Protein in water t=   0.00000 step= 0
325744
    1DG5    H5T    1   8.600   9.169   9.982
    1DG5    O5'    2   8.515   9.143   9.945
    1DG5    C5'    3   8.500   9.244   9.840
    1DG5   H5'1    4   8.491   9.344   9.881
    1DG5   H5'2    5   8.413   9.211   9.783
    1DG5    C4'    6   8.619   9.251   9.746
    1DG5    H4'    7   8.597   9.324   9.668
    1DG5    O4'    8   8.730   9.281   9.824
    1DG5    C1'    9   8.831   9.209   9.770
    1DG5    H1'   10   8.848   9.257   9.674
    1DG5     N9   11   8.950   9.196   9.837
    1DG5     C8   12   8.986   9.131   9.951
    1DG5     H8   13   8.926   9.076  10.022
    1DG5     N7   14   9.113   9.145   9.983
    1DG5     C5   15   9.166   9.205   9.867
    1DG5     C6   16   9.301   9.254   9.840
    1DG5     O6   17   9.400   9.237   9.908
    1DG5     N1   18   9.311   9.329   9.731
    1DG5     H1   19   9.398   9.367   9.697
    1DG5     C2   20   9.207   9.361   9.650
    1DG5     N2   21   9.230   9.432   9.545
    1DG5    H21   22   9.326   9.459   9.530
    1DG5    H22   23   9.161   9.480   9.488
    1DG5     N3   24   9.081   9.326   9.674
    1DG5     C4   25   9.067   9.246   9.789
    1DG5    C3'   26   8.637   9.120   9.677
    1DG5    H3'   27   8.562   9.042   9.695
    1DG5    C2'   28   8.772   9.076   9.730
    1DG5   H2'1   29   8.760   9.020   9.823
    1DG5   H2'2   30   8.835   9.032   9.652
    1DG5    O3'   31   8.652   9.130   9.529
    2DC       P   32   8.529   9.110   9.429
    2DC     O1P   33   8.414   9.188   9.475
    2DC     O2P   34   8.518   8.966   9.390
    2DC     O5'   35   8.592   9.194   9.304
    2DC     C5'   36   8.590   9.338   9.303
    2DC    H5'1   37   8.623   9.372   9.401
    2DC    H5'2   38   8.490   9.376   9.284
    2DC     C4'   39   8.684   9.404   9.197
    2DC     H4'   40   8.641   9.501   9.171
    2DC     O4'   41   8.820   9.416   9.244
    2DC     C1'   42   8.916   9.336   9.174
    2DC     H1'   43   8.972   9.400   9.106
    2DC      N1   44   9.010   9.260   9.258
    2DC      C6   45   8.960   9.178   9.358
    2DC      H6   46   8.853   9.164   9.364
    2DC      C5   47   9.046   9.104   9.428
    2DC      H5   48   9.015   9.029   9.499
    2DC      C4   49   9.190   9.135   9.417
    2DC      N4   50   9.265   9.084   9.507
    2DC     H41   51   9.366   9.089   9.514
    2DC     H42   52   9.223   9.041   9.588
    2DC      N3   53   9.240   9.217   9.326
    2DC      C2   54   9.152   9.275   9.243
    2DC      O2   55   9.203   9.343   9.153
    2DC     C3'   56   8.698   9.339   9.061
    2DC     H3'   57   8.615   9.273   9.036
    2DC     C2'   58   8.823   9.255   9.090
    2DC    H2'1   59   8.787   9.164   9.138
    2DC    H2'2   60   8.872   9.219   8.999
    2DC     O3'   61   8.716   9.441   8.966
    3DA       P   62   8.759   9.414   8.823
    3DA     O1P   63   8.729   9.540   8.747
    3DA     O2P   64   8.685   9.298   8.776
    3DA     O5'   65   8.913   9.377   8.816
    3DA     C5'   66   9.012   9.479   8.807
    3DA    H5'1   67   9.022   9.527   8.905
    3DA    H5'2   68   8.979   9.562   8.744
    3DA     C4'   69   9.156   9.428   8.764
    3DA     H4'   70   9.229   9.508   8.760
    3DA     O4'   71   9.197   9.344   8.870
    3DA     C1'   72   9.261   9.230   8.820
    3DA     H1'   73   9.370   9.237   8.817
    3DA      N9   74   9.242   9.125   8.924
    3DA      C8   75   9.127   9.064   8.963
    3DA      H8   76   9.036   9.090   8.912
    3DA      N7   77   9.139   8.972   9.055
    3DA      C5   78   9.276   8.982   9.093
    3DA      C6   79   9.371   8.924   9.184
    3DA      N6   80   9.342   8.829   9.271
    3DA     H61   81   9.425   8.801   9.323
    3DA     H62   82   9.248   8.799   9.293
    3DA      N1   83   9.500   8.954   9.172
    3DA      C2   84   9.536   9.048   9.092
    3DA      H2   85   9.641   9.069   9.096
    3DA      N3   86   9.464   9.124   9.015
    3DA      C4   87   9.336   9.080   9.015
    3DA     C3'   88   9.158   9.346   8.630
    3DA     H3'   89   9.060   9.336   8.583
    3DA     C2'   90   9.193   9.207   8.681
    3DA    H2'1   91   9.103   9.148   8.695
    3DA    H2'2   92   9.263   9.149   8.621
    3DA     O3'   93   9.251   9.413   8.549
    4DT       P   94   9.313   9.340   8.424
    4DT     O1P   95   9.368   9.443   8.336
    4DT     O2P   96   9.203   9.251   8.368
    4DT     O5'   97   9.442   9.253   8.468
    4DT     C5'   98   9.540   9.312   8.546
    4DT    H5'1   99   9.495   9.357   8.634
    4DT    H5'2  100   9.587   9.383   8.477
    4DT     C4'  101   9.658   9.220   8.598
    4DT     H4'  102   9.739   9.275   8.646
    4DT     O4'  103   9.601   9.136   8.695
    4DT     C1'  104   9.654   9.006   8.678
    4DT     H1'  105   9.750   9.002   8.730
    4DT      N1  106   9.577   8.906   8.748
    4DT      C6  107   9.448   8.881   8.708
    4DT      H6  108   9.414   8.941   8.625
    4DT      C5  109   9.367   8.799   8.785
    4DT      C7  110   9.226   8.785   8.750
    4DT     H71  111   9.184   8.693   8.708
    4DT     H72  112   9.158   8.799   8.834
    4DT     H73  113   9.193   8.862   8.680
    4DT      C4  114   9.421   8.734   8.906
    4DT      O4  115   9.360   8.659   8.981
    4DT      N3  116   9.556   8.757   8.930
    4DT      H3  117   9.603   8.708   9.006
    4DT      C2  118   9.638   8.836   8.853
    4DT      O2  119   9.755   8.851   8.884
    4DT     C3'  120   9.716   9.122   8.490
    4DT     H3'  121   9.671   9.153   8.396
    4DT     C2'  122   9.669   8.982   8.528
    4DT    H2'1  123   9.567   8.967   8.491
    4DT    H2'2  124   9.741   8.903   8.507
    4DT     O3'  125   9.861   9.134   8.496
    5DG       P  126   9.947   9.085   8.378
    5DG     O1P  127  10.069   9.164   8.381
    5DG     O2P  128   9.864   9.095   8.252
    5DG     O5'  129   9.971   8.927   8.400
    5DG     C5'  130  10.051   8.880   8.515
    5DG    H5'1  131  10.029   8.941   8.603
    5DG    H5'2  132  10.158   8.888   8.498
    5DG     C4'  133  10.017   8.729   8.536
    5DG     H4'  134  10.093   8.689   8.603
    5DG     O4'  135   9.903   8.717   8.617
    5DG     C1'  136   9.861   8.586   8.602
    5DG     H1'  137   9.937   8.509   8.615
    5DG      N9  138   9.736   8.544   8.670
    5DG      C8  139   9.610   8.538   8.623
    5DG      H8  140   9.573   8.581   8.531
    5DG      N7  141   9.523   8.473   8.695
    5DG      C5  142   9.602   8.425   8.801
    5DG      C6  143   9.566   8.368   8.926
    5DG      O6  144   9.455   8.331   8.972
    5DG      N1  145   9.674   8.354   9.014
    5DG      H1  146   9.653   8.292   9.091
    5DG      C2  147   9.800   8.376   8.979
    5DG      N2  148   9.904   8.330   9.047
    5DG     H21  149   9.888   8.277   9.131
    5DG     H22  150   9.995   8.362   9.017
    5DG      N3  151   9.838   8.437   8.867
    5DG      C4  152   9.736   8.462   8.781
    5DG     C3'  153   9.984   8.650   8.408
    5DG     H3'  154   9.999   8.706   8.316
    5DG     C2'  155   9.842   8.600   8.443
    5DG    H2'1  156   9.783   8.689   8.426
    5DG    H2'2  157   9.813   8.506   8.397
    5DG     O3'  158  10.061   8.532   8.396
    6DT       P  159  10.204   8.524   8.343
    6DT     O1P  160  10.263   8.658   8.357
    6DT     O2P  161  10.196   8.456   8.208
    6DT     O5'  162  10.271   8.427   8.452
    6DT     C5'  163  10.333   8.474   8.576
    6DT    H5'1  164  10.276   8.560   8.610
    6DT    H5'2  165  10.433   8.519   8.568
    6DT     C4'  166  10.322   8.366   8.677
    6DT     H4'  167  10.368   8.407   8.767
    6DT     O4'  168  10.183   8.351   8.705
    6DT     C1'  169  10.157   8.214   8.717
    6DT     H1'  170  10.179   8.181   8.819
    6DT      N1  171  10.015   8.174   8.696
    6DT      C6  172   9.955   8.205   8.576
    6DT      H6  173  10.014   8.258   8.502
    6DT      C5  174   9.823   8.183   8.563
    6DT      C7  175   9.756   8.229   8.438
    6DT     H71  176   9.718   8.143   8.383
    6DT     H72  177   9.679   8.303   8.459
    6DT     H73  178   9.831   8.276   8.373
    6DT      C4  179   9.744   8.129   8.671
    6DT      O4  180   9.615   8.130   8.678
    6DT      N3  181   9.820   8.088   8.777
    6DT      H3  182   9.771   8.046   8.855
    6DT      C2  183   9.945   8.113   8.799
    6DT      O2  184   9.985   8.086   8.912
    6DT     C3'  185  10.377   8.225   8.635
    6DT     H3'  186  10.428   8.236   8.540
    6DT     C2'  187  10.245   8.144   8.622
    6DT    H2'1  188  10.206   8.157   8.521
    6DT    H2'2  189  10.255   8.036   8.640
    6DT     O3'  190  10.455   8.178   8.741
    7DG       P  191  10.561   8.065   8.732
    7DG     O1P  192  10.632   8.056   8.858
    7DG     O2P  193  10.642   8.068   8.607
    7DG     O5'  194  10.482   7.933   8.730
    7DG     C5'  195  10.408   7.894   8.846
    7DG    H5'1  196  10.354   7.979   8.887
    7DG    H5'2  197  10.477   7.851   8.918
    7DG     C4'  198  10.296   7.786   8.824
    7DG     H4'  199  10.265   7.739   8.918
    7DG     O4'  200  10.178   7.838   8.764
    7DG     C1'  201  10.112   7.734   8.701
    7DG     H1'  202  10.084   7.657   8.773
    7DG      N9  203   9.997   7.779   8.619
    7DG      C8  204   9.995   7.867   8.519
    7DG      H8  205  10.080   7.921   8.478
    7DG      N7  206   9.874   7.896   8.485
    7DG      C5  207   9.791   7.824   8.569
    7DG      C6  208   9.646   7.807   8.577
    7DG      O6  209   9.557   7.850   8.504
    7DG      N1  210   9.600   7.720   8.677
    7DG      H1  211   9.502   7.716   8.699
    7DG      C2  212   9.683   7.669   8.771
    7DG      N2  213   9.624   7.603   8.866
    7DG     H21  214   9.525   7.588   8.863
    7DG     H22  215   9.678   7.552   8.935
    7DG      N3  216   9.817   7.681   8.768
    7DG      C4  217   9.866   7.753   8.657
    7DG     C3'  218  10.334   7.675   8.723
    7DG     H3'  219  10.432   7.688   8.679
    7DG     C2'  220  10.232   7.682   8.614
    7DG    H2'1  221  10.267   7.737   8.527
    7DG    H2'2  222  10.200   7.581   8.587
    7DG     O3'  223  10.326   7.547   8.780
    8DC       P  224  10.439   7.491   8.871
    8DC     O1P  225  10.497   7.591   8.959
    8DC     O2P  226  10.534   7.417   8.786
    8DC     O5'  227  10.340   7.391   8.951
    8DC     C5'  228  10.270   7.438   9.063
    8DC    H5'1  229  10.264   7.547   9.058
    8DC    H5'2  230  10.333   7.413   9.149
    8DC     C4'  231  10.136   7.373   9.083
    8DC     H4'  232  10.094   7.391   9.182
    8DC     O4'  233  10.052   7.429   8.984
    8DC     C1'  234   9.994   7.323   8.906
    8DC     H1'  235   9.906   7.286   8.958
    8DC      N1  236   9.955   7.360   8.769
    8DC      C6  237  10.047   7.393   8.677
    8DC      H6  238  10.153   7.382   8.696
    8DC      C5  239  10.011   7.413   8.550
    8DC      H5  240  10.087   7.423   8.474
    8DC      C4  241   9.874   7.408   8.517
    8DC      N4  242   9.834   7.454   8.400
    8DC     H41  243   9.738   7.459   8.369
    8DC     H42  244   9.898   7.452   8.322
    8DC      N3  245   9.777   7.377   8.597
    8DC      C2  246   9.819   7.350   8.725
    8DC      O2  247   9.730   7.327   8.813
    8DC     C3'  248  10.143   7.219   9.061
    8DC     H3'  249  10.245   7.181   9.059
    8DC     C2'  250  10.080   7.204   8.927
    8DC    H2'1  251  10.164   7.199   8.858
    8DC    H2'2  252  10.032   7.107   8.915
    8DC     O3'  253  10.058   7.159   9.163
    9DG       P  254  10.040   7.003   9.180
    9DG     O1P  255   9.994   6.983   9.316
    9DG     O2P  256  10.159   6.926   9.133
    9DG     O5'  257   9.910   6.967   9.090
    9DG     C5'  258   9.779   7.010   9.135
    9DG    H5'1  259   9.770   7.118   9.126
    9DG    H5'2  260   9.776   6.979   9.240
    9DG     C4'  261   9.663   6.939   9.065
    9DG     H4'  262   9.576   6.955   9.128
    9DG     O4'  263   9.629   6.993   8.944
    9DG     C1'  264   9.658   6.898   8.840
    9DG     H1'  265   9.566   6.872   8.788
    9DG      N9  266   9.738   6.959   8.737
    9DG      C8  267   9.874   6.978   8.720
    9DG      H8  268   9.953   6.941   8.783
    9DG      N7  269   9.905   7.019   8.602
    9DG      C5  270   9.783   7.060   8.541
    9DG      C6  271   9.750   7.107   8.413
    9DG      O6  272   9.825   7.131   8.318
    9DG      N1  273   9.618   7.128   8.390
    9DG      H1  274   9.586   7.151   8.297
    9DG      C2  275   9.527   7.072   8.467
    9DG      N2  276   9.402   7.075   8.415
    9DG     H21  277   9.395   7.125   8.327
    9DG     H22  278   9.331   7.015   8.454
    9DG      N3  279   9.549   7.014   8.592
    9DG      C4  280   9.680   7.010   8.623
    9DG     C3'  281   9.686   6.786   9.052
    9DG     H3'  282   9.769   6.757   9.116
    9DG     C2'  283   9.718   6.771   8.903
    9DG    H2'1  284   9.824   6.764   8.880
    9DG    H2'2  285   9.680   6.675   8.867
    9DG     O3'  286   9.574   6.715   9.101
   10DT       P  287   9.562   6.562   9.084
   10DT     O1P  288   9.460   6.522   9.184
   10DT     O2P  289   9.696   6.506   9.093
   10DT     O5'  290   9.494   6.526   8.944
   10DT     C5'  291   9.376   6.591   8.912
   10DT    H5'1  292   9.383   6.698   8.930
   10DT    H5'2  293   9.291   6.551   8.968
   10DT     C4'  294   9.347   6.566   8.762
   10DT     H4'  295   9.243   6.584   8.735
   10DT     O4'  296   9.435   6.651   8.681
   10DT     C1'  297   9.480   6.577   8.564
   10DT     H1'  298   9.390   6.577   8.502
   10DT      N1  299   9.588   6.647   8.499
   10DT      C6  300   9.723   6.630   8.543
   10DT      H6  301   9.738   6.579   8.636
   10DT      C5  302   9.831   6.682   8.485
   10DT      C7  303   9.967   6.667   8.550
   10DT     H71  304  10.007   6.767   8.568
   10DT     H72  305   9.955   6.615   8.645
   10DT     H73  306  10.039   6.628   8.478
   10DT      C4  307   9.813   6.757   8.359
   10DT      O4  308   9.896   6.818   8.289
   10DT      N3  309   9.681   6.761   8.319
   10DT      H3  310   9.673   6.801   8.227
   10DT      C2  311   9.565   6.716   8.384
   10DT      O2  312   9.457   6.744   8.331
   10DT     C3'  313   9.368   6.425   8.707
   10DT     H3'  314   9.382   6.363   8.795
   10DT     C2'  315   9.494   6.440   8.623
   10DT    H2'1  316   9.578   6.440   8.692
   10DT    H2'2  317   9.510   6.353   8.558
   10DT     O3'  318   9.262   6.377   8.620
   11DA       P  319   9.194   6.233   8.629
   11DA     O1P  320   9.116   6.223   8.764
   11DA     O2P  321   9.303   6.138   8.601
   11DA     O5'  322   9.097   6.229   8.503
   11DA     C5'  323   8.997   6.326   8.483
   11DA    H5'1  324   9.000   6.413   8.549
   11DA    H5'2  325   8.895   6.291   8.498
   11DA     C4'  326   9.009   6.376   8.340
   11DA     H4'  327   8.929   6.448   8.326
   11DA     O4'  328   9.142   6.429   8.321
   11DA     C1'  329   9.191   6.380   8.191
   11DA     H1'  330   9.152   6.439   8.108
   11DA      N9  331   9.338   6.374   8.199
   11DA      C8  332   9.406   6.317   8.308
   11DA      H8  333   9.367   6.270   8.396
   11DA      N7  334   9.534   6.341   8.307
   11DA      C5  335   9.553   6.409   8.187
   11DA      C6  336   9.665   6.469   8.121
   11DA      N6  337   9.795   6.453   8.155
   11DA     H61  338   9.862   6.508   8.102
   11DA     H62  339   9.816   6.390   8.231
   11DA      N1  340   9.658   6.534   8.005
   11DA      C2  341   9.536   6.549   7.956
   11DA      H2  342   9.533   6.615   7.871
   11DA      N3  343   9.420   6.509   8.005
   11DA      C4  344   9.432   6.441   8.125
   11DA     C3'  345   8.977   6.267   8.230
   11DA     H3'  346   8.921   6.185   8.276
   11DA     C2'  347   9.123   6.239   8.188
   11DA    H2'1  348   9.177   6.170   8.252
   11DA    H2'2  349   9.132   6.209   8.083
   11DA     O3'  350   8.895   6.326   8.125
   12DT       P  351   8.858   6.239   7.989
   12DT     O1P  352   8.736   6.291   7.929
   12DT     O2P  353   8.854   6.096   8.028
   12DT     O5'  354   8.994   6.259   7.897
   12DT     C5'  355   9.005   6.367   7.806
   12DT    H5'1  356   9.025   6.460   7.859
   12DT    H5'2  357   8.907   6.362   7.758
   12DT     C4'  358   9.122   6.352   7.709
   12DT     H4'  359   9.115   6.441   7.646
   12DT     O4'  360   9.247   6.336   7.771
   12DT     C1'  361   9.321   6.239   7.709
   12DT     H1'  362   9.352   6.279   7.612
   12DT      N1  363   9.428   6.191   7.799
   12DT      C6  364   9.403   6.102   7.908
   12DT      H6  365   9.303   6.064   7.921
   12DT      C5  366   9.502   6.072   7.997
   12DT      C7  367   9.470   5.984   8.117
   12DT     H71  368   9.530   5.892   8.113
   12DT     H72  369   9.492   6.032   8.212
   12DT     H73  370   9.364   5.958   8.117
   12DT      C4  371   9.639   6.118   7.975
   12DT      O4  372   9.735   6.098   8.048
   12DT      N3  373   9.652   6.203   7.868
   12DT      H3  374   9.736   6.257   7.852
   12DT      C2  375   9.560   6.238   7.778
   12DT      O2  376   9.592   6.319   7.691
   12DT     C3'  377   9.109   6.229   7.617
   12DT     H3'  378   9.016   6.173   7.625
   12DT     C2'  379   9.219   6.138   7.664
   12DT    H2'1  380   9.183   6.082   7.751
   12DT    H2'2  381   9.256   6.073   7.585
   12DT     O3'  382   9.124   6.282   7.485
   13DG       P  383   9.061   6.215   7.349
   13DG     O1P  384   8.958   6.308   7.296
   13DG     O2P  385   9.022   6.076   7.372
   13DG     O5'  386   9.198   6.222   7.267
   13DG     C5'  387   9.251   6.354   7.232
   13DG    H5'1  388   9.249   6.411   7.325
   13DG    H5'2  389   9.192   6.420   7.167
   13DG     C4'  390   9.395   6.361   7.176
   13DG     H4'  391   9.412   6.461   7.136
   13DG     O4'  392   9.494   6.329   7.276
   13DG     C1'  393   9.580   6.230   7.225
   13DG     H1'  394   9.657   6.291   7.178
   13DG      N9  395   9.615   6.146   7.340
   13DG      C8  396   9.535   6.063   7.416
   13DG      H8  397   9.436   6.045   7.375
   13DG      N7  398   9.590   6.018   7.528
   13DG      C5  399   9.718   6.068   7.526
   13DG      C6  400   9.832   6.048   7.614
   13DG      O6  401   9.839   5.985   7.719
   13DG      N1  402   9.947   6.102   7.564
   13DG      H1  403  10.028   6.087   7.622
   13DG      C2  404   9.956   6.173   7.446
   13DG      N2  405  10.069   6.235   7.417
   13DG     H21  406  10.152   6.225   7.473
   13DG     H22  407  10.079   6.287   7.331
   13DG      N3  408   9.857   6.187   7.360
   13DG      C4  409   9.741   6.134   7.406
   13DG     C3'  410   9.430   6.275   7.064
   13DG     H3'  411   9.336   6.241   7.021
   13DG     C2'  412   9.502   6.153   7.118
   13DG    H2'1  413   9.430   6.081   7.156
   13DG    H2'2  414   9.566   6.113   7.038
   13DG     O3'  415   9.513   6.342   6.968
   14DC       P  416   9.506   6.296   6.813
   14DC     O1P  417   9.529   6.413   6.728
   14DC     O2P  418   9.379   6.213   6.788
   14DC     O5'  419   9.628   6.194   6.802
   14DC     C5'  420   9.761   6.239   6.818
   14DC    H5'1  421   9.757   6.301   6.908
   14DC    H5'2  422   9.801   6.294   6.733
   14DC     C4'  423   9.861   6.132   6.851
   14DC     H4'  424   9.958   6.181   6.841
   14DC     O4'  425   9.857   6.086   6.987
   14DC     C1'  426   9.881   5.952   6.989
   14DC     H1'  427   9.983   5.922   6.968
   14DC      N1  428   9.843   5.883   7.119
   14DC      C6  429   9.727   5.807   7.124
   14DC      H6  430   9.657   5.792   7.043
   14DC      C5  431   9.701   5.738   7.238
   14DC      H5  432   9.608   5.682   7.241
   14DC      C4  433   9.790   5.752   7.354
   14DC      N4  434   9.791   5.674   7.460
   14DC     H41  435   9.860   5.698   7.530
   14DC     H42  436   9.723   5.600   7.477
   14DC      N3  437   9.897   5.833   7.345
   14DC      C2  438   9.928   5.895   7.227
   14DC      O2  439  10.037   5.949   7.218
   14DC     C3'  440   9.855   6.005   6.761
   14DC     H3'  441   9.794   6.010   6.671
   14DC     C2'  442   9.816   5.901   6.859
   14DC    H2'1  443   9.707   5.901   6.868
   14DC    H2'2  444   9.855   5.804   6.830
   14DC     O3'  445   9.992   5.989   6.724
   15DG       P  446  10.054   6.056   6.590
   15DG     O1P  447  10.019   6.199   6.589
   15DG     O2P  448  10.023   5.970   6.475
   15DG     O5'  449  10.212   6.057   6.616
   15DG     C5'  450  10.306   5.950   6.598
   15DG    H5'1  451  10.343   5.950   6.495
   15DG    H5'2  452  10.260   5.853   6.617
   15DG     C4'  453  10.427   5.948   6.690
   15DG     H4'  454  10.483   6.041   6.680
   15DG     O4'  455  10.377   5.923   6.818
   15DG     C1'  456  10.410   5.792   6.854
   15DG     H1'  457  10.491   5.802   6.927
   15DG      N9  458  10.290   5.729   6.916
   15DG      C8  459  10.161   5.721   6.865
   15DG      H8  460  10.134   5.748   6.764
   15DG      N7  461  10.069   5.674   6.945
   15DG      C5  462  10.140   5.645   7.062
   15DG      C6  463  10.102   5.588   7.187
   15DG      O6  464   9.995   5.543   7.225
   15DG      N1  465  10.206   5.573   7.272
   15DG      H1  466  10.183   5.532   7.361
   15DG      C2  467  10.334   5.608   7.247
   15DG      N2  468  10.425   5.574   7.326
   15DG     H21  469  10.397   5.539   7.416
   15DG     H22  470  10.522   5.597   7.311
   15DG      N3  471  10.381   5.659   7.130
   15DG      C4  472  10.276   5.682   7.042
   15DG     C3'  473  10.524   5.834   6.652
   15DG     H3'  474  10.524   5.803   6.547
   15DG     C2'  475  10.461   5.723   6.734
   15DG    H2'1  476  10.376   5.676   6.685
   15DG    H2'2  477  10.533   5.645   6.762
   15DG     O3'  478  10.659   5.861   6.690
   16DT3      P  479  10.774   5.803   6.604
   16DT3    O1P  480  10.805   5.901   6.494
   16DT3    O2P  481  10.727   5.667   6.567
   16DT3    O5'  482  10.895   5.783   6.708
   16DT3    C5'  483  10.942   5.888   6.784
   16DT3   H5'1  484  10.884   5.907   6.874
   16DT3   H5'2  485  10.945   5.979   6.723
   16DT3    C4'  486  11.085   5.852   6.820
   16DT3    H4'  487  11.142   5.865   6.728
   16DT3    O4'  488  11.142   5.941   6.917
   16DT3    C1'  489  11.168   5.868   7.032
   16DT3    H1'  490  11.276   5.852   7.041
   16DT3     N1  491  11.114   5.948   7.144
   16DT3     C6  492  11.010   6.048   7.126
   16DT3     H6  493  10.956   6.050   7.032
   16DT3     C5  494  10.967   6.125   7.237
   16DT3     C7  495  10.859   6.228   7.225
   16DT3    H71  496  10.885   6.315   7.285
   16DT3    H72  497  10.840   6.243   7.118
   16DT3    H73  498  10.766   6.193   7.269
   16DT3     C4  499  11.038   6.110   7.367
   16DT3     O4  500  11.016   6.184   7.466
   16DT3     N3  501  11.131   6.015   7.375
   16DT3     H3  502  11.161   5.985   7.466
   16DT3     C2  503  11.180   5.940   7.266
   16DT3     O2  504  11.276   5.870   7.283
   16DT3    C3'  505  11.107   5.708   6.871
   16DT3    H3'  506  11.030   5.632   6.853
   16DT3    C2'  507  11.115   5.731   7.017
   16DT3   H2'1  508  11.019   5.714   7.067
   16DT3   H2'2  509  11.174   5.653   7.064
   16DT3    O3'  510  11.230   5.651   6.821
   16DT3    H3T  511  11.216   5.594   6.745
   17DC5    H5T  512  11.053   0.319   5.010
   17DC5    O5'  513  10.961   0.336   4.986
   17DC5    C5'  514  10.877   0.237   5.048
   17DC5   H5'1  515  10.934   0.145   5.064
   17DC5   H5'2  516  10.801   0.213   4.973
   17DC5    C4'  517  10.816   0.294   5.173
   17DC5    H4'  518  10.747   0.215   5.202
   17DC5    O4'  519  10.918   0.311   5.277
   17DC5    C1'  520  10.902   0.438   5.330
   17DC5    H1'  521  10.838   0.437   5.418
   17DC5     N1  522  11.041   0.475   5.373
   17DC5     C6  523  11.136   0.522   5.286
   17DC5     H6  524  11.109   0.541   5.183
   17DC5     C5  525  11.262   0.537   5.331
   17DC5     H5  526  11.335   0.587   5.269
   17DC5     C4  527  11.294   0.518   5.466
   17DC5     N4  528  11.408   0.545   5.519
   17DC5    H41  529  11.415   0.522   5.616
   17DC5    H42  530  11.485   0.563   5.456
   17DC5     N3  531  11.201   0.480   5.551
   17DC5     C2  532  11.073   0.452   5.508
   17DC5     O2  533  10.991   0.422   5.593
   17DC5    C3'  534  10.742   0.427   5.155
   17DC5    H3'  535  10.726   0.450   5.049
   17DC5    C2'  536  10.832   0.528   5.225
   17DC5   H2'1  537  10.896   0.575   5.151
   17DC5   H2'2  538  10.782   0.613   5.271
   17DC5    O3'  539  10.611   0.422   5.217
   18DG       P  540  10.509   0.543   5.208
   18DG     O1P  541  10.370   0.502   5.202
   18DG     O2P  542  10.552   0.631   5.096
   18DG     O5'  543  10.533   0.629   5.335
   18DG     C5'  544  10.516   0.581   5.464
   18DG    H5'1  545  10.580   0.493   5.472
   18DG    H5'2  546  10.409   0.564   5.473
   18DG     C4'  547  10.572   0.669   5.573
   18DG     H4'  548  10.537   0.632   5.669
   18DG     O4'  549  10.712   0.672   5.574
   18DG     C1'  550  10.750   0.807   5.596
   18DG     H1'  551  10.729   0.838   5.699
   18DG      N9  552  10.890   0.808   5.574
   18DG      C8  553  10.962   0.824   5.456
   18DG      H8  554  10.915   0.820   5.359
   18DG      N7  555  11.094   0.820   5.467
   18DG      C5  556  11.112   0.793   5.607
   18DG      C6  557  11.230   0.798   5.689
   18DG      O6  558  11.347   0.824   5.654
   18DG      N1  559  11.212   0.754   5.813
   18DG      H1  560  11.294   0.741   5.870
   18DG      C2  561  11.088   0.722   5.863
   18DG      N2  562  11.087   0.681   5.985
   18DG     H21  563  11.168   0.681   6.046
   18DG     H22  564  11.001   0.642   6.020
   18DG      N3  565  10.972   0.743   5.798
   18DG      C4  566  10.989   0.778   5.667
   18DG     C3'  567  10.537   0.819   5.552
   18DG     H3'  568  10.466   0.831   5.470
   18DG     C2'  569  10.664   0.878   5.502
   18DG    H2'1  570  10.704   0.844   5.407
   18DG    H2'2  571  10.663   0.987   5.514
   18DG     O3'  572  10.496   0.888   5.681
   19DC       P  573  10.337   0.875   5.727
   19DC     O1P  574  10.288   0.743   5.688
   19DC     O2P  575  10.269   1.000   5.677
   19DC     O5'  576  10.338   0.888   5.883
   19DC     C5'  577  10.399   0.791   5.960
   19DC    H5'1  578  10.445   0.712   5.899
   19DC    H5'2  579  10.322   0.742   6.019
   19DC     C4'  580  10.515   0.851   6.043
   19DC     H4'  581  10.546   0.781   6.120
   19DC     O4'  582  10.624   0.873   5.961
   19DC     C1'  583  10.685   0.994   6.008
   19DC     H1'  584  10.733   0.990   6.105
   19DC      N1  585  10.786   1.037   5.913
   19DC      C6  586  10.759   1.098   5.790
   19DC      H6  587  10.664   1.096   5.739
   19DC      C5  588  10.858   1.149   5.714
   19DC      H5  589  10.848   1.190   5.614
   19DC      C4  590  10.984   1.142   5.773
   19DC      N4  591  11.090   1.184   5.702
   19DC     H41  592  11.184   1.165   5.732
   19DC     H42  593  11.079   1.232   5.614
   19DC      N3  594  11.018   1.084   5.888
   19DC      C2  595  10.918   1.029   5.965
   19DC      O2  596  10.953   0.958   6.064
   19DC     C3'  597  10.476   0.990   6.103
   19DC     H3'  598  10.371   1.018   6.092
   19DC     C2'  599  10.567   1.084   6.023
   19DC    H2'1  600  10.527   1.120   5.928
   19DC    H2'2  601  10.601   1.168   6.084
   19DC     O3'  602  10.521   0.996   6.242
   20DA       P  603  10.423   1.030   6.363
   20DA     O1P  604  10.321   0.922   6.388
   20DA     O2P  605  10.377   1.166   6.355
   20DA     O5'  606  10.530   1.022   6.475
   20DA     C5'  607  10.596   0.894   6.509
   20DA    H5'1  608  10.636   0.841   6.423
   20DA    H5'2  609  10.527   0.823   6.555
   20DA     C4'  610  10.723   0.921   6.593
   20DA     H4'  611  10.751   0.822   6.629
   20DA     O4'  612  10.821   0.973   6.505
   20DA     C1'  613  10.856   1.108   6.538
   20DA     H1'  614  10.960   1.115   6.571
   20DA      N9  615  10.866   1.183   6.408
   20DA      C8  616  10.770   1.210   6.312
   20DA      H8  617  10.667   1.181   6.330
   20DA      N7  618  10.815   1.267   6.203
   20DA      C5  619  10.956   1.283   6.231
   20DA      C6  620  11.069   1.324   6.160
   20DA      N6  621  11.063   1.361   6.038
   20DA     H61  622  11.143   1.378   5.979
   20DA     H62  623  10.983   1.343   5.979
   20DA      N1  624  11.189   1.323   6.220
   20DA      C2  625  11.201   1.292   6.348
   20DA      H2  626  11.300   1.302   6.390
   20DA      N3  627  11.104   1.237   6.421
   20DA      C4  628  10.982   1.234   6.357
   20DA     C3'  629  10.718   1.017   6.707
   20DA     H3'  630  10.621   1.023   6.756
   20DA     C2'  631  10.742   1.151   6.639
   20DA    H2'1  632  10.658   1.194   6.584
   20DA    H2'2  633  10.783   1.231   6.699
   20DA     O3'  634  10.821   0.996   6.797
   21DC       P  635  10.797   1.029   6.955
   21DC     O1P  636  10.890   0.943   7.027
   21DC     O2P  637  10.650   1.035   6.986
   21DC     O5'  638  10.849   1.175   6.973
   21DC     C5'  639  10.988   1.191   7.001
   21DC    H5'1  640  11.040   1.109   6.952
   21DC    H5'2  641  11.008   1.180   7.107
   21DC     C4'  642  11.026   1.331   6.952
   21DC     H4'  643  11.127   1.355   6.983
   21DC     O4'  644  10.996   1.351   6.809
   21DC     C1'  645  10.954   1.484   6.796
   21DC     H1'  646  11.042   1.546   6.814
   21DC      N1  647  10.899   1.513   6.660
   21DC      C6  648  10.770   1.504   6.623
   21DC      H6  649  10.695   1.476   6.694
   21DC      C5  650  10.730   1.532   6.494
   21DC      H5  651  10.625   1.525   6.469
   21DC      C4  652  10.833   1.573   6.409
   21DC      N4  653  10.795   1.626   6.296
   21DC     H41  654  10.870   1.648   6.231
   21DC     H42  655  10.708   1.602   6.251
   21DC      N3  656  10.964   1.583   6.434
   21DC      C2  657  10.998   1.544   6.558
   21DC      O2  658  11.123   1.544   6.583
   21DC     C3'  659  10.945   1.444   7.024
   21DC     H3'  660  10.893   1.399   7.108
   21DC     C2'  661  10.857   1.498   6.911
   21DC    H2'1  662  10.766   1.441   6.895
   21DC    H2'2  663  10.833   1.602   6.934
   21DC     O3'  664  11.034   1.547   7.073
   22DG       P  665  11.100   1.546   7.219
   22DG     O1P  666  11.189   1.432   7.229
   22DG     O2P  667  10.998   1.576   7.320
   22DG     O5'  668  11.194   1.669   7.199
   22DG     C5'  669  11.319   1.655   7.141
   22DG    H5'1  670  11.317   1.565   7.079
   22DG    H5'2  671  11.393   1.627   7.216
   22DG     C4'  672  11.369   1.776   7.060
   22DG     H4'  673  11.475   1.752   7.054
   22DG     O4'  674  11.309   1.775   6.935
   22DG     C1'  675  11.239   1.903   6.918
   22DG     H1'  676  11.311   1.967   6.868
   22DG      N9  677  11.112   1.895   6.841
   22DG      C8  678  10.987   1.854   6.884
   22DG      H8  679  10.973   1.840   6.990
   22DG      N7  680  10.891   1.860   6.797
   22DG      C5  681  10.962   1.895   6.677
   22DG      C6  682  10.919   1.920   6.541
   22DG      O6  683  10.801   1.911   6.500
   22DG      N1  684  11.021   1.970   6.459
   22DG      H1  685  10.984   2.010   6.374
   22DG      C2  686  11.146   1.997   6.497
   22DG      N2  687  11.227   2.039   6.406
   22DG     H21  688  11.195   2.056   6.312
   22DG     H22  689  11.323   2.054   6.435
   22DG      N3  690  11.190   1.966   6.619
   22DG      C4  691  11.095   1.920   6.704
   22DG     C3'  692  11.353   1.917   7.125
   22DG     H3'  693  11.342   1.913   7.234
   22DG     C2'  694  11.219   1.952   7.064
   22DG    H2'1  695  11.141   1.884   7.099
   22DG    H2'2  696  11.197   2.058   7.076
   22DG     O3'  697  11.459   1.999   7.089
   23DC       P  698  11.567   2.058   7.191
   23DC     O1P  699  11.652   1.945   7.222
   23DC     O2P  700  11.518   2.157   7.293
   23DC     O5'  701  11.652   2.139   7.090
   23DC     C5'  702  11.601   2.258   7.035
   23DC    H5'1  703  11.668   2.340   7.061
   23DC    H5'2  704  11.498   2.281   7.061
   23DC     C4'  705  11.625   2.251   6.877
   23DC     H4'  706  11.699   2.173   6.859
   23DC     O4'  707  11.502   2.215   6.830
   23DC     C1'  708  11.447   2.312   6.742
   23DC     H1'  709  11.471   2.303   6.636
   23DC      N1  710  11.298   2.325   6.753
   23DC      C6  711  11.248   2.316   6.878
   23DC      H6  712  11.306   2.341   6.966
   23DC      C5  713  11.113   2.285   6.893
   23DC      H5  714  11.072   2.289   6.992
   23DC      C4  715  11.029   2.275   6.774
   23DC      N4  716  10.898   2.242   6.783
   23DC     H41  717  10.844   2.245   6.698
   23DC     H42  718  10.859   2.242   6.877
   23DC      N3  719  11.077   2.297   6.655
   23DC      C2  720  11.214   2.317   6.644
   23DC      O2  721  11.252   2.342   6.533
   23DC     C3'  722  11.646   2.389   6.817
   23DC     H3'  723  11.704   2.458   6.879
   23DC     C2'  724  11.510   2.438   6.787
   23DC    H2'1  725  11.471   2.475   6.882
   23DC    H2'2  726  11.503   2.521   6.717
   23DC     O3'  727  11.728   2.372   6.700
   24DA       P  728  11.782   2.493   6.602
   24DA     O1P  729  11.890   2.443   6.513
   24DA     O2P  730  11.823   2.600   6.690
   24DA     O5'  731  11.667   2.560   6.517
   24DA     C5'  732  11.606   2.500   6.407
   24DA    H5'1  733  11.566   2.409   6.452
   24DA    H5'2  734  11.675   2.472   6.328
   24DA     C4'  735  11.489   2.585   6.353
   24DA     H4'  736  11.468   2.537   6.258
   24DA     O4'  737  11.382   2.566   6.435
   24DA     C1'  738  11.320   2.689   6.444
   24DA     H1'  739  11.249   2.711   6.364
   24DA      N9  740  11.238   2.693   6.568
   24DA      C8  741  11.286   2.710   6.694
   24DA      H8  742  11.387   2.741   6.717
   24DA      N7  743  11.209   2.659   6.787
   24DA      C5  744  11.082   2.638   6.716
   24DA      C6  745  10.952   2.611   6.746
   24DA      N6  746  10.900   2.592   6.862
   24DA     H61  747  10.800   2.580   6.863
   24DA     H62  748  10.947   2.607   6.950
   24DA      N1  749  10.858   2.603   6.656
   24DA      C2  750  10.894   2.627   6.527
   24DA      H2  751  10.827   2.604   6.446
   24DA      N3  752  11.013   2.662   6.482
   24DA      C4  753  11.102   2.664   6.582
   24DA     C3'  754  11.517   2.734   6.332
   24DA     H3'  755  11.619   2.771   6.337
   24DA     C2'  756  11.422   2.798   6.437
   24DA    H2'1  757  11.475   2.808   6.532
   24DA    H2'2  758  11.370   2.886   6.401
   24DA     O3'  759  11.473   2.760   6.199
   25DC       P  760  11.484   2.904   6.123
   25DC     O1P  761  11.484   2.879   5.980
   25DC     O2P  762  11.602   2.970   6.175
   25DC     O5'  763  11.350   2.973   6.173
   25DC     C5'  764  11.222   2.953   6.115
   25DC    H5'1  765  11.198   2.847   6.113
   25DC    H5'2  766  11.228   2.990   6.012
   25DC     C4'  767  11.121   3.049   6.184
   25DC     H4'  768  11.031   3.061   6.124
   25DC     O4'  769  11.094   2.995   6.306
   25DC     C1'  770  11.069   3.092   6.398
   25DC     H1'  771  10.987   3.158   6.368
   25DC      N1  772  11.042   3.040   6.531
   25DC      C6  773  11.131   3.044   6.637
   25DC      H6  774  11.229   3.087   6.625
   25DC      C5  775  11.098   2.989   6.756
   25DC      H5  776  11.173   2.992   6.833
   25DC      C4  777  10.958   2.947   6.767
   25DC      N4  778  10.904   2.902   6.874
   25DC     H41  779  10.811   2.863   6.870
   25DC     H42  780  10.962   2.909   6.956
   25DC      N3  781  10.874   2.940   6.665
   25DC      C2  782  10.914   2.984   6.543
   25DC      O2  783  10.835   2.973   6.450
   25DC     C3'  784  11.180   3.188   6.226
   25DC     H3'  785  11.284   3.198   6.192
   25DC     C2'  786  11.188   3.183   6.376
   25DC    H2'1  787  11.285   3.140   6.400
   25DC    H2'2  788  11.184   3.278   6.429
   25DC     O3'  789  11.089   3.294   6.184
   26DG       P  790  11.108   3.370   6.047
   26DG     O1P  791  11.155   3.262   5.959
   26DG     O2P  792  11.189   3.492   6.070
   26DG     O5'  793  10.967   3.417   5.997
   26DG     C5'  794  10.861   3.322   5.958
   26DG    H5'1  795  10.898   3.220   5.961
   26DG    H5'2  796  10.831   3.340   5.854
   26DG     C4'  797  10.733   3.350   6.044
   26DG     H4'  798  10.656   3.282   6.006
   26DG     O4'  799  10.764   3.316   6.180
   26DG     C1'  800  10.737   3.422   6.262
   26DG     H1'  801  10.629   3.417   6.274
   26DG      N9  802  10.811   3.409   6.391
   26DG      C8  803  10.935   3.449   6.430
   26DG      H8  804  11.008   3.485   6.359
   26DG      N7  805  10.970   3.406   6.552
   26DG      C5  806  10.857   3.337   6.599
   26DG      C6  807  10.822   3.281   6.724
   26DG      O6  808  10.885   3.284   6.832
   26DG      N1  809  10.694   3.229   6.733
   26DG      H1  810  10.673   3.194   6.826
   26DG      C2  811  10.603   3.244   6.632
   26DG      N2  812  10.485   3.190   6.654
   26DG     H21  813  10.470   3.138   6.739
   26DG     H22  814  10.407   3.215   6.594
   26DG      N3  815  10.634   3.283   6.507
   26DG      C4  816  10.760   3.335   6.499
   26DG     C3'  817  10.689   3.502   6.048
   26DG     H3'  818  10.719   3.567   5.966
   26DG     C2'  819  10.755   3.551   6.173
   26DG    H2'1  820  10.860   3.577   6.160
   26DG    H2'2  821  10.718   3.643   6.217
   26DG     O3'  822  10.552   3.509   6.067
   27DC       P  823  10.471   3.642   6.030
   27DC     O1P  824  10.498   3.684   5.899
   27DC     O2P  825  10.483   3.737   6.138
   27DC     O5'  826  10.324   3.584   6.020
   27DC     C5'  827  10.207   3.652   6.065
   27DC    H5'1  828  10.144   3.654   5.976
   27DC    H5'2  829  10.236   3.756   6.081
   27DC     C4'  830  10.146   3.580   6.183
   27DC     H4'  831  10.096   3.491   6.143
   27DC     O4'  832  10.258   3.536   6.262
   27DC     C1'  833  10.228   3.550   6.401
   27DC     H1'  834  10.172   3.465   6.440
   27DC      N1  835  10.349   3.563   6.499
   27DC      C6  836  10.468   3.605   6.448
   27DC      H6  837  10.479   3.627   6.343
   27DC      C5  838  10.566   3.633   6.539
   27DC      H5  839  10.657   3.680   6.502
   27DC      C4  840  10.550   3.583   6.671
   27DC      N4  841  10.653   3.592   6.741
   27DC     H41  842  10.647   3.552   6.833
   27DC     H42  843  10.737   3.624   6.695
   27DC      N3  844  10.434   3.536   6.714
   27DC      C2  845  10.329   3.532   6.634
   27DC      O2  846  10.219   3.498   6.679
   27DC     C3'  847  10.042   3.647   6.278
   27DC     H3'  848   9.968   3.571   6.304
   27DC     C2'  849  10.125   3.663   6.407
   27DC    H2'1  850  10.179   3.757   6.402
   27DC    H2'2  851  10.060   3.670   6.494
   27DC     O3'  852   9.985   3.774   6.244
   28DG       P  853   9.824   3.791   6.260
   28DG     O1P  854   9.763   3.671   6.193
   28DG     O2P  855   9.790   3.925   6.215
   28DG     O5'  856   9.802   3.790   6.420
   28DG     C5'  857   9.778   3.660   6.486
   28DG    H5'1  858   9.877   3.619   6.504
   28DG    H5'2  859   9.727   3.598   6.412
   28DG     C4'  860   9.691   3.668   6.610
   28DG     H4'  861   9.633   3.577   6.622
   28DG     O4'  862   9.783   3.672   6.719
   28DG     C1'  863   9.802   3.809   6.746
   28DG     H1'  864   9.799   3.812   6.855
   28DG      N9  865   9.942   3.848   6.713
   28DG      C8  866   9.989   3.921   6.608
   28DG      H8  867   9.931   3.954   6.524
   28DG      N7  868  10.120   3.946   6.608
   28DG      C5  869  10.162   3.894   6.733
   28DG      C6  870  10.290   3.884   6.800
   28DG      O6  871  10.399   3.926   6.766
   28DG      N1  872  10.286   3.821   6.922
   28DG      H1  873  10.371   3.804   6.973
   28DG      C2  874  10.174   3.778   6.981
   28DG      N2  875  10.188   3.734   7.105
   28DG     H21  876  10.277   3.743   7.152
   28DG     H22  877  10.106   3.697   7.151
   28DG      N3  878  10.050   3.786   6.925
   28DG      C4  879  10.053   3.837   6.797
   28DG     C3'  880   9.593   3.793   6.616
   28DG     H3'  881   9.542   3.826   6.526
   28DG     C2'  882   9.694   3.893   6.680
   28DG    H2'1  883   9.722   3.969   6.608
   28DG    H2'2  884   9.647   3.961   6.751
   28DG     O3'  885   9.492   3.760   6.707
   29DC       P  886   9.389   3.869   6.777
   29DC     O1P  887   9.258   3.803   6.802
   29DC     O2P  888   9.390   3.998   6.701
   29DC     O5'  889   9.462   3.892   6.914
   29DC     C5'  890   9.506   3.789   6.999
   29DC    H5'1  891   9.571   3.723   6.942
   29DC    H5'2  892   9.414   3.738   7.024
   29DC     C4'  893   9.586   3.834   7.120
   29DC     H4'  894   9.597   3.752   7.191
   29DC     O4'  895   9.720   3.867   7.088
   29DC     C1'  896   9.747   3.994   7.150
   29DC     H1'  897   9.781   3.987   7.253
   29DC      N1  898   9.847   4.063   7.064
   29DC      C6  899   9.817   4.123   6.947
   29DC      H6  900   9.717   4.108   6.910
   29DC      C5  901   9.911   4.183   6.876
   29DC      H5  902   9.896   4.230   6.780
   29DC      C4  903  10.043   4.172   6.934
   29DC      N4  904  10.143   4.232   6.873
   29DC     H41  905  10.230   4.230   6.924
   29DC     H42  906  10.120   4.301   6.803
   29DC      N3  907  10.079   4.116   7.045
   29DC      C2  908   9.980   4.063   7.116
   29DC      O2  909  10.012   4.009   7.223
   29DC     C3'  910   9.511   3.950   7.194
   29DC     H3'  911   9.416   3.983   7.151
   29DC     C2'  912   9.610   4.067   7.174
   29DC    H2'1  913   9.583   4.118   7.081
   29DC    H2'2  914   9.617   4.130   7.262
   29DC     O3'  915   9.500   3.915   7.337
   30DA       P  916   9.455   4.013   7.452
   30DA     O1P  917   9.408   3.924   7.561
   30DA     O2P  918   9.359   4.110   7.398
   30DA     O5'  919   9.588   4.087   7.506
   30DA     C5'  920   9.697   4.028   7.573
   30DA    H5'1  921   9.731   3.942   7.516
   30DA    H5'2  922   9.674   4.004   7.677
   30DA     C4'  923   9.818   4.125   7.592
   30DA     H4'  924   9.899   4.072   7.642
   30DA     O4'  925   9.868   4.158   7.459
   30DA     C1'  926   9.901   4.297   7.473
   30DA     H1'  927  10.005   4.292   7.506
   30DA      N9  928   9.891   4.353   7.337
   30DA      C8  929   9.780   4.384   7.260
   30DA      H8  930   9.684   4.358   7.303
   30DA      N7  931   9.800   4.414   7.134
   30DA      C5  932   9.939   4.416   7.130
   30DA      C6  933  10.032   4.472   7.042
   30DA      N6  934   9.999   4.517   6.926
   30DA     H61  935  10.068   4.560   6.866
   30DA     H62  936   9.900   4.537   6.923
   30DA      N1  937  10.165   4.473   7.072
   30DA      C2  938  10.198   4.423   7.192
   30DA      H2  939  10.302   4.416   7.222
   30DA      N3  940  10.121   4.373   7.289
   30DA      C4  941   9.992   4.383   7.255
   30DA     C3'  942   9.779   4.248   7.672
   30DA     H3'  943   9.678   4.247   7.714
   30DA     C2'  944   9.801   4.353   7.574
   30DA    H2'1  945   9.710   4.375   7.520
   30DA    H2'2  946   9.828   4.449   7.618
   30DA     O3'  947   9.863   4.275   7.780
   31DT       P  948   9.843   4.391   7.890
   31DT     O1P  949   9.858   4.346   8.030
   31DT     O2P  950   9.728   4.476   7.851
   31DT     O5'  951   9.971   4.474   7.858
   31DT     C5'  952  10.102   4.414   7.884
   31DT    H5'1  953  10.114   4.313   7.846
   31DT    H5'2  954  10.110   4.407   7.993
   31DT     C4'  955  10.221   4.491   7.823
   31DT     H4'  956  10.305   4.428   7.852
   31DT     O4'  957  10.200   4.494   7.681
   31DT     C1'  958  10.205   4.634   7.637
   31DT     H1'  959  10.307   4.661   7.612
   31DT      N1  960  10.123   4.666   7.516
   31DT      C6  961   9.986   4.653   7.517
   31DT      H6  962   9.945   4.614   7.609
   31DT      C5  963   9.912   4.691   7.410
   31DT      C7  964   9.761   4.690   7.433
   31DT     H71  965   9.721   4.785   7.468
   31DT     H72  966   9.714   4.664   7.338
   31DT     H73  967   9.732   4.615   7.507
   31DT      C4  968   9.976   4.728   7.283
   31DT      O4  969   9.923   4.753   7.173
   31DT      N3  970  10.111   4.723   7.288
   31DT      H3  971  10.166   4.748   7.208
   31DT      C2  972  10.191   4.692   7.398
   31DT      O2  973  10.315   4.701   7.391
   31DT     C3'  974  10.223   4.636   7.875
   31DT     H3'  975  10.161   4.641   7.964
   31DT     C2'  976  10.154   4.712   7.757
   31DT    H2'1  977  10.046   4.701   7.766
   31DT    H2'2  978  10.180   4.818   7.755
   31DT     O3'  979  10.357   4.682   7.909
   32DC       P  980  10.395   4.753   8.050
   32DC     O1P  981  10.509   4.682   8.102
   32DC     O2P  982  10.273   4.766   8.127
   32DC     O5'  983  10.446   4.894   8.003
   32DC     C5'  984  10.401   4.961   7.887
   32DC    H5'1  985  10.295   4.984   7.893
   32DC    H5'2  986  10.421   4.900   7.799
   32DC     C4'  987  10.473   5.099   7.878
   32DC     H4'  988  10.581   5.090   7.884
   32DC     O4'  989  10.434   5.176   7.761
   32DC     C1'  990  10.386   5.306   7.802
   32DC     H1'  991  10.463   5.378   7.777
   32DC      N1  992  10.264   5.340   7.723
   32DC      C6  993  10.144   5.271   7.747
   32DC      H6  994  10.141   5.198   7.826
   32DC      C5  995  10.036   5.301   7.671
   32DC      H5  996   9.937   5.263   7.688
   32DC      C4  997  10.063   5.387   7.559
   32DC      N4  998   9.969   5.404   7.476
   32DC     H41  999  10.000   5.453   7.394
   32DC     H42 1000   9.877   5.363   7.478
   32DC      N3 1001  10.177   5.434   7.523
   32DC      C2 1002  10.279   5.415   7.603
   32DC      O2 1003  10.390   5.438   7.559
   32DC     C3' 1004  10.447   5.189   8.005
   32DC     H3' 1005  10.384   5.131   8.073
   32DC     C2' 1006  10.363   5.310   7.954
   32DC    H2'1 1007  10.261   5.296   7.992
   32DC    H2'2 1008  10.392   5.404   8.001
   32DC     O3' 1009  10.571   5.217   8.067
   33DG       P 1010  10.606   5.341   8.159
   33DG     O1P 1011  10.735   5.311   8.226
   33DG     O2P 1012  10.493   5.384   8.240
   33DG     O5' 1013  10.631   5.462   8.055
   33DG     C5' 1014  10.726   5.450   7.950
   33DG    H5'1 1015  10.694   5.368   7.885
   33DG    H5'2 1016  10.825   5.417   7.984
   33DG     C4' 1017  10.744   5.571   7.861
   33DG     H4' 1018  10.831   5.553   7.797
   33DG     O4' 1019  10.627   5.589   7.779
   33DG     C1' 1020  10.567   5.714   7.797
   33DG     H1' 1021  10.593   5.778   7.712
   33DG      N9 1022  10.419   5.694   7.805
   33DG      C8 1023  10.344   5.645   7.908
   33DG      H8 1024  10.389   5.608   7.999
   33DG      N7 1025  10.216   5.635   7.885
   33DG      C5 1026  10.202   5.684   7.754
   33DG      C6 1027  10.087   5.720   7.668
   33DG      O6 1028   9.971   5.693   7.685
   33DG      N1 1029  10.120   5.782   7.549
   33DG      H1 1030  10.050   5.828   7.493
   33DG      C2 1031  10.242   5.813   7.514
   33DG      N2 1032  10.250   5.872   7.397
   33DG     H21 1033  10.168   5.902   7.345
   33DG     H22 1034  10.345   5.894   7.371
   33DG      N3 1035  10.348   5.793   7.588
   33DG      C4 1036  10.324   5.724   7.708
   33DG     C3' 1037  10.760   5.697   7.938
   33DG     H3' 1038  10.783   5.688   8.044
   33DG     C2' 1039  10.627   5.781   7.920
   33DG    H2'1 1040  10.559   5.771   8.004
   33DG    H2'2 1041  10.645   5.887   7.897
   33DG     O3' 1042  10.871   5.765   7.882
   34DC       P 1043  10.934   5.903   7.945
   34DC     O1P 1044  11.075   5.892   7.914
   34DC     O2P 1045  10.900   5.905   8.093
   34DC     O5' 1046  10.874   6.028   7.882
   34DC     C5' 1047  10.880   6.055   7.747
   34DC    H5'1 1048  10.875   5.960   7.693
   34DC    H5'2 1049  10.972   6.112   7.733
   34DC     C4' 1050  10.766   6.143   7.689
   34DC     H4' 1051  10.795   6.165   7.586
   34DC     O4' 1052  10.642   6.076   7.697
   34DC     C1' 1053  10.548   6.166   7.755
   34DC     H1' 1054  10.521   6.250   7.691
   34DC      N1 1055  10.418   6.090   7.790
   34DC      C6 1056  10.399   6.026   7.913
   34DC      H6 1057  10.486   6.002   7.971
   34DC      C5 1058  10.273   6.000   7.950
   34DC      H5 1059  10.255   5.944   8.040
   34DC      C4 1060  10.167   6.037   7.867
   34DC      N4 1061  10.048   6.001   7.904
   34DC     H41 1062   9.972   6.028   7.843
   34DC     H42 1063  10.032   5.968   7.998
   34DC      N3 1064  10.186   6.075   7.739
   34DC      C2 1065  10.307   6.112   7.702
   34DC      O2 1066  10.320   6.163   7.589
   34DC     C3' 1067  10.754   6.272   7.778
   34DC     H3' 1068  10.844   6.295   7.837
   34DC     C2' 1069  10.634   6.230   7.864
   34DC    H2'1 1070  10.667   6.155   7.936
   34DC    H2'2 1071  10.582   6.312   7.914
   34DC     O3' 1072  10.718   6.371   7.683
   35DA       P 1073  10.727   6.521   7.733
   35DA     O1P 1074  10.853   6.571   7.683
   35DA     O2P 1075  10.693   6.534   7.875
   35DA     O5' 1076  10.624   6.604   7.647
   35DA     C5' 1077  10.617   6.592   7.508
   35DA    H5'1 1078  10.649   6.491   7.482
   35DA    H5'2 1079  10.698   6.647   7.459
   35DA     C4' 1080  10.485   6.601   7.435
   35DA     H4' 1081  10.503   6.576   7.330
   35DA     O4' 1082  10.385   6.516   7.486
   35DA     C1' 1083  10.274   6.591   7.544
   35DA     H1' 1084  10.192   6.591   7.474
   35DA      N9 1085  10.242   6.537   7.678
   35DA      C8 1086  10.324   6.510   7.783
   35DA      H8 1087  10.423   6.550   7.794
   35DA      N7 1088  10.270   6.430   7.872
   35DA      C5 1089  10.137   6.415   7.821
   35DA      C6 1090  10.015   6.358   7.868
   35DA      N6 1091  10.000   6.289   7.985
   35DA     H61 1092   9.909   6.253   8.011
   35DA     H62 1093  10.077   6.285   8.051
   35DA      N1 1094   9.899   6.364   7.804
   35DA      C2 1095   9.905   6.429   7.690
   35DA      H2 1096   9.811   6.444   7.638
   35DA      N3 1097  10.008   6.481   7.624
   35DA      C4 1098  10.124   6.469   7.702
   35DA     C3' 1099  10.436   6.750   7.443
   35DA     H3' 1100  10.512   6.819   7.480
   35DA     C2' 1101  10.328   6.736   7.553
   35DA    H2'1 1102  10.365   6.760   7.652
   35DA    H2'2 1103  10.241   6.801   7.542
   35DA     O3' 1104  10.376   6.792   7.315
   36DT       P 1105  10.325   6.943   7.283
   36DT     O1P 1106  10.314   6.966   7.136
   36DT     O2P 1107  10.402   7.029   7.371
   36DT     O5' 1108  10.174   6.939   7.337
   36DT     C5' 1109  10.078   6.846   7.286
   36DT    H5'1 1110  10.122   6.746   7.287
   36DT    H5'2 1111  10.049   6.879   7.186
   36DT     C4' 1112   9.938   6.849   7.352
   36DT     H4' 1113   9.858   6.811   7.288
   36DT     O4' 1114   9.929   6.776   7.473
   36DT     C1' 1115   9.889   6.860   7.575
   36DT     H1' 1116   9.782   6.877   7.583
   36DT      N1 1117   9.938   6.814   7.709
   36DT      C6 1118  10.065   6.835   7.760
   36DT      H6 1119  10.136   6.902   7.714
   36DT      C5 1120  10.101   6.779   7.884
   36DT      C7 1121  10.242   6.813   7.940
   36DT     H71 1122  10.217   6.877   8.024
   36DT     H72 1123  10.295   6.722   7.969
   36DT     H73 1124  10.297   6.881   7.874
   36DT      C4 1125  10.013   6.681   7.953
   36DT      O4 1126  10.038   6.616   8.056
   36DT      N3 1127   9.893   6.662   7.892
   36DT      H3 1128   9.825   6.604   7.939
   36DT      C2 1129   9.846   6.734   7.779
   36DT      O2 1130   9.725   6.724   7.750
   36DT     C3' 1131   9.909   6.994   7.387
   36DT     H3' 1132   9.966   7.068   7.329
   36DT     C2' 1133   9.946   6.997   7.534
   36DT    H2'1 1134  10.054   6.999   7.540
   36DT    H2'2 1135   9.901   7.073   7.598
   36DT     O3' 1136   9.767   7.014   7.379
   37DA       P 1137   9.701   7.148   7.327
   37DA     O1P 1138   9.690   7.130   7.179
   37DA     O2P 1139   9.781   7.265   7.379
   37DA     O5' 1140   9.558   7.148   7.407
   37DA     C5' 1141   9.473   7.037   7.405
   37DA    H5'1 1142   9.511   6.949   7.457
   37DA    H5'2 1143   9.462   7.002   7.303
   37DA     C4' 1144   9.335   7.061   7.466
   37DA     H4' 1145   9.279   6.975   7.427
   37DA     O4' 1146   9.342   7.031   7.604
   37DA     C1' 1147   9.355   7.139   7.688
   37DA     H1' 1148   9.272   7.142   7.759
   37DA      N9 1149   9.486   7.131   7.755
   37DA      C8 1150   9.608   7.185   7.711
   37DA      H8 1151   9.622   7.247   7.623
   37DA      N7 1152   9.709   7.141   7.781
   37DA      C5 1153   9.649   7.061   7.881
   37DA      C6 1154   9.699   6.987   7.992
   37DA      N6 1155   9.829   6.977   8.036
   37DA     H61 1156   9.848   6.953   8.132
   37DA     H62 1157   9.904   7.019   7.982
   37DA      N1 1158   9.617   6.906   8.060
   37DA      C2 1159   9.488   6.902   8.033
   37DA      H2 1160   9.429   6.842   8.100
   37DA      N3 1161   9.427   6.967   7.932
   37DA      C4 1162   9.512   7.054   7.866
   37DA     C3' 1163   9.266   7.204   7.470
   37DA     H3' 1164   9.300   7.256   7.381
   37DA     C2' 1165   9.340   7.264   7.598
   37DA    H2'1 1166   9.440   7.298   7.570
   37DA    H2'2 1167   9.297   7.355   7.640
   37DA     O3' 1168   9.124   7.198   7.476
   38DC       P 1169   9.023   7.336   7.488
   38DC     O1P 1170   8.884   7.297   7.447
   38DC     O2P 1171   9.092   7.449   7.410
   38DC     O5' 1172   9.013   7.369   7.644
   38DC     C5' 1173   8.961   7.268   7.742
   38DC    H5'1 1174   9.024   7.181   7.725
   38DC    H5'2 1175   8.857   7.247   7.717
   38DC     C4' 1176   8.980   7.312   7.888
   38DC     H4' 1177   8.913   7.254   7.951
   38DC     O4' 1178   9.112   7.267   7.914
   38DC     C1' 1179   9.177   7.365   8.000
   38DC     H1' 1180   9.131   7.351   8.097
   38DC      N1 1181   9.329   7.350   8.014
   38DC      C6 1182   9.414   7.414   7.933
   38DC      H6 1183   9.377   7.481   7.857
   38DC      C5 1184   9.548   7.409   7.956
   38DC      H5 1185   9.611   7.477   7.901
   38DC      C4 1186   9.595   7.321   8.063
   38DC      N4 1187   9.716   7.320   8.109
   38DC     H41 1188   9.722   7.291   8.205
   38DC     H42 1189   9.796   7.341   8.051
   38DC      N3 1190   9.512   7.255   8.141
   38DC      C2 1191   9.380   7.272   8.120
   38DC      O2 1192   9.302   7.213   8.190
   38DC     C3' 1193   8.987   7.461   7.922
   38DC     H3' 1194   8.926   7.519   7.852
   38DC     C2' 1195   9.131   7.492   7.924
   38DC    H2'1 1196   9.176   7.503   7.825
   38DC    H2'2 1197   9.161   7.576   7.986
   38DC     O3' 1198   8.936   7.485   8.051
   39DG       P 1199   8.814   7.586   8.070
   39DG     O1P 1200   8.700   7.540   7.989
   39DG     O2P 1201   8.863   7.726   8.057
   39DG     O5' 1202   8.784   7.550   8.226
   39DG     C5' 1203   8.728   7.431   8.271
   39DG    H5'1 1204   8.725   7.354   8.194
   39DG    H5'2 1205   8.625   7.458   8.294
   39DG     C4' 1206   8.802   7.391   8.388
   39DG     H4' 1207   8.769   7.295   8.430
   39DG     O4' 1208   8.932   7.382   8.350
   39DG     C1' 1209   9.017   7.443   8.446
   39DG     H1' 1210   9.020   7.367   8.524
   39DG      N9 1211   9.148   7.479   8.383
   39DG      C8 1212   9.162   7.552   8.273
   39DG      H8 1213   9.086   7.597   8.211
   39DG      N7 1214   9.290   7.568   8.239
   39DG      C5 1215   9.360   7.502   8.339
   39DG      C6 1216   9.501   7.502   8.367
   39DG      O6 1217   9.593   7.541   8.296
   39DG      N1 1218   9.523   7.456   8.497
   39DG      H1 1219   9.621   7.454   8.523
   39DG      C2 1220   9.431   7.397   8.572
   39DG      N2 1221   9.475   7.353   8.689
   39DG     H21 1222   9.574   7.351   8.708
   39DG     H22 1223   9.413   7.304   8.751
   39DG      N3 1224   9.302   7.390   8.550
   39DG      C4 1225   9.274   7.451   8.433
   39DG     C3' 1226   8.798   7.497   8.508
   39DG     H3' 1227   8.718   7.571   8.494
   39DG     C2' 1228   8.931   7.561   8.498
   39DG    H2'1 1229   8.925   7.633   8.416
   39DG    H2'2 1230   8.959   7.595   8.598
   39DG     O3' 1231   8.786   7.433   8.634
   40DC       P 1232   8.651   7.383   8.709
   40DC     O1P 1233   8.609   7.247   8.674
   40DC     O2P 1234   8.551   7.496   8.705
   40DC     O5' 1235   8.695   7.372   8.859
   40DC     C5' 1236   8.719   7.486   8.938
   40DC    H5'1 1237   8.635   7.500   9.005
   40DC    H5'2 1238   8.744   7.575   8.880
   40DC     C4' 1239   8.839   7.449   9.026
   40DC     H4' 1240   8.835   7.348   9.067
   40DC     O4' 1241   8.962   7.453   8.956
   40DC     C1' 1242   9.040   7.569   9.004
   40DC     H1' 1243   9.122   7.544   9.071
   40DC      N1 1244   9.089   7.647   8.882
   40DC      C6 1245   9.027   7.753   8.820
   40DC      H6 1246   8.933   7.790   8.857
   40DC      C5 1247   9.083   7.826   8.718
   40DC      H5 1248   9.030   7.918   8.696
   40DC      C4 1249   9.216   7.795   8.678
   40DC      N4 1250   9.285   7.863   8.593
   40DC     H41 1251   9.381   7.849   8.565
   40DC     H42 1252   9.228   7.937   8.555
   40DC      N3 1253   9.286   7.700   8.737
   40DC      C2 1254   9.223   7.625   8.838
   40DC      O2 1255   9.285   7.539   8.897
   40DC     C3' 1256   8.858   7.538   9.152
   40DC     H3' 1257   8.762   7.576   9.187
   40DC     C2' 1258   8.943   7.652   9.096
   40DC    H2'1 1259   8.883   7.733   9.053
   40DC    H2'2 1260   9.009   7.697   9.171
   40DC     O3' 1261   8.930   7.466   9.254
   41DA       P 1262   8.952   7.528   9.401
   41DA     O1P 1263   8.910   7.431   9.503
   41DA     O2P 1264   8.895   7.665   9.403
   41DA     O5' 1265   9.107   7.556   9.406
   41DA     C5' 1266   9.204   7.450   9.431
   41DA    H5'1 1267   9.211   7.378   9.350
   41DA    H5'2 1268   9.177   7.399   9.523
   41DA     C4' 1269   9.350   7.497   9.465
   41DA     H4' 1270   9.404   7.410   9.500
   41DA     O4' 1271   9.415   7.544   9.343
   41DA     C1' 1272   9.450   7.681   9.370
   41DA     H1' 1273   9.555   7.694   9.399
   41DA      N9 1274   9.423   7.751   9.249
   41DA      C8 1275   9.297   7.788   9.196
   41DA      H8 1276   9.200   7.763   9.236
   41DA      N7 1277   9.296   7.844   9.076
   41DA      C5 1278   9.437   7.857   9.055
   41DA      C6 1279   9.509   7.915   8.953
   41DA      N6 1280   9.448   7.985   8.858
   41DA     H61 1281   9.504   8.033   8.788
   41DA     H62 1282   9.349   7.969   8.845
   41DA      N1 1283   9.641   7.928   8.961
   41DA      C2 1284   9.699   7.875   9.060
   41DA      H2 1285   9.806   7.888   9.052
   41DA      N3 1286   9.652   7.803   9.160
   41DA      C4 1287   9.517   7.802   9.155
   41DA     C3' 1288   9.343   7.612   9.569
   41DA     H3' 1289   9.243   7.605   9.611
   41DA     C2' 1290   9.365   7.730   9.479
   41DA    H2'1 1291   9.271   7.772   9.443
   41DA    H2'2 1292   9.427   7.803   9.533
   41DA     O3' 1293   9.436   7.575   9.662
   42DC       P 1294   9.495   7.678   9.770
   42DC     O1P 1295   9.543   7.597   9.887
   42DC     O2P 1296   9.388   7.776   9.787
   42DC     O5' 1297   9.623   7.750   9.687
   42DC     C5' 1298   9.731   7.668   9.643
   42DC    H5'1 1299   9.697   7.599   9.566
   42DC    H5'2 1300   9.759   7.605   9.727
   42DC     C4' 1301   9.845   7.758   9.585
   42DC     H4' 1302   9.932   7.693   9.567
   42DC     O4' 1303   9.805   7.817   9.462
   42DC     C1' 1304   9.802   7.961   9.478
   42DC     H1' 1305   9.890   8.006   9.432
   42DC      N1 1306   9.685   8.030   9.411
   42DC      C6 1307   9.560   8.024   9.459
   42DC      H6 1308   9.534   7.972   9.549
   42DC      C5 1309   9.463   8.086   9.395
   42DC      H5 1310   9.367   8.095   9.444
   42DC      C4 1311   9.489   8.154   9.275
   42DC      N4 1312   9.385   8.209   9.208
   42DC     H41 1313   9.403   8.262   9.124
   42DC     H42 1314   9.295   8.206   9.255
   42DC      N3 1315   9.611   8.168   9.225
   42DC      C2 1316   9.713   8.103   9.290
   42DC      O2 1317   9.828   8.119   9.245
   42DC     C3' 1318   9.884   7.863   9.679
   42DC     H3' 1319   9.860   7.826   9.779
   42DC     C2' 1320   9.797   7.976   9.636
   42DC    H2'1 1321   9.695   7.969   9.673
   42DC    H2'2 1322   9.830   8.075   9.667
   42DC     O3' 1323  10.014   7.905   9.678
   43DA       P 1324  10.081   8.004   9.777
   43DA     O1P 1325  10.221   7.956   9.804
   43DA     O2P 1326   9.993   8.035   9.892
   43DA     O5' 1327  10.088   8.140   9.686
   43DA     C5' 1328  10.180   8.153   9.576
   43DA    H5'1 1329  10.149   8.088   9.494
   43DA    H5'2 1330  10.277   8.123   9.615
   43DA     C4' 1331  10.184   8.297   9.523
   43DA     H4' 1332  10.275   8.314   9.465
   43DA     O4' 1333  10.072   8.328   9.451
   43DA     C1' 1334  10.026   8.451   9.508
   43DA     H1' 1335  10.071   8.533   9.452
   43DA      N9 1336   9.882   8.471   9.483
   43DA      C8 1337   9.781   8.390   9.529
   43DA      H8 1338   9.789   8.321   9.612
   43DA      N7 1339   9.661   8.410   9.475
   43DA      C5 1340   9.689   8.505   9.377
   43DA      C6 1341   9.618   8.554   9.267
   43DA      N6 1342   9.495   8.527   9.229
   43DA     H61 1343   9.465   8.584   9.151
   43DA     H62 1344   9.443   8.448   9.264
   43DA      N1 1345   9.675   8.633   9.177
   43DA      C2 1346   9.801   8.663   9.193
   43DA      H2 1347   9.846   8.732   9.124
   43DA      N3 1348   9.885   8.628   9.293
   43DA      C4 1349   9.820   8.545   9.381
   43DA     C3' 1350  10.197   8.397   9.644
   43DA     H3' 1351  10.234   8.345   9.731
   43DA     C2' 1352  10.053   8.458   9.656
   43DA    H2'1 1353   9.988   8.388   9.710
   43DA    H2'2 1354  10.063   8.560   9.691
   43DA     O3' 1355  10.285   8.505   9.611
   44DT       P 1356  10.366   8.595   9.716
   44DT     O1P 1357  10.505   8.577   9.703
   44DT     O2P 1358  10.315   8.589   9.852
   44DT     O5' 1359  10.338   8.754   9.674
   44DT     C5' 1360  10.379   8.802   9.546
   44DT    H5'1 1361  10.386   8.721   9.473
   44DT    H5'2 1362  10.473   8.856   9.554
   44DT     C4' 1363  10.279   8.911   9.499
   44DT     H4' 1364  10.317   8.958   9.408
   44DT     O4' 1365  10.155   8.848   9.464
   44DT     C1' 1366  10.068   8.960   9.449
   44DT     H1' 1367  10.067   8.995   9.346
   44DT      N1 1368   9.927   8.921   9.466
   44DT      C6 1369   9.901   8.852   9.579
   44DT      H6 1370   9.977   8.831   9.652
   44DT      C5 1371   9.782   8.787   9.599
   44DT      C7 1372   9.749   8.717   9.729
   44DT     H71 1373   9.648   8.735   9.766
   44DT     H72 1374   9.782   8.613   9.723
   44DT     H73 1375   9.804   8.766   9.809
   44DT      C4 1376   9.673   8.809   9.498
   44DT      O4 1377   9.555   8.765   9.500
   44DT      N3 1378   9.701   8.898   9.398
   44DT      H3 1379   9.630   8.911   9.327
   44DT      C2 1380   9.823   8.948   9.374
   44DT      O2 1381   9.843   9.013   9.267
   44DT     C3' 1382  10.242   9.033   9.596
   44DT     H3' 1383  10.238   9.006   9.702
   44DT     C2' 1384  10.105   9.066   9.547
   44DT    H2'1 1385  10.033   9.081   9.628
   44DT    H2'2 1386  10.097   9.155   9.484
   44DT     O3' 1387  10.334   9.140   9.576
   45DG       P 1388  10.314   9.280   9.661
   45DG     O1P 1389  10.442   9.336   9.688
   45DG     O2P 1390  10.211   9.257   9.768
   45DG     O5' 1391  10.247   9.375   9.557
   45DG     C5' 1392  10.305   9.434   9.435
   45DG    H5'1 1393  10.337   9.350   9.373
   45DG    H5'2 1394  10.386   9.502   9.463
   45DG     C4' 1395  10.194   9.521   9.373
   45DG     H4' 1396  10.219   9.544   9.270
   45DG     O4' 1397  10.078   9.448   9.371
   45DG     C1' 1398   9.970   9.520   9.426
   45DG     H1' 1399   9.915   9.568   9.345
   45DG      N9 1400   9.881   9.421   9.491
   45DG      C8 1401   9.900   9.359   9.610
   45DG      H8 1402   9.986   9.378   9.673
   45DG      N7 1403   9.806   9.276   9.648
   45DG      C5 1404   9.713   9.279   9.540
   45DG      C6 1405   9.584   9.219   9.515
   45DG      O6 1406   9.531   9.126   9.574
   45DG      N1 1407   9.520   9.266   9.406
   45DG      H1 1408   9.428   9.230   9.387
   45DG      C2 1409   9.579   9.359   9.317
   45DG      N2 1410   9.500   9.384   9.216
   45DG     H21 1411   9.416   9.330   9.200
   45DG     H22 1412   9.520   9.462   9.156
   45DG      N3 1413   9.695   9.419   9.331
   45DG      C4 1414   9.758   9.371   9.444
   45DG     C3' 1415  10.167   9.651   9.457
   45DG     H3' 1416  10.239   9.680   9.533
   45DG     C2' 1417  10.034   9.618   9.525
   45DG    H2'1 1418  10.063   9.572   9.620
   45DG    H2'2 1419   9.976   9.709   9.539
   45DG     O3' 1420  10.170   9.753   9.362
   46DC3      P 1421  10.148   9.906   9.415
   46DC3    O1P 1422  10.206   9.997   9.319
   46DC3    O2P 1423  10.196   9.917   9.552
   46DC3    O5' 1424   9.990   9.922   9.429
   46DC3    C5' 1425   9.902   9.896   9.326
   46DC3   H5'1 1426   9.936   9.808   9.271
   46DC3   H5'2 1427   9.917   9.982   9.261
   46DC3    C4' 1428   9.757   9.893   9.370
   46DC3    H4' 1429   9.693   9.889   9.282
   46DC3    O4' 1430   9.730   9.778   9.438
   46DC3    C1' 1431   9.624   9.802   9.524
   46DC3    H1' 1432   9.537   9.801   9.459
   46DC3     N1 1433   9.625   9.695   9.630
   46DC3     C6 1434   9.729   9.697   9.722
   46DC3     H6 1435   9.809   9.770   9.722
   46DC3     C5 1436   9.743   9.598   9.811
   46DC3     H5 1437   9.838   9.592   9.862
   46DC3     C4 1438   9.647   9.495   9.810
   46DC3     N4 1439   9.652   9.411   9.904
   46DC3    H41 1440   9.578   9.343   9.915
   46DC3    H42 1441   9.741   9.409   9.952
   46DC3     N3 1442   9.547   9.486   9.727
   46DC3     C2 1443   9.541   9.581   9.624
   46DC3     O2 1444   9.469   9.569   9.528
   46DC3    C3' 1445   9.697  10.006   9.455
   46DC3    H3' 1446   9.778  10.070   9.488
   46DC3    C2' 1447   9.644   9.937   9.582
   46DC3   H2'1 1448   9.713   9.946   9.666
   46DC3   H2'2 1449   9.552   9.976   9.625
   46DC3    O3' 1450   9.597  10.091   9.398
   46DC3    H3T 1451   9.633  10.131   9.319
   47DT5    H5T 1452  10.070   5.118   6.587
   47DT5    O5' 1453  10.071   5.197   6.641
   47DT5    C5' 1454  10.105   5.310   6.551
   47DT5   H5'1 1455  10.038   5.394   6.566
   47DT5   H5'2 1456  10.095   5.281   6.446
   47DT5    C4' 1457  10.249   5.377   6.569
   47DT5    H4' 1458  10.274   5.451   6.493
   47DT5    O4' 1459  10.250   5.428   6.703
   47DT5    C1' 1460  10.367   5.378   6.767
   47DT5    H1' 1461  10.460   5.427   6.739
   47DT5     N1 1462  10.340   5.360   6.912
   47DT5     C6 1463  10.218   5.302   6.954
   47DT5     H6 1464  10.135   5.303   6.885
   47DT5     C5 1465  10.212   5.246   7.082
   47DT5     C7 1466  10.076   5.186   7.128
   47DT5    H71 1467  10.018   5.170   7.037
   47DT5    H72 1468  10.093   5.084   7.164
   47DT5    H73 1469  10.031   5.245   7.208
   47DT5     C4 1470  10.329   5.239   7.170
   47DT5     O4 1471  10.331   5.181   7.276
   47DT5     N3 1472  10.437   5.315   7.127
   47DT5     H3 1473  10.524   5.299   7.176
   47DT5     C2 1474  10.450   5.374   7.000
   47DT5     O2 1475  10.552   5.429   6.967
   47DT5    C3' 1476  10.349   5.259   6.560
   47DT5    H3' 1477  10.308   5.170   6.511
   47DT5    C2' 1478  10.377   5.234   6.706
   47DT5   H2'1 1479  10.297   5.167   6.739
   47DT5   H2'2 1480  10.473   5.189   6.730
   47DT5    O3' 1481  10.461   5.312   6.494
   48DA       P 1482  10.570   5.222   6.430
   48DA     O1P 1483  10.650   5.314   6.358
   48DA     O2P 1484  10.504   5.116   6.359
   48DA     O5' 1485  10.644   5.167   6.562
   48DA     C5' 1486  10.726   5.258   6.631
   48DA    H5'1 1487  10.689   5.352   6.671
   48DA    H5'2 1488  10.806   5.294   6.565
   48DA     C4' 1489  10.795   5.187   6.751
   48DA     H4' 1490  10.855   5.261   6.803
   48DA     O4' 1491  10.691   5.142   6.840
   48DA     C1' 1492  10.687   5.003   6.839
   48DA     H1' 1493  10.732   4.964   6.930
   48DA      N9 1494  10.554   4.944   6.817
   48DA      C8 1495  10.492   4.914   6.701
   48DA      H8 1496  10.543   4.901   6.606
   48DA      N7 1497  10.364   4.887   6.712
   48DA      C5 1498  10.341   4.887   6.849
   48DA      C6 1499  10.230   4.856   6.935
   48DA      N6 1500  10.115   4.799   6.910
   48DA     H61 1501  10.056   4.813   6.991
   48DA     H62 1502  10.077   4.786   6.817
   48DA      N1 1503  10.237   4.879   7.068
   48DA      C2 1504  10.351   4.926   7.115
   48DA      H2 1505  10.359   4.928   7.223
   48DA      N3 1506  10.465   4.941   7.054
   48DA      C4 1507  10.454   4.930   6.917
   48DA     C3' 1508  10.885   5.069   6.714
   48DA     H3' 1509  10.930   5.076   6.614
   48DA     C2' 1510  10.782   4.958   6.733
   48DA    H2'1 1511  10.744   4.947   6.631
   48DA    H2'2 1512  10.821   4.857   6.748
   48DA     O3' 1513  10.985   5.064   6.817
   49DT       P 1514  11.093   4.949   6.817
   49DT     O1P 1515  11.208   4.999   6.888
   49DT     O2P 1516  11.107   4.898   6.672
   49DT     O5' 1517  11.025   4.846   6.911
   49DT     C5' 1518  11.001   4.857   7.050
   49DT    H5'1 1519  10.942   4.946   7.075
   49DT    H5'2 1520  11.095   4.873   7.102
   49DT     C4' 1521  10.933   4.736   7.114
   49DT     H4' 1522  10.926   4.761   7.220
   49DT     O4' 1523  10.805   4.727   7.049
   49DT     C1' 1524  10.772   4.593   7.018
   49DT     H1' 1525  10.759   4.544   7.115
   49DT      N1 1526  10.659   4.578   6.920
   49DT      C6 1527  10.675   4.613   6.783
   49DT      H6 1528  10.770   4.651   6.747
   49DT      C5 1529  10.573   4.591   6.694
   49DT      C7 1530  10.591   4.611   6.541
   49DT     H71 1531  10.506   4.669   6.506
   49DT     H72 1532  10.686   4.661   6.524
   49DT     H73 1533  10.586   4.516   6.487
   49DT      C4 1534  10.444   4.539   6.745
   49DT      O4 1535  10.343   4.527   6.680
   49DT      N3 1536  10.433   4.522   6.887
   49DT      H3 1537  10.348   4.485   6.927
   49DT      C2 1538  10.536   4.536   6.972
   49DT      O2 1539  10.512   4.512   7.088
   49DT     C3' 1540  10.993   4.592   7.085
   49DT     H3' 1541  11.094   4.607   7.047
   49DT     C2' 1542  10.907   4.539   6.972
   49DT    H2'1 1543  10.937   4.583   6.877
   49DT    H2'2 1544  10.918   4.430   6.973
   49DT     O3' 1545  10.984   4.517   7.209
   50DG       P 1546  11.117   4.447   7.259
   50DG     O1P 1547  11.212   4.550   7.313
   50DG     O2P 1548  11.172   4.367   7.143
   50DG     O5' 1549  11.079   4.342   7.378
   50DG     C5' 1550  11.035   4.395   7.512
   50DG    H5'1 1551  11.009   4.501   7.506
   50DG    H5'2 1552  11.116   4.391   7.584
   50DG     C4' 1553  10.914   4.322   7.572
   50DG     H4' 1554  10.899   4.358   7.674
   50DG     O4' 1555  10.797   4.339   7.496
   50DG     C1' 1556  10.765   4.209   7.447
   50DG     H1' 1557  10.677   4.181   7.504
   50DG      N9 1558  10.732   4.220   7.300
   50DG      C8 1559  10.803   4.250   7.183
   50DG      H8 1560  10.904   4.287   7.180
   50DG      N7 1561  10.726   4.256   7.077
   50DG      C5 1562  10.608   4.203   7.118
   50DG      C6 1563  10.483   4.182   7.044
   50DG      O6 1564  10.459   4.209   6.927
   50DG      N1 1565  10.380   4.139   7.119
   50DG      H1 1566  10.287   4.146   7.081
   50DG      C2 1567  10.396   4.113   7.249
   50DG      N2 1568  10.298   4.058   7.308
   50DG     H21 1569  10.212   4.051   7.255
   50DG     H22 1570  10.304   4.041   7.407
   50DG      N3 1571  10.500   4.141   7.323
   50DG      C4 1572  10.603   4.191   7.253
   50DG     C3' 1573  10.941   4.171   7.594
   50DG     H3' 1574  11.048   4.155   7.592
   50DG     C2' 1575  10.878   4.117   7.469
   50DG    H2'1 1576  10.950   4.097   7.390
   50DG    H2'2 1577  10.837   4.018   7.486
   50DG     O3' 1578  10.883   4.136   7.714
   51DC       P 1579  10.932   4.004   7.785
   51DC     O1P 1580  10.883   4.017   7.925
   51DC     O2P 1581  11.077   3.980   7.769
   51DC     O5' 1582  10.853   3.875   7.726
   51DC     C5' 1583  10.711   3.868   7.738
   51DC    H5'1 1584  10.660   3.961   7.713
   51DC    H5'2 1585  10.687   3.834   7.839
   51DC     C4' 1586  10.652   3.756   7.639
   51DC     H4' 1587  10.549   3.732   7.666
   51DC     O4' 1588  10.650   3.807   7.503
   51DC     C1' 1589  10.664   3.695   7.420
   51DC     H1' 1590  10.579   3.630   7.439
   51DC      N1 1591  10.665   3.737   7.278
   51DC      C6 1592  10.771   3.792   7.221
   51DC      H6 1593  10.862   3.804   7.277
   51DC      C5 1594  10.773   3.839   7.093
   51DC      H5 1595  10.860   3.894   7.060
   51DC      C4 1596  10.655   3.823   7.021
   51DC      N4 1597  10.650   3.874   6.903
   51DC     H41 1598  10.565   3.866   6.849
   51DC     H42 1599  10.736   3.913   6.868
   51DC      N3 1600  10.544   3.772   7.072
   51DC      C2 1601  10.546   3.735   7.201
   51DC      O2 1602  10.440   3.705   7.256
   51DC     C3' 1603  10.742   3.631   7.636
   51DC     H3' 1604  10.833   3.632   7.695
   51DC     C2' 1605  10.779   3.627   7.484
   51DC    H2'1 1606  10.870   3.682   7.462
   51DC    H2'2 1607  10.796   3.529   7.440
   51DC     O3' 1608  10.658   3.517   7.644
   52DG       P 1609  10.651   3.431   7.778
   52DG     O1P 1610  10.629   3.518   7.893
   52DG     O2P 1611  10.763   3.339   7.784
   52DG     O5' 1612  10.517   3.353   7.761
   52DG     C5' 1613  10.392   3.405   7.795
   52DG    H5'1 1614  10.388   3.513   7.790
   52DG    H5'2 1615  10.372   3.382   7.900
   52DG     C4' 1616  10.284   3.363   7.702
   52DG     H4' 1617  10.194   3.398   7.753
   52DG     O4' 1618  10.295   3.424   7.571
   52DG     C1' 1619  10.312   3.320   7.479
   52DG     H1' 1620  10.220   3.301   7.424
   52DG      N9 1621  10.416   3.355   7.376
   52DG      C8 1622  10.552   3.361   7.400
   52DG      H8 1623  10.591   3.357   7.501
   52DG      N7 1624  10.622   3.399   7.296
   52DG      C5 1625  10.527   3.409   7.195
   52DG      C6 1626  10.535   3.446   7.051
   52DG      O6 1627  10.636   3.487   6.993
   52DG      N1 1628  10.416   3.426   6.981
   52DG      H1 1629  10.416   3.450   6.882
   52DG      C2 1630  10.299   3.409   7.040
   52DG      N2 1631  10.200   3.435   6.957
   52DG     H21 1632  10.214   3.431   6.857
   52DG     H22 1633  10.108   3.437   6.999
   52DG      N3 1634  10.278   3.389   7.169
   52DG      C4 1635  10.398   3.382   7.243
   52DG     C3' 1636  10.278   3.207   7.690
   52DG     H3' 1637  10.333   3.162   7.773
   52DG     C2' 1638  10.352   3.194   7.562
   52DG    H2'1 1639  10.459   3.194   7.583
   52DG    H2'2 1640  10.325   3.101   7.512
   52DG     O3' 1641  10.143   3.171   7.675
   53DC       P 1642  10.082   3.024   7.657
   53DC     O1P 1643   9.944   3.031   7.708
   53DC     O2P 1644  10.174   2.926   7.721
   53DC     O5' 1645  10.075   2.991   7.500
   53DC     C5' 1646  10.006   3.071   7.409
   53DC    H5'1 1647  10.027   3.174   7.437
   53DC    H5'2 1648   9.899   3.052   7.416
   53DC     C4' 1649  10.065   3.052   7.270
   53DC     H4' 1650  10.006   3.114   7.201
   53DC     O4' 1651  10.204   3.086   7.261
   53DC     C1' 1652  10.247   3.052   7.136
   53DC     H1' 1653  10.206   3.127   7.068
   53DC      N1 1654  10.394   3.056   7.118
   53DC      C6 1655  10.483   3.050   7.221
   53DC      H6 1656  10.439   3.037   7.319
   53DC      C5 1657  10.618   3.062   7.203
   53DC      H5 1658  10.681   3.074   7.290
   53DC      C4 1659  10.663   3.086   7.072
   53DC      N4 1660  10.784   3.126   7.055
   53DC     H41 1661  10.817   3.155   6.964
   53DC     H42 1662  10.838   3.155   7.136
   53DC      N3 1663  10.579   3.089   6.974
   53DC      C2 1664  10.445   3.076   6.990
   53DC      O2 1665  10.377   3.089   6.892
   53DC     C3' 1666  10.056   2.915   7.210
   53DC     H3' 1667  10.083   2.843   7.287
   53DC     C2' 1668  10.175   2.919   7.112
   53DC    H2'1 1669  10.245   2.838   7.131
   53DC    H2'2 1670  10.139   2.922   7.010
   53DC     O3' 1671   9.936   2.880   7.136
   54DG       P 1672   9.911   2.733   7.085
   54DG     O1P 1673   9.766   2.704   7.095
   54DG     O2P 1674  10.010   2.642   7.147
   54DG     O5' 1675   9.938   2.728   6.927
   54DG     C5' 1676   9.870   2.813   6.841
   54DG    H5'1 1677   9.891   2.919   6.857
   54DG    H5'2 1678   9.762   2.799   6.834
   54DG     C4' 1679   9.904   2.787   6.700
   54DG     H4' 1680   9.850   2.862   6.642
   54DG     O4' 1681  10.036   2.812   6.664
   54DG     C1' 1682  10.114   2.693   6.652
   54DG     H1' 1683  10.165   2.689   6.556
   54DG      N9 1684  10.219   2.711   6.752
   54DG      C8 1685  10.223   2.685   6.886
   54DG      H8 1686  10.134   2.648   6.935
   54DG      N7 1687  10.339   2.705   6.936
   54DG      C5 1688  10.421   2.761   6.836
   54DG      C6 1689  10.559   2.798   6.827
   54DG      O6 1690  10.650   2.786   6.912
   54DG      N1 1691  10.596   2.841   6.697
   54DG      H1 1692  10.691   2.876   6.689
   54DG      C2 1693  10.506   2.846   6.591
   54DG      N2 1694  10.558   2.889   6.485
   54DG     H21 1695  10.649   2.934   6.494
   54DG     H22 1696  10.497   2.911   6.407
   54DG      N3 1697  10.381   2.807   6.598
   54DG      C4 1698  10.343   2.771   6.724
   54DG     C3' 1699   9.867   2.638   6.657
   54DG     H3' 1700   9.798   2.587   6.724
   54DG     C2' 1701  10.012   2.581   6.677
   54DG    H2'1 1702  10.025   2.531   6.773
   54DG    H2'2 1703  10.028   2.505   6.601
   54DG     O3' 1704   9.820   2.629   6.513
   55DT       P 1705   9.813   2.487   6.433
   55DT     O1P 1706   9.707   2.501   6.333
   55DT     O2P 1707   9.803   2.373   6.521
   55DT     O5' 1708   9.946   2.472   6.348
   55DT     C5' 1709  10.002   2.582   6.271
   55DT    H5'1 1710   9.994   2.678   6.322
   55DT    H5'2 1711   9.938   2.586   6.183
   55DT     C4' 1712  10.147   2.565   6.227
   55DT     H4' 1713  10.164   2.641   6.151
   55DT     O4' 1714  10.234   2.580   6.339
   55DT     C1' 1715  10.334   2.485   6.334
   55DT     H1' 1716  10.415   2.507   6.264
   55DT      N1 1717  10.391   2.473   6.471
   55DT      C6 1718  10.320   2.430   6.578
   55DT      H6 1719  10.222   2.390   6.556
   55DT      C5 1720  10.378   2.422   6.707
   55DT      C7 1721  10.290   2.373   6.822
   55DT     H71 1722  10.300   2.432   6.913
   55DT     H72 1723  10.185   2.368   6.796
   55DT     H73 1724  10.328   2.272   6.836
   55DT      C4 1725  10.520   2.469   6.721
   55DT      O4 1726  10.575   2.488   6.832
   55DT      N3 1727  10.585   2.501   6.605
   55DT      H3 1728  10.684   2.521   6.612
   55DT      C2 1729  10.524   2.519   6.481
   55DT      O2 1730  10.587   2.567   6.388
   55DT     C3' 1731  10.188   2.424   6.166
   55DT     H3' 1732  10.100   2.366   6.137
   55DT     C2' 1733  10.271   2.360   6.278
   55DT    H2'1 1734  10.213   2.312   6.357
   55DT    H2'2 1735  10.336   2.286   6.232
   55DT     O3' 1736  10.272   2.440   6.056
   56DG       P 1737  10.235   2.402   5.900
   56DG     O1P 1738  10.131   2.501   5.864
   56DG     O2P 1739  10.198   2.260   5.895
   56DG     O5' 1740  10.376   2.427   5.825
   56DG     C5' 1741  10.425   2.562   5.816
   56DG    H5'1 1742  10.395   2.622   5.901
   56DG    H5'2 1743  10.375   2.601   5.728
   56DG     C4' 1744  10.581   2.577   5.809
   56DG     H4' 1745  10.597   2.674   5.761
   56DG     O4' 1746  10.646   2.569   5.937
   56DG     C1' 1747  10.715   2.444   5.943
   56DG     H1' 1748  10.819   2.477   5.941
   56DG      N9 1749  10.696   2.373   6.076
   56DG      C8 1750  10.590   2.293   6.122
   56DG      H8 1751  10.497   2.298   6.068
   56DG      N7 1752  10.600   2.250   6.240
   56DG      C5 1753  10.731   2.294   6.281
   56DG      C6 1754  10.806   2.271   6.402
   56DG      O6 1755  10.771   2.215   6.507
   56DG      N1 1756  10.941   2.309   6.394
   56DG      H1 1757  10.994   2.308   6.480
   56DG      C2 1758  10.987   2.385   6.288
   56DG      N2 1759  11.109   2.427   6.291
   56DG     H21 1760  11.166   2.410   6.373
   56DG     H22 1761  11.149   2.483   6.216
   56DG      N3 1762  10.918   2.410   6.176
   56DG      C4 1763  10.790   2.363   6.178
   56DG     C3' 1764  10.633   2.468   5.715
   56DG     H3' 1765  10.552   2.426   5.655
   56DG     C2' 1766  10.685   2.365   5.810
   56DG    H2'1 1767  10.608   2.289   5.819
   56DG    H2'2 1768  10.776   2.315   5.777
   56DG     O3' 1769  10.735   2.529   5.631
   57DC       P 1770  10.808   2.440   5.529
   57DC     O1P 1771  10.842   2.536   5.414
   57DC     O2P 1772  10.721   2.328   5.500
   57DC     O5' 1773  10.945   2.387   5.585
   57DC     C5' 1774  11.033   2.468   5.662
   57DC    H5'1 1775  10.970   2.523   5.733
   57DC    H5'2 1776  11.085   2.527   5.587
   57DC     C4' 1777  11.136   2.381   5.742
   57DC     H4' 1778  11.217   2.444   5.780
   57DC     O4' 1779  11.059   2.326   5.851
   57DC     C1' 1780  11.127   2.208   5.889
   57DC     H1' 1781  11.215   2.221   5.952
   57DC      N1 1782  11.031   2.125   5.972
   57DC      C6 1783  10.915   2.087   5.917
   57DC      H6 1784  10.884   2.116   5.818
   57DC      C5 1785  10.820   2.030   5.992
   57DC      H5 1786  10.722   2.002   5.956
   57DC      C4 1787  10.858   1.990   6.123
   57DC      N4 1788  10.766   1.923   6.193
   57DC     H41 1789  10.794   1.898   6.286
   57DC     H42 1790  10.680   1.902   6.145
   57DC      N3 1791  10.977   2.006   6.174
   57DC      C2 1792  11.075   2.072   6.096
   57DC      O2 1793  11.192   2.079   6.133
   57DC     C3' 1794  11.190   2.266   5.663
   57DC     H3' 1795  11.137   2.254   5.568
   57DC     C2' 1796  11.156   2.152   5.754
   57DC    H2'1 1797  11.068   2.099   5.717
   57DC    H2'2 1798  11.225   2.069   5.757
   57DC     O3' 1799  11.329   2.293   5.652
   58DG       P 1800  11.444   2.184   5.604
   58DG     O1P 1801  11.556   2.264   5.544
   58DG     O2P 1802  11.378   2.078   5.526
   58DG     O5' 1803  11.478   2.122   5.748
   58DG     C5' 1804  11.535   2.204   5.843
   58DG    H5'1 1805  11.458   2.247   5.906
   58DG    H5'2 1806  11.596   2.282   5.797
   58DG     C4' 1807  11.620   2.133   5.952
   58DG     H4' 1808  11.676   2.213   6.001
   58DG     O4' 1809  11.533   2.069   6.047
   58DG     C1' 1810  11.536   1.937   6.016
   58DG     H1' 1811  11.582   1.875   6.093
   58DG      N9 1812  11.411   1.876   5.982
   58DG      C8 1813  11.342   1.874   5.865
   58DG      H8 1814  11.378   1.914   5.771
   58DG      N7 1815  11.225   1.820   5.874
   58DG      C5 1816  11.210   1.776   6.005
   58DG      C6 1817  11.110   1.699   6.069
   58DG      O6 1818  11.006   1.670   6.020
   58DG      N1 1819  11.141   1.659   6.194
   58DG      H1 1820  11.062   1.619   6.242
   58DG      C2 1821  11.254   1.703   6.263
   58DG      N2 1822  11.267   1.666   6.388
   58DG     H21 1823  11.192   1.620   6.438
   58DG     H22 1824  11.346   1.694   6.445
   58DG      N3 1825  11.352   1.767   6.203
   58DG      C4 1826  11.328   1.800   6.067
   58DG     C3' 1827  11.716   2.032   5.892
   58DG     H3' 1828  11.742   2.060   5.789
   58DG     C2' 1829  11.637   1.899   5.909
   58DG    H2'1 1830  11.597   1.880   5.809
   58DG    H2'2 1831  11.697   1.813   5.938
   58DG     O3' 1832  11.832   2.033   5.972
   59DT       P 1833  11.960   1.932   5.948
   59DT     O1P 1834  12.081   2.005   5.991
   59DT     O2P 1835  11.954   1.880   5.807
   59DT     O5' 1836  11.937   1.814   6.064
   59DT     C5' 1837  11.946   1.849   6.194
   59DT    H5'1 1838  11.873   1.922   6.227
   59DT    H5'2 1839  12.043   1.897   6.212
   59DT     C4' 1840  11.925   1.732   6.297
   59DT     H4' 1841  11.924   1.760   6.403
   59DT     O4' 1842  11.789   1.689   6.279
   59DT     C1' 1843  11.778   1.546   6.279
   59DT     H1' 1844  11.766   1.512   6.381
   59DT      N1 1845  11.660   1.523   6.191
   59DT      C6 1846  11.674   1.545   6.056
   59DT      H6 1847  11.761   1.592   6.014
   59DT      C5 1848  11.578   1.513   5.969
   59DT      C7 1849  11.609   1.530   5.823
   59DT     H71 1850  11.707   1.571   5.800
   59DT     H72 1851  11.595   1.434   5.773
   59DT     H73 1852  11.535   1.585   5.765
   59DT      C4 1853  11.457   1.446   6.014
   59DT      O4 1854  11.360   1.402   5.953
   59DT      N3 1855  11.448   1.435   6.150
   59DT      H3 1856  11.357   1.406   6.182
   59DT      C2 1857  11.541   1.477   6.242
   59DT      O2 1858  11.513   1.489   6.364
   59DT     C3' 1859  12.006   1.602   6.284
   59DT     H3' 1860  12.094   1.623   6.224
   59DT     C2' 1861  11.911   1.500   6.220
   59DT    H2'1 1862  11.924   1.504   6.112
   59DT    H2'2 1863  11.949   1.401   6.244
   59DT     O3' 1864  12.062   1.562   6.415
   60DG       P 1865  12.114   1.416   6.454
   60DG     O1P 1866  12.168   1.428   6.590
   60DG     O2P 1867  12.207   1.384   6.346
   60DG     O5' 1868  11.994   1.321   6.460
   60DG     C5' 1869  11.888   1.330   6.548
   60DG    H5'1 1870  11.850   1.432   6.541
   60DG    H5'2 1871  11.920   1.317   6.652
   60DG     C4' 1872  11.778   1.228   6.511
   60DG     H4' 1873  11.704   1.235   6.590
   60DG     O4' 1874  11.711   1.253   6.390
   60DG     C1' 1875  11.646   1.134   6.353
   60DG     H1' 1876  11.551   1.124   6.404
   60DG      N9 1877  11.614   1.134   6.206
   60DG      C8 1878  11.689   1.179   6.101
   60DG      H8 1879  11.793   1.203   6.116
   60DG      N7 1880  11.622   1.175   5.986
   60DG      C5 1881  11.494   1.130   6.022
   60DG      C6 1882  11.378   1.100   5.944
   60DG      O6 1883  11.359   1.120   5.824
   60DG      N1 1884  11.277   1.040   6.015
   60DG      H1 1885  11.189   1.033   5.966
   60DG      C2 1886  11.290   1.020   6.151
   60DG      N2 1887  11.183   0.976   6.207
   60DG     H21 1888  11.095   0.958   6.159
   60DG     H22 1889  11.181   0.984   6.308
   60DG      N3 1890  11.394   1.049   6.233
   60DG      C4 1891  11.492   1.098   6.154
   60DG     C3' 1892  11.831   1.084   6.505
   60DG     H3' 1893  11.931   1.096   6.465
   60DG     C2' 1894  11.750   1.027   6.382
   60DG    H2'1 1895  11.821   1.010   6.302
   60DG    H2'2 1896  11.699   0.939   6.422
   60DG     O3' 1897  11.819   1.006   6.625
   61DC       P 1898  11.886   0.859   6.634
   61DC     O1P 1899  11.902   0.831   6.774
   61DC     O2P 1900  12.011   0.854   6.559
   61DC     O5' 1901  11.794   0.751   6.566
   61DC     C5' 1902  11.664   0.733   6.627
   61DC    H5'1 1903  11.614   0.830   6.631
   61DC    H5'2 1904  11.689   0.696   6.726
   61DC     C4' 1905  11.578   0.631   6.550
   61DC     H4' 1906  11.491   0.614   6.614
   61DC     O4' 1907  11.534   0.700   6.433
   61DC     C1' 1908  11.555   0.615   6.322
   61DC     H1' 1909  11.471   0.546   6.320
   61DC      N1 1910  11.560   0.695   6.202
   61DC      C6 1911  11.673   0.766   6.162
   61DC      H6 1912  11.748   0.775   6.239
   61DC      C5 1913  11.688   0.822   6.037
   61DC      H5 1914  11.775   0.878   6.007
   61DC      C4 1915  11.573   0.811   5.953
   61DC      N4 1916  11.578   0.876   5.841
   61DC     H41 1917  11.489   0.879   5.793
   61DC     H42 1918  11.653   0.942   5.826
   61DC      N3 1919  11.457   0.755   5.990
   61DC      C2 1920  11.446   0.694   6.113
   61DC      O2 1921  11.333   0.648   6.141
   61DC     C3' 1922  11.643   0.507   6.498
   61DC     H3' 1923  11.728   0.469   6.555
   61DC     C2' 1924  11.680   0.537   6.354
   61DC    H2'1 1925  11.771   0.595   6.364
   61DC    H2'2 1926  11.685   0.449   6.289
   61DC     O3' 1927  11.558   0.394   6.494
   62DG3      P 1928  11.585   0.254   6.573
   62DG3    O1P 1929  11.583   0.277   6.719
   62DG3    O2P 1930  11.707   0.185   6.515
   62DG3    O5' 1931  11.463   0.158   6.541
   62DG3    C5' 1932  11.336   0.163   6.611
   62DG3   H5'1 1933  11.316   0.264   6.647
   62DG3   H5'2 1934  11.339   0.089   6.690
   62DG3    C4' 1935  11.227   0.123   6.512
   62DG3    H4' 1936  11.130   0.130   6.561
   62DG3    O4' 1937  11.237   0.231   6.414
   62DG3    C1' 1938  11.237   0.172   6.282
   62DG3    H1' 1939  11.136   0.165   6.240
   62DG3     N9 1940  11.330   0.245   6.189
   62DG3     C8 1941  11.458   0.281   6.206
   62DG3     H8 1942  11.501   0.262   6.303
   62DG3     N7 1943  11.501   0.350   6.104
   62DG3     C5 1944  11.391   0.362   6.015
   62DG3     C6 1945  11.361   0.435   5.889
   62DG3     O6 1946  11.436   0.501   5.819
   62DG3     N1 1947  11.232   0.419   5.844
   62DG3     H1 1948  11.214   0.437   5.746
   62DG3     C2 1949  11.134   0.366   5.919
   62DG3     N2 1950  11.013   0.359   5.868
   62DG3    H21 1951  10.992   0.396   5.777
   62DG3    H22 1952  10.940   0.315   5.921
   62DG3     N3 1953  11.152   0.301   6.031
   62DG3     C4 1954  11.284   0.302   6.073
   62DG3    C3' 1955  11.241  14.864   6.442
   62DG3    H3' 1956  11.322  14.811   6.493
   62DG3    C2' 1957  11.288   0.028   6.302
   62DG3   H2'1 1958  11.397   0.019   6.309
   62DG3   H2'2 1959  11.251  14.848   6.217
   62DG3    O3' 1960  11.121  14.793   6.430
   62DG3    H3T 1961  11.149  14.707   6.395
   63SOL     OW 1962   4.176   5.366   4.756
   63SOL    HW1 1963   4.252   5.423   4.771
   63SOL    HW2 1964   4.175   5.307   4.831
   64SOL     OW 1965   6.738  14.733  13.803
   64SOL    HW1 1966   6.664  14.673  13.794
   64SOL    HW2 1967   6.810  14.678  13.834
   65SOL     OW 1968   0.581  12.923   5.737
   65SOL    HW1 1969   0.599  12.858   5.669
   65SOL    HW2 1970   0.492  12.904   5.765
   66SOL     OW 1971  10.440   9.848   9.649
   66SOL    HW1 1972  10.412   9.758   9.664
   66SOL    HW2 1973  10.370   9.886   9.595
   67SOL     OW 1974   1.281   2.804  11.140
   67SOL    HW1 1975   1.321   2.816  11.054
   67SOL    HW2 1976   1.201   2.858  11.136
   68SOL     OW 1977  13.969  13.838   9.271
   68SOL    HW1 1978  13.939  13.904   9.209
   68SOL    HW2 1979  14.063  13.830   9.254
   69SOL     OW 1980   8.695  10.447   9.891
   69SOL    HW1 1981   8.687  10.509   9.819
   69SOL    HW2 1982   8.789  10.441   9.908
   70SOL     OW 1983   8.785   1.085  12.509
   70SOL    HW1 1984   8.860   1.036  12.477
   70SOL    HW2 1985   8.813   1.119  12.595
   71SOL     OW 1986   2.442  12.946  14.635
   71SOL    HW1 1987   2.362  12.894  14.632
   71SOL    HW2 1988   2.413  13.034  14.660
   72SOL     OW 1989   5.457   2.731   7.876
   72SOL    HW1 1990   5.512   2.716   7.954
   72SOL    HW2 1991   5.438   2.644   7.843
   73SOL     OW 1992   2.474  12.239   6.982
   73SOL    HW1 1993   2.549  12.218   6.926
   73SOL    HW2 1994   2.505  12.311   7.038
   74SOL     OW 1995  10.354   7.339   3.909
   74SOL    HW1 1996  10.272   7.355   3.957
   74SOL    HW2 1997  10.326   7.310   3.823
   75SOL     OW 1998   1.880   6.832   6.479
   75SOL    HW1 1999   1.829   6.815   6.558
   75SOL    HW2 2000   1.820   6.812   6.407
   76SOL     OW 2001   6.695  14.010  11.099
   76SOL    HW1 2002   6.763  13.952  11.065
   76SOL    HW2 2003   6.640  14.028  11.022
   77SOL     OW 2004  13.747   7.437   1.609
   77SOL    HW1 2005  13.716   7.352   1.579
   77SOL    HW2 2006  13.823   7.455   1.554
   78SOL     OW 2007  10.674  13.306   6.492
   78SOL    HW1 2008  10.712  13.330   6.577
   78SOL    HW2 2009  10.729  13.234   6.461
   79SOL     OW 2010   3.683   9.247   0.210
   79SOL    HW1 2011   3.736   9.327   0.217
   79SOL    HW2 2012   3.748   9.176   0.211
   80SOL     OW 2013   2.690   4.010   5.662
   80SOL    HW1 2014   2.681   4.089   5.715
   80SOL    HW2 2015   2.647   3.942   5.714
   81SOL     OW 2016  11.904  10.723   4.275
   81SOL    HW1 2017  11.929  10.637   4.240
   81SOL    HW2 2018  11.945  10.785   4.214
   82SOL     OW 2019   4.073   4.551   5.246
   82SOL    HW1 2020   4.075   4.531   5.340
   82SOL    HW2 2021   3.993   4.601   5.235
   83SOL     OW 2022   9.213   1.226  12.049
   83SOL    HW1 2023   9.176   1.208  11.963
   83SOL    HW2 2024   9.277   1.295  12.034
   84SOL     OW 2025  13.907   7.324  10.037
   84SOL    HW1 2026  13.883   7.368  10.119
   84SOL    HW2 2027  13.859   7.242  10.039
   85SOL     OW 2028  14.157   9.383   2.236
   85SOL    HW1 2029  14.119   9.303   2.199
   85SOL    HW2 2030  14.229   9.404   2.177
   86SOL     OW 2031   4.101  14.156  11.634
   86SOL    HW1 2032   4.060  14.189  11.554
   86SOL    HW2 2033   4.036  14.172  11.702
   87SOL     OW 2034   4.378   8.352   3.994
   87SOL    HW1 2035   4.293   8.334   4.034
   87SOL    HW2 2036   4.394   8.279   3.935
   88SOL     OW 2037   6.424  12.940   1.805
   88SOL    HW1 2038   6.423  12.871   1.739
   88SOL    HW2 2039   6.418  12.893   1.889
   89SOL     OW 2040   7.103   6.230  11.256
   89SOL    HW1 2041   7.096   6.325  11.246
   89SOL    HW2 2042   7.107   6.197  11.166
   90SOL     OW 2043   2.109   5.169   0.545
   90SOL    HW1 2044   2.185   5.115   0.567
   90SOL    HW2 2045   2.035   5.124   0.588
   91SOL     OW 2046   7.051  13.658   3.852
   91SOL    HW1 2047   7.113  13.655   3.924
   91SOL    HW2 2048   7.082  13.591   3.790
   92SOL     OW 2049   9.783   8.550   0.108
   92SOL    HW1 2050   9.739   8.584   0.187
   92SOL    HW2 2051   9.854   8.496   0.141
   93SOL     OW 2052   6.117   8.643   5.456
   93SOL    HW1 2053   6.115   8.650   5.551
   93SOL    HW2 2054   6.170   8.718   5.428
   94SOL     OW 2055   5.091   7.012   5.598
   94SOL    HW1 2056   5.027   6.946   5.571
   94SOL    HW2 2057   5.076   7.086   5.539
   95SOL     OW 2058   3.969   3.511  12.529
   95SOL    HW1 2059   4.042   3.550  12.480
   95SOL    HW2 2060   3.960   3.567  12.607
   96SOL     OW 2061  13.671   9.123   2.582
   96SOL    HW1 2062  13.685   9.148   2.491
   96SOL    HW2 2063  13.586   9.161   2.605
   97SOL     OW 2064   3.364   7.233   2.966
   97SOL    HW1 2065   3.318   7.283   2.899
   97SOL    HW2 2066   3.456   7.237   2.940
   98SOL     OW 2067   8.429   9.329   6.293
   98SOL    HW1 2068   8.388   9.358   6.212
   98SOL    HW2 2069   8.371   9.260   6.326
   99SOL     OW 2070  12.762  10.322   5.557
   99SOL    HW1 2071  12.777  10.415   5.574
   99SOL    HW2 2072  12.686  10.320   5.499
  100SOL     OW 2073   9.945   0.912  10.960
  100SOL    HW1 2074   9.874   0.868  10.914
  100SOL    HW2 2075  10.023   0.894  10.907
  101SOL     OW 2076   0.243  13.442   3.286
  101SOL    HW1 2077   0.305  13.503   3.247
  101SOL    HW2 2078   0.160  13.488   3.286
  102SOL     OW 2079   3.133   0.331   3.233
  102SOL    HW1 2080   3.162   0.248   3.270
  102SOL    HW2 2081   3.117   0.387   3.309
  103SOL     OW 2082  10.674   8.903   4.907
  103SOL    HW1 2083  10.675   8.987   4.952
  103SOL    HW2 2084  10.591   8.903   4.859
  104SOL     OW 2085   3.309   4.666   5.360
  104SOL    HW1 2086   3.221   4.676   5.395
  104SOL    HW2 2087   3.324   4.571   5.358
  105SOL     OW 2088   6.278  12.496   8.957
  105SOL    HW1 2089   6.328  12.435   8.903
  105SOL    HW2 2090   6.293  12.582   8.918
  106SOL     OW 2091   8.026   3.752   6.760
  106SOL    HW1 2092   7.983   3.824   6.714
  106SOL    HW2 2093   7.954   3.705   6.802
  107SOL     OW 2094  12.701   9.671   9.206
  107SOL    HW1 2095  12.704   9.598   9.269
  107SOL    HW2 2096  12.675   9.747   9.258
  108SOL     OW 2097   9.514   2.474   8.751
  108SOL    HW1 2098   9.530   2.448   8.661
  108SOL    HW2 2099   9.552   2.403   8.803
  109SOL     OW 2100  12.781   9.057   6.538
  109SOL    HW1 2101  12.744   9.106   6.464
  109SOL    HW2 2102  12.773   9.116   6.613
  110SOL     OW 2103  12.014   2.179   8.194
  110SOL    HW1 2104  12.080   2.229   8.243
  110SOL    HW2 2105  12.041   2.187   8.103
  111SOL     OW 2106  12.296   2.106  12.260
  111SOL    HW1 2107  12.260   2.023  12.229
  111SOL    HW2 2108  12.302   2.160  12.181
  112SOL     OW 2109   5.766   0.022  12.992
  112SOL    HW1 2110   5.795  14.822  12.944
  112SOL    HW2 2111   5.808   0.095  12.948
  113SOL     OW 2112   3.668   3.973   5.516
  113SOL    HW1 2113   3.669   4.021   5.433
  113SOL    HW2 2114   3.613   3.896   5.499
  114SOL     OW 2115  12.758   7.785   6.182
  114SOL    HW1 2116  12.838   7.741   6.153
  114SOL    HW2 2117  12.788   7.857   6.237
  115SOL     OW 2118   6.640   1.665  11.888
  115SOL    HW1 2119   6.560   1.657  11.939
  115SOL    HW2 2120   6.706   1.696  11.951
  116SOL     OW 2121  13.147   0.811   7.945
  116SOL    HW1 2122  13.056   0.811   7.913
  116SOL    HW2 2123  13.140   0.787   8.037
  117SOL     OW 2124   8.182  11.869   4.487
  117SOL    HW1 2125   8.274  11.862   4.464
  117SOL    HW2 2126   8.181  11.927   4.563
  118SOL     OW 2127   0.379   3.800   8.602
  118SOL    HW1 2128   0.418   3.738   8.664
  118SOL    HW2 2129   0.312   3.847   8.652
  119SOL     OW 2130  11.907   9.513   9.210
  119SOL    HW1 2131  11.975   9.501   9.276
  119SOL    HW2 2132  11.827   9.483   9.252
  120SOL     OW 2133   3.629   4.216  10.884
  120SOL    HW1 2134   3.583   4.197  10.965
  120SOL    HW2 2135   3.565   4.195  10.815
  121SOL     OW 2136   3.417  12.103  12.366
  121SOL    HW1 2137   3.405  12.116  12.272
  121SOL    HW2 2138   3.330  12.078  12.398
  122SOL     OW 2139   4.891  12.217   7.807
  122SOL    HW1 2140   4.885  12.273   7.729
  122SOL    HW2 2141   4.891  12.128   7.772
  123SOL     OW 2142  13.805   9.723   8.021
  123SOL    HW1 2143  13.739   9.744   7.955
  123SOL    HW2 2144  13.756   9.695   8.098
  124SOL     OW 2145  14.051  10.692   0.254
  124SOL    HW1 2146  13.974  10.702   0.197
  124SOL    HW2 2147  14.107  10.631   0.206
  125SOL     OW 2148   3.627   7.452  11.029
  125SOL    HW1 2149   3.623   7.395  10.952
  125SOL    HW2 2150   3.539   7.490  11.035
  126SOL     OW 2151   2.910   8.300   7.065
  126SOL    HW1 2152   2.864   8.221   7.093
  126SOL    HW2 2153   2.853   8.338   6.998
  127SOL     OW 2154   4.245   3.945  14.239
  127SOL    HW1 2155   4.167   3.989  14.208
  127SOL    HW2 2156   4.308   3.953  14.167
  128SOL     OW 2157   8.062   6.447   1.703
  128SOL    HW1 2158   8.000   6.513   1.672
  128SOL    HW2 2159   8.008   6.383   1.748
  129SOL     OW 2160   3.957   6.962  11.115
  129SOL    HW1 2161   3.994   6.947  11.202
  129SOL    HW2 2162   3.870   6.922  11.118
  130SOL     OW 2163   8.366   7.727   9.075
  130SOL    HW1 2164   8.352   7.638   9.042
  130SOL    HW2 2165   8.354   7.719   9.170
  131SOL     OW 2166   2.013  13.934   2.489
  131SOL    HW1 2167   2.020  14.005   2.425
  131SOL    HW2 2168   1.927  13.946   2.528
  132SOL     OW 2169   0.028   4.005   2.405
  132SOL    HW1 2170  14.817   4.042   2.409
  132SOL    HW2 2171   0.030   3.957   2.322
  133SOL     OW 2172   5.600   1.854  11.953
  133SOL    HW1 2173   5.630   1.769  11.984
  133SOL    HW2 2174   5.587   1.842  11.859
  134SOL     OW 2175   1.945   8.331   5.514
  134SOL    HW1 2176   1.984   8.338   5.601
  134SOL    HW2 2177   1.995   8.262   5.470
  135SOL     OW 2178   1.183   6.861   0.141
  135SOL    HW1 2179   1.203   6.924   0.071
  135SOL    HW2 2180   1.096   6.827   0.119
  136SOL     OW 2181  10.577   2.053   2.503
  136SOL    HW1 2182  10.518   2.128   2.511
  136SOL    HW2 2183  10.642   2.067   2.573
  137SOL     OW 2184   3.719   4.731   9.644
  137SOL    HW1 2185   3.788   4.710   9.581
  137SOL    HW2 2186   3.750   4.810   9.689
  138SOL     OW 2187   7.343  13.041  13.449
  138SOL    HW1 2188   7.263  13.068  13.404
  138SOL    HW2 2189   7.413  13.056  13.386
  139SOL     OW 2190  11.038   1.539   9.005
  139SOL    HW1 2191  10.956   1.515   8.963
  139SOL    HW2 2192  11.031   1.634   9.019
  140SOL     OW 2193   7.666   0.208  11.949
  140SOL    HW1 2194   7.588   0.171  11.991
  140SOL    HW2 2195   7.726   0.133  11.942
  141SOL     OW 2196  10.012   1.956   8.347
  141SOL    HW1 2197   9.922   1.945   8.319
  141SOL    HW2 2198  10.053   1.871   8.329
  142SOL     OW 2199   7.669   7.550  13.177
  142SOL    HW1 2200   7.683   7.456  13.191
  142SOL    HW2 2201   7.635   7.556  13.088
  143SOL     OW 2202  14.398   2.261   2.152
  143SOL    HW1 2203  14.310   2.298   2.158
  143SOL    HW2 2204  14.457   2.334   2.170
  144SOL     OW 2205  14.366   5.380   4.118
  144SOL    HW1 2206  14.372   5.288   4.144
  144SOL    HW2 2207  14.447   5.397   4.070
  145SOL     OW 2208   6.703   6.524  13.500
  145SOL    HW1 2209   6.610   6.522  13.480
  145SOL    HW2 2210   6.746   6.518  13.414
  146SOL     OW 2211   8.402  11.894   1.198
  146SOL    HW1 2212   8.450  11.866   1.276
  146SOL    HW2 2213   8.470  11.904   1.131
  147SOL     OW 2214   0.177   5.295  14.269
  147SOL    HW1 2215   0.137   5.228  14.323
  147SOL    HW2 2216   0.207   5.361  14.331
  148SOL     OW 2217   9.795   8.795   5.761
  148SOL    HW1 2218   9.724   8.731   5.768
  148SOL    HW2 2219   9.753   8.873   5.726
  149SOL     OW 2220  12.794   6.401  14.818
  149SOL    HW1 2221  12.728   6.383  14.750
  149SOL    HW2 2222  12.795   6.323  14.873
  150SOL     OW 2223   0.327  11.956  14.607
  150SOL    HW1 2224   0.376  11.979  14.685
  150SOL    HW2 2225   0.327  11.860  14.605
  151SOL     OW 2226   9.690   7.302   1.297
  151SOL    HW1 2227   9.750   7.376   1.292
  151SOL    HW2 2228   9.669   7.282   1.206
  152SOL     OW 2229  12.409   1.323  12.995
  152SOL    HW1 2230  12.345   1.274  12.943
  152SOL    HW2 2231  12.494   1.293  12.963
  153SOL     OW 2232   3.213  13.984   5.724
  153SOL    HW1 2233   3.150  13.919   5.756
  153SOL    HW2 2234   3.264  14.009   5.801
  154SOL     OW 2235   3.186  11.526  10.363
  154SOL    HW1 2236   3.206  11.536  10.456
  154SOL    HW2 2237   3.188  11.615  10.328
  155SOL     OW 2238   3.907   4.909   6.744
  155SOL    HW1 2239   3.953   4.909   6.660
  155SOL    HW2 2240   3.814   4.905   6.721
  156SOL     OW 2241   9.927   0.761   6.542
  156SOL    HW1 2242   9.969   0.836   6.501
  156SOL    HW2 2243   9.951   0.767   6.634
  157SOL     OW 2244   3.388  11.228  13.608
  157SOL    HW1 2245   3.318  11.293  13.610
  157SOL    HW2 2246   3.399  11.201  13.699
  158SOL     OW 2247   6.535   3.911   6.749
  158SOL    HW1 2248   6.624   3.941   6.729
  158SOL    HW2 2249   6.488   3.990   6.776
  159SOL     OW 2250  13.687   9.460   9.845
  159SOL    HW1 2251  13.778   9.430   9.846
  159SOL    HW2 2252  13.641   9.393   9.794
  160SOL     OW 2253  10.837   9.563   1.260
  160SOL    HW1 2254  10.835   9.479   1.306
  160SOL    HW2 2255  10.781   9.549   1.184
  161SOL     OW 2256   2.510  14.697   9.215
  161SOL    HW1 2257   2.552  14.771   9.172
  161SOL    HW2 2258   2.529  14.623   9.158
  162SOL     OW 2259   9.040   0.986  13.390
  162SOL    HW1 2260   9.018   1.025  13.306
  162SOL    HW2 2261   8.993   1.039  13.454
  163SOL     OW 2262  14.460   2.540   2.736
  163SOL    HW1 2263  14.488   2.449   2.739
  163SOL    HW2 2264  14.467   2.570   2.826
  164SOL     OW 2265  11.085   3.726  14.209
  164SOL    HW1 2266  11.098   3.745  14.302
  164SOL    HW2 2267  11.046   3.806  14.174
  165SOL     OW 2268   5.153   4.015   1.631
  165SOL    HW1 2269   5.153   3.935   1.579
  165SOL    HW2 2270   5.222   4.001   1.695
  166SOL     OW 2271   4.382   2.116   7.261
  166SOL    HW1 2272   4.298   2.104   7.216
  166SOL    HW2 2273   4.446   2.080   7.200
  167SOL     OW 2274  11.218   3.449  10.287
  167SOL    HW1 2275  11.197   3.526  10.235
  167SOL    HW2 2276  11.267   3.483  10.362
  168SOL     OW 2277   2.339  14.518   2.711
  168SOL    HW1 2278   2.348  14.519   2.615
  168SOL    HW2 2279   2.412  14.570   2.742
  169SOL     OW 2280   6.197  12.239   2.685
  169SOL    HW1 2281   6.192  12.143   2.679
  169SOL    HW2 2282   6.271  12.263   2.630
  170SOL     OW 2283   8.273   1.331   5.113
  170SOL    HW1 2284   8.317   1.298   5.035
  170SOL    HW2 2285   8.234   1.414   5.086
  171SOL     OW 2286   3.160   7.935  13.124
  171SOL    HW1 2287   3.075   7.978  13.120
  171SOL    HW2 2288   3.220   8.003  13.156
  172SOL     OW 2289   5.670   8.219   3.396
  172SOL    HW1 2290   5.718   8.286   3.445
  172SOL    HW2 2291   5.735   8.184   3.334
  173SOL     OW 2292   7.823   3.833   8.204
  173SOL    HW1 2293   7.875   3.913   8.196
  173SOL    HW2 2294   7.803   3.808   8.114
  174SOL     OW 2295  10.666   8.183   6.730
  174SOL    HW1 2296  10.628   8.271   6.718
  174SOL    HW2 2297  10.598   8.134   6.776
  175SOL     OW 2298   7.029   1.101   1.092
  175SOL    HW1 2299   7.006   1.014   1.059
  175SOL    HW2 2300   7.046   1.087   1.185
  176SOL     OW 2301  11.615   8.795  12.469
  176SOL    HW1 2302  11.579   8.872  12.426
  176SOL    HW2 2303  11.701   8.823  12.501
  177SOL     OW 2304  14.252   7.671  11.519
  177SOL    HW1 2305  14.316   7.678  11.448
  177SOL    HW2 2306  14.168   7.661  11.475
  178SOL     OW 2307  10.494   2.062   7.168
  178SOL    HW1 2308  10.557   2.012   7.117
  178SOL    HW2 2309  10.496   2.150   7.130
  179SOL     OW 2310   9.248  12.006   5.060
  179SOL    HW1 2311   9.236  12.095   5.094
  179SOL    HW2 2312   9.343  11.999   5.046
  180SOL     OW 2313   3.325  10.042   2.225
  180SOL    HW1 2314   3.409  10.016   2.263
  180SOL    HW2 2315   3.339  10.039   2.130
  181SOL     OW 2316   2.243   8.305   0.162
  181SOL    HW1 2317   2.298   8.380   0.185
  181SOL    HW2 2318   2.303   8.231   0.159
  182SOL     OW 2319   2.064  13.382  13.321
  182SOL    HW1 2320   1.994  13.422  13.269
  182SOL    HW2 2321   2.056  13.288  13.304
  183SOL     OW 2322   2.483  14.321   2.225
  183SOL    HW1 2323   2.552  14.360   2.171
  183SOL    HW2 2324   2.424  14.394   2.245
  184SOL     OW 2325   2.892   4.198   5.522
  184SOL    HW1 2326   2.933   4.204   5.436
  184SOL    HW2 2327   2.850   4.112   5.523
  185SOL     OW 2328  14.411   6.943  12.362
  185SOL    HW1 2329  14.347   6.924  12.294
  185SOL    HW2 2330  14.457   7.021  12.330
  186SOL     OW 2331  10.348   8.427  13.157
  186SOL    HW1 2332  10.274   8.465  13.204
  186SOL    HW2 2333  10.330   8.445  13.065
  187SOL     OW 2334  10.990   0.899  13.383
  187SOL    HW1 2335  10.917   0.838  13.398
  187SOL    HW2 2336  10.973   0.936  13.297
  188SOL     OW 2337  13.862   9.372   7.702
  188SOL    HW1 2338  13.939   9.428   7.693
  188SOL    HW2 2339  13.823   9.371   7.615
  189SOL     OW 2340   9.225   7.776   6.158
  189SOL    HW1 2341   9.160   7.841   6.131
  189SOL    HW2 2342   9.246   7.727   6.079
  190SOL     OW 2343   3.821   2.443  13.745
  190SOL    HW1 2344   3.765   2.502  13.797
  190SOL    HW2 2345   3.899   2.431  13.799
  191SOL     OW 2346   3.658   0.157   0.325
  191SOL    HW1 2347   3.666   0.092   0.255
  191SOL    HW2 2348   3.607   0.113   0.393
  192SOL     OW 2349   6.352   5.282   9.391
  192SOL    HW1 2350   6.399   5.251   9.314
  192SOL    HW2 2351   6.393   5.366   9.412
  193SOL     OW 2352   6.697  13.099   5.266
  193SOL    HW1 2353   6.619  13.046   5.286
  193SOL    HW2 2354   6.711  13.151   5.345
  194SOL     OW 2355   4.516   6.296   6.584
  194SOL    HW1 2356   4.427   6.313   6.614
  194SOL    HW2 2357   4.564   6.270   6.662
  195SOL     OW 2358  12.051  12.706   7.266
  195SOL    HW1 2359  12.048  12.802   7.264
  195SOL    HW2 2360  12.110  12.685   7.338
  196SOL     OW 2361  11.677   8.386  14.370
  196SOL    HW1 2362  11.675   8.296  14.402
  196SOL    HW2 2363  11.587   8.417  14.381
  197SOL     OW 2364  10.116  14.279   4.715
  197SOL    HW1 2365  10.157  14.301   4.798
  197SOL    HW2 2366  10.022  14.277   4.734
  198SOL     OW 2367   8.311   7.264   6.274
  198SOL    HW1 2368   8.358   7.188   6.240
  198SOL    HW2 2369   8.326   7.261   6.368
  199SOL     OW 2370   2.604  14.059   4.486
  199SOL    HW1 2371   2.578  13.972   4.517
  199SOL    HW2 2372   2.649  14.099   4.560
  200SOL     OW 2373   9.369   0.961   0.984
  200SOL    HW1 2374   9.292   0.974   0.928
  200SOL    HW2 2375   9.408   0.879   0.953
  201SOL     OW 2376  12.258  11.765   5.787
  201SOL    HW1 2377  12.283  11.685   5.739
  201SOL    HW2 2378  12.163  11.761   5.793
  202SOL     OW 2379   0.173   6.815   1.686
  202SOL    HW1 2380   0.240   6.850   1.628
  202SOL    HW2 2381   0.100   6.877   1.679
  203SOL     OW 2382  14.797  10.421   4.285
  203SOL    HW1 2383  14.825  10.338   4.248
  203SOL    HW2 2384  14.767  10.472   4.210
  204SOL     OW 2385  14.063  13.126   5.946
  204SOL    HW1 2386  13.980  13.080   5.939
  204SOL    HW2 2387  14.117  13.070   6.002
  205SOL     OW 2388   5.255   6.679   2.504
  205SOL    HW1 2389   5.263   6.637   2.418
  205SOL    HW2 2390   5.200   6.755   2.488
  206SOL     OW 2391  14.842   4.808  12.781
  206SOL    HW1 2392  14.868   4.826  12.871
  206SOL    HW2 2393  14.782   4.880  12.759
  207SOL     OW 2394   0.532   4.660  11.279
  207SOL    HW1 2395   0.488   4.588  11.325
  207SOL    HW2 2396   0.483   4.670  11.198
  208SOL     OW 2397  14.381   4.429   2.579
  208SOL    HW1 2398  14.376   4.391   2.667
  208SOL    HW2 2399  14.339   4.514   2.587
  209SOL     OW 2400   7.537  14.067   2.829
  209SOL    HW1 2401   7.470  14.064   2.896
  209SOL    HW2 2402   7.588  14.146   2.848
  210SOL     OW 2403   9.973   4.941  13.989
  210SOL    HW1 2404   9.902   4.938  14.054
  210SOL    HW2 2405   9.988   5.034  13.975
  211SOL     OW 2406   8.398   2.681  11.989
  211SOL    HW1 2407   8.343   2.758  11.994
  211SOL    HW2 2408   8.385   2.636  12.073
  212SOL     OW 2409   1.092   3.502   8.687
  212SOL    HW1 2410   1.184   3.481   8.671
  212SOL    HW2 2411   1.081   3.590   8.653
  213SOL     OW 2412   1.437   3.506   0.933
  213SOL    HW1 2413   1.397   3.561   1.000
  213SOL    HW2 2414   1.416   3.549   0.850
  214SOL     OW 2415   9.676  11.686  13.240
  214SOL    HW1 2416   9.726  11.765  13.219
  214SOL    HW2 2417   9.590  11.701  13.199
  215SOL     OW 2418   2.072   0.528  10.366
  215SOL    HW1 2419   2.166   0.537  10.348
  215SOL    HW2 2420   2.029   0.547  10.283
  216SOL     OW 2421   7.551  13.993   1.874
  216SOL    HW1 2422   7.598  14.071   1.848
  216SOL    HW2 2423   7.473  14.026   1.919
  217SOL     OW 2424  14.154   1.608   2.207
  217SOL    HW1 2425  14.229   1.551   2.190
  217SOL    HW2 2426  14.163   1.631   2.300
  218SOL     OW 2427  10.428   8.003   4.618
  218SOL    HW1 2428  10.473   7.989   4.702
  218SOL    HW2 2429  10.438   7.920   4.572
  219SOL     OW 2430  14.740   6.272   4.881
  219SOL    HW1 2431  14.682   6.242   4.951
  219SOL    HW2 2432  14.684   6.326   4.825
  220SOL     OW 2433  11.051  11.290  14.825
  220SOL    HW1 2434  11.065  11.384  14.838
  220SOL    HW2 2435  11.009  11.283  14.739
  221SOL     OW 2436   9.062   2.627  11.400
  221SOL    HW1 2437   9.053   2.720  11.379
  221SOL    HW2 2438   9.111   2.625  11.483
  222SOL     OW 2439   3.500  14.386   6.809
  222SOL    HW1 2440   3.420  14.349   6.771
  222SOL    HW2 2441   3.559  14.397   6.734
  223SOL     OW 2442   3.693   1.930   2.986
  223SOL    HW1 2443   3.760   1.872   3.021
  223SOL    HW2 2444   3.690   2.003   3.048
  224SOL     OW 2445   4.082  13.514   1.052
  224SOL    HW1 2446   4.143  13.568   1.103
  224SOL    HW2 2447   4.078  13.558   0.967
  225SOL     OW 2448  12.662   3.145   5.475
  225SOL    HW1 2449  12.712   3.079   5.522
  225SOL    HW2 2450  12.669   3.224   5.528
  226SOL     OW 2451  11.941   9.085  13.667
  226SOL    HW1 2452  11.969   8.994  13.681
  226SOL    HW2 2453  11.856   9.077  13.624
  227SOL     OW 2454   2.199  11.902   4.352
  227SOL    HW1 2455   2.202  11.980   4.407
  227SOL    HW2 2456   2.109  11.897   4.321
  228SOL     OW 2457  12.542   3.145  11.482
  228SOL    HW1 2458  12.543   3.162  11.388
  228SOL    HW2 2459  12.485   3.213  11.518
  229SOL     OW 2460  11.216   0.181   9.487
  229SOL    HW1 2461  11.160   0.249   9.450
  229SOL    HW2 2462  11.201   0.105   9.431
  230SOL     OW 2463   3.003   8.494  12.115
  230SOL    HW1 2464   2.964   8.551  12.181
  230SOL    HW2 2465   3.016   8.550  12.039
  231SOL     OW 2466   1.078   9.740  12.599
  231SOL    HW1 2467   1.112   9.659  12.635
  231SOL    HW2 2468   1.153   9.799  12.597
  232SOL     OW 2469   9.067   9.131   0.349
  232SOL    HW1 2470   9.016   9.088   0.417
  232SOL    HW2 2471   9.013   9.205   0.321
  233SOL     OW 2472   9.589   4.445   9.042
  233SOL    HW1 2473   9.494   4.450   9.044
  233SOL    HW2 2474   9.617   4.474   9.129
  234SOL     OW 2475   4.343   4.243   7.911
  234SOL    HW1 2476   4.318   4.268   8.000
  234SOL    HW2 2477   4.267   4.266   7.857
  235SOL     OW 2478   0.500  10.467  11.483
  235SOL    HW1 2479   0.584  10.426  11.501
  235SOL    HW2 2480   0.434  10.404  11.513
  236SOL     OW 2481   6.380   9.896  12.143
  236SOL    HW1 2482   6.302   9.855  12.106
  236SOL    HW2 2483   6.451   9.872  12.083
  237SOL     OW 2484   7.462   4.670  12.593
  237SOL    HW1 2485   7.436   4.762  12.593
  237SOL    HW2 2486   7.540   4.666  12.537
  238SOL     OW 2487   4.044   0.349  10.184
  238SOL    HW1 2488   4.036   0.348  10.279
  238SOL    HW2 2489   4.108   0.417  10.166
  239SOL     OW 2490   9.262  11.052   3.132
  239SOL    HW1 2491   9.202  11.056   3.058
  239SOL    HW2 2492   9.306  11.137   3.132
  240SOL     OW 2493   2.026   4.012  13.674
  240SOL    HW1 2494   1.972   3.956  13.730
  240SOL    HW2 2495   1.967   4.082  13.647
  241SOL     OW 2496   0.587   2.115   4.403
  241SOL    HW1 2497   0.560   2.154   4.487
  241SOL    HW2 2498   0.614   2.026   4.425
  242SOL     OW 2499  10.674   7.776   3.068
  242SOL    HW1 2500  10.748   7.799   3.124
  242SOL    HW2 2501  10.599   7.775   3.127
  243SOL     OW 2502  13.391   2.895   5.635
  243SOL    HW1 2503  13.386   2.815   5.686
  243SOL    HW2 2504  13.354   2.873   5.550
  244SOL     OW 2505   4.381  12.948   4.968
  244SOL    HW1 2506   4.388  13.043   4.954
  244SOL    HW2 2507   4.380  12.911   4.880
  245SOL     OW 2508   4.933   8.571  12.444
  245SOL    HW1 2509   4.926   8.651  12.497
  245SOL    HW2 2510   4.941   8.603  12.354
  246SOL     OW 2511  14.226   6.421  14.094
  246SOL    HW1 2512  14.172   6.435  14.017
  246SOL    HW2 2513  14.211   6.498  14.148
  247SOL     OW 2514   7.639   4.945   4.604
  247SOL    HW1 2515   7.552   4.953   4.566
  247SOL    HW2 2516   7.623   4.944   4.699
  248SOL     OW 2517  14.554   1.133   1.538
  248SOL    HW1 2518  14.512   1.218   1.526
  248SOL    HW2 2519  14.502   1.073   1.485
  249SOL     OW 2520   3.704  10.131   1.547
  249SOL    HW1 2521   3.648  10.054   1.537
  249SOL    HW2 2522   3.789  10.096   1.575
  250SOL     OW 2523  14.744  11.390   4.997
  250SOL    HW1 2524  14.817  11.388   5.059
  250SOL    HW2 2525  14.774  11.448   4.927
  251SOL     OW 2526   9.606   8.129   0.527
  251SOL    HW1 2527   9.541   8.193   0.498
  251SOL    HW2 2528   9.646   8.170   0.604
  252SOL     OW 2529   6.911   7.130   6.907
  252SOL    HW1 2530   6.937   7.048   6.866
  252SOL    HW2 2531   6.990   7.162   6.950
  253SOL     OW 2532   2.872   0.214   7.949
  253SOL    HW1 2533   2.811   0.192   7.879
  253SOL    HW2 2534   2.939   0.145   7.946
  254SOL     OW 2535  14.057   7.312  10.969
  254SOL    HW1 2536  14.046   7.218  10.961
  254SOL    HW2 2537  14.138   7.323  11.019
  255SOL     OW 2538   8.865  13.307   0.547
  255SOL    HW1 2539   8.882  13.327   0.455
  255SOL    HW2 2540   8.949  13.275   0.580
  256SOL     OW 2541   5.643  10.181  12.172
  256SOL    HW1 2542   5.620  10.145  12.257
  256SOL    HW2 2543   5.607  10.119  12.109
  257SOL     OW 2544   3.769   6.447   7.587
  257SOL    HW1 2545   3.757   6.362   7.546
  257SOL    HW2 2546   3.697   6.454   7.649
  258SOL     OW 2547   9.459   6.129  10.984
  258SOL    HW1 2548   9.412   6.103  10.905
  258SOL    HW2 2549   9.392   6.165  11.041
  259SOL     OW 2550   2.805  12.930   3.267
  259SOL    HW1 2551   2.773  12.912   3.178
  259SOL    HW2 2552   2.899  12.940   3.257
  260SOL     OW 2553  13.304   4.748   8.701
  260SOL    HW1 2554  13.251   4.750   8.780
  260SOL    HW2 2555  13.278   4.668   8.656
  261SOL     OW 2556   0.512  12.681   1.122
  261SOL    HW1 2557   0.532  12.774   1.117
  261SOL    HW2 2558   0.558  12.650   1.200
  262SOL     OW 2559   2.608  13.025   1.672
  262SOL    HW1 2560   2.662  13.049   1.747
  262SOL    HW2 2561   2.558  12.949   1.702
  263SOL     OW 2562   5.323   5.813   0.385
  263SOL    HW1 2563   5.252   5.862   0.343
  263SOL    HW2 2564   5.390   5.879   0.403
  264SOL     OW 2565  12.310   0.450   6.165
  264SOL    HW1 2566  12.224   0.451   6.207
  264SOL    HW2 2567  12.361   0.387   6.217
  265SOL     OW 2568   1.977   5.173   8.077
  265SOL    HW1 2569   1.989   5.180   8.171
  265SOL    HW2 2570   1.993   5.262   8.044
  266SOL     OW 2571   9.951   1.059  14.572
  266SOL    HW1 2572   9.971   1.038  14.663
  266SOL    HW2 2573  10.035   1.079  14.532
  267SOL     OW 2574  13.338  13.966   2.914
  267SOL    HW1 2575  13.434  13.966   2.920
  267SOL    HW2 2576  13.308  13.986   3.002
  268SOL     OW 2577   7.414   9.114   3.285
  268SOL    HW1 2578   7.405   9.072   3.200
  268SOL    HW2 2579   7.411   9.208   3.266
  269SOL     OW 2580   6.198  10.857  13.164
  269SOL    HW1 2581   6.235  10.788  13.108
  269SOL    HW2 2582   6.264  10.925  13.165
  270SOL     OW 2583   0.115   1.500   9.815
  270SOL    HW1 2584   0.079   1.412   9.830
  270SOL    HW2 2585   0.072   1.555   9.880
  271SOL     OW 2586   7.476  13.014  12.054
  271SOL    HW1 2587   7.391  13.002  12.012
  271SOL    HW2 2588   7.462  12.985  12.144
  272SOL     OW 2589   4.232  10.069   0.690
  272SOL    HW1 2590   4.181  10.083   0.611
  272SOL    HW2 2591   4.239   9.974   0.698
  273SOL     OW 2592  11.848   0.709   9.456
  273SOL    HW1 2593  11.831   0.692   9.549
  273SOL    HW2 2594  11.887   0.628   9.424
  274SOL     OW 2595   6.761   3.653  12.628
  274SOL    HW1 2596   6.708   3.580  12.595
  274SOL    HW2 2597   6.804   3.618  12.705
  275SOL     OW 2598   6.928   7.277  12.040
  275SOL    HW1 2599   6.923   7.371  12.057
  275SOL    HW2 2600   6.981   7.270  11.961
  276SOL     OW 2601  14.480   5.727  13.680
  276SOL    HW1 2602  14.528   5.653  13.641
  276SOL    HW2 2603  14.497   5.800  13.620
  277SOL     OW 2604   9.671   6.585  14.814
  277SOL    HW1 2605   9.688   6.531  14.737
  277SOL    HW2 2606   9.757   6.611  14.845
  278SOL     OW 2607  14.339   6.975   1.096
  278SOL    HW1 2608  14.351   6.972   1.001
  278SOL    HW2 2609  14.400   6.910   1.130
  279SOL     OW 2610   1.694   2.872   2.444
  279SOL    HW1 2611   1.775   2.821   2.448
  279SOL    HW2 2612   1.637   2.833   2.510
  280SOL     OW 2613   7.163  10.288  14.134
  280SOL    HW1 2614   7.167  10.192  14.139
  280SOL    HW2 2615   7.078  10.306  14.094
  281SOL     OW 2616   3.287   1.766   1.009
  281SOL    HW1 2617   3.200   1.726   1.005
  281SOL    HW2 2618   3.323   1.738   1.093
  282SOL     OW 2619   7.648   8.468   2.794
  282SOL    HW1 2620   7.724   8.417   2.824
  282SOL    HW2 2621   7.646   8.543   2.853
  283SOL     OW 2622   9.096   5.760   1.227
  283SOL    HW1 2623   9.041   5.683   1.212
  283SOL    HW2 2624   9.186   5.728   1.220
  284SOL     OW 2625   3.066  11.319  14.155
  284SOL    HW1 2626   3.075  11.229  14.123
  284SOL    HW2 2627   3.064  11.311  14.250
  285SOL     OW 2628  11.698  10.142   7.556
  285SOL    HW1 2629  11.649  10.207   7.606
  285SOL    HW2 2630  11.773  10.121   7.611
  286SOL     OW 2631   4.143   2.986   7.497
  286SOL    HW1 2632   4.180   2.957   7.414
  286SOL    HW2 2633   4.055   3.016   7.475
  287SOL     OW 2634  12.110   9.479   2.984
  287SOL    HW1 2635  12.153   9.541   2.925
  287SOL    HW2 2636  12.035   9.447   2.935
  288SOL     OW 2637  11.320   0.954   8.533
  288SOL    HW1 2638  11.297   0.960   8.626
  288SOL    HW2 2639  11.379   1.027   8.518
  289SOL     OW 2640   9.953   8.679   5.528
  289SOL    HW1 2641   9.955   8.712   5.618
  289SOL    HW2 2642   9.860   8.660   5.511
  290SOL     OW 2643  13.177  10.135  10.195
  290SOL    HW1 2644  13.209  10.045  10.186
  290SOL    HW2 2645  13.093  10.127  10.239
  291SOL     OW 2646   1.602   4.844  13.069
  291SOL    HW1 2647   1.634   4.755  13.052
  291SOL    HW2 2648   1.609   4.854  13.164
  292SOL     OW 2649   1.391   7.125  12.725
  292SOL    HW1 2650   1.392   7.220  12.712
  292SOL    HW2 2651   1.404   7.089  12.637
  293SOL     OW 2652   1.344   9.993   0.099
  293SOL    HW1 2653   1.275   9.949   0.049
  293SOL    HW2 2654   1.418   9.995   0.039
  294SOL     OW 2655   3.045   3.584   3.844
  294SOL    HW1 2656   3.051   3.677   3.821
  294SOL    HW2 2657   3.127   3.546   3.812
  295SOL     OW 2658  10.969   2.669   8.839
  295SOL    HW1 2659  10.931   2.634   8.758
  295SOL    HW2 2660  10.919   2.628   8.909
  296SOL     OW 2661   6.925   9.022   4.044
  296SOL    HW1 2662   6.884   8.955   3.990
  296SOL    HW2 2663   6.947   8.977   4.126
  297SOL     OW 2664  11.780   8.881   8.340
  297SOL    HW1 2665  11.828   8.957   8.307
  297SOL    HW2 2666  11.848   8.826   8.380
  298SOL     OW 2667   1.357  12.700   6.937
  298SOL    HW1 2668   1.419  12.739   6.875
  298SOL    HW2 2669   1.290  12.768   6.948
  299SOL     OW 2670   2.691  13.332  13.001
  299SOL    HW1 2671   2.711  13.379  13.082
  299SOL    HW2 2672   2.639  13.394  12.950
  300SOL     OW 2673   5.040  12.830   6.245
  300SOL    HW1 2674   5.105  12.805   6.180
  300SOL    HW2 2675   5.040  12.758   6.308
  301SOL     OW 2676   2.146   9.490   4.239
  301SOL    HW1 2677   2.234   9.451   4.241
  301SOL    HW2 2678   2.163   9.585   4.236
  302SOL     OW 2679   3.758   7.917  12.251
  302SOL    HW1 2680   3.700   7.862  12.303
  302SOL    HW2 2681   3.845   7.877  12.261
  303SOL     OW 2682   2.121  10.672   2.010
  303SOL    HW1 2683   2.050  10.719   2.053
  303SOL    HW2 2684   2.190  10.738   1.998
  304SOL     OW 2685   5.631   7.078   6.284
  304SOL    HW1 2686   5.587   7.041   6.207
  304SOL    HW2 2687   5.561   7.124   6.331
  305SOL     OW 2688  11.594   6.151   1.350
  305SOL    HW1 2689  11.578   6.221   1.412
  305SOL    HW2 2690  11.536   6.080   1.377
  306SOL     OW 2691   1.714  13.750   7.225
  306SOL    HW1 2692   1.805  13.780   7.230
  306SOL    HW2 2693   1.686  13.744   7.316
  307SOL     OW 2694   2.718  12.209  11.099
  307SOL    HW1 2695   2.684  12.274  11.161
  307SOL    HW2 2696   2.806  12.190  11.131
  308SOL     OW 2697   7.030   0.048   6.289
  308SOL    HW1 2698   6.953   0.044   6.233
  308SOL    HW2 2699   7.015   0.123   6.346
  309SOL     OW 2700  12.650  14.661  11.987
  309SOL    HW1 2701  12.659  14.683  12.080
  309SOL    HW2 2702  12.740  14.651  11.956
  310SOL     OW 2703   2.896   9.406  13.269
  310SOL    HW1 2704   2.916   9.497  13.250
  310SOL    HW2 2705   2.846   9.410  13.351
  311SOL     OW 2706  11.687  13.811   5.902
  311SOL    HW1 2707  11.709  13.859   5.981
  311SOL    HW2 2708  11.771  13.791   5.861
  312SOL     OW 2709  12.858   8.273  11.400
  312SOL    HW1 2710  12.894   8.348  11.354
  312SOL    HW2 2711  12.776   8.254  11.354
  313SOL     OW 2712   5.078   7.029   4.822
  313SOL    HW1 2713   5.082   6.935   4.803
  313SOL    HW2 2714   5.115   7.070   4.744
  314SOL     OW 2715   3.721   4.598   7.615
  314SOL    HW1 2716   3.709   4.679   7.665
  314SOL    HW2 2717   3.710   4.624   7.524
  315SOL     OW 2718  12.359  10.714   9.140
  315SOL    HW1 2719  12.437  10.760   9.170
  315SOL    HW2 2720  12.374  10.623   9.166
  316SOL     OW 2721   2.479  14.815   0.417
  316SOL    HW1 2722   2.410  14.779   0.362
  316SOL    HW2 2723   2.447   0.025   0.441
  317SOL     OW 2724   8.759   9.753   1.447
  317SOL    HW1 2725   8.808   9.681   1.407
  317SOL    HW2 2726   8.726   9.803   1.373
  318SOL     OW 2727  13.995  13.876  12.668
  318SOL    HW1 2728  14.009  13.817  12.742
  318SOL    HW2 2729  14.023  13.962  12.700
  319SOL     OW 2730   1.475   3.924  12.497
  319SOL    HW1 2731   1.544   3.930  12.431
  319SOL    HW2 2732   1.401   3.971  12.459
  320SOL     OW 2733   2.226   8.941   4.486
  320SOL    HW1 2734   2.319   8.960   4.483
  320SOL    HW2 2735   2.183   9.021   4.456
  321SOL     OW 2736  11.729   6.656   7.083
  321SOL    HW1 2737  11.740   6.616   7.170
  321SOL    HW2 2738  11.717   6.749   7.101
  322SOL     OW 2739   0.499   3.561  10.843
  322SOL    HW1 2740   0.430   3.513  10.888
  322SOL    HW2 2741   0.574   3.502  10.842
  323SOL     OW 2742   7.808  11.866   5.814
  323SOL    HW1 2743   7.865  11.923   5.864
  323SOL    HW2 2744   7.855  11.850   5.732
  324SOL     OW 2745   2.070  11.315   3.777
  324SOL    HW1 2746   2.083  11.223   3.753
  324SOL    HW2 2747   1.991  11.315   3.831
  325SOL     OW 2748  12.450   0.263   6.314
  325SOL    HW1 2749  12.538   0.233   6.291
  325SOL    HW2 2750  12.392   0.207   6.263
  326SOL     OW 2751   2.253  13.373   3.960
  326SOL    HW1 2752   2.255  13.299   3.900
  326SOL    HW2 2753   2.336  13.419   3.945
  327SOL     OW 2754   6.651  13.663   3.709
  327SOL    HW1 2755   6.723  13.700   3.658
  327SOL    HW2 2756   6.623  13.735   3.766
  328SOL     OW 2757   8.069   9.778   9.967
  328SOL    HW1 2758   8.042   9.742   9.882
  328SOL    HW2 2759   8.007   9.848   9.985
  329SOL     OW 2760   5.893   4.735   5.652
  329SOL    HW1 2761   5.806   4.772   5.636
  329SOL    HW2 2762   5.895   4.657   5.596
  330SOL     OW 2763  12.071   1.835   5.067
  330SOL    HW1 2764  11.993   1.799   5.110
  330SOL    HW2 2765  12.059   1.930   5.070
  331SOL     OW 2766   6.529   2.440  13.929
  331SOL    HW1 2767   6.572   2.509  13.979
  331SOL    HW2 2768   6.504   2.481  13.846
  332SOL     OW 2769   2.078   3.043   4.380
  332SOL    HW1 2770   2.046   3.049   4.471
  332SOL    HW2 2771   2.093   2.949   4.367
  333SOL     OW 2772   7.214   3.679   6.847
  333SOL    HW1 2773   7.287   3.720   6.801
  333SOL    HW2 2774   7.144   3.673   6.782
  334SOL     OW 2775   0.737  13.723  11.171
  334SOL    HW1 2776   0.769  13.655  11.231
  334SOL    HW2 2777   0.643  13.710  11.169
  335SOL     OW 2778   0.664  14.855   8.734
  335SOL    HW1 2779   0.700   0.062   8.760
  335SOL    HW2 2780   0.729  14.791   8.763
  336SOL     OW 2781  13.228   9.428  12.990
  336SOL    HW1 2782  13.279   9.347  12.982
  336SOL    HW2 2783  13.288   9.498  12.965
  337SOL     OW 2784  10.170   1.105   8.512
  337SOL    HW1 2785  10.124   1.149   8.582
  337SOL    HW2 2786  10.257   1.088   8.547
  338SOL     OW 2787  12.135   7.756   6.635
  338SOL    HW1 2788  12.142   7.726   6.726
  338SOL    HW2 2789  12.218   7.799   6.617
  339SOL     OW 2790   2.249  11.576  12.335
  339SOL    HW1 2791   2.256  11.517  12.260
  339SOL    HW2 2792   2.272  11.662  12.300
  340SOL     OW 2793   3.172   8.599   7.422
  340SOL    HW1 2794   3.160   8.612   7.516
  340SOL    HW2 2795   3.116   8.525   7.400
  341SOL     OW 2796  12.587  12.744   9.794
  341SOL    HW1 2797  12.500  12.763   9.758
  341SOL    HW2 2798  12.569  12.686   9.868
  342SOL     OW 2799   7.438   5.431  11.119
  342SOL    HW1 2800   7.407   5.423  11.210
  342SOL    HW2 2801   7.503   5.361  11.110
  343SOL     OW 2802   4.189   1.786   5.922
  343SOL    HW1 2803   4.261   1.741   5.966
  343SOL    HW2 2804   4.160   1.724   5.855
  344SOL     OW 2805  13.400   5.884   9.696
  344SOL    HW1 2806  13.444   5.968   9.686
  344SOL    HW2 2807  13.362   5.887   9.784
  345SOL     OW 2808   4.363   1.357   5.584
  345SOL    HW1 2809   4.345   1.385   5.673
  345SOL    HW2 2810   4.297   1.401   5.531
  346SOL     OW 2811   3.413   2.046   0.125
  346SOL    HW1 2812   3.388   2.002   0.044
  346SOL    HW2 2813   3.492   2.095   0.102
  347SOL     OW 2814   7.852  12.957   6.160
  347SOL    HW1 2815   7.787  12.941   6.228
  347SOL    HW2 2816   7.851  13.052   6.147
  348SOL     OW 2817   3.973   7.220   6.675
  348SOL    HW1 2818   4.057   7.201   6.634
  348SOL    HW2 2819   3.989   7.208   6.769
  349SOL     OW 2820   9.875   3.985   8.608
  349SOL    HW1 2821   9.896   3.988   8.701
  349SOL    HW2 2822   9.850   4.075   8.586
  350SOL     OW 2823   7.458   9.539   2.498
  350SOL    HW1 2824   7.480   9.517   2.407
  350SOL    HW2 2825   7.542   9.549   2.542
  351SOL     OW 2826   4.961  14.056  12.421
  351SOL    HW1 2827   4.935  14.037  12.511
  351SOL    HW2 2828   4.995  14.146  12.424
  352SOL     OW 2829   5.975   2.090  11.822
  352SOL    HW1 2830   5.954   2.017  11.763
  352SOL    HW2 2831   5.892   2.114  11.862
  353SOL     OW 2832   5.458   4.179   4.080
  353SOL    HW1 2833   5.426   4.269   4.086
  353SOL    HW2 2834   5.381   4.129   4.051
  354SOL     OW 2835   5.937   7.257  13.071
  354SOL    HW1 2836   6.000   7.293  13.133
  354SOL    HW2 2837   5.887   7.332  13.040
  355SOL     OW 2838   4.096   5.458  13.461
  355SOL    HW1 2839   4.117   5.544  13.425
  355SOL    HW2 2840   4.168   5.402  13.434
  356SOL     OW 2841   3.147   6.046   4.626
  356SOL    HW1 2842   3.084   6.094   4.680
  356SOL    HW2 2843   3.121   5.954   4.635
  357SOL     OW 2844   8.838   7.444   2.778
  357SOL    HW1 2845   8.808   7.398   2.700
  357SOL    HW2 2846   8.809   7.389   2.851
  358SOL     OW 2847   3.128   7.300   2.647
  358SOL    HW1 2848   3.070   7.364   2.606
  358SOL    HW2 2849   3.175   7.259   2.574
  359SOL     OW 2850  14.032   4.676  13.619
  359SOL    HW1 2851  14.124   4.699  13.624
  359SOL    HW2 2852  14.031   4.580  13.614
  360SOL     OW 2853  10.178   7.089   2.783
  360SOL    HW1 2854  10.173   7.177   2.819
  360SOL    HW2 2855  10.096   7.079   2.733
  361SOL     OW 2856   0.008  11.908  14.047
  361SOL    HW1 2857  14.814  11.923  14.110
  361SOL    HW2 2858  14.842  11.889  13.965
  362SOL     OW 2859   5.951   8.065   7.037
  362SOL    HW1 2860   5.923   8.065   7.129
  362SOL    HW2 2861   6.035   8.020   7.037
  363SOL     OW 2862  12.372   4.685   9.301
  363SOL    HW1 2863  12.447   4.729   9.341
  363SOL    HW2 2864  12.392   4.592   9.310
  364SOL     OW 2865  14.611   6.026  14.227
  364SOL    HW1 2866  14.610   5.949  14.171
  364SOL    HW2 2867  14.574   5.996  14.310
  365SOL     OW 2868   4.494   7.683  13.214
  365SOL    HW1 2869   4.466   7.596  13.244
  365SOL    HW2 2870   4.446   7.696  13.132
  366SOL     OW 2871  13.562  10.954   9.983
  366SOL    HW1 2872  13.580  10.905   9.903
  366SOL    HW2 2873  13.626  10.920  10.046
  367SOL     OW 2874   7.357   4.370   3.947
  367SOL    HW1 2875   7.388   4.345   3.859
  367SOL    HW2 2876   7.438   4.387   3.996
  368SOL     OW 2877   7.291   1.029   4.783
  368SOL    HW1 2878   7.265   1.081   4.708
  368SOL    HW2 2879   7.281   0.938   4.754
  369SOL     OW 2880   8.457   7.737   8.051
  369SOL    HW1 2881   8.373   7.721   8.094
  369SOL    HW2 2882   8.512   7.778   8.119
  370SOL     OW 2883   9.191   3.388   9.001
  370SOL    HW1 2884   9.209   3.390   9.095
  370SOL    HW2 2885   9.187   3.480   8.975
  371SOL     OW 2886   3.270  13.762   9.062
  371SOL    HW1 2887   3.269  13.673   9.027
  371SOL    HW2 2888   3.183  13.774   9.102
  372SOL     OW 2889  10.872  14.065  10.450
  372SOL    HW1 2890  10.832  14.069  10.363
  372SOL    HW2 2891  10.836  13.985  10.489
  373SOL     OW 2892   1.784   1.850   1.039
  373SOL    HW1 2893   1.725   1.920   1.066
  373SOL    HW2 2894   1.836   1.888   0.968
  374SOL     OW 2895   6.559   5.163   3.181
  374SOL    HW1 2896   6.643   5.137   3.142
  374SOL    HW2 2897   6.569   5.142   3.274
  375SOL     OW 2898   7.348   9.779   8.222
  375SOL    HW1 2899   7.274   9.791   8.281
  375SOL    HW2 2900   7.400   9.709   8.263
  376SOL     OW 2901  11.608  12.541  12.783
  376SOL    HW1 2902  11.528  12.503  12.746
  376SOL    HW2 2903  11.612  12.630  12.747
  377SOL     OW 2904   3.107   8.102   6.035
  377SOL    HW1 2905   3.175   8.036   6.023
  377SOL    HW2 2906   3.050   8.065   6.103
  378SOL     OW 2907  14.269   5.636   3.187
  378SOL    HW1 2908  14.256   5.731   3.187
  378SOL    HW2 2909  14.274   5.612   3.279
  379SOL     OW 2910   6.156  12.498   4.758
  379SOL    HW1 2911   6.158  12.409   4.791
  379SOL    HW2 2912   6.247  12.516   4.732
  380SOL     OW 2913   3.678   8.763  12.374
  380SOL    HW1 2914   3.654   8.809  12.294
  380SOL    HW2 2915   3.710   8.678  12.344
  381SOL     OW 2916   7.420   9.083   4.027
  381SOL    HW1 2917   7.488   9.074   4.093
  381SOL    HW2 2918   7.369   9.002   4.032
  382SOL     OW 2919  14.622   8.649   9.974
  382SOL    HW1 2920  14.695   8.587   9.975
  382SOL    HW2 2921  14.613   8.677  10.065
  383SOL     OW 2922   7.150   2.057  14.687
  383SOL    HW1 2923   7.182   2.036  14.599
  383SOL    HW2 2924   7.055   2.065  14.676
  384SOL     OW 2925   1.028   6.171   5.544
  384SOL    HW1 2926   1.099   6.235   5.538
  384SOL    HW2 2927   0.949   6.223   5.558
  385SOL     OW 2928   7.188  10.903   3.808
  385SOL    HW1 2929   7.233  10.833   3.761
  385SOL    HW2 2930   7.151  10.958   3.739
  386SOL     OW 2931   3.632   4.262   4.462
  386SOL    HW1 2932   3.573   4.279   4.536
  386SOL    HW2 2933   3.647   4.167   4.466
  387SOL     OW 2934   5.090   6.944  13.047
  387SOL    HW1 2935   5.140   6.905  12.976
  387SOL    HW2 2936   5.136   7.026  13.067
  388SOL     OW 2937   4.615   6.522   9.708
  388SOL    HW1 2938   4.568   6.544   9.627
  388SOL    HW2 2939   4.691   6.471   9.679
  389SOL     OW 2940   0.159   7.593   9.374
  389SOL    HW1 2941   0.075   7.611   9.415
  389SOL    HW2 2942   0.191   7.514   9.417
  390SOL     OW 2943   1.254   9.639  14.024
  390SOL    HW1 2944   1.264   9.731  13.999
  390SOL    HW2 2945   1.302   9.632  14.106
  391SOL     OW 2946   6.514   2.514  10.337
  391SOL    HW1 2947   6.433   2.552  10.302
  391SOL    HW2 2948   6.486   2.437  10.386
  392SOL     OW 2949   7.448  12.498   7.367
  392SOL    HW1 2950   7.366  12.450   7.355
  392SOL    HW2 2951   7.478  12.472   7.454
  393SOL     OW 2952  14.702   0.642   7.989
  393SOL    HW1 2953  14.629   0.587   7.960
  393SOL    HW2 2954  14.709   0.710   7.923
  394SOL     OW 2955  12.033  11.161   1.019
  394SOL    HW1 2956  11.957  11.186   0.965
  394SOL    HW2 2957  12.063  11.243   1.056
  395SOL     OW 2958   6.771  14.744   3.172
  395SOL    HW1 2959   6.836  14.696   3.122
  395SOL    HW2 2960   6.714  14.784   3.107
  396SOL     OW 2961  10.411   5.430  14.341
  396SOL    HW1 2962  10.452   5.492  14.402
  396SOL    HW2 2963  10.411   5.476  14.257
  397SOL     OW 2964   6.946   6.024  10.103
  397SOL    HW1 2965   7.010   6.045  10.172
  397SOL    HW2 2966   7.000   5.993  10.030
  398SOL     OW 2967   7.092  11.544   8.120
  398SOL    HW1 2968   7.106  11.467   8.065
  398SOL    HW2 2969   7.025  11.517   8.183
  399SOL     OW 2970  12.806   0.086  11.292
  399SOL    HW1 2971  12.747   0.037  11.350
  399SOL    HW2 2972  12.890   0.041  11.300
  400SOL     OW 2973   2.687   1.007  12.772
  400SOL    HW1 2974   2.593   1.023  12.781
  400SOL    HW2 2975   2.697   0.975  12.682
  401SOL     OW 2976   7.407   6.209   0.203
  401SOL    HW1 2977   7.477   6.273   0.213
  401SOL    HW2 2978   7.358   6.239   0.126
  402SOL     OW 2979   7.184   7.546  12.519
  402SOL    HW1 2980   7.254   7.498  12.476
  402SOL    HW2 2981   7.107   7.529  12.464
  403SOL     OW 2982   8.004   4.011   7.847
  403SOL    HW1 2983   7.927   4.057   7.878
  403SOL    HW2 2984   8.077   4.071   7.862
  404SOL     OW 2985   1.482   9.002  12.562
  404SOL    HW1 2986   1.428   8.934  12.602
  404SOL    HW2 2987   1.419   9.069  12.534
  405SOL     OW 2988  12.652   5.030  12.794
  405SOL    HW1 2989  12.627   5.027  12.886
  405SOL    HW2 2990  12.594   5.095  12.755
  406SOL     OW 2991   5.806   4.419   6.953
  406SOL    HW1 2992   5.894   4.449   6.929
  406SOL    HW2 2993   5.776   4.368   6.878
  407SOL     OW 2994   0.017   0.017   0.123
  407SOL    HW1 2995  14.803  14.868   0.124
  407SOL    HW2 2996   0.055  14.849   0.047
  408SOL     OW 2997  14.336   8.895  10.758
  408SOL    HW1 2998  14.410   8.860  10.708
  408SOL    HW2 2999  14.376   8.939  10.833
  409SOL     OW 3000   1.510  12.875   0.404
  409SOL    HW1 3001   1.586  12.821   0.384
  409SOL    HW2 3002   1.455  12.871   0.326
  410SOL     OW 3003   7.772   0.294   1.061
  410SOL    HW1 3004   7.758   0.313   1.153
  410SOL    HW2 3005   7.781   0.199   1.057
  411SOL     OW 3006  11.833   4.424   6.317
  411SOL    HW1 3007  11.755   4.415   6.372
  411SOL    HW2 3008  11.829   4.513   6.284
  412SOL     OW 3009   7.321   2.868   5.315
  412SOL    HW1 3010   7.342   2.863   5.408
  412SOL    HW2 3011   7.329   2.961   5.293
  413SOL     OW 3012  12.652  10.237   4.861
  413SOL    HW1 3013  12.655  10.322   4.817
  413SOL    HW2 3014  12.743  10.219   4.885
  414SOL     OW 3015   1.629  10.649  14.550
  414SOL    HW1 3016   1.667  10.634  14.636
  414SOL    HW2 3017   1.579  10.569  14.531
  415SOL     OW 3018   2.848   2.839  12.840
  415SOL    HW1 3019   2.926   2.805  12.795
  415SOL    HW2 3020   2.879   2.916  12.887
  416SOL     OW 3021  10.115  11.286   2.477
  416SOL    HW1 3022  10.204  11.318   2.465
  416SOL    HW2 3023  10.126  11.201   2.521
  417SOL     OW 3024  12.425   2.018   6.302
  417SOL    HW1 3025  12.430   1.944   6.242
  417SOL    HW2 3026  12.367   2.081   6.258
  418SOL     OW 3027   4.516   8.486  11.827
  418SOL    HW1 3028   4.596   8.440  11.853
  418SOL    HW2 3029   4.517   8.567  11.879
  419SOL     OW 3030   0.224   4.610   5.738
  419SOL    HW1 3031   0.211   4.605   5.643
  419SOL    HW2 3032   0.226   4.704   5.756
  420SOL     OW 3033   9.464   8.853   5.521
  420SOL    HW1 3034   9.533   8.917   5.540
  420SOL    HW2 3035   9.453   8.857   5.426
  421SOL     OW 3036   5.045   7.917   3.715
  421SOL    HW1 3037   4.957   7.883   3.732
  421SOL    HW2 3038   5.094   7.842   3.681
  422SOL     OW 3039   1.364   6.619   2.194
  422SOL    HW1 3040   1.360   6.524   2.206
  422SOL    HW2 3041   1.358   6.631   2.100
  423SOL     OW 3042  10.428   6.631  12.762
  423SOL    HW1 3043  10.446   6.705  12.705
  423SOL    HW2 3044  10.345   6.595  12.729
  424SOL     OW 3045   7.172   1.842   2.934
  424SOL    HW1 3046   7.155   1.755   2.897
  424SOL    HW2 3047   7.246   1.828   2.993
  425SOL     OW 3048  12.368   8.737  13.568
  425SOL    HW1 3049  12.445   8.713  13.517
  425SOL    HW2 3050  12.382   8.696  13.653
  426SOL     OW 3051  12.844  13.056   0.641
  426SOL    HW1 3052  12.872  13.064   0.733
  426SOL    HW2 3053  12.812  12.966   0.635
  427SOL     OW 3054  10.511  10.435   6.253
  427SOL    HW1 3055  10.440  10.499   6.251
  427SOL    HW2 3056  10.483  10.366   6.192
  428SOL     OW 3057   4.538   0.502  10.122
  428SOL    HW1 3058   4.584   0.586  10.121
  428SOL    HW2 3059   4.608   0.437  10.133
  429SOL     OW 3060  14.345  10.307   1.014
  429SOL    HW1 3061  14.284  10.371   1.052
  429SOL    HW2 3062  14.430  10.331   1.050
  430SOL     OW 3063  10.553  10.555   1.776
  430SOL    HW1 3064  10.545  10.516   1.689
  430SOL    HW2 3065  10.486  10.511   1.828
  431SOL     OW 3066  13.011   7.265   3.131
  431SOL    HW1 3067  13.101   7.279   3.160
  431SOL    HW2 3068  13.011   7.178   3.092
  432SOL     OW 3069  12.958  12.190  11.353
  432SOL    HW1 3070  13.008  12.121  11.395
  432SOL    HW2 3071  12.915  12.147  11.279
  433SOL     OW 3072   0.902  12.985   7.903
  433SOL    HW1 3073   0.949  13.018   7.827
  433SOL    HW2 3074   0.930  12.893   7.910
  434SOL     OW 3075   0.398   3.319  11.212
  434SOL    HW1 3076   0.353   3.323  11.297
  434SOL    HW2 3077   0.489   3.339  11.232
  435SOL     OW 3078  10.069   3.744   2.230
  435SOL    HW1 3079  10.033   3.656   2.219
  435SOL    HW2 3080  10.162   3.734   2.209
  436SOL     OW 3081  11.749   5.785   8.593
  436SOL    HW1 3082  11.701   5.781   8.510
  436SOL    HW2 3083  11.714   5.711   8.644
  437SOL     OW 3084  11.507  13.972   5.799
  437SOL    HW1 3085  11.493  13.941   5.709
  437SOL    HW2 3086  11.551  13.899   5.842
  438SOL     OW 3087  11.465   5.275  12.477
  438SOL    HW1 3088  11.408   5.343  12.443
  438SOL    HW2 3089  11.412   5.195  12.472
  439SOL     OW 3090   1.377  11.536  11.870
  439SOL    HW1 3091   1.327  11.458  11.847
  439SOL    HW2 3092   1.334  11.607  11.824
  440SOL     OW 3093   0.681   9.055   6.676
  440SOL    HW1 3094   0.692   9.031   6.584
  440SOL    HW2 3095   0.624   8.987   6.711
  441SOL     OW 3096   8.028   3.557   3.568
  441SOL    HW1 3097   7.935   3.534   3.571
  441SOL    HW2 3098   8.031   3.648   3.598
  442SOL     OW 3099   9.693   6.722   2.119
  442SOL    HW1 3100   9.679   6.723   2.213
  442SOL    HW2 3101   9.776   6.676   2.107
  443SOL     OW 3102   8.766   5.645   1.431
  443SOL    HW1 3103   8.859   5.661   1.447
  443SOL    HW2 3104   8.757   5.648   1.335
  444SOL     OW 3105   5.053  10.201   3.786
  444SOL    HW1 3106   5.052  10.238   3.874
  444SOL    HW2 3107   4.963  10.172   3.771
  445SOL     OW 3108   0.511   0.810  13.776
  445SOL    HW1 3109   0.569   0.830  13.849
  445SOL    HW2 3110   0.505   0.714  13.776
  446SOL     OW 3111  12.994   5.899   3.645
  446SOL    HW1 3112  13.041   5.835   3.591
  446SOL    HW2 3113  13.022   5.984   3.610
  447SOL     OW 3114   9.943   5.467  10.706
  447SOL    HW1 3115   9.958   5.446  10.614
  447SOL    HW2 3116   9.937   5.562  10.709
  448SOL     OW 3117   6.402   5.003   8.423
  448SOL    HW1 3118   6.309   4.980   8.418
  448SOL    HW2 3119   6.416   5.062   8.349
  449SOL     OW 3120   1.451  10.262  14.767
  449SOL    HW1 3121   1.451  10.172  14.732
  449SOL    HW2 3122   1.505  10.311  14.706
  450SOL     OW 3123   7.784   2.548   2.747
  450SOL    HW1 3124   7.715   2.482   2.746
  450SOL    HW2 3125   7.793   2.573   2.655
  451SOL     OW 3126  10.217   9.628  14.236
  451SOL    HW1 3127  10.140   9.685  14.240
  451SOL    HW2 3128  10.189   9.555  14.181
  452SOL     OW 3129   8.538   8.809   6.441
  452SOL    HW1 3130   8.466   8.811   6.378
  452SOL    HW2 3131   8.546   8.717   6.466
  453SOL     OW 3132   0.021   9.657  14.731
  453SOL    HW1 3133   0.004   9.712  14.807
  453SOL    HW2 3134  14.829   9.591  14.733
  454SOL     OW 3135   8.990  10.241   3.973
  454SOL    HW1 3136   9.049  10.263   4.045
  454SOL    HW2 3137   8.939  10.167   4.007
  455SOL     OW 3138   8.611   3.503   9.188
  455SOL    HW1 3139   8.638   3.506   9.097
  455SOL    HW2 3140   8.694   3.497   9.237
  456SOL     OW 3141   8.572   2.425  13.310
  456SOL    HW1 3142   8.536   2.466  13.388
  456SOL    HW2 3143   8.504   2.435  13.243
  457SOL     OW 3144  13.159   6.479  12.704
  457SOL    HW1 3145  13.163   6.412  12.772
  457SOL    HW2 3146  13.149   6.430  12.623
  458SOL     OW 3147  11.308   9.829   6.358
  458SOL    HW1 3148  11.261   9.785   6.429
  458SOL    HW2 3149  11.390   9.858   6.398
  459SOL     OW 3150   2.027   6.651  12.928
  459SOL    HW1 3151   2.005   6.562  12.955
  459SOL    HW2 3152   1.944   6.699  12.932
  460SOL     OW 3153   9.734   9.225   5.905
  460SOL    HW1 3154   9.678   9.197   5.833
  460SOL    HW2 3155   9.814   9.258   5.862
  461SOL     OW 3156   9.444   4.308  13.238
  461SOL    HW1 3157   9.480   4.355  13.314
  461SOL    HW2 3158   9.374   4.254  13.274
  462SOL     OW 3159   9.491  12.030   4.591
  462SOL    HW1 3160   9.539  11.980   4.657
  462SOL    HW2 3161   9.556  12.089   4.554
  463SOL     OW 3162  10.013   6.604   3.792
  463SOL    HW1 3163  10.075   6.599   3.864
  463SOL    HW2 3164   9.946   6.666   3.822
  464SOL     OW 3165  11.649   2.815  10.454
  464SOL    HW1 3166  11.608   2.892  10.415
  464SOL    HW2 3167  11.667   2.840  10.544
  465SOL     OW 3168  12.377  13.676  10.679
  465SOL    HW1 3169  12.446  13.652  10.617
  465SOL    HW2 3170  12.299  13.630  10.647
  466SOL     OW 3171   3.247   4.023   8.754
  466SOL    HW1 3172   3.166   4.040   8.707
  466SOL    HW2 3173   3.283   3.945   8.712
  467SOL     OW 3174   5.010   5.788   5.211
  467SOL    HW1 3175   5.026   5.707   5.259
  467SOL    HW2 3176   5.084   5.844   5.233
  468SOL     OW 3177   8.596  14.026   2.390
  468SOL    HW1 3178   8.630  13.954   2.444
  468SOL    HW2 3179   8.673  14.080   2.372
  469SOL     OW 3180  10.561   2.922  13.203
  469SOL    HW1 3181  10.653   2.896  13.205
  469SOL    HW2 3182  10.517   2.855  13.257
  470SOL     OW 3183   6.989  10.633   0.076
  470SOL    HW1 3184   6.989  10.585   0.159
  470SOL    HW2 3185   7.069  10.686   0.079
  471SOL     OW 3186   1.941   6.545  10.016
  471SOL    HW1 3187   1.953   6.630   9.974
  471SOL    HW2 3188   1.846   6.537  10.027
  472SOL     OW 3189  11.041   8.839   7.661
  472SOL    HW1 3190  11.038   8.743   7.661
  472SOL    HW2 3191  11.024   8.863   7.753
  473SOL     OW 3192   6.323   7.522   7.899
  473SOL    HW1 3193   6.404   7.496   7.942
  473SOL    HW2 3194   6.348   7.536   7.807
  474SOL     OW 3195   9.158   1.279   2.186
  474SOL    HW1 3196   9.080   1.286   2.130
  474SOL    HW2 3197   9.225   1.241   2.128
  475SOL     OW 3198  10.993  11.701   1.796
  475SOL    HW1 3199  10.956  11.677   1.880
  475SOL    HW2 3200  11.051  11.628   1.774
  476SOL     OW 3201  13.838  10.830   3.133
  476SOL    HW1 3202  13.912  10.812   3.074
  476SOL    HW2 3203  13.829  10.925   3.131
  477SOL     OW 3204   0.525   0.147   3.849
  477SOL    HW1 3205   0.594   0.162   3.913
  477SOL    HW2 3206   0.506   0.234   3.813
  478SOL     OW 3207  10.315  14.449   0.574
  478SOL    HW1 3208  10.291  14.504   0.649
  478SOL    HW2 3209  10.233  14.406   0.548
  479SOL     OW 3210   3.262  13.884   9.400
  479SOL    HW1 3211   3.263  13.937   9.479
  479SOL    HW2 3212   3.183  13.911   9.353
  480SOL     OW 3213   8.560  13.336   8.085
  480SOL    HW1 3214   8.468  13.321   8.063
  480SOL    HW2 3215   8.604  13.255   8.062
  481SOL     OW 3216   4.840   0.949   7.513
  481SOL    HW1 3217   4.850   1.037   7.551
  481SOL    HW2 3218   4.877   0.958   7.424
  482SOL     OW 3219   9.969  10.169   6.169
  482SOL    HW1 3220   9.952  10.076   6.153
  482SOL    HW2 3221   9.906  10.214   6.112
  483SOL     OW 3222   8.533  10.851   0.817
  483SOL    HW1 3223   8.475  10.808   0.880
  483SOL    HW2 3224   8.477  10.916   0.774
  484SOL     OW 3225   8.824   7.812   5.616
  484SOL    HW1 3226   8.790   7.881   5.672
  484SOL    HW2 3227   8.865   7.750   5.677
  485SOL     OW 3228  13.462   2.011   1.430
  485SOL    HW1 3229  13.399   2.003   1.358
  485SOL    HW2 3230  13.548   2.008   1.387
  486SOL     OW 3231   5.679   3.634   5.765
  486SOL    HW1 3232   5.626   3.555   5.753
  486SOL    HW2 3233   5.652   3.692   5.694
  487SOL     OW 3234   6.100   1.776   5.517
  487SOL    HW1 3235   6.178   1.779   5.573
  487SOL    HW2 3236   6.134   1.756   5.430
  488SOL     OW 3237   7.455   3.728   6.064
  488SOL    HW1 3238   7.495   3.723   6.151
  488SOL    HW2 3239   7.362   3.712   6.080
  489SOL     OW 3240   0.828   6.174   3.634
  489SOL    HW1 3241   0.829   6.248   3.574
  489SOL    HW2 3242   0.919   6.144   3.639
  490SOL     OW 3243  10.821   5.461   4.634
  490SOL    HW1 3244  10.797   5.553   4.641
  490SOL    HW2 3245  10.878   5.457   4.557
  491SOL     OW 3246   4.379   2.527  10.501
  491SOL    HW1 3247   4.450   2.556  10.558
  491SOL    HW2 3248   4.405   2.555  10.413
  492SOL     OW 3249   0.397   1.929  14.117
  492SOL    HW1 3250   0.396   1.889  14.030
  492SOL    HW2 3251   0.362   2.018  14.103
  493SOL     OW 3252   2.528   4.937   0.747
  493SOL    HW1 3253   2.481   4.895   0.675
  493SOL    HW2 3254   2.615   4.897   0.746
  494SOL     OW 3255   5.730   4.121  12.594
  494SOL    HW1 3256   5.768   4.208  12.601
  494SOL    HW2 3257   5.800   4.067  12.557
  495SOL     OW 3258  11.124  14.479   2.463
  495SOL    HW1 3259  11.067  14.556   2.463
  495SOL    HW2 3260  11.065  14.406   2.443
  496SOL     OW 3261   9.268   7.801   2.189
  496SOL    HW1 3262   9.199   7.867   2.182
  496SOL    HW2 3263   9.221   7.720   2.212
  497SOL     OW 3264   8.583   7.474   3.284
  497SOL    HW1 3265   8.543   7.479   3.198
  497SOL    HW2 3266   8.577   7.563   3.319
  498SOL     OW 3267   6.177   5.651   2.951
  498SOL    HW1 3268   6.236   5.708   3.001
  498SOL    HW2 3269   6.221   5.639   2.867
  499SOL     OW 3270   4.255   5.821   8.472
  499SOL    HW1 3271   4.324   5.853   8.413
  499SOL    HW2 3272   4.174   5.836   8.423
  500SOL     OW 3273   2.923  14.328   3.604
  500SOL    HW1 3274   2.866  14.404   3.618
  500SOL    HW2 3275   2.868  14.253   3.627
  501SOL     OW 3276  10.483   6.010   8.246
  501SOL    HW1 3277  10.569   5.977   8.273
  501SOL    HW2 3278  10.500   6.101   8.220
  502SOL     OW 3279   6.941  12.649   7.002
  502SOL    HW1 3280   6.872  12.685   6.946
  502SOL    HW2 3281   6.900  12.574   7.046
  503SOL     OW 3282  11.630   5.264   9.545
  503SOL    HW1 3283  11.720   5.297   9.546
  503SOL    HW2 3284  11.581   5.332   9.499
  504SOL     OW 3285   0.428   5.305   1.625
  504SOL    HW1 3286   0.361   5.239   1.610
  504SOL    HW2 3287   0.381   5.389   1.625
  505SOL     OW 3288   0.128  11.805   0.310
  505SOL    HW1 3289   0.196  11.865   0.280
  505SOL    HW2 3290   0.070  11.859   0.365
  506SOL     OW 3291   3.852  10.821   3.311
  506SOL    HW1 3292   3.827  10.732   3.289
  506SOL    HW2 3293   3.940  10.831   3.275
  507SOL     OW 3294   6.222   7.301   8.423
  507SOL    HW1 3295   6.178   7.385   8.440
  507SOL    HW2 3296   6.153   7.235   8.435
  508SOL     OW 3297  10.872   2.117   1.665
  508SOL    HW1 3298  10.845   2.060   1.737
  508SOL    HW2 3299  10.790   2.142   1.622
  509SOL     OW 3300   1.731   5.599   2.866
  509SOL    HW1 3301   1.750   5.584   2.773
  509SOL    HW2 3302   1.694   5.688   2.868
  510SOL     OW 3303   7.551  14.270   3.067
  510SOL    HW1 3304   7.609  14.283   3.142
  510SOL    HW2 3305   7.574  14.340   3.006
  511SOL     OW 3306   8.410   9.800   1.824
  511SOL    HW1 3307   8.461   9.748   1.762
  511SOL    HW2 3308   8.374   9.871   1.772
  512SOL     OW 3309   3.200   4.514   3.114
  512SOL    HW1 3310   3.192   4.470   3.029
  512SOL    HW2 3311   3.110   4.517   3.147
  513SOL     OW 3312  13.956  11.021  11.920
  513SOL    HW1 3313  13.941  10.994  12.010
  513SOL    HW2 3314  13.975  11.114  11.925
  514SOL     OW 3315   5.225   4.208   8.453
  514SOL    HW1 3316   5.186   4.256   8.381
  514SOL    HW2 3317   5.312   4.182   8.421
  515SOL     OW 3318  13.750  10.158   7.393
  515SOL    HW1 3319  13.830  10.157   7.341
  515SOL    HW2 3320  13.741  10.069   7.425
  516SOL     OW 3321  10.048   9.781   7.147
  516SOL    HW1 3322  10.089   9.707   7.104
  516SOL    HW2 3323   9.958   9.782   7.113
  517SOL     OW 3324  10.805   6.298   0.584
  517SOL    HW1 3325  10.797   6.230   0.651
  517SOL    HW2 3326  10.831   6.251   0.505
  518SOL     OW 3327   1.505  12.119   3.550
  518SOL    HW1 3328   1.582  12.065   3.532
  518SOL    HW2 3329   1.468  12.082   3.630
  519SOL     OW 3330  10.733   4.068  11.044
  519SOL    HW1 3331  10.780   4.043  10.964
  519SOL    HW2 3332  10.784   4.030  11.115
  520SOL     OW 3333   2.258   3.098   8.788
  520SOL    HW1 3334   2.305   3.180   8.804
  520SOL    HW2 3335   2.229   3.105   8.697
  521SOL     OW 3336  11.819   6.405   2.238
  521SOL    HW1 3337  11.749   6.448   2.288
  521SOL    HW2 3338  11.888   6.389   2.302
  522SOL     OW 3339  13.414   8.280  11.438
  522SOL    HW1 3340  13.345   8.252  11.499
  522SOL    HW2 3341  13.372   8.280  11.352
  523SOL     OW 3342   0.659   7.461  10.261
  523SOL    HW1 3343   0.646   7.552  10.287
  523SOL    HW2 3344   0.570   7.425  10.257
  524SOL     OW 3345  11.418  12.492   0.002
  524SOL    HW1 3346  11.423  12.548  14.802
  524SOL    HW2 3347  11.473  12.416  14.858
  525SOL     OW 3348   4.713   3.526   8.798
  525SOL    HW1 3349   4.772   3.521   8.723
  525SOL    HW2 3350   4.688   3.618   8.803
  526SOL     OW 3351   2.756   8.094   3.445
  526SOL    HW1 3352   2.848   8.087   3.420
  526SOL    HW2 3353   2.756   8.150   3.522
  527SOL     OW 3354  12.066  11.943  12.858
  527SOL    HW1 3355  12.131  12.010  12.838
  527SOL    HW2 3356  12.021  11.975  12.936
  528SOL     OW 3357   3.488  11.037  11.851
  528SOL    HW1 3358   3.474  10.944  11.833
  528SOL    HW2 3359   3.461  11.082  11.771
  529SOL     OW 3360  12.497   9.039   2.472
  529SOL    HW1 3361  12.580   9.001   2.497
  529SOL    HW2 3362  12.434   8.967   2.478
  530SOL     OW 3363   8.989   2.662   7.639
  530SOL    HW1 3364   8.977   2.750   7.675
  530SOL    HW2 3365   9.034   2.677   7.556
  531SOL     OW 3366  14.784  12.177  11.698
  531SOL    HW1 3367  14.777  12.202  11.790
  531SOL    HW2 3368  14.743  12.249  11.650
  532SOL     OW 3369   7.483   2.963   2.936
  532SOL    HW1 3370   7.494   2.879   2.981
  532SOL    HW2 3371   7.390   2.983   2.944
  533SOL     OW 3372  14.310  11.025  13.071
  533SOL    HW1 3373  14.295  11.016  12.976
  533SOL    HW2 3374  14.392  11.074  13.077
  534SOL     OW 3375   9.621   6.727  10.077
  534SOL    HW1 3376   9.675   6.705  10.001
  534SOL    HW2 3377   9.532   6.733  10.042
  535SOL     OW 3378   4.008   7.415   6.341
  535SOL    HW1 3379   4.075   7.474   6.376
  535SOL    HW2 3380   3.925   7.461   6.357
  536SOL     OW 3381   5.831   4.511  12.094
  536SOL    HW1 3382   5.842   4.455  12.172
  536SOL    HW2 3383   5.854   4.599  12.124
  537SOL     OW 3384  11.372   7.256   2.853
  537SOL    HW1 3385  11.412   7.342   2.866
  537SOL    HW2 3386  11.445   7.195   2.856
  538SOL     OW 3387   9.993   8.971   6.290
  538SOL    HW1 3388  10.020   8.949   6.201
  538SOL    HW2 3389  10.070   8.954   6.344
  539SOL     OW 3390   1.243   4.264   3.363
  539SOL    HW1 3391   1.209   4.328   3.426
  539SOL    HW2 3392   1.305   4.211   3.414
  540SOL     OW 3393  13.415   4.774  11.885
  540SOL    HW1 3394  13.433   4.811  11.798
  540SOL    HW2 3395  13.323   4.748  11.881
  541SOL     OW 3396   6.926  13.534   6.751
  541SOL    HW1 3397   6.897  13.621   6.779
  541SOL    HW2 3398   6.845  13.486   6.734
  542SOL     OW 3399  10.025   0.364   3.765
  542SOL    HW1 3400   9.985   0.306   3.700
  542SOL    HW2 3401   9.962   0.366   3.837
  543SOL     OW 3402   8.387   6.095   1.522
  543SOL    HW1 3403   8.432   6.146   1.454
  543SOL    HW2 3404   8.344   6.024   1.473
  544SOL     OW 3405   0.963  12.110  12.116
  544SOL    HW1 3406   1.023  12.049  12.158
  544SOL    HW2 3407   0.895  12.055  12.078
  545SOL     OW 3408   7.344   2.042  13.263
  545SOL    HW1 3409   7.345   1.948  13.244
  545SOL    HW2 3410   7.346   2.084  13.177
  546SOL     OW 3411   1.462   6.159   8.257
  546SOL    HW1 3412   1.379   6.206   8.258
  546SOL    HW2 3413   1.501   6.181   8.172
  547SOL     OW 3414  13.235   3.996   3.302
  547SOL    HW1 3415  13.177   4.057   3.256
  547SOL    HW2 3416  13.228   3.915   3.253
  548SOL     OW 3417   7.869   7.825   7.791
  548SOL    HW1 3418   7.805   7.834   7.721
  548SOL    HW2 3419   7.898   7.914   7.810
  549SOL     OW 3420  13.091   8.219   2.893
  549SOL    HW1 3421  13.051   8.157   2.954
  549SOL    HW2 3422  13.183   8.193   2.890
  550SOL     OW 3423  10.298   1.409   8.595
  550SOL    HW1 3424  10.284   1.481   8.534
  550SOL    HW2 3425  10.377   1.366   8.564
  551SOL     OW 3426   8.425  12.155   9.459
  551SOL    HW1 3427   8.484  12.096   9.413
  551SOL    HW2 3428   8.461  12.243   9.444
  552SOL     OW 3429   7.078  12.915  12.702
  552SOL    HW1 3430   7.005  12.923  12.764
  552SOL    HW2 3431   7.120  13.001  12.704
  553SOL     OW 3432   4.049   1.094   4.457
  553SOL    HW1 3433   3.991   1.117   4.384
  553SOL    HW2 3434   4.137   1.105   4.421
  554SOL     OW 3435   7.237   8.403   9.232
  554SOL    HW1 3436   7.209   8.419   9.322
  554SOL    HW2 3437   7.331   8.422   9.231
  555SOL     OW 3438   5.562   3.913  12.665
  555SOL    HW1 3439   5.609   3.976  12.611
  555SOL    HW2 3440   5.474   3.949  12.674
  556SOL     OW 3441  14.541  11.214  10.917
  556SOL    HW1 3442  14.490  11.158  10.858
  556SOL    HW2 3443  14.475  11.265  10.964
  557SOL     OW 3444  14.793   9.272  10.926
  557SOL    HW1 3445  14.857   9.331  10.885
  557SOL    HW2 3446  14.754   9.325  10.996
  558SOL     OW 3447   8.257  12.850  11.358
  558SOL    HW1 3448   8.258  12.841  11.263
  558SOL    HW2 3449   8.164  12.856  11.380
  559SOL     OW 3450   2.859   6.499   9.955
  559SOL    HW1 3451   2.889   6.541   9.875
  559SOL    HW2 3452   2.767   6.476   9.938
  560SOL     OW 3453   8.961  10.355   9.947
  560SOL    HW1 3454   9.047  10.378   9.984
  560SOL    HW2 3455   8.950  10.263   9.969
  561SOL     OW 3456   1.753   9.423   8.132
  561SOL    HW1 3457   1.685   9.465   8.185
  561SOL    HW2 3458   1.831   9.476   8.149
  562SOL     OW 3459   4.246  14.706   6.365
  562SOL    HW1 3460   4.285  14.637   6.311
  562SOL    HW2 3461   4.229  14.664   6.449
  563SOL     OW 3462  12.432   9.208   1.643
  563SOL    HW1 3463  12.405   9.269   1.574
  563SOL    HW2 3464  12.487   9.261   1.701
  564SOL     OW 3465   3.893   4.529   8.883
  564SOL    HW1 3466   3.947   4.606   8.900
  564SOL    HW2 3467   3.880   4.530   8.788
  565SOL     OW 3468   7.570   8.250  11.134
  565SOL    HW1 3469   7.591   8.334  11.094
  565SOL    HW2 3470   7.476   8.239  11.119
  566SOL     OW 3471   7.936  12.141   9.392
  566SOL    HW1 3472   8.014  12.148   9.446
  566SOL    HW2 3473   7.962  12.179   9.308
  567SOL     OW 3474   3.713   1.518   1.935
  567SOL    HW1 3475   3.710   1.423   1.924
  567SOL    HW2 3476   3.787   1.547   1.882
  568SOL     OW 3477   8.256   6.951  11.053
  568SOL    HW1 3478   8.256   6.965  11.148
  568SOL    HW2 3479   8.236   7.037  11.017
  569SOL     OW 3480   0.652   4.745  12.522
  569SOL    HW1 3481   0.675   4.806  12.452
  569SOL    HW2 3482   0.556   4.742  12.521
  570SOL     OW 3483  10.526  11.964  11.870
  570SOL    HW1 3484  10.613  11.924  11.863
  570SOL    HW2 3485  10.543  12.058  11.869
  571SOL     OW 3486  11.612   8.624  13.275
  571SOL    HW1 3487  11.548   8.674  13.223
  571SOL    HW2 3488  11.646   8.688  13.338
  572SOL     OW 3489   9.528  10.137   0.129
  572SOL    HW1 3490   9.566  10.059   0.169
  572SOL    HW2 3491   9.455  10.104   0.076
  573SOL     OW 3492  14.068  11.420  13.485
  573SOL    HW1 3493  14.061  11.388  13.575
  573SOL    HW2 3494  14.018  11.356  13.433
  574SOL     OW 3495   7.239   9.725   4.985
  574SOL    HW1 3496   7.229   9.744   4.891
  574SOL    HW2 3497   7.152   9.740   5.021
  575SOL     OW 3498   9.827   6.908   0.154
  575SOL    HW1 3499   9.832   7.002   0.171
  575SOL    HW2 3500   9.771   6.901   0.076
  576SOL     OW 3501   1.418   9.350   3.755
  576SOL    HW1 3502   1.367   9.427   3.779
  576SOL    HW2 3503   1.479   9.338   3.827
  577SOL     OW 3504  14.320   4.155   4.406
  577SOL    HW1 3505  14.272   4.134   4.487
  577SOL    HW2 3506  14.389   4.215   4.433
  578SOL     OW 3507   8.001  11.843   6.785
  578SOL    HW1 3508   7.918  11.882   6.813
  578SOL    HW2 3509   8.022  11.886   6.703
  579SOL     OW 3510   1.250   2.749  14.226
  579SOL    HW1 3511   1.258   2.660  14.191
  579SOL    HW2 3512   1.328   2.761  14.281
  580SOL     OW 3513   3.208   7.109   9.971
  580SOL    HW1 3514   3.292   7.065   9.987
  580SOL    HW2 3515   3.195   7.103   9.876
  581SOL     OW 3516  12.073   2.974   9.390
  581SOL    HW1 3517  12.087   2.987   9.296
  581SOL    HW2 3518  12.153   3.009   9.430
  582SOL     OW 3519  10.162   1.524   9.240
  582SOL    HW1 3520  10.235   1.535   9.179
  582SOL    HW2 3521  10.116   1.608   9.239
  583SOL     OW 3522   1.266   1.813  12.082
  583SOL    HW1 3523   1.312   1.735  12.051
  583SOL    HW2 3524   1.296   1.883  12.024
  584SOL     OW 3525  14.748  13.305  10.441
  584SOL    HW1 3526  14.681  13.270  10.501
  584SOL    HW2 3527  14.830  13.296  10.489
  585SOL     OW 3528   8.756   7.800  14.259
  585SOL    HW1 3529   8.804   7.731  14.303
  585SOL    HW2 3530   8.821   7.868  14.242
  586SOL     OW 3531   5.128   5.171  14.298
  586SOL    HW1 3532   5.115   5.264  14.282
  586SOL    HW2 3533   5.108   5.130  14.214
  587SOL     OW 3534  14.056   1.181  10.667
  587SOL    HW1 3535  14.086   1.124  10.737
  587SOL    HW2 3536  13.963   1.160  10.658
  588SOL     OW 3537  11.275   6.176  12.007
  588SOL    HW1 3538  11.185   6.173  11.975
  588SOL    HW2 3539  11.322   6.111  11.953
  589SOL     OW 3540  13.710  13.950   6.660
  589SOL    HW1 3541  13.764  13.876   6.689
  589SOL    HW2 3542  13.681  13.925   6.572
  590SOL     OW 3543   5.127   0.854   5.613
  590SOL    HW1 3544   5.214   0.813   5.615
  590SOL    HW2 3545   5.122   0.894   5.527
  591SOL     OW 3546  10.884   7.107  12.740
  591SOL    HW1 3547  10.894   7.184  12.797
  591SOL    HW2 3548  10.846   7.141  12.659
  592SOL     OW 3549  14.822   8.179   5.166
  592SOL    HW1 3550   0.027   8.210   5.203
  592SOL    HW2 3551  14.802   8.098   5.214
  593SOL     OW 3552   0.268  10.336   4.876
  593SOL    HW1 3553   0.177  10.336   4.846
  593SOL    HW2 3554   0.261  10.337   4.972
  594SOL     OW 3555  11.581  12.307   7.299
  594SOL    HW1 3556  11.663  12.355   7.289
  594SOL    HW2 3557  11.520  12.352   7.241
  595SOL     OW 3558   5.229   2.905   4.168
  595SOL    HW1 3559   5.294   2.836   4.164
  595SOL    HW2 3560   5.224   2.939   4.078
  596SOL     OW 3561  12.238  12.229  10.484
  596SOL    HW1 3562  12.170  12.162  10.492
  596SOL    HW2 3563  12.195  12.302  10.441
  597SOL     OW 3564  10.452  14.695   7.415
  597SOL    HW1 3565  10.508  14.750   7.360
  597SOL    HW2 3566  10.511  14.652   7.476
  598SOL     OW 3567   1.725   1.740  13.443
  598SOL    HW1 3568   1.760   1.817  13.488
  598SOL    HW2 3569   1.650   1.773  13.393
  599SOL     OW 3570   9.761  10.765  12.923
  599SOL    HW1 3571   9.756  10.725  13.010
  599SOL    HW2 3572   9.671  10.791  12.903
  600SOL     OW 3573   0.617  10.861  10.078
  600SOL    HW1 3574   0.635  10.846   9.985
  600SOL    HW2 3575   0.678  10.931  10.103
  601SOL     OW 3576   6.311   8.343   9.957
  601SOL    HW1 3577   6.320   8.389   9.874
  601SOL    HW2 3578   6.244   8.392  10.005
  602SOL     OW 3579  13.320   8.580  11.275
  602SOL    HW1 3580  13.413   8.566  11.257
  602SOL    HW2 3581  13.276   8.506  11.234
  603SOL     OW 3582   5.475  12.208  11.168
  603SOL    HW1 3583   5.527  12.154  11.108
  603SOL    HW2 3584   5.412  12.147  11.206
  604SOL     OW 3585   7.879   1.679   7.855
  604SOL    HW1 3586   7.804   1.734   7.835
  604SOL    HW2 3587   7.921   1.721   7.931
  605SOL     OW 3588   9.413   5.220   3.256
  605SOL    HW1 3589   9.386   5.201   3.346
  605SOL    HW2 3590   9.435   5.135   3.219
  606SOL     OW 3591   3.716   7.231   1.554
  606SOL    HW1 3592   3.688   7.275   1.473
  606SOL    HW2 3593   3.672   7.146   1.552
  607SOL     OW 3594  12.416   4.892  12.601
  607SOL    HW1 3595  12.371   4.818  12.560
  607SOL    HW2 3596  12.508   4.867  12.604
  608SOL     OW 3597  13.166  13.250   9.260
  608SOL    HW1 3598  13.201  13.337   9.239
  608SOL    HW2 3599  13.240  13.202   9.296
  609SOL     OW 3600   7.808  13.985  11.810
  609SOL    HW1 3601   7.775  14.072  11.833
  609SOL    HW2 3602   7.730  13.935  11.786
  610SOL     OW 3603  10.770  13.623   0.826
  610SOL    HW1 3604  10.766  13.713   0.860
  610SOL    HW2 3605  10.688  13.612   0.778
  611SOL     OW 3606   4.596   7.473  11.984
  611SOL    HW1 3607   4.608   7.393  12.035
  611SOL    HW2 3608   4.588   7.443  11.893
  612SOL     OW 3609  14.574  13.166  14.024
  612SOL    HW1 3610  14.598  13.098  13.961
  612SOL    HW2 3611  14.486  13.142  14.053
  613SOL     OW 3612  13.264   3.365   6.756
  613SOL    HW1 3613  13.222   3.364   6.670
  613SOL    HW2 3614  13.352   3.398   6.739
  614SOL     OW 3615   6.469  13.633  13.266
  614SOL    HW1 3616   6.496  13.564  13.328
  614SOL    HW2 3617   6.390  13.598  13.225
  615SOL     OW 3618  13.812   8.934   7.381
  615SOL    HW1 3619  13.776   8.918   7.293
  615SOL    HW2 3620  13.823   8.846   7.418
  616SOL     OW 3621  14.829   4.436   8.736
  616SOL    HW1 3622  14.804   4.346   8.720
  616SOL    HW2 3623  14.785   4.487   8.668
  617SOL     OW 3624  11.945  13.957  11.830
  617SOL    HW1 3625  11.993  13.933  11.750
  617SOL    HW2 3626  11.864  13.906  11.825
  618SOL     OW 3627   3.582   2.245   9.790
  618SOL    HW1 3628   3.653   2.210   9.737
  618SOL    HW2 3629   3.555   2.324   9.745
  619SOL     OW 3630  10.980  11.960   6.545
  619SOL    HW1 3631  10.946  12.050   6.548
  619SOL    HW2 3632  10.984  11.939   6.452
  620SOL     OW 3633   4.426   1.573   5.040
  620SOL    HW1 3634   4.360   1.526   4.988
  620SOL    HW2 3635   4.476   1.623   4.975
  621SOL     OW 3636  13.441   8.540   3.624
  621SOL    HW1 3637  13.520   8.511   3.579
  621SOL    HW2 3638  13.472   8.600   3.692
  622SOL     OW 3639   9.537   2.484   8.455
  622SOL    HW1 3640   9.535   2.579   8.441
  622SOL    HW2 3641   9.447   2.456   8.438
  623SOL     OW 3642  11.847  13.802   3.223
  623SOL    HW1 3643  11.787  13.729   3.235
  623SOL    HW2 3644  11.835  13.828   3.131
  624SOL     OW 3645  12.871   3.006   1.250
  624SOL    HW1 3646  12.825   2.984   1.331
  624SOL    HW2 3647  12.819   3.077   1.212
  625SOL     OW 3648  12.938  11.716   8.997
  625SOL    HW1 3649  12.888  11.796   9.014
  625SOL    HW2 3650  12.891  11.673   8.926
  626SOL     OW 3651   3.461  11.692   7.289
  626SOL    HW1 3652   3.479  11.714   7.198
  626SOL    HW2 3653   3.530  11.736   7.338
  627SOL     OW 3654   3.132   1.834  10.797
  627SOL    HW1 3655   3.194   1.770  10.831
  627SOL    HW2 3656   3.160   1.849  10.706
  628SOL     OW 3657   9.352   2.700   4.805
  628SOL    HW1 3658   9.307   2.767   4.754
  628SOL    HW2 3659   9.441   2.735   4.817
  629SOL     OW 3660   7.851  13.193   1.912
  629SOL    HW1 3661   7.910  13.267   1.896
  629SOL    HW2 3662   7.900  13.136   1.971
  630SOL     OW 3663   6.955   8.792   1.017
  630SOL    HW1 3664   6.918   8.783   0.930
  630SOL    HW2 3665   6.998   8.708   1.034
  631SOL     OW 3666  10.773  10.821   3.733
  631SOL    HW1 3667  10.700  10.845   3.791
  631SOL    HW2 3668  10.849  10.815   3.791
  632SOL     OW 3669   9.757   3.499   9.351
  632SOL    HW1 3670   9.749   3.490   9.446
  632SOL    HW2 3671   9.668   3.482   9.318
  633SOL     OW 3672  13.952   6.359   5.721
  633SOL    HW1 3673  13.918   6.285   5.772
  633SOL    HW2 3674  13.882   6.424   5.723
  634SOL     OW 3675  10.284   2.869   5.602
  634SOL    HW1 3676  10.294   2.854   5.508
  634SOL    HW2 3677  10.373   2.863   5.636
  635SOL     OW 3678   7.578   1.820  14.181
  635SOL    HW1 3679   7.615   1.792  14.097
  635SOL    HW2 3680   7.531   1.900  14.160
  636SOL     OW 3681   5.835   7.918  13.980
  636SOL    HW1 3682   5.778   7.883  14.049
  636SOL    HW2 3683   5.924   7.898  14.009
  637SOL     OW 3684   8.357   5.797   7.804
  637SOL    HW1 3685   8.350   5.748   7.886
  637SOL    HW2 3686   8.359   5.730   7.736
  638SOL     OW 3687   9.314   0.405   5.340
  638SOL    HW1 3688   9.306   0.340   5.410
  638SOL    HW2 3689   9.337   0.354   5.262
  639SOL     OW 3690   1.466   1.628   2.729
  639SOL    HW1 3691   1.392   1.627   2.789
  639SOL    HW2 3692   1.543   1.625   2.785
  640SOL     OW 3693   0.882  13.247  14.212
  640SOL    HW1 3694   0.883  13.160  14.251
  640SOL    HW2 3695   0.866  13.307  14.285
  641SOL     OW 3696  12.802   5.088   2.967
  641SOL    HW1 3697  12.747   5.059   3.040
  641SOL    HW2 3698  12.814   5.182   2.982
  642SOL     OW 3699  11.189   0.177   3.973
  642SOL    HW1 3700  11.200   0.093   3.928
  642SOL    HW2 3701  11.094   0.189   3.978
  643SOL     OW 3702   1.437  13.075   9.011
  643SOL    HW1 3703   1.510  13.054   8.952
  643SOL    HW2 3704   1.359  13.049   8.962
  644SOL     OW 3705   2.845  11.449   1.677
  644SOL    HW1 3706   2.803  11.448   1.763
  644SOL    HW2 3707   2.784  11.401   1.621
  645SOL     OW 3708   1.541   3.263   3.906
  645SOL    HW1 3709   1.577   3.338   3.955
  645SOL    HW2 3710   1.578   3.272   3.818
  646SOL     OW 3711  12.803  14.834   9.494
  646SOL    HW1 3712  12.725  14.869   9.451
  646SOL    HW2 3713  12.770  14.796   9.576
  647SOL     OW 3714   8.586  11.486   9.151
  647SOL    HW1 3715   8.651  11.554   9.170
  647SOL    HW2 3716   8.624  11.436   9.079
  648SOL     OW 3717  12.510   9.730   2.139
  648SOL    HW1 3718  12.508   9.816   2.181
  648SOL    HW2 3719  12.420   9.699   2.144
  649SOL     OW 3720   9.766   7.991   3.904
  649SOL    HW1 3721   9.759   8.086   3.896
  649SOL    HW2 3722   9.828   7.977   3.975
  650SOL     OW 3723  14.265   1.376   0.893
  650SOL    HW1 3724  14.298   1.353   0.806
  650SOL    HW2 3725  14.290   1.467   0.905
  651SOL     OW 3726  10.244   3.858   3.226
  651SOL    HW1 3727  10.229   3.952   3.224
  651SOL    HW2 3728  10.238   3.834   3.318
  652SOL     OW 3729   6.180   4.398   0.010
  652SOL    HW1 3730   6.240   4.429  14.819
  652SOL    HW2 3731   6.093   4.412  14.850
  653SOL     OW 3732  14.395   7.395  12.088
  653SOL    HW1 3733  14.333   7.367  12.156
  653SOL    HW2 3734  14.344   7.454  12.032
  654SOL     OW 3735   7.740   8.027   3.151
  654SOL    HW1 3736   7.766   8.042   3.060
  654SOL    HW2 3737   7.806   8.075   3.202
  655SOL     OW 3738  11.416   2.676   1.429
  655SOL    HW1 3739  11.386   2.751   1.480
  655SOL    HW2 3740  11.503   2.655   1.464
  656SOL     OW 3741  13.931   1.403   3.290
  656SOL    HW1 3742  13.873   1.330   3.271
  656SOL    HW2 3743  13.970   1.382   3.375
  657SOL     OW 3744   7.228  11.662  11.952
  657SOL    HW1 3745   7.211  11.754  11.932
  657SOL    HW2 3746   7.243  11.660  12.047
  658SOL     OW 3747  10.970   1.552   5.495
  658SOL    HW1 3748  10.987   1.636   5.537
  658SOL    HW2 3749  10.876   1.539   5.504
  659SOL     OW 3750   2.939   0.700   0.184
  659SOL    HW1 3751   2.881   0.733   0.252
  659SOL    HW2 3752   2.898   0.727   0.101
  660SOL     OW 3753  13.413  13.933   4.192
  660SOL    HW1 3754  13.468  13.958   4.266
  660SOL    HW2 3755  13.384  14.016   4.154
  661SOL     OW 3756  13.493  10.464  13.895
  661SOL    HW1 3757  13.578  10.440  13.932
  661SOL    HW2 3758  13.442  10.384  13.898
  662SOL     OW 3759   6.482   9.092  11.427
  662SOL    HW1 3760   6.486   9.150  11.351
  662SOL    HW2 3761   6.466   9.150  11.501
  663SOL     OW 3762  12.997   7.206  11.318
  663SOL    HW1 3763  12.924   7.198  11.379
  663SOL    HW2 3764  12.974   7.150  11.245
  664SOL     OW 3765   0.172  10.982   8.212
  664SOL    HW1 3766   0.137  10.893   8.206
  664SOL    HW2 3767   0.249  10.974   8.268
  665SOL     OW 3768  14.829  12.312   9.690
  665SOL    HW1 3769  14.781  12.329   9.609
  665SOL    HW2 3770   0.027  12.371   9.685
  666SOL     OW 3771   6.416   2.977   0.965
  666SOL    HW1 3772   6.358   2.939   0.899
  666SOL    HW2 3773   6.479   3.029   0.914
  667SOL     OW 3774   0.325   1.659   4.170
  667SOL    HW1 3775   0.321   1.703   4.086
  667SOL    HW2 3776   0.248   1.602   4.171
  668SOL     OW 3777   4.807   9.531  10.506
  668SOL    HW1 3778   4.849   9.577  10.578
  668SOL    HW2 3779   4.872   9.466  10.478
  669SOL     OW 3780   0.556   6.583   5.993
  669SOL    HW1 3781   0.498   6.605   6.065
  669SOL    HW2 3782   0.641   6.619   6.018
  670SOL     OW 3783   6.253  13.573   1.572
  670SOL    HW1 3784   6.338  13.613   1.589
  670SOL    HW2 3785   6.192  13.620   1.628
  671SOL     OW 3786   5.859   0.399  13.708
  671SOL    HW1 3787   5.950   0.410  13.684
  671SOL    HW2 3788   5.856   0.315  13.753
  672SOL     OW 3789  10.259   9.377  10.491
  672SOL    HW1 3790  10.184   9.351  10.438
  672SOL    HW2 3791  10.327   9.313  10.469
  673SOL     OW 3792   9.327  10.494  13.454
  673SOL    HW1 3793   9.362  10.572  13.411
  673SOL    HW2 3794   9.401  10.432  13.453
  674SOL     OW 3795   3.791   6.511  13.095
  674SOL    HW1 3796   3.837   6.537  13.174
  674SOL    HW2 3797   3.844   6.441  13.058
  675SOL     OW 3798   9.453   4.641   7.143
  675SOL    HW1 3799   9.425   4.550   7.154
  675SOL    HW2 3800   9.431   4.683   7.226
  676SOL     OW 3801   3.908  13.026   6.765
  676SOL    HW1 3802   3.955  13.069   6.836
  676SOL    HW2 3803   3.833  12.984   6.807
  677SOL     OW 3804   7.434   0.939  12.759
  677SOL    HW1 3805   7.355   0.974  12.718
  677SOL    HW2 3806   7.441   0.849  12.726
  678SOL     OW 3807   9.506   8.331   3.251
  678SOL    HW1 3808   9.557   8.379   3.185
  678SOL    HW2 3809   9.486   8.247   3.209
  679SOL     OW 3810  10.693   8.162  10.574
  679SOL    HW1 3811  10.764   8.115  10.618
  679SOL    HW2 3812  10.619   8.100  10.577
  680SOL     OW 3813   0.376  13.560  10.091
  680SOL    HW1 3814   0.388  13.593  10.001
  680SOL    HW2 3815   0.375  13.639  10.145
  681SOL     OW 3816   3.715   0.643   0.803
  681SOL    HW1 3817   3.745   0.655   0.713
  681SOL    HW2 3818   3.758   0.563   0.832
  682SOL     OW 3819  11.490  12.946  10.388
  682SOL    HW1 3820  11.562  13.006  10.410
  682SOL    HW2 3821  11.413  13.001  10.381
  683SOL     OW 3822   5.656   3.344  10.272
  683SOL    HW1 3823   5.740   3.338  10.316
  683SOL    HW2 3824   5.617   3.258  10.282
  684SOL     OW 3825   8.310  11.121   6.559
  684SOL    HW1 3826   8.383  11.181   6.576
  684SOL    HW2 3827   8.291  11.132   6.466
  685SOL     OW 3828   3.880   5.436   7.308
  685SOL    HW1 3829   3.923   5.439   7.393
  685SOL    HW2 3830   3.950   5.456   7.245
  686SOL     OW 3831  12.791  10.798   8.099
  686SOL    HW1 3832  12.850  10.802   8.174
  686SOL    HW2 3833  12.764  10.706   8.094
  687SOL     OW 3834   1.081   0.157  11.826
  687SOL    HW1 3835   1.015   0.112  11.773
  687SOL    HW2 3836   1.105   0.234  11.774
  688SOL     OW 3837  12.490   4.082   3.676
  688SOL    HW1 3838  12.540   4.033   3.741
  688SOL    HW2 3839  12.468   4.016   3.609
  689SOL     OW 3840   4.874   3.130   7.678
  689SOL    HW1 3841   4.967   3.155   7.679
  689SOL    HW2 3842   4.873   3.045   7.634
  690SOL     OW 3843   6.279  12.626   0.815
  690SOL    HW1 3844   6.321  12.564   0.875
  690SOL    HW2 3845   6.348  12.652   0.754
  691SOL     OW 3846   4.882   0.256   4.540
  691SOL    HW1 3847   4.949   0.188   4.542
  691SOL    HW2 3848   4.908   0.314   4.469
  692SOL     OW 3849  10.391   8.483  10.890
  692SOL    HW1 3850  10.358   8.403  10.850
  692SOL    HW2 3851  10.472   8.503  10.842
  693SOL     OW 3852  10.754  10.996   2.261
  693SOL    HW1 3853  10.737  11.083   2.227
  693SOL    HW2 3854  10.693  10.939   2.214
  694SOL     OW 3855   5.004   2.446   1.697
  694SOL    HW1 3856   4.913   2.433   1.723
  694SOL    HW2 3857   5.054   2.429   1.777
  695SOL     OW 3858   0.842  13.192   0.309
  695SOL    HW1 3859   0.815  13.181   0.218
  695SOL    HW2 3860   0.924  13.242   0.305
  696SOL     OW 3861   4.228   3.137   9.294
  696SOL    HW1 3862   4.186   3.066   9.246
  696SOL    HW2 3863   4.288   3.177   9.231
  697SOL     OW 3864   4.997   0.598  12.042
  697SOL    HW1 3865   5.015   0.538  11.970
  697SOL    HW2 3866   5.078   0.597  12.095
  698SOL     OW 3867  12.650   9.737   6.230
  698SOL    HW1 3868  12.650   9.723   6.325
  698SOL    HW2 3869  12.721   9.682   6.198
  699SOL     OW 3870   1.274   4.476  13.727
  699SOL    HW1 3871   1.217   4.498  13.654
  699SOL    HW2 3872   1.236   4.522  13.802
  700SOL     OW 3873   6.886   6.963  10.739
  700SOL    HW1 3874   6.904   6.968  10.833
  700SOL    HW2 3875   6.800   7.004  10.728
  701SOL     OW 3876   9.230   3.351  14.612
  701SOL    HW1 3877   9.151   3.336  14.664
  701SOL    HW2 3878   9.261   3.263  14.589
  702SOL     OW 3879   5.304   9.861   4.083
  702SOL    HW1 3880   5.324   9.858   3.989
  702SOL    HW2 3881   5.331   9.776   4.116
  703SOL     OW 3882  14.193   0.856   7.234
  703SOL    HW1 3883  14.286   0.853   7.260
  703SOL    HW2 3884  14.179   0.776   7.184
  704SOL     OW 3885   5.977   1.868   2.868
  704SOL    HW1 3886   5.961   1.886   2.960
  704SOL    HW2 3887   5.949   1.947   2.822
  705SOL     OW 3888   6.143  12.877   3.509
  705SOL    HW1 3889   6.173  12.880   3.418
  705SOL    HW2 3890   6.087  12.954   3.519
  706SOL     OW 3891   5.612   9.335  11.006
  706SOL    HW1 3892   5.612   9.427  10.979
  706SOL    HW2 3893   5.687   9.328  11.066
  707SOL     OW 3894   3.175  10.098  13.330
  707SOL    HW1 3895   3.125  10.031  13.376
  707SOL    HW2 3896   3.266  10.082  13.355
  708SOL     OW 3897   4.834   9.212   6.965
  708SOL    HW1 3898   4.900   9.184   6.902
  708SOL    HW2 3899   4.777   9.136   6.977
  709SOL     OW 3900   5.275  11.244  12.837
  709SOL    HW1 3901   5.263  11.167  12.892
  709SOL    HW2 3902   5.319  11.308  12.894
  710SOL     OW 3903   8.794  12.838   3.577
  710SOL    HW1 3904   8.759  12.822   3.665
  710SOL    HW2 3905   8.718  12.868   3.526
  711SOL     OW 3906   7.509   6.556  12.606
  711SOL    HW1 3907   7.496   6.598  12.521
  711SOL    HW2 3908   7.597   6.583  12.633
  712SOL     OW 3909   7.050   4.135   5.237
  712SOL    HW1 3910   7.066   4.218   5.191
  712SOL    HW2 3911   7.059   4.068   5.170
  713SOL     OW 3912  10.062  10.423   0.742
  713SOL    HW1 3913  10.016  10.346   0.776
  713SOL    HW2 3914   9.997  10.492   0.742
  714SOL     OW 3915   9.288   3.217  10.801
  714SOL    HW1 3916   9.283   3.143  10.862
  714SOL    HW2 3917   9.340   3.283  10.848
  715SOL     OW 3918  10.637   6.395  10.372
  715SOL    HW1 3919  10.617   6.459  10.440
  715SOL    HW2 3920  10.680   6.323  10.418
  716SOL     OW 3921   3.742   5.682   8.924
  716SOL    HW1 3922   3.689   5.717   8.996
  716SOL    HW2 3923   3.737   5.750   8.856
  717SOL     OW 3924  13.108  11.270  14.236
  717SOL    HW1 3925  13.174  11.338  14.223
  717SOL    HW2 3926  13.094  11.233  14.150
  718SOL     OW 3927   6.818   3.781   0.976
  718SOL    HW1 3928   6.837   3.749   0.888
  718SOL    HW2 3929   6.764   3.712   1.015
  719SOL     OW 3930   4.540  11.761   3.808
  719SOL    HW1 3931   4.525  11.843   3.761
  719SOL    HW2 3932   4.453  11.731   3.835
  720SOL     OW 3933   6.304  14.849   1.183
  720SOL    HW1 3934   6.311   0.030   1.108
  720SOL    HW2 3935   6.328   0.025   1.258
  721SOL     OW 3936  12.768  11.605   7.180
  721SOL    HW1 3937  12.748  11.619   7.273
  721SOL    HW2 3938  12.684  11.617   7.136
  722SOL     OW 3939   3.637   0.463   2.109
  722SOL    HW1 3940   3.546   0.443   2.087
  722SOL    HW2 3941   3.683   0.463   2.025
  723SOL     OW 3942   4.881   6.660   8.574
  723SOL    HW1 3943   4.819   6.651   8.647
  723SOL    HW2 3944   4.826   6.665   8.496
  724SOL     OW 3945   1.606   4.020   1.617
  724SOL    HW1 3946   1.698   4.024   1.590
  724SOL    HW2 3947   1.568   3.952   1.561
  725SOL     OW 3948  14.097   4.865  10.475
  725SOL    HW1 3949  14.083   4.847  10.382
  725SOL    HW2 3950  14.193   4.867  10.485
  726SOL     OW 3951  10.317   1.318   1.222
  726SOL    HW1 3952  10.260   1.394   1.209
  726SOL    HW2 3953  10.401   1.345   1.185
  727SOL     OW 3954   9.235   1.738  13.108
  727SOL    HW1 3955   9.276   1.653  13.124
  727SOL    HW2 3956   9.247   1.786  13.190
  728SOL     OW 3957   1.476  11.451   8.964
  728SOL    HW1 3958   1.452  11.433   8.873
  728SOL    HW2 3959   1.396  11.433   9.013
  729SOL     OW 3960  10.602   0.826   8.710
  729SOL    HW1 3961  10.588   0.793   8.621
  729SOL    HW2 3962  10.690   0.794   8.733
  730SOL     OW 3963  12.263   3.997   2.262
  730SOL    HW1 3964  12.333   3.984   2.198
  730SOL    HW2 3965  12.301   3.969   2.345
  731SOL     OW 3966  10.561  13.848  11.093
  731SOL    HW1 3967  10.502  13.783  11.131
  731SOL    HW2 3968  10.649  13.814  11.111
  732SOL     OW 3969  13.942  12.460   6.410
  732SOL    HW1 3970  13.975  12.426   6.493
  732SOL    HW2 3971  13.869  12.518   6.436
  733SOL     OW 3972  12.667   5.319   5.973
  733SOL    HW1 3973  12.664   5.301   5.879
  733SOL    HW2 3974  12.703   5.407   5.980
  734SOL     OW 3975   7.964   3.473   8.520
  734SOL    HW1 3976   8.054   3.439   8.517
  734SOL    HW2 3977   7.974   3.565   8.545
  735SOL     OW 3978   3.890  12.126   3.658
  735SOL    HW1 3979   3.869  12.081   3.740
  735SOL    HW2 3980   3.844  12.210   3.665
  736SOL     OW 3981   4.274  14.533  14.363
  736SOL    HW1 3982   4.302  14.517  14.273
  736SOL    HW2 3983   4.310  14.619  14.385
  737SOL     OW 3984   5.642  13.393  11.734
  737SOL    HW1 3985   5.607  13.339  11.805
  737SOL    HW2 3986   5.684  13.466  11.778
  738SOL     OW 3987   5.908  13.730   7.530
  738SOL    HW1 3988   5.938  13.707   7.617
  738SOL    HW2 3989   5.850  13.658   7.504
  739SOL     OW 3990   1.471   4.354   0.209
  739SOL    HW1 3991   1.408   4.339   0.279
  739SOL    HW2 3992   1.491   4.267   0.175
  740SOL     OW 3993  10.056   2.323  14.382
  740SOL    HW1 3994   9.982   2.338  14.442
  740SOL    HW2 3995  10.036   2.378  14.306
  741SOL     OW 3996   4.902   0.813  13.595
  741SOL    HW1 3997   4.958   0.753  13.645
  741SOL    HW2 3998   4.958   0.890  13.581
  742SOL     OW 3999   9.776   2.515   1.418
  742SOL    HW1 4000   9.794   2.470   1.501
  742SOL    HW2 4001   9.771   2.607   1.442
  743SOL     OW 4002   9.751   4.920  11.372
  743SOL    HW1 4003   9.756   5.015  11.384
  743SOL    HW2 4004   9.658   4.900  11.368
  744SOL     OW 4005   4.625   2.207   1.485
  744SOL    HW1 4006   4.566   2.256   1.427
  744SOL    HW2 4007   4.711   2.216   1.445
  745SOL     OW 4008  13.598  11.871  11.196
  745SOL    HW1 4009  13.679  11.852  11.149
  745SOL    HW2 4010  13.604  11.965  11.217
  746SOL     OW 4011   0.971   4.525   0.028
  746SOL    HW1 4012   1.023   4.536   0.108
  746SOL    HW2 4013   1.024   4.467  14.850
  747SOL     OW 4014   8.572   0.720  14.340
  747SOL    HW1 4015   8.486   0.728  14.298
  747SOL    HW2 4016   8.565   0.775  14.418
  748SOL     OW 4017   6.801   2.179   7.865
  748SOL    HW1 4018   6.786   2.100   7.814
  748SOL    HW2 4019   6.860   2.152   7.935
  749SOL     OW 4020  13.874  12.527   0.065
  749SOL    HW1 4021  13.786  12.565   0.072
  749SOL    HW2 4022  13.927  12.595   0.024
  750SOL     OW 4023  14.279   4.269   8.527
  750SOL    HW1 4024  14.316   4.212   8.460
  750SOL    HW2 4025  14.352   4.326   8.554
  751SOL     OW 4026   8.142  14.109   2.488
  751SOL    HW1 4027   8.092  14.159   2.424
  751SOL    HW2 4028   8.116  14.018   2.473
  752SOL     OW 4029   2.403  14.757   0.052
  752SOL    HW1 4030   2.364  14.727   0.134
  752SOL    HW2 4031   2.466  14.688   0.029
  753SOL     OW 4032   0.478  13.798   6.076
  753SOL    HW1 4033   0.458  13.724   6.133
  753SOL    HW2 4034   0.531  13.761   6.006
  754SOL     OW 4035   7.063  13.351   7.418
  754SOL    HW1 4036   7.114  13.339   7.338
  754SOL    HW2 4037   7.050  13.262   7.452
  755SOL     OW 4038  13.853   4.805  14.610
  755SOL    HW1 4039  13.780   4.756  14.574
  755SOL    HW2 4040  13.914   4.738  14.641
  756SOL     OW 4041  10.913   9.959   8.366
  756SOL    HW1 4042  10.829   9.933   8.404
  756SOL    HW2 4043  10.897  10.046   8.328
  757SOL     OW 4044   4.164  14.006   3.400
  757SOL    HW1 4045   4.237  14.020   3.461
  757SOL    HW2 4046   4.165  14.082   3.342
  758SOL     OW 4047   4.725   2.005  10.757
  758SOL    HW1 4048   4.665   2.072  10.725
  758SOL    HW2 4049   4.812   2.041  10.740
  759SOL     OW 4050   3.776   9.565   7.447
  759SOL    HW1 4051   3.774   9.613   7.364
  759SOL    HW2 4052   3.837   9.614   7.502
  760SOL     OW 4053   4.784   7.323  13.837
  760SOL    HW1 4054   4.769   7.242  13.885
  760SOL    HW2 4055   4.735   7.389  13.886
  761SOL     OW 4056  11.541   7.492   8.766
  761SOL    HW1 4057  11.557   7.553   8.838
  761SOL    HW2 4058  11.453   7.458   8.782
  762SOL     OW 4059   5.772   0.008   7.567
  762SOL    HW1 4060   5.856   0.037   7.602
  762SOL    HW2 4061   5.710   0.076   7.593
  763SOL     OW 4062   3.745   8.144  10.106
  763SOL    HW1 4063   3.714   8.167  10.019
  763SOL    HW2 4064   3.744   8.048  10.108
  764SOL     OW 4065   2.612   5.388   9.370
  764SOL    HW1 4066   2.686   5.410   9.427
  764SOL    HW2 4067   2.649   5.329   9.304
  765SOL     OW 4068   2.691   0.075   3.806
  765SOL    HW1 4069   2.610   0.067   3.756
  765SOL    HW2 4070   2.715  14.862   3.827
  766SOL     OW 4071   8.810   0.129  14.621
  766SOL    HW1 4072   8.748   0.099  14.687
  766SOL    HW2 4073   8.830   0.219  14.648
  767SOL     OW 4074   8.109  12.855  13.531
  767SOL    HW1 4075   8.141  12.925  13.588
  767SOL    HW2 4076   8.100  12.780  13.589
  768SOL     OW 4077   3.022  12.216   0.147
  768SOL    HW1 4078   2.952  12.236   0.208
  768SOL    HW2 4079   2.980  12.165   0.078
  769SOL     OW 4080  13.579   2.768   4.077
  769SOL    HW1 4081  13.599   2.803   3.990
  769SOL    HW2 4082  13.518   2.696   4.060
  770SOL     OW 4083   4.180  14.313   6.668
  770SOL    HW1 4084   4.269  14.300   6.700
  770SOL    HW2 4085   4.172  14.408   6.659
  771SOL     OW 4086  10.200   2.461   4.336
  771SOL    HW1 4087  10.124   2.435   4.388
  771SOL    HW2 4088  10.268   2.480   4.400
  772SOL     OW 4089  13.775   0.504   1.865
  772SOL    HW1 4090  13.821   0.426   1.896
  772SOL    HW2 4091  13.737   0.477   1.781
  773SOL     OW 4092  14.678   6.066  10.429
  773SOL    HW1 4093  14.743   6.002  10.456
  773SOL    HW2 4094  14.710   6.149  10.462
  774SOL     OW 4095  13.829  13.150   7.004
  774SOL    HW1 4096  13.785  13.068   7.029
  774SOL    HW2 4097  13.765  13.219   7.025
  775SOL     OW 4098   8.988  13.028   2.611
  775SOL    HW1 4099   9.014  13.103   2.558
  775SOL    HW2 4100   8.892  13.026   2.604
  776SOL     OW 4101   7.122   4.184   7.984
  776SOL    HW1 4102   7.083   4.224   7.907
  776SOL    HW2 4103   7.216   4.179   7.963
  777SOL     OW 4104   1.477   1.976   2.092
  777SOL    HW1 4105   1.534   1.901   2.113
  777SOL    HW2 4106   1.426   1.990   2.172
  778SOL     OW 4107  10.390  10.837  14.160
  778SOL    HW1 4108  10.368  10.852  14.251
  778SOL    HW2 4109  10.481  10.865  14.151
  779SOL     OW 4110   1.479   4.892   5.181
  779SOL    HW1 4111   1.455   4.876   5.272
  779SOL    HW2 4112   1.398   4.881   5.132
  780SOL     OW 4113  10.841   4.363   8.757
  780SOL    HW1 4114  10.883   4.299   8.699
  780SOL    HW2 4115  10.914   4.405   8.802
  781SOL     OW 4116  13.070   7.213  14.086
  781SOL    HW1 4117  13.152   7.168  14.070
  781SOL    HW2 4118  13.095   7.297  14.124
  782SOL     OW 4119   3.517   7.972  10.710
  782SOL    HW1 4120   3.476   8.051  10.743
  782SOL    HW2 4121   3.466   7.900  10.748
  783SOL     OW 4122  11.451   6.451   1.902
  783SOL    HW1 4123  11.371   6.428   1.949
  783SOL    HW2 4124  11.436   6.540   1.870
  784SOL     OW 4125  13.681   3.992   7.730
  784SOL    HW1 4126  13.704   3.913   7.680
  784SOL    HW2 4127  13.602   4.024   7.686
  785SOL     OW 4128  11.576   9.778  10.432
  785SOL    HW1 4129  11.539   9.801  10.517
  785SOL    HW2 4130  11.616   9.859  10.401
  786SOL     OW 4131   2.066   4.457  10.686
  786SOL    HW1 4132   2.155   4.432  10.709
  786SOL    HW2 4133   2.059   4.435  10.592
  787SOL     OW 4134   3.984  14.259   2.008
  787SOL    HW1 4135   4.056  14.201   1.982
  787SOL    HW2 4136   4.011  14.294   2.093
  788SOL     OW 4137  12.982  12.748   5.744
  788SOL    HW1 4138  12.921  12.785   5.808
  788SOL    HW2 4139  12.937  12.670   5.710
  789SOL     OW 4140   9.526   1.764   2.199
  789SOL    HW1 4141   9.595   1.700   2.219
  789SOL    HW2 4142   9.448   1.711   2.184
  790SOL     OW 4143  10.259   8.982  13.916
  790SOL    HW1 4144  10.174   9.026  13.913
  790SOL    HW2 4145  10.281   8.966  13.824
  791SOL     OW 4146  11.935   7.505  10.462
  791SOL    HW1 4147  11.937   7.436  10.527
  791SOL    HW2 4148  12.012   7.559  10.481
  792SOL     OW 4149   0.834   4.836   1.010
  792SOL    HW1 4150   0.915   4.887   1.010
  792SOL    HW2 4151   0.856   4.756   1.056
  793SOL     OW 4152   6.812   5.832   6.125
  793SOL    HW1 4153   6.773   5.859   6.042
  793SOL    HW2 4154   6.879   5.768   6.101
  794SOL     OW 4155  12.637   8.758   1.292
  794SOL    HW1 4156  12.591   8.719   1.366
  794SOL    HW2 4157  12.573   8.755   1.221
  795SOL     OW 4158  10.807   3.258   0.570
  795SOL    HW1 4159  10.862   3.330   0.598
  795SOL    HW2 4160  10.718   3.291   0.577
  796SOL     OW 4161   6.443   4.837   3.035
  796SOL    HW1 4162   6.528   4.856   2.997
  796SOL    HW2 4163   6.462   4.793   3.118
  797SOL     OW 4164   3.771  11.982   9.050
  797SOL    HW1 4165   3.818  12.058   9.084
  797SOL    HW2 4166   3.838  11.928   9.009
  798SOL     OW 4167  14.847   1.102  14.642
  798SOL    HW1 4168  14.874   1.119  14.732
  798SOL    HW2 4169  14.787   1.028  14.649
  799SOL     OW 4170  10.779   8.676  11.726
  799SOL    HW1 4171  10.692   8.641  11.711
  799SOL    HW2 4172  10.825   8.665  11.642
  800SOL     OW 4173   3.346   8.614  13.106
  800SOL    HW1 4174   3.429   8.629  13.151
  800SOL    HW2 4175   3.329   8.697  13.061
  801SOL     OW 4176   4.430   8.566   5.562
  801SOL    HW1 4177   4.345   8.605   5.584
  801SOL    HW2 4178   4.450   8.600   5.474
  802SOL     OW 4179   0.438   2.436   7.861
  802SOL    HW1 4180   0.511   2.388   7.899
  802SOL    HW2 4181   0.426   2.511   7.919
  803SOL     OW 4182  11.023  13.264  10.023
  803SOL    HW1 4183  10.933  13.232  10.012
  803SOL    HW2 4184  11.017  13.331  10.091
  804SOL     OW 4185   3.909   9.415   4.290
  804SOL    HW1 4186   3.817   9.439   4.298
  804SOL    HW2 4187   3.922   9.349   4.359
  805SOL     OW 4188   8.220   6.329   6.938
  805SOL    HW1 4189   8.128   6.331   6.966
  805SOL    HW2 4190   8.217   6.349   6.844
  806SOL     OW 4191   2.577   3.903  13.538
  806SOL    HW1 4192   2.645   3.926  13.602
  806SOL    HW2 4193   2.623   3.849  13.473
  807SOL     OW 4194   7.859  10.165   5.698
  807SOL    HW1 4195   7.864  10.123   5.612
  807SOL    HW2 4196   7.938  10.136   5.743
  808SOL     OW 4197   3.213   2.301   7.786
  808SOL    HW1 4198   3.131   2.342   7.815
  808SOL    HW2 4199   3.226   2.333   7.697
  809SOL     OW 4200   0.654   9.055  10.877
  809SOL    HW1 4201   0.697   9.033  10.795
  809SOL    HW2 4202   0.609   8.974  10.903
  810SOL     OW 4203   4.612   8.879   9.362
  810SOL    HW1 4204   4.684   8.877   9.425
  810SOL    HW2 4205   4.533   8.876   9.416
  811SOL     OW 4206  13.654   5.579   6.595
  811SOL    HW1 4207  13.666   5.672   6.610
  811SOL    HW2 4208  13.571   5.558   6.637
  812SOL     OW 4209  14.643   6.759  14.332
  812SOL    HW1 4210  14.588   6.837  14.322
  812SOL    HW2 4211  14.620   6.725  14.419
  813SOL     OW 4212   6.478  11.014   2.266
  813SOL    HW1 4213   6.480  10.988   2.174
  813SOL    HW2 4214   6.447  10.936   2.312
  814SOL     OW 4215  12.169   6.187   3.610
  814SOL    HW1 4216  12.102   6.211   3.546
  814SOL    HW2 4217  12.147   6.237   3.688
  815SOL     OW 4218   1.794   5.574   1.751
  815SOL    HW1 4219   1.779   5.516   1.676
  815SOL    HW2 4220   1.752   5.656   1.725
  816SOL     OW 4221   7.766  14.376   8.288
  816SOL    HW1 4222   7.831  14.316   8.254
  816SOL    HW2 4223   7.719  14.409   8.211
  817SOL     OW 4224  11.941   1.333   1.887
  817SOL    HW1 4225  12.012   1.290   1.841
  817SOL    HW2 4226  11.896   1.263   1.934
  818SOL     OW 4227   9.117  10.004   8.124
  818SOL    HW1 4228   9.092   9.940   8.058
  818SOL    HW2 4229   9.168   9.954   8.188
  819SOL     OW 4230   9.106   0.748   7.002
  819SOL    HW1 4231   9.127   0.791   7.085
  819SOL    HW2 4232   9.181   0.767   6.946
  820SOL     OW 4233  11.054   0.409  12.937
  820SOL    HW1 4234  11.054   0.314  12.924
  820SOL    HW2 4235  11.029   0.445  12.851
  821SOL     OW 4236   8.034   8.855   4.106
  821SOL    HW1 4237   8.071   8.775   4.142
  821SOL    HW2 4238   7.945   8.859   4.140
  822SOL     OW 4239  14.565   1.899   3.241
  822SOL    HW1 4240  14.500   1.905   3.171
  822SOL    HW2 4241  14.565   1.986   3.281
  823SOL     OW 4242   6.874   0.281  10.369
  823SOL    HW1 4243   6.910   0.366  10.397
  823SOL    HW2 4244   6.803   0.264  10.431
  824SOL     OW 4245  12.735  12.830   7.442
  824SOL    HW1 4246  12.729  12.880   7.361
  824SOL    HW2 4247  12.645  12.799   7.458
  825SOL     OW 4248   5.697  12.503  13.245
  825SOL    HW1 4249   5.718  12.439  13.313
  825SOL    HW2 4250   5.602  12.502  13.240
  826SOL     OW 4251   7.739  13.333   9.680
  826SOL    HW1 4252   7.735  13.240   9.655
  826SOL    HW2 4253   7.810  13.369   9.627
  827SOL     OW 4254  11.128  10.883   1.521
  827SOL    HW1 4255  11.141  10.843   1.607
  827SOL    HW2 4256  11.210  10.867   1.474
  828SOL     OW 4257  12.077  13.112   3.826
  828SOL    HW1 4258  12.033  13.190   3.861
  828SOL    HW2 4259  12.158  13.145   3.788
  829SOL     OW 4260  10.511  12.558   2.507
  829SOL    HW1 4261  10.424  12.576   2.542
  829SOL    HW2 4262  10.497  12.542   2.414
  830SOL     OW 4263  11.646   7.683   6.543
  830SOL    HW1 4264  11.680   7.602   6.581
  830SOL    HW2 4265  11.664   7.750   6.609
  831SOL     OW 4266   5.302  10.043   3.002
  831SOL    HW1 4267   5.208  10.036   3.019
  831SOL    HW2 4268   5.320   9.976   2.936
  832SOL     OW 4269  10.623  12.760  12.502
  832SOL    HW1 4270  10.614  12.667  12.484
  832SOL    HW2 4271  10.692  12.765  12.568
  833SOL     OW 4272  11.624   9.027   6.451
  833SOL    HW1 4273  11.719   9.014   6.447
  833SOL    HW2 4274  11.597   9.028   6.359
  834SOL     OW 4275  14.325   7.215  12.895
  834SOL    HW1 4276  14.238   7.186  12.868
  834SOL    HW2 4277  14.310   7.258  12.980
  835SOL     OW 4278   4.927   9.644  13.318
  835SOL    HW1 4279   4.919   9.737  13.299
  835SOL    HW2 4280   4.856   9.626  13.380
  836SOL     OW 4281   2.864   6.111   7.757
  836SOL    HW1 4282   2.957   6.090   7.769
  836SOL    HW2 4283   2.830   6.122   7.846
  837SOL     OW 4284   6.120   2.509  12.495
  837SOL    HW1 4285   6.112   2.433  12.552
  837SOL    HW2 4286   6.128   2.583  12.554
  838SOL     OW 4287   4.182  11.351   8.231
  838SOL    HW1 4288   4.251  11.412   8.257
  838SOL    HW2 4289   4.101  11.396   8.256
  839SOL     OW 4290   7.727   5.243  13.520
  839SOL    HW1 4291   7.697   5.253  13.430
  839SOL    HW2 4292   7.746   5.150  13.529
  840SOL     OW 4293  13.392   8.300   7.442
  840SOL    HW1 4294  13.417   8.212   7.415
  840SOL    HW2 4295  13.298   8.295   7.458
  841SOL     OW 4296   7.523   6.238  13.408
  841SOL    HW1 4297   7.562   6.324  13.423
  841SOL    HW2 4298   7.569   6.204  13.331
  842SOL     OW 4299  14.084   1.576   0.130
  842SOL    HW1 4300  13.994   1.601   0.150
  842SOL    HW2 4301  14.125   1.656   0.097
  843SOL     OW 4302   5.299   3.914   4.302
  843SOL    HW1 4303   5.307   3.885   4.393
  843SOL    HW2 4304   5.212   3.883   4.275
  844SOL     OW 4305  11.540   9.303   9.755
  844SOL    HW1 4306  11.474   9.267   9.695
  844SOL    HW2 4307  11.568   9.229   9.808
  845SOL     OW 4308  10.462   0.892   3.790
  845SOL    HW1 4309  10.449   0.798   3.777
  845SOL    HW2 4310  10.478   0.926   3.703
  846SOL     OW 4311   6.669   0.567   0.846
  846SOL    HW1 4312   6.676   0.481   0.804
  846SOL    HW2 4313   6.576   0.590   0.838
  847SOL     OW 4314   2.589   1.098   7.084
  847SOL    HW1 4315   2.582   1.180   7.134
  847SOL    HW2 4316   2.519   1.043   7.119
  848SOL     OW 4317   8.875  11.882   7.358
  848SOL    HW1 4318   8.903  11.915   7.443
  848SOL    HW2 4319   8.904  11.949   7.296
  849SOL     OW 4320   4.823   6.746  14.076
  849SOL    HW1 4321   4.882   6.687  14.029
  849SOL    HW2 4322   4.881   6.805  14.125
  850SOL     OW 4323   2.160   2.876  12.693
  850SOL    HW1 4324   2.108   2.798  12.674
  850SOL    HW2 4325   2.101   2.935  12.739
  851SOL     OW 4326  13.611   4.999   7.681
  851SOL    HW1 4327  13.626   5.040   7.766
  851SOL    HW2 4328  13.603   4.905   7.701
  852SOL     OW 4329   6.721  13.900  12.924
  852SOL    HW1 4330   6.676  13.973  12.881
  852SOL    HW2 4331   6.656  13.864  12.984
  853SOL     OW 4332   3.658  12.864   2.725
  853SOL    HW1 4333   3.563  12.867   2.716
  853SOL    HW2 4334   3.689  12.942   2.677
  854SOL     OW 4335  14.669   8.311  13.495
  854SOL    HW1 4336  14.743   8.253  13.510
  854SOL    HW2 4337  14.707   8.391  13.461
  855SOL     OW 4338   7.657  14.499   5.443
  855SOL    HW1 4339   7.637  14.585   5.406
  855SOL    HW2 4340   7.619  14.437   5.381
  856SOL     OW 4341   4.985  13.958   7.751
  856SOL    HW1 4342   5.013  13.992   7.836
  856SOL    HW2 4343   4.994  14.033   7.692
  857SOL     OW 4344   7.166   9.060  14.548
  857SOL    HW1 4345   7.137   8.971  14.529
  857SOL    HW2 4346   7.208   9.089  14.467
  858SOL     OW 4347  11.724   8.565   1.367
  858SOL    HW1 4348  11.663   8.538   1.298
  858SOL    HW2 4349  11.806   8.523   1.344
  859SOL     OW 4350   8.992   1.907   2.708
  859SOL    HW1 4351   9.058   1.970   2.740
  859SOL    HW2 4352   8.966   1.858   2.786
  860SOL     OW 4353  11.059  14.678   0.170
  860SOL    HW1 4354  11.025  14.640   0.089
  860SOL    HW2 4355  10.999  14.648   0.238
  861SOL     OW 4356   1.644  13.283  14.590
  861SOL    HW1 4357   1.576  13.349  14.577
  861SOL    HW2 4358   1.600  13.211  14.634
  862SOL     OW 4359   3.967   3.221   6.001
  862SOL    HW1 4360   3.942   3.312   5.984
  862SOL    HW2 4361   4.019   3.224   6.080
  863SOL     OW 4362   2.535  13.447  12.725
  863SOL    HW1 4363   2.473  13.504  12.680
  863SOL    HW2 4364   2.619  13.467  12.685
  864SOL     OW 4365  13.428  11.123   0.846
  864SOL    HW1 4366  13.425  11.090   0.757
  864SOL    HW2 4367  13.521  11.122   0.870
  865SOL     OW 4368   2.465   7.767  13.426
  865SOL    HW1 4369   2.490   7.816  13.504
  865SOL    HW2 4370   2.414   7.829  13.374
  866SOL     OW 4371   4.260   7.390   8.296
  866SOL    HW1 4372   4.283   7.310   8.343
  866SOL    HW2 4373   4.327   7.453   8.321
  867SOL     OW 4374   0.739   4.378   3.809
  867SOL    HW1 4375   0.796   4.402   3.883
  867SOL    HW2 4376   0.654   4.413   3.833
  868SOL     OW 4377   6.463   3.277  10.756
  868SOL    HW1 4378   6.515   3.266  10.676
  868SOL    HW2 4379   6.382   3.320  10.727
  869SOL     OW 4380   0.071  12.405   8.550
  869SOL    HW1 4381   0.166  12.415   8.558
  869SOL    HW2 4382   0.048  12.455   8.472
  870SOL     OW 4383   4.329   8.431   6.639
  870SOL    HW1 4384   4.310   8.381   6.718
  870SOL    HW2 4385   4.365   8.513   6.671
  871SOL     OW 4386   6.628  11.120   3.599
  871SOL    HW1 4387   6.572  11.194   3.626
  871SOL    HW2 4388   6.711  11.136   3.642
  872SOL     OW 4389   3.140  13.360   6.379
  872SOL    HW1 4390   3.235  13.352   6.370
  872SOL    HW2 4391   3.123  13.345   6.472
  873SOL     OW 4392  14.485   2.273   5.287
  873SOL    HW1 4393  14.555   2.211   5.270
  873SOL    HW2 4394  14.515   2.324   5.363
  874SOL     OW 4395   4.983   6.424   6.942
  874SOL    HW1 4396   5.076   6.442   6.935
  874SOL    HW2 4397   4.940   6.506   6.917
  875SOL     OW 4398   0.170   1.319   0.639
  875SOL    HW1 4399   0.143   1.293   0.726
  875SOL    HW2 4400   0.235   1.388   0.653
  876SOL     OW 4401   8.983  13.494   3.201
  876SOL    HW1 4402   9.029  13.433   3.260
  876SOL    HW2 4403   8.941  13.557   3.259
  877SOL     OW 4404   5.094  13.253  14.011
  877SOL    HW1 4405   5.140  13.172  14.034
  877SOL    HW2 4406   5.151  13.323  14.041
  878SOL     OW 4407   4.832   8.011  10.286
  878SOL    HW1 4408   4.858   7.930  10.330
  878SOL    HW2 4409   4.740   7.997  10.263
  879SOL     OW 4410   7.831  12.770   7.397
  879SOL    HW1 4411   7.792  12.854   7.423
  879SOL    HW2 4412   7.823  12.715   7.474
  880SOL     OW 4413  12.104  13.908  11.584
  880SOL    HW1 4414  12.081  13.817  11.566
  880SOL    HW2 4415  12.117  13.947  11.498
  881SOL     OW 4416  11.864   3.100   9.930
  881SOL    HW1 4417  11.899   3.080  10.018
  881SOL    HW2 4418  11.850   3.014   9.890
  882SOL     OW 4419   3.599  14.804   7.649
  882SOL    HW1 4420   3.528  14.865   7.669
  882SOL    HW2 4421   3.573  14.764   7.566
  883SOL     OW 4422   2.926   4.098   6.210
  883SOL    HW1 4423   2.851   4.105   6.151
  883SOL    HW2 4424   2.932   4.183   6.253
  884SOL     OW 4425   5.636  13.457   8.340
  884SOL    HW1 4426   5.599  13.409   8.265
  884SOL    HW2 4427   5.690  13.525   8.300
  885SOL     OW 4428   6.158   0.824   0.075
  885SOL    HW1 4429   6.092   0.872   0.026
  885SOL    HW2 4430   6.218   0.892   0.107
  886SOL     OW 4431   0.101   2.876   1.838
  886SOL    HW1 4432   0.155   2.833   1.772
  886SOL    HW2 4433   0.131   2.839   1.921
  887SOL     OW 4434  14.792  12.551  14.273
  887SOL    HW1 4435  14.816  12.627  14.220
  887SOL    HW2 4436  14.860  12.546  14.341
  888SOL     OW 4437   7.716  11.798   7.708
  888SOL    HW1 4438   7.732  11.738   7.781
  888SOL    HW2 4439   7.668  11.871   7.747
  889SOL     OW 4440   4.236   9.551   0.661
  889SOL    HW1 4441   4.303   9.558   0.729
  889SOL    HW2 4442   4.285   9.529   0.582
  890SOL     OW 4443   9.944   3.163  11.514
  890SOL    HW1 4444   9.991   3.169  11.597
  890SOL    HW2 4445   9.876   3.230  11.519
  891SOL     OW 4446   5.192   1.192   2.067
  891SOL    HW1 4447   5.186   1.146   1.983
  891SOL    HW2 4448   5.184   1.285   2.044
  892SOL     OW 4449   2.587   4.947  10.095
  892SOL    HW1 4450   2.628   4.880  10.149
  892SOL    HW2 4451   2.529   4.994  10.155
  893SOL     OW 4452   9.816   5.173   5.669
  893SOL    HW1 4453   9.856   5.228   5.736
  893SOL    HW2 4454   9.722   5.184   5.681
  894SOL     OW 4455   2.390   9.978   8.138
  894SOL    HW1 4456   2.337  10.057   8.153
  894SOL    HW2 4457   2.331   9.906   8.163
  895SOL     OW 4458   4.517   0.986   1.874
  895SOL    HW1 4459   4.604   1.022   1.858
  895SOL    HW2 4460   4.461   1.063   1.889
  896SOL     OW 4461   3.692   7.229   0.455
  896SOL    HW1 4462   3.739   7.146   0.459
  896SOL    HW2 4463   3.760   7.295   0.438
  897SOL     OW 4464  12.708   0.813  10.584
  897SOL    HW1 4465  12.689   0.899  10.621
  897SOL    HW2 4466  12.709   0.754  10.660
  898SOL     OW 4467   7.710  13.436   0.544
  898SOL    HW1 4468   7.695  13.529   0.526
  898SOL    HW2 4469   7.730  13.432   0.637
  899SOL     OW 4470  13.222   3.775  10.616
  899SOL    HW1 4471  13.132   3.748  10.601
  899SOL    HW2 4472  13.228   3.861  10.574
  900SOL     OW 4473   5.850   7.643   7.770
  900SOL    HW1 4474   5.847   7.548   7.756
  900SOL    HW2 4475   5.792   7.679   7.704
  901SOL     OW 4476  14.552   3.915   0.480
  901SOL    HW1 4477  14.464   3.920   0.443
  901SOL    HW2 4478  14.575   4.006   0.500
  902SOL     OW 4479  13.064   8.321  12.942
  902SOL    HW1 4480  13.108   8.393  12.898
  902SOL    HW2 4481  13.062   8.347  13.034
  903SOL     OW 4482   0.072   1.193   7.639
  903SOL    HW1 4483   0.097   1.225   7.552
  903SOL    HW2 4484   0.041   1.104   7.625
  904SOL     OW 4485  12.853   0.254   3.294
  904SOL    HW1 4486  12.901   0.246   3.377
  904SOL    HW2 4487  12.761   0.260   3.320
  905SOL     OW 4488  14.773   4.769   3.479
  905SOL    HW1 4489  14.791   4.677   3.460
  905SOL    HW2 4490  14.701   4.792   3.420
  906SOL     OW 4491  11.899  12.872   6.724
  906SOL    HW1 4492  11.810  12.842   6.706
  906SOL    HW2 4493  11.897  12.966   6.707
  907SOL     OW 4494   4.508   0.500   5.121
  907SOL    HW1 4495   4.418   0.486   5.092
  907SOL    HW2 4496   4.507   0.480   5.214
  908SOL     OW 4497   1.045   1.489   1.297
  908SOL    HW1 4498   1.050   1.395   1.277
  908SOL    HW2 4499   1.132   1.510   1.331
  909SOL     OW 4500  13.497   3.711  13.546
  909SOL    HW1 4501  13.416   3.668  13.519
  909SOL    HW2 4502  13.476   3.749  13.631
  910SOL     OW 4503   0.254   2.514   0.425
  910SOL    HW1 4504   0.276   2.538   0.335
  910SOL    HW2 4505   0.236   2.421   0.421
  911SOL     OW 4506   0.418  10.248  12.200
  911SOL    HW1 4507   0.343  10.290  12.241
  911SOL    HW2 4508   0.387  10.161  12.175
  912SOL     OW 4509  14.790  10.987   1.730
  912SOL    HW1 4510  14.803  11.076   1.698
  912SOL    HW2 4511  14.870  10.968   1.779
  913SOL     OW 4512  11.526   4.088  12.999
  913SOL    HW1 4513  11.450   4.073  13.056
  913SOL    HW2 4514  11.596   4.036  13.038
  914SOL     OW 4515  12.569   7.374   7.095
  914SOL    HW1 4516  12.501   7.416   7.148
  914SOL    HW2 4517  12.650   7.416   7.125
  915SOL     OW 4518  12.830  11.362   6.660
  915SOL    HW1 4519  12.847  11.456   6.652
  915SOL    HW2 4520  12.794  11.351   6.748
  916SOL     OW 4521   8.896  12.937  10.945
  916SOL    HW1 4522   8.876  12.859  10.997
  916SOL    HW2 4523   8.814  12.985  10.940
  917SOL     OW 4524   1.876  13.086  12.367
  917SOL    HW1 4525   1.963  13.117  12.391
  917SOL    HW2 4526   1.860  13.125  12.281
  918SOL     OW 4527  14.036  12.686   5.257
  918SOL    HW1 4528  14.065  12.635   5.181
  918SOL    HW2 4529  14.002  12.620   5.318
  919SOL     OW 4530   4.334  11.801  12.632
  919SOL    HW1 4531   4.383  11.858  12.573
  919SOL    HW2 4532   4.400  11.764  12.690
  920SOL     OW 4533   3.565  14.622   3.884
  920SOL    HW1 4534   3.541  14.596   3.973
  920SOL    HW2 4535   3.594  14.713   3.893
  921SOL     OW 4536   6.586   2.110   9.552
  921SOL    HW1 4537   6.565   2.123   9.459
  921SOL    HW2 4538   6.534   2.178   9.597
  922SOL     OW 4539   0.752   5.235  12.928
  922SOL    HW1 4540   0.730   5.162  12.986
  922SOL    HW2 4541   0.701   5.308  12.961
  923SOL     OW 4542   5.738  10.824   7.844
  923SOL    HW1 4543   5.665  10.765   7.863
  923SOL    HW2 4544   5.794  10.774   7.784
  924SOL     OW 4545   8.437  10.739   2.140
  924SOL    HW1 4546   8.486  10.733   2.222
  924SOL    HW2 4547   8.348  10.712   2.163
  925SOL     OW 4548   5.161   4.818  14.525
  925SOL    HW1 4549   5.214   4.826  14.604
  925SOL    HW2 4550   5.158   4.724  14.507
  926SOL     OW 4551   1.177  14.308   6.100
  926SOL    HW1 4552   1.106  14.368   6.124
  926SOL    HW2 4553   1.137  14.246   6.040
  927SOL     OW 4554  10.689  11.860   3.252
  927SOL    HW1 4555  10.756  11.844   3.318
  927SOL    HW2 4556  10.607  11.866   3.302
  928SOL     OW 4557   0.971  10.928   6.561
  928SOL    HW1 4558   1.067  10.926   6.565
  928SOL    HW2 4559   0.951  10.923   6.468
  929SOL     OW 4560  11.995  13.417   9.178
  929SOL    HW1 4561  11.984  13.332   9.135
  929SOL    HW2 4562  11.985  13.481   9.108
  930SOL     OW 4563   9.080   1.570   1.669
  930SOL    HW1 4564   9.042   1.516   1.738
  930SOL    HW2 4565   9.006   1.617   1.631
  931SOL     OW 4566   4.323   7.631   5.006
  931SOL    HW1 4567   4.295   7.711   5.051
  931SOL    HW2 4568   4.387   7.660   4.942
  932SOL     OW 4569   7.168   0.579  14.621
  932SOL    HW1 4570   7.211   0.627  14.692
  932SOL    HW2 4571   7.076   0.605  14.627
  933SOL     OW 4572   1.866  10.205   6.655
  933SOL    HW1 4573   1.830  10.236   6.738
  933SOL    HW2 4574   1.889  10.285   6.607
  934SOL     OW 4575   7.208  10.144  12.088
  934SOL    HW1 4576   7.229  10.193  12.008
  934SOL    HW2 4577   7.253  10.193  12.158
  935SOL     OW 4578   1.007   9.782   4.228
  935SOL    HW1 4579   1.081   9.819   4.274
  935SOL    HW2 4580   0.956   9.858   4.198
  936SOL     OW 4581   3.589   4.025   8.754
  936SOL    HW1 4582   3.539   4.025   8.836
  936SOL    HW2 4583   3.601   3.932   8.733
  937SOL     OW 4584  10.368  12.865  13.941
  937SOL    HW1 4585  10.452  12.838  13.904
  937SOL    HW2 4586  10.328  12.783  13.972
  938SOL     OW 4587   3.293  10.263   2.364
  938SOL    HW1 4588   3.363  10.327   2.370
  938SOL    HW2 4589   3.327  10.196   2.304
  939SOL     OW 4590   6.032   9.057   7.319
  939SOL    HW1 4591   6.082   8.994   7.267
  939SOL    HW2 4592   5.948   9.013   7.334
  940SOL     OW 4593  13.761   5.523   1.119
  940SOL    HW1 4594  13.832   5.518   1.184
  940SOL    HW2 4595  13.792   5.587   1.055
  941SOL     OW 4596   6.832   2.325  12.298
  941SOL    HW1 4597   6.910   2.362  12.257
  941SOL    HW2 4598   6.779   2.401  12.321
  942SOL     OW 4599   1.662   1.655   8.863
  942SOL    HW1 4600   1.586   1.634   8.917
  942SOL    HW2 4601   1.633   1.729   8.809
  943SOL     OW 4602   6.128  10.920   4.091
  943SOL    HW1 4603   6.207  10.928   4.145
  943SOL    HW2 4604   6.150  10.854   4.026
  944SOL     OW 4605  10.101   0.392   9.980
  944SOL    HW1 4606  10.115   0.454   9.909
  944SOL    HW2 4607  10.104   0.444  10.060
  945SOL     OW 4608  14.786  11.200   9.387
  945SOL    HW1 4609  14.812  11.108   9.399
  945SOL    HW2 4610  14.852  11.236   9.328
  946SOL     OW 4611   6.606   4.676  10.883
  946SOL    HW1 4612   6.624   4.588  10.915
  946SOL    HW2 4613   6.679   4.729  10.916
  947SOL     OW 4614   6.722   5.754   6.761
  947SOL    HW1 4615   6.765   5.727   6.680
  947SOL    HW2 4616   6.784   5.730   6.830
  948SOL     OW 4617   7.656   7.865   7.618
  948SOL    HW1 4618   7.606   7.945   7.631
  948SOL    HW2 4619   7.621   7.827   7.538
  949SOL     OW 4620  10.039   5.244   0.736
  949SOL    HW1 4621  10.000   5.187   0.801
  949SOL    HW2 4622  10.011   5.332   0.760
  950SOL     OW 4623  12.461   6.265   1.161
  950SOL    HW1 4624  12.425   6.297   1.243
  950SOL    HW2 4625  12.420   6.180   1.148
  951SOL     OW 4626   8.125   9.569   7.414
  951SOL    HW1 4627   8.095   9.512   7.485
  951SOL    HW2 4628   8.217   9.546   7.403
  952SOL     OW 4629   8.479  10.696  12.461
  952SOL    HW1 4630   8.559  10.746  12.475
  952SOL    HW2 4631   8.508  10.605  12.456
  953SOL     OW 4632   2.026  11.438  10.887
  953SOL    HW1 4633   2.021  11.533  10.894
  953SOL    HW2 4634   1.935  11.408  10.885
  954SOL     OW 4635   0.329   3.642   5.954
  954SOL    HW1 4636   0.381   3.711   5.994
  954SOL    HW2 4637   0.314   3.579   6.024
  955SOL     OW 4638   1.110   1.480  13.536
  955SOL    HW1 4639   1.018   1.494  13.514
  955SOL    HW2 4640   1.155   1.556  13.499
  956SOL     OW 4641   3.612   4.825   8.608
  956SOL    HW1 4642   3.622   4.918   8.626
  956SOL    HW2 4643   3.575   4.822   8.520
  957SOL     OW 4644   8.214   4.825   1.803
  957SOL    HW1 4645   8.129   4.827   1.758
  957SOL    HW2 4646   8.240   4.917   1.810
  958SOL     OW 4647   3.504   0.870  10.979
  958SOL    HW1 4648   3.565   0.921  10.926
  958SOL    HW2 4649   3.447   0.935  11.020
  959SOL     OW 4650   9.276  13.844   8.905
  959SOL    HW1 4651   9.242  13.883   8.825
  959SOL    HW2 4652   9.355  13.797   8.877
  960SOL     OW 4653   6.206  10.957  14.049
  960SOL    HW1 4654   6.301  10.956  14.046
  960SOL    HW2 4655   6.184  11.040  14.091
  961SOL     OW 4656  13.148   2.282   5.849
  961SOL    HW1 4657  13.184   2.194   5.839
  961SOL    HW2 4658  13.067   2.269   5.898
  962SOL     OW 4659   7.463   5.100   6.843
  962SOL    HW1 4660   7.535   5.116   6.783
  962SOL    HW2 4661   7.396   5.058   6.789
  963SOL     OW 4662   1.385   2.034   6.095
  963SOL    HW1 4663   1.330   2.113   6.103
  963SOL    HW2 4664   1.394   2.022   6.001
  964SOL     OW 4665   2.504   3.154  13.585
  964SOL    HW1 4666   2.479   3.194  13.669
  964SOL    HW2 4667   2.580   3.100  13.605
  965SOL     OW 4668   2.112   3.970   5.102
  965SOL    HW1 4669   2.099   4.031   5.031
  965SOL    HW2 4670   2.076   4.014   5.179
  966SOL     OW 4671   9.514   0.073   9.239
  966SOL    HW1 4672   9.546   0.033   9.320
  966SOL    HW2 4673   9.539   0.012   9.170
  967SOL     OW 4674   7.827  12.777   3.510
  967SOL    HW1 4675   7.831  12.740   3.422
  967SOL    HW2 4676   7.792  12.706   3.564
  968SOL     OW 4677   6.477   2.273   3.371
  968SOL    HW1 4678   6.423   2.347   3.398
  968SOL    HW2 4679   6.565   2.308   3.365
  969SOL     OW 4680  11.799   6.907  12.597
  969SOL    HW1 4681  11.887   6.871  12.590
  969SOL    HW2 4682  11.758   6.856  12.667
  970SOL     OW 4683  11.718   0.481  14.634
  970SOL    HW1 4684  11.800   0.499  14.587
  970SOL    HW2 4685  11.714   0.386  14.640
  971SOL     OW 4686   3.567   9.819   7.715
  971SOL    HW1 4687   3.557   9.910   7.687
  971SOL    HW2 4688   3.656   9.815   7.752
  972SOL     OW 4689   8.044   8.132   4.453
  972SOL    HW1 4690   8.046   8.197   4.383
  972SOL    HW2 4691   7.993   8.174   4.523
  973SOL     OW 4692   9.477  10.145   6.659
  973SOL    HW1 4693   9.391  10.135   6.700
  973SOL    HW2 4694   9.539  10.131   6.729
  974SOL     OW 4695   1.654  10.063  10.716
  974SOL    HW1 4696   1.720  10.102  10.659
  974SOL    HW2 4697   1.674   9.969  10.716
  975SOL     OW 4698  14.150  11.098  14.813
  975SOL    HW1 4699  14.097  11.053   0.002
  975SOL    HW2 4700  14.215  11.034  14.786
  976SOL     OW 4701  11.575  10.335   2.224
  976SOL    HW1 4702  11.561  10.387   2.145
  976SOL    HW2 4703  11.490  10.336   2.268
  977SOL     OW 4704   7.444   4.612   6.291
  977SOL    HW1 4705   7.354   4.580   6.285
  977SOL    HW2 4706   7.445   4.692   6.238
  978SOL     OW 4707   1.429  11.233   4.260
  978SOL    HW1 4708   1.449  11.175   4.334
  978SOL    HW2 4709   1.490  11.207   4.192
  979SOL     OW 4710   1.137   4.198   3.714
  979SOL    HW1 4711   1.095   4.202   3.800
  979SOL    HW2 4712   1.227   4.173   3.732
  980SOL     OW 4713  10.293  10.148  13.485
  980SOL    HW1 4714  10.212  10.108  13.517
  980SOL    HW2 4715  10.327  10.196  13.560
  981SOL     OW 4716  11.699  10.501  14.271
  981SOL    HW1 4717  11.758  10.481  14.198
  981SOL    HW2 4718  11.621  10.539  14.229
  982SOL     OW 4719   9.003  14.218   0.606
  982SOL    HW1 4720   8.966  14.230   0.693
  982SOL    HW2 4721   8.927  14.217   0.548
  983SOL     OW 4722  11.601  12.954  12.273
  983SOL    HW1 4723  11.519  13.000  12.255
  983SOL    HW2 4724  11.658  13.021  12.312
  984SOL     OW 4725  14.414   9.750   7.671
  984SOL    HW1 4726  14.425   9.793   7.586
  984SOL    HW2 4727  14.322   9.765   7.694
  985SOL     OW 4728  12.291   8.673   7.734
  985SOL    HW1 4729  12.304   8.767   7.718
  985SOL    HW2 4730  12.195   8.662   7.731
  986SOL     OW 4731   0.716   3.040   7.463
  986SOL    HW1 4732   0.663   2.966   7.432
  986SOL    HW2 4733   0.656   3.092   7.516
  987SOL     OW 4734   3.985   3.120  10.811
  987SOL    HW1 4735   4.050   3.141  10.744
  987SOL    HW2 4736   3.966   3.027  10.799
  988SOL     OW 4737   8.895  14.132   6.668
  988SOL    HW1 4738   8.948  14.210   6.653
  988SOL    HW2 4739   8.940  14.086   6.739
  989SOL     OW 4740  11.462  12.875   0.560
  989SOL    HW1 4741  11.388  12.928   0.529
  989SOL    HW2 4742  11.445  12.788   0.524
  990SOL     OW 4743  13.530   2.321  12.281
  990SOL    HW1 4744  13.468   2.394  12.282
  990SOL    HW2 4745  13.615   2.362  12.297
  991SOL     OW 4746   6.962   2.654  10.716
  991SOL    HW1 4747   6.906   2.643  10.792
  991SOL    HW2 4748   6.936   2.583  10.657
  992SOL     OW 4749  12.731   2.661   4.997
  992SOL    HW1 4750  12.763   2.573   4.977
  992SOL    HW2 4751  12.685   2.689   4.918
  993SOL     OW 4752   6.758   1.033   5.912
  993SOL    HW1 4753   6.815   1.098   5.870
  993SOL    HW2 4754   6.808   1.003   5.988
  994SOL     OW 4755   5.311   9.908   8.595
  994SOL    HW1 4756   5.357   9.966   8.655
  994SOL    HW2 4757   5.371   9.834   8.582
  995SOL     OW 4758  13.990  10.060   5.207
  995SOL    HW1 4759  14.082  10.084   5.219
  995SOL    HW2 4760  13.991   9.991   5.140
  996SOL     OW 4761   7.017   1.052   2.866
  996SOL    HW1 4762   7.029   0.989   2.795
  996SOL    HW2 4763   7.039   1.137   2.827
  997SOL     OW 4764  12.256   7.933   8.908
  997SOL    HW1 4765  12.290   7.947   8.819
  997SOL    HW2 4766  12.194   8.005   8.921
  998SOL     OW 4767   1.222   0.798   6.030
  998SOL    HW1 4768   1.261   0.712   6.013
  998SOL    HW2 4769   1.134   0.792   5.993
  999SOL     OW 4770   6.488   0.500  10.474
  999SOL    HW1 4771   6.565   0.475  10.525
  999SOL    HW2 4772   6.478   0.429  10.410
 1000SOL     OW 4773   0.270  14.738  10.996
 1000SOL    HW1 4774   0.280  14.833  10.994
 1000SOL    HW2 4775   0.245  14.718  11.087
 1001SOL     OW 4776   7.999   2.767   5.651
 1001SOL    HW1 4777   8.092   2.787   5.662
 1001SOL    HW2 4778   7.954   2.849   5.669
 1002SOL     OW 4779   7.997   5.420  14.598
 1002SOL    HW1 4780   8.048   5.482  14.546
 1002SOL    HW2 4781   8.061   5.359  14.632
 1003SOL     OW 4782   2.923   3.246   4.462
 1003SOL    HW1 4783   2.866   3.317   4.493
 1003SOL    HW2 4784   3.004   3.257   4.511
 1004SOL     OW 4785   3.889   2.807   1.872
 1004SOL    HW1 4786   3.916   2.789   1.782
 1004SOL    HW2 4787   3.952   2.758   1.926
 1005SOL     OW 4788  13.307   0.023  11.871
 1005SOL    HW1 4789  13.384   0.075  11.897
 1005SOL    HW2 4790  13.234   0.064  11.918
 1006SOL     OW 4791   8.539   6.425   1.868
 1006SOL    HW1 4792   8.602   6.375   1.919
 1006SOL    HW2 4793   8.483   6.360   1.827
 1007SOL     OW 4794   7.735   2.034   8.008
 1007SOL    HW1 4795   7.663   1.989   8.054
 1007SOL    HW2 4796   7.731   1.999   7.919
 1008SOL     OW 4797   6.512  12.995   3.274
 1008SOL    HW1 4798   6.607  12.990   3.270
 1008SOL    HW2 4799   6.483  12.904   3.268
 1009SOL     OW 4800   8.878  11.062   8.687
 1009SOL    HW1 4801   8.802  11.120   8.694
 1009SOL    HW2 4802   8.845  10.984   8.642
 1010SOL     OW 4803  11.138   9.617  13.828
 1010SOL    HW1 4804  11.160   9.637  13.737
 1010SOL    HW2 4805  11.169   9.528  13.842
 1011SOL     OW 4806  13.868   4.753   9.593
 1011SOL    HW1 4807  13.897   4.842   9.575
 1011SOL    HW2 4808  13.791   4.765   9.650
 1012SOL     OW 4809   3.533   7.070  14.029
 1012SOL    HW1 4810   3.514   6.976  14.028
 1012SOL    HW2 4811   3.576   7.085  14.113
 1013SOL     OW 4812  11.698   8.181  13.512
 1013SOL    HW1 4813  11.609   8.214  13.523
 1013SOL    HW2 4814  11.706   8.112  13.578
 1014SOL     OW 4815  13.054   9.287  12.435
 1014SOL    HW1 4816  13.118   9.270  12.366
 1014SOL    HW2 4817  13.094   9.354  12.490
 1015SOL     OW 4818   6.823   6.496   5.879
 1015SOL    HW1 4819   6.789   6.441   5.950
 1015SOL    HW2 4820   6.750   6.554   5.857
 1016SOL     OW 4821   7.216   8.007   0.743
 1016SOL    HW1 4822   7.237   7.965   0.826
 1016SOL    HW2 4823   7.301   8.036   0.709
 1017SOL     OW 4824   3.394   8.192   8.684
 1017SOL    HW1 4825   3.380   8.100   8.705
 1017SOL    HW2 4826   3.484   8.196   8.651
 1018SOL     OW 4827  11.695  14.190  12.751
 1018SOL    HW1 4828  11.662  14.168  12.663
 1018SOL    HW2 4829  11.701  14.285  12.752
 1019SOL     OW 4830   0.882   7.762   6.562
 1019SOL    HW1 4831   0.941   7.796   6.495
 1019SOL    HW2 4832   0.851   7.678   6.528
 1020SOL     OW 4833   8.449   2.674  10.579
 1020SOL    HW1 4834   8.533   2.690  10.624
 1020SOL    HW2 4835   8.423   2.760  10.547
 1021SOL     OW 4836   8.239  12.778   4.750
 1021SOL    HW1 4837   8.247  12.818   4.837
 1021SOL    HW2 4838   8.161  12.723   4.756
 1022SOL     OW 4839   0.929   0.917  10.922
 1022SOL    HW1 4840   1.019   0.896  10.949
 1022SOL    HW2 4841   0.911   1.001  10.965
 1023SOL     OW 4842   3.142   1.592   5.072
 1023SOL    HW1 4843   3.049   1.591   5.096
 1023SOL    HW2 4844   3.184   1.640   5.143
 1024SOL     OW 4845   4.606   4.872   1.053
 1024SOL    HW1 4846   4.524   4.918   1.033
 1024SOL    HW2 4847   4.656   4.875   0.972
 1025SOL     OW 4848   1.849   0.363   8.845
 1025SOL    HW1 4849   1.807   0.420   8.780
 1025SOL    HW2 4850   1.794   0.284   8.847
 1026SOL     OW 4851   2.620  14.555   1.754
 1026SOL    HW1 4852   2.689  14.621   1.758
 1026SOL    HW2 4853   2.576  14.562   1.839
 1027SOL     OW 4854   3.593   9.226   1.116
 1027SOL    HW1 4855   3.560   9.136   1.120
 1027SOL    HW2 4856   3.625   9.235   1.026
 1028SOL     OW 4857  12.917  14.183   1.536
 1028SOL    HW1 4858  12.881  14.256   1.587
 1028SOL    HW2 4859  12.969  14.226   1.468
 1029SOL     OW 4860  14.680   6.349   9.379
 1029SOL    HW1 4861  14.587   6.327   9.384
 1029SOL    HW2 4862  14.719   6.307   9.456
 1030SOL     OW 4863  11.960   2.646  12.798
 1030SOL    HW1 4864  11.958   2.693  12.881
 1030SOL    HW2 4865  12.052   2.625  12.784
 1031SOL     OW 4866   0.461   5.139   1.270
 1031SOL    HW1 4867   0.410   5.073   1.317
 1031SOL    HW2 4868   0.480   5.099   1.185
 1032SOL     OW 4869   0.710  12.232   7.032
 1032SOL    HW1 4870   0.705  12.144   6.995
 1032SOL    HW2 4871   0.698  12.219   7.126
 1033SOL     OW 4872   8.895   0.802  12.728
 1033SOL    HW1 4873   8.807   0.838  12.735
 1033SOL    HW2 4874   8.885   0.722  12.677
 1034SOL     OW 4875  12.228   5.706  10.974
 1034SOL    HW1 4876  12.252   5.762  10.900
 1034SOL    HW2 4877  12.233   5.763  11.051
 1035SOL     OW 4878  11.133  13.015   6.370
 1035SOL    HW1 4879  11.039  13.005   6.381
 1035SOL    HW2 4880  11.144  13.050   6.282
 1036SOL     OW 4881   8.339   3.802  10.199
 1036SOL    HW1 4882   8.314   3.860  10.271
 1036SOL    HW2 4883   8.270   3.813  10.134
 1037SOL     OW 4884   8.879   4.481   9.734
 1037SOL    HW1 4885   8.870   4.432   9.652
 1037SOL    HW2 4886   8.971   4.471   9.758
 1038SOL     OW 4887   9.381   8.205  10.970
 1038SOL    HW1 4888   9.439   8.232  10.898
 1038SOL    HW2 4889   9.440   8.190  11.044
 1039SOL     OW 4890   9.961  10.331   7.326
 1039SOL    HW1 4891  10.025  10.267   7.356
 1039SOL    HW2 4892   9.876  10.296   7.355
 1040SOL     OW 4893   9.124  10.147   8.737
 1040SOL    HW1 4894   9.142  10.157   8.831
 1040SOL    HW2 4895   9.033  10.116   8.734
 1041SOL     OW 4896  11.842   8.341   3.652
 1041SOL    HW1 4897  11.795   8.422   3.673
 1041SOL    HW2 4898  11.818   8.323   3.561
 1042SOL     OW 4899   2.955  12.956   4.338
 1042SOL    HW1 4900   2.901  12.879   4.357
 1042SOL    HW2 4901   2.964  12.956   4.243
 1043SOL     OW 4902   2.227  12.674  10.265
 1043SOL    HW1 4903   2.216  12.766  10.241
 1043SOL    HW2 4904   2.174  12.626  10.201
 1044SOL     OW 4905   5.061   3.557  10.425
 1044SOL    HW1 4906   4.993   3.491  10.418
 1044SOL    HW2 4907   5.124   3.535  10.356
 1045SOL     OW 4908   7.601   3.739   7.046
 1045SOL    HW1 4909   7.521   3.691   7.030
 1045SOL    HW2 4910   7.611   3.739   7.142
 1046SOL     OW 4911   7.231   3.994   7.607
 1046SOL    HW1 4912   7.218   3.938   7.684
 1046SOL    HW2 4913   7.270   3.937   7.542
 1047SOL     OW 4914  11.673  12.782   9.201
 1047SOL    HW1 4915  11.613  12.856   9.213
 1047SOL    HW2 4916  11.716  12.800   9.117
 1048SOL     OW 4917   9.682  13.650   5.901
 1048SOL    HW1 4918   9.682  13.675   5.993
 1048SOL    HW2 4919   9.773  13.626   5.882
 1049SOL     OW 4920   8.165   3.998   0.336
 1049SOL    HW1 4921   8.132   4.085   0.359
 1049SOL    HW2 4922   8.246   3.990   0.387
 1050SOL     OW 4923  13.459   5.226   8.956
 1050SOL    HW1 4924  13.429   5.317   8.953
 1050SOL    HW2 4925  13.508   5.214   8.875
 1051SOL     OW 4926   7.104  14.311   6.811
 1051SOL    HW1 4927   7.015  14.346   6.816
 1051SOL    HW2 4928   7.095  14.219   6.835
 1052SOL     OW 4929   9.372   4.856   1.651
 1052SOL    HW1 4930   9.331   4.788   1.599
 1052SOL    HW2 4931   9.298   4.901   1.693
 1053SOL     OW 4932   4.207   5.614  12.494
 1053SOL    HW1 4933   4.162   5.622  12.409
 1053SOL    HW2 4934   4.271   5.685  12.493
 1054SOL     OW 4935  11.558  14.721  12.631
 1054SOL    HW1 4936  11.517  14.779  12.567
 1054SOL    HW2 4937  11.488  14.701  12.694
 1055SOL     OW 4938  14.704  11.170   0.460
 1055SOL    HW1 4939  14.750  11.117   0.525
 1055SOL    HW2 4940  14.625  11.200   0.506
 1056SOL     OW 4941   9.600  11.406  12.330
 1056SOL    HW1 4942   9.636  11.494  12.344
 1056SOL    HW2 4943   9.598  11.396  12.235
 1057SOL     OW 4944   2.171   7.641   7.052
 1057SOL    HW1 4945   2.171   7.684   6.967
 1057SOL    HW2 4946   2.136   7.554   7.035
 1058SOL     OW 4947  11.472   4.073   1.683
 1058SOL    HW1 4948  11.513   4.153   1.650
 1058SOL    HW2 4949  11.545   4.020   1.715
 1059SOL     OW 4950   8.637  13.622  10.238
 1059SOL    HW1 4951   8.567  13.653  10.181
 1059SOL    HW2 4952   8.623  13.527  10.243
 1060SOL     OW 4953   1.313  12.111  10.620
 1060SOL    HW1 4954   1.291  12.073  10.535
 1060SOL    HW2 4955   1.348  12.198  10.598
 1061SOL     OW 4956   4.650   6.768   3.383
 1061SOL    HW1 4957   4.577   6.729   3.334
 1061SOL    HW2 4958   4.624   6.860   3.394
 1062SOL     OW 4959  10.645   9.934   6.357
 1062SOL    HW1 4960  10.703   9.948   6.432
 1062SOL    HW2 4961  10.669   9.848   6.324
 1063SOL     OW 4962   8.120  10.245  10.324
 1063SOL    HW1 4963   8.137  10.288  10.408
 1063SOL    HW2 4964   8.151  10.155  10.337
 1064SOL     OW 4965  12.670   1.383  12.680
 1064SOL    HW1 4966  12.696   1.343  12.597
 1064SOL    HW2 4967  12.735   1.453  12.693
 1065SOL     OW 4968  10.567  14.257   3.002
 1065SOL    HW1 4969  10.634  14.325   2.995
 1065SOL    HW2 4970  10.535  14.246   2.913
 1066SOL     OW 4971   3.649   6.423   1.923
 1066SOL    HW1 4972   3.571   6.402   1.873
 1066SOL    HW2 4973   3.710   6.459   1.859
 1067SOL     OW 4974   1.630  12.153   6.719
 1067SOL    HW1 4975   1.673  12.075   6.686
 1067SOL    HW2 4976   1.537  12.139   6.702
 1068SOL     OW 4977   3.050  11.181   4.165
 1068SOL    HW1 4978   2.973  11.196   4.220
 1068SOL    HW2 4979   3.018  11.189   4.075
 1069SOL     OW 4980   0.954   2.097   3.463
 1069SOL    HW1 4981   0.860   2.080   3.465
 1069SOL    HW2 4982   0.961   2.191   3.446
 1070SOL     OW 4983   9.631   8.883   5.006
 1070SOL    HW1 4984   9.704   8.942   4.991
 1070SOL    HW2 4985   9.553   8.934   4.983
 1071SOL     OW 4986  10.621  10.713   7.636
 1071SOL    HW1 4987  10.583  10.729   7.550
 1071SOL    HW2 4988  10.653  10.623   7.632
 1072SOL     OW 4989   8.397   0.709   5.060
 1072SOL    HW1 4990   8.342   0.771   5.107
 1072SOL    HW2 4991   8.386   0.626   5.106
 1073SOL     OW 4992  13.812   4.380  10.181
 1073SOL    HW1 4993  13.816   4.289  10.152
 1073SOL    HW2 4994  13.902   4.402  10.205
 1074SOL     OW 4995   8.825  11.384   0.189
 1074SOL    HW1 4996   8.859  11.335   0.264
 1074SOL    HW2 4997   8.737  11.349   0.174
 1075SOL     OW 4998   2.848   1.366   8.106
 1075SOL    HW1 4999   2.872   1.279   8.138
 1075SOL    HW2 5000   2.805   1.408   8.180
 1076SOL     OW 5001   2.657   2.090   3.592
 1076SOL    HW1 5002   2.690   2.171   3.555
 1076SOL    HW2 5003   2.563   2.104   3.600
 1077SOL     OW 5004   0.314   5.078   4.213
 1077SOL    HW1 5005   0.228   5.095   4.251
 1077SOL    HW2 5006   0.356   5.164   4.209
 1078SOL     OW 5007  12.408   1.204   6.428
 1078SOL    HW1 5008  12.359   1.285   6.412
 1078SOL    HW2 5009  12.342   1.142   6.458
 1079SOL     OW 5010  14.474   8.114   5.176
 1079SOL    HW1 5011  14.567   8.101   5.197
 1079SOL    HW2 5012  14.440   8.025   5.164
 1080SOL     OW 5013  14.092   2.408  10.527
 1080SOL    HW1 5014  14.020   2.456  10.486
 1080SOL    HW2 5015  14.049   2.346  10.586
 1081SOL     OW 5016   4.752  13.631   0.033
 1081SOL    HW1 5017   4.665  13.590   0.027
 1081SOL    HW2 5018   4.741  13.699   0.099
 1082SOL     OW 5019  12.181   2.908  11.157
 1082SOL    HW1 5020  12.276   2.897  11.151
 1082SOL    HW2 5021  12.145   2.824  11.128
 1083SOL     OW 5022  10.939   2.370   2.065
 1083SOL    HW1 5023  10.970   2.457   2.040
 1083SOL    HW2 5024  11.013   2.312   2.046
 1084SOL     OW 5025   5.479   2.627   2.789
 1084SOL    HW1 5026   5.508   2.697   2.847
 1084SOL    HW2 5027   5.392   2.604   2.821
 1085SOL     OW 5028   8.927  13.877   1.900
 1085SOL    HW1 5029   9.008  13.833   1.927
 1085SOL    HW2 5030   8.858  13.832   1.948
 1086SOL     OW 5031  12.412   6.791   9.104
 1086SOL    HW1 5032  12.383   6.722   9.045
 1086SOL    HW2 5033  12.469   6.847   9.051
 1087SOL     OW 5034   3.338  11.557   9.334
 1087SOL    HW1 5035   3.362  11.475   9.290
 1087SOL    HW2 5036   3.244  11.565   9.320
 1088SOL     OW 5037   1.665   9.338   5.522
 1088SOL    HW1 5038   1.754   9.315   5.548
 1088SOL    HW2 5039   1.612   9.263   5.549
 1089SOL     OW 5040  14.762   1.245  11.762
 1089SOL    HW1 5041  14.736   1.154  11.772
 1089SOL    HW2 5042  14.823   1.245  11.688
 1090SOL     OW 5043  14.280  11.166   6.624
 1090SOL    HW1 5044  14.258  11.075   6.641
 1090SOL    HW2 5045  14.368  11.164   6.586
 1091SOL     OW 5046   7.175  13.540   6.862
 1091SOL    HW1 5047   7.095  13.532   6.810
 1091SOL    HW2 5048   7.193  13.634   6.864
 1092SOL     OW 5049   3.733   4.228  11.895
 1092SOL    HW1 5050   3.817   4.190  11.921
 1092SOL    HW2 5051   3.706   4.281  11.970
 1093SOL     OW 5052   5.628   4.118   7.339
 1093SOL    HW1 5053   5.560   4.148   7.399
 1093SOL    HW2 5054   5.637   4.188   7.275
 1094SOL     OW 5055   8.768  11.305   6.546
 1094SOL    HW1 5056   8.769  11.391   6.505
 1094SOL    HW2 5057   8.812  11.247   6.484
 1095SOL     OW 5058   0.266  12.468   8.134
 1095SOL    HW1 5059   0.297  12.552   8.100
 1095SOL    HW2 5060   0.189  12.490   8.187
 1096SOL     OW 5061   9.549  10.959   3.281
 1096SOL    HW1 5062   9.559  11.053   3.266
 1096SOL    HW2 5063   9.609  10.939   3.353
 1097SOL     OW 5064   9.963  11.875  13.615
 1097SOL    HW1 5065   9.915  11.873  13.698
 1097SOL    HW2 5066   9.945  11.962  13.579
 1098SOL     OW 5067   5.100   2.102   3.065
 1098SOL    HW1 5068   5.028   2.042   3.049
 1098SOL    HW2 5069   5.058   2.186   3.083
 1099SOL     OW 5070   7.901   6.804   6.698
 1099SOL    HW1 5071   7.936   6.743   6.763
 1099SOL    HW2 5072   7.968   6.871   6.690
 1100SOL     OW 5073   7.801   0.164   5.912
 1100SOL    HW1 5074   7.831   0.087   5.959
 1100SOL    HW2 5075   7.759   0.219   5.979
 1101SOL     OW 5076  14.152  12.305   5.192
 1101SOL    HW1 5077  14.134  12.372   5.127
 1101SOL    HW2 5078  14.215  12.247   5.150
 1102SOL     OW 5079   2.198   7.348   2.856
 1102SOL    HW1 5080   2.238   7.267   2.826
 1102SOL    HW2 5081   2.257   7.418   2.827
 1103SOL     OW 5082   0.478   2.808   1.426
 1103SOL    HW1 5083   0.536   2.742   1.465
 1103SOL    HW2 5084   0.537   2.877   1.396
 1104SOL     OW 5085   1.997   3.750   9.383
 1104SOL    HW1 5086   1.934   3.761   9.454
 1104SOL    HW2 5087   2.076   3.719   9.426
 1105SOL     OW 5088   0.450  13.555   9.337
 1105SOL    HW1 5089   0.482  13.522   9.421
 1105SOL    HW2 5090   0.514  13.623   9.313
 1106SOL     OW 5091   0.196   6.328   7.269
 1106SOL    HW1 5092   0.226   6.369   7.350
 1106SOL    HW2 5093   0.100   6.329   7.276
 1107SOL     OW 5094   9.202   4.095   4.014
 1107SOL    HW1 5095   9.111   4.083   3.986
 1107SOL    HW2 5096   9.254   4.069   3.939
 1108SOL     OW 5097   2.907  13.607   5.342
 1108SOL    HW1 5098   2.895  13.659   5.263
 1108SOL    HW2 5099   2.823  13.613   5.388
 1109SOL     OW 5100   2.846   7.528  11.457
 1109SOL    HW1 5101   2.847   7.624  11.457
 1109SOL    HW2 5102   2.928   7.503  11.498
 1110SOL     OW 5103   0.391   0.981  10.268
 1110SOL    HW1 5104   0.450   0.965  10.341
 1110SOL    HW2 5105   0.449   1.002  10.194
 1111SOL     OW 5106   2.439   1.242   9.000
 1111SOL    HW1 5107   2.372   1.260   8.935
 1111SOL    HW2 5108   2.462   1.150   8.986
 1112SOL     OW 5109   4.716   7.669   6.903
 1112SOL    HW1 5110   4.646   7.626   6.853
 1112SOL    HW2 5111   4.786   7.604   6.905
 1113SOL     OW 5112  10.840   0.055  14.282
 1113SOL    HW1 5113  10.895   0.052  14.204
 1113SOL    HW2 5114  10.848   0.146  14.313
 1114SOL     OW 5115   1.972   4.219  10.979
 1114SOL    HW1 5116   1.935   4.305  10.960
 1114SOL    HW2 5117   1.897   4.160  10.980
 1115SOL     OW 5118   9.736   1.946   5.205
 1115SOL    HW1 5119   9.717   1.873   5.146
 1115SOL    HW2 5120   9.765   2.016   5.147
 1116SOL     OW 5121  10.616   6.893   8.447
 1116SOL    HW1 5122  10.555   6.961   8.475
 1116SOL    HW2 5123  10.627   6.908   8.353
 1117SOL     OW 5124   8.859   3.920   5.744
 1117SOL    HW1 5125   8.767   3.910   5.769
 1117SOL    HW2 5126   8.886   3.831   5.718
 1118SOL     OW 5127   2.425   4.080   6.606
 1118SOL    HW1 5128   2.510   4.067   6.648
 1118SOL    HW2 5129   2.437   4.047   6.517
 1119SOL     OW 5130   4.308   7.713   7.979
 1119SOL    HW1 5131   4.377   7.749   8.035
 1119SOL    HW2 5132   4.233   7.769   7.995
 1120SOL     OW 5133   3.294  10.456  12.717
 1120SOL    HW1 5134   3.231  10.386  12.700
 1120SOL    HW2 5135   3.265  10.495  12.799
 1121SOL     OW 5136   9.190   9.042  11.278
 1121SOL    HW1 5137   9.175   9.021  11.370
 1121SOL    HW2 5138   9.262   8.985  11.252
 1122SOL     OW 5139   5.008   5.295   6.656
 1122SOL    HW1 5140   4.978   5.222   6.601
 1122SOL    HW2 5141   5.067   5.254   6.719
 1123SOL     OW 5142   5.585   6.624  11.355
 1123SOL    HW1 5143   5.627   6.549  11.315
 1123SOL    HW2 5144   5.575   6.600  11.448
 1124SOL     OW 5145  12.786   2.028   2.211
 1124SOL    HW1 5146  12.852   1.967   2.179
 1124SOL    HW2 5147  12.789   2.102   2.151
 1125SOL     OW 5148  13.427  10.390  14.570
 1125SOL    HW1 5149  13.469  10.390  14.655
 1125SOL    HW2 5150  13.452  10.307  14.530
 1126SOL     OW 5151   3.653   6.723  10.722
 1126SOL    HW1 5152   3.627   6.806  10.682
 1126SOL    HW2 5153   3.589   6.660  10.690
 1127SOL     OW 5154   2.222   2.418  12.712
 1127SOL    HW1 5155   2.218   2.370  12.795
 1127SOL    HW2 5156   2.255   2.504  12.735
 1128SOL     OW 5157  11.653  11.092   5.010
 1128SOL    HW1 5158  11.688  11.011   4.974
 1128SOL    HW2 5159  11.620  11.067   5.097
 1129SOL     OW 5160   9.395   6.237   4.031
 1129SOL    HW1 5161   9.331   6.294   4.075
 1129SOL    HW2 5162   9.432   6.291   3.962
 1130SOL     OW 5163  13.968   0.233  12.916
 1130SOL    HW1 5164  14.028   0.293  12.961
 1130SOL    HW2 5165  13.940   0.171  12.983
 1131SOL     OW 5166  13.209  11.286   3.351
 1131SOL    HW1 5167  13.137  11.347   3.369
 1131SOL    HW2 5168  13.288  11.339   3.361
 1132SOL     OW 5169  11.517   7.786  14.236
 1132SOL    HW1 5170  11.493   7.810  14.326
 1132SOL    HW2 5171  11.477   7.854  14.182
 1133SOL     OW 5172   7.016   4.908   4.137
 1133SOL    HW1 5173   6.989   4.929   4.226
 1133SOL    HW2 5174   7.096   4.856   4.148
 1134SOL     OW 5175   1.754  10.783  12.918
 1134SOL    HW1 5176   1.692  10.783  12.845
 1134SOL    HW2 5177   1.799  10.868  12.911
 1135SOL     OW 5178   7.520   5.086  11.725
 1135SOL    HW1 5179   7.506   5.166  11.775
 1135SOL    HW2 5180   7.488   5.016  11.781
 1136SOL     OW 5181   5.666   7.042   4.462
 1136SOL    HW1 5182   5.756   7.073   4.467
 1136SOL    HW2 5183   5.614   7.116   4.494
 1137SOL     OW 5184  14.518   5.382   8.767
 1137SOL    HW1 5185  14.477   5.467   8.751
 1137SOL    HW2 5186  14.569   5.364   8.688
 1138SOL     OW 5187  13.539  14.622  10.315
 1138SOL    HW1 5188  13.597  14.673  10.371
 1138SOL    HW2 5189  13.512  14.548  10.369
 1139SOL     OW 5190   3.304  11.673   8.256
 1139SOL    HW1 5191   3.335  11.582   8.247
 1139SOL    HW2 5192   3.215  11.665   8.290
 1140SOL     OW 5193   6.797  14.478   8.508
 1140SOL    HW1 5194   6.778  14.460   8.600
 1140SOL    HW2 5195   6.839  14.398   8.476
 1141SOL     OW 5196   2.401  13.063   2.929
 1141SOL    HW1 5197   2.353  13.131   2.976
 1141SOL    HW2 5198   2.336  13.023   2.872
 1142SOL     OW 5199  10.811  11.288  11.482
 1142SOL    HW1 5200  10.755  11.275  11.558
 1142SOL    HW2 5201  10.754  11.324  11.415
 1143SOL     OW 5202  13.115  13.993   1.549
 1143SOL    HW1 5203  13.074  13.917   1.591
 1143SOL    HW2 5204  13.042  14.054   1.534
 1144SOL     OW 5205   9.482  10.088   1.968
 1144SOL    HW1 5206   9.395  10.114   1.998
 1144SOL    HW2 5207   9.494  10.134   1.885
 1145SOL     OW 5208  12.563  13.073   2.013
 1145SOL    HW1 5209  12.493  13.088   1.950
 1145SOL    HW2 5210  12.639  13.119   1.977
 1146SOL     OW 5211   1.530  14.679   1.068
 1146SOL    HW1 5212   1.591  14.669   1.141
 1146SOL    HW2 5213   1.515  14.590   1.038
 1147SOL     OW 5214   7.921  13.628   9.699
 1147SOL    HW1 5215   7.978  13.552   9.685
 1147SOL    HW2 5216   7.891  13.652   9.612
 1148SOL     OW 5217   3.552  12.152   5.858
 1148SOL    HW1 5218   3.496  12.230   5.858
 1148SOL    HW2 5219   3.610  12.164   5.932
 1149SOL     OW 5220   3.232   8.158   8.256
 1149SOL    HW1 5221   3.186   8.202   8.185
 1149SOL    HW2 5222   3.258   8.073   8.220
 1150SOL     OW 5223   2.978   3.511   5.480
 1150SOL    HW1 5224   2.930   3.550   5.407
 1150SOL    HW2 5225   3.024   3.436   5.441
 1151SOL     OW 5226  14.017   5.330   0.594
 1151SOL    HW1 5227  13.929   5.292   0.587
 1151SOL    HW2 5228  14.068   5.263   0.640
 1152SOL     OW 5229   6.783   7.747   1.145
 1152SOL    HW1 5230   6.818   7.831   1.176
 1152SOL    HW2 5231   6.753   7.766   1.056
 1153SOL     OW 5232   7.515  14.579   5.665
 1153SOL    HW1 5233   7.582  14.634   5.705
 1153SOL    HW2 5234   7.559  14.537   5.591
 1154SOL     OW 5235   6.052   2.596   7.116
 1154SOL    HW1 5236   6.114   2.575   7.186
 1154SOL    HW2 5237   5.972   2.623   7.161
 1155SOL     OW 5238  10.490  14.058   3.924
 1155SOL    HW1 5239  10.462  14.054   4.015
 1155SOL    HW2 5240  10.409  14.070   3.875
 1156SOL     OW 5241   1.529   3.799  10.249
 1156SOL    HW1 5242   1.554   3.794  10.157
 1156SOL    HW2 5243   1.434   3.812  10.248
 1157SOL     OW 5244  10.283   2.935   0.909
 1157SOL    HW1 5245  10.304   2.957   0.819
 1157SOL    HW2 5246  10.328   3.003   0.961
 1158SOL     OW 5247   4.567   9.349   6.794
 1158SOL    HW1 5248   4.517   9.290   6.850
 1158SOL    HW2 5249   4.600   9.417   6.854
 1159SOL     OW 5250   8.297   5.277  12.507
 1159SOL    HW1 5251   8.219   5.242  12.464
 1159SOL    HW2 5252   8.263   5.335  12.575
 1160SOL     OW 5253  14.581   4.870   5.001
 1160SOL    HW1 5254  14.565   4.835   5.088
 1160SOL    HW2 5255  14.673   4.850   4.983
 1161SOL     OW 5256   3.786  12.645   6.284
 1161SOL    HW1 5257   3.832  12.729   6.289
 1161SOL    HW2 5258   3.719  12.650   6.351
 1162SOL     OW 5259   9.256  11.760   9.116
 1162SOL    HW1 5260   9.190  11.817   9.156
 1162SOL    HW2 5261   9.335  11.813   9.111
 1163SOL     OW 5262   3.983  11.467   5.025
 1163SOL    HW1 5263   3.898  11.507   5.010
 1163SOL    HW2 5264   4.039  11.503   4.956
 1164SOL     OW 5265   1.748  11.720  10.065
 1164SOL    HW1 5266   1.837  11.687  10.062
 1164SOL    HW2 5267   1.756  11.814  10.049
 1165SOL     OW 5268   9.209   9.420   7.704
 1165SOL    HW1 5269   9.262   9.478   7.759
 1165SOL    HW2 5270   9.128   9.469   7.689
 1166SOL     OW 5271  12.418   8.298   2.929
 1166SOL    HW1 5272  12.426   8.224   2.989
 1166SOL    HW2 5273  12.323   8.309   2.918
 1167SOL     OW 5274  13.682   2.050  14.826
 1167SOL    HW1 5275  13.604   2.035   0.002
 1167SOL    HW2 5276  13.742   2.096   0.007
 1168SOL     OW 5277   3.801   6.168   6.078
 1168SOL    HW1 5278   3.861   6.138   6.010
 1168SOL    HW2 5279   3.739   6.225   6.032
 1169SOL     OW 5280   6.532  10.995   5.549
 1169SOL    HW1 5281   6.522  10.911   5.504
 1169SOL    HW2 5282   6.568  10.972   5.634
 1170SOL     OW 5283   1.041   3.523   4.351
 1170SOL    HW1 5284   1.046   3.595   4.289
 1170SOL    HW2 5285   0.951   3.492   4.345
 1171SOL     OW 5286  11.036  14.876   8.199
 1171SOL    HW1 5287  10.975  14.826   8.253
 1171SOL    HW2 5288  11.045  14.824   8.119
 1172SOL     OW 5289   5.674   1.391   8.825
 1172SOL    HW1 5290   5.643   1.305   8.854
 1172SOL    HW2 5291   5.615   1.415   8.754
 1173SOL     OW 5292  11.299   0.758  14.707
 1173SOL    HW1 5293  11.301   0.681  14.651
 1173SOL    HW2 5294  11.207   0.768  14.732
 1174SOL     OW 5295   2.951   4.247   3.047
 1174SOL    HW1 5296   2.898   4.243   2.968
 1174SOL    HW2 5297   2.887   4.252   3.118
 1175SOL     OW 5298  13.730  13.339   0.549
 1175SOL    HW1 5299  13.726  13.416   0.605
 1175SOL    HW2 5300  13.642  13.303   0.551
 1176SOL     OW 5301   2.805   7.407   2.704
 1176SOL    HW1 5302   2.829   7.354   2.628
 1176SOL    HW2 5303   2.846   7.362   2.778
 1177SOL     OW 5304   4.044   7.376  11.808
 1177SOL    HW1 5305   3.959   7.406  11.841
 1177SOL    HW2 5306   4.083   7.453  11.768
 1178SOL     OW 5307   2.328   6.790  12.008
 1178SOL    HW1 5308   2.277   6.871  12.014
 1178SOL    HW2 5309   2.277   6.726  12.058
 1179SOL     OW 5310  13.979   8.389   3.263
 1179SOL    HW1 5311  13.884   8.388   3.271
 1179SOL    HW2 5312  13.999   8.311   3.211
 1180SOL     OW 5313   0.302   3.014   8.784
 1180SOL    HW1 5314   0.394   3.016   8.810
 1180SOL    HW2 5315   0.258   2.971   8.857
 1181SOL     OW 5316   1.095   6.074  14.751
 1181SOL    HW1 5317   1.104   5.981  14.774
 1181SOL    HW2 5318   1.026   6.107  14.809
 1182SOL     OW 5319  13.007  10.368   6.329
 1182SOL    HW1 5320  12.981  10.289   6.283
 1182SOL    HW2 5321  12.941  10.433   6.307
 1183SOL     OW 5322   4.994  11.494  10.494
 1183SOL    HW1 5323   4.938  11.563  10.530
 1183SOL    HW2 5324   5.079  11.538  10.480
 1184SOL     OW 5325   9.689  14.328   1.532
 1184SOL    HW1 5326   9.768  14.322   1.585
 1184SOL    HW2 5327   9.717  14.304   1.444
 1185SOL     OW 5328   8.669   1.794   7.512
 1185SOL    HW1 5329   8.742   1.809   7.451
 1185SOL    HW2 5330   8.623   1.718   7.476
 1186SOL     OW 5331  12.411   7.972   1.977
 1186SOL    HW1 5332  12.433   7.880   1.994
 1186SOL    HW2 5333  12.316   7.971   1.964
 1187SOL     OW 5334   2.954  13.001  11.486
 1187SOL    HW1 5335   3.042  12.966  11.471
 1187SOL    HW2 5336   2.939  12.991  11.580
 1188SOL     OW 5337   2.055   0.984   4.978
 1188SOL    HW1 5338   2.116   0.929   4.928
 1188SOL    HW2 5339   2.006   1.032   4.912
 1189SOL     OW 5340   9.129   2.129   6.958
 1189SOL    HW1 5341   9.224   2.119   6.953
 1189SOL    HW2 5342   9.109   2.201   6.899
 1190SOL     OW 5343   0.602   2.361   4.262
 1190SOL    HW1 5344   0.572   2.272   4.282
 1190SOL    HW2 5345   0.560   2.382   4.179
 1191SOL     OW 5346   1.685  13.533   4.535
 1191SOL    HW1 5347   1.732  13.462   4.491
 1191SOL    HW2 5348   1.694  13.608   4.476
 1192SOL     OW 5349   8.896   1.709   7.683
 1192SOL    HW1 5350   8.803   1.703   7.661
 1192SOL    HW2 5351   8.915   1.803   7.682
 1193SOL     OW 5352   4.500   1.521  10.806
 1193SOL    HW1 5353   4.481   1.596  10.863
 1193SOL    HW2 5354   4.541   1.560  10.729
 1194SOL     OW 5355   9.029  10.624  13.143
 1194SOL    HW1 5356   8.993  10.637  13.231
 1194SOL    HW2 5357   8.999  10.700  13.094
 1195SOL     OW 5358  12.017   7.146   3.538
 1195SOL    HW1 5359  12.110   7.141   3.516
 1195SOL    HW2 5360  11.977   7.192   3.464
 1196SOL     OW 5361   8.797  12.142   1.519
 1196SOL    HW1 5362   8.715  12.149   1.568
 1196SOL    HW2 5363   8.861  12.114   1.583
 1197SOL     OW 5364   3.099   9.765   6.226
 1197SOL    HW1 5365   3.152   9.748   6.304
 1197SOL    HW2 5366   3.096   9.860   6.219
 1198SOL     OW 5367  14.375  14.764   7.916
 1198SOL    HW1 5368  14.441  14.701   7.887
 1198SOL    HW2 5369  14.340  14.727   7.997
 1199SOL     OW 5370   7.299   5.670   3.987
 1199SOL    HW1 5371   7.226   5.619   3.952
 1199SOL    HW2 5372   7.338   5.612   4.054
 1200SOL     OW 5373   9.986   2.733   3.153
 1200SOL    HW1 5374  10.075   2.738   3.118
 1200SOL    HW2 5375   9.950   2.652   3.117
 1201SOL     OW 5376   8.428   9.254   5.445
 1201SOL    HW1 5377   8.404   9.163   5.462
 1201SOL    HW2 5378   8.505   9.249   5.389
 1202SOL     OW 5379  14.083   5.544  11.588
 1202SOL    HW1 5380  14.159   5.541  11.646
 1202SOL    HW2 5381  14.049   5.633  11.597
 1203SOL     OW 5382   2.548   6.552  14.026
 1203SOL    HW1 5383   2.577   6.631  13.980
 1203SOL    HW2 5384   2.550   6.575  14.118
 1204SOL     OW 5385   0.479   2.584   2.547
 1204SOL    HW1 5386   0.408   2.626   2.499
 1204SOL    HW2 5387   0.550   2.576   2.483
 1205SOL     OW 5388  13.008   3.345  13.819
 1205SOL    HW1 5389  13.051   3.430  13.834
 1205SOL    HW2 5390  12.926   3.351  13.869
 1206SOL     OW 5391  10.867  10.537   2.665
 1206SOL    HW1 5392  10.891  10.616   2.714
 1206SOL    HW2 5393  10.890  10.557   2.574
 1207SOL     OW 5394  10.942   6.166   1.039
 1207SOL    HW1 5395  10.871   6.131   1.092
 1207SOL    HW2 5396  10.929   6.261   1.041
 1208SOL     OW 5397   4.568   6.032  12.725
 1208SOL    HW1 5398   4.625   6.063  12.796
 1208SOL    HW2 5399   4.586   5.938  12.721
 1209SOL     OW 5400   3.788   5.248   8.592
 1209SOL    HW1 5401   3.772   5.334   8.553
 1209SOL    HW2 5402   3.829   5.268   8.677
 1210SOL     OW 5403   6.252  11.276   2.882
 1210SOL    HW1 5404   6.236  11.205   2.819
 1210SOL    HW2 5405   6.233  11.237   2.967
 1211SOL     OW 5406  11.348   5.355   4.002
 1211SOL    HW1 5407  11.392   5.410   4.066
 1211SOL    HW2 5408  11.283   5.306   4.053
 1212SOL     OW 5409   8.704   0.587  14.781
 1212SOL    HW1 5410   8.755   0.512  14.812
 1212SOL    HW2 5411   8.760   0.627  14.714
 1213SOL     OW 5412  13.692  11.069   1.200
 1213SOL    HW1 5413  13.602  11.040   1.185
 1213SOL    HW2 5414  13.683  11.161   1.225
 1214SOL     OW 5415  11.111   9.643   0.006
 1214SOL    HW1 5416  11.041   9.578   0.012
 1214SOL    HW2 5417  11.116   9.664  14.790
 1215SOL     OW 5418  14.136  10.913   0.401
 1215SOL    HW1 5419  14.130  10.819   0.384
 1215SOL    HW2 5420  14.074  10.952   0.340
 1216SOL     OW 5421  11.817  11.632   8.548
 1216SOL    HW1 5422  11.819  11.585   8.632
 1216SOL    HW2 5423  11.858  11.716   8.567
 1217SOL     OW 5424  11.292   2.572   2.686
 1217SOL    HW1 5425  11.233   2.569   2.611
 1217SOL    HW2 5426  11.240   2.612   2.756
 1218SOL     OW 5427   7.837   5.440  13.676
 1218SOL    HW1 5428   7.906   5.488  13.629
 1218SOL    HW2 5429   7.803   5.378  13.611
 1219SOL     OW 5430  10.931   7.480   4.520
 1219SOL    HW1 5431  11.023   7.457   4.537
 1219SOL    HW2 5432  10.920   7.469   4.426
 1220SOL     OW 5433   8.782   8.795  14.655
 1220SOL    HW1 5434   8.710   8.848  14.687
 1220SOL    HW2 5435   8.790   8.723  14.718
 1221SOL     OW 5436  10.709   0.891  12.765
 1221SOL    HW1 5437  10.687   0.982  12.744
 1221SOL    HW2 5438  10.685   0.842  12.686
 1222SOL     OW 5439  12.109   6.877   2.829
 1222SOL    HW1 5440  12.017   6.879   2.803
 1222SOL    HW2 5441  12.115   6.804   2.890
 1223SOL     OW 5442  14.277   4.209  12.021
 1223SOL    HW1 5443  14.290   4.196  12.115
 1223SOL    HW2 5444  14.338   4.148  11.980
 1224SOL     OW 5445  13.358  10.870   4.308
 1224SOL    HW1 5446  13.301  10.940   4.341
 1224SOL    HW2 5447  13.318  10.789   4.340
 1225SOL     OW 5448  12.562   5.378   4.706
 1225SOL    HW1 5449  12.627   5.408   4.643
 1225SOL    HW2 5450  12.519   5.304   4.663
 1226SOL     OW 5451   8.478   5.508   9.517
 1226SOL    HW1 5452   8.459   5.497   9.423
 1226SOL    HW2 5453   8.512   5.422   9.544
 1227SOL     OW 5454  13.233   5.648  13.995
 1227SOL    HW1 5455  13.182   5.665  14.075
 1227SOL    HW2 5456  13.169   5.656  13.925
 1228SOL     OW 5457   6.304  14.097   9.000
 1228SOL    HW1 5458   6.340  14.163   8.940
 1228SOL    HW2 5459   6.309  14.138   9.086
 1229SOL     OW 5460   2.358   0.050  14.735
 1229SOL    HW1 5461   2.437   0.035  14.684
 1229SOL    HW2 5462   2.358  14.857  14.800
 1230SOL     OW 5463  11.441  13.880  13.834
 1230SOL    HW1 5464  11.402  13.856  13.750
 1230SOL    HW2 5465  11.534  13.859  13.824
 1231SOL     OW 5466   6.808   6.218   7.295
 1231SOL    HW1 5467   6.855   6.142   7.261
 1231SOL    HW2 5468   6.787   6.271   7.218
 1232SOL     OW 5469   8.981   1.359   7.922
 1232SOL    HW1 5470   9.030   1.441   7.912
 1232SOL    HW2 5471   8.961   1.356   8.016
 1233SOL     OW 5472   4.441  14.253   7.825
 1233SOL    HW1 5473   4.502  14.207   7.882
 1233SOL    HW2 5474   4.388  14.306   7.885
 1234SOL     OW 5475   3.897   6.214   2.947
 1234SOL    HW1 5476   3.958   6.143   2.929
 1234SOL    HW2 5477   3.938   6.291   2.908
 1235SOL     OW 5478   5.400   4.510   8.246
 1235SOL    HW1 5479   5.438   4.471   8.324
 1235SOL    HW2 5480   5.379   4.435   8.190
 1236SOL     OW 5481   2.338   9.664   0.103
 1236SOL    HW1 5482   2.292   9.626   0.178
 1236SOL    HW2 5483   2.381   9.589   0.062
 1237SOL     OW 5484  11.401   8.389   9.836
 1237SOL    HW1 5485  11.317   8.353   9.863
 1237SOL    HW2 5486  11.430   8.330   9.766
 1238SOL     OW 5487   0.109   9.084  14.232
 1238SOL    HW1 5488   0.165   9.034  14.292
 1238SOL    HW2 5489   0.164   9.102  14.156
 1239SOL     OW 5490   7.606   7.182   2.955
 1239SOL    HW1 5491   7.572   7.254   3.007
 1239SOL    HW2 5492   7.610   7.108   3.015
 1240SOL     OW 5493  11.701   3.739   4.741
 1240SOL    HW1 5494  11.713   3.644   4.740
 1240SOL    HW2 5495  11.680   3.760   4.832
 1241SOL     OW 5496   7.303   7.164  14.044
 1241SOL    HW1 5497   7.259   7.084  14.016
 1241SOL    HW2 5498   7.273   7.178  14.134
 1242SOL     OW 5499   4.906   4.250   9.982
 1242SOL    HW1 5500   4.847   4.188   9.940
 1242SOL    HW2 5501   4.860   4.278  10.061
 1243SOL     OW 5502   7.902   4.117   0.923
 1243SOL    HW1 5503   7.949   4.108   0.840
 1243SOL    HW2 5504   7.922   4.207   0.951
 1244SOL     OW 5505   0.021   6.795   9.467
 1244SOL    HW1 5506   0.087   6.773   9.532
 1244SOL    HW2 5507  14.828   6.732   9.481
 1245SOL     OW 5508   6.114   9.042   7.938
 1245SOL    HW1 5509   6.075   9.018   7.854
 1245SOL    HW2 5510   6.057   9.111   7.971
 1246SOL     OW 5511   9.009   6.668   0.574
 1246SOL    HW1 5512   8.934   6.654   0.632
 1246SOL    HW2 5513   9.062   6.589   0.586
 1247SOL     OW 5514  14.236   2.999  11.727
 1247SOL    HW1 5515  14.315   3.007  11.673
 1247SOL    HW2 5516  14.269   2.979  11.815
 1248SOL     OW 5517   5.474  11.796   4.852
 1248SOL    HW1 5518   5.521  11.875   4.880
 1248SOL    HW2 5519   5.422  11.825   4.777
 1249SOL     OW 5520   4.981   6.428   0.006
 1249SOL    HW1 5521   4.955   6.494  14.819
 1249SOL    HW2 5522   5.063   6.462   0.043
 1250SOL     OW 5523  13.986   6.460   0.134
 1250SOL    HW1 5524  13.900   6.489   0.166
 1250SOL    HW2 5525  13.967   6.412   0.053
 1251SOL     OW 5526  10.585   9.719  13.379
 1251SOL    HW1 5527  10.606   9.810  13.397
 1251SOL    HW2 5528  10.667   9.681  13.347
 1252SOL     OW 5529   9.587   9.012  11.488
 1252SOL    HW1 5530   9.569   9.102  11.460
 1252SOL    HW2 5531   9.532   8.958  11.432
 1253SOL     OW 5532   9.063   7.561  12.447
 1253SOL    HW1 5533   9.153   7.590  12.436
 1253SOL    HW2 5534   9.035   7.535  12.359
 1254SOL     OW 5535   2.555   9.823  13.142
 1254SOL    HW1 5536   2.610   9.901  13.153
 1254SOL    HW2 5537   2.598   9.773  13.073
 1255SOL     OW 5538   2.671   1.675  13.479
 1255SOL    HW1 5539   2.703   1.745  13.537
 1255SOL    HW2 5540   2.639   1.721  13.401
 1256SOL     OW 5541   4.199   2.823  10.371
 1256SOL    HW1 5542   4.171   2.734  10.348
 1256SOL    HW2 5543   4.118   2.871  10.384
 1257SOL     OW 5544   3.233  11.305   2.162
 1257SOL    HW1 5545   3.289  11.255   2.104
 1257SOL    HW2 5546   3.266  11.395   2.156
 1258SOL     OW 5547   6.712  12.707   0.030
 1258SOL    HW1 5548   6.705  12.797   0.062
 1258SOL    HW2 5549   6.754  12.715  14.822
 1259SOL     OW 5550   6.713  12.627  13.306
 1259SOL    HW1 5551   6.734  12.713  13.340
 1259SOL    HW2 5552   6.798  12.591  13.277
 1260SOL     OW 5553  12.966  11.197  10.430
 1260SOL    HW1 5554  12.976  11.261  10.500
 1260SOL    HW2 5555  12.872  11.180  10.426
 1261SOL     OW 5556   8.910   3.565   7.956
 1261SOL    HW1 5557   8.886   3.582   7.865
 1261SOL    HW2 5558   9.005   3.574   7.959
 1262SOL     OW 5559   1.990  11.316   0.743
 1262SOL    HW1 5560   1.942  11.315   0.826
 1262SOL    HW2 5561   2.074  11.275   0.764
 1263SOL     OW 5562   8.585   0.323   1.438
 1263SOL    HW1 5563   8.526   0.396   1.420
 1263SOL    HW2 5564   8.668   0.349   1.400
 1264SOL     OW 5565  14.278   8.627   5.338
 1264SOL    HW1 5566  14.267   8.704   5.283
 1264SOL    HW2 5567  14.352   8.580   5.300
 1265SOL     OW 5568   4.385   1.979  12.566
 1265SOL    HW1 5569   4.353   1.909  12.622
 1265SOL    HW2 5570   4.461   1.941  12.521
 1266SOL     OW 5571  10.892   3.130   5.609
 1266SOL    HW1 5572  10.967   3.107   5.555
 1266SOL    HW2 5573  10.916   3.104   5.698
 1267SOL     OW 5574   2.602   9.296  14.367
 1267SOL    HW1 5575   2.625   9.209  14.402
 1267SOL    HW2 5576   2.686   9.341  14.360
 1268SOL     OW 5577   3.976  11.657  13.470
 1268SOL    HW1 5578   3.983  11.578  13.525
 1268SOL    HW2 5579   4.000  11.729  13.528
 1269SOL     OW 5580   9.828   9.509   8.581
 1269SOL    HW1 5581   9.903   9.450   8.594
 1269SOL    HW2 5582   9.804   9.537   8.669
 1270SOL     OW 5583   5.839   0.607  14.213
 1270SOL    HW1 5584   5.845   0.681  14.274
 1270SOL    HW2 5585   5.799   0.537  14.264
 1271SOL     OW 5586   9.644  13.927   6.036
 1271SOL    HW1 5587   9.624  13.876   6.115
 1271SOL    HW2 5588   9.560  13.964   6.009
 1272SOL     OW 5589  11.895  12.732   9.380
 1272SOL    HW1 5590  11.809  12.747   9.341
 1272SOL    HW2 5591  11.955  12.780   9.323
 1273SOL     OW 5592   1.003   0.776   5.878
 1273SOL    HW1 5593   0.924   0.808   5.923
 1273SOL    HW2 5594   0.978   0.771   5.786
 1274SOL     OW 5595   4.684   5.141  11.581
 1274SOL    HW1 5596   4.648   5.188  11.506
 1274SOL    HW2 5597   4.620   5.153  11.651
 1275SOL     OW 5598   3.990   6.450   4.220
 1275SOL    HW1 5599   3.944   6.527   4.252
 1275SOL    HW2 5600   3.957   6.378   4.274
 1276SOL     OW 5601   2.372   0.675  12.655
 1276SOL    HW1 5602   2.421   0.716  12.583
 1276SOL    HW2 5603   2.288   0.652  12.616
 1277SOL     OW 5604   2.107   1.970   8.423
 1277SOL    HW1 5605   2.179   2.018   8.381
 1277SOL    HW2 5606   2.028   2.008   8.385
 1278SOL     OW 5607  12.168  11.812   0.950
 1278SOL    HW1 5608  12.251  11.768   0.970
 1278SOL    HW2 5609  12.135  11.841   1.035
 1279SOL     OW 5610   6.305   7.195   5.669
 1279SOL    HW1 5611   6.307   7.227   5.579
 1279SOL    HW2 5612   6.353   7.261   5.719
 1280SOL     OW 5613   7.356  14.372  11.297
 1280SOL    HW1 5614   7.303  14.296  11.272
 1280SOL    HW2 5615   7.310  14.447  11.260
 1281SOL     OW 5616   3.093   4.933  10.065
 1281SOL    HW1 5617   3.033   4.952  10.138
 1281SOL    HW2 5618   3.036   4.932   9.988
 1282SOL     OW 5619   5.942   5.765   0.825
 1282SOL    HW1 5620   5.868   5.706   0.820
 1282SOL    HW2 5621   6.001   5.735   0.755
 1283SOL     OW 5622   9.925   2.620   8.546
 1283SOL    HW1 5623   9.882   2.644   8.464
 1283SOL    HW2 5624  10.012   2.661   8.541
 1284SOL     OW 5625   8.926  12.853   3.240
 1284SOL    HW1 5626   8.972  12.769   3.242
 1284SOL    HW2 5627   8.946  12.893   3.324
 1285SOL     OW 5628   6.602   8.281   1.294
 1285SOL    HW1 5629   6.583   8.375   1.298
 1285SOL    HW2 5630   6.685   8.276   1.247
 1286SOL     OW 5631   5.077  11.557   1.175
 1286SOL    HW1 5632   5.081  11.531   1.267
 1286SOL    HW2 5633   5.093  11.651   1.175
 1287SOL     OW 5634  12.779   7.232  10.233
 1287SOL    HW1 5635  12.815   7.182  10.307
 1287SOL    HW2 5636  12.702   7.276  10.270
 1288SOL     OW 5637   4.682   5.990   1.632
 1288SOL    HW1 5638   4.768   5.969   1.668
 1288SOL    HW2 5639   4.656   6.071   1.675
 1289SOL     OW 5640  13.911   5.020   9.249
 1289SOL    HW1 5641  13.904   4.952   9.316
 1289SOL    HW2 5642  13.869   5.097   9.287
 1290SOL     OW 5643  12.925   5.365  12.120
 1290SOL    HW1 5644  12.953   5.371  12.028
 1290SOL    HW2 5645  12.832   5.385  12.117
 1291SOL     OW 5646   2.997   0.637   7.869
 1291SOL    HW1 5647   3.085   0.647   7.907
 1291SOL    HW2 5648   2.970   0.549   7.897
 1292SOL     OW 5649   4.495   0.676  11.153
 1292SOL    HW1 5650   4.460   0.716  11.073
 1292SOL    HW2 5651   4.439   0.709  11.223
 1293SOL     OW 5652  11.363  14.795   8.815
 1293SOL    HW1 5653  11.321  14.709   8.811
 1293SOL    HW2 5654  11.393  14.803   8.906
 1294SOL     OW 5655  13.016  12.888  13.052
 1294SOL    HW1 5656  13.033  12.858  12.962
 1294SOL    HW2 5657  12.979  12.812  13.095
 1295SOL     OW 5658  10.172   9.825   9.080
 1295SOL    HW1 5659  10.205   9.887   9.015
 1295SOL    HW2 5660  10.199   9.862   9.164
 1296SOL     OW 5661   1.638  13.939   5.412
 1296SOL    HW1 5662   1.662  13.899   5.329
 1296SOL    HW2 5663   1.603  14.025   5.388
 1297SOL     OW 5664   3.477  11.300   0.614
 1297SOL    HW1 5665   3.481  11.226   0.553
 1297SOL    HW2 5666   3.483  11.259   0.701
 1298SOL     OW 5667   7.891   1.105  14.242
 1298SOL    HW1 5668   7.835   1.044  14.291
 1298SOL    HW2 5669   7.953   1.049  14.195
 1299SOL     OW 5670   9.189  14.622   2.223
 1299SOL    HW1 5671   9.278  14.608   2.190
 1299SOL    HW2 5672   9.201  14.651   2.313
 1300SOL     OW 5673  12.820  11.932   1.840
 1300SOL    HW1 5674  12.877  12.006   1.857
 1300SOL    HW2 5675  12.775  11.954   1.759
 1301SOL     OW 5676   6.022  11.769   5.151
 1301SOL    HW1 5677   6.048  11.713   5.078
 1301SOL    HW2 5678   5.960  11.831   5.112
 1302SOL     OW 5679   9.788  14.509  13.252
 1302SOL    HW1 5680   9.742  14.441  13.203
 1302SOL    HW2 5681   9.790  14.584  13.193
 1303SOL     OW 5682   8.764   3.067  12.180
 1303SOL    HW1 5683   8.728   3.127  12.115
 1303SOL    HW2 5684   8.699   2.996  12.185
 1304SOL     OW 5685  10.279   1.574   6.551
 1304SOL    HW1 5686  10.329   1.502   6.511
 1304SOL    HW2 5687  10.291   1.562   6.645
 1305SOL     OW 5688   1.423   0.077   8.449
 1305SOL    HW1 5689   1.381   0.163   8.449
 1305SOL    HW2 5690   1.368   0.022   8.393
 1306SOL     OW 5691  13.407   3.334  14.768
 1306SOL    HW1 5692  13.377   3.342  14.677
 1306SOL    HW2 5693  13.364   3.255  14.800
 1307SOL     OW 5694  13.036   2.355  14.150
 1307SOL    HW1 5695  12.978   2.403  14.090
 1307SOL    HW2 5696  13.009   2.384  14.237
 1308SOL     OW 5697   9.174  12.618  11.245
 1308SOL    HW1 5698   9.225  12.593  11.169
 1308SOL    HW2 5699   9.231  12.601  11.320
 1309SOL     OW 5700   2.259  13.664  11.221
 1309SOL    HW1 5701   2.275  13.571  11.240
 1309SOL    HW2 5702   2.334  13.690  11.167
 1310SOL     OW 5703   5.797   8.154   0.445
 1310SOL    HW1 5704   5.811   8.170   0.539
 1310SOL    HW2 5705   5.704   8.166   0.432
 1311SOL     OW 5706   4.623   6.868   1.615
 1311SOL    HW1 5707   4.599   6.850   1.706
 1311SOL    HW2 5708   4.704   6.919   1.621
 1312SOL     OW 5709  11.557   1.282   4.429
 1312SOL    HW1 5710  11.470   1.275   4.468
 1312SOL    HW2 5711  11.615   1.298   4.503
 1313SOL     OW 5712   2.994  12.610  14.380
 1313SOL    HW1 5713   2.951  12.573  14.303
 1313SOL    HW2 5714   2.984  12.705  14.370
 1314SOL     OW 5715   5.786  10.037   7.437
 1314SOL    HW1 5716   5.748  10.123   7.455
 1314SOL    HW2 5717   5.849  10.023   7.507
 1315SOL     OW 5718  11.460  12.230   4.561
 1315SOL    HW1 5719  11.445  12.136   4.566
 1315SOL    HW2 5720  11.545  12.243   4.602
 1316SOL     OW 5721   3.412   9.705  14.332
 1316SOL    HW1 5722   3.497   9.680  14.296
 1316SOL    HW2 5723   3.378   9.624  14.372
 1317SOL     OW 5724   1.202  10.276  11.981
 1317SOL    HW1 5725   1.202  10.330  12.060
 1317SOL    HW2 5726   1.280  10.304  11.933
 1318SOL     OW 5727  14.005   2.905   7.269
 1318SOL    HW1 5728  14.036   2.987   7.307
 1318SOL    HW2 5729  13.958   2.861   7.340
 1319SOL     OW 5730   5.441   7.320  12.438
 1319SOL    HW1 5731   5.518   7.375  12.455
 1319SOL    HW2 5732   5.477   7.241  12.399
 1320SOL     OW 5733   7.320  11.435   1.341
 1320SOL    HW1 5734   7.315  11.424   1.246
 1320SOL    HW2 5735   7.359  11.521   1.354
 1321SOL     OW 5736   7.584  11.455   4.498
 1321SOL    HW1 5737   7.666  11.472   4.545
 1321SOL    HW2 5738   7.522  11.519   4.534
 1322SOL     OW 5739  11.397   3.303   2.839
 1322SOL    HW1 5740  11.448   3.227   2.866
 1322SOL    HW2 5741  11.364   3.281   2.752
 1323SOL     OW 5742  13.600   1.726   7.572
 1323SOL    HW1 5743  13.622   1.672   7.648
 1323SOL    HW2 5744  13.519   1.689   7.539
 1324SOL     OW 5745   9.545  14.384   2.113
 1324SOL    HW1 5746   9.599  14.440   2.057
 1324SOL    HW2 5747   9.459  14.386   2.073
 1325SOL     OW 5748   9.331   7.196  13.343
 1325SOL    HW1 5749   9.378   7.277  13.324
 1325SOL    HW2 5750   9.378   7.158  13.418
 1326SOL     OW 5751   7.926  10.983  13.834
 1326SOL    HW1 5752   7.996  11.026  13.786
 1326SOL    HW2 5753   7.929  11.023  13.921
 1327SOL     OW 5754   8.439  13.510  14.019
 1327SOL    HW1 5755   8.514  13.466  14.060
 1327SOL    HW2 5756   8.467  13.526  13.929
 1328SOL     OW 5757   5.740   7.629  14.388
 1328SOL    HW1 5758   5.714   7.591  14.472
 1328SOL    HW2 5759   5.793   7.705  14.412
 1329SOL     OW 5760   7.816   8.693   6.293
 1329SOL    HW1 5761   7.735   8.698   6.242
 1329SOL    HW2 5762   7.795   8.636   6.367
 1330SOL     OW 5763  11.581  13.010   6.092
 1330SOL    HW1 5764  11.540  12.945   6.035
 1330SOL    HW2 5765  11.525  13.087   6.085
 1331SOL     OW 5766   7.023   4.396   8.376
 1331SOL    HW1 5767   7.054   4.318   8.331
 1331SOL    HW2 5768   7.092   4.419   8.438
 1332SOL     OW 5769   5.953   7.273   3.222
 1332SOL    HW1 5770   6.000   7.219   3.285
 1332SOL    HW2 5771   5.910   7.211   3.164
 1333SOL     OW 5772   9.080  14.763  11.907
 1333SOL    HW1 5773   9.011  14.736  11.847
 1333SOL    HW2 5774   9.147  14.803  11.852
 1334SOL     OW 5775   8.012   5.024  14.800
 1334SOL    HW1 5776   7.993   4.945  14.751
 1334SOL    HW2 5777   7.934   5.078  14.789
 1335SOL     OW 5778  10.078  10.716  12.997
 1335SOL    HW1 5779  10.171  10.721  12.977
 1335SOL    HW2 5780  10.039  10.670  12.923
 1336SOL     OW 5781  10.702   8.997   1.445
 1336SOL    HW1 5782  10.786   9.001   1.489
 1336SOL    HW2 5783  10.718   8.942   1.368
 1337SOL     OW 5784  12.097   3.952  12.276
 1337SOL    HW1 5785  12.113   3.912  12.361
 1337SOL    HW2 5786  12.003   3.970  12.275
 1338SOL     OW 5787  12.120   8.249   5.052
 1338SOL    HW1 5788  12.096   8.322   5.109
 1338SOL    HW2 5789  12.154   8.182   5.112
 1339SOL     OW 5790   8.647   4.851  12.303
 1339SOL    HW1 5791   8.737   4.823  12.319
 1339SOL    HW2 5792   8.623   4.809  12.220
 1340SOL     OW 5793   4.261  14.310   9.355
 1340SOL    HW1 5794   4.306  14.388   9.322
 1340SOL    HW2 5795   4.331  14.256   9.391
 1341SOL     OW 5796  14.223   9.097   3.294
 1341SOL    HW1 5797  14.223   9.046   3.375
 1341SOL    HW2 5798  14.130   9.110   3.274
 1342SOL     OW 5799   2.867  14.691   4.518
 1342SOL    HW1 5800   2.809  14.616   4.503
 1342SOL    HW2 5801   2.820  14.765   4.480
 1343SOL     OW 5802   2.870   4.802   4.660
 1343SOL    HW1 5803   2.950   4.852   4.642
 1343SOL    HW2 5804   2.815   4.863   4.709
 1344SOL     OW 5805   1.421  10.042  12.794
 1344SOL    HW1 5806   1.512  10.034  12.825
 1344SOL    HW2 5807   1.415  10.132  12.762
 1345SOL     OW 5808  10.595   6.959   8.184
 1345SOL    HW1 5809  10.510   6.998   8.165
 1345SOL    HW2 5810  10.608   6.896   8.113
 1346SOL     OW 5811   6.913  12.203  12.794
 1346SOL    HW1 5812   6.998  12.215  12.750
 1346SOL    HW2 5813   6.936  12.180  12.884
 1347SOL     OW 5814  11.324  12.515  11.217
 1347SOL    HW1 5815  11.390  12.538  11.153
 1347SOL    HW2 5816  11.272  12.447  11.176
 1348SOL     OW 5817  11.922   0.339   1.370
 1348SOL    HW1 5818  11.906   0.382   1.286
 1348SOL    HW2 5819  11.999   0.383   1.406
 1349SOL     OW 5820   8.082  11.428   7.154
 1349SOL    HW1 5821   8.108  11.477   7.076
 1349SOL    HW2 5822   8.061  11.340   7.122
 1350SOL     OW 5823   7.919  12.584   7.605
 1350SOL    HW1 5824   7.882  12.530   7.674
 1350SOL    HW2 5825   8.011  12.560   7.601
 1351SOL     OW 5826  11.980   9.186  13.370
 1351SOL    HW1 5827  11.909   9.146  13.419
 1351SOL    HW2 5828  11.937   9.226  13.294
 1352SOL     OW 5829   5.936  13.560  12.001
 1352SOL    HW1 5830   5.854  13.596  11.966
 1352SOL    HW2 5831   5.981  13.525  11.924
 1353SOL     OW 5832   7.122  11.117  11.132
 1353SOL    HW1 5833   7.121  11.021  11.134
 1353SOL    HW2 5834   7.148  11.143  11.221
 1354SOL     OW 5835  10.609   5.268   7.494
 1354SOL    HW1 5836  10.539   5.332   7.505
 1354SOL    HW2 5837  10.624   5.266   7.399
 1355SOL     OW 5838   5.889   0.156  13.210
 1355SOL    HW1 5839   5.816   0.127  13.155
 1355SOL    HW2 5840   5.944   0.079  13.219
 1356SOL     OW 5841   1.765   1.789   5.090
 1356SOL    HW1 5842   1.817   1.869   5.075
 1356SOL    HW2 5843   1.829   1.724   5.120
 1357SOL     OW 5844   8.956   4.743   0.224
 1357SOL    HW1 5845   9.020   4.699   0.279
 1357SOL    HW2 5846   8.871   4.717   0.261
 1358SOL     OW 5847   4.552   1.281   2.807
 1358SOL    HW1 5848   4.607   1.203   2.812
 1358SOL    HW2 5849   4.531   1.302   2.898
 1359SOL     OW 5850  13.180   2.569  11.918
 1359SOL    HW1 5851  13.186   2.521  11.835
 1359SOL    HW2 5852  13.102   2.624  11.908
 1360SOL     OW 5853   8.268   7.777   6.662
 1360SOL    HW1 5854   8.362   7.797   6.656
 1360SOL    HW2 5855   8.254   7.756   6.754
 1361SOL     OW 5856  14.586   4.284  14.475
 1361SOL    HW1 5857  14.547   4.197  14.462
 1361SOL    HW2 5858  14.521   4.345  14.440
 1362SOL     OW 5859   8.439   2.836  11.132
 1362SOL    HW1 5860   8.414   2.877  11.049
 1362SOL    HW2 5861   8.369   2.773  11.149
 1363SOL     OW 5862   8.163   1.115   7.504
 1363SOL    HW1 5863   8.252   1.135   7.532
 1363SOL    HW2 5864   8.152   1.165   7.422
 1364SOL     OW 5865   2.337   6.245  13.471
 1364SOL    HW1 5866   2.331   6.224  13.378
 1364SOL    HW2 5867   2.371   6.165  13.512
 1365SOL     OW 5868  11.448   1.007  11.204
 1365SOL    HW1 5869  11.370   1.011  11.150
 1365SOL    HW2 5870  11.451   1.091  11.250
 1366SOL     OW 5871   9.007   2.932  12.136
 1366SOL    HW1 5872   8.912   2.942  12.142
 1366SOL    HW2 5873   9.041   3.021  12.141
 1367SOL     OW 5874   4.974   8.017   9.516
 1367SOL    HW1 5875   4.955   8.031   9.609
 1367SOL    HW2 5876   5.063   7.981   9.515
 1368SOL     OW 5877   5.245   6.591  13.106
 1368SOL    HW1 5878   5.251   6.496  13.112
 1368SOL    HW2 5879   5.320   6.623  13.156
 1369SOL     OW 5880   7.914   6.739   7.855
 1369SOL    HW1 5881   7.930   6.646   7.842
 1369SOL    HW2 5882   7.947   6.781   7.776
 1370SOL     OW 5883   7.767   6.587   4.316
 1370SOL    HW1 5884   7.742   6.534   4.241
 1370SOL    HW2 5885   7.783   6.523   4.386
 1371SOL     OW 5886   8.277  14.336   8.458
 1371SOL    HW1 5887   8.329  14.278   8.515
 1371SOL    HW2 5888   8.266  14.285   8.378
 1372SOL     OW 5889  10.396  11.621  10.042
 1372SOL    HW1 5890  10.431  11.707  10.019
 1372SOL    HW2 5891  10.310  11.619  10.001
 1373SOL     OW 5892   8.196   4.395   3.652
 1373SOL    HW1 5893   8.232   4.353   3.730
 1373SOL    HW2 5894   8.179   4.485   3.679
 1374SOL     OW 5895   8.111   0.612   7.393
 1374SOL    HW1 5896   8.176   0.544   7.410
 1374SOL    HW2 5897   8.046   0.601   7.462
 1375SOL     OW 5898   6.318   4.176  12.627
 1375SOL    HW1 5899   6.400   4.130  12.649
 1375SOL    HW2 5900   6.306   4.238  12.699
 1376SOL     OW 5901  10.612   1.062  10.191
 1376SOL    HW1 5902  10.651   1.035  10.274
 1376SOL    HW2 5903  10.679   1.041  10.126
 1377SOL     OW 5904  13.451  13.276   5.173
 1377SOL    HW1 5905  13.534  13.243   5.138
 1377SOL    HW2 5906  13.387  13.259   5.105
 1378SOL     OW 5907   4.398   3.780  12.755
 1378SOL    HW1 5908   4.350   3.713  12.805
 1378SOL    HW2 5909   4.329   3.835  12.717
 1379SOL     OW 5910   7.645   3.512   0.093
 1379SOL    HW1 5911   7.587   3.560   0.153
 1379SOL    HW2 5912   7.729   3.557   0.100
 1380SOL     OW 5913   7.858   5.508  10.711
 1380SOL    HW1 5914   7.773   5.506  10.754
 1380SOL    HW2 5915   7.845   5.563  10.634
 1381SOL     OW 5916  10.523   8.144  12.296
 1381SOL    HW1 5917  10.485   8.100  12.220
 1381SOL    HW2 5918  10.569   8.219  12.259
 1382SOL     OW 5919   4.557   6.704   1.153
 1382SOL    HW1 5920   4.577   6.685   1.244
 1382SOL    HW2 5921   4.503   6.630   1.125
 1383SOL     OW 5922   9.405  10.142   6.198
 1383SOL    HW1 5923   9.348  10.208   6.238
 1383SOL    HW2 5924   9.466  10.118   6.268
 1384SOL     OW 5925   0.718   2.944   0.747
 1384SOL    HW1 5926   0.662   2.999   0.692
 1384SOL    HW2 5927   0.663   2.922   0.822
 1385SOL     OW 5928  13.330   3.314  12.881
 1385SOL    HW1 5929  13.283   3.325  12.799
 1385SOL    HW2 5930  13.344   3.403  12.913
 1386SOL     OW 5931   1.227   4.599   3.338
 1386SOL    HW1 5932   1.248   4.657   3.411
 1386SOL    HW2 5933   1.196   4.519   3.379
 1387SOL     OW 5934  10.785   2.461   3.031
 1387SOL    HW1 5935  10.800   2.554   3.014
 1387SOL    HW2 5936  10.708   2.438   2.979
 1388SOL     OW 5937   3.993   6.174  12.159
 1388SOL    HW1 5938   3.902   6.178  12.188
 1388SOL    HW2 5939   4.044   6.179  12.240
 1389SOL     OW 5940   3.764   7.424   7.554
 1389SOL    HW1 5941   3.688   7.365   7.562
 1389SOL    HW2 5942   3.728   7.503   7.514
 1390SOL     OW 5943  11.514   8.868   2.315
 1390SOL    HW1 5944  11.495   8.851   2.223
 1390SOL    HW2 5945  11.602   8.905   2.316
 1391SOL     OW 5946   0.022   2.164  13.492
 1391SOL    HW1 5947  14.830   2.127  13.438
 1391SOL    HW2 5948   0.029   2.105  13.567
 1392SOL     OW 5949   7.188   4.834  12.116
 1392SOL    HW1 5950   7.116   4.794  12.067
 1392SOL    HW2 5951   7.167   4.817  12.208
 1393SOL     OW 5952   5.757   7.312  10.114
 1393SOL    HW1 5953   5.763   7.220  10.091
 1393SOL    HW2 5954   5.706   7.352  10.042
 1394SOL     OW 5955  11.828   3.893  14.667
 1394SOL    HW1 5956  11.901   3.918  14.723
 1394SOL    HW2 5957  11.862   3.903  14.578
 1395SOL     OW 5958   7.014   8.268  14.068
 1395SOL    HW1 5959   7.016   8.195  14.130
 1395SOL    HW2 5960   7.057   8.234  13.990
 1396SOL     OW 5961  12.002   3.049   7.858
 1396SOL    HW1 5962  11.956   2.968   7.835
 1396SOL    HW2 5963  11.937   3.102   7.904
 1397SOL     OW 5964  14.175   5.395   2.169
 1397SOL    HW1 5965  14.246   5.459   2.166
 1397SOL    HW2 5966  14.120   5.417   2.094
 1398SOL     OW 5967   5.845  11.188   3.020
 1398SOL    HW1 5968   5.849  11.260   3.084
 1398SOL    HW2 5969   5.937  11.164   3.006
 1399SOL     OW 5970  14.241   2.002  13.684
 1399SOL    HW1 5971  14.187   2.070  13.644
 1399SOL    HW2 5972  14.184   1.960  13.748
 1400SOL     OW 5973  11.771   3.509  13.810
 1400SOL    HW1 5974  11.713   3.571  13.853
 1400SOL    HW2 5975  11.784   3.440  13.875
 1401SOL     OW 5976  10.249   7.769  12.326
 1401SOL    HW1 5977  10.329   7.817  12.347
 1401SOL    HW2 5978  10.271   7.677  12.339
 1402SOL     OW 5979  10.436   6.817  12.585
 1402SOL    HW1 5980  10.353   6.846  12.548
 1402SOL    HW2 5981  10.502   6.846  12.522
 1403SOL     OW 5982   8.447   4.638  13.688
 1403SOL    HW1 5983   8.489   4.659  13.771
 1403SOL    HW2 5984   8.357   4.670  13.697
 1404SOL     OW 5985   7.802  13.441   4.849
 1404SOL    HW1 5986   7.732  13.393   4.893
 1404SOL    HW2 5987   7.857  13.374   4.808
 1405SOL     OW 5988   2.742  14.822   6.020
 1405SOL    HW1 5989   2.828  14.786   5.998
 1405SOL    HW2 5990   2.691  14.815   5.939
 1406SOL     OW 5991  14.855  14.859  10.536
 1406SOL    HW1 5992  14.838  14.873  10.629
 1406SOL    HW2 5993  14.779  14.810  10.504
 1407SOL     OW 5994  12.598  13.748  10.452
 1407SOL    HW1 5995  12.530  13.808  10.421
 1407SOL    HW2 5996  12.644  13.798  10.520
 1408SOL     OW 5997   2.131   5.279  11.988
 1408SOL    HW1 5998   2.187   5.339  11.939
 1408SOL    HW2 5999   2.054   5.267  11.933
 1409SOL     OW 6000   3.887   6.590  12.128
 1409SOL    HW1 6001   3.866   6.684  12.125
 1409SOL    HW2 6002   3.971   6.583  12.083
 1410SOL     OW 6003   9.533   0.297   2.116
 1410SOL    HW1 6004   9.499   0.327   2.200
 1410SOL    HW2 6005   9.462   0.246   2.077
 1411SOL     OW 6006   5.875  11.733   2.260
 1411SOL    HW1 6007   5.809  11.767   2.199
 1411SOL    HW2 6008   5.923  11.810   2.289
 1412SOL     OW 6009   5.359   9.388   9.860
 1412SOL    HW1 6010   5.270   9.357   9.874
 1412SOL    HW2 6011   5.356   9.434   9.776
 1413SOL     OW 6012   8.953  12.452   1.938
 1413SOL    HW1 6013   9.043  12.485   1.936
 1413SOL    HW2 6014   8.900  12.525   1.907
 1414SOL     OW 6015   2.494  12.141   3.165
 1414SOL    HW1 6016   2.513  12.165   3.074
 1414SOL    HW2 6017   2.438  12.212   3.197
 1415SOL     OW 6018   0.463  11.870   7.868
 1415SOL    HW1 6019   0.479  11.794   7.812
 1415SOL    HW2 6020   0.514  11.853   7.947
 1416SOL     OW 6021   5.661  14.821   3.644
 1416SOL    HW1 6022   5.663  14.865   3.559
 1416SOL    HW2 6023   5.717  14.744   3.632
 1417SOL     OW 6024   0.407  14.346  12.283
 1417SOL    HW1 6025   0.358  14.275  12.241
 1417SOL    HW2 6026   0.488  14.352  12.232
 1418SOL     OW 6027   9.969   4.671  11.727
 1418SOL    HW1 6028   9.919   4.622  11.661
 1418SOL    HW2 6029  10.006   4.604  11.784
 1419SOL     OW 6030   6.584   6.678   5.729
 1419SOL    HW1 6031   6.534   6.639   5.801
 1419SOL    HW2 6032   6.517   6.699   5.663
 1420SOL     OW 6033   3.598   6.720   2.010
 1420SOL    HW1 6034   3.512   6.680   1.995
 1420SOL    HW2 6035   3.655   6.646   2.032
 1421SOL     OW 6036   8.124   8.533   1.384
 1421SOL    HW1 6037   8.196   8.478   1.415
 1421SOL    HW2 6038   8.088   8.574   1.463
 1422SOL     OW 6039   7.253  11.667   3.143
 1422SOL    HW1 6040   7.195  11.600   3.106
 1422SOL    HW2 6041   7.199  11.746   3.147
 1423SOL     OW 6042   9.053  14.435   7.709
 1423SOL    HW1 6043   9.053  14.383   7.629
 1423SOL    HW2 6044   9.144  14.465   7.718
 1424SOL     OW 6045   1.895   5.439  11.076
 1424SOL    HW1 6046   1.893   5.374  11.007
 1424SOL    HW2 6047   1.850   5.515  11.040
 1425SOL     OW 6048   3.948  10.070  13.099
 1425SOL    HW1 6049   4.025  10.119  13.129
 1425SOL    HW2 6050   3.950   9.989  13.150
 1426SOL     OW 6051   1.930   5.772  11.627
 1426SOL    HW1 6052   1.927   5.773  11.531
 1426SOL    HW2 6053   1.865   5.706  11.652
 1427SOL     OW 6054   6.488   1.609   8.611
 1427SOL    HW1 6055   6.419   1.626   8.547
 1427SOL    HW2 6056   6.444   1.610   8.696
 1428SOL     OW 6057  13.079   7.695   7.062
 1428SOL    HW1 6058  13.153   7.679   7.003
 1428SOL    HW2 6059  13.108   7.767   7.118
 1429SOL     OW 6060   3.720   1.948  10.801
 1429SOL    HW1 6061   3.665   1.983  10.731
 1429SOL    HW2 6062   3.669   1.958  10.881
 1430SOL     OW 6063  13.658   9.815   4.864
 1430SOL    HW1 6064  13.656   9.764   4.945
 1430SOL    HW2 6065  13.605   9.892   4.882
 1431SOL     OW 6066   4.408   5.953   4.551
 1431SOL    HW1 6067   4.391   5.991   4.637
 1431SOL    HW2 6068   4.448   5.868   4.569
 1432SOL     OW 6069  12.172   5.889  11.585
 1432SOL    HW1 6070  12.139   5.806  11.620
 1432SOL    HW2 6071  12.096   5.931  11.545
 1433SOL     OW 6072  13.692   6.206   2.482
 1433SOL    HW1 6073  13.607   6.205   2.525
 1433SOL    HW2 6074  13.677   6.162   2.398
 1434SOL     OW 6075   2.766   3.568   6.205
 1434SOL    HW1 6076   2.846   3.519   6.228
 1434SOL    HW2 6077   2.695   3.507   6.224
 1435SOL     OW 6078   4.148   4.658   0.319
 1435SOL    HW1 6079   4.172   4.604   0.243
 1435SOL    HW2 6080   4.191   4.742   0.304
 1436SOL     OW 6081  10.983   6.114   1.750
 1436SOL    HW1 6082  10.974   6.115   1.845
 1436SOL    HW2 6083  10.893   6.113   1.718
 1437SOL     OW 6084   4.721   2.455  13.695
 1437SOL    HW1 6085   4.741   2.548  13.684
 1437SOL    HW2 6086   4.762   2.413  13.619
 1438SOL     OW 6087  14.086  12.677  10.676
 1438SOL    HW1 6088  14.029  12.724  10.615
 1438SOL    HW2 6089  14.031  12.661  10.752
 1439SOL     OW 6090   1.317   1.516   8.807
 1439SOL    HW1 6091   1.262   1.441   8.785
 1439SOL    HW2 6092   1.352   1.496   8.894
 1440SOL     OW 6093   1.052   1.903   3.704
 1440SOL    HW1 6094   1.033   1.811   3.687
 1440SOL    HW2 6095   1.033   1.947   3.621
 1441SOL     OW 6096   6.864   4.176  10.306
 1441SOL    HW1 6097   6.801   4.153  10.374
 1441SOL    HW2 6098   6.914   4.095  10.292
 1442SOL     OW 6099   5.342   4.605   7.236
 1442SOL    HW1 6100   5.303   4.518   7.244
 1442SOL    HW2 6101   5.391   4.617   7.317
 1443SOL     OW 6102  13.918  14.480   4.648
 1443SOL    HW1 6103  13.954  14.487   4.736
 1443SOL    HW2 6104  13.976  14.418   4.603
 1444SOL     OW 6105   2.266  14.371   7.814
 1444SOL    HW1 6106   2.207  14.392   7.741
 1444SOL    HW2 6107   2.248  14.439   7.879
 1445SOL     OW 6108  14.850   3.231   9.107
 1445SOL    HW1 6109  14.831   3.147   9.150
 1445SOL    HW2 6110   0.067   3.238   9.111
 1446SOL     OW 6111   9.618   8.826   6.222
 1446SOL    HW1 6112   9.598   8.794   6.134
 1446SOL    HW2 6113   9.539   8.874   6.248
 1447SOL     OW 6114   7.335  14.075  13.939
 1447SOL    HW1 6115   7.338  13.985  13.907
 1447SOL    HW2 6116   7.425  14.094  13.965
 1448SOL     OW 6117  10.586   7.563  10.274
 1448SOL    HW1 6118  10.609   7.531  10.187
 1448SOL    HW2 6119  10.540   7.645  10.258
 1449SOL     OW 6120   5.192  10.056   4.440
 1449SOL    HW1 6121   5.225   9.972   4.473
 1449SOL    HW2 6122   5.178  10.108   4.519
 1450SOL     OW 6123   6.451   6.654  14.218
 1450SOL    HW1 6124   6.452   6.563  14.246
 1450SOL    HW2 6125   6.514   6.659  14.146
 1451SOL     OW 6126   5.346   7.781   5.424
 1451SOL    HW1 6127   5.358   7.688   5.443
 1451SOL    HW2 6128   5.261   7.802   5.463
 1452SOL     OW 6129   3.770   1.853   5.234
 1452SOL    HW1 6130   3.766   1.762   5.263
 1452SOL    HW2 6131   3.721   1.853   5.151
 1453SOL     OW 6132  13.937   4.442   9.656
 1453SOL    HW1 6133  13.912   4.355   9.688
 1453SOL    HW2 6134  13.914   4.501   9.728
 1454SOL     OW 6135  11.312   1.904   9.700
 1454SOL    HW1 6136  11.319   1.809   9.688
 1454SOL    HW2 6137  11.366   1.940   9.630
 1455SOL     OW 6138   8.214   5.700   8.384
 1455SOL    HW1 6139   8.246   5.768   8.325
 1455SOL    HW2 6140   8.277   5.698   8.456
 1456SOL     OW 6141   3.439   9.091  10.379
 1456SOL    HW1 6142   3.452   9.110  10.286
 1456SOL    HW2 6143   3.355   9.132  10.401
 1457SOL     OW 6144  12.683  13.979  13.925
 1457SOL    HW1 6145  12.609  14.012  13.976
 1457SOL    HW2 6146  12.729  13.919  13.984
 1458SOL     OW 6147   4.576   9.279  14.087
 1458SOL    HW1 6148   4.547   9.194  14.121
 1458SOL    HW2 6149   4.552   9.342  14.155
 1459SOL     OW 6150  10.687   8.877   3.447
 1459SOL    HW1 6151  10.656   8.915   3.365
 1459SOL    HW2 6152  10.612   8.828   3.480
 1460SOL     OW 6153  10.672   9.358   2.389
 1460SOL    HW1 6154  10.729   9.435   2.392
 1460SOL    HW2 6155  10.584   9.392   2.400
 1461SOL     OW 6156  13.130   6.078   8.558
 1461SOL    HW1 6157  13.068   6.104   8.625
 1461SOL    HW2 6158  13.102   5.991   8.531
 1462SOL     OW 6159  14.378   0.488   0.989
 1462SOL    HW1 6160  14.374   0.537   1.071
 1462SOL    HW2 6161  14.420   0.405   1.013
 1463SOL     OW 6162   9.678  10.445   8.417
 1463SOL    HW1 6163   9.640  10.399   8.493
 1463SOL    HW2 6164   9.767  10.412   8.411
 1464SOL     OW 6165   8.647  14.792   4.825
 1464SOL    HW1 6166   8.554  14.774   4.809
 1464SOL    HW2 6167   8.682  14.709   4.855
 1465SOL     OW 6168   1.762   2.371   2.604
 1465SOL    HW1 6169   1.679   2.375   2.558
 1465SOL    HW2 6170   1.739   2.361   2.696
 1466SOL     OW 6171   6.446   6.295   6.835
 1466SOL    HW1 6172   6.391   6.230   6.879
 1466SOL    HW2 6173   6.385   6.348   6.785
 1467SOL     OW 6174   9.881   2.343  10.681
 1467SOL    HW1 6175   9.926   2.259  10.691
 1467SOL    HW2 6176   9.789   2.323  10.698
 1468SOL     OW 6177   7.426  13.947   7.711
 1468SOL    HW1 6178   7.450  14.033   7.745
 1468SOL    HW2 6179   7.380  13.966   7.629
 1469SOL     OW 6180  13.770   7.155  11.766
 1469SOL    HW1 6181  13.743   7.177  11.855
 1469SOL    HW2 6182  13.709   7.202  11.710
 1470SOL     OW 6183   2.866   6.960   1.298
 1470SOL    HW1 6184   2.954   6.950   1.333
 1470SOL    HW2 6185   2.875   7.025   1.229
 1471SOL     OW 6186   9.481  12.446   3.810
 1471SOL    HW1 6187   9.459  12.431   3.719
 1471SOL    HW2 6188   9.525  12.531   3.811
 1472SOL     OW 6189   4.734   9.794   0.905
 1472SOL    HW1 6190   4.651   9.832   0.878
 1472SOL    HW2 6191   4.710   9.723   0.965
 1473SOL     OW 6192   5.887   2.743  12.864
 1473SOL    HW1 6193   5.885   2.649  12.884
 1473SOL    HW2 6194   5.926   2.783  12.941
 1474SOL     OW 6195  12.720   4.882   8.812
 1474SOL    HW1 6196  12.806   4.873   8.770
 1474SOL    HW2 6197  12.697   4.974   8.801
 1475SOL     OW 6198   2.564   0.307   8.949
 1475SOL    HW1 6199   2.477   0.281   8.980
 1475SOL    HW2 6200   2.546   0.357   8.869
 1476SOL     OW 6201   2.669   8.669   4.125
 1476SOL    HW1 6202   2.724   8.747   4.131
 1476SOL    HW2 6203   2.699   8.624   4.046
 1477SOL     OW 6204   4.497  14.589   3.557
 1477SOL    HW1 6205   4.476  14.638   3.478
 1477SOL    HW2 6206   4.568  14.638   3.598
 1478SOL     OW 6207   7.882  13.692   4.924
 1478SOL    HW1 6208   7.853  13.602   4.908
 1478SOL    HW2 6209   7.825  13.746   4.869
 1479SOL     OW 6210   0.664   5.104   6.197
 1479SOL    HW1 6211   0.654   5.122   6.291
 1479SOL    HW2 6212   0.693   5.187   6.160
 1480SOL     OW 6213   5.875   5.012  10.973
 1480SOL    HW1 6214   5.866   5.086  10.913
 1480SOL    HW2 6215   5.785   4.991  10.998
 1481SOL     OW 6216  11.748   5.284   6.315
 1481SOL    HW1 6217  11.681   5.218   6.337
 1481SOL    HW2 6218  11.798   5.243   6.244
 1482SOL     OW 6219  12.582   5.427  10.169
 1482SOL    HW1 6220  12.617   5.492  10.107
 1482SOL    HW2 6221  12.600   5.343  10.128
 1483SOL     OW 6222   5.285   3.043  11.940
 1483SOL    HW1 6223   5.191   3.061  11.951
 1483SOL    HW2 6224   5.304   3.075  11.852
 1484SOL     OW 6225   6.058   9.184   3.004
 1484SOL    HW1 6226   5.964   9.198   2.991
 1484SOL    HW2 6227   6.077   9.104   2.956
 1485SOL     OW 6228   3.803   3.113  13.269
 1485SOL    HW1 6229   3.795   3.135  13.176
 1485SOL    HW2 6230   3.723   3.062  13.288
 1486SOL     OW 6231  10.169   3.095  11.786
 1486SOL    HW1 6232  10.079   3.125  11.798
 1486SOL    HW2 6233  10.223   3.168  11.815
 1487SOL     OW 6234   8.607  14.821  11.796
 1487SOL    HW1 6235   8.616   0.037  11.778
 1487SOL    HW2 6236   8.582  14.817  11.889
 1488SOL     OW 6237  13.848  14.773   4.900
 1488SOL    HW1 6238  13.803  14.689   4.904
 1488SOL    HW2 6239  13.782  14.838   4.924
 1489SOL     OW 6240  13.181   5.392   6.084
 1489SOL    HW1 6241  13.094   5.380   6.044
 1489SOL    HW2 6242  13.190   5.487   6.092
 1490SOL     OW 6243  10.886  10.752  13.367
 1490SOL    HW1 6244  10.936  10.692  13.312
 1490SOL    HW2 6245  10.819  10.788  13.309
 1491SOL     OW 6246   5.930  13.758  11.011
 1491SOL    HW1 6247   5.895  13.840  10.976
 1491SOL    HW2 6248   5.853  13.703  11.026
 1492SOL     OW 6249   1.950  10.648   3.842
 1492SOL    HW1 6250   1.892  10.675   3.914
 1492SOL    HW2 6251   1.911  10.567   3.810
 1493SOL     OW 6252  12.555  14.037  10.502
 1493SOL    HW1 6253  12.480  14.042  10.443
 1493SOL    HW2 6254  12.624  14.087  10.457
 1494SOL     OW 6255   0.455   7.396   3.601
 1494SOL    HW1 6256   0.474   7.435   3.686
 1494SOL    HW2 6257   0.483   7.304   3.611
 1495SOL     OW 6258  14.060   9.816   8.505
 1495SOL    HW1 6259  14.084   9.897   8.551
 1495SOL    HW2 6260  14.026   9.758   8.573
 1496SOL     OW 6261   0.259  10.183   7.579
 1496SOL    HW1 6262   0.250  10.108   7.638
 1496SOL    HW2 6263   0.281  10.256   7.636
 1497SOL     OW 6264   9.979   2.855   2.703
 1497SOL    HW1 6265   9.969   2.892   2.790
 1497SOL    HW2 6266  10.064   2.810   2.706
 1498SOL     OW 6267   1.537   0.109  11.734
 1498SOL    HW1 6268   1.519   0.089  11.642
 1498SOL    HW2 6269   1.571   0.199  11.733
 1499SOL     OW 6270   2.502   6.118   2.962
 1499SOL    HW1 6271   2.537   6.165   3.038
 1499SOL    HW2 6272   2.549   6.155   2.888
 1500SOL     OW 6273   6.037  12.308   2.311
 1500SOL    HW1 6274   6.022  12.304   2.217
 1500SOL    HW2 6275   6.040  12.402   2.331
 1501SOL     OW 6276   3.128  13.076   8.998
 1501SOL    HW1 6277   3.077  13.153   8.973
 1501SOL    HW2 6278   3.170  13.048   8.917
 1502SOL     OW 6279   3.385  11.603   1.757
 1502SOL    HW1 6280   3.447  11.634   1.824
 1502SOL    HW2 6281   3.440  11.562   1.691
 1503SOL     OW 6282   9.299  12.869  12.307
 1503SOL    HW1 6283   9.229  12.804  12.298
 1503SOL    HW2 6284   9.287  12.927  12.232
 1504SOL     OW 6285   6.855   8.089  10.958
 1504SOL    HW1 6286   6.824   8.083  11.048
 1504SOL    HW2 6287   6.777   8.115  10.908
 1505SOL     OW 6288   6.275   4.184   0.186
 1505SOL    HW1 6289   6.238   4.237   0.115
 1505SOL    HW2 6290   6.362   4.222   0.201
 1506SOL     OW 6291   2.884  13.332   9.898
 1506SOL    HW1 6292   2.937  13.282   9.961
 1506SOL    HW2 6293   2.886  13.422   9.930
 1507SOL     OW 6294  12.434   1.604   3.134
 1507SOL    HW1 6295  12.382   1.545   3.078
 1507SOL    HW2 6296  12.443   1.684   3.083
 1508SOL     OW 6297  12.321   3.842  11.902
 1508SOL    HW1 6298  12.339   3.819  11.994
 1508SOL    HW2 6299  12.283   3.762  11.865
 1509SOL     OW 6300   7.624  11.982   7.885
 1509SOL    HW1 6301   7.611  12.077   7.885
 1509SOL    HW2 6302   7.558  11.949   7.946
 1510SOL     OW 6303  14.048  11.499   6.719
 1510SOL    HW1 6304  13.970  11.549   6.693
 1510SOL    HW2 6305  14.093  11.557   6.782
 1511SOL     OW 6306   9.605   6.718   7.165
 1511SOL    HW1 6307   9.658   6.796   7.146
 1511SOL    HW2 6308   9.644   6.681   7.244
 1512SOL     OW 6309  14.835   6.614  11.284
 1512SOL    HW1 6310  14.766   6.660  11.332
 1512SOL    HW2 6311  14.820   6.638  11.192
 1513SOL     OW 6312  13.839   3.805   7.603
 1513SOL    HW1 6313  13.794   3.721   7.591
 1513SOL    HW2 6314  13.913   3.784   7.659
 1514SOL     OW 6315   0.187   5.888   9.512
 1514SOL    HW1 6316   0.166   5.920   9.599
 1514SOL    HW2 6317   0.252   5.950   9.478
 1515SOL     OW 6318  13.837  13.399   9.211
 1515SOL    HW1 6319  13.790  13.480   9.229
 1515SOL    HW2 6320  13.854  13.361   9.297
 1516SOL     OW 6321  12.457   0.662   7.503
 1516SOL    HW1 6322  12.541   0.644   7.461
 1516SOL    HW2 6323  12.447   0.758   7.497
 1517SOL     OW 6324   9.492   5.854   6.126
 1517SOL    HW1 6325   9.479   5.802   6.047
 1517SOL    HW2 6326   9.443   5.934   6.110
 1518SOL     OW 6327   9.888  11.794   3.980
 1518SOL    HW1 6328   9.815  11.732   3.975
 1518SOL    HW2 6329   9.950  11.754   4.040
 1519SOL     OW 6330  12.053   9.636   6.852
 1519SOL    HW1 6331  12.070   9.559   6.906
 1519SOL    HW2 6332  11.959   9.631   6.834
 1520SOL     OW 6333   0.375   9.565   9.332
 1520SOL    HW1 6334   0.449   9.515   9.297
 1520SOL    HW2 6335   0.413   9.651   9.352
 1521SOL     OW 6336   3.783   3.925   3.062
 1521SOL    HW1 6337   3.796   3.922   3.157
 1521SOL    HW2 6338   3.828   4.004   3.033
 1522SOL     OW 6339  10.518   4.378  11.949
 1522SOL    HW1 6340  10.514   4.459  12.000
 1522SOL    HW2 6341  10.514   4.407  11.858
 1523SOL     OW 6342   8.026  12.786   2.078
 1523SOL    HW1 6343   8.001  12.800   2.169
 1523SOL    HW2 6344   7.960  12.833   2.027
 1524SOL     OW 6345   2.960   6.956  10.474
 1524SOL    HW1 6346   3.028   7.013  10.509
 1524SOL    HW2 6347   2.881   6.980  10.524
 1525SOL     OW 6348  13.039  13.317   2.900
 1525SOL    HW1 6349  13.038  13.222   2.915
 1525SOL    HW2 6350  12.987  13.353   2.972
 1526SOL     OW 6351   8.190   7.773   6.932
 1526SOL    HW1 6352   8.170   7.708   6.999
 1526SOL    HW2 6353   8.155   7.855   6.966
 1527SOL     OW 6354  13.624   1.780   2.748
 1527SOL    HW1 6355  13.599   1.688   2.738
 1527SOL    HW2 6356  13.634   1.792   2.842
 1528SOL     OW 6357  14.002   0.891   9.829
 1528SOL    HW1 6358  14.098   0.890   9.827
 1528SOL    HW2 6359  13.977   0.876   9.738
 1529SOL     OW 6360  13.250   1.577   5.008
 1529SOL    HW1 6361  13.304   1.640   4.960
 1529SOL    HW2 6362  13.305   1.499   5.016
 1530SOL     OW 6363   8.468   5.084  11.453
 1530SOL    HW1 6364   8.487   5.107  11.544
 1530SOL    HW2 6365   8.553   5.064  11.415
 1531SOL     OW 6366  12.389   4.601   8.617
 1531SOL    HW1 6367  12.468   4.558   8.584
 1531SOL    HW2 6368  12.317   4.547   8.584
 1532SOL     OW 6369   6.269  13.908   9.878
 1532SOL    HW1 6370   6.269  13.940   9.788
 1532SOL    HW2 6371   6.178  13.879   9.893
 1533SOL     OW 6372  10.607  14.509  13.726
 1533SOL    HW1 6373  10.560  14.549  13.653
 1533SOL    HW2 6374  10.682  14.567  13.740
 1534SOL     OW 6375   0.327  13.340  10.880
 1534SOL    HW1 6376   0.312  13.433  10.897
 1534SOL    HW2 6377   0.411  13.336  10.836
 1535SOL     OW 6378   5.235   5.121  14.776
 1535SOL    HW1 6379   5.290   5.173  14.718
 1535SOL    HW2 6380   5.273   5.033  14.775
 1536SOL     OW 6381   4.786   0.017  11.560
 1536SOL    HW1 6382   4.853   0.074  11.523
 1536SOL    HW2 6383   4.747   0.068  11.631
 1537SOL     OW 6384   1.944   0.932  11.338
 1537SOL    HW1 6385   1.926   0.957  11.247
 1537SOL    HW2 6386   1.873   0.871  11.360
 1538SOL     OW 6387   2.710   9.521   2.685
 1538SOL    HW1 6388   2.742   9.431   2.691
 1538SOL    HW2 6389   2.762   9.569   2.750
 1539SOL     OW 6390   3.082  11.450   5.218
 1539SOL    HW1 6391   3.053  11.447   5.310
 1539SOL    HW2 6392   3.001  11.445   5.168
 1540SOL     OW 6393   8.012   0.269   8.039
 1540SOL    HW1 6394   8.003   0.175   8.021
 1540SOL    HW2 6395   8.099   0.277   8.079
 1541SOL     OW 6396   1.618  10.603  11.871
 1541SOL    HW1 6397   1.557  10.529  11.867
 1541SOL    HW2 6398   1.577  10.664  11.932
 1542SOL     OW 6399   8.031  12.750   9.409
 1542SOL    HW1 6400   8.033  12.654   9.406
 1542SOL    HW2 6401   7.986  12.776   9.329
 1543SOL     OW 6402  11.864   6.515   4.600
 1543SOL    HW1 6403  11.928   6.571   4.556
 1543SOL    HW2 6404  11.785   6.522   4.547
 1544SOL     OW 6405  10.239   9.547   2.930
 1544SOL    HW1 6406  10.164   9.598   2.900
 1544SOL    HW2 6407  10.296   9.541   2.853
 1545SOL     OW 6408   7.975   8.291  13.096
 1545SOL    HW1 6409   7.884   8.274  13.073
 1545SOL    HW2 6410   7.973   8.374  13.143
 1546SOL     OW 6411   3.839  11.116   8.878
 1546SOL    HW1 6412   3.812  11.031   8.914
 1546SOL    HW2 6413   3.886  11.158   8.949
 1547SOL     OW 6414   8.622   2.332   3.597
 1547SOL    HW1 6415   8.612   2.427   3.599
 1547SOL    HW2 6416   8.533   2.298   3.592
 1548SOL     OW 6417   3.509  13.940   2.984
 1548SOL    HW1 6418   3.446  13.942   3.057
 1548SOL    HW2 6419   3.594  13.953   3.026
 1549SOL     OW 6420  14.692  14.068   5.346
 1549SOL    HW1 6421  14.778  14.029   5.329
 1549SOL    HW2 6422  14.709  14.140   5.407
 1550SOL     OW 6423   9.766   6.693   6.632
 1550SOL    HW1 6424   9.842   6.636   6.637
 1550SOL    HW2 6425   9.717   6.674   6.712
 1551SOL     OW 6426  14.235   2.038   2.374
 1551SOL    HW1 6427  14.264   1.992   2.296
 1551SOL    HW2 6428  14.298   2.109   2.385
 1552SOL     OW 6429   1.732   0.139   9.397
 1552SOL    HW1 6430   1.712   0.184   9.479
 1552SOL    HW2 6431   1.821   0.167   9.376
 1553SOL     OW 6432   0.809  13.302   5.806
 1553SOL    HW1 6433   0.800  13.248   5.727
 1553SOL    HW2 6434   0.886  13.357   5.789
 1554SOL     OW 6435  11.998   0.372  12.617
 1554SOL    HW1 6436  11.988   0.457  12.575
 1554SOL    HW2 6437  12.078   0.380  12.670
 1555SOL     OW 6438  12.420   7.210  10.559
 1555SOL    HW1 6439  12.365   7.283  10.586
 1555SOL    HW2 6440  12.379   7.133  10.597
 1556SOL     OW 6441  14.340  13.218   3.004
 1556SOL    HW1 6442  14.402  13.225   2.931
 1556SOL    HW2 6443  14.322  13.124   3.010
 1557SOL     OW 6444   1.787   3.697  12.271
 1557SOL    HW1 6445   1.778   3.680  12.365
 1557SOL    HW2 6446   1.737   3.627  12.229
 1558SOL     OW 6447   0.083   3.212   7.237
 1558SOL    HW1 6448   0.111   3.142   7.297
 1558SOL    HW2 6449   0.113   3.182   7.151
 1559SOL     OW 6450   3.464   7.324   4.535
 1559SOL    HW1 6451   3.527   7.288   4.598
 1559SOL    HW2 6452   3.512   7.327   4.452
 1560SOL     OW 6453  12.706  13.739   2.544
 1560SOL    HW1 6454  12.732  13.807   2.607
 1560SOL    HW2 6455  12.743  13.658   2.579
 1561SOL     OW 6456   7.528   6.476   8.400
 1561SOL    HW1 6457   7.540   6.438   8.313
 1561SOL    HW2 6458   7.494   6.564   8.384
 1562SOL     OW 6459   6.341  13.308   0.879
 1562SOL    HW1 6460   6.293  13.236   0.838
 1562SOL    HW2 6461   6.352  13.281   0.970
 1563SOL     OW 6462  10.725  12.971   2.613
 1563SOL    HW1 6463  10.776  12.893   2.590
 1563SOL    HW2 6464  10.640  12.957   2.572
 1564SOL     OW 6465   2.903  13.200   8.403
 1564SOL    HW1 6466   2.976  13.202   8.341
 1564SOL    HW2 6467   2.919  13.122   8.456
 1565SOL     OW 6468   0.069  12.136  10.872
 1565SOL    HW1 6469  14.857  12.102  10.877
 1565SOL    HW2 6470   0.068  12.194  10.796
 1566SOL     OW 6471   6.572   3.765   2.211
 1566SOL    HW1 6472   6.582   3.707   2.135
 1566SOL    HW2 6473   6.660   3.772   2.247
 1567SOL     OW 6474   9.473  11.986  10.121
 1567SOL    HW1 6475   9.383  11.968  10.147
 1567SOL    HW2 6476   9.526  11.932  10.179
 1568SOL     OW 6477   1.412  12.424   5.985
 1568SOL    HW1 6478   1.369  12.340   5.969
 1568SOL    HW2 6479   1.430  12.459   5.898
 1569SOL     OW 6480  14.091   1.946   7.815
 1569SOL    HW1 6481  14.045   1.995   7.883
 1569SOL    HW2 6482  14.160   1.899   7.862
 1570SOL     OW 6483  13.934   0.725  10.062
 1570SOL    HW1 6484  14.013   0.697  10.107
 1570SOL    HW2 6485  13.960   0.803  10.012
 1571SOL     OW 6486   3.654   4.371   2.148
 1571SOL    HW1 6487   3.622   4.378   2.058
 1571SOL    HW2 6488   3.703   4.451   2.163
 1572SOL     OW 6489   9.901  11.346  13.616
 1572SOL    HW1 6490   9.965  11.416  13.620
 1572SOL    HW2 6491   9.945  11.276  13.568
 1573SOL     OW 6492   2.622  11.169   5.922
 1573SOL    HW1 6493   2.543  11.172   5.975
 1573SOL    HW2 6494   2.591  11.144   5.835
 1574SOL     OW 6495   1.636   1.028  12.088
 1574SOL    HW1 6496   1.689   0.953  12.062
 1574SOL    HW2 6497   1.555   1.018  12.037
 1575SOL     OW 6498   5.347  10.219   7.937
 1575SOL    HW1 6499   5.349  10.310   7.964
 1575SOL    HW2 6500   5.370  10.169   8.015
 1576SOL     OW 6501   8.147  10.534   5.902
 1576SOL    HW1 6502   8.159  10.507   5.811
 1576SOL    HW2 6503   8.235  10.536   5.939
 1577SOL     OW 6504  12.580   3.725   5.881
 1577SOL    HW1 6505  12.493   3.763   5.890
 1577SOL    HW2 6506  12.605   3.743   5.791
 1578SOL     OW 6507  14.811   9.263   2.856
 1578SOL    HW1 6508  14.800   9.209   2.934
 1578SOL    HW2 6509  14.847   9.346   2.889
 1579SOL     OW 6510  14.843   7.747   8.086
 1579SOL    HW1 6511  14.800   7.743   8.171
 1579SOL    HW2 6512  14.779   7.711   8.024
 1580SOL     OW 6513   2.760   6.363  12.237
 1580SOL    HW1 6514   2.849   6.394  12.221
 1580SOL    HW2 6515   2.705   6.421  12.186
 1581SOL     OW 6516   3.842   2.279  11.655
 1581SOL    HW1 6517   3.843   2.364  11.699
 1581SOL    HW2 6518   3.929   2.243  11.670
 1582SOL     OW 6519   7.282   0.290   9.462
 1582SOL    HW1 6520   7.288   0.286   9.366
 1582SOL    HW2 6521   7.368   0.260   9.492
 1583SOL     OW 6522   2.568   9.359  10.637
 1583SOL    HW1 6523   2.524   9.280  10.604
 1583SOL    HW2 6524   2.574   9.346  10.731
 1584SOL     OW 6525   5.224  11.277   5.290
 1584SOL    HW1 6526   5.270  11.220   5.229
 1584SOL    HW2 6527   5.134  11.280   5.257
 1585SOL     OW 6528   1.823   4.638   8.545
 1585SOL    HW1 6529   1.879   4.677   8.478
 1585SOL    HW2 6530   1.740   4.684   8.537
 1586SOL     OW 6531   6.059  10.806   0.966
 1586SOL    HW1 6532   5.989  10.740   0.968
 1586SOL    HW2 6533   6.040  10.857   0.887
 1587SOL     OW 6534  11.917  12.949   0.961
 1587SOL    HW1 6535  11.949  13.035   0.934
 1587SOL    HW2 6536  11.995  12.904   0.993
 1588SOL     OW 6537   5.186  10.871   9.231
 1588SOL    HW1 6538   5.126  10.872   9.306
 1588SOL    HW2 6539   5.246  10.944   9.248
 1589SOL     OW 6540  10.133   9.972  11.638
 1589SOL    HW1 6541  10.137   9.897  11.696
 1589SOL    HW2 6542  10.058   9.954  11.580
 1590SOL     OW 6543   7.827   8.777   9.351
 1590SOL    HW1 6544   7.848   8.686   9.370
 1590SOL    HW2 6545   7.758   8.773   9.285
 1591SOL     OW 6546   7.806  13.382   3.538
 1591SOL    HW1 6547   7.771  13.318   3.600
 1591SOL    HW2 6548   7.896  13.395   3.566
 1592SOL     OW 6549  13.123   9.284  13.359
 1592SOL    HW1 6550  13.099   9.211  13.302
 1592SOL    HW2 6551  13.217   9.272  13.375
 1593SOL     OW 6552   9.170   4.383  14.278
 1593SOL    HW1 6553   9.130   4.351  14.359
 1593SOL    HW2 6554   9.139   4.473  14.270
 1594SOL     OW 6555   5.785  10.030   7.137
 1594SOL    HW1 6556   5.815  10.100   7.079
 1594SOL    HW2 6557   5.810  10.059   7.225
 1595SOL     OW 6558  13.469   4.059   6.386
 1595SOL    HW1 6559  13.474   3.967   6.360
 1595SOL    HW2 6560  13.498   4.108   6.308
 1596SOL     OW 6561   0.709   9.214   2.725
 1596SOL    HW1 6562   0.717   9.158   2.802
 1596SOL    HW2 6563   0.710   9.303   2.760
 1597SOL     OW 6564   2.164  10.242   2.703
 1597SOL    HW1 6565   2.090  10.207   2.653
 1597SOL    HW2 6566   2.146  10.336   2.709
 1598SOL     OW 6567   6.107   1.436  12.689
 1598SOL    HW1 6568   6.133   1.498  12.621
 1598SOL    HW2 6569   6.147   1.471  12.769
 1599SOL     OW 6570  10.287   0.919  12.029
 1599SOL    HW1 6571  10.380   0.897  12.015
 1599SOL    HW2 6572  10.240   0.865  11.965
 1600SOL     OW 6573  11.743   4.552   7.027
 1600SOL    HW1 6574  11.778   4.506   6.950
 1600SOL    HW2 6575  11.732   4.642   6.999
 1601SOL     OW 6576   0.063  11.634  14.299
 1601SOL    HW1 6577  14.849  11.661  14.300
 1601SOL    HW2 6578   0.069  11.569  14.230
 1602SOL     OW 6579  14.457   7.488   3.732
 1602SOL    HW1 6580  14.477   7.581   3.740
 1602SOL    HW2 6581  14.517   7.445   3.793
 1603SOL     OW 6582   5.533   1.423  14.216
 1603SOL    HW1 6583   5.620   1.425  14.177
 1603SOL    HW2 6584   5.486   1.355  14.167
 1604SOL     OW 6585  13.348   9.844   5.817
 1604SOL    HW1 6586  13.265   9.814   5.854
 1604SOL    HW2 6587  13.352   9.803   5.731
 1605SOL     OW 6588   0.860   2.505   9.783
 1605SOL    HW1 6589   0.797   2.571   9.755
 1605SOL    HW2 6590   0.916   2.491   9.706
 1606SOL     OW 6591   3.819   1.641   2.169
 1606SOL    HW1 6592   3.772   1.587   2.233
 1606SOL    HW2 6593   3.790   1.608   2.084
 1607SOL     OW 6594   8.851   6.260   8.795
 1607SOL    HW1 6595   8.945   6.247   8.778
 1607SOL    HW2 6596   8.839   6.233   8.886
 1608SOL     OW 6597   0.705   0.123   4.685
 1608SOL    HW1 6598   0.699   0.212   4.719
 1608SOL    HW2 6599   0.794   0.095   4.705
 1609SOL     OW 6600   9.371   3.761   0.729
 1609SOL    HW1 6601   9.419   3.770   0.811
 1609SOL    HW2 6602   9.356   3.667   0.720
 1610SOL     OW 6603   5.349   3.738   8.843
 1610SOL    HW1 6604   5.400   3.809   8.804
 1610SOL    HW2 6605   5.284   3.781   8.897
 1611SOL     OW 6606   7.426   3.559  14.722
 1611SOL    HW1 6607   7.488   3.615  14.676
 1611SOL    HW2 6608   7.474   3.529  14.799
 1612SOL     OW 6609   3.621  12.171   3.795
 1612SOL    HW1 6610   3.535  12.146   3.761
 1612SOL    HW2 6611   3.643  12.252   3.748
 1613SOL     OW 6612  13.749  10.883  14.212
 1613SOL    HW1 6613  13.767  10.813  14.274
 1613SOL    HW2 6614  13.830  10.936  14.211
 1614SOL     OW 6615  10.303  14.218  12.694
 1614SOL    HW1 6616  10.388  14.230  12.653
 1614SOL    HW2 6617  10.308  14.132  12.736
 1615SOL     OW 6618   0.344  12.460   9.847
 1615SOL    HW1 6619   0.362  12.368   9.867
 1615SOL    HW2 6620   0.280  12.457   9.776
 1616SOL     OW 6621   2.930   9.498   1.109
 1616SOL    HW1 6622   2.858   9.469   1.053
 1616SOL    HW2 6623   2.955   9.420   1.159
 1617SOL     OW 6624   2.194  12.668  14.095
 1617SOL    HW1 6625   2.124  12.727  14.121
 1617SOL    HW2 6626   2.238  12.713  14.023
 1618SOL     OW 6627   8.241   7.383  13.652
 1618SOL    HW1 6628   8.194   7.419  13.727
 1618SOL    HW2 6629   8.329   7.421  13.659
 1619SOL     OW 6630  10.563   1.391   8.199
 1619SOL    HW1 6631  10.540   1.340   8.277
 1619SOL    HW2 6632  10.658   1.397   8.201
 1620SOL     OW 6633   5.530   2.161   5.475
 1620SOL    HW1 6634   5.604   2.115   5.515
 1620SOL    HW2 6635   5.458   2.149   5.536
 1621SOL     OW 6636   3.421   7.802   0.491
 1621SOL    HW1 6637   3.440   7.752   0.411
 1621SOL    HW2 6638   3.375   7.740   0.547
 1622SOL     OW 6639  13.369   5.326  10.647
 1622SOL    HW1 6640  13.393   5.417  10.628
 1622SOL    HW2 6641  13.281   5.317  10.609
 1623SOL     OW 6642   7.605   4.738   6.806
 1623SOL    HW1 6643   7.592   4.775   6.719
 1623SOL    HW2 6644   7.520   4.700   6.830
 1624SOL     OW 6645   3.675  10.415   2.858
 1624SOL    HW1 6646   3.705  10.506   2.859
 1624SOL    HW2 6647   3.645  10.401   2.769
 1625SOL     OW 6648   2.395   5.297   7.818
 1625SOL    HW1 6649   2.370   5.218   7.865
 1625SOL    HW2 6650   2.461   5.269   7.755
 1626SOL     OW 6651   6.926   9.062   9.051
 1626SOL    HW1 6652   6.910   9.000   9.122
 1626SOL    HW2 6653   6.842   9.070   9.006
 1627SOL     OW 6654   1.979  11.049   4.295
 1627SOL    HW1 6655   1.946  11.031   4.206
 1627SOL    HW2 6656   2.005  10.963   4.328
 1628SOL     OW 6657   4.339   6.801  13.884
 1628SOL    HW1 6658   4.330   6.706  13.893
 1628SOL    HW2 6659   4.262   6.828  13.834
 1629SOL     OW 6660  14.072   1.168   6.307
 1629SOL    HW1 6661  14.018   1.242   6.281
 1629SOL    HW2 6662  14.106   1.133   6.225
 1630SOL     OW 6663   0.361   5.352  13.783
 1630SOL    HW1 6664   0.333   5.377  13.870
 1630SOL    HW2 6665   0.437   5.295  13.797
 1631SOL     OW 6666  11.172   9.684   5.747
 1631SOL    HW1 6667  11.173   9.773   5.782
 1631SOL    HW2 6668  11.138   9.694   5.658
 1632SOL     OW 6669   6.026   6.722   3.010
 1632SOL    HW1 6670   5.961   6.741   2.942
 1632SOL    HW2 6671   5.977   6.674   3.077
 1633SOL     OW 6672   6.647   6.312   9.012
 1633SOL    HW1 6673   6.554   6.318   9.034
 1633SOL    HW2 6674   6.693   6.320   9.095
 1634SOL     OW 6675   9.830   3.375   2.910
 1634SOL    HW1 6676   9.773   3.432   2.857
 1634SOL    HW2 6677   9.852   3.303   2.852
 1635SOL     OW 6678   7.683   1.512  12.640
 1635SOL    HW1 6679   7.643   1.431  12.609
 1635SOL    HW2 6680   7.611   1.557  12.685
 1636SOL     OW 6681  11.351  14.611  10.920
 1636SOL    HW1 6682  11.338  14.526  10.961
 1636SOL    HW2 6683  11.367  14.671  10.993
 1637SOL     OW 6684   2.592   2.079   9.464
 1637SOL    HW1 6685   2.535   2.078   9.387
 1637SOL    HW2 6686   2.534   2.107   9.535
 1638SOL     OW 6687   2.799   0.228   6.699
 1638SOL    HW1 6688   2.809   0.299   6.762
 1638SOL    HW2 6689   2.813   0.148   6.750
 1639SOL     OW 6690  14.016  10.612  11.770
 1639SOL    HW1 6691  14.071  10.588  11.845
 1639SOL    HW2 6692  14.045  10.700  11.746
 1640SOL     OW 6693   1.976  11.058   7.582
 1640SOL    HW1 6694   1.897  11.107   7.608
 1640SOL    HW2 6695   1.941  10.979   7.540
 1641SOL     OW 6696   0.737   4.065   8.414
 1641SOL    HW1 6697   0.798   4.061   8.340
 1641SOL    HW2 6698   0.672   3.997   8.396
 1642SOL     OW 6699   2.997  13.484  12.615
 1642SOL    HW1 6700   3.074  13.529  12.649
 1642SOL    HW2 6701   2.927  13.506  12.677
 1643SOL     OW 6702   6.873   2.119   3.363
 1643SOL    HW1 6703   6.923   2.073   3.430
 1643SOL    HW2 6704   6.851   2.052   3.298
 1644SOL     OW 6705   6.638   5.091   6.501
 1644SOL    HW1 6706   6.593   5.090   6.585
 1644SOL    HW2 6707   6.568   5.106   6.437
 1645SOL     OW 6708  11.972   7.023   0.723
 1645SOL    HW1 6709  11.899   6.960   0.715
 1645SOL    HW2 6710  11.958   7.065   0.807
 1646SOL     OW 6711  11.251   5.949   7.643
 1646SOL    HW1 6712  11.225   6.012   7.710
 1646SOL    HW2 6713  11.306   5.886   7.690
 1647SOL     OW 6714  13.915   7.887  12.425
 1647SOL    HW1 6715  13.865   7.965  12.450
 1647SOL    HW2 6716  13.854   7.837  12.371
 1648SOL     OW 6717   9.117   7.019  13.255
 1648SOL    HW1 6718   9.166   7.083  13.203
 1648SOL    HW2 6719   9.124   7.051  13.345
 1649SOL     OW 6720   0.981   3.341   3.182
 1649SOL    HW1 6721   0.946   3.285   3.113
 1649SOL    HW2 6722   1.074   3.318   3.187
 1650SOL     OW 6723   0.674   6.230  10.807
 1650SOL    HW1 6724   0.643   6.216  10.717
 1650SOL    HW2 6725   0.769   6.234  10.798
 1651SOL     OW 6726  10.604   4.401   5.222
 1651SOL    HW1 6727  10.601   4.493   5.195
 1651SOL    HW2 6728  10.643   4.356   5.147
 1652SOL     OW 6729   6.146  14.354   5.488
 1652SOL    HW1 6730   6.236  14.378   5.469
 1652SOL    HW2 6731   6.120  14.413   5.559
 1653SOL     OW 6732  11.371   8.838  12.940
 1653SOL    HW1 6733  11.453   8.864  12.898
 1653SOL    HW2 6734  11.388   8.848  13.034
 1654SOL     OW 6735   9.127  14.214   3.023
 1654SOL    HW1 6736   9.165  14.165   3.096
 1654SOL    HW2 6737   9.091  14.293   3.063
 1655SOL     OW 6738   3.465  13.402  10.408
 1655SOL    HW1 6739   3.534  13.344  10.441
 1655SOL    HW2 6740   3.510  13.484  10.390
 1656SOL     OW 6741   4.680   1.803  13.074
 1656SOL    HW1 6742   4.674   1.709  13.055
 1656SOL    HW2 6743   4.772   1.817  13.096
 1657SOL     OW 6744   2.316   0.354  10.977
 1657SOL    HW1 6745   2.247   0.296  10.942
 1657SOL    HW2 6746   2.395   0.328  10.929
 1658SOL     OW 6747  14.178   1.817  12.813
 1658SOL    HW1 6748  14.131   1.894  12.781
 1658SOL    HW2 6749  14.169   1.822  12.909
 1659SOL     OW 6750  11.150   4.202   8.959
 1659SOL    HW1 6751  11.123   4.133   8.899
 1659SOL    HW2 6752  11.149   4.160   9.045
 1660SOL     OW 6753  12.245   7.752  13.749
 1660SOL    HW1 6754  12.188   7.719  13.818
 1660SOL    HW2 6755  12.293   7.825  13.789
 1661SOL     OW 6756   7.925  10.605   9.792
 1661SOL    HW1 6757   7.980  10.648   9.726
 1661SOL    HW2 6758   7.855  10.564   9.742
 1662SOL     OW 6759   8.870  13.216  13.515
 1662SOL    HW1 6760   8.922  13.168  13.578
 1662SOL    HW2 6761   8.815  13.150  13.473
 1663SOL     OW 6762  14.666  14.428   7.242
 1663SOL    HW1 6763  14.736  14.363   7.235
 1663SOL    HW2 6764  14.682  14.488   7.170
 1664SOL     OW 6765   2.980  10.519   8.121
 1664SOL    HW1 6766   3.072  10.541   8.135
 1664SOL    HW2 6767   2.965  10.539   8.029
 1665SOL     OW 6768  12.313   4.397  13.759
 1665SOL    HW1 6769  12.231   4.445  13.771
 1665SOL    HW2 6770  12.297   4.340  13.685
 1666SOL     OW 6771  10.918   4.227   8.098
 1666SOL    HW1 6772  10.865   4.285   8.044
 1666SOL    HW2 6773  10.904   4.140   8.060
 1667SOL     OW 6774  10.076  13.146   0.626
 1667SOL    HW1 6775  10.082  13.145   0.721
 1667SOL    HW2 6776  10.032  13.228   0.605
 1668SOL     OW 6777   5.419  12.498  10.781
 1668SOL    HW1 6778   5.385  12.469  10.866
 1668SOL    HW2 6779   5.485  12.432  10.758
 1669SOL     OW 6780   6.241  13.999  12.562
 1669SOL    HW1 6781   6.278  14.082  12.532
 1669SOL    HW2 6782   6.304  13.933  12.535
 1670SOL     OW 6783   2.055  13.610   2.374
 1670SOL    HW1 6784   1.988  13.678   2.369
 1670SOL    HW2 6785   2.132  13.655   2.410
 1671SOL     OW 6786   3.832   6.931   7.386
 1671SOL    HW1 6787   3.801   6.843   7.408
 1671SOL    HW2 6788   3.841   6.930   7.290
 1672SOL     OW 6789  13.063   8.326   1.749
 1672SOL    HW1 6790  13.110   8.258   1.797
 1672SOL    HW2 6791  12.976   8.328   1.789
 1673SOL     OW 6792   3.795  11.280   0.339
 1673SOL    HW1 6793   3.705  11.298   0.313
 1673SOL    HW2 6794   3.848  11.316   0.268
 1674SOL     OW 6795   5.486   7.411  10.804
 1674SOL    HW1 6796   5.494   7.506  10.812
 1674SOL    HW2 6797   5.505   7.378  10.892
 1675SOL     OW 6798   3.006   5.651   4.100
 1675SOL    HW1 6799   3.092   5.612   4.086
 1675SOL    HW2 6800   3.004   5.726   4.041
 1676SOL     OW 6801   4.857   0.032  13.946
 1676SOL    HW1 6802   4.789   0.040  13.879
 1676SOL    HW2 6803   4.820  14.847  14.009
 1677SOL     OW 6804   0.259  11.952  10.986
 1677SOL    HW1 6805   0.299  12.031  11.024
 1677SOL    HW2 6806   0.196  11.986  10.923
 1678SOL     OW 6807  12.745  10.097   2.595
 1678SOL    HW1 6808  12.746  10.092   2.500
 1678SOL    HW2 6809  12.837  10.110   2.619
 1679SOL     OW 6810   0.047  12.993  12.690
 1679SOL    HW1 6811   0.093  12.929  12.636
 1679SOL    HW2 6812  14.848  12.946  12.724
 1680SOL     OW 6813   1.069   4.671  14.551
 1680SOL    HW1 6814   1.048   4.676  14.644
 1680SOL    HW2 6815   1.161   4.644  14.548
 1681SOL     OW 6816  13.800  13.113   7.828
 1681SOL    HW1 6817  13.771  13.087   7.915
 1681SOL    HW2 6818  13.849  13.193   7.841
 1682SOL     OW 6819  10.983   8.788   1.230
 1682SOL    HW1 6820  11.017   8.814   1.316
 1682SOL    HW2 6821  10.894   8.822   1.229
 1683SOL     OW 6822   9.078   9.500  10.135
 1683SOL    HW1 6823   9.073   9.549  10.054
 1683SOL    HW2 6824   9.104   9.564  10.201
 1684SOL     OW 6825   6.072   7.597  13.904
 1684SOL    HW1 6826   6.029   7.543  13.969
 1684SOL    HW2 6827   6.061   7.549  13.822
 1685SOL     OW 6828   2.797   9.793   6.126
 1685SOL    HW1 6829   2.848   9.730   6.176
 1685SOL    HW2 6830   2.742   9.837   6.190
 1686SOL     OW 6831  13.460  14.818   9.684
 1686SOL    HW1 6832  13.554  14.803   9.688
 1686SOL    HW2 6833  13.433  14.781   9.600
 1687SOL     OW 6834   8.348   3.378   6.678
 1687SOL    HW1 6835   8.317   3.295   6.715
 1687SOL    HW2 6836   8.386   3.425   6.753
 1688SOL     OW 6837   1.806  10.470   9.564
 1688SOL    HW1 6838   1.806  10.542   9.627
 1688SOL    HW2 6839   1.731  10.488   9.507
 1689SOL     OW 6840   5.493   0.816  14.050
 1689SOL    HW1 6841   5.523   0.822  13.959
 1689SOL    HW2 6842   5.554   0.871  14.099
 1690SOL     OW 6843   0.673   3.233  12.206
 1690SOL    HW1 6844   0.744   3.182  12.245
 1690SOL    HW2 6845   0.594   3.201  12.249
 1691SOL     OW 6846   8.995   3.782   7.381
 1691SOL    HW1 6847   8.900   3.790   7.381
 1691SOL    HW2 6848   9.027   3.869   7.356
 1692SOL     OW 6849  14.123   4.086   5.532
 1692SOL    HW1 6850  14.106   4.061   5.623
 1692SOL    HW2 6851  14.147   4.179   5.537
 1693SOL     OW 6852   1.749  10.151   4.232
 1693SOL    HW1 6853   1.828  10.116   4.193
 1693SOL    HW2 6854   1.774  10.173   4.322
 1694SOL     OW 6855   8.338   3.317   7.200
 1694SOL    HW1 6856   8.389   3.312   7.120
 1694SOL    HW2 6857   8.337   3.227   7.234
 1695SOL     OW 6858  13.763  10.478   1.525
 1695SOL    HW1 6859  13.776  10.406   1.587
 1695SOL    HW2 6860  13.843  10.478   1.473
 1696SOL     OW 6861  12.009   7.383   4.666
 1696SOL    HW1 6862  12.104   7.390   4.669
 1696SOL    HW2 6863  11.993   7.292   4.637
 1697SOL     OW 6864   6.738   0.007   9.459
 1697SOL    HW1 6865   6.820  14.858   9.500
 1697SOL    HW2 6866   6.731   0.101   9.477
 1698SOL     OW 6867   4.846  14.795   3.986
 1698SOL    HW1 6868   4.879   0.006   3.975
 1698SOL    HW2 6869   4.865  14.751   3.903
 1699SOL     OW 6870   2.380   3.897   3.860
 1699SOL    HW1 6871   2.403   3.823   3.916
 1699SOL    HW2 6872   2.425   3.878   3.777
 1700SOL     OW 6873   4.037   0.196   9.945
 1700SOL    HW1 6874   4.016   0.104   9.960
 1700SOL    HW2 6875   4.062   0.229  10.032
 1701SOL     OW 6876  10.554   1.422  12.846
 1701SOL    HW1 6877  10.480   1.367  12.870
 1701SOL    HW2 6878  10.532   1.456  12.759
 1702SOL     OW 6879  11.923  12.670   3.846
 1702SOL    HW1 6880  11.994  12.717   3.802
 1702SOL    HW2 6881  11.966  12.595   3.887
 1703SOL     OW 6882   7.272  14.817   3.130
 1703SOL    HW1 6883   7.269  14.855   3.217
 1703SOL    HW2 6884   7.273  14.722   3.144
 1704SOL     OW 6885   7.299   8.589   4.349
 1704SOL    HW1 6886   7.322   8.577   4.257
 1704SOL    HW2 6887   7.260   8.505   4.375
 1705SOL     OW 6888   2.870   5.263   6.082
 1705SOL    HW1 6889   2.896   5.317   6.008
 1705SOL    HW2 6890   2.806   5.316   6.129
 1706SOL     OW 6891   5.731  14.149  13.324
 1706SOL    HW1 6892   5.773  14.114  13.245
 1706SOL    HW2 6893   5.755  14.241  13.326
 1707SOL     OW 6894   0.320   7.358  14.356
 1707SOL    HW1 6895   0.393   7.326  14.303
 1707SOL    HW2 6896   0.282   7.279  14.394
 1708SOL     OW 6897  10.311   2.374   1.566
 1708SOL    HW1 6898  10.261   2.379   1.484
 1708SOL    HW2 6899  10.337   2.464   1.584
 1709SOL     OW 6900   2.424  11.913  10.198
 1709SOL    HW1 6901   2.388  11.835  10.240
 1709SOL    HW2 6902   2.408  11.984  10.260
 1710SOL     OW 6903   1.638   3.196   5.794
 1710SOL    HW1 6904   1.639   3.104   5.770
 1710SOL    HW2 6905   1.627   3.197   5.889
 1711SOL     OW 6906   3.497   8.795   3.283
 1711SOL    HW1 6907   3.589   8.774   3.265
 1711SOL    HW2 6908   3.479   8.870   3.226
 1712SOL     OW 6909   0.626   6.677   1.400
 1712SOL    HW1 6910   0.666   6.596   1.368
 1712SOL    HW2 6911   0.601   6.724   1.320
 1713SOL     OW 6912   1.970   8.029   7.296
 1713SOL    HW1 6913   1.960   7.937   7.274
 1713SOL    HW2 6914   1.880   8.061   7.307
 1714SOL     OW 6915  11.756  10.900   0.055
 1714SOL    HW1 6916  11.800  10.973   0.097
 1714SOL    HW2 6917  11.741  10.929  14.843
 1715SOL     OW 6918   4.887   7.464   9.768
 1715SOL    HW1 6919   4.890   7.417   9.684
 1715SOL    HW2 6920   4.842   7.546   9.747
 1716SOL     OW 6921   1.846  14.730  11.077
 1716SOL    HW1 6922   1.779  14.790  11.043
 1716SOL    HW2 6923   1.798  14.666  11.129
 1717SOL     OW 6924   8.192   8.354  14.526
 1717SOL    HW1 6925   8.145   8.433  14.499
 1717SOL    HW2 6926   8.278   8.362  14.484
 1718SOL     OW 6927   0.266   1.590  14.630
 1718SOL    HW1 6928   0.290   1.499  14.650
 1718SOL    HW2 6929   0.273   1.636  14.713
 1719SOL     OW 6930   1.103  11.500  10.038
 1719SOL    HW1 6931   1.130  11.536   9.954
 1719SOL    HW2 6932   1.184  11.489  10.087
 1720SOL     OW 6933   6.749  12.884   1.407
 1720SOL    HW1 6934   6.786  12.933   1.481
 1720SOL    HW2 6935   6.729  12.798   1.443
 1721SOL     OW 6936   1.570   4.656   0.054
 1721SOL    HW1 6937   1.550   4.700   0.137
 1721SOL    HW2 6938   1.646   4.703   0.020
 1722SOL     OW 6939   7.949  10.629   2.816
 1722SOL    HW1 6940   7.901  10.697   2.768
 1722SOL    HW2 6941   8.025  10.674   2.852
 1723SOL     OW 6942   9.059   7.583   4.544
 1723SOL    HW1 6943   9.055   7.678   4.559
 1723SOL    HW2 6944   8.969   7.553   4.553
 1724SOL     OW 6945  11.034  13.668   6.812
 1724SOL    HW1 6946  11.007  13.702   6.727
 1724SOL    HW2 6947  10.961  13.614   6.841
 1725SOL     OW 6948   0.394   9.211   5.070
 1725SOL    HW1 6949   0.361   9.257   5.148
 1725SOL    HW2 6950   0.318   9.165   5.036
 1726SOL     OW 6951   8.400   3.733   7.597
 1726SOL    HW1 6952   8.471   3.708   7.657
 1726SOL    HW2 6953   8.423   3.822   7.569
 1727SOL     OW 6954   3.788  11.241   6.470
 1727SOL    HW1 6955   3.789  11.181   6.544
 1727SOL    HW2 6956   3.707  11.291   6.481
 1728SOL     OW 6957   0.447   5.232  14.496
 1728SOL    HW1 6958   0.411   5.144  14.482
 1728SOL    HW2 6959   0.370   5.289  14.497
 1729SOL     OW 6960   2.477   7.872   9.848
 1729SOL    HW1 6961   2.384   7.874   9.826
 1729SOL    HW2 6962   2.480   7.897   9.941
 1730SOL     OW 6963   2.949   1.016   0.358
 1730SOL    HW1 6964   2.869   0.975   0.323
 1730SOL    HW2 6965   2.917   1.087   0.413
 1731SOL     OW 6966   6.678   0.353  10.627
 1731SOL    HW1 6967   6.739   0.321  10.693
 1731SOL    HW2 6968   6.626   0.276  10.603
 1732SOL     OW 6969  11.182  10.337  13.063
 1732SOL    HW1 6970  11.209  10.423  13.032
 1732SOL    HW2 6971  11.172  10.349  13.158
 1733SOL     OW 6972  13.868  14.336  11.213
 1733SOL    HW1 6973  13.919  14.379  11.281
 1733SOL    HW2 6974  13.892  14.244  11.219
 1734SOL     OW 6975  14.739  13.003   5.479
 1734SOL    HW1 6976  14.644  13.001   5.488
 1734SOL    HW2 6977  14.756  12.951   5.400
 1735SOL     OW 6978   2.097   8.741  14.678
 1735SOL    HW1 6979   2.056   8.816  14.635
 1735SOL    HW2 6980   2.113   8.771  14.768
 1736SOL     OW 6981   0.453   6.716  13.053
 1736SOL    HW1 6982   0.468   6.645  13.115
 1736SOL    HW2 6983   0.372   6.757  13.082
 1737SOL     OW 6984   5.742   2.310   3.397
 1737SOL    HW1 6985   5.832   2.280   3.384
 1737SOL    HW2 6986   5.688   2.243   3.355
 1738SOL     OW 6987  10.129  14.849   0.506
 1738SOL    HW1 6988  10.092  14.765   0.477
 1738SOL    HW2 6989  10.058   0.014   0.554
 1739SOL     OW 6990  11.460   9.488   5.437
 1739SOL    HW1 6991  11.514   9.413   5.412
 1739SOL    HW2 6992  11.406   9.456   5.510
 1740SOL     OW 6993  13.910  14.055   5.980
 1740SOL    HW1 6994  13.948  14.030   6.064
 1740SOL    HW2 6995  13.914  14.150   5.979
 1741SOL     OW 6996   2.306   4.963   2.429
 1741SOL    HW1 6997   2.394   4.931   2.448
 1741SOL    HW2 6998   2.319   5.028   2.360
 1742SOL     OW 6999   8.029   7.822   5.950
 1742SOL    HW1 7000   8.065   7.845   6.035
 1742SOL    HW2 7001   8.021   7.906   5.903
 1743SOL     OW 7002   9.499  12.650   3.024
 1743SOL    HW1 7003   9.576  12.690   3.064
 1743SOL    HW2 7004   9.433  12.719   3.025
 1744SOL     OW 7005  10.100   2.311   9.940
 1744SOL    HW1 7006  10.022   2.331   9.887
 1744SOL    HW2 7007  10.121   2.393   9.984
 1745SOL     OW 7008   0.988   0.354   6.694
 1745SOL    HW1 7009   1.031   0.439   6.695
 1745SOL    HW2 7010   0.908   0.368   6.643
 1746SOL     OW 7011   8.195  10.894   7.030
 1746SOL    HW1 7012   8.261  10.923   6.967
 1746SOL    HW2 7013   8.217  10.940   7.111
 1747SOL     OW 7014   7.303  14.145   8.293
 1747SOL    HW1 7015   7.311  14.128   8.199
 1747SOL    HW2 7016   7.239  14.080   8.323
 1748SOL     OW 7017  13.309  11.279   5.130
 1748SOL    HW1 7018  13.230  11.296   5.079
 1748SOL    HW2 7019  13.277  11.249   5.215
 1749SOL     OW 7020  10.412   2.132  10.803
 1749SOL    HW1 7021  10.497   2.089  10.796
 1749SOL    HW2 7022  10.348   2.061  10.795
 1750SOL     OW 7023   5.730   0.333   5.345
 1750SOL    HW1 7024   5.776   0.352   5.427
 1750SOL    HW2 7025   5.736   0.238   5.336
 1751SOL     OW 7026   9.580   1.951  14.140
 1751SOL    HW1 7027   9.610   1.997  14.062
 1751SOL    HW2 7028   9.646   1.883  14.154
 1752SOL     OW 7029   3.739   1.562  12.648
 1752SOL    HW1 7030   3.655   1.541  12.688
 1752SOL    HW2 7031   3.800   1.566  12.722
 1753SOL     OW 7032   4.037   6.300   7.439
 1753SOL    HW1 7033   4.045   6.285   7.533
 1753SOL    HW2 7034   4.076   6.386   7.425
 1754SOL     OW 7035   0.562   2.936   3.441
 1754SOL    HW1 7036   0.569   3.012   3.383
 1754SOL    HW2 7037   0.584   2.970   3.528
 1755SOL     OW 7038  11.582  11.071  13.128
 1755SOL    HW1 7039  11.565  10.986  13.167
 1755SOL    HW2 7040  11.626  11.050  13.045
 1756SOL     OW 7041   8.417   9.775  14.088
 1756SOL    HW1 7042   8.500   9.787  14.043
 1756SOL    HW2 7043   8.376   9.861  14.086
 1757SOL     OW 7044   9.867   3.281   5.427
 1757SOL    HW1 7045   9.777   3.252   5.437
 1757SOL    HW2 7046   9.919   3.214   5.471
 1758SOL     OW 7047  11.680  11.912  10.538
 1758SOL    HW1 7048  11.727  11.961  10.605
 1758SOL    HW2 7049  11.742  11.904  10.466
 1759SOL     OW 7050   2.170   7.602  10.960
 1759SOL    HW1 7051   2.183   7.624  11.052
 1759SOL    HW2 7052   2.128   7.516  10.961
 1760SOL     OW 7053   3.164   2.978   2.468
 1760SOL    HW1 7054   3.176   3.034   2.392
 1760SOL    HW2 7055   3.212   2.898   2.447
 1761SOL     OW 7056  14.166  14.248  14.192
 1761SOL    HW1 7057  14.240  14.204  14.150
 1761SOL    HW2 7058  14.108  14.176  14.218
 1762SOL     OW 7059   4.209   0.974  12.177
 1762SOL    HW1 7060   4.208   0.926  12.260
 1762SOL    HW2 7061   4.137   1.037  12.186
 1763SOL     OW 7062  11.582   6.232  10.954
 1763SOL    HW1 7063  11.498   6.277  10.959
 1763SOL    HW2 7064  11.560   6.142  10.933
 1764SOL     OW 7065  14.658   0.337   3.850
 1764SOL    HW1 7066  14.691   0.388   3.776
 1764SOL    HW2 7067  14.635   0.252   3.812
 1765SOL     OW 7068   0.111   6.163   5.715
 1765SOL    HW1 7069   0.140   6.077   5.748
 1765SOL    HW2 7070   0.117   6.221   5.790
 1766SOL     OW 7071  10.823  14.190   7.399
 1766SOL    HW1 7072  10.895  14.161   7.343
 1766SOL    HW2 7073  10.803  14.114   7.453
 1767SOL     OW 7074   2.201   7.617   4.426
 1767SOL    HW1 7075   2.275   7.569   4.463
 1767SOL    HW2 7076   2.192   7.581   4.337
 1768SOL     OW 7077  11.125  13.109   5.273
 1768SOL    HW1 7078  11.161  13.155   5.198
 1768SOL    HW2 7079  11.186  13.037   5.289
 1769SOL     OW 7080  13.355   3.433   9.155
 1769SOL    HW1 7081  13.441   3.476   9.161
 1769SOL    HW2 7082  13.375   3.343   9.130
 1770SOL     OW 7083   6.189   9.624   0.443
 1770SOL    HW1 7084   6.216   9.612   0.534
 1770SOL    HW2 7085   6.183   9.536   0.408
 1771SOL     OW 7086   2.235   0.148  11.502
 1771SOL    HW1 7087   2.281   0.158  11.419
 1771SOL    HW2 7088   2.232   0.237  11.538
 1772SOL     OW 7089   0.899   7.171  13.520
 1772SOL    HW1 7090   0.971   7.113  13.545
 1772SOL    HW2 7091   0.872   7.140  13.434
 1773SOL     OW 7092  10.177  12.101   8.426
 1773SOL    HW1 7093  10.200  12.017   8.387
 1773SOL    HW2 7094  10.081  12.103   8.423
 1774SOL     OW 7095   4.363   8.325   8.315
 1774SOL    HW1 7096   4.291   8.388   8.314
 1774SOL    HW2 7097   4.386   8.313   8.223
 1775SOL     OW 7098   3.118  13.518  14.680
 1775SOL    HW1 7099   3.045  13.535  14.621
 1775SOL    HW2 7100   3.179  13.590  14.663
 1776SOL     OW 7101   8.914  10.421   1.573
 1776SOL    HW1 7102   8.849  10.351   1.579
 1776SOL    HW2 7103   8.862  10.500   1.558
 1777SOL     OW 7104   0.876   6.140   9.598
 1777SOL    HW1 7105   0.824   6.183   9.666
 1777SOL    HW2 7106   0.913   6.063   9.641
 1778SOL     OW 7107   9.247   5.132  10.869
 1778SOL    HW1 7108   9.302   5.207  10.892
 1778SOL    HW2 7109   9.290   5.094  10.792
 1779SOL     OW 7110  12.172   9.132   1.380
 1779SOL    HW1 7111  12.204   9.189   1.310
 1779SOL    HW2 7112  12.251   9.099   1.423
 1780SOL     OW 7113  13.847   0.550   3.857
 1780SOL    HW1 7114  13.884   0.632   3.889
 1780SOL    HW2 7115  13.921   0.489   3.855
 1781SOL     OW 7116   2.698  13.301  12.160
 1781SOL    HW1 7117   2.744  13.352  12.226
 1781SOL    HW2 7118   2.755  13.226  12.143
 1782SOL     OW 7119   1.477   7.334  14.518
 1782SOL    HW1 7120   1.527   7.259  14.550
 1782SOL    HW2 7121   1.391   7.298  14.497
 1783SOL     OW 7122   3.376  10.315  10.506
 1783SOL    HW1 7123   3.460  10.302  10.460
 1783SOL    HW2 7124   3.388  10.271  10.590
 1784SOL     OW 7125   7.037  14.671  14.136
 1784SOL    HW1 7126   7.106  14.625  14.184
 1784SOL    HW2 7127   7.005  14.737  14.198
 1785SOL     OW 7128   2.680   9.995   0.929
 1785SOL    HW1 7129   2.594   9.996   0.887
 1785SOL    HW2 7130   2.732   9.934   0.878
 1786SOL     OW 7131   8.020  14.811  11.734
 1786SOL    HW1 7132   8.115  14.801  11.739
 1786SOL    HW2 7133   8.000   0.009  11.790
 1787SOL     OW 7134  13.527   2.475   9.829
 1787SOL    HW1 7135  13.603   2.435   9.785
 1787SOL    HW2 7136  13.494   2.539   9.767
 1788SOL     OW 7137  13.439   1.618   5.237
 1788SOL    HW1 7138  13.405   1.563   5.308
 1788SOL    HW2 7139  13.369   1.617   5.171
 1789SOL     OW 7140   5.325  11.975  11.713
 1789SOL    HW1 7141   5.386  12.039  11.748
 1789SOL    HW2 7142   5.356  11.891  11.746
 1790SOL     OW 7143   6.701   7.629   8.102
 1790SOL    HW1 7144   6.691   7.722   8.123
 1790SOL    HW2 7145   6.774   7.600   8.156
 1791SOL     OW 7146  12.999   8.791   0.675
 1791SOL    HW1 7147  13.007   8.876   0.632
 1791SOL    HW2 7148  13.083   8.777   0.719
 1792SOL     OW 7149  11.529   2.920  11.615
 1792SOL    HW1 7150  11.475   2.923  11.694
 1792SOL    HW2 7151  11.539   3.012  11.589
 1793SOL     OW 7152   6.250   0.455   6.462
 1793SOL    HW1 7153   6.180   0.506   6.503
 1793SOL    HW2 7154   6.231   0.461   6.368
 1794SOL     OW 7155   6.907  13.274   4.837
 1794SOL    HW1 7156   6.833  13.283   4.897
 1794SOL    HW2 7157   6.923  13.179   4.833
 1795SOL     OW 7158   8.861  10.122  10.059
 1795SOL    HW1 7159   8.860  10.072  10.140
 1795SOL    HW2 7160   8.768  10.130  10.035
 1796SOL     OW 7161   8.358  12.030   7.501
 1796SOL    HW1 7162   8.273  11.991   7.526
 1796SOL    HW2 7163   8.339  12.123   7.490
 1797SOL     OW 7164  12.784  12.836   7.724
 1797SOL    HW1 7165  12.832  12.753   7.727
 1797SOL    HW2 7166  12.754  12.843   7.634
 1798SOL     OW 7167   1.537  13.532   9.990
 1798SOL    HW1 7168   1.591  13.603  10.025
 1798SOL    HW2 7169   1.448  13.556  10.015
 1799SOL     OW 7170  10.992  13.224   3.726
 1799SOL    HW1 7171  10.970  13.309   3.689
 1799SOL    HW2 7172  11.051  13.243   3.799
 1800SOL     OW 7173   7.984  10.523  13.914
 1800SOL    HW1 7174   7.986  10.540  13.819
 1800SOL    HW2 7175   8.039  10.591  13.952
 1801SOL     OW 7176   2.717  13.267   2.405
 1801SOL    HW1 7177   2.760  13.352   2.392
 1801SOL    HW2 7178   2.658  13.281   2.479
 1802SOL     OW 7179   0.324   8.051  12.356
 1802SOL    HW1 7180   0.296   8.134  12.316
 1802SOL    HW2 7181   0.272   7.985  12.310
 1803SOL     OW 7182  14.026   2.867  10.822
 1803SOL    HW1 7183  13.975   2.941  10.790
 1803SOL    HW2 7184  13.961   2.800  10.843
 1804SOL     OW 7185   8.457  12.824   1.664
 1804SOL    HW1 7186   8.426  12.910   1.638
 1804SOL    HW2 7187   8.416  12.808   1.749
 1805SOL     OW 7188   6.004   7.487   0.606
 1805SOL    HW1 7189   6.035   7.570   0.643
 1805SOL    HW2 7190   6.084   7.444   0.575
 1806SOL     OW 7191   5.131   4.959  13.075
 1806SOL    HW1 7192   5.091   5.034  13.119
 1806SOL    HW2 7193   5.200   4.997  13.021
 1807SOL     OW 7194   3.807   0.813   7.752
 1807SOL    HW1 7195   3.750   0.889   7.741
 1807SOL    HW2 7196   3.869   0.819   7.680
 1808SOL     OW 7197   9.058   5.631  11.231
 1808SOL    HW1 7198   8.977   5.677  11.255
 1808SOL    HW2 7199   9.123   5.701  11.223
 1809SOL     OW 7200   5.334   5.506  12.570
 1809SOL    HW1 7201   5.350   5.423  12.615
 1809SOL    HW2 7202   5.316   5.480  12.479
 1810SOL     OW 7203  13.019  10.701   9.384
 1810SOL    HW1 7204  13.066  10.696   9.468
 1810SOL    HW2 7205  12.927  10.712   9.408
 1811SOL     OW 7206   7.005   8.751   2.605
 1811SOL    HW1 7207   7.030   8.791   2.689
 1811SOL    HW2 7208   6.990   8.826   2.547
 1812SOL     OW 7209   4.336   9.112   2.132
 1812SOL    HW1 7210   4.345   9.184   2.071
 1812SOL    HW2 7211   4.412   9.056   2.115
 1813SOL     OW 7212  13.159   6.691   1.138
 1813SOL    HW1 7213  13.193   6.775   1.166
 1813SOL    HW2 7214  13.235   6.632   1.138
 1814SOL     OW 7215  12.152   5.723   8.531
 1814SOL    HW1 7216  12.101   5.750   8.608
 1814SOL    HW2 7217  12.088   5.685   8.471
 1815SOL     OW 7218   1.115   1.795   7.771
 1815SOL    HW1 7219   1.091   1.830   7.685
 1815SOL    HW2 7220   1.173   1.722   7.752
 1816SOL     OW 7221  10.726   4.380   2.307
 1816SOL    HW1 7222  10.727   4.289   2.278
 1816SOL    HW2 7223  10.819   4.405   2.310
 1817SOL     OW 7224   4.336   6.199   7.846
 1817SOL    HW1 7225   4.402   6.249   7.894
 1817SOL    HW2 7226   4.313   6.127   7.904
 1818SOL     OW 7227   1.433   0.713   0.887
 1818SOL    HW1 7228   1.369   0.687   0.954
 1818SOL    HW2 7229   1.440   0.808   0.898
 1819SOL     OW 7230   5.280   7.991   6.045
 1819SOL    HW1 7231   5.332   7.912   6.059
 1819SOL    HW2 7232   5.189   7.961   6.042
 1820SOL     OW 7233   3.967   9.800  11.348
 1820SOL    HW1 7234   4.010   9.884  11.330
 1820SOL    HW2 7235   3.975   9.789  11.443
 1821SOL     OW 7236   6.451   2.407   1.294
 1821SOL    HW1 7237   6.482   2.498   1.295
 1821SOL    HW2 7238   6.416   2.395   1.205
 1822SOL     OW 7239   6.302   5.221   9.660
 1822SOL    HW1 7240   6.259   5.299   9.696
 1822SOL    HW2 7241   6.345   5.252   9.580
 1823SOL     OW 7242  14.158   4.062   0.435
 1823SOL    HW1 7243  14.113   4.143   0.413
 1823SOL    HW2 7244  14.147   4.053   0.529
 1824SOL     OW 7245   8.386   3.557   1.584
 1824SOL    HW1 7246   8.317   3.532   1.645
 1824SOL    HW2 7247   8.391   3.485   1.521
 1825SOL     OW 7248   4.362  13.661   2.871
 1825SOL    HW1 7249   4.363  13.690   2.962
 1825SOL    HW2 7250   4.447  13.688   2.836
 1826SOL     OW 7251   6.047   2.826   7.567
 1826SOL    HW1 7252   6.051   2.905   7.621
 1826SOL    HW2 7253   6.103   2.763   7.611
 1827SOL     OW 7254   4.630  10.508  10.188
 1827SOL    HW1 7255   4.543  10.484  10.157
 1827SOL    HW2 7256   4.675  10.424  10.200
 1828SOL     OW 7257  10.961   1.946   3.760
 1828SOL    HW1 7258  10.981   1.853   3.751
 1828SOL    HW2 7259  10.930   1.972   3.673
 1829SOL     OW 7260   9.960   0.787  13.825
 1829SOL    HW1 7261   9.954   0.881  13.809
 1829SOL    HW2 7262  10.051   0.772  13.848
 1830SOL     OW 7263  11.033  13.711  10.766
 1830SOL    HW1 7264  11.016  13.796  10.806
 1830SOL    HW2 7265  10.984  13.714  10.684
 1831SOL     OW 7266   9.739  11.665   9.219
 1831SOL    HW1 7267   9.661  11.622   9.253
 1831SOL    HW2 7268   9.803  11.659   9.290
 1832SOL     OW 7269   4.970   4.689   8.099
 1832SOL    HW1 7270   4.900   4.707   8.035
 1832SOL    HW2 7271   4.983   4.594   8.094
 1833SOL     OW 7272   7.551   8.763   2.671
 1833SOL    HW1 7273   7.587   8.745   2.758
 1833SOL    HW2 7274   7.465   8.720   2.671
 1834SOL     OW 7275   4.338  12.522  13.695
 1834SOL    HW1 7276   4.337  12.509  13.601
 1834SOL    HW2 7277   4.327  12.435  13.732
 1835SOL     OW 7278  11.269   2.750   3.128
 1835SOL    HW1 7279  11.250   2.837   3.162
 1835SOL    HW2 7280  11.299   2.700   3.204
 1836SOL     OW 7281   9.188   9.222   1.797
 1836SOL    HW1 7282   9.125   9.150   1.797
 1836SOL    HW2 7283   9.180   9.261   1.710
 1837SOL     OW 7284   3.045   6.862  12.680
 1837SOL    HW1 7285   3.094   6.875  12.761
 1837SOL    HW2 7286   3.088   6.919  12.617
 1838SOL     OW 7287  13.435   8.892   4.547
 1838SOL    HW1 7288  13.430   8.891   4.643
 1838SOL    HW2 7289  13.432   8.799   4.522
 1839SOL     OW 7290   7.135   7.908   7.909
 1839SOL    HW1 7291   7.206   7.948   7.958
 1839SOL    HW2 7292   7.066   7.974   7.909
 1840SOL     OW 7293  13.251  10.750  13.002
 1840SOL    HW1 7294  13.284  10.670  13.042
 1840SOL    HW2 7295  13.321  10.778  12.944
 1841SOL     OW 7296  13.748  12.874   8.693
 1841SOL    HW1 7297  13.759  12.953   8.641
 1841SOL    HW2 7298  13.819  12.816   8.665
 1842SOL     OW 7299  11.210   9.030   8.938
 1842SOL    HW1 7300  11.196   9.037   8.843
 1842SOL    HW2 7301  11.203   8.936   8.956
 1843SOL     OW 7302   8.433   6.660  10.854
 1843SOL    HW1 7303   8.394   6.723  10.794
 1843SOL    HW2 7304   8.360   6.606  10.884
 1844SOL     OW 7305   9.033  13.469   1.975
 1844SOL    HW1 7306   9.049  13.556   2.012
 1844SOL    HW2 7307   8.938  13.464   1.965
 1845SOL     OW 7308   8.950  10.079   4.877
 1845SOL    HW1 7309   8.905  10.060   4.795
 1845SOL    HW2 7310   8.942   9.997   4.927
 1846SOL     OW 7311   9.047   9.472   5.232
 1846SOL    HW1 7312   9.003   9.417   5.297
 1846SOL    HW2 7313   8.979   9.493   5.168
 1847SOL     OW 7314  10.436  13.904   8.227
 1847SOL    HW1 7315  10.502  13.963   8.190
 1847SOL    HW2 7316  10.418  13.842   8.156
 1848SOL     OW 7317  14.640  13.517   1.167
 1848SOL    HW1 7318  14.675  13.557   1.088
 1848SOL    HW2 7319  14.607  13.432   1.139
 1849SOL     OW 7320  11.699  13.807  13.792
 1849SOL    HW1 7321  11.701  13.736  13.857
 1849SOL    HW2 7322  11.790  13.836  13.786
 1850SOL     OW 7323   0.429   4.334  11.208
 1850SOL    HW1 7324   0.454   4.242  11.214
 1850SOL    HW2 7325   0.346   4.333  11.158
 1851SOL     OW 7326   3.093   0.208   7.653
 1851SOL    HW1 7327   3.187   0.219   7.665
 1851SOL    HW2 7328   3.071   0.133   7.709
 1852SOL     OW 7329   6.218   7.051   2.222
 1852SOL    HW1 7330   6.262   7.113   2.163
 1852SOL    HW2 7331   6.287   7.020   2.280
 1853SOL     OW 7332   3.260   9.493   0.422
 1853SOL    HW1 7333   3.169   9.488   0.452
 1853SOL    HW2 7334   3.312   9.470   0.499
 1854SOL     OW 7335   3.792  11.962   2.673
 1854SOL    HW1 7336   3.882  11.976   2.645
 1854SOL    HW2 7337   3.779  12.025   2.744
 1855SOL     OW 7338   2.391  14.173  10.279
 1855SOL    HW1 7339   2.440  14.112  10.335
 1855SOL    HW2 7340   2.382  14.252  10.332
 1856SOL     OW 7341   1.185  14.846  11.268
 1856SOL    HW1 7342   1.181   0.003  11.357
 1856SOL    HW2 7343   1.107   0.005  11.225
 1857SOL     OW 7344   0.251  13.057   6.071
 1857SOL    HW1 7345   0.171  13.102   6.099
 1857SOL    HW2 7346   0.221  12.998   6.001
 1858SOL     OW 7347   7.577   2.470  11.110
 1858SOL    HW1 7348   7.515   2.535  11.077
 1858SOL    HW2 7349   7.531   2.428  11.182
 1859SOL     OW 7350   8.022  12.767   9.888
 1859SOL    HW1 7351   7.965  12.843   9.877
 1859SOL    HW2 7352   7.962  12.695   9.906
 1860SOL     OW 7353   1.329   0.959  12.317
 1860SOL    HW1 7354   1.401   0.931  12.260
 1860SOL    HW2 7355   1.251   0.949  12.262
 1861SOL     OW 7356  11.924   1.047   7.137
 1861SOL    HW1 7357  11.865   0.992   7.189
 1861SOL    HW2 7358  11.999   0.990   7.118
 1862SOL     OW 7359   3.194  10.857  11.924
 1862SOL    HW1 7360   3.127  10.925  11.917
 1862SOL    HW2 7361   3.272  10.904  11.955
 1863SOL     OW 7362   6.612  13.873   6.039
 1863SOL    HW1 7363   6.655  13.921   5.968
 1863SOL    HW2 7364   6.685  13.838   6.090
 1864SOL     OW 7365  12.954   0.433   8.367
 1864SOL    HW1 7366  12.944   0.447   8.461
 1864SOL    HW2 7367  12.941   0.339   8.355
 1865SOL     OW 7368  13.332  11.434   5.744
 1865SOL    HW1 7369  13.309  11.363   5.804
 1865SOL    HW2 7370  13.415  11.406   5.704
 1866SOL     OW 7371   3.397   5.316   2.662
 1866SOL    HW1 7372   3.343   5.390   2.634
 1866SOL    HW2 7373   3.355   5.285   2.743
 1867SOL     OW 7374   6.914   2.310   2.200
 1867SOL    HW1 7375   6.892   2.241   2.262
 1867SOL    HW2 7376   7.009   2.305   2.192
 1868SOL     OW 7377   0.972   7.962   1.296
 1868SOL    HW1 7378   0.959   7.912   1.376
 1868SOL    HW2 7379   0.997   7.896   1.231
 1869SOL     OW 7380   7.635  14.098   0.780
 1869SOL    HW1 7381   7.608  14.042   0.708
 1869SOL    HW2 7382   7.718  14.061   0.810
 1870SOL     OW 7383   6.558  13.699   8.310
 1870SOL    HW1 7384   6.554  13.794   8.297
 1870SOL    HW2 7385   6.525  13.663   8.228
 1871SOL     OW 7386   6.544   8.124   9.238
 1871SOL    HW1 7387   6.537   8.219   9.239
 1871SOL    HW2 7388   6.454   8.093   9.244
 1872SOL     OW 7389   3.234  13.946   4.133
 1872SOL    HW1 7390   3.216  13.978   4.044
 1872SOL    HW2 7391   3.319  13.984   4.155
 1873SOL     OW 7392   5.874  12.677   8.939
 1873SOL    HW1 7393   5.915  12.596   8.968
 1873SOL    HW2 7394   5.919  12.746   8.989
 1874SOL     OW 7395  13.328   9.026   1.551
 1874SOL    HW1 7396  13.404   8.982   1.591
 1874SOL    HW2 7397  13.314   8.979   1.469
 1875SOL     OW 7398  10.839   7.788   4.255
 1875SOL    HW1 7399  10.862   7.731   4.329
 1875SOL    HW2 7400  10.767   7.743   4.212
 1876SOL     OW 7401   6.060  11.149  13.591
 1876SOL    HW1 7402   6.106  11.152  13.675
 1876SOL    HW2 7403   6.128  11.170  13.526
 1877SOL     OW 7404   5.411  14.694   5.955
 1877SOL    HW1 7405   5.379  14.712   5.867
 1877SOL    HW2 7406   5.506  14.682   5.944
 1878SOL     OW 7407   5.352   6.426  14.223
 1878SOL    HW1 7408   5.290   6.355  14.241
 1878SOL    HW2 7409   5.326   6.459  14.136
 1879SOL     OW 7410  12.968   2.025   8.055
 1879SOL    HW1 7411  13.002   2.027   8.144
 1879SOL    HW2 7412  13.042   2.053   8.000
 1880SOL     OW 7413  10.657   0.995  10.703
 1880SOL    HW1 7414  10.705   0.941  10.766
 1880SOL    HW2 7415  10.592   0.935  10.665
 1881SOL     OW 7416   7.677  14.709  14.072
 1881SOL    HW1 7417   7.712  14.731  14.159
 1881SOL    HW2 7418   7.729  14.634  14.043
 1882SOL     OW 7419   2.416   5.892   7.341
 1882SOL    HW1 7420   2.380   5.980   7.354
 1882SOL    HW2 7421   2.486   5.885   7.407
 1883SOL     OW 7422  11.547  12.712   2.374
 1883SOL    HW1 7423  11.636  12.747   2.381
 1883SOL    HW2 7424  11.557  12.633   2.321
 1884SOL     OW 7425   7.670  13.467   4.360
 1884SOL    HW1 7426   7.656  13.437   4.449
 1884SOL    HW2 7427   7.741  13.531   4.367
 1885SOL     OW 7428   9.883  14.705  10.525
 1885SOL    HW1 7429   9.930  14.622  10.530
 1885SOL    HW2 7430   9.815  14.690  10.460
 1886SOL     OW 7431  14.787  10.658  10.561
 1886SOL    HW1 7432  14.787  10.724  10.631
 1886SOL    HW2 7433   0.002  10.639  10.547
 1887SOL     OW 7434   6.154  14.603  14.594
 1887SOL    HW1 7435   6.198  14.545  14.532
 1887SOL    HW2 7436   6.064  14.608  14.564
 1888SOL     OW 7437   8.265   8.020   7.297
 1888SOL    HW1 7438   8.204   8.028   7.371
 1888SOL    HW2 7439   8.348   7.994   7.337
 1889SOL     OW 7440   7.763   5.172   5.315
 1889SOL    HW1 7441   7.794   5.082   5.319
 1889SOL    HW2 7442   7.820   5.219   5.376
 1890SOL     OW 7443   8.998   1.148   2.393
 1890SOL    HW1 7444   9.063   1.083   2.420
 1890SOL    HW2 7445   9.043   1.202   2.328
 1891SOL     OW 7446   8.591   7.107   6.942
 1891SOL    HW1 7447   8.653   7.146   7.003
 1891SOL    HW2 7448   8.612   7.014   6.941
 1892SOL     OW 7449  13.912   5.248   9.687
 1892SOL    HW1 7450  13.998   5.268   9.723
 1892SOL    HW2 7451  13.869   5.334   9.679
 1893SOL     OW 7452   8.226   0.293   0.071
 1893SOL    HW1 7453   8.310   0.251   0.051
 1893SOL    HW2 7454   8.207   0.345  14.870
 1894SOL     OW 7455  10.522   4.584  12.098
 1894SOL    HW1 7456  10.604   4.587  12.147
 1894SOL    HW2 7457  10.510   4.674  12.066
 1895SOL     OW 7458   9.377  11.339   8.604
 1895SOL    HW1 7459   9.428  11.392   8.542
 1895SOL    HW2 7460   9.420  11.354   8.689
 1896SOL     OW 7461   6.697   4.423   1.556
 1896SOL    HW1 7462   6.772   4.390   1.605
 1896SOL    HW2 7463   6.688   4.514   1.584
 1897SOL     OW 7464   1.640  14.422   0.103
 1897SOL    HW1 7465   1.601  14.416   0.016
 1897SOL    HW2 7466   1.566  14.441   0.161
 1898SOL     OW 7467   8.866   0.921  14.535
 1898SOL    HW1 7468   8.822   1.002  14.507
 1898SOL    HW2 7469   8.947   0.919  14.485
 1899SOL     OW 7470  11.480   0.008   2.358
 1899SOL    HW1 7471  11.393   0.004   2.319
 1899SOL    HW2 7472  11.509  14.794   2.362
 1900SOL     OW 7473   5.875   7.893   0.442
 1900SOL    HW1 7474   5.844   7.857   0.526
 1900SOL    HW2 7475   5.842   7.983   0.442
 1901SOL     OW 7476   5.479   9.883   5.388
 1901SOL    HW1 7477   5.391   9.902   5.419
 1901SOL    HW2 7478   5.501   9.799   5.429
 1902SOL     OW 7479   2.412   1.312  12.670
 1902SOL    HW1 7480   2.345   1.246  12.690
 1902SOL    HW2 7481   2.401   1.330  12.577
 1903SOL     OW 7482   7.792   8.277  12.592
 1903SOL    HW1 7483   7.810   8.206  12.653
 1903SOL    HW2 7484   7.712   8.318  12.625
 1904SOL     OW 7485   2.358   7.910   3.296
 1904SOL    HW1 7486   2.334   7.845   3.362
 1904SOL    HW2 7487   2.274   7.941   3.262
 1905SOL     OW 7488   8.752   8.502   5.217
 1905SOL    HW1 7489   8.786   8.588   5.195
 1905SOL    HW2 7490   8.666   8.498   5.174
 1906SOL     OW 7491   1.789   3.384   4.818
 1906SOL    HW1 7492   1.698   3.403   4.844
 1906SOL    HW2 7493   1.829   3.347   4.896
 1907SOL     OW 7494   9.289  13.720  14.863
 1907SOL    HW1 7495   9.287  13.663   0.063
 1907SOL    HW2 7496   9.371  13.697  14.819
 1908SOL     OW 7497   8.357   1.152   1.759
 1908SOL    HW1 7498   8.282   1.097   1.781
 1908SOL    HW2 7499   8.430   1.090   1.752
 1909SOL     OW 7500   2.867  11.255  11.245
 1909SOL    HW1 7501   2.805  11.325  11.263
 1909SOL    HW2 7502   2.921  11.288  11.173
 1910SOL     OW 7503   3.944  11.061  12.204
 1910SOL    HW1 7504   3.962  11.078  12.297
 1910SOL    HW2 7505   3.859  11.018  12.204
 1911SOL     OW 7506   1.293  14.603   3.227
 1911SOL    HW1 7507   1.376  14.565   3.197
 1911SOL    HW2 7508   1.226  14.545   3.192
 1912SOL     OW 7509   5.041   5.389   0.575
 1912SOL    HW1 7510   5.093   5.371   0.496
 1912SOL    HW2 7511   5.029   5.303   0.616
 1913SOL     OW 7512   2.638   6.335   2.259
 1913SOL    HW1 7513   2.543   6.340   2.258
 1913SOL    HW2 7514   2.667   6.411   2.207
 1914SOL     OW 7515   6.173   4.310   2.163
 1914SOL    HW1 7516   6.146   4.361   2.240
 1914SOL    HW2 7517   6.236   4.366   2.118
 1915SOL     OW 7518  11.961   4.950   4.598
 1915SOL    HW1 7519  12.008   4.913   4.524
 1915SOL    HW2 7520  11.877   4.980   4.562
 1916SOL     OW 7521  13.032  12.025   0.526
 1916SOL    HW1 7522  13.101  11.962   0.545
 1916SOL    HW2 7523  13.065  12.075   0.451
 1917SOL     OW 7524  10.830   4.639   5.052
 1917SOL    HW1 7525  10.900   4.624   4.989
 1917SOL    HW2 7526  10.801   4.729   5.036
 1918SOL     OW 7527   7.663   5.240   4.867
 1918SOL    HW1 7528   7.693   5.284   4.946
 1918SOL    HW2 7529   7.738   5.188   4.839
 1919SOL     OW 7530  14.568  11.643   3.252
 1919SOL    HW1 7531  14.483  11.674   3.285
 1919SOL    HW2 7532  14.603  11.718   3.204
 1920SOL     OW 7533   3.571   0.820   1.060
 1920SOL    HW1 7534   3.518   0.740   1.057
 1920SOL    HW2 7535   3.602   0.832   0.970
 1921SOL     OW 7536   1.301  12.748  11.978
 1921SOL    HW1 7537   1.370  12.800  12.019
 1921SOL    HW2 7538   1.311  12.661  12.017
 1922SOL     OW 7539  14.610   6.110  12.426
 1922SOL    HW1 7540  14.675   6.144  12.365
 1922SOL    HW2 7541  14.640   6.022  12.447
 1923SOL     OW 7542  13.555  12.271   9.480
 1923SOL    HW1 7543  13.518  12.297   9.564
 1923SOL    HW2 7544  13.561  12.175   9.485
 1924SOL     OW 7545   6.046   5.587   6.632
 1924SOL    HW1 7546   6.125   5.610   6.681
 1924SOL    HW2 7547   6.065   5.500   6.595
 1925SOL     OW 7548   4.312   3.300   2.895
 1925SOL    HW1 7549   4.284   3.223   2.845
 1925SOL    HW2 7550   4.263   3.295   2.977
 1926SOL     OW 7551   2.052  10.329   5.035
 1926SOL    HW1 7552   1.973  10.332   5.089
 1926SOL    HW2 7553   2.076  10.420   5.022
 1927SOL     OW 7554   8.396  12.557   6.539
 1927SOL    HW1 7555   8.405  12.511   6.456
 1927SOL    HW2 7556   8.473  12.613   6.544
 1928SOL     OW 7557   6.841   2.579   6.758
 1928SOL    HW1 7558   6.835   2.534   6.843
 1928SOL    HW2 7559   6.779   2.531   6.703
 1929SOL     OW 7560   3.756   0.208   6.676
 1929SOL    HW1 7561   3.742   0.123   6.633
 1929SOL    HW2 7562   3.830   0.192   6.735
 1930SOL     OW 7563   7.035   5.129   9.361
 1930SOL    HW1 7564   6.961   5.128   9.300
 1930SOL    HW2 7565   7.112   5.120   9.305
 1931SOL     OW 7566   7.037  13.436   1.218
 1931SOL    HW1 7567   7.075  13.519   1.247
 1931SOL    HW2 7568   6.948  13.459   1.189
 1932SOL     OW 7569  14.652  13.730   0.118
 1932SOL    HW1 7570  14.649  13.772   0.032
 1932SOL    HW2 7571  14.641  13.637   0.100
 1933SOL     OW 7572   5.358  14.223  13.793
 1933SOL    HW1 7573   5.421  14.208  13.722
 1933SOL    HW2 7574   5.362  14.143  13.846
 1934SOL     OW 7575  12.030   4.527   0.520
 1934SOL    HW1 7576  12.033   4.461   0.451
 1934SOL    HW2 7577  11.969   4.491   0.584
 1935SOL     OW 7578   2.959   5.883   4.919
 1935SOL    HW1 7579   3.052   5.861   4.912
 1935SOL    HW2 7580   2.947   5.906   5.011
 1936SOL     OW 7581   1.758   6.198   0.932
 1936SOL    HW1 7582   1.663   6.207   0.946
 1936SOL    HW2 7583   1.775   6.105   0.946
 1937SOL     OW 7584   0.948   7.485   9.686
 1937SOL    HW1 7585   0.882   7.514   9.748
 1937SOL    HW2 7586   0.913   7.403   9.651
 1938SOL     OW 7587   8.759  12.960  12.705
 1938SOL    HW1 7588   8.804  13.020  12.766
 1938SOL    HW2 7589   8.828  12.930  12.646
 1939SOL     OW 7590  13.556   2.326   6.164
 1939SOL    HW1 7591  13.470   2.310   6.204
 1939SOL    HW2 7592  13.591   2.239   6.147
 1940SOL     OW 7593  13.496   2.816   3.580
 1940SOL    HW1 7594  13.530   2.735   3.617
 1940SOL    HW2 7595  13.406   2.794   3.552
 1941SOL     OW 7596   3.343  11.194  12.363
 1941SOL    HW1 7597   3.337  11.143  12.283
 1941SOL    HW2 7598   3.293  11.274  12.344
 1942SOL     OW 7599   0.749   3.764   0.943
 1942SOL    HW1 7600   0.820   3.702   0.959
 1942SOL    HW2 7601   0.686   3.746   1.012
 1943SOL     OW 7602  12.943   2.443  10.337
 1943SOL    HW1 7603  12.860   2.419  10.377
 1943SOL    HW2 7604  12.983   2.359  10.312
 1944SOL     OW 7605   0.031   5.501  13.821
 1944SOL    HW1 7606   0.034   5.428  13.760
 1944SOL    HW2 7607   0.103   5.485  13.882
 1945SOL     OW 7608  12.099   0.415  13.312
 1945SOL    HW1 7609  12.182   0.457  13.288
 1945SOL    HW2 7610  12.112   0.323  13.290
 1946SOL     OW 7611   3.201   9.677   1.801
 1946SOL    HW1 7612   3.179   9.587   1.778
 1946SOL    HW2 7613   3.177   9.685   1.893
 1947SOL     OW 7614   7.892   4.298  12.453
 1947SOL    HW1 7615   7.962   4.319  12.391
 1947SOL    HW2 7616   7.932   4.233  12.511
 1948SOL     OW 7617  10.010  14.118   2.851
 1948SOL    HW1 7618  10.049  14.157   2.929
 1948SOL    HW2 7619  10.050  14.031   2.844
 1949SOL     OW 7620   1.105  10.460   7.463
 1949SOL    HW1 7621   1.101  10.518   7.386
 1949SOL    HW2 7622   1.049  10.503   7.528
 1950SOL     OW 7623   8.186   8.311  14.828
 1950SOL    HW1 7624   8.208   8.398  14.795
 1950SOL    HW2 7625   8.141   8.269  14.755
 1951SOL     OW 7626   9.326  11.233  13.139
 1951SOL    HW1 7627   9.288  11.319  13.120
 1951SOL    HW2 7628   9.403  11.252  13.192
 1952SOL     OW 7629   9.910   9.928   4.608
 1952SOL    HW1 7630   9.830   9.877   4.622
 1952SOL    HW2 7631   9.905   9.957   4.517
 1953SOL     OW 7632  13.121  14.300  13.697
 1953SOL    HW1 7633  13.092  14.217  13.735
 1953SOL    HW2 7634  13.130  14.359  13.772
 1954SOL     OW 7635   8.137   0.434   5.396
 1954SOL    HW1 7636   8.129   0.515   5.445
 1954SOL    HW2 7637   8.082   0.371   5.443
 1955SOL     OW 7638   5.591  13.288   6.335
 1955SOL    HW1 7639   5.653  13.262   6.403
 1955SOL    HW2 7640   5.507  13.294   6.381
 1956SOL     OW 7641   6.815   7.664   0.486
 1956SOL    HW1 7642   6.778   7.700   0.406
 1956SOL    HW2 7643   6.812   7.736   0.549
 1957SOL     OW 7644   4.805   2.292   1.298
 1957SOL    HW1 7645   4.889   2.330   1.323
 1957SOL    HW2 7646   4.779   2.340   1.220
 1958SOL     OW 7647   8.756  14.119   5.822
 1958SOL    HW1 7648   8.758  14.215   5.829
 1958SOL    HW2 7649   8.848  14.093   5.820
 1959SOL     OW 7650   7.352   1.388   8.891
 1959SOL    HW1 7651   7.301   1.438   8.826
 1959SOL    HW2 7652   7.358   1.300   8.854
 1960SOL     OW 7653   9.595   0.400  11.356
 1960SOL    HW1 7654   9.542   0.403  11.435
 1960SOL    HW2 7655   9.562   0.324  11.308
 1961SOL     OW 7656  11.761  13.885   7.024
 1961SOL    HW1 7657  11.685  13.910   7.076
 1961SOL    HW2 7658  11.764  13.949   6.953
 1962SOL     OW 7659   0.496   4.954  10.874
 1962SOL    HW1 7660   0.581   4.946  10.917
 1962SOL    HW2 7661   0.493   4.881  10.812
 1963SOL     OW 7662  11.440   4.255   9.754
 1963SOL    HW1 7663  11.417   4.340   9.794
 1963SOL    HW2 7664  11.480   4.206   9.826
 1964SOL     OW 7665  10.920   3.266   7.275
 1964SOL    HW1 7666  10.891   3.273   7.366
 1964SOL    HW2 7667  10.898   3.351   7.236
 1965SOL     OW 7668  11.115   6.728   1.988
 1965SOL    HW1 7669  11.125   6.820   2.011
 1965SOL    HW2 7670  11.079   6.729   1.899
 1966SOL     OW 7671   4.448   7.842   3.276
 1966SOL    HW1 7672   4.447   7.867   3.183
 1966SOL    HW2 7673   4.364   7.797   3.289
 1967SOL     OW 7674   0.772   3.324   8.576
 1967SOL    HW1 7675   0.827   3.250   8.603
 1967SOL    HW2 7676   0.795   3.395   8.635
 1968SOL     OW 7677   6.530   0.320   9.370
 1968SOL    HW1 7678   6.502   0.408   9.398
 1968SOL    HW2 7679   6.569   0.282   9.449
 1969SOL     OW 7680   5.150  10.324   8.999
 1969SOL    HW1 7681   5.143  10.230   8.984
 1969SOL    HW2 7682   5.224  10.334   9.058
 1970SOL     OW 7683   8.358  14.361   1.007
 1970SOL    HW1 7684   8.295  14.289   1.014
 1970SOL    HW2 7685   8.377  14.386   1.097
 1971SOL     OW 7686  12.334   6.473   5.888
 1971SOL    HW1 7687  12.295   6.388   5.906
 1971SOL    HW2 7688  12.367   6.503   5.972
 1972SOL     OW 7689   4.244   3.334   5.854
 1972SOL    HW1 7690   4.261   3.405   5.792
 1972SOL    HW2 7691   4.176   3.368   5.912
 1973SOL     OW 7692   3.449   0.766   4.395
 1973SOL    HW1 7693   3.493   0.829   4.338
 1973SOL    HW2 7694   3.366   0.808   4.418
 1974SOL     OW 7695   5.799   8.867   6.124
 1974SOL    HW1 7696   5.868   8.813   6.085
 1974SOL    HW2 7697   5.826   8.957   6.108
 1975SOL     OW 7698   7.060   5.009  12.522
 1975SOL    HW1 7699   7.113   4.999  12.601
 1975SOL    HW2 7700   7.105   5.076  12.471
 1976SOL     OW 7701  13.542  11.147   5.147
 1976SOL    HW1 7702  13.464  11.203   5.143
 1976SOL    HW2 7703  13.526  11.080   5.081
 1977SOL     OW 7704   7.464   6.533   0.893
 1977SOL    HW1 7705   7.471   6.531   0.988
 1977SOL    HW2 7706   7.551   6.509   0.862
 1978SOL     OW 7707  11.875   6.798   9.771
 1978SOL    HW1 7708  11.848   6.719   9.724
 1978SOL    HW2 7709  11.969   6.788   9.784
 1979SOL     OW 7710   4.764   9.009  14.469
 1979SOL    HW1 7711   4.784   9.070  14.398
 1979SOL    HW2 7712   4.673   8.983  14.453
 1980SOL     OW 7713   4.247   2.235   5.882
 1980SOL    HW1 7714   4.226   2.148   5.848
 1980SOL    HW2 7715   4.165   2.285   5.873
 1981SOL     OW 7716   9.367   5.254  13.787
 1981SOL    HW1 7717   9.293   5.199  13.812
 1981SOL    HW2 7718   9.391   5.224  13.699
 1982SOL     OW 7719  14.385   3.805   0.658
 1982SOL    HW1 7720  14.454   3.812   0.592
 1982SOL    HW2 7721  14.388   3.888   0.705
 1983SOL     OW 7722  10.116   0.352  10.450
 1983SOL    HW1 7723  10.194   0.321  10.496
 1983SOL    HW2 7724  10.044   0.333  10.510
 1984SOL     OW 7725   9.000  14.132   2.531
 1984SOL    HW1 7726   9.066  14.087   2.479
 1984SOL    HW2 7727   9.049  14.175   2.601
 1985SOL     OW 7728   4.003   0.660  10.450
 1985SOL    HW1 7729   4.083   0.609  10.458
 1985SOL    HW2 7730   3.961   0.626  10.371
 1986SOL     OW 7731   7.230   2.719   9.386
 1986SOL    HW1 7732   7.210   2.665   9.310
 1986SOL    HW2 7733   7.199   2.668   9.461
 1987SOL     OW 7734   4.403   5.610   5.097
 1987SOL    HW1 7735   4.370   5.553   5.167
 1987SOL    HW2 7736   4.450   5.679   5.143
 1988SOL     OW 7737  11.333   5.382   0.027
 1988SOL    HW1 7738  11.289   5.373   0.112
 1988SOL    HW2 7739  11.299   5.309  14.853
 1989SOL     OW 7740   5.951  11.270  11.826
 1989SOL    HW1 7741   5.973  11.338  11.891
 1989SOL    HW2 7742   5.939  11.318  11.744
 1990SOL     OW 7743   7.230   8.584   4.071
 1990SOL    HW1 7744   7.144   8.589   4.113
 1990SOL    HW2 7745   7.217   8.622   3.984
 1991SOL     OW 7746  10.188   8.271   3.925
 1991SOL    HW1 7747  10.264   8.237   3.971
 1991SOL    HW2 7748  10.140   8.321   3.990
 1992SOL     OW 7749   3.586   8.234   3.415
 1992SOL    HW1 7750   3.535   8.263   3.339
 1992SOL    HW2 7751   3.651   8.303   3.427
 1993SOL     OW 7752   5.245   7.273   4.429
 1993SOL    HW1 7753   5.206   7.354   4.462
 1993SOL    HW2 7754   5.253   7.286   4.335
 1994SOL     OW 7755   8.061  10.877   8.429
 1994SOL    HW1 7756   8.003  10.811   8.466
 1994SOL    HW2 7757   8.109  10.911   8.504
 1995SOL     OW 7758  13.051  10.237   1.333
 1995SOL    HW1 7759  13.080  10.168   1.274
 1995SOL    HW2 7760  12.957  10.221   1.344
 1996SOL     OW 7761  13.003   3.307  12.383
 1996SOL    HW1 7762  13.012   3.242  12.313
 1996SOL    HW2 7763  13.051   3.383  12.351
 1997SOL     OW 7764   3.225   7.086   8.461
 1997SOL    HW1 7765   3.318   7.092   8.441
 1997SOL    HW2 7766   3.203   7.171   8.501
 1998SOL     OW 7767  13.589   1.518   2.650
 1998SOL    HW1 7768  13.540   1.494   2.571
 1998SOL    HW2 7769  13.672   1.473   2.642
 1999SOL     OW 7770  12.156   5.004   8.084
 1999SOL    HW1 7771  12.189   4.918   8.056
 1999SOL    HW2 7772  12.129   5.047   8.002
 2000SOL     OW 7773   7.307  13.634   5.510
 2000SOL    HW1 7774   7.302  13.692   5.434
 2000SOL    HW2 7775   7.267  13.685   5.581
 2001SOL     OW 7776   8.818   8.058   5.760
 2001SOL    HW1 7777   8.804   8.124   5.827
 2001SOL    HW2 7778   8.903   8.080   5.721
 2002SOL     OW 7779   1.868   1.622   6.450
 2002SOL    HW1 7780   1.904   1.709   6.471
 2002SOL    HW2 7781   1.931   1.561   6.489
 2003SOL     OW 7782  14.679  13.118  11.176
 2003SOL    HW1 7783  14.753  13.178  11.183
 2003SOL    HW2 7784  14.616  13.165  11.121
 2004SOL     OW 7785   0.073   9.392   1.469
 2004SOL    HW1 7786   0.161   9.423   1.490
 2004SOL    HW2 7787   0.034   9.462   1.417
 2005SOL     OW 7788   0.001   9.418   7.803
 2005SOL    HW1 7789  14.864   9.437   7.710
 2005SOL    HW2 7790   0.008   9.323   7.808
 2006SOL     OW 7791   0.070  14.627   1.580
 2006SOL    HW1 7792   0.049  14.627   1.674
 2006SOL    HW2 7793   0.152  14.677   1.575
 2007SOL     OW 7794   3.629   3.046   4.847
 2007SOL    HW1 7795   3.634   3.014   4.937
 2007SOL    HW2 7796   3.548   3.098   4.845
 2008SOL     OW 7797  11.399  10.027   0.510
 2008SOL    HW1 7798  11.305  10.010   0.505
 2008SOL    HW2 7799  11.425  10.043   0.419
 2009SOL     OW 7800   8.551   7.807   6.550
 2009SOL    HW1 7801   8.589   7.807   6.462
 2009SOL    HW2 7802   8.531   7.899   6.568
 2010SOL     OW 7803   7.134   3.157   9.747
 2010SOL    HW1 7804   7.182   3.194   9.673
 2010SOL    HW2 7805   7.130   3.063   9.729
 2011SOL     OW 7806   4.970  14.041  10.088
 2011SOL    HW1 7807   5.037  13.973  10.096
 2011SOL    HW2 7808   4.904  14.018  10.153
 2012SOL     OW 7809  10.064   3.387   2.517
 2012SOL    HW1 7810  10.060   3.405   2.423
 2012SOL    HW2 7811  10.088   3.471   2.557
 2013SOL     OW 7812   2.533   1.888  14.585
 2013SOL    HW1 7813   2.538   1.900  14.680
 2013SOL    HW2 7814   2.445   1.853  14.570
 2014SOL     OW 7815   2.843   1.909   3.558
 2014SOL    HW1 7816   2.812   1.994   3.590
 2014SOL    HW2 7817   2.764   1.864   3.527
 2015SOL     OW 7818   4.660   8.476  10.738
 2015SOL    HW1 7819   4.700   8.491  10.653
 2015SOL    HW2 7820   4.567   8.460  10.719
 2016SOL     OW 7821   6.042  13.211   6.223
 2016SOL    HW1 7822   6.080  13.165   6.147
 2016SOL    HW2 7823   6.113  13.264   6.257
 2017SOL     OW 7824   3.071   0.083   5.655
 2017SOL    HW1 7825   3.057   0.176   5.634
 2017SOL    HW2 7826   3.154   0.081   5.701
 2018SOL     OW 7827  11.256   5.238   8.811
 2018SOL    HW1 7828  11.272   5.192   8.893
 2018SOL    HW2 7829  11.165   5.219   8.789
 2019SOL     OW 7830   0.703   7.277  10.815
 2019SOL    HW1 7831   0.654   7.262  10.733
 2019SOL    HW2 7832   0.788   7.311  10.786
 2020SOL     OW 7833   9.451  11.027   8.276
 2020SOL    HW1 7834   9.403  11.091   8.223
 2020SOL    HW2 7835   9.422  11.042   8.366
 2021SOL     OW 7836   1.948  13.535  14.639
 2021SOL    HW1 7837   1.934  13.610  14.581
 2021SOL    HW2 7838   2.013  13.565  14.702
 2022SOL     OW 7839   5.953   2.871  13.108
 2022SOL    HW1 7840   6.001   2.949  13.136
 2022SOL    HW2 7841   5.962   2.810  13.180
 2023SOL     OW 7842  12.172   2.945   8.055
 2023SOL    HW1 7843  12.111   3.002   8.008
 2023SOL    HW2 7844  12.182   2.986   8.141
 2024SOL     OW 7845   5.286   4.721   1.668
 2024SOL    HW1 7846   5.262   4.719   1.761
 2024SOL    HW2 7847   5.318   4.633   1.649
 2025SOL     OW 7848   2.567   4.763  14.286
 2025SOL    HW1 7849   2.615   4.728  14.211
 2025SOL    HW2 7850   2.528   4.686  14.328
 2026SOL     OW 7851   3.583   0.566   4.594
 2026SOL    HW1 7852   3.551   0.624   4.663
 2026SOL    HW2 7853   3.579   0.619   4.514
 2027SOL     OW 7854   7.032   3.442  13.453
 2027SOL    HW1 7855   6.971   3.515  13.461
 2027SOL    HW2 7856   7.097   3.472  13.389
 2028SOL     OW 7857  14.161  10.085   0.424
 2028SOL    HW1 7858  14.107  10.107   0.500
 2028SOL    HW2 7859  14.136  10.149   0.358
 2029SOL     OW 7860   4.859   7.192   4.853
 2029SOL    HW1 7861   4.932   7.133   4.836
 2029SOL    HW2 7862   4.784   7.135   4.868
 2030SOL     OW 7863   6.198   0.686   2.072
 2030SOL    HW1 7864   6.271   0.625   2.082
 2030SOL    HW2 7865   6.120   0.631   2.081
 2031SOL     OW 7866   4.582  11.174  10.738
 2031SOL    HW1 7867   4.502  11.122  10.748
 2031SOL    HW2 7868   4.637  11.123  10.679
 2032SOL     OW 7869  13.630   5.390  14.253
 2032SOL    HW1 7870  13.614   5.411  14.161
 2032SOL    HW2 7871  13.638   5.294  14.254
 2033SOL     OW 7872   4.208   3.535   0.852
 2033SOL    HW1 7873   4.138   3.598   0.837
 2033SOL    HW2 7874   4.226   3.540   0.945
 2034SOL     OW 7875  12.346   5.673  14.352
 2034SOL    HW1 7876  12.395   5.748  14.318
 2034SOL    HW2 7877  12.254   5.699  14.344
 2035SOL     OW 7878   0.726   0.656  11.923
 2035SOL    HW1 7879   0.694   0.726  11.865
 2035SOL    HW2 7880   0.683   0.672  12.007
 2036SOL     OW 7881  14.690   0.442   0.264
 2036SOL    HW1 7882  14.625   0.398   0.319
 2036SOL    HW2 7883  14.675   0.407   0.176
 2037SOL     OW 7884   5.543   9.478   0.878
 2037SOL    HW1 7885   5.547   9.538   0.803
 2037SOL    HW2 7886   5.487   9.406   0.848
 2038SOL     OW 7887   7.546   5.516   5.489
 2038SOL    HW1 7888   7.604   5.440   5.494
 2038SOL    HW2 7889   7.483   5.503   5.560
 2039SOL     OW 7890   3.741  10.495  11.628
 2039SOL    HW1 7891   3.832  10.470  11.645
 2039SOL    HW2 7892   3.722  10.562  11.694
 2040SOL     OW 7893   2.237   1.698  14.824
 2040SOL    HW1 7894   2.266   1.781  14.785
 2040SOL    HW2 7895   2.240   1.714   0.041
 2041SOL     OW 7896   8.305   6.129  10.376
 2041SOL    HW1 7897   8.231   6.187  10.360
 2041SOL    HW2 7898   8.307   6.070  10.301
 2042SOL     OW 7899  10.878   2.907   4.562
 2042SOL    HW1 7900  10.787   2.878   4.559
 2042SOL    HW2 7901  10.892   2.954   4.480
 2043SOL     OW 7902   4.853  11.490  13.793
 2043SOL    HW1 7903   4.822  11.570  13.751
 2043SOL    HW2 7904   4.939  11.475  13.754
 2044SOL     OW 7905   7.880   7.295   9.296
 2044SOL    HW1 7906   7.965   7.303   9.340
 2044SOL    HW2 7907   7.824   7.248   9.358
 2045SOL     OW 7908   9.627  10.177   4.706
 2045SOL    HW1 7909   9.623  10.141   4.618
 2045SOL    HW2 7910   9.601  10.104   4.763
 2046SOL     OW 7911  12.395   7.337  10.920
 2046SOL    HW1 7912  12.481   7.309  10.889
 2046SOL    HW2 7913  12.391   7.306  11.010
 2047SOL     OW 7914   7.490   9.740   9.227
 2047SOL    HW1 7915   7.558   9.707   9.168
 2047SOL    HW2 7916   7.412   9.690   9.205
 2048SOL     OW 7917   4.711  14.794  11.022
 2048SOL    HW1 7918   4.723  14.877  11.069
 2048SOL    HW2 7919   4.799  14.767  10.998
 2049SOL     OW 7920   2.786  11.955   7.412
 2049SOL    HW1 7921   2.843  11.878   7.413
 2049SOL    HW2 7922   2.780  11.981   7.504
 2050SOL     OW 7923   3.650  12.815  10.941
 2050SOL    HW1 7924   3.699  12.814  11.023
 2050SOL    HW2 7925   3.560  12.837  10.967
 2051SOL     OW 7926   3.545   2.329   4.755
 2051SOL    HW1 7927   3.464   2.287   4.785
 2051SOL    HW2 7928   3.518   2.417   4.729
 2052SOL     OW 7929   8.791   9.542  14.124
 2052SOL    HW1 7930   8.717   9.481  14.121
 2052SOL    HW2 7931   8.755   9.624  14.089
 2053SOL     OW 7932  11.452   1.954  12.595
 2053SOL    HW1 7933  11.423   1.953  12.686
 2053SOL    HW2 7934  11.386   1.903  12.547
 2054SOL     OW 7935   9.938   1.784   9.994
 2054SOL    HW1 7936   9.848   1.803   9.967
 2054SOL    HW2 7937   9.937   1.690  10.015
 2055SOL     OW 7938  10.573   0.361   7.176
 2055SOL    HW1 7939  10.576   0.383   7.082
 2055SOL    HW2 7940  10.496   0.306   7.185
 2056SOL     OW 7941   5.045  13.730  14.700
 2056SOL    HW1 7942   5.004  13.800  14.751
 2056SOL    HW2 7943   5.011  13.741  14.612
 2057SOL     OW 7944   4.272  10.156   0.269
 2057SOL    HW1 7945   4.216  10.231   0.288
 2057SOL    HW2 7946   4.278  10.108   0.352
 2058SOL     OW 7947   6.187   9.155   2.125
 2058SOL    HW1 7948   6.231   9.088   2.072
 2058SOL    HW2 7949   6.191   9.120   2.214
 2059SOL     OW 7950   5.926   2.580   1.818
 2059SOL    HW1 7951   5.990   2.569   1.747
 2059SOL    HW2 7952   5.948   2.511   1.881
 2060SOL     OW 7953   2.573   5.732   1.628
 2060SOL    HW1 7954   2.524   5.694   1.555
 2060SOL    HW2 7955   2.557   5.826   1.621
 2061SOL     OW 7956  14.418   3.788   7.542
 2061SOL    HW1 7957  14.387   3.703   7.572
 2061SOL    HW2 7958  14.509   3.773   7.517
 2062SOL     OW 7959  12.035   4.631  13.404
 2062SOL    HW1 7960  12.068   4.542  13.414
 2062SOL    HW2 7961  11.985   4.647  13.484
 2063SOL     OW 7962   1.638   9.472  11.505
 2063SOL    HW1 7963   1.609   9.561  11.484
 2063SOL    HW2 7964   1.694   9.446  11.432
 2064SOL     OW 7965   5.353  12.622  10.540
 2064SOL    HW1 7966   5.384  12.593  10.626
 2064SOL    HW2 7967   5.424  12.676  10.506
 2065SOL     OW 7968   4.171   4.363  11.065
 2065SOL    HW1 7969   4.155   4.401  11.151
 2065SOL    HW2 7970   4.086   4.328  11.038
 2066SOL     OW 7971   5.032   8.401   3.069
 2066SOL    HW1 7972   4.950   8.449   3.083
 2066SOL    HW2 7973   5.049   8.358   3.153
 2067SOL     OW 7974  13.412  13.788   5.587
 2067SOL    HW1 7975  13.345  13.759   5.526
 2067SOL    HW2 7976  13.481  13.826   5.532
 2068SOL     OW 7977   7.492   8.633  11.940
 2068SOL    HW1 7978   7.560   8.669  11.997
 2068SOL    HW2 7979   7.487   8.541  11.964
 2069SOL     OW 7980   5.485   1.008   4.705
 2069SOL    HW1 7981   5.530   1.065   4.767
 2069SOL    HW2 7982   5.404   0.982   4.750
 2070SOL     OW 7983  13.620  13.523   8.578
 2070SOL    HW1 7984  13.706  13.509   8.540
 2070SOL    HW2 7985  13.586  13.599   8.531
 2071SOL     OW 7986   0.438  10.340   1.910
 2071SOL    HW1 7987   0.380  10.342   1.985
 2071SOL    HW2 7988   0.477  10.252   1.912
 2072SOL     OW 7989   0.752   4.680   5.128
 2072SOL    HW1 7990   0.712   4.706   5.045
 2072SOL    HW2 7991   0.679   4.672   5.189
 2073SOL     OW 7992   8.967   9.210   7.991
 2073SOL    HW1 7993   9.055   9.214   8.028
 2073SOL    HW2 7994   8.977   9.158   7.911
 2074SOL     OW 7995   4.064  11.924  14.327
 2074SOL    HW1 7996   3.992  11.884  14.278
 2074SOL    HW2 7997   4.045  11.906  14.418
 2075SOL     OW 7998  10.571   3.529  11.379
 2075SOL    HW1 7999  10.658   3.492  11.396
 2075SOL    HW2 8000  10.533   3.471  11.314
 2076SOL     OW 8001   1.791   4.633   5.499
 2076SOL    HW1 8002   1.760   4.622   5.409
 2076SOL    HW2 8003   1.841   4.553   5.517
 2077SOL     OW 8004   8.541   3.343   2.413
 2077SOL    HW1 8005   8.484   3.341   2.336
 2077SOL    HW2 8006   8.615   3.287   2.390
 2078SOL     OW 8007   5.307   5.202   7.005
 2078SOL    HW1 8008   5.283   5.242   6.921
 2078SOL    HW2 8009   5.256   5.121   7.009
 2079SOL     OW 8010   6.306   4.804   3.780
 2079SOL    HW1 8011   6.349   4.837   3.701
 2079SOL    HW2 8012   6.324   4.710   3.780
 2080SOL     OW 8013   7.125   0.076   6.872
 2080SOL    HW1 8014   7.178   0.055   6.948
 2080SOL    HW2 8015   7.178   0.137   6.821
 2081SOL     OW 8016   3.239  12.462  11.335
 2081SOL    HW1 8017   3.275  12.375  11.313
 2081SOL    HW2 8018   3.288  12.489  11.413
 2082SOL     OW 8019   8.390   9.203   1.481
 2082SOL    HW1 8020   8.432   9.289   1.485
 2082SOL    HW2 8021   8.325   9.212   1.411
 2083SOL     OW 8022  14.633  11.825  14.539
 2083SOL    HW1 8023  14.723  11.797  14.555
 2083SOL    HW2 8024  14.639  11.918  14.521
 2084SOL     OW 8025   5.705   1.603  11.951
 2084SOL    HW1 8026   5.698   1.574  11.860
 2084SOL    HW2 8027   5.792   1.574  11.978
 2085SOL     OW 8028  12.805   3.225   3.876
 2085SOL    HW1 8029  12.765   3.163   3.938
 2085SOL    HW2 8030  12.738   3.291   3.862
 2086SOL     OW 8031  11.826   6.388   6.985
 2086SOL    HW1 8032  11.757   6.431   6.935
 2086SOL    HW2 8033  11.784   6.366   7.069
 2087SOL     OW 8034  13.716  12.012  10.787
 2087SOL    HW1 8035  13.647  12.077  10.802
 2087SOL    HW2 8036  13.707  11.989  10.694
 2088SOL     OW 8037   8.666  14.669  12.266
 2088SOL    HW1 8038   8.747  14.674  12.315
 2088SOL    HW2 8039   8.644  14.576  12.265
 2089SOL     OW 8040   3.221  11.952   9.335
 2089SOL    HW1 8041   3.191  12.041   9.318
 2089SOL    HW2 8042   3.276  11.959   9.412
 2090SOL     OW 8043   1.145   4.478   2.590
 2090SOL    HW1 8044   1.066   4.530   2.576
 2090SOL    HW2 8045   1.180   4.509   2.673
 2091SOL     OW 8046   8.400   2.616   0.354
 2091SOL    HW1 8047   8.457   2.693   0.342
 2091SOL    HW2 8048   8.344   2.640   0.427
 2092SOL     OW 8049  10.727   4.187  10.644
 2092SOL    HW1 8050  10.738   4.147  10.558
 2092SOL    HW2 8051  10.655   4.250  10.632
 2093SOL     OW 8052   4.704   1.797   3.405
 2093SOL    HW1 8053   4.741   1.737   3.470
 2093SOL    HW2 8054   4.665   1.740   3.338
 2094SOL     OW 8055   0.905   4.570  10.649
 2094SOL    HW1 8056   0.810   4.561  10.638
 2094SOL    HW2 8057   0.918   4.662  10.668
 2095SOL     OW 8058   1.509   3.449   9.255
 2095SOL    HW1 8059   1.487   3.394   9.180
 2095SOL    HW2 8060   1.543   3.389   9.321
 2096SOL     OW 8061  13.082   0.676   7.257
 2096SOL    HW1 8062  13.177   0.665   7.252
 2096SOL    HW2 8063  13.054   0.614   7.324
 2097SOL     OW 8064  10.596  14.159   9.592
 2097SOL    HW1 8065  10.590  14.065   9.577
 2097SOL    HW2 8066  10.596  14.167   9.687
 2098SOL     OW 8067   9.198  10.128  11.161
 2098SOL    HW1 8068   9.258  10.076  11.214
 2098SOL    HW2 8069   9.113  10.118  11.204
 2099SOL     OW 8070  11.171  13.240  12.384
 2099SOL    HW1 8071  11.128  13.156  12.400
 2099SOL    HW2 8072  11.143  13.296  12.456
 2100SOL     OW 8073  12.697   7.368   8.962
 2100SOL    HW1 8074  12.645   7.362   9.043
 2100SOL    HW2 8075  12.727   7.278   8.946
 2101SOL     OW 8076  13.753   4.851   3.642
 2101SOL    HW1 8077  13.702   4.905   3.582
 2101SOL    HW2 8078  13.809   4.798   3.585
 2102SOL     OW 8079   1.861   7.798  14.007
 2102SOL    HW1 8080   1.775   7.775  14.040
 2102SOL    HW2 8081   1.919   7.728  14.038
 2103SOL     OW 8082  13.888   3.329   4.474
 2103SOL    HW1 8083  13.808   3.276   4.477
 2103SOL    HW2 8084  13.871   3.401   4.536
 2104SOL     OW 8085   6.169   3.281   9.455
 2104SOL    HW1 8086   6.136   3.343   9.391
 2104SOL    HW2 8087   6.235   3.330   9.504
 2105SOL     OW 8088   3.738   4.653   3.255
 2105SOL    HW1 8089   3.784   4.698   3.183
 2105SOL    HW2 8090   3.664   4.711   3.276
 2106SOL     OW 8091   3.205   7.537   2.229
 2106SOL    HW1 8092   3.235   7.453   2.264
 2106SOL    HW2 8093   3.282   7.573   2.184
 2107SOL     OW 8094   1.581  14.441  14.112
 2107SOL    HW1 8095   1.488  14.456  14.097
 2107SOL    HW2 8096   1.609  14.386  14.039
 2108SOL     OW 8097   5.182   5.713  14.867
 2108SOL    HW1 8098   5.273   5.699   0.018
 2108SOL    HW2 8099   5.151   5.627  14.840
 2109SOL     OW 8100   3.029   2.441   8.414
 2109SOL    HW1 8101   3.060   2.453   8.324
 2109SOL    HW2 8102   3.037   2.347   8.429
 2110SOL     OW 8103   2.166  10.187   7.850
 2110SOL    HW1 8104   2.151  10.097   7.822
 2110SOL    HW2 8105   2.089  10.210   7.902
 2111SOL     OW 8106   2.371   6.505  13.221
 2111SOL    HW1 8107   2.398   6.512  13.313
 2111SOL    HW2 8108   2.282   6.541  13.220
 2112SOL     OW 8109   5.743   0.655   5.986
 2112SOL    HW1 8110   5.808   0.701   6.040
 2112SOL    HW2 8111   5.663   0.657   6.038
 2113SOL     OW 8112  12.599   0.804   9.590
 2113SOL    HW1 8113  12.514   0.841   9.569
 2113SOL    HW2 8114  12.636   0.779   9.505
 2114SOL     OW 8115  12.068   2.664   5.863
 2114SOL    HW1 8116  12.014   2.741   5.846
 2114SOL    HW2 8117  12.007   2.598   5.896
 2115SOL     OW 8118   4.966  11.182   3.148
 2115SOL    HW1 8119   4.968  11.135   3.232
 2115SOL    HW2 8120   4.874  11.180   3.122
 2116SOL     OW 8121   9.931   6.506   4.983
 2116SOL    HW1 8122   9.843   6.470   4.980
 2116SOL    HW2 8123   9.984   6.444   4.933
 2117SOL     OW 8124   5.509   2.638   4.412
 2117SOL    HW1 8125   5.481   2.693   4.486
 2117SOL    HW2 8126   5.541   2.700   4.347
 2118SOL     OW 8127   6.940  13.854  12.754
 2118SOL    HW1 8128   6.886  13.868  12.831
 2118SOL    HW2 8129   6.917  13.926  12.695
 2119SOL     OW 8130  12.018   6.646  11.643
 2119SOL    HW1 8131  12.033   6.649  11.548
 2119SOL    HW2 8132  12.106   6.633  11.680
 2120SOL     OW 8133   8.976  11.616  11.333
 2120SOL    HW1 8134   9.018  11.671  11.399
 2120SOL    HW2 8135   8.983  11.527  11.366
 2121SOL     OW 8136   2.645  12.152   9.055
 2121SOL    HW1 8137   2.712  12.085   9.063
 2121SOL    HW2 8138   2.664  12.214   9.126
 2122SOL     OW 8139   5.195   4.612  12.302
 2122SOL    HW1 8140   5.144   4.639  12.225
 2122SOL    HW2 8141   5.131   4.574  12.362
 2123SOL     OW 8142   8.055   8.447   2.113
 2123SOL    HW1 8143   8.026   8.373   2.061
 2123SOL    HW2 8144   8.116   8.409   2.177
 2124SOL     OW 8145  14.231   3.648   1.123
 2124SOL    HW1 8146  14.141   3.616   1.119
 2124SOL    HW2 8147  14.283   3.571   1.145
 2125SOL     OW 8148   6.436   4.703  10.453
 2125SOL    HW1 8149   6.407   4.679  10.541
 2125SOL    HW2 8150   6.474   4.623  10.417
 2126SOL     OW 8151  14.670   4.158   2.378
 2126SOL    HW1 8152  14.576   4.175   2.379
 2126SOL    HW2 8153  14.710   4.242   2.353
 2127SOL     OW 8154   5.563   1.112   7.586
 2127SOL    HW1 8155   5.649   1.111   7.544
 2127SOL    HW2 8156   5.504   1.078   7.519
 2128SOL     OW 8157   7.762   2.136   5.638
 2128SOL    HW1 8158   7.834   2.177   5.686
 2128SOL    HW2 8159   7.742   2.198   5.568
 2129SOL     OW 8160   6.408  12.251   7.113
 2129SOL    HW1 8161   6.449  12.333   7.085
 2129SOL    HW2 8162   6.361  12.220   7.036
 2130SOL     OW 8163   9.512  11.836  10.807
 2130SOL    HW1 8164   9.533  11.756  10.855
 2130SOL    HW2 8165   9.416  11.840  10.809
 2131SOL     OW 8166   6.913   5.924   5.600
 2131SOL    HW1 8167   6.864   5.859   5.650
 2131SOL    HW2 8168   6.851   5.995   5.585
 2132SOL     OW 8169   6.575  13.776   7.298
 2132SOL    HW1 8170   6.508  13.815   7.242
 2132SOL    HW2 8171   6.527  13.716   7.355
 2133SOL     OW 8172   4.804  11.600   1.005
 2133SOL    HW1 8173   4.897  11.599   1.027
 2133SOL    HW2 8174   4.780  11.693   1.007
 2134SOL     OW 8175  12.914  12.516   1.991
 2134SOL    HW1 8176  12.835  12.549   2.033
 2134SOL    HW2 8177  12.960  12.595   1.962
 2135SOL     OW 8178  10.786   3.704   3.469
 2135SOL    HW1 8179  10.741   3.708   3.553
 2135SOL    HW2 8180  10.801   3.796   3.445
 2136SOL     OW 8181   3.908   4.780  11.636
 2136SOL    HW1 8182   3.937   4.692  11.659
 2136SOL    HW2 8183   3.813   4.774  11.634
 2137SOL     OW 8184   1.473   4.082   9.114
 2137SOL    HW1 8185   1.566   4.099   9.126
 2137SOL    HW2 8186   1.429   4.157   9.154
 2138SOL     OW 8187   2.118  10.043  11.236
 2138SOL    HW1 8188   2.065  10.030  11.157
 2138SOL    HW2 8189   2.202  10.076  11.202
 2139SOL     OW 8190   5.601   3.844   3.901
 2139SOL    HW1 8191   5.675   3.788   3.876
 2139SOL    HW2 8192   5.625   3.931   3.868
 2140SOL     OW 8193   1.530   8.071   0.058
 2140SOL    HW1 8194   1.620   8.072   0.025
 2140SOL    HW2 8195   1.537   8.029   0.143
 2141SOL     OW 8196   1.650  10.993   1.414
 2141SOL    HW1 8197   1.711  10.944   1.360
 2141SOL    HW2 8198   1.632  11.072   1.364
 2142SOL     OW 8199  11.792  11.679  12.955
 2142SOL    HW1 8200  11.789  11.687  12.860
 2142SOL    HW2 8201  11.717  11.624  12.978
 2143SOL     OW 8202   1.261   5.751   4.265
 2143SOL    HW1 8203   1.261   5.768   4.359
 2143SOL    HW2 8204   1.257   5.838   4.225
 2144SOL     OW 8205   7.924  14.082   3.741
 2144SOL    HW1 8206   7.888  14.029   3.669
 2144SOL    HW2 8207   7.888  14.169   3.728
 2145SOL     OW 8208   2.203   7.921   0.188
 2145SOL    HW1 8209   2.150   7.854   0.145
 2145SOL    HW2 8210   2.139   7.974   0.237
 2146SOL     OW 8211  12.389   0.245   3.864
 2146SOL    HW1 8212  12.310   0.238   3.810
 2146SOL    HW2 8213  12.357   0.274   3.949
 2147SOL     OW 8214   5.233  11.338   8.541
 2147SOL    HW1 8215   5.318  11.316   8.501
 2147SOL    HW2 8216   5.227  11.433   8.534
 2148SOL     OW 8217  14.665   5.751   7.977
 2148SOL    HW1 8218  14.674   5.731   7.884
 2148SOL    HW2 8219  14.593   5.814   7.980
 2149SOL     OW 8220   8.948   9.007   7.795
 2149SOL    HW1 8221   8.979   8.918   7.781
 2149SOL    HW2 8222   8.934   9.042   7.707
 2150SOL     OW 8223  11.361   7.464   8.395
 2150SOL    HW1 8224  11.402   7.546   8.421
 2150SOL    HW2 8225  11.433   7.402   8.386
 2151SOL     OW 8226   1.295   0.297  12.147
 2151SOL    HW1 8227   1.233   0.224  12.139
 2151SOL    HW2 8228   1.342   0.298  12.064
 2152SOL     OW 8229   3.120   2.276  10.828
 2152SOL    HW1 8230   3.167   2.239  10.903
 2152SOL    HW2 8231   3.181   2.338  10.789
 2153SOL     OW 8232  12.974  12.438  11.443
 2153SOL    HW1 8233  13.065  12.466  11.443
 2153SOL    HW2 8234  12.974  12.353  11.399
 2154SOL     OW 8235   7.946  12.657  11.790
 2154SOL    HW1 8236   7.991  12.741  11.796
 2154SOL    HW2 8237   7.999  12.597  11.842
 2155SOL     OW 8238  13.147   5.286   5.639
 2155SOL    HW1 8239  13.217   5.303   5.702
 2155SOL    HW2 8240  13.132   5.192   5.645
 2156SOL     OW 8241  14.046  12.041   3.427
 2156SOL    HW1 8242  14.055  12.122   3.377
 2156SOL    HW2 8243  14.130  12.031   3.473
 2157SOL     OW 8244   2.466  12.610   4.386
 2157SOL    HW1 8245   2.504  12.656   4.311
 2157SOL    HW2 8246   2.375  12.594   4.361
 2158SOL     OW 8247  10.319   3.494   8.204
 2158SOL    HW1 8248  10.252   3.470   8.268
 2158SOL    HW2 8249  10.293   3.582   8.175
 2159SOL     OW 8250  11.952   3.439   8.898
 2159SOL    HW1 8251  11.917   3.437   8.809
 2159SOL    HW2 8252  12.024   3.376   8.897
 2160SOL     OW 8253   5.556  12.397   6.958
 2160SOL    HW1 8254   5.497  12.344   6.905
 2160SOL    HW2 8255   5.504  12.474   6.983
 2161SOL     OW 8256   6.729   9.208   3.666
 2161SOL    HW1 8257   6.674   9.131   3.675
 2161SOL    HW2 8258   6.816   9.180   3.695
 2162SOL     OW 8259   3.939  14.170  11.897
 2162SOL    HW1 8260   3.874  14.158  11.965
 2162SOL    HW2 8261   4.022  14.142  11.937
 2163SOL     OW 8262   3.505   3.722  14.017
 2163SOL    HW1 8263   3.433   3.756  13.963
 2163SOL    HW2 8264   3.462   3.666  14.082
 2164SOL     OW 8265   6.820   1.703  12.092
 2164SOL    HW1 8266   6.853   1.649  12.164
 2164SOL    HW2 8267   6.830   1.793  12.123
 2165SOL     OW 8268   1.920   9.381  11.552
 2165SOL    HW1 8269   1.947   9.289  11.557
 2165SOL    HW2 8270   1.882   9.390  11.465
 2166SOL     OW 8271   7.106  11.418  12.447
 2166SOL    HW1 8272   7.127  11.352  12.513
 2166SOL    HW2 8273   7.171  11.487  12.459
 2167SOL     OW 8274   3.580   7.275   6.366
 2167SOL    HW1 8275   3.639   7.223   6.313
 2167SOL    HW2 8276   3.506   7.217   6.384
 2168SOL     OW 8277   2.133  14.460  10.362
 2168SOL    HW1 8278   2.229  14.461  10.357
 2168SOL    HW2 8279   2.107  14.551  10.353
 2169SOL     OW 8280  11.318  12.668  12.050
 2169SOL    HW1 8281  11.324  12.759  12.078
 2169SOL    HW2 8282  11.343  12.669  11.957
 2170SOL     OW 8283   4.055  11.625   6.047
 2170SOL    HW1 8284   4.056  11.689   5.975
 2170SOL    HW2 8285   4.148  11.611   6.067
 2171SOL     OW 8286   6.208   2.986  11.627
 2171SOL    HW1 8287   6.237   2.895  11.629
 2171SOL    HW2 8288   6.116   2.982  11.602
 2172SOL     OW 8289   5.185   0.446   4.692
 2172SOL    HW1 8290   5.097   0.444   4.655
 2172SOL    HW2 8291   5.220   0.358   4.677
 2173SOL     OW 8292  11.222  11.675   0.642
 2173SOL    HW1 8293  11.155  11.619   0.682
 2173SOL    HW2 8294  11.303  11.626   0.652
 2174SOL     OW 8295   6.211  12.949  10.875
 2174SOL    HW1 8296   6.267  12.994  10.811
 2174SOL    HW2 8297   6.234  12.857  10.866
 2175SOL     OW 8298   5.893   4.104   7.436
 2175SOL    HW1 8299   5.807   4.100   7.393
 2175SOL    HW2 8300   5.914   4.197   7.440
 2176SOL     OW 8301   9.769  14.018   7.837
 2176SOL    HW1 8302   9.846  13.988   7.788
 2176SOL    HW2 8303   9.796  14.101   7.877
 2177SOL     OW 8304   8.203   6.632   2.736
 2177SOL    HW1 8305   8.183   6.668   2.822
 2177SOL    HW2 8306   8.279   6.576   2.750
 2178SOL     OW 8307   2.307   3.661  10.550
 2178SOL    HW1 8308   2.252   3.618  10.484
 2178SOL    HW2 8309   2.292   3.612  10.630
 2179SOL     OW 8310   0.467   8.901   7.670
 2179SOL    HW1 8311   0.505   8.835   7.727
 2179SOL    HW2 8312   0.393   8.937   7.720
 2180SOL     OW 8313  10.795   4.694   4.280
 2180SOL    HW1 8314  10.890   4.689   4.291
 2180SOL    HW2 8315  10.766   4.603   4.282
 2181SOL     OW 8316  13.757   8.166  11.714
 2181SOL    HW1 8317  13.775   8.254  11.748
 2181SOL    HW2 8318  13.713   8.182  11.631
 2182SOL     OW 8319   9.456  10.255   8.872
 2182SOL    HW1 8320   9.423  10.253   8.782
 2182SOL    HW2 8321   9.549  10.233   8.864
 2183SOL     OW 8322  11.203   2.388  14.585
 2183SOL    HW1 8323  11.190   2.322  14.517
 2183SOL    HW2 8324  11.155   2.465  14.555
 2184SOL     OW 8325   3.539  13.379   1.872
 2184SOL    HW1 8326   3.631  13.368   1.893
 2184SOL    HW2 8327   3.512  13.457   1.921
 2185SOL     OW 8328  14.063   4.604  14.641
 2185SOL    HW1 8329  14.092   4.646  14.722
 2185SOL    HW2 8330  14.110   4.650  14.571
 2186SOL     OW 8331  10.154  10.331  12.090
 2186SOL    HW1 8332  10.152  10.272  12.015
 2186SOL    HW2 8333  10.074  10.312  12.138
 2187SOL     OW 8334   3.475   7.788   1.485
 2187SOL    HW1 8335   3.512   7.873   1.509
 2187SOL    HW2 8336   3.383   7.795   1.509
 2188SOL     OW 8337   8.449   7.392   2.750
 2188SOL    HW1 8338   8.420   7.481   2.770
 2188SOL    HW2 8339   8.488   7.398   2.663
 2189SOL     OW 8340   5.099   9.472   8.129
 2189SOL    HW1 8341   5.100   9.538   8.198
 2189SOL    HW2 8342   5.189   9.441   8.124
 2190SOL     OW 8343   8.000   9.935  11.372
 2190SOL    HW1 8344   8.041   9.958  11.288
 2190SOL    HW2 8345   7.979  10.020  11.411
 2191SOL     OW 8346   5.442   3.344   2.472
 2191SOL    HW1 8347   5.515   3.393   2.435
 2191SOL    HW2 8348   5.439   3.371   2.564
 2192SOL     OW 8349   3.923  12.307   2.825
 2192SOL    HW1 8350   3.841  12.333   2.783
 2192SOL    HW2 8351   3.908  12.322   2.918
 2193SOL     OW 8352   3.293   1.921   4.212
 2193SOL    HW1 8353   3.333   1.879   4.288
 2193SOL    HW2 8354   3.199   1.924   4.234
 2194SOL     OW 8355   1.865  13.412  10.441
 2194SOL    HW1 8356   1.929  13.436  10.375
 2194SOL    HW2 8357   1.796  13.479  10.433
 2195SOL     OW 8358   9.333  12.908  10.744
 2195SOL    HW1 8359   9.382  12.959  10.679
 2195SOL    HW2 8360   9.328  12.966  10.820
 2196SOL     OW 8361   7.347   3.857   6.687
 2196SOL    HW1 8362   7.439   3.832   6.697
 2196SOL    HW2 8363   7.350   3.945   6.652
 2197SOL     OW 8364   5.709   2.494   1.263
 2197SOL    HW1 8365   5.651   2.491   1.339
 2197SOL    HW2 8366   5.743   2.584   1.263
 2198SOL     OW 8367   2.950   7.694   4.198
 2198SOL    HW1 8368   3.038   7.731   4.202
 2198SOL    HW2 8369   2.906   7.729   4.275
 2199SOL     OW 8370  13.645   4.836   8.989
 2199SOL    HW1 8371  13.555   4.805   8.978
 2199SOL    HW2 8372  13.693   4.759   9.020
 2200SOL     OW 8373   2.775   5.108  11.058
 2200SOL    HW1 8374   2.751   5.059  11.137
 2200SOL    HW2 8375   2.699   5.098  11.001
 2201SOL     OW 8376   2.961  11.722   7.377
 2201SOL    HW1 8377   3.054  11.708   7.394
 2201SOL    HW2 8378   2.924  11.635   7.369
 2202SOL     OW 8379  11.785   4.801  14.812
 2202SOL    HW1 8380  11.751   4.865  14.750
 2202SOL    HW2 8381  11.870   4.837  14.839
 2203SOL     OW 8382  14.158  14.764   6.147
 2203SOL    HW1 8383  14.189  14.677   6.125
 2203SOL    HW2 8384  14.137  14.760   6.241
 2204SOL     OW 8385   5.802   7.492   6.767
 2204SOL    HW1 8386   5.891   7.462   6.751
 2204SOL    HW2 8387   5.810   7.555   6.838
 2205SOL     OW 8388  14.870  13.106   1.571
 2205SOL    HW1 8389  14.821  13.174   1.524
 2205SOL    HW2 8390   0.074  13.149   1.597
 2206SOL     OW 8391   0.947   8.012   2.719
 2206SOL    HW1 8392   0.901   7.966   2.789
 2206SOL    HW2 8393   1.031   8.038   2.758
 2207SOL     OW 8394   3.309  14.619   4.700
 2207SOL    HW1 8395   3.304  14.588   4.610
 2207SOL    HW2 8396   3.236  14.680   4.709
 2208SOL     OW 8397  11.012  14.757   2.443
 2208SOL    HW1 8398  10.996  14.840   2.488
 2208SOL    HW2 8399  10.997  14.777   2.350
 2209SOL     OW 8400  13.186   5.019   1.447
 2209SOL    HW1 8401  13.199   5.071   1.369
 2209SOL    HW2 8402  13.118   5.066   1.496
 2210SOL     OW 8403   3.040   7.408  13.642
 2210SOL    HW1 8404   3.022   7.323  13.601
 2210SOL    HW2 8405   2.989   7.470  13.591
 2211SOL     OW 8406   6.992   7.651  13.426
 2211SOL    HW1 8407   7.027   7.568  13.457
 2211SOL    HW2 8408   7.061   7.687  13.370
 2212SOL     OW 8409  10.693  12.122   8.163
 2212SOL    HW1 8410  10.696  12.189   8.095
 2212SOL    HW2 8411  10.599  12.109   8.180
 2213SOL     OW 8412  10.139   1.919  11.446
 2213SOL    HW1 8413  10.189   1.923  11.364
 2213SOL    HW2 8414  10.090   2.001  11.448
 2214SOL     OW 8415   2.743   8.950   3.183
 2214SOL    HW1 8416   2.795   9.002   3.121
 2214SOL    HW2 8417   2.788   8.962   3.267
 2215SOL     OW 8418   2.876   9.583   4.320
 2215SOL    HW1 8419   2.903   9.675   4.315
 2215SOL    HW2 8420   2.957   9.534   4.302
 2216SOL     OW 8421   0.762   4.551  11.075
 2216SOL    HW1 8422   0.762   4.622  11.011
 2216SOL    HW2 8423   0.669   4.529  11.086
 2217SOL     OW 8424  13.215   6.254   4.125
 2217SOL    HW1 8425  13.179   6.286   4.208
 2217SOL    HW2 8426  13.169   6.305   4.058
 2218SOL     OW 8427  10.712  10.181  13.209
 2218SOL    HW1 8428  10.671  10.266  13.228
 2218SOL    HW2 8429  10.746  10.191  13.120
 2219SOL     OW 8430   7.053   4.167   7.508
 2219SOL    HW1 8431   7.130   4.117   7.537
 2219SOL    HW2 8432   7.028   4.127   7.425
 2220SOL     OW 8433   3.940  12.287  11.597
 2220SOL    HW1 8434   3.878  12.282  11.524
 2220SOL    HW2 8435   3.939  12.380  11.622
 2221SOL     OW 8436  10.429  12.076   9.678
 2221SOL    HW1 8437  10.349  12.100   9.723
 2221SOL    HW2 8438  10.414  11.985   9.649
 2222SOL     OW 8439   7.065  10.532   4.608
 2222SOL    HW1 8440   6.993  10.552   4.668
 2222SOL    HW2 8441   7.050  10.441   4.582
 2223SOL     OW 8442  13.223   2.787   2.806
 2223SOL    HW1 8443  13.302   2.734   2.818
 2223SOL    HW2 8444  13.154   2.738   2.849
 2224SOL     OW 8445  13.217  12.334  12.208
 2224SOL    HW1 8446  13.216  12.328  12.113
 2224SOL    HW2 8447  13.269  12.413  12.226
 2225SOL     OW 8448  10.790  10.139  11.773
 2225SOL    HW1 8449  10.744  10.205  11.825
 2225SOL    HW2 8450  10.722  10.078  11.745
 2226SOL     OW 8451   8.859   9.300   1.866
 2226SOL    HW1 8452   8.865   9.366   1.798
 2226SOL    HW2 8453   8.871   9.348   1.948
 2227SOL     OW 8454  14.669   0.489   7.302
 2227SOL    HW1 8455  14.646   0.527   7.217
 2227SOL    HW2 8456  14.618   0.408   7.306
 2228SOL     OW 8457  14.146  10.395  13.468
 2228SOL    HW1 8458  14.190  10.312  13.489
 2228SOL    HW2 8459  14.134  10.438  13.553
 2229SOL     OW 8460   7.573   4.197  13.532
 2229SOL    HW1 8461   7.501   4.211  13.594
 2229SOL    HW2 8462   7.534   4.141  13.464
 2230SOL     OW 8463   0.658   1.710  10.297
 2230SOL    HW1 8464   0.643   1.796  10.337
 2230SOL    HW2 8465   0.737   1.721  10.245
 2231SOL     OW 8466   1.883  10.490   4.452
 2231SOL    HW1 8467   1.970  10.495   4.492
 2231SOL    HW2 8468   1.839  10.569   4.480
 2232SOL     OW 8469   7.541   4.320   1.615
 2232SOL    HW1 8470   7.446   4.318   1.607
 2232SOL    HW2 8471   7.571   4.370   1.539
 2233SOL     OW 8472  12.157   0.888  10.911
 2233SOL    HW1 8473  12.096   0.943  10.960
 2233SOL    HW2 8474  12.168   0.810  10.965
 2234SOL     OW 8475  14.794  11.567   4.189
 2234SOL    HW1 8476  14.803  11.582   4.283
 2234SOL    HW2 8477  14.737  11.490   4.183
 2235SOL     OW 8478   7.195  13.407  13.132
 2235SOL    HW1 8479   7.127  13.411  13.065
 2235SOL    HW2 8480   7.255  13.478  13.110
 2236SOL     OW 8481   5.863   0.590  10.418
 2236SOL    HW1 8482   5.899   0.581  10.506
 2236SOL    HW2 8483   5.900   0.517  10.369
 2237SOL     OW 8484   9.025   9.679  12.311
 2237SOL    HW1 8485   9.004   9.740  12.382
 2237SOL    HW2 8486   8.960   9.698  12.243
 2238SOL     OW 8487   0.549  10.891   3.088
 2238SOL    HW1 8488   0.575  10.809   3.045
 2238SOL    HW2 8489   0.459  10.876   3.115
 2239SOL     OW 8490   4.107   8.020   4.539
 2239SOL    HW1 8491   4.155   8.068   4.472
 2239SOL    HW2 8492   4.145   7.932   4.537
 2240SOL     OW 8493  11.609   2.893   2.148
 2240SOL    HW1 8494  11.644   2.819   2.197
 2240SOL    HW2 8495  11.520   2.903   2.182
 2241SOL     OW 8496  10.222  12.351   2.441
 2241SOL    HW1 8497  10.164  12.409   2.392
 2241SOL    HW2 8498  10.237  12.397   2.524
 2242SOL     OW 8499  11.343   2.171   2.903
 2242SOL    HW1 8500  11.364   2.252   2.857
 2242SOL    HW2 8501  11.410   2.163   2.970
 2243SOL     OW 8502   6.759   1.593   9.595
 2243SOL    HW1 8503   6.733   1.513   9.641
 2243SOL    HW2 8504   6.841   1.570   9.551
 2244SOL     OW 8505  13.673   3.073   2.644
 2244SOL    HW1 8506  13.738   3.125   2.691
 2244SOL    HW2 8507  13.717   3.049   2.562
 2245SOL     OW 8508   7.736  11.120   9.491
 2245SOL    HW1 8509   7.816  11.079   9.522
 2245SOL    HW2 8510   7.749  11.213   9.506
 2246SOL     OW 8511   6.618  13.369   3.065
 2246SOL    HW1 8512   6.580  13.419   2.992
 2246SOL    HW2 8513   6.543  13.345   3.119
 2247SOL     OW 8514   3.544   8.618  11.670
 2247SOL    HW1 8515   3.624   8.653  11.632
 2247SOL    HW2 8516   3.473   8.664  11.625
 2248SOL     OW 8517   7.338  13.712   4.874
 2248SOL    HW1 8518   7.248  13.681   4.881
 2248SOL    HW2 8519   7.388  13.636   4.844
 2249SOL     OW 8520  11.021   7.623  13.612
 2249SOL    HW1 8521  10.989   7.606  13.523
 2249SOL    HW2 8522  10.981   7.706  13.636
 2250SOL     OW 8523   4.174   7.564   9.217
 2250SOL    HW1 8524   4.111   7.558   9.288
 2250SOL    HW2 8525   4.244   7.619   9.251
 2251SOL     OW 8526   2.405  10.588  10.234
 2251SOL    HW1 8527   2.432  10.501  10.206
 2251SOL    HW2 8528   2.442  10.598  10.322
 2252SOL     OW 8529  11.534  12.135   5.827
 2252SOL    HW1 8530  11.540  12.043   5.854
 2252SOL    HW2 8531  11.561  12.135   5.735
 2253SOL     OW 8532   9.718   1.761   5.020
 2253SOL    HW1 8533   9.681   1.673   5.009
 2253SOL    HW2 8534   9.778   1.771   4.946
 2254SOL     OW 8535   8.609   7.535   7.275
 2254SOL    HW1 8536   8.648   7.472   7.215
 2254SOL    HW2 8537   8.630   7.501   7.362
 2255SOL     OW 8538   2.079  10.217  14.130
 2255SOL    HW1 8539   2.025  10.261  14.196
 2255SOL    HW2 8540   2.143  10.167  14.181
 2256SOL     OW 8541  14.348   0.181   6.057
 2256SOL    HW1 8542  14.317   0.090   6.057
 2256SOL    HW2 8543  14.268   0.233   6.044
 2257SOL     OW 8544  13.970   8.105   9.466
 2257SOL    HW1 8545  14.050   8.057   9.449
 2257SOL    HW2 8546  13.906   8.070   9.404
 2258SOL     OW 8547   7.635   3.867  11.233
 2258SOL    HW1 8548   7.723   3.862  11.195
 2258SOL    HW2 8549   7.620   3.778  11.267
 2259SOL     OW 8550   8.380   7.595   4.888
 2259SOL    HW1 8551   8.384   7.671   4.830
 2259SOL    HW2 8552   8.309   7.542   4.853
 2260SOL     OW 8553   4.426  11.342   7.854
 2260SOL    HW1 8554   4.349  11.399   7.852
 2260SOL    HW2 8555   4.492  11.389   7.802
 2261SOL     OW 8556   0.153   0.803   2.413
 2261SOL    HW1 8557   0.100   0.821   2.491
 2261SOL    HW2 8558   0.152   0.708   2.405
 2262SOL     OW 8559   6.359   9.008   4.441
 2262SOL    HW1 8560   6.360   8.970   4.353
 2262SOL    HW2 8561   6.354   8.932   4.500
 2263SOL     OW 8562  11.318   8.154  12.426
 2263SOL    HW1 8563  11.277   8.201  12.499
 2263SOL    HW2 8564  11.250   8.094  12.395
 2264SOL     OW 8565   6.832   9.719  12.783
 2264SOL    HW1 8566   6.755   9.695  12.835
 2264SOL    HW2 8567   6.905   9.673  12.826
 2265SOL     OW 8568  13.603   2.553  14.508
 2265SOL    HW1 8569  13.609   2.640  14.549
 2265SOL    HW2 8570  13.602   2.492  14.582
 2266SOL     OW 8571   4.507   5.587  13.084
 2266SOL    HW1 8572   4.418   5.621  13.070
 2266SOL    HW2 8573   4.536   5.559  12.998
 2267SOL     OW 8574  12.626  12.298   6.498
 2267SOL    HW1 8575  12.688  12.235   6.460
 2267SOL    HW2 8576  12.599  12.258   6.580
 2268SOL     OW 8577  11.599   3.764   9.422
 2268SOL    HW1 8578  11.670   3.808   9.375
 2268SOL    HW2 8579  11.539   3.835   9.446
 2269SOL     OW 8580   0.504   1.851   3.334
 2269SOL    HW1 8581   0.520   1.937   3.372
 2269SOL    HW2 8582   0.429   1.817   3.383
 2270SOL     OW 8583   1.428  10.480   8.031
 2270SOL    HW1 8584   1.354  10.433   8.068
 2270SOL    HW2 8585   1.414  10.571   8.057
 2271SOL     OW 8586  13.183  13.308  13.909
 2271SOL    HW1 8587  13.272  13.331  13.882
 2271SOL    HW2 8588  13.142  13.273  13.830
 2272SOL     OW 8589   7.819   6.801   9.934
 2272SOL    HW1 8590   7.725   6.817   9.948
 2272SOL    HW2 8591   7.862   6.869   9.986
 2273SOL     OW 8592  10.200   9.383   2.320
 2273SOL    HW1 8593  10.241   9.442   2.257
 2273SOL    HW2 8594  10.224   9.296   2.291
 2274SOL     OW 8595   4.716  11.967   2.308
 2274SOL    HW1 8596   4.808  11.962   2.333
 2274SOL    HW2 8597   4.693  11.877   2.284
 2275SOL     OW 8598   3.795   6.387   8.465
 2275SOL    HW1 8599   3.732   6.320   8.440
 2275SOL    HW2 8600   3.763   6.467   8.423
 2276SOL     OW 8601  11.596  13.421   7.809
 2276SOL    HW1 8602  11.617  13.335   7.846
 2276SOL    HW2 8603  11.661  13.435   7.740
 2277SOL     OW 8604   0.726   1.217  10.827
 2277SOL    HW1 8605   0.761   1.170  10.903
 2277SOL    HW2 8606   0.802   1.258  10.786
 2278SOL     OW 8607   7.281   6.058   1.659
 2278SOL    HW1 8608   7.345   6.079   1.727
 2278SOL    HW2 8609   7.206   6.115   1.677
 2279SOL     OW 8610  14.749   5.003   8.379
 2279SOL    HW1 8611  14.826   5.058   8.394
 2279SOL    HW2 8612  14.765   4.963   8.293
 2280SOL     OW 8613   5.143  11.364   1.390
 2280SOL    HW1 8614   5.178  11.333   1.473
 2280SOL    HW2 8615   5.059  11.319   1.381
 2281SOL     OW 8616   7.475   2.851   1.122
 2281SOL    HW1 8617   7.561   2.818   1.149
 2281SOL    HW2 8618   7.413   2.792   1.165
 2282SOL     OW 8619  12.912  14.078   5.954
 2282SOL    HW1 8620  12.864  14.003   5.919
 2282SOL    HW2 8621  12.939  14.128   5.877
 2283SOL     OW 8622  14.112  10.451   0.053
 2283SOL    HW1 8623  14.141  10.525  14.877
 2283SOL    HW2 8624  14.031  10.421   0.011
 2284SOL     OW 8625   4.631   1.215   6.966
 2284SOL    HW1 8626   4.607   1.267   6.889
 2284SOL    HW2 8627   4.547   1.194   7.008
 2285SOL     OW 8628  10.775   5.226   0.721
 2285SOL    HW1 8629  10.834   5.250   0.650
 2285SOL    HW2 8630  10.716   5.301   0.729
 2286SOL     OW 8631   7.074   5.462   5.055
 2286SOL    HW1 8632   7.040   5.373   5.044
 2286SOL    HW2 8633   7.169   5.451   5.063
 2287SOL     OW 8634  12.989   0.766   5.653
 2287SOL    HW1 8635  12.915   0.758   5.593
 2287SOL    HW2 8636  12.952   0.748   5.739
 2288SOL     OW 8637   8.164  14.859   0.076
 2288SOL    HW1 8638   8.242   0.027   0.110
 2288SOL    HW2 8639   8.105   0.052   0.050
 2289SOL     OW 8640   3.001  11.574   4.476
 2289SOL    HW1 8641   3.082  11.618   4.450
 2289SOL    HW2 8642   2.956  11.556   4.393
 2290SOL     OW 8643  10.147  14.043  13.042
 2290SOL    HW1 8644  10.092  14.103  12.991
 2290SOL    HW2 8645  10.112  13.956  13.021
 2291SOL     OW 8646  14.082  12.556   1.796
 2291SOL    HW1 8647  14.096  12.534   1.888
 2291SOL    HW2 8648  13.987  12.552   1.785
 2292SOL     OW 8649   8.981  10.533  10.339
 2292SOL    HW1 8650   8.975  10.628  10.330
 2292SOL    HW2 8651   8.894  10.501  10.313
 2293SOL     OW 8652   1.372   9.800   1.975
 2293SOL    HW1 8653   1.431   9.724   1.976
 2293SOL    HW2 8654   1.430   9.875   1.960
 2294SOL     OW 8655   3.874   0.570   8.195
 2294SOL    HW1 8656   3.785   0.590   8.166
 2294SOL    HW2 8657   3.917   0.655   8.202
 2295SOL     OW 8658  12.643   3.648   8.398
 2295SOL    HW1 8659  12.573   3.633   8.462
 2295SOL    HW2 8660  12.723   3.621   8.444
 2296SOL     OW 8661   1.662  10.155   8.428
 2296SOL    HW1 8662   1.662  10.135   8.521
 2296SOL    HW2 8663   1.728  10.096   8.390
 2297SOL     OW 8664   1.995   3.493   8.304
 2297SOL    HW1 8665   2.011   3.410   8.260
 2297SOL    HW2 8666   1.900   3.503   8.302
 2298SOL     OW 8667  13.602  13.689   1.601
 2298SOL    HW1 8668  13.661  13.618   1.576
 2298SOL    HW2 8669  13.655  13.768   1.595
 2299SOL     OW 8670   5.009   0.301   1.557
 2299SOL    HW1 8671   5.077   0.293   1.491
 2299SOL    HW2 8672   4.943   0.236   1.533
 2300SOL     OW 8673   9.234  11.655   5.693
 2300SOL    HW1 8674   9.163  11.639   5.756
 2300SOL    HW2 8675   9.246  11.750   5.694
 2301SOL     OW 8676   5.638  12.165   7.813
 2301SOL    HW1 8677   5.582  12.103   7.861
 2301SOL    HW2 8678   5.579  12.236   7.789
 2302SOL     OW 8679   5.357  14.554  10.787
 2302SOL    HW1 8680   5.344  14.492  10.859
 2302SOL    HW2 8681   5.370  14.639  10.830
 2303SOL     OW 8682   4.102   7.467   1.187
 2303SOL    HW1 8683   4.064   7.404   1.125
 2303SOL    HW2 8684   4.106   7.549   1.138
 2304SOL     OW 8685  14.317   1.046   8.012
 2304SOL    HW1 8686  14.378   0.972   8.016
 2304SOL    HW2 8687  14.255   1.022   7.943
 2305SOL     OW 8688   9.519   3.434  12.398
 2305SOL    HW1 8689   9.463   3.362  12.427
 2305SOL    HW2 8690   9.566   3.462  12.476
 2306SOL     OW 8691  13.323   9.314  11.429
 2306SOL    HW1 8692  13.371   9.234  11.452
 2306SOL    HW2 8693  13.232   9.294  11.454
 2307SOL     OW 8694   2.119   5.168  14.244
 2307SOL    HW1 8695   2.153   5.141  14.159
 2307SOL    HW2 8696   2.169   5.248  14.265
 2308SOL     OW 8697  11.903   6.779   1.416
 2308SOL    HW1 8698  11.902   6.795   1.510
 2308SOL    HW2 8699  11.835   6.836   1.381
 2309SOL     OW 8700   2.831   2.463   8.663
 2309SOL    HW1 8701   2.881   2.483   8.584
 2309SOL    HW2 8702   2.780   2.385   8.640
 2310SOL     OW 8703  12.862  11.806   0.544
 2310SOL    HW1 8704  12.826  11.773   0.462
 2310SOL    HW2 8705  12.896  11.892   0.521
 2311SOL     OW 8706  13.549   3.542   9.819
 2311SOL    HW1 8707  13.630   3.591   9.808
 2311SOL    HW2 8708  13.533   3.500   9.735
 2312SOL     OW 8709  10.961   0.063  12.564
 2312SOL    HW1 8710  10.914  14.857  12.564
 2312SOL    HW2 8711  11.032   0.051  12.501
 2313SOL     OW 8712  13.949   2.776  14.484
 2313SOL    HW1 8713  14.004   2.699  14.492
 2313SOL    HW2 8714  13.908   2.787  14.570
 2314SOL     OW 8715  13.398   7.455   7.031
 2314SOL    HW1 8716  13.429   7.439   6.942
 2314SOL    HW2 8717  13.399   7.550   7.040
 2315SOL     OW 8718  10.739  14.200   1.076
 2315SOL    HW1 8719  10.713  14.128   1.133
 2315SOL    HW2 8720  10.810  14.244   1.124
 2316SOL     OW 8721   2.846   0.146   2.574
 2316SOL    HW1 8722   2.898   0.083   2.524
 2316SOL    HW2 8723   2.881   0.141   2.663
 2317SOL     OW 8724   8.170  13.241  11.093
 2317SOL    HW1 8725   8.207  13.328  11.107
 2317SOL    HW2 8726   8.126  13.220  11.175
 2318SOL     OW 8727   3.159   3.792   2.919
 2318SOL    HW1 8728   3.066   3.779   2.938
 2318SOL    HW2 8729   3.181   3.873   2.964
 2319SOL     OW 8730   9.275   5.855   5.534
 2319SOL    HW1 8731   9.259   5.919   5.604
 2319SOL    HW2 8732   9.368   5.834   5.542
 2320SOL     OW 8733   6.895   0.617   9.901
 2320SOL    HW1 8734   6.876   0.524   9.891
 2320SOL    HW2 8735   6.858   0.658   9.823
 2321SOL     OW 8736   0.160  10.669   5.850
 2321SOL    HW1 8737   0.100  10.659   5.776
 2321SOL    HW2 8738   0.105  10.705   5.920
 2322SOL     OW 8739   6.964  13.453   3.366
 2322SOL    HW1 8740   6.960  13.456   3.270
 2322SOL    HW2 8741   6.996  13.540   3.391
 2323SOL     OW 8742  12.206  14.673  10.642
 2323SOL    HW1 8743  12.194  14.736  10.713
 2323SOL    HW2 8744  12.264  14.607  10.679
 2324SOL     OW 8745   2.053  11.481  12.472
 2324SOL    HW1 8746   2.129  11.520  12.430
 2324SOL    HW2 8747   2.029  11.408  12.415
 2325SOL     OW 8748   9.194  14.018   7.616
 2325SOL    HW1 8749   9.172  14.048   7.528
 2325SOL    HW2 8750   9.288  14.036   7.625
 2326SOL     OW 8751   4.477   8.631   3.375
 2326SOL    HW1 8752   4.568   8.600   3.376
 2326SOL    HW2 8753   4.480   8.716   3.418
 2327SOL     OW 8754   7.289   9.312   6.240
 2327SOL    HW1 8755   7.213   9.320   6.183
 2327SOL    HW2 8756   7.279   9.384   6.303
 2328SOL     OW 8757  13.600   4.754   7.805
 2328SOL    HW1 8758  13.649   4.715   7.732
 2328SOL    HW2 8759  13.559   4.679   7.849
 2329SOL     OW 8760   7.725   3.002   4.302
 2329SOL    HW1 8761   7.656   2.961   4.249
 2329SOL    HW2 8762   7.738   2.942   4.375
 2330SOL     OW 8763  12.456   3.835   4.968
 2330SOL    HW1 8764  12.539   3.793   4.943
 2330SOL    HW2 8765  12.389   3.779   4.930
 2331SOL     OW 8766   4.323  10.826   5.421
 2331SOL    HW1 8767   4.266  10.901   5.438
 2331SOL    HW2 8768   4.281  10.779   5.349
 2332SOL     OW 8769  14.234   7.157   2.861
 2332SOL    HW1 8770  14.157   7.210   2.882
 2332SOL    HW2 8771  14.199   7.082   2.813
 2333SOL     OW 8772   8.012  10.786   5.895
 2333SOL    HW1 8773   8.057  10.705   5.919
 2333SOL    HW2 8774   8.035  10.799   5.803
 2334SOL     OW 8775  12.898  13.992   8.524
 2334SOL    HW1 8776  12.938  13.906   8.510
 2334SOL    HW2 8777  12.804  13.975   8.522
 2335SOL     OW 8778   5.988   9.615  11.187
 2335SOL    HW1 8779   5.993   9.643  11.095
 2335SOL    HW2 8780   6.069   9.647  11.226
 2336SOL     OW 8781  13.817   7.122  13.751
 2336SOL    HW1 8782  13.796   7.068  13.675
 2336SOL    HW2 8783  13.735   7.123  13.802
 2337SOL     OW 8784  12.537   4.502   4.435
 2337SOL    HW1 8785  12.562   4.500   4.528
 2337SOL    HW2 8786  12.518   4.594   4.418
 2338SOL     OW 8787   4.759   8.381  14.141
 2338SOL    HW1 8788   4.720   8.372  14.054
 2338SOL    HW2 8789   4.714   8.456  14.180
 2339SOL     OW 8790  10.739   7.770   1.178
 2339SOL    HW1 8791  10.750   7.792   1.270
 2339SOL    HW2 8792  10.772   7.681   1.170
 2340SOL     OW 8793   5.599   6.958   3.157
 2340SOL    HW1 8794   5.579   6.870   3.189
 2340SOL    HW2 8795   5.514   6.999   3.144
 2341SOL     OW 8796   7.259   4.596   9.327
 2341SOL    HW1 8797   7.235   4.684   9.356
 2341SOL    HW2 8798   7.303   4.608   9.243
 2342SOL     OW 8799   7.072   9.746   6.915
 2342SOL    HW1 8800   7.095   9.665   6.961
 2342SOL    HW2 8801   7.139   9.755   6.847
 2343SOL     OW 8802   1.273  11.381   2.360
 2343SOL    HW1 8803   1.304  11.387   2.450
 2343SOL    HW2 8804   1.318  11.453   2.315
 2344SOL     OW 8805   9.117   2.916   6.897
 2344SOL    HW1 8806   9.121   2.851   6.826
 2344SOL    HW2 8807   9.040   2.969   6.876
 2345SOL     OW 8808  14.491  13.891  11.866
 2345SOL    HW1 8809  14.566  13.850  11.823
 2345SOL    HW2 8810  14.441  13.930  11.794
 2346SOL     OW 8811   4.742   1.783   7.793
 2346SOL    HW1 8812   4.720   1.871   7.826
 2346SOL    HW2 8813   4.835   1.788   7.771
 2347SOL     OW 8814   8.141  14.781   9.450
 2347SOL    HW1 8815   8.154  14.808   9.359
 2347SOL    HW2 8816   8.229  14.763   9.482
 2348SOL     OW 8817  14.314   9.425   5.534
 2348SOL    HW1 8818  14.281   9.471   5.612
 2348SOL    HW2 8819  14.379   9.364   5.569
 2349SOL     OW 8820   0.135   5.884  13.091
 2349SOL    HW1 8821   0.047   5.921  13.085
 2349SOL    HW2 8822   0.180   5.939  13.155
 2350SOL     OW 8823  13.030   5.671   3.267
 2350SOL    HW1 8824  13.034   5.583   3.230
 2350SOL    HW2 8825  13.072   5.727   3.202
 2351SOL     OW 8826   3.839   1.799   7.461
 2351SOL    HW1 8827   3.827   1.821   7.554
 2351SOL    HW2 8828   3.757   1.828   7.420
 2352SOL     OW 8829   4.839   9.622  10.145
 2352SOL    HW1 8830   4.845   9.649  10.053
 2352SOL    HW2 8831   4.761   9.667  10.178
 2353SOL     OW 8832   3.684  13.641   9.194
 2353SOL    HW1 8833   3.674  13.585   9.117
 2353SOL    HW2 8834   3.768  13.614   9.232
 2354SOL     OW 8835  13.440  10.771  10.794
 2354SOL    HW1 8836  13.532  10.773  10.769
 2354SOL    HW2 8837  13.428  10.847  10.850
 2355SOL     OW 8838  13.922  13.643   1.135
 2355SOL    HW1 8839  13.985  13.623   1.205
 2355SOL    HW2 8840  13.958  13.719   1.090
 2356SOL     OW 8841  12.236   9.111   5.979
 2356SOL    HW1 8842  12.308   9.050   5.963
 2356SOL    HW2 8843  12.233   9.167   5.902
 2357SOL     OW 8844   1.817  13.819   5.191
 2357SOL    HW1 8845   1.798  13.814   5.097
 2357SOL    HW2 8846   1.866  13.901   5.201
 2358SOL     OW 8847  13.569   8.385   2.896
 2358SOL    HW1 8848  13.609   8.347   2.819
 2358SOL    HW2 8849  13.518   8.459   2.863
 2359SOL     OW 8850   6.564   9.713   9.998
 2359SOL    HW1 8851   6.566   9.750   9.909
 2359SOL    HW2 8852   6.472   9.692  10.013
 2360SOL     OW 8853  14.624   7.573   0.414
 2360SOL    HW1 8854  14.689   7.537   0.353
 2360SOL    HW2 8855  14.621   7.667   0.393
 2361SOL     OW 8856  13.434   8.275   1.674
 2361SOL    HW1 8857  13.352   8.225   1.675
 2361SOL    HW2 8858  13.479   8.246   1.753
 2362SOL     OW 8859  13.775   0.794   7.535
 2362SOL    HW1 8860  13.842   0.775   7.470
 2362SOL    HW2 8861  13.792   0.884   7.562
 2363SOL     OW 8862   7.978   9.613  10.148
 2363SOL    HW1 8863   8.011   9.680  10.089
 2363SOL    HW2 8864   7.888   9.597  10.119
 2364SOL     OW 8865   2.111  10.572   0.179
 2364SOL    HW1 8866   2.091  10.588   0.086
 2364SOL    HW2 8867   2.030  10.535   0.214
 2365SOL     OW 8868   4.853   3.242   7.359
 2365SOL    HW1 8869   4.789   3.248   7.429
 2365SOL    HW2 8870   4.832   3.161   7.313
 2366SOL     OW 8871   9.682  13.241   9.836
 2366SOL    HW1 8872   9.722  13.184   9.770
 2366SOL    HW2 8873   9.588  13.223   9.830
 2367SOL     OW 8874  14.424   6.489  10.231
 2367SOL    HW1 8875  14.438   6.582  10.210
 2367SOL    HW2 8876  14.512   6.456  10.251
 2368SOL     OW 8877  10.042  11.311  11.702
 2368SOL    HW1 8878  10.082  11.284  11.785
 2368SOL    HW2 8879   9.953  11.335  11.725
 2369SOL     OW 8880  14.635   9.317  13.413
 2369SOL    HW1 8881  14.700   9.384  13.392
 2369SOL    HW2 8882  14.624   9.268  13.331
 2370SOL     OW 8883   4.208   2.811  10.066
 2370SOL    HW1 8884   4.145   2.868  10.110
 2370SOL    HW2 8885   4.204   2.728  10.114
 2371SOL     OW 8886  11.575  11.577   9.522
 2371SOL    HW1 8887  11.602  11.538   9.605
 2371SOL    HW2 8888  11.506  11.638   9.546
 2372SOL     OW 8889   0.918  13.648   5.602
 2372SOL    HW1 8890   0.962  13.625   5.520
 2372SOL    HW2 8891   0.958  13.591   5.668
 2373SOL     OW 8892  13.151   0.932  13.470
 2373SOL    HW1 8893  13.070   0.968  13.506
 2373SOL    HW2 8894  13.125   0.847  13.433
 2374SOL     OW 8895   1.849   7.993   2.421
 2374SOL    HW1 8896   1.772   8.013   2.368
 2374SOL    HW2 8897   1.829   7.909   2.462
 2375SOL     OW 8898   6.613   9.175   8.347
 2375SOL    HW1 8899   6.658   9.255   8.373
 2375SOL    HW2 8900   6.523   9.189   8.374
 2376SOL     OW 8901   6.637   2.884   3.380
 2376SOL    HW1 8902   6.636   2.800   3.335
 2376SOL    HW2 8903   6.609   2.948   3.314
 2377SOL     OW 8904   4.889   7.286  14.349
 2377SOL    HW1 8905   4.894   7.218  14.415
 2377SOL    HW2 8906   4.979   7.296  14.318
 2378SOL     OW 8907  12.897  10.699  11.980
 2378SOL    HW1 8908  12.966  10.706  11.914
 2378SOL    HW2 8909  12.944  10.705  12.063
 2379SOL     OW 8910  10.499   6.674  14.851
 2379SOL    HW1 8911  10.535   6.659  14.764
 2379SOL    HW2 8912  10.473   6.588   0.005
 2380SOL     OW 8913   0.593   9.989   6.048
 2380SOL    HW1 8914   0.547   9.982   5.965
 2380SOL    HW2 8915   0.537   9.945   6.111
 2381SOL     OW 8916   9.641   4.495   8.764
 2381SOL    HW1 8917   9.607   4.465   8.848
 2381SOL    HW2 8918   9.607   4.584   8.754
 2382SOL     OW 8919   0.257   6.927   6.139
 2382SOL    HW1 8920   0.301   6.984   6.203
 2382SOL    HW2 8921   0.305   6.942   6.057
 2383SOL     OW 8922  11.569   9.287   3.337
 2383SOL    HW1 8923  11.645   9.308   3.391
 2383SOL    HW2 8924  11.507   9.358   3.355
 2384SOL     OW 8925   1.666   7.340   0.744
 2384SOL    HW1 8926   1.723   7.305   0.675
 2384SOL    HW2 8927   1.710   7.420   0.773
 2385SOL     OW 8928   7.615  14.518   2.983
 2385SOL    HW1 8929   7.695  14.555   3.023
 2385SOL    HW2 8930   7.567  14.594   2.951
 2386SOL     OW 8931  13.801   4.290   7.104
 2386SOL    HW1 8932  13.833   4.243   7.027
 2386SOL    HW2 8933  13.786   4.379   7.072
 2387SOL     OW 8934   2.263  13.375   7.541
 2387SOL    HW1 8935   2.332  13.317   7.574
 2387SOL    HW2 8936   2.309  13.436   7.483
 2388SOL     OW 8937   1.040   3.445   5.561
 2388SOL    HW1 8938   1.135   3.456   5.569
 2388SOL    HW2 8939   1.025   3.439   5.466
 2389SOL     OW 8940   2.580   2.199   2.017
 2389SOL    HW1 8941   2.495   2.231   2.046
 2389SOL    HW2 8942   2.643   2.263   2.053
 2390SOL     OW 8943   0.307   4.358   9.405
 2390SOL    HW1 8944   0.284   4.380   9.315
 2390SOL    HW2 8945   0.303   4.262   9.408
 2391SOL     OW 8946   9.689   5.189   4.035
 2391SOL    HW1 8947   9.778   5.154   4.033
 2391SOL    HW2 8948   9.671   5.205   4.128
 2392SOL     OW 8949   0.070  14.564   0.652
 2392SOL    HW1 8950   0.085  14.574   0.558
 2392SOL    HW2 8951   0.001  14.627   0.673
 2393SOL     OW 8952   6.767   2.581  10.377
 2393SOL    HW1 8953   6.779   2.668  10.413
 2393SOL    HW2 8954   6.672   2.570  10.370
 2394SOL     OW 8955  13.312  12.381   2.612
 2394SOL    HW1 8956  13.310  12.372   2.516
 2394SOL    HW2 8957  13.354  12.465   2.627
 2395SOL     OW 8958  14.651   0.177  11.270
 2395SOL    HW1 8959  14.710   0.234  11.220
 2395SOL    HW2 8960  14.570   0.177  11.220
 2396SOL     OW 8961   4.279   3.031   4.385
 2396SOL    HW1 8962   4.231   2.959   4.426
 2396SOL    HW2 8963   4.343   2.988   4.328
 2397SOL     OW 8964   7.920  13.683   7.546
 2397SOL    HW1 8965   7.959  13.751   7.490
 2397SOL    HW2 8966   7.827  13.706   7.550
 2398SOL     OW 8967   0.579   6.768   9.481
 2398SOL    HW1 8968   0.612   6.678   9.475
 2398SOL    HW2 8969   0.544   6.786   9.393
 2399SOL     OW 8970   8.064   1.580  13.284
 2399SOL    HW1 8971   7.989   1.561  13.340
 2399SOL    HW2 8972   8.139   1.573  13.342
 2400SOL     OW 8973   1.700   4.465  13.691
 2400SOL    HW1 8974   1.704   4.450  13.785
 2400SOL    HW2 8975   1.764   4.534  13.675
 2401SOL     OW 8976   4.947   4.459  12.287
 2401SOL    HW1 8977   4.906   4.438  12.203
 2401SOL    HW2 8978   4.903   4.539  12.316
 2402SOL     OW 8979   8.049  13.945   6.461
 2402SOL    HW1 8980   8.096  13.870   6.498
 2402SOL    HW2 8981   7.973  13.956   6.518
 2403SOL     OW 8982   8.564   8.699   0.424
 2403SOL    HW1 8983   8.637   8.732   0.371
 2403SOL    HW2 8984   8.512   8.646   0.363
 2404SOL     OW 8985  14.591  14.488   3.914
 2404SOL    HW1 8986  14.657  14.419   3.918
 2404SOL    HW2 8987  14.508  14.441   3.922
 2405SOL     OW 8988   8.144   5.444   3.756
 2405SOL    HW1 8989   8.099   5.465   3.674
 2405SOL    HW2 8990   8.226   5.403   3.728
 2406SOL     OW 8991  10.279  11.941   4.281
 2406SOL    HW1 8992  10.226  12.002   4.333
 2406SOL    HW2 8993  10.265  11.969   4.191
 2407SOL     OW 8994  12.308   8.638  12.867
 2407SOL    HW1 8995  12.271   8.552  12.846
 2407SOL    HW2 8996  12.397   8.619  12.898
 2408SOL     OW 8997  11.551  13.105   1.774
 2408SOL    HW1 8998  11.585  13.144   1.854
 2408SOL    HW2 8999  11.465  13.146   1.763
 2409SOL     OW 9000   9.510   4.946   2.443
 2409SOL    HW1 9001   9.525   4.895   2.522
 2409SOL    HW2 9002   9.563   5.024   2.454
 2410SOL     OW 9003  11.069   0.281   8.313
 2410SOL    HW1 9004  11.085   0.370   8.282
 2410SOL    HW2 9005  11.151   0.235   8.295
 2411SOL     OW 9006   4.136  11.255   1.431
 2411SOL    HW1 9007   4.057  11.308   1.422
 2411SOL    HW2 9008   4.159  11.232   1.341
 2412SOL     OW 9009   9.430   5.206  10.277
 2412SOL    HW1 9010   9.520   5.220  10.246
 2412SOL    HW2 9011   9.434   5.224  10.371
 2413SOL     OW 9012  14.471  13.799   2.612
 2413SOL    HW1 9013  14.547  13.816   2.556
 2413SOL    HW2 9014  14.507  13.756   2.690
 2414SOL     OW 9015   7.195   8.598  12.888
 2414SOL    HW1 9016   7.158   8.633  12.808
 2414SOL    HW2 9017   7.123   8.551  12.930
 2415SOL     OW 9018   0.899  11.103   4.931
 2415SOL    HW1 9019   0.824  11.110   4.872
 2415SOL    HW2 9020   0.954  11.178   4.909
 2416SOL     OW 9021   0.644   9.347  10.319
 2416SOL    HW1 9022   0.676   9.423  10.271
 2416SOL    HW2 9023   0.589   9.299  10.257
 2417SOL     OW 9024  11.257   5.514   9.492
 2417SOL    HW1 9025  11.210   5.460   9.428
 2417SOL    HW2 9026  11.225   5.603   9.476
 2418SOL     OW 9027  12.629   9.350   3.204
 2418SOL    HW1 9028  12.610   9.444   3.195
 2418SOL    HW2 9029  12.557   9.317   3.258
 2419SOL     OW 9030   4.186   0.634   2.795
 2419SOL    HW1 9031   4.234   0.690   2.856
 2419SOL    HW2 9032   4.113   0.689   2.765
 2420SOL     OW 9033   9.232   9.988   5.219
 2420SOL    HW1 9034   9.254  10.052   5.286
 2420SOL    HW2 9035   9.228   9.904   5.266
 2421SOL     OW 9036   8.881   8.730   0.559
 2421SOL    HW1 9037   8.851   8.742   0.468
 2421SOL    HW2 9038   8.924   8.813   0.580
 2422SOL     OW 9039   7.317  10.653   3.686
 2422SOL    HW1 9040   7.263  10.637   3.608
 2422SOL    HW2 9041   7.398  10.605   3.669
 2423SOL     OW 9042   7.456  12.620   4.261
 2423SOL    HW1 9043   7.520  12.648   4.326
 2423SOL    HW2 9044   7.380  12.592   4.312
 2424SOL     OW 9045   9.598  10.448   1.829
 2424SOL    HW1 9046   9.678  10.400   1.850
 2424SOL    HW2 9047   9.607  10.532   1.875
 2425SOL     OW 9048  11.860   2.068   2.162
 2425SOL    HW1 9049  11.881   2.046   2.253
 2425SOL    HW2 9050  11.767   2.091   2.164
 2426SOL     OW 9051  12.336   7.461  13.822
 2426SOL    HW1 9052  12.344   7.391  13.758
 2426SOL    HW2 9053  12.342   7.541  13.770
 2427SOL     OW 9054  10.630   6.453   0.744
 2427SOL    HW1 9055  10.577   6.451   0.665
 2427SOL    HW2 9056  10.688   6.377   0.737
 2428SOL     OW 9057  11.448  14.029   5.073
 2428SOL    HW1 9058  11.409  14.115   5.084
 2428SOL    HW2 9059  11.395  13.971   5.129
 2429SOL     OW 9060   9.605   4.507   5.275
 2429SOL    HW1 9061   9.556   4.433   5.238
 2429SOL    HW2 9062   9.619   4.483   5.367
 2430SOL     OW 9063   5.831   3.900   6.570
 2430SOL    HW1 9064   5.926   3.899   6.558
 2430SOL    HW2 9065   5.806   3.808   6.570
 2431SOL     OW 9066  14.070  10.348   4.274
 2431SOL    HW1 9067  14.067  10.317   4.183
 2431SOL    HW2 9068  14.075  10.269   4.326
 2432SOL     OW 9069   4.660   4.376  11.906
 2432SOL    HW1 9070   4.595   4.330  11.853
 2432SOL    HW2 9071   4.609   4.417  11.976
 2433SOL     OW 9072   6.200  11.802   2.843
 2433SOL    HW1 9073   6.197  11.834   2.752
 2433SOL    HW2 9074   6.191  11.881   2.896
 2434SOL     OW 9075   1.119   1.619  13.881
 2434SOL    HW1 9076   1.214   1.609  13.873
 2434SOL    HW2 9077   1.087   1.620  13.791
 2435SOL     OW 9078  10.664   2.508   2.770
 2435SOL    HW1 9079  10.590   2.535   2.823
 2435SOL    HW2 9080  10.694   2.589   2.728
 2436SOL     OW 9081   7.440   2.150   9.547
 2436SOL    HW1 9082   7.511   2.213   9.557
 2436SOL    HW2 9083   7.451   2.116   9.458
 2437SOL     OW 9084   0.054  13.066   2.014
 2437SOL    HW1 9085   0.089  13.072   1.925
 2437SOL    HW2 9086   0.129  13.086   2.070
 2438SOL     OW 9087  11.863   8.539   7.985
 2438SOL    HW1 9088  11.806   8.540   8.062
 2438SOL    HW2 9089  11.902   8.626   7.982
 2439SOL     OW 9090   7.859   0.597   3.608
 2439SOL    HW1 9091   7.847   0.583   3.702
 2439SOL    HW2 9092   7.933   0.542   3.585
 2440SOL     OW 9093   9.617   7.386  10.240
 2440SOL    HW1 9094   9.689   7.406  10.300
 2440SOL    HW2 9095   9.541   7.428  10.280
 2441SOL     OW 9096  13.278  13.460   2.773
 2441SOL    HW1 9097  13.250  13.410   2.850
 2441SOL    HW2 9098  13.253  13.405   2.698
 2442SOL     OW 9099  12.899   8.661   2.554
 2442SOL    HW1 9100  12.927   8.614   2.633
 2442SOL    HW2 9101  12.821   8.710   2.581
 2443SOL     OW 9102  13.725  11.996   0.110
 2443SOL    HW1 9103  13.766  12.030   0.031
 2443SOL    HW2 9104  13.789  11.935   0.146
 2444SOL     OW 9105   3.331   7.485  10.540
 2444SOL    HW1 9106   3.385   7.552  10.498
 2444SOL    HW2 9107   3.383   7.405  10.533
 2445SOL     OW 9108   4.148  13.907   8.086
 2445SOL    HW1 9109   4.146  13.857   8.168
 2445SOL    HW2 9110   4.226  13.877   8.041
 2446SOL     OW 9111   5.430   1.418   5.084
 2446SOL    HW1 9112   5.476   1.491   5.042
 2446SOL    HW2 9113   5.500   1.364   5.120
 2447SOL     OW 9114   3.862  11.730   9.997
 2447SOL    HW1 9115   3.817  11.677   9.931
 2447SOL    HW2 9116   3.946  11.686  10.010
 2448SOL     OW 9117   6.618   6.023  14.613
 2448SOL    HW1 9118   6.634   5.929  14.615
 2448SOL    HW2 9119   6.702   6.063  14.637
 2449SOL     OW 9120   5.255  12.532   3.852
 2449SOL    HW1 9121   5.236  12.557   3.943
 2449SOL    HW2 9122   5.238  12.437   3.850
 2450SOL     OW 9123   7.634  12.903  10.601
 2450SOL    HW1 9124   7.634  12.811  10.575
 2450SOL    HW2 9125   7.663  12.901  10.693
 2451SOL     OW 9126   6.960   4.660   2.849
 2451SOL    HW1 9127   7.031   4.597   2.838
 2451SOL    HW2 9128   6.885   4.607   2.875
 2452SOL     OW 9129   0.313   9.228   3.563
 2452SOL    HW1 9130   0.334   9.321   3.554
 2452SOL    HW2 9131   0.226   9.226   3.603
 2453SOL     OW 9132  14.611   9.523  10.666
 2453SOL    HW1 9133  14.647   9.611  10.677
 2453SOL    HW2 9134  14.604   9.488  10.754
 2454SOL     OW 9135   6.365   9.229   8.812
 2454SOL    HW1 9136   6.343   9.307   8.761
 2454SOL    HW2 9137   6.339   9.250   8.901
 2455SOL     OW 9138   4.121   6.024   2.917
 2455SOL    HW1 9139   4.202   6.017   2.968
 2455SOL    HW2 9140   4.149   6.020   2.826
 2456SOL     OW 9141   7.950  11.618   1.979
 2456SOL    HW1 9142   8.017  11.649   2.041
 2456SOL    HW2 9143   7.922  11.534   2.014
 2457SOL     OW 9144   0.844  10.087   9.850
 2457SOL    HW1 9145   0.796  10.096   9.933
 2457SOL    HW2 9146   0.883  10.174   9.835
 2458SOL     OW 9147  14.263   9.948   7.322
 2458SOL    HW1 9148  14.312   9.868   7.341
 2458SOL    HW2 9149  14.288  10.008   7.392
 2459SOL     OW 9150  13.268  12.508   6.087
 2459SOL    HW1 9151  13.363  12.518   6.078
 2459SOL    HW2 9152  13.257  12.429   6.139
 2460SOL     OW 9153   1.544   3.354   4.883
 2460SOL    HW1 9154   1.481   3.314   4.823
 2460SOL    HW2 9155   1.490   3.410   4.939
 2461SOL     OW 9156   6.515  13.494   0.776
 2461SOL    HW1 9157   6.452  13.566   0.769
 2461SOL    HW2 9158   6.464  13.421   0.812
 2462SOL     OW 9159   3.537  10.389   4.675
 2462SOL    HW1 9160   3.503  10.315   4.726
 2462SOL    HW2 9161   3.544  10.460   4.738
 2463SOL     OW 9162   3.723  11.366   9.411
 2463SOL    HW1 9163   3.687  11.283   9.442
 2463SOL    HW2 9164   3.816  11.362   9.435
 2464SOL     OW 9165   9.076   6.020   1.158
 2464SOL    HW1 9166   9.143   6.061   1.104
 2464SOL    HW2 9167   9.095   5.926   1.152
 2465SOL     OW 9168   4.592   6.088   2.782
 2465SOL    HW1 9169   4.630   6.175   2.798
 2465SOL    HW2 9170   4.521   6.082   2.846
 2466SOL     OW 9171   1.877   0.384   4.448
 2466SOL    HW1 9172   1.921   0.369   4.532
 2466SOL    HW2 9173   1.841   0.299   4.425
 2467SOL     OW 9174   8.059   9.361   5.915
 2467SOL    HW1 9175   8.067   9.449   5.952
 2467SOL    HW2 9176   7.969   9.357   5.881
 2468SOL     OW 9177   7.285   5.183   1.779
 2468SOL    HW1 9178   7.350   5.122   1.743
 2468SOL    HW2 9179   7.266   5.243   1.706
 2469SOL     OW 9180   9.296   1.621   2.222
 2469SOL    HW1 9181   9.213   1.625   2.175
 2469SOL    HW2 9182   9.349   1.560   2.171
 2470SOL     OW 9183   2.538   2.232   0.805
 2470SOL    HW1 9184   2.486   2.255   0.728
 2470SOL    HW2 9185   2.555   2.138   0.795
 2471SOL     OW 9186   0.442   6.131   9.741
 2471SOL    HW1 9187   0.369   6.187   9.768
 2471SOL    HW2 9188   0.481   6.101   9.823
 2472SOL     OW 9189   3.250   1.390  12.765
 2472SOL    HW1 9190   3.219   1.434  12.844
 2472SOL    HW2 9191   3.179   1.405  12.701
 2473SOL     OW 9192   4.072   0.638   5.163
 2473SOL    HW1 9193   3.982   0.608   5.175
 2473SOL    HW2 9194   4.064   0.729   5.135
 2474SOL     OW 9195   5.601   9.624   3.824
 2474SOL    HW1 9196   5.505   9.622   3.816
 2474SOL    HW2 9197   5.620   9.709   3.863
 2475SOL     OW 9198   5.410   9.768   4.989
 2475SOL    HW1 9199   5.319   9.739   4.983
 2475SOL    HW2 9200   5.417   9.839   4.925
 2476SOL     OW 9201   7.599   2.064   1.432
 2476SOL    HW1 9202   7.684   2.032   1.460
 2476SOL    HW2 9203   7.580   2.017   1.351
 2477SOL     OW 9204  13.936   8.996  12.379
 2477SOL    HW1 9205  14.028   9.019  12.397
 2477SOL    HW2 9206  13.921   9.025  12.290
 2478SOL     OW 9207   6.192   5.665   7.514
 2478SOL    HW1 9208   6.098   5.683   7.517
 2478SOL    HW2 9209   6.209   5.640   7.422
 2479SOL     OW 9210   0.401  14.001   1.525
 2479SOL    HW1 9211   0.325  14.050   1.493
 2479SOL    HW2 9212   0.475  14.060   1.511
 2480SOL     OW 9213   3.972  14.675   7.797
 2480SOL    HW1 9214   3.964  14.634   7.883
 2480SOL    HW2 9215   3.969  14.769   7.815
 2481SOL     OW 9216   1.939   3.252   2.669
 2481SOL    HW1 9217   1.894   3.306   2.604
 2481SOL    HW2 9218   1.935   3.163   2.633
 2482SOL     OW 9219  10.624   4.854   9.459
 2482SOL    HW1 9220  10.650   4.765   9.436
 2482SOL    HW2 9221  10.661   4.909   9.390
 2483SOL     OW 9222   8.327   0.738  13.187
 2483SOL    HW1 9223   8.343   0.823  13.146
 2483SOL    HW2 9224   8.341   0.674  13.118
 2484SOL     OW 9225   7.802  10.180   3.124
 2484SOL    HW1 9226   7.816  10.087   3.104
 2484SOL    HW2 9227   7.779  10.219   3.039
 2485SOL     OW 9228   2.538  13.503   3.360
 2485SOL    HW1 9229   2.522  13.434   3.424
 2485SOL    HW2 9230   2.607  13.469   3.304
 2486SOL     OW 9231   8.170   0.429   5.858
 2486SOL    HW1 9232   8.207   0.491   5.922
 2486SOL    HW2 9233   8.243   0.408   5.800
 2487SOL     OW 9234   7.872   9.201   7.195
 2487SOL    HW1 9235   7.798   9.149   7.163
 2487SOL    HW2 9236   7.882   9.271   7.130
 2488SOL     OW 9237   4.843   5.898   4.420
 2488SOL    HW1 9238   4.766   5.922   4.471
 2488SOL    HW2 9239   4.881   5.981   4.392
 2489SOL     OW 9240   0.530   0.664  12.107
 2489SOL    HW1 9241   0.480   0.590  12.142
 2489SOL    HW2 9242   0.498   0.740  12.156
 2490SOL     OW 9243  13.247   9.299  12.219
 2490SOL    HW1 9244  13.335   9.330  12.241
 2490SOL    HW2 9245  13.262   9.235  12.149
 2491SOL     OW 9246   3.792   1.838   3.470
 2491SOL    HW1 9247   3.814   1.929   3.490
 2491SOL    HW2 9248   3.874   1.799   3.441
 2492SOL     OW 9249   9.503   8.885   4.587
 2492SOL    HW1 9250   9.553   8.956   4.628
 2492SOL    HW2 9251   9.417   8.923   4.571
 2493SOL     OW 9252   7.297   0.056   1.817
 2493SOL    HW1 9253   7.312   0.063   1.912
 2493SOL    HW2 9254   7.305  14.840   1.799
 2494SOL     OW 9255   7.324   5.718   2.676
 2494SOL    HW1 9256   7.394   5.661   2.709
 2494SOL    HW2 9257   7.309   5.687   2.587
 2495SOL     OW 9258   1.867   2.397   1.957
 2495SOL    HW1 9259   1.843   2.447   2.035
 2495SOL    HW2 9260   1.846   2.306   1.979
 2496SOL     OW 9261  13.024   4.131   7.917
 2496SOL    HW1 9262  13.034   4.223   7.892
 2496SOL    HW2 9263  12.939   4.127   7.961
 2497SOL     OW 9264   8.952   7.591   3.425
 2497SOL    HW1 9265   8.936   7.553   3.339
 2497SOL    HW2 9266   8.896   7.669   3.427
 2498SOL     OW 9267   9.545   7.708  13.684
 2498SOL    HW1 9268   9.559   7.673  13.595
 2498SOL    HW2 9269   9.633   7.724  13.717
 2499SOL     OW 9270   6.846  14.355  10.185
 2499SOL    HW1 9271   6.851  14.382  10.277
 2499SOL    HW2 9272   6.879  14.431  10.137
 2500SOL     OW 9273  13.115   9.591   7.288
 2500SOL    HW1 9274  13.141   9.598   7.196
 2500SOL    HW2 9275  13.030   9.636   7.293
 2501SOL     OW 9276   8.940   2.778   7.087
 2501SOL    HW1 9277   8.996   2.820   7.021
 2501SOL    HW2 9278   8.974   2.808   7.171
 2502SOL     OW 9279  12.272   7.470  10.631
 2502SOL    HW1 9280  12.219   7.543  10.601
 2502SOL    HW2 9281  12.215   7.422  10.692
 2503SOL     OW 9282   7.746   2.573   6.764
 2503SOL    HW1 9283   7.732   2.610   6.677
 2503SOL    HW2 9284   7.797   2.493   6.748
 2504SOL     OW 9285  11.914   5.568  10.207
 2504SOL    HW1 9286  11.893   5.543  10.297
 2504SOL    HW2 9287  11.896   5.662  10.203
 2505SOL     OW 9288   9.475   5.462   0.769
 2505SOL    HW1 9289   9.485   5.518   0.691
 2505SOL    HW2 9290   9.468   5.373   0.734
 2506SOL     OW 9291   9.966  11.290   6.742
 2506SOL    HW1 9292   9.944  11.278   6.835
 2506SOL    HW2 9293  10.006  11.207   6.716
 2507SOL     OW 9294  13.868   3.848   6.524
 2507SOL    HW1 9295  13.926   3.782   6.486
 2507SOL    HW2 9296  13.899   3.931   6.487
 2508SOL     OW 9297  11.612   4.082   4.837
 2508SOL    HW1 9298  11.694   4.052   4.797
 2508SOL    HW2 9299  11.589   4.013   4.899
 2509SOL     OW 9300  10.723   8.475   0.596
 2509SOL    HW1 9301  10.796   8.428   0.558
 2509SOL    HW2 9302  10.686   8.526   0.524
 2510SOL     OW 9303   9.648  12.568  14.160
 2510SOL    HW1 9304   9.590  12.634  14.197
 2510SOL    HW2 9305   9.593  12.517  14.101
 2511SOL     OW 9306  14.441   6.251   5.427
 2511SOL    HW1 9307  14.528   6.219   5.401
 2511SOL    HW2 9308  14.443   6.253   5.522
 2512SOL     OW 9309   3.243   1.421   4.397
 2512SOL    HW1 9310   3.164   1.367   4.393
 2512SOL    HW2 9311   3.276   1.410   4.487
 2513SOL     OW 9312   1.733   6.705  10.562
 2513SOL    HW1 9313   1.688   6.672  10.640
 2513SOL    HW2 9314   1.693   6.792  10.547
 2514SOL     OW 9315   9.718   2.839   9.960
 2514SOL    HW1 9316   9.806   2.871   9.980
 2514SOL    HW2 9317   9.701   2.871   9.871
 2515SOL     OW 9318  14.385   6.245   9.769
 2515SOL    HW1 9319  14.472   6.218   9.800
 2515SOL    HW2 9320  14.362   6.320   9.824
 2516SOL     OW 9321  14.166   7.481   9.826
 2516SOL    HW1 9322  14.147   7.411   9.762
 2516SOL    HW2 9323  14.081   7.520   9.844
 2517SOL     OW 9324   9.954  14.208   5.981
 2517SOL    HW1 9325   9.963  14.118   6.012
 2517SOL    HW2 9326   9.861  14.228   5.991
 2518SOL     OW 9327  14.758   2.793  11.739
 2518SOL    HW1 9328  14.812   2.844  11.678
 2518SOL    HW2 9329  14.773   2.702  11.713
 2519SOL     OW 9330   5.565   0.302   5.723
 2519SOL    HW1 9331   5.571   0.208   5.737
 2519SOL    HW2 9332   5.654   0.330   5.704
 2520SOL     OW 9333   2.900   4.966   0.005
 2520SOL    HW1 9334   2.982   4.966  14.834
 2520SOL    HW2 9335   2.867   4.876  14.874
 2521SOL     OW 9336   3.188   3.565   5.855
 2521SOL    HW1 9337   3.125   3.595   5.790
 2521SOL    HW2 9338   3.147   3.584   5.939
 2522SOL     OW 9339  13.743   6.950   7.718
 2522SOL    HW1 9340  13.812   7.017   7.718
 2522SOL    HW2 9341  13.768   6.889   7.648
 2523SOL     OW 9342   3.870  12.608   4.948
 2523SOL    HW1 9343   3.908  12.688   4.912
 2523SOL    HW2 9344   3.804  12.582   4.884
 2524SOL     OW 9345   8.377  12.596  13.727
 2524SOL    HW1 9346   8.457  12.544  13.717
 2524SOL    HW2 9347   8.393  12.675  13.675
 2525SOL     OW 9348  11.832   7.808  14.168
 2525SOL    HW1 9349  11.749   7.795  14.214
 2525SOL    HW2 9350  11.899   7.799  14.236
 2526SOL     OW 9351   7.284   9.832  13.481
 2526SOL    HW1 9352   7.278   9.878  13.565
 2526SOL    HW2 9353   7.218   9.875  13.426
 2527SOL     OW 9354   4.459   0.548   7.763
 2527SOL    HW1 9355   4.545   0.507   7.764
 2527SOL    HW2 9356   4.398   0.476   7.750
 2528SOL     OW 9357   7.666   3.482   8.422
 2528SOL    HW1 9358   7.750   3.510   8.384
 2528SOL    HW2 9359   7.607   3.555   8.405
 2529SOL     OW 9360   9.535   9.001   2.131
 2529SOL    HW1 9361   9.563   9.055   2.057
 2529SOL    HW2 9362   9.440   9.012   2.135
 2530SOL     OW 9363   3.489   4.644   0.488
 2530SOL    HW1 9364   3.417   4.623   0.547
 2530SOL    HW2 9365   3.502   4.738   0.498
 2531SOL     OW 9366   4.655   6.387  13.307
 2531SOL    HW1 9367   4.645   6.389  13.212
 2531SOL    HW2 9368   4.712   6.461  13.327
 2532SOL     OW 9369   2.621  11.568   9.639
 2532SOL    HW1 9370   2.696  11.584   9.582
 2532SOL    HW2 9371   2.567  11.506   9.590
 2533SOL     OW 9372   9.059   6.985  10.807
 2533SOL    HW1 9373   9.019   6.916  10.754
 2533SOL    HW2 9374   9.012   6.981  10.890
 2534SOL     OW 9375   9.104   3.245   2.170
 2534SOL    HW1 9376   9.094   3.272   2.262
 2534SOL    HW2 9377   9.107   3.327   2.121
 2535SOL     OW 9378   9.377   0.811  11.237
 2535SOL    HW1 9379   9.347   0.740  11.181
 2535SOL    HW2 9380   9.427   0.769  11.307
 2536SOL     OW 9381   6.128   7.704   7.775
 2536SOL    HW1 9382   6.158   7.629   7.827
 2536SOL    HW2 9383   6.033   7.706   7.788
 2537SOL     OW 9384   7.870   0.385  12.735
 2537SOL    HW1 9385   7.945   0.391  12.676
 2537SOL    HW2 9386   7.895   0.317  12.798
 2538SOL     OW 9387   8.776  10.631  12.812
 2538SOL    HW1 9388   8.801  10.683  12.889
 2538SOL    HW2 9389   8.707  10.683  12.770
 2539SOL     OW 9390   4.432   3.033  10.691
 2539SOL    HW1 9391   4.507   3.089  10.711
 2539SOL    HW2 9392   4.429   2.971  10.765
 2540SOL     OW 9393  11.412   5.949   8.203
 2540SOL    HW1 9394  11.446   5.872   8.156
 2540SOL    HW2 9395  11.317   5.943   8.194
 2541SOL     OW 9396   7.892   3.884   4.669
 2541SOL    HW1 9397   7.819   3.894   4.607
 2541SOL    HW2 9398   7.861   3.820   4.732
 2542SOL     OW 9399   3.114   4.585   0.516
 2542SOL    HW1 9400   3.061   4.515   0.555
 2542SOL    HW2 9401   3.191   4.591   0.573
 2543SOL     OW 9402  13.193   0.514   5.687
 2543SOL    HW1 9403  13.110   0.477   5.717
 2543SOL    HW2 9404  13.225   0.453   5.621
 2544SOL     OW 9405  12.528   4.079  10.400
 2544SOL    HW1 9406  12.567   4.119  10.477
 2544SOL    HW2 9407  12.485   4.152  10.355
 2545SOL     OW 9408   5.140   9.633   5.069
 2545SOL    HW1 9409   5.056   9.632   5.114
 2545SOL    HW2 9410   5.205   9.617   5.139
 2546SOL     OW 9411  12.152  13.054   0.764
 2546SOL    HW1 9412  12.082  13.117   0.783
 2546SOL    HW2 9413  12.208  13.056   0.842
 2547SOL     OW 9414   2.712   2.474  11.082
 2547SOL    HW1 9415   2.737   2.397  11.031
 2547SOL    HW2 9416   2.733   2.548  11.025
 2548SOL     OW 9417   6.250   7.226   4.319
 2548SOL    HW1 9418   6.342   7.251   4.308
 2548SOL    HW2 9419   6.252   7.151   4.378
 2549SOL     OW 9420   8.157   7.198  11.529
 2549SOL    HW1 9421   8.193   7.129  11.474
 2549SOL    HW2 9422   8.185   7.175  11.618
 2550SOL     OW 9423   5.872   5.320   6.006
 2550SOL    HW1 9424   5.778   5.308   6.016
 2550SOL    HW2 9425   5.895   5.266   5.930
 2551SOL     OW 9426   3.687   7.292  13.933
 2551SOL    HW1 9427   3.778   7.271  13.955
 2551SOL    HW2 9428   3.640   7.209  13.941
 2552SOL     OW 9429  12.548   4.092   4.327
 2552SOL    HW1 9430  12.540   4.095   4.422
 2552SOL    HW2 9431  12.500   4.013   4.301
 2553SOL     OW 9432   0.434  14.098  14.001
 2553SOL    HW1 9433   0.396  14.134  14.081
 2553SOL    HW2 9434   0.446  14.173  13.944
 2554SOL     OW 9435  14.859   9.046   0.837
 2554SOL    HW1 9436  14.821   9.103   0.770
 2554SOL    HW2 9437  14.834   8.957   0.810
 2555SOL     OW 9438   1.924  11.428  10.456
 2555SOL    HW1 9439   1.862  11.491  10.419
 2555SOL    HW2 9440   1.876  11.345  10.457
 2556SOL     OW 9441   8.449   1.638   2.578
 2556SOL    HW1 9442   8.535   1.645   2.620
 2556SOL    HW2 9443   8.417   1.552   2.605
 2557SOL     OW 9444   6.716  13.326   5.531
 2557SOL    HW1 9445   6.676  13.274   5.600
 2557SOL    HW2 9446   6.708  13.417   5.561
 2558SOL     OW 9447  13.756   3.621   6.675
 2558SOL    HW1 9448  13.788   3.681   6.607
 2558SOL    HW2 9449  13.805   3.540   6.660
 2559SOL     OW 9450  11.964   8.449   6.592
 2559SOL    HW1 9451  12.056   8.426   6.606
 2559SOL    HW2 9452  11.966   8.522   6.530
 2560SOL     OW 9453   3.574  13.563  12.078
 2560SOL    HW1 9454   3.566  13.497  12.147
 2560SOL    HW2 9455   3.513  13.535  12.010
 2561SOL     OW 9456   4.309  13.586   7.196
 2561SOL    HW1 9457   4.261  13.666   7.172
 2561SOL    HW2 9458   4.268  13.558   7.278
 2562SOL     OW 9459   1.422   0.538   1.418
 2562SOL    HW1 9460   1.409   0.536   1.324
 2562SOL    HW2 9461   1.467   0.621   1.434
 2563SOL     OW 9462   8.025   9.324   6.713
 2563SOL    HW1 9463   8.120   9.326   6.730
 2563SOL    HW2 9464   8.010   9.238   6.674
 2564SOL     OW 9465  14.661   5.978   2.768
 2564SOL    HW1 9466  14.702   5.929   2.839
 2564SOL    HW2 9467  14.573   5.999   2.800
 2565SOL     OW 9468   6.969   2.127   9.648
 2565SOL    HW1 9469   6.943   2.036   9.634
 2565SOL    HW2 9470   6.996   2.130   9.740
 2566SOL     OW 9471   0.660  12.009   9.596
 2566SOL    HW1 9472   0.622  11.934   9.642
 2566SOL    HW2 9473   0.606  12.018   9.517
 2567SOL     OW 9474  13.411   7.906  11.781
 2567SOL    HW1 9475  13.393   7.854  11.859
 2567SOL    HW2 9476  13.472   7.974  11.810
 2568SOL     OW 9477   7.371  14.044   8.022
 2568SOL    HW1 9478   7.452  13.995   8.003
 2568SOL    HW2 9479   7.310  13.976   8.052
 2569SOL     OW 9480   0.263   2.449   8.541
 2569SOL    HW1 9481   0.358   2.444   8.554
 2569SOL    HW2 9482   0.252   2.467   8.448
 2570SOL     OW 9483  13.715   1.510   5.353
 2570SOL    HW1 9484  13.723   1.539   5.262
 2570SOL    HW2 9485  13.803   1.486   5.379
 2571SOL     OW 9486   2.152  12.442   1.076
 2571SOL    HW1 9487   2.219  12.509   1.088
 2571SOL    HW2 9488   2.095  12.477   1.007
 2572SOL     OW 9489   2.553  13.042   2.638
 2572SOL    HW1 9490   2.632  13.007   2.681
 2572SOL    HW2 9491   2.565  13.137   2.641
 2573SOL     OW 9492   9.288   6.050   3.141
 2573SOL    HW1 9493   9.372   6.085   3.170
 2573SOL    HW2 9494   9.285   6.066   3.047
 2574SOL     OW 9495   3.422  10.609  14.179
 2574SOL    HW1 9496   3.461  10.582  14.262
 2574SOL    HW2 9497   3.384  10.529  14.143
 2575SOL     OW 9498   5.663   3.201  11.912
 2575SOL    HW1 9499   5.579   3.192  11.956
 2575SOL    HW2 9500   5.720   3.243  11.976
 2576SOL     OW 9501   2.300  14.242   1.906
 2576SOL    HW1 9502   2.261  14.313   1.856
 2576SOL    HW2 9503   2.287  14.267   1.998
 2577SOL     OW 9504   9.560   0.603   2.695
 2577SOL    HW1 9505   9.512   0.591   2.612
 2577SOL    HW2 9506   9.631   0.663   2.673
 2578SOL     OW 9507   8.096  11.785   5.303
 2578SOL    HW1 9508   8.124  11.747   5.386
 2578SOL    HW2 9509   8.051  11.714   5.258
 2579SOL     OW 9510   8.276   3.533  14.675
 2579SOL    HW1 9511   8.300   3.604  14.616
 2579SOL    HW2 9512   8.313   3.559  14.760
 2580SOL     OW 9513   6.615   1.444   5.589
 2580SOL    HW1 9514   6.528   1.470   5.556
 2580SOL    HW2 9515   6.676   1.487   5.529
 2581SOL     OW 9516  11.799   1.856   8.051
 2581SOL    HW1 9517  11.778   1.791   7.983
 2581SOL    HW2 9518  11.879   1.898   8.019
 2582SOL     OW 9519   1.778  13.262   9.838
 2582SOL    HW1 9520   1.851  13.205   9.812
 2582SOL    HW2 9521   1.783  13.336   9.777
 2583SOL     OW 9522   9.643  12.043   7.637
 2583SOL    HW1 9523   9.723  12.009   7.597
 2583SOL    HW2 9524   9.605  12.100   7.569
 2584SOL     OW 9525   5.436   2.264  12.203
 2584SOL    HW1 9526   5.403   2.248  12.115
 2584SOL    HW2 9527   5.518   2.311  12.190
 2585SOL     OW 9528   4.798   6.058  13.108
 2585SOL    HW1 9529   4.727   6.079  13.047
 2585SOL    HW2 9530   4.763   5.988  13.163
 2586SOL     OW 9531  13.857  10.974   2.268
 2586SOL    HW1 9532  13.854  11.002   2.176
 2586SOL    HW2 9533  13.790  11.027   2.311
 2587SOL     OW 9534   2.459  13.656   2.004
 2587SOL    HW1 9535   2.368  13.671   1.975
 2587SOL    HW2 9536   2.453  13.652   2.099
 2588SOL     OW 9537   7.202   4.034  10.205
 2588SOL    HW1 9538   7.204   4.124  10.171
 2588SOL    HW2 9539   7.289   4.000  10.184
 2589SOL     OW 9540  11.595   4.079   7.012
 2589SOL    HW1 9541  11.578   4.149   7.076
 2589SOL    HW2 9542  11.522   4.085   6.951
 2590SOL     OW 9543   1.020  10.399   8.522
 2590SOL    HW1 9544   1.000  10.401   8.615
 2590SOL    HW2 9545   1.115  10.408   8.518
 2591SOL     OW 9546   3.487   5.377   0.672
 2591SOL    HW1 9547   3.448   5.299   0.710
 2591SOL    HW2 9548   3.461   5.448   0.731
 2592SOL     OW 9549   8.559   0.533  11.303
 2592SOL    HW1 9550   8.600   0.525  11.217
 2592SOL    HW2 9551   8.475   0.577  11.285
 2593SOL     OW 9552   1.414   1.394   0.069
 2593SOL    HW1 9553   1.400   1.321   0.008
 2593SOL    HW2 9554   1.509   1.402   0.074
 2594SOL     OW 9555  11.572   8.031  10.394
 2594SOL    HW1 9556  11.484   8.043  10.359
 2594SOL    HW2 9557  11.559   7.977  10.472
 2595SOL     OW 9558  12.194  14.473   3.018
 2595SOL    HW1 9559  12.183  14.400   3.078
 2595SOL    HW2 9560  12.268  14.448   2.963
 2596SOL     OW 9561   9.997  11.550   4.873
 2596SOL    HW1 9562  10.000  11.526   4.966
 2596SOL    HW2 9563   9.957  11.637   4.871
 2597SOL     OW 9564  13.111   8.678   1.466
 2597SOL    HW1 9565  13.151   8.765   1.459
 2597SOL    HW2 9566  13.096   8.651   1.375
 2598SOL     OW 9567   7.863   3.097  14.602
 2598SOL    HW1 9568   7.825   3.043  14.533
 2598SOL    HW2 9569   7.799   3.167  14.617
 2599SOL     OW 9570   9.320  13.146   1.149
 2599SOL    HW1 9571   9.298  13.067   1.199
 2599SOL    HW2 9572   9.241  13.199   1.152
 2600SOL     OW 9573   3.979   4.289  12.966
 2600SOL    HW1 9574   4.044   4.266  12.899
 2600SOL    HW2 9575   3.910   4.336  12.918
 2601SOL     OW 9576   0.247   1.757   2.716
 2601SOL    HW1 9577   0.198   1.835   2.742
 2601SOL    HW2 9578   0.179   1.692   2.697
 2602SOL     OW 9579   5.883  14.645   2.499
 2602SOL    HW1 9580   5.812  14.593   2.537
 2602SOL    HW2 9581   5.892  14.612   2.410
 2603SOL     OW 9582   2.686   7.669   4.999
 2603SOL    HW1 9583   2.684   7.595   5.060
 2603SOL    HW2 9584   2.666   7.631   4.914
 2604SOL     OW 9585   4.218   6.018  14.322
 2604SOL    HW1 9586   4.247   6.106  14.296
 2604SOL    HW2 9587   4.131   6.010  14.283
 2605SOL     OW 9588  10.645   0.271   2.417
 2605SOL    HW1 9589  10.554   0.280   2.389
 2605SOL    HW2 9590  10.674   0.360   2.437
 2606SOL     OW 9591  10.366   8.065   5.321
 2606SOL    HW1 9592  10.390   8.148   5.281
 2606SOL    HW2 9593  10.308   8.089   5.393
 2607SOL     OW 9594   5.250   2.535   6.462
 2607SOL    HW1 9595   5.265   2.442   6.478
 2607SOL    HW2 9596   5.279   2.577   6.543
 2608SOL     OW 9597  13.634   0.230  13.473
 2608SOL    HW1 9598  13.622   0.138  13.497
 2608SOL    HW2 9599  13.620   0.232  13.379
 2609SOL     OW 9600   7.278  12.096   0.229
 2609SOL    HW1 9601   7.355  12.039   0.240
 2609SOL    HW2 9602   7.235  12.062   0.150
 2610SOL     OW 9603   8.293  11.051  14.366
 2610SOL    HW1 9604   8.325  10.964  14.387
 2610SOL    HW2 9605   8.221  11.037  14.304
 2611SOL     OW 9606   8.664   2.511  12.074
 2611SOL    HW1 9607   8.681   2.473  11.987
 2611SOL    HW2 9608   8.695   2.601  12.067
 2612SOL     OW 9609   3.428   6.819   6.692
 2612SOL    HW1 9610   3.440   6.887   6.758
 2612SOL    HW2 9611   3.459   6.738   6.733
 2613SOL     OW 9612   6.560   8.052   3.560
 2613SOL    HW1 9613   6.547   7.993   3.634
 2613SOL    HW2 9614   6.627   8.010   3.506
 2614SOL     OW 9615   1.445  11.102   2.672
 2614SOL    HW1 9616   1.503  11.166   2.632
 2614SOL    HW2 9617   1.425  11.138   2.759
 2615SOL     OW 9618   9.324   2.146   5.249
 2615SOL    HW1 9619   9.381   2.070   5.262
 2615SOL    HW2 9620   9.378   2.221   5.275
 2616SOL     OW 9621   5.942  11.661   3.240
 2616SOL    HW1 9622   5.980  11.579   3.272
 2616SOL    HW2 9623   5.953  11.723   3.313
 2617SOL     OW 9624  12.454   5.164   2.599
 2617SOL    HW1 9625  12.386   5.230   2.606
 2617SOL    HW2 9626  12.408   5.080   2.605
 2618SOL     OW 9627   3.951   3.785  12.381
 2618SOL    HW1 9628   3.897   3.738  12.446
 2618SOL    HW2 9629   3.967   3.870  12.421
 2619SOL     OW 9630  13.213   7.928   8.536
 2619SOL    HW1 9631  13.199   7.836   8.555
 2619SOL    HW2 9632  13.165   7.943   8.455
 2620SOL     OW 9633   0.350   8.542   2.525
 2620SOL    HW1 9634   0.394   8.625   2.507
 2620SOL    HW2 9635   0.419   8.485   2.561
 2621SOL     OW 9636  14.824  12.532   5.961
 2621SOL    HW1 9637  14.874  12.472   6.018
 2621SOL    HW2 9638  14.749  12.480   5.931
 2622SOL     OW 9639   3.509   4.181   1.319
 2622SOL    HW1 9640   3.589   4.187   1.370
 2622SOL    HW2 9641   3.447   4.135   1.376
 2623SOL     OW 9642  11.228  11.483   6.773
 2623SOL    HW1 9643  11.287  11.433   6.717
 2623SOL    HW2 9644  11.250  11.574   6.755
 2624SOL     OW 9645   3.880   5.907   2.885
 2624SOL    HW1 9646   3.816   5.978   2.879
 2624SOL    HW2 9647   3.963   5.951   2.902
 2625SOL     OW 9648   5.901  12.135   5.138
 2625SOL    HW1 9649   5.981  12.171   5.100
 2625SOL    HW2 9650   5.881  12.058   5.084
 2626SOL     OW 9651   2.836   9.756   0.054
 2626SOL    HW1 9652   2.837   9.670   0.097
 2626SOL    HW2 9653   2.756   9.798   0.084
 2627SOL     OW 9654  12.747   5.477  12.908
 2627SOL    HW1 9655  12.725   5.525  12.988
 2627SOL    HW2 9656  12.785   5.544  12.851
 2628SOL     OW 9657   6.097  10.597   8.856
 2628SOL    HW1 9658   6.045  10.633   8.785
 2628SOL    HW2 9659   6.072  10.649   8.933
 2629SOL     OW 9660   4.085  12.645  11.025
 2629SOL    HW1 9661   4.046  12.576  11.079
 2629SOL    HW2 9662   4.084  12.722  11.082
 2630SOL     OW 9663   8.410   8.583   2.594
 2630SOL    HW1 9664   8.341   8.522   2.570
 2630SOL    HW2 9665   8.366   8.667   2.604
 2631SOL     OW 9666  13.460  14.052   7.668
 2631SOL    HW1 9667  13.410  14.068   7.588
 2631SOL    HW2 9668  13.533  14.114   7.664
 2632SOL     OW 9669   6.017  12.264   3.401
 2632SOL    HW1 9670   6.096  12.310   3.372
 2632SOL    HW2 9671   5.945  12.322   3.378
 2633SOL     OW 9672  10.872   1.588  12.753
 2633SOL    HW1 9673  10.883   1.494  12.735
 2633SOL    HW2 9674  10.860   1.628  12.667
 2634SOL     OW 9675  10.129  11.457   4.303
 2634SOL    HW1 9676  10.050  11.404   4.308
 2634SOL    HW2 9677  10.193  11.411   4.357
 2635SOL     OW 9678   1.059   5.916   8.542
 2635SOL    HW1 9679   1.134   5.872   8.583
 2635SOL    HW2 9680   1.060   5.887   8.451
 2636SOL     OW 9681  14.678   6.624   0.553
 2636SOL    HW1 9682  14.695   6.546   0.605
 2636SOL    HW2 9683  14.583   6.637   0.559
 2637SOL     OW 9684   2.511  12.718   5.995
 2637SOL    HW1 9685   2.481  12.633   6.028
 2637SOL    HW2 9686   2.572  12.749   6.061
 2638SOL     OW 9687   0.541   7.373   0.210
 2638SOL    HW1 9688   0.600   7.342   0.279
 2638SOL    HW2 9689   0.456   7.379   0.253
 2639SOL     OW 9690   6.820   1.304   9.658
 2639SOL    HW1 9691   6.908   1.310   9.621
 2639SOL    HW2 9692   6.776   1.238   9.605
 2640SOL     OW 9693   3.988   3.253   2.828
 2640SOL    HW1 9694   3.958   3.315   2.894
 2640SOL    HW2 9695   3.986   3.303   2.746
 2641SOL     OW 9696   6.001   7.905   5.558
 2641SOL    HW1 9697   5.928   7.872   5.611
 2641SOL    HW2 9698   6.079   7.883   5.609
 2642SOL     OW 9699   3.132  14.420   1.168
 2642SOL    HW1 9700   3.191  14.484   1.209
 2642SOL    HW2 9701   3.148  14.339   1.217
 2643SOL     OW 9702   4.314  13.843   4.639
 2643SOL    HW1 9703   4.325  13.894   4.719
 2643SOL    HW2 9704   4.381  13.876   4.579
 2644SOL     OW 9705   1.446  12.856   4.011
 2644SOL    HW1 9706   1.527  12.897   3.982
 2644SOL    HW2 9707   1.407  12.818   3.932
 2645SOL     OW 9708   1.523   3.405  11.607
 2645SOL    HW1 9709   1.519   3.320  11.650
 2645SOL    HW2 9710   1.601   3.401  11.552
 2646SOL     OW 9711   4.689  14.508   4.937
 2646SOL    HW1 9712   4.755  14.478   4.999
 2646SOL    HW2 9713   4.725  14.485   4.851
 2647SOL     OW 9714   7.523  10.284  13.302
 2647SOL    HW1 9715   7.550  10.351  13.365
 2647SOL    HW2 9716   7.433  10.263  13.328
 2648SOL     OW 9717   3.294   7.376  10.187
 2648SOL    HW1 9718   3.209   7.332  10.180
 2648SOL    HW2 9719   3.285   7.431  10.265
 2649SOL     OW 9720   2.738   5.486  13.221
 2649SOL    HW1 9721   2.713   5.404  13.264
 2649SOL    HW2 9722   2.663   5.544  13.233
 2650SOL     OW 9723   3.532   6.201  11.042
 2650SOL    HW1 9724   3.614   6.199  10.993
 2650SOL    HW2 9725   3.539   6.281  11.095
 2651SOL     OW 9726  11.356  14.096   1.242
 2651SOL    HW1 9727  11.440  14.050   1.237
 2651SOL    HW2 9728  11.378  14.183   1.274
 2652SOL     OW 9729  14.694  13.868  14.006
 2652SOL    HW1 9730  14.635  13.801  13.971
 2652SOL    HW2 9731  14.682  13.863  14.101
 2653SOL     OW 9732  14.741   6.740   3.011
 2653SOL    HW1 9733  14.828   6.755   2.975
 2653SOL    HW2 9734  14.702   6.827   3.018
 2654SOL     OW 9735   8.759   8.454  11.471
 2654SOL    HW1 9736   8.725   8.385  11.414
 2654SOL    HW2 9737   8.848   8.470  11.438
 2655SOL     OW 9738   2.426   7.624   4.213
 2655SOL    HW1 9739   2.436   7.666   4.128
 2655SOL    HW2 9740   2.506   7.572   4.223
 2656SOL     OW 9741  13.198   5.901  11.572
 2656SOL    HW1 9742  13.187   5.974  11.510
 2656SOL    HW2 9743  13.112   5.858  11.571
 2657SOL     OW 9744  13.620   4.384   2.321
 2657SOL    HW1 9745  13.644   4.389   2.413
 2657SOL    HW2 9746  13.528   4.412   2.318
 2658SOL     OW 9747  10.865  10.154  13.532
 2658SOL    HW1 9748  10.947  10.146  13.483
 2658SOL    HW2 9749  10.848  10.249  13.533
 2659SOL     OW 9750   2.774   4.750   5.515
 2659SOL    HW1 9751   2.681   4.762   5.535
 2659SOL    HW2 9752   2.816   4.741   5.601
 2660SOL     OW 9753   9.587   5.456   0.100
 2660SOL    HW1 9754   9.656   5.432   0.162
 2660SOL    HW2 9755   9.554   5.373   0.067
 2661SOL     OW 9756   0.142  11.411  12.676
 2661SOL    HW1 9757   0.065  11.359  12.699
 2661SOL    HW2 9758   0.115  11.462  12.599
 2662SOL     OW 9759   6.111  14.041  14.624
 2662SOL    HW1 9760   6.168  14.064  14.698
 2662SOL    HW2 9761   6.045  14.110  14.623
 2663SOL     OW 9762  11.220  10.358   0.454
 2663SOL    HW1 9763  11.276  10.430   0.481
 2663SOL    HW2 9764  11.160  10.344   0.528
 2664SOL     OW 9765  10.091  12.573  14.742
 2664SOL    HW1 9766  10.114  12.620  14.822
 2664SOL    HW2 9767  10.149  12.497  14.741
 2665SOL     OW 9768   2.976  12.090   5.819
 2665SOL    HW1 9769   2.962  12.064   5.728
 2665SOL    HW2 9770   3.071  12.095   5.829
 2666SOL     OW 9771  11.504  11.612   8.489
 2666SOL    HW1 9772  11.493  11.658   8.572
 2666SOL    HW2 9773  11.595  11.626   8.464
 2667SOL     OW 9774  12.684  14.487   4.439
 2667SOL    HW1 9775  12.611  14.455   4.491
 2667SOL    HW2 9776  12.657  14.573   4.408
 2668SOL     OW 9777   4.992   7.836  12.570
 2668SOL    HW1 9778   5.085   7.844  12.548
 2668SOL    HW2 9779   4.966   7.751  12.534
 2669SOL     OW 9780   1.564  12.801  11.741
 2669SOL    HW1 9781   1.494  12.775  11.680
 2669SOL    HW2 9782   1.523  12.802  11.827
 2670SOL     OW 9783   1.500  11.878  12.891
 2670SOL    HW1 9784   1.571  11.942  12.883
 2670SOL    HW2 9785   1.424  11.931  12.914
 2671SOL     OW 9786   2.218   6.619   1.646
 2671SOL    HW1 9787   2.224   6.562   1.722
 2671SOL    HW2 9788   2.159   6.689   1.674
 2672SOL     OW 9789  12.202   4.439   7.798
 2672SOL    HW1 9790  12.155   4.384   7.861
 2672SOL    HW2 9791  12.142   4.510   7.778
 2673SOL     OW 9792   5.631   2.455  12.410
 2673SOL    HW1 9793   5.568   2.469  12.480
 2673SOL    HW2 9794   5.665   2.542  12.389
 2674SOL     OW 9795  12.276  11.100   2.488
 2674SOL    HW1 9796  12.304  11.185   2.455
 2674SOL    HW2 9797  12.339  11.038   2.450
 2675SOL     OW 9798  10.912  13.441   7.098
 2675SOL    HW1 9799  10.822  13.432   7.064
 2675SOL    HW2 9800  10.924  13.535   7.109
 2676SOL     OW 9801  13.446  12.500  10.605
 2676SOL    HW1 9802  13.463  12.524  10.696
 2676SOL    HW2 9803  13.386  12.426  10.611
 2677SOL     OW 9804   4.570  14.829  12.948
 2677SOL    HW1 9805   4.579   0.001  12.866
 2677SOL    HW2 9806   4.546   0.017  13.013
 2678SOL     OW 9807   6.368   5.860   9.888
 2678SOL    HW1 9808   6.378   5.765   9.887
 2678SOL    HW2 9809   6.278   5.875   9.917
 2679SOL     OW 9810  13.446   4.042   7.573
 2679SOL    HW1 9811  13.375   3.980   7.565
 2679SOL    HW2 9812  13.405   4.128   7.557
 2680SOL     OW 9813  14.081  14.339  13.742
 2680SOL    HW1 9814  14.134  14.418  13.753
 2680SOL    HW2 9815  14.089  14.292  13.825
 2681SOL     OW 9816   8.950   1.612   3.584
 2681SOL    HW1 9817   8.946   1.707   3.593
 2681SOL    HW2 9818   9.037   1.588   3.618
 2682SOL     OW 9819   3.232  12.980   0.137
 2682SOL    HW1 9820   3.168  12.925   0.091
 2682SOL    HW2 9821   3.201  13.070   0.124
 2683SOL     OW 9822  12.361   2.204   4.535
 2683SOL    HW1 9823  12.317   2.153   4.604
 2683SOL    HW2 9824  12.441   2.154   4.516
 2684SOL     OW 9825   8.760  12.111   9.436
 2684SOL    HW1 9826   8.827  12.177   9.421
 2684SOL    HW2 9827   8.801  12.048   9.496
 2685SOL     OW 9828   8.120   0.361   6.457
 2685SOL    HW1 9829   8.046   0.422   6.467
 2685SOL    HW2 9830   8.126   0.348   6.362
 2686SOL     OW 9831   5.068  12.958  14.289
 2686SOL    HW1 9832   5.067  12.923  14.378
 2686SOL    HW2 9833   5.126  13.034  14.294
 2687SOL     OW 9834   1.489  11.158   5.982
 2687SOL    HW1 9835   1.531  11.236   5.945
 2687SOL    HW2 9836   1.490  11.174   6.077
 2688SOL     OW 9837   9.101   2.261  13.671
 2688SOL    HW1 9838   9.094   2.348  13.631
 2688SOL    HW2 9839   9.129   2.278  13.761
 2689SOL     OW 9840   5.399   2.719   1.186
 2689SOL    HW1 9841   5.381   2.795   1.131
 2689SOL    HW2 9842   5.437   2.755   1.266
 2690SOL     OW 9843   3.773  10.151   6.671
 2690SOL    HW1 9844   3.861  10.129   6.641
 2690SOL    HW2 9845   3.754  10.086   6.739
 2691SOL     OW 9846   2.705   7.307   6.782
 2691SOL    HW1 9847   2.721   7.343   6.695
 2691SOL    HW2 9848   2.754   7.225   6.783
 2692SOL     OW 9849  13.933   5.039   1.835
 2692SOL    HW1 9850  13.880   4.960   1.848
 2692SOL    HW2 9851  13.902   5.100   1.901
 2693SOL     OW 9852   0.049   1.759   6.044
 2693SOL    HW1 9853   0.089   1.673   6.042
 2693SOL    HW2 9854  14.832   1.742   6.048
 2694SOL     OW 9855   7.098   9.151   3.899
 2694SOL    HW1 9856   7.029   9.104   3.946
 2694SOL    HW2 9857   7.173   9.092   3.900
 2695SOL     OW 9858   6.324  14.308   6.742
 2695SOL    HW1 9859   6.293  14.399   6.733
 2695SOL    HW2 9860   6.401  14.304   6.686
 2696SOL     OW 9861  13.126   3.018  12.675
 2696SOL    HW1 9862  13.131   2.953  12.605
 2696SOL    HW2 9863  13.191   2.989  12.740
 2697SOL     OW 9864   3.414  12.530  10.179
 2697SOL    HW1 9865   3.458  12.576  10.250
 2697SOL    HW2 9866   3.448  12.571  10.099
 2698SOL     OW 9867   3.655   3.937   1.347
 2698SOL    HW1 9868   3.702   4.015   1.375
 2698SOL    HW2 9869   3.708   3.864   1.379
 2699SOL     OW 9870   9.648  12.005   5.842
 2699SOL    HW1 9871   9.736  11.996   5.807
 2699SOL    HW2 9872   9.639  12.097   5.864
 2700SOL     OW 9873  12.447   0.712   3.489
 2700SOL    HW1 9874  12.496   0.630   3.481
 2700SOL    HW2 9875  12.513   0.780   3.479
 2701SOL     OW 9876   1.506   4.391  10.615
 2701SOL    HW1 9877   1.564   4.361  10.685
 2701SOL    HW2 9878   1.557   4.380  10.535
 2702SOL     OW 9879   6.792   5.270   4.062
 2702SOL    HW1 9880   6.762   5.290   3.973
 2702SOL    HW2 9881   6.732   5.202   4.092
 2703SOL     OW 9882   3.118  14.337  13.368
 2703SOL    HW1 9883   3.204  14.298  13.381
 2703SOL    HW2 9884   3.114  14.408  13.432
 2704SOL     OW 9885   5.792   2.754   8.839
 2704SOL    HW1 9886   5.760   2.677   8.885
 2704SOL    HW2 9887   5.805   2.725   8.749
 2705SOL     OW 9888   4.793   4.565   6.811
 2705SOL    HW1 9889   4.709   4.521   6.805
 2705SOL    HW2 9890   4.834   4.528   6.889
 2706SOL     OW 9891  14.530  14.264  11.204
 2706SOL    HW1 9892  14.604  14.286  11.148
 2706SOL    HW2 9893  14.539  14.171  11.222
 2707SOL     OW 9894   6.953   3.007   1.709
 2707SOL    HW1 9895   6.961   3.074   1.777
 2707SOL    HW2 9896   7.034   2.956   1.716
 2708SOL     OW 9897   7.187  11.776  13.975
 2708SOL    HW1 9898   7.247  11.839  13.935
 2708SOL    HW2 9899   7.156  11.820  14.054
 2709SOL     OW 9900  11.139   1.147   1.746
 2709SOL    HW1 9901  11.088   1.072   1.776
 2709SOL    HW2 9902  11.219   1.109   1.710
 2710SOL     OW 9903   4.035   4.072   1.208
 2710SOL    HW1 9904   4.021   4.031   1.123
 2710SOL    HW2 9905   4.003   4.162   1.198
 2711SOL     OW 9906   3.084  13.922   3.517
 2711SOL    HW1 9907   3.045  13.853   3.462
 2711SOL    HW2 9908   3.161  13.881   3.555
 2712SOL     OW 9909   9.267  10.552   5.980
 2712SOL    HW1 9910   9.237  10.613   5.913
 2712SOL    HW2 9911   9.193  10.543   6.040
 2713SOL     OW 9912   5.657   8.755   0.780
 2713SOL    HW1 9913   5.752   8.754   0.793
 2713SOL    HW2 9914   5.632   8.847   0.793
 2714SOL     OW 9915   2.082   1.786   6.043
 2714SOL    HW1 9916   1.996   1.775   6.003
 2714SOL    HW2 9917   2.110   1.697   6.065
 2715SOL     OW 9918   0.871   6.114   9.915
 2715SOL    HW1 9919   0.926   6.069   9.979
 2715SOL    HW2 9920   0.932   6.162   9.860
 2716SOL     OW 9921   5.006  10.535   3.613
 2716SOL    HW1 9922   5.049  10.604   3.563
 2716SOL    HW2 9923   5.077  10.491   3.659
 2717SOL     OW 9924  11.078   4.767   0.205
 2717SOL    HW1 9925  11.053   4.759   0.113
 2717SOL    HW2 9926  11.019   4.835   0.239
 2718SOL     OW 9927  10.415   6.798   3.381
 2718SOL    HW1 9928  10.474   6.845   3.439
 2718SOL    HW2 9929  10.328   6.826   3.407
 2719SOL     OW 9930  13.149   6.422  11.423
 2719SOL    HW1 9931  13.244   6.429  11.429
 2719SOL    HW2 9932  13.117   6.449  11.509
 2720SOL     OW 9933   0.927  10.787  13.704
 2720SOL    HW1 9934   0.927  10.831  13.789
 2720SOL    HW2 9935   0.875  10.708  13.719
 2721SOL     OW 9936   8.145   5.638   9.827
 2721SOL    HW1 9937   8.134   5.719   9.779
 2721SOL    HW2 9938   8.064   5.589   9.811
 2722SOL     OW 9939   4.115   5.313   3.183
 2722SOL    HW1 9940   4.023   5.293   3.198
 2722SOL    HW2 9941   4.134   5.386   3.242
 2723SOL     OW 9942   9.786   4.896   9.311
 2723SOL    HW1 9943   9.739   4.950   9.248
 2723SOL    HW2 9944   9.851   4.954   9.350
 2724SOL     OW 9945  12.771   7.687   9.443
 2724SOL    HW1 9946  12.692   7.738   9.425
 2724SOL    HW2 9947  12.785   7.696   9.537
 2725SOL     OW 9948   0.492   5.513   0.041
 2725SOL    HW1 9949   0.454   5.539   0.125
 2725SOL    HW2 9950   0.570   5.567   0.032
 2726SOL     OW 9951   5.445   2.794  12.640
 2726SOL    HW1 9952   5.452   2.702  12.616
 2726SOL    HW2 9953   5.515   2.808  12.704
 2727SOL     OW 9954   5.474  14.832   7.062
 2727SOL    HW1 9955   5.455  14.738   7.051
 2727SOL    HW2 9956   5.561  14.843   7.023
 2728SOL     OW 9957  12.134  14.282   6.526
 2728SOL    HW1 9958  12.161  14.257   6.438
 2728SOL    HW2 9959  12.184  14.225   6.584
 2729SOL     OW 9960  12.299  13.197  14.677
 2729SOL    HW1 9961  12.286  13.103  14.690
 2729SOL    HW2 9962  12.214  13.236  14.696
 2730SOL     OW 9963  14.331   8.618   2.629
 2730SOL    HW1 9964  14.276   8.690   2.658
 2730SOL    HW2 9965  14.420   8.653   2.630
 2731SOL     OW 9966   9.918   0.228   1.544
 2731SOL    HW1 9967   9.957   0.140   1.538
 2731SOL    HW2 9968   9.929   0.265   1.456
 2732SOL     OW 9969   0.655   5.828   2.765
 2732SOL    HW1 9970   0.748   5.848   2.762
 2732SOL    HW2 9971   0.650   5.734   2.743
 2733SOL     OW 9972   9.379  12.710  10.590
 2733SOL    HW1 9973   9.329  12.716  10.508
 2733SOL    HW2 9974   9.348  12.782  10.643
 2734SOL     OW 9975  11.005   9.182   4.883
 2734SOL    HW1 9976  10.939   9.132   4.834
 2734SOL    HW2 9977  11.087   9.160   4.839
 2735SOL     OW 9978   5.659   9.476   5.133
 2735SOL    HW1 9979   5.587   9.432   5.178
 2735SOL    HW2 9980   5.714   9.510   5.205
 2736SOL     OW 9981   3.882  12.791  10.407
 2736SOL    HW1 9982   3.950  12.837  10.457
 2736SOL    HW2 9983   3.904  12.698  10.418
 2737SOL     OW 9984  12.339   7.135   9.000
 2737SOL    HW1 9985  12.394   7.138   8.922
 2737SOL    HW2 9986  12.281   7.060   8.986
 2738SOL     OW 9987  13.225  11.613  13.777
 2738SOL    HW1 9988  13.182  11.636  13.695
 2738SOL    HW2 9989  13.319  11.622  13.759
 2739SOL     OW 9990   9.481   1.752   8.629
 2739SOL    HW1 9991   9.400   1.776   8.585
 2739SOL    HW2 9992   9.550   1.791   8.575
 2740SOL     OW 9993   3.774   2.681   2.282
 2740SOL    HW1 9994   3.836   2.753   2.290
 2740SOL    HW2 9995   3.758   2.653   2.372
 2741SOL     OW 9996  12.038   2.101   9.557
 2741SOL    HW1 9997  12.034   2.174   9.620
 2741SOL    HW2 9998  12.050   2.143   9.472
 2742SOL     OW 9999   0.258   1.092   6.634
 2742SOL    HW110000   0.291   1.173   6.595
 2742SOL    HW210001   0.162   1.102   6.632
 2743SOL     OW10002   0.017   1.021   7.079
 2743SOL    HW110003   0.010   1.113   7.103
 2743SOL    HW210004  14.843   1.014   6.998
 2744SOL     OW10005   9.832   3.917   0.321
 2744SOL    HW110006   9.768   3.939   0.388
 2744SOL    HW210007   9.915   3.909   0.368
 2745SOL     OW10008   7.445   7.671   4.923
 2745SOL    HW110009   7.506   7.733   4.883
 2745SOL    HW210010   7.359   7.706   4.903
 2746SOL     OW10011   3.655   1.839   8.238
 2746SOL    HW110012   3.630   1.795   8.319
 2746SOL    HW210013   3.666   1.768   8.175
 2747SOL     OW10014   9.503  11.913  12.597
 2747SOL    HW110015   9.418  11.870  12.588
 2747SOL    HW210016   9.548  11.862  12.665
 2748SOL     OW10017   3.565  12.387   9.769
 2748SOL    HW110018   3.636  12.401   9.831
 2748SOL    HW210019   3.486  12.383   9.823
 2749SOL     OW10020   0.004   2.626   9.534
 2749SOL    HW110021   0.074   2.561   9.538
 2749SOL    HW210022  14.836   2.608   9.452
 2750SOL     OW10023   0.964  11.464   8.617
 2750SOL    HW110024   0.907  11.513   8.677
 2750SOL    HW210025   1.003  11.532   8.561
 2751SOL     OW10026   9.103  11.743  11.564
 2751SOL    HW110027   9.085  11.805  11.634
 2751SOL    HW210028   9.181  11.776  11.521
 2752SOL     OW10029   5.969   1.362   3.306
 2752SOL    HW110030   5.887   1.356   3.257
 2752SOL    HW210031   6.004   1.273   3.305
 2753SOL     OW10032  12.423  14.606  11.139
 2753SOL    HW110033  12.466  14.543  11.197
 2753SOL    HW210034  12.466  14.689  11.159
 2754SOL     OW10035  12.888  11.885   2.216
 2754SOL    HW110036  12.806  11.849   2.248
 2754SOL    HW210037  12.865  11.972   2.183
 2755SOL     OW10038  11.153   6.914   8.090
 2755SOL    HW110039  11.080   6.887   8.035
 2755SOL    HW210040  11.116   6.981   8.148
 2756SOL     OW10041   8.273   3.921   2.414
 2756SOL    HW110042   8.310   3.960   2.334
 2756SOL    HW210043   8.198   3.871   2.384
 2757SOL     OW10044   7.817   2.735   5.851
 2757SOL    HW110045   7.769   2.818   5.844
 2757SOL    HW210046   7.905   2.756   5.820
 2758SOL     OW10047  10.836  12.716  11.237
 2758SOL    HW110048  10.841  12.628  11.201
 2758SOL    HW210049  10.924  12.733  11.272
 2759SOL     OW10050   7.057   9.338  10.000
 2759SOL    HW110051   7.003   9.279   9.949
 2759SOL    HW210052   7.024   9.329  10.090
 2760SOL     OW10053   6.489   7.028   6.996
 2760SOL    HW110054   6.563   6.968   6.994
 2760SOL    HW210055   6.491   7.066   7.083
 2761SOL     OW10056   3.030   9.334   2.810
 2761SOL    HW110057   3.084   9.259   2.835
 2761SOL    HW210058   2.980   9.354   2.889
 2762SOL     OW10059   8.250   2.960  14.676
 2762SOL    HW110060   8.319   2.944  14.611
 2762SOL    HW210061   8.286   2.923  14.758
 2763SOL     OW10062   6.050   1.971   8.960
 2763SOL    HW110063   6.025   1.895   8.909
 2763SOL    HW210064   6.112   2.018   8.905
 2764SOL     OW10065   4.264  13.273  13.854
 2764SOL    HW110066   4.359  13.265  13.842
 2764SOL    HW210067   4.253  13.281  13.949
 2765SOL     OW10068   2.848   4.941   1.948
 2765SOL    HW110069   2.845   4.853   1.986
 2765SOL    HW210070   2.930   4.978   1.981
 2766SOL     OW10071   9.246  12.799  14.437
 2766SOL    HW110072   9.155  12.777  14.415
 2766SOL    HW210073   9.241  12.888  14.472
 2767SOL     OW10074   9.472   7.385   0.006
 2767SOL    HW110075   9.543   7.349  14.830
 2767SOL    HW210076   9.516   7.437   0.073
 2768SOL     OW10077  14.663   9.090   9.208
 2768SOL    HW110078  14.589   9.136   9.168
 2768SOL    HW210079  14.645   8.997   9.193
 2769SOL     OW10080   8.655  12.993  12.450
 2769SOL    HW110081   8.678  12.990  12.543
 2769SOL    HW210082   8.721  12.939  12.407
 2770SOL     OW10083   4.106  10.571  13.701
 2770SOL    HW110084   4.075  10.542  13.615
 2770SOL    HW210085   4.075  10.503  13.762
 2771SOL     OW10086   5.255   3.899   2.245
 2771SOL    HW110087   5.231   3.873   2.156
 2771SOL    HW210088   5.324   3.837   2.271
 2772SOL     OW10089   6.446  12.519   6.534
 2772SOL    HW110090   6.499  12.564   6.469
 2772SOL    HW210091   6.425  12.434   6.494
 2773SOL     OW10092  10.487   7.656  10.781
 2773SOL    HW110093  10.538   7.691  10.854
 2773SOL    HW210094  10.404   7.703  10.785
 2774SOL     OW10095  12.752   4.508  12.323
 2774SOL    HW110096  12.783   4.501  12.233
 2774SOL    HW210097  12.810   4.572  12.364
 2775SOL     OW10098   0.549  14.688   8.319
 2775SOL    HW110099   0.503  14.758   8.272
 2775SOL    HW210100   0.507  14.607   8.289
 2776SOL     OW10101   1.523   1.377   8.360
 2776SOL    HW110102   1.505   1.437   8.432
 2776SOL    HW210103   1.585   1.424   8.304
 2777SOL     OW10104  14.771  11.024   3.591
 2777SOL    HW110105  14.852  11.010   3.542
 2777SOL    HW210106  14.705  10.972   3.545
 2778SOL     OW10107   6.489  11.047   2.992
 2778SOL    HW110108   6.404  11.007   3.007
 2778SOL    HW210109   6.484  11.133   3.034
 2779SOL     OW10110   6.502   0.773   5.961
 2779SOL    HW110111   6.491   0.722   5.881
 2779SOL    HW210112   6.492   0.864   5.932
 2780SOL     OW10113  11.114   0.414   2.268
 2780SOL    HW110114  11.101   0.344   2.204
 2780SOL    HW210115  11.032   0.465   2.265
 2781SOL     OW10116   8.895  14.848   8.286
 2781SOL    HW110117   8.829  14.780   8.275
 2781SOL    HW210118   8.913   0.001   8.197
 2782SOL     OW10119  13.662   6.544   9.761
 2782SOL    HW110120  13.648   6.470   9.703
 2782SOL    HW210121  13.614   6.616   9.719
 2783SOL     OW10122  13.848  14.620  12.117
 2783SOL    HW110123  13.763  14.660  12.098
 2783SOL    HW210124  13.883  14.673  12.189
 2784SOL     OW10125   4.593   5.615  14.659
 2784SOL    HW110126   4.591   5.667  14.578
 2784SOL    HW210127   4.542   5.537  14.637
 2785SOL     OW10128   7.961   2.479  14.370
 2785SOL    HW110129   7.896   2.431  14.320
 2785SOL    HW210130   7.991   2.548  14.310
 2786SOL     OW10131   8.469   1.964   2.185
 2786SOL    HW110132   8.430   1.943   2.270
 2786SOL    HW210133   8.466   1.882   2.136
 2787SOL     OW10134   5.386  14.422   3.119
 2787SOL    HW110135   5.436  14.491   3.075
 2787SOL    HW210136   5.449  14.351   3.132
 2788SOL     OW10137  14.535   2.778  14.016
 2788SOL    HW110138  14.630   2.773  14.017
 2788SOL    HW210139  14.513   2.814  13.930
 2789SOL     OW10140   7.354   2.589   2.652
 2789SOL    HW110141   7.288   2.573   2.720
 2789SOL    HW210142   7.303   2.615   2.575
 2790SOL     OW10143   2.937  11.799   0.774
 2790SOL    HW110144   2.893  11.869   0.822
 2790SOL    HW210145   2.889  11.792   0.691
 2791SOL     OW10146   5.915  12.412  11.706
 2791SOL    HW110147   5.880  12.424  11.795
 2791SOL    HW210148   5.849  12.451  11.649
 2792SOL     OW10149  10.984   7.096   5.408
 2792SOL    HW110150  10.962   7.114   5.317
 2792SOL    HW210151  10.904   7.118   5.456
 2793SOL     OW10152   1.645   0.782   9.460
 2793SOL    HW110153   1.559   0.794   9.421
 2793SOL    HW210154   1.638   0.700   9.509
 2794SOL     OW10155  13.867  12.275   9.331
 2794SOL    HW110156  13.883  12.366   9.309
 2794SOL    HW210157  13.951  12.243   9.366
 2795SOL     OW10158   7.861   0.441   0.383
 2795SOL    HW110159   7.789   0.504   0.391
 2795SOL    HW210160   7.934   0.494   0.351
 2796SOL     OW10161  13.388  13.249  12.211
 2796SOL    HW110162  13.466  13.245  12.267
 2796SOL    HW210163  13.419  13.215  12.126
 2797SOL     OW10164   4.614   4.088   0.332
 2797SOL    HW110165   4.704   4.072   0.360
 2797SOL    HW210166   4.622   4.125   0.244
 2798SOL     OW10167  13.431   2.100  12.144
 2798SOL    HW110168  13.473   2.161  12.204
 2798SOL    HW210169  13.350   2.143  12.119
 2799SOL     OW10170  11.673   7.170   3.867
 2799SOL    HW110171  11.680   7.097   3.929
 2799SOL    HW210172  11.671   7.128   3.781
 2800SOL     OW10173  13.889   3.151   9.737
 2800SOL    HW110174  13.901   3.151   9.832
 2800SOL    HW210175  13.801   3.116   9.724
 2801SOL     OW10176   7.331   7.200   8.492
 2801SOL    HW110177   7.344   7.199   8.587
 2801SOL    HW210178   7.272   7.126   8.475
 2802SOL     OW10179  10.337  14.260   7.458
 2802SOL    HW110180  10.378  14.340   7.425
 2802SOL    HW210181  10.323  14.207   7.379
 2803SOL     OW10182   3.426   0.579   7.537
 2803SOL    HW110183   3.503   0.630   7.513
 2803SOL    HW210184   3.358   0.644   7.556
 2804SOL     OW10185   8.797   5.329  11.488
 2804SOL    HW110186   8.714   5.283  11.479
 2804SOL    HW210187   8.773   5.422  11.486
 2805SOL     OW10188   5.034  12.204   0.713
 2805SOL    HW110189   5.080  12.278   0.752
 2805SOL    HW210190   5.092  12.173   0.643
 2806SOL     OW10191  13.346   5.839  10.520
 2806SOL    HW110192  13.392   5.920  10.498
 2806SOL    HW210193  13.254   5.862  10.513
 2807SOL     OW10194  11.157   3.094   5.495
 2807SOL    HW110195  11.158   3.021   5.434
 2807SOL    HW210196  11.249   3.113   5.512
 2808SOL     OW10197   6.229  11.663   0.203
 2808SOL    HW110198   6.138  11.671   0.232
 2808SOL    HW210199   6.232  11.708   0.118
 2809SOL     OW10200   9.670   4.276   5.040
 2809SOL    HW110201   9.715   4.360   5.026
 2809SOL    HW210202   9.737   4.219   5.078
 2810SOL     OW10203   0.662   4.319  10.264
 2810SOL    HW110204   0.731   4.339  10.327
 2810SOL    HW210205   0.681   4.231  10.233
 2811SOL     OW10206  13.601   5.369   0.686
 2811SOL    HW110207  13.681   5.407   0.649
 2811SOL    HW210208  13.584   5.291   0.633
 2812SOL     OW10209  12.868   9.010   8.527
 2812SOL    HW110210  12.946   9.062   8.549
 2812SOL    HW210211  12.850   8.960   8.607
 2813SOL     OW10212   9.385   7.263   3.744
 2813SOL    HW110213   9.479   7.270   3.762
 2813SOL    HW210214   9.376   7.184   3.690
 2814SOL     OW10215   6.917   3.271   1.317
 2814SOL    HW110216   7.007   3.246   1.300
 2814SOL    HW210217   6.917   3.302   1.407
 2815SOL     OW10218   5.749  11.603   8.092
 2815SOL    HW110219   5.791  11.555   8.021
 2815SOL    HW210220   5.803  11.583   8.169
 2816SOL     OW10221   9.508   3.813   0.199
 2816SOL    HW110222   9.597   3.837   0.171
 2816SOL    HW210223   9.521   3.743   0.262
 2817SOL     OW10224   0.895   7.000   2.008
 2817SOL    HW110225   0.984   6.977   2.036
 2817SOL    HW210226   0.871   6.932   1.945
 2818SOL     OW10227   9.733   8.173   4.844
 2818SOL    HW110228   9.815   8.221   4.830
 2818SOL    HW210229   9.666   8.241   4.847
 2819SOL     OW10230   8.347   0.435   7.410
 2819SOL    HW110231   8.403   0.382   7.467
 2819SOL    HW210232   8.324   0.377   7.338
 2820SOL     OW10233  10.541  13.723  10.697
 2820SOL    HW110234  10.578  13.635  10.701
 2820SOL    HW210235  10.462  13.718  10.752
 2821SOL     OW10236   3.706  11.138   1.756
 2821SOL    HW110237   3.673  11.221   1.792
 2821SOL    HW210238   3.691  11.145   1.662
 2822SOL     OW10239   6.039   3.890   5.158
 2822SOL    HW110240   5.953   3.860   5.129
 2822SOL    HW210241   6.032   3.985   5.159
 2823SOL     OW10242   5.852   4.058   3.650
 2823SOL    HW110243   5.805   4.090   3.727
 2823SOL    HW210244   5.823   4.115   3.579
 2824SOL     OW10245   6.345  13.446  14.755
 2824SOL    HW110246   6.290  13.504  14.703
 2824SOL    HW210247   6.301  13.440  14.840
 2825SOL     OW10248   3.010   6.691  10.525
 2825SOL    HW110249   2.986   6.772  10.479
 2825SOL    HW210250   2.927   6.660  10.563
 2826SOL     OW10251  10.002   1.115   4.574
 2826SOL    HW110252  10.050   1.035   4.553
 2826SOL    HW210253  10.064   1.166   4.627
 2827SOL     OW10254   9.549  10.395  13.834
 2827SOL    HW110255   9.510  10.314  13.801
 2827SOL    HW210256   9.625  10.366  13.884
 2828SOL     OW10257   2.101   6.014  12.937
 2828SOL    HW110258   2.096   5.952  12.864
 2828SOL    HW210259   2.034   6.079  12.918
 2829SOL     OW10260   1.837  14.820  14.430
 2829SOL    HW110261   1.903  14.755  14.455
 2829SOL    HW210262   1.762  14.800  14.487
 2830SOL     OW10263   1.015   5.683   4.436
 2830SOL    HW110264   1.014   5.778   4.427
 2830SOL    HW210265   0.990   5.649   4.350
 2831SOL     OW10266  12.933   4.341   4.637
 2831SOL    HW110267  13.016   4.375   4.604
 2831SOL    HW210268  12.894   4.415   4.684
 2832SOL     OW10269   2.044   7.793   2.455
 2832SOL    HW110270   2.024   7.886   2.467
 2832SOL    HW210271   2.000   7.769   2.374
 2833SOL     OW10272   1.367   7.050   5.533
 2833SOL    HW110273   1.302   6.982   5.515
 2833SOL    HW210274   1.354   7.072   5.625
 2834SOL     OW10275   8.171   4.596   6.473
 2834SOL    HW110276   8.185   4.505   6.499
 2834SOL    HW210277   8.256   4.638   6.488
 2835SOL     OW10278   8.617  14.761   1.382
 2835SOL    HW110279   8.664  14.821   1.440
 2835SOL    HW210280   8.536  14.741   1.429
 2836SOL     OW10281   2.117  13.775   5.408
 2836SOL    HW110282   2.089  13.702   5.463
 2836SOL    HW210283   2.134  13.736   5.322
 2837SOL     OW10284   3.010  13.137   5.354
 2837SOL    HW110285   2.935  13.184   5.391
 2837SOL    HW210286   3.028  13.181   5.271
 2838SOL     OW10287  14.038  13.286   5.729
 2838SOL    HW110288  14.049  13.379   5.747
 2838SOL    HW210289  14.041  13.244   5.815
 2839SOL     OW10290  14.400  12.537  10.151
 2839SOL    HW110291  14.346  12.465  10.182
 2839SOL    HW210292  14.404  12.526  10.056
 2840SOL     OW10293   3.983  14.062   8.388
 2840SOL    HW110294   4.074  14.088   8.372
 2840SOL    HW210295   3.979  14.048   8.483
 2841SOL     OW10296   7.116  13.173   5.095
 2841SOL    HW110297   7.039  13.117   5.092
 2841SOL    HW210298   7.108  13.221   5.177
 2842SOL     OW10299   2.649  10.372   3.708
 2842SOL    HW110300   2.741  10.347   3.721
 2842SOL    HW210301   2.619  10.314   3.637
 2843SOL     OW10302   0.713   7.647   9.555
 2843SOL    HW110303   0.643   7.710   9.536
 2843SOL    HW210304   0.728   7.603   9.471
 2844SOL     OW10305  12.461   4.225  12.114
 2844SOL    HW110306  12.496   4.139  12.139
 2844SOL    HW210307  12.366   4.215  12.124
 2845SOL     OW10308   3.104  10.446   4.066
 2845SOL    HW110309   3.134  10.403   4.146
 2845SOL    HW210310   3.145  10.398   3.995
 2846SOL     OW10311   3.189   7.906   7.753
 2846SOL    HW110312   3.152   7.819   7.736
 2846SOL    HW210313   3.200   7.944   7.665
 2847SOL     OW10314   4.304   4.018  13.584
 2847SOL    HW110315   4.341   4.038  13.498
 2847SOL    HW210316   4.313   3.923  13.593
 2848SOL     OW10317   3.881   2.046   4.995
 2848SOL    HW110318   3.797   2.001   5.006
 2848SOL    HW210319   3.860   2.125   4.945
 2849SOL     OW10320   6.751  10.434   9.457
 2849SOL    HW110321   6.662  10.448   9.424
 2849SOL    HW210322   6.758  10.494   9.531
 2850SOL     OW10323   7.598   2.786   8.887
 2850SOL    HW110324   7.535   2.777   8.958
 2850SOL    HW210325   7.671   2.836   8.925
 2851SOL     OW10326  14.731   4.265   2.853
 2851SOL    HW110327  14.795   4.194   2.843
 2851SOL    HW210328  14.651   4.231   2.813
 2852SOL     OW10329   1.843   6.470  13.536
 2852SOL    HW110330   1.801   6.450  13.620
 2852SOL    HW210331   1.914   6.407  13.529
 2853SOL     OW10332  10.999   6.410  11.669
 2853SOL    HW110333  10.904   6.402  11.671
 2853SOL    HW210334  11.026   6.357  11.593
 2854SOL     OW10335   8.251  14.845   5.641
 2854SOL    HW110336   8.281   0.046   5.594
 2854SOL    HW210337   8.164  14.828   5.606
 2855SOL     OW10338   5.376   0.371  14.426
 2855SOL    HW110339   5.362   0.391  14.519
 2855SOL    HW210340   5.411   0.453  14.390
 2856SOL     OW10341   7.630   2.097  11.708
 2856SOL    HW110342   7.669   2.010  11.709
 2856SOL    HW210343   7.546   2.086  11.664
 2857SOL     OW10344  14.258   2.666   7.044
 2857SOL    HW110345  14.346   2.703   7.048
 2857SOL    HW210346  14.271   2.577   7.011
 2858SOL     OW10347   1.674  10.248   1.818
 2858SOL    HW110348   1.651  10.328   1.866
 2858SOL    HW210349   1.704  10.280   1.733
 2859SOL     OW10350   5.117   8.023  10.475
 2859SOL    HW110351   5.094   8.075  10.398
 2859SOL    HW210352   5.057   7.949  10.474
 2860SOL     OW10353   0.446   5.081  12.454
 2860SOL    HW110354   0.377   5.097  12.518
 2860SOL    HW210355   0.513   5.032  12.502
 2861SOL     OW10356  11.222   3.872  12.817
 2861SOL    HW110357  11.242   3.881  12.724
 2861SOL    HW210358  11.289   3.811  12.851
 2862SOL     OW10359  14.367   8.919  12.109
 2862SOL    HW110360  14.367   8.988  12.043
 2862SOL    HW210361  14.373   8.838  12.058
 2863SOL     OW10362   3.078   7.523   9.169
 2863SOL    HW110363   3.019   7.586   9.128
 2863SOL    HW210364   3.038   7.504   9.254
 2864SOL     OW10365   5.149   1.766   6.395
 2864SOL    HW110366   5.127   1.853   6.428
 2864SOL    HW210367   5.185   1.782   6.308
 2865SOL     OW10368   6.196   3.559  12.261
 2865SOL    HW110369   6.248   3.536  12.184
 2865SOL    HW210370   6.148   3.637  12.236
 2866SOL     OW10371   4.232   7.499   6.475
 2866SOL    HW110372   4.225   7.589   6.507
 2866SOL    HW210373   4.325   7.486   6.459
 2867SOL     OW10374   8.083   8.638   1.147
 2867SOL    HW110375   8.001   8.589   1.136
 2867SOL    HW210376   8.122   8.601   1.226
 2868SOL     OW10377   1.085   8.278   3.045
 2868SOL    HW110378   1.071   8.216   2.974
 2868SOL    HW210379   1.001   8.281   3.091
 2869SOL     OW10380   8.001   2.178  11.495
 2869SOL    HW110381   7.984   2.172  11.589
 2869SOL    HW210382   7.925   2.225  11.461
 2870SOL     OW10383   5.428   4.930   1.114
 2870SOL    HW110384   5.466   4.985   1.183
 2870SOL    HW210385   5.503   4.894   1.068
 2871SOL     OW10386   1.939  10.170   9.733
 2871SOL    HW110387   1.955  10.077   9.721
 2871SOL    HW210388   2.017  10.202   9.778
 2872SOL     OW10389  10.605   4.802  10.866
 2872SOL    HW110390  10.583   4.862  10.937
 2872SOL    HW210391  10.543   4.730  10.876
 2873SOL     OW10392   8.225   2.207   9.192
 2873SOL    HW110393   8.140   2.228   9.154
 2873SOL    HW210394   8.247   2.120   9.157
 2874SOL     OW10395  12.558   6.196   6.261
 2874SOL    HW110396  12.633   6.145   6.291
 2874SOL    HW210397  12.590   6.240   6.182
 2875SOL     OW10398   9.896   0.537  14.273
 2875SOL    HW110399   9.835   0.505  14.207
 2875SOL    HW210400   9.877   0.631  14.279
 2876SOL     OW10401  12.187   5.889  12.676
 2876SOL    HW110402  12.245   5.963  12.658
 2876SOL    HW210403  12.245   5.820  12.707
 2877SOL     OW10404  13.904  10.680   9.863
 2877SOL    HW110405  13.979  10.621   9.866
 2877SOL    HW210406  13.935  10.755   9.812
 2878SOL     OW10407  12.626  12.285   5.406
 2878SOL    HW110408  12.652  12.274   5.497
 2878SOL    HW210409  12.666  12.211   5.361
 2879SOL     OW10410   6.724  13.405   8.531
 2879SOL    HW110411   6.700  13.328   8.480
 2879SOL    HW210412   6.764  13.464   8.467
 2880SOL     OW10413   6.656   9.524   4.436
 2880SOL    HW110414   6.591   9.576   4.387
 2880SOL    HW210415   6.642   9.435   4.405
 2881SOL     OW10416   3.701  13.250   0.674
 2881SOL    HW110417   3.751  13.188   0.728
 2881SOL    HW210418   3.740  13.244   0.587
 2882SOL     OW10419   7.822  12.747   0.018
 2882SOL    HW110420   7.754  12.738   0.084
 2882SOL    HW210421   7.774  12.766  14.815
 2883SOL     OW10422  13.112   9.390   8.377
 2883SOL    HW110423  13.139   9.431   8.460
 2883SOL    HW210424  13.037   9.336   8.401
 2884SOL     OW10425   7.856   9.230   7.589
 2884SOL    HW110426   7.793   9.269   7.529
 2884SOL    HW210427   7.818   9.146   7.613
 2885SOL     OW10428   2.123   3.416   2.780
 2885SOL    HW110429   2.208   3.386   2.748
 2885SOL    HW210430   2.059   3.371   2.725
 2886SOL     OW10431   2.327   6.815   4.195
 2886SOL    HW110432   2.299   6.823   4.104
 2886SOL    HW210433   2.385   6.739   4.195
 2887SOL     OW10434   7.495   5.981   9.104
 2887SOL    HW110435   7.435   5.981   9.179
 2887SOL    HW210436   7.442   5.946   9.032
 2888SOL     OW10437   8.179   9.633   4.746
 2888SOL    HW110438   8.252   9.683   4.782
 2888SOL    HW210439   8.172   9.662   4.655
 2889SOL     OW10440  11.092   6.473   1.228
 2889SOL    HW110441  11.100   6.520   1.310
 2889SOL    HW210442  11.172   6.422   1.221
 2890SOL     OW10443  12.089   0.112   3.229
 2890SOL    HW110444  12.004   0.143   3.259
 2890SOL    HW210445  12.095   0.023   3.264
 2891SOL     OW10446  11.843   6.248   3.039
 2891SOL    HW110447  11.829   6.156   3.061
 2891SOL    HW210448  11.763   6.292   3.069
 2892SOL     OW10449  12.624   1.489  13.656
 2892SOL    HW110450  12.555   1.523  13.712
 2892SOL    HW210451  12.673   1.566  13.628
 2893SOL     OW10452  14.167   5.297  13.664
 2893SOL    HW110453  14.171   5.321  13.756
 2893SOL    HW210454  14.085   5.335  13.633
 2894SOL     OW10455   3.624   1.723   6.001
 2894SOL    HW110456   3.620   1.659   6.072
 2894SOL    HW210457   3.560   1.789   6.024
 2895SOL     OW10458  10.322   5.651   4.207
 2895SOL    HW110459  10.409   5.631   4.242
 2895SOL    HW210460  10.303   5.739   4.238
 2896SOL     OW10461  11.264  13.290   3.171
 2896SOL    HW110462  11.334  13.225   3.177
 2896SOL    HW210463  11.218  13.268   3.090
 2897SOL     OW10464   3.949   5.256   1.065
 2897SOL    HW110465   3.881   5.201   1.104
 2897SOL    HW210466   3.915   5.277   0.977
 2898SOL     OW10467   6.145  13.318   9.298
 2898SOL    HW110468   6.103  13.387   9.350
 2898SOL    HW210469   6.090  13.309   9.221
 2899SOL     OW10470  14.833  12.568   9.122
 2899SOL    HW110471  14.747  12.593   9.155
 2899SOL    HW210472   0.018  12.616   9.177
 2900SOL     OW10473   7.200  11.999   4.965
 2900SOL    HW110474   7.195  12.085   5.005
 2900SOL    HW210475   7.197  11.938   5.039
 2901SOL     OW10476   1.649  14.867  13.654
 2901SOL    HW110477   1.561  14.831  13.661
 2901SOL    HW210478   1.676  14.847  13.565
 2902SOL     OW10479   7.740   4.696  12.708
 2902SOL    HW110480   7.702   4.615  12.674
 2902SOL    HW210481   7.780   4.670  12.791
 2903SOL     OW10482   7.526   5.494  13.086
 2903SOL    HW110483   7.477   5.413  13.077
 2903SOL    HW210484   7.459   5.563  13.086
 2904SOL     OW10485   8.025   4.895   9.166
 2904SOL    HW110486   8.022   4.987   9.194
 2904SOL    HW210487   8.026   4.899   9.071
 2905SOL     OW10488  12.815  10.962   3.800
 2905SOL    HW110489  12.787  11.053   3.808
 2905SOL    HW210490  12.769  10.916   3.871
 2906SOL     OW10491   9.093   0.430   7.124
 2906SOL    HW110492   9.082   0.360   7.061
 2906SOL    HW210493   9.074   0.510   7.075
 2907SOL     OW10494  10.852   7.228   6.962
 2907SOL    HW110495  10.765   7.250   6.930
 2907SOL    HW210496  10.837   7.178   7.042
 2908SOL     OW10497   3.280  10.057   4.321
 2908SOL    HW110498   3.228   9.986   4.360
 2908SOL    HW210499   3.361  10.057   4.371
 2909SOL     OW10500   6.250  14.723   5.221
 2909SOL    HW110501   6.186  14.652   5.227
 2909SOL    HW210502   6.287  14.730   5.309
 2910SOL     OW10503  14.761   3.700   2.378
 2910SOL    HW110504  14.732   3.767   2.440
 2910SOL    HW210505  14.815   3.748   2.314
 2911SOL     OW10506   1.827   4.784   2.907
 2911SOL    HW110507   1.809   4.724   2.834
 2911SOL    HW210508   1.885   4.850   2.869
 2912SOL     OW10509   9.108   7.050   3.118
 2912SOL    HW110510   9.028   7.066   3.170
 2912SOL    HW210511   9.075   7.023   3.033
 2913SOL     OW10512  11.250   6.246   1.697
 2913SOL    HW110513  11.327   6.190   1.687
 2913SOL    HW210514  11.204   6.240   1.613
 2914SOL     OW10515   5.513   7.968  14.315
 2914SOL    HW110516   5.490   8.047  14.266
 2914SOL    HW210517   5.439   7.909  14.302
 2915SOL     OW10518   5.525   6.952   3.616
 2915SOL    HW110519   5.451   7.007   3.589
 2915SOL    HW210520   5.592   6.968   3.550
 2916SOL     OW10521  13.973   3.583   3.939
 2916SOL    HW110522  14.067   3.574   3.956
 2916SOL    HW210523  13.963   3.563   3.846
 2917SOL     OW10524   7.703   6.977   1.640
 2917SOL    HW110525   7.657   6.898   1.615
 2917SOL    HW210526   7.648   7.017   1.708
 2918SOL     OW10527  12.968   0.870   9.275
 2918SOL    HW110528  13.053   0.866   9.231
 2918SOL    HW210529  12.988   0.893   9.365
 2919SOL     OW10530  10.601   6.049  10.120
 2919SOL    HW110531  10.555   6.011  10.045
 2919SOL    HW210532  10.544   6.031  10.194
 2920SOL     OW10533   4.729   8.523   2.235
 2920SOL    HW110534   4.688   8.454   2.287
 2920SOL    HW210535   4.801   8.479   2.189
 2921SOL     OW10536   5.274   4.703   4.235
 2921SOL    HW110537   5.182   4.686   4.251
 2921SOL    HW210538   5.276   4.755   4.155
 2922SOL     OW10539   4.530   3.459   9.180
 2922SOL    HW110540   4.545   3.412   9.098
 2922SOL    HW210541   4.504   3.547   9.153
 2923SOL     OW10542  10.930   3.318   1.154
 2923SOL    HW110543  10.971   3.350   1.074
 2923SOL    HW210544  10.916   3.397   1.206
 2924SOL     OW10545   8.955   2.193   0.517
 2924SOL    HW110546   8.887   2.243   0.562
 2924SOL    HW210547   9.035   2.211   0.566
 2925SOL     OW10548   8.588   5.295   5.009
 2925SOL    HW110549   8.552   5.215   5.047
 2925SOL    HW210550   8.675   5.303   5.047
 2926SOL     OW10551  11.293  11.543   2.418
 2926SOL    HW110552  11.321  11.453   2.427
 2926SOL    HW210553  11.259  11.549   2.328
 2927SOL     OW10554   9.234   6.739  13.143
 2927SOL    HW110555   9.138   6.739  13.142
 2927SOL    HW210556   9.258   6.832  13.140
 2928SOL     OW10557  14.719  14.449   0.475
 2928SOL    HW110558  14.785  14.399   0.524
 2928SOL    HW210559  14.723  14.414   0.386
 2929SOL     OW10560   9.451   2.949   7.388
 2929SOL    HW110561   9.440   3.041   7.409
 2929SOL    HW210562   9.497   2.949   7.304
 2930SOL     OW10563  11.712   6.819   3.742
 2930SOL    HW110564  11.719   6.859   3.655
 2930SOL    HW210565  11.788   6.851   3.790
 2931SOL     OW10566   6.162  11.400  14.630
 2931SOL    HW110567   6.128  11.446  14.707
 2931SOL    HW210568   6.173  11.309  14.659
 2932SOL     OW10569  10.553   6.342  13.052
 2932SOL    HW110570  10.472   6.345  13.104
 2932SOL    HW210571  10.578   6.249  13.053
 2933SOL     OW10572   6.703   2.303   3.001
 2933SOL    HW110573   6.656   2.256   3.070
 2933SOL    HW210574   6.792   2.313   3.034
 2934SOL     OW10575   5.921  10.166   1.088
 2934SOL    HW110576   5.986  10.112   1.044
 2934SOL    HW210577   5.842  10.158   1.035
 2935SOL     OW10578  13.809   4.451  10.713
 2935SOL    HW110579  13.895   4.473  10.678
 2935SOL    HW210580  13.774   4.534  10.746
 2936SOL     OW10581   7.135  13.580   4.635
 2936SOL    HW110582   7.136  13.662   4.684
 2936SOL    HW210583   7.182  13.600   4.554
 2937SOL     OW10584   2.917   3.889   9.004
 2937SOL    HW110585   2.954   3.931   8.926
 2937SOL    HW210586   2.852   3.828   8.970
 2938SOL     OW10587   0.832   4.554   0.930
 2938SOL    HW110588   0.906   4.596   0.887
 2938SOL    HW210589   0.784   4.512   0.858
 2939SOL     OW10590   6.867  13.771  13.872
 2939SOL    HW110591   6.915  13.843  13.912
 2939SOL    HW210592   6.798  13.814  13.820
 2940SOL     OW10593   0.717   7.433   0.653
 2940SOL    HW110594   0.809   7.459   0.658
 2940SOL    HW210595   0.708   7.396   0.565
 2941SOL     OW10596  13.513   0.480  13.539
 2941SOL    HW110597  13.510   0.498  13.633
 2941SOL    HW210598  13.557   0.395  13.532
 2942SOL     OW10599  11.646  13.025  11.289
 2942SOL    HW110600  11.626  12.940  11.249
 2942SOL    HW210601  11.671  13.081  11.216
 2943SOL     OW10602   4.001   5.372   4.530
 2943SOL    HW110603   3.972   5.436   4.466
 2943SOL    HW210604   4.044   5.423   4.599
 2944SOL     OW10605   1.992   4.671   7.717
 2944SOL    HW110606   1.978   4.584   7.754
 2944SOL    HW210607   1.932   4.676   7.643
 2945SOL     OW10608   7.684   7.277  13.205
 2945SOL    HW110609   7.687   7.197  13.153
 2945SOL    HW210610   7.750   7.263  13.273
 2946SOL     OW10611   1.185   7.936   4.566
 2946SOL    HW110612   1.122   7.892   4.623
 2946SOL    HW210613   1.202   7.873   4.496
 2947SOL     OW10614   8.587   5.659   7.626
 2947SOL    HW110615   8.681   5.653   7.612
 2947SOL    HW210616   8.578   5.694   7.714
 2948SOL     OW10617   9.829   8.827   7.729
 2948SOL    HW110618   9.914   8.821   7.772
 2948SOL    HW210619   9.820   8.745   7.681
 2949SOL     OW10620   0.960   0.780   5.586
 2949SOL    HW110621   1.016   0.782   5.508
 2949SOL    HW210622   0.873   0.757   5.553
 2950SOL     OW10623  13.854  11.627   2.798
 2950SOL    HW110624  13.822  11.585   2.878
 2950SOL    HW210625  13.833  11.564   2.728
 2951SOL     OW10626   5.435   7.467   1.435
 2951SOL    HW110627   5.426   7.403   1.364
 2951SOL    HW210628   5.344   7.492   1.455
 2952SOL     OW10629   2.053   5.235   1.706
 2952SOL    HW110630   2.081   5.208   1.619
 2952SOL    HW210631   1.987   5.170   1.731
 2953SOL     OW10632   0.677   6.580   4.876
 2953SOL    HW110633   0.718   6.638   4.812
 2953SOL    HW210634   0.747   6.558   4.937
 2954SOL     OW10635  13.658   0.993   8.721
 2954SOL    HW110636  13.612   0.962   8.643
 2954SOL    HW210637  13.716   1.062   8.689
 2955SOL     OW10638   4.821   4.317  10.603
 2955SOL    HW110639   4.866   4.241  10.565
 2955SOL    HW210640   4.826   4.302  10.697
 2956SOL     OW10641  12.613  12.372   2.766
 2956SOL    HW110642  12.706  12.387   2.748
 2956SOL    HW210643  12.593  12.291   2.719
 2957SOL     OW10644  12.317   2.049   8.934
 2957SOL    HW110645  12.231   2.038   8.975
 2957SOL    HW210646  12.357   1.963   8.939
 2958SOL     OW10647  11.991   5.038   7.391
 2958SOL    HW110648  11.898   5.053   7.409
 2958SOL    HW210649  11.994   5.019   7.297
 2959SOL     OW10650   3.665   9.522   1.344
 2959SOL    HW110651   3.685   9.571   1.264
 2959SOL    HW210652   3.591   9.466   1.319
 2960SOL     OW10653  11.570   4.909  12.384
 2960SOL    HW110654  11.560   4.821  12.420
 2960SOL    HW210655  11.665   4.919  12.373
 2961SOL     OW10656   3.756   5.328   1.794
 2961SOL    HW110657   3.762   5.361   1.705
 2961SOL    HW210658   3.792   5.398   1.848
 2962SOL     OW10659   7.038   9.733   0.155
 2962SOL    HW110660   6.992   9.817   0.150
 2962SOL    HW210661   7.112   9.742   0.095
 2963SOL     OW10662  13.634   6.291  10.347
 2963SOL    HW110663  13.568   6.352  10.382
 2963SOL    HW210664  13.651   6.322  10.259
 2964SOL     OW10665   3.649   2.349   1.098
 2964SOL    HW110666   3.569   2.401   1.102
 2964SOL    HW210667   3.621   2.266   1.058
 2965SOL     OW10668   6.160   6.141   9.521
 2965SOL    HW110669   6.158   6.236   9.536
 2965SOL    HW210670   6.231   6.110   9.577
 2966SOL     OW10671   7.728  12.698   4.367
 2966SOL    HW110672   7.726  12.643   4.289
 2966SOL    HW210673   7.791  12.655   4.425
 2967SOL     OW10674   0.276   4.716   1.742
 2967SOL    HW110675   0.296   4.685   1.831
 2967SOL    HW210676   0.200   4.772   1.752
 2968SOL     OW10677  14.691   6.649   3.512
 2968SOL    HW110678  14.707   6.609   3.426
 2968SOL    HW210679  14.666   6.739   3.492
 2969SOL     OW10680   3.446  12.397   5.276
 2969SOL    HW110681   3.465  12.464   5.341
 2969SOL    HW210682   3.474  12.315   5.317
 2970SOL     OW10683   0.465  10.848   6.820
 2970SOL    HW110684   0.443  10.812   6.906
 2970SOL    HW210685   0.522  10.782   6.781
 2971SOL     OW10686  14.548   8.514   7.740
 2971SOL    HW110687  14.597   8.441   7.703
 2971SOL    HW210688  14.512   8.480   7.822
 2972SOL     OW10689   6.612   3.149  10.005
 2972SOL    HW110690   6.627   3.058   9.980
 2972SOL    HW210691   6.557   3.185   9.936
 2973SOL     OW10692  12.348   4.556  11.378
 2973SOL    HW110693  12.266   4.508  11.382
 2973SOL    HW210694  12.360   4.577  11.286
 2974SOL     OW10695   1.630   6.486   0.123
 2974SOL    HW110696   1.708   6.540   0.114
 2974SOL    HW210697   1.560   6.548   0.141
 2975SOL     OW10698   6.238  10.870   3.069
 2975SOL    HW110699   6.242  10.806   2.998
 2975SOL    HW210700   6.241  10.817   3.149
 2976SOL     OW10701  12.009  10.846  10.105
 2976SOL    HW110702  11.997  10.860  10.011
 2976SOL    HW210703  11.940  10.783  10.129
 2977SOL     OW10704  10.097  14.347   0.437
 2977SOL    HW110705  10.086  14.252   0.444
 2977SOL    HW210706  10.121  14.363   0.346
 2978SOL     OW10707   7.634  10.894   6.224
 2978SOL    HW110708   7.628  10.882   6.129
 2978SOL    HW210709   7.728  10.892   6.243
 2979SOL     OW10710   3.915  12.014   1.433
 2979SOL    HW110711   3.923  12.100   1.473
 2979SOL    HW210712   3.862  12.029   1.355
 2980SOL     OW10713   7.269  13.846   2.731
 2980SOL    HW110714   7.326  13.815   2.661
 2980SOL    HW210715   7.197  13.889   2.686
 2981SOL     OW10716  12.320   3.376  11.216
 2981SOL    HW110717  12.319   3.401  11.308
 2981SOL    HW210718  12.408   3.338  11.203
 2982SOL     OW10719   2.100   4.313   0.342
 2982SOL    HW110720   2.041   4.389   0.344
 2982SOL    HW210721   2.081   4.267   0.424
 2983SOL     OW10722  10.698   8.858   1.227
 2983SOL    HW110723  10.666   8.772   1.201
 2983SOL    HW210724  10.693   8.911   1.148
 2984SOL     OW10725   6.258   4.095  11.350
 2984SOL    HW110726   6.311   4.166  11.314
 2984SOL    HW210727   6.235   4.042  11.274
 2985SOL     OW10728   5.299  14.779   6.403
 2985SOL    HW110729   5.285  14.859   6.352
 2985SOL    HW210730   5.269  14.801   6.491
 2986SOL     OW10731   9.548   6.007   4.500
 2986SOL    HW110732   9.581   5.931   4.452
 2986SOL    HW210733   9.466   5.977   4.539
 2987SOL     OW10734   4.748   5.599  14.200
 2987SOL    HW110735   4.774   5.579  14.110
 2987SOL    HW210736   4.828   5.632  14.241
 2988SOL     OW10737   1.134   0.383   0.723
 2988SOL    HW110738   1.189   0.460   0.705
 2988SOL    HW210739   1.113   0.391   0.817
 2989SOL     OW10740   0.807   0.340  14.183
 2989SOL    HW110741   0.861   0.269  14.148
 2989SOL    HW210742   0.786   0.394  14.106
 2990SOL     OW10743   2.430   7.585   9.222
 2990SOL    HW110744   2.363   7.601   9.155
 2990SOL    HW210745   2.442   7.669   9.265
 2991SOL     OW10746   7.828  13.712   0.863
 2991SOL    HW110747   7.795  13.698   0.952
 2991SOL    HW210748   7.913  13.754   0.876
 2992SOL     OW10749   2.401   8.287   4.728
 2992SOL    HW110750   2.325   8.327   4.686
 2992SOL    HW210751   2.397   8.318   4.819
 2993SOL     OW10752  10.815   2.661   4.851
 2993SOL    HW110753  10.892   2.700   4.891
 2993SOL    HW210754  10.751   2.732   4.848
 2994SOL     OW10755   3.534   3.651   7.693
 2994SOL    HW110756   3.498   3.565   7.671
 2994SOL    HW210757   3.464   3.713   7.673
 2995SOL     OW10758   6.354   9.701  10.536
 2995SOL    HW110759   6.383   9.697  10.627
 2995SOL    HW210760   6.385   9.785  10.504
 2996SOL     OW10761   7.219  13.446   9.411
 2996SOL    HW110762   7.311  13.471   9.424
 2996SOL    HW210763   7.217  13.352   9.424
 2997SOL     OW10764  14.269  11.193  12.119
 2997SOL    HW110765  14.198  11.194  12.183
 2997SOL    HW210766  14.345  11.225  12.167
 2998SOL     OW10767   1.391  13.288   3.383
 2998SOL    HW110768   1.344  13.219   3.430
 2998SOL    HW210769   1.472  13.300   3.433
 2999SOL     OW10770   3.896   8.725   8.003
 2999SOL    HW110771   3.896   8.695   8.094
 2999SOL    HW210772   3.911   8.645   7.952
 3000SOL     OW10773   6.923   8.277   6.600
 3000SOL    HW110774   6.840   8.288   6.553
 3000SOL    HW210775   6.931   8.182   6.609
 3001SOL     OW10776  14.241  13.276   9.697
 3001SOL    HW110777  14.281  13.221   9.630
 3001SOL    HW210778  14.313  13.296   9.758
 3002SOL     OW10779   4.047  13.438   4.492
 3002SOL    HW110780   4.093  13.521   4.495
 3002SOL    HW210781   4.102  13.382   4.437
 3003SOL     OW10782   0.591  10.168   1.723
 3003SOL    HW110783   0.653  10.172   1.651
 3003SOL    HW210784   0.595  10.078   1.754
 3004SOL     OW10785   0.643  10.304   0.141
 3004SOL    HW110786   0.663  10.220   0.182
 3004SOL    HW210787   0.619  10.281   0.051
 3005SOL     OW10788   5.531  11.789  12.170
 3005SOL    HW110789   5.521  11.765  12.262
 3005SOL    HW210790   5.454  11.752  12.126
 3006SOL     OW10791  12.160  11.389   5.937
 3006SOL    HW110792  12.143  11.482   5.917
 3006SOL    HW210793  12.076  11.357   5.970
 3007SOL     OW10794   4.752   3.028   2.995
 3007SOL    HW110795   4.664   3.047   3.030
 3007SOL    HW210796   4.773   3.105   2.942
 3008SOL     OW10797  14.777  13.474  11.695
 3008SOL    HW110798  14.823  13.412  11.639
 3008SOL    HW210799  14.773  13.432  11.780
 3009SOL     OW10800   5.932   5.470   9.965
 3009SOL    HW110801   5.956   5.431  10.049
 3009SOL    HW210802   5.893   5.555   9.988
 3010SOL     OW10803   0.078  12.033   9.672
 3010SOL    HW110804   0.051  12.035   9.581
 3010SOL    HW210805   0.036  12.109   9.711
 3011SOL     OW10806   5.939   8.751   1.314
 3011SOL    HW110807   5.999   8.799   1.257
 3011SOL    HW210808   5.993   8.680   1.350
 3012SOL     OW10809  13.455   8.108  13.783
 3012SOL    HW110810  13.538   8.151  13.801
 3012SOL    HW210811  13.477   8.016  13.769
 3013SOL     OW10812  12.694   3.503  13.581
 3013SOL    HW110813  12.732   3.415  13.585
 3013SOL    HW210814  12.760   3.560  13.621
 3014SOL     OW10815  10.440   3.289   4.258
 3014SOL    HW110816  10.369   3.338   4.216
 3014SOL    HW210817  10.510   3.354   4.268
 3015SOL     OW10818  10.302   7.507   7.515
 3015SOL    HW110819  10.277   7.417   7.495
 3015SOL    HW210820  10.224   7.546   7.554
 3016SOL     OW10821   3.368  12.486   2.587
 3016SOL    HW110822   3.436  12.471   2.654
 3016SOL    HW210823   3.370  12.407   2.533
 3017SOL     OW10824  10.446  10.519   3.072
 3017SOL    HW110825  10.499  10.549   2.998
 3017SOL    HW210826  10.397  10.596   3.100
 3018SOL     OW10827   9.083   4.614   0.024
 3018SOL    HW110828   9.038   4.660   0.095
 3018SOL    HW210829   9.020   4.548  14.873
 3019SOL     OW10830   7.881   4.774  14.762
 3019SOL    HW110831   7.827   4.754  14.686
 3019SOL    HW210832   7.818   4.788  14.833
 3020SOL     OW10833   5.084   8.326  12.943
 3020SOL    HW110834   5.051   8.247  12.986
 3020SOL    HW210835   5.029   8.336  12.866
 3021SOL     OW10836   4.467  14.369  13.819
 3021SOL    HW110837   4.505  14.348  13.734
 3021SOL    HW210838   4.384  14.320  13.821
 3022SOL     OW10839   3.620   0.020   4.592
 3022SOL    HW110840   3.695   0.028   4.651
 3022SOL    HW210841   3.568   0.098   4.609
 3023SOL     OW10842  10.340   0.481   6.635
 3023SOL    HW110843  10.356   0.557   6.581
 3023SOL    HW210844  10.363   0.509   6.724
 3024SOL     OW10845   0.710   9.052   5.824
 3024SOL    HW110846   0.661   9.056   5.906
 3024SOL    HW210847   0.802   9.048   5.851
 3025SOL     OW10848   6.080   7.016   9.220
 3025SOL    HW110849   6.166   7.055   9.205
 3025SOL    HW210850   6.020   7.089   9.222
 3026SOL     OW10851   6.639   8.701   2.476
 3026SOL    HW110852   6.731   8.682   2.493
 3026SOL    HW210853   6.637   8.736   2.387
 3027SOL     OW10854  10.306   5.688   1.119
 3027SOL    HW110855  10.334   5.757   1.058
 3027SOL    HW210856  10.386   5.640   1.140
 3028SOL     OW10857  13.112   9.540  11.466
 3028SOL    HW110858  13.181   9.584  11.515
 3028SOL    HW210859  13.045   9.521  11.532
 3029SOL     OW10860  14.452   3.944   0.995
 3029SOL    HW110861  14.453   4.029   0.953
 3029SOL    HW210862  14.544   3.927   1.017
 3030SOL     OW10863   1.529   9.331  14.110
 3030SOL    HW110864   1.545   9.269  14.181
 3030SOL    HW210865   1.486   9.279  14.042
 3031SOL     OW10866   9.938  10.910   7.392
 3031SOL    HW110867   9.854  10.931   7.434
 3031SOL    HW210868   9.925  10.823   7.357
 3032SOL     OW10869   2.800  12.294  11.448
 3032SOL    HW110870   2.778  12.353  11.375
 3032SOL    HW210871   2.771  12.341  11.526
 3033SOL     OW10872   6.139   6.425   9.888
 3033SOL    HW110873   6.050   6.451   9.913
 3033SOL    HW210874   6.151   6.462   9.800
 3034SOL     OW10875   8.860   4.368   7.301
 3034SOL    HW110876   8.917   4.299   7.265
 3034SOL    HW210877   8.917   4.417   7.360
 3035SOL     OW10878   3.291   8.285  10.562
 3035SOL    HW110879   3.223   8.217  10.559
 3035SOL    HW210880   3.333   8.273  10.647
 3036SOL     OW10881   9.062   8.145  12.979
 3036SOL    HW110882   8.971   8.141  13.010
 3036SOL    HW210883   9.055   8.130  12.885
 3037SOL     OW10884  12.823  10.037   5.690
 3037SOL    HW110885  12.913  10.021   5.718
 3037SOL    HW210886  12.815  10.133   5.687
 3038SOL     OW10887   9.394   6.230   9.479
 3038SOL    HW110888   9.413   6.254   9.388
 3038SOL    HW210889   9.317   6.283   9.501
 3039SOL     OW10890  12.719   0.344   6.975
 3039SOL    HW110891  12.797   0.396   6.955
 3039SOL    HW210892  12.730   0.318   7.067
 3040SOL     OW10893   7.497  10.559  14.347
 3040SOL    HW110894   7.555  10.635  14.350
 3040SOL    HW210895   7.547  10.492  14.301
 3041SOL     OW10896   6.998   4.829   3.082
 3041SOL    HW110897   7.037   4.798   3.000
 3041SOL    HW210898   7.041   4.776   3.150
 3042SOL     OW10899   4.017  11.411   4.100
 3042SOL    HW110900   4.031  11.327   4.057
 3042SOL    HW210901   3.923  11.413   4.119
 3043SOL     OW10902  10.934   4.675  11.352
 3043SOL    HW110903  10.963   4.590  11.385
 3043SOL    HW210904  10.929   4.664  11.257
 3044SOL     OW10905  10.085   1.383  13.367
 3044SOL    HW110906  10.148   1.317  13.337
 3044SOL    HW210907  10.083   1.447  13.297
 3045SOL     OW10908   4.481   2.929  10.411
 3045SOL    HW110909   4.427   2.891  10.480
 3045SOL    HW210910   4.551   2.974  10.457
 3046SOL     OW10911  11.576   3.056   2.451
 3046SOL    HW110912  11.645   3.075   2.387
 3046SOL    HW210913  11.616   2.994   2.512
 3047SOL     OW10914   0.570   9.758  11.079
 3047SOL    HW110915   0.610   9.784  11.163
 3047SOL    HW210916   0.488   9.807  11.076
 3048SOL     OW10917   9.735  12.794  10.043
 3048SOL    HW110918   9.716  12.826  10.131
 3048SOL    HW210919   9.808  12.733  10.054
 3049SOL     OW10920  12.758  11.228   9.595
 3049SOL    HW110921  12.822  11.224   9.666
 3049SOL    HW210922  12.693  11.162   9.617
 3050SOL     OW10923  10.268   2.238   7.412
 3050SOL    HW110924  10.233   2.174   7.473
 3050SOL    HW210925  10.363   2.227   7.418
 3051SOL     OW10926   1.199   8.039   1.628
 3051SOL    HW110927   1.220   8.044   1.722
 3051SOL    HW210928   1.104   8.043   1.625
 3052SOL     OW10929  12.210  14.616  10.940
 3052SOL    HW110930  12.252  14.599  11.024
 3052SOL    HW210931  12.196  14.711  10.939
 3053SOL     OW10932  12.144  13.537   8.699
 3053SOL    HW110933  12.239  13.548   8.711
 3053SOL    HW210934  12.128  13.559   8.608
 3054SOL     OW10935  13.949   0.244   6.600
 3054SOL    HW110936  14.032   0.231   6.646
 3054SOL    HW210937  13.886   0.260   6.670
 3055SOL     OW10938   0.652  11.193   5.570
 3055SOL    HW110939   0.669  11.150   5.486
 3055SOL    HW210940   0.722  11.258   5.578
 3056SOL     OW10941   4.773  14.252  10.020
 3056SOL    HW110942   4.699  14.228   9.965
 3056SOL    HW210943   4.818  14.170  10.037
 3057SOL     OW10944  14.506  10.902  10.543
 3057SOL    HW110945  14.458  10.827  10.509
 3057SOL    HW210946  14.573  10.865  10.600
 3058SOL     OW10947  14.528  12.028   3.343
 3058SOL    HW110948  14.572  11.961   3.291
 3058SOL    HW210949  14.454  12.056   3.289
 3059SOL     OW10950   5.530  11.964  13.798
 3059SOL    HW110951   5.482  11.953  13.880
 3059SOL    HW210952   5.617  11.931  13.816
 3060SOL     OW10953  10.055   0.861  11.831
 3060SOL    HW110954  10.004   0.783  11.811
 3060SOL    HW210955  10.032   0.923  11.763
 3061SOL     OW10956  14.870   2.840   8.759
 3061SOL    HW110957  14.864   2.831   8.854
 3061SOL    HW210958   0.015   2.752   8.728
 3062SOL     OW10959   5.981  10.152   9.428
 3062SOL    HW110960   5.960  10.182   9.517
 3062SOL    HW210961   5.938  10.215   9.371
 3063SOL     OW10962   4.256  12.890   1.892
 3063SOL    HW110963   4.178  12.862   1.940
 3063SOL    HW210964   4.281  12.813   1.841
 3064SOL     OW10965   3.647   7.443   9.564
 3064SOL    HW110966   3.675   7.380   9.630
 3064SOL    HW210967   3.587   7.393   9.508
 3065SOL     OW10968  12.980   4.745   1.684
 3065SOL    HW110969  13.056   4.711   1.637
 3065SOL    HW210970  12.906   4.694   1.650
 3066SOL     OW10971   7.215   4.460   7.825
 3066SOL    HW110972   7.210   4.548   7.788
 3066SOL    HW210973   7.137   4.415   7.793
 3067SOL     OW10974  12.204   3.298   6.263
 3067SOL    HW110975  12.233   3.315   6.353
 3067SOL    HW210976  12.281   3.260   6.220
 3068SOL     OW10977   2.024   8.636  12.536
 3068SOL    HW110978   1.958   8.606  12.599
 3068SOL    HW210979   1.978   8.637  12.452
 3069SOL     OW10980   4.411   7.883   2.534
 3069SOL    HW110981   4.496   7.853   2.501
 3069SOL    HW210982   4.361   7.906   2.456
 3070SOL     OW10983   0.663  13.060   1.660
 3070SOL    HW110984   0.720  13.116   1.607
 3070SOL    HW210985   0.690  12.971   1.638
 3071SOL     OW10986   6.137  12.199   5.852
 3071SOL    HW110987   6.095  12.206   5.766
 3071SOL    HW210988   6.065  12.184   5.913
 3072SOL     OW10989   5.195   6.009   0.666
 3072SOL    HW110990   5.209   5.951   0.741
 3072SOL    HW210991   5.257   6.081   0.679
 3073SOL     OW10992   0.469   5.122   8.417
 3073SOL    HW110993   0.502   5.037   8.388
 3073SOL    HW210994   0.378   5.104   8.443
 3074SOL     OW10995  13.853  12.194   8.808
 3074SOL    HW110996  13.947  12.208   8.817
 3074SOL    HW210997  13.821  12.185   8.898
 3075SOL     OW10998  14.539   6.945   4.533
 3075SOL    HW110999  14.471   6.992   4.580
 3075SOL    HW211000  14.612   7.007   4.526
 3076SOL     OW11001   5.683  12.856  12.341
 3076SOL    HW111002   5.702  12.765  12.360
 3076SOL    HW211003   5.722  12.905  12.414
 3077SOL     OW11004   9.365   8.474  13.670
 3077SOL    HW111005   9.364   8.397  13.727
 3077SOL    HW211006   9.454   8.477  13.635
 3078SOL     OW11007   3.078   3.818   2.133
 3078SOL    HW111008   3.069   3.890   2.195
 3078SOL    HW211009   3.113   3.858   2.053
 3079SOL     OW11010   5.347   9.716   2.183
 3079SOL    HW111011   5.405   9.642   2.163
 3079SOL    HW211012   5.388   9.791   2.140
 3080SOL     OW11013   6.337  11.910   6.567
 3080SOL    HW111014   6.369  11.998   6.546
 3080SOL    HW211015   6.265  11.895   6.506
 3081SOL     OW11016   5.082   3.042   9.845
 3081SOL    HW111017   5.044   2.954   9.858
 3081SOL    HW211018   5.058   3.065   9.756
 3082SOL     OW11019   6.728   3.118  14.455
 3082SOL    HW111020   6.773   3.047  14.410
 3082SOL    HW211021   6.729   3.091  14.547
 3083SOL     OW11022  14.233   8.012  12.728
 3083SOL    HW111023  14.215   8.082  12.665
 3083SOL    HW211024  14.197   7.933  12.686
 3084SOL     OW11025   2.774   8.087   8.933
 3084SOL    HW111026   2.705   8.152   8.923
 3084SOL    HW211027   2.728   8.007   8.959
 3085SOL     OW11028   6.882   8.751   2.009
 3085SOL    HW111029   6.941   8.814   2.049
 3085SOL    HW211030   6.899   8.758   1.915
 3086SOL     OW11031   2.431   4.757   0.540
 3086SOL    HW111032   2.518   4.736   0.507
 3086SOL    HW211033   2.377   4.767   0.461
 3087SOL     OW11034   7.153   1.821   7.090
 3087SOL    HW111035   7.112   1.902   7.058
 3087SOL    HW211036   7.246   1.841   7.096
 3088SOL     OW11037   0.437   0.479   7.603
 3088SOL    HW111038   0.438   0.547   7.536
 3088SOL    HW211039   0.434   0.397   7.554
 3089SOL     OW11040   3.568   7.745   7.766
 3089SOL    HW111041   3.585   7.703   7.850
 3089SOL    HW211042   3.645   7.724   7.713
 3090SOL     OW11043  12.243   5.486   4.617
 3090SOL    HW111044  12.326   5.441   4.603
 3090SOL    HW211045  12.242   5.506   4.711
 3091SOL     OW11046   0.027  14.764   5.555
 3091SOL    HW111047   0.014  14.678   5.517
 3091SOL    HW211048  14.838  14.819   5.513
 3092SOL     OW11049   9.245   1.778  13.424
 3092SOL    HW111050   9.250   1.856  13.480
 3092SOL    HW211051   9.221   1.708  13.484
 3093SOL     OW11052   4.080  12.139  11.801
 3093SOL    HW111053   4.036  12.178  11.725
 3093SOL    HW211054   4.021  12.159  11.875
 3094SOL     OW11055   1.232   0.641  13.309
 3094SOL    HW111056   1.231   0.563  13.254
 3094SOL    HW211057   1.141   0.651  13.338
 3095SOL     OW11058   7.051   2.579  10.353
 3095SOL    HW111059   6.993   2.526  10.299
 3095SOL    HW211060   6.999   2.657  10.374
 3096SOL     OW11061  10.328   2.829  12.037
 3096SOL    HW111062  10.409   2.849  11.991
 3096SOL    HW211063  10.261   2.828  11.968
 3097SOL     OW11064   5.027   1.140   9.856
 3097SOL    HW111065   5.091   1.177   9.795
 3097SOL    HW211066   5.077   1.118   9.934
 3098SOL     OW11067   6.306   0.902   1.724
 3098SOL    HW111068   6.222   0.922   1.767
 3098SOL    HW211069   6.287   0.909   1.631
 3099SOL     OW11070  11.891   0.955   0.853
 3099SOL    HW111071  11.844   1.037   0.840
 3099SOL    HW211072  11.971   0.979   0.900
 3100SOL     OW11073   7.256   3.871   9.606
 3100SOL    HW111074   7.266   3.962   9.633
 3100SOL    HW211075   7.322   3.858   9.538
 3101SOL     OW11076  10.708   7.919   2.306
 3101SOL    HW111077  10.688   7.983   2.374
 3101SOL    HW211078  10.654   7.946   2.231
 3102SOL     OW11079   9.316  10.647  14.847
 3102SOL    HW111080   9.309  10.557  14.817
 3102SOL    HW211081   9.403  10.652   0.010
 3103SOL     OW11082   1.889  11.789  11.971
 3103SOL    HW111083   1.832  11.715  11.949
 3103SOL    HW211084   1.978  11.755  11.961
 3104SOL     OW11085   6.407   7.172   2.074
 3104SOL    HW111086   6.417   7.220   1.992
 3104SOL    HW211087   6.497   7.153   2.101
 3105SOL     OW11088   7.878   1.058   9.879
 3105SOL    HW111089   7.966   1.019   9.874
 3105SOL    HW211090   7.820   0.989   9.848
 3106SOL     OW11091   9.062   5.579   8.027
 3106SOL    HW111092   9.144   5.585   8.076
 3106SOL    HW211093   9.005   5.527   8.084
 3107SOL     OW11094   1.222   2.924   7.485
 3107SOL    HW111095   1.239   2.879   7.403
 3107SOL    HW211096   1.129   2.910   7.502
 3108SOL     OW11097   3.247   2.985   0.778
 3108SOL    HW111098   3.277   3.073   0.804
 3108SOL    HW211099   3.187   3.001   0.706
 3109SOL     OW11100   4.463   5.545   2.988
 3109SOL    HW111101   4.471   5.474   3.052
 3109SOL    HW211102   4.553   5.575   2.974
 3110SOL     OW11103   5.528  10.094  13.309
 3110SOL    HW111104   5.457  10.108  13.371
 3110SOL    HW211105   5.606  10.126  13.355
 3111SOL     OW11106   0.212   8.576   1.167
 3111SOL    HW111107   0.194   8.491   1.128
 3111SOL    HW211108   0.250   8.556   1.252
 3112SOL     OW11109  11.803  10.016   5.230
 3112SOL    HW111110  11.744   9.966   5.287
 3112SOL    HW211111  11.888  10.012   5.274
 3113SOL     OW11112   0.976   2.193   6.474
 3113SOL    HW111113   0.977   2.142   6.393
 3113SOL    HW211114   1.062   2.235   6.477
 3114SOL     OW11115   6.550  14.106   7.185
 3114SOL    HW111116   6.620  14.163   7.218
 3114SOL    HW211117   6.547  14.124   7.091
 3115SOL     OW11118  12.819   2.100  10.476
 3115SOL    HW111119  12.760   2.039  10.521
 3115SOL    HW211120  12.847   2.161  10.545
 3116SOL     OW11121   8.630   8.143   2.647
 3116SOL    HW111122   8.603   8.225   2.607
 3116SOL    HW211123   8.620   8.077   2.578
 3117SOL     OW11124   9.740  14.668  13.534
 3117SOL    HW111125   9.699  14.681  13.448
 3117SOL    HW211126   9.806  14.737  13.540
 3118SOL     OW11127   1.787  13.875   6.099
 3118SOL    HW111128   1.787  13.926   6.018
 3118SOL    HW211129   1.720  13.917   6.153
 3119SOL     OW11130  14.370   9.202   4.926
 3119SOL    HW111131  14.289   9.158   4.903
 3119SOL    HW211132  14.438   9.150   4.883
 3120SOL     OW11133   9.980  10.772  10.081
 3120SOL    HW111134   9.948  10.730  10.160
 3120SOL    HW211135   9.978  10.866  10.100
 3121SOL     OW11136   5.242  11.739   5.221
 3121SOL    HW111137   5.163  11.729   5.168
 3121SOL    HW211138   5.265  11.650   5.247
 3122SOL     OW11139   0.469  11.976   3.382
 3122SOL    HW111140   0.530  12.050   3.391
 3122SOL    HW211141   0.386  12.010   3.414
 3123SOL     OW11142   4.196   7.056   2.869
 3123SOL    HW111143   4.235   7.091   2.789
 3123SOL    HW211144   4.194   7.131   2.929
 3124SOL     OW11145  14.287   5.006  14.098
 3124SOL    HW111146  14.224   4.986  14.028
 3124SOL    HW211147  14.235   5.007  14.178
 3125SOL     OW11148   7.592  11.725   1.663
 3125SOL    HW111149   7.670  11.676   1.691
 3125SOL    HW211150   7.578  11.789   1.734
 3126SOL     OW11151  11.020  13.054   2.529
 3126SOL    HW111152  11.016  13.148   2.550
 3126SOL    HW211153  11.082  13.019   2.593
 3127SOL     OW11154  12.865  13.728   4.936
 3127SOL    HW111155  12.830  13.653   4.983
 3127SOL    HW211156  12.884  13.694   4.848
 3128SOL     OW11157  13.468  13.510  12.069
 3128SOL    HW111158  13.417  13.472  11.997
 3128SOL    HW211159  13.448  13.453  12.144
 3129SOL     OW11160   2.216   6.216  10.656
 3129SOL    HW111161   2.287   6.171  10.610
 3129SOL    HW211162   2.201   6.164  10.735
 3130SOL     OW11163   7.414  14.194   9.396
 3130SOL    HW111164   7.405  14.289   9.402
 3130SOL    HW211165   7.339  14.160   9.446
 3131SOL     OW11166  13.713  11.939   2.911
 3131SOL    HW111167  13.794  11.890   2.926
 3131SOL    HW211168  13.657  11.914   2.984
 3132SOL     OW11169   1.521   3.672  10.863
 3132SOL    HW111170   1.545   3.747  10.918
 3132SOL    HW211171   1.597   3.614  10.867
 3133SOL     OW11172   1.277   0.772   5.734
 3133SOL    HW111173   1.217   0.715   5.686
 3133SOL    HW211174   1.313   0.716   5.803
 3134SOL     OW11175  13.564   6.679   7.171
 3134SOL    HW111176  13.508   6.653   7.098
 3134SOL    HW211177  13.503   6.710   7.238
 3135SOL     OW11178   2.035   6.215   1.797
 3135SOL    HW111179   1.967   6.254   1.743
 3135SOL    HW211180   2.021   6.251   1.884
 3136SOL     OW11181   6.894   9.907  13.372
 3136SOL    HW111182   6.948   9.911  13.294
 3136SOL    HW211183   6.896   9.997  13.407
 3137SOL     OW11184  13.870   8.474   0.571
 3137SOL    HW111185  13.805   8.437   0.631
 3137SOL    HW211186  13.891   8.560   0.609
 3138SOL     OW11187   9.617  11.216   7.873
 3138SOL    HW111188   9.613  11.287   7.808
 3138SOL    HW211189   9.550  11.238   7.937
 3139SOL     OW11190  14.658   6.492   5.646
 3139SOL    HW111191  14.707   6.529   5.720
 3139SOL    HW211192  14.706   6.413   5.622
 3140SOL     OW11193   7.233   2.304   4.411
 3140SOL    HW111194   7.166   2.236   4.400
 3140SOL    HW211195   7.314   2.262   4.383
 3141SOL     OW11196   1.330   1.616   1.316
 3141SOL    HW111197   1.416   1.575   1.310
 3141SOL    HW211198   1.293   1.609   1.228
 3142SOL     OW11199   0.353   3.460   1.769
 3142SOL    HW111200   0.346   3.510   1.851
 3142SOL    HW211201   0.444   3.431   1.767
 3143SOL     OW11202   7.101   6.476  14.733
 3143SOL    HW111203   7.109   6.511  14.822
 3143SOL    HW211204   7.014   6.502  14.705
 3144SOL     OW11205   5.323  10.940   3.421
 3144SOL    HW111206   5.414  10.970   3.423
 3144SOL    HW211207   5.309  10.912   3.331
 3145SOL     OW11208   3.653  12.407   6.179
 3145SOL    HW111209   3.695  12.489   6.204
 3145SOL    HW211210   3.570  12.406   6.227
 3146SOL     OW11211   7.391   4.352  12.944
 3146SOL    HW111212   7.365   4.442  12.921
 3146SOL    HW211213   7.412   4.312  12.860
 3147SOL     OW11214   5.456   6.254   0.833
 3147SOL    HW111215   5.393   6.187   0.861
 3147SOL    HW211216   5.529   6.245   0.895
 3148SOL     OW11217  11.858   2.345  10.036
 3148SOL    HW111218  11.859   2.418  10.098
 3148SOL    HW211219  11.949   2.339  10.004
 3149SOL     OW11220  10.320   1.568   5.372
 3149SOL    HW111221  10.265   1.633   5.417
 3149SOL    HW211222  10.355   1.514   5.443
 3150SOL     OW11223   3.739   4.863   2.444
 3150SOL    HW111224   3.804   4.881   2.376
 3150SOL    HW211225   3.729   4.946   2.491
 3151SOL     OW11226   4.396   6.124   2.441
 3151SOL    HW111227   4.452   6.050   2.462
 3151SOL    HW211228   4.407   6.185   2.514
 3152SOL     OW11229  11.374   1.681  13.262
 3152SOL    HW111230  11.320   1.603  13.275
 3152SOL    HW211231  11.464   1.648  13.261
 3153SOL     OW11232   0.611  11.533   0.125
 3153SOL    HW111233   0.539  11.470   0.111
 3153SOL    HW211234   0.685  11.479   0.153
 3154SOL     OW11235   5.075   9.791  12.791
 3154SOL    HW111236   5.013   9.854  12.828
 3154SOL    HW211237   5.141   9.779  12.859
 3155SOL     OW11238   0.385   2.154  12.274
 3155SOL    HW111239   0.479   2.159  12.290
 3155SOL    HW211240   0.355   2.082  12.329
 3156SOL     OW11241  11.410   3.671  11.648
 3156SOL    HW111242  11.415   3.721  11.566
 3156SOL    HW211243  11.325   3.695  11.685
 3157SOL     OW11244   2.491   5.213  14.090
 3157SOL    HW111245   2.498   5.244  14.180
 3157SOL    HW211246   2.523   5.286  14.036
 3158SOL     OW11247   9.019  12.212  12.770
 3158SOL    HW111248   9.110  12.241  12.775
 3158SOL    HW211249   8.999  12.182  12.859
 3159SOL     OW11250   2.671   6.035   9.526
 3159SOL    HW111251   2.589   5.991   9.507
 3159SOL    HW211252   2.727   5.967   9.565
 3160SOL     OW11253  12.969   3.652  10.370
 3160SOL    HW111254  12.900   3.718  10.378
 3160SOL    HW211255  12.922   3.569  10.360
 3161SOL     OW11256   4.625   0.276   9.375
 3161SOL    HW111257   4.643   0.368   9.355
 3161SOL    HW211258   4.569   0.280   9.453
 3162SOL     OW11259   9.811  10.282   4.260
 3162SOL    HW111260   9.764  10.254   4.182
 3162SOL    HW211261   9.745  10.282   4.330
 3163SOL     OW11262  12.469   3.593  13.950
 3163SOL    HW111263  12.398   3.656  13.947
 3163SOL    HW211264  12.460   3.543  13.869
 3164SOL     OW11265   3.576   5.423  10.364
 3164SOL    HW111266   3.659   5.463  10.340
 3164SOL    HW211267   3.600   5.351  10.423
 3165SOL     OW11268   2.925   0.969   4.411
 3165SOL    HW111269   2.853   0.906   4.415
 3165SOL    HW211270   2.907   1.021   4.332
 3166SOL     OW11271  10.494  11.203   0.698
 3166SOL    HW111272  10.573  11.257   0.697
 3166SOL    HW211273  10.422  11.266   0.694
 3167SOL     OW11274  13.046   7.903   2.624
 3167SOL    HW111275  13.127   7.902   2.573
 3167SOL    HW211276  13.075   7.897   2.715
 3168SOL     OW11277  14.143  14.517  14.577
 3168SOL    HW111278  14.229  14.478  14.557
 3168SOL    HW211279  14.081  14.444  14.569
 3169SOL     OW11280   7.767   6.842  13.837
 3169SOL    HW111281   7.863   6.835  13.839
 3169SOL    HW211282   7.746   6.905  13.906
 3170SOL     OW11283   5.770  12.110   2.627
 3170SOL    HW111284   5.694  12.082   2.576
 3170SOL    HW211285   5.825  12.032   2.632
 3171SOL     OW11286  11.321   5.734   6.318
 3171SOL    HW111287  11.314   5.638   6.316
 3171SOL    HW211288  11.232   5.763   6.338
 3172SOL     OW11289  13.275   3.682  12.026
 3172SOL    HW111290  13.302   3.713  12.113
 3172SOL    HW211291  13.331   3.731  11.965
 3173SOL     OW11292  12.534   7.300   6.574
 3173SOL    HW111293  12.476   7.229   6.548
 3173SOL    HW211294  12.493   7.379   6.540
 3174SOL     OW11295   5.268   7.667   6.460
 3174SOL    HW111296   5.291   7.581   6.496
 3174SOL    HW211297   5.325   7.678   6.385
 3175SOL     OW11298  14.014   6.565   2.268
 3175SOL    HW111299  13.970   6.511   2.334
 3175SOL    HW211300  13.998   6.520   2.185
 3176SOL     OW11301   8.974  12.637  14.564
 3176SOL    HW111302   9.002  12.599  14.481
 3176SOL    HW211303   8.879  12.647  14.555
 3177SOL     OW11304  13.793   7.817   8.428
 3177SOL    HW111305  13.851   7.860   8.366
 3177SOL    HW211306  13.707   7.819   8.386
 3178SOL     OW11307   4.441   8.045   5.270
 3178SOL    HW111308   4.460   8.111   5.336
 3178SOL    HW211309   4.366   8.079   5.222
 3179SOL     OW11310  14.317  13.767   3.887
 3179SOL    HW111311  14.402  13.738   3.856
 3179SOL    HW211312  14.303  13.852   3.844
 3180SOL     OW11313   8.401  11.902  12.785
 3180SOL    HW111314   8.426  11.810  12.791
 3180SOL    HW211315   8.306  11.901  12.774
 3181SOL     OW11316   3.070  10.174   3.933
 3181SOL    HW111317   3.035  10.088   3.952
 3181SOL    HW211318   3.133  10.159   3.862
 3182SOL     OW11319   3.824   0.109   0.576
 3182SOL    HW111320   3.752   0.161   0.611
 3182SOL    HW211321   3.865   0.069   0.654
 3183SOL     OW11322   4.735  11.236   0.458
 3183SOL    HW111323   4.690  11.306   0.411
 3183SOL    HW211324   4.667  11.170   0.474
 3184SOL     OW11325   3.236  11.701   6.788
 3184SOL    HW111326   3.185  11.766   6.740
 3184SOL    HW211327   3.327  11.732   6.783
 3185SOL     OW11328   4.113   2.116   5.219
 3185SOL    HW111329   4.041   2.166   5.180
 3185SOL    HW211330   4.071   2.066   5.290
 3186SOL     OW11331   5.731  11.308  14.290
 3186SOL    HW111332   5.791  11.234  14.280
 3186SOL    HW211333   5.757  11.349  14.372
 3187SOL     OW11334   7.792   9.289   6.441
 3187SOL    HW111335   7.712   9.332   6.411
 3187SOL    HW211336   7.841   9.357   6.487
 3188SOL     OW11337  13.982   0.702   7.848
 3188SOL    HW111338  13.898   0.672   7.884
 3188SOL    HW211339  14.018   0.624   7.806
 3189SOL     OW11340   1.883   7.358   1.890
 3189SOL    HW111341   1.886   7.287   1.954
 3189SOL    HW211342   1.971   7.396   1.892
 3190SOL     OW11343  14.096   5.404   8.593
 3190SOL    HW111344  14.126   5.339   8.656
 3190SOL    HW211345  14.097   5.358   8.509
 3191SOL     OW11346  10.886   7.854   5.737
 3191SOL    HW111347  10.939   7.931   5.713
 3191SOL    HW211348  10.935   7.812   5.807
 3192SOL     OW11349   0.960   3.541   0.200
 3192SOL    HW111350   0.893   3.472   0.200
 3192SOL    HW211351   0.997   3.538   0.288
 3193SOL     OW11352   1.016  12.438  13.060
 3193SOL    HW111353   1.017  12.530  13.032
 3193SOL    HW211354   0.977  12.391  12.987
 3194SOL     OW11355   9.865  10.648   7.950
 3194SOL    HW111356   9.850  10.742   7.965
 3194SOL    HW211357   9.783  10.607   7.976
 3195SOL     OW11358   1.500  12.392   8.974
 3195SOL    HW111359   1.572  12.389   8.910
 3195SOL    HW211360   1.504  12.307   9.018
 3196SOL     OW11361  13.395   7.558   4.014
 3196SOL    HW111362  13.481   7.523   3.991
 3196SOL    HW211363  13.409   7.600   4.099
 3197SOL     OW11364  11.235  11.499   8.925
 3197SOL    HW111365  11.229  11.408   8.954
 3197SOL    HW211366  11.177  11.503   8.849
 3198SOL     OW11367   8.455   2.343   6.808
 3198SOL    HW111368   8.528   2.392   6.847
 3198SOL    HW211369   8.463   2.359   6.714
 3199SOL     OW11370   5.869  11.008  14.542
 3199SOL    HW111371   5.808  11.019  14.470
 3199SOL    HW211372   5.902  11.096  14.560
 3200SOL     OW11373   9.801   0.572   6.980
 3200SOL    HW111374   9.829   0.541   6.893
 3200SOL    HW211375   9.728   0.516   7.003
 3201SOL     OW11376  12.061   0.427   6.285
 3201SOL    HW111377  12.086   0.463   6.371
 3201SOL    HW211378  11.970   0.455   6.273
 3202SOL     OW11379  11.043   1.721   4.007
 3202SOL    HW111380  11.091   1.803   3.991
 3202SOL    HW211381  11.023   1.689   3.919
 3203SOL     OW11382   7.549  10.179   1.860
 3203SOL    HW111383   7.619  10.229   1.904
 3203SOL    HW211384   7.520  10.237   1.789
 3204SOL     OW11385   5.475  11.997   6.885
 3204SOL    HW111386   5.546  11.937   6.859
 3204SOL    HW211387   5.401  11.940   6.905
 3205SOL     OW11388   6.442   2.689  10.108
 3205SOL    HW111389   6.532   2.719  10.094
 3205SOL    HW211390   6.446   2.594  10.101
 3206SOL     OW11391   1.957   9.100   8.528
 3206SOL    HW111392   1.922   9.012   8.544
 3206SOL    HW211393   1.884   9.159   8.547
 3207SOL     OW11394  13.845  14.826   8.787
 3207SOL    HW111395  13.906  14.756   8.765
 3207SOL    HW211396  13.771  14.813   8.729
 3208SOL     OW11397   5.660   9.645  11.161
 3208SOL    HW111398   5.604   9.626  11.086
 3208SOL    HW211399   5.720   9.570  11.165
 3209SOL     OW11400   8.943   5.467  11.803
 3209SOL    HW111401   8.946   5.392  11.743
 3209SOL    HW211402   9.033   5.479  11.831
 3210SOL     OW11403   5.282  12.526  12.269
 3210SOL    HW111404   5.279  12.482  12.184
 3210SOL    HW211405   5.357  12.585  12.263
 3211SOL     OW11406   8.146   9.153   5.223
 3211SOL    HW111407   8.050   9.157   5.220
 3211SOL    HW211408   8.167   9.153   5.316
 3212SOL     OW11409   2.821   2.422   3.731
 3212SOL    HW111410   2.788   2.416   3.642
 3212SOL    HW211411   2.905   2.376   3.729
 3213SOL     OW11412   6.274   5.454   3.527
 3213SOL    HW111413   6.261   5.432   3.434
 3213SOL    HW211414   6.336   5.527   3.526
 3214SOL     OW11415   4.843   0.946   0.705
 3214SOL    HW111416   4.835   1.009   0.633
 3214SOL    HW211417   4.916   0.980   0.758
 3215SOL     OW11418   0.054  14.608  13.741
 3215SOL    HW111419   0.045  14.702  13.726
 3215SOL    HW211420  14.871  14.590  13.813
 3216SOL     OW11421  10.738   5.758  14.669
 3216SOL    HW111422  10.810   5.821  14.677
 3216SOL    HW211423  10.703   5.772  14.581
 3217SOL     OW11424   8.270  12.496  11.634
 3217SOL    HW111425   8.332  12.425  11.617
 3217SOL    HW211426   8.323  12.575  11.634
 3218SOL     OW11427  12.804  14.076   8.105
 3218SOL    HW111428  12.722  14.125   8.096
 3218SOL    HW211429  12.780  13.999   8.155
 3219SOL     OW11430   5.571   1.623   3.517
 3219SOL    HW111431   5.486   1.585   3.497
 3219SOL    HW211432   5.634   1.561   3.481
 3220SOL     OW11433   3.155   3.587   1.771
 3220SOL    HW111434   3.169   3.500   1.806
 3220SOL    HW211435   3.196   3.646   1.834
 3221SOL     OW11436  11.807  10.655  14.836
 3221SOL    HW111437  11.743  10.665  14.765
 3221SOL    HW211438  11.802  10.738   0.007
 3222SOL     OW11439  13.028   5.234   1.496
 3222SOL    HW111440  13.067   5.312   1.457
 3222SOL    HW211441  12.949   5.266   1.539
 3223SOL     OW11442  11.395   3.067   3.751
 3223SOL    HW111443  11.463   3.123   3.789
 3223SOL    HW211444  11.353   3.026   3.827
 3224SOL     OW11445   7.271  11.267  13.667
 3224SOL    HW111446   7.331  11.192  13.663
 3224SOL    HW211447   7.260  11.283  13.761
 3225SOL     OW11448   4.315  10.127   4.288
 3225SOL    HW111449   4.321  10.084   4.202
 3225SOL    HW211450   4.304  10.220   4.268
 3226SOL     OW11451   3.387  13.897   2.169
 3226SOL    HW111452   3.324  13.951   2.217
 3226SOL    HW211453   3.362  13.908   2.077
 3227SOL     OW11454   4.555   9.198   0.178
 3227SOL    HW111455   4.464   9.221   0.191
 3227SOL    HW211456   4.599   9.281   0.159
 3228SOL     OW11457   9.860   5.665   4.105
 3228SOL    HW111458   9.779   5.636   4.147
 3228SOL    HW211459   9.924   5.598   4.128
 3229SOL     OW11460   6.202   3.410   9.785
 3229SOL    HW111461   6.137   3.415   9.715
 3229SOL    HW211462   6.213   3.501   9.813
 3230SOL     OW11463  12.467   6.204  12.031
 3230SOL    HW111464  12.481   6.183  12.123
 3230SOL    HW211465  12.462   6.119  11.987
 3231SOL     OW11466  14.314  13.114   6.913
 3231SOL    HW111467  14.298  13.042   6.974
 3231SOL    HW211468  14.229  13.127   6.870
 3232SOL     OW11469  11.924  11.926   6.292
 3232SOL    HW111470  11.998  11.896   6.239
 3232SOL    HW211471  11.883  11.846   6.325
 3233SOL     OW11472   3.080  11.947   1.137
 3233SOL    HW111473   3.040  11.995   1.064
 3233SOL    HW211474   3.165  11.919   1.103
 3234SOL     OW11475   2.258   1.697  13.481
 3234SOL    HW111476   2.250   1.602  13.491
 3234SOL    HW211477   2.214   1.717  13.398
 3235SOL     OW11478   6.260   7.955   9.505
 3235SOL    HW111479   6.265   7.870   9.462
 3235SOL    HW211480   6.325   7.952   9.574
 3236SOL     OW11481  11.478   7.454  11.309
 3236SOL    HW111482  11.468   7.494  11.223
 3236SOL    HW211483  11.455   7.362  11.297
 3237SOL     OW11484   5.621   4.359   5.752
 3237SOL    HW111485   5.664   4.286   5.708
 3237SOL    HW211486   5.528   4.339   5.747
 3238SOL     OW11487   4.924  10.483   2.841
 3238SOL    HW111488   4.906  10.526   2.925
 3238SOL    HW211489   4.995  10.534   2.803
 3239SOL     OW11490  11.553   6.258   1.697
 3239SOL    HW111491  11.569   6.309   1.618
 3239SOL    HW211492  11.517   6.321   1.760
 3240SOL     OW11493   6.327  10.397  11.587
 3240SOL    HW111494   6.357  10.318  11.542
 3240SOL    HW211495   6.366  10.391  11.674
 3241SOL     OW11496   1.426   0.161   9.279
 3241SOL    HW111497   1.380   0.237   9.314
 3241SOL    HW211498   1.442   0.105   9.355
 3242SOL     OW11499  12.944   7.854   5.630
 3242SOL    HW111500  12.976   7.782   5.576
 3242SOL    HW211501  12.849   7.847   5.625
 3243SOL     OW11502  10.738   5.657  10.765
 3243SOL    HW111503  10.703   5.626  10.848
 3243SOL    HW211504  10.811   5.714  10.790
 3244SOL     OW11505  12.544   2.973   3.286
 3244SOL    HW111506  12.528   2.950   3.194
 3244SOL    HW211507  12.576   3.063   3.282
 3245SOL     OW11508   5.770  13.833  12.437
 3245SOL    HW111509   5.705  13.763  12.436
 3245SOL    HW211510   5.772  13.866  12.347
 3246SOL     OW11511   7.769   2.504   9.066
 3246SOL    HW111512   7.721   2.566   9.120
 3246SOL    HW211513   7.831   2.557   9.016
 3247SOL     OW11514   3.884   9.662   1.973
 3247SOL    HW111515   3.918   9.601   2.039
 3247SOL    HW211516   3.836   9.607   1.911
 3248SOL     OW11517   7.668   4.676   2.975
 3248SOL    HW111518   7.614   4.614   3.024
 3248SOL    HW211519   7.756   4.666   3.011
 3249SOL     OW11520   9.167  10.589   5.467
 3249SOL    HW111521   9.172  10.529   5.393
 3249SOL    HW211522   9.255  10.627   5.473
 3250SOL     OW11523  12.589   3.136   2.154
 3250SOL    HW111524  12.575   3.231   2.160
 3250SOL    HW211525  12.529   3.099   2.218
 3251SOL     OW11526  14.603  12.059   2.478
 3251SOL    HW111527  14.647  12.090   2.398
 3251SOL    HW211528  14.673  12.018   2.529
 3252SOL     OW11529   2.864   8.882  14.532
 3252SOL    HW111530   2.929   8.900  14.465
 3252SOL    HW211531   2.908   8.823  14.594
 3253SOL     OW11532   4.337   3.963   0.862
 3253SOL    HW111533   4.280   3.980   0.787
 3253SOL    HW211534   4.278   3.959   0.937
 3254SOL     OW11535   5.882   3.775  10.796
 3254SOL    HW111536   5.801   3.746  10.753
 3254SOL    HW211537   5.881   3.870  10.788
 3255SOL     OW11538   0.455   9.618   0.492
 3255SOL    HW111539   0.475   9.525   0.477
 3255SOL    HW211540   0.439   9.623   0.587
 3256SOL     OW11541   5.144   7.443   6.836
 3256SOL    HW111542   5.050   7.459   6.844
 3256SOL    HW211543   5.150   7.350   6.812
 3257SOL     OW11544   5.156   4.025  12.220
 3257SOL    HW111545   5.210   4.103  12.209
 3257SOL    HW211546   5.128   4.028  12.312
 3258SOL     OW11547   9.563  12.836   1.679
 3258SOL    HW111548   9.638  12.780   1.658
 3258SOL    HW211549   9.507  12.832   1.601
 3259SOL     OW11550   3.564   8.221   0.063
 3259SOL    HW111551   3.598   8.172  14.865
 3259SOL    HW211552   3.498   8.279   0.026
 3260SOL     OW11553   6.615   7.450   2.299
 3260SOL    HW111554   6.598   7.410   2.384
 3260SOL    HW211555   6.677   7.520   2.317
 3261SOL     OW11556   4.464   0.689   1.504
 3261SOL    HW111557   4.410   0.652   1.574
 3261SOL    HW211558   4.524   0.749   1.549
 3262SOL     OW11559   3.371  13.531   1.061
 3262SOL    HW111560   3.288  13.486   1.078
 3262SOL    HW211561   3.347  13.623   1.057
 3263SOL     OW11562   8.180   4.110  10.796
 3263SOL    HW111563   8.136   4.146  10.719
 3263SOL    HW211564   8.229   4.034  10.763
 3264SOL     OW11565   1.289  12.428   5.572
 3264SOL    HW111566   1.237  12.348   5.584
 3264SOL    HW211567   1.226  12.499   5.577
 3265SOL     OW11568   0.405   2.366   0.069
 3265SOL    HW111569   0.493   2.347   0.099
 3265SOL    HW211570   0.392   2.459   0.088
 3266SOL     OW11571  14.658  12.626   9.591
 3266SOL    HW111572  14.752  12.626   9.573
 3266SOL    HW211573  14.653  12.609   9.685
 3267SOL     OW11574  11.073   2.407   7.237
 3267SOL    HW111575  11.135   2.334   7.229
 3267SOL    HW211576  11.086   2.458   7.157
 3268SOL     OW11577  12.058   2.361   4.713
 3268SOL    HW111578  12.018   2.448   4.708
 3268SOL    HW211579  12.107   2.363   4.795
 3269SOL     OW11580  14.842   3.998  14.285
 3269SOL    HW111581  14.877   4.086  14.303
 3269SOL    HW211582  14.800   4.006  14.200
 3270SOL     OW11583   3.880   9.926   9.595
 3270SOL    HW111584   3.891   9.848   9.650
 3270SOL    HW211585   3.821   9.982   9.645
 3271SOL     OW11586   5.482   8.166   3.593
 3271SOL    HW111587   5.542   8.174   3.519
 3271SOL    HW211588   5.467   8.072   3.603
 3272SOL     OW11589  14.577  11.277   0.224
 3272SOL    HW111590  14.625  11.243   0.299
 3272SOL    HW211591  14.642  11.326   0.174
 3273SOL     OW11592   5.034   9.788   3.028
 3273SOL    HW111593   4.964   9.727   3.052
 3273SOL    HW211594   5.106   9.732   3.001
 3274SOL     OW11595   3.648   0.978   9.487
 3274SOL    HW111596   3.724   1.037   9.487
 3274SOL    HW211597   3.657   0.926   9.567
 3275SOL     OW11598   0.253   8.975  11.983
 3275SOL    HW111599   0.193   8.901  11.990
 3275SOL    HW211600   0.341   8.935  11.984
 3276SOL     OW11601  10.543  14.388  11.170
 3276SOL    HW111602  10.565  14.420  11.082
 3276SOL    HW211603  10.567  14.295  11.168
 3277SOL     OW11604   5.761  13.712   9.787
 3277SOL    HW111605   5.760  13.800   9.824
 3277SOL    HW211606   5.854  13.687   9.789
 3278SOL     OW11607   4.023   6.920   5.697
 3278SOL    HW111608   4.110   6.959   5.688
 3278SOL    HW211609   3.983   6.931   5.610
 3279SOL     OW11610   9.763  13.444  14.553
 3279SOL    HW111611   9.855  13.458  14.576
 3279SOL    HW211612   9.765  13.401  14.468
 3280SOL     OW11613  14.223  14.362   0.566
 3280SOL    HW111614  14.267  14.306   0.501
 3280SOL    HW211615  14.284  14.364   0.640
 3281SOL     OW11616   0.698   8.412   7.355
 3281SOL    HW111617   0.712   8.318   7.372
 3281SOL    HW211618   0.606   8.427   7.376
 3282SOL     OW11619   0.313   6.716   0.742
 3282SOL    HW111620   0.243   6.779   0.724
 3282SOL    HW211621   0.277   6.660   0.811
 3283SOL     OW11622  10.639   6.361   1.272
 3283SOL    HW111623  10.700   6.291   1.247
 3283SOL    HW211624  10.621   6.408   1.191
 3284SOL     OW11625   3.731  10.141   9.754
 3284SOL    HW111626   3.707  10.227   9.721
 3284SOL    HW211627   3.648  10.092   9.756
 3285SOL     OW11628   2.895  11.968   4.800
 3285SOL    HW111629   2.811  11.924   4.815
 3285SOL    HW211630   2.917  11.947   4.709
 3286SOL     OW11631  12.333   0.813  12.589
 3286SOL    HW111632  12.349   0.821  12.495
 3286SOL    HW211633  12.300   0.899  12.616
 3287SOL     OW11634  10.155   7.092   8.475
 3287SOL    HW111635  10.120   7.055   8.394
 3287SOL    HW211636  10.083   7.142   8.512
 3288SOL     OW11637   5.519   9.057  11.993
 3288SOL    HW111638   5.445   8.998  11.980
 3288SOL    HW211639   5.559   9.064  11.907
 3289SOL     OW11640  14.298   9.972   3.737
 3289SOL    HW111641  14.388   9.984   3.707
 3289SOL    HW211642  14.306   9.920   3.817
 3290SOL     OW11643  13.861   8.930  13.739
 3290SOL    HW111644  13.918   8.998  13.704
 3290SOL    HW211645  13.918   8.854  13.750
 3291SOL     OW11646   6.810   1.782   9.775
 3291SOL    HW111647   6.812   1.727   9.697
 3291SOL    HW211648   6.902   1.793   9.800
 3292SOL     OW11649   7.525   7.020   6.159
 3292SOL    HW111650   7.469   7.096   6.152
 3292SOL    HW211651   7.492   6.972   6.235
 3293SOL     OW11652   2.632  14.414   3.797
 3293SOL    HW111653   2.707  14.364   3.830
 3293SOL    HW211654   2.583  14.350   3.745
 3294SOL     OW11655  10.662   9.005  13.295
 3294SOL    HW111656  10.751   9.009  13.261
 3294SOL    HW211657  10.657   9.076  13.359
 3295SOL     OW11658  13.649  13.427   8.278
 3295SOL    HW111659  13.620  13.422   8.187
 3295SOL    HW211660  13.744  13.419   8.273
 3296SOL     OW11661   5.475  14.149  11.116
 3296SOL    HW111662   5.426  14.085  11.168
 3296SOL    HW211663   5.557  14.104  11.095
 3297SOL     OW11664   4.699   7.326   1.794
 3297SOL    HW111665   4.656   7.248   1.829
 3297SOL    HW211666   4.707   7.309   1.700
 3298SOL     OW11667  14.012   7.249   7.471
 3298SOL    HW111668  14.024   7.335   7.510
 3298SOL    HW211669  14.003   7.266   7.377
 3299SOL     OW11670   1.522   7.679   2.081
 3299SOL    HW111671   1.604   7.633   2.065
 3299SOL    HW211672   1.549   7.769   2.101
 3300SOL     OW11673  11.803  10.830   9.624
 3300SOL    HW111674  11.858  10.816   9.547
 3300SOL    HW211675  11.725  10.874   9.591
 3301SOL     OW11676  13.326   9.480   9.159
 3301SOL    HW111677  13.249   9.521   9.198
 3301SOL    HW211678  13.400   9.527   9.197
 3302SOL     OW11679   7.492   6.788   9.946
 3302SOL    HW111680   7.428   6.859   9.956
 3302SOL    HW211681   7.468   6.724  10.012
 3303SOL     OW11682   6.296   1.033  13.318
 3303SOL    HW111683   6.308   1.117  13.363
 3303SOL    HW211684   6.296   0.968  13.388
 3304SOL     OW11685  11.443   9.993   7.560
 3304SOL    HW111686  11.456  10.051   7.486
 3304SOL    HW211687  11.516  10.012   7.619
 3305SOL     OW11688   2.383   0.169   5.248
 3305SOL    HW111689   2.310   0.135   5.300
 3305SOL    HW211690   2.394   0.105   5.178
 3306SOL     OW11691   5.720  11.375   2.310
 3306SOL    HW111692   5.716  11.349   2.218
 3306SOL    HW211693   5.654  11.320   2.353
 3307SOL     OW11694   7.230   1.925  11.378
 3307SOL    HW111695   7.147   1.959  11.411
 3307SOL    HW211696   7.264   1.871  11.450
 3308SOL     OW11697   5.713   1.747   2.516
 3308SOL    HW111698   5.742   1.816   2.576
 3308SOL    HW211699   5.672   1.681   2.572
 3309SOL     OW11700  13.735   4.918   8.728
 3309SOL    HW111701  13.692   4.922   8.813
 3309SOL    HW211702  13.811   4.861   8.742
 3310SOL     OW11703   4.960  14.189   4.072
 3310SOL    HW111704   4.887  14.157   4.018
 3310SOL    HW211705   4.944  14.283   4.080
 3311SOL     OW11706   3.818  10.370   0.879
 3311SOL    HW111707   3.789  10.443   0.933
 3311SOL    HW211708   3.862  10.311   0.941
 3312SOL     OW11709  12.290   7.000  11.236
 3312SOL    HW111710  12.345   6.998  11.315
 3312SOL    HW211711  12.335   7.061  11.178
 3313SOL     OW11712  10.732   3.593   0.812
 3313SOL    HW111713  10.770   3.607   0.899
 3313SOL    HW211714  10.805   3.563   0.759
 3314SOL     OW11715  12.419   2.810   5.681
 3314SOL    HW111716  12.329   2.793   5.654
 3314SOL    HW211717  12.411   2.857   5.764
 3315SOL     OW11718  14.777   4.649   6.161
 3315SOL    HW111719  14.772   4.554   6.157
 3315SOL    HW211720  14.787   4.669   6.254
 3316SOL     OW11721  12.414   7.621  10.924
 3316SOL    HW111722  12.431   7.531  10.896
 3316SOL    HW211723  12.396   7.668  10.843
 3317SOL     OW11724  13.504   7.064   7.076
 3317SOL    HW111725  13.443   7.005   7.121
 3317SOL    HW211726  13.531   7.126   7.144
 3318SOL     OW11727  14.393  14.536   1.783
 3318SOL    HW111728  14.391  14.447   1.819
 3318SOL    HW211729  14.356  14.527   1.695
 3319SOL     OW11730   0.994   1.988   9.858
 3319SOL    HW111731   1.052   2.037   9.800
 3319SOL    HW211732   1.030   2.003   9.945
 3320SOL     OW11733  14.331   1.500   3.949
 3320SOL    HW111734  14.272   1.538   4.014
 3320SOL    HW211735  14.401   1.460   4.002
 3321SOL     OW11736  10.414  13.136   6.572
 3321SOL    HW111737  10.320  13.124   6.586
 3321SOL    HW211738  10.419  13.205   6.506
 3322SOL     OW11739  12.403   0.659   6.429
 3322SOL    HW111740  12.391   0.608   6.348
 3322SOL    HW211741  12.429   0.746   6.398
 3323SOL     OW11742   7.037   0.496  13.647
 3323SOL    HW111743   7.055   0.586  13.674
 3323SOL    HW211744   7.123   0.460  13.623
 3324SOL     OW11745   8.754   7.876   5.984
 3324SOL    HW111746   8.697   7.939   5.939
 3324SOL    HW211747   8.811   7.842   5.916
 3325SOL     OW11748   4.763  13.077   1.718
 3325SOL    HW111749   4.844  13.030   1.698
 3325SOL    HW211750   4.723  13.028   1.790
 3326SOL     OW11751   4.792  11.444   1.767
 3326SOL    HW111752   4.795  11.450   1.672
 3326SOL    HW211753   4.855  11.509   1.797
 3327SOL     OW11754   5.990  13.158  11.156
 3327SOL    HW111755   6.069  13.118  11.193
 3327SOL    HW211756   5.948  13.202  11.230
 3328SOL     OW11757   3.493  12.916   0.235
 3328SOL    HW111758   3.506  12.917   0.330
 3328SOL    HW211759   3.401  12.938   0.223
 3329SOL     OW11760   5.027   7.382   2.437
 3329SOL    HW111761   5.035   7.456   2.497
 3329SOL    HW211762   4.941   7.392   2.397
 3330SOL     OW11763   1.148  12.180   1.247
 3330SOL    HW111764   1.137  12.254   1.187
 3330SOL    HW211765   1.068  12.181   1.301
 3331SOL     OW11766  13.904   9.628   4.613
 3331SOL    HW111767  13.835   9.692   4.632
 3331SOL    HW211768  13.983   9.680   4.602
 3332SOL     OW11769   8.406   5.063   8.274
 3332SOL    HW111770   8.466   5.117   8.222
 3332SOL    HW211771   8.319   5.095   8.251
 3333SOL     OW11772  13.565  14.221   6.691
 3333SOL    HW111773  13.619  14.142   6.686
 3333SOL    HW211774  13.613  14.279   6.751
 3334SOL     OW11775   7.434   3.699   1.670
 3334SOL    HW111776   7.432   3.603   1.670
 3334SOL    HW211777   7.352   3.725   1.627
 3335SOL     OW11778   6.359   1.058   2.776
 3335SOL    HW111779   6.299   0.983   2.777
 3335SOL    HW211780   6.344   1.099   2.691
 3336SOL     OW11781   2.739  11.673  12.221
 3336SOL    HW111782   2.764  11.685  12.312
 3336SOL    HW211783   2.802  11.725  12.171
 3337SOL     OW11784  12.059   3.138  12.065
 3337SOL    HW111785  12.015   3.218  12.094
 3337SOL    HW211786  12.021   3.121  11.979
 3338SOL     OW11787  12.591   3.512  10.940
 3338SOL    HW111788  12.623   3.529  11.029
 3338SOL    HW211789  12.669   3.520  10.885
 3339SOL     OW11790   8.781  11.400   4.857
 3339SOL    HW111791   8.721  11.350   4.912
 3339SOL    HW211792   8.804  11.340   4.786
 3340SOL     OW11793   8.000   9.828   2.224
 3340SOL    HW111794   8.012   9.737   2.252
 3340SOL    HW211795   8.085   9.869   2.236
 3341SOL     OW11796   0.642   8.286  13.279
 3341SOL    HW111797   0.594   8.286  13.362
 3341SOL    HW211798   0.574   8.276  13.212
 3342SOL     OW11799   4.206   0.454  12.014
 3342SOL    HW111800   4.125   0.503  12.000
 3342SOL    HW211801   4.272   0.504  11.965
 3343SOL     OW11802   7.436   2.655   9.673
 3343SOL    HW111803   7.449   2.718   9.744
 3343SOL    HW211804   7.516   2.659   9.621
 3344SOL     OW11805  11.436  11.846   2.788
 3344SOL    HW111806  11.385  11.801   2.856
 3344SOL    HW211807  11.518  11.868   2.831
 3345SOL     OW11808   9.994  12.580   6.753
 3345SOL    HW111809   9.933  12.597   6.682
 3345SOL    HW211810  10.052  12.511   6.719
 3346SOL     OW11811  12.162  10.788   8.990
 3346SOL    HW111812  12.090  10.824   9.042
 3346SOL    HW211813  12.224  10.756   9.055
 3347SOL     OW11814   6.927   1.557  14.349
 3347SOL    HW111815   6.971   1.581  14.431
 3347SOL    HW211816   6.843   1.521  14.377
 3348SOL     OW11817   8.051   0.475  13.742
 3348SOL    HW111818   8.029   0.531  13.667
 3348SOL    HW211819   8.107   0.529  13.797
 3349SOL     OW11820   5.609   5.076  14.723
 3349SOL    HW111821   5.651   5.114  14.800
 3349SOL    HW211822   5.600   4.983  14.744
 3350SOL     OW11823   9.269   4.484   7.901
 3350SOL    HW111824   9.334   4.439   7.848
 3350SOL    HW211825   9.193   4.426   7.900
 3351SOL     OW11826   2.854  12.790   9.231
 3351SOL    HW111827   2.793  12.735   9.280
 3351SOL    HW211828   2.845  12.761   9.140
 3352SOL     OW11829  13.773   0.907   0.472
 3352SOL    HW111830  13.788   0.974   0.539
 3352SOL    HW211831  13.860   0.889   0.436
 3353SOL     OW11832  13.745   6.539   7.606
 3353SOL    HW111833  13.768   6.486   7.529
 3353SOL    HW211834  13.650   6.552   7.597
 3354SOL     OW11835  10.832   9.150   6.745
 3354SOL    HW111836  10.774   9.105   6.684
 3354SOL    HW211837  10.880   9.213   6.691
 3355SOL     OW11838   0.662  12.496  13.570
 3355SOL    HW111839   0.729  12.432  13.596
 3355SOL    HW211840   0.596  12.490  13.639
 3356SOL     OW11841   3.971  14.870   2.170
 3356SOL    HW111842   4.064   0.016   2.169
 3356SOL    HW211843   3.935   0.044   2.242
 3357SOL     OW11844   0.860   6.556  10.191
 3357SOL    HW111845   0.879   6.650  10.186
 3357SOL    HW211846   0.927   6.521  10.249
 3358SOL     OW11847   0.374  14.272  11.333
 3358SOL    HW111848   0.315  14.346  11.350
 3358SOL    HW211849   0.348  14.206  11.397
 3359SOL     OW11850   3.563   0.962   6.488
 3359SOL    HW111851   3.525   1.032   6.541
 3359SOL    HW211852   3.509   0.885   6.508
 3360SOL     OW11853   2.479  14.325   5.590
 3360SOL    HW111854   2.565  14.332   5.632
 3360SOL    HW211855   2.449  14.237   5.613
 3361SOL     OW11856  13.097   8.178   4.253
 3361SOL    HW111857  13.127   8.088   4.266
 3361SOL    HW211858  13.125   8.224   4.332
 3362SOL     OW11859  12.275   3.500   4.538
 3362SOL    HW111860  12.240   3.524   4.624
 3362SOL    HW211861  12.200   3.505   4.479
 3363SOL     OW11862   2.547  14.682  13.460
 3363SOL    HW111863   2.507  14.738  13.527
 3363SOL    HW211864   2.493  14.695  13.382
 3364SOL     OW11865   6.128  11.443   6.364
 3364SOL    HW111866   6.054  11.498   6.389
 3364SOL    HW211867   6.201  11.474   6.418
 3365SOL     OW11868   9.285  12.786  12.606
 3365SOL    HW111869   9.292  12.691  12.596
 3365SOL    HW211870   9.290  12.820  12.516
 3366SOL     OW11871  12.646   6.367   3.028
 3366SOL    HW111872  12.617   6.307   2.958
 3366SOL    HW211873  12.566   6.386   3.077
 3367SOL     OW11874   6.747   9.613   4.690
 3367SOL    HW111875   6.717   9.566   4.612
 3367SOL    HW211876   6.685   9.587   4.759
 3368SOL     OW11877   7.669  13.959   8.680
 3368SOL    HW111878   7.597  14.006   8.638
 3368SOL    HW211879   7.631  13.924   8.760
 3369SOL     OW11880  13.748   2.829   9.523
 3369SOL    HW111881  13.810   2.811   9.594
 3369SOL    HW211882  13.702   2.908   9.551
 3370SOL     OW11883   2.045  10.000   7.584
 3370SOL    HW111884   1.989  10.010   7.508
 3370SOL    HW211885   1.985  10.000   7.659
 3371SOL     OW11886   7.736   0.337   3.281
 3371SOL    HW111887   7.700   0.248   3.280
 3371SOL    HW211888   7.830   0.324   3.295
 3372SOL     OW11889  11.893   1.921   3.866
 3372SOL    HW111890  11.972   1.910   3.812
 3372SOL    HW211891  11.882   2.015   3.875
 3373SOL     OW11892  11.961  10.513   5.542
 3373SOL    HW111893  11.896  10.524   5.473
 3373SOL    HW211894  11.932  10.436   5.590
 3374SOL     OW11895  14.785  11.207   3.849
 3374SOL    HW111896  14.703  11.160   3.869
 3374SOL    HW211897  14.800  11.190   3.756
 3375SOL     OW11898   3.324   7.657  13.037
 3375SOL    HW111899   3.377   7.715  12.981
 3375SOL    HW211900   3.340   7.689  13.126
 3376SOL     OW11901  10.381  13.513   6.016
 3376SOL    HW111902  10.477  13.507   6.022
 3376SOL    HW211903  10.354  13.425   5.989
 3377SOL     OW11904   8.298   9.989  10.900
 3377SOL    HW111905   8.373   9.930  10.902
 3377SOL    HW211906   8.335  10.074  10.874
 3378SOL     OW11907   4.033  10.533   5.410
 3378SOL    HW111908   3.957  10.481   5.436
 3378SOL    HW211909   4.091  10.530   5.485
 3379SOL     OW11910   3.242  10.368   7.147
 3379SOL    HW111911   3.160  10.318   7.146
 3379SOL    HW211912   3.241  10.417   7.065
 3380SOL     OW11913   2.796   0.252  12.950
 3380SOL    HW111914   2.891   0.258  12.958
 3380SOL    HW211915   2.770   0.338  12.917
 3381SOL     OW11916   7.718  13.670  10.296
 3381SOL    HW111917   7.769  13.608  10.348
 3381SOL    HW211918   7.781  13.710  10.236
 3382SOL     OW11919   6.418   7.264   2.608
 3382SOL    HW111920   6.424   7.248   2.702
 3382SOL    HW211921   6.440   7.181   2.568
 3383SOL     OW11922   5.845   0.511   3.259
 3383SOL    HW111923   5.838   0.606   3.259
 3383SOL    HW211924   5.877   0.489   3.171
 3384SOL     OW11925   6.084   0.455  10.377
 3384SOL    HW111926   6.148   0.479  10.311
 3384SOL    HW211927   6.065   0.363  10.360
 3385SOL     OW11928   4.088  10.799  11.569
 3385SOL    HW111929   4.040  10.815  11.650
 3385SOL    HW211930   4.025  10.756  11.511
 3386SOL     OW11931   1.707   7.545  10.750
 3386SOL    HW111932   1.760   7.557  10.829
 3386SOL    HW211933   1.711   7.452  10.732
 3387SOL     OW11934   0.331   4.772  13.009
 3387SOL    HW111935   0.321   4.701  13.071
 3387SOL    HW211936   0.423   4.769  12.983
 3388SOL     OW11937   3.743   2.331   7.839
 3388SOL    HW111938   3.820   2.377   7.806
 3388SOL    HW211939   3.707   2.286   7.763
 3389SOL     OW11940   0.916   9.992   2.479
 3389SOL    HW111941   0.860   9.916   2.496
 3389SOL    HW211942   0.943  10.022   2.566
 3390SOL     OW11943  14.768   7.122  12.060
 3390SOL    HW111944  14.821   7.160  12.130
 3390SOL    HW211945  14.764   7.191  11.993
 3391SOL     OW11946   7.566   7.523   3.992
 3391SOL    HW111947   7.550   7.429   3.984
 3391SOL    HW211948   7.479   7.562   3.994
 3392SOL     OW11949  13.450   7.890  12.512
 3392SOL    HW111950  13.450   7.796  12.494
 3392SOL    HW211951  13.371   7.923  12.471
 3393SOL     OW11952   4.100  10.324   6.078
 3393SOL    HW111953   4.182  10.332   6.030
 3393SOL    HW211954   4.051  10.404   6.055
 3394SOL     OW11955   4.326  12.878   1.571
 3394SOL    HW111956   4.245  12.901   1.527
 3394SOL    HW211957   4.327  12.932   1.650
 3395SOL     OW11958   9.723  11.732   0.283
 3395SOL    HW111959   9.816  11.753   0.282
 3395SOL    HW211960   9.712  11.668   0.212
 3396SOL     OW11961  10.313  10.608   4.021
 3396SOL    HW111962  10.291  10.701   4.027
 3396SOL    HW211963  10.233  10.563   4.050
 3397SOL     OW11964   9.012  11.243   4.345
 3397SOL    HW111965   8.953  11.191   4.290
 3397SOL    HW211966   9.039  11.316   4.290
 3398SOL     OW11967  10.103   5.633   2.639
 3398SOL    HW111968  10.014   5.666   2.635
 3398SOL    HW211969  10.140   5.655   2.553
 3399SOL     OW11970   3.099   7.594   6.649
 3399SOL    HW111971   3.063   7.597   6.560
 3399SOL    HW211972   3.176   7.651   6.646
 3400SOL     OW11973   1.029  13.968  14.501
 3400SOL    HW111974   0.981  13.887  14.516
 3400SOL    HW211975   0.978  14.035  14.546
 3401SOL     OW11976   8.442   0.630   2.277
 3401SOL    HW111977   8.356   0.667   2.255
 3401SOL    HW211978   8.426   0.537   2.289
 3402SOL     OW11979   8.556   1.353   9.024
 3402SOL    HW111980   8.565   1.396   8.939
 3402SOL    HW211981   8.469   1.312   9.021
 3403SOL     OW11982   2.003  14.787  13.185
 3403SOL    HW111983   1.996  14.691  13.180
 3403SOL    HW211984   1.951  14.810  13.262
 3404SOL     OW11985   4.277  11.963   9.718
 3404SOL    HW111986   4.292  12.039   9.662
 3404SOL    HW211987   4.190  11.978   9.756
 3405SOL     OW11988   4.565   8.000  10.243
 3405SOL    HW111989   4.529   8.024  10.328
 3405SOL    HW211990   4.531   7.913  10.226
 3406SOL     OW11991  10.382   0.290  10.501
 3406SOL    HW111992  10.431   0.249  10.430
 3406SOL    HW211993  10.432   0.269  10.580
 3407SOL     OW11994  13.509  10.574   5.980
 3407SOL    HW111995  13.543  10.656   6.014
 3407SOL    HW211996  13.503  10.517   6.057
 3408SOL     OW11997   8.325   8.223  14.266
 3408SOL    HW111998   8.403   8.224  14.321
 3408SOL    HW211999   8.321   8.310  14.227
 3409SOL     OW12000   5.524   6.392   2.945
 3409SOL    HW112001   5.575   6.365   2.869
 3409SOL    HW212002   5.588   6.431   3.005
 3410SOL     OW12003  10.045  14.403   3.126
 3410SOL    HW112004  10.073  14.467   3.061
 3410SOL    HW212005  10.106  14.330   3.116
 3411SOL     OW12006   6.974   7.003   4.003
 3411SOL    HW112007   7.023   7.051   3.936
 3411SOL    HW212008   7.034   6.933   4.030
 3412SOL     OW12009   2.542  14.755   1.093
 3412SOL    HW112010   2.490  14.735   1.016
 3412SOL    HW212011   2.632  14.760   1.061
 3413SOL     OW12012   2.166   3.582  10.308
 3413SOL    HW112013   2.186   3.644  10.238
 3413SOL    HW212014   2.241   3.523  10.310
 3414SOL     OW12015  14.430   2.547  12.301
 3414SOL    HW112016  14.395   2.486  12.236
 3414SOL    HW212017  14.505   2.589  12.258
 3415SOL     OW12018   1.718   9.524   5.311
 3415SOL    HW112019   1.773   9.569   5.376
 3415SOL    HW212020   1.675   9.454   5.360
 3416SOL     OW12021   3.716  14.005   9.892
 3416SOL    HW112022   3.675  14.087   9.921
 3416SOL    HW212023   3.752  14.025   9.806
 3417SOL     OW12024  11.867  12.499   1.084
 3417SOL    HW112025  11.933  12.518   1.151
 3417SOL    HW212026  11.826  12.583   1.065
 3418SOL     OW12027   5.908   6.347   2.411
 3418SOL    HW112028   5.914   6.433   2.453
 3418SOL    HW212029   5.956   6.288   2.470
 3419SOL     OW12030   2.879   0.560   5.521
 3419SOL    HW112031   2.793   0.601   5.527
 3419SOL    HW212032   2.940   0.634   5.515
 3420SOL     OW12033  13.286   0.728  11.923
 3420SOL    HW112034  13.264   0.820  11.908
 3420SOL    HW212035  13.206   0.680  11.901
 3421SOL     OW12036   2.541   1.843   1.635
 3421SOL    HW112037   2.603   1.905   1.674
 3421SOL    HW212038   2.596   1.769   1.608
 3422SOL     OW12039  10.968   3.958  14.122
 3422SOL    HW112040  10.878   3.958  14.090
 3422SOL    HW212041  10.982   4.048  14.153
 3423SOL     OW12042  12.161   6.164   5.610
 3423SOL    HW112043  12.237   6.106   5.602
 3423SOL    HW212044  12.131   6.177   5.520
 3424SOL     OW12045  11.176   6.042  11.788
 3424SOL    HW112046  11.134   6.026  11.704
 3424SOL    HW212047  11.149   5.968  11.843
 3425SOL     OW12048  13.964  14.807   1.032
 3425SOL    HW112049  14.009   0.011   1.011
 3425SOL    HW212050  13.881  14.834   1.071
 3426SOL     OW12051   3.630   5.608   5.798
 3426SOL    HW112052   3.633   5.697   5.834
 3426SOL    HW212053   3.683   5.612   5.718
 3427SOL     OW12054  11.902   0.503   0.796
 3427SOL    HW112055  11.990   0.539   0.791
 3427SOL    HW212056  11.846   0.578   0.815
 3428SOL     OW12057   0.640   1.385   5.188
 3428SOL    HW112058   0.562   1.340   5.223
 3428SOL    HW212059   0.674   1.435   5.263
 3429SOL     OW12060   5.566   9.882  13.527
 3429SOL    HW112061   5.471   9.881  13.515
 3429SOL    HW212062   5.595   9.796  13.498
 3430SOL     OW12063   2.183   7.393   5.293
 3430SOL    HW112064   2.265   7.428   5.328
 3430SOL    HW212065   2.115   7.450   5.330
 3431SOL     OW12066   5.595  14.855  10.797
 3431SOL    HW112067   5.530  14.803  10.844
 3431SOL    HW212068   5.630   0.038  10.862
 3432SOL     OW12069   5.687   5.538   3.471
 3432SOL    HW112070   5.734   5.505   3.547
 3432SOL    HW212071   5.713   5.629   3.463
 3433SOL     OW12072   5.513  14.001   5.893
 3433SOL    HW112073   5.436  14.058   5.898
 3433SOL    HW212074   5.532  13.995   5.800
 3434SOL     OW12075   2.896   8.271   1.141
 3434SOL    HW112076   2.938   8.204   1.087
 3434SOL    HW212077   2.958   8.286   1.212
 3435SOL     OW12078   9.256   0.160   3.821
 3435SOL    HW112079   9.277   0.201   3.737
 3435SOL    HW212080   9.309   0.081   3.823
 3436SOL     OW12081   4.840   7.441   7.644
 3436SOL    HW112082   4.900   7.384   7.693
 3436SOL    HW212083   4.883   7.527   7.645
 3437SOL     OW12084   2.397  11.642   1.746
 3437SOL    HW112085   2.452  11.692   1.807
 3437SOL    HW212086   2.457  11.613   1.677
 3438SOL     OW12087  11.336   4.267  10.529
 3438SOL    HW112088  11.346   4.324  10.605
 3438SOL    HW212089  11.256   4.217  10.548
 3439SOL     OW12090   8.302   9.091  10.791
 3439SOL    HW112091   8.379   9.037  10.773
 3439SOL    HW212092   8.231   9.028  10.803
 3440SOL     OW12093   5.608  12.143   0.991
 3440SOL    HW112094   5.546  12.205   0.954
 3440SOL    HW212095   5.694  12.182   0.974
 3441SOL     OW12096   1.113   6.017   5.204
 3441SOL    HW112097   1.138   5.999   5.113
 3441SOL    HW212098   1.018   6.025   5.201
 3442SOL     OW12099  14.601   4.165   3.985
 3442SOL    HW112100  14.660   4.091   3.971
 3442SOL    HW212101  14.538   4.133   4.050
 3443SOL     OW12102  10.225   9.940   7.322
 3443SOL    HW112103  10.232   9.867   7.384
 3443SOL    HW212104  10.182   9.903   7.245
 3444SOL     OW12105   8.186   0.679  13.906
 3444SOL    HW112106   8.213   0.597  13.947
 3444SOL    HW212107   8.266   0.714  13.866
 3445SOL     OW12108  12.833   4.850   7.299
 3445SOL    HW112109  12.770   4.921   7.288
 3445SOL    HW212110  12.851   4.819   7.210
 3446SOL     OW12111   4.143   8.196  12.315
 3446SOL    HW112112   4.188   8.114  12.336
 3446SOL    HW212113   4.053   8.182  12.342
 3447SOL     OW12114  13.742   4.416  12.113
 3447SOL    HW112115  13.662   4.373  12.082
 3447SOL    HW212116  13.790   4.439  12.034
 3448SOL     OW12117   3.738   0.553   9.078
 3448SOL    HW112118   3.756   0.593   8.993
 3448SOL    HW212119   3.823   0.550   9.122
 3449SOL     OW12120  13.434   5.545   4.949
 3449SOL    HW112121  13.434   5.527   4.855
 3449SOL    HW212122  13.373   5.482   4.986
 3450SOL     OW12123  11.728  14.647   8.741
 3450SOL    HW112124  11.680  14.730   8.729
 3450SOL    HW212125  11.790  14.645   8.668
 3451SOL     OW12126   0.437   7.998   0.476
 3451SOL    HW112127   0.476   8.084   0.460
 3451SOL    HW212128   0.502   7.952   0.528
 3452SOL     OW12129   9.468  14.306   2.445
 3452SOL    HW112130   9.495  14.220   2.478
 3452SOL    HW212131   9.551  14.351   2.427
 3453SOL     OW12132   9.927   6.846   3.887
 3453SOL    HW112133   9.989   6.907   3.926
 3453SOL    HW212134   9.845   6.861   3.935
 3454SOL     OW12135  13.847  11.769  14.165
 3454SOL    HW112136  13.839  11.679  14.132
 3454SOL    HW212137  13.770  11.814  14.130
 3455SOL     OW12138  10.714   7.873  14.689
 3455SOL    HW112139  10.766   7.916  14.757
 3455SOL    HW212140  10.653   7.940  14.659
 3456SOL     OW12141   1.621   4.177   4.583
 3456SOL    HW112142   1.592   4.217   4.665
 3456SOL    HW212143   1.591   4.238   4.515
 3457SOL     OW12144   5.813   7.056   9.994
 3457SOL    HW112145   5.806   6.972   9.950
 3457SOL    HW212146   5.907   7.072  10.001
 3458SOL     OW12147   0.285  11.744   1.671
 3458SOL    HW112148   0.288  11.653   1.701
 3458SOL    HW212149   0.198  11.754   1.634
 3459SOL     OW12150   1.242   9.777  14.827
 3459SOL    HW112151   1.221   9.752  14.736
 3459SOL    HW212152   1.296   9.705  14.860
 3460SOL     OW12153   4.311   9.387   2.744
 3460SOL    HW112154   4.260   9.467   2.754
 3460SOL    HW212155   4.295   9.359   2.654
 3461SOL     OW12156   9.565   9.136   4.795
 3461SOL    HW112157   9.523   9.221   4.788
 3461SOL    HW212158   9.646   9.145   4.745
 3462SOL     OW12159   9.429   2.971   3.472
 3462SOL    HW112160   9.522   2.952   3.484
 3462SOL    HW212161   9.384   2.903   3.521
 3463SOL     OW12162   2.662   5.334  13.574
 3463SOL    HW112163   2.724   5.295  13.511
 3463SOL    HW212164   2.699   5.420  13.592
 3464SOL     OW12165   0.333   3.625   8.166
 3464SOL    HW112166   0.313   3.533   8.150
 3464SOL    HW212167   0.302   3.641   8.255
 3465SOL     OW12168   2.242  11.784  11.341
 3465SOL    HW112169   2.162  11.767  11.291
 3465SOL    HW212170   2.246  11.879  11.348
 3466SOL     OW12171   0.299   5.986   1.424
 3466SOL    HW112172   0.340   5.900   1.417
 3466SOL    HW212173   0.266   5.990   1.513
 3467SOL     OW12174   8.308  10.505  14.573
 3467SOL    HW112175   8.400  10.513  14.597
 3467SOL    HW212176   8.289  10.583  14.520
 3468SOL     OW12177   5.998   9.251   7.016
 3468SOL    HW112178   6.039   9.288   7.094
 3468SOL    HW212179   6.003   9.156   7.029
 3469SOL     OW12180   5.969   5.956   5.708
 3469SOL    HW112181   5.946   5.940   5.799
 3469SOL    HW212182   5.935   5.880   5.661
 3470SOL     OW12183   3.937   4.406   1.908
 3470SOL    HW112184   3.952   4.501   1.912
 3470SOL    HW212185   3.847   4.397   1.878
 3471SOL     OW12186   1.574  13.805  13.164
 3471SOL    HW112187   1.491  13.851  13.148
 3471SOL    HW212188   1.562  13.763  13.249
 3472SOL     OW12189   9.771   2.865   2.516
 3472SOL    HW112190   9.844   2.841   2.574
 3472SOL    HW212191   9.813   2.893   2.435
 3473SOL     OW12192  13.602   8.609   9.228
 3473SOL    HW112193  13.601   8.629   9.134
 3473SOL    HW212194  13.539   8.670   9.267
 3474SOL     OW12195   8.009   6.799  10.310
 3474SOL    HW112196   8.098   6.832  10.304
 3474SOL    HW212197   8.012   6.712  10.270
 3475SOL     OW12198   9.649   9.937  11.505
 3475SOL    HW112199   9.626  10.009  11.447
 3475SOL    HW212200   9.578   9.935  11.570
 3476SOL     OW12201  13.370   5.767  13.558
 3476SOL    HW112202  13.311   5.810  13.620
 3476SOL    HW212203  13.315   5.707  13.508
 3477SOL     OW12204   4.154   7.799   6.168
 3477SOL    HW112205   4.230   7.825   6.221
 3477SOL    HW212206   4.079   7.814   6.225
 3478SOL     OW12207  10.354   5.747  12.687
 3478SOL    HW112208  10.359   5.702  12.602
 3478SOL    HW212209  10.288   5.815  12.673
 3479SOL     OW12210   4.749   2.930   4.055
 3479SOL    HW112211   4.759   2.882   3.973
 3479SOL    HW212212   4.816   2.894   4.113
 3480SOL     OW12213   4.406   6.744   3.259
 3480SOL    HW112214   4.364   6.824   3.291
 3480SOL    HW212215   4.355   6.673   3.298
 3481SOL     OW12216   1.965  10.782   5.664
 3481SOL    HW112217   2.060  10.772   5.657
 3481SOL    HW212218   1.950  10.812   5.753
 3482SOL     OW12219   4.803  10.160   2.349
 3482SOL    HW112220   4.821  10.189   2.439
 3482SOL    HW212221   4.887  10.127   2.318
 3483SOL     OW12222   3.666   3.755  13.728
 3483SOL    HW112223   3.590   3.721  13.775
 3483SOL    HW212224   3.631   3.819  13.667
 3484SOL     OW12225   3.359  13.803   3.599
 3484SOL    HW112226   3.432  13.831   3.543
 3484SOL    HW212227   3.362  13.862   3.674
 3485SOL     OW12228   4.021   8.223   2.043
 3485SOL    HW112229   4.092   8.160   2.047
 3485SOL    HW212230   4.012   8.245   1.950
 3486SOL     OW12231   7.436   1.756  13.302
 3486SOL    HW112232   7.486   1.746  13.383
 3486SOL    HW212233   7.503   1.770  13.235
 3487SOL     OW12234  13.219   1.678   9.968
 3487SOL    HW112235  13.215   1.726   9.885
 3487SOL    HW212236  13.312   1.664   9.984
 3488SOL     OW12237   1.483  11.191  10.751
 3488SOL    HW112238   1.557  11.131  10.764
 3488SOL    HW212239   1.439  11.158  10.673
 3489SOL     OW12240   4.188   4.693  14.405
 3489SOL    HW112241   4.185   4.599  14.385
 3489SOL    HW212242   4.097   4.717  14.421
 3490SOL     OW12243   5.800   9.212   6.367
 3490SOL    HW112244   5.798   9.240   6.276
 3490SOL    HW212245   5.719   9.163   6.380
 3491SOL     OW12246   5.044   4.306   8.252
 3491SOL    HW112247   5.048   4.356   8.170
 3491SOL    HW212248   5.005   4.222   8.227
 3492SOL     OW12249   1.726  11.007   3.753
 3492SOL    HW112250   1.750  11.088   3.797
 3492SOL    HW212251   1.777  10.939   3.798
 3493SOL     OW12252  10.286   7.600   0.015
 3493SOL    HW112253  10.192   7.584   0.007
 3493SOL    HW212254  10.305   7.667  14.827
 3494SOL     OW12255   5.610   3.212  13.300
 3494SOL    HW112256   5.664   3.289  13.286
 3494SOL    HW212257   5.672   3.143  13.325
 3495SOL     OW12258   3.116   8.830  12.303
 3495SOL    HW112259   3.167   8.786  12.372
 3495SOL    HW212260   3.032   8.785  12.303
 3496SOL     OW12261   3.403   7.039   3.535
 3496SOL    HW112262   3.424   6.999   3.619
 3496SOL    HW212263   3.488   7.053   3.493
 3497SOL     OW12264   6.736  10.616   8.917
 3497SOL    HW112265   6.817  10.590   8.875
 3497SOL    HW212266   6.743  10.583   9.006
 3498SOL     OW12267   3.602   1.163  13.481
 3498SOL    HW112268   3.646   1.245  13.458
 3498SOL    HW212269   3.652   1.095  13.436
 3499SOL     OW12270  13.952  14.071   3.187
 3499SOL    HW112271  13.960  14.005   3.255
 3499SOL    HW212272  13.981  14.153   3.228
 3500SOL     OW12273   6.367  10.544   0.207
 3500SOL    HW112274   6.452  10.587   0.215
 3500SOL    HW212275   6.351  10.504   0.293
 3501SOL     OW12276  14.476   6.489  13.655
 3501SOL    HW112277  14.522   6.473  13.572
 3501SOL    HW212278  14.405   6.425  13.655
 3502SOL     OW12279   9.742   1.655  11.601
 3502SOL    HW112280   9.731   1.748  11.623
 3502SOL    HW212281   9.729   1.610  11.685
 3503SOL     OW12282  11.799   2.947  12.338
 3503SOL    HW112283  11.781   2.948  12.432
 3503SOL    HW212284  11.740   2.881  12.303
 3504SOL     OW12285  10.671  14.038   8.735
 3504SOL    HW112286  10.757  14.045   8.777
 3504SOL    HW212287  10.687  14.063   8.644
 3505SOL     OW12288   4.272  14.081   5.250
 3505SOL    HW112289   4.266  14.024   5.327
 3505SOL    HW212290   4.271  14.170   5.285
 3506SOL     OW12291   9.081  12.554  14.326
 3506SOL    HW112292   9.131  12.572  14.247
 3506SOL    HW212293   9.119  12.474  14.361
 3507SOL     OW12294  14.170   6.848   5.766
 3507SOL    HW112295  14.205   6.759   5.765
 3507SOL    HW212296  14.192   6.882   5.853
 3508SOL     OW12297  10.372  13.991   2.983
 3508SOL    HW112298  10.347  13.899   2.978
 3508SOL    HW212299  10.459  13.990   3.025
 3509SOL     OW12300   2.498   5.232   6.427
 3509SOL    HW112301   2.589   5.206   6.412
 3509SOL    HW212302   2.504   5.321   6.463
 3510SOL     OW12303   6.187   6.249   4.231
 3510SOL    HW112304   6.263   6.304   4.250
 3510SOL    HW212305   6.170   6.202   4.312
 3511SOL     OW12306  14.549  14.073   2.843
 3511SOL    HW112307  14.571  14.160   2.808
 3511SOL    HW212308  14.510  14.027   2.769
 3512SOL     OW12309  12.522   2.570   9.344
 3512SOL    HW112310  12.593   2.526   9.392
 3512SOL    HW212311  12.525   2.530   9.257
 3513SOL     OW12312  11.414   4.768   6.403
 3513SOL    HW112313  11.366   4.728   6.475
 3513SOL    HW212314  11.350   4.824   6.360
 3514SOL     OW12315  10.147   4.605   6.304
 3514SOL    HW112316  10.091   4.663   6.356
 3514SOL    HW212317  10.182   4.542   6.367
 3515SOL     OW12318   1.845   2.633   7.953
 3515SOL    HW112319   1.848   2.543   7.985
 3515SOL    HW212320   1.814   2.624   7.862
 3516SOL     OW12321   4.099  10.607  11.044
 3516SOL    HW112322   4.081  10.526  10.996
 3516SOL    HW212323   4.037  10.670  11.008
 3517SOL     OW12324   9.297  10.290   3.170
 3517SOL    HW112325   9.361  10.305   3.100
 3517SOL    HW212326   9.348  10.254   3.242
 3518SOL     OW12327   1.764   6.147   7.055
 3518SOL    HW112328   1.765   6.238   7.027
 3518SOL    HW212329   1.828   6.104   6.999
 3519SOL     OW12330   0.051   9.050   8.413
 3519SOL    HW112331   0.066   9.143   8.430
 3519SOL    HW212332   0.125   9.006   8.453
 3520SOL     OW12333   6.927  12.071   4.499
 3520SOL    HW112334   6.896  12.088   4.588
 3520SOL    HW212335   6.895  12.145   4.448
 3521SOL     OW12336  12.959   1.971   3.262
 3521SOL    HW112337  12.922   1.966   3.350
 3521SOL    HW212338  12.902   1.915   3.209
 3522SOL     OW12339   0.729  11.156   7.965
 3522SOL    HW112340   0.697  11.245   7.955
 3522SOL    HW212341   0.810  11.165   8.015
 3523SOL     OW12342   0.459   1.528  10.358
 3523SOL    HW112343   0.475   1.474  10.435
 3523SOL    HW212344   0.542   1.575  10.345
 3524SOL     OW12345   6.155  11.377   3.291
 3524SOL    HW112346   6.232  11.392   3.237
 3524SOL    HW212347   6.148  11.455   3.345
 3525SOL     OW12348   7.113   0.154   8.078
 3525SOL    HW112349   7.140   0.245   8.064
 3525SOL    HW212350   7.145   0.133   8.166
 3526SOL     OW12351   0.572   5.771   1.065
 3526SOL    HW112352   0.570   5.854   1.113
 3526SOL    HW212353   0.501   5.720   1.104
 3527SOL     OW12354   7.192   3.053  11.106
 3527SOL    HW112355   7.139   3.128  11.136
 3527SOL    HW212356   7.128   2.985  11.087
 3528SOL     OW12357   4.111   6.896   7.418
 3528SOL    HW112358   4.165   6.968   7.452
 3528SOL    HW212359   4.022   6.931   7.417
 3529SOL     OW12360   7.833  11.939   2.128
 3529SOL    HW112361   7.761  11.885   2.159
 3529SOL    HW212362   7.911  11.902   2.170
 3530SOL     OW12363   3.713  12.041   8.765
 3530SOL    HW112364   3.629  12.066   8.726
 3530SOL    HW212365   3.702  12.062   8.858
 3531SOL     OW12366  13.760   0.317  10.580
 3531SOL    HW112367  13.741   0.399  10.624
 3531SOL    HW212368  13.851   0.298  10.602
 3532SOL     OW12369   8.766  10.982   4.535
 3532SOL    HW112370   8.733  11.058   4.489
 3532SOL    HW212371   8.837  10.949   4.479
 3533SOL     OW12372   7.272  11.151  14.082
 3533SOL    HW112373   7.327  11.222  14.049
 3533SOL    HW212374   7.320  11.071  14.059
 3534SOL     OW12375   0.686   1.829  13.207
 3534SOL    HW112376   0.620   1.830  13.276
 3534SOL    HW212377   0.690   1.737  13.179
 3535SOL     OW12378   4.307   2.428   0.579
 3535SOL    HW112379   4.254   2.467   0.509
 3535SOL    HW212380   4.246   2.370   0.626
 3536SOL     OW12381   0.552  14.065  12.717
 3536SOL    HW112382   0.503  13.993  12.757
 3536SOL    HW212383   0.511  14.077  12.632
 3537SOL     OW12384   5.423   3.649   3.763
 3537SOL    HW112385   5.345   3.613   3.805
 3537SOL    HW212386   5.447   3.724   3.818
 3538SOL     OW12387   9.916   8.493  13.499
 3538SOL    HW112388   9.822   8.508  13.498
 3538SOL    HW212389   9.955   8.580  13.498
 3539SOL     OW12390   5.294   9.528  10.556
 3539SOL    HW112391   5.343   9.468  10.610
 3539SOL    HW212392   5.322   9.509  10.466
 3540SOL     OW12393   3.886   6.915   1.631
 3540SOL    HW112394   3.849   6.901   1.544
 3540SOL    HW212395   3.843   6.850   1.686
 3541SOL     OW12396   4.474   3.678   4.756
 3541SOL    HW112397   4.410   3.748   4.750
 3541SOL    HW212398   4.513   3.674   4.668
 3542SOL     OW12399   9.200  10.958  13.120
 3542SOL    HW112400   9.154  10.929  13.199
 3542SOL    HW212401   9.245  11.038  13.147
 3543SOL     OW12402   3.398   0.109   5.002
 3543SOL    HW112403   3.437   0.038   4.950
 3543SOL    HW212404   3.313   0.074   5.029
 3544SOL     OW12405  13.757   3.560  13.596
 3544SOL    HW112406  13.698   3.502  13.548
 3544SOL    HW212407  13.717   3.647  13.588
 3545SOL     OW12408  12.749   7.998   5.108
 3545SOL    HW112409  12.813   8.069   5.114
 3545SOL    HW212410  12.762   7.961   5.021
 3546SOL     OW12411   2.288   6.641   4.654
 3546SOL    HW112412   2.308   6.558   4.611
 3546SOL    HW212413   2.373   6.680   4.672
 3547SOL     OW12414  13.391   1.449   4.656
 3547SOL    HW112415  13.343   1.404   4.726
 3547SOL    HW212416  13.479   1.460   4.691
 3548SOL     OW12417   9.345   6.887   9.251
 3548SOL    HW112418   9.430   6.904   9.293
 3548SOL    HW212419   9.315   6.805   9.290
 3549SOL     OW12420   7.238   4.436  10.303
 3549SOL    HW112421   7.174   4.505  10.288
 3549SOL    HW212422   7.234   4.420  10.397
 3550SOL     OW12423   0.476  11.402   5.805
 3550SOL    HW112424   0.462  11.311   5.831
 3550SOL    HW212425   0.571  11.415   5.811
 3551SOL     OW12426   6.050   4.445   9.261
 3551SOL    HW112427   5.989   4.486   9.200
 3551SOL    HW212428   6.002   4.370   9.297
 3552SOL     OW12429   6.120  10.555  13.743
 3552SOL    HW112430   6.026  10.544  13.758
 3552SOL    HW212431   6.142  10.637  13.787
 3553SOL     OW12432  10.109   4.514  11.924
 3553SOL    HW112433  10.145   4.545  12.007
 3553SOL    HW212434  10.184   4.516  11.864
 3554SOL     OW12435  12.856   8.458   9.336
 3554SOL    HW112436  12.769   8.450   9.298
 3554SOL    HW212437  12.886   8.368   9.347
 3555SOL     OW12438  11.915   8.997  12.416
 3555SOL    HW112439  11.883   9.039  12.336
 3555SOL    HW212440  12.010   9.008  12.412
 3556SOL     OW12441  11.668   8.128  14.423
 3556SOL    HW112442  11.759   8.098  14.423
 3556SOL    HW212443  11.638   8.115  14.513
 3557SOL     OW12444  14.070  12.485   2.078
 3557SOL    HW112445  14.051  12.496   2.171
 3557SOL    HW212446  14.107  12.397   2.071
 3558SOL     OW12447  14.403   5.025  10.257
 3558SOL    HW112448  14.406   4.938  10.296
 3558SOL    HW212449  14.370   5.011  10.168
 3559SOL     OW12450  14.768  11.571   4.468
 3559SOL    HW112451  14.703  11.573   4.538
 3559SOL    HW212452  14.843  11.525   4.506
 3560SOL     OW12453   2.378   9.624   5.849
 3560SOL    HW112454   2.449   9.583   5.800
 3560SOL    HW212455   2.385   9.717   5.829
 3561SOL     OW12456   0.964   9.554  12.446
 3561SOL    HW112457   0.934   9.582  12.360
 3561SOL    HW212458   1.001   9.632  12.486
 3562SOL     OW12459   6.717   3.813   9.187
 3562SOL    HW112460   6.701   3.832   9.279
 3562SOL    HW212461   6.804   3.849   9.169
 3563SOL     OW12462   5.524   4.062  14.703
 3563SOL    HW112463   5.470   4.003  14.650
 3563SOL    HW212464   5.614   4.031  14.688
 3564SOL     OW12465   3.280   2.564   6.034
 3564SOL    HW112466   3.223   2.622   6.083
 3564SOL    HW212467   3.280   2.482   6.084
 3565SOL     OW12468  13.529   3.493   3.427
 3565SOL    HW112469  13.459   3.429   3.412
 3565SOL    HW212470  13.591   3.448   3.484
 3566SOL     OW12471   8.835   6.799   7.732
 3566SOL    HW112472   8.880   6.811   7.816
 3566SOL    HW212473   8.894   6.838   7.668
 3567SOL     OW12474  12.551   6.594  12.207
 3567SOL    HW112475  12.642   6.563  12.203
 3567SOL    HW212476  12.502   6.519  12.241
 3568SOL     OW12477   5.698   6.607   4.472
 3568SOL    HW112478   5.630   6.673   4.480
 3568SOL    HW212479   5.759   6.643   4.408
 3569SOL     OW12480   0.621   8.147   6.288
 3569SOL    HW112481   0.639   8.080   6.354
 3569SOL    HW212482   0.595   8.098   6.210
 3570SOL     OW12483  11.457  11.111   9.586
 3570SOL    HW112484  11.485  11.029   9.545
 3570SOL    HW212485  11.485  11.179   9.525
 3571SOL     OW12486  11.456   4.987   7.297
 3571SOL    HW112487  11.455   4.892   7.288
 3571SOL    HW212488  11.394   5.006   7.367
 3572SOL     OW12489   1.192   9.295   8.032
 3572SOL    HW112490   1.277   9.329   8.060
 3572SOL    HW212491   1.131   9.368   8.044
 3573SOL     OW12492  13.328  12.924  13.409
 3573SOL    HW112493  13.378  13.001  13.383
 3573SOL    HW212494  13.264  12.912  13.339
 3574SOL     OW12495  13.735   7.752   8.139
 3574SOL    HW112496  13.784   7.670   8.132
 3574SOL    HW212497  13.801   7.819   8.154
 3575SOL     OW12498   2.676   7.996   2.106
 3575SOL    HW112499   2.627   7.958   2.178
 3575SOL    HW212500   2.723   8.069   2.145
 3576SOL     OW12501  14.350  11.177  14.132
 3576SOL    HW112502  14.434  11.209  14.166
 3576SOL    HW212503  14.335  11.095  14.180
 3577SOL     OW12504   8.361   0.459  13.072
 3577SOL    HW112505   8.327   0.420  12.992
 3577SOL    HW212506   8.367   0.387  13.134
 3578SOL     OW12507   1.925   3.271  11.667
 3578SOL    HW112508   1.854   3.258  11.605
 3578SOL    HW212509   1.966   3.353  11.641
 3579SOL     OW12510   9.601  12.911   0.810
 3579SOL    HW112511   9.609  12.893   0.904
 3579SOL    HW212512   9.682  12.876   0.772
 3580SOL     OW12513  12.940   9.303   5.366
 3580SOL    HW112514  12.982   9.290   5.451
 3580SOL    HW212515  12.887   9.383   5.377
 3581SOL     OW12516   5.924   5.195  13.086
 3581SOL    HW112517   6.019   5.202  13.082
 3581SOL    HW212518   5.894   5.285  13.095
 3582SOL     OW12519  11.550  13.239   2.898
 3582SOL    HW112520  11.638  13.210   2.874
 3582SOL    HW212521  11.510  13.162   2.938
 3583SOL     OW12522   4.831   7.770   5.409
 3583SOL    HW112523   4.812   7.848   5.356
 3583SOL    HW212524   4.856   7.703   5.345
 3584SOL     OW12525   7.729   4.840  11.924
 3584SOL    HW112526   7.733   4.865  11.832
 3584SOL    HW212527   7.786   4.763  11.930
 3585SOL     OW12528  11.830  11.566   3.531
 3585SOL    HW112529  11.844  11.659   3.545
 3585SOL    HW212530  11.808  11.531   3.618
 3586SOL     OW12531  12.708  12.153  11.810
 3586SOL    HW112532  12.687  12.129  11.720
 3586SOL    HW212533  12.650  12.226  11.830
 3587SOL     OW12534   0.151  11.399   5.183
 3587SOL    HW112535   0.149  11.417   5.089
 3587SOL    HW212536   0.215  11.461   5.218
 3588SOL     OW12537  11.473  12.107  11.392
 3588SOL    HW112538  11.521  12.037  11.437
 3588SOL    HW212539  11.408  12.062  11.338
 3589SOL     OW12540  12.478   1.443   7.644
 3589SOL    HW112541  12.448   1.496   7.570
 3589SOL    HW212542  12.546   1.496   7.686
 3590SOL     OW12543   1.498   0.400   7.736
 3590SOL    HW112544   1.542   0.367   7.815
 3590SOL    HW212545   1.428   0.337   7.720
 3591SOL     OW12546   9.509   1.098  14.339
 3591SOL    HW112547   9.586   1.083  14.393
 3591SOL    HW212548   9.459   1.165  14.387
 3592SOL     OW12549   4.259   2.197   8.837
 3592SOL    HW112550   4.170   2.165   8.857
 3592SOL    HW212551   4.292   2.136   8.771
 3593SOL     OW12552  13.903   8.028   6.988
 3593SOL    HW112553  13.889   7.950   7.040
 3593SOL    HW212554  13.983   8.009   6.937
 3594SOL     OW12555   9.980   1.487   1.453
 3594SOL    HW112556  10.043   1.415   1.441
 3594SOL    HW212557  10.034   1.562   1.479
 3595SOL     OW12558   2.524  10.080   9.060
 3595SOL    HW112559   2.565  10.115   9.140
 3595SOL    HW212560   2.598  10.056   9.004
 3596SOL     OW12561   6.044   3.917  11.870
 3596SOL    HW112562   6.084   3.955  11.791
 3596SOL    HW212563   5.959   3.961  11.876
 3597SOL     OW12564   3.803   2.844   4.822
 3597SOL    HW112565   3.758   2.926   4.842
 3597SOL    HW212566   3.859   2.865   4.747
 3598SOL     OW12567  14.063  14.316   2.805
 3598SOL    HW112568  14.048  14.305   2.711
 3598SOL    HW212569  14.054  14.229   2.842
 3599SOL     OW12570  12.774  12.382   4.462
 3599SOL    HW112571  12.700  12.405   4.405
 3599SOL    HW212572  12.757  12.292   4.488
 3600SOL     OW12573  13.121  12.393   5.893
 3600SOL    HW112574  13.169  12.391   5.810
 3600SOL    HW212575  13.183  12.432   5.955
 3601SOL     OW12576   7.604  13.876  14.163
 3601SOL    HW112577   7.671  13.810  14.145
 3601SOL    HW212578   7.534  13.828  14.206
 3602SOL     OW12579  14.080   7.129  12.816
 3602SOL    HW112580  14.025   7.107  12.892
 3602SOL    HW212581  14.018   7.145  12.745
 3603SOL     OW12582  11.365  11.346   1.600
 3603SOL    HW112583  11.313  11.266   1.593
 3603SOL    HW212584  11.400  11.359   1.512
 3604SOL     OW12585  11.411   3.423   9.274
 3604SOL    HW112586  11.368   3.412   9.189
 3604SOL    HW212587  11.378   3.507   9.307
 3605SOL     OW12588   6.811  13.938  14.675
 3605SOL    HW112589   6.834  13.921  14.767
 3605SOL    HW212590   6.848  13.864  14.627
 3606SOL     OW12591   4.638   7.313   7.042
 3606SOL    HW112592   4.595   7.234   7.010
 3606SOL    HW212593   4.649   7.297   7.136
 3607SOL     OW12594   6.045  13.775  14.522
 3607SOL    HW112595   5.950  13.781  14.532
 3607SOL    HW212596   6.076  13.864  14.542
 3608SOL     OW12597  14.822  14.873   8.679
 3608SOL    HW112598  14.858   0.075   8.717
 3608SOL    HW212599  14.727   0.010   8.679
 3609SOL     OW12600   0.320   3.896   5.725
 3609SOL    HW112601   0.239   3.892   5.674
 3609SOL    HW212602   0.349   3.986   5.717
 3610SOL     OW12603   5.660   3.589  12.024
 3610SOL    HW112604   5.682   3.497  12.009
 3610SOL    HW212605   5.744   3.634  12.027
 3611SOL     OW12606  14.812  13.175  14.547
 3611SOL    HW112607  14.800  13.236  14.474
 3611SOL    HW212608   0.029  13.168  14.557
 3612SOL     OW12609   4.520   1.376  11.147
 3612SOL    HW112610   4.581   1.342  11.213
 3612SOL    HW212611   4.495   1.299  11.096
 3613SOL     OW12612   3.688   1.553   3.413
 3613SOL    HW112613   3.655   1.631   3.370
 3613SOL    HW212614   3.618   1.528   3.473
 3614SOL     OW12615   9.706   5.841   5.855
 3614SOL    HW112616   9.612   5.835   5.873
 3614SOL    HW212617   9.732   5.925   5.892
 3615SOL     OW12618   6.836   0.050  10.580
 3615SOL    HW112619   6.784   0.020  10.505
 3615SOL    HW212620   6.777   0.038  10.655
 3616SOL     OW12621   1.837   0.432  12.482
 3616SOL    HW112622   1.842   0.525  12.458
 3616SOL    HW212623   1.928   0.406  12.495
 3617SOL     OW12624   6.756   1.956  12.221
 3617SOL    HW112625   6.714   1.986  12.302
 3617SOL    HW212626   6.837   2.006  12.215
 3618SOL     OW12627  13.421  11.244   7.513
 3618SOL    HW112628  13.412  11.238   7.418
 3618SOL    HW212629  13.505  11.201   7.532
 3619SOL     OW12630   9.181   9.534   3.217
 3619SOL    HW112631   9.276   9.547   3.213
 3619SOL    HW212632   9.145   9.622   3.224
 3620SOL     OW12633   3.548   0.816   1.770
 3620SOL    HW112634   3.503   0.741   1.732
 3620SOL    HW212635   3.511   0.824   1.858
 3621SOL     OW12636   4.932   9.703  13.657
 3621SOL    HW112637   4.971   9.635  13.603
 3621SOL    HW212638   4.881   9.756  13.596
 3622SOL     OW12639  13.655   5.530  10.288
 3622SOL    HW112640  13.711   5.458  10.319
 3622SOL    HW212641  13.657   5.593  10.360
 3623SOL     OW12642   6.008   8.595  13.265
 3623SOL    HW112643   5.987   8.589  13.358
 3623SOL    HW212644   5.983   8.511  13.229
 3624SOL     OW12645   8.679  14.715  10.429
 3624SOL    HW112646   8.703  14.677  10.514
 3624SOL    HW212647   8.721  14.801  10.428
 3625SOL     OW12648   1.934   0.159   2.516
 3625SOL    HW112649   2.014   0.195   2.556
 3625SOL    HW212650   1.908   0.088   2.576
 3626SOL     OW12651  12.778   4.635   7.473
 3626SOL    HW112652  12.773   4.715   7.421
 3626SOL    HW212653  12.727   4.655   7.552
 3627SOL     OW12654   2.108  13.628  10.828
 3627SOL    HW112655   2.200  13.655  10.833
 3627SOL    HW212656   2.106  13.542  10.869
 3628SOL     OW12657   7.097   1.482  12.010
 3628SOL    HW112658   7.142   1.560  11.977
 3628SOL    HW212659   7.164   1.413  12.006
 3629SOL     OW12660  11.663   7.663  11.387
 3629SOL    HW112661  11.634   7.702  11.304
 3629SOL    HW212662  11.642   7.570  11.378
 3630SOL     OW12663  14.841   3.159   6.728
 3630SOL    HW112664  14.818   3.073   6.763
 3630SOL    HW212665  14.802   3.160   6.640
 3631SOL     OW12666   0.013  11.823   6.772
 3631SOL    HW112667  14.877  11.729   6.781
 3631SOL    HW212668  14.846  11.860   6.848
 3632SOL     OW12669   9.702  12.472  13.122
 3632SOL    HW112670   9.701  12.396  13.063
 3632SOL    HW212671   9.768  12.449  13.188
 3633SOL     OW12672  10.377  10.130   7.717
 3633SOL    HW112673  10.345  10.040   7.709
 3633SOL    HW212674  10.301  10.184   7.697
 3634SOL     OW12675   7.752   3.329   3.288
 3634SOL    HW112676   7.753   3.291   3.200
 3634SOL    HW212677   7.683   3.280   3.334
 3635SOL     OW12678   7.436   0.123   0.657
 3635SOL    HW112679   7.505   0.067   0.620
 3635SOL    HW212680   7.382   0.147   0.582
 3636SOL     OW12681   8.057  14.001  11.425
 3636SOL    HW112682   7.995  14.072  11.406
 3636SOL    HW212683   8.084  13.969  11.339
 3637SOL     OW12684   9.118   8.125   9.276
 3637SOL    HW112685   9.106   8.100   9.184
 3637SOL    HW212686   9.104   8.045   9.325
 3638SOL     OW12687  13.998   0.923  14.274
 3638SOL    HW112688  13.913   0.917  14.229
 3638SOL    HW212689  13.997   1.008  14.317
 3639SOL     OW12690   7.695   9.259  12.728
 3639SOL    HW112691   7.773   9.212  12.697
 3639SOL    HW212692   7.689   9.235  12.820
 3640SOL     OW12693   4.661  10.920   1.702
 3640SOL    HW112694   4.702  10.901   1.787
 3640SOL    HW212695   4.580  10.967   1.725
 3641SOL     OW12696  11.030   5.783   8.609
 3641SOL    HW112697  10.946   5.806   8.650
 3641SOL    HW212698  11.053   5.698   8.648
 3642SOL     OW12699   4.164   4.061   3.094
 3642SOL    HW112700   4.152   4.002   3.019
 3642SOL    HW212701   4.089   4.120   3.089
 3643SOL     OW12702  10.331   1.553   8.173
 3643SOL    HW112703  10.273   1.488   8.134
 3643SOL    HW212704  10.413   1.506   8.188
 3644SOL     OW12705  11.464   8.375   4.510
 3644SOL    HW112706  11.453   8.394   4.416
 3644SOL    HW212707  11.444   8.282   4.518
 3645SOL     OW12708   5.767   9.087   5.251
 3645SOL    HW112709   5.717   9.012   5.282
 3645SOL    HW212710   5.856   9.071   5.282
 3646SOL     OW12711   4.753   9.942  10.499
 3646SOL    HW112712   4.772   9.904  10.584
 3646SOL    HW212713   4.839   9.951  10.457
 3647SOL     OW12714  10.703  13.359   0.671
 3647SOL    HW112715  10.643  13.408   0.615
 3647SOL    HW212716  10.787  13.405   0.663
 3648SOL     OW12717  11.401  11.309   6.632
 3648SOL    HW112718  11.473  11.249   6.613
 3648SOL    HW212719  11.326  11.274   6.584
 3649SOL     OW12720  12.495  14.549  10.412
 3649SOL    HW112721  12.426  14.569  10.348
 3649SOL    HW212722  12.478  14.459  10.438
 3650SOL     OW12723  14.096  14.432   3.524
 3650SOL    HW112724  14.037  14.383   3.466
 3650SOL    HW212725  14.126  14.368   3.588
 3651SOL     OW12726  12.625   3.505   7.164
 3651SOL    HW112727  12.666   3.592   7.167
 3651SOL    HW212728  12.633   3.477   7.073
 3652SOL     OW12729   4.149   1.339   7.416
 3652SOL    HW112730   4.098   1.418   7.431
 3652SOL    HW212731   4.093   1.283   7.363
 3653SOL     OW12732   1.539   7.641  11.260
 3653SOL    HW112733   1.524   7.622  11.353
 3653SOL    HW212734   1.619   7.694  11.259
 3654SOL     OW12735   9.155   2.032   6.237
 3654SOL    HW112736   9.240   2.077   6.238
 3654SOL    HW212737   9.092   2.099   6.215
 3655SOL     OW12738   7.033  11.076  13.875
 3655SOL    HW112739   7.024  11.165  13.843
 3655SOL    HW212740   6.951  11.033  13.850
 3656SOL     OW12741   7.478   1.276   7.050
 3656SOL    HW112742   7.452   1.308   6.964
 3656SOL    HW212743   7.568   1.246   7.038
 3657SOL     OW12744  11.471   6.394  10.083
 3657SOL    HW112745  11.386   6.435  10.066
 3657SOL    HW212746  11.486   6.407  10.176
 3658SOL     OW12747   8.526   0.166   5.828
 3658SOL    HW112748   8.585   0.102   5.789
 3658SOL    HW212749   8.579   0.208   5.897
 3659SOL     OW12750   0.681  10.615   9.563
 3659SOL    HW112751   0.756  10.562   9.592
 3659SOL    HW212752   0.616  10.604   9.632
 3660SOL     OW12753   5.911  10.385   8.607
 3660SOL    HW112754   5.963  10.463   8.588
 3660SOL    HW212755   5.831  10.396   8.554
 3661SOL     OW12756  11.379  12.709  11.001
 3661SOL    HW112757  11.381  12.804  11.016
 3661SOL    HW212758  11.296  12.694  10.956
 3662SOL     OW12759   3.903  14.798  13.626
 3662SOL    HW112760   3.957  14.854  13.570
 3662SOL    HW212761   3.879  14.724  13.570
 3663SOL     OW12762   7.502   6.219   7.403
 3663SOL    HW112763   7.569   6.217   7.334
 3663SOL    HW212764   7.550   6.201   7.484
 3664SOL     OW12765   5.162  12.492  12.677
 3664SOL    HW112766   5.090  12.456  12.625
 3664SOL    HW212767   5.129  12.491  12.767
 3665SOL     OW12768   3.828   6.168  10.122
 3665SOL    HW112769   3.800   6.078  10.110
 3665SOL    HW212770   3.839   6.177  10.217
 3666SOL     OW12771  10.765  14.041   3.910
 3666SOL    HW112772  10.671  14.054   3.922
 3666SOL    HW212773  10.771  13.984   3.833
 3667SOL     OW12774   7.264   6.818   3.143
 3667SOL    HW112775   7.213   6.737   3.136
 3667SOL    HW212776   7.202   6.886   3.118
 3668SOL     OW12777   2.150   9.830  12.952
 3668SOL    HW112778   2.235   9.865  12.979
 3668SOL    HW212779   2.100   9.822  13.033
 3669SOL     OW12780   5.384   9.184   2.998
 3669SOL    HW112781   5.374   9.266   3.045
 3669SOL    HW212782   5.405   9.120   3.066
 3670SOL     OW12783   3.161  12.387   3.533
 3670SOL    HW112784   3.236  12.330   3.552
 3670SOL    HW212785   3.178  12.467   3.582
 3671SOL     OW12786   4.106   3.760  13.862
 3671SOL    HW112787   4.176   3.695  13.868
 3671SOL    HW212788   4.029   3.710  13.832
 3672SOL     OW12789   9.534  10.815  14.616
 3672SOL    HW112790   9.481  10.869  14.558
 3672SOL    HW212791   9.515  10.848  14.704
 3673SOL     OW12792  13.732   9.518   1.095
 3673SOL    HW112793  13.667   9.455   1.125
 3673SOL    HW212794  13.816   9.478   1.116
 3674SOL     OW12795  10.636  10.028   0.461
 3674SOL    HW112796  10.686  10.108   0.446
 3674SOL    HW212797  10.663   9.969   0.390
 3675SOL     OW12798   7.150  10.783   2.154
 3675SOL    HW112799   7.144  10.788   2.059
 3675SOL    HW212800   7.105  10.701   2.176
 3676SOL     OW12801   1.159  10.655   0.351
 3676SOL    HW112802   1.159  10.560   0.341
 3676SOL    HW212803   1.143  10.688   0.263
 3677SOL     OW12804   5.120   4.880   1.449
 3677SOL    HW112805   5.159   4.835   1.374
 3677SOL    HW212806   5.077   4.811   1.499
 3678SOL     OW12807   1.000  10.247   0.843
 3678SOL    HW112808   0.923  10.209   0.801
 3678SOL    HW212809   1.030  10.179   0.904
 3679SOL     OW12810   6.745   0.030  11.563
 3679SOL    HW112811   6.700   0.001  11.643
 3679SOL    HW212812   6.838   0.027  11.586
 3680SOL     OW12813   7.896   9.844   1.319
 3680SOL    HW112814   7.810   9.851   1.277
 3680SOL    HW212815   7.943   9.922   1.290
 3681SOL     OW12816  10.426  10.838   1.597
 3681SOL    HW112817  10.339  10.802   1.578
 3681SOL    HW212818  10.416  10.932   1.585
 3682SOL     OW12819  10.504  11.926   6.336
 3682SOL    HW112820  10.423  11.899   6.293
 3682SOL    HW212821  10.570  11.918   6.267
 3683SOL     OW12822   9.340   4.838   9.961
 3683SOL    HW112823   9.274   4.773   9.936
 3683SOL    HW212824   9.298   4.923   9.947
 3684SOL     OW12825  10.051   5.639   1.047
 3684SOL    HW112826  10.130   5.691   1.064
 3684SOL    HW212827  10.006   5.636   1.131
 3685SOL     OW12828   3.668  11.929  13.689
 3685SOL    HW112829   3.605  11.867  13.653
 3685SOL    HW212830   3.677  11.996  13.622
 3686SOL     OW12831   4.645   5.006  12.924
 3686SOL    HW112832   4.551   5.008  12.908
 3686SOL    HW212833   4.656   4.938  12.992
 3687SOL     OW12834   3.936   3.413   0.890
 3687SOL    HW112835   3.881   3.472   0.838
 3687SOL    HW212836   4.001   3.470   0.930
 3688SOL     OW12837   2.858  14.811   8.149
 3688SOL    HW112838   2.775  14.847   8.178
 3688SOL    HW212839   2.844  14.716   8.148
 3689SOL     OW12840   6.593  14.393  12.082
 3689SOL    HW112841   6.509  14.419  12.119
 3689SOL    HW212842   6.658  14.444  12.131
 3690SOL     OW12843   7.018   1.612  14.635
 3690SOL    HW112844   7.016   1.609  14.731
 3690SOL    HW212845   7.110   1.623  14.613
 3691SOL     OW12846   8.553   6.044  10.469
 3691SOL    HW112847   8.489   6.107  10.437
 3691SOL    HW212848   8.586   5.999  10.391
 3692SOL     OW12849  10.634   4.561  12.645
 3692SOL    HW112850  10.578   4.544  12.720
 3692SOL    HW212851  10.721   4.532  12.673
 3693SOL     OW12852   4.876   5.890  10.934
 3693SOL    HW112853   4.934   5.830  10.887
 3693SOL    HW212854   4.896   5.976  10.898
 3694SOL     OW12855   9.413   3.333   5.883
 3694SOL    HW112856   9.401   3.420   5.923
 3694SOL    HW212857   9.393   3.347   5.791
 3695SOL     OW12858   5.009  11.038   4.800
 3695SOL    HW112859   5.064  11.102   4.845
 3695SOL    HW212860   5.008  10.962   4.858
 3696SOL     OW12861  13.799  11.620   3.223
 3696SOL    HW112862  13.757  11.640   3.306
 3696SOL    HW212863  13.877  11.676   3.222
 3697SOL     OW12864   2.916  14.620   7.796
 3697SOL    HW112865   2.929  14.577   7.881
 3697SOL    HW212866   2.826  14.653   7.800
 3698SOL     OW12867  13.000   4.601   8.117
 3698SOL    HW112868  12.955   4.606   8.033
 3698SOL    HW212869  13.078   4.548   8.099
 3699SOL     OW12870  14.755   3.587   7.780
 3699SOL    HW112871  14.736   3.555   7.868
 3699SOL    HW212872  14.737   3.680   7.783
 3700SOL     OW12873  10.086   2.555   1.390
 3700SOL    HW112874  10.030   2.543   1.467
 3700SOL    HW212875  10.034   2.523   1.317
 3701SOL     OW12876  11.581  11.141   3.031
 3701SOL    HW112877  11.564  11.214   2.971
 3701SOL    HW212878  11.665  11.106   3.002
 3702SOL     OW12879   4.894   4.910   1.766
 3702SOL    HW112880   4.799   4.923   1.766
 3702SOL    HW212881   4.906   4.823   1.728
 3703SOL     OW12882   2.708   4.089   8.105
 3703SOL    HW112883   2.781   4.027   8.111
 3703SOL    HW212884   2.740   4.167   8.150
 3704SOL     OW12885  11.725   5.554   4.498
 3704SOL    HW112886  11.808   5.507   4.504
 3704SOL    HW212887  11.750   5.646   4.495
 3705SOL     OW12888   4.093   5.800  11.178
 3705SOL    HW112889   4.175   5.764  11.213
 3705SOL    HW212890   4.025   5.748  11.221
 3706SOL     OW12891   1.076   2.384   0.566
 3706SOL    HW112892   1.033   2.344   0.490
 3706SOL    HW212893   1.151   2.328   0.584
 3707SOL     OW12894   7.227  11.747   7.813
 3707SOL    HW112895   7.197  11.782   7.897
 3707SOL    HW212896   7.147  11.740   7.761
 3708SOL     OW12897  14.028   3.192  14.299
 3708SOL    HW112898  13.978   3.117  14.333
 3708SOL    HW212899  14.035   3.252  14.374
 3709SOL     OW12900  12.778   2.177  13.087
 3709SOL    HW112901  12.718   2.167  13.013
 3709SOL    HW212902  12.858   2.134  13.059
 3710SOL     OW12903   2.957   2.924  11.641
 3710SOL    HW112904   3.041   2.889  11.671
 3710SOL    HW212905   2.903   2.848  11.625
 3711SOL     OW12906  12.618   7.227   8.591
 3711SOL    HW112907  12.552   7.236   8.660
 3711SOL    HW212908  12.637   7.317   8.564
 3712SOL     OW12909   8.612   3.693  11.634
 3712SOL    HW112910   8.574   3.697  11.722
 3712SOL    HW212911   8.646   3.781  11.618
 3713SOL     OW12912  12.111   4.626   6.430
 3713SOL    HW112913  12.118   4.616   6.335
 3713SOL    HW212914  12.025   4.665   6.443
 3714SOL     OW12915  11.666   3.893  13.886
 3714SOL    HW112916  11.577   3.873  13.856
 3714SOL    HW212917  11.670   3.989  13.884
 3715SOL     OW12918   2.363   8.012   4.592
 3715SOL    HW112919   2.286   7.955   4.585
 3715SOL    HW212920   2.330   8.090   4.637
 3716SOL     OW12921   3.864   5.454   8.254
 3716SOL    HW112922   3.867   5.358   8.249
 3716SOL    HW212923   3.844   5.472   8.345
 3717SOL     OW12924  13.840   9.261   6.395
 3717SOL    HW112925  13.895   9.272   6.473
 3717SOL    HW212926  13.809   9.349   6.375
 3718SOL     OW12927  12.712  11.248   0.862
 3718SOL    HW112928  12.775  11.221   0.795
 3718SOL    HW212929  12.645  11.180   0.861
 3719SOL     OW12930   7.763  10.787  11.077
 3719SOL    HW112931   7.791  10.700  11.048
 3719SOL    HW212932   7.746  10.775  11.171
 3720SOL     OW12933   9.999  12.696  12.680
 3720SOL    HW112934  10.034  12.696  12.769
 3720SOL    HW212935   9.914  12.739  12.688
 3721SOL     OW12936   8.201  11.169  10.928
 3721SOL    HW112937   8.234  11.097  10.874
 3721SOL    HW212938   8.205  11.135  11.017
 3722SOL     OW12939  11.338   4.477   1.065
 3722SOL    HW112940  11.278   4.404   1.047
 3722SOL    HW212941  11.294   4.528   1.133
 3723SOL     OW12942  11.006   1.495   7.575
 3723SOL    HW112943  11.009   1.516   7.481
 3723SOL    HW212944  10.927   1.539   7.606
 3724SOL     OW12945   2.637   1.935   7.374
 3724SOL    HW112946   2.575   1.896   7.436
 3724SOL    HW212947   2.720   1.890   7.392
 3725SOL     OW12948  13.908   6.712   9.739
 3725SOL    HW112949  13.879   6.793   9.695
 3725SOL    HW212950  13.829   6.659   9.745
 3726SOL     OW12951   0.987  11.302   0.935
 3726SOL    HW112952   1.055  11.350   0.889
 3726SOL    HW212953   0.934  11.262   0.865
 3727SOL     OW12954  11.706   8.547   8.243
 3727SOL    HW112955  11.638   8.611   8.227
 3727SOL    HW212956  11.702   8.531   8.338
 3728SOL     OW12957   4.023   9.047   5.555
 3728SOL    HW112958   4.115   9.072   5.565
 3728SOL    HW212959   3.997   9.017   5.642
 3729SOL     OW12960   8.919  13.086  11.855
 3729SOL    HW112961   8.996  13.036  11.884
 3729SOL    HW212962   8.865  13.094  11.934
 3730SOL     OW12963   0.602  14.049   8.704
 3730SOL    HW112964   0.641  14.021   8.622
 3730SOL    HW212965   0.525  13.993   8.715
 3731SOL     OW12966   1.100  14.664   5.065
 3731SOL    HW112967   1.123  14.670   4.973
 3731SOL    HW212968   1.065  14.750   5.087
 3732SOL     OW12969  10.221  14.506   5.687
 3732SOL    HW112970  10.206  14.434   5.627
 3732SOL    HW212971  10.182  14.478   5.769
 3733SOL     OW12972   7.605  10.752   1.196
 3733SOL    HW112973   7.666  10.681   1.214
 3733SOL    HW212974   7.595  10.750   1.101
 3734SOL     OW12975  11.956   9.071   0.162
 3734SOL    HW112976  12.048   9.062   0.186
 3734SOL    HW212977  11.956   9.071   0.067
 3735SOL     OW12978   7.384   6.036   1.418
 3735SOL    HW112979   7.400   6.125   1.388
 3735SOL    HW212980   7.351   6.047   1.507
 3736SOL     OW12981  10.880   6.434   1.055
 3736SOL    HW112982  10.946   6.423   1.124
 3736SOL    HW212983  10.929   6.462   0.978
 3737SOL     OW12984   1.431  12.698  13.215
 3737SOL    HW112985   1.381  12.731  13.290
 3737SOL    HW212986   1.434  12.603  13.228
 3738SOL     OW12987   8.360   5.221   7.329
 3738SOL    HW112988   8.399   5.133   7.330
 3738SOL    HW212989   8.432   5.280   7.348
 3739SOL     OW12990  11.858   6.875   5.994
 3739SOL    HW112991  11.932   6.913   6.041
 3739SOL    HW212992  11.888   6.788   5.968
 3740SOL     OW12993   0.050  11.605   0.105
 3740SOL    HW112994   0.062  11.666   0.178
 3740SOL    HW212995  14.845  11.631   0.065
 3741SOL     OW12996   5.768   4.002   7.053
 3741SOL    HW112997   5.685   4.044   7.078
 3741SOL    HW212998   5.752   3.967   6.966
 3742SOL     OW12999   5.587  13.892   8.951
 3742SOL    HW113000   5.533  13.830   9.001
 3742SOL    HW213001   5.671  13.848   8.944
 3743SOL     OW13002   6.748   9.504   9.921
 3743SOL    HW113003   6.688   9.558   9.973
 3743SOL    HW213004   6.775   9.561   9.849
 3744SOL     OW13005   4.823  10.304   4.272
 3744SOL    HW113006   4.826  10.265   4.360
 3744SOL    HW213007   4.742  10.270   4.234
 3745SOL     OW13008   2.646   4.532  11.241
 3745SOL    HW113009   2.652   4.611  11.295
 3745SOL    HW213010   2.585   4.555  11.171
 3746SOL     OW13011   8.340  13.133   6.284
 3746SOL    HW113012   8.322  13.114   6.192
 3746SOL    HW213013   8.253  13.140   6.325
 3747SOL     OW13014  11.468  12.870   8.539
 3747SOL    HW113015  11.420  12.951   8.558
 3747SOL    HW213016  11.420  12.831   8.466
 3748SOL     OW13017   7.256  12.750   6.356
 3748SOL    HW113018   7.340  12.706   6.373
 3748SOL    HW213019   7.278  12.843   6.353
 3749SOL     OW13020   3.914   9.206  13.719
 3749SOL    HW113021   3.827   9.185  13.754
 3749SOL    HW213022   3.972   9.143  13.761
 3750SOL     OW13023  11.316   5.885   1.198
 3750SOL    HW113024  11.318   5.924   1.111
 3750SOL    HW213025  11.392   5.826   1.199
 3751SOL     OW13026   1.424   8.630   7.008
 3751SOL    HW113027   1.424   8.535   7.004
 3751SOL    HW213028   1.339   8.652   7.049
 3752SOL     OW13029   1.669  13.500   5.272
 3752SOL    HW113030   1.640  13.509   5.362
 3752SOL    HW213031   1.617  13.563   5.222
 3753SOL     OW13032  12.508  12.542  10.305
 3753SOL    HW113033  12.562  12.562  10.382
 3753SOL    HW213034  12.421  12.576  10.328
 3754SOL     OW13035   6.502   4.012   6.212
 3754SOL    HW113036   6.586   4.047   6.184
 3754SOL    HW213037   6.524   3.939   6.269
 3755SOL     OW13038   1.311   6.381  13.192
 3755SOL    HW113039   1.389   6.434  13.204
 3755SOL    HW213040   1.340   6.306  13.141
 3756SOL     OW13041   4.654  13.279   7.456
 3756SOL    HW113042   4.728  13.254   7.402
 3756SOL    HW213043   4.608  13.345   7.405
 3757SOL     OW13044   9.252   4.327   7.506
 3757SOL    HW113045   9.278   4.244   7.465
 3757SOL    HW213046   9.306   4.332   7.585
 3758SOL     OW13047  11.081   7.470   3.534
 3758SOL    HW113048  11.084   7.543   3.472
 3758SOL    HW213049  11.018   7.408   3.495
 3759SOL     OW13050  10.298   8.227   2.680
 3759SOL    HW113051  10.295   8.249   2.773
 3759SOL    HW213052  10.353   8.149   2.675
 3760SOL     OW13053   0.873  10.231  13.623
 3760SOL    HW113054   0.891  10.303  13.564
 3760SOL    HW213055   0.838  10.162  13.566
 3761SOL     OW13056  13.799  10.160   3.805
 3761SOL    HW113057  13.806  10.107   3.885
 3761SOL    HW213058  13.864  10.124   3.746
 3762SOL     OW13059   6.504   1.886  10.347
 3762SOL    HW113060   6.434   1.949  10.330
 3762SOL    HW213061   6.540   1.866  10.261
 3763SOL     OW13062   7.486   8.134  12.819
 3763SOL    HW113063   7.491   8.213  12.765
 3763SOL    HW213064   7.575   8.100  12.820
 3764SOL     OW13065  13.657  10.681   1.908
 3764SOL    HW113066  13.583  10.711   1.960
 3764SOL    HW213067  13.617  10.630   1.837
 3765SOL     OW13068  14.315   5.783   2.004
 3765SOL    HW113069  14.386   5.813   1.947
 3765SOL    HW213070  14.235   5.796   1.952
 3766SOL     OW13071   9.358   5.505   5.665
 3766SOL    HW113072   9.377   5.440   5.733
 3766SOL    HW213073   9.270   5.482   5.635
 3767SOL     OW13074   1.273   1.323   6.195
 3767SOL    HW113075   1.267   1.230   6.173
 3767SOL    HW213076   1.359   1.350   6.161
 3768SOL     OW13077   6.085   7.550   3.555
 3768SOL    HW113078   6.010   7.513   3.506
 3768SOL    HW213079   6.046   7.617   3.611
 3769SOL     OW13080  12.594   2.248  13.667
 3769SOL    HW113081  12.631   2.281  13.585
 3769SOL    HW213082  12.531   2.181  13.639
 3770SOL     OW13083   5.206   1.565  11.889
 3770SOL    HW113084   5.197   1.612  11.971
 3770SOL    HW213085   5.130   1.591  11.838
 3771SOL     OW13086   7.137  13.427   2.239
 3771SOL    HW113087   7.092  13.439   2.322
 3771SOL    HW213088   7.167  13.514   2.215
 3772SOL     OW13089   7.569   8.422   1.658
 3772SOL    HW113090   7.515   8.348   1.630
 3772SOL    HW213091   7.522   8.499   1.627
 3773SOL     OW13092   5.774   3.204   8.949
 3773SOL    HW113093   5.786   3.114   8.980
 3773SOL    HW213094   5.693   3.233   8.991
 3774SOL     OW13095  14.300   6.412   7.056
 3774SOL    HW113096  14.324   6.379   7.142
 3774SOL    HW213097  14.276   6.333   7.006
 3775SOL     OW13098   9.403  12.352   0.082
 3775SOL    HW113099   9.442  12.382   0.164
 3775SOL    HW213100   9.473  12.358   0.017
 3776SOL     OW13101   5.366  13.059   5.978
 3776SOL    HW113102   5.380  13.145   5.939
 3776SOL    HW213103   5.449  13.038   6.020
 3777SOL     OW13104   6.212   9.330  12.682
 3777SOL    HW113105   6.189   9.243  12.713
 3777SOL    HW213106   6.213   9.384  12.761
 3778SOL     OW13107   1.189   2.441   8.661
 3778SOL    HW113108   1.111   2.390   8.683
 3778SOL    HW213109   1.259   2.377   8.658
 3779SOL     OW13110   6.643  11.478   9.508
 3779SOL    HW113111   6.562  11.441   9.472
 3779SOL    HW213112   6.657  11.431   9.590
 3780SOL     OW13113   1.749   3.590  10.650
 3780SOL    HW113114   1.834   3.619  10.684
 3780SOL    HW213115   1.716   3.666  10.602
 3781SOL     OW13116   8.976   1.321   1.785
 3781SOL    HW113117   9.056   1.273   1.763
 3781SOL    HW213118   8.909   1.253   1.793
 3782SOL     OW13119  14.634  14.746  12.062
 3782SOL    HW113120  14.663  14.748  11.971
 3782SOL    HW213121  14.636  14.837  12.090
 3783SOL     OW13122  12.554   7.997   6.402
 3783SOL    HW113123  12.642   7.958   6.401
 3783SOL    HW213124  12.556   8.063   6.333
 3784SOL     OW13125   2.634  11.743   7.188
 3784SOL    HW113126   2.652  11.836   7.183
 3784SOL    HW213127   2.602  11.720   7.100
 3785SOL     OW13128  13.233   8.120   1.829
 3785SOL    HW113129  13.166   8.052   1.838
 3785SOL    HW213130  13.316   8.074   1.847
 3786SOL     OW13131  14.062   2.167  11.920
 3786SOL    HW113132  14.013   2.242  11.954
 3786SOL    HW213133  14.011   2.091  11.948
 3787SOL     OW13134   1.696   1.102   6.256
 3787SOL    HW113135   1.769   1.132   6.202
 3787SOL    HW213136   1.678   1.013   6.225
 3788SOL     OW13137   7.604   7.105  11.142
 3788SOL    HW113138   7.564   7.030  11.098
 3788SOL    HW213139   7.654   7.066  11.214
 3789SOL     OW13140   3.155  14.536   8.349
 3789SOL    HW113141   3.155  14.592   8.426
 3789SOL    HW213142   3.248  14.518   8.333
 3790SOL     OW13143  13.357   9.754   2.262
 3790SOL    HW113144  13.437   9.715   2.297
 3790SOL    HW213145  13.353   9.724   2.171
 3791SOL     OW13146  10.155  13.773  10.932
 3791SOL    HW113147  10.156  13.755  11.026
 3791SOL    HW213148  10.169  13.688  10.891
 3792SOL     OW13149  11.649   0.805  10.622
 3792SOL    HW113150  11.684   0.795  10.710
 3792SOL    HW213151  11.578   0.868  10.631
 3793SOL     OW13152  10.889  12.765  12.672
 3793SOL    HW113153  10.939  12.727  12.744
 3793SOL    HW213154  10.880  12.858  12.693
 3794SOL     OW13155  14.779   3.340   4.878
 3794SOL    HW113156  14.852   3.390   4.915
 3794SOL    HW213157  14.746   3.394   4.807
 3795SOL     OW13158  12.959  14.230   9.100
 3795SOL    HW113159  12.908  14.293   9.050
 3795SOL    HW213160  12.924  14.236   9.189
 3796SOL     OW13161   1.615   1.180   1.211
 3796SOL    HW113162   1.663   1.252   1.252
 3796SOL    HW213163   1.610   1.204   1.119
 3797SOL     OW13164  11.745   7.940  12.320
 3797SOL    HW113165  11.838   7.954  12.338
 3797SOL    HW213166  11.743   7.895  12.236
 3798SOL     OW13167   0.688  10.161   6.885
 3798SOL    HW113168   0.678  10.255   6.874
 3798SOL    HW213169   0.781  10.144   6.866
 3799SOL     OW13170   4.104  13.187  11.593
 3799SOL    HW113171   4.071  13.153  11.676
 3799SOL    HW213172   4.175  13.246  11.618
 3800SOL     OW13173   8.284  11.842   9.570
 3800SOL    HW113174   8.246  11.927   9.591
 3800SOL    HW213175   8.249  11.821   9.484
 3801SOL     OW13176   6.681   4.171   5.532
 3801SOL    HW113177   6.764   4.171   5.581
 3801SOL    HW213178   6.707   4.157   5.441
 3802SOL     OW13179   1.485   5.657   1.570
 3802SOL    HW113180   1.464   5.656   1.664
 3802SOL    HW213181   1.478   5.749   1.545
 3803SOL     OW13182  10.619   5.574   2.011
 3803SOL    HW113183  10.677   5.523   2.067
 3803SOL    HW213184  10.677   5.610   1.943
 3804SOL     OW13185   9.042   0.318  13.361
 3804SOL    HW113186   8.997   0.346  13.281
 3804SOL    HW213187   9.095   0.243  13.333
 3805SOL     OW13188  11.936   1.393   5.724
 3805SOL    HW113189  12.013   1.336   5.727
 3805SOL    HW213190  11.954   1.461   5.789
 3806SOL     OW13191   1.511   9.458   4.822
 3806SOL    HW113192   1.576   9.525   4.845
 3806SOL    HW213193   1.427   9.496   4.848
 3807SOL     OW13194   9.869   5.243  10.018
 3807SOL    HW113195   9.905   5.156  10.036
 3807SOL    HW213196   9.783   5.224   9.979
 3808SOL     OW13197  14.472  11.618  11.018
 3808SOL    HW113198  14.418  11.640  10.942
 3808SOL    HW213199  14.471  11.697  11.071
 3809SOL     OW13200   1.654   6.540   4.017
 3809SOL    HW113201   1.588   6.606   3.994
 3809SOL    HW213202   1.704   6.580   4.088
 3810SOL     OW13203   5.766   1.645  14.709
 3810SOL    HW113204   5.820   1.724  14.702
 3810SOL    HW213205   5.693   1.660  14.650
 3811SOL     OW13206   1.172  10.253   6.914
 3811SOL    HW113207   1.251  10.203   6.932
 3811SOL    HW213208   1.144  10.285   7.000
 3812SOL     OW13209   4.443   7.576   8.351
 3812SOL    HW113210   4.431   7.659   8.306
 3812SOL    HW213211   4.483   7.518   8.286
 3813SOL     OW13212  12.684  10.607  11.126
 3813SOL    HW113213  12.719  10.539  11.068
 3813SOL    HW213214  12.655  10.676  11.066
 3814SOL     OW13215  12.149   2.408   4.995
 3814SOL    HW113216  12.115   2.474   5.056
 3814SOL    HW213217  12.243   2.425   4.991
 3815SOL     OW13218   3.530  12.246   8.708
 3815SOL    HW113219   3.600  12.309   8.725
 3815SOL    HW213220   3.472  12.253   8.785
 3816SOL     OW13221   0.009   4.333   2.604
 3816SOL    HW113222  14.798   4.338   2.568
 3816SOL    HW213223   0.019   4.241   2.629
 3817SOL     OW13224  14.596  13.256   1.746
 3817SOL    HW113225  14.624  13.164   1.750
 3817SOL    HW213226  14.676  13.306   1.758
 3818SOL     OW13227   4.651  13.160   3.491
 3818SOL    HW113228   4.642  13.255   3.490
 3818SOL    HW213229   4.627  13.134   3.580
 3819SOL     OW13230   2.274  12.543   1.738
 3819SOL    HW113231   2.302  12.543   1.829
 3819SOL    HW213232   2.281  12.451   1.711
 3820SOL     OW13233  11.120  13.912  13.060
 3820SOL    HW113234  11.144  13.860  13.136
 3820SOL    HW213235  11.056  13.858  13.013
 3821SOL     OW13236  13.358   9.232  10.584
 3821SOL    HW113237  13.289   9.222  10.649
 3821SOL    HW213238  13.431   9.271  10.632
 3822SOL     OW13239   5.320   2.470   7.806
 3822SOL    HW113240   5.281   2.502   7.887
 3822SOL    HW213241   5.248   2.426   7.761
 3823SOL     OW13242   6.043   9.618   9.248
 3823SOL    HW113243   6.043   9.552   9.178
 3823SOL    HW213244   6.035   9.701   9.201
 3824SOL     OW13245   9.807  14.343   3.317
 3824SOL    HW113246   9.898  14.356   3.289
 3824SOL    HW213247   9.764  14.426   3.296
 3825SOL     OW13248   8.933  12.065   9.102
 3825SOL    HW113249   9.007  12.122   9.083
 3825SOL    HW213250   8.960  12.017   9.181
 3826SOL     OW13251   8.852  14.079   7.204
 3826SOL    HW113252   8.922  14.126   7.158
 3826SOL    HW213253   8.814  14.022   7.137
 3827SOL     OW13254   3.230  13.578   0.519
 3827SOL    HW113255   3.292  13.509   0.542
 3827SOL    HW213256   3.145  13.535   0.516
 3828SOL     OW13257   1.584   2.624  12.876
 3828SOL    HW113258   1.667   2.671  12.884
 3828SOL    HW213259   1.552   2.617  12.966
 3829SOL     OW13260   4.490   9.474   9.067
 3829SOL    HW113261   4.516   9.428   8.987
 3829SOL    HW213262   4.493   9.407   9.135
 3830SOL     OW13263  13.260   4.570  10.498
 3830SOL    HW113264  13.337   4.541  10.546
 3830SOL    HW213265  13.292   4.595  10.412
 3831SOL     OW13266   7.348   0.370   4.853
 3831SOL    HW113267   7.291   0.352   4.779
 3831SOL    HW213268   7.432   0.330   4.830
 3832SOL     OW13269   6.853  12.086  14.290
 3832SOL    HW113270   6.854  12.076  14.195
 3832SOL    HW213271   6.761  12.077  14.315
 3833SOL     OW13272   3.658   3.848   9.343
 3833SOL    HW113273   3.596   3.917   9.367
 3833SOL    HW213274   3.656   3.847   9.247
 3834SOL     OW13275  11.782   1.228  12.725
 3834SOL    HW113276  11.856   1.180  12.689
 3834SOL    HW213277  11.723   1.160  12.758
 3835SOL     OW13278   7.551   1.201  14.581
 3835SOL    HW113279   7.549   1.238  14.492
 3835SOL    HW213280   7.460   1.187  14.604
 3836SOL     OW13281  10.575   2.319  12.547
 3836SOL    HW113282  10.585   2.414  12.539
 3836SOL    HW213283  10.655   2.283  12.508
 3837SOL     OW13284   8.388   7.029   8.062
 3837SOL    HW113285   8.440   6.951   8.078
 3837SOL    HW213286   8.403   7.084   8.139
 3838SOL     OW13287   6.195   2.287  13.466
 3838SOL    HW113288   6.222   2.367  13.421
 3838SOL    HW213289   6.115   2.311  13.513
 3839SOL     OW13290  12.535   6.872   2.085
 3839SOL    HW113291  12.630   6.881   2.088
 3839SOL    HW213292  12.508   6.921   2.007
 3840SOL     OW13293  13.060   0.575  13.085
 3840SOL    HW113294  13.120   0.641  13.118
 3840SOL    HW213295  12.980   0.587  13.137
 3841SOL     OW13296  14.406  12.059   2.007
 3841SOL    HW113297  14.369  12.011   2.081
 3841SOL    HW213298  14.489  12.093   2.039
 3842SOL     OW13299  13.046   4.556   5.375
 3842SOL    HW113300  13.070   4.619   5.307
 3842SOL    HW213301  13.031   4.609   5.453
 3843SOL     OW13302  10.860   7.414  10.805
 3843SOL    HW113303  10.856   7.428  10.899
 3843SOL    HW213304  10.935   7.467  10.776
 3844SOL     OW13305   3.723   8.678  13.463
 3844SOL    HW113306   3.711   8.768  13.494
 3844SOL    HW213307   3.804   8.649  13.505
 3845SOL     OW13308   2.674   2.406   1.765
 3845SOL    HW113309   2.586   2.380   1.792
 3845SOL    HW213310   2.675   2.502   1.771
 3846SOL     OW13311   9.413   0.525   6.569
 3846SOL    HW113312   9.435   0.466   6.497
 3846SOL    HW213313   9.477   0.596   6.563
 3847SOL     OW13314   5.252   0.230   6.669
 3847SOL    HW113315   5.216   0.297   6.727
 3847SOL    HW213316   5.241   0.267   6.581
 3848SOL     OW13317   6.487  14.341   1.528
 3848SOL    HW113318   6.471  14.252   1.497
 3848SOL    HW213319   6.410  14.361   1.582
 3849SOL     OW13320   1.018   3.111  14.865
 3849SOL    HW113321   1.013   3.192  14.814
 3849SOL    HW213322   1.026   3.042  14.799
 3850SOL     OW13323   5.049   4.136  10.811
 3850SOL    HW113324   5.053   4.105  10.720
 3850SOL    HW213325   4.977   4.087  10.850
 3851SOL     OW13326   2.787   3.294   9.359
 3851SOL    HW113327   2.762   3.203   9.342
 3851SOL    HW213328   2.704   3.342   9.355
 3852SOL     OW13329  11.219   9.452   3.733
 3852SOL    HW113330  11.210   9.404   3.815
 3852SOL    HW213331  11.203   9.387   3.665
 3853SOL     OW13332   8.879   2.668   3.392
 3853SOL    HW113333   8.828   2.731   3.443
 3853SOL    HW213334   8.817   2.600   3.368
 3854SOL     OW13335   5.307   4.587   5.849
 3854SOL    HW113336   5.250   4.617   5.919
 3854SOL    HW213337   5.392   4.572   5.892
 3855SOL     OW13338   1.406  11.578   1.396
 3855SOL    HW113339   1.439  11.664   1.422
 3855SOL    HW213340   1.325  11.596   1.348
 3856SOL     OW13341  12.541   0.172  11.733
 3856SOL    HW113342  12.476   0.111  11.697
 3856SOL    HW213343  12.582   0.124  11.804
 3857SOL     OW13344  12.203   2.229   6.683
 3857SOL    HW113345  12.109   2.218   6.666
 3857SOL    HW213346  12.238   2.140   6.679
 3858SOL     OW13347   1.846  14.506  13.584
 3858SOL    HW113348   1.768  14.488  13.636
 3858SOL    HW213349   1.825  14.475  13.497
 3859SOL     OW13350   2.812  13.901  14.036
 3859SOL    HW113351   2.902  13.896  14.065
 3859SOL    HW213352   2.796  13.817  13.992
 3860SOL     OW13353   4.994  10.164  10.163
 3860SOL    HW113354   4.972  10.080  10.121
 3860SOL    HW213355   4.996  10.143  10.256
 3861SOL     OW13356  12.374   6.836  14.097
 3861SOL    HW113357  12.433   6.910  14.112
 3861SOL    HW213358  12.286   6.874  14.096
 3862SOL     OW13359   5.547   4.929   8.331
 3862SOL    HW113360   5.558   4.874   8.408
 3862SOL    HW213361   5.561   4.870   8.257
 3863SOL     OW13362  14.320   8.921   5.123
 3863SOL    HW113363  14.295   8.971   5.201
 3863SOL    HW213364  14.261   8.953   5.055
 3864SOL     OW13365   4.463  10.967   6.781
 3864SOL    HW113366   4.510  10.895   6.739
 3864SOL    HW213367   4.525  11.039   6.783
 3865SOL     OW13368   0.799   6.315   5.629
 3865SOL    HW113369   0.791   6.402   5.591
 3865SOL    HW213370   0.789   6.328   5.723
 3866SOL     OW13371  13.512   8.019   2.382
 3866SOL    HW113372  13.489   7.958   2.311
 3866SOL    HW213373  13.512   8.105   2.340
 3867SOL     OW13374   3.879   6.814   4.224
 3867SOL    HW113375   3.799   6.861   4.246
 3867SOL    HW213376   3.940   6.882   4.195
 3868SOL     OW13377  14.555   5.852   0.008
 3868SOL    HW113378  14.644   5.854  14.850
 3868SOL    HW213379  14.505   5.909  14.827
 3869SOL     OW13380   8.035   9.361   8.287
 3869SOL    HW113381   8.103   9.425   8.267
 3869SOL    HW213382   7.985   9.354   8.206
 3870SOL     OW13383   3.778   9.831   6.393
 3870SOL    HW113384   3.856   9.797   6.436
 3870SOL    HW213385   3.811   9.882   6.319
 3871SOL     OW13386  13.974  12.654  11.783
 3871SOL    HW113387  14.069  12.665  11.790
 3871SOL    HW213388  13.961  12.559  11.782
 3872SOL     OW13389  11.802   9.118  11.191
 3872SOL    HW113390  11.891   9.147  11.214
 3872SOL    HW213391  11.752   9.127  11.271
 3873SOL     OW13392  10.737   0.104  13.955
 3873SOL    HW113393  10.784   0.115  13.872
 3873SOL    HW213394  10.662   0.049  13.933
 3874SOL     OW13395  12.836  11.134  11.342
 3874SOL    HW113396  12.860  11.142  11.250
 3874SOL    HW213397  12.748  11.172  11.347
 3875SOL     OW13398  10.640   9.276   5.510
 3875SOL    HW113399  10.720   9.245   5.466
 3875SOL    HW213400  10.610   9.349   5.457
 3876SOL     OW13401   2.536   9.134  11.114
 3876SOL    HW113402   2.493   9.167  11.194
 3876SOL    HW213403   2.530   9.039  11.122
 3877SOL     OW13404   8.648  11.754   3.282
 3877SOL    HW113405   8.692  11.679   3.243
 3877SOL    HW213406   8.587  11.784   3.213
 3878SOL     OW13407   8.267  12.572   7.310
 3878SOL    HW113408   8.308  12.519   7.242
 3878SOL    HW213409   8.183  12.599   7.272
 3879SOL     OW13410   5.064   4.327  12.501
 3879SOL    HW113411   5.049   4.396  12.436
 3879SOL    HW213412   4.978   4.287  12.514
 3880SOL     OW13413   2.553   5.395   1.207
 3880SOL    HW113414   2.622   5.379   1.271
 3880SOL    HW213415   2.483   5.333   1.231
 3881SOL     OW13416   2.367  10.718   3.912
 3881SOL    HW113417   2.319  10.724   3.830
 3881SOL    HW213418   2.458  10.710   3.886
 3882SOL     OW13419  12.491   0.638   8.804
 3882SOL    HW113420  12.552   0.661   8.874
 3882SOL    HW213421  12.450   0.720   8.779
 3883SOL     OW13422  11.043  12.440  13.618
 3883SOL    HW113423  11.080  12.364  13.664
 3883SOL    HW213424  11.013  12.404  13.534
 3884SOL     OW13425   2.846   0.376   7.634
 3884SOL    HW113426   2.819   0.392   7.725
 3884SOL    HW213427   2.908   0.303   7.640
 3885SOL     OW13428   0.624   0.212   5.032
 3885SOL    HW113429   0.651   0.160   5.107
 3885SOL    HW213430   0.688   0.191   4.964
 3886SOL     OW13431   3.449   9.472  12.428
 3886SOL    HW113432   3.397   9.411  12.376
 3886SOL    HW213433   3.521   9.419  12.462
 3887SOL     OW13434   4.676  14.405   6.284
 3887SOL    HW113435   4.735  14.409   6.359
 3887SOL    HW213436   4.712  14.334   6.230
 3888SOL     OW13437  14.574   6.385   1.452
 3888SOL    HW113438  14.652   6.430   1.420
 3888SOL    HW213439  14.582   6.389   1.548
 3889SOL     OW13440   0.484   1.317  13.476
 3889SOL    HW113441   0.527   1.256  13.535
 3889SOL    HW213442   0.392   1.313  13.499
 3890SOL     OW13443  11.992  11.462  11.807
 3890SOL    HW113444  11.948  11.547  11.809
 3890SOL    HW213445  11.981  11.427  11.895
 3891SOL     OW13446   8.035  12.234   1.746
 3891SOL    HW113447   8.115  12.286   1.752
 3891SOL    HW213448   8.055  12.154   1.793
 3892SOL     OW13449   2.617   7.390   2.982
 3892SOL    HW113450   2.633   7.329   3.054
 3892SOL    HW213451   2.606   7.475   3.024
 3893SOL     OW13452   2.714  12.336   0.834
 3893SOL    HW113453   2.688  12.370   0.748
 3893SOL    HW213454   2.658  12.383   0.896
 3894SOL     OW13455  13.504   3.728   2.078
 3894SOL    HW113456  13.435   3.767   2.131
 3894SOL    HW213457  13.519   3.642   2.117
 3895SOL     OW13458   2.156   8.180   5.450
 3895SOL    HW113459   2.099   8.104   5.439
 3895SOL    HW213460   2.243   8.149   5.427
 3896SOL     OW13461   2.247   1.305   6.792
 3896SOL    HW113462   2.300   1.356   6.853
 3896SOL    HW213463   2.310   1.270   6.729
 3897SOL     OW13464   3.881   0.894   5.466
 3897SOL    HW113465   3.954   0.897   5.404
 3897SOL    HW213466   3.816   0.836   5.425
 3898SOL     OW13467   1.267  13.743   3.937
 3898SOL    HW113468   1.199  13.768   3.875
 3898SOL    HW213469   1.327  13.689   3.886
 3899SOL     OW13470   8.703   8.681   1.473
 3899SOL    HW113471   8.618   8.660   1.511
 3899SOL    HW213472   8.682   8.728   1.392
 3900SOL     OW13473   9.897   4.442  11.076
 3900SOL    HW113474   9.939   4.434  11.162
 3900SOL    HW213475   9.859   4.530  11.077
 3901SOL     OW13476   5.744   5.832   9.590
 3901SOL    HW113477   5.836   5.837   9.565
 3901SOL    HW213478   5.702   5.905   9.543
 3902SOL     OW13479  11.824   9.045   8.861
 3902SOL    HW113480  11.775   9.014   8.937
 3902SOL    HW213481  11.844   8.966   8.811
 3903SOL     OW13482   3.881  11.212   9.605
 3903SOL    HW113483   3.867  11.145   9.538
 3903SOL    HW213484   3.941  11.171   9.667
 3904SOL     OW13485   5.160  14.826   8.349
 3904SOL    HW113486   5.114  14.847   8.267
 3904SOL    HW213487   5.110  14.754   8.387
 3905SOL     OW13488   8.310  11.348   6.044
 3905SOL    HW113489   8.323  11.356   5.950
 3905SOL    HW213490   8.217  11.368   6.057
 3906SOL     OW13491   0.416   1.050   1.210
 3906SOL    HW113492   0.360   1.021   1.138
 3906SOL    HW213493   0.356   1.079   1.278
 3907SOL     OW13494   6.247  10.149  14.190
 3907SOL    HW113495   6.323  10.182  14.239
 3907SOL    HW213496   6.214  10.226  14.143
 3908SOL     OW13497   8.668   4.296  12.573
 3908SOL    HW113498   8.693   4.207  12.598
 3908SOL    HW213499   8.670   4.294  12.477
 3909SOL     OW13500   7.452   9.183   7.945
 3909SOL    HW113501   7.427   9.133   8.023
 3909SOL    HW213502   7.369   9.202   7.902
 3910SOL     OW13503   5.351   2.193  13.470
 3910SOL    HW113504   5.355   2.165  13.379
 3910SOL    HW213505   5.326   2.285  13.466
 3911SOL     OW13506   1.260   3.845   4.534
 3911SOL    HW113507   1.328   3.866   4.598
 3911SOL    HW213508   1.308   3.812   4.458
 3912SOL     OW13509  12.786  13.175   8.436
 3912SOL    HW113510  12.728  13.121   8.383
 3912SOL    HW213511  12.727  13.234   8.484
 3913SOL     OW13512   6.365   8.482  12.181
 3913SOL    HW113513   6.360   8.444  12.269
 3913SOL    HW213514   6.323   8.568  12.190
 3914SOL     OW13515  10.420   2.743  14.513
 3914SOL    HW113516  10.422   2.725  14.607
 3914SOL    HW213517  10.343   2.695  14.481
 3915SOL     OW13518   2.566   7.125   1.297
 3915SOL    HW113519   2.520   7.199   1.336
 3915SOL    HW213520   2.540   7.128   1.205
 3916SOL     OW13521  12.846   9.013   7.255
 3916SOL    HW113522  12.879   9.021   7.344
 3916SOL    HW213523  12.750   9.019   7.264
 3917SOL     OW13524  11.726  11.920   0.940
 3917SOL    HW113525  11.718  11.866   0.861
 3917SOL    HW213526  11.736  11.858   1.011
 3918SOL     OW13527   4.589   2.478  14.566
 3918SOL    HW113528   4.619   2.491  14.656
 3918SOL    HW213529   4.669   2.458  14.517
 3919SOL     OW13530  11.428  13.339  10.182
 3919SOL    HW113531  11.427  13.308  10.092
 3919SOL    HW213532  11.520  13.340  10.206
 3920SOL     OW13533   1.747   1.381   1.361
 3920SOL    HW113534   1.726   1.425   1.443
 3920SOL    HW213535   1.811   1.314   1.386
 3921SOL     OW13536   0.026   2.429  13.554
 3921SOL    HW113537  14.840   2.466  13.492
 3921SOL    HW213538   0.028   2.336  13.533
 3922SOL     OW13539   8.956  10.819   3.474
 3922SOL    HW113540   9.036  10.853   3.433
 3922SOL    HW213541   8.888  10.882   3.450
 3923SOL     OW13542  11.545   1.200   2.170
 3923SOL    HW113543  11.613   1.135   2.182
 3923SOL    HW213544  11.592   1.282   2.156
 3924SOL     OW13545   2.217   3.914   5.683
 3924SOL    HW113546   2.132   3.956   5.684
 3924SOL    HW213547   2.199   3.822   5.702
 3925SOL     OW13548  14.146   8.524   9.322
 3925SOL    HW113549  14.059   8.565   9.330
 3925SOL    HW213550  14.127   8.433   9.300
 3926SOL     OW13551   0.041   9.075   2.683
 3926SOL    HW113552   0.038   9.161   2.724
 3926SOL    HW213553  14.865   9.084   2.604
 3927SOL     OW13554  13.174  14.715   0.114
 3927SOL    HW113555  13.242  14.665   0.160
 3927SOL    HW213556  13.221  14.758   0.042
 3928SOL     OW13557   3.369  13.190   7.160
 3928SOL    HW113558   3.314  13.232   7.226
 3928SOL    HW213559   3.378  13.100   7.191
 3929SOL     OW13560  13.044   4.207  12.096
 3929SOL    HW113561  13.057   4.211  12.001
 3929SOL    HW213562  12.951   4.227  12.108
 3930SOL     OW13563  14.662   2.526   2.057
 3930SOL    HW113564  14.718   2.473   2.114
 3930SOL    HW213565  14.618   2.587   2.116
 3931SOL     OW13566   0.487  11.120   2.680
 3931SOL    HW113567   0.482  11.141   2.773
 3931SOL    HW213568   0.402  11.144   2.645
 3932SOL     OW13569  12.150   3.427  13.251
 3932SOL    HW113570  12.214   3.496  13.232
 3932SOL    HW213571  12.136   3.383  13.166
 3933SOL     OW13572  11.648   3.438  13.459
 3933SOL    HW113573  11.602   3.417  13.377
 3933SOL    HW213574  11.736   3.461  13.432
 3934SOL     OW13575   2.889   6.999  14.022
 3934SOL    HW113576   2.861   6.996  13.931
 3934SOL    HW213577   2.974   7.043  14.020
 3935SOL     OW13578   1.205   0.399   1.207
 3935SOL    HW113579   1.287   0.353   1.225
 3935SOL    HW213580   1.173   0.426   1.294
 3936SOL     OW13581   9.251  10.582  11.936
 3936SOL    HW113582   9.230  10.489  11.949
 3936SOL    HW213583   9.316  10.602  12.003
 3937SOL     OW13584   5.270  11.801  13.816
 3937SOL    HW113585   5.220  11.742  13.873
 3937SOL    HW213586   5.357  11.762  13.813
 3938SOL     OW13587   5.052   0.117   4.286
 3938SOL    HW113588   5.033   0.175   4.212
 3938SOL    HW213589   5.002   0.037   4.268
 3939SOL     OW13590  11.646   8.031   4.745
 3939SOL    HW113591  11.554   8.030   4.721
 3939SOL    HW213592  11.647   8.055   4.838
 3940SOL     OW13593   9.049   9.772   3.216
 3940SOL    HW113594   8.993   9.758   3.140
 3940SOL    HW213595   9.044   9.867   3.232
 3941SOL     OW13596   2.050  14.640   4.446
 3941SOL    HW113597   2.069  14.554   4.483
 3941SOL    HW213598   2.010  14.622   4.361
 3942SOL     OW13599   9.407  10.761   8.292
 3942SOL    HW113600   9.383  10.819   8.220
 3942SOL    HW213601   9.368  10.802   8.370
 3943SOL     OW13602   3.079  11.992   0.366
 3943SOL    HW113603   3.125  11.964   0.445
 3943SOL    HW213604   3.084  12.088   0.367
 3944SOL     OW13605  11.235   6.563   4.601
 3944SOL    HW113606  11.261   6.640   4.653
 3944SOL    HW213607  11.296   6.495   4.627
 3945SOL     OW13608   9.266  13.324   3.647
 3945SOL    HW113609   9.329  13.294   3.712
 3945SOL    HW213610   9.191  13.356   3.697
 3946SOL     OW13611   1.424   1.809   7.821
 3946SOL    HW113612   1.374   1.744   7.771
 3946SOL    HW213613   1.393   1.799   7.911
 3947SOL     OW13614   5.733  13.308   2.446
 3947SOL    HW113615   5.825  13.335   2.435
 3947SOL    HW213616   5.683  13.385   2.420
 3948SOL     OW13617   9.650   5.402   2.057
 3948SOL    HW113618   9.633   5.422   1.965
 3948SOL    HW213619   9.594   5.462   2.106
 3949SOL     OW13620   6.995   3.863   9.195
 3949SOL    HW113621   6.996   3.785   9.140
 3949SOL    HW213622   7.016   3.831   9.283
 3950SOL     OW13623   6.796   7.989   9.394
 3950SOL    HW113624   6.708   7.956   9.373
 3950SOL    HW213625   6.837   7.918   9.443
 3951SOL     OW13626   6.593  10.457   2.306
 3951SOL    HW113627   6.651  10.515   2.356
 3951SOL    HW213628   6.556  10.513   2.238
 3952SOL     OW13629   8.225  13.314   8.923
 3952SOL    HW113630   8.202  13.221   8.923
 3952SOL    HW213631   8.143  13.359   8.908
 3953SOL     OW13632   0.683   1.170   0.366
 3953SOL    HW113633   0.637   1.254   0.363
 3953SOL    HW213634   0.680   1.138   0.275
 3954SOL     OW13635   5.038  11.585   5.093
 3954SOL    HW113636   4.999  11.660   5.049
 3954SOL    HW213637   5.116  11.563   5.041
 3955SOL     OW13638   2.597   5.902   7.571
 3955SOL    HW113639   2.678   5.858   7.546
 3955SOL    HW213640   2.619   5.951   7.650
 3956SOL     OW13641   6.724  10.141   1.904
 3956SOL    HW113642   6.731  10.134   1.999
 3956SOL    HW213643   6.662  10.073   1.878
 3957SOL     OW13644   9.070  11.882   4.893
 3957SOL    HW113645   9.134  11.924   4.951
 3957SOL    HW213646   9.122  11.849   4.820
 3958SOL     OW13647   2.342  13.921  11.740
 3958SOL    HW113648   2.331  13.952  11.650
 3958SOL    HW213649   2.324  13.998  11.794
 3959SOL     OW13650   0.835   7.721  10.104
 3959SOL    HW113651   0.854   7.746  10.195
 3959SOL    HW213652   0.912   7.749  10.055
 3960SOL     OW13653  14.719   4.943  10.697
 3960SOL    HW113654  14.787   4.964  10.633
 3960SOL    HW213655  14.662   5.020  10.697
 3961SOL     OW13656   8.516   9.492  13.163
 3961SOL    HW113657   8.433   9.446  13.161
 3961SOL    HW213658   8.580   9.425  13.188
 3962SOL     OW13659   5.852  12.913  14.624
 3962SOL    HW113660   5.842  12.827  14.584
 3962SOL    HW213661   5.940  12.941  14.599
 3963SOL     OW13662   8.858   3.187  10.484
 3963SOL    HW113663   8.773   3.185  10.439
 3963SOL    HW213664   8.887   3.278  10.477
 3964SOL     OW13665  11.471   8.643  12.296
 3964SOL    HW113666  11.440   8.710  12.235
 3964SOL    HW213667  11.518   8.692  12.364
 3965SOL     OW13668   3.139   3.050   5.836
 3965SOL    HW113669   3.113   3.038   5.745
 3965SOL    HW213670   3.191   3.130   5.837
 3966SOL     OW13671   1.385   3.618  14.153
 3966SOL    HW113672   1.297   3.657  14.143
 3966SOL    HW213673   1.414   3.647  14.239
 3967SOL     OW13674   3.396   3.420   3.256
 3967SOL    HW113675   3.333   3.482   3.218
 3967SOL    HW213676   3.371   3.336   3.218
 3968SOL     OW13677   0.036   1.947   7.601
 3968SOL    HW113678   0.044   1.881   7.532
 3968SOL    HW213679  14.824   1.938   7.632
 3969SOL     OW13680   5.875  10.247   2.333
 3969SOL    HW113681   5.885  10.217   2.242
 3969SOL    HW213682   5.817  10.183   2.373
 3970SOL     OW13683   1.765   0.496   7.684
 3970SOL    HW113684   1.683   0.512   7.730
 3970SOL    HW213685   1.801   0.583   7.669
 3971SOL     OW13686   4.679   9.881   8.443
 3971SOL    HW113687   4.722   9.926   8.516
 3971SOL    HW213688   4.746   9.822   8.408
 3972SOL     OW13689  14.408   0.817   2.522
 3972SOL    HW113690  14.476   0.755   2.547
 3972SOL    HW213691  14.336   0.800   2.581
 3973SOL     OW13692  14.462   3.109  12.901
 3973SOL    HW113693  14.416   3.106  12.817
 3973SOL    HW213694  14.527   3.178  12.891
 3974SOL     OW13695  13.046   1.247   0.317
 3974SOL    HW113696  12.977   1.187   0.347
 3974SOL    HW213697  13.007   1.334   0.326
 3975SOL     OW13698   9.186   3.082   1.089
 3975SOL    HW113699   9.127   3.040   1.151
 3975SOL    HW213700   9.158   3.050   1.003
 3976SOL     OW13701   0.548   8.290   2.658
 3976SOL    HW113702   0.497   8.306   2.737
 3976SOL    HW213703   0.596   8.372   2.643
 3977SOL     OW13704  12.464   1.179   8.201
 3977SOL    HW113705  12.461   1.091   8.164
 3977SOL    HW213706  12.470   1.237   8.126
 3978SOL     OW13707   0.232   8.362   3.942
 3978SOL    HW113708   0.291   8.304   3.894
 3978SOL    HW213709   0.271   8.449   3.933
 3979SOL     OW13710   6.157   2.637   6.810
 3979SOL    HW113711   6.130   2.675   6.894
 3979SOL    HW213712   6.232   2.691   6.783
 3980SOL     OW13713  12.834   3.511   7.814
 3980SOL    HW113714  12.745   3.545   7.803
 3980SOL    HW213715  12.885   3.552   7.744
 3981SOL     OW13716   2.546   3.250   3.328
 3981SOL    HW113717   2.455   3.270   3.305
 3981SOL    HW213718   2.541   3.167   3.374
 3982SOL     OW13719  10.823   8.117   0.791
 3982SOL    HW113720  10.907   8.162   0.790
 3982SOL    HW213721  10.810   8.095   0.883
 3983SOL     OW13722   0.367  11.278   3.062
 3983SOL    HW113723   0.443  11.241   3.015
 3983SOL    HW213724   0.296  11.274   2.998
 3984SOL     OW13725   9.868   9.116   5.009
 3984SOL    HW113726   9.954   9.113   5.051
 3984SOL    HW213727   9.842   9.208   5.015
 3985SOL     OW13728   1.069   8.659   1.647
 3985SOL    HW113729   1.059   8.573   1.608
 3985SOL    HW213730   1.160   8.682   1.632
 3986SOL     OW13731   1.257   8.169   8.850
 3986SOL    HW113732   1.341   8.204   8.878
 3986SOL    HW213733   1.200   8.246   8.843
 3987SOL     OW13734  11.903  10.938   9.840
 3987SOL    HW113735  11.966  11.007   9.819
 3987SOL    HW213736  11.882  10.898   9.756
 3988SOL     OW13737   9.745   7.434  13.809
 3988SOL    HW113738   9.830   7.405  13.774
 3988SOL    HW213739   9.711   7.493  13.742
 3989SOL     OW13740   5.147   7.297  14.240
 3989SOL    HW113741   5.198   7.261  14.313
 3989SOL    HW213742   5.187   7.258  14.162
 3990SOL     OW13743  13.615   0.363   2.719
 3990SOL    HW113744  13.696   0.363   2.667
 3990SOL    HW213745  13.575   0.448   2.701
 3991SOL     OW13746   4.443   3.774   2.986
 3991SOL    HW113747   4.524   3.756   2.938
 3991SOL    HW213748   4.459   3.858   3.030
 3992SOL     OW13749   4.239   0.907   6.413
 3992SOL    HW113750   4.285   0.952   6.343
 3992SOL    HW213751   4.210   0.825   6.374
 3993SOL     OW13752  11.885   4.611  11.420
 3993SOL    HW113753  11.908   4.689  11.370
 3993SOL    HW213754  11.910   4.632  11.510
 3994SOL     OW13755   6.967  10.973  12.448
 3994SOL    HW113756   7.052  10.998  12.484
 3994SOL    HW213757   6.956  11.028  12.370
 3995SOL     OW13758   0.190   8.506  10.559
 3995SOL    HW113759   0.141   8.514  10.478
 3995SOL    HW213760   0.249   8.432  10.545
 3996SOL     OW13761  13.538  14.556   1.739
 3996SOL    HW113762  13.576  14.492   1.679
 3996SOL    HW213763  13.543  14.515   1.825
 3997SOL     OW13764   0.405  10.874   8.949
 3997SOL    HW113765   0.376  10.824   9.025
 3997SOL    HW213766   0.364  10.960   8.959
 3998SOL     OW13767  11.274  11.115  14.652
 3998SOL    HW113768  11.212  11.122  14.725
 3998SOL    HW213769  11.233  11.166  14.582
 3999SOL     OW13770  13.334  14.426   4.658
 3999SOL    HW113771  13.335  14.335   4.628
 3999SOL    HW213772  13.344  14.478   4.578
 4000SOL     OW13773   0.370   1.656   9.164
 4000SOL    HW113774   0.463   1.635   9.171
 4000SOL    HW213775   0.326   1.580   9.199
 4001SOL     OW13776   0.590  13.171   5.544
 4001SOL    HW113777   0.575  13.077   5.538
 4001SOL    HW213778   0.684  13.179   5.563
 4002SOL     OW13779  11.818   5.971  13.200
 4002SOL    HW113780  11.912   5.979  13.219
 4002SOL    HW213781  11.802   5.877  13.199
 4003SOL     OW13782   9.066  11.569   3.565
 4003SOL    HW113783   9.061  11.649   3.513
 4003SOL    HW213784   8.983  11.524   3.547
 4004SOL     OW13785   2.364  12.492   4.749
 4004SOL    HW113786   2.384  12.447   4.666
 4004SOL    HW213787   2.442  12.546   4.766
 4005SOL     OW13788   7.360   8.487  12.356
 4005SOL    HW113789   7.444   8.533  12.358
 4005SOL    HW213790   7.308   8.527  12.425
 4006SOL     OW13791   0.286   7.579  13.185
 4006SOL    HW113792   0.309   7.616  13.271
 4006SOL    HW213793   0.194   7.602  13.174
 4007SOL     OW13794   9.598  13.656   5.139
 4007SOL    HW113795   9.583  13.693   5.226
 4007SOL    HW213796   9.513  13.618   5.115
 4008SOL     OW13797   5.020  10.407   8.324
 4008SOL    HW113798   5.087  10.339   8.333
 4008SOL    HW213799   4.937  10.359   8.326
 4009SOL     OW13800  10.190  12.017  12.818
 4009SOL    HW113801  10.158  12.088  12.762
 4009SOL    HW213802  10.187  11.939  12.761
 4010SOL     OW13803   9.527   5.487   7.986
 4010SOL    HW113804   9.610   5.506   8.029
 4010SOL    HW213805   9.514   5.560   7.926
 4011SOL     OW13806  11.307  12.745  14.055
 4011SOL    HW113807  11.396  12.743  14.021
 4011SOL    HW213808  11.267  12.664  14.024
 4012SOL     OW13809  14.816   0.490  13.165
 4012SOL    HW113810   0.019   0.438  13.155
 4012SOL    HW213811  14.848   0.579  13.177
 4013SOL     OW13812   3.310   2.464   4.160
 4013SOL    HW113813   3.383   2.421   4.114
 4013SOL    HW213814   3.327   2.558   4.149
 4014SOL     OW13815   3.219   1.424   3.007
 4014SOL    HW113816   3.297   1.396   3.055
 4014SOL    HW213817   3.251   1.494   2.950
 4015SOL     OW13818  10.129  11.453   4.665
 4015SOL    HW113819  10.117  11.543   4.632
 4015SOL    HW213820  10.090  11.453   4.752
 4016SOL     OW13821  14.191  14.235   9.154
 4016SOL    HW113822  14.256  14.165   9.155
 4016SOL    HW213823  14.232  14.305   9.103
 4017SOL     OW13824  11.215   9.472  10.964
 4017SOL    HW113825  11.173   9.492  10.880
 4017SOL    HW213826  11.144   9.475  11.028
 4018SOL     OW13827   7.333   7.488   9.939
 4018SOL    HW113828   7.312   7.546  10.012
 4018SOL    HW213829   7.353   7.404   9.980
 4019SOL     OW13830   5.697   7.401   6.268
 4019SOL    HW113831   5.743   7.485   6.272
 4019SOL    HW213832   5.734   7.357   6.191
 4020SOL     OW13833   6.777   0.980  14.766
 4020SOL    HW113834   6.786   0.904  14.822
 4020SOL    HW213835   6.837   1.045  14.804
 4021SOL     OW13836   2.968  11.574  13.316
 4021SOL    HW113837   3.004  11.643  13.372
 4021SOL    HW213838   2.899  11.618  13.266
 4022SOL     OW13839   4.930   3.197   2.103
 4022SOL    HW113840   5.016   3.223   2.072
 4022SOL    HW213841   4.936   3.204   2.199
 4023SOL     OW13842  11.728  11.462   4.425
 4023SOL    HW113843  11.665  11.433   4.490
 4023SOL    HW213844  11.813  11.429   4.456
 4024SOL     OW13845  13.035   8.533   9.970
 4024SOL    HW113846  13.090   8.564  10.042
 4024SOL    HW213847  12.970   8.476  10.011
 4025SOL     OW13848  11.717   3.478  14.102
 4025SOL    HW113849  11.633   3.434  14.112
 4025SOL    HW213850  11.774   3.436  14.167
 4026SOL     OW13851  11.771   7.254   5.635
 4026SOL    HW113852  11.774   7.161   5.659
 4026SOL    HW213853  11.849   7.267   5.581
 4027SOL     OW13854   4.062   2.727   2.461
 4027SOL    HW113855   4.055   2.647   2.409
 4027SOL    HW213856   3.997   2.786   2.422
 4028SOL     OW13857  12.759   5.040  11.178
 4028SOL    HW113858  12.815   5.101  11.226
 4028SOL    HW213859  12.792   4.953  11.201
 4029SOL     OW13860   7.954   3.765  12.884
 4029SOL    HW113861   7.925   3.696  12.944
 4029SOL    HW213862   7.912   3.744  12.801
 4030SOL     OW13863   9.359  10.187   5.392
 4030SOL    HW113864   9.324  10.273   5.368
 4030SOL    HW213865   9.321  10.170   5.478
 4031SOL     OW13866   6.107   0.331  12.858
 4031SOL    HW113867   6.020   0.325  12.897
 4031SOL    HW213868   6.090   0.342  12.764
 4032SOL     OW13869  12.006  11.475  10.266
 4032SOL    HW113870  12.010  11.516  10.179
 4032SOL    HW213871  12.095  11.485  10.301
 4033SOL     OW13872   4.066   2.421  14.526
 4033SOL    HW113873   4.027   2.383  14.448
 4033SOL    HW213874   3.995   2.473  14.565
 4034SOL     OW13875   2.763   6.216   3.648
 4034SOL    HW113876   2.702   6.143   3.663
 4034SOL    HW213877   2.776   6.253   3.736
 4035SOL     OW13878   9.042  14.518   7.248
 4035SOL    HW113879   8.953  14.487   7.265
 4035SOL    HW213880   9.037  14.613   7.260
 4036SOL     OW13881  13.754   6.213   3.111
 4036SOL    HW113882  13.757   6.192   3.018
 4036SOL    HW213883  13.813   6.149   3.152
 4037SOL     OW13884   3.098   0.791  10.261
 4037SOL    HW113885   3.111   0.768  10.169
 4037SOL    HW213886   3.070   0.882  10.259
 4038SOL     OW13887   1.485   9.294   7.766
 4038SOL    HW113888   1.514   9.282   7.857
 4038SOL    HW213889   1.528   9.223   7.718
 4039SOL     OW13890   9.385  14.698   1.446
 4039SOL    HW113891   9.409  14.612   1.481
 4039SOL    HW213892   9.300  14.717   1.486
 4040SOL     OW13893  14.533   9.309   0.678
 4040SOL    HW113894  14.611   9.256   0.663
 4040SOL    HW213895  14.491   9.270   0.754
 4041SOL     OW13896   6.048  10.989   7.306
 4041SOL    HW113897   6.087  10.985   7.218
 4041SOL    HW213898   5.976  10.926   7.303
 4042SOL     OW13899   0.446  13.494  11.866
 4042SOL    HW113900   0.465  13.407  11.902
 4042SOL    HW213901   0.522  13.547  11.890
 4043SOL     OW13902   1.560   1.955   1.812
 4043SOL    HW113903   1.523   1.986   1.894
 4043SOL    HW213904   1.652   1.980   1.816
 4044SOL     OW13905   8.503   3.476   3.669
 4044SOL    HW113906   8.528   3.427   3.748
 4044SOL    HW213907   8.408   3.467   3.664
 4045SOL     OW13908   5.919  14.716   5.010
 4045SOL    HW113909   5.911  14.630   4.968
 4045SOL    HW213910   5.941  14.697   5.101
 4046SOL     OW13911   3.933  13.220   4.240
 4046SOL    HW113912   4.028  13.220   4.254
 4046SOL    HW213913   3.903  13.304   4.275
 4047SOL     OW13914   2.221   9.967   2.829
 4047SOL    HW113915   2.264   9.957   2.914
 4047SOL    HW213916   2.154  10.033   2.843
 4048SOL     OW13917  13.698   3.300   3.576
 4048SOL    HW113918  13.700   3.338   3.664
 4048SOL    HW213919  13.657   3.214   3.588
 4049SOL     OW13920   9.084   6.814   6.389
 4049SOL    HW113921   9.036   6.788   6.467
 4049SOL    HW213922   9.016   6.832   6.323
 4050SOL     OW13923  14.756   2.984   1.735
 4050SOL    HW113924  14.719   3.044   1.800
 4050SOL    HW213925  14.821   2.933   1.782
 4051SOL     OW13926   2.371   2.643  13.289
 4051SOL    HW113927   2.449   2.647  13.344
 4051SOL    HW213928   2.364   2.731  13.251
 4052SOL     OW13929   9.750   2.042   3.351
 4052SOL    HW113930   9.822   2.100   3.327
 4052SOL    HW213931   9.770   2.013   3.440
 4053SOL     OW13932  13.000   5.915   1.559
 4053SOL    HW113933  12.931   5.933   1.494
 4053SOL    HW213934  13.072   5.880   1.507
 4054SOL     OW13935   8.182   5.389  12.742
 4054SOL    HW113936   8.108   5.357  12.793
 4054SOL    HW213937   8.259   5.363  12.791
 4055SOL     OW13938  13.606   7.263   4.127
 4055SOL    HW113939  13.634   7.330   4.189
 4055SOL    HW213940  13.646   7.182   4.158
 4056SOL     OW13941   9.360   2.224   3.760
 4056SOL    HW113942   9.445   2.199   3.726
 4056SOL    HW213943   9.326   2.145   3.802
 4057SOL     OW13944   6.236  10.604   2.003
 4057SOL    HW113945   6.149  10.609   2.042
 4057SOL    HW213946   6.227  10.647   1.917
 4058SOL     OW13947  14.605  11.977   1.354
 4058SOL    HW113948  14.549  12.015   1.422
 4058SOL    HW213949  14.694  11.987   1.389
 4059SOL     OW13950   9.552   2.831  11.026
 4059SOL    HW113951   9.535   2.747  11.069
 4059SOL    HW213952   9.552   2.895  11.097
 4060SOL     OW13953  10.383  11.716   0.178
 4060SOL    HW113954  10.352  11.691   0.265
 4060SOL    HW213955  10.470  11.752   0.192
 4061SOL     OW13956  12.937  10.040   1.720
 4061SOL    HW113957  12.966  10.114   1.773
 4061SOL    HW213958  12.847  10.062   1.695
 4062SOL     OW13959   6.657  14.266  13.872
 4062SOL    HW113960   6.590  14.198  13.885
 4062SOL    HW213961   6.685  14.289  13.960
 4063SOL     OW13962  13.250  14.346   0.975
 4063SOL    HW113963  13.304  14.269   0.990
 4063SOL    HW213964  13.268  14.372   0.885
 4064SOL     OW13965  12.154  14.104  12.646
 4064SOL    HW113966  12.236  14.141  12.678
 4064SOL    HW213967  12.087  14.138  12.705
 4065SOL     OW13968   0.655   9.685   2.951
 4065SOL    HW113969   0.699   9.767   2.930
 4065SOL    HW213970   0.586   9.709   3.012
 4066SOL     OW13971   4.958   4.528  10.177
 4066SOL    HW113972   4.978   4.555  10.087
 4066SOL    HW213973   5.018   4.578  10.231
 4067SOL     OW13974   1.290   7.275   4.165
 4067SOL    HW113975   1.212   7.282   4.111
 4067SOL    HW213976   1.342   7.352   4.143
 4068SOL     OW13977   8.991   5.597   6.728
 4068SOL    HW113978   9.044   5.603   6.648
 4068SOL    HW213979   8.917   5.655   6.711
 4069SOL     OW13980  11.888   5.575  13.706
 4069SOL    HW113981  11.893   5.479  13.704
 4069SOL    HW213982  11.979   5.603  13.710
 4070SOL     OW13983   6.025   3.274  13.717
 4070SOL    HW113984   5.941   3.250  13.679
 4070SOL    HW213985   6.078   3.302  13.642
 4071SOL     OW13986  12.873   3.537   9.573
 4071SOL    HW113987  12.937   3.467   9.588
 4071SOL    HW213988  12.846   3.564   9.661
 4072SOL     OW13989  11.589   4.684   7.619
 4072SOL    HW113990  11.509   4.633   7.615
 4072SOL    HW213991  11.561   4.774   7.602
 4073SOL     OW13992  12.757  12.105   9.382
 4073SOL    HW113993  12.741  12.193   9.348
 4073SOL    HW213994  12.829  12.116   9.445
 4074SOL     OW13995  12.309   0.764   7.777
 4074SOL    HW113996  12.298   0.859   7.775
 4074SOL    HW213997  12.364   0.744   7.702
 4075SOL     OW13998   9.306   7.685  12.674
 4075SOL    HW113999   9.293   7.591  12.684
 4075SOL    HW214000   9.327   7.696  12.581
 4076SOL     OW14001  12.902  10.395   6.937
 4076SOL    HW114002  12.867  10.426   7.021
 4076SOL    HW214003  12.826  10.389   6.880
 4077SOL     OW14004  13.858   6.050  11.541
 4077SOL    HW114005  13.786   6.000  11.503
 4077SOL    HW214006  13.825   6.078  11.627
 4078SOL     OW14007  10.741   9.684   4.058
 4078SOL    HW114008  10.709   9.595   4.043
 4078SOL    HW214009  10.793   9.678   4.138
 4079SOL     OW14010   6.726   4.065   3.943
 4079SOL    HW114011   6.720   3.980   3.900
 4079SOL    HW214012   6.812   4.064   3.984
 4080SOL     OW14013  13.362   5.979  13.946
 4080SOL    HW114014  13.449   6.018  13.932
 4080SOL    HW214015  13.366   5.945  14.036
 4081SOL     OW14016   6.053   1.106   5.700
 4081SOL    HW114017   6.083   1.195   5.682
 4081SOL    HW214018   6.133   1.055   5.710
 4082SOL     OW14019  12.012   9.489  10.086
 4082SOL    HW114020  11.981   9.470  10.175
 4082SOL    HW214021  11.950   9.553  10.052
 4083SOL     OW14022  11.534   0.200  13.007
 4083SOL    HW114023  11.474   0.269  13.035
 4083SOL    HW214024  11.520   0.193  12.913
 4084SOL     OW14025   8.941   5.566   2.296
 4084SOL    HW114026   8.938   5.636   2.361
 4084SOL    HW214027   9.033   5.541   2.292
 4085SOL     OW14028   5.915   6.251  13.935
 4085SOL    HW114029   5.962   6.212  14.008
 4085SOL    HW214030   5.877   6.332  13.972
 4086SOL     OW14031   1.586   3.992   5.174
 4086SOL    HW114032   1.561   3.957   5.088
 4086SOL    HW214033   1.663   4.045   5.156
 4087SOL     OW14034  10.105  12.544   2.236
 4087SOL    HW114035  10.117  12.509   2.148
 4087SOL    HW214036  10.131  12.636   2.229
 4088SOL     OW14037   8.493   1.286  12.995
 4088SOL    HW114038   8.491   1.191  13.007
 4088SOL    HW214039   8.409   1.316  13.029
 4089SOL     OW14040   6.658  10.085  10.598
 4089SOL    HW114041   6.701  10.024  10.538
 4089SOL    HW214042   6.667  10.171  10.556
 4090SOL     OW14043  14.626  11.869   9.353
 4090SOL    HW114044  14.661  11.932   9.289
 4090SOL    HW214045  14.700  11.813   9.374
 4091SOL     OW14046   2.591   7.072   8.357
 4091SOL    HW114047   2.497   7.061   8.350
 4091SOL    HW214048   2.608   7.073   8.452
 4092SOL     OW14049   1.546   1.194   6.947
 4092SOL    HW114050   1.543   1.099   6.958
 4092SOL    HW214051   1.555   1.229   7.035
 4093SOL     OW14052   2.310  10.561   6.105
 4093SOL    HW114053   2.337  10.525   6.020
 4093SOL    HW214054   2.349  10.648   6.107
 4094SOL     OW14055  13.608  14.009   8.219
 4094SOL    HW114056  13.660  14.018   8.139
 4094SOL    HW214057  13.665  13.962   8.279
 4095SOL     OW14058   6.724  10.585  14.640
 4095SOL    HW114059   6.726  10.681  14.640
 4095SOL    HW214060   6.770  10.560  14.560
 4096SOL     OW14061   3.495   6.727   2.561
 4096SOL    HW114062   3.513   6.807   2.610
 4096SOL    HW214063   3.504   6.657   2.625
 4097SOL     OW14064   3.954  10.990  13.765
 4097SOL    HW114065   3.989  11.014  13.679
 4097SOL    HW214066   3.912  10.905  13.751
 4098SOL     OW14067  11.295  10.363   8.426
 4098SOL    HW114068  11.222  10.416   8.395
 4098SOL    HW214069  11.319  10.400   8.510
 4099SOL     OW14070   6.051  12.834  11.273
 4099SOL    HW114071   6.106  12.909  11.298
 4099SOL    HW214072   5.971  12.873  11.240
 4100SOL     OW14073   4.302  13.355   5.105
 4100SOL    HW114074   4.222  13.310   5.076
 4100SOL    HW214075   4.339  13.297   5.171
 4101SOL     OW14076   7.225  14.026   3.424
 4101SOL    HW114077   7.226  13.977   3.506
 4101SOL    HW214078   7.305  14.078   3.426
 4102SOL     OW14079  14.782   8.227  14.577
 4102SOL    HW114080  14.721   8.158  14.551
 4102SOL    HW214081  14.813   8.200  14.664
 4103SOL     OW14082   3.581   9.769   8.243
 4103SOL    HW114083   3.669   9.747   8.212
 4103SOL    HW214084   3.596   9.813   8.327
 4104SOL     OW14085   0.782   6.290  13.772
 4104SOL    HW114086   0.715   6.322  13.711
 4104SOL    HW214087   0.855   6.351  13.762
 4105SOL     OW14088  11.707   0.107   9.412
 4105SOL    HW114089  11.695   0.190   9.459
 4105SOL    HW214090  11.673   0.041   9.472
 4106SOL     OW14091   5.716  14.690  11.867
 4106SOL    HW114092   5.731  14.732  11.783
 4106SOL    HW214093   5.799  14.645  11.886
 4107SOL     OW14094  12.325   6.568   8.289
 4107SOL    HW114095  12.400   6.614   8.327
 4107SOL    HW214096  12.271   6.637   8.250
 4108SOL     OW14097  10.755   6.053  13.330
 4108SOL    HW114098  10.807   6.089  13.401
 4108SOL    HW214099  10.670   6.098  13.337
 4109SOL     OW14100  11.536   1.952   3.606
 4109SOL    HW114101  11.557   2.045   3.597
 4109SOL    HW214102  11.535   1.937   3.700
 4110SOL     OW14103  13.376  13.029   8.269
 4110SOL    HW114104  13.310  12.972   8.229
 4110SOL    HW214105  13.336  13.115   8.272
 4111SOL     OW14106  12.336   2.763   4.665
 4111SOL    HW114107  12.309   2.672   4.656
 4111SOL    HW214108  12.295   2.793   4.746
 4112SOL     OW14109  13.838   2.226  12.732
 4112SOL    HW114110  13.904   2.282  12.690
 4112SOL    HW214111  13.774   2.209  12.662
 4113SOL     OW14112  12.760  10.817   7.047
 4113SOL    HW114113  12.691  10.759   7.078
 4113SOL    HW214114  12.797  10.773   6.971
 4114SOL     OW14115   6.908  13.065  10.835
 4114SOL    HW114116   6.983  13.124  10.845
 4114SOL    HW214117   6.833  13.116  10.864
 4115SOL     OW14118   6.402   3.415   6.138
 4115SOL    HW114119   6.344   3.421   6.062
 4115SOL    HW214120   6.490   3.412   6.101
 4116SOL     OW14121  11.387  12.634  11.529
 4116SOL    HW114122  11.476  12.668  11.531
 4116SOL    HW214123  11.379  12.594  11.442
 4117SOL     OW14124  10.263   0.323   1.006
 4117SOL    HW114125  10.264   0.264   1.081
 4117SOL    HW214126  10.189   0.293   0.953
 4118SOL     OW14127  12.765   3.109   8.936
 4118SOL    HW114128  12.739   3.069   9.019
 4118SOL    HW214129  12.715   3.061   8.870
 4119SOL     OW14130  11.983   2.291   7.039
 4119SOL    HW114131  12.074   2.322   7.030
 4119SOL    HW214132  11.931   2.371   7.047
 4120SOL     OW14133  11.343  12.298  12.233
 4120SOL    HW114134  11.261  12.267  12.195
 4120SOL    HW214135  11.389  12.218  12.260
 4121SOL     OW14136   9.828   9.543   5.512
 4121SOL    HW114137   9.863   9.597   5.441
 4121SOL    HW214138   9.887   9.468   5.517
 4122SOL     OW14139   8.016   9.651   9.716
 4122SOL    HW114140   8.044   9.596   9.644
 4122SOL    HW214141   7.940   9.606   9.753
 4123SOL     OW14142   4.811  10.564   3.348
 4123SOL    HW114143   4.803  10.638   3.408
 4123SOL    HW214144   4.851  10.495   3.401
 4124SOL     OW14145   5.887  13.535   2.917
 4124SOL    HW114146   5.805  13.496   2.887
 4124SOL    HW214147   5.905  13.493   3.001
 4125SOL     OW14148   9.574  10.340  14.224
 4125SOL    HW114149   9.502  10.377  14.276
 4125SOL    HW214150   9.600  10.411  14.165
 4126SOL     OW14151  13.368   4.702  14.174
 4126SOL    HW114152  13.305   4.632  14.159
 4126SOL    HW214153  13.422   4.703  14.095
 4127SOL     OW14154   6.437   7.287   0.260
 4127SOL    HW114155   6.471   7.375   0.275
 4127SOL    HW214156   6.437   7.277   0.164
 4128SOL     OW14157   0.665   5.458   4.215
 4128SOL    HW114158   0.684   5.544   4.177
 4128SOL    HW214159   0.737   5.443   4.277
 4129SOL     OW14160   6.514   8.714  12.424
 4129SOL    HW114161   6.560   8.677  12.349
 4129SOL    HW214162   6.571   8.785  12.454
 4130SOL     OW14163   8.362  14.540   6.291
 4130SOL    HW114164   8.405  14.482   6.228
 4130SOL    HW214165   8.321  14.481   6.354
 4131SOL     OW14166   0.251   6.104   4.712
 4131SOL    HW114167   0.166   6.138   4.737
 4131SOL    HW214168   0.239   6.009   4.708
 4132SOL     OW14169  12.587  10.735   2.867
 4132SOL    HW114170  12.494  10.711   2.866
 4132SOL    HW214171  12.610  10.736   2.960
 4133SOL     OW14172   2.978  11.929   5.591
 4133SOL    HW114173   2.917  11.881   5.535
 4133SOL    HW214174   3.065  11.911   5.554
 4134SOL     OW14175   7.095   7.402   3.036
 4134SOL    HW114176   7.131   7.486   3.064
 4134SOL    HW214177   7.071   7.358   3.118
 4135SOL     OW14178   2.259   2.280  13.635
 4135SOL    HW114179   2.269   2.317  13.722
 4135SOL    HW214180   2.219   2.350  13.583
 4136SOL     OW14181   0.820  12.196  13.162
 4136SOL    HW114182   0.742  12.140  13.165
 4136SOL    HW214183   0.881  12.149  13.105
 4137SOL     OW14184  11.493   2.255   5.053
 4137SOL    HW114185  11.425   2.221   5.112
 4137SOL    HW214186  11.574   2.248   5.103
 4138SOL     OW14187   5.063  11.189   6.699
 4138SOL    HW114188   5.072  11.233   6.615
 4138SOL    HW214189   5.080  11.097   6.681
 4139SOL     OW14190   6.044   4.715   5.012
 4139SOL    HW114191   6.023   4.725   5.105
 4139SOL    HW214192   6.036   4.804   4.977
 4140SOL     OW14193  14.518   4.061   2.807
 4140SOL    HW114194  14.456   3.995   2.776
 4140SOL    HW214195  14.567   4.016   2.876
 4141SOL     OW14196  12.117   6.315  12.981
 4141SOL    HW114197  12.080   6.359  12.904
 4141SOL    HW214198  12.104   6.377  13.053
 4142SOL     OW14199   9.000  14.391  12.511
 4142SOL    HW114200   8.907  14.410  12.520
 4142SOL    HW214201   9.043  14.459  12.563
 4143SOL     OW14202   9.516   3.560   3.690
 4143SOL    HW114203   9.612   3.559   3.695
 4143SOL    HW214204   9.494   3.651   3.674
 4144SOL     OW14205   4.569   9.527   2.762
 4144SOL    HW114206   4.645   9.470   2.748
 4144SOL    HW214207   4.493   9.469   2.750
 4145SOL     OW14208   1.186   2.652   2.957
 4145SOL    HW114209   1.216   2.594   2.887
 4145SOL    HW214210   1.263   2.663   3.013
 4146SOL     OW14211   5.230   6.580   7.490
 4146SOL    HW114212   5.189   6.656   7.449
 4146SOL    HW214213   5.164   6.511   7.484
 4147SOL     OW14214   2.745  12.322   5.184
 4147SOL    HW114215   2.798  12.251   5.149
 4147SOL    HW214216   2.786  12.344   5.268
 4148SOL     OW14217   5.742   7.949   2.987
 4148SOL    HW114218   5.772   7.939   2.897
 4148SOL    HW214219   5.712   7.862   3.013
 4149SOL     OW14220  13.263   4.067   5.601
 4149SOL    HW114221  13.233   4.113   5.522
 4149SOL    HW214222  13.329   4.005   5.570
 4150SOL     OW14223  14.408  10.468  13.277
 4150SOL    HW114224  14.329  10.518  13.255
 4150SOL    HW214225  14.480  10.520  13.241
 4151SOL     OW14226  13.248   0.861   4.554
 4151SOL    HW114227  13.283   0.798   4.617
 4151SOL    HW214228  13.218   0.807   4.480
 4152SOL     OW14229   1.603   7.074   3.069
 4152SOL    HW114230   1.517   7.087   3.109
 4152SOL    HW214231   1.621   7.157   3.025
 4153SOL     OW14232   7.131   7.212   2.384
 4153SOL    HW114233   7.180   7.157   2.322
 4153SOL    HW214234   7.127   7.159   2.463
 4154SOL     OW14235   0.921   5.554   7.978
 4154SOL    HW114236   0.927   5.500   8.056
 4154SOL    HW214237   0.867   5.503   7.918
 4155SOL     OW14238   3.020   5.935  12.356
 4155SOL    HW114239   3.043   5.891  12.438
 4155SOL    HW214240   3.088   5.910  12.294
 4156SOL     OW14241   3.800   3.408  10.177
 4156SOL    HW114242   3.759   3.322  10.172
 4156SOL    HW214243   3.792   3.434  10.268
 4157SOL     OW14244   7.790   9.328   3.695
 4157SOL    HW114245   7.732   9.260   3.730
 4157SOL    HW214246   7.850   9.281   3.637
 4158SOL     OW14247   6.395   9.954  13.871
 4158SOL    HW114248   6.440  10.030  13.906
 4158SOL    HW214249   6.361   9.907  13.947
 4159SOL     OW14250   4.071   4.698  10.032
 4159SOL    HW114251   4.088   4.775  10.086
 4159SOL    HW214252   4.145   4.695   9.972
 4160SOL     OW14253  10.700  13.036   6.055
 4160SOL    HW114254  10.673  13.002   5.970
 4160SOL    HW214255  10.760  13.107   6.034
 4161SOL     OW14256   9.629   1.210   5.619
 4161SOL    HW114257   9.562   1.275   5.595
 4161SOL    HW214258   9.684   1.203   5.541
 4162SOL     OW14259   5.792   7.991  13.319
 4162SOL    HW114260   5.745   7.987  13.236
 4162SOL    HW214261   5.875   7.946  13.302
 4163SOL     OW14262   4.307  14.816   8.194
 4163SOL    HW114263   4.253  14.739   8.183
 4163SOL    HW214264   4.278  14.854   8.277
 4164SOL     OW14265  11.239   3.130   2.219
 4164SOL    HW114266  11.162   3.159   2.170
 4164SOL    HW214267  11.214   3.141   2.311
 4165SOL     OW14268   7.827  10.878   0.786
 4165SOL    HW114269   7.793  10.946   0.843
 4165SOL    HW214270   7.822  10.798   0.838
 4166SOL     OW14271  14.707  12.133   2.007
 4166SOL    HW114272  14.670  12.082   1.935
 4166SOL    HW214273  14.785  12.174   1.969
 4167SOL     OW14274   2.487   6.440   3.118
 4167SOL    HW114275   2.468   6.395   3.200
 4167SOL    HW214276   2.405   6.485   3.097
 4168SOL     OW14277   8.372  12.960  11.620
 4168SOL    HW114278   8.366  12.921  11.533
 4168SOL    HW214279   8.333  13.047  11.610
 4169SOL     OW14280  13.142   3.074   4.328
 4169SOL    HW114281  13.217   3.028   4.292
 4169SOL    HW214282  13.073   3.008   4.332
 4170SOL     OW14283  14.422   1.656   8.145
 4170SOL    HW114284  14.378   1.729   8.102
 4170SOL    HW214285  14.357   1.587   8.149
 4171SOL     OW14286   8.906   9.721   5.388
 4171SOL    HW114287   8.996   9.698   5.411
 4171SOL    HW214288   8.888   9.672   5.308
 4172SOL     OW14289   8.169  12.261   5.482
 4172SOL    HW114290   8.161  12.248   5.387
 4172SOL    HW214291   8.202  12.351   5.491
 4173SOL     OW14292   6.188   4.582   4.288
 4173SOL    HW114293   6.207   4.517   4.220
 4173SOL    HW214294   6.102   4.556   4.322
 4174SOL     OW14295   1.855  14.847   9.742
 4174SOL    HW114296   1.819  14.840   9.831
 4174SOL    HW214297   1.950  14.856   9.756
 4175SOL     OW14298   7.681   5.134   9.488
 4175SOL    HW114299   7.642   5.210   9.445
 4175SOL    HW214300   7.628   5.060   9.460
 4176SOL     OW14301   8.115   8.909   1.686
 4176SOL    HW114302   8.207   8.927   1.664
 4176SOL    HW214303   8.066   8.943   1.611
 4177SOL     OW14304   7.770   5.651   4.298
 4177SOL    HW114305   7.690   5.685   4.339
 4177SOL    HW214306   7.738   5.594   4.228
 4178SOL     OW14307   5.817   9.046   7.751
 4178SOL    HW114308   5.751   8.976   7.747
 4178SOL    HW214309   5.835   9.067   7.660
 4179SOL     OW14310   7.692  10.384   2.292
 4179SOL    HW114311   7.704  10.363   2.385
 4179SOL    HW214312   7.698  10.300   2.247
 4180SOL     OW14313   9.976  12.210   7.728
 4180SOL    HW114314  10.071  12.215   7.732
 4180SOL    HW214315   9.954  12.243   7.640
 4181SOL     OW14316   6.389   9.397   0.799
 4181SOL    HW114317   6.372   9.483   0.762
 4181SOL    HW214318   6.459   9.412   0.863
 4182SOL     OW14319  10.377   1.958   7.664
 4182SOL    HW114320  10.469   1.976   7.647
 4182SOL    HW214321  10.374   1.865   7.685
 4183SOL     OW14322  12.962  10.941   1.336
 4183SOL    HW114323  12.960  10.998   1.259
 4183SOL    HW214324  13.037  10.883   1.321
 4184SOL     OW14325   8.067  10.739   3.205
 4184SOL    HW114326   8.031  10.659   3.243
 4184SOL    HW214327   8.000  10.770   3.145
 4185SOL     OW14328  11.145  10.535   5.936
 4185SOL    HW114329  11.109  10.459   5.980
 4185SOL    HW214330  11.086  10.607   5.958
 4186SOL     OW14331  13.310   8.325   1.345
 4186SOL    HW114332  13.367   8.389   1.388
 4186SOL    HW214333  13.239   8.310   1.408
 4187SOL     OW14334   8.146  10.619  12.585
 4187SOL    HW114335   8.119  10.692  12.641
 4187SOL    HW214336   8.064  10.575  12.564
 4188SOL     OW14337  11.076   0.807   0.266
 4188SOL    HW114338  11.093   0.722   0.226
 4188SOL    HW214339  11.091   0.793   0.359
 4189SOL     OW14340   0.390  10.605   1.210
 4189SOL    HW114341   0.461  10.639   1.263
 4189SOL    HW214342   0.362  10.525   1.255
 4190SOL     OW14343   2.991  12.069  13.859
 4190SOL    HW114344   2.940  11.988  13.851
 4190SOL    HW214345   3.018  12.090  13.770
 4191SOL     OW14346   9.024   0.060   4.436
 4191SOL    HW114347   8.936   0.069   4.399
 4191SOL    HW214348   9.008   0.021   4.523
 4192SOL     OW14349   2.538  13.979   1.660
 4192SOL    HW114350   2.545  13.902   1.717
 4192SOL    HW214351   2.602  14.041   1.695
 4193SOL     OW14352   4.101   2.941   4.661
 4193SOL    HW114353   4.107   2.923   4.567
 4193SOL    HW214354   4.160   3.015   4.675
 4194SOL     OW14355  13.458   4.363   6.904
 4194SOL    HW114356  13.404   4.364   6.983
 4194SOL    HW214357  13.487   4.272   6.896
 4195SOL     OW14358   9.506  11.234   7.214
 4195SOL    HW114359   9.417  11.268   7.204
 4195SOL    HW214360   9.498  11.140   7.199
 4196SOL     OW14361  10.016   6.984   4.240
 4196SOL    HW114362  10.097   6.994   4.290
 4196SOL    HW214363   9.990   6.893   4.254
 4197SOL     OW14364   6.152   5.277   6.054
 4197SOL    HW114365   6.068   5.291   6.011
 4197SOL    HW214366   6.204   5.228   5.990
 4198SOL     OW14367  12.718   8.381   2.324
 4198SOL    HW114368  12.803   8.414   2.356
 4198SOL    HW214369  12.736   8.291   2.298
 4199SOL     OW14370   1.817  13.839   1.148
 4199SOL    HW114371   1.854  13.892   1.218
 4199SOL    HW214372   1.750  13.895   1.108
 4200SOL     OW14373   5.301  11.572   4.610
 4200SOL    HW114374   5.216  11.530   4.621
 4200SOL    HW214375   5.281  11.663   4.587
 4201SOL     OW14376   5.310   7.669   4.579
 4201SOL    HW114377   5.306   7.751   4.627
 4201SOL    HW214378   5.238   7.617   4.615
 4202SOL     OW14379   9.465   6.788  14.404
 4202SOL    HW114380   9.478   6.851  14.475
 4202SOL    HW214381   9.499   6.705  14.440
 4203SOL     OW14382  10.231   9.739   7.525
 4203SOL    HW114383  10.196   9.783   7.602
 4203SOL    HW214384  10.316   9.704   7.554
 4204SOL     OW14385   8.728   4.815  11.240
 4204SOL    HW114386   8.790   4.774  11.180
 4204SOL    HW214387   8.677   4.874  11.186
 4205SOL     OW14388  12.097   4.944   1.325
 4205SOL    HW114389  12.159   5.008   1.359
 4205SOL    HW214390  12.135   4.916   1.242
 4206SOL     OW14391   9.898   6.793   6.944
 4206SOL    HW114392   9.921   6.700   6.944
 4206SOL    HW214393   9.982   6.838   6.935
 4207SOL     OW14394   5.116   7.759  12.003
 4207SOL    HW114395   5.039   7.711  11.973
 4207SOL    HW214396   5.163   7.782  11.923
 4208SOL     OW14397  10.997   7.464   0.035
 4208SOL    HW114398  10.972   7.381   0.075
 4208SOL    HW214399  10.942   7.529   0.079
 4209SOL     OW14400  13.072  10.172   2.335
 4209SOL    HW114401  13.093  10.262   2.364
 4209SOL    HW214402  13.068  10.122   2.417
 4210SOL     OW14403   1.107  10.292  13.246
 4210SOL    HW114404   1.030  10.245  13.214
 4210SOL    HW214405   1.181  10.244  13.209
 4211SOL     OW14406   9.987  10.187   6.434
 4211SOL    HW114407   9.997  10.194   6.339
 4211SOL    HW214408  10.048  10.118   6.459
 4212SOL     OW14409   7.275   0.507  14.044
 4212SOL    HW114410   7.306   0.454  13.971
 4212SOL    HW214411   7.354   0.540  14.086
 4213SOL     OW14412   6.122   1.425   0.050
 4213SOL    HW114413   6.092   1.516   0.046
 4213SOL    HW214414   6.207   1.430   0.094
 4214SOL     OW14415   9.479   5.132   1.168
 4214SOL    HW114416   9.395   5.104   1.205
 4214SOL    HW214417   9.504   5.062   1.107
 4215SOL     OW14418  12.384  11.613  12.582
 4215SOL    HW114419  12.297  11.601  12.543
 4215SOL    HW214420  12.433  11.660  12.515
 4216SOL     OW14421   4.857  14.443   5.159
 4216SOL    HW114422   4.818  14.481   5.238
 4216SOL    HW214423   4.885  14.355   5.187
 4217SOL     OW14424   5.974  11.685  13.313
 4217SOL    HW114425   5.995  11.764  13.363
 4217SOL    HW214426   5.990  11.613  13.374
 4218SOL     OW14427   8.736   7.118   5.387
 4218SOL    HW114428   8.709   7.061   5.315
 4218SOL    HW214429   8.667   7.183   5.394
 4219SOL     OW14430   5.849   3.525   0.015
 4219SOL    HW114431   5.942   3.539   0.030
 4219SOL    HW214432   5.820   3.471   0.089
 4220SOL     OW14433   7.083   9.695   6.178
 4220SOL    HW114434   7.138   9.772   6.196
 4220SOL    HW214435   7.091   9.682   6.084
 4221SOL     OW14436  11.707   3.020   1.475
 4221SOL    HW114437  11.634   3.016   1.536
 4221SOL    HW214438  11.681   3.085   1.410
 4222SOL     OW14439   8.981   5.342  12.823
 4222SOL    HW114440   8.939   5.279  12.764
 4222SOL    HW214441   9.068   5.306  12.839
 4223SOL     OW14442  13.109  14.626   2.943
 4223SOL    HW114443  13.056  14.616   2.864
 4223SOL    HW214444  13.106  14.719   2.963
 4224SOL     OW14445   8.638   0.759   8.202
 4224SOL    HW114446   8.703   0.825   8.227
 4224SOL    HW214447   8.661   0.734   8.113
 4225SOL     OW14448  14.078   7.010   1.138
 4225SOL    HW114449  14.172   7.009   1.119
 4225SOL    HW214450  14.073   6.993   1.232
 4226SOL     OW14451   4.230   1.129   9.227
 4226SOL    HW114452   4.320   1.120   9.195
 4226SOL    HW214453   4.183   1.059   9.182
 4227SOL     OW14454   3.897   7.732  12.557
 4227SOL    HW114455   3.985   7.731  12.519
 4227SOL    HW214456   3.886   7.646  12.596
 4228SOL     OW14457  10.365   0.670   7.343
 4228SOL    HW114458  10.458   0.648   7.354
 4228SOL    HW214459  10.325   0.590   7.308
 4229SOL     OW14460   9.009   1.937   8.561
 4229SOL    HW114461   8.989   2.029   8.540
 4229SOL    HW214462   9.104   1.935   8.572
 4230SOL     OW14463   0.238  14.473  11.381
 4230SOL    HW114464   0.165  14.429  11.423
 4230SOL    HW214465   0.213  14.566  11.382
 4231SOL     OW14466   1.533  11.937  10.688
 4231SOL    HW114467   1.457  11.991  10.667
 4231SOL    HW214468   1.568  11.975  10.769
 4232SOL     OW14469  10.572   6.475  11.278
 4232SOL    HW114470  10.648   6.439  11.323
 4232SOL    HW214471  10.573   6.568  11.299
 4233SOL     OW14472  13.886   6.887  13.335
 4233SOL    HW114473  13.918   6.830  13.405
 4233SOL    HW214474  13.872   6.828  13.261
 4234SOL     OW14475  13.779   7.223  14.178
 4234SOL    HW114476  13.810   7.245  14.266
 4234SOL    HW214477  13.694   7.267  14.171
 4235SOL     OW14478   8.481   2.379   6.528
 4235SOL    HW114479   8.567   2.415   6.507
 4235SOL    HW214480   8.419   2.447   6.502
 4236SOL     OW14481   3.059   1.325   7.905
 4236SOL    HW114482   2.991   1.358   7.963
 4236SOL    HW214483   3.055   1.230   7.914
 4237SOL     OW14484   3.360   2.107   5.230
 4237SOL    HW114485   3.448   2.139   5.212
 4237SOL    HW214486   3.302   2.180   5.207
 4238SOL     OW14487   4.302   2.004   3.075
 4238SOL    HW114488   4.281   2.023   3.166
 4238SOL    HW214489   4.273   1.914   3.061
 4239SOL     OW14490   9.817  12.894   3.494
 4239SOL    HW114491   9.878  12.956   3.455
 4239SOL    HW214492   9.864  12.811   3.496
 4240SOL     OW14493   2.810   6.566  14.336
 4240SOL    HW114494   2.846   6.563  14.247
 4240SOL    HW214495   2.748   6.493  14.339
 4241SOL     OW14496   9.532   6.940   4.581
 4241SOL    HW114497   9.504   6.949   4.672
 4241SOL    HW214498   9.572   6.853   4.577
 4242SOL     OW14499  10.194  14.173  10.157
 4242SOL    HW114500  10.226  14.256  10.194
 4242SOL    HW214501  10.102  14.169  10.182
 4243SOL     OW14502   9.809   2.603  10.602
 4243SOL    HW114503   9.825   2.647  10.685
 4243SOL    HW214504   9.848   2.516  10.613
 4244SOL     OW14505   0.804  14.755   7.203
 4244SOL    HW114506   0.766  14.673   7.171
 4244SOL    HW214507   0.750  14.779   7.278
 4245SOL     OW14508  12.243  12.091   1.167
 4245SOL    HW114509  12.315  12.066   1.110
 4245SOL    HW214510  12.284  12.145   1.235
 4246SOL     OW14511   8.431   1.618   7.496
 4246SOL    HW114512   8.376   1.638   7.571
 4246SOL    HW214513   8.371   1.577   7.433
 4247SOL     OW14514   4.468   5.310   9.342
 4247SOL    HW114515   4.477   5.360   9.423
 4247SOL    HW214516   4.444   5.222   9.371
 4248SOL     OW14517   7.839   7.928  14.117
 4248SOL    HW114518   7.858   8.003  14.174
 4248SOL    HW214519   7.837   7.965  14.029
 4249SOL     OW14520  11.510   9.543   4.296
 4249SOL    HW114521  11.544   9.619   4.344
 4249SOL    HW214522  11.420   9.567   4.275
 4250SOL     OW14523   5.928  10.196   2.087
 4250SOL    HW114524   6.012  10.225   2.052
 4250SOL    HW214525   5.884  10.155   2.013
 4251SOL     OW14526  14.374  12.074   3.113
 4251SOL    HW114527  14.355  12.136   3.043
 4251SOL    HW214528  14.342  11.990   3.079
 4252SOL     OW14529  11.194   2.168  11.529
 4252SOL    HW114530  11.222   2.249  11.572
 4252SOL    HW214531  11.222   2.098  11.588
 4253SOL     OW14532  14.435  14.257  13.784
 4253SOL    HW114533  14.393  14.316  13.721
 4253SOL    HW214534  14.488  14.198  13.730
 4254SOL     OW14535   6.779  12.580   8.546
 4254SOL    HW114536   6.843  12.538   8.489
 4254SOL    HW214537   6.698  12.531   8.532
 4255SOL     OW14538   6.249  11.288   4.479
 4255SOL    HW114539   6.275  11.345   4.406
 4255SOL    HW214540   6.203  11.346   4.540
 4256SOL     OW14541   3.846   4.495   1.567
 4256SOL    HW114542   3.865   4.402   1.578
 4256SOL    HW214543   3.932   4.535   1.552
 4257SOL     OW14544   7.462   6.014   4.755
 4257SOL    HW114545   7.392   6.078   4.767
 4257SOL    HW214546   7.481   5.982   4.843
 4258SOL     OW14547   5.138  13.066   5.755
 4258SOL    HW114548   5.209  13.063   5.819
 4258SOL    HW214549   5.058  13.064   5.807
 4259SOL     OW14550  14.713   4.669  13.083
 4259SOL    HW114551  14.795   4.636  13.046
 4259SOL    HW214552  14.740   4.738  13.144
 4260SOL     OW14553  12.410  14.849   1.153
 4260SOL    HW114554  12.324   0.008   1.135
 4260SOL    HW214555  12.406  14.759   1.121
 4261SOL     OW14556   0.618   3.804   4.453
 4261SOL    HW114557   0.642   3.716   4.483
 4261SOL    HW214558   0.695   3.857   4.473
 4262SOL     OW14559  12.635   9.161   8.708
 4262SOL    HW114560  12.718   9.209   8.719
 4262SOL    HW214561  12.568   9.223   8.735
 4263SOL     OW14562   7.522  12.473  12.529
 4263SOL    HW114563   7.583  12.485  12.602
 4263SOL    HW214564   7.515  12.560  12.489
 4264SOL     OW14565  11.928   0.006   2.529
 4264SOL    HW114566  11.878   0.049   2.460
 4264SOL    HW214567  11.878  14.805   2.550
 4265SOL     OW14568   9.842   6.443   0.801
 4265SOL    HW114569   9.893   6.492   0.736
 4265SOL    HW214570   9.774   6.399   0.749
 4266SOL     OW14571   2.147  11.114   7.959
 4266SOL    HW114572   2.150  11.086   8.050
 4266SOL    HW214573   2.210  11.186   7.954
 4267SOL     OW14574   3.244  13.043   8.761
 4267SOL    HW114575   3.339  13.056   8.754
 4267SOL    HW214576   3.221  12.993   8.683
 4268SOL     OW14577   9.144   0.446   0.344
 4268SOL    HW114578   9.170   0.415   0.257
 4268SOL    HW214579   9.050   0.429   0.349
 4269SOL     OW14580   0.744   9.015   5.399
 4269SOL    HW114581   0.787   8.947   5.451
 4269SOL    HW214582   0.784   9.009   5.313
 4270SOL     OW14583   1.831  11.080   7.212
 4270SOL    HW114584   1.820  11.048   7.123
 4270SOL    HW214585   1.884  11.013   7.255
 4271SOL     OW14586  13.067   3.484   5.465
 4271SOL    HW114587  13.023   3.534   5.534
 4271SOL    HW214588  13.052   3.392   5.489
 4272SOL     OW14589  14.295   9.095  13.658
 4272SOL    HW114590  14.361   9.025  13.657
 4272SOL    HW214591  14.334   9.162  13.714
 4273SOL     OW14592  12.901   0.522   2.532
 4273SOL    HW114593  12.862   0.550   2.615
 4273SOL    HW214594  12.842   0.453   2.500
 4274SOL     OW14595  12.746   9.308  10.129
 4274SOL    HW114596  12.750   9.404  10.126
 4274SOL    HW214597  12.708   9.288  10.214
 4275SOL     OW14598   9.450  12.782   2.075
 4275SOL    HW114599   9.520  12.816   2.131
 4275SOL    HW214600   9.403  12.720   2.131
 4276SOL     OW14601   5.135   7.246  12.865
 4276SOL    HW114602   5.130   7.322  12.923
 4276SOL    HW214603   5.220   7.206  12.885
 4277SOL     OW14604   0.882  11.798  13.617
 4277SOL    HW114605   0.879  11.702  13.614
 4277SOL    HW214606   0.953  11.819  13.677
 4278SOL     OW14607   6.879   0.144   6.972
 4278SOL    HW114608   6.956   0.105   6.931
 4278SOL    HW214609   6.897   0.142   7.066
 4279SOL     OW14610   0.981  13.157   3.290
 4279SOL    HW114611   0.905  13.117   3.332
 4279SOL    HW214612   1.011  13.092   3.227
 4280SOL     OW14613   5.079   1.372   0.785
 4280SOL    HW114614   5.061   1.450   0.732
 4280SOL    HW214615   5.019   1.379   0.859
 4281SOL     OW14616  13.247   5.152  11.858
 4281SOL    HW114617  13.243   5.087  11.787
 4281SOL    HW214618  13.176   5.213  11.839
 4282SOL     OW14619   8.553  13.780  13.907
 4282SOL    HW114620   8.520  13.837  13.837
 4282SOL    HW214621   8.579  13.840  13.977
 4283SOL     OW14622   0.831   7.065   9.013
 4283SOL    HW114623   0.757   7.022   9.055
 4283SOL    HW214624   0.883   6.992   8.978
 4284SOL     OW14625   5.292  11.288  10.698
 4284SOL    HW114626   5.252  11.222  10.641
 4284SOL    HW214627   5.221  11.348  10.719
 4285SOL     OW14628   7.761  13.475   6.048
 4285SOL    HW114629   7.670  13.506   6.042
 4285SOL    HW214630   7.795  13.486   5.959
 4286SOL     OW14631  12.849   5.657   1.701
 4286SOL    HW114632  12.763   5.642   1.741
 4286SOL    HW214633  12.830   5.714   1.626
 4287SOL     OW14634   1.090   3.113   7.079
 4287SOL    HW114635   1.140   3.142   7.156
 4287SOL    HW214636   0.998   3.124   7.105
 4288SOL     OW14637   1.518   1.330   3.809
 4288SOL    HW114638   1.600   1.379   3.811
 4288SOL    HW214639   1.525   1.274   3.732
 4289SOL     OW14640   3.651   4.331  12.135
 4289SOL    HW114641   3.601   4.272  12.190
 4289SOL    HW214642   3.704   4.382  12.196
 4290SOL     OW14643  10.828   2.108   8.495
 4290SOL    HW114644  10.846   2.161   8.572
 4290SOL    HW214645  10.752   2.055   8.519
 4291SOL     OW14646   8.507   4.360   3.850
 4291SOL    HW114647   8.516   4.333   3.941
 4291SOL    HW214648   8.444   4.432   3.853
 4292SOL     OW14649   1.949  14.338  12.622
 4292SOL    HW114650   1.969  14.423  12.584
 4292SOL    HW214651   1.865  14.313  12.582
 4293SOL     OW14652   6.309   2.738  11.661
 4293SOL    HW114653   6.349   2.704  11.742
 4293SOL    HW214654   6.359   2.697  11.591
 4294SOL     OW14655  10.057   8.325  10.252
 4294SOL    HW114656   9.997   8.277  10.195
 4294SOL    HW214657  10.144   8.310  10.214
 4295SOL     OW14658   1.554  11.589  14.510
 4295SOL    HW114659   1.539  11.684  14.507
 4295SOL    HW214660   1.469  11.551  14.486
 4296SOL     OW14661   4.025   1.050   1.316
 4296SOL    HW114662   4.097   1.046   1.253
 4296SOL    HW214663   4.067   1.069   1.400
 4297SOL     OW14664   2.054   6.991   8.572
 4297SOL    HW114665   1.974   7.014   8.619
 4297SOL    HW214666   2.080   7.071   8.529
 4298SOL     OW14667   3.024  13.862   6.234
 4298SOL    HW114668   3.082  13.874   6.309
 4298SOL    HW214669   3.048  13.933   6.174
 4299SOL     OW14670   4.159  13.659   6.905
 4299SOL    HW114671   4.244  13.671   6.948
 4299SOL    HW214672   4.127  13.575   6.938
 4300SOL     OW14673   0.590   4.772   7.896
 4300SOL    HW114674   0.547   4.752   7.813
 4300SOL    HW214675   0.602   4.687   7.938
 4301SOL     OW14676  11.307   8.143   4.549
 4301SOL    HW114677  11.286   8.212   4.612
 4301SOL    HW214678  11.244   8.155   4.478
 4302SOL     OW14679   5.781  13.449   4.440
 4302SOL    HW114680   5.814  13.371   4.395
 4302SOL    HW214681   5.785  13.426   4.533
 4303SOL     OW14682   9.384  13.288  11.951
 4303SOL    HW114683   9.448  13.217  11.950
 4303SOL    HW214684   9.418  13.350  12.016
 4304SOL     OW14685   1.951  11.210   5.950
 4304SOL    HW114686   1.985  11.299   5.935
 4304SOL    HW214687   1.909  11.215   6.035
 4305SOL     OW14688   1.594   8.155   7.580
 4305SOL    HW114689   1.565   8.148   7.670
 4305SOL    HW214690   1.689   8.141   7.584
 4306SOL     OW14691   5.325  13.316   3.388
 4306SOL    HW114692   5.319  13.401   3.432
 4306SOL    HW214693   5.404  13.321   3.335
 4307SOL     OW14694  14.456   3.683  14.185
 4307SOL    HW114695  14.505   3.700  14.265
 4307SOL    HW214696  14.471   3.590  14.167
 4308SOL     OW14697  12.183   4.551   4.588
 4308SOL    HW114698  12.126   4.583   4.658
 4308SOL    HW214699  12.123   4.521   4.520
 4309SOL     OW14700   8.148  12.972   3.554
 4309SOL    HW114701   8.062  12.987   3.516
 4309SOL    HW214702   8.160  13.044   3.617
 4310SOL     OW14703   6.781   7.177   4.906
 4310SOL    HW114704   6.870   7.204   4.931
 4310SOL    HW214705   6.794   7.115   4.835
 4311SOL     OW14706   3.011  13.388   7.133
 4311SOL    HW114707   3.075  13.321   7.159
 4311SOL    HW214708   3.034  13.464   7.187
 4312SOL     OW14709   7.072   6.941  11.931
 4312SOL    HW114710   7.002   6.903  11.879
 4312SOL    HW214711   7.147   6.948  11.871
 4313SOL     OW14712  11.712  14.548   2.911
 4313SOL    HW114713  11.683  14.606   2.982
 4313SOL    HW214714  11.785  14.595   2.870
 4314SOL     OW14715  14.744   5.718   6.585
 4314SOL    HW114716  14.819   5.777   6.576
 4314SOL    HW214717  14.668   5.776   6.583
 4315SOL     OW14718   5.089   5.442  14.193
 4315SOL    HW114719   5.163   5.456  14.134
 4315SOL    HW214720   5.070   5.529  14.229
 4316SOL     OW14721   8.311   0.467  14.444
 4316SOL    HW114722   8.260   0.547  14.427
 4316SOL    HW214723   8.375   0.493  14.510
 4317SOL     OW14724   8.667   2.808   6.391
 4317SOL    HW114725   8.577   2.836   6.410
 4317SOL    HW214726   8.678   2.826   6.297
 4318SOL     OW14727   3.722   4.928   5.111
 4318SOL    HW114728   3.632   4.941   5.141
 4318SOL    HW214729   3.738   4.999   5.049
 4319SOL     OW14730   9.880   2.127  14.092
 4319SOL    HW114731   9.942   2.061  14.061
 4319SOL    HW214732   9.891   2.201  14.033
 4320SOL     OW14733   5.501   2.200   2.944
 4320SOL    HW114734   5.528   2.271   3.002
 4320SOL    HW214735   5.412   2.222   2.918
 4321SOL     OW14736   8.206   0.458  10.111
 4321SOL    HW114737   8.189   0.428  10.200
 4321SOL    HW214738   8.218   0.377  10.061
 4322SOL     OW14739   6.090   9.069   9.181
 4322SOL    HW114740   6.080   9.050   9.274
 4322SOL    HW214741   6.129   8.990   9.145
 4323SOL     OW14742  10.117  10.167  11.865
 4323SOL    HW114743  10.064  10.106  11.916
 4323SOL    HW214744  10.147  10.114  11.791
 4324SOL     OW14745   9.785   8.695  12.584
 4324SOL    HW114746   9.789   8.607  12.547
 4324SOL    HW214747   9.784   8.682  12.679
 4325SOL     OW14748   0.551   6.840  11.572
 4325SOL    HW114749   0.612   6.797  11.631
 4325SOL    HW214750   0.465   6.824  11.610
 4326SOL     OW14751   3.681   8.641   9.906
 4326SOL    HW114752   3.684   8.590   9.825
 4326SOL    HW214753   3.697   8.577   9.975
 4327SOL     OW14754   6.680   2.228   2.728
 4327SOL    HW114755   6.716   2.140   2.719
 4327SOL    HW214756   6.685   2.246   2.822
 4328SOL     OW14757  11.306  10.345   7.873
 4328SOL    HW114758  11.233  10.376   7.820
 4328SOL    HW214759  11.265  10.298   7.946
 4329SOL     OW14760   8.057  13.188  11.335
 4329SOL    HW114761   8.020  13.107  11.370
 4329SOL    HW214762   8.004  13.257  11.374
 4330SOL     OW14763  11.389   2.492  13.701
 4330SOL    HW114764  11.353   2.581  13.700
 4330SOL    HW214765  11.441   2.489  13.782
 4331SOL     OW14766   1.853   7.154   5.564
 4331SOL    HW114767   1.830   7.087   5.500
 4331SOL    HW214768   1.898   7.222   5.513
 4332SOL     OW14769  13.019   0.352   4.752
 4332SOL    HW114770  13.059   0.301   4.682
 4332SOL    HW214771  12.979   0.427   4.708
 4333SOL     OW14772   9.611   4.548  11.934
 4333SOL    HW114773   9.692   4.498  11.937
 4333SOL    HW214774   9.636   4.637  11.957
 4334SOL     OW14775   5.988  11.600  12.817
 4334SOL    HW114776   6.049  11.600  12.744
 4334SOL    HW214777   6.028  11.542  12.882
 4335SOL     OW14778   0.171   3.947   2.021
 4335SOL    HW114779   0.094   3.929   2.075
 4335SOL    HW214780   0.155   4.034   1.984
 4336SOL     OW14781  11.607   7.019  12.275
 4336SOL    HW114782  11.565   7.103  12.253
 4336SOL    HW214783  11.543   6.975  12.331
 4337SOL     OW14784   6.100   0.772  13.647
 4337SOL    HW114785   6.156   0.810  13.715
 4337SOL    HW214786   6.011   0.793  13.675
 4338SOL     OW14787  10.211   3.677   0.676
 4338SOL    HW114788  10.177   3.655   0.589
 4338SOL    HW214789  10.300   3.643   0.677
 4339SOL     OW14790   8.883   6.078   3.436
 4339SOL    HW114791   8.963   6.130   3.429
 4339SOL    HW214792   8.816   6.129   3.390
 4340SOL     OW14793   7.087   6.707   2.057
 4340SOL    HW114794   7.017   6.682   1.996
 4340SOL    HW214795   7.081   6.803   2.063
 4341SOL     OW14796   6.278   8.733   5.085
 4341SOL    HW114797   6.212   8.665   5.072
 4341SOL    HW214798   6.271   8.788   5.007
 4342SOL     OW14799   2.551  11.315   9.507
 4342SOL    HW114800   2.596  11.256   9.447
 4342SOL    HW214801   2.575  11.284   9.595
 4343SOL     OW14802   3.424  11.071   7.961
 4343SOL    HW114803   3.432  10.980   7.930
 4343SOL    HW214804   3.440  11.124   7.883
 4344SOL     OW14805   4.096  11.091   8.658
 4344SOL    HW114806   4.110  11.183   8.634
 4344SOL    HW214807   4.116  11.088   8.752
 4345SOL     OW14808  12.008  10.991   9.114
 4345SOL    HW114809  12.005  10.999   9.210
 4345SOL    HW214810  12.007  11.082   9.083
 4346SOL     OW14811  13.229   3.427   7.570
 4346SOL    HW114812  13.193   3.387   7.491
 4346SOL    HW214813  13.198   3.372   7.642
 4347SOL     OW14814  11.864  11.280   8.741
 4347SOL    HW114815  11.888  11.237   8.824
 4347SOL    HW214816  11.947  11.300   8.699
 4348SOL     OW14817   2.875  14.034   3.688
 4348SOL    HW114818   2.952  14.037   3.631
 4348SOL    HW214819   2.806  14.075   3.636
 4349SOL     OW14820  14.379  12.508  14.338
 4349SOL    HW114821  14.462  12.480  14.377
 4349SOL    HW214822  14.313  12.476  14.399
 4350SOL     OW14823   5.106   3.735   9.433
 4350SOL    HW114824   5.079   3.674   9.501
 4350SOL    HW214825   5.157   3.802   9.479
 4351SOL     OW14826   9.730  13.404   9.004
 4351SOL    HW114827   9.711  13.497   9.000
 4351SOL    HW214828   9.645  13.362   9.015
 4352SOL     OW14829   1.064  12.230   8.335
 4352SOL    HW114830   1.046  12.273   8.418
 4352SOL    HW214831   1.150  12.263   8.309
 4353SOL     OW14832   6.951  14.775   6.509
 4353SOL    HW114833   6.944  14.856   6.458
 4353SOL    HW214834   6.976  14.708   6.445
 4354SOL     OW14835   5.007   1.020   1.499
 4354SOL    HW114836   5.020   0.928   1.520
 4354SOL    HW214837   4.934   1.021   1.437
 4355SOL     OW14838   6.854   1.970   0.477
 4355SOL    HW114839   6.775   2.022   0.458
 4355SOL    HW214840   6.893   2.014   0.553
 4356SOL     OW14841   5.792   5.214   0.301
 4356SOL    HW114842   5.813   5.123   0.321
 4356SOL    HW214843   5.876   5.255   0.281
 4357SOL     OW14844   6.426   2.000   7.326
 4357SOL    HW114845   6.385   2.080   7.292
 4357SOL    HW214846   6.368   1.972   7.397
 4358SOL     OW14847  14.153   7.625   5.604
 4358SOL    HW114848  14.076   7.571   5.622
 4358SOL    HW214849  14.203   7.576   5.539
 4359SOL     OW14850   6.054   5.686   1.614
 4359SOL    HW114851   6.024   5.685   1.705
 4359SOL    HW214852   5.986   5.639   1.566
 4360SOL     OW14853  11.985  10.067  11.710
 4360SOL    HW114854  11.975   9.987  11.762
 4360SOL    HW214855  12.076  10.067  11.682
 4361SOL     OW14856   6.137   9.730  12.058
 4361SOL    HW114857   6.050   9.708  12.092
 4361SOL    HW214858   6.184   9.647  12.058
 4362SOL     OW14859   6.499   1.907  12.139
 4362SOL    HW114860   6.587   1.910  12.177
 4362SOL    HW214861   6.510   1.939  12.049
 4363SOL     OW14862   9.970   5.671  10.929
 4363SOL    HW114863   9.885   5.631  10.918
 4363SOL    HW214864   9.998   5.694  10.840
 4364SOL     OW14865   6.462   8.486   5.159
 4364SOL    HW114866   6.377   8.467   5.200
 4364SOL    HW214867   6.440   8.507   5.068
 4365SOL     OW14868   0.763  11.893   4.007
 4365SOL    HW114869   0.689  11.926   4.059
 4365SOL    HW214870   0.806  11.830   4.065
 4366SOL     OW14871  11.675   2.253  11.314
 4366SOL    HW114872  11.771   2.247  11.317
 4366SOL    HW214873  11.648   2.173  11.270
 4367SOL     OW14874   8.374   1.008   8.665
 4367SOL    HW114875   8.396   0.915   8.657
 4367SOL    HW214876   8.433   1.039   8.734
 4368SOL     OW14877   8.749   9.161  14.858
 4368SOL    HW114878   8.685   9.230  14.841
 4368SOL    HW214879   8.814   9.170  14.788
 4369SOL     OW14880   3.341  10.551  13.879
 4369SOL    HW114881   3.320  10.568  13.787
 4369SOL    HW214882   3.304  10.626  13.926
 4370SOL     OW14883   0.688  13.186   9.040
 4370SOL    HW114884   0.776  13.149   9.040
 4370SOL    HW214885   0.701  13.281   9.042
 4371SOL     OW14886  11.014   6.466  14.134
 4371SOL    HW114887  11.061   6.397  14.182
 4371SOL    HW214888  11.081   6.531  14.115
 4372SOL     OW14889   4.245   9.710   9.260
 4372SOL    HW114890   4.330   9.731   9.221
 4372SOL    HW214891   4.206   9.647   9.199
 4373SOL     OW14892   4.894   5.546  13.068
 4373SOL    HW114893   4.911   5.637  13.043
 4373SOL    HW214894   4.895   5.497  12.986
 4374SOL     OW14895  13.847   2.539   1.766
 4374SOL    HW114896  13.806   2.584   1.692
 4374SOL    HW214897  13.941   2.547   1.749
 4375SOL     OW14898   4.403   8.080   9.742
 4375SOL    HW114899   4.403   8.115   9.831
 4375SOL    HW214900   4.449   7.996   9.749
 4376SOL     OW14901   7.596   1.139   6.151
 4376SOL    HW114902   7.522   1.193   6.181
 4376SOL    HW214903   7.664   1.153   6.217
 4377SOL     OW14904   5.148  10.650   3.213
 4377SOL    HW114905   5.075  10.709   3.233
 4377SOL    HW214906   5.222  10.707   3.197
 4378SOL     OW14907  10.271  13.751   2.577
 4378SOL    HW114908  10.350  13.742   2.631
 4378SOL    HW214909  10.301  13.795   2.498
 4379SOL     OW14910  11.759   5.494  13.022
 4379SOL    HW114911  11.666   5.513  13.037
 4379SOL    HW214912  11.771   5.404  13.052
 4380SOL     OW14913  12.415   5.917   7.539
 4380SOL    HW114914  12.404   5.849   7.473
 4380SOL    HW214915  12.436   5.996   7.488
 4381SOL     OW14916   8.509   8.816   8.714
 4381SOL    HW114917   8.519   8.835   8.621
 4381SOL    HW214918   8.592   8.775   8.738
 4382SOL     OW14919  14.219   1.380   2.668
 4382SOL    HW114920  14.190   1.403   2.757
 4382SOL    HW214921  14.231   1.285   2.671
 4383SOL     OW14922   6.585   1.016   6.241
 4383SOL    HW114923   6.672   1.022   6.201
 4383SOL    HW214924   6.591   1.072   6.318
 4384SOL     OW14925   5.870   8.152   3.787
 4384SOL    HW114926   5.901   8.148   3.696
 4384SOL    HW214927   5.823   8.069   3.800
 4385SOL     OW14928   6.294  13.731  11.715
 4385SOL    HW114929   6.250  13.816  11.724
 4385SOL    HW214930   6.357  13.745  11.645
 4386SOL     OW14931   0.935   7.798   1.561
 4386SOL    HW114932   0.938   7.878   1.614
 4386SOL    HW214933   0.860   7.749   1.596
 4387SOL     OW14934   6.716  11.807   9.874
 4387SOL    HW114935   6.625  11.795   9.848
 4387SOL    HW214936   6.766  11.752   9.814
 4388SOL     OW14937   1.583  13.984   9.049
 4388SOL    HW114938   1.656  13.937   9.090
 4388SOL    HW214939   1.506  13.956   9.099
 4389SOL     OW14940   8.113  13.310  12.454
 4389SOL    HW114941   8.191  13.347  12.413
 4389SOL    HW214942   8.040  13.355  12.411
 4390SOL     OW14943   5.261   7.941   2.894
 4390SOL    HW114944   5.262   7.846   2.902
 4390SOL    HW214945   5.241   7.972   2.982
 4391SOL     OW14946  10.347   4.803   5.740
 4391SOL    HW114947  10.429   4.840   5.773
 4391SOL    HW214948  10.369   4.713   5.718
 4392SOL     OW14949  11.784   4.562   5.984
 4392SOL    HW114950  11.721   4.600   5.923
 4392SOL    HW214951  11.733   4.500   6.036
 4393SOL     OW14952  13.871   4.363   8.854
 4393SOL    HW114953  13.816   4.296   8.894
 4393SOL    HW214954  13.810   4.419   8.806
 4394SOL     OW14955   4.330   8.353   3.482
 4394SOL    HW114956   4.331   8.258   3.469
 4394SOL    HW214957   4.237   8.377   3.478
 4395SOL     OW14958   6.610  13.018   5.661
 4395SOL    HW114959   6.704  13.001   5.670
 4395SOL    HW214960   6.574  13.005   5.748
 4396SOL     OW14961   4.317   3.151  10.995
 4396SOL    HW114962   4.378   3.111  10.933
 4396SOL    HW214963   4.289   3.232  10.952
 4397SOL     OW14964  12.107   8.194   4.726
 4397SOL    HW114965  12.175   8.135   4.759
 4397SOL    HW214966  12.136   8.281   4.752
 4398SOL     OW14967   8.038   2.917   1.680
 4398SOL    HW114968   8.098   2.861   1.729
 4398SOL    HW214969   8.060   3.006   1.708
 4399SOL     OW14970   6.373  13.742   6.255
 4399SOL    HW114971   6.304  13.751   6.321
 4399SOL    HW214972   6.430  13.818   6.268
 4400SOL     OW14973   7.402  14.588  14.078
 4400SOL    HW114974   7.382  14.590  13.985
 4400SOL    HW214975   7.466  14.657  14.091
 4401SOL     OW14976   8.777  10.748   1.911
 4401SOL    HW114977   8.801  10.664   1.951
 4401SOL    HW214978   8.860  10.785   1.882
 4402SOL     OW14979   4.023  12.888   8.288
 4402SOL    HW114980   3.948  12.906   8.231
 4402SOL    HW214981   4.031  12.966   8.343
 4403SOL     OW14982   7.060   4.428   9.405
 4403SOL    HW114983   7.115   4.359   9.443
 4403SOL    HW214984   7.121   4.500   9.388
 4404SOL     OW14985   7.225  11.430  11.497
 4404SOL    HW114986   7.261  11.517  11.510
 4404SOL    HW214987   7.213  11.396  11.586
 4405SOL     OW14988   2.043   3.552   3.158
 4405SOL    HW114989   1.969   3.550   3.098
 4405SOL    HW214990   2.114   3.508   3.111
 4406SOL     OW14991   7.006   8.971   5.051
 4406SOL    HW114992   7.095   8.973   5.085
 4406SOL    HW214993   7.017   8.958   4.956
 4407SOL     OW14994  10.340  12.464   6.999
 4407SOL    HW114995  10.344  12.383   6.947
 4407SOL    HW214996  10.375  12.532   6.941
 4408SOL     OW14997   3.955   2.080   6.025
 4408SOL    HW114998   4.003   2.066   5.944
 4408SOL    HW214999   3.942   2.175   6.029
 4409SOL     OW15000   9.768  14.239  10.947
 4409SOL    HW115001   9.751  14.186  11.024
 4409SOL    HW215002   9.800  14.323  10.981
 4410SOL     OW15003   3.591  10.590   6.359
 4410SOL    HW115004   3.633  10.615   6.276
 4410SOL    HW215005   3.599  10.495   6.362
 4411SOL     OW15006   7.091   6.185   8.004
 4411SOL    HW115007   7.058   6.234   7.928
 4411SOL    HW215008   7.026   6.200   8.072
 4412SOL     OW15009  13.175   5.074   8.890
 4412SOL    HW115010  13.220   5.069   8.974
 4412SOL    HW215011  13.153   5.167   8.881
 4413SOL     OW15012  10.455  11.421  11.694
 4413SOL    HW115013  10.518  11.482  11.734
 4413SOL    HW215014  10.504  11.340  11.683
 4414SOL     OW15015  11.863   8.239  12.366
 4414SOL    HW115016  11.875   8.214  12.274
 4414SOL    HW215017  11.903   8.169  12.416
 4415SOL     OW15018   5.180   3.529   5.090
 4415SOL    HW115019   5.154   3.539   4.998
 4415SOL    HW215020   5.267   3.490   5.086
 4416SOL     OW15021   1.521   1.031  13.950
 4416SOL    HW115022   1.474   0.954  13.980
 4416SOL    HW215023   1.557   1.007  13.865
 4417SOL     OW15024  10.098   1.248   9.969
 4417SOL    HW115025  10.154   1.225  10.044
 4417SOL    HW215026  10.088   1.166   9.920
 4418SOL     OW15027  12.791  12.243  12.477
 4418SOL    HW115028  12.872  12.285  12.449
 4418SOL    HW215029  12.768  12.286  12.559
 4419SOL     OW15030   9.821   9.836  12.493
 4419SOL    HW115031   9.769   9.757  12.504
 4419SOL    HW215032   9.759   9.908  12.497
 4420SOL     OW15033   3.501  12.797   0.749
 4420SOL    HW115034   3.453  12.878   0.760
 4420SOL    HW215035   3.461  12.736   0.811
 4421SOL     OW15036  11.613   7.115  11.535
 4421SOL    HW115037  11.544   7.151  11.591
 4421SOL    HW215038  11.673   7.189  11.520
 4422SOL     OW15039   5.312   8.876   1.252
 4422SOL    HW115040   5.295   8.963   1.216
 4422SOL    HW215041   5.227   8.845   1.283
 4423SOL     OW15042   3.966  10.945   1.767
 4423SOL    HW115043   3.878  10.977   1.750
 4423SOL    HW215044   4.018  10.977   1.694
 4424SOL     OW15045   8.747   5.130  10.765
 4424SOL    HW115046   8.763   5.153  10.673
 4424SOL    HW215047   8.783   5.042  10.775
 4425SOL     OW15048  14.651   2.113  14.360
 4425SOL    HW115049  14.580   2.108  14.424
 4425SOL    HW215050  14.631   2.043  14.297
 4426SOL     OW15051   3.899   7.969   3.854
 4426SOL    HW115052   3.934   7.884   3.882
 4426SOL    HW215053   3.904   8.023   3.933
 4427SOL     OW15054   9.988   1.180  12.110
 4427SOL    HW115055   9.979   1.193  12.204
 4427SOL    HW215056  10.077   1.209  12.090
 4428SOL     OW15057   1.260   3.118   0.131
 4428SOL    HW115058   1.305   3.165   0.062
 4428SOL    HW215059   1.175   3.096   0.094
 4429SOL     OW15060   0.342   0.788  11.180
 4429SOL    HW115061   0.408   0.768  11.245
 4429SOL    HW215062   0.276   0.840  11.228
 4430SOL     OW15063  11.750   6.782  10.999
 4430SOL    HW115064  11.806   6.739  10.934
 4430SOL    HW215065  11.677   6.722  11.012
 4431SOL     OW15066   0.395   2.942   4.350
 4431SOL    HW115067   0.348   3.022   4.329
 4431SOL    HW215068   0.370   2.880   4.281
 4432SOL     OW15069  12.745   8.570   7.633
 4432SOL    HW115070  12.704   8.586   7.718
 4432SOL    HW215071  12.705   8.634   7.575
 4433SOL     OW15072  14.313  13.159  14.103
 4433SOL    HW115073  14.256  13.119  14.038
 4433SOL    HW215074  14.268  13.145  14.187
 4434SOL     OW15075   9.826   8.198   0.363
 4434SOL    HW115076   9.748   8.167   0.409
 4434SOL    HW215077   9.830   8.144   0.284
 4435SOL     OW15078   7.486   7.092   5.119
 4435SOL    HW115079   7.530   7.135   5.046
 4435SOL    HW215080   7.558   7.063   5.176
 4436SOL     OW15081   5.967  13.135   6.644
 4436SOL    HW115082   5.986  13.229   6.642
 4436SOL    HW215083   5.941  13.114   6.554
 4437SOL     OW15084  13.118   1.778  11.798
 4437SOL    HW115085  13.212   1.788  11.784
 4437SOL    HW215086  13.108   1.782  11.893
 4438SOL     OW15087   2.942   1.032   2.344
 4438SOL    HW115088   2.865   1.072   2.384
 4438SOL    HW215089   3.002   1.019   2.416
 4439SOL     OW15090   8.141  11.938   5.099
 4439SOL    HW115091   8.078  11.995   5.141
 4439SOL    HW215092   8.146  11.861   5.155
 4440SOL     OW15093   9.876   8.090   0.954
 4440SOL    HW115094   9.909   8.147   1.023
 4440SOL    HW215095   9.932   8.012   0.958
 4441SOL     OW15096   5.846   3.291   5.192
 4441SOL    HW115097   5.928   3.244   5.176
 4441SOL    HW215098   5.838   3.293   5.287
 4442SOL     OW15099   5.693   4.258  10.361
 4442SOL    HW115100   5.775   4.285  10.404
 4442SOL    HW215101   5.635   4.333  10.372
 4443SOL     OW15102   4.802   2.572   5.399
 4443SOL    HW115103   4.782   2.614   5.483
 4443SOL    HW215104   4.772   2.634   5.333
 4444SOL     OW15105   7.083  14.276   8.842
 4444SOL    HW115106   7.094  14.216   8.915
 4444SOL    HW215107   7.172  14.305   8.821
 4445SOL     OW15108   4.788  11.796   2.977
 4445SOL    HW115109   4.711  11.751   2.941
 4445SOL    HW215110   4.785  11.776   3.071
 4446SOL     OW15111   9.403   5.172  12.294
 4446SOL    HW115112   9.364   5.085  12.295
 4446SOL    HW215113   9.358   5.219  12.364
 4447SOL     OW15114  14.392  10.668   3.089
 4447SOL    HW115115  14.381  10.609   3.015
 4447SOL    HW215116  14.302  10.693   3.114
 4448SOL     OW15117  13.589   7.379   1.939
 4448SOL    HW115118  13.496   7.362   1.925
 4448SOL    HW215119  13.608   7.459   1.890
 4449SOL     OW15120   0.349   1.509  12.882
 4449SOL    HW115121   0.387   1.596  12.890
 4449SOL    HW215122   0.314   1.490  12.969
 4450SOL     OW15123   3.354  13.569  11.260
 4450SOL    HW115124   3.361  13.608  11.348
 4450SOL    HW215125   3.325  13.642  11.204
 4451SOL     OW15126   5.110   9.282   9.846
 4451SOL    HW115127   5.116   9.194   9.884
 4451SOL    HW215128   5.019   9.307   9.859
 4452SOL     OW15129   0.474   1.671   3.092
 4452SOL    HW115130   0.535   1.727   3.045
 4452SOL    HW215131   0.442   1.609   3.026
 4453SOL     OW15132   6.940   4.268  12.484
 4453SOL    HW115133   6.856   4.309  12.464
 4453SOL    HW215134   6.954   4.206  12.413
 4454SOL     OW15135   8.499   6.989  11.607
 4454SOL    HW115136   8.593   6.979  11.593
 4454SOL    HW215137   8.470   6.901  11.632
 4455SOL     OW15138  11.208   1.453   4.569
 4455SOL    HW115139  11.129   1.404   4.548
 4455SOL    HW215140  11.230   1.426   4.658
 4456SOL     OW15141   3.182  10.726   4.774
 4456SOL    HW115142   3.140  10.656   4.825
 4456SOL    HW215143   3.214  10.683   4.695
 4457SOL     OW15144   6.213  10.802  13.827
 4457SOL    HW115145   6.251  10.855  13.757
 4457SOL    HW215146   6.187  10.865  13.894
 4458SOL     OW15147   5.294   2.265   6.508
 4458SOL    HW115148   5.318   2.244   6.598
 4458SOL    HW215149   5.272   2.181   6.469
 4459SOL     OW15150  12.613  11.930   9.528
 4459SOL    HW115151  12.660  12.004   9.490
 4459SOL    HW215152  12.521  11.949   9.509
 4460SOL     OW15153   2.214  14.868  12.700
 4460SOL    HW115154   2.252  14.794  12.653
 4460SOL    HW215155   2.281   0.015  12.765
 4461SOL     OW15156   0.129   3.820   6.286
 4461SOL    HW115157   0.218   3.835   6.320
 4461SOL    HW215158   0.084   3.903   6.300
 4462SOL     OW15159   2.121   8.854   4.928
 4462SOL    HW115160   2.127   8.786   4.995
 4462SOL    HW215161   2.103   8.806   4.847
 4463SOL     OW15162  12.635  13.393   5.919
 4463SOL    HW115163  12.599  13.415   5.833
 4463SOL    HW215164  12.579  13.440   5.982
 4464SOL     OW15165   9.340   8.258  13.837
 4464SOL    HW115166   9.327   8.293  13.925
 4464SOL    HW215167   9.272   8.192  13.827
 4465SOL     OW15168   2.871   3.002   7.787
 4465SOL    HW115169   2.882   3.045   7.872
 4465SOL    HW215170   2.848   2.912   7.808
 4466SOL     OW15171   9.183   5.569  12.319
 4466SOL    HW115172   9.131   5.646  12.338
 4466SOL    HW215173   9.274   5.597  12.332
 4467SOL     OW15174  11.993   9.979   4.145
 4467SOL    HW115175  12.047   9.903   4.167
 4467SOL    HW215176  11.983   9.974   4.050
 4468SOL     OW15177  10.427  14.610  13.559
 4468SOL    HW115178  10.395  14.699  13.544
 4468SOL    HW215179  10.387  14.558  13.489
 4469SOL     OW15180  13.009  11.061   9.068
 4469SOL    HW115181  13.032  10.973   9.040
 4469SOL    HW215182  13.092  11.106   9.078
 4470SOL     OW15183   0.575   5.774   6.790
 4470SOL    HW115184   0.507   5.731   6.739
 4470SOL    HW215185   0.538   5.860   6.810
 4471SOL     OW15186   4.745   4.150   5.770
 4471SOL    HW115187   4.702   4.075   5.812
 4471SOL    HW215188   4.763   4.120   5.681
 4472SOL     OW15189  12.653   6.322  13.701
 4472SOL    HW115190  12.644   6.414  13.678
 4472SOL    HW215191  12.626   6.317  13.793
 4473SOL     OW15192   9.637  12.201  12.031
 4473SOL    HW115193   9.624  12.281  11.980
 4473SOL    HW215194   9.548  12.173  12.053
 4474SOL     OW15195   4.865  14.585   2.898
 4474SOL    HW115196   4.822  14.642   2.834
 4474SOL    HW215197   4.916  14.524   2.845
 4475SOL     OW15198   8.256  12.330   9.010
 4475SOL    HW115199   8.326  12.374   9.058
 4475SOL    HW215200   8.177  12.381   9.031
 4476SOL     OW15201   1.749   8.952   0.691
 4476SOL    HW115202   1.773   8.912   0.608
 4476SOL    HW215203   1.655   8.967   0.684
 4477SOL     OW15204   4.728   6.551  10.034
 4477SOL    HW115205   4.745   6.607   9.958
 4477SOL    HW215206   4.760   6.465  10.007
 4478SOL     OW15207   7.602   0.303   9.413
 4478SOL    HW115208   7.628   0.344   9.331
 4478SOL    HW215209   7.627   0.365   9.481
 4479SOL     OW15210   6.550   5.814   9.260
 4479SOL    HW115211   6.558   5.909   9.259
 4479SOL    HW215212   6.490   5.794   9.188
 4480SOL     OW15213  10.636  14.275   6.354
 4480SOL    HW115214  10.660  14.188   6.386
 4480SOL    HW215215  10.549  14.291   6.390
 4481SOL     OW15216  11.037   5.306   5.784
 4481SOL    HW115217  10.951   5.319   5.823
 4481SOL    HW215218  11.061   5.217   5.808
 4482SOL     OW15219   5.595  11.029   3.397
 4482SOL    HW115220   5.649  11.096   3.439
 4482SOL    HW215221   5.605  11.045   3.303
 4483SOL     OW15222  11.629   7.194   2.762
 4483SOL    HW115223  11.619   7.289   2.761
 4483SOL    HW215224  11.607   7.167   2.673
 4484SOL     OW15225  10.936  13.236  11.222
 4484SOL    HW115226  10.941  13.319  11.270
 4484SOL    HW215227  11.000  13.180  11.265
 4485SOL     OW15228   5.547  11.648   7.445
 4485SOL    HW115229   5.558  11.743   7.444
 4485SOL    HW215230   5.633  11.615   7.471
 4486SOL     OW15231   7.060  11.721   1.743
 4486SOL    HW115232   7.015  11.681   1.818
 4486SOL    HW215233   7.148  11.739   1.776
 4487SOL     OW15234  10.651   8.864   2.647
 4487SOL    HW115235  10.677   8.946   2.606
 4487SOL    HW215236  10.684   8.870   2.737
 4488SOL     OW15237   0.838  13.023   4.432
 4488SOL    HW115238   0.879  13.013   4.518
 4488SOL    HW215239   0.816  13.116   4.426
 4489SOL     OW15240   6.333   5.511   3.269
 4489SOL    HW115241   6.377   5.455   3.206
 4489SOL    HW215242   6.369   5.599   3.253
 4490SOL     OW15243  13.368   2.081   2.748
 4490SOL    HW115244  13.449   2.073   2.797
 4490SOL    HW215245  13.346   1.991   2.721
 4491SOL     OW15246   7.839  13.960   6.655
 4491SOL    HW115247   7.770  13.895   6.668
 4491SOL    HW215248   7.794  14.037   6.622
 4492SOL     OW15249   4.479   6.553  11.454
 4492SOL    HW115250   4.391   6.587  11.443
 4492SOL    HW215251   4.482   6.519  11.543
 4493SOL     OW15252   5.464   4.739   9.097
 4493SOL    HW115253   5.398   4.685   9.053
 4493SOL    HW215254   5.429   4.755   9.184
 4494SOL     OW15255   5.147   3.702  13.954
 4494SOL    HW115256   5.218   3.751  13.913
 4494SOL    HW215257   5.128   3.631  13.893
 4495SOL     OW15258   4.713  13.045  14.522
 4495SOL    HW115259   4.717  13.045  14.427
 4495SOL    HW215260   4.760  12.965  14.548
 4496SOL     OW15261  14.286   9.446  14.801
 4496SOL    HW115262  14.340   9.522  14.818
 4496SOL    HW215263  14.319   9.410  14.718
 4497SOL     OW15264   8.539  11.404  11.795
 4497SOL    HW115265   8.579  11.490  11.782
 4497SOL    HW215266   8.564  11.354  11.718
 4498SOL     OW15267   6.901   2.312   6.576
 4498SOL    HW115268   6.950   2.390   6.550
 4498SOL    HW215269   6.908   2.254   6.500
 4499SOL     OW15270  10.093  12.066   6.869
 4499SOL    HW115271  10.046  12.150   6.867
 4499SOL    HW215272  10.184  12.089   6.849
 4500SOL     OW15273   7.979   3.152   3.682
 4500SOL    HW115274   8.035   3.083   3.717
 4500SOL    HW215275   8.019   3.174   3.597
 4501SOL     OW15276   2.876  13.006   6.708
 4501SOL    HW115277   2.870  12.923   6.755
 4501SOL    HW215278   2.887  12.980   6.616
 4502SOL     OW15279   7.506   1.545   3.673
 4502SOL    HW115280   7.593   1.570   3.705
 4502SOL    HW215281   7.523   1.481   3.604
 4503SOL     OW15282   1.036   6.370   7.145
 4503SOL    HW115283   0.985   6.306   7.095
 4503SOL    HW215284   0.977   6.399   7.214
 4504SOL     OW15285   8.600   6.544  10.675
 4504SOL    HW115286   8.552   6.589  10.745
 4504SOL    HW215287   8.641   6.469  10.717
 4505SOL     OW15288  11.763  11.856   6.794
 4505SOL    HW115289  11.716  11.851   6.878
 4505SOL    HW215290  11.846  11.812   6.810
 4506SOL     OW15291  13.809  14.538   0.432
 4506SOL    HW115292  13.786  14.620   0.477
 4506SOL    HW215293  13.843  14.482   0.502
 4507SOL     OW15294  12.960   0.005   9.910
 4507SOL    HW115295  13.054  14.874   9.926
 4507SOL    HW215296  12.954   0.048   9.825
 4508SOL     OW15297  14.640   6.365  10.324
 4508SOL    HW115298  14.655   6.313  10.404
 4508SOL    HW215299  14.720   6.417  10.314
 4509SOL     OW15300  13.743  10.317  13.648
 4509SOL    HW115301  13.717  10.302  13.557
 4509SOL    HW215302  13.775  10.232  13.678
 4510SOL     OW15303   8.526   2.236   9.997
 4510SOL    HW115304   8.573   2.291   9.934
 4510SOL    HW215305   8.565   2.149   9.985
 4511SOL     OW15306  13.838   3.864   4.443
 4511SOL    HW115307  13.760   3.834   4.489
 4511SOL    HW215308  13.911   3.827   4.492
 4512SOL     OW15309   5.288   6.068  14.210
 4512SOL    HW115310   5.243   6.121  14.277
 4512SOL    HW215311   5.356   6.021  14.258
 4513SOL     OW15312   3.667   4.580  13.635
 4513SOL    HW115313   3.695   4.592  13.545
 4513SOL    HW215314   3.671   4.668  13.674
 4514SOL     OW15315  14.058  12.901  12.882
 4514SOL    HW115316  14.143  12.935  12.911
 4514SOL    HW215317  14.025  12.852  12.956
 4515SOL     OW15318   6.351   5.076   3.440
 4515SOL    HW115319   6.447   5.071   3.432
 4515SOL    HW215320   6.320   5.084   3.350
 4516SOL     OW15321   1.346  13.103   8.133
 4516SOL    HW115322   1.416  13.144   8.183
 4516SOL    HW215323   1.300  13.176   8.092
 4517SOL     OW15324   1.347   4.812  13.153
 4517SOL    HW115325   1.427   4.818  13.101
 4517SOL    HW215326   1.315   4.723  13.138
 4518SOL     OW15327   5.222   3.010  14.517
 4518SOL    HW115328   5.184   3.070  14.581
 4518SOL    HW215329   5.191   2.924  14.543
 4519SOL     OW15330   5.475  10.653   8.617
 4519SOL    HW115331   5.399  10.618   8.665
 4519SOL    HW215332   5.442  10.668   8.528
 4520SOL     OW15333   4.333   6.809  11.815
 4520SOL    HW115334   4.401   6.876  11.823
 4520SOL    HW215335   4.251   6.858  11.808
 4521SOL     OW15336   8.044   3.201   5.343
 4521SOL    HW115337   8.127   3.183   5.387
 4521SOL    HW215338   8.025   3.120   5.295
 4522SOL     OW15339   2.611   9.012   8.431
 4522SOL    HW115340   2.700   9.043   8.447
 4522SOL    HW215341   2.554   9.086   8.453
 4523SOL     OW15342   2.705   9.303  14.708
 4523SOL    HW115343   2.617   9.285  14.675
 4523SOL    HW215344   2.727   9.389  14.670
 4524SOL     OW15345   5.523  14.141  14.630
 4524SOL    HW115346   5.601  14.142  14.685
 4524SOL    HW215347   5.498  14.233  14.621
 4525SOL     OW15348   8.521   2.975  12.073
 4525SOL    HW115349   8.459   2.984  12.000
 4525SOL    HW215350   8.573   2.898  12.051
 4526SOL     OW15351   5.454   3.215   4.923
 4526SOL    HW115352   5.461   3.270   4.845
 4526SOL    HW215353   5.544   3.186   4.940
 4527SOL     OW15354   3.515   7.326   0.649
 4527SOL    HW115355   3.539   7.354   0.738
 4527SOL    HW215356   3.599   7.315   0.604
 4528SOL     OW15357   2.859   6.712   8.947
 4528SOL    HW115358   2.909   6.689   8.868
 4528SOL    HW215359   2.861   6.633   9.000
 4529SOL     OW15360   8.370   0.611  11.685
 4529SOL    HW115361   8.462   0.638  11.695
 4529SOL    HW215362   8.347   0.574  11.771
 4530SOL     OW15363   0.413  14.786   3.971
 4530SOL    HW115364   0.363  14.731   3.911
 4530SOL    HW215365   0.448  14.856   3.916
 4531SOL     OW15366   7.906   0.936   4.533
 4531SOL    HW115367   7.928   1.023   4.566
 4531SOL    HW215368   7.815   0.944   4.504
 4532SOL     OW15369   9.258   9.142   2.082
 4532SOL    HW115370   9.330   9.200   2.106
 4532SOL    HW215371   9.195   9.199   2.037
 4533SOL     OW15372  12.930   7.339   7.151
 4533SOL    HW115373  13.024   7.346   7.135
 4533SOL    HW215374  12.906   7.253   7.117
 4534SOL     OW15375   4.025  11.696   3.377
 4534SOL    HW115376   4.008  11.790   3.369
 4534SOL    HW215377   3.939  11.655   3.380
 4535SOL     OW15378   1.146  10.335  11.329
 4535SOL    HW115379   1.062  10.334  11.283
 4535SOL    HW215380   1.194  10.409  11.291
 4536SOL     OW15381  14.617   4.481   5.769
 4536SOL    HW115382  14.543   4.526   5.729
 4536SOL    HW215383  14.583   4.443   5.849
 4537SOL     OW15384  13.929   9.055   5.723
 4537SOL    HW115385  13.867   9.059   5.797
 4537SOL    HW215386  13.977   8.973   5.736
 4538SOL     OW15387   3.206   3.677   0.491
 4538SOL    HW115388   3.267   3.604   0.491
 4538SOL    HW215389   3.245   3.742   0.433
 4539SOL     OW15390   7.321   8.853   8.492
 4539SOL    HW115391   7.264   8.868   8.416
 4539SOL    HW215392   7.346   8.941   8.521
 4540SOL     OW15393  10.765  13.055  14.115
 4540SOL    HW115394  10.714  13.086  14.040
 4540SOL    HW215395  10.724  12.972  14.140
 4541SOL     OW15396  11.814   1.112   2.030
 4541SOL    HW115397  11.851   1.115   2.118
 4541SOL    HW215398  11.811   1.018   2.009
 4542SOL     OW15399   8.203   4.280  11.302
 4542SOL    HW115400   8.237   4.342  11.237
 4542SOL    HW215401   8.145   4.223  11.252
 4543SOL     OW15402  10.489   7.434   7.956
 4543SOL    HW115403  10.563   7.472   8.004
 4543SOL    HW215404  10.502   7.465   7.866
 4544SOL     OW15405  10.374   6.929  12.228
 4544SOL    HW115406  10.426   6.961  12.301
 4544SOL    HW215407  10.315   6.864  12.267
 4545SOL     OW15408   7.829   8.497   1.758
 4545SOL    HW115409   7.814   8.568   1.820
 4545SOL    HW215410   7.742   8.467   1.734
 4546SOL     OW15411   4.230   1.511  14.866
 4546SOL    HW115412   4.171   1.584  14.846
 4546SOL    HW215413   4.309   1.530  14.815
 4547SOL     OW15414  10.440   5.378   5.254
 4547SOL    HW115415  10.504   5.425   5.200
 4547SOL    HW215416  10.492   5.344   5.327
 4548SOL     OW15417   7.126  14.228  14.023
 4548SOL    HW115418   7.144  14.272  14.105
 4548SOL    HW215419   7.207  14.180  14.003
 4549SOL     OW15420  14.065  10.445  10.091
 4549SOL    HW115421  14.083  10.472  10.002
 4549SOL    HW215422  13.979  10.484  10.111
 4550SOL     OW15423  14.465  14.567   7.403
 4550SOL    HW115424  14.514  14.615   7.469
 4550SOL    HW215425  14.532  14.525   7.349
 4551SOL     OW15426  13.379   5.384   0.046
 4551SOL    HW115427  13.415   5.358  14.838
 4551SOL    HW215428  13.392   5.479   0.049
 4552SOL     OW15429   9.584   5.258  10.835
 4552SOL    HW115430   9.556   5.349  10.840
 4552SOL    HW215431   9.668   5.256  10.880
 4553SOL     OW15432  12.669   4.021  14.710
 4553SOL    HW115433  12.699   3.948  14.764
 4553SOL    HW215434  12.750   4.060  14.675
 4554SOL     OW15435   2.637  14.478   6.998
 4554SOL    HW115436   2.558  14.520   6.963
 4554SOL    HW215437   2.605  14.395   7.034
 4555SOL     OW15438   5.571   0.159   4.774
 4555SOL    HW115439   5.645   0.143   4.833
 4555SOL    HW215440   5.566   0.081   4.719
 4556SOL     OW15441   5.313  12.031   9.659
 4556SOL    HW115442   5.248  11.963   9.679
 4556SOL    HW215443   5.394  11.983   9.642
 4557SOL     OW15444   5.963  11.163   9.105
 4557SOL    HW115445   6.004  11.223   9.043
 4557SOL    HW215446   6.001  11.077   9.085
 4558SOL     OW15447  12.863  13.411  10.194
 4558SOL    HW115448  12.881  13.492  10.240
 4558SOL    HW215449  12.899  13.425  10.106
 4559SOL     OW15450   6.650  14.222   9.291
 4559SOL    HW115451   6.650  14.317   9.306
 4559SOL    HW215452   6.557  14.199   9.290
 4560SOL     OW15453   4.476  10.656   8.945
 4560SOL    HW115454   4.497  10.742   8.907
 4560SOL    HW215455   4.390  10.634   8.908
 4561SOL     OW15456  14.843   0.214   9.479
 4561SOL    HW115457  14.815   0.127   9.450
 4561SOL    HW215458  14.799   0.274   9.419
 4562SOL     OW15459   8.859   7.964  10.840
 4562SOL    HW115460   8.765   7.965  10.823
 4562SOL    HW215461   8.896   8.024  10.775
 4563SOL     OW15462   9.481  14.851   7.728
 4563SOL    HW115463   9.539  14.775   7.737
 4563SOL    HW215464   9.408  14.832   7.786
 4564SOL     OW15465   9.063  14.555   6.221
 4564SOL    HW115466   8.990  14.497   6.199
 4564SOL    HW215467   9.059  14.625   6.156
 4565SOL     OW15468   3.045  10.087   5.269
 4565SOL    HW115469   3.138  10.072   5.255
 4565SOL    HW215470   3.035  10.095   5.364
 4566SOL     OW15471  12.115  10.195  10.689
 4566SOL    HW115472  12.131  10.100  10.691
 4566SOL    HW215473  12.067  10.209  10.607
 4567SOL     OW15474   3.043   7.742  11.586
 4567SOL    HW115475   3.054   7.836  11.600
 4567SOL    HW215476   2.956   7.722  11.622
 4568SOL     OW15477   7.386   4.824   9.587
 4568SOL    HW115478   7.446   4.839   9.513
 4568SOL    HW215479   7.301   4.812   9.546
 4569SOL     OW15480   5.023   6.192   1.120
 4569SOL    HW115481   4.954   6.258   1.115
 4569SOL    HW215482   4.991   6.130   1.186
 4570SOL     OW15483   0.279   5.480   7.348
 4570SOL    HW115484   0.218   5.412   7.378
 4570SOL    HW215485   0.227   5.534   7.289
 4571SOL     OW15486   4.045   0.414   8.907
 4571SOL    HW115487   4.018   0.447   8.992
 4571SOL    HW215488   4.122   0.360   8.925
 4572SOL     OW15489   6.207  10.116   3.014
 4572SOL    HW115490   6.252  10.120   2.929
 4572SOL    HW215491   6.123  10.076   2.995
 4573SOL     OW15492  11.879  11.889  11.087
 4573SOL    HW115493  11.834  11.970  11.112
 4573SOL    HW215494  11.929  11.864  11.164
 4574SOL     OW15495   1.504   0.320   6.177
 4574SOL    HW115496   1.432   0.265   6.207
 4574SOL    HW215497   1.520   0.381   6.249
 4575SOL     OW15498  12.484   4.024   6.688
 4575SOL    HW115499  12.442   3.954   6.638
 4575SOL    HW215500  12.570   4.035   6.648
 4576SOL     OW15501   5.579   2.666   8.599
 4576SOL    HW115502   5.533   2.747   8.579
 4576SOL    HW215503   5.670   2.682   8.575
 4577SOL     OW15504   3.281   3.336  14.712
 4577SOL    HW115505   3.194   3.324  14.751
 4577SOL    HW215506   3.313   3.418  14.750
 4578SOL     OW15507   8.895   8.833   6.554
 4578SOL    HW115508   8.922   8.838   6.462
 4578SOL    HW215509   8.801   8.849   6.553
 4579SOL     OW15510   4.528   7.371   3.699
 4579SOL    HW115511   4.434   7.382   3.690
 4579SOL    HW215512   4.538   7.292   3.753
 4580SOL     OW15513   7.838  14.863   7.490
 4580SOL    HW115514   7.890   0.044   7.545
 4580SOL    HW215515   7.810  14.793   7.549
 4581SOL     OW15516   2.537   5.323  14.346
 4581SOL    HW115517   2.489   5.321  14.428
 4581SOL    HW215518   2.512   5.406  14.305
 4582SOL     OW15519   7.867  11.882   1.126
 4582SOL    HW115520   7.827  11.945   1.066
 4582SOL    HW215521   7.871  11.928   1.209
 4583SOL     OW15522  10.078  13.854   7.994
 4583SOL    HW115523  10.049  13.944   7.981
 4583SOL    HW215524  10.094  13.847   8.088
 4584SOL     OW15525   0.912   0.998   6.849
 4584SOL    HW115526   0.824   0.965   6.828
 4584SOL    HW215527   0.965   0.920   6.864
 4585SOL     OW15528   0.981  13.955   7.127
 4585SOL    HW115529   1.057  14.011   7.113
 4585SOL    HW215530   0.942  13.987   7.208
 4586SOL     OW15531  14.618   1.742   8.621
 4586SOL    HW115532  14.645   1.651   8.637
 4586SOL    HW215533  14.699   1.792   8.626
 4587SOL     OW15534  14.297  11.344   2.139
 4587SOL    HW115535  14.379  11.337   2.189
 4587SOL    HW215536  14.268  11.254   2.127
 4588SOL     OW15537   2.000   1.000  12.860
 4588SOL    HW115538   2.060   0.982  12.932
 4588SOL    HW215539   2.040   0.958  12.784
 4589SOL     OW15540   4.042   2.854  14.550
 4589SOL    HW115541   4.084   2.937  14.529
 4589SOL    HW215542   4.110   2.788  14.535
 4590SOL     OW15543   4.982   1.333  13.154
 4590SOL    HW115544   5.069   1.366  13.135
 4590SOL    HW215545   4.946   1.308  13.069
 4591SOL     OW15546   9.448   7.204   7.043
 4591SOL    HW115547   9.540   7.181   7.052
 4591SOL    HW215548   9.446   7.299   7.056
 4592SOL     OW15549  14.457   1.467   5.743
 4592SOL    HW115550  14.474   1.423   5.660
 4592SOL    HW215551  14.449   1.396   5.807
 4593SOL     OW15552   0.678   7.577   4.211
 4593SOL    HW115553   0.631   7.652   4.248
 4593SOL    HW215554   0.645   7.501   4.260
 4594SOL     OW15555   2.239   9.822   9.438
 4594SOL    HW115556   2.257   9.773   9.518
 4594SOL    HW215557   2.316   9.807   9.384
 4595SOL     OW15558  12.228   0.171   4.487
 4595SOL    HW115559  12.273   0.087   4.495
 4595SOL    HW215560  12.277   0.230   4.545
 4596SOL     OW15561   7.167   3.951   1.157
 4596SOL    HW115562   7.181   4.028   1.101
 4596SOL    HW215563   7.254   3.932   1.194
 4597SOL     OW15564   9.591   6.018  11.656
 4597SOL    HW115565   9.589   6.106  11.617
 4597SOL    HW215566   9.612   5.960  11.583
 4598SOL     OW15567  10.585   6.968   1.326
 4598SOL    HW115568  10.588   6.875   1.302
 4598SOL    HW215569  10.661   7.007   1.282
 4599SOL     OW15570   6.918   8.500  13.032
 4599SOL    HW115571   6.958   8.458  13.108
 4599SOL    HW215572   6.831   8.528  13.063
 4600SOL     OW15573   4.026   8.127   1.365
 4600SOL    HW115574   4.022   8.222   1.356
 4600SOL    HW215575   3.979   8.109   1.447
 4601SOL     OW15576   5.310  13.635   1.469
 4601SOL    HW115577   5.226  13.596   1.445
 4601SOL    HW215578   5.358  13.564   1.512
 4602SOL     OW15579  13.346   8.994  13.976
 4602SOL    HW115580  13.389   8.913  14.004
 4602SOL    HW215581  13.386   9.062  14.030
 4603SOL     OW15582   4.436  14.216   6.731
 4603SOL    HW115583   4.473  14.128   6.734
 4603SOL    HW215584   4.505  14.272   6.766
 4604SOL     OW15585   8.571   7.361   9.509
 4604SOL    HW115586   8.626   7.430   9.545
 4604SOL    HW215587   8.520   7.404   9.440
 4605SOL     OW15588   4.008   9.122   1.301
 4605SOL    HW115589   3.915   9.099   1.307
 4605SOL    HW215590   4.024   9.134   1.208
 4606SOL     OW15591  13.040  12.499   0.666
 4606SOL    HW115592  13.108  12.434   0.686
 4606SOL    HW215593  13.088  12.578   0.643
 4607SOL     OW15594   5.532   9.858   3.463
 4607SOL    HW115595   5.472   9.893   3.397
 4607SOL    HW215596   5.552   9.769   3.433
 4608SOL     OW15597  12.061   7.037   8.921
 4608SOL    HW115598  12.056   6.942   8.932
 4608SOL    HW215599  12.019   7.072   9.000
 4609SOL     OW15600   8.904   1.327   0.672
 4609SOL    HW115601   8.950   1.271   0.610
 4609SOL    HW215602   8.817   1.340   0.634
 4610SOL     OW15603   2.692  14.631   9.461
 4610SOL    HW115604   2.692  14.535   9.458
 4610SOL    HW215605   2.663  14.657   9.373
 4611SOL     OW15606   8.726   7.213  11.372
 4611SOL    HW115607   8.768   7.164  11.442
 4611SOL    HW215608   8.633   7.216  11.397
 4612SOL     OW15609  11.140   5.340   9.863
 4612SOL    HW115610  11.153   5.435   9.869
 4612SOL    HW215611  11.193   5.313   9.788
 4613SOL     OW15612  14.036   4.175   3.383
 4613SOL    HW115613  14.117   4.160   3.432
 4613SOL    HW215614  14.026   4.096   3.329
 4614SOL     OW15615  13.940   5.427   0.331
 4614SOL    HW115616  13.974   5.396   0.415
 4614SOL    HW215617  13.993   5.504   0.310
 4615SOL     OW15618   0.186   3.787   1.788
 4615SOL    HW115619   0.130   3.715   1.819
 4615SOL    HW215620   0.201   3.840   1.866
 4616SOL     OW15621  10.264   2.104  12.977
 4616SOL    HW115622  10.170   2.097  12.960
 4616SOL    HW215623  10.305   2.104  12.890
 4617SOL     OW15624  14.533  10.879   1.838
 4617SOL    HW115625  14.585  10.951   1.875
 4617SOL    HW215626  14.579  10.800   1.865
 4618SOL     OW15627   2.770  14.224   2.693
 4618SOL    HW115628   2.775  14.134   2.661
 4618SOL    HW215629   2.858  14.258   2.682
 4619SOL     OW15630   4.920   0.226   0.391
 4619SOL    HW115631   4.908   0.249   0.484
 4619SOL    HW215632   4.933   0.311   0.348
 4620SOL     OW15633  13.581   3.714  13.270
 4620SOL    HW115634  13.563   3.795  13.317
 4620SOL    HW215635  13.515   3.652  13.301
 4621SOL     OW15636   2.553  14.141  12.711
 4621SOL    HW115637   2.617  14.076  12.741
 4621SOL    HW215638   2.603  14.222  12.703
 4622SOL     OW15639   3.226   8.145   5.590
 4622SOL    HW115640   3.165   8.126   5.520
 4622SOL    HW215641   3.173   8.186   5.659
 4623SOL     OW15642   2.267  13.600   4.782
 4623SOL    HW115643   2.185  13.595   4.732
 4623SOL    HW215644   2.334  13.568   4.722
 4624SOL     OW15645   2.867   6.703  14.025
 4624SOL    HW115646   2.900   6.791  14.042
 4624SOL    HW215647   2.793   6.717  13.965
 4625SOL     OW15648   8.247  11.424   6.483
 4625SOL    HW115649   8.329  11.394   6.521
 4625SOL    HW215650   8.227  11.505   6.529
 4626SOL     OW15651  11.293   5.513   0.662
 4626SOL    HW115652  11.285   5.418   0.656
 4626SOL    HW215653  11.353   5.527   0.735
 4627SOL     OW15654   7.796   3.754  14.219
 4627SOL    HW115655   7.877   3.712  14.250
 4627SOL    HW215656   7.814   3.777  14.128
 4628SOL     OW15657   9.446  13.919   4.220
 4628SOL    HW115658   9.420  13.996   4.271
 4628SOL    HW215659   9.445  13.950   4.129
 4629SOL     OW15660  10.997   7.967   9.912
 4629SOL    HW115661  11.000   7.958   9.816
 4629SOL    HW215662  10.904   7.975   9.932
 4630SOL     OW15663  13.026  12.098   7.780
 4630SOL    HW115664  13.035  12.192   7.767
 4630SOL    HW215665  13.098  12.059   7.729
 4631SOL     OW15666  14.202  10.014   0.137
 4631SOL    HW115667  14.236  10.101   0.159
 4631SOL    HW215668  14.151   9.988   0.213
 4632SOL     OW15669  11.687   0.428  13.081
 4632SOL    HW115670  11.647   0.343  13.063
 4632SOL    HW215671  11.746   0.412  13.155
 4633SOL     OW15672   2.324   1.651   8.778
 4633SOL    HW115673   2.281   1.630   8.695
 4633SOL    HW215674   2.416   1.664   8.754
 4634SOL     OW15675   8.273   3.284  13.394
 4634SOL    HW115676   8.342   3.313  13.335
 4634SOL    HW215677   8.293   3.192  13.411
 4635SOL     OW15678  11.983   5.036   6.519
 4635SOL    HW115679  12.076   5.039   6.499
 4635SOL    HW215680  11.969   5.111   6.577
 4636SOL     OW15681   5.859  10.239   6.716
 4636SOL    HW115682   5.868  10.187   6.796
 4636SOL    HW215683   5.864  10.175   6.645
 4637SOL     OW15684   0.429   9.198   4.471
 4637SOL    HW115685   0.479   9.276   4.447
 4637SOL    HW215686   0.339   9.220   4.447
 4638SOL     OW15687   2.234   0.777   4.848
 4638SOL    HW115688   2.227   0.681   4.853
 4638SOL    HW215689   2.307   0.798   4.906
 4639SOL     OW15690   0.516   7.971   7.818
 4639SOL    HW115691   0.448   7.990   7.883
 4639SOL    HW215692   0.474   7.990   7.734
 4640SOL     OW15693  11.351  12.794  12.833
 4640SOL    HW115694  11.442  12.799  12.803
 4640SOL    HW215695  11.303  12.852  12.774
 4641SOL     OW15696   5.340   3.605   9.687
 4641SOL    HW115697   5.357   3.570   9.775
 4641SOL    HW215698   5.245   3.596   9.676
 4642SOL     OW15699   7.596   1.923   9.335
 4642SOL    HW115700   7.593   1.974   9.254
 4642SOL    HW215701   7.686   1.933   9.367
 4643SOL     OW15702   4.591   8.331   7.827
 4643SOL    HW115703   4.652   8.310   7.756
 4643SOL    HW215704   4.647   8.369   7.895
 4644SOL     OW15705   0.181  12.565  14.420
 4644SOL    HW115706   0.130  12.499  14.468
 4644SOL    HW215707   0.146  12.649  14.450
 4645SOL     OW15708  13.813  10.968   6.093
 4645SOL    HW115709  13.877  10.948   6.162
 4645SOL    HW215710  13.858  10.944   6.012
 4646SOL     OW15711   5.728   7.021  12.605
 4646SOL    HW115712   5.670   6.985  12.538
 4646SOL    HW215713   5.703   6.976  12.686
 4647SOL     OW15714  14.566   2.027   4.182
 4647SOL    HW115715  14.583   2.025   4.088
 4647SOL    HW215716  14.652   2.013   4.222
 4648SOL     OW15717  11.517   2.242   3.403
 4648SOL    HW115718  11.570   2.184   3.348
 4648SOL    HW215719  11.578   2.274   3.470
 4649SOL     OW15720   1.042   3.514   3.988
 4649SOL    HW115721   1.065   3.438   4.042
 4649SOL    HW215722   1.124   3.540   3.946
 4650SOL     OW15723  11.113   4.528   2.751
 4650SOL    HW115724  11.112   4.439   2.787
 4650SOL    HW215725  11.183   4.572   2.798
 4651SOL     OW15726   0.924   8.346   8.565
 4651SOL    HW115727   0.921   8.269   8.508
 4651SOL    HW215728   0.945   8.311   8.651
 4652SOL     OW15729  11.918   7.808  12.652
 4652SOL    HW115730  12.003   7.776  12.681
 4652SOL    HW215731  11.901   7.761  12.570
 4653SOL     OW15732   7.745   9.243   3.242
 4653SOL    HW115733   7.816   9.291   3.286
 4653SOL    HW215734   7.757   9.152   3.270
 4654SOL     OW15735  12.581   7.062   8.368
 4654SOL    HW115736  12.607   7.084   8.457
 4654SOL    HW215737  12.496   7.021   8.377
 4655SOL     OW15738  10.768   6.099   2.054
 4655SOL    HW115739  10.836   6.166   2.058
 4655SOL    HW215740  10.686   6.149   2.056
 4656SOL     OW15741  10.924   7.503   2.579
 4656SOL    HW115742  10.858   7.567   2.554
 4656SOL    HW215743  10.874   7.429   2.612
 4657SOL     OW15744   0.035  11.034  14.689
 4657SOL    HW115745   0.095  11.006  14.759
 4657SOL    HW215746  14.863  11.107  14.728
 4658SOL     OW15747   9.223   8.849   6.447
 4658SOL    HW115748   9.288   8.897   6.396
 4658SOL    HW215749   9.140   8.890   6.426
 4659SOL     OW15750  10.637   2.483   1.760
 4659SOL    HW115751  10.631   2.434   1.678
 4659SOL    HW215752  10.647   2.574   1.733
 4660SOL     OW15753  12.885   6.378   3.126
 4660SOL    HW115754  12.925   6.456   3.086
 4660SOL    HW215755  12.795   6.378   3.094
 4661SOL     OW15756  14.650  14.712  10.463
 4661SOL    HW115757  14.648  14.680  10.373
 4661SOL    HW215758  14.573  14.673  10.504
 4662SOL     OW15759   3.823   8.124   9.598
 4662SOL    HW115760   3.782   8.038   9.596
 4662SOL    HW215761   3.871   8.130   9.515
 4663SOL     OW15762  10.651   1.253   2.000
 4663SOL    HW115763  10.687   1.282   1.917
 4663SOL    HW215764  10.688   1.165   2.012
 4664SOL     OW15765  14.817   9.178   1.668
 4664SOL    HW115766  14.803   9.237   1.594
 4664SOL    HW215767  14.730   9.166   1.706
 4665SOL     OW15768  13.222   6.352  13.875
 4665SOL    HW115769  13.314   6.372  13.858
 4665SOL    HW215770  13.187   6.327  13.790
 4666SOL     OW15771   3.415   4.473  12.053
 4666SOL    HW115772   3.415   4.482  11.957
 4666SOL    HW215773   3.453   4.387  12.069
 4667SOL     OW15774   1.435  14.647   5.907
 4667SOL    HW115775   1.508  14.692   5.864
 4667SOL    HW215776   1.376  14.717   5.934
 4668SOL     OW15777  10.780  13.348  14.681
 4668SOL    HW115778  10.841  13.409  14.640
 4668SOL    HW215779  10.823  13.323  14.763
 4669SOL     OW15780  12.111  10.959   0.827
 4669SOL    HW115781  12.017  10.956   0.810
 4669SOL    HW215782  12.119  11.014   0.905
 4670SOL     OW15783  12.267   5.041   7.449
 4670SOL    HW115784  12.174   5.027   7.431
 4670SOL    HW215785  12.270   5.127   7.492
 4671SOL     OW15786   5.119   1.227   6.084
 4671SOL    HW115787   5.114   1.139   6.122
 4671SOL    HW215788   5.123   1.286   6.159
 4672SOL     OW15789  11.203   0.907   7.843
 4672SOL    HW115790  11.219   0.838   7.907
 4672SOL    HW215791  11.241   0.874   7.762
 4673SOL     OW15792   2.384  13.941  14.355
 4673SOL    HW115793   2.301  13.971  14.392
 4673SOL    HW215794   2.428  14.021  14.327
 4674SOL     OW15795   5.496   9.718   8.574
 4674SOL    HW115796   5.470   9.639   8.527
 4674SOL    HW215797   5.581   9.741   8.537
 4675SOL     OW15798   2.839   3.082  13.841
 4675SOL    HW115799   2.925   3.054  13.810
 4675SOL    HW215800   2.841   3.065  13.936
 4676SOL     OW15801   4.438   7.250  10.246
 4676SOL    HW115802   4.405   7.206  10.168
 4676SOL    HW215803   4.429   7.185  10.316
 4677SOL     OW15804   2.582  10.373  10.223
 4677SOL    HW115805   2.552  10.301  10.280
 4677SOL    HW215806   2.644  10.331  10.163
 4678SOL     OW15807   2.650  11.911   3.154
 4678SOL    HW115808   2.587  11.980   3.177
 4678SOL    HW215809   2.660  11.919   3.059
 4679SOL     OW15810   5.938  14.285   9.937
 4679SOL    HW115811   5.855  14.329   9.919
 4679SOL    HW215812   5.980  14.340  10.003
 4680SOL     OW15813   4.888   5.590  13.653
 4680SOL    HW115814   4.872   5.536  13.730
 4680SOL    HW215815   4.801   5.608  13.617
 4681SOL     OW15816  13.910  14.505  13.271
 4681SOL    HW115817  13.846  14.437  13.248
 4681SOL    HW215818  13.880  14.540  13.354
 4682SOL     OW15819  10.742  10.292   9.253
 4682SOL    HW115820  10.808  10.296   9.322
 4682SOL    HW215821  10.659  10.308   9.298
 4683SOL     OW15822  11.479   9.210   4.679
 4683SOL    HW115823  11.502   9.300   4.658
 4683SOL    HW215824  11.500   9.161   4.599
 4684SOL     OW15825  13.977   4.939   0.474
 4684SOL    HW115826  13.911   4.905   0.414
 4684SOL    HW215827  13.950   5.029   0.490
 4685SOL     OW15828  11.825   5.717   6.383
 4685SOL    HW115829  11.781   5.768   6.315
 4685SOL    HW215830  11.849   5.781   6.449
 4686SOL     OW15831   0.287  10.700   5.366
 4686SOL    HW115832   0.223  10.755   5.321
 4686SOL    HW215833   0.241  10.617   5.381
 4687SOL     OW15834  12.997   3.662   4.503
 4687SOL    HW115835  13.003   3.570   4.477
 4687SOL    HW215836  12.939   3.702   4.438
 4688SOL     OW15837  13.616  11.505   6.028
 4688SOL    HW115838  13.546  11.563   6.057
 4688SOL    HW215839  13.692  11.530   6.081
 4689SOL     OW15840   3.380  12.830   8.306
 4689SOL    HW115841   3.293  12.793   8.315
 4689SOL    HW215842   3.420  12.782   8.234
 4690SOL     OW15843  11.208   2.073  10.003
 4690SOL    HW115844  11.173   1.999   9.953
 4690SOL    HW215845  11.248   2.130   9.938
 4691SOL     OW15846  11.213   1.455   9.201
 4691SOL    HW115847  11.288   1.514   9.192
 4691SOL    HW215848  11.154   1.479   9.130
 4692SOL     OW15849   6.587   3.736   4.056
 4692SOL    HW115850   6.637   3.655   4.048
 4692SOL    HW215851   6.607   3.785   3.976
 4693SOL     OW15852  13.732   8.482  10.279
 4693SOL    HW115853  13.760   8.521  10.196
 4693SOL    HW215854  13.725   8.556  10.339
 4694SOL     OW15855   9.571   2.154   8.358
 4694SOL    HW115856   9.480   2.123   8.357
 4694SOL    HW215857   9.569   2.236   8.406
 4695SOL     OW15858   6.175   8.936   3.300
 4695SOL    HW115859   6.142   8.848   3.317
 4695SOL    HW215860   6.247   8.922   3.238
 4696SOL     OW15861  13.415   3.022   6.098
 4696SOL    HW115862  13.331   2.981   6.076
 4696SOL    HW215863  13.480   2.956   6.076
 4697SOL     OW15864   2.555   0.155  10.141
 4697SOL    HW115865   2.462   0.144  10.121
 4697SOL    HW215866   2.590   0.066  10.139
 4698SOL     OW15867   6.286   5.264   2.128
 4698SOL    HW115868   6.335   5.321   2.187
 4698SOL    HW215869   6.312   5.175   2.154
 4699SOL     OW15870  10.057   1.177   8.955
 4699SOL    HW115871  10.021   1.248   8.901
 4699SOL    HW215872   9.997   1.104   8.942
 4700SOL     OW15873   1.426   9.552   3.151
 4700SOL    HW115874   1.421   9.616   3.081
 4700SOL    HW215875   1.364   9.584   3.217
 4701SOL     OW15876   9.965   0.479  13.439
 4701SOL    HW115877   9.936   0.427  13.364
 4701SOL    HW215878  10.060   0.487  13.427
 4702SOL     OW15879   0.613  12.923   7.373
 4702SOL    HW115880   0.636  12.862   7.443
 4702SOL    HW215881   0.672  12.997   7.385
 4703SOL     OW15882   2.935   9.270  10.596
 4703SOL    HW115883   2.971   9.219  10.668
 4703SOL    HW215884   2.855   9.224  10.571
 4704SOL     OW15885   4.111   2.407  11.555
 4704SOL    HW115886   4.065   2.460  11.490
 4704SOL    HW215887   4.082   2.441  11.639
 4705SOL     OW15888   8.390   5.071  14.521
 4705SOL    HW115889   8.485   5.078  14.533
 4705SOL    HW215890   8.378   5.067  14.426
 4706SOL     OW15891   2.752  12.652   0.636
 4706SOL    HW115892   2.726  12.671   0.726
 4706SOL    HW215893   2.846  12.638   0.640
 4707SOL     OW15894  11.402   2.704   3.764
 4707SOL    HW115895  11.410   2.626   3.708
 4707SOL    HW215896  11.454   2.771   3.720
 4708SOL     OW15897   7.882   1.267  10.669
 4708SOL    HW115898   7.919   1.199  10.726
 4708SOL    HW215899   7.937   1.344  10.684
 4709SOL     OW15900  10.888   5.101  10.835
 4709SOL    HW115901  10.923   5.099  10.924
 4709SOL    HW215902  10.907   5.014  10.800
 4710SOL     OW15903   2.867   3.456   4.795
 4710SOL    HW115904   2.785   3.420   4.759
 4710SOL    HW215905   2.899   3.515   4.727
 4711SOL     OW15906   4.055   8.376   3.965
 4711SOL    HW115907   4.053   8.334   3.879
 4711SOL    HW215908   4.121   8.445   3.956
 4712SOL     OW15909   7.315  12.807  12.482
 4712SOL    HW115910   7.307  12.844  12.570
 4712SOL    HW215911   7.228  12.771  12.464
 4713SOL     OW15912   8.293  11.354   7.700
 4713SOL    HW115913   8.230  11.426   7.705
 4713SOL    HW215914   8.297  11.320   7.790
 4714SOL     OW15915   1.933   6.621   5.517
 4714SOL    HW115916   1.969   6.707   5.493
 4714SOL    HW215917   1.945   6.567   5.439
 4715SOL     OW15918  11.432  14.095   3.419
 4715SOL    HW115919  11.501  14.035   3.391
 4715SOL    HW215920  11.351  14.051   3.393
 4716SOL     OW15921   0.034   6.810   8.840
 4716SOL    HW115922   0.084   6.876   8.888
 4716SOL    HW215923   0.086   6.730   8.850
 4717SOL     OW15924   8.887  10.761   9.386
 4717SOL    HW115925   8.960  10.720   9.340
 4717SOL    HW215926   8.836  10.688   9.422
 4718SOL     OW15927  14.445   3.529  14.466
 4718SOL    HW115928  14.515   3.498  14.408
 4718SOL    HW215929  14.373   3.468  14.450
 4719SOL     OW15930  10.357  11.199  13.257
 4719SOL    HW115931  10.300  11.133  13.296
 4719SOL    HW215932  10.445  11.175  13.285
 4720SOL     OW15933   6.931   2.675   2.017
 4720SOL    HW115934   6.934   2.680   1.921
 4720SOL    HW215935   6.864   2.738   2.043
 4721SOL     OW15936  11.510  14.647   6.161
 4721SOL    HW115937  11.516  14.644   6.257
 4721SOL    HW215938  11.439  14.587   6.140
 4722SOL     OW15939   9.047   9.812   8.733
 4722SOL    HW115940   9.017   9.891   8.687
 4722SOL    HW215941   9.030   9.829   8.825
 4723SOL     OW15942   2.061   8.627   6.651
 4723SOL    HW115943   2.073   8.593   6.563
 4723SOL    HW215944   2.138   8.597   6.699
 4724SOL     OW15945   6.689  13.566  14.587
 4724SOL    HW115946   6.628  13.640  14.587
 4724SOL    HW215947   6.637  13.492  14.555
 4725SOL     OW15948   3.726  14.489   4.551
 4725SOL    HW115949   3.644  14.452   4.581
 4725SOL    HW215950   3.775  14.415   4.516
 4726SOL     OW15951  11.116   7.835   5.286
 4726SOL    HW115952  11.064   7.844   5.366
 4726SOL    HW215953  11.055   7.799   5.221
 4727SOL     OW15954   1.006   8.027  12.332
 4727SOL    HW115955   1.096   8.024  12.300
 4727SOL    HW215956   1.014   8.051  12.424
 4728SOL     OW15957   5.069   5.017   5.753
 4728SOL    HW115958   5.050   4.977   5.838
 4728SOL    HW215959   4.982   5.028   5.713
 4729SOL     OW15960   7.430   1.809  12.141
 4729SOL    HW115961   7.438   1.724  12.182
 4729SOL    HW215962   7.354   1.850  12.182
 4730SOL     OW15963   3.735   8.209   9.853
 4730SOL    HW115964   3.640   8.202   9.841
 4730SOL    HW215965   3.771   8.200   9.764
 4731SOL     OW15966  13.310  10.921   6.632
 4731SOL    HW115967  13.216  10.935   6.643
 4731SOL    HW215968  13.320  10.896   6.541
 4732SOL     OW15969   5.903  10.472   4.713
 4732SOL    HW115970   5.823  10.419   4.707
 4732SOL    HW215971   5.884  10.549   4.660
 4733SOL     OW15972   0.275   3.080   3.222
 4733SOL    HW115973   0.301   3.139   3.152
 4733SOL    HW215974   0.208   3.128   3.270
 4734SOL     OW15975  12.219   0.349  10.400
 4734SOL    HW115976  12.240   0.305  10.318
 4734SOL    HW215977  12.302   0.387  10.429
 4735SOL     OW15978  11.935   3.535   6.501
 4735SOL    HW115979  11.840   3.536   6.491
 4735SOL    HW215980  11.953   3.452   6.545
 4736SOL     OW15981  14.549   5.090   4.256
 4736SOL    HW115982  14.562   5.177   4.293
 4736SOL    HW215983  14.614   5.035   4.299
 4737SOL     OW15984   9.137  10.459   0.265
 4737SOL    HW115985   9.224  10.478   0.300
 4737SOL    HW215986   9.148  10.377   0.217
 4738SOL     OW15987   9.983  14.605   6.891
 4738SOL    HW115988  10.020  14.692   6.883
 4738SOL    HW215989   9.894  14.613   6.858
 4739SOL     OW15990   2.707   3.806   2.226
 4739SOL    HW115991   2.704   3.749   2.303
 4739SOL    HW215992   2.736   3.748   2.155
 4740SOL     OW15993  11.714   0.023   5.529
 4740SOL    HW115994  11.727  14.808   5.552
 4740SOL    HW215995  11.803   0.058   5.519
 4741SOL     OW15996   4.724   2.855  10.709
 4741SOL    HW115997   4.699   2.937  10.666
 4741SOL    HW215998   4.812   2.871  10.742
 4742SOL     OW15999   1.723   1.870  12.897
 4742SOL    HW116000   1.768   1.788  12.915
 4742SOL    HW216001   1.638   1.861  12.941
 4743SOL     OW16002   2.333   0.930  12.833
 4743SOL    HW116003   2.311   0.974  12.915
 4743SOL    HW216004   2.274   0.970  12.768
 4744SOL     OW16005   9.323  14.821  11.120
 4744SOL    HW116006   9.395  14.758  11.124
 4744SOL    HW216007   9.244  14.768  11.133
 4745SOL     OW16008   7.450   5.063   2.250
 4745SOL    HW116009   7.450   5.117   2.171
 4745SOL    HW216010   7.542   5.043   2.266
 4746SOL     OW16011   4.630   7.474  12.528
 4746SOL    HW116012   4.707   7.418  12.519
 4746SOL    HW216013   4.560   7.414  12.557
 4747SOL     OW16014   8.240  12.477   6.851
 4747SOL    HW116015   8.164  12.420   6.864
 4747SOL    HW216016   8.203  12.559   6.819
 4748SOL     OW16017   3.365  13.056  13.104
 4748SOL    HW116018   3.317  12.996  13.046
 4748SOL    HW216019   3.300  13.124  13.125
 4749SOL     OW16020   0.147   8.561  11.238
 4749SOL    HW116021   0.173   8.558  11.330
 4749SOL    HW216022   0.186   8.482  11.200
 4750SOL     OW16023   9.329   7.794   7.754
 4750SOL    HW116024   9.389   7.772   7.683
 4750SOL    HW216025   9.242   7.770   7.720
 4751SOL     OW16026  10.475   9.471  13.329
 4751SOL    HW116027  10.511   9.557  13.348
 4751SOL    HW216028  10.407   9.487  13.264
 4752SOL     OW16029   0.569  14.790   4.586
 4752SOL    HW116030   0.505  14.860   4.582
 4752SOL    HW216031   0.650  14.832   4.615
 4753SOL     OW16032   8.898  11.777   7.832
 4753SOL    HW116033   8.876  11.741   7.746
 4753SOL    HW216034   8.851  11.722   7.894
 4754SOL     OW16035   5.093   9.412   8.934
 4754SOL    HW116036   5.082   9.488   8.991
 4754SOL    HW216037   5.039   9.344   8.974
 4755SOL     OW16038  11.887  10.462  11.387
 4755SOL    HW116039  11.827  10.465  11.462
 4755SOL    HW216040  11.938  10.383  11.400
 4756SOL     OW16041   1.653   0.436  12.208
 4756SOL    HW116042   1.657   0.360  12.151
 4756SOL    HW216043   1.738   0.479  12.198
 4757SOL     OW16044   1.551   6.451   8.018
 4757SOL    HW116045   1.467   6.444   7.973
 4757SOL    HW216046   1.534   6.511   8.090
 4758SOL     OW16047  14.585   5.214  10.161
 4758SOL    HW116048  14.567   5.285  10.223
 4758SOL    HW216049  14.530   5.142  10.190
 4759SOL     OW16050   0.897  11.732  12.976
 4759SOL    HW116051   0.917  11.651  13.022
 4759SOL    HW216052   0.961  11.736  12.905
 4760SOL     OW16053  10.211   7.195   9.600
 4760SOL    HW116054  10.158   7.125   9.562
 4760SOL    HW216055  10.295   7.155   9.618
 4761SOL     OW16056  14.698   3.229   5.117
 4761SOL    HW116057  14.729   3.240   5.027
 4761SOL    HW216058  14.718   3.313   5.159
 4762SOL     OW16059   3.095   5.282   4.676
 4762SOL    HW116060   3.123   5.263   4.765
 4762SOL    HW216061   3.007   5.318   4.685
 4763SOL     OW16062  14.492  14.215   7.295
 4763SOL    HW116063  14.528  14.303   7.290
 4763SOL    HW216064  14.553  14.160   7.247
 4764SOL     OW16065  14.280  14.017   0.566
 4764SOL    HW116066  14.211  14.079   0.543
 4764SOL    HW216067  14.267  13.999   0.659
 4765SOL     OW16068   8.393   4.191   8.747
 4765SOL    HW116069   8.467   4.241   8.713
 4765SOL    HW216070   8.333   4.258   8.781
 4766SOL     OW16071  13.234   2.013   5.797
 4766SOL    HW116072  13.164   1.958   5.762
 4766SOL    HW216073  13.309   1.954   5.805
 4767SOL     OW16074   3.884   8.671   5.423
 4767SOL    HW116075   3.876   8.764   5.442
 4767SOL    HW216076   3.852   8.628   5.502
 4768SOL     OW16077   8.088   5.977  13.276
 4768SOL    HW116078   8.055   5.987  13.187
 4768SOL    HW216079   8.122   6.064  13.299
 4769SOL     OW16080  12.631   7.651   8.349
 4769SOL    HW116081  12.628   7.712   8.275
 4769SOL    HW216082  12.542   7.654   8.385
 4770SOL     OW16083   8.270   3.616   9.290
 4770SOL    HW116084   8.267   3.565   9.209
 4770SOL    HW216085   8.328   3.689   9.270
 4771SOL     OW16086   2.525   3.374   6.205
 4771SOL    HW116087   2.555   3.359   6.116
 4771SOL    HW216088   2.578   3.316   6.259
 4772SOL     OW16089   7.746   5.212  12.878
 4772SOL    HW116090   7.729   5.124  12.844
 4772SOL    HW216091   7.667   5.261  12.855
 4773SOL     OW16092   7.160  12.645   6.846
 4773SOL    HW116093   7.089  12.679   6.901
 4773SOL    HW216094   7.139  12.677   6.758
 4774SOL     OW16095   9.912  11.469   6.558
 4774SOL    HW116096   9.987  11.474   6.499
 4774SOL    HW216097   9.932  11.396   6.616
 4775SOL     OW16098   3.801   0.925   6.687
 4775SOL    HW116099   3.736   0.885   6.628
 4775SOL    HW216100   3.852   0.983   6.630
 4776SOL     OW16101  12.383  11.231   2.914
 4776SOL    HW116102  12.315  11.268   2.858
 4776SOL    HW216103  12.352  11.144   2.936
 4777SOL     OW16104   5.005   9.067  12.702
 4777SOL    HW116105   5.047   9.092  12.619
 4777SOL    HW216106   5.078   9.057  12.764
 4778SOL     OW16107   0.054   8.040   8.077
 4778SOL    HW116108   0.052   7.951   8.043
 4778SOL    HW216109  14.871   8.089   8.020
 4779SOL     OW16110  12.685   5.178   1.750
 4779SOL    HW116111  12.758   5.118   1.767
 4779SOL    HW216112  12.722   5.245   1.694
 4780SOL     OW16113   1.015   5.143  13.803
 4780SOL    HW116114   0.972   5.202  13.865
 4780SOL    HW216115   0.944   5.110  13.749
 4781SOL     OW16116   0.283   9.809   4.930
 4781SOL    HW116117   0.263   9.887   4.981
 4781SOL    HW216118   0.279   9.837   4.839
 4782SOL     OW16119   4.283   4.956   5.856
 4782SOL    HW116120   4.273   4.864   5.834
 4782SOL    HW216121   4.228   4.969   5.933
 4783SOL     OW16122   3.048  10.064   1.321
 4783SOL    HW116123   3.017  10.049   1.232
 4783SOL    HW216124   3.019  10.153   1.342
 4784SOL     OW16125   8.468   2.757   1.079
 4784SOL    HW116126   8.411   2.723   1.010
 4784SOL    HW216127   8.409   2.779   1.151
 4785SOL     OW16128   0.198  11.603   7.428
 4785SOL    HW116129   0.239  11.605   7.514
 4785SOL    HW216130   0.251  11.541   7.377
 4786SOL     OW16131  14.759   9.071  13.870
 4786SOL    HW116132  14.711   9.058  13.951
 4786SOL    HW216133  14.842   9.024  13.884
 4787SOL     OW16134   2.369  13.098   6.880
 4787SOL    HW116135   2.321  13.113   6.799
 4787SOL    HW216136   2.440  13.038   6.855
 4788SOL     OW16137   2.418   3.950   4.740
 4788SOL    HW116138   2.401   3.966   4.647
 4788SOL    HW216139   2.469   4.026   4.768
 4789SOL     OW16140  12.267   3.073   4.714
 4789SOL    HW116141  12.350   3.033   4.686
 4789SOL    HW216142  12.275   3.079   4.809
 4790SOL     OW16143   1.397   3.299  11.279
 4790SOL    HW116144   1.313   3.344  11.274
 4790SOL    HW216145   1.380   3.222  11.334
 4791SOL     OW16146   0.048   8.800  10.075
 4791SOL    HW116147  14.874   8.819  10.154
 4791SOL    HW216148   0.131   8.847  10.089
 4792SOL     OW16149  11.829   8.165  11.356
 4792SOL    HW116150  11.760   8.124  11.408
 4792SOL    HW216151  11.890   8.201  11.420
 4793SOL     OW16152   2.456   3.570  14.868
 4793SOL    HW116153   2.458   3.494   0.048
 4793SOL    HW216154   2.430   3.536  14.783
 4794SOL     OW16155   1.574  12.533  14.008
 4794SOL    HW116156   1.574  12.462  13.945
 4794SOL    HW216157   1.624  12.500  14.083
 4795SOL     OW16158   2.380   2.560  10.428
 4795SOL    HW116159   2.310   2.497  10.409
 4795SOL    HW216160   2.337   2.645  10.424
 4796SOL     OW16161  12.444   3.422   6.040
 4796SOL    HW116162  12.462   3.474   6.118
 4796SOL    HW216163  12.440   3.332   6.071
 4797SOL     OW16164   1.970   0.031  12.844
 4797SOL    HW116165   1.982  14.820  12.880
 4797SOL    HW216166   2.039   0.040  12.779
 4798SOL     OW16167   8.539   1.402  10.263
 4798SOL    HW116168   8.600   1.461  10.219
 4798SOL    HW216169   8.513   1.340  10.195
 4799SOL     OW16170  12.576  14.058   3.395
 4799SOL    HW116171  12.608  14.120   3.460
 4799SOL    HW216172  12.485  14.042   3.420
 4800SOL     OW16173   2.068   2.890   2.287
 4800SOL    HW116174   2.160   2.899   2.311
 4800SOL    HW216175   2.021   2.900   2.369
 4801SOL     OW16176  13.569  11.384   7.190
 4801SOL    HW116177  13.504  11.326   7.231
 4801SOL    HW216178  13.592  11.340   7.108
 4802SOL     OW16179  11.177  12.236  13.753
 4802SOL    HW116180  11.250  12.211  13.810
 4802SOL    HW216181  11.104  12.180  13.780
 4803SOL     OW16182   2.843   2.006  10.426
 4803SOL    HW116183   2.850   2.071  10.356
 4803SOL    HW216184   2.922   1.953  10.418
 4804SOL     OW16185  12.072   2.272  12.085
 4804SOL    HW116186  11.987   2.317  12.088
 4804SOL    HW216187  12.061   2.197  12.144
 4805SOL     OW16188   7.122   1.230   2.376
 4805SOL    HW116189   7.091   1.287   2.305
 4805SOL    HW216190   7.042   1.193   2.414
 4806SOL     OW16191   2.168  10.369  10.300
 4806SOL    HW116192   2.234  10.319  10.347
 4806SOL    HW216193   2.157  10.449  10.352
 4807SOL     OW16194  13.785   8.296   1.849
 4807SOL    HW116195  13.760   8.206   1.828
 4807SOL    HW216196  13.859   8.314   1.791
 4808SOL     OW16197   0.524  13.165  10.326
 4808SOL    HW116198   0.515  13.216  10.407
 4808SOL    HW216199   0.533  13.230  10.257
 4809SOL     OW16200   0.062  11.178   5.307
 4809SOL    HW116201   0.084  11.270   5.297
 4809SOL    HW216202   0.099  11.135   5.230
 4810SOL     OW16203  11.539   2.538   5.505
 4810SOL    HW116204  11.554   2.448   5.534
 4810SOL    HW216205  11.624   2.566   5.471
 4811SOL     OW16206   2.794   4.516   7.624
 4811SOL    HW116207   2.861   4.449   7.639
 4811SOL    HW216208   2.766   4.543   7.712
 4812SOL     OW16209   1.401   2.277   8.627
 4812SOL    HW116210   1.356   2.258   8.545
 4812SOL    HW216211   1.493   2.257   8.609
 4813SOL     OW16212  13.832  10.258   3.212
 4813SOL    HW116213  13.880  10.176   3.199
 4813SOL    HW216214  13.791  10.275   3.127
 4814SOL     OW16215   2.140   5.501   1.020
 4814SOL    HW116216   2.215   5.448   0.994
 4814SOL    HW216217   2.165   5.591   0.998
 4815SOL     OW16218   5.740  11.256   4.553
 4815SOL    HW116219   5.785  11.295   4.477
 4815SOL    HW216220   5.658  11.304   4.560
 4816SOL     OW16221  14.763   4.131   7.467
 4816SOL    HW116222  14.703   4.151   7.539
 4816SOL    HW216223  14.705   4.110   7.393
 4817SOL     OW16224   5.582   1.503   8.130
 4817SOL    HW116225   5.504   1.540   8.173
 4817SOL    HW216226   5.639   1.478   8.203
 4818SOL     OW16227  14.818  11.863   2.327
 4818SOL    HW116228  14.834  11.957   2.333
 4818SOL    HW216229  14.797  11.837   2.417
 4819SOL     OW16230   7.216   7.946   7.518
 4819SOL    HW116231   7.157   7.871   7.518
 4819SOL    HW216232   7.303   7.909   7.503
 4820SOL     OW16233   2.859   4.871   0.447
 4820SOL    HW116234   2.830   4.793   0.399
 4820SOL    HW216235   2.841   4.944   0.387
 4821SOL     OW16236   1.844  12.627  10.265
 4821SOL    HW116237   1.819  12.540  10.235
 4821SOL    HW216238   1.938  12.632  10.249
 4822SOL     OW16239   2.585   6.538   7.998
 4822SOL    HW116240   2.544   6.601   8.057
 4822SOL    HW216241   2.511   6.490   7.960
 4823SOL     OW16242   6.673  14.479   0.623
 4823SOL    HW116243   6.748  14.526   0.661
 4823SOL    HW216244   6.609  14.476   0.694
 4824SOL     OW16245   1.710   2.615  10.037
 4824SOL    HW116246   1.704   2.685  10.102
 4824SOL    HW216247   1.627   2.568  10.044
 4825SOL     OW16248   6.348  11.104  13.202
 4825SOL    HW116249   6.382  11.175  13.148
 4825SOL    HW216250   6.281  11.146  13.257
 4826SOL     OW16251   1.485  14.500   1.930
 4826SOL    HW116252   1.532  14.472   2.009
 4826SOL    HW216253   1.393  14.497   1.955
 4827SOL     OW16254   7.332   8.264   0.254
 4827SOL    HW116255   7.252   8.219   0.282
 4827SOL    HW216256   7.363   8.213   0.180
 4828SOL     OW16257   6.538   0.013  12.429
 4828SOL    HW116258   6.551   0.040  12.520
 4828SOL    HW216259   6.582   0.080  12.377
 4829SOL     OW16260  10.526  13.181   0.848
 4829SOL    HW116261  10.538  13.111   0.784
 4829SOL    HW216262  10.600  13.240   0.832
 4830SOL     OW16263   4.902  14.258  10.707
 4830SOL    HW116264   4.904  14.332  10.646
 4830SOL    HW216265   4.846  14.193  10.665
 4831SOL     OW16266   1.058  14.125   6.827
 4831SOL    HW116267   1.042  14.033   6.804
 4831SOL    HW216268   0.971  14.165   6.830
 4832SOL     OW16269   0.091   8.567   4.579
 4832SOL    HW116270   0.124   8.482   4.608
 4832SOL    HW216271   0.009   8.579   4.628
 4833SOL     OW16272   8.787  11.192  14.437
 4833SOL    HW116273   8.813  11.275  14.396
 4833SOL    HW216274   8.691  11.198  14.443
 4834SOL     OW16275   3.109   6.433   3.422
 4834SOL    HW116276   3.032   6.459   3.474
 4834SOL    HW216277   3.072   6.395   3.343
 4835SOL     OW16278  11.552   9.710   1.745
 4835SOL    HW116279  11.463   9.679   1.760
 4835SOL    HW216280  11.607   9.634   1.766
 4836SOL     OW16281   2.860   9.985  12.719
 4836SOL    HW116282   2.800   9.970  12.646
 4836SOL    HW216283   2.855  10.079  12.735
 4837SOL     OW16284   3.970   8.465  13.001
 4837SOL    HW116285   4.021   8.544  12.982
 4837SOL    HW216286   4.013   8.426  13.076
 4838SOL     OW16287   3.883   1.453   7.627
 4838SOL    HW116288   3.827   1.510   7.680
 4838SOL    HW216289   3.955   1.430   7.685
 4839SOL     OW16290   5.884  11.427   8.886
 4839SOL    HW116291   5.904  11.469   8.802
 4839SOL    HW216292   5.967  11.388   8.913
 4840SOL     OW16293   2.530   4.345   6.788
 4840SOL    HW116294   2.579   4.427   6.783
 4840SOL    HW216295   2.544   4.303   6.704
 4841SOL     OW16296   5.440  11.355   0.297
 4841SOL    HW116297   5.522  11.399   0.276
 4841SOL    HW216298   5.446  11.271   0.252
 4842SOL     OW16299   3.003   9.173   9.885
 4842SOL    HW116300   2.952   9.161   9.965
 4842SOL    HW216301   3.049   9.090   9.874
 4843SOL     OW16302   7.748   8.551   6.514
 4843SOL    HW116303   7.759   8.468   6.560
 4843SOL    HW216304   7.685   8.600   6.566
 4844SOL     OW16305   1.866   7.897   0.855
 4844SOL    HW116306   1.958   7.923   0.848
 4844SOL    HW216307   1.830   7.954   0.922
 4845SOL     OW16308  10.103   8.901   5.320
 4845SOL    HW116309  10.122   8.813   5.353
 4845SOL    HW216310  10.189   8.939   5.302
 4846SOL     OW16311   2.278   4.639   1.980
 4846SOL    HW116312   2.252   4.555   2.017
 4846SOL    HW216313   2.197   4.677   1.946
 4847SOL     OW16314   3.158   0.862   7.491
 4847SOL    HW116315   3.090   0.805   7.526
 4847SOL    HW216316   3.219   0.875   7.563
 4848SOL     OW16317  13.507   7.958   7.020
 4848SOL    HW116318  13.555   7.985   7.098
 4848SOL    HW216319  13.441   8.026   7.007
 4849SOL     OW16320  10.659   0.052  10.212
 4849SOL    HW116321  10.587   0.108  10.182
 4849SOL    HW216322  10.634   0.025  10.300
 4850SOL     OW16323   6.716  12.510  12.135
 4850SOL    HW116324   6.717  12.425  12.178
 4850SOL    HW216325   6.629  12.546  12.153
 4851SOL     OW16326   5.594  11.922   5.149
 4851SOL    HW116327   5.523  11.929   5.213
 4851SOL    HW216328   5.639  12.006   5.154
 4852SOL     OW16329   2.048   6.883  12.148
 4852SOL    HW116330   2.108   6.847  12.214
 4852SOL    HW216331   2.069   6.976  12.144
 4853SOL     OW16332   1.224  13.661  10.420
 4853SOL    HW116333   1.269  13.716  10.484
 4853SOL    HW216334   1.210  13.719  10.345
 4854SOL     OW16335   4.394  10.987  14.541
 4854SOL    HW116336   4.318  10.941  14.576
 4854SOL    HW216337   4.407  11.061  14.601
 4855SOL     OW16338   0.341   8.348   8.762
 4855SOL    HW116339   0.348   8.380   8.852
 4855SOL    HW216340   0.257   8.381   8.731
 4856SOL     OW16341  13.497   8.785  12.554
 4856SOL    HW116342  13.511   8.692  12.571
 4856SOL    HW216343  13.570   8.811  12.498
 4857SOL     OW16344  11.098   1.474   0.689
 4857SOL    HW116345  11.043   1.426   0.750
 4857SOL    HW216346  11.117   1.557   0.732
 4858SOL     OW16347   4.108  13.623  14.448
 4858SOL    HW116348   4.083  13.564  14.519
 4858SOL    HW216349   4.200  13.601  14.429
 4859SOL     OW16350   7.132  12.887   3.306
 4859SOL    HW116351   7.060  12.917   3.361
 4859SOL    HW216352   7.203  12.868   3.368
 4860SOL     OW16353   7.522   2.413   7.897
 4860SOL    HW116354   7.583   2.373   7.834
 4860SOL    HW216355   7.486   2.488   7.851
 4861SOL     OW16356   8.677   0.674   6.631
 4861SOL    HW116357   8.602   0.726   6.662
 4861SOL    HW216358   8.663   0.588   6.670
 4862SOL     OW16359   7.587   0.436   2.996
 4862SOL    HW116360   7.601   0.423   3.089
 4862SOL    HW216361   7.532   0.515   2.991
 4863SOL     OW16362  14.749   5.843   3.153
 4863SOL    HW116363  14.718   5.809   3.069
 4863SOL    HW216364  14.783   5.766   3.199
 4864SOL     OW16365  13.015   5.056   2.028
 4864SOL    HW116366  13.084   5.066   2.094
 4864SOL    HW216367  12.935   5.042   2.079
 4865SOL     OW16368  12.139  11.741  14.781
 4865SOL    HW116369  12.226  11.704  14.768
 4865SOL    HW216370  12.130  11.808  14.713
 4866SOL     OW16371  12.093  11.126   7.434
 4866SOL    HW116372  12.140  11.178   7.369
 4866SOL    HW216373  12.141  11.140   7.516
 4867SOL     OW16374   1.208  13.825   5.485
 4867SOL    HW116375   1.160  13.820   5.402
 4867SOL    HW216376   1.227  13.919   5.495
 4868SOL     OW16377   1.190   0.559  10.923
 4868SOL    HW116378   1.176   0.524  10.835
 4868SOL    HW216379   1.226   0.486  10.973
 4869SOL     OW16380  13.795   3.491   2.851
 4869SOL    HW116381  13.723   3.437   2.885
 4869SOL    HW216382  13.755   3.574   2.827
 4870SOL     OW16383   5.869   0.493   7.528
 4870SOL    HW116384   5.898   0.402   7.536
 4870SOL    HW216385   5.935   0.534   7.471
 4871SOL     OW16386   8.751   6.044  10.680
 4871SOL    HW116387   8.716   6.086  10.759
 4871SOL    HW216388   8.684   6.058  10.613
 4872SOL     OW16389  14.828  12.198   9.119
 4872SOL    HW116390  14.802  12.108   9.099
 4872SOL    HW216391  14.747  12.243   9.141
 4873SOL     OW16392   2.314   8.984   0.802
 4873SOL    HW116393   2.258   8.907   0.794
 4873SOL    HW216394   2.268   9.040   0.865
 4874SOL     OW16395   3.140  14.516   7.552
 4874SOL    HW116396   3.216  14.477   7.508
 4874SOL    HW216397   3.177  14.585   7.607
 4875SOL     OW16398  14.833  14.192  10.408
 4875SOL    HW116399  14.853  14.159  10.496
 4875SOL    HW216400   0.038  14.230  10.379
 4876SOL     OW16401   7.789   5.148   3.238
 4876SOL    HW116402   7.855   5.209   3.204
 4876SOL    HW216403   7.803   5.067   3.189
 4877SOL     OW16404  13.357  10.454  13.419
 4877SOL    HW116405  13.417  10.477  13.490
 4877SOL    HW216406  13.377  10.363  13.398
 4878SOL     OW16407  11.546  13.733   7.501
 4878SOL    HW116408  11.515  13.645   7.520
 4878SOL    HW216409  11.638  13.733   7.526
 4879SOL     OW16410  12.027  12.380  13.532
 4879SOL    HW116411  12.009  12.303  13.587
 4879SOL    HW216412  11.956  12.381  13.469
 4880SOL     OW16413   3.613  10.987   4.489
 4880SOL    HW116414   3.541  10.982   4.551
 4880SOL    HW216415   3.610  11.076   4.455
 4881SOL     OW16416   5.495  14.130   6.955
 4881SOL    HW116417   5.483  14.169   6.868
 4881SOL    HW216418   5.408  14.130   6.993
 4882SOL     OW16419   5.460   5.112   4.981
 4882SOL    HW116420   5.442   5.020   4.965
 4882SOL    HW216421   5.380   5.146   5.020
 4883SOL     OW16422   2.928   0.473  12.359
 4883SOL    HW116423   2.964   0.456  12.272
 4883SOL    HW216424   2.971   0.409  12.416
 4884SOL     OW16425   1.843  11.453   6.918
 4884SOL    HW116426   1.749  11.433   6.918
 4884SOL    HW216427   1.868  11.451   7.010
 4885SOL     OW16428   4.819   0.363   1.790
 4885SOL    HW116429   4.757   0.434   1.777
 4885SOL    HW216430   4.844   0.336   1.701
 4886SOL     OW16431  11.465  13.503   7.026
 4886SOL    HW116432  11.405  13.457   6.968
 4886SOL    HW216433  11.533  13.438   7.046
 4887SOL     OW16434   6.433   6.246   6.254
 4887SOL    HW116435   6.369   6.210   6.315
 4887SOL    HW216436   6.502   6.284   6.309
 4888SOL     OW16437   4.125   8.590   0.749
 4888SOL    HW116438   4.098   8.546   0.829
 4888SOL    HW216439   4.214   8.560   0.733
 4889SOL     OW16440   8.560  10.003   5.033
 4889SOL    HW116441   8.532   9.947   5.105
 4889SOL    HW216442   8.626   9.952   4.986
 4890SOL     OW16443  10.604   6.252   1.630
 4890SOL    HW116444  10.656   6.283   1.704
 4890SOL    HW216445  10.655   6.180   1.593
 4891SOL     OW16446   5.906  12.202  12.459
 4891SOL    HW116447   5.835  12.254  12.497
 4891SOL    HW216448   5.864  12.123  12.427
 4892SOL     OW16449   0.060   0.251  12.818
 4892SOL    HW116450   0.075   0.201  12.898
 4892SOL    HW216451  14.850   0.289  12.829
 4893SOL     OW16452   5.909   8.670   4.758
 4893SOL    HW116453   5.833   8.726   4.743
 4893SOL    HW216454   5.981   8.731   4.775
 4894SOL     OW16455   2.367   9.043  12.415
 4894SOL    HW116456   2.451   9.015  12.450
 4894SOL    HW216457   2.310   8.967  12.425
 4895SOL     OW16458   0.187  14.238   3.092
 4895SOL    HW116459   0.188  14.149   3.126
 4895SOL    HW216460   0.242  14.234   3.014
 4896SOL     OW16461   6.510  13.986  14.453
 4896SOL    HW116462   6.441  14.052  14.457
 4896SOL    HW216463   6.591  14.036  14.445
 4897SOL     OW16464   7.697  10.439   3.424
 4897SOL    HW116465   7.660  10.451   3.512
 4897SOL    HW216466   7.647  10.366   3.387
 4898SOL     OW16467  13.137   1.450  13.357
 4898SOL    HW116468  13.062   1.393  13.373
 4898SOL    HW216469  13.178   1.415  13.278
 4899SOL     OW16470  12.610  12.750  11.931
 4899SOL    HW116471  12.613  12.687  12.003
 4899SOL    HW216472  12.599  12.835  11.974
 4900SOL     OW16473   9.233   0.471   8.019
 4900SOL    HW116474   9.303   0.517   8.064
 4900SOL    HW216475   9.218   0.392   8.071
 4901SOL     OW16476   8.123  13.278   4.098
 4901SOL    HW116477   8.174  13.202   4.125
 4901SOL    HW216478   8.095  13.318   4.180
 4902SOL     OW16479  14.052   2.778  11.589
 4902SOL    HW116480  14.041   2.816  11.502
 4902SOL    HW216481  14.143   2.794  11.611
 4903SOL     OW16482   5.934  14.837   9.194
 4903SOL    HW116483   5.940   0.001   9.280
 4903SOL    HW216484   5.917  14.745   9.212
 4904SOL     OW16485   9.129   6.402   0.602
 4904SOL    HW116486   9.150   6.358   0.685
 4904SOL    HW216487   9.158   6.341   0.534
 4905SOL     OW16488  12.429   5.684   2.850
 4905SOL    HW116489  12.463   5.763   2.808
 4905SOL    HW216490  12.368   5.716   2.916
 4906SOL     OW16491   1.217   1.031  10.682
 4906SOL    HW116492   1.206   0.949  10.730
 4906SOL    HW216493   1.264   1.006  10.602
 4907SOL     OW16494  10.219   5.574  13.578
 4907SOL    HW116495  10.155   5.623  13.629
 4907SOL    HW216496  10.198   5.594  13.487
 4908SOL     OW16497   6.055   3.977  12.918
 4908SOL    HW116498   6.075   4.008  13.006
 4908SOL    HW216499   5.968   3.938  12.925
 4909SOL     OW16500  11.084   3.941   7.220
 4909SOL    HW116501  11.076   3.864   7.163
 4909SOL    HW216502  11.098   3.904   7.308
 4910SOL     OW16503   0.240   2.326   3.932
 4910SOL    HW116504   0.254   2.231   3.923
 4910SOL    HW216505   0.172   2.334   3.999
 4911SOL     OW16506   5.155  12.741   8.915
 4911SOL    HW116507   5.128  12.706   8.830
 4911SOL    HW216508   5.187  12.665   8.963
 4912SOL     OW16509  14.282   0.873   2.280
 4912SOL    HW116510  14.353   0.855   2.219
 4912SOL    HW216511  14.321   0.863   2.367
 4913SOL     OW16512   7.288   2.897  14.543
 4913SOL    HW116513   7.212   2.861  14.496
 4913SOL    HW216514   7.253   2.972  14.591
 4914SOL     OW16515   4.837   3.154   9.420
 4914SOL    HW116516   4.754   3.111   9.438
 4914SOL    HW216517   4.846   3.150   9.325
 4915SOL     OW16518   8.243  14.420   4.356
 4915SOL    HW116519   8.234  14.333   4.396
 4915SOL    HW216520   8.268  14.402   4.265
 4916SOL     OW16521  10.870   7.836   3.578
 4916SOL    HW116522  10.904   7.907   3.524
 4916SOL    HW216523  10.799   7.799   3.526
 4917SOL     OW16524   5.362  10.094   8.815
 4917SOL    HW116525   5.266  10.091   8.813
 4917SOL    HW216526   5.383  10.121   8.904
 4918SOL     OW16527   7.416   3.102   4.250
 4918SOL    HW116528   7.434   3.165   4.181
 4918SOL    HW216529   7.473   3.129   4.322
 4919SOL     OW16530  13.563   5.795  10.145
 4919SOL    HW116531  13.567   5.710  10.189
 4919SOL    HW216532  13.561   5.774  10.051
 4920SOL     OW16533  13.455   6.471   0.183
 4920SOL    HW116534  13.449   6.495   0.090
 4920SOL    HW216535  13.549   6.473   0.202
 4921SOL     OW16536   9.301   8.573   0.657
 4921SOL    HW116537   9.298   8.572   0.562
 4921SOL    HW216538   9.346   8.492   0.681
 4922SOL     OW16539  10.732  12.149  13.362
 4922SOL    HW116540  10.646  12.140  13.322
 4922SOL    HW216541  10.790  12.098  13.305
 4923SOL     OW16542   9.984   5.203  13.978
 4923SOL    HW116543   9.974   5.266  13.907
 4923SOL    HW216544   9.938   5.243  14.052
 4924SOL     OW16545   4.672   0.759   7.728
 4924SOL    HW116546   4.590   0.713   7.741
 4924SOL    HW216547   4.655   0.819   7.656
 4925SOL     OW16548   4.276  14.476  13.426
 4925SOL    HW116549   4.324  14.539  13.480
 4925SOL    HW216550   4.343  14.438  13.369
 4926SOL     OW16551   4.150  10.062   3.643
 4926SOL    HW116552   4.238  10.067   3.679
 4926SOL    HW216553   4.113  10.149   3.656
 4927SOL     OW16554  12.207   7.320   7.106
 4927SOL    HW116555  12.295   7.284   7.123
 4927SOL    HW216556  12.222   7.414   7.092
 4928SOL     OW16557   5.641   0.747   0.001
 4928SOL    HW116558   5.577   0.763  14.809
 4928SOL    HW216559   5.607   0.670   0.047
 4929SOL     OW16560   1.972   3.396  10.700
 4929SOL    HW116561   1.965   3.333  10.628
 4929SOL    HW216562   1.883   3.432  10.709
 4930SOL     OW16563   7.208   4.057   2.154
 4930SOL    HW116564   7.267   4.010   2.212
 4930SOL    HW216565   7.253   4.139   2.135
 4931SOL     OW16566   3.209  13.959   0.196
 4931SOL    HW116567   3.119  13.989   0.181
 4931SOL    HW216568   3.206  13.920   0.284
 4932SOL     OW16569   4.507   6.276   9.866
 4932SOL    HW116570   4.450   6.334   9.917
 4932SOL    HW216571   4.572   6.335   9.828
 4933SOL     OW16572   7.943   3.413  12.646
 4933SOL    HW116573   7.918   3.395  12.556
 4933SOL    HW216574   7.883   3.481  12.675
 4934SOL     OW16575   2.746   1.470  11.241
 4934SOL    HW116576   2.663   1.427  11.217
 4934SOL    HW216577   2.814   1.409  11.212
 4935SOL     OW16578   7.277   5.365   0.755
 4935SOL    HW116579   7.229   5.447   0.753
 4935SOL    HW216580   7.259   5.330   0.843
 4936SOL     OW16581   3.880   1.944   0.794
 4936SOL    HW116582   3.825   2.022   0.786
 4936SOL    HW216583   3.843   1.883   0.730
 4937SOL     OW16584   1.966   2.228  13.473
 4937SOL    HW116585   2.001   2.317  13.476
 4937SOL    HW216586   1.985   2.199  13.384
 4938SOL     OW16587   2.049   6.036   0.370
 4938SOL    HW116588   1.984   6.029   0.440
 4938SOL    HW216589   2.130   6.060   0.415
 4939SOL     OW16590   4.638   2.821   2.053
 4939SOL    HW116591   4.721   2.855   2.022
 4939SOL    HW216592   4.589   2.801   1.973
 4940SOL     OW16593   1.057   5.713   2.184
 4940SOL    HW116594   1.130   5.701   2.123
 4940SOL    HW216595   0.978   5.701   2.131
 4941SOL     OW16596  11.420   6.656  13.472
 4941SOL    HW116597  11.460   6.731  13.515
 4941SOL    HW216598  11.473   6.581  13.500
 4942SOL     OW16599   7.719   4.000  14.572
 4942SOL    HW116600   7.690   3.918  14.532
 4942SOL    HW216601   7.721   3.982  14.666
 4943SOL     OW16602  14.154   7.880   8.374
 4943SOL    HW116603  14.247   7.895   8.361
 4943SOL    HW216604  14.127   7.944   8.439
 4944SOL     OW16605  10.505  11.882  10.023
 4944SOL    HW116606  10.509  11.849   9.933
 4944SOL    HW216607  10.580  11.941  10.031
 4945SOL     OW16608   8.147  12.724   6.507
 4945SOL    HW116609   8.207  12.651   6.521
 4945SOL    HW216610   8.201  12.791   6.466
 4946SOL     OW16611   2.824  11.106   8.188
 4946SOL    HW116612   2.771  11.027   8.198
 4946SOL    HW216613   2.843  11.134   8.278
 4947SOL     OW16614   4.820   5.179  10.284
 4947SOL    HW116615   4.912   5.203  10.278
 4947SOL    HW216616   4.790   5.219  10.366
 4948SOL     OW16617  11.017   9.001   3.695
 4948SOL    HW116618  10.928   8.968   3.687
 4948SOL    HW216619  11.069   8.925   3.719
 4949SOL     OW16620  11.875   7.425   3.551
 4949SOL    HW116621  11.823   7.348   3.572
 4949SOL    HW216622  11.965   7.397   3.568
 4950SOL     OW16623   0.095  14.382   8.566
 4950SOL    HW116624   0.042  14.304   8.551
 4950SOL    HW216625   0.156  14.357   8.635
 4951SOL     OW16626  13.483  11.195  11.315
 4951SOL    HW116627  13.570  11.229  11.338
 4951SOL    HW216628  13.500  11.132  11.245
 4952SOL     OW16629   1.128   0.992   2.391
 4952SOL    HW116630   1.115   0.924   2.324
 4952SOL    HW216631   1.222   1.008   2.392
 4953SOL     OW16632   3.907  13.167   9.268
 4953SOL    HW116633   3.903  13.210   9.183
 4953SOL    HW216634   3.996  13.133   9.274
 4954SOL     OW16635  13.228  14.694   1.832
 4954SOL    HW116636  13.145  14.727   1.865
 4954SOL    HW216637  13.292  14.721   1.898
 4955SOL     OW16638   8.496   4.689   3.176
 4955SOL    HW116639   8.503   4.600   3.141
 4955SOL    HW216640   8.479   4.744   3.100
 4956SOL     OW16641   2.853   8.841   6.460
 4956SOL    HW116642   2.840   8.899   6.535
 4956SOL    HW216643   2.918   8.778   6.490
 4957SOL     OW16644   8.358   8.441   6.721
 4957SOL    HW116645   8.447   8.462   6.746
 4957SOL    HW216646   8.323   8.523   6.684
 4958SOL     OW16647  11.310   5.160   6.600
 4958SOL    HW116648  11.231   5.122   6.563
 4958SOL    HW216649  11.291   5.171   6.693
 4959SOL     OW16650  13.279   0.132  10.257
 4959SOL    HW116651  13.214   0.062  10.248
 4959SOL    HW216652  13.280   0.152  10.350
 4960SOL     OW16653  14.500   4.376   8.054
 4960SOL    HW116654  14.561   4.366   8.127
 4960SOL    HW216655  14.514   4.297   8.001
 4961SOL     OW16656  14.231  10.901   6.635
 4961SOL    HW116657  14.259  10.845   6.706
 4961SOL    HW216658  14.174  10.846   6.581
 4962SOL     OW16659   4.760   5.007   9.093
 4962SOL    HW116660   4.819   4.975   9.025
 4962SOL    HW216661   4.766   4.942   9.163
 4963SOL     OW16662   2.459  10.973   0.146
 4963SOL    HW116663   2.434  11.037   0.213
 4963SOL    HW216664   2.416  11.004   0.066
 4964SOL     OW16665   4.582   4.207   4.881
 4964SOL    HW116666   4.626   4.291   4.894
 4964SOL    HW216667   4.652   4.146   4.857
 4965SOL     OW16668  12.873   0.765   4.992
 4965SOL    HW116669  12.938   0.748   5.060
 4965SOL    HW216670  12.789   0.743   5.032
 4966SOL     OW16671   3.199   0.609  11.340
 4966SOL    HW116672   3.168   0.698  11.354
 4966SOL    HW216673   3.258   0.614  11.266
 4967SOL     OW16674   3.022   6.622   6.983
 4967SOL    HW116675   2.927   6.628   6.980
 4967SOL    HW216676   3.053   6.702   6.940
 4968SOL     OW16677   1.839   8.382   3.731
 4968SOL    HW116678   1.868   8.467   3.764
 4968SOL    HW216679   1.914   8.324   3.740
 4969SOL     OW16680   7.583  12.965   1.030
 4969SOL    HW116681   7.547  12.888   0.986
 4969SOL    HW216682   7.527  13.037   1.002
 4970SOL     OW16683   4.035   2.172  14.779
 4970SOL    HW116684   3.991   2.150  14.696
 4970SOL    HW216685   4.093   2.097  14.796
 4971SOL     OW16686   9.023   3.836  11.799
 4971SOL    HW116687   9.054   3.789  11.721
 4971SOL    HW216688   9.061   3.924  11.790
 4972SOL     OW16689  14.711  10.092   5.453
 4972SOL    HW116690  14.629  10.052   5.482
 4972SOL    HW216691  14.773  10.071   5.523
 4973SOL     OW16692   0.155   6.258  11.519
 4973SOL    HW116693   0.067   6.255  11.559
 4973SOL    HW216694   0.174   6.351  11.511
 4974SOL     OW16695  14.293  10.363   3.844
 4974SOL    HW116696  14.257  10.396   3.926
 4974SOL    HW216697  14.340  10.284   3.869
 4975SOL     OW16698   5.899   5.456   8.028
 4975SOL    HW116699   5.924   5.376   8.075
 4975SOL    HW216700   5.859   5.425   7.948
 4976SOL     OW16701   7.101   2.365   7.090
 4976SOL    HW116702   7.135   2.437   7.037
 4976SOL    HW216703   7.168   2.297   7.084
 4977SOL     OW16704   3.746   7.317   5.082
 4977SOL    HW116705   3.806   7.363   5.141
 4977SOL    HW216706   3.785   7.327   4.995
 4978SOL     OW16707  13.610   8.440   8.173
 4978SOL    HW116708  13.534   8.495   8.152
 4978SOL    HW216709  13.675   8.463   8.107
 4979SOL     OW16710   1.442   5.823   3.399
 4979SOL    HW116711   1.487   5.904   3.375
 4979SOL    HW216712   1.444   5.770   3.319
 4980SOL     OW16713  14.674  14.660   6.817
 4980SOL    HW116714  14.735  14.733   6.830
 4980SOL    HW216715  14.683  14.638   6.724
 4981SOL     OW16716   5.537   1.718   6.715
 4981SOL    HW116717   5.633   1.721   6.723
 4981SOL    HW216718   5.511   1.810   6.711
 4982SOL     OW16719   7.427   6.670   2.441
 4982SOL    HW116720   7.356   6.653   2.379
 4982SOL    HW216721   7.401   6.623   2.520
 4983SOL     OW16722   4.181   0.888   8.826
 4983SOL    HW116723   4.116   0.942   8.870
 4983SOL    HW216724   4.178   0.918   8.735
 4984SOL     OW16725   1.203  14.636   5.611
 4984SOL    HW116726   1.142  14.565   5.589
 4984SOL    HW216727   1.289  14.604   5.584
 4985SOL     OW16728   7.775   2.117   2.989
 4985SOL    HW116729   7.791   2.064   2.912
 4985SOL    HW216730   7.840   2.087   3.053
 4986SOL     OW16731   6.166   7.940   4.499
 4986SOL    HW116732   6.181   7.920   4.407
 4986SOL    HW216733   6.252   7.938   4.539
 4987SOL     OW16734   5.381  13.440   5.291
 4987SOL    HW116735   5.296  13.415   5.327
 4987SOL    HW216736   5.380  13.407   5.201
 4988SOL     OW16737   4.671  10.018   4.692
 4988SOL    HW116738   4.597  10.023   4.632
 4988SOL    HW216739   4.646  10.073   4.766
 4989SOL     OW16740  11.935   8.749   7.421
 4989SOL    HW116741  11.896   8.665   7.444
 4989SOL    HW216742  11.904   8.809   7.489
 4990SOL     OW16743   3.011   3.525   8.875
 4990SOL    HW116744   3.018   3.440   8.832
 4990SOL    HW216745   2.947   3.511   8.945
 4991SOL     OW16746   1.221   2.170   1.699
 4991SOL    HW116747   1.140   2.195   1.744
 4991SOL    HW216748   1.234   2.078   1.721
 4992SOL     OW16749   4.025   2.053   9.840
 4992SOL    HW116750   4.089   2.123   9.847
 4992SOL    HW216751   4.020   2.016   9.928
 4993SOL     OW16752  12.325  13.239   4.142
 4993SOL    HW116753  12.258  13.216   4.206
 4993SOL    HW216754  12.283  13.304   4.086
 4994SOL     OW16755   6.773  13.501  10.401
 4994SOL    HW116756   6.737  13.416  10.375
 4994SOL    HW216757   6.857  13.480  10.442
 4995SOL     OW16758   2.225   1.847   7.648
 4995SOL    HW116759   2.320   1.839   7.635
 4995SOL    HW216760   2.206   1.939   7.630
 4996SOL     OW16761   4.239  10.254  12.635
 4996SOL    HW116762   4.289  10.180  12.671
 4996SOL    HW216763   4.241  10.320  12.705
 4997SOL     OW16764  11.379   4.661   6.133
 4997SOL    HW116765  11.428   4.677   6.052
 4997SOL    HW216766  11.447   4.652   6.200
 4998SOL     OW16767  13.635   0.768  12.701
 4998SOL    HW116768  13.717   0.724  12.679
 4998SOL    HW216769  13.644   0.793  12.793
 4999SOL     OW16770  13.795   0.523  11.603
 4999SOL    HW116771  13.787   0.455  11.536
 4999SOL    HW216772  13.841   0.594  11.560
 5000SOL     OW16773   1.765   4.334  10.743
 5000SOL    HW116774   1.750   4.243  10.765
 5000SOL    HW216775   1.844   4.333  10.687
 5001SOL     OW16776   9.324   8.586  10.907
 5001SOL    HW116777   9.323   8.595  11.002
 5001SOL    HW216778   9.258   8.519  10.889
 5002SOL     OW16779   8.107   2.726   8.540
 5002SOL    HW116780   8.067   2.777   8.611
 5002SOL    HW216781   8.048   2.737   8.466
 5003SOL     OW16782  12.390   7.950  13.849
 5003SOL    HW116783  12.465   7.984  13.801
 5003SOL    HW216784  12.344   8.028  13.879
 5004SOL     OW16785  13.004   1.519   7.265
 5004SOL    HW116786  12.998   1.590   7.201
 5004SOL    HW216787  12.955   1.551   7.341
 5005SOL     OW16788   2.679  14.177  12.411
 5005SOL    HW116789   2.651  14.091  12.443
 5005SOL    HW216790   2.672  14.170  12.316
 5006SOL     OW16791   9.710   7.780   5.114
 5006SOL    HW116792   9.653   7.856   5.101
 5006SOL    HW216793   9.668   7.710   5.063
 5007SOL     OW16794   3.882   7.261  12.866
 5007SOL    HW116795   3.876   7.289  12.775
 5007SOL    HW216796   3.848   7.335  12.916
 5008SOL     OW16797  11.433   7.016   5.318
 5008SOL    HW116798  11.495   7.055   5.380
 5008SOL    HW216799  11.441   6.922   5.332
 5009SOL     OW16800   0.752   8.428   6.251
 5009SOL    HW116801   0.735   8.335   6.237
 5009SOL    HW216802   0.718   8.445   6.339
 5010SOL     OW16803  10.704   6.765  14.021
 5010SOL    HW116804  10.608   6.764  14.010
 5010SOL    HW216805  10.718   6.819  14.098
 5011SOL     OW16806  10.918  14.672  14.368
 5011SOL    HW116807  10.882  14.756  14.341
 5011SOL    HW216808  10.958  14.637  14.288
 5012SOL     OW16809   6.715   7.122   1.233
 5012SOL    HW116810   6.643   7.124   1.296
 5012SOL    HW216811   6.755   7.036   1.246
 5013SOL     OW16812   7.108  11.334   6.545
 5013SOL    HW116813   7.030  11.284   6.519
 5013SOL    HW216814   7.160  11.342   6.465
 5014SOL     OW16815  14.378   5.257   2.330
 5014SOL    HW116816  14.449   5.279   2.270
 5014SOL    HW216817  14.298   5.282   2.283
 5015SOL     OW16818   6.547   5.901   9.530
 5015SOL    HW116819   6.579   5.876   9.443
 5015SOL    HW216820   6.510   5.820   9.566
 5016SOL     OW16821   1.776  10.462   2.892
 5016SOL    HW116822   1.835  10.451   2.966
 5016SOL    HW216823   1.793  10.551   2.861
 5017SOL     OW16824   2.389   1.168   0.035
 5017SOL    HW116825   2.393   1.195  14.820
 5017SOL    HW216826   2.469   1.203   0.073
 5018SOL     OW16827  11.370   9.528   0.061
 5018SOL    HW116828  11.355   9.435   0.044
 5018SOL    HW216829  11.290   9.571   0.030
 5019SOL     OW16830   2.350  10.438   7.096
 5019SOL    HW116831   2.310  10.379   7.033
 5019SOL    HW216832   2.300  10.426   7.177
 5020SOL     OW16833  11.545  10.463  10.197
 5020SOL    HW116834  11.608  10.521  10.154
 5020SOL    HW216835  11.460  10.501  10.177
 5021SOL     OW16836   1.333   4.519  14.525
 5021SOL    HW116837   1.385   4.480  14.596
 5021SOL    HW216838   1.397   4.542  14.458
 5022SOL     OW16839   8.824   6.900  12.457
 5022SOL    HW116840   8.789   6.966  12.397
 5022SOL    HW216841   8.820   6.941  12.543
 5023SOL     OW16842   6.799   5.252   8.431
 5023SOL    HW116843   6.796   5.331   8.485
 5023SOL    HW216844   6.874   5.265   8.374
 5024SOL     OW16845   7.486   5.591  14.526
 5024SOL    HW116846   7.409   5.560  14.479
 5024SOL    HW216847   7.483   5.545  14.610
 5025SOL     OW16848  11.945  14.218   9.230
 5025SOL    HW116849  11.965  14.254   9.143
 5025SOL    HW216850  11.859  14.177   9.219
 5026SOL     OW16851  12.484   1.436  10.505
 5026SOL    HW116852  12.479   1.479  10.590
 5026SOL    HW216853  12.570   1.461  10.470
 5027SOL     OW16854   0.706   0.339   0.804
 5027SOL    HW116855   0.646   0.329   0.878
 5027SOL    HW216856   0.756   0.418   0.825
 5028SOL     OW16857   6.204  14.877  10.846
 5028SOL    HW116858   6.114   0.016  10.874
 5028SOL    HW216859   6.201   0.005  10.750
 5029SOL     OW16860   7.646   7.290   9.051
 5029SOL    HW116861   7.723   7.244   9.086
 5029SOL    HW216862   7.628   7.359   9.115
 5030SOL     OW16863   6.038   9.595   7.274
 5030SOL    HW116864   6.040   9.662   7.205
 5030SOL    HW216865   6.110   9.536   7.252
 5031SOL     OW16866   6.813   0.930  13.454
 5031SOL    HW116867   6.832   0.936  13.360
 5031SOL    HW216868   6.754   1.004  13.471
 5032SOL     OW16869   3.208   3.542   3.507
 5032SOL    HW116870   3.250   3.502   3.431
 5032SOL    HW216871   3.164   3.469   3.551
 5033SOL     OW16872  14.757   9.841   7.625
 5033SOL    HW116873  14.671   9.870   7.596
 5033SOL    HW216874  14.800   9.811   7.544
 5034SOL     OW16875   3.854   9.040   4.242
 5034SOL    HW116876   3.821   8.961   4.198
 5034SOL    HW216877   3.944   9.050   4.211
 5035SOL     OW16878  11.795  12.729   0.385
 5035SOL    HW116879  11.825  12.645   0.350
 5035SOL    HW216880  11.833  12.795   0.327
 5036SOL     OW16881  11.256   8.654  14.561
 5036SOL    HW116882  11.174   8.604  14.566
 5036SOL    HW216883  11.262   8.698  14.646
 5037SOL     OW16884   6.039  14.038   7.742
 5037SOL    HW116885   5.950  14.017   7.714
 5037SOL    HW216886   6.078  14.081   7.666
 5038SOL     OW16887   6.783   6.681  12.811
 5038SOL    HW116888   6.865   6.721  12.784
 5038SOL    HW216889   6.715   6.737  12.772
 5039SOL     OW16890  14.695  10.325   7.138
 5039SOL    HW116891  14.654  10.333   7.225
 5039SOL    HW216892  14.693  10.231   7.120
 5040SOL     OW16893   2.143  10.072   1.115
 5040SOL    HW116894   2.093  10.079   1.034
 5040SOL    HW216895   2.113  10.147   1.167
 5041SOL     OW16896   0.657  14.582  10.336
 5041SOL    HW116897   0.650  14.532  10.255
 5041SOL    HW216898   0.724  14.648  10.318
 5042SOL     OW16899  13.284   6.949   8.055
 5042SOL    HW116900  13.277   7.042   8.076
 5042SOL    HW216901  13.225   6.936   7.981
 5043SOL     OW16902   1.573  10.152   5.938
 5043SOL    HW116903   1.595  10.177   5.849
 5043SOL    HW216904   1.506  10.085   5.929
 5044SOL     OW16905   4.719   4.868   7.356
 5044SOL    HW116906   4.711   4.924   7.433
 5044SOL    HW216907   4.795   4.813   7.374
 5045SOL     OW16908  14.441   5.078   2.807
 5045SOL    HW116909  14.432   5.004   2.747
 5045SOL    HW216910  14.400   5.047   2.889
 5046SOL     OW16911   2.210   1.726  13.874
 5046SOL    HW116912   2.299   1.756  13.856
 5046SOL    HW216913   2.207   1.714  13.969
 5047SOL     OW16914  14.626  10.551   8.882
 5047SOL    HW116915  14.632  10.640   8.916
 5047SOL    HW216916  14.539  10.546   8.843
 5048SOL     OW16917   6.117   2.673   1.037
 5048SOL    HW116918   6.155   2.721   1.111
 5048SOL    HW216919   6.054   2.735   0.999
 5049SOL     OW16920   1.625   0.532   9.774
 5049SOL    HW116921   1.716   0.511   9.752
 5049SOL    HW216922   1.628   0.621   9.808
 5050SOL     OW16923   5.931  11.206   7.728
 5050SOL    HW116924   5.935  11.269   7.800
 5050SOL    HW216925   5.942  11.121   7.770
 5051SOL     OW16926   2.960  10.785   0.458
 5051SOL    HW116927   3.002  10.870   0.445
 5051SOL    HW216928   2.943  10.752   0.370
 5052SOL     OW16929   1.079  13.355   0.279
 5052SOL    HW116930   1.136  13.406   0.336
 5052SOL    HW216931   1.138  13.323   0.210
 5053SOL     OW16932   1.209  11.986  10.373
 5053SOL    HW116933   1.138  12.026  10.323
 5053SOL    HW216934   1.187  11.893  10.375
 5054SOL     OW16935   8.439   4.865  11.958
 5054SOL    HW116936   8.352   4.884  11.994
 5054SOL    HW216937   8.432   4.776  11.925
 5055SOL     OW16938   1.888   8.504   1.400
 5055SOL    HW116939   1.848   8.545   1.477
 5055SOL    HW216940   1.850   8.553   1.326
 5056SOL     OW16941   9.399  11.556   5.972
 5056SOL    HW116942   9.433  11.522   6.055
 5056SOL    HW216943   9.421  11.650   5.975
 5057SOL     OW16944   0.724   5.469   3.767
 5057SOL    HW116945   0.785   5.398   3.788
 5057SOL    HW216946   0.758   5.545   3.815
 5058SOL     OW16947   3.420   0.968   2.585
 5058SOL    HW116948   3.483   1.039   2.598
 5058SOL    HW216949   3.447   0.901   2.648
 5059SOL     OW16950  12.024   6.498   5.434
 5059SOL    HW116951  12.082   6.572   5.419
 5059SOL    HW216952  12.040   6.472   5.525
 5060SOL     OW16953   8.959   0.144   0.889
 5060SOL    HW116954   9.035   0.155   0.832
 5060SOL    HW216955   8.944   0.050   0.892
 5061SOL     OW16956   1.783  10.040  14.847
 5061SOL    HW116957   1.830   9.978  14.790
 5061SOL    HW216958   1.693  10.009  14.848
 5062SOL     OW16959   6.048   3.028   1.070
 5062SOL    HW116960   6.123   2.993   1.118
 5062SOL    HW216961   5.974   2.976   1.101
 5063SOL     OW16962  12.040  13.196   2.294
 5063SOL    HW116963  12.061  13.111   2.255
 5063SOL    HW216964  11.989  13.242   2.227
 5064SOL     OW16965  10.447   0.037  14.232
 5064SOL    HW116966  10.520  14.858  14.206
 5064SOL    HW216967  10.372  14.855  14.239
 5065SOL     OW16968  14.063   6.974   2.725
 5065SOL    HW116969  14.080   6.915   2.651
 5065SOL    HW216970  14.032   7.055   2.685
 5066SOL     OW16971   5.807   5.481   0.490
 5066SOL    HW116972   5.863   5.417   0.445
 5066SOL    HW216973   5.827   5.469   0.583
 5067SOL     OW16974   6.957   8.529   0.333
 5067SOL    HW116975   6.965   8.519   0.238
 5067SOL    HW216976   7.047   8.530   0.365
 5068SOL     OW16977   6.945   3.618   5.619
 5068SOL    HW116978   6.883   3.673   5.667
 5068SOL    HW216979   6.900   3.533   5.612
 5069SOL     OW16980  14.022   3.852   1.286
 5069SOL    HW116981  14.037   3.943   1.262
 5069SOL    HW216982  14.040   3.849   1.380
 5070SOL     OW16983   4.920  11.492   6.530
 5070SOL    HW116984   4.925  11.587   6.539
 5070SOL    HW216985   4.916  11.477   6.436
 5071SOL     OW16986   3.801   4.096   7.288
 5071SOL    HW116987   3.740   4.152   7.337
 5071SOL    HW216988   3.769   4.101   7.197
 5072SOL     OW16989  13.812   7.876   2.193
 5072SOL    HW116990  13.831   7.785   2.217
 5072SOL    HW216991  13.852   7.886   2.107
 5073SOL     OW16992   2.265   1.406  13.524
 5073SOL    HW116993   2.349   1.442  13.553
 5073SOL    HW216994   2.276   1.311  13.530
 5074SOL     OW16995   4.551  13.455  12.999
 5074SOL    HW116996   4.565  13.382  13.059
 5074SOL    HW216997   4.635  13.467  12.955
 5075SOL     OW16998  14.402   4.099   0.697
 5075SOL    HW116999  14.424   4.169   0.758
 5075SOL    HW217000  14.459   4.114   0.622
 5076SOL     OW17001  13.675   8.233   5.447
 5076SOL    HW117002  13.589   8.259   5.413
 5076SOL    HW217003  13.737   8.257   5.378
 5077SOL     OW17004   2.427   3.219  12.393
 5077SOL    HW117005   2.471   3.150  12.443
 5077SOL    HW217006   2.334   3.210  12.416
 5078SOL     OW17007  10.855  13.273  13.893
 5078SOL    HW117008  10.840  13.314  13.808
 5078SOL    HW217009  10.774  13.225  13.912
 5079SOL     OW17010  13.144  13.972   3.446
 5079SOL    HW117011  13.195  14.053   3.441
 5079SOL    HW217012  13.206  13.906   3.477
 5080SOL     OW17013  12.996   1.380   8.310
 5080SOL    HW117014  12.999   1.392   8.215
 5080SOL    HW217015  12.903   1.370   8.330
 5081SOL     OW17016   3.057   3.193   1.555
 5081SOL    HW117017   2.970   3.177   1.518
 5081SOL    HW217018   3.052   3.281   1.591
 5082SOL     OW17019   1.637   1.944   0.548
 5082SOL    HW117020   1.680   1.863   0.576
 5082SOL    HW217021   1.627   1.995   0.629
 5083SOL     OW17022   5.964   4.676   0.874
 5083SOL    HW117023   6.027   4.706   0.939
 5083SOL    HW217024   6.013   4.672   0.792
 5084SOL     OW17025  14.345  12.488  13.176
 5084SOL    HW117026  14.254  12.513  13.195
 5084SOL    HW217027  14.363  12.525  13.090
 5085SOL     OW17028  14.523   5.883   1.858
 5085SOL    HW117029  14.555   5.938   1.786
 5085SOL    HW217030  14.581   5.904   1.931
 5086SOL     OW17031  13.373   0.791  14.869
 5086SOL    HW117032  13.353   0.874  14.827
 5086SOL    HW217033  13.296   0.736  14.852
 5087SOL     OW17034  14.633   4.982  12.693
 5087SOL    HW117035  14.614   4.958  12.602
 5087SOL    HW217036  14.549   5.011  12.729
 5088SOL     OW17037   5.385   6.776   8.284
 5088SOL    HW117038   5.339   6.792   8.201
 5088SOL    HW217039   5.459   6.837   8.282
 5089SOL     OW17040   4.301   7.910   0.831
 5089SOL    HW117041   4.214   7.923   0.870
 5089SOL    HW217042   4.323   7.995   0.793
 5090SOL     OW17043   0.129  10.234   0.023
 5090SOL    HW117044   0.171  10.320   0.020
 5090SOL    HW217045   0.198  10.175   0.053
 5091SOL     OW17046   7.177   3.659   8.866
 5091SOL    HW117047   7.222   3.575   8.872
 5091SOL    HW217048   7.192   3.688   8.776
 5092SOL     OW17049  14.050  11.784   1.018
 5092SOL    HW117050  13.958  11.760   1.012
 5092SOL    HW217051  14.095  11.702   1.040
 5093SOL     OW17052   1.837  14.166   6.379
 5093SOL    HW117053   1.866  14.221   6.452
 5093SOL    HW217054   1.883  14.202   6.303
 5094SOL     OW17055  10.647  12.250   1.999
 5094SOL    HW117056  10.720  12.311   2.002
 5094SOL    HW217057  10.593  12.282   1.926
 5095SOL     OW17058   9.109  10.877   5.575
 5095SOL    HW117059   9.138  10.934   5.504
 5095SOL    HW217060   9.016  10.862   5.558
 5096SOL     OW17061  12.634  10.952  11.551
 5096SOL    HW117062  12.572  10.992  11.490
 5096SOL    HW217063  12.638  10.860  11.525
 5097SOL     OW17064   2.904  14.706  12.822
 5097SOL    HW117065   2.880  14.762  12.748
 5097SOL    HW217066   2.823  14.694  12.871
 5098SOL     OW17067  13.634  14.707   7.090
 5098SOL    HW117068  13.671  14.794   7.076
 5098SOL    HW217069  13.543  14.714   7.061
 5099SOL     OW17070  13.111  10.564   8.722
 5099SOL    HW117071  13.090  10.649   8.684
 5099SOL    HW217072  13.206  10.567   8.738
 5100SOL     OW17073   1.099   0.557  10.466
 5100SOL    HW117074   1.086   0.492  10.535
 5100SOL    HW217075   1.130   0.506  10.391
 5101SOL     OW17076   5.858   7.195   2.136
 5101SOL    HW117077   5.770   7.183   2.101
 5101SOL    HW217078   5.915   7.147   2.076
 5102SOL     OW17079   2.445   9.184  10.446
 5102SOL    HW117080   2.489   9.216  10.367
 5102SOL    HW217081   2.386   9.116  10.413
 5103SOL     OW17082  11.634  13.530   7.286
 5103SOL    HW117083  11.591  13.469   7.346
 5103SOL    HW217084  11.573  13.604   7.279
 5104SOL     OW17085   1.074   2.200   4.658
 5104SOL    HW117086   1.122   2.212   4.576
 5104SOL    HW217087   0.990   2.163   4.632
 5105SOL     OW17088   2.873   5.224   7.350
 5105SOL    HW117089   2.861   5.309   7.307
 5105SOL    HW217090   2.967   5.218   7.366
 5106SOL     OW17091  12.494   5.549  11.747
 5106SOL    HW117092  12.436   5.582  11.679
 5106SOL    HW217093  12.485   5.611  11.819
 5107SOL     OW17094   6.643  12.075  13.090
 5107SOL    HW117095   6.602  12.080  13.004
 5107SOL    HW217096   6.576  12.108  13.151
 5108SOL     OW17097  14.358  11.502  11.631
 5108SOL    HW117098  14.395  11.583  11.665
 5108SOL    HW217099  14.276  11.530  11.588
 5109SOL     OW17100   9.632   6.825   1.610
 5109SOL    HW117101   9.581   6.830   1.529
 5109SOL    HW217102   9.705   6.885   1.597
 5110SOL     OW17103   1.004  12.125   6.436
 5110SOL    HW117104   1.014  12.154   6.527
 5110SOL    HW217105   1.071  12.058   6.425
 5111SOL     OW17106   7.518  11.525   9.146
 5111SOL    HW117107   7.500  11.610   9.106
 5111SOL    HW217108   7.612  11.525   9.161
 5112SOL     OW17109  12.190  12.295   4.136
 5112SOL    HW117110  12.223  12.207   4.119
 5112SOL    HW217111  12.215  12.313   4.227
 5113SOL     OW17112  14.470   6.188  10.915
 5113SOL    HW117113  14.410   6.195  10.841
 5113SOL    HW217114  14.557   6.179  10.874
 5114SOL     OW17115   1.878   0.434  10.857
 5114SOL    HW117116   1.957   0.418  10.806
 5114SOL    HW217117   1.879   0.528  10.874
 5115SOL     OW17118   6.389   5.555   9.450
 5115SOL    HW117119   6.310   5.589   9.492
 5115SOL    HW217120   6.461   5.590   9.503
 5116SOL     OW17121   2.934   5.007   6.701
 5116SOL    HW117122   2.916   5.078   6.763
 5116SOL    HW217123   3.013   5.035   6.655
 5117SOL     OW17124   1.369   1.656   5.002
 5117SOL    HW117125   1.430   1.693   5.065
 5117SOL    HW217126   1.390   1.563   4.999
 5118SOL     OW17127  12.611  14.063   4.120
 5118SOL    HW117128  12.650  14.141   4.160
 5118SOL    HW217129  12.532  14.095   4.076
 5119SOL     OW17130   2.594  11.696   1.919
 5119SOL    HW117131   2.614  11.602   1.913
 5119SOL    HW217132   2.659  11.730   1.980
 5120SOL     OW17133  14.404   2.500   3.235
 5120SOL    HW117134  14.342   2.566   3.265
 5120SOL    HW217135  14.371   2.418   3.270
 5121SOL     OW17136   4.215   4.309   2.153
 5121SOL    HW117137   4.246   4.229   2.112
 5121SOL    HW217138   4.165   4.354   2.084
 5122SOL     OW17139   8.890  13.768   0.052
 5122SOL    HW117140   8.974  13.809   0.072
 5122SOL    HW217141   8.906  13.716  14.851
 5123SOL     OW17142  13.131   9.245   0.425
 5123SOL    HW117143  13.209   9.197   0.398
 5123SOL    HW217144  13.142   9.333   0.387
 5124SOL     OW17145   1.515  12.961   0.659
 5124SOL    HW117146   1.550  12.876   0.684
 5124SOL    HW217147   1.507  12.957   0.564
 5125SOL     OW17148   4.358   5.490   3.284
 5125SOL    HW117149   4.411   5.537   3.348
 5125SOL    HW217150   4.422   5.447   3.227
 5126SOL     OW17151   5.266   8.914  12.267
 5126SOL    HW117152   5.333   8.845  12.264
 5126SOL    HW217153   5.233   8.911  12.356
 5127SOL     OW17154   3.390  12.515  10.927
 5127SOL    HW117155   3.484  12.534  10.927
 5127SOL    HW217156   3.353  12.580  10.986
 5128SOL     OW17157   4.438   6.079  11.355
 5128SOL    HW117158   4.433   6.038  11.442
 5128SOL    HW217159   4.364   6.141  11.354
 5129SOL     OW17160   1.645   4.396   3.446
 5129SOL    HW117161   1.598   4.381   3.365
 5129SOL    HW217162   1.580   4.380   3.515
 5130SOL     OW17163   2.948   1.388  14.383
 5130SOL    HW117164   2.879   1.434  14.431
 5130SOL    HW217165   3.022   1.387  14.443
 5131SOL     OW17166  11.205   2.283   2.006
 5131SOL    HW117167  11.173   2.263   1.918
 5131SOL    HW217168  11.299   2.293   1.995
 5132SOL     OW17169  14.709   2.512  13.365
 5132SOL    HW117170  14.667   2.553  13.441
 5132SOL    HW217171  14.776   2.574  13.338
 5133SOL     OW17172   8.290  12.305   5.752
 5133SOL    HW117173   8.327  12.392   5.735
 5133SOL    HW217174   8.270  12.270   5.665
 5134SOL     OW17175   4.890  12.631   9.330
 5134SOL    HW117176   4.852  12.689   9.264
 5134SOL    HW217177   4.946  12.688   9.382
 5135SOL     OW17178   5.993   8.853   4.282
 5135SOL    HW117179   5.927   8.790   4.254
 5135SOL    HW217180   6.037   8.810   4.355
 5136SOL     OW17181  11.448  11.809   1.793
 5136SOL    HW117182  11.395  11.734   1.767
 5136SOL    HW217183  11.401  11.847   1.868
 5137SOL     OW17184   6.059   0.385   9.076
 5137SOL    HW117185   6.089   0.295   9.064
 5137SOL    HW217186   6.022   0.386   9.164
 5138SOL     OW17187  11.086   1.202  11.943
 5138SOL    HW117188  10.995   1.211  11.915
 5138SOL    HW217189  11.121   1.129  11.892
 5139SOL     OW17190   0.312   8.682  13.946
 5139SOL    HW117191   0.368   8.747  13.903
 5139SOL    HW217192   0.315   8.706  14.039
 5140SOL     OW17193   6.777  10.162  13.598
 5140SOL    HW117194   6.750  10.223  13.666
 5140SOL    HW217195   6.774  10.213  13.517
 5141SOL     OW17196   5.381   2.013  11.769
 5141SOL    HW117197   5.473   1.993  11.750
 5141SOL    HW217198   5.335   1.930  11.758
 5142SOL     OW17199   5.484   1.215   1.503
 5142SOL    HW117200   5.546   1.288   1.495
 5142SOL    HW217201   5.446   1.206   1.416
 5143SOL     OW17202  12.555   4.298   5.093
 5143SOL    HW117203  12.590   4.237   5.028
 5143SOL    HW217204  12.598   4.274   5.174
 5144SOL     OW17205  10.772   0.471   1.665
 5144SOL    HW117206  10.708   0.475   1.594
 5144SOL    HW217207  10.733   0.412   1.730
 5145SOL     OW17208   9.525   0.523  12.833
 5145SOL    HW117209   9.498   0.441  12.792
 5145SOL    HW217210   9.506   0.590  12.768
 5146SOL     OW17211   5.072   4.272   3.292
 5146SOL    HW117212   5.062   4.178   3.308
 5146SOL    HW217213   5.067   4.281   3.197
 5147SOL     OW17214   3.290  14.618  13.170
 5147SOL    HW117215   3.305  14.703  13.211
 5147SOL    HW217216   3.196  14.615  13.155
 5148SOL     OW17217  14.151   9.601  10.057
 5148SOL    HW117218  14.150   9.647   9.973
 5148SOL    HW217219  14.072   9.547  10.056
 5149SOL     OW17220   5.678  10.940   8.487
 5149SOL    HW117221   5.608  10.988   8.530
 5149SOL    HW217222   5.634  10.883   8.425
 5150SOL     OW17223   9.243   3.547   7.851
 5150SOL    HW117224   9.171   3.516   7.796
 5150SOL    HW217225   9.307   3.582   7.789
 5151SOL     OW17226   0.628   1.079   8.544
 5151SOL    HW117227   0.640   1.127   8.462
 5151SOL    HW217228   0.545   1.032   8.532
 5152SOL     OW17229   4.343   9.753  10.901
 5152SOL    HW117230   4.397   9.806  10.842
 5152SOL    HW217231   4.332   9.808  10.978
 5153SOL     OW17232  12.548  14.243   9.374
 5153SOL    HW117233  12.633  14.285   9.360
 5153SOL    HW217234  12.562  14.187   9.451
 5154SOL     OW17235   9.926   7.005   0.985
 5154SOL    HW117236   9.977   7.008   1.066
 5154SOL    HW217237   9.869   6.929   0.995
 5155SOL     OW17238  12.553   2.671   4.144
 5155SOL    HW117239  12.497   2.620   4.086
 5155SOL    HW217240  12.621   2.707   4.087
 5156SOL     OW17241  11.092   7.883   4.291
 5156SOL    HW117242  11.132   7.818   4.349
 5156SOL    HW217243  11.009   7.844   4.264
 5157SOL     OW17244  13.266  13.758  13.645
 5157SOL    HW117245  13.199  13.781  13.710
 5157SOL    HW217246  13.341  13.728  13.697
 5158SOL     OW17247   2.351  14.641   3.531
 5158SOL    HW117248   2.324  14.629   3.440
 5158SOL    HW217249   2.269  14.658   3.578
 5159SOL     OW17250   7.448  10.038  14.691
 5159SOL    HW117251   7.386  10.005  14.757
 5159SOL    HW217252   7.402  10.026  14.608
 5160SOL     OW17253   1.065   6.123   1.850
 5160SOL    HW117254   1.011   6.200   1.868
 5160SOL    HW217255   1.104   6.141   1.764
 5161SOL     OW17256   0.058   8.875   8.201
 5161SOL    HW117257   0.045   8.948   8.261
 5161SOL    HW217258   0.152   8.874   8.184
 5162SOL     OW17259   7.759   6.663   7.507
 5162SOL    HW117260   7.850   6.638   7.524
 5162SOL    HW217261   7.759   6.692   7.416
 5163SOL     OW17262  10.602   2.869   4.626
 5163SOL    HW117263  10.572   2.910   4.707
 5163SOL    HW217264  10.523   2.832   4.587
 5164SOL     OW17265  14.303   8.855   5.846
 5164SOL    HW117266  14.279   8.785   5.785
 5164SOL    HW217267  14.394   8.836   5.870
 5165SOL     OW17268   0.197   7.236   0.680
 5165SOL    HW117269   0.189   7.327   0.710
 5165SOL    HW217270   0.137   7.187   0.737
 5166SOL     OW17271  14.602  10.783   2.951
 5166SOL    HW117272  14.588  10.829   2.868
 5166SOL    HW217273  14.514  10.759   2.980
 5167SOL     OW17274   1.959   7.513   5.358
 5167SOL    HW117275   1.939   7.594   5.312
 5167SOL    HW217276   1.972   7.539   5.449
 5168SOL     OW17277  12.799  13.117   6.214
 5168SOL    HW117278  12.869  13.182   6.215
 5168SOL    HW217279  12.767  13.115   6.304
 5169SOL     OW17280  10.651   9.368   0.389
 5169SOL    HW117281  10.616   9.361   0.478
 5169SOL    HW217282  10.600   9.438   0.348
 5170SOL     OW17283   2.200  14.237   0.938
 5170SOL    HW117284   2.178  14.185   1.015
 5170SOL    HW217285   2.159  14.322   0.954
 5171SOL     OW17286   3.095  10.695   5.191
 5171SOL    HW117287   3.065  10.730   5.275
 5171SOL    HW217288   3.044  10.743   5.126
 5172SOL     OW17289  12.191  13.239   8.806
 5172SOL    HW117290  12.113  13.273   8.761
 5172SOL    HW217291  12.231  13.317   8.845
 5173SOL     OW17292  14.071   8.170   2.728
 5173SOL    HW117293  14.002   8.191   2.665
 5173SOL    HW217294  14.152   8.199   2.685
 5174SOL     OW17295  10.407  10.972   0.564
 5174SOL    HW117296  10.423  11.058   0.603
 5174SOL    HW217297  10.427  10.983   0.471
 5175SOL     OW17298  14.250   5.656   3.848
 5175SOL    HW117299  14.237   5.601   3.771
 5175SOL    HW217300  14.269   5.594   3.919
 5176SOL     OW17301   5.669  13.831  14.272
 5176SOL    HW117302   5.666  13.927  14.268
 5176SOL    HW217303   5.738  13.807  14.212
 5177SOL     OW17304   4.992   2.890   8.945
 5177SOL    HW117305   4.972   2.918   8.856
 5177SOL    HW217306   5.076   2.844   8.937
 5178SOL     OW17307   4.613  11.993  13.095
 5178SOL    HW117308   4.698  12.024  13.063
 5178SOL    HW217309   4.568  11.962  13.017
 5179SOL     OW17310   1.889  13.578   1.923
 5179SOL    HW117311   1.894  13.500   1.868
 5179SOL    HW217312   1.867  13.546   2.010
 5180SOL     OW17313   9.818   2.389   1.160
 5180SOL    HW117314   9.809   2.424   1.249
 5180SOL    HW217315   9.893   2.436   1.123
 5181SOL     OW17316   9.969  11.458   1.022
 5181SOL    HW117317  10.016  11.442   1.104
 5181SOL    HW217318   9.910  11.530   1.042
 5182SOL     OW17319  12.172  13.253  12.425
 5182SOL    HW117320  12.168  13.162  12.396
 5182SOL    HW217321  12.226  13.297  12.360
 5183SOL     OW17322  10.282   1.753   8.990
 5183SOL    HW117323  10.262   1.736   9.082
 5183SOL    HW217324  10.315   1.670   8.957
 5184SOL     OW17325  13.929   6.029  12.816
 5184SOL    HW117326  13.916   6.102  12.876
 5184SOL    HW217327  13.996   6.060  12.755
 5185SOL     OW17328   6.245   7.780  12.903
 5185SOL    HW117329   6.193   7.831  12.841
 5185SOL    HW217330   6.237   7.827  12.986
 5186SOL     OW17331   4.641   0.114   4.170
 5186SOL    HW117332   4.633   0.062   4.250
 5186SOL    HW217333   4.569   0.083   4.114
 5187SOL     OW17334   8.497   8.140  12.213
 5187SOL    HW117335   8.410   8.159  12.176
 5187SOL    HW217336   8.484   8.059  12.262
 5188SOL     OW17337   4.390   8.867   7.526
 5188SOL    HW117338   4.321   8.925   7.558
 5188SOL    HW217339   4.372   8.856   7.433
 5189SOL     OW17340   6.123  14.107   8.764
 5189SOL    HW117341   6.087  14.020   8.749
 5189SOL    HW217342   6.143  14.109   8.858
 5190SOL     OW17343   8.680   2.694   0.692
 5190SOL    HW117344   8.772   2.670   0.685
 5190SOL    HW217345   8.646   2.643   0.765
 5191SOL     OW17346   2.186  10.908  13.992
 5191SOL    HW117347   2.183  10.834  13.931
 5191SOL    HW217348   2.241  10.876  14.064
 5192SOL     OW17349  11.547   9.335   0.252
 5192SOL    HW117350  11.494   9.413   0.268
 5192SOL    HW217351  11.556   9.331   0.157
 5193SOL     OW17352   8.462  13.482   3.267
 5193SOL    HW117353   8.433  13.399   3.229
 5193SOL    HW217354   8.504  13.458   3.349
 5194SOL     OW17355   7.510   9.090   5.560
 5194SOL    HW117356   7.440   9.154   5.573
 5194SOL    HW217357   7.519   9.046   5.644
 5195SOL     OW17358   9.938   5.048  10.613
 5195SOL    HW117359  10.026   5.084  10.629
 5195SOL    HW217360   9.885   5.083  10.685
 5196SOL     OW17361   1.221   2.455  10.874
 5196SOL    HW117362   1.308   2.423  10.851
 5196SOL    HW217363   1.201   2.520  10.806
 5197SOL     OW17364   3.231   0.999   8.994
 5197SOL    HW117365   3.251   0.962   9.080
 5197SOL    HW217366   3.236   1.094   9.008
 5198SOL     OW17367   9.543  13.147   0.427
 5198SOL    HW117368   9.544  13.065   0.476
 5198SOL    HW217369   9.619  13.196   0.458
 5199SOL     OW17370  13.218   7.117   6.349
 5199SOL    HW117371  13.192   7.111   6.441
 5199SOL    HW217372  13.159   7.056   6.304
 5200SOL     OW17373   4.827   6.057   0.214
 5200SOL    HW117374   4.868   6.015   0.138
 5200SOL    HW217375   4.868   6.014   0.289
 5201SOL     OW17376   5.032   5.189  13.207
 5201SOL    HW117377   4.956   5.193  13.150
 5201SOL    HW217378   4.998   5.157  13.291
 5202SOL     OW17379   1.101  10.436  13.956
 5202SOL    HW117380   1.156  10.368  13.996
 5202SOL    HW217381   1.025  10.388  13.922
 5203SOL     OW17382  10.816  12.107   4.902
 5203SOL    HW117383  10.791  12.184   4.851
 5203SOL    HW217384  10.743  12.092   4.961
 5204SOL     OW17385   3.801   0.793   6.918
 5204SOL    HW117386   3.749   0.838   6.984
 5204SOL    HW217387   3.782   0.840   6.837
 5205SOL     OW17388  10.850  12.087  12.408
 5205SOL    HW117389  10.855  11.992  12.402
 5205SOL    HW217390  10.894  12.109  12.490
 5206SOL     OW17391   9.333  11.956   9.688
 5206SOL    HW117392   9.335  11.863   9.710
 5206SOL    HW217393   9.365  12.000   9.767
 5207SOL     OW17394   7.308   5.266   7.982
 5207SOL    HW117395   7.222   5.230   7.960
 5207SOL    HW217396   7.301   5.359   7.964
 5208SOL     OW17397   6.678   6.211  11.321
 5208SOL    HW117398   6.637   6.283  11.370
 5208SOL    HW217399   6.607   6.172  11.272
 5209SOL     OW17400  14.088  13.261   8.902
 5209SOL    HW117401  14.089  13.338   8.845
 5209SOL    HW217402  13.996  13.246   8.921
 5210SOL     OW17403   9.762   3.837  13.770
 5210SOL    HW117404   9.812   3.897  13.715
 5210SOL    HW217405   9.671   3.864  13.760
 5211SOL     OW17406   5.453   5.903   3.975
 5211SOL    HW117407   5.431   5.976   3.918
 5211SOL    HW217408   5.530   5.863   3.934
 5212SOL     OW17409  10.924  14.633   7.110
 5212SOL    HW117410  10.850  14.587   7.072
 5212SOL    HW217411  10.993  14.567   7.117
 5213SOL     OW17412  11.428   9.759   5.403
 5213SOL    HW117413  11.374   9.772   5.325
 5213SOL    HW217414  11.460   9.669   5.396
 5214SOL     OW17415   7.595   9.941  12.197
 5214SOL    HW117416   7.526   9.886  12.234
 5214SOL    HW217417   7.625   9.892  12.120
 5215SOL     OW17418   2.046   1.082   3.996
 5215SOL    HW117419   2.012   1.117   3.914
 5215SOL    HW217420   2.072   1.159   4.046
 5216SOL     OW17421   3.536  14.282   0.790
 5216SOL    HW117422   3.566  14.280   0.700
 5216SOL    HW217423   3.536  14.191   0.819
 5217SOL     OW17424   1.764   1.113   2.840
 5217SOL    HW117425   1.760   1.205   2.867
 5217SOL    HW217426   1.784   1.065   2.920
 5218SOL     OW17427  11.274   4.152   7.781
 5218SOL    HW117428  11.193   4.102   7.767
 5218SOL    HW217429  11.263   4.191   7.867
 5219SOL     OW17430   6.603   2.996  13.818
 5219SOL    HW117431   6.634   2.906  13.827
 5219SOL    HW217432   6.633   3.040  13.897
 5220SOL     OW17433   9.565   4.544  14.722
 5220SOL    HW117434   9.489   4.498  14.758
 5220SOL    HW217435   9.532   4.587  14.643
 5221SOL     OW17436  10.091   3.645   2.620
 5221SOL    HW117437  10.060   3.657   2.710
 5221SOL    HW217438  10.026   3.688   2.566
 5222SOL     OW17439   2.764   4.422   8.709
 5222SOL    HW117440   2.751   4.517   8.707
 5222SOL    HW217441   2.748   4.394   8.619
 5223SOL     OW17442   1.316   6.974   8.304
 5223SOL    HW117443   1.302   6.946   8.394
 5223SOL    HW217444   1.231   7.009   8.277
 5224SOL     OW17445   3.850   1.087  10.308
 5224SOL    HW117446   3.853   1.096  10.212
 5224SOL    HW217447   3.919   1.146  10.339
 5225SOL     OW17448   1.474   9.702   0.741
 5225SOL    HW117449   1.535   9.738   0.676
 5225SOL    HW217450   1.520   9.712   0.825
 5226SOL     OW17451  11.592   7.418  12.936
 5226SOL    HW117452  11.520   7.380  12.986
 5226SOL    HW217453  11.629   7.343  12.888
 5227SOL     OW17454   3.935   7.892   1.212
 5227SOL    HW117455   3.915   7.839   1.289
 5227SOL    HW217456   3.956   7.979   1.248
 5228SOL     OW17457   4.004   7.554  12.343
 5228SOL    HW117458   3.969   7.472  12.309
 5228SOL    HW217459   4.065   7.528  12.412
 5229SOL     OW17460   4.720  11.498   1.278
 5229SOL    HW117461   4.653  11.566   1.273
 5229SOL    HW217462   4.752  11.489   1.188
 5230SOL     OW17463   7.642  14.217   5.495
 5230SOL    HW117464   7.638  14.310   5.476
 5230SOL    HW217465   7.599  14.208   5.580
 5231SOL     OW17466  13.990   7.034   7.627
 5231SOL    HW117467  13.972   6.956   7.573
 5231SOL    HW217468  13.996   7.105   7.563
 5232SOL     OW17469   7.929   6.035   3.749
 5232SOL    HW117470   7.939   6.032   3.654
 5232SOL    HW217471   7.848   6.085   3.763
 5233SOL     OW17472  12.599   7.729  14.612
 5233SOL    HW117473  12.627   7.786  14.683
 5233SOL    HW217474  12.510   7.703  14.636
 5234SOL     OW17475   3.207  11.871   8.887
 5234SOL    HW117476   3.259  11.838   8.960
 5234SOL    HW217477   3.271  11.894   8.820
 5235SOL     OW17478   5.281  10.294   5.830
 5235SOL    HW117479   5.209  10.330   5.880
 5235SOL    HW217480   5.358  10.345   5.857
 5236SOL     OW17481   8.360   3.911   8.041
 5236SOL    HW117482   8.368   3.842   8.107
 5236SOL    HW217483   8.349   3.991   8.091
 5237SOL     OW17484   4.894   3.880  10.132
 5237SOL    HW117485   4.982   3.911  10.153
 5237SOL    HW217486   4.841   3.907  10.207
 5238SOL     OW17487   0.496   8.764   2.490
 5238SOL    HW117488   0.525   8.775   2.581
 5238SOL    HW217489   0.501   8.852   2.453
 5239SOL     OW17490   7.653  10.333   5.626
 5239SOL    HW117491   7.680  10.370   5.541
 5239SOL    HW217492   7.728  10.347   5.683
 5240SOL     OW17493   0.753  14.193   0.560
 5240SOL    HW117494   0.698  14.210   0.483
 5240SOL    HW217495   0.840  14.223   0.534
 5241SOL     OW17496  10.468   8.393  13.786
 5241SOL    HW117497  10.560   8.417  13.801
 5241SOL    HW217498  10.473   8.313  13.733
 5242SOL     OW17499  11.383   0.002  14.749
 5242SOL    HW117500  11.431  14.811  14.795
 5242SOL    HW217501  11.421   0.002  14.661
 5243SOL     OW17502   3.914   0.321   4.903
 5243SOL    HW117503   3.917   0.373   4.823
 5243SOL    HW217504   3.893   0.232   4.874
 5244SOL     OW17505   7.386   8.138   3.420
 5244SOL    HW117506   7.318   8.198   3.388
 5244SOL    HW217507   7.468   8.179   3.393
 5245SOL     OW17508   0.351  13.739   4.970
 5245SOL    HW117509   0.414  13.669   4.960
 5245SOL    HW217510   0.289  13.707   5.036
 5246SOL     OW17511  11.113  13.189  10.589
 5246SOL    HW117512  11.115  13.285  10.580
 5246SOL    HW217513  11.093  13.157  10.501
 5247SOL     OW17514  13.053   9.490   9.266
 5247SOL    HW117515  13.016   9.426   9.206
 5247SOL    HW217516  13.030   9.458   9.353
 5248SOL     OW17517   9.847  14.069  13.238
 5248SOL    HW117518   9.875  14.025  13.318
 5248SOL    HW217519   9.899  14.029  13.168
 5249SOL     OW17520   5.725  12.878  11.392
 5249SOL    HW117521   5.730  12.817  11.466
 5249SOL    HW217522   5.632  12.898  11.383
 5250SOL     OW17523  11.787   7.132  14.758
 5250SOL    HW117524  11.767   7.146  14.851
 5250SOL    HW217525  11.770   7.038  14.745
 5251SOL     OW17526   1.674  11.597  14.777
 5251SOL    HW117527   1.606  11.616  14.841
 5251SOL    HW217528   1.626  11.568  14.699
 5252SOL     OW17529   4.516   4.396   7.264
 5252SOL    HW117530   4.485   4.484   7.284
 5252SOL    HW217531   4.599   4.410   7.218
 5253SOL     OW17532   1.132   6.094   8.920
 5253SOL    HW117533   1.186   6.034   8.869
 5253SOL    HW217534   1.187   6.117   8.995
 5254SOL     OW17535  12.565   1.552   1.862
 5254SOL    HW117536  12.526   1.572   1.947
 5254SOL    HW217537  12.640   1.611   1.856
 5255SOL     OW17538   1.807   3.704   6.359
 5255SOL    HW117539   1.838   3.782   6.314
 5255SOL    HW217540   1.729   3.733   6.407
 5256SOL     OW17541  10.458  13.318  14.824
 5256SOL    HW117542  10.453  13.403  14.779
 5256SOL    HW217543  10.376  13.274  14.801
 5257SOL     OW17544  14.819   8.767   4.719
 5257SOL    HW117545   0.018   8.821   4.702
 5257SOL    HW217546  14.844   8.712   4.792
 5258SOL     OW17547  14.668   5.272  11.931
 5258SOL    HW117548  14.721   5.201  11.967
 5258SOL    HW217549  14.580   5.256  11.964
 5259SOL     OW17550   0.106   1.572  10.113
 5259SOL    HW117551   0.145   1.511  10.176
 5259SOL    HW217552   0.142   1.658  10.137
 5260SOL     OW17553  11.322   6.855   0.272
 5260SOL    HW117554  11.274   6.800   0.210
 5260SOL    HW217555  11.405   6.874   0.227
 5261SOL     OW17556   8.320  10.036  13.878
 5261SOL    HW117557   8.237  10.084  13.887
 5261SOL    HW217558   8.373  10.067  13.951
 5262SOL     OW17559  12.379   1.768   3.408
 5262SOL    HW117560  12.291   1.730   3.408
 5262SOL    HW217561  12.382   1.823   3.329
 5263SOL     OW17562  10.946   1.744  13.789
 5263SOL    HW117563  10.950   1.649  13.799
 5263SOL    HW217564  10.986   1.779  13.868
 5264SOL     OW17565   7.624   5.277   7.751
 5264SOL    HW117566   7.665   5.358   7.720
 5264SOL    HW217567   7.565   5.305   7.821
 5265SOL     OW17568  13.835   7.090   3.227
 5265SOL    HW117569  13.868   7.011   3.183
 5265SOL    HW217570  13.848   7.073   3.320
 5266SOL     OW17571   5.431  12.409   8.992
 5266SOL    HW117572   5.453  12.318   8.977
 5266SOL    HW217573   5.514  12.456   8.989
 5267SOL     OW17574  13.390  11.651  12.289
 5267SOL    HW117575  13.298  11.651  12.264
 5267SOL    HW217576  13.434  11.609  12.215
 5268SOL     OW17577   9.269  10.487   7.863
 5268SOL    HW117578   9.295  10.511   7.774
 5268SOL    HW217579   9.205  10.417   7.850
 5269SOL     OW17580   2.401   9.649  12.811
 5269SOL    HW117581   2.307   9.644  12.792
 5269SOL    HW217582   2.443   9.608  12.736
 5270SOL     OW17583  11.715   7.302   9.440
 5270SOL    HW117584  11.733   7.395   9.446
 5270SOL    HW217585  11.767   7.263   9.511
 5271SOL     OW17586   8.225   7.401   7.338
 5271SOL    HW117587   8.296   7.370   7.394
 5271SOL    HW217588   8.230   7.496   7.343
 5272SOL     OW17589   9.927  14.019  12.357
 5272SOL    HW117590   9.996  14.046  12.417
 5272SOL    HW217591   9.850  14.067  12.385
 5273SOL     OW17592   6.484   3.815  10.746
 5273SOL    HW117593   6.489   3.743  10.684
 5273SOL    HW217594   6.575   3.844  10.756
 5274SOL     OW17595  14.550   0.713   0.213
 5274SOL    HW117596  14.616   0.644   0.208
 5274SOL    HW217597  14.594   0.783   0.263
 5275SOL     OW17598  10.767   7.531  12.343
 5275SOL    HW117599  10.793   7.558  12.255
 5275SOL    HW217600  10.703   7.462  12.329
 5276SOL     OW17601   7.730   6.102   1.554
 5276SOL    HW117602   7.725   6.074   1.645
 5276SOL    HW217603   7.804   6.052   1.518
 5277SOL     OW17604  14.749   8.367   3.355
 5277SOL    HW117605  14.810   8.295   3.367
 5277SOL    HW217606  14.721   8.360   3.264
 5278SOL     OW17607   5.367   1.273   2.691
 5278SOL    HW117608   5.331   1.311   2.611
 5278SOL    HW217609   5.314   1.312   2.761
 5279SOL     OW17610   6.053   1.783   5.976
 5279SOL    HW117611   6.043   1.756   5.885
 5279SOL    HW217612   6.063   1.701   6.025
 5280SOL     OW17613  13.238   7.201   2.093
 5280SOL    HW117614  13.240   7.108   2.116
 5280SOL    HW217615  13.154   7.214   2.051
 5281SOL     OW17616  10.719   7.623   0.417
 5281SOL    HW117617  10.636   7.576   0.407
 5281SOL    HW217618  10.754   7.592   0.501
 5282SOL     OW17619   3.613   9.587  10.434
 5282SOL    HW117620   3.598   9.544  10.518
 5282SOL    HW217621   3.531   9.575  10.386
 5283SOL     OW17622   2.692  12.295   4.194
 5283SOL    HW117623   2.621  12.326   4.250
 5283SOL    HW217624   2.734  12.374   4.161
 5284SOL     OW17625  13.479   5.331  12.821
 5284SOL    HW117626  13.407   5.323  12.884
 5284SOL    HW217627  13.476   5.422  12.793
 5285SOL     OW17628   5.101   7.560  14.242
 5285SOL    HW117629   5.016   7.571  14.285
 5285SOL    HW217630   5.124   7.469  14.259
 5286SOL     OW17631   7.455   2.132  14.141
 5286SOL    HW117632   7.428   2.182  14.219
 5286SOL    HW217633   7.373   2.117  14.093
 5287SOL     OW17634  14.729   9.168   9.515
 5287SOL    HW117635  14.663   9.172   9.446
 5287SOL    HW217636  14.678   9.158   9.596
 5288SOL     OW17637  12.173   0.734  13.589
 5288SOL    HW117638  12.223   0.765  13.514
 5288SOL    HW217639  12.091   0.783  13.586
 5289SOL     OW17640   6.277   2.312   1.561
 5289SOL    HW117641   6.227   2.391   1.583
 5289SOL    HW217642   6.343   2.342   1.500
 5290SOL     OW17643   1.905   0.210   5.303
 5290SOL    HW117644   1.963   0.209   5.379
 5290SOL    HW217645   1.963   0.192   5.229
 5291SOL     OW17646  14.099   3.117  10.472
 5291SOL    HW117647  14.051   3.120  10.554
 5291SOL    HW217648  14.173   3.176  10.484
 5292SOL     OW17649   3.714  13.275   0.401
 5292SOL    HW117650   3.715  13.342   0.332
 5292SOL    HW217651   3.739  13.194   0.356
 5293SOL     OW17652   9.117   3.462   2.020
 5293SOL    HW117653   9.074   3.514   1.952
 5293SOL    HW217654   9.209   3.486   2.015
 5294SOL     OW17655   5.161   4.633  12.580
 5294SOL    HW117656   5.247   4.617  12.617
 5294SOL    HW217657   5.102   4.635  12.656
 5295SOL     OW17658   5.801   5.385   2.358
 5295SOL    HW117659   5.752   5.457   2.319
 5295SOL    HW217660   5.828   5.331   2.283
 5296SOL     OW17661   5.949  12.996  11.791
 5296SOL    HW117662   5.879  12.935  11.768
 5296SOL    HW217663   5.908  13.060  11.849
 5297SOL     OW17664   7.023   7.635   6.036
 5297SOL    HW117665   6.965   7.560   6.029
 5297SOL    HW217666   7.079   7.630   5.958
 5298SOL     OW17667   3.369  13.650  13.507
 5298SOL    HW117668   3.316  13.710  13.456
 5298SOL    HW217669   3.404  13.704  13.578
 5299SOL     OW17670   7.043  10.147   4.022
 5299SOL    HW117671   7.117  10.129   3.964
 5299SOL    HW217672   7.051  10.240   4.043
 5300SOL     OW17673   7.083   6.934  11.213
 5300SOL    HW117674   7.080   7.010  11.154
 5300SOL    HW217675   7.171   6.899  11.202
 5301SOL     OW17676   8.349  12.105  10.650
 5301SOL    HW117677   8.357  12.010  10.655
 5301SOL    HW217678   8.439  12.137  10.662
 5302SOL     OW17679  12.477   1.248  12.143
 5302SOL    HW117680  12.571   1.255  12.156
 5302SOL    HW217681  12.465   1.261  12.049
 5303SOL     OW17682   1.372  14.333   9.263
 5303SOL    HW117683   1.422  14.369   9.336
 5303SOL    HW217684   1.358  14.406   9.204
 5304SOL     OW17685   7.348   1.057  11.182
 5304SOL    HW117686   7.294   1.127  11.144
 5304SOL    HW217687   7.297   0.977  11.168
 5305SOL     OW17688  14.235   6.619   4.083
 5305SOL    HW117689  14.326   6.629   4.110
 5305SOL    HW217690  14.228   6.528   4.055
 5306SOL     OW17691   5.885  14.277   4.949
 5306SOL    HW117692   5.910  14.195   4.991
 5306SOL    HW217693   5.791  14.285   4.967
 5307SOL     OW17694   4.286   9.290  11.114
 5307SOL    HW117695   4.355   9.356  11.125
 5307SOL    HW217696   4.207   9.341  11.097
 5308SOL     OW17697  11.884   0.663   8.023
 5308SOL    HW117698  11.921   0.742   8.060
 5308SOL    HW217699  11.892   0.597   8.092
 5309SOL     OW17700   9.487  14.670   7.102
 5309SOL    HW117701   9.468  14.695   7.012
 5309SOL    HW217702   9.401  14.650   7.140
 5310SOL     OW17703  10.411  12.242   9.989
 5310SOL    HW117704  10.452  12.309   9.935
 5310SOL    HW217705  10.440  12.159   9.952
 5311SOL     OW17706   1.061   3.564   6.235
 5311SOL    HW117707   1.061   3.639   6.176
 5311SOL    HW217708   1.136   3.580   6.293
 5312SOL     OW17709   4.734   7.504   5.010
 5312SOL    HW117710   4.761   7.579   5.063
 5312SOL    HW217711   4.764   7.428   5.060
 5313SOL     OW17712   9.375   3.836   3.038
 5313SOL    HW117713   9.434   3.778   2.990
 5313SOL    HW217714   9.287   3.811   3.008
 5314SOL     OW17715  11.675   4.895  14.567
 5314SOL    HW117716  11.592   4.924  14.530
 5314SOL    HW217717  11.705   4.825  14.509
 5315SOL     OW17718  14.267   6.153   2.279
 5315SOL    HW117719  14.271   6.061   2.303
 5315SOL    HW217720  14.222   6.195   2.352
 5316SOL     OW17721  13.360   9.564  13.839
 5316SOL    HW117722  13.318   9.495  13.788
 5316SOL    HW217723  13.452   9.537  13.844
 5317SOL     OW17724   1.288   6.456   2.690
 5317SOL    HW117725   1.254   6.520   2.753
 5317SOL    HW217726   1.240   6.376   2.710
 5318SOL     OW17727  13.112  13.481  12.574
 5318SOL    HW117728  13.158  13.520  12.500
 5318SOL    HW217729  13.065  13.407  12.536
 5319SOL     OW17730   4.275  10.230   1.073
 5319SOL    HW117731   4.328  10.301   1.037
 5319SOL    HW217732   4.255  10.258   1.162
 5320SOL     OW17733  14.096   7.137   2.190
 5320SOL    HW117734  14.155   7.109   2.260
 5320SOL    HW217735  14.037   7.063   2.177
 5321SOL     OW17736   5.540   5.606   5.126
 5321SOL    HW117737   5.480   5.552   5.074
 5321SOL    HW217738   5.482   5.669   5.170
 5322SOL     OW17739  12.950   6.425  14.254
 5322SOL    HW117740  12.958   6.411  14.348
 5322SOL    HW217741  12.865   6.467  14.243
 5323SOL     OW17742   5.600  11.496  11.018
 5323SOL    HW117743   5.680  11.477  11.068
 5323SOL    HW217744   5.595  11.591  11.017
 5324SOL     OW17745   2.150  10.237   6.989
 5324SOL    HW117746   2.104  10.166   6.944
 5324SOL    HW217747   2.200  10.281   6.920
 5325SOL     OW17748  11.725   2.892   0.528
 5325SOL    HW117749  11.775   2.948   0.469
 5325SOL    HW217750  11.789   2.863   0.593
 5326SOL     OW17751   2.256  11.368   7.589
 5326SOL    HW117752   2.349  11.367   7.609
 5326SOL    HW217753   2.237  11.460   7.568
 5327SOL     OW17754   9.002   2.236   9.342
 5327SOL    HW117755   8.927   2.178   9.348
 5327SOL    HW217756   9.005   2.261   9.249
 5328SOL     OW17757   1.685  11.733  11.091
 5328SOL    HW117758   1.719  11.823  11.090
 5328SOL    HW217759   1.590  11.743  11.083
 5329SOL     OW17760   3.264   7.883   4.417
 5329SOL    HW117761   3.250   7.840   4.501
 5329SOL    HW217762   3.185   7.937   4.405
 5330SOL     OW17763   2.979   8.395   6.441
 5330SOL    HW117764   3.011   8.317   6.394
 5330SOL    HW217765   2.903   8.364   6.489
 5331SOL     OW17766  11.769  12.183  12.137
 5331SOL    HW117767  11.804  12.095  12.148
 5331SOL    HW217768  11.708  12.176  12.063
 5332SOL     OW17769  10.874  11.220  10.226
 5332SOL    HW117770  10.932  11.290  10.256
 5332SOL    HW217771  10.906  11.199  10.138
 5333SOL     OW17772  12.375   0.289  14.447
 5333SOL    HW117773  12.426   0.329  14.517
 5333SOL    HW217774  12.369   0.357  14.379
 5334SOL     OW17775  14.837   6.706  11.010
 5334SOL    HW117776   0.054   6.710  10.997
 5334SOL    HW217777  14.800   6.723  10.923
 5335SOL     OW17778   9.599  12.607   8.854
 5335SOL    HW117779   9.521  12.571   8.896
 5335SOL    HW217780   9.570  12.690   8.816
 5336SOL     OW17781   9.226  12.419   6.615
 5336SOL    HW117782   9.178  12.337   6.608
 5336SOL    HW217783   9.227  12.455   6.526
 5337SOL     OW17784  10.653  11.478   1.560
 5337SOL    HW117785  10.565  11.479   1.599
 5337SOL    HW217786  10.638  11.462   1.467
 5338SOL     OW17787   2.178  11.780   5.991
 5338SOL    HW117788   2.218  11.846   5.935
 5338SOL    HW217789   2.220  11.792   6.077
 5339SOL     OW17790  14.708   6.904  13.252
 5339SOL    HW117791  14.788   6.935  13.294
 5339SOL    HW217792  14.686   6.824  13.300
 5340SOL     OW17793   1.052   7.313   6.217
 5340SOL    HW117794   1.084   7.282   6.301
 5340SOL    HW217795   0.960   7.334   6.232
 5341SOL     OW17796   4.875   5.859   8.320
 5341SOL    HW117797   4.826   5.940   8.308
 5341SOL    HW217798   4.954   5.885   8.367
 5342SOL     OW17799   4.807  13.870   0.601
 5342SOL    HW117800   4.888  13.820   0.602
 5342SOL    HW217801   4.820  13.935   0.532
 5343SOL     OW17802   6.323  10.179   1.260
 5343SOL    HW117803   6.311  10.163   1.166
 5343SOL    HW217804   6.255  10.125   1.301
 5344SOL     OW17805  11.657   1.403   1.829
 5344SOL    HW117806  11.618   1.316   1.824
 5344SOL    HW217807  11.748   1.386   1.855
 5345SOL     OW17808   1.289   4.654   2.245
 5345SOL    HW117809   1.315   4.592   2.314
 5345SOL    HW217810   1.303   4.607   2.163
 5346SOL     OW17811  10.053   4.151   6.063
 5346SOL    HW117812  10.064   4.098   6.141
 5346SOL    HW217813  10.143   4.171   6.035
 5347SOL     OW17814   8.699   7.508  13.509
 5347SOL    HW117815   8.690   7.415  13.488
 5347SOL    HW217816   8.624   7.527  13.565
 5348SOL     OW17817   9.230  14.167   0.440
 5348SOL    HW117818   9.137  14.163   0.465
 5348SOL    HW217819   9.276  14.137   0.519
 5349SOL     OW17820   8.080   7.702   3.547
 5349SOL    HW117821   8.077   7.776   3.486
 5349SOL    HW217822   8.051   7.627   3.494
 5350SOL     OW17823   7.952   8.200   2.653
 5350SOL    HW117824   7.921   8.224   2.566
 5350SOL    HW217825   7.987   8.282   2.690
 5351SOL     OW17826   2.994   7.829  10.754
 5351SOL    HW117827   2.934   7.786  10.815
 5351SOL    HW217828   2.939   7.851  10.678
 5352SOL     OW17829   5.178  10.804   9.949
 5352SOL    HW117830   5.146  10.716   9.928
 5352SOL    HW217831   5.193  10.845   9.864
 5353SOL     OW17832   9.057  11.418  10.783
 5353SOL    HW117833   9.109  11.338  10.777
 5353SOL    HW217834   9.120  11.486  10.807
 5354SOL     OW17835  10.335  11.029  10.167
 5354SOL    HW117836  10.383  11.028  10.250
 5354SOL    HW217837  10.354  10.944  10.127
 5355SOL     OW17838  11.403  11.733   6.774
 5355SOL    HW117839  11.369  11.806   6.723
 5355SOL    HW217840  11.495  11.726   6.748
 5356SOL     OW17841   7.708  10.733  14.326
 5356SOL    HW117842   7.711  10.823  14.293
 5356SOL    HW217843   7.795  10.697  14.306
 5357SOL     OW17844  10.812  11.893   8.045
 5357SOL    HW117845  10.850  11.921   7.962
 5357SOL    HW217846  10.805  11.973   8.096
 5358SOL     OW17847  13.995   7.282   8.307
 5358SOL    HW117848  13.996   7.284   8.402
 5358SOL    HW217849  13.904   7.265   8.284
 5359SOL     OW17850  14.217   5.165  14.520
 5359SOL    HW117851  14.169   5.120  14.590
 5359SOL    HW217852  14.218   5.257  14.546
 5360SOL     OW17853   9.817   4.376   9.285
 5360SOL    HW117854   9.796   4.459   9.328
 5360SOL    HW217855   9.802   4.310   9.353
 5361SOL     OW17856   1.097   9.813   9.840
 5361SOL    HW117857   1.026   9.787   9.898
 5361SOL    HW217858   1.055   9.866   9.772
 5362SOL     OW17859  11.039   9.538   6.760
 5362SOL    HW117860  11.030   9.459   6.707
 5362SOL    HW217861  11.106   9.516   6.825
 5363SOL     OW17862   8.715   2.850   3.905
 5363SOL    HW117863   8.810   2.840   3.896
 5363SOL    HW217864   8.682   2.761   3.916
 5364SOL     OW17865   6.495   5.318  10.652
 5364SOL    HW117866   6.584   5.350  10.639
 5364SOL    HW217867   6.504   5.222  10.649
 5365SOL     OW17868   5.046   4.020   5.319
 5365SOL    HW117869   5.077   3.967   5.392
 5365SOL    HW217870   4.952   4.002   5.315
 5366SOL     OW17871  13.970   5.194   6.449
 5366SOL    HW117872  13.968   5.223   6.540
 5366SOL    HW217873  13.880   5.164   6.432
 5367SOL     OW17874  13.595   9.224   0.141
 5367SOL    HW117875  13.556   9.310   0.157
 5367SOL    HW217876  13.667   9.219   0.203
 5368SOL     OW17877   9.442  10.711   9.781
 5368SOL    HW117878   9.522  10.752   9.747
 5368SOL    HW217879   9.395  10.784   9.823
 5369SOL     OW17880   4.642  12.445   3.071
 5369SOL    HW117881   4.589  12.509   3.120
 5369SOL    HW217882   4.696  12.499   3.013
 5370SOL     OW17883   9.212  13.971  12.542
 5370SOL    HW117884   9.224  13.951  12.449
 5370SOL    HW217885   9.215  14.066  12.548
 5371SOL     OW17886   7.336   4.824   5.061
 5371SOL    HW117887   7.336   4.918   5.045
 5371SOL    HW217888   7.315   4.785   4.976
 5372SOL     OW17889   5.233   6.875   7.390
 5372SOL    HW117890   5.195   6.908   7.309
 5372SOL    HW217891   5.327   6.870   7.372
 5373SOL     OW17892  10.444  11.466  13.303
 5373SOL    HW117893  10.536  11.442  13.311
 5373SOL    HW217894  10.403  11.389  13.262
 5374SOL     OW17895  14.621   0.504  13.404
 5374SOL    HW117896  14.699   0.451  13.423
 5374SOL    HW217897  14.548   0.442  13.410
 5375SOL     OW17898  11.409  14.609   7.093
 5375SOL    HW117899  11.452  14.527   7.119
 5375SOL    HW217900  11.446  14.628   7.007
 5376SOL     OW17901   9.240   5.862   0.950
 5376SOL    HW117902   9.266   5.805   1.022
 5376SOL    HW217903   9.322   5.894   0.913
 5377SOL     OW17904  11.431   6.061   5.793
 5377SOL    HW117905  11.487   6.128   5.832
 5377SOL    HW217906  11.343   6.098   5.798
 5378SOL     OW17907   1.885   0.775   7.589
 5378SOL    HW117908   1.930   0.795   7.507
 5378SOL    HW217909   1.795   0.806   7.575
 5379SOL     OW17910  13.521   1.889   8.973
 5379SOL    HW117911  13.507   1.865   8.881
 5379SOL    HW217912  13.604   1.937   8.974
 5380SOL     OW17913  10.282  14.101   9.734
 5380SOL    HW117914  10.369  14.091   9.772
 5380SOL    HW217915  10.246  14.178   9.777
 5381SOL     OW17916   8.973  14.728   5.607
 5381SOL    HW117917   9.030  14.681   5.546
 5381SOL    HW217918   9.029  14.795   5.646
 5382SOL     OW17919   3.711   5.566  11.767
 5382SOL    HW117920   3.660   5.647  11.777
 5382SOL    HW217921   3.791   5.594  11.722
 5383SOL     OW17922   8.378  10.768   2.703
 5383SOL    HW117923   8.456  10.823   2.704
 5383SOL    HW217924   8.326  10.800   2.629
 5384SOL     OW17925   0.769   9.203   6.891
 5384SOL    HW117926   0.744   9.167   6.806
 5384SOL    HW217927   0.864   9.190   6.896
 5385SOL     OW17928   3.158   3.940   5.455
 5385SOL    HW117929   3.148   3.893   5.372
 5385SOL    HW217930   3.068   3.954   5.485
 5386SOL     OW17931  14.434  12.486  13.417
 5386SOL    HW117932  14.396  12.482  13.329
 5386SOL    HW217933  14.376  12.545  13.465
 5387SOL     OW17934   5.223  13.362  10.768
 5387SOL    HW117935   5.232  13.453  10.796
 5387SOL    HW217936   5.273  13.312  10.833
 5388SOL     OW17937  10.615   4.131   8.665
 5388SOL    HW117938  10.524   4.155   8.649
 5388SOL    HW217939  10.635   4.064   8.600
 5389SOL     OW17940  14.169  11.536   1.102
 5389SOL    HW117941  14.141  11.451   1.067
 5389SOL    HW217942  14.261  11.524   1.124
 5390SOL     OW17943   8.116  11.923   7.479
 5390SOL    HW117944   8.071  11.901   7.397
 5390SOL    HW217945   8.143  11.838   7.515
 5391SOL     OW17946   0.958   9.007   1.356
 5391SOL    HW117947   0.940   8.926   1.404
 5391SOL    HW217948   1.031   9.048   1.403
 5392SOL     OW17949  10.735   8.208   3.933
 5392SOL    HW117950  10.794   8.199   3.858
 5392SOL    HW217951  10.782   8.166   4.005
 5393SOL     OW17952   9.829   5.851   1.845
 5393SOL    HW117953   9.882   5.774   1.823
 5393SOL    HW217954   9.870   5.922   1.797
 5394SOL     OW17955   2.213   3.389   0.012
 5394SOL    HW117956   2.123   3.369  14.865
 5394SOL    HW217957   2.237   3.320   0.074
 5395SOL     OW17958  13.164   0.572   6.049
 5395SOL    HW117959  13.174   0.593   5.956
 5395SOL    HW217960  13.231   0.626   6.092
 5396SOL     OW17961   7.731  11.443   6.070
 5396SOL    HW117962   7.698  11.368   6.119
 5396SOL    HW217963   7.736  11.411   5.979
 5397SOL     OW17964   9.358  10.910   3.993
 5397SOL    HW117965   9.431  10.965   4.020
 5397SOL    HW217966   9.280  10.953   4.030
 5398SOL     OW17967   4.246   3.517   5.655
 5398SOL    HW117968   4.311   3.587   5.662
 5398SOL    HW217969   4.291   3.447   5.608
 5399SOL     OW17970   6.577   7.206  10.380
 5399SOL    HW117971   6.590   7.254  10.298
 5399SOL    HW217972   6.621   7.122  10.366
 5400SOL     OW17973   8.340   3.050   7.286
 5400SOL    HW117974   8.427   3.055   7.247
 5400SOL    HW217975   8.338   2.966   7.331
 5401SOL     OW17976   5.860   3.899   9.899
 5401SOL    HW117977   5.787   3.859   9.947
 5401SOL    HW217978   5.930   3.907   9.964
 5402SOL     OW17979  13.294   2.966  14.106
 5402SOL    HW117980  13.212   2.993  14.065
 5402SOL    HW217981  13.290   2.870  14.106
 5403SOL     OW17982   5.921   4.527   5.485
 5403SOL    HW117983   5.843   4.533   5.430
 5403SOL    HW217984   5.994   4.537   5.425
 5404SOL     OW17985   1.993   4.717   6.614
 5404SOL    HW117986   1.917   4.775   6.615
 5404SOL    HW217987   2.067   4.775   6.595
 5405SOL     OW17988   1.825  12.809   7.496
 5405SOL    HW117989   1.887  12.764   7.553
 5405SOL    HW217990   1.855  12.791   7.407
 5406SOL     OW17991   9.282  10.610   4.861
 5406SOL    HW117992   9.213  10.548   4.840
 5406SOL    HW217993   9.241  10.673   4.921
 5407SOL     OW17994   3.371  12.816   1.641
 5407SOL    HW117995   3.353  12.722   1.631
 5407SOL    HW217996   3.338  12.855   1.560
 5408SOL     OW17997  11.171   5.482   6.628
 5408SOL    HW117998  11.114   5.495   6.552
 5408SOL    HW217999  11.136   5.403   6.670
 5409SOL     OW18000  14.405  14.335  10.150
 5409SOL    HW118001  14.389  14.429  10.149
 5409SOL    HW218002  14.481  14.324  10.207
 5410SOL     OW18003  12.689  13.903   2.765
 5410SOL    HW118004  12.602  13.934   2.789
 5410SOL    HW218005  12.721  13.856   2.842
 5411SOL     OW18006   7.011   2.675   0.264
 5411SOL    HW118007   6.962   2.593   0.267
 5411SOL    HW218008   7.036   2.691   0.356
 5412SOL     OW18009   6.036   3.105   1.409
 5412SOL    HW118010   6.072   3.193   1.421
 5412SOL    HW218011   5.945   3.120   1.381
 5413SOL     OW18012  10.970   9.669   6.141
 5413SOL    HW118013  11.013   9.754   6.137
 5413SOL    HW218014  11.008   9.619   6.069
 5414SOL     OW18015   3.787  14.375   8.611
 5414SOL    HW118016   3.783  14.444   8.677
 5414SOL    HW218017   3.784  14.294   8.661
 5415SOL     OW18018   9.916   8.110   7.090
 5415SOL    HW118019   9.905   8.018   7.065
 5415SOL    HW218020   9.996   8.138   7.047
 5416SOL     OW18021  12.086   5.539   2.959
 5416SOL    HW118022  12.170   5.498   2.937
 5416SOL    HW218023  12.050   5.483   3.027
 5417SOL     OW18024  11.229   5.860  11.218
 5417SOL    HW118025  11.238   5.892  11.128
 5417SOL    HW218026  11.154   5.908  11.253
 5418SOL     OW18027  13.087   8.880   0.999
 5418SOL    HW118028  13.152   8.834   0.947
 5418SOL    HW218029  13.084   8.968   0.961
 5419SOL     OW18030   6.170   7.094   5.262
 5419SOL    HW118031   6.138   7.009   5.231
 5419SOL    HW218032   6.093   7.151   5.260
 5420SOL     OW18033   9.577   8.863  11.819
 5420SOL    HW118034   9.649   8.922  11.796
 5420SOL    HW218035   9.555   8.886  11.909
 5421SOL     OW18036   6.553   8.922   5.159
 5421SOL    HW118037   6.480   8.878   5.115
 5421SOL    HW218038   6.571   8.999   5.105
 5422SOL     OW18039   4.315   0.947   2.541
 5422SOL    HW118040   4.395   0.978   2.499
 5422SOL    HW218041   4.317   0.852   2.529
 5423SOL     OW18042  10.198   4.547   3.329
 5423SOL    HW118043  10.124   4.525   3.272
 5423SOL    HW218044  10.189   4.641   3.345
 5424SOL     OW18045   0.173   0.114   9.650
 5424SOL    HW118046   0.259   0.110   9.609
 5424SOL    HW218047   0.122   0.173   9.594
 5425SOL     OW18048   7.223  14.857  13.895
 5425SOL    HW118049   7.294  14.806  13.858
 5425SOL    HW218050   7.223   0.061  13.846
 5426SOL     OW18051   5.794   2.794   9.922
 5426SOL    HW118052   5.710   2.760   9.890
 5426SOL    HW218053   5.855   2.779   9.850
 5427SOL     OW18054   8.511   9.195   7.180
 5427SOL    HW118055   8.530   9.104   7.160
 5427SOL    HW218056   8.533   9.205   7.272
 5428SOL     OW18057   3.324   3.932  10.234
 5428SOL    HW118058   3.340   3.983  10.154
 5428SOL    HW218059   3.248   3.877  10.213
 5429SOL     OW18060   7.228  12.165   8.640
 5429SOL    HW118061   7.287  12.145   8.713
 5429SOL    HW218062   7.259  12.248   8.606
 5430SOL     OW18063   8.579  11.664   8.310
 5430SOL    HW118064   8.504  11.658   8.369
 5430SOL    HW218065   8.650  11.621   8.357
 5431SOL     OW18066  10.593   3.275  11.930
 5431SOL    HW118067  10.663   3.340  11.939
 5431SOL    HW218068  10.620   3.221  11.856
 5432SOL     OW18069   4.391  11.582   5.837
 5432SOL    HW118070   4.341  11.593   5.918
 5432SOL    HW218071   4.344  11.515   5.788
 5433SOL     OW18072   2.653  13.025  13.787
 5433SOL    HW118073   2.656  12.978  13.704
 5433SOL    HW218074   2.578  13.083  13.779
 5434SOL     OW18075   5.840   8.221   1.940
 5434SOL    HW118076   5.849   8.298   1.885
 5434SOL    HW218077   5.756   8.182   1.915
 5435SOL     OW18078  11.200   9.687  11.491
 5435SOL    HW118079  11.178   9.780  11.493
 5435SOL    HW218080  11.123   9.646  11.450
 5436SOL     OW18081   3.552   8.301   1.261
 5436SOL    HW118082   3.576   8.298   1.168
 5436SOL    HW218083   3.521   8.212   1.281
 5437SOL     OW18084   1.952   4.551   0.327
 5437SOL    HW118085   1.872   4.517   0.287
 5437SOL    HW218086   1.930   4.563   0.419
 5438SOL     OW18087   4.953   8.031  11.886
 5438SOL    HW118088   4.923   7.952  11.839
 5438SOL    HW218089   5.003   7.997  11.960
 5439SOL     OW18090  13.395   1.132  14.030
 5439SOL    HW118091  13.299   1.135  14.023
 5439SOL    HW218092  13.413   1.166  14.117
 5440SOL     OW18093   1.204   9.347   8.794
 5440SOL    HW118094   1.235   9.389   8.875
 5440SOL    HW218095   1.128   9.296   8.821
 5441SOL     OW18096   5.614   4.967  12.555
 5441SOL    HW118097   5.640   4.875  12.544
 5441SOL    HW218098   5.684   5.004  12.610
 5442SOL     OW18099   0.724  12.747   6.348
 5442SOL    HW118100   0.656  12.732   6.283
 5442SOL    HW218101   0.729  12.843   6.356
 5443SOL     OW18102   5.441  14.426  11.393
 5443SOL    HW118103   5.498  14.407  11.318
 5443SOL    HW218104   5.477  14.505  11.431
 5444SOL     OW18105   0.191  12.370  12.149
 5444SOL    HW118106   0.116  12.331  12.105
 5444SOL    HW218107   0.245  12.296  12.175
 5445SOL     OW18108   3.647   6.841   4.375
 5445SOL    HW118109   3.552   6.842   4.378
 5445SOL    HW218110   3.674   6.889   4.453
 5446SOL     OW18111   6.451   2.003  12.562
 5446SOL    HW118112   6.512   2.042  12.500
 5446SOL    HW218113   6.490   1.918  12.584
 5447SOL     OW18114  11.024   1.772   9.637
 5447SOL    HW118115  11.084   1.698   9.649
 5447SOL    HW218116  10.937   1.734   9.652
 5448SOL     OW18117  11.471   4.261  11.648
 5448SOL    HW118118  11.541   4.198  11.629
 5448SOL    HW218119  11.510   4.323  11.709
 5449SOL     OW18120  14.675   2.672   8.117
 5449SOL    HW118121  14.664   2.765   8.136
 5449SOL    HW218122  14.598   2.630   8.157
 5450SOL     OW18123   1.605   7.718   1.517
 5450SOL    HW118124   1.687   7.695   1.472
 5450SOL    HW218125   1.632   7.778   1.587
 5451SOL     OW18126   1.209  13.947   0.609
 5451SOL    HW118127   1.157  13.916   0.683
 5451SOL    HW218128   1.277  13.881   0.597
 5452SOL     OW18129   1.667  11.862   3.895
 5452SOL    HW118130   1.727  11.788   3.882
 5452SOL    HW218131   1.661  11.871   3.990
 5453SOL     OW18132   7.999   2.237   4.029
 5453SOL    HW118133   8.052   2.158   4.038
 5453SOL    HW218134   8.059   2.309   4.051
 5454SOL     OW18135  13.125   3.598   5.759
 5454SOL    HW118136  13.033   3.592   5.734
 5454SOL    HW218137  13.161   3.512   5.740
 5455SOL     OW18138  13.870  11.440   4.908
 5455SOL    HW118139  13.874  11.534   4.886
 5455SOL    HW218140  13.857  11.438   5.003
 5456SOL     OW18141   2.938   8.013  11.809
 5456SOL    HW118142   3.004   8.044  11.747
 5456SOL    HW218143   2.974   8.035  11.895
 5457SOL     OW18144   3.860   8.615   7.263
 5457SOL    HW118145   3.859   8.566   7.181
 5457SOL    HW218146   3.818   8.557   7.326
 5458SOL     OW18147   4.914   3.517  11.923
 5458SOL    HW118148   4.992   3.572  11.931
 5458SOL    HW218149   4.844   3.568  11.963
 5459SOL     OW18150   7.449  14.430  10.585
 5459SOL    HW118151   7.421  14.353  10.536
 5459SOL    HW218152   7.376  14.448  10.645
 5460SOL     OW18153   0.223   9.435   6.333
 5460SOL    HW118154   0.213   9.394   6.247
 5460SOL    HW218155   0.197   9.368   6.396
 5461SOL     OW18156   9.582  12.863  13.480
 5461SOL    HW118157   9.593  12.892  13.390
 5461SOL    HW218158   9.617  12.774  13.481
 5462SOL     OW18159   8.680  13.339   8.336
 5462SOL    HW118160   8.702  13.248   8.359
 5462SOL    HW218161   8.637  13.332   8.250
 5463SOL     OW18162   9.678   9.188   7.173
 5463SOL    HW118163   9.690   9.181   7.079
 5463SOL    HW218164   9.698   9.101   7.207
 5464SOL     OW18165   3.672  12.717   1.906
 5464SOL    HW118166   3.708  12.805   1.897
 5464SOL    HW218167   3.676  12.680   1.817
 5465SOL     OW18168   5.001   0.482  11.557
 5465SOL    HW118169   4.982   0.575  11.546
 5465SOL    HW218170   4.937   0.451  11.621
 5466SOL     OW18171   2.534   0.092   8.573
 5466SOL    HW118172   2.581   0.129   8.648
 5466SOL    HW218173   2.572   0.135   8.496
 5467SOL     OW18174   1.492  11.480   5.092
 5467SOL    HW118175   1.570  11.530   5.114
 5467SOL    HW218176   1.473  11.430   5.171
 5468SOL     OW18177   9.478  14.085  14.136
 5468SOL    HW118178   9.567  14.078  14.102
 5468SOL    HW218179   9.450  14.174  14.114
 5469SOL     OW18180  13.077  13.422   8.234
 5469SOL    HW118181  13.125  13.501   8.210
 5469SOL    HW218182  12.995  13.428   8.185
 5470SOL     OW18183   1.575   4.551  11.615
 5470SOL    HW118184   1.662   4.533  11.653
 5470SOL    HW218185   1.518   4.561  11.691
 5471SOL     OW18186   1.399  14.022  10.734
 5471SOL    HW118187   1.489  14.052  10.750
 5471SOL    HW218188   1.355  14.098  10.695
 5472SOL     OW18189  10.435   8.269  13.402
 5472SOL    HW118190  10.439   8.192  13.344
 5472SOL    HW218191  10.401   8.339  13.346
 5473SOL     OW18192   7.636   5.690   8.563
 5473SOL    HW118193   7.721   5.650   8.546
 5473SOL    HW218194   7.654   5.783   8.573
 5474SOL     OW18195  12.118   7.687  10.563
 5474SOL    HW118196  12.112   7.716  10.654
 5474SOL    HW218197  12.115   7.767  10.511
 5475SOL     OW18198   4.371   8.819   3.676
 5475SOL    HW118199   4.354   8.866   3.758
 5475SOL    HW218200   4.467   8.818   3.669
 5476SOL     OW18201   0.635  12.852   0.419
 5476SOL    HW118202   0.630  12.887   0.330
 5476SOL    HW218203   0.549  12.811   0.434
 5477SOL     OW18204   5.941   6.637  14.293
 5477SOL    HW118205   6.032   6.631  14.262
 5477SOL    HW218206   5.948   6.667  14.383
 5478SOL     OW18207  13.150   1.882   5.205
 5478SOL    HW118208  13.127   1.918   5.291
 5478SOL    HW218209  13.213   1.944   5.169
 5479SOL     OW18210   3.168   0.946  13.879
 5479SOL    HW118211   3.253   0.967  13.919
 5479SOL    HW218212   3.123   1.030  13.874
 5480SOL     OW18213  10.916  12.617   9.749
 5480SOL    HW118214  10.881  12.529   9.740
 5480SOL    HW218215  10.954  12.637   9.663
 5481SOL     OW18216   9.235  14.365  11.129
 5481SOL    HW118217   9.271  14.371  11.218
 5481SOL    HW218218   9.299  14.314  11.080
 5482SOL     OW18219   9.815  13.002   7.494
 5482SOL    HW118220   9.855  12.963   7.415
 5482SOL    HW218221   9.886  13.003   7.558
 5483SOL     OW18222   7.630   9.558  10.596
 5483SOL    HW118223   7.566   9.491  10.621
 5483SOL    HW218224   7.592   9.600  10.519
 5484SOL     OW18225   0.764   2.822  10.635
 5484SOL    HW118226   0.711   2.862  10.705
 5484SOL    HW218227   0.799   2.742  10.675
 5485SOL     OW18228   2.496   2.825   8.156
 5485SOL    HW118229   2.437   2.791   8.223
 5485SOL    HW218230   2.480   2.920   8.156
 5486SOL     OW18231   0.282  10.838   2.493
 5486SOL    HW118232   0.255  10.928   2.507
 5486SOL    HW218233   0.247  10.816   2.406
 5487SOL     OW18234  10.470   2.297   2.579
 5487SOL    HW118235  10.552   2.347   2.581
 5487SOL    HW218236  10.430   2.312   2.665
 5488SOL     OW18237  12.887   6.014  13.700
 5488SOL    HW118238  12.906   6.107  13.716
 5488SOL    HW218239  12.869   5.979  13.787
 5489SOL     OW18240  12.960  11.984   9.047
 5489SOL    HW118241  13.056  11.988   9.042
 5489SOL    HW218242  12.934  12.071   9.078
 5490SOL     OW18243   5.183   2.011   4.992
 5490SOL    HW118244   5.115   2.077   5.009
 5490SOL    HW218245   5.245   2.022   5.064
 5491SOL     OW18246  10.114  10.586   6.499
 5491SOL    HW118247  10.194  10.602   6.449
 5491SOL    HW218248  10.068  10.670   6.498
 5492SOL     OW18249   9.927   2.889   2.308
 5492SOL    HW118250  10.000   2.839   2.344
 5492SOL    HW218251   9.908   2.846   2.224
 5493SOL     OW18252   7.476  12.003   3.964
 5493SOL    HW118253   7.495  11.931   3.903
 5493SOL    HW218254   7.462  11.959   4.048
 5494SOL     OW18255   9.519  13.537   8.181
 5494SOL    HW118256   9.514  13.540   8.085
 5494SOL    HW218257   9.602  13.493   8.199
 5495SOL     OW18258  14.660   3.412   5.537
 5495SOL    HW118259  14.723   3.389   5.605
 5495SOL    HW218260  14.714   3.437   5.461
 5496SOL     OW18261   4.444  10.017   1.005
 5496SOL    HW118262   4.393  10.097   1.004
 5496SOL    HW218263   4.505  10.028   1.079
 5497SOL     OW18264   6.579   4.617   4.283
 5497SOL    HW118265   6.674   4.630   4.286
 5497SOL    HW218266   6.545   4.702   4.254
 5498SOL     OW18267   7.513  11.319  11.695
 5498SOL    HW118268   7.487  11.403  11.656
 5498SOL    HW218269   7.503  11.333  11.790
 5499SOL     OW18270   9.169  12.908   2.252
 5499SOL    HW118271   9.219  12.969   2.306
 5499SOL    HW218272   9.213  12.824   2.263
 5500SOL     OW18273   1.172  12.179   5.634
 5500SOL    HW118274   1.112  12.117   5.675
 5500SOL    HW218275   1.212  12.130   5.562
 5501SOL     OW18276   1.309   8.733   8.271
 5501SOL    HW118277   1.383   8.793   8.281
 5501SOL    HW218278   1.254   8.750   8.348
 5502SOL     OW18279   9.300   8.875   3.845
 5502SOL    HW118280   9.274   8.967   3.839
 5502SOL    HW218281   9.393   8.876   3.824
 5503SOL     OW18282  11.040   3.465   5.523
 5503SOL    HW118283  11.050   3.411   5.602
 5503SOL    HW218284  11.123   3.453   5.476
 5504SOL     OW18285   5.944   1.133  14.349
 5504SOL    HW118286   5.963   1.092  14.265
 5504SOL    HW218287   6.011   1.201  14.358
 5505SOL     OW18288   1.653   4.591   7.737
 5505SOL    HW118289   1.645   4.680   7.772
 5505SOL    HW218290   1.703   4.543   7.803
 5506SOL     OW18291   1.170  10.726   4.434
 5506SOL    HW118292   1.151  10.809   4.391
 5506SOL    HW218293   1.087  10.678   4.431
 5507SOL     OW18294  14.022  11.602   9.224
 5507SOL    HW118295  13.960  11.569   9.160
 5507SOL    HW218296  13.971  11.664   9.277
 5508SOL     OW18297   2.129  12.858  11.123
 5508SOL    HW118298   2.043  12.888  11.153
 5508SOL    HW218299   2.126  12.867  11.028
 5509SOL     OW18300  10.306   8.452   1.387
 5509SOL    HW118301  10.312   8.501   1.469
 5509SOL    HW218302  10.373   8.491   1.331
 5510SOL     OW18303   0.814  13.653   0.074
 5510SOL    HW118304   0.754  13.626   0.004
 5510SOL    HW218305   0.901  13.630   0.041
 5511SOL     OW18306  11.883  13.829  14.507
 5511SOL    HW118307  11.906  13.869  14.423
 5511SOL    HW218308  11.905  13.737  14.496
 5512SOL     OW18309   7.136   9.231  12.384
 5512SOL    HW118310   7.096   9.152  12.348
 5512SOL    HW218311   7.118   9.226  12.478
 5513SOL     OW18312  12.492   2.252   7.715
 5513SOL    HW118313  12.406   2.294   7.709
 5513SOL    HW218314  12.511   2.251   7.809
 5514SOL     OW18315   6.485   7.146  14.330
 5514SOL    HW118316   6.413   7.152  14.393
 5514SOL    HW218317   6.468   7.216  14.267
 5515SOL     OW18318   8.680   2.486   3.313
 5515SOL    HW118319   8.667   2.411   3.372
 5515SOL    HW218320   8.591   2.515   3.292
 5516SOL     OW18321   3.295  14.135   5.149
 5516SOL    HW118322   3.235  14.206   5.172
 5516SOL    HW218323   3.238  14.060   5.132
 5517SOL     OW18324   9.792  12.165   0.048
 5517SOL    HW118325   9.762  12.254   0.065
 5517SOL    HW218326   9.724  12.109   0.084
 5518SOL     OW18327   6.963   3.777   5.415
 5518SOL    HW118328   6.950   3.712   5.346
 5518SOL    HW218329   6.978   3.725   5.494
 5519SOL     OW18330  10.850  12.535   6.709
 5519SOL    HW118331  10.915  12.472   6.741
 5519SOL    HW218332  10.825  12.586   6.786
 5520SOL     OW18333  14.422   1.920  11.681
 5520SOL    HW118334  14.454   1.860  11.613
 5520SOL    HW218335  14.500   1.945  11.730
 5521SOL     OW18336   6.575   0.305  11.281
 5521SOL    HW118337   6.509   0.314  11.349
 5521SOL    HW218338   6.658   0.321  11.326
 5522SOL     OW18339   9.413  10.635  10.945
 5522SOL    HW118340   9.357  10.559  10.956
 5522SOL    HW218341   9.354  10.706  10.922
 5523SOL     OW18342  11.124   2.766  13.892
 5523SOL    HW118343  11.191   2.796  13.831
 5523SOL    HW218344  11.078   2.697  13.844
 5524SOL     OW18345   1.442   8.479   4.276
 5524SOL    HW118346   1.531   8.500   4.305
 5524SOL    HW218347   1.447   8.387   4.250
 5525SOL     OW18348   0.315   4.648  14.061
 5525SOL    HW118349   0.355   4.734  14.072
 5525SOL    HW218350   0.274   4.629  14.145
 5526SOL     OW18351  14.660   2.311   9.984
 5526SOL    HW118352  14.571   2.326   9.952
 5526SOL    HW218353  14.697   2.249   9.923
 5527SOL     OW18354   8.023   4.435   4.839
 5527SOL    HW118355   8.050   4.491   4.912
 5527SOL    HW218356   7.939   4.472   4.810
 5528SOL     OW18357   4.569   3.248  11.579
 5528SOL    HW118358   4.523   3.181  11.529
 5528SOL    HW218359   4.596   3.203  11.659
 5529SOL     OW18360  14.079  14.871   1.318
 5529SOL    HW118361  14.125  14.821   1.251
 5529SOL    HW218362  14.078  14.814   1.395
 5530SOL     OW18363  13.997   4.484   7.358
 5530SOL    HW118364  14.079   4.532   7.359
 5530SOL    HW218365  13.934   4.544   7.319
 5531SOL     OW18366   3.118  11.978   9.969
 5531SOL    HW118367   3.164  12.024  10.039
 5531SOL    HW218368   3.162  12.005   9.889
 5532SOL     OW18369  12.501  10.034  11.031
 5532SOL    HW118370  12.555   9.991  10.965
 5532SOL    HW218371  12.457   9.962  11.077
 5533SOL     OW18372  13.956  10.274   3.526
 5533SOL    HW118373  13.862  10.254   3.519
 5533SOL    HW218374  13.973  10.332   3.452
 5534SOL     OW18375   2.263   4.633   5.614
 5534SOL    HW118376   2.319   4.556   5.608
 5534SOL    HW218377   2.257   4.651   5.708
 5535SOL     OW18378   9.747   1.604   6.313
 5535SOL    HW118379   9.698   1.522   6.300
 5535SOL    HW218380   9.794   1.590   6.396
 5536SOL     OW18381   3.794   4.516  12.336
 5536SOL    HW118382   3.867   4.524  12.397
 5536SOL    HW218383   3.833   4.529  12.249
 5537SOL     OW18384  10.729   7.257   7.352
 5537SOL    HW118385  10.634   7.241   7.355
 5537SOL    HW218386  10.768   7.172   7.371
 5538SOL     OW18387   0.082   4.174  12.158
 5538SOL    HW118388   0.137   4.204  12.086
 5538SOL    HW218389   0.011   4.239  12.162
 5539SOL     OW18390  12.027   2.438   7.985
 5539SOL    HW118391  12.097   2.428   8.049
 5539SOL    HW218392  11.998   2.529   7.996
 5540SOL     OW18393   4.168   6.019   0.394
 5540SOL    HW118394   4.181   5.926   0.375
 5540SOL    HW218395   4.132   6.056   0.313
 5541SOL     OW18396  11.897   1.681  10.370
 5541SOL    HW118397  11.937   1.680  10.282
 5541SOL    HW218398  11.934   1.759  10.411
 5542SOL     OW18399   7.242  12.465   1.820
 5542SOL    HW118400   7.192  12.403   1.767
 5542SOL    HW218401   7.326  12.474   1.774
 5543SOL     OW18402   1.146   2.932  10.772
 5543SOL    HW118403   1.122   3.023  10.754
 5543SOL    HW218404   1.177   2.898  10.688
 5544SOL     OW18405   7.930   5.214   0.126
 5544SOL    HW118406   7.978   5.135   0.100
 5544SOL    HW218407   7.963   5.282   0.066
 5545SOL     OW18408   4.841   1.187   2.099
 5545SOL    HW118409   4.929   1.207   2.131
 5545SOL    HW218410   4.840   1.091   2.091
 5546SOL     OW18411   0.521   3.820   2.669
 5546SOL    HW118412   0.471   3.777   2.600
 5546SOL    HW218413   0.455   3.856   2.728
 5547SOL     OW18414   5.862  14.445   3.180
 5547SOL    HW118415   5.873  14.367   3.124
 5547SOL    HW218416   5.767  14.455   3.188
 5548SOL     OW18417   7.100   1.228  13.624
 5548SOL    HW118418   7.074   1.279  13.547
 5548SOL    HW218419   7.019   1.213  13.672
 5549SOL     OW18420   3.843   4.115   0.412
 5549SOL    HW118421   3.755   4.145   0.392
 5549SOL    HW218422   3.871   4.168   0.487
 5550SOL     OW18423  12.358   4.024  13.118
 5550SOL    HW118424  12.440   4.017  13.069
 5550SOL    HW218425  12.385   4.023  13.210
 5551SOL     OW18426   5.190   7.634   6.116
 5551SOL    HW118427   5.261   7.579   6.148
 5551SOL    HW218428   5.212   7.650   6.024
 5552SOL     OW18429   6.642   3.813  14.561
 5552SOL    HW118430   6.724   3.858  14.544
 5552SOL    HW218431   6.637   3.806  14.656
 5553SOL     OW18432   3.534  11.742   7.029
 5553SOL    HW118433   3.573  11.707   6.949
 5553SOL    HW218434   3.478  11.814   6.999
 5554SOL     OW18435   3.462  13.961   0.134
 5554SOL    HW118436   3.377  13.963   0.178
 5554SOL    HW218437   3.448  14.011   0.053
 5555SOL     OW18438   1.161   5.351  14.753
 5555SOL    HW118439   1.133   5.398  14.675
 5555SOL    HW218440   1.241   5.305  14.726
 5556SOL     OW18441  12.073   4.333   3.860
 5556SOL    HW118442  11.996   4.325   3.802
 5556SOL    HW218443  12.042   4.385   3.934
 5557SOL     OW18444  11.306  12.852   9.914
 5557SOL    HW118445  11.268  12.830   9.999
 5557SOL    HW218446  11.294  12.947   9.907
 5558SOL     OW18447   0.702   4.078   4.930
 5558SOL    HW118448   0.628   4.019   4.920
 5558SOL    HW218449   0.687   4.121   5.014
 5559SOL     OW18450   0.437  11.615   1.449
 5559SOL    HW118451   0.479  11.541   1.491
 5559SOL    HW218452   0.372  11.646   1.513
 5560SOL     OW18453   0.838   3.106   7.232
 5560SOL    HW118454   0.794   3.084   7.314
 5560SOL    HW218455   0.784   3.176   7.194
 5561SOL     OW18456   5.869   1.799   0.217
 5561SOL    HW118457   5.822   1.719   0.193
 5561SOL    HW218458   5.961   1.771   0.220
 5562SOL     OW18459   8.540   8.421   0.753
 5562SOL    HW118460   8.468   8.360   0.733
 5562SOL    HW218461   8.497   8.501   0.782
 5563SOL     OW18462   2.974  12.974   1.810
 5563SOL    HW118463   2.958  13.059   1.850
 5563SOL    HW218464   3.050  12.939   1.857
 5564SOL     OW18465  12.768   1.870  13.836
 5564SOL    HW118466  12.726   1.855  13.751
 5564SOL    HW218467  12.857   1.837  13.824
 5565SOL     OW18468   2.743   9.644  11.788
 5565SOL    HW118469   2.785   9.609  11.866
 5565SOL    HW218470   2.670   9.697  11.821
 5566SOL     OW18471  12.983  14.703  12.898
 5566SOL    HW118472  12.946  14.668  12.817
 5566SOL    HW218473  12.907  14.724  12.952
 5567SOL     OW18474  14.030  12.542   4.379
 5567SOL    HW118475  14.036  12.447   4.383
 5567SOL    HW218476  13.994  12.567   4.465
 5568SOL     OW18477   3.251   8.139   5.093
 5568SOL    HW118478   3.173   8.186   5.121
 5568SOL    HW218479   3.319   8.206   5.086
 5569SOL     OW18480   3.397   1.084  11.503
 5569SOL    HW118481   3.352   1.168  11.495
 5569SOL    HW218482   3.328   1.018  11.495
 5570SOL     OW18483   2.015  12.209  14.043
 5570SOL    HW118484   2.092  12.263  14.028
 5570SOL    HW218485   2.031  12.166  14.127
 5571SOL     OW18486  11.446   5.762   0.422
 5571SOL    HW118487  11.376   5.717   0.374
 5571SOL    HW218488  11.518   5.769   0.360
 5572SOL     OW18489  10.536   5.787   4.657
 5572SOL    HW118490  10.456   5.739   4.677
 5572SOL    HW218491  10.516   5.878   4.677
 5573SOL     OW18492  12.915  14.505   0.516
 5573SOL    HW118493  12.901  14.436   0.580
 5573SOL    HW218494  12.946  14.459   0.438
 5574SOL     OW18495   8.758   5.171  13.253
 5574SOL    HW118496   8.779   5.170  13.346
 5574SOL    HW218497   8.685   5.109  13.244
 5575SOL     OW18498   3.548  13.658  10.382
 5575SOL    HW118499   3.561  13.711  10.461
 5575SOL    HW218500   3.524  13.722  10.315
 5576SOL     OW18501   1.861  12.680  11.790
 5576SOL    HW118502   1.786  12.620  11.791
 5576SOL    HW218503   1.911  12.654  11.713
 5577SOL     OW18504   1.451  12.171   4.433
 5577SOL    HW118505   1.391  12.213   4.494
 5577SOL    HW218506   1.429  12.078   4.438
 5578SOL     OW18507   3.299   2.628  12.069
 5578SOL    HW118508   3.238   2.612  12.141
 5578SOL    HW218509   3.261   2.581  11.995
 5579SOL     OW18510   3.861   6.441   3.133
 5579SOL    HW118511   3.826   6.463   3.220
 5579SOL    HW218512   3.889   6.350   3.141
 5580SOL     OW18513   5.098   5.808   6.106
 5580SOL    HW118514   5.041   5.759   6.165
 5580SOL    HW218515   5.174   5.751   6.094
 5581SOL     OW18516   4.173  11.930  13.272
 5581SOL    HW118517   4.223  11.851  13.251
 5581SOL    HW218518   4.236  11.988  13.314
 5582SOL     OW18519   5.958   2.698   5.557
 5582SOL    HW118520   5.878   2.726   5.601
 5582SOL    HW218521   5.988   2.623   5.608
 5583SOL     OW18522   1.001   2.953   1.620
 5583SOL    HW118523   1.073   2.927   1.678
 5583SOL    HW218524   0.993   3.048   1.633
 5584SOL     OW18525   0.664   3.826   3.454
 5584SOL    HW118526   0.744   3.879   3.454
 5584SOL    HW218527   0.609   3.865   3.521
 5585SOL     OW18528  10.379   1.003   0.725
 5585SOL    HW118529  10.470   1.034   0.723
 5585SOL    HW218530  10.353   1.014   0.817
 5586SOL     OW18531   1.606   4.035  13.514
 5586SOL    HW118532   1.574   4.125  13.514
 5586SOL    HW218533   1.660   4.029  13.593
 5587SOL     OW18534   1.017   6.050   4.097
 5587SOL    HW118535   1.016   6.146   4.099
 5587SOL    HW218536   1.094   6.026   4.148
 5588SOL     OW18537   0.311   8.995   7.128
 5588SOL    HW118538   0.376   9.035   7.071
 5588SOL    HW218539   0.362   8.938   7.187
 5589SOL     OW18540   4.744   7.280   9.569
 5589SOL    HW118541   4.659   7.260   9.530
 5589SOL    HW218542   4.742   7.234   9.654
 5590SOL     OW18543   2.870  12.179  10.560
 5590SOL    HW118544   2.966  12.174  10.567
 5590SOL    HW218545   2.847  12.263  10.601
 5591SOL     OW18546  12.348  14.012   8.966
 5591SOL    HW118547  12.424  14.010   9.024
 5591SOL    HW218548  12.277  13.975   9.018
 5592SOL     OW18549  14.593   2.565  10.484
 5592SOL    HW118550  14.610   2.639  10.542
 5592SOL    HW218551  14.501   2.543  10.500
 5593SOL     OW18552  11.133  13.443   9.193
 5593SOL    HW118553  11.075  13.372   9.218
 5593SOL    HW218554  11.200  13.402   9.139
 5594SOL     OW18555   2.979  13.873  11.456
 5594SOL    HW118556   3.014  13.784  11.465
 5594SOL    HW218557   2.894  13.869  11.499
 5595SOL     OW18558   6.790  13.269   5.832
 5595SOL    HW118559   6.703  13.294   5.862
 5595SOL    HW218560   6.815  13.336   5.768
 5596SOL     OW18561   5.018   8.910   0.071
 5596SOL    HW118562   5.019   9.002   0.100
 5596SOL    HW218563   5.011   8.860   0.152
 5597SOL     OW18564   2.818  12.636  11.532
 5597SOL    HW118565   2.903  12.667  11.500
 5597SOL    HW218566   2.780  12.591  11.457
 5598SOL     OW18567  11.961   4.411  10.308
 5598SOL    HW118568  11.913   4.469  10.249
 5598SOL    HW218569  12.039   4.386  10.259
 5599SOL     OW18570   1.747   8.535   4.222
 5599SOL    HW118571   1.727   8.629   4.215
 5599SOL    HW218572   1.842   8.530   4.213
 5600SOL     OW18573   6.319   2.332   0.654
 5600SOL    HW118574   6.229   2.362   0.648
 5600SOL    HW218575   6.325   2.262   0.589
 5601SOL     OW18576  11.233   2.483  10.018
 5601SOL    HW118577  11.141   2.507  10.013
 5601SOL    HW218578  11.276   2.538   9.952
 5602SOL     OW18579   6.375   9.243  12.208
 5602SOL    HW118580   6.429   9.191  12.268
 5602SOL    HW218581   6.317   9.293  12.266
 5603SOL     OW18582   1.877   6.170  12.426
 5603SOL    HW118583   1.916   6.210  12.504
 5603SOL    HW218584   1.852   6.244  12.371
 5604SOL     OW18585   9.567   8.979   6.622
 5604SOL    HW118586   9.557   8.889   6.653
 5604SOL    HW218587   9.623   8.972   6.545
 5605SOL     OW18588   2.366  12.512   6.129
 5605SOL    HW118589   2.460  12.497   6.129
 5605SOL    HW218590   2.335  12.465   6.207
 5606SOL     OW18591  14.822  13.773   2.679
 5606SOL    HW118592  14.877  13.699   2.703
 5606SOL    HW218593  14.743  13.763   2.732
 5607SOL     OW18594   1.974  14.319   2.132
 5607SOL    HW118595   2.046  14.361   2.087
 5607SOL    HW218596   1.895  14.360   2.096
 5608SOL     OW18597   3.877   0.164  12.071
 5608SOL    HW118598   3.801   0.211  12.037
 5608SOL    HW218599   3.927   0.140  11.993
 5609SOL     OW18600   5.179   7.625   8.469
 5609SOL    HW118601   5.121   7.597   8.398
 5609SOL    HW218602   5.266   7.626   8.429
 5610SOL     OW18603   8.098  10.908   5.640
 5610SOL    HW118604   8.111  10.901   5.545
 5610SOL    HW218605   8.011  10.946   5.649
 5611SOL     OW18606   0.616   4.073  11.481
 5611SOL    HW118607   0.586   3.993  11.524
 5611SOL    HW218608   0.580   4.067  11.393
 5612SOL     OW18609   9.142   8.685   7.508
 5612SOL    HW118610   9.193   8.612   7.544
 5612SOL    HW218611   9.147   8.754   7.575
 5613SOL     OW18612   9.088  10.956  11.335
 5613SOL    HW118613   9.131  10.902  11.268
 5613SOL    HW218614   9.060  11.034  11.288
 5614SOL     OW18615  12.896   9.249  13.517
 5614SOL    HW118616  12.953   9.181  13.553
 5614SOL    HW218617  12.953   9.303  13.463
 5615SOL     OW18618   9.282   8.072  10.691
 5615SOL    HW118619   9.189   8.054  10.678
 5615SOL    HW218620   9.295   8.066  10.786
 5616SOL     OW18621   9.142   4.200   7.928
 5616SOL    HW118622   9.080   4.141   7.885
 5616SOL    HW218623   9.228   4.173   7.894
 5617SOL     OW18624   7.290   3.823  14.194
 5617SOL    HW118625   7.308   3.734  14.223
 5617SOL    HW218626   7.351   3.878  14.244
 5618SOL     OW18627  14.233   2.233   5.377
 5618SOL    HW118628  14.321   2.235   5.340
 5618SOL    HW218629  14.226   2.148   5.419
 5619SOL     OW18630   0.811   1.134   8.020
 5619SOL    HW118631   0.769   1.219   8.029
 5619SOL    HW218632   0.754   1.086   7.959
 5620SOL     OW18633  10.924   0.426   2.566
 5620SOL    HW118634  10.886   0.429   2.653
 5620SOL    HW218635  10.864   0.477   2.511
 5621SOL     OW18636   8.876   0.868   9.156
 5621SOL    HW118637   8.898   0.775   9.150
 5621SOL    HW218638   8.904   0.894   9.244
 5622SOL     OW18639   8.611   0.509   3.718
 5622SOL    HW118640   8.647   0.552   3.796
 5622SOL    HW218641   8.624   0.573   3.647
 5623SOL     OW18642   2.645   6.228  11.741
 5623SOL    HW118643   2.589   6.151  11.745
 5623SOL    HW218644   2.633   6.262  11.652
 5624SOL     OW18645   9.912  12.408  14.121
 5624SOL    HW118646   9.831  12.399  14.071
 5624SOL    HW218647   9.977  12.358  14.070
 5625SOL     OW18648   4.298   7.874   3.868
 5625SOL    HW118649   4.253   7.833   3.942
 5625SOL    HW218650   4.242   7.947   3.843
 5626SOL     OW18651   1.986   8.904   3.290
 5626SOL    HW118652   2.063   8.849   3.280
 5626SOL    HW218653   1.963   8.931   3.201
 5627SOL     OW18654  11.507   8.991   9.926
 5627SOL    HW118655  11.435   9.052   9.914
 5627SOL    HW218656  11.526   8.958   9.838
 5628SOL     OW18657   9.610   6.311   4.657
 5628SOL    HW118658   9.642   6.236   4.708
 5628SOL    HW218659   9.528   6.281   4.619
 5629SOL     OW18660   7.115   1.431   3.758
 5629SOL    HW118661   7.117   1.390   3.672
 5629SOL    HW218662   7.201   1.472   3.767
 5630SOL     OW18663  14.507   7.652   9.016
 5630SOL    HW118664  14.445   7.709   9.062
 5630SOL    HW218665  14.558   7.611   9.086
 5631SOL     OW18666   0.275  13.206   8.965
 5631SOL    HW118667   0.221  13.166   8.896
 5631SOL    HW218668   0.214  13.261   9.014
 5632SOL     OW18669   4.597   0.148  13.349
 5632SOL    HW118670   4.566   0.231  13.384
 5632SOL    HW218671   4.636   0.103  13.424
 5633SOL     OW18672   4.071   4.556   2.239
 5633SOL    HW118673   4.050   4.538   2.147
 5633SOL    HW218674   4.139   4.623   2.235
 5634SOL     OW18675   7.854  10.083   9.793
 5634SOL    HW118676   7.913  10.060   9.721
 5634SOL    HW218677   7.883  10.171   9.819
 5635SOL     OW18678   8.897   4.681   3.027
 5635SOL    HW118679   8.813   4.661   2.988
 5635SOL    HW218680   8.951   4.603   3.012
 5636SOL     OW18681  13.738   3.725  10.577
 5636SOL    HW118682  13.689   3.725  10.659
 5636SOL    HW218683  13.721   3.811  10.539
 5637SOL     OW18684  12.525   0.877   8.210
 5637SOL    HW118685  12.501   0.807   8.150
 5637SOL    HW218686  12.469   0.862   8.287
 5638SOL     OW18687   1.952  11.463   2.524
 5638SOL    HW118688   1.874  11.514   2.545
 5638SOL    HW218689   1.977  11.421   2.607
 5639SOL     OW18690   9.021  13.449   1.627
 5639SOL    HW118691   8.942  13.447   1.681
 5639SOL    HW218692   9.067  13.367   1.649
 5640SOL     OW18693   7.702   6.296   3.050
 5640SOL    HW118694   7.782   6.311   3.000
 5640SOL    HW218695   7.730   6.244   3.125
 5641SOL     OW18696   6.747   0.095   7.464
 5641SOL    HW118697   6.781   0.170   7.416
 5641SOL    HW218698   6.652   0.107   7.464
 5642SOL     OW18699  10.210  14.289   5.525
 5642SOL    HW118700  10.186  14.196   5.525
 5642SOL    HW218701  10.192  14.319   5.436
 5643SOL     OW18702   5.258   0.992  10.828
 5643SOL    HW118703   5.316   1.018  10.757
 5643SOL    HW218704   5.257   1.067  10.887
 5644SOL     OW18705   8.591   9.361   2.224
 5644SOL    HW118706   8.508   9.406   2.206
 5644SOL    HW218707   8.570   9.299   2.295
 5645SOL     OW18708  11.509   6.517  10.336
 5645SOL    HW118709  11.484   6.518  10.428
 5645SOL    HW218710  11.482   6.603  10.302
 5646SOL     OW18711   0.841   7.754  10.405
 5646SOL    HW118712   0.760   7.714  10.437
 5646SOL    HW218713   0.831   7.847  10.426
 5647SOL     OW18714   8.550  11.415  10.076
 5647SOL    HW118715   8.578  11.470  10.149
 5647SOL    HW218716   8.459  11.394  10.094
 5648SOL     OW18717   0.679  14.154  13.351
 5648SOL    HW118718   0.692  14.240  13.392
 5648SOL    HW218719   0.744  14.151  13.281
 5649SOL     OW18720   3.596   0.612   4.980
 5649SOL    HW118721   3.680   0.601   5.025
 5649SOL    HW218722   3.616   0.669   4.906
 5650SOL     OW18723  12.529  13.765   9.419
 5650SOL    HW118724  12.433  13.768   9.422
 5650SOL    HW218725  12.550  13.672   9.421
 5651SOL     OW18726   8.458   6.629   0.444
 5651SOL    HW118727   8.429   6.704   0.495
 5651SOL    HW218728   8.377   6.587   0.414
 5652SOL     OW18729  13.054  11.139  13.978
 5652SOL    HW118730  12.979  11.195  13.957
 5652SOL    HW218731  13.069  11.089  13.897
 5653SOL     OW18732   0.011   4.038   8.003
 5653SOL    HW118733   0.054   3.969   7.954
 5653SOL    HW218734   0.080   4.104   8.017
 5654SOL     OW18735  13.424   3.108   0.722
 5654SOL    HW118736  13.487   3.157   0.668
 5654SOL    HW218737  13.476   3.070   0.792
 5655SOL     OW18738   2.342   0.924   8.715
 5655SOL    HW118739   2.311   1.012   8.695
 5655SOL    HW218740   2.265   0.868   8.706
 5656SOL     OW18741  14.388  11.766   3.052
 5656SOL    HW118742  14.303  11.782   3.010
 5656SOL    HW218743  14.435  11.710   2.989
 5657SOL     OW18744  10.072   7.113   7.926
 5657SOL    HW118745  10.148   7.130   7.871
 5657SOL    HW218746  10.015   7.188   7.912
 5658SOL     OW18747   1.318  11.795   4.167
 5658SOL    HW118748   1.410  11.799   4.142
 5658SOL    HW218749   1.270  11.817   4.087
 5659SOL     OW18750   4.152  10.579   6.834
 5659SOL    HW118751   4.106  10.499   6.811
 5659SOL    HW218752   4.168  10.572   6.928
 5660SOL     OW18753   8.163   5.892  12.827
 5660SOL    HW118754   8.170   5.803  12.792
 5660SOL    HW218755   8.118   5.941  12.759
 5661SOL     OW18756   5.179  12.986   9.632
 5661SOL    HW118757   5.138  12.925   9.694
 5661SOL    HW218758   5.272  12.977   9.649
 5662SOL     OW18759  11.044  11.402  10.348
 5662SOL    HW118760  11.129  11.409  10.392
 5662SOL    HW218761  11.062  11.425  10.257
 5663SOL     OW18762  10.401   3.315   9.767
 5663SOL    HW118763  10.384   3.278   9.680
 5663SOL    HW218764  10.497   3.314   9.774
 5664SOL     OW18765   6.830   3.942  13.883
 5664SOL    HW118766   6.887   3.945  13.960
 5664SOL    HW218767   6.762   4.007  13.901
 5665SOL     OW18768  14.571   1.489   7.957
 5665SOL    HW118769  14.538   1.556   8.018
 5665SOL    HW218770  14.495   1.433   7.940
 5666SOL     OW18771   4.890   1.076  10.355
 5666SOL    HW118772   4.955   1.145  10.368
 5666SOL    HW218773   4.892   1.058  10.262
 5667SOL     OW18774   2.087   4.030   2.152
 5667SOL    HW118775   2.157   4.072   2.203
 5667SOL    HW218776   2.055   3.960   2.209
 5668SOL     OW18777   2.970   7.404  13.987
 5668SOL    HW118778   3.019   7.461  13.927
 5668SOL    HW218779   2.887   7.389  13.942
 5669SOL     OW18780   5.403  11.140  10.150
 5669SOL    HW118781   5.382  11.063  10.203
 5669SOL    HW218782   5.337  11.140  10.080
 5670SOL     OW18783   1.478  12.306   1.863
 5670SOL    HW118784   1.508  12.350   1.784
 5670SOL    HW218785   1.415  12.240   1.832
 5671SOL     OW18786   4.972   4.113   4.528
 5671SOL    HW118787   4.955   4.030   4.485
 5671SOL    HW218788   5.065   4.108   4.553
 5672SOL     OW18789   5.001   4.342  11.708
 5672SOL    HW118790   5.041   4.395  11.639
 5672SOL    HW218791   4.941   4.283  11.663
 5673SOL     OW18792   1.789   3.232   2.055
 5673SOL    HW118793   1.773   3.264   2.144
 5673SOL    HW218794   1.853   3.162   2.067
 5674SOL     OW18795   0.237   3.720  13.939
 5674SOL    HW118796   0.159   3.760  13.902
 5674SOL    HW218797   0.269   3.784  14.002
 5675SOL     OW18798   5.941   9.495   2.133
 5675SOL    HW118799   5.888   9.416   2.124
 5675SOL    HW218800   5.934   9.517   2.226
 5676SOL     OW18801  10.997   8.108  10.236
 5676SOL    HW118802  10.911   8.075  10.261
 5676SOL    HW218803  10.988   8.131  10.143
 5677SOL     OW18804   2.666  12.070   1.916
 5677SOL    HW118805   2.612  12.149   1.928
 5677SOL    HW218806   2.692  12.046   2.005
 5678SOL     OW18807  13.794   7.109   6.962
 5678SOL    HW118808  13.840   7.151   6.889
 5678SOL    HW218809  13.729   7.174   6.990
 5679SOL     OW18810   1.152   5.556  11.519
 5679SOL    HW118811   1.223   5.522  11.463
 5679SOL    HW218812   1.072   5.525  11.476
 5680SOL     OW18813   4.651   2.552  12.454
 5680SOL    HW118814   4.688   2.626  12.404
 5680SOL    HW218815   4.557   2.557  12.438
 5681SOL     OW18816  14.857   1.296   2.766
 5681SOL    HW118817   0.025   1.259   2.691
 5681SOL    HW218818   0.038   1.280   2.840
 5682SOL     OW18819   6.050   6.366   9.026
 5682SOL    HW118820   6.102   6.441   8.997
 5682SOL    HW218821   6.030   6.386   9.118
 5683SOL     OW18822  10.978   2.354   4.258
 5683SOL    HW118823  10.992   2.391   4.345
 5683SOL    HW218824  10.936   2.425   4.208
 5684SOL     OW18825   6.352   2.800   6.740
 5684SOL    HW118826   6.319   2.886   6.716
 5684SOL    HW218827   6.439   2.818   6.777
 5685SOL     OW18828   6.051   8.237  14.734
 5685SOL    HW118829   5.972   8.219  14.785
 5685SOL    HW218830   6.102   8.296  14.789
 5686SOL     OW18831   2.594  11.872   0.425
 5686SOL    HW118832   2.675  11.904   0.385
 5686SOL    HW218833   2.581  11.785   0.385
 5687SOL     OW18834  11.939   5.498  14.439
 5687SOL    HW118835  11.878   5.467  14.505
 5687SOL    HW218836  12.024   5.502  14.484
 5688SOL     OW18837   3.007   2.703   1.458
 5688SOL    HW118838   3.084   2.667   1.414
 5688SOL    HW218839   2.977   2.633   1.515
 5689SOL     OW18840   7.457   7.175   4.493
 5689SOL    HW118841   7.370   7.138   4.477
 5689SOL    HW218842   7.442   7.244   4.557
 5690SOL     OW18843   4.189   3.444   3.571
 5690SOL    HW118844   4.217   3.414   3.658
 5690SOL    HW218845   4.213   3.372   3.513
 5691SOL     OW18846   1.442   9.327   7.265
 5691SOL    HW118847   1.495   9.368   7.334
 5691SOL    HW218848   1.504   9.274   7.215
 5692SOL     OW18849  12.620   7.306   4.479
 5692SOL    HW118850  12.609   7.322   4.573
 5692SOL    HW218851  12.695   7.359   4.454
 5693SOL     OW18852   7.615   8.597   8.963
 5693SOL    HW118853   7.588   8.551   9.043
 5693SOL    HW218854   7.596   8.534   8.893
 5694SOL     OW18855  14.076  13.789   6.944
 5694SOL    HW118856  14.077  13.847   6.868
 5694SOL    HW218857  14.052  13.703   6.909
 5695SOL     OW18858   6.925   4.123   2.130
 5695SOL    HW118859   6.978   4.164   2.063
 5695SOL    HW218860   6.987   4.077   2.186
 5696SOL     OW18861  13.963  11.010   0.128
 5696SOL    HW118862  13.908  10.933   0.142
 5696SOL    HW218863  13.937  11.071   0.197
 5697SOL     OW18864   7.699   4.183   1.318
 5697SOL    HW118865   7.630   4.246   1.341
 5697SOL    HW218866   7.736   4.217   1.237
 5698SOL     OW18867  13.455   6.610   5.830
 5698SOL    HW118868  13.457   6.621   5.735
 5698SOL    HW218869  13.363   6.616   5.853
 5699SOL     OW18870  13.287   1.166  13.065
 5699SOL    HW118871  13.283   1.079  13.027
 5699SOL    HW218872  13.196   1.197  13.065
 5700SOL     OW18873   5.470  11.391   1.806
 5700SOL    HW118874   5.516  11.307   1.803
 5700SOL    HW218875   5.535  11.455   1.777
 5701SOL     OW18876   8.356  13.159   8.013
 5701SOL    HW118877   8.401  13.075   8.017
 5701SOL    HW218878   8.264  13.137   7.997
 5702SOL     OW18879   1.160   8.415  14.526
 5702SOL    HW118880   1.116   8.335  14.555
 5702SOL    HW218881   1.224   8.385  14.462
 5703SOL     OW18882   3.994  12.973  11.411
 5703SOL    HW118883   3.906  12.981  11.446
 5703SOL    HW218884   4.042  13.047  11.449
 5704SOL     OW18885  10.326  14.093   0.461
 5704SOL    HW118886  10.323  14.012   0.513
 5704SOL    HW218887  10.248  14.089   0.405
 5705SOL     OW18888   6.448   2.380   5.973
 5705SOL    HW118889   6.434   2.454   6.033
 5705SOL    HW218890   6.502   2.416   5.903
 5706SOL     OW18891   7.423   3.554   5.682
 5706SOL    HW118892   7.481   3.614   5.729
 5706SOL    HW218893   7.343   3.604   5.669
 5707SOL     OW18894  12.149   2.800   3.423
 5707SOL    HW118895  12.225   2.799   3.365
 5707SOL    HW218896  12.173   2.863   3.491
 5708SOL     OW18897   6.913  13.399   4.594
 5708SOL    HW118898   6.914  13.362   4.683
 5708SOL    HW218899   6.957  13.483   4.603
 5709SOL     OW18900   0.624   7.347   4.332
 5709SOL    HW118901   0.546   7.357   4.387
 5709SOL    HW218902   0.657   7.259   4.352
 5710SOL     OW18903  14.859  12.830   9.987
 5710SOL    HW118904  14.849  12.819  10.081
 5710SOL    HW218905  14.848  12.924   9.972
 5711SOL     OW18906   5.202   8.807  13.350
 5711SOL    HW118907   5.254   8.803  13.269
 5711SOL    HW218908   5.112   8.791  13.321
 5712SOL     OW18909  11.868  10.882   1.031
 5712SOL    HW118910  11.933  10.952   1.023
 5712SOL    HW218911  11.891  10.837   1.113
 5713SOL     OW18912  13.015  10.993   6.373
 5713SOL    HW118913  13.028  11.079   6.414
 5713SOL    HW218914  12.941  10.955   6.420
 5714SOL     OW18915   1.708   7.174  11.001
 5714SOL    HW118916   1.671   7.250  11.047
 5714SOL    HW218917   1.749   7.210  10.923
 5715SOL     OW18918  13.689   3.426   4.231
 5715SOL    HW118919  13.755   3.449   4.297
 5715SOL    HW218920  13.691   3.500   4.170
 5716SOL     OW18921   2.664   4.577   7.851
 5716SOL    HW118922   2.572   4.573   7.878
 5716SOL    HW218923   2.690   4.667   7.870
 5717SOL     OW18924  12.808  11.755  12.961
 5717SOL    HW118925  12.788  11.662  12.955
 5717SOL    HW218926  12.830  11.780  12.871
 5718SOL     OW18927   1.968  10.316   1.202
 5718SOL    HW118928   1.879  10.282   1.201
 5718SOL    HW218929   1.975  10.370   1.123
 5719SOL     OW18930   7.956   2.482   7.477
 5719SOL    HW118931   8.030   2.447   7.527
 5719SOL    HW218932   7.882   2.478   7.537
 5720SOL     OW18933   1.266   6.936   2.226
 5720SOL    HW118934   1.279   6.854   2.272
 5720SOL    HW218935   1.184   6.971   2.260
 5721SOL     OW18936  11.250   7.640   5.893
 5721SOL    HW118937  11.199   7.721   5.894
 5721SOL    HW218938  11.197   7.579   5.842
 5722SOL     OW18939  12.923  11.426   6.952
 5722SOL    HW118940  12.932  11.521   6.939
 5722SOL    HW218941  12.828  11.411   6.947
 5723SOL     OW18942   1.566   7.221   5.705
 5723SOL    HW118943   1.549   7.314   5.686
 5723SOL    HW218944   1.629   7.194   5.637
 5724SOL     OW18945  10.577   1.377   0.455
 5724SOL    HW118946  10.530   1.420   0.526
 5724SOL    HW218947  10.565   1.435   0.380
 5725SOL     OW18948   2.923   5.502   8.516
 5725SOL    HW118949   2.945   5.548   8.597
 5725SOL    HW218950   2.948   5.412   8.532
 5726SOL     OW18951  11.912   4.540  14.614
 5726SOL    HW118952  11.909   4.448  14.590
 5726SOL    HW218953  11.859   4.584  14.548
 5727SOL     OW18954   9.466   3.191   2.759
 5727SOL    HW118955   9.401   3.176   2.690
 5727SOL    HW218956   9.500   3.104   2.779
 5728SOL     OW18957  13.434  13.349   8.473
 5728SOL    HW118958  13.404  13.394   8.552
 5728SOL    HW218959  13.526  13.374   8.464
 5729SOL     OW18960   2.878   4.513   6.117
 5729SOL    HW118961   2.855   4.446   6.053
 5729SOL    HW218962   2.805   4.575   6.113
 5730SOL     OW18963  11.063  10.011   1.654
 5730SOL    HW118964  11.088  10.053   1.572
 5730SOL    HW218965  10.984   9.961   1.632
 5731SOL     OW18966   0.114   9.114  10.719
 5731SOL    HW118967   0.063   9.168  10.659
 5731SOL    HW218968   0.092   9.148  10.806
 5732SOL     OW18969  14.401  11.560   8.502
 5732SOL    HW118970  14.348  11.526   8.575
 5732SOL    HW218971  14.337  11.601   8.444
 5733SOL     OW18972  12.109   8.229   9.911
 5733SOL    HW118973  12.074   8.140   9.909
 5733SOL    HW218974  12.040   8.283   9.872
 5734SOL     OW18975   7.652  12.000   7.082
 5734SOL    HW118976   7.597  12.036   7.151
 5734SOL    HW218977   7.693  11.923   7.122
 5735SOL     OW18978   0.708   4.446  11.985
 5735SOL    HW118979   0.707   4.470  12.078
 5735SOL    HW218980   0.663   4.362  11.981
 5736SOL     OW18981  12.087  12.924  11.939
 5736SOL    HW118982  12.137  13.004  11.922
 5736SOL    HW218983  12.054  12.897  11.854
 5737SOL     OW18984   1.704   0.337   0.451
 5737SOL    HW118985   1.684   0.260   0.398
 5737SOL    HW218986   1.796   0.355   0.433
 5738SOL     OW18987  12.733   9.456   4.354
 5738SOL    HW118988  12.657   9.400   4.339
 5738SOL    HW218989  12.801   9.397   4.386
 5739SOL     OW18990  11.545  10.752   3.730
 5739SOL    HW118991  11.462  10.715   3.758
 5739SOL    HW218992  11.530  10.846   3.728
 5740SOL     OW18993   4.555   8.095  12.745
 5740SOL    HW118994   4.564   8.160  12.675
 5740SOL    HW218995   4.631   8.038  12.734
 5741SOL     OW18996   8.783   0.933   7.701
 5741SOL    HW118997   8.698   0.911   7.663
 5741SOL    HW218998   8.846   0.878   7.653
 5742SOL     OW18999   4.454   8.801   9.588
 5742SOL    HW119000   4.520   8.733   9.595
 5742SOL    HW219001   4.436   8.826   9.679
 5743SOL     OW19002   1.951   3.768   0.169
 5743SOL    HW119003   1.897   3.726   0.236
 5743SOL    HW219004   1.917   3.857   0.163
 5744SOL     OW19005   5.938   8.675   3.245
 5744SOL    HW119006   5.951   8.752   3.189
 5744SOL    HW219007   5.974   8.602   3.195
 5745SOL     OW19008   0.871  14.294   3.093
 5745SOL    HW119009   0.782  14.265   3.075
 5745SOL    HW219010   0.861  14.382   3.129
 5746SOL     OW19011   7.709   5.025   6.255
 5746SOL    HW119012   7.650   5.068   6.192
 5746SOL    HW219013   7.661   5.028   6.338
 5747SOL     OW19014   4.383   1.338   3.862
 5747SOL    HW119015   4.352   1.251   3.836
 5747SOL    HW219016   4.419   1.376   3.781
 5748SOL     OW19017   1.332  12.978   1.131
 5748SOL    HW119018   1.309  13.046   1.068
 5748SOL    HW219019   1.414  13.007   1.170
 5749SOL     OW19020   2.452  11.805   5.870
 5749SOL    HW119021   2.520  11.872   5.877
 5749SOL    HW219022   2.497  11.723   5.893
 5750SOL     OW19023  13.219   4.070   4.089
 5750SOL    HW119024  13.235   4.105   4.177
 5750SOL    HW219025  13.205   3.977   4.102
 5751SOL     OW19026   9.527   5.464   6.878
 5751SOL    HW119027   9.532   5.535   6.815
 5751SOL    HW219028   9.602   5.477   6.935
 5752SOL     OW19029   0.603   9.811   1.499
 5752SOL    HW119030   0.518   9.817   1.543
 5752SOL    HW219031   0.665   9.791   1.569
 5753SOL     OW19032   0.725  12.135  13.464
 5753SOL    HW119033   0.782  12.060  13.448
 5753SOL    HW219034   0.772  12.209  13.427
 5754SOL     OW19035   3.391  14.192  13.414
 5754SOL    HW119036   3.429  14.105  13.426
 5754SOL    HW219037   3.424  14.244  13.487
 5755SOL     OW19038   7.922   3.371   9.668
 5755SOL    HW119039   8.014   3.387   9.690
 5755SOL    HW219040   7.920   3.372   9.572
 5756SOL     OW19041   4.576   8.777   7.154
 5756SOL    HW119042   4.534   8.826   7.224
 5756SOL    HW219043   4.510   8.714   7.126
 5757SOL     OW19044   9.394   5.183  11.238
 5757SOL    HW119045   9.432   5.113  11.185
 5757SOL    HW219046   9.400   5.261  11.182
 5758SOL     OW19047   4.552  14.554  10.551
 5758SOL    HW119048   4.534  14.460  10.558
 5758SOL    HW219049   4.567  14.582  10.641
 5759SOL     OW19050   8.650  11.630  14.828
 5759SOL    HW119051   8.698  11.659   0.028
 5759SOL    HW219052   8.674  11.693  14.760
 5760SOL     OW19053   7.107   2.184   3.571
 5760SOL    HW119054   7.178   2.160   3.630
 5760SOL    HW219055   7.063   2.256   3.615
 5761SOL     OW19056   4.065  12.098   6.662
 5761SOL    HW119057   4.015  12.107   6.581
 5761SOL    HW219058   4.104  12.011   6.657
 5762SOL     OW19059   6.107   8.418  14.384
 5762SOL    HW119060   6.092   8.324  14.386
 5762SOL    HW219061   6.022   8.456  14.405
 5763SOL     OW19062  13.923   8.399  14.524
 5763SOL    HW119063  13.898   8.330  14.463
 5763SOL    HW219064  13.839   8.435  14.555
 5764SOL     OW19065   7.802   5.301   5.083
 5764SOL    HW119066   7.882   5.264   5.045
 5764SOL    HW219067   7.803   5.272   5.174
 5765SOL     OW19068   2.022   0.010   4.548
 5765SOL    HW119069   2.030  14.796   4.521
 5765SOL    HW219070   2.101   0.027   4.598
 5766SOL     OW19071   4.865  12.366   5.224
 5766SOL    HW119072   4.898  12.452   5.200
 5766SOL    HW219073   4.936  12.327   5.275
 5767SOL     OW19074   1.003  10.114   2.255
 5767SOL    HW119075   1.031  10.201   2.283
 5767SOL    HW219076   0.967  10.074   2.334
 5768SOL     OW19077   2.265   2.952  11.492
 5768SOL    HW119078   2.335   2.905  11.538
 5768SOL    HW219079   2.218   2.999  11.561
 5769SOL     OW19080   1.790   0.223   6.138
 5769SOL    HW119081   1.700   0.257   6.142
 5769SOL    HW219082   1.840   0.293   6.097
 5770SOL     OW19083  14.395  12.915   1.451
 5770SOL    HW119084  14.362  12.977   1.516
 5770SOL    HW219085  14.325  12.850   1.442
 5771SOL     OW19086  10.549  13.737   1.021
 5771SOL    HW119087  10.602  13.817   1.014
 5771SOL    HW219088  10.467  13.766   1.061
 5772SOL     OW19089   1.629   3.314   2.670
 5772SOL    HW119090   1.710   3.289   2.625
 5772SOL    HW219091   1.579   3.233   2.679
 5773SOL     OW19092   9.027   7.394   9.758
 5773SOL    HW119093   9.004   7.402   9.665
 5773SOL    HW219094   8.962   7.448   9.803
 5774SOL     OW19095   6.906   3.047   8.943
 5774SOL    HW119096   6.899   3.128   8.891
 5774SOL    HW219097   6.988   3.007   8.915
 5775SOL     OW19098  14.014   0.186   0.425
 5775SOL    HW119099  13.965   0.268   0.420
 5775SOL    HW219100  14.088   0.207   0.483
 5776SOL     OW19101   5.118   7.326   5.029
 5776SOL    HW119102   5.088   7.413   5.054
 5776SOL    HW219103   5.143   7.335   4.937
 5777SOL     OW19104   5.053   4.396   6.722
 5777SOL    HW119105   5.034   4.456   6.794
 5777SOL    HW219106   5.066   4.453   6.645
 5778SOL     OW19107  11.768   0.864   1.911
 5778SOL    HW119108  11.676   0.841   1.919
 5778SOL    HW219109  11.777   0.893   1.820
 5779SOL     OW19110   5.154   0.391   7.726
 5779SOL    HW119111   5.205   0.426   7.653
 5779SOL    HW219112   5.112   0.313   7.689
 5780SOL     OW19113   1.401  14.427   0.494
 5780SOL    HW119114   1.398  14.402   0.587
 5780SOL    HW219115   1.371  14.349   0.447
 5781SOL     OW19116   2.746   7.579   8.532
 5781SOL    HW119117   2.797   7.499   8.518
 5781SOL    HW219118   2.672   7.571   8.472
 5782SOL     OW19119   2.530  13.624  10.608
 5782SOL    HW119120   2.490  13.691  10.663
 5782SOL    HW219121   2.555  13.555  10.669
 5783SOL     OW19122   1.508   1.618  10.030
 5783SOL    HW119123   1.539   1.530  10.049
 5783SOL    HW219124   1.575   1.676  10.065
 5784SOL     OW19125  13.357   6.740  13.647
 5784SOL    HW119126  13.282   6.683  13.662
 5784SOL    HW219127  13.415   6.723  13.721
 5785SOL     OW19128   2.032   5.918   2.308
 5785SOL    HW119129   2.047   5.923   2.213
 5785SOL    HW219130   2.104   5.970   2.345
 5786SOL     OW19131   7.509  12.655   1.350
 5786SOL    HW119132   7.537  12.706   1.426
 5786SOL    HW219133   7.449  12.713   1.302
 5787SOL     OW19134   8.443   9.772   4.751
 5787SOL    HW119135   8.437   9.851   4.805
 5787SOL    HW219136   8.417   9.801   4.663
 5788SOL     OW19137   9.236   8.454  12.502
 5788SOL    HW119138   9.218   8.501  12.584
 5788SOL    HW219139   9.329   8.434  12.506
 5789SOL     OW19140  11.156  12.398   1.071
 5789SOL    HW119141  11.210  12.325   1.041
 5789SOL    HW219142  11.151  12.387   1.166
 5790SOL     OW19143   6.886   5.210   1.790
 5790SOL    HW119144   6.817   5.276   1.782
 5790SOL    HW219145   6.841   5.127   1.776
 5791SOL     OW19146   5.670   4.485  11.157
 5791SOL    HW119147   5.579   4.512  11.142
 5791SOL    HW219148   5.717   4.520  11.081
 5792SOL     OW19149   2.711  13.510   0.391
 5792SOL    HW119150   2.643  13.578   0.385
 5792SOL    HW219151   2.793  13.558   0.382
 5793SOL     OW19152   1.381   9.995  10.315
 5793SOL    HW119153   1.347   9.932  10.252
 5793SOL    HW219154   1.462  10.027  10.277
 5794SOL     OW19155   2.555   6.131  12.648
 5794SOL    HW119156   2.618   6.185  12.600
 5794SOL    HW219157   2.562   6.045  12.607
 5795SOL     OW19158  11.793   7.826   0.347
 5795SOL    HW119159  11.867   7.790   0.396
 5795SOL    HW219160  11.828   7.840   0.259
 5796SOL     OW19161  13.248   3.439  12.363
 5796SOL    HW119162  13.258   3.498  12.437
 5796SOL    HW219163  13.338   3.424  12.332
 5797SOL     OW19164   2.838   0.278   2.093
 5797SOL    HW119165   2.890   0.304   2.017
 5797SOL    HW219166   2.876   0.327   2.166
 5798SOL     OW19167  13.964  10.239   6.393
 5798SOL    HW119168  13.883  10.215   6.348
 5798SOL    HW219169  14.023  10.265   6.323
 5799SOL     OW19170   2.290   9.508   8.195
 5799SOL    HW119171   2.252   9.548   8.274
 5799SOL    HW219172   2.290   9.414   8.214
 5800SOL     OW19173  10.199  11.555   8.237
 5800SOL    HW119174  10.248  11.504   8.302
 5800SOL    HW219175  10.208  11.505   8.157
 5801SOL     OW19176  10.498   1.099  12.952
 5801SOL    HW119177  10.538   1.140  12.875
 5801SOL    HW219178  10.547   1.135  13.026
 5802SOL     OW19179  14.551   3.053   6.248
 5802SOL    HW119180  14.567   2.969   6.291
 5802SOL    HW219181  14.638   3.081   6.218
 5803SOL     OW19182   5.684   8.739  14.573
 5803SOL    HW119183   5.660   8.754  14.665
 5803SOL    HW219184   5.601   8.749  14.525
 5804SOL     OW19185  10.038   5.943   2.699
 5804SOL    HW119186   9.973   5.876   2.677
 5804SOL    HW219187  10.116   5.918   2.651
 5805SOL     OW19188  13.567  13.593   1.887
 5805SOL    HW119189  13.490  13.538   1.901
 5805SOL    HW219190  13.553  13.632   1.800
 5806SOL     OW19191   3.377   0.629  13.763
 5806SOL    HW119192   3.398   0.544  13.803
 5806SOL    HW219193   3.298   0.657  13.810
 5807SOL     OW19194   7.001  13.630  11.522
 5807SOL    HW119195   7.029  13.580  11.600
 5807SOL    HW219196   7.061  13.602  11.453
 5808SOL     OW19197   4.253  10.090   6.709
 5808SOL    HW119198   4.290  10.109   6.623
 5808SOL    HW219199   4.301  10.013   6.739
 5809SOL     OW19200   9.742  10.341  13.479
 5809SOL    HW119201   9.761  10.372  13.568
 5809SOL    HW219202   9.817  10.285  13.457
 5810SOL     OW19203  10.807  10.019  12.030
 5810SOL    HW119204  10.827  10.112  12.038
 5810SOL    HW219205  10.712  10.014  12.037
 5811SOL     OW19206  14.224  10.066   3.031
 5811SOL    HW119207  14.179  10.139   2.989
 5811SOL    HW219208  14.310  10.064   2.990
 5812SOL     OW19209   3.226   2.621   7.729
 5812SOL    HW119210   3.157   2.588   7.671
 5812SOL    HW219211   3.185   2.694   7.776
 5813SOL     OW19212   3.173   7.396   5.366
 5813SOL    HW119213   3.248   7.427   5.417
 5813SOL    HW219214   3.122   7.344   5.428
 5814SOL     OW19215   8.484   4.381   1.685
 5814SOL    HW119216   8.535   4.443   1.632
 5814SOL    HW219217   8.498   4.409   1.775
 5815SOL     OW19218   1.694  13.070   2.792
 5815SOL    HW119219   1.781  13.032   2.782
 5815SOL    HW219220   1.669  13.049   2.882
 5816SOL     OW19221  13.867   5.770  12.772
 5816SOL    HW119222  13.772   5.781  12.773
 5816SOL    HW219223  13.901   5.858  12.790
 5817SOL     OW19224  13.457   7.603   8.307
 5817SOL    HW119225  13.451   7.613   8.212
 5817SOL    HW219226  13.492   7.686   8.338
 5818SOL     OW19227   1.814   6.362   1.707
 5818SOL    HW119228   1.799   6.445   1.751
 5818SOL    HW219229   1.755   6.363   1.632
 5819SOL     OW19230   0.194   1.248   2.611
 5819SOL    HW119231   0.179   1.233   2.518
 5819SOL    HW219232   0.288   1.237   2.622
 5820SOL     OW19233   1.008   5.413   3.702
 5820SOL    HW119234   1.011   5.464   3.621
 5820SOL    HW219235   1.026   5.323   3.675
 5821SOL     OW19236   5.494  14.626   1.250
 5821SOL    HW119237   5.515  14.665   1.165
 5821SOL    HW219238   5.475  14.535   1.230
 5822SOL     OW19239   9.290  12.155   8.680
 5822SOL    HW119240   9.374  12.183   8.715
 5822SOL    HW219241   9.280  12.202   8.598
 5823SOL     OW19242   7.815   4.597   6.724
 5823SOL    HW119243   7.849   4.686   6.724
 5823SOL    HW219244   7.742   4.599   6.786
 5824SOL     OW19245   2.645  10.944   6.920
 5824SOL    HW119246   2.664  11.035   6.942
 5824SOL    HW219247   2.730  10.900   6.920
 5825SOL     OW19248   8.178  13.370   2.185
 5825SOL    HW119249   8.258  13.416   2.213
 5825SOL    HW219250   8.111  13.399   2.247
 5826SOL     OW19251   8.616  10.118   9.386
 5826SOL    HW119252   8.601  10.025   9.402
 5826SOL    HW219253   8.668  10.148   9.460
 5827SOL     OW19254   6.075  13.579  12.270
 5827SOL    HW119255   6.166  13.560  12.250
 5827SOL    HW219256   6.037  13.608  12.187
 5828SOL     OW19257   7.549   6.939   9.401
 5828SOL    HW119258   7.475   7.000   9.392
 5828SOL    HW219259   7.626   6.996   9.399
 5829SOL     OW19260   0.889   1.895  11.048
 5829SOL    HW119261   0.876   1.990  11.052
 5829SOL    HW219262   0.852   1.870  10.963
 5830SOL     OW19263   9.524  10.493   6.840
 5830SOL    HW119264   9.531  10.461   6.750
 5830SOL    HW219265   9.491  10.418   6.889
 5831SOL     OW19266   7.723   4.825   3.479
 5831SOL    HW119267   7.675   4.748   3.509
 5831SOL    HW219268   7.710   4.826   3.384
 5832SOL     OW19269   2.750   0.026   4.407
 5832SOL    HW119270   2.717   0.052   4.493
 5832SOL    HW219271   2.687   0.065   4.345
 5833SOL     OW19272  14.865  10.808   5.322
 5833SOL    HW119273  14.792  10.854   5.281
 5833SOL    HW219274  14.838  10.716   5.322
 5834SOL     OW19275   8.215   4.816   7.994
 5834SOL    HW119276   8.245   4.834   7.905
 5834SOL    HW219277   8.120   4.817   7.988
 5835SOL     OW19278  11.497  13.479   0.272
 5835SOL    HW119279  11.411  13.468   0.231
 5835SOL    HW219280  11.520  13.570   0.253
 5836SOL     OW19281   5.632   8.853   7.757
 5836SOL    HW119282   5.565   8.878   7.821
 5836SOL    HW219283   5.611   8.763   7.735
 5837SOL     OW19284  13.244  10.436   6.175
 5837SOL    HW119285  13.272  10.392   6.094
 5837SOL    HW219286  13.177  10.378   6.211
 5838SOL     OW19287   2.443   6.915   0.018
 5838SOL    HW119288   2.538   6.902   0.019
 5838SOL    HW219289   2.433   7.006  14.867
 5839SOL     OW19290   8.462   8.418  13.248
 5839SOL    HW119291   8.508   8.444  13.168
 5839SOL    HW219292   8.447   8.501  13.294
 5840SOL     OW19293   2.916   6.537  14.819
 5840SOL    HW119294   2.988   6.591  14.787
 5840SOL    HW219295   2.881   6.586   0.016
 5841SOL     OW19296   2.318   0.633   3.255
 5841SOL    HW119297   2.326   0.682   3.173
 5841SOL    HW219298   2.391   0.571   3.253
 5842SOL     OW19299  13.085  11.947  14.310
 5842SOL    HW119300  13.052  11.878  14.368
 5842SOL    HW219301  13.024  12.019  14.322
 5843SOL     OW19302   7.251   6.725   5.781
 5843SOL    HW119303   7.323   6.730   5.844
 5843SOL    HW219304   7.197   6.652   5.812
 5844SOL     OW19305   7.817  14.324   6.796
 5844SOL    HW119306   7.761  14.254   6.761
 5844SOL    HW219307   7.769  14.404   6.777
 5845SOL     OW19308   0.883  13.236   6.200
 5845SOL    HW119309   0.909  13.244   6.292
 5845SOL    HW219310   0.836  13.153   6.195
 5846SOL     OW19311   5.750   1.338  13.607
 5846SOL    HW119312   5.756   1.247  13.637
 5846SOL    HW219313   5.657   1.359  13.615
 5847SOL     OW19314   3.343   8.532  13.757
 5847SOL    HW119315   3.305   8.448  13.780
 5847SOL    HW219316   3.270   8.582  13.720
 5848SOL     OW19317   3.187  10.917   4.374
 5848SOL    HW119318   3.263  10.922   4.317
 5848SOL    HW219319   3.130  10.852   4.332
 5849SOL     OW19320   7.801   6.044  10.892
 5849SOL    HW119321   7.812   6.035  10.987
 5849SOL    HW219322   7.825   5.959  10.857
 5850SOL     OW19323  12.627  13.594  12.748
 5850SOL    HW119324  12.708  13.587  12.798
 5850SOL    HW219325  12.648  13.657  12.678
 5851SOL     OW19326  11.385   0.918  11.892
 5851SOL    HW119327  11.346   0.961  11.968
 5851SOL    HW219328  11.333   0.946  11.817
 5852SOL     OW19329   5.091   0.250   2.032
 5852SOL    HW119330   5.147   0.323   2.007
 5852SOL    HW219331   5.065   0.210   1.949
 5853SOL     OW19332   2.662   5.967   3.872
 5853SOL    HW119333   2.715   5.931   3.943
 5853SOL    HW219334   2.611   6.037   3.913
 5854SOL     OW19335   4.991   8.033  14.429
 5854SOL    HW119336   4.973   8.096  14.359
 5854SOL    HW219337   5.072   8.066  14.469
 5855SOL     OW19338  11.073  11.272   2.399
 5855SOL    HW119339  11.106  11.202   2.455
 5855SOL    HW219340  11.122  11.262   2.317
 5856SOL     OW19341   4.902  14.765  12.846
 5856SOL    HW119342   4.864  14.853  12.841
 5856SOL    HW219343   4.986  14.773  12.800
 5857SOL     OW19344  13.864   1.419   5.960
 5857SOL    HW119345  13.862   1.456   6.048
 5857SOL    HW219346  13.855   1.325   5.973
 5858SOL     OW19347   8.790  12.397   4.219
 5858SOL    HW119348   8.791  12.307   4.188
 5858SOL    HW219349   8.702  12.410   4.253
 5859SOL     OW19350   5.416  12.074   3.419
 5859SOL    HW119351   5.339  12.112   3.463
 5859SOL    HW219352   5.487  12.135   3.437
 5860SOL     OW19353   7.247   3.028   8.215
 5860SOL    HW119354   7.206   3.063   8.294
 5860SOL    HW219355   7.257   2.934   8.234
 5861SOL     OW19356  11.768  11.305   7.333
 5861SOL    HW119357  11.736  11.348   7.253
 5861SOL    HW219358  11.691  11.260   7.367
 5862SOL     OW19359   4.712  10.861   9.534
 5862SOL    HW119360   4.750  10.793   9.479
 5862SOL    HW219361   4.690  10.817   9.616
 5863SOL     OW19362   9.969   4.779  12.895
 5863SOL    HW119363   9.993   4.851  12.838
 5863SOL    HW219364   9.931   4.821  12.973
 5864SOL     OW19365   1.630  10.259   0.326
 5864SOL    HW119366   1.610  10.188   0.387
 5864SOL    HW219367   1.549  10.273   0.278
 5865SOL     OW19368   4.237  14.737  10.348
 5865SOL    HW119369   4.283  14.794  10.287
 5865SOL    HW219370   4.284  14.747  10.431
 5866SOL     OW19371   5.782  10.702   8.227
 5866SOL    HW119372   5.726  10.776   8.201
 5866SOL    HW219373   5.855  10.705   8.165
 5867SOL     OW19374   8.013  14.765   2.505
 5867SOL    HW119375   8.069  14.695   2.539
 5867SOL    HW219376   8.023  14.759   2.410
 5868SOL     OW19377   4.668   6.961   9.157
 5868SOL    HW119378   4.668   6.870   9.187
 5868SOL    HW219379   4.720   7.008   9.222
 5869SOL     OW19380   0.021   5.228   8.101
 5869SOL    HW119381  14.810   5.266   8.095
 5869SOL    HW219382   0.020   5.156   8.037
 5870SOL     OW19383   7.732   9.316   8.366
 5870SOL    HW119384   7.822   9.349   8.375
 5870SOL    HW219385   7.709   9.285   8.454
 5871SOL     OW19386   2.817  11.647   9.479
 5871SOL    HW119387   2.898  11.618   9.520
 5871SOL    HW219388   2.841  11.729   9.434
 5872SOL     OW19389   5.797   7.192  14.858
 5872SOL    HW119390   5.733   7.124  14.838
 5872SOL    HW219391   5.836   7.214  14.773
 5873SOL     OW19392   3.893  12.733   6.964
 5873SOL    HW119393   3.880  12.644   6.998
 5873SOL    HW219394   3.915  12.785   7.041
 5874SOL     OW19395   6.283   4.190   9.868
 5874SOL    HW119396   6.301   4.161   9.957
 5874SOL    HW219397   6.352   4.254   9.849
 5875SOL     OW19398  11.925   9.169   8.078
 5875SOL    HW119399  11.901   9.191   7.988
 5875SOL    HW219400  11.853   9.202   8.131
 5876SOL     OW19401   5.998   9.755   5.870
 5876SOL    HW119402   5.932   9.721   5.930
 5876SOL    HW219403   6.076   9.704   5.888
 5877SOL     OW19404   7.833  13.680  11.922
 5877SOL    HW119405   7.830  13.748  11.989
 5877SOL    HW219406   7.800  13.723  11.843
 5878SOL     OW19407   9.753   9.805   1.681
 5878SOL    HW119408   9.710   9.889   1.667
 5878SOL    HW219409   9.777   9.805   1.773
 5879SOL     OW19410   7.360   6.301   7.021
 5879SOL    HW119411   7.337   6.263   7.106
 5879SOL    HW219412   7.354   6.395   7.034
 5880SOL     OW19413  12.404  10.304   5.879
 5880SOL    HW119414  12.490  10.319   5.920
 5880SOL    HW219415  12.418  10.228   5.822
 5881SOL     OW19416  12.275   9.085   1.037
 5881SOL    HW119417  12.308   8.998   1.055
 5881SOL    HW219418  12.266   9.126   1.123
 5882SOL     OW19419   3.499   1.373  11.575
 5882SOL    HW119420   3.588   1.367  11.611
 5882SOL    HW219421   3.488   1.466  11.553
 5883SOL     OW19422  12.222   4.911  12.145
 5883SOL    HW119423  12.161   4.940  12.213
 5883SOL    HW219424  12.188   4.950  12.065
 5884SOL     OW19425   4.416   5.813   6.435
 5884SOL    HW119426   4.451   5.804   6.346
 5884SOL    HW219427   4.468   5.751   6.487
 5885SOL     OW19428   8.377   9.603   1.269
 5885SOL    HW119429   8.332   9.556   1.339
 5885SOL    HW219430   8.468   9.574   1.275
 5886SOL     OW19431   1.844   6.522  11.588
 5886SOL    HW119432   1.870   6.475  11.667
 5886SOL    HW219433   1.904   6.492  11.520
 5887SOL     OW19434  12.710  12.216  14.308
 5887SOL    HW119435  12.724  12.277  14.380
 5887SOL    HW219436  12.795  12.174  14.295
 5888SOL     OW19437  10.852  10.088   3.872
 5888SOL    HW119438  10.778  10.027   3.874
 5888SOL    HW219439  10.831  10.153   3.939
 5889SOL     OW19440   2.260   8.952  13.286
 5889SOL    HW119441   2.205   8.880  13.254
 5889SOL    HW219442   2.307   8.914  13.360
 5890SOL     OW19443   2.992   0.723   1.890
 5890SOL    HW119444   2.989   0.750   1.982
 5890SOL    HW219445   2.912   0.758   1.852
 5891SOL     OW19446  12.038   5.461  14.173
 5891SOL    HW119447  12.104   5.405  14.213
 5891SOL    HW219448  11.985   5.492  14.246
 5892SOL     OW19449   2.333  13.114  13.734
 5892SOL    HW119450   2.336  13.089  13.826
 5892SOL    HW219451   2.284  13.044  13.691
 5893SOL     OW19452   6.664   5.620   6.200
 5893SOL    HW119453   6.616   5.649   6.278
 5893SOL    HW219454   6.722   5.693   6.179
 5894SOL     OW19455  11.236  12.938   2.249
 5894SOL    HW119456  11.269  12.901   2.167
 5894SOL    HW219457  11.141  12.925   2.244
 5895SOL     OW19458   0.032   1.972   1.692
 5895SOL    HW119459   0.032   2.037   1.761
 5895SOL    HW219460   0.124   1.962   1.668
 5896SOL     OW19461   8.400   1.899   2.450
 5896SOL    HW119462   8.396   1.979   2.503
 5896SOL    HW219463   8.443   1.835   2.506
 5897SOL     OW19464   0.001   1.284   6.734
 5897SOL    HW119465  14.805   1.230   6.761
 5897SOL    HW219466   0.006   1.354   6.798
 5898SOL     OW19467   0.612   5.744  14.554
 5898SOL    HW119468   0.691   5.793  14.577
 5898SOL    HW219469   0.644   5.665  14.512
 5899SOL     OW19470   0.293   9.442  11.667
 5899SOL    HW119471   0.329   9.369  11.718
 5899SOL    HW219472   0.255   9.402  11.590
 5900SOL     OW19473   0.736   2.310   0.137
 5900SOL    HW119474   0.742   2.335   0.230
 5900SOL    HW219475   0.804   2.362   0.094
 5901SOL     OW19476   8.972  10.853   8.328
 5901SOL    HW119477   9.049  10.859   8.386
 5901SOL    HW219478   9.005  10.875   8.241
 5902SOL     OW19479   4.510  13.397   8.923
 5902SOL    HW119480   4.600  13.369   8.902
 5902SOL    HW219481   4.520  13.459   8.995
 5903SOL     OW19482   7.771   7.511  10.358
 5903SOL    HW119483   7.796   7.603  10.358
 5903SOL    HW219484   7.736   7.495  10.270
 5904SOL     OW19485  14.391   2.616   0.523
 5904SOL    HW119486  14.443   2.544   0.487
 5904SOL    HW219487  14.349   2.579   0.601
 5905SOL     OW19488  12.758   3.060   6.813
 5905SOL    HW119489  12.791   2.971   6.806
 5905SOL    HW219490  12.834   3.115   6.793
 5906SOL     OW19491   2.651   2.653   5.365
 5906SOL    HW119492   2.665   2.596   5.441
 5906SOL    HW219493   2.611   2.597   5.300
 5907SOL     OW19494   8.948   6.883   9.911
 5907SOL    HW119495   9.005   6.940   9.860
 5907SOL    HW219496   9.007   6.838   9.972
 5908SOL     OW19497   8.419  11.398   8.721
 5908SOL    HW119498   8.437  11.492   8.718
 5908SOL    HW219499   8.416  11.377   8.814
 5909SOL     OW19500   4.514  11.076   4.933
 5909SOL    HW119501   4.506  11.133   4.856
 5909SOL    HW219502   4.525  10.988   4.896
 5910SOL     OW19503  13.059  13.620   7.168
 5910SOL    HW119504  13.097  13.662   7.092
 5910SOL    HW219505  13.104  13.660   7.243
 5911SOL     OW19506  12.233   4.724   7.491
 5911SOL    HW119507  12.290   4.654   7.460
 5911SOL    HW219508  12.290   4.800   7.498
 5912SOL     OW19509  13.449   4.740   9.603
 5912SOL    HW119510  13.448   4.644   9.605
 5912SOL    HW219511  13.402   4.762   9.523
 5913SOL     OW19512   1.122   8.777   7.353
 5913SOL    HW119513   1.151   8.868   7.349
 5913SOL    HW219514   1.038   8.781   7.399
 5914SOL     OW19515  13.298   5.353  14.063
 5914SOL    HW119516  13.253   5.429  14.026
 5914SOL    HW219517  13.331   5.305  13.987
 5915SOL     OW19518  14.466   1.816   9.188
 5915SOL    HW119519  14.397   1.749   9.194
 5915SOL    HW219520  14.543   1.775   9.227
 5916SOL     OW19521  12.575  10.492   4.712
 5916SOL    HW119522  12.538  10.579   4.724
 5916SOL    HW219523  12.669  10.506   4.702
 5917SOL     OW19524  11.767   3.710   8.192
 5917SOL    HW119525  11.731   3.689   8.106
 5917SOL    HW219526  11.698   3.760   8.235
 5918SOL     OW19527   0.020   1.879   3.392
 5918SOL    HW119528   0.034   1.906   3.301
 5918SOL    HW219529  14.802   1.878   3.402
 5919SOL     OW19530  12.199   3.540   6.054
 5919SOL    HW119531  12.174   3.497   5.973
 5919SOL    HW219532  12.256   3.477   6.098
 5920SOL     OW19533   1.819   7.699  11.544
 5920SOL    HW119534   1.903   7.655  11.534
 5920SOL    HW219535   1.761   7.632  11.580
 5921SOL     OW19536   3.081   9.818  13.736
 5921SOL    HW119537   3.163   9.848  13.697
 5921SOL    HW219538   3.100   9.812  13.830
 5922SOL     OW19539   9.377   4.128   2.921
 5922SOL    HW119540   9.388   4.051   2.977
 5922SOL    HW219541   9.430   4.109   2.843
 5923SOL     OW19542   7.127   2.630   3.411
 5923SOL    HW119543   7.221   2.641   3.421
 5923SOL    HW219544   7.117   2.540   3.378
 5924SOL     OW19545   1.718   3.328   1.252
 5924SOL    HW119546   1.710   3.326   1.157
 5924SOL    HW219547   1.700   3.418   1.276
 5925SOL     OW19548   1.952   5.116   6.026
 5925SOL    HW119549   1.930   5.210   6.023
 5925SOL    HW219550   1.871   5.072   6.001
 5926SOL     OW19551   6.645   4.545  11.237
 5926SOL    HW119552   6.701   4.597  11.296
 5926SOL    HW219553   6.572   4.603  11.217
 5927SOL     OW19554   7.744   1.257  14.754
 5927SOL    HW119555   7.719   1.345  14.784
 5927SOL    HW219556   7.677   1.233  14.691
 5928SOL     OW19557   1.001   6.436  12.882
 5928SOL    HW119558   0.914   6.412  12.849
 5928SOL    HW219559   1.032   6.356  12.925
 5929SOL     OW19560   4.773   1.067   4.192
 5929SOL    HW119561   4.819   1.101   4.268
 5929SOL    HW219562   4.711   1.003   4.227
 5930SOL     OW19563  12.639  14.684  14.384
 5930SOL    HW119564  12.714  14.700  14.327
 5930SOL    HW219565  12.603  14.770  14.403
 5931SOL     OW19566   0.536  10.629  12.905
 5931SOL    HW119567   0.531  10.714  12.861
 5931SOL    HW219568   0.461  10.628  12.964
 5932SOL     OW19569   1.923   6.822   5.076
 5932SOL    HW119570   1.912   6.892   5.140
 5932SOL    HW219571   1.910   6.863   4.991
 5933SOL     OW19572   2.454   2.384   6.827
 5933SOL    HW119573   2.425   2.448   6.892
 5933SOL    HW219574   2.400   2.402   6.750
 5934SOL     OW19575   5.776  13.819  14.518
 5934SOL    HW119576   5.744  13.805  14.429
 5934SOL    HW219577   5.714  13.771  14.573
 5935SOL     OW19578  13.212   4.958   6.846
 5935SOL    HW119579  13.192   5.044   6.808
 5935SOL    HW219580  13.163   4.956   6.929
 5936SOL     OW19581  11.261  11.915   6.614
 5936SOL    HW119582  11.323  11.885   6.547
 5936SOL    HW219583  11.180  11.933   6.565
 5937SOL     OW19584   3.043   0.137   9.775
 5937SOL    HW119585   3.066   0.065   9.716
 5937SOL    HW219586   3.026   0.095   9.859
 5938SOL     OW19587   6.608   9.184  10.052
 5938SOL    HW119588   6.605   9.091  10.029
 5938SOL    HW219589   6.610   9.230   9.968
 5939SOL     OW19590   5.260  13.947   5.425
 5939SOL    HW119591   5.342  13.985   5.396
 5939SOL    HW219592   5.258  13.859   5.385
 5940SOL     OW19593   8.360  14.299   5.597
 5940SOL    HW119594   8.438  14.347   5.625
 5940SOL    HW219595   8.331  14.345   5.519
 5941SOL     OW19596   0.900   4.531   2.530
 5941SOL    HW119597   0.837   4.575   2.474
 5941SOL    HW219598   0.876   4.557   2.619
 5942SOL     OW19599  11.038   5.474  13.743
 5942SOL    HW119600  11.013   5.463  13.651
 5942SOL    HW219601  11.094   5.399  13.762
 5943SOL     OW19602  10.020   7.370   2.448
 5943SOL    HW119603   9.970   7.384   2.368
 5943SOL    HW219604   9.953   7.350   2.514
 5944SOL     OW19605  12.113  13.404   1.295
 5944SOL    HW119606  12.067  13.394   1.378
 5944SOL    HW219607  12.092  13.324   1.246
 5945SOL     OW19608   8.710  12.297   7.457
 5945SOL    HW119609   8.684  12.320   7.368
 5945SOL    HW219610   8.678  12.208   7.470
 5946SOL     OW19611   0.284   9.460   0.165
 5946SOL    HW119612   0.245   9.375   0.186
 5946SOL    HW219613   0.359   9.468   0.223
 5947SOL     OW19614  11.377   3.126  10.604
 5947SOL    HW119615  11.428   3.135  10.523
 5947SOL    HW219616  11.301   3.073  10.578
 5948SOL     OW19617   5.838   1.792   9.496
 5948SOL    HW119618   5.883   1.875   9.481
 5948SOL    HW219619   5.802   1.769   9.410
 5949SOL     OW19620   7.096   2.699   5.006
 5949SOL    HW119621   7.168   2.655   4.961
 5949SOL    HW219622   7.065   2.764   4.943
 5950SOL     OW19623   2.343  13.964   7.245
 5950SOL    HW119624   2.284  13.929   7.178
 5950SOL    HW219625   2.286  14.014   7.304
 5951SOL     OW19626   9.172   2.975   3.782
 5951SOL    HW119627   9.244   3.011   3.833
 5951SOL    HW219628   9.211   2.905   3.730
 5952SOL     OW19629   8.762   8.405   3.549
 5952SOL    HW119630   8.854   8.427   3.541
 5952SOL    HW219631   8.715   8.484   3.522
 5953SOL     OW19632   8.120   5.068   2.100
 5953SOL    HW119633   8.074   5.034   2.022
 5953SOL    HW219634   8.213   5.062   2.078
 5954SOL     OW19635   8.503   6.170   4.459
 5954SOL    HW119636   8.570   6.214   4.511
 5954SOL    HW219637   8.421   6.192   4.501
 5955SOL     OW19638   6.470   8.382   0.675
 5955SOL    HW119639   6.545   8.331   0.646
 5955SOL    HW219640   6.505   8.442   0.740
 5956SOL     OW19641   0.274   1.325   3.946
 5956SOL    HW119642   0.345   1.263   3.959
 5956SOL    HW219643   0.258   1.361   4.034
 5957SOL     OW19644   0.692   7.326  13.031
 5957SOL    HW119645   0.693   7.339  13.126
 5957SOL    HW219646   0.608   7.284  13.013
 5958SOL     OW19647   0.020   1.699  13.199
 5958SOL    HW119648   0.063   1.765  13.144
 5958SOL    HW219649  14.814   1.740  13.224
 5959SOL     OW19650   8.541   1.954   7.044
 5959SOL    HW119651   8.614   1.938   6.984
 5959SOL    HW219652   8.562   2.038   7.084
 5960SOL     OW19653  13.186  10.163   2.911
 5960SOL    HW119654  13.144  10.122   2.987
 5960SOL    HW219655  13.273  10.123   2.907
 5961SOL     OW19656  12.815   9.830   2.977
 5961SOL    HW119657  12.885   9.862   3.033
 5961SOL    HW219658  12.852   9.831   2.889
 5962SOL     OW19659   8.543   0.191  14.125
 5962SOL    HW119660   8.474   0.206  14.190
 5962SOL    HW219661   8.618   0.240  14.158
 5963SOL     OW19662  11.655   3.764  10.388
 5963SOL    HW119663  11.739   3.796  10.421
 5963SOL    HW219664  11.658   3.669  10.404
 5964SOL     OW19665   6.096   1.889  13.235
 5964SOL    HW119666   6.169   1.911  13.292
 5964SOL    HW219667   6.045   1.825  13.284
 5965SOL     OW19668  11.357   1.483   8.041
 5965SOL    HW119669  11.424   1.420   8.068
 5965SOL    HW219670  11.275   1.446   8.073
 5966SOL     OW19671   2.749   0.779   3.371
 5966SOL    HW119672   2.765   0.769   3.277
 5966SOL    HW219673   2.753   0.689   3.405
 5967SOL     OW19674  10.974   3.762   8.242
 5967SOL    HW119675  11.022   3.692   8.286
 5967SOL    HW219676  11.040   3.808   8.191
 5968SOL     OW19677  14.069  11.441   6.043
 5968SOL    HW119678  14.085  11.484   6.127
 5968SOL    HW219679  14.146  11.385   6.029
 5969SOL     OW19680  13.552   6.803  13.977
 5969SOL    HW119681  13.561   6.866  14.049
 5969SOL    HW219682  13.637   6.804  13.933
 5970SOL     OW19683  11.391  14.487   0.278
 5970SOL    HW119684  11.324  14.482   0.346
 5970SOL    HW219685  11.474  14.481   0.325
 5971SOL     OW19686   2.128   3.675   6.576
 5971SOL    HW119687   2.186   3.640   6.508
 5971SOL    HW219688   2.184   3.682   6.653
 5972SOL     OW19689   6.962   9.018   4.767
 5972SOL    HW119690   6.959   9.091   4.705
 5972SOL    HW219691   6.891   8.960   4.739
 5973SOL     OW19692   0.487  12.959   4.654
 5973SOL    HW119693   0.417  12.894   4.660
 5973SOL    HW219694   0.445  13.036   4.615
 5974SOL     OW19695   2.121   8.810  12.907
 5974SOL    HW119696   2.044   8.842  12.859
 5974SOL    HW219697   2.184   8.881  12.901
 5975SOL     OW19698   9.460  13.505   6.300
 5975SOL    HW119699   9.392  13.572   6.295
 5975SOL    HW219700   9.479  13.481   6.210
 5976SOL     OW19701  13.107  14.040  13.018
 5976SOL    HW119702  13.052  14.117  13.029
 5976SOL    HW219703  13.145  14.049  12.930
 5977SOL     OW19704  14.659   5.081   6.228
 5977SOL    HW119705  14.628   4.994   6.203
 5977SOL    HW219706  14.681   5.074   6.321
 5978SOL     OW19707   3.799  14.550  12.496
 5978SOL    HW119708   3.847  14.633  12.488
 5978SOL    HW219709   3.863  14.483  12.473
 5979SOL     OW19710   4.446  14.379   0.894
 5979SOL    HW119711   4.395  14.421   0.824
 5979SOL    HW219712   4.491  14.307   0.850
 5980SOL     OW19713   8.805   8.014   1.249
 5980SOL    HW119714   8.877   8.009   1.311
 5980SOL    HW219715   8.817   7.938   1.192
 5981SOL     OW19716  10.825   6.909   0.215
 5981SOL    HW119717  10.739   6.869   0.205
 5981SOL    HW219718  10.874   6.848   0.269
 5982SOL     OW19719   1.466  13.724   2.876
 5982SOL    HW119720   1.545  13.711   2.929
 5982SOL    HW219721   1.398  13.745   2.941
 5983SOL     OW19722   2.992  12.667  11.812
 5983SOL    HW119723   2.914  12.613  11.811
 5983SOL    HW219724   2.987  12.720  11.733
 5984SOL     OW19725  10.524   7.388   2.306
 5984SOL    HW119726  10.473   7.368   2.384
 5984SOL    HW219727  10.459   7.407   2.239
 5985SOL     OW19728   3.109   5.211  12.276
 5985SOL    HW119729   3.015   5.212  12.292
 5985SOL    HW219730   3.120   5.150  12.203
 5986SOL     OW19731   6.441   2.680   5.903
 5986SOL    HW119732   6.402   2.742   5.840
 5986SOL    HW219733   6.535   2.689   5.890
 5987SOL     OW19734   0.429   2.767  10.500
 5987SOL    HW119735   0.515   2.755  10.460
 5987SOL    HW219736   0.425   2.861  10.521
 5988SOL     OW19737   6.478   1.621  10.177
 5988SOL    HW119738   6.493   1.702  10.128
 5988SOL    HW219739   6.407   1.577  10.130
 5989SOL     OW19740   9.281  10.092  12.455
 5989SOL    HW119741   9.200  10.128  12.418
 5989SOL    HW219742   9.342  10.091  12.381
 5990SOL     OW19743   7.043   6.603   0.738
 5990SOL    HW119744   7.006   6.528   0.691
 5990SOL    HW219745   6.997   6.604   0.822
 5991SOL     OW19746   4.271   8.976   0.028
 5991SOL    HW119747   4.304   9.047  14.851
 5991SOL    HW219748   4.206   8.932  14.852
 5992SOL     OW19749  11.353   6.813  14.624
 5992SOL    HW119750  11.360   6.727  14.664
 5992SOL    HW219751  11.424   6.817  14.561
 5993SOL     OW19752   2.889  13.095   1.034
 5993SOL    HW119753   2.801  13.074   1.003
 5993SOL    HW219754   2.946  13.073   0.960
 5994SOL     OW19755   6.883   0.913   9.471
 5994SOL    HW119756   6.913   0.968   9.398
 5994SOL    HW219757   6.830   0.845   9.429
 5995SOL     OW19758  12.512  13.323   6.158
 5995SOL    HW119759  12.590  13.270   6.149
 5995SOL    HW219760  12.458  13.276   6.222
 5996SOL     OW19761  12.053   5.391   6.568
 5996SOL    HW119762  11.960   5.376   6.549
 5996SOL    HW219763  12.062   5.486   6.567
 5997SOL     OW19764   1.868   2.223   5.418
 5997SOL    HW119765   1.818   2.235   5.338
 5997SOL    HW219766   1.938   2.289   5.412
 5998SOL     OW19767   7.971   4.453   0.277
 5998SOL    HW119768   7.965   4.522   0.343
 5998SOL    HW219769   7.917   4.484   0.204
 5999SOL     OW19770   7.011   5.912   9.844
 5999SOL    HW119771   7.054   5.840   9.797
 5999SOL    HW219772   6.917   5.894   9.834
 6000SOL     OW19773   5.430   1.722   9.990
 6000SOL    HW119774   5.362   1.702  10.054
 6000SOL    HW219775   5.399   1.683   9.909
 6001SOL     OW19776   3.276   7.992   3.986
 6001SOL    HW119777   3.276   8.043   3.905
 6001SOL    HW219778   3.350   8.027   4.037
 6002SOL     OW19779   6.486  11.273   1.559
 6002SOL    HW119780   6.466  11.209   1.491
 6002SOL    HW219781   6.522  11.348   1.512
 6003SOL     OW19782   4.034  12.174  10.727
 6003SOL    HW119783   4.033  12.175  10.823
 6003SOL    HW219784   4.075  12.257  10.703
 6004SOL     OW19785   6.903   3.660   0.730
 6004SOL    HW119786   6.976   3.660   0.668
 6004SOL    HW219787   6.913   3.578   0.779
 6005SOL     OW19788  11.742  12.258  11.800
 6005SOL    HW119789  11.833  12.266  11.831
 6005SOL    HW219790  11.750  12.257  11.705
 6006SOL     OW19791   5.306   2.606  12.075
 6006SOL    HW119792   5.364   2.593  12.150
 6006SOL    HW219793   5.225   2.641  12.114
 6007SOL     OW19794   0.437   4.606  11.915
 6007SOL    HW119795   0.514   4.571  11.959
 6007SOL    HW219796   0.433   4.698  11.942
 6008SOL     OW19797   2.252   2.675   5.891
 6008SOL    HW119798   2.292   2.606   5.944
 6008SOL    HW219799   2.179   2.706   5.945
 6009SOL     OW19800  12.644  10.265   9.233
 6009SOL    HW119801  12.656  10.212   9.312
 6009SOL    HW219802  12.732  10.294   9.210
 6010SOL     OW19803   2.784   9.363   8.709
 6010SOL    HW119804   2.857   9.416   8.739
 6010SOL    HW219805   2.754   9.406   8.629
 6011SOL     OW19806   1.936   6.782   9.877
 6011SOL    HW119807   1.875   6.818   9.812
 6011SOL    HW219808   2.018   6.828   9.861
 6012SOL     OW19809   0.531   1.586  11.012
 6012SOL    HW119810   0.539   1.675  11.046
 6012SOL    HW219811   0.437   1.572  11.004
 6013SOL     OW19812  14.330  14.541   4.115
 6013SOL    HW119813  14.372  14.456   4.103
 6013SOL    HW219814  14.379  14.583   4.186
 6014SOL     OW19815   6.216   6.157  10.096
 6014SOL    HW119816   6.151   6.211  10.052
 6014SOL    HW219817   6.166   6.106  10.160
 6015SOL     OW19818   2.013   3.878  11.480
 6015SOL    HW119819   1.942   3.898  11.418
 6015SOL    HW219820   1.971   3.881  11.566
 6016SOL     OW19821   9.073  14.612   9.985
 6016SOL    HW119822   9.004  14.556  10.019
 6016SOL    HW219823   9.123  14.639  10.061
 6017SOL     OW19824   9.969   3.833   5.831
 6017SOL    HW119825   9.923   3.756   5.863
 6017SOL    HW219826   9.927   3.907   5.874
 6018SOL     OW19827  13.953  14.695   2.890
 6018SOL    HW119828  13.868  14.663   2.861
 6018SOL    HW219829  13.993  14.621   2.935
 6019SOL     OW19830  11.605   4.549   8.985
 6019SOL    HW119831  11.522   4.554   8.939
 6019SOL    HW219832  11.629   4.640   9.003
 6020SOL     OW19833  12.817  13.231   1.937
 6020SOL    HW119834  12.863  13.305   1.978
 6020SOL    HW219835  12.874  13.205   1.865
 6021SOL     OW19836   8.718   5.119  14.240
 6021SOL    HW119837   8.657   5.192  14.225
 6021SOL    HW219838   8.805   5.156  14.223
 6022SOL     OW19839   7.522   2.050   7.752
 6022SOL    HW119840   7.469   2.073   7.828
 6022SOL    HW219841   7.462   2.054   7.678
 6023SOL     OW19842  11.284  14.133   7.281
 6023SOL    HW119843  11.289  14.197   7.352
 6023SOL    HW219844  11.318  14.052   7.319
 6024SOL     OW19845   3.367   0.927   5.982
 6024SOL    HW119846   3.351   0.837   6.009
 6024SOL    HW219847   3.463   0.935   5.978
 6025SOL     OW19848   2.048   2.341   7.589
 6025SOL    HW119849   1.969   2.296   7.619
 6025SOL    HW219850   2.035   2.432   7.616
 6026SOL     OW19851   3.503   1.485   3.694
 6026SOL    HW119852   3.412   1.464   3.672
 6026SOL    HW219853   3.544   1.401   3.712
 6027SOL     OW19854   4.682  14.487  14.390
 6027SOL    HW119855   4.732  14.502  14.310
 6027SOL    HW219856   4.595  14.462  14.360
 6028SOL     OW19857  13.138  10.434  13.695
 6028SOL    HW119858  13.114  10.392  13.612
 6028SOL    HW219859  13.143  10.362  13.758
 6029SOL     OW19860   5.453   1.463   6.729
 6029SOL    HW119861   5.487   1.550   6.707
 6029SOL    HW219862   5.529   1.405   6.720
 6030SOL     OW19863   4.269  11.503   9.132
 6030SOL    HW119864   4.227  11.467   9.054
 6030SOL    HW219865   4.361  11.515   9.108
 6031SOL     OW19866   9.247  12.508   4.825
 6031SOL    HW119867   9.171  12.565   4.814
 6031SOL    HW219868   9.247  12.451   4.748
 6032SOL     OW19869  12.373  13.521   6.592
 6032SOL    HW119870  12.292  13.551   6.632
 6032SOL    HW219871  12.422  13.482   6.665
 6033SOL     OW19872   8.034   8.956   9.772
 6033SOL    HW119873   8.081   8.988   9.695
 6033SOL    HW219874   7.943   8.950   9.743
 6034SOL     OW19875  14.852  13.256   2.919
 6034SOL    HW119876   0.012  13.254   3.007
 6034SOL    HW219877  14.806  13.172   2.912
 6035SOL     OW19878   9.417  14.125   9.870
 6035SOL    HW119879   9.491  14.064   9.860
 6035SOL    HW219880   9.373  14.095   9.949
 6036SOL     OW19881  13.030   3.877  12.757
 6036SOL    HW119882  13.104   3.916  12.710
 6036SOL    HW219883  13.054   3.785  12.768
 6037SOL     OW19884   2.264   4.439   3.034
 6037SOL    HW119885   2.285   4.532   3.030
 6037SOL    HW219886   2.349   4.395   3.035
 6038SOL     OW19887  13.222   1.438   1.772
 6038SOL    HW119888  13.303   1.481   1.745
 6038SOL    HW219889  13.198   1.383   1.697
 6039SOL     OW19890   6.718   2.159  13.575
 6039SOL    HW119891   6.625   2.139  13.568
 6039SOL    HW219892   6.750   2.153  13.485
 6040SOL     OW19893  11.300   3.684   9.558
 6040SOL    HW119894  11.302   3.687   9.654
 6040SOL    HW219895  11.389   3.657   9.534
 6041SOL     OW19896  10.141   8.826   6.787
 6041SOL    HW119897  10.109   8.879   6.860
 6041SOL    HW219898  10.068   8.826   6.724
 6042SOL     OW19899   5.326   3.736  12.881
 6042SOL    HW119900   5.371   3.794  12.942
 6042SOL    HW219901   5.306   3.658  12.932
 6043SOL     OW19902   5.817   6.852  13.561
 6043SOL    HW119903   5.845   6.810  13.643
 6043SOL    HW219904   5.859   6.938  13.562
 6044SOL     OW19905  13.766   1.533  13.985
 6044SOL    HW119906  13.812   1.487  13.915
 6044SOL    HW219907  13.804   1.621  13.986
 6045SOL     OW19908   8.134   8.940  14.642
 6045SOL    HW119909   8.051   8.985  14.655
 6045SOL    HW219910   8.188   9.002  14.594
 6046SOL     OW19911  13.833  12.154  12.203
 6046SOL    HW119912  13.843  12.147  12.298
 6046SOL    HW219913  13.850  12.066  12.170
 6047SOL     OW19914   6.723  10.849   2.232
 6047SOL    HW119915   6.660  10.916   2.258
 6047SOL    HW219916   6.734  10.795   2.311
 6048SOL     OW19917   7.337   7.992   8.102
 6048SOL    HW119918   7.408   7.980   8.039
 6048SOL    HW219919   7.374   7.963   8.186
 6049SOL     OW19920  14.610   2.640   9.720
 6049SOL    HW119921  14.565   2.573   9.668
 6049SOL    HW219922  14.697   2.647   9.680
 6050SOL     OW19923   3.306   7.292  11.068
 6050SOL    HW119924   3.332   7.249  11.150
 6050SOL    HW219925   3.242   7.233  11.030
 6051SOL     OW19926  11.610   6.931   4.019
 6051SOL    HW119927  11.583   6.963   4.105
 6051SOL    HW219928  11.532   6.888   3.984
 6052SOL     OW19929  12.302  10.990   6.338
 6052SOL    HW119930  12.389  11.028   6.347
 6052SOL    HW219931  12.316  10.909   6.289
 6053SOL     OW19932   4.989   6.995  14.125
 6053SOL    HW119933   4.994   6.963  14.215
 6053SOL    HW219934   5.069   7.047  14.113
 6054SOL     OW19935   1.967   5.217  11.431
 6054SOL    HW119936   1.965   5.124  11.456
 6054SOL    HW219937   2.018   5.219  11.350
 6055SOL     OW19938   1.473  13.242   3.918
 6055SOL    HW119939   1.547  13.290   3.955
 6055SOL    HW219940   1.407  13.244   3.987
 6056SOL     OW19941   2.124   9.610   5.021
 6056SOL    HW119942   2.069   9.639   5.094
 6056SOL    HW219943   2.062   9.573   4.958
 6057SOL     OW19944   0.696   2.028   7.667
 6057SOL    HW119945   0.749   2.085   7.722
 6057SOL    HW219946   0.666   2.084   7.596
 6058SOL     OW19947  14.251   0.482  13.446
 6058SOL    HW119948  14.225   0.391  13.434
 6058SOL    HW219949  14.313   0.499  13.375
 6059SOL     OW19950  10.853   0.569   8.354
 6059SOL    HW119951  10.940   0.547   8.389
 6059SOL    HW219952  10.864   0.567   8.259
 6060SOL     OW19953   3.784   3.434   7.051
 6060SOL    HW119954   3.785   3.355   6.997
 6060SOL    HW219955   3.757   3.504   6.991
 6061SOL     OW19956   8.663   2.058  10.478
 6061SOL    HW119957   8.569   2.072  10.484
 6061SOL    HW219958   8.699   2.106  10.553
 6062SOL     OW19959   3.434  13.083   5.812
 6062SOL    HW119960   3.352  13.115   5.774
 6062SOL    HW219961   3.502  13.138   5.771
 6063SOL     OW19962   8.471  12.673   6.014
 6063SOL    HW119963   8.532  12.701   6.082
 6063SOL    HW219964   8.385  12.683   6.054
 6064SOL     OW19965   7.716  14.006  12.630
 6064SOL    HW119966   7.739  13.994  12.722
 6064SOL    HW219967   7.714  14.101  12.618
 6065SOL     OW19968   3.901   7.984   0.219
 6065SOL    HW119969   3.982   7.933   0.227
 6065SOL    HW219970   3.876   7.975   0.128
 6066SOL     OW19971   2.350   7.098  11.365
 6066SOL    HW119972   2.378   7.113  11.275
 6066SOL    HW219973   2.343   7.003  11.373
 6067SOL     OW19974  13.548   1.636   8.720
 6067SOL    HW119975  13.454   1.652   8.716
 6067SOL    HW219976  13.587   1.713   8.679
 6068SOL     OW19977  10.624   9.469   8.220
 6068SOL    HW119978  10.529   9.477   8.227
 6068SOL    HW219979  10.638   9.419   8.139
 6069SOL     OW19980   6.116   3.817   4.277
 6069SOL    HW119981   6.192   3.778   4.234
 6069SOL    HW219982   6.042   3.798   4.219
 6070SOL     OW19983  13.855  13.162  12.973
 6070SOL    HW119984  13.869  13.160  12.879
 6070SOL    HW219985  13.764  13.135  12.984
 6071SOL     OW19986  14.390   0.380   1.880
 6071SOL    HW119987  14.338   0.455   1.852
 6071SOL    HW219988  14.480   0.413   1.885
 6072SOL     OW19989   9.147   6.120  14.388
 6072SOL    HW119990   9.093   6.077  14.455
 6072SOL    HW219991   9.085   6.177  14.341
 6073SOL     OW19992   5.101  13.314   0.999
 6073SOL    HW119993   5.173  13.376   0.985
 6073SOL    HW219994   5.023  13.362   0.969
 6074SOL     OW19995   5.397   7.644  10.099
 6074SOL    HW119996   5.332   7.580  10.128
 6074SOL    HW219997   5.377   7.659  10.007
 6075SOL     OW19998  11.368   0.031   9.754
 6075SOL    HW119999  11.366   0.003   9.662
 6075SOL    HW220000  11.427   0.107   9.754
 6076SOL     OW20001   1.084  10.012   0.918
 6076SOL    HW120002   1.174  10.043   0.926
 6076SOL    HW220003   1.069  10.004   0.824
 6077SOL     OW20004   8.405   5.101   9.268
 6077SOL    HW120005   8.369   5.036   9.209
 6077SOL    HW220006   8.351   5.179   9.254
 6078SOL     OW20007   0.401   1.973   6.023
 6078SOL    HW120008   0.340   2.031   5.977
 6078SOL    HW220009   0.486   1.992   5.984
 6079SOL     OW20010   6.046  13.021  14.189
 6079SOL    HW120011   6.024  12.952  14.251
 6079SOL    HW220012   6.141  13.020  14.183
 6080SOL     OW20013  10.174   4.398   3.566
 6080SOL    HW120014  10.187   4.434   3.479
 6080SOL    HW220015  10.240   4.442   3.620
 6081SOL     OW20016  11.370  10.632   3.492
 6081SOL    HW120017  11.421  10.607   3.569
 6081SOL    HW220018  11.293  10.677   3.528
 6082SOL     OW20019   1.731   0.213   7.609
 6082SOL    HW120020   1.771   0.296   7.636
 6082SOL    HW220021   1.677   0.188   7.684
 6083SOL     OW20022  12.403  12.846   5.698
 6083SOL    HW120023  12.384  12.848   5.605
 6083SOL    HW220024  12.434  12.757   5.715
 6084SOL     OW20025  12.774  12.510   6.964
 6084SOL    HW120026  12.813  12.493   6.878
 6084SOL    HW220027  12.797  12.601   6.983
 6085SOL     OW20028   2.768  10.004   9.318
 6085SOL    HW120029   2.691   9.983   9.371
 6085SOL    HW220030   2.842   9.978   9.373
 6086SOL     OW20031  10.465  11.984   8.664
 6086SOL    HW120032  10.500  12.010   8.749
 6086SOL    HW220033  10.371  12.004   8.670
 6087SOL     OW20034   2.537   0.918   8.939
 6087SOL    HW120035   2.578   0.837   8.909
 6087SOL    HW220036   2.468   0.935   8.875
 6088SOL     OW20037   6.333  14.662  11.799
 6088SOL    HW120038   6.338  14.709  11.883
 6088SOL    HW220039   6.320  14.570  11.824
 6089SOL     OW20040  11.816  14.704   0.454
 6089SOL    HW120041  11.782  14.650   0.525
 6089SOL    HW220042  11.871  14.769   0.498
 6090SOL     OW20043   1.527   3.898  13.298
 6090SOL    HW120044   1.440   3.882  13.334
 6090SOL    HW220045   1.571   3.952  13.363
 6091SOL     OW20046   8.235  13.625  13.686
 6091SOL    HW120047   8.321  13.662  13.705
 6091SOL    HW220048   8.253  13.548  13.632
 6092SOL     OW20049  10.751   3.282   2.204
 6092SOL    HW120050  10.702   3.325   2.274
 6092SOL    HW220051  10.689   3.277   2.131
 6093SOL     OW20052   5.819   7.493  12.996
 6093SOL    HW120053   5.905   7.522  12.965
 6093SOL    HW220054   5.768   7.573  13.005
 6094SOL     OW20055  13.962   3.299   2.405
 6094SOL    HW120056  14.008   3.342   2.333
 6094SOL    HW220057  13.882   3.350   2.415
 6095SOL     OW20058   5.586  11.622   3.406
 6095SOL    HW120059   5.630  11.681   3.345
 6095SOL    HW220060   5.530  11.680   3.459
 6096SOL     OW20061   1.289   1.284   4.186
 6096SOL    HW120062   1.210   1.335   4.206
 6096SOL    HW220063   1.358   1.328   4.237
 6097SOL     OW20064  14.261   3.691  12.118
 6097SOL    HW120065  14.286   3.621  12.178
 6097SOL    HW220066  14.247   3.647  12.034
 6098SOL     OW20067   7.769   3.189   5.437
 6098SOL    HW120068   7.846   3.206   5.383
 6098SOL    HW220069   7.749   3.274   5.477
 6099SOL     OW20070  12.567   3.367  12.005
 6099SOL    HW120071  12.611   3.419  12.072
 6099SOL    HW220072  12.490   3.332  12.048
 6100SOL     OW20073  11.954  14.744  12.501
 6100SOL    HW120074  11.919  14.752  12.413
 6100SOL    HW220075  12.043  14.778  12.496
 6101SOL     OW20076   9.982   3.137   1.050
 6101SOL    HW120077  10.024   3.055   1.078
 6101SOL    HW220078   9.945   3.174   1.129
 6102SOL     OW20079  11.237   1.764   3.524
 6102SOL    HW120080  11.254   1.818   3.447
 6102SOL    HW220081  11.307   1.787   3.585
 6103SOL     OW20082   5.274  13.561   8.626
 6103SOL    HW120083   5.265  13.508   8.705
 6103SOL    HW220084   5.237  13.646   8.649
 6104SOL     OW20085   8.029  12.921   9.167
 6104SOL    HW120086   7.952  12.911   9.112
 6104SOL    HW220087   8.060  13.010   9.149
 6105SOL     OW20088   1.442   3.348   1.324
 6105SOL    HW120089   1.532   3.318   1.311
 6105SOL    HW220090   1.410   3.367   1.236
 6106SOL     OW20091   4.548   3.743   9.120
 6106SOL    HW120092   4.504   3.771   9.039
 6106SOL    HW220093   4.638   3.724   9.092
 6107SOL     OW20094  10.527   0.545   6.922
 6107SOL    HW120095  10.605   0.599   6.933
 6107SOL    HW220096  10.455   0.601   6.952
 6108SOL     OW20097   7.934  13.376   5.264
 6108SOL    HW120098   7.894  13.441   5.322
 6108SOL    HW220099   7.865  13.311   5.250
 6109SOL     OW20100  12.201   3.491  10.376
 6109SOL    HW120101  12.187   3.522  10.286
 6109SOL    HW220102  12.158   3.557  10.430
 6110SOL     OW20103   8.346   8.590   7.532
 6110SOL    HW120104   8.431   8.547   7.537
 6110SOL    HW220105   8.341   8.625   7.443
 6111SOL     OW20106   7.452  11.254   2.755
 6111SOL    HW120107   7.430  11.334   2.803
 6111SOL    HW220108   7.402  11.185   2.799
 6112SOL     OW20109   1.979   7.488   2.964
 6112SOL    HW120110   2.019   7.558   3.016
 6112SOL    HW220111   2.053   7.434   2.936
 6113SOL     OW20112   7.100  14.308   1.327
 6113SOL    HW120113   7.101  14.223   1.282
 6113SOL    HW220114   7.033  14.298   1.395
 6114SOL     OW20115   5.261  11.749   3.808
 6114SOL    HW120116   5.199  11.703   3.865
 6114SOL    HW220117   5.208  11.786   3.738
 6115SOL     OW20118  12.529   7.563  13.975
 6115SOL    HW120119  12.460   7.508  13.937
 6115SOL    HW220120  12.564   7.611  13.900
 6116SOL     OW20121   9.270   6.612   9.325
 6116SOL    HW120122   9.216   6.535   9.305
 6116SOL    HW220123   9.342   6.606   9.262
 6117SOL     OW20124   4.178   2.928  11.414
 6117SOL    HW120125   4.173   2.944  11.320
 6117SOL    HW220126   4.088   2.939  11.445
 6118SOL     OW20127   1.569  14.195  13.679
 6118SOL    HW120128   1.607  14.261  13.737
 6118SOL    HW220129   1.585  14.228  13.591
 6119SOL     OW20130   8.037   1.402   7.533
 6119SOL    HW120131   7.994   1.454   7.465
 6119SOL    HW220132   8.025   1.311   7.503
 6120SOL     OW20133  13.948  11.195   8.794
 6120SOL    HW120134  13.998  11.148   8.727
 6120SOL    HW220135  13.912  11.126   8.850
 6121SOL     OW20136  12.334   2.027   9.608
 6121SOL    HW120137  12.241   2.046   9.622
 6121SOL    HW220138  12.348   1.943   9.650
 6122SOL     OW20139  12.020   9.967   8.088
 6122SOL    HW120140  11.941   9.967   8.142
 6122SOL    HW220141  11.996  10.015   8.009
 6123SOL     OW20142   5.807   0.734   2.196
 6123SOL    HW120143   5.861   0.658   2.173
 6123SOL    HW220144   5.731   0.696   2.241
 6124SOL     OW20145   3.999   8.551   5.218
 6124SOL    HW120146   3.957   8.599   5.290
 6124SOL    HW220147   3.930   8.537   5.154
 6125SOL     OW20148   3.456   0.812  14.341
 6125SOL    HW120149   3.455   0.754  14.265
 6125SOL    HW220150   3.549   0.825  14.360
 6126SOL     OW20151   8.039   6.827  13.886
 6126SOL    HW120152   8.084   6.789  13.962
 6126SOL    HW220153   8.110   6.864  13.833
 6127SOL     OW20154  13.872   1.381  13.792
 6127SOL    HW120155  13.843   1.341  13.710
 6127SOL    HW220156  13.848   1.317  13.860
 6128SOL     OW20157  11.983  12.213   7.878
 6128SOL    HW120158  11.990  12.145   7.811
 6128SOL    HW220159  12.065  12.262   7.870
 6129SOL     OW20160  11.610  10.643  13.845
 6129SOL    HW120161  11.666  10.702  13.896
 6129SOL    HW220162  11.624  10.557  13.884
 6130SOL     OW20163   8.387   2.988   8.475
 6130SOL    HW120164   8.340   2.927   8.417
 6130SOL    HW220165   8.444   3.038   8.416
 6131SOL     OW20166   5.031  12.801   0.797
 6131SOL    HW120167   5.068  12.794   0.885
 6131SOL    HW220168   4.938  12.818   0.811
 6132SOL     OW20169  11.601  14.226   6.996
 6132SOL    HW120170  11.648  14.251   6.916
 6132SOL    HW220171  11.605  14.305   7.051
 6133SOL     OW20172   4.740   4.261   4.391
 6133SOL    HW120173   4.736   4.252   4.486
 6133SOL    HW220174   4.740   4.171   4.358
 6134SOL     OW20175   3.659  13.946   4.808
 6134SOL    HW120176   3.706  13.883   4.863
 6134SOL    HW220177   3.668  14.029   4.854
 6135SOL     OW20178   6.703   5.019   8.766
 6135SOL    HW120179   6.680   5.029   8.673
 6135SOL    HW220180   6.755   4.940   8.770
 6136SOL     OW20181   0.854   7.806   9.346
 6136SOL    HW120182   0.821   7.721   9.316
 6136SOL    HW220183   0.778   7.863   9.347
 6137SOL     OW20184  11.021  13.551   0.772
 6137SOL    HW120185  10.927  13.558   0.791
 6137SOL    HW220186  11.051  13.642   0.766
 6138SOL     OW20187   9.679   1.845   9.488
 6138SOL    HW120188   9.658   1.901   9.414
 6138SOL    HW220189   9.620   1.770   9.479
 6139SOL     OW20190  11.497   2.613   1.166
 6139SOL    HW120191  11.565   2.679   1.165
 6139SOL    HW220192  11.459   2.618   1.254
 6140SOL     OW20193  13.492   7.776   5.286
 6140SOL    HW120194  13.525   7.687   5.277
 6140SOL    HW220195  13.502   7.795   5.380
 6141SOL     OW20196  12.842   9.242  12.239
 6141SOL    HW120197  12.906   9.302  12.277
 6141SOL    HW220198  12.818   9.182  12.310
 6142SOL     OW20199  13.492   2.653   6.478
 6142SOL    HW120200  13.401   2.622   6.479
 6142SOL    HW220201  13.487   2.741   6.515
 6143SOL     OW20202  14.320   5.561  13.415
 6143SOL    HW120203  14.352   5.509  13.489
 6143SOL    HW220204  14.363   5.523  13.338
 6144SOL     OW20205  12.209  13.318   4.499
 6144SOL    HW120206  12.220  13.234   4.455
 6144SOL    HW220207  12.132  13.306   4.555
 6145SOL     OW20208   2.963   7.336   0.001
 6145SOL    HW120209   2.949   7.274  14.806
 6145SOL    HW220210   3.022   7.290   0.061
 6146SOL     OW20211   8.012   1.092  11.521
 6146SOL    HW120212   8.056   1.031  11.462
 6146SOL    HW220213   7.921   1.094  11.491
 6147SOL     OW20214   1.755   1.682  10.162
 6147SOL    HW120215   1.816   1.717  10.097
 6147SOL    HW220216   1.745   1.754  10.225
 6148SOL     OW20217   5.688   8.911  12.299
 6148SOL    HW120218   5.620   8.900  12.232
 6148SOL    HW220219   5.655   8.863  12.374
 6149SOL     OW20220   3.153   1.867   0.789
 6149SOL    HW120221   3.208   1.822   0.854
 6149SOL    HW220222   3.074   1.890   0.838
 6150SOL     OW20223   8.863   6.094  13.379
 6150SOL    HW120224   8.836   6.185  13.365
 6150SOL    HW220225   8.815   6.067  13.457
 6151SOL     OW20226   7.115   3.366  13.720
 6151SOL    HW120227   7.172   3.444  13.721
 6151SOL    HW220228   7.068   3.372  13.637
 6152SOL     OW20229  14.788   0.671   6.491
 6152SOL    HW120230  14.739   0.592   6.513
 6152SOL    HW220231  14.838   0.690   6.570
 6153SOL     OW20232   6.641   0.009   4.399
 6153SOL    HW120233   6.697  14.862   4.473
 6153SOL    HW220234   6.701   0.012   4.324
 6154SOL     OW20235   7.445   8.245   2.694
 6154SOL    HW120236   7.486   8.325   2.660
 6154SOL    HW220237   7.517   8.182   2.698
 6155SOL     OW20238   3.687   2.941   2.055
 6155SOL    HW120239   3.742   2.887   1.998
 6155SOL    HW220240   3.675   2.888   2.134
 6156SOL     OW20241   3.486  12.273   8.439
 6156SOL    HW120242   3.435  12.353   8.444
 6156SOL    HW220243   3.478  12.233   8.525
 6157SOL     OW20244   8.918   9.490   8.154
 6157SOL    HW120245   8.907   9.410   8.206
 6157SOL    HW220246   9.012   9.508   8.158
 6158SOL     OW20247   1.440   0.182   2.614
 6158SOL    HW120248   1.360   0.224   2.584
 6158SOL    HW220249   1.421   0.088   2.613
 6159SOL     OW20250   0.241  11.920   4.676
 6159SOL    HW120251   0.236  11.999   4.730
 6159SOL    HW220252   0.151  11.902   4.651
 6160SOL     OW20253   6.433  14.673   0.237
 6160SOL    HW120254   6.387  14.589   0.226
 6160SOL    HW220255   6.525  14.649   0.239
 6161SOL     OW20256   4.012   7.216   1.038
 6161SOL    HW120257   3.996   7.181   1.126
 6161SOL    HW220258   4.054   7.144   0.991
 6162SOL     OW20259  14.179  10.185  12.215
 6162SOL    HW120260  14.270  10.202  12.190
 6162SOL    HW220261  14.163  10.095  12.187
 6163SOL     OW20262   1.629   2.671   1.546
 6163SOL    HW120263   1.676   2.662   1.628
 6163SOL    HW220264   1.569   2.744   1.560
 6164SOL     OW20265   4.454   9.762   3.591
 6164SOL    HW120266   4.363   9.743   3.565
 6164SOL    HW220267   4.507   9.722   3.522
 6165SOL     OW20268   1.266   7.974   1.229
 6165SOL    HW120269   1.317   7.897   1.204
 6165SOL    HW220270   1.189   7.939   1.274
 6166SOL     OW20271   6.097   5.383   4.901
 6166SOL    HW120272   6.181   5.338   4.893
 6166SOL    HW220273   6.032   5.312   4.905
 6167SOL     OW20274   4.504  12.490  12.843
 6167SOL    HW120275   4.523  12.399  12.866
 6167SOL    HW220276   4.566  12.541  12.895
 6168SOL     OW20277  12.609  11.065   8.990
 6168SOL    HW120278  12.626  10.997   9.056
 6168SOL    HW220279  12.522  11.099   9.012
 6169SOL     OW20280   9.115   0.978   0.805
 6169SOL    HW120281   9.140   1.018   0.721
 6169SOL    HW220282   9.064   1.046   0.849
 6170SOL     OW20283   8.005  10.298   8.228
 6170SOL    HW120284   7.993  10.216   8.276
 6170SOL    HW220285   7.923  10.311   8.181
 6171SOL     OW20286   9.403   2.006  12.507
 6171SOL    HW120287   9.396   2.074  12.440
 6171SOL    HW220288   9.344   1.936  12.477
 6172SOL     OW20289   3.618  13.758   3.813
 6172SOL    HW120290   3.697  13.800   3.779
 6172SOL    HW220291   3.608  13.679   3.760
 6173SOL     OW20292   9.154   6.573   6.276
 6173SOL    HW120293   9.130   6.663   6.300
 6173SOL    HW220294   9.215   6.546   6.343
 6174SOL     OW20295   0.113  13.523   1.124
 6174SOL    HW120296   0.143  13.486   1.041
 6174SOL    HW220297   0.017  13.519   1.118
 6175SOL     OW20298   6.374  11.004  13.721
 6175SOL    HW120299   6.339  11.052  13.796
 6175SOL    HW220300   6.380  11.069  13.651
 6176SOL     OW20301  10.364   7.018   2.551
 6176SOL    HW120302  10.365   7.103   2.506
 6176SOL    HW220303  10.305   7.032   2.625
 6177SOL     OW20304  11.599  11.563  10.911
 6177SOL    HW120305  11.518  11.607  10.885
 6177SOL    HW220306  11.637  11.534  10.828
 6178SOL     OW20307  11.423  11.014   3.671
 6178SOL    HW120308  11.368  11.046   3.600
 6178SOL    HW220309  11.512  11.035   3.643
 6179SOL     OW20310   3.293   9.729  11.067
 6179SOL    HW120311   3.240   9.706  11.143
 6179SOL    HW220312   3.326   9.817  11.086
 6180SOL     OW20313   0.627   7.871   3.274
 6180SOL    HW120314   0.552   7.926   3.297
 6180SOL    HW220315   0.675   7.921   3.208
 6181SOL     OW20316  10.137   9.349   9.992
 6181SOL    HW120317  10.194   9.315  10.060
 6181SOL    HW220318  10.155   9.293   9.916
 6182SOL     OW20319   5.405   4.807   3.739
 6182SOL    HW120320   5.400   4.892   3.782
 6182SOL    HW220321   5.461   4.821   3.662
 6183SOL     OW20322   2.907   2.390  12.314
 6183SOL    HW120323   2.858   2.310  12.291
 6183SOL    HW220324   2.841   2.459  12.312
 6184SOL     OW20325  11.736   5.901   1.503
 6184SOL    HW120326  11.647   5.909   1.468
 6184SOL    HW220327  11.791   5.948   1.440
 6185SOL     OW20328  11.309  12.146   8.084
 6185SOL    HW120329  11.314  12.183   8.172
 6185SOL    HW220330  11.400  12.126   8.062
 6186SOL     OW20331   2.914   5.801   6.533
 6186SOL    HW120332   3.006   5.773   6.532
 6186SOL    HW220333   2.864   5.720   6.526
 6187SOL     OW20334   7.996   9.191   0.139
 6187SOL    HW120335   8.018   9.191   0.233
 6187SOL    HW220336   8.009   9.100   0.112
 6188SOL     OW20337   9.937   9.190   4.228
 6188SOL    HW120338   9.894   9.127   4.286
 6188SOL    HW220339  10.022   9.151   4.208
 6189SOL     OW20340   0.975   5.497   8.956
 6189SOL    HW120341   0.907   5.556   8.989
 6189SOL    HW220342   0.943   5.410   8.977
 6190SOL     OW20343   6.576   2.561   4.956
 6190SOL    HW120344   6.592   2.469   4.977
 6190SOL    HW220345   6.492   2.580   4.997
 6191SOL     OW20346   9.144  14.251   1.121
 6191SOL    HW120347   9.146  14.156   1.133
 6191SOL    HW220348   9.052  14.270   1.101
 6192SOL     OW20349   4.670   0.462   3.576
 6192SOL    HW120350   4.643   0.373   3.554
 6192SOL    HW220351   4.739   0.482   3.512
 6193SOL     OW20352  12.879  12.682  13.183
 6193SOL    HW120353  12.829  12.694  13.264
 6193SOL    HW220354  12.844  12.601  13.146
 6194SOL     OW20355   6.260   6.972   0.052
 6194SOL    HW120356   6.178   7.018   0.073
 6194SOL    HW220357   6.279   6.921   0.131
 6195SOL     OW20358   8.765  11.125   2.053
 6195SOL    HW120359   8.719  11.078   1.984
 6195SOL    HW220360   8.750  11.218   2.034
 6196SOL     OW20361   6.554   5.897  10.636
 6196SOL    HW120362   6.648   5.911  10.639
 6196SOL    HW220363   6.517   5.984  10.621
 6197SOL     OW20364   2.594   6.398   4.355
 6197SOL    HW120365   2.578   6.310   4.321
 6197SOL    HW220366   2.617   6.385   4.446
 6198SOL     OW20367   4.318  10.549   6.064
 6198SOL    HW120368   4.371  10.627   6.049
 6198SOL    HW220369   4.315  10.540   6.159
 6199SOL     OW20370   1.133   3.964   3.432
 6199SOL    HW120371   1.213   4.001   3.471
 6199SOL    HW220372   1.146   3.869   3.438
 6200SOL     OW20373  14.232   5.738  10.582
 6200SOL    HW120374  14.230   5.674  10.653
 6200SOL    HW220375  14.306   5.711  10.528
 6201SOL     OW20376   4.465   7.868   6.786
 6201SOL    HW120377   4.448   7.889   6.694
 6201SOL    HW220378   4.523   7.938   6.817
 6202SOL     OW20379  11.173   0.244  14.139
 6202SOL    HW120380  11.236   0.297  14.091
 6202SOL    HW220381  11.221   0.214  14.217
 6203SOL     OW20382   9.325   0.106   3.005
 6203SOL    HW120383   9.339   0.144   2.919
 6203SOL    HW220384   9.274   0.026   2.989
 6204SOL     OW20385  10.167   3.222   8.621
 6204SOL    HW120386  10.164   3.211   8.716
 6204SOL    HW220387  10.154   3.133   8.587
 6205SOL     OW20388   4.912   6.438  11.794
 6205SOL    HW120389   4.923   6.466  11.703
 6205SOL    HW220390   4.894   6.344  11.789
 6206SOL     OW20391   6.351   5.068   5.354
 6206SOL    HW120392   6.275   5.023   5.317
 6206SOL    HW220393   6.367   5.142   5.295
 6207SOL     OW20394   8.048   7.604   9.723
 6207SOL    HW120395   8.137   7.578   9.746
 6207SOL    HW220396   8.018   7.659   9.795
 6208SOL     OW20397   1.766   0.126  13.027
 6208SOL    HW120398   1.789   0.201  13.081
 6208SOL    HW220399   1.851   0.090  12.998
 6209SOL     OW20400   6.483   9.488  12.585
 6209SOL    HW120401   6.548   9.418  12.596
 6209SOL    HW220402   6.415   9.448  12.531
 6210SOL     OW20403   7.419   3.012   6.685
 6210SOL    HW120404   7.471   2.940   6.650
 6210SOL    HW220405   7.336   3.007   6.637
 6211SOL     OW20406  12.476   5.494   5.738
 6211SOL    HW120407  12.554   5.491   5.682
 6211SOL    HW220408  12.500   5.443   5.815
 6212SOL     OW20409   6.089   1.690   3.648
 6212SOL    HW120410   6.140   1.664   3.571
 6212SOL    HW220411   6.037   1.613   3.670
 6213SOL     OW20412   5.687  12.883   9.094
 6213SOL    HW120413   5.686  12.899   9.000
 6213SOL    HW220414   5.633  12.953   9.132
 6214SOL     OW20415   3.889   1.365  13.039
 6214SOL    HW120416   3.819   1.391  13.098
 6214SOL    HW220417   3.847   1.310  12.973
 6215SOL     OW20418   1.114   6.436   3.380
 6215SOL    HW120419   1.120   6.342   3.393
 6215SOL    HW220420   1.154   6.474   3.458
 6216SOL     OW20421   1.924   4.598   8.795
 6216SOL    HW120422   1.904   4.624   8.705
 6216SOL    HW220423   1.936   4.503   8.790
 6217SOL     OW20424   8.421   2.990   9.082
 6217SOL    HW120425   8.395   2.918   9.025
 6217SOL    HW220426   8.345   3.006   9.137
 6218SOL     OW20427  13.742   7.185   0.924
 6218SOL    HW120428  13.811   7.185   0.858
 6218SOL    HW220429  13.788   7.194   1.008
 6219SOL     OW20430   8.157   5.403   0.001
 6219SOL    HW120431   8.215   5.338   0.042
 6219SOL    HW220432   8.147   5.372  14.789
 6220SOL     OW20433   1.435  11.994   7.259
 6220SOL    HW120434   1.473  12.080   7.240
 6220SOL    HW220435   1.510  11.937   7.272
 6221SOL     OW20436   9.235   7.144   0.597
 6221SOL    HW120437   9.235   7.240   0.594
 6221SOL    HW220438   9.208   7.117   0.509
 6222SOL     OW20439   8.829  10.573   2.281
 6222SOL    HW120440   8.840  10.503   2.345
 6222SOL    HW220441   8.764  10.539   2.219
 6223SOL     OW20442  12.930  11.958   8.570
 6223SOL    HW120443  12.881  11.972   8.489
 6223SOL    HW220444  12.924  11.864   8.586
 6224SOL     OW20445  14.759  12.395  13.461
 6224SOL    HW120446  14.780  12.307  13.431
 6224SOL    HW220447  14.664  12.396  13.469
 6225SOL     OW20448   3.230   7.104   5.122
 6225SOL    HW120449   3.233   7.071   5.212
 6225SOL    HW220450   3.138   7.128   5.109
 6226SOL     OW20451   8.793   7.364   4.362
 6226SOL    HW120452   8.711   7.397   4.326
 6226SOL    HW220453   8.795   7.397   4.452
 6227SOL     OW20454   2.321   5.747   2.427
 6227SOL    HW120455   2.343   5.717   2.339
 6227SOL    HW220456   2.404   5.777   2.463
 6228SOL     OW20457  12.060  12.374   6.478
 6228SOL    HW120458  12.038  12.461   6.446
 6228SOL    HW220459  12.020  12.315   6.413
 6229SOL     OW20460   3.126  14.497  13.590
 6229SOL    HW120461   3.131  14.593  13.594
 6229SOL    HW220462   3.119  14.471  13.682
 6230SOL     OW20463  10.997   0.009   7.099
 6230SOL    HW120464  10.987  14.792   7.115
 6230SOL    HW220465  10.998   0.048   7.186
 6231SOL     OW20466  10.546   0.401   0.154
 6231SOL    HW120467  10.553   0.312   0.189
 6231SOL    HW220468  10.637   0.431   0.146
 6232SOL     OW20469   7.924   4.791   2.597
 6232SOL    HW120470   7.941   4.750   2.512
 6232SOL    HW220471   8.008   4.789   2.642
 6233SOL     OW20472   7.460   2.900  10.970
 6233SOL    HW120473   7.387   2.960  10.955
 6233SOL    HW220474   7.513   2.906  10.890
 6234SOL     OW20475  12.317   3.869  14.649
 6234SOL    HW120476  12.251   3.814  14.691
 6234SOL    HW220477  12.334   3.938  14.713
 6235SOL     OW20478   7.046   2.229  10.858
 6235SOL    HW120479   7.129   2.229  10.906
 6235SOL    HW220480   6.987   2.281  10.911
 6236SOL     OW20481  14.050   9.840   1.766
 6236SOL    HW120482  14.021   9.749   1.763
 6236SOL    HW220483  13.981   9.885   1.815
 6237SOL     OW20484  14.841   5.454   6.993
 6237SOL    HW120485  14.803   5.463   7.080
 6237SOL    HW220486  14.773   5.487   6.933
 6238SOL     OW20487   0.037   5.111   4.665
 6238SOL    HW120488   0.057   5.197   4.627
 6238SOL    HW220489   0.026   5.128   4.759
 6239SOL     OW20490   1.833  12.277   5.944
 6239SOL    HW120491   1.863  12.342   5.880
 6239SOL    HW220492   1.886  12.294   6.022
 6240SOL     OW20493   5.349  11.612  14.447
 6240SOL    HW120494   5.329  11.665  14.370
 6240SOL    HW220495   5.397  11.537  14.412
 6241SOL     OW20496   5.365   2.386   4.486
 6241SOL    HW120497   5.385   2.466   4.535
 6241SOL    HW220498   5.291   2.348   4.533
 6242SOL     OW20499   1.422  11.996   3.790
 6242SOL    HW120500   1.498  11.959   3.836
 6242SOL    HW220501   1.365  11.920   3.775
 6243SOL     OW20502   5.633  10.865   7.462
 6243SOL    HW120503   5.542  10.893   7.465
 6243SOL    HW220504   5.680  10.939   7.423
 6244SOL     OW20505   2.964  10.587   8.911
 6244SOL    HW120506   3.042  10.539   8.882
 6244SOL    HW220507   2.987  10.679   8.897
 6245SOL     OW20508   9.151  10.500   2.492
 6245SOL    HW120509   9.061  10.472   2.507
 6245SOL    HW220510   9.198  10.473   2.571
 6246SOL     OW20511  11.747  11.224   2.166
 6246SOL    HW120512  11.700  11.198   2.086
 6246SOL    HW220513  11.772  11.141   2.206
 6247SOL     OW20514  14.568   0.517  14.622
 6247SOL    HW120515  14.576   0.605  14.583
 6247SOL    HW220516  14.476   0.510  14.646
 6248SOL     OW20517  12.723   1.341   2.183
 6248SOL    HW120518  12.774   1.272   2.225
 6248SOL    HW220519  12.790   1.400   2.146
 6249SOL     OW20520   7.475  12.028   9.843
 6249SOL    HW120521   7.554  11.987   9.806
 6249SOL    HW220522   7.490  12.122   9.834
 6250SOL     OW20523  14.858   5.463   0.291
 6250SOL    HW120524   0.001   5.539   0.236
 6250SOL    HW220525   0.014   5.388   0.242
 6251SOL     OW20526   6.880   2.550   7.533
 6251SOL    HW120527   6.821   2.496   7.585
 6251SOL    HW220528   6.904   2.495   7.458
 6252SOL     OW20529  13.173   3.952   2.834
 6252SOL    HW120530  13.120   3.948   2.755
 6252SOL    HW220531  13.110   3.962   2.905
 6253SOL     OW20532   8.745   4.967   4.921
 6253SOL    HW120533   8.808   5.023   4.967
 6253SOL    HW220534   8.799   4.913   4.864
 6254SOL     OW20535   7.591   2.590  10.010
 6254SOL    HW120536   7.597   2.504   9.969
 6254SOL    HW220537   7.622   2.651   9.943
 6255SOL     OW20538  14.869  12.037   9.421
 6255SOL    HW120539  14.822  12.118   9.440
 6255SOL    HW220540   0.026  12.049   9.333
 6256SOL     OW20541   4.073  14.692   1.597
 6256SOL    HW120542   4.134  14.764   1.616
 6256SOL    HW220543   4.103  14.658   1.512
 6257SOL     OW20544  12.308   7.053  14.623
 6257SOL    HW120545  12.392   7.096  14.606
 6257SOL    HW220546  12.320   7.009  14.707
 6258SOL     OW20547   0.027  13.006   2.658
 6258SOL    HW120548   0.117  12.974   2.667
 6258SOL    HW220549  14.868  13.000   2.746
 6259SOL     OW20550  14.258   6.526   6.515
 6259SOL    HW120551  14.242   6.568   6.599
 6259SOL    HW220552  14.353   6.525   6.506
 6260SOL     OW20553   0.831   9.221  13.339
 6260SOL    HW120554   0.822   9.143  13.393
 6260SOL    HW220555   0.812   9.294  13.398
 6261SOL     OW20556   4.905  14.745   4.245
 6261SOL    HW120557   4.901  14.757   4.150
 6261SOL    HW220558   4.813  14.749   4.274
 6262SOL     OW20559   2.859   3.809   0.468
 6262SOL    HW120560   2.928   3.759   0.512
 6262SOL    HW220561   2.855   3.892   0.515
 6263SOL     OW20562   0.239   9.515   7.594
 6263SOL    HW120563   0.157   9.523   7.545
 6263SOL    HW220564   0.249   9.421   7.609
 6264SOL     OW20565   8.344   1.516  10.425
 6264SOL    HW120566   8.416   1.486  10.368
 6264SOL    HW220567   8.270   1.460  10.401
 6265SOL     OW20568  11.917   7.435   4.954
 6265SOL    HW120569  11.934   7.361   5.013
 6265SOL    HW220570  11.964   7.414   4.874
 6266SOL     OW20571   0.008  10.220   2.018
 6266SOL    HW120572  14.825  10.278   2.065
 6266SOL    HW220573  14.867  10.236   1.926
 6267SOL     OW20574   3.052   6.111   6.704
 6267SOL    HW120575   3.142   6.079   6.712
 6267SOL    HW220576   3.038   6.121   6.610
 6268SOL     OW20577   9.973  10.827  11.057
 6268SOL    HW120578  10.002  10.736  11.065
 6268SOL    HW220579   9.952  10.853  11.147
 6269SOL     OW20580   1.982   0.089   3.352
 6269SOL    HW120581   1.995   0.041   3.270
 6269SOL    HW220582   1.917   0.156   3.330
 6270SOL     OW20583   8.825  13.261   9.332
 6270SOL    HW120584   8.917  13.242   9.317
 6270SOL    HW220585   8.819  13.279   9.426
 6271SOL     OW20586  14.099  10.989   4.659
 6271SOL    HW120587  14.062  11.064   4.706
 6271SOL    HW220588  14.090  11.012   4.567
 6272SOL     OW20589   4.847   3.003   5.236
 6272SOL    HW120590   4.827   3.013   5.329
 6272SOL    HW220591   4.804   2.922   5.210
 6273SOL     OW20592  12.602   0.477   8.202
 6273SOL    HW120593  12.540   0.450   8.269
 6273SOL    HW220594  12.686   0.441   8.231
 6274SOL     OW20595   4.154  10.106  14.149
 6274SOL    HW120596   4.190  10.183  14.105
 6274SOL    HW220597   4.059  10.118  14.144
 6275SOL     OW20598   1.384   2.301   1.938
 6275SOL    HW120599   1.404   2.311   1.845
 6275SOL    HW220600   1.290   2.287   1.942
 6276SOL     OW20601  10.314  12.796   2.909
 6276SOL    HW120602  10.275  12.854   2.845
 6276SOL    HW220603  10.241  12.740   2.937
 6277SOL     OW20604   6.615   1.304  12.648
 6277SOL    HW120605   6.553   1.292  12.720
 6277SOL    HW220606   6.569   1.271  12.571
 6278SOL     OW20607   6.811   5.340  11.301
 6278SOL    HW120608   6.769   5.259  11.272
 6278SOL    HW220609   6.902   5.331  11.271
 6279SOL     OW20610   4.394   6.559   5.701
 6279SOL    HW120611   4.420   6.518   5.619
 6279SOL    HW220612   4.300   6.578   5.689
 6280SOL     OW20613   8.813   9.652   9.088
 6280SOL    HW120614   8.869   9.600   9.145
 6280SOL    HW220615   8.764   9.588   9.037
 6281SOL     OW20616  13.255   7.319   6.168
 6281SOL    HW120617  13.245   7.259   6.242
 6281SOL    HW220618  13.316   7.274   6.109
 6282SOL     OW20619   6.490  13.335   9.849
 6282SOL    HW120620   6.526  13.421   9.830
 6282SOL    HW220621   6.474  13.296   9.763
 6283SOL     OW20622   9.839   6.995   2.208
 6283SOL    HW120623   9.903   6.993   2.136
 6283SOL    HW220624   9.833   6.904   2.237
 6284SOL     OW20625  11.270   8.495   2.498
 6284SOL    HW120626  11.287   8.448   2.416
 6284SOL    HW220627  11.175   8.502   2.503
 6285SOL     OW20628   6.074   5.638  12.871
 6285SOL    HW120629   6.073   5.729  12.900
 6285SOL    HW220630   5.986   5.623  12.837
 6286SOL     OW20631  14.365  12.112   9.215
 6286SOL    HW120632  14.393  12.179   9.153
 6286SOL    HW220633  14.415  12.132   9.295
 6287SOL     OW20634   3.625   9.677   6.550
 6287SOL    HW120635   3.542   9.671   6.503
 6287SOL    HW220636   3.673   9.747   6.506
 6288SOL     OW20637   9.433   1.522  13.721
 6288SOL    HW120638   9.359   1.549  13.667
 6288SOL    HW220639   9.495   1.595  13.714
 6289SOL     OW20640   3.814  11.653   2.071
 6289SOL    HW120641   3.789  11.583   2.131
 6289SOL    HW220642   3.838  11.726   2.128
 6290SOL     OW20643   4.695  14.711   0.118
 6290SOL    HW120644   4.748  14.789   0.106
 6290SOL    HW220645   4.754  14.638   0.096
 6291SOL     OW20646   6.526   2.003  11.885
 6291SOL    HW120647   6.482   2.086  11.865
 6291SOL    HW220648   6.579   1.985  11.807
 6292SOL     OW20649   5.108  14.012   0.096
 6292SOL    HW120650   5.091  13.930   0.143
 6292SOL    HW220651   5.181  13.992   0.038
 6293SOL     OW20652   0.901   4.380  13.134
 6293SOL    HW120653   0.982   4.398  13.181
 6293SOL    HW220654   0.860   4.309  13.183
 6294SOL     OW20655  13.280   8.028   5.985
 6294SOL    HW120656  13.340   8.026   5.911
 6294SOL    HW220657  13.303   7.951   6.037
 6295SOL     OW20658   8.359   8.482   9.105
 6295SOL    HW120659   8.315   8.466   9.022
 6295SOL    HW220660   8.434   8.537   9.082
 6296SOL     OW20661   7.737  13.707   8.146
 6296SOL    HW120662   7.785  13.625   8.150
 6296SOL    HW220663   7.781  13.763   8.210
 6297SOL     OW20664   1.591   6.049   3.391
 6297SOL    HW120665   1.614   6.104   3.316
 6297SOL    HW220666   1.666   5.990   3.401
 6298SOL     OW20667   4.337   0.810  14.477
 6298SOL    HW120668   4.404   0.743  14.465
 6298SOL    HW220669   4.367   0.884  14.423
 6299SOL     OW20670   7.011   7.464   4.845
 6299SOL    HW120671   7.059   7.537   4.884
 6299SOL    HW220672   6.921   7.496   4.837
 6300SOL     OW20673   4.415   3.686   8.011
 6300SOL    HW120674   4.445   3.712   8.098
 6300SOL    HW220675   4.339   3.629   8.028
 6301SOL     OW20676   7.986   4.946   7.187
 6301SOL    HW120677   7.892   4.933   7.198
 6301SOL    HW220678   7.993   5.019   7.125
 6302SOL     OW20679   5.631   1.910   0.310
 6302SOL    HW120680   5.697   1.937   0.374
 6302SOL    HW220681   5.673   1.840   0.261
 6303SOL     OW20682   7.794   8.926   9.618
 6303SOL    HW120683   7.854   8.906   9.547
 6303SOL    HW220684   7.741   8.846   9.627
 6304SOL     OW20685  12.748  12.429   9.993
 6304SOL    HW120686  12.708  12.511  10.022
 6304SOL    HW220687  12.832  12.427  10.040
 6305SOL     OW20688   0.495   9.280  13.066
 6305SOL    HW120689   0.504   9.201  13.119
 6305SOL    HW220690   0.412   9.268  13.019
 6306SOL     OW20691   2.478  13.373   7.348
 6306SOL    HW120692   2.550  13.351   7.406
 6306SOL    HW220693   2.465  13.295   7.294
 6307SOL     OW20694  11.156   3.775   1.323
 6307SOL    HW120695  11.109   3.821   1.253
 6307SOL    HW220696  11.245   3.765   1.289
 6308SOL     OW20697   6.486   9.249  11.645
 6308SOL    HW120698   6.475   9.183  11.713
 6308SOL    HW220699   6.580   9.267  11.643
 6309SOL     OW20700   5.108   3.794  11.975
 6309SOL    HW120701   5.140   3.724  11.918
 6309SOL    HW220702   5.181   3.856  11.980
 6310SOL     OW20703  10.299  11.321  12.015
 6310SOL    HW120704  10.344  11.257  12.070
 6310SOL    HW220705  10.225  11.274  11.978
 6311SOL     OW20706  12.673  10.516  12.809
 6311SOL    HW120707  12.670  10.594  12.753
 6311SOL    HW220708  12.700  10.549  12.895
 6312SOL     OW20709   2.890   2.668  11.405
 6312SOL    HW120710   2.833   2.621  11.345
 6312SOL    HW220711   2.832   2.696  11.476
 6313SOL     OW20712   4.662   6.072   4.532
 6313SOL    HW120713   4.690   6.146   4.586
 6313SOL    HW220714   4.593   6.030   4.583
 6314SOL     OW20715   9.806   1.466   5.211
 6314SOL    HW120716   9.846   1.534   5.266
 6314SOL    HW220717   9.865   1.460   5.135
 6315SOL     OW20718   8.276  14.264   5.857
 6315SOL    HW120719   8.332  14.249   5.780
 6315SOL    HW220720   8.235  14.348   5.841
 6316SOL     OW20721   6.085   0.106   7.104
 6316SOL    HW120722   6.057   0.014   7.105
 6316SOL    HW220723   6.055   0.139   7.020
 6317SOL     OW20724   6.239  14.578  11.371
 6317SOL    HW120725   6.331  14.590  11.349
 6317SOL    HW220726   6.197  14.555  11.288
 6318SOL     OW20727   8.514  10.702  12.138
 6318SOL    HW120728   8.589  10.665  12.091
 6318SOL    HW220729   8.548  10.782  12.178
 6319SOL     OW20730  14.625  10.519   6.035
 6319SOL    HW120731  14.559  10.449   6.037
 6319SOL    HW220732  14.654  10.526   6.126
 6320SOL     OW20733   7.235  12.109  13.612
 6320SOL    HW120734   7.147  12.146  13.612
 6320SOL    HW220735   7.221  12.016  13.634
 6321SOL     OW20736   5.191  14.853   6.992
 6321SOL    HW120737   5.167  14.847   7.085
 6321SOL    HW220738   5.131   0.042   6.957
 6322SOL     OW20739   9.339   1.513   8.004
 6322SOL    HW120740   9.250   1.533   7.974
 6322SOL    HW220741   9.365   1.590   8.055
 6323SOL     OW20742   1.764  11.872   8.302
 6323SOL    HW120743   1.735  11.781   8.292
 6323SOL    HW220744   1.859  11.866   8.310
 6324SOL     OW20745   1.850   6.379  12.281
 6324SOL    HW120746   1.794   6.364  12.205
 6324SOL    HW220747   1.882   6.469  12.271
 6325SOL     OW20748   3.827   4.636  12.906
 6325SOL    HW120749   3.907   4.681  12.879
 6325SOL    HW220750   3.809   4.574  12.836
 6326SOL     OW20751   8.817  13.662   4.565
 6326SOL    HW120752   8.875  13.596   4.604
 6326SOL    HW220753   8.816  13.733   4.630
 6327SOL     OW20754   5.296   4.189   0.897
 6327SOL    HW120755   5.385   4.222   0.882
 6327SOL    HW220756   5.287   4.187   0.992
 6328SOL     OW20757  12.895   4.846  10.697
 6328SOL    HW120758  12.956   4.908  10.656
 6328SOL    HW220759  12.822   4.841  10.636
 6329SOL     OW20760   7.246   7.926  10.829
 6329SOL    HW120761   7.302   7.870  10.775
 6329SOL    HW220762   7.175   7.868  10.858
 6330SOL     OW20763   6.021   6.826   8.394
 6330SOL    HW120764   5.944   6.770   8.388
 6330SOL    HW220765   6.089   6.778   8.346
 6331SOL     OW20766   3.688  14.027   2.714
 6331SOL    HW120767   3.611  13.990   2.758
 6331SOL    HW220768   3.653  14.067   2.634
 6332SOL     OW20769   7.369  13.074   3.755
 6332SOL    HW120770   7.360  13.082   3.850
 6332SOL    HW220771   7.377  12.980   3.740
 6333SOL     OW20772  13.813   6.247  12.970
 6333SOL    HW120773  13.749   6.192  13.015
 6333SOL    HW220774  13.828   6.321  13.029
 6334SOL     OW20775  12.937   3.343  10.524
 6334SOL    HW120776  12.880   3.273  10.557
 6334SOL    HW220777  12.883   3.389  10.459
 6335SOL     OW20778   6.953   9.765   6.612
 6335SOL    HW120779   6.889   9.769   6.541
 6335SOL    HW220780   6.941   9.678   6.650
 6336SOL     OW20781  10.444   2.225  13.172
 6336SOL    HW120782  10.403   2.310  13.157
 6336SOL    HW220783  10.403   2.166  13.108
 6337SOL     OW20784   5.939  14.737   7.169
 6337SOL    HW120785   5.925  14.645   7.192
 6337SOL    HW220786   5.870  14.784   7.217
 6338SOL     OW20787   6.807  11.344  12.490
 6338SOL    HW120788   6.861  11.275  12.449
 6338SOL    HW220789   6.866  11.385  12.553
 6339SOL     OW20790   8.840   6.854  13.946
 6339SOL    HW120791   8.927   6.818  13.964
 6339SOL    HW220792   8.786   6.823  14.018
 6340SOL     OW20793   1.759  10.988   6.481
 6340SOL    HW120794   1.776  10.901   6.445
 6340SOL    HW220795   1.840  11.037   6.464
 6341SOL     OW20796   9.607   9.699   7.290
 6341SOL    HW120797   9.618   9.670   7.381
 6341SOL    HW220798   9.606   9.619   7.239
 6342SOL     OW20799   4.690  14.324   5.406
 6342SOL    HW120800   4.628  14.372   5.461
 6342SOL    HW220801   4.737  14.267   5.467
 6343SOL     OW20802  11.069  11.346  12.045
 6343SOL    HW120803  11.066  11.405  12.120
 6343SOL    HW220804  11.081  11.259  12.084
 6344SOL     OW20805  14.652  11.488  12.006
 6344SOL    HW120806  14.629  11.397  11.990
 6344SOL    HW220807  14.568  11.532  12.017
 6345SOL     OW20808  13.382   3.577   1.036
 6345SOL    HW120809  13.414   3.488   1.049
 6345SOL    HW220810  13.455   3.633   1.063
 6346SOL     OW20811   5.880   4.008  13.195
 6346SOL    HW120812   5.829   3.958  13.132
 6346SOL    HW220813   5.929   3.943  13.243
 6347SOL     OW20814   2.919  12.918   8.069
 6347SOL    HW120815   2.842  12.861   8.072
 6347SOL    HW220816   2.977  12.876   8.006
 6348SOL     OW20817   8.420  13.957  14.175
 6348SOL    HW120818   8.512  13.929  14.169
 6348SOL    HW220819   8.370  13.879  14.152
 6349SOL     OW20820  13.384   1.005  12.527
 6349SOL    HW120821  13.351   0.947  12.596
 6349SOL    HW220822  13.435   0.947  12.470
 6350SOL     OW20823   8.518  11.875  14.075
 6350SOL    HW120824   8.561  11.791  14.092
 6350SOL    HW220825   8.581  11.941  14.106
 6351SOL     OW20826   0.190   8.233   3.169
 6351SOL    HW120827   0.156   8.224   3.259
 6351SOL    HW220828   0.280   8.264   3.181
 6352SOL     OW20829  12.958   0.307   9.286
 6352SOL    HW120830  12.982   0.263   9.205
 6352SOL    HW220831  13.017   0.382   9.290
 6353SOL     OW20832  11.524   2.809   4.112
 6353SOL    HW120833  11.458   2.800   4.044
 6353SOL    HW220834  11.557   2.898   4.102
 6354SOL     OW20835  14.204   7.117   0.193
 6354SOL    HW120836  14.139   7.056   0.229
 6354SOL    HW220837  14.152   7.188   0.155
 6355SOL     OW20838   5.594   2.261   4.359
 6355SOL    HW120839   5.655   2.330   4.332
 6355SOL    HW220840   5.519   2.308   4.397
 6356SOL     OW20841   3.889  12.812   5.369
 6356SOL    HW120842   3.958  12.774   5.315
 6356SOL    HW220843   3.899  12.906   5.359
 6357SOL     OW20844  10.830   8.360   1.068
 6357SOL    HW120845  10.883   8.376   1.146
 6357SOL    HW220846  10.820   8.264   1.066
 6358SOL     OW20847  11.237   8.772   0.216
 6358SOL    HW120848  11.144   8.752   0.226
 6358SOL    HW220849  11.281   8.713   0.278
 6359SOL     OW20850  14.639   2.405   9.138
 6359SOL    HW120851  14.695   2.424   9.214
 6359SOL    HW220852  14.694   2.353   9.080
 6360SOL     OW20853  12.821  14.279   3.514
 6360SOL    HW120854  12.743  14.324   3.545
 6360SOL    HW220855  12.838  14.212   3.580
 6361SOL     OW20856   5.276   7.590   3.969
 6361SOL    HW120857   5.317   7.641   4.038
 6361SOL    HW220858   5.193   7.559   4.007
 6362SOL     OW20859  11.634  10.564   1.085
 6362SOL    HW120860  11.720  10.573   1.125
 6362SOL    HW220861  11.572  10.569   1.158
 6363SOL     OW20862   6.089   5.619   9.222
 6363SOL    HW120863   6.001   5.655   9.210
 6363SOL    HW220864   6.081   5.561   9.298
 6364SOL     OW20865   5.567   6.188   2.522
 6364SOL    HW120866   5.528   6.258   2.470
 6364SOL    HW220867   5.576   6.115   2.460
 6365SOL     OW20868  10.276   9.073  11.995
 6365SOL    HW120869  10.256   9.128  12.070
 6365SOL    HW220870  10.192   9.063  11.950
 6366SOL     OW20871   5.585   3.321  14.544
 6366SOL    HW120872   5.566   3.229  14.558
 6366SOL    HW220873   5.556   3.364  14.624
 6367SOL     OW20874   5.482   6.815  12.929
 6367SOL    HW120875   5.543   6.770  12.987
 6367SOL    HW220876   5.511   6.906  12.928
 6368SOL     OW20877   3.774   5.073   1.864
 6368SOL    HW120878   3.691   5.051   1.906
 6368SOL    HW220879   3.762   5.163   1.832
 6369SOL     OW20880  11.926   3.278   6.269
 6369SOL    HW120881  12.020   3.286   6.255
 6369SOL    HW220882  11.889   3.353   6.223
 6370SOL     OW20883   8.972   5.246   3.747
 6370SOL    HW120884   9.053   5.236   3.698
 6370SOL    HW220885   8.971   5.172   3.808
 6371SOL     OW20886   2.457   4.532   5.304
 6371SOL    HW120887   2.510   4.490   5.371
 6371SOL    HW220888   2.483   4.490   5.222
 6372SOL     OW20889  13.649   1.454   4.001
 6372SOL    HW120890  13.647   1.376   3.945
 6372SOL    HW220891  13.727   1.502   3.971
 6373SOL     OW20892   9.732   9.034   1.204
 6373SOL    HW120893   9.682   8.972   1.256
 6373SOL    HW220894   9.818   9.038   1.246
 6374SOL     OW20895   2.677   2.267  11.742
 6374SOL    HW120896   2.613   2.196  11.743
 6374SOL    HW220897   2.625   2.347  11.754
 6375SOL     OW20898   7.176  13.046   4.567
 6375SOL    HW120899   7.220  12.996   4.498
 6375SOL    HW220900   7.246  13.074   4.625
 6376SOL     OW20901   3.986   1.872   4.659
 6376SOL    HW120902   4.012   1.962   4.639
 6376SOL    HW220903   4.057   1.838   4.713
 6377SOL     OW20904  10.940   1.043   0.364
 6377SOL    HW120905  10.995   1.107   0.319
 6377SOL    HW220906  10.977   0.958   0.341
 6378SOL     OW20907   7.618   7.473   3.068
 6378SOL    HW120908   7.593   7.551   3.019
 6378SOL    HW220909   7.559   7.472   3.143
 6379SOL     OW20910   1.746   4.492   2.222
 6379SOL    HW120911   1.769   4.584   2.204
 6379SOL    HW220912   1.752   4.449   2.136
 6380SOL     OW20913   2.758  10.015  11.152
 6380SOL    HW120914   2.695   9.960  11.105
 6380SOL    HW220915   2.705  10.059  11.219
 6381SOL     OW20916   7.463   6.948   2.471
 6381SOL    HW120917   7.447   6.855   2.455
 6381SOL    HW220918   7.429   6.963   2.559
 6382SOL     OW20919   0.003  13.969   7.398
 6382SOL    HW120920  14.825  13.921   7.460
 6382SOL    HW220921   0.078  13.997   7.450
 6383SOL     OW20922   3.014   9.017   4.606
 6383SOL    HW120923   3.105   8.990   4.595
 6383SOL    HW220924   2.983   8.969   4.683
 6384SOL     OW20925   7.490  12.351   6.301
 6384SOL    HW120926   7.518  12.437   6.333
 6384SOL    HW220927   7.491  12.359   6.206
 6385SOL     OW20928   9.987   9.081  10.982
 6385SOL    HW120929  10.024   9.003  10.940
 6385SOL    HW220930   9.893   9.075  10.964
 6386SOL     OW20931  11.100   2.374  10.406
 6386SOL    HW120932  11.109   2.343  10.496
 6386SOL    HW220933  11.184   2.354  10.365
 6387SOL     OW20934   8.196  13.839  13.901
 6387SOL    HW120935   8.233  13.807  13.983
 6387SOL    HW220936   8.231  13.780  13.834
 6388SOL     OW20937   7.081  14.482   2.811
 6388SOL    HW120938   7.028  14.431   2.749
 6388SOL    HW220939   7.158  14.508   2.761
 6389SOL     OW20940  14.793   2.699   4.132
 6389SOL    HW120941  14.842   2.693   4.050
 6389SOL    HW220942  14.766   2.610   4.151
 6390SOL     OW20943   8.961   3.334   0.311
 6390SOL    HW120944   9.053   3.309   0.299
 6390SOL    HW220945   8.963   3.429   0.313
 6391SOL     OW20946  14.448   0.362   5.752
 6391SOL    HW120947  14.443   0.303   5.828
 6391SOL    HW220948  14.358   0.366   5.719
 6392SOL     OW20949   5.531  12.351   2.184
 6392SOL    HW120950   5.623  12.351   2.155
 6392SOL    HW220951   5.488  12.416   2.128
 6393SOL     OW20952   7.746   1.134  11.482
 6393SOL    HW120953   7.674   1.195  11.466
 6393SOL    HW220954   7.704   1.050  11.497
 6394SOL     OW20955   8.847   8.477  10.676
 6394SOL    HW120956   8.781   8.496  10.742
 6394SOL    HW220957   8.925   8.523  10.707
 6395SOL     OW20958  13.720   4.046   9.630
 6395SOL    HW120959  13.641   4.085   9.593
 6395SOL    HW220960  13.737   3.970   9.575
 6396SOL     OW20961  12.829   9.910  12.820
 6396SOL    HW120962  12.903   9.971  12.820
 6396SOL    HW220963  12.753   9.965  12.837
 6397SOL     OW20964  14.517   1.784  14.362
 6397SOL    HW120965  14.507   1.758  14.454
 6397SOL    HW220966  14.528   1.701  14.315
 6398SOL     OW20967  10.831   7.004   4.099
 6398SOL    HW120968  10.786   7.046   4.026
 6398SOL    HW220969  10.826   7.067   4.171
 6399SOL     OW20970   3.794   8.333  12.718
 6399SOL    HW120971   3.775   8.379  12.800
 6399SOL    HW220972   3.870   8.378  12.682
 6400SOL     OW20973   8.470   4.425  10.714
 6400SOL    HW120974   8.393   4.406  10.661
 6400SOL    HW220975   8.517   4.342  10.719
 6401SOL     OW20976  13.721   1.803  11.128
 6401SOL    HW120977  13.696   1.783  11.039
 6401SOL    HW220978  13.763   1.889  11.123
 6402SOL     OW20979   9.996  12.368  12.369
 6402SOL    HW120980   9.922  12.356  12.428
 6402SOL    HW220981  10.072  12.337  12.419
 6403SOL     OW20982   2.531   0.479   8.098
 6403SOL    HW120983   2.505   0.388   8.096
 6403SOL    HW220984   2.584   0.491   8.019
 6404SOL     OW20985   4.763  13.599  14.467
 6404SOL    HW120986   4.785  13.530  14.529
 6404SOL    HW220987   4.691  13.646  14.507
 6405SOL     OW20988   2.971   8.201   4.833
 6405SOL    HW120989   2.915   8.132   4.868
 6405SOL    HW220990   3.053   8.158   4.812
 6406SOL     OW20991   0.901  11.023   6.833
 6406SOL    HW120992   0.877  11.115   6.833
 6406SOL    HW220993   0.941  11.008   6.747
 6407SOL     OW20994   5.702   0.476   0.399
 6407SOL    HW120995   5.610   0.466   0.374
 6407SOL    HW220996   5.698   0.524   0.482
 6408SOL     OW20997   4.502  14.650   1.004
 6408SOL    HW120998   4.456  14.568   0.985
 6408SOL    HW220999   4.441  14.700   1.058
 6409SOL     OW21000   9.467  12.051   5.647
 6409SOL    HW121001   9.378  12.016   5.642
 6409SOL    HW221002   9.507  12.004   5.720
 6410SOL     OW21003   0.078   7.217  12.227
 6410SOL    HW121004   0.093   7.183  12.316
 6410SOL    HW221005   0.163   7.208  12.183
 6411SOL     OW21006   3.512   2.780  13.122
 6411SOL    HW121007   3.524   2.703  13.066
 6411SOL    HW221008   3.424   2.769  13.157
 6412SOL     OW21009  13.797   5.480  10.980
 6412SOL    HW121010  13.716   5.506  11.023
 6412SOL    HW221011  13.773   5.467  10.888
 6413SOL     OW21012   9.896   0.716   6.098
 6413SOL    HW121013   9.974   0.693   6.048
 6413SOL    HW221014   9.908   0.808   6.120
 6414SOL     OW21015  11.279  11.604   1.687
 6414SOL    HW121016  11.231  11.531   1.724
 6414SOL    HW221017  11.310  11.573   1.602
 6415SOL     OW21018  14.684   2.212   4.668
 6415SOL    HW121019  14.765   2.168   4.695
 6415SOL    HW221020  14.615   2.169   4.718
 6416SOL     OW21021  11.137  12.018   3.907
 6416SOL    HW121022  11.147  11.927   3.937
 6416SOL    HW221023  11.090  12.062   3.978
 6417SOL     OW21024   3.675   0.367  12.950
 6417SOL    HW121025   3.753   0.421  12.958
 6417SOL    HW221026   3.706   0.277  12.963
 6418SOL     OW21027   0.737  13.772  10.334
 6418SOL    HW121028   0.766  13.824  10.260
 6418SOL    HW221029   0.811  13.772  10.394
 6419SOL     OW21030  10.302   7.267   0.886
 6419SOL    HW121031  10.268   7.185   0.850
 6419SOL    HW221032  10.227   7.326   0.888
 6420SOL     OW21033   2.773   9.571   3.428
 6420SOL    HW121034   2.746   9.480   3.415
 6420SOL    HW221035   2.838   9.587   3.360
 6421SOL     OW21036   4.125  11.429   1.710
 6421SOL    HW121037   4.031  11.450   1.717
 6421SOL    HW221038   4.128  11.334   1.699
 6422SOL     OW21039  10.640  14.588   7.571
 6422SOL    HW121040  10.708  14.618   7.510
 6422SOL    HW221041  10.665  14.499   7.593
 6423SOL     OW21042   2.622   1.536   5.626
 6423SOL    HW121043   2.596   1.603   5.564
 6423SOL    HW221044   2.662   1.467   5.572
 6424SOL     OW21045   9.622  11.472  10.872
 6424SOL    HW121046   9.530  11.445  10.878
 6424SOL    HW221047   9.650  11.480  10.963
 6425SOL     OW21048  10.908   2.396  14.679
 6425SOL    HW121049  10.943   2.328  14.621
 6425SOL    HW221050  10.899   2.473  14.622
 6426SOL     OW21051   4.588   0.458   8.259
 6426SOL    HW121052   4.517   0.475   8.198
 6426SOL    HW221053   4.647   0.399   8.212
 6427SOL     OW21054   0.479   4.178   8.081
 6427SOL    HW121055   0.476   4.200   7.988
 6427SOL    HW221056   0.492   4.083   8.083
 6428SOL     OW21057   5.677   3.331  11.683
 6428SOL    HW121058   5.730   3.410  11.685
 6428SOL    HW221059   5.687   3.292  11.770
 6429SOL     OW21060   9.732   0.848   1.084
 6429SOL    HW121061   9.798   0.835   1.152
 6429SOL    HW221062   9.745   0.776   1.023
 6430SOL     OW21063  13.655   5.138   1.712
 6430SOL    HW121064  13.606   5.214   1.743
 6430SOL    HW221065  13.744   5.151   1.747
 6431SOL     OW21066  13.816   4.695   8.050
 6431SOL    HW121067  13.811   4.617   8.106
 6431SOL    HW221068  13.796   4.768   8.109
 6432SOL     OW21069   9.544  13.296   4.406
 6432SOL    HW121070   9.596  13.271   4.483
 6432SOL    HW221071   9.575  13.385   4.385
 6433SOL     OW21072   2.026  11.779  11.193
 6433SOL    HW121073   2.064  11.835  11.125
 6433SOL    HW221074   1.942  11.752  11.156
 6434SOL     OW21075  11.307   1.372  12.820
 6434SOL    HW121076  11.342   1.389  12.907
 6434SOL    HW221077  11.219   1.339  12.835
 6435SOL     OW21078   1.553  13.489  12.583
 6435SOL    HW121079   1.479  13.547  12.601
 6435SOL    HW221080   1.536  13.411  12.635
 6436SOL     OW21081   0.665   6.661   4.503
 6436SOL    HW121082   0.586   6.637   4.550
 6436SOL    HW221083   0.641   6.653   4.410
 6437SOL     OW21084  13.119   7.562  11.881
 6437SOL    HW121085  13.134   7.641  11.829
 6437SOL    HW221086  13.030   7.571  11.914
 6438SOL     OW21087   6.311  12.897  12.677
 6438SOL    HW121088   6.308  12.871  12.585
 6438SOL    HW221089   6.318  12.815  12.725
 6439SOL     OW21090   9.786   4.291  10.076
 6439SOL    HW121091   9.831   4.270   9.994
 6439SOL    HW221092   9.738   4.371  10.056
 6440SOL     OW21093  12.018   1.200  12.511
 6440SOL    HW121094  12.011   1.230  12.420
 6440SOL    HW221095  11.965   1.120  12.513
 6441SOL     OW21096  10.937   2.200   7.432
 6441SOL    HW121097  11.019   2.162   7.463
 6441SOL    HW221098  10.961   2.285   7.396
 6442SOL     OW21099   6.933   4.104   8.792
 6442SOL    HW121100   6.968   4.192   8.808
 6442SOL    HW221101   6.840   4.111   8.812
 6443SOL     OW21102   3.097   9.946  10.564
 6443SOL    HW121103   3.181   9.943  10.608
 6443SOL    HW221104   3.042  10.001  10.620
 6444SOL     OW21105   1.252   4.579  12.130
 6444SOL    HW121106   1.297   4.511  12.079
 6444SOL    HW221107   1.311   4.596  12.203
 6445SOL     OW21108   5.029   7.484  14.601
 6445SOL    HW121109   4.992   7.571  14.594
 6445SOL    HW221110   4.961   7.432  14.645
 6446SOL     OW21111   8.601   3.564   7.996
 6446SOL    HW121112   8.680   3.543   8.045
 6446SOL    HW221113   8.552   3.623   8.054
 6447SOL     OW21114   9.469   7.376   5.108
 6447SOL    HW121115   9.424   7.415   5.182
 6447SOL    HW221116   9.486   7.285   5.135
 6448SOL     OW21117   6.093  10.384   1.518
 6448SOL    HW121118   6.142  10.399   1.437
 6448SOL    HW221119   6.036  10.461   1.526
 6449SOL     OW21120  14.873   2.742   7.769
 6449SOL    HW121121   0.044   2.666   7.737
 6449SOL    HW221122   0.053   2.781   7.834
 6450SOL     OW21123   3.635   1.982  13.451
 6450SOL    HW121124   3.703   1.986  13.519
 6450SOL    HW221125   3.684   1.974  13.370
 6451SOL     OW21126   5.730   0.511  13.114
 6451SOL    HW121127   5.737   0.604  13.134
 6451SOL    HW221128   5.803   0.471  13.162
 6452SOL     OW21129  11.571   8.051   3.614
 6452SOL    HW121130  11.632   8.090   3.552
 6452SOL    HW221131  11.621   7.980   3.655
 6453SOL     OW21132   4.506   7.777   2.776
 6453SOL    HW121133   4.561   7.853   2.789
 6453SOL    HW221134   4.464   7.792   2.691
 6454SOL     OW21135  13.946  10.796  13.534
 6454SOL    HW121136  13.906  10.730  13.591
 6454SOL    HW221137  13.957  10.872  13.591
 6455SOL     OW21138   0.210   7.198   1.322
 6455SOL    HW121139   0.174   7.260   1.386
 6455SOL    HW221140   0.279   7.247   1.277
 6456SOL     OW21141   8.433   0.310   3.852
 6456SOL    HW121142   8.506   0.255   3.880
 6456SOL    HW221143   8.474   0.383   3.806
 6457SOL     OW21144   4.331   0.229   3.624
 6457SOL    HW121145   4.256   0.184   3.664
 6457SOL    HW221146   4.330   0.316   3.663
 6458SOL     OW21147   6.911   0.402   4.139
 6458SOL    HW121148   6.819   0.386   4.117
 6458SOL    HW221149   6.960   0.349   4.075
 6459SOL     OW21150   6.071  10.613   8.574
 6459SOL    HW121151   6.105  10.700   8.554
 6459SOL    HW221152   6.143  10.554   8.557
 6460SOL     OW21153   1.883  10.948  10.411
 6460SOL    HW121154   1.890  10.856  10.384
 6460SOL    HW221155   1.951  10.959  10.477
 6461SOL     OW21156  12.730  12.740  13.443
 6461SOL    HW121157  12.729  12.684  13.521
 6461SOL    HW221158  12.670  12.697  13.382
 6462SOL     OW21159   7.541  10.080  14.054
 6462SOL    HW121160   7.634  10.070  14.038
 6462SOL    HW221161   7.499  10.035  13.981
 6463SOL     OW21162   1.803   5.999  12.013
 6463SOL    HW121163   1.767   6.000  12.101
 6463SOL    HW221164   1.727   6.009  11.956
 6464SOL     OW21165   3.420   0.579   1.069
 6464SOL    HW121166   3.335   0.535   1.060
 6464SOL    HW221167   3.472   0.519   1.122
 6465SOL     OW21168   8.322   7.503   5.443
 6465SOL    HW121169   8.409   7.534   5.470
 6465SOL    HW221170   8.276   7.583   5.416
 6466SOL     OW21171   7.629   9.971   1.992
 6466SOL    HW121172   7.541   9.939   1.973
 6466SOL    HW221173   7.634  10.055   1.946
 6467SOL     OW21174   6.129   1.031  13.919
 6467SOL    HW121175   6.088   1.008  14.002
 6467SOL    HW221176   6.202   0.970  13.911
 6468SOL     OW21177   8.729  14.627  14.075
 6468SOL    HW121178   8.682  14.544  14.088
 6468SOL    HW221179   8.820  14.607  14.096
 6469SOL     OW21180  12.572  12.240   8.931
 6469SOL    HW121181  12.667  12.251   8.936
 6469SOL    HW221182  12.539  12.324   8.898
 6470SOL     OW21183   1.991   4.072   0.902
 6470SOL    HW121184   2.001   4.000   0.964
 6470SOL    HW221185   2.080   4.107   0.891
 6471SOL     OW21186   2.249   3.453   3.027
 6471SOL    HW121187   2.200   3.459   2.944
 6471SOL    HW221188   2.330   3.501   3.010
 6472SOL     OW21189  12.588   9.250  12.061
 6472SOL    HW121190  12.664   9.247  12.119
 6472SOL    HW221191  12.515   9.275  12.118
 6473SOL     OW21192   8.054  11.751  11.980
 6473SOL    HW121193   7.976  11.756  12.036
 6473SOL    HW221194   8.099  11.834  11.995
 6474SOL     OW21195   7.866   6.311  10.121
 6474SOL    HW121196   7.889   6.290  10.031
 6474SOL    HW221197   7.820   6.395  10.116
 6475SOL     OW21198   6.259  13.367   1.183
 6475SOL    HW121199   6.189  13.374   1.119
 6475SOL    HW221200   6.278  13.273   1.189
 6476SOL     OW21201  10.444  12.715   2.142
 6476SOL    HW121202  10.452  12.624   2.172
 6476SOL    HW221203  10.533  12.741   2.120
 6477SOL     OW21204   8.475  12.115   3.162
 6477SOL    HW121205   8.462  12.094   3.255
 6477SOL    HW221206   8.402  12.174   3.141
 6478SOL     OW21207   6.081  13.589   4.857
 6478SOL    HW121208   5.988  13.605   4.840
 6478SOL    HW221209   6.109  13.530   4.787
 6479SOL     OW21210  12.184   9.283   5.287
 6479SOL    HW121211  12.174   9.374   5.258
 6479SOL    HW221212  12.267   9.283   5.336
 6480SOL     OW21213   6.603   7.966  13.999
 6480SOL    HW121214   6.587   7.896  14.063
 6480SOL    HW221215   6.565   7.933  13.918
 6481SOL     OW21216   0.283   4.396   6.845
 6481SOL    HW121217   0.339   4.456   6.797
 6481SOL    HW221218   0.201   4.443   6.856
 6482SOL     OW21219  11.802  12.730  12.905
 6482SOL    HW121220  11.858  12.730  12.828
 6482SOL    HW221221  11.751  12.649  12.898
 6483SOL     OW21222   0.427   5.313   4.195
 6483SOL    HW121223   0.460   5.305   4.105
 6483SOL    HW221224   0.504   5.338   4.247
 6484SOL     OW21225   5.835  13.286   5.431
 6484SOL    HW121226   5.828  13.363   5.374
 6484SOL    HW221227   5.882  13.317   5.508
 6485SOL     OW21228   3.307   8.488   1.401
 6485SOL    HW121229   3.340   8.532   1.480
 6485SOL    HW221230   3.372   8.420   1.383
 6486SOL     OW21231  11.387  14.173  14.153
 6486SOL    HW121232  11.325  14.231  14.197
 6486SOL    HW221233  11.441  14.137  14.224
 6487SOL     OW21234   9.358  12.228  11.120
 6487SOL    HW121235   9.321  12.244  11.033
 6487SOL    HW221236   9.290  12.256  11.181
 6488SOL     OW21237  10.705   2.832  10.090
 6488SOL    HW121238  10.743   2.878  10.015
 6488SOL    HW221239  10.780   2.792  10.134
 6489SOL     OW21240  11.863   6.890   2.732
 6489SOL    HW121241  11.822   6.932   2.808
 6489SOL    HW221242  11.789   6.855   2.682
 6490SOL     OW21243  13.789  13.653   9.278
 6490SOL    HW121244  13.868  13.707   9.280
 6490SOL    HW221245  13.718  13.715   9.266
 6491SOL     OW21246   2.722   1.677   6.107
 6491SOL    HW121247   2.795   1.731   6.077
 6491SOL    HW221248   2.691   1.632   6.028
 6492SOL     OW21249   3.084   1.848   8.853
 6492SOL    HW121250   3.170   1.832   8.815
 6492SOL    HW221251   3.059   1.764   8.892
 6493SOL     OW21252   8.876  11.969  13.165
 6493SOL    HW121253   8.794  11.967  13.116
 6493SOL    HW221254   8.885  11.880  13.201
 6494SOL     OW21255  11.505   8.096   2.692
 6494SOL    HW121256  11.553   8.158   2.746
 6494SOL    HW221257  11.463   8.037   2.755
 6495SOL     OW21258   9.888   5.996  12.520
 6495SOL    HW121259   9.922   5.917  12.561
 6495SOL    HW221260   9.941   6.007  12.441
 6496SOL     OW21261   9.221   3.346   4.681
 6496SOL    HW121262   9.210   3.400   4.603
 6496SOL    HW221263   9.310   3.311   4.674
 6497SOL     OW21264   6.968   8.927  13.675
 6497SOL    HW121265   6.980   8.841  13.714
 6497SOL    HW221266   6.899   8.968  13.726
 6498SOL     OW21267   0.886   6.801  12.891
 6498SOL    HW121268   0.943   6.878  12.889
 6498SOL    HW221269   0.922   6.743  12.825
 6499SOL     OW21270  12.684  13.590  12.246
 6499SOL    HW121271  12.766  13.548  12.272
 6499SOL    HW221272  12.627  13.582  12.323
 6500SOL     OW21273   7.580   4.274   1.883
 6500SOL    HW121274   7.606   4.356   1.926
 6500SOL    HW221275   7.543   4.302   1.799
 6501SOL     OW21276   7.104   3.960  11.074
 6501SOL    HW121277   7.191   3.992  11.050
 6501SOL    HW221278   7.081   3.899  11.003
 6502SOL     OW21279  13.629   0.887   1.134
 6502SOL    HW121280  13.641   0.898   1.228
 6502SOL    HW221281  13.700   0.828   1.107
 6503SOL     OW21282   9.186   2.857   8.153
 6503SOL    HW121283   9.239   2.903   8.089
 6503SOL    HW221284   9.097   2.862   8.120
 6504SOL     OW21285  12.591   5.181   3.433
 6504SOL    HW121286  12.669   5.229   3.463
 6504SOL    HW221287  12.518   5.227   3.475
 6505SOL     OW21288   7.219   9.351   1.521
 6505SOL    HW121289   7.302   9.375   1.562
 6505SOL    HW221290   7.244   9.300   1.444
 6506SOL     OW21291   7.980   3.929   9.935
 6506SOL    HW121292   7.915   3.999   9.943
 6506SOL    HW221293   8.046   3.963   9.876
 6507SOL     OW21294   4.826   9.245   7.865
 6507SOL    HW121295   4.765   9.290   7.923
 6507SOL    HW221296   4.902   9.302   7.859
 6508SOL     OW21297  10.151  10.839  12.283
 6508SOL    HW121298  10.176  10.754  12.246
 6508SOL    HW221299  10.218  10.857  12.349
 6509SOL     OW21300  13.587  11.198   3.098
 6509SOL    HW121301  13.539  11.280   3.087
 6509SOL    HW221302  13.521  11.137   3.131
 6510SOL     OW21303   3.097  14.281   3.812
 6510SOL    HW121304   3.130  14.371   3.817
 6510SOL    HW221305   3.038  14.281   3.736
 6511SOL     OW21306   4.209  12.837   6.227
 6511SOL    HW121307   4.295  12.797   6.238
 6511SOL    HW221308   4.227  12.925   6.194
 6512SOL     OW21309   3.298   9.864  13.551
 6512SOL    HW121310   3.348   9.782  13.547
 6512SOL    HW221311   3.312   9.905  13.465
 6513SOL     OW21312   9.877   6.185   2.629
 6513SOL    HW121313   9.923   6.106   2.656
 6513SOL    HW221314   9.905   6.199   2.538
 6514SOL     OW21315   2.729  13.418   4.795
 6514SOL    HW121316   2.787  13.342   4.786
 6514SOL    HW221317   2.710  13.444   4.705
 6515SOL     OW21318   0.476  12.405   4.231
 6515SOL    HW121319   0.473  12.410   4.136
 6515SOL    HW221320   0.411  12.340   4.255
 6516SOL     OW21321   6.763  11.353   9.767
 6516SOL    HW121322   6.726  11.415   9.830
 6516SOL    HW221323   6.748  11.267   9.806
 6517SOL     OW21324   0.953   6.296   6.346
 6517SOL    HW121325   0.889   6.273   6.279
 6517SOL    HW221326   1.037   6.265   6.310
 6518SOL     OW21327  13.173   1.515   2.447
 6518SOL    HW121328  13.242   1.581   2.438
 6518SOL    HW221329  13.093   1.565   2.462
 6519SOL     OW21330   5.721   3.442   2.791
 6519SOL    HW121331   5.693   3.351   2.802
 6519SOL    HW221332   5.816   3.437   2.776
 6520SOL     OW21333   5.010   4.182  13.388
 6520SOL    HW121334   5.096   4.148  13.412
 6520SOL    HW221335   4.950   4.110  13.409
 6521SOL     OW21336   3.695   0.538   7.228
 6521SOL    HW121337   3.672   0.580   7.311
 6521SOL    HW221338   3.635   0.576   7.164
 6522SOL     OW21339   7.533   8.494   3.501
 6522SOL    HW121340   7.443   8.527   3.497
 6522SOL    HW221341   7.586   8.572   3.515
 6523SOL     OW21342   6.783  10.118   4.594
 6523SOL    HW121343   6.753  10.126   4.504
 6523SOL    HW221344   6.741  10.038   4.627
 6524SOL     OW21345   0.764   5.831   8.001
 6524SOL    HW121346   0.672   5.822   7.977
 6524SOL    HW221347   0.802   5.744   7.985
 6525SOL     OW21348  12.756   6.131   0.024
 6525SOL    HW121349  12.774   6.058   0.084
 6525SOL    HW221350  12.683   6.100  14.848
 6526SOL     OW21351   2.395  10.813  12.913
 6526SOL    HW121352   2.316  10.796  12.965
 6526SOL    HW221353   2.467  10.806  12.976
 6527SOL     OW21354   1.914  13.345  13.935
 6527SOL    HW121355   1.957  13.379  14.013
 6527SOL    HW221356   1.823  13.331  13.961
 6528SOL     OW21357   9.975   0.588   3.450
 6528SOL    HW121358   9.977   0.663   3.390
 6528SOL    HW221359   9.882   0.569   3.461
 6529SOL     OW21360   8.604  11.313  11.565
 6529SOL    HW121361   8.685  11.357  11.539
 6529SOL    HW221362   8.598  11.237  11.507
 6530SOL     OW21363  12.464  11.829  13.348
 6530SOL    HW121364  12.465  11.807  13.254
 6530SOL    HW221365  12.493  11.749  13.391
 6531SOL     OW21366  12.010   8.619   7.711
 6531SOL    HW121367  11.954   8.672   7.767
 6531SOL    HW221368  11.954   8.593   7.638
 6532SOL     OW21369   0.693   1.482   6.278
 6532SOL    HW121370   0.777   1.507   6.240
 6532SOL    HW221371   0.707   1.485   6.372
 6533SOL     OW21372   4.416  12.967   4.378
 6533SOL    HW121373   4.400  13.046   4.430
 6533SOL    HW221374   4.360  12.978   4.301
 6534SOL     OW21375   0.272   7.733   7.892
 6534SOL    HW121376   0.296   7.643   7.867
 6534SOL    HW221377   0.333   7.754   7.963
 6535SOL     OW21378   1.575   6.154   0.616
 6535SOL    HW121379   1.539   6.124   0.699
 6535SOL    HW221380   1.576   6.076   0.561
 6536SOL     OW21381   3.356   3.473   8.402
 6536SOL    HW121382   3.348   3.379   8.416
 6536SOL    HW221383   3.266   3.502   8.384
 6537SOL     OW21384   0.869   8.317   3.212
 6537SOL    HW121385   0.812   8.394   3.214
 6537SOL    HW221386   0.946   8.344   3.263
 6538SOL     OW21387  12.777   9.709   2.398
 6538SOL    HW121388  12.742   9.798   2.409
 6538SOL    HW221389  12.711   9.665   2.344
 6539SOL     OW21390   2.427  13.926   9.155
 6539SOL    HW121391   2.496  13.884   9.104
 6539SOL    HW221392   2.474  13.970   9.226
 6540SOL     OW21393   7.345  11.639   4.419
 6540SOL    HW121394   7.261  11.617   4.461
 6540SOL    HW221395   7.407  11.646   4.492
 6541SOL     OW21396   7.645   2.960   6.225
 6541SOL    HW121397   7.709   2.892   6.203
 6541SOL    HW221398   7.666   3.033   6.167
 6542SOL     OW21399   9.690  11.498   2.525
 6542SOL    HW121400   9.642  11.504   2.607
 6542SOL    HW221401   9.768  11.446   2.546
 6543SOL     OW21402   7.751  12.581   3.680
 6543SOL    HW121403   7.779  12.503   3.728
 6543SOL    HW221404   7.706  12.635   3.745
 6544SOL     OW21405   9.986  12.524  10.944
 6544SOL    HW121406   9.898  12.563  10.940
 6544SOL    HW221407  10.022  12.536  10.857
 6545SOL     OW21408   2.242   8.340  13.833
 6545SOL    HW121409   2.324   8.359  13.787
 6545SOL    HW221410   2.263   8.269  13.893
 6546SOL     OW21411   8.628   7.763   3.318
 6546SOL    HW121412   8.580   7.843   3.339
 6546SOL    HW221413   8.702   7.762   3.378
 6547SOL     OW21414   0.526   8.209   0.353
 6547SOL    HW121415   0.515   8.303   0.339
 6547SOL    HW221416   0.588   8.183   0.285
 6548SOL     OW21417   9.466   7.027   3.570
 6548SOL    HW121418   9.553   7.001   3.600
 6548SOL    HW221419   9.481   7.104   3.516
 6549SOL     OW21420  11.230   7.495   4.852
 6549SOL    HW121421  11.286   7.434   4.804
 6549SOL    HW221422  11.291   7.558   4.892
 6550SOL     OW21423   3.006  13.718   4.769
 6550SOL    HW121424   2.998  13.654   4.698
 6550SOL    HW221425   3.099  13.720   4.789
 6551SOL     OW21426  11.408   8.800  10.417
 6551SOL    HW121427  11.385   8.771  10.506
 6551SOL    HW221428  11.503   8.808  10.418
 6552SOL     OW21429  13.382   4.845   1.126
 6552SOL    HW121430  13.410   4.934   1.149
 6552SOL    HW221431  13.451   4.812   1.068
 6553SOL     OW21432   2.157   2.236   4.475
 6553SOL    HW121433   2.163   2.309   4.537
 6553SOL    HW221434   2.163   2.276   4.389
 6554SOL     OW21435  13.284   3.726   4.770
 6554SOL    HW121436  13.319   3.680   4.694
 6554SOL    HW221437  13.199   3.685   4.787
 6555SOL     OW21438  14.427   3.989  11.910
 6555SOL    HW121439  14.453   3.984  11.818
 6555SOL    HW221440  14.497   3.945  11.958
 6556SOL     OW21441  10.631  14.062   2.129
 6556SOL    HW121442  10.697  14.029   2.191
 6556SOL    HW221443  10.681  14.107   2.062
 6557SOL     OW21444   9.869  10.812  12.219
 6557SOL    HW121445   9.943  10.842  12.271
 6557SOL    HW221446   9.805  10.781  12.284
 6558SOL     OW21447   0.282   8.707   1.824
 6558SOL    HW121448   0.228   8.781   1.796
 6558SOL    HW221449   0.221   8.633   1.828
 6559SOL     OW21450  12.622   3.924   8.427
 6559SOL    HW121451  12.710   3.888   8.419
 6559SOL    HW221452  12.564   3.848   8.423
 6560SOL     OW21453   3.586   5.262   5.559
 6560SOL    HW121454   3.675   5.249   5.526
 6560SOL    HW221455   3.599   5.306   5.643
 6561SOL     OW21456   7.713  14.780  14.336
 6561SOL    HW121457   7.761  14.737  14.406
 6561SOL    HW221458   7.750  14.868  14.331
 6562SOL     OW21459   2.756   1.913  14.447
 6562SOL    HW121460   2.718   1.952  14.368
 6562SOL    HW221461   2.690   1.929  14.515
 6563SOL     OW21462   4.336   7.376   9.526
 6563SOL    HW121463   4.259   7.407   9.573
 6563SOL    HW221464   4.301   7.338   9.445
 6564SOL     OW21465  10.638   7.792   8.515
 6564SOL    HW121466  10.608   7.824   8.600
 6564SOL    HW221467  10.680   7.708   8.534
 6565SOL     OW21468  11.391   6.761   3.907
 6565SOL    HW121469  11.352   6.824   3.847
 6565SOL    HW221470  11.318   6.725   3.956
 6566SOL     OW21471   6.429   2.073   9.321
 6566SOL    HW121472   6.439   2.167   9.304
 6566SOL    HW221473   6.390   2.037   9.242
 6567SOL     OW21474   6.937   8.205   3.310
 6567SOL    HW121475   6.895   8.263   3.246
 6567SOL    HW221476   7.020   8.249   3.330
 6568SOL     OW21477   0.914   0.173   7.253
 6568SOL    HW121478   0.949   0.152   7.166
 6568SOL    HW221479   0.826   0.135   7.252
 6569SOL     OW21480   2.375   9.124   2.316
 6569SOL    HW121481   2.312   9.162   2.255
 6569SOL    HW221482   2.343   9.035   2.331
 6570SOL     OW21483   0.931   4.492   4.947
 6570SOL    HW121484   0.865   4.528   5.007
 6570SOL    HW221485   0.909   4.529   4.862
 6571SOL     OW21486  14.388   9.667   5.413
 6571SOL    HW121487  14.345   9.606   5.473
 6571SOL    HW221488  14.316   9.708   5.365
 6572SOL     OW21489   7.404   8.119  11.486
 6572SOL    HW121490   7.374   8.117  11.395
 6572SOL    HW221491   7.324   8.121  11.538
 6573SOL     OW21492   4.068   4.215  11.553
 6573SOL    HW121493   4.095   4.154  11.622
 6573SOL    HW221494   3.973   4.208  11.551
 6574SOL     OW21495   0.879   1.403   6.651
 6574SOL    HW121496   0.884   1.320   6.603
 6574SOL    HW221497   0.810   1.452   6.606
 6575SOL     OW21498  13.605  13.879   5.790
 6575SOL    HW121499  13.558  13.805   5.751
 6575SOL    HW221500  13.538  13.931   5.834
 6576SOL     OW21501   2.050  11.116   5.574
 6576SOL    HW121502   2.055  11.160   5.659
 6576SOL    HW221503   2.114  11.161   5.519
 6577SOL     OW21504  13.308  10.748   7.927
 6577SOL    HW121505  13.237  10.813   7.927
 6577SOL    HW221506  13.375  10.787   7.871
 6578SOL     OW21507   4.107   5.015   1.011
 6578SOL    HW121508   4.049   4.998   0.936
 6578SOL    HW221509   4.113   5.111   1.015
 6579SOL     OW21510  13.740  12.251  10.436
 6579SOL    HW121511  13.647  12.231  10.430
 6579SOL    HW221512  13.784  12.177  10.394
 6580SOL     OW21513   6.130   7.706   6.965
 6580SOL    HW121514   6.198   7.715   6.897
 6580SOL    HW221515   6.135   7.788   7.014
 6581SOL     OW21516   5.076  11.660   6.946
 6581SOL    HW121517   5.046  11.588   6.891
 6581SOL    HW221518   4.996  11.704   6.975
 6582SOL     OW21519  11.528   1.400  14.417
 6582SOL    HW121520  11.437   1.415  14.443
 6582SOL    HW221521  11.524   1.385  14.322
 6583SOL     OW21522   8.726   6.146  12.220
 6583SOL    HW121523   8.665   6.072  12.221
 6583SOL    HW221524   8.810   6.109  12.247
 6584SOL     OW21525   0.948   9.964  10.219
 6584SOL    HW121526   0.916   9.970  10.309
 6584SOL    HW221527   1.011   9.892  10.221
 6585SOL     OW21528   1.054  14.163  13.560
 6585SOL    HW121529   0.994  14.167  13.634
 6585SOL    HW221530   1.048  14.249  13.519
 6586SOL     OW21531   4.631   6.527   9.421
 6586SOL    HW121532   4.541   6.555   9.404
 6586SOL    HW221533   4.631   6.433   9.401
 6587SOL     OW21534   2.261  10.839   6.060
 6587SOL    HW121535   2.355  10.826   6.048
 6587SOL    HW221536   2.239  10.908   5.997
 6588SOL     OW21537  12.362   1.542   9.357
 6588SOL    HW121538  12.312   1.620   9.381
 6588SOL    HW221539  12.451   1.574   9.342
 6589SOL     OW21540  13.449   3.216   5.880
 6589SOL    HW121541  13.538   3.222   5.844
 6589SOL    HW221542  13.458   3.155   5.953
 6590SOL     OW21543   3.811   3.421   4.346
 6590SOL    HW121544   3.849   3.335   4.332
 6590SOL    HW221545   3.724   3.403   4.382
 6591SOL     OW21546   3.816  13.201   5.571
 6591SOL    HW121547   3.838  13.194   5.664
 6591SOL    HW221548   3.816  13.111   5.540
 6592SOL     OW21549   1.572   3.692  13.074
 6592SOL    HW121550   1.538   3.774  13.110
 6592SOL    HW221551   1.602   3.643  13.151
 6593SOL     OW21552   9.702  10.035   7.192
 6593SOL    HW121553   9.758   9.994   7.258
 6593SOL    HW221554   9.655  10.103   7.240
 6594SOL     OW21555  10.269  13.157  13.788
 6594SOL    HW121556  10.297  13.227  13.847
 6594SOL    HW221557  10.236  13.088  13.847
 6595SOL     OW21558   3.592   4.235  10.549
 6595SOL    HW121559   3.624   4.217  10.460
 6595SOL    HW221560   3.576   4.148  10.586
 6596SOL     OW21561   7.877  10.594  12.529
 6596SOL    HW121562   7.844  10.673  12.484
 6596SOL    HW221563   7.803  10.565  12.583
 6597SOL     OW21564   9.540   2.405   7.501
 6597SOL    HW121565   9.588   2.487   7.490
 6597SOL    HW221566   9.609   2.339   7.513
 6598SOL     OW21567  14.589   1.928   5.105
 6598SOL    HW121568  14.646   1.886   5.170
 6598SOL    HW221569  14.646   1.948   5.032
 6599SOL     OW21570   4.239  12.633  11.404
 6599SOL    HW121571   4.172  12.596  11.463
 6599SOL    HW221572   4.320  12.589  11.430
 6600SOL     OW21573   1.525   5.405  10.686
 6600SOL    HW121574   1.539   5.379  10.595
 6600SOL    HW221575   1.560   5.332  10.737
 6601SOL     OW21576  12.025   2.814  13.482
 6601SOL    HW121577  12.116   2.785  13.485
 6601SOL    HW221578  11.974   2.733  13.493
 6602SOL     OW21579   1.436  12.676   6.097
 6602SOL    HW121580   1.430  12.583   6.073
 6602SOL    HW221581   1.488  12.715   6.027
 6603SOL     OW21582   5.261   7.438  10.196
 6603SOL    HW121583   5.296   7.382  10.266
 6603SOL    HW221584   5.264   7.383  10.118
 6604SOL     OW21585   6.970  14.560   6.331
 6604SOL    HW121586   6.894  14.535   6.279
 6604SOL    HW221587   7.004  14.477   6.366
 6605SOL     OW21588   4.816   8.278   9.639
 6605SOL    HW121589   4.898   8.274   9.689
 6605SOL    HW221590   4.749   8.248   9.701
 6606SOL     OW21591   9.520   4.198   0.245
 6606SOL    HW121592   9.520   4.155   0.330
 6606SOL    HW221593   9.608   4.185   0.211
 6607SOL     OW21594  11.302   8.779   2.685
 6607SOL    HW121595  11.289   8.684   2.678
 6607SOL    HW221596  11.284   8.799   2.776
 6608SOL     OW21597   4.335   4.049   7.718
 6608SOL    HW121598   4.248   4.021   7.745
 6608SOL    HW221599   4.357   4.120   7.779
 6609SOL     OW21600   4.494  10.331   5.521
 6609SOL    HW121601   4.522  10.400   5.581
 6609SOL    HW221602   4.505  10.250   5.571
 6610SOL     OW21603   2.075   0.528  11.252
 6610SOL    HW121604   2.016   0.603  11.243
 6610SOL    HW221605   2.034   0.459  11.200
 6611SOL     OW21606   2.405   9.370   2.388
 6611SOL    HW121607   2.424   9.283   2.353
 6611SOL    HW221608   2.310   9.372   2.398
 6612SOL     OW21609   5.031  14.239   2.313
 6612SOL    HW121610   5.094  14.228   2.384
 6612SOL    HW221611   4.977  14.313   2.340
 6613SOL     OW21612  13.562  13.767   7.910
 6613SOL    HW121613  13.646  13.758   7.955
 6613SOL    HW221614  13.578  13.734   7.822
 6614SOL     OW21615   8.399  11.256   3.434
 6614SOL    HW121616   8.372  11.291   3.349
 6614SOL    HW221617   8.317  11.229   3.476
 6615SOL     OW21618   5.665   5.149   8.654
 6615SOL    HW121619   5.698   5.236   8.676
 6615SOL    HW221620   5.697   5.133   8.565
 6616SOL     OW21621  13.539   9.724   5.979
 6616SOL    HW121622  13.476   9.744   5.910
 6616SOL    HW221623  13.541   9.628   5.981
 6617SOL     OW21624   3.111   2.525  11.379
 6617SOL    HW121625   3.042   2.581  11.413
 6617SOL    HW221626   3.107   2.538  11.284
 6618SOL     OW21627   8.860  14.471   6.971
 6618SOL    HW121628   8.822  14.559   6.973
 6618SOL    HW221629   8.788  14.413   6.998
 6619SOL     OW21630  14.018  12.255  10.166
 6619SOL    HW121631  14.036  12.297  10.082
 6619SOL    HW221632  14.049  12.319  10.231
 6620SOL     OW21633   0.817  10.705   2.463
 6620SOL    HW121634   0.742  10.710   2.522
 6620SOL    HW221635   0.779  10.699   2.376
 6621SOL     OW21636   8.092  14.267   6.062
 6621SOL    HW121637   8.118  14.214   6.137
 6621SOL    HW221638   8.131  14.223   5.987
 6622SOL     OW21639   2.692   2.345   3.968
 6622SOL    HW121640   2.603   2.316   3.946
 6622SOL    HW221641   2.735   2.357   3.883
 6623SOL     OW21642   5.794   4.278  12.241
 6623SOL    HW121643   5.859   4.211  12.264
 6623SOL    HW221644   5.722   4.229  12.202
 6624SOL     OW21645   2.151   8.427   8.762
 6624SOL    HW121646   2.194   8.477   8.831
 6624SOL    HW221647   2.173   8.336   8.782
 6625SOL     OW21648   5.066   2.576  12.679
 6625SOL    HW121649   5.097   2.624  12.602
 6625SOL    HW221650   5.096   2.486  12.664
 6626SOL     OW21651   6.860   7.058  12.942
 6626SOL    HW121652   6.938   7.110  12.963
 6626SOL    HW221653   6.891   6.994  12.878
 6627SOL     OW21654   1.542  10.642  13.075
 6627SOL    HW121655   1.598  10.642  12.997
 6627SOL    HW221656   1.485  10.566  13.063
 6628SOL     OW21657   4.015  13.227   9.601
 6628SOL    HW121658   3.957  13.247   9.527
 6628SOL    HW221659   4.094  13.279   9.584
 6629SOL     OW21660   9.638  14.594   3.504
 6629SOL    HW121661   9.625  14.671   3.448
 6629SOL    HW221662   9.579  14.528   3.469
 6630SOL     OW21663   0.534   9.440   5.794
 6630SOL    HW121664   0.562   9.531   5.791
 6630SOL    HW221665   0.580   9.402   5.868
 6631SOL     OW21666   3.761   3.428   6.546
 6631SOL    HW121667   3.728   3.415   6.458
 6631SOL    HW221668   3.833   3.490   6.537
 6632SOL     OW21669  13.965  13.133  10.671
 6632SOL    HW121670  13.948  13.224  10.696
 6632SOL    HW221671  13.880  13.100  10.640
 6633SOL     OW21672  12.736   7.853  13.050
 6633SOL    HW121673  12.672   7.817  12.988
 6633SOL    HW221674  12.806   7.889  12.996
 6634SOL     OW21675   2.655   7.804  12.640
 6634SOL    HW121676   2.721   7.793  12.708
 6634SOL    HW221677   2.574   7.823  12.687
 6635SOL     OW21678   0.173   1.088   9.943
 6635SOL    HW121679   0.169   1.140   9.863
 6635SOL    HW221680   0.151   1.150  10.013
 6636SOL     OW21681   9.146   4.859  11.552
 6636SOL    HW121682   9.119   4.917  11.481
 6636SOL    HW221683   9.238   4.879  11.567
 6637SOL     OW21684   7.624   9.837  13.174
 6637SOL    HW121685   7.681   9.802  13.105
 6637SOL    HW221686   7.631   9.932  13.165
 6638SOL     OW21687   6.835   7.761   0.884
 6638SOL    HW121688   6.911   7.733   0.833
 6638SOL    HW221689   6.790   7.824   0.827
 6639SOL     OW21690   8.086   6.088   5.093
 6639SOL    HW121691   8.024   6.024   5.059
 6639SOL    HW221692   8.047   6.121   5.173
 6640SOL     OW21693   8.996   5.737   7.843
 6640SOL    HW121694   8.977   5.694   7.759
 6640SOL    HW221695   9.015   5.665   7.903
 6641SOL     OW21696   8.214   9.210   7.197
 6641SOL    HW121697   8.290   9.151   7.194
 6641SOL    HW221698   8.182   9.204   7.287
 6642SOL     OW21699  11.369   1.700   7.856
 6642SOL    HW121700  11.282   1.701   7.817
 6642SOL    HW221701  11.373   1.619   7.907
 6643SOL     OW21702   2.224   7.446   6.013
 6643SOL    HW121703   2.175   7.459   6.094
 6643SOL    HW221704   2.231   7.351   6.003
 6644SOL     OW21705   9.159  12.683   1.677
 6644SOL    HW121706   9.242  12.655   1.638
 6644SOL    HW221707   9.183  12.721   1.761
 6645SOL     OW21708   7.251  13.446   8.123
 6645SOL    HW121709   7.253  13.350   8.116
 6645SOL    HW221710   7.258  13.463   8.217
 6646SOL     OW21711   7.967   2.723  11.559
 6646SOL    HW121712   8.018   2.804  11.553
 6646SOL    HW221713   8.020   2.667  11.617
 6647SOL     OW21714   0.190  13.822   0.291
 6647SOL    HW121715   0.119  13.877   0.325
 6647SOL    HW221716   0.270  13.872   0.308
 6648SOL     OW21717   8.518  10.727   8.877
 6648SOL    HW121718   8.453  10.669   8.917
 6648SOL    HW221719   8.544  10.683   8.796
 6649SOL     OW21720   8.767   4.425  12.791
 6649SOL    HW121721   8.778   4.517  12.766
 6649SOL    HW221722   8.763   4.378  12.708
 6650SOL     OW21723  10.960   6.582   5.196
 6650SOL    HW121724  10.883   6.600   5.143
 6650SOL    HW221725  11.006   6.513   5.149
 6651SOL     OW21726  10.482  11.027   1.927
 6651SOL    HW121727  10.543  11.091   1.891
 6651SOL    HW221728  10.520  10.942   1.903
 6652SOL     OW21729  13.033   7.490  13.929
 6652SOL    HW121730  13.037   7.564  13.989
 6652SOL    HW221731  12.964   7.434  13.965
 6653SOL     OW21732   9.427   2.194   8.967
 6653SOL    HW121733   9.447   2.158   8.880
 6653SOL    HW221734   9.408   2.117   9.021
 6654SOL     OW21735  12.243   7.516  12.677
 6654SOL    HW121736  12.316   7.461  12.648
 6654SOL    HW221737  12.166   7.478  12.634
 6655SOL     OW21738   8.348   7.505   8.867
 6655SOL    HW121739   8.293   7.451   8.810
 6655SOL    HW221740   8.431   7.512   8.820
 6656SOL     OW21741   0.065  10.399  11.644
 6656SOL    HW121742   0.160  10.384  11.648
 6656SOL    HW221743   0.043  10.383  11.552
 6657SOL     OW21744  10.676   4.818  14.770
 6657SOL    HW121745  10.654   4.885  14.835
 6657SOL    HW221746  10.637   4.851  14.688
 6658SOL     OW21747  12.703   2.968   1.454
 6658SOL    HW121748  12.769   2.925   1.509
 6658SOL    HW221749  12.622   2.962   1.505
 6659SOL     OW21750   8.987  12.173  13.686
 6659SOL    HW121751   9.021  12.088  13.714
 6659SOL    HW221752   8.941  12.154  13.604
 6660SOL     OW21753   3.407  14.036   2.760
 6660SOL    HW121754   3.421  13.979   2.836
 6660SOL    HW221755   3.415  14.125   2.794
 6661SOL     OW21756   4.944   4.555  10.562
 6661SOL    HW121757   5.012   4.541  10.496
 6661SOL    HW221758   4.907   4.468  10.577
 6662SOL     OW21759   9.847  12.340   0.687
 6662SOL    HW121760   9.813  12.294   0.611
 6662SOL    HW221761   9.921  12.287   0.716
 6663SOL     OW21762   7.062   0.779   5.671
 6663SOL    HW121763   7.079   0.750   5.581
 6663SOL    HW221764   7.113   0.859   5.681
 6664SOL     OW21765   3.456   4.475  10.901
 6664SOL    HW121766   3.518   4.526  10.849
 6664SOL    HW221767   3.501   4.393  10.920
 6665SOL     OW21768  12.420   9.734  10.222
 6665SOL    HW121769  12.357   9.712  10.291
 6665SOL    HW221770  12.487   9.666  10.228
 6666SOL     OW21771  14.002   8.319  14.257
 6666SOL    HW121772  13.964   8.359  14.178
 6666SOL    HW221773  14.091   8.354  14.260
 6667SOL     OW21774  11.680   1.543  10.968
 6667SOL    HW121775  11.708   1.629  10.938
 6667SOL    HW221776  11.727   1.481  10.912
 6668SOL     OW21777  13.205   3.985   5.999
 6668SOL    HW121778  13.254   3.908   6.029
 6668SOL    HW221779  13.265   4.030   5.940
 6669SOL     OW21780  13.639   8.228   1.442
 6669SOL    HW121781  13.550   8.238   1.410
 6669SOL    HW221782  13.682   8.310   1.419
 6670SOL     OW21783   8.100   2.250   3.096
 6670SOL    HW121784   8.134   2.319   3.153
 6670SOL    HW221785   8.053   2.297   3.027
 6671SOL     OW21786  12.665  11.831   5.878
 6671SOL    HW121787  12.650  11.869   5.791
 6671SOL    HW221788  12.585  11.783   5.897
 6672SOL     OW21789  11.622  13.658   4.900
 6672SOL    HW121790  11.640  13.741   4.944
 6672SOL    HW221791  11.611  13.682   4.808
 6673SOL     OW21792   0.635   3.166  11.157
 6673SOL    HW121793   0.655   3.200  11.244
 6673SOL    HW221794   0.552   3.121  11.168
 6674SOL     OW21795   6.633   6.103   5.561
 6674SOL    HW121796   6.685   6.109   5.481
 6674SOL    HW221797   6.643   6.012   5.589
 6675SOL     OW21798  13.225   3.129   3.551
 6675SOL    HW121799  13.219   3.142   3.646
 6675SOL    HW221800  13.149   3.076   3.529
 6676SOL     OW21801   1.739   6.616   5.179
 6676SOL    HW121802   1.718   6.706   5.154
 6676SOL    HW221803   1.803   6.624   5.250
 6677SOL     OW21804   5.366   7.067   7.865
 6677SOL    HW121805   5.373   7.002   7.794
 6677SOL    HW221806   5.276   7.059   7.896
 6678SOL     OW21807   2.850   1.280   3.891
 6678SOL    HW121808   2.798   1.231   3.827
 6678SOL    HW221809   2.813   1.369   3.887
 6679SOL     OW21810   7.670   2.865  13.922
 6679SOL    HW121811   7.586   2.911  13.923
 6679SOL    HW221812   7.712   2.889  14.005
 6680SOL     OW21813   9.857  14.236   6.928
 6680SOL    HW121814   9.768  14.254   6.958
 6680SOL    HW221815   9.913  14.267   6.999
 6681SOL     OW21816   6.250   1.921   7.120
 6681SOL    HW121817   6.227   1.898   7.210
 6681SOL    HW221818   6.271   2.015   7.123
 6682SOL     OW21819   3.163   4.906  13.490
 6682SOL    HW121820   3.228   4.870  13.429
 6682SOL    HW221821   3.194   4.878  13.576
 6683SOL     OW21822   4.354   3.949  13.147
 6683SOL    HW121823   4.313   3.879  13.097
 6683SOL    HW221824   4.447   3.927  13.148
 6684SOL     OW21825   6.734  13.423  10.770
 6684SOL    HW121826   6.796  13.412  10.698
 6684SOL    HW221827   6.696  13.510  10.755
 6685SOL     OW21828  13.276   5.108   9.929
 6685SOL    HW121829  13.219   5.065   9.993
 6685SOL    HW221830  13.334   5.163   9.981
 6686SOL     OW21831   1.280  11.866  12.487
 6686SOL    HW121832   1.233  11.866  12.404
 6686SOL    HW221833   1.368  11.896  12.466
 6687SOL     OW21834   3.476   1.289  10.579
 6687SOL    HW121835   3.569   1.292  10.560
 6687SOL    HW221836   3.440   1.225  10.518
 6688SOL     OW21837  13.908  10.773   5.115
 6688SOL    HW121838  13.823  10.733   5.134
 6688SOL    HW221839  13.921  10.758   5.021
 6689SOL     OW21840   0.762   7.605   9.835
 6689SOL    HW121841   0.766   7.627   9.742
 6689SOL    HW221842   0.689   7.655   9.869
 6690SOL     OW21843   1.731   8.772   0.918
 6690SOL    HW121844   1.754   8.812   0.834
 6690SOL    HW221845   1.640   8.744   0.906
 6691SOL     OW21846   1.865   5.918   6.416
 6691SOL    HW121847   1.827   5.833   6.395
 6691SOL    HW221848   1.943   5.898   6.468
 6692SOL     OW21849  12.366  13.206   8.445
 6692SOL    HW121850  12.429  13.249   8.504
 6692SOL    HW221851  12.297  13.174   8.503
 6693SOL     OW21852   5.256   5.460   8.245
 6693SOL    HW121853   5.249   5.453   8.150
 6693SOL    HW221854   5.340   5.505   8.259
 6694SOL     OW21855   5.939   8.738   7.732
 6694SOL    HW121856   5.949   8.717   7.825
 6694SOL    HW221857   5.895   8.661   7.695
 6695SOL     OW21858   2.806   3.675  11.140
 6695SOL    HW121859   2.784   3.768  11.141
 6695SOL    HW221860   2.734   3.633  11.093
 6696SOL     OW21861   3.480   5.132  11.261
 6696SOL    HW121862   3.437   5.130  11.347
 6696SOL    HW221863   3.552   5.194  11.272
 6697SOL     OW21864  13.968  13.243   2.372
 6697SOL    HW121865  13.947  13.232   2.279
 6697SOL    HW221866  14.061  13.266   2.373
 6698SOL     OW21867   1.807   4.578   4.829
 6698SOL    HW121868   1.813   4.655   4.773
 6698SOL    HW221869   1.888   4.577   4.880
 6699SOL     OW21870  14.409  11.497   8.100
 6699SOL    HW121871  14.323  11.529   8.127
 6699SOL    HW221872  14.408  11.502   8.005
 6700SOL     OW21873   7.959   8.941   2.420
 6700SOL    HW121874   7.915   8.897   2.347
 6700SOL    HW221875   8.052   8.920   2.407
 6701SOL     OW21876  14.656   8.228   9.461
 6701SOL    HW121877  14.597   8.184   9.523
 6701SOL    HW221878  14.608   8.227   9.378
 6702SOL     OW21879  10.411   9.853   5.505
 6702SOL    HW121880  10.393   9.933   5.555
 6702SOL    HW221881  10.440   9.790   5.570
 6703SOL     OW21882   9.672  12.170   9.236
 6703SOL    HW121883   9.662  12.104   9.167
 6703SOL    HW221884   9.583  12.186   9.266
 6704SOL     OW21885  11.562   8.770   8.178
 6704SOL    HW121886  11.656   8.767   8.196
 6704SOL    HW221887  11.543   8.862   8.164
 6705SOL     OW21888   2.188   6.364  12.296
 6705SOL    HW121889   2.220   6.413  12.220
 6705SOL    HW221890   2.182   6.430  12.366
 6706SOL     OW21891   6.660   0.902   7.613
 6706SOL    HW121892   6.575   0.875   7.576
 6706SOL    HW221893   6.705   0.820   7.633
 6707SOL     OW21894  12.298   1.874  10.146
 6707SOL    HW121895  12.281   1.784  10.116
 6707SOL    HW221896  12.379   1.867  10.197
 6708SOL     OW21897   6.972  13.584   7.060
 6708SOL    HW121898   7.053  13.562   7.015
 6708SOL    HW221899   6.919  13.631   6.995
 6709SOL     OW21900   4.517   4.723   9.351
 6709SOL    HW121901   4.496   4.696   9.440
 6709SOL    HW221902   4.475   4.658   9.296
 6710SOL     OW21903   5.391  10.479   1.395
 6710SOL    HW121904   5.479  10.496   1.363
 6710SOL    HW221905   5.380  10.384   1.387
 6711SOL     OW21906   1.125   8.920   0.197
 6711SOL    HW121907   1.032   8.936   0.177
 6711SOL    HW221908   1.129   8.919   0.292
 6712SOL     OW21909   1.870   4.021   0.236
 6712SOL    HW121910   1.946   4.037   0.293
 6712SOL    HW221911   1.868   4.097   0.178
 6713SOL     OW21912   6.292   2.658   0.484
 6713SOL    HW121913   6.242   2.739   0.470
 6713SOL    HW221914   6.273   2.633   0.574
 6714SOL     OW21915  10.079   8.770  13.921
 6714SOL    HW121916  10.119   8.837  13.977
 6714SOL    HW221917  10.144   8.753  13.853
 6715SOL     OW21918   9.894   9.263   7.861
 6715SOL    HW121919   9.801   9.261   7.839
 6715SOL    HW221920   9.939   9.269   7.777
 6716SOL     OW21921   8.704   4.534   0.751
 6716SOL    HW121922   8.780   4.509   0.698
 6716SOL    HW221923   8.716   4.627   0.768
 6717SOL     OW21924  13.948  11.274   9.431
 6717SOL    HW121925  13.976  11.260   9.340
 6717SOL    HW221926  13.858  11.240   9.434
 6718SOL     OW21927   4.273  11.738  10.195
 6718SOL    HW121928   4.202  11.717  10.255
 6718SOL    HW221929   4.351  11.699  10.234
 6719SOL     OW21930   5.499   5.873   9.893
 6719SOL    HW121931   5.504   5.781   9.866
 6719SOL    HW221932   5.482   5.921   9.811
 6720SOL     OW21933   0.934   2.408  12.127
 6720SOL    HW121934   0.902   2.364  12.206
 6720SOL    HW221935   0.909   2.349  12.056
 6721SOL     OW21936  13.512  10.094  11.321
 6721SOL    HW121937  13.556  10.179  11.315
 6721SOL    HW221938  13.494  10.083  11.415
 6722SOL     OW21939   5.885  11.346   3.238
 6722SOL    HW121940   5.973  11.343   3.275
 6722SOL    HW221941   5.829  11.306   3.304
 6723SOL     OW21942   5.829   6.121   8.003
 6723SOL    HW121943   5.775   6.081   8.072
 6723SOL    HW221944   5.913   6.075   8.009
 6724SOL     OW21945   9.162  11.162   2.565
 6724SOL    HW121946   9.237  11.105   2.552
 6724SOL    HW221947   9.110  11.119   2.633
 6725SOL     OW21948   2.289  12.683   8.859
 6725SOL    HW121949   2.217  12.725   8.906
 6725SOL    HW221950   2.353  12.753   8.844
 6726SOL     OW21951   5.151  12.162   3.104
 6726SOL    HW121952   5.070  12.144   3.152
 6726SOL    HW221953   5.162  12.257   3.111
 6727SOL     OW21954   8.856  10.367   3.338
 6727SOL    HW121955   8.901  10.290   3.303
 6727SOL    HW221956   8.925  10.416   3.384
 6728SOL     OW21957  14.078  14.111   4.732
 6728SOL    HW121958  14.155  14.055   4.722
 6728SOL    HW221959  14.090  14.181   4.667
 6729SOL     OW21960   4.187   9.170   4.469
 6729SOL    HW121961   4.175   9.246   4.526
 6729SOL    HW221962   4.115   9.112   4.491
 6730SOL     OW21963  13.824  10.409   5.395
 6730SOL    HW121964  13.830  10.345   5.324
 6730SOL    HW221965  13.731  10.431   5.400
 6731SOL     OW21966   8.861  14.838   4.663
 6731SOL    HW121967   8.800  14.826   4.735
 6731SOL    HW221968   8.866  14.751   4.621
 6732SOL     OW21969   0.862  14.555  13.321
 6732SOL    HW121970   0.780  14.507  13.313
 6732SOL    HW221971   0.885  14.580  13.232
 6733SOL     OW21972   3.930   2.677   9.487
 6733SOL    HW121973   3.989   2.614   9.529
 6733SOL    HW221974   3.953   2.675   9.394
 6734SOL     OW21975   4.205   6.718   9.493
 6734SOL    HW121976   4.116   6.739   9.465
 6734SOL    HW221977   4.243   6.803   9.516
 6735SOL     OW21978  14.843   2.286   7.506
 6735SOL    HW121979   0.020   2.275   7.583
 6735SOL    HW221980   0.026   2.277   7.432
 6736SOL     OW21981   9.843   2.074  13.397
 6736SOL    HW121982   9.906   2.141  13.423
 6736SOL    HW221983   9.872   2.046  13.310
 6737SOL     OW21984   8.773  13.633   7.507
 6737SOL    HW121985   8.810  13.703   7.561
 6737SOL    HW221986   8.829  13.557   7.525
 6738SOL     OW21987   0.148   2.176   7.692
 6738SOL    HW121988   0.110   2.094   7.661
 6738SOL    HW221989   0.235   2.179   7.653
 6739SOL     OW21990   1.180   9.843   7.967
 6739SOL    HW121991   1.162   9.800   8.051
 6739SOL    HW221992   1.099   9.831   7.916
 6740SOL     OW21993   2.421   8.864  10.808
 6740SOL    HW121994   2.352   8.799  10.824
 6740SOL    HW221995   2.409   8.928  10.878
 6741SOL     OW21996   7.756  10.360  13.997
 6741SOL    HW121997   7.752  10.272  13.959
 6741SOL    HW221998   7.834  10.400  13.960
 6742SOL     OW21999  12.655   4.475  10.304
 6742SOL    HW122000  12.750   4.480  10.310
 6742SOL    HW222001  12.624   4.483  10.394
 6743SOL     OW22002  13.386   7.880  10.010
 6743SOL    HW122003  13.468   7.913  10.046
 6743SOL    HW222004  13.357   7.948   9.950
 6744SOL     OW22005   4.745  13.208   3.785
 6744SOL    HW122006   4.821  13.157   3.811
 6744SOL    HW222007   4.780  13.294   3.762
 6745SOL     OW22008   5.709  11.726  13.240
 6745SOL    HW122009   5.798  11.694  13.229
 6745SOL    HW222010   5.703  11.748  13.333
 6746SOL     OW22011  11.803  13.713  13.474
 6746SOL    HW122012  11.837  13.707  13.385
 6746SOL    HW222013  11.872  13.676  13.529
 6747SOL     OW22014  10.005   5.200  13.080
 6747SOL    HW122015   9.953   5.146  13.019
 6747SOL    HW222016  10.021   5.142  13.155
 6748SOL     OW22017  13.219   5.158   7.810
 6748SOL    HW122018  13.180   5.085   7.858
 6748SOL    HW222019  13.283   5.195   7.870
 6749SOL     OW22020   2.574   2.221   3.239
 6749SOL    HW122021   2.546   2.148   3.185
 6749SOL    HW222022   2.503   2.233   3.302
 6750SOL     OW22023   3.053   2.937  11.143
 6750SOL    HW122024   3.084   2.921  11.232
 6750SOL    HW222025   3.122   2.902  11.087
 6751SOL     OW22026   7.123  11.997   0.796
 6751SOL    HW122027   7.176  11.965   0.722
 6751SOL    HW222028   7.184  12.046   0.850
 6752SOL     OW22029   6.421   0.915   2.319
 6752SOL    HW122030   6.336   0.927   2.277
 6752SOL    HW222031   6.414   0.830   2.363
 6753SOL     OW22032   9.376  10.690  13.274
 6753SOL    HW122033   9.317  10.662  13.204
 6753SOL    HW222034   9.463  10.689  13.234
 6754SOL     OW22035  12.207   2.477   6.108
 6754SOL    HW122036  12.228   2.527   6.187
 6754SOL    HW222037  12.112   2.484   6.099
 6755SOL     OW22038   6.386   9.415   5.240
 6755SOL    HW122039   6.408   9.343   5.299
 6755SOL    HW222040   6.357   9.372   5.160
 6756SOL     OW22041   7.032   7.186   7.525
 6756SOL    HW122042   7.105   7.235   7.562
 6756SOL    HW222043   6.993   7.246   7.461
 6757SOL     OW22044   1.865  11.845   7.215
 6757SOL    HW122045   1.905  11.790   7.283
 6757SOL    HW222046   1.905  11.815   7.134
 6758SOL     OW22047   4.382   3.213   9.093
 6758SOL    HW122048   4.434   3.278   9.046
 6758SOL    HW222049   4.446   3.150   9.126
 6759SOL     OW22050   1.048   8.696  13.857
 6759SOL    HW122051   1.110   8.709  13.785
 6759SOL    HW222052   1.023   8.784  13.884
 6760SOL     OW22053  11.175   0.623   4.376
 6760SOL    HW122054  11.187   0.532   4.347
 6760SOL    HW222055  11.125   0.616   4.458
 6761SOL     OW22056  10.493   1.937   9.157
 6761SOL    HW122057  10.419   1.897   9.203
 6761SOL    HW222058  10.547   1.862   9.131
 6762SOL     OW22059  12.956   9.027   3.137
 6762SOL    HW122060  12.954   9.121   3.121
 6762SOL    HW222061  12.864   9.000   3.130
 6763SOL     OW22062  13.957   7.518  14.202
 6763SOL    HW122063  14.035   7.472  14.172
 6763SOL    HW222064  13.941   7.484  14.291
 6764SOL     OW22065   4.285   1.787  13.170
 6764SOL    HW122066   4.254   1.860  13.224
 6764SOL    HW222067   4.321   1.724  13.232
 6765SOL     OW22068  11.245   9.447   5.261
 6765SOL    HW122069  11.196   9.384   5.314
 6765SOL    HW222070  11.315   9.477   5.319
 6766SOL     OW22071  14.821   9.671  10.836
 6766SOL    HW122072  14.871   9.600  10.876
 6766SOL    HW222073  14.772   9.710  10.908
 6767SOL     OW22074   9.140   6.199   6.346
 6767SOL    HW122075   9.228   6.228   6.368
 6767SOL    HW222076   9.083   6.256   6.398
 6768SOL     OW22077  13.783   8.470   9.399
 6768SOL    HW122078  13.703   8.522   9.390
 6768SOL    HW222079  13.777   8.405   9.329
 6769SOL     OW22080  12.314   7.615  11.794
 6769SOL    HW122081  12.348   7.538  11.840
 6769SOL    HW222082  12.379   7.684  11.812
 6770SOL     OW22083   0.140  13.044   3.378
 6770SOL    HW122084   0.116  13.097   3.454
 6770SOL    HW222085   0.094  12.961   3.391
 6771SOL     OW22086   9.260  12.724   7.527
 6771SOL    HW122087   9.336  12.666   7.537
 6771SOL    HW222088   9.220  12.726   7.614
 6772SOL     OW22089  12.324   4.889   4.057
 6772SOL    HW122090  12.243   4.849   4.027
 6772SOL    HW222091  12.378   4.897   3.978
 6773SOL     OW22092  14.613   7.143   5.542
 6773SOL    HW122093  14.643   7.076   5.480
 6773SOL    HW222094  14.679   7.142   5.611
 6774SOL     OW22095   0.151   6.734   2.590
 6774SOL    HW122096   0.173   6.791   2.516
 6774SOL    HW222097   0.223   6.671   2.595
 6775SOL     OW22098   4.154   5.500  12.174
 6775SOL    HW122099   4.184   5.558  12.104
 6775SOL    HW222100   4.115   5.558  12.239
 6776SOL     OW22101  10.140   7.983   0.963
 6776SOL    HW122102  10.100   7.899   0.941
 6776SOL    HW222103  10.207   7.995   0.896
 6777SOL     OW22104   8.114   4.485   7.635
 6777SOL    HW122105   8.197   4.513   7.595
 6777SOL    HW222106   8.125   4.391   7.649
 6778SOL     OW22107   2.670   8.581  13.197
 6778SOL    HW122108   2.622   8.498  13.196
 6778SOL    HW222109   2.634   8.630  13.123
 6779SOL     OW22110   4.529   8.733  13.828
 6779SOL    HW122111   4.622   8.746  13.814
 6779SOL    HW222112   4.513   8.642  13.803
 6780SOL     OW22113  10.554   8.551   4.913
 6780SOL    HW122114  10.561   8.467   4.868
 6780SOL    HW222115  10.462   8.576   4.904
 6781SOL     OW22116   8.675   6.501  12.334
 6781SOL    HW122117   8.743   6.464  12.277
 6781SOL    HW222118   8.642   6.427  12.384
 6782SOL     OW22119  10.524  12.255  11.814
 6782SOL    HW122120  10.538  12.321  11.882
 6782SOL    HW222121  10.586  12.279  11.744
 6783SOL     OW22122   6.974  14.720   9.551
 6783SOL    HW122123   7.038  14.734   9.482
 6783SOL    HW222124   6.963  14.625   9.554
 6784SOL     OW22125   2.651   6.515   3.556
 6784SOL    HW122126   2.672   6.584   3.493
 6784SOL    HW222127   2.699   6.438   3.523
 6785SOL     OW22128  12.386  10.138   4.863
 6785SOL    HW122129  12.397  10.056   4.912
 6785SOL    HW222130  12.471  10.180   4.867
 6786SOL     OW22131   8.979  11.414  13.234
 6786SOL    HW122132   8.966  11.386  13.143
 6786SOL    HW222133   9.066  11.452  13.236
 6787SOL     OW22134   2.811   4.350   3.993
 6787SOL    HW122135   2.749   4.277   3.993
 6787SOL    HW222136   2.865   4.336   4.071
 6788SOL     OW22137  14.678   9.593   9.192
 6788SOL    HW122138  14.700   9.558   9.278
 6788SOL    HW222139  14.673   9.688   9.205
 6789SOL     OW22140   8.749   7.484  10.932
 6789SOL    HW122141   8.716   7.394  10.929
 6789SOL    HW222142   8.677   7.537  10.897
 6790SOL     OW22143  11.864  13.309  11.243
 6790SOL    HW122144  11.884  13.295  11.150
 6790SOL    HW222145  11.789  13.369  11.242
 6791SOL     OW22146   3.396   0.420   2.665
 6791SOL    HW122147   3.481   0.383   2.691
 6791SOL    HW222148   3.416   0.475   2.589
 6792SOL     OW22149   3.001   6.101  11.543
 6792SOL    HW122150   2.987   6.169  11.609
 6792SOL    HW222151   3.083   6.059  11.569
 6793SOL     OW22152  10.376   9.241  10.131
 6793SOL    HW122153  10.414   9.262  10.216
 6793SOL    HW222154  10.329   9.159  10.146
 6794SOL     OW22155  13.384   9.723   2.762
 6794SOL    HW122156  13.339   9.646   2.797
 6794SOL    HW222157  13.467   9.726   2.810
 6795SOL     OW22158   4.940  12.843   4.990
 6795SOL    HW122159   4.924  12.892   4.909
 6795SOL    HW222160   5.033  12.856   5.008
 6796SOL     OW22161  11.970   8.569   8.424
 6796SOL    HW122162  12.029   8.506   8.466
 6796SOL    HW222163  11.923   8.518   8.358
 6797SOL     OW22164   3.947   1.101   3.647
 6797SOL    HW122165   3.950   1.022   3.593
 6797SOL    HW222166   3.854   1.119   3.660
 6798SOL     OW22167   8.908   2.781   0.481
 6798SOL    HW122168   8.902   2.863   0.530
 6798SOL    HW222169   8.965   2.726   0.533
 6799SOL     OW22170  14.682   8.543   2.899
 6799SOL    HW122171  14.731   8.625   2.903
 6799SOL    HW222172  14.695   8.513   2.809
 6800SOL     OW22173  14.751   8.919   1.070
 6800SOL    HW122174  14.831   8.963   1.041
 6800SOL    HW222175  14.783   8.839   1.112
 6801SOL     OW22176   6.850   6.801  12.171
 6801SOL    HW122177   6.935   6.842  12.155
 6801SOL    HW222178   6.800   6.867  12.218
 6802SOL     OW22179  12.114  10.840  13.349
 6802SOL    HW122180  12.079  10.753  13.333
 6802SOL    HW222181  12.111  10.850  13.444
 6803SOL     OW22182  14.470   6.261   9.002
 6803SOL    HW122183  14.523   6.197   8.955
 6803SOL    HW222184  14.384   6.221   9.008
 6804SOL     OW22185   2.824   9.112  11.798
 6804SOL    HW122186   2.809   9.206  11.792
 6804SOL    HW222187   2.736   9.075  11.808
 6805SOL     OW22188   8.526   9.569   2.580
 6805SOL    HW122189   8.587   9.591   2.510
 6805SOL    HW222190   8.553   9.481   2.609
 6806SOL     OW22191   3.548   2.684  10.406
 6806SOL    HW122192   3.569   2.673  10.498
 6806SOL    HW222193   3.631   2.706  10.364
 6807SOL     OW22194   8.918  10.014   4.587
 6807SOL    HW122195   8.999  10.000   4.536
 6807SOL    HW222196   8.857  10.052   4.524
 6808SOL     OW22197   5.244  11.998  14.240
 6808SOL    HW122198   5.212  12.084  14.266
 6808SOL    HW222199   5.172  11.959  14.191
 6809SOL     OW22200   9.415   4.404   6.547
 6809SOL    HW122201   9.404   4.311   6.527
 6809SOL    HW222202   9.455   4.405   6.634
 6810SOL     OW22203  14.793  13.571   3.056
 6810SOL    HW122204  14.740  13.517   2.997
 6810SOL    HW222205  14.844  13.627   2.998
 6811SOL     OW22206  13.328   6.939   5.890
 6811SOL    HW122207  13.233   6.930   5.882
 6811SOL    HW222208  13.364   6.885   5.820
 6812SOL     OW22209   1.201  14.048   3.157
 6812SOL    HW122210   1.130  14.075   3.215
 6812SOL    HW222211   1.191  14.103   3.079
 6813SOL     OW22212  10.825   7.958   4.958
 6813SOL    HW122213  10.832   7.892   5.027
 6813SOL    HW222214  10.731   7.977   4.953
 6814SOL     OW22215   8.519   4.781   1.657
 6814SOL    HW122216   8.612   4.805   1.663
 6814SOL    HW222217   8.480   4.816   1.737
 6815SOL     OW22218   9.314   5.856   4.150
 6815SOL    HW122219   9.340   5.822   4.235
 6815SOL    HW222220   9.218   5.847   4.149
 6816SOL     OW22221  10.751   6.344   6.349
 6816SOL    HW122222  10.727   6.375   6.437
 6816SOL    HW222223  10.845   6.328   6.354
 6817SOL     OW22224   8.076   7.635   2.264
 6817SOL    HW122225   8.150   7.593   2.221
 6817SOL    HW222226   8.046   7.571   2.328
 6818SOL     OW22227  14.269   2.652   3.630
 6818SOL    HW122228  14.302   2.735   3.596
 6818SOL    HW222229  14.175   2.664   3.635
 6819SOL     OW22230   5.088   5.507  12.126
 6819SOL    HW122231   5.117   5.598  12.130
 6819SOL    HW222232   5.002   5.510  12.085
 6820SOL     OW22233  12.196  14.834   3.943
 6820SOL    HW122234  12.196  14.740   3.963
 6820SOL    HW222235  12.124  14.870   3.996
 6821SOL     OW22236   7.543   9.846  12.814
 6821SOL    HW122237   7.574   9.921  12.864
 6821SOL    HW222238   7.540   9.877  12.724
 6822SOL     OW22239   6.909   8.825   0.612
 6822SOL    HW122240   6.882   8.912   0.641
 6822SOL    HW222241   6.836   8.768   0.636
 6823SOL     OW22242   4.686  10.737  13.220
 6823SOL    HW122243   4.644  10.655  13.192
 6823SOL    HW222244   4.617  10.803  13.212
 6824SOL     OW22245   6.061  14.187   4.443
 6824SOL    HW122246   6.051  14.183   4.538
 6824SOL    HW222247   6.052  14.096   4.414
 6825SOL     OW22248   6.240  13.526  10.457
 6825SOL    HW122249   6.172  13.511  10.523
 6825SOL    HW222250   6.271  13.615  10.473
 6826SOL     OW22251  13.828  12.907   9.278
 6826SOL    HW122252  13.821  12.909   9.373
 6826SOL    HW222253  13.856  12.996   9.254
 6827SOL     OW22254   9.568   5.032  10.034
 6827SOL    HW122255   9.504   4.964  10.015
 6827SOL    HW222256   9.597   5.063   9.948
 6828SOL     OW22257   9.245   7.430  10.719
 6828SOL    HW122258   9.217   7.466  10.635
 6828SOL    HW222259   9.307   7.495  10.754
 6829SOL     OW22260   9.789   5.701   5.643
 6829SOL    HW122261   9.881   5.676   5.644
 6829SOL    HW222262   9.773   5.739   5.730
 6830SOL     OW22263   1.211   8.696   7.614
 6830SOL    HW122264   1.195   8.695   7.520
 6830SOL    HW222265   1.257   8.614   7.632
 6831SOL     OW22266   2.460   1.706  10.983
 6831SOL    HW122267   2.549   1.673  10.983
 6831SOL    HW222268   2.445   1.733  11.074
 6832SOL     OW22269  11.771   1.323   3.775
 6832SOL    HW122270  11.794   1.280   3.692
 6832SOL    HW222271  11.706   1.265   3.815
 6833SOL     OW22272  13.489   7.001   3.620
 6833SOL    HW122273  13.461   7.042   3.539
 6833SOL    HW222274  13.584   6.997   3.614
 6834SOL     OW22275   9.921   0.192  14.130
 6834SOL    HW122276   9.950   0.102  14.114
 6834SOL    HW222277   9.871   0.188  14.211
 6835SOL     OW22278   9.999  10.941  11.792
 6835SOL    HW122279   9.923  10.961  11.848
 6835SOL    HW222280  10.054  10.885  11.847
 6836SOL     OW22281   8.402   6.864   7.475
 6836SOL    HW122282   8.466   6.858   7.546
 6836SOL    HW222283   8.423   6.946   7.431
 6837SOL     OW22284   4.019   4.555   6.371
 6837SOL    HW122285   3.955   4.571   6.441
 6837SOL    HW222286   3.973   4.580   6.291
 6838SOL     OW22287   1.315   5.710   6.993
 6838SOL    HW122288   1.392   5.741   7.042
 6838SOL    HW222289   1.317   5.760   6.911
 6839SOL     OW22290   1.459   4.989   1.754
 6839SOL    HW122291   1.401   4.960   1.825
 6839SOL    HW222292   1.522   4.918   1.744
 6840SOL     OW22293   9.152   5.636  13.871
 6840SOL    HW122294   9.064   5.659  13.843
 6840SOL    HW222295   9.139   5.582  13.949
 6841SOL     OW22296  14.309  13.421   1.288
 6841SOL    HW122297  14.262  13.341   1.311
 6841SOL    HW222298  14.360  13.443   1.366
 6842SOL     OW22299  12.047   2.711   6.702
 6842SOL    HW122300  12.108   2.647   6.664
 6842SOL    HW222301  11.961   2.670   6.691
 6843SOL     OW22302   0.257   9.287  12.972
 6843SOL    HW122303   0.254   9.340  12.893
 6843SOL    HW222304   0.204   9.210  12.952
 6844SOL     OW22305   5.882   9.817   6.406
 6844SOL    HW122306   5.934   9.868   6.344
 6844SOL    HW222307   5.941   9.748   6.435
 6845SOL     OW22308   0.960   5.406   5.495
 6845SOL    HW122309   0.940   5.488   5.449
 6845SOL    HW222310   0.965   5.340   5.425
 6846SOL     OW22311   6.355   3.577   1.354
 6846SOL    HW122312   6.349   3.663   1.396
 6846SOL    HW222313   6.438   3.541   1.387
 6847SOL     OW22314   2.711   9.434   8.472
 6847SOL    HW122315   2.634   9.453   8.526
 6847SOL    HW222316   2.701   9.491   8.396
 6848SOL     OW22317   3.839   0.803   1.984
 6848SOL    HW122318   3.755   0.762   2.006
 6848SOL    HW222319   3.822   0.848   1.901
 6849SOL     OW22320   2.668  12.162  13.647
 6849SOL    HW122321   2.734  12.157  13.578
 6849SOL    HW222322   2.589  12.126  13.608
 6850SOL     OW22323   7.778   3.669   6.830
 6850SOL    HW122324   7.717   3.688   6.902
 6850SOL    HW222325   7.797   3.575   6.839
 6851SOL     OW22326   4.095  12.620   1.079
 6851SOL    HW122327   4.091  12.623   0.984
 6851SOL    HW222328   4.086  12.712   1.107
 6852SOL     OW22329   1.496   1.672  14.087
 6852SOL    HW122330   1.456   1.739  14.141
 6852SOL    HW222331   1.584   1.660  14.124
 6853SOL     OW22332   6.755   0.681  13.533
 6853SOL    HW122333   6.818   0.622  13.492
 6853SOL    HW222334   6.778   0.768  13.500
 6854SOL     OW22335   5.848   1.351   9.830
 6854SOL    HW122336   5.798   1.280   9.792
 6854SOL    HW222337   5.882   1.316   9.913
 6855SOL     OW22338   9.817  14.854   7.654
 6855SOL    HW122339   9.835  14.849   7.560
 6855SOL    HW222340   9.800   0.070   7.670
 6856SOL     OW22341   6.517   7.735  13.217
 6856SOL    HW122342   6.541   7.825  13.195
 6856SOL    HW222343   6.597   7.696  13.251
 6857SOL     OW22344  13.352   5.563   7.676
 6857SOL    HW122345  13.423   5.514   7.719
 6857SOL    HW222346  13.272   5.525   7.713
 6858SOL     OW22347  12.893   1.302  11.810
 6858SOL    HW122348  12.895   1.339  11.722
 6858SOL    HW222349  12.960   1.350  11.858
 6859SOL     OW22350   4.636  11.751   4.921
 6859SOL    HW122351   4.709  11.694   4.897
 6859SOL    HW222352   4.665  11.795   5.000
 6860SOL     OW22353   0.021  13.340   4.774
 6860SOL    HW122354   0.112  13.331   4.748
 6860SOL    HW222355  14.851  13.361   4.693
 6861SOL     OW22356   2.059   6.753   9.537
 6861SOL    HW122357   2.041   6.759   9.443
 6861SOL    HW222358   1.997   6.688   9.569
 6862SOL     OW22359   9.428  13.307   2.070
 6862SOL    HW122360   9.379  13.359   2.006
 6862SOL    HW222361   9.402  13.216   2.051
 6863SOL     OW22362  11.827  12.161  12.548
 6863SOL    HW122363  11.825  12.239  12.605
 6863SOL    HW222364  11.790  12.191  12.465
 6864SOL     OW22365  11.582   2.785  12.303
 6864SOL    HW122366  11.506   2.811  12.250
 6864SOL    HW222367  11.547   2.776  12.392
 6865SOL     OW22368  11.581   4.412  12.178
 6865SOL    HW122369  11.531   4.466  12.117
 6865SOL    HW222370  11.653   4.377  12.126
 6866SOL     OW22371   9.859   0.078   6.300
 6866SOL    HW122372   9.808   0.149   6.339
 6866SOL    HW222373   9.844   0.003   6.357
 6867SOL     OW22374   4.516   4.731   6.004
 6867SOL    HW122375   4.515   4.652   6.057
 6867SOL    HW222376   4.464   4.709   5.927
 6868SOL     OW22377  14.460   9.310   8.036
 6868SOL    HW122378  14.404   9.363   7.979
 6868SOL    HW222379  14.533   9.368   8.059
 6869SOL     OW22380  11.041   6.313   9.933
 6869SOL    HW122381  11.082   6.234   9.899
 6869SOL    HW222382  10.961   6.282   9.974
 6870SOL     OW22383   8.353   7.853  10.332
 6870SOL    HW122384   8.437   7.807  10.336
 6870SOL    HW222385   8.376   7.945  10.350
 6871SOL     OW22386  11.364  12.002   1.371
 6871SOL    HW122387  11.278  12.040   1.356
 6871SOL    HW222388  11.357  11.912   1.338
 6872SOL     OW22389  11.768   5.164   4.384
 6872SOL    HW122390  11.727   5.208   4.310
 6872SOL    HW222391  11.708   5.178   4.457
 6873SOL     OW22392   3.561   5.398   4.590
 6873SOL    HW122393   3.496   5.328   4.580
 6873SOL    HW222394   3.540   5.438   4.674
 6874SOL     OW22395   6.518   5.198   6.220
 6874SOL    HW122396   6.447   5.262   6.224
 6874SOL    HW222397   6.596   5.248   6.245
 6875SOL     OW22398   4.341   8.473   5.832
 6875SOL    HW122399   4.264   8.452   5.780
 6875SOL    HW222400   4.390   8.535   5.779
 6876SOL     OW22401   0.548   8.123   1.325
 6876SOL    HW122402   0.562   8.045   1.379
 6876SOL    HW222403   0.579   8.196   1.379
 6877SOL     OW22404   8.104  10.751  11.709
 6877SOL    HW122405   8.173  10.739  11.643
 6877SOL    HW222406   8.023  10.731  11.662
 6878SOL     OW22407   2.896  11.672   9.788
 6878SOL    HW122408   2.907  11.702   9.878
 6878SOL    HW222409   2.824  11.725   9.753
 6879SOL     OW22410  11.510  11.380   8.841
 6879SOL    HW122411  11.433  11.431   8.864
 6879SOL    HW222412  11.584  11.439   8.858
 6880SOL     OW22413   1.264   4.298  10.824
 6880SOL    HW122414   1.170   4.308  10.829
 6880SOL    HW222415   1.287   4.326  10.735
 6881SOL     OW22416   7.796  11.902  11.233
 6881SOL    HW122417   7.869  11.879  11.291
 6881SOL    HW222418   7.779  11.995  11.251
 6882SOL     OW22419   4.870   2.066   6.322
 6882SOL    HW122420   4.785   2.021   6.330
 6882SOL    HW222421   4.850   2.158   6.342
 6883SOL     OW22422  10.411   0.494  12.452
 6883SOL    HW122423  10.397   0.401  12.430
 6883SOL    HW222424  10.431   0.535  12.368
 6884SOL     OW22425   7.924   9.163   9.500
 6884SOL    HW122426   7.845   9.131   9.544
 6884SOL    HW222427   7.996   9.137   9.557
 6885SOL     OW22428   0.670  13.486   4.083
 6885SOL    HW122429   0.589  13.520   4.122
 6885SOL    HW222430   0.644  13.404   4.042
 6886SOL     OW22431   2.858   3.928  11.370
 6886SOL    HW122432   2.909   3.920  11.450
 6886SOL    HW222433   2.818   4.015  11.375
 6887SOL     OW22434  13.467  11.054   8.611
 6887SOL    HW122435  13.386  11.039   8.563
 6887SOL    HW222436  13.518  11.112   8.554
 6888SOL     OW22437   0.083   6.736  12.674
 6888SOL    HW122438   0.005   6.714  12.724
 6888SOL    HW222439   0.050   6.780  12.595
 6889SOL     OW22440  12.698  11.504   3.846
 6889SOL    HW122441  12.777  11.541   3.887
 6889SOL    HW222442  12.629  11.517   3.912
 6890SOL     OW22443   0.849  13.833   7.811
 6890SOL    HW122444   0.907  13.906   7.833
 6890SOL    HW222445   0.900  13.777   7.753
 6891SOL     OW22446   3.495   3.178  10.483
 6891SOL    HW122447   3.458   3.266  10.491
 6891SOL    HW222448   3.483   3.139  10.570
 6892SOL     OW22449  12.610   5.295  13.917
 6892SOL    HW122450  12.609   5.244  13.998
 6892SOL    HW222451  12.612   5.230  13.848
 6893SOL     OW22452   0.121   9.516   9.190
 6893SOL    HW122453   0.183   9.525   9.263
 6893SOL    HW222454   0.039   9.491   9.231
 6894SOL     OW22455   3.113   9.035   4.997
 6894SOL    HW122456   3.019   9.027   4.980
 6894SOL    HW222457   3.120   9.112   5.054
 6895SOL     OW22458  13.574   5.466  11.690
 6895SOL    HW122459  13.669   5.457  11.693
 6895SOL    HW222460  13.555   5.486  11.598
 6896SOL     OW22461   3.995  14.406   4.993
 6896SOL    HW122462   3.963  14.324   4.955
 6896SOL    HW222463   3.940  14.420   5.070
 6897SOL     OW22464   8.389   0.238  11.945
 6897SOL    HW122465   8.383   0.181  11.868
 6897SOL    HW222466   8.469   0.210  11.990
 6898SOL     OW22467  13.202  11.934  14.594
 6898SOL    HW122468  13.284  11.887  14.583
 6898SOL    HW222469  13.215  12.016  14.546
 6899SOL     OW22470   7.779  13.585  12.484
 6899SOL    HW122471   7.849  13.552  12.540
 6899SOL    HW222472   7.770  13.519  12.416
 6900SOL     OW22473  14.415  13.413   6.399
 6900SOL    HW122474  14.457  13.328   6.385
 6900SOL    HW222475  14.472  13.476   6.355
 6901SOL     OW22476   4.584  13.896   4.540
 6901SOL    HW122477   4.578  13.861   4.451
 6901SOL    HW222478   4.677  13.917   4.551
 6902SOL     OW22479   0.170  14.062   7.588
 6902SOL    HW122480   0.186  14.008   7.665
 6902SOL    HW222481   0.180  14.152   7.618
 6903SOL     OW22482   2.571   4.838   4.134
 6903SOL    HW122483   2.627   4.842   4.211
 6903SOL    HW222484   2.510   4.911   4.145
 6904SOL     OW22485  12.228   0.530   6.872
 6904SOL    HW122486  12.194   0.602   6.925
 6904SOL    HW222487  12.160   0.463   6.877
 6905SOL     OW22488   1.973   6.693  11.936
 6905SOL    HW122489   1.886   6.654  11.938
 6905SOL    HW222490   1.958   6.786  11.953
 6906SOL     OW22491   3.358   6.784  10.452
 6906SOL    HW122492   3.386   6.709  10.400
 6906SOL    HW222493   3.290   6.827  10.399
 6907SOL     OW22494   2.829   5.259  13.405
 6907SOL    HW122495   2.834   5.233  13.313
 6907SOL    HW222496   2.919   5.282  13.429
 6908SOL     OW22497   7.067   0.651   1.339
 6908SOL    HW122498   6.990   0.705   1.321
 6908SOL    HW222499   7.046   0.566   1.301
 6909SOL     OW22500   0.142  13.605   8.147
 6909SOL    HW122501   0.184  13.660   8.213
 6909SOL    HW222502   0.052  13.638   8.143
 6910SOL     OW22503  14.809   3.352   1.059
 6910SOL    HW122504   0.024   3.377   1.050
 6910SOL    HW222505  14.768   3.428   1.101
 6911SOL     OW22506   7.052   6.818  10.560
 6911SOL    HW122507   6.989   6.867  10.613
 6911SOL    HW222508   7.134   6.865  10.570
 6912SOL     OW22509  12.975   9.885   6.694
 6912SOL    HW122510  13.062   9.881   6.733
 6912SOL    HW222511  12.991   9.905   6.602
 6913SOL     OW22512   7.446   9.006   5.839
 6913SOL    HW122513   7.442   9.092   5.880
 6913SOL    HW222514   7.439   8.944   5.911
 6914SOL     OW22515   3.358  12.385   9.952
 6914SOL    HW122516   3.378  12.402  10.044
 6914SOL    HW222517   3.273  12.426   9.938
 6915SOL     OW22518   2.597   4.999  12.608
 6915SOL    HW122519   2.668   4.935  12.603
 6915SOL    HW222520   2.628   5.073  12.556
 6916SOL     OW22521   3.007  13.712   9.772
 6916SOL    HW122522   2.994  13.807   9.767
 6916SOL    HW222523   2.927  13.675   9.734
 6917SOL     OW22524   2.815   6.168   4.477
 6917SOL    HW122525   2.861   6.100   4.526
 6917SOL    HW222526   2.785   6.230   4.544
 6918SOL     OW22527   8.469  10.573  10.245
 6918SOL    HW122528   8.478  10.478  10.242
 6918SOL    HW222529   8.394  10.588  10.303
 6919SOL     OW22530   4.009  10.266   9.626
 6919SOL    HW122531   3.923  10.238   9.656
 6919SOL    HW222532   4.014  10.235   9.535
 6920SOL     OW22533  12.130   8.627  13.214
 6920SOL    HW122534  12.113   8.670  13.130
 6920SOL    HW222535  12.176   8.693  13.266
 6921SOL     OW22536   3.498   1.613   0.685
 6921SOL    HW122537   3.479   1.687   0.627
 6921SOL    HW222538   3.475   1.536   0.633
 6922SOL     OW22539  11.684  11.497   1.460
 6922SOL    HW122540  11.675  11.538   1.546
 6922SOL    HW222541  11.594  11.487   1.429
 6923SOL     OW22542  10.795  14.841   0.212
 6923SOL    HW122543  10.859  14.792   0.264
 6923SOL    HW222544  10.780  14.786   0.135
 6924SOL     OW22545   0.460  12.302  10.948
 6924SOL    HW122546   0.478  12.221  10.899
 6924SOL    HW222547   0.423  12.361  10.883
 6925SOL     OW22548   3.389   7.727  12.226
 6925SOL    HW122549   3.483   7.706  12.234
 6925SOL    HW222550   3.373   7.728  12.132
 6926SOL     OW22551   7.412   3.449   6.225
 6926SOL    HW122552   7.349   3.516   6.200
 6926SOL    HW222553   7.456   3.425   6.144
 6927SOL     OW22554  13.654  14.756   8.061
 6927SOL    HW122555  13.711  14.703   8.117
 6927SOL    HW222556  13.579  14.778   8.117
 6928SOL     OW22557   5.910   8.795  11.011
 6928SOL    HW122558   5.844   8.761  10.952
 6928SOL    HW222559   5.924   8.725  11.075
 6929SOL     OW22560  10.290   6.696   9.674
 6929SOL    HW122561  10.239   6.630   9.628
 6929SOL    HW222562  10.274   6.777   9.626
 6930SOL     OW22563   4.535  14.830  11.512
 6930SOL    HW122564   4.520  14.860  11.602
 6930SOL    HW222565   4.629  14.817  11.507
 6931SOL     OW22566  12.031  13.569   0.614
 6931SOL    HW122567  11.982  13.543   0.692
 6931SOL    HW222568  12.018  13.497   0.552
 6932SOL     OW22569   0.181  10.972   5.497
 6932SOL    HW122570   0.189  11.058   5.456
 6932SOL    HW222571   0.122  10.923   5.439
 6933SOL     OW22572  14.783   6.005   8.287
 6933SOL    HW122573  14.781   6.003   8.191
 6933SOL    HW222574  14.704   5.958   8.314
 6934SOL     OW22575  12.393  10.530   9.677
 6934SOL    HW122576  12.347  10.446   9.687
 6934SOL    HW222577  12.437  10.522   9.592
 6935SOL     OW22578   2.007   6.129   8.128
 6935SOL    HW122579   2.071   6.063   8.100
 6935SOL    HW222580   1.942   6.080   8.178
 6936SOL     OW22581   4.323   7.317   9.016
 6936SOL    HW122582   4.403   7.289   9.062
 6936SOL    HW222583   4.257   7.324   9.084
 6937SOL     OW22584   5.932  12.945   4.285
 6937SOL    HW122585   5.840  12.921   4.292
 6937SOL    HW222586   5.976  12.865   4.256
 6938SOL     OW22587  11.467   8.935   7.106
 6938SOL    HW122588  11.374   8.918   7.123
 6938SOL    HW222589  11.481   8.903   7.017
 6939SOL     OW22590   4.082  11.845   6.555
 6939SOL    HW122591   4.098  11.856   6.461
 6939SOL    HW222592   4.144  11.777   6.582
 6940SOL     OW22593   4.250  13.790   8.563
 6940SOL    HW122594   4.293  13.816   8.645
 6940SOL    HW222595   4.321  13.787   8.498
 6941SOL     OW22596  11.194  13.102   9.873
 6941SOL    HW122597  11.129  13.069   9.811
 6941SOL    HW222598  11.146  13.164   9.928
 6942SOL     OW22599   0.504   2.916   4.884
 6942SOL    HW122600   0.420   2.947   4.919
 6942SOL    HW222601   0.505   2.949   4.794
 6943SOL     OW22602  10.241  11.812   3.796
 6943SOL    HW122603  10.284  11.727   3.802
 6943SOL    HW222604  10.228  11.839   3.887
 6944SOL     OW22605  10.251   3.024   9.651
 6944SOL    HW122606  10.306   2.982   9.584
 6944SOL    HW222607  10.305   3.026   9.729
 6945SOL     OW22608  12.048   7.726  13.996
 6945SOL    HW122609  12.033   7.685  13.911
 6945SOL    HW222610  11.960   7.735  14.034
 6946SOL     OW22611   0.292   0.762   8.140
 6946SOL    HW122612   0.228   0.694   8.159
 6946SOL    HW222613   0.269   0.792   8.051
 6947SOL     OW22614  13.684   8.278  13.663
 6947SOL    HW122615  13.719   8.365  13.685
 6947SOL    HW222616  13.706   8.223  13.738
 6948SOL     OW22617   6.834   9.396  13.382
 6948SOL    HW122618   6.833   9.302  13.366
 6948SOL    HW222619   6.923   9.423  13.358
 6949SOL     OW22620   5.325   7.153   0.154
 6949SOL    HW122621   5.374   7.182   0.231
 6949SOL    HW222622   5.238   7.131   0.187
 6950SOL     OW22623  10.504  12.598   6.833
 6950SOL    HW122624  10.485  12.689   6.810
 6950SOL    HW222625  10.572  12.571   6.772
 6951SOL     OW22626   9.197  14.558  13.183
 6951SOL    HW122627   9.228  14.575  13.094
 6951SOL    HW222628   9.116  14.508  13.171
 6952SOL     OW22629   3.359   8.150  13.150
 6952SOL    HW122630   3.366   8.216  13.082
 6952SOL    HW222631   3.445   8.109  13.154
 6953SOL     OW22632   1.486  13.495   7.269
 6953SOL    HW122633   1.454  13.451   7.191
 6953SOL    HW222634   1.453  13.585   7.262
 6954SOL     OW22635   3.378   9.704   2.456
 6954SOL    HW122636   3.379   9.654   2.538
 6954SOL    HW222637   3.470   9.713   2.432
 6955SOL     OW22638  14.443  11.445  11.227
 6955SOL    HW122639  14.432  11.355  11.198
 6955SOL    HW222640  14.462  11.494  11.148
 6956SOL     OW22641   5.108   6.876   5.191
 6956SOL    HW122642   5.021   6.913   5.199
 6956SOL    HW222643   5.167   6.951   5.191
 6957SOL     OW22644  11.745  12.651   4.129
 6957SOL    HW122645  11.770  12.643   4.221
 6957SOL    HW222646  11.827  12.668   4.083
 6958SOL     OW22647   1.361   5.036   6.832
 6958SOL    HW122648   1.404   5.101   6.888
 6958SOL    HW222649   1.433   4.994   6.784
 6959SOL     OW22650   4.832  12.670   4.151
 6959SOL    HW122651   4.847  12.763   4.167
 6959SOL    HW222652   4.772  12.643   4.220
 6960SOL     OW22653   9.368   2.141   5.739
 6960SOL    HW122654   9.452   2.100   5.719
 6960SOL    HW222655   9.318   2.073   5.785
 6961SOL     OW22656  11.312   4.770  11.147
 6961SOL    HW122657  11.293   4.696  11.204
 6961SOL    HW222658  11.277   4.745  11.061
 6962SOL     OW22659   1.012   1.050   7.322
 6962SOL    HW122660   1.041   1.079   7.236
 6962SOL    HW222661   0.922   1.020   7.308
 6963SOL     OW22662   7.708   0.607  12.697
 6963SOL    HW122663   7.767   0.533  12.711
 6963SOL    HW222664   7.766   0.683  12.688
 6964SOL     OW22665   9.455   0.189   3.236
 6964SOL    HW122666   9.401   0.171   3.160
 6964SOL    HW222667   9.454   0.284   3.245
 6965SOL     OW22668  11.110  11.872   5.629
 6965SOL    HW122669  11.076  11.931   5.562
 6965SOL    HW222670  11.083  11.784   5.599
 6966SOL     OW22671   9.495   8.354  10.786
 6966SOL    HW122672   9.498   8.425  10.851
 6966SOL    HW222673   9.470   8.397  10.704
 6967SOL     OW22674  11.947   7.778  13.294
 6967SOL    HW122675  11.949   7.724  13.215
 6967SOL    HW222676  11.906   7.860  13.266
 6968SOL     OW22677  11.225   9.601  13.558
 6968SOL    HW122678  11.257   9.631  13.473
 6968SOL    HW222679  11.188   9.514  13.540
 6969SOL     OW22680   6.417   4.409   7.105
 6969SOL    HW122681   6.480   4.460   7.054
 6969SOL    HW222682   6.421   4.446   7.193
 6970SOL     OW22683  12.141   7.359   7.721
 6970SOL    HW122684  12.088   7.426   7.677
 6970SOL    HW222685  12.178   7.308   7.649
 6971SOL     OW22686   7.703   1.708   0.374
 6971SOL    HW122687   7.687   1.671   0.287
 6971SOL    HW222688   7.772   1.653   0.411
 6972SOL     OW22689  10.918   9.447   5.476
 6972SOL    HW122690  10.974   9.414   5.547
 6972SOL    HW222691  10.930   9.384   5.406
 6973SOL     OW22692  11.666   4.521  13.141
 6973SOL    HW122693  11.676   4.456  13.071
 6973SOL    HW222694  11.711   4.599  13.108
 6974SOL     OW22695   6.509   5.409   3.091
 6974SOL    HW122696   6.536   5.320   3.116
 6974SOL    HW222697   6.474   5.399   3.002
 6975SOL     OW22698   6.964   1.814  11.741
 6975SOL    HW122699   7.050   1.791  11.778
 6975SOL    HW222700   6.912   1.734  11.750
 6976SOL     OW22701  11.256   4.606   8.464
 6976SOL    HW122702  11.184   4.547   8.444
 6976SOL    HW222703  11.314   4.555   8.520
 6977SOL     OW22704  10.356   5.548   4.747
 6977SOL    HW122705  10.385   5.482   4.810
 6977SOL    HW222706  10.395   5.521   4.664
 6978SOL     OW22707  12.767   6.665   1.933
 6978SOL    HW122708  12.719   6.584   1.920
 6978SOL    HW222709  12.852   6.649   1.892
 6979SOL     OW22710   7.922  13.867  12.490
 6979SOL    HW122711   7.877  13.938  12.537
 6979SOL    HW222712   7.860  13.794  12.494
 6980SOL     OW22713   1.971  11.714  12.287
 6980SOL    HW122714   1.936  11.656  12.219
 6980SOL    HW222715   1.959  11.665  12.368
 6981SOL     OW22716   2.467   0.262   4.633
 6981SOL    HW122717   2.534   0.329   4.620
 6981SOL    HW222718   2.403   0.278   4.563
 6982SOL     OW22719   1.859   2.259   9.460
 6982SOL    HW122720   1.931   2.322   9.464
 6982SOL    HW222721   1.821   2.271   9.374
 6983SOL     OW22722   5.450   4.291  14.258
 6983SOL    HW122723   5.427   4.306  14.349
 6983SOL    HW222724   5.470   4.377  14.223
 6984SOL     OW22725  14.311   0.107   0.847
 6984SOL    HW122726  14.362   0.031   0.820
 6984SOL    HW222727  14.367   0.154   0.908
 6985SOL     OW22728   1.042  14.626   6.877
 6985SOL    HW122729   1.136  14.615   6.861
 6985SOL    HW222730   1.022  14.562   6.945
 6986SOL     OW22731   8.093  10.383  12.791
 6986SOL    HW122732   8.001  10.364  12.809
 6986SOL    HW222733   8.132  10.396  12.877
 6987SOL     OW22734  10.671  14.733   9.516
 6987SOL    HW122735  10.679  14.709   9.424
 6987SOL    HW222736  10.578  14.725   9.535
 6988SOL     OW22737  11.418   3.695  11.079
 6988SOL    HW122738  11.358   3.624  11.055
 6988SOL    HW222739  11.499   3.651  11.105
 6989SOL     OW22740   4.535  11.040   0.079
 6989SOL    HW122741   4.584  10.983   0.019
 6989SOL    HW222742   4.499  10.980   0.144
 6990SOL     OW22743   3.733  12.434   8.768
 6990SOL    HW122744   3.778  12.464   8.846
 6990SOL    HW222745   3.798  12.384   8.719
 6991SOL     OW22746   4.739   7.806  13.143
 6991SOL    HW122747   4.773   7.753  13.071
 6991SOL    HW222748   4.667   7.754  13.180
 6992SOL     OW22749   9.739  12.980   5.711
 6992SOL    HW122750   9.704  12.931   5.785
 6992SOL    HW222751   9.804  12.921   5.671
 6993SOL     OW22752  10.834   9.898  13.180
 6993SOL    HW122753  10.799   9.955  13.248
 6993SOL    HW222754  10.821   9.810  13.213
 6994SOL     OW22755   9.852  10.636  10.290
 6994SOL    HW122756   9.790  10.677  10.350
 6994SOL    HW222757   9.839  10.542  10.303
 6995SOL     OW22758  11.151  12.852  13.126
 6995SOL    HW122759  11.123  12.775  13.176
 6995SOL    HW222760  11.161  12.921  13.191
 6996SOL     OW22761   1.242  11.469   1.124
 6996SOL    HW122762   1.256  11.386   1.077
 6996SOL    HW222763   1.318  11.522   1.101
 6997SOL     OW22764   8.928   4.477   7.754
 6997SOL    HW122765   8.906   4.502   7.844
 6997SOL    HW222766   8.896   4.387   7.745
 6998SOL     OW22767  10.751  13.146   1.082
 6998SOL    HW122768  10.695  13.213   1.043
 6998SOL    HW222769  10.812  13.122   1.012
 6999SOL     OW22770   7.855   7.236  12.555
 6999SOL    HW122771   7.889   7.220  12.643
 6999SOL    HW222772   7.931   7.227  12.498
 7000SOL     OW22773  13.691  10.535   2.543
 7000SOL    HW122774  13.673  10.506   2.453
 7000SOL    HW222775  13.709  10.629   2.534
 7001SOL     OW22776   4.206   8.240   4.228
 7001SOL    HW122777   4.275   8.179   4.253
 7001SOL    HW222778   4.137   8.185   4.191
 7002SOL     OW22779   1.235  12.511   4.225
 7002SOL    HW122780   1.182  12.471   4.294
 7002SOL    HW222781   1.223  12.605   4.238
 7003SOL     OW22782   3.366   7.363  11.442
 7003SOL    HW122783   3.395   7.445  11.402
 7003SOL    HW222784   3.396   7.296  11.381
 7004SOL     OW22785  12.013   6.152   4.122
 7004SOL    HW122786  11.933   6.101   4.105
 7004SOL    HW222787  11.984   6.223   4.180
 7005SOL     OW22788   7.370  11.639  11.194
 7005SOL    HW122789   7.415  11.563  11.231
 7005SOL    HW222790   7.440  11.692  11.156
 7006SOL     OW22791  11.477   3.441   2.038
 7006SOL    HW122792  11.504   3.495   1.963
 7006SOL    HW222793  11.458   3.356   2.000
 7007SOL     OW22794   4.757   7.172   4.481
 7007SOL    HW122795   4.827   7.107   4.477
 7007SOL    HW222796   4.783   7.240   4.419
 7008SOL     OW22797   0.423   3.645   9.018
 7008SOL    HW122798   0.505   3.632   8.970
 7008SOL    HW222799   0.355   3.632   8.952
 7009SOL     OW22800   8.608   7.913   8.554
 7009SOL    HW122801   8.577   7.866   8.477
 7009SOL    HW222802   8.631   7.845   8.617
 7010SOL     OW22803   8.170  10.288  14.395
 7010SOL    HW122804   8.228  10.215  14.416
 7010SOL    HW222805   8.082  10.252  14.402
 7011SOL     OW22806   3.027   4.582   9.602
 7011SOL    HW122807   3.087   4.540   9.541
 7011SOL    HW222808   3.077   4.655   9.638
 7012SOL     OW22809  12.336  11.719  12.966
 7012SOL    HW122810  12.251  11.730  13.008
 7012SOL    HW222811  12.339  11.788  12.899
 7013SOL     OW22812  12.997  11.566  10.542
 7013SOL    HW122813  13.083  11.527  10.561
 7013SOL    HW222814  13.015  11.627  10.470
 7014SOL     OW22815  12.110   0.925   9.141
 7014SOL    HW122816  12.158   0.844   9.152
 7014SOL    HW222817  12.042   0.904   9.077
 7015SOL     OW22818   9.196   8.113  10.063
 7015SOL    HW122819   9.182   8.097  10.156
 7015SOL    HW222820   9.161   8.035  10.019
 7016SOL     OW22821   6.104   8.866  12.523
 7016SOL    HW122822   6.036   8.866  12.455
 7016SOL    HW222823   6.173   8.810  12.488
 7017SOL     OW22824   1.053   7.415  14.229
 7017SOL    HW122825   1.083   7.506  14.230
 7017SOL    HW222826   1.134   7.363  14.227
 7018SOL     OW22827  13.017  10.161   7.993
 7018SOL    HW122828  13.106  10.194   7.999
 7018SOL    HW222829  13.007  10.106   8.071
 7019SOL     OW22830   4.775   4.335   8.084
 7019SOL    HW122831   4.724   4.359   8.161
 7019SOL    HW222832   4.737   4.252   8.055
 7020SOL     OW22833   2.091  10.469  11.356
 7020SOL    HW122834   2.150  10.508  11.420
 7020SOL    HW222835   2.056  10.391  11.400
 7021SOL     OW22836  12.610   2.800  13.341
 7021SOL    HW122837  12.527   2.751  13.339
 7021SOL    HW222838  12.583   2.892  13.344
 7022SOL     OW22839  12.832   5.495   9.642
 7022SOL    HW122840  12.867   5.582   9.627
 7022SOL    HW222841  12.778   5.476   9.565
 7023SOL     OW22842   9.133   5.629   5.870
 7023SOL    HW122843   9.101   5.713   5.903
 7023SOL    HW222844   9.080   5.564   5.916
 7024SOL     OW22845   6.127  11.747  11.412
 7024SOL    HW122846   6.183  11.812  11.368
 7024SOL    HW222847   6.129  11.771  11.504
 7025SOL     OW22848   9.542   3.969   2.349
 7025SOL    HW122849   9.526   4.045   2.405
 7025SOL    HW222850   9.459   3.921   2.350
 7026SOL     OW22851  13.652   4.699   3.849
 7026SOL    HW122852  13.701   4.766   3.802
 7026SOL    HW222853  13.680   4.616   3.810
 7027SOL     OW22854   6.802   1.529   5.393
 7027SOL    HW122855   6.825   1.603   5.337
 7027SOL    HW222856   6.881   1.513   5.445
 7028SOL     OW22857   1.401   8.030   0.656
 7028SOL    HW122858   1.306   8.035   0.665
 7028SOL    HW222859   1.416   7.960   0.593
 7029SOL     OW22860   0.929   3.253   2.154
 7029SOL    HW122861   0.992   3.295   2.213
 7029SOL    HW222862   0.865   3.322   2.135
 7030SOL     OW22863   9.913   3.580   1.857
 7030SOL    HW122864   9.852   3.593   1.930
 7030SOL    HW222865   9.992   3.626   1.883
 7031SOL     OW22866  10.267   1.425   2.401
 7031SOL    HW122867  10.249   1.517   2.380
 7031SOL    HW222868  10.210   1.376   2.341
 7032SOL     OW22869   6.829  14.617   0.803
 7032SOL    HW122870   6.804  14.663   0.883
 7032SOL    HW222871   6.884  14.679   0.755
 7033SOL     OW22872   0.770   8.718   9.412
 7033SOL    HW122873   0.705   8.758   9.354
 7033SOL    HW222874   0.718   8.664   9.472
 7034SOL     OW22875  13.768  11.021   1.448
 7034SOL    HW122876  13.761  10.935   1.489
 7034SOL    HW222877  13.765  11.004   1.354
 7035SOL     OW22878   5.145   6.851   8.799
 7035SOL    HW122879   5.072   6.912   8.806
 7035SOL    HW222880   5.153   6.833   8.705
 7036SOL     OW22881   5.200  11.331  10.295
 7036SOL    HW122882   5.221  11.424  10.284
 7036SOL    HW222883   5.286  11.288  10.301
 7037SOL     OW22884   5.649   7.601   1.188
 7037SOL    HW122885   5.690   7.658   1.252
 7037SOL    HW222886   5.568   7.646   1.164
 7038SOL     OW22887  13.668   8.303  11.099
 7038SOL    HW122888  13.662   8.292  11.004
 7038SOL    HW222889  13.741   8.246  11.125
 7039SOL     OW22890   0.037   4.093   0.422
 7039SOL    HW122891   0.033   4.022   0.359
 7039SOL    HW222892   0.131   4.111   0.432
 7040SOL     OW22893  13.737   1.773   6.317
 7040SOL    HW122894  13.761   1.828   6.243
 7040SOL    HW222895  13.724   1.834   6.390
 7041SOL     OW22896  14.213   2.542   8.871
 7041SOL    HW122897  14.270   2.549   8.947
 7041SOL    HW222898  14.127   2.570   8.902
 7042SOL     OW22899  10.242  12.130   0.556
 7042SOL    HW122900  10.278  12.217   0.574
 7042SOL    HW222901  10.275  12.075   0.627
 7043SOL     OW22902   9.152  13.567   6.301
 7043SOL    HW122903   9.142  13.476   6.270
 7043SOL    HW222904   9.077  13.579   6.360
 7044SOL     OW22905  14.046   6.915   0.527
 7044SOL    HW122906  14.047   6.847   0.594
 7044SOL    HW222907  13.992   6.879   0.457
 7045SOL     OW22908   2.765   2.328  10.595
 7045SOL    HW122909   2.792   2.358  10.682
 7045SOL    HW222910   2.721   2.245  10.610
 7046SOL     OW22911   3.257  14.194  12.179
 7046SOL    HW122912   3.238  14.244  12.099
 7046SOL    HW222913   3.324  14.131  12.153
 7047SOL     OW22914   7.471  14.584   3.296
 7047SOL    HW122915   7.563  14.560   3.279
 7047SOL    HW222916   7.476  14.669   3.339
 7048SOL     OW22917   8.163   4.257  12.796
 7048SOL    HW122918   8.251   4.290  12.809
 7048SOL    HW222919   8.164   4.169  12.835
 7049SOL     OW22920  14.108   8.549  11.744
 7049SOL    HW122921  14.076   8.532  11.655
 7049SOL    HW222922  14.187   8.601  11.731
 7050SOL     OW22923   4.042   7.580  13.200
 7050SOL    HW122924   4.094   7.573  13.280
 7050SOL    HW222925   4.013   7.672  13.198
 7051SOL     OW22926  11.375   5.555   2.621
 7051SOL    HW122927  11.387   5.500   2.699
 7051SOL    HW222928  11.280   5.559   2.610
 7052SOL     OW22929  13.633  12.947  14.088
 7052SOL    HW122930  13.715  12.911  14.054
 7052SOL    HW222931  13.616  12.898  14.168
 7053SOL     OW22932  10.618   7.199   7.866
 7053SOL    HW122933  10.713   7.213   7.860
 7053SOL    HW222934  10.592   7.249   7.943
 7054SOL     OW22935   3.918  13.487   9.294
 7054SOL    HW122936   3.881  13.416   9.347
 7054SOL    HW222937   4.009  13.492   9.323
 7055SOL     OW22938  14.165  14.701  11.528
 7055SOL    HW122939  14.098  14.761  11.562
 7055SOL    HW222940  14.172  14.633  11.595
 7056SOL     OW22941   8.655   4.066   4.412
 7056SOL    HW122942   8.722   4.000   4.429
 7056SOL    HW222943   8.629   4.050   4.322
 7057SOL     OW22944   2.761  11.992   7.970
 7057SOL    HW122945   2.704  12.053   8.017
 7057SOL    HW222946   2.833  12.046   7.938
 7058SOL     OW22947   3.139   3.994  11.268
 7058SOL    HW122948   3.085   3.967  11.194
 7058SOL    HW222949   3.100   3.951  11.344
 7059SOL     OW22950  12.978  13.211   1.208
 7059SOL    HW122951  12.907  13.261   1.169
 7059SOL    HW222952  13.042  13.276   1.236
 7060SOL     OW22953   1.199   3.489  11.157
 7060SOL    HW122954   1.243   3.571  11.133
 7060SOL    HW222955   1.148   3.466  11.079
 7061SOL     OW22956   6.650  11.738  11.608
 7061SOL    HW122957   6.599  11.658  11.617
 7061SOL    HW222958   6.741  11.710  11.618
 7062SOL     OW22959  13.183   7.714   9.630
 7062SOL    HW122960  13.276   7.734   9.642
 7062SOL    HW222961  13.159   7.662   9.707
 7063SOL     OW22962   2.329   3.194   0.190
 7063SOL    HW122963   2.423   3.204   0.208
 7063SOL    HW222964   2.286   3.251   0.253
 7064SOL     OW22965  12.270  13.089   1.065
 7064SOL    HW122966  12.179  13.087   1.094
 7064SOL    HW222967  12.313  13.148   1.128
 7065SOL     OW22968   4.771   7.673   2.123
 7065SOL    HW122969   4.818   7.747   2.163
 7065SOL    HW222970   4.679   7.691   2.141
 7066SOL     OW22971  12.806   0.539  10.251
 7066SOL    HW122972  12.836   0.523  10.161
 7066SOL    HW222973  12.836   0.462  10.300
 7067SOL     OW22974   2.317   3.686   4.427
 7067SOL    HW122975   2.300   3.712   4.337
 7067SOL    HW222976   2.238   3.639   4.454
 7068SOL     OW22977   1.021   0.046   8.126
 7068SOL    HW122978   0.974   0.031   8.044
 7068SOL    HW222979   1.090   0.108   8.103
 7069SOL     OW22980   9.365  14.864  11.573
 7069SOL    HW122981   9.300  14.808  11.529
 7069SOL    HW222982   9.418   0.022  11.501
 7070SOL     OW22983   7.086   1.616  11.457
 7070SOL    HW122984   7.075   1.527  11.424
 7070SOL    HW222985   7.005   1.633  11.506
 7071SOL     OW22986   7.015  14.327  13.801
 7071SOL    HW122987   7.077  14.289  13.864
 7071SOL    HW222988   7.034  14.421  13.803
 7072SOL     OW22989   2.060   0.662   0.367
 7072SOL    HW122990   2.086   0.572   0.347
 7072SOL    HW222991   2.072   0.709   0.284
 7073SOL     OW22992  14.712  11.547  13.838
 7073SOL    HW122993  14.659  11.570  13.762
 7073SOL    HW222994  14.802  11.569  13.813
 7074SOL     OW22995  10.687   6.100   1.143
 7074SOL    HW122996  10.619   6.057   1.196
 7074SOL    HW222997  10.640   6.131   1.065
 7075SOL     OW22998   9.145   9.174   5.537
 7075SOL    HW122999   9.177   9.093   5.499
 7075SOL    HW223000   9.184   9.178   5.624
 7076SOL     OW23001  14.143   2.584  14.806
 7076SOL    HW123002  14.068   2.533  14.775
 7076SOL    HW223003  14.116   2.675  14.795
 7077SOL     OW23004  13.983  10.190   1.153
 7077SOL    HW123005  14.045  10.153   1.090
 7077SOL    HW223006  14.025  10.271   1.182
 7078SOL     OW23007   2.517  10.358  13.871
 7078SOL    HW123008   2.530  10.266  13.895
 7078SOL    HW223009   2.552  10.407  13.945
 7079SOL     OW23010   8.228   9.519   9.987
 7079SOL    HW123011   8.278   9.530   9.907
 7079SOL    HW223012   8.168   9.593   9.988
 7080SOL     OW23013   9.626  12.454   7.442
 7080SOL    HW123014   9.563  12.497   7.499
 7080SOL    HW223015   9.628  12.364   7.473
 7081SOL     OW23016  12.572   6.018   3.738
 7081SOL    HW123017  12.612   5.962   3.804
 7081SOL    HW223018  12.479   5.999   3.743
 7082SOL     OW23019   6.110  13.076   5.687
 7082SOL    HW123020   6.040  13.029   5.641
 7082SOL    HW223021   6.157  13.124   5.618
 7083SOL     OW23022   2.793  13.463  13.262
 7083SOL    HW123023   2.773  13.386  13.315
 7083SOL    HW223024   2.863  13.508  13.310
 7084SOL     OW23025  10.579   6.025   4.243
 7084SOL    HW123026  10.633   6.086   4.293
 7084SOL    HW223027  10.597   5.940   4.283
 7085SOL     OW23028   8.491   7.360   4.257
 7085SOL    HW123029   8.438   7.287   4.290
 7085SOL    HW223030   8.472   7.363   4.163
 7086SOL     OW23031  10.996  13.996  11.812
 7086SOL    HW123032  11.026  14.064  11.873
 7086SOL    HW223033  11.064  13.930  11.814
 7087SOL     OW23034  13.449   4.082   2.635
 7087SOL    HW123035  13.400   4.148   2.685
 7087SOL    HW223036  13.532   4.073   2.682
 7088SOL     OW23037   9.849   3.258   4.495
 7088SOL    HW123038   9.869   3.194   4.563
 7088SOL    HW223039   9.933   3.297   4.472
 7089SOL     OW23040  14.717   3.195   0.711
 7089SOL    HW123041  14.753   3.262   0.652
 7089SOL    HW223042  14.794   3.156   0.753
 7090SOL     OW23043  11.692  11.771  14.548
 7090SOL    HW123044  11.782  11.751  14.574
 7090SOL    HW223045  11.701  11.816  14.463
 7091SOL     OW23046   6.666   0.065   5.214
 7091SOL    HW123047   6.709   0.109   5.141
 7091SOL    HW223048   6.650  14.853   5.182
 7092SOL     OW23049   6.798   3.605   1.742
 7092SOL    HW123050   6.810   3.563   1.657
 7092SOL    HW223051   6.796   3.698   1.723
 7093SOL     OW23052   3.095   9.889   4.471
 7093SOL    HW123053   3.065   9.828   4.538
 7093SOL    HW223054   3.058   9.855   4.390
 7094SOL     OW23055   5.717   3.351   3.894
 7094SOL    HW123056   5.811   3.368   3.898
 7094SOL    HW223057   5.685   3.378   3.980
 7095SOL     OW23058  11.026   4.400   2.017
 7095SOL    HW123059  11.002   4.319   1.973
 7095SOL    HW223060  11.031   4.376   2.110
 7096SOL     OW23061   8.921   4.988   0.691
 7096SOL    HW123062   9.015   4.967   0.696
 7096SOL    HW223063   8.905   5.005   0.598
 7097SOL     OW23064  12.339  13.572  11.572
 7097SOL    HW123065  12.381  13.634  11.631
 7097SOL    HW223066  12.249  13.604  11.564
 7098SOL     OW23067  14.566  13.662   2.854
 7098SOL    HW123068  14.611  13.579   2.838
 7098SOL    HW223069  14.519  13.647   2.936
 7099SOL     OW23070  13.244   7.667   6.792
 7099SOL    HW123071  13.175   7.711   6.743
 7099SOL    HW223072  13.276   7.599   6.733
 7100SOL     OW23073   8.594   9.663   4.360
 7100SOL    HW123074   8.606   9.621   4.446
 7100SOL    HW223075   8.581   9.756   4.380
 7101SOL     OW23076   0.326   1.231   1.888
 7101SOL    HW123077   0.231   1.239   1.883
 7101SOL    HW223078   0.350   1.276   1.969
 7102SOL     OW23079  13.637  11.307   1.304
 7102SOL    HW123080  13.711  11.345   1.351
 7102SOL    HW223081  13.583  11.268   1.373
 7103SOL     OW23082   4.258   7.842  11.196
 7103SOL    HW123083   4.255   7.747  11.186
 7103SOL    HW223084   4.343   7.859  11.238
 7104SOL     OW23085   4.954   9.125  14.630
 7104SOL    HW123086   4.899   9.193  14.669
 7104SOL    HW223087   4.893   9.068  14.583
 7105SOL     OW23088  11.314   1.123   6.969
 7105SOL    HW123089  11.301   1.133   7.063
 7105SOL    HW223090  11.378   1.191   6.946
 7106SOL     OW23091  10.579   2.951   2.781
 7106SOL    HW123092  10.562   2.905   2.863
 7106SOL    HW223093  10.543   3.039   2.795
 7107SOL     OW23094   7.692  14.312   6.059
 7107SOL    HW123095   7.763  14.349   6.112
 7107SOL    HW223096   7.700  14.218   6.071
 7108SOL     OW23097   8.749   9.464   0.641
 7108SOL    HW123098   8.707   9.474   0.555
 7108SOL    HW223099   8.764   9.554   0.670
 7109SOL     OW23100   3.365   3.519  14.170
 7109SOL    HW123101   3.330   3.500  14.257
 7109SOL    HW223102   3.288   3.539  14.117
 7110SOL     OW23103   0.933   8.941   7.877
 7110SOL    HW123104   0.855   8.893   7.848
 7110SOL    HW223105   0.977   8.882   7.938
 7111SOL     OW23106   4.151   7.834   3.050
 7111SOL    HW123107   4.197   7.756   3.016
 7111SOL    HW223108   4.068   7.800   3.082
 7112SOL     OW23109   0.527  10.846   2.632
 7112SOL    HW123110   0.513  10.938   2.652
 7112SOL    HW223111   0.457  10.824   2.571
 7113SOL     OW23112   4.052   1.118   0.750
 7113SOL    HW123113   4.010   1.048   0.800
 7113SOL    HW223114   4.036   1.096   0.658
 7114SOL     OW23115  10.518  10.864   8.636
 7114SOL    HW123116  10.599  10.814   8.635
 7114SOL    HW223117  10.504  10.884   8.729
 7115SOL     OW23118   0.205   1.773   3.122
 7115SOL    HW123119   0.217   1.868   3.123
 7115SOL    HW223120   0.293   1.738   3.113
 7116SOL     OW23121  11.072   5.615  12.688
 7116SOL    HW123122  11.165   5.596  12.699
 7116SOL    HW223123  11.036   5.609  12.777
 7117SOL     OW23124  11.093   7.826   0.280
 7117SOL    HW123125  11.124   7.758   0.340
 7117SOL    HW223126  11.089   7.906   0.333
 7118SOL     OW23127  12.098   5.033   7.122
 7118SOL    HW123128  12.189   5.017   7.098
 7118SOL    HW223129  12.051   4.957   7.087
 7119SOL     OW23130  11.561   7.905   0.093
 7119SOL    HW123131  11.578   7.986   0.141
 7119SOL    HW223132  11.627   7.903   0.024
 7120SOL     OW23133  12.454   7.747   6.240
 7120SOL    HW123134  12.532   7.778   6.195
 7120SOL    HW223135  12.412   7.688   6.177
 7121SOL     OW23136   5.227  11.878   6.923
 7121SOL    HW123137   5.166  11.952   6.926
 7121SOL    HW223138   5.171  11.801   6.927
 7122SOL     OW23139   2.537  12.790   8.758
 7122SOL    HW123140   2.527  12.882   8.735
 7122SOL    HW223141   2.502  12.742   8.683
 7123SOL     OW23142   2.662  14.275   7.733
 7123SOL    HW123143   2.745  14.265   7.686
 7123SOL    HW223144   2.612  14.338   7.681
 7124SOL     OW23145  12.352   9.752   7.734
 7124SOL    HW123146  12.360   9.846   7.723
 7124SOL    HW223147  12.297   9.741   7.812
 7125SOL     OW23148  13.897   0.536   2.803
 7125SOL    HW123149  13.865   0.470   2.864
 7125SOL    HW223150  13.840   0.528   2.726
 7126SOL     OW23151   3.782  10.616  13.989
 7126SOL    HW123152   3.735  10.673  14.049
 7126SOL    HW223153   3.718  10.550  13.964
 7127SOL     OW23154   9.186   7.224  13.090
 7127SOL    HW123155   9.250   7.277  13.137
 7127SOL    HW223156   9.104   7.274  13.095
 7128SOL     OW23157   0.818   9.831   6.379
 7128SOL    HW123158   0.824   9.901   6.445
 7128SOL    HW223159   0.817   9.878   6.295
 7129SOL     OW23160  13.965  13.517   8.776
 7129SOL    HW123161  13.956  13.550   8.687
 7129SOL    HW223162  13.875  13.513   8.809
 7130SOL     OW23163   0.672  10.013  10.401
 7130SOL    HW123164   0.619  10.070  10.457
 7130SOL    HW223165   0.612   9.981  10.335
 7131SOL     OW23166   3.272  10.147   8.738
 7131SOL    HW123167   3.291  10.237   8.709
 7131SOL    HW223168   3.350  10.097   8.713
 7132SOL     OW23169   4.982   3.661   0.258
 7132SOL    HW123170   4.932   3.587   0.223
 7132SOL    HW223171   5.066   3.657   0.213
 7133SOL     OW23172   4.348  14.425   5.004
 7133SOL    HW123173   4.390  14.371   5.071
 7133SOL    HW223174   4.378  14.388   4.921
 7134SOL     OW23175   9.778   0.934   9.198
 7134SOL    HW123176   9.818   1.000   9.255
 7134SOL    HW223177   9.837   0.859   9.203
 7135SOL     OW23178  10.639  12.977  12.871
 7135SOL    HW123179  10.588  12.897  12.888
 7135SOL    HW223180  10.619  13.034  12.946
 7136SOL     OW23181   9.381  10.815   2.755
 7136SOL    HW123182   9.329  10.896   2.755
 7136SOL    HW223183   9.408  10.803   2.846
 7137SOL     OW23184   0.303  13.155  13.436
 7137SOL    HW123185   0.304  13.244  13.472
 7137SOL    HW223186   0.317  13.167  13.342
 7138SOL     OW23187   0.124   4.962  14.673
 7138SOL    HW123188   0.125   4.977  14.768
 7138SOL    HW223189   0.205   4.915  14.656
 7139SOL     OW23190   1.691   9.266   0.622
 7139SOL    HW123191   1.728   9.238   0.706
 7139SOL    HW223192   1.601   9.291   0.643
 7140SOL     OW23193   9.371   2.102   0.487
 7140SOL    HW123194   9.412   2.103   0.573
 7140SOL    HW223195   9.299   2.039   0.495
 7141SOL     OW23196   2.968   0.181  13.585
 7141SOL    HW123197   2.978   0.273  13.610
 7141SOL    HW223198   2.876   0.161  13.601
 7142SOL     OW23199   8.023  14.735   6.214
 7142SOL    HW123200   8.031  14.727   6.309
 7142SOL    HW223201   8.021  14.830   6.199
 7143SOL     OW23202   1.276   0.956   9.772
 7143SOL    HW123203   1.363   0.917   9.769
 7143SOL    HW223204   1.285   1.040   9.728
 7144SOL     OW23205  11.848   9.627   4.610
 7144SOL    HW123206  11.819   9.699   4.667
 7144SOL    HW223207  11.889   9.565   4.670
 7145SOL     OW23208   0.657   6.300   7.766
 7145SOL    HW123209   0.660   6.390   7.800
 7145SOL    HW223210   0.627   6.248   7.841
 7146SOL     OW23211  13.938   7.752  10.023
 7146SOL    HW123212  13.909   7.693   9.954
 7146SOL    HW223213  13.968   7.694  10.093
 7147SOL     OW23214  12.410  14.160   3.921
 7147SOL    HW123215  12.338  14.181   3.981
 7147SOL    HW223216  12.378  14.187   3.835
 7148SOL     OW23217   7.406  13.749   3.432
 7148SOL    HW123218   7.486  13.705   3.460
 7148SOL    HW223219   7.372  13.790   3.511
 7149SOL     OW23220   9.005   7.714   1.547
 7149SOL    HW123221   9.043   7.655   1.612
 7149SOL    HW223222   8.923   7.743   1.586
 7150SOL     OW23223   6.798   5.576   1.232
 7150SOL    HW123224   6.829   5.646   1.290
 7150SOL    HW223225   6.835   5.496   1.271
 7151SOL     OW23226   2.391  10.154  12.645
 7151SOL    HW123227   2.420  10.241  12.617
 7151SOL    HW223228   2.431  10.142  12.731
 7152SOL     OW23229  12.007  10.252   1.755
 7152SOL    HW123230  12.070  10.210   1.814
 7152SOL    HW223231  11.985  10.185   1.691
 7153SOL     OW23232   7.533   6.269  13.910
 7153SOL    HW123233   7.557   6.362  13.915
 7153SOL    HW223234   7.464   6.266  13.843
 7154SOL     OW23235   9.831  14.488   9.475
 7154SOL    HW123236   9.904  14.548   9.491
 7154SOL    HW223237   9.777  14.532   9.409
 7155SOL     OW23238  11.434   3.268   5.128
 7155SOL    HW123239  11.466   3.311   5.049
 7155SOL    HW223240  11.456   3.329   5.199
 7156SOL     OW23241   6.417   9.923   0.690
 7156SOL    HW123242   6.370   9.989   0.640
 7156SOL    HW223243   6.493   9.968   0.724
 7157SOL     OW23244  12.630  14.141  13.100
 7157SOL    HW123245  12.596  14.080  13.166
 7157SOL    HW223246  12.629  14.090  13.019
 7158SOL     OW23247   2.471   9.162  14.601
 7158SOL    HW123248   2.524   9.102  14.547
 7158SOL    HW223249   2.393   9.178  14.548
 7159SOL     OW23250   5.634   2.251  13.490
 7159SOL    HW123251   5.562   2.189  13.502
 7159SOL    HW223252   5.636   2.267  13.396
 7160SOL     OW23253   2.931  13.648   0.342
 7160SOL    HW123254   2.994  13.716   0.368
 7160SOL    HW223255   2.894  13.680   0.260
 7161SOL     OW23256  13.869   4.224   9.793
 7161SOL    HW123257  13.955   4.188   9.817
 7161SOL    HW223258  13.823   4.151   9.752
 7162SOL     OW23259  12.892  10.923  14.154
 7162SOL    HW123260  12.963  10.869  14.120
 7162SOL    HW223261  12.929  11.011  14.163
 7163SOL     OW23262   1.194   3.772  11.617
 7163SOL    HW123263   1.176   3.864  11.636
 7163SOL    HW223264   1.170   3.726  11.697
 7164SOL     OW23265   6.209   9.715   2.299
 7164SOL    HW123266   6.203   9.805   2.331
 7164SOL    HW223267   6.169   9.718   2.212
 7165SOL     OW23268   0.588  10.590  10.150
 7165SOL    HW123269   0.654  10.548  10.094
 7165SOL    HW223270   0.580  10.678  10.115
 7166SOL     OW23271   3.159   4.995  11.433
 7166SOL    HW123272   3.108   5.058  11.382
 7166SOL    HW223273   3.166   5.034  11.520
 7167SOL     OW23274   5.473   5.770   1.914
 7167SOL    HW123275   5.564   5.751   1.938
 7167SOL    HW223276   5.431   5.796   1.997
 7168SOL     OW23277  12.930   2.321   4.303
 7168SOL    HW123278  12.859   2.259   4.288
 7168SOL    HW223279  12.911   2.358   4.390
 7169SOL     OW23280  14.046   2.997  12.149
 7169SOL    HW123281  14.022   2.904  12.150
 7169SOL    HW223282  14.018   3.028  12.062
 7170SOL     OW23283   5.045   1.717   1.464
 7170SOL    HW123284   4.999   1.741   1.383
 7170SOL    HW223285   5.070   1.801   1.502
 7171SOL     OW23286  10.751   3.357   9.492
 7171SOL    HW123287  10.843   3.369   9.470
 7171SOL    HW223288  10.703   3.407   9.425
 7172SOL     OW23289   8.830   8.048   4.060
 7172SOL    HW123290   8.763   7.979   4.059
 7172SOL    HW223291   8.781   8.129   4.076
 7173SOL     OW23292   7.151  11.651  10.446
 7173SOL    HW123293   7.220  11.606  10.496
 7173SOL    HW223294   7.171  11.633  10.355
 7174SOL     OW23295   7.835   9.694   7.807
 7174SOL    HW123296   7.899   9.745   7.758
 7174SOL    HW223297   7.860   9.706   7.899
 7175SOL     OW23298   0.941   8.798  12.518
 7175SOL    HW123299   0.884   8.723  12.535
 7175SOL    HW223300   0.929   8.817  12.425
 7176SOL     OW23301  12.149   8.697   5.053
 7176SOL    HW123302  12.169   8.712   4.960
 7176SOL    HW223303  12.077   8.633   5.052
 7177SOL     OW23304   6.914  11.498   0.743
 7177SOL    HW123305   6.927  11.457   0.829
 7177SOL    HW223306   6.899  11.424   0.684
 7178SOL     OW23307   1.752  14.560   3.394
 7178SOL    HW123308   1.789  14.638   3.353
 7178SOL    HW223309   1.669  14.590   3.432
 7179SOL     OW23310   9.455  12.842   1.421
 7179SOL    HW123311   9.534  12.896   1.416
 7179SOL    HW223312   9.433  12.823   1.330
 7180SOL     OW23313   8.133   6.351   4.279
 7180SOL    HW123314   8.055   6.334   4.226
 7180SOL    HW223315   8.100   6.382   4.363
 7181SOL     OW23316   6.236  12.140   1.221
 7181SOL    HW123317   6.321  12.174   1.249
 7181SOL    HW223318   6.246  12.123   1.127
 7182SOL     OW23319   1.976   6.615  10.660
 7182SOL    HW123320   1.899   6.666  10.636
 7182SOL    HW223321   1.949   6.566  10.738
 7183SOL     OW23322  10.107  11.434   8.897
 7183SOL    HW123323  10.113  11.485   8.816
 7183SOL    HW223324  10.198  11.425   8.926
 7184SOL     OW23325   3.422   8.852   2.749
 7184SOL    HW123326   3.360   8.865   2.677
 7184SOL    HW223327   3.413   8.760   2.773
 7185SOL     OW23328   9.019   6.618   3.672
 7185SOL    HW123329   8.944   6.673   3.693
 7185SOL    HW223330   9.041   6.640   3.581
 7186SOL     OW23331  13.944   3.175  10.053
 7186SOL    HW123332  13.945   3.085  10.087
 7186SOL    HW223333  13.858   3.209  10.078
 7187SOL     OW23334   4.946   4.702   8.379
 7187SOL    HW123335   5.029   4.655   8.391
 7187SOL    HW223336   4.929   4.697   8.285
 7188SOL     OW23337  10.349   4.498   2.801
 7188SOL    HW123338  10.380   4.560   2.867
 7188SOL    HW223339  10.344   4.550   2.721
 7189SOL     OW23340   4.221  10.612   8.852
 7189SOL    HW123341   4.147  10.659   8.813
 7189SOL    HW223342   4.237  10.539   8.793
 7190SOL     OW23343   9.388  12.139  12.186
 7190SOL    HW123344   9.318  12.075  12.175
 7190SOL    HW223345   9.425  12.120  12.273
 7191SOL     OW23346   1.957  11.262  14.464
 7191SOL    HW123347   1.902  11.340  14.457
 7191SOL    HW223348   1.920  11.201  14.401
 7192SOL     OW23349   1.804   6.045   6.658
 7192SOL    HW123350   1.825   6.005   6.573
 7192SOL    HW223351   1.887   6.043   6.706
 7193SOL     OW23352  11.067  14.237   6.739
 7193SOL    HW123353  11.049  14.182   6.816
 7193SOL    HW223354  11.068  14.326   6.772
 7194SOL     OW23355   5.460   5.363   9.077
 7194SOL    HW123356   5.398   5.424   9.039
 7194SOL    HW223357   5.539   5.415   9.093
 7195SOL     OW23358   1.363  14.307   4.775
 7195SOL    HW123359   1.439  14.344   4.730
 7195SOL    HW223360   1.368  14.342   4.864
 7196SOL     OW23361  12.801   0.889   1.240
 7196SOL    HW123362  12.746   0.825   1.284
 7196SOL    HW223363  12.744   0.964   1.226
 7197SOL     OW23364  10.174  12.121   7.460
 7197SOL    HW123365  10.135  12.117   7.373
 7197SOL    HW223366  10.123  12.188   7.506
 7198SOL     OW23367   3.782  12.690  13.704
 7198SOL    HW123368   3.806  12.673  13.795
 7198SOL    HW223369   3.708  12.750  13.710
 7199SOL     OW23370  13.129   1.641   0.943
 7199SOL    HW123371  13.127   1.560   0.892
 7199SOL    HW223372  13.213   1.682   0.921
 7200SOL     OW23373   9.732   4.341  13.421
 7200SOL    HW123374   9.728   4.250  13.449
 7200SOL    HW223375   9.745   4.337  13.327
 7201SOL     OW23376   4.052  10.567   3.809
 7201SOL    HW123377   3.957  10.553   3.816
 7201SOL    HW223378   4.062  10.623   3.732
 7202SOL     OW23379   3.672   3.930   3.513
 7202SOL    HW123380   3.616   3.866   3.469
 7202SOL    HW223381   3.616   3.968   3.581
 7203SOL     OW23382   6.444  13.040   9.150
 7203SOL    HW123383   6.403  13.084   9.076
 7203SOL    HW223384   6.538  13.059   9.141
 7204SOL     OW23385   8.200  10.483   7.595
 7204SOL    HW123386   8.234  10.571   7.612
 7204SOL    HW223387   8.271  10.424   7.622
 7205SOL     OW23388   0.026  12.976   3.856
 7205SOL    HW123389  14.840  12.905   3.862
 7205SOL    HW223390   0.111  12.932   3.856
 7206SOL     OW23391   0.014  10.851  14.481
 7206SOL    HW123392   0.021  10.904  14.561
 7206SOL    HW223393   0.102  10.814  14.469
 7207SOL     OW23394   9.629   3.524  12.659
 7207SOL    HW123395   9.684   3.594  12.624
 7207SOL    HW223396   9.681   3.486  12.730
 7208SOL     OW23397   3.375   8.879   4.204
 7208SOL    HW123398   3.300   8.927   4.240
 7208SOL    HW223399   3.405   8.934   4.131
 7209SOL     OW23400  12.347   3.410   1.358
 7209SOL    HW123401  12.288   3.433   1.287
 7209SOL    HW223402  12.432   3.448   1.333
 7210SOL     OW23403  14.350   9.196   1.571
 7210SOL    HW123404  14.280   9.176   1.634
 7210SOL    HW223405  14.358   9.291   1.573
 7211SOL     OW23406   8.685  10.690   6.512
 7211SOL    HW123407   8.609  10.738   6.479
 7211SOL    HW223408   8.752  10.700   6.444
 7212SOL     OW23409   7.844   7.149   8.674
 7212SOL    HW123410   7.783   7.180   8.606
 7212SOL    HW223411   7.788   7.115   8.743
 7213SOL     OW23412  10.801  12.391  13.213
 7213SOL    HW123413  10.720  12.389  13.265
 7213SOL    HW223414  10.808  12.483  13.184
 7214SOL     OW23415   5.212   4.315  14.134
 7214SOL    HW123416   5.242   4.405  14.122
 7214SOL    HW223417   5.286   4.270  14.175
 7215SOL     OW23418   7.369   6.031  11.548
 7215SOL    HW123419   7.415   5.974  11.486
 7215SOL    HW223420   7.331   5.971  11.612
 7216SOL     OW23421   6.546   5.393  13.023
 7216SOL    HW123422   6.595   5.404  12.941
 7216SOL    HW223423   6.524   5.300  13.026
 7217SOL     OW23424   1.560   7.366   1.906
 7217SOL    HW123425   1.490   7.359   1.842
 7217SOL    HW223426   1.607   7.445   1.881
 7218SOL     OW23427   2.940   1.870  12.292
 7218SOL    HW123428   2.974   1.851  12.379
 7218SOL    HW223429   2.886   1.794  12.271
 7219SOL     OW23430  10.824   5.415   2.116
 7219SOL    HW123431  10.824   5.450   2.206
 7219SOL    HW223432  10.774   5.334   2.122
 7220SOL     OW23433   2.076   9.840   5.328
 7220SOL    HW123434   2.004   9.805   5.381
 7220SOL    HW223435   2.037   9.855   5.242
 7221SOL     OW23436  13.623   9.025  13.021
 7221SOL    HW123437  13.697   8.972  12.990
 7221SOL    HW223438  13.601   9.081  12.947
 7222SOL     OW23439   1.644   9.193   9.454
 7222SOL    HW123440   1.677   9.282   9.456
 7222SOL    HW223441   1.570   9.193   9.515
 7223SOL     OW23442  10.665   6.278   6.828
 7223SOL    HW123443  10.716   6.345   6.873
 7223SOL    HW223444  10.721   6.200   6.832
 7224SOL     OW23445   6.940  12.029   0.478
 7224SOL    HW123446   6.961  12.000   0.389
 7224SOL    HW223447   6.888  11.958   0.515
 7225SOL     OW23448  14.443  13.420  12.965
 7225SOL    HW123449  14.353  13.452  12.978
 7225SOL    HW223450  14.465  13.448  12.876
 7226SOL     OW23451  11.375   3.029  14.661
 7226SOL    HW123452  11.322   3.034  14.581
 7226SOL    HW223453  11.327   2.971  14.719
 7227SOL     OW23454   9.975   3.586  11.566
 7227SOL    HW123455   9.992   3.680  11.574
 7227SOL    HW223456   9.900   3.580  11.507
 7228SOL     OW23457  14.685   3.538   4.455
 7228SOL    HW123458  14.725   3.532   4.542
 7228SOL    HW223459  14.704   3.627   4.426
 7229SOL     OW23460   3.584   0.586   3.588
 7229SOL    HW123461   3.563   0.674   3.558
 7229SOL    HW223462   3.679   0.582   3.586
 7230SOL     OW23463   0.033   0.626   5.151
 7230SOL    HW123464  14.872   0.642   5.237
 7230SOL    HW223465   0.047   0.713   5.114
 7231SOL     OW23466  13.150   2.582  13.881
 7231SOL    HW123467  13.204   2.653  13.846
 7231SOL    HW223468  13.200   2.503  13.863
 7232SOL     OW23469   6.636   4.127  13.968
 7232SOL    HW123470   6.661   4.176  14.046
 7232SOL    HW223471   6.542   4.142  13.958
 7233SOL     OW23472   6.188  11.784   1.642
 7233SOL    HW123473   6.092  11.787   1.641
 7233SOL    HW223474   6.212  11.802   1.733
 7234SOL     OW23475   7.105  13.276   4.432
 7234SOL    HW123476   7.060  13.325   4.501
 7234SOL    HW223477   7.116  13.188   4.468
 7235SOL     OW23478  12.269   2.552   7.820
 7235SOL    HW123479  12.246   2.470   7.776
 7235SOL    HW223480  12.318   2.523   7.898
 7236SOL     OW23481  12.863  11.154  12.225
 7236SOL    HW123482  12.863  11.087  12.293
 7236SOL    HW223483  12.837  11.108  12.145
 7237SOL     OW23484   7.554   2.293   1.616
 7237SOL    HW123485   7.538   2.200   1.596
 7237SOL    HW223486   7.539   2.338   1.533
 7238SOL     OW23487  13.657  10.616   6.331
 7238SOL    HW123488  13.737  10.612   6.383
 7238SOL    HW223489  13.586  10.606   6.394
 7239SOL     OW23490   9.969   9.288  11.508
 7239SOL    HW123491   9.926   9.312  11.589
 7239SOL    HW223492  10.025   9.213  11.531
 7240SOL     OW23493  12.340   4.891   2.350
 7240SOL    HW123494  12.417   4.947   2.359
 7240SOL    HW223495  12.367   4.823   2.288
 7241SOL     OW23496   0.303   6.559  12.705
 7241SOL    HW123497   0.346   6.644  12.716
 7241SOL    HW223498   0.210   6.580  12.693
 7242SOL     OW23499   9.688   6.190   1.832
 7242SOL    HW123500   9.630   6.184   1.908
 7242SOL    HW223501   9.776   6.190   1.870
 7243SOL     OW23502   5.692   1.571   4.346
 7243SOL    HW123503   5.734   1.494   4.384
 7243SOL    HW223504   5.637   1.605   4.416
 7244SOL     OW23505   7.974   6.423   1.122
 7244SOL    HW123506   8.056   6.385   1.153
 7244SOL    HW223507   7.963   6.388   1.033
 7245SOL     OW23508   3.130   5.455   7.705
 7245SOL    HW123509   3.154   5.542   7.674
 7245SOL    HW223510   3.209   5.402   7.694
 7246SOL     OW23511  13.559   7.608   2.177
 7246SOL    HW123512  13.549   7.615   2.082
 7246SOL    HW223513  13.652   7.622   2.193
 7247SOL     OW23514   6.942   1.462  10.701
 7247SOL    HW123515   7.017   1.454  10.642
 7247SOL    HW223516   6.978   1.505  10.779
 7248SOL     OW23517  11.556   7.201   1.633
 7248SOL    HW123518  11.540   7.177   1.542
 7248SOL    HW223519  11.495   7.147   1.683
 7249SOL     OW23520   8.704   4.944   9.799
 7249SOL    HW123521   8.692   4.850   9.784
 7249SOL    HW223522   8.791   4.952   9.839
 7250SOL     OW23523   0.191  10.027   1.909
 7250SOL    HW123524   0.132  10.073   1.968
 7250SOL    HW223525   0.264   9.998   1.965
 7251SOL     OW23526  14.607  12.352   9.183
 7251SOL    HW123527  14.581  12.429   9.234
 7251SOL    HW223528  14.542  12.348   9.113
 7252SOL     OW23529  13.094   9.113   2.625
 7252SOL    HW123530  13.131   9.200   2.615
 7252SOL    HW223531  13.165   9.053   2.599
 7253SOL     OW23532   9.665  14.806   6.597
 7253SOL    HW123533   9.704  14.832   6.680
 7253SOL    HW223534   9.578  14.774   6.621
 7254SOL     OW23535  10.414  14.511  13.244
 7254SOL    HW123536  10.396  14.456  13.167
 7254SOL    HW223537  10.501  14.485  13.272
 7255SOL     OW23538  10.196  11.528  12.170
 7255SOL    HW123539  10.223  11.471  12.098
 7255SOL    HW223540  10.124  11.580  12.134
 7256SOL     OW23541   9.908  10.932   9.646
 7256SOL    HW123542   9.986  10.883   9.673
 7256SOL    HW223543   9.896  10.910   9.554
 7257SOL     OW23544   2.820   3.645   9.449
 7257SOL    HW123545   2.876   3.584   9.496
 7257SOL    HW223546   2.764   3.589   9.395
 7258SOL     OW23547   0.787  12.102   9.846
 7258SOL    HW123548   0.736  12.054   9.780
 7258SOL    HW223549   0.826  12.174   9.798
 7259SOL     OW23550  13.931   0.633   1.527
 7259SOL    HW123551  13.877   0.679   1.591
 7259SOL    HW223552  13.898   0.543   1.527
 7260SOL     OW23553   1.286  14.618   1.369
 7260SOL    HW123554   1.257  14.668   1.292
 7260SOL    HW223555   1.380  14.634   1.373
 7261SOL     OW23556   3.103   5.067   0.230
 7261SOL    HW123557   3.143   5.153   0.240
 7261SOL    HW223558   3.009   5.082   0.238
 7262SOL     OW23559   3.894   7.392   0.466
 7262SOL    HW123560   3.983   7.374   0.434
 7262SOL    HW223561   3.908   7.437   0.549
 7263SOL     OW23562   8.221   3.151   2.263
 7263SOL    HW123563   8.281   3.110   2.325
 7263SOL    HW223564   8.277   3.192   2.197
 7264SOL     OW23565   6.309   0.606  12.224
 7264SOL    HW123566   6.223   0.632  12.194
 7264SOL    HW223567   6.368   0.631  12.153
 7265SOL     OW23568  11.949  10.166   3.261
 7265SOL    HW123569  12.035  10.124   3.266
 7265SOL    HW223570  11.906  10.122   3.188
 7266SOL     OW23571  12.815   4.063   3.120
 7266SOL    HW123572  12.801   4.101   3.033
 7266SOL    HW223573  12.846   3.974   3.102
 7267SOL     OW23574   0.011   8.204  11.762
 7267SOL    HW123575  14.799   8.171  11.775
 7267SOL    HW223576   0.006   8.255  11.681
 7268SOL     OW23577  12.108   1.491  11.544
 7268SOL    HW123578  12.185   1.545  11.525
 7268SOL    HW223579  12.142   1.402  11.545
 7269SOL     OW23580   3.207  13.581   1.407
 7269SOL    HW123581   3.138  13.618   1.462
 7269SOL    HW223582   3.163  13.512   1.357
 7270SOL     OW23583   2.437   7.533   5.397
 7270SOL    HW123584   2.458   7.496   5.482
 7270SOL    HW223585   2.482   7.476   5.334
 7271SOL     OW23586  12.179   1.452   4.835
 7271SOL    HW123587  12.242   1.387   4.802
 7271SOL    HW223588  12.118   1.401   4.889
 7272SOL     OW23589  12.149   9.080   6.682
 7272SOL    HW123590  12.091   9.155   6.691
 7272SOL    HW223591  12.224   9.113   6.631
 7273SOL     OW23592   0.493   8.849  10.608
 7273SOL    HW123593   0.527   8.759  10.604
 7273SOL    HW223594   0.531   8.885  10.688
 7274SOL     OW23595   7.344  11.720  10.706
 7274SOL    HW123596   7.331  11.657  10.776
 7274SOL    HW223597   7.321  11.805  10.745
 7275SOL     OW23598  13.056  10.863   0.237
 7275SOL    HW123599  13.090  10.775   0.227
 7275SOL    HW223600  12.962  10.855   0.220
 7276SOL     OW23601  12.808  12.546   0.539
 7276SOL    HW123602  12.826  12.626   0.490
 7276SOL    HW223603  12.890  12.525   0.583
 7277SOL     OW23604  10.450   9.357  12.842
 7277SOL    HW123605  10.413   9.294  12.904
 7277SOL    HW223606  10.545   9.343  12.847
 7278SOL     OW23607   2.413  10.625  10.876
 7278SOL    HW123608   2.416  10.539  10.835
 7278SOL    HW223609   2.417  10.686  10.803
 7279SOL     OW23610   4.689   2.243   0.313
 7279SOL    HW123611   4.617   2.305   0.320
 7279SOL    HW223612   4.719   2.230   0.403
 7280SOL     OW23613  13.687   0.731   1.657
 7280SOL    HW123614  13.630   0.679   1.713
 7280SOL    HW223615  13.647   0.818   1.654
 7281SOL     OW23616  10.416  11.403   8.353
 7281SOL    HW123617  10.480  11.401   8.282
 7281SOL    HW223618  10.468  11.399   8.433
 7282SOL     OW23619  14.745   7.464   8.420
 7282SOL    HW123620  14.753   7.555   8.392
 7282SOL    HW223621  14.704   7.420   8.346
 7283SOL     OW23622  13.909   2.934   6.353
 7283SOL    HW123623  13.849   3.008   6.352
 7283SOL    HW223624  13.938   2.925   6.262
 7284SOL     OW23625   3.154   7.668   5.133
 7284SOL    HW123626   3.228   7.652   5.192
 7284SOL    HW223627   3.175   7.750   5.089
 7285SOL     OW23628   6.273   6.479   6.674
 7285SOL    HW123629   6.254   6.560   6.721
 7285SOL    HW223630   6.210   6.478   6.601
 7286SOL     OW23631   7.281   7.354  13.847
 7286SOL    HW123632   7.263   7.281  13.906
 7286SOL    HW223633   7.344   7.320  13.784
 7287SOL     OW23634   4.385   1.253  11.660
 7287SOL    HW123635   4.479   1.242  11.652
 7287SOL    HW223636   4.354   1.169  11.692
 7288SOL     OW23637   6.627   0.727   1.076
 7288SOL    HW123638   6.614   0.802   1.018
 7288SOL    HW223639   6.593   0.756   1.161
 7289SOL     OW23640  11.747  10.170  11.826
 7289SOL    HW123641  11.772  10.254  11.787
 7289SOL    HW223642  11.803  10.105  11.781
 7290SOL     OW23643   2.045   3.534  11.612
 7290SOL    HW123644   2.058   3.607  11.552
 7290SOL    HW223645   2.127   3.526  11.660
 7291SOL     OW23646   0.332   9.529   2.988
 7291SOL    HW123647   0.366   9.477   2.915
 7291SOL    HW223648   0.239   9.540   2.968
 7292SOL     OW23649   8.704   2.379  10.217
 7292SOL    HW123650   8.652   2.424  10.284
 7292SOL    HW223651   8.640   2.353  10.151
 7293SOL     OW23652   5.183   0.702   8.365
 7293SOL    HW123653   5.112   0.672   8.308
 7293SOL    HW223654   5.157   0.791   8.391
 7294SOL     OW23655  10.612  12.113  14.600
 7294SOL    HW123656  10.594  12.199  14.562
 7294SOL    HW223657  10.531  12.090  14.646
 7295SOL     OW23658  14.696   7.174   4.508
 7295SOL    HW123659  14.766   7.223   4.466
 7295SOL    HW223660  14.656   7.236   4.569
 7296SOL     OW23661   9.310  12.205  12.866
 7296SOL    HW123662   9.261  12.123  12.869
 7296SOL    HW223663   9.348  12.213  12.954
 7297SOL     OW23664   4.872   6.384   4.213
 7297SOL    HW123665   4.953   6.419   4.250
 7297SOL    HW223666   4.897   6.348   4.128
 7298SOL     OW23667   7.841   2.340   2.214
 7298SOL    HW123668   7.816   2.303   2.130
 7298SOL    HW223669   7.916   2.396   2.194
 7299SOL     OW23670   4.360   2.309  11.494
 7299SOL    HW123671   4.391   2.282  11.408
 7299SOL    HW223672   4.266   2.322  11.484
 7300SOL     OW23673  14.211   1.137  10.399
 7300SOL    HW123674  14.167   1.053  10.385
 7300SOL    HW223675  14.177   1.167  10.484
 7301SOL     OW23676   7.943   9.341   5.564
 7301SOL    HW123677   7.986   9.279   5.505
 7301SOL    HW223678   8.015   9.389   5.605
 7302SOL     OW23679   7.116   2.861   1.230
 7302SOL    HW123680   7.021   2.856   1.241
 7302SOL    HW223681   7.140   2.777   1.192
 7303SOL     OW23682   2.198   2.825  13.811
 7303SOL    HW123683   2.209   2.776  13.729
 7303SOL    HW223684   2.287   2.839  13.843
 7304SOL     OW23685  13.967   9.305   3.120
 7304SOL    HW123686  13.901   9.244   3.086
 7304SOL    HW223687  13.934   9.329   3.207
 7305SOL     OW23688   7.946   1.668   9.175
 7305SOL    HW123689   7.972   1.677   9.083
 7305SOL    HW223690   7.851   1.670   9.173
 7306SOL     OW23691   3.786   0.660   0.506
 7306SOL    HW123692   3.749   0.578   0.473
 7306SOL    HW223693   3.717   0.724   0.493
 7307SOL     OW23694  11.981   4.340  11.040
 7307SOL    HW123695  11.991   4.251  11.073
 7307SOL    HW223696  11.958   4.329  10.947
 7308SOL     OW23697   8.804   0.070  11.124
 7308SOL    HW123698   8.890   0.031  11.114
 7308SOL    HW223699   8.794   0.082  11.219
 7309SOL     OW23700   5.586  14.729   4.674
 7309SOL    HW123701   5.649  14.675   4.626
 7309SOL    HW223702   5.591  14.698   4.764
 7310SOL     OW23703  14.543   8.437  10.717
 7310SOL    HW123704  14.569   8.516  10.764
 7310SOL    HW223705  14.448   8.430  10.732
 7311SOL     OW23706   1.172   6.903   1.168
 7311SOL    HW123707   1.260   6.879   1.139
 7311SOL    HW223708   1.179   6.910   1.263
 7312SOL     OW23709  12.185   3.246   8.935
 7312SOL    HW123710  12.170   3.184   8.864
 7312SOL    HW223711  12.239   3.198   8.998
 7313SOL     OW23712   8.054  14.346  10.648
 7313SOL    HW123713   8.024  14.256  10.643
 7313SOL    HW223714   7.974  14.399  10.651
 7314SOL     OW23715   3.546   9.636  11.621
 7314SOL    HW123716   3.504   9.569  11.567
 7314SOL    HW223717   3.503   9.718  11.596
 7315SOL     OW23718  12.458  13.604   1.656
 7315SOL    HW123719  12.383  13.558   1.694
 7315SOL    HW223720  12.420  13.666   1.594
 7316SOL     OW23721   8.867  13.508  14.811
 7316SOL    HW123722   8.814  13.555  14.748
 7316SOL    HW223723   8.804  13.474  14.875
 7317SOL     OW23724   1.789  13.830   1.862
 7317SOL    HW123725   1.700  13.797   1.876
 7317SOL    HW223726   1.843  13.751   1.861
 7318SOL     OW23727  13.155  10.764   3.767
 7318SOL    HW123728  13.175  10.744   3.858
 7318SOL    HW223729  13.194  10.850   3.752
 7319SOL     OW23730  12.923  10.950  10.170
 7319SOL    HW123731  12.852  10.935  10.107
 7319SOL    HW223732  12.888  10.918  10.253
 7320SOL     OW23733  10.208   7.501  11.816
 7320SOL    HW123734  10.134   7.516  11.875
 7320SOL    HW223735  10.208   7.406  11.801
 7321SOL     OW23736   4.979  14.591  14.649
 7321SOL    HW123737   5.039  14.635  14.710
 7321SOL    HW223738   5.007  14.620  14.563
 7322SOL     OW23739   9.198   0.641   3.898
 7322SOL    HW123740   9.133   0.578   3.929
 7322SOL    HW223741   9.221   0.692   3.976
 7323SOL     OW23742  12.155  14.179   4.908
 7323SOL    HW123743  12.142  14.119   4.835
 7323SOL    HW223744  12.239  14.222   4.890
 7324SOL     OW23745  10.966   2.737   7.783
 7324SOL    HW123746  10.904   2.782   7.841
 7324SOL    HW223747  10.981   2.653   7.825
 7325SOL     OW23748  12.467   3.496   5.777
 7325SOL    HW123749  12.492   3.585   5.801
 7325SOL    HW223750  12.429   3.460   5.857
 7326SOL     OW23751   4.905   1.659   2.649
 7326SOL    HW123752   4.849   1.730   2.617
 7326SOL    HW223753   4.935   1.614   2.569
 7327SOL     OW23754  13.810  10.800  13.953
 7327SOL    HW123755  13.780  10.832  14.038
 7327SOL    HW223756  13.749  10.840  13.890
 7328SOL     OW23757   0.310   0.327  13.668
 7328SOL    HW123758   0.358   0.290  13.594
 7328SOL    HW223759   0.273   0.250  13.712
 7329SOL     OW23760   4.724  14.772   9.065
 7329SOL    HW123761   4.649  14.822   9.034
 7329SOL    HW223762   4.787  14.838   9.094
 7330SOL     OW23763   3.455   7.018   2.582
 7330SOL    HW123764   3.488   7.096   2.537
 7330SOL    HW223765   3.400   6.974   2.517
 7331SOL     OW23766   9.759   0.412   6.760
 7331SOL    HW123767   9.789   0.325   6.786
 7331SOL    HW223768   9.819   0.439   6.691
 7332SOL     OW23769  12.156  11.980   4.341
 7332SOL    HW123770  12.168  11.926   4.419
 7332SOL    HW223771  12.204  12.061   4.360
 7333SOL     OW23772   3.764   7.460  13.062
 7333SOL    HW123773   3.727   7.453  13.150
 7333SOL    HW223774   3.699   7.510  13.013
 7334SOL     OW23775   7.502   3.417   9.144
 7334SOL    HW123776   7.532   3.362   9.216
 7334SOL    HW223777   7.555   3.497   9.152
 7335SOL     OW23778   1.911   5.949   7.851
 7335SOL    HW123779   1.942   5.866   7.887
 7335SOL    HW223780   1.816   5.938   7.843
 7336SOL     OW23781   3.290   2.244   4.827
 7336SOL    HW123782   3.248   2.158   4.819
 7336SOL    HW223783   3.227   2.305   4.787
 7337SOL     OW23784  13.812   7.653   1.795
 7337SOL    HW123785  13.880   7.605   1.843
 7337SOL    HW223786  13.775   7.588   1.735
 7338SOL     OW23787   6.453   4.000  11.854
 7338SOL    HW123788   6.487   3.989  11.765
 7338SOL    HW223789   6.386   3.932  11.862
 7339SOL     OW23790   2.165  13.024   9.457
 7339SOL    HW123791   2.223  12.963   9.410
 7339SOL    HW223792   2.096  12.968   9.493
 7340SOL     OW23793   0.573  13.697   3.697
 7340SOL    HW123794   0.599  13.786   3.722
 7340SOL    HW223795   0.655  13.647   3.700
 7341SOL     OW23796   6.923   4.822   6.633
 7341SOL    HW123797   7.006   4.839   6.678
 7341SOL    HW223798   6.881   4.908   6.627
 7342SOL     OW23799   0.829   5.929   4.270
 7342SOL    HW123800   0.899   5.945   4.333
 7342SOL    HW223801   0.870   5.939   4.184
 7343SOL     OW23802   1.923   7.172   0.391
 7343SOL    HW123803   1.984   7.108   0.427
 7343SOL    HW223804   1.959   7.195   0.306
 7344SOL     OW23805  12.697   1.707   4.406
 7344SOL    HW123806  12.711   1.748   4.492
 7344SOL    HW223807  12.659   1.777   4.352
 7345SOL     OW23808  11.359   8.572   2.100
 7345SOL    HW123809  11.286   8.627   2.072
 7345SOL    HW223810  11.427   8.588   2.034
 7346SOL     OW23811   7.220   3.501  13.275
 7346SOL    HW123812   7.207   3.477  13.183
 7346SOL    HW223813   7.315   3.507  13.286
 7347SOL     OW23814   5.418   9.599  12.809
 7347SOL    HW123815   5.391   9.573  12.897
 7347SOL    HW223816   5.491   9.540  12.788
 7348SOL     OW23817  10.723  11.558  12.127
 7348SOL    HW123818  10.736  11.605  12.209
 7348SOL    HW223819  10.810  11.555  12.087
 7349SOL     OW23820   4.226   7.174  11.087
 7349SOL    HW123821   4.186   7.221  11.161
 7349SOL    HW223822   4.245   7.087  11.122
 7350SOL     OW23823   3.641  14.603  10.336
 7350SOL    HW123824   3.702  14.561  10.398
 7350SOL    HW223825   3.555  14.567  10.360
 7351SOL     OW23826   5.290   8.879  10.839
 7351SOL    HW123827   5.250   8.792  10.840
 7351SOL    HW223828   5.299   8.903  10.931
 7352SOL     OW23829   1.031   6.660  14.390
 7352SOL    HW123830   0.995   6.713  14.462
 7352SOL    HW223831   0.954   6.632  14.340
 7353SOL     OW23832  14.642   3.140  14.348
 7353SOL    HW123833  14.638   3.098  14.263
 7353SOL    HW223834  14.699   3.083  14.400
 7354SOL     OW23835   5.998   0.021  13.637
 7354SOL    HW123836   6.082   0.050  13.602
 7354SOL    HW223837   6.008  14.804  13.651
 7355SOL     OW23838   4.743   1.923   9.086
 7355SOL    HW123839   4.748   2.012   9.051
 7355SOL    HW223840   4.808   1.922   9.156
 7356SOL     OW23841  13.408  14.873   5.247
 7356SOL    HW123842  13.431  14.870   5.340
 7356SOL    HW223843  13.377   0.085   5.233
 7357SOL     OW23844  12.844   4.802  14.555
 7357SOL    HW123845  12.925   4.755  14.538
 7357SOL    HW223846  12.806   4.759  14.632
 7358SOL     OW23847  11.646  12.704   1.915
 7358SOL    HW123848  11.567  12.659   1.942
 7358SOL    HW223849  11.688  12.644   1.853
 7359SOL     OW23850  10.497   0.711   4.362
 7359SOL    HW123851  10.485   0.755   4.446
 7359SOL    HW223852  10.490   0.781   4.297
 7360SOL     OW23853   0.722   8.770   3.008
 7360SOL    HW123854   0.660   8.782   3.080
 7360SOL    HW223855   0.766   8.687   3.028
 7361SOL     OW23856   1.098  13.016   4.034
 7361SOL    HW123857   1.083  12.967   4.115
 7361SOL    HW223858   1.069  12.957   3.965
 7362SOL     OW23859  14.678   2.176   2.515
 7362SOL    HW123860  14.690   2.099   2.571
 7362SOL    HW223861  14.619   2.146   2.446
 7363SOL     OW23862   9.529   8.043   6.548
 7363SOL    HW123863   9.543   7.950   6.530
 7363SOL    HW223864   9.597   8.067   6.611
 7364SOL     OW23865   1.771   0.534   8.657
 7364SOL    HW123866   1.756   0.620   8.697
 7364SOL    HW223867   1.808   0.553   8.571
 7365SOL     OW23868  12.174   8.713   0.449
 7365SOL    HW123869  12.258   8.727   0.494
 7365SOL    HW223870  12.112   8.767   0.498
 7366SOL     OW23871   1.193   8.321   1.272
 7366SOL    HW123872   1.255   8.303   1.342
 7366SOL    HW223873   1.242   8.372   1.209
 7367SOL     OW23874  12.757   7.329  14.205
 7367SOL    HW123875  12.674   7.364  14.235
 7367SOL    HW223876  12.757   7.342  14.110
 7368SOL     OW23877  13.998   2.191   7.917
 7368SOL    HW123878  14.042   2.272   7.890
 7368SOL    HW223879  13.968   2.207   8.006
 7369SOL     OW23880   9.131  14.457   0.604
 7369SOL    HW123881   9.209  14.452   0.659
 7369SOL    HW223882   9.089  14.372   0.615
 7370SOL     OW23883   3.027   9.066  12.177
 7370SOL    HW123884   3.043   9.006  12.250
 7370SOL    HW223885   3.048   9.014  12.099
 7371SOL     OW23886  10.813  12.361   4.090
 7371SOL    HW123887  10.767  12.324   4.015
 7371SOL    HW223888  10.766  12.442   4.108
 7372SOL     OW23889   0.754  13.155   7.388
 7372SOL    HW123890   0.712  13.198   7.463
 7372SOL    HW223891   0.832  13.206   7.372
 7373SOL     OW23892  12.450   3.908   7.719
 7373SOL    HW123893  12.390   3.982   7.727
 7373SOL    HW223894  12.469   3.883   7.810
 7374SOL     OW23895   3.800   8.929   1.723
 7374SOL    HW123896   3.733   8.969   1.668
 7374SOL    HW223897   3.846   8.869   1.665
 7375SOL     OW23898   0.862   6.952   3.711
 7375SOL    HW123899   0.774   6.919   3.726
 7375SOL    HW223900   0.900   6.960   3.799
 7376SOL     OW23901   5.061   4.823  11.463
 7376SOL    HW123902   5.096   4.805  11.550
 7376SOL    HW223903   5.111   4.899  11.432
 7377SOL     OW23904   0.475   3.174   7.172
 7377SOL    HW123905   0.501   3.191   7.081
 7377SOL    HW223906   0.408   3.106   7.166
 7378SOL     OW23907   7.722  14.514   0.533
 7378SOL    HW123908   7.705  14.444   0.597
 7378SOL    HW223909   7.638  14.524   0.487
 7379SOL     OW23910  11.825   4.417   0.665
 7379SOL    HW123911  11.816   4.424   0.760
 7379SOL    HW223912  11.756   4.356   0.639
 7380SOL     OW23913   1.023   5.316   2.145
 7380SOL    HW123914   1.012   5.390   2.085
 7380SOL    HW223915   1.118   5.299   2.143
 7381SOL     OW23916   3.855   7.227   8.406
 7381SOL    HW123917   3.789   7.212   8.474
 7381SOL    HW223918   3.899   7.143   8.396
 7382SOL     OW23919   6.593   4.006   1.681
 7382SOL    HW123920   6.666   3.970   1.631
 7382SOL    HW223921   6.524   3.940   1.675
 7383SOL     OW23922   4.721   9.268   3.347
 7383SOL    HW123923   4.629   9.284   3.329
 7383SOL    HW223924   4.758   9.245   3.262
 7384SOL     OW23925   2.313  11.171   1.172
 7384SOL    HW123926   2.394  11.187   1.220
 7384SOL    HW223927   2.323  11.083   1.136
 7385SOL     OW23928   4.487   0.370   1.540
 7385SOL    HW123929   4.531   0.447   1.574
 7385SOL    HW223930   4.454   0.324   1.617
 7386SOL     OW23931   2.784  13.720  11.656
 7386SOL    HW123932   2.827  13.763  11.729
 7386SOL    HW223933   2.843  13.649  11.631
 7387SOL     OW23934   5.050   8.851   3.434
 7387SOL    HW123935   4.997   8.775   3.459
 7387SOL    HW223936   5.123   8.814   3.386
 7388SOL     OW23937   9.655   1.755   7.541
 7388SOL    HW123938   9.717   1.800   7.598
 7388SOL    HW223939   9.591   1.718   7.601
 7389SOL     OW23940   0.448  14.229   0.527
 7389SOL    HW123941   0.432  14.319   0.500
 7389SOL    HW223942   0.473  14.235   0.619
 7390SOL     OW23943   9.854   7.565   7.637
 7390SOL    HW123944   9.908   7.491   7.609
 7390SOL    HW223945   9.769   7.550   7.596
 7391SOL     OW23946   4.833   0.999   5.350
 7391SOL    HW123947   4.870   1.038   5.429
 7391SOL    HW223948   4.850   0.905   5.359
 7392SOL     OW23949  12.558   3.244  11.228
 7392SOL    HW123950  12.653   3.252  11.233
 7392SOL    HW223951  12.541   3.210  11.140
 7393SOL     OW23952   6.569   0.313  11.589
 7393SOL    HW123953   6.527   0.227  11.592
 7393SOL    HW223954   6.511   0.369  11.640
 7394SOL     OW23955  12.625   8.299   0.773
 7394SOL    HW123956  12.643   8.393   0.771
 7394SOL    HW223957  12.556   8.287   0.708
 7395SOL     OW23958   5.818   4.081   0.209
 7395SOL    HW123959   5.828   4.004   0.154
 7395SOL    HW223960   5.778   4.147   0.152
 7396SOL     OW23961   3.745   4.736   0.924
 7396SOL    HW123962   3.737   4.788   1.003
 7396SOL    HW223963   3.666   4.758   0.873
 7397SOL     OW23964  12.789   1.845   5.095
 7397SOL    HW123965  12.741   1.907   5.150
 7397SOL    HW223966  12.742   1.762   5.105
 7398SOL     OW23967   6.500  14.421   4.463
 7398SOL    HW123968   6.541  14.403   4.548
 7398SOL    HW223969   6.573  14.440   4.404
 7399SOL     OW23970   6.397   3.632   2.974
 7399SOL    HW123971   6.406   3.559   3.035
 7399SOL    HW223972   6.377   3.590   2.890
 7400SOL     OW23973   7.704  14.478   1.663
 7400SOL    HW123974   7.652  14.480   1.583
 7400SOL    HW223975   7.706  14.570   1.692
 7401SOL     OW23976   8.516   1.870   8.945
 7401SOL    HW123977   8.521   1.834   8.856
 7401SOL    HW223978   8.519   1.965   8.933
 7402SOL     OW23979  11.995  11.329   2.073
 7402SOL    HW123980  12.041  11.362   2.150
 7402SOL    HW223981  11.917  11.287   2.108
 7403SOL     OW23982   8.527  11.122   2.901
 7403SOL    HW123983   8.504  11.102   2.992
 7403SOL    HW223984   8.576  11.204   2.906
 7404SOL     OW23985   3.836  10.590   3.560
 7404SOL    HW123986   3.899  10.662   3.561
 7404SOL    HW223987   3.751  10.632   3.548
 7405SOL     OW23988   8.219  12.402  10.395
 7405SOL    HW123989   8.305  12.407  10.436
 7405SOL    HW223990   8.187  12.493  10.395
 7406SOL     OW23991   8.312  11.471   4.710
 7406SOL    HW123992   8.292  11.385   4.673
 7406SOL    HW223993   8.407  11.479   4.701
 7407SOL     OW23994  11.612   7.423   3.269
 7407SOL    HW123995  11.522   7.455   3.273
 7407SOL    HW223996  11.654   7.462   3.346
 7408SOL     OW23997   5.884   7.750   0.802
 7408SOL    HW123998   5.796   7.767   0.835
 7408SOL    HW223999   5.902   7.659   0.826
 7409SOL     OW24000   1.529   8.486  13.618
 7409SOL    HW124001   1.603   8.542  13.595
 7409SOL    HW224002   1.494   8.455  13.535
 7410SOL     OW24003   7.101   1.641   0.585
 7410SOL    HW124004   7.131   1.720   0.630
 7410SOL    HW224005   7.032   1.606   0.642
 7411SOL     OW24006   0.205   8.052   8.901
 7411SOL    HW124007   0.215   8.124   8.963
 7411SOL    HW224008   0.276   8.065   8.838
 7412SOL     OW24009   2.993  12.226   6.629
 7412SOL    HW124010   3.056  12.154   6.634
 7412SOL    HW224011   3.044  12.304   6.650
 7413SOL     OW24012   5.902   1.907   4.536
 7413SOL    HW124013   5.859   1.887   4.452
 7413SOL    HW224014   5.882   1.832   4.592
 7414SOL     OW24015  13.779   7.579   8.544
 7414SOL    HW124016  13.684   7.571   8.551
 7414SOL    HW224017  13.793   7.670   8.518
 7415SOL     OW24018   5.993   9.933   7.630
 7415SOL    HW124019   6.003   9.838   7.625
 7415SOL    HW224020   6.082   9.967   7.634
 7416SOL     OW24021   0.404   3.668  13.602
 7416SOL    HW124022   0.457   3.746  13.619
 7416SOL    HW224023   0.468   3.598  13.589
 7417SOL     OW24024   5.800  10.024   8.402
 7417SOL    HW124025   5.868   9.971   8.444
 7417SOL    HW224026   5.733  10.035   8.470
 7418SOL     OW24027   0.376  10.345   6.265
 7418SOL    HW124028   0.419  10.353   6.350
 7418SOL    HW224029   0.368  10.435   6.234
 7419SOL     OW24030   0.698   1.163  11.851
 7419SOL    HW124031   0.743   1.164  11.766
 7419SOL    HW224032   0.626   1.225  11.840
 7420SOL     OW24033   6.204  10.721   6.845
 7420SOL    HW124034   6.271  10.679   6.792
 7420SOL    HW224035   6.199  10.810   6.812
 7421SOL     OW24036   4.006  13.715   0.413
 7421SOL    HW124037   4.007  13.669   0.330
 7421SOL    HW224038   4.072  13.785   0.403
 7422SOL     OW24039   7.641   7.896   5.121
 7422SOL    HW124040   7.554   7.927   5.096
 7422SOL    HW224041   7.672   7.847   5.045
 7423SOL     OW24042   1.350   9.174   1.740
 7423SOL    HW124043   1.302   9.254   1.763
 7423SOL    HW224044   1.344   9.119   1.818
 7424SOL     OW24045   5.585   3.908   2.334
 7424SOL    HW124046   5.559   3.984   2.385
 7424SOL    HW224047   5.659   3.870   2.381
 7425SOL     OW24048  12.745  14.386   9.041
 7425SOL    HW124049  12.703  14.402   9.125
 7425SOL    HW224050  12.720  14.461   8.987
 7426SOL     OW24051   8.929   6.437  12.522
 7426SOL    HW124052   8.929   6.387  12.440
 7426SOL    HW224053   8.950   6.373  12.589
 7427SOL     OW24054   2.282   6.070   0.514
 7427SOL    HW124055   2.365   6.023   0.510
 7427SOL    HW224056   2.307   6.162   0.514
 7428SOL     OW24057  14.087   1.279   9.558
 7428SOL    HW124058  14.033   1.226   9.499
 7428SOL    HW224059  14.074   1.239   9.644
 7429SOL     OW24060  13.601  11.113   2.318
 7429SOL    HW124061  13.576  11.163   2.240
 7429SOL    HW224062  13.523  11.115   2.374
 7430SOL     OW24063  10.917   8.745   0.658
 7430SOL    HW124064  10.869   8.664   0.639
 7430SOL    HW224065  10.987   8.718   0.717
 7431SOL     OW24066  10.268   2.378  14.036
 7431SOL    HW124067  10.279   2.469  14.011
 7431SOL    HW224068  10.275   2.377  14.131
 7432SOL     OW24069   2.442   6.991  13.929
 7432SOL    HW124070   2.432   6.969  14.021
 7432SOL    HW224071   2.362   7.038  13.906
 7433SOL     OW24072   5.128  11.480  13.730
 7433SOL    HW124073   5.216  11.502  13.758
 7433SOL    HW224074   5.135  11.464  13.636
 7434SOL     OW24075   4.881  12.333   0.107
 7434SOL    HW124076   4.951  12.397   0.115
 7434SOL    HW224077   4.812  12.365   0.166
 7435SOL     OW24078   3.208  14.236  12.583
 7435SOL    HW124079   3.258  14.308  12.544
 7435SOL    HW224080   3.142  14.214  12.517
 7436SOL     OW24081  12.767  14.348  12.659
 7436SOL    HW124082  12.738  14.360  12.749
 7436SOL    HW224083  12.804  14.260  12.657
 7437SOL     OW24084  10.009  10.531  12.776
 7437SOL    HW124085  10.049  10.573  12.700
 7437SOL    HW224086   9.919  10.514  12.750
 7438SOL     OW24087   9.989   2.945   9.631
 7438SOL    HW124088   9.966   2.906   9.715
 7438SOL    HW224089  10.075   2.985   9.645
 7439SOL     OW24090   5.083   0.900   3.589
 7439SOL    HW124091   5.144   0.836   3.626
 7439SOL    HW224092   5.079   0.971   3.653
 7440SOL     OW24093  12.259   3.001  12.562
 7440SOL    HW124094  12.331   2.940  12.574
 7440SOL    HW224095  12.180   2.947  12.570
 7441SOL     OW24096  13.726   4.888   6.687
 7441SOL    HW124097  13.775   4.959   6.730
 7441SOL    HW224098  13.638   4.924   6.675
 7442SOL     OW24099   2.260   9.597   2.852
 7442SOL    HW124100   2.294   9.543   2.924
 7442SOL    HW224101   2.339   9.634   2.811
 7443SOL     OW24102  14.120   7.296   9.644
 7443SOL    HW124103  14.128   7.212   9.600
 7443SOL    HW224104  14.027   7.319   9.638
 7444SOL     OW24105  12.977   1.508  14.190
 7444SOL    HW124106  12.955   1.600  14.206
 7444SOL    HW224107  13.067   1.499  14.222
 7445SOL     OW24108   0.047   1.042  12.089
 7445SOL    HW124109   0.114   1.110  12.078
 7445SOL    HW224110  14.861   1.080  12.149
 7446SOL     OW24111  13.745   8.354   2.647
 7446SOL    HW124112  13.684   8.379   2.577
 7446SOL    HW224113  13.825   8.402   2.627
 7447SOL     OW24114   4.372   4.798  13.993
 7447SOL    HW124115   4.289   4.804  13.946
 7447SOL    HW224116   4.366   4.716  14.042
 7448SOL     OW24117   3.242   1.323  11.566
 7448SOL    HW124118   3.221   1.309  11.659
 7448SOL    HW224119   3.337   1.331  11.564
 7449SOL     OW24120  11.499   5.373  11.486
 7449SOL    HW124121  11.459   5.327  11.412
 7449SOL    HW224122  11.591   5.385  11.460
 7450SOL     OW24123  12.241   8.309  14.689
 7450SOL    HW124124  12.272   8.313  14.598
 7450SOL    HW224125  12.186   8.387  14.698
 7451SOL     OW24126  10.211   4.001   0.972
 7451SOL    HW124127  10.236   3.917   1.009
 7451SOL    HW224128  10.227   3.992   0.878
 7452SOL     OW24129   7.032   8.031   9.217
 7452SOL    HW124130   6.963   7.995   9.273
 7452SOL    HW224131   7.003   8.010   9.128
 7453SOL     OW24132   5.467  11.549   8.353
 7453SOL    HW124133   5.477  11.582   8.263
 7453SOL    HW224134   5.444  11.627   8.404
 7454SOL     OW24135  11.327  14.108   6.332
 7454SOL    HW124136  11.243  14.138   6.299
 7454SOL    HW224137  11.387  14.181   6.316
 7455SOL     OW24138   8.642  14.256  10.360
 7455SOL    HW124139   8.684  14.225  10.280
 7455SOL    HW224140   8.714  14.292  10.412
 7456SOL     OW24141  10.664  11.364  13.846
 7456SOL    HW124142  10.731  11.431  13.834
 7456SOL    HW224143  10.652  11.326  13.759
 7457SOL     OW24144  13.348   6.324   2.920
 7457SOL    HW124145  13.386   6.241   2.949
 7457SOL    HW224146  13.282   6.344   2.985
 7458SOL     OW24147   6.913   5.372  14.023
 7458SOL    HW124148   6.861   5.438  13.977
 7458SOL    HW224149   6.929   5.305  13.957
 7459SOL     OW24150   2.712  14.851  13.282
 7459SOL    HW124151   2.667  14.800  13.349
 7459SOL    HW224152   2.805  14.841  13.302
 7460SOL     OW24153   0.542   7.931  11.241
 7460SOL    HW124154   0.470   7.915  11.302
 7460SOL    HW224155   0.597   7.996  11.285
 7461SOL     OW24156   8.675   9.837   4.869
 7461SOL    HW124157   8.735   9.829   4.795
 7461SOL    HW224158   8.602   9.778   4.847
 7462SOL     OW24159  12.989   8.962   4.472
 7462SOL    HW124160  13.023   8.874   4.488
 7462SOL    HW224161  13.068   9.017   4.464
 7463SOL     OW24162  12.591   7.354   4.948
 7463SOL    HW124163  12.590   7.407   5.027
 7463SOL    HW224164  12.510   7.303   4.952
 7464SOL     OW24165   3.312   7.330  14.149
 7464SOL    HW124166   3.276   7.397  14.207
 7464SOL    HW224167   3.329   7.256  14.207
 7465SOL     OW24168   1.095   3.671   3.254
 7465SOL    HW124169   1.086   3.737   3.186
 7465SOL    HW224170   1.177   3.626   3.233
 7466SOL     OW24171  10.498  13.562   7.389
 7466SOL    HW124172  10.434  13.569   7.318
 7466SOL    HW224173  10.448  13.527   7.463
 7467SOL     OW24174   7.751  14.319  12.658
 7467SOL    HW124175   7.846  14.323  12.646
 7467SOL    HW224176   7.738  14.343  12.750
 7468SOL     OW24177  14.026  12.408  11.324
 7468SOL    HW124178  14.032  12.500  11.299
 7468SOL    HW224179  13.961  12.406  11.394
 7469SOL     OW24180   3.220  13.999  11.480
 7469SOL    HW124181   3.142  13.945  11.490
 7469SOL    HW224182   3.197  14.062  11.411
 7470SOL     OW24183   0.143   9.766  12.010
 7470SOL    HW124184   0.153   9.697  12.076
 7470SOL    HW224185   0.061   9.810  12.034
 7471SOL     OW24186  12.993   2.211   9.026
 7471SOL    HW124187  13.045   2.290   9.011
 7471SOL    HW224188  13.037   2.166   9.098
 7472SOL     OW24189   0.030   1.517   7.280
 7472SOL    HW124190  14.813   1.509   7.265
 7472SOL    HW224191   0.038   1.584   7.347
 7473SOL     OW24192  11.065  10.322  10.883
 7473SOL    HW124193  11.022  10.275  10.955
 7473SOL    HW224194  11.012  10.401  10.871
 7474SOL     OW24195   6.108   3.818   0.731
 7474SOL    HW124196   6.153   3.759   0.791
 7474SOL    HW224197   6.061   3.760   0.671
 7475SOL     OW24198   2.138   7.517   9.336
 7475SOL    HW124199   2.227   7.551   9.332
 7475SOL    HW224200   2.087   7.579   9.283
 7476SOL     OW24201  14.383   7.849   5.147
 7476SOL    HW124202  14.388   7.783   5.079
 7476SOL    HW224203  14.369   7.800   5.228
 7477SOL     OW24204  10.923   2.017   0.413
 7477SOL    HW124205  10.864   2.062   0.353
 7477SOL    HW224206  11.009   2.056   0.396
 7478SOL     OW24207   7.587  14.156   4.130
 7478SOL    HW124208   7.626  14.199   4.053
 7478SOL    HW224209   7.583  14.225   4.196
 7479SOL     OW24210   2.382  11.976   4.137
 7479SOL    HW124211   2.465  11.928   4.145
 7479SOL    HW224212   2.331  11.949   4.214
 7480SOL     OW24213   4.163  12.078   3.713
 7480SOL    HW124214   4.204  12.017   3.652
 7480SOL    HW224215   4.073  12.087   3.682
 7481SOL     OW24216  12.812   2.497   1.242
 7481SOL    HW124217  12.880   2.561   1.220
 7481SOL    HW224218  12.740   2.549   1.278
 7482SOL     OW24219   2.433  12.280  12.082
 7482SOL    HW124220   2.386  12.329  12.014
 7482SOL    HW224221   2.471  12.206  12.035
 7483SOL     OW24222  14.670   2.873   1.501
 7483SOL    HW124223  14.686   2.903   1.590
 7483SOL    HW224224  14.751   2.893   1.454
 7484SOL     OW24225   8.398   5.393  10.967
 7484SOL    HW124226   8.490   5.412  10.984
 7484SOL    HW224227   8.355   5.403  11.051
 7485SOL     OW24228  10.802  13.930   0.896
 7485SOL    HW124229  10.805  13.945   0.801
 7485SOL    HW224230  10.834  14.012   0.934
 7486SOL     OW24231   3.466   9.832   0.829
 7486SOL    HW124232   3.556   9.818   0.860
 7486SOL    HW224233   3.475   9.893   0.756
 7487SOL     OW24234   1.923   6.868  14.109
 7487SOL    HW124235   2.002   6.855  14.160
 7487SOL    HW224236   1.953   6.875  14.018
 7488SOL     OW24237  13.834   9.605   2.113
 7488SOL    HW124238  13.830   9.526   2.060
 7488SOL    HW224239  13.824   9.574   2.203
 7489SOL     OW24240   6.283   6.476  11.799
 7489SOL    HW124241   6.208   6.441  11.847
 7489SOL    HW224242   6.278   6.571  11.812
 7490SOL     OW24243   8.787  11.054   7.769
 7490SOL    HW124244   8.734  10.997   7.826
 7490SOL    HW224245   8.856  11.088   7.826
 7491SOL     OW24246   1.560   5.370  14.210
 7491SOL    HW124247   1.572   5.321  14.129
 7491SOL    HW224248   1.650   5.392  14.237
 7492SOL     OW24249   5.477   5.829   7.031
 7492SOL    HW124250   5.539   5.794   7.094
 7492SOL    HW224251   5.519   5.815   6.946
 7493SOL     OW24252   7.666  10.780  11.360
 7493SOL    HW124253   7.622  10.837  11.422
 7493SOL    HW224254   7.622  10.695  11.370
 7494SOL     OW24255   3.369   4.490  12.413
 7494SOL    HW124256   3.372   4.578  12.375
 7494SOL    HW224257   3.458   4.473  12.443
 7495SOL     OW24258  12.775   6.218   4.325
 7495SOL    HW124259  12.766   6.204   4.230
 7495SOL    HW224260  12.773   6.313   4.335
 7496SOL     OW24261   5.545   6.218   4.837
 7496SOL    HW124262   5.460   6.262   4.838
 7496SOL    HW224263   5.583   6.241   4.752
 7497SOL     OW24264   1.033   7.040  12.946
 7497SOL    HW124265   1.099   7.036  13.015
 7497SOL    HW224266   1.013   7.133  12.938
 7498SOL     OW24267   9.102   5.412   7.530
 7498SOL    HW124268   9.052   5.474   7.478
 7498SOL    HW224269   9.113   5.455   7.615
 7499SOL     OW24270  11.321   0.791   8.295
 7499SOL    HW124271  11.385   0.729   8.330
 7499SOL    HW224272  11.305   0.853   8.367
 7500SOL     OW24273  11.856   3.260   7.215
 7500SOL    HW124274  11.946   3.240   7.244
 7500SOL    HW224275  11.861   3.350   7.183
 7501SOL     OW24276   8.233   5.664   5.290
 7501SOL    HW124277   8.186   5.661   5.373
 7501SOL    HW224278   8.245   5.758   5.273
 7502SOL     OW24279   4.363   1.712  12.324
 7502SOL    HW124280   4.338   1.645  12.260
 7502SOL    HW224281   4.304   1.785  12.305
 7503SOL     OW24282  12.747   1.508  10.454
 7503SOL    HW124283  12.800   1.578  10.416
 7503SOL    HW224284  12.787   1.427  10.423
 7504SOL     OW24285   1.689  14.262   5.643
 7504SOL    HW124286   1.635  14.184   5.651
 7504SOL    HW224287   1.662  14.318   5.716
 7505SOL     OW24288   5.564  12.249  13.983
 7505SOL    HW124289   5.509  12.310  13.934
 7505SOL    HW224290   5.515  12.229  14.063
 7506SOL     OW24291   8.535   3.059   2.932
 7506SOL    HW124292   8.561   3.138   2.980
 7506SOL    HW224293   8.590   3.060   2.853
 7507SOL     OW24294   5.239  13.202   7.886
 7507SOL    HW124295   5.257  13.110   7.869
 7507SOL    HW224296   5.219  13.206   7.979
 7508SOL     OW24297   3.502  11.795   8.782
 7508SOL    HW124298   3.551  11.739   8.843
 7508SOL    HW224299   3.544  11.781   8.697
 7509SOL     OW24300   6.358   0.065   2.816
 7509SOL    HW124301   6.394   0.124   2.750
 7509SOL    HW224302   6.385  14.855   2.787
 7510SOL     OW24303   3.856  10.400  11.187
 7510SOL    HW124304   3.845  10.495  11.184
 7510SOL    HW224305   3.771  10.364  11.162
 7511SOL     OW24306   9.278  10.350   7.357
 7511SOL    HW124307   9.244  10.389   7.438
 7511SOL    HW224308   9.210  10.289   7.330
 7512SOL     OW24309   3.420   1.390   9.892
 7512SOL    HW124310   3.502   1.370   9.936
 7512SOL    HW224311   3.440   1.465   9.836
 7513SOL     OW24312   0.965   5.562  11.292
 7513SOL    HW124313   0.894   5.504  11.318
 7513SOL    HW224314   0.921   5.641  11.261
 7514SOL     OW24315  11.423  10.152   6.361
 7514SOL    HW124316  11.438  10.080   6.423
 7514SOL    HW224317  11.334  10.182   6.380
 7515SOL     OW24318   4.710   5.471  13.261
 7515SOL    HW124319   4.638   5.506  13.209
 7515SOL    HW224320   4.788   5.488  13.208
 7516SOL     OW24321   7.101  12.437   7.093
 7516SOL    HW124322   7.030  12.377   7.070
 7516SOL    HW224323   7.103  12.500   7.021
 7517SOL     OW24324  14.656   7.306  13.641
 7517SOL    HW124325  14.725   7.279  13.702
 7517SOL    HW224326  14.701   7.361  13.577
 7518SOL     OW24327   8.084   6.976   9.765
 7518SOL    HW124328   8.030   6.948   9.691
 7518SOL    HW224329   8.172   6.942   9.746
 7519SOL     OW24330   1.961   0.001  11.729
 7519SOL    HW124331   2.031  14.828  11.769
 7519SOL    HW224332   1.910  14.813  11.681
 7520SOL     OW24333   2.148   1.420   0.426
 7520SOL    HW124334   2.156   1.423   0.331
 7520SOL    HW224335   2.196   1.498   0.456
 7521SOL     OW24336   5.540   2.515  10.281
 7521SOL    HW124337   5.555   2.605  10.310
 7521SOL    HW224338   5.570   2.514  10.190
 7522SOL     OW24339  14.564   7.555   0.703
 7522SOL    HW124340  14.622   7.587   0.773
 7522SOL    HW224341  14.604   7.587   0.622
 7523SOL     OW24342   6.058   6.255  12.836
 7523SOL    HW124343   6.055   6.304  12.754
 7523SOL    HW224344   6.009   6.308  12.899
 7524SOL     OW24345   4.960  10.069  11.132
 7524SOL    HW124346   5.015   9.998  11.164
 7524SOL    HW224347   5.023  10.134  11.099
 7525SOL     OW24348  14.365   1.693   2.454
 7525SOL    HW124349  14.371   1.604   2.489
 7525SOL    HW224350  14.349   1.748   2.531
 7526SOL     OW24351   5.788   9.133   9.227
 7526SOL    HW124352   5.833   9.065   9.177
 7526SOL    HW224353   5.746   9.187   9.160
 7527SOL     OW24354   0.177   5.152   0.970
 7527SOL    HW124355   0.231   5.210   1.022
 7527SOL    HW224356   0.179   5.190   0.882
 7528SOL     OW24357  10.770   8.776   5.155
 7528SOL    HW124358  10.683   8.742   5.178
 7528SOL    HW224359  10.760   8.807   5.065
 7529SOL     OW24360   4.955   8.852   4.681
 7529SOL    HW124361   4.992   8.860   4.593
 7529SOL    HW224362   4.938   8.943   4.708
 7530SOL     OW24363   0.774  10.226  11.286
 7530SOL    HW124364   0.753  10.242  11.378
 7530SOL    HW224365   0.725  10.148  11.263
 7531SOL     OW24366   9.668   9.089   2.470
 7531SOL    HW124367   9.640   9.018   2.413
 7531SOL    HW224368   9.618   9.077   2.550
 7532SOL     OW24369  13.924   0.620  13.418
 7532SOL    HW124370  13.951   0.531  13.437
 7532SOL    HW224371  13.918   0.663  13.503
 7533SOL     OW24372   9.553   4.417   8.502
 7533SOL    HW124373   9.534   4.499   8.457
 7533SOL    HW224374   9.587   4.443   8.587
 7534SOL     OW24375   7.868  12.930   8.002
 7534SOL    HW124376   7.831  12.844   7.982
 7534SOL    HW224377   7.802  12.992   7.974
 7535SOL     OW24378  12.377   7.289   1.541
 7535SOL    HW124379  12.416   7.288   1.628
 7535SOL    HW224380  12.329   7.206   1.536
 7536SOL     OW24381   5.892  12.526  13.024
 7536SOL    HW124382   5.839  12.525  13.103
 7536SOL    HW224383   5.959  12.459  13.039
 7537SOL     OW24384   0.966   7.490   5.292
 7537SOL    HW124385   1.015   7.550   5.236
 7537SOL    HW224386   0.986   7.519   5.381
 7538SOL     OW24387   1.089   4.623   0.354
 7538SOL    HW124388   1.060   4.547   0.404
 7538SOL    HW224389   1.068   4.699   0.409
 7539SOL     OW24390  13.879   5.655  14.071
 7539SOL    HW124391  13.828   5.716  14.124
 7539SOL    HW224392  13.819   5.583  14.053
 7540SOL     OW24393   0.080   1.185  10.894
 7540SOL    HW124394  14.871   1.178  10.853
 7540SOL    HW224395   0.108   1.094  10.906
 7541SOL     OW24396  12.984  10.065  12.421
 7541SOL    HW124397  13.002  10.025  12.335
 7541SOL    HW224398  13.038  10.144  12.422
 7542SOL     OW24399   9.976  11.865   7.631
 7542SOL    HW124400   9.935  11.863   7.717
 7542SOL    HW224401  10.050  11.925   7.642
 7543SOL     OW24402   4.036   6.706  13.287
 7543SOL    HW124403   4.073   6.621  13.263
 7543SOL    HW224404   3.980   6.687  13.363
 7544SOL     OW24405   6.453  12.354  11.593
 7544SOL    HW124406   6.430  12.437  11.634
 7544SOL    HW224407   6.370  12.307  11.585
 7545SOL     OW24408   4.138  11.973  12.677
 7545SOL    HW124409   4.214  11.915  12.668
 7545SOL    HW224410   4.165  12.055  12.635
 7546SOL     OW24411   9.114   4.067   0.033
 7546SOL    HW124412   9.074   3.980   0.036
 7546SOL    HW224413   9.205   4.053   0.061
 7547SOL     OW24414  14.090  10.610   8.536
 7547SOL    HW124415  14.009  10.560   8.549
 7547SOL    HW224416  14.158  10.559   8.579
 7548SOL     OW24417   6.190  12.739  12.889
 7548SOL    HW124418   6.115  12.701  12.843
 7548SOL    HW224419   6.153  12.810  12.941
 7549SOL     OW24420   9.263   5.473  13.668
 7549SOL    HW124421   9.268   5.542  13.734
 7549SOL    HW224422   9.307   5.398  13.709
 7550SOL     OW24423   9.751  11.339  14.698
 7550SOL    HW124424   9.699  11.389  14.635
 7550SOL    HW224425   9.814  11.290  14.644
 7551SOL     OW24426   9.278   0.867   1.395
 7551SOL    HW124427   9.260   0.797   1.332
 7551SOL    HW224428   9.305   0.941   1.341
 7552SOL     OW24429   6.003   1.570   4.324
 7552SOL    HW124430   5.948   1.649   4.323
 7552SOL    HW224431   5.977   1.523   4.245
 7553SOL     OW24432  13.451   1.387   1.364
 7553SOL    HW124433  13.419   1.300   1.339
 7553SOL    HW224434  13.409   1.405   1.448
 7554SOL     OW24435   8.885   3.615   3.701
 7554SOL    HW124436   8.870   3.626   3.607
 7554SOL    HW224437   8.813   3.661   3.743
 7555SOL     OW24438   6.226   8.252  11.051
 7555SOL    HW124439   6.157   8.217  11.108
 7555SOL    HW224440   6.216   8.203  10.969
 7556SOL     OW24441  12.714  10.172   1.616
 7556SOL    HW124442  12.700  10.100   1.554
 7556SOL    HW224443  12.633  10.176   1.666
 7557SOL     OW24444  11.678  12.482   3.167
 7557SOL    HW124445  11.743  12.426   3.124
 7557SOL    HW224446  11.644  12.537   3.096
 7558SOL     OW24447   7.844   3.165   7.931
 7558SOL    HW124448   7.915   3.230   7.922
 7558SOL    HW224449   7.784   3.186   7.860
 7559SOL     OW24450   2.341   1.440   5.696
 7559SOL    HW124451   2.403   1.415   5.765
 7559SOL    HW224452   2.369   1.527   5.668
 7560SOL     OW24453   5.467   2.887   9.734
 7560SOL    HW124454   5.520   2.966   9.719
 7560SOL    HW224455   5.531   2.816   9.740
 7561SOL     OW24456   6.202   7.167   0.534
 7561SOL    HW124457   6.173   7.223   0.462
 7561SOL    HW224458   6.132   7.102   0.543
 7562SOL     OW24459  14.091   3.784  11.726
 7562SOL    HW124460  14.098   3.853  11.791
 7562SOL    HW224461  14.181   3.751  11.716
 7563SOL     OW24462   0.551   7.587   6.129
 7563SOL    HW124463   0.538   7.541   6.212
 7563SOL    HW224464   0.631   7.637   6.141
 7564SOL     OW24465   8.173  13.036  10.643
 7564SOL    HW124466   8.197  13.095  10.714
 7564SOL    HW224467   8.151  13.095  10.570
 7565SOL     OW24468  10.229   7.647   5.277
 7565SOL    HW124469  10.325   7.640   5.274
 7565SOL    HW224470  10.205   7.688   5.194
 7566SOL     OW24471  10.479  12.651   1.018
 7566SOL    HW124472  10.510  12.735   1.050
 7566SOL    HW224473  10.544  12.626   0.951
 7567SOL     OW24474  11.180   7.543   8.915
 7567SOL    HW124475  11.094   7.576   8.942
 7567SOL    HW224476  11.235   7.551   8.992
 7568SOL     OW24477   4.230   5.470   6.396
 7568SOL    HW124478   4.184   5.470   6.480
 7568SOL    HW224479   4.322   5.457   6.420
 7569SOL     OW24480   6.840  11.434   2.111
 7569SOL    HW124481   6.911  11.369   2.108
 7569SOL    HW224482   6.858  11.485   2.189
 7570SOL     OW24483   7.713   7.214   0.819
 7570SOL    HW124484   7.709   7.281   0.751
 7570SOL    HW224485   7.787   7.159   0.793
 7571SOL     OW24486   8.515   5.305  14.107
 7571SOL    HW124487   8.447   5.246  14.075
 7571SOL    HW224488   8.478   5.393  14.097
 7572SOL     OW24489   5.907   6.658   0.864
 7572SOL    HW124490   5.872   6.746   0.849
 7572SOL    HW224491   5.999   6.672   0.885
 7573SOL     OW24492   2.618   7.445   4.261
 7573SOL    HW124493   2.708   7.415   4.271
 7573SOL    HW224494   2.571   7.369   4.226
 7574SOL     OW24495  14.103   0.709   6.872
 7574SOL    HW124496  14.058   0.689   6.789
 7574SOL    HW224497  14.125   0.624   6.908
 7575SOL     OW24498  14.414  11.155   3.850
 7575SOL    HW124499  14.325  11.190   3.844
 7575SOL    HW224500  14.441  11.173   3.940
 7576SOL     OW24501   7.876   9.978   8.106
 7576SOL    HW124502   7.949   9.965   8.167
 7576SOL    HW224503   7.820   9.902   8.118
 7577SOL     OW24504   7.459  14.272   5.715
 7577SOL    HW124505   7.452  14.291   5.808
 7577SOL    HW224506   7.399  14.334   5.673
 7578SOL     OW24507   7.973   8.890  13.307
 7578SOL    HW124508   8.000   8.924  13.392
 7578SOL    HW224509   7.924   8.811  13.327
 7579SOL     OW24510   4.864  11.242  13.610
 7579SOL    HW124511   4.934  11.188  13.645
 7579SOL    HW224512   4.906  11.298  13.545
 7580SOL     OW24513  10.024   4.948  11.461
 7580SOL    HW124514   9.942   4.902  11.445
 7580SOL    HW224515  10.027   4.959  11.556
 7581SOL     OW24516  12.082   4.235   2.786
 7581SOL    HW124517  12.035   4.161   2.749
 7581SOL    HW224518  12.126   4.200   2.864
 7582SOL     OW24519  14.419   6.754  10.773
 7582SOL    HW124520  14.348   6.770  10.710
 7582SOL    HW224521  14.428   6.659  10.776
 7583SOL     OW24522   2.986   0.502   2.986
 7583SOL    HW124523   2.945   0.436   3.043
 7583SOL    HW224524   2.991   0.459   2.901
 7584SOL     OW24525  11.307   1.786  14.142
 7584SOL    HW124526  11.336   1.744  14.223
 7584SOL    HW224527  11.388   1.807  14.095
 7585SOL     OW24528  10.713   9.168   1.072
 7585SOL    HW124529  10.707   9.202   0.982
 7585SOL    HW224530  10.807   9.166   1.090
 7586SOL     OW24531   1.433   5.100   3.003
 7586SOL    HW124532   1.370   5.162   2.968
 7586SOL    HW224533   1.480   5.067   2.926
 7587SOL     OW24534  10.284   1.641   8.453
 7587SOL    HW124535  10.299   1.638   8.358
 7587SOL    HW224536  10.269   1.733   8.472
 7588SOL     OW24537   3.308   1.529   4.132
 7588SOL    HW124538   3.236   1.469   4.113
 7588SOL    HW224539   3.290   1.562   4.220
 7589SOL     OW24540   3.754   0.857   8.761
 7589SOL    HW124541   3.670   0.827   8.796
 7589SOL    HW224542   3.818   0.794   8.794
 7590SOL     OW24543  13.549   0.164  12.102
 7590SOL    HW124544  13.610   0.124  12.040
 7590SOL    HW224545  13.528   0.249  12.063
 7591SOL     OW24546   9.948  14.722   8.405
 7591SOL    HW124547   9.865  14.676   8.415
 7591SOL    HW224548  10.014  14.659   8.433
 7592SOL     OW24549  12.151   7.144  13.495
 7592SOL    HW124550  12.068   7.097  13.505
 7592SOL    HW224551  12.211   7.101  13.556
 7593SOL     OW24552   8.948   2.827   5.524
 7593SOL    HW124553   9.002   2.754   5.493
 7593SOL    HW224554   9.010   2.886   5.566
 7594SOL     OW24555  10.870   0.157   6.150
 7594SOL    HW124556  10.933   0.095   6.113
 7594SOL    HW224557  10.856   0.126   6.239
 7595SOL     OW24558   1.167   6.442   4.111
 7595SOL    HW124559   1.082   6.418   4.147
 7595SOL    HW224560   1.179   6.384   4.036
 7596SOL     OW24561   1.196  13.654   3.284
 7596SOL    HW124562   1.146  13.573   3.288
 7596SOL    HW224563   1.226  13.668   3.374
 7597SOL     OW24564  14.662   5.233   5.990
 7597SOL    HW124565  14.649   5.206   6.081
 7597SOL    HW224566  14.685   5.153   5.944
 7598SOL     OW24567  13.443   6.140   8.028
 7598SOL    HW124568  13.525   6.141   8.076
 7598SOL    HW224569  13.466   6.167   7.939
 7599SOL     OW24570   6.338  12.616   4.292
 7599SOL    HW124571   6.290  12.653   4.366
 7599SOL    HW224572   6.396  12.686   4.264
 7600SOL     OW24573   3.987  13.544   8.228
 7600SOL    HW124574   3.938  13.608   8.176
 7600SOL    HW224575   4.061  13.594   8.264
 7601SOL     OW24576   8.514  14.141  12.081
 7601SOL    HW124577   8.518  14.046  12.091
 7601SOL    HW224578   8.597  14.173  12.118
 7602SOL     OW24579   0.548  12.933   3.247
 7602SOL    HW124580   0.518  13.009   3.295
 7602SOL    HW224581   0.620  12.965   3.192
 7603SOL     OW24582   6.442   8.112  12.024
 7603SOL    HW124583   6.423   8.079  11.936
 7603SOL    HW224584   6.485   8.197  12.009
 7604SOL     OW24585   0.719   2.165   9.973
 7604SOL    HW124586   0.727   2.084   9.922
 7604SOL    HW224587   0.793   2.163  10.033
 7605SOL     OW24588  13.875   4.261  12.380
 7605SOL    HW124589  13.782   4.283  12.382
 7605SOL    HW224590  13.914   4.322  12.318
 7606SOL     OW24591   5.950   6.278   6.161
 7606SOL    HW124592   5.986   6.365   6.178
 7606SOL    HW224593   6.009   6.240   6.096
 7607SOL     OW24594   8.413   8.205   3.142
 7607SOL    HW124595   8.342   8.170   3.195
 7607SOL    HW224596   8.447   8.130   3.094
 7608SOL     OW24597  10.963   2.898   1.905
 7608SOL    HW124598  10.924   2.954   1.839
 7608SOL    HW224599  10.957   2.810   1.868
 7609SOL     OW24600   7.125  13.152  12.446
 7609SOL    HW124601   7.050  13.210  12.457
 7609SOL    HW224602   7.199  13.202  12.480
 7610SOL     OW24603   5.918  10.205   6.966
 7610SOL    HW124604   6.012  10.200   6.982
 7610SOL    HW224605   5.892  10.289   7.003
 7611SOL     OW24606   2.272  10.003  14.033
 7611SOL    HW124607   2.185   9.980  14.065
 7611SOL    HW224608   2.308  10.061  14.101
 7612SOL     OW24609   1.952  14.099   4.354
 7612SOL    HW124610   1.964  14.076   4.262
 7612SOL    HW224611   1.935  14.016   4.398
 7613SOL     OW24612   4.769   3.753   2.563
 7613SOL    HW124613   4.748   3.669   2.604
 7613SOL    HW224614   4.685   3.798   2.555
 7614SOL     OW24615  13.893   2.518   8.745
 7614SOL    HW124616  13.905   2.477   8.831
 7614SOL    HW224617  13.814   2.478   8.710
 7615SOL     OW24618   5.701   3.217   0.996
 7615SOL    HW124619   5.642   3.292   0.989
 7615SOL    HW224620   5.789   3.254   0.985
 7616SOL     OW24621   4.530   9.202  13.569
 7616SOL    HW124622   4.541   9.226  13.477
 7616SOL    HW224623   4.615   9.169  13.596
 7617SOL     OW24624   6.931  13.395  13.939
 7617SOL    HW124625   6.845  13.435  13.955
 7617SOL    HW224626   6.991  13.446  13.992
 7618SOL     OW24627   5.627   9.627   0.217
 7618SOL    HW124628   5.660   9.539   0.231
 7618SOL    HW224629   5.681   9.663   0.147
 7619SOL     OW24630   1.729  12.522   5.070
 7619SOL    HW124631   1.816  12.483   5.074
 7619SOL    HW224632   1.723  12.559   4.982
 7620SOL     OW24633   0.091   8.897   4.185
 7620SOL    HW124634   0.057   8.960   4.250
 7620SOL    HW224635   0.115   8.820   4.237
 7621SOL     OW24636   1.687   5.773   4.273
 7621SOL    HW124637   1.649   5.686   4.266
 7621SOL    HW224638   1.710   5.797   4.184
 7622SOL     OW24639   7.215  13.755   4.415
 7622SOL    HW124640   7.217  13.717   4.327
 7622SOL    HW224641   7.258  13.840   4.406
 7623SOL     OW24642   3.208  12.034   4.494
 7623SOL    HW124643   3.284  12.071   4.451
 7623SOL    HW224644   3.215  12.063   4.585
 7624SOL     OW24645   7.733   2.513   2.406
 7624SOL    HW124646   7.818   2.533   2.446
 7624SOL    HW224647   7.753   2.447   2.339
 7625SOL     OW24648   7.850  13.168  13.268
 7625SOL    HW124649   7.785  13.189  13.201
 7625SOL    HW224650   7.833  13.076  13.289
 7626SOL     OW24651  12.980  13.047   2.933
 7626SOL    HW124652  13.006  13.016   3.019
 7626SOL    HW224653  12.884  13.048   2.935
 7627SOL     OW24654  10.118  13.925  12.017
 7627SOL    HW124655  10.110  13.938  11.923
 7627SOL    HW224656  10.142  14.011  12.052
 7628SOL     OW24657   1.537   6.285   6.859
 7628SOL    HW124658   1.441   6.286   6.857
 7628SOL    HW224659   1.559   6.340   6.934
 7629SOL     OW24660   7.336   8.712   8.202
 7629SOL    HW124661   7.290   8.635   8.235
 7629SOL    HW224662   7.414   8.718   8.257
 7630SOL     OW24663  11.488   7.835   3.909
 7630SOL    HW124664  11.418   7.799   3.964
 7630SOL    HW224665  11.448   7.908   3.863
 7631SOL     OW24666  14.406  12.455   0.456
 7631SOL    HW124667  14.463  12.475   0.382
 7631SOL    HW224668  14.464  12.456   0.532
 7632SOL     OW24669   5.717  10.756   3.372
 7632SOL    HW124670   5.681  10.744   3.285
 7632SOL    HW224671   5.653  10.811   3.417
 7633SOL     OW24672  13.791   4.450   1.411
 7633SOL    HW124673  13.727   4.423   1.476
 7633SOL    HW224674  13.740   4.464   1.331
 7634SOL     OW24675  11.899   5.194   5.941
 7634SOL    HW124676  11.805   5.199   5.956
 7634SOL    HW224677  11.938   5.196   6.028
 7635SOL     OW24678  14.169   6.830   7.399
 7635SOL    HW124679  14.262   6.844   7.420
 7635SOL    HW224680  14.150   6.896   7.332
 7636SOL     OW24681   8.957   5.958   8.524
 7636SOL    HW124682   8.954   6.051   8.546
 7636SOL    HW224683   9.007   5.955   8.443
 7637SOL     OW24684   0.325   1.120   2.993
 7637SOL    HW124685   0.332   1.094   3.085
 7637SOL    HW224686   0.264   1.194   2.994
 7638SOL     OW24687   9.566   1.327   7.230
 7638SOL    HW124688   9.475   1.341   7.257
 7638SOL    HW224689   9.569   1.355   7.139
 7639SOL     OW24690   3.189   9.199  11.531
 7639SOL    HW124691   3.185   9.158  11.445
 7639SOL    HW224692   3.120   9.155  11.582
 7640SOL     OW24693   0.214  13.501   4.289
 7640SOL    HW124694   0.171  13.478   4.207
 7640SOL    HW224695   0.146  13.547   4.339
 7641SOL     OW24696  13.283   7.774   1.709
 7641SOL    HW124697  13.318   7.843   1.653
 7641SOL    HW224698  13.246   7.709   1.649
 7642SOL     OW24699   4.981  11.884   7.792
 7642SOL    HW124700   4.986  11.788   7.788
 7642SOL    HW224701   5.070  11.913   7.772
 7643SOL     OW24702  10.254  12.727  10.373
 7643SOL    HW124703  10.210  12.692  10.295
 7643SOL    HW224704  10.314  12.658  10.401
 7644SOL     OW24705   3.977  13.762  10.560
 7644SOL    HW124706   3.929  13.840  10.587
 7644SOL    HW224707   3.954  13.750  10.468
 7645SOL     OW24708   8.607   3.386   2.965
 7645SOL    HW124709   8.538   3.389   2.898
 7645SOL    HW224710   8.669   3.455   2.938
 7646SOL     OW24711   6.988   8.322   2.877
 7646SOL    HW124712   6.951   8.320   2.789
 7646SOL    HW224713   7.079   8.348   2.864
 7647SOL     OW24714   5.182   1.203  10.340
 7647SOL    HW124715   5.163   1.256  10.417
 7647SOL    HW224716   5.271   1.170  10.355
 7648SOL     OW24717   6.674  10.740  11.900
 7648SOL    HW124718   6.760  10.699  11.911
 7648SOL    HW224719   6.666  10.799  11.976
 7649SOL     OW24720   0.677   7.634  12.453
 7649SOL    HW124721   0.615   7.705  12.436
 7649SOL    HW224722   0.668   7.576  12.377
 7650SOL     OW24723   2.155   9.711  14.396
 7650SOL    HW124724   2.129   9.619  14.392
 7650SOL    HW224725   2.123   9.741  14.482
 7651SOL     OW24726   2.187  13.707  11.480
 7651SOL    HW124727   2.194  13.680  11.388
 7651SOL    HW224728   2.239  13.786  11.486
 7652SOL     OW24729   6.244   6.353   4.862
 7652SOL    HW124730   6.162   6.305   4.874
 7652SOL    HW224731   6.312   6.295   4.896
 7653SOL     OW24732  11.235   7.743   8.110
 7653SOL    HW124733  11.191   7.658   8.101
 7653SOL    HW224734  11.323   7.728   8.075
 7654SOL     OW24735  13.962   5.117   5.835
 7654SOL    HW124736  13.967   5.026   5.804
 7654SOL    HW224737  14.030   5.122   5.902
 7655SOL     OW24738   8.423   2.440   8.593
 7655SOL    HW124739   8.364   2.497   8.544
 7655SOL    HW224740   8.493   2.498   8.622
 7656SOL     OW24741   4.173   2.371   8.575
 7656SOL    HW124742   4.209   2.285   8.557
 7656SOL    HW224743   4.091   2.355   8.621
 7657SOL     OW24744   8.984   9.479   2.691
 7657SOL    HW124745   8.948   9.496   2.603
 7657SOL    HW224746   9.004   9.386   2.691
 7658SOL     OW24747   6.715  14.081   5.891
 7658SOL    HW124748   6.800  14.094   5.848
 7658SOL    HW224749   6.666  14.161   5.871
 7659SOL     OW24750   1.378  11.847   1.090
 7659SOL    HW124751   1.287  11.860   1.117
 7659SOL    HW224752   1.413  11.936   1.082
 7660SOL     OW24753  11.887   7.943   0.607
 7660SOL    HW124754  11.851   8.022   0.568
 7660SOL    HW224755  11.970   7.971   0.647
 7661SOL     OW24756  11.550  14.461  14.319
 7661SOL    HW124757  11.568  14.451  14.413
 7661SOL    HW224758  11.566  14.374  14.283
 7662SOL     OW24759   0.733   3.460   6.460
 7662SOL    HW124760   0.810   3.416   6.423
 7662SOL    HW224761   0.728   3.429   6.550
 7663SOL     OW24762   8.554   0.875  10.949
 7663SOL    HW124763   8.585   0.806  10.890
 7663SOL    HW224764   8.469   0.900  10.914
 7664SOL     OW24765   2.066   1.378  12.532
 7664SOL    HW124766   1.979   1.400  12.499
 7664SOL    HW224767   2.099   1.312  12.471
 7665SOL     OW24768   0.913  12.933   8.772
 7665SOL    HW124769   0.927  13.027   8.775
 7665SOL    HW224770   0.827  12.922   8.731
 7666SOL     OW24771   4.576   2.219   0.947
 7666SOL    HW124772   4.619   2.133   0.951
 7666SOL    HW224773   4.636   2.274   0.898
 7667SOL     OW24774  13.974  14.189  10.624
 7667SOL    HW124775  14.042  14.193  10.691
 7667SOL    HW224776  13.981  14.101  10.587
 7668SOL     OW24777  14.179   0.475   5.885
 7668SOL    HW124778  14.184   0.570   5.874
 7668SOL    HW224779  14.133   0.463   5.968
 7669SOL     OW24780  14.601   1.280  14.374
 7669SOL    HW124781  14.631   1.371  14.383
 7669SOL    HW224782  14.512   1.280  14.408
 7670SOL     OW24783  13.974   3.708  14.168
 7670SOL    HW124784  13.974   3.777  14.235
 7670SOL    HW224785  13.957   3.755  14.086
 7671SOL     OW24786  10.406  14.260   6.807
 7671SOL    HW124787  10.354  14.256   6.887
 7671SOL    HW224788  10.341  14.266   6.737
 7672SOL     OW24789  14.502   1.612   5.260
 7672SOL    HW124790  14.445   1.673   5.306
 7672SOL    HW224791  14.590   1.647   5.273
 7673SOL     OW24792  11.909   7.166   9.103
 7673SOL    HW124793  11.866   7.215   9.033
 7673SOL    HW224794  11.845   7.098   9.127
 7674SOL     OW24795   2.501  14.431  12.064
 7674SOL    HW124796   2.507  14.422  12.159
 7674SOL    HW224797   2.447  14.356  12.037
 7675SOL     OW24798  12.266  13.601   4.580
 7675SOL    HW124799  12.275  13.585   4.674
 7675SOL    HW224800  12.292  13.519   4.538
 7676SOL     OW24801  13.374   7.836   6.140
 7676SOL    HW124802  13.370   7.751   6.185
 7676SOL    HW224803  13.467   7.846   6.118
 7677SOL     OW24804   4.440   6.875   2.193
 7677SOL    HW124805   4.381   6.803   2.215
 7677SOL    HW224806   4.498   6.884   2.268
 7678SOL     OW24807  11.288  11.454   4.483
 7678SOL    HW124808  11.217  11.413   4.435
 7678SOL    HW224809  11.351  11.383   4.497
 7679SOL     OW24810   5.144   8.584   6.846
 7679SOL    HW124811   5.182   8.510   6.799
 7679SOL    HW224812   5.053   8.559   6.861
 7680SOL     OW24813  12.737   2.551  13.687
 7680SOL    HW124814  12.672   2.506  13.631
 7680SOL    HW224815  12.797   2.593  13.626
 7681SOL     OW24816   0.696   1.472  12.029
 7681SOL    HW124817   0.767   1.426  12.075
 7681SOL    HW224818   0.733   1.494  11.944
 7682SOL     OW24819  12.983   5.289  10.082
 7682SOL    HW124820  12.887   5.284  10.078
 7682SOL    HW224821  13.008   5.329   9.998
 7683SOL     OW24822   8.054   4.651   2.355
 7683SOL    HW124823   8.132   4.706   2.349
 7683SOL    HW224824   8.083   4.573   2.402
 7684SOL     OW24825   6.493   2.066   3.140
 7684SOL    HW124826   6.416   2.089   3.088
 7684SOL    HW224827   6.491   2.127   3.214
 7685SOL     OW24828  12.312   6.000  11.805
 7685SOL    HW124829  12.304   5.957  11.720
 7685SOL    HW224830  12.224   6.034  11.823
 7686SOL     OW24831  11.620  14.105   1.018
 7686SOL    HW124832  11.698  14.105   1.074
 7686SOL    HW224833  11.652  14.135   0.933
 7687SOL     OW24834   4.989  13.057   0.983
 7687SOL    HW124835   4.972  13.062   0.889
 7687SOL    HW224836   5.019  13.145   1.007
 7688SOL     OW24837   7.279  10.905   7.234
 7688SOL    HW124838   7.322  10.872   7.313
 7688SOL    HW224839   7.265  10.998   7.252
 7689SOL     OW24840   2.937   4.740   4.338
 7689SOL    HW124841   2.993   4.786   4.400
 7689SOL    HW224842   2.991   4.728   4.260
 7690SOL     OW24843   5.505   3.533   6.466
 7690SOL    HW124844   5.428   3.494   6.507
 7690SOL    HW224845   5.530   3.470   6.398
 7691SOL     OW24846   9.255   9.427   2.929
 7691SOL    HW124847   9.228   9.414   3.020
 7691SOL    HW224848   9.293   9.344   2.902
 7692SOL     OW24849   1.579   5.225   4.214
 7692SOL    HW124850   1.501   5.209   4.266
 7692SOL    HW224851   1.609   5.138   4.187
 7693SOL     OW24852   8.430  12.720   1.171
 7693SOL    HW124853   8.391  12.651   1.224
 7693SOL    HW224854   8.498  12.758   1.227
 7694SOL     OW24855   5.772   2.660   7.163
 7694SOL    HW124856   5.699   2.644   7.224
 7694SOL    HW224857   5.833   2.715   7.212
 7695SOL     OW24858   7.278   0.222   7.420
 7695SOL    HW124859   7.351   0.168   7.450
 7695SOL    HW224860   7.306   0.256   7.335
 7696SOL     OW24861   9.669   5.442   3.971
 7696SOL    HW124862   9.636   5.475   4.054
 7696SOL    HW224863   9.665   5.347   3.980
 7697SOL     OW24864   6.729  12.237  14.690
 7697SOL    HW124865   6.766  12.287  14.763
 7697SOL    HW224866   6.802  12.186  14.655
 7698SOL     OW24867   1.139  11.061   2.001
 7698SOL    HW124868   1.224  11.019   1.994
 7698SOL    HW224869   1.077  10.994   1.974
 7699SOL     OW24870  10.917  12.301  11.446
 7699SOL    HW124871  10.878  12.356  11.377
 7699SOL    HW224872  10.943  12.364  11.514
 7700SOL     OW24873  14.190   0.119   1.980
 7700SOL    HW124874  14.242   0.173   1.920
 7700SOL    HW224875  14.235   0.034   1.980
 7701SOL     OW24876   1.269   2.479   6.720
 7701SOL    HW124877   1.196   2.433   6.761
 7701SOL    HW224878   1.324   2.410   6.683
 7702SOL     OW24879   6.227   5.261  11.967
 7702SOL    HW124880   6.178   5.276  11.886
 7702SOL    HW224881   6.318   5.258  11.940
 7703SOL     OW24882  14.492   7.099   4.286
 7703SOL    HW124883  14.535   7.071   4.367
 7703SOL    HW224884  14.454   7.019   4.250
 7704SOL     OW24885   7.410   2.529  12.895
 7704SOL    HW124886   7.423   2.603  12.836
 7704SOL    HW224887   7.499   2.502  12.920
 7705SOL     OW24888  12.977   1.438  14.771
 7705SOL    HW124889  13.023   1.362  14.735
 7705SOL    HW224890  12.928   1.473  14.697
 7706SOL     OW24891   0.740  12.456  13.010
 7706SOL    HW124892   0.786  12.411  12.939
 7706SOL    HW224893   0.730  12.390  13.078
 7707SOL     OW24894   0.527   9.078   2.514
 7707SOL    HW124895   0.439   9.062   2.548
 7707SOL    HW224896   0.577   9.109   2.589
 7708SOL     OW24897  11.032   0.731  10.723
 7708SOL    HW124898  11.051   0.735  10.630
 7708SOL    HW224899  10.981   0.651  10.735
 7709SOL     OW24900   7.823  10.004  10.749
 7709SOL    HW124901   7.912   9.972  10.736
 7709SOL    HW224902   7.814  10.013  10.844
 7710SOL     OW24903   2.487   4.337   9.112
 7710SOL    HW124904   2.574   4.296   9.121
 7710SOL    HW224905   2.429   4.265   9.087
 7711SOL     OW24906  14.655  13.867   4.117
 7711SOL    HW124907  14.628  13.958   4.130
 7711SOL    HW224908  14.743  13.863   4.155
 7712SOL     OW24909   1.928   1.394   0.107
 7712SOL    HW124910   1.883   1.463   0.156
 7712SOL    HW224911   1.956   1.437   0.026
 7713SOL     OW24912  14.736   3.982   2.990
 7713SOL    HW124913  14.812   3.973   2.933
 7713SOL    HW224914  14.714   3.892   3.016
 7714SOL     OW24915   7.426   9.093   6.290
 7714SOL    HW124916   7.424   9.055   6.377
 7714SOL    HW224917   7.363   9.166   6.294
 7715SOL     OW24918   9.507   4.368  12.988
 7715SOL    HW124919   9.479   4.373  13.079
 7715SOL    HW224920   9.573   4.438  12.979
 7716SOL     OW24921  14.860   5.095  12.111
 7716SOL    HW124922  14.838   5.018  12.059
 7716SOL    HW224923   0.078   5.100  12.106
 7717SOL     OW24924   8.871  14.032  14.163
 7717SOL    HW124925   8.957  14.053  14.200
 7717SOL    HW224926   8.887  14.023  14.069
 7718SOL     OW24927  14.839   2.073   2.055
 7718SOL    HW124928  14.745   2.058   2.040
 7718SOL    HW224929   0.004   1.995   2.019
 7719SOL     OW24930  10.423   8.476  14.687
 7719SOL    HW124931  10.372   8.417  14.743
 7719SOL    HW224932  10.458   8.542  14.746
 7720SOL     OW24933   9.051   1.024   8.072
 7720SOL    HW124934   8.958   1.006   8.060
 7720SOL    HW224935   9.092   0.994   7.991
 7721SOL     OW24936  12.427  14.725   9.967
 7721SOL    HW124937  12.336  14.733   9.940
 7721SOL    HW224938  12.430  14.646  10.021
 7722SOL     OW24939  13.366   5.339   5.812
 7722SOL    HW124940  13.435   5.403   5.799
 7722SOL    HW224941  13.335   5.353   5.901
 7723SOL     OW24942   3.318   6.430   2.338
 7723SOL    HW124943   3.354   6.401   2.422
 7723SOL    HW224944   3.223   6.421   2.347
 7724SOL     OW24945   8.728   6.315   3.091
 7724SOL    HW124946   8.766   6.350   3.172
 7724SOL    HW224947   8.774   6.361   3.021
 7725SOL     OW24948   8.108   5.497   7.953
 7725SOL    HW124949   8.131   5.511   8.045
 7725SOL    HW224950   8.174   5.546   7.904
 7726SOL     OW24951  13.546   5.847   5.444
 7726SOL    HW124952  13.565   5.903   5.369
 7726SOL    HW224953  13.537   5.759   5.407
 7727SOL     OW24954   0.106  12.669  11.944
 7727SOL    HW124955   0.136  12.679  11.853
 7727SOL    HW224956   0.185  12.645  11.992
 7728SOL     OW24957   6.562  11.048  14.791
 7728SOL    HW124958   6.578  11.141  14.780
 7728SOL    HW224959   6.484  11.043  14.846
 7729SOL     OW24960   2.253   9.213   7.809
 7729SOL    HW124961   2.324   9.266   7.771
 7729SOL    HW224962   2.297   9.152   7.868
 7730SOL     OW24963   8.008  12.657   7.225
 7730SOL    HW124964   7.958  12.716   7.282
 7730SOL    HW224965   7.943  12.625   7.162
 7731SOL     OW24966  13.111   2.172  12.178
 7731SOL    HW124967  13.039   2.123  12.218
 7731SOL    HW224968  13.086   2.264  12.189
 7732SOL     OW24969   7.917   2.081   4.875
 7732SOL    HW124970   7.826   2.055   4.888
 7732SOL    HW224971   7.932   2.149   4.941
 7733SOL     OW24972   6.979   6.351   4.100
 7733SOL    HW124973   6.972   6.279   4.037
 7733SOL    HW224974   7.023   6.313   4.176
 7734SOL     OW24975   1.317   6.551   4.796
 7734SOL    HW124976   1.307   6.635   4.751
 7734SOL    HW224977   1.411   6.543   4.811
 7735SOL     OW24978   5.529  14.024   5.341
 7735SOL    HW124979   5.520  14.071   5.424
 7735SOL    HW224980   5.614  14.050   5.308
 7736SOL     OW24981   6.920   0.472   0.016
 7736SOL    HW124982   6.843   0.455   0.070
 7736SOL    HW224983   6.953   0.385  14.869
 7737SOL     OW24984   5.644   2.666   8.113
 7737SOL    HW124985   5.708   2.623   8.170
 7737SOL    HW224986   5.565   2.673   8.166
 7738SOL     OW24987   4.328   4.689  14.737
 7738SOL    HW124988   4.249   4.681  14.684
 7738SOL    HW224989   4.332   4.609  14.788
 7739SOL     OW24990   2.776   9.995  13.751
 7739SOL    HW124991   2.788  10.039  13.667
 7739SOL    HW224992   2.751   9.905  13.728
 7740SOL     OW24993   2.599   3.919   9.012
 7740SOL    HW124994   2.598   3.925   8.916
 7740SOL    HW224995   2.511   3.888   9.035
 7741SOL     OW24996  11.654   1.592  13.246
 7741SOL    HW124997  11.700   1.539  13.180
 7741SOL    HW224998  11.708   1.585  13.324
 7742SOL     OW24999  11.614   6.892   2.652
 7742SOL    HW125000  11.525   6.923   2.635
 7742SOL    HW225001  11.603   6.798   2.668
 7743SOL     OW25002   5.051   2.008   0.388
 7743SOL    HW125003   5.034   1.946   0.318
 7743SOL    HW225004   4.965   2.044   0.411
 7744SOL     OW25005  13.335   3.222   9.734
 7744SOL    HW125006  13.415   3.232   9.683
 7744SOL    HW225007  13.275   3.289   9.699
 7745SOL     OW25008   4.780   8.935  12.142
 7745SOL    HW125009   4.871   8.954  12.162
 7745SOL    HW225010   4.733   9.017  12.161
 7746SOL     OW25011  13.735  11.204  13.759
 7746SOL    HW125012  13.789  11.283  13.757
 7746SOL    HW225013  13.748  11.168  13.847
 7747SOL     OW25014   4.258   5.878   9.326
 7747SOL    HW125015   4.319   5.934   9.374
 7747SOL    HW225016   4.181   5.872   9.383
 7748SOL     OW25017   7.298   1.343   2.826
 7748SOL    HW125018   7.311   1.248   2.822
 7748SOL    HW225019   7.378   1.376   2.867
 7749SOL     OW25020  12.026  11.745   4.836
 7749SOL    HW125021  12.087  11.673   4.848
 7749SOL    HW225022  11.940  11.703   4.834
 7750SOL     OW25023  14.157   0.045   5.041
 7750SOL    HW125024  14.074  14.875   5.044
 7750SOL    HW225025  14.157   0.098   5.121
 7751SOL     OW25026   5.344   0.735  13.340
 7751SOL    HW125027   5.381   0.744  13.253
 7751SOL    HW225028   5.358   0.644  13.364
 7752SOL     OW25029   1.834   7.788   8.837
 7752SOL    HW125030   1.772   7.859   8.824
 7752SOL    HW225031   1.782   7.718   8.877
 7753SOL     OW25032   6.125   6.962   1.081
 7753SOL    HW125033   6.195   6.942   1.019
 7753SOL    HW225034   6.078   6.879   1.091
 7754SOL     OW25035   3.566   2.401  13.339
 7754SOL    HW125036   3.644   2.378  13.287
 7754SOL    HW225037   3.493   2.388  13.279
 7755SOL     OW25038   5.934   3.141  12.956
 7755SOL    HW125039   5.994   3.081  12.913
 7755SOL    HW225040   5.894   3.190  12.885
 7756SOL     OW25041   9.437  10.927   5.046
 7756SOL    HW125042   9.358  10.954   5.094
 7756SOL    HW225043   9.425  10.961   4.958
 7757SOL     OW25044   0.372   7.613  11.762
 7757SOL    HW125045   0.376   7.550  11.690
 7757SOL    HW225046   0.462   7.615  11.796
 7758SOL     OW25047  13.698   6.021   3.945
 7758SOL    HW125048  13.676   5.941   3.992
 7758SOL    HW225049  13.683   6.091   4.009
 7759SOL     OW25050   4.807   3.537  10.109
 7759SOL    HW125051   4.755   3.614  10.132
 7759SOL    HW225052   4.792   3.525  10.016
 7760SOL     OW25053  13.783  13.595  14.015
 7760SOL    HW125054  13.868  13.562  14.045
 7760SOL    HW225055  13.741  13.628  14.094
 7761SOL     OW25056   8.123   2.673   7.366
 7761SOL    HW125057   8.067   2.733   7.317
 7761SOL    HW225058   8.067   2.598   7.384
 7762SOL     OW25059  10.088  10.151  10.369
 7762SOL    HW125060  10.080  10.152  10.465
 7762SOL    HW225061  10.003  10.119  10.339
 7763SOL     OW25062   5.848   5.997   7.571
 7763SOL    HW125063   5.786   6.052   7.618
 7763SOL    HW225064   5.816   5.997   7.481
 7764SOL     OW25065   3.009  13.966  10.492
 7764SOL    HW125066   2.989  13.874  10.509
 7764SOL    HW225067   2.960  14.014  10.559
 7765SOL     OW25068   0.958   3.557   2.876
 7765SOL    HW125069   0.981   3.649   2.863
 7765SOL    HW225070   0.985   3.538   2.966
 7766SOL     OW25071  14.423   2.105  12.899
 7766SOL    HW125072  14.469   2.190  12.897
 7766SOL    HW225073  14.426   2.079  12.991
 7767SOL     OW25074   1.107  12.157   6.043
 7767SOL    HW125075   1.137  12.224   6.105
 7767SOL    HW225076   1.126  12.194   5.957
 7768SOL     OW25077  10.870  13.250   5.979
 7768SOL    HW125078  10.909  13.255   5.892
 7768SOL    HW225079  10.930  13.299   6.035
 7769SOL     OW25080  13.734   7.409   3.545
 7769SOL    HW125081  13.745   7.407   3.450
 7769SOL    HW225082  13.714   7.319   3.568
 7770SOL     OW25083   5.219   3.407  13.470
 7770SOL    HW125084   5.274   3.453  13.407
 7770SOL    HW225085   5.248   3.316  13.467
 7771SOL     OW25086   1.767  10.330  12.484
 7771SOL    HW125087   1.861  10.318  12.477
 7771SOL    HW225088   1.751  10.342  12.578
 7772SOL     OW25089   3.797  11.819   9.286
 7772SOL    HW125090   3.789  11.877   9.210
 7772SOL    HW225091   3.748  11.864   9.356
 7773SOL     OW25092  14.165   5.136  12.312
 7773SOL    HW125093  14.174   5.093  12.227
 7773SOL    HW225094  14.208   5.077  12.373
 7774SOL     OW25095   4.070  10.308  13.802
 7774SOL    HW125096   4.138  10.250  13.767
 7774SOL    HW225097   4.001  10.249  13.831
 7775SOL     OW25098   3.547   1.115  11.274
 7775SOL    HW125099   3.511   1.116  11.363
 7775SOL    HW225100   3.642   1.118  11.287
 7776SOL     OW25101   0.280   0.150   8.398
 7776SOL    HW125102   0.221   0.222   8.376
 7776SOL    HW225103   0.352   0.191   8.446
 7777SOL     OW25104  11.414  12.600   0.844
 7777SOL    HW125105  11.465  12.674   0.811
 7777SOL    HW225106  11.478  12.542   0.885
 7778SOL     OW25107  13.405  12.063   6.340
 7778SOL    HW125108  13.357  12.004   6.398
 7778SOL    HW225109  13.465  12.006   6.292
 7779SOL     OW25110   1.615   7.410  13.207
 7779SOL    HW125111   1.527   7.420  13.245
 7779SOL    HW225112   1.607   7.446  13.119
 7780SOL     OW25113   9.873  14.508   8.796
 7780SOL    HW125114   9.909  14.523   8.708
 7780SOL    HW225115   9.930  14.442   8.835
 7781SOL     OW25116   5.617  12.487  12.875
 7781SOL    HW125117   5.688  12.522  12.929
 7781SOL    HW225118   5.538  12.529  12.911
 7782SOL     OW25119   1.477   8.862  14.241
 7782SOL    HW125120   1.403   8.915  14.272
 7782SOL    HW225121   1.517   8.915  14.172
 7783SOL     OW25122   3.012   9.401  14.623
 7783SOL    HW125123   3.049   9.318  14.595
 7783SOL    HW225124   3.071   9.431  14.693
 7784SOL     OW25125   7.802   1.992   9.845
 7784SOL    HW125126   7.769   1.920   9.791
 7784SOL    HW225127   7.817   2.064   9.783
 7785SOL     OW25128   8.508   8.568  11.377
 7785SOL    HW125129   8.592   8.608  11.401
 7785SOL    HW225130   8.523   8.531  11.290
 7786SOL     OW25131   5.850   8.576   4.267
 7786SOL    HW125132   5.851   8.486   4.298
 7786SOL    HW225133   5.818   8.570   4.177
 7787SOL     OW25134   1.903   3.998   7.205
 7787SOL    HW125135   1.832   4.011   7.268
 7787SOL    HW225136   1.938   4.086   7.191
 7788SOL     OW25137   1.548  10.392  13.662
 7788SOL    HW125138   1.513  10.401  13.750
 7788SOL    HW225139   1.498  10.453  13.609
 7789SOL     OW25140   2.956  14.768   4.767
 7789SOL    HW125141   2.925  14.759   4.677
 7789SOL    HW225142   2.897  14.714   4.819
 7790SOL     OW25143   0.150   7.805   1.415
 7790SOL    HW125144   0.207   7.829   1.488
 7790SOL    HW225145   0.089   7.878   1.407
 7791SOL     OW25146  12.075   4.016  11.403
 7791SOL    HW125147  12.115   3.946  11.352
 7791SOL    HW225148  12.131   4.023  11.481
 7792SOL     OW25149  10.531   2.105   7.439
 7792SOL    HW125150  10.517   2.102   7.344
 7792SOL    HW225151  10.592   2.034   7.456
 7793SOL     OW25152   9.462   6.130   6.095
 7793SOL    HW125153   9.524   6.113   6.166
 7793SOL    HW225154   9.492   6.212   6.056
 7794SOL     OW25155   3.537   2.641   1.338
 7794SOL    HW125156   3.501   2.679   1.258
 7794SOL    HW225157   3.485   2.562   1.352
 7795SOL     OW25158   8.516  14.396  14.105
 7795SOL    HW125159   8.455  14.406  14.032
 7795SOL    HW225160   8.470  14.435  14.179
 7796SOL     OW25161  12.050   4.423   3.232
 7796SOL    HW125162  12.091   4.380   3.307
 7796SOL    HW225163  11.996   4.355   3.192
 7797SOL     OW25164   6.545  10.592   7.818
 7797SOL    HW125165   6.530  10.498   7.827
 7797SOL    HW225166   6.600  10.614   7.894
 7798SOL     OW25167  10.016  12.435   3.134
 7798SOL    HW125168  10.098  12.482   3.147
 7798SOL    HW225169  10.028  12.386   3.053
 7799SOL     OW25170   9.207   4.055  10.456
 7799SOL    HW125171   9.219   4.144  10.489
 7799SOL    HW225172   9.271   4.002  10.503
 7800SOL     OW25173   3.285   4.320   1.974
 7800SOL    HW125174   3.284   4.415   1.984
 7800SOL    HW225175   3.277   4.286   2.063
 7801SOL     OW25176   7.998   4.296   8.758
 7801SOL    HW125177   7.957   4.213   8.733
 7801SOL    HW225178   7.929   4.361   8.745
 7802SOL     OW25179   8.869   1.771   7.329
 7802SOL    HW125180   8.953   1.799   7.364
 7802SOL    HW225181   8.866   1.676   7.343
 7803SOL     OW25182  10.581  14.821  10.982
 7803SOL    HW125183  10.505   0.001  10.983
 7803SOL    HW225184  10.588  14.789  11.072
 7804SOL     OW25185   5.160   4.510   5.057
 7804SOL    HW125186   5.105   4.564   5.000
 7804SOL    HW225187   5.230   4.478   5.001
 7805SOL     OW25188  14.675  11.171  14.736
 7805SOL    HW125189  14.627  11.223  14.671
 7805SOL    HW225190  14.697  11.234  14.805
 7806SOL     OW25191  10.819   1.320   1.767
 7806SOL    HW125192  10.883   1.262   1.726
 7806SOL    HW225193  10.758   1.342   1.697
 7807SOL     OW25194   8.384  10.504   6.002
 7807SOL    HW125195   8.407  10.509   6.095
 7807SOL    HW225196   8.466  10.525   5.957
 7808SOL     OW25197  10.777  14.876   8.884
 7808SOL    HW125198  10.699  14.841   8.841
 7808SOL    HW225199  10.831  14.800   8.904
 7809SOL     OW25200   8.739   3.320   6.632
 7809SOL    HW125201   8.812   3.335   6.692
 7809SOL    HW225202   8.742   3.393   6.571
 7810SOL     OW25203   7.224  10.994   1.622
 7810SOL    HW125204   7.314  10.984   1.591
 7810SOL    HW225205   7.187  10.905   1.616
 7811SOL     OW25206  11.118   0.031   8.480
 7811SOL    HW125207  11.079   0.024   8.393
 7811SOL    HW225208  11.044   0.041   8.540
 7812SOL     OW25209   2.586   0.035  14.591
 7812SOL    HW125210   2.674   0.071  14.603
 7812SOL    HW225211   2.550   0.082  14.516
 7813SOL     OW25212  14.691  10.068  13.374
 7813SOL    HW125213  14.627   9.998  13.388
 7813SOL    HW225214  14.664  10.137  13.435
 7814SOL     OW25215  13.387   4.079   3.802
 7814SOL    HW125216  13.340   4.028   3.736
 7814SOL    HW225217  13.338   4.065   3.883
 7815SOL     OW25218   4.565  10.202  10.443
 7815SOL    HW125219   4.627  10.130  10.427
 7815SOL    HW225220   4.525  10.217  10.358
 7816SOL     OW25221   2.930  14.823  14.171
 7816SOL    HW125222   2.988  14.770  14.226
 7816SOL    HW225223   2.930   0.032  14.212
 7817SOL     OW25224   1.905  11.029  12.877
 7817SOL    HW125225   1.997  11.058  12.875
 7817SOL    HW225226   1.864  11.087  12.941
 7818SOL     OW25227  14.198   4.733   8.410
 7818SOL    HW125228  14.195   4.638   8.407
 7818SOL    HW225229  14.107   4.760   8.424
 7819SOL     OW25230  14.366  11.909   0.284
 7819SOL    HW125231  14.316  11.988   0.304
 7819SOL    HW225232  14.443  11.941   0.238
 7820SOL     OW25233  13.824   2.145   0.528
 7820SOL    HW125234  13.773   2.083   0.476
 7820SOL    HW225235  13.762   2.177   0.594
 7821SOL     OW25236   5.302   8.517  10.125
 7821SOL    HW125237   5.341   8.481  10.205
 7821SOL    HW225238   5.261   8.442  10.082
 7822SOL     OW25239   2.266   4.708  10.897
 7822SOL    HW125240   2.261   4.797  10.932
 7822SOL    HW225241   2.278   4.719  10.803
 7823SOL     OW25242   9.748   1.284   3.319
 7823SOL    HW125243   9.832   1.242   3.298
 7823SOL    HW225244   9.707   1.298   3.234
 7824SOL     OW25245  10.303  10.340  11.613
 7824SOL    HW125246  10.246  10.264  11.596
 7824SOL    HW225247  10.384  10.320  11.567
 7825SOL     OW25248   6.134   6.876   3.474
 7825SOL    HW125249   6.225   6.848   3.468
 7825SOL    HW225250   6.112   6.906   3.386
 7826SOL     OW25251  13.679   6.861  12.260
 7826SOL    HW125252  13.658   6.934  12.318
 7826SOL    HW225253  13.636   6.882  12.177
 7827SOL     OW25254  14.541   8.039   7.658
 7827SOL    HW125255  14.564   8.132   7.660
 7827SOL    HW225256  14.625   7.994   7.650
 7828SOL     OW25257   4.830   2.221   0.587
 7828SOL    HW125258   4.807   2.131   0.567
 7828SOL    HW225259   4.751   2.259   0.624
 7829SOL     OW25260   4.968  11.869   5.131
 7829SOL    HW125261   4.881  11.906   5.117
 7829SOL    HW225262   4.993  11.899   5.218
 7830SOL     OW25263  12.737  11.925  11.374
 7830SOL    HW125264  12.820  11.883  11.394
 7830SOL    HW225265  12.719  11.901  11.283
 7831SOL     OW25266   1.083   8.211  14.161
 7831SOL    HW125267   1.049   8.150  14.096
 7831SOL    HW225268   1.162   8.169  14.194
 7832SOL     OW25269   3.328   7.239  12.384
 7832SOL    HW125270   3.420   7.221  12.406
 7832SOL    HW225271   3.328   7.329  12.353
 7833SOL     OW25272   3.947   3.609   6.510
 7833SOL    HW125273   4.031   3.591   6.552
 7833SOL    HW225274   3.953   3.700   6.482
 7834SOL     OW25275  13.798  14.768  10.363
 7834SOL    HW125276  13.842  14.730  10.439
 7834SOL    HW225277  13.808  14.863  10.375
 7835SOL     OW25278   7.376  12.782   5.081
 7835SOL    HW125279   7.283  12.791   5.102
 7835SOL    HW225280   7.378  12.725   5.004
 7836SOL     OW25281   7.583  12.934   4.259
 7836SOL    HW125282   7.608  13.026   4.246
 7836SOL    HW225283   7.664  12.890   4.283
 7837SOL     OW25284   5.472   0.754   1.929
 7837SOL    HW125285   5.444   0.769   1.839
 7837SOL    HW225286   5.497   0.840   1.962
 7838SOL     OW25287   1.106  11.449  13.572
 7838SOL    HW125288   1.181  11.390  13.563
 7838SOL    HW225289   1.140  11.523  13.622
 7839SOL     OW25290  13.805  11.134   4.975
 7839SOL    HW125291  13.738  11.177   5.028
 7839SOL    HW225292  13.785  11.160   4.885
 7840SOL     OW25293  14.407   0.886   0.644
 7840SOL    HW125294  14.501   0.899   0.638
 7840SOL    HW225295  14.397   0.803   0.689
 7841SOL     OW25296   8.430   5.276   4.169
 7841SOL    HW125297   8.496   5.272   4.238
 7841SOL    HW225298   8.358   5.222   4.201
 7842SOL     OW25299   3.229   9.061  12.864
 7842SOL    HW125300   3.179   9.058  12.783
 7842SOL    HW225301   3.246   9.154  12.879
 7843SOL     OW25302   5.829   9.486  11.844
 7843SOL    HW125303   5.760   9.447  11.898
 7843SOL    HW225304   5.792   9.485  11.755
 7844SOL     OW25305   6.905   9.318   8.510
 7844SOL    HW125306   6.892   9.311   8.416
 7844SOL    HW225307   6.960   9.396   8.521
 7845SOL     OW25308   0.051   4.554  12.975
 7845SOL    HW125309   0.143   4.542  12.996
 7845SOL    HW225310   0.043   4.531  12.883
 7846SOL     OW25311   4.836  10.449   5.398
 7846SOL    HW125312   4.785  10.487   5.327
 7846SOL    HW225313   4.916  10.502   5.402
 7847SOL     OW25314  13.438  12.139  11.730
 7847SOL    HW125315  13.422  12.156  11.823
 7847SOL    HW225316  13.459  12.046  11.725
 7848SOL     OW25317  13.131  11.855  11.980
 7848SOL    HW125318  13.071  11.783  11.964
 7848SOL    HW225319  13.142  11.897  11.894
 7849SOL     OW25320   1.684   4.227   6.348
 7849SOL    HW125321   1.779   4.236   6.338
 7849SOL    HW225322   1.672   4.211   6.442
 7850SOL     OW25323   9.975   5.692  12.072
 7850SOL    HW125324   9.981   5.750  11.996
 7850SOL    HW225325   9.901   5.635  12.053
 7851SOL     OW25326  10.484  14.135  13.507
 7851SOL    HW125327  10.477  14.142  13.602
 7851SOL    HW225328  10.407  14.182  13.474
 7852SOL     OW25329  11.397   2.494   0.013
 7852SOL    HW125330  11.316   2.448   0.032
 7852SOL    HW225331  11.431   2.451  14.812
 7853SOL     OW25332   1.623   0.337   1.114
 7853SOL    HW125333   1.599   0.285   1.037
 7853SOL    HW225334   1.571   0.301   1.185
 7854SOL     OW25335  12.843   3.006   5.629
 7854SOL    HW125336  12.802   3.008   5.715
 7854SOL    HW225337  12.872   2.915   5.619
 7855SOL     OW25338   6.007  11.207   1.621
 7855SOL    HW125339   5.999  11.270   1.550
 7855SOL    HW225340   6.078  11.240   1.676
 7856SOL     OW25341   0.495  12.335   1.926
 7856SOL    HW125342   0.493  12.245   1.894
 7856SOL    HW225343   0.567  12.338   1.988
 7857SOL     OW25344   1.305  10.956  11.647
 7857SOL    HW125345   1.271  10.969  11.559
 7857SOL    HW225346   1.230  10.970  11.705
 7858SOL     OW25347   4.690   8.864  11.327
 7858SOL    HW125348   4.741   8.873  11.247
 7858SOL    HW225349   4.619   8.928  11.318
 7859SOL     OW25350   8.342  10.204   0.479
 7859SOL    HW125351   8.257  10.223   0.439
 7859SOL    HW225352   8.400  10.273   0.447
 7860SOL     OW25353   2.020  12.045   0.044
 7860SOL    HW125354   1.933  12.084   0.037
 7860SOL    HW225355   2.020  11.975  14.857
 7861SOL     OW25356  12.284   8.952  10.202
 7861SOL    HW125357  12.283   8.886  10.134
 7861SOL    HW225358  12.221   9.018  10.174
 7862SOL     OW25359   0.701  13.896   4.384
 7862SOL    HW125360   0.687  13.807   4.417
 7862SOL    HW225361   0.724  13.947   4.461
 7863SOL     OW25362  14.699   6.117   6.514
 7863SOL    HW125363  14.684   6.188   6.451
 7863SOL    HW225364  14.737   6.046   6.463
 7864SOL     OW25365  10.939  12.666   6.469
 7864SOL    HW125366  10.918  12.607   6.541
 7864SOL    HW225367  11.013  12.625   6.425
 7865SOL     OW25368  10.276  11.327   7.208
 7865SOL    HW125369  10.216  11.392   7.244
 7865SOL    HW225370  10.239  11.243   7.234
 7866SOL     OW25371   7.164  14.751   4.119
 7866SOL    HW125372   7.112  14.678   4.154
 7866SOL    HW225373   7.103  14.801   4.066
 7867SOL     OW25374  11.250   1.147  14.588
 7867SOL    HW125375  11.323   1.087  14.601
 7867SOL    HW225376  11.249   1.201  14.667
 7868SOL     OW25377  10.885   7.954   8.979
 7868SOL    HW125378  10.957   8.008   9.012
 7868SOL    HW225379  10.806   7.995   9.014
 7869SOL     OW25380   1.330  14.186   0.380
 7869SOL    HW125381   1.304  14.147   0.297
 7869SOL    HW225382   1.413  14.144   0.403
 7870SOL     OW25383  11.003  11.352   6.851
 7870SOL    HW125384  10.939  11.357   6.780
 7870SOL    HW225385  11.086  11.378   6.811
 7871SOL     OW25386   3.287   0.691   3.309
 7871SOL    HW125387   3.216   0.630   3.328
 7871SOL    HW225388   3.344   0.645   3.248
 7872SOL     OW25389  10.408   8.016  10.373
 7872SOL    HW125390  10.383   8.074  10.446
 7872SOL    HW225391  10.325   7.995  10.330
 7873SOL     OW25392   6.005   1.975   3.101
 7873SOL    HW125393   6.035   2.058   3.065
 7873SOL    HW225394   5.912   1.988   3.118
 7874SOL     OW25395   5.349  13.341   4.767
 7874SOL    HW125396   5.413  13.269   4.757
 7874SOL    HW225397   5.273  13.312   4.717
 7875SOL     OW25398   6.507   6.369  11.723
 7875SOL    HW125399   6.422   6.396  11.757
 7875SOL    HW225400   6.509   6.403  11.633
 7876SOL     OW25401  12.083   0.187   7.862
 7876SOL    HW125402  12.062   0.166   7.771
 7876SOL    HW225403  12.136   0.267   7.856
 7877SOL     OW25404   4.915  12.723  14.390
 7877SOL    HW125405   4.959  12.782  14.330
 7877SOL    HW225406   4.895  12.646  14.337
 7878SOL     OW25407   3.024   8.640   6.525
 7878SOL    HW125408   3.010   8.548   6.500
 7878SOL    HW225409   3.034   8.638   6.620
 7879SOL     OW25410   1.686   4.593  12.967
 7879SOL    HW125411   1.655   4.503  12.955
 7879SOL    HW225412   1.732   4.614  12.885
 7880SOL     OW25413   7.849   7.260  12.883
 7880SOL    HW125414   7.770   7.312  12.866
 7880SOL    HW225415   7.909   7.322  12.924
 7881SOL     OW25416   3.298   0.671   6.053
 7881SOL    HW125417   3.252   0.622   5.985
 7881SOL    HW225418   3.231   0.689   6.119
 7882SOL     OW25419  12.450  13.474   3.413
 7882SOL    HW125420  12.540  13.462   3.385
 7882SOL    HW225421  12.416  13.385   3.426
 7883SOL     OW25422   8.521   0.081  14.428
 7883SOL    HW125423   8.467   0.155  14.400
 7883SOL    HW225424   8.568   0.054  14.348
 7884SOL     OW25425   5.745   0.710   2.908
 7884SOL    HW125426   5.673   0.764   2.940
 7884SOL    HW225427   5.816   0.772   2.893
 7885SOL     OW25428   6.146   8.429  12.897
 7885SOL    HW125429   6.125   8.338  12.916
 7885SOL    HW225430   6.138   8.437  12.802
 7886SOL     OW25431   8.865  10.734  13.639
 7886SOL    HW125432   8.876  10.653  13.688
 7886SOL    HW225433   8.779  10.726  13.598
 7887SOL     OW25434   2.799   7.947  10.596
 7887SOL    HW125435   2.743   7.870  10.598
 7887SOL    HW225436   2.803   7.970  10.503
 7888SOL     OW25437   3.794  12.560  11.073
 7888SOL    HW125438   3.820  12.578  10.982
 7888SOL    HW225439   3.741  12.480  11.067
 7889SOL     OW25440   1.976   1.373  13.058
 7889SOL    HW125441   2.034   1.384  13.134
 7889SOL    HW225442   2.028   1.402  12.983
 7890SOL     OW25443   7.310   9.816  13.940
 7890SOL    HW125444   7.371   9.877  13.898
 7890SOL    HW225445   7.244   9.798  13.873
 7891SOL     OW25446   1.388   6.338   8.590
 7891SOL    HW125447   1.321   6.331   8.658
 7891SOL    HW225448   1.341   6.321   8.508
 7892SOL     OW25449   2.171  13.052   2.737
 7892SOL    HW125450   2.173  13.044   2.642
 7892SOL    HW225451   2.108  12.986   2.766
 7893SOL     OW25452   4.927  11.075   0.169
 7893SOL    HW125453   4.996  11.010   0.158
 7893SOL    HW225454   4.971  11.159   0.161
 7894SOL     OW25455   4.167  14.509   4.780
 7894SOL    HW125456   4.148  14.483   4.871
 7894SOL    HW225457   4.098  14.571   4.758
 7895SOL     OW25458   8.689  13.493   8.807
 7895SOL    HW125459   8.714  13.501   8.715
 7895SOL    HW225460   8.593  13.491   8.805
 7896SOL     OW25461   4.947  13.133   2.475
 7896SOL    HW125462   4.915  13.120   2.386
 7896SOL    HW225463   5.023  13.191   2.465
 7897SOL     OW25464   9.066  11.468   7.872
 7897SOL    HW125465   9.121  11.394   7.848
 7897SOL    HW225466   9.009  11.482   7.797
 7898SOL     OW25467   5.180   8.503  14.402
 7898SOL    HW125468   5.165   8.476  14.493
 7898SOL    HW225469   5.193   8.598  14.407
 7899SOL     OW25470   8.416   9.227  10.351
 7899SOL    HW125471   8.425   9.292  10.282
 7899SOL    HW225472   8.424   9.143  10.306
 7900SOL     OW25473  14.502  13.254   3.757
 7900SOL    HW125474  14.490  13.332   3.810
 7900SOL    HW225475  14.562  13.199   3.808
 7901SOL     OW25476  13.760  11.780  11.850
 7901SOL    HW125477  13.678  11.795  11.803
 7901SOL    HW225478  13.804  11.865  11.851
 7902SOL     OW25479   6.532   0.461   4.499
 7902SOL    HW125480   6.538   0.401   4.574
 7902SOL    HW225481   6.442   0.453   4.468
 7903SOL     OW25482   6.364   3.768   9.342
 7903SOL    HW125483   6.371   3.813   9.426
 7903SOL    HW225484   6.273   3.780   9.316
 7904SOL     OW25485   5.875   7.887   2.781
 7904SOL    HW125486   5.912   7.935   2.706
 7904SOL    HW225487   5.937   7.816   2.796
 7905SOL     OW25488   9.757   0.493   7.374
 7905SOL    HW125489   9.703   0.429   7.420
 7905SOL    HW225490   9.818   0.525   7.440
 7906SOL     OW25491   3.977  10.051   1.184
 7906SOL    HW125492   3.913  10.119   1.206
 7906SOL    HW225493   3.985  10.056   1.088
 7907SOL     OW25494  14.790   9.099  13.221
 7907SOL    HW125495  14.854   9.169  13.206
 7907SOL    HW225496  14.814   9.063  13.307
 7908SOL     OW25497   7.052   9.033  14.140
 7908SOL    HW125498   7.130   8.983  14.165
 7908SOL    HW225499   7.071   9.062  14.050
 7909SOL     OW25500   8.678   9.327   2.673
 7909SOL    HW125501   8.681   9.302   2.765
 7909SOL    HW225502   8.762   9.298   2.638
 7910SOL     OW25503  11.773  14.751   5.268
 7910SOL    HW125504  11.710  14.688   5.303
 7910SOL    HW225505  11.806  14.711   5.188
 7911SOL     OW25506   3.052   6.404   2.288
 7911SOL    HW125507   2.993   6.429   2.359
 7911SOL    HW225508   3.019   6.321   2.256
 7912SOL     OW25509   8.165   2.463   3.322
 7912SOL    HW125510   8.122   2.546   3.301
 7912SOL    HW225511   8.120   2.432   3.401
 7913SOL     OW25512   4.342  13.120   5.872
 7913SOL    HW125513   4.281  13.116   5.945
 7913SOL    HW225514   4.374  13.031   5.862
 7914SOL     OW25515   6.764  12.077   2.170
 7914SOL    HW125516   6.680  12.123   2.169
 7914SOL    HW225517   6.809  12.112   2.247
 7915SOL     OW25518   2.989   9.691   4.608
 7915SOL    HW125519   3.045   9.640   4.667
 7915SOL    HW225520   2.914   9.634   4.590
 7916SOL     OW25521  14.412   7.567  11.732
 7916SOL    HW125522  14.368   7.590  11.650
 7916SOL    HW225523  14.343   7.530  11.787
 7917SOL     OW25524  10.439  12.706   0.314
 7917SOL    HW125525  10.391  12.749   0.385
 7917SOL    HW225526  10.477  12.778   0.263
 7918SOL     OW25527  12.341  12.293   3.520
 7918SOL    HW125528  12.269  12.299   3.582
 7918SOL    HW225529  12.412  12.344   3.560
 7919SOL     OW25530  12.591   4.336  13.566
 7919SOL    HW125531  12.521   4.325  13.630
 7919SOL    HW225532  12.573   4.420  13.525
 7920SOL     OW25533   3.265   7.733  13.838
 7920SOL    HW125534   3.170   7.739  13.830
 7920SOL    HW225535   3.283   7.639  13.840
 7921SOL     OW25536  11.613   6.715  14.178
 7921SOL    HW125537  11.660   6.767  14.242
 7921SOL    HW225538  11.586   6.636  14.225
 7922SOL     OW25539  13.700   5.618   4.551
 7922SOL    HW125540  13.655   5.533   4.545
 7922SOL    HW225541  13.771   5.611   4.487
 7923SOL     OW25542   9.636  10.535  14.502
 7923SOL    HW125543   9.641  10.510  14.594
 7923SOL    HW225544   9.554  10.584  14.494
 7924SOL     OW25545   6.691   4.127   1.907
 7924SOL    HW125546   6.633   4.107   1.980
 7924SOL    HW225547   6.647   4.091   1.830
 7925SOL     OW25548   4.023  14.796   8.517
 7925SOL    HW125549   3.972  14.734   8.466
 7925SOL    HW225550   3.985  14.792   8.605
 7926SOL     OW25551   5.431  12.409   5.463
 7926SOL    HW125552   5.374  12.485   5.462
 7926SOL    HW225553   5.430  12.378   5.553
 7927SOL     OW25554   6.894   8.813  10.053
 7927SOL    HW125555   6.821   8.822   9.991
 7927SOL    HW225556   6.907   8.718  10.061
 7928SOL     OW25557   9.361   2.883   0.508
 7928SOL    HW125558   9.361   2.970   0.467
 7928SOL    HW225559   9.303   2.893   0.584
 7929SOL     OW25560   1.907   3.390   5.083
 7929SOL    HW125561   1.967   3.357   5.150
 7929SOL    HW225562   1.821   3.357   5.109
 7930SOL     OW25563  13.063   3.336  11.056
 7930SOL    HW125564  13.068   3.432  11.058
 7930SOL    HW225565  13.074   3.313  10.964
 7931SOL     OW25566  12.595   3.117  10.458
 7931SOL    HW125567  12.553   3.203  10.460
 7931SOL    HW225568  12.660   3.121  10.529
 7932SOL     OW25569   8.779   1.361   6.222
 7932SOL    HW125570   8.839   1.303   6.269
 7932SOL    HW225571   8.692   1.330   6.248
 7933SOL     OW25572   7.262   0.627   8.996
 7933SOL    HW125573   7.338   0.640   8.939
 7933SOL    HW225574   7.186   0.644   8.941
 7934SOL     OW25575   9.172  11.780   1.065
 7934SOL    HW125576   9.136  11.801   0.979
 7934SOL    HW225577   9.259  11.821   1.066
 7935SOL     OW25578   7.398   5.808   3.767
 7935SOL    HW125579   7.374   5.757   3.844
 7935SOL    HW225580   7.486   5.779   3.745
 7936SOL     OW25581   4.807   0.402  10.556
 7936SOL    HW125582   4.897   0.420  10.530
 7936SOL    HW225583   4.772   0.347  10.486
 7937SOL     OW25584   8.707   4.221   5.886
 7937SOL    HW125585   8.659   4.182   5.813
 7937SOL    HW225586   8.758   4.148   5.921
 7938SOL     OW25587   9.300   6.302  11.119
 7938SOL    HW125588   9.217   6.260  11.142
 7938SOL    HW225589   9.276   6.370  11.056
 7939SOL     OW25590  12.511  11.262   7.808
 7939SOL    HW125591  12.480  11.349   7.781
 7939SOL    HW225592  12.489  11.256   7.901
 7940SOL     OW25593   3.131   0.470   5.939
 7940SOL    HW125594   3.131   0.374   5.941
 7940SOL    HW225595   3.084   0.495   6.019
 7941SOL     OW25596   4.068  11.297   6.634
 7941SOL    HW125597   3.980  11.272   6.607
 7941SOL    HW225598   4.083  11.248   6.715
 7942SOL     OW25599   4.451   3.950   7.012
 7942SOL    HW125600   4.417   3.965   7.100
 7942SOL    HW225601   4.378   3.969   6.954
 7943SOL     OW25602   7.790  10.913  11.646
 7943SOL    HW125603   7.774  10.963  11.726
 7943SOL    HW225604   7.735  10.955  11.580
 7944SOL     OW25605   7.736   8.043  12.805
 7944SOL    HW125606   7.790   8.018  12.880
 7944SOL    HW225607   7.730   7.964  12.751
 7945SOL     OW25608  10.359  10.315  11.251
 7945SOL    HW125609  10.324  10.247  11.308
 7945SOL    HW225610  10.300  10.316  11.176
 7946SOL     OW25611   7.477   8.399   9.513
 7946SOL    HW125612   7.476   8.490   9.484
 7946SOL    HW225613   7.470   8.405   9.609
 7947SOL     OW25614   2.462  14.389   7.345
 7947SOL    HW125615   2.497  14.326   7.283
 7947SOL    HW225616   2.386  14.345   7.385
 7948SOL     OW25617   0.672  14.769  12.403
 7948SOL    HW125618   0.677  14.724  12.319
 7948SOL    HW225619   0.602  14.833  12.391
 7949SOL     OW25620   6.284  11.467   4.100
 7949SOL    HW125621   6.336  11.545   4.081
 7949SOL    HW225622   6.328  11.397   4.052
 7950SOL     OW25623   4.970   0.540   6.424
 7950SOL    HW125624   4.992   0.584   6.342
 7950SOL    HW225625   5.016   0.592   6.491
 7951SOL     OW25626   7.808   8.886   4.237
 7951SOL    HW125627   7.850   8.890   4.323
 7951SOL    HW225628   7.719   8.855   4.255
 7952SOL     OW25629  13.122   2.712   1.796
 7952SOL    HW125630  13.187   2.779   1.778
 7952SOL    HW225631  13.171   2.641   1.838
 7953SOL     OW25632   0.704   3.474   4.959
 7953SOL    HW125633   0.799   3.463   4.969
 7953SOL    HW225634   0.671   3.385   4.948
 7954SOL     OW25635   9.145   8.891   9.654
 7954SOL    HW125636   9.211   8.863   9.719
 7954SOL    HW225637   9.062   8.870   9.695
 7955SOL     OW25638   9.310  14.442   7.227
 7955SOL    HW125639   9.218  14.443   7.250
 7955SOL    HW225640   9.311  14.428   7.132
 7956SOL     OW25641   4.175   7.547  10.934
 7956SOL    HW125642   4.217   7.586  10.858
 7956SOL    HW225643   4.082   7.540  10.910
 7957SOL     OW25644   6.623   6.078  13.458
 7957SOL    HW125645   6.692   6.043  13.403
 7957SOL    HW225646   6.559   6.114  13.397
 7958SOL     OW25647   3.224   6.445  11.313
 7958SOL    HW125648   3.201   6.391  11.237
 7958SOL    HW225649   3.203   6.390  11.389
 7959SOL     OW25650   2.131  13.374  11.051
 7959SOL    HW125651   2.173  13.342  11.130
 7959SOL    HW225652   2.046  13.407  11.081
 7960SOL     OW25653   7.439   0.715   5.211
 7960SOL    HW125654   7.519   0.673   5.241
 7960SOL    HW225655   7.398   0.750   5.290
 7961SOL     OW25656  11.010  10.841   4.964
 7961SOL    HW125657  11.061  10.910   5.006
 7961SOL    HW225658  11.017  10.859   4.870
 7962SOL     OW25659  12.413   2.589  13.719
 7962SOL    HW125660  12.330   2.621  13.754
 7962SOL    HW225661  12.434   2.512  13.772
 7963SOL     OW25662  10.573   1.709  11.092
 7963SOL    HW125663  10.514   1.757  11.034
 7963SOL    HW225664  10.580   1.764  11.170
 7964SOL     OW25665   2.115  11.003  10.558
 7964SOL    HW125666   2.105  11.012  10.653
 7964SOL    HW225667   2.107  11.093  10.525
 7965SOL     OW25668   3.877   2.356   9.186
 7965SOL    HW125669   3.924   2.324   9.109
 7965SOL    HW225670   3.826   2.281   9.216
 7966SOL     OW25671   9.728   8.722  11.484
 7966SOL    HW125672   9.694   8.652  11.539
 7966SOL    HW225673   9.750   8.792  11.545
 7967SOL     OW25674  14.686   3.841   7.869
 7967SOL    HW125675  14.745   3.914   7.890
 7967SOL    HW225676  14.602   3.883   7.850
 7968SOL     OW25677  12.855   3.040   3.192
 7968SOL    HW125678  12.945   3.011   3.182
 7968SOL    HW225679  12.822   3.048   3.102
 7969SOL     OW25680   5.429   0.194   6.410
 7969SOL    HW125681   5.490   0.190   6.337
 7969SOL    HW225682   5.342   0.200   6.370
 7970SOL     OW25683   0.977  12.858   2.737
 7970SOL    HW125684   1.012  12.811   2.661
 7970SOL    HW225685   1.048  12.917   2.763
 7971SOL     OW25686   6.177   5.999  11.892
 7971SOL    HW125687   6.098   6.040  11.856
 7971SOL    HW225688   6.249   6.040  11.845
 7972SOL     OW25689   0.840   3.771   7.823
 7972SOL    HW125690   0.877   3.846   7.777
 7972SOL    HW225691   0.916   3.725   7.858
 7973SOL     OW25692   8.425   5.868  11.389
 7973SOL    HW125693   8.404   5.777  11.411
 7973SOL    HW225694   8.491   5.893  11.454
 7974SOL     OW25695  14.082   5.897  12.452
 7974SOL    HW125696  14.089   5.806  12.421
 7974SOL    HW225697  14.131   5.948  12.388
 7975SOL     OW25698   2.011   6.537  13.973
 7975SOL    HW125699   2.051   6.458  14.009
 7975SOL    HW225700   2.066   6.559  13.898
 7976SOL     OW25701  12.623  14.482   4.924
 7976SOL    HW125702  12.655  14.424   4.993
 7976SOL    HW225703  12.531  14.459   4.913
 7977SOL     OW25704   1.431   3.569   8.905
 7977SOL    HW125705   1.520   3.552   8.874
 7977SOL    HW225706   1.437   3.652   8.952
 7978SOL     OW25707   8.825   1.690  13.553
 7978SOL    HW125708   8.735   1.687  13.584
 7978SOL    HW225709   8.860   1.773  13.586
 7979SOL     OW25710  14.159   4.640   9.597
 7979SOL    HW125711  14.068   4.609   9.596
 7979SOL    HW225712  14.153   4.732   9.571
 7980SOL     OW25713   6.333   9.019  10.800
 7980SOL    HW125714   6.419   9.054  10.820
 7980SOL    HW225715   6.347   8.960  10.727
 7981SOL     OW25716   9.082   3.360   3.155
 7981SOL    HW125717   9.046   3.371   3.067
 7981SOL    HW225718   9.007   3.333   3.208
 7982SOL     OW25719   5.575   7.684   1.492
 7982SOL    HW125720   5.586   7.653   1.582
 7982SOL    HW225721   5.533   7.610   1.447
 7983SOL     OW25722   9.870  10.111   1.800
 7983SOL    HW125723   9.900  10.084   1.713
 7983SOL    HW225724   9.851  10.029   1.845
 7984SOL     OW25725   0.618   5.105   3.247
 7984SOL    HW125726   0.632   5.058   3.330
 7984SOL    HW225727   0.663   5.188   3.259
 7985SOL     OW25728   5.737  11.932   8.293
 7985SOL    HW125729   5.808  11.931   8.229
 7985SOL    HW225730   5.755  12.009   8.347
 7986SOL     OW25731  11.577   4.152  10.481
 7986SOL    HW125732  11.492   4.176  10.517
 7986SOL    HW225733  11.639   4.211  10.525
 7987SOL     OW25734   6.816   6.184   2.525
 7987SOL    HW125735   6.755   6.173   2.599
 7987SOL    HW225736   6.871   6.258   2.551
 7988SOL     OW25737   2.572  11.450   4.167
 7988SOL    HW125738   2.511  11.378   4.152
 7988SOL    HW225739   2.572  11.498   4.084
 7989SOL     OW25740  10.478   1.515   4.967
 7989SOL    HW125741  10.477   1.425   4.934
 7989SOL    HW225742  10.466   1.505   5.062
 7990SOL     OW25743  10.394  14.026   0.180
 7990SOL    HW125744  10.400  14.012   0.274
 7990SOL    HW225745  10.417  14.118   0.167
 7991SOL     OW25746   9.427   9.496   0.310
 7991SOL    HW125747   9.376   9.561   0.261
 7991SOL    HW225748   9.394   9.412   0.281
 7992SOL     OW25749   1.697   3.559   5.882
 7992SOL    HW125750   1.693   3.621   5.955
 7992SOL    HW225751   1.768   3.592   5.827
 7993SOL     OW25752   6.024  10.971   8.157
 7993SOL    HW125753   6.106  10.949   8.202
 7993SOL    HW225754   5.974  11.022   8.221
 7994SOL     OW25755   1.094   0.889   0.774
 7994SOL    HW125756   1.024   0.943   0.739
 7994SOL    HW225757   1.155   0.951   0.814
 7995SOL     OW25758   8.157   0.681  14.743
 7995SOL    HW125759   8.240   0.638  14.721
 7995SOL    HW225760   8.175   0.774  14.733
 7996SOL     OW25761   5.339  12.195   3.696
 7996SOL    HW125762   5.295  12.259   3.641
 7996SOL    HW225763   5.426  12.232   3.711
 7997SOL     OW25764   0.534  10.911  14.715
 7997SOL    HW125765   0.613  10.954  14.682
 7997SOL    HW225766   0.483  10.982  14.754
 7998SOL     OW25767   4.947  11.623   3.792
 7998SOL    HW125768   4.908  11.576   3.719
 7998SOL    HW225769   4.902  11.708   3.792
 7999SOL     OW25770  12.445  13.340  11.951
 7999SOL    HW125771  12.459  13.433  11.968
 7999SOL    HW225772  12.524  13.313  11.903
 8000SOL     OW25773  13.490   2.934  12.476
 8000SOL    HW125774  13.547   2.943  12.399
 8000SOL    HW225775  13.489   3.022  12.515
 8001SOL     OW25776   0.218   7.558  13.934
 8001SOL    HW125777   0.264   7.633  13.972
 8001SOL    HW225778   0.174   7.516  14.008
 8002SOL     OW25779  11.805   3.087   0.950
 8002SOL    HW125780  11.843   2.999   0.956
 8002SOL    HW225781  11.863   3.134   0.889
 8003SOL     OW25782  11.547  10.558   7.114
 8003SOL    HW125783  11.477  10.533   7.055
 8003SOL    HW225784  11.624  10.570   7.058
 8004SOL     OW25785   1.079   2.356   4.888
 8004SOL    HW125786   1.000   2.358   4.941
 8004SOL    HW225787   1.058   2.297   4.816
 8005SOL     OW25788   2.494   8.506   3.767
 8005SOL    HW125789   2.494   8.423   3.719
 8005SOL    HW225790   2.424   8.496   3.831
 8006SOL     OW25791   9.154   9.923   3.797
 8006SOL    HW125792   9.142   9.928   3.892
 8006SOL    HW225793   9.216   9.852   3.784
 8007SOL     OW25794   8.280   3.391  14.262
 8007SOL    HW125795   8.275   3.389  14.166
 8007SOL    HW225796   8.189   3.379  14.290
 8008SOL     OW25797   6.561  12.682   0.394
 8008SOL    HW125798   6.649  12.717   0.380
 8008SOL    HW225799   6.567  12.591   0.367
 8009SOL     OW25800  14.622  14.322  14.375
 8009SOL    HW125801  14.680  14.398  14.373
 8009SOL    HW225802  14.621  14.289  14.285
 8010SOL     OW25803   9.461  11.717   4.772
 8010SOL    HW125804   9.376  11.701   4.731
 8010SOL    HW225805   9.448  11.693   4.864
 8011SOL     OW25806   1.408   8.052   6.755
 8011SOL    HW125807   1.480   7.990   6.759
 8011SOL    HW225808   1.398   8.084   6.844
 8012SOL     OW25809   5.612  11.870   6.593
 8012SOL    HW125810   5.611  11.851   6.686
 8012SOL    HW225811   5.696  11.915   6.578
 8013SOL     OW25812  13.607   1.491  14.200
 8013SOL    HW125813  13.693   1.509  14.161
 8013SOL    HW225814  13.545   1.513  14.131
 8014SOL     OW25815   6.317  10.355  12.631
 8014SOL    HW125816   6.291  10.264  12.616
 8014SOL    HW225817   6.409  10.350  12.657
 8015SOL     OW25818  13.715   1.441   0.801
 8015SOL    HW125819  13.772   1.364   0.809
 8015SOL    HW225820  13.636   1.407   0.758
 8016SOL     OW25821   1.714  10.431   8.391
 8016SOL    HW125822   1.693  10.342   8.417
 8016SOL    HW225823   1.720  10.428   8.296
 8017SOL     OW25824   4.037   1.332   5.167
 8017SOL    HW125825   4.074   1.416   5.139
 8017SOL    HW225826   4.111   1.271   5.161
 8018SOL     OW25827   1.679   5.781   6.951
 8018SOL    HW125828   1.701   5.872   6.932
 8018SOL    HW225829   1.614   5.785   7.020
 8019SOL     OW25830   2.306   4.677   2.669
 8019SOL    HW125831   2.269   4.734   2.737
 8019SOL    HW225832   2.382   4.638   2.710
 8020SOL     OW25833   1.660   3.118  11.727
 8020SOL    HW125834   1.735   3.175  11.708
 8020SOL    HW225835   1.642   3.133  11.820
 8021SOL     OW25836   4.412   1.160   8.176
 8021SOL    HW125837   4.479   1.192   8.117
 8021SOL    HW225838   4.405   1.066   8.156
 8022SOL     OW25839   7.711   7.406  10.832
 8022SOL    HW125840   7.772   7.410  10.759
 8022SOL    HW225841   7.740   7.331  10.884
 8023SOL     OW25842  13.234  12.082   6.061
 8023SOL    HW125843  13.224  12.015   6.128
 8023SOL    HW225844  13.195  12.160   6.099
 8024SOL     OW25845   0.830   3.940   6.637
 8024SOL    HW125846   0.859   3.913   6.550
 8024SOL    HW225847   0.738   3.966   6.625
 8025SOL     OW25848   3.567   1.901   9.756
 8025SOL    HW125849   3.529   1.978   9.798
 8025SOL    HW225850   3.598   1.931   9.671
 8026SOL     OW25851  13.679   8.148   9.701
 8026SOL    HW125852  13.764   8.167   9.661
 8026SOL    HW225853  13.617   8.203   9.653
 8027SOL     OW25854  12.294  13.242  13.477
 8027SOL    HW125855  12.368  13.253  13.416
 8027SOL    HW225856  12.270  13.331  13.502
 8028SOL     OW25857   8.455   8.221   8.563
 8028SOL    HW125858   8.482   8.139   8.605
 8028SOL    HW225859   8.538   8.266   8.543
 8029SOL     OW25860  14.657   0.020   9.446
 8029SOL    HW125861  14.599  14.821   9.445
 8029SOL    HW225862  14.717   0.006   9.373
 8030SOL     OW25863   1.689   2.152   7.356
 8030SOL    HW125864   1.607   2.103   7.344
 8030SOL    HW225865   1.753   2.085   7.379
 8031SOL     OW25866   1.316  10.272   2.452
 8031SOL    HW125867   1.326  10.274   2.547
 8031SOL    HW225868   1.226  10.302   2.436
 8032SOL     OW25869   4.142   0.685  11.719
 8032SOL    HW125870   4.086   0.753  11.756
 8032SOL    HW225871   4.213   0.675  11.782
 8033SOL     OW25872   3.693   5.589   1.224
 8033SOL    HW125873   3.684   5.563   1.132
 8033SOL    HW225874   3.771   5.543   1.255
 8034SOL     OW25875   9.002   2.542   5.863
 8034SOL    HW125876   9.064   2.614   5.851
 8034SOL    HW225877   9.024   2.506   5.949
 8035SOL     OW25878   5.702   5.083   2.624
 8035SOL    HW125879   5.622   5.090   2.573
 8035SOL    HW225880   5.739   5.171   2.623
 8036SOL     OW25881  12.892  11.973   4.287
 8036SOL    HW125882  12.909  11.880   4.300
 8036SOL    HW225883  12.828  11.976   4.215
 8037SOL     OW25884   9.714   2.713  11.401
 8037SOL    HW125885   9.724   2.662  11.321
 8037SOL    HW225886   9.737   2.802  11.375
 8038SOL     OW25887  14.052   4.486   8.496
 8038SOL    HW125888  14.065   4.394   8.471
 8038SOL    HW225889  14.103   4.496   8.577
 8039SOL     OW25890  10.483   6.314   4.463
 8039SOL    HW125891  10.450   6.227   4.482
 8039SOL    HW225892  10.410   6.373   4.484
 8040SOL     OW25893   7.608  12.863   3.281
 8040SOL    HW125894   7.539  12.892   3.340
 8040SOL    HW225895   7.584  12.900   3.196
 8041SOL     OW25896   5.940   2.110   2.745
 8041SOL    HW125897   5.864   2.136   2.693
 8041SOL    HW225898   5.979   2.192   2.773
 8042SOL     OW25899  11.220   4.131  11.085
 8042SOL    HW125900  11.186   4.086  11.162
 8042SOL    HW225901  11.315   4.117  11.089
 8043SOL     OW25902  12.089   0.518  13.742
 8043SOL    HW125903  12.152   0.453  13.709
 8043SOL    HW225904  12.101   0.594  13.685
 8044SOL     OW25905   7.834   8.292   4.880
 8044SOL    HW125906   7.876   8.330   4.803
 8044SOL    HW225907   7.883   8.212   4.897
 8045SOL     OW25908   1.190   0.191   1.899
 8045SOL    HW125909   1.192   0.255   1.827
 8045SOL    HW225910   1.210   0.108   1.857
 8046SOL     OW25911   1.633  11.750  13.903
 8046SOL    HW125912   1.667  11.839  13.902
 8046SOL    HW225913   1.583  11.742  13.821
 8047SOL     OW25914  11.143   2.093   5.151
 8047SOL    HW125915  11.237   2.075   5.155
 8047SOL    HW225916  11.131   2.171   5.204
 8048SOL     OW25917   4.897   7.648   1.356
 8048SOL    HW125918   4.866   7.669   1.445
 8048SOL    HW225919   4.854   7.713   1.300
 8049SOL     OW25920  13.631   5.418   3.812
 8049SOL    HW125921  13.556   5.474   3.793
 8049SOL    HW225922  13.664   5.391   3.726
 8050SOL     OW25923  10.535  12.979  13.704
 8050SOL    HW125924  10.507  13.016  13.620
 8050SOL    HW225925  10.524  12.885  13.694
 8051SOL     OW25926   8.529  10.060  14.058
 8051SOL    HW125927   8.567  10.145  14.037
 8051SOL    HW225928   8.541  10.050  14.152
 8052SOL     OW25929   4.299   6.958  14.166
 8052SOL    HW125930   4.358   6.927  14.097
 8052SOL    HW225931   4.356   7.004  14.227
 8053SOL     OW25932   6.835   9.614   9.714
 8053SOL    HW125933   6.743   9.613   9.689
 8053SOL    HW225934   6.875   9.681   9.659
 8054SOL     OW25935  11.646  10.380   1.508
 8054SOL    HW125936  11.614  10.298   1.546
 8054SOL    HW225937  11.736  10.361   1.483
 8055SOL     OW25938   3.065   3.905   2.414
 8055SOL    HW125939   3.080   3.998   2.435
 8055SOL    HW225940   3.136   3.858   2.459
 8056SOL     OW25941   4.487   4.303   3.693
 8056SOL    HW125942   4.457   4.213   3.704
 8056SOL    HW225943   4.433   4.354   3.754
 8057SOL     OW25944   3.271   5.787   4.891
 8057SOL    HW125945   3.330   5.862   4.901
 8057SOL    HW225946   3.317   5.727   4.833
 8058SOL     OW25947  12.827  10.715   8.712
 8058SOL    HW125948  12.909  10.755   8.684
 8058SOL    HW225949  12.759  10.778   8.688
 8059SOL     OW25950   6.416   4.040   5.279
 8059SOL    HW125951   6.357   3.966   5.291
 8059SOL    HW225952   6.463   4.021   5.198
 8060SOL     OW25953  11.731  11.492   9.046
 8060SOL    HW125954  11.773  11.453   9.123
 8060SOL    HW225955  11.750  11.585   9.054
 8061SOL     OW25956   5.013   5.032  14.568
 8061SOL    HW125957   5.064   5.095  14.517
 8061SOL    HW225958   5.058   4.948  14.554
 8062SOL     OW25959   0.340   7.906   4.471
 8062SOL    HW125960   0.400   7.866   4.534
 8062SOL    HW225961   0.289   7.969   4.522
 8063SOL     OW25962  11.584   4.549   1.781
 8063SOL    HW125963  11.576   4.501   1.863
 8063SOL    HW225964  11.641   4.623   1.802
 8064SOL     OW25965   0.355   4.368  11.727
 8064SOL    HW125966   0.405   4.441  11.764
 8064SOL    HW225967   0.374   4.371  11.633
 8065SOL     OW25968  11.354   1.835  10.913
 8065SOL    HW125969  11.321   1.924  10.905
 8065SOL    HW225970  11.412   1.824  10.838
 8066SOL     OW25971   6.321   1.398   8.768
 8066SOL    HW125972   6.366   1.433   8.845
 8066SOL    HW225973   6.390   1.353   8.719
 8067SOL     OW25974  14.170   0.070  14.568
 8067SOL    HW125975  14.138   0.063  14.658
 8067SOL    HW225976  14.247   0.012  14.565
 8068SOL     OW25977   6.976   2.298   8.580
 8068SOL    HW125978   6.892   2.300   8.536
 8068SOL    HW225979   6.957   2.325   8.670
 8069SOL     OW25980  12.508   8.216  13.243
 8069SOL    HW125981  12.486   8.285  13.306
 8069SOL    HW225982  12.426   8.197  13.199
 8070SOL     OW25983   9.291  13.234   5.387
 8070SOL    HW125984   9.226  13.181   5.341
 8070SOL    HW225985   9.257  13.323   5.383
 8071SOL     OW25986   4.030   4.733  11.063
 8071SOL    HW125987   3.983   4.790  11.123
 8071SOL    HW225988   4.115   4.719  11.105
 8072SOL     OW25989  12.003   4.350   2.201
 8072SOL    HW125990  12.018   4.301   2.282
 8072SOL    HW225991  11.932   4.303   2.158
 8073SOL     OW25992  11.501   7.310  12.569
 8073SOL    HW125993  11.588   7.270  12.581
 8073SOL    HW225994  11.519   7.404  12.563
 8074SOL     OW25995   9.105   0.871   7.855
 8074SOL    HW125996   9.199   0.875   7.875
 8074SOL    HW225997   9.099   0.899   7.764
 8075SOL     OW25998   5.411   5.901   1.002
 8075SOL    HW125999   5.352   5.826   1.010
 8075SOL    HW226000   5.353   5.974   0.977
 8076SOL     OW26001  14.307   6.753   0.166
 8076SOL    HW126002  14.306   6.791   0.078
 8076SOL    HW226003  14.388   6.785   0.206
 8077SOL     OW26004  10.710   0.540  14.072
 8077SOL    HW126005  10.786   0.490  14.043
 8077SOL    HW226006  10.725   0.555  14.166
 8078SOL     OW26007   6.843   2.902   2.712
 8078SOL    HW126008   6.812   2.888   2.623
 8078SOL    HW226009   6.934   2.871   2.711
 8079SOL     OW26010   9.876   6.747   2.318
 8079SOL    HW126011   9.880   6.703   2.403
 8079SOL    HW226012   9.951   6.713   2.269
 8080SOL     OW26013  11.043   4.432   8.470
 8080SOL    HW126014  10.997   4.475   8.398
 8080SOL    HW226015  10.999   4.347   8.480
 8081SOL     OW26016   8.286  11.628   1.613
 8081SOL    HW126017   8.225  11.579   1.669
 8081SOL    HW226018   8.261  11.604   1.524
 8082SOL     OW26019   3.833   3.402  13.207
 8082SOL    HW126020   3.786   3.327  13.170
 8082SOL    HW226021   3.881   3.366  13.281
 8083SOL     OW26022   3.724  13.410   9.084
 8083SOL    HW126023   3.799  13.376   9.036
 8083SOL    HW226024   3.727  13.366   9.169
 8084SOL     OW26025  11.278   3.245  11.892
 8084SOL    HW126026  11.290   3.231  11.798
 8084SOL    HW226027  11.299   3.337  11.906
 8085SOL     OW26028  12.286  11.229   6.748
 8085SOL    HW126029  12.230  11.162   6.789
 8085SOL    HW226030  12.363  11.180   6.717
 8086SOL     OW26031   1.047   9.831   2.762
 8086SOL    HW126032   1.138   9.829   2.732
 8086SOL    HW226033   1.034   9.921   2.793
 8087SOL     OW26034   0.485   5.939   6.067
 8087SOL    HW126035   0.518   5.849   6.065
 8087SOL    HW226036   0.477   5.963   5.975
 8088SOL     OW26037  11.629   4.370   4.958
 8088SOL    HW126038  11.679   4.374   5.040
 8088SOL    HW226039  11.625   4.277   4.937
 8089SOL     OW26040   0.389  11.350   8.599
 8089SOL    HW126041   0.366  11.279   8.658
 8089SOL    HW226042   0.461  11.316   8.545
 8090SOL     OW26043  10.761   7.510   2.987
 8090SOL    HW126044  10.739   7.580   2.925
 8090SOL    HW226045  10.769   7.554   3.071
 8091SOL     OW26046   7.430   6.110   6.571
 8091SOL    HW126047   7.389   6.161   6.501
 8091SOL    HW226048   7.371   6.120   6.646
 8092SOL     OW26049  13.179   7.029  12.572
 8092SOL    HW126050  13.245   6.960  12.579
 8092SOL    HW226051  13.167   7.041  12.477
 8093SOL     OW26052   3.870  11.642   2.978
 8093SOL    HW126053   3.839  11.620   2.890
 8093SOL    HW226054   3.835  11.572   3.033
 8094SOL     OW26055   0.584  11.253  12.325
 8094SOL    HW126056   0.618  11.265  12.237
 8094SOL    HW226057   0.530  11.174  12.321
 8095SOL     OW26058   5.541   4.069   0.312
 8095SOL    HW126059   5.607   4.073   0.242
 8095SOL    HW226060   5.561   4.145   0.367
 8096SOL     OW26061   7.551   5.224   0.965
 8096SOL    HW126062   7.477   5.277   0.996
 8096SOL    HW226063   7.510   5.152   0.918
 8097SOL     OW26064  13.760   0.638   1.112
 8097SOL    HW126065  13.822   0.707   1.135
 8097SOL    HW226066  13.730   0.603   1.195
 8098SOL     OW26067  11.256  14.126  11.569
 8098SOL    HW126068  11.287  14.099  11.655
 8098SOL    HW226069  11.179  14.180  11.586
 8099SOL     OW26070   3.059  11.759  13.947
 8099SOL    HW126071   3.054  11.772  14.042
 8099SOL    HW226072   2.968  11.750  13.920
 8100SOL     OW26073   4.344   4.121   4.804
 8100SOL    HW126074   4.341   4.160   4.716
 8100SOL    HW226075   4.430   4.146   4.838
 8101SOL     OW26076   6.627   8.531   4.465
 8101SOL    HW126077   6.586   8.457   4.421
 8101SOL    HW226078   6.565   8.603   4.454
 8102SOL     OW26079   4.997   0.457  12.873
 8102SOL    HW126080   5.041   0.455  12.958
 8102SOL    HW226081   4.924   0.517  12.885
 8103SOL     OW26082   2.935   0.189   0.878
 8103SOL    HW126083   2.853   0.222   0.840
 8103SOL    HW226084   2.994   0.265   0.878
 8104SOL     OW26085  13.913   5.675  11.847
 8104SOL    HW126086  13.999   5.691  11.809
 8104SOL    HW226087  13.866   5.759  11.836
 8105SOL     OW26088   2.032   4.957   1.860
 8105SOL    HW126089   2.008   5.007   1.938
 8105SOL    HW226090   1.962   4.976   1.798
 8106SOL     OW26091  14.373   8.684  11.698
 8106SOL    HW126092  14.466   8.694  11.677
 8106SOL    HW226093  14.328   8.733  11.629
 8107SOL     OW26094   4.634   6.562   7.900
 8107SOL    HW126095   4.698   6.591   7.965
 8107SOL    HW226096   4.558   6.618   7.915
 8108SOL     OW26097  13.225  11.730   8.338
 8108SOL    HW126098  13.225  11.775   8.254
 8108SOL    HW226099  13.244  11.798   8.402
 8109SOL     OW26100   8.043  13.048   4.537
 8109SOL    HW126101   8.131  13.016   4.517
 8109SOL    HW226102   8.006  12.981   4.594
 8110SOL     OW26103  12.505  10.401  12.040
 8110SOL    HW126104  12.504  10.305  12.040
 8110SOL    HW226105  12.515  10.425  11.948
 8111SOL     OW26106   6.067   7.852   8.073
 8111SOL    HW126107   6.089   7.760   8.082
 8111SOL    HW226108   6.126   7.897   8.134
 8112SOL     OW26109   2.334   0.183  11.263
 8112SOL    HW126110   2.425   0.206  11.246
 8112SOL    HW226111   2.284   0.233  11.198
 8113SOL     OW26112  11.175   8.590   4.557
 8113SOL    HW126113  11.136   8.651   4.618
 8113SOL    HW226114  11.254   8.634   4.526
 8114SOL     OW26115  11.927   2.021   2.421
 8114SOL    HW126116  11.848   1.968   2.415
 8114SOL    HW226117  11.983   1.976   2.484
 8115SOL     OW26118   7.052   9.316  10.950
 8115SOL    HW126119   7.132   9.271  10.973
 8115SOL    HW226120   7.046   9.308  10.854
 8116SOL     OW26121   3.027   1.686   0.270
 8116SOL    HW126122   3.074   1.663   0.190
 8116SOL    HW226123   3.078   1.756   0.309
 8117SOL     OW26124   5.251   7.741   5.856
 8117SOL    HW126125   5.168   7.700   5.831
 8117SOL    HW226126   5.233   7.835   5.853
 8118SOL     OW26127   8.202   5.834  12.465
 8118SOL    HW126128   8.227   5.898  12.398
 8118SOL    HW226129   8.177   5.887  12.540
 8119SOL     OW26130   4.051   6.205   4.563
 8119SOL    HW126131   4.104   6.240   4.635
 8119SOL    HW226132   3.983   6.271   4.549
 8120SOL     OW26133   1.073   0.706  11.130
 8120SOL    HW126134   1.117   0.656  11.062
 8120SOL    HW226135   1.137   0.712  11.201
 8121SOL     OW26136   3.532   8.273  14.239
 8121SOL    HW126137   3.463   8.277  14.173
 8121SOL    HW226138   3.590   8.203  14.209
 8122SOL     OW26139   9.084  10.835   1.124
 8122SOL    HW126140   9.040  10.891   1.060
 8122SOL    HW226141   9.014  10.779   1.158
 8123SOL     OW26142  11.696   2.144   3.242
 8123SOL    HW126143  11.736   2.057   3.247
 8123SOL    HW226144  11.770   2.204   3.231
 8124SOL     OW26145   6.810   7.980   3.963
 8124SOL    HW126146   6.759   7.989   4.044
 8124SOL    HW226147   6.808   8.068   3.925
 8125SOL     OW26148   1.010   4.611   7.657
 8125SOL    HW126149   0.942   4.600   7.590
 8125SOL    HW226150   1.079   4.659   7.613
 8126SOL     OW26151  10.428  11.112   5.986
 8126SOL    HW126152  10.476  11.053   5.928
 8126SOL    HW226153  10.338  11.080   5.985
 8127SOL     OW26154   8.207   1.616   4.066
 8127SOL    HW126155   8.138   1.571   4.018
 8127SOL    HW226156   8.232   1.689   4.008
 8128SOL     OW26157   7.642   8.127  14.607
 8128SOL    HW126158   7.664   8.048  14.657
 8128SOL    HW226159   7.689   8.116  14.524
 8129SOL     OW26160   4.905   2.454  11.222
 8129SOL    HW126161   4.888   2.389  11.291
 8129SOL    HW226162   4.830   2.445  11.163
 8130SOL     OW26163  11.934   2.902   8.292
 8130SOL    HW126164  11.876   2.975   8.314
 8130SOL    HW226165  12.018   2.925   8.331
 8131SOL     OW26166  11.905   9.103   1.038
 8131SOL    HW126167  11.907   9.013   1.072
 8131SOL    HW226168  11.818   9.111   0.998
 8132SOL     OW26169   5.114  10.053   8.992
 8132SOL    HW126170   5.086  10.045   8.901
 8132SOL    HW226171   5.163   9.973   9.009
 8133SOL     OW26172   1.270   1.606   3.003
 8133SOL    HW126173   1.267   1.698   3.029
 8133SOL    HW226174   1.190   1.594   2.951
 8134SOL     OW26175   6.149  11.597   3.445
 8134SOL    HW126176   6.160  11.692   3.435
 8134SOL    HW226177   6.177  11.579   3.535
 8135SOL     OW26178  11.769   0.346   0.124
 8135SOL    HW126179  11.806   0.337   0.212
 8135SOL    HW226180  11.784   0.261   0.082
 8136SOL     OW26181  12.532   4.323   3.821
 8136SOL    HW126182  12.548   4.239   3.778
 8136SOL    HW226183  12.574   4.314   3.907
 8137SOL     OW26184   1.523   2.690   9.711
 8137SOL    HW126185   1.434   2.705   9.679
 8137SOL    HW226186   1.513   2.686   9.807
 8138SOL     OW26187  12.171   8.688   5.583
 8138SOL    HW126188  12.137   8.599   5.577
 8138SOL    HW226189  12.148   8.717   5.672
 8139SOL     OW26190  13.369   2.585   4.104
 8139SOL    HW126191  13.342   2.526   4.034
 8139SOL    HW226192  13.397   2.526   4.175
 8140SOL     OW26193  14.423  13.952   8.403
 8140SOL    HW126194  14.363  13.901   8.457
 8140SOL    HW226195  14.510  13.920   8.428
 8141SOL     OW26196   4.053  13.510   5.328
 8141SOL    HW126197   4.068  13.450   5.254
 8141SOL    HW226198   3.959  13.527   5.325
 8142SOL     OW26199   0.862   2.187   1.014
 8142SOL    HW126200   0.794   2.228   0.961
 8142SOL    HW226201   0.944   2.219   0.975
 8143SOL     OW26202  14.444   1.715  10.052
 8143SOL    HW126203  14.414   1.657   9.982
 8143SOL    HW226204  14.450   1.658  10.129
 8144SOL     OW26205  13.790  12.153  14.112
 8144SOL    HW126206  13.866  12.135  14.055
 8144SOL    HW226207  13.731  12.080  14.096
 8145SOL     OW26208  13.525   8.863   5.769
 8145SOL    HW126209  13.470   8.844   5.693
 8145SOL    HW226210  13.598   8.801   5.761
 8146SOL     OW26211  14.599   7.227   9.115
 8146SOL    HW126212  14.513   7.259   9.089
 8146SOL    HW226213  14.625   7.282   9.189
 8147SOL     OW26214  10.185  13.617   8.356
 8147SOL    HW126215  10.137  13.569   8.290
 8147SOL    HW226216  10.161  13.575   8.439
 8148SOL     OW26217  14.213   9.021  12.344
 8148SOL    HW126218  14.278   9.018  12.274
 8148SOL    HW226219  14.247   9.086  12.406
 8149SOL     OW26220   2.342   3.575   9.898
 8149SOL    HW126221   2.322   3.483   9.918
 8149SOL    HW226222   2.432   3.574   9.865
 8150SOL     OW26223   4.977  12.841   5.612
 8150SOL    HW126224   4.931  12.874   5.535
 8150SOL    HW226225   5.013  12.757   5.585
 8151SOL     OW26226   7.667  13.017   6.809
 8151SOL    HW126227   7.629  12.932   6.829
 8151SOL    HW226228   7.736  13.028   6.874
 8152SOL     OW26229   8.708   5.318   2.965
 8152SOL    HW126230   8.726   5.234   2.923
 8152SOL    HW226231   8.616   5.313   2.990
 8153SOL     OW26232  14.620  12.121   5.689
 8153SOL    HW126233  14.599  12.060   5.618
 8153SOL    HW226234  14.606  12.069   5.769
 8154SOL     OW26235  13.874   2.715   5.805
 8154SOL    HW126236  13.779   2.711   5.800
 8154SOL    HW226237  13.899   2.778   5.737
 8155SOL     OW26238  10.829  12.688   0.172
 8155SOL    HW126239  10.904  12.653   0.123
 8155SOL    HW226240  10.810  12.620   0.236
 8156SOL     OW26241   4.254  10.297  10.630
 8156SOL    HW126242   4.213  10.256  10.553
 8156SOL    HW226243   4.311  10.364  10.593
 8157SOL     OW26244   8.851   1.286  11.035
 8157SOL    HW126245   8.883   1.200  11.008
 8157SOL    HW226246   8.930   1.334  11.061
 8158SOL     OW26247   2.189  14.548   8.017
 8158SOL    HW126248   2.199  14.580   8.106
 8158SOL    HW226249   2.095  14.536   8.005
 8159SOL     OW26250  14.367   5.144   5.841
 8159SOL    HW126251  14.290   5.128   5.895
 8159SOL    HW226252  14.374   5.239   5.837
 8160SOL     OW26253   7.600   6.125   2.117
 8160SOL    HW126254   7.647   6.187   2.061
 8160SOL    HW226255   7.580   6.174   2.196
 8161SOL     OW26256   0.402  11.484   9.010
 8161SOL    HW126257   0.334  11.522   8.954
 8161SOL    HW226258   0.409  11.546   9.083
 8162SOL     OW26259  13.562   9.210   4.828
 8162SOL    HW126260  13.552   9.136   4.887
 8162SOL    HW226261  13.598   9.172   4.747
 8163SOL     OW26262   1.592   3.054   2.256
 8163SOL    HW126263   1.632   3.131   2.294
 8163SOL    HW226264   1.627   2.981   2.307
 8164SOL     OW26265   8.236  12.110  12.492
 8164SOL    HW126266   8.210  12.056  12.566
 8164SOL    HW226267   8.241  12.049  12.418
 8165SOL     OW26268  14.426   2.954   5.364
 8165SOL    HW126269  14.330   2.962   5.365
 8165SOL    HW226270  14.457   3.030   5.413
 8166SOL     OW26271   0.708   3.722   8.473
 8166SOL    HW126272   0.658   3.657   8.424
 8166SOL    HW226273   0.645   3.791   8.493
 8167SOL     OW26274   0.259   0.707   6.569
 8167SOL    HW126275   0.268   0.618   6.603
 8167SOL    HW226276   0.183   0.743   6.615
 8168SOL     OW26277   8.187   1.536  10.163
 8168SOL    HW126278   8.209   1.476  10.091
 8168SOL    HW226279   8.144   1.610  10.121
 8169SOL     OW26280  11.776   0.164   2.379
 8169SOL    HW126281  11.727   0.137   2.301
 8169SOL    HW226282  11.712   0.212   2.432
 8170SOL     OW26283   3.928  13.191   6.523
 8170SOL    HW126284   3.999  13.155   6.470
 8170SOL    HW226285   3.920  13.130   6.596
 8171SOL     OW26286   7.885   3.289   6.080
 8171SOL    HW126287   7.954   3.303   6.015
 8171SOL    HW226288   7.839   3.373   6.084
 8172SOL     OW26289   4.546   9.420  11.663
 8172SOL    HW126290   4.513   9.456  11.745
 8172SOL    HW226291   4.468   9.388  11.617
 8173SOL     OW26292   2.359   5.046   4.208
 8173SOL    HW126293   2.307   5.049   4.289
 8173SOL    HW226294   2.303   5.087   4.143
 8174SOL     OW26295   2.437   1.495  14.170
 8174SOL    HW126296   2.426   1.407  14.206
 8174SOL    HW226297   2.408   1.488  14.080
 8175SOL     OW26298  10.363   5.853   9.599
 8175SOL    HW126299  10.379   5.929   9.655
 8175SOL    HW226300  10.438   5.850   9.539
 8176SOL     OW26301   3.511   3.256   9.614
 8176SOL    HW126302   3.592   3.283   9.657
 8176SOL    HW226303   3.500   3.164   9.639
 8177SOL     OW26304   0.109   5.723   4.514
 8177SOL    HW126305   0.092   5.669   4.591
 8177SOL    HW226306   0.148   5.662   4.450
 8178SOL     OW26307  14.660   4.901  11.960
 8178SOL    HW126308  14.658   4.919  11.866
 8178SOL    HW226309  14.576   4.933  11.992
 8179SOL     OW26310  12.802  12.044   8.328
 8179SOL    HW126311  12.858  12.001   8.263
 8179SOL    HW226312  12.713  12.029   8.297
 8180SOL     OW26313   5.471   6.273   5.090
 8180SOL    HW126314   5.390   6.224   5.102
 8180SOL    HW226315   5.513   6.232   5.015
 8181SOL     OW26316   3.341  11.650   7.892
 8181SOL    HW126317   3.347  11.731   7.943
 8181SOL    HW226318   3.361  11.677   7.802
 8182SOL     OW26319  10.460   5.183  11.660
 8182SOL    HW126320  10.536   5.235  11.631
 8182SOL    HW226321  10.462   5.189  11.755
 8183SOL     OW26322   7.854  11.490   4.549
 8183SOL    HW126323   7.921  11.444   4.499
 8183SOL    HW226324   7.904  11.546   4.609
 8184SOL     OW26325   4.433  13.981   4.856
 8184SOL    HW126326   4.476  14.033   4.788
 8184SOL    HW226327   4.383  14.045   4.907
 8185SOL     OW26328   5.243   4.281  11.280
 8185SOL    HW126329   5.179   4.228  11.233
 8185SOL    HW226330   5.318   4.223  11.294
 8186SOL     OW26331   5.041  13.790   1.650
 8186SOL    HW126332   5.006  13.715   1.602
 8186SOL    HW226333   5.056  13.857   1.583
 8187SOL     OW26334   5.804   0.152  13.471
 8187SOL    HW126335   5.884   0.132  13.519
 8187SOL    HW226336   5.830   0.151  13.379
 8188SOL     OW26337   3.809   1.281   6.359
 8188SOL    HW126338   3.835   1.364   6.401
 8188SOL    HW226339   3.884   1.257   6.305
 8189SOL     OW26340   7.065   7.261   5.021
 8189SOL    HW126341   7.038   7.315   4.946
 8189SOL    HW226342   7.008   7.289   5.092
 8190SOL     OW26343   6.250  10.296   4.256
 8190SOL    HW126344   6.192  10.222   4.241
 8190SOL    HW226345   6.194  10.363   4.296
 8191SOL     OW26346   3.166  14.026   7.999
 8191SOL    HW126347   3.200  14.091   8.060
 8191SOL    HW226348   3.211  14.044   7.917
 8192SOL     OW26349  11.386  11.256  14.061
 8192SOL    HW126350  11.383  11.229  13.970
 8192SOL    HW226351  11.468  11.306  14.069
 8193SOL     OW26352   2.895   3.438  11.506
 8193SOL    HW126353   2.975   3.472  11.547
 8193SOL    HW226354   2.851   3.515  11.471
 8194SOL     OW26355  11.312  11.320  11.474
 8194SOL    HW126356  11.375  11.368  11.422
 8194SOL    HW226357  11.350  11.233  11.485
 8195SOL     OW26358   6.782  10.094   8.811
 8195SOL    HW126359   6.718  10.165   8.820
 8195SOL    HW226360   6.858  10.124   8.860
 8196SOL     OW26361   0.510   0.807  10.902
 8196SOL    HW126362   0.419   0.810  10.929
 8196SOL    HW226363   0.554   0.870  10.959
 8197SOL     OW26364   7.794   0.403   0.822
 8197SOL    HW126365   7.829   0.352   0.894
 8197SOL    HW226366   7.869   0.452   0.788
 8198SOL     OW26367   3.064  10.882   7.148
 8198SOL    HW126368   3.027  10.798   7.123
 8198SOL    HW226369   3.155  10.878   7.116
 8199SOL     OW26370   8.355   2.388  12.458
 8199SOL    HW126371   8.410   2.363  12.383
 8199SOL    HW226372   8.364   2.483  12.464
 8200SOL     OW26373   3.038  10.208   7.102
 8200SOL    HW126374   2.944  10.216   7.119
 8200SOL    HW226375   3.044  10.186   7.009
 8201SOL     OW26376  12.549   5.602  13.838
 8201SOL    HW126377  12.601   5.644  13.907
 8201SOL    HW226378  12.548   5.510  13.861
 8202SOL     OW26379   6.994   3.345  12.603
 8202SOL    HW126380   6.989   3.310  12.514
 8202SOL    HW226381   6.905   3.376  12.621
 8203SOL     OW26382   4.525   8.009   1.503
 8203SOL    HW126383   4.524   7.969   1.590
 8203SOL    HW226384   4.438   8.048   1.494
 8204SOL     OW26385  13.657  13.605   7.435
 8204SOL    HW126386  13.680  13.519   7.400
 8204SOL    HW226387  13.733  13.660   7.414
 8205SOL     OW26388   6.116   5.970   7.992
 8205SOL    HW126389   6.075   5.905   7.934
 8205SOL    HW226390   6.208   5.970   7.967
 8206SOL     OW26391   1.659  10.243   5.668
 8206SOL    HW126392   1.745  10.284   5.656
 8206SOL    HW226393   1.597  10.315   5.664
 8207SOL     OW26394  11.427   6.061  10.128
 8207SOL    HW126395  11.369   5.990  10.102
 8207SOL    HW226396  11.505   6.017  10.161
 8208SOL     OW26397   6.241  10.359   9.854
 8208SOL    HW126398   6.196  10.318   9.928
 8208SOL    HW226399   6.316  10.302   9.836
 8209SOL     OW26400   6.631  13.122   2.959
 8209SOL    HW126401   6.722  13.104   2.934
 8209SOL    HW226402   6.629  13.217   2.971
 8210SOL     OW26403   8.625   1.485   7.116
 8210SOL    HW126404   8.587   1.566   7.082
 8210SOL    HW226405   8.564   1.416   7.089
 8211SOL     OW26406   0.902   0.443   8.668
 8211SOL    HW126407   0.816   0.449   8.626
 8211SOL    HW226408   0.963   0.480   8.604
 8212SOL     OW26409   4.882  10.879  13.921
 8212SOL    HW126410   4.793  10.911  13.933
 8212SOL    HW226411   4.904  10.902  13.831
 8213SOL     OW26412  10.440   5.943   9.928
 8213SOL    HW126413  10.451   5.994   9.848
 8213SOL    HW226414  10.350   5.959   9.955
 8214SOL     OW26415  11.156   9.264   3.525
 8214SOL    HW126416  11.135   9.311   3.444
 8214SOL    HW226417  11.124   9.175   3.510
 8215SOL     OW26418  11.037   5.574   4.143
 8215SOL    HW126419  11.132   5.573   4.154
 8215SOL    HW226420  11.022   5.533   4.059
 8216SOL     OW26421   1.869   7.766   1.415
 8216SOL    HW126422   1.947   7.820   1.404
 8216SOL    HW226423   1.796   7.824   1.397
 8217SOL     OW26424   9.904   5.513  14.597
 8217SOL    HW126425   9.941   5.515  14.685
 8217SOL    HW226426   9.951   5.581  14.549
 8218SOL     OW26427   0.443   5.999   1.764
 8218SOL    HW126428   0.538   6.008   1.755
 8218SOL    HW226429   0.407   6.063   1.703
 8219SOL     OW26430  13.082   4.132   5.042
 8219SOL    HW126431  13.148   4.147   4.975
 8219SOL    HW226432  13.031   4.214   5.044
 8220SOL     OW26433   0.001  11.924  11.679
 8220SOL    HW126434   0.049  11.927  11.761
 8220SOL    HW226435  14.831  12.007  11.675
 8221SOL     OW26436   6.426  13.095   7.578
 8221SOL    HW126437   6.342  13.054   7.557
 8221SOL    HW226438   6.449  13.144   7.499
 8222SOL     OW26439  13.885   9.715   1.543
 8222SOL    HW126440  13.971   9.711   1.500
 8222SOL    HW226441  13.822   9.707   1.471
 8223SOL     OW26442  10.642   1.797   9.533
 8223SOL    HW126443  10.714   1.744   9.566
 8223SOL    HW226444  10.662   1.809   9.440
 8224SOL     OW26445   6.349   5.776   5.903
 8224SOL    HW126446   6.395   5.697   5.930
 8224SOL    HW226447   6.357   5.836   5.978
 8225SOL     OW26448   7.111   3.704   0.543
 8225SOL    HW126449   7.149   3.645   0.608
 8225SOL    HW226450   7.138   3.667   0.459
 8226SOL     OW26451   7.168   8.338   3.331
 8226SOL    HW126452   7.199   8.428   3.341
 8226SOL    HW226453   7.187   8.316   3.240
 8227SOL     OW26454  12.837   1.658   1.855
 8227SOL    HW126455  12.924   1.690   1.831
 8227SOL    HW226456  12.854   1.577   1.904
 8228SOL     OW26457   9.844  14.526   1.671
 8228SOL    HW126458   9.889  14.525   1.586
 8228SOL    HW226459   9.911  14.500   1.734
 8229SOL     OW26460  10.854  14.660   2.701
 8229SOL    HW126461  10.932  14.671   2.646
 8229SOL    HW226462  10.885  14.679   2.790
 8230SOL     OW26463   6.823   8.465  11.216
 8230SOL    HW126464   6.849   8.407  11.287
 8230SOL    HW226465   6.768   8.532  11.258
 8231SOL     OW26466   8.412   0.077  10.110
 8231SOL    HW126467   8.464   0.022  10.051
 8231SOL    HW226468   8.462   0.159  10.117
 8232SOL     OW26469   7.684   0.460   2.050
 8232SOL    HW126470   7.593   0.430   2.038
 8232SOL    HW226471   7.685   0.549   2.014
 8233SOL     OW26472  11.953   4.759   2.448
 8233SOL    HW126473  11.975   4.836   2.395
 8233SOL    HW226474  11.996   4.686   2.402
 8234SOL     OW26475  10.072  12.910   4.253
 8234SOL    HW126476  10.070  12.954   4.168
 8234SOL    HW226477  10.144  12.953   4.300
 8235SOL     OW26478  10.045   7.390   3.652
 8235SOL    HW126479  10.029   7.309   3.700
 8235SOL    HW226480   9.980   7.451   3.686
 8236SOL     OW26481   8.872   5.300   4.060
 8236SOL    HW126482   8.918   5.380   4.086
 8236SOL    HW226483   8.937   5.250   4.012
 8237SOL     OW26484  10.077   6.824  10.460
 8237SOL    HW126485  10.003   6.808  10.401
 8237SOL    HW226486  10.154   6.823  10.403
 8238SOL     OW26487  11.133  11.619   2.754
 8238SOL    HW126488  11.174  11.702   2.780
 8238SOL    HW226489  11.184  11.552   2.798
 8239SOL     OW26490   9.734   0.909   1.816
 8239SOL    HW126491   9.791   0.960   1.874
 8239SOL    HW226492   9.667   0.971   1.788
 8240SOL     OW26493  12.583   8.280   9.271
 8240SOL    HW126494  12.492   8.251   9.271
 8240SOL    HW226495  12.612   8.266   9.181
 8241SOL     OW26496   4.335   4.812  12.148
 8241SOL    HW126497   4.413   4.843  12.195
 8241SOL    HW226498   4.358   4.723  12.121
 8242SOL     OW26499   7.120  11.227  14.378
 8242SOL    HW126500   7.151  11.285  14.308
 8242SOL    HW226501   7.067  11.162  14.334
 8243SOL     OW26502   2.039   0.872  12.337
 8243SOL    HW126503   1.949   0.897  12.360
 8243SOL    HW226504   2.070   0.945  12.283
 8244SOL     OW26505   8.331   0.511   0.226
 8244SOL    HW126506   8.307   0.419   0.213
 8244SOL    HW226507   8.426   0.509   0.235
 8245SOL     OW26508   9.503   9.327  11.538
 8245SOL    HW126509   9.593   9.325  11.505
 8245SOL    HW226510   9.448   9.330  11.460
 8246SOL     OW26511  14.597   3.747  11.214
 8246SOL    HW126512  14.612   3.822  11.272
 8246SOL    HW226513  14.556   3.785  11.136
 8247SOL     OW26514   5.405  11.940   4.052
 8247SOL    HW126515   5.345  11.924   3.979
 8247SOL    HW226516   5.428  11.853   4.084
 8248SOL     OW26517  11.043  14.452   3.713
 8248SOL    HW126518  11.011  14.364   3.732
 8248SOL    HW226519  11.095  14.442   3.633
 8249SOL     OW26520   2.168   2.130   1.460
 8249SOL    HW126521   2.075   2.109   1.456
 8249SOL    HW226522   2.177   2.186   1.537
 8250SOL     OW26523   8.588   1.995   5.248
 8250SOL    HW126524   8.510   1.942   5.264
 8250SOL    HW226525   8.658   1.951   5.297
 8251SOL     OW26526   6.126   9.539  12.885
 8251SOL    HW126527   6.172   9.508  12.963
 8251SOL    HW226528   6.175   9.617  12.858
 8252SOL     OW26529   4.521   1.269   5.384
 8252SOL    HW126530   4.537   1.175   5.369
 8252SOL    HW226531   4.483   1.273   5.471
 8253SOL     OW26532   2.873  11.121   7.586
 8253SOL    HW126533   2.914  11.058   7.527
 8253SOL    HW226534   2.857  11.073   7.667
 8254SOL     OW26535  13.108  13.136   1.555
 8254SOL    HW126536  13.070  13.105   1.473
 8254SOL    HW226537  13.188  13.182   1.529
 8255SOL     OW26538  10.657   4.793  12.870
 8255SOL    HW126539  10.711   4.715  12.887
 8255SOL    HW226540  10.578   4.779  12.922
 8256SOL     OW26541   0.599   4.364   3.045
 8256SOL    HW126542   0.640   4.310   3.113
 8256SOL    HW226543   0.559   4.436   3.093
 8257SOL     OW26544  14.609  14.368   1.044
 8257SOL    HW126545  14.701  14.364   1.019
 8257SOL    HW226546  14.609  14.423   1.123
 8258SOL     OW26547   5.547   7.178  11.873
 8258SOL    HW126548   5.595   7.253  11.837
 8258SOL    HW226549   5.510   7.134  11.796
 8259SOL     OW26550   4.229   4.532  12.935
 8259SOL    HW126551   4.205   4.510  13.025
 8259SOL    HW226552   4.244   4.448  12.893
 8260SOL     OW26553  13.156   0.442   2.727
 8260SOL    HW126554  13.160   0.443   2.632
 8260SOL    HW226555  13.076   0.393   2.747
 8261SOL     OW26556   9.508  12.382   2.956
 8261SOL    HW126557   9.601  12.369   2.943
 8261SOL    HW226558   9.500  12.473   2.985
 8262SOL     OW26559   1.569   2.574   3.055
 8262SOL    HW126560   1.562   2.552   3.148
 8262SOL    HW226561   1.572   2.670   3.053
 8263SOL     OW26562   1.797   9.909   4.586
 8263SOL    HW126563   1.734   9.843   4.616
 8263SOL    HW226564   1.878   9.889   4.633
 8264SOL     OW26565   9.502  13.861   1.396
 8264SOL    HW126566   9.545  13.775   1.392
 8264SOL    HW226567   9.570  13.920   1.427
 8265SOL     OW26568  11.857   7.573   2.683
 8265SOL    HW126569  11.841   7.651   2.630
 8265SOL    HW226570  11.943   7.587   2.722
 8266SOL     OW26571  13.639  13.213  14.344
 8266SOL    HW126572  13.660  13.120  14.331
 8266SOL    HW226573  13.662  13.230  14.435
 8267SOL     OW26574   9.629  12.907   3.008
 8267SOL    HW126575   9.698  12.932   2.947
 8267SOL    HW226576   9.646  12.959   3.086
 8268SOL     OW26577   2.557   7.874   2.589
 8268SOL    HW126578   2.598   7.789   2.604
 8268SOL    HW226579   2.630   7.936   2.589
 8269SOL     OW26580  11.264  13.958   2.769
 8269SOL    HW126581  11.285  13.868   2.744
 8269SOL    HW226582  11.199  13.986   2.705
 8270SOL     OW26583   8.792   9.521   6.386
 8270SOL    HW126584   8.786   9.560   6.473
 8270SOL    HW226585   8.884   9.530   6.362
 8271SOL     OW26586  13.170   1.528   9.468
 8271SOL    HW126587  13.146   1.437   9.453
 8271SOL    HW226588  13.254   1.524   9.515
 8272SOL     OW26589   6.026   0.187   7.843
 8272SOL    HW126590   6.053   0.116   7.901
 8272SOL    HW226591   6.035   0.266   7.896
 8273SOL     OW26592   3.468   3.399   6.649
 8273SOL    HW126593   3.550   3.436   6.615
 8273SOL    HW226594   3.495   3.324   6.702
 8274SOL     OW26595   2.644   1.360   0.128
 8274SOL    HW126596   2.727   1.365   0.176
 8274SOL    HW226597   2.670   1.333   0.039
 8275SOL     OW26598  11.386   2.424   7.680
 8275SOL    HW126599  11.462   2.372   7.654
 8275SOL    HW226600  11.336   2.365   7.738
 8276SOL     OW26601   4.523   8.068  10.510
 8276SOL    HW126602   4.523   8.161  10.487
 8276SOL    HW226603   4.510   8.067  10.605
 8277SOL     OW26604   7.823   0.303   8.251
 8277SOL    HW126605   7.863   0.271   8.170
 8277SOL    HW226606   7.883   0.371   8.282
 8278SOL     OW26607   5.033   3.490  11.244
 8278SOL    HW126608   5.087   3.422  11.203
 8278SOL    HW226609   4.947   3.481  11.203
 8279SOL     OW26610   4.278   2.977   0.021
 8279SOL    HW126611   4.260   2.883   0.010
 8279SOL    HW226612   4.210   3.007   0.082
 8280SOL     OW26613  11.114   1.408  13.573
 8280SOL    HW126614  11.070   1.443  13.650
 8280SOL    HW226615  11.194   1.368  13.607
 8281SOL     OW26616  13.908  13.932  12.092
 8281SOL    HW126617  13.963  14.004  12.124
 8281SOL    HW226618  13.829  13.975  12.059
 8282SOL     OW26619   8.933   4.244   3.940
 8282SOL    HW126620   8.907   4.209   3.855
 8282SOL    HW226621   9.009   4.299   3.922
 8283SOL     OW26622  14.867   6.171   3.176
 8283SOL    HW126623   0.024   6.082   3.170
 8283SOL    HW226624  14.837   6.192   3.088
 8284SOL     OW26625  14.545   0.977  12.577
 8284SOL    HW126626  14.509   0.889  12.568
 8284SOL    HW226627  14.595   0.991  12.496
 8285SOL     OW26628   6.591  14.841   4.132
 8285SOL    HW126629   6.666   0.023   4.127
 8285SOL    HW226630   6.542  14.870   4.209
 8286SOL     OW26631   6.792  11.795  13.828
 8286SOL    HW126632   6.870  11.844  13.803
 8286SOL    HW226633   6.723  11.861  13.834
 8287SOL     OW26634   4.380   7.335  14.658
 8287SOL    HW126635   4.419   7.248  14.665
 8287SOL    HW226636   4.402   7.377  14.742
 8288SOL     OW26637   6.034   5.611   1.294
 8288SOL    HW126638   6.116   5.582   1.333
 8288SOL    HW226639   6.060   5.656   1.213
 8289SOL     OW26640  10.503   4.772  12.481
 8289SOL    HW126641  10.559   4.711  12.530
 8289SOL    HW226642  10.562   4.815  12.420
 8290SOL     OW26643  11.587   6.838  14.467
 8290SOL    HW126644  11.628   6.762  14.510
 8290SOL    HW226645  11.630   6.913  14.508
 8291SOL     OW26646   2.982   1.558   1.270
 8291SOL    HW126647   3.033   1.634   1.295
 8291SOL    HW226648   3.046   1.496   1.235
 8292SOL     OW26649   5.314   5.046   3.374
 8292SOL    HW126650   5.264   5.022   3.296
 8292SOL    HW226651   5.318   5.142   3.371
 8293SOL     OW26652  11.940   4.920   1.551
 8293SOL    HW126653  12.005   4.928   1.621
 8293SOL    HW226654  11.992   4.921   1.471
 8294SOL     OW26655   8.496  10.851   6.740
 8294SOL    HW126656   8.474  10.864   6.648
 8294SOL    HW226657   8.475  10.934   6.782
 8295SOL     OW26658   5.811  11.946  12.407
 8295SOL    HW126659   5.730  11.899  12.426
 8295SOL    HW226660   5.879  11.897  12.453
 8296SOL     OW26661  14.133   8.940  14.008
 8296SOL    HW126662  14.125   8.930  14.103
 8296SOL    HW226663  14.056   8.897  13.973
 8297SOL     OW26664   9.763  13.754   3.426
 8297SOL    HW126665   9.707  13.779   3.499
 8297SOL    HW226666   9.723  13.673   3.392
 8298SOL     OW26667   1.869   3.989   2.612
 8298SOL    HW126668   1.875   3.960   2.703
 8298SOL    HW226669   1.790   4.044   2.609
 8299SOL     OW26670   2.897   5.744   9.318
 8299SOL    HW126671   2.812   5.748   9.361
 8299SOL    HW226672   2.883   5.688   9.242
 8300SOL     OW26673   6.602   3.459  11.576
 8300SOL    HW126674   6.672   3.492  11.632
 8300SOL    HW226675   6.525   3.456  11.632
 8301SOL     OW26676   2.853   6.800   7.430
 8301SOL    HW126677   2.879   6.880   7.385
 8301SOL    HW226678   2.930   6.743   7.423
 8302SOL     OW26679  14.800  10.929  13.117
 8302SOL    HW126680  14.857  10.881  13.057
 8302SOL    HW226681  14.823  11.021  13.105
 8303SOL     OW26682  10.942   9.463   9.445
 8303SOL    HW126683  10.972   9.548   9.413
 8303SOL    HW226684  10.849   9.460   9.423
 8304SOL     OW26685  11.204  11.886   4.641
 8304SOL    HW126686  11.222  11.811   4.698
 8304SOL    HW226687  11.112  11.907   4.658
 8305SOL     OW26688  11.955   5.834   4.033
 8305SOL    HW126689  11.930   5.749   3.997
 8305SOL    HW226690  11.964   5.819   4.127
 8306SOL     OW26691   2.629  13.027   4.875
 8306SOL    HW126692   2.707  12.978   4.850
 8306SOL    HW226693   2.634  13.032   4.971
 8307SOL     OW26694   1.844  11.385   6.583
 8307SOL    HW126695   1.821  11.312   6.640
 8307SOL    HW226696   1.799  11.460   6.622
 8308SOL     OW26697  11.930   0.772  12.617
 8308SOL    HW126698  11.922   0.719  12.696
 8308SOL    HW226699  11.994   0.726  12.563
 8309SOL     OW26700  10.547  10.072  12.993
 8309SOL    HW126701  10.618  10.126  12.958
 8309SOL    HW226702  10.541  10.096  13.085
 8310SOL     OW26703   6.748   0.693   6.842
 8310SOL    HW126704   6.691   0.675   6.767
 8310SOL    HW226705   6.835   0.704   6.804
 8311SOL     OW26706   6.390   8.226  12.790
 8311SOL    HW126707   6.430   8.154  12.741
 8311SOL    HW226708   6.419   8.305  12.744
 8312SOL     OW26709   8.515  14.129   6.146
 8312SOL    HW126710   8.440  14.085   6.105
 8312SOL    HW226711   8.503  14.221   6.125
 8313SOL     OW26712  13.120   0.901   0.491
 8313SOL    HW126713  13.080   0.843   0.556
 8313SOL    HW226714  13.189   0.947   0.540
 8314SOL     OW26715   4.920   5.722  14.614
 8314SOL    HW126716   4.841   5.670  14.625
 8314SOL    HW226717   4.890   5.812  14.612
 8315SOL     OW26718   4.579   5.992   6.720
 8315SOL    HW126719   4.522   5.937   6.773
 8315SOL    HW226720   4.604   6.064   6.778
 8316SOL     OW26721   5.272   0.436  12.480
 8316SOL    HW126722   5.216   0.495  12.531
 8316SOL    HW226723   5.354   0.484  12.469
 8317SOL     OW26724  14.746   4.815  12.291
 8317SOL    HW126725  14.803   4.744  12.259
 8317SOL    HW226726  14.807   4.885  12.314
 8318SOL     OW26727   8.736   3.590   5.845
 8318SOL    HW126728   8.695   3.620   5.764
 8318SOL    HW226729   8.820   3.555   5.817
 8319SOL     OW26730   2.772  11.848  14.178
 8319SOL    HW126731   2.718  11.926  14.192
 8319SOL    HW226732   2.852  11.864  14.228
 8320SOL     OW26733   9.165   6.451   1.513
 8320SOL    HW126734   9.190   6.369   1.471
 8320SOL    HW226735   9.090   6.427   1.569
 8321SOL     OW26736   1.278  13.875   8.466
 8321SOL    HW126737   1.342  13.944   8.446
 8321SOL    HW226738   1.269  13.878   8.561
 8322SOL     OW26739   7.809   7.309   2.797
 8322SOL    HW126740   7.793   7.269   2.712
 8322SOL    HW226741   7.739   7.275   2.853
 8323SOL     OW26742   1.856  12.677   8.014
 8323SOL    HW126743   1.906  12.759   8.016
 8323SOL    HW226744   1.919  12.610   8.038
 8324SOL     OW26745   3.582   8.101   9.342
 8324SOL    HW126746   3.576   8.185   9.389
 8324SOL    HW226747   3.594   8.036   9.411
 8325SOL     OW26748   1.431  12.811  10.607
 8325SOL    HW126749   1.488  12.735  10.596
 8325SOL    HW226750   1.353  12.791  10.554
 8326SOL     OW26751  14.299   8.121  14.037
 8326SOL    HW126752  14.273   8.032  14.015
 8326SOL    HW226753  14.226   8.155  14.090
 8327SOL     OW26754   4.910   4.448   9.733
 8327SOL    HW126755   4.946   4.492   9.810
 8327SOL    HW226756   4.899   4.357   9.761
 8328SOL     OW26757   7.899   6.205  10.685
 8328SOL    HW126758   7.843   6.162  10.750
 8328SOL    HW226759   7.943   6.133  10.640
 8329SOL     OW26760   5.077   2.957   5.642
 8329SOL    HW126761   5.108   2.907   5.717
 8329SOL    HW226762   5.025   3.028   5.680
 8330SOL     OW26763  11.456   5.417  13.309
 8330SOL    HW126764  11.362   5.412  13.325
 8330SOL    HW226765  11.495   5.370  13.383
 8331SOL     OW26766   8.227   1.789   0.552
 8331SOL    HW126767   8.134   1.802   0.531
 8331SOL    HW226768   8.265   1.877   0.546
 8332SOL     OW26769   9.703  13.690  12.674
 8332SOL    HW126770   9.719  13.758  12.739
 8332SOL    HW226771   9.728  13.608  12.717
 8333SOL     OW26772   1.554   9.738   4.600
 8333SOL    HW126773   1.572   9.730   4.693
 8333SOL    HW226774   1.502   9.818   4.592
 8334SOL     OW26775   8.427   7.854   4.739
 8334SOL    HW126776   8.419   7.949   4.735
 8334SOL    HW226777   8.520   7.837   4.723
 8335SOL     OW26778  11.556   3.100  14.371
 8335SOL    HW126779  11.538   3.132  14.283
 8335SOL    HW226780  11.504   3.157  14.428
 8336SOL     OW26781  12.945   2.762   0.752
 8336SOL    HW126782  12.976   2.852   0.753
 8336SOL    HW226783  13.012   2.714   0.702
 8337SOL     OW26784   4.736   6.474  14.189
 8337SOL    HW126785   4.756   6.566  14.174
 8337SOL    HW226786   4.658   6.458  14.134
 8338SOL     OW26787   5.402   5.287   8.661
 8338SOL    HW126788   5.495   5.264   8.667
 8338SOL    HW226789   5.356   5.204   8.679
 8339SOL     OW26790   9.626  12.786   3.323
 8339SOL    HW126791   9.686  12.733   3.271
 8339SOL    HW226792   9.682  12.829   3.388
 8340SOL     OW26793  12.263   3.296  14.027
 8340SOL    HW126794  12.247   3.332  13.940
 8340SOL    HW226795  12.215   3.213  14.027
 8341SOL     OW26796   4.188   7.425   3.937
 8341SOL    HW126797   4.157   7.336   3.918
 8341SOL    HW226798   4.158   7.477   3.862
 8342SOL     OW26799   2.823  10.996  11.372
 8342SOL    HW126800   2.789  11.013  11.460
 8342SOL    HW226801   2.827  11.082  11.330
 8343SOL     OW26802  10.889  10.546   1.064
 8343SOL    HW126803  10.794  10.555   1.052
 8343SOL    HW226804  10.908  10.456   1.038
 8344SOL     OW26805  14.593   1.277   1.240
 8344SOL    HW126806  14.662   1.220   1.206
 8344SOL    HW226807  14.512   1.230   1.221
 8345SOL     OW26808   5.144   8.913   5.725
 8345SOL    HW126809   5.173   8.916   5.634
 8345SOL    HW226810   5.166   8.999   5.760
 8346SOL     OW26811   7.535  12.294   1.002
 8346SOL    HW126812   7.554  12.290   0.908
 8346SOL    HW226813   7.521  12.388   1.019
 8347SOL     OW26814   2.557   1.616   6.302
 8347SOL    HW126815   2.631   1.657   6.258
 8347SOL    HW226816   2.597   1.554   6.364
 8348SOL     OW26817   6.806  10.985  12.982
 8348SOL    HW126818   6.809  11.034  12.899
 8348SOL    HW226819   6.731  10.926  12.972
 8349SOL     OW26820   1.242   3.769  10.224
 8349SOL    HW126821   1.173   3.821  10.264
 8349SOL    HW226822   1.213   3.678  10.234
 8350SOL     OW26823   0.117   3.638   4.473
 8350SOL    HW126824   0.162   3.654   4.555
 8350SOL    HW226825   0.150   3.553   4.444
 8351SOL     OW26826   6.209   9.020  13.232
 8351SOL    HW126827   6.245   8.931  13.226
 8351SOL    HW226828   6.124   9.008  13.275
 8352SOL     OW26829   0.706  10.684   9.160
 8352SOL    HW126830   0.663  10.767   9.177
 8352SOL    HW226831   0.638  10.618   9.172
 8353SOL     OW26832   3.858   3.077  12.283
 8353SOL    HW126833   3.894   3.146  12.228
 8353SOL    HW226834   3.810   3.020  12.223
 8354SOL     OW26835   0.941   3.904   9.888
 8354SOL    HW126836   0.907   3.901   9.977
 8354SOL    HW226837   1.003   3.831   9.884
 8355SOL     OW26838   5.673   2.504  11.947
 8355SOL    HW126839   5.692   2.439  12.015
 8355SOL    HW226840   5.691   2.588  11.988
 8356SOL     OW26841  12.542   3.199   9.830
 8356SOL    HW126842  12.551   3.255   9.754
 8356SOL    HW226843  12.617   3.222   9.886
 8357SOL     OW26844   7.153  13.825   0.789
 8357SOL    HW126845   7.138  13.814   0.695
 8357SOL    HW226846   7.068  13.854   0.823
 8358SOL     OW26847   7.106   4.323   1.276
 8358SOL    HW126848   7.025   4.336   1.226
 8358SOL    HW226849   7.077   4.300   1.364
 8359SOL     OW26850   1.794  13.706   0.056
 8359SOL    HW126851   1.712  13.751   0.075
 8359SOL    HW226852   1.771  13.635  14.874
 8360SOL     OW26853   2.150   7.854   3.516
 8360SOL    HW126854   2.084   7.818   3.576
 8360SOL    HW226855   2.101   7.880   3.438
 8361SOL     OW26856   7.432   1.530  11.970
 8361SOL    HW126857   7.403   1.444  11.943
 8361SOL    HW226858   7.453   1.520  12.063
 8362SOL     OW26859   0.868   1.465  11.506
 8362SOL    HW126860   0.957   1.498  11.508
 8362SOL    HW226861   0.830   1.500  11.426
 8363SOL     OW26862   9.775   8.584   7.624
 8363SOL    HW126863   9.828   8.529   7.565
 8363SOL    HW226864   9.686   8.578   7.588
 8364SOL     OW26865  10.543   5.664   8.570
 8364SOL    HW126866  10.554   5.578   8.529
 8364SOL    HW226867  10.545   5.726   8.497
 8365SOL     OW26868   7.371   9.347  11.290
 8365SOL    HW126869   7.346   9.315  11.376
 8365SOL    HW226870   7.385   9.441  11.302
 8366SOL     OW26871  12.106  12.762   8.001
 8366SOL    HW126872  12.045  12.689   8.003
 8366SOL    HW226873  12.060  12.833   8.046
 8367SOL     OW26874  14.142   4.440   2.977
 8367SOL    HW126875  14.122   4.420   3.069
 8367SOL    HW226876  14.083   4.383   2.927
 8368SOL     OW26877   1.171   0.552   5.632
 8368SOL    HW126878   1.116   0.557   5.711
 8368SOL    HW226879   1.149   0.468   5.593
 8369SOL     OW26880   2.644  14.319   4.125
 8369SOL    HW126881   2.630  14.226   4.109
 8369SOL    HW226882   2.725  14.340   4.078
 8370SOL     OW26883   0.322   9.075   1.863
 8370SOL    HW126884   0.266   9.032   1.797
 8370SOL    HW226885   0.410   9.070   1.826
 8371SOL     OW26886  13.370   9.345   9.628
 8371SOL    HW126887  13.348   9.334   9.720
 8371SOL    HW226888  13.400   9.435   9.621
 8372SOL     OW26889   1.782   8.658   3.722
 8372SOL    HW126890   1.767   8.748   3.693
 8372SOL    HW226891   1.728   8.649   3.801
 8373SOL     OW26892   5.161   9.480   1.482
 8373SOL    HW126893   5.117   9.563   1.461
 8373SOL    HW226894   5.091   9.415   1.475
 8374SOL     OW26895  11.329   7.865  14.504
 8374SOL    HW126896  11.360   7.955  14.510
 8374SOL    HW226897  11.237   7.869  14.531
 8375SOL     OW26898   9.776   5.500   7.752
 8375SOL    HW126899   9.690   5.530   7.720
 8375SOL    HW226900   9.839   5.558   7.709
 8376SOL     OW26901   3.970   6.673   7.174
 8376SOL    HW126902   3.903   6.656   7.240
 8376SOL    HW226903   4.023   6.743   7.211
 8377SOL     OW26904   3.733   4.378   3.824
 8377SOL    HW126905   3.796   4.306   3.819
 8377SOL    HW226906   3.785   4.457   3.811
 8378SOL     OW26907  12.798   6.147  11.038
 8378SOL    HW126908  12.754   6.171  11.119
 8378SOL    HW226909  12.760   6.204  10.971
 8379SOL     OW26910   2.698   6.965   0.558
 8379SOL    HW126911   2.676   7.027   0.627
 8379SOL    HW226912   2.745   6.894   0.602
 8380SOL     OW26913   4.047   0.243  14.138
 8380SOL    HW126914   4.139   0.264  14.154
 8380SOL    HW226915   4.043   0.148  14.145
 8381SOL     OW26916   5.016  13.360   9.086
 8381SOL    HW126917   5.094  13.315   9.119
 8381SOL    HW226918   5.051  13.424   9.025
 8382SOL     OW26919   2.964   0.806   1.331
 8382SOL    HW126920   2.894   0.802   1.265
 8382SOL    HW226921   3.043   0.783   1.283
 8383SOL     OW26922  11.400   4.810   8.756
 8383SOL    HW126923  11.481   4.846   8.721
 8383SOL    HW226924  11.331   4.864   8.717
 8384SOL     OW26925   5.108   7.321   3.841
 8384SOL    HW126926   5.042   7.389   3.850
 8384SOL    HW226927   5.059   7.240   3.827
 8385SOL     OW26928   3.379   6.278   6.565
 8385SOL    HW126929   3.430   6.352   6.531
 8385SOL    HW226930   3.340   6.238   6.488
 8386SOL     OW26931  10.410  14.848   1.139
 8386SOL    HW126932  10.323  14.817   1.113
 8386SOL    HW226933  10.393   0.037   1.205
 8387SOL     OW26934   9.680  11.017  10.071
 8387SOL    HW126935   9.720  11.062  10.145
 8387SOL    HW226936   9.633  11.085  10.024
 8388SOL     OW26937   7.146   2.118   6.710
 8388SOL    HW126938   7.199   2.171   6.651
 8388SOL    HW226939   7.064   2.105   6.663
 8389SOL     OW26940   5.836   2.532  14.535
 8389SOL    HW126941   5.805   2.538  14.625
 8389SOL    HW226942   5.846   2.622  14.506
 8390SOL     OW26943   5.172   0.436   5.382
 8390SOL    HW126944   5.201   0.504   5.321
 8390SOL    HW226945   5.253   0.403   5.421
 8391SOL     OW26946   1.775   0.834   1.924
 8391SOL    HW126947   1.775   0.799   1.835
 8391SOL    HW226948   1.713   0.907   1.921
 8392SOL     OW26949   7.268   3.491   2.832
 8392SOL    HW126950   7.313   3.576   2.830
 8392SOL    HW226951   7.338   3.427   2.826
 8393SOL     OW26952   9.941  13.473   1.086
 8393SOL    HW126953   9.978  13.561   1.084
 8393SOL    HW226954  10.014  13.416   1.111
 8394SOL     OW26955  13.182   3.831   6.456
 8394SOL    HW126956  13.140   3.872   6.532
 8394SOL    HW226957  13.137   3.868   6.381
 8395SOL     OW26958  13.803   4.411   7.782
 8395SOL    HW126959  13.723   4.436   7.828
 8395SOL    HW226960  13.868   4.400   7.851
 8396SOL     OW26961   5.660   5.869  14.455
 8396SOL    HW126962   5.627   5.815  14.527
 8396SOL    HW226963   5.746   5.899  14.484
 8397SOL     OW26964   0.275   6.711   3.527
 8397SOL    HW126965   0.204   6.773   3.511
 8397SOL    HW226966   0.338   6.727   3.456
 8398SOL     OW26967   5.067   0.198   8.060
 8398SOL    HW126968   5.123   0.274   8.076
 8398SOL    HW226969   5.092   0.166   7.973
 8399SOL     OW26970  11.439  14.586   9.303
 8399SOL    HW126971  11.385  14.509   9.290
 8399SOL    HW226972  11.529  14.553   9.300
 8400SOL     OW26973   6.657   9.589   2.686
 8400SOL    HW126974   6.651   9.652   2.614
 8400SOL    HW226975   6.602   9.516   2.659
 8401SOL     OW26976   1.915   0.655  11.558
 8401SOL    HW126977   1.884   0.625  11.473
 8401SOL    HW226978   1.836   0.667  11.610
 8402SOL     OW26979   2.459   6.610  10.331
 8402SOL    HW126980   2.495   6.688  10.287
 8402SOL    HW226981   2.369   6.605  10.301
 8403SOL     OW26982   8.434   7.610   5.878
 8403SOL    HW126983   8.420   7.690   5.826
 8403SOL    HW226984   8.395   7.630   5.963
 8404SOL     OW26985   7.599   4.021   0.358
 8404SOL    HW126986   7.596   3.977   0.443
 8404SOL    HW226987   7.684   4.064   0.357
 8405SOL     OW26988   4.879   4.824   3.470
 8405SOL    HW126989   4.871   4.920   3.467
 8405SOL    HW226990   4.933   4.802   3.395
 8406SOL     OW26991   6.894   4.459  13.244
 8406SOL    HW126992   6.877   4.483  13.335
 8406SOL    HW226993   6.933   4.372  13.248
 8407SOL     OW26994   7.472   2.179   4.312
 8407SOL    HW126995   7.551   2.135   4.343
 8407SOL    HW226996   7.487   2.192   4.218
 8408SOL     OW26997  12.691  14.684  11.343
 8408SOL    HW126998  12.742  14.667  11.423
 8408SOL    HW226999  12.626  14.614  11.341
 8409SOL     OW27000   1.571   4.997   6.624
 8409SOL    HW127001   1.626   4.964   6.552
 8409SOL    HW227002   1.510   5.058   6.582
 8410SOL     OW27003   3.924   4.688   8.425
 8410SOL    HW127004   4.001   4.657   8.474
 8410SOL    HW227005   3.922   4.782   8.441
 8411SOL     OW27006   4.162   3.737   9.552
 8411SOL    HW127007   4.126   3.769   9.469
 8411SOL    HW227008   4.094   3.680   9.588
 8412SOL     OW27009   4.117  13.155   5.232
 8412SOL    HW127010   4.038  13.209   5.224
 8412SOL    HW227011   4.146  13.168   5.322
 8413SOL     OW27012   2.499   8.670   6.988
 8413SOL    HW127013   2.497   8.755   7.032
 8413SOL    HW227014   2.512   8.691   6.896
 8414SOL     OW27015   0.807   3.671   2.370
 8414SOL    HW127016   0.859   3.689   2.448
 8414SOL    HW227017   0.867   3.686   2.297
 8415SOL     OW27018  11.079   9.764  14.054
 8415SOL    HW127019  11.106   9.710  13.980
 8415SOL    HW227020  11.008   9.714  14.095
 8416SOL     OW27021  13.025  14.704   6.598
 8416SOL    HW127022  12.998  14.753   6.521
 8416SOL    HW227023  12.945  14.661   6.628
 8417SOL     OW27024   6.054  12.515  10.400
 8417SOL    HW127025   6.009  12.599  10.392
 8417SOL    HW227026   5.998  12.454  10.353
 8418SOL     OW27027   7.292   6.874  13.681
 8418SOL    HW127028   7.371   6.882  13.734
 8418SOL    HW227029   7.320   6.894  13.592
 8419SOL     OW27030  11.619   2.915  14.669
 8419SOL    HW127031  11.583   2.846  14.725
 8419SOL    HW227032  11.545   2.975  14.655
 8420SOL     OW27033  14.244  13.575  13.583
 8420SOL    HW127034  14.312  13.634  13.616
 8420SOL    HW227035  14.263  13.491  13.626
 8421SOL     OW27036   7.380   7.016  11.508
 8421SOL    HW127037   7.349   7.089  11.454
 8421SOL    HW227038   7.472   7.035  11.523
 8422SOL     OW27039  13.921   6.362   0.891
 8422SOL    HW127040  13.913   6.440   0.945
 8422SOL    HW227041  13.916   6.289   0.953
 8423SOL     OW27042  10.841   5.073  14.040
 8423SOL    HW127043  10.810   5.149  13.991
 8423SOL    HW227044  10.763   5.017  14.050
 8424SOL     OW27045   3.628   8.352   8.293
 8424SOL    HW127046   3.677   8.400   8.360
 8424SOL    HW227047   3.537   8.378   8.306
 8425SOL     OW27048   6.275  11.021   4.462
 8425SOL    HW127049   6.324  11.000   4.382
 8425SOL    HW227050   6.264  11.116   4.459
 8426SOL     OW27051   9.637   6.164   6.295
 8426SOL    HW127052   9.624   6.119   6.379
 8426SOL    HW227053   9.732   6.158   6.279
 8427SOL     OW27054   8.906  11.733  13.318
 8427SOL    HW127055   8.905  11.640  13.297
 8427SOL    HW227056   8.854  11.741  13.398
 8428SOL     OW27057   4.858  14.660  10.006
 8428SOL    HW127058   4.901  14.745  10.016
 8428SOL    HW227059   4.779  14.678   9.956
 8429SOL     OW27060  13.042   1.340  10.572
 8429SOL    HW127061  12.972   1.326  10.508
 8429SOL    HW227062  13.004   1.399  10.637
 8430SOL     OW27063   0.860   9.637  12.185
 8430SOL    HW127064   0.924   9.646  12.114
 8430SOL    HW227065   0.834   9.727  12.205
 8431SOL     OW27066   6.033   0.224   4.958
 8431SOL    HW127067   6.077   0.225   5.043
 8431SOL    HW227068   6.070   0.148   4.913
 8432SOL     OW27069   3.898  13.823   5.548
 8432SOL    HW127070   3.886  13.731   5.570
 8432SOL    HW227071   3.920  13.824   5.455
 8433SOL     OW27072  10.516  10.992   6.346
 8433SOL    HW127073  10.603  10.957   6.327
 8433SOL    HW227074  10.492  10.953   6.430
 8434SOL     OW27075   0.765   0.480   2.325
 8434SOL    HW127076   0.758   0.461   2.232
 8434SOL    HW227077   0.717   0.561   2.337
 8435SOL     OW27078   0.789   8.228   0.858
 8435SOL    HW127079   0.829   8.150   0.819
 8435SOL    HW227080   0.857   8.296   0.851
 8436SOL     OW27081  10.643   2.548  13.190
 8436SOL    HW127082  10.623   2.540  13.097
 8436SOL    HW227083  10.569   2.598  13.226
 8437SOL     OW27084   8.413  14.263  12.313
 8437SOL    HW127085   8.434  14.329  12.248
 8437SOL    HW227086   8.465  14.287  12.390
 8438SOL     OW27087   7.081   4.265   1.954
 8438SOL    HW127088   7.163   4.228   1.987
 8438SOL    HW227089   7.080   4.355   1.987
 8439SOL     OW27090  14.044  11.785  13.616
 8439SOL    HW127091  14.021  11.835  13.538
 8439SOL    HW227092  13.987  11.707  13.612
 8440SOL     OW27093  11.701   9.147   7.085
 8440SOL    HW127094  11.747   9.070   7.052
 8440SOL    HW227095  11.670   9.121   7.171
 8441SOL     OW27096   2.826  14.223   7.115
 8441SOL    HW127097   2.800  14.157   7.179
 8441SOL    HW227098   2.922  14.222   7.116
 8442SOL     OW27099  11.319   1.001  13.276
 8442SOL    HW127100  11.384   1.049  13.327
 8442SOL    HW227101  11.238   1.011  13.325
 8443SOL     OW27102   0.795   3.819   1.368
 8443SOL    HW127103   0.841   3.889   1.321
 8443SOL    HW227104   0.838   3.815   1.453
 8444SOL     OW27105   9.184   2.746   6.695
 8444SOL    HW127106   9.241   2.671   6.679
 8444SOL    HW227107   9.113   2.736   6.632
 8445SOL     OW27108   6.270  13.566   0.137
 8445SOL    HW127109   6.218  13.605   0.066
 8445SOL    HW227110   6.358  13.603   0.126
 8446SOL     OW27111  13.352   6.678   2.127
 8446SOL    HW127112  13.428   6.712   2.080
 8446SOL    HW227113  13.386   6.654   2.213
 8447SOL     OW27114  10.968  13.090   4.585
 8447SOL    HW127115  10.961  13.071   4.679
 8447SOL    HW227116  11.004  13.010   4.547
 8448SOL     OW27117   6.055   1.083   3.685
 8448SOL    HW127118   6.069   1.177   3.674
 8448SOL    HW227119   6.113   1.059   3.758
 8449SOL     OW27120   1.166  14.631   1.597
 8449SOL    HW127121   1.077  14.639   1.563
 8449SOL    HW227122   1.216  14.593   1.524
 8450SOL     OW27123   7.777   5.358   2.890
 8450SOL    HW127124   7.705   5.378   2.949
 8450SOL    HW227125   7.844   5.423   2.910
 8451SOL     OW27126   4.444   5.276   8.751
 8451SOL    HW127127   4.349   5.289   8.747
 8451SOL    HW227128   4.458   5.188   8.718
 8452SOL     OW27129   1.693   4.711   8.052
 8452SOL    HW127130   1.622   4.695   8.115
 8452SOL    HW227131   1.723   4.624   8.026
 8453SOL     OW27132   0.545  13.293  12.207
 8453SOL    HW127133   0.493  13.366  12.172
 8453SOL    HW227134   0.480  13.229  12.235
 8454SOL     OW27135   2.556  10.772   5.515
 8454SOL    HW127136   2.463  10.747   5.512
 8454SOL    HW227137   2.602  10.691   5.537
 8455SOL     OW27138   5.616   4.912  11.014
 8455SOL    HW127139   5.529   4.895  10.978
 8455SOL    HW227140   5.615   4.871  11.100
 8456SOL     OW27141   3.477   2.891  11.564
 8456SOL    HW127142   3.534   2.942  11.506
 8456SOL    HW227143   3.429   2.957  11.615
 8457SOL     OW27144   2.858  10.498   9.946
 8457SOL    HW127145   2.808  10.429   9.988
 8457SOL    HW227146   2.880  10.463   9.860
 8458SOL     OW27147   2.402   7.311   9.996
 8458SOL    HW127148   2.371   7.384   9.942
 8458SOL    HW227149   2.426   7.243   9.932
 8459SOL     OW27150   0.100   9.577   7.261
 8459SOL    HW127151   0.023   9.548   7.211
 8459SOL    HW227152   0.165   9.595   7.194
 8460SOL     OW27153   3.731   7.861   2.019
 8460SOL    HW127154   3.683   7.895   1.944
 8460SOL    HW227155   3.823   7.863   1.992
 8461SOL     OW27156   9.819   7.306   5.334
 8461SOL    HW127157   9.898   7.300   5.386
 8461SOL    HW227158   9.839   7.370   5.265
 8462SOL     OW27159   1.276  12.273  12.497
 8462SOL    HW127160   1.217  12.324  12.553
 8462SOL    HW227161   1.228  12.264  12.414
 8463SOL     OW27162   5.365   2.924   7.711
 8463SOL    HW127163   5.416   2.873   7.774
 8463SOL    HW227164   5.431   2.965   7.655
 8464SOL     OW27165   6.214  13.097   4.633
 8464SOL    HW127166   6.139  13.094   4.574
 8464SOL    HW227167   6.215  13.011   4.675
 8465SOL     OW27168   8.772   1.479  14.167
 8465SOL    HW127169   8.818   1.403  14.132
 8465SOL    HW227170   8.840   1.546  14.178
 8466SOL     OW27171  14.535   8.078   0.422
 8466SOL    HW127172  14.467   8.060   0.358
 8466SOL    HW227173  14.499   8.047   0.505
 8467SOL     OW27174  12.000   4.850   5.848
 8467SOL    HW127175  12.053   4.878   5.773
 8467SOL    HW227176  12.063   4.811   5.908
 8468SOL     OW27177   5.133   7.122   0.388
 8468SOL    HW127178   5.073   7.156   0.454
 8468SOL    HW227179   5.121   7.027   0.391
 8469SOL     OW27180  13.766   4.391  12.980
 8469SOL    HW127181  13.762   4.374  12.886
 8469SOL    HW227182  13.811   4.314  13.017
 8470SOL     OW27183   6.871  13.831   9.425
 8470SOL    HW127184   6.944  13.815   9.485
 8470SOL    HW227185   6.873  13.925   9.410
 8471SOL     OW27186   6.477  14.057   3.372
 8471SOL    HW127187   6.526  14.112   3.310
 8471SOL    HW227188   6.510  13.969   3.356
 8472SOL     OW27189   2.355   6.882   7.680
 8472SOL    HW127190   2.348   6.889   7.585
 8472SOL    HW227191   2.276   6.834   7.707
 8473SOL     OW27192  13.789   3.401   4.945
 8473SOL    HW127193  13.866   3.455   4.930
 8473SOL    HW227194  13.740   3.447   5.014
 8474SOL     OW27195  10.500   9.844  12.301
 8474SOL    HW127196  10.595   9.837  12.295
 8474SOL    HW227197  10.480   9.839  12.394
 8475SOL     OW27198   3.032  13.926   3.141
 8475SOL    HW127199   2.991  14.004   3.102
 8475SOL    HW227200   2.995  13.921   3.229
 8476SOL     OW27201  10.998   8.168   4.997
 8476SOL    HW127202  10.987   8.231   4.925
 8476SOL    HW227203  10.917   8.118   4.997
 8477SOL     OW27204   9.099   1.086  11.551
 8477SOL    HW127205   9.037   1.066  11.481
 8477SOL    HW227206   9.179   1.113  11.505
 8478SOL     OW27207   5.399   7.923  10.845
 8478SOL    HW127208   5.407   7.954  10.755
 8478SOL    HW227209   5.312   7.952  10.872
 8479SOL     OW27210   5.354  11.264   2.586
 8479SOL    HW127211   5.415  11.221   2.527
 8479SOL    HW227212   5.330  11.345   2.542
 8480SOL     OW27213  12.023   4.920  11.936
 8480SOL    HW127214  11.947   4.979  11.936
 8480SOL    HW227215  12.074   4.948  11.860
 8481SOL     OW27216   6.535   3.990  13.692
 8481SOL    HW127217   6.450   4.033  13.682
 8481SOL    HW227218   6.576   4.035  13.765
 8482SOL     OW27219   5.440   9.247   7.407
 8482SOL    HW127220   5.476   9.316   7.462
 8482SOL    HW227221   5.482   9.260   7.322
 8483SOL     OW27222   1.327   9.686   9.937
 8483SOL    HW127223   1.382   9.759   9.909
 8483SOL    HW227224   1.240   9.709   9.904
 8484SOL     OW27225  10.527   4.527  10.938
 8484SOL    HW127226  10.442   4.506  10.978
 8484SOL    HW227227  10.523   4.487  10.852
 8485SOL     OW27228  13.761   4.640   5.574
 8485SOL    HW127229  13.846   4.680   5.554
 8485SOL    HW227230  13.722   4.697   5.639
 8486SOL     OW27231   9.891   8.083  11.803
 8486SOL    HW127232   9.956   8.044  11.861
 8486SOL    HW227233   9.807   8.051  11.836
 8487SOL     OW27234  11.216   7.122  12.910
 8487SOL    HW127235  11.140   7.063  12.909
 8487SOL    HW227236  11.225   7.152  12.820
 8488SOL     OW27237   6.709  11.719   9.208
 8488SOL    HW127238   6.626  11.764   9.224
 8488SOL    HW227239   6.723  11.666   9.286
 8489SOL     OW27240   3.751  12.738   7.727
 8489SOL    HW127241   3.687  12.786   7.780
 8489SOL    HW227242   3.794  12.678   7.788
 8490SOL     OW27243   0.682   7.923   6.425
 8490SOL    HW127244   0.694   7.970   6.507
 8490SOL    HW227245   0.653   7.836   6.451
 8491SOL     OW27246   8.294   3.974   5.633
 8491SOL    HW127247   8.263   4.058   5.599
 8491SOL    HW227248   8.369   3.953   5.577
 8492SOL     OW27249   3.494   2.423   7.143
 8492SOL    HW127250   3.550   2.384   7.075
 8492SOL    HW227251   3.441   2.350   7.175
 8493SOL     OW27252  14.308   9.809   6.355
 8493SOL    HW127253  14.393   9.814   6.400
 8493SOL    HW227254  14.268   9.728   6.388
 8494SOL     OW27255   9.686   5.213   8.298
 8494SOL    HW127256   9.626   5.230   8.225
 8494SOL    HW227257   9.629   5.181   8.368
 8495SOL     OW27258   5.282   1.664  14.185
 8495SOL    HW127259   5.243   1.720  14.253
 8495SOL    HW227260   5.318   1.590  14.233
 8496SOL     OW27261  13.660   4.615  14.546
 8496SOL    HW127262  13.607   4.678  14.497
 8496SOL    HW227263  13.607   4.535  14.550
 8497SOL     OW27264   2.573   0.478  11.065
 8497SOL    HW127265   2.485   0.513  11.057
 8497SOL    HW227266   2.624   0.527  11.001
 8498SOL     OW27267   9.214   6.710   7.995
 8498SOL    HW127268   9.202   6.750   8.081
 8498SOL    HW227269   9.265   6.631   8.012
 8499SOL     OW27270   7.978   9.230   4.372
 8499SOL    HW127271   7.926   9.304   4.405
 8499SOL    HW227272   7.934   9.153   4.407
 8500SOL     OW27273  12.975   7.264   7.840
 8500SOL    HW127274  12.892   7.252   7.793
 8500SOL    HW227275  12.979   7.359   7.855
 8501SOL     OW27276   3.650   0.059   8.504
 8501SOL    HW127277   3.572   0.068   8.558
 8501SOL    HW227278   3.630   0.106   8.423
 8502SOL     OW27279  14.370   1.634   4.748
 8502SOL    HW127280  14.416   1.641   4.831
 8502SOL    HW227281  14.356   1.540   4.736
 8503SOL     OW27282   1.413   2.230   7.944
 8503SOL    HW127283   1.351   2.192   7.881
 8503SOL    HW227284   1.406   2.324   7.929
 8504SOL     OW27285  13.867   7.169   1.149
 8504SOL    HW127286  13.946   7.123   1.122
 8504SOL    HW227287  13.815   7.103   1.196
 8505SOL     OW27288   0.398  11.359   5.544
 8505SOL    HW127289   0.391  11.403   5.628
 8505SOL    HW227290   0.449  11.280   5.562
 8506SOL     OW27291  13.945  10.745   4.223
 8506SOL    HW127292  14.012  10.680   4.242
 8506SOL    HW227293  13.939  10.746   4.127
 8507SOL     OW27294   7.324  11.735  14.258
 8507SOL    HW127295   7.263  11.807  14.244
 8507SOL    HW227296   7.305  11.705  14.347
 8508SOL     OW27297   7.042  14.775  12.688
 8508SOL    HW127298   7.121  14.823  12.715
 8508SOL    HW227299   7.065  14.683  12.701
 8509SOL     OW27300  12.653  14.208   2.430
 8509SOL    HW127301  12.678  14.294   2.464
 8509SOL    HW227302  12.713  14.193   2.357
 8510SOL     OW27303   5.122   1.392   6.279
 8510SOL    HW127304   5.188   1.427   6.340
 8510SOL    HW227305   5.050   1.455   6.283
 8511SOL     OW27306   8.556   2.709  14.645
 8511SOL    HW127307   8.495   2.638  14.667
 8511SOL    HW227308   8.571   2.756  14.727
 8512SOL     OW27309   0.560  14.611   2.466
 8512SOL    HW127310   0.609  14.683   2.506
 8512SOL    HW227311   0.613  14.585   2.390
 8513SOL     OW27312   2.584   0.228   5.424
 8513SOL    HW127313   2.523   0.195   5.358
 8513SOL    HW227314   2.531   0.282   5.482
 8514SOL     OW27315   8.288  14.087   1.905
 8514SOL    HW127316   8.259  14.009   1.858
 8514SOL    HW227317   8.280  14.158   1.841
 8515SOL     OW27318   4.139  13.012  13.433
 8515SOL    HW127319   4.208  12.983  13.492
 8515SOL    HW227320   4.067  12.950  13.447
 8516SOL     OW27321  11.673   1.373  11.727
 8516SOL    HW127322  11.751   1.364  11.782
 8516SOL    HW227323  11.607   1.319  11.771
 8517SOL     OW27324   0.018  11.036  10.891
 8517SOL    HW127325   0.097  10.990  10.862
 8517SOL    HW227326   0.014  11.018  10.985
 8518SOL     OW27327  12.604  10.875  14.807
 8518SOL    HW127328  12.555  10.874  14.725
 8518SOL    HW227329  12.536  10.875  14.875
 8519SOL     OW27330   9.127   8.327   2.826
 8519SOL    HW127331   9.041   8.323   2.866
 8519SOL    HW227332   9.114   8.291   2.738
 8520SOL     OW27333   7.152   3.746   1.412
 8520SOL    HW127334   7.148   3.697   1.495
 8520SOL    HW227335   7.241   3.780   1.409
 8521SOL     OW27336   2.637   9.714   8.635
 8521SOL    HW127337   2.662   9.733   8.545
 8521SOL    HW227338   2.542   9.721   8.637
 8522SOL     OW27339   4.958   5.665   9.368
 8522SOL    HW127340   5.054   5.672   9.363
 8522SOL    HW227341   4.929   5.687   9.279
 8523SOL     OW27342   3.547   9.734   2.007
 8523SOL    HW127343   3.459   9.767   2.023
 8523SOL    HW227344   3.554   9.727   1.912
 8524SOL     OW27345   2.696   2.405   6.415
 8524SOL    HW127346   2.640   2.331   6.394
 8524SOL    HW227347   2.757   2.411   6.342
 8525SOL     OW27348   7.325   0.313   1.700
 8525SOL    HW127349   7.332   0.222   1.729
 8525SOL    HW227350   7.299   0.307   1.608
 8526SOL     OW27351   1.996   7.618  12.606
 8526SOL    HW127352   2.005   7.685  12.539
 8526SOL    HW227353   2.083   7.577  12.611
 8527SOL     OW27354   1.820   1.141   5.572
 8527SOL    HW127355   1.837   1.232   5.596
 8527SOL    HW227356   1.859   1.090   5.642
 8528SOL     OW27357  12.708   4.858   0.212
 8528SOL    HW127358  12.651   4.818   0.277
 8528SOL    HW227359  12.778   4.898   0.262
 8529SOL     OW27360   3.476   6.156  14.675
 8529SOL    HW127361   3.391   6.114  14.664
 8529SOL    HW227362   3.526   6.134  14.597
 8530SOL     OW27363  11.967  14.513  10.862
 8530SOL    HW127364  11.949  14.453  10.934
 8530SOL    HW227365  12.061  14.532  10.870
 8531SOL     OW27366  11.605   1.131  10.386
 8531SOL    HW127367  11.682   1.078  10.408
 8531SOL    HW227368  11.537   1.066  10.365
 8532SOL     OW27369  13.822  11.281   0.557
 8532SOL    HW127370  13.824  11.357   0.615
 8532SOL    HW227371  13.793  11.316   0.472
 8533SOL     OW27372  10.762  11.077   1.751
 8533SOL    HW127373  10.794  11.067   1.661
 8533SOL    HW227374  10.728  10.991   1.775
 8534SOL     OW27375   9.799   3.818   3.375
 8534SOL    HW127376   9.831   3.908   3.377
 8534SOL    HW227377   9.864   3.769   3.427
 8535SOL     OW27378   4.226   8.963   1.283
 8535SOL    HW127379   4.163   9.035   1.292
 8535SOL    HW227380   4.255   8.945   1.372
 8536SOL     OW27381   6.433   2.478  12.431
 8536SOL    HW127382   6.358   2.532  12.456
 8536SOL    HW227383   6.414   2.392  12.469
 8537SOL     OW27384   1.503   3.774  11.925
 8537SOL    HW127385   1.526   3.809  11.839
 8537SOL    HW227386   1.468   3.687  11.907
 8538SOL     OW27387   7.907   8.296   9.327
 8538SOL    HW127388   7.999   8.295   9.351
 8538SOL    HW227389   7.905   8.329   9.237
 8539SOL     OW27390   8.165  11.023   3.032
 8539SOL    HW127391   8.256  11.045   3.053
 8539SOL    HW227392   8.114  11.068   3.100
 8540SOL     OW27393   6.456   1.731   1.179
 8540SOL    HW127394   6.397   1.685   1.120
 8540SOL    HW227395   6.522   1.770   1.123
 8541SOL     OW27396  11.660   7.700   4.084
 8541SOL    HW127397  11.646   7.767   4.018
 8541SOL    HW227398  11.755   7.696   4.094
 8542SOL     OW27399   2.748   2.940   6.258
 8542SOL    HW127400   2.804   2.973   6.188
 8542SOL    HW227401   2.703   3.018   6.292
 8543SOL     OW27402   9.447  10.768  12.655
 8543SOL    HW127403   9.372  10.823  12.675
 8543SOL    HW227404   9.413  10.679  12.653
 8544SOL     OW27405   2.089   7.351   7.137
 8544SOL    HW127406   2.040   7.387   7.211
 8544SOL    HW227407   2.180   7.375   7.155
 8545SOL     OW27408  12.235   8.137   7.269
 8545SOL    HW127409  12.150   8.179   7.282
 8545SOL    HW227410  12.294   8.182   7.329
 8546SOL     OW27411   9.227   3.945  13.451
 8546SOL    HW127412   9.161   3.883  13.420
 8546SOL    HW227413   9.284   3.959  13.375
 8547SOL     OW27414   0.229   5.852   3.223
 8547SOL    HW127415   0.296   5.804   3.272
 8547SOL    HW227416   0.267   5.863   3.135
 8548SOL     OW27417   1.531   6.946   4.771
 8548SOL    HW127418   1.496   6.890   4.702
 8548SOL    HW227419   1.616   6.976   4.738
 8549SOL     OW27420   1.706  13.693   0.555
 8549SOL    HW127421   1.737  13.782   0.570
 8549SOL    HW227422   1.723  13.648   0.638
 8550SOL     OW27423   5.894   3.139  11.378
 8550SOL    HW127424   5.915   3.069  11.440
 8550SOL    HW227425   5.898   3.097  11.292
 8551SOL     OW27426   7.198   2.780   1.481
 8551SOL    HW127427   7.177   2.827   1.400
 8551SOL    HW227428   7.124   2.721   1.494
 8552SOL     OW27429   9.887  11.339   2.616
 8552SOL    HW127430   9.871  11.300   2.702
 8552SOL    HW227431   9.977  11.315   2.595
 8553SOL     OW27432   8.397   6.542   6.142
 8553SOL    HW127433   8.313   6.554   6.097
 8553SOL    HW227434   8.458   6.596   6.092
 8554SOL     OW27435   4.769   4.073  12.600
 8554SOL    HW127436   4.806   4.124  12.529
 8554SOL    HW227437   4.689   4.035  12.564
 8555SOL     OW27438   0.894   2.078  11.377
 8555SOL    HW127439   0.801   2.098  11.384
 8555SOL    HW227440   0.910   2.070  11.283
 8556SOL     OW27441  10.304  13.070   1.926
 8556SOL    HW127442  10.319  13.145   1.868
 8556SOL    HW227443  10.390  13.030   1.937
 8557SOL     OW27444   3.996  13.409  11.272
 8557SOL    HW127445   4.080  13.368  11.293
 8557SOL    HW227446   3.932  13.338  11.281
 8558SOL     OW27447   3.853   2.592  10.301
 8558SOL    HW127448   3.792   2.544  10.245
 8558SOL    HW227449   3.933   2.540  10.300
 8559SOL     OW27450   6.032   7.218   2.388
 8559SOL    HW127451   5.955   7.227   2.331
 8559SOL    HW227452   6.099   7.180   2.331
 8560SOL     OW27453  10.270   2.286   7.135
 8560SOL    HW127454  10.354   2.331   7.125
 8560SOL    HW227455  10.262   2.272   7.229
 8561SOL     OW27456   7.397   8.883   9.291
 8561SOL    HW127457   7.454   8.904   9.218
 8561SOL    HW227458   7.309   8.880   9.253
 8562SOL     OW27459   8.089  13.145   5.593
 8562SOL    HW127460   8.114  13.060   5.629
 8562SOL    HW227461   8.105  13.137   5.499
 8563SOL     OW27462   4.582   0.126   9.931
 8563SOL    HW127463   4.636   0.191   9.885
 8563SOL    HW227464   4.494   0.164   9.930
 8564SOL     OW27465   8.344   8.395   8.799
 8564SOL    HW127466   8.261   8.441   8.799
 8564SOL    HW227467   8.362   8.378   8.706
 8565SOL     OW27468   0.472   7.731   2.759
 8565SOL    HW127469   0.515   7.730   2.673
 8565SOL    HW227470   0.513   7.660   2.807
 8566SOL     OW27471  10.936  10.146  11.045
 8566SOL    HW127472  10.976  10.064  11.076
 8566SOL    HW227473  10.884  10.119  10.969
 8567SOL     OW27474   3.460   1.788  10.429
 8567SOL    HW127475   3.443   1.734  10.352
 8567SOL    HW227476   3.466   1.727  10.502
 8568SOL     OW27477   0.210   9.812  14.205
 8568SOL    HW127478   0.197   9.769  14.289
 8568SOL    HW227479   0.207   9.740  14.141
 8569SOL     OW27480  14.362  14.383  14.440
 8569SOL    HW127481  14.448  14.341  14.432
 8569SOL    HW227482  14.358  14.444  14.367
 8570SOL     OW27483  12.071  11.318  12.937
 8570SOL    HW127484  12.149  11.366  12.908
 8570SOL    HW227485  12.071  11.238  12.885
 8571SOL     OW27486  12.610   3.907   1.844
 8571SOL    HW127487  12.667   3.980   1.817
 8571SOL    HW227488  12.532   3.917   1.790
 8572SOL     OW27489  13.840   7.254   3.785
 8572SOL    HW127490  13.899   7.178   3.784
 8572SOL    HW227491  13.752   7.216   3.780
 8573SOL     OW27492  10.895  12.620   8.878
 8573SOL    HW127493  10.952  12.659   8.945
 8573SOL    HW227494  10.904  12.525   8.892
 8574SOL     OW27495   1.588  12.994   5.653
 8574SOL    HW127496   1.530  13.019   5.724
 8574SOL    HW227497   1.530  12.973   5.580
 8575SOL     OW27498   6.293   9.843   6.689
 8575SOL    HW127499   6.319   9.803   6.772
 8575SOL    HW227500   6.302   9.773   6.624
 8576SOL     OW27501  12.311   9.277   7.510
 8576SOL    HW127502  12.218   9.281   7.485
 8576SOL    HW227503  12.318   9.334   7.587
 8577SOL     OW27504  11.330   2.848   7.453
 8577SOL    HW127505  11.341   2.937   7.486
 8577SOL    HW227506  11.277   2.859   7.374
 8578SOL     OW27507  11.001   9.549   7.412
 8578SOL    HW127508  11.088   9.543   7.451
 8578SOL    HW227509  10.952   9.476   7.450
 8579SOL     OW27510   9.026   9.682   9.439
 8579SOL    HW127511   8.936   9.685   9.472
 8579SOL    HW227512   9.044   9.771   9.411
 8580SOL     OW27513   5.533   0.060   6.068
 8580SOL    HW127514   5.551  14.869   6.133
 8580SOL    HW227515   5.477   0.017   6.003
 8581SOL     OW27516   0.484   1.390  13.199
 8581SOL    HW127517   0.497   1.351  13.286
 8581SOL    HW227518   0.391   1.412  13.196
 8582SOL     OW27519  13.236  11.614  13.047
 8582SOL    HW127520  13.158  11.661  13.018
 8582SOL    HW227521  13.307  11.678  13.040
 8583SOL     OW27522   9.191   3.350   1.082
 8583SOL    HW127523   9.200   3.350   0.987
 8583SOL    HW227524   9.215   3.262   1.109
 8584SOL     OW27525   9.060   4.638  10.776
 8584SOL    HW127526   9.128   4.705  10.766
 8584SOL    HW227527   9.071   4.605  10.865
 8585SOL     OW27528   6.417   7.783   5.108
 8585SOL    HW127529   6.461   7.837   5.174
 8585SOL    HW227530   6.383   7.709   5.158
 8586SOL     OW27531  13.558   4.709   3.194
 8586SOL    HW127532  13.594   4.792   3.163
 8586SOL    HW227533  13.595   4.643   3.135
 8587SOL     OW27534  11.574   3.467  12.368
 8587SOL    HW127535  11.566   3.378  12.402
 8587SOL    HW227536  11.514   3.470  12.293
 8588SOL     OW27537  13.428  13.374   6.709
 8588SOL    HW127538  13.469  13.456   6.681
 8588SOL    HW227539  13.354  13.403   6.764
 8589SOL     OW27540  12.926   7.885  11.683
 8589SOL    HW127541  12.863   7.866  11.753
 8589SOL    HW227542  12.920   7.980  11.671
 8590SOL     OW27543   7.324   8.381   6.297
 8590SOL    HW127544   7.281   8.421   6.222
 8590SOL    HW227545   7.253   8.362   6.359
 8591SOL     OW27546   2.901   2.724   9.698
 8591SOL    HW127547   2.912   2.634   9.670
 8591SOL    HW227548   2.807   2.733   9.715
 8592SOL     OW27549  13.636  13.222  14.087
 8592SOL    HW127550  13.621  13.130  14.067
 8592SOL    HW227551  13.655  13.223  14.181
 8593SOL     OW27552  14.016  10.485   6.938
 8593SOL    HW127553  13.938  10.513   6.890
 8593SOL    HW227554  14.029  10.553   7.004
 8594SOL     OW27555   9.292   2.507   2.762
 8594SOL    HW127556   9.231   2.553   2.820
 8594SOL    HW227557   9.293   2.417   2.795
 8595SOL     OW27558  12.855   7.597  12.039
 8595SOL    HW127559  12.772   7.573  12.080
 8595SOL    HW227560  12.833   7.668  11.979
 8596SOL     OW27561   1.240  12.832   4.610
 8596SOL    HW127562   1.312  12.839   4.548
 8596SOL    HW227563   1.256  12.749   4.656
 8597SOL     OW27564   9.533  13.799   0.267
 8597SOL    HW127565   9.523  13.863   0.338
 8597SOL    HW227566   9.463  13.736   0.282
 8598SOL     OW27567   2.589  10.662   0.837
 8598SOL    HW127568   2.532  10.733   0.809
 8598SOL    HW227569   2.654  10.654   0.767
 8599SOL     OW27570   6.360   8.893   1.698
 8599SOL    HW127571   6.309   8.873   1.777
 8599SOL    HW227572   6.437   8.939   1.730
 8600SOL     OW27573  11.361   0.292  12.214
 8600SOL    HW127574  11.454   0.312  12.208
 8600SOL    HW227575  11.322   0.370  12.254
 8601SOL     OW27576   5.991  11.735   8.840
 8601SOL    HW127577   6.077  11.764   8.869
 8601SOL    HW227578   5.931  11.806   8.864
 8602SOL     OW27579   2.938  10.681  12.102
 8602SOL    HW127580   3.003  10.709  12.167
 8602SOL    HW227581   2.939  10.585  12.106
 8603SOL     OW27582   5.544  11.896   1.612
 8603SOL    HW127583   5.556  11.990   1.624
 8603SOL    HW227584   5.550  11.883   1.517
 8604SOL     OW27585  13.072  11.539   9.384
 8604SOL    HW127586  13.163  11.515   9.400
 8604SOL    HW227587  13.023  11.500   9.456
 8605SOL     OW27588  14.399   1.127  12.319
 8605SOL    HW127589  14.401   1.192  12.249
 8605SOL    HW227590  14.419   1.175  12.398
 8606SOL     OW27591   7.308   7.315   0.974
 8606SOL    HW127592   7.306   7.285   0.883
 8606SOL    HW227593   7.333   7.237   1.024
 8607SOL     OW27594   3.001   6.659   6.198
 8607SOL    HW127595   3.007   6.597   6.271
 8607SOL    HW227596   2.908   6.678   6.189
 8608SOL     OW27597   8.024   5.293  10.680
 8608SOL    HW127598   8.095   5.275  10.742
 8608SOL    HW227599   7.995   5.381  10.703
 8609SOL     OW27600   8.142   4.599   5.068
 8609SOL    HW127601   8.217   4.569   5.015
 8609SOL    HW227602   8.155   4.557   5.153
 8610SOL     OW27603   4.625   7.305   1.086
 8610SOL    HW127604   4.682   7.328   1.160
 8610SOL    HW227605   4.686   7.288   1.014
 8611SOL     OW27606   5.420  12.329  11.569
 8611SOL    HW127607   5.496  12.313  11.512
 8611SOL    HW227608   5.430  12.265  11.640
 8612SOL     OW27609  14.806   1.784   0.741
 8612SOL    HW127610  14.788   1.878   0.738
 8612SOL    HW227611  14.784   1.753   0.653
 8613SOL     OW27612   4.947   0.311   6.318
 8613SOL    HW127613   4.888   0.250   6.362
 8613SOL    HW227614   4.946   0.389   6.373
 8614SOL     OW27615   8.959   0.981   6.246
 8614SOL    HW127616   8.944   0.972   6.152
 8614SOL    HW227617   8.923   0.900   6.283
 8615SOL     OW27618   6.680   8.620  13.146
 8615SOL    HW127619   6.617   8.600  13.077
 8615SOL    HW227620   6.642   8.581  13.225
 8616SOL     OW27621   1.216   2.180  13.159
 8616SOL    HW127622   1.258   2.139  13.235
 8616SOL    HW227623   1.278   2.248  13.132
 8617SOL     OW27624   2.559  12.480   7.502
 8617SOL    HW127625   2.488  12.521   7.454
 8617SOL    HW227626   2.520  12.400   7.539
 8618SOL     OW27627   0.466   2.207   0.753
 8618SOL    HW127628   0.448   2.266   0.826
 8618SOL    HW227629   0.510   2.262   0.688
 8619SOL     OW27630  14.830   8.691   5.967
 8619SOL    HW127631  14.812   8.784   5.980
 8619SOL    HW227632   0.008   8.688   5.889
 8620SOL     OW27633   1.090   1.341  10.052
 8620SOL    HW127634   1.176   1.300  10.057
 8620SOL    HW227635   1.109   1.435  10.044
 8621SOL     OW27636   0.369   3.769   3.872
 8621SOL    HW127637   0.418   3.842   3.834
 8621SOL    HW227638   0.278   3.787   3.848
 8622SOL     OW27639   0.244   6.440   9.277
 8622SOL    HW127640   0.206   6.447   9.365
 8622SOL    HW227641   0.171   6.458   9.218
 8623SOL     OW27642   8.532   6.798   7.766
 8623SOL    HW127643   8.515   6.783   7.858
 8623SOL    HW227644   8.627   6.790   7.758
 8624SOL     OW27645   2.431   7.132   6.338
 8624SOL    HW127646   2.401   7.051   6.297
 8624SOL    HW227647   2.433   7.112   6.431
 8625SOL     OW27648   6.445   1.535  12.694
 8625SOL    HW127649   6.372   1.563  12.749
 8625SOL    HW227650   6.405   1.516  12.609
 8626SOL     OW27651   1.560   8.411   4.011
 8626SOL    HW127652   1.559   8.502   3.984
 8626SOL    HW227653   1.628   8.406   4.078
 8627SOL     OW27654   9.189   7.180  10.023
 8627SOL    HW127655   9.253   7.118  10.059
 8627SOL    HW227656   9.176   7.150   9.933
 8628SOL     OW27657   9.209  10.868  11.090
 8628SOL    HW127658   9.289  10.914  11.063
 8628SOL    HW227659   9.146  10.886  11.020
 8629SOL     OW27660  10.030   0.621   4.900
 8629SOL    HW127661  10.000   0.566   4.827
 8629SOL    HW227662  10.091   0.566   4.948
 8630SOL     OW27663   0.447   6.807   1.225
 8630SOL    HW127664   0.356   6.779   1.224
 8630SOL    HW227665   0.446   6.891   1.271
 8631SOL     OW27666  13.130  10.606   9.129
 8631SOL    HW127667  13.077  10.633   9.204
 8631SOL    HW227668  13.138  10.685   9.075
 8632SOL     OW27669  13.597   2.796   5.429
 8632SOL    HW127670  13.622   2.748   5.350
 8632SOL    HW227671  13.503   2.808   5.421
 8633SOL     OW27672  13.456  14.363   7.544
 8633SOL    HW127673  13.403  14.285   7.532
 8633SOL    HW227674  13.413  14.430   7.492
 8634SOL     OW27675   4.056   1.277   5.590
 8634SOL    HW127676   4.002   1.264   5.668
 8634SOL    HW227677   4.109   1.198   5.583
 8635SOL     OW27678   7.180   8.937   0.488
 8635SOL    HW127679   7.102   8.915   0.539
 8635SOL    HW227680   7.172   8.886   0.408
 8636SOL     OW27681   5.546   9.065   8.897
 8636SOL    HW127682   5.635   9.030   8.906
 8636SOL    HW227683   5.522   9.091   8.986
 8637SOL     OW27684  12.229   4.972   2.035
 8637SOL    HW127685  12.224   5.067   2.045
 8637SOL    HW227686  12.270   4.941   2.115
 8638SOL     OW27687  11.008  13.545  12.901
 8638SOL    HW127688  11.056  13.607  12.847
 8638SOL    HW227689  11.056  13.463  12.892
 8639SOL     OW27690   6.425   6.511   2.942
 8639SOL    HW127691   6.368   6.486   3.015
 8639SOL    HW227692   6.395   6.599   2.918
 8640SOL     OW27693   9.544   7.183   1.972
 8640SOL    HW127694   9.600   7.160   1.899
 8640SOL    HW227695   9.521   7.099   2.013
 8641SOL     OW27696   9.033   6.908  14.337
 8641SOL    HW127697   9.116   6.889  14.294
 8641SOL    HW227698   8.988   6.968  14.278
 8642SOL     OW27699   8.650   1.679   3.309
 8642SOL    HW127700   8.715   1.746   3.326
 8642SOL    HW227701   8.642   1.632   3.392
 8643SOL     OW27702   7.864  13.332   6.668
 8643SOL    HW127703   7.935  13.346   6.731
 8643SOL    HW227704   7.789  13.376   6.707
 8644SOL     OW27705  10.480   9.662   5.682
 8644SOL    HW127706  10.570   9.641   5.658
 8644SOL    HW227707  10.484   9.682   5.776
 8645SOL     OW27708   6.867  14.240   5.430
 8645SOL    HW127709   6.950  14.195   5.446
 8645SOL    HW227710   6.891  14.332   5.419
 8646SOL     OW27711  12.657   3.405   8.058
 8646SOL    HW127712  12.606   3.369   7.985
 8646SOL    HW227713  12.746   3.376   8.041
 8647SOL     OW27714   8.155   5.192  14.616
 8647SOL    HW127715   8.243   5.153  14.613
 8647SOL    HW227716   8.096   5.118  14.606
 8648SOL     OW27717  10.954   2.197  12.183
 8648SOL    HW127718  11.016   2.169  12.116
 8648SOL    HW227719  10.986   2.283  12.211
 8649SOL     OW27720  14.507   9.013   4.324
 8649SOL    HW127721  14.548   8.963   4.394
 8649SOL    HW227722  14.448   9.074   4.369
 8650SOL     OW27723  13.509   0.390   9.579
 8650SOL    HW127724  13.583   0.359   9.527
 8650SOL    HW227725  13.547   0.423   9.660
 8651SOL     OW27726  11.501   6.270   4.712
 8651SOL    HW127727  11.408   6.248   4.723
 8651SOL    HW227728  11.512   6.352   4.761
 8652SOL     OW27729   3.839  12.992   0.336
 8652SOL    HW127730   3.903  12.928   0.303
 8652SOL    HW227731   3.884  13.034   0.409
 8653SOL     OW27732  12.017  14.138  14.517
 8653SOL    HW127733  12.051  14.063  14.468
 8653SOL    HW227734  12.095  14.190  14.538
 8654SOL     OW27735  12.097   9.909   4.636
 8654SOL    HW127736  12.123   9.841   4.699
 8654SOL    HW227737  12.006   9.889   4.616
 8655SOL     OW27738   0.534   8.424  14.442
 8655SOL    HW127739   0.604   8.376  14.399
 8655SOL    HW227740   0.510   8.492  14.380
 8656SOL     OW27741   4.978   5.708  14.313
 8656SOL    HW127742   4.966   5.747  14.400
 8656SOL    HW227743   5.016   5.778  14.260
 8657SOL     OW27744   7.933   3.021   5.766
 8657SOL    HW127745   7.988   3.088   5.725
 8657SOL    HW227746   7.972   3.008   5.852
 8658SOL     OW27747   2.667   6.263  13.048
 8658SOL    HW127748   2.676   6.258  12.953
 8658SOL    HW227749   2.580   6.225  13.065
 8659SOL     OW27750  11.570  11.061   0.929
 8659SOL    HW127751  11.504  11.104   0.983
 8659SOL    HW227752  11.524  10.986   0.891
 8660SOL     OW27753   0.320   8.792   6.911
 8660SOL    HW127754   0.325   8.855   6.984
 8660SOL    HW227755   0.307   8.707   6.954
 8661SOL     OW27756   2.435  11.976  12.784
 8661SOL    HW127757   2.461  12.068  12.787
 8661SOL    HW227758   2.354  11.975  12.734
 8662SOL     OW27759   9.813  11.227   2.871
 8662SOL    HW127760   9.735  11.253   2.919
 8662SOL    HW227761   9.816  11.131   2.880
 8663SOL     OW27762   9.163   3.422   2.569
 8663SOL    HW127763   9.081   3.446   2.525
 8663SOL    HW227764   9.172   3.328   2.552
 8664SOL     OW27765   5.347   4.698   7.949
 8664SOL    HW127766   5.421   4.748   7.914
 8664SOL    HW227767   5.308   4.757   8.014
 8665SOL     OW27768  10.603   3.142  10.832
 8665SOL    HW127769  10.548   3.212  10.795
 8665SOL    HW227770  10.691   3.164  10.804
 8666SOL     OW27771  10.289  11.439   4.085
 8666SOL    HW127772  10.232  11.443   4.162
 8666SOL    HW227773  10.355  11.507   4.100
 8667SOL     OW27774   2.847   9.917   4.671
 8667SOL    HW127775   2.850   9.956   4.583
 8667SOL    HW227776   2.905   9.841   4.666
 8668SOL     OW27777   3.111  10.581   1.747
 8668SOL    HW127778   3.062  10.512   1.792
 8668SOL    HW227779   3.051  10.655   1.744
 8669SOL     OW27780   6.078   7.843  10.833
 8669SOL    HW127781   6.064   7.938  10.835
 8669SOL    HW227782   6.171   7.834  10.810
 8670SOL     OW27783   2.881  10.199  10.441
 8670SOL    HW127784   2.926  10.270  10.486
 8670SOL    HW227785   2.864  10.134  10.510
 8671SOL     OW27786  13.685   7.348   2.504
 8671SOL    HW127787  13.609   7.387   2.461
 8671SOL    HW227788  13.753   7.348   2.437
 8672SOL     OW27789  13.820  12.499   3.117
 8672SOL    HW127790  13.743  12.452   3.150
 8672SOL    HW227791  13.889  12.477   3.179
 8673SOL     OW27792  14.075  10.705   3.010
 8673SOL    HW127793  14.154  10.758   3.021
 8673SOL    HW227794  14.096  10.621   3.051
 8674SOL     OW27795   5.724   1.214  13.950
 8674SOL    HW127796   5.750   1.122  13.952
 8674SOL    HW227797   5.655   1.221  14.015
 8675SOL     OW27798  11.914   8.747   0.085
 8675SOL    HW127799  11.907   8.764  14.868
 8675SOL    HW227800  12.007   8.750   0.103
 8676SOL     OW27801   2.743   2.412   3.179
 8676SOL    HW127802   2.671   2.350   3.194
 8676SOL    HW227803   2.818   2.356   3.158
 8677SOL     OW27804   9.367   9.205   7.675
 8677SOL    HW127805   9.357   9.199   7.580
 8677SOL    HW227806   9.292   9.257   7.704
 8678SOL     OW27807  10.726  12.359   7.103
 8678SOL    HW127808  10.642  12.331   7.067
 8678SOL    HW227809  10.785  12.284   7.089
 8679SOL     OW27810  12.669   0.774   6.735
 8679SOL    HW127811  12.760   0.753   6.717
 8679SOL    HW227812  12.626   0.689   6.744
 8680SOL     OW27813   2.710   1.378   8.385
 8680SOL    HW127814   2.621   1.413   8.380
 8680SOL    HW227815   2.698   1.283   8.392
 8681SOL     OW27816   6.743  13.018   2.200
 8681SOL    HW127817   6.798  13.090   2.232
 8681SOL    HW227818   6.771  13.005   2.110
 8682SOL     OW27819  11.889   1.701   8.790
 8682SOL    HW127820  11.859   1.615   8.819
 8682SOL    HW227821  11.817   1.760   8.810
 8683SOL     OW27822   7.907  14.322   1.632
 8683SOL    HW127823   7.958  14.305   1.711
 8683SOL    HW227824   7.833  14.376   1.661
 8684SOL     OW27825  11.682   6.335   2.018
 8684SOL    HW127826  11.712   6.361   2.105
 8684SOL    HW227827  11.600   6.383   2.006
 8685SOL     OW27828   7.588   4.721   5.229
 8685SOL    HW127829   7.584   4.727   5.324
 8685SOL    HW227830   7.501   4.746   5.199
 8686SOL     OW27831   2.443   7.341  14.511
 8686SOL    HW127832   2.450   7.290  14.431
 8686SOL    HW227833   2.437   7.276  14.581
 8687SOL     OW27834   4.799  10.919  12.701
 8687SOL    HW127835   4.834  10.880  12.622
 8687SOL    HW227836   4.804  11.013  12.685
 8688SOL     OW27837  13.111  13.687  14.633
 8688SOL    HW127838  13.140  13.722  14.549
 8688SOL    HW227839  13.159  13.738  14.698
 8689SOL     OW27840   4.946   0.858  12.582
 8689SOL    HW127841   5.001   0.861  12.660
 8689SOL    HW227842   4.988   0.794  12.525
 8690SOL     OW27843   5.731   4.679   2.635
 8690SOL    HW127844   5.767   4.596   2.666
 8690SOL    HW227845   5.805   4.740   2.639
 8691SOL     OW27846   2.328   5.287  10.190
 8691SOL    HW127847   2.314   5.372  10.232
 8691SOL    HW227848   2.250   5.236  10.211
 8692SOL     OW27849   7.909  13.664  10.662
 8692SOL    HW127850   7.828  13.613  10.661
 8692SOL    HW227851   7.971  13.611  10.612
 8693SOL     OW27852  11.411   8.002   6.391
 8693SOL    HW127853  11.503   7.982   6.372
 8693SOL    HW227854  11.412   8.094   6.416
 8694SOL     OW27855   3.405   8.611   5.218
 8694SOL    HW127856   3.331   8.667   5.192
 8694SOL    HW227857   3.468   8.622   5.147
 8695SOL     OW27858   7.283   9.662  12.087
 8695SOL    HW127859   7.212   9.604  12.117
 8695SOL    HW227860   7.362   9.625  12.126
 8696SOL     OW27861  13.240   1.459   5.382
 8696SOL    HW127862  13.179   1.520   5.341
 8696SOL    HW227863  13.192   1.376   5.386
 8697SOL     OW27864  12.308   5.814   5.468
 8697SOL    HW127865  12.367   5.869   5.416
 8697SOL    HW227866  12.221   5.850   5.450
 8698SOL     OW27867   8.129   8.868   5.527
 8698SOL    HW127868   8.055   8.865   5.466
 8698SOL    HW227869   8.167   8.780   5.524
 8699SOL     OW27870  11.421  10.434  13.474
 8699SOL    HW127871  11.496  10.487  13.501
 8699SOL    HW227872  11.408  10.373  13.546
 8700SOL     OW27873   3.440   1.798   5.616
 8700SOL    HW127874   3.356   1.768   5.583
 8700SOL    HW227875   3.488   1.827   5.538
 8701SOL     OW27876   3.930  12.293   8.601
 8701SOL    HW127877   3.888  12.244   8.531
 8701SOL    HW227878   3.994  12.349   8.556
 8702SOL     OW27879   4.138  10.010   6.281
 8702SOL    HW127880   4.074   9.943   6.258
 8702SOL    HW227881   4.136  10.072   6.208
 8703SOL     OW27882   1.295   3.089   9.446
 8703SOL    HW127883   1.368   3.071   9.387
 8703SOL    HW227884   1.281   3.183   9.439
 8704SOL     OW27885   3.531   0.140   5.412
 8704SOL    HW127886   3.461   0.175   5.468
 8704SOL    HW227887   3.519   0.045   5.417
 8705SOL     OW27888  10.174  11.103   0.555
 8705SOL    HW127889  10.098  11.050   0.578
 8705SOL    HW227890  10.247  11.042   0.553
 8706SOL     OW27891   0.027   1.215  11.530
 8706SOL    HW127892   0.117   1.244  11.546
 8706SOL    HW227893   0.025   1.193  11.437
 8707SOL     OW27894   5.981   1.171  13.416
 8707SOL    HW127895   5.895   1.129  13.405
 8707SOL    HW227896   6.003   1.154  13.508
 8708SOL     OW27897   4.528  10.419  10.608
 8708SOL    HW127898   4.529  10.327  10.579
 8708SOL    HW227899   4.556  10.415  10.699
 8709SOL     OW27900   5.070  13.321  12.486
 8709SOL    HW127901   5.148  13.306  12.433
 8709SOL    HW227902   5.066  13.416  12.497
 8710SOL     OW27903  10.511  14.028   4.210
 8710SOL    HW127904  10.467  14.100   4.255
 8710SOL    HW227905  10.527  13.963   4.279
 8711SOL     OW27906  13.045   5.964   0.285
 8711SOL    HW127907  13.076   5.994   0.371
 8711SOL    HW227908  13.124   5.934   0.240
 8712SOL     OW27909   9.910  14.260   6.608
 8712SOL    HW127910   9.870  14.187   6.562
 8712SOL    HW227911   9.866  14.263   6.693
 8713SOL     OW27912  12.729   9.755   6.747
 8713SOL    HW127913  12.819   9.787   6.753
 8713SOL    HW227914  12.678   9.817   6.798
 8714SOL     OW27915   1.620   8.844   7.870
 8714SOL    HW127916   1.531   8.833   7.837
 8714SOL    HW227917   1.631   8.938   7.883
 8715SOL     OW27918  13.276  11.203   5.880
 8715SOL    HW127919  13.217  11.128   5.875
 8715SOL    HW227920  13.361  11.165   5.902
 8716SOL     OW27921  13.230  12.310  10.767
 8716SOL    HW127922  13.157  12.325  10.706
 8716SOL    HW227923  13.187  12.301  10.852
 8717SOL     OW27924   0.016   0.947   8.299
 8717SOL    HW127925   0.022   0.946   8.203
 8717SOL    HW227926  14.805   0.914   8.317
 8718SOL     OW27927  12.124   3.649   8.969
 8718SOL    HW127928  12.190   3.583   8.946
 8718SOL    HW227929  12.040   3.604   8.957
 8719SOL     OW27930  14.231   2.538   8.357
 8719SOL    HW127931  14.199   2.524   8.446
 8719SOL    HW227932  14.247   2.450   8.323
 8720SOL     OW27933   4.378   6.392  13.380
 8720SOL    HW127934   4.400   6.477  13.418
 8720SOL    HW227935   4.460   6.361  13.340
 8721SOL     OW27936  10.849   3.028   8.272
 8721SOL    HW127937  10.869   3.122   8.267
 8721SOL    HW227938  10.754   3.023   8.268
 8722SOL     OW27939   1.759   4.141   5.589
 8722SOL    HW127940   1.691   4.176   5.646
 8722SOL    HW227941   1.793   4.217   5.542
 8723SOL     OW27942   6.437  11.084   1.366
 8723SOL    HW127943   6.384  11.164   1.369
 8723SOL    HW227944   6.374  11.013   1.362
 8724SOL     OW27945   7.491   6.673  10.984
 8724SOL    HW127946   7.525   6.601  10.930
 8724SOL    HW227947   7.549   6.747  10.965
 8725SOL     OW27948   3.498   5.519   9.081
 8725SOL    HW127949   3.515   5.488   9.170
 8725SOL    HW227950   3.483   5.613   9.091
 8726SOL     OW27951  14.838   8.435   1.272
 8726SOL    HW127952   0.046   8.403   1.243
 8726SOL    HW227953  14.779   8.361   1.259
 8727SOL     OW27954   8.534   9.752   5.532
 8727SOL    HW127955   8.450   9.709   5.513
 8727SOL    HW227956   8.509   9.829   5.584
 8728SOL     OW27957   9.715   7.850  11.381
 8728SOL    HW127958   9.770   7.773  11.391
 8728SOL    HW227959   9.627   7.820  11.404
 8729SOL     OW27960   0.043  11.172   1.279
 8729SOL    HW127961   0.087  11.227   1.215
 8729SOL    HW227962   0.077  11.084   1.262
 8730SOL     OW27963   6.328  11.218   2.436
 8730SOL    HW127964   6.386  11.167   2.380
 8730SOL    HW227965   6.383  11.290   2.467
 8731SOL     OW27966   8.073   0.766   5.240
 8731SOL    HW127967   8.090   0.856   5.212
 8731SOL    HW227968   8.139   0.750   5.308
 8732SOL     OW27969  11.094   0.518   8.571
 8732SOL    HW127970  11.176   0.472   8.591
 8732SOL    HW227971  11.028   0.471   8.621
 8733SOL     OW27972   2.647   2.397   3.510
 8733SOL    HW127973   2.715   2.448   3.466
 8733SOL    HW227974   2.600   2.353   3.439
 8734SOL     OW27975   1.162   7.759   8.069
 8734SOL    HW127976   1.112   7.707   8.006
 8734SOL    HW227977   1.113   7.752   8.151
 8735SOL     OW27978   3.649  12.580   9.505
 8735SOL    HW127979   3.642  12.582   9.601
 8735SOL    HW227980   3.702  12.657   9.483
 8736SOL     OW27981   4.945   6.929  13.396
 8736SOL    HW127982   4.871   6.983  13.369
 8736SOL    HW227983   4.945   6.934  13.491
 8737SOL     OW27984   3.578  11.080  12.734
 8737SOL    HW127985   3.537  11.038  12.659
 8737SOL    HW227986   3.647  11.135  12.697
 8738SOL     OW27987   4.894   8.583   3.793
 8738SOL    HW127988   4.963   8.648   3.780
 8738SOL    HW227989   4.940   8.503   3.818
 8739SOL     OW27990   4.620   0.499   0.289
 8739SOL    HW127991   4.675   0.453   0.227
 8739SOL    HW227992   4.542   0.444   0.298
 8740SOL     OW27993  10.327   1.922  14.614
 8740SOL    HW127994  10.242   1.961  14.635
 8740SOL    HW227995  10.323   1.834  14.653
 8741SOL     OW27996  12.392   0.016   3.374
 8741SOL    HW127997  12.402  14.810   3.328
 8741SOL    HW227998  12.300   0.017   3.402
 8742SOL     OW27999   2.489   6.535   9.451
 8742SOL    HW128000   2.540   6.601   9.405
 8742SOL    HW228001   2.546   6.507   9.523
 8743SOL     OW28002   9.563  10.368   5.579
 8743SOL    HW128003   9.480  10.327   5.603
 8743SOL    HW228004   9.616  10.296   5.544
 8744SOL     OW28005   9.416   6.100  13.808
 8744SOL    HW128006   9.414   6.109  13.713
 8744SOL    HW228007   9.342   6.043  13.828
 8745SOL     OW28008   8.926   0.345   3.157
 8745SOL    HW128009   8.922   0.441   3.156
 8745SOL    HW228010   8.912   0.319   3.066
 8746SOL     OW28011   4.968  14.594   8.248
 8746SOL    HW128012   4.915  14.547   8.183
 8746SOL    HW228013   4.924  14.678   8.258
 8747SOL     OW28014  10.443   3.002  14.674
 8747SOL    HW128015  10.490   3.028  14.595
 8747SOL    HW228016  10.488   3.047  14.745
 8748SOL     OW28017  12.040  13.299  14.214
 8748SOL    HW128018  12.010  13.356  14.285
 8748SOL    HW228019  12.134  13.314  14.209
 8749SOL     OW28020  11.367  12.162  11.870
 8749SOL    HW128021  11.353  12.133  11.780
 8749SOL    HW228022  11.307  12.109  11.922
 8750SOL     OW28023  12.754   0.510   0.379
 8750SOL    HW128024  12.669   0.508   0.334
 8750SOL    HW228025  12.741   0.570   0.452
 8751SOL     OW28026   3.309   0.336  10.829
 8751SOL    HW128027   3.221   0.373  10.823
 8751SOL    HW228028   3.324   0.326  10.923
 8752SOL     OW28029   9.548   3.680   2.920
 8752SOL    HW128030   9.564   3.586   2.913
 8752SOL    HW228031   9.632   3.716   2.950
 8753SOL     OW28032   1.457  12.803   5.202
 8753SOL    HW128033   1.391  12.740   5.230
 8753SOL    HW228034   1.447  12.807   5.107
 8754SOL     OW28035  10.652   9.008   9.755
 8754SOL    HW128036  10.614   9.075   9.811
 8754SOL    HW228037  10.638   9.040   9.666
 8755SOL     OW28038   1.003  14.513   0.692
 8755SOL    HW128039   0.926  14.569   0.706
 8755SOL    HW228040   1.027  14.528   0.600
 8756SOL     OW28041  10.666   1.615   3.374
 8756SOL    HW128042  10.720   1.539   3.349
 8756SOL    HW228043  10.607   1.581   3.442
 8757SOL     OW28044  10.876   1.614   8.429
 8757SOL    HW128045  10.972   1.621   8.433
 8757SOL    HW228046  10.848   1.694   8.384
 8758SOL     OW28047   8.750  14.412  11.321
 8758SOL    HW128048   8.664  14.394  11.358
 8758SOL    HW228049   8.795  14.327  11.323
 8759SOL     OW28050   1.634   7.286   3.782
 8759SOL    HW128051   1.707   7.234   3.748
 8759SOL    HW228052   1.556   7.239   3.754
 8760SOL     OW28053   8.859  13.436  12.178
 8760SOL    HW128054   8.878  13.490  12.101
 8760SOL    HW228055   8.923  13.466  12.243
 8761SOL     OW28056  13.309   2.332   9.364
 8761SOL    HW128057  13.220   2.333   9.400
 8761SOL    HW228058  13.312   2.255   9.308
 8762SOL     OW28059  12.659  12.831   0.974
 8762SOL    HW128060  12.601  12.903   0.996
 8762SOL    HW228061  12.603  12.767   0.930
 8763SOL     OW28062  11.015   8.668  11.888
 8763SOL    HW128063  10.947   8.656  11.954
 8763SOL    HW228064  10.974   8.723  11.821
 8764SOL     OW28065   8.241  14.583  10.889
 8764SOL    HW128066   8.253  14.638  10.812
 8764SOL    HW228067   8.166  14.527  10.867
 8765SOL     OW28068  10.389   0.956   9.915
 8765SOL    HW128069  10.390   0.968  10.010
 8765SOL    HW228070  10.297   0.967   9.891
 8766SOL     OW28071  13.483   5.611  13.943
 8766SOL    HW128072  13.433   5.587  13.866
 8766SOL    HW228073  13.421   5.656  14.000
 8767SOL     OW28074   3.714   8.723  10.353
 8767SOL    HW128075   3.788   8.759  10.402
 8767SOL    HW228076   3.716   8.770  10.270
 8768SOL     OW28077   4.750   9.133   8.334
 8768SOL    HW128078   4.692   9.162   8.404
 8768SOL    HW228079   4.690   9.108   8.263
 8769SOL     OW28080  10.900   8.369  12.443
 8769SOL    HW128081  10.881   8.288  12.490
 8769SOL    HW228082  10.934   8.428  12.510
 8770SOL     OW28083   8.676  12.618   7.019
 8770SOL    HW128084   8.743  12.554   6.997
 8770SOL    HW228085   8.644  12.649   6.935
 8771SOL     OW28086  10.491  13.643   8.008
 8771SOL    HW128087  10.434  13.602   8.073
 8771SOL    HW228088  10.569  13.668   8.058
 8772SOL     OW28089   7.613  14.407   2.081
 8772SOL    HW128090   7.600  14.501   2.072
 8772SOL    HW228091   7.681  14.398   2.148
 8773SOL     OW28092  13.726  12.998   2.260
 8773SOL    HW128093  13.657  13.036   2.315
 8773SOL    HW228094  13.737  12.909   2.293
 8774SOL     OW28095   2.585   4.854   3.843
 8774SOL    HW128096   2.627   4.932   3.808
 8774SOL    HW228097   2.597   4.861   3.938
 8775SOL     OW28098  10.012   6.755  12.055
 8775SOL    HW128099   9.949   6.825  12.074
 8775SOL    HW228100  10.083   6.770  12.117
 8776SOL     OW28101   2.223   5.949   4.476
 8776SOL    HW128102   2.291   5.952   4.543
 8776SOL    HW228103   2.268   5.918   4.398
 8777SOL     OW28104  11.259  12.009  13.524
 8777SOL    HW128105  11.246  11.978  13.614
 8777SOL    HW228106  11.354  12.013  13.515
 8778SOL     OW28107   1.583   7.843   8.041
 8778SOL    HW128108   1.660   7.879   8.086
 8778SOL    HW228109   1.619   7.777   7.981
 8779SOL     OW28110   2.215   0.318  14.382
 8779SOL    HW128111   2.198   0.263  14.306
 8779SOL    HW228112   2.212   0.258  14.457
 8780SOL     OW28113   3.183   1.832  10.205
 8780SOL    HW128114   3.181   1.916  10.250
 8780SOL    HW228115   3.275   1.806  10.208
 8781SOL     OW28116  12.185   1.299   0.219
 8781SOL    HW128117  12.236   1.378   0.202
 8781SOL    HW228118  12.204   1.277   0.310
 8782SOL     OW28119  11.265   3.414   7.231
 8782SOL    HW128120  11.227   3.370   7.155
 8782SOL    HW228121  11.355   3.382   7.234
 8783SOL     OW28122  13.782   9.168  13.400
 8783SOL    HW128123  13.851   9.144  13.338
 8783SOL    HW228124  13.724   9.093  13.401
 8784SOL     OW28125   2.617   8.830   8.994
 8784SOL    HW128126   2.561   8.896   8.954
 8784SOL    HW228127   2.574   8.747   8.974
 8785SOL     OW28128  14.007   2.083  10.280
 8785SOL    HW128129  14.060   2.149  10.236
 8785SOL    HW228130  13.916   2.113  10.268
 8786SOL     OW28131   3.173   6.942   1.101
 8786SOL    HW128132   3.122   6.945   1.019
 8786SOL    HW228133   3.139   7.015   1.153
 8787SOL     OW28134   0.751   1.705   2.815
 8787SOL    HW128135   0.719   1.738   2.731
 8787SOL    HW228136   0.683   1.727   2.878
 8788SOL     OW28137  12.510   1.374   7.977
 8788SOL    HW128138  12.521   1.456   8.024
 8788SOL    HW228139  12.599   1.350   7.949
 8789SOL     OW28140   0.721   2.141  14.228
 8789SOL    HW128141   0.738   2.068  14.288
 8789SOL    HW228142   0.751   2.109  14.143
 8790SOL     OW28143  10.818  14.424  10.586
 8790SOL    HW128144  10.734  14.384  10.608
 8790SOL    HW228145  10.805  14.461  10.499
 8791SOL     OW28146   5.316   7.889   4.747
 8791SOL    HW128147   5.310   7.876   4.842
 8791SOL    HW228148   5.298   7.982   4.735
 8792SOL     OW28149   5.460  14.095  13.210
 8792SOL    HW128150   5.411  14.145  13.145
 8792SOL    HW228151   5.537  14.148  13.228
 8793SOL     OW28152   5.795   6.349  10.530
 8793SOL    HW128153   5.875   6.394  10.502
 8793SOL    HW228154   5.792   6.270  10.476
 8794SOL     OW28155   5.053  13.413  11.750
 8794SOL    HW128156   5.115  13.466  11.700
 8794SOL    HW228157   5.100  13.391  11.831
 8795SOL     OW28158  14.745   5.194   9.946
 8795SOL    HW128159  14.687   5.214  10.019
 8795SOL    HW228160  14.707   5.240   9.871
 8796SOL     OW28161  10.730   2.059   3.433
 8796SOL    HW128162  10.822   2.054   3.460
 8796SOL    HW228163  10.725   2.141   3.384
 8797SOL     OW28164   3.255   7.456   9.584
 8797SOL    HW128165   3.331   7.499   9.624
 8797SOL    HW228166   3.180   7.505   9.617
 8798SOL     OW28167   2.220   9.097   7.560
 8798SOL    HW128168   2.252   9.133   7.643
 8798SOL    HW228169   2.173   9.170   7.519
 8799SOL     OW28170   8.235  11.855  13.036
 8799SOL    HW128171   8.179  11.780  13.058
 8799SOL    HW228172   8.308  11.849  13.098
 8800SOL     OW28173   6.469   8.128  14.559
 8800SOL    HW128174   6.465   8.205  14.502
 8800SOL    HW228175   6.420   8.061  14.513
 8801SOL     OW28176  11.956  11.974  12.083
 8801SOL    HW128177  11.901  11.920  12.026
 8801SOL    HW228178  11.995  12.039  12.025
 8802SOL     OW28179   1.743  13.552   4.804
 8802SOL    HW128180   1.814  13.495   4.833
 8802SOL    HW228181   1.718  13.519   4.718
 8803SOL     OW28182   8.047   1.275   9.768
 8803SOL    HW128183   7.985   1.203   9.776
 8803SOL    HW228184   8.002   1.339   9.713
 8804SOL     OW28185  13.934   2.762   4.376
 8804SOL    HW128186  13.917   2.669   4.392
 8804SOL    HW228187  13.998   2.787   4.442
 8805SOL     OW28188   1.925  10.033   4.962
 8805SOL    HW128189   1.907   9.950   4.918
 8805SOL    HW228190   1.935  10.096   4.891
 8806SOL     OW28191   5.329   7.414   6.630
 8806SOL    HW128192   5.327   7.324   6.660
 8806SOL    HW228193   5.275   7.462   6.693
 8807SOL     OW28194   8.097  10.224  10.637
 8807SOL    HW128195   8.080  10.139  10.678
 8807SOL    HW228196   8.025  10.234  10.574
 8808SOL     OW28197   5.211  10.527   7.656
 8808SOL    HW128198   5.138  10.510   7.596
 8808SOL    HW228199   5.171  10.524   7.744
 8809SOL     OW28200   1.702  10.260   5.033
 8809SOL    HW128201   1.616  10.247   5.074
 8809SOL    HW228202   1.735  10.340   5.072
 8810SOL     OW28203   7.051   0.863   3.745
 8810SOL    HW128204   7.071   0.929   3.811
 8810SOL    HW228205   7.037   0.783   3.794
 8811SOL     OW28206   2.338  11.449   7.167
 8811SOL    HW128207   2.251  11.408   7.164
 8811SOL    HW228208   2.361  11.463   7.076
 8812SOL     OW28209  11.450  13.069   0.260
 8812SOL    HW128210  11.505  12.997   0.291
 8812SOL    HW228211  11.438  13.124   0.337
 8813SOL     OW28212   1.095   1.957   1.083
 8813SOL    HW128213   1.020   1.986   1.029
 8813SOL    HW228214   1.111   2.031   1.142
 8814SOL     OW28215  14.698   0.883  14.642
 8814SOL    HW128216  14.689   0.873  14.548
 8814SOL    HW228217  14.610   0.904  14.673
 8815SOL     OW28218  10.533   6.937   5.553
 8815SOL    HW128219  10.532   6.934   5.648
 8815SOL    HW228220  10.506   6.849   5.525
 8816SOL     OW28221   3.596   2.738   7.129
 8816SOL    HW128222   3.584   2.645   7.152
 8816SOL    HW228223   3.510   2.765   7.096
 8817SOL     OW28224  12.784  11.517   0.918
 8817SOL    HW128225  12.752  11.429   0.899
 8817SOL    HW228226  12.805  11.553   0.832
 8818SOL     OW28227   2.694  10.467  10.916
 8818SOL    HW128228   2.649  10.456  10.833
 8818SOL    HW228229   2.714  10.560  10.920
 8819SOL     OW28230  10.767   8.736   3.161
 8819SOL    HW128231  10.780   8.810   3.101
 8819SOL    HW228232  10.672   8.724   3.164
 8820SOL     OW28233   5.292  13.075   7.524
 8820SOL    HW128234   5.272  13.053   7.615
 8820SOL    HW228235   5.219  13.130   7.496
 8821SOL     OW28236   0.874  11.194   1.298
 8821SOL    HW128237   0.949  11.252   1.315
 8821SOL    HW228238   0.902  11.139   1.225
 8822SOL     OW28239   4.253   7.719   9.931
 8822SOL    HW128240   4.342   7.688   9.949
 8822SOL    HW228241   4.244   7.797   9.986
 8823SOL     OW28242   5.937   9.823  12.309
 8823SOL    HW128243   5.963   9.888  12.243
 8823SOL    HW228244   5.895   9.753  12.258
 8824SOL     OW28245   3.340   6.542  12.847
 8824SOL    HW128246   3.397   6.512  12.918
 8824SOL    HW228247   3.268   6.479  12.846
 8825SOL     OW28248   0.779  11.674   2.571
 8825SOL    HW128249   0.784  11.734   2.645
 8825SOL    HW228250   0.697  11.626   2.585
 8826SOL     OW28251  11.659   4.210   0.569
 8826SOL    HW128252  11.617   4.229   0.485
 8826SOL    HW228253  11.595   4.157   0.616
 8827SOL     OW28254   6.256   3.735   7.025
 8827SOL    HW128255   6.305   3.805   7.067
 8827SOL    HW228256   6.316   3.698   6.960
 8828SOL     OW28257  14.269   9.909  14.394
 8828SOL    HW128258  14.353   9.936  14.431
 8828SOL    HW228259  14.211   9.983  14.412
 8829SOL     OW28260   2.609   9.278   7.706
 8829SOL    HW128261   2.624   9.194   7.748
 8829SOL    HW228262   2.634   9.343   7.772
 8830SOL     OW28263   4.170  12.178  12.885
 8830SOL    HW128264   4.143  12.170  12.793
 8830SOL    HW228265   4.128  12.104  12.929
 8831SOL     OW28266  14.371  10.691   8.075
 8831SOL    HW128267  14.442  10.748   8.047
 8831SOL    HW228268  14.355  10.633   8.000
 8832SOL     OW28269   9.915  12.811  13.590
 8832SOL    HW128270   9.954  12.777  13.671
 8832SOL    HW228271   9.843  12.866  13.620
 8833SOL     OW28272  11.988  13.240  12.652
 8833SOL    HW128273  11.935  13.320  12.646
 8833SOL    HW228274  12.037  13.238  12.570
 8834SOL     OW28275  13.683   5.778  14.228
 8834SOL    HW128276  13.603   5.804  14.183
 8834SOL    HW228277  13.689   5.836  14.304
 8835SOL     OW28278  11.686   9.238   1.230
 8835SOL    HW128279  11.749   9.197   1.171
 8835SOL    HW228280  11.646   9.308   1.178
 8836SOL     OW28281   8.089   1.488   6.150
 8836SOL    HW128282   8.096   1.417   6.086
 8836SOL    HW228283   8.077   1.567   6.097
 8837SOL     OW28284   7.065  13.814  14.581
 8837SOL    HW128285   7.102  13.747  14.638
 8837SOL    HW228286   7.089  13.787  14.492
 8838SOL     OW28287   6.872   0.567  10.994
 8838SOL    HW128288   6.883   0.507  11.068
 8838SOL    HW228289   6.848   0.650  11.034
 8839SOL     OW28290  12.389   4.641   6.875
 8839SOL    HW128291  12.372   4.621   6.782
 8839SOL    HW228292  12.386   4.555   6.918
 8840SOL     OW28293   0.874   9.999   5.715
 8840SOL    HW128294   0.853  10.072   5.773
 8840SOL    HW228295   0.793   9.947   5.711
 8841SOL     OW28296   2.789   8.302   5.142
 8841SOL    HW128297   2.873   8.320   5.100
 8841SOL    HW228298   2.782   8.207   5.142
 8842SOL     OW28299  14.521   6.524   6.459
 8842SOL    HW128300  14.586   6.545   6.392
 8842SOL    HW228301  14.505   6.607   6.504
 8843SOL     OW28302   5.109  10.837  13.732
 8843SOL    HW128303   5.119  10.781  13.809
 8843SOL    HW228304   5.129  10.779  13.658
 8844SOL     OW28305  14.487   4.552   0.868
 8844SOL    HW128306  14.468   4.558   0.775
 8844SOL    HW228307  14.527   4.637   0.890
 8845SOL     OW28308   3.644   1.868   4.993
 8845SOL    HW128309   3.644   1.845   4.900
 8845SOL    HW228310   3.564   1.828   5.027
 8846SOL     OW28311   9.117   7.503   5.122
 8846SOL    HW128312   9.132   7.594   5.151
 8846SOL    HW228313   9.141   7.450   5.198
 8847SOL     OW28314   5.576   8.111   5.345
 8847SOL    HW128315   5.544   8.185   5.397
 8847SOL    HW228316   5.662   8.092   5.381
 8848SOL     OW28317  13.177   8.739   2.902
 8848SOL    HW128318  13.196   8.808   2.838
 8848SOL    HW228319  13.168   8.786   2.985
 8849SOL     OW28320  12.558   7.138   1.249
 8849SOL    HW128321  12.560   7.087   1.168
 8849SOL    HW228322  12.496   7.209   1.231
 8850SOL     OW28323  12.775  10.086   8.757
 8850SOL    HW128324  12.836  10.159   8.753
 8850SOL    HW228325  12.752  10.079   8.849
 8851SOL     OW28326   6.905   9.970  11.056
 8851SOL    HW128327   6.886   9.976  10.963
 8851SOL    HW228328   6.885   9.879  11.079
 8852SOL     OW28329  10.624   9.889   1.664
 8852SOL    HW128330  10.665   9.964   1.707
 8852SOL    HW228331  10.649   9.897   1.572
 8853SOL     OW28332   4.531   6.837   8.922
 8853SOL    HW128333   4.581   6.866   8.998
 8853SOL    HW228334   4.502   6.749   8.945
 8854SOL     OW28335   6.968   3.589  14.040
 8854SOL    HW128336   6.977   3.633  14.124
 8854SOL    HW228337   6.878   3.605  14.013
 8855SOL     OW28338   4.847   8.523  14.854
 8855SOL    HW128339   4.842   8.449  14.794
 8855SOL    HW228340   4.761   8.565  14.848
 8856SOL     OW28341  10.624  14.293  10.719
 8856SOL    HW128342  10.579  14.338  10.791
 8856SOL    HW228343  10.624  14.201  10.745
 8857SOL     OW28344   3.296  12.076  10.183
 8857SOL    HW128345   3.385  12.065  10.150
 8857SOL    HW228346   3.296  12.164  10.221
 8858SOL     OW28347  10.231   4.477  11.122
 8858SOL    HW128348  10.209   4.426  11.200
 8858SOL    HW228349  10.193   4.428  11.049
 8859SOL     OW28350  13.875   9.291   0.790
 8859SOL    HW128351  13.795   9.258   0.831
 8859SOL    HW228352  13.848   9.373   0.748
 8860SOL     OW28353   4.079  14.663  12.853
 8860SOL    HW128354   4.103  14.605  12.781
 8860SOL    HW228355   4.070  14.605  12.929
 8861SOL     OW28356   2.867   4.356   9.600
 8861SOL    HW128357   2.824   4.343   9.516
 8861SOL    HW228358   2.900   4.446   9.597
 8862SOL     OW28359   8.763   1.247  13.053
 8862SOL    HW128360   8.800   1.246  12.965
 8862SOL    HW228361   8.670   1.266  13.039
 8863SOL     OW28362   4.840   2.303   4.830
 8863SOL    HW128363   4.912   2.364   4.838
 8863SOL    HW228364   4.864   2.229   4.886
 8864SOL     OW28365  13.288  10.508   1.005
 8864SOL    HW128366  13.206  10.539   0.969
 8864SOL    HW228367  13.274  10.506   1.100
 8865SOL     OW28368   2.743   0.673   9.506
 8865SOL    HW128369   2.721   0.581   9.489
 8865SOL    HW228370   2.679   0.723   9.456
 8866SOL     OW28371   1.678  13.267   7.869
 8866SOL    HW128372   1.719  13.318   7.799
 8866SOL    HW228373   1.615  13.211   7.824
 8867SOL     OW28374   9.024  10.969   0.578
 8867SOL    HW128375   8.949  10.954   0.635
 8867SOL    HW228376   9.093  11.000   0.636
 8868SOL     OW28377   8.075   8.322  11.066
 8868SOL    HW128378   8.003   8.382  11.086
 8868SOL    HW228379   8.136   8.331  11.139
 8869SOL     OW28380   6.103   9.031   3.916
 8869SOL    HW128381   6.190   9.071   3.927
 8869SOL    HW228382   6.046   9.104   3.892
 8870SOL     OW28383   7.574   4.135   7.217
 8870SOL    HW128384   7.625   4.110   7.294
 8870SOL    HW228385   7.613   4.085   7.145
 8871SOL     OW28386   8.210   6.350  14.854
 8871SOL    HW128387   8.279   6.328   0.039
 8871SOL    HW228388   8.197   6.444  14.865
 8872SOL     OW28389  14.162   9.982   6.094
 8872SOL    HW128390  14.099   9.980   6.166
 8872SOL    HW228391  14.166   9.892   6.063
 8873SOL     OW28392   9.585  12.582   5.727
 8873SOL    HW128393   9.656  12.613   5.784
 8873SOL    HW228394   9.599  12.488   5.720
 8874SOL     OW28395  14.640  14.115   6.607
 8874SOL    HW128396  14.610  14.197   6.645
 8874SOL    HW228397  14.735  14.127   6.598
 8875SOL     OW28398   6.536  13.787   2.699
 8875SOL    HW128399   6.608  13.729   2.725
 8875SOL    HW228400   6.514  13.834   2.779
 8876SOL     OW28401   9.134  13.976   9.562
 8876SOL    HW128402   9.136  13.881   9.573
 8876SOL    HW228403   9.057  13.993   9.509
 8877SOL     OW28404   8.163   4.020   8.337
 8877SOL    HW128405   8.163   4.086   8.407
 8877SOL    HW228406   8.190   3.939   8.380
 8878SOL     OW28407   0.675   8.706   4.727
 8878SOL    HW128408   0.620   8.630   4.709
 8878SOL    HW228409   0.623   8.781   4.697
 8879SOL     OW28410   8.487  13.793   5.995
 8879SOL    HW128411   8.416  13.825   6.051
 8879SOL    HW228412   8.567  13.824   6.037
 8880SOL     OW28413   5.568  12.026   2.409
 8880SOL    HW128414   5.532  11.940   2.429
 8880SOL    HW228415   5.589  12.022   2.315
 8881SOL     OW28416  10.754   0.391   3.643
 8881SOL    HW128417  10.764   0.475   3.688
 8881SOL    HW228418  10.833   0.382   3.591
 8882SOL     OW28419   7.100  14.136   9.108
 8882SOL    HW128420   7.146  14.218   9.125
 8882SOL    HW228421   7.029  14.134   9.172
 8883SOL     OW28422   1.484  13.475   3.147
 8883SOL    HW128423   1.482  13.420   3.226
 8883SOL    HW228424   1.393  13.486   3.123
 8884SOL     OW28425   3.456   5.934   8.522
 8884SOL    HW128426   3.366   5.923   8.489
 8884SOL    HW228427   3.482   5.846   8.549
 8885SOL     OW28428   8.135   4.394   3.956
 8885SOL    HW128429   8.136   4.360   4.045
 8885SOL    HW228430   8.218   4.442   3.948
 8886SOL     OW28431   6.247   2.181   0.413
 8886SOL    HW128432   6.218   2.273   0.412
 8886SOL    HW228433   6.306   2.175   0.338
 8887SOL     OW28434  12.996   8.042   5.901
 8887SOL    HW128435  13.079   7.996   5.903
 8887SOL    HW228436  13.019   8.133   5.880
 8888SOL     OW28437  12.562  11.905   4.903
 8888SOL    HW128438  12.567  11.993   4.941
 8888SOL    HW228439  12.477  11.871   4.934
 8889SOL     OW28440   6.887  13.154  13.785
 8889SOL    HW128441   6.928  13.226  13.832
 8889SOL    HW228442   6.957  13.117  13.731
 8890SOL     OW28443   7.904   1.251  13.168
 8890SOL    HW128444   7.903   1.346  13.153
 8890SOL    HW228445   7.981   1.238  13.225
 8891SOL     OW28446   2.698  11.039   4.832
 8891SOL    HW128447   2.732  10.984   4.902
 8891SOL    HW228448   2.658  11.113   4.877
 8892SOL     OW28449   8.575   3.972  11.930
 8892SOL    HW128450   8.593   3.970  11.836
 8892SOL    HW228451   8.656   4.003  11.970
 8893SOL     OW28452   4.767  13.352  14.559
 8893SOL    HW128453   4.749  13.331  14.467
 8893SOL    HW228454   4.805  13.272  14.595
 8894SOL     OW28455   4.084   0.034   1.097
 8894SOL    HW128456   4.032  14.833   1.117
 8894SOL    HW228457   4.020   0.105   1.093
 8895SOL     OW28458   5.797   4.522   8.125
 8895SOL    HW128459   5.772   4.452   8.065
 8895SOL    HW228460   5.812   4.478   8.209
 8896SOL     OW28461   0.888   4.382   6.570
 8896SOL    HW128462   0.821   4.333   6.618
 8896SOL    HW228463   0.867   4.473   6.587
 8897SOL     OW28464   6.094  11.008   4.684
 8897SOL    HW128465   6.139  10.994   4.600
 8897SOL    HW228466   6.001  11.009   4.661
 8898SOL     OW28467   7.831   0.030   0.763
 8898SOL    HW128468   7.809   0.114   0.723
 8898SOL    HW228469   7.921   0.013   0.736
 8899SOL     OW28470   6.842   2.175   6.803
 8899SOL    HW128471   6.851   2.217   6.718
 8899SOL    HW228472   6.837   2.248   6.865
 8900SOL     OW28473   4.718   8.050  14.531
 8900SOL    HW128474   4.686   7.961  14.546
 8900SOL    HW228475   4.812   8.044  14.548
 8901SOL     OW28476   2.680   4.275  13.356
 8901SOL    HW128477   2.673   4.189  13.398
 8901SOL    HW228478   2.644   4.261  13.268
 8902SOL     OW28479  10.833  14.176   7.883
 8902SOL    HW128480  10.858  14.218   7.966
 8902SOL    HW228481  10.883  14.222   7.816
 8903SOL     OW28482   9.769  14.068   6.501
 8903SOL    HW128483   9.814  14.071   6.416
 8903SOL    HW228484   9.697  14.006   6.488
 8904SOL     OW28485   5.617   2.482  11.332
 8904SOL    HW128486   5.544   2.442  11.284
 8904SOL    HW228487   5.694   2.466  11.277
 8905SOL     OW28488  11.552   9.015  13.085
 8905SOL    HW128489  11.486   9.081  13.060
 8905SOL    HW228490  11.613   9.013  13.011
 8906SOL     OW28491   3.745  10.699   0.772
 8906SOL    HW128492   3.801  10.693   0.849
 8906SOL    HW228493   3.752  10.791   0.745
 8907SOL     OW28494  13.584   6.088   7.677
 8907SOL    HW128495  13.539   6.157   7.727
 8907SOL    HW228496  13.652   6.134   7.629
 8908SOL     OW28497   1.554   6.356   4.777
 8908SOL    HW128498   1.622   6.329   4.839
 8908SOL    HW228499   1.582   6.321   4.693
 8909SOL     OW28500   7.235   5.842  12.501
 8909SOL    HW128501   7.141   5.847  12.520
 8909SOL    HW228502   7.251   5.916  12.441
 8910SOL     OW28503   0.568   8.432   0.077
 8910SOL    HW128504   0.660   8.405   0.074
 8910SOL    HW228505   0.570   8.520   0.115
 8911SOL     OW28506   2.756   2.810  14.774
 8911SOL    HW128507   2.727   2.757  14.848
 8911SOL    HW228508   2.767   2.898  14.810
 8912SOL     OW28509   0.919   9.764   9.335
 8912SOL    HW128510   0.840   9.714   9.355
 8912SOL    HW228511   0.989   9.699   9.336
 8913SOL     OW28512   3.908   4.167  10.921
 8913SOL    HW128513   3.813   4.181  10.917
 8913SOL    HW228514   3.944   4.232  10.860
 8914SOL     OW28515   8.026   4.702   0.116
 8914SOL    HW128516   7.949   4.649   0.094
 8914SOL    HW228517   8.097   4.663   0.065
 8915SOL     OW28518   2.583  12.430   0.605
 8915SOL    HW128519   2.588  12.412   0.511
 8915SOL    HW228520   2.640  12.505   0.619
 8916SOL     OW28521   0.172   4.466  11.096
 8916SOL    HW128522   0.133   4.381  11.080
 8916SOL    HW228523   0.161   4.480  11.190
 8917SOL     OW28524   8.774   0.724  11.334
 8917SOL    HW128525   8.731   0.806  11.309
 8917SOL    HW228526   8.704   0.659  11.329
 8918SOL     OW28527   3.004   8.041   3.111
 8918SOL    HW128528   2.916   8.002   3.114
 8918SOL    HW228529   3.012   8.075   3.022
 8919SOL     OW28530   5.752   6.879   9.801
 8919SOL    HW128531   5.752   6.902   9.708
 8919SOL    HW228532   5.758   6.784   9.802
 8920SOL     OW28533  12.771  12.556   7.868
 8920SOL    HW128534  12.755  12.465   7.843
 8920SOL    HW228535  12.840  12.552   7.934
 8921SOL     OW28536   3.303   5.377  10.238
 8921SOL    HW128537   3.378   5.420  10.278
 8921SOL    HW228538   3.310   5.285  10.265
 8922SOL     OW28539  14.411   8.848   1.244
 8922SOL    HW128540  14.468   8.924   1.231
 8922SOL    HW228541  14.324   8.877   1.218
 8923SOL     OW28542   7.251  13.135   3.013
 8923SOL    HW128543   7.316  13.198   3.042
 8923SOL    HW228544   7.168  13.184   3.013
 8924SOL     OW28545   0.204   7.005   4.916
 8924SOL    HW128546   0.294   7.012   4.947
 8924SOL    HW228547   0.195   6.914   4.890
 8925SOL     OW28548  14.738   1.546  11.574
 8925SOL    HW128549  14.663   1.595  11.541
 8925SOL    HW228550  14.716   1.454  11.558
 8926SOL     OW28551   6.535  12.585  14.568
 8926SOL    HW128552   6.540  12.520  14.498
 8926SOL    HW228553   6.545  12.669  14.523
 8927SOL     OW28554   8.799   1.280   4.269
 8927SOL    HW128555   8.895   1.269   4.268
 8927SOL    HW228556   8.784   1.365   4.229
 8928SOL     OW28557  10.316   0.042  11.335
 8928SOL    HW128558  10.383   0.098  11.374
 8928SOL    HW228559  10.233   0.083  11.359
 8929SOL     OW28560   8.378   3.898  13.013
 8929SOL    HW128561   8.292   3.910  12.974
 8929SOL    HW228562   8.373   3.942  13.097
 8930SOL     OW28563   3.878   6.963   7.115
 8930SOL    HW128564   3.973   6.953   7.107
 8930SOL    HW228565   3.853   7.008   7.034
 8931SOL     OW28566   6.293   4.904   5.863
 8931SOL    HW128567   6.197   4.908   5.863
 8931SOL    HW228568   6.316   4.897   5.955
 8932SOL     OW28569  11.752   6.928   6.556
 8932SOL    HW128570  11.681   6.978   6.597
 8932SOL    HW228571  11.734   6.934   6.462
 8933SOL     OW28572   2.739  12.686   4.660
 8933SOL    HW128573   2.667  12.703   4.722
 8933SOL    HW228574   2.708  12.722   4.577
 8934SOL     OW28575  13.488  14.178  12.863
 8934SOL    HW128576  13.549  14.218  12.802
 8934SOL    HW228577  13.431  14.249  12.890
 8935SOL     OW28578   2.159   1.765   2.591
 8935SOL    HW128579   2.143   1.802   2.678
 8935SOL    HW228580   2.073   1.765   2.549
 8936SOL     OW28581   0.714   2.551   2.375
 8936SOL    HW128582   0.755   2.596   2.449
 8936SOL    HW228583   0.787   2.529   2.316
 8937SOL     OW28584   6.938   2.196   7.569
 8937SOL    HW128585   6.843   2.185   7.575
 8937SOL    HW228586   6.952   2.235   7.483
 8938SOL     OW28587  13.509   0.930   0.459
 8938SOL    HW128588  13.602   0.914   0.440
 8938SOL    HW228589  13.482   0.853   0.509
 8939SOL     OW28590  11.215  13.431   5.635
 8939SOL    HW128591  11.257  13.389   5.560
 8939SOL    HW228592  11.285  13.441   5.700
 8940SOL     OW28593  13.168  11.133   0.847
 8940SOL    HW128594  13.144  11.064   0.909
 8940SOL    HW228595  13.263  11.135   0.848
 8941SOL     OW28596   3.554   5.544  13.899
 8941SOL    HW128597   3.526   5.619  13.950
 8941SOL    HW228598   3.488   5.477  13.917
 8942SOL     OW28599   1.405   3.471  10.049
 8942SOL    HW128600   1.414   3.540   9.983
 8942SOL    HW228601   1.475   3.409  10.028
 8943SOL     OW28602   1.568  14.323  11.592
 8943SOL    HW128603   1.581  14.416  11.572
 8943SOL    HW228604   1.560  14.321  11.687
 8944SOL     OW28605   9.990   4.998  13.709
 8944SOL    HW128606   9.970   5.020  13.800
 8944SOL    HW228607   9.975   4.904  13.703
 8945SOL     OW28608  14.200   0.274  14.860
 8945SOL    HW128609  14.116   0.230  14.868
 8945SOL    HW228610  14.201   0.336   0.055
 8946SOL     OW28611  11.266   3.252   8.387
 8946SOL    HW128612  11.360   3.264   8.400
 8946SOL    HW228613  11.258   3.164   8.351
 8947SOL     OW28614   3.146   5.967  12.927
 8947SOL    HW128615   3.113   5.878  12.926
 8947SOL    HW228616   3.197   5.973  13.008
 8948SOL     OW28617   3.070  12.442  11.119
 8948SOL    HW128618   3.137  12.475  11.059
 8948SOL    HW228619   3.099  12.470  11.206
 8949SOL     OW28620   8.125   9.737   2.653
 8949SOL    HW128621   8.113   9.758   2.745
 8949SOL    HW228622   8.054   9.782   2.608
 8950SOL     OW28623   5.292   9.758   0.903
 8950SOL    HW128624   5.216   9.807   0.873
 8950SOL    HW228625   5.314   9.699   0.831
 8951SOL     OW28626  11.813  11.124   5.358
 8951SOL    HW128627  11.873  11.163   5.295
 8951SOL    HW228628  11.731  11.114   5.310
 8952SOL     OW28629  12.554   1.480  13.188
 8952SOL    HW128630  12.505   1.426  13.127
 8952SOL    HW228631  12.588   1.419  13.253
 8953SOL     OW28632  12.113   9.904  10.670
 8953SOL    HW128633  12.054   9.831  10.654
 8953SOL    HW228634  12.143   9.891  10.760
 8954SOL     OW28635  13.291   7.417   1.253
 8954SOL    HW128636  13.341   7.499   1.248
 8954SOL    HW228637  13.200   7.444   1.238
 8955SOL     OW28638  13.571   6.237   4.675
 8955SOL    HW128639  13.482   6.266   4.652
 8955SOL    HW228640  13.558   6.175   4.747
 8956SOL     OW28641  12.571  14.851   2.242
 8956SOL    HW128642  12.528   0.059   2.247
 8956SOL    HW228643  12.500  14.790   2.224
 8957SOL     OW28644   1.054  13.442   5.769
 8957SOL    HW128645   1.119  13.374   5.752
 8957SOL    HW228646   1.058  13.457   5.863
 8958SOL     OW28647   2.637  10.633   8.414
 8958SOL    HW128648   2.717  10.582   8.425
 8958SOL    HW228649   2.596  10.596   8.336
 8959SOL     OW28650   2.472   1.031  11.838
 8959SOL    HW128651   2.469   0.936  11.833
 8959SOL    HW228652   2.480   1.059  11.747
 8960SOL     OW28653   5.434   6.141   0.508
 8960SOL    HW128654   5.485   6.083   0.565
 8960SOL    HW228655   5.498   6.177   0.447
 8961SOL     OW28656  12.681   9.487  12.381
 8961SOL    HW128657  12.644   9.536  12.455
 8961SOL    HW228658  12.608   9.433  12.350
 8962SOL     OW28659  10.629  12.275   4.359
 8962SOL    HW128660  10.550  12.302   4.405
 8962SOL    HW228661  10.655  12.352   4.309
 8963SOL     OW28662  13.651   1.689  11.826
 8963SOL    HW128663  13.736   1.714  11.864
 8963SOL    HW228664  13.653   1.724  11.737
 8964SOL     OW28665  12.153   7.844   5.252
 8964SOL    HW128666  12.079   7.818   5.197
 8964SOL    HW228667  12.120   7.835   5.341
 8965SOL     OW28668   3.536   8.079   3.719
 8965SOL    HW128669   3.508   8.102   3.808
 8965SOL    HW228670   3.577   8.159   3.685
 8966SOL     OW28671  14.239  13.932   6.735
 8966SOL    HW128672  14.203  13.948   6.647
 8966SOL    HW228673  14.314  13.874   6.721
 8967SOL     OW28674   1.020   3.703   5.265
 8967SOL    HW128675   1.110   3.722   5.288
 8967SOL    HW228676   0.975   3.788   5.271
 8968SOL     OW28677   9.991   0.146  14.455
 8968SOL    HW128678  10.061   0.119  14.396
 8968SOL    HW228679   9.989   0.079  14.523
 8969SOL     OW28680   6.464   7.291  11.776
 8969SOL    HW128681   6.399   7.283  11.846
 8969SOL    HW228682   6.547   7.271  11.817
 8970SOL     OW28683  12.159  13.748   9.972
 8970SOL    HW128684  12.070  13.727   9.997
 8970SOL    HW228685  12.212  13.726  10.049
 8971SOL     OW28686   9.159   5.871  13.563
 8971SOL    HW128687   9.214   5.923  13.504
 8971SOL    HW228688   9.184   5.900  13.651
 8972SOL     OW28689   1.604  12.227   5.810
 8972SOL    HW128690   1.669  12.255   5.874
 8972SOL    HW228691   1.655  12.190   5.738
 8973SOL     OW28692   1.891  11.920  13.069
 8973SOL    HW128693   1.914  11.914  12.976
 8973SOL    HW228694   1.815  11.978  13.070
 8974SOL     OW28695   6.595   6.077   8.268
 8974SOL    HW128696   6.605   6.138   8.340
 8974SOL    HW228697   6.586   5.991   8.310
 8975SOL     OW28698   6.886  13.954  12.170
 8975SOL    HW128699   6.829  13.989  12.101
 8975SOL    HW228700   6.889  13.860  12.153
 8976SOL     OW28701   1.802  13.710   2.602
 8976SOL    HW128702   1.803  13.695   2.507
 8976SOL    HW228703   1.770  13.799   2.612
 8977SOL     OW28704  13.835  13.100   8.523
 8977SOL    HW128705  13.920  13.144   8.521
 8977SOL    HW228706  13.797  13.117   8.437
 8978SOL     OW28707   2.761   7.583   7.122
 8978SOL    HW128708   2.799   7.508   7.168
 8978SOL    HW228709   2.830   7.610   7.061
 8979SOL     OW28710   5.328   8.173   1.218
 8979SOL    HW128711   5.347   8.114   1.291
 8979SOL    HW228712   5.311   8.114   1.144
 8980SOL     OW28713   1.972  11.620  14.364
 8980SOL    HW128714   1.960  11.661  14.278
 8980SOL    HW228715   1.904  11.552  14.367
 8981SOL     OW28716   8.451  10.482   1.970
 8981SOL    HW128717   8.439  10.559   2.026
 8981SOL    HW228718   8.454  10.408   2.031
 8982SOL     OW28719  12.883   3.134  13.034
 8982SOL    HW128720  12.912   3.216  13.076
 8982SOL    HW228721  12.889   3.068  13.104
 8983SOL     OW28722   0.649   3.053  14.677
 8983SOL    HW128723   0.677   3.061  14.585
 8983SOL    HW228724   0.653   2.958  14.694
 8984SOL     OW28725   6.208  11.514  10.838
 8984SOL    HW128726   6.285  11.536  10.891
 8984SOL    HW228727   6.243  11.501  10.750
 8985SOL     OW28728   5.262   8.698   9.339
 8985SOL    HW128729   5.309   8.617   9.362
 8985SOL    HW228730   5.256   8.746   9.421
 8986SOL     OW28731   4.295   8.786   6.384
 8986SOL    HW128732   4.277   8.874   6.417
 8986SOL    HW228733   4.247   8.728   6.442
 8987SOL     OW28734  13.460   4.172   3.252
 8987SOL    HW128735  13.471   4.198   3.344
 8987SOL    HW228736  13.434   4.080   3.256
 8988SOL     OW28737   4.644   1.159  10.406
 8988SOL    HW128738   4.614   1.206  10.328
 8988SOL    HW228739   4.737   1.141  10.388
 8989SOL     OW28740   0.405   8.678   6.552
 8989SOL    HW128741   0.336   8.728   6.509
 8989SOL    HW228742   0.438   8.620   6.484
 8990SOL     OW28743   2.802  10.071   1.922
 8990SOL    HW128744   2.874  10.017   1.954
 8990SOL    HW228745   2.733  10.061   1.988
 8991SOL     OW28746  13.353  12.759  13.647
 8991SOL    HW128747  13.273  12.802  13.676
 8991SOL    HW228748  13.386  12.815  13.577
 8992SOL     OW28749   3.841  13.688   6.622
 8992SOL    HW128750   3.834  13.681   6.717
 8992SOL    HW228751   3.866  13.778   6.606
 8993SOL     OW28752   9.496  12.172   6.041
 8993SOL    HW128753   9.526  12.114   6.111
 8993SOL    HW228754   9.411  12.137   6.014
 8994SOL     OW28755   4.554  11.502   5.427
 8994SOL    HW128756   4.563  11.468   5.516
 8994SOL    HW228757   4.636  11.548   5.410
 8995SOL     OW28758   0.599  12.115  10.793
 8995SOL    HW128759   0.541  12.103  10.717
 8995SOL    HW228760   0.669  12.172  10.760
 8996SOL     OW28761  11.902   0.698   1.672
 8996SOL    HW128762  11.915   0.793   1.679
 8996SOL    HW228763  11.851   0.687   1.592
 8997SOL     OW28764   7.356  11.837  13.388
 8997SOL    HW128765   7.353  11.805  13.478
 8997SOL    HW228766   7.403  11.920  13.393
 8998SOL     OW28767   6.805  10.133  12.739
 8998SOL    HW128768   6.888  10.137  12.786
 8998SOL    HW228769   6.823  10.077  12.663
 8999SOL     OW28770   2.896   5.998   2.276
 8999SOL    HW128771   2.946   6.053   2.216
 8999SOL    HW228772   2.875   5.919   2.226
 9000SOL     OW28773  12.821   7.235   0.747
 9000SOL    HW128774  12.849   7.147   0.774
 9000SOL    HW228775  12.893   7.292   0.774
 9001SOL     OW28776   9.811   2.967  13.774
 9001SOL    HW128777   9.836   3.005  13.858
 9001SOL    HW228778   9.721   2.935  13.788
 9002SOL     OW28779   2.322   7.217   5.153
 9002SOL    HW128780   2.262   7.267   5.208
 9002SOL    HW228781   2.310   7.252   5.065
 9003SOL     OW28782   1.562   4.408   4.435
 9003SOL    HW128783   1.649   4.447   4.435
 9003SOL    HW228784   1.511   4.463   4.494
 9004SOL     OW28785   0.616   5.985   3.624
 9004SOL    HW128786   0.607   5.954   3.533
 9004SOL    HW228787   0.685   6.051   3.619
 9005SOL     OW28788  14.101   8.813   3.439
 9005SOL    HW128789  14.063   8.746   3.496
 9005SOL    HW228790  14.054   8.804   3.356
 9006SOL     OW28791   5.105   1.466   3.617
 9006SOL    HW128792   5.171   1.507   3.672
 9006SOL    HW228793   5.083   1.533   3.552
 9007SOL     OW28794   9.365   5.026  14.663
 9007SOL    HW128795   9.420   4.998  14.736
 9007SOL    HW228796   9.287   4.971  14.669
 9008SOL     OW28797   5.003  14.192  11.442
 9008SOL    HW128798   4.983  14.129  11.511
 9008SOL    HW228799   4.952  14.164  11.367
 9009SOL     OW28800  12.261  13.655   3.057
 9009SOL    HW128801  12.351  13.632   3.032
 9009SOL    HW228802  12.225  13.698   2.980
 9010SOL     OW28803   6.985  14.641   9.270
 9010SOL    HW128804   7.011  14.626   9.179
 9010SOL    HW228805   6.903  14.592   9.279
 9011SOL     OW28806   2.789  13.699   2.125
 9011SOL    HW128807   2.717  13.678   2.185
 9011SOL    HW228808   2.835  13.772   2.167
 9012SOL     OW28809   9.465   9.086  10.850
 9012SOL    HW128810   9.438   9.052  10.765
 9012SOL    HW228811   9.411   9.039  10.914
 9013SOL     OW28812  10.858   6.176   8.634
 9013SOL    HW128813  10.803   6.120   8.580
 9013SOL    HW228814  10.946   6.169   8.596
 9014SOL     OW28815   9.897  10.606  11.366
 9014SOL    HW128816   9.859  10.534  11.415
 9014SOL    HW228817   9.991  10.601  11.385
 9015SOL     OW28818  11.727   6.797  12.365
 9015SOL    HW128819  11.720   6.885  12.328
 9015SOL    HW228820  11.789   6.808  12.438
 9016SOL     OW28821   3.819   3.477   0.457
 9016SOL    HW128822   3.741   3.486   0.403
 9016SOL    HW228823   3.880   3.541   0.422
 9017SOL     OW28824  10.485   1.274   8.462
 9017SOL    HW128825  10.430   1.240   8.391
 9017SOL    HW228826  10.542   1.201   8.486
 9018SOL     OW28827   5.251  10.152   1.586
 9018SOL    HW128828   5.208  10.098   1.653
 9018SOL    HW228829   5.341  10.161   1.616
 9019SOL     OW28830   7.111   3.177   3.174
 9019SOL    HW128831   7.140   3.130   3.252
 9019SOL    HW228832   7.078   3.260   3.207
 9020SOL     OW28833   8.334  10.499  13.639
 9020SOL    HW128834   8.346  10.441  13.563
 9020SOL    HW228835   8.392  10.463  13.706
 9021SOL     OW28836   9.511   2.337   7.774
 9021SOL    HW128837   9.417   2.351   7.786
 9021SOL    HW228838   9.530   2.373   7.687
 9022SOL     OW28839   8.055   2.983   7.777
 9022SOL    HW128840   7.968   3.023   7.775
 9022SOL    HW228841   8.085   2.987   7.686
 9023SOL     OW28842   0.480   5.134   0.516
 9023SOL    HW128843   0.406   5.154   0.459
 9023SOL    HW228844   0.557   5.146   0.460
 9024SOL     OW28845  10.174   8.778   0.200
 9024SOL    HW128846  10.264   8.811   0.205
 9024SOL    HW228847  10.181   8.694   0.154
 9025SOL     OW28848   7.104   7.124   3.808
 9025SOL    HW128849   7.051   7.181   3.752
 9025SOL    HW228850   7.162   7.078   3.748
 9026SOL     OW28851  11.129   2.829   2.505
 9026SOL    HW128852  11.138   2.737   2.478
 9026SOL    HW228853  11.057   2.828   2.569
 9027SOL     OW28854  11.864   6.135   2.502
 9027SOL    HW128855  11.934   6.150   2.566
 9027SOL    HW228856  11.885   6.193   2.429
 9028SOL     OW28857  12.640   1.254   9.450
 9028SOL    HW128858  12.590   1.326   9.487
 9028SOL    HW228859  12.614   1.251   9.358
 9029SOL     OW28860   5.716   1.655   0.816
 9029SOL    HW128861   5.645   1.657   0.881
 9029SOL    HW228862   5.676   1.612   0.739
 9030SOL     OW28863   0.454   8.792   1.008
 9030SOL    HW128864   0.469   8.710   1.056
 9030SOL    HW228865   0.539   8.837   1.011
 9031SOL     OW28866  10.604   0.113   4.691
 9031SOL    HW128867  10.557   0.088   4.612
 9031SOL    HW228868  10.576   0.203   4.708
 9032SOL     OW28869   3.108  11.442   3.546
 9032SOL    HW128870   3.055  11.459   3.467
 9032SOL    HW228871   3.064  11.493   3.614
 9033SOL     OW28872  11.483   6.677   0.986
 9033SOL    HW128873  11.529   6.761   0.984
 9033SOL    HW228874  11.541   6.618   1.034
 9034SOL     OW28875   8.436   6.365   9.952
 9034SOL    HW128876   8.382   6.444   9.945
 9034SOL    HW228877   8.377   6.300   9.991
 9035SOL     OW28878   2.693  12.111   8.405
 9035SOL    HW128879   2.737  12.031   8.433
 9035SOL    HW228880   2.600  12.088   8.403
 9036SOL     OW28881  11.241   5.435   2.134
 9036SOL    HW128882  11.329   5.464   2.160
 9036SOL    HW228883  11.197   5.515   2.106
 9037SOL     OW28884   3.563  11.072   6.302
 9037SOL    HW128885   3.562  11.001   6.238
 9037SOL    HW228886   3.652  11.106   6.300
 9038SOL     OW28887   2.359   4.918   4.748
 9038SOL    HW128888   2.410   4.841   4.771
 9038SOL    HW228889   2.303   4.889   4.676
 9039SOL     OW28890   8.060   3.034   6.047
 9039SOL    HW128891   8.012   3.082   6.114
 9039SOL    HW228892   8.046   2.942   6.068
 9040SOL     OW28893  11.394   9.745   7.986
 9040SOL    HW128894  11.352   9.675   7.936
 9040SOL    HW228895  11.446   9.699   8.052
 9041SOL     OW28896   7.690   9.874   5.710
 9041SOL    HW128897   7.717   9.924   5.633
 9041SOL    HW228898   7.757   9.892   5.776
 9042SOL     OW28899   5.402  13.021  11.970
 9042SOL    HW128900   5.365  13.030  12.058
 9042SOL    HW228901   5.471  12.957  11.979
 9043SOL     OW28902   7.966  14.537  10.913
 9043SOL    HW128903   7.916  14.519  10.833
 9043SOL    HW228904   7.909  14.510  10.984
 9044SOL     OW28905  14.527   2.216   9.334
 9044SOL    HW128906  14.582   2.142   9.307
 9044SOL    HW228907  14.545   2.284   9.270
 9045SOL     OW28908   6.682   5.241   8.951
 9045SOL    HW128909   6.692   5.166   8.893
 9045SOL    HW228910   6.591   5.267   8.941
 9046SOL     OW28911   7.383   8.979  11.467
 9046SOL    HW128912   7.470   8.967  11.505
 9046SOL    HW228913   7.400   9.014  11.379
 9047SOL     OW28914  13.181   3.236  14.054
 9047SOL    HW128915  13.222   3.273  13.976
 9047SOL    HW228916  13.248   3.245  14.122
 9048SOL     OW28917  14.025   5.900  10.665
 9048SOL    HW128918  13.977   5.835  10.614
 9048SOL    HW228919  14.117   5.880  10.648
 9049SOL     OW28920   8.272  11.683  10.784
 9049SOL    HW128921   8.351  11.736  10.782
 9049SOL    HW228922   8.200  11.746  10.778
 9050SOL     OW28923  12.923   9.132   7.838
 9050SOL    HW128924  12.952   9.187   7.911
 9050SOL    HW228925  12.995   9.137   7.775
 9051SOL     OW28926   0.347  12.036   9.595
 9051SOL    HW128927   0.376  12.025   9.685
 9051SOL    HW228928   0.254  12.057   9.601
 9052SOL     OW28929  12.874   0.178  12.207
 9052SOL    HW128930  12.964   0.158  12.232
 9052SOL    HW228931  12.874   0.173  12.111
 9053SOL     OW28932  13.132  14.854   8.209
 9053SOL    HW128933  13.052  14.805   8.193
 9053SOL    HW228934  13.102   0.063   8.235
 9054SOL     OW28935   2.544   4.623  10.156
 9054SOL    HW128936   2.591   4.545  10.186
 9054SOL    HW228937   2.590   4.696  10.196
 9055SOL     OW28938  10.999   7.965   2.446
 9055SOL    HW128939  11.032   8.055   2.449
 9055SOL    HW228940  11.075   7.912   2.423
 9056SOL     OW28941  10.046  11.667   0.289
 9056SOL    HW128942  10.108  11.599   0.313
 9056SOL    HW228943  10.041  11.723   0.366
 9057SOL     OW28944   0.227   6.887   1.936
 9057SOL    HW128945   0.203   6.979   1.950
 9057SOL    HW228946   0.199   6.868   1.847
 9058SOL     OW28947  12.449   4.866  10.602
 9058SOL    HW128948  12.401   4.805  10.544
 9058SOL    HW228949  12.446   4.824  10.688
 9059SOL     OW28950   1.028   1.885  12.167
 9059SOL    HW128951   1.040   1.980  12.163
 9059SOL    HW228952   1.108   1.849  12.131
 9060SOL     OW28953   8.748   2.005  10.217
 9060SOL    HW128954   8.712   2.051  10.292
 9060SOL    HW228955   8.778   1.921  10.253
 9061SOL     OW28956   1.085  11.277   3.489
 9061SOL    HW128957   1.069  11.354   3.434
 9061SOL    HW228958   1.173  11.248   3.464
 9062SOL     OW28959  14.450  12.241  12.239
 9062SOL    HW128960  14.527  12.269  12.289
 9062SOL    HW228961  14.477  12.158  12.198
 9063SOL     OW28962   6.423   4.895  14.180
 9063SOL    HW128963   6.358   4.874  14.113
 9063SOL    HW228964   6.494   4.939  14.132
 9064SOL     OW28965   6.059  12.153  13.457
 9064SOL    HW128966   6.061  12.058  13.471
 9064SOL    HW228967   5.977  12.181  13.498
 9065SOL     OW28968   7.187   8.800   7.379
 9065SOL    HW128969   7.270   8.836   7.411
 9065SOL    HW228970   7.165   8.855   7.304
 9066SOL     OW28971   5.020   4.200  11.089
 9066SOL    HW128972   5.063   4.186  11.005
 9066SOL    HW228973   4.951   4.134  11.092
 9067SOL     OW28974   2.316   8.400   4.964
 9067SOL    HW128975   2.347   8.475   5.015
 9067SOL    HW228976   2.260   8.352   5.025
 9068SOL     OW28977   9.137   5.970  11.444
 9068SOL    HW128978   9.213   6.006  11.489
 9068SOL    HW228979   9.070   6.039  11.452
 9069SOL     OW28980  12.088   5.892   6.443
 9069SOL    HW128981  12.114   5.859   6.357
 9069SOL    HW228982  12.056   5.980   6.426
 9070SOL     OW28983  13.065   7.535   8.210
 9070SOL    HW128984  13.145   7.487   8.233
 9070SOL    HW228985  13.061   7.606   8.273
 9071SOL     OW28986  13.087  10.010  14.568
 9071SOL    HW128987  13.133  10.084  14.609
 9071SOL    HW228988  13.118   9.933  14.617
 9072SOL     OW28989  10.090   4.621   4.001
 9072SOL    HW128990  10.059   4.547   3.950
 9072SOL    HW228991  10.040   4.617   4.083
 9073SOL     OW28992   2.081  11.988   3.771
 9073SOL    HW128993   2.030  12.054   3.722
 9073SOL    HW228994   2.037  11.983   3.856
 9074SOL     OW28995   4.153  12.763   8.919
 9074SOL    HW128996   4.186  12.851   8.935
 9074SOL    HW228997   4.110  12.769   8.833
 9075SOL     OW28998  12.695   8.503  11.006
 9075SOL    HW128999  12.715   8.517  10.913
 9075SOL    HW229000  12.613   8.549  11.020
 9076SOL     OW29001   1.145   7.642   3.123
 9076SOL    HW129002   1.141   7.613   3.032
 9076SOL    HW229003   1.087   7.582   3.170
 9077SOL     OW29004   2.182   0.967   3.597
 9077SOL    HW129005   2.171   0.896   3.533
 9077SOL    HW229006   2.267   0.948   3.638
 9078SOL     OW29007   5.263   4.903   4.055
 9078SOL    HW129008   5.324   4.956   4.004
 9078SOL    HW229009   5.177   4.921   4.016
 9079SOL     OW29010  12.346  13.073   1.490
 9079SOL    HW129011  12.405  12.998   1.499
 9079SOL    HW229012  12.387  13.127   1.423
 9080SOL     OW29013   8.454  13.090  10.773
 9080SOL    HW129014   8.366  13.102  10.809
 9080SOL    HW229015   8.483  13.178  10.748
 9081SOL     OW29016   7.667  13.841   7.641
 9081SOL    HW129017   7.749  13.870   7.680
 9081SOL    HW229018   7.599  13.883   7.693
 9082SOL     OW29019   0.974  10.604   3.044
 9082SOL    HW129020   1.056  10.631   3.084
 9082SOL    HW229021   0.909  10.613   3.113
 9083SOL     OW29022  13.079   8.473   3.039
 9083SOL    HW129023  13.084   8.392   2.988
 9083SOL    HW229024  13.168   8.490   3.067
 9084SOL     OW29025  12.016   6.842   6.425
 9084SOL    HW129026  12.072   6.879   6.493
 9084SOL    HW229027  11.928   6.847   6.461
 9085SOL     OW29028  13.636  14.392  10.892
 9085SOL    HW129029  13.627  14.321  10.828
 9085SOL    HW229030  13.727  14.422  10.882
 9086SOL     OW29031   9.084  12.868  14.112
 9086SOL    HW129032   9.091  12.871  14.208
 9086SOL    HW229033   9.026  12.794  14.095
 9087SOL     OW29034  13.911   2.392  12.014
 9087SOL    HW129035  13.951   2.449  12.080
 9087SOL    HW229036  13.819   2.418  12.013
 9088SOL     OW29037  11.455   6.200   3.883
 9088SOL    HW129038  11.375   6.164   3.921
 9088SOL    HW229039  11.454   6.171   3.792
 9089SOL     OW29040  13.133   8.490   9.318
 9089SOL    HW129041  13.049   8.459   9.350
 9089SOL    HW229042  13.114   8.576   9.280
 9090SOL     OW29043   2.473   3.644   7.634
 9090SOL    HW129044   2.540   3.580   7.611
 9090SOL    HW229045   2.416   3.649   7.557
 9091SOL     OW29046   0.052   9.966   2.750
 9091SOL    HW129047   0.031  10.013   2.669
 9091SOL    HW229048   0.071  10.035   2.814
 9092SOL     OW29049   7.827   9.222  10.321
 9092SOL    HW129050   7.914   9.250  10.295
 9092SOL    HW229051   7.802   9.158  10.255
 9093SOL     OW29052  12.374   7.722  14.382
 9093SOL    HW129053  12.350   7.794  14.440
 9093SOL    HW229054  12.412   7.764  14.305
 9094SOL     OW29055  11.244  14.097   8.028
 9094SOL    HW129056  11.220  14.189   8.042
 9094SOL    HW229057  11.181  14.066   7.963
 9095SOL     OW29058   1.500   1.228   3.061
 9095SOL    HW129059   1.490   1.160   2.995
 9095SOL    HW229060   1.410   1.255   3.081
 9096SOL     OW29061  11.190  12.486   8.260
 9096SOL    HW129062  11.199  12.496   8.165
 9096SOL    HW229063  11.113  12.538   8.283
 9097SOL     OW29064   1.505   1.807   5.252
 9097SOL    HW129065   1.525   1.807   5.345
 9097SOL    HW229066   1.590   1.818   5.209
 9098SOL     OW29067  13.236   6.806  12.871
 9098SOL    HW129068  13.308   6.810  12.934
 9098SOL    HW229069  13.280   6.804  12.786
 9099SOL     OW29070  10.290   9.209   7.614
 9099SOL    HW129071  10.316   9.118   7.601
 9099SOL    HW229072  10.205   9.203   7.659
 9100SOL     OW29073  11.401   6.117   3.610
 9100SOL    HW129074  11.402   6.199   3.560
 9100SOL    HW229075  11.313   6.112   3.646
 9101SOL     OW29076   1.705   5.901   8.195
 9101SOL    HW129077   1.792   5.922   8.229
 9101SOL    HW229078   1.684   5.817   8.235
 9102SOL     OW29079  13.789   1.884  14.252
 9102SOL    HW129080  13.700   1.884  14.216
 9102SOL    HW229081  13.821   1.973  14.234
 9103SOL     OW29082   0.185   1.722   0.466
 9103SOL    HW129083   0.114   1.782   0.444
 9103SOL    HW229084   0.147   1.635   0.457
 9104SOL     OW29085  10.661  12.841   1.680
 9104SOL    HW129086  10.590  12.778   1.670
 9104SOL    HW229087  10.643  12.908   1.613
 9105SOL     OW29088   8.817  13.482   3.899
 9105SOL    HW129089   8.756  13.451   3.832
 9105SOL    HW229090   8.826  13.408   3.959
 9106SOL     OW29091   5.314   2.907   6.159
 9106SOL    HW129092   5.390   2.873   6.112
 9106SOL    HW229093   5.266   2.828   6.186
 9107SOL     OW29094   2.659   6.788   6.693
 9107SOL    HW129095   2.610   6.755   6.767
 9107SOL    HW229096   2.666   6.714   6.633
 9108SOL     OW29097   7.874   9.876  13.930
 9108SOL    HW129098   7.829   9.834  13.857
 9108SOL    HW229099   7.966   9.850  13.920
 9109SOL     OW29100   6.222  10.200  14.805
 9109SOL    HW129101   6.219  10.295  14.794
 9109SOL    HW229102   6.194  10.165  14.721
 9110SOL     OW29103   8.600  10.076  11.350
 9110SOL    HW129104   8.597  10.024  11.431
 9110SOL    HW229105   8.659  10.148  11.370
 9111SOL     OW29106   7.144  11.330  13.443
 9111SOL    HW129107   7.108  11.245  13.420
 9111SOL    HW229108   7.203  11.312  13.517
 9112SOL     OW29109   4.485   2.521   8.134
 9112SOL    HW129110   4.413   2.585   8.132
 9112SOL    HW229111   4.463   2.463   8.206
 9113SOL     OW29112  13.777   5.774   7.674
 9113SOL    HW129113  13.863   5.730   7.672
 9113SOL    HW229114  13.723   5.722   7.614
 9114SOL     OW29115  11.586   0.359   0.575
 9114SOL    HW129116  11.562   0.451   0.580
 9114SOL    HW229117  11.570   0.324   0.663
 9115SOL     OW29118   7.984   3.169   6.293
 9115SOL    HW129119   7.937   3.219   6.226
 9115SOL    HW229120   7.934   3.184   6.373
 9116SOL     OW29121   7.784  14.325   7.990
 9116SOL    HW129122   7.820  14.240   7.968
 9116SOL    HW229123   7.694  14.323   7.956
 9117SOL     OW29124   3.641   4.090  13.226
 9117SOL    HW129125   3.588   4.163  13.193
 9117SOL    HW229126   3.729   4.108  13.192
 9118SOL     OW29127   7.749   7.299   7.445
 9118SOL    HW129128   7.830   7.250   7.461
 9118SOL    HW229129   7.701   7.295   7.528
 9119SOL     OW29130  10.214  12.795   2.286
 9119SOL    HW129131  10.165  12.875   2.262
 9119SOL    HW229132  10.293  12.799   2.233
 9120SOL     OW29133  11.498   3.132   7.473
 9120SOL    HW129134  11.585   3.161   7.497
 9120SOL    HW229135  11.507   3.099   7.384
 9121SOL     OW29136  13.254   1.182   6.503
 9121SOL    HW129137  13.186   1.247   6.484
 9121SOL    HW229138  13.309   1.181   6.425
 9122SOL     OW29139  10.174   2.117   5.286
 9122SOL    HW129140  10.235   2.061   5.335
 9122SOL    HW229141  10.229   2.158   5.219
 9123SOL     OW29142   3.652  14.026   8.511
 9123SOL    HW129143   3.692  14.064   8.433
 9123SOL    HW229144   3.611  13.944   8.480
 9124SOL     OW29145   9.950  11.794   0.816
 9124SOL    HW129146   9.893  11.726   0.779
 9124SOL    HW229147   9.928  11.794   0.910
 9125SOL     OW29148   5.441   8.176   2.230
 9125SOL    HW129149   5.389   8.102   2.261
 9125SOL    HW229150   5.522   8.171   2.282
 9126SOL     OW29151   7.220  12.106   4.564
 9126SOL    HW129152   7.128  12.101   4.590
 9126SOL    HW229153   7.219  12.090   4.469
 9127SOL     OW29154   3.142  14.426  14.203
 9127SOL    HW129155   3.227  14.389  14.227
 9127SOL    HW229156   3.108  14.366  14.137
 9128SOL     OW29157   9.201   3.210   7.798
 9128SOL    HW129158   9.266   3.202   7.868
 9128SOL    HW229159   9.128   3.257   7.838
 9129SOL     OW29160  12.048   4.994   8.989
 9129SOL    HW129161  12.126   4.990   9.044
 9129SOL    HW229162  12.060   5.074   8.937
 9130SOL     OW29163   5.588   3.645   7.179
 9130SOL    HW129164   5.588   3.602   7.265
 9130SOL    HW229165   5.502   3.687   7.174
 9131SOL     OW29166  12.461   8.825   5.479
 9131SOL    HW129167  12.539   8.841   5.532
 9131SOL    HW229168  12.397   8.888   5.512
 9132SOL     OW29169   2.376  10.437   7.964
 9132SOL    HW129170   2.374  10.342   7.953
 9132SOL    HW229171   2.306  10.469   7.908
 9133SOL     OW29172   1.198   1.351   7.239
 9133SOL    HW129173   1.113   1.357   7.197
 9133SOL    HW229174   1.239   1.274   7.200
 9134SOL     OW29175   2.219   7.991   1.959
 9134SOL    HW129176   2.224   7.896   1.962
 9134SOL    HW229177   2.205   8.018   2.049
 9135SOL     OW29178   7.706   1.110   7.448
 9135SOL    HW129179   7.685   1.190   7.400
 9135SOL    HW229180   7.624   1.085   7.489
 9136SOL     OW29181   8.815  14.399   7.308
 9136SOL    HW129182   8.745  14.416   7.244
 9136SOL    HW229183   8.775  14.423   7.392
 9137SOL     OW29184  14.002   0.068  13.533
 9137SOL    HW129185  13.972   0.156  13.513
 9137SOL    HW229186  13.973   0.015  13.459
 9138SOL     OW29187   1.358   5.375  11.977
 9138SOL    HW129188   1.413   5.366  12.055
 9138SOL    HW229189   1.414   5.419  11.913
 9139SOL     OW29190   9.297  10.794   1.445
 9139SOL    HW129191   9.360  10.863   1.426
 9139SOL    HW229192   9.318  10.724   1.383
 9140SOL     OW29193   1.105   9.828   4.841
 9140SOL    HW129194   1.131   9.891   4.907
 9140SOL    HW229195   1.016   9.802   4.867
 9141SOL     OW29196   4.085   7.766   0.505
 9141SOL    HW129197   3.997   7.729   0.493
 9141SOL    HW229198   4.101   7.816   0.425
 9142SOL     OW29199  12.836   3.896   2.669
 9142SOL    HW129200  12.821   3.930   2.758
 9142SOL    HW229201  12.760   3.924   2.619
 9143SOL     OW29202  11.863   3.381   1.605
 9143SOL    HW129203  11.860   3.305   1.663
 9143SOL    HW229204  11.951   3.380   1.568
 9144SOL     OW29205   3.432   5.991  13.935
 9144SOL    HW129206   3.399   6.081  13.927
 9144SOL    HW229207   3.484   5.977  13.856
 9145SOL     OW29208   1.630  10.228   8.074
 9145SOL    HW129209   1.616  10.135   8.057
 9145SOL    HW229210   1.545  10.268   8.059
 9146SOL     OW29211   2.711   2.007   4.258
 9146SOL    HW129212   2.767   2.000   4.336
 9146SOL    HW229213   2.624   2.026   4.293
 9147SOL     OW29214  13.009  13.174   0.169
 9147SOL    HW129215  13.044  13.157   0.256
 9147SOL    HW229216  13.062  13.247   0.135
 9148SOL     OW29217  13.999   6.903   5.070
 9148SOL    HW129218  13.981   6.812   5.096
 9148SOL    HW229219  14.083   6.924   5.112
 9149SOL     OW29220   9.423   6.447   2.964
 9149SOL    HW129221   9.393   6.449   3.055
 9149SOL    HW229222   9.430   6.539   2.939
 9150SOL     OW29223  11.313   7.656   9.182
 9150SOL    HW129224  11.270   7.742   9.175
 9150SOL    HW229225  11.246   7.600   9.222
 9151SOL     OW29226   3.107   8.901   6.756
 9151SOL    HW129227   3.147   8.966   6.814
 9151SOL    HW229228   3.178   8.875   6.697
 9152SOL     OW29229   8.869   1.831   5.023
 9152SOL    HW129230   8.931   1.857   4.954
 9152SOL    HW229231   8.785   1.864   4.992
 9153SOL     OW29232   9.739  13.745  12.027
 9153SOL    HW129233   9.703  13.834  12.036
 9153SOL    HW229234   9.814  13.743  12.086
 9154SOL     OW29235  14.545  12.729  10.693
 9154SOL    HW129236  14.471  12.673  10.718
 9154SOL    HW229237  14.617  12.668  10.677
 9155SOL     OW29238   4.605   1.480   8.288
 9155SOL    HW129239   4.672   1.463   8.223
 9155SOL    HW229240   4.531   1.425   8.263
 9156SOL     OW29241  14.454   5.639   0.558
 9156SOL    HW129242  14.403   5.704   0.509
 9156SOL    HW229243  14.520   5.691   0.605
 9157SOL     OW29244   8.860   7.203   2.521
 9157SOL    HW129245   8.765   7.191   2.510
 9157SOL    HW229246   8.897   7.181   2.436
 9158SOL     OW29247   3.209  14.480   9.028
 9158SOL    HW129248   3.203  14.502   9.121
 9158SOL    HW229249   3.165  14.552   8.983
 9159SOL     OW29250  10.031   7.413  12.518
 9159SOL    HW129251  10.049   7.499  12.479
 9159SOL    HW229252  10.118   7.375  12.532
 9160SOL     OW29253  14.112   7.107   3.181
 9160SOL    HW129254  14.029   7.075   3.147
 9160SOL    HW229255  14.129   7.188   3.133
 9161SOL     OW29256   0.495  11.197   9.075
 9161SOL    HW129257   0.531  11.285   9.067
 9161SOL    HW229258   0.407  11.204   9.038
 9162SOL     OW29259  11.702   8.137   9.731
 9162SOL    HW129260  11.670   8.073   9.795
 9162SOL    HW229261  11.625   8.189   9.708
 9163SOL     OW29262  10.439   6.358  12.772
 9163SOL    HW129263  10.486   6.387  12.851
 9163SOL    HW229264  10.434   6.437  12.717
 9164SOL     OW29265   2.003  12.296   7.276
 9164SOL    HW129266   2.081  12.284   7.221
 9164SOL    HW229267   1.938  12.236   7.239
 9165SOL     OW29268  14.583  13.196   3.499
 9165SOL    HW129269  14.511  13.197   3.436
 9165SOL    HW229270  14.540  13.200   3.585
 9166SOL     OW29271  13.077   4.988  10.074
 9166SOL    HW129272  13.011   4.922  10.054
 9166SOL    HW229273  13.028   5.070  10.081
 9167SOL     OW29274   8.079   9.840   7.504
 9167SOL    HW129275   8.121   9.881   7.429
 9167SOL    HW229276   8.096   9.747   7.493
 9168SOL     OW29277  12.467   7.706   2.015
 9168SOL    HW129278  12.531   7.704   2.086
 9168SOL    HW229279  12.420   7.623   2.023
 9169SOL     OW29280  12.552  13.915   6.978
 9169SOL    HW129281  12.621  13.946   6.919
 9169SOL    HW229282  12.473  13.962   6.950
 9170SOL     OW29283   2.292   1.320  10.876
 9170SOL    HW129284   2.339   1.388  10.827
 9170SOL    HW229285   2.294   1.244  10.818
 9171SOL     OW29286  13.469  12.933  12.830
 9171SOL    HW129287  13.430  12.876  12.897
 9171SOL    HW229288  13.505  13.006  12.879
 9172SOL     OW29289   6.767   6.071   3.206
 9172SOL    HW129290   6.807   6.048   3.290
 9172SOL    HW229291   6.761   5.988   3.159
 9173SOL     OW29292   4.900   8.830  12.601
 9173SOL    HW129293   4.831   8.874  12.551
 9173SOL    HW229294   4.942   8.900  12.651
 9174SOL     OW29295  11.949  11.229   9.011
 9174SOL    HW129296  11.990  11.313   8.992
 9174SOL    HW229297  11.866  11.251   9.053
 9175SOL     OW29298   7.763   3.659  13.497
 9175SOL    HW129299   7.762   3.611  13.580
 9175SOL    HW229300   7.731   3.746  13.519
 9176SOL     OW29301  11.767  10.181   6.381
 9176SOL    HW129302  11.796  10.216   6.465
 9176SOL    HW229303  11.672  10.189   6.383
 9177SOL     OW29304   3.680  12.817   8.484
 9177SOL    HW129305   3.660  12.724   8.496
 9177SOL    HW229306   3.623  12.845   8.411
 9178SOL     OW29307   9.186  13.011   4.086
 9178SOL    HW129308   9.233  12.989   4.167
 9178SOL    HW229309   9.217  12.947   4.022
 9179SOL     OW29310  13.117  12.691   3.766
 9179SOL    HW129311  13.171  12.694   3.845
 9179SOL    HW229312  13.179  12.698   3.693
 9180SOL     OW29313   2.265   5.935   3.354
 9180SOL    HW129314   2.244   5.955   3.445
 9180SOL    HW229315   2.268   5.839   3.351
 9181SOL     OW29316   5.498   9.869   8.204
 9181SOL    HW129317   5.433   9.939   8.217
 9181SOL    HW229318   5.581   9.909   8.227
 9182SOL     OW29319  13.196  10.167   7.473
 9182SOL    HW129320  13.284  10.195   7.500
 9182SOL    HW229321  13.146  10.162   7.554
 9183SOL     OW29322   0.875   0.453  14.427
 9183SOL    HW129323   0.944   0.515  14.404
 9183SOL    HW229324   0.861   0.402  14.347
 9184SOL     OW29325   6.515   6.633  13.134
 9184SOL    HW129326   6.568   6.708  13.162
 9184SOL    HW229327   6.563   6.597  13.059
 9185SOL     OW29328   7.915   8.292  10.270
 9185SOL    HW129329   7.951   8.282  10.182
 9185SOL    HW229330   7.989   8.271  10.328
 9186SOL     OW29331  13.255  10.220   4.789
 9186SOL    HW129332  13.224  10.266   4.711
 9186SOL    HW229333  13.255  10.287   4.858
 9187SOL     OW29334   4.846  14.432  11.309
 9187SOL    HW129335   4.903  14.381  11.367
 9187SOL    HW229336   4.831  14.514  11.357
 9188SOL     OW29337   7.369   3.583  14.271
 9188SOL    HW129338   7.406   3.514  14.217
 9188SOL    HW229339   7.331   3.537  14.346
 9189SOL     OW29340  13.751  11.488  11.729
 9189SOL    HW129341  13.771  11.577  11.699
 9189SOL    HW229342  13.655  11.484  11.728
 9190SOL     OW29343   0.206   8.379  12.579
 9190SOL    HW129344   0.146   8.411  12.646
 9190SOL    HW229345   0.152   8.376  12.499
 9191SOL     OW29346   2.868   2.924   4.293
 9191SOL    HW129347   2.855   2.967   4.378
 9191SOL    HW229348   2.806   2.967   4.235
 9192SOL     OW29349  11.104  10.044   8.558
 9192SOL    HW129350  11.019  10.031   8.601
 9192SOL    HW229351  11.097   9.998   8.475
 9193SOL     OW29352  10.585   1.025   4.954
 9193SOL    HW129353  10.637   0.991   5.026
 9193SOL    HW229354  10.508   0.968   4.950
 9194SOL     OW29355   6.196  11.353   8.126
 9194SOL    HW129356   6.206  11.354   8.221
 9194SOL    HW229357   6.217  11.263   8.100
 9195SOL     OW29358  10.466   3.252  12.870
 9195SOL    HW129359  10.548   3.237  12.917
 9195SOL    HW229360  10.464   3.346  12.855
 9196SOL     OW29361   5.377   3.180   6.855
 9196SOL    HW129362   5.458   3.163   6.806
 9196SOL    HW229363   5.403   3.242   6.923
 9197SOL     OW29364   2.289   6.159  13.203
 9197SOL    HW129365   2.225   6.127  13.267
 9197SOL    HW229366   2.243   6.227  13.154
 9198SOL     OW29367  14.006   8.110  10.011
 9198SOL    HW129368  13.986   8.195   9.972
 9198SOL    HW229369  13.935   8.095  10.073
 9199SOL     OW29370   3.848   3.837  10.909
 9199SOL    HW129371   3.925   3.795  10.871
 9199SOL    HW229372   3.878   3.925  10.933
 9200SOL     OW29373  10.222   0.933   1.121
 9200SOL    HW129374  10.218   0.848   1.077
 9200SOL    HW229375  10.132   0.966   1.117
 9201SOL     OW29376  10.021  11.490  10.822
 9201SOL    HW129377   9.959  11.439  10.770
 9201SOL    HW229378  10.086  11.425  10.852
 9202SOL     OW29379   1.328   1.225   8.946
 9202SOL    HW129380   1.274   1.251   9.021
 9202SOL    HW229381   1.286   1.145   8.913
 9203SOL     OW29382   2.712   9.981  11.789
 9203SOL    HW129383   2.775  10.047  11.816
 9203SOL    HW229384   2.627  10.025  11.792
 9204SOL     OW29385   8.146  11.842   4.126
 9204SOL    HW129386   8.113  11.879   4.044
 9204SOL    HW229387   8.078  11.862   4.190
 9205SOL     OW29388   9.963  11.614  10.474
 9205SOL    HW129389  10.011  11.677  10.528
 9205SOL    HW229390   9.894  11.581  10.532
 9206SOL     OW29391   4.481   4.775   2.890
 9206SOL    HW129392   4.526   4.769   2.974
 9206SOL    HW229393   4.536   4.835   2.838
 9207SOL     OW29394   6.438   2.760   7.049
 9207SOL    HW129395   6.422   2.666   7.044
 9207SOL    HW229396   6.500   2.777   6.978
 9208SOL     OW29397  11.199  13.843   7.593
 9208SOL    HW129398  11.186  13.833   7.687
 9208SOL    HW229399  11.293  13.828   7.579
 9209SOL     OW29400  14.306   3.963   5.004
 9209SOL    HW129401  14.262   3.972   5.088
 9209SOL    HW229402  14.288   4.045   4.958
 9210SOL     OW29403   2.001  11.727   3.950
 9210SOL    HW129404   1.970  11.638   3.965
 9210SOL    HW229405   2.082  11.717   3.901
 9211SOL     OW29406   2.137  11.057  11.662
 9211SOL    HW129407   2.077  11.013  11.722
 9211SOL    HW229408   2.152  10.992  11.592
 9212SOL     OW29409   5.110   9.511   7.190
 9212SOL    HW129410   5.204   9.497   7.193
 9212SOL    HW229411   5.085   9.525   7.281
 9213SOL     OW29412  13.079  13.412   0.565
 9213SOL    HW129413  13.045  13.414   0.655
 9213SOL    HW229414  13.079  13.504   0.537
 9214SOL     OW29415  14.682  10.353  13.928
 9214SOL    HW129416  14.766  10.344  13.883
 9214SOL    HW229417  14.689  10.294  14.003
 9215SOL     OW29418   7.964   5.850   5.021
 9215SOL    HW129419   7.944   5.757   5.033
 9215SOL    HW229420   8.059   5.855   5.026
 9216SOL     OW29421  10.903  12.427  11.199
 9216SOL    HW129422  10.905  12.344  11.152
 9216SOL    HW229423  10.993  12.460  11.192
 9217SOL     OW29424   4.575   6.660  12.159
 9217SOL    HW129425   4.643   6.699  12.214
 9217SOL    HW229426   4.514   6.621  12.222
 9218SOL     OW29427   7.845   3.148  10.595
 9218SOL    HW129428   7.830   3.094  10.517
 9218SOL    HW229429   7.769   3.206  10.599
 9219SOL     OW29430  14.699   1.002   7.516
 9219SOL    HW129431  14.670   0.939   7.582
 9219SOL    HW229432  14.706   0.950   7.435
 9220SOL     OW29433  12.420  12.900   6.623
 9220SOL    HW129434  12.384  12.912   6.535
 9220SOL    HW229435  12.353  12.935   6.682
 9221SOL     OW29436   2.937   8.828   4.789
 9221SOL    HW129437   3.025   8.790   4.799
 9221SOL    HW229438   2.882   8.754   4.764
 9222SOL     OW29439   3.879  11.114  10.253
 9222SOL    HW129440   3.800  11.105  10.199
 9222SOL    HW229441   3.850  11.090  10.342
 9223SOL     OW29442   0.995   6.390   1.153
 9223SOL    HW129443   1.031   6.479   1.152
 9223SOL    HW229444   1.039   6.345   1.081
 9224SOL     OW29445   0.607   1.554   1.517
 9224SOL    HW129446   0.625   1.538   1.610
 9224SOL    HW229447   0.613   1.649   1.508
 9225SOL     OW29448   7.714   0.686  10.442
 9225SOL    HW129449   7.756   0.682  10.356
 9225SOL    HW229450   7.718   0.778  10.466
 9226SOL     OW29451   8.202  11.654   6.628
 9226SOL    HW129452   8.278  11.708   6.649
 9226SOL    HW229453   8.142  11.713   6.581
 9227SOL     OW29454  10.249   7.230   4.301
 9227SOL    HW129455  10.177   7.271   4.347
 9227SOL    HW229456  10.253   7.275   4.217
 9228SOL     OW29457   8.973  12.606   5.177
 9228SOL    HW129458   8.894  12.577   5.132
 9228SOL    HW229459   9.025  12.526   5.188
 9229SOL     OW29460   4.848   6.260   3.968
 9229SOL    HW129461   4.757   6.289   3.968
 9229SOL    HW229462   4.861   6.223   3.881
 9230SOL     OW29463   5.205   4.463   0.734
 9230SOL    HW129464   5.145   4.394   0.762
 9230SOL    HW229465   5.239   4.434   0.650
 9231SOL     OW29466   1.260   2.477   7.543
 9231SOL    HW129467   1.279   2.548   7.482
 9231SOL    HW229468   1.311   2.403   7.511
 9232SOL     OW29469  11.276  14.548   3.833
 9232SOL    HW129470  11.195  14.524   3.786
 9232SOL    HW229471  11.337  14.477   3.813
 9233SOL     OW29472   4.426   0.585   1.176
 9233SOL    HW129473   4.404   0.634   1.256
 9233SOL    HW229474   4.497   0.636   1.136
 9234SOL     OW29475   7.666  11.037  13.824
 9234SOL    HW129476   7.759  11.015  13.816
 9234SOL    HW229477   7.654  11.112  13.766
 9235SOL     OW29478   8.254  10.658  12.936
 9235SOL    HW129479   8.181  10.706  12.897
 9235SOL    HW229480   8.318  10.650  12.865
 9236SOL     OW29481   7.602   8.605  12.392
 9236SOL    HW129482   7.594   8.699  12.377
 9236SOL    HW229483   7.670   8.577  12.330
 9237SOL     OW29484  10.116  11.344   3.697
 9237SOL    HW129485  10.154  11.259   3.721
 9237SOL    HW229486  10.138  11.355   3.605
 9238SOL     OW29487   8.908   0.377  14.669
 9238SOL    HW129488   8.963   0.453  14.687
 9238SOL    HW229489   8.829   0.414  14.629
 9239SOL     OW29490   7.425  11.228   7.500
 9239SOL    HW129491   7.380  11.247   7.583
 9239SOL    HW229492   7.511  11.268   7.510
 9240SOL     OW29493   2.830   7.456  12.127
 9240SOL    HW129494   2.880   7.375  12.135
 9240SOL    HW229495   2.823   7.471  12.033
 9241SOL     OW29496  13.148   0.881  10.042
 9241SOL    HW129497  13.163   0.787  10.030
 9241SOL    HW229498  13.194   0.902  10.123
 9242SOL     OW29499   6.397   7.284   7.660
 9242SOL    HW129500   6.362   7.336   7.588
 9242SOL    HW229501   6.402   7.195   7.625
 9243SOL     OW29502   8.334   5.799   3.651
 9243SOL    HW129503   8.352   5.771   3.741
 9243SOL    HW229504   8.398   5.751   3.598
 9244SOL     OW29505  10.180   1.060  11.403
 9244SOL    HW129506  10.208   1.129  11.462
 9244SOL    HW229507  10.240   1.065  11.329
 9245SOL     OW29508   4.073   4.710  12.784
 9245SOL    HW129509   4.129   4.643  12.821
 9245SOL    HW229510   4.133   4.769  12.738
 9246SOL     OW29511   7.042  13.499   5.509
 9246SOL    HW129512   7.132  13.531   5.519
 9246SOL    HW229513   6.998  13.526   5.589
 9247SOL     OW29514   4.672  13.566  13.693
 9247SOL    HW129515   4.733  13.635  13.665
 9247SOL    HW229516   4.722  13.485  13.686
 9248SOL     OW29517  13.486  13.620   6.306
 9248SOL    HW129518  13.572  13.614   6.265
 9248SOL    HW229519  13.502  13.596   6.398
 9249SOL     OW29520  12.222  14.536  13.512
 9249SOL    HW129521  12.173  14.490  13.581
 9249SOL    HW229522  12.265  14.466  13.463
 9250SOL     OW29523  14.831   1.825  14.704
 9250SOL    HW129524  14.806   1.740  14.741
 9250SOL    HW229525  14.808   1.889  14.771
 9251SOL     OW29526  14.162  13.855   6.100
 9251SOL    HW129527  14.194  13.840   6.011
 9251SOL    HW229528  14.232  13.906   6.141
 9252SOL     OW29529   0.117   6.928  12.905
 9252SOL    HW129530   0.118   7.009  12.955
 9252SOL    HW229531   0.157   6.951  12.821
 9253SOL     OW29532   2.329   2.236   2.141
 9253SOL    HW129533   2.268   2.301   2.105
 9253SOL    HW229534   2.316   2.240   2.236
 9254SOL     OW29535  11.377   0.655   0.305
 9254SOL    HW129536  11.448   0.615   0.356
 9254SOL    HW229537  11.403   0.747   0.298
 9255SOL     OW29538  14.321   8.630   1.629
 9255SOL    HW129539  14.360   8.673   1.553
 9255SOL    HW229540  14.246   8.684   1.652
 9256SOL     OW29541  12.143   8.858   4.541
 9256SOL    HW129542  12.153   8.790   4.608
 9256SOL    HW229543  12.115   8.935   4.589
 9257SOL     OW29544   7.712   4.885  13.593
 9257SOL    HW129545   7.680   4.912  13.507
 9257SOL    HW229546   7.640   4.838  13.633
 9258SOL     OW29547  14.316   7.017   6.259
 9258SOL    HW129548  14.378   7.002   6.330
 9258SOL    HW229549  14.231   6.991   6.294
 9259SOL     OW29550  11.566  10.758   6.302
 9259SOL    HW129551  11.510  10.831   6.329
 9259SOL    HW229552  11.643  10.766   6.358
 9260SOL     OW29553   0.454   4.500   4.857
 9260SOL    HW129554   0.398   4.514   4.781
 9260SOL    HW229555   0.543   4.498   4.820
 9261SOL     OW29556   1.818  10.145   5.276
 9261SOL    HW129557   1.829  10.186   5.191
 9261SOL    HW229558   1.883  10.188   5.332
 9262SOL     OW29559   9.133   8.043   1.795
 9262SOL    HW129560   9.203   8.102   1.822
 9262SOL    HW229561   9.178   7.961   1.775
 9263SOL     OW29562   2.160   8.778   0.602
 9263SOL    HW129563   2.092   8.711   0.594
 9263SOL    HW229564   2.114   8.854   0.637
 9264SOL     OW29565  11.605   5.837  10.307
 9264SOL    HW129566  11.622   5.914  10.361
 9264SOL    HW229567  11.657   5.852  10.228
 9265SOL     OW29568  12.805  10.466   2.382
 9265SOL    HW129569  12.843  10.542   2.339
 9265SOL    HW229570  12.801  10.490   2.475
 9266SOL     OW29571  10.939   5.424   9.097
 9266SOL    HW129572  10.909   5.369   9.025
 9266SOL    HW229573  10.869   5.488   9.108
 9267SOL     OW29574   9.282   9.216  11.984
 9267SOL    HW129575   9.231   9.140  12.013
 9267SOL    HW229576   9.283   9.210  11.889
 9268SOL     OW29577   0.028  12.857   0.012
 9268SOL    HW129578   0.056  12.900  14.809
 9268SOL    HW229579  14.875  12.929   0.068
 9269SOL     OW29580   0.334  10.687  14.263
 9269SOL    HW129581   0.349  10.714  14.354
 9269SOL    HW229582   0.336  10.768  14.213
 9270SOL     OW29583   5.461   6.646  13.884
 9270SOL    HW129584   5.447   6.614  13.795
 9270SOL    HW229585   5.530   6.712  13.876
 9271SOL     OW29586   4.441  11.413  11.980
 9271SOL    HW129587   4.405  11.443  11.896
 9271SOL    HW229588   4.402  11.472  12.045
 9272SOL     OW29589   4.867   4.014   9.355
 9272SOL    HW129590   4.816   4.077   9.304
 9272SOL    HW229591   4.875   3.938   9.299
 9273SOL     OW29592   4.965   7.983   5.603
 9273SOL    HW129593   4.937   8.074   5.614
 9273SOL    HW229594   4.883   7.934   5.594
 9274SOL     OW29595   1.242   9.102  12.973
 9274SOL    HW129596   1.187   9.140  12.904
 9274SOL    HW229597   1.261   9.175  13.031
 9275SOL     OW29598   9.654  11.388   3.046
 9275SOL    HW129599   9.563  11.360   3.059
 9275SOL    HW229600   9.698  11.364   3.128
 9276SOL     OW29601   5.420   7.788   2.237
 9276SOL    HW129602   5.498   7.835   2.206
 9276SOL    HW229603   5.450   7.698   2.250
 9277SOL     OW29604  11.860   4.067   5.939
 9277SOL    HW129605  11.781   4.106   5.902
 9277SOL    HW229606  11.911   4.141   5.970
 9278SOL     OW29607   8.799   9.859   5.898
 9278SOL    HW129608   8.707   9.841   5.919
 9278SOL    HW229609   8.804   9.849   5.802
 9279SOL     OW29610   3.762  11.597  11.582
 9279SOL    HW129611   3.754  11.506  11.552
 9279SOL    HW229612   3.849  11.624  11.554
 9280SOL     OW29613   0.070   1.663   4.797
 9280SOL    HW129614   0.017   1.646   4.875
 9280SOL    HW229615   0.117   1.581   4.781
 9281SOL     OW29616   6.728   7.261   2.653
 9281SOL    HW129617   6.760   7.343   2.614
 9281SOL    HW229618   6.663   7.289   2.717
 9282SOL     OW29619  13.194  12.443   3.972
 9282SOL    HW129620  13.278  12.480   3.944
 9282SOL    HW229621  13.215  12.394   4.051
 9283SOL     OW29622   2.703  13.522  14.512
 9283SOL    HW129623   2.779  13.579  14.499
 9283SOL    HW229624   2.643  13.546  14.441
 9284SOL     OW29625   4.386  12.505   2.252
 9284SOL    HW129626   4.367  12.411   2.244
 9284SOL    HW229627   4.334  12.533   2.327
 9285SOL     OW29628   5.271   7.879  12.481
 9285SOL    HW129629   5.298   7.847  12.395
 9285SOL    HW229630   5.346   7.864  12.538
 9286SOL     OW29631  11.077  10.040  10.306
 9286SOL    HW129632  11.049   9.960  10.349
 9286SOL    HW229633  11.018  10.108  10.339
 9287SOL     OW29634   6.573   0.204   6.226
 9287SOL    HW129635   6.570   0.204   6.322
 9287SOL    HW229636   6.613   0.120   6.204
 9288SOL     OW29637   4.040   2.803   6.989
 9288SOL    HW129638   3.996   2.770   7.067
 9288SOL    HW229639   4.022   2.737   6.922
 9289SOL     OW29640  12.816  12.734   6.158
 9289SOL    HW129641  12.846  12.669   6.221
 9289SOL    HW229642  12.890  12.793   6.145
 9290SOL     OW29643   6.152  10.341   4.794
 9290SOL    HW129644   6.139  10.276   4.725
 9290SOL    HW229645   6.087  10.409   4.775
 9291SOL     OW29646   1.361  14.180   1.673
 9291SOL    HW129647   1.283  14.141   1.632
 9291SOL    HW229648   1.354  14.273   1.652
 9292SOL     OW29649  11.399   1.750  12.997
 9292SOL    HW129650  11.371   1.742  13.088
 9292SOL    HW229651  11.488   1.715  12.997
 9293SOL     OW29652   3.562   7.236   7.652
 9293SOL    HW129653   3.544   7.154   7.606
 9293SOL    HW229654   3.488   7.292   7.630
 9294SOL     OW29655   4.744   9.413  12.291
 9294SOL    HW129656   4.783   9.422  12.378
 9294SOL    HW229657   4.818   9.403  12.232
 9295SOL     OW29658   4.004  14.466  13.878
 9295SOL    HW129659   4.048  14.455  13.793
 9295SOL    HW229660   4.010  14.560  13.895
 9296SOL     OW29661   1.862   3.676   2.674
 9296SOL    HW129662   1.872   3.700   2.766
 9296SOL    HW229663   1.945   3.699   2.633
 9297SOL     OW29664  11.217   6.694   0.509
 9297SOL    HW129665  11.269   6.771   0.487
 9297SOL    HW229666  11.227   6.684   0.604
 9298SOL     OW29667  10.154  12.479  14.253
 9298SOL    HW129668  10.140  12.442  14.340
 9298SOL    HW229669  10.135  12.406  14.193
 9299SOL     OW29670   6.973   7.732   7.505
 9299SOL    HW129671   7.003   7.655   7.554
 9299SOL    HW229672   6.881   7.741   7.528
 9300SOL     OW29673  14.008   6.617  10.098
 9300SOL    HW129674  14.072   6.560  10.140
 9300SOL    HW229675  13.953   6.558  10.046
 9301SOL     OW29676   0.450   6.760  12.448
 9301SOL    HW129677   0.400   6.678  12.437
 9301SOL    HW229678   0.510   6.742  12.520
 9302SOL     OW29679   5.782   5.953   1.973
 9302SOL    HW129680   5.739   6.029   2.011
 9302SOL    HW229681   5.808   5.982   1.885
 9303SOL     OW29682   4.324   6.577  13.602
 9303SOL    HW129683   4.412   6.608  13.622
 9303SOL    HW229684   4.298   6.527  13.680
 9304SOL     OW29685  12.542   6.000  14.541
 9304SOL    HW129686  12.637   6.009  14.539
 9304SOL    HW229687  12.510   6.064  14.477
 9305SOL     OW29688   9.064   7.711   2.449
 9305SOL    HW129689   9.123   7.693   2.522
 9305SOL    HW229690   8.978   7.681   2.480
 9306SOL     OW29691  13.172   2.864   1.015
 9306SOL    HW129692  13.130   2.778   1.018
 9306SOL    HW229693  13.125   2.912   0.947
 9307SOL     OW29694   9.829   2.786   2.067
 9307SOL    HW129695   9.742   2.768   2.032
 9307SOL    HW229696   9.875   2.703   2.060
 9308SOL     OW29697   4.387   4.421  10.889
 9308SOL    HW129698   4.349   4.369  10.818
 9308SOL    HW229699   4.314   4.437  10.949
 9309SOL     OW29700  14.460   3.125   2.867
 9309SOL    HW129701  14.406   3.203   2.864
 9309SOL    HW229702  14.401   3.056   2.899
 9310SOL     OW29703  10.778  10.167   8.263
 9310SOL    HW129704  10.775  10.228   8.337
 9310SOL    HW229705  10.695  10.119   8.268
 9311SOL     OW29706   2.367  12.306   9.662
 9311SOL    HW129707   2.448  12.271   9.700
 9311SOL    HW229708   2.389  12.396   9.639
 9312SOL     OW29709   3.312   4.335   8.930
 9312SOL    HW129710   3.281   4.375   9.011
 9312SOL    HW229711   3.233   4.311   8.882
 9313SOL     OW29712   0.398  12.929  13.570
 9313SOL    HW129713   0.417  12.877  13.492
 9313SOL    HW229714   0.359  13.009  13.536
 9314SOL     OW29715   6.715   2.325   8.655
 9314SOL    HW129716   6.718   2.345   8.562
 9314SOL    HW229717   6.744   2.234   8.662
 9315SOL     OW29718  12.160   7.017   9.911
 9315SOL    HW129719  12.167   6.923   9.896
 9315SOL    HW229720  12.230   7.054   9.858
 9316SOL     OW29721  12.588   1.259   1.959
 9316SOL    HW129722  12.582   1.348   1.925
 9316SOL    HW229723  12.639   1.268   2.039
 9317SOL     OW29724   5.045  10.599  13.908
 9317SOL    HW129725   5.096  10.518  13.905
 9317SOL    HW229726   4.982  10.591  13.836
 9318SOL     OW29727   9.556  13.533  12.039
 9318SOL    HW129728   9.621  13.466  12.061
 9318SOL    HW229729   9.607  13.613  12.027
 9319SOL     OW29730  11.503   1.592   2.325
 9319SOL    HW129731  11.509   1.537   2.246
 9319SOL    HW229732  11.493   1.681   2.291
 9320SOL     OW29733  14.122   6.073   1.682
 9320SOL    HW129734  14.197   6.014   1.668
 9320SOL    HW229735  14.149   6.128   1.755
 9321SOL     OW29736   7.557   0.006   9.088
 9321SOL    HW129737   7.584  14.838   9.008
 9321SOL    HW229738   7.628  14.867   9.150
 9322SOL     OW29739  11.841   9.175   0.459
 9322SOL    HW129740  11.934   9.186   0.481
 9322SOL    HW229741  11.806   9.264   0.458
 9323SOL     OW29742   3.349   2.727   0.622
 9323SOL    HW129743   3.345   2.822   0.632
 9323SOL    HW229744   3.258   2.702   0.603
 9324SOL     OW29745   0.438   5.746   1.390
 9324SOL    HW129746   0.444   5.672   1.330
 9324SOL    HW229747   0.363   5.726   1.446
 9325SOL     OW29748   2.338   0.799   9.994
 9325SOL    HW129749   2.397   0.759   9.930
 9325SOL    HW229750   2.270   0.840   9.941
 9326SOL     OW29751  12.205   8.846  13.007
 9326SOL    HW129752  12.280   8.858  13.064
 9326SOL    HW229753  12.235   8.784  12.940
 9327SOL     OW29754   8.052   7.659   5.737
 9327SOL    HW129755   8.045   7.713   5.816
 9327SOL    HW229756   8.124   7.599   5.755
 9328SOL     OW29757   6.141   4.277   2.641
 9328SOL    HW129758   6.165   4.363   2.676
 9328SOL    HW229759   6.077   4.242   2.703
 9329SOL     OW29760   6.373   6.473   9.534
 9329SOL    HW129761   6.283   6.452   9.509
 9329SOL    HW229762   6.365   6.547   9.593
 9330SOL     OW29763  10.830   9.884   5.768
 9330SOL    HW129764  10.759   9.913   5.825
 9330SOL    HW229765  10.908   9.885   5.823
 9331SOL     OW29766   2.843   5.092   7.935
 9331SOL    HW129767   2.906   5.114   7.867
 9331SOL    HW229768   2.779   5.164   7.934
 9332SOL     OW29769   8.775   9.418   5.791
 9332SOL    HW129770   8.763   9.428   5.886
 9332SOL    HW229771   8.689   9.390   5.760
 9333SOL     OW29772   6.190   0.065   8.574
 9333SOL    HW129773   6.265   0.109   8.535
 9333SOL    HW229774   6.146   0.134   8.625
 9334SOL     OW29775  12.075   3.262   9.222
 9334SOL    HW129776  12.155   3.212   9.206
 9334SOL    HW229777  12.094   3.313   9.301
 9335SOL     OW29778   4.058   7.918   0.965
 9335SOL    HW129779   4.032   7.902   1.056
 9335SOL    HW229780   3.983   7.963   0.926
 9336SOL     OW29781   0.586  14.757  14.317
 9336SOL    HW129782   0.504  14.783  14.360
 9336SOL    HW229783   0.655  14.786  14.376
 9337SOL     OW29784  10.071   0.720   3.902
 9337SOL    HW129785  10.139   0.730   3.968
 9337SOL    HW229786  10.118   0.714   3.819
 9338SOL     OW29787  11.840   2.924  14.838
 9338SOL    HW129788  11.774   2.945  14.772
 9338SOL    HW229789  11.916   2.976  14.814
 9339SOL     OW29790  13.655   8.247  10.836
 9339SOL    HW129791  13.597   8.268  10.763
 9339SOL    HW229792  13.663   8.152  10.835
 9340SOL     OW29793  11.497  13.402   2.458
 9340SOL    HW129794  11.555  13.374   2.387
 9340SOL    HW229795  11.510  13.337   2.526
 9341SOL     OW29796  13.595   3.643   7.352
 9341SOL    HW129797  13.609   3.583   7.426
 9341SOL    HW229798  13.509   3.681   7.368
 9342SOL     OW29799   9.512  11.497   6.197
 9342SOL    HW129800   9.488  11.404   6.194
 9342SOL    HW229801   9.573  11.502   6.271
 9343SOL     OW29802   3.715   2.097  11.486
 9343SOL    HW129803   3.762   2.164  11.536
 9343SOL    HW229804   3.686   2.143  11.406
 9344SOL     OW29805   5.027   2.792  10.527
 9344SOL    HW129806   5.075   2.754  10.601
 9344SOL    HW229807   4.985   2.870  10.565
 9345SOL     OW29808   3.018   6.772   5.534
 9345SOL    HW129809   2.978   6.694   5.495
 9345SOL    HW229810   2.969   6.784   5.616
 9346SOL     OW29811   1.054  13.569  14.798
 9346SOL    HW129812   1.068  13.534  14.710
 9346SOL    HW229813   1.128  13.538  14.849
 9347SOL     OW29814   7.613  13.830  11.756
 9347SOL    HW129815   7.577  13.851  11.670
 9347SOL    HW229816   7.537  13.808  11.810
 9348SOL     OW29817  14.533   3.677   6.483
 9348SOL    HW129818  14.619   3.667   6.522
 9348SOL    HW229819  14.533   3.617   6.408
 9349SOL     OW29820   7.817   4.708   8.279
 9349SOL    HW129821   7.727   4.676   8.278
 9349SOL    HW229822   7.808   4.803   8.287
 9350SOL     OW29823  14.823   9.964   4.876
 9350SOL    HW129824  14.823   9.868   4.868
 9350SOL    HW229825   0.026   9.992   4.832
 9351SOL     OW29826   4.346  12.657   3.648
 9351SOL    HW129827   4.360  12.675   3.741
 9351SOL    HW229828   4.433  12.656   3.609
 9352SOL     OW29829   8.014   7.433   6.614
 9352SOL    HW129830   7.954   7.474   6.677
 9352SOL    HW229831   8.009   7.489   6.537
 9353SOL     OW29832  14.556   6.101   6.869
 9353SOL    HW129833  14.478   6.152   6.846
 9353SOL    HW229834  14.529   6.010   6.858
 9354SOL     OW29835   6.714   8.003   4.928
 9354SOL    HW129836   6.786   8.016   4.867
 9354SOL    HW229837   6.659   8.081   4.916
 9355SOL     OW29838   3.274   2.006   3.961
 9355SOL    HW129839   3.294   1.974   4.049
 9355SOL    HW229840   3.199   1.954   3.932
 9356SOL     OW29841  12.646  12.731   5.074
 9356SOL    HW129842  12.673  12.775   5.155
 9356SOL    HW229843  12.550  12.732   5.077
 9357SOL     OW29844   9.420   8.392   9.624
 9357SOL    HW129845   9.371   8.474   9.615
 9357SOL    HW229846   9.493   8.401   9.562
 9358SOL     OW29847   1.090  12.991   3.093
 9358SOL    HW129848   1.182  13.015   3.083
 9358SOL    HW229849   1.085  12.901   3.061
 9359SOL     OW29850   9.800  13.390  12.130
 9359SOL    HW129851   9.794  13.451  12.204
 9359SOL    HW229852   9.857  13.433  12.067
 9360SOL     OW29853   6.925   7.279  12.697
 9360SOL    HW129854   6.856   7.233  12.745
 9360SOL    HW229855   6.914   7.371  12.721
 9361SOL     OW29856   2.236   9.319  12.784
 9361SOL    HW129857   2.203   9.407  12.764
 9361SOL    HW229858   2.217   9.307  12.877
 9362SOL     OW29859   7.626   1.961  12.022
 9362SOL    HW129860   7.558   1.906  12.059
 9362SOL    HW229861   7.578   2.032  11.978
 9363SOL     OW29862   3.710   1.582   9.507
 9363SOL    HW129863   3.731   1.615   9.419
 9363SOL    HW229864   3.793   1.584   9.554
 9364SOL     OW29865  12.425  14.733   4.791
 9364SOL    HW129866  12.402  14.773   4.874
 9364SOL    HW229867  12.380  14.648   4.792
 9365SOL     OW29868   6.628   2.756   2.762
 9365SOL    HW129869   6.664   2.667   2.757
 9365SOL    HW229870   6.705   2.813   2.756
 9366SOL     OW29871   0.908   6.243   2.519
 9366SOL    HW129872   0.923   6.230   2.425
 9366SOL    HW229873   0.883   6.156   2.551
 9367SOL     OW29874  13.397   1.719  13.667
 9367SOL    HW129875  13.412   1.657  13.738
 9367SOL    HW229876  13.424   1.673  13.588
 9368SOL     OW29877  14.238  13.375   4.680
 9368SOL    HW129878  14.302  13.345   4.745
 9368SOL    HW229879  14.269  13.461   4.653
 9369SOL     OW29880   4.971  10.594   9.161
 9369SOL    HW129881   5.052  10.565   9.119
 9369SOL    HW229882   4.910  10.607   9.089
 9370SOL     OW29883   8.170   5.692   4.160
 9370SOL    HW129884   8.110   5.685   4.086
 9370SOL    HW229885   8.124   5.747   4.223
 9371SOL     OW29886   4.589   3.484  14.191
 9371SOL    HW129887   4.555   3.506  14.277
 9371SOL    HW229888   4.640   3.560  14.164
 9372SOL     OW29889  14.259   8.633  10.136
 9372SOL    HW129890  14.269   8.539  10.153
 9372SOL    HW229891  14.186   8.638  10.075
 9373SOL     OW29892  12.645   5.473   1.395
 9373SOL    HW129893  12.558   5.493   1.432
 9373SOL    HW229894  12.630   5.396   1.340
 9374SOL     OW29895   1.875   5.954  14.232
 9374SOL    HW129896   1.955   5.904  14.249
 9374SOL    HW229897   1.856   5.997  14.315
 9375SOL     OW29898   5.959   7.079   9.502
 9375SOL    HW129899   5.990   7.151   9.447
 9375SOL    HW229900   5.864   7.090   9.506
 9376SOL     OW29901   6.418   1.779  12.866
 9376SOL    HW129902   6.490   1.800  12.926
 9376SOL    HW229903   6.462   1.748  12.787
 9377SOL     OW29904  13.213   5.405   9.112
 9377SOL    HW129905  13.204   5.362   9.197
 9377SOL    HW229906  13.162   5.350   9.052
 9378SOL     OW29907   0.047   3.319  11.810
 9378SOL    HW129908  14.874   3.300  11.888
 9378SOL    HW229909  14.864   3.301  11.737
 9379SOL     OW29910   3.380   5.806   8.007
 9379SOL    HW129911   3.370   5.868   7.934
 9379SOL    HW229912   3.407   5.725   7.966
 9380SOL     OW29913   0.591  14.645   1.117
 9380SOL    HW129914   0.516  14.611   1.068
 9380SOL    HW229915   0.654  14.572   1.118
 9381SOL     OW29916   4.921   6.902   6.633
 9381SOL    HW129917   4.980   6.939   6.567
 9381SOL    HW229918   4.892   6.819   6.596
 9382SOL     OW29919   7.150   2.865  13.624
 9382SOL    HW129920   7.161   2.951  13.664
 9382SOL    HW229921   7.218   2.860  13.557
 9383SOL     OW29922  12.819   0.633  13.198
 9383SOL    HW129923  12.747   0.617  13.258
 9383SOL    HW229924  12.832   0.728  13.199
 9384SOL     OW29925   5.208   8.458   5.253
 9384SOL    HW129926   5.170   8.393   5.194
 9384SOL    HW229927   5.219   8.412   5.336
 9385SOL     OW29928   5.613   7.306   6.808
 9385SOL    HW129929   5.537   7.348   6.847
 9385SOL    HW229930   5.680   7.374   6.807
 9386SOL     OW29931   6.313   9.208   8.342
 9386SOL    HW129932   6.266   9.131   8.375
 9386SOL    HW229933   6.311   9.199   8.247
 9387SOL     OW29934   0.266   2.518   8.229
 9387SOL    HW129935   0.306   2.439   8.194
 9387SOL    HW229936   0.172   2.505   8.217
 9388SOL     OW29937  13.473   0.543   5.807
 9388SOL    HW129938  13.533   0.501   5.745
 9388SOL    HW229939  13.386   0.514   5.777
 9389SOL     OW29940  14.027   0.949   4.415
 9389SOL    HW129941  14.031   0.926   4.508
 9389SOL    HW229942  14.069   1.034   4.408
 9390SOL     OW29943   4.225  14.186   9.851
 9390SOL    HW129944   4.291  14.255   9.849
 9390SOL    HW229945   4.273  14.107   9.828
 9391SOL     OW29946   1.962   9.344   4.064
 9391SOL    HW129947   2.021   9.318   3.993
 9391SOL    HW229948   2.016   9.399   4.121
 9392SOL     OW29949  10.819   8.720   8.244
 9392SOL    HW129950  10.731   8.698   8.213
 9392SOL    HW229951  10.806   8.748   8.334
 9393SOL     OW29952   4.553   3.462   6.131
 9393SOL    HW129953   4.528   3.554   6.132
 9393SOL    HW229954   4.639   3.459   6.174
 9394SOL     OW29955  13.160   9.867  10.128
 9394SOL    HW129956  13.077   9.858  10.081
 9394SOL    HW229957  13.186   9.777  10.148
 9395SOL     OW29958  14.191  11.211   1.824
 9395SOL    HW129959  14.177  11.279   1.758
 9395SOL    HW229960  14.271  11.166   1.796
 9396SOL     OW29961  12.189  10.055   3.280
 9396SOL    HW129962  12.183   9.984   3.216
 9396SOL    HW229963  12.281  10.056   3.306
 9397SOL     OW29964  13.597   3.263   2.867
 9397SOL    HW129965  13.528   3.319   2.831
 9397SOL    HW229966  13.588   3.180   2.819
 9398SOL     OW29967   0.437  10.700   5.044
 9398SOL    HW129968   0.486  10.765   4.993
 9398SOL    HW229969   0.430  10.738   5.131
 9399SOL     OW29970  14.328   4.570   1.200
 9399SOL    HW129971  14.314   4.536   1.288
 9399SOL    HW229972  14.276   4.650   1.196
 9400SOL     OW29973   9.759   4.959   2.656
 9400SOL    HW129974   9.801   4.905   2.589
 9400SOL    HW229975   9.831   5.007   2.698
 9401SOL     OW29976   9.389   2.857  13.635
 9401SOL    HW129977   9.311   2.803  13.635
 9401SOL    HW229978   9.389   2.900  13.550
 9402SOL     OW29979   4.838   9.655   6.257
 9402SOL    HW129980   4.838   9.732   6.313
 9402SOL    HW229981   4.791   9.588   6.307
 9403SOL     OW29982   2.619   4.896   1.805
 9403SOL    HW129983   2.701   4.898   1.856
 9403SOL    HW229984   2.568   4.826   1.845
 9404SOL     OW29985  14.815   5.760   5.514
 9404SOL    HW129986  14.745   5.698   5.491
 9404SOL    HW229987  14.769   5.835   5.552
 9405SOL     OW29988  11.663   4.377  11.421
 9405SOL    HW129989  11.644   4.383  11.514
 9405SOL    HW229990  11.724   4.449  11.404
 9406SOL     OW29991   9.090   7.600   3.667
 9406SOL    HW129992   9.162   7.537   3.658
 9406SOL    HW229993   9.028   7.576   3.598
 9407SOL     OW29994   1.662   2.962   7.553
 9407SOL    HW129995   1.616   2.890   7.511
 9407SOL    HW229996   1.653   2.945   7.647
 9408SOL     OW29997   6.094  12.658  11.889
 9408SOL    HW129998   6.052  12.634  11.807
 9408SOL    HW229999   6.049  12.605  11.955
 9409SOL     OW30000   7.249   1.972  13.652
 9409SOL    HW130001   7.245   2.046  13.591
 9409SOL    HW230002   7.162   1.932  13.647
 9410SOL     OW30003  11.140  10.844   0.080
 9410SOL    HW130004  11.226  10.817   0.111
 9410SOL    HW230005  11.149  10.938   0.064
 9411SOL     OW30006   1.142   7.031   8.560
 9411SOL    HW130007   1.176   7.115   8.590
 9411SOL    HW230008   1.069   7.054   8.502
 9412SOL     OW30009   0.151   6.637   7.045
 9412SOL    HW130010   0.092   6.562   7.038
 9412SOL    HW230011   0.193   6.626   7.130
 9413SOL     OW30012   3.147   7.133  10.569
 9413SOL    HW130013   3.188   7.094  10.646
 9413SOL    HW230014   3.073   7.183  10.604
 9414SOL     OW30015   3.061  13.070   8.219
 9414SOL    HW130016   3.132  13.066   8.156
 9414SOL    HW230017   3.000  13.002   8.191
 9415SOL     OW30018   0.964   3.805   9.120
 9415SOL    HW130019   0.926   3.892   9.110
 9415SOL    HW230020   1.036   3.803   9.056
 9416SOL     OW30021   8.630  12.164  12.082
 9416SOL    HW130022   8.552  12.163  12.138
 9416SOL    HW230023   8.660  12.255  12.083
 9417SOL     OW30024   9.905  10.250  12.175
 9417SOL    HW130025   9.852  10.286  12.246
 9417SOL    HW230026   9.853  10.266  12.096
 9418SOL     OW30027   3.987   5.237   1.548
 9418SOL    HW130028   3.983   5.176   1.622
 9418SOL    HW230029   4.079   5.241   1.524
 9419SOL     OW30030   2.833   1.783   0.813
 9419SOL    HW130031   2.770   1.773   0.884
 9419SOL    HW230032   2.915   1.749   0.849
 9420SOL     OW30033  11.651  10.779   0.884
 9420SOL    HW130034  11.647  10.725   0.963
 9420SOL    HW230035  11.725  10.838   0.899
 9421SOL     OW30036  10.915  12.168   1.629
 9421SOL    HW130037  10.951  12.086   1.664
 9421SOL    HW230038  10.822  12.163   1.649
 9422SOL     OW30039  12.314   2.762   7.111
 9422SOL    HW130040  12.233   2.790   7.068
 9422SOL    HW230041  12.365   2.842   7.119
 9423SOL     OW30042  10.464   0.043  13.006
 9423SOL    HW130043  10.452   0.122  12.953
 9423SOL    HW230044  10.559   0.038  13.020
 9424SOL     OW30045   3.142   7.599  12.686
 9424SOL    HW130046   3.193   7.664  12.734
 9424SOL    HW230047   3.168   7.610  12.595
 9425SOL     OW30048   7.704  12.905   5.012
 9425SOL    HW130049   7.787  12.947   4.990
 9425SOL    HW230050   7.686  12.847   4.939
 9426SOL     OW30051   1.592   3.021   9.286
 9426SOL    HW130052   1.619   3.094   9.341
 9426SOL    HW230053   1.521   3.056   9.231
 9427SOL     OW30054   0.728   1.323   9.697
 9427SOL    HW130055   0.777   1.241   9.694
 9427SOL    HW230056   0.728   1.347   9.790
 9428SOL     OW30057   4.852   2.142  11.163
 9428SOL    HW130058   4.874   2.144  11.070
 9428SOL    HW230059   4.758   2.162  11.166
 9429SOL     OW30060   1.624   8.787   3.009
 9429SOL    HW130061   1.618   8.700   2.969
 9429SOL    HW230062   1.582   8.778   3.094
 9430SOL     OW30063   2.913  13.497   6.865
 9430SOL    HW130064   2.957  13.465   6.944
 9430SOL    HW230065   2.877  13.419   6.824
 9431SOL     OW30066  13.705   5.956   4.900
 9431SOL    HW130067  13.634   6.018   4.918
 9431SOL    HW230068  13.664   5.885   4.852
 9432SOL     OW30069   8.505   4.023   7.840
 9432SOL    HW130070   8.481   3.970   7.917
 9432SOL    HW230071   8.422   4.055   7.805
 9433SOL     OW30072   4.877  10.874   0.560
 9433SOL    HW130073   4.915  10.787   0.575
 9433SOL    HW230074   4.878  10.915   0.646
 9434SOL     OW30075   8.300  12.745   9.789
 9434SOL    HW130076   8.209  12.763   9.768
 9434SOL    HW230077   8.299  12.720   9.882
 9435SOL     OW30078  12.308   6.450   9.160
 9435SOL    HW130079  12.323   6.502   9.239
 9435SOL    HW230080  12.373   6.380   9.165
 9436SOL     OW30081   2.514   8.694  13.007
 9436SOL    HW130082   2.540   8.774  12.961
 9436SOL    HW230083   2.446   8.656  12.952
 9437SOL     OW30084   7.302   9.457  10.095
 9437SOL    HW130085   7.320   9.376  10.047
 9437SOL    HW230086   7.208   9.470  10.086
 9438SOL     OW30087   0.882   9.816  10.740
 9438SOL    HW130088   0.948   9.848  10.801
 9438SOL    HW230089   0.822   9.764  10.795
 9439SOL     OW30090   3.894   7.634  14.843
 9439SOL    HW130091   3.854   7.718  14.867
 9439SOL    HW230092   3.871   7.576   0.038
 9440SOL     OW30093   5.802   1.338  12.669
 9440SOL    HW130094   5.891   1.358  12.641
 9440SOL    HW230095   5.805   1.341  12.765
 9441SOL     OW30096  14.845  12.569  12.266
 9441SOL    HW130097  14.841  12.665  12.262
 9441SOL    HW230098   0.023  12.545  12.192
 9442SOL     OW30099   0.392   6.811   2.125
 9442SOL    HW130100   0.452   6.886   2.123
 9442SOL    HW230101   0.337   6.824   2.048
 9443SOL     OW30102  13.001  10.916   7.147
 9443SOL    HW130103  12.948  10.936   7.224
 9443SOL    HW230104  12.946  10.858   7.095
 9444SOL     OW30105   9.197   3.653  10.114
 9444SOL    HW130106   9.136   3.631  10.044
 9444SOL    HW230107   9.143   3.657  10.192
 9445SOL     OW30108   7.852  11.120  12.906
 9445SOL    HW130109   7.895  11.055  12.961
 9445SOL    HW230110   7.925  11.167  12.865
 9446SOL     OW30111   0.367   9.815   3.919
 9446SOL    HW130112   0.364   9.863   4.003
 9446SOL    HW230113   0.376   9.723   3.944
 9447SOL     OW30114   0.268   6.420  13.344
 9447SOL    HW130115   0.313   6.425  13.429
 9447SOL    HW230116   0.304   6.340  13.304
 9448SOL     OW30117  13.898   4.058   5.203
 9448SOL    HW130118  13.857   3.973   5.190
 9448SOL    HW230119  13.829   4.112   5.241
 9449SOL     OW30120   3.095   6.125  13.878
 9449SOL    HW130121   3.053   6.054  13.927
 9449SOL    HW230122   3.055   6.121  13.791
 9450SOL     OW30123   3.253   2.303   6.136
 9450SOL    HW130124   3.277   2.213   6.116
 9450SOL    HW230125   3.203   2.297   6.218
 9451SOL     OW30126   7.191  10.300  11.430
 9451SOL    HW130127   7.247  10.316  11.353
 9451SOL    HW230128   7.102  10.311  11.397
 9452SOL     OW30129   1.083  10.612   8.283
 9452SOL    HW130130   1.128  10.535   8.316
 9452SOL    HW230131   0.994  10.605   8.318
 9453SOL     OW30132   4.130   3.242   6.203
 9453SOL    HW130133   4.223   3.241   6.183
 9453SOL    HW230134   4.125   3.260   6.297
 9454SOL     OW30135   2.334   2.120   3.658
 9454SOL    HW130136   2.309   2.079   3.575
 9454SOL    HW230137   2.289   2.205   3.656
 9455SOL     OW30138  12.227  11.125   7.679
 9455SOL    HW130139  12.317  11.106   7.653
 9455SOL    HW230140  12.236  11.177   7.759
 9456SOL     OW30141   0.488  12.634   0.054
 9456SOL    HW130142   0.513  12.549   0.090
 9456SOL    HW230143   0.476  12.691   0.130
 9457SOL     OW30144   4.538   3.269   2.611
 9457SOL    HW130145   4.556   3.277   2.518
 9457SOL    HW230146   4.526   3.359   2.642
 9458SOL     OW30147  10.890   3.182   3.772
 9458SOL    HW130148  10.863   3.131   3.696
 9458SOL    HW230149  10.916   3.267   3.737
 9459SOL     OW30150   2.605  11.392   0.769
 9459SOL    HW130151   2.696  11.400   0.741
 9459SOL    HW230152   2.554  11.400   0.689
 9460SOL     OW30153   9.188   3.887   0.557
 9460SOL    HW130154   9.205   3.871   0.464
 9460SOL    HW230155   9.257   3.839   0.603
 9461SOL     OW30156   4.218   6.211   4.103
 9461SOL    HW130157   4.163   6.196   4.179
 9461SOL    HW230158   4.212   6.130   4.052
 9462SOL     OW30159   6.203   2.427  11.632
 9462SOL    HW130160   6.139   2.486  11.671
 9462SOL    HW230161   6.252   2.481  11.570
 9463SOL     OW30162  13.737  10.635  11.846
 9463SOL    HW130163  13.755  10.638  11.940
 9463SOL    HW230164  13.824  10.628  11.806
 9464SOL     OW30165  11.352  12.942   7.380
 9464SOL    HW130166  11.331  12.883   7.307
 9464SOL    HW230167  11.342  13.030   7.343
 9465SOL     OW30168   0.564  11.868  14.377
 9465SOL    HW130169   0.521  11.819  14.446
 9465SOL    HW230170   0.603  11.802  14.320
 9466SOL     OW30171   1.233  11.372  11.383
 9466SOL    HW130172   1.175  11.315  11.433
 9466SOL    HW230173   1.268  11.316  11.314
 9467SOL     OW30174  12.867  12.939   2.020
 9467SOL    HW130175  12.837  13.021   1.982
 9467SOL    HW230176  12.820  12.871   1.971
 9468SOL     OW30177  10.179   9.899  10.730
 9468SOL    HW130178  10.202   9.864  10.644
 9468SOL    HW230179  10.226   9.845  10.792
 9469SOL     OW30180   9.241  11.606   9.365
 9469SOL    HW130181   9.196  11.522   9.370
 9469SOL    HW230182   9.250  11.624   9.272
 9470SOL     OW30183   8.147   3.922  12.702
 9470SOL    HW130184   8.115   3.834  12.682
 9470SOL    HW230185   8.242   3.913  12.701
 9471SOL     OW30186   7.980  11.265  12.406
 9471SOL    HW130187   7.983  11.237  12.314
 9471SOL    HW230188   7.888  11.259  12.430
 9472SOL     OW30189   7.422   8.578  13.572
 9472SOL    HW130190   7.360   8.507  13.586
 9472SOL    HW230191   7.507   8.535  13.563
 9473SOL     OW30192  13.176  13.134  10.573
 9473SOL    HW130193  13.117  13.195  10.528
 9473SOL    HW230194  13.157  13.049  10.535
 9474SOL     OW30195   5.223   0.526  12.180
 9474SOL    HW130196   5.302   0.577  12.201
 9474SOL    HW230197   5.255   0.450  12.131
 9475SOL     OW30198  12.335   2.170  11.166
 9475SOL    HW130199  12.261   2.228  11.149
 9475SOL    HW230200  12.299   2.100  11.221
 9476SOL     OW30201   0.030   7.992  10.956
 9476SOL    HW130202   0.112   7.970  11.000
 9476SOL    HW230203   0.026   7.932  10.881
 9477SOL     OW30204   2.739   5.320  10.496
 9477SOL    HW130205   2.685   5.398  10.506
 9477SOL    HW230206   2.705   5.258  10.560
 9478SOL     OW30207  12.608   9.880   5.557
 9478SOL    HW130208  12.680   9.943   5.558
 9478SOL    HW230209  12.540   9.922   5.503
 9479SOL     OW30210   9.256   3.245   5.076
 9479SOL    HW130211   9.190   3.300   5.035
 9479SOL    HW230212   9.339   3.277   5.040
 9480SOL     OW30213  12.712   2.413  14.118
 9480SOL    HW130214  12.775   2.445  14.054
 9480SOL    HW230215  12.670   2.339  14.075
 9481SOL     OW30216  12.925   8.479  10.294
 9481SOL    HW130217  12.909   8.571  10.313
 9481SOL    HW230218  12.841   8.446  10.263
 9482SOL     OW30219   6.452   4.348   0.874
 9482SOL    HW130220   6.364   4.329   0.909
 9482SOL    HW230221   6.439   4.420   0.813
 9483SOL     OW30222   8.988   2.714   8.523
 9483SOL    HW130223   8.932   2.773   8.574
 9483SOL    HW230224   9.049   2.771   8.478
 9484SOL     OW30225   4.638   5.029   7.928
 9484SOL    HW130226   4.664   5.113   7.889
 9484SOL    HW230227   4.575   5.053   7.997
 9485SOL     OW30228   5.208   0.544   9.095
 9485SOL    HW130229   5.166   0.565   9.178
 9485SOL    HW230230   5.144   0.568   9.028
 9486SOL     OW30231   0.820   4.657  11.339
 9486SOL    HW130232   0.814   4.589  11.271
 9486SOL    HW230233   0.733   4.697  11.341
 9487SOL     OW30234   6.258   6.473   3.158
 9487SOL    HW130235   6.229   6.410   3.224
 9487SOL    HW230236   6.184   6.532   3.147
 9488SOL     OW30237  10.048   8.868   7.124
 9488SOL    HW130238  10.091   8.810   7.187
 9488SOL    HW230239   9.977   8.815   7.088
 9489SOL     OW30240   3.445  14.676   6.038
 9489SOL    HW130241   3.444  14.750   6.099
 9489SOL    HW230242   3.484  14.604   6.088
 9490SOL     OW30243   5.051  13.143   3.391
 9490SOL    HW130244   5.063  13.232   3.357
 9490SOL    HW230245   5.132  13.098   3.367
 9491SOL     OW30246  12.294   0.482  11.090
 9491SOL    HW130247  12.260   0.392  11.090
 9491SOL    HW230248  12.335   0.492  11.176
 9492SOL     OW30249   2.158  10.656   2.986
 9492SOL    HW130250   2.217  10.635   3.057
 9492SOL    HW230251   2.073  10.669   3.028
 9493SOL     OW30252   1.108   7.508  10.042
 9493SOL    HW130253   1.048   7.500   9.968
 9493SOL    HW230254   1.052   7.495  10.119
 9494SOL     OW30255  13.930   9.457  12.466
 9494SOL    HW130256  13.874   9.380  12.463
 9494SOL    HW230257  13.986   9.448  12.388
 9495SOL     OW30258   5.133   1.090   3.788
 9495SOL    HW130259   5.159   1.010   3.833
 9495SOL    HW230260   5.181   1.160   3.832
 9496SOL     OW30261   2.529   2.438   2.794
 9496SOL    HW130262   2.611   2.483   2.774
 9496SOL    HW230263   2.498   2.480   2.874
 9497SOL     OW30264  12.270  12.584   7.118
 9497SOL    HW130265  12.337  12.617   7.178
 9497SOL    HW230266  12.191  12.631   7.142
 9498SOL     OW30267   6.274   9.855   6.236
 9498SOL    HW130268   6.362   9.817   6.235
 9498SOL    HW230269   6.266   9.895   6.323
 9499SOL     OW30270  13.887   6.129  13.456
 9499SOL    HW130271  13.914   6.208  13.503
 9499SOL    HW230272  13.824   6.086  13.515
 9500SOL     OW30273   0.517   0.394  10.302
 9500SOL    HW130274   0.545   0.485  10.297
 9500SOL    HW230275   0.495   0.370  10.212
 9501SOL     OW30276  12.564   1.658   8.378
 9501SOL    HW130277  12.625   1.709   8.325
 9501SOL    HW230278  12.502   1.723   8.411
 9502SOL     OW30279  10.792   5.327  12.677
 9502SOL    HW130280  10.767   5.402  12.731
 9502SOL    HW230281  10.751   5.252  12.720
 9503SOL     OW30282   5.725   5.060   7.949
 9503SOL    HW130283   5.645   5.055   8.002
 9503SOL    HW230284   5.708   5.003   7.874
 9504SOL     OW30285   9.108  10.273  11.446
 9504SOL    HW130286   9.182  10.334  11.445
 9504SOL    HW230287   9.142  10.196  11.491
 9505SOL     OW30288   9.600   7.250  11.860
 9505SOL    HW130289   9.564   7.230  11.773
 9505SOL    HW230290   9.569   7.338  11.879
 9506SOL     OW30291   4.100   8.983  13.853
 9506SOL    HW130292   4.135   8.926  13.785
 9506SOL    HW230293   4.177   9.030  13.887
 9507SOL     OW30294   8.759   5.790   0.965
 9507SOL    HW130295   8.845   5.807   0.927
 9507SOL    HW230296   8.702   5.858   0.929
 9508SOL     OW30297  13.164   4.004  13.312
 9508SOL    HW130298  13.232   4.063  13.279
 9508SOL    HW230299  13.183   3.996  13.405
 9509SOL     OW30300  10.014   1.528  13.128
 9509SOL    HW130301  10.101   1.566  13.137
 9509SOL    HW230302  10.010   1.498  13.037
 9510SOL     OW30303   4.456   2.407   0.332
 9510SOL    HW130304   4.417   2.368   0.410
 9510SOL    HW230305   4.385   2.456   0.291
 9511SOL     OW30306  12.386  12.974   4.114
 9511SOL    HW130307  12.306  12.951   4.067
 9511SOL    HW230308  12.380  13.069   4.125
 9512SOL     OW30309   3.719  10.699   4.032
 9512SOL    HW130310   3.714  10.651   4.114
 9512SOL    HW230311   3.740  10.632   3.966
 9513SOL     OW30312   0.479   7.782   0.282
 9513SOL    HW130313   0.509   7.719   0.347
 9513SOL    HW230314   0.435   7.850   0.334
 9514SOL     OW30315   5.599  12.355  10.620
 9514SOL    HW130316   5.627  12.272  10.658
 9514SOL    HW230317   5.539  12.330  10.550
 9515SOL     OW30318  12.811   8.838   4.876
 9515SOL    HW130319  12.838   8.795   4.795
 9515SOL    HW230320  12.772   8.767   4.928
 9516SOL     OW30321   0.099   5.044   9.618
 9516SOL    HW130322   0.115   4.995   9.537
 9516SOL    HW230323   0.109   5.136   9.592
 9517SOL     OW30324  14.377  10.906   1.365
 9517SOL    HW130325  14.294  10.901   1.412
 9517SOL    HW230326  14.439  10.942   1.428
 9518SOL     OW30327  12.819  12.034  14.629
 9518SOL    HW130328  12.790  11.948  14.659
 9518SOL    HW230329  12.781  12.095  14.692
 9519SOL     OW30330   2.194  12.946   9.051
 9519SOL    HW130331   2.142  12.870   9.077
 9519SOL    HW230332   2.138  12.994   8.990
 9520SOL     OW30333   5.333   1.570  12.458
 9520SOL    HW130334   5.343   1.664  12.450
 9520SOL    HW230335   5.422   1.536  12.457
 9521SOL     OW30336   0.659   1.767   0.490
 9521SOL    HW130337   0.737   1.713   0.484
 9521SOL    HW230338   0.634   1.783   0.399
 9522SOL     OW30339   4.512   9.293  12.823
 9522SOL    HW130340   4.499   9.326  12.734
 9522SOL    HW230341   4.424   9.290  12.861
 9523SOL     OW30342  11.703   7.383  10.251
 9523SOL    HW130343  11.788   7.402  10.291
 9523SOL    HW230344  11.725   7.338  10.169
 9524SOL     OW30345   9.608   9.081  13.272
 9524SOL    HW130346   9.640   9.061  13.185
 9524SOL    HW230347   9.609   9.177  13.276
 9525SOL     OW30348   7.849   9.813  13.017
 9525SOL    HW130349   7.941   9.818  12.993
 9525SOL    HW230350   7.809   9.890  12.978
 9526SOL     OW30351   6.808   5.487   7.253
 9526SOL    HW130352   6.769   5.412   7.297
 9526SOL    HW230353   6.806   5.463   7.160
 9527SOL     OW30354   5.342  13.442  11.324
 9527SOL    HW130355   5.378  13.456  11.412
 9527SOL    HW230356   5.385  13.362  11.293
 9528SOL     OW30357  13.569   5.224   3.123
 9528SOL    HW130358  13.641   5.206   3.184
 9528SOL    HW230359  13.505   5.156   3.141
 9529SOL     OW30360  14.753   3.752  12.764
 9529SOL    HW130361  14.718   3.688  12.826
 9529SOL    HW230362  14.720   3.836  12.795
 9530SOL     OW30363   7.365   3.233   2.550
 9530SOL    HW130364   7.442   3.177   2.536
 9530SOL    HW230365   7.349   3.272   2.464
 9531SOL     OW30366   0.697   7.479   2.064
 9531SOL    HW130367   0.792   7.475   2.052
 9531SOL    HW230368   0.666   7.394   2.034
 9532SOL     OW30369   6.262  14.851  11.612
 9532SOL    HW130370   6.264  14.779  11.674
 9532SOL    HW230371   6.328   0.035  11.643
 9533SOL     OW30372   6.351   7.014  11.177
 9533SOL    HW130373   6.363   6.956  11.102
 9533SOL    HW230374   6.285   6.970  11.231
 9534SOL     OW30375  14.117   8.274  14.700
 9534SOL    HW130376  14.043   8.290  14.641
 9534SOL    HW230377  14.107   8.339  14.769
 9535SOL     OW30378   1.208  10.109  13.621
 9535SOL    HW130379   1.149  10.058  13.566
 9535SOL    HW230380   1.178  10.092  13.711
 9536SOL     OW30381   2.123   4.430   2.740
 9536SOL    HW130382   2.086   4.342   2.728
 9536SOL    HW230383   2.183   4.421   2.814
 9537SOL     OW30384   1.203   6.184  11.343
 9537SOL    HW130385   1.255   6.217  11.417
 9537SOL    HW230386   1.215   6.089  11.347
 9538SOL     OW30387   8.145  11.011   6.029
 9538SOL    HW130388   8.071  11.069   6.052
 9538SOL    HW230389   8.103  10.930   6.001
 9539SOL     OW30390   7.754   2.642  10.772
 9539SOL    HW130391   7.758   2.612  10.682
 9539SOL    HW230392   7.729   2.565  10.822
 9540SOL     OW30393  12.313   0.758   8.051
 9540SOL    HW130394  12.228   0.781   8.087
 9540SOL    HW230395  12.299   0.754   7.956
 9541SOL     OW30396  12.932  10.451  14.637
 9541SOL    HW130397  12.917  10.425  14.546
 9541SOL    HW230398  12.895  10.539  14.643
 9542SOL     OW30399   4.265   0.163   1.451
 9542SOL    HW130400   4.263   0.069   1.432
 9542SOL    HW230401   4.349   0.193   1.416
 9543SOL     OW30402   4.431   6.924   8.326
 9543SOL    HW130403   4.440   6.900   8.418
 9543SOL    HW230404   4.378   6.855   8.288
 9544SOL     OW30405   7.560  11.918  12.424
 9544SOL    HW130406   7.629  11.890  12.484
 9544SOL    HW230407   7.596  11.995  12.380
 9545SOL     OW30408   4.334   3.496   9.917
 9545SOL    HW130409   4.356   3.516   9.826
 9545SOL    HW230410   4.309   3.581   9.955
 9546SOL     OW30411  11.410   4.804   4.565
 9546SOL    HW130412  11.327   4.805   4.517
 9546SOL    HW230413  11.385   4.810   4.657
 9547SOL     OW30414   5.904  11.462   5.171
 9547SOL    HW130415   5.928  11.480   5.262
 9547SOL    HW230416   5.908  11.547   5.127
 9548SOL     OW30417   2.203   2.177   9.478
 9548SOL    HW130418   2.180   2.154   9.388
 9548SOL    HW230419   2.162   2.262   9.492
 9549SOL     OW30420   7.545   4.092   0.078
 9549SOL    HW130421   7.530   4.186   0.068
 9549SOL    HW230422   7.592   4.084   0.161
 9550SOL     OW30423   1.088  14.834   6.418
 9550SOL    HW130424   1.039   0.011   6.479
 9550SOL    HW230425   1.156  14.793   6.471
 9551SOL     OW30426  12.788   0.453  13.521
 9551SOL    HW130427  12.818   0.403  13.596
 9551SOL    HW230428  12.813   0.544  13.541
 9552SOL     OW30429   7.331   3.291  10.615
 9552SOL    HW130430   7.343   3.204  10.578
 9552SOL    HW230431   7.236   3.299  10.626
 9553SOL     OW30432   0.904   6.414  11.059
 9553SOL    HW130433   0.814   6.433  11.033
 9553SOL    HW230434   0.926   6.481  11.122
 9554SOL     OW30435   7.473   8.712   4.527
 9554SOL    HW130436   7.387   8.698   4.486
 9554SOL    HW230437   7.460   8.686   4.618
 9555SOL     OW30438   6.434  12.340  13.756
 9555SOL    HW130439   6.455  12.405  13.689
 9555SOL    HW230440   6.351  12.369  13.793
 9556SOL     OW30441  10.101  10.080   2.010
 9556SOL    HW130442  10.054  10.142   1.954
 9556SOL    HW230443  10.184  10.065   1.964
 9557SOL     OW30444   2.322  11.477   9.071
 9557SOL    HW130445   2.231  11.449   9.060
 9557SOL    HW230446   2.325  11.565   9.032
 9558SOL     OW30447   3.413  13.390  14.629
 9558SOL    HW130448   3.379  13.359  14.545
 9558SOL    HW230449   3.464  13.468  14.607
 9559SOL     OW30450   7.121   1.602   7.577
 9559SOL    HW130451   7.054   1.670   7.591
 9559SOL    HW230452   7.152   1.617   7.488
 9560SOL     OW30453   0.848  11.019   5.722
 9560SOL    HW130454   0.778  10.955   5.717
 9560SOL    HW230455   0.807  11.102   5.697
 9561SOL     OW30456   8.374   7.933  14.117
 9561SOL    HW130457   8.422   7.962  14.195
 9561SOL    HW230458   8.398   7.841  14.106
 9562SOL     OW30459  12.281   7.669   9.166
 9562SOL    HW130460  12.272   7.634   9.078
 9562SOL    HW230461  12.213   7.626   9.217
 9563SOL     OW30462  14.562   1.849  12.858
 9563SOL    HW130463  14.491   1.913  12.859
 9563SOL    HW230464  14.642   1.902  12.848
 9564SOL     OW30465   9.446  14.596  10.262
 9564SOL    HW130466   9.399  14.534  10.206
 9564SOL    HW230467   9.437  14.680  10.218
 9565SOL     OW30468  13.279   3.214  11.208
 9565SOL    HW130469  13.364   3.258  11.215
 9565SOL    HW230470  13.226   3.273  11.154
 9566SOL     OW30471   0.983   5.855   1.837
 9566SOL    HW130472   1.058   5.813   1.879
 9566SOL    HW230473   1.000   5.949   1.846
 9567SOL     OW30474  14.582  11.206   2.241
 9567SOL    HW130475  14.517  11.192   2.311
 9567SOL    HW230476  14.628  11.123   2.234
 9568SOL     OW30477  14.628  11.113   1.977
 9568SOL    HW130478  14.601  11.160   2.056
 9568SOL    HW230479  14.703  11.061   2.006
 9569SOL     OW30480   3.177   1.213   3.443
 9569SOL    HW130481   3.092   1.186   3.408
 9569SOL    HW230482   3.238   1.195   3.372
 9570SOL     OW30483   6.001  13.595   9.740
 9570SOL    HW130484   6.051  13.674   9.761
 9570SOL    HW230485   6.020  13.535   9.812
 9571SOL     OW30486   0.914   7.410   1.050
 9571SOL    HW130487   0.992   7.464   1.063
 9571SOL    HW230488   0.898   7.368   1.134
 9572SOL     OW30489   4.264   8.113  13.645
 9572SOL    HW130490   4.256   8.065  13.563
 9572SOL    HW230491   4.359   8.122  13.657
 9573SOL     OW30492   5.567  10.158  13.015
 9573SOL    HW130493   5.647  10.107  13.006
 9573SOL    HW230494   5.536  10.139  13.103
 9574SOL     OW30495   0.438   3.053   4.667
 9574SOL    HW130496   0.446   2.988   4.597
 9574SOL    HW230497   0.517   3.106   4.660
 9575SOL     OW30498   4.377  10.267  11.235
 9575SOL    HW130499   4.431  10.195  11.267
 9575SOL    HW230500   4.298  10.265  11.288
 9576SOL     OW30501   0.492   2.981  12.866
 9576SOL    HW130502   0.408   2.972  12.912
 9576SOL    HW230503   0.479   2.936  12.782
 9577SOL     OW30504   1.521   9.284   5.213
 9577SOL    HW130505   1.579   9.305   5.140
 9577SOL    HW230506   1.511   9.189   5.209
 9578SOL     OW30507  11.042  12.455   4.179
 9578SOL    HW130508  10.972  12.425   4.121
 9578SOL    HW230509  11.084  12.375   4.211
 9579SOL     OW30510   1.655   7.068   3.492
 9579SOL    HW130511   1.574   7.047   3.539
 9579SOL    HW230512   1.639   7.155   3.455
 9580SOL     OW30513  13.430   1.178  11.100
 9580SOL    HW130514  13.376   1.257  11.100
 9580SOL    HW230515  13.386   1.119  11.161
 9581SOL     OW30516   5.478   9.717   5.791
 9581SOL    HW130517   5.502   9.735   5.700
 9581SOL    HW230518   5.412   9.649   5.785
 9582SOL     OW30519   1.599   7.971  11.394
 9582SOL    HW130520   1.574   7.984  11.303
 9582SOL    HW230521   1.587   7.877  11.409
 9583SOL     OW30522   4.362   0.947  10.249
 9583SOL    HW130523   4.416   0.914  10.321
 9583SOL    HW230524   4.342   1.037  10.274
 9584SOL     OW30525   1.618  14.689   6.970
 9584SOL    HW130526   1.587  14.761   6.916
 9584SOL    HW230527   1.642  14.621   6.907
 9585SOL     OW30528   1.827   3.763  14.388
 9585SOL    HW130529   1.886   3.824  14.431
 9585SOL    HW230530   1.768   3.733  14.457
 9586SOL     OW30531   2.858   2.723   3.649
 9586SOL    HW130532   2.861   2.656   3.581
 9586SOL    HW230533   2.839   2.675   3.730
 9587SOL     OW30534   3.595   8.386   4.755
 9587SOL    HW130535   3.613   8.292   4.753
 9587SOL    HW230536   3.672   8.426   4.715
 9588SOL     OW30537   8.514   4.203   6.517
 9588SOL    HW130538   8.499   4.118   6.475
 9588SOL    HW230539   8.430   4.226   6.554
 9589SOL     OW30540   1.348   1.243  11.983
 9589SOL    HW130541   1.422   1.302  11.973
 9589SOL    HW230542   1.319   1.256  12.073
 9590SOL     OW30543   7.081  12.775   5.170
 9590SOL    HW130544   7.034  12.739   5.094
 9590SOL    HW230545   7.071  12.870   5.161
 9591SOL     OW30546  14.561  13.899   0.319
 9591SOL    HW130547  14.620  13.908   0.393
 9591SOL    HW230548  14.619  13.903   0.242
 9592SOL     OW30549  13.963  11.826   5.179
 9592SOL    HW130550  14.025  11.826   5.252
 9592SOL    HW230551  13.957  11.917   5.152
 9593SOL     OW30552   3.659   9.799  13.444
 9593SOL    HW130553   3.741   9.786  13.492
 9593SOL    HW230554   3.598   9.736  13.483
 9594SOL     OW30555   7.954   8.873   5.308
 9594SOL    HW130556   7.954   8.850   5.215
 9594SOL    HW230557   7.920   8.962   5.311
 9595SOL     OW30558   4.080  13.800  13.121
 9595SOL    HW130559   3.988  13.807  13.094
 9595SOL    HW230560   4.087  13.713  13.160
 9596SOL     OW30561   9.498   4.928   4.030
 9596SOL    HW130562   9.524   4.865   3.963
 9596SOL    HW230563   9.564   4.998   4.024
 9597SOL     OW30564   5.260  10.601   0.744
 9597SOL    HW130565   5.224  10.513   0.754
 9597SOL    HW230566   5.212  10.638   0.669
 9598SOL     OW30567   6.132  10.990   9.993
 9598SOL    HW130568   6.173  10.939  10.063
 9598SOL    HW230569   6.067  11.044  10.037
 9599SOL     OW30570  14.764   3.554   1.634
 9599SOL    HW130571  14.853   3.555   1.597
 9599SOL    HW230572  14.711   3.509   1.568
 9600SOL     OW30573  13.623  11.058  14.851
 9600SOL    HW130574  13.706  11.064  14.805
 9600SOL    HW230575  13.588  10.972  14.825
 9601SOL     OW30576   2.755   8.771   5.838
 9601SOL    HW130577   2.828   8.774   5.777
 9601SOL    HW230578   2.682   8.736   5.787
 9602SOL     OW30579  12.173  11.165  11.543
 9602SOL    HW130580  12.159  11.235  11.479
 9602SOL    HW230581  12.129  11.197  11.622
 9603SOL     OW30582  12.876   9.021   4.244
 9603SOL    HW130583  12.912   8.994   4.328
 9603SOL    HW230584  12.848   8.939   4.203
 9604SOL     OW30585   3.035  14.544   9.837
 9604SOL    HW130586   3.100  14.496   9.889
 9604SOL    HW230587   3.081  14.565   9.756
 9605SOL     OW30588   5.259   6.900   1.966
 9605SOL    HW130589   5.186   6.849   2.002
 9605SOL    HW230590   5.265   6.976   2.023
 9606SOL     OW30591   4.645   5.970   0.472
 9606SOL    HW130592   4.729   5.923   0.470
 9606SOL    HW230593   4.587   5.916   0.418
 9607SOL     OW30594  14.654   3.795  14.378
 9607SOL    HW130595  14.670   3.872  14.324
 9607SOL    HW230596  14.722   3.798  14.445
 9608SOL     OW30597  11.984   9.320  11.888
 9608SOL    HW130598  11.968   9.362  11.804
 9608SOL    HW230599  12.078   9.329  11.903
 9609SOL     OW30600   6.694   7.719   6.487
 9609SOL    HW130601   6.741   7.648   6.531
 9609SOL    HW230602   6.712   7.704   6.394
 9610SOL     OW30603   0.736  14.857  10.205
 9610SOL    HW130604   0.664   0.041  10.216
 9610SOL    HW230605   0.807   0.032  10.168
 9611SOL     OW30606   2.516   7.144   9.746
 9611SOL    HW130607   2.584   7.208   9.726
 9611SOL    HW230608   2.486   7.114   9.660
 9612SOL     OW30609   2.012   6.428  11.376
 9612SOL    HW130610   1.988   6.339  11.403
 9612SOL    HW230611   2.050   6.417  11.289
 9613SOL     OW30612   9.662   7.845   0.277
 9613SOL    HW130613   9.657   7.897   0.357
 9613SOL    HW230614   9.710   7.900   0.215
 9614SOL     OW30615  10.727   8.676  13.846
 9614SOL    HW130616  10.727   8.581  13.836
 9614SOL    HW230617  10.635   8.700  13.850
 9615SOL     OW30618   3.112   4.342   8.625
 9615SOL    HW130619   3.171   4.280   8.583
 9615SOL    HW230620   3.024   4.306   8.612
 9616SOL     OW30621  12.997  14.281   2.849
 9616SOL    HW130622  13.045  14.203   2.874
 9616SOL    HW230623  12.908  14.266   2.880
 9617SOL     OW30624   3.266   2.238  11.629
 9617SOL    HW130625   3.250   2.226  11.723
 9617SOL    HW230626   3.215   2.169  11.587
 9618SOL     OW30627   3.652   2.572  10.897
 9618SOL    HW130628   3.627   2.616  10.978
 9618SOL    HW230629   3.742   2.600  10.880
 9619SOL     OW30630  13.992  10.708   4.852
 9619SOL    HW130631  13.999  10.623   4.808
 9619SOL    HW230632  14.083  10.735   4.864
 9620SOL     OW30633   4.869   6.576  14.666
 9620SOL    HW130634   4.814   6.560  14.590
 9620SOL    HW230635   4.952   6.605  14.630
 9621SOL     OW30636   0.316  11.067   4.714
 9621SOL    HW130637   0.280  11.071   4.625
 9621SOL    HW230638   0.244  11.033   4.768
 9622SOL     OW30639   0.176   1.418  12.690
 9622SOL    HW130640   0.216   1.406  12.604
 9622SOL    HW230641   0.250   1.425  12.750
 9623SOL     OW30642   2.684   0.403   9.332
 9623SOL    HW130643   2.687   0.309   9.348
 9623SOL    HW230644   2.760   0.420   9.276
 9624SOL     OW30645  12.322   2.058  12.571
 9624SOL    HW130646  12.380   1.987  12.542
 9624SOL    HW230647  12.234   2.024  12.560
 9625SOL     OW30648   4.114   2.539   4.961
 9625SOL    HW130649   4.020   2.553   4.957
 9625SOL    HW230650   4.138   2.506   4.875
 9626SOL     OW30651   4.799  13.514  12.816
 9626SOL    HW130652   4.830  13.429  12.787
 9626SOL    HW230653   4.760  13.553  12.737
 9627SOL     OW30654  12.092  10.674  14.573
 9627SOL    HW130655  12.065  10.665  14.665
 9627SOL    HW230656  12.011  10.670  14.524
 9628SOL     OW30657   8.381   0.270   5.002
 9628SOL    HW130658   8.387   0.333   5.074
 9628SOL    HW230659   8.462   0.220   5.008
 9629SOL     OW30660   2.166   5.161   4.080
 9629SOL    HW130661   2.087   5.192   4.123
 9629SOL    HW230662   2.143   5.154   3.987
 9630SOL     OW30663   5.486   4.572  12.290
 9630SOL    HW130664   5.494   4.501  12.226
 9630SOL    HW230665   5.392   4.584  12.300
 9631SOL     OW30666   4.156   7.077  14.831
 9631SOL    HW130667   4.245   7.054  14.859
 9631SOL    HW230668   4.163   7.085  14.736
 9632SOL     OW30669   2.072   7.396   2.166
 9632SOL    HW130670   2.080   7.458   2.238
 9632SOL    HW230671   2.130   7.430   2.098
 9633SOL     OW30672   0.709   8.175  10.779
 9633SOL    HW130673   0.749   8.214  10.857
 9633SOL    HW230674   0.617   8.166  10.801
 9634SOL     OW30675  13.916   6.060   7.572
 9634SOL    HW130676  13.855   6.125   7.605
 9634SOL    HW230677  13.884   5.976   7.605
 9635SOL     OW30678  13.796   5.538   0.585
 9635SOL    HW130679  13.833   5.591   0.514
 9635SOL    HW230680  13.873   5.505   0.631
 9636SOL     OW30681  10.760  14.793  10.684
 9636SOL    HW130682  10.835  14.756  10.731
 9636SOL    HW230683  10.745   0.001  10.725
 9637SOL     OW30684   8.142   5.151  11.822
 9637SOL    HW130685   8.123   5.075  11.768
 9637SOL    HW230686   8.193   5.117  11.896
 9638SOL     OW30687  10.854   5.449  10.635
 9638SOL    HW130688  10.860   5.511  10.708
 9638SOL    HW230689  10.881   5.499  10.558
 9639SOL     OW30690   4.810  10.206  14.475
 9639SOL    HW130691   4.734  10.238  14.426
 9639SOL    HW230692   4.773  10.174  14.557
 9640SOL     OW30693   1.607  10.932   0.717
 9640SOL    HW130694   1.625  11.017   0.676
 9640SOL    HW230695   1.658  10.869   0.665
 9641SOL     OW30696   9.416  11.179   1.112
 9641SOL    HW130697   9.419  11.103   1.053
 9641SOL    HW230698   9.325  11.210   1.105
 9642SOL     OW30699  11.964  14.258   3.592
 9642SOL    HW130700  11.949  14.191   3.659
 9642SOL    HW230701  12.031  14.220   3.535
 9643SOL     OW30702  12.727  13.315   4.485
 9643SOL    HW130703  12.689  13.249   4.428
 9643SOL    HW230704  12.769  13.377   4.426
 9644SOL     OW30705   5.607   0.499  11.656
 9644SOL    HW130706   5.551   0.518  11.731
 9644SOL    HW230707   5.571   0.554  11.585
 9645SOL     OW30708  10.424  10.262   2.471
 9645SOL    HW130709  10.505  10.233   2.514
 9645SOL    HW230710  10.389  10.329   2.530
 9646SOL     OW30711  11.573   8.459   3.293
 9646SOL    HW130712  11.560   8.371   3.329
 9646SOL    HW230713  11.665   8.459   3.265
 9647SOL     OW30714   1.922   8.521   9.905
 9647SOL    HW130715   1.832   8.492   9.918
 9647SOL    HW230716   1.963   8.451   9.854
 9648SOL     OW30717   5.488  10.550   4.598
 9648SOL    HW130718   5.394  10.530   4.594
 9648SOL    HW230719   5.495  10.616   4.667
 9649SOL     OW30720   0.160  13.268  10.049
 9649SOL    HW130721   0.146  13.191   9.994
 9649SOL    HW230722   0.247  13.299  10.026
 9650SOL     OW30723   4.236  10.220   3.117
 9650SOL    HW130724   4.280  10.171   3.047
 9650SOL    HW230725   4.148  10.183   3.120
 9651SOL     OW30726   8.773   9.663   7.355
 9651SOL    HW130727   8.804   9.751   7.334
 9651SOL    HW230728   8.755   9.623   7.270
 9652SOL     OW30729   4.187   0.955   7.428
 9652SOL    HW130730   4.173   0.893   7.356
 9652SOL    HW230731   4.277   0.983   7.417
 9653SOL     OW30732   7.548  11.888   8.510
 9653SOL    HW130733   7.568  11.800   8.480
 9653SOL    HW230734   7.609  11.944   8.462
 9654SOL     OW30735  13.720  12.208   3.434
 9654SOL    HW130736  13.670  12.207   3.515
 9654SOL    HW230737  13.718  12.116   3.404
 9655SOL     OW30738   7.958  12.438   2.666
 9655SOL    HW130739   7.978  12.346   2.650
 9655SOL    HW230740   8.040  12.484   2.646
 9656SOL     OW30741  11.064   2.442   2.994
 9656SOL    HW130742  11.095   2.532   2.980
 9656SOL    HW230743  10.978   2.453   3.034
 9657SOL     OW30744   2.218   8.206  12.617
 9657SOL    HW130745   2.191   8.163  12.536
 9657SOL    HW230746   2.310   8.180  12.628
 9658SOL     OW30747   3.915   1.808  11.182
 9658SOL    HW130748   3.939   1.898  11.160
 9658SOL    HW230749   3.963   1.754  11.119
 9659SOL     OW30750  13.683   9.705  13.210
 9659SOL    HW130751  13.652   9.728  13.123
 9659SOL    HW230752  13.774   9.735  13.212
 9660SOL     OW30753   6.349   0.463  12.947
 9660SOL    HW130754   6.392   0.438  12.865
 9660SOL    HW230755   6.258   0.436  12.936
 9661SOL     OW30756   1.297  14.102   5.544
 9661SOL    HW130757   1.296  14.132   5.453
 9661SOL    HW230758   1.258  14.174   5.593
 9662SOL     OW30759   5.326   8.317   4.490
 9662SOL    HW130760   5.241   8.340   4.528
 9662SOL    HW230761   5.304   8.278   4.405
 9663SOL     OW30762  14.570   9.121   9.787
 9663SOL    HW130763  14.628   9.057   9.828
 9663SOL    HW230764  14.484   9.102   9.823
 9664SOL     OW30765   6.949   2.139   1.412
 9664SOL    HW130766   6.884   2.081   1.452
 9664SOL    HW230767   7.015   2.079   1.376
 9665SOL     OW30768   6.752   2.014  10.320
 9665SOL    HW130769   6.696   1.951  10.366
 9665SOL    HW230770   6.807   1.959  10.264
 9666SOL     OW30771  11.054   9.208   7.838
 9666SOL    HW130772  11.010   9.137   7.886
 9666SOL    HW230773  11.020   9.288   7.878
 9667SOL     OW30774   5.118   6.431   5.542
 9667SOL    HW130775   5.149   6.447   5.453
 9667SOL    HW230776   5.184   6.471   5.598
 9668SOL     OW30777  13.526   4.253   4.808
 9668SOL    HW130778  13.538   4.159   4.813
 9668SOL    HW230779  13.604   4.290   4.850
 9669SOL     OW30780  14.184  10.586   4.367
 9669SOL    HW130781  14.141  10.596   4.452
 9669SOL    HW230782  14.155  10.501   4.335
 9670SOL     OW30783   4.250   2.134   2.779
 9670SOL    HW130784   4.163   2.130   2.739
 9670SOL    HW230785   4.246   2.071   2.851
 9671SOL     OW30786  10.141   6.264  13.861
 9671SOL    HW130787  10.172   6.348  13.895
 9671SOL    HW230788  10.135   6.277  13.766
 9672SOL     OW30789  11.514   3.695   6.818
 9672SOL    HW130790  11.578   3.767   6.814
 9672SOL    HW230791  11.546   3.639   6.888
 9673SOL     OW30792   0.582   8.095  10.442
 9673SOL    HW130793   0.574   8.046  10.524
 9673SOL    HW230794   0.672   8.079  10.414
 9674SOL     OW30795   6.078   0.949   1.844
 9674SOL    HW130796   6.068   1.025   1.901
 9674SOL    HW230797   6.018   0.884   1.881
 9675SOL     OW30798   2.450   7.557  11.946
 9675SOL    HW130799   2.488   7.532  11.861
 9675SOL    HW230800   2.511   7.622  11.981
 9676SOL     OW30801   9.482   0.519   9.338
 9676SOL    HW130802   9.571   0.486   9.352
 9676SOL    HW230803   9.446   0.464   9.269
 9677SOL     OW30804   2.692   1.299   3.040
 9677SOL    HW130805   2.784   1.325   3.047
 9677SOL    HW230806   2.656   1.355   2.972
 9678SOL     OW30807  11.941   8.601  12.595
 9678SOL    HW130808  11.855   8.596  12.553
 9678SOL    HW230809  11.938   8.534  12.663
 9679SOL     OW30810   2.450   3.888   3.583
 9679SOL    HW130811   2.516   3.836   3.537
 9679SOL    HW230812   2.444   3.969   3.532
 9680SOL     OW30813   3.916  12.394   2.166
 9680SOL    HW130814   3.955  12.413   2.251
 9680SOL    HW230815   3.954  12.310   2.140
 9681SOL     OW30816   3.362  14.790   1.853
 9681SOL    HW130817   3.354  14.794   1.758
 9681SOL    HW230818   3.335  14.701   1.875
 9682SOL     OW30819   0.646   8.916   0.621
 9682SOL    HW130820   0.740   8.925   0.637
 9682SOL    HW230821   0.609   8.999   0.653
 9683SOL     OW30822   1.243   9.654  11.349
 9683SOL    HW130823   1.180   9.726  11.341
 9683SOL    HW230824   1.238   9.627  11.440
 9684SOL     OW30825  11.236  13.455   0.169
 9684SOL    HW130826  11.201  13.543   0.181
 9684SOL    HW230827  11.245  13.445   0.075
 9685SOL     OW30828   4.584  11.479   7.683
 9685SOL    HW130829   4.639  11.534   7.739
 9685SOL    HW230830   4.646  11.435   7.625
 9686SOL     OW30831   6.356   7.871  11.591
 9686SOL    HW130832   6.315   7.889  11.506
 9686SOL    HW230833   6.339   7.778  11.606
 9687SOL     OW30834  13.631   6.452   6.450
 9687SOL    HW130835  13.631   6.392   6.375
 9687SOL    HW230836  13.722   6.456   6.478
 9688SOL     OW30837   3.096   1.607  11.751
 9688SOL    HW130838   3.109   1.515  11.772
 9688SOL    HW230839   3.072   1.608  11.659
 9689SOL     OW30840   7.773   1.148   2.830
 9689SOL    HW130841   7.855   1.189   2.801
 9689SOL    HW230842   7.706   1.183   2.771
 9690SOL     OW30843   8.558  11.398   7.914
 9690SOL    HW130844   8.530  11.487   7.897
 9690SOL    HW230845   8.628  11.406   7.979
 9691SOL     OW30846   5.588   9.467   7.522
 9691SOL    HW130847   5.653   9.484   7.454
 9691SOL    HW230848   5.587   9.548   7.574
 9692SOL     OW30849   1.410   0.946   5.263
 9692SOL    HW130850   1.345   1.009   5.232
 9692SOL    HW230851   1.373   0.861   5.239
 9693SOL     OW30852  10.026   6.883   6.516
 9693SOL    HW130853   9.973   6.818   6.563
 9693SOL    HW230854   9.985   6.967   6.537
 9694SOL     OW30855   9.465   4.371   8.210
 9694SOL    HW130856   9.449   4.278   8.230
 9694SOL    HW230857   9.542   4.394   8.262
 9695SOL     OW30858   0.698  10.762  11.670
 9695SOL    HW130859   0.749  10.691  11.707
 9695SOL    HW230860   0.763  10.821  11.632
 9696SOL     OW30861   3.100  14.359   8.653
 9696SOL    HW130862   3.153  14.370   8.574
 9696SOL    HW230863   3.159  14.315   8.715
 9697SOL     OW30864   8.777  13.815  10.989
 9697SOL    HW130865   8.772  13.896  11.040
 9697SOL    HW230866   8.808  13.843  10.903
 9698SOL     OW30867   9.336  13.511   5.351
 9698SOL    HW130868   9.331  13.556   5.266
 9698SOL    HW230869   9.429  13.516   5.375
 9699SOL     OW30870  12.947   6.006   0.850
 9699SOL    HW130871  12.874   6.066   0.865
 9699SOL    HW230872  12.990   6.040   0.771
 9700SOL     OW30873  12.850  12.634   1.639
 9700SOL    HW130874  12.823  12.620   1.548
 9700SOL    HW230875  12.842  12.729   1.652
 9701SOL     OW30876   5.710  12.782  11.718
 9701SOL    HW130877   5.767  12.720  11.671
 9701SOL    HW230878   5.701  12.745  11.805
 9702SOL     OW30879   9.450   9.359   3.309
 9702SOL    HW130880   9.491   9.308   3.240
 9702SOL    HW230881   9.479   9.449   3.293
 9703SOL     OW30882   5.635   6.135   9.046
 9703SOL    HW130883   5.621   6.230   9.046
 9703SOL    HW230884   5.548   6.098   9.058
 9704SOL     OW30885   5.614   1.765   3.156
 9704SOL    HW130886   5.679   1.719   3.209
 9704SOL    HW230887   5.651   1.852   3.141
 9705SOL     OW30888  12.325   6.089  12.893
 9705SOL    HW130889  12.241   6.048  12.912
 9705SOL    HW230890  12.304   6.163  12.837
 9706SOL     OW30891   7.038  11.760   5.971
 9706SOL    HW130892   6.952  11.790   5.941
 9706SOL    HW230893   7.019  11.701   6.044
 9707SOL     OW30894   9.235   8.833  12.238
 9707SOL    HW130895   9.270   8.890  12.306
 9707SOL    HW230896   9.162   8.788  12.281
 9708SOL     OW30897  13.815   6.169   4.441
 9708SOL    HW130898  13.864   6.222   4.378
 9708SOL    HW230899  13.849   6.080   4.429
 9709SOL     OW30900  12.499  12.029   6.054
 9709SOL    HW130901  12.483  12.018   5.960
 9709SOL    HW230902  12.591  12.057   6.059
 9710SOL     OW30903   1.900  13.443   3.175
 9710SOL    HW130904   1.840  13.395   3.117
 9710SOL    HW230905   1.942  13.375   3.227
 9711SOL     OW30906   9.100  13.667   2.845
 9711SOL    HW130907   9.018  13.651   2.798
 9711SOL    HW230908   9.167  13.674   2.777
 9712SOL     OW30909  14.790  14.617  10.801
 9712SOL    HW130910  14.734  14.595  10.726
 9712SOL    HW230911  14.806  14.711  10.792
 9713SOL     OW30912   4.474   4.788   8.041
 9713SOL    HW130913   4.457   4.827   7.955
 9713SOL    HW230914   4.504   4.699   8.022
 9714SOL     OW30915  14.168   4.175  12.949
 9714SOL    HW130916  14.212   4.172  12.865
 9714SOL    HW230917  14.187   4.262  12.983
 9715SOL     OW30918  11.601   9.045   4.050
 9715SOL    HW130919  11.579   8.952   4.058
 9715SOL    HW230920  11.679   9.056   4.103
 9716SOL     OW30921   2.067   6.226   6.721
 9716SOL    HW130922   2.151   6.207   6.764
 9716SOL    HW230923   2.023   6.288   6.779
 9717SOL     OW30924  11.412  11.111   9.270
 9717SOL    HW130925  11.445  11.126   9.182
 9717SOL    HW230926  11.452  11.180   9.323
 9718SOL     OW30927   4.171   4.109   8.384
 9718SOL    HW130928   4.137   4.125   8.297
 9718SOL    HW230929   4.098   4.129   8.443
 9719SOL     OW30930   4.136   8.559  13.930
 9719SOL    HW130931   4.133   8.482  13.874
 9719SOL    HW230932   4.097   8.629  13.878
 9720SOL     OW30933   3.212   4.391   1.505
 9720SOL    HW130934   3.147   4.419   1.570
 9720SOL    HW230935   3.167   4.401   1.421
 9721SOL     OW30936  13.178  12.275   7.349
 9721SOL    HW130937  13.244  12.225   7.397
 9721SOL    HW230938  13.123  12.208   7.308
 9722SOL     OW30939   8.690   5.733  14.064
 9722SOL    HW130940   8.596   5.735  14.048
 9722SOL    HW230941   8.728   5.700  13.983
 9723SOL     OW30942  11.768   0.147   6.076
 9723SOL    HW130943  11.806   0.125   5.991
 9723SOL    HW230944  11.681   0.106   6.074
 9724SOL     OW30945  13.560   5.842   8.814
 9724SOL    HW130946  13.606   5.887   8.744
 9724SOL    HW230947  13.524   5.912   8.869
 9725SOL     OW30948   3.750   5.970   4.873
 9725SOL    HW130949   3.809   6.009   4.938
 9725SOL    HW230950   3.712   6.045   4.827
 9726SOL     OW30951   2.012   4.360   1.196
 9726SOL    HW130952   2.009   4.384   1.103
 9726SOL    HW230953   2.095   4.312   1.205
 9727SOL     OW30954  14.060   5.538  10.364
 9727SOL    HW130955  14.026   5.608  10.420
 9727SOL    HW230956  14.146   5.517  10.401
 9728SOL     OW30957   6.429   0.708  11.500
 9728SOL    HW130958   6.448   0.793  11.539
 9728SOL    HW230959   6.391   0.728  11.415
 9729SOL     OW30960   3.151   3.093   4.279
 9729SOL    HW130961   3.069   3.072   4.233
 9729SOL    HW230962   3.198   3.150   4.218
 9730SOL     OW30963  12.445   4.438   7.678
 9730SOL    HW130964  12.510   4.439   7.748
 9730SOL    HW230965  12.363   4.416   7.723
 9731SOL     OW30966  12.018   8.779   2.687
 9731SOL    HW130967  11.943   8.775   2.746
 9731SOL    HW230968  12.056   8.691   2.690
 9732SOL     OW30969   8.465   9.650   0.145
 9732SOL    HW130970   8.381   9.605   0.147
 9732SOL    HW230971   8.449   9.731   0.097
 9733SOL     OW30972  14.458   5.336   9.035
 9733SOL    HW130973  14.365   5.319   9.020
 9733SOL    HW230974  14.489   5.376   8.953
 9734SOL     OW30975   3.315  14.091   4.841
 9734SOL    HW130976   3.318  14.187   4.842
 9734SOL    HW230977   3.362  14.065   4.921
 9735SOL     OW30978   0.853   5.951   3.910
 9735SOL    HW130979   0.917   5.984   3.973
 9735SOL    HW230980   0.900   5.885   3.860
 9736SOL     OW30981   6.604   2.180  14.782
 9736SOL    HW130982   6.545   2.186  14.707
 9736SOL    HW230983   6.565   2.112  14.837
 9737SOL     OW30984  13.276  11.569   4.770
 9737SOL    HW130985  13.347  11.522   4.815
 9737SOL    HW230986  13.232  11.618   4.840
 9738SOL     OW30987   9.170   1.781  14.616
 9738SOL    HW130988   9.205   1.714  14.557
 9738SOL    HW230989   9.129   1.731  14.687
 9739SOL     OW30990   5.018   6.204  10.492
 9739SOL    HW130991   4.938   6.211  10.440
 9739SOL    HW230992   5.089   6.211  10.427
 9740SOL     OW30993  14.079   3.702  10.861
 9740SOL    HW130994  13.993   3.669  10.885
 9740SOL    HW230995  14.137   3.674  10.931
 9741SOL     OW30996  12.171  10.473   8.948
 9741SOL    HW130997  12.138  10.563   8.942
 9741SOL    HW230998  12.266  10.482   8.939
 9742SOL     OW30999  14.497   2.913   8.110
 9742SOL    HW131000  14.436   2.977   8.146
 9742SOL    HW231001  14.464   2.896   8.022
 9743SOL     OW31002  11.370   7.230   0.020
 9743SOL    HW131003  11.362   7.299   0.086
 9743SOL    HW231004  11.296   7.172   0.038
 9744SOL     OW31005   2.992   4.648   0.824
 9744SOL    HW131006   3.012   4.555   0.834
 9744SOL    HW231007   3.015   4.686   0.909
 9745SOL     OW31008   4.615   6.261   9.332
 9745SOL    HW131009   4.666   6.221   9.261
 9745SOL    HW231010   4.524   6.237   9.312
 9746SOL     OW31011  13.567  13.743  12.017
 9746SOL    HW131012  13.641  13.714  11.964
 9746SOL    HW231013  13.519  13.662  12.037
 9747SOL     OW31014   9.314  13.284   8.634
 9747SOL    HW131015   9.344  13.331   8.556
 9747SOL    HW231016   9.229  13.324   8.654
 9748SOL     OW31017   8.375   9.761   7.556
 9748SOL    HW131018   8.307   9.723   7.611
 9748SOL    HW231019   8.348   9.852   7.543
 9749SOL     OW31020  10.269   4.747  11.113
 9749SOL    HW131021  10.365   4.748  11.120
 9749SOL    HW231022  10.245   4.654  11.122
 9750SOL     OW31023   9.975   8.493   6.297
 9750SOL    HW131024   9.879   8.492   6.296
 9750SOL    HW231025  10.001   8.402   6.289
 9751SOL     OW31026  13.642   9.389   6.768
 9751SOL    HW131027  13.638   9.450   6.695
 9751SOL    HW231028  13.723   9.340   6.755
 9752SOL     OW31029   3.002  10.878   2.531
 9752SOL    HW131030   3.089  10.877   2.490
 9752SOL    HW231031   3.014  10.827   2.611
 9753SOL     OW31032   0.188  13.279   5.303
 9753SOL    HW131033   0.113  13.227   5.275
 9753SOL    HW231034   0.264  13.225   5.281
 9754SOL     OW31035  10.960   7.153   9.416
 9754SOL    HW131036  11.031   7.098   9.448
 9754SOL    HW231037  10.996   7.195   9.338
 9755SOL     OW31038   0.577  10.085   6.392
 9755SOL    HW131039   0.655  10.049   6.435
 9755SOL    HW231040   0.534  10.009   6.353
 9756SOL     OW31041   1.198   0.464  13.112
 9756SOL    HW131042   1.130   0.399  13.133
 9756SOL    HW231043   1.177   0.492  13.024
 9757SOL     OW31044  14.752  11.491   0.889
 9757SOL    HW131045  14.826  11.450   0.844
 9757SOL    HW231046  14.732  11.568   0.835
 9758SOL     OW31047   2.235  10.313   3.260
 9758SOL    HW131048   2.231  10.408   3.254
 9758SOL    HW231049   2.231  10.283   3.169
 9759SOL     OW31050   8.501   0.405   5.393
 9759SOL    HW131051   8.588   0.369   5.409
 9759SOL    HW231052   8.491   0.474   5.459
 9760SOL     OW31053   4.443   4.258  11.780
 9760SOL    HW131054   4.359   4.231  11.816
 9760SOL    HW231055   4.438   4.234  11.687
 9761SOL     OW31056   8.378  13.696  10.054
 9761SOL    HW131057   8.299  13.749  10.045
 9761SOL    HW231058   8.350  13.607  10.034
 9762SOL     OW31059   0.061   4.477   4.745
 9762SOL    HW131060   0.148   4.501   4.713
 9762SOL    HW231061   0.068   4.484   4.840
 9763SOL     OW31062   4.972   7.763   4.243
 9763SOL    HW131063   5.048   7.803   4.285
 9763SOL    HW231064   4.957   7.816   4.165
 9764SOL     OW31065   5.704  10.981  11.994
 9764SOL    HW131066   5.767  10.965  12.064
 9764SOL    HW231067   5.642  10.909  12.002
 9765SOL     OW31068  12.816   5.376   1.590
 9765SOL    HW131069  12.762   5.365   1.512
 9765SOL    HW231070  12.787   5.458   1.629
 9766SOL     OW31071   5.669   5.287  11.088
 9766SOL    HW131072   5.714   5.286  11.172
 9766SOL    HW231073   5.615   5.208  11.089
 9767SOL     OW31074   2.838   1.861   6.400
 9767SOL    HW131075   2.743   1.874   6.400
 9767SOL    HW231076   2.874   1.944   6.370
 9768SOL     OW31077   4.551   6.540   2.691
 9768SOL    HW131078   4.548   6.574   2.602
 9768SOL    HW231079   4.560   6.618   2.746
 9769SOL     OW31080  14.166   8.748   4.014
 9769SOL    HW131081  14.220   8.672   3.996
 9769SOL    HW231082  14.136   8.777   3.928
 9770SOL     OW31083  13.997   5.993   5.521
 9770SOL    HW131084  13.907   5.981   5.549
 9770SOL    HW231085  13.989   6.037   5.436
 9771SOL     OW31086   5.123  12.869   2.667
 9771SOL    HW131087   5.156  12.927   2.599
 9771SOL    HW231088   5.147  12.912   2.749
 9772SOL     OW31089  14.304   8.384  12.222
 9772SOL    HW131090  14.370   8.371  12.290
 9772SOL    HW231091  14.323   8.317  12.157
 9773SOL     OW31092   3.293   2.430   4.425
 9773SOL    HW131093   3.345   2.478   4.490
 9773SOL    HW231094   3.318   2.468   4.341
 9774SOL     OW31095  11.902   7.940   0.098
 9774SOL    HW131096  11.912   7.928   0.004
 9774SOL    HW231097  11.967   7.882   0.137
 9775SOL     OW31098   4.847   8.751  14.492
 9775SOL    HW131099   4.830   8.708  14.575
 9775SOL    HW231100   4.822   8.843  14.507
 9776SOL     OW31101  12.081   9.239   0.842
 9776SOL    HW131102  12.032   9.191   0.909
 9776SOL    HW231103  12.166   9.195   0.838
 9777SOL     OW31104  10.413   3.480   0.772
 9777SOL    HW131105  10.347   3.477   0.840
 9777SOL    HW231106  10.483   3.535   0.808
 9778SOL     OW31107  11.654   6.152   0.397
 9778SOL    HW131108  11.630   6.235   0.438
 9778SOL    HW231109  11.584   6.092   0.421
 9779SOL     OW31110   1.360  10.221   2.075
 9779SOL    HW131111   1.390  10.307   2.046
 9779SOL    HW231112   1.274  10.211   2.033
 9780SOL     OW31113   0.952   1.152   9.590
 9780SOL    HW131114   0.936   1.066   9.628
 9780SOL    HW231115   0.890   1.157   9.517
 9781SOL     OW31116   8.557  10.562   8.063
 9781SOL    HW131117   8.641  10.558   8.017
 9781SOL    HW231118   8.526  10.652   8.050
 9782SOL     OW31119   0.451   0.065   5.471
 9782SOL    HW131120   0.478   0.027   5.554
 9782SOL    HW231121   0.365   0.104   5.489
 9783SOL     OW31122   3.050  12.572   4.958
 9783SOL    HW131123   3.010  12.531   4.882
 9783SOL    HW231124   3.079  12.499   5.013
 9784SOL     OW31125   7.878   5.831   9.247
 9784SOL    HW131126   7.920   5.892   9.308
 9784SOL    HW231127   7.786   5.829   9.273
 9785SOL     OW31128   8.439   9.878   3.815
 9785SOL    HW131129   8.380   9.926   3.756
 9785SOL    HW231130   8.472   9.805   3.762
 9786SOL     OW31131  14.406   4.066   8.355
 9786SOL    HW131132  14.436   4.041   8.267
 9786SOL    HW231133  14.334   4.006   8.374
 9787SOL     OW31134   9.303   6.081  12.787
 9787SOL    HW131135   9.230   6.108  12.842
 9787SOL    HW231136   9.268   6.013  12.730
 9788SOL     OW31137  10.597   1.652  14.456
 9788SOL    HW131138  10.648   1.604  14.391
 9788SOL    HW231139  10.528   1.592  14.481
 9789SOL     OW31140   4.117   7.986  10.974
 9789SOL    HW131141   4.117   7.987  11.069
 9789SOL    HW231142   4.133   8.077  10.949
 9790SOL     OW31143   8.954   1.174   9.520
 9790SOL    HW131144   9.016   1.124   9.467
 9790SOL    HW231145   8.963   1.264   9.489
 9791SOL     OW31146   6.953   2.752   9.167
 9791SOL    HW131147   6.990   2.666   9.186
 9791SOL    HW231148   6.873   2.733   9.117
 9792SOL     OW31149   8.656   4.988  10.239
 9792SOL    HW131150   8.614   4.979  10.154
 9792SOL    HW231151   8.649   5.081  10.260
 9793SOL     OW31152   5.957   9.345   0.406
 9793SOL    HW131153   5.962   9.290   0.484
 9793SOL    HW231154   6.046   9.348   0.372
 9794SOL     OW31155   1.453  13.117  13.715
 9794SOL    HW131156   1.412  13.196  13.682
 9794SOL    HW231157   1.507  13.086  13.642
 9795SOL     OW31158  11.537   9.032  12.327
 9795SOL    HW131159  11.509   9.124  12.327
 9795SOL    HW231160  11.573   9.018  12.239
 9796SOL     OW31161   1.870   9.648  10.349
 9796SOL    HW131162   1.920   9.701  10.287
 9796SOL    HW231163   1.812   9.711  10.392
 9797SOL     OW31164   2.089   0.953   6.417
 9797SOL    HW131165   2.080   0.962   6.512
 9797SOL    HW231166   2.157   0.888   6.405
 9798SOL     OW31167   9.335   4.628  14.265
 9798SOL    HW131168   9.303   4.697  14.207
 9798SOL    HW231169   9.411   4.593  14.220
 9799SOL     OW31170  10.421   2.135   4.526
 9799SOL    HW131171  10.448   2.194   4.597
 9799SOL    HW231172  10.502   2.090   4.501
 9800SOL     OW31173   8.418   4.260  14.327
 9800SOL    HW131174   8.457   4.181  14.362
 9800SOL    HW231175   8.379   4.233  14.243
 9801SOL     OW31176   2.149  11.180  10.119
 9801SOL    HW131177   2.142  11.259  10.065
 9801SOL    HW231178   2.240  11.152  10.109
 9802SOL     OW31179   7.954   1.198  12.638
 9802SOL    HW131180   8.009   1.173  12.712
 9802SOL    HW231181   8.016   1.220  12.568
 9803SOL     OW31182   8.501   5.667  13.298
 9803SOL    HW131183   8.427   5.712  13.339
 9803SOL    HW231184   8.464   5.625  13.220
 9804SOL     OW31185  13.763  10.100   5.629
 9804SOL    HW131186  13.829  10.142   5.684
 9804SOL    HW231187  13.812  10.036   5.578
 9805SOL     OW31188   3.309   9.891   5.505
 9805SOL    HW131189   3.228   9.864   5.548
 9805SOL    HW231190   3.357   9.810   5.492
 9806SOL     OW31191  12.589  11.632   7.441
 9806SOL    HW131192  12.511  11.590   7.403
 9806SOL    HW231193  12.578  11.725   7.422
 9807SOL     OW31194   1.543  13.694  13.394
 9807SOL    HW131195   1.525  13.604  13.419
 9807SOL    HW231196   1.582  13.733  13.473
 9808SOL     OW31197   1.579   3.741   2.652
 9808SOL    HW131198   1.673   3.738   2.668
 9808SOL    HW231199   1.571   3.774   2.563
 9809SOL     OW31200  12.160  12.991   4.897
 9809SOL    HW131201  12.246  13.030   4.907
 9809SOL    HW231202  12.103  13.063   4.869
 9810SOL     OW31203  11.195   9.758   1.837
 9810SOL    HW131204  11.240   9.739   1.754
 9810SOL    HW231205  11.266   9.762   1.902
 9811SOL     OW31206   5.542   9.937   0.822
 9811SOL    HW131207   5.508  10.024   0.844
 9811SOL    HW231208   5.470   9.877   0.840
 9812SOL     OW31209   3.176  13.831  13.434
 9812SOL    HW131210   3.118  13.834  13.510
 9812SOL    HW231211   3.181  13.921  13.403
 9813SOL     OW31212   7.884  10.919   4.602
 9813SOL    HW131213   7.863  10.890   4.513
 9813SOL    HW231214   7.807  10.967   4.631
 9814SOL     OW31215   6.635  12.859  14.102
 9814SOL    HW131216   6.561  12.808  14.067
 9814SOL    HW231217   6.625  12.945  14.062
 9815SOL     OW31218   4.253   3.550   8.541
 9815SOL    HW131219   4.304   3.488   8.592
 9815SOL    HW231220   4.254   3.631   8.592
 9816SOL     OW31221   6.391   4.620  10.731
 9816SOL    HW131222   6.342   4.697  10.759
 9816SOL    HW231223   6.480   4.635  10.762
 9817SOL     OW31224   3.827   1.227   2.878
 9817SOL    HW131225   3.864   1.315   2.887
 9817SOL    HW231226   3.874   1.188   2.805
 9818SOL     OW31227   6.082   9.819  14.058
 9818SOL    HW131228   6.073   9.726  14.040
 9818SOL    HW231229   6.175   9.830  14.079
 9819SOL     OW31230   3.868  14.546   9.217
 9819SOL    HW131231   3.904  14.616   9.273
 9819SOL    HW231232   3.907  14.466   9.251
 9820SOL     OW31233   7.255  10.937   4.763
 9820SOL    HW131234   7.220  10.850   4.781
 9820SOL    HW231235   7.348  10.923   4.744
 9821SOL     OW31236  14.748   9.888   1.583
 9821SOL    HW131237  14.798   9.894   1.664
 9821SOL    HW231238  14.766   9.800   1.550
 9822SOL     OW31239  13.647   3.649   4.837
 9822SOL    HW131240  13.564   3.640   4.883
 9822SOL    HW231241  13.708   3.684   4.903
 9823SOL     OW31242  10.565   9.220  13.442
 9823SOL    HW131243  10.554   9.226  13.537
 9823SOL    HW231244  10.547   9.308  13.410
 9824SOL     OW31245  13.389   3.314  10.386
 9824SOL    HW131246  13.314   3.267  10.422
 9824SOL    HW231247  13.351   3.392  10.345
 9825SOL     OW31248  12.220   2.995   1.407
 9825SOL    HW131249  12.136   3.028   1.374
 9825SOL    HW231250  12.253   2.940   1.337
 9826SOL     OW31251  11.078   4.250   4.025
 9826SOL    HW131252  11.163   4.283   3.996
 9826SOL    HW231253  11.098   4.198   4.103
 9827SOL     OW31254  12.405  14.687   5.813
 9827SOL    HW131255  12.485  14.641   5.838
 9827SOL    HW231256  12.430  14.779   5.808
 9828SOL     OW31257  11.599  10.349   2.652
 9828SOL    HW131258  11.580  10.257   2.670
 9828SOL    HW231259  11.564  10.396   2.727
 9829SOL     OW31260  10.084   0.757  11.469
 9829SOL    HW131261  10.030   0.785  11.543
 9829SOL    HW231262  10.120   0.838  11.434
 9830SOL     OW31263   3.174   7.814   2.172
 9830SOL    HW131264   3.181   7.719   2.180
 9830SOL    HW231265   3.088   7.835   2.208
 9831SOL     OW31266   8.018   1.288   2.896
 9831SOL    HW131267   8.066   1.370   2.885
 9831SOL    HW231268   8.062   1.243   2.968
 9832SOL     OW31269  13.750  14.360   3.712
 9832SOL    HW131270  13.658  14.363   3.738
 9832SOL    HW231271  13.748  14.353   3.617
 9833SOL     OW31272   1.152   5.416   2.829
 9833SOL    HW131273   1.203   5.476   2.775
 9833SOL    HW231274   1.064   5.420   2.792
 9834SOL     OW31275   4.241  12.760   2.677
 9834SOL    HW131276   4.298  12.835   2.691
 9834SOL    HW231277   4.269  12.695   2.741
 9835SOL     OW31278  13.109   1.475  12.595
 9835SOL    HW131279  13.203   1.463  12.597
 9835SOL    HW231280  13.072   1.388  12.610
 9836SOL     OW31281   0.824   1.510   9.919
 9836SOL    HW131282   0.835   1.514  10.014
 9836SOL    HW231283   0.825   1.602   9.891
 9837SOL     OW31284  11.929   3.864   0.202
 9837SOL    HW131285  11.924   3.914   0.284
 9837SOL    HW231286  11.837   3.855   0.174
 9838SOL     OW31287  11.771   8.236   4.055
 9838SOL    HW131288  11.743   8.322   4.087
 9838SOL    HW231289  11.851   8.217   4.104
 9839SOL     OW31290   2.360   5.026   5.436
 9839SOL    HW131291   2.373   4.935   5.410
 9839SOL    HW231292   2.280   5.053   5.390
 9840SOL     OW31293   7.757   6.185  12.132
 9840SOL    HW131294   7.740   6.121  12.201
 9840SOL    HW231295   7.694   6.162  12.063
 9841SOL     OW31296  14.161  11.734  13.950
 9841SOL    HW131297  14.195  11.678  14.020
 9841SOL    HW231298  14.149  11.819  13.991
 9842SOL     OW31299   8.883   9.247  12.783
 9842SOL    HW131300   8.852   9.287  12.865
 9842SOL    HW231301   8.845   9.159  12.784
 9843SOL     OW31302  13.360  10.173  13.350
 9843SOL    HW131303  13.413  10.099  13.378
 9843SOL    HW231304  13.296  10.135  13.289
 9844SOL     OW31305   0.046   5.611   9.811
 9844SOL    HW131306  14.872   5.549   9.863
 9844SOL    HW231307  14.859   5.663   9.764
 9845SOL     OW31308   6.827   5.217  14.633
 9845SOL    HW131309   6.876   5.240  14.554
 9845SOL    HW231310   6.736   5.220  14.606
 9846SOL     OW31311   6.597   2.489  12.753
 9846SOL    HW131312   6.566   2.415  12.700
 9846SOL    HW231313   6.589   2.565  12.695
 9847SOL     OW31314  10.391   2.588  14.758
 9847SOL    HW131315  10.329   2.646  14.801
 9847SOL    HW231316  10.438   2.545  14.829
 9848SOL     OW31317  11.298   0.437   0.790
 9848SOL    HW131318  11.307   0.454   0.883
 9848SOL    HW231319  11.354   0.361   0.773
 9849SOL     OW31320  10.991   7.253   6.033
 9849SOL    HW131321  10.958   7.174   5.991
 9849SOL    HW231322  11.079   7.265   5.997
 9850SOL     OW31323   0.917   4.032   8.635
 9850SOL    HW131324   0.980   4.023   8.563
 9850SOL    HW231325   0.845   4.082   8.598
 9851SOL     OW31326   6.364   3.874   6.538
 9851SOL    HW131327   6.313   3.952   6.562
 9851SOL    HW231328   6.424   3.861   6.611
 9852SOL     OW31329   5.728   6.545   4.133
 9852SOL    HW131330   5.636   6.569   4.137
 9852SOL    HW231331   5.772   6.606   4.192
 9853SOL     OW31332   4.079   0.161   3.734
 9853SOL    HW131333   4.111   0.230   3.793
 9853SOL    HW231334   4.024   0.106   3.789
 9854SOL     OW31335   9.219   4.688  12.670
 9854SOL    HW131336   9.151   4.747  12.703
 9854SOL    HW231337   9.183   4.601  12.683
 9855SOL     OW31338   4.034   3.594   3.248
 9855SOL    HW131339   4.046   3.647   3.326
 9855SOL    HW231340   4.122   3.587   3.209
 9856SOL     OW31341   3.445   5.569  11.608
 9856SOL    HW131342   3.369   5.566  11.550
 9856SOL    HW231343   3.431   5.647  11.662
 9857SOL     OW31344   0.816   9.766  14.698
 9857SOL    HW131345   0.833   9.855  14.668
 9857SOL    HW231346   0.722   9.754  14.689
 9858SOL     OW31347  10.638  14.361   8.689
 9858SOL    HW131348  10.566  14.302   8.663
 9858SOL    HW231349  10.601  14.449   8.681
 9859SOL     OW31350   1.038   9.251   4.576
 9859SOL    HW131351   1.072   9.318   4.517
 9859SOL    HW231352   1.073   9.275   4.662
 9860SOL     OW31353   4.278   3.178   4.837
 9860SOL    HW131354   4.326   3.175   4.754
 9860SOL    HW231355   4.284   3.270   4.864
 9861SOL     OW31356  11.981   3.380  12.122
 9861SOL    HW131357  12.050   3.446  12.119
 9861SOL    HW231358  11.900   3.431  12.120
 9862SOL     OW31359   4.851  13.689  10.284
 9862SOL    HW131360   4.839  13.642  10.202
 9862SOL    HW231361   4.923  13.643  10.328
 9863SOL     OW31362   0.528  14.568   2.912
 9863SOL    HW131363   0.534  14.478   2.879
 9863SOL    HW231364   0.619  14.599   2.914
 9864SOL     OW31365   5.168   7.355   8.574
 9864SOL    HW131366   5.112   7.293   8.527
 9864SOL    HW231367   5.139   7.441   8.542
 9865SOL     OW31368   4.090  14.108  13.652
 9865SOL    HW131369   4.161  14.149  13.702
 9865SOL    HW231370   4.010  14.134  13.696
 9866SOL     OW31371  12.647   3.723   2.977
 9866SOL    HW131372  12.721   3.695   2.922
 9866SOL    HW231373  12.630   3.648   3.033
 9867SOL     OW31374   1.218   5.428   8.394
 9867SOL    HW131375   1.192   5.344   8.432
 9867SOL    HW231376   1.225   5.486   8.470
 9868SOL     OW31377   7.091   9.128   9.571
 9868SOL    HW131378   7.037   9.203   9.597
 9868SOL    HW231379   7.090   9.070   9.646
 9869SOL     OW31380   4.174   3.544   1.620
 9869SOL    HW131381   4.158   3.451   1.604
 9869SOL    HW231382   4.225   3.545   1.701
 9870SOL     OW31383   9.827  14.821   4.364
 9870SOL    HW131384   9.769  14.823   4.288
 9870SOL    HW231385   9.913  14.802   4.327
 9871SOL     OW31386   9.032   6.516   6.611
 9871SOL    HW131387   8.971   6.444   6.594
 9871SOL    HW231388   8.982   6.595   6.591
 9872SOL     OW31389   5.666  13.565   2.181
 9872SOL    HW131390   5.651  13.470   2.188
 9872SOL    HW231391   5.669  13.582   2.087
 9873SOL     OW31392   4.181   3.119  10.615
 9873SOL    HW131393   4.188   3.211  10.590
 9873SOL    HW231394   4.264   3.099  10.658
 9874SOL     OW31395   8.452   7.658  12.544
 9874SOL    HW131396   8.513   7.630  12.476
 9874SOL    HW231397   8.497   7.641  12.626
 9875SOL     OW31398   6.481   9.382  13.415
 9875SOL    HW131399   6.448   9.348  13.332
 9875SOL    HW231400   6.505   9.303  13.465
 9876SOL     OW31401   8.906   7.913  13.208
 9876SOL    HW131402   8.864   7.951  13.131
 9876SOL    HW231403   8.997   7.900  13.182
 9877SOL     OW31404   0.734  12.016  14.744
 9877SOL    HW131405   0.650  12.033  14.786
 9877SOL    HW231406   0.720  12.040  14.652
 9878SOL     OW31407   1.561  10.672  12.738
 9878SOL    HW131408   1.474  10.703  12.760
 9878SOL    HW231409   1.572  10.693  12.645
 9879SOL     OW31410   6.035  11.246  13.032
 9879SOL    HW131411   5.972  11.210  12.969
 9879SOL    HW231412   6.103  11.287  12.977
 9880SOL     OW31413   1.300   4.678  11.019
 9880SOL    HW131414   1.264   4.764  11.038
 9880SOL    HW231415   1.247   4.618  11.071
 9881SOL     OW31416  10.109   4.808   1.673
 9881SOL    HW131417  10.186   4.865   1.677
 9881SOL    HW231418  10.136   4.734   1.619
 9882SOL     OW31419   8.380   7.590   7.114
 9882SOL    HW131420   8.352   7.654   7.180
 9882SOL    HW231421   8.468   7.564   7.141
 9883SOL     OW31422   1.638   7.822  12.416
 9883SOL    HW131423   1.584   7.896  12.388
 9883SOL    HW231424   1.612   7.750  12.359
 9884SOL     OW31425   9.186   1.212  12.313
 9884SOL    HW131426   9.192   1.212  12.218
 9884SOL    HW231427   9.177   1.304  12.337
 9885SOL     OW31428  13.406   1.739   9.564
 9885SOL    HW131429  13.430   1.647   9.574
 9885SOL    HW231430  13.431   1.762   9.475
 9886SOL     OW31431  11.756   7.877   5.667
 9886SOL    HW131432  11.704   7.874   5.747
 9886SOL    HW231433  11.829   7.935   5.687
 9887SOL     OW31434   3.013  10.628   7.100
 9887SOL    HW131435   3.079  10.608   7.034
 9887SOL    HW231436   2.946  10.561   7.088
 9888SOL     OW31437   4.950   1.996  12.781
 9888SOL    HW131438   4.983   2.021  12.867
 9888SOL    HW231439   4.855   1.988  12.793
 9889SOL     OW31440   0.171   1.633   6.339
 9889SOL    HW131441   0.149   1.583   6.260
 9889SOL    HW231442   0.263   1.610   6.357
 9890SOL     OW31443   6.931  11.391   6.997
 9890SOL    HW131444   7.013  11.395   6.947
 9890SOL    HW231445   6.883  11.469   6.970
 9891SOL     OW31446   7.233   4.187  10.862
 9891SOL    HW131447   7.158   4.246  10.865
 9891SOL    HW231448   7.281   4.205  10.943
 9892SOL     OW31449   0.902   2.042   6.882
 9892SOL    HW131450   0.813   2.026   6.912
 9892SOL    HW231451   0.894   2.113   6.819
 9893SOL     OW31452  11.662   3.786   0.099
 9893SOL    HW131453  11.695   3.745   0.019
 9893SOL    HW231454  11.572   3.752   0.108
 9894SOL     OW31455   1.505   3.832   2.881
 9894SOL    HW131456   1.531   3.800   2.794
 9894SOL    HW231457   1.495   3.926   2.870
 9895SOL     OW31458   2.332   1.294   3.783
 9895SOL    HW131459   2.343   1.361   3.715
 9895SOL    HW231460   2.316   1.344   3.863
 9896SOL     OW31461  12.077  13.853  10.894
 9896SOL    HW131462  12.000  13.830  10.945
 9896SOL    HW231463  12.102  13.771  10.851
 9897SOL     OW31464   5.389  13.678   7.261
 9897SOL    HW131465   5.344  13.763   7.263
 9897SOL    HW231466   5.388  13.649   7.352
 9898SOL     OW31467   6.074   5.166  14.292
 9898SOL    HW131468   6.068   5.255  14.256
 9898SOL    HW231469   5.983   5.142  14.311
 9899SOL     OW31470  12.915   4.014  13.269
 9899SOL    HW131471  12.869   3.985  13.348
 9899SOL    HW231472  13.008   4.007  13.291
 9900SOL     OW31473   9.189   4.871   3.566
 9900SOL    HW131474   9.103   4.829   3.571
 9900SOL    HW231475   9.227   4.857   3.653
 9901SOL     OW31476  10.246   6.336   4.928
 9901SOL    HW131477  10.174   6.327   4.866
 9901SOL    HW231478  10.241   6.258   4.982
 9902SOL     OW31479   6.678   9.625   3.218
 9902SOL    HW131480   6.672   9.622   3.123
 9902SOL    HW231481   6.590   9.650   3.247
 9903SOL     OW31482   4.441  13.124   2.973
 9903SOL    HW131483   4.422  13.120   3.067
 9903SOL    HW231484   4.537  13.124   2.968
 9904SOL     OW31485   3.316  12.865   6.560
 9904SOL    HW131486   3.391  12.922   6.577
 9904SOL    HW231487   3.283  12.843   6.647
 9905SOL     OW31488  12.820   6.904   8.403
 9905SOL    HW131489  12.807   6.843   8.331
 9905SOL    HW231490  12.747   6.966   8.396
 9906SOL     OW31491   1.530  11.970  12.147
 9906SOL    HW131492   1.622  11.986  12.129
 9906SOL    HW231493   1.484  12.042  12.104
 9907SOL     OW31494   1.865   3.105   7.138
 9907SOL    HW131495   1.950   3.149   7.128
 9907SOL    HW231496   1.831   3.097   7.050
 9908SOL     OW31497   0.266  13.817   5.869
 9908SOL    HW131498   0.279  13.759   5.944
 9908SOL    HW231499   0.355  13.842   5.843
 9909SOL     OW31500  12.224   0.197  14.684
 9909SOL    HW131501  12.245   0.221  14.774
 9909SOL    HW231502  12.304   0.215  14.635
 9910SOL     OW31503   4.791  12.513   3.920
 9910SOL    HW131504   4.822  12.544   4.006
 9910SOL    HW231505   4.757  12.425   3.937
 9911SOL     OW31506  11.342  10.386   3.881
 9911SOL    HW131507  11.403  10.318   3.853
 9911SOL    HW231508  11.328  10.368   3.974
 9912SOL     OW31509   7.888  12.605  10.855
 9912SOL    HW131510   7.966  12.609  10.910
 9912SOL    HW231511   7.894  12.520  10.810
 9913SOL     OW31512   9.343   9.437   7.472
 9913SOL    HW131513   9.265   9.423   7.418
 9913SOL    HW231514   9.309   9.450   7.560
 9914SOL     OW31515   7.672  12.860   9.711
 9914SOL    HW131516   7.693  12.767   9.716
 9914SOL    HW231517   7.736  12.902   9.769
 9915SOL     OW31518  10.626  12.145   3.615
 9915SOL    HW131519  10.679  12.066   3.613
 9915SOL    HW231520  10.689  12.217   3.608
 9916SOL     OW31521  11.869   8.995   1.968
 9916SOL    HW131522  11.784   8.992   2.011
 9916SOL    HW231523  11.859   9.060   1.898
 9917SOL     OW31524   5.168   6.447   4.234
 9917SOL    HW131525   5.250   6.405   4.259
 9917SOL    HW231526   5.156   6.516   4.299
 9918SOL     OW31527  11.295   0.437  11.341
 9918SOL    HW131528  11.294   0.422  11.436
 9918SOL    HW231529  11.366   0.380  11.310
 9919SOL     OW31530   3.060  11.010   8.058
 9919SOL    HW131531   2.989  11.072   8.075
 9919SOL    HW231532   3.015  10.925   8.047
 9920SOL     OW31533   0.165   2.382   6.331
 9920SOL    HW131534   0.183   2.339   6.248
 9920SOL    HW231535   0.212   2.331   6.396
 9921SOL     OW31536  13.721  13.403  10.176
 9921SOL    HW131537  13.658  13.360  10.118
 9921SOL    HW231538  13.761  13.471  10.122
 9922SOL     OW31539   0.838   0.636  12.861
 9922SOL    HW131540   0.838   0.719  12.909
 9922SOL    HW231541   0.763   0.643  12.802
 9923SOL     OW31542   6.779   1.790   0.690
 9923SOL    HW131543   6.776   1.702   0.730
 9923SOL    HW231544   6.808   1.774   0.600
 9924SOL     OW31545  12.150  14.263   5.378
 9924SOL    HW131546  12.106  14.211   5.311
 9924SOL    HW231547  12.131  14.354   5.355
 9925SOL     OW31548  12.024  10.069   6.704
 9925SOL    HW131549  12.064   9.998   6.654
 9925SOL    HW231550  12.002  10.028   6.789
 9926SOL     OW31551   4.216   4.170  11.949
 9926SOL    HW131552   4.245   4.115  12.023
 9926SOL    HW231553   4.161   4.111  11.897
 9927SOL     OW31554   3.159  10.246  13.704
 9927SOL    HW131555   3.140  10.339  13.715
 9927SOL    HW231556   3.254  10.239  13.714
 9928SOL     OW31557   6.492   1.823   2.987
 9928SOL    HW131558   6.540   1.860   2.913
 9928SOL    HW231559   6.491   1.892   3.053
 9929SOL     OW31560   0.962   9.528  13.550
 9929SOL    HW131561   1.001   9.553  13.633
 9929SOL    HW231562   0.920   9.608  13.517
 9930SOL     OW31563  14.861  10.666   5.662
 9930SOL    HW131564  14.832  10.756   5.650
 9930SOL    HW231565   0.039  10.649   5.586
 9931SOL     OW31566  13.519   6.413  13.121
 9931SOL    HW131567  13.563   6.497  13.135
 9931SOL    HW231568  13.430   6.438  13.096
 9932SOL     OW31569   1.401  11.426   8.711
 9932SOL    HW131570   1.312  11.398   8.731
 9932SOL    HW231571   1.390  11.514   8.674
 9933SOL     OW31572   6.964   9.736   5.648
 9933SOL    HW131573   7.020   9.776   5.583
 9933SOL    HW231574   6.933   9.808   5.702
 9934SOL     OW31575   2.407  13.972  12.208
 9934SOL    HW131576   2.494  13.960  12.170
 9934SOL    HW231577   2.422  13.971  12.302
 9935SOL     OW31578   9.646  12.550   2.322
 9935SOL    HW131579   9.709  12.547   2.394
 9935SOL    HW231580   9.674  12.624   2.268
 9936SOL     OW31581   2.200   7.041   7.062
 9936SOL    HW131582   2.256   7.063   7.136
 9936SOL    HW231583   2.207   6.946   7.055
 9937SOL     OW31584  14.498   7.932   8.637
 9937SOL    HW131585  14.577   7.984   8.652
 9937SOL    HW231586  14.515   7.849   8.683
 9938SOL     OW31587   6.144  12.521   7.121
 9938SOL    HW131588   6.074  12.486   7.176
 9938SOL    HW231589   6.097  12.562   7.048
 9939SOL     OW31590   3.829   4.945  12.434
 9939SOL    HW131591   3.779   4.888  12.376
 9939SOL    HW231592   3.812   4.911  12.522
 9940SOL     OW31593   6.430   3.897   2.683
 9940SOL    HW131594   6.449   3.936   2.598
 9940SOL    HW231595   6.448   3.804   2.671
 9941SOL     OW31596  10.474   6.688   5.476
 9941SOL    HW131597  10.513   6.665   5.560
 9941SOL    HW231598  10.403   6.624   5.464
 9942SOL     OW31599  10.828  14.065   6.469
 9942SOL    HW131600  10.859  14.153   6.489
 9942SOL    HW231601  10.905  14.020   6.433
 9943SOL     OW31602   2.655   3.448   7.597
 9943SOL    HW131603   2.731   3.505   7.586
 9943SOL    HW231604   2.686   3.378   7.655
 9944SOL     OW31605   6.482   1.578   0.880
 9944SOL    HW131606   6.491   1.564   0.786
 9944SOL    HW231607   6.530   1.659   0.897
 9945SOL     OW31608   8.206   9.522   0.102
 9945SOL    HW131609   8.198   9.430   0.079
 9945SOL    HW231610   8.183   9.569   0.022
 9946SOL     OW31611   6.141   9.700   5.591
 9946SOL    HW131612   6.151   9.674   5.499
 9946SOL    HW231613   6.050   9.682   5.611
 9947SOL     OW31614  12.292   3.996  10.179
 9947SOL    HW131615  12.287   3.974  10.272
 9947SOL    HW231616  12.203   3.981  10.146
 9948SOL     OW31617  14.002   2.434   0.169
 9948SOL    HW131618  14.018   2.529   0.165
 9948SOL    HW231619  14.004   2.414   0.263
 9949SOL     OW31620  11.543   6.968  14.761
 9949SOL    HW131621  11.515   7.059  14.749
 9949SOL    HW231622  11.469   6.916  14.729
 9950SOL     OW31623   8.025  10.579   2.426
 9950SOL    HW131624   8.001  10.515   2.493
 9950SOL    HW231625   7.942  10.610   2.390
 9951SOL     OW31626   1.627   3.340   6.497
 9951SOL    HW131627   1.683   3.344   6.574
 9951SOL    HW231628   1.606   3.248   6.486
 9952SOL     OW31629  10.198  11.851   8.263
 9952SOL    HW131630  10.274  11.869   8.209
 9952SOL    HW231631  10.190  11.756   8.263
 9953SOL     OW31632   4.250  11.659   3.217
 9953SOL    HW131633   4.174  11.675   3.273
 9953SOL    HW231634   4.237  11.569   3.187
 9954SOL     OW31635  12.591   7.162  12.048
 9954SOL    HW131636  12.631   7.161  11.961
 9954SOL    HW231637  12.664   7.148  12.108
 9955SOL     OW31638  13.139   0.286  11.920
 9955SOL    HW131639  13.074   0.350  11.952
 9955SOL    HW231640  13.102   0.253  11.839
 9956SOL     OW31641   9.270   2.805   9.019
 9956SOL    HW131642   9.257   2.733   9.081
 9956SOL    HW231643   9.192   2.805   8.964
 9957SOL     OW31644   4.351  12.254  10.579
 9957SOL    HW131645   4.382  12.194  10.647
 9957SOL    HW231646   4.431  12.290  10.541
 9958SOL     OW31647  10.050  11.529  11.518
 9958SOL    HW131648  10.042  11.448  11.568
 9958SOL    HW231649  10.138  11.562  11.539
 9959SOL     OW31650   3.338   3.209   3.082
 9959SOL    HW131651   3.418   3.156   3.073
 9959SOL    HW231652   3.326   3.249   2.996
 9960SOL     OW31653   5.487   7.190   9.264
 9960SOL    HW131654   5.430   7.173   9.338
 9960SOL    HW231655   5.548   7.257   9.296
 9961SOL     OW31656   3.379   8.740  13.368
 9961SOL    HW131657   3.329   8.660  13.355
 9961SOL    HW231658   3.316   8.802  13.404
 9962SOL     OW31659   4.831  12.824  10.134
 9962SOL    HW131660   4.861  12.808  10.045
 9962SOL    HW231661   4.736  12.828  10.127
 9963SOL     OW31662   7.351  13.684   6.266
 9963SOL    HW131663   7.328  13.591   6.262
 9963SOL    HW231664   7.446  13.686   6.254
 9964SOL     OW31665  12.127   6.055   6.670
 9964SOL    HW131666  12.089   6.072   6.756
 9964SOL    HW231667  12.106   5.963   6.652
 9965SOL     OW31668   9.518   7.280  11.280
 9965SOL    HW131669   9.503   7.192  11.315
 9965SOL    HW231670   9.592   7.269  11.220
 9966SOL     OW31671  11.109   8.244   4.042
 9966SOL    HW131672  11.020   8.228   4.073
 9966SOL    HW231673  11.125   8.172   3.980
 9967SOL     OW31674   6.332   1.879  14.495
 9967SOL    HW131675   6.344   1.974  14.500
 9967SOL    HW231676   6.365   1.847  14.579
 9968SOL     OW31677   4.542  13.746   9.917
 9968SOL    HW131678   4.522  13.663   9.962
 9968SOL    HW231679   4.469  13.803   9.940
 9969SOL     OW31680  14.079   3.912   9.695
 9969SOL    HW131681  14.093   3.915   9.601
 9969SOL    HW231682  14.111   3.996   9.728
 9970SOL     OW31683  14.608   7.891   9.376
 9970SOL    HW131684  14.590   7.982   9.353
 9970SOL    HW231685  14.676   7.864   9.314
 9971SOL     OW31686  14.706  11.555   3.542
 9971SOL    HW131687  14.664  11.641   3.548
 9971SOL    HW231688  14.668  11.516   3.463
 9972SOL     OW31689   4.290  10.666   9.281
 9972SOL    HW131690   4.383  10.684   9.268
 9972SOL    HW231691   4.287  10.602   9.352
 9973SOL     OW31692   8.255   7.700   7.348
 9973SOL    HW131693   8.199   7.691   7.425
 9973SOL    HW231694   8.323   7.763   7.375
 9974SOL     OW31695  13.933   8.194   7.269
 9974SOL    HW131696  13.982   8.167   7.192
 9974SOL    HW231697  13.958   8.285   7.283
 9975SOL     OW31698   8.009   5.786   6.974
 9975SOL    HW131699   7.973   5.720   7.033
 9975SOL    HW231700   8.104   5.780   6.984
 9976SOL     OW31701  11.779   9.473   8.860
 9976SOL    HW131702  11.730   9.496   8.782
 9976SOL    HW231703  11.722   9.499   8.933
 9977SOL     OW31704  12.874   2.737  12.612
 9977SOL    HW131705  12.932   2.693  12.550
 9977SOL    HW231706  12.908   2.711  12.698
 9978SOL     OW31707   0.002   0.705   0.499
 9978SOL    HW131708  14.796   0.670   0.529
 9978SOL    HW231709   0.012   0.788   0.545
 9979SOL     OW31710   9.995   9.035   1.439
 9979SOL    HW131711  10.042   9.097   1.384
 9979SOL    HW231712   9.926   9.087   1.482
 9980SOL     OW31713   8.748   5.795   2.924
 9980SOL    HW131714   8.810   5.763   2.990
 9980SOL    HW231715   8.729   5.885   2.950
 9981SOL     OW31716  14.251   1.046   9.153
 9981SOL    HW131717  14.222   1.064   9.064
 9981SOL    HW231718  14.222   0.957   9.171
 9982SOL     OW31719   6.997   4.564  11.528
 9982SOL    HW131720   7.064   4.512  11.571
 9982SOL    HW231721   7.040   4.600  11.450
 9983SOL     OW31722  13.587   2.352   8.004
 9983SOL    HW131723  13.607   2.394   8.089
 9983SOL    HW231724  13.527   2.281   8.026
 9984SOL     OW31725   6.999  11.499  13.617
 9984SOL    HW131726   7.037  11.443  13.549
 9984SOL    HW231727   6.912  11.522  13.582
 9985SOL     OW31728  12.259   7.051   2.687
 9985SOL    HW131729  12.224   6.992   2.753
 9985SOL    HW231730  12.229   7.138   2.715
 9986SOL     OW31731   0.932  11.688  14.738
 9986SOL    HW131732   0.858  11.653  14.687
 9986SOL    HW231733   0.890  11.735  14.810
 9987SOL     OW31734  12.802   9.541   5.412
 9987SOL    HW131735  12.855   9.612   5.449
 9987SOL    HW231736  12.722   9.541   5.463
 9988SOL     OW31737   4.888   5.981   3.448
 9988SOL    HW131738   4.939   5.928   3.509
 9988SOL    HW231739   4.938   6.062   3.437
 9989SOL     OW31740   4.049   2.400   3.094
 9989SOL    HW131741   4.109   2.364   3.160
 9989SOL    HW231742   4.093   2.478   3.062
 9990SOL     OW31743   0.621   8.855   9.247
 9990SOL    HW131744   0.541   8.901   9.221
 9990SOL    HW231745   0.659   8.825   9.165
 9991SOL     OW31746  11.190   9.388   1.718
 9991SOL    HW131747  11.226   9.332   1.649
 9991SOL    HW231748  11.119   9.336   1.756
 9992SOL     OW31749   7.410   6.260  11.992
 9992SOL    HW131750   7.483   6.209  11.958
 9992SOL    HW231751   7.449   6.316  12.059
 9993SOL     OW31752   4.679   7.386   2.962
 9993SOL    HW131753   4.597   7.349   2.928
 9993SOL    HW231754   4.711   7.321   3.024
 9994SOL     OW31755   4.184   8.576  12.754
 9994SOL    HW131756   4.136   8.523  12.690
 9994SOL    HW231757   4.165   8.666  12.729
 9995SOL     OW31758   4.728   0.021   3.533
 9995SOL    HW131759   4.691  14.867   3.450
 9995SOL    HW231760   4.771  14.821   3.570
 9996SOL     OW31761   1.887  14.233   5.470
 9996SOL    HW131762   1.964  14.202   5.518
 9996SOL    HW231763   1.821  14.250   5.538
 9997SOL     OW31764   8.777  11.775   4.852
 9997SOL    HW131765   8.804  11.776   4.760
 9997SOL    HW231766   8.856  11.752   4.901
 9998SOL     OW31767  12.966   7.853  10.029
 9998SOL    HW131768  13.008   7.925  10.076
 9998SOL    HW231769  12.886   7.892   9.992
 9999SOL     OW31770   4.988  10.112   0.469
 9999SOL    HW131771   4.905  10.160   0.461
 9999SOL    HW231772   4.966  10.036   0.522
10000SOL     OW31773  12.268  11.124  14.654
10000SOL    HW131774  12.321  11.078  14.589
10000SOL    HW231775  12.327  11.138  14.728
10001SOL     OW31776   7.460   6.918   6.538
10001SOL    HW131777   7.424   6.990   6.590
10001SOL    HW231778   7.552   6.912   6.566
10002SOL     OW31779  13.700   3.263  10.127
10002SOL    HW131780  13.633   3.293  10.065
10002SOL    HW231781  13.657   3.264  10.212
10003SOL     OW31782   4.079   1.895   2.401
10003SOL    HW131783   4.018   1.923   2.334
10003SOL    HW231784   4.163   1.884   2.355
10004SOL     OW31785  10.193   8.952   3.577
10004SOL    HW131786  10.182   8.907   3.661
10004SOL    HW231787  10.136   9.029   3.583
10005SOL     OW31788   8.283   8.777   9.711
10005SOL    HW131789   8.252   8.859   9.749
10005SOL    HW231790   8.309   8.800   9.622
10006SOL     OW31791   5.297   5.711  11.997
10006SOL    HW131792   5.241   5.756  11.934
10006SOL    HW231793   5.329   5.634  11.950
10007SOL     OW31794   6.214  11.106  11.251
10007SOL    HW131795   6.223  11.183  11.195
10007SOL    HW231796   6.124  11.076  11.236
10008SOL     OW31797  14.714  13.185   7.362
10008SOL    HW131798  14.697  13.245   7.289
10008SOL    HW231799  14.770  13.117   7.324
10009SOL     OW31800   2.386  11.563  12.718
10009SOL    HW131801   2.296  11.572  12.750
10009SOL    HW231802   2.439  11.611  12.781
10010SOL     OW31803  13.245   9.215   3.959
10010SOL    HW131804  13.207   9.219   4.047
10010SOL    HW231805  13.173   9.237   3.901
10011SOL     OW31806   6.254   0.363   4.562
10011SOL    HW131807   6.203   0.282   4.562
10011SOL    HW231808   6.212   0.417   4.629
10012SOL     OW31809  13.430   9.452  12.433
10012SOL    HW131810  13.443   9.547  12.435
10012SOL    HW231811  13.337   9.440  12.453
10013SOL     OW31812   3.407   3.551   9.668
10013SOL    HW131813   3.406   3.463   9.629
10013SOL    HW231814   3.443   3.537   9.756
10014SOL     OW31815  12.476  10.461  13.146
10014SOL    HW131816  12.559  10.492  13.109
10014SOL    HW231817  12.415  10.532  13.131
10015SOL     OW31818   7.720  11.618   2.216
10015SOL    HW131819   7.798  11.564   2.201
10015SOL    HW231820   7.664  11.598   2.141
10016SOL     OW31821   0.516   8.666   3.479
10016SOL    HW131822   0.568   8.723   3.535
10016SOL    HW231823   0.426   8.676   3.512
10017SOL     OW31824  13.311   1.452  11.115
10017SOL    HW131825  13.253   1.435  11.190
10017SOL    HW231826  13.251   1.475  11.044
10018SOL     OW31827   3.125   0.061   7.378
10018SOL    HW131828   3.194   0.017   7.327
10018SOL    HW231829   3.170   0.094   7.455
10019SOL     OW31830  11.056  14.830   0.868
10019SOL    HW131831  11.086  14.853   0.955
10019SOL    HW231832  10.978  14.776   0.882
10020SOL     OW31833  10.737  13.404   1.008
10020SOL    HW131834  10.730  13.481   0.951
10020SOL    HW231835  10.807  13.426   1.070
10021SOL     OW31836   3.226   4.079  10.883
10021SOL    HW131837   3.269   4.072  10.968
10021SOL    HW231838   3.211   3.988  10.856
10022SOL     OW31839   3.723   4.196  10.312
10022SOL    HW131840   3.743   4.103  10.318
10022SOL    HW231841   3.779   4.229  10.242
10023SOL     OW31842   0.017   8.822   9.632
10023SOL    HW131843   0.053   8.735   9.649
10023SOL    HW231844  14.801   8.812   9.645
10024SOL     OW31845  10.907   6.067   4.587
10024SOL    HW131846  10.863   6.100   4.509
10024SOL    HW231847  10.965   5.998   4.555
10025SOL     OW31848   5.661  12.741   1.707
10025SOL    HW131849   5.753  12.720   1.689
10025SOL    HW231850   5.660  12.764   1.800
10026SOL     OW31851   8.710   6.126   1.540
10026SOL    HW131852   8.687   6.052   1.483
10026SOL    HW231853   8.653   6.197   1.510
10027SOL     OW31854   6.518  13.834  11.578
10027SOL    HW131855   6.549  13.892  11.509
10027SOL    HW231856   6.597  13.787  11.606
10028SOL     OW31857   6.036   2.043   3.454
10028SOL    HW131858   6.123   2.026   3.490
10028SOL    HW231859   6.051   2.108   3.386
10029SOL     OW31860  11.291   7.222  13.312
10029SOL    HW131861  11.240   7.288  13.359
10029SOL    HW231862  11.232   7.148  13.303
10030SOL     OW31863   0.713   7.090   5.943
10030SOL    HW131864   0.652   7.164   5.947
10030SOL    HW231865   0.719   7.069   5.850
10031SOL     OW31866   9.283   1.644   8.292
10031SOL    HW131867   9.315   1.696   8.219
10031SOL    HW231868   9.362   1.608   8.333
10032SOL     OW31869   4.462   4.040  11.188
10032SOL    HW131870   4.513   4.113  11.151
10032SOL    HW231871   4.376   4.048  11.146
10033SOL     OW31872   1.862  11.431   7.554
10033SOL    HW131873   1.838  11.370   7.484
10033SOL    HW231874   1.919  11.381   7.612
10034SOL     OW31875  12.865  14.592   7.923
10034SOL    HW131876  12.920  14.631   7.992
10034SOL    HW231877  12.873  14.653   7.850
10035SOL     OW31878   8.019  11.244  12.129
10035SOL    HW131879   8.003  11.155  12.097
10035SOL    HW231880   7.949  11.296  12.090
10036SOL     OW31881   3.032  14.260   2.646
10036SOL    HW131882   3.109  14.203   2.639
10036SOL    HW231883   3.018  14.292   2.557
10037SOL     OW31884   9.015   2.534   0.214
10037SOL    HW131885   9.077   2.605   0.231
10037SOL    HW231886   9.070   2.459   0.190
10038SOL     OW31887  14.430   1.842   6.584
10038SOL    HW131888  14.392   1.928   6.564
10038SOL    HW231889  14.359   1.795   6.628
10039SOL     OW31890   4.931  13.719   0.929
10039SOL    HW131891   4.848  13.708   0.882
10039SOL    HW231892   4.988  13.762   0.866
10040SOL     OW31893   3.577  14.749   9.350
10040SOL    HW131894   3.513  14.795   9.403
10040SOL    HW231895   3.621  14.690   9.411
10041SOL     OW31896   7.036   4.604   9.687
10041SOL    HW131897   7.012   4.679   9.632
10041SOL    HW231898   7.028   4.638   9.777
10042SOL     OW31899  13.912   9.979  10.383
10042SOL    HW131900  13.961  10.006  10.461
10042SOL    HW231901  13.921   9.884  10.380
10043SOL     OW31902   4.314   8.906   5.416
10043SOL    HW131903   4.298   8.948   5.500
10043SOL    HW231904   4.403   8.932   5.392
10044SOL     OW31905   1.472  12.616  11.222
10044SOL    HW131906   1.450  12.553  11.153
10044SOL    HW231907   1.566  12.631  11.211
10045SOL     OW31908   8.338  10.285  12.695
10045SOL    HW131909   8.278  10.336  12.749
10045SOL    HW231910   8.301  10.291  12.607
10046SOL     OW31911   2.581   8.293   1.738
10046SOL    HW131912   2.533   8.331   1.665
10046SOL    HW231913   2.618   8.212   1.703
10047SOL     OW31914   8.141   5.539   4.387
10047SOL    HW131915   8.077   5.468   4.387
10047SOL    HW231916   8.130   5.581   4.301
10048SOL     OW31917   5.281   7.517   0.055
10048SOL    HW131918   5.202   7.545   0.100
10048SOL    HW231919   5.250   7.480  14.849
10049SOL     OW31920   1.703   9.868   2.059
10049SOL    HW131921   1.663   9.931   1.999
10049SOL    HW231922   1.667   9.891   2.145
10050SOL     OW31923   9.020   8.963   6.326
10050SOL    HW131924   9.052   9.024   6.260
10050SOL    HW231925   8.927   8.952   6.304
10051SOL     OW31926   4.196  13.218   2.850
10051SOL    HW131927   4.269  13.194   2.906
10051SOL    HW231928   4.118  13.192   2.899
10052SOL     OW31929   1.291   9.170   1.279
10052SOL    HW131930   1.336   9.254   1.289
10052SOL    HW231931   1.353   9.115   1.231
10053SOL     OW31932  12.377  11.405  10.917
10053SOL    HW131933  12.456  11.450  10.947
10053SOL    HW231934  12.309  11.433  10.977
10054SOL     OW31935  10.166   0.138  12.037
10054SOL    HW131936  10.139   0.154  11.946
10054SOL    HW231937  10.220   0.059  12.032
10055SOL     OW31938   8.995   7.406   0.407
10055SOL    HW131939   8.944   7.345   0.459
10055SOL    HW231940   9.075   7.420   0.458
10056SOL     OW31941   7.181   9.584   9.563
10056SOL    HW131942   7.152   9.659   9.615
10056SOL    HW231943   7.270   9.606   9.538
10057SOL     OW31944  13.419   2.935   5.167
10057SOL    HW131945  13.397   2.900   5.081
10057SOL    HW231946  13.486   3.002   5.149
10058SOL     OW31947   8.322   4.832   9.158
10058SOL    HW131948   8.244   4.840   9.213
10058SOL    HW231949   8.389   4.797   9.217
10059SOL     OW31950   9.123   7.143   8.573
10059SOL    HW131951   9.154   7.076   8.511
10059SOL    HW231952   9.193   7.208   8.575
10060SOL     OW31953  10.262  10.022  14.342
10060SOL    HW131954  10.225  10.052  14.259
10060SOL    HW231955  10.306   9.940  14.320
10061SOL     OW31956   0.791   7.297   4.082
10061SOL    HW131957   0.772   7.370   4.023
10061SOL    HW231958   0.736   7.311   4.158
10062SOL     OW31959  11.294   8.601   7.728
10062SOL    HW131960  11.200   8.620   7.733
10062SOL    HW231961  11.324   8.644   7.649
10063SOL     OW31962   0.754   0.554   7.473
10063SOL    HW131963   0.725   0.464   7.487
10063SOL    HW231964   0.673   0.605   7.470
10064SOL     OW31965   1.735   6.325   6.685
10064SOL    HW131966   1.655   6.314   6.738
10064SOL    HW231967   1.773   6.238   6.680
10065SOL     OW31968  10.105   7.471  13.190
10065SOL    HW131969  10.068   7.538  13.133
10065SOL    HW231970  10.156   7.415  13.132
10066SOL     OW31971   4.351   3.025   3.992
10066SOL    HW131972   4.383   3.018   4.081
10066SOL    HW231973   4.361   3.118   3.970
10067SOL     OW31974   3.612  12.879   8.875
10067SOL    HW131975   3.546  12.941   8.843
10067SOL    HW231976   3.689  12.895   8.820
10068SOL     OW31977  13.204   0.754   8.212
10068SOL    HW131978  13.294   0.784   8.202
10068SOL    HW231979  13.211   0.660   8.224
10069SOL     OW31980   7.613   7.431   1.650
10069SOL    HW131981   7.653   7.515   1.627
10069SOL    HW231982   7.683   7.367   1.637
10070SOL     OW31983   2.463   3.207  13.910
10070SOL    HW131984   2.499   3.291  13.942
10070SOL    HW231985   2.386   3.192  13.966
10071SOL     OW31986   9.328   3.956  14.111
10071SOL    HW131987   9.388   3.910  14.053
10071SOL    HW231988   9.333   4.048  14.083
10072SOL     OW31989   8.250   9.231   7.758
10072SOL    HW131990   8.333   9.220   7.713
10072SOL    HW231991   8.273   9.270   7.842
10073SOL     OW31992   1.299   4.146   9.940
10073SOL    HW131993   1.334   4.174   9.855
10073SOL    HW231994   1.284   4.052   9.930
10074SOL     OW31995   4.486  11.769  13.524
10074SOL    HW131996   4.555  11.818  13.481
10074SOL    HW231997   4.493  11.794  13.617
10075SOL     OW31998   4.039   2.063   0.498
10075SOL    HW131999   4.117   2.018   0.467
10075SOL    HW232000   3.966   2.019   0.454
10076SOL     OW32001   5.564   9.444  14.218
10076SOL    HW132002   5.593   9.427  14.308
10076SOL    HW232003   5.571   9.360  14.174
10077SOL     OW32004   3.802   6.138  11.311
10077SOL    HW132005   3.852   6.098  11.382
10077SOL    HW232006   3.769   6.220  11.349
10078SOL     OW32007  12.586   5.163  10.077
10078SOL    HW132008  12.500   5.171  10.118
10078SOL    HW232009  12.567   5.135   9.987
10079SOL     OW32010   1.161  14.527   4.578
10079SOL    HW132011   1.240  14.478   4.552
10079SOL    HW232012   1.111  14.465   4.630
10080SOL     OW32013   3.509   8.985  11.544
10080SOL    HW132014   3.602   8.975  11.567
10080SOL    HW232015   3.492   9.079  11.553
10081SOL     OW32016   4.226   9.492   7.028
10081SOL    HW132017   4.192   9.444   7.103
10081SOL    HW232018   4.248   9.424   6.964
10082SOL     OW32019   0.284   2.113  13.821
10082SOL    HW132020   0.322   2.141  13.904
10082SOL    HW232021   0.253   2.194  13.779
10083SOL     OW32022  12.963   7.037  10.098
10083SOL    HW132023  12.957   7.128  10.127
10083SOL    HW232024  13.045   7.033  10.048
10084SOL     OW32025   2.271   9.246  13.312
10084SOL    HW132026   2.260   9.152  13.298
10084SOL    HW232027   2.324   9.253  13.391
10085SOL     OW32028   5.408  12.519   5.072
10085SOL    HW132029   5.313  12.522   5.056
10085SOL    HW232030   5.445  12.490   4.988
10086SOL     OW32031  12.435   6.664   0.657
10086SOL    HW132032  12.385   6.729   0.705
10086SOL    HW232033  12.426   6.584   0.709
10087SOL     OW32034  11.338  13.130   4.711
10087SOL    HW132035  11.307  13.220   4.724
10087SOL    HW232036  11.433  13.138   4.707
10088SOL     OW32037  11.505   6.455  10.743
10088SOL    HW132038  11.464   6.405  10.672
10088SOL    HW232039  11.449   6.437  10.819
10089SOL     OW32040   2.550  13.699  11.544
10089SOL    HW132041   2.584  13.728  11.459
10089SOL    HW232042   2.620  13.718  11.606
10090SOL     OW32043  13.221   8.741   7.882
10090SOL    HW132044  13.164   8.705   7.814
10090SOL    HW232045  13.173   8.727   7.963
10091SOL     OW32046   9.547  12.713   3.824
10091SOL    HW132047   9.562  12.752   3.738
10091SOL    HW232048   9.458  12.739   3.847
10092SOL     OW32049   1.190   2.029  10.536
10092SOL    HW132050   1.202   1.950  10.483
10092SOL    HW232051   1.252   2.018  10.609
10093SOL     OW32052  14.599   6.528   8.680
10093SOL    HW132053  14.528   6.563   8.627
10093SOL    HW232054  14.635   6.456   8.629
10094SOL     OW32055   7.098   8.896   5.417
10094SOL    HW132056   7.179   8.860   5.380
10094SOL    HW232057   7.128   8.953   5.488
10095SOL     OW32058  12.187   0.812   3.070
10095SOL    HW132059  12.200   0.726   3.030
10095SOL    HW232060  12.094   0.814   3.093
10096SOL     OW32061   5.919  14.061   9.797
10096SOL    HW132062   5.912  14.143   9.845
10096SOL    HW232063   5.886  14.082   9.709
10097SOL     OW32064  12.131   7.432  14.092
10097SOL    HW132065  12.162   7.475  14.012
10097SOL    HW232066  12.036   7.439  14.088
10098SOL     OW32067  14.070   2.853   7.017
10098SOL    HW132068  14.146   2.798   7.035
10098SOL    HW232069  14.029   2.866   7.103
10099SOL     OW32070  10.497   6.319   9.521
10099SOL    HW132071  10.505   6.415   9.528
10099SOL    HW232072  10.571   6.293   9.468
10100SOL     OW32073   5.536   1.420   1.064
10100SOL    HW132074   5.540   1.515   1.061
10100SOL    HW232075   5.463   1.396   1.006
10101SOL     OW32076  12.220   1.201   0.464
10101SOL    HW132077  12.260   1.198   0.551
10101SOL    HW232078  12.211   1.109   0.439
10102SOL     OW32079   4.600   2.963   0.910
10102SOL    HW132080   4.548   3.021   0.854
10102SOL    HW232081   4.679   3.014   0.931
10103SOL     OW32082   8.650  13.776   4.190
10103SOL    HW132083   8.639  13.870   4.205
10103SOL    HW232084   8.561  13.742   4.185
10104SOL     OW32085   5.348   3.562  13.283
10104SOL    HW132086   5.429   3.582  13.235
10104SOL    HW232087   5.289   3.634  13.261
10105SOL     OW32088   4.800   8.722   0.724
10105SOL    HW132089   4.740   8.780   0.677
10105SOL    HW232090   4.875   8.777   0.746
10106SOL     OW32091   6.791  12.286   7.321
10106SOL    HW132092   6.776  12.206   7.271
10106SOL    HW232093   6.717  12.291   7.381
10107SOL     OW32094  13.208   6.049   5.792
10107SOL    HW132095  13.228   6.096   5.711
10107SOL    HW232096  13.199   6.118   5.857
10108SOL     OW32097  12.244   7.993   6.041
10108SOL    HW132098  12.299   8.029   6.111
10108SOL    HW232099  12.157   8.029   6.058
10109SOL     OW32100   8.497  13.314  11.023
10109SOL    HW132101   8.532  13.303  11.112
10109SOL    HW232102   8.553  13.382  10.984
10110SOL     OW32103   8.501   9.095   8.475
10110SOL    HW132104   8.487   9.189   8.465
10110SOL    HW232105   8.497   9.080   8.570
10111SOL     OW32106   8.504   4.823  10.094
10111SOL    HW132107   8.556   4.798  10.017
10111SOL    HW232108   8.558   4.798  10.169
10112SOL     OW32109  11.901  11.458   3.228
10112SOL    HW132110  11.957  11.534   3.215
10112SOL    HW232111  11.836  11.487   3.292
10113SOL     OW32112   6.632   6.477   0.534
10113SOL    HW132113   6.595   6.562   0.510
10113SOL    HW232114   6.622   6.473   0.629
10114SOL     OW32115   4.552   9.085  11.923
10114SOL    HW132116   4.598   9.148  11.978
10114SOL    HW232117   4.556   9.122  11.835
10115SOL     OW32118   3.858   0.851   2.435
10115SOL    HW132119   3.905   0.906   2.372
10115SOL    HW232120   3.816   0.784   2.381
10116SOL     OW32121   4.622   8.301   6.704
10116SOL    HW132122   4.549   8.346   6.747
10116SOL    HW232123   4.582   8.226   6.660
10117SOL     OW32124   2.942  13.487  12.046
10117SOL    HW132125   2.937  13.408  11.993
10117SOL    HW232126   2.862  13.487  12.098
10118SOL     OW32127   9.307  13.246  13.058
10118SOL    HW132128   9.261  13.201  13.130
10118SOL    HW232129   9.238  13.295  13.014
10119SOL     OW32130   8.939   0.713  13.503
10119SOL    HW132131   8.994   0.789  13.481
10119SOL    HW232132   8.850   0.747  13.500
10120SOL     OW32133  11.358   7.841  12.265
10120SOL    HW132134  11.317   7.927  12.266
10120SOL    HW232135  11.310   7.791  12.198
10121SOL     OW32136   3.933   0.492   0.902
10121SOL    HW132137   3.950   0.462   0.812
10121SOL    HW232138   4.017   0.486   0.946
10122SOL     OW32139  14.470  10.134   2.142
10122SOL    HW132140  14.498  10.146   2.233
10122SOL    HW232141  14.380  10.167   2.140
10123SOL     OW32142  10.290   1.093   1.373
10123SOL    HW132143  10.296   1.178   1.329
10123SOL    HW232144  10.300   1.029   1.302
10124SOL     OW32145  14.528   9.324   2.777
10124SOL    HW132146  14.614   9.282   2.778
10124SOL    HW232147  14.539   9.400   2.720
10125SOL     OW32148   2.964   3.231  12.833
10125SOL    HW132149   2.916   3.191  12.761
10125SOL    HW232150   2.951   3.171  12.906
10126SOL     OW32151   0.024  14.544   9.287
10126SOL    HW132152   0.035  14.572   9.378
10126SOL    HW232153  14.866  14.621   9.243
10127SOL     OW32154   7.663   5.599   0.291
10127SOL    HW132155   7.599   5.594   0.362
10127SOL    HW232156   7.677   5.508   0.265
10128SOL     OW32157   9.772   7.999  12.859
10128SOL    HW132158   9.717   8.014  12.783
10128SOL    HW232159   9.720   8.028  12.933
10129SOL     OW32160   2.219   1.375   0.142
10129SOL    HW132161   2.125   1.375   0.121
10129SOL    HW232162   2.252   1.295   0.102
10130SOL     OW32163   8.522   9.330  10.753
10130SOL    HW132164   8.485   9.404  10.802
10130SOL    HW232165   8.452   9.304  10.693
10131SOL     OW32166   3.108  14.843  10.552
10131SOL    HW132167   3.095   0.005  10.466
10131SOL    HW232168   3.173   0.022  10.595
10132SOL     OW32169   9.833  12.504  14.647
10132SOL    HW132170   9.902  12.570  14.656
10132SOL    HW232171   9.809  12.507  14.554
10133SOL     OW32172   9.048   9.313   4.959
10133SOL    HW132173   8.955   9.298   4.981
10133SOL    HW232174   9.088   9.336   5.043
10134SOL     OW32175   5.013  13.660   2.054
10134SOL    HW132176   5.102  13.696   2.054
10134SOL    HW232177   4.961  13.726   2.007
10135SOL     OW32178  12.794   7.516   7.596
10135SOL    HW132179  12.811   7.428   7.629
10135SOL    HW232180  12.847   7.523   7.517
10136SOL     OW32181   1.398   9.000   6.702
10136SOL    HW132182   1.467   9.066   6.699
10136SOL    HW232183   1.343   9.026   6.776
10137SOL     OW32184   2.115   9.443  14.436
10137SOL    HW132185   2.209   9.460  14.439
10137SOL    HW232186   2.108   9.357  14.394
10138SOL     OW32187   9.254  13.476  11.201
10138SOL    HW132188   9.319  13.406  11.207
10138SOL    HW232189   9.171  13.433  11.219
10139SOL     OW32190   2.713   5.741   5.500
10139SOL    HW132191   2.734   5.805   5.433
10139SOL    HW232192   2.618   5.749   5.513
10140SOL     OW32193   1.412  10.884   5.697
10140SOL    HW132194   1.334  10.836   5.672
10140SOL    HW232195   1.476  10.864   5.629
10141SOL     OW32196  12.738   9.564   4.665
10141SOL    HW132197  12.708   9.626   4.599
10141SOL    HW232198  12.825   9.537   4.634
10142SOL     OW32199   0.634   8.838   8.418
10142SOL    HW132200   0.630   8.934   8.418
10142SOL    HW232201   0.710   8.817   8.472
10143SOL     OW32202  12.792   9.508   1.035
10143SOL    HW132203  12.737   9.471   0.966
10143SOL    HW232204  12.830   9.587   0.996
10144SOL     OW32205  11.405  12.869  14.440
10144SOL    HW132206  11.349  12.877  14.363
10144SOL    HW232207  11.379  12.942  14.496
10145SOL     OW32208   7.721  12.525  14.579
10145SOL    HW132209   7.810  12.559  14.574
10145SOL    HW232210   7.718  12.479  14.663
10146SOL     OW32211  10.599   9.856   7.507
10146SOL    HW132212  10.551   9.814   7.435
10146SOL    HW232213  10.676   9.895   7.465
10147SOL     OW32214   9.282   5.782   1.596
10147SOL    HW132215   9.200   5.739   1.570
10147SOL    HW232216   9.325   5.720   1.654
10148SOL     OW32217  11.464   0.431   7.040
10148SOL    HW132218  11.520   0.353   7.043
10148SOL    HW232219  11.406   0.416   6.966
10149SOL     OW32220   2.318  10.609   5.429
10149SOL    HW132221   2.384  10.570   5.488
10149SOL    HW232222   2.293  10.537   5.371
10150SOL     OW32223   5.038   5.874   2.244
10150SOL    HW132224   5.049   5.960   2.204
10150SOL    HW232225   5.128   5.843   2.258
10151SOL     OW32226  13.386   0.594  13.807
10151SOL    HW132227  13.309   0.537  13.804
10151SOL    HW232228  13.355   0.678  13.773
10152SOL     OW32229   7.187  13.824   7.930
10152SOL    HW132230   7.161  13.881   7.857
10152SOL    HW232231   7.262  13.775   7.896
10153SOL     OW32232   4.827   0.441  11.808
10153SOL    HW132233   4.876   0.359  11.795
10153SOL    HW232234   4.767   0.445  11.734
10154SOL     OW32235  12.189  13.162   7.415
10154SOL    HW132236  12.267  13.118   7.381
10154SOL    HW232237  12.168  13.115   7.495
10155SOL     OW32238   9.186  12.961  13.570
10155SOL    HW132239   9.156  13.049  13.550
10155SOL    HW232240   9.158  12.945  13.660
10156SOL     OW32241   5.916   4.815   7.318
10156SOL    HW132242   5.924   4.899   7.272
10156SOL    HW232243   5.839   4.826   7.374
10157SOL     OW32244   1.714   1.639  12.301
10157SOL    HW132245   1.734   1.550  12.329
10157SOL    HW232246   1.620   1.650  12.320
10158SOL     OW32247   0.091   2.046  14.285
10158SOL    HW132248   0.111   2.138  14.268
10158SOL    HW232249   0.072   2.042  14.378
10159SOL     OW32250  10.350   7.502  12.389
10159SOL    HW132251  10.435   7.466  12.365
10159SOL    HW232252  10.366   7.550  12.471
10160SOL     OW32253   4.836   2.360  11.922
10160SOL    HW132254   4.876   2.316  11.847
10160SOL    HW232255   4.742   2.340  11.914
10161SOL     OW32256  11.949   8.044   3.238
10161SOL    HW132257  11.925   7.972   3.296
10161SOL    HW232258  12.030   8.015   3.195
10162SOL     OW32259  10.269   4.314   9.112
10162SOL    HW132260  10.207   4.385   9.100
10162SOL    HW232261  10.224   4.252   9.169
10163SOL     OW32262   3.750   4.963   0.243
10163SOL    HW132263   3.783   4.882   0.204
10163SOL    HW232264   3.658   4.967   0.217
10164SOL     OW32265  11.855   7.763   8.610
10164SOL    HW132266  11.768   7.736   8.639
10164SOL    HW232267  11.855   7.744   8.516
10165SOL     OW32268   6.018   4.528   8.954
10165SOL    HW132269   6.027   4.620   8.978
10165SOL    HW232270   6.106   4.492   8.960
10166SOL     OW32271   0.211   0.789   4.070
10166SOL    HW132272   0.290   0.790   4.016
10166SOL    HW232273   0.143   0.827   4.015
10167SOL     OW32274   8.555   3.280  11.309
10167SOL    HW132275   8.615   3.355  11.314
10167SOL    HW232276   8.480   3.304  11.363
10168SOL     OW32277   9.068  10.682   0.758
10168SOL    HW132278   9.035  10.598   0.790
10168SOL    HW232279   9.049  10.743   0.829
10169SOL     OW32280  13.800   5.936  11.152
10169SOL    HW132281  13.822   5.994  11.079
10169SOL    HW232282  13.716   5.970  11.185
10170SOL     OW32283   7.306   5.756  12.736
10170SOL    HW132284   7.291   5.831  12.793
10170SOL    HW232285   7.265   5.780  12.653
10171SOL     OW32286   4.047   4.511  13.404
10171SOL    HW132287   3.952   4.517  13.400
10171SOL    HW232288   4.079   4.581  13.347
10172SOL     OW32289   2.246   6.469   0.355
10172SOL    HW132290   2.195   6.406   0.305
10172SOL    HW232291   2.308   6.416   0.405
10173SOL     OW32292   1.848   8.015   4.870
10173SOL    HW132293   1.793   7.940   4.895
10173SOL    HW232294   1.817   8.087   4.925
10174SOL     OW32295   6.405  12.984   3.590
10174SOL    HW132296   6.370  12.907   3.546
10174SOL    HW232297   6.500  12.976   3.579
10175SOL     OW32298   8.830  11.493  12.611
10175SOL    HW132299   8.757  11.553  12.597
10175SOL    HW232300   8.804  11.442  12.688
10176SOL     OW32301   8.680  13.766   8.590
10176SOL    HW132302   8.702  13.673   8.581
10176SOL    HW232303   8.765  13.811   8.589
10177SOL     OW32304  12.546  10.649   3.698
10177SOL    HW132305  12.456  10.675   3.717
10177SOL    HW232306  12.538  10.588   3.624
10178SOL     OW32307   2.853   3.040   8.062
10178SOL    HW132308   2.901   2.957   8.063
10178SOL    HW232309   2.897   3.094   8.127
10179SOL     OW32310   8.969   1.592   4.465
10179SOL    HW132311   9.058   1.589   4.429
10179SOL    HW232312   8.959   1.682   4.495
10180SOL     OW32313   6.296   1.936   0.582
10180SOL    HW132314   6.278   2.027   0.559
10180SOL    HW232315   6.366   1.909   0.522
10181SOL     OW32316   7.720   9.760  13.700
10181SOL    HW132317   7.664   9.756  13.623
10181SOL    HW232318   7.808   9.744  13.666
10182SOL     OW32319   5.611  11.075   3.114
10182SOL    HW132320   5.535  11.122   3.078
10182SOL    HW232321   5.686  11.113   3.068
10183SOL     OW32322   9.853  12.272   8.184
10183SOL    HW132323   9.913  12.203   8.154
10183SOL    HW232324   9.856  12.266   8.279
10184SOL     OW32325   1.300   2.534   5.419
10184SOL    HW132326   1.328   2.621   5.448
10184SOL    HW232327   1.375   2.478   5.440
10185SOL     OW32328   3.960   1.354  14.484
10185SOL    HW132329   3.930   1.412  14.414
10185SOL    HW232330   4.020   1.293  14.441
10186SOL     OW32331   9.461   5.417  13.144
10186SOL    HW132332   9.524   5.406  13.215
10186SOL    HW232333   9.447   5.512  13.139
10187SOL     OW32334   8.464   6.679   1.551
10187SOL    HW132335   8.423   6.593   1.550
10187SOL    HW232336   8.526   6.677   1.478
10188SOL     OW32337  10.220   9.303  13.635
10188SOL    HW132338  10.312   9.287  13.653
10188SOL    HW232339  10.220   9.369  13.565
10189SOL     OW32340  13.194   8.007  10.240
10189SOL    HW132341  13.279   7.963  10.244
10189SOL    HW232342  13.208   8.091  10.283
10190SOL     OW32343   4.150   1.915  13.711
10190SOL    HW132344   4.124   1.864  13.787
10190SOL    HW232345   4.157   2.005  13.743
10191SOL     OW32346   5.757   1.818  14.073
10191SOL    HW132347   5.754   1.850  13.983
10191SOL    HW232348   5.673   1.773  14.085
10192SOL     OW32349   9.288   0.483   7.312
10192SOL    HW132350   9.242   0.480   7.228
10192SOL    HW232351   9.368   0.533   7.293
10193SOL     OW32352   7.195   8.856   3.539
10193SOL    HW132353   7.257   8.874   3.609
10193SOL    HW232354   7.114   8.901   3.566
10194SOL     OW32355   5.167   8.311   0.716
10194SOL    HW132356   5.240   8.283   0.772
10194SOL    HW232357   5.207   8.328   0.631
10195SOL     OW32358   0.562   0.133  14.522
10195SOL    HW132359   0.558   0.225  14.495
10195SOL    HW232360   0.655   0.113  14.529
10196SOL     OW32361   8.604   3.623   2.457
10196SOL    HW132362   8.582   3.663   2.372
10196SOL    HW232363   8.591   3.529   2.443
10197SOL     OW32364  11.465  10.243  10.325
10197SOL    HW132365  11.490  10.179  10.259
10197SOL    HW232366  11.495  10.327  10.290
10198SOL     OW32367   8.806   8.727   5.536
10198SOL    HW132368   8.780   8.635   5.532
10198SOL    HW232369   8.728   8.775   5.507
10199SOL     OW32370   5.274  13.640   5.042
10199SOL    HW132371   5.269  13.547   5.064
10199SOL    HW232372   5.255  13.685   5.125
10200SOL     OW32373   1.113   2.674   9.312
10200SOL    HW132374   1.201   2.669   9.275
10200SOL    HW232375   1.117   2.744   9.377
10201SOL     OW32376  11.021   9.332   5.708
10201SOL    HW132377  10.982   9.372   5.786
10201SOL    HW232378  11.023   9.238   5.727
10202SOL     OW32379  12.397   4.173   0.997
10202SOL    HW132380  12.321   4.146   1.049
10202SOL    HW232381  12.362   4.187   0.909
10203SOL     OW32382   9.392   4.435  12.550
10203SOL    HW132383   9.344   4.514  12.574
10203SOL    HW232384   9.484   4.458  12.562
10204SOL     OW32385   3.346  10.633  11.266
10204SOL    HW132386   3.374  10.718  11.232
10204SOL    HW232387   3.258  10.621  11.230
10205SOL     OW32388   8.418   1.927   3.108
10205SOL    HW132389   8.389   1.837   3.118
10205SOL    HW232390   8.350   1.969   3.055
10206SOL     OW32391  13.599  13.756   4.524
10206SOL    HW132392  13.690  13.729   4.538
10206SOL    HW232393  13.557  13.679   4.487
10207SOL     OW32394   5.027   0.908   8.511
10207SOL    HW132395   5.009   1.001   8.497
10207SOL    HW232396   4.941   0.868   8.522
10208SOL     OW32397   6.745   3.355   1.125
10208SOL    HW132398   6.776   3.332   1.037
10208SOL    HW232399   6.821   3.342   1.182
10209SOL     OW32400  13.525   4.016   4.972
10209SOL    HW132401  13.509   4.064   5.053
10209SOL    HW232402  13.476   3.935   4.982
10210SOL     OW32403  10.803   7.498   0.653
10210SOL    HW132404  10.889   7.508   0.693
10210SOL    HW232405  10.745   7.472   0.725
10211SOL     OW32406   3.759  13.037   6.104
10211SOL    HW132407   3.829  12.978   6.131
10211SOL    HW232408   3.680  12.984   6.108
10212SOL     OW32409   8.514  14.876  13.558
10212SOL    HW132410   8.545  14.805  13.502
10212SOL    HW232411   8.593   0.046  13.585
10213SOL     OW32412   4.875   9.836   6.454
10213SOL    HW132413   4.951   9.794   6.495
10213SOL    HW232414   4.893   9.930   6.460
10214SOL     OW32415   8.407   4.711   6.497
10214SOL    HW132416   8.382   4.786   6.443
10214SOL    HW232417   8.503   4.717   6.502
10215SOL     OW32418   9.846  10.747  13.882
10215SOL    HW132419   9.831  10.683  13.812
10215SOL    HW232420   9.796  10.824  13.854
10216SOL     OW32421  11.571  14.018  11.329
10216SOL    HW132422  11.515  14.029  11.252
10216SOL    HW232423  11.657  14.049  11.301
10217SOL     OW32424   8.015  10.981   2.696
10217SOL    HW132425   7.929  10.962   2.658
10217SOL    HW232426   8.024  10.918   2.768
10218SOL     OW32427  12.839   3.100   5.264
10218SOL    HW132428  12.929   3.109   5.295
10218SOL    HW232429  12.786   3.093   5.344
10219SOL     OW32430   4.192   6.751   0.901
10219SOL    HW132431   4.177   6.674   0.954
10219SOL    HW232432   4.122   6.749   0.835
10220SOL     OW32433   1.398  11.040  12.037
10220SOL    HW132434   1.353  10.957  12.023
10220SOL    HW232435   1.430  11.065  11.951
10221SOL     OW32436   4.127  14.401   1.765
10221SOL    HW132437   4.050  14.440   1.723
10221SOL    HW232438   4.181  14.371   1.693
10222SOL     OW32439   1.796  13.975   0.502
10222SOL    HW132440   1.760  14.038   0.564
10222SOL    HW232441   1.758  14.000   0.418
10223SOL     OW32442   7.808   8.297   2.898
10223SOL    HW132443   7.831   8.230   2.834
10223SOL    HW232444   7.887   8.307   2.952
10224SOL     OW32445  10.943   6.886   9.629
10224SOL    HW132446  10.904   6.852   9.709
10224SOL    HW232447  10.968   6.975   9.650
10225SOL     OW32448   6.564  14.786   8.291
10225SOL    HW132449   6.571  14.774   8.386
10225SOL    HW232450   6.475  14.757   8.269
10226SOL     OW32451   3.989  14.003  14.494
10226SOL    HW132452   3.989  14.005  14.590
10226SOL    HW232453   3.906  13.961  14.471
10227SOL     OW32454  13.442  13.507   4.373
10227SOL    HW132455  13.358  13.546   4.398
10227SOL    HW232456  13.467  13.554   4.293
10228SOL     OW32457   1.247   1.903   1.741
10228SOL    HW132458   1.181   1.863   1.685
10228SOL    HW232459   1.317   1.838   1.746
10229SOL     OW32460   3.802   3.259   9.674
10229SOL    HW132461   3.827   3.184   9.620
10229SOL    HW232462   3.836   3.239   9.761
10230SOL     OW32463   3.647   4.230   6.134
10230SOL    HW132464   3.669   4.204   6.044
10230SOL    HW232465   3.603   4.314   6.124
10231SOL     OW32466  14.136   3.961  11.935
10231SOL    HW132467  14.229   3.980  11.952
10231SOL    HW232468  14.089   4.037  11.971
10232SOL     OW32469   7.087   9.960   3.532
10232SOL    HW132470   7.036   9.978   3.612
10232SOL    HW232471   7.026   9.913   3.476
10233SOL     OW32472  11.248   6.754  12.452
10233SOL    HW132473  11.168   6.704  12.466
10233SOL    HW232474  11.224   6.818  12.385
10234SOL     OW32475  14.387   3.997  12.212
10234SOL    HW132476  14.389   3.902  12.226
10234SOL    HW232477  14.309   4.026  12.260
10235SOL     OW32478  10.953   4.384  13.995
10235SOL    HW132479  10.920   4.360  14.082
10235SOL    HW232480  10.913   4.319  13.936
10236SOL     OW32481  11.817   6.634   2.459
10236SOL    HW132482  11.768   6.686   2.395
10236SOL    HW232483  11.750   6.596   2.516
10237SOL     OW32484   6.345   9.465   8.417
10237SOL    HW132485   6.347   9.539   8.356
10237SOL    HW232486   6.338   9.388   8.360
10238SOL     OW32487   1.698  13.113  11.969
10238SOL    HW132488   1.790  13.089  11.956
10238SOL    HW232489   1.699  13.172  12.045
10239SOL     OW32490   3.375  14.826   3.122
10239SOL    HW132491   3.375  14.730   3.124
10239SOL    HW232492   3.361  14.849   3.030
10240SOL     OW32493   1.281   7.024   0.542
10240SOL    HW132494   1.318   7.003   0.628
10240SOL    HW232495   1.312   7.113   0.523
10241SOL     OW32496   6.787   6.095  13.714
10241SOL    HW132497   6.735   6.091  13.634
10241SOL    HW232498   6.793   6.189  13.735
10242SOL     OW32499   3.758   6.119  11.767
10242SOL    HW132500   3.669   6.143  11.742
10242SOL    HW232501   3.793   6.197  11.810
10243SOL     OW32502   1.617   3.330   1.014
10243SOL    HW132503   1.531   3.362   0.987
10243SOL    HW232504   1.633   3.253   0.960
10244SOL     OW32505   1.258   2.136   3.487
10244SOL    HW132506   1.250   2.200   3.557
10244SOL    HW232507   1.169   2.101   3.477
10245SOL     OW32508   6.417  13.732   0.665
10245SOL    HW132509   6.399  13.800   0.730
10245SOL    HW232510   6.423  13.779   0.582
10246SOL     OW32511   8.606   4.170  10.696
10246SOL    HW132512   8.640   4.158  10.608
10246SOL    HW232513   8.582   4.081  10.725
10247SOL     OW32514   8.293  10.982   0.305
10247SOL    HW132515   8.285  10.941   0.219
10247SOL    HW232516   8.206  10.971   0.344
10248SOL     OW32517   9.789   6.753   1.007
10248SOL    HW132518   9.786   6.671   1.057
10248SOL    HW232519   9.732   6.736   0.931
10249SOL     OW32520  10.118   1.621   5.592
10249SOL    HW132521  10.085   1.540   5.630
10249SOL    HW232522  10.109   1.686   5.661
10250SOL     OW32523   0.713  14.689   3.427
10250SOL    HW132524   0.627  14.662   3.396
10250SOL    HW232525   0.701  14.702   3.521
10251SOL     OW32526   5.088   3.980   8.502
10251SOL    HW132527   5.135   4.061   8.484
10251SOL    HW232528   5.017   3.978   8.438
10252SOL     OW32529   4.008  14.140   6.357
10252SOL    HW132530   4.100  14.115   6.356
10252SOL    HW232531   4.005  14.219   6.411
10253SOL     OW32532   7.134   6.682   8.884
10253SOL    HW132533   7.104   6.597   8.913
10253SOL    HW232534   7.061   6.741   8.903
10254SOL     OW32535   7.296  14.498   8.839
10254SOL    HW132536   7.378  14.526   8.880
10254SOL    HW232537   7.324  14.449   8.762
10255SOL     OW32538   5.759   0.102  14.097
10255SOL    HW132539   5.687   0.118  14.036
10255SOL    HW232540   5.836   0.137  14.053
10256SOL     OW32541   3.771   4.720  11.905
10256SOL    HW132542   3.699   4.770  11.866
10256SOL    HW232543   3.772   4.638  11.856
10257SOL     OW32544   1.836  12.642   1.921
10257SOL    HW132545   1.848  12.660   1.828
10257SOL    HW232546   1.875  12.718   1.965
10258SOL     OW32547   2.355   3.809   7.839
10258SOL    HW132548   2.421   3.873   7.866
10258SOL    HW232549   2.374   3.793   7.747
10259SOL     OW32550  13.051   7.645  10.632
10259SOL    HW132551  12.958   7.627  10.648
10259SOL    HW232552  13.090   7.651  10.720
10260SOL     OW32553   4.237   3.338   8.361
10260SOL    HW132554   4.286   3.415   8.391
10260SOL    HW232555   4.185   3.312   8.437
10261SOL     OW32556   5.431   0.375   0.353
10261SOL    HW132557   5.367   0.311   0.384
10261SOL    HW232558   5.489   0.325   0.296
10262SOL     OW32559  11.458   3.346   4.067
10262SOL    HW132560  11.484   3.439   4.063
10262SOL    HW232561  11.472   3.314   3.978
10263SOL     OW32562  12.829   2.422   0.443
10263SOL    HW132563  12.746   2.433   0.397
10263SOL    HW232564  12.817   2.470   0.525
10264SOL     OW32565  10.753  13.553   3.037
10264SOL    HW132566  10.706  13.470   3.044
10264SOL    HW232567  10.683  13.619   3.034
10265SOL     OW32568   4.492   3.232  13.683
10265SOL    HW132569   4.500   3.150  13.731
10265SOL    HW232570   4.537   3.297  13.737
10266SOL     OW32571  14.298   6.684   3.698
10266SOL    HW132572  14.335   6.596   3.702
10266SOL    HW232573  14.207   6.671   3.671
10267SOL     OW32574   9.673   4.146   4.088
10267SOL    HW132575   9.590   4.193   4.096
10267SOL    HW232576   9.690   4.113   4.176
10268SOL     OW32577   8.091   3.419   5.152
10268SOL    HW132578   8.114   3.344   5.207
10268SOL    HW232579   8.171   3.470   5.146
10269SOL     OW32580   9.768   9.599   3.854
10269SOL    HW132581   9.735   9.574   3.767
10269SOL    HW232582   9.706   9.560   3.915
10270SOL     OW32583   2.675   9.553   6.050
10270SOL    HW132584   2.716   9.635   6.021
10270SOL    HW232585   2.582   9.574   6.057
10271SOL     OW32586  10.111  13.402   0.424
10271SOL    HW132587  10.022  13.399   0.459
10271SOL    HW232588  10.157  13.463   0.483
10272SOL     OW32589   3.599  13.054   9.769
10272SOL    HW132590   3.526  13.084   9.823
10272SOL    HW232591   3.662  13.126   9.772
10273SOL     OW32592   8.805  10.058   4.062
10273SOL    HW132593   8.760   9.992   4.009
10273SOL    HW232594   8.755  10.062   4.144
10274SOL     OW32595   1.988   9.979  13.271
10274SOL    HW132596   2.048  10.053  13.276
10274SOL    HW232597   2.031   9.910  13.322
10275SOL     OW32598   9.214   3.167   1.755
10275SOL    HW132599   9.122   3.151   1.734
10275SOL    HW232600   9.223   3.139   1.846
10276SOL     OW32601   2.002  13.594   4.679
10276SOL    HW132602   2.040  13.592   4.591
10276SOL    HW232603   1.960  13.509   4.689
10277SOL     OW32604  10.461   9.473   1.287
10277SOL    HW132605  10.461   9.377   1.290
10277SOL    HW232606  10.520   9.495   1.215
10278SOL     OW32607   8.088  13.355   6.471
10278SOL    HW132608   8.017  13.354   6.534
10278SOL    HW232609   8.129  13.441   6.480
10279SOL     OW32610   6.218   2.954   5.229
10279SOL    HW132611   6.140   2.924   5.277
10279SOL    HW232612   6.257   2.875   5.195
10280SOL     OW32613   3.567   7.518  12.248
10280SOL    HW132614   3.626   7.452  12.283
10280SOL    HW232615   3.535   7.481  12.166
10281SOL     OW32616   3.532   3.778  11.582
10281SOL    HW132617   3.624   3.788  11.556
10281SOL    HW232618   3.493   3.864  11.568
10282SOL     OW32619   5.842   8.572   5.481
10282SOL    HW132620   5.919   8.614   5.442
10282SOL    HW232621   5.835   8.612   5.568
10283SOL     OW32622  13.300  12.112   4.279
10283SOL    HW132623  13.313  12.085   4.370
10283SOL    HW232624  13.293  12.207   4.283
10284SOL     OW32625  14.830   5.954   0.247
10284SOL    HW132626  14.828   5.861   0.225
10284SOL    HW232627   0.037   5.967   0.291
10285SOL     OW32628  11.365  13.639   4.695
10285SOL    HW132629  11.386  13.722   4.737
10285SOL    HW232630  11.323  13.663   4.613
10286SOL     OW32631   9.194  13.420   4.446
10286SOL    HW132632   9.257  13.369   4.496
10286SOL    HW232633   9.108  13.390   4.477
10287SOL     OW32634   4.663   8.055  13.877
10287SOL    HW132635   4.659   8.122  13.809
10287SOL    HW232636   4.717   8.094  13.946
10288SOL     OW32637   5.010   0.943   6.425
10288SOL    HW132638   5.079   1.006   6.443
10288SOL    HW232639   4.942   0.994   6.381
10289SOL     OW32640  12.568   9.850  10.833
10289SOL    HW132641  12.503   9.785  10.806
10289SOL    HW232642  12.645   9.798  10.857
10290SOL     OW32643   6.158   3.766   4.590
10290SOL    HW132644   6.107   3.685   4.581
10290SOL    HW232645   6.119   3.825   4.526
10291SOL     OW32646   6.237   8.606   3.255
10291SOL    HW132647   6.302   8.604   3.185
10291SOL    HW232648   6.156   8.575   3.214
10292SOL     OW32649   9.945  10.780   9.392
10292SOL    HW132650  10.033  10.762   9.427
10292SOL    HW232651   9.919  10.698   9.351
10293SOL     OW32652   2.794  12.337   6.502
10293SOL    HW132653   2.744  12.335   6.584
10293SOL    HW232654   2.875  12.290   6.522
10294SOL     OW32655   0.132   9.749  13.746
10294SOL    HW132656   0.118   9.842  13.730
10294SOL    HW232657   0.090   9.733  13.831
10295SOL     OW32658   1.402  12.161   9.802
10295SOL    HW132659   1.370  12.192   9.717
10295SOL    HW232660   1.487  12.123   9.783
10296SOL     OW32661   8.373   5.452  13.662
10296SOL    HW132662   8.322   5.428  13.739
10296SOL    HW232663   8.331   5.407  13.589
10297SOL     OW32664   5.236   8.143   7.169
10297SOL    HW132665   5.179   8.219   7.161
10297SOL    HW232666   5.235   8.102   7.083
10298SOL     OW32667   1.407   2.466   1.366
10298SOL    HW132668   1.453   2.542   1.401
10298SOL    HW232669   1.329   2.457   1.420
10299SOL     OW32670   6.104   7.377   7.546
10299SOL    HW132671   6.188   7.397   7.505
10299SOL    HW232672   6.047   7.450   7.523
10300SOL     OW32673  11.633   4.166   5.834
10300SOL    HW132674  11.553   4.115   5.849
10300SOL    HW232675  11.631   4.235   5.900
10301SOL     OW32676   8.937   9.533   7.682
10301SOL    HW132677   8.883   9.501   7.754
10301SOL    HW232678   8.920   9.473   7.609
10302SOL     OW32679  10.112  13.168  12.051
10302SOL    HW132680  10.190  13.165  12.105
10302SOL    HW232681  10.145  13.177  11.961
10303SOL     OW32682   3.024   7.430  10.218
10303SOL    HW132683   2.954   7.367  10.200
10303SOL    HW232684   3.016   7.450  10.311
10304SOL     OW32685   2.111  11.368   7.050
10304SOL    HW132686   2.175  11.419   7.001
10304SOL    HW232687   2.096  11.290   6.996
10305SOL     OW32688   0.314   0.236   2.747
10305SOL    HW132689   0.252   0.186   2.800
10305SOL    HW232690   0.398   0.225   2.792
10306SOL     OW32691   7.443   1.499  14.653
10306SOL    HW132692   7.418   1.437  14.584
10306SOL    HW232693   7.360   1.533  14.686
10307SOL     OW32694   4.933   8.105   8.544
10307SOL    HW132695   4.873   8.072   8.611
10307SOL    HW232696   4.914   8.053   8.466
10308SOL     OW32697   9.546   2.008  11.206
10308SOL    HW132698   9.604   2.065  11.154
10308SOL    HW232699   9.463   2.056  11.209
10309SOL     OW32700   6.550  14.309   4.808
10309SOL    HW132701   6.618  14.336   4.746
10309SOL    HW232702   6.600  14.278   4.884
10310SOL     OW32703   0.171   7.328  14.603
10310SOL    HW132704   0.248   7.383  14.587
10310SOL    HW232705   0.197   7.241  14.574
10311SOL     OW32706  11.508   0.320  10.241
10311SOL    HW132707  11.416   0.340  10.224
10311SOL    HW232708  11.547   0.314  10.154
10312SOL     OW32709   9.738  14.196  11.643
10312SOL    HW132710   9.811  14.221  11.700
10312SOL    HW232711   9.697  14.280  11.619
10313SOL     OW32712   3.810   3.181  10.587
10313SOL    HW132713   3.829   3.149  10.675
10313SOL    HW232714   3.715   3.179  10.581
10314SOL     OW32715  14.437   6.796  10.194
10314SOL    HW132716  14.458   6.771  10.284
10314SOL    HW232717  14.355   6.844  10.200
10315SOL     OW32718   0.113  13.924  13.328
10315SOL    HW132719   0.133  13.990  13.262
10315SOL    HW232720   0.018  13.911  13.320
10316SOL     OW32721  12.530   2.868  10.003
10316SOL    HW132722  12.495   2.912  10.080
10316SOL    HW232723  12.619   2.902   9.994
10317SOL     OW32724   4.735  10.803   5.723
10317SOL    HW132725   4.665  10.850   5.769
10317SOL    HW232726   4.710  10.807   5.631
10318SOL     OW32727   5.369   2.287   0.301
10318SOL    HW132728   5.449   2.314   0.256
10318SOL    HW232729   5.305   2.356   0.281
10319SOL     OW32730  11.433   9.388  10.758
10319SOL    HW132731  11.421   9.387  10.663
10319SOL    HW232732  11.344   9.389  10.793
10320SOL     OW32733   1.306   4.261   7.796
10320SOL    HW132734   1.291   4.166   7.792
10320SOL    HW232735   1.271   4.295   7.714
10321SOL     OW32736   9.378   1.763   6.655
10321SOL    HW132737   9.302   1.802   6.613
10321SOL    HW232738   9.449   1.774   6.591
10322SOL     OW32739   4.143   4.437   9.286
10322SOL    HW132740   4.236   4.459   9.296
10322SOL    HW232741   4.119   4.397   9.370
10323SOL     OW32742   7.767   2.213   1.122
10323SOL    HW132743   7.678   2.245   1.139
10323SOL    HW232744   7.773   2.131   1.172
10324SOL     OW32745  13.582   7.928   2.624
10324SOL    HW132746  13.560   7.977   2.544
10324SOL    HW232747  13.664   7.966   2.655
10325SOL     OW32748  10.951  13.298   2.752
10325SOL    HW132749  11.017  13.254   2.806
10325SOL    HW232750  10.984  13.387   2.742
10326SOL     OW32751  12.553   6.320   7.065
10326SOL    HW132752  12.580   6.263   6.993
10326SOL    HW232753  12.635   6.344   7.109
10327SOL     OW32754   7.933   1.878   2.158
10327SOL    HW132755   7.997   1.808   2.168
10327SOL    HW232756   7.958   1.922   2.076
10328SOL     OW32757   3.517  10.805   6.682
10328SOL    HW132758   3.488  10.859   6.609
10328SOL    HW232759   3.606  10.779   6.659
10329SOL     OW32760  13.694   6.842   0.617
10329SOL    HW132761  13.711   6.767   0.673
10329SOL    HW232762  13.663   6.910   0.677
10330SOL     OW32763  10.310   0.980   7.261
10330SOL    HW132764  10.329   0.960   7.169
10330SOL    HW232765  10.253   0.909   7.290
10331SOL     OW32766  12.761   6.057   6.401
10331SOL    HW132767  12.773   5.997   6.474
10331SOL    HW232768  12.750   6.143   6.442
10332SOL     OW32769  12.253  10.549   3.252
10332SOL    HW132770  12.323  10.575   3.311
10332SOL    HW232771  12.179  10.530   3.310
10333SOL     OW32772  13.551   2.162   4.612
10333SOL    HW132773  13.467   2.198   4.643
10333SOL    HW232774  13.538   2.068   4.615
10334SOL     OW32775   3.076  11.590  14.639
10334SOL    HW132776   3.171  11.584  14.636
10334SOL    HW232777   3.050  11.603  14.548
10335SOL     OW32778   5.381  10.297  12.659
10335SOL    HW132779   5.348  10.243  12.731
10335SOL    HW232780   5.458  10.341  12.694
10336SOL     OW32781   7.856   4.655   0.989
10336SOL    HW132782   7.829   4.747   0.999
10336SOL    HW232783   7.860   4.641   0.895
10337SOL     OW32784  11.267   5.038  11.160
10337SOL    HW132785  11.298   4.949  11.141
10337SOL    HW232786  11.177   5.039  11.128
10338SOL     OW32787   5.411   8.221   1.972
10338SOL    HW132788   5.492   8.180   1.942
10338SOL    HW232789   5.423   8.232   2.066
10339SOL     OW32790   5.306   2.060   1.514
10339SOL    HW132791   5.387   2.011   1.530
10339SOL    HW232792   5.307   2.130   1.578
10340SOL     OW32793   3.885  11.232   3.265
10340SOL    HW132794   3.932  11.251   3.346
10340SOL    HW232795   3.939  11.166   3.221
10341SOL     OW32796   7.731   8.936  12.737
10341SOL    HW132797   7.762   8.922  12.647
10341SOL    HW232798   7.638   8.958  12.727
10342SOL     OW32799   2.651  10.757  10.912
10342SOL    HW132800   2.664  10.835  10.859
10342SOL    HW232801   2.561  10.730  10.891
10343SOL     OW32802   7.159   4.756  13.428
10343SOL    HW132803   7.229   4.724  13.485
10343SOL    HW232804   7.080   4.713  13.461
10344SOL     OW32805  14.177   9.722   0.329
10344SOL    HW132806  14.247   9.788   0.331
10344SOL    HW232807  14.219   9.642   0.360
10345SOL     OW32808   9.630   8.595  13.610
10345SOL    HW132809   9.670   8.545  13.681
10345SOL    HW232810   9.600   8.675  13.651
10346SOL     OW32811   0.234  13.224   0.120
10346SOL    HW132812   0.292  13.201   0.192
10346SOL    HW232813   0.286  13.281   0.064
10347SOL     OW32814   1.525   0.468   8.224
10347SOL    HW132815   1.467   0.518   8.167
10347SOL    HW232816   1.526   0.516   8.306
10348SOL     OW32817   5.513   7.067  14.162
10348SOL    HW132818   5.441   7.025  14.210
10348SOL    HW232819   5.592   7.025  14.195
10349SOL     OW32820  14.145   3.557   9.378
10349SOL    HW132821  14.050   3.570   9.379
10349SOL    HW232822  14.158   3.484   9.317
10350SOL     OW32823  11.086   8.143   0.845
10350SOL    HW132824  11.090   8.105   0.758
10350SOL    HW232825  11.127   8.078   0.902
10351SOL     OW32826   2.407  10.275   4.512
10351SOL    HW132827   2.362  10.329   4.577
10351SOL    HW232828   2.499  10.274   4.542
10352SOL     OW32829   2.832   6.880   3.383
10352SOL    HW132830   2.837   6.788   3.357
10352SOL    HW232831   2.890   6.888   3.458
10353SOL     OW32832   5.389  12.882   8.834
10353SOL    HW132833   5.318  12.825   8.863
10353SOL    HW232834   5.464  12.823   8.822
10354SOL     OW32835   4.677   1.456   0.107
10354SOL    HW132836   4.623   1.513   0.162
10354SOL    HW232837   4.636   1.460   0.021
10355SOL     OW32838  14.696   6.490  14.214
10355SOL    HW132839  14.689   6.583  14.238
10355SOL    HW232840  14.608   6.455  14.225
10356SOL     OW32841   9.875  11.344   3.300
10356SOL    HW132842   9.893  11.409   3.367
10356SOL    HW232843   9.945  11.279   3.310
10357SOL     OW32844   8.337   8.298  12.573
10357SOL    HW132845   8.280   8.242  12.520
10357SOL    HW232846   8.283   8.375  12.593
10358SOL     OW32847   4.752   4.231   7.642
10358SOL    HW132848   4.736   4.219   7.736
10358SOL    HW232849   4.665   4.249   7.606
10359SOL     OW32850   5.766  10.245   3.904
10359SOL    HW132851   5.679  10.264   3.940
10359SOL    HW232852   5.825  10.305   3.949
10360SOL     OW32853   1.202   8.198  10.733
10360SOL    HW132854   1.261   8.223  10.662
10360SOL    HW232855   1.231   8.249  10.809
10361SOL     OW32856  14.300   9.881   1.864
10361SOL    HW132857  14.219   9.831   1.852
10361SOL    HW232858  14.317   9.876   1.958
10362SOL     OW32859   2.493   5.150  12.893
10362SOL    HW132860   2.508   5.093  12.818
10362SOL    HW232861   2.398   5.156  12.900
10363SOL     OW32862  13.667   4.482  10.433
10363SOL    HW132863  13.721   4.551  10.471
10363SOL    HW232864  13.715   4.454  10.355
10364SOL     OW32865   4.590  12.249  11.412
10364SOL    HW132866   4.673  12.210  11.439
10364SOL    HW232867   4.614  12.334  11.374
10365SOL     OW32868   7.100   5.507   7.228
10365SOL    HW132869   7.084   5.415   7.249
10365SOL    HW232870   7.014   5.548   7.230
10366SOL     OW32871  12.972  13.245   7.894
10366SOL    HW132872  12.945  13.318   7.949
10366SOL    HW232873  12.996  13.175   7.955
10367SOL     OW32874   7.000   4.400   5.515
10367SOL    HW132875   6.941   4.388   5.590
10367SOL    HW232876   6.991   4.493   5.493
10368SOL     OW32877   5.070  12.173   9.423
10368SOL    HW132878   5.113  12.255   9.398
10368SOL    HW232879   5.106  12.152   9.509
10369SOL     OW32880   4.954  13.191   5.576
10369SOL    HW132881   5.019  13.152   5.635
10369SOL    HW232882   4.946  13.282   5.607
10370SOL     OW32883   1.172  12.831   7.761
10370SOL    HW132884   1.137  12.869   7.680
10370SOL    HW232885   1.252  12.787   7.734
10371SOL     OW32886  14.379   1.342   1.508
10371SOL    HW132887  14.370   1.432   1.478
10371SOL    HW232888  14.302   1.328   1.563
10372SOL     OW32889   0.901  14.572  11.629
10372SOL    HW132890   0.898  14.478  11.646
10372SOL    HW232891   0.925  14.580  11.537
10373SOL     OW32892   5.619   2.797  12.849
10373SOL    HW132893   5.617   2.881  12.894
10373SOL    HW232894   5.712   2.771  12.853
10374SOL     OW32895  12.191  14.280   8.417
10374SOL    HW132896  12.144  14.200   8.440
10374SOL    HW232897  12.198  14.277   8.322
10375SOL     OW32898   2.191   9.299  11.633
10375SOL    HW132899   2.267   9.357  11.634
10375SOL    HW232900   2.120   9.352  11.596
10376SOL     OW32901   1.378  14.402   5.035
10376SOL    HW132902   1.449  14.345   5.065
10376SOL    HW232903   1.370  14.469   5.103
10377SOL     OW32904  14.662   2.893  12.467
10377SOL    HW132905  14.579   2.849  12.485
10377SOL    HW232906  14.705   2.839  12.402
10378SOL     OW32907   0.066   3.244  14.333
10378SOL    HW132908   0.039   3.203  14.415
10378SOL    HW232909   0.065   3.173  14.269
10379SOL     OW32910   7.251   2.241   7.357
10379SOL    HW132911   7.294   2.318   7.320
10379SOL    HW232912   7.212   2.272   7.438
10380SOL     OW32913   2.302   1.938   4.566
10380SOL    HW132914   2.309   1.925   4.660
10380SOL    HW232915   2.268   2.027   4.557
10381SOL     OW32916   0.951  10.119   6.812
10381SOL    HW132917   0.982  10.031   6.789
10381SOL    HW232918   1.023  10.158   6.862
10382SOL     OW32919   3.300   6.930  11.403
10382SOL    HW132920   3.208   6.922  11.379
10382SOL    HW232921   3.343   6.857  11.358
10383SOL     OW32922   3.692   2.332   1.727
10383SOL    HW132923   3.628   2.261   1.726
10383SOL    HW232924   3.640   2.411   1.715
10384SOL     OW32925   0.328  10.659   3.310
10384SOL    HW132926   0.249  10.627   3.354
10384SOL    HW232927   0.340  10.748   3.344
10385SOL     OW32928  13.939  10.874   9.590
10385SOL    HW132929  14.010  10.915   9.639
10385SOL    HW232930  13.862  10.926   9.612
10386SOL     OW32931   5.830  13.391   6.254
10386SOL    HW132932   5.889  13.317   6.242
10386SOL    HW232933   5.743  13.351   6.265
10387SOL     OW32934  13.787  10.911   4.836
10387SOL    HW132935  13.784  10.988   4.893
10387SOL    HW232936  13.866  10.864   4.862
10388SOL     OW32937   6.502   3.478   5.505
10388SOL    HW132938   6.501   3.572   5.492
10388SOL    HW232939   6.476   3.465   5.596
10389SOL     OW32940   2.468  13.620  10.236
10389SOL    HW132941   2.378  13.620  10.202
10389SOL    HW232942   2.465  13.563  10.313
10390SOL     OW32943   0.878   9.786  11.210
10390SOL    HW132944   0.871   9.844  11.135
10390SOL    HW232945   0.843   9.702  11.180
10391SOL     OW32946  12.626   7.107   2.885
10391SOL    HW132947  12.690   7.082   2.951
10391SOL    HW232948  12.581   7.025   2.863
10392SOL     OW32949   6.117   6.786   9.375
10392SOL    HW132950   6.212   6.776   9.384
10392SOL    HW232951   6.107   6.853   9.307
10393SOL     OW32952  10.479   7.530   8.333
10393SOL    HW132953  10.528   7.530   8.250
10393SOL    HW232954  10.490   7.619   8.367
10394SOL     OW32955   4.498   0.937   9.512
10394SOL    HW132956   4.466   0.869   9.453
10394SOL    HW232957   4.576   0.899   9.552
10395SOL     OW32958  14.250   4.670   2.622
10395SOL    HW132959  14.176   4.633   2.670
10395SOL    HW232960  14.266   4.754   2.664
10396SOL     OW32961   0.075   1.108   8.933
10396SOL    HW132962   0.128   1.029   8.942
10396SOL    HW232963  14.868   1.076   8.899
10397SOL     OW32964  13.260  13.494   3.162
10397SOL    HW132965  13.179  13.454   3.131
10397SOL    HW232966  13.327  13.427   3.147
10398SOL     OW32967   9.168  11.558   8.573
10398SOL    HW132968   9.143  11.466   8.581
10398SOL    HW232969   9.185  11.586   8.663
10399SOL     OW32970   9.685   2.574   0.552
10399SOL    HW132971   9.762   2.578   0.496
10399SOL    HW232972   9.717   2.540   0.636
10400SOL     OW32973   9.619   1.734  13.634
10400SOL    HW132974   9.605   1.816  13.586
10400SOL    HW232975   9.706   1.705  13.606
10401SOL     OW32976   2.560   9.132  12.746
10401SOL    HW132977   2.654   9.147  12.739
10401SOL    HW232978   2.520   9.214  12.718
10402SOL     OW32979   3.984   7.293   6.926
10402SOL    HW132980   3.941   7.293   7.012
10402SOL    HW232981   4.065   7.343   6.940
10403SOL     OW32982  12.883   2.024   4.559
10403SOL    HW132983  12.977   2.039   4.554
10403SOL    HW232984  12.874   1.937   4.597
10404SOL     OW32985   3.346   3.197   8.465
10404SOL    HW132986   3.350   3.152   8.549
10404SOL    HW232987   3.390   3.139   8.403
10405SOL     OW32988   0.945   7.059   6.517
10405SOL    HW132989   1.005   7.134   6.518
10405SOL    HW232990   0.963   7.013   6.599
10406SOL     OW32991  11.465   3.164   9.771
10406SOL    HW132992  11.553   3.183   9.737
10406SOL    HW232993  11.481   3.104   9.844
10407SOL     OW32994   7.246   1.858  10.764
10407SOL    HW132995   7.273   1.944  10.733
10407SOL    HW232996   7.326   1.806  10.761
10408SOL     OW32997   0.615  11.584   4.057
10408SOL    HW132998   0.521  11.570   4.055
10408SOL    HW232999   0.632  11.624   4.142
10409SOL     OW33000   4.689  11.885  14.522
10409SOL    HW133001   4.778  11.858  14.502
10409SOL    HW233002   4.657  11.820  14.585
10410SOL     OW33003   4.763   8.059   5.967
10410SOL    HW133004   4.698   8.121   5.933
10410SOL    HW233005   4.736   7.974   5.932
10411SOL     OW33006   8.694   8.241   4.180
10411SOL    HW133007   8.602   8.232   4.205
10411SOL    HW233008   8.740   8.256   4.263
10412SOL     OW33009   3.035   1.266  11.403
10412SOL    HW133010   3.000   1.181  11.433
10412SOL    HW233011   3.086   1.298  11.478
10413SOL     OW33012   6.205  12.041  14.063
10413SOL    HW133013   6.129  12.027  14.120
10413SOL    HW233014   6.175  12.014  13.976
10414SOL     OW33015   2.940   9.761   1.191
10414SOL    HW133016   2.936   9.673   1.155
10414SOL    HW233017   2.996   9.810   1.130
10415SOL     OW33018  13.323   8.400   9.499
10415SOL    HW133019  13.287   8.312   9.515
10415SOL    HW233020  13.259   8.441   9.440
10416SOL     OW33021   7.645   3.053  10.363
10416SOL    HW133022   7.612   3.023  10.278
10416SOL    HW233023   7.636   2.976  10.419
10417SOL     OW33024   6.870   4.864  12.225
10417SOL    HW133025   6.949   4.847  12.276
10417SOL    HW233026   6.880   4.811  12.146
10418SOL     OW33027  13.644   3.126   9.319
10418SOL    HW133028  13.710   3.190   9.291
10418SOL    HW233029  13.664   3.047   9.268
10419SOL     OW33030   3.690  10.082  12.765
10419SOL    HW133031   3.646  10.167  12.772
10419SOL    HW233032   3.620  10.020  12.745
10420SOL     OW33033  13.801  12.689  10.945
10420SOL    HW133034  13.748  12.737  10.881
10420SOL    HW233035  13.797  12.598  10.916
10421SOL     OW33036  13.646   5.083   4.239
10421SOL    HW133037  13.690   5.101   4.156
10421SOL    HW233038  13.709   5.032   4.289
10422SOL     OW33039  12.053  12.798   6.220
10422SOL    HW133040  11.989  12.838   6.162
10422SOL    HW233041  12.005  12.731   6.268
10423SOL     OW33042   9.549  14.569   3.952
10423SOL    HW133043   9.493  14.494   3.931
10423SOL    HW233044   9.635  14.544   3.920
10424SOL     OW33045   9.113  14.250   2.751
10424SOL    HW133046   9.132  14.224   2.842
10424SOL    HW233047   9.096  14.344   2.756
10425SOL     OW33048   8.683   0.523  11.037
10425SOL    HW133049   8.717   0.590  10.977
10425SOL    HW233050   8.716   0.441  11.002
10426SOL     OW33051   0.326   8.296   2.274
10426SOL    HW133052   0.310   8.361   2.206
10426SOL    HW233053   0.269   8.322   2.346
10427SOL     OW33054   8.253   1.105  14.276
10427SOL    HW133055   8.217   1.095  14.364
10427SOL    HW233056   8.178   1.094  14.218
10428SOL     OW33057   0.169   8.806  12.326
10428SOL    HW133058   0.134   8.752  12.255
10428SOL    HW233059   0.238   8.752  12.365
10429SOL     OW33060  11.507   3.631   8.824
10429SOL    HW133061  11.577   3.683   8.864
10429SOL    HW233062  11.476   3.685   8.752
10430SOL     OW33063   7.640   3.100   1.739
10430SOL    HW133064   7.551   3.082   1.710
10430SOL    HW233065   7.681   3.014   1.744
10431SOL     OW33066   1.067  10.861   1.246
10431SOL    HW133067   0.976  10.846   1.271
10431SOL    HW233068   1.069  10.845   1.152
10432SOL     OW33069   0.035  12.602   7.374
10432SOL    HW133070   0.045  12.696   7.360
10432SOL    HW233071   0.054  12.563   7.288
10433SOL     OW33072   6.883   4.919   7.785
10433SOL    HW133073   6.860   4.842   7.837
10433SOL    HW233074   6.904   4.883   7.699
10434SOL     OW33075   9.933   0.565   7.576
10434SOL    HW133076   9.939   0.637   7.638
10434SOL    HW233077  10.015   0.516   7.588
10435SOL     OW33078   5.544  10.182   5.357
10435SOL    HW133079   5.504  10.109   5.405
10435SOL    HW233080   5.561  10.147   5.270
10436SOL     OW33081   1.094   0.024   0.741
10436SOL    HW133082   1.023   0.085   0.722
10436SOL    HW233083   1.171   0.063   0.700
10437SOL     OW33084  12.281   9.536   7.175
10437SOL    HW133085  12.352   9.570   7.231
10437SOL    HW233086  12.323   9.524   7.090
10438SOL     OW33087   4.757   6.068   7.889
10438SOL    HW133088   4.788   6.142   7.942
10438SOL    HW233089   4.760   5.993   7.949
10439SOL     OW33090   3.990   0.644  14.274
10439SOL    HW133091   4.073   0.670  14.234
10439SOL    HW233092   4.015   0.585  14.345
10440SOL     OW33093   6.432   0.831   0.230
10440SOL    HW133094   6.514   0.801   0.270
10440SOL    HW233095   6.367   0.823   0.299
10441SOL     OW33096   2.606   7.906   5.468
10441SOL    HW133097   2.654   7.836   5.422
10441SOL    HW233098   2.573   7.863   5.547
10442SOL     OW33099  13.158   6.250  14.751
10442SOL    HW133100  13.248   6.231  14.724
10442SOL    HW233101  13.166   6.280  14.841
10443SOL     OW33102  13.117  14.831   3.985
10443SOL    HW133103  13.211  14.812   3.979
10443SOL    HW233104  13.092  14.854   3.895
10444SOL     OW33105   5.577  13.833  13.291
10444SOL    HW133106   5.525  13.896  13.240
10444SOL    HW233107   5.638  13.796  13.227
10445SOL     OW33108  11.732  10.132  12.920
10445SOL    HW133109  11.760  10.129  12.829
10445SOL    HW233110  11.793  10.073  12.966
10446SOL     OW33111   6.336   2.507   5.673
10446SOL    HW133112   6.275   2.481   5.742
10446SOL    HW233113   6.332   2.603   5.672
10447SOL     OW33114  14.849   5.993   8.717
10447SOL    HW133115   0.065   6.001   8.736
10447SOL    HW233116  14.845   5.944   8.635
10448SOL     OW33117   5.752   7.406  11.749
10448SOL    HW133118   5.811   7.332  11.736
10448SOL    HW233119   5.790   7.477  11.698
10449SOL     OW33120  11.180  14.531  13.018
10449SOL    HW133121  11.158  14.510  12.927
10449SOL    HW233122  11.112  14.486  13.070
10450SOL     OW33123  12.450   0.680  14.325
10450SOL    HW133124  12.416   0.769  14.320
10450SOL    HW233125  12.376   0.624  14.303
10451SOL     OW33126  10.466   9.390   7.868
10451SOL    HW133127  10.384   9.359   7.905
10451SOL    HW233128  10.445   9.474   7.827
10452SOL     OW33129   9.098  11.135   4.839
10452SOL    HW133130   9.063  11.202   4.898
10452SOL    HW233131   9.072  11.163   4.752
10453SOL     OW33132   1.561   8.701   3.961
10453SOL    HW133133   1.631   8.746   4.008
10453SOL    HW233134   1.484   8.756   3.974
10454SOL     OW33135   3.200   7.563   3.894
10454SOL    HW133136   3.227   7.632   3.833
10454SOL    HW233137   3.231   7.593   3.980
10455SOL     OW33138   8.991  10.116   7.636
10455SOL    HW133139   8.924  10.121   7.568
10455SOL    HW233140   8.991  10.024   7.663
10456SOL     OW33141   3.776   1.483   7.160
10456SOL    HW133142   3.845   1.499   7.224
10456SOL    HW233143   3.723   1.563   7.161
10457SOL     OW33144   2.857   2.836  10.266
10457SOL    HW133145   2.937   2.795  10.298
10457SOL    HW233146   2.810   2.863  10.345
10458SOL     OW33147  10.986   6.949  14.287
10458SOL    HW133148  11.062   6.968  14.233
10458SOL    HW233149  10.978   6.853  14.284
10459SOL     OW33150   8.558  11.975  12.573
10459SOL    HW133151   8.514  12.002  12.654
10459SOL    HW233152   8.650  11.965  12.598
10460SOL     OW33153   8.319   0.073   4.330
10460SOL    HW133154   8.314  14.855   4.328
10460SOL    HW233155   8.255   0.098   4.397
10461SOL     OW33156   3.865   2.842  12.790
10461SOL    HW133157   3.906   2.882  12.712
10461SOL    HW233158   3.911   2.759  12.801
10462SOL     OW33159  13.989   3.478   0.363
10462SOL    HW133160  13.896   3.499   0.352
10462SOL    HW233161  14.027   3.558   0.400
10463SOL     OW33162   7.658  11.034   4.637
10463SOL    HW133163   7.587  10.977   4.667
10463SOL    HW233164   7.635  11.057   4.547
10464SOL     OW33165  14.042  13.032   4.749
10464SOL    HW133166  14.052  13.071   4.662
10464SOL    HW233167  13.959  13.067   4.782
10465SOL     OW33168   7.302   9.688  12.892
10465SOL    HW133169   7.350   9.767  12.868
10465SOL    HW233170   7.284   9.699  12.985
10466SOL     OW33171  11.605   0.371  14.161
10466SOL    HW133172  11.523   0.376  14.112
10466SOL    HW233173  11.580   0.393  14.251
10467SOL     OW33174   9.651   8.688   0.651
10467SOL    HW133175   9.739   8.673   0.684
10467SOL    HW233176   9.603   8.608   0.676
10468SOL     OW33177   0.794   1.213   1.369
10468SOL    HW133178   0.749   1.174   1.294
10468SOL    HW233179   0.877   1.245   1.333
10469SOL     OW33180   2.007  13.155   7.193
10469SOL    HW133181   1.993  13.229   7.134
10469SOL    HW233182   2.100  13.135   7.184
10470SOL     OW33183   3.036  11.748   7.745
10470SOL    HW133184   2.976  11.763   7.671
10470SOL    HW233185   3.044  11.653   7.750
10471SOL     OW33186   8.333  13.308   9.633
10471SOL    HW133187   8.405  13.245   9.642
10471SOL    HW233188   8.374  13.394   9.645
10472SOL     OW33189   1.615   5.644   7.343
10472SOL    HW133190   1.654   5.563   7.377
10472SOL    HW233191   1.688   5.705   7.337
10473SOL     OW33192  12.528  12.200  11.184
10473SOL    HW133193  12.440  12.161  11.183
10473SOL    HW233194  12.538  12.237  11.096
10474SOL     OW33195   9.070  10.672   2.099
10474SOL    HW133196   9.064  10.766   2.084
10474SOL    HW233197   8.994  10.652   2.154
10475SOL     OW33198   1.157   0.979   3.859
10475SOL    HW133199   1.194   0.892   3.873
10475SOL    HW233200   1.211   1.037   3.912
10476SOL     OW33201   7.420   9.465   0.918
10476SOL    HW133202   7.514   9.464   0.934
10476SOL    HW233203   7.392   9.375   0.936
10477SOL     OW33204   4.027   4.644  11.382
10477SOL    HW133205   4.016   4.600  11.466
10477SOL    HW233206   4.085   4.586  11.332
10478SOL     OW33207  10.336   0.270  12.847
10478SOL    HW133208  10.363   0.356  12.877
10478SOL    HW233209  10.241   0.269  12.860
10479SOL     OW33210   5.916  14.369   5.310
10479SOL    HW133211   6.000  14.362   5.355
10479SOL    HW233212   5.930  14.436   5.243
10480SOL     OW33213   7.557   9.899   1.039
10480SOL    HW133214   7.493   9.928   1.104
10480SOL    HW233215   7.513   9.909   0.955
10481SOL     OW33216  11.679   2.146   5.360
10481SOL    HW133217  11.700   2.223   5.306
10481SOL    HW233218  11.633   2.182   5.436
10482SOL     OW33219  14.148  12.718   2.362
10482SOL    HW133220  14.095  12.773   2.305
10482SOL    HW233221  14.231  12.766   2.372
10483SOL     OW33222   5.624   9.009  13.395
10483SOL    HW133223   5.613   8.917  13.373
10483SOL    HW233224   5.540   9.049  13.373
10484SOL     OW33225   9.639   3.936   2.092
10484SOL    HW133226   9.594   3.976   2.167
10484SOL    HW233227   9.646   4.008   2.029
10485SOL     OW33228  14.282  12.178   3.927
10485SOL    HW133229  14.325  12.244   3.873
10485SOL    HW233230  14.346  12.156   3.995
10486SOL     OW33231   3.104  14.041   9.832
10486SOL    HW133232   3.110  14.083   9.747
10486SOL    HW233233   3.011  14.022   9.843
10487SOL     OW33234  14.265   0.730  13.548
10487SOL    HW133235  14.177   0.714  13.580
10487SOL    HW233236  14.305   0.643  13.543
10488SOL     OW33237   4.675  12.625   7.829
10488SOL    HW133238   4.652  12.674   7.750
10488SOL    HW233239   4.616  12.660   7.896
10489SOL     OW33240   4.299  12.650   1.781
10489SOL    HW133241   4.290  12.615   1.692
10489SOL    HW233242   4.351  12.584   1.826
10490SOL     OW33243  13.890   4.674   5.258
10490SOL    HW133244  13.930   4.691   5.343
10490SOL    HW233245  13.848   4.756   5.234
10491SOL     OW33246   9.295   9.168   3.934
10491SOL    HW133247   9.262   9.224   3.864
10491SOL    HW233248   9.216   9.127   3.970
10492SOL     OW33249   6.052  14.459  14.816
10492SOL    HW133250   6.011  14.414  14.742
10492SOL    HW233251   6.134  14.493  14.781
10493SOL     OW33252   1.270   6.875  13.150
10493SOL    HW133253   1.177   6.870  13.172
10493SOL    HW233254   1.300   6.956  13.190
10494SOL     OW33255   2.815   4.373  13.579
10494SOL    HW133256   2.775   4.309  13.520
10494SOL    HW233257   2.774   4.456  13.555
10495SOL     OW33258   5.146   1.690   6.017
10495SOL    HW133259   5.069   1.742   6.041
10495SOL    HW233260   5.113   1.602   6.002
10496SOL     OW33261  13.557   1.188   0.539
10496SOL    HW133262  13.539   1.103   0.499
10496SOL    HW233263  13.636   1.175   0.590
10497SOL     OW33264   4.422   5.329   0.912
10497SOL    HW133265   4.377   5.354   0.992
10497SOL    HW233266   4.362   5.354   0.841
10498SOL     OW33267   0.045  14.322  11.517
10498SOL    HW133268   0.034  14.312  11.611
10498SOL    HW233269  14.837  14.355  11.486
10499SOL     OW33270   8.221   9.284   1.227
10499SOL    HW133271   8.269   9.343   1.170
10499SOL    HW233272   8.183   9.219   1.168
10500SOL     OW33273   4.329   1.346   3.365
10500SOL    HW133274   4.268   1.293   3.415
10500SOL    HW233275   4.409   1.347   3.418
10501SOL     OW33276   8.513   7.471  11.821
10501SOL    HW133277   8.568   7.447  11.896
10501SOL    HW233278   8.513   7.394  11.765
10502SOL     OW33279  12.396   7.472   0.587
10502SOL    HW133280  12.475   7.422   0.611
10502SOL    HW233281  12.395   7.545   0.648
10503SOL     OW33282   7.679   9.785   4.944
10503SOL    HW133283   7.701   9.825   5.028
10503SOL    HW233284   7.753   9.727   4.925
10504SOL     OW33285   9.147  12.549  13.194
10504SOL    HW133286   9.243  12.542  13.188
10504SOL    HW233287   9.118  12.548  13.103
10505SOL     OW33288   5.510   0.294   9.632
10505SOL    HW133289   5.551   0.210   9.611
10505SOL    HW233290   5.423   0.289   9.591
10506SOL     OW33291  11.448  14.867   4.348
10506SOL    HW133292  11.422   0.036   4.269
10506SOL    HW233293  11.395   0.028   4.418
10507SOL     OW33294  14.522   5.108   3.180
10507SOL    HW133295  14.603   5.120   3.131
10507SOL    HW233296  14.549   5.063   3.260
10508SOL     OW33297   9.113  12.325  11.212
10508SOL    HW133298   9.074  12.276  11.140
10508SOL    HW233299   9.102  12.417  11.187
10509SOL     OW33300  11.913   7.105   4.512
10509SOL    HW133301  11.933   7.019   4.548
10509SOL    HW233302  11.997   7.140   4.484
10510SOL     OW33303   5.217   7.051   4.596
10510SOL    HW133304   5.209   6.969   4.548
10510SOL    HW233305   5.224   7.118   4.528
10511SOL     OW33306   8.475  13.934   0.285
10511SOL    HW133307   8.485  13.911   0.192
10511SOL    HW233308   8.556  13.980   0.307
10512SOL     OW33309   9.852   4.751   9.892
10512SOL    HW133310   9.904   4.803   9.831
10512SOL    HW233311   9.763   4.752   9.855
10513SOL     OW33312   4.333   9.839   6.379
10513SOL    HW133313   4.314   9.746   6.367
10513SOL    HW233314   4.253   9.884   6.352
10514SOL     OW33315   1.401   8.763   4.570
10514SOL    HW133316   1.359   8.682   4.540
10514SOL    HW233317   1.337   8.803   4.630
10515SOL     OW33318  14.174   9.817   2.301
10515SOL    HW133319  14.253   9.771   2.271
10515SOL    HW233320  14.198   9.854   2.385
10516SOL     OW33321   5.278  11.627   6.688
10516SOL    HW133322   5.237  11.714   6.690
10516SOL    HW233323   5.283  11.600   6.779
10517SOL     OW33324   9.696  14.690  11.641
10517SOL    HW133325   9.776  14.696  11.694
10517SOL    HW233326   9.689  14.775  11.598
10518SOL     OW33327   5.564   8.829   6.782
10518SOL    HW133328   5.571   8.835   6.877
10518SOL    HW233329   5.472   8.807   6.765
10519SOL     OW33330  11.492  13.432   4.257
10519SOL    HW133331  11.447  13.469   4.181
10519SOL    HW233332  11.423  13.388   4.307
10520SOL     OW33333  11.373  14.704  12.860
10520SOL    HW133334  11.451  14.706  12.915
10520SOL    HW233335  11.309  14.656  12.912
10521SOL     OW33336   4.585   2.545   9.181
10521SOL    HW133337   4.650   2.588   9.124
10521SOL    HW233338   4.585   2.454   9.152
10522SOL     OW33339   7.845  10.818  13.161
10522SOL    HW133340   7.876  10.823  13.251
10522SOL    HW233341   7.804  10.732  13.154
10523SOL     OW33342   8.627  11.521   5.707
10523SOL    HW133343   8.584  11.535   5.622
10523SOL    HW233344   8.695  11.588   5.710
10524SOL     OW33345   2.267   9.911   4.803
10524SOL    HW133346   2.245   9.963   4.881
10524SOL    HW233347   2.325   9.842   4.836
10525SOL     OW33348   9.488   3.731   6.212
10525SOL    HW133349   9.580   3.719   6.234
10525SOL    HW233350   9.477   3.686   6.128
10526SOL     OW33351  11.800   5.162   6.722
10526SOL    HW133352  11.827   5.202   6.805
10526SOL    HW233353  11.765   5.234   6.670
10527SOL     OW33354  12.993  12.559  10.081
10527SOL    HW133355  13.082  12.596  10.081
10527SOL    HW233356  12.948  12.606  10.151
10528SOL     OW33357   7.549  10.993  11.517
10528SOL    HW133358   7.482  10.982  11.450
10528SOL    HW233359   7.501  10.991  11.600
10529SOL     OW33360   9.847   9.078   4.737
10529SOL    HW133361   9.822   8.987   4.719
10529SOL    HW233362   9.870   9.078   4.830
10530SOL     OW33363   8.925   3.792   6.098
10530SOL    HW133364   8.851   3.754   6.146
10530SOL    HW233365   8.903   3.884   6.089
10531SOL     OW33366  11.385   8.054  13.914
10531SOL    HW133367  11.460   8.036  13.971
10531SOL    HW233368  11.319   8.090  13.973
10532SOL     OW33369   6.093   2.021   8.046
10532SOL    HW133370   6.069   2.108   8.076
10532SOL    HW233371   6.179   2.005   8.084
10533SOL     OW33372   2.174   0.208   6.518
10533SOL    HW133373   2.186   0.253   6.602
10533SOL    HW233374   2.162   0.116   6.542
10534SOL     OW33375   6.009   5.525   8.531
10534SOL    HW133376   6.077   5.587   8.557
10534SOL    HW233377   6.026   5.447   8.584
10535SOL     OW33378   9.021  10.406   8.748
10535SOL    HW133379   9.050  10.320   8.776
10535SOL    HW233380   9.100  10.460   8.753
10536SOL     OW33381   9.210   5.458   1.020
10536SOL    HW133382   9.282   5.456   0.957
10536SOL    HW233383   9.177   5.368   1.023
10537SOL     OW33384   8.118   0.076   8.873
10537SOL    HW133385   8.053   0.006   8.872
10537SOL    HW233386   8.102   0.124   8.792
10538SOL     OW33387   6.630  14.549  13.086
10538SOL    HW133388   6.609  14.599  13.165
10538SOL    HW233389   6.569  14.582  13.020
10539SOL     OW33390   2.366   0.589   0.093
10539SOL    HW133391   2.302   0.652   0.060
10539SOL    HW233392   2.421   0.569   0.017
10540SOL     OW33393  12.472   6.859   5.338
10540SOL    HW133394  12.436   6.821   5.419
10540SOL    HW233395  12.545   6.803   5.315
10541SOL     OW33396   6.615  13.613   5.563
10541SOL    HW133397   6.526  13.644   5.579
10541SOL    HW233398   6.663  13.635   5.643
10542SOL     OW33399   6.963   0.477   5.665
10542SOL    HW133400   6.964   0.572   5.674
10542SOL    HW233401   7.033   0.458   5.602
10543SOL     OW33402  10.166   2.707   2.373
10543SOL    HW133403  10.159   2.699   2.278
10543SOL    HW233404  10.260   2.701   2.390
10544SOL     OW33405   9.856   9.773   5.306
10544SOL    HW133406   9.781   9.750   5.251
10544SOL    HW233407   9.931   9.738   5.259
10545SOL     OW33408   7.617   7.019   4.162
10545SOL    HW133409   7.528   6.989   4.181
10545SOL    HW233410   7.673   6.951   4.198
10546SOL     OW33411   6.452   6.525   1.436
10546SOL    HW133412   6.517   6.558   1.374
10546SOL    HW233413   6.502   6.472   1.497
10547SOL     OW33414   4.345  14.021  14.071
10547SOL    HW133415   4.330  13.964  14.147
10547SOL    HW233416   4.435  14.003  14.045
10548SOL     OW33417   0.843   9.410   4.271
10548SOL    HW133418   0.915   9.367   4.225
10548SOL    HW233419   0.840   9.498   4.233
10549SOL     OW33420  12.626   9.437   9.365
10549SOL    HW133421  12.543   9.456   9.322
10549SOL    HW233422  12.603   9.426   9.457
10550SOL     OW33423   0.873  10.799   3.468
10550SOL    HW133424   0.903  10.822   3.556
10550SOL    HW233425   0.925  10.722   3.444
10551SOL     OW33426  11.827  14.756  13.026
10551SOL    HW133427  11.921  14.771  13.032
10551SOL    HW233428  11.803  14.787  12.939
10552SOL     OW33429   0.240   3.058   1.068
10552SOL    HW133430   0.280   3.146   1.068
10552SOL    HW233431   0.147   3.074   1.077
10553SOL     OW33432   6.759   7.690  12.513
10553SOL    HW133433   6.709   7.699  12.432
10553SOL    HW233434   6.783   7.780  12.537
10554SOL     OW33435  12.180   9.526  11.716
10554SOL    HW133436  12.200   9.619  11.711
10554SOL    HW233437  12.234   9.493  11.788
10555SOL     OW33438  10.879  12.484  11.910
10555SOL    HW133439  10.906  12.448  11.995
10555SOL    HW233440  10.953  12.464  11.852
10556SOL     OW33441   4.428   5.955   8.307
10556SOL    HW133442   4.430   6.027   8.370
10556SOL    HW233443   4.517   5.919   8.310
10557SOL     OW33444   4.300  12.892  10.422
10557SOL    HW133445   4.279  12.818  10.366
10557SOL    HW233446   4.216  12.915  10.463
10558SOL     OW33447   3.120  13.902  12.004
10558SOL    HW133448   3.097  13.948  11.923
10558SOL    HW233449   3.197  13.948  12.036
10559SOL     OW33450  11.304  12.945  11.991
10559SOL    HW133451  11.322  13.039  11.985
10559SOL    HW233452  11.209  12.940  12.004
10560SOL     OW33453   5.298   2.360   2.339
10560SOL    HW133454   5.300   2.427   2.270
10560SOL    HW233455   5.216   2.376   2.385
10561SOL     OW33456   6.603  12.652  10.927
10561SOL    HW133457   6.691  12.651  10.890
10561SOL    HW233458   6.570  12.740  10.908
10562SOL     OW33459   7.565  10.210   1.296
10562SOL    HW133460   7.597  10.167   1.375
10562SOL    HW233461   7.614  10.169   1.225
10563SOL     OW33462   9.714   3.537   7.130
10563SOL    HW133463   9.770   3.517   7.055
10563SOL    HW233464   9.765   3.598   7.183
10564SOL     OW33465  11.317   7.996  12.752
10564SOL    HW133466  11.343   7.954  12.670
10564SOL    HW233467  11.341   7.933  12.820
10565SOL     OW33468   3.664   2.660   5.393
10565SOL    HW133469   3.678   2.622   5.480
10565SOL    HW233470   3.579   2.702   5.399
10566SOL     OW33471   7.523  13.968  12.919
10566SOL    HW133472   7.605  14.010  12.946
10566SOL    HW233473   7.484  13.937  13.001
10567SOL     OW33474   2.093   9.017   7.288
10567SOL    HW133475   2.004   9.038   7.260
10567SOL    HW233476   2.120   8.946   7.229
10568SOL     OW33477  13.753   4.722  12.726
10568SOL    HW133478  13.753   4.722  12.822
10568SOL    HW233479  13.829   4.775  12.702
10569SOL     OW33480  10.437  13.006   1.060
10569SOL    HW133481  10.503  12.966   1.117
10569SOL    HW233482  10.486  13.069   1.007
10570SOL     OW33483   2.256   1.688   8.478
10570SOL    HW133484   2.160   1.681   8.474
10570SOL    HW233485   2.272   1.782   8.474
10571SOL     OW33486   7.573  14.332  12.102
10571SOL    HW133487   7.512  14.404  12.084
10571SOL    HW233488   7.646  14.347  12.042
10572SOL     OW33489   8.992  14.708   9.398
10572SOL    HW133490   8.957  14.796   9.413
10572SOL    HW233491   8.924  14.649   9.431
10573SOL     OW33492   1.732   2.820  14.313
10573SOL    HW133493   1.646   2.841  14.349
10573SOL    HW233494   1.731   2.860  14.226
10574SOL     OW33495   2.690   7.167   8.603
10574SOL    HW133496   2.641   7.247   8.585
10574SOL    HW233497   2.742   7.188   8.680
10575SOL     OW33498  10.294  12.011   0.836
10575SOL    HW133499  10.295  12.089   0.892
10575SOL    HW233500  10.385  11.983   0.833
10576SOL     OW33501   5.853  12.448   5.082
10576SOL    HW133502   5.914  12.385   5.120
10576SOL    HW233503   5.779  12.449   5.144
10577SOL     OW33504   5.925   2.049   2.365
10577SOL    HW133505   6.000   1.991   2.373
10577SOL    HW233506   5.962   2.137   2.369
10578SOL     OW33507   2.323   3.409   3.947
10578SOL    HW133508   2.400   3.372   3.905
10578SOL    HW233509   2.250   3.359   3.912
10579SOL     OW33510  11.114   1.977   1.592
10579SOL    HW133511  11.042   2.038   1.606
10579SOL    HW233512  11.157   1.970   1.677
10580SOL     OW33513   9.142   8.628   6.645
10580SOL    HW133514   9.132   8.696   6.578
10580SOL    HW233515   9.190   8.671   6.716
10581SOL     OW33516   6.905   5.399  14.396
10581SOL    HW133517   6.967   5.430  14.329
10581SOL    HW233518   6.839   5.351  14.346
10582SOL     OW33519  14.201  11.614  13.049
10582SOL    HW133520  14.208  11.623  12.954
10582SOL    HW233521  14.171  11.524  13.062
10583SOL     OW33522   5.435   5.665   8.001
10583SOL    HW133523   5.473   5.731   7.943
10583SOL    HW233524   5.465   5.689   8.088
10584SOL     OW33525   5.638   7.263   3.320
10584SOL    HW133526   5.584   7.340   3.306
10584SOL    HW233527   5.650   7.226   3.232
10585SOL     OW33528  11.458   3.963   6.189
10585SOL    HW133529  11.471   3.873   6.217
10585SOL    HW233530  11.376   3.990   6.232
10586SOL     OW33531   1.239   5.869   6.374
10586SOL    HW133532   1.259   5.919   6.452
10586SOL    HW233533   1.172   5.920   6.329
10587SOL     OW33534   9.881   7.489   1.251
10587SOL    HW133535   9.910   7.519   1.337
10587SOL    HW233536   9.816   7.553   1.223
10588SOL     OW33537   0.402   6.169  11.130
10588SOL    HW133538   0.410   6.166  11.225
10588SOL    HW233539   0.314   6.204  11.115
10589SOL     OW33540   6.884   4.957   2.053
10589SOL    HW133541   6.881   5.045   2.090
10589SOL    HW233542   6.915   4.969   1.963
10590SOL     OW33543  11.327   6.762   1.590
10590SOL    HW133544  11.326   6.708   1.669
10590SOL    HW233545  11.293   6.847   1.618
10591SOL     OW33546  11.215   5.422   4.841
10591SOL    HW133547  11.155   5.468   4.782
10591SOL    HW233548  11.172   5.426   4.927
10592SOL     OW33549   1.504  13.799   7.978
10592SOL    HW133550   1.519  13.775   7.886
10592SOL    HW233551   1.477  13.717   8.020
10593SOL     OW33552   6.125  10.340   3.174
10593SOL    HW133553   6.167  10.266   3.130
10593SOL    HW233554   6.178  10.353   3.253
10594SOL     OW33555   7.027   1.416   4.740
10594SOL    HW133556   6.997   1.495   4.697
10594SOL    HW233557   6.970   1.406   4.816
10595SOL     OW33558  11.390   3.841   6.613
10595SOL    HW133559  11.324   3.776   6.590
10595SOL    HW233560  11.453   3.794   6.667
10596SOL     OW33561   1.445   8.915  13.022
10596SOL    HW133562   1.386   8.984  12.991
10596SOL    HW233563   1.460   8.937  13.114
10597SOL     OW33564  10.124   7.961   5.070
10597SOL    HW133565  10.172   7.882   5.047
10597SOL    HW233566  10.113   7.955   5.165
10598SOL     OW33567   2.407  13.053  10.990
10598SOL    HW133568   2.314  13.073  10.977
10598SOL    HW233569   2.415  12.960  10.969
10599SOL     OW33570   6.912  13.712   3.610
10599SOL    HW133571   6.946  13.707   3.700
10599SOL    HW233572   6.984  13.680   3.556
10600SOL     OW33573  11.490   5.041  10.564
10600SOL    HW133574  11.406   5.008  10.596
10600SOL    HW233575  11.549   5.035  10.640
10601SOL     OW33576   2.939  12.078   9.667
10601SOL    HW133577   2.859  12.123   9.638
10601SOL    HW233578   2.974  12.135   9.736
10602SOL     OW33579   7.820  12.463   8.426
10602SOL    HW133580   7.803  12.524   8.499
10602SOL    HW233581   7.778  12.381   8.453
10603SOL     OW33582  13.334  12.143   0.035
10603SOL    HW133583  13.272  12.209   0.066
10603SOL    HW233584  13.413  12.159   0.087
10604SOL     OW33585   0.044   3.459   0.612
10604SOL    HW133586   0.055   3.426   0.523
10604SOL    HW233587  14.832   3.492   0.615
10605SOL     OW33588  14.823  12.586   8.384
10605SOL    HW133589  14.832  12.666   8.333
10605SOL    HW233590  14.824  12.516   8.319
10606SOL     OW33591   9.780   0.583   8.264
10606SOL    HW133592   9.845   0.608   8.198
10606SOL    HW233593   9.696   0.587   8.218
10607SOL     OW33594   8.887   3.996  11.420
10607SOL    HW133595   8.814   3.955  11.374
10607SOL    HW233596   8.964   3.975  11.366
10608SOL     OW33597  10.927   7.654   9.253
10608SOL    HW133598  10.959   7.564   9.259
10608SOL    HW233599  10.838   7.645   9.218
10609SOL     OW33600  12.343  13.354  12.610
10609SOL    HW133601  12.334  13.312  12.695
10609SOL    HW233602  12.280  13.309  12.553
10610SOL     OW33603   8.086   6.851   1.080
10610SOL    HW133604   8.098   6.796   1.003
10610SOL    HW233605   8.042   6.795   1.143
10611SOL     OW33606  12.913   2.315  10.683
10611SOL    HW133607  12.850   2.387  10.683
10611SOL    HW233608  12.898   2.270  10.766
10612SOL     OW33609  12.963  14.069  14.798
10612SOL    HW133610  12.872  14.040  14.804
10612SOL    HW233611  12.979  14.080  14.705
10613SOL     OW33612   4.247  14.172   9.010
10613SOL    HW133613   4.248  14.078   8.995
10613SOL    HW233614   4.335  14.193   9.040
10614SOL     OW33615   7.594   1.148   3.689
10614SOL    HW133616   7.637   1.066   3.715
10614SOL    HW233617   7.522   1.158   3.752
10615SOL     OW33618   0.351   3.843   1.535
10615SOL    HW133619   0.427   3.786   1.548
10615SOL    HW233620   0.311   3.849   1.622
10616SOL     OW33621   9.700  14.698   4.957
10616SOL    HW133622   9.769  14.654   4.907
10616SOL    HW233623   9.677  14.775   4.905
10617SOL     OW33624   0.193   9.210   0.203
10617SOL    HW133625   0.213   9.173   0.117
10617SOL    HW233626   0.098   9.204   0.211
10618SOL     OW33627   6.224  12.459   2.882
10618SOL    HW133628   6.210  12.401   2.807
10618SOL    HW233629   6.208  12.546   2.848
10619SOL     OW33630   7.534   1.299   3.988
10619SOL    HW133631   7.487   1.378   3.960
10619SOL    HW233632   7.605   1.332   4.043
10620SOL     OW33633   6.356  13.239   8.500
10620SOL    HW133634   6.391  13.208   8.584
10620SOL    HW233635   6.406  13.318   8.480
10621SOL     OW33636   4.374  14.477   3.060
10621SOL    HW133637   4.351  14.570   3.068
10621SOL    HW233638   4.408  14.468   2.971
10622SOL     OW33639   4.366   4.057   7.242
10622SOL    HW133640   4.430   4.045   7.312
10622SOL    HW233641   4.282   4.060   7.287
10623SOL     OW33642   6.722  11.002   1.594
10623SOL    HW133643   6.657  11.064   1.628
10623SOL    HW233644   6.677  10.917   1.599
10624SOL     OW33645   1.351  12.060   0.723
10624SOL    HW133646   1.406  11.982   0.720
10624SOL    HW233647   1.381  12.108   0.800
10625SOL     OW33648   3.356   8.210  14.487
10625SOL    HW133649   3.447   8.236  14.475
10625SOL    HW233650   3.330   8.173  14.403
10626SOL     OW33651   5.706   0.237   7.105
10626SOL    HW133652   5.759   0.314   7.127
10626SOL    HW233653   5.740   0.168   7.163
10627SOL     OW33654  13.635   6.277   5.255
10627SOL    HW133655  13.618   6.345   5.190
10627SOL    HW233656  13.701   6.314   5.313
10628SOL     OW33657   8.520  12.338  14.398
10628SOL    HW133658   8.505  12.315  14.306
10628SOL    HW233659   8.452  12.291  14.446
10629SOL     OW33660  11.730  10.134  14.598
10629SOL    HW133661  11.719  10.141  14.692
10629SOL    HW233662  11.726  10.224  14.566
10630SOL     OW33663   5.621   3.951  14.432
10630SOL    HW133664   5.533   3.984  14.413
10630SOL    HW233665   5.608   3.861  14.460
10631SOL     OW33666   4.408  13.852   8.024
10631SOL    HW133667   4.482  13.801   7.990
10631SOL    HW233668   4.448  13.932   8.059
10632SOL     OW33669   0.423   0.319  12.500
10632SOL    HW133670   0.329   0.319  12.517
10632SOL    HW233671   0.460   0.260  12.566
10633SOL     OW33672   5.723   8.332  14.667
10633SOL    HW133673   5.693   8.259  14.613
10633SOL    HW233674   5.745   8.292  14.751
10634SOL     OW33675   1.512  12.420   8.112
10634SOL    HW133676   1.531  12.512   8.091
10634SOL    HW233677   1.598  12.380   8.122
10635SOL     OW33678   4.991   6.675   7.135
10635SOL    HW133679   4.973   6.586   7.167
10635SOL    HW233680   4.957   6.676   7.046
10636SOL     OW33681   3.514   5.979   9.385
10636SOL    HW133682   3.545   6.070   9.390
10636SOL    HW233683   3.533   5.943   9.471
10637SOL     OW33684   7.317  13.887   3.671
10637SOL    HW133685   7.383  13.885   3.740
10637SOL    HW233686   7.239  13.924   3.712
10638SOL     OW33687  10.204   3.342  14.770
10638SOL    HW133688  10.195   3.336  14.866
10638SOL    HW233689  10.139   3.281  14.736
10639SOL     OW33690   0.690   5.561   5.074
10639SOL    HW133691   0.641   5.518   5.003
10639SOL    HW233692   0.782   5.557   5.046
10640SOL     OW33693  14.697   8.484   2.632
10640SOL    HW133694  14.688   8.396   2.594
10640SOL    HW233695  14.766   8.525   2.580
10641SOL     OW33696  10.231   6.158   2.715
10641SOL    HW133697  10.148   6.125   2.750
10641SOL    HW233698  10.255   6.096   2.647
10642SOL     OW33699  11.760   1.971   5.551
10642SOL    HW133700  11.712   2.026   5.489
10642SOL    HW233701  11.840   2.020   5.570
10643SOL     OW33702  10.448   4.478  14.550
10643SOL    HW133703  10.507   4.523  14.611
10643SOL    HW233704  10.380   4.439  14.606
10644SOL     OW33705   2.687  14.499  11.139
10644SOL    HW133706   2.594  14.494  11.162
10644SOL    HW233707   2.706  14.592  11.133
10645SOL     OW33708   1.263  10.407   5.616
10645SOL    HW133709   1.355  10.434   5.618
10645SOL    HW233710   1.219  10.466   5.677
10646SOL     OW33711   1.386  11.729   3.653
10646SOL    HW133712   1.318  11.740   3.586
10646SOL    HW233713   1.456  11.681   3.608
10647SOL     OW33714   1.192   1.607   8.143
10647SOL    HW133715   1.238   1.642   8.219
10647SOL    HW233716   1.232   1.522   8.127
10648SOL     OW33717  10.024  13.136   6.521
10648SOL    HW133718  10.046  13.185   6.601
10648SOL    HW233719  10.039  13.198   6.450
10649SOL     OW33720  13.988   2.078   7.606
10649SOL    HW133721  14.017   2.018   7.675
10649SOL    HW233722  13.955   2.021   7.537
10650SOL     OW33723   7.229   9.965   7.029
10650SOL    HW133724   7.308   9.960   7.083
10650SOL    HW233725   7.189   9.879   7.039
10651SOL     OW33726   6.406  13.498   8.408
10651SOL    HW133727   6.332  13.508   8.348
10651SOL    HW233728   6.466  13.568   8.384
10652SOL     OW33729   7.449   3.254   2.828
10652SOL    HW133730   7.497   3.175   2.850
10652SOL    HW233731   7.442   3.252   2.732
10653SOL     OW33732   5.961   7.559   9.704
10653SOL    HW133733   5.977   7.468   9.730
10653SOL    HW233734   5.940   7.604   9.785
10654SOL     OW33735   5.297   8.372   1.396
10654SOL    HW133736   5.211   8.406   1.418
10654SOL    HW233737   5.282   8.317   1.319
10655SOL     OW33738  14.132   5.558   1.056
10655SOL    HW133739  14.069   5.602   0.999
10655SOL    HW233740  14.170   5.489   1.000
10656SOL     OW33741   3.734   6.247   9.861
10656SOL    HW133742   3.783   6.180   9.908
10656SOL    HW233743   3.775   6.330   9.886
10657SOL     OW33744   9.524  13.103  12.928
10657SOL    HW133745   9.441  13.150  12.940
10657SOL    HW233746   9.591  13.168  12.949
10658SOL     OW33747   9.618   2.596   5.197
10658SOL    HW133748   9.597   2.605   5.290
10658SOL    HW233749   9.534   2.578   5.155
10659SOL     OW33750   7.068   4.993   6.095
10659SOL    HW133751   7.103   5.079   6.116
10659SOL    HW233752   7.077   4.943   6.175
10660SOL     OW33753   3.273   3.811  14.718
10660SOL    HW133754   3.302   3.849  14.801
10660SOL    HW233755   3.317   3.864  14.651
10661SOL     OW33756  13.140   1.927   5.507
10661SOL    HW133757  13.235   1.938   5.511
10661SOL    HW233758  13.125   1.837   5.536
10662SOL     OW33759   6.353   3.702  11.797
10662SOL    HW133760   6.397   3.734  11.718
10662SOL    HW233761   6.366   3.608  11.795
10663SOL     OW33762   1.460  12.124  11.325
10663SOL    HW133763   1.383  12.170  11.291
10663SOL    HW233764   1.431  12.033  11.334
10664SOL     OW33765  10.008   5.910   3.433
10664SOL    HW133766  10.054   5.993   3.425
10664SOL    HW233767  10.014   5.871   3.345
10665SOL     OW33768   1.386   7.790  10.562
10665SOL    HW133769   1.409   7.820  10.474
10665SOL    HW233770   1.464   7.808  10.615
10666SOL     OW33771   7.329   6.995   1.892
10666SOL    HW133772   7.315   6.914   1.942
10666SOL    HW233773   7.421   6.990   1.865
10667SOL     OW33774   9.791   3.862  14.136
10667SOL    HW133775   9.787   3.770  14.109
10667SOL    HW233776   9.857   3.864  14.205
10668SOL     OW33777   7.722  14.469   3.283
10668SOL    HW133778   7.781  14.503   3.350
10668SOL    HW233779   7.773  14.402   3.238
10669SOL     OW33780  10.119   4.956   8.930
10669SOL    HW133781  10.117   5.015   9.004
10669SOL    HW233782  10.157   5.007   8.858
10670SOL     OW33783  13.972   2.229   5.764
10670SOL    HW133784  13.991   2.228   5.670
10670SOL    HW233785  14.036   2.290   5.801
10671SOL     OW33786   9.173   3.554   0.029
10671SOL    HW133787   9.212   3.491   0.089
10671SOL    HW233788   9.248   3.594  14.862
10672SOL     OW33789  12.101   8.611   1.228
10672SOL    HW133790  12.124   8.617   1.321
10672SOL    HW233791  12.048   8.531   1.222
10673SOL     OW33792  14.638  10.351   4.997
10673SOL    HW133793  14.647  10.261   5.027
10673SOL    HW233794  14.699  10.358   4.923
10674SOL     OW33795   3.235  12.127  14.189
10674SOL    HW133796   3.225  12.033  14.200
10674SOL    HW233797   3.329  12.143  14.198
10675SOL     OW33798   3.817   4.836   3.548
10675SOL    HW133799   3.866   4.808   3.624
10675SOL    HW233800   3.857   4.919   3.522
10676SOL     OW33801   8.358  13.963   1.511
10676SOL    HW133802   8.446  13.957   1.473
10676SOL    HW233803   8.371  13.941   1.604
10677SOL     OW33804   4.552   5.255   5.146
10677SOL    HW133805   4.575   5.243   5.238
10677SOL    HW233806   4.567   5.170   5.106
10678SOL     OW33807  14.018   6.170  11.865
10678SOL    HW133808  14.025   6.114  11.788
10678SOL    HW233809  13.944   6.135  11.914
10679SOL     OW33810   9.097   8.190  14.526
10679SOL    HW133811   9.145   8.192  14.609
10679SOL    HW233812   9.048   8.108  14.530
10680SOL     OW33813  12.742   4.791   9.082
10680SOL    HW133814  12.686   4.803   9.005
10680SOL    HW233815  12.823   4.838   9.060
10681SOL     OW33816   1.577   5.472   3.622
10681SOL    HW133817   1.623   5.429   3.550
10681SOL    HW233818   1.557   5.401   3.683
10682SOL     OW33819   2.006   6.069  10.353
10682SOL    HW133820   2.022   5.992  10.406
10682SOL    HW233821   2.093   6.094  10.320
10683SOL     OW33822   7.606  14.318   9.782
10683SOL    HW133823   7.670  14.387   9.764
10683SOL    HW233824   7.613  14.260   9.706
10684SOL     OW33825   6.278   7.630   9.859
10684SOL    HW133826   6.279   7.713   9.908
10684SOL    HW233827   6.206   7.581   9.897
10685SOL     OW33828   7.473  13.618  10.386
10685SOL    HW133829   7.433  13.563  10.319
10685SOL    HW233830   7.552  13.653  10.344
10686SOL     OW33831  10.679   6.828  12.810
10686SOL    HW133832  10.699   6.792  12.897
10686SOL    HW233833  10.661   6.752  12.756
10687SOL     OW33834   9.739  12.589   2.665
10687SOL    HW133835   9.759  12.573   2.573
10687SOL    HW233836   9.771  12.512   2.711
10688SOL     OW33837   9.172   8.184  11.186
10688SOL    HW133838   9.247   8.175  11.127
10688SOL    HW233839   9.136   8.096  11.192
10689SOL     OW33840   7.213   6.472   6.205
10689SOL    HW133841   7.143   6.502   6.262
10689SOL    HW233842   7.175   6.400   6.155
10690SOL     OW33843  12.234   9.028  12.179
10690SOL    HW133844  12.282   8.964  12.127
10690SOL    HW233845  12.237   8.994  12.268
10691SOL     OW33846   0.192   1.180   0.408
10691SOL    HW133847   0.172   1.223   0.491
10691SOL    HW233848   0.106   1.160   0.370
10692SOL     OW33849   0.557   0.595  11.083
10692SOL    HW133850   0.517   0.653  11.019
10692SOL    HW233851   0.644   0.575  11.048
10693SOL     OW33852  13.975   3.881  11.276
10693SOL    HW133853  13.927   3.810  11.233
10693SOL    HW233854  13.909   3.925  11.330
10694SOL     OW33855   5.499   9.191   9.152
10694SOL    HW133856   5.406   9.177   9.134
10694SOL    HW233857   5.511   9.156   9.241
10695SOL     OW33858   3.043   6.888   3.694
10695SOL    HW133859   3.102   6.935   3.752
10695SOL    HW233860   2.956   6.900   3.732
10696SOL     OW33861  12.614  14.594   8.920
10696SOL    HW133862  12.524  14.616   8.940
10696SOL    HW233863  12.616  14.587   8.824
10697SOL     OW33864   7.199  14.240   4.517
10697SOL    HW133865   7.194  14.147   4.536
10697SOL    HW233866   7.238  14.278   4.596
10698SOL     OW33867  12.052  11.097   3.289
10698SOL    HW133868  12.064  11.008   3.254
10698SOL    HW233869  11.960  11.099   3.317
10699SOL     OW33870   7.646   8.789   9.143
10699SOL    HW133871   7.650   8.875   9.102
10699SOL    HW233872   7.662   8.727   9.072
10700SOL     OW33873   2.025   1.598   5.088
10700SOL    HW133874   2.035   1.564   5.176
10700SOL    HW233875   1.964   1.538   5.045
10701SOL     OW33876   5.099  14.083   0.949
10701SOL    HW133877   5.038  14.065   0.878
10701SOL    HW233878   5.067  14.031   1.023
10702SOL     OW33879   4.632   9.437   4.850
10702SOL    HW133880   4.634   9.503   4.781
10702SOL    HW233881   4.581   9.365   4.814
10703SOL     OW33882   1.038   5.545  10.253
10703SOL    HW133883   0.993   5.508  10.328
10703SOL    HW233884   1.021   5.639  10.259
10704SOL     OW33885   5.082  11.008   1.701
10704SOL    HW133886   5.028  10.945   1.654
10704SOL    HW233887   5.153  11.030   1.641
10705SOL     OW33888  13.667   2.544  11.193
10705SOL    HW133889  13.709   2.614  11.243
10705SOL    HW233890  13.739   2.500  11.147
10706SOL     OW33891  10.335   2.478   0.569
10706SOL    HW133892  10.370   2.390   0.561
10706SOL    HW233893  10.412   2.535   0.570
10707SOL     OW33894  12.850   7.093   6.208
10707SOL    HW133895  12.782   7.042   6.251
10707SOL    HW233896  12.927   7.037   6.209
10708SOL     OW33897  13.356  11.743   3.303
10708SOL    HW133898  13.426  11.782   3.250
10708SOL    HW233899  13.275  11.775   3.263
10709SOL     OW33900   4.205   7.806   1.739
10709SOL    HW133901   4.286   7.773   1.778
10709SOL    HW233902   4.141   7.737   1.755
10710SOL     OW33903   4.697  12.800   5.975
10710SOL    HW133904   4.707  12.840   6.061
10710SOL    HW233905   4.631  12.731   5.987
10711SOL     OW33906   3.128   0.074  12.554
10711SOL    HW133907   3.185  14.877  12.533
10711SOL    HW233908   3.045   0.035  12.580
10712SOL     OW33909   6.328   0.612   3.915
10712SOL    HW133910   6.329   0.549   3.987
10712SOL    HW233911   6.408   0.663   3.926
10713SOL     OW33912   3.627   7.175  14.856
10713SOL    HW133913   3.658   7.095  14.814
10713SOL    HW233914   3.707   7.220   0.005
10714SOL     OW33915   2.257   5.728  11.184
10714SOL    HW133916   2.330   5.667  11.191
10714SOL    HW233917   2.295   5.807  11.145
10715SOL     OW33918   1.177  10.684  11.330
10715SOL    HW133919   1.169  10.661  11.423
10715SOL    HW233920   1.223  10.767  11.329
10716SOL     OW33921  14.257  12.088   2.264
10716SOL    HW133922  14.285  12.177   2.288
10716SOL    HW233923  14.310  12.030   2.318
10717SOL     OW33924   7.592   1.768   3.133
10717SOL    HW133925   7.665   1.804   3.183
10717SOL    HW233926   7.547   1.845   3.099
10718SOL     OW33927  14.025   8.258  13.646
10718SOL    HW133928  13.954   8.315  13.674
10718SOL    HW233929  14.034   8.273  13.552
10719SOL     OW33930   9.670  10.730   8.295
10719SOL    HW133931   9.577  10.735   8.273
10719SOL    HW233932   9.686  10.636   8.307
10720SOL     OW33933   7.365   2.909   3.355
10720SOL    HW133934   7.271   2.920   3.345
10720SOL    HW233935   7.375   2.830   3.409
10721SOL     OW33936   7.365   9.957   4.228
10721SOL    HW133937   7.424   9.914   4.166
10721SOL    HW233938   7.364  10.049   4.200
10722SOL     OW33939   8.508  10.416  13.846
10722SOL    HW133940   8.444  10.467  13.896
10722SOL    HW233941   8.591  10.429  13.892
10723SOL     OW33942  11.466  13.670   3.891
10723SOL    HW133943  11.546  13.620   3.875
10723SOL    HW233944  11.454  13.669   3.985
10724SOL     OW33945   9.011  11.686   1.796
10724SOL    HW133946   9.042  11.608   1.841
10724SOL    HW233947   8.919  11.693   1.821
10725SOL     OW33948   7.669  11.339   7.572
10725SOL    HW133949   7.712  11.313   7.653
10725SOL    HW233950   7.641  11.429   7.588
10726SOL     OW33951   9.540   3.142  13.801
10726SOL    HW133952   9.566   3.203  13.732
10726SOL    HW233953   9.587   3.173  13.878
10727SOL     OW33954  14.087  12.418   4.674
10727SOL    HW133955  14.053  12.374   4.751
10727SOL    HW233956  14.023  12.486   4.654
10728SOL     OW33957   3.053   3.675  11.285
10728SOL    HW133958   2.966   3.639  11.265
10728SOL    HW233959   3.034   3.760  11.325
10729SOL     OW33960   9.284  11.965   3.924
10729SOL    HW133961   9.263  11.928   3.838
10729SOL    HW233962   9.377  11.985   3.919
10730SOL     OW33963   2.872   2.828   5.462
10730SOL    HW133964   2.820   2.751   5.442
10730SOL    HW233965   2.898   2.863   5.376
10731SOL     OW33966   2.663   3.621   9.016
10731SOL    HW133967   2.619   3.696   8.976
10731SOL    HW233968   2.657   3.553   8.949
10732SOL     OW33969   3.117  10.131  14.839
10732SOL    HW133970   3.093  10.063   0.024
10732SOL    HW233971   3.033  10.164  14.807
10733SOL     OW33972  14.282   6.218   6.870
10733SOL    HW133973  14.256   6.129   6.847
10733SOL    HW233974  14.264   6.269   6.791
10734SOL     OW33975  11.005  11.357  12.685
10734SOL    HW133976  11.006  11.262  12.672
10734SOL    HW233977  10.932  11.387  12.631
10735SOL     OW33978  14.183   7.520   5.026
10735SOL    HW133979  14.132   7.535   5.106
10735SOL    HW233980  14.121   7.534   4.955
10736SOL     OW33981  14.137  13.032  13.951
10736SOL    HW133982  14.081  12.954  13.946
10736SOL    HW233983  14.112  13.085  13.876
10737SOL     OW33984   7.469  10.017  10.102
10737SOL    HW133985   7.498  10.062  10.181
10737SOL    HW233986   7.421   9.941  10.134
10738SOL     OW33987   9.496  13.318   9.184
10738SOL    HW133988   9.459  13.347   9.100
10738SOL    HW233989   9.516  13.399   9.230
10739SOL     OW33990  13.916   9.572  11.223
10739SOL    HW133991  14.000   9.595  11.182
10739SOL    HW233992  13.870   9.522  11.157
10740SOL     OW33993   4.033  12.121   4.537
10740SOL    HW133994   4.056  12.200   4.585
10740SOL    HW233995   4.089  12.122   4.459
10741SOL     OW33996   0.386   1.674  13.933
10741SOL    HW133997   0.292   1.659  13.924
10741SOL    HW233998   0.411   1.626  14.012
10742SOL     OW33999   4.777   1.226  11.830
10742SOL    HW134000   4.858   1.176  11.822
10742SOL    HW234001   4.728   1.205  11.751
10743SOL     OW34002  14.206  14.289   1.829
10743SOL    HW134003  14.198  14.199   1.861
10743SOL    HW234004  14.116  14.323   1.831
10744SOL     OW34005  11.962   3.048   9.617
10744SOL    HW134006  11.996   3.003   9.540
10744SOL    HW234007  12.040   3.078   9.664
10745SOL     OW34008   3.849  12.437   0.535
10745SOL    HW134009   3.793  12.514   0.548
10745SOL    HW234010   3.938  12.472   0.532
10746SOL     OW34011   0.392   4.312   1.533
10746SOL    HW134012   0.455   4.282   1.468
10746SOL    HW234013   0.320   4.348   1.482
10747SOL     OW34014   8.626   3.120   4.486
10747SOL    HW134015   8.720   3.132   4.476
10747SOL    HW234016   8.591   3.126   4.397
10748SOL     OW34017   0.013  11.109  12.559
10748SOL    HW134018   0.055  11.026  12.581
10748SOL    HW234019  14.831  11.125  12.632
10749SOL     OW34020   0.195  13.430   2.080
10749SOL    HW134021   0.215  13.523   2.074
10749SOL    HW234022   0.100  13.426   2.085
10750SOL     OW34023  12.332  12.207  14.114
10750SOL    HW134024  12.268  12.150  14.156
10750SOL    HW234025  12.334  12.285  14.169
10751SOL     OW34026   0.023   4.492   6.528
10751SOL    HW134027   0.006   4.428   6.597
10751SOL    HW234028   0.115   4.516   6.540
10752SOL     OW34029  10.977  13.207   2.216
10752SOL    HW134030  11.054  13.245   2.174
10752SOL    HW234031  10.995  13.214   2.309
10753SOL     OW34032   5.000   8.692  11.280
10753SOL    HW134033   4.968   8.706  11.369
10753SOL    HW234034   5.010   8.597  11.273
10754SOL     OW34035   2.644   2.909   0.258
10754SOL    HW134036   2.556   2.872   0.253
10754SOL    HW234037   2.700   2.843   0.217
10755SOL     OW34038  10.361  14.013   2.159
10755SOL    HW134039  10.319  14.088   2.117
10755SOL    HW234040  10.453  14.021   2.134
10756SOL     OW34041   8.306   2.136   6.935
10756SOL    HW134042   8.331   2.108   7.023
10756SOL    HW234043   8.375   2.197   6.909
10757SOL     OW34044   2.457   4.540  11.000
10757SOL    HW134045   2.369   4.564  10.972
10757SOL    HW234046   2.505   4.525  10.918
10758SOL     OW34047  10.901  13.740  14.349
10758SOL    HW134048  10.914  13.753  14.443
10758SOL    HW234049  10.927  13.649  14.334
10759SOL     OW34050  11.579  11.754   8.008
10759SOL    HW134051  11.571  11.848   8.022
10759SOL    HW234052  11.536  11.715   8.084
10760SOL     OW34053   6.205   7.845   5.729
10760SOL    HW134054   6.248   7.762   5.707
10760SOL    HW234055   6.275   7.910   5.728
10761SOL     OW34056  14.209  10.012   1.483
10761SOL    HW134057  14.283  10.022   1.424
10761SOL    HW234058  14.148   9.955   1.436
10762SOL     OW34059   6.692   2.786   5.496
10762SOL    HW134060   6.658   2.707   5.453
10762SOL    HW234061   6.620   2.848   5.493
10763SOL     OW34062   2.455  11.718   3.107
10763SOL    HW134063   2.479  11.734   3.016
10763SOL    HW234064   2.534  11.738   3.157
10764SOL     OW34065   3.524   3.781   4.977
10764SOL    HW134066   3.441   3.742   5.007
10764SOL    HW234067   3.512   3.875   4.989
10765SOL     OW34068  10.449   0.026   0.876
10765SOL    HW134069  10.461   0.001   0.968
10765SOL    HW234070  10.355   0.016   0.861
10766SOL     OW34071   9.135   4.204   5.146
10766SOL    HW134072   9.158   4.115   5.172
10766SOL    HW234073   9.218   4.243   5.119
10767SOL     OW34074  12.118  14.602  10.412
10767SOL    HW134075  12.096  14.509  10.419
10767SOL    HW234076  12.146  14.627  10.501
10768SOL     OW34077  14.867   5.629   9.083
10768SOL    HW134078   0.069   5.583   9.058
10768SOL    HW234079   0.009   5.664   9.170
10769SOL     OW34080   4.706   1.980   6.628
10769SOL    HW134081   4.721   2.043   6.558
10769SOL    HW234082   4.793   1.967   6.668
10770SOL     OW34083  13.374  11.107   8.035
10770SOL    HW134084  13.451  11.105   8.092
10770SOL    HW234085  13.345  11.198   8.038
10771SOL     OW34086  13.516   1.412  11.636
10771SOL    HW134087  13.524   1.356  11.559
10771SOL    HW234088  13.563   1.492  11.612
10772SOL     OW34089  10.203  12.541   0.464
10772SOL    HW134090  10.146  12.614   0.441
10772SOL    HW234091  10.162  12.464   0.424
10773SOL     OW34092   0.132   9.283  10.106
10773SOL    HW134093   0.145   9.346  10.177
10773SOL    HW234094   0.174   9.203  10.137
10774SOL     OW34095  11.658  11.442  12.647
10774SOL    HW134096  11.646  11.536  12.653
10774SOL    HW234097  11.622  11.407  12.728
10775SOL     OW34098   5.441   3.342  14.118
10775SOL    HW134099   5.534   3.354  14.100
10775SOL    HW234100   5.429   3.373  14.207
10776SOL     OW34101  14.610  14.639  10.191
10776SOL    HW134102  14.621  14.712  10.131
10776SOL    HW234103  14.650  14.564  10.146
10777SOL     OW34104   3.620   5.073   3.854
10777SOL    HW134105   3.702   5.083   3.806
10777SOL    HW234106   3.570   5.009   3.803
10778SOL     OW34107   2.045   3.090   4.932
10778SOL    HW134108   1.974   3.031   4.957
10778SOL    HW234109   2.103   3.091   5.009
10779SOL     OW34110  13.273  10.478  11.018
10779SOL    HW134111  13.238  10.439  11.098
10779SOL    HW234112  13.332  10.412  10.982
10780SOL     OW34113  14.555  13.574   8.818
10780SOL    HW134114  14.490  13.506   8.804
10780SOL    HW234115  14.528  13.647   8.763
10781SOL     OW34116   7.384   2.486  13.856
10781SOL    HW134117   7.396   2.414  13.794
10781SOL    HW234118   7.473   2.514  13.878
10782SOL     OW34119  14.148   1.582  11.926
10782SOL    HW134120  14.107   1.621  11.849
10782SOL    HW234121  14.151   1.654  11.990
10783SOL     OW34122   1.485   5.503  13.043
10783SOL    HW134123   1.420   5.439  13.016
10783SOL    HW234124   1.435   5.582  13.062
10784SOL     OW34125  12.408   2.427   5.574
10784SOL    HW134126  12.383   2.355   5.515
10784SOL    HW234127  12.345   2.421   5.647
10785SOL     OW34128   9.878   0.286   4.876
10785SOL    HW134129   9.798   0.329   4.906
10785SOL    HW234130   9.906   0.337   4.800
10786SOL     OW34131   9.723  10.886   8.906
10786SOL    HW134132   9.670  10.952   8.950
10786SOL    HW234133   9.693  10.887   8.815
10787SOL     OW34134   2.125   9.463  13.372
10787SOL    HW134135   2.080   9.456  13.288
10787SOL    HW234136   2.178   9.384  13.379
10788SOL     OW34137   2.116  10.338  13.014
10788SOL    HW134138   2.212  10.348  13.015
10788SOL    HW234139   2.085  10.412  12.962
10789SOL     OW34140   5.874   8.549   6.676
10789SOL    HW134141   5.968   8.561   6.664
10789SOL    HW234142   5.846   8.502   6.597
10790SOL     OW34143   6.252   2.668  14.611
10790SOL    HW134144   6.197   2.675  14.689
10790SOL    HW234145   6.322   2.607  14.637
10791SOL     OW34146   2.971  13.022   9.949
10791SOL    HW134147   3.044  13.075   9.918
10791SOL    HW234148   2.969  12.946   9.890
10792SOL     OW34149   9.350  13.578   1.311
10792SOL    HW134150   9.443  13.564   1.333
10792SOL    HW234151   9.316  13.630   1.384
10793SOL     OW34152  11.900   1.646  11.667
10793SOL    HW134153  11.881   1.725  11.617
10793SOL    HW234154  11.973   1.605  11.621
10794SOL     OW34155   8.032   2.211   5.098
10794SOL    HW134156   8.056   2.304   5.098
10794SOL    HW234157   7.999   2.195   5.187
10795SOL     OW34158   6.714   1.516   7.763
10795SOL    HW134159   6.689   1.453   7.831
10795SOL    HW234160   6.770   1.466   7.704
10796SOL     OW34161  14.235   1.512   6.994
10796SOL    HW134162  14.179   1.508   6.916
10796SOL    HW234163  14.195   1.579   7.049
10797SOL     OW34164   1.038  10.473   9.363
10797SOL    HW134165   1.049  10.381   9.385
10797SOL    HW234166   0.981  10.472   9.286
10798SOL     OW34167   7.892   1.026  11.852
10798SOL    HW134168   7.974   0.992  11.886
10798SOL    HW234169   7.873   0.970  11.776
10799SOL     OW34170  14.161   4.748   9.866
10799SOL    HW134171  14.092   4.716   9.924
10799SOL    HW234172  14.126   4.734   9.778
10800SOL     OW34173  10.805  12.825   9.924
10800SOL    HW134174  10.843  12.759   9.865
10800SOL    HW234175  10.814  12.787  10.011
10801SOL     OW34176   0.571   3.592   0.763
10801SOL    HW134177   0.585   3.635   0.679
10801SOL    HW234178   0.536   3.660   0.820
10802SOL     OW34179   9.480   9.610   0.552
10802SOL    HW134180   9.469   9.544   0.484
10802SOL    HW234181   9.418   9.584   0.621
10803SOL     OW34182  10.384  13.951  11.372
10803SOL    HW134183  10.321  13.917  11.309
10803SOL    HW234184  10.332  14.005  11.432
10804SOL     OW34185  12.206  11.764   4.169
10804SOL    HW134186  12.210  11.856   4.193
10804SOL    HW234187  12.139  11.760   4.101
10805SOL     OW34188   1.738   8.883  11.252
10805SOL    HW134189   1.727   8.793  11.222
10805SOL    HW234190   1.832   8.899  11.247
10806SOL     OW34191  10.754   8.923   2.920
10806SOL    HW134192  10.711   9.009   2.917
10806SOL    HW234193  10.848   8.944   2.914
10807SOL     OW34194  13.752  13.451  12.167
10807SOL    HW134195  13.779  13.523  12.224
10807SOL    HW234196  13.711  13.494  12.092
10808SOL     OW34197   1.874   8.778  11.831
10808SOL    HW134198   1.969   8.782  11.817
10808SOL    HW234199   1.854   8.855  11.884
10809SOL     OW34200   8.610  14.245  11.570
10809SOL    HW134201   8.605  14.341  11.565
10809SOL    HW234202   8.674  14.228  11.638
10810SOL     OW34203   6.793  12.396   7.050
10810SOL    HW134204   6.840  12.334   6.995
10810SOL    HW234205   6.799  12.359   7.138
10811SOL     OW34206   2.365   8.148   9.322
10811SOL    HW134207   2.449   8.186   9.298
10811SOL    HW234208   2.386   8.089   9.395
10812SOL     OW34209  14.609   8.813   0.829
10812SOL    HW134210  14.643   8.829   0.917
10812SOL    HW234211  14.683   8.775   0.782
10813SOL     OW34212  14.770  10.451   6.660
10813SOL    HW134213  14.682  10.462   6.624
10813SOL    HW234214  14.797  10.364   6.630
10814SOL     OW34215   7.408   1.667  10.253
10814SOL    HW134216   7.319   1.653  10.285
10814SOL    HW234217   7.434   1.751  10.289
10815SOL     OW34218  14.829   5.813  10.516
10815SOL    HW134219   0.036   5.770  10.534
10815SOL    HW234220  14.787   5.819  10.601
10816SOL     OW34221  13.106  14.308   2.243
10816SOL    HW134222  13.168  14.381   2.244
10816SOL    HW234223  13.132  14.253   2.317
10817SOL     OW34224   7.660   5.803  11.885
10817SOL    HW134225   7.719   5.729  11.893
10817SOL    HW234226   7.572   5.766  11.891
10818SOL     OW34227   9.499   1.692   7.113
10818SOL    HW134228   9.421   1.699   7.168
10818SOL    HW234229   9.572   1.701   7.174
10819SOL     OW34230   5.232  10.297   7.262
10819SOL    HW134231   5.195  10.223   7.215
10819SOL    HW234232   5.246  10.265   7.351
10820SOL     OW34233  12.884   0.903   2.747
10820SOL    HW134234  12.965   0.952   2.756
10820SOL    HW234235  12.910   0.811   2.749
10821SOL     OW34236  12.472  11.950  12.280
10821SOL    HW134237  12.489  12.001  12.200
10821SOL    HW234238  12.542  11.975  12.340
10822SOL     OW34239  11.997  10.326   0.845
10822SOL    HW134240  11.973  10.417   0.862
10822SOL    HW234241  12.037  10.296   0.927
10823SOL     OW34242   4.472   6.026   8.732
10823SOL    HW134243   4.563   6.056   8.737
10823SOL    HW234244   4.447   6.039   8.641
10824SOL     OW34245   8.464   4.519  14.620
10824SOL    HW134246   8.461   4.613  14.601
10824SOL    HW234247   8.379   4.485  14.590
10825SOL     OW34248   3.172   0.844  13.156
10825SOL    HW134249   3.156   0.835  13.250
10825SOL    HW234250   3.256   0.889  13.150
10826SOL     OW34251  11.121   0.576   8.265
10826SOL    HW134252  11.048   0.630   8.235
10826SOL    HW234253  11.177   0.636   8.315
10827SOL     OW34254   1.566  12.723   1.764
10827SOL    HW134255   1.489  12.689   1.718
10827SOL    HW234256   1.534  12.749   1.850
10828SOL     OW34257   4.185   1.857   3.967
10828SOL    HW134258   4.198   1.893   3.879
10828SOL    HW234259   4.096   1.882   3.990
10829SOL     OW34260   7.635  14.068   7.526
10829SOL    HW134261   7.652  13.993   7.583
10829SOL    HW234262   7.675  14.045   7.442
10830SOL     OW34263   1.429  11.095   2.376
10830SOL    HW134264   1.373  11.170   2.399
10830SOL    HW234265   1.386  11.020   2.418
10831SOL     OW34266   6.193   2.070  10.638
10831SOL    HW134267   6.210   2.003  10.704
10831SOL    HW234268   6.105   2.102  10.659
10832SOL     OW34269   3.802  12.840   5.879
10832SOL    HW134270   3.745  12.819   5.805
10832SOL    HW234271   3.850  12.759   5.894
10833SOL     OW34272  11.008   3.289   7.688
10833SOL    HW134273  10.991   3.230   7.614
10833SOL    HW234274  10.922   3.302   7.728
10834SOL     OW34275  11.295  11.238   7.471
10834SOL    HW134276  11.245  11.225   7.551
10834SOL    HW234277  11.253  11.313   7.428
10835SOL     OW34278   8.192   6.009  11.371
10835SOL    HW134279   8.276   5.963  11.362
10835SOL    HW234280   8.179   6.015  11.465
10836SOL     OW34281   3.298  13.531  12.723
10836SOL    HW134282   3.388  13.503  12.737
10836SOL    HW234283   3.305  13.626  12.707
10837SOL     OW34284   1.472   4.555   8.875
10837SOL    HW134285   1.453   4.583   8.785
10837SOL    HW234286   1.527   4.624   8.911
10838SOL     OW34287   4.708   8.459   8.062
10838SOL    HW134288   4.755   8.443   8.144
10838SOL    HW234289   4.696   8.554   8.061
10839SOL     OW34290  12.158   9.116   4.694
10839SOL    HW134291  12.131   9.094   4.783
10839SOL    HW234292  12.241   9.162   4.705
10840SOL     OW34293  14.414  14.160  14.074
10840SOL    HW134294  14.413  14.181  13.981
10840SOL    HW234295  14.488  14.100  14.084
10841SOL     OW34296  11.810   4.833   1.234
10841SOL    HW134297  11.796   4.921   1.269
10841SOL    HW234298  11.806   4.775   1.310
10842SOL     OW34299   9.781   3.767   8.277
10842SOL    HW134300   9.708   3.761   8.339
10842SOL    HW234301   9.859   3.761   8.331
10843SOL     OW34302  10.728   4.941   6.361
10843SOL    HW134303  10.779   5.014   6.327
10843SOL    HW234304  10.637   4.971   6.356
10844SOL     OW34305  12.217  13.512   1.020
10844SOL    HW134306  12.270  13.512   1.100
10844SOL    HW234307  12.130  13.537   1.050
10845SOL     OW34308   8.667   4.240   0.092
10845SOL    HW134309   8.603   4.178   0.128
10845SOL    HW234310   8.617   4.321   0.079
10846SOL     OW34311   3.265   6.963  14.825
10846SOL    HW134312   3.307   6.916   0.020
10846SOL    HW234313   3.198   7.017  14.867
10847SOL     OW34314   4.176  14.565   9.672
10847SOL    HW134315   4.151  14.627   9.741
10847SOL    HW234316   4.271  14.576   9.664
10848SOL     OW34317   9.772   4.316   5.577
10848SOL    HW134318   9.860   4.278   5.577
10848SOL    HW234319   9.785   4.410   5.576
10849SOL     OW34320   2.222  12.770  11.351
10849SOL    HW134321   2.199  12.678  11.361
10849SOL    HW234322   2.190  12.793  11.264
10850SOL     OW34323  14.341   3.675  11.735
10850SOL    HW134324  14.334   3.603  11.798
10850SOL    HW234325  14.428   3.711  11.750
10851SOL     OW34326   1.166   1.156   8.310
10851SOL    HW134327   1.089   1.198   8.348
10851SOL    HW234328   1.236   1.172   8.372
10852SOL     OW34329  10.478   1.875   1.189
10852SOL    HW134330  10.406   1.910   1.137
10852SOL    HW234331  10.467   1.916   1.275
10853SOL     OW34332   6.772   4.518   4.548
10853SOL    HW134333   6.779   4.572   4.469
10853SOL    HW234334   6.760   4.429   4.515
10854SOL     OW34335   8.282   7.671  13.069
10854SOL    HW134336   8.193   7.679  13.102
10854SOL    HW234337   8.297   7.577  13.060
10855SOL     OW34338   9.403   2.822  12.469
10855SOL    HW134339   9.357   2.752  12.423
10855SOL    HW234340   9.335   2.884  12.494
10856SOL     OW34341   1.516   0.960   8.271
10856SOL    HW134342   1.589   0.899   8.266
10856SOL    HW234343   1.446   0.909   8.313
10857SOL     OW34344   1.691  13.057  10.380
10857SOL    HW134345   1.739  13.087  10.303
10857SOL    HW234346   1.755  13.060  10.451
10858SOL     OW34347   0.271   7.340   9.031
10858SOL    HW134348   0.183   7.303   9.039
10858SOL    HW234349   0.316   7.314   9.112
10859SOL     OW34350   6.981   5.598   5.320
10859SOL    HW134351   6.985   5.693   5.314
10859SOL    HW234352   7.013   5.568   5.234
10860SOL     OW34353  12.383   5.381   1.027
10860SOL    HW134354  12.440   5.456   1.012
10860SOL    HW234355  12.377   5.337   0.942
10861SOL     OW34356   6.200  11.342  12.139
10861SOL    HW134357   6.255  11.308  12.068
10861SOL    HW234358   6.240  11.426  12.162
10862SOL     OW34359   3.665   0.345  13.990
10862SOL    HW134360   3.755   0.374  14.003
10862SOL    HW234361   3.669   0.249  14.001
10863SOL     OW34362   2.864  12.156   2.666
10863SOL    HW134363   2.904  12.164   2.580
10863SOL    HW234364   2.931  12.114   2.720
10864SOL     OW34365   0.578  11.176  11.504
10864SOL    HW134366   0.488  11.144  11.507
10864SOL    HW234367   0.592  11.200  11.413
10865SOL     OW34368  11.236  12.560  13.458
10865SOL    HW134369  11.294  12.484  13.467
10865SOL    HW234370  11.168  12.547  13.524
10866SOL     OW34371  10.811  14.847   5.448
10866SOL    HW134372  10.767  14.806   5.522
10866SOL    HW234373  10.837   0.056   5.480
10867SOL     OW34374   4.749   1.631  12.485
10867SOL    HW134375   4.823   1.624  12.545
10867SOL    HW234376   4.713   1.542  12.482
10868SOL     OW34377  10.577   1.747   3.636
10868SOL    HW134378  10.628   1.814   3.592
10868SOL    HW234379  10.499   1.735   3.582
10869SOL     OW34380   9.410   6.503   2.193
10869SOL    HW134381   9.432   6.554   2.270
10869SOL    HW234382   9.488   6.451   2.174
10870SOL     OW34383   2.859   0.658   9.170
10870SOL    HW134384   2.786   0.648   9.109
10870SOL    HW234385   2.861   0.751   9.190
10871SOL     OW34386  11.538   4.340  14.229
10871SOL    HW134387  11.548   4.264  14.285
10871SOL    HW234388  11.496   4.406  14.284
10872SOL     OW34389   9.427   7.065  13.996
10872SOL    HW134390   9.500   7.008  14.021
10872SOL    HW234391   9.464   7.154  13.999
10873SOL     OW34392   4.437   8.351   3.216
10873SOL    HW134393   4.436   8.387   3.305
10873SOL    HW234394   4.432   8.256   3.229
10874SOL     OW34395   1.218   5.343   0.263
10874SOL    HW134396   1.220   5.256   0.223
10874SOL    HW234397   1.157   5.393   0.209
10875SOL     OW34398   2.816   8.490   6.133
10875SOL    HW134399   2.799   8.568   6.188
10875SOL    HW234400   2.789   8.417   6.188
10876SOL     OW34401   6.444   5.809   7.548
10876SOL    HW134402   6.468   5.832   7.458
10876SOL    HW234403   6.348   5.803   7.547
10877SOL     OW34404  10.142   8.732   9.173
10877SOL    HW134405  10.081   8.719   9.101
10877SOL    HW234406  10.091   8.713   9.252
10878SOL     OW34407  14.340  13.458   1.911
10878SOL    HW134408  14.340  13.419   1.823
10878SOL    HW234409  14.249  13.482   1.927
10879SOL     OW34410   6.433  14.022   4.366
10879SOL    HW134411   6.478  13.955   4.418
10879SOL    HW234412   6.391  13.974   4.295
10880SOL     OW34413   3.534   4.216   7.377
10880SOL    HW134414   3.452   4.193   7.333
10880SOL    HW234415   3.519   4.303   7.412
10881SOL     OW34416   4.231   7.548   6.109
10881SOL    HW134417   4.150   7.534   6.060
10881SOL    HW234418   4.230   7.641   6.131
10882SOL     OW34419   9.243   1.204   6.262
10882SOL    HW134420   9.299   1.279   6.281
10882SOL    HW234421   9.254   1.189   6.168
10883SOL     OW34422   0.016   7.961   2.177
10883SOL    HW134423  14.829   8.026   2.149
10883SOL    HW234424   0.101   8.001   2.156
10884SOL     OW34425   1.832   1.823   9.961
10884SOL    HW134426   1.771   1.864   9.900
10884SOL    HW234427   1.870   1.750   9.912
10885SOL     OW34428   6.763   2.828   6.350
10885SOL    HW134429   6.822   2.856   6.280
10885SOL    HW234430   6.821   2.803   6.422
10886SOL     OW34431   0.215   8.839   6.404
10886SOL    HW134432   0.153   8.798   6.465
10886SOL    HW234433   0.200   8.793   6.321
10887SOL     OW34434  10.157  12.508   4.713
10887SOL    HW134435  10.193  12.426   4.747
10887SOL    HW234436  10.089  12.480   4.651
10888SOL     OW34437   9.411   0.683  11.513
10888SOL    HW134438   9.348   0.730  11.568
10888SOL    HW234439   9.488   0.673  11.569
10889SOL     OW34440  11.362   3.589   3.614
10889SOL    HW134441  11.430   3.605   3.549
10889SOL    HW234442  11.389   3.640   3.691
10890SOL     OW34443   9.491   8.370  12.479
10890SOL    HW134444   9.575   8.408  12.505
10890SOL    HW234445   9.494   8.369  12.384
10891SOL     OW34446   3.044   7.408   1.600
10891SOL    HW134447   3.053   7.314   1.614
10891SOL    HW234448   3.131   7.438   1.575
10892SOL     OW34449  13.199   5.081  10.727
10892SOL    HW134450  13.160   5.168  10.727
10892SOL    HW234451  13.162   5.037  10.650
10893SOL     OW34452   9.890   2.334  12.729
10893SOL    HW134453   9.896   2.258  12.787
10893SOL    HW234454   9.934   2.404  12.777
10894SOL     OW34455   8.436   7.962   1.316
10894SOL    HW134456   8.457   8.042   1.268
10894SOL    HW234457   8.398   7.993   1.399
10895SOL     OW34458   3.852  10.585   0.498
10895SOL    HW134459   3.904  10.505   0.490
10895SOL    HW234460   3.828  10.589   0.590
10896SOL     OW34461   4.189  10.626   4.945
10896SOL    HW134462   4.137  10.667   4.876
10896SOL    HW234463   4.181  10.532   4.929
10897SOL     OW34464  11.999   6.202  13.589
10897SOL    HW134465  11.938   6.148  13.538
10897SOL    HW234466  12.041   6.259  13.524
10898SOL     OW34467  13.728   5.540   1.989
10898SOL    HW134468  13.678   5.599   2.046
10898SOL    HW234469  13.686   5.548   1.904
10899SOL     OW34470   0.699   7.016   4.713
10899SOL    HW134471   0.712   7.036   4.806
10899SOL    HW234472   0.609   6.985   4.707
10900SOL     OW34473   7.055   4.698   9.017
10900SOL    HW134474   6.965   4.721   9.040
10900SOL    HW234475   7.062   4.605   9.038
10901SOL     OW34476   5.378   8.076   7.402
10901SOL    HW134477   5.373   8.110   7.491
10901SOL    HW234478   5.316   8.129   7.352
10902SOL     OW34479  11.188   7.271  14.059
10902SOL    HW134480  11.223   7.278  14.147
10902SOL    HW234481  11.094   7.288  14.069
10903SOL     OW34482  12.476   4.600  12.331
10903SOL    HW134483  12.427   4.534  12.281
10903SOL    HW234484  12.545   4.550  12.374
10904SOL     OW34485  13.755   9.213  10.077
10904SOL    HW134486  13.680   9.270  10.097
10904SOL    HW234487  13.717   9.144  10.023
10905SOL     OW34488   4.914   2.455   9.357
10905SOL    HW134489   4.857   2.474   9.431
10905SOL    HW234490   5.000   2.442   9.396
10906SOL     OW34491  11.693   0.997   4.766
10906SOL    HW134492  11.618   1.052   4.787
10906SOL    HW234493  11.673   0.912   4.804
10907SOL     OW34494   4.270  12.988   8.190
10907SOL    HW134495   4.183  13.009   8.225
10907SOL    HW234496   4.253  12.933   8.114
10908SOL     OW34497   7.017   1.057  12.128
10908SOL    HW134498   7.035   1.113  12.204
10908SOL    HW234499   7.031   0.968  12.160
10909SOL     OW34500  10.839   7.736   8.245
10909SOL    HW134501  10.870   7.793   8.315
10909SOL    HW234502  10.797   7.795   8.182
10910SOL     OW34503  12.855   2.062  12.224
10910SOL    HW134504  12.809   2.096  12.147
10910SOL    HW234505  12.804   1.985  12.250
10911SOL     OW34506   6.446  12.746   0.639
10911SOL    HW134507   6.480  12.727   0.552
10911SOL    HW234508   6.466  12.839   0.653
10912SOL     OW34509   9.597   8.154  13.490
10912SOL    HW134510   9.617   8.222  13.425
10912SOL    HW234511   9.601   8.200  13.574
10913SOL     OW34512   9.907   5.162  12.315
10913SOL    HW134513   9.889   5.237  12.372
10913SOL    HW234514   9.958   5.199  12.243
10914SOL     OW34515   2.315  13.913   3.431
10914SOL    HW134516   2.242  13.863   3.393
10914SOL    HW234517   2.371  13.846   3.471
10915SOL     OW34518   5.327  11.552  12.758
10915SOL    HW134519   5.418  11.537  12.785
10915SOL    HW234520   5.288  11.600  12.831
10916SOL     OW34521   3.705   9.314   0.870
10916SOL    HW134522   3.780   9.374   0.866
10916SOL    HW234523   3.692   9.286   0.780
10917SOL     OW34524  13.387   2.629   9.671
10917SOL    HW134525  13.350   2.618   9.583
10917SOL    HW234526  13.322   2.588   9.729
10918SOL     OW34527   3.262   2.160   3.066
10918SOL    HW134528   3.289   2.246   3.099
10918SOL    HW234529   3.327   2.139   2.999
10919SOL     OW34530   1.812   1.610  12.927
10919SOL    HW134531   1.765   1.561  12.860
10919SOL    HW234532   1.823   1.548  12.999
10920SOL     OW34533  10.355   0.705   0.762
10920SOL    HW134534  10.444   0.725   0.732
10920SOL    HW234535  10.298   0.750   0.700
10921SOL     OW34536   8.179   9.068   9.577
10921SOL    HW134537   8.178   8.991   9.521
10921SOL    HW234538   8.240   9.128   9.534
10922SOL     OW34539  10.284  14.302  10.538
10922SOL    HW134540  10.248  14.365  10.476
10922SOL    HW234541  10.275  14.344  10.624
10923SOL     OW34542  12.464  11.696   4.279
10923SOL    HW134543  12.531  11.695   4.210
10923SOL    HW234544  12.385  11.726   4.233
10924SOL     OW34545   8.611   4.054  10.303
10924SOL    HW134546   8.702   4.045  10.333
10924SOL    HW234547   8.560   4.008  10.369
10925SOL     OW34548  13.964  10.205   0.669
10925SOL    HW134549  14.046  10.254   0.677
10925SOL    HW234550  13.897  10.266   0.699
10926SOL     OW34551   7.332   0.163  10.220
10926SOL    HW134552   7.255   0.136  10.271
10926SOL    HW234553   7.373   0.081  10.194
10927SOL     OW34554   2.224  12.397  14.017
10927SOL    HW134555   2.200  12.480  14.059
10927SOL    HW234556   2.313  12.380  14.048
10928SOL     OW34557   6.249  12.005   0.930
10928SOL    HW134558   6.290  11.921   0.950
10928SOL    HW234559   6.321  12.058   0.895
10929SOL     OW34560   4.620   0.563  13.129
10929SOL    HW134561   4.561   0.586  13.201
10929SOL    HW234562   4.573   0.497  13.079
10930SOL     OW34563   2.345   6.816  11.350
10930SOL    HW134564   2.416   6.786  11.407
10930SOL    HW234565   2.388   6.833  11.266
10931SOL     OW34566  12.607  10.660  11.646
10931SOL    HW134567  12.701  10.659  11.625
10931SOL    HW234568  12.564  10.654  11.561
10932SOL     OW34569  12.220   0.342   8.910
10932SOL    HW134570  12.221   0.363   8.816
10932SOL    HW234571  12.301   0.382   8.944
10933SOL     OW34572   4.834   9.726   9.895
10933SOL    HW134573   4.901   9.684   9.841
10933SOL    HW234574   4.753   9.683   9.870
10934SOL     OW34575   2.474  12.993  10.300
10934SOL    HW134576   2.548  13.053  10.295
10934SOL    HW234577   2.513  12.908  10.322
10935SOL     OW34578   5.860   1.563   8.660
10935SOL    HW134579   5.818   1.481   8.688
10935SOL    HW234580   5.800   1.598   8.594
10936SOL     OW34581   8.416  10.434  10.519
10936SOL    HW134582   8.337  10.462  10.567
10936SOL    HW234583   8.485  10.491  10.551
10937SOL     OW34584   6.774   0.426   6.269
10937SOL    HW134585   6.702   0.367   6.291
10937SOL    HW234586   6.824   0.379   6.202
10938SOL     OW34587   9.782   8.209  12.260
10938SOL    HW134588   9.688   8.221  12.247
10938SOL    HW234589   9.821   8.225  12.174
10939SOL     OW34590   7.714  12.295   6.452
10939SOL    HW134591   7.647  12.311   6.386
10939SOL    HW234592   7.787  12.257   6.404
10940SOL     OW34593   1.132   3.127   1.030
10940SOL    HW134594   1.057   3.100   0.976
10940SOL    HW234595   1.209   3.105   0.977
10941SOL     OW34596   1.033   1.857   6.699
10941SOL    HW134597   0.969   1.907   6.751
10941SOL    HW234598   0.985   1.830   6.621
10942SOL     OW34599   8.490   9.615   3.689
10942SOL    HW134600   8.405   9.574   3.677
10942SOL    HW234601   8.532   9.562   3.757
10943SOL     OW34602   6.558   0.034   3.049
10943SOL    HW134603   6.479   0.048   3.100
10943SOL    HW234604   6.555   0.099   2.980
10944SOL     OW34605  13.745   8.500   8.985
10944SOL    HW134606  13.781   8.421   8.943
10944SOL    HW234607  13.682   8.466   9.049
10945SOL     OW34608  14.583   9.532  12.246
10945SOL    HW134609  14.488   9.516  12.244
10945SOL    HW234610  14.611   9.501  12.332
10946SOL     OW34611   0.117   8.378   6.344
10946SOL    HW134612   0.149   8.448   6.400
10946SOL    HW234613   0.123   8.414   6.255
10947SOL     OW34614   2.848   9.158   6.989
10947SOL    HW134615   2.923   9.206   7.024
10947SOL    HW234616   2.780   9.224   6.979
10948SOL     OW34617   6.328   6.068   1.030
10948SOL    HW134618   6.361   6.053   1.118
10948SOL    HW234619   6.303   5.982   0.998
10949SOL     OW34620  14.813   1.213  14.224
10949SOL    HW134621   0.005   1.225  14.289
10949SOL    HW234622  14.732   1.223  14.273
10950SOL     OW34623   8.892   2.407   4.033
10950SOL    HW134624   8.950   2.335   4.009
10950SOL    HW234625   8.839   2.423   3.955
10951SOL     OW34626  13.082   3.411  13.413
10951SOL    HW134627  13.020   3.386  13.482
10951SOL    HW234628  13.148   3.342  13.415
10952SOL     OW34629  13.287  13.719  10.418
10952SOL    HW134630  13.276  13.653  10.350
10952SOL    HW234631  13.231  13.792  10.391
10953SOL     OW34632  14.136   8.511  12.843
10953SOL    HW134633  14.068   8.495  12.778
10953SOL    HW234634  14.154   8.425  12.881
10954SOL     OW34635  12.344  10.941   2.190
10954SOL    HW134636  12.346  11.035   2.172
10954SOL    HW234637  12.436  10.913   2.182
10955SOL     OW34638   3.767  14.181  14.681
10955SOL    HW134639   3.835  14.121  14.713
10955SOL    HW234640   3.771  14.256  14.741
10956SOL     OW34641  12.159  13.418   7.374
10956SOL    HW134642  12.245  13.438   7.336
10956SOL    HW234643  12.166  13.326   7.399
10957SOL     OW34644  10.789   7.300  13.691
10957SOL    HW134645  10.800   7.277  13.783
10957SOL    HW234646  10.862   7.256  13.647
10958SOL     OW34647   1.051  13.818   5.807
10958SOL    HW134648   1.039  13.774   5.722
10958SOL    HW234649   0.971  13.799   5.856
10959SOL     OW34650  10.648   0.690   4.851
10959SOL    HW134651  10.609   0.678   4.937
10959SOL    HW234652  10.736   0.653   4.859
10960SOL     OW34653   4.870  14.364   2.115
10960SOL    HW134654   4.846  14.452   2.144
10960SOL    HW234655   4.951  14.344   2.161
10961SOL     OW34656   4.651  11.130   0.918
10961SOL    HW134657   4.703  11.162   0.991
10961SOL    HW234658   4.716  11.105   0.852
10962SOL     OW34659   1.881   9.227  13.349
10962SOL    HW134660   1.941   9.225  13.424
10962SOL    HW234661   1.795   9.244  13.389
10963SOL     OW34662  11.698  13.076  10.995
10963SOL    HW134663  11.743  13.006  10.948
10963SOL    HW234664  11.756  13.152  10.987
10964SOL     OW34665   5.243  11.356   1.640
10964SOL    HW134666   5.180  11.357   1.712
10964SOL    HW234667   5.328  11.352   1.683
10965SOL     OW34668   1.978   7.999   9.595
10965SOL    HW134669   1.952   7.923   9.543
10965SOL    HW234670   1.985   8.070   9.531
10966SOL     OW34671   8.432   2.476   4.551
10966SOL    HW134672   8.415   2.405   4.489
10966SOL    HW234673   8.346   2.507   4.577
10967SOL     OW34674  10.242   1.993   0.760
10967SOL    HW134675  10.202   2.063   0.811
10967SOL    HW234676  10.192   1.915   0.783
10968SOL     OW34677   1.749  14.633   6.224
10968SOL    HW134678   1.706  14.699   6.170
10968SOL    HW234679   1.836  14.624   6.186
10969SOL     OW34680  11.407  10.474   8.646
10969SOL    HW134681  11.494  10.445   8.673
10969SOL    HW234682  11.375  10.526   8.720
10970SOL     OW34683  12.057  12.025  11.823
10970SOL    HW134684  12.072  11.931  11.835
10970SOL    HW234685  12.079  12.041  11.731
10971SOL     OW34686   0.904  10.585   9.849
10971SOL    HW134687   0.883  10.500   9.810
10971SOL    HW234688   0.875  10.578   9.940
10972SOL     OW34689   4.175  13.936   6.526
10972SOL    HW134690   4.132  13.869   6.579
10972SOL    HW234691   4.105  13.996   6.502
10973SOL     OW34692  14.861   4.350   6.062
10973SOL    HW134693  14.823   4.264   6.048
10973SOL    HW234694   0.047   4.359   5.990
10974SOL     OW34695   0.993   9.118   8.088
10974SOL    HW134696   0.978   9.079   8.002
10974SOL    HW234697   1.049   9.194   8.071
10975SOL     OW34698  14.640  10.364   5.371
10975SOL    HW134699  14.655  10.400   5.458
10975SOL    HW234700  14.677  10.276   5.374
10976SOL     OW34701   8.556   1.092   3.388
10976SOL    HW134702   8.557   1.101   3.483
10976SOL    HW234703   8.599   1.008   3.371
10977SOL     OW34704   3.369   5.532   9.994
10977SOL    HW134705   3.317   5.498   9.922
10977SOL    HW234706   3.355   5.469  10.065
10978SOL     OW34707   5.371   4.762   6.989
10978SOL    HW134708   5.464   4.749   6.970
10978SOL    HW234709   5.349   4.694   7.053
10979SOL     OW34710   1.204   8.057   3.769
10979SOL    HW134711   1.196   8.148   3.742
10979SOL    HW234712   1.289   8.051   3.811
10980SOL     OW34713   0.880   9.823  14.238
10980SOL    HW134714   0.858   9.797  14.149
10980SOL    HW234715   0.974   9.807  14.245
10981SOL     OW34716   1.418   6.947   3.542
10981SOL    HW134717   1.336   6.901   3.523
10981SOL    HW234718   1.470   6.884   3.591
10982SOL     OW34719  10.134  11.739  10.883
10982SOL    HW134720  10.229  11.724  10.880
10982SOL    HW234721  10.096  11.657  10.851
10983SOL     OW34722  14.488   0.743   2.158
10983SOL    HW134723  14.414   0.689   2.130
10983SOL    HW234724  14.543   0.683   2.209
10984SOL     OW34725   4.526  12.188   5.571
10984SOL    HW134726   4.546  12.259   5.510
10984SOL    HW234727   4.458  12.137   5.526
10985SOL     OW34728   3.211   0.810  10.539
10985SOL    HW134729   3.178   0.789  10.452
10985SOL    HW234730   3.233   0.903  10.535
10986SOL     OW34731   0.110   1.404   3.720
10986SOL    HW134732   0.152   1.437   3.799
10986SOL    HW234733   0.140   1.314   3.711
10987SOL     OW34734  12.826   8.169  11.629
10987SOL    HW134735  12.844   8.200  11.540
10987SOL    HW234736  12.819   8.248  11.681
10988SOL     OW34737   8.088   3.707   7.542
10988SOL    HW134738   8.059   3.617   7.529
10988SOL    HW234739   8.169   3.699   7.593
10989SOL     OW34740   1.053   7.427  12.693
10989SOL    HW134741   0.979   7.484  12.675
10989SOL    HW234742   1.105   7.428  12.613
10990SOL     OW34743   8.937   5.001  11.846
10990SOL    HW134744   8.944   5.085  11.799
10990SOL    HW234745   8.940   4.935  11.777
10991SOL     OW34746  10.864  11.342   4.580
10991SOL    HW134747  10.930  11.301   4.635
10991SOL    HW234748  10.801  11.271   4.562
10992SOL     OW34749  13.101   4.737   2.552
10992SOL    HW134750  13.057   4.819   2.531
10992SOL    HW234751  13.179   4.763   2.600
10993SOL     OW34752   6.483   5.170  13.200
10993SOL    HW134753   6.513   5.228  13.270
10993SOL    HW234754   6.564   5.135  13.161
10994SOL     OW34755   1.324   1.690   8.364
10994SOL    HW134756   1.370   1.635   8.428
10994SOL    HW234757   1.279   1.755   8.417
10995SOL     OW34758   3.643  10.143  14.336
10995SOL    HW134759   3.602  10.071  14.384
10995SOL    HW234760   3.623  10.221  14.388
10996SOL     OW34761  11.712  14.438   8.073
10996SOL    HW134762  11.641  14.384   8.108
10996SOL    HW234763  11.667  14.511   8.030
10997SOL     OW34764   1.423   1.640   2.036
10997SOL    HW134765   1.357   1.614   2.102
10997SOL    HW234766   1.492   1.681   2.087
10998SOL     OW34767   2.918   6.113   6.110
10998SOL    HW134768   2.974   6.041   6.079
10998SOL    HW234769   2.844   6.114   6.048
10999SOL     OW34770   1.622  10.280   3.995
10999SOL    HW134771   1.662  10.366   4.005
10999SOL    HW234772   1.655  10.229   4.069
11000SOL     OW34773  14.327  10.768   6.185
11000SOL    HW134774  14.270  10.694   6.207
11000SOL    HW234775  14.366  10.745   6.101
11001SOL     OW34776  12.093   0.999  13.478
11001SOL    HW134777  12.071   0.984  13.387
11001SOL    HW234778  12.101   1.094  13.486
11002SOL     OW34779   2.303   0.689  13.980
11002SOL    HW134780   2.295   0.678  14.075
11002SOL    HW234781   2.282   0.782  13.966
11003SOL     OW34782  11.249   5.549  10.539
11003SOL    HW134783  11.255   5.471  10.594
11003SOL    HW234784  11.284   5.521  10.455
11004SOL     OW34785  12.293  13.455  10.517
11004SOL    HW134786  12.262  13.373  10.556
11004SOL    HW234787  12.213  13.507  10.505
11005SOL     OW34788   7.374  11.442   5.845
11005SOL    HW134789   7.351  11.365   5.792
11005SOL    HW234790   7.352  11.417   5.934
11006SOL     OW34791  12.297   5.100   5.799
11006SOL    HW134792  12.276   5.122   5.890
11006SOL    HW234793  12.215   5.065   5.763
11007SOL     OW34794  10.396  14.189   6.021
11007SOL    HW134795  10.341  14.122   6.062
11007SOL    HW234796  10.341  14.266   6.016
11008SOL     OW34797   1.634   8.196  14.285
11008SOL    HW134798   1.582   8.200  14.205
11008SOL    HW234799   1.691   8.120  14.274
11009SOL     OW34800   4.920   3.412   3.300
11009SOL    HW134801   4.867   3.335   3.276
11009SOL    HW234802   4.898   3.478   3.235
11010SOL     OW34803  12.534   5.510   4.010
11010SOL    HW134804  12.588   5.549   3.943
11010SOL    HW234805  12.554   5.416   4.006
11011SOL     OW34806   8.035   3.202  11.527
11011SOL    HW134807   7.963   3.255  11.560
11011SOL    HW234808   8.063   3.245  11.446
11012SOL     OW34809   4.284  12.946  13.709
11012SOL    HW134810   4.259  13.037  13.692
11012SOL    HW234811   4.208  12.908  13.752
11013SOL     OW34812   7.386   1.756   1.482
11013SOL    HW134813   7.293   1.734   1.491
11013SOL    HW234814   7.427   1.718   1.560
11014SOL     OW34815  12.037   4.413   9.434
11014SOL    HW134816  12.006   4.448   9.351
11014SOL    HW234817  11.997   4.326   9.439
11015SOL     OW34818   6.694   9.142   7.464
11015SOL    HW134819   6.620   9.145   7.525
11015SOL    HW234820   6.766   9.109   7.518
11016SOL     OW34821   0.132   6.764   3.268
11016SOL    HW134822   0.179   6.839   3.232
11016SOL    HW234823   0.199   6.697   3.283
11017SOL     OW34824  14.784   7.234   2.188
11017SOL    HW134825  14.756   7.317   2.228
11017SOL    HW234826  14.747   7.237   2.100
11018SOL     OW34827   5.844   1.338   4.461
11018SOL    HW134828   5.939   1.348   4.461
11018SOL    HW234829   5.828   1.258   4.511
11019SOL     OW34830   4.166   4.672   4.607
11019SOL    HW134831   4.133   4.740   4.548
11019SOL    HW234832   4.163   4.591   4.555
11020SOL     OW34833   2.609   8.420   7.174
11020SOL    HW134834   2.668   8.396   7.103
11020SOL    HW234835   2.568   8.502   7.145
11021SOL     OW34836  11.967   0.341   3.991
11021SOL    HW134837  11.973   0.246   3.999
11021SOL    HW234838  11.886   0.364   4.038
11022SOL     OW34839   6.166  11.894   3.442
11022SOL    HW134840   6.085  11.918   3.486
11022SOL    HW234841   6.213  11.977   3.431
11023SOL     OW34842   1.742   7.606   0.843
11023SOL    HW134843   1.799   7.639   0.913
11023SOL    HW234844   1.653   7.620   0.876
11024SOL     OW34845  14.325  12.331   9.425
11024SOL    HW134846  14.333  12.334   9.520
11024SOL    HW234847  14.384  12.400   9.394
11025SOL     OW34848   3.675  11.914   9.769
11025SOL    HW134849   3.737  11.987   9.761
11025SOL    HW234850   3.666  11.881   9.679
11026SOL     OW34851   0.958  12.339   5.609
11026SOL    HW134852   0.973  12.395   5.533
11026SOL    HW234853   1.027  12.273   5.604
11027SOL     OW34854   9.386   1.954   3.348
11027SOL    HW134855   9.463   1.947   3.291
11027SOL    HW234856   9.396   2.040   3.390
11028SOL     OW34857   7.305   7.882   6.238
11028SOL    HW134858   7.342   7.858   6.323
11028SOL    HW234859   7.296   7.799   6.191
11029SOL     OW34860  11.317   7.247  13.632
11029SOL    HW134861  11.408   7.262  13.605
11029SOL    HW234862  11.294   7.164  13.591
11030SOL     OW34863   0.329  10.965  11.307
11030SOL    HW134864   0.334  10.896  11.374
11030SOL    HW234865   0.264  11.026  11.342
11031SOL     OW34866  10.527  10.409   0.613
11031SOL    HW134867  10.457  10.352   0.643
11031SOL    HW234868  10.520  10.409   0.517
11032SOL     OW34869   1.502  10.608   8.394
11032SOL    HW134870   1.517  10.675   8.461
11032SOL    HW234871   1.581  10.554   8.395
11033SOL     OW34872   3.656  10.988   0.813
11033SOL    HW134873   3.605  11.068   0.827
11033SOL    HW234874   3.726  10.992   0.879
11034SOL     OW34875   5.627   7.786   0.903
11034SOL    HW134876   5.595   7.872   0.875
11034SOL    HW234877   5.579   7.769   0.984
11035SOL     OW34878   3.228   1.267  11.197
11035SOL    HW134879   3.253   1.188  11.149
11035SOL    HW234880   3.158   1.238  11.256
11036SOL     OW34881  12.937   6.157   0.587
11036SOL    HW134882  12.898   6.230   0.539
11036SOL    HW234883  12.866   6.092   0.592
11037SOL     OW34884   4.648  14.607   6.718
11037SOL    HW134885   4.585  14.597   6.647
11037SOL    HW234886   4.616  14.682   6.768
11038SOL     OW34887  11.554  12.747   9.872
11038SOL    HW134888  11.464  12.778   9.883
11038SOL    HW234889  11.599  12.776   9.951
11039SOL     OW34890   3.054   4.713   8.043
11039SOL    HW134891   2.999   4.636   8.055
11039SOL    HW234892   3.037   4.742   7.953
11040SOL     OW34893   0.446   9.262  12.358
11040SOL    HW134894   0.410   9.174  12.352
11040SOL    HW234895   0.534   9.250  12.395
11041SOL     OW34896   1.679   7.338   0.189
11041SOL    HW134897   1.602   7.282   0.198
11041SOL    HW234898   1.728   7.300   0.117
11042SOL     OW34899  13.453   3.021  13.170
11042SOL    HW134900  13.521   3.019  13.237
11042SOL    HW234901  13.429   2.929  13.156
11043SOL     OW34902   3.606  13.395   6.635
11043SOL    HW134903   3.588  13.307   6.668
11043SOL    HW234904   3.683  13.424   6.684
11044SOL     OW34905   1.513   9.585   6.096
11044SOL    HW134906   1.549   9.662   6.140
11044SOL    HW234907   1.483   9.618   6.011
11045SOL     OW34908   6.046   8.581   1.614
11045SOL    HW134909   6.063   8.573   1.521
11045SOL    HW234910   6.132   8.598   1.653
11046SOL     OW34911   7.346   6.857   6.899
11046SOL    HW134912   7.364   6.945   6.933
11046SOL    HW234913   7.328   6.870   6.806
11047SOL     OW34914   2.280   8.089   3.581
11047SOL    HW134915   2.213   8.148   3.546
11047SOL    HW234916   2.248   8.001   3.562
11048SOL     OW34917  14.559   7.036  10.624
11048SOL    HW134918  14.577   7.063  10.714
11048SOL    HW234919  14.467   7.057  10.611
11049SOL     OW34920  10.268   3.993  12.632
11049SOL    HW134921  10.260   3.901  12.605
11049SOL    HW234922  10.185   4.012  12.676
11050SOL     OW34923   2.637   1.828  11.477
11050SOL    HW134924   2.672   1.804  11.391
11050SOL    HW234925   2.665   1.919  11.490
11051SOL     OW34926  10.158  10.131   1.643
11051SOL    HW134927  10.173  10.042   1.675
11051SOL    HW234928  10.072  10.128   1.602
11052SOL     OW34929   9.622   6.688   4.578
11052SOL    HW134930   9.712   6.689   4.611
11052SOL    HW234931   9.612   6.602   4.537
11053SOL     OW34932  11.291   2.986   4.006
11053SOL    HW134933  11.217   3.046   4.015
11053SOL    HW234934  11.255   2.901   4.031
11054SOL     OW34935   5.813   0.172   1.904
11054SOL    HW134936   5.783   0.168   1.814
11054SOL    HW234937   5.733   0.167   1.957
11055SOL     OW34938   1.226   8.683   0.042
11055SOL    HW134939   1.223   8.775   0.069
11055SOL    HW234940   1.196   8.635   0.118
11056SOL     OW34941   8.569   3.631   4.556
11056SOL    HW134942   8.556   3.538   4.575
11056SOL    HW234943   8.482   3.663   4.534
11057SOL     OW34944   7.028   9.160  10.568
11057SOL    HW134945   6.953   9.102  10.551
11057SOL    HW234946   7.081   9.154  10.488
11058SOL     OW34947   2.387   8.224   0.430
11058SOL    HW134948   2.468   8.234   0.481
11058SOL    HW234949   2.413   8.171   0.354
11059SOL     OW34950   8.089   8.502   6.252
11059SOL    HW134951   7.999   8.493   6.223
11059SOL    HW234952   8.110   8.594   6.237
11060SOL     OW34953  12.267   4.314  14.811
11060SOL    HW134954  12.311   4.229  14.807
11060SOL    HW234955  12.323   4.372  14.760
11061SOL     OW34956  11.945   0.124  14.389
11061SOL    HW134957  11.866   0.120  14.335
11061SOL    HW234958  11.942   0.212  14.429
11062SOL     OW34959   8.967   6.030   5.394
11062SOL    HW134960   9.016   6.069   5.321
11062SOL    HW234961   9.000   5.940   5.400
11063SOL     OW34962   6.344   9.897   3.910
11063SOL    HW134963   6.305   9.981   3.885
11063SOL    HW234964   6.358   9.851   3.827
11064SOL     OW34965  12.493  13.947   9.805
11064SOL    HW134966  12.512  13.868   9.857
11064SOL    HW234967  12.399  13.959   9.814
11065SOL     OW34968  12.922  10.617  12.596
11065SOL    HW134969  12.955  10.545  12.650
11065SOL    HW234970  12.989  10.628  12.527
11066SOL     OW34971   8.821   7.469  13.922
11066SOL    HW134972   8.738   7.429  13.895
11066SOL    HW234973   8.874   7.395  13.953
11067SOL     OW34974   4.832   6.051   6.912
11067SOL    HW134975   4.912   6.087   6.951
11067SOL    HW234976   4.859   6.025   6.824
11068SOL     OW34977  11.244   3.455  13.863
11068SOL    HW134978  11.153   3.438  13.838
11068SOL    HW234979  11.275   3.373  13.899
11069SOL     OW34980   8.901  13.180  13.168
11069SOL    HW134981   8.852  13.120  13.223
11069SOL    HW234982   8.887  13.148  13.079
11070SOL     OW34983   2.160   3.048   5.416
11070SOL    HW134984   2.072   3.030   5.384
11070SOL    HW234985   2.153   3.041   5.511
11071SOL     OW34986  13.999   5.966  10.056
11071SOL    HW134987  13.911   5.980  10.092
11071SOL    HW234988  13.991   5.986   9.963
11072SOL     OW34989  14.507   6.643  13.940
11072SOL    HW134990  14.496   6.604  13.853
11072SOL    HW234991  14.600   6.667  13.944
11073SOL     OW34992   1.786   3.536   9.995
11073SOL    HW134993   1.874   3.513   9.964
11073SOL    HW234994   1.743   3.451  10.010
11074SOL     OW34995   9.732  12.630  10.930
11074SOL    HW134996   9.686  12.666  11.005
11074SOL    HW234997   9.699  12.679  10.855
11075SOL     OW34998   3.472  10.903  12.532
11075SOL    HW134999   3.459  10.813  12.562
11075SOL    HW235000   3.449  10.901  12.439
11076SOL     OW35001   0.900   9.982  14.571
11076SOL    HW135002   0.972   9.987  14.508
11076SOL    HW235003   0.823  10.013  14.522
11077SOL     OW35004   0.528   7.705   6.510
11077SOL    HW135005   0.517   7.646   6.585
11077SOL    HW235006   0.445   7.751   6.503
11078SOL     OW35007  12.032  13.470   9.477
11078SOL    HW135008  12.022  13.375   9.482
11078SOL    HW235009  12.046  13.488   9.384
11079SOL     OW35010   7.365  14.848   5.537
11079SOL    HW135011   7.284  14.820   5.494
11079SOL    HW235012   7.391  14.773   5.591
11080SOL     OW35013   9.285  11.062   3.749
11080SOL    HW135014   9.219  11.127   3.775
11080SOL    HW235015   9.317  11.027   3.832
11081SOL     OW35016   5.308  14.052  11.306
11081SOL    HW135017   5.326  14.109  11.381
11081SOL    HW235018   5.244  14.101  11.254
11082SOL     OW35019  14.798   5.257   9.047
11082SOL    HW135020  14.798   5.162   9.057
11082SOL    HW235021  14.778   5.271   8.954
11083SOL     OW35022   4.260  14.272   6.198
11083SOL    HW135023   4.267  14.224   6.115
11083SOL    HW235024   4.319  14.226   6.257
11084SOL     OW35025   9.211  13.077  12.157
11084SOL    HW135026   9.258  13.156  12.183
11084SOL    HW235027   9.125  13.086  12.198
11085SOL     OW35028   9.402  13.174   0.733
11085SOL    HW135029   9.366  13.132   0.811
11085SOL    HW235030   9.359  13.129   0.660
11086SOL     OW35031   4.556   6.874  12.692
11086SOL    HW135032   4.464   6.858  12.710
11086SOL    HW235033   4.559   6.896  12.599
11087SOL     OW35034   8.126   5.871  11.673
11087SOL    HW135035   8.098   5.781  11.656
11087SOL    HW235036   8.050   5.911  11.716
11088SOL     OW35037  12.495  13.470  10.865
11088SOL    HW135038  12.585  13.464  10.896
11088SOL    HW235039  12.486  13.560  10.833
11089SOL     OW35040   6.692  11.892   8.279
11089SOL    HW135041   6.604  11.907   8.244
11089SOL    HW235042   6.678  11.833   8.354
11090SOL     OW35043  11.825   6.056   7.319
11090SOL    HW135044  11.762   5.985   7.307
11090SOL    HW235045  11.801   6.095   7.403
11091SOL     OW35046   9.809  10.807  14.501
11091SOL    HW135047   9.724  10.786  14.540
11091SOL    HW235048   9.828  10.733  14.443
11092SOL     OW35049   7.341  11.641   1.820
11092SOL    HW135050   7.292  11.566   1.785
11092SOL    HW235051   7.411  11.602   1.872
11093SOL     OW35052   1.481  11.246   8.522
11093SOL    HW135053   1.463  11.315   8.586
11093SOL    HW235054   1.397  11.202   8.510
11094SOL     OW35055   9.631  11.326   1.036
11094SOL    HW135056   9.548  11.280   1.051
11094SOL    HW235057   9.656  11.302   0.947
11095SOL     OW35058   9.056   7.452  11.952
11095SOL    HW135059   9.118   7.513  11.914
11095SOL    HW235060   8.992   7.436  11.883
11096SOL     OW35061   8.376   4.431   3.425
11096SOL    HW135062   8.305   4.410   3.486
11096SOL    HW235063   8.364   4.524   3.405
11097SOL     OW35064   5.504   2.082   5.154
11097SOL    HW135065   5.591   2.120   5.166
11097SOL    HW235066   5.462   2.090   5.240
11098SOL     OW35067   5.910   4.118   2.359
11098SOL    HW135068   5.907   4.210   2.385
11098SOL    HW235069   5.996   4.107   2.319
11099SOL     OW35070   7.184   3.501   5.022
11099SOL    HW135071   7.177   3.439   4.949
11099SOL    HW235072   7.113   3.563   5.007
11100SOL     OW35073   4.571   3.920   3.675
11100SOL    HW135074   4.595   3.854   3.740
11100SOL    HW235075   4.517   3.983   3.724
11101SOL     OW35076  14.691   1.634  14.817
11101SOL    HW135077  14.713   1.545  14.787
11101SOL    HW235078  14.599   1.644  14.794
11102SOL     OW35079  10.885   2.132   2.937
11102SOL    HW135080  10.926   2.112   3.021
11102SOL    HW235081  10.954   2.177   2.888
11103SOL     OW35082  13.489  13.905   6.470
11103SOL    HW135083  13.420  13.943   6.414
11103SOL    HW235084  13.449  13.899   6.556
11104SOL     OW35085   0.143  10.831   0.804
11104SOL    HW135086   0.177  10.776   0.874
11104SOL    HW235087   0.137  10.773   0.728
11105SOL     OW35088   6.238   7.368   1.022
11105SOL    HW135089   6.197   7.338   0.942
11105SOL    HW235090   6.296   7.296   1.048
11106SOL     OW35091   3.052   0.317  10.416
11106SOL    HW135092   3.139   0.353  10.438
11106SOL    HW235093   2.994   0.393  10.418
11107SOL     OW35094   5.872   3.039  14.464
11107SOL    HW135095   5.799   3.061  14.406
11107SOL    HW235096   5.834   3.041  14.551
11108SOL     OW35097  10.990   2.793   8.303
11108SOL    HW135098  11.054   2.809   8.233
11108SOL    HW235099  10.941   2.875   8.309
11109SOL     OW35100  10.847   2.285  11.553
11109SOL    HW135101  10.889   2.200  11.562
11109SOL    HW235102  10.785   2.274  11.481
11110SOL     OW35103   5.083   9.546   4.114
11110SOL    HW135104   5.112   9.573   4.201
11110SOL    HW235105   4.989   9.567   4.113
11111SOL     OW35106   7.246   7.249   5.906
11111SOL    HW135107   7.195   7.177   5.944
11111SOL    HW235108   7.306   7.275   5.977
11112SOL     OW35109   4.528   3.088   0.279
11112SOL    HW135110   4.502   2.996   0.272
11112SOL    HW235111   4.495   3.116   0.364
11113SOL     OW35112   0.494   4.620   9.211
11113SOL    HW135113   0.589   4.630   9.221
11113SOL    HW235114   0.481   4.612   9.117
11114SOL     OW35115  10.976  13.547   5.166
11114SOL    HW135116  11.065  13.554   5.200
11114SOL    HW235117  10.980  13.588   5.080
11115SOL     OW35118   9.007   1.840  12.944
11115SOL    HW135119   9.030   1.929  12.918
11115SOL    HW235120   9.059   1.824  13.023
11116SOL     OW35121   4.912   6.238   4.638
11116SOL    HW135122   4.906   6.149   4.675
11116SOL    HW235123   5.003   6.245   4.609
11117SOL     OW35124   0.201  11.593  10.726
11117SOL    HW135125   0.145  11.538  10.782
11117SOL    HW235126   0.142  11.626  10.658
11118SOL     OW35127  11.251  10.357   4.397
11118SOL    HW135128  11.272  10.280   4.449
11118SOL    HW235129  11.298  10.429   4.439
11119SOL     OW35130  10.896   5.122   8.097
11119SOL    HW135131  10.848   5.042   8.118
11119SOL    HW235132  10.837   5.193   8.123
11120SOL     OW35133   6.569  13.403   4.294
11120SOL    HW135134   6.582  13.493   4.267
11120SOL    HW235135   6.503  13.369   4.234
11121SOL     OW35136  11.880  11.957   7.689
11121SOL    HW135137  11.787  11.964   7.670
11121SOL    HW235138  11.883  11.927   7.780
11122SOL     OW35139  10.314   8.742  10.147
11122SOL    HW135140  10.296   8.649  10.133
11122SOL    HW235141  10.348   8.773  10.063
11123SOL     OW35142  11.506   3.844   7.986
11123SOL    HW135143  11.504   3.879   8.076
11123SOL    HW235144  11.468   3.756   7.994
11124SOL     OW35145   8.363   0.283   6.570
11124SOL    HW135146   8.428   0.257   6.505
11124SOL    HW235147   8.318   0.357   6.530
11125SOL     OW35148   6.210   4.014   2.541
11125SOL    HW135149   6.302   4.037   2.535
11125SOL    HW235150   6.167   4.093   2.574
11126SOL     OW35151   9.687  14.389  11.274
11126SOL    HW135152   9.758  14.391  11.210
11126SOL    HW235153   9.656  14.299  11.274
11127SOL     OW35154   1.566   2.087  14.023
11127SOL    HW135155   1.482   2.081  13.977
11127SOL    HW235156   1.543   2.081  14.116
11128SOL     OW35157   0.680  14.520  14.565
11128SOL    HW135158   0.767  14.556  14.585
11128SOL    HW235159   0.685  14.429  14.594
11129SOL     OW35160  10.619   0.963   4.044
11129SOL    HW135161  10.622   0.918   3.960
11129SOL    HW235162  10.697   0.932   4.091
11130SOL     OW35163   2.244   7.868  11.436
11130SOL    HW135164   2.274   7.953  11.467
11130SOL    HW235165   2.211   7.824  11.514
11131SOL     OW35166   3.024   0.004   7.871
11131SOL    HW135167   2.991  14.805   7.824
11131SOL    HW235168   3.061  14.845   7.952
11132SOL     OW35169  13.253   4.344   1.292
11132SOL    HW135170  13.232   4.260   1.252
11132SOL    HW235171  13.308   4.322   1.367
11133SOL     OW35172  11.632  10.421   4.958
11133SOL    HW135173  11.542  10.401   4.935
11133SOL    HW235174  11.648  10.370   5.038
11134SOL     OW35175  11.632   3.070   6.628
11134SOL    HW135176  11.647   2.983   6.664
11134SOL    HW235177  11.665   3.066   6.538
11135SOL     OW35178   6.600   7.198   6.066
11135SOL    HW135179   6.562   7.171   5.982
11135SOL    HW235180   6.577   7.128   6.127
11136SOL     OW35181   6.121  13.304   8.780
11136SOL    HW135182   6.182  13.368   8.742
11136SOL    HW235183   6.065  13.356   8.838
11137SOL     OW35184  14.698   5.885  12.554
11137SOL    HW135185  14.756   5.905  12.627
11137SOL    HW235186  14.703   5.790  12.545
11138SOL     OW35187  11.517  14.656   5.802
11138SOL    HW135188  11.439  14.601   5.805
11138SOL    HW235189  11.488  14.739   5.765
11139SOL     OW35190   1.018   1.256   3.034
11139SOL    HW135191   1.041   1.195   2.964
11139SOL    HW235192   0.961   1.205   3.092
11140SOL     OW35193   0.477  10.906   2.250
11140SOL    HW135194   0.479  10.885   2.343
11140SOL    HW235195   0.539  10.978   2.240
11141SOL     OW35196   7.542   5.866  13.566
11141SOL    HW135197   7.558   5.843  13.658
11141SOL    HW235198   7.587   5.798  13.516
11142SOL     OW35199   6.038  13.166  10.163
11142SOL    HW135200   5.949  13.145  10.133
11142SOL    HW235201   6.093  13.151  10.086
11143SOL     OW35202   1.873   3.311   8.623
11143SOL    HW135203   1.916   3.395   8.607
11143SOL    HW235204   1.780   3.331   8.617
11144SOL     OW35205   5.727   7.589  12.143
11144SOL    HW135206   5.724   7.494  12.129
11144SOL    HW235207   5.703   7.627  12.059
11145SOL     OW35208   9.982   1.513   3.256
11145SOL    HW135209  10.071   1.502   3.221
11145SOL    HW235210   9.985   1.597   3.302
11146SOL     OW35211  13.986   8.270   1.371
11146SOL    HW135212  13.905   8.267   1.319
11146SOL    HW235213  13.989   8.360   1.405
11147SOL     OW35214   7.821   0.900  12.465
11147SOL    HW135215   7.914   0.906  12.441
11147SOL    HW235216   7.819   0.916  12.559
11148SOL     OW35217   2.303   6.250   8.969
11148SOL    HW135218   2.368   6.316   8.945
11148SOL    HW235219   2.278   6.210   8.886
11149SOL     OW35220  14.742  13.461  14.774
11149SOL    HW135221  14.720  13.380  14.818
11149SOL    HW235222  14.829  13.485  14.808
11150SOL     OW35223  11.512   5.462  10.783
11150SOL    HW135224  11.577   5.409  10.737
11150SOL    HW235225  11.508   5.544  10.732
11151SOL     OW35226   4.402  10.681  11.911
11151SOL    HW135227   4.489  10.656  11.944
11151SOL    HW235228   4.353  10.706  11.989
11152SOL     OW35229   0.876  13.854   2.995
11152SOL    HW135230   0.917  13.859   3.082
11152SOL    HW235231   0.948  13.869   2.934
11153SOL     OW35232   4.148  10.834   6.056
11153SOL    HW135233   4.168  10.928   6.056
11153SOL    HW235234   4.176  10.804   6.142
11154SOL     OW35235   5.018   2.019  10.562
11154SOL    HW135236   5.022   1.993  10.470
11154SOL    HW235237   4.977   1.944  10.606
11155SOL     OW35238   6.075   8.419   1.998
11155SOL    HW135239   6.151   8.365   2.019
11155SOL    HW235240   6.002   8.358   1.996
11156SOL     OW35241  14.513   9.823   4.497
11156SOL    HW135242  14.553   9.774   4.569
11156SOL    HW235243  14.585   9.879   4.465
11157SOL     OW35244  13.294   7.083  12.021
11157SOL    HW135245  13.261   7.151  12.079
11157SOL    HW235246  13.225   7.070  11.956
11158SOL     OW35247   8.160  10.068   6.562
11158SOL    HW135248   8.088  10.075   6.625
11158SOL    HW235249   8.196  10.156   6.557
11159SOL     OW35250   7.325   6.262   3.849
11159SOL    HW135251   7.356   6.183   3.893
11159SOL    HW235252   7.405   6.314   3.834
11160SOL     OW35253   4.304  10.955   1.161
11160SOL    HW135254   4.239  10.979   1.094
11160SOL    HW235255   4.287  10.863   1.178
11161SOL     OW35256   5.641   7.603   0.313
11161SOL    HW135257   5.681   7.675   0.361
11161SOL    HW235258   5.632   7.636   0.223
11162SOL     OW35259  11.748  13.464  14.603
11162SOL    HW135260  11.730  13.558  14.597
11162SOL    HW235261  11.822  13.450  14.544
11163SOL     OW35262   1.879   3.146   9.402
11163SOL    HW135263   1.931   3.084   9.352
11163SOL    HW235264   1.863   3.103   9.486
11164SOL     OW35265   4.988   3.401   7.155
11164SOL    HW135266   4.958   3.469   7.215
11164SOL    HW235267   4.967   3.319   7.199
11165SOL     OW35268   7.256  14.266  10.957
11165SOL    HW135269   7.317  14.205  10.998
11165SOL    HW235270   7.195  14.290  11.027
11166SOL     OW35271  13.776   3.384   2.090
11166SOL    HW135272  13.869   3.401   2.102
11166SOL    HW235273  13.771   3.316   2.023
11167SOL     OW35274   9.266  14.773   8.740
11167SOL    HW135275   9.323  14.813   8.805
11167SOL    HW235276   9.192  14.834   8.732
11168SOL     OW35277   2.351   9.544  10.139
11168SOL    HW135278   2.429   9.504  10.176
11168SOL    HW235279   2.341   9.503  10.053
11169SOL     OW35280  10.576   6.161   5.071
11169SOL    HW135281  10.609   6.072   5.061
11169SOL    HW235282  10.588   6.201   4.985
11170SOL     OW35283  11.387  13.158   3.661
11170SOL    HW135284  11.397  13.251   3.682
11170SOL    HW235285  11.457  13.140   3.598
11171SOL     OW35286   0.451   1.974   7.766
11171SOL    HW135287   0.436   1.950   7.858
11171SOL    HW235288   0.546   1.975   7.757
11172SOL     OW35289  12.063   6.911   8.404
11172SOL    HW135290  11.980   6.871   8.429
11172SOL    HW235291  12.083   6.972   8.475
11173SOL     OW35292   5.033   1.111  12.170
11173SOL    HW135293   5.115   1.160  12.178
11173SOL    HW235294   5.057   1.030  12.126
11174SOL     OW35295   6.540  10.824   8.887
11174SOL    HW135296   6.534  10.885   8.814
11174SOL    HW235297   6.632  10.797   8.889
11175SOL     OW35298  12.941  10.139   7.072
11175SOL    HW135299  12.856  10.137   7.114
11175SOL    HW235300  12.944  10.225   7.029
11176SOL     OW35301   5.130  14.334   7.564
11176SOL    HW135302   5.116  14.408   7.505
11176SOL    HW235303   5.059  14.273   7.545
11177SOL     OW35304   6.922  11.619   2.287
11177SOL    HW135305   6.995  11.637   2.346
11177SOL    HW235306   6.866  11.696   2.293
11178SOL     OW35307   5.010   5.996  12.397
11178SOL    HW135308   5.082   5.989  12.459
11178SOL    HW235309   4.966   5.911  12.401
11179SOL     OW35310   3.267   0.375   3.000
11179SOL    HW135311   3.215   0.387   3.079
11179SOL    HW235312   3.358   0.375   3.032
11180SOL     OW35313   9.785  13.527   0.843
11180SOL    HW135314   9.807  13.524   0.936
11180SOL    HW235315   9.691  13.506   0.841
11181SOL     OW35316   7.153   6.242  14.120
11181SOL    HW135317   7.090   6.209  14.184
11181SOL    HW235318   7.145   6.182  14.046
11182SOL     OW35319  13.546   3.382  13.095
11182SOL    HW135320  13.494   3.320  13.147
11182SOL    HW235321  13.483   3.449  13.068
11183SOL     OW35322   9.113  10.464   9.471
11183SOL    HW135323   9.154  10.395   9.523
11183SOL    HW235324   9.103  10.425   9.384
11184SOL     OW35325   7.268   6.079   2.273
11184SOL    HW135326   7.340   6.020   2.295
11184SOL    HW235327   7.303   6.167   2.288
11185SOL     OW35328  14.841   9.822   8.591
11185SOL    HW135329  14.824   9.791   8.502
11185SOL    HW235330   0.032   9.888   8.580
11186SOL     OW35331   7.724  11.381   4.123
11186SOL    HW135332   7.701  11.288   4.117
11186SOL    HW235333   7.809  11.388   4.080
11187SOL     OW35334   4.647  14.680  13.332
11187SOL    HW135335   4.610  14.642  13.253
11187SOL    HW235336   4.708  14.613  13.365
11188SOL     OW35337   0.742   5.676   6.621
11188SOL    HW135338   0.734   5.584   6.648
11188SOL    HW235339   0.700   5.726   6.691
11189SOL     OW35340  10.109   2.271  10.241
11189SOL    HW135341  10.038   2.218  10.276
11189SOL    HW235342  10.123   2.236  10.153
11190SOL     OW35343   8.973   4.998   0.965
11190SOL    HW135344   8.933   4.916   0.994
11190SOL    HW235345   8.954   5.002   0.872
11191SOL     OW35346  10.786  13.618  13.032
11191SOL    HW135347  10.873  13.597  12.998
11191SOL    HW235348  10.732  13.541  13.009
11192SOL     OW35349   4.926   2.236   2.308
11192SOL    HW135350   4.844   2.274   2.339
11192SOL    HW235351   4.994   2.282   2.357
11193SOL     OW35352  10.812  13.680   8.616
11193SOL    HW135353  10.742  13.709   8.557
11193SOL    HW235354  10.884  13.740   8.599
11194SOL     OW35355   3.597   2.477   6.384
11194SOL    HW135356   3.521   2.519   6.345
11194SOL    HW235357   3.587   2.384   6.363
11195SOL     OW35358   5.824  13.721   4.403
11195SOL    HW135359   5.808  13.634   4.440
11195SOL    HW235360   5.740  13.766   4.409
11196SOL     OW35361   7.649   9.202   8.590
11196SOL    HW135362   7.659   9.222   8.683
11196SOL    HW235363   7.619   9.111   8.588
11197SOL     OW35364   1.177   9.462   0.095
11197SOL    HW135365   1.139   9.412   0.167
11197SOL    HW235366   1.109   9.524   0.071
11198SOL     OW35367  14.629   6.064  11.278
11198SOL    HW135368  14.606   5.978  11.313
11198SOL    HW235369  14.677   6.046  11.198
11199SOL     OW35370  13.123  12.645  11.040
11199SOL    HW135371  13.116  12.692  10.957
11199SOL    HW235372  13.042  12.595  11.047
11200SOL     OW35373   8.860   2.429   8.601
11200SOL    HW135374   8.923   2.412   8.672
11200SOL    HW235375   8.886   2.513   8.565
11201SOL     OW35376   5.909   2.837   7.314
11201SOL    HW135377   5.938   2.829   7.406
11201SOL    HW235378   5.863   2.921   7.311
11202SOL     OW35379  13.459  10.082  10.042
11202SOL    HW135380  13.503  10.030  10.109
11202SOL    HW235381  13.368  10.087  10.072
11203SOL     OW35382   0.968  11.358   9.721
11203SOL    HW135383   0.982  11.408   9.640
11203SOL    HW235384   0.929  11.421   9.782
11204SOL     OW35385   9.959  11.733   5.981
11204SOL    HW135386   9.994  11.736   6.070
11204SOL    HW235387   9.870  11.699   5.991
11205SOL     OW35388   5.224   8.262  11.025
11205SOL    HW135389   5.184   8.175  11.023
11205SOL    HW235390   5.240   8.282  10.933
11206SOL     OW35391  10.874  11.624   7.862
11206SOL    HW135392  10.951  11.665   7.900
11206SOL    HW235393  10.815  11.696   7.841
11207SOL     OW35394   6.902  14.526   3.769
11207SOL    HW135395   6.962  14.533   3.694
11207SOL    HW235396   6.947  14.572   3.840
11208SOL     OW35397   0.895  11.973   3.488
11208SOL    HW135398   0.895  11.897   3.431
11208SOL    HW235399   0.808  11.974   3.529
11209SOL     OW35400   9.198   4.609   2.516
11209SOL    HW135401   9.178   4.654   2.434
11209SOL    HW235402   9.252   4.535   2.489
11210SOL     OW35403  14.346   1.841   2.671
11210SOL    HW135404  14.415   1.814   2.732
11210SOL    HW235405  14.366   1.933   2.652
11211SOL     OW35406   4.945  10.212   4.044
11211SOL    HW135407   4.895  10.267   4.105
11211SOL    HW235408   5.028  10.198   4.088
11212SOL     OW35409   8.026  13.889   2.017
11212SOL    HW135410   7.940  13.865   2.051
11212SOL    HW235411   8.017  13.980   1.989
11213SOL     OW35412   9.577   7.344   6.419
11213SOL    HW135413   9.517   7.408   6.381
11213SOL    HW235414   9.662   7.367   6.382
11214SOL     OW35415   7.056   3.473   3.846
11214SOL    HW135416   6.993   3.442   3.781
11214SOL    HW235417   7.009   3.540   3.895
11215SOL     OW35418   2.228   1.772  11.811
11215SOL    HW135419   2.197   1.682  11.807
11215SOL    HW235420   2.281   1.783  11.731
11216SOL     OW35421   7.469   7.537   8.820
11216SOL    HW135422   7.474   7.586   8.903
11216SOL    HW235423   7.418   7.593   8.762
11217SOL     OW35424   0.329  11.792  11.210
11217SOL    HW135425   0.298  11.848  11.139
11217SOL    HW235426   0.371  11.718  11.165
11218SOL     OW35427  10.531  14.120  11.200
11218SOL    HW135428  10.505  14.034  11.165
11218SOL    HW235429  10.507  14.116  11.292
11219SOL     OW35430   6.288  14.023  11.730
11219SOL    HW135431   6.310  14.006  11.639
11219SOL    HW235432   6.326  14.109  11.749
11220SOL     OW35433   0.232   2.792   5.101
11220SOL    HW135434   0.245   2.880   5.067
11220SOL    HW235435   0.314   2.772   5.147
11221SOL     OW35436   1.475  13.810   0.443
11221SOL    HW135437   1.512  13.881   0.390
11221SOL    HW235438   1.539  13.739   0.437
11222SOL     OW35439   7.633   6.099  11.631
11222SOL    HW135440   7.540   6.090  11.612
11222SOL    HW235441   7.675   6.032  11.578
11223SOL     OW35442   7.810   7.274   9.672
11223SOL    HW135443   7.756   7.338   9.717
11223SOL    HW235444   7.896   7.281   9.713
11224SOL     OW35445   6.357   6.516  14.759
11224SOL    HW135446   6.440   6.515  14.807
11224SOL    HW235447   6.292   6.538  14.825
11225SOL     OW35448   2.687  12.654   9.417
11225SOL    HW135449   2.637  12.710   9.476
11225SOL    HW235450   2.627  12.582   9.395
11226SOL     OW35451   0.161   6.103   2.545
11226SOL    HW135452   0.132   6.175   2.600
11226SOL    HW235453   0.088   6.042   2.544
11227SOL     OW35454   4.560  10.006   5.398
11227SOL    HW135455   4.631  10.036   5.456
11227SOL    HW235456   4.589   9.920   5.368
11228SOL     OW35457   1.390   0.241   3.862
11228SOL    HW135458   1.311   0.214   3.816
11228SOL    HW235459   1.401   0.177   3.932
11229SOL     OW35460  13.664   2.535   2.587
11229SOL    HW135461  13.573   2.507   2.581
11229SOL    HW235462  13.700   2.485   2.660
11230SOL     OW35463   0.423  10.176   8.745
11230SOL    HW135464   0.482  10.250   8.759
11230SOL    HW235465   0.376  10.166   8.828
11231SOL     OW35466  12.984   2.540   2.234
11231SOL    HW135467  13.032   2.608   2.186
11231SOL    HW235468  12.914   2.587   2.278
11232SOL     OW35469  13.432   8.584   0.863
11232SOL    HW135470  13.426   8.488   0.854
11232SOL    HW235471  13.426   8.599   0.957
11233SOL     OW35472   4.538   2.745   1.806
11233SOL    HW135473   4.457   2.696   1.788
11233SOL    HW235474   4.605   2.699   1.756
11234SOL     OW35475  13.401   1.765   5.708
11234SOL    HW135476  13.317   1.720   5.700
11234SOL    HW235477  13.467   1.697   5.691
11235SOL     OW35478   8.129   5.587   3.250
11235SOL    HW135479   8.141   5.584   3.345
11235SOL    HW235480   8.129   5.680   3.228
11236SOL     OW35481  14.186  12.978   3.795
11236SOL    HW135482  14.216  12.913   3.858
11236SOL    HW235483  14.152  12.926   3.722
11237SOL     OW35484   0.979  12.481   1.400
11237SOL    HW135485   0.980  12.560   1.347
11237SOL    HW235486   0.924  12.502   1.475
11238SOL     OW35487   9.332  10.752   0.783
11238SOL    HW135488   9.241  10.735   0.761
11238SOL    HW235489   9.374  10.666   0.778
11239SOL     OW35490  11.348  14.755  13.638
11239SOL    HW135491  11.372  14.755  13.731
11239SOL    HW235492  11.333  14.847  13.618
11240SOL     OW35493  10.582   6.112   3.305
11240SOL    HW135494  10.542   6.047   3.248
11240SOL    HW235495  10.671   6.079   3.321
11241SOL     OW35496   7.921   1.366   7.217
11241SOL    HW135497   7.891   1.447   7.259
11241SOL    HW235498   7.841   1.323   7.188
11242SOL     OW35499   8.468   2.458  14.709
11242SOL    HW135500   8.498   2.451  14.619
11242SOL    HW235501   8.375   2.438  14.706
11243SOL     OW35502   5.251   7.121   5.187
11243SOL    HW135503   5.204   7.172   5.121
11243SOL    HW235504   5.199   7.131   5.267
11244SOL     OW35505   3.581  12.856  13.700
11244SOL    HW135506   3.620  12.928  13.650
11244SOL    HW235507   3.549  12.898  13.780
11245SOL     OW35508   8.255   1.020   2.995
11245SOL    HW135509   8.172   1.002   2.951
11245SOL    HW235510   8.240   0.998   3.086
11246SOL     OW35511   7.880   0.735  14.798
11246SOL    HW135512   7.972   0.722  14.776
11246SOL    HW235513   7.860   0.663  14.858
11247SOL     OW35514   5.198  12.142   0.501
11247SOL    HW135515   5.278  12.192   0.518
11247SOL    HW235516   5.198  12.129   0.406
11248SOL     OW35517  10.009   0.735   8.486
11248SOL    HW135518   9.925   0.690   8.479
11248SOL    HW235519   9.997   0.799   8.556
11249SOL     OW35520   3.900   3.179   7.453
11249SOL    HW135521   3.899   3.211   7.544
11249SOL    HW235522   3.858   3.249   7.403
11250SOL     OW35523   6.718  11.458  13.519
11250SOL    HW135524   6.721  11.430  13.428
11250SOL    HW235525   6.690  11.380  13.567
11251SOL     OW35526   9.895   1.847  14.530
11251SOL    HW135527   9.894   1.752  14.540
11251SOL    HW235528   9.806   1.869  14.500
11252SOL     OW35529   2.354  10.829   1.961
11252SOL    HW135530   2.407  10.808   1.884
11252SOL    HW235531   2.403  10.897   2.006
11253SOL     OW35532  13.654   4.013   3.412
11253SOL    HW135533  13.742   4.045   3.429
11253SOL    HW235534  13.605   4.033   3.492
11254SOL     OW35535   3.440  12.822   3.560
11254SOL    HW135536   3.434  12.847   3.652
11254SOL    HW235537   3.428  12.904   3.512
11255SOL     OW35538   5.362  13.109   8.974
11255SOL    HW135539   5.358  13.031   8.919
11255SOL    HW235540   5.417  13.170   8.925
11256SOL     OW35541   0.484  12.193   8.855
11256SOL    HW135542   0.474  12.112   8.904
11256SOL    HW235543   0.477  12.167   8.763
11257SOL     OW35544   4.182   6.517   5.187
11257SOL    HW135545   4.201   6.588   5.126
11257SOL    HW235546   4.247   6.449   5.168
11258SOL     OW35547   0.447   8.620   5.956
11258SOL    HW135548   0.495   8.576   6.026
11258SOL    HW235549   0.465   8.713   5.970
11259SOL     OW35550   2.685   5.951  13.350
11259SOL    HW135551   2.777   5.965  13.329
11259SOL    HW235552   2.639   6.023  13.307
11260SOL     OW35553   6.363   0.963   6.950
11260SOL    HW135554   6.309   1.029   6.995
11260SOL    HW235555   6.316   0.946   6.869
11261SOL     OW35556   4.276   9.121  13.628
11261SOL    HW135557   4.269   9.043  13.683
11261SOL    HW235558   4.365   9.153  13.642
11262SOL     OW35559  13.044  11.036  10.853
11262SOL    HW135560  13.045  11.128  10.827
11262SOL    HW235561  13.000  10.991  10.781
11263SOL     OW35562   3.669  14.324   5.927
11263SOL    HW135563   3.739  14.291   5.984
11263SOL    HW235564   3.641  14.248   5.876
11264SOL     OW35565  12.458  10.431   6.648
11264SOL    HW135566  12.425  10.503   6.594
11264SOL    HW235567  12.391  10.363   6.639
11265SOL     OW35568   9.551   5.571   6.606
11265SOL    HW135569   9.555   5.629   6.529
11265SOL    HW235570   9.593   5.490   6.578
11266SOL     OW35571   8.004  12.524  11.460
11266SOL    HW135572   8.085  12.530  11.509
11266SOL    HW235573   8.024  12.468  11.386
11267SOL     OW35574   5.663   3.929   9.311
11267SOL    HW135575   5.737   3.976   9.273
11267SOL    HW235576   5.681   3.928   9.405
11268SOL     OW35577   5.769   3.458   8.827
11268SOL    HW135578   5.793   3.376   8.871
11268SOL    HW235579   5.675   3.467   8.844
11269SOL     OW35580   0.446   1.266   3.487
11269SOL    HW135581   0.390   1.341   3.509
11269SOL    HW235582   0.521   1.305   3.441
11270SOL     OW35583   8.336  13.846   6.697
11270SOL    HW135584   8.255  13.800   6.674
11270SOL    HW235585   8.406  13.795   6.655
11271SOL     OW35586  13.218   0.360   2.240
11271SOL    HW135587  13.212   0.271   2.277
11271SOL    HW235588  13.127   0.385   2.223
11272SOL     OW35589   9.426   8.052  14.846
11272SOL    HW135590   9.404   7.959  14.845
11272SOL    HW235591   9.484   8.064  14.771
11273SOL     OW35592   8.554  11.768   7.761
11273SOL    HW135593   8.554  11.689   7.707
11273SOL    HW235594   8.610  11.746   7.835
11274SOL     OW35595   1.403  13.932  13.919
11274SOL    HW135596   1.441  13.923  13.832
11274SOL    HW235597   1.442  14.012  13.954
11275SOL     OW35598   1.280   7.650   2.204
11275SOL    HW135599   1.361   7.671   2.158
11275SOL    HW235600   1.304   7.578   2.262
11276SOL     OW35601   9.176  12.510   0.950
11276SOL    HW135602   9.231  12.433   0.966
11276SOL    HW235603   9.089  12.484   0.981
11277SOL     OW35604   9.909   1.615  12.873
11277SOL    HW135605   9.873   1.553  12.810
11277SOL    HW235606   9.832   1.653  12.916
11278SOL     OW35607   6.685   0.719  10.796
11278SOL    HW135608   6.691   0.623  10.798
11278SOL    HW235609   6.708   0.746  10.885
11279SOL     OW35610  10.185   2.450   5.286
11279SOL    HW135611  10.267   2.423   5.326
11279SOL    HW235612  10.129   2.373   5.293
11280SOL     OW35613   8.946  10.931  11.858
11280SOL    HW135614   8.979  10.862  11.915
11280SOL    HW235615   8.946  10.891  11.770
11281SOL     OW35616   2.251   1.861   2.856
11281SOL    HW135617   2.270   1.777   2.898
11281SOL    HW235618   2.175   1.895   2.902
11282SOL     OW35619   9.222   0.611   6.741
11282SOL    HW135620   9.286   0.579   6.677
11282SOL    HW235621   9.137   0.589   6.703
11283SOL     OW35622   1.394  12.525   5.080
11283SOL    HW135623   1.383  12.528   5.175
11283SOL    HW235624   1.488  12.538   5.066
11284SOL     OW35625  13.438   3.338  10.952
11284SOL    HW135626  13.451   3.431  10.937
11284SOL    HW235627  13.411   3.303  10.867
11285SOL     OW35628   3.132   1.318  11.831
11285SOL    HW135629   3.210   1.314  11.887
11285SOL    HW235630   3.087   1.235  11.848
11286SOL     OW35631   6.526  10.163   2.584
11286SOL    HW135632   6.560  10.248   2.612
11286SOL    HW235633   6.596  10.101   2.605
11287SOL     OW35634  10.342  12.773   4.350
11287SOL    HW135635  10.431  12.803   4.333
11287SOL    HW235636  10.342  12.748   4.443
11288SOL     OW35637   5.871   8.507  14.500
11288SOL    HW135638   5.826   8.452  14.564
11288SOL    HW235639   5.815   8.584  14.491
11289SOL     OW35640   3.000   4.113   9.209
11289SOL    HW135641   2.929   4.176   9.219
11289SOL    HW235642   2.967   4.050   9.145
11290SOL     OW35643   0.391   1.272   6.992
11290SOL    HW135644   0.321   1.335   6.978
11290SOL    HW235645   0.405   1.271   7.086
11291SOL     OW35646  10.108   6.585  11.153
11291SOL    HW135647  10.023   6.599  11.111
11291SOL    HW235648  10.168   6.570  11.079
11292SOL     OW35649   2.086   5.151  11.123
11292SOL    HW135650   2.152   5.095  11.082
11292SOL    HW235651   2.037   5.189  11.049
11293SOL     OW35652  11.563   9.037   2.720
11293SOL    HW135653  11.471   9.034   2.748
11293SOL    HW235654  11.575   8.956   2.669
11294SOL     OW35655   0.585   6.928   9.775
11294SOL    HW135656   0.527   6.853   9.785
11294SOL    HW235657   0.610   6.951   9.864
11295SOL     OW35658   8.062   4.382  12.231
11295SOL    HW135659   8.092   4.345  12.147
11295SOL    HW235660   8.098   4.470  12.233
11296SOL     OW35661   5.794  11.637  10.001
11296SOL    HW135662   5.812  11.669  10.090
11296SOL    HW235663   5.863  11.676   9.947
11297SOL     OW35664  11.553  14.458  12.472
11297SOL    HW135665  11.464  14.458  12.435
11297SOL    HW235666  11.585  14.547  12.458
11298SOL     OW35667   3.983   5.604   8.047
11298SOL    HW135668   3.937   5.567   8.123
11298SOL    HW235669   3.913   5.624   7.985
11299SOL     OW35670   0.778   5.899   2.358
11299SOL    HW135671   0.690   5.888   2.323
11299SOL    HW235672   0.794   5.820   2.410
11300SOL     OW35673   6.197   7.254  11.910
11300SOL    HW135674   6.191   7.163  11.938
11300SOL    HW235675   6.188   7.305  11.990
11301SOL     OW35676   7.045  14.237  11.654
11301SOL    HW135677   7.056  14.318  11.606
11301SOL    HW235678   7.028  14.171  11.587
11302SOL     OW35679  11.979   6.608   8.020
11302SOL    HW135680  11.901   6.578   8.067
11302SOL    HW235681  12.029   6.657   8.086
11303SOL     OW35682   7.315   9.623   5.577
11303SOL    HW135683   7.395   9.633   5.629
11303SOL    HW235684   7.346   9.613   5.487
11304SOL     OW35685   5.948   5.171  14.020
11304SOL    HW135686   5.916   5.224  13.947
11304SOL    HW235687   5.980   5.234  14.084
11305SOL     OW35688   7.539   4.710   2.741
11305SOL    HW135689   7.569   4.797   2.716
11305SOL    HW235690   7.585   4.691   2.822
11306SOL     OW35691   1.334   1.203  10.069
11306SOL    HW135692   1.292   1.118  10.065
11306SOL    HW235693   1.428   1.184  10.062
11307SOL     OW35694   0.938   3.444   5.308
11307SOL    HW135695   0.954   3.536   5.326
11307SOL    HW235696   0.992   3.425   5.231
11308SOL     OW35697   9.229   1.607  12.644
11308SOL    HW135698   9.203   1.698  12.626
11308SOL    HW235699   9.163   1.575  12.706
11309SOL     OW35700   5.350  13.632   2.286
11309SOL    HW135701   5.308  13.551   2.258
11309SOL    HW235702   5.390  13.667   2.206
11310SOL     OW35703   5.562   4.620   0.547
11310SOL    HW135704   5.477   4.649   0.514
11310SOL    HW235705   5.580   4.678   0.621
11311SOL     OW35706   9.733  11.530   3.524
11311SOL    HW135707   9.778  11.493   3.600
11311SOL    HW235708   9.798  11.587   3.483
11312SOL     OW35709  13.405   5.840   0.565
11312SOL    HW135710  13.457   5.762   0.546
11312SOL    HW235711  13.365   5.822   0.650
11313SOL     OW35712   1.214   1.242   0.319
11313SOL    HW135713   1.171   1.265   0.237
11313SOL    HW235714   1.275   1.172   0.295
11314SOL     OW35715  11.858   9.230   6.136
11314SOL    HW135716  11.818   9.272   6.212
11314SOL    HW235717  11.947   9.263   6.134
11315SOL     OW35718   9.558   9.613   8.289
11315SOL    HW135719   9.637   9.564   8.268
11315SOL    HW235720   9.498   9.548   8.325
11316SOL     OW35721   9.789   8.303   3.928
11316SOL    HW135722   9.712   8.304   3.985
11316SOL    HW235723   9.859   8.268   3.984
11317SOL     OW35724   5.526   0.874  14.665
11317SOL    HW135725   5.597   0.913  14.614
11317SOL    HW235726   5.460   0.942  14.671
11318SOL     OW35727  12.545   4.568  13.467
11318SOL    HW135728  12.457   4.605  13.470
11318SOL    HW235729  12.587   4.612  13.393
11319SOL     OW35730  14.818   3.240  10.313
11319SOL    HW135731  14.778   3.291  10.242
11319SOL    HW235732   0.012   3.295  10.344
11320SOL     OW35733  14.540   7.094   2.200
11320SOL    HW135734  14.593   7.025   2.241
11320SOL    HW235735  14.506   7.053   2.120
11321SOL     OW35736   5.640  11.106   3.900
11321SOL    HW135737   5.728  11.140   3.883
11321SOL    HW235738   5.581  11.170   3.860
11322SOL     OW35739   9.712   1.208  10.841
11322SOL    HW135740   9.732   1.187  10.932
11322SOL    HW235741   9.682   1.126  10.803
11323SOL     OW35742   9.450   0.702   8.553
11323SOL    HW135743   9.389   0.671   8.620
11323SOL    HW235744   9.405   0.688   8.470
11324SOL     OW35745   3.487  12.647  11.322
11324SOL    HW135746   3.580  12.629  11.316
11324SOL    HW235747   3.469  12.652  11.416
11325SOL     OW35748   1.915  11.050  11.123
11325SOL    HW135749   1.999  11.096  11.119
11325SOL    HW235750   1.864  11.085  11.050
11326SOL     OW35751   2.231   1.026   0.209
11326SOL    HW135752   2.153   1.080   0.199
11326SOL    HW235753   2.284   1.047   0.132
11327SOL     OW35754  10.145   8.843   0.823
11327SOL    HW135755  10.194   8.763   0.840
11327SOL    HW235756  10.176   8.905   0.889
11328SOL     OW35757  11.848  12.369   0.410
11328SOL    HW135758  11.835  12.296   0.350
11328SOL    HW235759  11.907  12.428   0.364
11329SOL     OW35760   1.822  12.462  14.461
11329SOL    HW135761   1.808  12.387  14.403
11329SOL    HW235762   1.916  12.462  14.477
11330SOL     OW35763   2.729   1.535   4.278
11330SOL    HW135764   2.664   1.600   4.251
11330SOL    HW235765   2.804   1.550   4.221
11331SOL     OW35766   0.743   4.971   7.603
11331SOL    HW135767   0.800   5.034   7.559
11331SOL    HW235768   0.673   4.953   7.540
11332SOL     OW35769   4.268  14.163   2.858
11332SOL    HW135770   4.351  14.123   2.833
11332SOL    HW235771   4.227  14.100   2.917
11333SOL     OW35772   7.854  11.570   1.733
11333SOL    HW135773   7.811  11.485   1.730
11333SOL    HW235774   7.871  11.586   1.825
11334SOL     OW35775   5.999  10.344  14.192
11334SOL    HW135776   6.090  10.371  14.176
11334SOL    HW235777   5.955  10.425  14.216
11335SOL     OW35778   2.219   0.104  13.172
11335SOL    HW135779   2.145   0.047  13.153
11335SOL    HW235780   2.260   0.119  13.087
11336SOL     OW35781  11.430  14.676  14.170
11336SOL    HW135782  11.357  14.663  14.230
11336SOL    HW235783  11.504  14.632  14.212
11337SOL     OW35784   8.591  12.476  10.269
11337SOL    HW135785   8.669  12.496  10.321
11337SOL    HW235786   8.537  12.424  10.327
11338SOL     OW35787   0.214  10.397   5.869
11338SOL    HW135788   0.206  10.485   5.831
11338SOL    HW235789   0.131  10.383   5.914
11339SOL     OW35790  10.410  12.922  14.853
11339SOL    HW135791  10.486  12.894   0.028
11339SOL    HW235792  10.419  12.874  14.771
11340SOL     OW35793   6.814  11.368   2.987
11340SOL    HW135794   6.811  11.281   2.948
11340SOL    HW235795   6.738  11.413   2.949
11341SOL     OW35796   9.591   9.004   0.087
11341SOL    HW135797   9.507   9.016   0.043
11341SOL    HW235798   9.635   9.088   0.079
11342SOL     OW35799   9.634   7.724  12.895
11342SOL    HW135800   9.723   7.728  12.861
11342SOL    HW235801   9.589   7.799  12.856
11343SOL     OW35802   2.253   0.608   2.764
11343SOL    HW135803   2.211   0.689   2.736
11343SOL    HW235804   2.288   0.570   2.683
11344SOL     OW35805   7.205  11.441  11.785
11344SOL    HW135806   7.232  11.510  11.846
11344SOL    HW235807   7.258  11.365  11.811
11345SOL     OW35808   8.398   6.704  14.387
11345SOL    HW135809   8.369   6.761  14.315
11345SOL    HW235810   8.452   6.638  14.345
11346SOL     OW35811  11.444   2.614   8.115
11346SOL    HW135812  11.447   2.518   8.112
11346SOL    HW235813  11.369   2.638   8.061
11347SOL     OW35814  10.281   2.701  12.327
11347SOL    HW135815  10.260   2.776  12.271
11347SOL    HW235816  10.273   2.735  12.416
11348SOL     OW35817   7.701   3.960   7.743
11348SOL    HW135818   7.636   3.999   7.685
11348SOL    HW235819   7.650   3.914   7.809
11349SOL     OW35820   0.454  12.572   0.742
11349SOL    HW135821   0.414  12.651   0.707
11349SOL    HW235822   0.423  12.567   0.832
11350SOL     OW35823  13.977   9.289   1.363
11350SOL    HW135824  14.049   9.350   1.344
11350SOL    HW235825  13.915   9.302   1.292
11351SOL     OW35826   7.020   7.405  13.217
11351SOL    HW135827   7.062   7.491  13.229
11351SOL    HW235828   6.948   7.405  13.280
11352SOL     OW35829   9.920   8.670   1.285
11352SOL    HW135830   9.849   8.669   1.221
11352SOL    HW235831   9.934   8.578   1.306
11353SOL     OW35832   2.451   3.094   9.953
11353SOL    HW135833   2.440   3.017   9.897
11353SOL    HW235834   2.515   3.067  10.018
11354SOL     OW35835   4.479  13.549   0.058
11354SOL    HW135836   4.470  13.638   0.025
11354SOL    HW235837   4.478  13.558   0.154
11355SOL     OW35838   8.288   3.601   2.255
11355SOL    HW135839   8.232   3.663   2.208
11355SOL    HW235840   8.249   3.595   2.342
11356SOL     OW35841   6.254  13.613  14.561
11356SOL    HW135842   6.190  13.666  14.512
11356SOL    HW235843   6.338  13.655  14.543
11357SOL     OW35844   3.724   2.066  11.815
11357SOL    HW135845   3.630   2.073  11.800
11357SOL    HW235846   3.760   2.148  11.781
11358SOL     OW35847   2.524  11.706  12.425
11358SOL    HW135848   2.448  11.691  12.481
11358SOL    HW235849   2.549  11.619  12.394
11359SOL     OW35850  13.275   9.045  12.106
11359SOL    HW135851  13.322   8.966  12.079
11359SOL    HW235852  13.205   9.014  12.162
11360SOL     OW35853   7.723   7.864   4.443
11360SOL    HW135854   7.695   7.956   4.436
11360SOL    HW235855   7.718   7.831   4.353
11361SOL     OW35856  11.553   6.913  13.531
11361SOL    HW135857  11.616   6.916  13.459
11361SOL    HW235858  11.600   6.945  13.607
11362SOL     OW35859  14.845   4.959   8.828
11362SOL    HW135860  14.813   5.045   8.801
11362SOL    HW235861   0.046   4.945   8.776
11363SOL     OW35862   1.661  11.644  11.845
11363SOL    HW135863   1.608  11.721  11.865
11363SOL    HW235864   1.695  11.661  11.756
11364SOL     OW35865   9.367   3.680   9.560
11364SOL    HW135866   9.381   3.675   9.655
11364SOL    HW235867   9.287   3.630   9.544
11365SOL     OW35868  14.479  14.027   1.527
11365SOL    HW135869  14.525  14.076   1.596
11365SOL    HW235870  14.519  14.057   1.445
11366SOL     OW35871  14.158  13.305  12.427
11366SOL    HW135872  14.233  13.337  12.477
11366SOL    HW235873  14.140  13.219  12.465
11367SOL     OW35874   9.485  10.636   8.651
11367SOL    HW135875   9.459  10.567   8.589
11367SOL    HW235876   9.421  10.629   8.722
11368SOL     OW35877   7.812  13.841   4.240
11368SOL    HW135878   7.884  13.796   4.196
11368SOL    HW235879   7.854  13.888   4.313
11369SOL     OW35880  11.409   0.690   1.051
11369SOL    HW135881  11.425   0.596   1.045
11369SOL    HW235882  11.328   0.698   1.102
11370SOL     OW35883  14.837   5.664   8.617
11370SOL    HW135884  14.770   5.627   8.559
11370SOL    HW235885   0.010   5.723   8.560
11371SOL     OW35886  14.601   9.487  13.008
11371SOL    HW135887  14.637   9.542  12.939
11371SOL    HW235888  14.627   9.530  13.090
11372SOL     OW35889   2.561  10.018   9.507
11372SOL    HW135890   2.571  10.113   9.509
11372SOL    HW235891   2.469  10.003   9.530
11373SOL     OW35892   6.449   0.146  12.132
11373SOL    HW135893   6.520   0.179  12.076
11373SOL    HW235894   6.392   0.221  12.145
11374SOL     OW35895   2.591  11.716   9.165
11374SOL    HW135896   2.506  11.692   9.202
11374SOL    HW235897   2.634  11.766   9.234
11375SOL     OW35898   9.745   5.208   8.684
11375SOL    HW135899   9.667   5.181   8.637
11375SOL    HW235900   9.794   5.127   8.700
11376SOL     OW35901   8.792   8.440   5.503
11376SOL    HW135902   8.744   8.367   5.543
11376SOL    HW235903   8.777   8.430   5.409
11377SOL     OW35904  13.945   9.812   6.782
11377SOL    HW135905  14.002   9.877   6.823
11377SOL    HW235906  13.861   9.824   6.824
11378SOL     OW35907  14.802   8.990   5.182
11378SOL    HW135908  14.708   8.971   5.193
11378SOL    HW235909  14.846   8.911   5.211
11379SOL     OW35910   8.904   2.085   7.930
11379SOL    HW135911   8.828   2.032   7.956
11379SOL    HW235912   8.882   2.116   7.842
11380SOL     OW35913   7.722   1.659   6.841
11380SOL    HW135914   7.749   1.593   6.776
11380SOL    HW235915   7.791   1.656   6.907
11381SOL     OW35916   7.257   8.510   7.240
11381SOL    HW135917   7.190   8.446   7.220
11381SOL    HW235918   7.211   8.580   7.287
11382SOL     OW35919  13.361   5.433  12.191
11382SOL    HW135920  13.401   5.461  12.109
11382SOL    HW235921  13.432   5.386  12.236
11383SOL     OW35922  10.345  11.144  10.646
11383SOL    HW135923  10.408  11.141  10.574
11383SOL    HW235924  10.348  11.056  10.683
11384SOL     OW35925   0.369   7.529   2.432
11384SOL    HW135926   0.450   7.522   2.381
11384SOL    HW235927   0.349   7.622   2.433
11385SOL     OW35928  11.670   2.591   7.768
11385SOL    HW135929  11.636   2.502   7.776
11385SOL    HW235930  11.668   2.609   7.674
11386SOL     OW35931   4.939   7.336   6.588
11386SOL    HW135932   4.967   7.424   6.615
11386SOL    HW235933   4.874   7.311   6.653
11387SOL     OW35934   5.603   1.932  13.284
11387SOL    HW135935   5.564   1.933  13.372
11387SOL    HW235936   5.600   1.840  13.258
11388SOL     OW35937   9.119   6.971   7.836
11388SOL    HW135938   9.070   6.907   7.889
11388SOL    HW235939   9.123   7.049   7.891
11389SOL     OW35940   2.771   6.844   9.606
11389SOL    HW135941   2.847   6.846   9.665
11389SOL    HW235942   2.704   6.797   9.656
11390SOL     OW35943   6.907   9.064   7.661
11390SOL    HW135944   6.901   9.013   7.742
11390SOL    HW235945   6.996   9.099   7.661
11391SOL     OW35946  11.185   9.078   7.640
11391SOL    HW135947  11.140   8.994   7.647
11391SOL    HW235948  11.134   9.137   7.696
11392SOL     OW35949   0.614   8.666   5.595
11392SOL    HW135950   0.583   8.749   5.632
11392SOL    HW235951   0.535   8.614   5.581
11393SOL     OW35952   0.028  11.977   4.429
11393SOL    HW135953   0.035  12.065   4.393
11393SOL    HW235954  14.836  11.935   4.377
11394SOL     OW35955  14.223   5.843   0.972
11394SOL    HW135956  14.201   5.891   1.052
11394SOL    HW235957  14.173   5.762   0.978
11395SOL     OW35958  10.771   5.847  13.151
11395SOL    HW135959  10.759   5.917  13.215
11395SOL    HW235960  10.729   5.881  13.071
11396SOL     OW35961   6.528   9.712  11.803
11396SOL    HW135962   6.464   9.775  11.837
11396SOL    HW235963   6.551   9.745  11.716
11397SOL     OW35964  14.497  11.117  13.463
11397SOL    HW135965  14.515  11.199  13.418
11397SOL    HW235966  14.446  11.066  13.400
11398SOL     OW35967   1.147   9.238   3.555
11398SOL    HW135968   1.084   9.288   3.607
11398SOL    HW235969   1.101   9.155   3.536
11399SOL     OW35970   7.679   9.411  12.423
11399SOL    HW135971   7.773   9.423  12.412
11399SOL    HW235972   7.645   9.499  12.439
11400SOL     OW35973  13.975   0.753  14.638
11400SOL    HW135974  13.920   0.726  14.565
11400SOL    HW235975  14.062   0.764  14.600
11401SOL     OW35976  10.015  12.039   8.123
11401SOL    HW135977   9.979  11.994   8.047
11401SOL    HW235978  10.076  11.977   8.162
11402SOL     OW35979   9.937   1.163   3.185
11402SOL    HW135980   9.876   1.142   3.114
11402SOL    HW235981  10.004   1.218   3.143
11403SOL     OW35982  12.833  14.226   2.195
11403SOL    HW135983  12.801  14.269   2.116
11403SOL    HW235984  12.921  14.262   2.209
11404SOL     OW35985   6.774  10.518   6.555
11404SOL    HW135986   6.809  10.604   6.577
11404SOL    HW235987   6.845  10.474   6.508
11405SOL     OW35988  10.553   3.075  10.108
11405SOL    HW135989  10.588   2.989  10.129
11405SOL    HW235990  10.471   3.080  10.159
11406SOL     OW35991   1.087  13.633   8.563
11406SOL    HW135992   1.111  13.671   8.478
11406SOL    HW235993   0.998  13.600   8.550
11407SOL     OW35994  14.045  12.018   7.649
11407SOL    HW135995  14.048  11.962   7.571
11407SOL    HW235996  13.991  11.970   7.711
11408SOL     OW35997   0.647  10.580  10.956
11408SOL    HW135998   0.590  10.511  10.992
11408SOL    HW235999   0.716  10.590  11.022
11409SOL     OW36000   4.793   1.028   1.814
11409SOL    HW136001   4.883   1.044   1.784
11409SOL    HW236002   4.803   0.995   1.903
11410SOL     OW36003   2.011   6.256   1.190
11410SOL    HW136004   2.011   6.167   1.155
11410SOL    HW236005   1.971   6.248   1.277
11411SOL     OW36006   5.463   8.579   2.296
11411SOL    HW136007   5.528   8.566   2.364
11411SOL    HW236008   5.511   8.568   2.214
11412SOL     OW36009  10.241  10.825  14.836
11412SOL    HW136010  10.186  10.818  14.758
11412SOL    HW236011  10.187  10.790   0.029
11413SOL     OW36012   6.694   4.349   2.154
11413SOL    HW136013   6.759   4.322   2.089
11413SOL    HW236014   6.663   4.267   2.192
11414SOL     OW36015  14.118   0.348   6.119
11414SOL    HW136016  14.034   0.392   6.130
11414SOL    HW236017  14.146   0.328   6.208
11415SOL     OW36018   1.248   9.071  10.329
11415SOL    HW136019   1.197   9.118  10.262
11415SOL    HW236020   1.214   8.981  10.325
11416SOL     OW36021   2.720   9.332   6.205
11416SOL    HW136022   2.714   9.410   6.150
11416SOL    HW236023   2.711   9.364   6.294
11417SOL     OW36024  10.416   5.681  14.566
11417SOL    HW136025  10.380   5.669  14.654
11417SOL    HW236026  10.343   5.659  14.508
11418SOL     OW36027  12.086  10.184   0.608
11418SOL    HW136028  12.071  10.241   0.683
11418SOL    HW236029  12.046  10.101   0.632
11419SOL     OW36030   0.156   8.386   2.457
11419SOL    HW136031   0.229   8.441   2.485
11419SOL    HW236032   0.128   8.341   2.537
11420SOL     OW36033  13.999   7.455   3.842
11420SOL    HW136034  13.971   7.370   3.808
11420SOL    HW236035  14.094   7.451   3.843
11421SOL     OW36036  10.691   7.520   8.606
11421SOL    HW136037  10.777   7.548   8.637
11421SOL    HW236038  10.649   7.481   8.682
11422SOL     OW36039   1.865   3.643  11.351
11422SOL    HW136040   1.849   3.646  11.257
11422SOL    HW236041   1.919   3.720  11.369
11423SOL     OW36042   2.680  13.902  12.068
11423SOL    HW136043   2.666  13.808  12.072
11423SOL    HW236044   2.719  13.917  11.982
11424SOL     OW36045   4.479  13.052  11.711
11424SOL    HW136046   4.461  13.143  11.686
11424SOL    HW236047   4.574  13.048  11.720
11425SOL     OW36048   1.945  11.351   2.822
11425SOL    HW136049   1.852  11.349   2.844
11425SOL    HW236050   1.983  11.415   2.882
11426SOL     OW36051  14.708  14.026  10.221
11426SOL    HW136052  14.680  13.944  10.260
11426SOL    HW236053  14.752  14.073  10.291
11427SOL     OW36054   4.727   8.284   7.587
11427SOL    HW136055   4.673   8.214   7.550
11427SOL    HW236056   4.814   8.244   7.598
11428SOL     OW36057   1.940  11.717   4.282
11428SOL    HW136058   1.940  11.657   4.357
11428SOL    HW236059   1.999  11.676   4.219
11429SOL     OW36060   7.171   6.633   2.323
11429SOL    HW136061   7.120   6.696   2.373
11429SOL    HW236062   7.140   6.642   2.233
11430SOL     OW36063   3.787   8.212   4.103
11430SOL    HW136064   3.798   8.239   4.194
11430SOL    HW236065   3.872   8.230   4.062
11431SOL     OW36066   4.195   2.958   4.997
11431SOL    HW136067   4.198   3.020   4.924
11431SOL    HW236068   4.249   2.998   5.065
11432SOL     OW36069   4.783   4.234   1.928
11432SOL    HW136070   4.834   4.226   2.008
11432SOL    HW236071   4.833   4.187   1.862
11433SOL     OW36072   7.594  10.858   0.040
11433SOL    HW136073   7.571  10.950   0.051
11433SOL    HW236074   7.660  10.857  14.848
11434SOL     OW36075  14.496  12.474   3.245
11434SOL    HW136076  14.574  12.420   3.228
11434SOL    HW236077  14.492  12.481   3.340
11435SOL     OW36078   8.408  11.316   2.726
11435SOL    HW136079   8.326  11.285   2.687
11435SOL    HW236080   8.449  11.237   2.762
11436SOL     OW36081  10.586   3.478   1.083
11436SOL    HW136082  10.673   3.517   1.084
11436SOL    HW236083  10.594   3.400   1.028
11437SOL     OW36084  10.952  11.014   8.259
11437SOL    HW136085  10.890  10.950   8.295
11437SOL    HW236086  10.959  11.081   8.327
11438SOL     OW36087   0.575   1.132  10.596
11438SOL    HW136088   0.654   1.107  10.548
11438SOL    HW236089   0.606   1.146  10.686
11439SOL     OW36090  12.283   0.458  14.241
11439SOL    HW136091  12.266   0.375  14.195
11439SOL    HW236092  12.209   0.514  14.219
11440SOL     OW36093   4.119   7.770   6.565
11440SOL    HW136094   4.062   7.757   6.489
11440SOL    HW236095   4.120   7.864   6.579
11441SOL     OW36096   9.363   3.269   7.506
11441SOL    HW136097   9.320   3.351   7.482
11441SOL    HW236098   9.386   3.229   7.423
11442SOL     OW36099   1.066   4.396  11.965
11442SOL    HW136100   1.128   4.364  11.900
11442SOL    HW236101   1.024   4.472  11.924
11443SOL     OW36102   2.301  13.273  14.260
11443SOL    HW136103   2.322  13.271  14.354
11443SOL    HW236104   2.240  13.346  14.252
11444SOL     OW36105   9.707  11.873  12.332
11444SOL    HW136106   9.660  11.953  12.357
11444SOL    HW236107   9.792  11.904  12.300
11445SOL     OW36108   7.377   2.489   8.156
11445SOL    HW136109   7.438   2.479   8.082
11445SOL    HW236110   7.319   2.413   8.149
11446SOL     OW36111   6.054   2.451   0.620
11446SOL    HW136112   5.962   2.461   0.645
11446SOL    HW236113   6.076   2.535   0.579
11447SOL     OW36114  10.769   2.013   1.891
11447SOL    HW136115  10.860   1.990   1.915
11447SOL    HW236116  10.743   2.079   1.955
11448SOL     OW36117   6.920   3.594   7.471
11448SOL    HW136118   7.002   3.590   7.422
11448SOL    HW236119   6.945   3.630   7.556
11449SOL     OW36120   7.031  14.225  12.493
11449SOL    HW136121   6.973  14.225  12.417
11449SOL    HW236122   7.104  14.281  12.467
11450SOL     OW36123   3.470   0.552   6.238
11450SOL    HW136124   3.433   0.549   6.150
11450SOL    HW236125   3.519   0.634   6.240
11451SOL     OW36126   3.217  14.150   3.369
11451SOL    HW136127   3.167  14.177   3.293
11451SOL    HW236128   3.154  14.100   3.422
11452SOL     OW36129   0.739   9.322   0.453
11452SOL    HW136130   0.676   9.389   0.423
11452SOL    HW236131   0.795   9.307   0.378
11453SOL     OW36132   8.253   8.581  10.663
11453SOL    HW136133   8.185   8.517  10.639
11453SOL    HW236134   8.288   8.610  10.579
11454SOL     OW36135   3.066  14.641  11.433
11454SOL    HW136136   3.134  14.678  11.376
11454SOL    HW236137   3.023  14.574  11.379
11455SOL     OW36138   8.813   5.620  11.491
11455SOL    HW136139   8.785   5.686  11.428
11455SOL    HW236140   8.771   5.646  11.573
11456SOL     OW36141   5.978  14.751   8.241
11456SOL    HW136142   5.956  14.674   8.188
11456SOL    HW236143   5.977  14.720   8.331
11457SOL     OW36144   6.613  10.009   6.478
11457SOL    HW136145   6.623  10.063   6.400
11457SOL    HW236146   6.547  10.055   6.531
11458SOL     OW36147  10.404   7.992   5.733
11458SOL    HW136148  10.454   8.069   5.707
11458SOL    HW236149  10.335   8.026   5.791
11459SOL     OW36150  10.736   3.182   1.520
11459SOL    HW136151  10.692   3.259   1.484
11459SOL    HW236152  10.829   3.205   1.520
11460SOL     OW36153   5.427  13.852  12.095
11460SOL    HW136154   5.406  13.826  12.005
11460SOL    HW236155   5.517  13.882  12.091
11461SOL     OW36156  14.230   5.133   4.168
11461SOL    HW136157  14.268   5.086   4.243
11461SOL    HW236158  14.163   5.189   4.207
11462SOL     OW36159   7.121   2.903   3.821
11462SOL    HW136160   7.134   2.955   3.901
11462SOL    HW236161   7.200   2.918   3.769
11463SOL     OW36162   5.196   4.986   9.654
11463SOL    HW136163   5.290   4.997   9.667
11463SOL    HW236164   5.160   5.075   9.656
11464SOL     OW36165   9.152   3.379   9.304
11464SOL    HW136166   9.160   3.366   9.398
11464SOL    HW236167   9.094   3.455   9.295
11465SOL     OW36168   3.588   2.335   2.977
11465SOL    HW136169   3.540   2.253   2.964
11465SOL    HW236170   3.568   2.361   3.067
11466SOL     OW36171   9.057  14.470  11.827
11466SOL    HW136172   9.082  14.387  11.869
11466SOL    HW236173   9.132  14.492  11.771
11467SOL     OW36174  14.302   0.922   9.829
11467SOL    HW136175  14.348   0.900   9.910
11467SOL    HW236176  14.355   0.991   9.789
11468SOL     OW36177  11.206   9.855   7.574
11468SOL    HW136178  11.267   9.927   7.560
11468SOL    HW236179  11.202   9.845   7.669
11469SOL     OW36180  12.355  11.907  12.748
11469SOL    HW136181  12.368  11.996  12.782
11469SOL    HW236182  12.298  11.919  12.672
11470SOL     OW36183   6.543   2.937  12.400
11470SOL    HW136184   6.545   2.865  12.337
11470SOL    HW236185   6.451   2.947  12.422
11471SOL     OW36186  12.942  12.764  13.988
11471SOL    HW136187  12.909  12.814  14.063
11471SOL    HW236188  12.864  12.746  13.935
11472SOL     OW36189   5.971   8.620   8.484
11472SOL    HW136190   6.050   8.659   8.520
11472SOL    HW236191   5.901   8.682   8.507
11473SOL     OW36192  10.702   8.540   9.514
11473SOL    HW136193  10.631   8.564   9.573
11473SOL    HW236194  10.763   8.489   9.568
11474SOL     OW36195  14.148   5.408   6.745
11474SOL    HW136196  14.147   5.315   6.766
11474SOL    HW236197  14.193   5.413   6.660
11475SOL     OW36198  14.751   8.388   2.289
11475SOL    HW136199  14.836   8.407   2.330
11475SOL    HW236200  14.750   8.292   2.281
11476SOL     OW36201   0.001  12.694   5.752
11476SOL    HW136202   0.019  12.646   5.671
11476SOL    HW236203  14.858  12.626   5.816
11477SOL     OW36204  12.422   9.849  12.001
11477SOL    HW136205  12.462   9.837  11.916
11477SOL    HW236206  12.495   9.849  12.063
11478SOL     OW36207  11.741  10.088  12.647
11478SOL    HW136208  11.753  10.144  12.570
11478SOL    HW236209  11.770  10.002  12.618
11479SOL     OW36210  14.724   2.963   5.830
11479SOL    HW136211  14.761   3.011   5.756
11479SOL    HW236212  14.799   2.946   5.887
11480SOL     OW36213  13.406   9.973  12.065
11480SOL    HW136214  13.399   9.879  12.047
11480SOL    HW236215  13.481   9.980  12.126
11481SOL     OW36216   8.298   9.833   9.722
11481SOL    HW136217   8.362   9.763   9.732
11481SOL    HW236218   8.214   9.792   9.745
11482SOL     OW36219  14.246   0.453  14.657
11482SOL    HW136220  14.221   0.395  14.585
11482SOL    HW236221  14.229   0.403  14.736
11483SOL     OW36222   6.950   7.421   4.072
11483SOL    HW136223   6.911   7.409   3.985
11483SOL    HW236224   7.043   7.405   4.059
11484SOL     OW36225   0.058  11.242   0.854
11484SOL    HW136226   0.122  11.218   0.787
11484SOL    HW236227   0.110  11.261   0.932
11485SOL     OW36228   0.796   7.671   6.236
11485SOL    HW136229   0.880   7.633   6.263
11485SOL    HW236230   0.815   7.763   6.219
11486SOL     OW36231   4.795   8.822   4.296
11486SOL    HW136232   4.862   8.757   4.317
11486SOL    HW236233   4.768   8.802   4.207
11487SOL     OW36234   8.751   3.999   8.571
11487SOL    HW136235   8.731   3.987   8.664
11487SOL    HW236236   8.672   3.972   8.525
11488SOL     OW36237   8.283   7.530   0.594
11488SOL    HW136238   8.366   7.487   0.615
11488SOL    HW236239   8.226   7.459   0.564
11489SOL     OW36240   1.778   1.979   9.201
11489SOL    HW136241   1.863   1.982   9.245
11489SOL    HW236242   1.720   1.934   9.262
11490SOL     OW36243  12.879  14.022   4.390
11490SOL    HW136244  12.849  13.937   4.356
11490SOL    HW236245  12.963  14.037   4.347
11491SOL     OW36246  10.212  13.166   4.384
11491SOL    HW136247  10.129  13.140   4.344
11491SOL    HW236248  10.187  13.202   4.469
11492SOL     OW36249  10.879   4.430  12.639
11492SOL    HW136250  10.890   4.390  12.553
11492SOL    HW236251  10.949   4.391  12.692
11493SOL     OW36252  13.012  13.116   1.790
11493SOL    HW136253  13.046  13.146   1.706
11493SOL    HW236254  13.083  13.131   1.852
11494SOL     OW36255   2.594   1.674   9.907
11494SOL    HW136256   2.654   1.650   9.977
11494SOL    HW236257   2.511   1.695   9.951
11495SOL     OW36258  10.799  10.631   4.359
11495SOL    HW136259  10.883  10.599   4.326
11495SOL    HW236260  10.765  10.558   4.411
11496SOL     OW36261   0.134   0.572   8.265
11496SOL    HW136262   0.192   0.509   8.222
11496SOL    HW236263   0.102   0.526   8.343
11497SOL     OW36264   4.344   8.562   0.185
11497SOL    HW136265   4.398   8.641   0.188
11497SOL    HW236266   4.404   8.492   0.159
11498SOL     OW36267   5.159   0.556   9.367
11498SOL    HW136268   5.231   0.592   9.419
11498SOL    HW236269   5.090   0.538   9.430
11499SOL     OW36270   2.528  11.550   3.676
11499SOL    HW136271   2.518  11.551   3.772
11499SOL    HW236272   2.580  11.628   3.657
11500SOL     OW36273   3.876   2.566   8.735
11500SOL    HW136274   3.794   2.608   8.759
11500SOL    HW236275   3.888   2.585   8.642
11501SOL     OW36276   2.372   9.714   4.427
11501SOL    HW136277   2.383   9.699   4.333
11501SOL    HW236278   2.461   9.725   4.460
11502SOL     OW36279  14.259  10.916  10.953
11502SOL    HW136280  14.219  10.831  10.971
11502SOL    HW236281  14.315  10.933  11.028
11503SOL     OW36282   7.958   9.381  12.349
11503SOL    HW136283   7.961   9.301  12.401
11503SOL    HW236284   8.002   9.446  12.404
11504SOL     OW36285   5.190  12.708  11.958
11504SOL    HW136286   5.104  12.715  11.918
11504SOL    HW236287   5.173  12.690  12.051
11505SOL     OW36288   9.504  10.443   4.227
11505SOL    HW136289   9.558  10.511   4.185
11505SOL    HW236290   9.537  10.438   4.317
11506SOL     OW36291   8.191   7.137  14.535
11506SOL    HW136292   8.170   7.044  14.528
11506SOL    HW236293   8.133   7.169  14.604
11507SOL     OW36294   9.862  10.506   6.603
11507SOL    HW136295   9.938  10.538   6.553
11507SOL    HW236296   9.896  10.494   6.692
11508SOL     OW36297   3.843  14.214  12.496
11508SOL    HW136298   3.932  14.189  12.471
11508SOL    HW236299   3.855  14.288  12.556
11509SOL     OW36300   1.240  13.486   0.461
11509SOL    HW136301   1.247  13.563   0.405
11509SOL    HW236302   1.176  13.510   0.528
11510SOL     OW36303   1.082   1.542   0.905
11510SOL    HW136304   1.037   1.601   0.845
11510SOL    HW236305   1.058   1.573   0.992
11511SOL     OW36306   2.073   3.909  14.111
11511SOL    HW136307   2.155   3.874  14.078
11511SOL    HW236308   2.085   3.915  14.206
11512SOL     OW36309   6.121   0.424  10.983
11512SOL    HW136310   6.182   0.363  10.942
11512SOL    HW236311   6.159   0.442  11.069
11513SOL     OW36312   3.670   7.230   9.742
11513SOL    HW136313   3.580   7.235   9.774
11513SOL    HW236314   3.724   7.232   9.821
11514SOL     OW36315   7.792   1.879   1.810
11514SOL    HW136316   7.850   1.949   1.782
11514SOL    HW236317   7.777   1.827   1.731
11515SOL     OW36318   2.582   5.151  10.658
11515SOL    HW136319   2.538   5.067  10.648
11515SOL    HW236320   2.512   5.214  10.671
11516SOL     OW36321   5.124   4.479  13.398
11516SOL    HW136322   5.037   4.440  13.391
11516SOL    HW236323   5.116   4.562  13.350
11517SOL     OW36324  11.039   8.679   8.720
11517SOL    HW136325  11.066   8.618   8.789
11517SOL    HW236326  10.955   8.713   8.751
11518SOL     OW36327   9.143   1.858  12.578
11518SOL    HW136328   9.151   1.885  12.486
11518SOL    HW236329   9.048   1.851  12.592
11519SOL     OW36330  11.982   3.337   4.694
11519SOL    HW136331  11.982   3.275   4.621
11519SOL    HW236332  11.997   3.283   4.772
11520SOL     OW36333   8.250   8.960  12.496
11520SOL    HW136334   8.225   9.015  12.422
11520SOL    HW236335   8.246   8.871  12.463
11521SOL     OW36336   2.354   0.185   6.052
11521SOL    HW136337   2.393   0.173   5.965
11521SOL    HW236338   2.396   0.118   6.106
11522SOL     OW36339   4.939   9.172   9.001
11522SOL    HW136340   4.924   9.093   8.950
11522SOL    HW236341   4.876   9.167   9.073
11523SOL     OW36342  10.646   0.622   9.115
11523SOL    HW136343  10.730   0.666   9.107
11523SOL    HW236344  10.581   0.693   9.118
11524SOL     OW36345  13.589   8.611   3.248
11524SOL    HW136346  13.509   8.561   3.238
11524SOL    HW236347  13.659   8.548   3.231
11525SOL     OW36348  13.424  14.334  14.630
11525SOL    HW136349  13.484  14.267  14.663
11525SOL    HW236350  13.482  14.405  14.601
11526SOL     OW36351   6.547   4.541   1.050
11526SOL    HW136352   6.519   4.455   1.019
11526SOL    HW236353   6.635   4.551   1.015
11527SOL     OW36354   1.386   2.121   9.445
11527SOL    HW136355   1.419   2.053   9.386
11527SOL    HW236356   1.400   2.084   9.533
11528SOL     OW36357   3.449   0.354  12.455
11528SOL    HW136358   3.525   0.406  12.428
11528SOL    HW236359   3.442   0.368  12.549
11529SOL     OW36360  13.968   2.245   6.458
11529SOL    HW136361  13.948   2.261   6.366
11529SOL    HW236362  13.938   2.156   6.474
11530SOL     OW36363  12.793  12.084   7.959
11530SOL    HW136364  12.820  12.055   8.046
11530SOL    HW236365  12.871  12.074   7.905
11531SOL     OW36366  13.662   4.653  10.833
11531SOL    HW136367  13.600   4.724  10.818
11531SOL    HW236368  13.660   4.638  10.927
11532SOL     OW36369  14.462   3.002   1.876
11532SOL    HW136370  14.521   3.077   1.876
11532SOL    HW236371  14.430   2.995   1.966
11533SOL     OW36372  10.412  11.166   9.662
11533SOL    HW136373  10.469  11.202   9.594
11533SOL    HW236374  10.421  11.227   9.735
11534SOL     OW36375   7.724  11.484  14.688
11534SOL    HW136376   7.657  11.498  14.621
11534SOL    HW236377   7.774  11.566  14.689
11535SOL     OW36378   2.410   9.163   6.222
11535SOL    HW136379   2.351   9.218   6.274
11535SOL    HW236380   2.439   9.221   6.151
11536SOL     OW36381   5.077   9.543   0.517
11536SOL    HW136382   5.010   9.570   0.580
11536SOL    HW236383   5.101   9.624   0.471
11537SOL     OW36384   3.887   5.975   3.492
11537SOL    HW136385   3.946   5.985   3.566
11537SOL    HW236386   3.912   6.046   3.432
11538SOL     OW36387  14.196   6.343  11.414
11538SOL    HW136388  14.109   6.333  11.375
11538SOL    HW236389  14.241   6.261  11.394
11539SOL     OW36390   6.435   8.351   8.426
11539SOL    HW136391   6.481   8.405   8.361
11539SOL    HW236392   6.488   8.272   8.433
11540SOL     OW36393   5.797   3.824   7.796
11540SOL    HW136394   5.821   3.916   7.781
11540SOL    HW236395   5.757   3.796   7.713
11541SOL     OW36396  10.688   7.952   8.112
11541SOL    HW136397  10.751   8.011   8.069
11541SOL    HW236398  10.606   7.965   8.064
11542SOL     OW36399   5.515  10.205  13.881
11542SOL    HW136400   5.462  10.284  13.892
11542SOL    HW236401   5.604  10.238  13.867
11543SOL     OW36402   9.693   6.597  13.566
11543SOL    HW136403   9.770   6.625  13.517
11543SOL    HW236404   9.726   6.534  13.629
11544SOL     OW36405   8.635  12.150  13.259
11544SOL    HW136406   8.662  12.236  13.227
11544SOL    HW236407   8.648  12.091  13.184
11545SOL     OW36408   0.432   8.306   6.600
11545SOL    HW136409   0.415   8.299   6.506
11545SOL    HW236410   0.468   8.394   6.612
11546SOL     OW36411   9.728   7.967   4.392
11546SOL    HW136412   9.767   7.891   4.349
11546SOL    HW236413   9.757   7.960   4.483
11547SOL     OW36414   5.731   1.091   8.246
11547SOL    HW136415   5.826   1.100   8.252
11547SOL    HW236416   5.712   1.096   8.152
11548SOL     OW36417  11.271   8.947  12.451
11548SOL    HW136418  11.358   8.985  12.438
11548SOL    HW236419  11.211   9.012  12.416
11549SOL     OW36420   0.783  11.572  14.536
11549SOL    HW136421   0.780  11.631  14.461
11549SOL    HW236422   0.712  11.510  14.521
11550SOL     OW36423  10.085  14.405  12.673
11550SOL    HW136424  10.147  14.334  12.656
11550SOL    HW236425  10.117  14.446  12.754
11551SOL     OW36426   8.160   0.017   9.871
11551SOL    HW136427   8.185   0.108   9.885
11551SOL    HW236428   8.242  14.849   9.850
11552SOL     OW36429   5.599  13.104   6.122
11552SOL    HW136430   5.628  13.019   6.157
11552SOL    HW236431   5.598  13.161   6.198
11553SOL     OW36432  14.715  12.107  13.618
11553SOL    HW136433  14.732  12.169  13.689
11553SOL    HW236434  14.627  12.129  13.587
11554SOL     OW36435   0.678   6.538  12.733
11554SOL    HW136436   0.654   6.482  12.659
11554SOL    HW236437   0.595   6.577  12.761
11555SOL     OW36438   5.558   7.344  13.054
11555SOL    HW136439   5.631   7.405  13.040
11555SOL    HW236440   5.584   7.296  13.133
11556SOL     OW36441   2.045   7.964   3.274
11556SOL    HW136442   2.080   8.025   3.209
11556SOL    HW236443   1.950   7.965   3.257
11557SOL     OW36444   3.344   1.082  10.124
11557SOL    HW136445   3.301   1.042  10.048
11557SOL    HW236446   3.422   1.123  10.088
11558SOL     OW36447  12.163   0.554   2.942
11558SOL    HW136448  12.170   0.519   3.031
11558SOL    HW236449  12.182   0.480   2.885
11559SOL     OW36450   5.499   4.332  14.522
11559SOL    HW136451   5.446   4.265  14.566
11559SOL    HW236452   5.460   4.415  14.550
11560SOL     OW36453  11.878   3.356   8.647
11560SOL    HW136454  11.886   3.304   8.566
11560SOL    HW236455  11.837   3.437   8.619
11561SOL     OW36456  14.437   0.374   3.393
11561SOL    HW136457  14.376   0.401   3.462
11561SOL    HW236458  14.501   0.445   3.388
11562SOL     OW36459  14.075   8.536   8.768
11562SOL    HW136460  14.000   8.477   8.774
11562SOL    HW236461  14.072   8.587   8.848
11563SOL     OW36462  10.273   4.371   8.198
11563SOL    HW136463  10.329   4.365   8.120
11563SOL    HW236464  10.315   4.314   8.262
11564SOL     OW36465  11.536   8.088   7.747
11564SOL    HW136466  11.457   8.050   7.786
11564SOL    HW236467  11.532   8.180   7.771
11565SOL     OW36468   3.522  14.052   6.872
11565SOL    HW136469   3.607  14.077   6.837
11565SOL    HW236470   3.492  14.129   6.920
11566SOL     OW36471   1.542   1.551   7.203
11566SOL    HW136472   1.449   1.534   7.184
11566SOL    HW236473   1.541   1.613   7.275
11567SOL     OW36474  11.003   6.026   6.361
11567SOL    HW136475  10.950   5.989   6.431
11567SOL    HW236476  10.982   6.120   6.362
11568SOL     OW36477  11.860   1.323   7.227
11568SOL    HW136478  11.888   1.378   7.153
11568SOL    HW236479  11.895   1.237   7.206
11569SOL     OW36480  14.636   5.578   9.946
11569SOL    HW136481  14.546   5.605   9.965
11569SOL    HW236482  14.690   5.631  10.006
11570SOL     OW36483  14.293  11.794  12.091
11570SOL    HW136484  14.213  11.798  12.038
11570SOL    HW236485  14.285  11.868  12.151
11571SOL     OW36486   0.756   9.705   0.895
11571SOL    HW136487   0.754   9.611   0.914
11571SOL    HW236488   0.847   9.730   0.911
11572SOL     OW36489  14.865  10.189   6.753
11572SOL    HW136490   0.074  10.177   6.712
11572SOL    HW236491   0.005  10.246   6.828
11573SOL     OW36492   0.574   1.828   1.443
11573SOL    HW136493   0.590   1.828   1.349
11573SOL    HW236494   0.595   1.918   1.470
11574SOL     OW36495  10.039   7.669  13.026
11574SOL    HW136496  10.048   7.757  13.062
11574SOL    HW236497   9.987   7.680  12.946
11575SOL     OW36498   4.185   6.630  12.928
11575SOL    HW136499   4.117   6.672  12.980
11575SOL    HW236500   4.193   6.542  12.964
11576SOL     OW36501  10.801   1.042   2.672
11576SOL    HW136502  10.754   1.111   2.719
11576SOL    HW236503  10.781   1.057   2.580
11577SOL     OW36504   8.597   8.470   1.061
11577SOL    HW136505   8.661   8.464   0.991
11577SOL    HW236506   8.521   8.421   1.028
11578SOL     OW36507  13.853   3.303   8.317
11578SOL    HW136508  13.794   3.227   8.320
11578SOL    HW236509  13.805   3.369   8.267
11579SOL     OW36510   1.655   0.899  12.855
11579SOL    HW136511   1.566   0.866  12.869
11579SOL    HW236512   1.709   0.848  12.915
11580SOL     OW36513  10.612  14.157   1.738
11580SOL    HW136514  10.633  14.170   1.646
11580SOL    HW236515  10.697  14.150   1.781
11581SOL     OW36516  13.014   4.618  10.614
11581SOL    HW136517  12.998   4.707  10.645
11581SOL    HW236518  13.092   4.625  10.558
11582SOL     OW36519   6.986   8.151  11.740
11582SOL    HW136520   6.921   8.183  11.804
11582SOL    HW236521   6.934   8.107  11.673
11583SOL     OW36522   1.495  11.515   3.518
11583SOL    HW136523   1.516  11.446   3.581
11583SOL    HW236524   1.473  11.468   3.437
11584SOL     OW36525   4.606  12.434  14.360
11584SOL    HW136526   4.553  12.490  14.302
11584SOL    HW236527   4.697  12.453  14.335
11585SOL     OW36528   6.909  11.255   2.423
11585SOL    HW136529   6.825  11.228   2.386
11585SOL    HW236530   6.965  11.272   2.348
11586SOL     OW36531   6.764   4.932  12.461
11586SOL    HW136532   6.771   4.876  12.384
11586SOL    HW236533   6.830   5.000  12.448
11587SOL     OW36534  13.043   3.604  11.110
11587SOL    HW136535  13.009   3.628  11.024
11587SOL    HW236536  12.982   3.644  11.172
11588SOL     OW36537  14.447  14.781   6.004
11588SOL    HW136538  14.529  14.747   5.970
11588SOL    HW236539  14.415  14.713   6.064
11589SOL     OW36540   4.364   5.423   6.104
11589SOL    HW136541   4.379   5.347   6.160
11589SOL    HW236542   4.373   5.498   6.163
11590SOL     OW36543   9.632   6.732  12.415
11590SOL    HW136544   9.660   6.792  12.484
11590SOL    HW236545   9.663   6.646  12.444
11591SOL     OW36546   9.623   9.005  12.751
11591SOL    HW136547   9.659   9.012  12.663
11591SOL    HW236548   9.581   8.919  12.753
11592SOL     OW36549  10.663  11.946  11.378
11592SOL    HW136550  10.745  11.960  11.426
11592SOL    HW236551  10.608  11.898  11.440
11593SOL     OW36552   2.212   4.344   3.620
11593SOL    HW136553   2.175   4.313   3.537
11593SOL    HW236554   2.217   4.439   3.610
11594SOL     OW36555   7.090  12.820   8.587
11594SOL    HW136556   7.051  12.846   8.671
11594SOL    HW236557   7.016  12.819   8.526
11595SOL     OW36558   5.533   8.286   6.580
11595SOL    HW136559   5.540   8.340   6.659
11595SOL    HW236560   5.521   8.196   6.613
11596SOL     OW36561  10.004   8.859  11.623
11596SOL    HW136562   9.994   8.820  11.537
11596SOL    HW236563  10.037   8.947  11.606
11597SOL     OW36564   0.909   4.071   7.623
11597SOL    HW136565   0.932   3.995   7.570
11597SOL    HW236566   0.814   4.078   7.616
11598SOL     OW36567   8.368  11.106  12.203
11598SOL    HW136568   8.312  11.145  12.270
11598SOL    HW236569   8.399  11.180  12.151
11599SOL     OW36570   8.757  10.433  13.968
11599SOL    HW136571   8.800  10.518  13.961
11599SOL    HW236572   8.809  10.375  13.913
11600SOL     OW36573   4.231   3.082   2.753
11600SOL    HW136574   4.137   3.098   2.738
11600SOL    HW236575   4.249   3.000   2.707
11601SOL     OW36576   7.998   3.479   4.399
11601SOL    HW136577   8.027   3.551   4.455
11601SOL    HW236578   8.064   3.411   4.412
11602SOL     OW36579   7.786   3.343   7.513
11602SOL    HW136580   7.832   3.426   7.529
11602SOL    HW236581   7.716   3.367   7.452
11603SOL     OW36582  14.487   4.790   7.715
11603SOL    HW136583  14.550   4.773   7.644
11603SOL    HW236584  14.402   4.768   7.678
11604SOL     OW36585   3.763  10.949   2.684
11604SOL    HW136586   3.672  10.928   2.664
11604SOL    HW236587   3.758  11.010   2.758
11605SOL     OW36588   0.531   6.013   5.313
11605SOL    HW136589   0.567   6.030   5.400
11605SOL    HW236590   0.585   5.942   5.278
11606SOL     OW36591   7.850   1.712  13.693
11606SOL    HW136592   7.793   1.786  13.712
11606SOL    HW236593   7.791   1.643  13.662
11607SOL     OW36594  12.648   7.078   5.370
11607SOL    HW136595  12.629   7.104   5.460
11607SOL    HW236596  12.582   7.010   5.350
11608SOL     OW36597   5.403   9.774  10.138
11608SOL    HW136598   5.348   9.704  10.173
11608SOL    HW236599   5.414   9.835  10.211
11609SOL     OW36600   5.309   4.835   9.316
11609SOL    HW136601   5.401   4.857   9.332
11609SOL    HW236602   5.281   4.790   9.396
11610SOL     OW36603   0.266  11.841   0.802
11610SOL    HW136604   0.308  11.925   0.786
11610SOL    HW236605   0.187  11.843   0.748
11611SOL     OW36606   3.035   2.608   0.931
11611SOL    HW136607   3.025   2.540   0.996
11611SOL    HW236608   2.949   2.649   0.924
11612SOL     OW36609   8.539   6.551  11.946
11612SOL    HW136610   8.629   6.576  11.967
11612SOL    HW236611   8.530   6.462  11.980
11613SOL     OW36612   8.520   3.309   6.443
11613SOL    HW136613   8.566   3.283   6.523
11613SOL    HW236614   8.453   3.371   6.474
11614SOL     OW36615   0.430  12.372  11.626
11614SOL    HW136616   0.343  12.333  11.629
11614SOL    HW236617   0.490  12.298  11.618
11615SOL     OW36618   4.822  11.000   9.115
11615SOL    HW136619   4.873  11.004   9.196
11615SOL    HW236620   4.731  10.999   9.143
11616SOL     OW36621   1.302   4.163   2.602
11616SOL    HW136622   1.207   4.175   2.610
11616SOL    HW236623   1.338   4.249   2.624
11617SOL     OW36624   3.086  13.561   6.602
11617SOL    HW136625   3.178  13.541   6.619
11617SOL    HW236626   3.051  13.588   6.687
11618SOL     OW36627   4.505   4.302   7.517
11618SOL    HW136628   4.497   4.207   7.512
11618SOL    HW236629   4.494   4.333   7.427
11619SOL     OW36630   3.930  14.538   2.958
11619SOL    HW136631   4.006  14.524   2.902
11619SOL    HW236632   3.861  14.484   2.918
11620SOL     OW36633  11.943  11.704  14.317
11620SOL    HW136634  11.947  11.670  14.407
11620SOL    HW236635  12.000  11.644  14.267
11621SOL     OW36636  12.642   0.559   8.523
11621SOL    HW136637  12.562   0.507   8.518
11621SOL    HW236638  12.634   0.608   8.604
11622SOL     OW36639  12.380   1.576  11.415
11622SOL    HW136640  12.459   1.569  11.468
11622SOL    HW236641  12.395   1.515  11.343
11623SOL     OW36642   9.378   0.104   0.175
11623SOL    HW136643   9.310   0.095   0.108
11623SOL    HW236644   9.379   0.019   0.219
11624SOL     OW36645   5.068   8.511   8.071
11624SOL    HW136646   5.013   8.470   8.003
11624SOL    HW236647   5.018   8.587   8.099
11625SOL     OW36648   8.770   5.452   6.801
11625SOL    HW136649   8.864   5.469   6.792
11625SOL    HW236650   8.752   5.388   6.732
11626SOL     OW36651  14.367   6.242   4.254
11626SOL    HW136652  14.359   6.309   4.322
11626SOL    HW236653  14.380   6.290   4.173
11627SOL     OW36654   8.488  12.947   8.382
11627SOL    HW136655   8.438  12.869   8.360
11627SOL    HW236656   8.427  13.020   8.370
11628SOL     OW36657   7.487   2.941   4.859
11628SOL    HW136658   7.513   2.855   4.825
11628SOL    HW236659   7.561   2.971   4.910
11629SOL     OW36660   4.438   3.207  12.792
11629SOL    HW136661   4.441   3.296  12.758
11629SOL    HW236662   4.451   3.216  12.887
11630SOL     OW36663   7.524   3.329   8.084
11630SOL    HW136664   7.446   3.377   8.056
11630SOL    HW236665   7.542   3.268   8.013
11631SOL     OW36666   7.671   1.024   0.005
11631SOL    HW136667   7.702   1.101  14.835
11631SOL    HW236668   7.710   1.033   0.092
11632SOL     OW36669   5.110   6.733   3.401
11632SOL    HW136670   5.200   6.742   3.433
11632SOL    HW236671   5.107   6.644   3.363
11633SOL     OW36672   4.681  12.367   0.396
11633SOL    HW136673   4.624  12.354   0.473
11633SOL    HW236674   4.712  12.458   0.405
11634SOL     OW36675   2.712   4.840   5.851
11634SOL    HW136676   2.713   4.883   5.765
11634SOL    HW236677   2.783   4.881   5.900
11635SOL     OW36678   5.512   0.272   3.593
11635SOL    HW136679   5.529   0.216   3.668
11635SOL    HW236680   5.584   0.253   3.532
11636SOL     OW36681   2.235   4.778   2.964
11636SOL    HW136682   2.177   4.817   3.030
11636SOL    HW236683   2.293   4.849   2.939
11637SOL     OW36684   8.449   4.339   2.346
11637SOL    HW136685   8.478   4.396   2.274
11637SOL    HW236686   8.530   4.299   2.378
11638SOL     OW36687   1.220  12.487  14.764
11638SOL    HW136688   1.187  12.414  14.711
11638SOL    HW236689   1.147  12.508  14.823
11639SOL     OW36690  14.765   1.780   9.822
11639SOL    HW136691  14.745   1.693   9.856
11639SOL    HW236692  14.822   1.819   9.888
11640SOL     OW36693   0.193  11.031   4.454
11640SOL    HW136694   0.250  10.994   4.386
11640SOL    HW236695   0.133  10.960   4.475
11641SOL     OW36696   6.936  10.898   0.920
11641SOL    HW136697   6.849  10.929   0.894
11641SOL    HW236698   6.946  10.814   0.874
11642SOL     OW36699   9.944   6.503   3.199
11642SOL    HW136700   9.912   6.577   3.250
11642SOL    HW236701   9.867   6.472   3.151
11643SOL     OW36702  11.654   6.838   1.263
11643SOL    HW136703  11.560   6.846   1.276
11643SOL    HW236704  11.669   6.869   1.174
11644SOL     OW36705   2.170   4.165   6.533
11644SOL    HW136706   2.252   4.136   6.573
11644SOL    HW236707   2.117   4.086   6.526
11645SOL     OW36708   3.048   5.468  10.209
11645SOL    HW136709   3.136   5.432  10.195
11645SOL    HW236710   3.063   5.557  10.240
11646SOL     OW36711  11.383   8.979  11.773
11646SOL    HW136712  11.379   8.891  11.735
11646SOL    HW236713  11.405   9.037  11.700
11647SOL     OW36714   4.071   2.874  11.741
11647SOL    HW136715   3.994   2.852  11.793
11647SOL    HW236716   4.040   2.941  11.679
11648SOL     OW36717   1.515  10.319   6.574
11648SOL    HW136718   1.489  10.262   6.502
11648SOL    HW236719   1.454  10.297   6.645
11649SOL     OW36720  10.748   5.940   3.475
11649SOL    HW136721  10.750   5.845   3.482
11649SOL    HW236722  10.717   5.970   3.560
11650SOL     OW36723   3.847  14.641   0.872
11650SOL    HW136724   3.822  14.715   0.816
11650SOL    HW236725   3.765  14.592   0.885
11651SOL     OW36726   2.710   5.787   0.452
11651SOL    HW136727   2.671   5.865   0.412
11651SOL    HW236728   2.745   5.737   0.378
11652SOL     OW36729   7.248   2.089   4.068
11652SOL    HW136730   7.343   2.100   4.079
11652SOL    HW236731   7.238   2.054   3.980
11653SOL     OW36732   3.478   7.648  14.194
11653SOL    HW136733   3.537   7.617  14.126
11653SOL    HW236734   3.536   7.687  14.260
11654SOL     OW36735   8.531  10.558   4.143
11654SOL    HW136736   8.605  10.527   4.092
11654SOL    HW236737   8.568  10.623   4.202
11655SOL     OW36738  11.556   8.804   5.477
11655SOL    HW136739  11.581   8.893   5.503
11655SOL    HW236740  11.505   8.771   5.551
11656SOL     OW36741   0.403   3.207   5.737
11656SOL    HW136742   0.425   3.300   5.739
11656SOL    HW236743   0.320   3.203   5.689
11657SOL     OW36744  13.595  10.156   9.143
11657SOL    HW136745  13.646  10.201   9.077
11657SOL    HW236746  13.624  10.194   9.226
11658SOL     OW36747   1.169   8.092   5.984
11658SOL    HW136748   1.148   8.019   5.925
11658SOL    HW236749   1.240   8.059   6.038
11659SOL     OW36750   3.912  13.520   2.700
11659SOL    HW136751   4.005  13.529   2.724
11659SOL    HW236752   3.903  13.429   2.672
11660SOL     OW36753   3.579   0.755   2.041
11660SOL    HW136754   3.608   0.720   2.125
11660SOL    HW236755   3.500   0.806   2.061
11661SOL     OW36756  13.006   1.543   4.819
11661SOL    HW136757  13.015   1.561   4.912
11661SOL    HW236758  13.087   1.575   4.780
11662SOL     OW36759   5.690  11.230   8.958
11662SOL    HW136760   5.752  11.158   8.968
11662SOL    HW236761   5.745  11.306   8.937
11663SOL     OW36762  12.280   6.478   2.216
11663SOL    HW136763  12.265   6.564   2.176
11663SOL    HW236764  12.293   6.498   2.309
11664SOL     OW36765  11.243  13.051   8.607
11664SOL    HW136766  11.202  12.990   8.669
11664SOL    HW236767  11.190  13.043   8.528
11665SOL     OW36768   3.464   7.416  11.767
11665SOL    HW136769   3.458   7.467  11.686
11665SOL    HW236770   3.557   7.396  11.777
11666SOL     OW36771  10.339   4.031   5.275
11666SOL    HW136772  10.410   4.093   5.295
11666SOL    HW236773  10.260   4.085   5.272
11667SOL     OW36774   6.079   8.762   2.327
11667SOL    HW136775   6.055   8.824   2.395
11667SOL    HW236776   6.165   8.728   2.355
11668SOL     OW36777   3.140   5.889   8.523
11668SOL    HW136778   3.160   5.870   8.614
11668SOL    HW236779   3.131   5.804   8.481
11669SOL     OW36780   1.355   8.047   9.669
11669SOL    HW136781   1.371   8.063   9.576
11669SOL    HW236782   1.395   7.962   9.686
11670SOL     OW36783   6.640   6.281   3.779
11670SOL    HW136784   6.555   6.307   3.815
11670SOL    HW236785   6.695   6.265   3.856
11671SOL     OW36786   9.893   4.391  12.037
11671SOL    HW136787   9.928   4.362  12.121
11671SOL    HW236788   9.969   4.420  11.988
11672SOL     OW36789  14.405   7.411  13.322
11672SOL    HW136790  14.500   7.408  13.306
11672SOL    HW236791  14.394   7.370  13.407
11673SOL     OW36792   9.597   4.850  14.681
11673SOL    HW136793   9.666   4.908  14.711
11673SOL    HW236794   9.543   4.834  14.759
11674SOL     OW36795  12.574   0.299   9.536
11674SOL    HW136796  12.577   0.218   9.485
11674SOL    HW236797  12.566   0.270   9.627
11675SOL     OW36798   7.552  13.236   6.647
11675SOL    HW136799   7.511  13.289   6.715
11675SOL    HW236800   7.579  13.156   6.692
11676SOL     OW36801   8.294   9.889   9.293
11676SOL    HW136802   8.252   9.936   9.221
11676SOL    HW236803   8.223   9.841   9.335
11677SOL     OW36804   0.910   1.058   9.946
11677SOL    HW136805   0.957   1.139   9.930
11677SOL    HW236806   0.870   1.069  10.032
11678SOL     OW36807   4.744  13.461   8.282
11678SOL    HW136808   4.784  13.505   8.207
11678SOL    HW236809   4.817  13.418   8.326
11679SOL     OW36810   8.182   3.559   2.731
11679SOL    HW136811   8.210   3.500   2.801
11679SOL    HW236812   8.263   3.601   2.702
11680SOL     OW36813   8.056  14.814   1.641
11680SOL    HW136814   8.057  14.805   1.546
11680SOL    HW236815   8.061   0.031   1.656
11681SOL     OW36816  11.944   5.153   9.289
11681SOL    HW136817  11.919   5.142   9.198
11681SOL    HW236818  11.938   5.065   9.327
11682SOL     OW36819  12.128   0.010  10.980
11682SOL    HW136820  12.090   0.074  10.920
11682SOL    HW236821  12.191   0.059  11.032
11683SOL     OW36822  10.691  12.948   3.073
11683SOL    HW136823  10.668  12.978   2.986
11683SOL    HW236824  10.749  13.016   3.107
11684SOL     OW36825   8.366   4.796  14.642
11684SOL    HW136826   8.452   4.821  14.675
11684SOL    HW236827   8.336   4.873  14.594
11685SOL     OW36828   0.837   5.829   5.828
11685SOL    HW136829   0.870   5.795   5.745
11685SOL    HW236830   0.796   5.912   5.805
11686SOL     OW36831  13.082   1.978   6.962
11686SOL    HW136832  13.112   1.938   7.044
11686SOL    HW236833  13.149   2.042   6.940
11687SOL     OW36834  12.544  13.472  10.383
11687SOL    HW136835  12.540  13.568  10.376
11687SOL    HW236836  12.472  13.449  10.442
11688SOL     OW36837   5.596   8.361   8.687
11688SOL    HW136838   5.611   8.380   8.780
11688SOL    HW236839   5.529   8.424   8.660
11689SOL     OW36840  13.449   8.915   3.090
11689SOL    HW136841  13.385   8.898   3.159
11689SOL    HW236842  13.436   9.007   3.068
11690SOL     OW36843   3.641  10.377   2.072
11690SOL    HW136844   3.598  10.399   2.155
11690SOL    HW236845   3.725  10.424   2.076
11691SOL     OW36846   5.613  10.459   8.904
11691SOL    HW136847   5.627  10.553   8.911
11691SOL    HW236848   5.518  10.450   8.896
11692SOL     OW36849   5.426  14.386   5.873
11692SOL    HW136850   5.511  14.398   5.830
11692SOL    HW236851   5.445  14.389   5.966
11693SOL     OW36852   4.274   7.883   2.293
11693SOL    HW136853   4.315   7.817   2.237
11693SOL    HW236854   4.261   7.958   2.236
11694SOL     OW36855   6.407   1.597  10.449
11694SOL    HW136856   6.420   1.610  10.355
11694SOL    HW236857   6.432   1.680  10.488
11695SOL     OW36858   8.288  10.072  14.505
11695SOL    HW136859   8.323   9.983  14.496
11695SOL    HW236860   8.317  10.100  14.591
11696SOL     OW36861  10.714   6.375   4.016
11696SOL    HW136862  10.791   6.410   4.062
11696SOL    HW236863  10.672   6.451   3.977
11697SOL     OW36864  12.530   3.333   4.181
11697SOL    HW136865  12.495   3.308   4.267
11697SOL    HW236866  12.625   3.328   4.191
11698SOL     OW36867   4.180   9.028  14.601
11698SOL    HW136868   4.136   9.031  14.685
11698SOL    HW236869   4.113   9.001  14.539
11699SOL     OW36870  12.770   2.441   8.514
11699SOL    HW136871  12.831   2.368   8.521
11699SOL    HW236872  12.813   2.513   8.561
11700SOL     OW36873   1.354   0.199   5.220
11700SOL    HW136874   1.275   0.253   5.225
11700SOL    HW236875   1.367   0.183   5.127
11701SOL     OW36876   7.868   1.473  10.925
11701SOL    HW136877   7.944   1.414  10.929
11701SOL    HW236878   7.833   1.471  11.014
11702SOL     OW36879   9.570   6.831  11.753
11702SOL    HW136880   9.577   6.838  11.658
11702SOL    HW236881   9.661   6.832  11.784
11703SOL     OW36882  11.389  12.200  13.909
11703SOL    HW136883  11.368  12.116  13.950
11703SOL    HW236884  11.399  12.261  13.983
11704SOL     OW36885  11.518   9.339   2.559
11704SOL    HW136886  11.543   9.262   2.509
11704SOL    HW236887  11.431   9.362   2.526
11705SOL     OW36888   9.324   9.404   5.669
11705SOL    HW136889   9.234   9.435   5.678
11705SOL    HW236890   9.377   9.484   5.673
11706SOL     OW36891   7.901   7.963   8.968
11706SOL    HW136892   7.942   8.020   8.903
11706SOL    HW236893   7.872   7.886   8.919
11707SOL     OW36894   3.271   8.198   3.801
11707SOL    HW136895   3.311   8.284   3.809
11707SOL    HW236896   3.177   8.215   3.802
11708SOL     OW36897   8.668  11.908   6.752
11708SOL    HW136898   8.618  11.987   6.772
11708SOL    HW236899   8.628  11.839   6.806
11709SOL     OW36900   2.793  13.681  11.222
11709SOL    HW136901   2.701  13.661  11.201
11709SOL    HW236902   2.824  13.605  11.271
11710SOL     OW36903  13.424   2.323  10.824
11710SOL    HW136904  13.457   2.260  10.761
11710SOL    HW236905  13.359   2.374  10.775
11711SOL     OW36906   2.250   3.791   6.943
11711SOL    HW136907   2.294   3.874   6.924
11711SOL    HW236908   2.316   3.724   6.924
11712SOL     OW36909   7.724   7.851   8.345
11712SOL    HW136910   7.636   7.826   8.318
11712SOL    HW236911   7.743   7.932   8.296
11713SOL     OW36912  11.954   7.242   3.308
11713SOL    HW136913  11.960   7.324   3.259
11713SOL    HW236914  11.991   7.176   3.250
11714SOL     OW36915  11.103  13.654  10.354
11714SOL    HW136916  11.103  13.743  10.319
11714SOL    HW236917  11.054  13.603  10.289
11715SOL     OW36918  11.178   7.573   0.395
11715SOL    HW136919  11.201   7.597   0.485
11715SOL    HW236920  11.139   7.486   0.403
11716SOL     OW36921   8.403   1.498   4.213
11716SOL    HW136922   8.342   1.558   4.170
11716SOL    HW236923   8.373   1.494   4.304
11717SOL     OW36924  13.363   0.178  11.208
11717SOL    HW136925  13.343   0.192  11.300
11717SOL    HW236926  13.452   0.212  11.197
11718SOL     OW36927  10.206   6.335   5.734
11718SOL    HW136928  10.119   6.366   5.757
11718SOL    HW236929  10.265   6.406   5.758
11719SOL     OW36930   5.680   2.492  10.028
11719SOL    HW136931   5.761   2.540  10.044
11719SOL    HW236932   5.708   2.401  10.014
11720SOL     OW36933   0.622  10.946   9.638
11720SOL    HW136934   0.598  11.030   9.676
11720SOL    HW236935   0.682  10.907   9.702
11721SOL     OW36936  11.041   6.885   2.690
11721SOL    HW136937  11.051   6.792   2.712
11721SOL    HW236938  11.127   6.923   2.704
11722SOL     OW36939   2.088   5.248   3.686
11722SOL    HW136940   2.121   5.158   3.680
11722SOL    HW236941   2.167   5.302   3.691
11723SOL     OW36942  14.575   7.362   4.682
11723SOL    HW136943  14.645   7.427   4.686
11723SOL    HW236944  14.517   7.386   4.755
11724SOL     OW36945   2.431  13.676  13.239
11724SOL    HW136946   2.426  13.669  13.144
11724SOL    HW236947   2.423  13.586  13.270
11725SOL     OW36948  11.092   2.690   1.466
11725SOL    HW136949  11.155   2.722   1.530
11725SOL    HW236950  11.025   2.757   1.462
11726SOL     OW36951  11.039   7.010   3.694
11726SOL    HW136952  11.028   6.981   3.785
11726SOL    HW236953  11.076   6.934   3.649
11727SOL     OW36954  12.113  12.413   9.611
11727SOL    HW136955  12.136  12.342   9.671
11727SOL    HW236956  12.080  12.369   9.533
11728SOL     OW36957  10.917  12.971   1.806
11728SOL    HW136958  10.905  13.004   1.895
11728SOL    HW236959  10.829  12.953   1.775
11729SOL     OW36960   6.526   0.938   9.880
11729SOL    HW136961   6.601   0.950   9.822
11729SOL    HW236962   6.505   1.026   9.911
11730SOL     OW36963   5.352  11.461   1.221
11730SOL    HW136964   5.340  11.532   1.159
11730SOL    HW236965   5.265  11.442   1.255
11731SOL     OW36966   1.642   4.635   3.590
11731SOL    HW136967   1.613   4.563   3.534
11731SOL    HW236968   1.665   4.594   3.673
11732SOL     OW36969   8.363   0.761  14.181
11732SOL    HW136970   8.380   0.772  14.087
11732SOL    HW236971   8.273   0.729  14.185
11733SOL     OW36972   0.424   3.423  13.333
11733SOL    HW136973   0.506   3.400  13.290
11733SOL    HW236974   0.442   3.508  13.374
11734SOL     OW36975   8.793   4.903  12.923
11734SOL    HW136976   8.761   4.871  13.008
11734SOL    HW236977   8.886   4.881  12.924
11735SOL     OW36978   5.947   9.492   2.974
11735SOL    HW136979   5.931   9.583   2.952
11735SOL    HW236980   5.992   9.456   2.898
11736SOL     OW36981   6.546   9.010  13.106
11736SOL    HW136982   6.520   8.936  13.051
11736SOL    HW236983   6.548   8.974  13.194
11737SOL     OW36984   4.199   7.566  13.425
11737SOL    HW136985   4.223   7.477  13.397
11737SOL    HW236986   4.261   7.586  13.495
11738SOL     OW36987   8.951   5.476   5.997
11738SOL    HW136988   8.857   5.493   5.993
11738SOL    HW236989   8.961   5.416   6.070
11739SOL     OW36990   5.373   0.238  12.147
11739SOL    HW136991   5.303   0.200  12.200
11739SOL    HW236992   5.373   0.186  12.067
11740SOL     OW36993  10.371  14.008   4.829
11740SOL    HW136994  10.335  14.049   4.907
11740SOL    HW236995  10.437  13.948   4.862
11741SOL     OW36996  10.166   4.338  10.341
11741SOL    HW136997  10.198   4.349  10.251
11741SOL    HW236998  10.085   4.388  10.343
11742SOL     OW36999   8.063   6.126   1.235
11742SOL    HW137000   7.970   6.123   1.214
11742SOL    HW237001   8.073   6.200   1.294
11743SOL     OW37002   4.253   3.804   1.432
11743SOL    HW137003   4.195   3.785   1.506
11743SOL    HW237004   4.279   3.895   1.444
11744SOL     OW37005   8.952   1.383   1.227
11744SOL    HW137006   8.983   1.468   1.256
11744SOL    HW237007   9.030   1.337   1.195
11745SOL     OW37008   1.162   0.313   4.248
11745SOL    HW137009   1.147   0.237   4.192
11745SOL    HW237010   1.097   0.304   4.318
11746SOL     OW37011  13.486   8.399   0.121
11746SOL    HW137012  13.414   8.452   0.088
11746SOL    HW237013  13.444   8.334   0.177
11747SOL     OW37014   0.139   2.718   3.950
11747SOL    HW137015   0.183   2.643   3.910
11747SOL    HW237016   0.158   2.791   3.892
11748SOL     OW37017   8.397   1.781   6.139
11748SOL    HW137018   8.431   1.795   6.051
11748SOL    HW237019   8.349   1.861   6.160
11749SOL     OW37020   2.049   5.776   9.484
11749SOL    HW137021   2.015   5.698   9.441
11749SOL    HW237022   1.973   5.834   9.493
11750SOL     OW37023   1.814   2.562   9.145
11750SOL    HW137024   1.761   2.634   9.181
11750SOL    HW237025   1.756   2.486   9.148
11751SOL     OW37026  11.412   1.576  14.732
11751SOL    HW137027  11.501   1.613  14.730
11751SOL    HW237028  11.368   1.624  14.801
11752SOL     OW37029   9.859   9.901   0.651
11752SOL    HW137030   9.947   9.929   0.678
11752SOL    HW237031   9.841   9.953   0.573
11753SOL     OW37032   1.523  14.228   6.972
11753SOL    HW137033   1.505  14.138   6.944
11753SOL    HW237034   1.618  14.232   6.978
11754SOL     OW37035   5.423   9.204  11.190
11754SOL    HW137036   5.471   9.259  11.128
11754SOL    HW237037   5.361   9.155  11.135
11755SOL     OW37038   7.946   7.566  12.254
11755SOL    HW137039   7.974   7.619  12.328
11755SOL    HW237040   7.890   7.498  12.293
11756SOL     OW37041  12.412   3.588   0.944
11756SOL    HW137042  12.487   3.535   0.914
11756SOL    HW237043  12.354   3.525   0.986
11757SOL     OW37044   4.407   6.745   7.919
11757SOL    HW137045   4.423   6.838   7.936
11757SOL    HW237046   4.362   6.744   7.834
11758SOL     OW37047   6.870   0.895   6.411
11758SOL    HW137048   6.898   0.874   6.500
11758SOL    HW237049   6.825   0.817   6.381
11759SOL     OW37050   5.567   3.256   1.794
11759SOL    HW137051   5.573   3.229   1.885
11759SOL    HW237052   5.570   3.351   1.796
11760SOL     OW37053  12.886   3.583   5.638
11760SOL    HW137054  12.817   3.525   5.608
11760SOL    HW237055  12.850   3.671   5.627
11761SOL     OW37056  11.352  14.085   9.142
11761SOL    HW137057  11.417  14.098   9.073
11761SOL    HW237058  11.283  14.033   9.101
11762SOL     OW37059   8.833   4.291   0.302
11762SOL    HW137060   8.777   4.329   0.369
11762SOL    HW237061   8.774   4.270   0.230
11763SOL     OW37062   4.394   8.207   4.901
11763SOL    HW137063   4.308   8.225   4.938
11763SOL    HW237064   4.448   8.281   4.928
11764SOL     OW37065   1.921   1.116   4.776
11764SOL    HW137066   1.840   1.066   4.771
11764SOL    HW237067   1.904   1.195   4.725
11765SOL     OW37068   2.301   2.238   4.765
11765SOL    HW137069   2.346   2.270   4.687
11765SOL    HW237070   2.307   2.143   4.759
11766SOL     OW37071  10.691  13.674   5.748
11766SOL    HW137072  10.602  13.702   5.723
11766SOL    HW237073  10.706  13.595   5.698
11767SOL     OW37074   5.730  12.246  13.397
11767SOL    HW137075   5.745  12.154  13.376
11767SOL    HW237076   5.706  12.245  13.490
11768SOL     OW37077  13.327   7.464  11.101
11768SOL    HW137078  13.355   7.500  11.016
11768SOL    HW237079  13.232   7.473  11.100
11769SOL     OW37080  13.206  14.220   1.733
11769SOL    HW137081  13.225  14.184   1.820
11769SOL    HW237082  13.179  14.144   1.681
11770SOL     OW37083   9.409   5.704   8.351
11770SOL    HW137084   9.406   5.798   8.370
11770SOL    HW237085   9.499   5.678   8.372
11771SOL     OW37086  10.899   7.664  10.001
11771SOL    HW137087  10.989   7.633  10.001
11771SOL    HW237088  10.884   7.695  10.090
11772SOL     OW37089  11.844  10.352   6.902
11772SOL    HW137090  11.776  10.333   6.967
11772SOL    HW237091  11.925  10.355   6.952
11773SOL     OW37092   8.305   4.996   0.321
11773SOL    HW137093   8.394   5.026   0.301
11773SOL    HW237094   8.251   5.075   0.314
11774SOL     OW37095  13.413   9.130  13.298
11774SOL    HW137096  13.493   9.081  13.320
11774SOL    HW237097  13.381   9.163  13.382
11775SOL     OW37098  12.380   1.757  12.789
11775SOL    HW137099  12.450   1.773  12.726
11775SOL    HW237100  12.327   1.689  12.749
11776SOL     OW37101   6.648   1.479   3.275
11776SOL    HW137102   6.700   1.406   3.308
11776SOL    HW237103   6.614   1.522   3.353
11777SOL     OW37104   1.038   8.157   7.905
11777SOL    HW137105   0.964   8.097   7.898
11777SOL    HW237106   1.086   8.147   7.823
11778SOL     OW37107   3.588  11.294  12.944
11778SOL    HW137108   3.579  11.237  12.868
11778SOL    HW237109   3.530  11.368  12.925
11779SOL     OW37110   5.373   0.574  10.388
11779SOL    HW137111   5.458   0.617  10.401
11779SOL    HW237112   5.362   0.571  10.293
11780SOL     OW37113   2.007   3.527   6.123
11780SOL    HW137114   1.976   3.530   6.214
11780SOL    HW237115   2.090   3.480   6.126
11781SOL     OW37116   5.106   5.144   9.955
11781SOL    HW137117   5.060   5.124   9.874
11781SOL    HW237118   5.197   5.121   9.937
11782SOL     OW37119  13.109   6.606  14.484
11782SOL    HW137120  13.018   6.609  14.456
11782SOL    HW237121  13.115   6.670  14.555
11783SOL     OW37122   3.699   8.535   2.881
11783SOL    HW137123   3.712   8.445   2.910
11783SOL    HW237124   3.608   8.538   2.850
11784SOL     OW37125   8.764   8.122   0.132
11784SOL    HW137126   8.791   8.070   0.208
11784SOL    HW237127   8.746   8.209   0.167
11785SOL     OW37128  11.190  12.579   5.113
11785SOL    HW137129  11.255  12.640   5.147
11785SOL    HW237130  11.239  12.501   5.091
11786SOL     OW37131   6.249   3.239   6.301
11786SOL    HW137132   6.271   3.289   6.380
11786SOL    HW237133   6.294   3.287   6.230
11787SOL     OW37134  10.608   1.999   0.692
11787SOL    HW137135  10.689   1.998   0.744
11787SOL    HW237136  10.632   1.955   0.610
11788SOL     OW37137   8.113  13.966  14.856
11788SOL    HW137138   8.110  13.916   0.060
11788SOL    HW237139   8.176  13.919  14.802
11789SOL     OW37140   6.909  11.295   5.434
11789SOL    HW137141   6.843  11.254   5.490
11789SOL    HW237142   6.963  11.346   5.494
11790SOL     OW37143  12.071   9.746   1.346
11790SOL    HW137144  12.059   9.652   1.359
11790SOL    HW237145  11.988   9.775   1.308
11791SOL     OW37146   5.383   2.766   0.238
11791SOL    HW137147   5.388   2.718   0.321
11791SOL    HW237148   5.370   2.857   0.264
11792SOL     OW37149   2.332   8.055   0.638
11792SOL    HW137150   2.341   7.973   0.589
11792SOL    HW237151   2.361   8.123   0.577
11793SOL     OW37152   0.091   6.588  14.365
11793SOL    HW137153   0.135   6.517  14.318
11793SOL    HW237154   0.040   6.633  14.298
11794SOL     OW37155   4.159   5.685   6.615
11794SOL    HW137156   4.206   5.740   6.677
11794SOL    HW237157   4.175   5.596   6.644
11795SOL     OW37158   0.296   8.697  11.557
11795SOL    HW137159   0.263   8.614  11.521
11795SOL    HW237160   0.262   8.764  11.498
11796SOL     OW37161   6.934   9.358   2.753
11796SOL    HW137162   6.944   9.438   2.701
11796SOL    HW237163   6.927   9.288   2.689
11797SOL     OW37164   9.919  13.470   5.598
11797SOL    HW137165   9.875  13.496   5.517
11797SOL    HW237166   9.854  13.419   5.645
11798SOL     OW37167  14.346   3.778   5.540
11798SOL    HW137168  14.370   3.697   5.584
11798SOL    HW237169  14.266   3.757   5.492
11799SOL     OW37170   1.927   0.457   6.470
11799SOL    HW137171   1.998   0.515   6.442
11799SOL    HW237172   1.943   0.376   6.423
11800SOL     OW37173   3.027   8.138   0.735
11800SOL    HW137174   2.954   8.100   0.685
11800SOL    HW237175   3.013   8.233   0.729
11801SOL     OW37176   2.490   9.629  12.270
11801SOL    HW137177   2.410   9.578  12.282
11801SOL    HW237178   2.552   9.567  12.232
11802SOL     OW37179  12.500  13.467  13.607
11802SOL    HW137180  12.483  13.448  13.515
11802SOL    HW237181  12.592  13.448  13.619
11803SOL     OW37182  14.395  13.149   3.313
11803SOL    HW137183  14.301  13.153   3.329
11803SOL    HW237184  14.404  13.155   3.218
11804SOL     OW37185  11.123   2.042   4.562
11804SOL    HW137186  11.141   2.133   4.540
11804SOL    HW237187  11.210   2.001   4.567
11805SOL     OW37188   5.835   8.629  12.693
11805SOL    HW137189   5.802   8.707  12.647
11805SOL    HW237190   5.756   8.578  12.712
11806SOL     OW37191   0.874   3.730  10.947
11806SOL    HW137192   0.889   3.661  11.012
11806SOL    HW237193   0.779   3.742  10.946
11807SOL     OW37194   0.861   4.591   4.710
11807SOL    HW137195   0.835   4.543   4.632
11807SOL    HW237196   0.865   4.683   4.682
11808SOL     OW37197   2.420  11.422   2.609
11808SOL    HW137198   2.381  11.470   2.536
11808SOL    HW237199   2.409  11.330   2.587
11809SOL     OW37200  14.759  10.571   5.230
11809SOL    HW137201  14.686  10.607   5.180
11809SOL    HW237202  14.718  10.512   5.293
11810SOL     OW37203  11.419   7.259   5.652
11810SOL    HW137204  11.463   7.235   5.571
11810SOL    HW237205  11.416   7.177   5.702
11811SOL     OW37206   6.601  11.512  10.349
11811SOL    HW137207   6.665  11.570  10.390
11811SOL    HW237208   6.593  11.437  10.408
11812SOL     OW37209   7.675   4.027  13.956
11812SOL    HW137210   7.715   4.107  13.922
11812SOL    HW237211   7.747   3.965  13.964
11813SOL     OW37212   4.904   1.787  10.665
11813SOL    HW137213   4.827   1.837  10.694
11813SOL    HW237214   4.916   1.720  10.733
11814SOL     OW37215  10.599   7.161  10.908
11814SOL    HW137216  10.619   7.079  10.864
11814SOL    HW237217  10.621   7.229  10.844
11815SOL     OW37218  12.727   3.141   9.580
11815SOL    HW137219  12.737   3.073   9.646
11815SOL    HW237220  12.767   3.105   9.501
11816SOL     OW37221  14.660   3.029   4.826
11816SOL    HW137222  14.618   3.045   4.741
11816SOL    HW237223  14.587   3.028   4.888
11817SOL     OW37224   8.551   9.774   6.022
11817SOL    HW137225   8.522   9.696   6.069
11817SOL    HW237226   8.485   9.840   6.043
11818SOL     OW37227   2.458   7.040  10.322
11818SOL    HW137228   2.492   6.967  10.270
11818SOL    HW237229   2.387   7.001  10.374
11819SOL     OW37230   4.000   3.220   3.707
11819SOL    HW137231   3.968   3.195   3.620
11819SOL    HW237232   4.084   3.174   3.716
11820SOL     OW37233  13.690   5.875  11.457
11820SOL    HW137234  13.654   5.840  11.539
11820SOL    HW237235  13.725   5.798  11.412
11821SOL     OW37236   0.039   5.000  11.785
11821SOL    HW137237   0.032   4.936  11.856
11821SOL    HW237238  14.849   4.974  11.722
11822SOL     OW37239   1.696   8.521   5.964
11822SOL    HW137240   1.616   8.569   5.945
11822SOL    HW237241   1.666   8.438   6.002
11823SOL     OW37242   1.655   6.422  10.424
11823SOL    HW137243   1.560   6.422  10.413
11823SOL    HW237244   1.673   6.495  10.483
11824SOL     OW37245   0.386   5.173   3.723
11824SOL    HW137246   0.342   5.146   3.643
11824SOL    HW237247   0.447   5.102   3.743
11825SOL     OW37248   7.983   4.126  11.209
11825SOL    HW137249   7.949   4.041  11.182
11825SOL    HW237250   7.993   4.119  11.304
11826SOL     OW37251   4.106  12.319  10.072
11826SOL    HW137252   4.197  12.342  10.093
11826SOL    HW237253   4.102  12.323   9.977
11827SOL     OW37254   1.188  12.271   8.754
11827SOL    HW137255   1.246  12.261   8.679
11827SOL    HW237256   1.194  12.188   8.801
11828SOL     OW37257  11.949   8.856   0.578
11828SOL    HW137258  11.910   8.860   0.490
11828SOL    HW237259  11.874   8.850   0.637
11829SOL     OW37260   2.834   8.791  13.267
11829SOL    HW137261   2.787   8.708  13.258
11829SOL    HW237262   2.914   8.778  13.216
11830SOL     OW37263   1.603  13.503  11.073
11830SOL    HW137264   1.560  13.564  11.012
11830SOL    HW237265   1.552  13.511  11.154
11831SOL     OW37266   0.026   5.910   1.295
11831SOL    HW137267   0.033   5.993   1.342
11831SOL    HW237268  14.856   5.933   1.214
11832SOL     OW37269   0.677  13.651  11.935
11832SOL    HW137270   0.673  13.705  12.014
11832SOL    HW237271   0.767  13.618  11.933
11833SOL     OW37272  11.854  10.482   2.092
11833SOL    HW137273  11.824  10.451   2.007
11833SOL    HW237274  11.805  10.563   2.107
11834SOL     OW37275   0.316   9.615   8.975
11834SOL    HW137276   0.246   9.604   9.039
11834SOL    HW237277   0.271   9.630   8.892
11835SOL     OW37278   0.092  13.785   4.860
11835SOL    HW137279   0.043  13.863   4.886
11835SOL    HW237280   0.180  13.799   4.897
11836SOL     OW37281   2.078   7.171  10.345
11836SOL    HW137282   2.066   7.263  10.321
11836SOL    HW237283   2.055   7.123  10.266
11837SOL     OW37284   2.470  11.855   2.539
11837SOL    HW137285   2.399  11.917   2.557
11837SOL    HW237286   2.427  11.781   2.496
11838SOL     OW37287  12.085  12.058   0.149
11838SOL    HW137288  12.124  12.077   0.064
11838SOL    HW237289  12.111  12.133   0.204
11839SOL     OW37290  10.923  13.990   8.250
11839SOL    HW137291  10.970  14.067   8.281
11839SOL    HW237292  10.988  13.920   8.250
11840SOL     OW37293   2.437   5.699  12.645
11840SOL    HW137294   2.398   5.783  12.623
11840SOL    HW237295   2.369   5.654  12.695
11841SOL     OW37296   5.204   1.455   7.381
11841SOL    HW137297   5.262   1.382   7.403
11841SOL    HW237298   5.145   1.420   7.314
11842SOL     OW37299   6.781  11.433   1.227
11842SOL    HW137300   6.832  11.394   1.298
11842SOL    HW237301   6.753  11.518   1.261
11843SOL     OW37302  12.507   8.935  10.371
11843SOL    HW137303  12.449   8.961  10.299
11843SOL    HW237304  12.593   8.967  10.344
11844SOL     OW37305   8.125  12.559   0.436
11844SOL    HW137306   8.147  12.642   0.393
11844SOL    HW237307   8.033  12.544   0.413
11845SOL     OW37308   9.501   9.650   3.459
11845SOL    HW137309   9.476   9.717   3.395
11845SOL    HW237310   9.418   9.607   3.482
11846SOL     OW37311   3.021   4.434   9.067
11846SOL    HW137312   2.960   4.492   9.113
11846SOL    HW237313   2.964   4.378   9.015
11847SOL     OW37314   9.758   3.080   7.083
11847SOL    HW137315   9.819   3.126   7.024
11847SOL    HW237316   9.815   3.040   7.149
11848SOL     OW37317   6.319  12.297   2.419
11848SOL    HW137318   6.368  12.370   2.381
11848SOL    HW237319   6.231  12.306   2.381
11849SOL     OW37320   1.382   8.270   9.799
11849SOL    HW137321   1.395   8.189   9.750
11849SOL    HW237322   1.352   8.333   9.734
11850SOL     OW37323   7.857  11.293   5.645
11850SOL    HW137324   7.929  11.283   5.708
11850SOL    HW237325   7.898  11.280   5.560
11851SOL     OW37326   7.353   9.284   3.070
11851SOL    HW137327   7.362   9.338   2.992
11851SOL    HW237328   7.259   9.264   3.075
11852SOL     OW37329  13.454   3.642  12.497
11852SOL    HW137330  13.438   3.712  12.434
11852SOL    HW237331  13.372   3.633  12.546
11853SOL     OW37332   1.215   3.046  14.154
11853SOL    HW137333   1.226   2.951  14.150
11853SOL    HW237334   1.228   3.075  14.064
11854SOL     OW37335   5.097   4.968   4.648
11854SOL    HW137336   5.016   4.976   4.699
11854SOL    HW237337   5.078   4.897   4.586
11855SOL     OW37338   5.977  14.804   3.400
11855SOL    HW137339   6.018  14.755   3.471
11855SOL    HW237340   5.932  14.877   3.443
11856SOL     OW37341   5.391   2.686   9.467
11856SOL    HW137342   5.479   2.649   9.481
11856SOL    HW237343   5.404   2.781   9.470
11857SOL     OW37344   7.826   8.484   0.941
11857SOL    HW137345   7.898   8.423   0.957
11857SOL    HW237346   7.760   8.431   0.894
11858SOL     OW37347  11.744   0.446  10.432
11858SOL    HW137348  11.649   0.441  10.416
11858SOL    HW237349  11.764   0.366  10.481
11859SOL     OW37350   7.713  10.391  14.264
11859SOL    HW137351   7.726  10.372  14.171
11859SOL    HW237352   7.778  10.457  14.284
11860SOL     OW37353   6.342   9.647   0.155
11860SOL    HW137354   6.295   9.725   0.125
11860SOL    HW237355   6.295   9.620   0.233
11861SOL     OW37356  14.273   8.417   7.343
11861SOL    HW137357  14.180   8.408   7.320
11861SOL    HW237358  14.280   8.506   7.376
11862SOL     OW37359  11.760   1.329  11.461
11862SOL    HW137360  11.722   1.390  11.524
11862SOL    HW237361  11.805   1.264  11.516
11863SOL     OW37362   2.965  14.442  11.259
11863SOL    HW137363   3.017  14.457  11.180
11863SOL    HW237364   2.879  14.415  11.228
11864SOL     OW37365   1.754  12.034  11.936
11864SOL    HW137366   1.788  11.946  11.919
11864SOL    HW237367   1.813  12.069  12.003
11865SOL     OW37368  14.721   7.272  14.094
11865SOL    HW137369  14.750   7.227  14.174
11865SOL    HW237370  14.791   7.335  14.077
11866SOL     OW37371  12.678   7.091   3.774
11866SOL    HW137372  12.723   7.047   3.846
11866SOL    HW237373  12.714   7.050   3.695
11867SOL     OW37374  11.267  10.424   9.671
11867SOL    HW137375  11.325  10.386   9.737
11867SOL    HW237376  11.275  10.519   9.683
11868SOL     OW37377   4.672  13.836  12.721
11868SOL    HW137378   4.688  13.846  12.815
11868SOL    HW237379   4.738  13.892  12.680
11869SOL     OW37380   5.917   3.550  13.490
11869SOL    HW137381   6.006   3.583  13.506
11869SOL    HW237382   5.931   3.468  13.443
11870SOL     OW37383   6.645   9.758   2.470
11870SOL    HW137384   6.570   9.816   2.485
11870SOL    HW237385   6.634   9.727   2.380
11871SOL     OW37386  11.705   3.270  11.195
11871SOL    HW137387  11.753   3.253  11.113
11871SOL    HW237388  11.616   3.241  11.177
11872SOL     OW37389   1.513   9.285   8.881
11872SOL    HW137390   1.469   9.266   8.798
11872SOL    HW237391   1.572   9.357   8.860
11873SOL     OW37392   3.951   9.126  10.309
11873SOL    HW137393   4.029   9.138  10.363
11873SOL    HW237394   3.884   9.092  10.369
11874SOL     OW37395  14.556  13.933   3.470
11874SOL    HW137396  14.504  13.962   3.545
11874SOL    HW237397  14.640  13.908   3.507
11875SOL     OW37398   8.001   5.249   5.651
11875SOL    HW137399   8.086   5.293   5.662
11875SOL    HW237400   8.023   5.163   5.614
11876SOL     OW37401   7.664  10.564  12.105
11876SOL    HW137402   7.570  10.580  12.093
11876SOL    HW237403   7.669  10.499  12.174
11877SOL     OW37404   0.266   6.696  14.557
11877SOL    HW137405   0.218   6.667  14.480
11877SOL    HW237406   0.301   6.616  14.595
11878SOL     OW37407   3.499   1.438  14.365
11878SOL    HW137408   3.553   1.450  14.443
11878SOL    HW237409   3.428   1.501  14.375
11879SOL     OW37410   3.806   7.025  13.133
11879SOL    HW137411   3.884   7.080  13.145
11879SOL    HW237412   3.789   7.028  13.039
11880SOL     OW37413   2.421   1.945  12.066
11880SOL    HW137414   2.469   2.024  12.042
11880SOL    HW237415   2.465   1.875  12.018
11881SOL     OW37416   0.513   8.583  10.611
11881SOL    HW137417   0.441   8.521  10.593
11881SOL    HW237418   0.584   8.553  10.555
11882SOL     OW37419  10.795  13.430   8.566
11882SOL    HW137420  10.806  13.519   8.601
11882SOL    HW237421  10.711  13.433   8.519
11883SOL     OW37422   8.121  12.617   1.469
11883SOL    HW137423   8.031  12.646   1.483
11883SOL    HW237424   8.128  12.534   1.517
11884SOL     OW37425  14.594   2.925   7.276
11884SOL    HW137426  14.649   3.004   7.280
11884SOL    HW237427  14.654   2.853   7.296
11885SOL     OW37428  13.211   1.632  14.305
11885SOL    HW137429  13.163   1.713  14.321
11885SOL    HW237430  13.296   1.646  14.348
11886SOL     OW37431   4.673   0.780   7.360
11886SOL    HW137432   4.580   0.759   7.367
11886SOL    HW237433   4.689   0.841   7.432
11887SOL     OW37434  10.517   9.112  14.420
11887SOL    HW137435  10.608   9.139  14.415
11887SOL    HW237436  10.509   9.042  14.354
11888SOL     OW37437  12.571  13.349   8.813
11888SOL    HW137438  12.589  13.255   8.813
11888SOL    HW237439  12.624  13.383   8.885
11889SOL     OW37440   9.208   1.999   0.739
11889SOL    HW137441   9.246   2.086   0.747
11889SOL    HW237442   9.171   1.997   0.651
11890SOL     OW37443   4.319  14.068   5.686
11890SOL    HW137444   4.361  13.984   5.701
11890SOL    HW237445   4.314  14.108   5.773
11891SOL     OW37446   4.817   1.372   3.413
11891SOL    HW137447   4.800   1.293   3.363
11891SOL    HW237448   4.854   1.341   3.495
11892SOL     OW37449   2.463   9.624  14.613
11892SOL    HW137450   2.433   9.574  14.536
11892SOL    HW237451   2.559   9.621  14.607
11893SOL     OW37452   3.425   7.103  13.770
11893SOL    HW137453   3.446   7.175  13.711
11893SOL    HW237454   3.464   7.128  13.853
11894SOL     OW37455  12.821   2.698   2.366
11894SOL    HW137456  12.729   2.722   2.364
11894SOL    HW237457  12.866   2.776   2.397
11895SOL     OW37458   8.463  11.156   0.420
11895SOL    HW137459   8.492  11.074   0.460
11895SOL    HW237460   8.387  11.131   0.366
11896SOL     OW37461   9.328  10.438  14.352
11896SOL    HW137462   9.251  10.424  14.407
11896SOL    HW237463   9.308  10.518  14.303
11897SOL     OW37464  10.228   1.787   2.131
11897SOL    HW137465  10.295   1.726   2.101
11897SOL    HW237466  10.218   1.768   2.224
11898SOL     OW37467   5.471   3.608   1.055
11898SOL    HW137468   5.408   3.680   1.042
11898SOL    HW237469   5.451   3.575   1.143
11899SOL     OW37470  12.470   2.018   5.988
11899SOL    HW137471  12.500   1.927   5.984
11899SOL    HW237472  12.414   2.028   5.911
11900SOL     OW37473  10.051   4.337  13.486
11900SOL    HW137474  10.080   4.360  13.397
11900SOL    HW237475   9.958   4.315  13.476
11901SOL     OW37476   1.479   1.952  13.528
11901SOL    HW137477   1.564   1.996  13.530
11901SOL    HW237478   1.456   1.941  13.621
11902SOL     OW37479  11.803   0.145  12.891
11902SOL    HW137480  11.797   0.075  12.826
11902SOL    HW237481  11.791   0.226  12.842
11903SOL     OW37482  12.857   6.371  12.577
11903SOL    HW137483  12.947   6.377  12.544
11903SOL    HW237484  12.867   6.336  12.666
11904SOL     OW37485   2.070  14.051   2.906
11904SOL    HW137486   2.029  14.037   2.821
11904SOL    HW237487   2.078  14.146   2.914
11905SOL     OW37488  12.166  14.223   4.034
11905SOL    HW137489  12.192  14.238   4.125
11905SOL    HW237490  12.089  14.279   4.021
11906SOL     OW37491   5.256   1.779  11.729
11906SOL    HW137492   5.190   1.819  11.786
11906SOL    HW237493   5.259   1.687  11.756
11907SOL     OW37494   8.698  14.349  13.289
11907SOL    HW137495   8.757  14.281  13.255
11907SOL    HW237496   8.755  14.425  13.303
11908SOL     OW37497  14.552   0.392   0.750
11908SOL    HW137498  14.522   0.351   0.832
11908SOL    HW237499  14.605   0.324   0.708
11909SOL     OW37500  12.142  11.459   6.612
11909SOL    HW137501  12.128  11.505   6.695
11909SOL    HW237502  12.188  11.379   6.637
11910SOL     OW37503  13.420  14.308   0.436
11910SOL    HW137504  13.470  14.229   0.454
11910SOL    HW237505  13.479  14.363   0.385
11911SOL     OW37506   8.538   7.209   0.184
11911SOL    HW137507   8.601   7.200   0.113
11911SOL    HW237508   8.524   7.303   0.192
11912SOL     OW37509   2.237  10.860  14.261
11912SOL    HW137510   2.287  10.784  14.290
11912SOL    HW237511   2.173  10.875  14.330
11913SOL     OW37512   6.252   6.586  13.104
11913SOL    HW137513   6.345   6.601  13.117
11913SOL    HW237514   6.246   6.552  13.015
11914SOL     OW37515   9.366  12.803  11.910
11914SOL    HW137516   9.455  12.792  11.943
11914SOL    HW237517   9.376  12.848  11.826
11915SOL     OW37518   7.667   3.946   0.898
11915SOL    HW137519   7.751   3.984   0.926
11915SOL    HW237520   7.611   4.021   0.881
11916SOL     OW37521   1.542   5.742  11.040
11916SOL    HW137522   1.609   5.748  11.108
11916SOL    HW237523   1.459   5.741  11.087
11917SOL     OW37524   4.036   9.888  12.464
11917SOL    HW137525   4.051   9.795  12.447
11917SOL    HW237526   3.947   9.892  12.499
11918SOL     OW37527   9.551  13.648  14.218
11918SOL    HW137528   9.647  13.649  14.215
11918SOL    HW237529   9.525  13.595  14.143
11919SOL     OW37530   2.076   1.458   7.576
11919SOL    HW137531   2.099   1.535   7.524
11919SOL    HW237532   2.119   1.472   7.661
11920SOL     OW37533  13.446  11.763  14.629
11920SOL    HW137534  13.486  11.790  14.712
11920SOL    HW237535  13.510  11.702  14.591
11921SOL     OW37536  12.941   5.525  11.688
11921SOL    HW137537  13.012   5.509  11.750
11921SOL    HW237538  12.910   5.613  11.709
11922SOL     OW37539  13.021   0.659   6.824
11922SOL    HW137540  13.109   0.685   6.851
11922SOL    HW237541  12.968   0.663   6.904
11923SOL     OW37542   8.961  12.474   4.441
11923SOL    HW137543   9.041  12.522   4.420
11923SOL    HW237544   8.921  12.456   4.356
11924SOL     OW37545  13.254   9.387  13.626
11924SOL    HW137546  13.250   9.438  13.545
11924SOL    HW237547  13.280   9.300  13.598
11925SOL     OW37548   6.060   7.258   1.665
11925SOL    HW137549   6.009   7.274   1.586
11925SOL    HW237550   6.027   7.322   1.728
11926SOL     OW37551   6.992   2.515  14.842
11926SOL    HW137552   6.941   2.512   0.046
11926SOL    HW237553   7.069   2.460  14.860
11927SOL     OW37554   0.251   2.062   3.861
11927SOL    HW137555   0.204   2.015   3.792
11927SOL    HW237556   0.230   2.015   3.941
11928SOL     OW37557  12.175   0.603   0.818
11928SOL    HW137558  12.235   0.667   0.857
11928SOL    HW237559  12.219   0.575   0.738
11929SOL     OW37560   2.239  13.026   9.973
11929SOL    HW137561   2.259  13.115   9.945
11929SOL    HW237562   2.325  12.983   9.978
11930SOL     OW37563   2.453  11.432   4.428
11930SOL    HW137564   2.462  11.480   4.346
11930SOL    HW237565   2.371  11.383   4.419
11931SOL     OW37566   6.195  14.237   4.048
11931SOL    HW137567   6.170  14.154   4.007
11931SOL    HW237568   6.253  14.212   4.120
11932SOL     OW37569   7.162  12.700  10.195
11932SOL    HW137570   7.078  12.679  10.235
11932SOL    HW237571   7.226  12.652  10.247
11933SOL     OW37572   5.310   9.328  14.307
11933SOL    HW137573   5.361   9.387  14.251
11933SOL    HW237574   5.371   9.259  14.331
11934SOL     OW37575   1.267  12.402   6.230
11934SOL    HW137576   1.330  12.406   6.302
11934SOL    HW237577   1.304  12.458   6.162
11935SOL     OW37578  13.238  14.629  13.680
11935SOL    HW137579  13.208  14.558  13.736
11935SOL    HW237580  13.314  14.593  13.634
11936SOL     OW37581  14.254   3.086   3.229
11936SOL    HW137582  14.335   3.038   3.213
11936SOL    HW237583  14.194   3.022   3.265
11937SOL     OW37584  13.621   3.657  11.980
11937SOL    HW137585  13.655   3.726  12.036
11937SOL    HW237586  13.673   3.580  12.002
11938SOL     OW37587   8.818  14.646   4.978
11938SOL    HW137588   8.913  14.649   4.971
11938SOL    HW237589   8.797  14.701   5.053
11939SOL     OW37590  14.178   1.777  11.727
11939SOL    HW137591  14.195   1.693  11.685
11939SOL    HW237592  14.253   1.832  11.703
11940SOL     OW37593  10.002   2.863   6.077
11940SOL    HW137594  10.067   2.932   6.089
11940SOL    HW237595  10.034   2.813   6.002
11941SOL     OW37596   0.316   7.265   7.457
11941SOL    HW137597   0.307   7.210   7.380
11941SOL    HW237598   0.380   7.220   7.512
11942SOL     OW37599   9.416  10.614  13.763
11942SOL    HW137600   9.467  10.536  13.784
11942SOL    HW237601   9.454  10.647  13.682
11943SOL     OW37602  11.789  11.325   6.630
11943SOL    HW137603  11.717  11.262   6.625
11943SOL    HW237604  11.868  11.272   6.619
11944SOL     OW37605   5.091   2.017   6.487
11944SOL    HW137606   5.063   2.072   6.560
11944SOL    HW237607   5.022   2.027   6.422
11945SOL     OW37608  12.327   9.106   7.899
11945SOL    HW137609  12.298   9.062   7.979
11945SOL    HW237610  12.296   9.196   7.909
11946SOL     OW37611  13.110  13.907   2.190
11946SOL    HW137612  13.137  13.903   2.281
11946SOL    HW237613  13.014  13.909   2.193
11947SOL     OW37614   7.294   6.130   5.869
11947SOL    HW137615   7.345   6.075   5.810
11947SOL    HW237616   7.359   6.176   5.921
11948SOL     OW37617   1.198  13.269  14.063
11948SOL    HW137618   1.263  13.211  14.023
11948SOL    HW237619   1.181  13.230  14.149
11949SOL     OW37620  10.533   9.452   4.470
11949SOL    HW137621  10.511   9.359   4.466
11949SOL    HW237622  10.490   9.484   4.549
11950SOL     OW37623   8.520   1.053   7.269
11950SOL    HW137624   8.521   0.971   7.318
11950SOL    HW237625   8.522   1.121   7.336
11951SOL     OW37626  12.065  13.547  13.079
11951SOL    HW137627  12.035  13.551  12.988
11951SOL    HW237628  12.159  13.533  13.073
11952SOL     OW37629   1.246   1.711  10.653
11952SOL    HW137630   1.178   1.648  10.675
11952SOL    HW237631   1.283   1.679  10.571
11953SOL     OW37632   5.141   7.792  14.837
11953SOL    HW137633   5.103   7.878  14.851
11953SOL    HW237634   5.134   7.748   0.044
11954SOL     OW37635   6.239   5.035  11.347
11954SOL    HW137636   6.303   5.043  11.276
11954SOL    HW237637   6.285   5.067  11.424
11955SOL     OW37638   3.743   6.639   5.369
11955SOL    HW137639   3.672   6.688   5.327
11955SOL    HW237640   3.726   6.647   5.463
11956SOL     OW37641   3.658  12.836  14.113
11956SOL    HW137642   3.619  12.831  14.201
11956SOL    HW237643   3.601  12.896  14.065
11957SOL     OW37644   5.038  12.600   6.392
11957SOL    HW137645   5.030  12.513   6.353
11957SOL    HW237646   5.013  12.589   6.483
11958SOL     OW37647  12.628   1.055   5.603
11958SOL    HW137648  12.709   1.061   5.551
11958SOL    HW237649  12.643   1.114   5.677
11959SOL     OW37650   5.003  11.315   7.203
11959SOL    HW137651   5.086  11.356   7.179
11959SOL    HW237652   5.015  11.223   7.179
11960SOL     OW37653   4.264  14.092  12.686
11960SOL    HW137654   4.290  14.167  12.741
11960SOL    HW237655   4.339  14.034  12.689
11961SOL     OW37656   3.230  13.397   9.729
11961SOL    HW137657   3.264  13.324   9.677
11961SOL    HW237658   3.207  13.358   9.813
11962SOL     OW37659   8.983   3.778  12.948
11962SOL    HW137660   8.920   3.829  12.897
11962SOL    HW237661   9.038   3.843  12.990
11963SOL     OW37662   3.326   0.019   9.408
11963SOL    HW137663   3.252  14.861   9.358
11963SOL    HW237664   3.369   0.080   9.348
11964SOL     OW37665   8.278  10.670   4.113
11964SOL    HW137666   8.365  10.635   4.134
11964SOL    HW237667   8.281  10.689   4.019
11965SOL     OW37668   3.548   5.770  10.223
11965SOL    HW137669   3.472   5.719  10.251
11965SOL    HW237670   3.576   5.817  10.301
11966SOL     OW37671  14.205  13.543  14.759
11966SOL    HW137672  14.133  13.526  14.819
11966SOL    HW237673  14.274  13.481  14.786
11967SOL     OW37674  13.600   1.645  11.529
11967SOL    HW137675  13.591   1.741  11.526
11967SOL    HW237676  13.568   1.615  11.445
11968SOL     OW37677   9.618   0.991  10.707
11968SOL    HW137678   9.625   1.031  10.621
11968SOL    HW237679   9.674   0.913  10.702
11969SOL     OW37680   4.965   6.913   3.226
11969SOL    HW137681   5.011   6.841   3.270
11969SOL    HW237682   4.937   6.970   3.297
11970SOL     OW37683   8.014   5.294   8.607
11970SOL    HW137684   8.067   5.230   8.654
11970SOL    HW237685   7.984   5.355   8.674
11971SOL     OW37686   7.172   7.585   1.944
11971SOL    HW137687   7.183   7.680   1.956
11971SOL    HW237688   7.218   7.546   2.018
11972SOL     OW37689   8.812   3.411  12.207
11972SOL    HW137690   8.729   3.456  12.219
11972SOL    HW237691   8.806   3.335  12.265
11973SOL     OW37692  11.843  13.660  13.176
11973SOL    HW137693  11.911  13.599  13.147
11973SOL    HW237694  11.799  13.688  13.095
11974SOL     OW37695  10.672  10.605  13.403
11974SOL    HW137696  10.763  10.627  13.387
11974SOL    HW237697  10.630  10.689  13.425
11975SOL     OW37698   8.710  11.927  10.577
11975SOL    HW137699   8.680  11.986  10.509
11975SOL    HW237700   8.738  11.848  10.530
11976SOL     OW37701   5.005   4.480   7.008
11976SOL    HW137702   5.007   4.570   7.039
11976SOL    HW237703   5.087   4.442   7.040
11977SOL     OW37704   1.657   8.366  12.221
11977SOL    HW137705   1.604   8.394  12.147
11977SOL    HW237706   1.725   8.311  12.182
11978SOL     OW37707   4.267   6.460  10.915
11978SOL    HW137708   4.285   6.532  10.855
11978SOL    HW237709   4.242   6.387  10.859
11979SOL     OW37710   4.587   4.402   8.898
11979SOL    HW137711   4.641   4.348   8.956
11979SOL    HW237712   4.635   4.484   8.890
11980SOL     OW37713   9.568   8.687   6.766
11980SOL    HW137714   9.606   8.622   6.824
11980SOL    HW237715   9.612   8.673   6.682
11981SOL     OW37716  11.581   7.507   1.105
11981SOL    HW137717  11.642   7.518   1.178
11981SOL    HW237718  11.634   7.470   1.035
11982SOL     OW37719  11.458  11.508   0.720
11982SOL    HW137720  11.469  11.553   0.803
11982SOL    HW237721  11.522  11.549   0.662
11983SOL     OW37722   9.314  10.333   1.955
11983SOL    HW137723   9.278  10.388   2.025
11983SOL    HW237724   9.363  10.394   1.899
11984SOL     OW37725   8.730   5.270  12.908
11984SOL    HW137726   8.813   5.314  12.889
11984SOL    HW237727   8.750   5.176  12.903
11985SOL     OW37728  13.228  14.483   0.300
11985SOL    HW137729  13.201  14.572   0.322
11985SOL    HW237730  13.324  14.485   0.304
11986SOL     OW37731   6.216  13.012  11.883
11986SOL    HW137732   6.125  13.010  11.913
11986SOL    HW237733   6.225  12.931  11.831
11987SOL     OW37734  10.359  12.346   4.524
11987SOL    HW137735  10.304  12.424   4.513
11987SOL    HW237736  10.379  12.344   4.618
11988SOL     OW37737   6.340   0.263   8.046
11988SOL    HW137738   6.394   0.341   8.029
11988SOL    HW237739   6.399   0.204   8.094
11989SOL     OW37740  11.829   4.171  13.152
11989SOL    HW137741  11.905   4.134  13.198
11989SOL    HW237742  11.806   4.104  13.087
11990SOL     OW37743   9.249  10.163   9.018
11990SOL    HW137744   9.328  10.206   8.985
11990SOL    HW237745   9.281  10.082   9.058
11991SOL     OW37746  11.458   7.208  11.755
11991SOL    HW137747  11.396   7.140  11.781
11991SOL    HW237748  11.508   7.227  11.835
11992SOL     OW37749   0.232   5.492  14.493
11992SOL    HW137750   0.250   5.457  14.580
11992SOL    HW237751   0.150   5.541  14.504
11993SOL     OW37752   8.896   8.508  13.950
11993SOL    HW137753   8.812   8.497  13.906
11993SOL    HW237754   8.909   8.603  13.952
11994SOL     OW37755   6.863   7.294   5.198
11994SOL    HW137756   6.817   7.210   5.199
11994SOL    HW237757   6.794   7.360   5.202
11995SOL     OW37758   0.903   2.595   5.675
11995SOL    HW137759   0.860   2.598   5.760
11995SOL    HW237760   0.950   2.678   5.668
11996SOL     OW37761   3.184   4.696  11.804
11996SOL    HW137762   3.139   4.615  11.829
11996SOL    HW237763   3.246   4.668  11.736
11997SOL     OW37764   3.281  12.500  14.109
11997SOL    HW137765   3.212  12.565  14.097
11997SOL    HW237766   3.262  12.459  14.194
11998SOL     OW37767   5.650  14.243   7.318
11998SOL    HW137768   5.652  14.257   7.223
11998SOL    HW237769   5.558  14.253   7.341
11999SOL     OW37770   7.358   6.443  11.798
11999SOL    HW137771   7.447   6.464  11.768
11999SOL    HW237772   7.372   6.385  11.873
12000SOL     OW37773   0.258  11.189  12.766
12000SOL    HW137774   0.231  11.275  12.735
12000SOL    HW237775   0.212  11.127  12.709
12001SOL     OW37776  12.703  13.982   6.705
12001SOL    HW137777  12.759  13.909   6.676
12001SOL    HW237778  12.629  13.980   6.644
12002SOL     OW37779   9.703   1.111  14.540
12002SOL    HW137780   9.798   1.097  14.538
12002SOL    HW237781   9.675   1.067  14.621
12003SOL     OW37782  12.926  11.270   5.805
12003SOL    HW137783  12.905  11.211   5.877
12003SOL    HW237784  12.899  11.356   5.836
12004SOL     OW37785   3.125  14.787  12.088
12004SOL    HW137786   3.083  14.857  12.139
12004SOL    HW237787   3.052  14.741  12.046
12005SOL     OW37788  11.393  11.822   3.081
12005SOL    HW137789  11.427  11.861   3.162
12005SOL    HW237790  11.338  11.750   3.110
12006SOL     OW37791  10.897   7.986  10.712
12006SOL    HW137792  10.982   8.007  10.751
12006SOL    HW237793  10.912   7.905  10.664
12007SOL     OW37794  12.077   0.506   5.183
12007SOL    HW137795  12.026   0.436   5.143
12007SOL    HW237796  12.043   0.586   5.143
12008SOL     OW37797   3.889   4.329   1.162
12008SOL    HW137798   3.821   4.370   1.217
12008SOL    HW237799   3.956   4.396   1.153
12009SOL     OW37800   0.015  13.422   0.176
12009SOL    HW137801   0.079  13.356   0.150
12009SOL    HW237802   0.053  13.505   0.147
12010SOL     OW37803   2.981  10.095  13.891
12010SOL    HW137804   3.041  10.128  13.824
12010SOL    HW237805   2.899  10.078  13.843
12011SOL     OW37806   6.711  12.969  13.667
12011SOL    HW137807   6.797  12.944  13.633
12011SOL    HW237808   6.724  13.058  13.701
12012SOL     OW37809   3.133   2.928   7.634
12012SOL    HW137810   3.083   2.884   7.565
12012SOL    HW237811   3.096   2.894   7.716
12013SOL     OW37812   8.647   3.631   8.704
12013SOL    HW137813   8.582   3.699   8.719
12013SOL    HW237814   8.664   3.633   8.610
12014SOL     OW37815  11.704   4.822   6.959
12014SOL    HW137816  11.634   4.858   6.905
12014SOL    HW237817  11.778   4.814   6.899
12015SOL     OW37818  10.292   9.840  14.737
12015SOL    HW137819  10.377   9.880  14.721
12015SOL    HW237820  10.260   9.882  14.817
12016SOL     OW37821  10.745   5.511   8.822
12016SOL    HW137822  10.792   5.472   8.748
12016SOL    HW237823  10.656   5.478   8.815
12017SOL     OW37824  13.193   8.437   8.399
12017SOL    HW137825  13.121   8.462   8.341
12017SOL    HW237826  13.153   8.437   8.487
12018SOL     OW37827  11.451  11.747  14.110
12018SOL    HW137828  11.417  11.718  14.195
12018SOL    HW237829  11.394  11.819  14.085
12019SOL     OW37830   5.114   3.459   8.908
12019SOL    HW137831   5.121   3.503   8.824
12019SOL    HW237832   5.036   3.497   8.949
12020SOL     OW37833  12.323   7.729   2.717
12020SOL    HW137834  12.395   7.676   2.682
12020SOL    HW237835  12.365   7.809   2.747
12021SOL     OW37836   5.621  13.079   5.352
12021SOL    HW137837   5.579  13.127   5.423
12021SOL    HW237838   5.699  13.131   5.332
12022SOL     OW37839   4.673   7.909   3.021
12022SOL    HW137840   4.620   7.988   3.010
12022SOL    HW237841   4.763   7.939   3.008
12023SOL     OW37842   8.647   9.529   8.133
12023SOL    HW137843   8.619   9.445   8.169
12023SOL    HW237844   8.741   9.533   8.151
12024SOL     OW37845   4.101   6.853   6.251
12024SOL    HW137846   4.071   6.877   6.339
12024SOL    HW237847   4.173   6.791   6.267
12025SOL     OW37848   1.218  11.982  12.983
12025SOL    HW137849   1.145  11.984  13.045
12025SOL    HW237850   1.177  11.996  12.898
12026SOL     OW37851   4.426   4.706  13.699
12026SOL    HW137852   4.434   4.799  13.723
12026SOL    HW237853   4.377   4.707  13.618
12027SOL     OW37854  12.801   2.169   4.925
12027SOL    HW137855  12.708   2.157   4.906
12027SOL    HW237856  12.812   2.134   5.013
12028SOL     OW37857   9.945   3.175   3.509
12028SOL    HW137858   9.879   3.236   3.544
12028SOL    HW237859   9.906   3.143   3.427
12029SOL     OW37860   7.754  11.852  12.078
12029SOL    HW137861   7.725  11.929  12.030
12029SOL    HW237862   7.764  11.883  12.169
12030SOL     OW37863   8.549   9.082   4.170
12030SOL    HW137864   8.463   9.047   4.192
12030SOL    HW237865   8.596   9.084   4.253
12031SOL     OW37866   4.740   4.384  10.247
12031SOL    HW137867   4.796   4.452  10.209
12031SOL    HW237868   4.677   4.362  10.179
12032SOL     OW37869   3.803  10.248   1.183
12032SOL    HW137870   3.721  10.240   1.135
12032SOL    HW237871   3.796  10.332   1.229
12033SOL     OW37872  10.454   4.717  13.032
12033SOL    HW137873  10.390   4.786  13.052
12033SOL    HW237874  10.489   4.691  13.117
12034SOL     OW37875   4.859  10.746   3.763
12034SOL    HW137876   4.951  10.770   3.779
12034SOL    HW237877   4.865  10.667   3.709
12035SOL     OW37878   9.596   0.226   0.321
12035SOL    HW137879   9.519   0.204   0.268
12035SOL    HW237880   9.666   0.172   0.284
12036SOL     OW37881   5.461   7.901  13.956
12036SOL    HW137882   5.376   7.937  13.984
12036SOL    HW237883   5.505   7.878  14.038
12037SOL     OW37884   1.803   3.878   1.188
12037SOL    HW137885   1.741   3.926   1.243
12037SOL    HW237886   1.748   3.838   1.120
12038SOL     OW37887  13.833   7.217   5.248
12038SOL    HW137888  13.889   7.191   5.321
12038SOL    HW237889  13.894   7.244   5.179
12039SOL     OW37890  13.664   7.202  11.382
12039SOL    HW137891  13.628   7.221  11.469
12039SOL    HW237892  13.616   7.124  11.352
12040SOL     OW37893  12.239  11.292  14.350
12040SOL    HW137894  12.250  11.200  14.324
12040SOL    HW237895  12.197  11.288  14.436
12041SOL     OW37896  14.413   3.250   4.986
12041SOL    HW137897  14.438   3.315   5.052
12041SOL    HW237898  14.330   3.282   4.951
12042SOL     OW37899   9.556   0.484   5.442
12042SOL    HW137900   9.591   0.482   5.531
12042SOL    HW237901   9.462   0.470   5.454
12043SOL     OW37902   6.878  11.347  14.791
12043SOL    HW137903   6.879  11.286  14.717
12043SOL    HW237904   6.956  11.327  14.841
12044SOL     OW37905  12.087  13.061   2.756
12044SOL    HW137906  12.182  13.073   2.754
12044SOL    HW237907  12.063  13.076   2.847
12045SOL     OW37908   7.548   4.947   4.872
12045SOL    HW137909   7.567   5.028   4.919
12045SOL    HW237910   7.591   4.879   4.923
12046SOL     OW37911  11.886   6.631   9.291
12046SOL    HW137912  11.843   6.638   9.376
12046SOL    HW237913  11.971   6.673   9.305
12047SOL     OW37914  14.380   0.491   6.716
12047SOL    HW137915  14.426   0.424   6.666
12047SOL    HW237916  14.356   0.448   6.798
12048SOL     OW37917   6.735  13.749   5.355
12048SOL    HW137918   6.769  13.679   5.299
12048SOL    HW237919   6.674  13.705   5.415
12049SOL     OW37920   4.221   9.101   8.000
12049SOL    HW137921   4.226   9.028   7.938
12049SOL    HW237922   4.277   9.169   7.961
12050SOL     OW37923   0.618   4.273  13.344
12050SOL    HW137924   0.579   4.188  13.321
12050SOL    HW237925   0.644   4.263  13.436
12051SOL     OW37926   2.097  10.361   8.162
12051SOL    HW137927   2.091  10.421   8.087
12051SOL    HW237928   2.100  10.419   8.238
12052SOL     OW37929   7.758  11.639   2.480
12052SOL    HW137930   7.744  11.658   2.387
12052SOL    HW237931   7.772  11.544   2.483
12053SOL     OW37932  14.664   8.002   5.347
12053SOL    HW137933  14.751   7.999   5.387
12053SOL    HW237934  14.605   7.971   5.416
12054SOL     OW37935   8.081   7.265   1.229
12054SOL    HW137936   8.101   7.181   1.270
12054SOL    HW237937   8.073   7.327   1.301
12055SOL     OW37938  11.937   9.991   1.115
12055SOL    HW137939  11.880   9.925   1.155
12055SOL    HW237940  11.894  10.075   1.135
12056SOL     OW37941  12.252  11.477   4.624
12056SOL    HW137942  12.290  11.565   4.633
12056SOL    HW237943  12.328  11.420   4.611
12057SOL     OW37944   3.015   2.594   9.440
12057SOL    HW137945   2.964   2.523   9.401
12057SOL    HW237946   2.981   2.673   9.399
12058SOL     OW37947   1.782  14.477   7.200
12058SOL    HW137948   1.690  14.495   7.184
12058SOL    HW237949   1.805  14.411   7.135
12059SOL     OW37950  11.587   9.722   2.696
12059SOL    HW137951  11.671   9.754   2.730
12059SOL    HW237952  11.606   9.702   2.604
12060SOL     OW37953   7.077   8.233   5.189
12060SOL    HW137954   7.112   8.207   5.274
12060SOL    HW237955   6.983   8.216   5.195
12061SOL     OW37956   1.072  10.799   9.900
12061SOL    HW137957   1.035  10.711   9.897
12061SOL    HW237958   1.156  10.791   9.855
12062SOL     OW37959  11.166   6.635   2.713
12062SOL    HW137960  11.162   6.565   2.649
12062SOL    HW237961  11.205   6.595   2.791
12063SOL     OW37962   2.090  10.634   7.996
12063SOL    HW137963   2.069  10.710   7.941
12063SOL    HW237964   2.115  10.566   7.934
12064SOL     OW37965  12.032   6.065  14.285
12064SOL    HW137966  12.063   5.977  14.262
12064SOL    HW237967  12.083   6.123  14.229
12065SOL     OW37968   5.172  14.647   0.022
12065SOL    HW137969   5.134  14.666   0.107
12065SOL    HW237970   5.266  14.638   0.038
12066SOL     OW37971   3.749   9.298  12.224
12066SOL    HW137972   3.717   9.363  12.162
12066SOL    HW237973   3.683   9.228  12.222
12067SOL     OW37974  12.688   7.971  14.754
12067SOL    HW137975  12.614   8.030  14.739
12067SOL    HW237976  12.670   7.932  14.839
12068SOL     OW37977   2.483   6.148   3.969
12068SOL    HW137978   2.507   6.241   3.976
12068SOL    HW237979   2.390   6.150   3.945
12069SOL     OW37980   8.305  11.476  14.627
12069SOL    HW137981   8.247  11.494  14.553
12069SOL    HW237982   8.281  11.388  14.656
12070SOL     OW37983   4.727  11.060  13.467
12070SOL    HW137984   4.813  11.050  13.426
12070SOL    HW237985   4.739  11.129  13.532
12071SOL     OW37986   9.448   1.445   6.717
12071SOL    HW137987   9.401   1.370   6.679
12071SOL    HW237988   9.387   1.518   6.707
12072SOL     OW37989   9.290   8.966   0.014
12072SOL    HW137990   9.204   8.982  14.852
12072SOL    HW237991   9.270   8.932   0.102
12073SOL     OW37992   4.756   6.680   3.636
12073SOL    HW137993   4.743   6.746   3.567
12073SOL    HW237994   4.672   6.634   3.640
12074SOL     OW37995   5.829  10.352   0.842
12074SOL    HW137996   5.808  10.259   0.835
12074SOL    HW237997   5.838  10.382   0.751
12075SOL     OW37998  12.947  10.820   0.713
12075SOL    HW137999  12.980  10.852   0.628
12075SOL    HW238000  12.983  10.882   0.777
12076SOL     OW38001  11.440   9.610   2.302
12076SOL    HW138002  11.521   9.636   2.346
12076SOL    HW238003  11.398   9.550   2.363
12077SOL     OW38004   5.697   9.171  14.373
12077SOL    HW138005   5.716   9.265  14.377
12077SOL    HW238006   5.605   9.164  14.397
12078SOL     OW38007   4.789   5.772   5.579
12078SOL    HW138008   4.803   5.826   5.501
12078SOL    HW238009   4.740   5.829   5.639
12079SOL     OW38010   3.170  13.139   5.720
12079SOL    HW138011   3.146  13.227   5.689
12079SOL    HW238012   3.091  13.087   5.706
12080SOL     OW38013   0.622  14.582   8.950
12080SOL    HW138014   0.684  14.625   8.892
12080SOL    HW238015   0.571  14.653   8.988
12081SOL     OW38016   6.748  11.160  13.215
12081SOL    HW138017   6.772  11.112  13.135
12081SOL    HW238018   6.669  11.115  13.246
12082SOL     OW38019  12.694  13.002   5.977
12082SOL    HW138020  12.600  13.019   5.976
12082SOL    HW238021  12.731  13.072   6.032
12083SOL     OW38022   2.742  11.887   9.300
12083SOL    HW138023   2.825  11.853   9.266
12083SOL    HW238024   2.763  11.974   9.333
12084SOL     OW38025  14.426  12.520   9.878
12084SOL    HW138026  14.407  12.575   9.802
12084SOL    HW238027  14.520  12.528   9.891
12085SOL     OW38028  12.998  12.057   7.264
12085SOL    HW138029  12.921  12.019   7.223
12085SOL    HW238030  13.035  11.987   7.317
12086SOL     OW38031  11.136   1.068   8.066
12086SOL    HW138032  11.161   1.009   7.995
12086SOL    HW238033  11.050   1.038   8.093
12087SOL     OW38034   8.004   6.781   3.273
12087SOL    HW138035   8.090   6.745   3.293
12087SOL    HW238036   7.944   6.707   3.278
12088SOL     OW38037   3.452   2.171  13.453
12088SOL    HW138038   3.520   2.107  13.432
12088SOL    HW238039   3.500   2.252  13.472
12089SOL     OW38040   6.987   1.072   0.565
12089SOL    HW138041   6.956   1.102   0.480
12089SOL    HW238042   7.019   0.983   0.550
12090SOL     OW38043   1.047   7.506   7.527
12090SOL    HW138044   1.118   7.442   7.519
12090SOL    HW238045   1.019   7.521   7.437
12091SOL     OW38046   1.613   4.218  12.322
12091SOL    HW138047   1.610   4.125  12.343
12091SOL    HW238048   1.597   4.262  12.405
12092SOL     OW38049  13.177   0.254   8.074
12092SOL    HW138050  13.219   0.174   8.044
12092SOL    HW238051  13.085   0.244   8.051
12093SOL     OW38052   6.736  12.956  14.368
12093SOL    HW138053   6.710  12.979  14.279
12093SOL    HW238054   6.817  12.906  14.357
12094SOL     OW38055   1.594   0.083   0.624
12094SOL    HW138056   1.610   0.081   0.530
12094SOL    HW238057   1.566   0.172   0.642
12095SOL     OW38058   2.174  11.916   7.777
12095SOL    HW138059   2.148  11.824   7.783
12095SOL    HW238060   2.168  11.937   7.684
12096SOL     OW38061   3.125   5.227   7.357
12096SOL    HW138062   3.131   5.322   7.364
12096SOL    HW238063   3.211   5.195   7.384
12097SOL     OW38064   8.856   3.499  10.998
12097SOL    HW138065   8.852   3.414  11.041
12097SOL    HW238066   8.779   3.546  11.031
12098SOL     OW38067  13.786   5.324  14.706
12098SOL    HW138068  13.807   5.246  14.655
12098SOL    HW238069  13.750   5.291  14.788
12099SOL     OW38070  12.747   2.933  10.832
12099SOL    HW138071  12.771   2.950  10.923
12099SOL    HW238072  12.806   2.864  10.804
12100SOL     OW38073   5.668   8.176   9.999
12100SOL    HW138074   5.738   8.234  10.031
12100SOL    HW238075   5.695   8.153   9.911
12101SOL     OW38076  12.065   8.244  11.894
12101SOL    HW138077  11.979   8.224  11.930
12101SOL    HW238078  12.068   8.196  11.811
12102SOL     OW38079  10.364  14.851   0.092
12102SOL    HW138080  10.414  14.849   0.173
12102SOL    HW238081  10.429  14.866   0.024
12103SOL     OW38082   0.748   0.857  14.528
12103SOL    HW138083   0.790   0.943  14.527
12103SOL    HW238084   0.716   0.846  14.617
12104SOL     OW38085   9.968   6.025   4.169
12104SOL    HW138086   9.984   6.094   4.235
12104SOL    HW238087   9.981   5.943   4.217
12105SOL     OW38088  12.250   5.263   7.607
12105SOL    HW138089  12.305   5.338   7.582
12105SOL    HW238090  12.304   5.213   7.668
12106SOL     OW38091  10.467   7.315  13.134
12106SOL    HW138092  10.461   7.369  13.212
12106SOL    HW238093  10.386   7.264  13.134
12107SOL     OW38094   6.661   7.377   7.676
12107SOL    HW138095   6.704   7.333   7.749
12107SOL    HW238096   6.570   7.348   7.680
12108SOL     OW38097   6.545   3.857   3.045
12108SOL    HW138098   6.625   3.825   3.003
12108SOL    HW238099   6.478   3.794   3.022
12109SOL     OW38100   2.635   0.219  13.186
12109SOL    HW138101   2.651   0.135  13.229
12109SOL    HW238102   2.705   0.227  13.121
12110SOL     OW38103   1.056  10.294   5.863
12110SOL    HW138104   0.966  10.268   5.843
12110SOL    HW238105   1.073  10.259   5.951
12111SOL     OW38106   1.318  14.184   9.696
12111SOL    HW138107   1.230  14.147   9.700
12111SOL    HW238108   1.343  14.195   9.788
12112SOL     OW38109   5.380  13.368   9.811
12112SOL    HW138110   5.439  13.439   9.837
12112SOL    HW238111   5.319  13.361   9.885
12113SOL     OW38112   4.418  10.349   3.314
12113SOL    HW138113   4.393  10.304   3.395
12113SOL    HW238114   4.389  10.290   3.244
12114SOL     OW38115  13.110   6.006  10.627
12114SOL    HW138116  13.025   6.027  10.589
12114SOL    HW238117  13.090   5.946  10.699
12115SOL     OW38118   4.397   7.903   6.284
12115SOL    HW138119   4.487   7.931   6.265
12115SOL    HW238120   4.394   7.896   6.379
12116SOL     OW38121   8.706   2.783   4.281
12116SOL    HW138122   8.702   2.724   4.356
12116SOL    HW238123   8.798   2.784   4.256
12117SOL     OW38124  14.707   8.109  10.327
12117SOL    HW138125  14.801   8.119  10.308
12117SOL    HW238126  14.664   8.172  10.270
12118SOL     OW38127   8.095  11.726  11.145
12118SOL    HW138128   8.084  11.694  11.235
12118SOL    HW238129   8.024  11.684  11.096
12119SOL     OW38130  10.255   5.552  12.448
12119SOL    HW138131  10.315   5.487  12.413
12119SOL    HW238132  10.176   5.543  12.395
12120SOL     OW38133   3.935   1.647  12.819
12120SOL    HW138134   4.016   1.646  12.871
12120SOL    HW238135   3.875   1.702  12.869
12121SOL     OW38136   9.234   7.781  10.472
12121SOL    HW138137   9.276   7.786  10.558
12121SOL    HW238138   9.274   7.705  10.430
12122SOL     OW38139   2.761   9.170  10.962
12122SOL    HW138140   2.830   9.214  11.011
12122SOL    HW238141   2.689   9.162  11.025
12123SOL     OW38142   3.732   0.564   4.329
12123SOL    HW138143   3.805   0.556   4.391
12123SOL    HW238144   3.756   0.637   4.273
12124SOL     OW38145   9.827  14.583   5.754
12124SOL    HW138146   9.807  14.528   5.678
12124SOL    HW238147   9.744  14.589   5.801
12125SOL     OW38148   0.244   5.626   4.281
12125SOL    HW138149   0.172   5.600   4.223
12125SOL    HW238150   0.292   5.692   4.232
12126SOL     OW38151  12.843   6.435   2.419
12126SOL    HW138152  12.850   6.454   2.513
12126SOL    HW238153  12.772   6.492   2.389
12127SOL     OW38154  11.283  10.381   1.824
12127SOL    HW138155  11.282  10.447   1.893
12127SOL    HW238156  11.314  10.301   1.868
12128SOL     OW38157  14.724   6.628   1.830
12128SOL    HW138158  14.675   6.708   1.815
12128SOL    HW238159  14.717   6.613   1.924
12129SOL     OW38160  11.751   0.693  12.951
12129SOL    HW138161  11.690   0.651  13.011
12129SOL    HW238162  11.825   0.633  12.945
12130SOL     OW38163   4.360   7.070   2.522
12130SOL    HW138164   4.338   7.157   2.555
12130SOL    HW238165   4.377   7.018   2.600
12131SOL     OW38166  14.254   2.187   3.529
12131SOL    HW138167  14.293   2.123   3.589
12131SOL    HW238168  14.294   2.271   3.556
12132SOL     OW38169   6.909  14.609  13.052
12132SOL    HW138170   6.815  14.590  13.061
12132SOL    HW238171   6.942  14.538  12.997
12133SOL     OW38172   9.612   3.312   7.952
12133SOL    HW138173   9.629   3.305   8.046
12133SOL    HW238174   9.673   3.250   7.912
12134SOL     OW38175   2.749   3.849   3.711
12134SOL    HW138176   2.727   3.912   3.642
12134SOL    HW238177   2.779   3.772   3.663
12135SOL     OW38178  11.139   4.760   8.874
12135SOL    HW138179  11.098   4.780   8.958
12135SOL    HW238180  11.231   4.782   8.886
12136SOL     OW38181   2.942   7.998   7.092
12136SOL    HW138182   2.968   8.018   7.182
12136SOL    HW238183   2.847   7.991   7.096
12137SOL     OW38184   9.138  10.354  13.044
12137SOL    HW138185   9.116  10.447  13.041
12137SOL    HW238186   9.076  10.318  13.108
12138SOL     OW38187  14.295  11.612   5.361
12138SOL    HW138188  14.234  11.600   5.434
12138SOL    HW238189  14.284  11.704   5.336
12139SOL     OW38190   0.737  11.569  13.290
12139SOL    HW138191   0.757  11.485  13.330
12139SOL    HW238192   0.659  11.553  13.238
12140SOL     OW38193  14.007  12.058   3.834
12140SOL    HW138194  13.949  12.089   3.903
12140SOL    HW238195  14.082  12.118   3.837
12141SOL     OW38196  10.322  11.083   1.508
12141SOL    HW138197  10.258  11.019   1.475
12141SOL    HW238198  10.270  11.143   1.561
12142SOL     OW38199  14.050  10.049   6.576
12142SOL    HW138200  14.039  10.075   6.667
12142SOL    HW238201  14.008  10.118   6.525
12143SOL     OW38202   3.863   6.459   1.740
12143SOL    HW138203   3.841   6.552   1.732
12143SOL    HW238204   3.888   6.433   1.651
12144SOL     OW38205   0.151   9.288   6.117
12144SOL    HW138206   0.113   9.212   6.161
12144SOL    HW238207   0.178   9.254   6.031
12145SOL     OW38208   5.955   2.397  10.681
12145SOL    HW138209   5.960   2.381  10.587
12145SOL    HW238210   5.962   2.311  10.721
12146SOL     OW38211   1.619   9.731  13.750
12146SOL    HW138212   1.699   9.715  13.700
12146SOL    HW238213   1.611   9.653  13.806
12147SOL     OW38214   7.530   4.834  14.459
12147SOL    HW138215   7.527   4.794  14.372
12147SOL    HW238216   7.528   4.760  14.520
12148SOL     OW38217  14.362  10.181   7.501
12148SOL    HW138218  14.302  10.215   7.435
12148SOL    HW238219  14.445  10.169   7.455
12149SOL     OW38220  12.255  14.176   0.687
12149SOL    HW138221  12.302  14.114   0.743
12149SOL    HW238222  12.241  14.130   0.605
12150SOL     OW38223  12.296  11.538  10.342
12150SOL    HW138224  12.382  11.577  10.325
12150SOL    HW238225  12.316  11.447  10.366
12151SOL     OW38226   6.708   6.709  10.882
12151SOL    HW138227   6.741   6.775  10.944
12151SOL    HW238228   6.635   6.752  10.838
12152SOL     OW38229  12.246   6.895   0.391
12152SOL    HW138230  12.224   6.812   0.349
12152SOL    HW238231  12.241   6.876   0.485
12153SOL     OW38232   1.374  12.350   9.571
12153SOL    HW138233   1.415  12.434   9.594
12153SOL    HW238234   1.306  12.374   9.508
12154SOL     OW38235   1.648   3.821   4.942
12154SOL    HW138236   1.688   3.744   4.982
12154SOL    HW238237   1.604   3.787   4.864
12155SOL     OW38238   6.176  10.798  11.052
12155SOL    HW138239   6.216  10.711  11.056
12155SOL    HW238240   6.199  10.832  10.966
12156SOL     OW38241  10.298   1.507   6.827
12156SOL    HW138242  10.385   1.473   6.845
12156SOL    HW238243  10.277   1.563   6.902
12157SOL     OW38244  12.370   9.911  10.517
12157SOL    HW138245  12.365   9.906  10.613
12157SOL    HW238246  12.352   9.821  10.488
12158SOL     OW38247   8.615  12.040  11.843
12158SOL    HW138248   8.668  12.066  11.918
12158SOL    HW238249   8.577  12.122  11.811
12159SOL     OW38250   1.810   3.975   6.742
12159SOL    HW138251   1.873   3.915   6.781
12159SOL    HW238252   1.754   4.002   6.815
12160SOL     OW38253  11.540  10.380   8.006
12160SOL    HW138254  11.465  10.368   7.947
12160SOL    HW238255  11.552  10.475   8.009
12161SOL     OW38256   1.412   9.384  12.433
12161SOL    HW138257   1.341   9.320  12.430
12161SOL    HW238258   1.461   9.368  12.352
12162SOL     OW38259  13.760   1.491   5.058
12162SOL    HW138260  13.700   1.439   5.004
12162SOL    HW238261  13.790   1.561   5.000
12163SOL     OW38262   9.942   6.513   6.953
12163SOL    HW138263   9.935   6.454   7.028
12163SOL    HW238264   9.851   6.523   6.922
12164SOL     OW38265  14.839  12.078   5.121
12164SOL    HW138266   0.056  12.088   5.125
12164SOL    HW238267  14.816  12.029   5.200
12165SOL     OW38268   4.747  11.044  11.998
12165SOL    HW138269   4.733  11.130  11.958
12165SOL    HW238270   4.829  11.054  12.047
12166SOL     OW38271  11.102   5.694  13.137
12166SOL    HW138272  11.152   5.758  13.186
12166SOL    HW238273  11.014   5.732  13.130
12167SOL     OW38274   4.530  14.723   4.869
12167SOL    HW138275   4.581  14.645   4.888
12167SOL    HW238276   4.590  14.796   4.886
12168SOL     OW38277   8.346   7.635  13.416
12168SOL    HW138278   8.392   7.621  13.499
12168SOL    HW238279   8.404   7.599  13.350
12169SOL     OW38280  13.262  14.622   3.181
12169SOL    HW138281  13.225  14.586   3.100
12169SOL    HW238282  13.200  14.595   3.249
12170SOL     OW38283  12.599   6.666  10.053
12170SOL    HW138284  12.555   6.745  10.085
12170SOL    HW238285  12.692   6.685  10.064
12171SOL     OW38286  11.809  13.676   0.068
12171SOL    HW138287  11.731  13.674   0.012
12171SOL    HW238288  11.806  13.762   0.110
12172SOL     OW38289  14.192   6.148  14.227
12172SOL    HW138290  14.202   6.102  14.144
12172SOL    HW238291  14.176   6.239  14.202
12173SOL     OW38292   0.356  11.092  12.288
12173SOL    HW138293   0.309  11.172  12.314
12173SOL    HW238294   0.288  11.025  12.282
12174SOL     OW38295   2.382   5.214   9.292
12174SOL    HW138296   2.392   5.268   9.370
12174SOL    HW238297   2.440   5.254   9.228
12175SOL     OW38298   7.166   5.555   6.232
12175SOL    HW138299   7.257   5.573   6.255
12175SOL    HW238300   7.150   5.466   6.263
12176SOL     OW38301   6.581   7.146   8.191
12176SOL    HW138302   6.657   7.088   8.192
12176SOL    HW238303   6.597   7.205   8.117
12177SOL     OW38304   3.335   7.493   8.400
12177SOL    HW138305   3.407   7.541   8.359
12177SOL    HW238306   3.372   7.458   8.481
12178SOL     OW38307  10.469   1.910   6.029
12178SOL    HW138308  10.504   1.830   5.990
12178SOL    HW238309  10.450   1.967   5.954
12179SOL     OW38310  11.115   0.152   1.407
12179SOL    HW138311  11.021   0.137   1.403
12179SOL    HW238312  11.124   0.247   1.396
12180SOL     OW38313  12.545   7.145   5.649
12180SOL    HW138314  12.458   7.124   5.684
12180SOL    HW238315  12.597   7.067   5.665
12181SOL     OW38316   8.893  10.161   9.292
12181SOL    HW138317   8.858  10.186   9.378
12181SOL    HW238318   8.856  10.074   9.276
12182SOL     OW38319  10.232   1.819  12.957
12182SOL    HW138320  10.255   1.908  12.983
12182SOL    HW238321  10.207   1.776  13.039
12183SOL     OW38322   5.799  10.753   5.732
12183SOL    HW138323   5.876  10.795   5.696
12183SOL    HW238324   5.831  10.704   5.808
12184SOL     OW38325  14.737   1.022   5.216
12184SOL    HW138326  14.666   0.970   5.253
12184SOL    HW238327  14.773   1.071   5.290
12185SOL     OW38328   8.568   5.198   8.096
12185SOL    HW138329   8.638   5.247   8.052
12185SOL    HW238330   8.572   5.111   8.055
12186SOL     OW38331  11.279  13.325   2.290
12186SOL    HW138332  11.308  13.340   2.380
12186SOL    HW238333  11.335  13.255   2.258
12187SOL     OW38334   6.341   4.488   3.096
12187SOL    HW138335   6.276   4.539   3.146
12187SOL    HW238336   6.303   4.401   3.090
12188SOL     OW38337   7.493   9.331   5.012
12188SOL    HW138338   7.509   9.425   5.008
12188SOL    HW238339   7.397   9.324   5.018
12189SOL     OW38340   9.340   9.980   9.188
12189SOL    HW138341   9.390  10.025   9.257
12189SOL    HW238342   9.399   9.911   9.158
12190SOL     OW38343  13.973   9.022   0.736
12190SOL    HW138344  13.998   9.070   0.657
12190SOL    HW238345  13.950   9.091   0.798
12191SOL     OW38346  13.409   1.956   9.940
12191SOL    HW138347  13.363   1.912   9.868
12191SOL    HW238348  13.498   1.921   9.936
12192SOL     OW38349  14.293   3.159   6.238
12192SOL    HW138350  14.386   3.135   6.235
12192SOL    HW238351  14.247   3.077   6.223
12193SOL     OW38352  14.400   5.126   7.323
12193SOL    HW138353  14.393   5.030   7.320
12193SOL    HW238354  14.343   5.156   7.252
12194SOL     OW38355   4.346   0.389   4.789
12194SOL    HW138356   4.301   0.443   4.853
12194SOL    HW238357   4.438   0.417   4.794
12195SOL     OW38358   3.746   2.999   3.036
12195SOL    HW138359   3.734   3.091   3.014
12195SOL    HW238360   3.736   2.996   3.132
12196SOL     OW38361  11.802   1.423   9.101
12196SOL    HW138362  11.724   1.426   9.045
12196SOL    HW238363  11.848   1.343   9.074
12197SOL     OW38364  14.235  11.211   7.097
12197SOL    HW138365  14.266  11.227   7.008
12197SOL    HW238366  14.314  11.203   7.150
12198SOL     OW38367   9.130  10.430   1.399
12198SOL    HW138368   9.086  10.474   1.326
12198SOL    HW238369   9.065  10.432   1.470
12199SOL     OW38370  11.009  13.781   7.360
12199SOL    HW138371  11.084  13.802   7.415
12199SOL    HW238372  10.959  13.862   7.355
12200SOL     OW38373   6.827   8.345   7.658
12200SOL    HW138374   6.840   8.400   7.581
12200SOL    HW238375   6.862   8.259   7.633
12201SOL     OW38376   6.845   8.235   5.779
12201SOL    HW138377   6.937   8.220   5.756
12201SOL    HW238378   6.849   8.273   5.867
12202SOL     OW38379   6.958   3.715   3.076
12202SOL    HW138380   6.978   3.637   3.025
12202SOL    HW238381   6.889   3.687   3.136
12203SOL     OW38382  11.873  10.051   1.488
12203SOL    HW138383  11.793  10.057   1.435
12203SOL    HW238384  11.883   9.958   1.506
12204SOL     OW38385   3.528  10.536  10.723
12204SOL    HW138386   3.474  10.495  10.655
12204SOL    HW238387   3.570  10.609  10.678
12205SOL     OW38388   6.569   8.787  11.861
12205SOL    HW138389   6.635   8.793  11.792
12205SOL    HW238390   6.562   8.876  11.895
12206SOL     OW38391  13.043   1.717  14.562
12206SOL    HW138392  13.128   1.674  14.568
12206SOL    HW238393  13.062   1.805  14.531
12207SOL     OW38394   6.733   0.903   0.397
12207SOL    HW138395   6.664   0.968   0.381
12207SOL    HW238396   6.815   0.951   0.381
12208SOL     OW38397   0.648   5.948  12.205
12208SOL    HW138398   0.603   6.030  12.186
12208SOL    HW238399   0.622   5.889  12.135
12209SOL     OW38400   7.438   8.080   7.851
12209SOL    HW138401   7.478   8.110   7.769
12209SOL    HW238402   7.498   8.012   7.883
12210SOL     OW38403  13.762   9.340   8.189
12210SOL    HW138404  13.774   9.300   8.103
12210SOL    HW238405  13.851   9.346   8.225
12211SOL     OW38406  14.120   8.970   0.983
12211SOL    HW138407  14.074   8.997   0.904
12211SOL    HW238408  14.201   8.929   0.952
12212SOL     OW38409   0.806   8.744   8.648
12212SOL    HW138410   0.872   8.719   8.713
12212SOL    HW238411   0.809   8.840   8.647
12213SOL     OW38412  10.452   2.880   2.256
12213SOL    HW138413  10.498   2.885   2.340
12213SOL    HW238414  10.488   2.803   2.213
12214SOL     OW38415   7.802  11.358   7.020
12214SOL    HW138416   7.742  11.336   7.091
12214SOL    HW238417   7.858  11.281   7.011
12215SOL     OW38418   7.860   9.423   0.096
12215SOL    HW138419   7.886   9.331   0.103
12215SOL    HW238420   7.819   9.444   0.180
12216SOL     OW38421   0.935   4.317  10.374
12216SOL    HW138422   0.969   4.404  10.354
12216SOL    HW238423   0.980   4.259  10.312
12217SOL     OW38424  14.254   5.910  12.085
12217SOL    HW138425  14.329   5.938  12.137
12217SOL    HW238426  14.202   5.989  12.073
12218SOL     OW38427   8.234  11.542  11.950
12218SOL    HW138428   8.301  11.601  11.917
12218SOL    HW238429   8.158  11.598  11.966
12219SOL     OW38430   4.765   3.052  10.991
12219SOL    HW138431   4.715   3.014  11.063
12219SOL    HW238432   4.699   3.090  10.933
12220SOL     OW38433  10.027   7.473   6.628
12220SOL    HW138434  10.078   7.396   6.654
12220SOL    HW238435   9.943   7.463   6.673
12221SOL     OW38436   4.217  11.852  11.677
12221SOL    HW138437   4.152  11.894  11.734
12221SOL    HW238438   4.210  11.901  11.595
12222SOL     OW38439   4.951   3.715  13.562
12222SOL    HW138440   5.028   3.684  13.610
12222SOL    HW238441   4.942   3.655  13.489
12223SOL     OW38442   9.949  14.287   5.306
12223SOL    HW138443   9.990  14.210   5.266
12223SOL    HW238444  10.000  14.361   5.274
12224SOL     OW38445   3.144   5.630   8.423
12224SOL    HW138446   3.076   5.564   8.425
12224SOL    HW238447   3.226   5.580   8.422
12225SOL     OW38448   2.886   1.584   9.065
12225SOL    HW138449   2.837   1.628   9.134
12225SOL    HW238450   2.821   1.526   9.023
12226SOL     OW38451   5.380   4.590   4.449
12226SOL    HW138452   5.300   4.571   4.497
12226SOL    HW238453   5.351   4.624   4.365
12227SOL     OW38454   2.912  10.786  10.765
12227SOL    HW138455   2.925  10.784  10.670
12227SOL    HW238456   2.942  10.874  10.791
12228SOL     OW38457  10.262   4.378   1.060
12228SOL    HW138458  10.344   4.331   1.072
12228SOL    HW238459  10.266   4.411   0.970
12229SOL     OW38460   8.853   0.150   6.503
12229SOL    HW138461   8.854   0.226   6.445
12229SOL    HW238462   8.900   0.083   6.455
12230SOL     OW38463   8.366  11.648  12.459
12230SOL    HW138464   8.270  11.653  12.460
12230SOL    HW238465   8.388  11.630  12.368
12231SOL     OW38466  10.807   0.292  14.407
12231SOL    HW138467  10.783   0.383  14.422
12231SOL    HW238468  10.793   0.250  14.492
12232SOL     OW38469   1.215  11.722  10.303
12232SOL    HW138470   1.180  11.729  10.214
12232SOL    HW238471   1.151  11.668  10.350
12233SOL     OW38472   3.689   2.228  10.172
12233SOL    HW138473   3.729   2.271  10.096
12233SOL    HW238474   3.642   2.298  10.217
12234SOL     OW38475   5.901  14.558   9.250
12234SOL    HW138476   5.918  14.483   9.192
12234SOL    HW238477   5.849  14.521   9.321
12235SOL     OW38478   0.198  11.324   4.359
12235SOL    HW138479   0.292  11.323   4.341
12235SOL    HW238480   0.179  11.235   4.390
12236SOL     OW38481   5.118   7.763  11.580
12236SOL    HW138482   5.056   7.697  11.610
12236SOL    HW238483   5.193   7.713  11.548
12237SOL     OW38484   1.431   5.971   7.350
12237SOL    HW138485   1.502   6.035   7.350
12237SOL    HW238486   1.353   6.022   7.328
12238SOL     OW38487   3.880  11.595   0.659
12238SOL    HW138488   3.856  11.508   0.691
12238SOL    HW238489   3.801  11.647   0.671
12239SOL     OW38490   6.276  12.536   3.864
12239SOL    HW138491   6.368  12.541   3.841
12239SOL    HW238492   6.257  12.618   3.909
12240SOL     OW38493  11.938   2.994   5.140
12240SOL    HW138494  11.915   2.904   5.115
12240SOL    HW238495  11.894   3.008   5.223
12241SOL     OW38496   1.971   5.744  13.086
12241SOL    HW138497   1.964   5.832  13.123
12241SOL    HW238498   1.890   5.733  13.036
12242SOL     OW38499   2.891   4.585   0.333
12242SOL    HW138500   2.915   4.547   0.249
12242SOL    HW238501   2.973   4.590   0.382
12243SOL     OW38502   3.791  13.804   7.847
12243SOL    HW138503   3.732  13.773   7.778
12243SOL    HW238504   3.820  13.890   7.818
12244SOL     OW38505   6.071   7.460   4.643
12244SOL    HW138506   6.087   7.366   4.647
12244SOL    HW238507   6.145   7.499   4.690
12245SOL     OW38508  14.329   1.510  13.493
12245SOL    HW138509  14.267   1.537  13.426
12245SOL    HW238510  14.346   1.590  13.543
12246SOL     OW38511  10.609  12.898   4.403
12246SOL    HW138512  10.664  12.824   4.428
12246SOL    HW238513  10.658  12.942   4.334
12247SOL     OW38514   3.452   4.318  13.974
12247SOL    HW138515   3.459   4.348  13.883
12247SOL    HW238516   3.526   4.359  14.018
12248SOL     OW38517  12.431   8.353   2.347
12248SOL    HW138518  12.514   8.388   2.316
12248SOL    HW238519  12.449   8.262   2.369
12249SOL     OW38520   7.684   5.165  13.156
12249SOL    HW138521   7.725   5.143  13.073
12249SOL    HW238522   7.602   5.208  13.133
12250SOL     OW38523  10.220   3.288   1.307
12250SOL    HW138524  10.302   3.271   1.354
12250SOL    HW238525  10.151   3.267   1.369
12251SOL     OW38526   8.968   0.605   9.160
12251SOL    HW138527   9.023   0.526   9.168
12251SOL    HW238528   8.887   0.581   9.205
12252SOL     OW38529   6.899  12.840  11.011
12252SOL    HW138530   6.906  12.927  10.972
12252SOL    HW238531   6.870  12.784  10.939
12253SOL     OW38532   2.073   2.971   6.939
12253SOL    HW138533   1.997   3.015   6.901
12253SOL    HW238534   2.125   2.943   6.863
12254SOL     OW38535   1.986   0.710   9.783
12254SOL    HW138536   2.010   0.798   9.811
12254SOL    HW238537   2.008   0.707   9.690
12255SOL     OW38538   5.940  10.260   8.065
12255SOL    HW138539   5.929  10.316   7.988
12255SOL    HW238540   5.862  10.274   8.117
12256SOL     OW38541   9.586   8.696  11.110
12256SOL    HW138542   9.634   8.660  11.184
12256SOL    HW238543   9.654   8.718  11.046
12257SOL     OW38544   6.083   7.561   8.356
12257SOL    HW138545   6.086   7.545   8.262
12257SOL    HW238546   5.990   7.557   8.378
12258SOL     OW38547   7.176  10.440   5.123
12258SOL    HW138548   7.196  10.444   5.029
12258SOL    HW238549   7.122  10.362   5.133
12259SOL     OW38550   4.704   3.534   9.371
12259SOL    HW138551   4.684   3.477   9.297
12259SOL    HW238552   4.697   3.623   9.335
12260SOL     OW38553   8.145   8.221   0.465
12260SOL    HW138554   8.150   8.224   0.370
12260SOL    HW238555   8.104   8.136   0.485
12261SOL     OW38556   4.805   5.115   5.764
12261SOL    HW138557   4.718   5.141   5.735
12261SOL    HW238558   4.814   5.152   5.852
12262SOL     OW38559   7.538   2.758   0.853
12262SOL    HW138560   7.518   2.817   0.926
12262SOL    HW238561   7.515   2.671   0.886
12263SOL     OW38562   8.435   1.032   4.722
12263SOL    HW138563   8.485   0.951   4.715
12263SOL    HW238564   8.412   1.055   4.632
12264SOL     OW38565   7.389   1.555   9.515
12264SOL    HW138566   7.407   1.546   9.608
12264SOL    HW238567   7.433   1.637   9.490
12265SOL     OW38568   4.261  13.300   0.310
12265SOL    HW138569   4.258  13.358   0.386
12265SOL    HW238570   4.354  13.281   0.299
12266SOL     OW38571  13.418   8.222   6.453
12266SOL    HW138572  13.465   8.158   6.506
12266SOL    HW238573  13.484   8.286   6.428
12267SOL     OW38574   5.892   9.904  14.262
12267SOL    HW138575   5.954   9.914  14.189
12267SOL    HW238576   5.809   9.880  14.220
12268SOL     OW38577  11.276   9.642   1.610
12268SOL    HW138578  11.226   9.625   1.531
12268SOL    HW238579  11.284   9.557   1.653
12269SOL     OW38580   5.772   1.883  11.114
12269SOL    HW138581   5.706   1.941  11.152
12269SOL    HW238582   5.739   1.863  11.027
12270SOL     OW38583  13.848   1.449   7.253
12270SOL    HW138584  13.774   1.409   7.299
12270SOL    HW238585  13.824   1.541   7.245
12271SOL     OW38586  11.259  12.533   3.431
12271SOL    HW138587  11.262  12.440   3.412
12271SOL    HW238588  11.166  12.556   3.422
12272SOL     OW38589   7.975   0.622  10.564
12272SOL    HW138590   7.888   0.662  10.568
12272SOL    HW238591   8.016   0.663  10.487
12273SOL     OW38592   1.510   6.406   9.154
12273SOL    HW138593   1.514   6.501   9.143
12273SOL    HW238594   1.498   6.394   9.248
12274SOL     OW38595   2.220   3.244  10.276
12274SOL    HW138596   2.243   3.155  10.247
12274SOL    HW238597   2.300   3.294  10.265
12275SOL     OW38598   8.465  11.790  10.372
12275SOL    HW138599   8.390  11.835  10.410
12275SOL    HW238600   8.456  11.699  10.401
12276SOL     OW38601  10.379  13.577   4.416
12276SOL    HW138602  10.325  13.655   4.408
12276SOL    HW238603  10.406  13.556   4.327
12277SOL     OW38604  10.844   0.485   6.719
12277SOL    HW138605  10.873   0.400   6.751
12277SOL    HW238606  10.800   0.466   6.636
12278SOL     OW38607   9.722  11.817  12.809
12278SOL    HW138608   9.801  11.815  12.755
12278SOL    HW238609   9.717  11.731  12.849
12279SOL     OW38610  10.547  13.210  11.573
12279SOL    HW138611  10.630  13.167  11.553
12279SOL    HW238612  10.573  13.293  11.614
12280SOL     OW38613   1.724   6.382  13.285
12280SOL    HW138614   1.775   6.421  13.355
12280SOL    HW238615   1.635   6.417  13.297
12281SOL     OW38616   9.348   3.565   1.136
12281SOL    HW138617   9.332   3.471   1.125
12281SOL    HW238618   9.337   3.580   1.230
12282SOL     OW38619  14.432  11.479  13.751
12282SOL    HW138620  14.394  11.561  13.719
12282SOL    HW238621  14.386  11.461  13.833
12283SOL     OW38622  10.225   1.418  10.521
12283SOL    HW138623  10.295   1.352  10.528
12283SOL    HW238624  10.187   1.422  10.608
12284SOL     OW38625   1.944   2.242   9.880
12284SOL    HW138626   1.887   2.203   9.946
12284SOL    HW238627   2.008   2.293   9.931
12285SOL     OW38628  10.412  12.809  12.880
12285SOL    HW138629  10.403  12.840  12.790
12285SOL    HW238630  10.323  12.793  12.909
12286SOL     OW38631  11.787   9.659  14.724
12286SOL    HW138632  11.714   9.663  14.786
12286SOL    HW238633  11.747   9.679  14.639
12287SOL     OW38634   2.240  10.549   4.980
12287SOL    HW138635   2.277  10.560   4.892
12287SOL    HW238636   2.209  10.636   5.004
12288SOL     OW38637  12.437   4.406   7.014
12288SOL    HW138638  12.401   4.354   7.086
12288SOL    HW238639  12.438   4.346   6.940
12289SOL     OW38640  11.916   8.429   1.195
12289SOL    HW138641  11.927   8.406   1.102
12289SOL    HW238642  11.870   8.355   1.233
12290SOL     OW38643  11.871  11.037   1.392
12290SOL    HW138644  11.793  10.987   1.416
12290SOL    HW238645  11.837  11.122   1.364
12291SOL     OW38646   8.342   5.461   0.658
12291SOL    HW138647   8.259   5.416   0.642
12291SOL    HW238648   8.320   5.530   0.720
12292SOL     OW38649   8.661   5.481  14.430
12292SOL    HW138650   8.680   5.486  14.524
12292SOL    HW238651   8.582   5.427  14.425
12293SOL     OW38652  13.825   3.535  13.309
12293SOL    HW138653  13.753   3.594  13.284
12293SOL    HW238654  13.811   3.518  13.402
12294SOL     OW38655   5.155   9.927  11.659
12294SOL    HW138656   5.224   9.917  11.593
12294SOL    HW238657   5.188   9.881  11.736
12295SOL     OW38658  12.484   4.208   8.501
12295SOL    HW138659  12.395   4.173   8.506
12295SOL    HW238660  12.540   4.130   8.502
12296SOL     OW38661   7.194   3.080   4.020
12296SOL    HW138662   7.249   3.154   3.996
12296SOL    HW238663   7.249   3.027   4.078
12297SOL     OW38664   8.135   0.699  14.371
12297SOL    HW138665   8.124   0.790  14.401
12297SOL    HW238666   8.078   0.693  14.294
12298SOL     OW38667   4.823  11.200  11.587
12298SOL    HW138668   4.759  11.267  11.612
12298SOL    HW238669   4.783  11.117  11.613
12299SOL     OW38670   7.926   5.507   8.329
12299SOL    HW138671   7.923   5.539   8.419
12299SOL    HW238672   8.019   5.511   8.305
12300SOL     OW38673   6.290   2.485   5.029
12300SOL    HW138674   6.225   2.551   5.053
12300SOL    HW238675   6.260   2.452   4.945
12301SOL     OW38676   0.506  14.182   0.799
12301SOL    HW138677   0.595  14.163   0.826
12301SOL    HW238678   0.453  14.112   0.838
12302SOL     OW38679   3.538  14.755   5.374
12302SOL    HW138680   3.577  14.696   5.439
12302SOL    HW238681   3.555  14.712   5.290
12303SOL     OW38682   5.291   2.070  11.153
12303SOL    HW138683   5.245   2.033  11.229
12303SOL    HW238684   5.250   2.154  11.138
12304SOL     OW38685   3.852   0.004   8.999
12304SOL    HW138686   3.930   0.025   9.050
12304SOL    HW238687   3.817   0.089   8.973
12305SOL     OW38688   2.552   2.928   8.766
12305SOL    HW138689   2.525   2.996   8.703
12305SOL    HW238690   2.473   2.909   8.816
12306SOL     OW38691   9.008  12.087   8.314
12306SOL    HW138692   8.975  12.125   8.232
12306SOL    HW238693   9.029  11.997   8.291
12307SOL     OW38694   6.886   2.364   1.914
12307SOL    HW138695   6.827   2.292   1.892
12307SOL    HW238696   6.862   2.389   2.003
12308SOL     OW38697   3.090   9.710   5.938
12308SOL    HW138698   3.172   9.749   5.908
12308SOL    HW238699   3.090   9.726   6.032
12309SOL     OW38700   4.730  12.286   3.291
12309SOL    HW138701   4.652  12.245   3.328
12309SOL    HW238702   4.697  12.338   3.218
12310SOL     OW38703  13.499   4.050   5.915
12310SOL    HW138704  13.478   4.071   5.824
12310SOL    HW238705  13.551   3.970   5.910
12311SOL     OW38706   0.281   4.831   6.756
12311SOL    HW138707   0.192   4.802   6.775
12311SOL    HW238708   0.276   4.865   6.666
12312SOL     OW38709   0.051   5.901   1.807
12312SOL    HW138710   0.078   5.990   1.830
12312SOL    HW238711   0.017   5.865   1.888
12313SOL     OW38712   4.293   9.019   5.897
12313SOL    HW138713   4.373   9.010   5.950
12313SOL    HW238714   4.236   8.949   5.929
12314SOL     OW38715  10.798  11.661   2.529
12314SOL    HW138716  10.850  11.582   2.514
12314SOL    HW238717  10.791  11.668   2.624
12315SOL     OW38718   7.883  11.683  10.764
12315SOL    HW138719   7.960  11.739  10.778
12315SOL    HW238720   7.905  11.601  10.807
12316SOL     OW38721  14.117   8.350   0.257
12316SOL    HW138722  14.122   8.442   0.281
12316SOL    HW238723  14.176   8.340   0.182
12317SOL     OW38724   3.156   6.620  14.006
12317SOL    HW138725   3.062   6.604  14.017
12317SOL    HW238726   3.164   6.655  13.917
12318SOL     OW38727  12.150   8.498  13.742
12318SOL    HW138728  12.105   8.484  13.826
12318SOL    HW238729  12.079   8.513  13.679
12319SOL     OW38730   9.719   9.405  13.564
12319SOL    HW138731   9.735   9.442  13.476
12319SOL    HW238732   9.701   9.482  13.618
12320SOL     OW38733  11.163  13.924   6.958
12320SOL    HW138734  11.238  13.983   6.944
12320SOL    HW238735  11.185  13.846   6.906
12321SOL     OW38736   3.249   9.079   3.754
12321SOL    HW138737   3.288   9.115   3.674
12321SOL    HW238738   3.169   9.036   3.725
12322SOL     OW38739   1.663  11.484  13.591
12322SOL    HW138740   1.630  11.421  13.527
12322SOL    HW238741   1.722  11.434  13.647
12323SOL     OW38742  10.561   1.769   5.785
12323SOL    HW138743  10.628   1.702   5.795
12323SOL    HW238744  10.599   1.831   5.722
12324SOL     OW38745  13.875   0.500   5.248
12324SOL    HW138746  13.834   0.480   5.163
12324SOL    HW238747  13.868   0.419   5.298
12325SOL     OW38748   5.159   9.168  14.080
12325SOL    HW138749   5.206   9.201  14.004
12325SOL    HW238750   5.181   9.230  14.150
12326SOL     OW38751  12.362   8.727   9.456
12326SOL    HW138752  12.422   8.660   9.424
12326SOL    HW238753  12.392   8.808   9.415
12327SOL     OW38754   4.550   3.278   6.393
12327SOL    HW138755   4.641   3.291   6.366
12327SOL    HW238756   4.522   3.364   6.424
12328SOL     OW38757   2.816  13.989   7.255
12328SOL    HW138758   2.824  13.924   7.185
12328SOL    HW238759   2.893  13.973   7.310
12329SOL     OW38760   7.694   9.584  11.575
12329SOL    HW138761   7.770   9.621  11.529
12329SOL    HW238762   7.727   9.561  11.661
12330SOL     OW38763  10.475   2.797   8.032
12330SOL    HW138764  10.420   2.733   7.987
12330SOL    HW238765  10.475   2.767   8.123
12331SOL     OW38766  12.025   5.045  11.363
12331SOL    HW138767  12.112   5.007  11.375
12331SOL    HW238768  11.973   4.974  11.326
12332SOL     OW38769   5.300   1.296  11.383
12332SOL    HW138770   5.284   1.325  11.473
12332SOL    HW238771   5.222   1.245  11.360
12333SOL     OW38772   8.582   5.996   8.391
12333SOL    HW138773   8.515   6.024   8.454
12333SOL    HW238774   8.617   6.078   8.356
12334SOL     OW38775   4.273  14.601   5.677
12334SOL    HW138776   4.221  14.527   5.646
12334SOL    HW238777   4.242  14.676   5.626
12335SOL     OW38778  11.235   7.003   5.970
12335SOL    HW138779  11.199   6.920   5.939
12335SOL    HW238780  11.311   7.018   5.913
12336SOL     OW38781   8.751   0.800   0.086
12336SOL    HW138782   8.821   0.783   0.148
12336SOL    HW238783   8.750   0.723   0.029
12337SOL     OW38784  13.023   9.811   4.947
12337SOL    HW138785  13.007   9.816   4.853
12337SOL    HW238786  13.048   9.720   4.963
12338SOL     OW38787  12.666   6.643   6.609
12338SOL    HW138788  12.632   6.683   6.689
12338SOL    HW238789  12.665   6.549   6.628
12339SOL     OW38790   0.173   2.334  12.599
12339SOL    HW138791   0.114   2.262  12.577
12339SOL    HW238792   0.211   2.310  12.683
12340SOL     OW38793   5.416   7.251   7.517
12340SOL    HW138794   5.347   7.186   7.529
12340SOL    HW238795   5.428   7.290   7.604
12341SOL     OW38796  12.049   9.647   1.959
12341SOL    HW138797  12.130   9.611   1.996
12341SOL    HW238798  12.077   9.689   1.877
12342SOL     OW38799   6.535  10.622   2.979
12342SOL    HW138800   6.553  10.610   2.886
12342SOL    HW238801   6.471  10.554   3.000
12343SOL     OW38802   4.075   2.524  12.271
12343SOL    HW138803   4.083   2.562  12.358
12343SOL    HW238804   4.094   2.431  12.284
12344SOL     OW38805   9.791   4.212  11.835
12344SOL    HW138806   9.864   4.201  11.774
12344SOL    HW238807   9.828   4.264  11.907
12345SOL     OW38808   9.879   6.761   4.790
12345SOL    HW138809   9.899   6.737   4.881
12345SOL    HW238810   9.900   6.854   4.784
12346SOL     OW38811  11.739  11.663  12.419
12346SOL    HW138812  11.764  11.654  12.511
12346SOL    HW238813  11.805  11.721  12.382
12347SOL     OW38814   8.782  11.590   5.097
12347SOL    HW138815   8.786  11.571   5.003
12347SOL    HW238816   8.734  11.516   5.134
12348SOL     OW38817   1.377   2.368  13.083
12348SOL    HW138818   1.432   2.355  13.005
12348SOL    HW238819   1.416   2.443  13.128
12349SOL     OW38820  12.920   3.827   3.755
12349SOL    HW138821  12.872   3.802   3.834
12349SOL    HW238822  12.867   3.794   3.683
12350SOL     OW38823   3.643  12.088   3.518
12350SOL    HW138824   3.680  12.001   3.503
12350SOL    HW238825   3.665  12.108   3.609
12351SOL     OW38826  12.722   6.108  14.131
12351SOL    HW138827  12.726   6.102  14.227
12351SOL    HW238828  12.800   6.157  14.107
12352SOL     OW38829  10.300  11.519   7.519
12352SOL    HW138830  10.356  11.482   7.587
12352SOL    HW238831  10.213  11.482   7.536
12353SOL     OW38832   5.097   7.447   7.184
12353SOL    HW138833   5.130   7.485   7.266
12353SOL    HW238834   5.166   7.386   7.156
12354SOL     OW38835   8.895  14.737   0.268
12354SOL    HW138836   8.967  14.709   0.325
12354SOL    HW238837   8.884  14.666   0.206
12355SOL     OW38838   6.478   8.197  11.146
12355SOL    HW138839   6.391   8.192  11.107
12355SOL    HW238840   6.474   8.274  11.202
12356SOL     OW38841  14.211   9.177   9.307
12356SOL    HW138842  14.158   9.125   9.247
12356SOL    HW238843  14.209   9.128   9.390
12357SOL     OW38844   2.627  12.921   6.485
12357SOL    HW138845   2.589  12.930   6.398
12357SOL    HW238846   2.721  12.921   6.471
12358SOL     OW38847  12.821   8.869   8.774
12358SOL    HW138848  12.727   8.849   8.782
12358SOL    HW238849  12.861   8.786   8.751
12359SOL     OW38850  12.333   2.977   7.839
12359SOL    HW138851  12.294   2.962   7.926
12359SOL    HW238852  12.405   2.914   7.834
12360SOL     OW38853  11.943  13.580   8.281
12360SOL    HW138854  11.861  13.594   8.233
12360SOL    HW238855  11.979  13.499   8.245
12361SOL     OW38856  10.323   3.000   0.647
12361SOL    HW138857  10.328   3.045   0.562
12361SOL    HW238858  10.409   2.960   0.657
12362SOL     OW38859   6.255   6.136   6.940
12362SOL    HW138860   6.249   6.155   7.034
12362SOL    HW238861   6.285   6.046   6.936
12363SOL     OW38862   7.248   5.973   0.842
12363SOL    HW138863   7.213   5.955   0.929
12363SOL    HW238864   7.239   5.890   0.795
12364SOL     OW38865  12.512   0.565   5.351
12364SOL    HW138866  12.483   0.632   5.414
12364SOL    HW238867  12.433   0.515   5.332
12365SOL     OW38868  11.212   7.039  14.597
12365SOL    HW138869  11.261   6.957  14.602
12365SOL    HW238870  11.248   7.084  14.520
12366SOL     OW38871   5.601  14.041   6.318
12366SOL    HW138872   5.510  14.058   6.344
12366SOL    HW238873   5.626  13.963   6.369
12367SOL     OW38874  12.838  11.110   1.486
12367SOL    HW138875  12.909  11.049   1.464
12367SOL    HW238876  12.761  11.053   1.498
12368SOL     OW38877  13.287  14.302   0.112
12368SOL    HW138878  13.362  14.349   0.076
12368SOL    HW238879  13.254  14.360   0.181
12369SOL     OW38880   1.621   1.955  12.648
12369SOL    HW138881   1.601   1.938  12.740
12369SOL    HW238882   1.536   1.951  12.603
12370SOL     OW38883   8.363   9.692  12.038
12370SOL    HW138884   8.394   9.606  12.008
12370SOL    HW238885   8.327   9.675  12.125
12371SOL     OW38886   7.676  11.618   8.521
12371SOL    HW138887   7.725  11.678   8.577
12371SOL    HW238888   7.743  11.568   8.475
12372SOL     OW38889   1.204   6.774   0.758
12372SOL    HW138890   1.219   6.862   0.793
12372SOL    HW238891   1.111   6.773   0.736
12373SOL     OW38892  10.423   4.048   3.608
12373SOL    HW138893  10.333   4.016   3.595
12373SOL    HW238894  10.447   4.084   3.523
12374SOL     OW38895  14.369   0.972   8.755
12374SOL    HW138896  14.286   0.936   8.784
12374SOL    HW238897  14.375   1.058   8.797
12375SOL     OW38898   1.775  14.650   2.191
12375SOL    HW138899   1.750  14.567   2.233
12375SOL    HW238900   1.693  14.697   2.179
12376SOL     OW38901   0.127   2.632  11.235
12376SOL    HW138902   0.135   2.622  11.140
12376SOL    HW238903   0.174   2.713  11.255
12377SOL     OW38904   8.588   8.662   4.113
12377SOL    HW138905   8.630   8.648   4.198
12377SOL    HW238906   8.502   8.620   4.122
12378SOL     OW38907   9.546   5.115   9.348
12378SOL    HW138908   9.628   5.131   9.300
12378SOL    HW238909   9.516   5.203   9.373
12379SOL     OW38910   4.049   4.491   3.428
12379SOL    HW138911   4.133   4.534   3.412
12379SOL    HW238912   4.072   4.409   3.472
12380SOL     OW38913  14.279  11.180   0.387
12380SOL    HW138914  14.361  11.219   0.418
12380SOL    HW238915  14.243  11.245   0.326
12381SOL     OW38916  10.275   7.880  10.771
12381SOL    HW138917  10.226   7.961  10.784
12381SOL    HW238918  10.212   7.821  10.730
12382SOL     OW38919   3.816   3.667   8.194
12382SOL    HW138920   3.744   3.606   8.211
12382SOL    HW238921   3.868   3.665   8.274
12383SOL     OW38922   5.256  12.083  12.202
12383SOL    HW138923   5.229  11.992  12.195
12383SOL    HW238924   5.340  12.081  12.248
12384SOL     OW38925   3.258   1.133   6.127
12384SOL    HW138926   3.212   1.085   6.196
12384SOL    HW238927   3.284   1.065   6.065
12385SOL     OW38928   5.637  13.726  10.766
12385SOL    HW138929   5.650  13.699  10.857
12385SOL    HW238930   5.616  13.646  10.719
12386SOL     OW38931   6.131  14.062   2.903
12386SOL    HW138932   6.136  14.078   2.809
12386SOL    HW238933   6.094  13.974   2.910
12387SOL     OW38934   1.247  14.664  14.695
12387SOL    HW138935   1.200  14.598  14.643
12387SOL    HW238936   1.322  14.688  14.640
12388SOL     OW38937   4.256   9.465   7.448
12388SOL    HW138938   4.187   9.501   7.392
12388SOL    HW238939   4.306   9.541   7.477
12389SOL     OW38940  12.158   5.373  12.331
12389SOL    HW138941  12.116   5.294  12.366
12389SOL    HW238942  12.220   5.339  12.266
12390SOL     OW38943   8.857   6.357   0.503
12390SOL    HW138944   8.792   6.345   0.572
12390SOL    HW238945   8.937   6.380   0.549
12391SOL     OW38946   0.468   3.039  10.489
12391SOL    HW138947   0.490   3.051  10.397
12391SOL    HW238948   0.520   3.105  10.535
12392SOL     OW38949   7.322  14.029   5.732
12392SOL    HW138950   7.310  14.041   5.826
12392SOL    HW238951   7.381  14.100   5.706
12393SOL     OW38952  14.363   3.413   1.176
12393SOL    HW138953  14.287   3.361   1.151
12393SOL    HW238954  14.425   3.402   1.103
12394SOL     OW38955   8.503   0.113   6.961
12394SOL    HW138956   8.568   0.077   6.901
12394SOL    HW238957   8.427   0.134   6.907
12395SOL     OW38958   3.615   5.636   6.378
12395SOL    HW138959   3.643   5.566   6.318
12395SOL    HW238960   3.697   5.676   6.407
12396SOL     OW38961   1.223   9.238   9.682
12396SOL    HW138962   1.260   9.183   9.613
12396SOL    HW238963   1.154   9.184   9.721
12397SOL     OW38964   3.787   8.507   5.035
12397SOL    HW138965   3.705   8.526   4.990
12397SOL    HW238966   3.781   8.414   5.056
12398SOL     OW38967   6.587  13.945  14.156
12398SOL    HW138968   6.582  14.038  14.179
12398SOL    HW238969   6.587  13.945  14.060
12399SOL     OW38970   5.254   1.813   3.926
12399SOL    HW138971   5.272   1.894   3.974
12399SOL    HW238972   5.194   1.765   3.983
12400SOL     OW38973   0.304   6.983   2.773
12400SOL    HW138974   0.219   7.012   2.742
12400SOL    HW238975   0.335   7.054   2.829
12401SOL     OW38976   7.249   8.576   6.119
12401SOL    HW138977   7.216   8.665   6.105
12401SOL    HW238978   7.262   8.542   6.031
12402SOL     OW38979  13.109   0.694   2.789
12402SOL    HW138980  13.123   0.600   2.773
12402SOL    HW238981  13.117   0.703   2.884
12403SOL     OW38982  10.644   7.321   3.793
12403SOL    HW138983  10.551   7.320   3.814
12403SOL    HW238984  10.651   7.379   3.717
12404SOL     OW38985  12.613  10.900   1.239
12404SOL    HW138986  12.674  10.918   1.310
12404SOL    HW238987  12.550  10.972   1.242
12405SOL     OW38988  13.400   2.230  12.793
12405SOL    HW138989  13.437   2.311  12.829
12405SOL    HW238990  13.315   2.256  12.756
12406SOL     OW38991  11.345   0.117   3.179
12406SOL    HW138992  11.425   0.072   3.153
12406SOL    HW238993  11.351   0.124   3.274
12407SOL     OW38994   2.092   2.425   0.292
12407SOL    HW138995   2.146   2.381   0.358
12407SOL    HW238996   2.066   2.355   0.232
12408SOL     OW38997  13.804   2.622  10.780
12408SOL    HW138998  13.801   2.651  10.871
12408SOL    HW238999  13.891   2.584  10.770
12409SOL     OW39000   3.644  13.374   9.821
12409SOL    HW139001   3.606  13.387   9.908
12409SOL    HW239002   3.573  13.336   9.769
12410SOL     OW39003   9.741   8.689   2.525
12410SOL    HW139004   9.727   8.778   2.495
12410SOL    HW239005   9.831   8.687   2.556
12411SOL     OW39006   2.157   8.524   5.893
12411SOL    HW139007   2.123   8.600   5.941
12411SOL    HW239008   2.078   8.477   5.865
12412SOL     OW39009   0.941   3.128   8.634
12412SOL    HW139010   0.892   3.069   8.577
12412SOL    HW239011   1.010   3.163   8.578
12413SOL     OW39012   7.703  10.148   0.885
12413SOL    HW139013   7.753  10.070   0.860
12413SOL    HW239014   7.628  10.148   0.826
12414SOL     OW39015   5.832   1.512   6.119
12414SOL    HW139016   5.855   1.423   6.146
12414SOL    HW239017   5.830   1.509   6.023
12415SOL     OW39018  11.511   7.565   7.071
12415SOL    HW139019  11.484   7.648   7.032
12415SOL    HW239020  11.607   7.567   7.067
12416SOL     OW39021  14.757   7.616   9.410
12416SOL    HW139022  14.673   7.610   9.366
12416SOL    HW239023  14.742   7.673   9.486
12417SOL     OW39024   8.072  14.033   4.293
12417SOL    HW139025   8.014  14.082   4.234
12417SOL    HW239026   8.094  13.954   4.244
12418SOL     OW39027   9.689   5.807  14.167
12418SOL    HW139028   9.662   5.878  14.108
12418SOL    HW239029   9.607   5.773  14.202
12419SOL     OW39030  14.810   3.045   5.323
12419SOL    HW139031  14.783   3.124   5.277
12419SOL    HW239032  14.775   2.973   5.271
12420SOL     OW39033   3.788   3.315   9.289
12420SOL    HW139034   3.708   3.269   9.265
12420SOL    HW239035   3.778   3.402   9.251
12421SOL     OW39036  12.218   3.932   3.285
12421SOL    HW139037  12.282   3.959   3.219
12421SOL    HW239038  12.213   3.837   3.277
12422SOL     OW39039   6.027   5.197   9.108
12422SOL    HW139040   6.008   5.145   9.030
12422SOL    HW239041   6.076   5.273   9.074
12423SOL     OW39042  11.488  11.026   9.850
12423SOL    HW139043  11.417  11.066   9.901
12423SOL    HW239044  11.487  11.074   9.767
12424SOL     OW39045  11.116   4.621  12.917
12424SOL    HW139046  11.166   4.624  12.836
12424SOL    HW239047  11.150   4.544  12.963
12425SOL     OW39048   3.649  10.036   3.915
12425SOL    HW139049   3.731  10.068   3.877
12425SOL    HW239050   3.656   9.941   3.910
12426SOL     OW39051  14.429   3.197  10.266
12426SOL    HW139052  14.492   3.198  10.337
12426SOL    HW239053  14.380   3.116  10.278
12427SOL     OW39054   8.965  14.440   0.312
12427SOL    HW139055   8.985  14.361   0.263
12427SOL    HW239056   8.999  14.424   0.400
12428SOL     OW39057   7.126   9.288  11.942
12428SOL    HW139058   7.204   9.233  11.935
12428SOL    HW239059   7.054   9.226  11.953
12429SOL     OW39060   9.807   2.516   3.061
12429SOL    HW139061   9.716   2.544   3.052
12429SOL    HW239062   9.847   2.535   2.976
12430SOL     OW39063   3.916   5.770  13.808
12430SOL    HW139064   4.000   5.725  13.816
12430SOL    HW239065   3.860   5.708  13.762
12431SOL     OW39066   7.845   1.356   1.360
12431SOL    HW139067   7.787   1.344   1.285
12431SOL    HW239068   7.807   1.302   1.429
12432SOL     OW39069  12.085   4.435  11.385
12432SOL    HW139070  12.096   4.394  11.471
12432SOL    HW239071  11.998   4.474  11.387
12433SOL     OW39072   4.465   1.307   1.183
12433SOL    HW139073   4.516   1.358   1.246
12433SOL    HW239074   4.520   1.230   1.165
12434SOL     OW39075   9.949  12.314   7.474
12434SOL    HW139076   9.967  12.298   7.381
12434SOL    HW239077   9.919  12.405   7.477
12435SOL     OW39078  13.965   9.712   8.744
12435SOL    HW139079  14.017   9.644   8.788
12435SOL    HW239080  13.974   9.788   8.801
12436SOL     OW39081   5.130  10.202   5.314
12436SOL    HW139082   5.164  10.263   5.378
12436SOL    HW239083   5.037  10.222   5.308
12437SOL     OW39084   1.442   3.902   9.355
12437SOL    HW139085   1.502   3.950   9.412
12437SOL    HW239086   1.425   3.961   9.282
12438SOL     OW39087   4.279   9.695   2.087
12438SOL    HW139088   4.244   9.725   2.171
12438SOL    HW239089   4.355   9.751   2.071
12439SOL     OW39090  12.573   4.496  10.558
12439SOL    HW139091  12.622   4.563  10.605
12439SOL    HW239092  12.490   4.490  10.604
12440SOL     OW39093   2.624   8.015   6.393
12440SOL    HW139094   2.549   8.061   6.356
12440SOL    HW239095   2.698   8.075   6.380
12441SOL     OW39096   2.375   1.361   5.017
12441SOL    HW139097   2.371   1.427   4.948
12441SOL    HW239098   2.417   1.285   4.976
12442SOL     OW39099   4.944   4.980   6.990
12442SOL    HW139100   4.974   4.982   7.081
12442SOL    HW239101   5.022   4.954   6.940
12443SOL     OW39102  11.811   0.787   7.217
12443SOL    HW139103  11.727   0.742   7.211
12443SOL    HW239104  11.876   0.717   7.217
12444SOL     OW39105   6.925   6.610   6.186
12444SOL    HW139106   6.840   6.652   6.199
12444SOL    HW239107   6.906   6.516   6.193
12445SOL     OW39108   7.102   9.610  14.044
12445SOL    HW139109   7.020   9.628  13.999
12445SOL    HW239110   7.168   9.609  13.975
12446SOL     OW39111   7.874  10.669  11.559
12446SOL    HW139112   7.841  10.753  11.591
12446SOL    HW239113   7.847  10.666  11.467
12447SOL     OW39114   7.908   5.444   9.367
12447SOL    HW139115   7.820   5.456   9.331
12447SOL    HW239116   7.966   5.484   9.303
12448SOL     OW39117   6.680   3.855  10.129
12448SOL    HW139118   6.637   3.861  10.215
12448SOL    HW239119   6.771   3.876  10.147
12449SOL     OW39120   5.252   6.825  12.345
12449SOL    HW139121   5.169   6.796  12.309
12449SOL    HW239122   5.298   6.864  12.270
12450SOL     OW39123   5.190   3.742   4.602
12450SOL    HW139124   5.207   3.830   4.636
12450SOL    HW239125   5.277   3.703   4.593
12451SOL     OW39126  11.230   8.078   1.274
12451SOL    HW139127  11.320   8.044   1.272
12451SOL    HW239128  11.226   8.129   1.355
12452SOL     OW39129   6.693  14.393  10.544
12452SOL    HW139130   6.760  14.459  10.528
12452SOL    HW239131   6.734  14.311  10.517
12453SOL     OW39132   4.345   3.254   3.415
12453SOL    HW139133   4.348   3.163   3.445
12453SOL    HW239134   4.430   3.269   3.374
12454SOL     OW39135   7.776   5.512  14.779
12454SOL    HW139136   7.826   5.448  14.729
12454SOL    HW239137   7.689   5.473  14.790
12455SOL     OW39138  13.738  13.060   3.487
12455SOL    HW139139  13.782  13.128   3.436
12455SOL    HW239140  13.751  12.980   3.437
12456SOL     OW39141   1.204   4.820  13.390
12456SOL    HW139142   1.242   4.734  13.408
12456SOL    HW239143   1.253   4.851  13.314
12457SOL     OW39144   5.699   8.140  13.928
12457SOL    HW139145   5.761   8.211  13.945
12457SOL    HW239146   5.747   8.060  13.950
12458SOL     OW39147   2.171   7.766  11.689
12458SOL    HW139148   2.202   7.794  11.775
12458SOL    HW239149   2.148   7.673  11.701
12459SOL     OW39150  14.725  12.762   3.969
12459SOL    HW139151  14.688  12.838   3.925
12459SOL    HW239152  14.650  12.705   3.986
12460SOL     OW39153  13.675   2.016  13.887
12460SOL    HW139154  13.649   2.081  13.952
12460SOL    HW239155  13.639   2.050  13.805
12461SOL     OW39156  14.142   7.516   7.869
12461SOL    HW139157  14.187   7.590   7.828
12461SOL    HW239158  14.183   7.508   7.955
12462SOL     OW39159  11.010  11.390  14.045
12462SOL    HW139160  11.086  11.444  14.066
12462SOL    HW239161  10.942  11.420  14.106
12463SOL     OW39162  14.870  10.812   6.056
12463SOL    HW139163   0.079  10.825   6.094
12463SOL    HW239164  14.813  10.795   6.132
12464SOL     OW39165   8.708  12.994   2.657
12464SOL    HW139166   8.688  12.961   2.569
12464SOL    HW239167   8.623  13.019   2.693
12465SOL     OW39168   2.286   6.556   9.141
12465SOL    HW139169   2.318   6.576   9.053
12465SOL    HW239170   2.299   6.638   9.190
12466SOL     OW39171  10.696   8.314  12.244
12466SOL    HW139172  10.765   8.311  12.177
12466SOL    HW239173  10.744   8.331  12.325
12467SOL     OW39174  13.872   1.758  11.374
12467SOL    HW139175  13.843   1.667  11.380
12467SOL    HW239176  13.827   1.792  11.297
12468SOL     OW39177  11.512  14.138  12.209
12468SOL    HW139178  11.488  14.054  12.172
12468SOL    HW239179  11.593  14.162  12.164
12469SOL     OW39180  14.496  10.815   4.408
12469SOL    HW139181  14.451  10.792   4.327
12469SOL    HW239182  14.560  10.746   4.421
12470SOL     OW39183   2.368  11.435   8.174
12470SOL    HW139184   2.408  11.348   8.179
12470SOL    HW239185   2.320  11.445   8.256
12471SOL     OW39186   6.705  13.405   3.780
12471SOL    HW139187   6.681  13.357   3.701
12471SOL    HW239188   6.671  13.493   3.767
12472SOL     OW39189   5.732  14.619   4.231
12472SOL    HW139190   5.729  14.548   4.166
12472SOL    HW239191   5.823  14.619   4.261
12473SOL     OW39192   5.012   5.610   6.274
12473SOL    HW139193   4.951   5.656   6.331
12473SOL    HW239194   5.073   5.565   6.333
12474SOL     OW39195   6.083  12.245   8.996
12474SOL    HW139196   6.078  12.340   9.008
12474SOL    HW239197   6.062  12.231   8.904
12475SOL     OW39198   0.117   4.239  10.296
12475SOL    HW139199   0.206   4.233  10.261
12475SOL    HW239200   0.128   4.276  10.383
12476SOL     OW39201  10.846   9.183  10.497
12476SOL    HW139202  10.810   9.117  10.437
12476SOL    HW239203  10.772   9.212  10.550
12477SOL     OW39204   7.248   8.488   0.389
12477SOL    HW139205   7.310   8.555   0.361
12477SOL    HW239206   7.263   8.414   0.330
12478SOL     OW39207  13.585   3.297   1.734
12478SOL    HW139208  13.649   3.284   1.803
12478SOL    HW239209  13.514   3.347   1.775
12479SOL     OW39210  12.814   6.592  12.410
12479SOL    HW139211  12.811   6.532  12.484
12479SOL    HW239212  12.861   6.544  12.342
12480SOL     OW39213  13.071  10.838   5.249
12480SOL    HW139214  13.137  10.864   5.313
12480SOL    HW239215  13.002  10.798   5.302
12481SOL     OW39216   4.620   0.738   6.732
12481SOL    HW139217   4.707   0.697   6.725
12481SOL    HW239218   4.637   0.832   6.724
12482SOL     OW39219   6.793   6.092   5.857
12482SOL    HW139220   6.703   6.078   5.888
12482SOL    HW239221   6.825   6.004   5.836
12483SOL     OW39222  13.275   7.610  14.863
12483SOL    HW139223  13.314   7.546   0.046
12483SOL    HW239224  13.305   7.695   0.018
12484SOL     OW39225  14.727   2.611   6.474
12484SOL    HW139226  14.712   2.636   6.565
12484SOL    HW239227  14.663   2.661   6.424
12485SOL     OW39228  10.256   3.264   5.211
12485SOL    HW139229  10.241   3.285   5.304
12485SOL    HW239230  10.169   3.242   5.177
12486SOL     OW39231   5.134  13.815   7.995
12486SOL    HW139232   5.151  13.909   8.000
12486SOL    HW239233   5.156  13.790   7.905
12487SOL     OW39234  10.712  11.876  12.541
12487SOL    HW139235  10.755  11.850  12.623
12487SOL    HW239236  10.658  11.951  12.565
12488SOL     OW39237   5.070   1.913  10.847
12488SOL    HW139238   5.130   1.859  10.899
12488SOL    HW239239   5.021   1.850  10.794
12489SOL     OW39240   0.312   6.114   7.936
12489SOL    HW139241   0.346   6.068   7.860
12489SOL    HW239242   0.341   6.062   8.011
12490SOL     OW39243  11.819   0.481  11.107
12490SOL    HW139244  11.898   0.534  11.118
12490SOL    HW239245  11.837   0.425  11.031
12491SOL     OW39246   0.479   8.235   6.988
12491SOL    HW139247   0.401   8.246   7.042
12491SOL    HW239248   0.470   8.148   6.949
12492SOL     OW39249   5.067   0.846  10.716
12492SOL    HW139250   5.141   0.885  10.762
12492SOL    HW239251   5.088   0.753  10.710
12493SOL     OW39252  11.034  12.355  14.066
12493SOL    HW139253  11.033  12.414  13.991
12493SOL    HW239254  10.944  12.355  14.098
12494SOL     OW39255   4.215  11.841   6.846
12494SOL    HW139256   4.260  11.849   6.763
12494SOL    HW239257   4.270  11.784   6.899
12495SOL     OW39258  13.635  14.675   9.047
12495SOL    HW139259  13.624  14.704   9.138
12495SOL    HW239260  13.728  14.687   9.029
12496SOL     OW39261   2.889  10.334  13.185
12496SOL    HW139262   2.901  10.394  13.111
12496SOL    HW239263   2.804  10.359  13.222
12497SOL     OW39264   1.981   5.884   8.286
12497SOL    HW139265   2.012   5.798   8.314
12497SOL    HW239266   2.021   5.945   8.347
12498SOL     OW39267   0.955   3.205   2.960
12498SOL    HW139268   0.860   3.195   2.968
12498SOL    HW239269   0.988   3.115   2.958
12499SOL     OW39270   7.931  14.731   6.501
12499SOL    HW139271   7.968  14.662   6.555
12499SOL    HW239272   7.938  14.810   6.555
12500SOL     OW39273  13.952   7.030   5.763
12500SOL    HW139274  13.877   6.974   5.784
12500SOL    HW239275  14.024   6.968   5.749
12501SOL     OW39276   4.226   5.117  13.850
12501SOL    HW139277   4.215   5.208  13.823
12501SOL    HW239278   4.144   5.075  13.827
12502SOL     OW39279   6.119   5.490   2.284
12502SOL    HW139280   6.211   5.501   2.260
12502SOL    HW239281   6.119   5.489   2.380
12503SOL     OW39282  13.309   7.120   0.082
12503SOL    HW139283  13.305   7.174   0.003
12503SOL    HW239284  13.402   7.109   0.100
12504SOL     OW39285   4.417  13.862  10.848
12504SOL    HW139286   4.369  13.857  10.765
12504SOL    HW239287   4.379  13.792  10.902
12505SOL     OW39288   0.233   6.280   0.877
12505SOL    HW139289   0.283   6.264   0.797
12505SOL    HW239290   0.154   6.325   0.847
12506SOL     OW39291   3.030   5.032   9.691
12506SOL    HW139292   3.089   5.096   9.653
12506SOL    HW239293   2.978   5.000   9.617
12507SOL     OW39294   1.210   7.596  13.174
12507SOL    HW139295   1.250   7.538  13.239
12507SOL    HW239296   1.116   7.582  13.183
12508SOL     OW39297   2.586  13.570   8.060
12508SOL    HW139298   2.665  13.549   8.009
12508SOL    HW239299   2.521  13.595   7.995
12509SOL     OW39300  14.422  10.606  12.034
12509SOL    HW139301  14.474  10.685  12.022
12509SOL    HW239302  14.480  10.544  12.077
12510SOL     OW39303   2.028   8.091   8.983
12510SOL    HW139304   1.941   8.084   8.945
12510SOL    HW239305   2.022   8.166   9.042
12511SOL     OW39306  13.746   2.075  10.594
12511SOL    HW139307  13.667   2.069  10.647
12511SOL    HW239308  13.719   2.125  10.517
12512SOL     OW39309   0.914  12.168  12.405
12512SOL    HW139310   0.951  12.124  12.328
12512SOL    HW239311   0.954  12.256  12.404
12513SOL     OW39312   1.643  14.549   8.058
12513SOL    HW139313   1.557  14.577   8.026
12513SOL    HW239314   1.625  14.509   8.143
12514SOL     OW39315   2.712   2.967  12.487
12514SOL    HW139316   2.678   3.007  12.407
12514SOL    HW239317   2.768   2.896  12.456
12515SOL     OW39318   4.937  10.143   6.421
12515SOL    HW139319   5.015  10.179   6.464
12515SOL    HW239320   4.864  10.172   6.475
12516SOL     OW39321   0.470  11.501   6.244
12516SOL    HW139322   0.460  11.415   6.284
12516SOL    HW239323   0.411  11.500   6.169
12517SOL     OW39324   5.732  13.537   6.499
12517SOL    HW139325   5.745  13.447   6.528
12517SOL    HW239326   5.724  13.531   6.404
12518SOL     OW39327  13.855   9.962   0.570
12518SOL    HW139328  13.777   9.976   0.624
12518SOL    HW239329  13.904  10.044   0.576
12519SOL     OW39330  12.473   0.479  13.702
12519SOL    HW139331  12.468   0.541  13.775
12519SOL    HW239332  12.513   0.401  13.740
12520SOL     OW39333  11.835  13.063  14.417
12520SOL    HW139334  11.922  13.058  14.377
12520SOL    HW239335  11.827  13.154  14.446
12521SOL     OW39336   4.093   4.802   0.656
12521SOL    HW139337   4.179   4.808   0.615
12521SOL    HW239338   4.032   4.834   0.590
12522SOL     OW39339  12.756  13.334   9.291
12522SOL    HW139340  12.695  13.261   9.282
12522SOL    HW239341  12.832  13.308   9.239
12523SOL     OW39342   2.622   9.894   6.295
12523SOL    HW139343   2.577   9.823   6.340
12523SOL    HW239344   2.680   9.931   6.361
12524SOL     OW39345  12.369   5.069  11.765
12524SOL    HW139346  12.281   5.040  11.741
12524SOL    HW239347  12.356   5.131  11.836
12525SOL     OW39348  10.588   4.623   9.067
12525SOL    HW139349  10.573   4.534   9.037
12525SOL    HW239350  10.508   4.670   9.044
12526SOL     OW39351   4.908   8.211  13.468
12526SOL    HW139352   4.879   8.120  13.477
12526SOL    HW239353   4.873   8.238  13.383
12527SOL     OW39354   4.977   7.582   8.293
12527SOL    HW139355   4.981   7.555   8.201
12527SOL    HW239356   4.948   7.503   8.339
12528SOL     OW39357   4.771   9.704   8.199
12528SOL    HW139358   4.858   9.721   8.233
12528SOL    HW239359   4.749   9.616   8.230
12529SOL     OW39360   6.460   0.848  14.809
12529SOL    HW139361   6.466   0.840   0.027
12529SOL    HW239362   6.386   0.792  14.786
12530SOL     OW39363  14.797   5.529  12.265
12530SOL    HW139364  14.809   5.436  12.248
12530SOL    HW239365  14.842   5.573  12.193
12531SOL     OW39366   1.681   2.698   0.324
12531SOL    HW139367   1.628   2.775   0.307
12531SOL    HW239368   1.629   2.645   0.384
12532SOL     OW39369   2.492   9.469  14.838
12532SOL    HW139370   2.487   9.532  14.765
12532SOL    HW239371   2.573   9.420  14.821
12533SOL     OW39372   4.446   3.414   0.564
12533SOL    HW139373   4.356   3.446   0.561
12533SOL    HW239374   4.437   3.319   0.566
12534SOL     OW39375  11.566   5.552   5.098
12534SOL    HW139376  11.519   5.477   5.134
12534SOL    HW239377  11.593   5.603   5.174
12535SOL     OW39378   7.940   4.809   1.685
12535SOL    HW139379   7.863   4.808   1.628
12535SOL    HW239380   7.922   4.743   1.752
12536SOL     OW39381   3.795   7.512  12.729
12536SOL    HW139382   3.719   7.536  12.782
12536SOL    HW239383   3.869   7.552  12.774
12537SOL     OW39384   0.494  12.114  10.340
12537SOL    HW139385   0.589  12.116  10.352
12537SOL    HW239386   0.481  12.073  10.254
12538SOL     OW39387   8.503   6.999   6.249
12538SOL    HW139388   8.509   6.969   6.159
12538SOL    HW239389   8.420   6.963   6.281
12539SOL     OW39390  11.324  11.362  12.417
12539SOL    HW139391  11.328  11.270  12.391
12539SOL    HW239392  11.403  11.401  12.381
12540SOL     OW39393   0.317   5.617   6.169
12540SOL    HW139394   0.276   5.702   6.155
12540SOL    HW239395   0.270   5.557   6.111
12541SOL     OW39396   1.183   1.771  11.680
12541SOL    HW139397   1.147   1.714  11.748
12541SOL    HW239398   1.237   1.834  11.728
12542SOL     OW39399   1.683   3.085   1.843
12542SOL    HW139400   1.712   3.160   1.896
12542SOL    HW239401   1.714   3.008   1.891
12543SOL     OW39402   0.048   2.515   1.802
12543SOL    HW139403   0.011   2.430   1.780
12543SOL    HW239404   0.017   2.573   1.732
12544SOL     OW39405  12.109  10.882   0.524
12544SOL    HW139406  12.132  10.790   0.538
12544SOL    HW239407  12.028  10.894   0.574
12545SOL     OW39408   7.824  11.789   0.445
12545SOL    HW139409   7.806  11.783   0.351
12545SOL    HW239410   7.826  11.698   0.474
12546SOL     OW39411   6.320  12.546  12.648
12546SOL    HW139412   6.321  12.504  12.734
12546SOL    HW239413   6.397  12.511  12.603
12547SOL     OW39414   4.725   5.726  12.777
12547SOL    HW139415   4.653   5.667  12.797
12547SOL    HW239416   4.802   5.670  12.770
12548SOL     OW39417   5.627   2.497   5.049
12548SOL    HW139418   5.593   2.583   5.072
12548SOL    HW239419   5.550   2.445   5.027
12549SOL     OW39420  11.295   1.360  11.651
12549SOL    HW139421  11.337   1.357  11.737
12549SOL    HW239422  11.310   1.449  11.620
12550SOL     OW39423  10.567   4.606   0.937
12550SOL    HW139424  10.530   4.669   0.998
12550SOL    HW239425  10.516   4.526   0.950
12551SOL     OW39426  14.838   2.944  11.260
12551SOL    HW139427  14.812   2.909  11.345
12551SOL    HW239428  14.790   3.026  11.252
12552SOL     OW39429   9.796   5.496   2.923
12552SOL    HW139430   9.710   5.455   2.935
12552SOL    HW239431   9.824   5.468   2.836
12553SOL     OW39432   2.964   2.694   7.033
12553SOL    HW139433   2.992   2.770   6.983
12553SOL    HW239434   3.044   2.664   7.078
12554SOL     OW39435   6.893   2.216  13.780
12554SOL    HW139436   6.971   2.249  13.736
12554SOL    HW239437   6.850   2.161  13.715
12555SOL     OW39438   2.949   2.057   7.294
12555SOL    HW139439   2.917   1.973   7.327
12555SOL    HW239440   2.884   2.120   7.324
12556SOL     OW39441   5.254  14.595  12.131
12556SOL    HW139442   5.333  14.613  12.081
12556SOL    HW239443   5.183  14.626  12.075
12557SOL     OW39444  14.017   7.527   4.791
12557SOL    HW139445  13.969   7.444   4.781
12557SOL    HW239446  14.076   7.529   4.715
12558SOL     OW39447   9.593  10.949  11.232
12558SOL    HW139448   9.629  10.866  11.202
12558SOL    HW239449   9.588  11.004  11.153
12559SOL     OW39450  10.204   6.543   6.950
12559SOL    HW139451  10.109   6.544   6.944
12559SOL    HW239452  10.233   6.623   6.907
12560SOL     OW39453  11.584  12.823   9.612
12560SOL    HW139454  11.571  12.782   9.697
12560SOL    HW239455  11.653  12.888   9.627
12561SOL     OW39456   0.963   7.189   0.904
12561SOL    HW139457   1.044   7.222   0.866
12561SOL    HW239458   0.927   7.263   0.953
12562SOL     OW39459  10.537   9.963   9.249
12562SOL    HW139460  10.560  10.036   9.192
12562SOL    HW239461  10.590   9.978   9.328
12563SOL     OW39462  13.945  13.682  12.271
12563SOL    HW139463  13.926  13.738  12.346
12563SOL    HW239464  13.964  13.743  12.200
12564SOL     OW39465   6.572   0.160   3.538
12564SOL    HW139466   6.479   0.153   3.517
12564SOL    HW239467   6.607   0.073   3.520
12565SOL     OW39468   3.450  11.617   0.582
12565SOL    HW139469   3.455  11.527   0.613
12565SOL    HW239470   3.519  11.663   0.630
12566SOL     OW39471   1.410   1.166   6.467
12566SOL    HW139472   1.396   1.177   6.561
12566SOL    HW239473   1.504   1.149   6.459
12567SOL     OW39474   9.702   1.590   2.304
12567SOL    HW139475   9.788   1.622   2.329
12567SOL    HW239476   9.714   1.495   2.294
12568SOL     OW39477   8.840   6.325   5.117
12568SOL    HW139478   8.871   6.309   5.206
12568SOL    HW239479   8.806   6.414   5.119
12569SOL     OW39480   2.263  11.199  11.378
12569SOL    HW139481   2.250  11.293  11.364
12569SOL    HW239482   2.264  11.161  11.290
12570SOL     OW39483   6.577   4.031   8.348
12570SOL    HW139484   6.548   3.942   8.328
12570SOL    HW239485   6.543   4.049   8.435
12571SOL     OW39486   2.857   9.467  10.824
12571SOL    HW139487   2.936   9.521  10.821
12571SOL    HW239488   2.869   9.403  10.753
12572SOL     OW39489  14.685   1.157   5.847
12572SOL    HW139490  14.738   1.161   5.927
12572SOL    HW239491  14.737   1.104   5.787
12573SOL     OW39492   2.683   3.216   6.039
12573SOL    HW139493   2.744   3.260   6.099
12573SOL    HW239494   2.721   3.229   5.952
12574SOL     OW39495  11.010   9.089  13.631
12574SOL    HW139496  10.921   9.085  13.595
12574SOL    HW239497  10.997   9.094  13.726
12575SOL     OW39498   4.634   9.955   1.186
12575SOL    HW139499   4.720   9.995   1.174
12575SOL    HW239500   4.649   9.861   1.176
12576SOL     OW39501   8.781   8.152   7.822
12576SOL    HW139502   8.794   8.071   7.871
12576SOL    HW239503   8.847   8.212   7.858
12577SOL     OW39504   8.456   1.968   7.483
12577SOL    HW139505   8.398   1.895   7.506
12577SOL    HW239506   8.543   1.929   7.479
12578SOL     OW39507   8.190  11.435   2.175
12578SOL    HW139508   8.225  11.361   2.125
12578SOL    HW239509   8.221  11.512   2.128
12579SOL     OW39510   9.906   4.810   8.744
12579SOL    HW139511   9.940   4.734   8.792
12579SOL    HW239512   9.811   4.805   8.754
12580SOL     OW39513   7.649   3.568   8.111
12580SOL    HW139514   7.616   3.478   8.103
12580SOL    HW239515   7.734   3.558   8.154
12581SOL     OW39516   0.940   5.300   0.681
12581SOL    HW139517   0.847   5.320   0.685
12581SOL    HW239518   0.976   5.338   0.761
12582SOL     OW39519  13.946   9.836  14.279
12582SOL    HW139520  13.974   9.856  14.369
12582SOL    HW239521  13.875   9.773  14.289
12583SOL     OW39522   5.528   3.136   0.803
12583SOL    HW139523   5.612   3.134   0.850
12583SOL    HW239524   5.487   3.217   0.832
12584SOL     OW39525   1.766   0.743   8.934
12584SOL    HW139526   1.859   0.743   8.909
12584SOL    HW239527   1.756   0.822   8.987
12585SOL     OW39528   2.570   7.057   0.847
12585SOL    HW139529   2.535   6.975   0.880
12585SOL    HW239530   2.551   7.121   0.915
12586SOL     OW39531   4.533  10.126   4.905
12586SOL    HW139532   4.482  10.206   4.923
12586SOL    HW239533   4.571  10.102   4.989
12587SOL     OW39534   7.088   2.390  13.211
12587SOL    HW139535   7.136   2.318  13.171
12587SOL    HW239536   7.077   2.453  13.140
12588SOL     OW39537  10.040   7.368   0.998
12588SOL    HW139538   9.984   7.445   0.988
12588SOL    HW239539  10.058   7.363   1.092
12589SOL     OW39540  10.681  12.113  10.682
12589SOL    HW139541  10.660  12.058  10.606
12589SOL    HW239542  10.644  12.066  10.756
12590SOL     OW39543   3.352   8.652   4.018
12590SOL    HW139544   3.353   8.724   3.956
12590SOL    HW239545   3.348   8.694   4.104
12591SOL     OW39546  14.486   6.683  13.042
12591SOL    HW139547  14.578   6.702  13.064
12591SOL    HW239548  14.451   6.767  13.012
12592SOL     OW39549  12.260   9.335   1.231
12592SOL    HW139550  12.346   9.355   1.194
12592SOL    HW239551  12.198   9.369   1.167
12593SOL     OW39552  10.982  11.488  11.591
12593SOL    HW139553  10.942  11.434  11.523
12593SOL    HW239554  11.071  11.506  11.559
12594SOL     OW39555   2.872  13.378   0.150
12594SOL    HW139556   2.884  13.284   0.163
12594SOL    HW239557   2.884  13.416   0.237
12595SOL     OW39558   3.504   4.662   2.501
12595SOL    HW139559   3.527   4.615   2.581
12595SOL    HW239560   3.581   4.717   2.484
12596SOL     OW39561   6.545   4.780   6.028
12596SOL    HW139562   6.571   4.806   5.940
12596SOL    HW239563   6.469   4.723   6.014
12597SOL     OW39564  14.565   6.752  11.725
12597SOL    HW139565  14.614   6.790  11.798
12597SOL    HW239566  14.498   6.817  11.704
12598SOL     OW39567  12.991   9.587   5.676
12598SOL    HW139568  13.060   9.567   5.614
12598SOL    HW239569  13.032   9.647   5.739
12599SOL     OW39570   6.103   4.663  12.728
12599SOL    HW139571   6.188   4.649  12.686
12599SOL    HW239572   6.120   4.651  12.821
12600SOL     OW39573   7.145  13.042  13.690
12600SOL    HW139574   7.168  12.993  13.769
12600SOL    HW239575   7.228  13.079  13.660
12601SOL     OW39576   3.683   2.498   4.211
12601SOL    HW139577   3.647   2.421   4.254
12601SOL    HW239578   3.637   2.502   4.127
12602SOL     OW39579   2.638   4.008   0.283
12602SOL    HW139580   2.565   3.951   0.258
12602SOL    HW239581   2.707   3.988   0.219
12603SOL     OW39582  14.236   8.616   7.934
12603SOL    HW139583  14.193   8.654   8.010
12603SOL    HW239584  14.166   8.577   7.882
12604SOL     OW39585   0.503   1.876   2.858
12604SOL    HW139586   0.412   1.848   2.861
12604SOL    HW239587   0.501   1.962   2.815
12605SOL     OW39588   7.622   2.377   9.850
12605SOL    HW139589   7.536   2.338   9.834
12605SOL    HW239590   7.683   2.304   9.846
12606SOL     OW39591  11.034  10.399   2.830
12606SOL    HW139592  11.001  10.350   2.906
12606SOL    HW239593  10.957  10.406   2.772
12607SOL     OW39594   2.913   1.984   8.693
12607SOL    HW139595   2.973   1.959   8.763
12607SOL    HW239596   2.941   1.933   8.617
12608SOL     OW39597  11.653   2.561   9.638
12608SOL    HW139598  11.594   2.635   9.633
12608SOL    HW239599  11.642   2.515   9.554
12609SOL     OW39600   6.506  14.652   9.138
12609SOL    HW139601   6.418  14.657   9.174
12609SOL    HW239602   6.493  14.644   9.044
12610SOL     OW39603  12.591  13.673  14.767
12610SOL    HW139604  12.568  13.594  14.817
12610SOL    HW239605  12.679  13.696  14.798
12611SOL     OW39606  10.899  13.654   2.785
12611SOL    HW139607  10.891  13.745   2.812
12611SOL    HW239608  10.868  13.603   2.860
12612SOL     OW39609  10.924   1.866   1.394
12612SOL    HW139610  10.857   1.819   1.444
12612SOL    HW239611  10.954   1.936   1.453
12613SOL     OW39612   4.402   5.801   9.827
12613SOL    HW139613   4.456   5.793   9.906
12613SOL    HW239614   4.465   5.816   9.756
12614SOL     OW39615   9.883   4.450   4.671
12614SOL    HW139616   9.932   4.369   4.659
12614SOL    HW239617   9.809   4.443   4.611
12615SOL     OW39618   0.651   5.304   1.356
12615SOL    HW139619   0.589   5.231   1.356
12615SOL    HW239620   0.688   5.303   1.445
12616SOL     OW39621   5.150   1.761  13.404
12616SOL    HW139622   5.076   1.719  13.358
12616SOL    HW239623   5.137   1.855  13.389
12617SOL     OW39624   2.823   8.886   6.999
12617SOL    HW139625   2.914   8.882   7.030
12617SOL    HW239626   2.813   8.975   6.966
12618SOL     OW39627   1.493  13.346   1.452
12618SOL    HW139628   1.530  13.263   1.484
12618SOL    HW239629   1.425  13.319   1.390
12619SOL     OW39630   8.298   4.035  13.503
12619SOL    HW139631   8.237   3.991  13.562
12619SOL    HW239632   8.313   4.121  13.544
12620SOL     OW39633   1.445  14.272   6.635
12620SOL    HW139634   1.487  14.357   6.648
12620SOL    HW239635   1.491  14.234   6.560
12621SOL     OW39636   9.271   3.716   8.722
12621SOL    HW139637   9.295   3.691   8.633
12621SOL    HW239638   9.311   3.802   8.735
12622SOL     OW39639   0.689   3.961   1.996
12622SOL    HW139640   0.677   3.952   1.902
12622SOL    HW239641   0.607   4.000   2.027
12623SOL     OW39642  14.558  10.203  13.574
12623SOL    HW139643  14.551  10.178  13.666
12623SOL    HW239644  14.538  10.296  13.572
12624SOL     OW39645   2.408   1.188   6.601
12624SOL    HW139646   2.450   1.103   6.601
12624SOL    HW239647   2.394   1.208   6.508
12625SOL     OW39648  11.663  13.716  12.142
12625SOL    HW139649  11.694  13.801  12.174
12625SOL    HW239650  11.736  13.682  12.090
12626SOL     OW39651   3.906  11.801  13.257
12626SOL    HW139652   3.897  11.726  13.317
12626SOL    HW239653   4.000  11.821  13.259
12627SOL     OW39654   3.265   3.513   2.735
12627SOL    HW139655   3.180   3.503   2.779
12627SOL    HW239656   3.328   3.473   2.794
12628SOL     OW39657  12.822   0.223  11.043
12628SOL    HW139658  12.903   0.274  11.042
12628SOL    HW239659  12.833   0.162  11.116
12629SOL     OW39660   7.517   3.316   5.762
12629SOL    HW139661   7.487   3.403   5.737
12629SOL    HW239662   7.612   3.323   5.765
12630SOL     OW39663   8.463   4.661   1.334
12630SOL    HW139664   8.390   4.683   1.392
12630SOL    HW239665   8.472   4.737   1.276
12631SOL     OW39666   2.019   6.293   7.573
12631SOL    HW139667   2.033   6.249   7.657
12631SOL    HW239668   2.039   6.385   7.590
12632SOL     OW39669  11.277   3.574   8.997
12632SOL    HW139670  11.364   3.591   8.960
12632SOL    HW239671  11.243   3.661   9.018
12633SOL     OW39672   6.639  12.259   5.014
12633SOL    HW139673   6.597  12.333   4.970
12633SOL    HW239674   6.730  12.286   5.025
12634SOL     OW39675  14.270   5.328   0.403
12634SOL    HW139676  14.336   5.387   0.368
12634SOL    HW239677  14.209   5.385   0.449
12635SOL     OW39678   5.960   9.615   4.306
12635SOL    HW139679   5.922   9.613   4.394
12635SOL    HW239680   6.003   9.700   4.301
12636SOL     OW39681  13.985   0.583   6.625
12636SOL    HW139682  13.890   0.575   6.622
12636SOL    HW239683  14.015   0.497   6.654
12637SOL     OW39684  11.217   6.178   5.924
12637SOL    HW139685  11.249   6.241   5.988
12637SOL    HW239686  11.123   6.195   5.919
12638SOL     OW39687   9.551   1.377   0.372
12638SOL    HW139688   9.533   1.453   0.427
12638SOL    HW239689   9.621   1.330   0.417
12639SOL     OW39690   0.722  13.552   2.451
12639SOL    HW139691   0.720  13.623   2.516
12639SOL    HW239692   0.771  13.482   2.494
12640SOL     OW39693  11.337   3.048  11.185
12640SOL    HW139694  11.306   3.097  11.261
12640SOL    HW239695  11.410   3.101  11.151
12641SOL     OW39696   9.177  13.704  12.621
12641SOL    HW139697   9.267  13.677  12.606
12641SOL    HW239698   9.175  13.795  12.592
12642SOL     OW39699  10.205  13.049   7.502
12642SOL    HW139700  10.259  13.117   7.464
12642SOL    HW239701  10.244  12.967   7.471
12643SOL     OW39702   4.851   7.288  14.735
12643SOL    HW139703   4.776   7.232  14.716
12643SOL    HW239704   4.886   7.255  14.818
12644SOL     OW39705   5.904   6.568  11.820
12644SOL    HW139706   5.821   6.585  11.865
12644SOL    HW239707   5.941   6.492  11.865
12645SOL     OW39708   3.112   3.811   8.150
12645SOL    HW139709   3.184   3.812   8.087
12645SOL    HW239710   3.149   3.770   8.228
12646SOL     OW39711  12.361   1.851   4.470
12646SOL    HW139712  12.269   1.829   4.457
12646SOL    HW239713  12.370   1.858   4.565
12647SOL     OW39714   4.287   4.043   6.537
12647SOL    HW139715   4.264   4.047   6.630
12647SOL    HW239716   4.268   4.130   6.503
12648SOL     OW39717   1.871  10.083  11.751
12648SOL    HW139718   1.912  10.076  11.665
12648SOL    HW239719   1.872  10.177  11.771
12649SOL     OW39720   0.607  10.350   3.016
12649SOL    HW139721   0.549  10.379   2.945
12649SOL    HW239722   0.556  10.362   3.096
12650SOL     OW39723  12.938   2.982   4.646
12650SOL    HW139724  12.932   2.963   4.552
12650SOL    HW239725  13.032   2.973   4.666
12651SOL     OW39726   5.886   4.428  11.302
12651SOL    HW139727   5.804   4.452  11.258
12651SOL    HW239728   5.902   4.502  11.362
12652SOL     OW39729  11.014   4.116   5.250
12652SOL    HW139730  11.100   4.083   5.276
12652SOL    HW239731  11.002   4.195   5.303
12653SOL     OW39732   0.530   6.751   0.017
12653SOL    HW139733   0.477   6.810  14.840
12653SOL    HW239734   0.465   6.701   0.067
12654SOL     OW39735   9.458  11.854   3.502
12654SOL    HW139736   9.450  11.786   3.435
12654SOL    HW239737   9.512  11.814   3.571
12655SOL     OW39738  11.444   8.447   4.237
12655SOL    HW139739  11.532   8.472   4.206
12655SOL    HW239740  11.391   8.443   4.158
12656SOL     OW39741  10.768   9.558   6.530
12656SOL    HW139742  10.761   9.591   6.440
12656SOL    HW239743  10.855   9.586   6.559
12657SOL     OW39744  11.417  11.891   5.603
12657SOL    HW139745  11.415  11.955   5.674
12657SOL    HW239746  11.334  11.845   5.610
12658SOL     OW39747  14.744   3.479   9.123
12658SOL    HW139748  14.777   3.389   9.125
12658SOL    HW239749  14.801   3.527   9.183
12659SOL     OW39750   7.705   1.326   1.733
12659SOL    HW139751   7.745   1.387   1.672
12659SOL    HW239752   7.660   1.262   1.677
12660SOL     OW39753  10.081   9.494   1.655
12660SOL    HW139754  10.122   9.420   1.609
12660SOL    HW239755  10.011   9.454   1.707
12661SOL     OW39756  11.301  10.935   1.211
12661SOL    HW139757  11.320  10.850   1.170
12661SOL    HW239758  11.231  10.972   1.157
12662SOL     OW39759  13.611  12.740   4.022
12662SOL    HW139760  13.629  12.727   3.929
12662SOL    HW239761  13.643  12.828   4.040
12663SOL     OW39762   2.229  12.364  14.825
12663SOL    HW139763   2.176  12.329   0.019
12663SOL    HW239764   2.317  12.333  14.843
12664SOL     OW39765   6.486  13.889  11.257
12664SOL    HW139766   6.564  13.919  11.211
12664SOL    HW239767   6.415  13.899  11.193
12665SOL     OW39768   6.327   1.067   7.278
12665SOL    HW139769   6.324   1.150   7.324
12665SOL    HW239770   6.413   1.031   7.298
12666SOL     OW39771   0.524  13.573   0.190
12666SOL    HW139772   0.592  13.625   0.234
12666SOL    HW239773   0.529  13.599   0.098
12667SOL     OW39774   7.814   4.241   7.820
12667SOL    HW139775   7.813   4.298   7.743
12667SOL    HW239776   7.760   4.166   7.795
12668SOL     OW39777  10.989   1.825   3.237
12668SOL    HW139778  11.043   1.866   3.169
12668SOL    HW239779  10.991   1.732   3.216
12669SOL     OW39780   6.296  10.294   3.615
12669SOL    HW139781   6.380  10.249   3.612
12669SOL    HW239782   6.231  10.225   3.620
12670SOL     OW39783   0.951   1.908   9.511
12670SOL    HW139784   0.860   1.888   9.534
12670SOL    HW239785   0.945   1.952   9.427
12671SOL     OW39786   5.753   8.889  13.596
12671SOL    HW139787   5.720   8.802  13.575
12671SOL    HW239788   5.709   8.947  13.534
12672SOL     OW39789  10.590  10.856  13.553
12672SOL    HW139790  10.640  10.832  13.631
12672SOL    HW239791  10.501  10.828  13.572
12673SOL     OW39792   7.320   9.751   3.473
12673SOL    HW139793   7.406   9.779   3.502
12673SOL    HW239794   7.267   9.831   3.472
12674SOL     OW39795  11.891  11.934   2.656
12674SOL    HW139796  11.845  11.883   2.590
12674SOL    HW239797  11.920  11.870   2.721
12675SOL     OW39798  13.273   7.902  14.653
12675SOL    HW139799  13.276   7.958  14.731
12675SOL    HW239800  13.315   7.954  14.584
12676SOL     OW39801   1.070   6.772   7.149
12676SOL    HW139802   1.045   6.858   7.116
12676SOL    HW239803   0.990   6.720   7.142
12677SOL     OW39804  11.530   8.928   1.551
12677SOL    HW139805  11.511   8.961   1.639
12677SOL    HW239806  11.476   8.848   1.544
12678SOL     OW39807   8.750   9.128   5.912
12678SOL    HW139808   8.696   9.140   5.990
12678SOL    HW239809   8.711   9.187   5.847
12679SOL     OW39810   5.236  11.488  14.200
12679SOL    HW139811   5.200  11.403  14.224
12679SOL    HW239812   5.319  11.493  14.246
12680SOL     OW39813   8.718   4.618  14.501
12680SOL    HW139814   8.726   4.535  14.550
12680SOL    HW239815   8.801   4.627  14.455
12681SOL     OW39816   2.476   3.667   3.360
12681SOL    HW139817   2.402   3.721   3.390
12681SOL    HW239818   2.468   3.586   3.410
12682SOL     OW39819  10.829  14.037   0.608
12682SOL    HW139820  10.906  14.060   0.556
12682SOL    HW239821  10.785  14.120   0.623
12683SOL     OW39822  14.773   4.744   9.496
12683SOL    HW139823  14.705   4.729   9.562
12683SOL    HW239824  14.761   4.835   9.471
12684SOL     OW39825  11.183   6.725   3.682
12684SOL    HW139826  11.155   6.648   3.732
12684SOL    HW239827  11.160   6.704   3.591
12685SOL     OW39828   3.572  13.008   6.495
12685SOL    HW139829   3.616  13.093   6.497
12685SOL    HW239830   3.534  13.003   6.407
12686SOL     OW39831  13.434  11.797  13.075
12686SOL    HW139832  13.438  11.893  13.077
12686SOL    HW239833  13.492  11.772  13.003
12687SOL     OW39834   0.495   9.445  14.819
12687SOL    HW139835   0.529   9.359  14.845
12687SOL    HW239836   0.533   9.506   0.005
12688SOL     OW39837   1.337  10.748   9.819
12688SOL    HW139838   1.371  10.718   9.735
12688SOL    HW239839   1.391  10.824   9.841
12689SOL     OW39840   5.317   6.110   8.358
12689SOL    HW139841   5.379   6.181   8.374
12689SOL    HW239842   5.372   6.035   8.335
12690SOL     OW39843  12.826  11.919  13.513
12690SOL    HW139844  12.737  11.888  13.533
12690SOL    HW239845  12.840  11.991  13.574
12691SOL     OW39846   4.653   3.575   3.407
12691SOL    HW139847   4.588   3.645   3.402
12691SOL    HW239848   4.729   3.609   3.359
12692SOL     OW39849   6.637   3.490  10.953
12692SOL    HW139850   6.706   3.526  10.897
12692SOL    HW239851   6.597   3.422  10.900
12693SOL     OW39852   0.372   6.675  11.333
12693SOL    HW139853   0.304   6.742  11.324
12693SOL    HW239854   0.347   6.608  11.270
12694SOL     OW39855   3.405   7.598   4.334
12694SOL    HW139856   3.464   7.632   4.401
12694SOL    HW239857   3.426   7.649   4.256
12695SOL     OW39858   2.302   3.005  10.194
12695SOL    HW139859   2.280   2.917  10.162
12695SOL    HW239860   2.352   3.045  10.123
12696SOL     OW39861   6.061   3.411   0.758
12696SOL    HW139862   6.121   3.352   0.804
12696SOL    HW239863   6.074   3.391   0.665
12697SOL     OW39864   7.943  11.213  11.671
12697SOL    HW139865   8.019  11.264  11.700
12697SOL    HW239866   7.870  11.276  11.672
12698SOL     OW39867  13.031   8.243   2.038
12698SOL    HW139868  13.029   8.191   2.118
12698SOL    HW239869  12.957   8.211   1.986
12699SOL     OW39870   5.725   0.281  11.750
12699SOL    HW139871   5.787   0.308  11.817
12699SOL    HW239872   5.694   0.363  11.711
12700SOL     OW39873  14.733  11.493   9.436
12700SOL    HW139874  14.719  11.454   9.523
12700SOL    HW239875  14.826  11.478   9.418
12701SOL     OW39876  10.967  10.408   9.415
12701SOL    HW139877  10.956  10.498   9.385
12701SOL    HW239878  11.062  10.394   9.415
12702SOL     OW39879   3.540   3.531   2.907
12702SOL    HW139880   3.515   3.439   2.894
12702SOL    HW239881   3.465   3.570   2.952
12703SOL     OW39882   3.949   8.242   7.602
12703SOL    HW139883   3.855   8.242   7.583
12703SOL    HW239884   3.955   8.270   7.693
12704SOL     OW39885   7.508   5.595  10.503
12704SOL    HW139886   7.534   5.664  10.442
12704SOL    HW239887   7.496   5.517  10.449
12705SOL     OW39888   1.162   5.580  10.713
12705SOL    HW139889   1.211   5.661  10.723
12705SOL    HW239890   1.192   5.543  10.630
12706SOL     OW39891   7.427   7.388   2.206
12706SOL    HW139892   7.343   7.344   2.196
12706SOL    HW239893   7.406   7.481   2.200
12707SOL     OW39894   6.392   9.134   5.326
12707SOL    HW139895   6.406   9.080   5.403
12707SOL    HW239896   6.464   9.112   5.267
12708SOL     OW39897  10.575  11.585  14.713
12708SOL    HW139898  10.635  11.557  14.782
12708SOL    HW239899  10.488  11.577  14.752
12709SOL     OW39900   1.986   7.616   8.113
12709SOL    HW139901   1.952   7.686   8.057
12709SOL    HW239902   1.949   7.536   8.076
12710SOL     OW39903  10.661   9.357   0.099
12710SOL    HW139904  10.683   9.346   0.191
12710SOL    HW239905  10.663   9.452   0.086
12711SOL     OW39906   5.146  12.941   8.239
12711SOL    HW139907   5.086  12.907   8.172
12711SOL    HW239908   5.103  12.921   8.322
12712SOL     OW39909   6.940  11.881   7.854
12712SOL    HW139910   6.884  11.946   7.896
12712SOL    HW239911   7.002  11.856   7.922
12713SOL     OW39912   3.368   2.352  13.689
12713SOL    HW139913   3.460   2.338  13.713
12713SOL    HW239914   3.370   2.365  13.594
12714SOL     OW39915  12.039  13.354   7.859
12714SOL    HW139916  12.042  13.372   7.765
12714SOL    HW239917  11.985  13.424   7.895
12715SOL     OW39918   4.453   0.929  11.652
12715SOL    HW139919   4.357   0.920  11.655
12715SOL    HW239920   4.485   0.841  11.634
12716SOL     OW39921   2.963  12.918   8.825
12716SOL    HW139922   3.011  12.887   8.902
12716SOL    HW239923   2.877  12.943   8.859
12717SOL     OW39924   7.708  10.792   6.846
12717SOL    HW139925   7.716  10.859   6.778
12717SOL    HW239926   7.724  10.838   6.928
12718SOL     OW39927   9.771   0.960  10.457
12718SOL    HW139928   9.742   1.017  10.386
12718SOL    HW239929   9.749   0.872  10.426
12719SOL     OW39930   4.513   9.900   0.754
12719SOL    HW139931   4.456   9.950   0.813
12719SOL    HW239932   4.573   9.966   0.717
12720SOL     OW39933   4.821  14.601   5.390
12720SOL    HW139934   4.789  14.667   5.452
12720SOL    HW239935   4.895  14.560   5.435
12721SOL     OW39936   4.335   8.293   2.882
12721SOL    HW139937   4.244   8.311   2.906
12721SOL    HW239938   4.330   8.253   2.795
12722SOL     OW39939   5.524  11.168  12.540
12722SOL    HW139940   5.531  11.086  12.490
12722SOL    HW239941   5.537  11.237  12.475
12723SOL     OW39942  13.638   4.046   6.602
12723SOL    HW139943  13.580   4.053   6.526
12723SOL    HW239944  13.687   3.965   6.588
12724SOL     OW39945   9.509   5.901  13.982
12724SOL    HW139946   9.492   5.845  13.907
12724SOL    HW239947   9.535   5.985  13.944
12725SOL     OW39948  11.970  12.903  13.368
12725SOL    HW139949  12.004  12.814  13.369
12725SOL    HW239950  11.965  12.926  13.275
12726SOL     OW39951  13.310   9.881   7.941
12726SOL    HW139952  13.305   9.793   7.903
12726SOL    HW239953  13.312   9.940   7.865
12727SOL     OW39954  12.941   0.712   4.740
12727SOL    HW139955  12.967   0.798   4.708
12727SOL    HW239956  12.926   0.725   4.834
12728SOL     OW39957   8.124   0.964   9.855
12728SOL    HW139958   8.158   0.928   9.937
12728SOL    HW239959   8.156   0.905   9.787
12729SOL     OW39960   3.370   3.167   8.169
12729SOL    HW139961   3.444   3.155   8.110
12729SOL    HW239962   3.354   3.262   8.168
12730SOL     OW39963   5.154  14.784   9.394
12730SOL    HW139964   5.210  14.719   9.352
12730SOL    HW239965   5.208  14.864   9.396
12731SOL     OW39966   8.267   6.433   6.337
12731SOL    HW139967   8.280   6.338   6.341
12731SOL    HW239968   8.330   6.464   6.272
12732SOL     OW39969   5.983   2.725   0.464
12732SOL    HW139970   5.914   2.791   0.461
12732SOL    HW239971   6.045   2.751   0.396
12733SOL     OW39972  10.551   5.007   0.068
12733SOL    HW139973  10.479   5.064   0.039
12733SOL    HW239974  10.546   5.010   0.164
12734SOL     OW39975  10.759   3.509   9.240
12734SOL    HW139976  10.840   3.530   9.193
12734SOL    HW239977  10.726   3.431   9.195
12735SOL     OW39978   1.092   3.735   0.070
12735SOL    HW139979   1.034   3.811   0.060
12735SOL    HW239980   1.051   3.682   0.138
12736SOL     OW39981  11.741   6.937   9.111
12736SOL    HW139982  11.653   6.937   9.073
12736SOL    HW239983  11.740   6.863   9.173
12737SOL     OW39984   1.911  12.937   7.976
12737SOL    HW139985   1.930  12.988   8.055
12737SOL    HW239986   1.826  12.970   7.946
12738SOL     OW39987  12.633  14.763   5.185
12738SOL    HW139988  12.604  14.852   5.208
12738SOL    HW239989  12.579  14.705   5.239
12739SOL     OW39990  10.753  12.570  14.533
12739SOL    HW139991  10.822  12.579  14.467
12739SOL    HW239992  10.798  12.529  14.608
12740SOL     OW39993  12.100  10.945   3.769
12740SOL    HW139994  12.005  10.938   3.772
12740SOL    HW239995  12.117  11.037   3.748
12741SOL     OW39996   0.244   8.664   3.638
12741SOL    HW139997   0.160   8.618   3.633
12741SOL    HW239998   0.233   8.742   3.584
12742SOL     OW39999   1.519   6.767   4.357
12742SOL    HW140000   1.423   6.774   4.350
12742SOL    HW240001   1.552   6.826   4.289
12743SOL     OW40002  12.854  14.288   9.363
12743SOL    HW140003  12.904  14.216   9.400
12743SOL    HW240004  12.888  14.366   9.407
12744SOL     OW40005   2.451   0.202   2.887
12744SOL    HW140006   2.448   0.289   2.926
12744SOL    HW240007   2.481   0.217   2.797
12745SOL     OW40008  14.450   0.698  12.567
12745SOL    HW140009  14.467   0.622  12.622
12745SOL    HW240010  14.429   0.661  12.481
12746SOL     OW40011   8.792   9.503   4.558
12746SOL    HW140012   8.744   9.507   4.641
12746SOL    HW240013   8.754   9.429   4.512
12747SOL     OW40014   1.594   7.130   1.574
12747SOL    HW140015   1.530   7.197   1.601
12747SOL    HW240016   1.563   7.101   1.488
12748SOL     OW40017   2.149   3.240   9.717
12748SOL    HW140018   2.079   3.292   9.678
12748SOL    HW240019   2.215   3.234   9.648
12749SOL     OW40020  12.520  11.479  10.024
12749SOL    HW140021  12.436  11.459   9.982
12749SOL    HW240022  12.517  11.433  10.108
12750SOL     OW40023   4.996   1.643  11.744
12750SOL    HW140024   4.921   1.618  11.797
12750SOL    HW240025   4.960   1.654  11.656
12751SOL     OW40026   6.261  14.187   6.232
12751SOL    HW140027   6.234  14.180   6.323
12751SOL    HW240028   6.329  14.120   6.221
12752SOL     OW40029  10.688   8.911  10.660
12752SOL    HW140030  10.739   8.858  10.598
12752SOL    HW240031  10.614   8.943  10.608
12753SOL     OW40032   0.595   7.028  11.926
12753SOL    HW140033   0.678   6.989  11.956
12753SOL    HW240034   0.618   7.118  11.903
12754SOL     OW40035  13.409   5.399  14.606
12754SOL    HW140036  13.325   5.353  14.603
12754SOL    HW240037  13.398   5.473  14.546
12755SOL     OW40038  12.306   4.712   3.178
12755SOL    HW140039  12.235   4.681   3.122
12755SOL    HW240040  12.297   4.661   3.259
12756SOL     OW40041   4.556  13.234   0.169
12756SOL    HW140042   4.650  13.216   0.168
12756SOL    HW240043   4.535  13.262   0.080
12757SOL     OW40044  11.270   9.690   4.217
12757SOL    HW140045  11.306   9.722   4.134
12757SOL    HW240046  11.229   9.767   4.256
12758SOL     OW40047   6.043   9.054   5.681
12758SOL    HW140048   6.051   9.149   5.683
12758SOL    HW240049   6.129   9.022   5.707
12759SOL     OW40050   2.143  11.055   3.779
12759SOL    HW140051   2.223  11.064   3.726
12759SOL    HW240052   2.172  11.071   3.869
12760SOL     OW40053   2.034   3.324   7.790
12760SOL    HW140054   2.032   3.325   7.885
12760SOL    HW240055   2.007   3.235   7.766
12761SOL     OW40056   9.959   3.906  13.430
12761SOL    HW140057   9.997   3.917  13.517
12761SOL    HW240058  10.032   3.918  13.369
12762SOL     OW40059   6.479   0.753   1.966
12762SOL    HW140060   6.491   0.846   1.985
12762SOL    HW240061   6.387   0.736   1.986
12763SOL     OW40062  13.779   1.641   8.875
12763SOL    HW140063  13.706   1.651   8.814
12763SOL    HW240064  13.848   1.599   8.823
12764SOL     OW40065  11.575   8.950  10.594
12764SOL    HW140066  11.565   8.878  10.656
12764SOL    HW240067  11.647   9.002  10.629
12765SOL     OW40068  12.878   9.786   9.483
12765SOL    HW140069  12.860   9.699   9.519
12765SOL    HW240070  12.809   9.799   9.417
12766SOL     OW40071   9.916   7.344   5.909
12766SOL    HW140072   9.832   7.372   5.944
12766SOL    HW240073   9.981   7.379   5.970
12767SOL     OW40074   7.389   4.068   4.071
12767SOL    HW140075   7.368   4.086   3.979
12767SOL    HW240076   7.402   4.154   4.110
12768SOL     OW40077   0.665  12.020   5.877
12768SOL    HW140078   0.628  11.936   5.905
12768SOL    HW240079   0.727  12.043   5.945
12769SOL     OW40080   7.734   9.017   8.985
12769SOL    HW140081   7.739   9.112   8.979
12769SOL    HW240082   7.820   8.986   8.958
12770SOL     OW40083  11.466  13.684   5.168
12770SOL    HW140084  11.503  13.598   5.189
12770SOL    HW240085  11.542  13.736   5.140
12771SOL     OW40086  12.272   4.999   1.589
12771SOL    HW140087  12.277   5.085   1.548
12771SOL    HW240088  12.344   4.998   1.652
12772SOL     OW40089   1.669   6.852  14.693
12772SOL    HW140090   1.650   6.759  14.686
12772SOL    HW240091   1.669   6.870  14.787
12773SOL     OW40092   7.456  11.902   6.861
12773SOL    HW140093   7.498  11.944   6.787
12773SOL    HW240094   7.526  11.889   6.925
12774SOL     OW40095   7.636   3.172  14.004
12774SOL    HW140096   7.562   3.113  13.989
12774SOL    HW240097   7.658   3.205  13.917
12775SOL     OW40098   0.646   0.265   2.132
12775SOL    HW140099   0.611   0.335   2.077
12775SOL    HW240100   0.720   0.230   2.082
12776SOL     OW40101   9.001  11.775   5.461
12776SOL    HW140102   9.096  11.773   5.478
12776SOL    HW240103   8.983  11.867   5.441
12777SOL     OW40104  14.262   9.627  10.662
12777SOL    HW140105  14.213   9.591  10.735
12777SOL    HW240106  14.353   9.604  10.680
12778SOL     OW40107   7.035   2.574   8.871
12778SOL    HW140108   7.119   2.539   8.899
12778SOL    HW240109   6.972   2.505   8.893
12779SOL     OW40110   2.781   6.892   3.783
12779SOL    HW140111   2.714   6.960   3.785
12779SOL    HW240112   2.751   6.827   3.847
12780SOL     OW40113   8.487   6.080   6.851
12780SOL    HW140114   8.565   6.102   6.799
12780SOL    HW240115   8.414   6.117   6.801
12781SOL     OW40116   4.391   0.593   3.247
12781SOL    HW140117   4.462   0.530   3.234
12781SOL    HW240118   4.374   0.627   3.159
12782SOL     OW40119   2.857  12.921   4.783
12782SOL    HW140120   2.933  12.885   4.828
12782SOL    HW240121   2.811  12.845   4.748
12783SOL     OW40122   9.573   9.060   9.830
12783SOL    HW140123   9.574   9.052   9.735
12783SOL    HW240124   9.534   9.146   9.846
12784SOL     OW40125   8.157   3.189   9.673
12784SOL    HW140126   8.136   3.106   9.717
12784SOL    HW240127   8.163   3.166   9.580
12785SOL     OW40128   2.192  14.518   6.257
12785SOL    HW140129   2.241  14.484   6.181
12785SOL    HW240130   2.117  14.563   6.219
12786SOL     OW40131   3.855  10.270   2.622
12786SOL    HW140132   3.880  10.307   2.707
12786SOL    HW240133   3.765  10.240   2.634
12787SOL     OW40134  11.735  14.360   5.878
12787SOL    HW140135  11.745  14.442   5.927
12787SOL    HW240136  11.822  14.342   5.843
12788SOL     OW40137  10.091  14.217   9.254
12788SOL    HW140138  10.000  14.217   9.283
12788SOL    HW240139  10.140  14.250   9.330
12789SOL     OW40140   9.451   9.884   6.848
12789SOL    HW140141   9.457   9.805   6.901
12789SOL    HW240142   9.531   9.932   6.866
12790SOL     OW40143   2.511  12.334   5.815
12790SOL    HW140144   2.432  12.388   5.811
12790SOL    HW240145   2.487  12.261   5.872
12791SOL     OW40146   5.709   6.188   7.726
12791SOL    HW140147   5.744   6.178   7.814
12791SOL    HW240148   5.737   6.275   7.698
12792SOL     OW40149  13.921   0.689  14.107
12792SOL    HW140150  13.829   0.681  14.080
12792SOL    HW240151  13.968   0.628  14.050
12793SOL     OW40152   8.649  11.928  10.938
12793SOL    HW140153   8.708  12.002  10.956
12793SOL    HW240154   8.707  11.856  10.916
12794SOL     OW40155   7.488  11.373   9.352
12794SOL    HW140156   7.491  11.417   9.267
12794SOL    HW240157   7.578  11.376   9.384
12795SOL     OW40158   0.478  11.293   3.948
12795SOL    HW140159   0.428  11.366   3.911
12795SOL    HW240160   0.568  11.325   3.952
12796SOL     OW40161   9.673  14.041   1.493
12796SOL    HW140162   9.753  14.057   1.442
12796SOL    HW240163   9.685  14.092   1.573
12797SOL     OW40164   7.828   3.701   7.623
12797SOL    HW140165   7.922   3.717   7.613
12797SOL    HW240166   7.807   3.735   7.710
12798SOL     OW40167   3.527  13.435  12.466
12798SOL    HW140168   3.495  13.524  12.448
12798SOL    HW240169   3.584  13.415  12.391
12799SOL     OW40170   7.552  11.460   6.398
12799SOL    HW140171   7.600  11.409   6.463
12799SOL    HW240172   7.545  11.547   6.436
12800SOL     OW40173   2.366   4.035   7.518
12800SOL    HW140174   2.426   4.007   7.586
12800SOL    HW240175   2.402   3.999   7.437
12801SOL     OW40176   0.500   3.128   9.945
12801SOL    HW140177   0.523   3.060   9.881
12801SOL    HW240178   0.489   3.207   9.892
12802SOL     OW40179   4.530   2.496   5.148
12802SOL    HW140180   4.557   2.499   5.056
12802SOL    HW240181   4.604   2.456   5.193
12803SOL     OW40182   4.881  14.460   8.020
12803SOL    HW140183   4.916  14.378   7.984
12803SOL    HW240184   4.917  14.528   7.963
12804SOL     OW40185  11.785  14.546   6.300
12804SOL    HW140186  11.778  14.641   6.308
12804SOL    HW240187  11.717  14.512   6.358
12805SOL     OW40188  10.997   9.785   2.481
12805SOL    HW140189  10.946   9.707   2.461
12805SOL    HW240190  10.972   9.848   2.414
12806SOL     OW40191   5.112   8.601   4.620
12806SOL    HW140192   5.116   8.663   4.693
12806SOL    HW240193   5.182   8.630   4.561
12807SOL     OW40194   9.525   3.985   6.275
12807SOL    HW140195   9.620   3.979   6.270
12807SOL    HW240196   9.494   3.896   6.260
12808SOL     OW40197   3.862  12.088  12.702
12808SOL    HW140198   3.810  12.039  12.766
12808SOL    HW240199   3.937  12.033  12.684
12809SOL     OW40200   1.678   9.430   7.436
12809SOL    HW140201   1.607   9.465   7.490
12809SOL    HW240202   1.738   9.391   7.499
12810SOL     OW40203   9.872  14.625   0.008
12810SOL    HW140204   9.806  14.630  14.816
12810SOL    HW240205   9.914  14.540  14.872
12811SOL     OW40206   2.140  11.730   1.647
12811SOL    HW140207   2.146  11.824   1.664
12811SOL    HW240208   2.228  11.697   1.664
12812SOL     OW40209   6.463   6.651  12.685
12812SOL    HW140210   6.513   6.725  12.720
12812SOL    HW240211   6.506   6.629  12.603
12813SOL     OW40212   2.182  12.577  13.157
12813SOL    HW140213   2.125  12.530  13.096
12813SOL    HW240214   2.152  12.550  13.244
12814SOL     OW40215  12.924   4.150   1.154
12814SOL    HW140216  12.890   4.068   1.118
12814SOL    HW240217  12.874   4.218   1.110
12815SOL     OW40218   8.861   2.178   6.642
12815SOL    HW140219   8.834   2.126   6.566
12815SOL    HW240220   8.956   2.167   6.646
12816SOL     OW40221  14.313  12.464  11.942
12816SOL    HW140222  14.334  12.389  11.886
12816SOL    HW240223  14.249  12.514  11.891
12817SOL     OW40224   8.974   3.949   3.680
12817SOL    HW140225   8.917   3.934   3.604
12817SOL    HW240226   9.057   3.977   3.643
12818SOL     OW40227   2.941   4.526  11.758
12818SOL    HW140228   2.848   4.539  11.741
12818SOL    HW240229   2.973   4.477  11.682
12819SOL     OW40230   6.570   9.938   9.761
12819SOL    HW140231   6.510  10.009   9.742
12819SOL    HW240232   6.653   9.964   9.721
12820SOL     OW40233  12.502  13.961   1.311
12820SOL    HW140234  12.587  13.984   1.349
12820SOL    HW240235  12.443  14.030   1.342
12821SOL     OW40236  11.277  11.914   7.854
12821SOL    HW140237  11.273  11.915   7.758
12821SOL    HW240238  11.297  11.822   7.876
12822SOL     OW40239   5.537   8.464  13.266
12822SOL    HW140240   5.523   8.400  13.336
12822SOL    HW240241   5.451   8.471  13.223
12823SOL     OW40242  12.488  10.683   5.148
12823SOL    HW140243  12.532  10.674   5.233
12823SOL    HW240244  12.519  10.608   5.097
12824SOL     OW40245   3.136   2.465  14.423
12824SOL    HW140246   3.114   2.437  14.334
12824SOL    HW240247   3.060   2.514  14.452
12825SOL     OW40248   5.965   6.924   2.751
12825SOL    HW140249   5.976   6.895   2.661
12825SOL    HW240250   5.967   7.019   2.747
12826SOL     OW40251  10.265   3.015  12.296
12826SOL    HW140252  10.339   3.008  12.356
12826SOL    HW240253  10.305   3.009  12.208
12827SOL     OW40254  13.345   5.503  10.292
12827SOL    HW140255  13.286   5.427  10.284
12827SOL    HW240256  13.403   5.495  10.217
12828SOL     OW40257  11.779  10.359   8.453
12828SOL    HW140258  11.837  10.434   8.465
12828SOL    HW240259  11.746  10.340   8.541
12829SOL     OW40260   6.563   9.026   7.688
12829SOL    HW140261   6.481   8.996   7.727
12829SOL    HW240262   6.630   8.969   7.725
12830SOL     OW40263   7.324  14.598   6.159
12830SOL    HW140264   7.245  14.609   6.106
12830SOL    HW240265   7.375  14.677   6.142
12831SOL     OW40266   7.942   0.210  10.106
12831SOL    HW140267   8.037   0.193  10.104
12831SOL    HW240268   7.903   0.125  10.128
12832SOL     OW40269   1.324  14.086   3.795
12832SOL    HW140270   1.343  14.174   3.762
12832SOL    HW240271   1.247  14.058   3.746
12833SOL     OW40272   9.471   4.571  14.477
12833SOL    HW140273   9.434   4.616  14.402
12833SOL    HW240274   9.438   4.481  14.470
12834SOL     OW40275   0.068   6.836   2.831
12834SOL    HW140276   0.022   6.911   2.794
12834SOL    HW240277   0.110   6.793   2.757
12835SOL     OW40278   1.182   2.272   9.734
12835SOL    HW140279   1.173   2.339   9.666
12835SOL    HW240280   1.166   2.190   9.689
12836SOL     OW40281   4.854   3.229   6.049
12836SOL    HW140282   4.805   3.285   6.110
12836SOL    HW240283   4.810   3.144   6.055
12837SOL     OW40284   9.417   0.912  11.867
12837SOL    HW140285   9.392   0.930  11.957
12837SOL    HW240286   9.503   0.952  11.857
12838SOL     OW40287   5.725   9.405   1.032
12838SOL    HW140288   5.797   9.444   0.982
12838SOL    HW240289   5.646   9.437   0.988
12839SOL     OW40290  12.545   3.217  10.956
12839SOL    HW140291  12.524   3.186  10.868
12839SOL    HW240292  12.591   3.300  10.942
12840SOL     OW40293  14.313   7.962   7.775
12840SOL    HW140294  14.318   7.872   7.808
12840SOL    HW240295  14.388   7.970   7.717
12841SOL     OW40296   9.191   1.918  12.312
12841SOL    HW140297   9.264   1.942  12.255
12841SOL    HW240298   9.118   1.903  12.253
12842SOL     OW40299   6.060   2.266   3.042
12842SOL    HW140300   6.033   2.319   2.967
12842SOL    HW240301   6.141   2.223   3.013
12843SOL     OW40302   5.511  13.196  13.052
12843SOL    HW140303   5.549  13.203  13.139
12843SOL    HW240304   5.577  13.147  13.001
12844SOL     OW40305  12.058  12.002  12.484
12844SOL    HW140306  12.124  12.070  12.472
12844SOL    HW240307  11.986  12.046  12.530
12845SOL     OW40308   4.718   9.375   2.552
12845SOL    HW140309   4.782   9.420   2.497
12845SOL    HW240310   4.749   9.284   2.555
12846SOL     OW40311   8.528  13.383  10.646
12846SOL    HW140312   8.439  13.408  10.619
12846SOL    HW240313   8.542  13.432  10.727
12847SOL     OW40314  14.548   6.748   7.395
12847SOL    HW140315  14.488   6.771   7.465
12847SOL    HW240316  14.569   6.832   7.353
12848SOL     OW40317   2.507   8.876   4.450
12848SOL    HW140318   2.530   8.826   4.528
12848SOL    HW240319   2.473   8.811   4.389
12849SOL     OW40320   2.397   4.458  14.093
12849SOL    HW140321   2.363   4.515  14.162
12849SOL    HW240322   2.476   4.502  14.062
12850SOL     OW40323   5.838  13.132   3.264
12850SOL    HW140324   5.919  13.137   3.315
12850SOL    HW240325   5.771  13.109   3.328
12851SOL     OW40326   8.154  10.030   1.412
12851SOL    HW140327   8.115  10.060   1.494
12851SOL    HW240328   8.234   9.984   1.438
12852SOL     OW40329  11.391   8.500  13.641
12852SOL    HW140330  11.402   8.445  13.563
12852SOL    HW240331  11.312   8.465  13.683
12853SOL     OW40332   2.713   9.274   1.138
12853SOL    HW140333   2.791   9.245   1.185
12853SOL    HW240334   2.667   9.193   1.117
12854SOL     OW40335   8.306  11.979   2.711
12854SOL    HW140336   8.299  11.919   2.637
12854SOL    HW240337   8.302  11.922   2.788
12855SOL     OW40338   1.503   1.889   9.319
12855SOL    HW140339   1.430   1.889   9.258
12855SOL    HW240340   1.541   1.802   9.313
12856SOL     OW40341   8.987  12.726  10.480
12856SOL    HW140342   9.027  12.754  10.562
12856SOL    HW240343   8.899  12.761  10.483
12857SOL     OW40344   1.074   0.695   1.782
12857SOL    HW140345   1.009   0.686   1.713
12857SOL    HW240346   1.133   0.620   1.770
12858SOL     OW40347   0.203   4.003   7.620
12858SOL    HW140348   0.162   4.001   7.533
12858SOL    HW240349   0.165   4.081   7.662
12859SOL     OW40350  10.156  14.389  10.996
12859SOL    HW140351  10.222  14.456  11.013
12859SOL    HW240352  10.205  14.318  10.953
12860SOL     OW40353   2.694   3.805   2.734
12860SOL    HW140354   2.617   3.798   2.678
12860SOL    HW240355   2.768   3.790   2.675
12861SOL     OW40356   7.819  14.180   4.326
12861SOL    HW140357   7.749  14.118   4.305
12861SOL    HW240358   7.843  14.218   4.241
12862SOL     OW40359   1.691   0.792  11.374
12862SOL    HW140360   1.617   0.732  11.386
12862SOL    HW240361   1.671   0.866  11.431
12863SOL     OW40362   3.045   0.601   4.485
12863SOL    HW140363   3.107   0.535   4.517
12863SOL    HW240364   3.099   0.675   4.458
12864SOL     OW40365  10.343  12.548   9.059
12864SOL    HW140366  10.432  12.537   9.026
12864SOL    HW240367  10.355  12.570   9.152
12865SOL     OW40368  11.933   3.207   2.555
12865SOL    HW140369  11.974   3.222   2.640
12865SOL    HW240370  11.919   3.112   2.551
12866SOL     OW40371   6.858   0.712   7.712
12866SOL    HW140372   6.843   0.634   7.659
12866SOL    HW240373   6.877   0.679   7.799
12867SOL     OW40374   2.752  14.031   6.333
12867SOL    HW140375   2.788  13.956   6.379
12867SOL    HW240376   2.685  14.066   6.391
12868SOL     OW40377   8.081  14.057  11.797
12868SOL    HW140378   7.988  14.033  11.804
12868SOL    HW240379   8.084  14.119  11.724
12869SOL     OW40380   0.378  10.919   3.380
12869SOL    HW140381   0.327  10.950   3.305
12869SOL    HW240382   0.401  10.999   3.428
12870SOL     OW40383  12.699   9.883  14.653
12870SOL    HW140384  12.628   9.937  14.687
12870SOL    HW240385  12.732   9.932  14.577
12871SOL     OW40386   2.859   4.973   1.277
12871SOL    HW140387   2.799   4.941   1.344
12871SOL    HW240388   2.817   4.951   1.194
12872SOL     OW40389   4.585   4.281  11.054
12872SOL    HW140390   4.524   4.330  11.000
12872SOL    HW240391   4.664   4.336  11.057
12873SOL     OW40392   8.635   1.622   3.040
12873SOL    HW140393   8.610   1.642   3.131
12873SOL    HW240394   8.579   1.549   3.015
12874SOL     OW40395  13.536   4.010   2.391
12874SOL    HW140396  13.526   4.066   2.468
12874SOL    HW240397  13.470   3.942   2.403
12875SOL     OW40398   4.142   3.082   6.511
12875SOL    HW140399   4.136   3.019   6.583
12875SOL    HW240400   4.125   3.167   6.552
12876SOL     OW40401  10.761   1.893   1.117
12876SOL    HW140402  10.670   1.888   1.148
12876SOL    HW240403  10.813   1.899   1.197
12877SOL     OW40404   3.872   3.874   0.663
12877SOL    HW140405   3.878   3.896   0.570
12877SOL    HW240406   3.778   3.874   0.681
12878SOL     OW40407   2.662   7.811  10.102
12878SOL    HW140408   2.575   7.775  10.121
12878SOL    HW240409   2.715   7.734  10.081
12879SOL     OW40410   7.708  12.431   8.179
12879SOL    HW140411   7.737  12.458   8.266
12879SOL    HW240412   7.690  12.338   8.187
12880SOL     OW40413   4.666   7.744  11.109
12880SOL    HW140414   4.610   7.729  11.186
12880SOL    HW240415   4.675   7.839  11.105
12881SOL     OW40416   4.633   1.758   3.696
12881SOL    HW140417   4.707   1.704   3.668
12881SOL    HW240418   4.618   1.733   3.787
12882SOL     OW40419   1.983   7.651   5.920
12882SOL    HW140420   2.061   7.667   5.973
12882SOL    HW240421   1.945   7.738   5.905
12883SOL     OW40422   9.346   1.311   4.215
12883SOL    HW140423   9.434   1.314   4.253
12883SOL    HW240424   9.354   1.360   4.133
12884SOL     OW40425  11.344  11.604  14.326
12884SOL    HW140426  11.414  11.557  14.371
12884SOL    HW240427  11.311  11.666  14.391
12885SOL     OW40428   7.077   7.382   0.088
12885SOL    HW140429   6.989   7.355   0.115
12885SOL    HW240430   7.113   7.428   0.164
12886SOL     OW40431   9.328  11.708  11.130
12886SOL    HW140432   9.419  11.683  11.118
12886SOL    HW240433   9.332  11.793  11.175
12887SOL     OW40434  13.776  10.053   0.220
12887SOL    HW140435  13.837  10.126   0.220
12887SOL    HW240436  13.826   9.979   0.252
12888SOL     OW40437  13.357   4.038  11.292
12888SOL    HW140438  13.359   4.062  11.199
12888SOL    HW240439  13.440   4.071  11.327
12889SOL     OW40440   3.298   4.754  14.243
12889SOL    HW140441   3.259   4.721  14.324
12889SOL    HW240442   3.291   4.849  14.249
12890SOL     OW40443  13.104   5.712  11.282
12890SOL    HW140444  13.012   5.732  11.265
12890SOL    HW240445  13.105   5.670  11.368
12891SOL     OW40446   4.366   2.299  12.085
12891SOL    HW140447   4.271   2.287  12.092
12891SOL    HW240448   4.402   2.253  12.161
12892SOL     OW40449   5.798   5.175   6.318
12892SOL    HW140450   5.708   5.208   6.320
12892SOL    HW240451   5.800   5.107   6.386
12893SOL     OW40452   4.203  12.508  14.356
12893SOL    HW140453   4.133  12.500  14.421
12893SOL    HW240454   4.283  12.518  14.407
12894SOL     OW40455   7.827   1.519   2.863
12894SOL    HW140456   7.785   1.440   2.898
12894SOL    HW240457   7.757   1.565   2.817
12895SOL     OW40458   6.125   5.279   8.607
12895SOL    HW140459   6.205   5.277   8.659
12895SOL    HW240460   6.156   5.283   8.516
12896SOL     OW40461   4.969   7.867   8.327
12896SOL    HW140462   4.942   7.857   8.235
12896SOL    HW240463   4.983   7.778   8.358
12897SOL     OW40464  12.387   8.262  12.211
12897SOL    HW140465  12.388   8.187  12.270
12897SOL    HW240466  12.325   8.323  12.251
12898SOL     OW40467   9.030   7.405  11.088
12898SOL    HW140468   9.100   7.345  11.063
12898SOL    HW240469   8.965   7.397  11.019
12899SOL     OW40470   8.880   7.138   2.255
12899SOL    HW140471   8.946   7.148   2.186
12899SOL    HW240472   8.796   7.145   2.209
12900SOL     OW40473   9.708   0.577   0.634
12900SOL    HW140474   9.653   0.502   0.609
12900SOL    HW240475   9.783   0.538   0.679
12901SOL     OW40476   9.920   0.207  14.753
12901SOL    HW140477   9.955   0.118  14.753
12901SOL    HW240478   9.974   0.254  14.689
12902SOL     OW40479  11.669  12.409   9.378
12902SOL    HW140480  11.587  12.408   9.428
12902SOL    HW240481  11.734  12.443   9.438
12903SOL     OW40482  13.246   7.323  11.350
12903SOL    HW140483  13.182   7.255  11.330
12903SOL    HW240484  13.288   7.341  11.266
12904SOL     OW40485   7.150   7.767   4.273
12904SOL    HW140486   7.241   7.789   4.293
12904SOL    HW240487   7.136   7.682   4.315
12905SOL     OW40488   1.041  11.073  11.769
12905SOL    HW140489   1.015  10.994  11.817
12905SOL    HW240490   0.965  11.095  11.716
12906SOL     OW40491   7.041   9.378  11.695
12906SOL    HW140492   7.071   9.411  11.779
12906SOL    HW240493   7.121   9.356  11.648
12907SOL     OW40494   4.905   8.572   8.711
12907SOL    HW140495   4.946   8.492   8.744
12907SOL    HW240496   4.972   8.640   8.721
12908SOL     OW40497   3.330  10.330   7.438
12908SOL    HW140498   3.301  10.255   7.386
12908SOL    HW240499   3.306  10.406   7.385
12909SOL     OW40500   5.238   1.232   5.055
12909SOL    HW140501   5.158   1.284   5.053
12909SOL    HW240502   5.307   1.295   5.075
12910SOL     OW40503   2.959  14.610   1.074
12910SOL    HW140504   2.889  14.553   1.040
12910SOL    HW240505   3.029  14.550   1.099
12911SOL     OW40506   3.469   0.814  11.945
12911SOL    HW140507   3.499   0.776  11.862
12911SOL    HW240508   3.547   0.855  11.982
12912SOL     OW40509   2.609   8.588  10.683
12912SOL    HW140510   2.686   8.612  10.632
12912SOL    HW240511   2.643   8.571  10.771
12913SOL     OW40512  13.374   5.672  12.772
12913SOL    HW140513  13.428   5.650  12.848
12913SOL    HW240514  13.426   5.644  12.697
12914SOL     OW40515  10.718   3.673   8.656
12914SOL    HW140516  10.678   3.586   8.648
12914SOL    HW240517  10.809   3.655   8.676
12915SOL     OW40518   5.490   8.233  10.183
12915SOL    HW140519   5.577   8.218  10.146
12915SOL    HW240520   5.447   8.147  10.179
12916SOL     OW40521  11.014  13.141  14.636
12916SOL    HW140522  10.941  13.111  14.581
12916SOL    HW240523  11.020  13.235  14.620
12917SOL     OW40524  14.471   0.430  11.196
12917SOL    HW140525  14.516   0.470  11.271
12917SOL    HW240526  14.431   0.505  11.150
12918SOL     OW40527   1.979   6.565  14.497
12918SOL    HW140528   1.927   6.541  14.420
12918SOL    HW240529   2.062   6.519  14.486
12919SOL     OW40530  11.668   1.556   6.822
12919SOL    HW140531  11.731   1.489   6.851
12919SOL    HW240532  11.623   1.516   6.748
12920SOL     OW40533   5.309   6.838   9.021
12920SOL    HW140534   5.239   6.830   8.956
12920SOL    HW240535   5.338   6.929   9.014
12921SOL     OW40536   8.218   2.877   9.610
12921SOL    HW140537   8.244   2.788   9.634
12921SOL    HW240538   8.146   2.899   9.669
12922SOL     OW40539  13.851  10.055  12.035
12922SOL    HW140540  13.783  10.119  12.015
12922SOL    HW240541  13.932  10.106  12.038
12923SOL     OW40542   0.701   1.529   3.862
12923SOL    HW140543   0.651   1.611   3.854
12923SOL    HW240544   0.761   1.545   3.935
12924SOL     OW40545   8.330  10.797   8.286
12924SOL    HW140546   8.261  10.738   8.255
12924SOL    HW240547   8.328  10.786   8.381
12925SOL     OW40548   0.551   2.171  14.623
12925SOL    HW140549   0.526   2.132  14.539
12925SOL    HW240550   0.622   2.231  14.601
12926SOL     OW40551   6.482   8.248  11.530
12926SOL    HW140552   6.465   8.325  11.476
12926SOL    HW240553   6.578   8.244  11.537
12927SOL     OW40554  13.178   4.474  12.159
12927SOL    HW140555  13.144   4.385  12.168
12927SOL    HW240556  13.215   4.477  12.071
12928SOL     OW40557   9.419   6.483  12.550
12928SOL    HW140558   9.382   6.522  12.472
12928SOL    HW240559   9.396   6.390  12.544
12929SOL     OW40560   4.580   1.377  13.690
12929SOL    HW140561   4.485   1.377  13.677
12929SOL    HW240562   4.591   1.386  13.785
12930SOL     OW40563   2.885   1.453   1.528
12930SOL    HW140564   2.968   1.461   1.575
12930SOL    HW240565   2.886   1.364   1.493
12931SOL     OW40566   5.085  12.727   9.731
12931SOL    HW140567   5.107  12.654   9.788
12931SOL    HW240568   5.103  12.696   9.643
12932SOL     OW40569  12.190  10.033   5.740
12932SOL    HW140570  12.214   9.980   5.816
12932SOL    HW240571  12.097  10.013   5.725
12933SOL     OW40572   1.907  14.058  12.322
12933SOL    HW140573   1.912  14.074  12.228
12933SOL    HW240574   1.901  13.963  12.331
12934SOL     OW40575  11.689  14.528  11.524
12934SOL    HW140576  11.751  14.522  11.598
12934SOL    HW240577  11.615  14.577  11.559
12935SOL     OW40578   8.326   6.577   2.079
12935SOL    HW140579   8.275   6.501   2.050
12935SOL    HW240580   8.360   6.615   1.998
12936SOL     OW40581   4.320  11.673   6.147
12936SOL    HW140582   4.338  11.758   6.107
12936SOL    HW240583   4.399  11.653   6.197
12937SOL     OW40584  13.484  10.635   0.880
12937SOL    HW140585  13.516  10.599   0.797
12937SOL    HW240586  13.433  10.565   0.919
12938SOL     OW40587   3.323  12.606   4.657
12938SOL    HW140588   3.285  12.693   4.643
12938SOL    HW240589   3.268  12.548   4.604
12939SOL     OW40590   7.603   3.607  12.635
12939SOL    HW140591   7.582   3.543  12.567
12939SOL    HW240592   7.519   3.651  12.652
12940SOL     OW40593  12.540   6.222   2.817
12940SOL    HW140594  12.541   6.227   2.721
12940SOL    HW240595  12.488   6.144   2.836
12941SOL     OW40596  10.972  12.364   8.116
12941SOL    HW140597  11.026  12.339   8.191
12941SOL    HW240598  11.033  12.402   8.053
12942SOL     OW40599   4.354   7.847  12.991
12942SOL    HW140600   4.355   7.901  12.912
12942SOL    HW240601   4.306   7.768  12.966
12943SOL     OW40602  14.243  10.227  13.219
12943SOL    HW140603  14.200  10.290  13.162
12943SOL    HW240604  14.313  10.277  13.262
12944SOL     OW40605  10.462  11.008  10.426
12944SOL    HW140606  10.557  11.022  10.419
12944SOL    HW240607  10.453  10.913  10.433
12945SOL     OW40608   5.636   4.012   0.554
12945SOL    HW140609   5.688   3.931   0.551
12945SOL    HW240610   5.602   4.022   0.466
12946SOL     OW40611   5.125  13.186  11.344
12946SOL    HW140612   5.203  13.238  11.366
12946SOL    HW240613   5.053  13.231  11.387
12947SOL     OW40614  14.679  11.977  12.768
12947SOL    HW140615  14.695  11.972  12.863
12947SOL    HW240616  14.687  12.070  12.748
12948SOL     OW40617   3.747   0.410   5.526
12948SOL    HW140618   3.743   0.448   5.614
12948SOL    HW240619   3.661   0.429   5.488
12949SOL     OW40620   1.572  10.836   8.560
12949SOL    HW140621   1.562  10.883   8.643
12949SOL    HW240622   1.582  10.906   8.495
12950SOL     OW40623  13.497  14.592   2.510
12950SOL    HW140624  13.424  14.609   2.570
12950SOL    HW240625  13.471  14.514   2.462
12951SOL     OW40626   2.402  10.053   4.369
12951SOL    HW140627   2.425  10.125   4.428
12951SOL    HW240628   2.319  10.020   4.403
12952SOL     OW40629   8.404   9.227  13.370
12952SOL    HW140630   8.328   9.243  13.426
12952SOL    HW240631   8.373   9.245  13.281
12953SOL     OW40632   5.647   3.043  12.196
12953SOL    HW140633   5.566   3.044  12.145
12953SOL    HW240634   5.624   3.088  12.277
12954SOL     OW40635   8.293  11.226  14.867
12954SOL    HW140636   8.381  11.246  14.837
12954SOL    HW240637   8.252  11.181  14.794
12955SOL     OW40638  10.346   4.359   1.819
12955SOL    HW140639  10.377   4.371   1.729
12955SOL    HW240640  10.425   4.367   1.873
12956SOL     OW40641   8.177  12.771  13.179
12956SOL    HW140642   8.181  12.689  13.129
12956SOL    HW240643   8.236  12.830  13.133
12957SOL     OW40644  10.902   5.313  11.229
12957SOL    HW140645  10.897   5.319  11.324
12957SOL    HW240646  10.845   5.383  11.197
12958SOL     OW40647   0.612   4.822   1.425
12958SOL    HW140648   0.597   4.848   1.334
12958SOL    HW240649   0.543   4.758   1.443
12959SOL     OW40650   8.976  10.522   1.184
12959SOL    HW140651   8.884  10.530   1.210
12959SOL    HW240652   8.974  10.476   1.100
12960SOL     OW40653   7.626   8.214  14.213
12960SOL    HW140654   7.605   8.279  14.145
12960SOL    HW240655   7.554   8.219  14.275
12961SOL     OW40656   6.036  11.165   8.683
12961SOL    HW140657   6.027  11.074   8.711
12961SOL    HW240658   6.082  11.208   8.756
12962SOL     OW40659   8.807  12.605  11.328
12962SOL    HW140660   8.852  12.616  11.244
12962SOL    HW240661   8.751  12.682  11.336
12963SOL     OW40662   1.842   5.441  11.982
12963SOL    HW140663   1.758   5.467  11.943
12963SOL    HW240664   1.888   5.396  11.911
12964SOL     OW40665   9.014  10.458  11.075
12964SOL    HW140666   9.071  10.508  11.133
12964SOL    HW240667   9.056  10.462  10.989
12965SOL     OW40668   2.038  11.413   8.987
12965SOL    HW140669   1.976  11.482   8.961
12965SOL    HW240670   2.074  11.381   8.904
12966SOL     OW40671   5.601  10.401   9.947
12966SOL    HW140672   5.571  10.367  10.031
12966SOL    HW240673   5.564  10.341   9.882
12967SOL     OW40674  13.263   6.614   9.216
12967SOL    HW140675  13.260   6.682   9.149
12967SOL    HW240676  13.333   6.642   9.275
12968SOL     OW40677   7.248   1.038   7.149
12968SOL    HW140678   7.191   1.066   7.220
12968SOL    HW240679   7.243   1.108   7.085
12969SOL     OW40680  13.835   4.309   2.184
12969SOL    HW140681  13.862   4.223   2.216
12969SOL    HW240682  13.759   4.331   2.238
12970SOL     OW40683   9.081   6.685   8.978
12970SOL    HW140684   9.038   6.729   8.904
12970SOL    HW240685   9.010   6.640   9.023
12971SOL     OW40686   8.937   4.781   7.048
12971SOL    HW140687   8.994   4.822   6.983
12971SOL    HW240688   8.997   4.740   7.110
12972SOL     OW40689  14.306   4.540   1.469
12972SOL    HW140690  14.330   4.481   1.540
12972SOL    HW240691  14.267   4.616   1.514
12973SOL     OW40692   9.638   0.919   3.264
12973SOL    HW140693   9.575   0.989   3.278
12973SOL    HW240694   9.658   0.886   3.352
12974SOL     OW40695   9.128   2.525   9.702
12974SOL    HW140696   9.084   2.441   9.689
12974SOL    HW240697   9.125   2.568   9.616
12975SOL     OW40698   9.715  10.853   2.499
12975SOL    HW140699   9.639  10.902   2.531
12975SOL    HW240700   9.719  10.776   2.556
12976SOL     OW40701   4.686  14.807   4.398
12976SOL    HW140702   4.762  14.802   4.457
12976SOL    HW240703   4.612  14.818   4.457
12977SOL     OW40704   0.860   4.551   3.652
12977SOL    HW140705   0.788   4.594   3.605
12977SOL    HW240706   0.818   4.480   3.700
12978SOL     OW40707   3.548  11.853   0.435
12978SOL    HW140708   3.522  11.943   0.454
12978SOL    HW240709   3.627  11.840   0.487
12979SOL     OW40710  12.450   8.838   8.920
12979SOL    HW140711  12.513   8.803   8.857
12979SOL    HW240712  12.474   8.797   9.003
12980SOL     OW40713   7.261  14.233   4.903
12980SOL    HW140714   7.180  14.205   4.862
12980SOL    HW240715   7.302  14.291   4.838
12981SOL     OW40716   4.477  14.625   3.925
12981SOL    HW140717   4.543  14.644   3.859
12981SOL    HW240718   4.525  14.584   3.997
12982SOL     OW40719  11.161  13.361   0.993
12982SOL    HW140720  11.122  13.402   0.916
12982SOL    HW240721  11.096  13.372   1.062
12983SOL     OW40722   2.393   4.204   5.080
12983SOL    HW140723   2.326   4.159   5.029
12983SOL    HW240724   2.429   4.137   5.138
12984SOL     OW40725   2.705  10.427   2.814
12984SOL    HW140726   2.654  10.352   2.844
12984SOL    HW240727   2.679  10.438   2.722
12985SOL     OW40728   6.577   7.562  12.877
12985SOL    HW140729   6.528   7.600  12.951
12985SOL    HW240730   6.668   7.581  12.897
12986SOL     OW40731  11.387  12.956   4.190
12986SOL    HW140732  11.302  12.993   4.164
12986SOL    HW240733  11.385  12.957   4.286
12987SOL     OW40734  11.238  13.536   3.428
12987SOL    HW140735  11.191  13.473   3.483
12987SOL    HW240736  11.174  13.561   3.361
12988SOL     OW40737   0.541   8.811   3.231
12988SOL    HW140738   0.550   8.803   3.326
12988SOL    HW240739   0.448   8.825   3.217
12989SOL     OW40740  12.231  11.110   4.314
12989SOL    HW140741  12.262  11.073   4.397
12989SOL    HW240742  12.298  11.175   4.290
12990SOL     OW40743   9.883   5.274   2.417
12990SOL    HW140744   9.794   5.249   2.393
12990SOL    HW240745   9.938   5.234   2.350
12991SOL     OW40746  11.241  13.311   8.117
12991SOL    HW140747  11.299  13.244   8.155
12991SOL    HW240748  11.167  13.315   8.178
12992SOL     OW40749  11.292   3.179   0.032
12992SOL    HW140750  11.342   3.235   0.091
12992SOL    HW240751  11.332   3.194  14.824
12993SOL     OW40752  11.564   1.123  12.218
12993SOL    HW140753  11.565   1.119  12.313
12993SOL    HW240754  11.471   1.122  12.195
12994SOL     OW40755  14.393  13.645   3.044
12994SOL    HW140756  14.398  13.693   3.126
12994SOL    HW240757  14.307  13.603   3.045
12995SOL     OW40758   3.526   2.938   7.424
12995SOL    HW140759   3.579   2.935   7.504
12995SOL    HW240760   3.460   2.870   7.436
12996SOL     OW40761  10.370   7.740  14.684
12996SOL    HW140762  10.345   7.809  14.622
12996SOL    HW240763  10.427   7.682  14.633
12997SOL     OW40764   9.187   6.198   1.374
12997SOL    HW140765   9.121   6.134   1.348
12997SOL    HW240766   9.248   6.200   1.300
12998SOL     OW40767   5.129   8.719   1.373
12998SOL    HW140768   5.080   8.772   1.435
12998SOL    HW240769   5.132   8.632   1.413
12999SOL     OW40770  12.507   5.138   8.623
12999SOL    HW140771  12.477   5.047   8.632
12999SOL    HW240772  12.583   5.144   8.680
13000SOL     OW40773   3.989   7.480   9.413
13000SOL    HW140774   3.982   7.557   9.470
13000SOL    HW240775   3.903   7.473   9.372
13001SOL     OW40776   1.883   3.062   5.337
13001SOL    HW140777   1.796   3.021   5.330
13001SOL    HW240778   1.873   3.127   5.407
13002SOL     OW40779   6.626   5.769   5.187
13002SOL    HW140780   6.624   5.853   5.141
13002SOL    HW240781   6.536   5.738   5.183
13003SOL     OW40782  11.201   5.856  13.340
13003SOL    HW140783  11.181   5.803  13.417
13003SOL    HW240784  11.294   5.879  13.350
13004SOL     OW40785   9.231   6.869  11.638
13004SOL    HW140786   9.279   6.943  11.677
13004SOL    HW240787   9.186   6.828  11.711
13005SOL     OW40788   5.124  14.283  11.085
13005SOL    HW140789   5.170  14.363  11.112
13005SOL    HW240790   5.147  14.272  10.993
13006SOL     OW40791   7.828   3.612   1.108
13006SOL    HW140792   7.876   3.677   1.159
13006SOL    HW240793   7.893   3.546   1.084
13007SOL     OW40794   8.670   5.352   8.715
13007SOL    HW140795   8.654   5.333   8.622
13007SOL    HW240796   8.675   5.448   8.719
13008SOL     OW40797  12.458   5.584   8.809
13008SOL    HW140798  12.535   5.595   8.753
13008SOL    HW240799  12.402   5.524   8.761
13009SOL     OW40800   4.451  10.026   8.679
13009SOL    HW140801   4.356  10.038   8.685
13009SOL    HW240802   4.469  10.026   8.586
13010SOL     OW40803   0.196  14.584   9.934
13010SOL    HW140804   0.161  14.674   9.930
13010SOL    HW240805   0.133  14.532   9.885
13011SOL     OW40806   8.938   8.015  12.771
13011SOL    HW140807   8.973   7.929  12.794
13011SOL    HW240808   8.847   8.012  12.802
13012SOL     OW40809   0.234   5.284   2.923
13012SOL    HW140810   0.160   5.247   2.875
13012SOL    HW240811   0.198   5.360   2.968
13013SOL     OW40812   7.498   5.541   2.885
13013SOL    HW140813   7.424   5.480   2.884
13013SOL    HW240814   7.543   5.526   2.802
13014SOL     OW40815   4.010  12.342   9.822
13014SOL    HW140816   4.067  12.413   9.793
13014SOL    HW240817   3.977  12.303   9.740
13015SOL     OW40818  13.713   1.064   7.189
13015SOL    HW140819  13.723   0.969   7.176
13015SOL    HW240820  13.649   1.090   7.123
13016SOL     OW40821   8.709  12.973  14.012
13016SOL    HW140822   8.625  12.992  13.969
13016SOL    HW240823   8.688  12.910  14.080
13017SOL     OW40824   1.464  12.790  10.223
13017SOL    HW140825   1.447  12.883  10.237
13017SOL    HW240826   1.538  12.787  10.162
13018SOL     OW40827   5.361   9.653   3.669
13018SOL    HW140828   5.280   9.609   3.698
13018SOL    HW240829   5.411   9.584   3.626
13019SOL     OW40830  10.971   1.105   4.098
13019SOL    HW140831  11.031   1.098   4.172
13019SOL    HW240832  10.894   1.150   4.133
13020SOL     OW40833  11.011   1.086   4.728
13020SOL    HW140834  10.965   1.162   4.764
13020SOL    HW240835  10.951   1.013   4.742
13021SOL     OW40836   5.037   8.957   4.445
13021SOL    HW140837   4.957   9.003   4.421
13021SOL    HW240838   5.103   8.990   4.384
13022SOL     OW40839   2.067   6.475  10.402
13022SOL    HW140840   2.023   6.397  10.436
13022SOL    HW240841   2.073   6.534  10.478
13023SOL     OW40842   3.577   3.123   7.997
13023SOL    HW140843   3.586   3.057   7.928
13023SOL    HW240844   3.647   3.102   8.059
13024SOL     OW40845   5.826   4.460   2.766
13024SOL    HW140846   5.909   4.422   2.793
13024SOL    HW240847   5.760   4.417   2.819
13025SOL     OW40848  10.629  14.263  11.692
13025SOL    HW140849  10.653  14.204  11.764
13025SOL    HW240850  10.574  14.210  11.635
13026SOL     OW40851  14.250   6.904   5.189
13026SOL    HW140852  14.286   6.985   5.226
13026SOL    HW240853  14.289   6.834   5.241
13027SOL     OW40854   5.227   2.843   5.829
13027SOL    HW140855   5.198   2.788   5.902
13027SOL    HW240856   5.297   2.897   5.867
13028SOL     OW40857   0.734   4.044  10.496
13028SOL    HW140858   0.674   4.013  10.428
13028SOL    HW240859   0.818   4.004  10.473
13029SOL     OW40860   9.092   9.108  12.451
13029SOL    HW140861   9.057   9.055  12.523
13029SOL    HW240862   9.106   9.195  12.489
13030SOL     OW40863   7.256  10.735   8.659
13030SOL    HW140864   7.167  10.701   8.648
13030SOL    HW240865   7.282  10.763   8.571
13031SOL     OW40866   2.532   3.349   7.371
13031SOL    HW140867   2.609   3.305   7.334
13031SOL    HW240868   2.564   3.385   7.455
13032SOL     OW40869   6.083  13.624   3.724
13032SOL    HW140870   6.120  13.679   3.654
13032SOL    HW240871   6.158  13.599   3.777
13033SOL     OW40872  13.291   3.066   2.818
13033SOL    HW140873  13.204   3.102   2.801
13033SOL    HW240874  13.280   2.971   2.809
13034SOL     OW40875   5.107   2.992   2.970
13034SOL    HW140876   5.157   2.924   3.016
13034SOL    HW240877   5.168   3.064   2.959
13035SOL     OW40878   3.710   6.592  14.790
13035SOL    HW140879   3.653   6.516  14.781
13035SOL    HW240880   3.684   6.632  14.873
13036SOL     OW40881   0.901  13.684   7.101
13036SOL    HW140882   0.976  13.625   7.115
13036SOL    HW240883   0.938  13.772   7.104
13037SOL     OW40884   2.159  10.609   6.649
13037SOL    HW140885   2.155  10.523   6.608
13037SOL    HW240886   2.253  10.627   6.657
13038SOL     OW40887  10.140   1.852   4.855
13038SOL    HW140888  10.194   1.860   4.935
13038SOL    HW240889  10.198   1.881   4.785
13039SOL     OW40890  11.626   0.490   5.101
13039SOL    HW140891  11.715   0.508   5.069
13039SOL    HW240892  11.615   0.549   5.175
13040SOL     OW40893   1.900  11.923   2.861
13040SOL    HW140894   1.824  11.976   2.884
13040SOL    HW240895   1.975  11.972   2.894
13041SOL     OW40896   9.241   0.111   6.376
13041SOL    HW140897   9.152   0.082   6.356
13041SOL    HW240898   9.239   0.206   6.362
13042SOL     OW40899   3.260   4.697   6.093
13042SOL    HW140900   3.330   4.669   6.034
13042SOL    HW240901   3.193   4.733   6.034
13043SOL     OW40902   5.414  14.272   5.450
13043SOL    HW140903   5.347  14.339   5.442
13043SOL    HW240904   5.382  14.213   5.518
13044SOL     OW40905   7.780   7.072  14.721
13044SOL    HW140906   7.782   7.142  14.656
13044SOL    HW240907   7.718   7.102  14.787
13045SOL     OW40908   7.219   2.682   7.258
13045SOL    HW140909   7.216   2.709   7.350
13045SOL    HW240910   7.258   2.594   7.261
13046SOL     OW40911   6.254   8.662   9.445
13046SOL    HW140912   6.299   8.585   9.479
13046SOL    HW240913   6.322   8.712   9.400
13047SOL     OW40914   7.526  10.047   7.949
13047SOL    HW140915   7.517  10.028   7.856
13047SOL    HW240916   7.581   9.977   7.983
13048SOL     OW40917  12.245   2.245   5.386
13048SOL    HW140918  12.211   2.165   5.425
13048SOL    HW240919  12.307   2.216   5.319
13049SOL     OW40920   3.875   5.130   3.146
13049SOL    HW140921   3.781   5.148   3.143
13049SOL    HW240922   3.901   5.119   3.054
13050SOL     OW40923   8.201  12.266   4.285
13050SOL    HW140924   8.277  12.235   4.237
13050SOL    HW240925   8.139  12.193   4.281
13051SOL     OW40926   5.893   2.757   1.559
13051SOL    HW140927   5.872   2.676   1.604
13051SOL    HW240928   5.857   2.746   1.471
13052SOL     OW40929   5.997   8.199   0.870
13052SOL    HW140930   6.074   8.247   0.840
13052SOL    HW240931   5.925   8.237   0.821
13053SOL     OW40932   7.988  14.515   6.030
13053SOL    HW140933   8.016  14.579   6.095
13053SOL    HW240934   8.036  14.435   6.053
13054SOL     OW40935   1.597   7.250   4.720
13054SOL    HW140936   1.620   7.171   4.671
13054SOL    HW240937   1.530   7.293   4.666
13055SOL     OW40938  10.760   7.696   4.508
13055SOL    HW140939  10.799   7.767   4.559
13055SOL    HW240940  10.803   7.617   4.540
13056SOL     OW40941  13.045  14.779   4.373
13056SOL    HW140942  12.997  14.789   4.290
13056SOL    HW240943  12.995  14.831   4.436
13057SOL     OW40944   6.241   0.923   5.719
13057SOL    HW140945   6.319   0.954   5.767
13057SOL    HW240946   6.277   0.879   5.642
13058SOL     OW40947   1.131   5.800  14.789
13058SOL    HW140948   1.138   5.755  14.706
13058SOL    HW240949   1.213   5.780  14.835
13059SOL     OW40950   3.082   7.827   1.090
13059SOL    HW140951   3.170   7.845   1.125
13059SOL    HW240952   3.066   7.898   1.029
13060SOL     OW40953   1.220   5.201   6.356
13060SOL    HW140954   1.249   5.201   6.265
13060SOL    HW240955   1.301   5.190   6.406
13061SOL     OW40956  14.598  11.164   6.831
13061SOL    HW140957  14.669  11.213   6.873
13061SOL    HW240958  14.619  11.168   6.737
13062SOL     OW40959  12.920   5.498   5.984
13062SOL    HW140960  12.919   5.490   5.888
13062SOL    HW240961  12.901   5.590   6.001
13063SOL     OW40962   0.686   0.538   9.892
13063SOL    HW140963   0.667   0.632   9.904
13063SOL    HW240964   0.629   0.495   9.956
13064SOL     OW40965  14.668  13.514  14.512
13064SOL    HW140966  14.712  13.460  14.446
13064SOL    HW240967  14.708  13.487  14.595
13065SOL     OW40968  11.192  12.867   7.599
13065SOL    HW140969  11.241  12.866   7.517
13065SOL    HW240970  11.146  12.951   7.598
13066SOL     OW40971  13.379  11.128  13.615
13066SOL    HW140972  13.309  11.192  13.628
13066SOL    HW240973  13.371  11.068  13.690
13067SOL     OW40974  11.430   1.345   3.686
13067SOL    HW140975  11.441   1.280   3.756
13067SOL    HW240976  11.497   1.323   3.622
13068SOL     OW40977  11.702   3.049   5.352
13068SOL    HW140978  11.670   3.008   5.433
13068SOL    HW240979  11.670   3.139   5.357
13069SOL     OW40980   3.171   6.184   6.993
13069SOL    HW140981   3.158   6.111   6.933
13069SOL    HW240982   3.224   6.247   6.944
13070SOL     OW40983   0.400   5.784   4.124
13070SOL    HW140984   0.437   5.724   4.059
13070SOL    HW240985   0.472   5.802   4.185
13071SOL     OW40986   1.490   7.574   5.080
13071SOL    HW140987   1.467   7.635   5.150
13071SOL    HW240988   1.471   7.622   5.000
13072SOL     OW40989   0.582  12.462   1.715
13072SOL    HW140990   0.553  12.387   1.663
13072SOL    HW240991   0.567  12.436   1.806
13073SOL     OW40992   2.212  11.875   0.904
13073SOL    HW140993   2.126  11.890   0.865
13073SOL    HW240994   2.193  11.843   0.993
13074SOL     OW40995  12.899   6.693   8.962
13074SOL    HW140996  12.915   6.770   8.907
13074SOL    HW240997  12.860   6.728   9.042
13075SOL     OW40998   2.841   8.795  11.817
13075SOL    HW140999   2.851   8.880  11.774
13075SOL    HW241000   2.907   8.795  11.886
13076SOL     OW41001   5.800   2.488   0.364
13076SOL    HW141002   5.840   2.401   0.368
13076SOL    HW241003   5.859   2.545   0.413
13077SOL     OW41004   7.649   8.907   2.451
13077SOL    HW141005   7.632   8.883   2.542
13077SOL    HW241006   7.635   9.002   2.448
13078SOL     OW41007  11.543   7.293  13.443
13078SOL    HW141008  11.481   7.261  13.377
13078SOL    HW241009  11.629   7.277  13.404
13079SOL     OW41010  14.560  14.124   7.550
13079SOL    HW141011  14.572  14.029   7.554
13079SOL    HW241012  14.510  14.138   7.469
13080SOL     OW41013   7.486   2.145   6.331
13080SOL    HW141014   7.518   2.090   6.259
13080SOL    HW241015   7.503   2.094   6.410
13081SOL     OW41016  12.320  11.735  11.347
13081SOL    HW141017  12.325  11.785  11.266
13081SOL    HW241018  12.407  11.696  11.356
13082SOL     OW41019   4.560   5.348   5.924
13082SOL    HW141020   4.629   5.305   5.976
13082SOL    HW241021   4.495   5.374   5.989
13083SOL     OW41022   7.736   9.108   8.205
13083SOL    HW141023   7.768   9.145   8.123
13083SOL    HW241024   7.753   9.176   8.270
13084SOL     OW41025   3.084  14.077  11.751
13084SOL    HW141026   3.086  14.172  11.757
13084SOL    HW241027   3.140  14.056  11.677
13085SOL     OW41028   1.350   4.838   8.168
13085SOL    HW141029   1.298   4.852   8.247
13085SOL    HW241030   1.312   4.760   8.128
13086SOL     OW41031  14.617   4.494   9.929
13086SOL    HW141032  14.668   4.565   9.969
13086SOL    HW241033  14.532   4.533   9.911
13087SOL     OW41034  10.862  14.722   8.359
13087SOL    HW141035  10.849  14.627   8.368
13087SOL    HW241036  10.774  14.758   8.352
13088SOL     OW41037   9.226   2.933   4.727
13088SOL    HW141038   9.173   2.909   4.652
13088SOL    HW241039   9.189   3.015   4.758
13089SOL     OW41040   8.307   5.932  10.159
13089SOL    HW141041   8.354   5.918  10.077
13089SOL    HW241042   8.231   5.873  10.153
13090SOL     OW41043   2.839   9.475   6.762
13090SOL    HW141044   2.921   9.426   6.773
13090SOL    HW241045   2.780   9.437   6.827
13091SOL     OW41046  11.748  10.268   4.735
13091SOL    HW141047  11.716  10.290   4.823
13091SOL    HW241048  11.842  10.251   4.748
13092SOL     OW41049   2.097   1.649  10.103
13092SOL    HW141050   2.056   1.614  10.183
13092SOL    HW241051   2.052   1.605  10.032
13093SOL     OW41052   7.122   4.738   1.647
13093SOL    HW141053   7.117   4.681   1.724
13093SOL    HW241054   7.123   4.826   1.684
13094SOL     OW41055  13.329   0.213   3.631
13094SOL    HW141056  13.410   0.194   3.584
13094SOL    HW241057  13.349   0.291   3.683
13095SOL     OW41058   3.474   7.156   4.271
13095SOL    HW141059   3.555   7.197   4.301
13095SOL    HW241060   3.458   7.085   4.334
13096SOL     OW41061  13.271   0.368   6.713
13096SOL    HW141062  13.297   0.460   6.704
13096SOL    HW241063  13.284   0.349   6.807
13097SOL     OW41064  12.286  14.268  14.495
13097SOL    HW141065  12.335  14.332  14.443
13097SOL    HW241066  12.337  14.187  14.488
13098SOL     OW41067   2.407  10.747   6.353
13098SOL    HW141068   2.447  10.725   6.268
13098SOL    HW241069   2.398  10.662   6.397
13099SOL     OW41070  11.521  10.910   9.414
13099SOL    HW141071  11.485  10.978   9.357
13099SOL    HW241072  11.502  10.828   9.368
13100SOL     OW41073   2.454   5.383   8.755
13100SOL    HW141074   2.403   5.456   8.719
13100SOL    HW241075   2.526   5.371   8.693
13101SOL     OW41076   9.593   5.449  11.825
13101SOL    HW141077   9.674   5.478  11.782
13101SOL    HW241078   9.588   5.356  11.805
13102SOL     OW41079   6.856  10.430   3.962
13102SOL    HW141080   6.883  10.429   4.053
13102SOL    HW241081   6.910  10.497   3.921
13103SOL     OW41082   5.648   0.868   7.314
13103SOL    HW141083   5.571   0.918   7.339
13103SOL    HW241084   5.682   0.832   7.396
13104SOL     OW41085   1.580   5.056  13.687
13104SOL    HW141086   1.505   5.041  13.629
13104SOL    HW241087   1.629   5.126  13.644
13105SOL     OW41088   0.841  10.316   6.680
13105SOL    HW141089   0.895  10.259   6.735
13105SOL    HW241090   0.775  10.351   6.739
13106SOL     OW41091  11.707  14.524   9.243
13106SOL    HW141092  11.736  14.557   9.158
13106SOL    HW241093  11.705  14.428   9.233
13107SOL     OW41094   7.198  11.367  12.695
13107SOL    HW141095   7.130  11.426  12.726
13107SOL    HW241096   7.270  11.379  12.757
13108SOL     OW41097   6.692  13.259   5.018
13108SOL    HW141098   6.616  13.315   5.034
13108SOL    HW241099   6.714  13.223   5.104
13109SOL     OW41100   3.339   3.260   1.484
13109SOL    HW141101   3.257   3.262   1.533
13109SOL    HW241102   3.313   3.248   1.393
13110SOL     OW41103  10.540   7.571   7.675
13110SOL    HW141104  10.455   7.568   7.632
13110SOL    HW241105  10.561   7.664   7.680
13111SOL     OW41106   8.481  10.252   3.581
13111SOL    HW141107   8.531  10.333   3.579
13111SOL    HW241108   8.526  10.197   3.645
13112SOL     OW41109   3.141  10.547  13.241
13112SOL    HW141110   3.112  10.635  13.267
13112SOL    HW241111   3.139  10.497  13.322
13113SOL     OW41112  10.054   9.859   0.851
13113SOL    HW141113  10.074   9.779   0.898
13113SOL    HW241114  10.049   9.926   0.919
13114SOL     OW41115   6.769  14.313  13.128
13114SOL    HW141116   6.807  14.329  13.214
13114SOL    HW241117   6.715  14.390  13.110
13115SOL     OW41118  10.712  11.618   6.661
13115SOL    HW141119  10.677  11.598   6.574
13115SOL    HW241120  10.791  11.669   6.644
13116SOL     OW41121   8.215   7.935  13.386
13116SOL    HW141122   8.242   7.847  13.361
13116SOL    HW241123   8.273   7.993  13.336
13117SOL     OW41124  10.221  13.339   3.453
13117SOL    HW141125  10.233  13.431   3.432
13117SOL    HW241126  10.266  13.292   3.382
13118SOL     OW41127   8.663   2.901   9.082
13118SOL    HW141128   8.582   2.950   9.097
13118SOL    HW241129   8.702   2.891   9.169
13119SOL     OW41130  14.640  14.621   2.082
13119SOL    HW141131  14.722  14.632   2.129
13119SOL    HW241132  14.595  14.550   2.126
13120SOL     OW41133   9.860   7.931   8.225
13120SOL    HW141134   9.852   7.918   8.319
13120SOL    HW241135   9.807   7.860   8.187
13121SOL     OW41136  13.770   8.736  13.501
13121SOL    HW141137  13.763   8.675  13.574
13121SOL    HW241138  13.854   8.780  13.514
13122SOL     OW41139   7.868  13.718   6.999
13122SOL    HW141140   7.881  13.651   7.066
13122SOL    HW241141   7.777  13.746   7.010
13123SOL     OW41142   0.539   8.103   8.604
13123SOL    HW141143   0.467   8.045   8.627
13123SOL    HW241144   0.505   8.158   8.534
13124SOL     OW41145   9.310   6.932  10.126
13124SOL    HW141146   9.325   6.859  10.067
13124SOL    HW241147   9.233   6.906  10.177
13125SOL     OW41148   0.446   9.942   3.712
13125SOL    HW141149   0.409   9.885   3.779
13125SOL    HW241150   0.540   9.942   3.730
13126SOL     OW41151   6.531   8.014  12.663
13126SOL    HW141152   6.499   8.030  12.575
13126SOL    HW241153   6.514   7.921  12.678
13127SOL     OW41154  13.828   4.848   2.772
13127SOL    HW141155  13.835   4.830   2.678
13127SOL    HW241156  13.873   4.932   2.783
13128SOL     OW41157   4.551   7.624  12.792
13128SOL    HW141158   4.579   7.539  12.758
13128SOL    HW241159   4.601   7.688  12.741
13129SOL     OW41160  12.361  10.088  12.253
13129SOL    HW141161  12.411  10.125  12.180
13129SOL    HW241162  12.426  10.079  12.323
13130SOL     OW41163   3.349   5.041  12.847
13130SOL    HW141164   3.398   4.970  12.889
13130SOL    HW241165   3.407   5.073  12.778
13131SOL     OW41166   8.043   9.432   7.762
13131SOL    HW141167   7.952   9.455   7.741
13131SOL    HW241168   8.053   9.343   7.727
13132SOL     OW41169   7.522   5.057   8.503
13132SOL    HW141170   7.480   5.124   8.558
13132SOL    HW241171   7.581   5.105   8.446
13133SOL     OW41172  12.624   2.571   0.997
13133SOL    HW141173  12.545   2.530   1.031
13133SOL    HW241174  12.688   2.500   0.991
13134SOL     OW41175   3.317   1.081   3.874
13134SOL    HW141176   3.263   1.148   3.833
13134SOL    HW241177   3.370   1.045   3.802
13135SOL     OW41178   1.823   6.821  14.448
13135SOL    HW141179   1.795   6.850  14.535
13135SOL    HW241180   1.895   6.760  14.465
13136SOL     OW41181   9.614  13.855   1.840
13136SOL    HW141182   9.625  13.860   1.935
13136SOL    HW241183   9.609  13.946   1.812
13137SOL     OW41184   8.941   5.034   5.932
13137SOL    HW141185   9.027   5.075   5.945
13137SOL    HW241186   8.899   5.087   5.865
13138SOL     OW41187   2.238  12.210   4.048
13138SOL    HW141188   2.271  12.126   4.081
13138SOL    HW241189   2.284  12.223   3.965
13139SOL     OW41190   1.680  10.679  14.150
13139SOL    HW141191   1.627  10.671  14.070
13139SOL    HW241192   1.719  10.593  14.161
13140SOL     OW41193  10.573   5.646   1.455
13140SOL    HW141194  10.557   5.717   1.393
13140SOL    HW241195  10.595   5.690   1.537
13141SOL     OW41196   3.444   1.019   7.957
13141SOL    HW141197   3.493   1.093   7.923
13141SOL    HW241198   3.509   0.966   8.002
13142SOL     OW41199   4.516   7.145   9.483
13142SOL    HW141200   4.497   7.160   9.390
13142SOL    HW241201   4.474   7.219   9.528
13143SOL     OW41202   6.286  14.122  14.841
13143SOL    HW141203   6.359  14.141  14.782
13143SOL    HW241204   6.295  14.185   0.035
13144SOL     OW41205   5.325  12.351  12.031
13144SOL    HW141206   5.404  12.373  12.081
13144SOL    HW241207   5.292  12.271  12.072
13145SOL     OW41208  14.389   9.974   8.409
13145SOL    HW141209  14.474  10.013   8.431
13145SOL    HW241210  14.342   9.971   8.492
13146SOL     OW41211  14.774   4.230  11.492
13146SOL    HW141212  14.807   4.246  11.581
13146SOL    HW241213  14.680   4.247  11.498
13147SOL     OW41214   7.504   5.529   5.921
13147SOL    HW141215   7.466   5.604   5.966
13147SOL    HW241216   7.598   5.548   5.918
13148SOL     OW41217   0.370   9.419  12.149
13148SOL    HW141218   0.408   9.366  12.219
13148SOL    HW241219   0.437   9.485  12.131
13149SOL     OW41220  14.166   9.145  10.658
13149SOL    HW141221  14.167   9.053  10.631
13149SOL    HW241222  14.245   9.155  10.711
13150SOL     OW41223   3.468  12.842  11.620
13150SOL    HW141224   3.425  12.782  11.682
13150SOL    HW241225   3.463  12.928  11.661
13151SOL     OW41226  10.042   7.242   2.123
13151SOL    HW141227  10.046   7.174   2.055
13151SOL    HW241228   9.958   7.285   2.109
13152SOL     OW41229  12.510   2.192  12.901
13152SOL    HW141230  12.463   2.140  12.836
13152SOL    HW241231  12.503   2.282  12.869
13153SOL     OW41232  11.639   8.245   6.245
13153SOL    HW141233  11.607   8.272   6.331
13153SOL    HW241234  11.630   8.150   6.245
13154SOL     OW41235   5.153  10.944   5.357
13154SOL    HW141236   5.170  11.000   5.432
13154SOL    HW241237   5.075  10.981   5.317
13155SOL     OW41238   7.135   6.379   6.692
13155SOL    HW141239   7.210   6.429   6.659
13155SOL    HW241240   7.172   6.293   6.714
13156SOL     OW41241   2.537   4.734   8.515
13156SOL    HW141242   2.596   4.744   8.589
13156SOL    HW241243   2.594   4.735   8.438
13157SOL     OW41244  10.235   1.328   1.975
13157SOL    HW141245  10.299   1.349   1.907
13157SOL    HW241246  10.214   1.412   2.015
13158SOL     OW41247   9.213  13.096   8.942
13158SOL    HW141248   9.174  13.015   8.975
13158SOL    HW241249   9.140  13.158   8.937
13159SOL     OW41250   0.937   6.178  10.544
13159SOL    HW141251   0.982   6.224  10.473
13159SOL    HW241252   0.997   6.107  10.568
13160SOL     OW41253  14.500  13.626   7.903
13160SOL    HW141254  14.567  13.694   7.906
13160SOL    HW241255  14.546  13.545   7.922
13161SOL     OW41256   8.499   8.874   3.995
13161SOL    HW141257   8.541   8.929   4.061
13161SOL    HW241258   8.519   8.784   4.022
13162SOL     OW41259   4.087  11.740   4.295
13162SOL    HW141260   4.059  11.826   4.263
13162SOL    HW241261   4.020  11.715   4.358
13163SOL     OW41262   7.720  10.415   5.347
13163SOL    HW141263   7.724  10.502   5.307
13163SOL    HW241264   7.711  10.355   5.273
13164SOL     OW41265   4.931  11.917  11.631
13164SOL    HW141266   4.874  11.961  11.568
13164SOL    HW241267   4.965  11.988  11.686
13165SOL     OW41268   5.551   4.049   0.813
13165SOL    HW141269   5.555   4.036   0.719
13165SOL    HW241270   5.634   4.015   0.846
13166SOL     OW41271   1.416   1.313   2.310
13166SOL    HW141272   1.357   1.365   2.254
13166SOL    HW241273   1.469   1.378   2.356
13167SOL     OW41274   0.027  10.191   9.889
13167SOL    HW141275  14.830  10.249   9.871
13167SOL    HW241276   0.080  10.239   9.953
13168SOL     OW41277   2.870  10.595  13.455
13168SOL    HW141278   2.935  10.649  13.410
13168SOL    HW241279   2.862  10.517  13.399
13169SOL     OW41280   1.687   1.373  14.833
13169SOL    HW141281   1.763   1.386   0.012
13169SOL    HW241282   1.711   1.298  14.778
13170SOL     OW41283   7.306   8.876   7.147
13170SOL    HW141284   7.390   8.838   7.172
13170SOL    HW241285   7.280   8.828   7.068
13171SOL     OW41286  13.742   8.621  10.004
13171SOL    HW141287  13.732   8.715   9.989
13171SOL    HW241288  13.710   8.580   9.924
13172SOL     OW41289   7.047   8.000  12.595
13172SOL    HW141290   7.096   7.919  12.604
13172SOL    HW241291   6.981   7.996  12.665
13173SOL     OW41292  14.678   2.320   2.750
13173SOL    HW141293  14.769   2.344   2.769
13173SOL    HW241294  14.684   2.265   2.672
13174SOL     OW41295   3.434  12.812   1.041
13174SOL    HW141296   3.476  12.728   1.059
13174SOL    HW241297   3.471  12.872   1.106
13175SOL     OW41298  11.998  11.965   1.166
13175SOL    HW141299  11.949  12.023   1.107
13175SOL    HW241300  12.069  12.020   1.199
13176SOL     OW41301   4.977   9.875   7.508
13176SOL    HW141302   4.960   9.931   7.584
13176SOL    HW241303   5.062   9.904   7.476
13177SOL     OW41304   0.264   5.300   0.746
13177SOL    HW141305   0.314   5.259   0.676
13177SOL    HW241306   0.227   5.380   0.707
13178SOL     OW41307   1.416  13.400  13.242
13178SOL    HW141308   1.504  13.377  13.273
13178SOL    HW241309   1.387  13.322  13.194
13179SOL     OW41310  12.861   9.865   6.992
13179SOL    HW141311  12.933   9.928   6.992
13179SOL    HW241312  12.789   9.912   6.950
13180SOL     OW41313   7.998   2.199  11.975
13180SOL    HW141314   8.035   2.118  12.009
13180SOL    HW241315   8.061   2.267  11.998
13181SOL     OW41316   6.695   8.465   5.295
13181SOL    HW141317   6.608   8.479   5.258
13181SOL    HW241318   6.753   8.467   5.220
13182SOL     OW41319  11.357   9.409  11.706
13182SOL    HW141320  11.376   9.404  11.800
13182SOL    HW241321  11.418   9.476  11.674
13183SOL     OW41322   2.813   7.768  12.098
13183SOL    HW141323   2.865   7.708  12.045
13183SOL    HW241324   2.755   7.811  12.035
13184SOL     OW41325   7.198  13.982  12.119
13184SOL    HW141326   7.276  14.029  12.089
13184SOL    HW241327   7.127  14.019  12.067
13185SOL     OW41328   7.555   5.663  11.245
13185SOL    HW141329   7.606   5.591  11.209
13185SOL    HW241330   7.466   5.628  11.251
13186SOL     OW41331   1.204   8.634   1.875
13186SOL    HW141332   1.132   8.649   1.815
13186SOL    HW241333   1.172   8.666   1.959
13187SOL     OW41334   7.097  12.719   5.695
13187SOL    HW141335   7.111  12.792   5.634
13187SOL    HW241336   7.089  12.642   5.639
13188SOL     OW41337  10.811  10.885   7.699
13188SOL    HW141338  10.768  10.814   7.651
13188SOL    HW241339  10.750  10.959   7.693
13189SOL     OW41340   6.822   1.473   1.307
13189SOL    HW141341   6.872   1.445   1.229
13189SOL    HW241342   6.890   1.495   1.371
13190SOL     OW41343   9.486   3.846   3.525
13190SOL    HW141344   9.457   3.784   3.457
13190SOL    HW241345   9.568   3.881   3.492
13191SOL     OW41346   6.782   1.768  13.995
13191SOL    HW141347   6.688   1.759  14.009
13191SOL    HW241348   6.790   1.840  13.932
13192SOL     OW41349   3.010   4.797   2.945
13192SOL    HW141350   3.037   4.706   2.953
13192SOL    HW241351   2.952   4.799   2.869
13193SOL     OW41352   9.838   4.144   6.341
13193SOL    HW141353   9.817   4.058   6.306
13193SOL    HW241354   9.919   4.169   6.297
13194SOL     OW41355   1.666   1.689  13.831
13194SOL    HW141356   1.641   1.601  13.803
13194SOL    HW241357   1.752   1.677  13.872
13195SOL     OW41358  11.098   8.791   1.486
13195SOL    HW141359  11.109   8.790   1.582
13195SOL    HW241360  11.176   8.747   1.452
13196SOL     OW41361   9.076   9.408   5.893
13196SOL    HW141362   9.039   9.403   5.805
13196SOL    HW241363   9.000   9.422   5.950
13197SOL     OW41364   3.636   1.958   2.020
13197SOL    HW141365   3.687   1.914   2.087
13197SOL    HW241366   3.636   2.050   2.046
13198SOL     OW41367  13.939   4.115  11.713
13198SOL    HW141368  13.914   4.040  11.767
13198SOL    HW241369  13.862   4.172  11.713
13199SOL     OW41370   3.228   0.773   6.287
13199SOL    HW141371   3.185   0.694   6.318
13199SOL    HW241372   3.321   0.753   6.290
13200SOL     OW41373   1.916  11.565   0.675
13200SOL    HW141374   1.975  11.640   0.668
13200SOL    HW241375   1.974  11.491   0.694
13201SOL     OW41376  13.861   2.730   2.919
13201SOL    HW141377  13.930   2.763   2.863
13201SOL    HW241378  13.785   2.785   2.899
13202SOL     OW41379  11.876   7.274  11.156
13202SOL    HW141380  11.851   7.303  11.244
13202SOL    HW241381  11.833   7.189  11.146
13203SOL     OW41382   4.252   5.878   4.308
13203SOL    HW141383   4.163   5.844   4.313
13203SOL    HW241384   4.277   5.893   4.399
13204SOL     OW41385   8.913  13.146   9.045
13204SOL    HW141386   8.831  13.156   9.093
13204SOL    HW241387   8.981  13.154   9.112
13205SOL     OW41388   6.498  14.375   8.397
13205SOL    HW141389   6.591  14.382   8.376
13205SOL    HW241390   6.453  14.406   8.319
13206SOL     OW41391   3.941   5.111   3.433
13206SOL    HW141392   3.928   5.117   3.339
13206SOL    HW241393   3.852   5.106   3.469
13207SOL     OW41394   9.262   9.594   6.575
13207SOL    HW141395   9.356   9.573   6.574
13207SOL    HW241396   9.220   9.517   6.537
13208SOL     OW41397   7.797  14.813   9.329
13208SOL    HW141398   7.737  14.833   9.400
13208SOL    HW241399   7.828  14.725   9.347
13209SOL     OW41400  10.299   0.580   9.172
13209SOL    HW141401  10.306   0.676   9.179
13209SOL    HW241402  10.319   0.562   9.081
13210SOL     OW41403   3.256   6.090  11.131
13210SOL    HW141404   3.334   6.141  11.110
13210SOL    HW241405   3.288   6.000  11.142
13211SOL     OW41406   8.593  13.755   6.634
13211SOL    HW141407   8.610  13.688   6.567
13211SOL    HW241408   8.657  13.823   6.615
13212SOL     OW41409   6.473  11.023   4.002
13212SOL    HW141410   6.435  10.948   3.957
13212SOL    HW241411   6.567  11.018   3.982
13213SOL     OW41412   8.253   8.146   3.971
13213SOL    HW141413   8.178   8.114   4.022
13213SOL    HW241414   8.227   8.135   3.880
13214SOL     OW41415   2.209   9.501  13.640
13214SOL    HW141416   2.177   9.473  13.555
13214SOL    HW241417   2.132   9.537  13.684
13215SOL     OW41418   4.806   5.185  13.052
13215SOL    HW141419   4.835   5.248  12.986
13215SOL    HW241420   4.735   5.137  13.009
13216SOL     OW41421  12.623   6.614  12.778
13216SOL    HW141422  12.670   6.655  12.851
13216SOL    HW241423  12.556   6.561  12.821
13217SOL     OW41424   8.192   5.148   9.957
13217SOL    HW141425   8.148   5.199  10.025
13217SOL    HW241426   8.213   5.065  10.000
13218SOL     OW41427  13.643   9.760   1.975
13218SOL    HW141428  13.709   9.749   1.907
13218SOL    HW241429  13.675   9.708   2.049
13219SOL     OW41430   1.661   0.766   7.169
13219SOL    HW141431   1.704   0.683   7.145
13219SOL    HW241432   1.576   0.739   7.204
13220SOL     OW41433   7.635   2.198   5.946
13220SOL    HW141434   7.658   2.283   5.908
13220SOL    HW241435   7.716   2.169   5.989
13221SOL     OW41436   1.803  13.928   3.539
13221SOL    HW141437   1.871  13.867   3.511
13221SOL    HW241438   1.737  13.923   3.470
13222SOL     OW41439   2.505   4.824   8.061
13222SOL    HW141440   2.445   4.750   8.073
13222SOL    HW241441   2.552   4.830   8.144
13223SOL     OW41442   1.075   8.695   3.941
13223SOL    HW141443   1.140   8.645   3.992
13223SOL    HW241444   1.022   8.628   3.898
13224SOL     OW41445  14.015   9.879   2.966
13224SOL    HW141446  14.100   9.925   2.966
13224SOL    HW241447  13.967   9.918   3.039
13225SOL     OW41448   1.844  10.700   6.390
13225SOL    HW141449   1.904  10.690   6.316
13225SOL    HW241450   1.758  10.679   6.353
13226SOL     OW41451   9.935  13.197   4.256
13226SOL    HW141452   9.941  13.291   4.272
13226SOL    HW241453   9.846  13.184   4.225
13227SOL     OW41454   3.240   0.691   4.188
13227SOL    HW141455   3.276   0.713   4.274
13227SOL    HW241456   3.280   0.755   4.128
13228SOL     OW41457  12.875   3.834   9.906
13228SOL    HW141458  12.941   3.781   9.864
13228SOL    HW241459  12.922   3.881   9.975
13229SOL     OW41460   8.857   7.067  14.179
13229SOL    HW141461   8.780   7.106  14.222
13229SOL    HW241462   8.822   6.993  14.130
13230SOL     OW41463   5.740   2.752  12.006
13230SOL    HW141464   5.708   2.804  12.079
13230SOL    HW241465   5.700   2.793  11.928
13231SOL     OW41466   0.836   0.818   8.079
13231SOL    HW141467   0.826   0.745   8.140
13231SOL    HW241468   0.771   0.882   8.108
13232SOL     OW41469   2.410   4.939   7.636
13232SOL    HW141470   2.477   4.893   7.585
13232SOL    HW241471   2.349   4.870   7.663
13233SOL     OW41472   9.661   9.884   2.414
13233SOL    HW141473   9.735   9.939   2.391
13233SOL    HW241474   9.593   9.908   2.351
13234SOL     OW41475   2.189   2.386   6.710
13234SOL    HW141476   2.115   2.445   6.724
13234SOL    HW241477   2.180   2.320   6.779
13235SOL     OW41478   9.628   2.196   6.436
13235SOL    HW141479   9.691   2.258   6.472
13235SOL    HW241480   9.666   2.169   6.353
13236SOL     OW41481  14.606   1.456  13.730
13236SOL    HW141482  14.522   1.484  13.766
13236SOL    HW241483  14.583   1.410  13.649
13237SOL     OW41484   1.229   9.635   1.015
13237SOL    HW141485   1.181   9.579   1.076
13237SOL    HW241486   1.165   9.663   0.951
13238SOL     OW41487   0.649   3.271  10.895
13238SOL    HW141488   0.629   3.279  10.988
13238SOL    HW241489   0.739   3.301  10.887
13239SOL     OW41490   0.450   9.043   5.477
13239SOL    HW141491   0.536   9.047   5.435
13239SOL    HW241492   0.426   9.135   5.489
13240SOL     OW41493  11.544   7.650   8.984
13240SOL    HW141494  11.626   7.696   9.000
13240SOL    HW241495  11.498   7.652   9.068
13241SOL     OW41496   2.675   7.009   2.661
13241SOL    HW141497   2.756   6.968   2.690
13241SOL    HW241498   2.633   7.040   2.741
13242SOL     OW41499   5.712  12.418   9.737
13242SOL    HW141500   5.626  12.461   9.742
13242SOL    HW241501   5.692  12.325   9.728
13243SOL     OW41502   4.689  13.258   9.831
13243SOL    HW141503   4.651  13.174   9.803
13243SOL    HW241504   4.650  13.322   9.771
13244SOL     OW41505   1.662   7.468   8.087
13244SOL    HW141506   1.733   7.452   8.026
13244SOL    HW241507   1.586   7.485   8.031
13245SOL     OW41508  14.005   9.921  10.758
13245SOL    HW141509  14.027   9.830  10.738
13245SOL    HW241510  13.911   9.918  10.781
13246SOL     OW41511   5.818   4.686   6.003
13246SOL    HW141512   5.896   4.697   6.056
13246SOL    HW241513   5.808   4.591   5.993
13247SOL     OW41514   5.631   0.185   8.641
13247SOL    HW141515   5.679   0.132   8.705
13247SOL    HW241516   5.603   0.262   8.690
13248SOL     OW41517   8.069   0.291   3.215
13248SOL    HW141518   8.064   0.370   3.161
13248SOL    HW241519   8.016   0.226   3.168
13249SOL     OW41520  13.645  14.015  11.922
13249SOL    HW141521  13.642  13.931  11.967
13249SOL    HW241522  13.608  13.998  11.835
13250SOL     OW41523   8.715  10.266   6.269
13250SOL    HW141524   8.768  10.187   6.266
13250SOL    HW241525   8.736  10.305   6.354
13251SOL     OW41526   7.586   2.122   0.750
13251SOL    HW141527   7.558   2.155   0.836
13251SOL    HW241528   7.614   2.200   0.703
13252SOL     OW41529  14.622   3.629  10.594
13252SOL    HW141530  14.585   3.639  10.506
13252SOL    HW241531  14.549   3.648  10.653
13253SOL     OW41532   6.435   6.991   1.308
13253SOL    HW141533   6.506   6.951   1.358
13253SOL    HW241534   6.373   6.919   1.293
13254SOL     OW41535  10.102   0.736   1.622
13254SOL    HW141536  10.155   0.746   1.543
13254SOL    HW241537  10.096   0.641   1.634
13255SOL     OW41538   4.613   8.988   9.958
13255SOL    HW141539   4.538   8.945   9.917
13255SOL    HW241540   4.576   9.039  10.030
13256SOL     OW41541   8.732   0.740  12.501
13256SOL    HW141542   8.639   0.717  12.505
13256SOL    HW241543   8.734   0.823  12.453
13257SOL     OW41544   7.096   2.020  12.912
13257SOL    HW141545   7.122   2.036  12.822
13257SOL    HW241546   7.008   2.058  12.919
13258SOL     OW41547   3.967  12.525   9.328
13258SOL    HW141548   3.986  12.434   9.307
13258SOL    HW241549   3.874  12.526   9.351
13259SOL     OW41550  14.116  10.562   8.246
13259SOL    HW141551  14.154  10.649   8.257
13259SOL    HW241552  14.120  10.523   8.333
13260SOL     OW41553   3.887   8.177  12.348
13260SOL    HW141554   3.858   8.087  12.336
13260SOL    HW241555   3.834   8.228  12.287
13261SOL     OW41556  10.030  13.927  14.045
13261SOL    HW141557  10.123  13.947  14.037
13261SOL    HW241558  10.008  13.947  14.136
13262SOL     OW41559   0.408  12.207   6.843
13262SOL    HW141560   0.346  12.176   6.777
13262SOL    HW241561   0.493  12.180   6.811
13263SOL     OW41562   0.408   5.981   7.729
13263SOL    HW141563   0.488   5.990   7.676
13263SOL    HW241564   0.344   5.943   7.669
13264SOL     OW41565  11.002   1.884   4.807
13264SOL    HW141566  11.019   1.926   4.723
13264SOL    HW241567  10.989   1.791   4.785
13265SOL     OW41568   7.976   7.654  14.060
13265SOL    HW141569   7.938   7.740  14.074
13265SOL    HW241570   7.917   7.594  14.107
13266SOL     OW41571   6.460   4.436  11.587
13266SOL    HW141572   6.509   4.471  11.662
13266SOL    HW241573   6.378   4.484  11.588
13267SOL     OW41574   8.222   7.209   5.565
13267SOL    HW141575   8.139   7.257   5.571
13267SOL    HW241576   8.245   7.188   5.655
13268SOL     OW41577  10.864   9.609   0.319
13268SOL    HW141578  10.835   9.605   0.228
13268SOL    HW241579  10.903   9.523   0.337
13269SOL     OW41580  13.104   2.434   0.792
13269SOL    HW141581  13.113   2.380   0.714
13269SOL    HW241582  13.126   2.522   0.764
13270SOL     OW41583  11.872  10.587   9.009
13270SOL    HW141584  11.929  10.514   9.036
13270SOL    HW241585  11.809  10.596   9.081
13271SOL     OW41586  13.950  14.139   3.983
13271SOL    HW141587  13.959  14.218   3.928
13271SOL    HW241588  13.872  14.157   4.037
13272SOL     OW41589  12.025   2.636   9.205
13272SOL    HW141590  12.033   2.582   9.284
13272SOL    HW241591  12.033   2.573   9.133
13273SOL     OW41592  14.509   8.747  12.300
13273SOL    HW141593  14.475   8.802  12.230
13273SOL    HW241594  14.522   8.807  12.374
13274SOL     OW41595  13.999  14.454  14.115
13274SOL    HW141596  14.056  14.398  14.168
13274SOL    HW241597  13.962  14.516  14.177
13275SOL     OW41598   9.653   0.497   9.909
13275SOL    HW141599   9.679   0.415   9.953
13275SOL    HW241600   9.593   0.468   9.841
13276SOL     OW41601   9.557   2.380   0.909
13276SOL    HW141602   9.489   2.331   0.862
13276SOL    HW241603   9.556   2.344   0.997
13277SOL     OW41604   9.951  11.825   6.258
13277SOL    HW141605   9.971  11.795   6.347
13277SOL    HW241606   9.920  11.914   6.269
13278SOL     OW41607  14.145   5.670  12.190
13278SOL    HW141608  14.052   5.693  12.191
13278SOL    HW241609  14.181   5.718  12.116
13279SOL     OW41610   8.547   8.454   9.306
13279SOL    HW141611   8.589   8.539   9.317
13279SOL    HW241612   8.463   8.473   9.265
13280SOL     OW41613  14.165   4.968   0.260
13280SOL    HW141614  14.176   5.060   0.237
13280SOL    HW241615  14.127   4.970   0.347
13281SOL     OW41616   0.511   6.327  10.440
13281SOL    HW141617   0.584   6.270  10.463
13281SOL    HW241618   0.537   6.364  10.355
13282SOL     OW41619  14.723   0.733   8.588
13282SOL    HW141620  14.710   0.745   8.682
13282SOL    HW241621  14.811   0.766   8.572
13283SOL     OW41622   6.346  11.554   3.679
13283SOL    HW141623   6.302  11.605   3.748
13283SOL    HW241624   6.339  11.463   3.708
13284SOL     OW41625   4.941   8.625   2.708
13284SOL    HW141626   4.931   8.630   2.613
13284SOL    HW241627   4.913   8.536   2.731
13285SOL     OW41628   7.388  12.932   9.380
13285SOL    HW141629   7.330  12.910   9.307
13285SOL    HW241630   7.473  12.896   9.355
13286SOL     OW41631   0.041   0.394   5.003
13286SOL    HW141632   0.062   0.467   5.062
13286SOL    HW241633   0.116   0.389   4.944
13287SOL     OW41634   1.122  12.814  13.228
13287SOL    HW141635   1.175  12.880  13.273
13287SOL    HW241636   1.035  12.823  13.267
13288SOL     OW41637   4.946   8.206   1.283
13288SOL    HW141638   4.850   8.201   1.279
13288SOL    HW241639   4.968   8.160   1.364
13289SOL     OW41640   7.844   8.602   2.198
13289SOL    HW141641   7.927   8.560   2.177
13289SOL    HW241642   7.863   8.696   2.199
13290SOL     OW41643  11.820   7.249  13.353
13290SOL    HW141644  11.860   7.165  13.378
13290SOL    HW241645  11.856   7.267  13.266
13291SOL     OW41646   9.936   2.125   9.400
13291SOL    HW141647   9.876   2.172   9.458
13291SOL    HW241648   9.996   2.192   9.368
13292SOL     OW41649   9.870   2.100  11.263
13292SOL    HW141650   9.960   2.133  11.273
13292SOL    HW241651   9.880   2.009  11.236
13293SOL     OW41652   9.350   2.342   0.369
13293SOL    HW141653   9.367   2.253   0.400
13293SOL    HW241654   9.261   2.339   0.334
13294SOL     OW41655   8.640  14.633   9.679
13294SOL    HW141656   8.729  14.626   9.645
13294SOL    HW241657   8.637  14.572   9.753
13295SOL     OW41658   8.848   9.330  10.937
13295SOL    HW141659   8.907   9.271  10.983
13295SOL    HW241660   8.766   9.281  10.931
13296SOL     OW41661   1.275   6.576   3.572
13296SOL    HW141662   1.299   6.524   3.648
13296SOL    HW241663   1.350   6.567   3.512
13297SOL     OW41664  10.148  10.527  11.409
13297SOL    HW141665  10.193  10.449  11.375
13297SOL    HW241666  10.171  10.529  11.502
13298SOL     OW41667   1.090  13.766  11.825
13298SOL    HW141668   1.162  13.800  11.879
13298SOL    HW241669   1.069  13.681  11.864
13299SOL     OW41670   3.776  13.494   2.995
13299SOL    HW141671   3.866  13.477   3.022
13299SOL    HW241672   3.784  13.533   2.908
13300SOL     OW41673   2.275   6.064   2.368
13300SOL    HW141674   2.317   6.080   2.453
13300SOL    HW241675   2.347   6.048   2.308
13301SOL     OW41676   2.715   4.947   1.008
13301SOL    HW141677   2.620   4.933   1.008
13301SOL    HW241678   2.745   4.908   0.926
13302SOL     OW41679   5.635  12.841   4.131
13302SOL    HW141680   5.579  12.802   4.063
13302SOL    HW241681   5.664  12.766   4.183
13303SOL     OW41682   9.742   5.403   9.587
13303SOL    HW141683   9.730   5.376   9.496
13303SOL    HW241684   9.834   5.384   9.606
13304SOL     OW41685   5.930  13.667  12.631
13304SOL    HW141686   6.010  13.648  12.582
13304SOL    HW241687   5.881  13.727  12.575
13305SOL     OW41688   2.696   1.166  13.665
13305SOL    HW141689   2.627   1.156  13.730
13305SOL    HW241690   2.746   1.242  13.695
13306SOL     OW41691   6.762   0.804  11.070
13306SOL    HW141692   6.798   0.875  11.124
13306SOL    HW241693   6.704   0.756  11.130
13307SOL     OW41694   2.055  12.711   9.142
13307SOL    HW141695   1.996  12.725   9.216
13307SOL    HW241696   2.046  12.618   9.121
13308SOL     OW41697   1.864  11.336   0.289
13308SOL    HW141698   1.838  11.353   0.198
13308SOL    HW241699   1.812  11.398   0.341
13309SOL     OW41700   2.547   9.192   9.333
13309SOL    HW141701   2.523   9.157   9.248
13309SOL    HW241702   2.470   9.177   9.389
13310SOL     OW41703  12.111   3.356  12.935
13310SOL    HW141704  12.103   3.287  12.870
13310SOL    HW241705  12.060   3.429  12.900
13311SOL     OW41706  10.343   7.814   6.089
13311SOL    HW141707  10.315   7.746   6.150
13311SOL    HW241708  10.404   7.768   6.030
13312SOL     OW41709   5.499  11.664  13.654
13312SOL    HW141710   5.447  11.611  13.594
13312SOL    HW241711   5.540  11.729  13.598
13313SOL     OW41712   6.578  11.774  12.380
13313SOL    HW141713   6.635  11.701  12.356
13313SOL    HW241714   6.635  11.835  12.427
13314SOL     OW41715   0.127  11.007   9.370
13314SOL    HW141716   0.208  11.058   9.362
13314SOL    HW241717   0.129  10.973   9.459
13315SOL     OW41718   1.132   0.149  12.601
13315SOL    HW141719   1.116   0.182  12.689
13315SOL    HW241720   1.045   0.145  12.560
13316SOL     OW41721  13.662  13.487   8.853
13316SOL    HW141722  13.622  13.495   8.766
13316SOL    HW241723  13.662  13.576   8.887
13317SOL     OW41724  12.387   6.341  12.307
13317SOL    HW141725  12.468   6.345  12.358
13317SOL    HW241726  12.339   6.268  12.345
13318SOL     OW41727  11.450   7.940   2.019
13318SOL    HW141728  11.374   7.997   2.007
13318SOL    HW241729  11.419   7.854   1.990
13319SOL     OW41730   3.555  12.309  12.711
13319SOL    HW141731   3.633  12.254  12.702
13319SOL    HW241732   3.522  12.289  12.798
13320SOL     OW41733   8.826  11.440   8.541
13320SOL    HW141734   8.787  11.361   8.502
13320SOL    HW241735   8.918  11.417   8.554
13321SOL     OW41736  12.732   9.102   0.393
13321SOL    HW141737  12.733   9.109   0.298
13321SOL    HW241738  12.696   9.186   0.423
13322SOL     OW41739  13.594  11.010   1.817
13322SOL    HW141740  13.603  11.097   1.778
13322SOL    HW241741  13.655  10.955   1.767
13323SOL     OW41742   7.956   0.289   8.637
13323SOL    HW141743   8.012   0.259   8.566
13323SOL    HW241744   7.967   0.384   8.638
13324SOL     OW41745   8.660   8.186   5.584
13324SOL    HW141746   8.695   8.121   5.646
13324SOL    HW241747   8.572   8.155   5.564
13325SOL     OW41748   3.175   0.740   9.996
13325SOL    HW141749   3.107   0.713   9.934
13325SOL    HW241750   3.211   0.821   9.958
13326SOL     OW41751   5.691  10.487   3.673
13326SOL    HW141752   5.670  10.502   3.581
13326SOL    HW241753   5.759  10.552   3.692
13327SOL     OW41754   0.349  12.681  10.221
13327SOL    HW141755   0.399  12.603  10.198
13327SOL    HW241756   0.328  12.721  10.136
13328SOL     OW41757  13.606   1.503   1.177
13328SOL    HW141758  13.555   1.434   1.220
13328SOL    HW241759  13.600   1.577   1.237
13329SOL     OW41760   5.450   3.410  12.481
13329SOL    HW141761   5.439   3.483  12.542
13329SOL    HW241762   5.363   3.396  12.445
13330SOL     OW41763   8.585   9.661   1.991
13330SOL    HW141764   8.526   9.649   2.065
13330SOL    HW241765   8.538   9.720   1.932
13331SOL     OW41766   1.383   5.948  11.402
13331SOL    HW141767   1.311   5.942  11.464
13331SOL    HW241768   1.371   5.872  11.344
13332SOL     OW41769   2.970   7.318  10.696
13332SOL    HW141770   2.929   7.367  10.768
13332SOL    HW241771   2.918   7.342  10.619
13333SOL     OW41772   4.134   8.703   9.834
13333SOL    HW141773   4.095   8.741   9.912
13333SOL    HW241774   4.140   8.609   9.853
13334SOL     OW41775  10.043   1.016   2.284
13334SOL    HW141776  10.121   0.978   2.324
13334SOL    HW241777   9.973   0.954   2.303
13335SOL     OW41778   3.633   3.309   6.281
13335SOL    HW141779   3.638   3.276   6.191
13335SOL    HW241780   3.552   3.360   6.283
13336SOL     OW41781   2.566   5.288   2.896
13336SOL    HW141782   2.646   5.331   2.866
13336SOL    HW241783   2.523   5.353   2.951
13337SOL     OW41784   1.462  12.143   0.262
13337SOL    HW141785   1.494  12.218   0.212
13337SOL    HW241786   1.387  12.111   0.213
13338SOL     OW41787   6.824   8.825   8.872
13338SOL    HW141788   6.816   8.920   8.860
13338SOL    HW241789   6.830   8.790   8.783
13339SOL     OW41790  13.764   3.302  14.836
13339SOL    HW141791  13.840   3.310   0.016
13339SOL    HW241792  13.695   3.267   0.016
13340SOL     OW41793   6.573   6.953   4.969
13340SOL    HW141794   6.644   6.895   4.943
13340SOL    HW241795   6.496   6.895   4.972
13341SOL     OW41796  11.115   8.713  12.514
13341SOL    HW141797  11.155   8.778  12.457
13341SOL    HW241798  11.174   8.637  12.509
13342SOL     OW41799  13.243   8.992   6.271
13342SOL    HW141800  13.213   8.909   6.308
13342SOL    HW241801  13.329   9.006   6.312
13343SOL     OW41802   9.224   4.689   8.060
13343SOL    HW141803   9.241   4.618   7.999
13343SOL    HW241804   9.263   4.661   8.142
13344SOL     OW41805   7.822  13.673   9.411
13344SOL    HW141806   7.838  13.743   9.348
13344SOL    HW241807   7.867  13.597   9.374
13345SOL     OW41808   2.770  14.755  11.165
13345SOL    HW141809   2.805  14.819  11.227
13345SOL    HW241810   2.786  14.794  11.079
13346SOL     OW41811  13.013   3.122   7.659
13346SOL    HW141812  12.938   3.157   7.611
13346SOL    HW241813  13.018   3.031   7.632
13347SOL     OW41814   9.206   7.981   6.571
13347SOL    HW141815   9.289   8.027   6.584
13347SOL    HW241816   9.218   7.898   6.617
13348SOL     OW41817   1.933   9.149  12.860
13348SOL    HW141818   1.958   9.118  12.947
13348SOL    HW241819   1.855   9.097  12.839
13349SOL     OW41820  10.565  12.209   1.328
13349SOL    HW141821  10.480  12.181   1.362
13349SOL    HW241822  10.592  12.139   1.269
13350SOL     OW41823   3.634  11.256   8.128
13350SOL    HW141824   3.595  11.183   8.080
13350SOL    HW241825   3.595  11.334   8.087
13351SOL     OW41826  13.010   9.016   0.053
13351SOL    HW141827  13.042   8.979   0.136
13351SOL    HW241828  13.041   8.956  14.863
13352SOL     OW41829   2.148   1.539   6.136
13352SOL    HW141830   2.108   1.472   6.192
13352SOL    HW241831   2.191   1.599   6.197
13353SOL     OW41832   8.110  12.207  10.117
13353SOL    HW141833   8.154  12.283  10.078
13353SOL    HW241834   8.018  12.220  10.097
13354SOL     OW41835   3.640   5.861  10.453
13354SOL    HW141836   3.620   5.946  10.492
13354SOL    HW241837   3.697   5.818  10.517
13355SOL     OW41838   2.649  11.135  10.622
13355SOL    HW141839   2.569  11.135  10.569
13355SOL    HW241840   2.718  11.114  10.559
13356SOL     OW41841  12.768  14.025  13.672
13356SOL    HW141842  12.706  13.977  13.617
13356SOL    HW241843  12.734  14.014  13.761
13357SOL     OW41844   5.618   9.731   2.400
13357SOL    HW141845   5.548   9.795   2.409
13357SOL    HW241846   5.583   9.665   2.340
13358SOL     OW41847  10.805   0.785  10.339
13358SOL    HW141848  10.794   0.844  10.264
13358SOL    HW241849  10.899   0.779  10.352
13359SOL     OW41850  12.050  11.760  11.280
13359SOL    HW141851  12.031  11.673  11.316
13359SOL    HW241852  12.139  11.780  11.312
13360SOL     OW41853   0.220   4.827   1.215
13360SOL    HW141854   0.156   4.756   1.213
13360SOL    HW241855   0.168   4.905   1.233
13361SOL     OW41856   5.044   0.537   5.854
13361SOL    HW141857   5.127   0.490   5.863
13361SOL    HW241858   5.008   0.506   5.771
13362SOL     OW41859  11.045  10.245  14.240
13362SOL    HW141860  10.972  10.290  14.196
13362SOL    HW241861  11.007  10.216  14.323
13363SOL     OW41862  13.117  12.962  14.271
13363SOL    HW141863  13.032  12.918  14.264
13363SOL    HW241864  13.104  13.046  14.226
13364SOL     OW41865  14.716   7.057   8.926
13364SOL    HW141866  14.806   7.085   8.942
13364SOL    HW241867  14.663   7.108   8.987
13365SOL     OW41868   0.205   0.839  10.017
13365SOL    HW141869   0.212   0.854  10.111
13365SOL    HW241870   0.187   0.925   9.980
13366SOL     OW41871   0.760  11.839   1.466
13366SOL    HW141872   0.778  11.757   1.513
13366SOL    HW241873   0.667  11.835   1.446
13367SOL     OW41874   1.398   6.293   1.891
13367SOL    HW141875   1.332   6.340   1.942
13367SOL    HW241876   1.480   6.341   1.907
13368SOL     OW41877   3.916   1.892  11.593
13368SOL    HW141878   3.949   1.975  11.626
13368SOL    HW241879   3.821   1.901  11.594
13369SOL     OW41880   3.092   6.505   1.228
13369SOL    HW141881   3.017   6.505   1.287
13369SOL    HW241882   3.111   6.412   1.214
13370SOL     OW41883   3.232   7.567   0.988
13370SOL    HW141884   3.306   7.617   0.952
13370SOL    HW241885   3.270   7.516   1.060
13371SOL     OW41886  10.485   4.167   3.344
13371SOL    HW141887  10.429   4.211   3.280
13371SOL    HW241888  10.547   4.116   3.291
13372SOL     OW41889  14.181  12.357  14.494
13372SOL    HW141890  14.177  12.388  14.584
13372SOL    HW241891  14.164  12.263  14.500
13373SOL     OW41892   2.984   6.504   7.778
13373SOL    HW141893   3.002   6.460   7.860
13373SOL    HW241894   2.925   6.576   7.801
13374SOL     OW41895   8.630  11.860   9.356
13374SOL    HW141896   8.685  11.920   9.406
13374SOL    HW241897   8.655  11.773   9.388
13375SOL     OW41898   9.410  11.117  14.705
13375SOL    HW141899   9.406  11.210  14.726
13375SOL    HW241900   9.482  11.083  14.758
13376SOL     OW41901   5.345   4.293   0.034
13376SOL    HW141902   5.316   4.286  14.820
13376SOL    HW241903   5.354   4.202   0.063
13377SOL     OW41904   1.344  12.181   5.876
13377SOL    HW141905   1.436  12.188   5.853
13377SOL    HW241906   1.300  12.156   5.795
13378SOL     OW41907  13.699  11.678  11.389
13378SOL    HW141908  13.773  11.715  11.438
13378SOL    HW241909  13.679  11.744  11.322
13379SOL     OW41910  14.505   3.347  12.181
13379SOL    HW141911  14.489   3.325  12.089
13379SOL    HW241912  14.507   3.262  12.226
13380SOL     OW41913  13.795   4.033   1.787
13380SOL    HW141914  13.768   3.997   1.871
13380SOL    HW241915  13.890   4.043   1.794
13381SOL     OW41916   4.605   0.225   4.590
13381SOL    HW141917   4.568   0.297   4.641
13381SOL    HW241918   4.694   0.254   4.569
13382SOL     OW41919   0.078  11.286   7.906
13382SOL    HW141920   0.048  11.375   7.922
13382SOL    HW241921   0.129  11.263   7.984
13383SOL     OW41922  10.018  12.807   8.843
13383SOL    HW141923   9.981  12.835   8.927
13383SOL    HW241924  10.006  12.712   8.843
13384SOL     OW41925   3.899   3.828   8.587
13384SOL    HW141926   3.989   3.796   8.596
13384SOL    HW241927   3.905   3.899   8.524
13385SOL     OW41928   1.736  11.335  11.353
13385SOL    HW141929   1.676  11.406  11.379
13385SOL    HW241930   1.795  11.325  11.428
13386SOL     OW41931  11.518   3.979   3.030
13386SOL    HW141932  11.488   4.031   2.955
13386SOL    HW241933  11.448   3.915   3.045
13387SOL     OW41934   1.409   8.838  11.856
13387SOL    HW141935   1.438   8.834  11.947
13387SOL    HW241936   1.486   8.813  11.805
13388SOL     OW41937   9.350  11.849  11.489
13388SOL    HW141938   9.341  11.883  11.400
13388SOL    HW241939   9.415  11.907  11.530
13389SOL     OW41940  11.565   3.104   8.130
13389SOL    HW141941  11.559   3.047   8.053
13389SOL    HW241942  11.490   3.079   8.184
13390SOL     OW41943   3.029   9.635   2.044
13390SOL    HW141944   3.083   9.565   2.079
13390SOL    HW241945   2.954   9.590   2.005
13391SOL     OW41946   5.070  10.401   2.115
13391SOL    HW141947   5.123  10.475   2.145
13391SOL    HW241948   5.125  10.324   2.132
13392SOL     OW41949   6.886   9.850   4.470
13392SOL    HW141950   6.883   9.765   4.426
13392SOL    HW241951   6.817   9.901   4.427
13393SOL     OW41952   6.479   3.388   3.479
13393SOL    HW141953   6.425   3.417   3.553
13393SOL    HW241954   6.472   3.292   3.480
13394SOL     OW41955   1.604   0.847   4.183
13394SOL    HW141956   1.630   0.777   4.243
13394SOL    HW241957   1.666   0.840   4.111
13395SOL     OW41958  13.804   1.728   4.284
13395SOL    HW141959  13.755   1.762   4.209
13395SOL    HW241960  13.846   1.805   4.322
13396SOL     OW41961  10.394  12.291   5.369
13396SOL    HW141962  10.407  12.233   5.444
13396SOL    HW241963  10.307  12.269   5.337
13397SOL     OW41964  10.803   6.470   3.588
13397SOL    HW141965  10.803   6.427   3.673
13397SOL    HW241966  10.742   6.418   3.536
13398SOL     OW41967  11.329   1.840   3.256
13398SOL    HW141968  11.310   1.749   3.280
13398SOL    HW241969  11.415   1.857   3.295
13399SOL     OW41970   2.891   5.556   0.863
13399SOL    HW141971   2.842   5.636   0.850
13399SOL    HW241972   2.889   5.541   0.958
13400SOL     OW41973   0.679   3.361   7.228
13400SOL    HW141974   0.605   3.301   7.230
13400SOL    HW241975   0.699   3.380   7.319
13401SOL     OW41976   0.265   3.033  11.609
13401SOL    HW141977   0.270   3.095  11.536
13401SOL    HW241978   0.353   3.036  11.648
13402SOL     OW41979  11.691   4.657   2.555
13402SOL    HW141980  11.769   4.686   2.507
13402SOL    HW241981  11.721   4.583   2.606
13403SOL     OW41982  10.007  14.414   7.082
13403SOL    HW141983  10.007  14.474   7.008
13403SOL    HW241984   9.974  14.466   7.155
13404SOL     OW41985   4.389  12.345   1.270
13404SOL    HW141986   4.483  12.332   1.286
13404SOL    HW241987   4.346  12.308   1.347
13405SOL     OW41988   3.338  10.617  11.560
13405SOL    HW141989   3.360  10.593  11.470
13405SOL    HW241990   3.249  10.653  11.555
13406SOL     OW41991   7.813   2.084   3.478
13406SOL    HW141992   7.880   2.108   3.414
13406SOL    HW241993   7.829   2.142   3.553
13407SOL     OW41994   7.222   9.109  13.075
13407SOL    HW141995   7.254   9.175  13.136
13407SOL    HW241996   7.236   9.025  13.120
13408SOL     OW41997  14.386   0.649   3.936
13408SOL    HW141998  14.445   0.647   4.011
13408SOL    HW241999  14.365   0.558   3.919
13409SOL     OW42000  10.617   4.353  12.970
13409SOL    HW142001  10.540   4.371  13.025
13409SOL    HW242002  10.666   4.435  12.970
13410SOL     OW42003  10.199  12.105   4.564
13410SOL    HW142004  10.138  12.106   4.490
13410SOL    HW242005  10.272  12.160   4.536
13411SOL     OW42006   1.378   5.258   2.780
13411SOL    HW142007   1.295   5.301   2.802
13411SOL    HW242008   1.428   5.325   2.734
13412SOL     OW42009   2.290  14.161  11.835
13412SOL    HW142010   2.282  14.169  11.930
13412SOL    HW242011   2.227  14.225  11.800
13413SOL     OW42012   3.010   6.082   5.122
13413SOL    HW142013   2.948   6.146   5.157
13413SOL    HW242014   3.033   6.028   5.197
13414SOL     OW42015   7.906  13.847   5.616
13414SOL    HW142016   7.817  13.845   5.651
13414SOL    HW242017   7.896  13.886   5.529
13415SOL     OW42018  12.587   6.969  13.669
13415SOL    HW142019  12.575   6.955  13.575
13415SOL    HW242020  12.505   6.938  13.709
13416SOL     OW42021   7.045   6.074   2.906
13416SOL    HW142022   7.135   6.052   2.929
13416SOL    HW242023   7.015   5.999   2.854
13417SOL     OW42024   3.830   4.898   2.060
13417SOL    HW142025   3.831   4.952   1.981
13417SOL    HW242026   3.802   4.812   2.030
13418SOL     OW42027   8.339   7.272  10.626
13418SOL    HW142028   8.417   7.230  10.589
13418SOL    HW242029   8.287   7.298  10.550
13419SOL     OW42030   7.579   7.805  10.088
13419SOL    HW142031   7.615   7.848  10.010
13419SOL    HW242032   7.558   7.877  10.148
13420SOL     OW42033   9.355   2.219   6.255
13420SOL    HW142034   9.357   2.313   6.241
13420SOL    HW242035   9.413   2.204   6.329
13421SOL     OW42036  10.671   8.321   4.444
13421SOL    HW142037  10.754   8.369   4.439
13421SOL    HW242038  10.678   8.253   4.377
13422SOL     OW42039  14.693   4.240  11.041
13422SOL    HW142040  14.785   4.219  11.058
13422SOL    HW242041  14.695   4.326  10.999
13423SOL     OW42042  14.572   5.976   9.515
13423SOL    HW142043  14.535   6.064   9.517
13423SOL    HW242044  14.516   5.925   9.573
13424SOL     OW42045  13.362   1.801   4.321
13424SOL    HW142046  13.274   1.764   4.325
13424SOL    HW242047  13.414   1.736   4.275
13425SOL     OW42048   6.691   0.059  13.327
13425SOL    HW142049   6.726   0.103  13.249
13425SOL    HW242050   6.651   0.130  13.378
13426SOL     OW42051  11.861   4.184   8.084
13426SOL    HW142052  11.796   4.147   8.024
13426SOL    HW242053  11.869   4.120   8.154
13427SOL     OW42054   1.013   1.949   7.113
13427SOL    HW142055   1.058   1.865   7.122
13427SOL    HW242056   0.985   1.952   7.021
13428SOL     OW42057   1.991   8.434   2.598
13428SOL    HW142058   2.069   8.486   2.613
13428SOL    HW242059   2.020   8.343   2.606
13429SOL     OW42060   6.920  13.168   0.129
13429SOL    HW142061   7.008  13.207   0.137
13429SOL    HW242062   6.866  13.219   0.189
13430SOL     OW42063  11.420  12.588  12.994
13430SOL    HW142064  11.368  12.653  12.947
13430SOL    HW242065  11.497  12.574  12.938
13431SOL     OW42066   3.694   5.305   5.160
13431SOL    HW142067   3.615   5.257   5.185
13431SOL    HW242068   3.730   5.256   5.087
13432SOL     OW42069   8.341   2.868   4.473
13432SOL    HW142070   8.429   2.903   4.461
13432SOL    HW242071   8.344   2.823   4.558
13433SOL     OW42072   6.780  14.059  13.544
13433SOL    HW142073   6.693  14.025  13.524
13433SOL    HW242074   6.765  14.136  13.599
13434SOL     OW42075   6.152   3.999  11.082
13434SOL    HW142076   6.145   4.056  11.005
13434SOL    HW242077   6.216   3.933  11.058
13435SOL     OW42078   8.479   3.867   9.784
13435SOL    HW142079   8.425   3.934   9.825
13435SOL    HW242080   8.457   3.786   9.830
13436SOL     OW42081  13.732   5.922  11.819
13436SOL    HW142082  13.677   5.844  11.819
13436SOL    HW242083  13.671   5.994  11.804
13437SOL     OW42084  10.604   8.972   4.277
13437SOL    HW142085  10.697   8.950   4.274
13437SOL    HW242086  10.562   8.908   4.219
13438SOL     OW42087  12.480   6.093  13.991
13438SOL    HW142088  12.490   6.050  13.906
13438SOL    HW242089  12.567   6.088  14.031
13439SOL     OW42090   7.309   5.390  10.090
13439SOL    HW142091   7.337   5.304  10.058
13439SOL    HW242092   7.280   5.374  10.180
13440SOL     OW42093   9.743  14.708  11.162
13440SOL    HW142094   9.744  14.741  11.072
13440SOL    HW242095   9.667  14.650  11.165
13441SOL     OW42096  10.228   2.550  14.441
13441SOL    HW142097  10.218   2.499  14.521
13441SOL    HW242098  10.267   2.490  14.378
13442SOL     OW42099  11.234   5.305   8.350
13442SOL    HW142100  11.146   5.342   8.359
13442SOL    HW242101  11.222   5.211   8.363
13443SOL     OW42102  12.214  10.700  14.050
13443SOL    HW142103  12.221  10.792  14.024
13443SOL    HW242104  12.268  10.653  13.986
13444SOL     OW42105   1.288   1.962   9.169
13444SOL    HW142106   1.320   1.999   9.086
13444SOL    HW242107   1.200   1.997   9.178
13445SOL     OW42108  10.554   7.360   5.090
13445SOL    HW142109  10.641   7.349   5.129
13445SOL    HW242110  10.505   7.283   5.119
13446SOL     OW42111   8.162   9.707  14.459
13446SOL    HW142112   8.146   9.766  14.386
13446SOL    HW242113   8.082   9.655  14.466
13447SOL     OW42114  13.517   4.731  13.925
13447SOL    HW142115  13.591   4.670  13.933
13447SOL    HW242116  13.540   4.785  13.850
13448SOL     OW42117  11.545   5.411   5.436
13448SOL    HW142118  11.596   5.347   5.486
13448SOL    HW242119  11.510   5.470   5.502
13449SOL     OW42120   1.548  10.756   1.210
13449SOL    HW142121   1.525  10.772   1.119
13449SOL    HW242122   1.488  10.811   1.261
13450SOL     OW42123  12.005   1.559   6.740
13450SOL    HW142124  11.961   1.635   6.704
13450SOL    HW242125  12.049   1.518   6.666
13451SOL     OW42126  10.237   0.331   7.998
13451SOL    HW142127  10.294   0.271   7.950
13451SOL    HW242128  10.157   0.281   8.012
13452SOL     OW42129  10.668   1.250   8.792
13452SOL    HW142130  10.710   1.167   8.813
13452SOL    HW242131  10.577   1.228   8.775
13453SOL     OW42132   5.974   4.920  13.026
13453SOL    HW142133   5.916   4.852  13.059
13453SOL    HW242134   5.937   5.001  13.061
13454SOL     OW42135  13.031  11.218   6.536
13454SOL    HW142136  12.955  11.265   6.571
13454SOL    HW242137  13.106  11.261   6.575
13455SOL     OW42138  13.672   3.728   4.256
13455SOL    HW142139  13.714   3.758   4.336
13455SOL    HW242140  13.600   3.789   4.242
13456SOL     OW42141   2.830   6.712   0.986
13456SOL    HW142142   2.742   6.701   1.023
13456SOL    HW242143   2.887   6.718   1.062
13457SOL     OW42144   8.833  11.619  10.100
13457SOL    HW142145   8.805  11.661  10.182
13457SOL    HW242146   8.843  11.527  10.123
13458SOL     OW42147  12.158   8.653   2.109
13458SOL    HW142148  12.202   8.721   2.160
13458SOL    HW242149  12.196   8.660   2.021
13459SOL     OW42150   4.654   5.509   6.296
13459SOL    HW142151   4.750   5.508   6.292
13459SOL    HW242152   4.629   5.583   6.240
13460SOL     OW42153   1.029   5.653   6.626
13460SOL    HW142154   1.069   5.715   6.565
13460SOL    HW242155   0.935   5.667   6.617
13461SOL     OW42156   7.593  11.685  13.855
13461SOL    HW142157   7.651  11.645  13.790
13461SOL    HW242158   7.598  11.627  13.931
13462SOL     OW42159  11.800  10.222   9.196
13462SOL    HW142160  11.814  10.169   9.118
13462SOL    HW242161  11.808  10.161   9.269
13463SOL     OW42162   1.735  13.934   0.881
13463SOL    HW142163   1.742  13.842   0.858
13463SOL    HW242164   1.800  13.979   0.827
13464SOL     OW42165   1.496  10.942   3.896
13464SOL    HW142166   1.532  11.000   3.963
13464SOL    HW242167   1.556  10.949   3.822
13465SOL     OW42168   3.268  10.017  14.627
13465SOL    HW142169   3.251  10.064  14.709
13465SOL    HW242170   3.182   9.983  14.601
13466SOL     OW42171   3.766   2.584   2.536
13466SOL    HW142172   3.705   2.533   2.590
13466SOL    HW242173   3.846   2.532   2.533
13467SOL     OW42174   0.343  12.817   3.562
13467SOL    HW142175   0.357  12.768   3.643
13467SOL    HW242176   0.318  12.905   3.591
13468SOL     OW42177   2.946   4.957   9.428
13468SOL    HW142178   3.030   4.924   9.398
13468SOL    HW242179   2.889   4.880   9.429
13469SOL     OW42180   1.038  13.384   9.067
13469SOL    HW142181   0.968  13.417   9.122
13469SOL    HW242182   1.048  13.450   8.998
13470SOL     OW42183  10.660   8.223   0.302
13470SOL    HW142184  10.591   8.157   0.303
13470SOL    HW242185  10.741   8.173   0.316
13471SOL     OW42186  13.019   5.606   1.926
13471SOL    HW142187  13.109   5.635   1.908
13471SOL    HW242188  12.968   5.642   1.854
13472SOL     OW42189   9.728   4.119   8.116
13472SOL    HW142190   9.765   4.204   8.097
13472SOL    HW242191   9.672   4.133   8.193
13473SOL     OW42192  14.604   4.460   9.638
13473SOL    HW142193  14.645   4.421   9.715
13473SOL    HW242194  14.660   4.432   9.565
13474SOL     OW42195   9.146  11.893  13.329
13474SOL    HW142196   9.073  11.833  13.346
13474SOL    HW242197   9.175  11.870  13.241
13475SOL     OW42198   4.811   9.595  12.884
13475SOL    HW142199   4.821   9.600  12.789
13475SOL    HW242200   4.762   9.674  12.907
13476SOL     OW42201   1.213   2.306  13.739
13476SOL    HW142202   1.261   2.241  13.790
13476SOL    HW242203   1.180   2.257  13.664
13477SOL     OW42204   8.834   6.535  10.280
13477SOL    HW142205   8.814   6.575  10.365
13477SOL    HW242206   8.917   6.489  10.293
13478SOL     OW42207  10.791  12.313  14.224
13478SOL    HW142208  10.872  12.302  14.274
13478SOL    HW242209  10.732  12.247  14.260
13479SOL     OW42210   8.185  11.374  11.682
13479SOL    HW142211   8.230  11.398  11.601
13479SOL    HW242212   8.255  11.360  11.745
13480SOL     OW42213  12.294  10.617   1.683
13480SOL    HW142214  12.356  10.550   1.656
13480SOL    HW242215  12.211  10.570   1.693
13481SOL     OW42216   9.410  14.018   4.513
13481SOL    HW142217   9.359  13.937   4.513
13481SOL    HW242218   9.491  13.995   4.559
13482SOL     OW42219   2.797  11.378   3.689
13482SOL    HW142220   2.868  11.442   3.696
13482SOL    HW242221   2.720  11.430   3.668
13483SOL     OW42222   1.748  11.879   1.257
13483SOL    HW142223   1.782  11.924   1.334
13483SOL    HW242224   1.704  11.947   1.207
13484SOL     OW42225  10.272  12.516   1.826
13484SOL    HW142226  10.259  12.611   1.837
13484SOL    HW242227  10.208  12.476   1.885
13485SOL     OW42228  10.455   7.738   9.193
13485SOL    HW142229  10.360   7.727   9.206
13485SOL    HW242230  10.471   7.703   9.106
13486SOL     OW42231  11.317  14.286   5.482
13486SOL    HW142232  11.319  14.374   5.444
13486SOL    HW242233  11.403  14.276   5.522
13487SOL     OW42234   6.837   4.778   8.704
13487SOL    HW142235   6.929   4.805   8.704
13487SOL    HW242236   6.828   4.725   8.625
13488SOL     OW42237   0.075   0.445   9.136
13488SOL    HW142238   0.065   0.486   9.050
13488SOL    HW242239   0.096   0.354   9.116
13489SOL     OW42240   7.865  13.083  11.567
13489SOL    HW142241   7.830  13.161  11.609
13489SOL    HW242242   7.794  13.019  11.572
13490SOL     OW42243   1.633  13.280   0.603
13490SOL    HW142244   1.580  13.296   0.681
13490SOL    HW242245   1.647  13.185   0.602
13491SOL     OW42246   1.462  13.848   5.056
13491SOL    HW142247   1.460  13.776   5.119
13491SOL    HW242248   1.470  13.806   4.971
13492SOL     OW42249   6.505   3.265   4.897
13492SOL    HW142250   6.480   3.231   4.983
13492SOL    HW242251   6.588   3.221   4.877
13493SOL     OW42252   2.725  12.251   9.670
13493SOL    HW142253   2.693  12.261   9.759
13493SOL    HW242254   2.770  12.333   9.651
13494SOL     OW42255   5.578  11.102   5.611
13494SOL    HW142256   5.501  11.118   5.664
13494SOL    HW242257   5.568  11.012   5.580
13495SOL     OW42258   1.581  13.002  14.338
13495SOL    HW142259   1.572  12.960  14.252
13495SOL    HW242260   1.554  12.935  14.401
13496SOL     OW42261   5.414   3.434   7.839
13496SOL    HW142262   5.384   3.518   7.872
13496SOL    HW242263   5.491   3.414   7.892
13497SOL     OW42264   4.490   7.179   0.302
13497SOL    HW142265   4.474   7.092   0.339
13497SOL    HW242266   4.405   7.224   0.310
13498SOL     OW42267  12.047   6.986   5.425
13498SOL    HW142268  11.967   7.005   5.377
13498SOL    HW242269  12.080   7.071   5.453
13499SOL     OW42270   7.991  13.697   1.531
13499SOL    HW142271   7.967  13.773   1.583
13499SOL    HW242272   7.919  13.686   1.469
13500SOL     OW42273  11.262   7.184   4.887
13500SOL    HW142274  11.228   7.186   4.976
13500SOL    HW242275  11.197   7.135   4.837
13501SOL     OW42276  10.254  11.696   1.849
13501SOL    HW142277  10.302  11.756   1.905
13501SOL    HW242278  10.175  11.674   1.898
13502SOL     OW42279  13.704   2.745   6.264
13502SOL    HW142280  13.756   2.790   6.330
13502SOL    HW242281  13.626   2.715   6.311
13503SOL     OW42282   2.066  13.485  12.880
13503SOL    HW142283   1.981  13.457  12.845
13503SOL    HW242284   2.055  13.578  12.900
13504SOL     OW42285   4.400   4.084   3.830
13504SOL    HW142286   4.317   4.037   3.822
13504SOL    HW242287   4.377   4.170   3.864
13505SOL     OW42288   7.992   2.858   3.622
13505SOL    HW142289   7.929   2.848   3.551
13505SOL    HW242290   8.078   2.853   3.579
13506SOL     OW42291   4.413  11.283   8.939
13506SOL    HW142292   4.465  11.363   8.943
13506SOL    HW242293   4.478  11.213   8.948
13507SOL     OW42294  10.347  13.957   8.499
13507SOL    HW142295  10.370  13.925   8.412
13507SOL    HW242296  10.388  13.894   8.559
13508SOL     OW42297  13.852  10.170   1.689
13508SOL    HW142298  13.869  10.092   1.635
13508SOL    HW242299  13.922  10.169   1.754
13509SOL     OW42300  13.704   8.829  12.403
13509SOL    HW142301  13.678   8.891  12.335
13509SOL    HW242302  13.793   8.856  12.428
13510SOL     OW42303   9.585   9.657  13.052
13510SOL    HW142304   9.585   9.613  12.967
13510SOL    HW242305   9.678   9.673  13.070
13511SOL     OW42306   2.717  10.145   1.289
13511SOL    HW142307   2.699  10.055   1.264
13511SOL    HW242308   2.666  10.198   1.227
13512SOL     OW42309  12.964  14.292  12.349
13512SOL    HW142310  12.962  14.256  12.438
13512SOL    HW242311  12.950  14.216  12.292
13513SOL     OW42312   7.968   3.021  13.394
13513SOL    HW142313   7.898   2.963  13.366
13513SOL    HW242314   7.959   3.099  13.339
13514SOL     OW42315   2.311   4.487  13.158
13514SOL    HW142316   2.217   4.503  13.150
13514SOL    HW242317   2.350   4.536  13.085
13515SOL     OW42318  12.402   2.366  13.274
13515SOL    HW142319  12.393   2.417  13.193
13515SOL    HW242320  12.316   2.374  13.316
13516SOL     OW42321   1.195  13.659   4.625
13516SOL    HW142322   1.176  13.744   4.585
13516SOL    HW242323   1.199  13.598   4.551
13517SOL     OW42324   1.815   1.966   7.546
13517SOL    HW142325   1.724   1.964   7.576
13517SOL    HW242326   1.862   2.013   7.615
13518SOL     OW42327   4.499  12.589  10.718
13518SOL    HW142328   4.488  12.595  10.813
13518SOL    HW242329   4.457  12.668  10.684
13519SOL     OW42330   6.818   5.032  12.013
13519SOL    HW142331   6.833   4.990  12.098
13519SOL    HW242332   6.877   5.107  12.012
13520SOL     OW42333  10.737   4.102   0.866
13520SOL    HW142334  10.672   4.056   0.919
13520SOL    HW242335  10.718   4.076   0.776
13521SOL     OW42336   4.598   6.412  11.947
13521SOL    HW142337   4.535   6.350  11.983
13521SOL    HW242338   4.576   6.495  11.990
13522SOL     OW42339   0.690   3.957   6.235
13522SOL    HW142340   0.687   3.866   6.265
13522SOL    HW242341   0.766   3.961   6.177
13523SOL     OW42342   1.661   0.560   6.448
13523SOL    HW142343   1.618   0.527   6.527
13523SOL    HW242344   1.751   0.530   6.455
13524SOL     OW42345   6.783   5.957   6.983
13524SOL    HW142346   6.793   5.919   6.895
13524SOL    HW242347   6.843   6.032   6.983
13525SOL     OW42348   3.860  12.215   3.959
13525SOL    HW142349   3.771  12.182   3.941
13525SOL    HW242350   3.906  12.140   3.997
13526SOL     OW42351   8.339   8.828   0.090
13526SOL    HW142352   8.363   8.887   0.161
13526SOL    HW242353   8.422   8.793   0.057
13527SOL     OW42354   6.522   5.169   9.825
13527SOL    HW142355   6.430   5.174   9.799
13527SOL    HW242356   6.523   5.109   9.899
13528SOL     OW42357   0.196   6.476   6.674
13528SOL    HW142358   0.153   6.456   6.758
13528SOL    HW242359   0.269   6.414   6.670
13529SOL     OW42360   5.316   5.712  10.863
13529SOL    HW142361   5.280   5.710  10.952
13529SOL    HW242362   5.359   5.797  10.856
13530SOL     OW42363   4.915   0.599   2.979
13530SOL    HW142364   5.010   0.592   2.973
13530SOL    HW242365   4.884   0.508   2.985
13531SOL     OW42366   2.522   9.249   1.501
13531SOL    HW142367   2.555   9.302   1.573
13531SOL    HW242368   2.518   9.309   1.426
13532SOL     OW42369   2.950   6.623  12.647
13532SOL    HW142370   2.989   6.710  12.653
13532SOL    HW242371   2.944   6.594  12.738
13533SOL     OW42372   3.482  13.762   9.726
13533SOL    HW142373   3.405  13.723   9.767
13533SOL    HW242374   3.473  13.856   9.742
13534SOL     OW42375   5.318   8.885  11.916
13534SOL    HW142376   5.233   8.909  11.879
13534SOL    HW242377   5.317   8.790  11.920
13535SOL     OW42378   4.431   8.942  12.144
13535SOL    HW142379   4.439   8.995  12.223
13535SOL    HW242380   4.472   8.995  12.075
13536SOL     OW42381   4.141   5.266  12.550
13536SOL    HW142382   4.210   5.272  12.616
13536SOL    HW242383   4.179   5.211  12.481
13537SOL     OW42384  14.235   8.039   7.071
13537SOL    HW142385  14.298   8.012   7.138
13537SOL    HW242386  14.220   8.132   7.088
13538SOL     OW42387   0.674  11.338  12.072
13538SOL    HW142388   0.659  11.407  12.008
13538SOL    HW242389   0.756  11.297  12.045
13539SOL     OW42390   3.879   6.632   0.394
13539SOL    HW142391   3.947   6.683   0.438
13539SOL    HW242392   3.917   6.545   0.381
13540SOL     OW42393  10.093   3.719  12.288
13540SOL    HW142394  10.179   3.698  12.251
13540SOL    HW242395  10.080   3.811  12.267
13541SOL     OW42396   5.295   7.380   5.950
13541SOL    HW142397   5.216   7.364   5.899
13541SOL    HW242398   5.274   7.348   6.038
13542SOL     OW42399   8.408   2.543   5.822
13542SOL    HW142400   8.477   2.549   5.756
13542SOL    HW242401   8.445   2.587   5.899
13543SOL     OW42402  11.624  12.505   6.560
13543SOL    HW142403  11.649  12.517   6.468
13543SOL    HW242404  11.610  12.410   6.568
13544SOL     OW42405   1.658  11.225   1.713
13544SOL    HW142406   1.667  11.280   1.634
13544SOL    HW242407   1.588  11.267   1.764
13545SOL     OW42408   9.554   2.612   3.022
13545SOL    HW142409   9.527   2.624   2.931
13545SOL    HW242410   9.473   2.617   3.072
13546SOL     OW42411   3.539   3.176   9.104
13546SOL    HW142412   3.482   3.212   9.037
13546SOL    HW242413   3.507   3.213   9.186
13547SOL     OW42414  14.847   2.505  10.313
13547SOL    HW142415  14.789   2.522  10.387
13547SOL    HW242416   0.058   2.514  10.350
13548SOL     OW42417   6.329   5.926   6.132
13548SOL    HW142418   6.238   5.921   6.161
13548SOL    HW242419   6.381   5.922   6.212
13549SOL     OW42420   3.692  12.769   3.219
13549SOL    HW142421   3.739  12.740   3.297
13549SOL    HW242422   3.636  12.695   3.196
13550SOL     OW42423  13.249   8.057  11.014
13550SOL    HW142424  13.279   7.969  11.037
13550SOL    HW242425  13.174   8.073  11.072
13551SOL     OW42426   4.457   3.315   7.302
13551SOL    HW142427   4.456   3.362   7.385
13551SOL    HW242428   4.366   3.315   7.273
13552SOL     OW42429   8.735   6.621  11.424
13552SOL    HW142430   8.755   6.691  11.487
13552SOL    HW242431   8.821   6.594  11.391
13553SOL     OW42432   5.136   3.482   6.153
13553SOL    HW142433   5.117   3.573   6.132
13553SOL    HW242434   5.112   3.434   6.074
13554SOL     OW42435   5.366   2.220   6.774
13554SOL    HW142436   5.301   2.268   6.825
13554SOL    HW242437   5.447   2.270   6.786
13555SOL     OW42438  10.709   2.141   2.717
13555SOL    HW142439  10.787   2.166   2.667
13555SOL    HW242440  10.731   2.162   2.808
13556SOL     OW42441   9.735  12.542  12.215
13556SOL    HW142442   9.712  12.532  12.307
13556SOL    HW242443   9.652  12.531  12.168
13557SOL     OW42444   8.936   8.004   4.550
13557SOL    HW142445   9.001   8.017   4.480
13557SOL    HW242446   8.989   8.000   4.630
13558SOL     OW42447   6.135  14.745   2.211
13558SOL    HW142448   6.119  14.805   2.283
13558SOL    HW242449   6.208  14.690   2.240
13559SOL     OW42450  10.931   9.432   6.294
13559SOL    HW142451  10.966   9.358   6.244
13559SOL    HW242452  10.966   9.510   6.250
13560SOL     OW42453   7.554   9.438   1.340
13560SOL    HW142454   7.640   9.398   1.349
13560SOL    HW242455   7.521   9.444   1.430
13561SOL     OW42456   0.494  13.198   0.591
13561SOL    HW142457   0.445  13.151   0.659
13561SOL    HW242458   0.583  13.206   0.627
13562SOL     OW42459   2.980   8.411   0.710
13562SOL    HW142460   3.020   8.488   0.751
13562SOL    HW242461   2.926   8.448   0.640
13563SOL     OW42462   7.553   4.586  13.719
13563SOL    HW142463   7.549   4.513  13.781
13563SOL    HW242464   7.462   4.603  13.697
13564SOL     OW42465  11.416   4.237  12.329
13564SOL    HW142466  11.341   4.206  12.279
13564SOL    HW242467  11.464   4.292  12.268
13565SOL     OW42468  14.306   2.562   5.061
13565SOL    HW142469  14.395   2.580   5.089
13565SOL    HW242470  14.298   2.466   5.066
13566SOL     OW42471   2.541   6.220  14.664
13566SOL    HW142472   2.630   6.250  14.684
13566SOL    HW242473   2.484   6.277  14.715
13567SOL     OW42474   5.171  10.886  11.964
13567SOL    HW142475   5.184  10.797  11.930
13567SOL    HW242476   5.247  10.935  11.931
13568SOL     OW42477  11.734  10.305   6.040
13568SOL    HW142478  11.800  10.261   6.092
13568SOL    HW242479  11.703  10.377   6.095
13569SOL     OW42480  10.294   4.035   0.049
13569SOL    HW142481  10.237   4.022  14.850
13569SOL    HW242482  10.353   3.960   0.047
13570SOL     OW42483  11.988   7.821   9.197
13570SOL    HW142484  12.069   7.867   9.218
13570SOL    HW242485  12.005   7.730   9.219
13571SOL     OW42486   1.624   9.626  13.065
13571SOL    HW142487   1.607   9.720  13.063
13571SOL    HW242488   1.711   9.618  13.104
13572SOL     OW42489   7.091   6.941   5.741
13572SOL    HW142490   7.082   7.002   5.814
13572SOL    HW242491   7.142   6.868   5.776
13573SOL     OW42492   4.925   8.309   6.263
13573SOL    HW142493   4.981   8.256   6.206
13573SOL    HW242494   4.929   8.397   6.226
13574SOL     OW42495   5.890   6.295   9.720
13574SOL    HW142496   5.824   6.244   9.674
13574SOL    HW242497   5.899   6.375   9.668
13575SOL     OW42498  12.766   3.971  12.475
13575SOL    HW142499  12.778   3.963  12.381
13575SOL    HW242500  12.725   4.057  12.486
13576SOL     OW42501   2.243   1.172  13.885
13576SOL    HW142502   2.225   1.082  13.915
13576SOL    HW242503   2.173   1.191  13.823
13577SOL     OW42504   4.913   6.974  14.759
13577SOL    HW142505   4.840   6.916  14.739
13577SOL    HW242506   4.886   7.021  14.838
13578SOL     OW42507   2.959   3.032  13.019
13578SOL    HW142508   2.916   2.975  13.083
13578SOL    HW242509   3.043   3.054  13.059
13579SOL     OW42510  10.049  11.540   2.217
13579SOL    HW142511  10.078  11.450   2.233
13579SOL    HW242512  10.023  11.572   2.303
13580SOL     OW42513  12.918   7.754  12.551
13580SOL    HW142514  12.977   7.753  12.626
13580SOL    HW242515  12.898   7.661  12.536
13581SOL     OW42516   6.833   2.206  12.649
13581SOL    HW142517   6.835   2.198  12.745
13581SOL    HW242518   6.893   2.278  12.630
13582SOL     OW42519   0.682  13.012   6.382
13582SOL    HW142520   0.667  13.024   6.288
13582SOL    HW242521   0.596  13.029   6.421
13583SOL     OW42522  12.065   2.883   4.652
13583SOL    HW142523  12.043   2.923   4.736
13583SOL    HW242524  12.159   2.899   4.641
13584SOL     OW42525   6.248   5.513   6.374
13584SOL    HW142526   6.293   5.505   6.289
13584SOL    HW242527   6.236   5.422   6.403
13585SOL     OW42528   5.810   6.024   6.713
13585SOL    HW142529   5.826   6.109   6.753
13585SOL    HW242530   5.874   5.966   6.754
13586SOL     OW42531  11.634   4.714   2.082
13586SOL    HW142532  11.577   4.712   2.159
13586SOL    HW242533  11.722   4.705   2.117
13587SOL     OW42534   6.622  11.405   5.640
13587SOL    HW142535   6.584  11.364   5.563
13587SOL    HW242536   6.603  11.344   5.711
13588SOL     OW42537  10.066   6.724   5.754
13588SOL    HW142538  10.019   6.796   5.796
13588SOL    HW242539  10.032   6.646   5.795
13589SOL     OW42540  10.628   8.374  11.350
13589SOL    HW142541  10.713   8.333  11.341
13589SOL    HW242542  10.620   8.430  11.273
13590SOL     OW42543  13.472   6.637   3.763
13590SOL    HW142544  13.453   6.544   3.772
13590SOL    HW242545  13.395   6.681   3.801
13591SOL     OW42546  10.785  14.822  11.318
13591SOL    HW142547  10.695  14.799  11.297
13591SOL    HW242548  10.830  14.827  11.234
13592SOL     OW42549  14.808   4.766   1.532
13592SOL    HW142550  14.721   4.741   1.502
13592SOL    HW242551  14.845   4.686   1.570
13593SOL     OW42552  11.768   6.536   8.221
13593SOL    HW142553  11.741   6.445   8.229
13593SOL    HW242554  11.686   6.584   8.208
13594SOL     OW42555   3.102   1.014   8.621
13594SOL    HW142556   3.070   0.925   8.633
13594SOL    HW242557   3.183   1.018   8.672
13595SOL     OW42558  14.684  10.458   5.623
13595SOL    HW142559  14.745  10.525   5.655
13595SOL    HW242560  14.715  10.377   5.664
13596SOL     OW42561  14.413   0.655  14.848
13596SOL    HW142562  14.460   0.644   0.053
13596SOL    HW242563  14.331   0.608  14.861
13597SOL     OW42564   1.507   4.561  10.883
13597SOL    HW142565   1.427   4.598  10.920
13597SOL    HW242566   1.477   4.491  10.825
13598SOL     OW42567   4.094   4.083   1.718
13598SOL    HW142568   4.123   4.007   1.769
13598SOL    HW242569   4.032   4.127   1.777
13599SOL     OW42570   4.557   2.772   6.550
13599SOL    HW142571   4.568   2.761   6.644
13599SOL    HW242572   4.504   2.851   6.541
13600SOL     OW42573   1.893  13.178   2.471
13600SOL    HW142574   1.904  13.218   2.557
13600SOL    HW242575   1.965  13.115   2.464
13601SOL     OW42576   5.089   8.735   8.870
13601SOL    HW142577   5.087   8.679   8.947
13601SOL    HW242578   5.182   8.753   8.856
13602SOL     OW42579   3.837  13.731  10.334
13602SOL    HW142580   3.746  13.708  10.350
13602SOL    HW242581   3.834  13.794  10.261
13603SOL     OW42582   0.864  11.181   0.522
13603SOL    HW142583   0.795  11.123   0.491
13603SOL    HW242584   0.819  11.245   0.577
13604SOL     OW42585   8.943   2.491   7.052
13604SOL    HW142586   9.028   2.473   7.010
13604SOL    HW242587   8.929   2.585   7.038
13605SOL     OW42588  10.739   2.203   7.657
13605SOL    HW142589  10.746   2.280   7.601
13605SOL    HW242590  10.775   2.132   7.603
13606SOL     OW42591   4.212  11.609   4.113
13606SOL    HW142592   4.151  11.638   4.181
13606SOL    HW242593   4.197  11.514   4.106
13607SOL     OW42594   7.946   2.372   8.343
13607SOL    HW142595   7.993   2.438   8.292
13607SOL    HW242596   7.861   2.364   8.300
13608SOL     OW42597  11.621  12.633   6.935
13608SOL    HW142598  11.596  12.652   7.025
13608SOL    HW242599  11.711  12.603   6.940
13609SOL     OW42600   3.414  10.160   5.698
13609SOL    HW142601   3.395  10.242   5.653
13609SOL    HW242602   3.505  10.167   5.724
13610SOL     OW42603  13.745   4.694   9.350
13610SOL    HW142604  13.723   4.601   9.352
13610SOL    HW242605  13.769   4.715   9.441
13611SOL     OW42606   5.479   6.178   2.080
13611SOL    HW142607   5.444   6.233   2.150
13611SOL    HW242608   5.401   6.147   2.033
13612SOL     OW42609  14.294  13.820  14.734
13612SOL    HW142610  14.282  13.726  14.719
13612SOL    HW242611  14.257  13.835  14.821
13613SOL     OW42612   3.438   8.286   5.599
13613SOL    HW142613   3.359   8.235   5.580
13613SOL    HW242614   3.406   8.375   5.614
13614SOL     OW42615   4.837   0.990   0.121
13614SOL    HW142616   4.848   1.083   0.141
13614SOL    HW242617   4.810   0.989   0.029
13615SOL     OW42618  12.967   9.034   0.525
13615SOL    HW142619  13.012   9.118   0.541
13615SOL    HW242620  12.886   9.059   0.480
13616SOL     OW42621   0.441  14.411   8.740
13616SOL    HW142622   0.454  14.484   8.679
13616SOL    HW242623   0.490  14.436   8.818
13617SOL     OW42624   1.311   2.514   7.049
13617SOL    HW142625   1.249   2.483   6.982
13617SOL    HW242626   1.389   2.460   7.036
13618SOL     OW42627   4.345  14.284   1.580
13618SOL    HW142628   4.325  14.194   1.605
13618SOL    HW242629   4.439  14.284   1.562
13619SOL     OW42630   2.934  13.926   8.124
13619SOL    HW142631   2.967  13.935   8.213
13619SOL    HW242632   3.004  13.962   8.069
13620SOL     OW42633   5.709  14.412   7.941
13620SOL    HW142634   5.747  14.368   8.018
13620SOL    HW242635   5.770  14.391   7.870
13621SOL     OW42636   8.139   0.499   4.871
13621SOL    HW142637   8.160   0.464   4.957
13621SOL    HW242638   8.045   0.513   4.873
13622SOL     OW42639   5.020   0.997   9.584
13622SOL    HW142640   5.030   0.960   9.496
13622SOL    HW242641   4.949   1.061   9.577
13623SOL     OW42642   7.641   2.224   7.192
13623SOL    HW142643   7.724   2.264   7.219
13623SOL    HW242644   7.667   2.147   7.141
13624SOL     OW42645   5.087   6.949   9.976
13624SOL    HW142646   5.082   6.956   9.880
13624SOL    HW242647   5.018   7.008  10.007
13625SOL     OW42648  12.819  13.148  11.450
13625SOL    HW142649  12.876  13.215  11.489
13625SOL    HW242650  12.742  13.147  11.507
13626SOL     OW42651   7.872   4.693   2.142
13626SOL    HW142652   7.896   4.666   2.231
13626SOL    HW242653   7.796   4.750   2.153
13627SOL     OW42654   1.689   7.641  10.361
13627SOL    HW142655   1.762   7.603  10.411
13627SOL    HW242656   1.730   7.708  10.306
13628SOL     OW42657   4.555   4.591   4.831
13628SOL    HW142658   4.510   4.538   4.896
13628SOL    HW242659   4.512   4.677   4.836
13629SOL     OW42660   9.631   0.482   3.108
13629SOL    HW142661   9.560   0.492   3.171
13629SOL    HW242662   9.687   0.558   3.123
13630SOL     OW42663   7.912   8.059   3.996
13630SOL    HW142664   7.902   8.149   3.964
13630SOL    HW242665   7.822   8.027   4.006
13631SOL     OW42666   2.282  14.352   3.347
13631SOL    HW142667   2.199  14.394   3.324
13631SOL    HW242668   2.256  14.270   3.389
13632SOL     OW42669   0.258   4.187   6.320
13632SOL    HW142670   0.245   4.263   6.264
13632SOL    HW242671   0.285   4.223   6.404
13633SOL     OW42672   3.074  10.601   3.755
13633SOL    HW142673   3.026  10.640   3.682
13633SOL    HW242674   3.020  10.527   3.782
13634SOL     OW42675   3.413   9.336   1.258
13634SOL    HW142676   3.381   9.253   1.292
13634SOL    HW242677   3.479   9.312   1.193
13635SOL     OW42678   8.097   3.891   0.990
13635SOL    HW142679   8.035   3.943   0.940
13635SOL    HW242680   8.177   3.892   0.937
13636SOL     OW42681   6.243   3.133  12.857
13636SOL    HW142682   6.295   3.147  12.937
13636SOL    HW242683   6.259   3.211  12.804
13637SOL     OW42684   9.172   8.059  11.894
13637SOL    HW142685   9.209   8.107  11.821
13637SOL    HW242686   9.106   8.002  11.855
13638SOL     OW42687   8.825   0.909   2.763
13638SOL    HW142688   8.772   0.976   2.720
13638SOL    HW242689   8.824   0.933   2.856
13639SOL     OW42690   9.858   9.185  12.178
13639SOL    HW142691   9.945   9.217  12.153
13639SOL    HW242692   9.805   9.264  12.188
13640SOL     OW42693   1.431   0.684   7.343
13640SOL    HW142694   1.436   0.608   7.401
13640SOL    HW242695   1.349   0.671   7.294
13641SOL     OW42696   2.190  11.630   8.676
13641SOL    HW142697   2.170  11.541   8.706
13641SOL    HW242698   2.228  11.673   8.753
13642SOL     OW42699  12.466   7.407   5.929
13642SOL    HW142700  12.430   7.469   5.993
13642SOL    HW242701  12.440   7.321   5.962
13643SOL     OW42702  13.875   2.974  14.325
13643SOL    HW142703  13.858   2.933  14.240
13643SOL    HW242704  13.897   2.901  14.383
13644SOL     OW42705   0.745  12.433  12.671
13644SOL    HW142706   0.652  12.427  12.695
13644SOL    HW242707   0.758  12.525  12.649
13645SOL     OW42708   9.473   4.268  10.238
13645SOL    HW142709   9.562   4.235  10.226
13645SOL    HW242710   9.463   4.275  10.333
13646SOL     OW42711  11.571   5.026   5.686
13646SOL    HW142712  11.553   5.029   5.780
13646SOL    HW242713  11.658   5.065   5.677
13647SOL     OW42714   2.792   6.388  10.718
13647SOL    HW142715   2.773   6.299  10.689
13647SOL    HW242716   2.858   6.377  10.787
13648SOL     OW42717  12.469   4.165   4.604
13648SOL    HW142718  12.399   4.224   4.632
13648SOL    HW242719  12.526   4.157   4.680
13649SOL     OW42720   5.648   9.746   2.694
13649SOL    HW142721   5.742   9.760   2.710
13649SOL    HW242722   5.642   9.731   2.600
13650SOL     OW42723  14.828  13.060   3.596
13650SOL    HW142724  14.761  13.127   3.610
13650SOL    HW242725  14.864  13.042   3.682
13651SOL     OW42726   1.289   3.472  10.552
13651SOL    HW142727   1.269   3.378  10.559
13651SOL    HW242728   1.272   3.493  10.460
13652SOL     OW42729   3.611   2.874   2.535
13652SOL    HW142730   3.661   2.952   2.561
13652SOL    HW242731   3.675   2.803   2.540
13653SOL     OW42732   1.980   6.883   5.750
13653SOL    HW142733   1.971   6.862   5.657
13653SOL    HW242734   2.021   6.969   5.751
13654SOL     OW42735   6.518   8.499   8.663
13654SOL    HW142736   6.539   8.586   8.630
13654SOL    HW242737   6.454   8.464   8.600
13655SOL     OW42738   4.970   0.619  10.397
13655SOL    HW142739   5.018   0.605  10.316
13655SOL    HW242740   4.946   0.712  10.396
13656SOL     OW42741   2.065   3.048   9.223
13656SOL    HW142742   2.154   3.012   9.222
13656SOL    HW242743   2.057   3.095   9.140
13657SOL     OW42744   4.378   9.275   5.313
13657SOL    HW142745   4.467   9.239   5.309
13657SOL    HW242746   4.379   9.349   5.253
13658SOL     OW42747   3.457   5.742   2.886
13658SOL    HW142748   3.539   5.696   2.868
13658SOL    HW242749   3.479   5.805   2.954
13659SOL     OW42750   6.233   5.507   7.761
13659SOL    HW142751   6.221   5.573   7.693
13659SOL    HW242752   6.275   5.433   7.716
13660SOL     OW42753   3.724   3.252  14.406
13660SOL    HW142754   3.750   3.312  14.476
13660SOL    HW242755   3.741   3.302  14.326
13661SOL     OW42756   0.435   0.060   6.148
13661SOL    HW142757   0.452   0.066   6.054
13661SOL    HW242758   0.408  14.846   6.161
13662SOL     OW42759   5.704   0.149  10.964
13662SOL    HW142760   5.689   0.121  11.055
13662SOL    HW242761   5.761   0.226  10.972
13663SOL     OW42762   0.309   1.006   5.449
13663SOL    HW142763   0.296   1.036   5.539
13663SOL    HW242764   0.389   0.953   5.453
13664SOL     OW42765   4.648   9.152   1.406
13664SOL    HW142766   4.665   9.244   1.387
13664SOL    HW242767   4.608   9.118   1.326
13665SOL     OW42768   7.867  12.240  11.551
13665SOL    HW142769   7.824  12.322  11.578
13665SOL    HW242770   7.908  12.208  11.631
13666SOL     OW42771   5.042   3.891   0.667
13666SOL    HW142772   4.972   3.932   0.616
13666SOL    HW242773   5.113   3.955   0.666
13667SOL     OW42774   3.009  13.797   3.885
13667SOL    HW142775   3.050  13.881   3.865
13667SOL    HW242776   3.037  13.777   3.974
13668SOL     OW42777  14.596   9.435   7.502
13668SOL    HW142778  14.609   9.385   7.422
13668SOL    HW242779  14.679   9.481   7.516
13669SOL     OW42780   5.384  11.509   7.653
13669SOL    HW142781   5.411  11.570   7.721
13669SOL    HW242782   5.429  11.540   7.574
13670SOL     OW42783   9.723   2.010  13.856
13670SOL    HW142784   9.802   1.960  13.873
13670SOL    HW242785   9.753   2.090  13.813
13671SOL     OW42786  10.296   4.509   0.822
13671SOL    HW142787  10.378   4.551   0.796
13671SOL    HW242788  10.232   4.536   0.756
13672SOL     OW42789   8.602  14.425   2.361
13672SOL    HW142790   8.584  14.449   2.452
13672SOL    HW242791   8.676  14.364   2.366
13673SOL     OW42792   1.385   6.698  11.802
13673SOL    HW142793   1.408   6.670  11.890
13673SOL    HW242794   1.315   6.638  11.775
13674SOL     OW42795   8.149  10.285   4.102
13674SOL    HW142796   8.201  10.268   4.181
13674SOL    HW242797   8.110  10.371   4.118
13675SOL     OW42798  10.804   4.067  13.087
13675SOL    HW142799  10.783   4.120  13.010
13675SOL    HW242800  10.827   3.981  13.052
13676SOL     OW42801   0.247  13.604   9.523
13676SOL    HW142802   0.308  13.580   9.453
13676SOL    HW242803   0.271  13.694   9.545
13677SOL     OW42804   2.158   2.370   6.431
13677SOL    HW142805   2.163   2.368   6.526
13677SOL    HW242806   2.230   2.428   6.404
13678SOL     OW42807   7.399   0.257   7.743
13678SOL    HW142808   7.330   0.202   7.705
13678SOL    HW242809   7.412   0.222   7.831
13679SOL     OW42810   1.332  14.094  10.314
13679SOL    HW142811   1.291  14.066  10.232
13679SOL    HW242812   1.359  14.013  10.357
13680SOL     OW42813  10.802  12.373   8.945
13680SOL    HW142814  10.871  12.366   9.011
13680SOL    HW242815  10.823  12.305   8.881
13681SOL     OW42816   0.896  14.345  12.252
13681SOL    HW142817   0.847  14.413  12.298
13681SOL    HW242818   0.970  14.326  12.309
13682SOL     OW42819   5.411  12.161  13.412
13682SOL    HW142820   5.426  12.200  13.497
13682SOL    HW242821   5.343  12.095  13.427
13683SOL     OW42822  14.522  10.918   2.225
13683SOL    HW142823  14.594  10.890   2.169
13683SOL    HW242824  14.443  10.904   2.172
13684SOL     OW42825   3.870   1.099   3.155
13684SOL    HW142826   3.847   1.153   3.079
13684SOL    HW242827   3.910   1.020   3.117
13685SOL     OW42828  12.777  14.069   5.240
13685SOL    HW142829  12.827  14.111   5.310
13685SOL    HW242830  12.835  14.001   5.206
13686SOL     OW42831   6.645   9.232  12.065
13686SOL    HW142832   6.561   9.212  12.107
13686SOL    HW242833   6.638   9.324  12.041
13687SOL     OW42834   8.129   2.033   6.060
13687SOL    HW142835   8.188   2.026   6.135
13687SOL    HW242836   8.094   1.945   6.048
13688SOL     OW42837   9.062  10.520   7.184
13688SOL    HW142838   9.122  10.452   7.154
13688SOL    HW242839   8.993  10.522   7.117
13689SOL     OW42840  13.729  13.492  12.793
13689SOL    HW142841  13.703  13.580  12.765
13689SOL    HW242842  13.719  13.437  12.715
13690SOL     OW42843   5.690   5.199   3.062
13690SOL    HW142844   5.755   5.132   3.043
13690SOL    HW242845   5.675   5.192   3.156
13691SOL     OW42846   8.521   2.940   5.496
13691SOL    HW142847   8.535   2.964   5.588
13691SOL    HW242848   8.608   2.942   5.457
13692SOL     OW42849  11.123   0.828   7.094
13692SOL    HW142850  11.035   0.855   7.068
13692SOL    HW242851  11.181   0.879   7.038
13693SOL     OW42852  13.402  10.646   8.499
13693SOL    HW142853  13.474  10.638   8.436
13693SOL    HW242854  13.359  10.561   8.498
13694SOL     OW42855  13.640   8.313   0.387
13694SOL    HW142856  13.562   8.258   0.377
13694SOL    HW242857  13.616   8.377   0.454
13695SOL     OW42858   8.238   4.327   6.591
13695SOL    HW142859   8.224   4.248   6.539
13695SOL    HW242860   8.154   4.345   6.633
13696SOL     OW42861  10.754  14.459   7.026
13696SOL    HW142862  10.700  14.424   7.096
13696SOL    HW242863  10.732  14.405   6.949
13697SOL     OW42864  13.436  11.780   8.933
13697SOL    HW142865  13.359  11.737   8.896
13697SOL    HW242866  13.401  11.834   9.004
13698SOL     OW42867   5.804   5.464   3.684
13698SOL    HW142868   5.821   5.512   3.764
13698SOL    HW242869   5.890   5.432   3.656
13699SOL     OW42870   4.242  13.674   1.168
13699SOL    HW142871   4.243  13.652   1.261
13699SOL    HW242872   4.308  13.743   1.159
13700SOL     OW42873   3.543  11.051   2.270
13700SOL    HW142874   3.493  10.977   2.235
13700SOL    HW242875   3.625  11.012   2.299
13701SOL     OW42876  14.329  13.476   7.462
13701SOL    HW142877  14.397  13.457   7.398
13701SOL    HW242878  14.287  13.391   7.479
13702SOL     OW42879   5.582   8.741   6.023
13702SOL    HW142880   5.656   8.772   6.075
13702SOL    HW242881   5.588   8.788   5.940
13703SOL     OW42882   4.272  11.603   5.505
13703SOL    HW142883   4.257  11.568   5.417
13703SOL    HW242884   4.361  11.638   5.502
13704SOL     OW42885   8.453   3.952  14.644
13704SOL    HW142886   8.415   3.866  14.627
13704SOL    HW242887   8.438   3.967  14.737
13705SOL     OW42888   0.146   7.983   7.491
13705SOL    HW142889   0.144   7.888   7.506
13705SOL    HW242890   0.210   7.995   7.422
13706SOL     OW42891   0.631   0.958   3.198
13706SOL    HW142892   0.699   0.890   3.199
13706SOL    HW242893   0.678   1.040   3.212
13707SOL     OW42894   1.065  14.639   8.149
13707SOL    HW142895   1.037  14.728   8.168
13707SOL    HW242896   0.987  14.596   8.114
13708SOL     OW42897  13.456   5.642   5.212
13708SOL    HW142898  13.452   5.561   5.263
13708SOL    HW242899  13.457   5.613   5.121
13709SOL     OW42900  10.475   6.501   7.023
13709SOL    HW142901  10.400   6.553   6.996
13709SOL    HW242902  10.535   6.565   7.063
13710SOL     OW42903   0.956   8.661   7.712
13710SOL    HW142904   1.041   8.668   7.667
13710SOL    HW242905   0.971   8.598   7.782
13711SOL     OW42906  11.312   9.628   3.151
13711SOL    HW142907  11.386   9.685   3.131
13711SOL    HW242908  11.304   9.572   3.075
13712SOL     OW42909   3.073  10.037   3.262
13712SOL    HW142910   2.990  10.005   3.226
13712SOL    HW242911   3.065  10.025   3.356
13713SOL     OW42912   4.781   2.123   8.339
13713SOL    HW142913   4.775   2.032   8.309
13713SOL    HW242914   4.698   2.139   8.384
13714SOL     OW42915   9.017  14.475  14.142
13714SOL    HW142916   8.935  14.426  14.150
13714SOL    HW242917   9.051  14.451  14.056
13715SOL     OW42918   3.559   9.613  11.289
13715SOL    HW142919   3.563   9.528  11.331
13715SOL    HW242920   3.466   9.630  11.276
13716SOL     OW42921   1.113   4.646   3.098
13716SOL    HW142922   1.102   4.740   3.104
13716SOL    HW242923   1.180   4.625   3.164
13717SOL     OW42924  14.373   8.772  11.229
13717SOL    HW142925  14.401   8.686  11.198
13717SOL    HW242926  14.396   8.773  11.322
13718SOL     OW42927   6.626  14.578   6.662
13718SOL    HW142928   6.547  14.591   6.610
13718SOL    HW242929   6.605  14.614   6.748
13719SOL     OW42930  11.639   2.973  10.989
13719SOL    HW142931  11.721   3.002  11.029
13719SOL    HW242932  11.622   2.887  11.028
13720SOL     OW42933   7.492  12.430  12.228
13720SOL    HW142934   7.573  12.463  12.187
13720SOL    HW242935   7.509  12.438  12.322
13721SOL     OW42936   0.900   0.978   9.139
13721SOL    HW142937   0.927   1.022   9.058
13721SOL    HW242938   0.881   0.888   9.112
13722SOL     OW42939  10.254   4.616  12.125
13722SOL    HW142940  10.228   4.703  12.097
13722SOL    HW242941  10.350   4.621  12.134
13723SOL     OW42942   4.952   6.669  13.142
13723SOL    HW142943   4.918   6.758  13.132
13723SOL    HW242944   5.020   6.662  13.075
13724SOL     OW42945   1.641   1.955   6.161
13724SOL    HW142946   1.553   1.974   6.127
13724SOL    HW242947   1.678   2.042   6.179
13725SOL     OW42948   1.533   0.460   2.390
13725SOL    HW142949   1.576   0.416   2.464
13725SOL    HW242950   1.442   0.433   2.396
13726SOL     OW42951   2.434  11.696  14.674
13726SOL    HW142952   2.456  11.606  14.699
13726SOL    HW242953   2.384  11.730  14.748
13727SOL     OW42954  13.627  14.103   7.371
13727SOL    HW142955  13.675  14.096   7.289
13727SOL    HW242956  13.680  14.054   7.434
13728SOL     OW42957  12.682   9.920   0.638
13728SOL    HW142958  12.752   9.893   0.579
13728SOL    HW242959  12.687  10.016   0.640
13729SOL     OW42960   9.140  12.630   2.067
13729SOL    HW142961   9.130  12.718   2.104
13729SOL    HW242962   9.226  12.601   2.098
13730SOL     OW42963   3.461   4.795  12.582
13730SOL    HW142964   3.366   4.802  12.581
13730SOL    HW242965   3.478   4.706  12.612
13731SOL     OW42966   9.246   7.339   1.783
13731SOL    HW142967   9.295   7.286   1.721
13731SOL    HW242968   9.205   7.276   1.842
13732SOL     OW42969   4.816   6.654   1.781
13732SOL    HW142970   4.835   6.713   1.708
13732SOL    HW242971   4.821   6.710   1.859
13733SOL     OW42972  11.878  11.107   0.143
13733SOL    HW142973  11.967  11.108   0.108
13733SOL    HW242974  11.829  11.166   0.086
13734SOL     OW42975   5.401   6.428  10.906
13734SOL    HW142976   5.460   6.474  10.847
13734SOL    HW242977   5.408   6.476  10.989
13735SOL     OW42978  11.213   8.330   2.145
13735SOL    HW142979  11.248   8.417   2.123
13735SOL    HW242980  11.265   8.302   2.220
13736SOL     OW42981   4.202   2.593  10.239
13736SOL    HW142982   4.165   2.516  10.281
13736SOL    HW242983   4.296   2.584  10.252
13737SOL     OW42984  13.082  13.964   4.208
13737SOL    HW142985  13.148  13.999   4.147
13737SOL    HW242986  13.080  13.870   4.189
13738SOL     OW42987   9.773   2.013   2.226
13738SOL    HW142988   9.843   1.951   2.247
13738SOL    HW242989   9.701   1.988   2.285
13739SOL     OW42990   4.263  14.572  13.746
13739SOL    HW142991   4.340  14.516  13.750
13739SOL    HW242992   4.197  14.520  13.700
13740SOL     OW42993   7.383  12.420   0.738
13740SOL    HW142994   7.307  12.417   0.796
13740SOL    HW242995   7.454  12.450   0.794
13741SOL     OW42996   8.207   5.926   1.385
13741SOL    HW142997   8.163   5.999   1.343
13741SOL    HW242998   8.171   5.848   1.342
13742SOL     OW42999   1.828   9.437   7.181
13742SOL    HW143000   1.880   9.517   7.171
13742SOL    HW243001   1.769   9.456   7.254
13743SOL     OW43002   4.451   1.697   7.871
13743SOL    HW143003   4.450   1.654   7.786
13743SOL    HW243004   4.440   1.790   7.850
13744SOL     OW43005  11.586   5.635  10.475
13744SOL    HW143006  11.629   5.699  10.418
13744SOL    HW243007  11.510   5.606  10.425
13745SOL     OW43008   4.349   0.778  10.564
13745SOL    HW143009   4.335   0.727  10.485
13745SOL    HW243010   4.420   0.732  10.609
13746SOL     OW43011   8.424   7.352  13.256
13746SOL    HW143012   8.372   7.305  13.191
13746SOL    HW243013   8.492   7.291  13.281
13747SOL     OW43014  11.169  12.449   2.138
13747SOL    HW143015  11.087  12.484   2.172
13747SOL    HW243016  11.184  12.497   2.057
13748SOL     OW43017   5.238   2.190  11.607
13748SOL    HW143018   5.307   2.255  11.588
13748SOL    HW243019   5.272   2.139  11.680
13749SOL     OW43020   8.745   7.289  12.118
13749SOL    HW143021   8.750   7.234  12.040
13749SOL    HW243022   8.660   7.332  12.113
13750SOL     OW43023   5.536   5.497   6.370
13750SOL    HW143024   5.505   5.408   6.357
13750SOL    HW243025   5.478   5.551   6.316
13751SOL     OW43026   9.993   4.900   3.778
13751SOL    HW143027  10.079   4.863   3.763
13751SOL    HW243028  10.009   4.993   3.797
13752SOL     OW43029  11.566   5.536   1.574
13752SOL    HW143030  11.635   5.471   1.582
13752SOL    HW243031  11.532   5.546   1.663
13753SOL     OW43032   3.681   2.269  13.588
13753SOL    HW143033   3.751   2.229  13.537
13753SOL    HW243034   3.724   2.300  13.668
13754SOL     OW43035   7.412   9.952  12.489
13754SOL    HW143036   7.382   9.912  12.571
13754SOL    HW243037   7.374   9.898  12.420
13755SOL     OW43038  11.256  14.028   8.373
13755SOL    HW143039  11.236  13.994   8.286
13755SOL    HW243040  11.320  13.967   8.409
13756SOL     OW43041   7.999   3.760   2.655
13756SOL    HW143042   7.986   3.714   2.573
13756SOL    HW243043   8.080   3.724   2.691
13757SOL     OW43044  14.059   6.924   6.637
13757SOL    HW143045  13.972   6.910   6.600
13757SOL    HW243046  14.053   6.888   6.726
13758SOL     OW43047  14.529  10.310  12.879
13758SOL    HW143048  14.532  10.400  12.909
13758SOL    HW243049  14.620  10.289  12.857
13759SOL     OW43050   5.807  13.919   2.104
13759SOL    HW143051   5.799  14.005   2.144
13759SOL    HW243052   5.774  13.858   2.170
13760SOL     OW43053   1.454   9.425  12.046
13760SOL    HW143054   1.521   9.360  12.066
13760SOL    HW243055   1.498   9.489  11.990
13761SOL     OW43056   7.724   2.522  12.130
13761SOL    HW143057   7.799   2.558  12.084
13761SOL    HW243058   7.730   2.428  12.117
13762SOL     OW43059   9.978  12.767   9.123
13762SOL    HW143060   9.964  12.810   9.208
13762SOL    HW243061   9.905  12.705   9.116
13763SOL     OW43062   0.264  12.153   1.466
13763SOL    HW143063   0.223  12.125   1.548
13763SOL    HW243064   0.347  12.191   1.492
13764SOL     OW43065   0.291   3.758   0.431
13764SOL    HW143066   0.375   3.787   0.467
13764SOL    HW243067   0.314   3.699   0.359
13765SOL     OW43068  12.389   8.711   3.587
13765SOL    HW143069  12.420   8.801   3.592
13765SOL    HW243070  12.328   8.710   3.514
13766SOL     OW43071   4.042   8.165  12.797
13766SOL    HW143072   3.985   8.090  12.782
13766SOL    HW243073   3.986   8.241  12.786
13767SOL     OW43074   5.434   8.476   1.876
13767SOL    HW143075   5.468   8.476   1.787
13767SOL    HW243076   5.422   8.383   1.897
13768SOL     OW43077   3.665   7.928   8.578
13768SOL    HW143078   3.758   7.906   8.569
13768SOL    HW243079   3.660   8.020   8.551
13769SOL     OW43080  13.392  12.306  12.764
13769SOL    HW143081  13.351  12.267  12.841
13769SOL    HW243082  13.463  12.360  12.798
13770SOL     OW43083  10.797  12.397   9.660
13770SOL    HW143084  10.827  12.317   9.616
13770SOL    HW243085  10.762  12.451   9.590
13771SOL     OW43086  13.530   3.297  11.209
13771SOL    HW143087  13.521   3.284  11.114
13771SOL    HW243088  13.548   3.390  11.219
13772SOL     OW43089   9.923   8.141  13.790
13772SOL    HW143090  10.013   8.110  13.791
13772SOL    HW243091   9.890   8.116  13.703
13773SOL     OW43092   3.891   5.311   9.469
13773SOL    HW143093   3.845   5.287   9.389
13773SOL    HW243094   3.928   5.397   9.451
13774SOL     OW43095  13.230   4.436   1.002
13774SOL    HW143096  13.263   4.429   1.092
13774SOL    HW243097  13.205   4.528   0.993
13775SOL     OW43098  11.209   2.699   1.200
13775SOL    HW143099  11.183   2.730   1.286
13775SOL    HW243100  11.259   2.772   1.163
13776SOL     OW43101   8.942   8.100   3.531
13776SOL    HW143102   9.014   8.118   3.591
13776SOL    HW243103   8.930   8.182   3.483
13777SOL     OW43104   7.619   9.830   8.100
13777SOL    HW143105   7.570   9.831   8.183
13777SOL    HW243106   7.586   9.753   8.054
13778SOL     OW43107  14.116   1.052  11.234
13778SOL    HW143108  14.140   1.026  11.323
13778SOL    HW243109  14.060   1.129  11.247
13779SOL     OW43110   4.845   1.419  11.217
13779SOL    HW143111   4.784   1.400  11.288
13779SOL    HW243112   4.929   1.383  11.247
13780SOL     OW43113   6.952   5.678   8.996
13780SOL    HW143114   6.861   5.705   8.984
13780SOL    HW243115   6.953   5.585   8.974
13781SOL     OW43116  11.545   1.852   3.876
13781SOL    HW143117  11.638   1.842   3.895
13781SOL    HW243118  11.514   1.763   3.860
13782SOL     OW43119   3.537   5.628  13.363
13782SOL    HW143120   3.477   5.658  13.294
13782SOL    HW243121   3.585   5.555  13.324
13783SOL     OW43122   4.818   1.276  10.727
13783SOL    HW143123   4.790   1.329  10.802
13783SOL    HW243124   4.824   1.187  10.762
13784SOL     OW43125   2.083   0.610   7.698
13784SOL    HW143126   2.163   0.616   7.645
13784SOL    HW243127   2.021   0.669   7.655
13785SOL     OW43128   4.998  12.912   4.261
13785SOL    HW143129   5.045  12.967   4.324
13785SOL    HW243130   5.067  12.870   4.210
13786SOL     OW43131   8.674   1.958   4.587
13786SOL    HW143132   8.720   2.003   4.658
13786SOL    HW243133   8.584   1.989   4.593
13787SOL     OW43134   9.920   1.860   3.061
13787SOL    HW143135   9.942   1.767   3.068
13787SOL    HW243136   9.886   1.883   3.148
13788SOL     OW43137   9.223   3.591   1.381
13788SOL    HW143138   9.260   3.541   1.454
13788SOL    HW243139   9.245   3.682   1.400
13789SOL     OW43140  12.112   3.143   9.837
13789SOL    HW143141  12.023   3.150   9.870
13789SOL    HW243142  12.139   3.234   9.821
13790SOL     OW43143  10.737   0.096   7.059
13790SOL    HW143144  10.832   0.087   7.058
13790SOL    HW243145  10.722   0.185   7.026
13791SOL     OW43146   0.254  12.657   8.366
13791SOL    HW143147   0.327  12.616   8.319
13791SOL    HW243148   0.258  12.619   8.454
13792SOL     OW43149   9.338  11.603   7.065
13792SOL    HW143150   9.278  11.531   7.049
13792SOL    HW243151   9.365  11.631   6.977
13793SOL     OW43152  12.044  14.487  12.506
13793SOL    HW143153  11.972  14.428  12.483
13793SOL    HW243154  12.001  14.570  12.529
13794SOL     OW43155   6.682   5.206   8.070
13794SOL    HW143156   6.757   5.146   8.081
13794SOL    HW243157   6.691   5.239   7.981
13795SOL     OW43158  14.270   9.678  13.498
13795SOL    HW143159  14.281   9.667  13.403
13795SOL    HW243160  14.348   9.638  13.536
13796SOL     OW43161   7.450  10.165  12.297
13796SOL    HW143162   7.418  10.113  12.370
13796SOL    HW243163   7.511  10.108  12.250
13797SOL     OW43164  14.519   7.949   4.431
13797SOL    HW143165  14.499   7.873   4.485
13797SOL    HW243166  14.522   7.915   4.342
13798SOL     OW43167  12.316  10.938  13.927
13798SOL    HW143168  12.394  10.958  13.979
13798SOL    HW243169  12.269  11.021  13.923
13799SOL     OW43170   8.372   1.338   8.786
13799SOL    HW143171   8.385   1.258   8.735
13799SOL    HW243172   8.420   1.406   8.739
13800SOL     OW43173   2.766   4.311   9.865
13800SOL    HW143174   2.806   4.337   9.782
13800SOL    HW243175   2.701   4.379   9.883
13801SOL     OW43176  12.218   0.445   0.263
13801SOL    HW143177  12.171   0.372   0.301
13801SOL    HW243178  12.161   0.521   0.275
13802SOL     OW43179   0.319   1.884   4.820
13802SOL    HW143180   0.329   1.789   4.820
13802SOL    HW243181   0.262   1.902   4.745
13803SOL     OW43182   7.368  13.876   9.225
13803SOL    HW143183   7.360  13.807   9.160
13803SOL    HW243184   7.376  13.957   9.174
13804SOL     OW43185  13.809  13.384   6.012
13804SOL    HW143186  13.886  13.411   5.963
13804SOL    HW243187  13.822  13.419   6.100
13805SOL     OW43188   0.815   9.724   5.549
13805SOL    HW143189   0.905   9.707   5.520
13805SOL    HW243190   0.770   9.640   5.539
13806SOL     OW43191   7.092   3.296   7.485
13806SOL    HW143192   7.068   3.240   7.559
13806SOL    HW243193   7.012   3.343   7.463
13807SOL     OW43194  11.499   1.186   8.560
13807SOL    HW143195  11.512   1.247   8.632
13807SOL    HW243196  11.461   1.238   8.490
13808SOL     OW43197  13.296   5.239   4.815
13808SOL    HW143198  13.256   5.318   4.850
13808SOL    HW243199  13.378   5.270   4.775
13809SOL     OW43200  12.274   8.739   4.318
13809SOL    HW143201  12.244   8.648   4.323
13809SOL    HW243202  12.232   8.783   4.392
13810SOL     OW43203  10.572   1.369  11.503
13810SOL    HW143204  10.597   1.421  11.426
13810SOL    HW243205  10.503   1.420  11.545
13811SOL     OW43206  14.415  12.317   5.293
13811SOL    HW143207  14.436  12.371   5.217
13811SOL    HW243208  14.327  12.344   5.318
13812SOL     OW43209  10.379  14.468   7.264
13812SOL    HW143210  10.466  14.457   7.227
13812SOL    HW243211  10.384  14.550   7.314
13813SOL     OW43212  12.513  10.429  10.048
13813SOL    HW143213  12.423  10.402  10.066
13813SOL    HW243214  12.566  10.351  10.064
13814SOL     OW43215   8.066   1.695   9.977
13814SOL    HW143216   8.120   1.686   9.898
13814SOL    HW243217   8.035   1.785   9.975
13815SOL     OW43218  10.734   6.849  12.263
13815SOL    HW143219  10.821   6.812  12.253
13815SOL    HW243220  10.678   6.797  12.206
13816SOL     OW43221   0.397   6.903   7.073
13816SOL    HW143222   0.390   6.808   7.087
13816SOL    HW243223   0.491   6.921   7.079
13817SOL     OW43224   4.539   3.782   0.794
13817SOL    HW143225   4.487   3.706   0.819
13817SOL    HW243226   4.478   3.856   0.799
13818SOL     OW43227   4.052   1.310  10.319
13818SOL    HW143228   4.048   1.380  10.384
13818SOL    HW243229   4.027   1.353  10.237
13819SOL     OW43230   5.848  10.294   5.256
13819SOL    HW143231   5.816  10.339   5.333
13819SOL    HW243232   5.770  10.279   5.202
13820SOL     OW43233   2.216   8.543  14.321
13820SOL    HW143234   2.148   8.557  14.254
13820SOL    HW243235   2.292   8.513  14.272
13821SOL     OW43236   4.590   5.269  11.365
13821SOL    HW143237   4.651   5.336  11.398
13821SOL    HW243238   4.504   5.312  11.367
13822SOL     OW43239   8.311   2.768   4.005
13822SOL    HW143240   8.336   2.692   4.057
13822SOL    HW243241   8.366   2.839   4.037
13823SOL     OW43242   6.698  11.002  14.447
13823SOL    HW143243   6.669  10.920  14.406
13823SOL    HW243244   6.688  11.068  14.379
13824SOL     OW43245   5.920   6.954   6.116
13824SOL    HW143246   5.979   6.929   6.187
13824SOL    HW243247   5.949   6.903   6.041
13825SOL     OW43248   7.623   4.764   5.500
13825SOL    HW143249   7.703   4.759   5.553
13825SOL    HW243250   7.597   4.856   5.505
13826SOL     OW43251   7.482   6.920   9.061
13826SOL    HW143252   7.488   6.847   9.122
13826SOL    HW243253   7.468   6.879   8.976
13827SOL     OW43254   5.938   0.907  12.230
13827SOL    HW143255   5.900   0.932  12.314
13827SOL    HW243256   5.874   0.937  12.165
13828SOL     OW43257   4.260  12.213   8.290
13828SOL    HW143258   4.168  12.236   8.277
13828SOL    HW243259   4.259  12.142   8.355
13829SOL     OW43260  14.331   0.411   2.971
13829SOL    HW143261  14.295   0.385   3.056
13829SOL    HW243262  14.298   0.345   2.910
13830SOL     OW43263   4.580  11.771   5.943
13830SOL    HW143264   4.530  11.703   5.897
13830SOL    HW243265   4.571  11.849   5.888
13831SOL     OW43266   9.583   7.766  11.797
13831SOL    HW143267   9.543   7.796  11.716
13831SOL    HW243268   9.673   7.747  11.774
13832SOL     OW43269   6.541   4.252   0.217
13832SOL    HW143270   6.531   4.225   0.309
13832SOL    HW243271   6.624   4.214   0.190
13833SOL     OW43272  10.260   9.787   1.416
13833SOL    HW143273  10.299   9.700   1.401
13833SOL    HW243274  10.169   9.778   1.386
13834SOL     OW43275   8.416  13.666  12.356
13834SOL    HW143276   8.404  13.680  12.262
13834SOL    HW243277   8.328  13.680  12.393
13835SOL     OW43278   1.778   4.335   5.396
13835SOL    HW143279   1.783   4.267   5.329
13835SOL    HW243280   1.837   4.404   5.365
13836SOL     OW43281  10.422  11.683  13.476
13836SOL    HW143282  10.381  11.637  13.550
13836SOL    HW243283  10.445  11.613  13.415
13837SOL     OW43284   7.715   3.453   4.370
13837SOL    HW143285   7.802   3.489   4.386
13837SOL    HW243286   7.672   3.517   4.313
13838SOL     OW43287   5.859  12.182   2.032
13838SOL    HW143288   5.904  12.266   2.023
13838SOL    HW243289   5.779  12.192   1.979
13839SOL     OW43290   5.537   7.108   6.993
13839SOL    HW143291   5.604   7.066   7.047
13839SOL    HW243292   5.586   7.163   6.932
13840SOL     OW43293   6.541   7.419   1.343
13840SOL    HW143294   6.570   7.328   1.353
13840SOL    HW243295   6.525   7.449   1.433
13841SOL     OW43296   3.076   5.845  10.888
13841SOL    HW143297   3.041   5.926  10.851
13841SOL    HW243298   3.010   5.817  10.953
13842SOL     OW43299  11.984   2.824  13.061
13842SOL    HW143300  12.069   2.851  13.027
13842SOL    HW243301  11.967   2.884  13.134
13843SOL     OW43302   8.029   4.619   8.426
13843SOL    HW143303   8.099   4.592   8.367
13843SOL    HW243304   7.952   4.626   8.369
13844SOL     OW43305   3.959   7.332   5.784
13844SOL    HW143306   3.938   7.362   5.872
13844SOL    HW243307   3.996   7.409   5.741
13845SOL     OW43308   1.748   0.824   8.244
13845SOL    HW143309   1.771   0.732   8.253
13845SOL    HW243310   1.822   0.862   8.196
13846SOL     OW43311   6.642   7.683   3.799
13846SOL    HW143312   6.736   7.699   3.789
13846SOL    HW243313   6.620   7.619   3.731
13847SOL     OW43314   1.886   0.480   3.491
13847SOL    HW143315   1.957   0.532   3.454
13847SOL    HW243316   1.902   0.480   3.586
13848SOL     OW43317  11.328   0.702  11.214
13848SOL    HW143318  11.422   0.704  11.195
13848SOL    HW243319  11.311   0.614  11.246
13849SOL     OW43320  13.131  10.728  11.461
13849SOL    HW143321  13.107  10.687  11.378
13849SOL    HW243322  13.196  10.794  11.438
13850SOL     OW43323   4.198   0.359   4.490
13850SOL    HW143324   4.240   0.343   4.575
13850SOL    HW243325   4.108   0.330   4.502
13851SOL     OW43326  14.807   3.878   5.372
13851SOL    HW143327  14.740   3.870   5.440
13851SOL    HW243328  14.802   3.970   5.344
13852SOL     OW43329  10.328   6.400  10.518
13852SOL    HW143330  10.354   6.470  10.457
13852SOL    HW243331  10.248   6.433  10.559
13853SOL     OW43332   9.374  13.330  11.392
13853SOL    HW143333   9.353  13.263  11.456
13853SOL    HW243334   9.426  13.394  11.440
13854SOL     OW43335   9.938   0.495   4.683
13854SOL    HW143336   9.992   0.483   4.605
13854SOL    HW243337   9.860   0.541   4.653
13855SOL     OW43338   4.945  11.946  12.238
13855SOL    HW143339   5.014  11.937  12.304
13855SOL    HW243340   4.988  11.923  12.156
13856SOL     OW43341  11.417   5.453   1.155
13856SOL    HW143342  11.504   5.424   1.129
13856SOL    HW243343  11.432   5.528   1.213
13857SOL     OW43344  10.520  14.594  14.324
13857SOL    HW143345  10.431  14.614  14.294
13857SOL    HW243346  10.532  14.502  14.302
13858SOL     OW43347  12.065   0.208   4.292
13858SOL    HW143348  12.127   0.171   4.355
13858SOL    HW243349  12.061   0.301   4.315
13859SOL     OW43350   3.731  13.308   6.353
13859SOL    HW143351   3.740  13.396   6.389
13859SOL    HW243352   3.798  13.256   6.398
13860SOL     OW43353   1.411  13.788  14.445
13860SOL    HW143354   1.330  13.763  14.400
13860SOL    HW243355   1.475  13.801  14.375
13861SOL     OW43356  10.853  11.185   0.101
13861SOL    HW143357  10.788  11.240   0.058
13861SOL    HW243358  10.937  11.222   0.075
13862SOL     OW43359   3.755   4.385   2.755
13862SOL    HW143360   3.851   4.382   2.750
13862SOL    HW243361   3.735   4.479   2.748
13863SOL     OW43362   0.096   1.946  11.837
13863SOL    HW143363   0.012   1.950  11.883
13863SOL    HW243364   0.159   1.980  11.901
13864SOL     OW43365  11.787  10.782  13.227
13864SOL    HW143366  11.807  10.693  13.198
13864SOL    HW243367  11.691  10.784  13.235
13865SOL     OW43368   0.954   5.023  10.031
13865SOL    HW143369   0.957   4.927  10.033
13865SOL    HW243370   0.931   5.044   9.940
13866SOL     OW43371   0.009   9.418   9.844
13866SOL    HW143372   0.053   9.372   9.915
13866SOL    HW243373  14.803   9.447   9.882
13867SOL     OW43374   8.892   4.190   6.286
13867SOL    HW143375   8.972   4.223   6.328
13867SOL    HW243376   8.919   4.167   6.197
13868SOL     OW43377   8.684   1.265   0.499
13868SOL    HW143378   8.712   1.182   0.538
13868SOL    HW243379   8.697   1.253   0.405
13869SOL     OW43380   8.791   2.506   2.056
13869SOL    HW143381   8.704   2.527   2.091
13869SOL    HW243382   8.833   2.456   2.126
13870SOL     OW43383   5.893   1.822   7.026
13870SOL    HW143384   5.830   1.768   6.978
13870SOL    HW243385   5.859   1.826   7.115
13871SOL     OW43386  10.811  10.172   1.699
13871SOL    HW143387  10.889  10.227   1.708
13871SOL    HW243388  10.789  10.147   1.789
13872SOL     OW43389  11.706  10.948   6.775
13872SOL    HW143390  11.681  10.890   6.846
13872SOL    HW243391  11.776  10.901   6.729
13873SOL     OW43392   4.858  13.636  13.062
13873SOL    HW143393   4.926  13.696  13.029
13873SOL    HW243394   4.829  13.588  12.985
13874SOL     OW43395  10.530   0.202  11.124
13874SOL    HW143396  10.596   0.265  11.095
13874SOL    HW243397  10.520   0.219  11.218
13875SOL     OW43398   7.596  12.136   2.544
13875SOL    HW143399   7.541  12.058   2.547
13875SOL    HW243400   7.550  12.195   2.485
13876SOL     OW43401   6.842   3.628   5.224
13876SOL    HW143402   6.840   3.535   5.202
13876SOL    HW243403   6.751   3.658   5.213
13877SOL     OW43404   0.798   4.088   3.780
13877SOL    HW143405   0.720   4.144   3.775
13877SOL    HW243406   0.835   4.091   3.692
13878SOL     OW43407  13.273   5.467   3.514
13878SOL    HW143408  13.301   5.382   3.482
13878SOL    HW243409  13.229   5.449   3.597
13879SOL     OW43410   0.843   9.202   1.605
13879SOL    HW143411   0.898   9.222   1.529
13879SOL    HW243412   0.757   9.183   1.567
13880SOL     OW43413  10.585   3.102   6.248
13880SOL    HW143414  10.624   3.189   6.240
13880SOL    HW243415  10.490   3.118   6.243
13881SOL     OW43416   5.188  11.371  13.340
13881SOL    HW143417   5.110  11.337  13.297
13881SOL    HW243418   5.254  11.303  13.328
13882SOL     OW43419   9.841   4.723   3.416
13882SOL    HW143420   9.916   4.721   3.357
13882SOL    HW243421   9.768   4.752   3.360
13883SOL     OW43422   8.465  11.052   9.408
13883SOL    HW143423   8.512  11.133   9.429
13883SOL    HW243424   8.492  11.032   9.319
13884SOL     OW43425  12.009   6.995  13.113
13884SOL    HW143426  12.007   7.090  13.119
13884SOL    HW243427  12.092   6.970  13.153
13885SOL     OW43428   2.133   3.596   2.406
13885SOL    HW143429   2.125   3.511   2.363
13885SOL    HW243430   2.176   3.652   2.341
13886SOL     OW43431   9.539   9.188   5.709
13886SOL    HW143432   9.509   9.267   5.664
13886SOL    HW243433   9.459   9.146   5.739
13887SOL     OW43434  12.776   4.369   2.468
13887SOL    HW143435  12.689   4.348   2.500
13887SOL    HW243436  12.783   4.464   2.478
13888SOL     OW43437   1.892   8.988   3.025
13888SOL    HW143438   1.963   9.018   2.968
13888SOL    HW243439   1.813   9.030   2.990
13889SOL     OW43440  10.024  14.372   7.894
13889SOL    HW143441  10.001  14.456   7.936
13889SOL    HW243442  10.101  14.391   7.842
13890SOL     OW43443   8.894   5.513   5.261
13890SOL    HW143444   8.990   5.519   5.259
13890SOL    HW243445   8.873   5.441   5.203
13891SOL     OW43446   5.292  12.962   7.839
13891SOL    HW143447   5.372  12.959   7.787
13891SOL    HW243448   5.228  12.911   7.788
13892SOL     OW43449   2.224   8.788   4.173
13892SOL    HW143450   2.216   8.831   4.259
13892SOL    HW243451   2.291   8.721   4.187
13893SOL     OW43452   7.384  13.443   8.994
13893SOL    HW143453   7.310  13.501   9.011
13893SOL    HW243454   7.347  13.371   8.942
13894SOL     OW43455  12.173  11.281  11.775
13894SOL    HW143456  12.102  11.344  11.782
13894SOL    HW243457  12.232  11.319  11.710
13895SOL     OW43458  10.142   2.302   3.512
13895SOL    HW143459  10.209   2.369   3.517
13895SOL    HW243460  10.067   2.339   3.558
13896SOL     OW43461  10.576  13.336  12.696
13896SOL    HW143462  10.560  13.427  12.674
13896SOL    HW243463  10.489  13.296  12.699
13897SOL     OW43464   2.383  13.445  10.939
13897SOL    HW143465   2.370  13.424  10.846
13897SOL    HW243466   2.300  13.422  10.980
13898SOL     OW43467  12.363  10.699  12.754
13898SOL    HW143468  12.356  10.792  12.732
13898SOL    HW243469  12.441  10.669  12.707
13899SOL     OW43470  13.506   7.160  12.453
13899SOL    HW143471  13.521   7.083  12.508
13899SOL    HW243472  13.471   7.125  12.371
13900SOL     OW43473   8.073   3.875   4.330
13900SOL    HW143474   8.058   3.938   4.400
13900SOL    HW243475   8.168   3.860   4.330
13901SOL     OW43476   9.448   5.651   2.379
13901SOL    HW143477   9.364   5.696   2.389
13901SOL    HW243478   9.456   5.598   2.458
13902SOL     OW43479   2.139   0.648  12.229
13902SOL    HW143480   2.112   0.719  12.287
13902SOL    HW243481   2.195   0.691  12.164
13903SOL     OW43482  13.684   7.790   8.727
13903SOL    HW143483  13.605   7.828   8.764
13903SOL    HW243484  13.652   7.720   8.669
13904SOL     OW43485   6.708   7.697   3.397
13904SOL    HW143486   6.730   7.748   3.475
13904SOL    HW243487   6.693   7.609   3.430
13905SOL     OW43488   1.976   0.078   3.934
13905SOL    HW143489   1.972  14.861   3.920
13905SOL    HW243490   1.947   0.116   3.851
13906SOL     OW43491  12.043   1.998   6.775
13906SOL    HW143492  12.042   2.070   6.838
13906SOL    HW243493  12.025   1.920   6.826
13907SOL     OW43494   6.890   0.977  13.203
13907SOL    HW143495   6.905   1.041  13.133
13907SOL    HW243496   6.920   0.894  13.165
13908SOL     OW43497   1.926  13.035   8.269
13908SOL    HW143498   1.850  13.006   8.321
13908SOL    HW243499   1.980  12.957   8.260
13909SOL     OW43500  10.902  14.586  10.828
13909SOL    HW143501  10.889  14.539  10.746
13909SOL    HW243502  10.935  14.519  10.888
13910SOL     OW43503   2.916   1.002   5.457
13910SOL    HW143504   2.868   1.070   5.504
13910SOL    HW243505   3.007   1.033   5.456
13911SOL     OW43506  14.630   0.105  12.175
13911SOL    HW143507  14.673   0.110  12.259
13911SOL    HW243508  14.689   0.151  12.115
13912SOL     OW43509   8.023   0.566   2.032
13912SOL    HW143510   7.998   0.553   2.124
13912SOL    HW243511   8.118   0.553   2.032
13913SOL     OW43512   6.943   0.582   3.780
13913SOL    HW143513   6.871   0.643   3.763
13913SOL    HW243514   6.922   0.543   3.865
13914SOL     OW43515   1.735   1.518   0.462
13914SOL    HW143516   1.759   1.568   0.383
13914SOL    HW243517   1.703   1.434   0.428
13915SOL     OW43518   5.455   9.905   6.832
13915SOL    HW143519   5.536   9.929   6.789
13915SOL    HW243520   5.482   9.870   6.917
13916SOL     OW43521   4.965   5.112   0.025
13916SOL    HW143522   4.933   5.163  14.828
13916SOL    HW243523   5.059   5.105   0.010
13917SOL     OW43524  12.343   6.661  14.728
13917SOL    HW143525  12.424   6.637  14.685
13917SOL    HW243526  12.343   6.612  14.810
13918SOL     OW43527  10.908   8.019  11.284
13918SOL    HW143528  10.989   7.969  11.282
13918SOL    HW243529  10.874   8.013  11.195
13919SOL     OW43530   2.442   6.703   5.671
13919SOL    HW143531   2.415   6.759   5.598
13919SOL    HW243532   2.363   6.693   5.724
13920SOL     OW43533   6.977  12.115   3.461
13920SOL    HW143534   7.054  12.171   3.450
13920SOL    HW243535   6.902  12.174   3.448
13921SOL     OW43536   2.497   8.855   5.251
13921SOL    HW143537   2.480   8.880   5.342
13921SOL    HW243538   2.589   8.879   5.237
13922SOL     OW43539  10.390  14.531  11.340
13922SOL    HW143540  10.410  14.481  11.419
13922SOL    HW243541  10.434  14.482  11.269
13923SOL     OW43542  14.632   5.000  13.077
13923SOL    HW143543  14.703   4.957  13.030
13923SOL    HW243544  14.630   4.957  13.162
13924SOL     OW43545   1.902   3.140   0.656
13924SOL    HW143546   1.930   3.051   0.638
13924SOL    HW243547   1.979   3.194   0.636
13925SOL     OW43548   6.090   1.090  13.123
13925SOL    HW143549   6.169   1.094  13.178
13925SOL    HW243550   6.122   1.056  13.039
13926SOL     OW43551  11.906   8.286   8.666
13926SOL    HW143552  11.999   8.265   8.662
13926SOL    HW243553  11.863   8.209   8.628
13927SOL     OW43554   7.069   7.914   6.063
13927SOL    HW143555   7.050   7.821   6.067
13927SOL    HW243556   7.075   7.942   6.155
13928SOL     OW43557  14.641   3.492  12.415
13928SOL    HW143558  14.583   3.483  12.491
13928SOL    HW243559  14.590   3.459  12.342
13929SOL     OW43560   8.570   4.455   0.970
13929SOL    HW143561   8.544   4.539   1.008
13929SOL    HW243562   8.614   4.478   0.888
13930SOL     OW43563  14.492   4.917   1.628
13930SOL    HW143564  14.552   4.971   1.679
13930SOL    HW243565  14.461   4.850   1.689
13931SOL     OW43566   1.799   1.461   7.056
13931SOL    HW143567   1.796   1.465   6.960
13931SOL    HW243568   1.708   1.472   7.083
13932SOL     OW43569   5.797   9.955  11.137
13932SOL    HW143570   5.792   9.908  11.221
13932SOL    HW243571   5.767   9.891  11.073
13933SOL     OW43572   7.316  11.417  12.969
13933SOL    HW143573   7.289  11.325  12.967
13933SOL    HW243574   7.412  11.413  12.975
13934SOL     OW43575   2.687   7.782  13.144
13934SOL    HW143576   2.653   7.696  13.117
13934SOL    HW243577   2.648   7.843  13.081
13935SOL     OW43578   8.063  13.115   7.921
13935SOL    HW143579   8.027  13.167   7.993
13935SOL    HW243580   7.996  13.048   7.905
13936SOL     OW43581   9.502   4.188   4.425
13936SOL    HW143582   9.475   4.208   4.336
13936SOL    HW243583   9.422   4.201   4.477
13937SOL     OW43584   1.352   9.429   2.799
13937SOL    HW143585   1.303   9.504   2.836
13937SOL    HW243586   1.284   9.366   2.776
13938SOL     OW43587   2.835   6.020   1.135
13938SOL    HW143588   2.779   5.949   1.167
13938SOL    HW243589   2.777   6.074   1.081
13939SOL     OW43590   1.989   1.580   1.622
13939SOL    HW143591   2.065   1.531   1.593
13939SOL    HW243592   1.964   1.538   1.705
13940SOL     OW43593  10.059  12.213  10.913
13940SOL    HW143594   9.977  12.246  10.875
13940SOL    HW243595  10.041  12.121  10.933
13941SOL     OW43596   9.147  13.581  14.061
13941SOL    HW143597   9.175  13.502  14.109
13941SOL    HW243598   9.123  13.643  14.129
13942SOL     OW43599  10.711   5.945   4.979
13942SOL    HW143600  10.737   5.862   5.019
13942SOL    HW243601  10.793   5.981   4.944
13943SOL     OW43602   6.286  11.988   7.344
13943SOL    HW143603   6.290  11.982   7.439
13943SOL    HW243604   6.330  12.070   7.323
13944SOL     OW43605   2.703   7.817   1.341
13944SOL    HW143606   2.747   7.738   1.370
13944SOL    HW243607   2.657   7.792   1.261
13945SOL     OW43608   7.324  13.899   7.088
13945SOL    HW143609   7.318  13.992   7.065
13945SOL    HW243610   7.302  13.896   7.181
13946SOL     OW43611   9.357  12.156   3.050
13946SOL    HW143612   9.422  12.086   3.044
13946SOL    HW243613   9.395  12.229   3.001
13947SOL     OW43614  11.069   5.808   3.682
13947SOL    HW143615  11.153   5.805   3.729
13947SOL    HW243616  11.003   5.797   3.750
13948SOL     OW43617   8.175   6.816  11.768
13948SOL    HW143618   8.262   6.778  11.752
13948SOL    HW243619   8.114   6.746  11.744
13949SOL     OW43620   3.698   4.466  14.700
13949SOL    HW143621   3.626   4.446  14.760
13949SOL    HW243622   3.656   4.507  14.625
13950SOL     OW43623  14.562  12.046  12.498
13950SOL    HW143624  14.652  12.028  12.522
13950SOL    HW243625  14.557  12.141  12.492
13951SOL     OW43626   0.083   8.194  14.359
13951SOL    HW143627   0.020   8.207  14.429
13951SOL    HW243628   0.098   8.100  14.355
13952SOL     OW43629   2.783  13.858   4.243
13952SOL    HW143630   2.819  13.914   4.311
13952SOL    HW243631   2.764  13.918   4.170
13953SOL     OW43632   9.106  10.044   5.484
13953SOL    HW143633   9.104  10.104   5.558
13953SOL    HW243634   9.168   9.976   5.511
13954SOL     OW43635  11.454   4.654  13.299
13954SOL    HW143636  11.499   4.606  13.230
13954SOL    HW243637  11.491   4.742  13.296
13955SOL     OW43638  11.948   7.860  11.220
13955SOL    HW143639  11.888   7.796  11.181
13955SOL    HW243640  11.934   7.940  11.170
13956SOL     OW43641   0.330   7.468   7.903
13956SOL    HW143642   0.285   7.406   7.846
13956SOL    HW243643   0.304   7.442   7.992
13957SOL     OW43644   5.385   3.559   5.856
13957SOL    HW143645   5.421   3.585   5.941
13957SOL    HW243646   5.292   3.578   5.862
13958SOL     OW43647   1.805   8.847   8.513
13958SOL    HW143648   1.712   8.841   8.489
13958SOL    HW243649   1.828   8.758   8.541
13959SOL     OW43650  14.660   0.539  11.428
13959SOL    HW143651  14.749   0.509  11.444
13959SOL    HW243652  14.649   0.614  11.487
13960SOL     OW43653   2.410   4.115   5.633
13960SOL    HW143654   2.427   4.089   5.723
13960SOL    HW243655   2.375   4.036   5.592
13961SOL     OW43656  14.874   3.785  10.976
13961SOL    HW143657   0.069   3.847  10.990
13961SOL    HW243658  14.844   3.803  10.887
13962SOL     OW43659  10.731  13.175   1.662
13962SOL    HW143660  10.811  13.204   1.706
13962SOL    HW243661  10.750  13.185   1.569
13963SOL     OW43662  12.807   8.240  10.968
13963SOL    HW143663  12.858   8.318  10.942
13963SOL    HW243664  12.720   8.274  10.987
13964SOL     OW43665   6.951   5.758   4.548
13964SOL    HW143666   6.972   5.697   4.477
13964SOL    HW243667   6.910   5.704   4.614
13965SOL     OW43668   2.596  14.580  14.244
13965SOL    HW143669   2.546  14.617  14.317
13965SOL    HW243670   2.683  14.562  14.281
13966SOL     OW43671  11.101   8.628   4.876
13966SOL    HW143672  11.073   8.657   4.789
13966SOL    HW243673  11.196   8.640   4.875
13967SOL     OW43674   0.442  11.151  14.798
13967SOL    HW143675   0.385  11.140  14.874
13967SOL    HW243676   0.527  11.175  14.834
13968SOL     OW43677   0.280   3.835   1.210
13968SOL    HW143678   0.340   3.909   1.198
13968SOL    HW243679   0.193   3.875   1.213
13969SOL     OW43680  14.588   7.713   4.181
13969SOL    HW143681  14.551   7.626   4.168
13969SOL    HW243682  14.680   7.705   4.154
13970SOL     OW43683   5.609   5.803  11.867
13970SOL    HW143684   5.698   5.827  11.841
13970SOL    HW243685   5.620   5.724  11.920
13971SOL     OW43686  12.468  13.865   2.591
13971SOL    HW143687  12.427  13.782   2.612
13971SOL    HW243688  12.561  13.844   2.577
13972SOL     OW43689  14.838  11.966   8.805
13972SOL    HW143690   0.025  12.007   8.748
13972SOL    HW243691   0.012  11.924   8.874
13973SOL     OW43692  13.553   2.556  10.348
13973SOL    HW143693  13.470   2.587  10.382
13973SOL    HW243694  13.610   2.551  10.425
13974SOL     OW43695   0.573   0.532   7.903
13974SOL    HW143696   0.482   0.520   7.878
13974SOL    HW243697   0.596   0.618   7.867
13975SOL     OW43698   7.958   2.236   8.597
13975SOL    HW143699   8.046   2.251   8.632
13975SOL    HW243700   7.949   2.301   8.527
13976SOL     OW43701   8.785  12.425   5.671
13976SOL    HW143702   8.836  12.496   5.632
13976SOL    HW243703   8.738  12.466   5.743
13977SOL     OW43704   3.320   3.241   4.088
13977SOL    HW143705   3.275   3.319   4.055
13977SOL    HW243706   3.373   3.273   4.161
13978SOL     OW43707   4.762   2.569   1.138
13978SOL    HW143708   4.741   2.601   1.051
13978SOL    HW243709   4.678   2.547   1.177
13979SOL     OW43710   2.589   6.090   4.865
13979SOL    HW143711   2.520   6.050   4.918
13979SOL    HW243712   2.543   6.147   4.804
13980SOL     OW43713  14.218   0.771  12.744
13980SOL    HW143714  14.161   0.828  12.693
13980SOL    HW243715  14.290   0.749  12.685
13981SOL     OW43716   3.872  10.546  13.259
13981SOL    HW143717   3.817  10.479  13.218
13981SOL    HW243718   3.813  10.621  13.273
13982SOL     OW43719   4.121   2.832   3.568
13982SOL    HW143720   4.117   2.746   3.611
13982SOL    HW243721   4.186   2.881   3.619
13983SOL     OW43722  14.525   6.458   2.065
13983SOL    HW143723  14.500   6.446   2.157
13983SOL    HW243724  14.620   6.470   2.068
13984SOL     OW43725  13.017   0.245  12.814
13984SOL    HW143726  12.969   0.208  12.888
13984SOL    HW243727  13.097   0.281  12.853
13985SOL     OW43728   3.622   2.847   9.375
13985SOL    HW143729   3.648   2.757   9.390
13985SOL    HW243730   3.699   2.899   9.396
13986SOL     OW43731  13.093  14.745   2.440
13986SOL    HW143732  13.155  14.726   2.510
13986SOL    HW243733  13.010  14.763   2.485
13987SOL     OW43734   2.518   7.555   8.397
13987SOL    HW143735   2.480   7.483   8.346
13987SOL    HW243736   2.459   7.628   8.383
13988SOL     OW43737  12.085  11.968   8.898
13988SOL    HW143738  12.161  12.014   8.935
13988SOL    HW243739  12.012  12.030   8.908
13989SOL     OW43740   9.315   4.591   5.825
13989SOL    HW143741   9.279   4.671   5.787
13989SOL    HW243742   9.260   4.520   5.789
13990SOL     OW43743   7.598   2.466   8.343
13990SOL    HW143744   7.657   2.407   8.297
13990SOL    HW243745   7.545   2.505   8.274
13991SOL     OW43746   2.774   2.487   1.211
13991SOL    HW143747   2.705   2.430   1.176
13991SOL    HW243748   2.781   2.461   1.303
13992SOL     OW43749   9.977   4.403   6.095
13992SOL    HW143750  10.060   4.443   6.120
13992SOL    HW243751   9.999   4.312   6.074
13993SOL     OW43752  13.947  13.486  12.462
13993SOL    HW143753  14.017  13.421  12.450
13993SOL    HW243754  13.955  13.545  12.388
13994SOL     OW43755  12.692   6.516   7.893
13994SOL    HW143756  12.686   6.571   7.815
13994SOL    HW243757  12.782   6.528   7.923
13995SOL     OW43758   3.189  13.146  12.469
13995SOL    HW143759   3.137  13.150  12.550
13995SOL    HW243760   3.186  13.235  12.434
13996SOL     OW43761  13.467   7.590  11.600
13996SOL    HW143762  13.442   7.542  11.679
13996SOL    HW243763  13.389   7.641  11.578
13997SOL     OW43764   8.861   0.862  10.551
13997SOL    HW143765   8.806   0.856  10.473
13997SOL    HW243766   8.829   0.939  10.598
13998SOL     OW43767   9.463  13.153  13.462
13998SOL    HW143768   9.486  13.081  13.404
13998SOL    HW243769   9.469  13.231  13.406
13999SOL     OW43770   3.081  11.000   7.444
13999SOL    HW143771   3.091  10.913   7.406
13999SOL    HW243772   3.171  11.035   7.449
14000SOL     OW43773  11.773   7.898   8.004
14000SOL    HW143774  11.808   7.958   8.070
14000SOL    HW243775  11.747   7.955   7.932
14001SOL     OW43776   6.724   3.604   7.973
14001SOL    HW143777   6.677   3.527   7.939
14001SOL    HW243778   6.792   3.567   8.029
14002SOL     OW43779  14.362   8.801   6.708
14002SOL    HW143780  14.446   8.842   6.691
14002SOL    HW243781  14.382   8.728   6.766
14003SOL     OW43782   6.321  12.840   8.698
14003SOL    HW143783   6.320  12.810   8.607
14003SOL    HW243784   6.239  12.807   8.734
14004SOL     OW43785  14.772   7.257   1.497
14004SOL    HW143786  14.719   7.211   1.432
14004SOL    HW243787  14.820   7.323   1.446
14005SOL     OW43788   8.474   1.470  14.567
14005SOL    HW143789   8.395   1.416  14.578
14005SOL    HW243790   8.489   1.473  14.473
14006SOL     OW43791   3.966   0.177   1.529
14006SOL    HW143792   3.951   0.269   1.553
14006SOL    HW243793   4.058   0.174   1.501
14007SOL     OW43794  11.534  12.707  13.240
14007SOL    HW143795  11.466  12.762  13.279
14007SOL    HW243796  11.491  12.664  13.166
14008SOL     OW43797   3.226   6.866   7.571
14008SOL    HW143798   3.160   6.930   7.596
14008SOL    HW243799   3.244   6.818   7.652
14009SOL     OW43800   4.770   5.437   9.018
14009SOL    HW143801   4.779   5.422   8.924
14009SOL    HW243802   4.678   5.416   9.037
14010SOL     OW43803  12.906  13.974   8.977
14010SOL    HW143804  12.821  14.017   8.988
14010SOL    HW243805  12.968  14.034   9.018
14011SOL     OW43806   1.955  12.464  12.413
14011SOL    HW143807   2.025  12.463  12.348
14011SOL    HW243808   1.900  12.389  12.390
14012SOL     OW43809   3.575  14.530  13.392
14012SOL    HW143810   3.576  14.563  13.302
14012SOL    HW243811   3.576  14.609  13.446
14013SOL     OW43812   5.640   0.836   5.143
14013SOL    HW143813   5.657   0.756   5.094
14013SOL    HW243814   5.562   0.816   5.195
14014SOL     OW43815  10.769   4.104   9.551
14014SOL    HW143816  10.686   4.113   9.597
14014SOL    HW243817  10.812   4.030   9.593
14015SOL     OW43818   5.003   4.009   3.319
14015SOL    HW143819   4.934   3.961   3.274
14015SOL    HW243820   5.065   3.941   3.347
14016SOL     OW43821  12.797   0.800   3.908
14016SOL    HW143822  12.793   0.890   3.878
14016SOL    HW243823  12.856   0.802   3.983
14017SOL     OW43824  12.607   4.440   8.524
14017SOL    HW143825  12.681   4.449   8.464
14017SOL    HW243826  12.575   4.351   8.508
14018SOL     OW43827   2.074  12.905   1.527
14018SOL    HW143828   2.090  12.813   1.504
14018SOL    HW243829   2.065  12.904   1.623
14019SOL     OW43830   5.420   8.363  10.393
14019SOL    HW143831   5.479   8.342  10.466
14019SOL    HW243832   5.453   8.310  10.320
14020SOL     OW43833  12.927   0.931  12.887
14020SOL    HW143834  12.869   0.973  12.951
14020SOL    HW243835  12.973   1.004  12.845
14021SOL     OW43836   0.262   1.709   5.401
14021SOL    HW143837   0.338   1.668   5.442
14021SOL    HW243838   0.253   1.662   5.318
14022SOL     OW43839   3.963   1.504   4.768
14022SOL    HW143840   4.022   1.504   4.693
14022SOL    HW243841   3.875   1.512   4.730
14023SOL     OW43842   4.306   1.227   9.472
14023SOL    HW143843   4.284   1.191   9.386
14023SOL    HW243844   4.303   1.151   9.530
14024SOL     OW43845   7.687  10.980   3.245
14024SOL    HW143846   7.706  10.895   3.207
14024SOL    HW243847   7.622  11.019   3.186
14025SOL     OW43848   5.868  12.137  11.442
14025SOL    HW143849   5.894  12.091  11.522
14025SOL    HW243850   5.899  12.080  11.371
14026SOL     OW43851   0.411  10.571   6.989
14026SOL    HW143852   0.395  10.509   6.918
14026SOL    HW243853   0.462  10.522   7.053
14027SOL     OW43854   9.177   1.600   3.751
14027SOL    HW143855   9.239   1.602   3.679
14027SOL    HW243856   9.191   1.515   3.793
14028SOL     OW43857   6.518   9.971   0.412
14028SOL    HW143858   6.464   9.909   0.460
14028SOL    HW243859   6.528  10.046   0.471
14029SOL     OW43860   2.177   0.898   9.274
14029SOL    HW143861   2.243   0.968   9.273
14029SOL    HW243862   2.100   0.937   9.233
14030SOL     OW43863   5.839  14.034  13.101
14030SOL    HW143864   5.845  13.948  13.144
14030SOL    HW243865   5.872  14.020  13.013
14031SOL     OW43866   9.945   3.753   8.505
14031SOL    HW143867   9.946   3.829   8.563
14031SOL    HW243868   9.938   3.678   8.565
14032SOL     OW43869   8.297   5.545   0.350
14032SOL    HW143870   8.353   5.617   0.320
14032SOL    HW243871   8.217   5.553   0.298
14033SOL     OW43872  12.935  11.078   5.414
14033SOL    HW143873  12.914  10.985   5.405
14033SOL    HW243874  12.871  11.111   5.477
14034SOL     OW43875   4.897  12.542  12.201
14034SOL    HW143876   4.963  12.567  12.266
14034SOL    HW243877   4.864  12.458  12.233
14035SOL     OW43878   2.923   7.430   5.254
14035SOL    HW143879   3.008   7.436   5.298
14035SOL    HW243880   2.876   7.508   5.284
14036SOL     OW43881   6.872   9.061   5.380
14036SOL    HW143882   6.934   8.988   5.386
14036SOL    HW243883   6.924   9.133   5.345
14037SOL     OW43884  11.269  10.265   0.976
14037SOL    HW143885  11.281  10.171   0.962
14037SOL    HW243886  11.302  10.305   0.896
14038SOL     OW43887  10.767  14.229   4.375
14038SOL    HW143888  10.830  14.178   4.324
14038SOL    HW243889  10.818  14.302   4.411
14039SOL     OW43890   5.375   8.800   3.983
14039SOL    HW143891   5.307   8.856   4.020
14039SOL    HW243892   5.455   8.852   3.990
14040SOL     OW43893   7.109   6.679   1.178
14040SOL    HW143894   7.100   6.641   1.265
14040SOL    HW243895   7.204   6.684   1.164
14041SOL     OW43896   6.808   6.702  10.127
14041SOL    HW143897   6.856   6.730  10.204
14041SOL    HW243898   6.848   6.750  10.055
14042SOL     OW43899   7.738   7.456   8.264
14042SOL    HW143900   7.829   7.427   8.274
14042SOL    HW243901   7.721   7.508   8.343
14043SOL     OW43902  14.628  11.479  12.369
14043SOL    HW143903  14.687  11.413  12.333
14043SOL    HW243904  14.659  11.562  12.331
14044SOL     OW43905   8.615   0.693   2.998
14044SOL    HW143906   8.525   0.707   2.969
14044SOL    HW243907   8.667   0.700   2.917
14045SOL     OW43908   5.518   5.095   1.297
14045SOL    HW143909   5.440   5.147   1.314
14045SOL    HW243910   5.590   5.147   1.333
14046SOL     OW43911   1.833   9.128   4.238
14046SOL    HW143912   1.813   9.185   4.164
14046SOL    HW243913   1.921   9.094   4.219
14047SOL     OW43914  11.626   5.364   3.637
14047SOL    HW143915  11.670   5.355   3.722
14047SOL    HW243916  11.533   5.355   3.658
14048SOL     OW43917   7.422   1.672  12.726
14048SOL    HW143918   7.416   1.600  12.788
14048SOL    HW243919   7.420   1.751  12.779
14049SOL     OW43920  14.839  10.699   2.127
14049SOL    HW143921  14.747  10.673   2.135
14049SOL    HW243922   0.009  10.618   2.115
14050SOL     OW43923  11.108   4.094   9.199
14050SOL    HW143924  11.038   4.126   9.257
14050SOL    HW243925  11.123   4.004   9.227
14051SOL     OW43926  14.470  11.437   1.436
14051SOL    HW143927  14.472  11.480   1.351
14051SOL    HW243928  14.528  11.361   1.426
14052SOL     OW43929   8.209   0.744  10.682
14052SOL    HW143930   8.284   0.689  10.660
14052SOL    HW243931   8.133   0.689  10.661
14053SOL     OW43932   8.142   6.399   3.212
14053SOL    HW143933   8.171   6.322   3.261
14053SOL    HW243934   8.127   6.466   3.280
14054SOL     OW43935  12.935   8.554  14.666
14054SOL    HW143936  12.880   8.536  14.742
14054SOL    HW243937  12.965   8.644  14.678
14055SOL     OW43938  10.837   6.056  12.306
14055SOL    HW143939  10.836   5.961  12.316
14055SOL    HW243940  10.918   6.075  12.259
14056SOL     OW43941  10.039   3.987   2.999
14056SOL    HW143942  10.099   4.044   3.047
14056SOL    HW243943   9.957   3.991   3.048
14057SOL     OW43944   2.279  11.066  13.146
14057SOL    HW143945   2.213  11.133  13.130
14057SOL    HW243946   2.342  11.077  13.075
14058SOL     OW43947   3.160   0.775  11.980
14058SOL    HW143948   3.215   0.819  11.915
14058SOL    HW243949   3.183   0.816  12.063
14059SOL     OW43950   3.127  13.209  13.122
14059SOL    HW143951   3.106  13.245  13.208
14059SOL    HW243952   3.133  13.285  13.065
14060SOL     OW43953   0.159   8.212   1.429
14060SOL    HW143954   0.235   8.178   1.475
14060SOL    HW243955   0.188   8.296   1.394
14061SOL     OW43956  10.573  12.311   2.737
14061SOL    HW143957  10.641  12.349   2.680
14061SOL    HW243958  10.508  12.276   2.677
14062SOL     OW43959   8.279   3.689  11.277
14062SOL    HW143960   8.312   3.615  11.226
14062SOL    HW243961   8.202   3.720  11.228
14063SOL     OW43962   6.475   1.234   5.687
14063SOL    HW143963   6.512   1.322   5.688
14063SOL    HW243964   6.396   1.242   5.633
14064SOL     OW43965   7.828  11.596   1.083
14064SOL    HW143966   7.834  11.692   1.083
14064SOL    HW243967   7.919  11.566   1.083
14065SOL     OW43968   9.304   3.206   6.412
14065SOL    HW143969   9.311   3.182   6.504
14065SOL    HW243970   9.385   3.253   6.393
14066SOL     OW43971   6.028  12.128   1.692
14066SOL    HW143972   6.036  12.105   1.785
14066SOL    HW243973   6.112  12.165   1.669
14067SOL     OW43974   2.166   6.428   3.529
14067SOL    HW143975   2.083   6.460   3.566
14067SOL    HW243976   2.151   6.425   3.435
14068SOL     OW43977   0.869  12.488  11.250
14068SOL    HW143978   0.906  12.404  11.276
14068SOL    HW243979   0.790  12.497  11.304
14069SOL     OW43980   9.804  10.229   5.807
14069SOL    HW143981   9.765  10.208   5.892
14069SOL    HW243982   9.788  10.152   5.753
14070SOL     OW43983   7.901   4.912   7.580
14070SOL    HW143984   7.965   4.854   7.623
14070SOL    HW243985   7.955   4.971   7.528
14071SOL     OW43986   0.058  11.562   8.010
14071SOL    HW143987  14.876  11.599   7.945
14071SOL    HW243988   0.129  11.626   8.016
14072SOL     OW43989   6.393   9.066   4.046
14072SOL    HW143990   6.404   9.107   3.959
14072SOL    HW243991   6.395   9.140   4.107
14073SOL     OW43992   7.897  10.565   6.113
14073SOL    HW143993   7.984  10.532   6.131
14073SOL    HW243994   7.909  10.632   6.045
14074SOL     OW43995  14.167   7.337   6.466
14074SOL    HW143996  14.125   7.299   6.388
14074SOL    HW243997  14.225   7.404   6.431
14075SOL     OW43998  14.852  11.308   3.536
14075SOL    HW143999  14.796  11.243   3.494
14075SOL    HW244000  14.793  11.382   3.555
14076SOL     OW44001   0.982   7.523   7.980
14076SOL    HW144002   0.976   7.452   8.043
14076SOL    HW244003   0.899   7.571   7.988
14077SOL     OW44004   7.421   6.685   3.411
14077SOL    HW144005   7.326   6.688   3.403
14077SOL    HW244006   7.452   6.762   3.363
14078SOL     OW44007   5.459  13.969   2.223
14078SOL    HW144008   5.536  13.918   2.246
14078SOL    HW244009   5.466  14.049   2.276
14079SOL     OW44010   0.057   3.149   8.296
14079SOL    HW144011   0.014   3.094   8.230
14079SOL    HW244012  14.863   3.184   8.349
14080SOL     OW44013   0.220  12.130   4.852
14080SOL    HW144014   0.253  12.212   4.888
14080SOL    HW244015   0.140  12.154   4.806
14081SOL     OW44016   5.003  13.124   3.671
14081SOL    HW144017   4.995  13.144   3.578
14081SOL    HW244018   4.990  13.029   3.677
14082SOL     OW44019  13.623  14.404   6.885
14082SOL    HW144020  13.547  14.437   6.933
14082SOL    HW244021  13.651  14.326   6.933
14083SOL     OW44022   2.751   3.669  11.443
14083SOL    HW144023   2.791   3.751  11.417
14083SOL    HW244024   2.670   3.665  11.392
14084SOL     OW44025   4.552   4.473  13.812
14084SOL    HW144026   4.499   4.552  13.823
14084SOL    HW244027   4.568   4.467  13.718
14085SOL     OW44028   5.723   5.708   2.447
14085SOL    HW144029   5.784   5.690   2.375
14085SOL    HW244030   5.778   5.744   2.517
14086SOL     OW44031   4.458   7.323   7.913
14086SOL    HW144032   4.494   7.342   7.826
14086SOL    HW244033   4.364   7.342   7.904
14087SOL     OW44034  12.066   6.375   9.336
14087SOL    HW144035  11.986   6.428   9.331
14087SOL    HW244036  12.104   6.382   9.249
14088SOL     OW44037   0.903   3.193   4.249
14088SOL    HW144038   0.958   3.241   4.311
14088SOL    HW244039   0.876   3.259   4.185
14089SOL     OW44040   7.161   8.039   9.743
14089SOL    HW144041   7.228   7.982   9.782
14089SOL    HW244042   7.211   8.098   9.686
14090SOL     OW44043  10.794  10.416   7.203
14090SOL    HW144044  10.807  10.380   7.115
14090SOL    HW244045  10.832  10.351   7.262
14091SOL     OW44046  13.044   3.381   6.902
14091SOL    HW144047  13.132   3.366   6.869
14091SOL    HW244048  12.996   3.418   6.828
14092SOL     OW44049  13.250   0.756  13.196
14092SOL    HW144050  13.334   0.715  13.212
14092SOL    HW244051  13.201   0.745  13.277
14093SOL     OW44052  11.089   7.288   2.021
14093SOL    HW144053  11.183   7.298   2.032
14093SOL    HW244054  11.069   7.337   1.941
14094SOL     OW44055   1.034   1.083   1.654
14094SOL    HW144056   1.072   1.057   1.570
14094SOL    HW244057   0.952   1.034   1.659
14095SOL     OW44058  14.127   9.064   0.034
14095SOL    HW144059  14.216   9.060  14.876
14095SOL    HW244060  14.074   9.017  14.847
14096SOL     OW44061   6.733   8.838   2.263
14096SOL    HW144062   6.750   8.922   2.222
14096SOL    HW244063   6.782   8.775   2.211
14097SOL     OW44064   2.566   5.988   0.368
14097SOL    HW144065   2.499   6.003   0.302
14097SOL    HW244066   2.644   6.032   0.335
14098SOL     OW44067   8.344   2.653   8.447
14098SOL    HW144068   8.333   2.698   8.363
14098SOL    HW244069   8.270   2.681   8.500
14099SOL     OW44070  14.843  10.412   9.720
14099SOL    HW144071  14.757  10.445   9.692
14099SOL    HW244072   0.021  10.421   9.643
14100SOL     OW44073   5.752   4.780  11.886
14100SOL    HW144074   5.710   4.771  11.972
14100SOL    HW244075   5.803   4.861  11.893
14101SOL     OW44076   4.035   4.693   0.880
14101SOL    HW144077   4.060   4.723   0.792
14101SOL    HW244078   3.939   4.690   0.877
14102SOL     OW44079  11.088  12.106  14.156
14102SOL    HW144080  11.077  12.187  14.106
14102SOL    HW244081  11.003  12.061  14.149
14103SOL     OW44082  12.209   0.277  13.605
14103SOL    HW144083  12.127   0.246  13.567
14103SOL    HW244084  12.245   0.337  13.540
14104SOL     OW44085   6.574   5.860  11.757
14104SOL    HW144086   6.618   5.861  11.842
14104SOL    HW244087   6.498   5.804  11.770
14105SOL     OW44088   9.732   0.863   0.390
14105SOL    HW144089   9.771   0.883   0.475
14105SOL    HW244090   9.729   0.767   0.388
14106SOL     OW44091  14.611  14.556   1.232
14106SOL    HW144092  14.627  14.648   1.212
14106SOL    HW244093  14.616  14.551   1.327
14107SOL     OW44094  12.416  10.500   7.699
14107SOL    HW144095  12.434  10.534   7.786
14107SOL    HW244096  12.496  10.454   7.673
14108SOL     OW44097   4.800   8.484   9.460
14108SOL    HW144098   4.819   8.418   9.526
14108SOL    HW244099   4.836   8.449   9.379
14109SOL     OW44100   6.445   8.743   9.717
14109SOL    HW144101   6.429   8.826   9.673
14109SOL    HW244102   6.502   8.695   9.656
14110SOL     OW44103  11.568   3.183  10.826
14110SOL    HW144104  11.502   3.157  10.761
14110SOL    HW244105  11.574   3.108  10.885
14111SOL     OW44106   1.875   1.693   4.225
14111SOL    HW144107   1.827   1.767   4.190
14111SOL    HW244108   1.881   1.710   4.319
14112SOL     OW44109   2.735  13.120   1.433
14112SOL    HW144110   2.731  13.201   1.483
14112SOL    HW244111   2.694  13.055   1.490
14113SOL     OW44112   2.079  10.463   9.261
14113SOL    HW144113   1.989  10.472   9.230
14113SOL    HW244114   2.075  10.396   9.329
14114SOL     OW44115  10.846  12.760   3.216
14114SOL    HW144116  10.808  12.833   3.167
14114SOL    HW244117  10.782  12.741   3.284
14115SOL     OW44118   3.618   2.125   4.542
14115SOL    HW144119   3.597   2.186   4.612
14115SOL    HW244120   3.570   2.159   4.466
14116SOL     OW44121   9.630   3.574   7.894
14116SOL    HW144122   9.623   3.480   7.906
14116SOL    HW244123   9.568   3.595   7.825
14117SOL     OW44124   1.265   8.633   0.477
14117SOL    HW144125   1.360   8.632   0.488
14117SOL    HW244126   1.251   8.591   0.392
14118SOL     OW44127   3.762   3.093  13.999
14118SOL    HW144128   3.852   3.067  14.018
14118SOL    HW244129   3.743   3.163  14.061
14119SOL     OW44130   3.153   1.866  13.841
14119SOL    HW144131   3.091   1.813  13.790
14119SOL    HW244132   3.156   1.950  13.796
14120SOL     OW44133   3.732   5.670   2.875
14120SOL    HW144134   3.779   5.629   2.802
14120SOL    HW244135   3.794   5.734   2.910
14121SOL     OW44136   3.951   4.850   8.690
14121SOL    HW144137   3.980   4.914   8.626
14121SOL    HW244138   3.857   4.864   8.697
14122SOL     OW44139   7.262   9.016   4.260
14122SOL    HW144140   7.354   9.037   4.277
14122SOL    HW244141   7.231   8.977   4.341
14123SOL     OW44142   5.623  13.635   9.130
14123SOL    HW144143   5.659  13.650   9.043
14123SOL    HW244144   5.700  13.638   9.188
14124SOL     OW44145   6.214   2.434   0.359
14124SOL    HW144146   6.230   2.460   0.268
14124SOL    HW244147   6.260   2.500   0.411
14125SOL     OW44148   2.481   9.283   2.665
14125SOL    HW144149   2.416   9.296   2.597
14125SOL    HW244150   2.564   9.310   2.625
14126SOL     OW44151  10.148   5.219   4.286
14126SOL    HW144152  10.134   5.246   4.376
14126SOL    HW244153  10.061   5.194   4.254
14127SOL     OW44154  11.344  12.915   5.417
14127SOL    HW144155  11.386  12.864   5.348
14127SOL    HW244156  11.280  12.854   5.456
14128SOL     OW44157   9.889   3.885  10.539
14128SOL    HW144158   9.856   3.879  10.450
14128SOL    HW244159   9.904   3.978  10.553
14129SOL     OW44160  10.293   1.118   4.342
14129SOL    HW144161  10.302   1.122   4.437
14129SOL    HW244162  10.320   1.206   4.312
14130SOL     OW44163   9.063   4.116   5.655
14130SOL    HW144164   9.033   4.145   5.569
14130SOL    HW244165   8.991   4.061   5.688
14131SOL     OW44166   0.890   1.749  10.136
14131SOL    HW144167   0.887   1.654  10.145
14131SOL    HW244168   0.975   1.767  10.096
14132SOL     OW44169   9.561   3.264  14.097
14132SOL    HW144170   9.530   3.299  14.181
14132SOL    HW244171   9.584   3.341  14.045
14133SOL     OW44172   6.849   2.895   3.818
14133SOL    HW144173   6.943   2.910   3.808
14133SOL    HW244174   6.825   2.840   3.743
14134SOL     OW44175   7.818   7.218  11.011
14134SOL    HW144176   7.739   7.178  11.049
14134SOL    HW244177   7.874   7.236  11.087
14135SOL     OW44178   7.147   4.073   6.448
14135SOL    HW144179   7.215   4.112   6.503
14135SOL    HW244180   7.087   4.031   6.510
14136SOL     OW44181   9.840   2.345  14.581
14136SOL    HW144182   9.800   2.281  14.639
14136SOL    HW244183   9.774   2.361  14.513
14137SOL     OW44184   3.197  11.522   6.550
14137SOL    HW144185   3.261  11.551   6.485
14137SOL    HW244186   3.229  11.559   6.633
14138SOL     OW44187   2.286   7.679   1.224
14138SOL    HW144188   2.354   7.612   1.222
14138SOL    HW244189   2.321   7.751   1.173
14139SOL     OW44190   9.270   8.537   0.388
14139SOL    HW144191   9.328   8.465   0.364
14139SOL    HW244192   9.189   8.520   0.339
14140SOL     OW44193  10.251   6.841   4.690
14140SOL    HW144194  10.251   6.914   4.627
14140SOL    HW244195  10.239   6.763   4.635
14141SOL     OW44196   8.872  10.055   3.115
14141SOL    HW144197   8.840  10.001   3.188
14141SOL    HW244198   8.833  10.015   3.037
14142SOL     OW44199   7.993   8.015   9.230
14142SOL    HW144200   8.084   8.003   9.203
14142SOL    HW244201   7.943   8.010   9.149
14143SOL     OW44202   2.978   3.425   6.265
14143SOL    HW144203   2.983   3.360   6.194
14143SOL    HW244204   2.987   3.373   6.345
14144SOL     OW44205   3.593   8.247   0.329
14144SOL    HW144206   3.505   8.225   0.362
14144SOL    HW244207   3.587   8.234   0.234
14145SOL     OW44208  14.748   2.009   4.415
14145SOL    HW144209  14.729   1.956   4.492
14145SOL    HW244210  14.701   2.091   4.429
14146SOL     OW44211   1.162   9.592   7.011
14146SOL    HW144212   1.181   9.501   7.031
14146SOL    HW244213   1.237   9.621   6.959
14147SOL     OW44214   0.075  10.223   3.458
14147SOL    HW144215   0.078  10.135   3.419
14147SOL    HW244216   0.131  10.216   3.535
14148SOL     OW44217   6.873   2.439   8.119
14148SOL    HW144218   6.915   2.479   8.042
14148SOL    HW244219   6.919   2.356   8.131
14149SOL     OW44220   5.586   8.307   3.956
14149SOL    HW144221   5.510   8.350   3.995
14149SOL    HW244222   5.587   8.336   3.865
14150SOL     OW44223   1.900  13.347   4.121
14150SOL    HW144224   1.930  13.261   4.149
14150SOL    HW244225   1.975  13.404   4.133
14151SOL     OW44226  11.535   9.547   2.972
14151SOL    HW144227  11.508   9.637   2.960
14151SOL    HW244228  11.620   9.541   2.928
14152SOL     OW44229  10.180  12.207  12.021
14152SOL    HW144230  10.208  12.120  11.991
14152SOL    HW244231  10.260  12.247  12.056
14153SOL     OW44232  11.847   1.123   4.964
14153SOL    HW144233  11.789   1.089   4.897
14153SOL    HW244234  11.838   1.061   5.037
14154SOL     OW44235   7.278   5.765   1.696
14154SOL    HW144236   7.290   5.860   1.709
14154SOL    HW244237   7.363   5.736   1.663
14155SOL     OW44238  13.858   2.872   4.874
14155SOL    HW144239  13.911   2.875   4.954
14155SOL    HW244240  13.858   2.963   4.843
14156SOL     OW44241  10.060   4.057  11.930
14156SOL    HW144242  10.036   4.048  11.838
14156SOL    HW244243  10.141   4.108  11.929
14157SOL     OW44244  13.202   9.910   8.775
14157SOL    HW144245  13.146   9.844   8.816
14157SOL    HW244246  13.215   9.879   8.686
14158SOL     OW44247   5.540  12.185   0.001
14158SOL    HW144248   5.481  12.219  14.811
14158SOL    HW244249   5.597  12.259   0.022
14159SOL     OW44250   2.672  11.359   3.288
14159SOL    HW144251   2.627  11.399   3.213
14159SOL    HW244252   2.705  11.275   3.254
14160SOL     OW44253   5.082   3.544  12.861
14160SOL    HW144254   5.087   3.533  12.766
14160SOL    HW244255   5.167   3.515  12.894
14161SOL     OW44256  13.778  12.685   2.765
14161SOL    HW144257  13.801  12.596   2.794
14161SOL    HW244258  13.739  12.672   2.678
14162SOL     OW44259   7.491   5.044   9.109
14162SOL    HW144260   7.567   5.096   9.081
14162SOL    HW244261   7.475   4.983   9.038
14163SOL     OW44262   5.178  13.853  10.084
14163SOL    HW144263   5.243  13.882  10.020
14163SOL    HW244264   5.208  13.767  10.112
14164SOL     OW44265   4.817   4.618   5.267
14164SOL    HW144266   4.834   4.573   5.184
14164SOL    HW244267   4.734   4.581   5.298
14165SOL     OW44268   0.261   2.049   2.964
14165SOL    HW144269   0.345   2.094   2.956
14165SOL    HW244270   0.229   2.041   2.874
14166SOL     OW44271  13.810   6.427   0.656
14166SOL    HW144272  13.881   6.411   0.719
14166SOL    HW244273  13.754   6.491   0.700
14167SOL     OW44274   3.702   3.721   6.306
14167SOL    HW144275   3.681   3.812   6.327
14167SOL    HW244276   3.692   3.716   6.211
14168SOL     OW44277   9.429   7.953   0.720
14168SOL    HW144278   9.461   7.968   0.631
14168SOL    HW244279   9.498   7.988   0.776
14169SOL     OW44280   5.605   5.318   3.305
14169SOL    HW144281   5.663   5.259   3.355
14169SOL    HW244282   5.613   5.402   3.351
14170SOL     OW44283  10.108  11.513  12.622
14170SOL    HW144284  10.067  11.428  12.639
14170SOL    HW244285  10.158  11.500  12.542
14171SOL     OW44286  13.926   2.278  11.531
14171SOL    HW144287  13.993   2.237  11.586
14171SOL    HW244288  13.924   2.224  11.452
14172SOL     OW44289   3.865   9.646  14.064
14172SOL    HW144290   3.872   9.741  14.059
14172SOL    HW244291   3.938   9.619  14.118
14173SOL     OW44292   4.501  13.381   1.507
14173SOL    HW144293   4.422  13.360   1.457
14173SOL    HW244294   4.510  13.476   1.498
14174SOL     OW44295   4.005   0.754  14.856
14174SOL    HW144296   4.048   0.750  14.770
14174SOL    HW244297   4.039   0.677   0.025
14175SOL     OW44298   6.757   7.793  14.777
14175SOL    HW144299   6.710   7.818  14.856
14175SOL    HW244300   6.737   7.862  14.714
14176SOL     OW44301  11.122   3.398   9.800
14176SOL    HW144302  11.193   3.403   9.864
14176SOL    HW244303  11.046   3.435   9.846
14177SOL     OW44304  14.245   5.497  10.741
14177SOL    HW144305  14.243   5.551  10.820
14177SOL    HW244306  14.163   5.447  10.744
14178SOL     OW44307   7.217  12.205  12.273
14178SOL    HW144308   7.296  12.169  12.231
14178SOL    HW244309   7.151  12.136  12.261
14179SOL     OW44310   1.927   8.985  14.362
14179SOL    HW144311   1.999   8.940  14.317
14179SOL    HW244312   1.957   8.991  14.453
14180SOL     OW44313   4.819  14.088   7.996
14180SOL    HW144314   4.838  14.142   7.919
14180SOL    HW244315   4.902  14.084   8.043
14181SOL     OW44316   2.218   0.144  12.311
14181SOL    HW144317   2.259   0.231  12.309
14181SOL    HW244318   2.158   0.149  12.386
14182SOL     OW44319   9.030   4.933   6.412
14182SOL    HW144320   9.124   4.951   6.405
14182SOL    HW244321   9.002   4.984   6.488
14183SOL     OW44322   5.278   9.319   2.441
14183SOL    HW144323   5.249   9.408   2.460
14183SOL    HW244324   5.204   9.264   2.467
14184SOL     OW44325   8.591  12.720   6.773
14184SOL    HW144326   8.531  12.795   6.780
14184SOL    HW244327   8.679  12.760   6.772
14185SOL     OW44328   2.118  13.488   4.161
14185SOL    HW144329   2.124  13.582   4.143
14185SOL    HW244330   2.171  13.447   4.092
14186SOL     OW44331  11.416   2.236  14.313
14186SOL    HW144332  11.413   2.330  14.327
14186SOL    HW244333  11.377   2.223  14.227
14187SOL     OW44334  12.689   5.743  14.355
14187SOL    HW144335  12.664   5.829  14.387
14187SOL    HW244336  12.629   5.683  14.398
14188SOL     OW44337   3.043   5.442   3.040
14188SOL    HW144338   3.092   5.520   3.014
14188SOL    HW244339   3.024   5.396   2.958
14189SOL     OW44340   1.094   9.753  14.596
14189SOL    HW144341   1.011   9.782  14.633
14189SOL    HW244342   1.079   9.662  14.570
14190SOL     OW44343   9.016  10.089   1.228
14190SOL    HW144344   8.931  10.045   1.230
14190SOL    HW244345   9.043  10.087   1.136
14191SOL     OW44346  13.875  13.462  11.717
14191SOL    HW144347  13.934  13.392  11.746
14191SOL    HW244348  13.853  13.438  11.627
14192SOL     OW44349   5.823   1.631   3.277
14192SOL    HW144350   5.897   1.639   3.217
14192SOL    HW244351   5.791   1.541   3.263
14193SOL     OW44352   4.677   3.067  10.531
14193SOL    HW144353   4.697   3.155  10.499
14193SOL    HW244354   4.726   3.009  10.472
14194SOL     OW44355  10.086   4.358  12.878
14194SOL    HW144356  10.175   4.340  12.847
14194SOL    HW244357  10.045   4.407  12.806
14195SOL     OW44358   7.576  10.591  10.942
14195SOL    HW144359   7.654  10.575  10.995
14195SOL    HW244360   7.568  10.513  10.887
14196SOL     OW44361   9.883   3.169   1.785
14196SOL    HW144362   9.919   3.127   1.707
14196SOL    HW244363   9.852   3.097   1.839
14197SOL     OW44364  12.900   9.890   4.208
14197SOL    HW144365  12.925   9.859   4.295
14197SOL    HW244366  12.847   9.819   4.172
14198SOL     OW44367   1.535   4.702   1.247
14198SOL    HW144368   1.476   4.699   1.172
14198SOL    HW244369   1.476   4.704   1.323
14199SOL     OW44370   4.381  12.976  13.001
14199SOL    HW144371   4.310  13.018  13.049
14199SOL    HW244372   4.364  12.883  13.009
14200SOL     OW44373  12.637   4.190  11.101
14200SOL    HW144374  12.731   4.177  11.086
14200SOL    HW244375  12.598   4.184  11.014
14201SOL     OW44376  13.427   8.240   5.675
14201SOL    HW144377  13.419   8.155   5.631
14201SOL    HW244378  13.515   8.238   5.713
14202SOL     OW44379  13.672  12.667   1.198
14202SOL    HW144380  13.724  12.658   1.278
14202SOL    HW244381  13.586  12.695   1.229
14203SOL     OW44382   2.402   0.235   2.318
14203SOL    HW144383   2.426   0.299   2.385
14203SOL    HW244384   2.456   0.257   2.243
14204SOL     OW44385  14.363  13.995  10.686
14204SOL    HW144386  14.428  13.939  10.729
14204SOL    HW244387  14.410  14.031  10.610
14205SOL     OW44388   8.317  11.804   2.479
14205SOL    HW144389   8.310  11.721   2.432
14205SOL    HW244390   8.408  11.830   2.469
14206SOL     OW44391  11.083   1.553   0.945
14206SOL    HW144392  11.159   1.611   0.954
14206SOL    HW244393  11.008   1.610   0.963
14207SOL     OW44394   8.811  11.922  14.417
14207SOL    HW144395   8.847  11.867  14.348
14207SOL    HW244396   8.884  11.939  14.476
14208SOL     OW44397  13.896   8.248  12.816
14208SOL    HW144398  13.896   8.253  12.912
14208SOL    HW244399  13.949   8.171  12.796
14209SOL     OW44400   9.504   0.523  12.163
14209SOL    HW144401   9.546   0.539  12.247
14209SOL    HW244402   9.480   0.610  12.131
14210SOL     OW44403  14.553   3.107  12.307
14210SOL    HW144404  14.552   3.038  12.372
14210SOL    HW244405  14.645   3.113  12.279
14211SOL     OW44406   9.078  13.426  14.438
14211SOL    HW144407   9.097  13.358  14.504
14211SOL    HW244408   9.158  13.479  14.435
14212SOL     OW44409   0.913   1.031   2.002
14212SOL    HW144410   0.961   1.100   2.049
14212SOL    HW244411   0.823   1.038   2.035
14213SOL     OW44412   3.099   1.838  11.905
14213SOL    HW144413   3.183   1.877  11.880
14213SOL    HW244414   3.083   1.772  11.837
14214SOL     OW44415   3.768  12.705   1.214
14214SOL    HW144416   3.827  12.741   1.147
14214SOL    HW244417   3.755  12.614   1.187
14215SOL     OW44418   5.182   1.399  11.606
14215SOL    HW144419   5.092   1.369  11.597
14215SOL    HW244420   5.204   1.381  11.697
14216SOL     OW44421  14.163   6.901   1.619
14216SOL    HW144422  14.259   6.901   1.615
14216SOL    HW244423  14.142   6.934   1.707
14217SOL     OW44424  10.468   3.002   4.799
14217SOL    HW144425  10.378   2.985   4.773
14217SOL    HW244426  10.463   3.081   4.853
14218SOL     OW44427  11.175   4.057   6.236
14218SOL    HW144428  11.223   4.049   6.154
14218SOL    HW244429  11.111   3.985   6.233
14219SOL     OW44430   4.923   0.323   0.652
14219SOL    HW144431   5.003   0.373   0.669
14219SOL    HW244432   4.854   0.373   0.696
14220SOL     OW44433  14.191  14.558   0.195
14220SOL    HW144434  14.183  14.652   0.213
14220SOL    HW244435  14.120  14.517   0.244
14221SOL     OW44436  10.306   4.439  11.704
14221SOL    HW144437  10.298   4.516  11.647
14221SOL    HW244438  10.337   4.370  11.647
14222SOL     OW44439  13.157   3.789   9.047
14222SOL    HW144440  13.074   3.740   9.046
14222SOL    HW244441  13.162   3.824   9.136
14223SOL     OW44442   1.439   7.699   8.476
14223SOL    HW144443   1.471   7.626   8.423
14223SOL    HW244444   1.422   7.769   8.414
14224SOL     OW44445   9.879   4.030   9.231
14224SOL    HW144446   9.876   4.073   9.317
14224SOL    HW244447   9.792   3.992   9.221
14225SOL     OW44448  13.855  12.952   0.543
14225SOL    HW144449  13.814  12.899   0.475
14225SOL    HW244450  13.783  12.975   0.602
14226SOL     OW44451   8.202   4.716   5.886
14226SOL    HW144452   8.271   4.727   5.951
14226SOL    HW244453   8.218   4.784   5.821
14227SOL     OW44454  13.379   0.847   4.997
14227SOL    HW144455  13.443   0.841   5.067
14227SOL    HW244456  13.403   0.777   4.936
14228SOL     OW44457  12.316  10.326  13.656
14228SOL    HW144458  12.322  10.308  13.562
14228SOL    HW244459  12.402  10.363  13.678
14229SOL     OW44460  13.234   1.178   3.648
14229SOL    HW144461  13.214   1.224   3.567
14229SOL    HW244462  13.322   1.144   3.636
14230SOL     OW44463   0.616   3.660   0.478
14230SOL    HW144464   0.710   3.645   0.492
14230SOL    HW244465   0.606   3.660   0.383
14231SOL     OW44466   4.015   6.627   5.383
14231SOL    HW144467   3.919   6.623   5.381
14231SOL    HW244468   4.043   6.578   5.306
14232SOL     OW44469   7.289   9.817   4.687
14232SOL    HW144470   7.383   9.838   4.684
14232SOL    HW244471   7.258   9.835   4.599
14233SOL     OW44472   7.510   9.009  14.154
14233SOL    HW144473   7.604   9.008  14.172
14233SOL    HW244474   7.487   9.102  14.152
14234SOL     OW44475   0.328   1.213  12.080
14234SOL    HW144476   0.371   1.295  12.107
14234SOL    HW244477   0.280   1.236  12.001
14235SOL     OW44478   5.525   4.260   8.840
14235SOL    HW144479   5.442   4.214   8.851
14235SOL    HW244480   5.563   4.262   8.928
14236SOL     OW44481  10.828   9.296   1.669
14236SOL    HW144482  10.853   9.372   1.617
14236SOL    HW244483  10.870   9.222   1.626
14237SOL     OW44484   0.313   7.992   5.318
14237SOL    HW144485   0.367   7.983   5.396
14237SOL    HW244486   0.371   8.030   5.252
14238SOL     OW44487  12.814   8.598   5.547
14238SOL    HW144488  12.830   8.510   5.580
14238SOL    HW244489  12.899   8.641   5.553
14239SOL     OW44490  11.942   8.062  14.394
14239SOL    HW144491  12.033   8.064  14.424
14239SOL    HW244492  11.923   7.969  14.383
14240SOL     OW44493   2.736   9.381   6.524
14240SOL    HW144494   2.654   9.337   6.548
14240SOL    HW244495   2.771   9.414   6.606
14241SOL     OW44496   2.406   3.969   9.942
14241SOL    HW144497   2.341   3.957   9.873
14241SOL    HW244498   2.484   3.923   9.909
14242SOL     OW44499  14.640   1.204   7.359
14242SOL    HW144500  14.655   1.122   7.405
14242SOL    HW244501  14.549   1.200   7.330
14243SOL     OW44502  12.188   0.622   9.122
14243SOL    HW144503  12.274   0.648   9.090
14243SOL    HW244504  12.200   0.606   9.215
14244SOL     OW44505   8.187   6.656   6.762
14244SOL    HW144506   8.261   6.700   6.804
14244SOL    HW244507   8.113   6.670   6.820
14245SOL     OW44508  14.358   6.159  11.333
14245SOL    HW144509  14.296   6.100  11.291
14245SOL    HW244510  14.433   6.103  11.355
14246SOL     OW44511   6.364   2.502   2.938
14246SOL    HW144512   6.365   2.481   2.844
14246SOL    HW244513   6.452   2.534   2.955
14247SOL     OW44514  12.662   4.804   2.330
14247SOL    HW144515  12.713   4.876   2.294
14247SOL    HW244516  12.727   4.739   2.358
14248SOL     OW44517  13.400   4.210   9.687
14248SOL    HW144518  13.306   4.207   9.704
14248SOL    HW244519  13.439   4.226   9.773
14249SOL     OW44520   3.378   2.545   5.077
14249SOL    HW144521   3.340   2.614   5.130
14249SOL    HW244522   3.472   2.565   5.073
14250SOL     OW44523   3.525   8.269   0.701
14250SOL    HW144524   3.431   8.272   0.682
14250SOL    HW244525   3.558   8.353   0.670
14251SOL     OW44526   3.949  10.354   1.598
14251SOL    HW144527   4.031  10.399   1.617
14251SOL    HW244528   3.976  10.269   1.563
14252SOL     OW44529   9.336  13.754  13.579
14252SOL    HW144530   9.398  13.698  13.532
14252SOL    HW244531   9.300  13.698  13.647
14253SOL     OW44532   5.095   1.942  10.320
14253SOL    HW144533   5.064   1.861  10.281
14253SOL    HW244534   5.165   1.915  10.380
14254SOL     OW44535  13.177  12.172  11.600
14254SOL    HW144536  13.139  12.249  11.642
14254SOL    HW244537  13.269  12.172  11.628
14255SOL     OW44538   8.970  13.101   5.552
14255SOL    HW144539   8.971  13.188   5.591
14255SOL    HW244540   8.892  13.059   5.589
14256SOL     OW44541   0.363  12.188   9.873
14256SOL    HW144542   0.274  12.181   9.906
14256SOL    HW244543   0.418  12.150   9.941
14257SOL     OW44544  14.215   7.304   0.975
14257SOL    HW144545  14.134   7.326   0.928
14257SOL    HW244546  14.285   7.324   0.912
14258SOL     OW44547   1.435   6.361   3.057
14258SOL    HW144548   1.342   6.384   3.046
14258SOL    HW244549   1.481   6.444   3.052
14259SOL     OW44550   9.223  11.028   4.320
14259SOL    HW144551   9.306  11.071   4.339
14259SOL    HW244552   9.157  11.096   4.332
14260SOL     OW44553   7.111   8.454   5.484
14260SOL    HW144554   7.019   8.479   5.486
14260SOL    HW244555   7.111   8.359   5.478
14261SOL     OW44556   4.256   2.251  14.614
14261SOL    HW144557   4.205   2.208  14.683
14261SOL    HW244558   4.191   2.304  14.566
14262SOL     OW44559   5.155  10.918   6.922
14262SOL    HW144560   5.231  10.863   6.942
14262SOL    HW244561   5.190  10.987   6.866
14263SOL     OW44562   3.504   6.404  14.780
14263SOL    HW144563   3.487   6.331  14.720
14263SOL    HW244564   3.541   6.362  14.858
14264SOL     OW44565  13.783   3.760  14.520
14264SOL    HW144566  13.856   3.703  14.540
14264SOL    HW244567  13.719   3.703  14.476
14265SOL     OW44568   3.613   9.711   9.356
14265SOL    HW144569   3.697   9.667   9.347
14265SOL    HW244570   3.558   9.672   9.289
14266SOL     OW44571  11.077   0.471   0.510
14266SOL    HW144572  11.150   0.409   0.506
14266SOL    HW244573  11.011   0.433   0.451
14267SOL     OW44574   5.270   8.597   7.923
14267SOL    HW144575   5.302   8.684   7.948
14267SOL    HW244576   5.210   8.573   7.994
14268SOL     OW44577  13.000  14.082  13.815
14268SOL    HW144578  13.062  14.010  13.829
14268SOL    HW244579  12.931  14.044  13.762
14269SOL     OW44580   4.467   7.007   6.947
14269SOL    HW144581   4.422   7.027   7.030
14269SOL    HW244582   4.407   7.037   6.879
14270SOL     OW44583   8.738   9.421   7.872
14270SOL    HW144584   8.701   9.482   7.935
14270SOL    HW244585   8.779   9.353   7.925
14271SOL     OW44586  14.683   0.223   5.639
14271SOL    HW144587  14.723   0.219   5.552
14271SOL    HW244588  14.592   0.247   5.623
14272SOL     OW44589   1.806  13.223  14.212
14272SOL    HW144590   1.767  13.200  14.296
14272SOL    HW244591   1.860  13.147  14.189
14273SOL     OW44592  11.892   9.329  13.993
14273SOL    HW144593  11.817   9.389  13.989
14273SOL    HW244594  11.962   9.382  14.031
14274SOL     OW44595   9.454   8.163   3.662
14274SOL    HW144596   9.486   8.072   3.665
14274SOL    HW244597   9.460   8.187   3.570
14275SOL     OW44598   8.938   4.799  10.418
14275SOL    HW144599   8.851   4.772  10.388
14275SOL    HW244600   8.998   4.753  10.359
14276SOL     OW44601   8.541   1.386   1.057
14276SOL    HW144602   8.515   1.294   1.068
14276SOL    HW244603   8.505   1.411   0.972
14277SOL     OW44604   3.428   4.052  10.690
14277SOL    HW144605   3.389   4.045  10.602
14277SOL    HW244606   3.357   4.086  10.744
14278SOL     OW44607  14.088  12.197  11.689
14278SOL    HW144608  14.042  12.164  11.612
14278SOL    HW244609  14.175  12.219  11.657
14279SOL     OW44610   8.030  12.889   4.995
14279SOL    HW144611   8.027  12.890   5.090
14279SOL    HW244612   8.053  12.979   4.971
14280SOL     OW44613  13.558  13.343   9.936
14280SOL    HW144614  13.569  13.332   9.841
14280SOL    HW244615  13.571  13.437   9.951
14281SOL     OW44616   2.833  14.623   3.560
14281SOL    HW144617   2.881  14.685   3.504
14281SOL    HW244618   2.742  14.650   3.553
14282SOL     OW44619   3.302   3.787   4.319
14282SOL    HW144620   3.324   3.878   4.300
14282SOL    HW244621   3.268   3.753   4.236
14283SOL     OW44622  12.674  14.461   2.739
14283SOL    HW144623  12.745  14.486   2.680
14283SOL    HW244624  12.616  14.536   2.740
14284SOL     OW44625   6.326  13.151   1.969
14284SOL    HW144626   6.369  13.149   2.054
14284SOL    HW244627   6.380  13.095   1.914
14285SOL     OW44628   9.110   4.507   3.007
14285SOL    HW144629   9.200   4.501   2.975
14285SOL    HW244630   9.117   4.544   3.095
14286SOL     OW44631  13.212   4.449   7.959
14286SOL    HW144632  13.144   4.423   7.897
14286SOL    HW244633  13.243   4.367   7.995
14287SOL     OW44634   3.343   3.311   7.369
14287SOL    HW144635   3.305   3.234   7.412
14287SOL    HW244636   3.293   3.385   7.403
14288SOL     OW44637  14.458   4.706   9.588
14288SOL    HW144638  14.365   4.683   9.595
14288SOL    HW244639  14.503   4.622   9.583
14289SOL     OW44640  12.832  11.234   4.314
14289SOL    HW144641  12.843  11.142   4.338
14289SOL    HW244642  12.773  11.232   4.239
14290SOL     OW44643   1.523   8.010  12.227
14290SOL    HW144644   1.532   7.932  12.173
14290SOL    HW244645   1.555   8.081  12.172
14291SOL     OW44646   2.247   2.034  12.448
14291SOL    HW144647   2.175   2.094  12.467
14291SOL    HW244648   2.218   1.949  12.482
14292SOL     OW44649   6.272   6.732   2.890
14292SOL    HW144650   6.300   6.823   2.898
14292SOL    HW244651   6.193   6.726   2.942
14293SOL     OW44652   1.365  13.869  10.518
14293SOL    HW144653   1.444  13.815  10.518
14293SOL    HW244654   1.368  13.916  10.601
14294SOL     OW44655   6.780   7.398   6.141
14294SOL    HW144656   6.716   7.331   6.118
14294SOL    HW244657   6.842   7.353   6.198
14295SOL     OW44658  10.592  14.658   4.768
14295SOL    HW144659  10.564  14.683   4.680
14295SOL    HW244660  10.687  14.648   4.761
14296SOL     OW44661   3.809   2.718   4.306
14296SOL    HW144662   3.745   2.789   4.312
14296SOL    HW244663   3.759   2.644   4.272
14297SOL     OW44664   7.119   8.959   6.815
14297SOL    HW144665   7.032   8.977   6.852
14297SOL    HW244666   7.140   8.871   6.846
14298SOL     OW44667   1.205   4.640  12.523
14298SOL    HW144668   1.209   4.705  12.452
14298SOL    HW244669   1.124   4.591  12.506
14299SOL     OW44670   4.451  10.331   8.227
14299SOL    HW144671   4.464  10.393   8.155
14299SOL    HW244672   4.411  10.254   8.185
14300SOL     OW44673   6.667  13.256   0.188
14300SOL    HW144674   6.575  13.256   0.213
14300SOL    HW244675   6.672  13.321   0.118
14301SOL     OW44676  12.847   6.247   6.820
14301SOL    HW144677  12.836   6.246   6.725
14301SOL    HW244678  12.815   6.333   6.847
14302SOL     OW44679   3.671   6.174   4.043
14302SOL    HW144680   3.700   6.092   4.083
14302SOL    HW244681   3.723   6.181   3.963
14303SOL     OW44682   9.865   4.933   1.746
14303SOL    HW144683   9.905   5.016   1.772
14303SOL    HW244684   9.939   4.876   1.723
14304SOL     OW44685  11.090   2.888   0.286
14304SOL    HW144686  11.177   2.919   0.261
14304SOL    HW244687  11.089   2.796   0.258
14305SOL     OW44688   4.651  11.960  10.026
14305SOL    HW144689   4.697  12.008   9.957
14305SOL    HW244690   4.698  11.981  10.106
14306SOL     OW44691  11.047  13.250   3.314
14306SOL    HW144692  11.135  13.258   3.278
14306SOL    HW244693  11.061  13.236   3.408
14307SOL     OW44694   6.270   8.035   8.533
14307SOL    HW144695   6.301   8.116   8.572
14307SOL    HW244696   6.329   8.019   8.459
14308SOL     OW44697   4.765  10.801   0.108
14308SOL    HW144698   4.744  10.860   0.180
14308SOL    HW244699   4.764  10.856   0.030
14309SOL     OW44700   0.530  12.251  13.853
14309SOL    HW144701   0.469  12.182  13.879
14309SOL    HW244702   0.527  12.251  13.757
14310SOL     OW44703  10.598   9.676   6.895
14310SOL    HW144704  10.659   9.651   6.964
14310SOL    HW244705  10.516   9.693   6.941
14311SOL     OW44706   8.480  12.982   4.258
14311SOL    HW144707   8.511  12.891   4.257
14311SOL    HW244708   8.545  13.030   4.207
14312SOL     OW44709  14.358   2.172   0.439
14312SOL    HW144710  14.265   2.161   0.416
14312SOL    HW244711  14.389   2.083   0.454
14313SOL     OW44712   0.316  10.135   1.125
14313SOL    HW144713   0.348  10.216   1.164
14313SOL    HW244714   0.223  10.151   1.110
14314SOL     OW44715   8.911   7.572  13.680
14314SOL    HW144716   8.832   7.564  13.627
14314SOL    HW244717   8.881   7.567  13.770
14315SOL     OW44718   4.757   4.798   9.254
14315SOL    HW144719   4.672   4.785   9.296
14315SOL    HW244720   4.818   4.810   9.327
14316SOL     OW44721   9.839   5.201  13.557
14316SOL    HW144722   9.920   5.242  13.526
14316SOL    HW244723   9.848   5.109  13.535
14317SOL     OW44724   2.719   2.398   4.890
14317SOL    HW144725   2.637   2.448   4.889
14317SOL    HW244726   2.724   2.361   4.978
14318SOL     OW44727   8.236   3.600  10.461
14318SOL    HW144728   8.233   3.558  10.547
14318SOL    HW244729   8.260   3.530  10.401
14319SOL     OW44730   9.392   1.452   8.972
14319SOL    HW144731   9.406   1.542   9.001
14319SOL    HW244732   9.385   1.458   8.877
14320SOL     OW44733   3.949   5.487   5.647
14320SOL    HW144734   3.915   5.398   5.644
14320SOL    HW244735   3.977   5.499   5.738
14321SOL     OW44736   4.710  13.925  11.181
14321SOL    HW144737   4.782  13.986  11.195
14321SOL    HW244738   4.645  13.974  11.132
14322SOL     OW44739   9.312   8.071  10.319
14322SOL    HW144740   9.372   8.104  10.252
14322SOL    HW244741   9.349   8.102  10.401
14323SOL     OW44742   0.461   4.592   6.057
14323SOL    HW144743   0.429   4.681   6.049
14323SOL    HW244744   0.554   4.597   6.034
14324SOL     OW44745  13.390   0.448   9.217
14324SOL    HW144746  13.348   0.495   9.289
14324SOL    HW244747  13.434   0.374   9.258
14325SOL     OW44748  11.979   7.886   9.584
14325SOL    HW144749  11.895   7.841   9.592
14325SOL    HW244750  12.044   7.816   9.595
14326SOL     OW44751   7.212   0.407   0.295
14326SOL    HW144752   7.242   0.346   0.227
14326SOL    HW244753   7.211   0.356   0.375
14327SOL     OW44754  14.324   1.914   8.049
14327SOL    HW144755  14.347   1.939   8.138
14327SOL    HW244756  14.355   1.986   7.995
14328SOL     OW44757  11.520   3.578  14.349
14328SOL    HW144758  11.490   3.668  14.363
14328SOL    HW244759  11.477   3.549  14.269
14329SOL     OW44760   4.012   1.346   2.166
14329SOL    HW144761   4.008   1.359   2.071
14329SOL    HW244762   4.091   1.295   2.180
14330SOL     OW44763  13.211   2.113   0.702
14330SOL    HW144764  13.161   2.176   0.650
14330SOL    HW244765  13.183   2.027   0.669
14331SOL     OW44766   1.423   5.455   6.847
14331SOL    HW144767   1.361   5.459   6.774
14331SOL    HW244768   1.441   5.546   6.868
14332SOL     OW44769  13.929   2.584   6.219
14332SOL    HW144770  13.849   2.636   6.232
14332SOL    HW244771  13.981   2.635   6.157
14333SOL     OW44772  12.511   0.088   4.951
14333SOL    HW144773  12.498   0.097   5.045
14333SOL    HW244774  12.600   0.054   4.942
14334SOL     OW44775   8.088  10.142   0.849
14334SOL    HW144776   8.073  10.094   0.931
14334SOL    HW244777   8.123  10.227   0.877
14335SOL     OW44778   6.178   8.918   8.204
14335SOL    HW144779   6.158   8.937   8.112
14335SOL    HW244780   6.102   8.951   8.252
14336SOL     OW44781   6.682   5.558   9.292
14336SOL    HW144782   6.599   5.606   9.294
14336SOL    HW244783   6.663   5.475   9.335
14337SOL     OW44784   6.397   1.126   4.269
14337SOL    HW144785   6.354   1.209   4.247
14337SOL    HW244786   6.337   1.059   4.237
14338SOL     OW44787   7.365  11.700   5.790
14338SOL    HW144788   7.449  11.720   5.831
14338SOL    HW244789   7.351  11.607   5.807
14339SOL     OW44790   4.424   3.520   4.317
14339SOL    HW144791   4.503   3.469   4.299
14339SOL    HW244792   4.352   3.459   4.301
14340SOL     OW44793   3.921   8.926  12.462
14340SOL    HW144794   3.901   8.978  12.539
14340SOL    HW244795   3.843   8.871  12.449
14341SOL     OW44796   1.325   3.252   7.000
14341SOL    HW144797   1.235   3.218   6.998
14341SOL    HW244798   1.375   3.184   7.045
14342SOL     OW44799  12.081  10.502   2.253
14342SOL    HW144800  12.010  10.485   2.191
14342SOL    HW244801  12.096  10.597   2.246
14343SOL     OW44802  14.339   1.695   7.548
14343SOL    HW144803  14.311   1.786   7.555
14343SOL    HW244804  14.266   1.645   7.584
14344SOL     OW44805   9.299  13.595  14.315
14344SOL    HW144806   9.244  13.673  14.306
14344SOL    HW244807   9.380  13.619  14.270
14345SOL     OW44808   1.043   0.898  12.530
14345SOL    HW144809   1.116   0.835  12.530
14345SOL    HW244810   1.013   0.900  12.439
14346SOL     OW44811   5.548  13.078   3.299
14346SOL    HW144812   5.580  13.069   3.389
14346SOL    HW244813   5.553  13.172   3.281
14347SOL     OW44814   1.722   0.514   2.976
14347SOL    HW144815   1.630   0.534   2.991
14347SOL    HW244816   1.725   0.419   2.965
14348SOL     OW44817  11.659   9.114  11.435
14348SOL    HW144818  11.695   9.070  11.512
14348SOL    HW244819  11.584   9.163  11.469
14349SOL     OW44820   0.809   8.838  12.807
14349SOL    HW144821   0.754   8.788  12.747
14349SOL    HW244822   0.788   8.803  12.894
14350SOL     OW44823   4.002   8.950  14.320
14350SOL    HW144824   4.016   8.866  14.363
14350SOL    HW244825   3.912   8.974  14.343
14351SOL     OW44826  10.376   5.219  13.643
14351SOL    HW144827  10.336   5.282  13.703
14351SOL    HW244828  10.457   5.261  13.615
14352SOL     OW44829  12.926   0.019  14.057
14352SOL    HW144830  12.860  14.842  14.100
14352SOL    HW244831  12.877   0.093  14.022
14353SOL     OW44832   0.219   6.171   5.105
14353SOL    HW144833   0.179   6.162   5.191
14353SOL    HW244834   0.175   6.247   5.066
14354SOL     OW44835   0.101   9.131  11.111
14354SOL    HW144836   0.190   9.131  11.077
14354SOL    HW244837   0.051   9.181  11.047
14355SOL     OW44838   0.194   0.700   2.998
14355SOL    HW144839   0.193   0.787   2.960
14355SOL    HW244840   0.210   0.641   2.924
14356SOL     OW44841   4.700   5.258   9.790
14356SOL    HW144842   4.619   5.210   9.802
14356SOL    HW244843   4.739   5.262   9.878
14357SOL     OW44844   8.651  12.765   1.343
14357SOL    HW144845   8.720  12.705   1.370
14357SOL    HW244846   8.581  12.751   1.406
14358SOL     OW44847   8.417   4.376  13.148
14358SOL    HW144848   8.470   4.296  13.155
14358SOL    HW244849   8.463   4.440  13.202
14359SOL     OW44850   9.811   9.815   5.937
14359SOL    HW144851   9.849   9.814   6.024
14359SOL    HW244852   9.881   9.847   5.880
14360SOL     OW44853   6.640  11.132  12.425
14360SOL    HW144854   6.703  11.204  12.433
14360SOL    HW244855   6.600  11.145  12.339
14361SOL     OW44856   5.102  10.430   5.988
14361SOL    HW144857   5.029  10.462   5.934
14361SOL    HW244858   5.166  10.501   5.985
14362SOL     OW44859   6.734   1.187  12.324
14362SOL    HW144860   6.752   1.228  12.240
14362SOL    HW244861   6.642   1.205  12.341
14363SOL     OW44862  13.856  11.928  10.504
14363SOL    HW144863  13.947  11.957  10.518
14363SOL    HW244864  13.850  11.846  10.552
14364SOL     OW44865  10.018  13.936   3.801
14364SOL    HW144866   9.934  13.900   3.829
14364SOL    HW244867   9.995  14.011   3.746
14365SOL     OW44868   5.660   7.160   0.287
14365SOL    HW144869   5.672   7.077   0.240
14365SOL    HW244870   5.568   7.158   0.314
14366SOL     OW44871   5.583   3.137   8.489
14366SOL    HW144872   5.618   3.118   8.576
14366SOL    HW244873   5.594   3.231   8.478
14367SOL     OW44874   4.317   8.857  14.242
14367SOL    HW144875   4.303   8.763  14.235
14367SOL    HW244876   4.236   8.891  14.279
14368SOL     OW44877   8.187   2.003   0.795
14368SOL    HW144878   8.101   2.038   0.774
14368SOL    HW244879   8.183   1.911   0.768
14369SOL     OW44880  12.988   5.395  11.449
14369SOL    HW144881  13.083   5.382  11.440
14369SOL    HW244882  12.981   5.464  11.516
14370SOL     OW44883   2.092  10.979   7.005
14370SOL    HW144884   2.152  11.018   7.069
14370SOL    HW244885   2.078  11.048   6.940
14371SOL     OW44886   1.154   0.072   7.402
14371SOL    HW144887   1.069   0.092   7.362
14371SOL    HW244888   1.202   0.025   7.333
14372SOL     OW44889   7.789   7.486  11.341
14372SOL    HW144890   7.755   7.570  11.372
14372SOL    HW244891   7.711   7.439  11.310
14373SOL     OW44892   3.165  14.646   7.129
14373SOL    HW144893   3.078  14.664   7.165
14373SOL    HW244894   3.147  14.602   7.045
14374SOL     OW44895   2.897  12.257   8.277
14374SOL    HW144896   2.833  12.186   8.285
14374SOL    HW244897   2.959  12.242   8.348
14375SOL     OW44898  11.500   3.860   2.198
14375SOL    HW144899  11.579   3.888   2.152
14375SOL    HW244900  11.522   3.865   2.291
14376SOL     OW44901  12.471  13.694   4.869
14376SOL    HW144902  12.460  13.607   4.909
14376SOL    HW244903  12.523  13.743   4.933
14377SOL     OW44904   4.005   2.624  11.125
14377SOL    HW144905   4.058   2.682  11.071
14377SOL    HW244906   4.052   2.541  11.125
14378SOL     OW44907   3.057   9.327   7.081
14378SOL    HW144908   3.072   9.408   7.131
14378SOL    HW244909   3.098   9.259   7.133
14379SOL     OW44910  14.023  12.181   1.481
14379SOL    HW144911  14.111  12.154   1.457
14379SOL    HW244912  14.036  12.252   1.543
14380SOL     OW44913  12.881  14.420   2.567
14380SOL    HW144914  12.958  14.454   2.613
14380SOL    HW244915  12.890  14.325   2.572
14381SOL     OW44916   0.200   3.660   8.411
14381SOL    HW144917   0.231   3.715   8.483
14381SOL    HW244918   0.198   3.571   8.447
14382SOL     OW44919   1.069   9.370   6.662
14382SOL    HW144920   1.001   9.338   6.602
14382SOL    HW244921   1.057   9.318   6.742
14383SOL     OW44922   8.196   1.964  13.150
14383SOL    HW144923   8.166   2.049  13.117
14383SOL    HW244924   8.291   1.968  13.144
14384SOL     OW44925   1.047   0.352  10.690
14384SOL    HW144926   1.009   0.302  10.618
14384SOL    HW244927   1.062   0.286  10.759
14385SOL     OW44928  14.691   6.153   5.328
14385SOL    HW144929  14.701   6.221   5.261
14385SOL    HW244930  14.683   6.071   5.279
14386SOL     OW44931   1.833  11.517   3.381
14386SOL    HW144932   1.852  11.498   3.473
14386SOL    HW244933   1.792  11.603   3.383
14387SOL     OW44934  11.843  10.929  13.446
14387SOL    HW144935  11.880  10.858  13.500
14387SOL    HW244936  11.821  10.887  13.363
14388SOL     OW44937   9.438   3.828   1.709
14388SOL    HW144938   9.451   3.785   1.625
14388SOL    HW244939   9.365   3.781   1.749
14389SOL     OW44940   7.840   4.169   6.481
14389SOL    HW144941   7.789   4.127   6.411
14389SOL    HW244942   7.867   4.253   6.443
14390SOL     OW44943   3.890   7.364   6.056
14390SOL    HW144944   3.828   7.294   6.076
14390SOL    HW244945   3.941   7.374   6.136
14391SOL     OW44946   8.063   0.580  13.213
14391SOL    HW144947   7.989   0.527  13.183
14391SOL    HW244948   8.115   0.594  13.134
14392SOL     OW44949   6.634   3.362   8.262
14392SOL    HW144950   6.583   3.442   8.269
14392SOL    HW244951   6.573   3.292   8.286
14393SOL     OW44952  13.483   5.519  11.427
14393SOL    HW144953  13.465   5.575  11.352
14393SOL    HW244954  13.529   5.444  11.391
14394SOL     OW44955   6.820  13.307  14.478
14394SOL    HW144956   6.876  13.248  14.429
14394SOL    HW244957   6.788  13.371  14.414
14395SOL     OW44958  12.667  11.964   1.632
14395SOL    HW144959  12.609  12.032   1.596
14395SOL    HW244960  12.674  11.900   1.561
14396SOL     OW44961  13.745  14.702  10.787
14396SOL    HW144962  13.718  14.642  10.856
14396SOL    HW244963  13.758  14.786  10.831
14397SOL     OW44964  11.288   2.267  10.189
14397SOL    HW144965  11.272   2.339  10.128
14397SOL    HW244966  11.273   2.188  10.137
14398SOL     OW44967   2.462   6.242   3.300
14398SOL    HW144968   2.393   6.178   3.283
14398SOL    HW244969   2.536   6.213   3.246
14399SOL     OW44970   2.144   4.516   4.369
14399SOL    HW144971   2.181   4.598   4.335
14399SOL    HW244972   2.079   4.490   4.303
14400SOL     OW44973   3.186   3.651  10.562
14400SOL    HW144974   3.186   3.558  10.586
14400SOL    HW244975   3.222   3.653  10.474
14401SOL     OW44976   6.048   0.964   8.363
14401SOL    HW144977   5.972   0.912   8.337
14401SOL    HW244978   6.063   0.941   8.454
14402SOL     OW44979   1.096  13.162   4.825
14402SOL    HW144980   1.152  13.187   4.899
14402SOL    HW244981   1.106  13.234   4.763
14403SOL     OW44982  11.368  13.381   2.733
14403SOL    HW144983  11.318  13.309   2.696
14403SOL    HW244984  11.408  13.344   2.812
14404SOL     OW44985  14.767   1.465   6.935
14404SOL    HW144986  14.685   1.449   6.888
14404SOL    HW244987  14.748   1.539   6.992
14405SOL     OW44988   3.710   1.884  14.421
14405SOL    HW144989   3.715   1.801  14.373
14405SOL    HW244990   3.666   1.943  14.360
14406SOL     OW44991   7.730  14.089   6.236
14406SOL    HW144992   7.684  14.137   6.306
14406SOL    HW244993   7.767  14.013   6.280
14407SOL     OW44994   7.094   0.378   2.660
14407SOL    HW144995   7.108   0.472   2.650
14407SOL    HW244996   7.112   0.361   2.752
14408SOL     OW44997   9.755   7.895   5.583
14408SOL    HW144998   9.843   7.905   5.546
14408SOL    HW244999   9.749   7.963   5.649
14409SOL     OW45000   7.285   9.904   7.991
14409SOL    HW145001   7.287   9.841   8.063
14409SOL    HW245002   7.343   9.975   8.020
14410SOL     OW45003   4.240  14.641   0.109
14410SOL    HW145004   4.234  14.710   0.175
14410SOL    HW245005   4.314  14.667   0.053
14411SOL     OW45006  11.198   0.085   5.684
14411SOL    HW145007  11.165   0.113   5.599
14411SOL    HW245008  11.135   0.019   5.714
14412SOL     OW45009   5.757   8.948   4.541
14412SOL    HW145010   5.766   8.949   4.636
14412SOL    HW245011   5.743   8.856   4.519
14413SOL     OW45012   1.235   0.436   9.843
14413SOL    HW145013   1.296   0.501   9.809
14413SOL    HW245014   1.214   0.467   9.931
14414SOL     OW45015  11.170   8.313   7.852
14414SOL    HW145016  11.091   8.293   7.802
14414SOL    HW245017  11.197   8.399   7.820
14415SOL     OW45018   6.354  14.013   0.423
14415SOL    HW145019   6.349  14.089   0.365
14415SOL    HW245020   6.294  14.034   0.495
14416SOL     OW45021   9.894  12.175   6.268
14416SOL    HW145022   9.929  12.138   6.187
14416SOL    HW245023   9.813  12.127   6.283
14417SOL     OW45024   5.440   3.861  13.452
14417SOL    HW145025   5.457   3.821  13.537
14417SOL    HW245026   5.352   3.899  13.460
14418SOL     OW45027   5.491   6.952   0.074
14418SOL    HW145028   5.526   6.965  14.863
14418SOL    HW245029   5.432   7.026   0.087
14419SOL     OW45030  11.072   4.002   1.605
14419SOL    HW145031  10.982   4.021   1.578
14419SOL    HW245032  11.126   4.026   1.529
14420SOL     OW45033  14.437   7.184  10.197
14420SOL    HW145034  14.344   7.180  10.222
14420SOL    HW245035  14.479   7.229  10.270
14421SOL     OW45036  14.449   9.375   0.166
14421SOL    HW145037  14.515   9.306   0.159
14421SOL    HW245038  14.388   9.357   0.095
14422SOL     OW45039  14.203   6.835   9.259
14422SOL    HW145040  14.164   6.839   9.346
14422SOL    HW245041  14.296   6.819   9.275
14423SOL     OW45042   0.940   7.311   5.759
14423SOL    HW145043   0.890   7.359   5.825
14423SOL    HW245044   0.969   7.379   5.698
14424SOL     OW45045  13.589  10.035   9.751
14424SOL    HW145046  13.568  10.045   9.844
14424SOL    HW245047  13.595  10.124   9.718
14425SOL     OW45048   1.677  10.045   9.143
14425SOL    HW145049   1.768  10.072   9.129
14425SOL    HW245050   1.682   9.950   9.150
14426SOL     OW45051   9.050   0.337  10.595
14426SOL    HW145052   8.982   0.402  10.615
14426SOL    HW245053   9.129   0.389  10.583
14427SOL     OW45054   1.906   1.982   0.811
14427SOL    HW145055   1.992   1.969   0.772
14427SOL    HW245056   1.844   1.957   0.742
14428SOL     OW45057   3.479   9.250  11.643
14428SOL    HW145058   3.384   9.248  11.650
14428SOL    HW245059   3.511   9.241  11.733
14429SOL     OW45060   4.888   2.595   6.065
14429SOL    HW145061   4.876   2.547   5.984
14429SOL    HW245062   4.882   2.529   6.134
14430SOL     OW45063  12.949   2.466   7.258
14430SOL    HW145064  12.953   2.442   7.350
14430SOL    HW245065  12.981   2.389   7.211
14431SOL     OW45066  10.334   9.904   1.658
14431SOL    HW145067  10.309   9.855   1.580
14431SOL    HW245068  10.430   9.897   1.661
14432SOL     OW45069  14.714   4.355  12.802
14432SOL    HW145070  14.731   4.275  12.753
14432SOL    HW245071  14.754   4.424  12.749
14433SOL     OW45072   3.343  11.115  11.621
14433SOL    HW145073   3.397  11.145  11.548
14433SOL    HW245074   3.254  11.111  11.585
14434SOL     OW45075   5.477   7.225  11.441
14434SOL    HW145076   5.430   7.273  11.373
14434SOL    HW245077   5.564   7.212  11.405
14435SOL     OW45078   8.158  10.202  11.882
14435SOL    HW145079   8.239  10.190  11.931
14435SOL    HW245080   8.107  10.265  11.934
14436SOL     OW45081  10.599   8.209   1.804
14436SOL    HW145082  10.592   8.305   1.806
14436SOL    HW245083  10.508   8.179   1.813
14437SOL     OW45084   2.471   1.963   3.148
14437SOL    HW145085   2.502   1.965   3.057
14437SOL    HW245086   2.437   1.874   3.160
14438SOL     OW45087  10.964   3.650  13.662
14438SOL    HW145088  10.896   3.660  13.729
14438SOL    HW245089  10.916   3.654  13.579
14439SOL     OW45090   4.383  11.919   6.359
14439SOL    HW145091   4.370  12.010   6.331
14439SOL    HW245092   4.466  11.894   6.319
14440SOL     OW45093   6.344   4.367  12.846
14440SOL    HW145094   6.334   4.462  12.850
14440SOL    HW245095   6.437   4.354  12.825
14441SOL     OW45096  11.204   6.780  10.961
14441SOL    HW145097  11.152   6.790  11.041
14441SOL    HW245098  11.164   6.841  10.899
14442SOL     OW45099  11.528  12.006   7.963
14442SOL    HW145100  11.560  12.031   7.877
14442SOL    HW245101  11.436  11.984   7.949
14443SOL     OW45102  11.238  14.488   2.713
14443SOL    HW145103  11.188  14.484   2.632
14443SOL    HW245104  11.325  14.455   2.689
14444SOL     OW45105   4.222   5.346  14.806
14444SOL    HW145106   4.131   5.377  14.811
14444SOL    HW245107   4.265   5.406  14.745
14445SOL     OW45108   3.403   2.992  11.912
14445SOL    HW145109   3.392   3.006  12.006
14445SOL    HW245110   3.414   3.080  11.875
14446SOL     OW45111   2.341   9.532   3.912
14446SOL    HW145112   2.270   9.595   3.903
14446SOL    HW245113   2.298   9.446   3.908
14447SOL     OW45114  13.083   7.072   7.292
14447SOL    HW145115  13.049   7.060   7.203
14447SOL    HW245116  13.103   7.165   7.298
14448SOL     OW45117  12.309   6.303   1.704
14448SOL    HW145118  12.239   6.243   1.679
14448SOL    HW245119  12.279   6.344   1.784
14449SOL     OW45120   4.349  11.715  14.714
14449SOL    HW145121   4.442  11.704  14.734
14449SOL    HW245122   4.332  11.808  14.726
14450SOL     OW45123   2.554   8.377   4.273
14450SOL    HW145124   2.476   8.327   4.247
14450SOL    HW245125   2.565   8.358   4.366
14451SOL     OW45126  12.339  10.695  10.886
14451SOL    HW145127  12.414  10.745  10.918
14451SOL    HW245128  12.378  10.622  10.838
14452SOL     OW45129  14.323  12.737   9.349
14452SOL    HW145130  14.229  12.724   9.343
14452SOL    HW245131  14.351  12.752   9.258
14453SOL     OW45132   4.979   4.955   8.958
14453SOL    HW145133   5.033   4.908   8.893
14453SOL    HW245134   5.030   4.950   9.039
14454SOL     OW45135  12.668   5.070   3.201
14454SOL    HW145136  12.608   4.997   3.215
14454SOL    HW245137  12.646   5.132   3.269
14455SOL     OW45138   2.869   0.729  12.305
14455SOL    HW145139   2.926   0.749  12.231
14455SOL    HW245140   2.907   0.651  12.344
14456SOL     OW45141  14.008  11.299  14.195
14456SOL    HW145142  14.018  11.204  14.188
14456SOL    HW245143  14.044  11.321  14.281
14457SOL     OW45144   3.612   5.838  14.842
14457SOL    HW145145   3.688   5.854  14.785
14457SOL    HW245146   3.538   5.873  14.793
14458SOL     OW45147   7.204   6.624   5.489
14458SOL    HW145148   7.130   6.655   5.541
14458SOL    HW245149   7.227   6.697   5.432
14459SOL     OW45150   0.879  10.888   4.098
14459SOL    HW145151   0.829  10.955   4.052
14459SOL    HW245152   0.812  10.836   4.143
14460SOL     OW45153   3.486   7.683   0.094
14460SOL    HW145154   3.462   7.773   0.114
14460SOL    HW245155   3.514   7.685   0.003
14461SOL     OW45156   7.650  14.361   0.762
14461SOL    HW145157   7.625  14.269   0.765
14461SOL    HW245158   7.568  14.410   0.773
14462SOL     OW45159   4.085   9.344   0.724
14462SOL    HW145160   4.137   9.424   0.717
14462SOL    HW245161   4.078   9.312   0.634
14463SOL     OW45162  14.438   7.725   0.158
14463SOL    HW145163  14.531   7.744   0.171
14463SOL    HW245164  14.396   7.811   0.160
14464SOL     OW45165   5.838   8.093   3.187
14464SOL    HW145166   5.803   8.047   3.110
14464SOL    HW245167   5.932   8.079   3.181
14465SOL     OW45168   1.345  10.796   7.115
14465SOL    HW145169   1.367  10.717   7.067
14465SOL    HW245170   1.423  10.815   7.167
14466SOL     OW45171   0.905   1.175  11.038
14466SOL    HW145172   0.916   1.267  11.014
14466SOL    HW245173   0.930   1.172  11.131
14467SOL     OW45174   0.693   5.585   9.282
14467SOL    HW145175   0.716   5.609   9.192
14467SOL    HW245176   0.600   5.560   9.277
14468SOL     OW45177   1.664   0.468   7.388
14468SOL    HW145178   1.588   0.431   7.343
14468SOL    HW245179   1.665   0.426   7.474
14469SOL     OW45180   3.605   3.989   4.505
14469SOL    HW145181   3.614   3.933   4.583
14469SOL    HW245182   3.511   3.994   4.489
14470SOL     OW45183   0.947  13.770   2.175
14470SOL    HW145184   0.928  13.824   2.251
14470SOL    HW245185   1.034  13.734   2.192
14471SOL     OW45186   0.639   7.147  10.185
14471SOL    HW145187   0.585   7.220  10.155
14471SOL    HW245188   0.694   7.183  10.254
14472SOL     OW45189   1.363  11.371   9.581
14472SOL    HW145190   1.405  11.327   9.655
14472SOL    HW245191   1.334  11.455   9.616
14473SOL     OW45192   7.040   9.261   0.083
14473SOL    HW145193   7.003   9.219   0.006
14473SOL    HW245194   7.133   9.268   0.064
14474SOL     OW45195   4.771  11.634   2.552
14474SOL    HW145196   4.849  11.581   2.567
14474SOL    HW245197   4.756  11.677   2.637
14475SOL     OW45198  14.238  13.177  14.388
14475SOL    HW145199  14.291  13.131  14.452
14475SOL    HW245200  14.158  13.124  14.381
14476SOL     OW45201   1.502   0.390   1.624
14476SOL    HW145202   1.453   0.444   1.561
14476SOL    HW245203   1.591   0.388   1.590
14477SOL     OW45204   8.766  13.142  14.523
14477SOL    HW145205   8.677  13.112  14.539
14477SOL    HW245206   8.756  13.232  14.492
14478SOL     OW45207  10.036  12.696   7.875
14478SOL    HW145208  10.006  12.606   7.864
14478SOL    HW245209  10.104  12.707   7.809
14479SOL     OW45210   5.678   3.769  10.367
14479SOL    HW145211   5.699   3.857  10.397
14479SOL    HW245212   5.731   3.756  10.288
14480SOL     OW45213   6.036   0.133   5.807
14480SOL    HW145214   5.961   0.137   5.866
14480SOL    HW245215   6.110   0.163   5.861
14481SOL     OW45216   9.337  14.573   0.800
14481SOL    HW145217   9.286  14.525   0.866
14481SOL    HW245218   9.370  14.650   0.847
14482SOL     OW45219   9.261   3.135  13.781
14482SOL    HW145220   9.238   3.066  13.843
14482SOL    HW245221   9.353   3.119  13.761
14483SOL     OW45222   9.564  12.210   3.899
14483SOL    HW145223   9.613  12.224   3.818
14483SOL    HW245224   9.491  12.272   3.894
14484SOL     OW45225   8.019  11.229   0.452
14484SOL    HW145226   8.058  11.158   0.504
14484SOL    HW245227   8.077  11.238   0.376
14485SOL     OW45228   3.164   6.708   9.253
14485SOL    HW145229   3.233   6.694   9.318
14485SOL    HW245230   3.083   6.689   9.301
14486SOL     OW45231  10.281  14.268  11.226
14486SOL    HW145232  10.246  14.307  11.146
14486SOL    HW245233  10.352  14.212  11.196
14487SOL     OW45234   7.739   0.015  12.594
14487SOL    HW145235   7.809   0.034  12.531
14487SOL    HW245236   7.783  14.847  12.665
14488SOL     OW45237  11.993   0.023   9.700
14488SOL    HW145238  11.957  14.817   9.730
14488SOL    HW245239  11.954   0.088   9.758
14489SOL     OW45240   8.175   4.457  13.227
14489SOL    HW145241   8.251   4.418  13.184
14489SOL    HW245242   8.143   4.522  13.165
14490SOL     OW45243   5.029   4.953   7.277
14490SOL    HW145244   5.112   4.964   7.322
14490SOL    HW245245   4.965   5.000   7.330
14491SOL     OW45246  12.242   2.132   8.634
14491SOL    HW145247  12.215   2.183   8.710
14491SOL    HW245248  12.186   2.055   8.636
14492SOL     OW45249   1.110   1.236  13.869
14492SOL    HW145250   1.180   1.277  13.921
14492SOL    HW245251   1.061   1.184  13.933
14493SOL     OW45252   4.669   0.624   3.964
14493SOL    HW145253   4.676   0.697   3.901
14493SOL    HW245254   4.731   0.559   3.931
14494SOL     OW45255  10.972   2.872  12.543
14494SOL    HW145256  10.890   2.865  12.592
14494SOL    HW245257  10.961   2.811  12.470
14495SOL     OW45258   4.132   9.615  12.257
14495SOL    HW145259   4.146   9.588  12.348
14495SOL    HW245260   4.220   9.625  12.221
14496SOL     OW45261   3.806   6.651   3.879
14496SOL    HW145262   3.767   6.688   3.800
14496SOL    HW245263   3.731   6.635   3.937
14497SOL     OW45264   2.883  11.865  13.240
14497SOL    HW145265   2.789  11.879  13.228
14497SOL    HW245266   2.920  11.953  13.237
14498SOL     OW45267   5.187  11.830  14.862
14498SOL    HW145268   5.180  11.925  14.852
14498SOL    HW245269   5.259  11.805  14.804
14499SOL     OW45270   3.837   3.180  13.003
14499SOL    HW145271   3.925   3.214  12.988
14499SOL    HW245272   3.830   3.104  12.946
14500SOL     OW45273   5.127   9.268   4.317
14500SOL    HW145274   5.087   9.258   4.230
14500SOL    HW245275   5.054   9.282   4.376
14501SOL     OW45276  13.718   4.466   8.645
14501SOL    HW145277  13.633   4.459   8.602
14501SOL    HW245278  13.735   4.560   8.650
14502SOL     OW45279  14.115  13.200  10.349
14502SOL    HW145280  14.174  13.195  10.424
14502SOL    HW245281  14.031  13.169  10.382
14503SOL     OW45282   6.091  11.516   4.304
14503SOL    HW145283   6.165  11.499   4.245
14503SOL    HW245284   6.067  11.607   4.286
14504SOL     OW45285   8.076  12.386  11.228
14504SOL    HW145286   8.127  12.306  11.242
14504SOL    HW245287   8.001  12.358  11.176
14505SOL     OW45288   9.350  14.330   5.978
14505SOL    HW145289   9.433  14.358   6.017
14505SOL    HW245290   9.304  14.411   5.958
14506SOL     OW45291   9.348  14.822   0.972
14506SOL    HW145292   9.360  14.759   1.043
14506SOL    HW245293   9.327   0.027   1.017
14507SOL     OW45294  13.295  10.402  10.640
14507SOL    HW145295  13.218  10.431  10.688
14507SOL    HW245296  13.316  10.475  10.581
14508SOL     OW45297   4.005  14.162   1.571
14508SOL    HW145298   4.091  14.120   1.579
14508SOL    HW245299   3.966  14.155   1.658
14509SOL     OW45300   3.168   3.912   5.771
14509SOL    HW145301   3.138   3.977   5.708
14509SOL    HW245302   3.148   3.828   5.729
14510SOL     OW45303  13.261   9.091   3.420
14510SOL    HW145304  13.301   9.011   3.454
14510SOL    HW245305  13.286   9.159   3.482
14511SOL     OW45306   5.594   2.003   1.632
14511SOL    HW145307   5.553   2.079   1.674
14511SOL    HW245308   5.686   2.008   1.657
14512SOL     OW45309  10.444  13.715   9.988
14512SOL    HW145310  10.427  13.798  10.032
14512SOL    HW245311  10.453  13.652  10.060
14513SOL     OW45312  14.853   2.973  11.559
14513SOL    HW145313   0.056   3.016  11.586
14513SOL    HW245314  14.787   3.042  11.559
14514SOL     OW45315  12.566  13.397  14.850
14514SOL    HW145316  12.488  13.350   0.002
14514SOL    HW245317  12.632  13.379   0.039
14515SOL     OW45318   0.769   3.367   0.253
14515SOL    HW145319   0.792   3.340   0.342
14515SOL    HW245320   0.681   3.330   0.239
14516SOL     OW45321  13.895  11.128   2.810
14516SOL    HW145322  13.876  11.217   2.782
14516SOL    HW245323  13.868  11.073   2.737
14517SOL     OW45324   4.212   8.776   5.027
14517SOL    HW145325   4.286   8.773   4.966
14517SOL    HW245326   4.148   8.714   4.990
14518SOL     OW45327  11.038   8.014   7.465
14518SOL    HW145328  10.973   7.999   7.396
14518SOL    HW245329  11.075   7.927   7.483
14519SOL     OW45330   2.319  14.342   8.272
14519SOL    HW145331   2.265  14.281   8.321
14519SOL    HW245332   2.260  14.414   8.248
14520SOL     OW45333  14.581   5.837  14.488
14520SOL    HW145334  14.486   5.831  14.494
14520SOL    HW245335  14.601   5.926  14.518
14521SOL     OW45336   4.086   9.411   8.054
14521SOL    HW145337   4.101   9.337   7.996
14521SOL    HW245338   4.159   9.471   8.037
14522SOL     OW45339   2.837  11.837  12.444
14522SOL    HW145340   2.906  11.867  12.503
14522SOL    HW245341   2.765  11.812  12.503
14523SOL     OW45342  11.795  11.731  11.523
14523SOL    HW145343  11.746  11.657  11.558
14523SOL    HW245344  11.847  11.693  11.451
14524SOL     OW45345   0.295   9.181   2.584
14524SOL    HW145346   0.239   9.180   2.507
14524SOL    HW245347   0.239   9.154   2.656
14525SOL     OW45348   7.263   2.884   2.532
14525SOL    HW145349   7.245   2.964   2.482
14525SOL    HW245350   7.358   2.881   2.539
14526SOL     OW45351   8.881   7.608   2.015
14526SOL    HW145352   8.954   7.589   2.073
14526SOL    HW245353   8.852   7.695   2.041
14527SOL     OW45354   6.219   8.759  13.252
14527SOL    HW145355   6.284   8.695  13.221
14527SOL    HW245356   6.137   8.710  13.252
14528SOL     OW45357  14.407  11.458   4.751
14528SOL    HW145358  14.319  11.497   4.751
14528SOL    HW245359  14.393  11.368   4.780
14529SOL     OW45360   2.057   8.469   7.774
14529SOL    HW145361   2.095   8.431   7.695
14529SOL    HW245362   2.103   8.552   7.785
14530SOL     OW45363  11.582  10.725   6.022
14530SOL    HW145364  11.592  10.784   6.097
14530SOL    HW245365  11.488  10.724   6.004
14531SOL     OW45366   8.143  11.703   0.399
14531SOL    HW145367   8.216  11.699   0.461
14531SOL    HW245368   8.165  11.776   0.341
14532SOL     OW45369   7.037   1.983  12.201
14532SOL    HW145370   7.111   1.960  12.258
14532SOL    HW245371   7.073   1.981  12.113
14533SOL     OW45372   7.343  13.376   4.492
14533SOL    HW145373   7.258  13.363   4.451
14533SOL    HW245374   7.327  13.358   4.585
14534SOL     OW45375   6.500  11.029   8.713
14534SOL    HW145376   6.433  11.054   8.649
14534SOL    HW245377   6.542  11.111   8.737
14535SOL     OW45378  12.716  11.017   8.717
14535SOL    HW145379  12.689  11.006   8.808
14535SOL    HW245380  12.651  10.970   8.666
14536SOL     OW45381  11.983   9.427   3.499
14536SOL    HW145382  11.987   9.460   3.409
14536SOL    HW245383  11.899   9.381   3.504
14537SOL     OW45384  12.033   2.594   9.839
14537SOL    HW145385  12.006   2.647   9.914
14537SOL    HW245386  12.095   2.648   9.791
14538SOL     OW45387  11.451   3.002   2.766
14538SOL    HW145388  11.419   2.925   2.719
14538SOL    HW245389  11.543   2.984   2.781
14539SOL     OW45390   3.641  12.593  11.895
14539SOL    HW145391   3.716  12.644  11.923
14539SOL    HW245392   3.670  12.549  11.814
14540SOL     OW45393   9.870  14.238  14.651
14540SOL    HW145394   9.875  14.167  14.715
14540SOL    HW245395   9.908  14.201  14.571
14541SOL     OW45396   2.540   9.244  11.631
14541SOL    HW145397   2.471   9.208  11.688
14541SOL    HW245398   2.609   9.271  11.692
14542SOL     OW45399   0.072   7.292   3.405
14542SOL    HW145400  14.870   7.334   3.373
14542SOL    HW245401   0.079   7.320   3.497
14543SOL     OW45402   4.229   2.804   5.336
14543SOL    HW145403   4.262   2.741   5.400
14543SOL    HW245404   4.135   2.787   5.332
14544SOL     OW45405  14.014  14.683   6.386
14544SOL    HW145406  14.024  14.697   6.480
14544SOL    HW245407  13.980  14.594   6.379
14545SOL     OW45408   3.629   0.662   9.329
14545SOL    HW145409   3.645   0.617   9.246
14545SOL    HW245410   3.597   0.749   9.303
14546SOL     OW45411   9.190   2.632   3.916
14546SOL    HW145412   9.279   2.666   3.908
14546SOL    HW245413   9.201   2.548   3.961
14547SOL     OW45414   6.275  11.868  13.509
14547SOL    HW145415   6.314  11.784  13.536
14547SOL    HW245416   6.293  11.926  13.583
14548SOL     OW45417   8.040  10.218   1.918
14548SOL    HW145418   8.071  10.163   1.991
14548SOL    HW245419   8.117  10.269   1.893
14549SOL     OW45420   9.417   1.888   1.166
14549SOL    HW145421   9.344   1.829   1.188
14549SOL    HW245422   9.442   1.862   1.078
14550SOL     OW45423  11.637   7.811   2.785
14550SOL    HW145424  11.699   7.853   2.845
14550SOL    HW245425  11.662   7.845   2.698
14551SOL     OW45426   2.504  13.099  13.139
14551SOL    HW145427   2.553  13.176  13.111
14551SOL    HW245428   2.516  13.036  13.068
14552SOL     OW45429   8.822  11.179   4.742
14552SOL    HW145430   8.812  11.115   4.671
14552SOL    HW245431   8.810  11.128   4.822
14553SOL     OW45432   5.325   7.775   7.549
14553SOL    HW145433   5.368   7.763   7.634
14553SOL    HW245434   5.392   7.753   7.485
14554SOL     OW45435   6.492  10.498   4.008
14554SOL    HW145436   6.527  10.532   4.090
14554SOL    HW245437   6.454  10.413   4.032
14555SOL     OW45438   2.045   7.291   8.926
14555SOL    HW145439   2.123   7.317   8.877
14555SOL    HW245440   2.074   7.290   9.017
14556SOL     OW45441   3.858   8.810   0.133
14556SOL    HW145442   3.801   8.733   0.142
14556SOL    HW245443   3.946   8.774   0.129
14557SOL     OW45444   7.486   6.024  14.368
14557SOL    HW145445   7.462   6.091  14.304
14557SOL    HW245446   7.481   6.069  14.453
14558SOL     OW45447   7.817  10.490  13.271
14558SOL    HW145448   7.866  10.411  13.296
14558SOL    HW245449   7.817  10.488  13.175
14559SOL     OW45450  12.466   3.807   7.985
14559SOL    HW145451  12.528   3.768   8.047
14559SOL    HW245452  12.407   3.860   8.039
14560SOL     OW45453   2.099   6.066   8.446
14560SOL    HW145454   2.047   6.143   8.421
14560SOL    HW245455   2.076   6.051   8.538
14561SOL     OW45456  14.204  11.323  10.864
14561SOL    HW145457  14.215  11.348  10.773
14561SOL    HW245458  14.137  11.381  10.898
14562SOL     OW45459   9.383   7.720   3.726
14562SOL    HW145460   9.336   7.734   3.808
14562SOL    HW245461   9.334   7.651   3.681
14563SOL     OW45462   6.605   1.527   3.611
14563SOL    HW145463   6.688   1.517   3.658
14563SOL    HW245464   6.545   1.565   3.675
14564SOL     OW45465   0.695  11.973   7.735
14564SOL    HW145466   0.617  11.924   7.762
14564SOL    HW245467   0.667  12.065   7.739
14565SOL     OW45468  12.826   4.361   9.482
14565SOL    HW145469  12.859   4.429   9.540
14565SOL    HW245470  12.851   4.390   9.394
14566SOL     OW45471   4.028   9.775   1.221
14566SOL    HW145472   3.993   9.864   1.221
14566SOL    HW245473   3.997   9.737   1.304
14567SOL     OW45474  14.525  12.460  11.411
14567SOL    HW145475  14.514  12.383  11.356
14567SOL    HW245476  14.593  12.511  11.368
14568SOL     OW45477  13.225   9.411   0.757
14568SOL    HW145478  13.261   9.459   0.832
14568SOL    HW245479  13.302   9.386   0.706
14569SOL     OW45480   4.212   7.645   7.544
14569SOL    HW145481   4.131   7.612   7.582
14569SOL    HW245482   4.188   7.672   7.456
14570SOL     OW45483  14.456   0.513  12.775
14570SOL    HW145484  14.453   0.420  12.796
14570SOL    HW245485  14.493   0.553  12.854
14571SOL     OW45486   7.089   6.816   3.763
14571SOL    HW145487   7.142   6.818   3.843
14571SOL    HW245488   7.115   6.736   3.719
14572SOL     OW45489   4.246   1.729   3.045
14572SOL    HW145490   4.261   1.674   3.122
14572SOL    HW245491   4.265   1.672   2.971
14573SOL     OW45492  10.161   2.575   2.837
14573SOL    HW145493  10.160   2.481   2.858
14573SOL    HW245494  10.126   2.581   2.749
14574SOL     OW45495   6.639  10.155  14.262
14574SOL    HW145496   6.625  10.141  14.169
14574SOL    HW245497   6.620  10.071  14.303
14575SOL     OW45498   8.225  11.040   9.629
14575SOL    HW145499   8.293  11.096   9.666
14575SOL    HW245500   8.271  10.988   9.563
14576SOL     OW45501   2.278   7.349  13.202
14576SOL    HW145502   2.212   7.418  13.197
14576SOL    HW245503   2.346   7.385  13.258
14577SOL     OW45504  14.820   0.248  12.013
14577SOL    HW145505  14.800   0.311  11.945
14577SOL    HW245506  14.843   0.301  12.089
14578SOL     OW45507   9.327   6.539   4.223
14578SOL    HW145508   9.282   6.457   4.204
14578SOL    HW245509   9.406   6.536   4.168
14579SOL     OW45510  11.568  14.738   8.061
14579SOL    HW145511  11.608  14.759   8.145
14579SOL    HW245512  11.638  14.748   7.997
14580SOL     OW45513  11.682  11.072   8.601
14580SOL    HW145514  11.754  11.125   8.634
14580SOL    HW245515  11.603  11.122   8.623
14581SOL     OW45516   2.221   2.695  11.789
14581SOL    HW145517   2.142   2.732  11.829
14581SOL    HW245518   2.190   2.654  11.709
14582SOL     OW45519   3.015  10.419  10.573
14582SOL    HW145520   3.065  10.466  10.506
14582SOL    HW245521   3.048  10.454  10.656
14583SOL     OW45522   2.177  14.655  11.285
14583SOL    HW145523   2.248  14.705  11.325
14583SOL    HW245524   2.098  14.707  11.303
14584SOL     OW45525   7.753   1.127   0.894
14584SOL    HW145526   7.663   1.138   0.925
14584SOL    HW245527   7.785   1.050   0.941
14585SOL     OW45528   0.799  10.857   1.308
14585SOL    HW145529   0.752  10.776   1.292
14585SOL    HW245530   0.739  10.926   1.279
14586SOL     OW45531   5.841   3.386   7.782
14586SOL    HW145532   5.795   3.359   7.862
14586SOL    HW245533   5.933   3.390   7.809
14587SOL     OW45534  10.264   0.554   9.461
14587SOL    HW145535  10.283   0.557   9.367
14587SOL    HW245536  10.312   0.478   9.492
14588SOL     OW45537  10.397   9.227   3.301
14588SOL    HW145538  10.360   9.247   3.214
14588SOL    HW245539  10.367   9.299   3.356
14589SOL     OW45540   1.759   6.123  14.414
14589SOL    HW145541   1.804   6.132  14.498
14589SOL    HW245542   1.764   6.210  14.375
14590SOL     OW45543   3.191  12.173   4.175
14590SOL    HW145544   3.213  12.241   4.112
14590SOL    HW245545   3.275  12.135   4.200
14591SOL     OW45546   4.765  12.944  10.498
14591SOL    HW145547   4.791  13.019  10.444
14591SOL    HW245548   4.824  12.947  10.573
14592SOL     OW45549  10.843   2.320   2.311
14592SOL    HW145550  10.913   2.334   2.247
14592SOL    HW245551  10.888   2.286   2.389
14593SOL     OW45552  10.065   4.236  11.046
14593SOL    HW145553  10.049   4.166  10.982
14593SOL    HW245554   9.993   4.297  11.033
14594SOL     OW45555  14.552  10.209  12.470
14594SOL    HW145556  14.634  10.258  12.480
14594SOL    HW245557  14.524  10.225  12.380
14595SOL     OW45558   0.339   8.231   5.902
14595SOL    HW145559   0.416   8.281   5.874
14595SOL    HW245560   0.375   8.149   5.936
14596SOL     OW45561  14.416   1.538  10.246
14596SOL    HW145562  14.352   1.468  10.235
14596SOL    HW245563  14.420   1.552  10.341
14597SOL     OW45564   8.133   9.297  14.815
14597SOL    HW145565   8.088   9.259   0.013
14597SOL    HW245566   8.070   9.290  14.743
14598SOL     OW45567  12.718  14.389  12.269
14598SOL    HW145568  12.804  14.365  12.302
14598SOL    HW245569  12.684  14.310  12.227
14599SOL     OW45570   2.493   3.068  14.701
14599SOL    HW145571   2.496   3.160  14.726
14599SOL    HW245572   2.514   3.068  14.607
14600SOL     OW45573  14.244  13.886   4.754
14600SOL    HW145574  14.332  13.907   4.784
14600SOL    HW245575  14.205  13.838   4.827
14601SOL     OW45576  12.877  14.128  13.275
14601SOL    HW145577  12.927  14.204  13.244
14601SOL    HW245578  12.791  14.138  13.234
14602SOL     OW45579  12.620   8.827  12.416
14602SOL    HW145580  12.576   8.793  12.494
14602SOL    HW245581  12.600   8.763  12.348
14603SOL     OW45582  14.231  11.263   4.940
14603SOL    HW145583  14.159  11.326   4.938
14603SOL    HW245584  14.228  11.220   4.855
14604SOL     OW45585   0.862  10.419   1.207
14604SOL    HW145586   0.866  10.409   1.112
14604SOL    HW245587   0.794  10.358   1.235
14605SOL     OW45588   8.892   7.281   5.010
14605SOL    HW145589   8.968   7.332   5.038
14605SOL    HW245590   8.922   7.235   4.931
14606SOL     OW45591   5.137   0.122   2.518
14606SOL    HW145592   5.074   0.120   2.446
14606SOL    HW245593   5.181   0.206   2.509
14607SOL     OW45594  10.680   5.200   1.345
14607SOL    HW145595  10.716   5.287   1.358
14607SOL    HW245596  10.678   5.161   1.433
14608SOL     OW45597   1.594   7.432   6.908
14608SOL    HW145598   1.567   7.496   6.842
14608SOL    HW245599   1.513   7.387   6.932
14609SOL     OW45600   4.074   0.747  14.586
14609SOL    HW145601   4.151   0.793  14.554
14609SOL    HW245602   4.080   0.659  14.550
14610SOL     OW45603   8.154   7.036   2.444
14610SOL    HW145604   8.200   6.968   2.493
14610SOL    HW245605   8.096   7.077   2.509
14611SOL     OW45606   9.575   5.680   6.339
14611SOL    HW145607   9.652   5.729   6.367
14611SOL    HW245608   9.538   5.731   6.267
14612SOL     OW45609   4.616   3.969   1.275
14612SOL    HW145610   4.553   4.040   1.260
14612SOL    HW245611   4.648   3.947   1.188
14613SOL     OW45612   0.731  12.021   9.188
14613SOL    HW145613   0.683  12.104   9.190
14613SOL    HW245614   0.806  12.038   9.130
14614SOL     OW45615  12.964   9.522   6.329
14614SOL    HW145616  12.991   9.435   6.358
14614SOL    HW245617  12.890   9.505   6.271
14615SOL     OW45618  13.501   7.380   0.922
14615SOL    HW145619  13.584   7.343   0.952
14615SOL    HW245620  13.504   7.472   0.950
14616SOL     OW45621   4.806   5.411   4.007
14616SOL    HW145622   4.781   5.490   4.054
14616SOL    HW245623   4.763   5.340   4.054
14617SOL     OW45624   4.513   3.157   1.885
14617SOL    HW145625   4.514   3.108   1.803
14617SOL    HW245626   4.497   3.091   1.952
14618SOL     OW45627  12.646   8.709   2.359
14618SOL    HW145628  12.561   8.666   2.361
14618SOL    HW245629  12.709   8.638   2.373
14619SOL     OW45630  11.328   9.997  11.378
14619SOL    HW145631  11.293   9.923  11.329
14619SOL    HW245632  11.417  10.008  11.345
14620SOL     OW45633   4.873   8.885   5.573
14620SOL    HW145634   4.940   8.904   5.639
14620SOL    HW245635   4.912   8.814   5.521
14621SOL     OW45636   4.245   8.081   2.684
14621SOL    HW145637   4.195   8.035   2.752
14621SOL    HW245638   4.294   8.012   2.639
14622SOL     OW45639   0.407  11.174   9.335
14622SOL    HW145640   0.456  11.175   9.253
14622SOL    HW245641   0.470  11.204   9.401
14623SOL     OW45642   8.144  10.718   6.358
14623SOL    HW145643   8.211  10.750   6.298
14623SOL    HW245644   8.157  10.623   6.360
14624SOL     OW45645   1.169  11.094   6.330
14624SOL    HW145646   1.183  11.001   6.314
14624SOL    HW245647   1.098  11.118   6.270
14625SOL     OW45648   7.203   1.512   8.704
14625SOL    HW145649   7.250   1.507   8.621
14625SOL    HW245650   7.111   1.495   8.681
14626SOL     OW45651   1.350  13.038   3.142
14626SOL    HW145652   1.370  13.074   3.229
14626SOL    HW245653   1.393  13.098   3.081
14627SOL     OW45654   1.818  13.227   6.742
14627SOL    HW145655   1.911  13.244   6.757
14627SOL    HW245656   1.797  13.276   6.662
14628SOL     OW45657   3.919   1.381  12.469
14628SOL    HW145658   3.877   1.462  12.498
14628SOL    HW245659   4.009   1.406  12.449
14629SOL     OW45660   4.695  12.530   9.061
14629SOL    HW145661   4.779  12.552   9.100
14629SOL    HW245662   4.682  12.596   8.993
14630SOL     OW45663   6.622  12.309   0.126
14630SOL    HW145664   6.688  12.377   0.113
14630SOL    HW245665   6.594  12.320   0.217
14631SOL     OW45666  11.063   6.699   8.256
14631SOL    HW145667  11.034   6.731   8.170
14631SOL    HW245668  10.998   6.633   8.279
14632SOL     OW45669   1.786   0.840  13.939
14632SOL    HW145670   1.754   0.913  13.885
14632SOL    HW245671   1.881   0.847  13.933
14633SOL     OW45672   6.011  13.946   4.334
14633SOL    HW145673   5.930  13.983   4.298
14633SOL    HW245674   5.982  13.872   4.388
14634SOL     OW45675   5.455   6.984   2.266
14634SOL    HW145676   5.367   7.010   2.239
14634SOL    HW245677   5.498   7.065   2.292
14635SOL     OW45678  13.814   1.379   5.591
14635SOL    HW145679  13.750   1.445   5.616
14635SOL    HW245680  13.893   1.403   5.639
14636SOL     OW45681   9.046  14.694  10.253
14636SOL    HW145682   9.063  14.699  10.347
14636SOL    HW245683   9.019  14.782  10.228
14637SOL     OW45684   2.458   4.465   0.436
14637SOL    HW145685   2.527   4.516   0.394
14637SOL    HW245686   2.379   4.519   0.427
14638SOL     OW45687   8.953   0.094   8.029
14638SOL    HW145688   8.970   0.067   7.939
14638SOL    HW245689   9.027   0.151   8.052
14639SOL     OW45690   2.842  11.365   9.794
14639SOL    HW145691   2.840  11.457   9.766
14639SOL    HW245692   2.894  11.366   9.874
14640SOL     OW45693  11.463  13.097   3.190
14640SOL    HW145694  11.403  13.024   3.178
14640SOL    HW245695  11.507  13.078   3.273
14641SOL     OW45696  13.938   6.708   7.282
14641SOL    HW145697  14.006   6.749   7.335
14641SOL    HW245698  13.919   6.773   7.214
14642SOL     OW45699  14.869   9.556   6.122
14642SOL    HW145700   0.044   9.477   6.112
14642SOL    HW245701   0.052   9.620   6.161
14643SOL     OW45702   1.146   4.905   3.036
14643SOL    HW145703   1.227   4.903   2.984
14643SOL    HW245704   1.111   4.993   3.022
14644SOL     OW45705   3.223   1.939   5.392
14644SOL    HW145706   3.192   1.993   5.465
14644SOL    HW245707   3.265   2.000   5.332
14645SOL     OW45708   2.310   3.104  11.260
14645SOL    HW145709   2.340   3.034  11.202
14645SOL    HW245710   2.313   3.066  11.347
14646SOL     OW45711  10.398   8.991   4.014
14646SOL    HW145712  10.417   8.903   4.046
14646SOL    HW245713  10.480   9.039   4.023
14647SOL     OW45714  12.412   9.380   0.254
14647SOL    HW145715  12.433   9.419   0.339
14647SOL    HW245716  12.423   9.286   0.267
14648SOL     OW45717   9.532   0.039   0.733
14648SOL    HW145718   9.452   0.011   0.777
14648SOL    HW245719   9.519   0.016   0.641
14649SOL     OW45720   7.291  13.449   5.983
14649SOL    HW145721   7.274  13.398   6.062
14649SOL    HW245722   7.373  13.414   5.948
14650SOL     OW45723   9.807   0.992  14.048
14650SOL    HW145724   9.877   0.990  14.113
14650SOL    HW245725   9.774   0.902  14.044
14651SOL     OW45726   3.301   7.180   7.950
14651SOL    HW145727   3.278   7.131   8.029
14651SOL    HW245728   3.385   7.221   7.972
14652SOL     OW45729   9.895   0.637  12.038
14652SOL    HW145730   9.946   0.576  12.092
14652SOL    HW245731   9.843   0.687  12.101
14653SOL     OW45732   6.855   3.869   0.217
14653SOL    HW145733   6.874   3.885   0.309
14653SOL    HW245734   6.939   3.878   0.173
14654SOL     OW45735   4.630   8.345   4.190
14654SOL    HW145736   4.560   8.342   4.125
14654SOL    HW245737   4.587   8.378   4.269
14655SOL     OW45738   6.805   5.441   0.889
14655SOL    HW145739   6.820   5.534   0.907
14655SOL    HW245740   6.802   5.401   0.975
14656SOL     OW45741  13.731   0.026  10.123
14656SOL    HW145742  13.762  14.818  10.155
14656SOL    HW245743  13.679   0.061  10.196
14657SOL     OW45744   5.458   7.725   4.109
14657SOL    HW145745   5.540   7.737   4.062
14657SOL    HW245746   5.484   7.730   4.202
14658SOL     OW45747   3.289   5.544   4.729
14658SOL    HW145748   3.241   5.549   4.811
14658SOL    HW245749   3.370   5.498   4.751
14659SOL     OW45750  11.566   6.558   6.888
14659SOL    HW145751  11.536   6.639   6.848
14659SOL    HW245752  11.630   6.585   6.954
14660SOL     OW45753   6.315   3.681  12.650
14660SOL    HW145754   6.322   3.595  12.609
14660SOL    HW245755   6.355   3.741  12.587
14661SOL     OW45756   9.899   5.520   1.566
14661SOL    HW145757   9.888   5.437   1.613
14661SOL    HW245758   9.954   5.573   1.624
14662SOL     OW45759  11.902  11.491  13.326
14662SOL    HW145760  11.933  11.524  13.241
14662SOL    HW245761  11.876  11.400  13.308
14663SOL     OW45762   0.971  10.088   8.443
14663SOL    HW145763   0.889  10.092   8.394
14663SOL    HW245764   0.947  10.116   8.532
14664SOL     OW45765  13.443   0.578   3.472
14664SOL    HW145766  13.461   0.542   3.559
14664SOL    HW245767  13.515   0.546   3.417
14665SOL     OW45768  10.356  12.486  12.660
14665SOL    HW145769  10.304  12.406  12.657
14665SOL    HW245770  10.311  12.541  12.725
14666SOL     OW45771   8.493  12.457   0.988
14666SOL    HW145772   8.458  12.543   1.009
14666SOL    HW245773   8.472  12.403   1.065
14667SOL     OW45774  12.051   1.413   1.465
14667SOL    HW145775  12.108   1.346   1.503
14667SOL    HW245776  12.052   1.484   1.529
14668SOL     OW45777   3.765   8.377   3.118
14668SOL    HW145778   3.834   8.434   3.151
14668SOL    HW245779   3.810   8.318   3.057
14669SOL     OW45780  10.668  12.669   7.240
14669SOL    HW145781  10.745  12.686   7.186
14669SOL    HW245782  10.700  12.675   7.330
14670SOL     OW45783   6.049  10.802   9.038
14670SOL    HW145784   6.011  10.792   9.125
14670SOL    HW245785   6.139  10.831   9.054
14671SOL     OW45786   6.303  13.607  14.253
14671SOL    HW145787   6.298  13.698  14.281
14671SOL    HW245788   6.217  13.571  14.273
14672SOL     OW45789   5.644   7.733   7.598
14672SOL    HW145790   5.573   7.694   7.650
14672SOL    HW245791   5.622   7.710   7.508
14673SOL     OW45792  14.356  11.351  12.809
14673SOL    HW145793  14.355  11.446  12.797
14673SOL    HW245794  14.330  11.338  12.900
14674SOL     OW45795   5.714  11.112   7.219
14674SOL    HW145796   5.774  11.130   7.291
14674SOL    HW245797   5.749  11.034   7.178
14675SOL     OW45798   5.371  13.952   9.912
14675SOL    HW145799   5.455  13.939   9.868
14675SOL    HW245800   5.391  14.010   9.986
14676SOL     OW45801   3.841   4.671   2.703
14676SOL    HW145802   3.857   4.732   2.631
14676SOL    HW245803   3.926   4.630   2.718
14677SOL     OW45804   7.324   9.532  11.689
14677SOL    HW145805   7.375   9.450  11.686
14677SOL    HW245806   7.389   9.599  11.709
14678SOL     OW45807   9.219  14.689  14.167
14678SOL    HW145808   9.168  14.609  14.174
14678SOL    HW245809   9.215  14.713  14.075
14679SOL     OW45810  11.980   8.375   9.004
14679SOL    HW145811  11.898   8.324   9.011
14679SOL    HW245812  11.961   8.441   8.938
14680SOL     OW45813  14.772   2.343   6.374
14680SOL    HW145814  14.728   2.404   6.433
14680SOL    HW245815  14.858   2.381   6.358
14681SOL     OW45816   0.268   8.490  13.555
14681SOL    HW145817   0.210   8.485  13.479
14681SOL    HW245818   0.254   8.409  13.602
14682SOL     OW45819   4.057  10.055   5.406
14682SOL    HW145820   4.114  10.086   5.336
14682SOL    HW245821   3.980  10.112   5.401
14683SOL     OW45822  14.124   9.891   8.899
14683SOL    HW145823  14.135   9.797   8.913
14683SOL    HW245824  14.186   9.932   8.959
14684SOL     OW45825  13.102   5.490  11.897
14684SOL    HW145826  13.083   5.551  11.968
14684SOL    HW245827  13.198   5.493  11.888
14685SOL     OW45828   1.781   0.981  12.350
14685SOL    HW145829   1.700   0.974  12.400
14685SOL    HW245830   1.755   0.960  12.260
14686SOL     OW45831   5.780  12.719   3.780
14686SOL    HW145832   5.739  12.764   3.705
14686SOL    HW245833   5.708  12.673   3.822
14687SOL     OW45834  10.174   3.877  10.773
14687SOL    HW145835  10.181   3.962  10.728
14687SOL    HW245836  10.164   3.900  10.865
14688SOL     OW45837   0.099   2.715   6.959
14688SOL    HW145838   0.018   2.668   6.978
14688SOL    HW245839   0.146   2.659   6.898
14689SOL     OW45840   1.317   3.750  10.673
14689SOL    HW145841   1.383   3.719  10.735
14689SOL    HW245842   1.281   3.670  10.634
14690SOL     OW45843   5.222   4.517  12.872
14690SOL    HW145844   5.234   4.443  12.813
14690SOL    HW245845   5.295   4.511  12.934
14691SOL     OW45846   7.903   6.460   8.296
14691SOL    HW145847   7.839   6.453   8.367
14691SOL    HW245848   7.870   6.531   8.241
14692SOL     OW45849   5.837  14.063   2.668
14692SOL    HW145850   5.899  14.004   2.624
14692SOL    HW245851   5.824  14.135   2.606
14693SOL     OW45852   5.796   6.358   1.769
14693SOL    HW145853   5.888   6.368   1.793
14693SOL    HW245854   5.748   6.392   1.844
14694SOL     OW45855  14.255   0.190  11.353
14694SOL    HW145856  14.303   0.152  11.279
14694SOL    HW245857  14.243   0.282  11.329
14695SOL     OW45858   9.134   4.780   1.996
14695SOL    HW145859   9.156   4.770   2.089
14695SOL    HW245860   9.138   4.692   1.961
14696SOL     OW45861  14.448   8.965  14.323
14696SOL    HW145862  14.458   8.874  14.296
14696SOL    HW245863  14.493   9.015  14.255
14697SOL     OW45864   1.810   7.670   6.802
14697SOL    HW145865   1.741   7.702   6.859
14697SOL    HW245866   1.801   7.574   6.805
14698SOL     OW45867   2.379   7.258   0.385
14698SOL    HW145868   2.448   7.222   0.328
14698SOL    HW245869   2.379   7.201   0.462
14699SOL     OW45870   6.040   9.335  14.325
14699SOL    HW145871   6.117   9.390  14.339
14699SOL    HW245872   6.074   9.257  14.281
14700SOL     OW45873  14.661  13.850   9.479
14700SOL    HW145874  14.622  13.874   9.395
14700SOL    HW245875  14.705  13.929   9.510
14701SOL     OW45876  12.160   9.006  10.461
14701SOL    HW145877  12.078   9.016  10.414
14701SOL    HW245878  12.220   8.968  10.396
14702SOL     OW45879   5.460   2.392  10.793
14702SOL    HW145880   5.387   2.434  10.838
14702SOL    HW245881   5.464   2.435  10.707
14703SOL     OW45882   2.159   8.868   8.670
14703SOL    HW145883   2.125   8.839   8.754
14703SOL    HW245884   2.197   8.790   8.630
14704SOL     OW45885   7.108  13.718   1.381
14704SOL    HW145886   7.072  13.756   1.461
14704SOL    HW245887   7.184  13.667   1.411
14705SOL     OW45888   2.526   1.056  13.047
14705SOL    HW145889   2.442   1.097  13.026
14705SOL    HW245890   2.504   0.985  13.107
14706SOL     OW45891   3.674   7.256   1.811
14706SOL    HW145892   3.685   7.248   1.716
14706SOL    HW245893   3.736   7.324   1.836
14707SOL     OW45894   1.250   2.019   6.737
14707SOL    HW145895   1.183   1.961   6.702
14707SOL    HW245896   1.333   1.978   6.711
14708SOL     OW45897   6.778   3.744   8.354
14708SOL    HW145898   6.834   3.684   8.404
14708SOL    HW245899   6.711   3.771   8.417
14709SOL     OW45900   7.602   1.417   0.638
14709SOL    HW145901   7.517   1.434   0.598
14709SOL    HW245902   7.660   1.401   0.564
14710SOL     OW45903   7.880  12.009   7.998
14710SOL    HW145904   7.884  11.914   8.005
14710SOL    HW245905   7.792  12.027   7.964
14711SOL     OW45906   3.570   4.817   3.403
14711SOL    HW145907   3.503   4.885   3.408
14711SOL    HW245908   3.634   4.841   3.470
14712SOL     OW45909   6.586   8.770  10.202
14712SOL    HW145910   6.537   8.851  10.215
14712SOL    HW245911   6.587   8.728  10.288
14713SOL     OW45912   7.088   4.611   6.584
14713SOL    HW145913   7.026   4.548   6.547
14713SOL    HW245914   7.035   4.687   6.606
14714SOL     OW45915  11.931   9.905   9.254
14714SOL    HW145916  11.930   9.985   9.203
14714SOL    HW245917  11.913   9.835   9.191
14715SOL     OW45918  13.724   0.654   8.002
14715SOL    HW145919  13.689   0.566   8.016
14715SOL    HW245920  13.663   0.694   7.940
14716SOL     OW45921   9.663   6.248   3.511
14716SOL    HW145922   9.702   6.194   3.579
14716SOL    HW245923   9.737   6.279   3.459
14717SOL     OW45924   6.795  10.111   0.927
14717SOL    HW145925   6.732  10.069   0.869
14717SOL    HW245926   6.742  10.150   0.996
14718SOL     OW45927   7.255   5.449   3.163
14718SOL    HW145928   7.274   5.463   3.255
14718SOL    HW245929   7.227   5.535   3.131
14719SOL     OW45930  10.249   5.421  13.791
14719SOL    HW145931  10.248   5.476  13.712
14719SOL    HW245932  10.163   5.436  13.830
14720SOL     OW45933   3.202   7.268   1.994
14720SOL    HW145934   3.270   7.330   1.967
14720SOL    HW245935   3.245   7.214   2.060
14721SOL     OW45936   8.642   6.217  12.717
14721SOL    HW145937   8.604   6.298  12.751
14721SOL    HW245938   8.590   6.147  12.757
14722SOL     OW45939   4.895   9.576   3.576
14722SOL    HW145940   4.845   9.635   3.632
14722SOL    HW245941   4.863   9.593   3.487
14723SOL     OW45942   3.724  12.076   0.365
14723SOL    HW145943   3.727  12.151   0.305
14723SOL    HW245944   3.791  12.016   0.332
14724SOL     OW45945   1.644   3.281   9.460
14724SOL    HW145946   1.648   3.291   9.555
14724SOL    HW245947   1.732   3.253   9.435
14725SOL     OW45948   4.451   6.207   7.105
14725SOL    HW145949   4.482   6.225   7.194
14725SOL    HW245950   4.528   6.218   7.050
14726SOL     OW45951  12.434   6.836   9.641
14726SOL    HW145952  12.477   6.763   9.685
14726SOL    HW245953  12.471   6.837   9.553
14727SOL     OW45954   5.436   0.650   4.291
14727SOL    HW145955   5.420   0.735   4.333
14727SOL    HW245956   5.466   0.672   4.203
14728SOL     OW45957   4.836  13.325   0.388
14728SOL    HW145958   4.752  13.311   0.432
14728SOL    HW245959   4.900  13.325   0.459
14729SOL     OW45960  14.703   7.657   0.918
14729SOL    HW145961  14.748   7.739   0.900
14729SOL    HW245962  14.664   7.669   1.005
14730SOL     OW45963   4.010   5.685  12.273
14730SOL    HW145964   3.937   5.741  12.245
14730SOL    HW245965   3.977   5.639  12.350
14731SOL     OW45966   6.387   7.025   4.739
14731SOL    HW145967   6.362   6.957   4.801
14731SOL    HW245968   6.429   7.092   4.792
14732SOL     OW45969  13.184   9.795  10.513
14732SOL    HW145970  13.249   9.857  10.480
14732SOL    HW245971  13.235   9.718  10.537
14733SOL     OW45972  11.574   3.242   0.966
14733SOL    HW145973  11.656   3.195   0.951
14733SOL    HW245974  11.600   3.334   0.973
14734SOL     OW45975   5.995  11.937  14.199
14734SOL    HW145976   5.975  11.926  14.291
14734SOL    HW245977   5.932  12.003  14.168
14735SOL     OW45978  11.957   4.146   1.484
14735SOL    HW145979  12.037   4.193   1.459
14735SOL    HW245980  11.898   4.216   1.512
14736SOL     OW45981   0.912   1.544   5.928
14736SOL    HW145982   0.836   1.598   5.950
14736SOL    HW245983   0.978   1.606   5.897
14737SOL     OW45984  14.609   0.791  11.488
14737SOL    HW145985  14.657   0.779  11.406
14737SOL    HW245986  14.603   0.886  11.498
14738SOL     OW45987  13.693   6.729   3.864
14738SOL    HW145988  13.675   6.697   3.952
14738SOL    HW245989  13.625   6.688   3.810
14739SOL     OW45990   6.763   6.161   8.792
14739SOL    HW145991   6.820   6.107   8.846
14739SOL    HW245992   6.720   6.219   8.854
14740SOL     OW45993  13.880  11.642   7.158
14740SOL    HW145994  13.954  11.582   7.159
14740SOL    HW245995  13.821  11.605   7.091
14741SOL     OW45996  14.014  10.441   2.178
14741SOL    HW145997  14.081  10.380   2.149
14741SOL    HW245998  14.014  10.510   2.112
14742SOL     OW45999   7.401   7.774  10.380
14742SOL    HW146000   7.433   7.860  10.350
14742SOL    HW246001   7.339   7.795  10.450
14743SOL     OW46002   2.191   8.836  14.285
14743SOL    HW146003   2.159   8.750  14.311
14743SOL    HW246004   2.286   8.828  14.284
14744SOL     OW46005   8.247  13.324   2.475
14744SOL    HW146006   8.200  13.328   2.558
14744SOL    HW246007   8.180  13.305   2.409
14745SOL     OW46008  13.911   2.209  12.990
14745SOL    HW146009  13.870   2.235  12.908
14745SOL    HW246010  14.004   2.199  12.970
14746SOL     OW46011  10.040  12.876   3.854
14746SOL    HW146012   9.989  12.806   3.813
14746SOL    HW246013   9.976  12.925   3.906
14747SOL     OW46014  11.551   4.094   8.674
14747SOL    HW146015  11.577   4.170   8.623
14747SOL    HW246016  11.507   4.130   8.751
14748SOL     OW46017   1.054   6.838   9.977
14748SOL    HW146018   1.113   6.895  10.026
14748SOL    HW246019   1.025   6.891   9.903
14749SOL     OW46020   3.110  11.661   3.215
14749SOL    HW146021   3.051  11.734   3.199
14749SOL    HW246022   3.078  11.590   3.159
14750SOL     OW46023   5.869  14.350   4.371
14750SOL    HW146024   5.935  14.287   4.400
14750SOL    HW246025   5.912  14.403   4.305
14751SOL     OW46026  10.993  12.322   1.407
14751SOL    HW146027  10.935  12.261   1.454
14751SOL    HW246028  10.971  12.408   1.444
14752SOL     OW46029   5.238  13.732   5.976
14752SOL    HW146030   5.332  13.740   5.963
14752SOL    HW246031   5.213  13.810   6.026
14753SOL     OW46032   8.228   8.418  12.938
14753SOL    HW146033   8.147   8.400  12.986
14753SOL    HW246034   8.231   8.350  12.870
14754SOL     OW46035   8.625   7.230  10.919
14754SOL    HW146036   8.572   7.156  10.889
14754SOL    HW246037   8.680   7.193  10.988
14755SOL     OW46038   5.376  11.454  13.936
14755SOL    HW146039   5.441  11.383  13.933
14755SOL    HW246040   5.365  11.473  14.029
14756SOL     OW46041   8.392  11.291  13.348
14756SOL    HW146042   8.331  11.251  13.286
14756SOL    HW246043   8.472  11.239  13.340
14757SOL     OW46044  13.505  13.702   8.365
14757SOL    HW146045  13.449  13.777   8.342
14757SOL    HW246046  13.453  13.625   8.342
14758SOL     OW46047   7.995   7.058  10.832
14758SOL    HW146048   7.919   7.108  10.860
14758SOL    HW246049   8.070   7.112  10.858
14759SOL     OW46050  12.320   4.744  13.482
14759SOL    HW146051  12.235   4.715  13.447
14759SOL    HW246052  12.302   4.829  13.522
14760SOL     OW46053   0.810  14.394  10.999
14760SOL    HW146054   0.724  14.433  10.985
14760SOL    HW246055   0.808  14.364  11.090
14761SOL     OW46056   0.486   6.737  10.439
14761SOL    HW146057   0.521   6.703  10.357
14761SOL    HW246058   0.395   6.758  10.420
14762SOL     OW46059   8.510   6.078   5.778
14762SOL    HW146060   8.603   6.100   5.778
14762SOL    HW246061   8.469   6.147   5.829
14763SOL     OW46062   0.670   8.341  11.474
14763SOL    HW146063   0.611   8.266  11.481
14763SOL    HW246064   0.642   8.400  11.544
14764SOL     OW46065   9.669  12.967   8.313
14764SOL    HW146066   9.587  13.015   8.327
14764SOL    HW246067   9.680  12.916   8.393
14765SOL     OW46068   4.234  13.065  14.683
14765SOL    HW146069   4.180  13.063  14.762
14765SOL    HW246070   4.319  13.032  14.712
14766SOL     OW46071   0.765   9.951  11.980
14766SOL    HW146072   0.755   9.948  12.075
14766SOL    HW246073   0.851   9.991  11.966
14767SOL     OW46074   7.053  10.468   3.288
14767SOL    HW146075   6.988  10.494   3.223
14767SOL    HW246076   7.133  10.452   3.238
14768SOL     OW46077  14.735  14.024   0.487
14768SOL    HW146078  14.810  13.967   0.506
14768SOL    HW246079  14.753  14.104   0.537
14769SOL     OW46080   0.254   1.084   4.305
14769SOL    HW146081   0.286   1.095   4.215
14769SOL    HW246082   0.296   1.003   4.335
14770SOL     OW46083   9.124   1.769  10.922
14770SOL    HW146084   9.147   1.752  11.014
14770SOL    HW246085   9.206   1.797  10.882
14771SOL     OW46086  14.243  11.639  12.789
14771SOL    HW146087  14.313  11.701  12.772
14771SOL    HW246088  14.169  11.672  12.738
14772SOL     OW46089   8.204   5.389  13.869
14772SOL    HW146090   8.140   5.458  13.853
14772SOL    HW246091   8.246   5.414  13.951
14773SOL     OW46092   9.058   8.465  13.079
14773SOL    HW146093   8.994   8.529  13.108
14773SOL    HW246094   9.071   8.484  12.986
14774SOL     OW46095  13.281   1.294   5.098
14774SOL    HW146096  13.186   1.294   5.090
14774SOL    HW246097  13.298   1.333   5.184
14775SOL     OW46098  10.031  12.114  10.169
14775SOL    HW146099  10.105  12.058  10.192
14775SOL    HW246100   9.960  12.052  10.152
14776SOL     OW46101   7.326   1.193   1.935
14776SOL    HW146102   7.260   1.253   1.900
14776SOL    HW246103   7.370   1.157   1.858
14777SOL     OW46104   3.429   9.200  11.110
14777SOL    HW146105   3.389   9.148  11.039
14777SOL    HW246106   3.404   9.290  11.090
14778SOL     OW46107   3.958   0.881  11.853
14778SOL    HW146108   3.877   0.831  11.841
14778SOL    HW246109   3.984   0.862  11.943
14779SOL     OW46110  10.717  12.092   8.446
14779SOL    HW146111  10.749  12.086   8.356
14779SOL    HW246112  10.786  12.138   8.493
14780SOL     OW46113  12.298   1.252   8.402
14780SOL    HW146114  12.228   1.291   8.348
14780SOL    HW246115  12.370   1.238   8.340
14781SOL     OW46116   3.461  13.759   6.536
14781SOL    HW146117   3.480  13.718   6.452
14781SOL    HW246118   3.486  13.851   6.525
14782SOL     OW46119   2.925   7.753   0.497
14782SOL    HW146120   2.981   7.812   0.547
14782SOL    HW246121   2.868   7.713   0.563
14783SOL     OW46122  10.395   2.373  14.277
14783SOL    HW146123  10.395   2.290  14.230
14783SOL    HW246124  10.479   2.376  14.322
14784SOL     OW46125   2.625  13.686   1.793
14784SOL    HW146126   2.716  13.661   1.811
14784SOL    HW246127   2.578  13.659   1.872
14785SOL     OW46128  10.840  14.679   7.426
14785SOL    HW146129  10.834  14.774   7.429
14785SOL    HW246130  10.897  14.660   7.351
14786SOL     OW46131  11.358   3.854   5.515
14786SOL    HW146132  11.294   3.824   5.579
14786SOL    HW246133  11.408   3.775   5.492
14787SOL     OW46134  13.608  12.857   6.130
14787SOL    HW146135  13.521  12.859   6.171
14787SOL    HW246136  13.622  12.947   6.099
14788SOL     OW46137  11.398   5.432   6.372
14788SOL    HW146138  11.426   5.400   6.458
14788SOL    HW246139  11.303   5.440   6.379
14789SOL     OW46140   6.815   6.838   5.236
14789SOL    HW146141   6.882   6.864   5.173
14789SOL    HW246142   6.861   6.832   5.320
14790SOL     OW46143  12.288   2.213   7.356
14790SOL    HW146144  12.307   2.161   7.278
14790SOL    HW246145  12.276   2.149   7.425
14791SOL     OW46146   5.238  14.368   4.626
14791SOL    HW146147   5.238  14.277   4.656
14791SOL    HW246148   5.330  14.385   4.605
14792SOL     OW46149   5.929  14.424   7.763
14792SOL    HW146150   5.903  14.385   7.680
14792SOL    HW246151   6.024  14.415   7.765
14793SOL     OW46152   6.258  12.918  13.436
14793SOL    HW146153   6.351  12.928  13.456
14793SOL    HW246154   6.214  12.982  13.493
14794SOL     OW46155   8.067   9.908   7.763
14794SOL    HW146156   8.059   9.904   7.667
14794SOL    HW246157   8.043   9.998   7.785
14795SOL     OW46158  13.182   3.212  10.548
14795SOL    HW146159  13.176   3.139  10.486
14795SOL    HW246160  13.097   3.255  10.542
14796SOL     OW46161   1.686   9.330   3.308
14796SOL    HW146162   1.695   9.324   3.213
14796SOL    HW246163   1.603   9.377   3.322
14797SOL     OW46164   6.298   6.120   9.256
14797SOL    HW146165   6.279   6.036   9.216
14797SOL    HW246166   6.256   6.117   9.341
14798SOL     OW46167   9.314   9.003   7.235
14798SOL    HW146168   9.354   9.064   7.298
14798SOL    HW246169   9.282   9.060   7.165
14799SOL     OW46170   3.940  14.515  11.024
14799SOL    HW146171   3.995  14.457  11.075
14799SOL    HW246172   3.852  14.504  11.061
14800SOL     OW46173  13.854  12.578   9.314
14800SOL    HW146174  13.767  12.609   9.338
14800SOL    HW246175  13.914  12.628   9.369
14801SOL     OW46176   2.304  11.056   1.722
14801SOL    HW146177   2.245  10.985   1.699
14801SOL    HW246178   2.377  11.012   1.766
14802SOL     OW46179   1.506  11.614  12.122
14802SOL    HW146180   1.597  11.607  12.149
14802SOL    HW246181   1.504  11.578  12.033
14803SOL     OW46182   4.143   2.765  10.938
14803SOL    HW146183   4.141   2.792  10.847
14803SOL    HW246184   4.211   2.698  10.943
14804SOL     OW46185  12.167   2.463   6.573
14804SOL    HW146186  12.189   2.398   6.640
14804SOL    HW246187  12.081   2.436   6.542
14805SOL     OW46188  12.595   4.701   9.466
14805SOL    HW146189  12.551   4.670   9.545
14805SOL    HW246190  12.616   4.793   9.485
14806SOL     OW46191   7.265  13.149   3.295
14806SOL    HW146192   7.356  13.120   3.287
14806SOL    HW246193   7.214  13.076   3.260
14807SOL     OW46194   8.533   6.885   2.339
14807SOL    HW146195   8.461   6.886   2.276
14807SOL    HW246196   8.532   6.972   2.378
14808SOL     OW46197   9.635   5.678  14.816
14808SOL    HW146198   9.636   5.646  14.726
14808SOL    HW246199   9.596   5.606  14.867
14809SOL     OW46200   5.150   9.245   1.739
14809SOL    HW146201   5.056   9.227   1.744
14809SOL    HW246202   5.168   9.297   1.817
14810SOL     OW46203   5.997   4.348  14.390
14810SOL    HW146204   5.945   4.313  14.463
14810SOL    HW246205   6.060   4.278  14.370
14811SOL     OW46206   1.594   5.505   1.370
14811SOL    HW146207   1.524   5.459   1.324
14811SOL    HW246208   1.549   5.558   1.436
14812SOL     OW46209  13.070   6.871   5.979
14812SOL    HW146210  12.984   6.829   5.987
14812SOL    HW246211  13.093   6.894   6.069
14813SOL     OW46212   6.341   7.624   5.669
14813SOL    HW146213   6.426   7.640   5.630
14813SOL    HW246214   6.357   7.561   5.740
14814SOL     OW46215   0.652  12.415  12.070
14814SOL    HW146216   0.581  12.366  12.029
14814SOL    HW246217   0.664  12.372  12.155
14815SOL     OW46218   6.875  14.338   0.823
14815SOL    HW146219   6.969  14.339   0.807
14815SOL    HW246220   6.853  14.430   0.841
14816SOL     OW46221   0.485   4.125  13.705
14816SOL    HW146222   0.409   4.074  13.732
14816SOL    HW246223   0.508   4.175  13.783
14817SOL     OW46224   1.571   9.497   4.481
14817SOL    HW146225   1.548   9.554   4.555
14817SOL    HW246226   1.657   9.462   4.504
14818SOL     OW46227   3.235   7.572   7.189
14818SOL    HW146228   3.245   7.477   7.181
14818SOL    HW246229   3.152   7.591   7.145
14819SOL     OW46230   6.275   7.991   7.808
14819SOL    HW146231   6.228   7.932   7.866
14819SOL    HW246232   6.367   7.983   7.835
14820SOL     OW46233  13.580   7.193   7.334
14820SOL    HW146234  13.551   7.128   7.398
14820SOL    HW246235  13.523   7.269   7.351
14821SOL     OW46236  11.637   0.200  14.730
14821SOL    HW146237  11.575   0.222  14.799
14821SOL    HW246238  11.712   0.162  14.776
14822SOL     OW46239  14.536  12.878   0.793
14822SOL    HW146240  14.560  12.970   0.809
14822SOL    HW246241  14.456  12.883   0.741
14823SOL     OW46242   8.993   6.263  14.224
14823SOL    HW146243   9.057   6.334  14.222
14823SOL    HW246244   8.957   6.261  14.136
14824SOL     OW46245   1.299   1.908   4.328
14824SOL    HW146246   1.207   1.915   4.300
14824SOL    HW246247   1.348   1.957   4.263
14825SOL     OW46248  10.960   0.454  14.009
14825SOL    HW146249  11.034   0.451  14.070
14825SOL    HW246250  10.990   0.404  13.934
14826SOL     OW46251   9.346   1.490  10.952
14826SOL    HW146252   9.399   1.505  11.030
14826SOL    HW246253   9.301   1.573  10.938
14827SOL     OW46254   4.251   7.328   2.592
14827SOL    HW146255   4.163   7.365   2.591
14827SOL    HW246256   4.303   7.388   2.539
14828SOL     OW46257   1.033  13.281  11.297
14828SOL    HW146258   0.954  13.266  11.247
14828SOL    HW246259   1.043  13.202  11.351
14829SOL     OW46260   0.057   6.104   6.243
14829SOL    HW146261   0.150   6.086   6.260
14829SOL    HW246262   0.046   6.197   6.266
14830SOL     OW46263  14.685   3.171  11.678
14830SOL    HW146264  14.628   3.114  11.626
14830SOL    HW246265  14.728   3.112  11.740
14831SOL     OW46266   3.377   0.321  11.082
14831SOL    HW146267   3.430   0.243  11.097
14831SOL    HW246268   3.412   0.386  11.144
14832SOL     OW46269  12.530   5.888  13.218
14832SOL    HW146270  12.463   5.843  13.270
14832SOL    HW246271  12.541   5.833  13.140
14833SOL     OW46272   9.434  10.498   3.583
14833SOL    HW146273   9.340  10.510   3.566
14833SOL    HW246274   9.478  10.551   3.517
14834SOL     OW46275   9.325   8.495   4.919
14834SOL    HW146276   9.418   8.476   4.908
14834SOL    HW246277   9.280   8.429   4.866
14835SOL     OW46278   2.955  11.876   5.999
14835SOL    HW146279   2.886  11.926   6.043
14835SOL    HW246280   2.980  11.930   5.924
14836SOL     OW46281  12.092  14.169  12.327
14836SOL    HW146282  12.078  14.151  12.420
14836SOL    HW246283  12.078  14.264  12.319
14837SOL     OW46284  13.510  11.140  12.391
14837SOL    HW146285  13.551  11.177  12.312
14837SOL    HW246286  13.564  11.171  12.463
14838SOL     OW46287   1.030   5.372   0.911
14838SOL    HW146288   1.026   5.317   0.989
14838SOL    HW246289   1.117   5.412   0.914
14839SOL     OW46290  12.474  11.880  14.510
14839SOL    HW146291  12.546  11.859  14.570
14839SOL    HW246292  12.412  11.809  14.521
14840SOL     OW46293  10.897  13.438  12.066
14840SOL    HW146294  10.973  13.397  12.025
14840SOL    HW246295  10.845  13.364  12.099
14841SOL     OW46296  11.684   3.347   2.183
14841SOL    HW146297  11.672   3.253   2.201
14841SOL    HW246298  11.600   3.375   2.147
14842SOL     OW46299   7.653   0.646   7.653
14842SOL    HW146300   7.594   0.669   7.581
14842SOL    HW246301   7.594   0.619   7.724
14843SOL     OW46302   0.966   5.027   7.343
14843SOL    HW146303   0.916   5.103   7.372
14843SOL    HW246304   1.026   5.061   7.277
14844SOL     OW46305  13.985  14.644   8.643
14844SOL    HW146306  14.079  14.624   8.646
14844SOL    HW246307  13.968  14.668   8.552
14845SOL     OW46308   4.326  10.846   0.156
14845SOL    HW146309   4.265  10.874   0.087
14845SOL    HW246310   4.272  10.843   0.235
14846SOL     OW46311   2.346   6.418   4.487
14846SOL    HW146312   2.419   6.429   4.427
14846SOL    HW246313   2.292   6.350   4.447
14847SOL     OW46314   7.705   6.243   3.810
14847SOL    HW146315   7.684   6.219   3.901
14847SOL    HW246316   7.637   6.305   3.785
14848SOL     OW46317   1.230  11.024  13.013
14848SOL    HW146318   1.215  11.114  12.985
14848SOL    HW246319   1.144  10.992  13.039
14849SOL     OW46320  13.103   0.391   1.414
14849SOL    HW146321  13.077   0.466   1.360
14849SOL    HW246322  13.100   0.424   1.504
14850SOL     OW46323  11.643   6.815   4.398
14850SOL    HW146324  11.638   6.844   4.489
14850SOL    HW246325  11.602   6.885   4.348
14851SOL     OW46326   0.235  12.384   3.667
14851SOL    HW146327   0.159  12.441   3.679
14851SOL    HW246328   0.202  12.296   3.686
14852SOL     OW46329   9.849  13.696   7.172
14852SOL    HW146330   9.915  13.629   7.191
14852SOL    HW246331   9.899  13.770   7.138
14853SOL     OW46332   2.400  11.962   3.795
14853SOL    HW146333   2.490  11.988   3.810
14853SOL    HW246334   2.357  11.972   3.880
14854SOL     OW46335   8.531  13.877  12.027
14854SOL    HW146336   8.554  13.891  11.936
14854SOL    HW246337   8.456  13.817  12.024
14855SOL     OW46338  12.730  10.578   8.938
14855SOL    HW146339  12.688  10.662   8.955
14855SOL    HW246340  12.770  10.588   8.852
14856SOL     OW46341   9.158   0.516   0.014
14856SOL    HW146342   9.189   0.463  14.817
14856SOL    HW246343   9.176   0.606  14.866
14857SOL     OW46344   4.940   1.583   6.390
14857SOL    HW146345   4.941   1.531   6.470
14857SOL    HW246346   5.014   1.643   6.399
14858SOL     OW46347  13.419   8.779   3.378
14858SOL    HW146348  13.346   8.751   3.323
14858SOL    HW246349  13.493   8.725   3.349
14859SOL     OW46350  11.008   8.489   0.283
14859SOL    HW146351  10.961   8.471   0.364
14859SOL    HW246352  10.997   8.583   0.269
14860SOL     OW46353   7.064   6.696   7.457
14860SOL    HW146354   6.979   6.655   7.475
14860SOL    HW246355   7.123   6.622   7.442
14861SOL     OW46356  14.386  14.034   9.438
14861SOL    HW146357  14.413  14.066   9.524
14861SOL    HW246358  14.309  13.980   9.456
14862SOL     OW46359   6.026   7.286   3.666
14862SOL    HW146360   6.027   7.336   3.584
14862SOL    HW246361   5.992   7.200   3.642
14863SOL     OW46362  12.373  14.621   7.937
14863SOL    HW146363  12.352  14.529   7.954
14863SOL    HW246364  12.447  14.618   7.876
14864SOL     OW46365  12.371  12.076   9.915
14864SOL    HW146366  12.403  12.135   9.983
14864SOL    HW246367  12.450  12.045   9.871
14865SOL     OW46368   1.658  14.096   8.582
14865SOL    HW146369   1.752  14.087   8.600
14865SOL    HW246370   1.616  14.035   8.643
14866SOL     OW46371   0.090  11.477  13.012
14866SOL    HW146372   0.082  11.535  13.087
14866SOL    HW246373  14.877  11.454  12.990
14867SOL     OW46374   7.098  14.857   2.353
14867SOL    HW146375   7.130   0.059   2.311
14867SOL    HW246376   7.059   0.011   2.435
14868SOL     OW46377  13.480   8.369   4.435
14868SOL    HW146378  13.575   8.362   4.440
14868SOL    HW246379  13.448   8.320   4.511
14869SOL     OW46380   8.125   6.387   6.691
14869SOL    HW146381   8.038   6.376   6.652
14869SOL    HW246382   8.126   6.476   6.724
14870SOL     OW46383  10.112   6.182   1.536
14870SOL    HW146384  10.202   6.163   1.563
14870SOL    HW246385  10.122   6.250   1.469
14871SOL     OW46386  10.894  11.009   1.506
14871SOL    HW146387  10.961  10.942   1.521
14871SOL    HW246388  10.849  10.981   1.426
14872SOL     OW46389  11.123  14.015  10.772
14872SOL    HW146390  11.077  14.091  10.735
14872SOL    HW246391  11.204  14.009  10.722
14873SOL     OW46392   0.081  14.579   6.673
14873SOL    HW146393   0.003  14.593   6.619
14873SOL    HW246394   0.060  14.504   6.728
14874SOL     OW46395   4.229  12.213   5.213
14874SOL    HW146396   4.300  12.269   5.182
14874SOL    HW246397   4.179  12.192   5.134
14875SOL     OW46398   1.388  10.556   1.605
14875SOL    HW146399   1.362  10.591   1.520
14875SOL    HW246400   1.484  10.557   1.602
14876SOL     OW46401  11.156   4.763  11.558
14876SOL    HW146402  11.170   4.835  11.496
14876SOL    HW246403  11.200   4.688  11.517
14877SOL     OW46404   3.538  14.726  12.630
14877SOL    HW146405   3.566  14.635  12.618
14877SOL    HW246406   3.505  14.730  12.720
14878SOL     OW46407  13.812   9.954   9.262
14878SOL    HW146408  13.877  10.024   9.268
14878SOL    HW246409  13.766   9.958   9.346
14879SOL     OW46410   2.126   0.519  10.810
14879SOL    HW146411   2.160   0.560  10.889
14879SOL    HW246412   2.204   0.495  10.760
14880SOL     OW46413   8.306   0.514  11.931
14880SOL    HW146414   8.252   0.538  12.007
14880SOL    HW246415   8.346   0.430  11.956
14881SOL     OW46416  11.650   2.823  13.849
14881SOL    HW146417  11.643   2.859  13.761
14881SOL    HW246418  11.566   2.842  13.890
14882SOL     OW46419   4.522   0.955   3.917
14882SOL    HW146420   4.538   0.954   4.012
14882SOL    HW246421   4.601   0.918   3.879
14883SOL     OW46422  10.484   3.261   3.334
14883SOL    HW146423  10.518   3.348   3.310
14883SOL    HW246424  10.436   3.232   3.257
14884SOL     OW46425   1.681  12.979   6.447
14884SOL    HW146426   1.643  13.034   6.516
14884SOL    HW246427   1.775  12.978   6.467
14885SOL     OW46428  10.915   5.688   2.826
14885SOL    HW146429  10.989   5.735   2.865
14885SOL    HW246430  10.923   5.704   2.731
14886SOL     OW46431  10.077   7.356   3.390
14886SOL    HW146432  10.047   7.393   3.473
14886SOL    HW246433  10.024   7.277   3.378
14887SOL     OW46434  14.274  13.857   1.410
14887SOL    HW146435  14.352  13.891   1.454
14887SOL    HW246436  14.291  13.872   1.317
14888SOL     OW46437   8.567  13.392   6.075
14888SOL    HW146438   8.482  13.402   6.118
14888SOL    HW246439   8.607  13.479   6.082
14889SOL     OW46440   3.204   5.011  11.726
14889SOL    HW146441   3.255   4.960  11.789
14889SOL    HW246442   3.117   4.973  11.728
14890SOL     OW46443  12.321   7.434   1.967
14890SOL    HW146444  12.268   7.436   2.046
14890SOL    HW246445  12.296   7.352   1.923
14891SOL     OW46446   5.562   6.034  12.910
14891SOL    HW146447   5.515   6.117  12.919
14891SOL    HW246448   5.624   6.049  12.838
14892SOL     OW46449   0.928   2.774  10.211
14892SOL    HW146450   0.977   2.717  10.270
14892SOL    HW246451   0.852   2.721  10.185
14893SOL     OW46452   0.368  10.041  13.734
14893SOL    HW146453   0.349  10.096  13.658
14893SOL    HW246454   0.314   9.963  13.721
14894SOL     OW46455   0.722   4.685  13.932
14894SOL    HW146456   0.688   4.764  13.975
14894SOL    HW246457   0.789   4.652  13.992
14895SOL     OW46458  11.153   0.162   4.757
14895SOL    HW146459  11.076   0.210   4.726
14895SOL    HW246460  11.184   0.213   4.832
14896SOL     OW46461   6.491  13.407  14.480
14896SOL    HW146462   6.467  13.346  14.550
14896SOL    HW246463   6.411  13.418  14.430
14897SOL     OW46464   3.003   2.296  12.862
14897SOL    HW146465   2.933   2.286  12.926
14897SOL    HW246466   2.960   2.286  12.777
14898SOL     OW46467   7.616   5.812  10.119
14898SOL    HW146468   7.537   5.772  10.156
14898SOL    HW246469   7.583   5.877  10.056
14899SOL     OW46470   6.130   1.468   1.414
14899SOL    HW146471   6.104   1.537   1.353
14899SOL    HW246472   6.225   1.463   1.404
14900SOL     OW46473   8.413  11.808   4.145
14900SOL    HW146474   8.451  11.743   4.205
14900SOL    HW246475   8.319  11.805   4.162
14901SOL     OW46476  13.749   7.678  11.592
14901SOL    HW146477  13.754   7.762  11.545
14901SOL    HW246478  13.662   7.644  11.572
14902SOL     OW46479   7.133   8.164   5.453
14902SOL    HW146480   7.206   8.167   5.515
14902SOL    HW246481   7.068   8.109   5.496
14903SOL     OW46482  12.541   1.087  14.651
14903SOL    HW146483  12.447   1.104  14.638
14903SOL    HW246484  12.584   1.167  14.621
14904SOL     OW46485   8.262   9.980  10.012
14904SOL    HW146486   8.218  10.049   9.963
14904SOL    HW246487   8.204   9.904  10.006
14905SOL     OW46488   3.022  11.542  10.761
14905SOL    HW146489   3.008  11.607  10.692
14905SOL    HW246490   3.051  11.464  10.715
14906SOL     OW46491  12.223  10.231  14.574
14906SOL    HW146492  12.136  10.250  14.607
14906SOL    HW246493  12.220  10.255  14.482
14907SOL     OW46494   1.755  10.951  14.025
14907SOL    HW146495   1.667  10.978  14.051
14907SOL    HW246496   1.763  10.861  14.057
14908SOL     OW46497   4.572  10.463   9.124
14908SOL    HW146498   4.515  10.482   9.049
14908SOL    HW246499   4.601  10.373   9.111
14909SOL     OW46500   2.583  10.527   8.106
14909SOL    HW146501   2.495  10.497   8.085
14909SOL    HW246502   2.617  10.562   8.024
14910SOL     OW46503  12.256   8.657  14.332
14910SOL    HW146504  12.322   8.665  14.264
14910SOL    HW246505  12.173   8.663  14.286
14911SOL     OW46506   8.790  12.032   0.616
14911SOL    HW146507   8.708  11.987   0.635
14911SOL    HW246508   8.786  12.113   0.667
14912SOL     OW46509   9.588  14.643   5.870
14912SOL    HW146510   9.583  14.606   5.958
14912SOL    HW246511   9.573  14.737   5.882
14913SOL     OW46512  11.118  13.122  13.295
14913SOL    HW146513  11.191  13.171  13.334
14913SOL    HW246514  11.041  13.152  13.344
14914SOL     OW46515   5.215   8.890   9.827
14914SOL    HW146516   5.241   8.969   9.778
14914SOL    HW246517   5.159   8.923   9.898
14915SOL     OW46518  10.148   6.585   5.254
14915SOL    HW146519  10.071   6.529   5.243
14915SOL    HW246520  10.222   6.524   5.253
14916SOL     OW46521   4.093   1.276   0.011
14916SOL    HW146522   4.142   1.215  14.832
14916SOL    HW246523   4.138   1.360  14.877
14917SOL     OW46524   8.539   9.474   3.911
14917SOL    HW146525   8.579   9.526   3.980
14917SOL    HW246526   8.475   9.419   3.955
14918SOL     OW46527  11.525   4.492   3.983
14918SOL    HW146528  11.587   4.560   4.009
14918SOL    HW246529  11.561   4.411   4.020
14919SOL     OW46530  12.844  11.292   6.114
14919SOL    HW146531  12.833  11.335   6.199
14919SOL    HW246532  12.938  11.274   6.109
14920SOL     OW46533  11.473   4.784   2.661
14920SOL    HW146534  11.548   4.761   2.606
14920SOL    HW246535  11.496   4.869   2.698
14921SOL     OW46536   6.888   3.536  12.851
14921SOL    HW146537   6.944   3.461  12.873
14921SOL    HW246538   6.839   3.553  12.932
14922SOL     OW46539  11.568  11.332   1.781
14922SOL    HW146540  11.591  11.425   1.783
14922SOL    HW246541  11.487  11.328   1.731
14923SOL     OW46542   8.635  13.898  10.121
14923SOL    HW146543   8.544  13.883  10.148
14923SOL    HW246544   8.679  13.814  10.135
14924SOL     OW46545   4.372  10.532   2.537
14924SOL    HW146546   4.277  10.533   2.553
14924SOL    HW246547   4.411  10.531   2.624
14925SOL     OW46548  10.106   4.554   2.950
14925SOL    HW146549  10.188   4.527   2.909
14925SOL    HW246550  10.088   4.641   2.913
14926SOL     OW46551   2.738   6.622   3.296
14926SOL    HW146552   2.787   6.650   3.219
14926SOL    HW246553   2.766   6.532   3.311
14927SOL     OW46554   1.936   4.883  11.192
14927SOL    HW146555   1.921   4.882  11.286
14927SOL    HW246556   1.996   4.956  11.178
14928SOL     OW46557   2.767  11.782   1.108
14928SOL    HW146558   2.859  11.797   1.132
14928SOL    HW246559   2.749  11.847   1.040
14929SOL     OW46560   3.331   9.033  12.198
14929SOL    HW146561   3.283   8.957  12.230
14929SOL    HW246562   3.322   9.029  12.103
14930SOL     OW46563   2.166   3.310  10.863
14930SOL    HW146564   2.098   3.339  10.802
14930SOL    HW246565   2.121   3.301  10.947
14931SOL     OW46566   3.545   3.522   8.596
14931SOL    HW146567   3.482   3.499   8.528
14931SOL    HW246568   3.526   3.462   8.669
14932SOL     OW46569   8.473   8.908  14.650
14932SOL    HW146570   8.501   8.865  14.731
14932SOL    HW246571   8.436   8.991  14.680
14933SOL     OW46572   5.568  10.432   0.205
14933SOL    HW146573   5.660  10.408   0.194
14933SOL    HW246574   5.531  10.361   0.258
14934SOL     OW46575   8.750   4.137   9.645
14934SOL    HW146576   8.779   4.148   9.735
14934SOL    HW246577   8.727   4.045   9.638
14935SOL     OW46578   0.429   0.087   8.801
14935SOL    HW146579   0.375   0.086   8.722
14935SOL    HW246580   0.513   0.050   8.775
14936SOL     OW46581   8.382  13.372  13.183
14936SOL    HW146582   8.395  13.464  13.206
14936SOL    HW246583   8.387  13.326  13.267
14937SOL     OW46584   4.649  11.219   7.183
14937SOL    HW146585   4.689  11.303   7.207
14937SOL    HW246586   4.628  11.228   7.090
14938SOL     OW46587  12.013   8.266   6.990
14938SOL    HW146588  12.061   8.343   6.960
14938SOL    HW246589  11.987   8.287   7.080
14939SOL     OW46590   3.021  10.331   8.769
14939SOL    HW146591   3.052  10.256   8.819
14939SOL    HW246592   3.049  10.314   8.679
14940SOL     OW46593   5.332   3.279   1.516
14940SOL    HW146594   5.290   3.234   1.590
14940SOL    HW246595   5.321   3.220   1.442
14941SOL     OW46596  12.047  13.850   0.368
14941SOL    HW146597  12.037  13.841   0.273
14941SOL    HW246598  11.957  13.845   0.402
14942SOL     OW46599   0.221   5.388  13.402
14942SOL    HW146600   0.250   5.309  13.356
14942SOL    HW246601   0.225   5.458  13.336
14943SOL     OW46602   6.471  14.603   4.124
14943SOL    HW146603   6.521  14.685   4.117
14943SOL    HW246604   6.535  14.535   4.106
14944SOL     OW46605   2.272   2.060  13.473
14944SOL    HW146606   2.186   2.019  13.461
14944SOL    HW246607   2.258   2.124  13.543
14945SOL     OW46608  14.023  11.343   5.408
14945SOL    HW146609  13.939  11.330   5.453
14945SOL    HW246610  14.019  11.284   5.332
14946SOL     OW46611   4.181  10.799  10.767
14946SOL    HW146612   4.203  10.740  10.839
14946SOL    HW246613   4.098  10.766  10.733
14947SOL     OW46614  11.238   2.266   7.842
14947SOL    HW146615  11.209   2.198   7.902
14947SOL    HW246616  11.170   2.270   7.775
14948SOL     OW46617   4.658   8.219  10.912
14948SOL    HW146618   4.647   8.314  10.905
14948SOL    HW246619   4.601   8.184  10.843
14949SOL     OW46620   9.668   5.362  13.381
14949SOL    HW146621   9.601   5.400  13.438
14949SOL    HW246622   9.717   5.302  13.437
14950SOL     OW46623   6.549  10.679   0.855
14950SOL    HW146624   6.629  10.676   0.908
14950SOL    HW246625   6.501  10.600   0.881
14951SOL     OW46626   9.108   2.604  11.875
14951SOL    HW146627   9.143   2.677  11.927
14951SOL    HW246628   9.013   2.614  11.881
14952SOL     OW46629  12.884   0.034  14.595
14952SOL    HW146630  12.958   0.090  14.619
14952SOL    HW246631  12.851   0.001  14.679
14953SOL     OW46632  14.218   8.409   1.014
14953SOL    HW146633  14.284   8.349   0.981
14953SOL    HW246634  14.267   8.467   1.073
14954SOL     OW46635   1.213  12.382  10.997
14954SOL    HW146636   1.125  12.394  10.962
14954SOL    HW246637   1.227  12.287  10.995
14955SOL     OW46638  13.513  14.396  11.828
14955SOL    HW146639  13.516  14.320  11.770
14955SOL    HW246640  13.460  14.367  11.903
14956SOL     OW46641   9.548  11.885  11.824
14956SOL    HW146642   9.629  11.880  11.875
14956SOL    HW246643   9.577  11.902  11.734
14957SOL     OW46644   3.183   2.552   6.656
14957SOL    HW146645   3.135   2.547   6.739
14957SOL    HW246646   3.120   2.521   6.591
14958SOL     OW46647   8.710   2.893   2.304
14958SOL    HW146648   8.700   2.868   2.212
14958SOL    HW246649   8.718   2.810   2.351
14959SOL     OW46650   8.267   5.095   8.737
14959SOL    HW146651   8.346   5.127   8.780
14959SOL    HW246652   8.299   5.052   8.658
14960SOL     OW46653   6.294   9.460   5.653
14960SOL    HW146654   6.366   9.493   5.599
14960SOL    HW246655   6.223   9.524   5.640
14961SOL     OW46656  10.962   4.339  10.464
14961SOL    HW146657  10.870   4.316  10.450
14961SOL    HW246658  11.008   4.255  10.471
14962SOL     OW46659   7.432   2.013   5.158
14962SOL    HW146660   7.518   1.972   5.150
14962SOL    HW246661   7.440   2.072   5.233
14963SOL     OW46662   2.995   2.664   3.218
14963SOL    HW146663   3.078   2.635   3.180
14963SOL    HW246664   2.989   2.756   3.193
14964SOL     OW46665  10.548  10.834   1.119
14964SOL    HW146666  10.512  10.878   1.196
14964SOL    HW246667  10.535  10.896   1.047
14965SOL     OW46668  13.076   3.311   8.712
14965SOL    HW146669  13.011   3.380   8.723
14965SOL    HW246670  13.144   3.351   8.658
14966SOL     OW46671  11.267   7.674  10.299
14966SOL    HW146672  11.281   7.728  10.222
14966SOL    HW246673  11.175   7.690  10.323
14967SOL     OW46674   3.641   9.368   5.974
14967SOL    HW146675   3.684   9.445   5.938
14967SOL    HW246676   3.560   9.402   6.013
14968SOL     OW46677  13.846   9.625   6.626
14968SOL    HW146678  13.864   9.699   6.684
14968SOL    HW246679  13.808   9.664   6.547
14969SOL     OW46680   3.760  12.695  10.019
14969SOL    HW146681   3.751  12.686   9.924
14969SOL    HW246682   3.761  12.605  10.052
14970SOL     OW46683   1.914  14.468   5.082
14970SOL    HW146684   1.973  14.447   5.154
14970SOL    HW246685   1.958  14.539   5.034
14971SOL     OW46686   0.889   3.113   3.347
14971SOL    HW146687   0.934   3.196   3.327
14971SOL    HW246688   0.798   3.138   3.362
14972SOL     OW46689   3.438  11.439   3.640
14972SOL    HW146690   3.388  11.363   3.669
14972SOL    HW246691   3.389  11.474   3.566
14973SOL     OW46692   7.411   6.534   1.155
14973SOL    HW146693   7.466   6.473   1.203
14973SOL    HW246694   7.410   6.613   1.208
14974SOL     OW46695   2.555  12.648   0.433
14974SOL    HW146696   2.595  12.611   0.354
14974SOL    HW246697   2.629  12.675   0.487
14975SOL     OW46698   5.990   3.656   5.712
14975SOL    HW146699   5.958   3.617   5.794
14975SOL    HW246700   5.919   3.712   5.683
14976SOL     OW46701   4.484  13.121   3.265
14976SOL    HW146702   4.566  13.137   3.312
14976SOL    HW246703   4.443  13.048   3.312
14977SOL     OW46704  12.523   5.295   3.734
14977SOL    HW146705  12.438   5.261   3.762
14977SOL    HW246706  12.574   5.302   3.815
14978SOL     OW46707  13.135  11.709   6.490
14978SOL    HW146708  13.196  11.659   6.436
14978SOL    HW246709  13.152  11.680   6.580
14979SOL     OW46710   8.889  10.186   5.961
14979SOL    HW146711   8.885  10.098   5.924
14979SOL    HW246712   8.905  10.173   6.054
14980SOL     OW46713   8.943  10.819  10.264
14980SOL    HW146714   8.856  10.780  10.259
14980SOL    HW246715   8.989  10.785  10.187
14981SOL     OW46716   1.434   2.157  10.329
14981SOL    HW146717   1.408   2.158  10.421
14981SOL    HW246718   1.372   2.216  10.286
14982SOL     OW46719   4.284  12.611   7.534
14982SOL    HW146720   4.213  12.670   7.558
14982SOL    HW246721   4.325  12.588   7.617
14983SOL     OW46722  13.707  11.550   6.975
14983SOL    HW146723  13.685  11.585   6.889
14983SOL    HW246724  13.682  11.458   6.971
14984SOL     OW46725   7.384   0.560   5.787
14984SOL    HW146726   7.402   0.500   5.715
14984SOL    HW246727   7.308   0.522   5.832
14985SOL     OW46728   4.302   6.326   8.144
14985SOL    HW146729   4.278   6.236   8.123
14985SOL    HW246730   4.219   6.373   8.151
14986SOL     OW46731   3.430   6.726   1.683
14986SOL    HW146732   3.416   6.743   1.589
14986SOL    HW246733   3.423   6.812   1.724
14987SOL     OW46734   9.165   9.383   7.265
14987SOL    HW146735   9.205   9.452   7.211
14987SOL    HW246736   9.180   9.303   7.215
14988SOL     OW46737   7.628  13.672  13.718
14988SOL    HW146738   7.636  13.586  13.678
14988SOL    HW246739   7.563  13.718  13.664
14989SOL     OW46740   9.249  11.860   0.301
14989SOL    HW146741   9.298  11.817   0.371
14989SOL    HW246742   9.313  11.919   0.261
14990SOL     OW46743   8.236   8.706   4.490
14990SOL    HW146744   8.196   8.629   4.529
14990SOL    HW246745   8.327   8.681   4.475
14991SOL     OW46746  13.243   0.241   1.211
14991SOL    HW146747  13.203   0.155   1.210
14991SOL    HW246748  13.206   0.284   1.288
14992SOL     OW46749  14.468   3.929   8.778
14992SOL    HW146750  14.503   4.017   8.793
14992SOL    HW246751  14.389   3.925   8.831
14993SOL     OW46752  10.965   8.748   5.956
14993SOL    HW146753  10.943   8.694   6.032
14993SOL    HW246754  11.022   8.692   5.902
14994SOL     OW46755  10.271   1.333   7.967
14994SOL    HW146756  10.217   1.274   7.915
14994SOL    HW246757  10.347   1.281   7.991
14995SOL     OW46758  14.453   5.643  10.456
14995SOL    HW146759  14.443   5.582  10.383
14995SOL    HW246760  14.530   5.611  10.503
14996SOL     OW46761  14.775  14.052  13.818
14996SOL    HW146762  14.730  13.991  13.877
14996SOL    HW246763  14.718  14.059  13.742
14997SOL     OW46764   9.194   0.588  12.527
14997SOL    HW146765   9.233   0.564  12.611
14997SOL    HW246766   9.108   0.546  12.527
14998SOL     OW46767  11.497   6.476   9.245
14998SOL    HW146768  11.466   6.566   9.247
14998SOL    HW246769  11.575   6.478   9.190
14999SOL     OW46770   1.357   3.005   3.116
14999SOL    HW146771   1.309   3.088   3.116
14999SOL    HW246772   1.423   3.014   3.184
15000SOL     OW46773  10.560  10.603   7.975
15000SOL    HW146774  10.512  10.527   7.942
15000SOL    HW246775  10.646  10.596   7.932
15001SOL     OW46776   0.574  11.538  11.906
15001SOL    HW146777   0.577  11.511  11.815
15001SOL    HW246778   0.593  11.632  11.904
15002SOL     OW46779   7.631   1.636   4.646
15002SOL    HW146780   7.579   1.690   4.705
15002SOL    HW246781   7.718   1.634   4.686
15003SOL     OW46782   9.947   5.535   4.647
15003SOL    HW146783   9.977   5.571   4.730
15003SOL    HW246784  10.013   5.563   4.583
15004SOL     OW46785   2.315   9.567  13.083
15004SOL    HW146786   2.330   9.610  13.167
15004SOL    HW246787   2.337   9.633  13.018
15005SOL     OW46788   1.786   8.210  10.823
15005SOL    HW146789   1.870   8.199  10.867
15005SOL    HW246790   1.786   8.144  10.754
15006SOL     OW46791   7.945  12.255  14.207
15006SOL    HW146792   7.910  12.341  14.230
15006SOL    HW246793   7.914  12.240  14.117
15007SOL     OW46794  13.226  13.817   4.892
15007SOL    HW146795  13.202  13.731   4.926
15007SOL    HW246796  13.276  13.858   4.962
15008SOL     OW46797   1.281   4.565  12.983
15008SOL    HW146798   1.342   4.494  12.963
15008SOL    HW246799   1.228   4.573  12.904
15009SOL     OW46800   4.124   4.709   5.853
15009SOL    HW146801   4.147   4.639   5.914
15009SOL    HW246802   4.031   4.725   5.869
15010SOL     OW46803   2.197   2.956  13.398
15010SOL    HW146804   2.267   2.929  13.337
15010SOL    HW246805   2.223   3.044  13.425
15011SOL     OW46806   7.309   9.025   8.181
15011SOL    HW146807   7.382   8.964   8.168
15011SOL    HW246808   7.233   8.980   8.142
15012SOL     OW46809   7.592   1.972  13.446
15012SOL    HW146810   7.532   2.008  13.381
15012SOL    HW246811   7.651   2.044  13.467
15013SOL     OW46812   2.874   1.944   7.827
15013SOL    HW146813   2.781   1.965   7.820
15013SOL    HW246814   2.878   1.871   7.890
15014SOL     OW46815  10.537  11.524   7.372
15014SOL    HW146816  10.564  11.592   7.311
15014SOL    HW246817  10.443  11.538   7.382
15015SOL     OW46818   7.211   2.125   6.269
15015SOL    HW146819   7.306   2.141   6.276
15015SOL    HW246820   7.200   2.036   6.303
15016SOL     OW46821  13.814   0.466   2.520
15016SOL    HW146822  13.782   0.541   2.469
15016SOL    HW246823  13.908   0.464   2.504
15017SOL     OW46824   3.502   8.965   9.278
15017SOL    HW146825   3.581   8.937   9.324
15017SOL    HW246826   3.517   9.057   9.258
15018SOL     OW46827   8.276   6.804   8.443
15018SOL    HW146828   8.346   6.800   8.507
15018SOL    HW246829   8.212   6.740   8.474
15019SOL     OW46830   5.065   7.416  11.062
15019SOL    HW146831   5.112   7.498  11.073
15019SOL    HW246832   5.105   7.376  10.985
15020SOL     OW46833  13.995  14.849   5.264
15020SOL    HW146834  13.903  14.825   5.251
15020SOL    HW246835  14.003  14.862   5.359
15021SOL     OW46836   0.716  10.418   6.894
15021SOL    HW146837   0.788  10.468   6.933
15021SOL    HW246838   0.647  10.420   6.960
15022SOL     OW46839   7.152   6.131  11.875
15022SOL    HW146840   7.223   6.154  11.935
15022SOL    HW246841   7.102   6.212  11.864
15023SOL     OW46842  12.486   1.575   6.964
15023SOL    HW146843  12.480   1.549   6.872
15023SOL    HW246844  12.463   1.497   7.013
15024SOL     OW46845  10.995   9.701   9.313
15024SOL    HW146846  11.056   9.692   9.240
15024SOL    HW246847  11.033   9.769   9.368
15025SOL     OW46848  12.180   1.467  13.927
15025SOL    HW146849  12.213   1.394  13.874
15025SOL    HW246850  12.137   1.426  14.001
15026SOL     OW46851   5.404  10.836   1.674
15026SOL    HW146852   5.317  10.796   1.675
15026SOL    HW246853   5.438  10.818   1.586
15027SOL     OW46854  14.140  11.010   7.433
15027SOL    HW146855  14.210  11.069   7.405
15027SOL    HW246856  14.107  11.048   7.514
15028SOL     OW46857   4.270   6.152   5.651
15028SOL    HW146858   4.289   6.128   5.560
15028SOL    HW246859   4.192   6.207   5.645
15029SOL     OW46860   0.694   8.697   1.631
15029SOL    HW146861   0.657   8.752   1.562
15029SOL    HW246862   0.617   8.654   1.670
15030SOL     OW46863  12.752  10.838   3.575
15030SOL    HW146864  12.787  10.876   3.656
15030SOL    HW246865  12.665  10.808   3.598
15031SOL     OW46866  11.569   1.298  10.166
15031SOL    HW146867  11.607   1.289  10.254
15031SOL    HW246868  11.623   1.242  10.111
15032SOL     OW46869   4.411   1.732   2.097
15032SOL    HW146870   4.420   1.803   2.033
15032SOL    HW246871   4.321   1.701   2.086
15033SOL     OW46872   8.211  13.606   7.958
15033SOL    HW146873   8.221  13.641   8.046
15033SOL    HW246874   8.128  13.641   7.927
15034SOL     OW46875   3.681  14.671   9.028
15034SOL    HW146876   3.737  14.748   9.022
15034SOL    HW246877   3.725  14.613   9.090
15035SOL     OW46878   9.684  11.771  14.781
15035SOL    HW146879   9.623  11.702  14.804
15035SOL    HW246880   9.757  11.760  14.841
15036SOL     OW46881   4.383  13.852  11.233
15036SOL    HW146882   4.451  13.918  11.219
15036SOL    HW246883   4.431  13.771  11.251
15037SOL     OW46884  11.975   6.216  12.276
15037SOL    HW146885  12.008   6.291  12.227
15037SOL    HW246886  11.928   6.255  12.350
15038SOL     OW46887   1.934   8.134   9.329
15038SOL    HW146888   1.880   8.212   9.319
15038SOL    HW246889   1.882   8.064   9.289
15039SOL     OW46890   1.791  12.351   7.008
15039SOL    HW146891   1.785  12.447   7.009
15039SOL    HW246892   1.706  12.322   7.042
15040SOL     OW46893  10.157  13.932   5.048
15040SOL    HW146894  10.139  13.934   5.142
15040SOL    HW246895  10.073  13.909   5.007
15041SOL     OW46896   0.532  13.267   3.944
15041SOL    HW146897   0.567  13.185   3.908
15041SOL    HW246898   0.441  13.270   3.912
15042SOL     OW46899   0.439   4.222  14.256
15042SOL    HW146900   0.488   4.164  14.315
15042SOL    HW246901   0.348   4.211  14.281
15043SOL     OW46902   6.144  11.324   9.998
15043SOL    HW146903   6.170  11.370   9.919
15043SOL    HW246904   6.089  11.252   9.968
15044SOL     OW46905   9.761   8.098   5.752
15044SOL    HW146906   9.854   8.114   5.741
15044SOL    HW246907   9.719   8.180   5.725
15045SOL     OW46908  10.543   0.213   5.465
15045SOL    HW146909  10.493   0.162   5.529
15045SOL    HW246910  10.634   0.195   5.485
15046SOL     OW46911   3.726   7.568  10.293
15046SOL    HW146912   3.734   7.473  10.279
15046SOL    HW246913   3.816   7.599  10.302
15047SOL     OW46914   2.321   1.118  10.692
15047SOL    HW146915   2.241   1.066  10.684
15047SOL    HW246916   2.348   1.134  10.602
15048SOL     OW46917   9.760   1.571  13.230
15048SOL    HW146918   9.724   1.622  13.158
15048SOL    HW246919   9.849   1.550  13.202
15049SOL     OW46920   4.361  14.600   5.388
15049SOL    HW146921   4.399  14.676   5.434
15049SOL    HW246922   4.418  14.588   5.312
15050SOL     OW46923   8.272  14.234   2.693
15050SOL    HW146924   8.364  14.213   2.678
15050SOL    HW246925   8.225  14.187   2.624
15051SOL     OW46926   1.013  10.943   0.776
15051SOL    HW146927   0.918  10.961   0.779
15051SOL    HW246928   1.027  10.904   0.690
15052SOL     OW46929  11.881  12.616   9.075
15052SOL    HW146930  11.871  12.702   9.117
15052SOL    HW246931  11.841  12.627   8.989
15053SOL     OW46932   0.592  11.743   5.953
15053SOL    HW146933   0.642  11.769   6.030
15053SOL    HW246934   0.657  11.702   5.895
15054SOL     OW46935   0.711   7.863   1.762
15054SOL    HW146936   0.734   7.776   1.794
15054SOL    HW246937   0.692   7.913   1.842
15055SOL     OW46938   2.520  13.619   9.282
15055SOL    HW146939   2.441  13.586   9.240
15055SOL    HW246940   2.489  13.660   9.363
15056SOL     OW46941   1.805   6.928   9.699
15056SOL    HW146942   1.863   7.000   9.673
15056SOL    HW246943   1.780   6.887   9.616
15057SOL     OW46944  14.674   2.309   8.438
15057SOL    HW146945  14.630   2.272   8.362
15057SOL    HW246946  14.695   2.399   8.412
15058SOL     OW46947  13.842   6.099  10.968
15058SOL    HW146948  13.929   6.139  10.979
15058SOL    HW246949  13.832   6.090  10.874
15059SOL     OW46950  13.558   5.360   1.273
15059SOL    HW146951  13.551   5.266   1.257
15059SOL    HW246952  13.612   5.393   1.201
15060SOL     OW46953   1.674   3.822   7.224
15060SOL    HW146954   1.766   3.797   7.227
15060SOL    HW246955   1.664   3.886   7.294
15061SOL     OW46956  13.390   2.010   5.144
15061SOL    HW146957  13.431   1.961   5.073
15061SOL    HW246958  13.456   2.012   5.213
15062SOL     OW46959   3.828  11.111   5.191
15062SOL    HW146960   3.789  11.024   5.176
15062SOL    HW246961   3.797  11.164   5.118
15063SOL     OW46962  11.507  11.284  13.531
15063SOL    HW146963  11.582  11.254  13.582
15063SOL    HW246964  11.460  11.343  13.590
15064SOL     OW46965  10.537  11.085   5.268
15064SOL    HW146966  10.497  11.087   5.355
15064SOL    HW246967  10.625  11.119   5.282
15065SOL     OW46968  12.299   8.834   0.735
15065SOL    HW146969  12.203   8.838   0.740
15065SOL    HW246970  12.327   8.823   0.826
15066SOL     OW46971   6.099  13.344   8.449
15066SOL    HW146972   6.047  13.294   8.512
15066SOL    HW246973   6.190  13.330   8.476
15067SOL     OW46974   8.985  11.346   6.755
15067SOL    HW146975   8.928  11.340   6.679
15067SOL    HW246976   9.073  11.335   6.720
15068SOL     OW46977   1.412   5.388  14.484
15068SOL    HW146978   1.383   5.479  14.487
15068SOL    HW246979   1.451   5.377  14.398
15069SOL     OW46980  14.404   9.282  13.841
15069SOL    HW146981  14.455   9.326  13.909
15069SOL    HW246982  14.314   9.309  13.858
15070SOL     OW46983  11.186   7.766   2.431
15070SOL    HW146984  11.199   7.708   2.356
15070SOL    HW246985  11.183   7.707   2.506
15071SOL     OW46986  14.053   1.710   9.682
15071SOL    HW146987  14.111   1.688   9.610
15071SOL    HW246988  14.021   1.797   9.662
15072SOL     OW46989   3.420   6.947   4.743
15072SOL    HW146990   3.478   7.015   4.778
15072SOL    HW246991   3.397   6.978   4.655
15073SOL     OW46992   4.186   7.450   6.956
15073SOL    HW146993   4.164   7.530   6.909
15073SOL    HW246994   4.281   7.440   6.941
15074SOL     OW46995   2.710   1.711   9.296
15074SOL    HW146996   2.677   1.789   9.250
15074SOL    HW246997   2.639   1.686   9.355
15075SOL     OW46998   3.506   7.283   0.222
15075SOL    HW146999   3.571   7.267   0.290
15075SOL    HW247000   3.540   7.237   0.145
15076SOL     OW47001   3.483   8.343   4.147
15076SOL    HW147002   3.403   8.377   4.187
15076SOL    HW247003   3.550   8.409   4.167
15077SOL     OW47004   0.501   9.602   3.744
15077SOL    HW147005   0.585   9.556   3.741
15077SOL    HW247006   0.469   9.589   3.833
15078SOL     OW47007   8.319  14.093   3.717
15078SOL    HW147008   8.335  14.027   3.785
15078SOL    HW247009   8.320  14.044   3.635
15079SOL     OW47010   7.645   1.992   7.017
15079SOL    HW147011   7.696   1.915   6.992
15079SOL    HW247012   7.680   2.063   6.962
15080SOL     OW47013  10.240   7.780  11.278
15080SOL    HW147014  10.210   7.698  11.318
15080SOL    HW247015  10.285   7.752  11.198
15081SOL     OW47016   1.736   0.752  14.209
15081SOL    HW147017   1.747   0.811  14.135
15081SOL    HW247018   1.804   0.778  14.271
15082SOL     OW47019  13.666  10.845   7.944
15082SOL    HW147020  13.656  10.934   7.978
15082SOL    HW247021  13.760  10.829   7.944
15083SOL     OW47022  10.850  11.821  10.858
15083SOL    HW147023  10.841  11.757  10.928
15083SOL    HW247024  10.769  11.872  10.861
15084SOL     OW47025  13.936   3.932  13.713
15084SOL    HW147026  13.891   3.962  13.634
15084SOL    HW247027  14.004   3.873  13.680
15085SOL     OW47028   1.078   3.362   7.382
15085SOL    HW147029   1.048   3.286   7.332
15085SOL    HW247030   1.141   3.326   7.445
15086SOL     OW47031   5.814   9.447   7.333
15086SOL    HW147032   5.860   9.381   7.386
15086SOL    HW247033   5.883   9.502   7.298
15087SOL     OW47034   1.414   4.373  10.034
15087SOL    HW147035   1.504   4.344  10.048
15087SOL    HW247036   1.362   4.294  10.037
15088SOL     OW47037  11.115   4.874  13.907
15088SOL    HW147038  11.140   4.831  13.988
15088SOL    HW247039  11.093   4.802  13.848
15089SOL     OW47040  10.475   2.085  14.200
15089SOL    HW147041  10.570   2.092  14.192
15089SOL    HW247042  10.460   2.025  14.273
15090SOL     OW47043   4.698   3.783   4.021
15090SOL    HW147044   4.615   3.750   3.986
15090SOL    HW247045   4.675   3.863   4.067
15091SOL     OW47046  10.553   6.946   7.770
15091SOL    HW147047  10.475   6.978   7.724
15091SOL    HW247048  10.585   7.022   7.818
15092SOL     OW47049   8.171   7.242   3.717
15092SOL    HW147050   8.211   7.327   3.734
15092SOL    HW247051   8.242   7.188   3.683
15093SOL     OW47052  11.352   3.996  14.855
15093SOL    HW147053  11.436   3.969   0.014
15093SOL    HW247054  11.368   4.085  14.822
15094SOL     OW47055   7.863   3.196  14.159
15094SOL    HW147056   7.845   3.102  14.169
15094SOL    HW247057   7.794   3.228  14.102
15095SOL     OW47058   6.816   7.072   0.833
15095SOL    HW147059   6.869   7.151   0.838
15095SOL    HW247060   6.728   7.100   0.859
15096SOL     OW47061   6.497   4.211  10.415
15096SOL    HW147062   6.573   4.246  10.462
15096SOL    HW247063   6.529   4.192  10.327
15097SOL     OW47064   8.472   1.249   2.456
15097SOL    HW147065   8.430   1.332   2.479
15097SOL    HW247066   8.531   1.272   2.384
15098SOL     OW47067   5.291  10.383   4.166
15098SOL    HW147068   5.268  10.290   4.170
15098SOL    HW247069   5.295  10.411   4.258
15099SOL     OW47070   0.153   6.412   9.529
15099SOL    HW147071   0.174   6.378   9.616
15099SOL    HW247072   0.074   6.366   9.504
15100SOL     OW47073   7.477   9.285  14.101
15100SOL    HW147074   7.563   9.317  14.076
15100SOL    HW247075   7.423   9.364  14.105
15101SOL     OW47076  13.094   0.225   1.870
15101SOL    HW147077  13.020   0.245   1.813
15101SOL    HW247078  13.134   0.310   1.887
15102SOL     OW47079   8.587  13.245  11.461
15102SOL    HW147080   8.621  13.183  11.396
15102SOL    HW247081   8.495  13.256  11.437
15103SOL     OW47082   9.300   2.540  13.768
15103SOL    HW147083   9.258   2.545  13.854
15103SOL    HW247084   9.237   2.580  13.708
15104SOL     OW47085   9.875   3.194   9.535
15104SOL    HW147086   9.794   3.229   9.570
15104SOL    HW247087   9.870   3.100   9.552
15105SOL     OW47088   8.014   3.201   6.923
15105SOL    HW147089   8.081   3.132   6.926
15105SOL    HW247090   8.016   3.240   7.010
15106SOL     OW47091   3.777   4.116   5.717
15106SOL    HW147092   3.745   4.051   5.654
15106SOL    HW247093   3.705   4.178   5.726
15107SOL     OW47094  10.941  10.156   3.211
15107SOL    HW147095  10.917  10.234   3.161
15107SOL    HW247096  11.034  10.168   3.230
15108SOL     OW47097   8.666   8.887  13.003
15108SOL    HW147098   8.580   8.876  13.043
15108SOL    HW247099   8.681   8.981  13.003
15109SOL     OW47100  10.375   2.006   4.089
15109SOL    HW147101  10.334   2.079   4.136
15109SOL    HW247102  10.468   2.011   4.113
15110SOL     OW47103  10.244  11.353   0.641
15110SOL    HW147104  10.195  11.423   0.597
15110SOL    HW247105  10.208  11.272   0.605
15111SOL     OW47106  14.490  11.403   5.326
15111SOL    HW147107  14.434  11.475   5.353
15111SOL    HW247108  14.433  11.326   5.332
15112SOL     OW47109   8.625   1.612  12.895
15112SOL    HW147110   8.659   1.649  12.977
15112SOL    HW247111   8.535   1.589  12.915
15113SOL     OW47112  10.105  10.646   3.318
15113SOL    HW147113  10.097  10.559   3.358
15113SOL    HW247114  10.155  10.698   3.381
15114SOL     OW47115  12.824   6.007  12.457
15114SOL    HW147116  12.801   5.920  12.424
15114SOL    HW247117  12.797   6.005  12.549
15115SOL     OW47118   1.892   0.712   2.792
15115SOL    HW147119   1.940   0.646   2.842
15115SOL    HW247120   1.801   0.683   2.796
15116SOL     OW47121  10.621   1.992  12.196
15116SOL    HW147122  10.656   2.081  12.196
15116SOL    HW247123  10.617   1.968  12.288
15117SOL     OW47124  12.430  13.067  11.079
15117SOL    HW147125  12.518  13.083  11.113
15117SOL    HW247126  12.379  13.042  11.156
15118SOL     OW47127   8.239   5.134  13.744
15118SOL    HW147128   8.219   5.227  13.752
15118SOL    HW247129   8.155   5.093  13.726
15119SOL     OW47130   3.572   1.029  12.635
15119SOL    HW147131   3.582   1.098  12.571
15119SOL    HW247132   3.513   1.066  12.701
15120SOL     OW47133   3.899   7.130  13.569
15120SOL    HW147134   3.983   7.160  13.603
15120SOL    HW247135   3.867   7.203  13.515
15121SOL     OW47136   6.434   4.362   7.777
15121SOL    HW147137   6.413   4.410   7.697
15121SOL    HW247138   6.499   4.297   7.750
15122SOL     OW47139   8.213   5.656   1.324
15122SOL    HW147140   8.239   5.564   1.335
15122SOL    HW247141   8.131   5.663   1.374
15123SOL     OW47142  12.705   9.882   4.592
15123SOL    HW147143  12.705   9.856   4.684
15123SOL    HW247144  12.782   9.840   4.555
15124SOL     OW47145   1.459   4.587   4.616
15124SOL    HW147146   1.474   4.681   4.627
15124SOL    HW247147   1.367   4.575   4.639
15125SOL     OW47148   2.545  13.612   5.839
15125SOL    HW147149   2.626  13.636   5.793
15125SOL    HW247150   2.561  13.523   5.871
15126SOL     OW47151   2.080   3.778   3.841
15126SOL    HW147152   2.173   3.801   3.845
15126SOL    HW247153   2.049   3.789   3.931
15127SOL     OW47154  14.124   5.946   8.488
15127SOL    HW147155  14.118   5.874   8.551
15127SOL    HW247156  14.038   5.948   8.446
15128SOL     OW47157  11.614   2.139   8.746
15128SOL    HW147158  11.633   2.120   8.654
15128SOL    HW247159  11.536   2.195   8.743
15129SOL     OW47160  14.786   0.372   2.954
15129SOL    HW147161  14.852   0.408   3.014
15129SOL    HW247162  14.771   0.283   2.985
15130SOL     OW47163   2.854   8.274   0.406
15130SOL    HW147164   2.850   8.369   0.406
15130SOL    HW247165   2.789   8.247   0.342
15131SOL     OW47166   2.495   2.642   3.535
15131SOL    HW147167   2.486   2.547   3.544
15131SOL    HW247168   2.544   2.655   3.454
15132SOL     OW47169  10.552  12.963   1.466
15132SOL    HW147170  10.536  12.885   1.413
15132SOL    HW247171  10.580  13.030   1.404
15133SOL     OW47172   8.972  11.641   6.798
15133SOL    HW147173   9.050  11.605   6.757
15133SOL    HW247174   8.926  11.564   6.832
15134SOL     OW47175   2.832   6.047   0.707
15134SOL    HW147176   2.885   6.005   0.639
15134SOL    HW247177   2.879   6.128   0.727
15135SOL     OW47178   4.196   4.909  10.673
15135SOL    HW147179   4.185   4.844  10.743
15135SOL    HW247180   4.109   4.917  10.634
15136SOL     OW47181  11.086   8.215   5.476
15136SOL    HW147182  11.002   8.221   5.520
15136SOL    HW247183  11.123   8.304   5.481
15137SOL     OW47184  14.048  14.806   4.471
15137SOL    HW147185  14.112  14.877   4.470
15137SOL    HW247186  14.075  14.748   4.399
15138SOL     OW47187   6.659   6.678   6.652
15138SOL    HW147188   6.586   6.714   6.703
15138SOL    HW247189   6.670   6.589   6.686
15139SOL     OW47190   5.813   1.016   0.216
15139SOL    HW147191   5.747   1.005   0.149
15139SOL    HW247192   5.810   0.935   0.267
15140SOL     OW47193   2.063  14.419   7.649
15140SOL    HW147194   2.022  14.483   7.591
15140SOL    HW247195   2.002  14.409   7.722
15141SOL     OW47196   5.469   8.438   6.216
15141SOL    HW147197   5.441   8.442   6.125
15141SOL    HW247198   5.534   8.508   6.224
15142SOL     OW47199  12.026   0.187   0.184
15142SOL    HW147200  11.968   0.158   0.114
15142SOL    HW247201  12.109   0.206   0.141
15143SOL     OW47202   2.038   9.767  11.195
15143SOL    HW147203   2.054   9.855  11.231
15143SOL    HW247204   1.944   9.764  11.181
15144SOL     OW47205   1.581  11.395   7.790
15144SOL    HW147206   1.571  11.468   7.728
15144SOL    HW247207   1.661  11.351   7.762
15145SOL     OW47208   8.732   2.881   1.686
15145SOL    HW147209   8.824   2.902   1.668
15145SOL    HW247210   8.686   2.906   1.606
15146SOL     OW47211   3.592   8.333   9.557
15146SOL    HW147212   3.566   8.420   9.585
15146SOL    HW247213   3.547   8.273   9.617
15147SOL     OW47214  14.579  13.733   5.995
15147SOL    HW147215  14.639  13.787   6.047
15147SOL    HW247216  14.628  13.712   5.916
15148SOL     OW47217   8.255   5.147   0.042
15148SOL    HW147218   8.187   5.100  14.870
15148SOL    HW247219   8.333   5.093   0.033
15149SOL     OW47220   8.034  13.943   4.895
15149SOL    HW147221   8.015  13.982   4.981
15149SOL    HW247222   8.007  13.851   4.904
15150SOL     OW47223   0.292   8.772  14.206
15150SOL    HW147224   0.199   8.771  14.186
15150SOL    HW247225   0.309   8.861  14.237
15151SOL     OW47226   5.263   6.097  12.956
15151SOL    HW147227   5.171   6.124  12.950
15151SOL    HW247228   5.263   6.005  12.933
15152SOL     OW47229  11.316   7.785  13.023
15152SOL    HW147230  11.390   7.732  12.994
15152SOL    HW247231  11.346   7.825  13.105
15153SOL     OW47232   5.404   2.579   7.014
15153SOL    HW147233   5.493   2.552   6.994
15153SOL    HW247234   5.402   2.673   6.996
15154SOL     OW47235   7.958  10.289   3.412
15154SOL    HW147236   8.003  10.280   3.496
15154SOL    HW247237   7.865  10.278   3.433
15155SOL     OW47238   0.633   0.238  10.474
15155SOL    HW147239   0.587   0.299  10.416
15155SOL    HW247240   0.703   0.290  10.513
15156SOL     OW47241  11.930   2.964   2.658
15156SOL    HW147242  12.013   2.928   2.690
15156SOL    HW247243  11.897   2.899   2.596
15157SOL     OW47244   0.784   6.254   2.903
15157SOL    HW147245   0.803   6.182   2.963
15157SOL    HW247246   0.705   6.228   2.858
15158SOL     OW47247   4.294  14.084   2.409
15158SOL    HW147248   4.357  14.011   2.404
15158SOL    HW247249   4.283  14.099   2.503
15159SOL     OW47250   0.447   9.368   1.715
15159SOL    HW147251   0.503   9.389   1.789
15159SOL    HW247252   0.405   9.285   1.739
15160SOL     OW47253   7.006  12.056   9.695
15160SOL    HW147254   7.077  11.996   9.674
15160SOL    HW247255   7.043  12.143   9.684
15161SOL     OW47256   7.093   5.842   0.594
15161SOL    HW147257   7.149   5.901   0.544
15161SOL    HW247258   7.150   5.770   0.621
15162SOL     OW47259  12.524  10.940  10.247
15162SOL    HW147260  12.547  10.862  10.298
15162SOL    HW247261  12.430  10.931  10.230
15163SOL     OW47262  11.448   9.304  13.035
15163SOL    HW147263  11.397   9.381  13.062
15163SOL    HW247264  11.447   9.307  12.940
15164SOL     OW47265   3.450   9.738   9.998
15164SOL    HW147266   3.531   9.722  10.047
15164SOL    HW247267   3.447   9.668   9.933
15165SOL     OW47268  14.198  10.425  10.708
15165SOL    HW147269  14.143  10.348  10.723
15165SOL    HW247270  14.241  10.440  10.792
15166SOL     OW47271   9.545   0.093  12.957
15166SOL    HW147272   9.470   0.142  12.989
15166SOL    HW247273   9.562   0.128  12.869
15167SOL     OW47274  13.538  11.997  12.397
15167SOL    HW147275  13.461  12.037  12.357
15167SOL    HW247276  13.560  12.056  12.469
15168SOL     OW47277  11.634  10.804   8.204
15168SOL    HW147278  11.623  10.721   8.250
15168SOL    HW247279  11.649  10.868   8.274
15169SOL     OW47280   1.870   8.577   4.659
15169SOL    HW147281   1.946   8.629   4.633
15169SOL    HW247282   1.885   8.491   4.620
15170SOL     OW47283  14.519   5.309   9.295
15170SOL    HW147284  14.614   5.314   9.280
15170SOL    HW247285  14.480   5.322   9.209
15171SOL     OW47286   4.250  11.667   4.753
15171SOL    HW147287   4.326  11.691   4.699
15171SOL    HW247288   4.191  11.741   4.746
15172SOL     OW47289   2.283  13.919   7.853
15172SOL    HW147290   2.234  13.843   7.822
15172SOL    HW247291   2.217  13.988   7.860
15173SOL     OW47292   3.609   0.730  12.497
15173SOL    HW147293   3.554   0.752  12.572
15173SOL    HW247294   3.698   0.741  12.529
15174SOL     OW47295   0.329   5.911   5.184
15174SOL    HW147296   0.290   5.995   5.157
15174SOL    HW247297   0.395   5.936   5.249
15175SOL     OW47298  10.120  11.234  12.743
15175SOL    HW147299  10.128  11.182  12.823
15175SOL    HW247300  10.032  11.214  12.710
15176SOL     OW47301   8.935   4.811   3.430
15176SOL    HW147302   8.876   4.742   3.402
15176SOL    HW247303   8.973   4.845   3.349
15177SOL     OW47304   5.866   3.982   9.106
15177SOL    HW147305   5.914   4.010   9.028
15177SOL    HW247306   5.800   3.921   9.074
15178SOL     OW47307   1.391   7.829  12.800
15178SOL    HW147308   1.404   7.913  12.755
15178SOL    HW247309   1.459   7.772  12.764
15179SOL     OW47310   9.569   1.221  12.279
15179SOL    HW147311   9.645   1.213  12.222
15179SOL    HW247312   9.606   1.232  12.367
15180SOL     OW47313   7.226   5.029  10.206
15180SOL    HW147314   7.137   5.001  10.184
15180SOL    HW247315   7.217   5.072  10.291
15181SOL     OW47316   5.505  13.943  10.725
15181SOL    HW147317   5.484  13.938  10.632
15181SOL    HW247318   5.569  13.872  10.738
15182SOL     OW47319   7.890   5.880   1.465
15182SOL    HW147320   7.810   5.866   1.414
15182SOL    HW247321   7.942   5.801   1.451
15183SOL     OW47322  14.517   7.626   8.232
15183SOL    HW147323  14.469   7.709   8.233
15183SOL    HW247324  14.605   7.649   8.263
15184SOL     OW47325  12.375   7.584  13.566
15184SOL    HW147326  12.332   7.648  13.622
15184SOL    HW247327  12.424   7.636  13.503
15185SOL     OW47328   9.610   9.847   5.137
15185SOL    HW147329   9.622   9.931   5.182
15185SOL    HW247330   9.674   9.850   5.065
15186SOL     OW47331   8.128   9.105   1.036
15186SOL    HW147332   8.098   9.040   1.100
15186SOL    HW247333   8.098   9.071   0.951
15187SOL     OW47334   8.933   3.841   8.411
15187SOL    HW147335   8.891   3.876   8.489
15187SOL    HW247336   8.930   3.913   8.348
15188SOL     OW47337   1.790  14.658  13.837
15188SOL    HW147338   1.803  14.658  13.742
15188SOL    HW247339   1.856  14.720  13.870
15189SOL     OW47340   5.594   8.840   5.758
15189SOL    HW147341   5.540   8.772   5.717
15189SOL    HW247342   5.579   8.917   5.704
15190SOL     OW47343  12.676  10.290   8.933
15190SOL    HW147344  12.630  10.252   9.008
15190SOL    HW247345  12.734  10.356   8.972
15191SOL     OW47346  14.740  10.165  14.123
15191SOL    HW147347  14.832  10.143  14.138
15191SOL    HW247348  14.698  10.081  14.103
15192SOL     OW47349  13.123   7.391   1.666
15192SOL    HW147350  13.031   7.419   1.674
15192SOL    HW247351  13.167   7.431   1.741
15193SOL     OW47352   7.100   7.957  10.269
15193SOL    HW147353   7.047   7.888  10.309
15193SOL    HW247354   7.112   8.022  10.338
15194SOL     OW47355   9.764  10.916  10.846
15194SOL    HW147356   9.786  10.914  10.939
15194SOL    HW247357   9.828  10.858  10.804
15195SOL     OW47358   6.448   5.968   8.494
15195SOL    HW147359   6.361   5.975   8.455
15195SOL    HW247360   6.434   5.923   8.577
15196SOL     OW47361   5.263  13.155  10.321
15196SOL    HW147362   5.298  13.149  10.410
15196SOL    HW247363   5.311  13.227  10.281
15197SOL     OW47364   0.446   9.167  11.733
15197SOL    HW147365   0.522   9.110  11.749
15197SOL    HW247366   0.414   9.189  11.821
15198SOL     OW47367   2.252  10.864   5.700
15198SOL    HW147368   2.308  10.800   5.744
15198SOL    HW247369   2.232  10.929   5.768
15199SOL     OW47370   9.533   6.024   1.193
15199SOL    HW147371   9.518   5.958   1.261
15199SOL    HW247372   9.626   6.015   1.171
15200SOL     OW47373   4.031  14.660   3.187
15200SOL    HW147374   4.070  14.727   3.130
15200SOL    HW247375   4.009  14.588   3.128
15201SOL     OW47376   7.247   2.185   9.088
15201SOL    HW147377   7.296   2.222   9.162
15201SOL    HW247378   7.313   2.150   9.030
15202SOL     OW47379   4.980  14.118   2.918
15202SOL    HW147380   5.022  14.070   2.847
15202SOL    HW247381   5.044  14.184   2.944
15203SOL     OW47382   8.737   5.686   9.234
15203SOL    HW147383   8.820   5.702   9.189
15203SOL    HW247384   8.675   5.747   9.193
15204SOL     OW47385   1.665  14.639  10.777
15204SOL    HW147386   1.615  14.616  10.856
15204SOL    HW247387   1.609  14.611  10.705
15205SOL     OW47388   5.713   0.131   0.777
15205SOL    HW147389   5.808   0.129   0.766
15205SOL    HW247390   5.680   0.161   0.692
15206SOL     OW47391   2.213  13.847   0.858
15206SOL    HW147392   2.165  13.826   0.938
15206SOL    HW247393   2.296  13.799   0.867
15207SOL     OW47394  12.798   7.371   6.097
15207SOL    HW147395  12.762   7.438   6.154
15207SOL    HW247396  12.752   7.291   6.122
15208SOL     OW47397  13.039   7.702   9.396
15208SOL    HW147398  12.943   7.704   9.395
15208SOL    HW247399  13.062   7.696   9.489
15209SOL     OW47400   0.843   7.453  11.807
15209SOL    HW147401   0.763   7.432  11.855
15209SOL    HW247402   0.827   7.420  11.718
15210SOL     OW47403  13.525  11.869   2.213
15210SOL    HW147404  13.570  11.806   2.156
15210SOL    HW247405  13.440  11.829   2.231
15211SOL     OW47406   8.947   7.306  13.743
15211SOL    HW147407   8.962   7.315  13.837
15211SOL    HW247408   8.932   7.396  13.712
15212SOL     OW47409   0.206   1.270  10.387
15212SOL    HW147410   0.237   1.192  10.434
15212SOL    HW247411   0.191   1.335  10.456
15213SOL     OW47412  11.519  12.249  13.260
15213SOL    HW147413  11.528  12.266  13.354
15213SOL    HW247414  11.473  12.165  13.256
15214SOL     OW47415   6.517   7.669   3.192
15214SOL    HW147416   6.584   7.644   3.256
15214SOL    HW247417   6.545   7.755   3.161
15215SOL     OW47418   4.929   3.247  11.063
15215SOL    HW147419   4.880   3.323  11.030
15215SOL    HW247420   4.889   3.172  11.020
15216SOL     OW47421   7.601   1.093  10.944
15216SOL    HW147422   7.537   1.088  10.873
15216SOL    HW247423   7.681   1.056  10.906
15217SOL     OW47424   3.138   9.547   4.764
15217SOL    HW147425   3.232   9.538   4.745
15217SOL    HW247426   3.128   9.509   4.852
15218SOL     OW47427   7.486   1.159   1.011
15218SOL    HW147428   7.495   1.088   1.074
15218SOL    HW247429   7.420   1.217   1.049
15219SOL     OW47430  14.282   2.292   0.963
15219SOL    HW147431  14.288   2.249   0.877
15219SOL    HW247432  14.209   2.353   0.954
15220SOL     OW47433   6.947  11.591   3.902
15220SOL    HW147434   6.974  11.499   3.893
15220SOL    HW247435   7.029  11.640   3.909
15221SOL     OW47436   1.200  14.106   7.982
15221SOL    HW147437   1.195  14.076   8.072
15221SOL    HW247438   1.238  14.194   7.987
15222SOL     OW47439   0.087   4.527   1.211
15222SOL    HW147440   0.021   4.458   1.199
15222SOL    HW247441   0.087   4.575   1.129
15223SOL     OW47442   2.634   5.619   9.056
15223SOL    HW147443   2.613   5.527   9.075
15223SOL    HW247444   2.611   5.666   9.136
15224SOL     OW47445  11.777  13.921   6.539
15224SOL    HW147446  11.797  13.896   6.449
15224SOL    HW247447  11.682  13.911   6.546
15225SOL     OW47448  10.890   4.584   5.320
15225SOL    HW147449  10.867   4.586   5.228
15225SOL    HW247450  10.806   4.581   5.366
15226SOL     OW47451  13.372   4.708   3.404
15226SOL    HW147452  13.353   4.801   3.399
15226SOL    HW247453  13.435   4.692   3.333
15227SOL     OW47454   0.761   4.610   1.504
15227SOL    HW147455   0.726   4.551   1.437
15227SOL    HW247456   0.738   4.698   1.474
15228SOL     OW47457  12.503   9.388   1.133
15228SOL    HW147458  12.566   9.323   1.164
15228SOL    HW247459  12.548   9.472   1.143
15229SOL     OW47460  10.119   1.262   2.248
15229SOL    HW147461  10.082   1.175   2.236
15229SOL    HW247462  10.131   1.295   2.159
15230SOL     OW47463   2.510  12.155  13.912
15230SOL    HW147464   2.545  12.073  13.948
15230SOL    HW247465   2.570  12.177  13.840
15231SOL     OW47466   2.220  10.195   6.727
15231SOL    HW147467   2.154  10.141   6.683
15231SOL    HW247468   2.251  10.254   6.659
15232SOL     OW47469   0.306   0.311   7.002
15232SOL    HW147470   0.305   0.237   6.942
15232SOL    HW247471   0.382   0.362   6.976
15233SOL     OW47472   1.571   8.350  12.951
15233SOL    HW147473   1.579   8.379  13.042
15233SOL    HW247474   1.565   8.255  12.957
15234SOL     OW47475  14.809   1.224   7.872
15234SOL    HW147476  14.721   1.247   7.842
15234SOL    HW247477  14.865   1.246   7.798
15235SOL     OW47478  10.594  12.535   0.737
15235SOL    HW147479  10.651  12.610   0.757
15235SOL    HW247480  10.641  12.487   0.669
15236SOL     OW47481   6.192   3.122   8.227
15236SOL    HW147482   6.109   3.167   8.243
15236SOL    HW247483   6.168   3.044   8.177
15237SOL     OW47484   8.994   3.607   8.841
15237SOL    HW147485   8.974   3.667   8.913
15237SOL    HW247486   9.044   3.660   8.779
15238SOL     OW47487   7.711   4.779   1.503
15238SOL    HW147488   7.781   4.743   1.448
15238SOL    HW247489   7.667   4.842   1.446
15239SOL     OW47490   5.269   0.996   0.057
15239SOL    HW147491   5.227   0.956  14.858
15239SOL    HW247492   5.260   1.090   0.043
15240SOL     OW47493  10.722   8.464   5.287
15240SOL    HW147494  10.775   8.403   5.236
15240SOL    HW247495  10.638   8.468   5.241
15241SOL     OW47496   4.284  12.637  10.546
15241SOL    HW147497   4.271  12.727  10.574
15241SOL    HW247498   4.277  12.640  10.451
15242SOL     OW47499   0.629   7.966   2.848
15242SOL    HW147500   0.656   7.966   2.757
15242SOL    HW247501   0.550   7.912   2.850
15243SOL     OW47502  14.275   7.995   8.773
15243SOL    HW147503  14.217   8.057   8.728
15243SOL    HW247504  14.350   7.986   8.714
15244SOL     OW47505   5.850   6.288   5.907
15244SOL    HW147506   5.871   6.264   5.997
15244SOL    HW247507   5.932   6.321   5.871
15245SOL     OW47508   1.340   3.886  13.655
15245SOL    HW147509   1.249   3.890  13.684
15245SOL    HW247510   1.386   3.949  13.711
15246SOL     OW47511   1.740   0.734   5.624
15246SOL    HW147512   1.658   0.775   5.650
15246SOL    HW247513   1.766   0.681   5.699
15247SOL     OW47514  13.109   7.492   0.666
15247SOL    HW147515  13.067   7.474   0.582
15247SOL    HW247516  13.073   7.576   0.694
15248SOL     OW47517   0.930   8.450   7.882
15248SOL    HW147518   0.849   8.422   7.840
15248SOL    HW247519   0.974   8.369   7.907
15249SOL     OW47520  13.974  11.162   0.339
15249SOL    HW147521  13.929  11.165   0.423
15249SOL    HW247522  14.021  11.245   0.334
15250SOL     OW47523  11.248   9.908   4.639
15250SOL    HW147524  11.225   9.816   4.654
15250SOL    HW247525  11.166   9.956   4.649
15251SOL     OW47526   4.918   2.196   9.231
15251SOL    HW147527   4.924   2.213   9.137
15251SOL    HW247528   4.882   2.277   9.268
15252SOL     OW47529  10.739   8.812   5.449
15252SOL    HW147530  10.797   8.834   5.376
15252SOL    HW247531  10.658   8.783   5.406
15253SOL     OW47532   5.749   5.931   8.206
15253SOL    HW147533   5.781   5.910   8.293
15253SOL    HW247534   5.757   5.849   8.157
15254SOL     OW47535   4.115  10.028  11.341
15254SOL    HW147536   4.109  10.123  11.336
15254SOL    HW247537   4.200  10.011  11.381
15255SOL     OW47538   9.112   0.306   1.996
15255SOL    HW147539   9.049   0.341   2.059
15255SOL    HW247540   9.149   0.384   1.953
15256SOL     OW47541   8.951  13.791  10.211
15256SOL    HW147542   8.963  13.704  10.249
15256SOL    HW247543   8.938  13.849  10.286
15257SOL     OW47544  12.580   1.518  14.357
15257SOL    HW147545  12.564   1.424  14.347
15257SOL    HW247546  12.609   1.546  14.270
15258SOL     OW47547   9.690  10.201  11.313
15258SOL    HW147548   9.762  10.260  11.337
15258SOL    HW247549   9.616  10.232  11.366
15259SOL     OW47550  12.863   8.321   5.587
15259SOL    HW147551  12.865   8.262   5.511
15259SOL    HW247552  12.824   8.270   5.657
15260SOL     OW47553  14.810   6.274   5.569
15260SOL    HW147554  14.866   6.229   5.632
15260SOL    HW247555  14.786   6.206   5.506
15261SOL     OW47556   1.586   1.059   8.652
15261SOL    HW147557   1.598   0.982   8.598
15261SOL    HW247558   1.493   1.058   8.675
15262SOL     OW47559  11.958  11.991   3.930
15262SOL    HW147560  11.941  12.026   4.017
15262SOL    HW247561  11.926  12.059   3.870
15263SOL     OW47562   1.602   1.535   6.370
15263SOL    HW147563   1.695   1.545   6.392
15263SOL    HW247564   1.601   1.487   6.288
15264SOL     OW47565   5.798   4.840   0.116
15264SOL    HW147566   5.764   4.874   0.199
15264SOL    HW247567   5.850   4.764   0.141
15265SOL     OW47568   5.661   3.110   9.944
15265SOL    HW147569   5.689   3.095   9.854
15265SOL    HW247570   5.740   3.098   9.996
15266SOL     OW47571   3.658  12.206   7.195
15266SOL    HW147572   3.700  12.286   7.225
15266SOL    HW247573   3.564  12.223   7.201
15267SOL     OW47574   7.910   8.760  12.541
15267SOL    HW147575   7.950   8.785  12.458
15267SOL    HW247576   7.841   8.697  12.517
15268SOL     OW47577  12.219   5.840   3.976
15268SOL    HW147578  12.154   5.845   4.046
15268SOL    HW247579  12.295   5.798   4.016
15269SOL     OW47580   0.954  12.552   5.132
15269SOL    HW147581   0.988  12.503   5.058
15269SOL    HW247582   0.885  12.607   5.095
15270SOL     OW47583   4.395   5.393   2.000
15270SOL    HW147584   4.452   5.469   1.988
15270SOL    HW247585   4.311   5.420   1.963
15271SOL     OW47586   3.395   1.630   0.064
15271SOL    HW147587   3.375   1.542   0.096
15271SOL    HW247588   3.310   1.668   0.045
15272SOL     OW47589   4.258  13.788  10.629
15272SOL    HW147590   4.224  13.719  10.687
15272SOL    HW247591   4.180  13.835  10.599
15273SOL     OW47592  12.467   7.572   8.047
15273SOL    HW147593  12.448   7.503   8.112
15273SOL    HW247594  12.394   7.569   7.986
15274SOL     OW47595   5.285   1.184   7.952
15274SOL    HW147596   5.317   1.094   7.958
15274SOL    HW247597   5.363   1.235   7.932
15275SOL     OW47598   6.587   3.618   1.957
15275SOL    HW147599   6.509   3.589   1.911
15275SOL    HW247600   6.655   3.625   1.890
15276SOL     OW47601  14.601   7.160   4.039
15276SOL    HW147602  14.560   7.145   4.124
15276SOL    HW247603  14.689   7.125   4.049
15277SOL     OW47604   6.123   7.462   4.358
15277SOL    HW147605   6.127   7.455   4.454
15277SOL    HW247606   6.184   7.394   4.328
15278SOL     OW47607   0.038   7.781   7.757
15278SOL    HW147608   0.125   7.781   7.797
15278SOL    HW247609  14.859   7.737   7.821
15279SOL     OW47610   4.559   6.969   5.615
15279SOL    HW147611   4.509   7.016   5.547
15279SOL    HW247612   4.646   7.008   5.610
15280SOL     OW47613   3.226   8.588   9.262
15280SOL    HW147614   3.237   8.518   9.197
15280SOL    HW247615   3.260   8.666   9.218
15281SOL     OW47616  10.567   7.595   5.567
15281SOL    HW147617  10.487   7.647   5.569
15281SOL    HW247618  10.572   7.562   5.478
15282SOL     OW47619   1.302  14.068   1.189
15282SOL    HW147620   1.267  14.157   1.181
15282SOL    HW247621   1.389  14.073   1.150
15283SOL     OW47622   2.939   1.384   3.033
15283SOL    HW147623   3.031   1.375   3.059
15283SOL    HW247624   2.925   1.478   3.027
15284SOL     OW47625   1.006   3.012   5.673
15284SOL    HW147626   0.936   3.020   5.737
15284SOL    HW247627   1.066   3.084   5.695
15285SOL     OW47628   1.301   4.214  13.685
15285SOL    HW147629   1.304   4.306  13.711
15285SOL    HW247630   1.220   4.181  13.724
15286SOL     OW47631   5.503   4.894   3.496
15286SOL    HW147632   5.572   4.957   3.478
15286SOL    HW247633   5.423   4.935   3.462
15287SOL     OW47634  14.378  11.512   0.746
15287SOL    HW147635  14.423  11.586   0.705
15287SOL    HW247636  14.285  11.536   0.744
15288SOL     OW47637   8.103   5.589  11.687
15288SOL    HW147638   8.152   5.515  11.723
15288SOL    HW247639   8.016   5.553  11.668
15289SOL     OW47640   9.710   6.028  10.869
15289SOL    HW147641   9.656   6.091  10.917
15289SOL    HW247642   9.667   6.020  10.784
15290SOL     OW47643   1.756   5.943   5.506
15290SOL    HW147644   1.756   5.977   5.595
15290SOL    HW247645   1.767   6.021   5.451
15291SOL     OW47646   6.080   9.613  14.426
15291SOL    HW147647   6.007   9.557  14.454
15291SOL    HW247648   6.056   9.700  14.457
15292SOL     OW47649   0.187   4.404   2.222
15292SOL    HW147650   0.108   4.352   2.236
15292SOL    HW247651   0.199   4.452   2.304
15293SOL     OW47652   9.773  10.311  13.974
15293SOL    HW147653   9.816  10.378  14.027
15293SOL    HW247654   9.842  10.248  13.955
15294SOL     OW47655  10.978   1.756   0.231
15294SOL    HW147656  11.026   1.752   0.314
15294SOL    HW247657  10.935   1.671   0.223
15295SOL     OW47658  11.914   6.665   3.412
15295SOL    HW147659  11.824   6.645   3.387
15295SOL    HW247660  11.914   6.760   3.426
15296SOL     OW47661  14.195   0.396  12.273
15296SOL    HW147662  14.127   0.392  12.205
15296SOL    HW247663  14.166   0.333  12.339
15297SOL     OW47664  12.007   0.465  14.846
15297SOL    HW147665  11.937   0.406  14.873
15297SOL    HW247666  11.975   0.552  14.866
15298SOL     OW47667  10.997   9.276   9.954
15298SOL    HW147668  10.957   9.341   9.897
15298SOL    HW247669  10.923   9.235   9.998
15299SOL     OW47670   3.592   4.082   1.904
15299SOL    HW147671   3.621   4.063   1.993
15299SOL    HW247672   3.606   4.000   1.856
15300SOL     OW47673   7.382   4.281  11.098
15300SOL    HW147674   7.397   4.265  11.191
15300SOL    HW247675   7.469   4.293  11.061
15301SOL     OW47676   0.601   3.583  11.884
15301SOL    HW147677   0.620   3.593  11.977
15301SOL    HW247678   0.514   3.619  11.873
15302SOL     OW47679  12.361   4.358  12.906
15302SOL    HW147680  12.335   4.422  12.840
15302SOL    HW247681  12.436   4.399  12.951
15303SOL     OW47682   8.734   9.791   3.500
15303SOL    HW147683   8.674   9.721   3.524
15303SOL    HW247684   8.819   9.749   3.493
15304SOL     OW47685  10.931   8.300   9.508
15304SOL    HW147686  10.965   8.356   9.439
15304SOL    HW247687  10.951   8.347   9.589
15305SOL     OW47688   8.756  10.532   3.144
15305SOL    HW147689   8.665  10.509   3.122
15305SOL    HW247690   8.785  10.462   3.202
15306SOL     OW47691   9.105   3.743  14.571
15306SOL    HW147692   9.191   3.741  14.612
15306SOL    HW247693   9.094   3.656  14.532
15307SOL     OW47694  14.586  10.483  14.394
15307SOL    HW147695  14.541  10.534  14.326
15307SOL    HW247696  14.540  10.399  14.396
15308SOL     OW47697  10.532  11.089   2.707
15308SOL    HW147698  10.560  11.066   2.618
15308SOL    HW247699  10.471  11.019   2.731
15309SOL     OW47700  13.633  13.418   8.017
15309SOL    HW147701  13.716  13.401   7.972
15309SOL    HW247702  13.577  13.344   7.995
15310SOL     OW47703   4.677  10.933   7.131
15310SOL    HW147704   4.643  11.017   7.162
15310SOL    HW247705   4.600  10.876   7.127
15311SOL     OW47706   1.054   2.388   5.929
15311SOL    HW147707   1.095   2.327   5.989
15311SOL    HW247708   1.050   2.341   5.845
15312SOL     OW47709  10.365   3.889   8.258
15312SOL    HW147710  10.293   3.948   8.278
15312SOL    HW247711  10.366   3.827   8.331
15313SOL     OW47712   0.095  14.663  13.102
15313SOL    HW147713   0.101  14.739  13.159
15313SOL    HW247714   0.119  14.696  13.015
15314SOL     OW47715  13.441   3.076  12.893
15314SOL    HW147716  13.407   3.049  12.978
15314SOL    HW247717  13.414   3.168  12.884
15315SOL     OW47718  13.911   9.615  10.706
15315SOL    HW147719  13.850   9.648  10.772
15315SOL    HW247720  13.935   9.528  10.737
15316SOL     OW47721  13.160   3.010   0.383
15316SOL    HW147722  13.114   2.933   0.351
15316SOL    HW247723  13.120   3.028   0.468
15317SOL     OW47724   0.407   4.226   3.293
15317SOL    HW147725   0.449   4.140   3.282
15317SOL    HW247726   0.340   4.228   3.224
15318SOL     OW47727   2.620   8.240  12.858
15318SOL    HW147728   2.704   8.278  12.834
15318SOL    HW247729   2.575   8.309  12.906
15319SOL     OW47730   4.387  10.289   4.049
15319SOL    HW147731   4.325  10.244   3.992
15319SOL    HW247732   4.365  10.382   4.041
15320SOL     OW47733  14.186   9.953  11.031
15320SOL    HW147734  14.116  10.013  11.058
15320SOL    HW247735  14.212   9.984  10.945
15321SOL     OW47736  14.249   8.222   7.778
15321SOL    HW147737  14.201   8.251   7.701
15321SOL    HW247738  14.269   8.130   7.760
15322SOL     OW47739   5.408   9.897   1.135
15322SOL    HW147740   5.390   9.876   1.043
15322SOL    HW247741   5.321   9.898   1.176
15323SOL     OW47742   4.887   1.688   6.759
15323SOL    HW147743   4.920   1.610   6.714
15323SOL    HW247744   4.965   1.741   6.776
15324SOL     OW47745  14.756   8.906   7.224
15324SOL    HW147746  14.806   8.868   7.151
15324SOL    HW247747  14.690   8.839   7.244
15325SOL     OW47748   5.578   0.426   7.307
15325SOL    HW147749   5.656   0.455   7.261
15325SOL    HW247750   5.511   0.491   7.284
15326SOL     OW47751   0.707   9.252  12.463
15326SOL    HW147752   0.747   9.172  12.429
15326SOL    HW247753   0.778   9.297  12.509
15327SOL     OW47754   5.752   1.329   5.528
15327SOL    HW147755   5.803   1.403   5.495
15327SOL    HW247756   5.664   1.343   5.492
15328SOL     OW47757   5.899  11.312   4.285
15328SOL    HW147758   5.924  11.220   4.291
15328SOL    HW247759   5.981  11.360   4.295
15329SOL     OW47760  14.874  13.916   5.197
15329SOL    HW147761  14.796  13.874   5.161
15329SOL    HW247762   0.065  13.850   5.190
15330SOL     OW47763   2.882   8.444   3.468
15330SOL    HW147764   2.908   8.361   3.427
15330SOL    HW247765   2.863   8.421   3.559
15331SOL     OW47766  11.369  10.299   5.643
15331SOL    HW147767  11.451  10.301   5.594
15331SOL    HW247768  11.394  10.278   5.733
15332SOL     OW47769   6.038   0.653  12.107
15332SOL    HW147770   5.989   0.578  12.141
15332SOL    HW247771   6.005   0.728  12.157
15333SOL     OW47772   3.211  13.467  11.660
15333SOL    HW147773   3.143  13.399  11.659
15333SOL    HW247774   3.262  13.448  11.739
15334SOL     OW47775   3.234   5.300  11.823
15334SOL    HW147776   3.245   5.205  11.815
15334SOL    HW247777   3.186   5.312  11.905
15335SOL     OW47778  11.647  13.040   6.947
15335SOL    HW147779  11.645  12.956   6.901
15335SOL    HW247780  11.674  13.018   7.036
15336SOL     OW47781   2.418  12.711   3.918
15336SOL    HW147782   2.333  12.713   3.876
15336SOL    HW247783   2.404  12.754   4.003
15337SOL     OW47784   7.167   9.074  11.232
15337SOL    HW147785   7.230   9.019  11.279
15337SOL    HW247786   7.221   9.134  11.181
15338SOL     OW47787   5.074   3.049   2.411
15338SOL    HW147788   5.098   3.140   2.392
15338SOL    HW247789   5.108   3.033   2.499
15339SOL     OW47790   4.347  13.099  11.947
15339SOL    HW147791   4.378  13.072  11.861
15339SOL    HW247792   4.377  13.030  12.006
15340SOL     OW47793  10.575   0.374  14.767
15340SOL    HW147794  10.553   0.464  14.742
15340SOL    HW247795  10.544   0.366  14.857
15341SOL     OW47796   1.779  14.412   7.718
15341SOL    HW147797   1.740  14.326   7.701
15341SOL    HW247798   1.707  14.474   7.704
15342SOL     OW47799   2.182   1.531   5.463
15342SOL    HW147800   2.114   1.477   5.422
15342SOL    HW247801   2.201   1.487   5.545
15343SOL     OW47802   6.862  12.558   7.321
15343SOL    HW147803   6.774  12.595   7.313
15343SOL    HW247804   6.850  12.464   7.304
15344SOL     OW47805   5.294   1.424   2.903
15344SOL    HW147806   5.222   1.472   2.863
15344SOL    HW247807   5.298   1.457   2.993
15345SOL     OW47808   8.720  11.970  11.583
15345SOL    HW147809   8.645  11.979  11.642
15345SOL    HW247810   8.707  11.885  11.540
15346SOL     OW47811   3.998  13.895   0.853
15346SOL    HW147812   3.965  13.844   0.779
15346SOL    HW247813   4.026  13.978   0.815
15347SOL     OW47814  12.677  13.485   1.835
15347SOL    HW147815  12.609  13.552   1.825
15347SOL    HW247816  12.646  13.412   1.781
15348SOL     OW47817   7.395   2.055   6.010
15348SOL    HW147818   7.461   1.990   5.987
15348SOL    HW247819   7.440   2.139   6.001
15349SOL     OW47820   3.095   4.814   5.908
15349SOL    HW147821   3.148   4.860   5.842
15349SOL    HW247822   3.022   4.873   5.925
15350SOL     OW47823   0.396   3.829   9.857
15350SOL    HW147824   0.330   3.818   9.925
15350SOL    HW247825   0.448   3.749   9.861
15351SOL     OW47826   0.183   1.402  11.316
15351SOL    HW147827   0.245   1.470  11.341
15351SOL    HW247828   0.187   1.399  11.220
15352SOL     OW47829   6.569   6.969   6.257
15352SOL    HW147830   6.494   6.915   6.283
15352SOL    HW247831   6.597   7.011   6.338
15353SOL     OW47832   0.452   8.870   0.327
15353SOL    HW147833   0.445   8.804   0.396
15353SOL    HW247834   0.522   8.838   0.270
15354SOL     OW47835   8.920   7.324  13.101
15354SOL    HW147836   8.912   7.234  13.133
15354SOL    HW247837   8.873   7.376  13.166
15355SOL     OW47838  12.394  12.319   6.727
15355SOL    HW147839  12.476  12.353   6.763
15355SOL    HW247840  12.330  12.334   6.796
15356SOL     OW47841   5.767   6.714   7.270
15356SOL    HW147842   5.823   6.655   7.321
15356SOL    HW247843   5.775   6.682   7.180
15357SOL     OW47844   7.197   9.850   2.549
15357SOL    HW147845   7.108   9.884   2.556
15357SOL    HW247846   7.191   9.781   2.484
15358SOL     OW47847   6.162   9.759   9.629
15358SOL    HW147848   6.250   9.721   9.634
15358SOL    HW247849   6.156   9.795   9.541
15359SOL     OW47850   6.411   4.170   5.533
15359SOL    HW147851   6.398   4.096   5.473
15359SOL    HW247852   6.505   4.187   5.529
15360SOL     OW47853   5.514   4.413   4.636
15360SOL    HW147854   5.607   4.430   4.621
15360SOL    HW247855   5.469   4.481   4.585
15361SOL     OW47856   3.127  12.159  12.362
15361SOL    HW147857   3.061  12.122  12.303
15361SOL    HW247858   3.082  12.166  12.446
15362SOL     OW47859   9.628  13.280   3.594
15362SOL    HW147860   9.645  13.201   3.645
15362SOL    HW247861   9.715  13.316   3.576
15363SOL     OW47862   6.205   7.308   7.197
15363SOL    HW147863   6.197   7.217   7.227
15363SOL    HW247864   6.265   7.303   7.122
15364SOL     OW47865   1.415   7.832  14.834
15364SOL    HW147866   1.505   7.801  14.824
15364SOL    HW247867   1.424   7.921  14.869
15365SOL     OW47868  10.969   6.729   4.725
15365SOL    HW147869  10.880   6.707   4.698
15365SOL    HW247870  11.015   6.645   4.725
15366SOL     OW47871   9.349   1.130   7.491
15366SOL    HW147872   9.425   1.074   7.474
15366SOL    HW247873   9.381   1.219   7.479
15367SOL     OW47874   2.048   8.432   8.455
15367SOL    HW147875   2.119   8.479   8.412
15367SOL    HW247876   2.050   8.464   8.546
15368SOL     OW47877   6.849   9.367   5.466
15368SOL    HW147878   6.881   9.418   5.541
15368SOL    HW247879   6.927   9.325   5.430
15369SOL     OW47880  14.408  11.715   1.491
15369SOL    HW147881  14.430  11.744   1.580
15369SOL    HW247882  14.404  11.620   1.497
15370SOL     OW47883  12.529   8.751   1.691
15370SOL    HW147884  12.519   8.671   1.640
15370SOL    HW247885  12.515   8.725   1.782
15371SOL     OW47886   0.804   6.234  13.189
15371SOL    HW147887   0.899   6.231  13.179
15371SOL    HW247888   0.788   6.201  13.277
15372SOL     OW47889   6.526  10.155   9.262
15372SOL    HW147890   6.433  10.151   9.242
15372SOL    HW247891   6.559  10.227   9.207
15373SOL     OW47892  13.460   2.941  11.485
15373SOL    HW147893  13.433   2.931  11.577
15373SOL    HW247894  13.489   2.854  11.459
15374SOL     OW47895  12.709   2.508  12.656
15374SOL    HW147896  12.742   2.558  12.582
15374SOL    HW247897  12.778   2.516  12.723
15375SOL     OW47898  11.601   5.298   8.036
15375SOL    HW147899  11.565   5.212   8.058
15375SOL    HW247900  11.527   5.358   8.043
15376SOL     OW47901   2.335  11.966   2.017
15376SOL    HW147902   2.401  11.924   1.961
15376SOL    HW247903   2.383  11.990   2.096
15377SOL     OW47904  14.175   5.956   2.873
15377SOL    HW147905  14.185   5.961   2.968
15377SOL    HW247906  14.264   5.969   2.839
15378SOL     OW47907   5.729   6.254   0.437
15378SOL    HW147908   5.762   6.288   0.520
15378SOL    HW247909   5.761   6.164   0.433
15379SOL     OW47910   1.942  13.517  13.711
15379SOL    HW147911   1.924  13.473  13.794
15379SOL    HW247912   1.999  13.591  13.734
15380SOL     OW47913  14.867  13.410   5.028
15380SOL    HW147914   0.017  13.319   5.039
15380SOL    HW247915  14.871  13.425   4.934
15381SOL     OW47916   3.203   3.952   0.906
15381SOL    HW147917   3.195   3.988   0.994
15381SOL    HW247918   3.197   4.029   0.849
15382SOL     OW47919   4.456   0.547   9.852
15382SOL    HW147920   4.494   0.549   9.940
15382SOL    HW247921   4.531   0.551   9.793
15383SOL     OW47922  13.365  11.678  11.273
15383SOL    HW147923  13.275  11.683  11.241
15383SOL    HW247924  13.412  11.743  11.222
15384SOL     OW47925  13.983   8.772   4.478
15384SOL    HW147926  14.006   8.685   4.510
15384SOL    HW247927  13.900   8.792   4.522
15385SOL     OW47928   2.905  11.068  13.737
15385SOL    HW147929   2.977  11.005  13.741
15385SOL    HW247930   2.850  11.037  13.665
15386SOL     OW47931   7.493   7.742  10.704
15386SOL    HW147932   7.549   7.807  10.662
15386SOL    HW247933   7.492   7.668  10.644
15387SOL     OW47934   7.510   8.519  10.047
15387SOL    HW147935   7.485   8.609  10.026
15387SOL    HW247936   7.601   8.527  10.078
15388SOL     OW47937   0.072   6.212   7.599
15388SOL    HW147938   0.132   6.274   7.641
15388SOL    HW247939   0.046   6.255   7.517
15389SOL     OW47940   7.176  10.454  12.469
15389SOL    HW147941   7.150  10.546  12.457
15389SOL    HW247942   7.202  10.426  12.381
15390SOL     OW47943   4.447   4.729   5.753
15390SOL    HW147944   4.396   4.662   5.708
15390SOL    HW247945   4.512   4.758   5.689
15391SOL     OW47946  13.689  11.087   9.268
15391SOL    HW147947  13.626  11.041   9.213
15391SOL    HW247948  13.673  11.180   9.250
15392SOL     OW47949  11.423   9.172  11.556
15392SOL    HW147950  11.394   9.255  11.593
15392SOL    HW247951  11.366   9.157  11.481
15393SOL     OW47952   1.037   9.377  11.981
15393SOL    HW147953   1.080   9.303  11.939
15393SOL    HW247954   1.108   9.430  12.016
15394SOL     OW47955   5.368   4.855  11.181
15394SOL    HW147956   5.311   4.829  11.254
15394SOL    HW247957   5.333   4.807  11.105
15395SOL     OW47958   3.634   0.660   0.205
15395SOL    HW147959   3.608   0.710   0.283
15395SOL    HW247960   3.585   0.699   0.134
15396SOL     OW47961   0.919  14.839   5.399
15396SOL    HW147962   0.907   0.010   5.318
15396SOL    HW247963   0.878  14.754   5.383
15397SOL     OW47964   2.663   0.137   6.181
15397SOL    HW147965   2.680   0.055   6.134
15397SOL    HW247966   2.684   0.205   6.118
15398SOL     OW47967   3.353   9.784  14.783
15398SOL    HW147968   3.401   9.703  14.771
15398SOL    HW247969   3.394   9.845  14.721
15399SOL     OW47970  11.509   1.413   4.195
15399SOL    HW147971  11.469   1.347   4.138
15399SOL    HW247972  11.520   1.369   4.279
15400SOL     OW47973  12.651   8.294   0.342
15400SOL    HW147974  12.656   8.235   0.417
15400SOL    HW247975  12.580   8.355   0.364
15401SOL     OW47976   7.745  13.168   5.168
15401SOL    HW147977   7.664  13.125   5.195
15401SOL    HW247978   7.723  13.214   5.087
15402SOL     OW47979   3.141   1.702   2.570
15402SOL    HW147980   3.172   1.679   2.657
15402SOL    HW247981   3.208   1.761   2.535
15403SOL     OW47982  12.456   6.791   3.555
15403SOL    HW147983  12.461   6.744   3.638
15403SOL    HW247984  12.543   6.784   3.517
15404SOL     OW47985  10.382  14.762   2.611
15404SOL    HW147986  10.475  14.741   2.618
15404SOL    HW247987  10.337  14.683   2.643
15405SOL     OW47988  11.927   7.863   1.795
15405SOL    HW147989  11.842   7.875   1.753
15405SOL    HW247990  11.966   7.790   1.748
15406SOL     OW47991  14.259  11.973  11.325
15406SOL    HW147992  14.270  12.067  11.334
15406SOL    HW247993  14.339  11.943  11.281
15407SOL     OW47994   1.982   3.408   5.503
15407SOL    HW147995   1.963   3.360   5.584
15407SOL    HW247996   1.896   3.417   5.460
15408SOL     OW47997  11.326   7.020   9.164
15408SOL    HW147998  11.384   6.995   9.091
15408SOL    HW247999  11.375   7.085   9.213
15409SOL     OW48000   4.835   9.954   3.993
15409SOL    HW148001   4.868  10.041   4.015
15409SOL    HW248002   4.904   9.917   3.937
15410SOL     OW48003   3.214   5.051   0.475
15410SOL    HW148004   3.172   4.999   0.543
15410SOL    HW248005   3.180   5.015   0.393
15411SOL     OW48006   9.970   2.279   8.731
15411SOL    HW148007   9.893   2.311   8.684
15411SOL    HW248008   9.981   2.189   8.702
15412SOL     OW48009   4.596   7.960   0.733
15412SOL    HW148010   4.528   8.011   0.778
15412SOL    HW248011   4.665   7.951   0.798
15413SOL     OW48012  14.073   9.923  10.120
15413SOL    HW148013  14.030   9.838  10.121
15413SOL    HW248014  14.090   9.940  10.027
15414SOL     OW48015   1.420   6.164  12.195
15414SOL    HW148016   1.360   6.090  12.203
15414SOL    HW248017   1.507   6.125  12.202
15415SOL     OW48018   6.564   0.676   4.806
15415SOL    HW148019   6.489   0.617   4.814
15415SOL    HW248020   6.554   0.715   4.719
15416SOL     OW48021   6.237   9.459   1.253
15416SOL    HW148022   6.293   9.437   1.327
15416SOL    HW248023   6.154   9.415   1.271
15417SOL     OW48024  12.571   2.150  13.327
15417SOL    HW148025  12.629   2.157  13.251
15417SOL    HW248026  12.489   2.190  13.298
15418SOL     OW48027   1.493  10.375   9.713
15418SOL    HW148028   1.532  10.456   9.679
15418SOL    HW248029   1.524  10.370   9.803
15419SOL     OW48030   8.913   4.346   6.947
15419SOL    HW148031   8.883   4.304   6.866
15419SOL    HW248032   8.931   4.273   7.006
15420SOL     OW48033   8.632   1.498   5.309
15420SOL    HW148034   8.645   1.476   5.401
15420SOL    HW248035   8.718   1.525   5.278
15421SOL     OW48036   9.652  11.063   6.085
15421SOL    HW148037   9.630  11.094   5.997
15421SOL    HW248038   9.719  11.124   6.116
15422SOL     OW48039   0.111   2.510   5.387
15422SOL    HW148040   0.199   2.509   5.423
15422SOL    HW248041   0.113   2.444   5.317
15423SOL     OW48042   6.282   2.078  10.355
15423SOL    HW148043   6.240   2.076  10.441
15423SOL    HW248044   6.213   2.053  10.294
15424SOL     OW48045  13.128   8.007   7.637
15424SOL    HW148046  13.201   7.947   7.629
15424SOL    HW248047  13.059   7.968   7.582
15425SOL     OW48048  12.101   3.644   7.065
15425SOL    HW148049  12.049   3.694   7.001
15425SOL    HW248050  12.164   3.596   7.011
15426SOL     OW48051   8.966  14.370  14.848
15426SOL    HW148052   8.983  14.287   0.016
15426SOL    HW248053   9.052  14.405  14.828
15427SOL     OW48054   0.364   8.176   1.128
15427SOL    HW148055   0.418   8.191   1.051
15427SOL    HW248056   0.424   8.144   1.194
15428SOL     OW48057   9.248   6.517   6.937
15428SOL    HW148058   9.273   6.603   6.973
15428SOL    HW248059   9.299   6.509   6.857
15429SOL     OW48060   5.679  11.319   5.169
15429SOL    HW148061   5.769  11.348   5.177
15429SOL    HW248062   5.684  11.224   5.161
15430SOL     OW48063   8.154   7.425  10.473
15430SOL    HW148064   8.185   7.494  10.415
15430SOL    HW248065   8.136   7.351  10.415
15431SOL     OW48066   8.642   0.699  11.666
15431SOL    HW148067   8.662   0.791  11.681
15431SOL    HW248068   8.717   0.666  11.616
15432SOL     OW48069   3.760   0.130   8.751
15432SOL    HW148070   3.711   0.105   8.673
15432SOL    HW248071   3.759   0.226   8.749
15433SOL     OW48072   9.743   4.077  11.508
15433SOL    HW148073   9.669   4.082  11.568
15433SOL    HW248074   9.747   4.164  11.467
15434SOL     OW48075   9.663   9.679   1.071
15434SOL    HW148076   9.670   9.735   1.147
15434SOL    HW248077   9.668   9.738   0.996
15435SOL     OW48078   7.533   5.240   8.857
15435SOL    HW148079   7.528   5.324   8.813
15435SOL    HW248080   7.516   5.259   8.949
15436SOL     OW48081   7.439  13.968   6.431
15436SOL    HW148082   7.436  13.890   6.376
15436SOL    HW248083   7.464  13.936   6.517
15437SOL     OW48084   8.031   6.143   7.682
15437SOL    HW148085   7.945   6.183   7.667
15437SOL    HW248086   8.029   6.116   7.774
15438SOL     OW48087   9.507   0.280   8.906
15438SOL    HW148088   9.602   0.279   8.895
15438SOL    HW248089   9.474   0.314   8.823
15439SOL     OW48090   3.895  14.847  12.265
15439SOL    HW148091   3.898   0.052  12.215
15439SOL    HW248092   3.810  14.809  12.242
15440SOL     OW48093   8.229   4.000  10.519
15440SOL    HW148094   8.310   3.953  10.536
15440SOL    HW248095   8.174   3.937  10.472
15441SOL     OW48096   8.902   0.638  14.128
15441SOL    HW148097   8.844   0.622  14.203
15441SOL    HW248098   8.968   0.569  14.133
15442SOL     OW48099   7.805   5.155  11.646
15442SOL    HW148100   7.768   5.073  11.678
15442SOL    HW248101   7.733   5.196  11.598
15443SOL     OW48102  12.219  14.298   8.832
15443SOL    HW148103  12.231  14.221   8.775
15443SOL    HW248104  12.129  14.290   8.864
15444SOL     OW48105  13.357  14.500   4.929
15444SOL    HW148106  13.277  14.543   4.957
15444SOL    HW248107  13.338  14.467   4.841
15445SOL     OW48108   3.584   0.288   9.386
15445SOL    HW148109   3.496   0.292   9.423
15445SOL    HW248110   3.641   0.322   9.455
15446SOL     OW48111   8.025   1.843  12.767
15446SOL    HW148112   7.950   1.839  12.708
15446SOL    HW248113   8.097   1.804  12.716
15447SOL     OW48114   0.646   0.518   6.153
15447SOL    HW148115   0.721   0.459   6.159
15447SOL    HW248116   0.587   0.490   6.223
15448SOL     OW48117   6.556   9.052   4.599
15448SOL    HW148118   6.484   9.023   4.542
15448SOL    HW248119   6.524   9.135   4.636
15449SOL     OW48120   9.904   8.176   4.132
15449SOL    HW148121   9.938   8.087   4.125
15449SOL    HW248122   9.864   8.180   4.219
15450SOL     OW48123   6.029  10.882  11.480
15450SOL    HW148124   6.087  10.806  11.480
15450SOL    HW248125   5.993  10.886  11.392
15451SOL     OW48126   2.732   7.751   6.357
15451SOL    HW148127   2.809   7.807   6.366
15451SOL    HW248128   2.658   7.809   6.375
15452SOL     OW48129   5.304  10.686   2.123
15452SOL    HW148130   5.379  10.646   2.080
15452SOL    HW248131   5.267  10.746   2.058
15453SOL     OW48132   1.708  12.594  12.051
15453SOL    HW148133   1.713  12.521  11.989
15453SOL    HW248134   1.644  12.654  12.012
15454SOL     OW48135  14.619   4.219  11.953
15454SOL    HW148136  14.539   4.190  11.908
15454SOL    HW248137  14.648   4.142  12.002
15455SOL     OW48138   8.396  11.834   5.653
15455SOL    HW148139   8.345  11.811   5.731
15455SOL    HW248140   8.373  11.924   5.634
15456SOL     OW48141   8.170   3.673  13.511
15456SOL    HW148142   8.156   3.609  13.582
15456SOL    HW248143   8.123   3.751  13.541
15457SOL     OW48144   6.416  14.027   6.906
15457SOL    HW148145   6.349  14.076   6.858
15457SOL    HW248146   6.499  14.064   6.876
15458SOL     OW48147   1.411   9.694   8.440
15458SOL    HW148148   1.382   9.762   8.380
15458SOL    HW248149   1.469   9.739   8.502
15459SOL     OW48150  12.838   4.831   1.260
15459SOL    HW148151  12.886   4.766   1.208
15459SOL    HW248152  12.870   4.915   1.227
15460SOL     OW48153  10.484  12.015   6.603
15460SOL    HW148154  10.494  11.985   6.513
15460SOL    HW248155  10.573  12.015   6.638
15461SOL     OW48156   8.210  13.452   8.365
15461SOL    HW148157   8.287  13.492   8.403
15461SOL    HW248158   8.148  13.444   8.438
15462SOL     OW48159  13.475  11.001   6.361
15462SOL    HW148160  13.527  11.046   6.294
15462SOL    HW248161  13.538  10.978   6.429
15463SOL     OW48162   8.428   9.439   0.743
15463SOL    HW148163   8.403   9.493   0.818
15463SOL    HW248164   8.476   9.498   0.685
15464SOL     OW48165  14.126   0.587   7.167
15464SOL    HW148166  14.046   0.570   7.116
15464SOL    HW248167  14.150   0.501   7.203
15465SOL     OW48168   7.516  12.244   1.482
15465SOL    HW148169   7.591  12.251   1.422
15465SOL    HW248170   7.542  12.175   1.544
15466SOL     OW48171   6.403   5.241  12.730
15466SOL    HW148172   6.386   5.244  12.636
15466SOL    HW248173   6.320   5.266  12.770
15467SOL     OW48174   4.015   2.089   2.635
15467SOL    HW148175   4.045   2.044   2.556
15467SOL    HW248176   3.921   2.072   2.639
15468SOL     OW48177   5.824   7.369   0.255
15468SOL    HW148178   5.770   7.445   0.279
15468SOL    HW248179   5.765   7.294   0.261
15469SOL     OW48180   1.838   8.795  12.722
15469SOL    HW148181   1.773   8.857  12.756
15469SOL    HW248182   1.877   8.839  12.647
15470SOL     OW48183  11.793   6.490  11.331
15470SOL    HW148184  11.726   6.474  11.398
15470SOL    HW248185  11.750   6.468  11.248
15471SOL     OW48186  13.592  12.400  12.930
15471SOL    HW148187  13.649  12.354  12.992
15471SOL    HW248188  13.622  12.491  12.932
15472SOL     OW48189  11.281   7.850   8.355
15472SOL    HW148190  11.283   7.839   8.260
15472SOL    HW248191  11.231   7.774   8.386
15473SOL     OW48192   9.483   1.970   4.593
15473SOL    HW148193   9.414   1.970   4.527
15473SOL    HW248194   9.439   1.944   4.674
15474SOL     OW48195   6.005   2.811   5.298
15474SOL    HW148196   5.979   2.769   5.379
15474SOL    HW248197   5.925   2.850   5.264
15475SOL     OW48198   5.875   6.009   0.742
15475SOL    HW148199   5.905   6.053   0.821
15475SOL    HW248200   5.893   5.916   0.757
15476SOL     OW48201   4.882   2.454   2.726
15476SOL    HW148202   4.789   2.455   2.747
15476SOL    HW248203   4.926   2.456   2.811
15477SOL     OW48204   0.124   3.153   0.824
15477SOL    HW148205   0.185   3.121   0.890
15477SOL    HW248206   0.150   3.244   0.809
15478SOL     OW48207   3.011   8.988   2.148
15478SOL    HW148208   2.948   8.952   2.210
15478SOL    HW248209   2.964   9.060   2.105
15479SOL     OW48210  12.774   8.214   1.967
15479SOL    HW148211  12.750   8.158   2.040
15479SOL    HW248212  12.699   8.273   1.956
15480SOL     OW48213  14.809  10.913   9.963
15480SOL    HW148214  14.800  10.861   9.884
15480SOL    HW248215  14.836  11.000   9.932
15481SOL     OW48216   9.786  11.636   0.610
15481SOL    HW148217   9.763  11.571   0.544
15481SOL    HW248218   9.710  11.638   0.669
15482SOL     OW48219  13.684   4.470  11.323
15482SOL    HW148220  13.749   4.403  11.304
15482SOL    HW248221  13.725   4.526  11.389
15483SOL     OW48222  11.883  14.625   8.077
15483SOL    HW148223  11.847  14.665   7.997
15483SOL    HW248224  11.841  14.539   8.081
15484SOL     OW48225   4.417  11.881   4.350
15484SOL    HW148226   4.392  11.814   4.413
15484SOL    HW248227   4.433  11.833   4.269
15485SOL     OW48228  14.425   1.559   3.214
15485SOL    HW148229  14.337   1.550   3.176
15485SOL    HW248230  14.410   1.567   3.308
15486SOL     OW48231   2.076  10.672  11.159
15486SOL    HW148232   2.156  10.719  11.183
15486SOL    HW248233   2.092  10.582  11.186
15487SOL     OW48234  10.193   1.404   4.999
15487SOL    HW148235  10.264   1.457   4.962
15487SOL    HW248236  10.197   1.321   4.951
15488SOL     OW48237  12.786  12.553  14.233
15488SOL    HW148238  12.721  12.519  14.295
15488SOL    HW248239  12.735  12.576  14.156
15489SOL     OW48240   8.425  12.941  10.529
15489SOL    HW148241   8.499  12.991  10.563
15489SOL    HW248242   8.349  12.975  10.577
15490SOL     OW48243   7.616  11.064   1.203
15490SOL    HW148244   7.597  10.971   1.208
15490SOL    HW248245   7.701  11.074   1.245
15491SOL     OW48246   3.758  14.273   7.001
15491SOL    HW148247   3.781  14.349   6.949
15491SOL    HW248248   3.770  14.199   6.942
15492SOL     OW48249  13.674   2.355  14.317
15492SOL    HW148250  13.689   2.271  14.359
15492SOL    HW248251  13.657   2.416  14.389
15493SOL     OW48252   6.115   0.024   0.955
15493SOL    HW148253   6.101  14.873   1.045
15493SOL    HW248254   6.128   0.119   0.961
15494SOL     OW48255   9.626  13.786   3.719
15494SOL    HW148256   9.538  13.772   3.755
15494SOL    HW248257   9.657  13.865   3.763
15495SOL     OW48258  13.941   5.533   3.313
15495SOL    HW148259  13.957   5.554   3.221
15495SOL    HW248260  13.863   5.478   3.312
15496SOL     OW48261   3.026  14.155   9.559
15496SOL    HW148262   2.990  14.243   9.567
15496SOL    HW248263   2.951  14.100   9.536
15497SOL     OW48264   7.984  12.437   8.930
15497SOL    HW148265   7.950  12.386   8.856
15497SOL    HW248266   7.917  12.503   8.946
15498SOL     OW48267   9.430   8.305  11.689
15498SOL    HW148268   9.452   8.394  11.716
15498SOL    HW248269   9.336   8.298  11.707
15499SOL     OW48270  10.431   0.180  11.687
15499SOL    HW148271  10.437   0.089  11.717
15499SOL    HW248272  10.336   0.195  11.680
15500SOL     OW48273   9.758   6.114   3.205
15500SOL    HW148274   9.776   6.177   3.275
15500SOL    HW248275   9.719   6.039   3.250
15501SOL     OW48276   7.200   6.469  14.264
15501SOL    HW148277   7.200   6.436  14.354
15501SOL    HW248278   7.159   6.398  14.213
15502SOL     OW48279  10.381   0.890  12.441
15502SOL    HW148280  10.447   0.832  12.480
15502SOL    HW248281  10.356   0.846  12.359
15503SOL     OW48282   1.393   0.575   9.660
15503SOL    HW148283   1.394   0.530   9.576
15503SOL    HW248284   1.480   0.559   9.697
15504SOL     OW48285   8.851   6.057   4.380
15504SOL    HW148286   8.888   6.145   4.382
15504SOL    HW248287   8.839   6.034   4.472
15505SOL     OW48288  10.383   6.286   6.456
15505SOL    HW148289  10.460   6.229   6.458
15505SOL    HW248290  10.359   6.299   6.547
15506SOL     OW48291  12.438   1.369   1.287
15506SOL    HW148292  12.498   1.369   1.213
15506SOL    HW248293  12.403   1.458   1.290
15507SOL     OW48294   1.438  13.486   2.505
15507SOL    HW148295   1.487  13.426   2.449
15507SOL    HW248296   1.454  13.454   2.594
15508SOL     OW48297  14.550   1.701   6.393
15508SOL    HW148298  14.615   1.658   6.448
15508SOL    HW248299  14.498   1.754   6.454
15509SOL     OW48300   9.946  10.406  11.741
15509SOL    HW148301   9.986  10.323  11.768
15509SOL    HW248302  10.020  10.462  11.718
15510SOL     OW48303   2.302   2.650   4.176
15510SOL    HW148304   2.257   2.591   4.116
15510SOL    HW248305   2.385   2.670   4.133
15511SOL     OW48306  12.417  11.415   1.688
15511SOL    HW148307  12.360  11.384   1.618
15511SOL    HW248308  12.454  11.336   1.727
15512SOL     OW48309  13.007   2.583  10.584
15512SOL    HW148310  13.057   2.633  10.519
15512SOL    HW248311  12.951   2.526  10.532
15513SOL     OW48312   8.836  10.067  11.977
15513SOL    HW148313   8.759  10.026  11.939
15513SOL    HW248314   8.902   9.997  11.979
15514SOL     OW48315   5.597  12.331   3.114
15514SOL    HW148316   5.633  12.401   3.060
15514SOL    HW248317   5.634  12.251   3.076
15515SOL     OW48318   3.289   4.606   7.081
15515SOL    HW148319   3.353   4.641   7.020
15515SOL    HW248320   3.316   4.640   7.166
15516SOL     OW48321   8.270   5.175  10.889
15516SOL    HW148322   8.324   5.253  10.875
15516SOL    HW248323   8.201   5.204  10.949
15517SOL     OW48324  10.772   9.351  12.914
15517SOL    HW148325  10.864   9.328  12.926
15517SOL    HW248326  10.732   9.334  13.000
15518SOL     OW48327   0.096   6.895   6.824
15518SOL    HW148328   0.189   6.874   6.821
15518SOL    HW248329   0.093   6.991   6.814
15519SOL     OW48330  13.531   3.463   2.202
15519SOL    HW148331  13.464   3.405   2.166
15519SOL    HW248332  13.611   3.410   2.201
15520SOL     OW48333   1.981  14.036  14.062
15520SOL    HW148334   2.015  14.093  13.994
15520SOL    HW248335   1.940  13.963  14.015
15521SOL     OW48336   9.774  12.988  12.352
15521SOL    HW148337   9.789  13.009  12.260
15521SOL    HW248338   9.756  12.894  12.352
15522SOL     OW48339  13.588   7.714  11.122
15522SOL    HW148340  13.608   7.627  11.158
15522SOL    HW248341  13.602   7.704  11.028
15523SOL     OW48342  11.945   6.544  13.685
15523SOL    HW148343  11.913   6.471  13.739
15523SOL    HW248344  11.910   6.526  13.598
15524SOL     OW48345  14.050  12.100   0.462
15524SOL    HW148346  13.994  12.177   0.452
15524SOL    HW248347  13.989  12.028   0.478
15525SOL     OW48348  12.713  10.128   9.452
15525SOL    HW148349  12.804  10.101   9.436
15525SOL    HW248350  12.691  10.091   9.538
15526SOL     OW48351  13.024   6.989   2.991
15526SOL    HW148352  13.044   6.938   2.913
15526SOL    HW248353  13.104   6.984   3.044
15527SOL     OW48354  10.010   9.879   8.839
15527SOL    HW148355  10.091   9.908   8.882
15527SOL    HW248356   9.940   9.916   8.893
15528SOL     OW48357   3.720  10.571  10.391
15528SOL    HW148358   3.709  10.635  10.461
15528SOL    HW248359   3.786  10.510  10.424
15529SOL     OW48360  10.880   5.100  12.263
15529SOL    HW148361  10.958   5.156  12.264
15529SOL    HW248362  10.809   5.158  12.234
15530SOL     OW48363  10.616   6.677  14.367
15530SOL    HW148364  10.684   6.686  14.434
15530SOL    HW248365  10.637   6.595  14.323
15531SOL     OW48366   5.853  10.788   8.653
15531SOL    HW148367   5.784  10.843   8.617
15531SOL    HW248368   5.885  10.738   8.578
15532SOL     OW48369   6.392  10.882  10.133
15532SOL    HW148370   6.308  10.877  10.179
15532SOL    HW248371   6.391  10.809  10.071
15533SOL     OW48372   3.782   2.911   8.516
15533SOL    HW148373   3.700   2.942   8.477
15533SOL    HW248374   3.785   2.953   8.602
15534SOL     OW48375  14.428   1.529   0.541
15534SOL    HW148376  14.426   1.522   0.446
15534SOL    HW248377  14.434   1.439   0.572
15535SOL     OW48378   1.635  11.164   2.225
15535SOL    HW148379   1.568  11.139   2.290
15535SOL    HW248380   1.639  11.259   2.231
15536SOL     OW48381  12.157  10.445   5.044
15536SOL    HW148382  12.162  10.527   5.093
15536SOL    HW248383  12.211  10.462   4.966
15537SOL     OW48384  12.015  10.577  13.377
15537SOL    HW148385  11.964  10.608  13.452
15537SOL    HW248386  11.954  10.578  13.304
15538SOL     OW48387   2.225   0.665   6.775
15538SOL    HW148388   2.218   0.575   6.743
15538SOL    HW248389   2.168   0.716   6.716
15539SOL     OW48390   0.385  12.325   0.997
15539SOL    HW148391   0.322  12.301   1.065
15539SOL    HW248392   0.364  12.416   0.976
15540SOL     OW48393  13.974   3.464  12.733
15540SOL    HW148394  13.889   3.464  12.776
15540SOL    HW248395  14.032   3.509  12.794
15541SOL     OW48396  11.319   0.904  12.861
15541SOL    HW148397  11.331   0.809  12.867
15541SOL    HW248398  11.271   0.927  12.941
15542SOL     OW48399  13.247  10.633   5.141
15542SOL    HW148400  13.176  10.696   5.134
15542SOL    HW248401  13.305  10.670   5.208
15543SOL     OW48402  13.147  13.734  10.812
15543SOL    HW148403  13.176  13.798  10.747
15543SOL    HW248404  13.174  13.771  10.896
15544SOL     OW48405   1.986  10.636   7.625
15544SOL    HW148406   2.031  10.685   7.557
15544SOL    HW248407   1.925  10.579   7.578
15545SOL     OW48408  10.200  10.634   1.153
15545SOL    HW148409  10.132  10.675   1.205
15545SOL    HW248410  10.250  10.581   1.215
15546SOL     OW48411  13.378  10.153   2.109
15546SOL    HW148412  13.317  10.120   2.043
15546SOL    HW248413  13.356  10.246   2.117
15547SOL     OW48414   1.471   4.633   8.621
15547SOL    HW148415   1.504   4.706   8.570
15547SOL    HW248416   1.426   4.578   8.556
15548SOL     OW48417  12.209  12.565   9.324
15548SOL    HW148418  12.127  12.519   9.305
15548SOL    HW248419  12.222  12.553   9.418
15549SOL     OW48420   9.176   4.179   9.783
15549SOL    HW148421   9.224   4.189   9.865
15549SOL    HW248422   9.198   4.258   9.733
15550SOL     OW48423  11.348   5.724   8.898
15550SOL    HW148424  11.359   5.801   8.953
15550SOL    HW248425  11.289   5.667   8.947
15551SOL     OW48426   2.490  10.527  12.013
15551SOL    HW148427   2.551  10.602  12.019
15551SOL    HW248428   2.530  10.460  12.068
15552SOL     OW48429   5.093   7.247   7.623
15552SOL    HW148430   5.030   7.204   7.680
15552SOL    HW248431   5.050   7.251   7.538
15553SOL     OW48432   2.046   6.064   9.245
15553SOL    HW148433   2.140   6.051   9.229
15553SOL    HW248434   2.041   6.090   9.337
15554SOL     OW48435   6.148   3.163  10.476
15554SOL    HW148436   6.158   3.131  10.386
15554SOL    HW248437   6.154   3.085  10.531
15555SOL     OW48438   8.121   2.922  10.675
15555SOL    HW148439   8.212   2.915  10.644
15555SOL    HW248440   8.095   2.832  10.693
15556SOL     OW48441   7.921   4.738   1.372
15556SOL    HW148442   7.932   4.811   1.312
15556SOL    HW248443   7.955   4.662   1.325
15557SOL     OW48444   5.064  14.360   0.631
15557SOL    HW148445   5.055  14.360   0.535
15557SOL    HW248446   4.975  14.353   0.663
15558SOL     OW48447   6.794  11.516   5.299
15558SOL    HW148448   6.863  11.554   5.245
15558SOL    HW248449   6.836  11.442   5.343
15559SOL     OW48450   1.224   4.764  14.146
15559SOL    HW148451   1.162   4.731  14.211
15559SOL    HW248452   1.253   4.848  14.181
15560SOL     OW48453  11.911  14.201  10.766
15560SOL    HW148454  11.982  14.216  10.828
15560SOL    HW248455  11.925  14.111  10.735
15561SOL     OW48456  10.694  13.569  11.960
15561SOL    HW148457  10.685  13.659  11.990
15561SOL    HW248458  10.767  13.534  12.012
15562SOL     OW48459   2.102   0.927  13.468
15562SOL    HW148460   2.037   0.991  13.496
15562SOL    HW248461   2.065   0.887  13.389
15563SOL     OW48462   1.161   9.919   1.368
15563SOL    HW148463   1.173   9.855   1.438
15563SOL    HW248464   1.144  10.001   1.414
15564SOL     OW48465  13.657   1.597   4.512
15564SOL    HW148466  13.626   1.519   4.467
15564SOL    HW248467  13.704   1.647   4.445
15565SOL     OW48468   6.208  14.601   9.681
15565SOL    HW148469   6.157  14.594   9.762
15565SOL    HW248470   6.180  14.526   9.628
15566SOL     OW48471   9.319   9.034  13.093
15566SOL    HW148472   9.264   9.076  13.027
15566SOL    HW248473   9.366   9.107  13.135
15567SOL     OW48474  12.824   7.903   3.604
15567SOL    HW148475  12.878   7.974   3.569
15567SOL    HW248476  12.885   7.848   3.652
15568SOL     OW48477   7.790   9.820   0.910
15568SOL    HW148478   7.710   9.807   0.961
15568SOL    HW248479   7.856   9.767   0.955
15569SOL     OW48480   9.547   3.692   9.135
15569SOL    HW148481   9.459   3.684   9.100
15569SOL    HW248482   9.580   3.602   9.137
15570SOL     OW48483  11.385  12.117   6.229
15570SOL    HW148484  11.326  12.042   6.242
15570SOL    HW248485  11.472  12.078   6.222
15571SOL     OW48486  14.437   5.365  12.745
15571SOL    HW148487  14.465   5.312  12.670
15571SOL    HW248488  14.477   5.322  12.821
15572SOL     OW48489   3.521   7.183   4.872
15572SOL    HW148490   3.571   7.156   4.949
15572SOL    HW248491   3.495   7.274   4.891
15573SOL     OW48492  14.800   9.754   6.358
15573SOL    HW148493  14.741   9.744   6.284
15573SOL    HW248494  14.792   9.672   6.406
15574SOL     OW48495   4.671   8.166  11.839
15574SOL    HW148496   4.729   8.091  11.852
15574SOL    HW248497   4.612   8.139  11.769
15575SOL     OW48498  14.659   9.910  13.059
15575SOL    HW148499  14.729   9.962  13.099
15575SOL    HW248500  14.582   9.967  13.061
15576SOL     OW48501  14.698   4.216   1.934
15576SOL    HW148502  14.661   4.250   1.853
15576SOL    HW248503  14.790   4.199   1.913
15577SOL     OW48504  10.750  13.631   1.240
15577SOL    HW148505  10.759  13.695   1.310
15577SOL    HW248506  10.698  13.675   1.174
15578SOL     OW48507   8.855   7.893   2.110
15578SOL    HW148508   8.917   7.907   2.181
15578SOL    HW248509   8.874   7.963   2.048
15579SOL     OW48510   4.236   7.927  11.749
15579SOL    HW148511   4.267   8.003  11.799
15579SOL    HW248512   4.234   7.856  11.813
15580SOL     OW48513   6.370   4.813   8.656
15580SOL    HW148514   6.377   4.880   8.588
15580SOL    HW248515   6.461   4.795   8.681
15581SOL     OW48516   2.369   2.186   6.098
15581SOL    HW148517   2.408   2.099   6.107
15581SOL    HW248518   2.278   2.169   6.073
15582SOL     OW48519   3.435   2.175   7.913
15582SOL    HW148520   3.473   2.258   7.942
15582SOL    HW248521   3.353   2.199   7.871
15583SOL     OW48522  14.715   1.804   6.650
15583SOL    HW148523  14.640   1.855   6.619
15583SOL    HW248524  14.732   1.741   6.580
15584SOL     OW48525   8.339  11.246   7.951
15584SOL    HW148526   8.306  11.249   8.041
15584SOL    HW248527   8.424  11.289   7.954
15585SOL     OW48528  12.917  11.980  12.158
15585SOL    HW148529  12.928  11.949  12.248
15585SOL    HW248530  12.994  11.945  12.112
15586SOL     OW48531   8.804  12.404   5.332
15586SOL    HW148532   8.856  12.337   5.288
15586SOL    HW248533   8.863  12.441   5.397
15587SOL     OW48534   2.472  12.015   7.737
15587SOL    HW148535   2.407  12.025   7.807
15587SOL    HW248536   2.453  11.929   7.700
15588SOL     OW48537   0.169   1.479   3.456
15588SOL    HW148538   0.150   1.464   3.548
15588SOL    HW248539   0.129   1.405   3.411
15589SOL     OW48540  13.711  11.579   5.778
15589SOL    HW148541  13.670  11.657   5.739
15589SOL    HW248542  13.664  11.566   5.860
15590SOL     OW48543  10.708   9.960   3.441
15590SOL    HW148544  10.769   9.995   3.376
15590SOL    HW248545  10.714  10.021   3.514
15591SOL     OW48546   1.102   3.022   4.450
15591SOL    HW148547   1.117   3.029   4.356
15591SOL    HW248548   1.111   3.111   4.483
15592SOL     OW48549  10.259  14.754   7.603
15592SOL    HW148550  10.333  14.747   7.543
15592SOL    HW248551  10.296  14.734   7.689
15593SOL     OW48552   2.196  11.066   8.251
15593SOL    HW148553   2.110  11.026   8.263
15593SOL    HW248554   2.254  11.015   8.307
15594SOL     OW48555  12.174   5.343   0.093
15594SOL    HW148556  12.101   5.391   0.133
15594SOL    HW248557  12.190   5.270   0.151
15595SOL     OW48558   4.619   0.193   0.817
15595SOL    HW148559   4.565   0.139   0.758
15595SOL    HW248560   4.639   0.135   0.890
15596SOL     OW48561   4.586   2.192  11.091
15596SOL    HW148562   4.538   2.258  11.141
15596SOL    HW248563   4.519   2.148  11.039
15597SOL     OW48564   0.925   4.933   9.752
15597SOL    HW148565   1.021   4.926   9.757
15597SOL    HW248566   0.910   5.017   9.710
15598SOL     OW48567  10.584   0.553   2.743
15598SOL    HW148568  10.521   0.561   2.815
15598SOL    HW248569  10.578   0.462   2.716
15599SOL     OW48570  10.371   0.144   6.196
15599SOL    HW148571  10.384   0.061   6.242
15599SOL    HW248572  10.277   0.156   6.194
15600SOL     OW48573   8.331  14.529   5.215
15600SOL    HW148574   8.348  14.436   5.201
15600SOL    HW248575   8.354  14.571   5.132
15601SOL     OW48576  13.487  10.297  10.939
15601SOL    HW148577  13.468  10.283  10.847
15601SOL    HW248578  13.476  10.211  10.980
15602SOL     OW48579   2.181   6.843   4.492
15602SOL    HW148580   2.214   6.778   4.555
15602SOL    HW248581   2.256   6.862   4.437
15603SOL     OW48582   9.227   4.353   4.798
15603SOL    HW148583   9.150   4.334   4.745
15603SOL    HW248584   9.226   4.286   4.867
15604SOL     OW48585  11.271  12.231   7.817
15604SOL    HW148586  11.281  12.153   7.763
15604SOL    HW248587  11.266  12.199   7.907
15605SOL     OW48588   5.240   6.815   4.417
15605SOL    HW148589   5.231   6.845   4.327
15605SOL    HW248590   5.184   6.737   4.422
15606SOL     OW48591  10.644   6.739   0.604
15606SOL    HW148592  10.569   6.702   0.652
15606SOL    HW248593  10.605   6.784   0.529
15607SOL     OW48594   1.014   1.041  14.044
15607SOL    HW148595   0.987   1.051  14.135
15607SOL    HW248596   1.060   0.957  14.042
15608SOL     OW48597  10.588   1.527   4.475
15608SOL    HW148598  10.615   1.618   4.478
15608SOL    HW248599  10.652   1.481   4.529
15609SOL     OW48600  13.355  13.860   9.194
15609SOL    HW148601  13.279  13.840   9.140
15609SOL    HW248602  13.353  13.955   9.204
15610SOL     OW48603   0.157   1.830   7.228
15610SOL    HW148604   0.219   1.759   7.212
15610SOL    HW248605   0.084   1.789   7.274
15611SOL     OW48606   6.124   1.644   8.883
15611SOL    HW148607   6.143   1.715   8.822
15611SOL    HW248608   6.175   1.570   8.851
15612SOL     OW48609   5.247   6.509  11.379
15612SOL    HW148610   5.294   6.463  11.449
15612SOL    HW248611   5.308   6.507  11.305
15613SOL     OW48612   2.074   2.636  12.622
15613SOL    HW148613   2.021   2.616  12.545
15613SOL    HW248614   2.095   2.550  12.659
15614SOL     OW48615  14.501   7.367   7.341
15614SOL    HW148616  14.584   7.375   7.388
15614SOL    HW248617  14.499   7.443   7.283
15615SOL     OW48618   9.428   5.620   0.245
15615SOL    HW148619   9.492   5.553   0.218
15615SOL    HW248620   9.349   5.599   0.195
15616SOL     OW48621   9.349   5.006   7.482
15616SOL    HW148622   9.265   5.050   7.471
15616SOL    HW248623   9.364   5.005   7.577
15617SOL     OW48624  12.043   3.630  14.258
15617SOL    HW148625  11.956   3.597  14.239
15617SOL    HW248626  12.099   3.552  14.262
15618SOL     OW48627   8.862   5.449   8.177
15618SOL    HW148628   8.882   5.503   8.254
15618SOL    HW248629   8.888   5.361   8.204
15619SOL     OW48630  13.438  14.426  13.943
15619SOL    HW148631  13.495  14.375  13.885
15619SOL    HW248632  13.413  14.364  14.012
15620SOL     OW48633   3.666   9.253   5.728
15620SOL    HW148634   3.628   9.165   5.735
15620SOL    HW248635   3.661   9.288   5.817
15621SOL     OW48636   1.872  14.450  11.671
15621SOL    HW148637   1.800  14.467  11.731
15621SOL    HW248638   1.833  14.455  11.583
15622SOL     OW48639  10.966   7.103   3.076
15622SOL    HW148640  10.891   7.130   3.024
15622SOL    HW248641  10.928   7.049   3.146
15623SOL     OW48642   1.681   0.778   9.903
15623SOL    HW148643   1.715   0.860   9.867
15623SOL    HW248644   1.637   0.803   9.984
15624SOL     OW48645   5.919  12.239  11.002
15624SOL    HW148646   5.932  12.315  10.946
15624SOL    HW248647   5.980  12.254  11.075
15625SOL     OW48648  10.811   7.771  13.160
15625SOL    HW148649  10.862   7.796  13.083
15625SOL    HW248650  10.762   7.850  13.183
15626SOL     OW48651   4.380   5.158   6.221
15626SOL    HW148652   4.446   5.112   6.170
15626SOL    HW248653   4.298   5.111   6.202
15627SOL     OW48654  10.561  11.206   7.003
15627SOL    HW148655  10.645  11.253   7.007
15627SOL    HW248656  10.495  11.275   7.014
15628SOL     OW48657   1.555  13.810  12.443
15628SOL    HW148658   1.641  13.777  12.417
15628SOL    HW248659   1.573  13.893  12.487
15629SOL     OW48660   9.904   6.272   5.795
15629SOL    HW148661   9.920   6.206   5.862
15629SOL    HW248662   9.877   6.222   5.718
15630SOL     OW48663   5.690   0.105   7.853
15630SOL    HW148664   5.736   0.085   7.934
15630SOL    HW248665   5.645   0.023   7.830
15631SOL     OW48666   3.645  10.879   1.840
15631SOL    HW148667   3.666  10.853   1.929
15631SOL    HW248668   3.683  10.966   1.830
15632SOL     OW48669  10.199   8.175   5.542
15632SOL    HW148670  10.124   8.145   5.594
15632SOL    HW248671  10.228   8.254   5.587
15633SOL     OW48672  14.648  12.682   1.898
15633SOL    HW148673  14.678  12.720   1.815
15633SOL    HW248674  14.726  12.678   1.952
15634SOL     OW48675   1.833   1.883  13.670
15634SOL    HW148676   1.920   1.846  13.651
15634SOL    HW248677   1.786   1.811  13.713
15635SOL     OW48678  10.280   0.895   7.568
15635SOL    HW148679  10.238   0.979   7.551
15635SOL    HW248680  10.239   0.835   7.505
15636SOL     OW48681   4.441   4.197   5.971
15636SOL    HW148682   4.482   4.110   5.963
15636SOL    HW248683   4.351   4.179   6.000
15637SOL     OW48684  10.525  11.665   6.420
15637SOL    HW148685  10.435  11.694   6.437
15637SOL    HW248686  10.566  11.739   6.377
15638SOL     OW48687  10.032   8.119   1.416
15638SOL    HW148688  10.035   8.203   1.370
15638SOL    HW248689   9.943   8.114   1.452
15639SOL     OW48690  11.996  10.774   0.210
15639SOL    HW148691  12.037  10.717   0.145
15639SOL    HW248692  12.060  10.779   0.281
15640SOL     OW48693   1.510  12.419  11.441
15640SOL    HW148694   1.495  12.484  11.372
15640SOL    HW248695   1.455  12.345  11.416
15641SOL     OW48696   4.618   3.409   5.745
15641SOL    HW148697   4.541   3.364   5.711
15641SOL    HW248698   4.692   3.360   5.710
15642SOL     OW48699  11.583   8.224   1.180
15642SOL    HW148700  11.668   8.193   1.149
15642SOL    HW248701  11.549   8.152   1.233
15643SOL     OW48702  12.826   8.644  12.011
15643SOL    HW148703  12.761   8.709  12.037
15643SOL    HW248704  12.828   8.649  11.915
15644SOL     OW48705   4.329   3.460  13.565
15644SOL    HW148706   4.299   3.494  13.481
15644SOL    HW248707   4.366   3.374  13.545
15645SOL     OW48708   1.832   2.147   3.903
15645SOL    HW148709   1.785   2.210   3.958
15645SOL    HW248710   1.896   2.200   3.856
15646SOL     OW48711  10.488   7.479  13.365
15646SOL    HW148712  10.580   7.453  13.376
15646SOL    HW248713  10.484   7.567  13.402
15647SOL     OW48714   5.294   3.960   0.388
15647SOL    HW148715   5.279   4.003   0.472
15647SOL    HW248716   5.375   4.000   0.355
15648SOL     OW48717   8.988   4.449  10.551
15648SOL    HW148718   9.022   4.493  10.628
15648SOL    HW248719   8.898   4.482  10.542
15649SOL     OW48720  10.442   7.784  13.383
15649SOL    HW148721  10.351   7.775  13.358
15649SOL    HW248722  10.441   7.780  13.479
15650SOL     OW48723   1.890  14.528   7.962
15650SOL    HW148724   1.806  14.556   7.996
15650SOL    HW248725   1.873  14.507   7.870
15651SOL     OW48726  12.446  13.355  10.131
15651SOL    HW148727  12.387  13.291  10.172
15651SOL    HW248728  12.501  13.386  10.203
15652SOL     OW48729  10.240   6.496   2.174
15652SOL    HW148730  10.198   6.414   2.146
15652SOL    HW248731  10.227   6.499   2.268
15653SOL     OW48732  12.629   8.164   9.823
15653SOL    HW148733  12.546   8.213   9.830
15653SOL    HW248734  12.632   8.137   9.731
15654SOL     OW48735   0.405   4.536   2.797
15654SOL    HW148736   0.447   4.622   2.792
15654SOL    HW248737   0.457   4.487   2.860
15655SOL     OW48738  13.379  14.402   3.364
15655SOL    HW148739  13.284  14.390   3.352
15655SOL    HW248740  13.397  14.488   3.325
15656SOL     OW48741   8.893  12.021  10.328
15656SOL    HW148742   8.888  11.941  10.381
15656SOL    HW248743   8.891  11.990  10.238
15657SOL     OW48744   4.106   8.265   0.832
15657SOL    HW148745   4.085   8.189   0.777
15657SOL    HW248746   4.026   8.318   0.832
15658SOL     OW48747   0.837   4.100  14.784
15658SOL    HW148748   0.811   4.126  14.696
15658SOL    HW248749   0.927   4.069  14.774
15659SOL     OW48750   3.790  14.244   9.148
15659SOL    HW148751   3.884  14.258   9.131
15659SOL    HW248752   3.778  14.150   9.142
15660SOL     OW48753   4.503   6.934  12.407
15660SOL    HW148754   4.537   6.956  12.320
15660SOL    HW248755   4.421   6.888  12.390
15661SOL     OW48756   6.898   6.569   4.941
15661SOL    HW148757   6.851   6.486   4.948
15661SOL    HW248758   6.976   6.557   4.995
15662SOL     OW48759  13.240   5.166   7.550
15662SOL    HW148760  13.320   5.200   7.511
15662SOL    HW248761  13.250   5.181   7.644
15663SOL     OW48762   9.713  12.584  13.479
15663SOL    HW148763   9.775  12.587  13.406
15663SOL    HW248764   9.762  12.547  13.552
15664SOL     OW48765   7.646  10.380  12.310
15664SOL    HW148766   7.600  10.296  12.304
15664SOL    HW248767   7.738  10.357  12.302
15665SOL     OW48768   6.885  13.213   1.109
15665SOL    HW148769   6.932  13.286   1.070
15665SOL    HW248770   6.801  13.210   1.063
15666SOL     OW48771   4.206  11.184   4.837
15666SOL    HW148772   4.243  11.252   4.893
15666SOL    HW248773   4.203  11.106   4.892
15667SOL     OW48774   1.467  11.617   0.167
15667SOL    HW148775   1.442  11.660   0.249
15667SOL    HW248776   1.506  11.534   0.194
15668SOL     OW48777   3.395  12.859   3.848
15668SOL    HW148778   3.434  12.775   3.870
15668SOL    HW248779   3.448  12.923   3.895
15669SOL     OW48780   3.083   9.301   6.806
15669SOL    HW148781   3.122   9.214   6.798
15669SOL    HW248782   3.103   9.328   6.896
15670SOL     OW48783  11.060   4.144   2.422
15670SOL    HW148784  11.156   4.147   2.431
15670SOL    HW248785  11.040   4.050   2.418
15671SOL     OW48786   8.824   6.049   2.024
15671SOL    HW148787   8.806   5.957   2.002
15671SOL    HW248788   8.807   6.097   1.943
15672SOL     OW48789   1.460   9.605  11.757
15672SOL    HW148790   1.552   9.587  11.777
15672SOL    HW248791   1.462   9.638  11.667
15673SOL     OW48792   9.370   3.467   8.141
15673SOL    HW148793   9.299   3.498   8.199
15673SOL    HW248794   9.365   3.525   8.065
15674SOL     OW48795   3.343   5.663  13.137
15674SOL    HW148796   3.299   5.729  13.083
15674SOL    HW248797   3.378   5.600  13.075
15675SOL     OW48798  14.548  13.213   5.196
15675SOL    HW148799  14.506  13.129   5.178
15675SOL    HW248800  14.545  13.221   5.292
15676SOL     OW48801  11.822   6.153   5.539
15676SOL    HW148802  11.892   6.186   5.482
15676SOL    HW248803  11.800   6.227   5.595
15677SOL     OW48804   2.020   9.428   3.093
15677SOL    HW148805   1.970   9.382   3.025
15677SOL    HW248806   2.105   9.384   3.095
15678SOL     OW48807   7.906   3.441  10.591
15678SOL    HW148808   7.813   3.419  10.601
15678SOL    HW248809   7.950   3.357  10.582
15679SOL     OW48810   3.252  13.005   5.336
15679SOL    HW148811   3.159  13.023   5.321
15679SOL    HW248812   3.269  12.925   5.285
15680SOL     OW48813   2.393   7.921   6.490
15680SOL    HW148814   2.389   7.937   6.584
15680SOL    HW248815   2.485   7.931   6.467
15681SOL     OW48816   4.304  11.501  13.806
15681SOL    HW148817   4.254  11.436  13.855
15681SOL    HW248818   4.290  11.583  13.854
15682SOL     OW48819  12.991   8.401   2.420
15682SOL    HW148820  13.061   8.454   2.457
15682SOL    HW248821  13.035   8.336   2.366
15683SOL     OW48822  11.833  12.216   1.273
15683SOL    HW148823  11.748  12.195   1.312
15683SOL    HW248824  11.815  12.225   1.180
15684SOL     OW48825   8.291  14.482   8.149
15684SOL    HW148826   8.368  14.526   8.185
15684SOL    HW248827   8.219  14.508   8.206
15685SOL     OW48828  11.906   5.774  10.444
15685SOL    HW148829  11.960   5.821  10.380
15685SOL    HW248830  11.968   5.721  10.494
15686SOL     OW48831   0.151   1.175   3.593
15686SOL    HW148832   0.113   1.229   3.524
15686SOL    HW248833   0.177   1.094   3.547
15687SOL     OW48834  12.845   8.263   9.949
15687SOL    HW148835  12.769   8.245   9.894
15687SOL    HW248836  12.825   8.221  10.032
15688SOL     OW48837   6.927   7.960   1.183
15688SOL    HW148838   7.019   7.935   1.194
15688SOL    HW248839   6.906   8.009   1.261
15689SOL     OW48840   3.605   1.394   8.182
15689SOL    HW148841   3.631   1.304   8.199
15689SOL    HW248842   3.556   1.420   8.260
15690SOL     OW48843  10.506  10.155   5.073
15690SOL    HW148844  10.480  10.242   5.104
15690SOL    HW248845  10.573  10.126   5.135
15691SOL     OW48846   3.239   5.098  14.519
15691SOL    HW148847   3.243   5.029  14.585
15691SOL    HW248848   3.240   5.180  14.569
15692SOL     OW48849   1.695   9.097   7.666
15692SOL    HW148850   1.761   9.031   7.689
15692SOL    HW248851   1.745   9.173   7.638
15693SOL     OW48852   9.079   3.514  13.026
15693SOL    HW148853   9.170   3.504  13.051
15693SOL    HW248854   9.070   3.607  13.003
15694SOL     OW48855   1.347   7.909   8.339
15694SOL    HW148856   1.307   7.972   8.398
15694SOL    HW248857   1.280   7.892   8.272
15695SOL     OW48858   1.577   4.229   2.251
15695SOL    HW148859   1.664   4.194   2.237
15695SOL    HW248860   1.523   4.153   2.271
15696SOL     OW48861   9.382  13.502   2.376
15696SOL    HW148862   9.356  13.429   2.432
15696SOL    HW248863   9.301  13.529   2.332
15697SOL     OW48864   2.890   7.588   8.234
15697SOL    HW148865   2.905   7.650   8.306
15697SOL    HW248866   2.977   7.571   8.199
15698SOL     OW48867   3.334  11.388   7.748
15698SOL    HW148868   3.317  11.421   7.836
15698SOL    HW248869   3.274  11.314   7.738
15699SOL     OW48870  14.749  13.732   7.098
15699SOL    HW148871  14.787  13.820   7.096
15699SOL    HW248872  14.801  13.681   7.037
15700SOL     OW48873   8.969   7.139   6.308
15700SOL    HW148874   9.010   7.127   6.222
15700SOL    HW248875   8.911   7.215   6.296
15701SOL     OW48876   5.497  12.809   4.989
15701SOL    HW148877   5.506  12.747   5.062
15701SOL    HW248878   5.472  12.754   4.915
15702SOL     OW48879  11.476  12.649   7.174
15702SOL    HW148880  11.442  12.559   7.173
15702SOL    HW248881  11.398  12.704   7.175
15703SOL     OW48882   7.087  12.658  13.516
15703SOL    HW148883   7.180  12.671  13.498
15703SOL    HW248884   7.058  12.597  13.449
15704SOL     OW48885  13.050   5.421   9.844
15704SOL    HW148886  13.055   5.359   9.771
15704SOL    HW248887  12.972   5.474   9.825
15705SOL     OW48888   8.517   4.527   2.138
15705SOL    HW148889   8.463   4.545   2.061
15705SOL    HW248890   8.503   4.603   2.195
15706SOL     OW48891  12.688   1.384  13.411
15706SOL    HW148892  12.764   1.443  13.418
15706SOL    HW248893  12.634   1.406  13.487
15707SOL     OW48894  11.279   1.083  12.100
15707SOL    HW148895  11.231   1.135  12.036
15707SOL    HW248896  11.249   1.115  12.185
15708SOL     OW48897   0.406   6.417  11.749
15708SOL    HW148898   0.319   6.413  11.789
15708SOL    HW248899   0.391   6.451  11.661
15709SOL     OW48900   6.223   8.656   8.601
15709SOL    HW148901   6.273   8.583   8.637
15709SOL    HW248902   6.251   8.662   8.509
15710SOL     OW48903  11.289   7.771   1.627
15710SOL    HW148904  11.204   7.790   1.588
15710SOL    HW248905  11.345   7.750   1.553
15711SOL     OW48906  12.347   2.704  13.426
15711SOL    HW148907  12.400   2.724  13.503
15711SOL    HW248908  12.310   2.618  13.444
15712SOL     OW48909   1.338  11.395  10.145
15712SOL    HW148910   1.420  11.374  10.101
15712SOL    HW248911   1.359  11.392  10.238
15713SOL     OW48912   8.221   1.479   8.965
15713SOL    HW148913   8.199   1.543   8.898
15713SOL    HW248914   8.276   1.415   8.921
15714SOL     OW48915   7.897  14.568   5.585
15714SOL    HW148916   7.909  14.527   5.671
15714SOL    HW248917   7.803  14.558   5.566
15715SOL     OW48918   7.348  10.818   2.971
15715SOL    HW148919   7.392  10.764   3.037
15715SOL    HW248920   7.260  10.832   3.006
15716SOL     OW48921  14.616   2.478  12.522
15716SOL    HW148922  14.562   2.507  12.449
15716SOL    HW248923  14.612   2.382  12.519
15717SOL     OW48924   1.789   9.248  12.438
15717SOL    HW148925   1.771   9.266  12.530
15717SOL    HW248926   1.705   9.258  12.394
15718SOL     OW48927   3.629  13.519   4.363
15718SOL    HW148928   3.619  13.492   4.454
15718SOL    HW248929   3.543  13.503   4.323
15719SOL     OW48930   1.467   3.937  10.535
15719SOL    HW148931   1.406   3.867  10.557
15719SOL    HW248932   1.535   3.895  10.484
15720SOL     OW48933  13.446   0.365  14.632
15720SOL    HW148934  13.490   0.387  14.714
15720SOL    HW248935  13.451   0.445  14.580
15721SOL     OW48936   8.744   8.601   7.338
15721SOL    HW148937   8.655   8.634   7.330
15721SOL    HW248938   8.776   8.597   7.248
15722SOL     OW48939   8.613  12.448  11.006
15722SOL    HW148940   8.665  12.437  11.085
15722SOL    HW248941   8.656  12.393  10.940
15723SOL     OW48942   6.475  11.540  13.207
15723SOL    HW148943   6.493  11.621  13.160
15723SOL    HW248944   6.466  11.474  13.138
15724SOL     OW48945   2.721   0.129   2.308
15724SOL    HW148946   2.778   0.178   2.248
15724SOL    HW248947   2.735   0.169   2.393
15725SOL     OW48948   3.975   6.172  13.034
15725SOL    HW148949   4.057   6.130  13.010
15725SOL    HW248950   3.945   6.124  13.111
15726SOL     OW48951   2.785  10.665   9.573
15726SOL    HW148952   2.748  10.604   9.636
15726SOL    HW248953   2.714  10.724   9.552
15727SOL     OW48954   1.727   5.281   1.727
15727SOL    HW148955   1.782   5.327   1.664
15727SOL    HW248956   1.640   5.282   1.688
15728SOL     OW48957  12.924   4.127   1.424
15728SOL    HW148958  12.996   4.067   1.444
15728SOL    HW248959  12.933   4.146   1.331
15729SOL     OW48960  10.466   7.912  12.389
15729SOL    HW148961  10.549   7.864  12.379
15729SOL    HW248962  10.487   8.002  12.362
15730SOL     OW48963  13.711  10.400  13.362
15730SOL    HW148964  13.667  10.375  13.281
15730SOL    HW248965  13.741  10.489  13.346
15731SOL     OW48966   1.389   0.609   8.039
15731SOL    HW148967   1.327   0.672   8.076
15731SOL    HW248968   1.349   0.583   7.956
15732SOL     OW48969  10.906   4.525  11.690
15732SOL    HW148970  10.844   4.584  11.647
15732SOL    HW248971  10.957   4.487  11.619
15733SOL     OW48972   8.688  10.519  13.532
15733SOL    HW148973   8.780  10.513  13.559
15733SOL    HW248974   8.648  10.440  13.568
15734SOL     OW48975  14.863   6.595   4.335
15734SOL    HW148976   0.038   6.515   4.341
15734SOL    HW248977  14.789   6.570   4.280
15735SOL     OW48978  14.049   4.321  14.659
15735SOL    HW148979  14.082   4.288  14.576
15735SOL    HW248980  14.037   4.415  14.645
15736SOL     OW48981   1.759  14.292   8.387
15736SOL    HW148982   1.755  14.226   8.456
15736SOL    HW248983   1.836  14.344   8.408
15737SOL     OW48984   6.909  12.073  14.603
15737SOL    HW148985   6.920  12.093  14.510
15737SOL    HW248986   6.856  11.993  14.604
15738SOL     OW48987   8.889  12.844   5.918
15738SOL    HW148988   8.984  12.843   5.902
15738SOL    HW248989   8.878  12.901   5.994
15739SOL     OW48990  12.518   5.326  13.489
15739SOL    HW148991  12.572   5.266  13.437
15739SOL    HW248992  12.459   5.367  13.426
15740SOL     OW48993   0.549   7.951   6.902
15740SOL    HW148994   0.564   7.976   6.811
15740SOL    HW248995   0.580   7.860   6.907
15741SOL     OW48996  13.469  12.857  11.322
15741SOL    HW148997  13.539  12.847  11.386
15741SOL    HW248998  13.514  12.860  11.238
15742SOL     OW48999   1.045   5.407   6.426
15742SOL    HW149000   1.015   5.379   6.513
15742SOL    HW249001   1.113   5.344   6.403
15743SOL     OW49002   1.104  11.488   5.356
15743SOL    HW149003   1.151  11.515   5.435
15743SOL    HW249004   1.096  11.393   5.365
15744SOL     OW49005   4.775   8.541   5.381
15744SOL    HW149006   4.780   8.450   5.352
15744SOL    HW249007   4.688   8.570   5.353
15745SOL     OW49008   6.753   2.113   8.226
15745SOL    HW149009   6.819   2.102   8.158
15745SOL    HW249010   6.780   2.054   8.296
15746SOL     OW49011   5.152   6.966   3.678
15746SOL    HW149012   5.216   7.012   3.624
15746SOL    HW249013   5.160   6.874   3.651
15747SOL     OW49014   0.899  13.144   2.744
15747SOL    HW149015   0.936  13.056   2.741
15747SOL    HW249016   0.902  13.168   2.837
15748SOL     OW49017   6.025   7.460   7.082
15748SOL    HW149018   6.102   7.416   7.117
15748SOL    HW249019   6.060   7.536   7.036
15749SOL     OW49020   6.032   4.988   5.937
15749SOL    HW149021   5.997   4.992   6.025
15749SOL    HW249022   5.957   4.971   5.881
15750SOL     OW49023   6.600   4.226   2.928
15750SOL    HW149024   6.646   4.149   2.962
15750SOL    HW249025   6.535   4.189   2.868
15751SOL     OW49026  10.793   8.675   7.876
15751SOL    HW149027  10.785   8.745   7.941
15751SOL    HW249028  10.709   8.674   7.830
15752SOL     OW49029   4.282   1.087   2.768
15752SOL    HW149030   4.291   1.025   2.696
15752SOL    HW249031   4.298   1.173   2.728
15753SOL     OW49032   8.768   4.681   8.624
15753SOL    HW149033   8.821   4.603   8.609
15753SOL    HW249034   8.816   4.730   8.691
15754SOL     OW49035   7.364   9.191  13.644
15754SOL    HW149036   7.275   9.216  13.619
15754SOL    HW249037   7.398   9.142  13.568
15755SOL     OW49038   9.346   4.765  10.736
15755SOL    HW149039   9.287   4.806  10.673
15755SOL    HW249040   9.427   4.816  10.731
15756SOL     OW49041   1.449   6.729  10.117
15756SOL    HW149042   1.486   6.812  10.147
15756SOL    HW249043   1.382   6.708  10.182
15757SOL     OW49044  10.903   4.987   7.839
15757SOL    HW149045  10.895   5.031   7.923
15757SOL    HW249046  10.997   4.982   7.823
15758SOL     OW49047   0.020  10.357   6.968
15758SOL    HW149048   0.044  10.449   6.960
15758SOL    HW249049  14.828  10.355   7.034
15759SOL     OW49050  14.284   6.819   2.578
15759SOL    HW149051  14.280   6.758   2.505
15759SOL    HW249052  14.366   6.798   2.623
15760SOL     OW49053   4.744  13.217   8.141
15760SOL    HW149054   4.681  13.150   8.166
15760SOL    HW249055   4.730  13.288   8.203
15761SOL     OW49056  14.370   6.231  11.845
15761SOL    HW149057  14.306   6.241  11.916
15761SOL    HW249058  14.422   6.312  11.849
15762SOL     OW49059  10.723   1.404   5.392
15762SOL    HW149060  10.697   1.321   5.351
15762SOL    HW249061  10.672   1.407   5.473
15763SOL     OW49062   5.585   4.220   7.077
15763SOL    HW149063   5.521   4.153   7.054
15763SOL    HW249064   5.606   4.263   6.994
15764SOL     OW49065  14.344  14.497   3.395
15764SOL    HW149066  14.386  14.521   3.477
15764SOL    HW249067  14.255  14.472   3.420
15765SOL     OW49068   3.485  14.680   7.453
15765SOL    HW149069   3.443  14.594   7.453
15765SOL    HW249070   3.430  14.734   7.397
15766SOL     OW49071   8.849   9.305   0.287
15766SOL    HW149072   8.763   9.321   0.325
15766SOL    HW249073   8.845   9.346   0.201
15767SOL     OW49074   6.540  10.955   2.019
15767SOL    HW149075   6.504  10.965   1.931
15767SOL    HW249076   6.627  10.918   2.005
15768SOL     OW49077   7.264  11.495   0.242
15768SOL    HW149078   7.274  11.568   0.302
15768SOL    HW249079   7.291  11.418   0.292
15769SOL     OW49080   4.239   1.698   9.644
15769SOL    HW149081   4.209   1.712   9.554
15769SOL    HW249082   4.332   1.676   9.635
15770SOL     OW49083  14.411  11.034  10.764
15770SOL    HW149084  14.353  10.990  10.826
15770SOL    HW249085  14.425  10.969  10.695
15771SOL     OW49086  14.064  11.122   2.411
15771SOL    HW149087  14.092  11.127   2.319
15771SOL    HW249088  13.986  11.067   2.409
15772SOL     OW49089  12.224  13.504   9.708
15772SOL    HW149090  12.154  13.539   9.652
15772SOL    HW249091  12.299  13.560   9.691
15773SOL     OW49092  12.918   5.029   3.318
15773SOL    HW149093  12.890   4.946   3.356
15773SOL    HW249094  12.840   5.062   3.273
15774SOL     OW49095  12.886  14.354   7.306
15774SOL    HW149096  12.931  14.306   7.376
15774SOL    HW249097  12.798  14.318   7.304
15775SOL     OW49098   6.135   7.463  11.486
15775SOL    HW149099   6.150   7.397  11.418
15775SOL    HW249100   6.040   7.462  11.499
15776SOL     OW49101  14.810   2.248  11.380
15776SOL    HW149102  14.869   2.174  11.365
15776SOL    HW249103  14.866   2.316  11.418
15777SOL     OW49104   5.731   9.990   8.138
15777SOL    HW149105   5.754  10.032   8.222
15777SOL    HW249106   5.686  10.059   8.089
15778SOL     OW49107  13.718   8.249   7.528
15778SOL    HW149108  13.693   8.223   7.439
15778SOL    HW249109  13.811   8.228   7.534
15779SOL     OW49110   4.905  11.354   4.330
15779SOL    HW149111   4.986  11.363   4.381
15779SOL    HW249112   4.934  11.324   4.244
15780SOL     OW49113   1.729   1.632   1.918
15780SOL    HW149114   1.792   1.560   1.913
15780SOL    HW249115   1.653   1.601   1.870
15781SOL     OW49116   3.050   3.573  12.380
15781SOL    HW149117   3.127   3.621  12.351
15781SOL    HW249118   3.075   3.536  12.465
15782SOL     OW49119   7.691   2.412  11.758
15782SOL    HW149120   7.663   2.418  11.666
15782SOL    HW249121   7.762   2.348  11.756
15783SOL     OW49122   0.293   5.769  12.242
15783SOL    HW149123   0.337   5.726  12.168
15783SOL    HW249124   0.251   5.697  12.290
15784SOL     OW49125   0.089   3.450   9.977
15784SOL    HW149126   0.134   3.367   9.992
15784SOL    HW249127  14.874   3.431   9.996
15785SOL     OW49128   4.608   0.447   4.754
15785SOL    HW149129   4.669   0.438   4.828
15785SOL    HW249130   4.631   0.530   4.713
15786SOL     OW49131  14.273   7.122   8.035
15786SOL    HW149132  14.253   7.160   7.949
15786SOL    HW249133  14.357   7.078   8.023
15787SOL     OW49134  11.785  13.843  12.805
15787SOL    HW149135  11.830  13.895  12.738
15787SOL    HW249136  11.701  13.821  12.765
15788SOL     OW49137   6.711   3.224  11.453
15788SOL    HW149138   6.643   3.206  11.388
15788SOL    HW249139   6.681   3.304  11.496
15789SOL     OW49140   7.681   5.855   1.320
15789SOL    HW149141   7.611   5.915   1.292
15789SOL    HW249142   7.680   5.785   1.256
15790SOL     OW49143  13.428   8.608   5.272
15790SOL    HW149144  13.480   8.543   5.319
15790SOL    HW249145  13.338   8.595   5.304
15791SOL     OW49146  12.258  12.051   5.794
15791SOL    HW149147  12.201  12.056   5.871
15791SOL    HW249148  12.287  11.960   5.791
15792SOL     OW49149   6.249  11.255   5.434
15792SOL    HW149150   6.169  11.291   5.474
15792SOL    HW249151   6.287  11.328   5.386
15793SOL     OW49152   6.056  10.434   4.368
15793SOL    HW149153   5.994  10.408   4.437
15793SOL    HW249154   6.010  10.503   4.320
15794SOL     OW49155  12.005   2.804   4.258
15794SOL    HW149156  12.092   2.802   4.297
15794SOL    HW249157  11.992   2.716   4.223
15795SOL     OW49158  14.236   4.121   5.813
15795SOL    HW149159  14.233   4.212   5.844
15795SOL    HW249160  14.323   4.113   5.772
15796SOL     OW49161   2.430   8.752   3.436
15796SOL    HW149162   2.420   8.796   3.351
15796SOL    HW249163   2.516   8.778   3.467
15797SOL     OW49164   5.708   9.759   1.565
15797SOL    HW149165   5.677   9.674   1.535
15797SOL    HW249166   5.638   9.820   1.540
15798SOL     OW49167   4.102  11.207  10.572
15798SOL    HW149168   4.057  11.238  10.650
15798SOL    HW249169   4.144  11.285  10.536
15799SOL     OW49170   0.606   9.721  11.508
15799SOL    HW149171   0.684   9.674  11.477
15799SOL    HW249172   0.565   9.661  11.571
15800SOL     OW49173   2.615   4.731   3.365
15800SOL    HW149174   2.633   4.670   3.437
15800SOL    HW249175   2.701   4.769   3.344
15801SOL     OW49176  14.283   4.073   9.118
15801SOL    HW149177  14.220   4.095   9.186
15801SOL    HW249178  14.368   4.081   9.161
15802SOL     OW49179   8.407   6.685   1.830
15802SOL    HW149180   8.425   6.592   1.833
15802SOL    HW249181   8.413   6.708   1.737
15803SOL     OW49182   9.294   2.486  12.910
15803SOL    HW149183   9.318   2.394  12.898
15803SOL    HW249184   9.300   2.501  13.005
15804SOL     OW49185   6.020  13.836   9.913
15804SOL    HW149186   5.995  13.920   9.875
15804SOL    HW249187   5.951  13.818   9.977
15805SOL     OW49188   5.431  14.748   2.161
15805SOL    HW149189   5.364  14.680   2.169
15805SOL    HW249190   5.493  14.714   2.097
15806SOL     OW49191   3.267   7.230   0.691
15806SOL    HW149192   3.283   7.138   0.709
15806SOL    HW249193   3.353   7.271   0.693
15807SOL     OW49194   4.091  11.735   9.131
15807SOL    HW149195   4.145  11.656   9.135
15807SOL    HW249196   4.151  11.807   9.153
15808SOL     OW49197  10.732  11.007  10.376
15808SOL    HW149198  10.802  11.071  10.362
15808SOL    HW249199  10.759  10.958  10.454
15809SOL     OW49200  12.439   7.984   8.356
15809SOL    HW149201  12.519   8.002   8.405
15809SOL    HW249202  12.464   7.998   8.264
15810SOL     OW49203  12.136   0.791   9.931
15810SOL    HW149204  12.202   0.727   9.904
15810SOL    HW249205  12.119   0.771  10.023
15811SOL     OW49206   7.586  13.252   4.951
15811SOL    HW149207   7.562  13.176   4.898
15811SOL    HW249208   7.531  13.246   5.029
15812SOL     OW49209   6.144   4.165  10.862
15812SOL    HW149210   6.201   4.241  10.866
15812SOL    HW249211   6.181   4.109  10.794
15813SOL     OW49212  11.717   5.800  12.923
15813SOL    HW149213  11.701   5.884  12.967
15813SOL    HW249214  11.787   5.759  12.974
15814SOL     OW49215   0.908  11.446   9.463
15814SOL    HW149216   0.908  11.374   9.400
15814SOL    HW249217   0.917  11.525   9.410
15815SOL     OW49218   7.558   6.100  12.371
15815SOL    HW149219   7.634   6.042  12.371
15815SOL    HW249220   7.592   6.185  12.400
15816SOL     OW49221   5.474  14.704   4.279
15816SOL    HW149222   5.469  14.789   4.235
15816SOL    HW249223   5.567  14.681   4.276
15817SOL     OW49224   1.698   8.870   8.831
15817SOL    HW149225   1.760   8.881   8.759
15817SOL    HW249226   1.632   8.809   8.797
15818SOL     OW49227   4.755  13.243  12.107
15818SOL    HW149228   4.693  13.316  12.106
15818SOL    HW249229   4.731  13.191  12.183
15819SOL     OW49230  13.267  12.412  11.133
15819SOL    HW149231  13.187  12.364  11.109
15819SOL    HW249232  13.250  12.501  11.103
15820SOL     OW49233   2.784  11.759   8.980
15820SOL    HW149234   2.839  11.683   8.997
15820SOL    HW249235   2.711  11.750   9.042
15821SOL     OW49236   7.417  11.110  14.707
15821SOL    HW149237   7.461  11.032  14.673
15821SOL    HW249238   7.432  11.107  14.802
15822SOL     OW49239   7.568   0.796   4.167
15822SOL    HW149240   7.482   0.780   4.205
15822SOL    HW249241   7.616   0.714   4.180
15823SOL     OW49242  10.458  14.557   9.622
15823SOL    HW149243  10.390  14.574   9.687
15823SOL    HW249244  10.538  14.547   9.674
15824SOL     OW49245   3.738   7.414  11.281
15824SOL    HW149246   3.786   7.496  11.296
15824SOL    HW249247   3.710   7.420  11.189
15825SOL     OW49248   0.436   4.420   3.882
15825SOL    HW149249   0.362   4.478   3.903
15825SOL    HW249250   0.432   4.410   3.787
15826SOL     OW49251   8.910   6.481   2.732
15826SOL    HW149252   8.939   6.481   2.640
15826SOL    HW249253   8.936   6.395   2.765
15827SOL     OW49254  12.458   6.896  10.098
15827SOL    HW149255  12.534   6.931  10.052
15827SOL    HW249256  12.410   6.973  10.127
15828SOL     OW49257  14.439  12.668  12.589
15828SOL    HW149258  14.360  12.707  12.626
15828SOL    HW249259  14.411  12.635  12.504
15829SOL     OW49260   6.537  11.798  11.220
15829SOL    HW149261   6.580  11.716  11.241
15829SOL    HW249262   6.573  11.861  11.282
15830SOL     OW49263   0.822   3.454  11.741
15830SOL    HW149264   0.855   3.372  11.778
15830SOL    HW249265   0.764   3.489  11.808
15831SOL     OW49266   4.179   3.603   7.658
15831SOL    HW149267   4.107   3.600   7.595
15831SOL    HW249268   4.149   3.549   7.731
15832SOL     OW49269   9.888  11.789  10.251
15832SOL    HW149270   9.921  11.733  10.180
15832SOL    HW249271   9.929  11.753  10.330
15833SOL     OW49272   6.614   3.264  10.524
15833SOL    HW149273   6.579   3.286  10.438
15833SOL    HW249274   6.681   3.330  10.540
15834SOL     OW49275  10.273   0.132   2.948
15834SOL    HW149276  10.353   0.122   3.000
15834SOL    HW249277  10.297   0.193   2.878
15835SOL     OW49278  14.401   4.647   2.343
15835SOL    HW149279  14.401   4.630   2.437
15835SOL    HW249280  14.342   4.721   2.332
15836SOL     OW49281   1.766   0.022   2.790
15836SOL    HW149282   1.679   0.020   2.828
15836SOL    HW249283   1.759  14.845   2.711
15837SOL     OW49284   2.254   5.835   1.177
15837SOL    HW149285   2.182   5.811   1.235
15837SOL    HW249286   2.282   5.921   1.209
15838SOL     OW49287   2.764   5.978   0.154
15838SOL    HW149288   2.720   5.912   0.101
15838SOL    HW249289   2.855   5.949   0.157
15839SOL     OW49290  13.738  14.536   2.646
15839SOL    HW149291  13.671  14.524   2.579
15839SOL    HW249292  13.748  14.450   2.686
15840SOL     OW49293  11.877  12.593   7.944
15840SOL    HW149294  11.850  12.514   7.897
15840SOL    HW249295  11.854  12.665   7.885
15841SOL     OW49296  12.061  12.360   1.361
15841SOL    HW149297  12.102  12.374   1.275
15841SOL    HW249298  11.984  12.308   1.343
15842SOL     OW49299  12.838   3.257  11.159
15842SOL    HW149300  12.914   3.301  11.122
15842SOL    HW249301  12.845   3.166  11.130
15843SOL     OW49302  12.072   3.534   1.233
15843SOL    HW149303  12.049   3.487   1.153
15843SOL    HW249304  12.152   3.581   1.211
15844SOL     OW49305   8.107  10.242   2.733
15844SOL    HW149306   8.201  10.244   2.755
15844SOL    HW249307   8.072  10.170   2.785
15845SOL     OW49308  14.625  12.784   4.998
15845SOL    HW149309  14.557  12.723   5.028
15845SOL    HW249310  14.591  12.819   4.916
15846SOL     OW49311  11.738  10.180  12.364
15846SOL    HW149312  11.692  10.151  12.286
15846SOL    HW249313  11.829  10.188  12.338
15847SOL     OW49314  11.551   5.796   8.412
15847SOL    HW149315  11.475   5.809   8.355
15847SOL    HW249316  11.527   5.720   8.466
15848SOL     OW49317   9.975  10.151  13.900
15848SOL    HW149318   9.973  10.089  13.827
15848SOL    HW249319  10.069  10.162  13.918
15849SOL     OW49320   0.096   0.118   2.854
15849SOL    HW149321   0.026   0.068   2.813
15849SOL    HW249322   0.100   0.084   2.944
15850SOL     OW49323   3.886   2.087   3.455
15850SOL    HW149324   3.920   2.166   3.414
15850SOL    HW249325   3.814   2.117   3.510
15851SOL     OW49326   0.398  12.599   4.989
15851SOL    HW149327   0.494  12.606   4.982
15851SOL    HW249328   0.376  12.648   5.068
15852SOL     OW49329  10.016  14.771   7.407
15852SOL    HW149330  10.055  14.825   7.338
15852SOL    HW249331  10.083  14.765   7.475
15853SOL     OW49332   1.092   9.914  12.188
15853SOL    HW149333   1.164   9.860  12.156
15853SOL    HW249334   1.130   9.965  12.259
15854SOL     OW49335  12.953  10.573   5.974
15854SOL    HW149336  13.031  10.628   5.982
15854SOL    HW249337  12.924  10.559   6.064
15855SOL     OW49338  11.350  12.721  10.385
15855SOL    HW149339  11.307  12.717  10.471
15855SOL    HW249340  11.400  12.802  10.386
15856SOL     OW49341   3.009   8.888  12.707
15856SOL    HW149342   2.967   8.802  12.700
15856SOL    HW249343   2.951   8.947  12.659
15857SOL     OW49344   9.886  13.915   9.619
15857SOL    HW149345   9.851  13.928   9.531
15857SOL    HW249346   9.926  13.999   9.642
15858SOL     OW49347  13.283   1.404   2.187
15858SOL    HW149348  13.233   1.365   2.115
15858SOL    HW249349  13.221   1.410   2.259
15859SOL     OW49350   2.582  11.252   1.208
15859SOL    HW149351   2.663  11.250   1.258
15859SOL    HW249352   2.588  11.331   1.154
15860SOL     OW49353  11.333  14.641   2.407
15860SOL    HW149354  11.287  14.557   2.404
15860SOL    HW249355  11.277  14.700   2.356
15861SOL     OW49356   0.167   8.158  10.812
15861SOL    HW149357   0.101   8.221  10.782
15861SOL    HW249358   0.122   8.107  10.880
15862SOL     OW49359   8.894   9.102   7.001
15862SOL    HW149360   8.912   9.038   6.933
15862SOL    HW249361   8.863   9.179   6.954
15863SOL     OW49362   7.284   0.444  10.256
15863SOL    HW149363   7.329   0.482  10.331
15863SOL    HW249364   7.305   0.351  10.260
15864SOL     OW49365   5.904  11.970   2.946
15864SOL    HW149366   5.814  12.003   2.954
15864SOL    HW249367   5.948  12.000   3.026
15865SOL     OW49368  12.275   7.864   3.541
15865SOL    HW149369  12.282   7.885   3.634
15865SOL    HW249370  12.184   7.837   3.530
15866SOL     OW49371   5.354   6.631   4.662
15866SOL    HW149372   5.410   6.667   4.731
15866SOL    HW249373   5.381   6.678   4.583
15867SOL     OW49374  11.038   1.715  14.475
15867SOL    HW149375  11.072   1.663  14.402
15867SOL    HW249376  11.113   1.766  14.504
15868SOL     OW49377   1.537   4.285  13.555
15868SOL    HW149378   1.582   4.356  13.601
15868SOL    HW249379   1.456   4.271  13.605
15869SOL     OW49380   4.803   5.847  11.953
15869SOL    HW149381   4.856   5.894  12.017
15869SOL    HW249382   4.866   5.792  11.906
15870SOL     OW49383   4.788   6.473   2.783
15870SOL    HW149384   4.708   6.517   2.753
15870SOL    HW249385   4.856   6.505   2.724
15871SOL     OW49386   2.347   0.538  10.315
15871SOL    HW149387   2.352   0.469  10.380
15871SOL    HW249388   2.321   0.493  10.234
15872SOL     OW49389   5.918   0.625   3.957
15872SOL    HW149390   5.889   0.545   4.001
15872SOL    HW249391   5.912   0.605   3.864
15873SOL     OW49392  14.549  12.710  14.474
15873SOL    HW149393  14.454  12.711  14.486
15873SOL    HW249394  14.567  12.779  14.410
15874SOL     OW49395   3.992   4.252   6.177
15874SOL    HW149396   3.983   4.317   6.108
15874SOL    HW249397   3.906   4.251   6.220
15875SOL     OW49398  13.941   4.406   9.181
15875SOL    HW149399  14.013   4.412   9.243
15875SOL    HW249400  13.878   4.347   9.223
15876SOL     OW49401  14.540   6.732   2.094
15876SOL    HW149402  14.510   6.642   2.104
15876SOL    HW249403  14.629   6.732   2.131
15877SOL     OW49404  14.066  14.486   9.855
15877SOL    HW149405  14.066  14.424   9.781
15877SOL    HW249406  14.110  14.564   9.821
15878SOL     OW49407   7.376  13.953   4.666
15878SOL    HW149408   7.394  13.958   4.572
15878SOL    HW249409   7.449  13.904   4.702
15879SOL     OW49410   6.956  14.730   6.867
15879SOL    HW149411   6.920  14.758   6.784
15879SOL    HW249412   7.039  14.778   6.875
15880SOL     OW49413   9.842   9.541   8.847
15880SOL    HW149414   9.854   9.595   8.925
15880SOL    HW249415   9.823   9.453   8.881
15881SOL     OW49416  14.617  11.919  10.811
15881SOL    HW149417  14.537  11.943  10.858
15881SOL    HW249418  14.655  12.002  10.782
15882SOL     OW49419  13.441  11.137  10.854
15882SOL    HW149420  13.534  11.159  10.848
15882SOL    HW249421  13.413  11.129  10.763
15883SOL     OW49422   9.305   6.125  10.740
15883SOL    HW149423   9.356   6.052  10.704
15883SOL    HW249424   9.221   6.120  10.694
15884SOL     OW49425   0.857  12.279  14.868
15884SOL    HW149426   0.789  12.242  14.812
15884SOL    HW249427   0.818  12.278   0.079
15885SOL     OW49428   6.349  14.257  13.892
15885SOL    HW149429   6.263  14.217  13.900
15885SOL    HW249430   6.378  14.234  13.804
15886SOL     OW49431   2.821  11.657  10.902
15886SOL    HW149432   2.757  11.681  10.835
15886SOL    HW249433   2.890  11.611  10.854
15887SOL     OW49434  11.337  11.886   7.280
15887SOL    HW149435  11.339  11.838   7.197
15887SOL    HW249436  11.248  11.873   7.313
15888SOL     OW49437   8.683   6.951   7.493
15888SOL    HW149438   8.728   6.890   7.434
15888SOL    HW249439   8.741   6.958   7.569
15889SOL     OW49440   2.992   9.001   7.345
15889SOL    HW149441   3.037   8.931   7.299
15889SOL    HW249442   2.993   8.974   7.437
15890SOL     OW49443   3.526   9.468  13.680
15890SOL    HW149444   3.489   9.380  13.690
15890SOL    HW249445   3.590   9.474  13.751
15891SOL     OW49446  10.495  13.309   7.248
15891SOL    HW149447  10.555  13.326   7.320
15891SOL    HW249448  10.408  13.307   7.289
15892SOL     OW49449   1.317   2.134   7.696
15892SOL    HW149450   1.343   2.170   7.611
15892SOL    HW249451   1.259   2.061   7.675
15893SOL     OW49452  13.950  11.716   9.588
15893SOL    HW149453  13.859  11.719   9.618
15893SOL    HW249454  13.970  11.623   9.580
15894SOL     OW49455  13.694   3.224   8.938
15894SOL    HW149456  13.653   3.162   8.878
15894SOL    HW249457  13.621   3.269   8.980
15895SOL     OW49458   8.202  10.581   8.626
15895SOL    HW149459   8.109  10.559   8.619
15895SOL    HW249460   8.247  10.497   8.613
15896SOL     OW49461   7.967  11.500   7.641
15896SOL    HW149462   7.893  11.555   7.616
15896SOL    HW249463   7.934  11.447   7.713
15897SOL     OW49464  13.451   5.634   8.246
15897SOL    HW149465  13.467   5.592   8.330
15897SOL    HW249466  13.421   5.722   8.269
15898SOL     OW49467   6.986   9.447   5.059
15898SOL    HW149468   6.954   9.517   5.116
15898SOL    HW249469   6.985   9.485   4.972
15899SOL     OW49470   2.967   1.868   5.325
15899SOL    HW149471   2.944   1.897   5.236
15899SOL    HW249472   3.054   1.905   5.340
15900SOL     OW49473   9.129   2.543   3.340
15900SOL    HW149474   9.169   2.524   3.425
15900SOL    HW249475   9.048   2.589   3.362
15901SOL     OW49476   3.442  12.975   3.009
15901SOL    HW149477   3.395  12.978   3.093
15901SOL    HW249478   3.435  12.884   2.981
15902SOL     OW49479   1.501   1.526   2.466
15902SOL    HW149480   1.580   1.573   2.438
15902SOL    HW249481   1.476   1.568   2.548
15903SOL     OW49482  10.140   2.053   7.590
15903SOL    HW149483  10.105   2.075   7.677
15903SOL    HW249484  10.229   2.022   7.607
15904SOL     OW49485   1.658   9.558  10.094
15904SOL    HW149486   1.643   9.558  10.000
15904SOL    HW249487   1.741   9.513  10.105
15905SOL     OW49488   7.543   4.025   8.165
15905SOL    HW149489   7.493   3.945   8.183
15905SOL    HW249490   7.625   4.014   8.214
15906SOL     OW49491   4.803   7.475  11.171
15906SOL    HW149492   4.871   7.476  11.103
15906SOL    HW249493   4.747   7.550  11.150
15907SOL     OW49494   4.704   1.781   9.775
15907SOL    HW149495   4.737   1.715   9.835
15907SOL    HW249496   4.686   1.857   9.830
15908SOL     OW49497   3.045  10.112   6.819
15908SOL    HW149498   2.951  10.111   6.801
15908SOL    HW249499   3.075  10.024   6.796
15909SOL     OW49500   4.728  12.293  12.163
15909SOL    HW149501   4.648  12.309  12.213
15909SOL    HW249502   4.726  12.356  12.092
15910SOL     OW49503  12.888  11.480   4.461
15910SOL    HW149504  12.906  11.406   4.402
15910SOL    HW249505  12.920  11.451   4.546
15911SOL     OW49506   0.974   6.115  12.721
15911SOL    HW149507   0.920   6.037  12.718
15911SOL    HW249508   0.930   6.177  12.663
15912SOL     OW49509  13.220   6.831   6.745
15912SOL    HW149510  13.228   6.862   6.835
15912SOL    HW249511  13.151   6.764   6.749
15913SOL     OW49512  14.042   3.864  12.727
15913SOL    HW149513  14.029   3.840  12.635
15913SOL    HW249514  14.073   3.783  12.768
15914SOL     OW49515   5.967  14.601   0.762
15914SOL    HW149516   6.041  14.543   0.778
15914SOL    HW249517   5.913  14.555   0.698
15915SOL     OW49518   8.505   2.771   1.790
15915SOL    HW149519   8.586   2.812   1.760
15915SOL    HW249520   8.530   2.724   1.870
15916SOL     OW49521   0.204   0.939   3.471
15916SOL    HW149522   0.214   0.866   3.533
15916SOL    HW249523   0.280   0.932   3.414
15917SOL     OW49524   1.210   7.435   9.041
15917SOL    HW149525   1.214   7.525   9.074
15917SOL    HW249526   1.222   7.381   9.119
15918SOL     OW49527   5.067   6.492  10.281
15918SOL    HW149528   5.103   6.521  10.365
15918SOL    HW249529   4.979   6.529  10.278
15919SOL     OW49530   9.134   3.831   1.076
15919SOL    HW149531   9.125   3.841   0.982
15919SOL    HW249532   9.156   3.739   1.088
15920SOL     OW49533   5.195  10.017   1.802
15920SOL    HW149534   5.161   9.930   1.824
15920SOL    HW249535   5.125  10.077   1.829
15921SOL     OW49536   4.837   0.466   3.348
15921SOL    HW149537   4.890   0.397   3.388
15921SOL    HW249538   4.897   0.540   3.339
15922SOL     OW49539   7.313   2.300   2.473
15922SOL    HW149540   7.381   2.256   2.524
15922SOL    HW249541   7.345   2.390   2.463
15923SOL     OW49542  14.451  13.750   6.355
15923SOL    HW149543  14.396  13.809   6.303
15923SOL    HW249544  14.510  13.808   6.403
15924SOL     OW49545   9.280  10.351   4.578
15924SOL    HW149546   9.300  10.443   4.560
15924SOL    HW249547   9.337  10.303   4.518
15925SOL     OW49548   1.903   3.395   7.072
15925SOL    HW149549   1.867   3.482   7.055
15925SOL    HW249550   1.938   3.366   6.988
15926SOL     OW49551  13.108   7.673   4.213
15926SOL    HW149552  13.160   7.671   4.132
15926SOL    HW249553  13.147   7.743   4.265
15927SOL     OW49554   0.074  10.107  13.337
15927SOL    HW149555   0.097  10.050  13.263
15927SOL    HW249556  14.857  10.093  13.349
15928SOL     OW49557  12.406  13.392   6.861
15928SOL    HW149558  12.322  13.393   6.905
15928SOL    HW249559  12.469  13.371   6.929
15929SOL     OW49560   8.176   2.517  14.535
15929SOL    HW149561   8.091   2.494  14.496
15929SOL    HW249562   8.237   2.517  14.462
15930SOL     OW49563  10.714   1.414   9.503
15930SOL    HW149564  10.719   1.455   9.416
15930SOL    HW249565  10.802   1.420   9.538
15931SOL     OW49566   9.224   2.160   4.991
15931SOL    HW149567   9.167   2.236   4.992
15931SOL    HW249568   9.259   2.155   5.080
15932SOL     OW49569   5.601   5.175   5.245
15932SOL    HW149570   5.584   5.161   5.152
15932SOL    HW249571   5.516   5.160   5.287
15933SOL     OW49572  11.914   4.469  12.213
15933SOL    HW149573  11.832   4.510  12.240
15933SOL    HW249574  11.962   4.455  12.295
15934SOL     OW49575  11.856   0.125   7.191
15934SOL    HW149576  11.878   0.048   7.138
15934SOL    HW249577  11.769   0.106   7.225
15935SOL     OW49578   2.467   5.834   0.919
15935SOL    HW149579   2.378   5.825   0.952
15935SOL    HW249580   2.517   5.768   0.968
15936SOL     OW49581   0.735   2.637  13.204
15936SOL    HW149582   0.709   2.716  13.157
15936SOL    HW249583   0.697   2.648  13.292
15937SOL     OW49584   0.529   9.995   7.069
15937SOL    HW149585   0.604   9.937   7.082
15937SOL    HW249586   0.554  10.051   6.995
15938SOL     OW49587   9.761   8.708  10.926
15938SOL    HW149588   9.823   8.777  10.901
15938SOL    HW249589   9.804   8.627  10.900
15939SOL     OW49590   2.503   8.805  14.254
15939SOL    HW149591   2.506   8.809  14.158
15939SOL    HW249592   2.583   8.757  14.278
15940SOL     OW49593   1.034   7.834  14.572
15940SOL    HW149594   1.031   7.861  14.481
15940SOL    HW249595   1.099   7.891  14.612
15941SOL     OW49596  10.649   9.769   8.211
15941SOL    HW149597  10.741   9.750   8.228
15941SOL    HW249598  10.641   9.864   8.222
15942SOL     OW49599  13.321   5.658   6.905
15942SOL    HW149600  13.281   5.736   6.867
15942SOL    HW249601  13.266   5.637   6.980
15943SOL     OW49602  10.594   4.810   1.341
15943SOL    HW149603  10.666   4.750   1.358
15943SOL    HW249604  10.627   4.868   1.272
15944SOL     OW49605   9.984   0.329  11.284
15944SOL    HW149606  10.051   0.391  11.313
15944SOL    HW249607   9.901   0.369  11.313
15945SOL     OW49608   4.812   5.200   3.017
15945SOL    HW149609   4.889   5.219   2.963
15945SOL    HW249610   4.739   5.241   2.969
15946SOL     OW49611   5.050  14.003   4.963
15946SOL    HW149612   5.144  13.986   4.950
15946SOL    HW249613   5.028  13.956   5.043
15947SOL     OW49614   4.735   3.492   6.933
15947SOL    HW149615   4.715   3.441   7.011
15947SOL    HW249616   4.716   3.433   6.860
15948SOL     OW49617  12.470   1.737   0.938
15948SOL    HW149618  12.521   1.750   1.017
15948SOL    HW249619  12.521   1.675   0.886
15949SOL     OW49620   3.688   2.637  13.879
15949SOL    HW149621   3.696   2.639  13.975
15949SOL    HW249622   3.656   2.724  13.856
15950SOL     OW49623   4.354  12.319   3.430
15950SOL    HW149624   4.342  12.232   3.394
15950SOL    HW249625   4.442  12.318   3.467
15951SOL     OW49626   4.631   5.905   9.377
15951SOL    HW149627   4.683   5.843   9.429
15951SOL    HW249628   4.633   5.869   9.288
15952SOL     OW49629  11.818   1.013  12.542
15952SOL    HW149630  11.728   1.003  12.572
15952SOL    HW249631  11.859   0.928  12.561
15953SOL     OW49632  14.121  11.397   8.570
15953SOL    HW149633  14.051  11.435   8.517
15953SOL    HW249634  14.144  11.316   8.525
15954SOL     OW49635  13.075   9.508  14.789
15954SOL    HW149636  13.144   9.442  14.793
15954SOL    HW249637  13.024   9.485  14.711
15955SOL     OW49638   1.779   1.582   6.730
15955SOL    HW149639   1.698   1.531   6.727
15955SOL    HW249640   1.784   1.624   6.644
15956SOL     OW49641   0.102  11.605   6.414
15956SOL    HW149642   0.035  11.665   6.447
15956SOL    HW249643   0.129  11.643   6.331
15957SOL     OW49644   3.720  14.720   3.028
15957SOL    HW149645   3.799  14.670   3.009
15957SOL    HW249646   3.717  14.724   3.124
15958SOL     OW49647   7.452   1.882   2.769
15958SOL    HW149648   7.361   1.886   2.740
15958SOL    HW249649   7.450   1.915   2.859
15959SOL     OW49650   3.408   5.227  10.843
15959SOL    HW149651   3.410   5.254  10.935
15959SOL    HW249652   3.353   5.149  10.841
15960SOL     OW49653  14.074  13.498   4.020
15960SOL    HW149654  14.105  13.477   3.932
15960SOL    HW249655  14.045  13.590   4.014
15961SOL     OW49656   9.888   8.511  10.775
15961SOL    HW149657   9.844   8.447  10.720
15961SOL    HW249658   9.962   8.542  10.722
15962SOL     OW49659   7.630   4.203  10.906
15962SOL    HW149660   7.722   4.213  10.881
15962SOL    HW249661   7.581   4.242  10.834
15963SOL     OW49662   1.192   3.243  13.302
15963SOL    HW149663   1.267   3.193  13.269
15963SOL    HW249664   1.214   3.261  13.394
15964SOL     OW49665   7.576  14.436  11.045
15964SOL    HW149666   7.481  14.430  11.033
15964SOL    HW249667   7.601  14.516  11.000
15965SOL     OW49668   0.967   7.343   8.192
15965SOL    HW149669   1.041   7.342   8.252
15965SOL    HW249670   0.890   7.347   8.248
15966SOL     OW49671  10.093   0.427   1.651
15966SOL    HW149672  10.062   0.444   1.739
15966SOL    HW249673  10.024   0.376   1.609
15967SOL     OW49674  13.307   4.613  12.364
15967SOL    HW149675  13.277   4.560  12.289
15967SOL    HW249676  13.345   4.691  12.324
15968SOL     OW49677   3.017  10.116  13.089
15968SOL    HW149678   2.957  10.186  13.114
15968SOL    HW249679   3.068  10.098  13.168
15969SOL     OW49680   8.523   7.458  12.137
15969SOL    HW149681   8.561   7.510  12.208
15969SOL    HW249682   8.494   7.523  12.073
15970SOL     OW49683   2.755   1.971  13.556
15970SOL    HW149684   2.663   1.982  13.582
15970SOL    HW249685   2.774   2.048  13.503
15971SOL     OW49686  13.711  13.354   1.103
15971SOL    HW149687  13.745  13.395   1.024
15971SOL    HW249688  13.785  13.352   1.163
15972SOL     OW49689  10.008   6.336   4.755
15972SOL    HW149690   9.954   6.401   4.710
15972SOL    HW249691  10.000   6.257   4.701
15973SOL     OW49692  14.294   7.466   5.784
15973SOL    HW149693  14.299   7.417   5.702
15973SOL    HW249694  14.273   7.555   5.756
15974SOL     OW49695   0.923   2.715  14.814
15974SOL    HW149696   0.879   2.775  14.753
15974SOL    HW249697   0.877   2.632  14.802
15975SOL     OW49698   9.098  14.854   6.816
15975SOL    HW149699   9.171   0.029   6.783
15975SOL    HW249700   9.122  14.764   6.796
15976SOL     OW49701   5.780  10.131  14.825
15976SOL    HW149702   5.772  10.042  14.859
15976SOL    HW249703   5.783  10.120  14.730
15977SOL     OW49704   4.271   6.737   7.271
15977SOL    HW149705   4.202   6.790   7.311
15977SOL    HW249706   4.339   6.801   7.247
15978SOL     OW49707   4.119   2.756   5.954
15978SOL    HW149708   4.070   2.718   5.881
15978SOL    HW249709   4.185   2.811   5.913
15979SOL     OW49710   5.912   8.670   0.884
15979SOL    HW149711   5.961   8.752   0.871
15979SOL    HW249712   5.949   8.610   0.820
15980SOL     OW49713   7.571   5.791   6.033
15980SOL    HW149714   7.558   5.881   6.063
15980SOL    HW249715   7.666   5.783   6.025
15981SOL     OW49716   0.267   9.806   9.786
15981SOL    HW149717   0.334   9.859   9.830
15981SOL    HW249718   0.239   9.743   9.852
15982SOL     OW49719   5.621   0.710   6.410
15982SOL    HW149720   5.584   0.712   6.322
15982SOL    HW249721   5.707   0.668   6.399
15983SOL     OW49722   0.202  13.944   4.154
15983SOL    HW149723   0.286  13.964   4.197
15983SOL    HW249724   0.224  13.933   4.062
15984SOL     OW49725  14.125   4.113   9.333
15984SOL    HW149726  14.041   4.076   9.360
15984SOL    HW249727  14.118   4.206   9.354
15985SOL     OW49728   3.844  13.906   3.714
15985SOL    HW149729   3.913  13.930   3.776
15985SOL    HW249730   3.873  13.823   3.677
15986SOL     OW49731   1.926   6.309  11.046
15986SOL    HW149732   1.906   6.313  10.953
15986SOL    HW249733   1.848   6.342  11.089
15987SOL     OW49734   4.707  10.761  14.513
15987SOL    HW149735   4.670  10.688  14.464
15987SOL    HW249736   4.745  10.818  14.446
15988SOL     OW49737   7.213   7.563   9.000
15988SOL    HW149738   7.206   7.658   8.992
15988SOL    HW249739   7.271   7.550   9.075
15989SOL     OW49740  14.714   8.037  13.935
15989SOL    HW149741  14.642   8.053  13.996
15989SOL    HW249742  14.788   8.085  13.973
15990SOL     OW49743   8.168  13.511   5.254
15990SOL    HW149744   8.102  13.456   5.296
15990SOL    HW249745   8.117  13.577   5.207
15991SOL     OW49746   8.122  10.982   4.382
15991SOL    HW149747   8.180  10.946   4.315
15991SOL    HW249748   8.155  10.945   4.464
15992SOL     OW49749   8.124   6.875   9.385
15992SOL    HW149750   8.140   6.788   9.348
15992SOL    HW249751   8.170   6.875   9.468
15993SOL     OW49752  10.347  12.227   2.225
15993SOL    HW149753  10.358  12.152   2.284
15993SOL    HW249754  10.293  12.289   2.275
15994SOL     OW49755  12.532   2.248   2.956
15994SOL    HW149756  12.591   2.230   3.029
15994SOL    HW249757  12.591   2.274   2.884
15995SOL     OW49758   6.825   2.612  11.485
15995SOL    HW149759   6.771   2.680  11.525
15995SOL    HW249760   6.888   2.587  11.553
15996SOL     OW49761   9.618  11.697  12.113
15996SOL    HW149762   9.678  11.756  12.067
15996SOL    HW249763   9.630  11.718  12.205
15997SOL     OW49764   0.345   1.101  14.633
15997SOL    HW149765   0.350   1.009  14.660
15997SOL    HW249766   0.296   1.100  14.551
15998SOL     OW49767   4.901   2.095   4.998
15998SOL    HW149768   4.902   2.042   4.918
15998SOL    HW249769   4.836   2.052   5.053
15999SOL     OW49770  11.887   6.851   5.621
15999SOL    HW149771  11.934   6.901   5.554
15999SOL    HW249772  11.956   6.819   5.679
16000SOL     OW49773   0.106  13.546  12.472
16000SOL    HW149774   0.195  13.535  12.505
16000SOL    HW249775   0.076  13.627  12.513
16001SOL     OW49776  13.344   4.690   2.200
16001SOL    HW149777  13.359   4.743   2.122
16001SOL    HW249778  13.431   4.681   2.240
16002SOL     OW49779  13.487   9.662   9.287
16002SOL    HW149780  13.583   9.665   9.296
16002SOL    HW249781  13.456   9.632   9.373
16003SOL     OW49782  13.133   4.981  14.644
16003SOL    HW149783  13.066   4.913  14.639
16003SOL    HW249784  13.216   4.933  14.645
16004SOL     OW49785   6.505   2.454   1.996
16004SOL    HW149786   6.459   2.376   1.966
16004SOL    HW249787   6.555   2.424   2.072
16005SOL     OW49788   5.425   1.043  12.380
16005SOL    HW149789   5.356   1.041  12.447
16005SOL    HW249790   5.386   1.095  12.309
16006SOL     OW49791   0.419  11.698   8.429
16006SOL    HW149792   0.348  11.760   8.446
16006SOL    HW249793   0.415  11.636   8.501
16007SOL     OW49794   3.249   9.412   9.280
16007SOL    HW149795   3.217   9.390   9.367
16007SOL    HW249796   3.240   9.331   9.230
16008SOL     OW49797  11.782  13.733   4.633
16008SOL    HW149798  11.759  13.826   4.635
16008SOL    HW249799  11.740  13.700   4.553
16009SOL     OW49800  13.043   7.588  12.211
16009SOL    HW149801  12.982   7.549  12.275
16009SOL    HW249802  12.987   7.615  12.138
16010SOL     OW49803  12.249  11.591   3.931
16010SOL    HW149804  12.239  11.634   3.846
16010SOL    HW249805  12.172  11.616   3.981
16011SOL     OW49806   5.658   8.904   3.968
16011SOL    HW149807   5.749   8.875   3.961
16011SOL    HW249808   5.649   8.932   4.059
16012SOL     OW49809   2.425  13.545   1.253
16012SOL    HW149810   2.517  13.517   1.246
16012SOL    HW249811   2.379  13.494   1.186
16013SOL     OW49812   9.569   7.027   5.805
16013SOL    HW149813   9.660   7.035   5.774
16013SOL    HW249814   9.518   7.079   5.743
16014SOL     OW49815  11.935  11.295  13.871
16014SOL    HW149816  11.927  11.336  13.785
16014SOL    HW249817  11.940  11.201  13.852
16015SOL     OW49818   8.540   2.148   8.896
16015SOL    HW149819   8.496   2.191   8.970
16015SOL    HW249820   8.632   2.170   8.906
16016SOL     OW49821   2.318   2.703   5.628
16016SOL    HW149822   2.384   2.773   5.633
16016SOL    HW249823   2.285   2.695   5.717
16017SOL     OW49824   0.754   4.916  11.874
16017SOL    HW149825   0.670   4.950  11.845
16017SOL    HW249826   0.795   4.881  11.795
16018SOL     OW49827   2.387   6.510  13.521
16018SOL    HW149828   2.389   6.414  13.522
16018SOL    HW249829   2.473   6.536  13.553
16019SOL     OW49830   2.474   9.236   4.635
16019SOL    HW149831   2.492   9.313   4.690
16019SOL    HW249832   2.388   9.255   4.596
16020SOL     OW49833   0.240  12.837  13.771
16020SOL    HW149834   0.298  12.858  13.698
16020SOL    HW249835   0.270  12.751  13.802
16021SOL     OW49836   2.785   2.338  11.294
16021SOL    HW149837   2.784   2.408  11.229
16021SOL    HW249838   2.809   2.260  11.244
16022SOL     OW49839   1.212   2.155  12.796
16022SOL    HW149840   1.237   2.154  12.703
16022SOL    HW249841   1.144   2.222  12.802
16023SOL     OW49842   7.412   6.865  14.695
16023SOL    HW149843   7.410   6.958  14.674
16023SOL    HW249844   7.487   6.831  14.646
16024SOL     OW49845   0.754  13.074   7.106
16024SOL    HW149846   0.697  13.141   7.067
16024SOL    HW249847   0.738  13.081   7.200
16025SOL     OW49848  13.050  11.581   5.520
16025SOL    HW149849  12.990  11.600   5.592
16025SOL    HW249850  13.083  11.493   5.540
16026SOL     OW49851   4.204   0.465   9.834
16026SOL    HW149852   4.144   0.510   9.774
16026SOL    HW249853   4.287   0.510   9.823
16027SOL     OW49854   6.958  12.645  12.152
16027SOL    HW149855   7.033  12.596  12.186
16027SOL    HW249856   6.886  12.582  12.152
16028SOL     OW49857   0.833   8.324   0.186
16028SOL    HW149858   0.774   8.350   0.258
16028SOL    HW249859   0.919   8.317   0.228
16029SOL     OW49860   2.412   4.087   3.365
16029SOL    HW149861   2.319   4.097   3.384
16029SOL    HW249862   2.423   4.124   3.278
16030SOL     OW49863  11.249   4.566   3.871
16030SOL    HW149864  11.191   4.490   3.875
16030SOL    HW249865  11.323   4.542   3.927
16031SOL     OW49866   0.639   2.256   3.751
16031SOL    HW149867   0.734   2.248   3.750
16031SOL    HW249868   0.621   2.334   3.698
16032SOL     OW49869   8.420   5.743   4.551
16032SOL    HW149870   8.397   5.659   4.510
16032SOL    HW249871   8.383   5.809   4.494
16033SOL     OW49872   9.748  11.505   5.713
16033SOL    HW149873   9.703  11.421   5.714
16033SOL    HW249874   9.678  11.570   5.703
16034SOL     OW49875   0.634   9.416   5.041
16034SOL    HW149876   0.565   9.350   5.044
16034SOL    HW249877   0.588   9.500   5.034
16035SOL     OW49878   5.419   3.807  14.152
16035SOL    HW149879   5.385   3.875  14.209
16035SOL    HW249880   5.350   3.793  14.087
16036SOL     OW49881   8.154   8.143  12.339
16036SOL    HW149882   8.159   8.052  12.310
16036SOL    HW249883   8.161   8.195  12.259
16037SOL     OW49884   0.761   6.709   8.314
16037SOL    HW149885   0.666   6.703   8.327
16037SOL    HW249886   0.795   6.742   8.397
16038SOL     OW49887   1.355   2.888   4.552
16038SOL    HW149888   1.277   2.926   4.511
16038SOL    HW249889   1.326   2.802   4.584
16039SOL     OW49890  13.806  12.146   2.034
16039SOL    HW149891  13.819  12.055   2.009
16039SOL    HW249892  13.895  12.182   2.038
16040SOL     OW49893   4.142  13.719   7.648
16040SOL    HW149894   4.156  13.808   7.679
16040SOL    HW249895   4.094  13.676   7.720
16041SOL     OW49896   3.123   7.180   1.246
16041SOL    HW149897   3.056   7.246   1.228
16041SOL    HW249898   3.183   7.223   1.306
16042SOL     OW49899  11.611   8.485  11.415
16042SOL    HW149900  11.542   8.539  11.375
16042SOL    HW249901  11.564   8.409  11.450
16043SOL     OW49902   9.295   2.144  10.142
16043SOL    HW149903   9.230   2.206  10.111
16043SOL    HW249904   9.375   2.168  10.096
16044SOL     OW49905   2.875   3.582  10.255
16044SOL    HW149906   2.919   3.542  10.180
16044SOL    HW249907   2.816   3.647  10.217
16045SOL     OW49908   4.314  11.201  12.397
16045SOL    HW149909   4.229  11.221  12.358
16045SOL    HW249910   4.378  11.235  12.334
16046SOL     OW49911  14.710   2.076   0.773
16046SOL    HW149912  14.782   2.083   0.711
16046SOL    HW249913  14.749   2.099   0.858
16047SOL     OW49914   6.740   1.895   7.648
16047SOL    HW149915   6.766   1.871   7.559
16047SOL    HW249916   6.657   1.851   7.662
16048SOL     OW49917  11.013   4.117   2.000
16048SOL    HW149918  10.994   4.063   1.923
16048SOL    HW249919  11.093   4.080   2.036
16049SOL     OW49920   7.162   0.046   9.660
16049SOL    HW149921   7.106  14.847   9.653
16049SOL    HW249922   7.168   0.080   9.570
16050SOL     OW49923   1.513   9.136  11.017
16050SOL    HW149924   1.558   9.076  10.957
16050SOL    HW249925   1.438   9.168  10.966
16051SOL     OW49926   0.101   2.013   2.736
16051SOL    HW149927   0.122   2.072   2.664
16051SOL    HW249928   0.007   2.026   2.750
16052SOL     OW49929  12.907   5.001  12.235
16052SOL    HW149930  12.951   5.037  12.158
16052SOL    HW249931  12.978   4.969  12.291
16053SOL     OW49932   1.347   4.808   0.714
16053SOL    HW149933   1.438   4.827   0.691
16053SOL    HW249934   1.338   4.841   0.804
16054SOL     OW49935  11.541  12.175   1.979
16054SOL    HW149936  11.518  12.176   2.072
16054SOL    HW249937  11.485  12.108   1.940
16055SOL     OW49938   4.321   6.579  12.666
16055SOL    HW149939   4.271   6.630  12.730
16055SOL    HW249940   4.257   6.520  12.626
16056SOL     OW49941   2.006   9.559   9.802
16056SOL    HW149942   2.013   9.625   9.870
16056SOL    HW249943   2.000   9.476   9.849
16057SOL     OW49944  12.246   8.060   1.665
16057SOL    HW149945  12.293   7.978   1.675
16057SOL    HW249946  12.233   8.091   1.755
16058SOL     OW49947  12.889   7.425  12.637
16058SOL    HW149948  12.810   7.402  12.687
16058SOL    HW249949  12.915   7.344  12.595
16059SOL     OW49950   5.912   8.561   2.197
16059SOL    HW149951   5.942   8.550   2.107
16059SOL    HW249952   5.968   8.629   2.233
16060SOL     OW49953   5.158   8.408  10.467
16060SOL    HW149954   5.250   8.409  10.440
16060SOL    HW249955   5.117   8.345  10.407
16061SOL     OW49956  11.618   4.935  12.791
16061SOL    HW149957  11.608   5.023  12.753
16061SOL    HW249958  11.624   4.877  12.715
16062SOL     OW49959   9.101  10.223   7.208
16062SOL    HW149960   9.109  10.128   7.201
16062SOL    HW249961   9.007  10.239   7.206
16063SOL     OW49962   5.722  11.472  13.790
16063SOL    HW149963   5.643  11.516  13.759
16063SOL    HW249964   5.709  11.464  13.885
16064SOL     OW49965   9.867  10.717   0.283
16064SOL    HW149966   9.808  10.785   0.315
16064SOL    HW249967   9.854  10.716   0.188
16065SOL     OW49968  12.763   9.774   1.563
16065SOL    HW149969  12.787   9.786   1.654
16065SOL    HW249970  12.789   9.684   1.542
16066SOL     OW49971   6.726   8.809   5.675
16066SOL    HW149972   6.757   8.719   5.682
16066SOL    HW249973   6.712   8.822   5.581
16067SOL     OW49974  10.726   0.749  13.140
16067SOL    HW149975  10.655   0.750  13.076
16067SOL    HW249976  10.703   0.679  13.201
16068SOL     OW49977  11.525   2.580  13.954
16068SOL    HW149978  11.585   2.532  14.011
16068SOL    HW249979  11.578   2.653  13.921
16069SOL     OW49980  10.680   8.446   8.750
16069SOL    HW149981  10.743   8.400   8.804
16069SOL    HW249982  10.703   8.422   8.660
16070SOL     OW49983   7.301  14.101  12.809
16070SOL    HW149984   7.375  14.053  12.847
16070SOL    HW249985   7.223  14.055  12.842
16071SOL     OW49986   6.052   8.462   6.378
16071SOL    HW149987   6.030   8.372   6.352
16071SOL    HW249988   6.072   8.506   6.296
16072SOL     OW49989   9.466   8.209   3.968
16072SOL    HW149990   9.496   8.202   3.877
16072SOL    HW249991   9.378   8.247   3.961
16073SOL     OW49992   6.825   6.357   8.613
16073SOL    HW149993   6.921   6.362   8.611
16073SOL    HW249994   6.806   6.287   8.675
16074SOL     OW49995  13.602   6.079   6.002
16074SOL    HW149996  13.551   6.159   5.990
16074SOL    HW249997  13.537   6.013   6.028
16075SOL     OW49998  14.122   8.720   0.088
16075SOL    HW149999  14.194   8.713   0.152
16075SOL    HW250000  14.043   8.706   0.139
16076SOL     OW50001   6.243   1.467   3.902
16076SOL    HW150002   6.172   1.418   3.860
16076SOL    HW250003   6.202   1.547   3.933
16077SOL     OW50004   6.384   8.961   4.886
16077SOL    HW150005   6.421   8.883   4.844
16077SOL    HW250006   6.459   9.017   4.901
16078SOL     OW50007   2.149   1.666  12.974
16078SOL    HW150008   2.117   1.601  12.912
16078SOL    HW250009   2.125   1.750  12.935
16079SOL     OW50010   4.122   5.322   6.197
16079SOL    HW150011   4.146   5.238   6.236
16079SOL    HW250012   4.165   5.388   6.252
16080SOL     OW50013  13.998   2.581   5.113
16080SOL    HW150014  14.009   2.505   5.171
16080SOL    HW250015  14.062   2.567   5.043
16081SOL     OW50016   0.187  10.963  10.452
16081SOL    HW150017   0.262  11.022  10.441
16081SOL    HW250018   0.124  11.013  10.503
16082SOL     OW50019   4.148  12.785   5.824
16082SOL    HW150020   4.234  12.809   5.856
16082SOL    HW250021   4.163  12.708   5.769
16083SOL     OW50022   1.346  12.353  10.427
16083SOL    HW150023   1.394  12.315  10.353
16083SOL    HW250024   1.255  12.355  10.399
16084SOL     OW50025  12.075   1.231   0.908
16084SOL    HW150026  12.137   1.198   0.843
16084SOL    HW250027  12.130   1.280   0.970
16085SOL     OW50028   2.671   7.638   9.450
16085SOL    HW150029   2.720   7.710   9.489
16085SOL    HW250030   2.589   7.635   9.500
16086SOL     OW50031  13.437  14.064   5.895
16086SOL    HW150032  13.402  14.146   5.930
16086SOL    HW250033  13.436  14.003   5.970
16087SOL     OW50034   3.734   2.004  12.752
16087SOL    HW150035   3.746   2.032  12.661
16087SOL    HW250036   3.757   1.911  12.752
16088SOL     OW50037   1.788   2.826   1.922
16088SOL    HW150038   1.862   2.847   1.866
16088SOL    HW250039   1.755   2.742   1.888
16089SOL     OW50040   2.808  11.179  12.958
16089SOL    HW150041   2.902  11.165  12.942
16089SOL    HW250042   2.775  11.217  12.877
16090SOL     OW50043  13.953   5.742   4.401
16090SOL    HW150044  14.014   5.771   4.333
16090SOL    HW250045  13.873   5.793   4.384
16091SOL     OW50046  13.925   1.442  14.547
16091SOL    HW150047  13.885   1.524  14.518
16091SOL    HW250048  13.854   1.393  14.588
16092SOL     OW50049   8.211   6.177  12.183
16092SOL    HW150050   8.156   6.238  12.232
16092SOL    HW250051   8.249   6.120  12.250
16093SOL     OW50052   2.093   2.958   1.297
16093SOL    HW150053   2.023   2.899   1.270
16093SOL    HW250054   2.107   2.937   1.390
16094SOL     OW50055   6.072   2.706  14.077
16094SOL    HW150056   6.151   2.696  14.024
16094SOL    HW250057   6.105   2.706  14.168
16095SOL     OW50058   7.918  10.148   4.291
16095SOL    HW150059   7.832  10.156   4.332
16095SOL    HW250060   7.898  10.128   4.199
16096SOL     OW50061  11.849   5.228   8.441
16096SOL    HW150062  11.892   5.162   8.386
16096SOL    HW250063  11.920   5.272   8.487
16097SOL     OW50064   3.233   3.443   4.843
16097SOL    HW150065   3.322   3.478   4.841
16097SOL    HW250066   3.201   3.464   4.930
16098SOL     OW50067  14.647  12.911   6.620
16098SOL    HW150068  14.574  12.875   6.570
16098SOL    HW250069  14.611  12.989   6.663
16099SOL     OW50070   7.285   7.703   7.751
16099SOL    HW150071   7.209   7.668   7.705
16099SOL    HW250072   7.255   7.785   7.790
16100SOL     OW50073   1.518   1.279   5.306
16100SOL    HW150074   1.533   1.353   5.365
16100SOL    HW250075   1.557   1.307   5.223
16101SOL     OW50076  11.305   9.111  11.310
16101SOL    HW150077  11.334   9.175  11.244
16101SOL    HW250078  11.339   9.027  11.277
16102SOL     OW50079   3.276   2.818   5.463
16102SOL    HW150080   3.227   2.882   5.515
16102SOL    HW250081   3.292   2.745   5.523
16103SOL     OW50082  11.060   6.596   9.268
16103SOL    HW150083  11.015   6.617   9.349
16103SOL    HW250084  10.998   6.621   9.199
16104SOL     OW50085  10.697   9.875   0.249
16104SOL    HW150086  10.776   9.853   0.199
16104SOL    HW250087  10.627   9.824   0.207
16105SOL     OW50088  12.067  10.381   7.033
16105SOL    HW150089  12.060  10.439   7.109
16105SOL    HW250090  12.108  10.301   7.067
16106SOL     OW50091   7.087   4.104   9.747
16106SOL    HW150092   7.027   4.178   9.753
16106SOL    HW250093   7.170   4.137   9.781
16107SOL     OW50094   5.293   6.794   0.138
16107SOL    HW150095   5.238   6.867   0.108
16107SOL    HW250096   5.382   6.827   0.131
16108SOL     OW50097   8.174  12.770   5.260
16108SOL    HW150098   8.246  12.792   5.319
16108SOL    HW250099   8.095  12.797   5.306
16109SOL     OW50100   9.352  10.149   8.066
16109SOL    HW150101   9.397  10.216   8.118
16109SOL    HW250102   9.278  10.122   8.120
16110SOL     OW50103   3.940  10.983   7.129
16110SOL    HW150104   3.949  10.973   7.034
16110SOL    HW250105   3.846  10.972   7.144
16111SOL     OW50106  11.285   2.583   6.030
16111SOL    HW150107  11.356   2.610   5.971
16111SOL    HW250108  11.297   2.489   6.040
16112SOL     OW50109   1.133   5.507  12.592
16112SOL    HW150110   1.043   5.538  12.585
16112SOL    HW250111   1.167   5.513  12.503
16113SOL     OW50112   6.940  12.377   4.977
16113SOL    HW150113   7.016  12.385   5.035
16113SOL    HW250114   6.967  12.420   4.896
16114SOL     OW50115  12.870  10.019  13.152
16114SOL    HW150116  12.868  10.094  13.093
16114SOL    HW250117  12.914   9.950  13.102
16115SOL     OW50118  12.959  10.602   4.941
16115SOL    HW150119  12.998  10.688   4.925
16115SOL    HW250120  13.025  10.540   4.911
16116SOL     OW50121   2.446  14.709   8.842
16116SOL    HW150122   2.384  14.676   8.907
16116SOL    HW250123   2.393  14.765   8.784
16117SOL     OW50124   6.009   1.028   8.015
16117SOL    HW150125   5.989   1.103   8.071
16117SOL    HW250126   6.104   1.023   8.014
16118SOL     OW50127   8.756   4.921  12.655
16118SOL    HW150128   8.788   4.929  12.744
16118SOL    HW250129   8.789   4.999  12.610
16119SOL     OW50130   5.048   4.507  13.738
16119SOL    HW150131   5.106   4.555  13.797
16119SOL    HW250132   5.105   4.466  13.674
16120SOL     OW50133   5.224   5.660  11.144
16120SOL    HW150134   5.262   5.721  11.208
16120SOL    HW250135   5.275   5.580  11.155
16121SOL     OW50136   0.118   9.833  10.199
16121SOL    HW150137   0.105   9.862  10.109
16121SOL    HW250138   0.046   9.873  10.248
16122SOL     OW50139  13.385  10.654   8.763
16122SOL    HW150140  13.401  10.632   8.671
16122SOL    HW250141  13.384  10.749   8.766
16123SOL     OW50142  12.768   6.229   0.877
16123SOL    HW150143  12.689   6.238   0.824
16123SOL    HW250144  12.826   6.298   0.845
16124SOL     OW50145   0.642   8.506   9.537
16124SOL    HW150146   0.677   8.521   9.625
16124SOL    HW250147   0.670   8.417   9.515
16125SOL     OW50148  14.608   8.879   4.549
16125SOL    HW150149  14.683   8.842   4.595
16125SOL    HW250150  14.580   8.810   4.488
16126SOL     OW50151  14.370   0.056   6.377
16126SOL    HW150152  14.456   0.039   6.339
16126SOL    HW250153  14.368   0.004   6.457
16127SOL     OW50154   1.086  11.539   4.412
16127SOL    HW150155   1.006  11.490   4.434
16127SOL    HW250156   1.148  11.515   4.481
16128SOL     OW50157  13.804  11.055  14.452
16128SOL    HW150158  13.789  11.074  14.544
16128SOL    HW250159  13.746  11.116  14.405
16129SOL     OW50160   6.552  13.669   7.972
16129SOL    HW150161   6.521  13.638   7.887
16129SOL    HW250162   6.582  13.590   8.017
16130SOL     OW50163  12.564   0.481   7.719
16130SOL    HW150164  12.523   0.511   7.800
16130SOL    HW250165  12.530   0.539   7.651
16131SOL     OW50166   0.545   8.218  13.958
16131SOL    HW150167   0.509   8.284  13.899
16131SOL    HW250168   0.620   8.182  13.911
16132SOL     OW50169   9.018   4.181   7.187
16132SOL    HW150170   9.091   4.206   7.130
16132SOL    HW250171   9.031   4.088   7.203
16133SOL     OW50172   8.819   1.372   6.976
16133SOL    HW150173   8.744   1.371   7.035
16133SOL    HW250174   8.851   1.462   6.979
16134SOL     OW50175   2.952  12.797   6.885
16134SOL    HW150176   2.919  12.853   6.955
16134SOL    HW250177   2.906  12.714   6.896
16135SOL     OW50178   6.701   6.554  12.211
16135SOL    HW150179   6.761   6.627  12.195
16135SOL    HW250180   6.695   6.509  12.127
16136SOL     OW50181  12.522   9.791   8.107
16136SOL    HW150182  12.605   9.837   8.093
16136SOL    HW250183  12.463   9.857   8.143
16137SOL     OW50184  11.463  14.663   8.367
16137SOL    HW150185  11.446  14.571   8.385
16137SOL    HW250186  11.558  14.673   8.378
16138SOL     OW50187  11.382   5.171  13.852
16138SOL    HW150188  11.332   5.196  13.929
16138SOL    HW250189  11.384   5.075  13.855
16139SOL     OW50190   2.070   8.138   7.040
16139SOL    HW150191   2.019   8.086   7.103
16139SOL    HW250192   2.089   8.076   6.969
16140SOL     OW50193   4.690   0.908  13.752
16140SOL    HW150194   4.734   0.866  13.678
16140SOL    HW250195   4.735   0.992  13.763
16141SOL     OW50196   4.130  11.030   0.884
16141SOL    HW150197   4.095  11.026   0.795
16141SOL    HW250198   4.216  11.071   0.874
16142SOL     OW50199   5.130   7.193  11.428
16142SOL    HW150200   5.172   7.108  11.429
16142SOL    HW250201   5.122   7.217  11.520
16143SOL     OW50202   7.411  12.070   7.593
16143SOL    HW150203   7.476  12.065   7.523
16143SOL    HW250204   7.328  12.049   7.549
16144SOL     OW50205  13.481  13.403   9.061
16144SOL    HW150206  13.462  13.318   9.020
16144SOL    HW250207  13.555  13.438   9.010
16145SOL     OW50208  14.389   1.567   7.304
16145SOL    HW150209  14.374   1.591   7.212
16145SOL    HW250210  14.320   1.612   7.352
16146SOL     OW50211   7.129   0.330   4.660
16146SOL    HW150212   7.144   0.423   4.643
16146SOL    HW250213   7.042   0.314   4.623
16147SOL     OW50214  14.113  12.389   9.947
16147SOL    HW150215  14.195  12.352   9.913
16147SOL    HW250216  14.095  12.464   9.891
16148SOL     OW50217   2.305   1.361   8.796
16148SOL    HW150218   2.234   1.417   8.829
16148SOL    HW250219   2.384   1.411   8.816
16149SOL     OW50220  13.419  11.399   2.432
16149SOL    HW150221  13.397  11.312   2.398
16149SOL    HW250222  13.337  11.434   2.465
16150SOL     OW50223  11.006  13.078  12.051
16150SOL    HW150224  10.980  13.155  12.100
16150SOL    HW250225  10.950  13.008  12.086
16151SOL     OW50226   2.643  11.906   0.687
16151SOL    HW150227   2.567  11.870   0.734
16151SOL    HW250228   2.613  11.912   0.596
16152SOL     OW50229   8.758   1.431   5.959
16152SOL    HW150230   8.774   1.422   6.053
16152SOL    HW250231   8.842   1.412   5.918
16153SOL     OW50232   8.125   2.924  11.493
16153SOL    HW150233   8.161   2.925  11.404
16153SOL    HW250234   8.085   3.011  11.503
16154SOL     OW50235   8.006   0.809   7.219
16154SOL    HW150236   8.021   0.760   7.300
16154SOL    HW250237   8.088   0.858   7.206
16155SOL     OW50238   4.568  11.451   4.826
16155SOL    HW150239   4.662  11.467   4.837
16155SOL    HW250240   4.557  11.439   4.732
16156SOL     OW50241   4.708   5.787  12.467
16156SOL    HW150242   4.732   5.798  12.559
16156SOL    HW250243   4.789   5.758  12.425
16157SOL     OW50244   1.249  13.715   0.309
16157SOL    HW150245   1.320  13.747   0.364
16157SOL    HW250246   1.264  13.756   0.223
16158SOL     OW50247   2.685   3.710   3.186
16158SOL    HW150248   2.631   3.691   3.262
16158SOL    HW250249   2.740   3.784   3.214
16159SOL     OW50250   6.757  12.543   4.615
16159SOL    HW150251   6.695  12.471   4.607
16159SOL    HW250252   6.791  12.555   4.526
16160SOL     OW50253   1.470  12.926  13.011
16160SOL    HW150254   1.480  12.878  12.929
16160SOL    HW250255   1.477  12.860  13.080
16161SOL     OW50256   2.577  10.353   7.238
16161SOL    HW150257   2.535  10.309   7.312
16161SOL    HW250258   2.505  10.383   7.183
16162SOL     OW50259   1.925   9.678  11.660
16162SOL    HW150260   1.961   9.598  11.620
16162SOL    HW250261   1.996   9.742  11.652
16163SOL     OW50262   6.977   6.024   4.545
16163SOL    HW150263   6.905   6.062   4.596
16163SOL    HW250264   6.957   5.930   4.543
16164SOL     OW50265   1.078  12.811   6.354
16164SOL    HW150266   1.014  12.742   6.337
16164SOL    HW250267   1.146  12.768   6.405
16165SOL     OW50268   2.234   2.065   1.946
16165SOL    HW150269   2.277   2.135   1.995
16165SOL    HW250270   2.236   1.990   2.005
16166SOL     OW50271   4.287  12.530   4.767
16166SOL    HW150272   4.372  12.488   4.754
16166SOL    HW250273   4.278  12.538   4.862
16167SOL     OW50274   8.856   1.863   6.556
16167SOL    HW150275   8.865   1.855   6.461
16167SOL    HW250276   8.939   1.830   6.591
16168SOL     OW50277   3.508   3.508   4.882
16168SOL    HW150278   3.505   3.458   4.964
16168SOL    HW250279   3.542   3.594   4.909
16169SOL     OW50280   5.308   6.500   8.334
16169SOL    HW150281   5.362   6.452   8.396
16169SOL    HW250282   5.346   6.587   8.330
16170SOL     OW50283   4.313   5.544   2.717
16170SOL    HW150284   4.372   5.542   2.792
16170SOL    HW250285   4.233   5.585   2.750
16171SOL     OW50286  10.895   9.432  12.254
16171SOL    HW150287  10.910   9.339  12.237
16171SOL    HW250288  10.940   9.477  12.183
16172SOL     OW50289   1.530  14.085   7.897
16172SOL    HW150290   1.461  14.151   7.902
16172SOL    HW250291   1.489  14.005   7.931
16173SOL     OW50292   3.774   8.265   7.084
16173SOL    HW150293   3.714   8.233   7.151
16173SOL    HW250294   3.848   8.204   7.087
16174SOL     OW50295   3.959  12.104  13.347
16174SOL    HW150296   3.969  12.138  13.258
16174SOL    HW250297   3.993  12.015  13.343
16175SOL     OW50298   8.247  14.589  10.618
16175SOL    HW150299   8.337  14.598  10.586
16175SOL    HW250300   8.239  14.497  10.643
16176SOL     OW50301  10.004  10.485   6.843
16176SOL    HW150302  10.093  10.457   6.819
16176SOL    HW250303  10.009  10.581   6.842
16177SOL     OW50304   2.348   1.888   2.435
16177SOL    HW150305   2.427   1.907   2.486
16177SOL    HW250306   2.288   1.846   2.497
16178SOL     OW50307  12.255   0.238   5.764
16178SOL    HW150308  12.188   0.173   5.743
16178SOL    HW250309  12.206   0.317   5.789
16179SOL     OW50310  12.750   1.258   4.371
16179SOL    HW150311  12.793   1.334   4.333
16179SOL    HW250312  12.810   1.226   4.438
16180SOL     OW50313   2.544   9.972   5.768
16180SOL    HW150314   2.563   9.880   5.750
16180SOL    HW250315   2.532   9.976   5.863
16181SOL     OW50316   4.960   3.810   2.741
16181SOL    HW150317   5.052   3.803   2.712
16181SOL    HW250318   4.909   3.802   2.661
16182SOL     OW50319  10.379  13.264   7.475
16182SOL    HW150320  10.459  13.220   7.506
16182SOL    HW250321  10.355  13.323   7.547
16183SOL     OW50322  12.378   6.401  14.360
16183SOL    HW150323  12.429   6.482  14.360
16183SOL    HW250324  12.334   6.400  14.445
16184SOL     OW50325   4.713   5.867   7.069
16184SOL    HW150326   4.767   5.921   7.128
16184SOL    HW250327   4.727   5.905   6.982
16185SOL     OW50328   7.772  11.622  13.662
16185SOL    HW150329   7.814  11.707  13.652
16185SOL    HW250330   7.841  11.559  13.642
16186SOL     OW50331   8.045  10.250  14.866
16186SOL    HW150332   7.980  10.304  14.821
16186SOL    HW250333   8.000  10.218   0.067
16187SOL     OW50334   5.834  11.810   4.553
16187SOL    HW150335   5.902  11.876   4.538
16187SOL    HW250336   5.816  11.774   4.466
16188SOL     OW50337   3.984   8.279  11.534
16188SOL    HW150338   4.056   8.322  11.488
16188SOL    HW250339   3.930   8.352  11.566
16189SOL     OW50340   7.847   3.682  12.649
16189SOL    HW150341   7.863   3.724  12.565
16189SOL    HW250342   7.760   3.643  12.640
16190SOL     OW50343   4.664   3.153   3.466
16190SOL    HW150344   4.626   3.092   3.403
16190SOL    HW250345   4.686   3.230   3.415
16191SOL     OW50346   9.319   3.788  12.386
16191SOL    HW150347   9.248   3.725  12.401
16191SOL    HW250348   9.397   3.734  12.376
16192SOL     OW50349  11.579  12.791  12.699
16192SOL    HW150350  11.524  12.798  12.620
16192SOL    HW250351  11.623  12.876  12.705
16193SOL     OW50352   1.163  11.337   8.749
16193SOL    HW150353   1.129  11.327   8.838
16193SOL    HW250354   1.091  11.379   8.701
16194SOL     OW50355   2.518   8.610  12.543
16194SOL    HW150356   2.452   8.623  12.610
16194SOL    HW250357   2.474   8.633  12.461
16195SOL     OW50358   4.407  14.803  10.571
16195SOL    HW150359   4.410  14.800  10.666
16195SOL    HW250360   4.451  14.723  10.543
16196SOL     OW50361   9.865  13.293   0.211
16196SOL    HW150362   9.867  13.198   0.226
16196SOL    HW250363   9.786  13.308   0.159
16197SOL     OW50364   5.161   2.484  10.574
16197SOL    HW150365   5.125   2.400  10.603
16197SOL    HW250366   5.156   2.541  10.651
16198SOL     OW50367   1.373   8.148   5.586
16198SOL    HW150368   1.424   8.196   5.520
16198SOL    HW250369   1.433   8.137   5.659
16199SOL     OW50370   0.967   4.865   8.083
16199SOL    HW150371   0.938   4.950   8.116
16199SOL    HW250372   0.965   4.874   7.988
16200SOL     OW50373   3.334  14.292   8.440
16200SOL    HW150374   3.361  14.211   8.483
16200SOL    HW250375   3.406  14.353   8.454
16201SOL     OW50376   6.583   8.847   6.608
16201SOL    HW150377   6.501   8.869   6.563
16201SOL    HW250378   6.648   8.845   6.538
16202SOL     OW50379   3.662  14.605  13.147
16202SOL    HW150380   3.674  14.667  13.075
16202SOL    HW250381   3.596  14.543  13.116
16203SOL     OW50382   4.024   5.576  10.700
16203SOL    HW150383   4.019   5.613  10.788
16203SOL    HW250384   4.025   5.481  10.714
16204SOL     OW50385   2.323  14.656   1.212
16204SOL    HW150386   2.386  14.684   1.146
16204SOL    HW250387   2.377  14.627   1.286
16205SOL     OW50388   9.040   6.204   2.704
16205SOL    HW150389   9.120   6.215   2.756
16205SOL    HW250390   9.071   6.170   2.620
16206SOL     OW50391  13.758   4.587   9.861
16206SOL    HW150392  13.764   4.631   9.946
16206SOL    HW250393  13.713   4.649   9.804
16207SOL     OW50394   5.208   3.345  12.372
16207SOL    HW150395   5.206   3.249  12.378
16207SOL    HW250396   5.217   3.363  12.278
16208SOL     OW50397   5.281   9.219   2.020
16208SOL    HW150398   5.307   9.163   1.947
16208SOL    HW250399   5.363   9.255   2.053
16209SOL     OW50400  14.137   0.983  13.652
16209SOL    HW150401  14.129   1.074  13.680
16209SOL    HW250402  14.203   0.985  13.583
16210SOL     OW50403  11.313   6.409  13.828
16210SOL    HW150404  11.271   6.471  13.768
16210SOL    HW250405  11.406   6.416  13.809
16211SOL     OW50406   4.517   2.225  14.525
16211SOL    HW150407   4.552   2.310  14.553
16211SOL    HW250408   4.423   2.230  14.544
16212SOL     OW50409  11.966   6.005   3.823
16212SOL    HW150410  11.993   5.926   3.776
16212SOL    HW250411  11.973   5.982   3.916
16213SOL     OW50412  11.485   6.411   4.052
16213SOL    HW150413  11.487   6.327   4.007
16213SOL    HW250414  11.510   6.475   3.986
16214SOL     OW50415  12.127   3.723  12.487
16214SOL    HW150416  12.142   3.632  12.464
16214SOL    HW250417  12.205   3.748  12.537
16215SOL     OW50418   6.053   6.480  13.271
16215SOL    HW150419   6.081   6.527  13.350
16215SOL    HW250420   6.123   6.497  13.208
16216SOL     OW50421   9.311   3.038  13.403
16216SOL    HW150422   9.351   3.108  13.456
16216SOL    HW250423   9.219   3.064  13.395
16217SOL     OW50424   3.990   9.741   4.199
16217SOL    HW150425   4.004   9.722   4.106
16217SOL    HW250426   4.072   9.716   4.241
16218SOL     OW50427   7.289  10.880  14.396
16218SOL    HW150428   7.225  10.827  14.443
16218SOL    HW250429   7.361  10.891  14.457
16219SOL     OW50430   6.647   5.329   9.411
16219SOL    HW150431   6.665   5.351   9.502
16219SOL    HW250432   6.626   5.236   9.411
16220SOL     OW50433  12.972   8.583   7.011
16220SOL    HW150434  12.989   8.500   7.057
16220SOL    HW250435  13.029   8.579   6.935
16221SOL     OW50436   7.610   3.131   2.633
16221SOL    HW150437   7.681   3.151   2.572
16221SOL    HW250438   7.653   3.084   2.705
16222SOL     OW50439   1.442   9.340   0.717
16222SOL    HW150440   1.414   9.432   0.724
16222SOL    HW250441   1.387   9.294   0.780
16223SOL     OW50442  14.386   6.303   8.486
16223SOL    HW150443  14.353   6.281   8.398
16223SOL    HW250444  14.316   6.355   8.525
16224SOL     OW50445   2.847   1.881  10.941
16224SOL    HW150446   2.834   1.789  10.966
16224SOL    HW250447   2.940   1.888  10.924
16225SOL     OW50448   8.702   3.517  11.326
16225SOL    HW150449   8.657   3.587  11.278
16225SOL    HW250450   8.763   3.563  11.384
16226SOL     OW50451   2.728   0.888   5.701
16226SOL    HW150452   2.681   0.814   5.662
16226SOL    HW250453   2.695   0.965   5.655
16227SOL     OW50454   8.333  12.426  11.013
16227SOL    HW150455   8.318  12.347  11.064
16227SOL    HW250456   8.427  12.443  11.022
16228SOL     OW50457   5.744   7.311   0.813
16228SOL    HW150458   5.673   7.344   0.867
16228SOL    HW250459   5.812   7.378   0.818
16229SOL     OW50460   7.713   6.589   5.957
16229SOL    HW150461   7.700   6.606   6.050
16229SOL    HW250462   7.625   6.572   5.922
16230SOL     OW50463  13.030  12.533  14.342
16230SOL    HW150464  12.959  12.497  14.289
16230SOL    HW250465  12.997  12.619  14.370
16231SOL     OW50466  10.956   4.763   6.499
16231SOL    HW150467  10.996   4.819   6.566
16231SOL    HW250468  10.899   4.822   6.449
16232SOL     OW50469   3.443   3.609   5.987
16232SOL    HW150470   3.508   3.555   5.942
16232SOL    HW250471   3.361   3.592   5.940
16233SOL     OW50472   3.248  11.143   0.883
16233SOL    HW150473   3.198  11.073   0.841
16233SOL    HW250474   3.198  11.222   0.864
16234SOL     OW50475   9.229  13.647   8.192
16234SOL    HW150476   9.325  13.650   8.191
16234SOL    HW250477   9.204  13.679   8.105
16235SOL     OW50478   4.709   2.591   7.340
16235SOL    HW150479   4.745   2.560   7.423
16235SOL    HW250480   4.686   2.512   7.292
16236SOL     OW50481   1.342  10.618   2.117
16236SOL    HW150482   1.415  10.629   2.178
16236SOL    HW250483   1.268  10.596   2.173
16237SOL     OW50484   7.999  14.296   2.351
16237SOL    HW150485   7.985  14.340   2.435
16237SOL    HW250486   8.022  14.365   2.290
16238SOL     OW50487   3.702   7.249   4.348
16238SOL    HW150488   3.758   7.325   4.329
16238SOL    HW250489   3.764   7.179   4.370
16239SOL     OW50490  10.692   4.881   5.014
16239SOL    HW150491  10.725   4.968   5.036
16239SOL    HW250492  10.604   4.898   4.979
16240SOL     OW50493  10.213   6.579   8.258
16240SOL    HW150494  10.181   6.611   8.174
16240SOL    HW250495  10.281   6.641   8.283
16241SOL     OW50496  14.289   1.987  12.376
16241SOL    HW150497  14.291   2.038  12.457
16241SOL    HW250498  14.322   2.047  12.309
16242SOL     OW50499  11.083   2.086   9.691
16242SOL    HW150500  11.008   2.038   9.726
16242SOL    HW250501  11.147   2.019   9.668
16243SOL     OW50502   3.349   8.840  12.960
16243SOL    HW150503   3.430   8.890  12.950
16243SOL    HW250504   3.280   8.904  12.943
16244SOL     OW50505  11.165   0.610   3.620
16244SOL    HW150506  11.129   0.528   3.585
16244SOL    HW250507  11.241   0.583   3.671
16245SOL     OW50508   2.416   7.006   3.080
16245SOL    HW150509   2.454   6.973   2.998
16245SOL    HW250510   2.394   6.928   3.130
16246SOL     OW50511  11.164   7.508  10.048
16246SOL    HW150512  11.242   7.471  10.089
16246SOL    HW250513  11.181   7.602  10.044
16247SOL     OW50514   7.972   6.292  12.276
16247SOL    HW150515   7.906   6.247  12.225
16247SOL    HW250516   7.967   6.383  12.247
16248SOL     OW50517   7.945   5.895  14.225
16248SOL    HW150518   7.978   5.807  14.241
16248SOL    HW250519   7.852   5.891  14.249
16249SOL     OW50520  12.265  12.105   9.019
16249SOL    HW150521  12.354  12.073   9.010
16249SOL    HW250522  12.262  12.145   9.106
16250SOL     OW50523  13.047   1.293  10.244
16250SOL    HW150524  13.031   1.210  10.199
16250SOL    HW250525  13.021   1.360  10.182
16251SOL     OW50526   0.602   1.499  14.209
16251SOL    HW150527   0.566   1.544  14.285
16251SOL    HW250528   0.530   1.498  14.145
16252SOL     OW50529  14.276  10.779   3.412
16252SOL    HW150530  14.326  10.853   3.378
16252SOL    HW250531  14.337  10.706   3.409
16253SOL     OW50532  10.548   5.251   5.679
16253SOL    HW150533  10.544   5.158   5.656
16253SOL    HW250534  10.511   5.255   5.767
16254SOL     OW50535   9.107   0.416   4.204
16254SOL    HW150536   9.173   0.396   4.137
16254SOL    HW250537   9.157   0.418   4.286
16255SOL     OW50538   4.427   4.838   7.744
16255SOL    HW150539   4.477   4.904   7.697
16255SOL    HW250540   4.483   4.760   7.741
16256SOL     OW50541  14.015   0.192   2.183
16256SOL    HW150542  14.088   0.170   2.126
16256SOL    HW250543  14.052   0.196   2.271
16257SOL     OW50544   9.753  12.219  11.224
16257SOL    HW150545   9.833  12.244  11.179
16257SOL    HW250546   9.722  12.299  11.265
16258SOL     OW50547  10.496  14.006   6.792
16258SOL    HW150548  10.589  14.022   6.772
16258SOL    HW250549  10.460  14.094   6.806
16259SOL     OW50550   3.483   9.279   5.482
16259SOL    HW150551   3.566   9.300   5.525
16259SOL    HW250552   3.422   9.264   5.555
16260SOL     OW50553   0.747   3.161  13.696
16260SOL    HW150554   0.719   3.241  13.740
16260SOL    HW250555   0.838   3.177  13.671
16261SOL     OW50556  11.383   9.614   0.543
16261SOL    HW150557  11.446   9.614   0.471
16261SOL    HW250558  11.297   9.616   0.500
16262SOL     OW50559  13.465   1.481   8.431
16262SOL    HW150560  13.376   1.452   8.451
16262SOL    HW250561  13.454   1.543   8.359
16263SOL     OW50562   5.526   0.184   2.316
16263SOL    HW150563   5.552   0.096   2.344
16263SOL    HW250564   5.445   0.171   2.266
16264SOL     OW50565   2.638  13.209   2.890
16264SOL    HW150566   2.565  13.151   2.869
16264SOL    HW250567   2.708  13.182   2.831
16265SOL     OW50568   5.847   1.610   6.443
16265SOL    HW150569   5.863   1.690   6.493
16265SOL    HW250570   5.906   1.615   6.368
16266SOL     OW50571  14.787  12.923   3.184
16266SOL    HW150572  14.763  12.985   3.116
16266SOL    HW250573  14.746  12.840   3.158
16267SOL     OW50574  13.477  14.870   8.914
16267SOL    HW150575  13.413   0.018   8.980
16267SOL    HW250576  13.526  14.798   8.955
16268SOL     OW50577   8.435   0.933   5.669
16268SOL    HW150578   8.416   0.941   5.763
16268SOL    HW250579   8.410   1.018   5.633
16269SOL     OW50580   2.924   1.286  11.124
16269SOL    HW150581   2.975   1.210  11.152
16269SOL    HW250582   2.832   1.258  11.133
16270SOL     OW50583   9.585  11.153  10.789
16270SOL    HW150584   9.650  11.083  10.784
16270SOL    HW250585   9.615  11.208  10.862
16271SOL     OW50586   0.696  10.023  10.704
16271SOL    HW150587   0.758   9.954  10.680
16271SOL    HW250588   0.749  10.088  10.749
16272SOL     OW50589  11.194  11.251   8.584
16272SOL    HW150590  11.128  11.211   8.527
16272SOL    HW250591  11.149  11.326   8.624
16273SOL     OW50592  10.968  11.036   6.777
16273SOL    HW150593  10.925  11.068   6.856
16273SOL    HW250594  11.060  11.063   6.787
16274SOL     OW50595   5.961   3.400  12.316
16274SOL    HW150596   5.916   3.473  12.357
16274SOL    HW250597   6.054   3.420  12.326
16275SOL     OW50598   7.625   4.330   9.041
16275SOL    HW150599   7.561   4.299   8.977
16275SOL    HW250600   7.648   4.418   9.011
16276SOL     OW50601   6.491   5.020  10.681
16276SOL    HW150602   6.409   4.991  10.721
16276SOL    HW250603   6.549   5.036  10.756
16277SOL     OW50604   9.865   9.402  13.968
16277SOL    HW150605   9.796   9.358  14.016
16277SOL    HW250606   9.862   9.493  13.998
16278SOL     OW50607   4.508  14.296   8.743
16278SOL    HW150608   4.507  14.392   8.734
16278SOL    HW250609   4.479  14.263   8.658
16279SOL     OW50610  14.317   4.678   6.095
16279SOL    HW150611  14.294   4.600   6.145
16279SOL    HW250612  14.328   4.746   6.161
16280SOL     OW50613   8.470  12.234  12.489
16280SOL    HW150614   8.507  12.146  12.501
16280SOL    HW250615   8.375  12.220  12.489
16281SOL     OW50616   4.420   5.717  10.369
16281SOL    HW150617   4.373   5.702  10.287
16281SOL    HW250618   4.450   5.631  10.396
16282SOL     OW50619   8.027   3.487   4.112
16282SOL    HW150620   8.011   3.485   4.206
16282SOL    HW250621   7.944   3.461   4.073
16283SOL     OW50622  14.195   0.869   8.354
16283SOL    HW150623  14.104   0.898   8.344
16283SOL    HW250624  14.222   0.844   8.266
16284SOL     OW50625   1.129   1.321   6.854
16284SOL    HW150626   1.129   1.417   6.843
16284SOL    HW250627   1.061   1.291   6.794
16285SOL     OW50628  13.981  12.852   7.553
16285SOL    HW150629  13.933  12.916   7.500
16285SOL    HW250630  13.923  12.834   7.627
16286SOL     OW50631  12.520   0.932   9.089
16286SOL    HW150632  12.612   0.951   9.071
16286SOL    HW250633  12.502   0.977   9.171
16287SOL     OW50634   7.607   7.412   5.327
16287SOL    HW150635   7.698   7.392   5.307
16287SOL    HW250636   7.556   7.352   5.272
16288SOL     OW50637   7.570   9.812   4.684
16288SOL    HW150638   7.594   9.723   4.659
16288SOL    HW250639   7.630   9.834   4.756
16289SOL     OW50640   0.092   5.999  10.832
16289SOL    HW150641   0.133   5.928  10.881
16289SOL    HW250642   0.162   6.035  10.778
16290SOL     OW50643  12.675   7.404  13.669
16290SOL    HW150644  12.766   7.412  13.640
16290SOL    HW250645  12.638   7.491  13.656
16291SOL     OW50646   8.648  11.269   5.074
16291SOL    HW150647   8.584  11.276   5.144
16291SOL    HW250648   8.726  11.231   5.116
16292SOL     OW50649   2.435   2.804   6.063
16292SOL    HW150650   2.443   2.897   6.042
16292SOL    HW250651   2.351   2.779   6.026
16293SOL     OW50652   6.449   9.614   8.843
16293SOL    HW150653   6.508   9.639   8.772
16293SOL    HW250654   6.494   9.542   8.888
16294SOL     OW50655  14.247   2.878   4.737
16294SOL    HW150656  14.331   2.908   4.702
16294SOL    HW250657  14.249   2.904   4.829
16295SOL     OW50658  10.083   3.626  10.695
16295SOL    HW150659  10.138   3.698  10.727
16295SOL    HW250660  10.146   3.559  10.666
16296SOL     OW50661   2.582   0.695  13.238
16296SOL    HW150662   2.516   0.756  13.268
16296SOL    HW250663   2.640   0.747  13.183
16297SOL     OW50664   8.668   2.830   7.970
16297SOL    HW150665   8.681   2.736   7.957
16297SOL    HW250666   8.751   2.860   8.007
16298SOL     OW50667   1.286  14.080   0.086
16298SOL    HW150668   1.358  14.059   0.026
16298SOL    HW250669   1.229  14.004   0.082
16299SOL     OW50670   4.423  11.571   7.473
16299SOL    HW150671   4.398  11.492   7.427
16299SOL    HW250672   4.457  11.540   7.557
16300SOL     OW50673  12.400   7.779  12.097
16300SOL    HW150674  12.310   7.800  12.074
16300SOL    HW250675  12.452   7.811  12.023
16301SOL     OW50676   8.899  13.484   2.722
16301SOL    HW150677   8.854  13.472   2.805
16301SOL    HW250678   8.961  13.411   2.717
16302SOL     OW50679   4.010  10.843   2.620
16302SOL    HW150680   4.034  10.790   2.695
16302SOL    HW250681   3.914  10.843   2.620
16303SOL     OW50682   6.008   5.589   1.868
16303SOL    HW150683   6.058   5.655   1.916
16303SOL    HW250684   6.050   5.506   1.890
16304SOL     OW50685  12.605  12.930  14.303
16304SOL    HW150686  12.609  13.025  14.303
16304SOL    HW250687  12.530  12.908  14.248
16305SOL     OW50688   2.663   7.620   7.511
16305SOL    HW150689   2.681   7.605   7.603
16305SOL    HW250690   2.675   7.535   7.469
16306SOL     OW50691  11.303   6.336   6.118
16306SOL    HW150692  11.323   6.310   6.208
16306SOL    HW250693  11.302   6.432   6.121
16307SOL     OW50694   7.452   2.022  12.492
16307SOL    HW150695   7.450   2.096  12.432
16307SOL    HW250696   7.496   2.055  12.570
16308SOL     OW50697  12.019   3.843   9.795
16308SOL    HW150698  12.098   3.886   9.827
16308SOL    HW250699  12.001   3.885   9.711
16309SOL     OW50700   9.506  10.964  12.440
16309SOL    HW150701   9.590  10.978  12.398
16309SOL    HW250702   9.526  10.904  12.513
16310SOL     OW50703  14.063   9.179   7.339
16310SOL    HW150704  13.973   9.205   7.359
16310SOL    HW250705  14.067   9.087   7.363
16311SOL     OW50706  12.065  13.916   8.021
16311SOL    HW150707  11.990  13.930   8.079
16311SOL    HW250708  12.027  13.907   7.934
16312SOL     OW50709  12.232   1.022   7.823
16312SOL    HW150710  12.136   1.022   7.826
16312SOL    HW250711  12.256   1.114   7.832
16313SOL     OW50712   7.682   8.858   8.264
16313SOL    HW150713   7.714   8.939   8.223
16313SOL    HW250714   7.745   8.841   8.334
16314SOL     OW50715   0.768   8.015   7.907
16314SOL    HW150716   0.828   7.956   7.860
16314SOL    HW250717   0.681   7.983   7.884
16315SOL     OW50718  11.037   9.993   0.084
16315SOL    HW150719  11.028  10.067   0.143
16315SOL    HW250720  11.077   9.924   0.137
16316SOL     OW50721  12.576  13.499  14.168
16316SOL    HW150722  12.618  13.515  14.252
16316SOL    HW250723  12.568  13.586  14.128
16317SOL     OW50724   4.236   4.974   5.356
16317SOL    HW150725   4.240   4.935   5.269
16317SOL    HW250726   4.193   4.908   5.410
16318SOL     OW50727  10.229   2.787   3.901
16318SOL    HW150728  10.283   2.723   3.854
16318SOL    HW250729  10.281   2.868   3.901
16319SOL     OW50730  12.936   0.536   4.406
16319SOL    HW150731  12.879   0.466   4.436
16319SOL    HW250732  12.920   0.608   4.467
16320SOL     OW50733   1.259   3.858   2.401
16320SOL    HW150734   1.188   3.923   2.401
16320SOL    HW250735   1.315   3.883   2.328
16321SOL     OW50736  10.141  14.155  12.496
16321SOL    HW150737  10.197  14.167  12.572
16321SOL    HW250738  10.164  14.228  12.438
16322SOL     OW50739  13.873   7.209   6.731
16322SOL    HW150740  13.924   7.181   6.655
16322SOL    HW250741  13.782   7.199   6.705
16323SOL     OW50742   6.326   9.397  14.523
16323SOL    HW150743   6.308   9.318  14.573
16323SOL    HW250744   6.391   9.444  14.575
16324SOL     OW50745  13.976  11.028   9.966
16324SOL    HW150746  13.955  11.060   9.878
16324SOL    HW250747  13.994  11.108  10.017
16325SOL     OW50748   2.937  13.696   8.979
16325SOL    HW150749   2.842  13.681   8.981
16325SOL    HW250750   2.949  13.765   8.914
16326SOL     OW50751  12.625   4.400   9.673
16326SOL    HW150752  12.554   4.379   9.612
16326SOL    HW250753  12.705   4.375   9.627
16327SOL     OW50754  11.422   0.658   4.022
16327SOL    HW150755  11.332   0.687   4.007
16327SOL    HW250756  11.473   0.739   4.022
16328SOL     OW50757   1.976   3.854   6.908
16328SOL    HW150758   1.972   3.915   6.982
16328SOL    HW250759   2.068   3.830   6.903
16329SOL     OW50760   6.498  11.224   3.212
16329SOL    HW150761   6.525  11.316   3.207
16329SOL    HW250762   6.471  11.212   3.304
16330SOL     OW50763  12.803   0.516   7.885
16330SOL    HW150764  12.778   0.553   7.969
16330SOL    HW250765  12.733   0.542   7.825
16331SOL     OW50766   7.469  14.824   3.402
16331SOL    HW150767   7.426  14.810   3.487
16331SOL    HW250768   7.510   0.033   3.411
16332SOL     OW50769  12.196   4.584   1.014
16332SOL    HW150770  12.149   4.575   1.097
16332SOL    HW250771  12.126   4.599   0.950
16333SOL     OW50772  11.806  11.777  10.851
16333SOL    HW150773  11.712  11.762  10.861
16333SOL    HW250774  11.834  11.811  10.935
16334SOL     OW50775   9.641   1.643   7.857
16334SOL    HW150776   9.680   1.566   7.899
16334SOL    HW250777   9.549   1.620   7.844
16335SOL     OW50778   4.173   7.365   1.991
16335SOL    HW150779   4.264   7.376   1.961
16335SOL    HW250780   4.172   7.278   2.032
16336SOL     OW50781  13.089   3.373   3.939
16336SOL    HW150782  13.040   3.295   3.965
16336SOL    HW250783  13.176   3.360   3.975
16337SOL     OW50784  13.609   4.530   3.507
16337SOL    HW150785  13.658   4.499   3.584
16337SOL    HW250786  13.520   4.544   3.540
16338SOL     OW50787   1.538   8.439   9.113
16338SOL    HW150788   1.593   8.517   9.109
16338SOL    HW250789   1.530   8.411   9.021
16339SOL     OW50790  11.744  14.206  10.997
16339SOL    HW150791  11.797  14.173  11.069
16339SOL    HW250792  11.806  14.239  10.933
16340SOL     OW50793  12.037   8.727   6.403
16340SOL    HW150794  11.945   8.751   6.415
16340SOL    HW250795  12.057   8.753   6.313
16341SOL     OW50796   0.346   0.836  14.719
16341SOL    HW150797   0.365   0.745  14.744
16341SOL    HW250798   0.289   0.828  14.643
16342SOL     OW50799  14.628   0.789   1.432
16342SOL    HW150800  14.692   0.726   1.466
16342SOL    HW250801  14.677   0.871   1.423
16343SOL     OW50802  12.362  14.185   4.541
16343SOL    HW150803  12.367  14.199   4.635
16343SOL    HW250804  12.450  14.160   4.515
16344SOL     OW50805   2.668  10.885  12.962
16344SOL    HW150806   2.668  10.940  12.883
16344SOL    HW250807   2.675  10.947  13.034
16345SOL     OW50808   6.387   7.538   5.218
16345SOL    HW150809   6.383   7.451   5.178
16345SOL    HW250810   6.333   7.530   5.297
16346SOL     OW50811   3.025   9.914  14.541
16346SOL    HW150812   2.957   9.933  14.605
16346SOL    HW250813   3.033   9.819  14.541
16347SOL     OW50814   7.222  13.098   5.471
16347SOL    HW150815   7.138  13.143   5.478
16347SOL    HW250816   7.200  13.008   5.448
16348SOL     OW50817   5.562   0.778  12.217
16348SOL    HW150818   5.597   0.864  12.192
16348SOL    HW250819   5.601   0.717  12.155
16349SOL     OW50820   7.533   8.754   3.292
16349SOL    HW150821   7.440   8.773   3.307
16349SOL    HW250822   7.567   8.732   3.378
16350SOL     OW50823  11.489   6.227   5.571
16350SOL    HW150824  11.436   6.272   5.637
16350SOL    HW250825  11.503   6.140   5.607
16351SOL     OW50826   0.986   8.731   9.987
16351SOL    HW150827   0.957   8.741   9.897
16351SOL    HW250828   0.936   8.796  10.036
16352SOL     OW50829  14.772   5.633  12.830
16352SOL    HW150830  14.751   5.607  12.740
16352SOL    HW250831  14.689   5.668  12.865
16353SOL     OW50832  14.110   6.618   1.575
16353SOL    HW150833  14.117   6.703   1.619
16353SOL    HW250834  14.176   6.563   1.616
16354SOL     OW50835   6.947   1.510   8.610
16354SOL    HW150836   6.860   1.506   8.648
16354SOL    HW250837   6.944   1.450   8.535
16355SOL     OW50838   7.536   8.862   0.831
16355SOL    HW150839   7.479   8.884   0.757
16355SOL    HW250840   7.567   8.773   0.813
16356SOL     OW50841   3.176   4.380  12.212
16356SOL    HW150842   3.256   4.418  12.247
16356SOL    HW250843   3.179   4.397  12.118
16357SOL     OW50844   5.743   5.389  10.637
16357SOL    HW150845   5.648   5.399  10.651
16357SOL    HW250846   5.765   5.462  10.579
16358SOL     OW50847   7.977   0.225   0.161
16358SOL    HW150848   7.985   0.205   0.254
16358SOL    HW250849   8.049   0.285   0.142
16359SOL     OW50850  12.662   1.242   6.476
16359SOL    HW150851  12.571   1.217   6.463
16359SOL    HW250852  12.673   1.244   6.571
16360SOL     OW50853  12.292   4.153   0.320
16360SOL    HW150854  12.288   4.156   0.224
16360SOL    HW250855  12.285   4.061   0.342
16361SOL     OW50856   9.479   8.329   5.858
16361SOL    HW150857   9.467   8.235   5.846
16361SOL    HW250858   9.390   8.364   5.870
16362SOL     OW50859   9.104   0.099   5.019
16362SOL    HW150860   9.026   0.125   4.970
16362SOL    HW250861   9.117   0.007   4.996
16363SOL     OW50862   1.408   9.060  11.437
16363SOL    HW150863   1.479   9.063  11.373
16363SOL    HW250864   1.415   9.142  11.486
16364SOL     OW50865   5.740   1.080   9.497
16364SOL    HW150866   5.747   0.986   9.512
16364SOL    HW250867   5.821   1.103   9.451
16365SOL     OW50868  14.339   8.662   7.516
16365SOL    HW150869  14.403   8.605   7.557
16365SOL    HW250870  14.285   8.694   7.588
16366SOL     OW50871   4.448   2.696   3.163
16366SOL    HW150872   4.515   2.648   3.213
16366SOL    HW250873   4.479   2.694   3.073
16367SOL     OW50874  11.693  13.814   3.697
16367SOL    HW150875  11.652  13.728   3.708
16367SOL    HW250876  11.676  13.859   3.780
16368SOL     OW50877   9.721  12.426   9.315
16368SOL    HW150878   9.696  12.434   9.407
16368SOL    HW250879   9.722  12.332   9.299
16369SOL     OW50880   9.531   4.141  10.853
16369SOL    HW150881   9.594   4.212  10.839
16369SOL    HW250882   9.466   4.178  10.912
16370SOL     OW50883   5.539   8.739  12.895
16370SOL    HW150884   5.602   8.785  12.841
16370SOL    HW250885   5.486   8.688  12.833
16371SOL     OW50886   3.170  10.760  14.452
16371SOL    HW150887   3.142  10.704  14.379
16371SOL    HW250888   3.263  10.776  14.435
16372SOL     OW50889   0.102   5.977   0.656
16372SOL    HW150890   0.149   5.905   0.698
16372SOL    HW250891   0.014   5.944   0.641
16373SOL     OW50892   9.805   7.999  13.587
16373SOL    HW150893   9.727   8.035  13.544
16373SOL    HW250894   9.861   7.972  13.515
16374SOL     OW50895  11.934  12.514  11.704
16374SOL    HW150896  11.884  12.505  11.785
16374SOL    HW250897  12.024  12.527  11.732
16375SOL     OW50898   9.664   9.922  11.168
16375SOL    HW150899   9.584   9.934  11.219
16375SOL    HW250900   9.725   9.988  11.202
16376SOL     OW50901  13.567  12.065   3.928
16376SOL    HW150902  13.609  11.981   3.944
16376SOL    HW250903  13.562  12.071   3.832
16377SOL     OW50904  14.867  11.157   4.816
16377SOL    HW150905  14.784  11.150   4.862
16377SOL    HW250906   0.031  11.235   4.853
16378SOL     OW50907   6.802   3.088  14.009
16378SOL    HW150908   6.808   3.183  13.993
16378SOL    HW250909   6.879   3.051  13.965
16379SOL     OW50910  12.747   6.675   6.162
16379SOL    HW150911  12.660   6.676   6.203
16379SOL    HW250912  12.736   6.726   6.082
16380SOL     OW50913   0.700   1.566  14.693
16380SOL    HW150914   0.749   1.493  14.655
16380SOL    HW250915   0.707   1.553  14.787
16381SOL     OW50916   4.986   5.063  13.452
16381SOL    HW150917   5.029   4.989  13.495
16381SOL    HW250918   4.921   5.022  13.394
16382SOL     OW50919  11.385   1.691   4.252
16382SOL    HW150920  11.408   1.623   4.190
16382SOL    HW250921  11.373   1.645   4.335
16383SOL     OW50922   4.892  13.256  12.687
16383SOL    HW150923   4.817  13.223  12.637
16383SOL    HW250924   4.953  13.288  12.620
16384SOL     OW50925   3.948   5.861  12.909
16384SOL    HW150926   3.873   5.895  12.860
16384SOL    HW250927   3.999   5.814  12.844
16385SOL     OW50928  12.086   8.952  11.643
16385SOL    HW150929  12.174   8.985  11.657
16385SOL    HW250930  12.071   8.893  11.717
16386SOL     OW50931  10.023   2.277   6.993
16386SOL    HW150932  10.067   2.192   6.987
16386SOL    HW250933  10.075   2.327   7.056
16387SOL     OW50934   4.666   7.421   6.716
16387SOL    HW150935   4.712   7.485   6.662
16387SOL    HW250936   4.595   7.390   6.660
16388SOL     OW50937   1.107   2.939  13.585
16388SOL    HW150938   1.202   2.937  13.600
16388SOL    HW250939   1.083   2.847  13.575
16389SOL     OW50940  12.633   4.119  10.816
16389SOL    HW150941  12.636   4.168  10.734
16389SOL    HW250942  12.714   4.068  10.817
16390SOL     OW50943   5.233   4.350   7.270
16390SOL    HW150944   5.205   4.311   7.187
16390SOL    HW250945   5.172   4.314   7.335
16391SOL     OW50946   6.628  10.885  10.385
16391SOL    HW150947   6.608  10.898  10.477
16391SOL    HW250948   6.712  10.928  10.372
16392SOL     OW50949   3.802   8.179  13.615
16392SOL    HW150950   3.862   8.251  13.594
16392SOL    HW250951   3.859   8.109  13.646
16393SOL     OW50952   3.444   7.298   9.381
16393SOL    HW150953   3.359   7.331   9.410
16393SOL    HW250954   3.431   7.277   9.289
16394SOL     OW50955   9.507  13.982   0.460
16394SOL    HW150956   9.457  13.997   0.540
16394SOL    HW250957   9.583  13.932   0.488
16395SOL     OW50958   9.484   3.529  14.588
16395SOL    HW150959   9.546   3.487  14.647
16395SOL    HW250960   9.398   3.502  14.621
16396SOL     OW50961   9.573  14.279   8.037
16396SOL    HW150962   9.507  14.223   7.996
16396SOL    HW250963   9.523  14.352   8.074
16397SOL     OW50964   9.286  10.659  11.668
16397SOL    HW150965   9.288  10.754  11.657
16397SOL    HW250966   9.273  10.646  11.762
16398SOL     OW50967  12.094  10.787   5.972
16398SOL    HW150968  12.042  10.749   6.042
16398SOL    HW250969  12.057  10.751   5.891
16399SOL     OW50970   1.446   8.439   2.568
16399SOL    HW150971   1.402   8.403   2.490
16399SOL    HW250972   1.434   8.372   2.635
16400SOL     OW50973   6.418  14.464   5.049
16400SOL    HW150974   6.479  14.444   5.119
16400SOL    HW250975   6.473  14.492   4.976
16401SOL     OW50976   9.261   9.634   0.149
16401SOL    HW150977   9.312   9.661   0.072
16401SOL    HW250978   9.170   9.649   0.124
16402SOL     OW50979   0.877  12.706   4.415
16402SOL    HW150980   0.794  12.666   4.389
16402SOL    HW250981   0.853  12.794   4.444
16403SOL     OW50982   7.750   9.377   5.040
16403SOL    HW150983   7.669   9.326   5.037
16403SOL    HW250984   7.741   9.432   5.118
16404SOL     OW50985   5.325   0.262   1.305
16404SOL    HW150986   5.250   0.210   1.274
16404SOL    HW250987   5.397   0.200   1.310
16405SOL     OW50988   3.868   5.066  14.201
16405SOL    HW150989   3.961   5.060  14.224
16405SOL    HW250990   3.840   5.150  14.238
16406SOL     OW50991   7.051   2.552   4.361
16406SOL    HW150992   7.092   2.486   4.416
16406SOL    HW250993   7.064   2.635   4.408
16407SOL     OW50994   2.624   6.386   1.189
16407SOL    HW150995   2.605   6.298   1.158
16407SOL    HW250996   2.716   6.383   1.216
16408SOL     OW50997  12.790   4.503   0.041
16408SOL    HW150998  12.775   4.433  14.856
16408SOL    HW250999  12.882   4.526   0.031
16409SOL     OW51000   4.366  10.015  11.592
16409SOL    HW151001   4.288  10.027  11.647
16409SOL    HW251002   4.353   9.928  11.552
16410SOL     OW51003   1.337   9.098   6.990
16410SOL    HW151004   1.331   9.080   7.084
16410SOL    HW251005   1.423   9.139   6.978
16411SOL     OW51006   9.397   6.199  14.473
16411SOL    HW151007   9.412   6.159  14.559
16411SOL    HW251008   9.310   6.167  14.447
16412SOL     OW51009  11.889   1.640   2.808
16412SOL    HW151010  11.973   1.628   2.762
16412SOL    HW251011  11.887   1.571   2.873
16413SOL     OW51012  13.206   9.201   0.071
16413SOL    HW151013  13.234   9.229  14.862
16413SOL    HW251014  13.126   9.151   0.056
16414SOL     OW51015  12.023  13.868   8.894
16414SOL    HW151016  12.059  13.891   8.979
16414SOL    HW251017  12.078  13.915   8.831
16415SOL     OW51018  13.052   7.284  10.230
16415SOL    HW151019  13.007   7.342  10.290
16415SOL    HW251020  13.144   7.285  10.259
16416SOL     OW51021  14.350   3.656   9.746
16416SOL    HW151022  14.364   3.688   9.656
16416SOL    HW251023  14.424   3.598   9.763
16417SOL     OW51024   5.226  13.196   9.189
16417SOL    HW151025   5.276  13.173   9.110
16417SOL    HW251026   5.146  13.144   9.182
16418SOL     OW51027   4.116  14.450   4.348
16418SOL    HW151028   4.135  14.430   4.256
16418SOL    HW251029   4.035  14.501   4.345
16419SOL     OW51030   5.185   6.735  14.563
16419SOL    HW151031   5.262   6.744  14.506
16419SOL    HW251032   5.176   6.641  14.575
16420SOL     OW51033   7.399  10.315  11.235
16420SOL    HW151034   7.468  10.250  11.225
16420SOL    HW251035   7.369  10.332  11.146
16421SOL     OW51036   2.937   2.281  12.590
16421SOL    HW151037   2.858   2.226  12.589
16421SOL    HW251038   2.929   2.335  12.512
16422SOL     OW51039   0.203   6.224   6.855
16422SOL    HW151040   0.115   6.226   6.818
16422SOL    HW251041   0.190   6.234   6.949
16423SOL     OW51042   8.765   0.981  13.709
16423SOL    HW151043   8.716   1.017  13.784
16423SOL    HW251044   8.852   0.963  13.744
16424SOL     OW51045  14.855   3.736  11.487
16424SOL    HW151046  14.808   3.796  11.430
16424SOL    HW251047  14.787   3.698  11.543
16425SOL     OW51048   1.202  13.067   2.421
16425SOL    HW151049   1.109  13.089   2.412
16425SOL    HW251050   1.221  13.082   2.513
16426SOL     OW51051  11.902  14.123   8.682
16426SOL    HW151052  11.954  14.111   8.603
16426SOL    HW251053  11.892  14.218   8.689
16427SOL     OW51054  12.468   3.059   5.163
16427SOL    HW151055  12.513   2.975   5.170
16427SOL    HW251056  12.537   3.124   5.170
16428SOL     OW51057   6.683   7.578   9.332
16428SOL    HW151058   6.677   7.576   9.236
16428SOL    HW251059   6.660   7.668   9.355
16429SOL     OW51060   5.642   2.381   3.108
16429SOL    HW151061   5.642   2.471   3.142
16429SOL    HW251062   5.685   2.330   3.177
16430SOL     OW51063  12.202   3.468   7.284
16430SOL    HW151064  12.296   3.467   7.301
16430SOL    HW251065  12.193   3.510   7.198
16431SOL     OW51066   0.207   0.431  10.811
16431SOL    HW151067   0.267   0.384  10.753
16431SOL    HW251068   0.258   0.507  10.841
16432SOL     OW51069   3.693  10.342   0.651
16432SOL    HW151070   3.629  10.413   0.642
16432SOL    HW251071   3.732  10.356   0.737
16433SOL     OW51072   8.548   1.385   7.783
16433SOL    HW151073   8.468   1.357   7.827
16433SOL    HW251074   8.607   1.310   7.792
16434SOL     OW51075   4.866   6.872   1.970
16434SOL    HW151076   4.949   6.858   2.015
16434SOL    HW251077   4.813   6.922   2.032
16435SOL     OW51078   4.905  12.757   9.057
16435SOL    HW151079   4.884  12.842   9.017
16435SOL    HW251080   4.998  12.743   9.035
16436SOL     OW51081  13.128   4.574   1.357
16436SOL    HW151082  13.164   4.492   1.325
16436SOL    HW251083  13.205   4.625   1.385
16437SOL     OW51084   2.217   9.936   8.784
16437SOL    HW151085   2.251   9.871   8.723
16437SOL    HW251086   2.251   9.909   8.869
16438SOL     OW51087   0.947   7.641  11.000
16438SOL    HW151088   1.021   7.618  10.945
16438SOL    HW251089   0.919   7.727  10.968
16439SOL     OW51090  12.634  11.791   2.324
16439SOL    HW151091  12.574  11.717   2.332
16439SOL    HW251092  12.708  11.767   2.380
16440SOL     OW51093  14.016   7.590   9.151
16440SOL    HW151094  14.025   7.622   9.062
16440SOL    HW251095  14.045   7.499   9.147
16441SOL     OW51096  10.612  14.751  10.441
16441SOL    HW151097  10.676  14.700  10.391
16441SOL    HW251098  10.658  14.775  10.521
16442SOL     OW51099   3.362  10.036   7.037
16442SOL    HW151100   3.328  10.104   7.095
16442SOL    HW251101   3.306  10.039   6.960
16443SOL     OW51102  13.384   5.718   9.474
16443SOL    HW151103  13.298   5.724   9.433
16443SOL    HW251104  13.380   5.782   9.546
16444SOL     OW51105   0.537  13.046  14.144
16444SOL    HW151106   0.552  13.140  14.141
16444SOL    HW251107   0.621  13.007  14.116
16445SOL     OW51108   3.044  12.096  10.899
16445SOL    HW151109   3.116  12.156  10.917
16445SOL    HW251110   2.970  12.131  10.948
16446SOL     OW51111  11.837   3.385  12.380
16446SOL    HW151112  11.830   3.321  12.309
16446SOL    HW251113  11.757   3.437  12.374
16447SOL     OW51114   4.211  14.390   5.274
16447SOL    HW151115   4.255  14.405   5.190
16447SOL    HW251116   4.243  14.460   5.331
16448SOL     OW51117   2.651   7.253   0.176
16448SOL    HW151118   2.679   7.277   0.265
16448SOL    HW251119   2.654   7.335   0.127
16449SOL     OW51120  12.899   4.262   5.988
16449SOL    HW151121  12.929   4.182   6.031
16449SOL    HW251122  12.834   4.298   6.048
16450SOL     OW51123   0.263   2.372   4.841
16450SOL    HW151124   0.255   2.359   4.746
16450SOL    HW251125   0.241   2.465   4.854
16451SOL     OW51126   3.457   1.192   8.479
16451SOL    HW151127   3.454   1.282   8.446
16451SOL    HW251128   3.392   1.146   8.427
16452SOL     OW51129   1.390   2.245   7.429
16452SOL    HW151130   1.320   2.201   7.381
16452SOL    HW251131   1.469   2.227   7.377
16453SOL     OW51132  14.248  11.581   2.797
16453SOL    HW151133  14.192  11.655   2.821
16453SOL    HW251134  14.190  11.505   2.802
16454SOL     OW51135   0.136   9.578  12.195
16454SOL    HW151136   0.134   9.612  12.285
16454SOL    HW251137   0.217   9.527  12.190
16455SOL     OW51138   2.896  11.359  12.032
16455SOL    HW151139   2.831  11.301  11.992
16455SOL    HW251140   2.852  11.396  12.108
16456SOL     OW51141   8.142   8.247  10.394
16456SOL    HW151142   8.103   8.315  10.450
16456SOL    HW251143   8.204   8.202  10.451
16457SOL     OW51144   3.303   9.293  12.299
16457SOL    HW151145   3.208   9.298  12.309
16457SOL    HW251146   3.318   9.211  12.252
16458SOL     OW51147   0.536   6.718  13.663
16458SOL    HW151148   0.452   6.693  13.623
16458SOL    HW251149   0.554   6.647  13.725
16459SOL     OW51150  10.964   5.529   1.235
16459SOL    HW151151  10.879   5.516   1.277
16459SOL    HW251152  11.024   5.475   1.286
16460SOL     OW51153   1.597  11.870   4.177
16460SOL    HW151154   1.547  11.889   4.256
16460SOL    HW251155   1.685  11.903   4.196
16461SOL     OW51156   7.302  13.145   0.527
16461SOL    HW151157   7.379  13.197   0.506
16461SOL    HW251158   7.270  13.113   0.443
16462SOL     OW51159   4.490  10.302   2.168
16462SOL    HW151160   4.399  10.327   2.151
16462SOL    HW251161   4.506  10.227   2.112
16463SOL     OW51162   8.312  14.792   6.144
16463SOL    HW151163   8.341  14.708   6.179
16463SOL    HW251164   8.216  14.790   6.151
16464SOL     OW51165   4.941   8.585  13.874
16464SOL    HW151166   5.022   8.631  13.894
16464SOL    HW251167   4.876   8.654  13.865
16465SOL     OW51168   6.076   2.270  10.131
16465SOL    HW151169   5.997   2.219  10.114
16465SOL    HW251170   6.110   2.291  10.044
16466SOL     OW51171  11.079   0.037   5.986
16466SOL    HW151172  11.142   0.110   5.987
16466SOL    HW251173  11.006   0.069   5.933
16467SOL     OW51174   4.086  11.417   9.576
16467SOL    HW151175   4.085  11.487   9.641
16467SOL    HW251176   4.008  11.365   9.598
16468SOL     OW51177   1.809   8.080   3.093
16468SOL    HW151178   1.871   8.027   3.043
16468SOL    HW251179   1.814   8.167   3.054
16469SOL     OW51180   8.549   0.447   3.214
16469SOL    HW151181   8.582   0.379   3.273
16469SOL    HW251182   8.537   0.402   3.130
16470SOL     OW51183   4.864   4.824   2.371
16470SOL    HW151184   4.903   4.847   2.455
16470SOL    HW251185   4.819   4.904   2.343
16471SOL     OW51186   2.009   6.326   9.865
16471SOL    HW151187   2.006   6.389   9.938
16471SOL    HW251188   2.057   6.372   9.797
16472SOL     OW51189   7.457   3.854  14.856
16472SOL    HW151190   7.484   3.838  14.765
16472SOL    HW251191   7.480   3.945  14.872
16473SOL     OW51192   0.284  10.061   0.484
16473SOL    HW151193   0.301   9.990   0.422
16473SOL    HW251194   0.305  10.140   0.434
16474SOL     OW51195   2.485   1.764   7.542
16474SOL    HW151196   2.435   1.748   7.462
16474SOL    HW251197   2.470   1.686   7.596
16475SOL     OW51198   7.621  14.352  11.379
16475SOL    HW151199   7.527  14.356  11.364
16475SOL    HW251200   7.656  14.432  11.340
16476SOL     OW51201   6.528  13.722   0.156
16476SOL    HW151202   6.577  13.796   0.121
16476SOL    HW251203   6.519  13.741   0.250
16477SOL     OW51204   7.303  10.666   9.561
16477SOL    HW151205   7.240  10.738   9.553
16477SOL    HW251206   7.329  10.646   9.471
16478SOL     OW51207  12.561   3.952   9.045
16478SOL    HW151208  12.539   4.043   9.025
16478SOL    HW251209  12.586   3.954   9.138
16479SOL     OW51210   0.593  13.822   2.353
16479SOL    HW151211   0.663  13.760   2.330
16479SOL    HW251212   0.524  13.804   2.288
16480SOL     OW51213   5.325  14.435   7.167
16480SOL    HW151214   5.293  14.369   7.106
16480SOL    HW251215   5.331  14.389   7.251
16481SOL     OW51216   2.536   2.902   5.433
16481SOL    HW151217   2.567   2.815   5.407
16481SOL    HW251218   2.575   2.961   5.369
16482SOL     OW51219  10.089   5.064  14.868
16482SOL    HW151220  10.152   5.095   0.055
16482SOL    HW251221  10.004   5.079   0.030
16483SOL     OW51222  10.696   0.699   1.345
16483SOL    HW151223  10.673   0.702   1.252
16483SOL    HW251224  10.662   0.614   1.375
16484SOL     OW51225  14.717  11.110  10.249
16484SOL    HW151226  14.782  11.040  10.241
16484SOL    HW251227  14.700  11.117  10.343
16485SOL     OW51228  12.544   0.949   2.522
16485SOL    HW151229  12.576   0.995   2.600
16485SOL    HW251230  12.623   0.932   2.471
16486SOL     OW51231   2.244   8.586  11.001
16486SOL    HW151232   2.272   8.534  11.076
16486SOL    HW251233   2.212   8.522  10.938
16487SOL     OW51234   8.355  12.466   7.856
16487SOL    HW151235   8.414  12.470   7.781
16487SOL    HW251236   8.352  12.373   7.880
16488SOL     OW51237  12.482  10.440   1.295
16488SOL    HW151238  12.552  10.376   1.295
16488SOL    HW251239  12.402  10.389   1.307
16489SOL     OW51240   3.967  13.452   3.983
16489SOL    HW151241   3.978  13.466   4.077
16489SOL    HW251242   3.909  13.376   3.976
16490SOL     OW51243  13.599   3.494   5.827
16490SOL    HW151244  13.550   3.522   5.750
16490SOL    HW251245  13.648   3.417   5.798
16491SOL     OW51246   7.902   1.484  11.545
16491SOL    HW151247   7.976   1.467  11.603
16491SOL    HW251248   7.905   1.578  11.528
16492SOL     OW51249   2.524   5.373   9.028
16492SOL    HW151250   2.568   5.289   9.017
16492SOL    HW251251   2.498   5.399   8.940
16493SOL     OW51252   7.512   0.874   3.449
16493SOL    HW151253   7.535   0.854   3.359
16493SOL    HW251254   7.596   0.889   3.493
16494SOL     OW51255   8.479   5.473   2.728
16494SOL    HW151256   8.477   5.396   2.785
16494SOL    HW251257   8.571   5.484   2.706
16495SOL     OW51258   5.542  13.737   3.514
16495SOL    HW151259   5.559  13.826   3.483
16495SOL    HW251260   5.629  13.702   3.534
16496SOL     OW51261  12.965  13.958   3.886
16496SOL    HW151262  12.909  13.913   3.950
16496SOL    HW251263  12.976  14.046   3.922
16497SOL     OW51264   4.153   9.041   0.258
16497SOL    HW151265   4.217   9.033   0.187
16497SOL    HW251266   4.175   8.970   0.318
16498SOL     OW51267   7.648  12.913   2.304
16498SOL    HW151268   7.578  12.932   2.367
16498SOL    HW251269   7.603  12.901   2.221
16499SOL     OW51270  11.171   4.993  10.511
16499SOL    HW151271  11.206   4.904  10.511
16499SOL    HW251272  11.104   4.992  10.579
16500SOL     OW51273  13.097  12.977  12.503
16500SOL    HW151274  13.015  12.974  12.454
16500SOL    HW251275  13.091  12.904  12.564
16501SOL     OW51276  14.477  13.265   5.519
16501SOL    HW151277  14.486  13.217   5.602
16501SOL    HW251278  14.383  13.279   5.509
16502SOL     OW51279  12.188   3.273   7.646
16502SOL    HW151280  12.265   3.242   7.693
16502SOL    HW251281  12.114   3.244   7.699
16503SOL     OW51282   9.325  12.987  11.009
16503SOL    HW151283   9.244  13.012  11.054
16503SOL    HW251284   9.395  13.022  11.063
16504SOL     OW51285   7.022  13.315   6.478
16504SOL    HW151286   7.096  13.363   6.516
16504SOL    HW251287   6.963  13.383   6.446
16505SOL     OW51288  11.524   8.000   7.207
16505SOL    HW151289  11.491   7.913   7.181
16505SOL    HW251290  11.500   8.057   7.134
16506SOL     OW51291   6.482   9.732  10.843
16506SOL    HW151292   6.571   9.699  10.831
16506SOL    HW251293   6.478   9.756  10.936
16507SOL     OW51294   6.064   0.789   8.949
16507SOL    HW151295   6.041   0.882   8.951
16507SOL    HW251296   5.994   0.746   9.000
16508SOL     OW51297   3.584   8.046   7.754
16508SOL    HW151298   3.602   8.067   7.845
16508SOL    HW251299   3.556   7.955   7.755
16509SOL     OW51300   8.718   3.636   4.979
16509SOL    HW151301   8.696   3.568   5.044
16509SOL    HW251302   8.722   3.717   5.030
16510SOL     OW51303   2.405   4.668   6.453
16510SOL    HW151304   2.361   4.611   6.516
16510SOL    HW251305   2.458   4.609   6.400
16511SOL     OW51306   4.589  11.763   6.550
16511SOL    HW151307   4.499  11.742   6.525
16511SOL    HW251308   4.590  11.749   6.645
16512SOL     OW51309  11.427  11.592   7.385
16512SOL    HW151310  11.521  11.582   7.402
16512SOL    HW251311  11.418  11.682   7.352
16513SOL     OW51312   8.159   9.024   5.830
16513SOL    HW151313   8.110   9.014   5.748
16513SOL    HW251314   8.098   8.996   5.898
16514SOL     OW51315   0.800  11.486  12.695
16514SOL    HW151316   0.762  11.404  12.726
16514SOL    HW251317   0.891  11.465  12.675
16515SOL     OW51318   3.049   3.727   7.598
16515SOL    HW151319   2.965   3.682   7.600
16515SOL    HW251320   3.074   3.727   7.505
16516SOL     OW51321  11.141   7.021  13.270
16516SOL    HW151322  11.061   6.991  13.313
16516SOL    HW251323  11.157   6.957  13.201
16517SOL     OW51324  10.974  14.061  12.864
16517SOL    HW151325  11.011  14.046  12.951
16517SOL    HW251326  10.927  14.144  12.873
16518SOL     OW51327   7.809   9.861   6.459
16518SOL    HW151328   7.852   9.917   6.394
16518SOL    HW251329   7.797   9.918   6.535
16519SOL     OW51330   3.689  10.369   3.676
16519SOL    HW151331   3.752  10.302   3.705
16519SOL    HW251332   3.742  10.435   3.632
16520SOL     OW51333   2.117   4.858  14.788
16520SOL    HW151334   2.193   4.807  14.761
16520SOL    HW251335   2.099   4.828   0.000
16521SOL     OW51336   9.016   5.975  10.704
16521SOL    HW151337   8.923   5.996  10.699
16521SOL    HW251338   9.052   6.005  10.620
16522SOL     OW51339   5.007   4.303   3.986
16522SOL    HW151340   5.055   4.331   4.063
16522SOL    HW251341   4.952   4.378   3.962
16523SOL     OW51342   6.743   9.122   2.192
16523SOL    HW151343   6.820   9.165   2.229
16523SOL    HW251344   6.692   9.193   2.153
16524SOL     OW51345   7.840   7.568  11.063
16524SOL    HW151346   7.788   7.519  11.000
16524SOL    HW251347   7.830   7.521  11.145
16525SOL     OW51348   6.365   8.305  10.646
16525SOL    HW151349   6.412   8.363  10.706
16525SOL    HW251350   6.380   8.217  10.681
16526SOL     OW51351   7.040   1.337   0.631
16526SOL    HW151352   7.054   1.250   0.594
16526SOL    HW251353   6.946   1.342   0.647
16527SOL     OW51354   9.532  13.813   2.115
16527SOL    HW151355   9.623  13.810   2.145
16527SOL    HW251356   9.501  13.722   2.124
16528SOL     OW51357   0.987   6.828   8.915
16528SOL    HW151358   1.062   6.851   8.860
16528SOL    HW251359   1.024   6.819   9.003
16529SOL     OW51360   2.518  14.308   0.208
16529SOL    HW151361   2.594  14.326   0.263
16529SOL    HW251362   2.550  14.244   0.144
16530SOL     OW51363   6.971   5.204   0.047
16530SOL    HW151364   6.999   5.157  14.846
16530SOL    HW251365   6.959   5.294   0.018
16531SOL     OW51366   4.995   5.578   9.857
16531SOL    HW151367   4.909   5.538   9.853
16531SOL    HW251368   5.031   5.568   9.769
16532SOL     OW51369   3.733   0.225  10.367
16532SOL    HW151370   3.705   0.290  10.431
16532SOL    HW251371   3.655   0.211  10.313
16533SOL     OW51372  11.444  14.355  11.651
16533SOL    HW151373  11.350  14.342  11.664
16533SOL    HW251374  11.456  14.450  11.652
16534SOL     OW51375   5.510   5.328   1.802
16534SOL    HW151376   5.598   5.329   1.764
16534SOL    HW251377   5.457   5.377   1.739
16535SOL     OW51378  10.811   3.065   2.372
16535SOL    HW151379  10.749   3.121   2.325
16535SOL    HW251380  10.867   3.028   2.304
16536SOL     OW51381   4.614   0.892  10.406
16536SOL    HW151382   4.620   0.987  10.395
16536SOL    HW251383   4.614   0.879  10.501
16537SOL     OW51384   2.463   8.183   3.047
16537SOL    HW151385   2.532   8.236   3.007
16537SOL    HW251386   2.489   8.176   3.139
16538SOL     OW51387   7.882   4.614   0.488
16538SOL    HW151388   7.951   4.679   0.498
16538SOL    HW251389   7.805   4.664   0.460
16539SOL     OW51390   7.252   1.608  14.474
16539SOL    HW151391   7.346   1.615  14.454
16539SOL    HW251392   7.221   1.536  14.420
16540SOL     OW51393   6.565  11.133   2.726
16540SOL    HW151394   6.518  11.075   2.666
16540SOL    HW251395   6.514  11.130   2.807
16541SOL     OW51396   3.541   4.584  12.791
16541SOL    HW151397   3.533   4.531  12.712
16541SOL    HW251398   3.540   4.521  12.863
16542SOL     OW51399  12.894  12.813   6.840
16542SOL    HW151400  12.949  12.890   6.830
16542SOL    HW251401  12.809  12.838   6.805
16543SOL     OW51402   6.307   5.403  14.358
16543SOL    HW151403   6.309   5.319  14.313
16543SOL    HW251404   6.233   5.396  14.419
16544SOL     OW51405  13.503   9.477   5.924
16544SOL    HW151406  13.423   9.440   5.886
16544SOL    HW251407  13.570   9.465   5.856
16545SOL     OW51408   4.979   1.500   3.128
16545SOL    HW151409   4.940   1.585   3.112
16545SOL    HW251410   5.074   1.516   3.121
16546SOL     OW51411   4.976   0.828  14.166
16546SOL    HW151412   4.931   0.901  14.122
16546SOL    HW251413   5.068   0.841  14.146
16547SOL     OW51414  11.890   5.309   3.449
16547SOL    HW151415  11.941   5.241   3.494
16547SOL    HW251416  11.799   5.288   3.471
16548SOL     OW51417   2.078   6.333  12.681
16548SOL    HW151418   2.124   6.272  12.624
16548SOL    HW251419   2.120   6.323  12.767
16549SOL     OW51420   1.350   3.381   0.616
16549SOL    HW151421   1.442   3.392   0.590
16549SOL    HW251422   1.300   3.398   0.537
16550SOL     OW51423   1.212  10.209  14.072
16550SOL    HW151424   1.157  10.136  14.044
16550SOL    HW251425   1.239  10.185  14.161
16551SOL     OW51426  12.653   9.034   3.167
16551SOL    HW151427  12.624   8.947   3.195
16551SOL    HW251428  12.666   9.082   3.249
16552SOL     OW51429   4.381   0.150  13.691
16552SOL    HW151430   4.288   0.170  13.703
16552SOL    HW251431   4.394   0.154  13.597
16553SOL     OW51432   6.981   4.284   3.342
16553SOL    HW151433   7.001   4.196   3.310
16553SOL    HW251434   6.941   4.270   3.428
16554SOL     OW51435   4.748   2.057   0.120
16554SOL    HW151436   4.750   2.093   0.032
16554SOL    HW251437   4.726   2.132   0.176
16555SOL     OW51438   4.626   4.489   1.122
16555SOL    HW151439   4.581   4.439   1.054
16555SOL    HW251440   4.568   4.564   1.139
16556SOL     OW51441   8.311   8.728  12.357
16556SOL    HW151442   8.270   8.641  12.350
16556SOL    HW251443   8.370   8.732  12.282
16557SOL     OW51444  12.744  13.595   6.164
16557SOL    HW151445  12.651  13.608   6.184
16557SOL    HW251446  12.787  13.673   6.199
16558SOL     OW51447   5.815  11.335   4.851
16558SOL    HW151448   5.798  11.412   4.798
16558SOL    HW251449   5.750  11.339   4.921
16559SOL     OW51450   3.869   3.196   1.532
16559SOL    HW151451   3.886   3.120   1.477
16559SOL    HW251452   3.830   3.261   1.473
16560SOL     OW51453  13.342   2.336   0.409
16560SOL    HW151454  13.259   2.305   0.373
16560SOL    HW251455  13.408   2.309   0.345
16561SOL     OW51456   4.576   8.891  10.319
16561SOL    HW151457   4.653   8.877  10.374
16561SOL    HW251458   4.591   8.977  10.278
16562SOL     OW51459  13.261  10.176  11.940
16562SOL    HW151460  13.236  10.123  11.864
16562SOL    HW251461  13.312  10.116  11.995
16563SOL     OW51462   5.503  11.876   0.988
16563SOL    HW151463   5.554  11.957   0.983
16563SOL    HW251464   5.511  11.837   0.901
16564SOL     OW51465   6.769   4.513  11.682
16564SOL    HW151466   6.837   4.544  11.623
16564SOL    HW251467   6.724   4.444  11.631
16565SOL     OW51468   1.385   9.380   2.317
16565SOL    HW151469   1.330   9.373   2.239
16565SOL    HW251470   1.346   9.453   2.366
16566SOL     OW51471  10.853   2.654  11.443
16566SOL    HW151472  10.866   2.727  11.381
16566SOL    HW251473  10.758   2.644  11.448
16567SOL     OW51474   6.094  10.306  13.196
16567SOL    HW151475   6.079  10.399  13.207
16567SOL    HW251476   6.054  10.266  13.273
16568SOL     OW51477   1.493   0.035  11.482
16568SOL    HW151478   1.551  14.835  11.486
16568SOL    HW251479   1.509   0.071  11.395
16569SOL     OW51480   2.170  13.795   9.204
16569SOL    HW151481   2.248  13.836   9.167
16569SOL    HW251482   2.101  13.861   9.196
16570SOL     OW51483  11.538   8.246  10.838
16570SOL    HW151484  11.513   8.225  10.928
16570SOL    HW251485  11.593   8.172  10.811
16571SOL     OW51486   3.700   6.339   6.802
16571SOL    HW151487   3.723   6.329   6.710
16571SOL    HW251488   3.682   6.250   6.832
16572SOL     OW51489   1.952  11.527   4.487
16572SOL    HW151490   2.040  11.543   4.522
16572SOL    HW251491   1.956  11.438   4.452
16573SOL     OW51492  10.384  11.538   9.615
16573SOL    HW151493  10.329  11.578   9.683
16573SOL    HW251494  10.438  11.475   9.663
16574SOL     OW51495  11.110   2.829  11.493
16574SOL    HW151496  11.128   2.735  11.494
16574SOL    HW251497  11.064   2.844  11.410
16575SOL     OW51498   1.753   1.076   4.286
16575SOL    HW151499   1.713   0.997   4.250
16575SOL    HW251500   1.814   1.044   4.353
16576SOL     OW51501   9.811   7.826  14.607
16576SOL    HW151502   9.734   7.792  14.653
16576SOL    HW251503   9.796   7.920  14.599
16577SOL     OW51504   5.368   5.208  11.600
16577SOL    HW151505   5.347   5.173  11.514
16577SOL    HW251506   5.316   5.289  11.607
16578SOL     OW51507   4.343   5.795  11.307
16578SOL    HW151508   4.387   5.790  11.222
16578SOL    HW251509   4.403   5.846  11.362
16579SOL     OW51510   0.490  11.718   5.472
16579SOL    HW151511   0.491  11.766   5.389
16579SOL    HW251512   0.580  11.686   5.483
16580SOL     OW51513   5.063   2.301   3.524
16580SOL    HW151514   5.004   2.322   3.597
16580SOL    HW251515   5.092   2.212   3.542
16581SOL     OW51516   9.940   9.059   2.506
16581SOL    HW151517   9.952   9.003   2.429
16581SOL    HW251518   9.848   9.085   2.502
16582SOL     OW51519   2.137   5.276   7.662
16582SOL    HW151520   2.212   5.255   7.606
16582SOL    HW251521   2.062   5.275   7.603
16583SOL     OW51522  13.257  12.505  11.914
16583SOL    HW151523  13.199  12.578  11.932
16583SOL    HW251524  13.321  12.507  11.985
16584SOL     OW51525  13.976   4.160  12.068
16584SOL    HW151526  13.988   4.237  12.124
16584SOL    HW251527  13.884   4.163  12.042
16585SOL     OW51528   0.358  14.037  11.866
16585SOL    HW151529   0.346  13.942  11.854
16585SOL    HW251530   0.452  14.048  11.875
16586SOL     OW51531  13.864   6.536   6.576
16586SOL    HW151532  13.845   6.488   6.656
16586SOL    HW251533  13.852   6.628   6.600
16587SOL     OW51534   6.155   8.986  12.917
16587SOL    HW151535   6.248   8.975  12.939
16587SOL    HW251536   6.121   8.897  12.913
16588SOL     OW51537   3.592   8.662   0.105
16588SOL    HW151538   3.508   8.617   0.107
16588SOL    HW251539   3.580   8.733   0.041
16589SOL     OW51540  14.756   6.580  11.615
16589SOL    HW151541  14.682   6.620  11.660
16589SOL    HW251542  14.720   6.500  11.577
16590SOL     OW51543   4.105  13.012   0.047
16590SOL    HW151544   4.082  13.105   0.056
16590SOL    HW251545   4.083  12.973   0.132
16591SOL     OW51546   8.554   6.324   1.410
16591SOL    HW151547   8.490   6.341   1.340
16591SOL    HW251548   8.600   6.407   1.420
16592SOL     OW51549   9.886   7.381   9.454
16592SOL    HW151550   9.974   7.417   9.441
16592SOL    HW251551   9.840   7.403   9.373
16593SOL     OW51552   9.105   6.615   9.979
16593SOL    HW151553   9.186   6.662  10.001
16593SOL    HW251554   9.107   6.537  10.035
16594SOL     OW51555   8.796  12.636   1.822
16594SOL    HW151556   8.774  12.666   1.911
16594SOL    HW251557   8.813  12.716   1.773
16595SOL     OW51558   5.437   9.622   4.205
16595SOL    HW151559   5.532   9.614   4.193
16595SOL    HW251560   5.415   9.553   4.268
16596SOL     OW51561   0.411  14.258   5.562
16596SOL    HW151562   0.381  14.183   5.512
16596SOL    HW251563   0.397  14.233   5.654
16597SOL     OW51564   7.927  11.594   5.165
16597SOL    HW151565   7.924  11.532   5.092
16597SOL    HW251566   7.845  11.643   5.158
16598SOL     OW51567  10.257  14.502  10.708
16598SOL    HW151568  10.310  14.567  10.661
16598SOL    HW251569  10.282  14.513  10.800
16599SOL     OW51570   9.629   0.004  11.390
16599SOL    HW151571   9.596   0.061  11.321
16599SOL    HW251572   9.632  14.794  11.350
16600SOL     OW51573   8.261   6.061   4.126
16600SOL    HW151574   8.189   6.113   4.160
16600SOL    HW251575   8.234   6.036   4.038
16601SOL     OW51576   7.546   6.944   2.788
16601SOL    HW151577   7.603   6.995   2.846
16601SOL    HW251578   7.603   6.916   2.716
16602SOL     OW51579   2.876   6.893   1.993
16602SOL    HW151580   2.818   6.888   1.917
16602SOL    HW251581   2.963   6.905   1.957
16603SOL     OW51582  13.162   0.330  10.742
16603SOL    HW151583  13.148   0.239  10.770
16603SOL    HW251584  13.074   0.364  10.726
16604SOL     OW51585   5.280   1.397   2.489
16604SOL    HW151586   5.271   1.317   2.437
16604SOL    HW251587   5.231   1.463   2.440
16605SOL     OW51588   0.116   5.553  12.542
16605SOL    HW151589   0.089   5.520  12.627
16605SOL    HW251590   0.035   5.561  12.492
16606SOL     OW51591   8.309  14.106  12.664
16606SOL    HW151592   8.278  14.194  12.644
16606SOL    HW251593   8.383  14.119  12.723
16607SOL     OW51594   8.274   3.113   6.713
16607SOL    HW151595   8.367   3.122   6.731
16607SOL    HW251596   8.248   3.032   6.758
16608SOL     OW51597  11.343  13.556   8.754
16608SOL    HW151598  11.299  13.612   8.818
16608SOL    HW251599  11.272  13.512   8.708
16609SOL     OW51600  14.030  12.131   2.986
16609SOL    HW151601  14.069  12.159   2.903
16609SOL    HW251602  13.948  12.179   2.992
16610SOL     OW51603   5.752   9.362   6.940
16610SOL    HW151604   5.841   9.325   6.936
16610SOL    HW251605   5.698   9.298   6.894
16611SOL     OW51606   7.891  10.655   5.670
16611SOL    HW151607   7.825  10.701   5.619
16611SOL    HW251608   7.881  10.688   5.759
16612SOL     OW51609   0.414   6.378   0.433
16612SOL    HW151610   0.383   6.469   0.440
16612SOL    HW251611   0.505   6.386   0.403
16613SOL     OW51612   7.470   6.923  10.208
16613SOL    HW151613   7.436   6.837  10.183
16613SOL    HW251614   7.563   6.909  10.223
16614SOL     OW51615   2.628   7.041   8.897
16614SOL    HW151616   2.544   7.083   8.880
16614SOL    HW251617   2.688   7.113   8.916
16615SOL     OW51618   3.949  14.002  14.768
16615SOL    HW151619   3.898  13.969  14.842
16615SOL    HW251620   4.037  14.018  14.804
16616SOL     OW51621  12.702   9.468   3.812
16616SOL    HW151622  12.784   9.478   3.862
16616SOL    HW251623  12.729   9.474   3.721
16617SOL     OW51624   8.322   6.701  11.301
16617SOL    HW151625   8.264   6.668  11.232
16617SOL    HW251626   8.280   6.672  11.383
16618SOL     OW51627  12.697  10.750  12.641
16618SOL    HW151628  12.769  10.694  12.611
16618SOL    HW251629  12.646  10.769  12.562
16619SOL     OW51630   2.439   7.264   4.200
16619SOL    HW151631   2.370   7.303   4.253
16619SOL    HW251632   2.399   7.251   4.114
16620SOL     OW51633   9.655   7.228   5.567
16620SOL    HW151634   9.692   7.231   5.478
16620SOL    HW251635   9.678   7.141   5.600
16621SOL     OW51636  10.468   4.276   8.363
16621SOL    HW151637  10.503   4.365   8.359
16621SOL    HW251638  10.448   4.262   8.456
16622SOL     OW51639   0.136   1.228   9.182
16622SOL    HW151640   0.140   1.186   9.096
16622SOL    HW251641   0.050   1.201   9.217
16623SOL     OW51642   3.044  10.225   5.541
16623SOL    HW151643   3.013  10.316   5.538
16623SOL    HW251644   3.004  10.189   5.620
16624SOL     OW51645  11.098   6.997   1.964
16624SOL    HW151646  11.194   6.997   1.962
16624SOL    HW251647  11.074   7.089   1.959
16625SOL     OW51648   9.766  11.925  13.828
16625SOL    HW151649   9.793  11.879  13.908
16625SOL    HW251650   9.711  11.862  13.782
16626SOL     OW51651  11.415   5.440   2.882
16626SOL    HW151652  11.434   5.433   2.975
16626SOL    HW251653  11.341   5.379   2.868
16627SOL     OW51654  13.451   6.951   2.864
16627SOL    HW151655  13.479   6.899   2.789
16627SOL    HW251656  13.491   7.037   2.851
16628SOL     OW51657  11.002   2.434   4.797
16628SOL    HW151658  10.972   2.517   4.834
16628SOL    HW251659  10.951   2.423   4.717
16629SOL     OW51660  14.858  13.957   8.917
16629SOL    HW151661   0.054  13.943   8.857
16629SOL    HW251662  14.858  13.879   8.973
16630SOL     OW51663   2.443   8.575   9.074
16630SOL    HW151664   2.428   8.549   8.983
16630SOL    HW251665   2.386   8.650   9.088
16631SOL     OW51666   1.193   2.400   5.187
16631SOL    HW151667   1.241   2.440   5.260
16631SOL    HW251668   1.232   2.438   5.108
16632SOL     OW51669  11.304  10.080   7.964
16632SOL    HW151670  11.248  10.006   7.941
16632SOL    HW251671  11.250  10.136   8.019
16633SOL     OW51672   5.183   1.403   6.808
16633SOL    HW151673   5.276   1.418   6.789
16633SOL    HW251674   5.164   1.459   6.882
16634SOL     OW51675   7.077  14.478   5.033
16634SOL    HW151676   7.112  14.390   5.041
16634SOL    HW251677   7.109  14.524   5.110
16635SOL     OW51678   2.971   7.403  12.860
16635SOL    HW151679   3.022   7.322  12.864
16635SOL    HW251680   2.993   7.441  12.774
16636SOL     OW51681  11.054   9.571  12.061
16636SOL    HW151682  11.031   9.659  12.033
16636SOL    HW251683  11.008   9.513  12.001
16637SOL     OW51684   7.964   9.581   0.985
16637SOL    HW151685   8.054   9.614   0.991
16637SOL    HW251686   7.962   9.533   0.902
16638SOL     OW51687  14.392   3.766   4.569
16638SOL    HW151688  14.454   3.839   4.573
16638SOL    HW251689  14.307   3.808   4.561
16639SOL     OW51690  13.318   3.305  13.821
16639SOL    HW151691  13.264   3.350  13.756
16639SOL    HW251692  13.378   3.372  13.853
16640SOL     OW51693   5.453   6.339   5.959
16640SOL    HW151694   5.417   6.290   5.885
16640SOL    HW251695   5.398   6.417   5.965
16641SOL     OW51696   3.353   4.456  11.775
16641SOL    HW151697   3.370   4.528  11.715
16641SOL    HW251698   3.326   4.383  11.719
16642SOL     OW51699   9.450   7.431   2.062
16642SOL    HW151700   9.458   7.352   2.009
16642SOL    HW251701   9.369   7.419   2.112
16643SOL     OW51702   4.989   2.976   7.472
16643SOL    HW151703   5.026   3.059   7.443
16643SOL    HW251704   4.950   2.938   7.394
16644SOL     OW51705  14.354   3.814   1.768
16644SOL    HW151706  14.323   3.723   1.766
16644SOL    HW251707  14.439   3.811   1.724
16645SOL     OW51708   8.901  11.161  13.984
16645SOL    HW151709   8.924  11.252  13.967
16645SOL    HW251710   8.922  11.115  13.903
16646SOL     OW51711   3.777   2.757   2.918
16646SOL    HW151712   3.690   2.722   2.901
16646SOL    HW251713   3.761   2.847   2.945
16647SOL     OW51714  14.331   2.027   7.258
16647SOL    HW151715  14.293   2.011   7.345
16647SOL    HW251716  14.260   2.068   7.208
16648SOL     OW51717  10.131  11.898   9.887
16648SOL    HW151718  10.179  11.918   9.968
16648SOL    HW251719  10.129  11.980   9.839
16649SOL     OW51720   9.039  10.335  14.223
16649SOL    HW151721   9.055  10.425  14.251
16649SOL    HW251722   8.991  10.296  14.296
16650SOL     OW51723   9.664   9.132  13.911
16650SOL    HW151724   9.584   9.111  13.959
16650SOL    HW251725   9.638   9.136  13.819
16651SOL     OW51726   1.827  12.008   9.920
16651SOL    HW151727   1.918  12.003   9.951
16651SOL    HW251728   1.803  12.099   9.933
16652SOL     OW51729   3.133   4.699   4.144
16652SOL    HW151730   3.175   4.647   4.076
16652SOL    HW251731   3.147   4.790   4.117
16653SOL     OW51732   2.231  13.360   2.717
16653SOL    HW151733   2.141  13.362   2.685
16653SOL    HW251734   2.242  13.273   2.753
16654SOL     OW51735  10.802   6.727  14.585
16654SOL    HW151736  10.792   6.822  14.594
16654SOL    HW251737  10.842   6.716  14.499
16655SOL     OW51738   3.957   1.559   7.393
16655SOL    HW151739   3.922   1.507   7.466
16655SOL    HW251740   3.929   1.649   7.412
16656SOL     OW51741   6.005  11.855  13.511
16656SOL    HW151742   5.994  11.808  13.594
16656SOL    HW251743   6.098  11.844  13.490
16657SOL     OW51744   5.506   6.625   7.579
16657SOL    HW151745   5.435   6.683   7.554
16657SOL    HW251746   5.580   6.652   7.525
16658SOL     OW51747  11.030   6.042  13.476
16658SOL    HW151748  11.050   6.125  13.433
16658SOL    HW251749  11.060   5.975  13.415
16659SOL     OW51750   5.568   9.327   1.556
16659SOL    HW151751   5.576   9.342   1.462
16659SOL    HW251752   5.474   9.333   1.573
16660SOL     OW51753   7.883  13.537   4.169
16660SOL    HW151754   7.797  13.501   4.189
16660SOL    HW251755   7.926  13.546   4.254
16661SOL     OW51756   4.204   8.652  13.440
16661SOL    HW151757   4.282   8.608  13.407
16661SOL    HW251758   4.200   8.735  13.393
16662SOL     OW51759   4.599   4.351   9.251
16662SOL    HW151760   4.669   4.366   9.315
16662SOL    HW251761   4.644   4.314   9.175
16663SOL     OW51762   5.090  12.918   7.661
16663SOL    HW151763   5.059  12.880   7.579
16663SOL    HW251764   5.017  12.906   7.722
16664SOL     OW51765  13.899  14.400   1.940
16664SOL    HW151766  13.806  14.421   1.939
16664SOL    HW251767  13.928  14.423   2.029
16665SOL     OW51768   9.551  14.009   8.406
16665SOL    HW151769   9.545  13.944   8.336
16665SOL    HW251770   9.564  13.959   8.486
16666SOL     OW51771  12.312   7.760   0.521
16666SOL    HW151772  12.265   7.705   0.458
16666SOL    HW251773  12.401   7.763   0.488
16667SOL     OW51774   6.079  14.840  11.236
16667SOL    HW151775   6.164  14.845  11.281
16667SOL    HW251776   6.053   0.054  11.224
16668SOL     OW51777  14.614   7.965  13.476
16668SOL    HW151778  14.650   8.043  13.518
16668SOL    HW251779  14.660   7.892  13.516
16669SOL     OW51780   6.394   0.097  13.119
16669SOL    HW151781   6.422   0.177  13.164
16669SOL    HW251782   6.430   0.105  13.031
16670SOL     OW51783  13.853   1.897   6.087
16670SOL    HW151784  13.837   1.984   6.051
16670SOL    HW251785  13.903   1.851   6.019
16671SOL     OW51786  10.173   4.030   8.509
16671SOL    HW151787  10.132   4.091   8.570
16671SOL    HW251788  10.102   3.972   8.480
16672SOL     OW51789   1.795   7.372  13.402
16672SOL    HW151790   1.747   7.379  13.319
16672SOL    HW251791   1.788   7.280  13.426
16673SOL     OW51792   0.794  12.743  12.926
16673SOL    HW151793   0.729  12.782  12.984
16673SOL    HW251794   0.799  12.652  12.954
16674SOL     OW51795   9.193   0.285  14.027
16674SOL    HW151796   9.247   0.244  13.960
16674SOL    HW251797   9.112   0.310  13.981
16675SOL     OW51798   0.556  13.273   2.718
16675SOL    HW151799   0.468  13.272   2.757
16675SOL    HW251800   0.593  13.188   2.740
16676SOL     OW51801   7.606   4.998   4.049
16676SOL    HW151802   7.527   5.016   4.100
16676SOL    HW251803   7.617   4.903   4.054
16677SOL     OW51804   1.366   5.035  14.098
16677SOL    HW151805   1.332   5.032  14.009
16677SOL    HW251806   1.445   5.090  14.093
16678SOL     OW51807   3.172   0.724   8.447
16678SOL    HW151808   3.117   0.710   8.524
16678SOL    HW251809   3.260   0.736   8.482
16679SOL     OW51810  14.476   3.004   9.405
16679SOL    HW151811  14.390   2.988   9.443
16679SOL    HW251812  14.529   3.038   9.477
16680SOL     OW51813   7.685   5.631  12.444
16680SOL    HW151814   7.781   5.640  12.447
16680SOL    HW251815   7.653   5.708  12.492
16681SOL     OW51816   1.742   0.771  11.787
16681SOL    HW151817   1.646   0.764  11.785
16681SOL    HW251818   1.759   0.862  11.763
16682SOL     OW51819   4.780   0.128   6.419
16682SOL    HW151820   4.853   0.132   6.480
16682SOL    HW251821   4.705   0.162   6.468
16683SOL     OW51822   0.633  10.994   1.157
16683SOL    HW151823   0.542  10.964   1.153
16683SOL    HW251824   0.626  11.089   1.167
16684SOL     OW51825   1.830   0.645   4.520
16684SOL    HW151826   1.851   0.552   4.519
16684SOL    HW251827   1.899   0.684   4.574
16685SOL     OW51828   0.303   3.468   1.496
16685SOL    HW151829   0.333   3.380   1.473
16685SOL    HW251830   0.306   3.470   1.592
16686SOL     OW51831   6.533   7.207   8.486
16686SOL    HW151832   6.580   7.206   8.403
16686SOL    HW251833   6.482   7.288   8.484
16687SOL     OW51834   6.249   1.308   5.531
16687SOL    HW151835   6.159   1.342   5.527
16687SOL    HW251836   6.292   1.347   5.456
16688SOL     OW51837   7.294  11.496   0.762
16688SOL    HW151838   7.358  11.540   0.818
16688SOL    HW251839   7.343  11.424   0.721
16689SOL     OW51840   2.475  13.492  14.676
16689SOL    HW151841   2.511  13.498  14.765
16689SOL    HW251842   2.551  13.500  14.619
16690SOL     OW51843  10.532   3.173  11.602
16690SOL    HW151844  10.618   3.186  11.642
16690SOL    HW251845  10.551   3.138  11.515
16691SOL     OW51846   9.228  10.175   6.725
16691SOL    HW151847   9.185  10.247   6.772
16691SOL    HW251848   9.213  10.098   6.780
16692SOL     OW51849   0.980   9.017   3.533
16692SOL    HW151850   1.000   8.988   3.622
16692SOL    HW251851   1.017   8.949   3.477
16693SOL     OW51852  14.721   8.429   5.888
16693SOL    HW151853  14.809   8.392   5.894
16693SOL    HW251854  14.719   8.473   5.803
16694SOL     OW51855   5.230  14.248   3.551
16694SOL    HW151856   5.142  14.279   3.569
16694SOL    HW251857   5.272  14.244   3.637
16695SOL     OW51858   5.728   0.229   0.520
16695SOL    HW151859   5.718   0.320   0.492
16695SOL    HW251860   5.818   0.206   0.497
16696SOL     OW51861   1.225  11.149   8.553
16696SOL    HW151862   1.193  11.216   8.613
16696SOL    HW251863   1.235  11.070   8.608
16697SOL     OW51864   1.461   0.720  14.702
16697SOL    HW151865   1.449   0.629  14.729
16697SOL    HW251866   1.380   0.763  14.725
16698SOL     OW51867   0.790   8.096   8.450
16698SOL    HW151868   0.743   8.122   8.530
16698SOL    HW251869   0.755   8.153   8.382
16699SOL     OW51870  13.617   9.475  13.827
16699SOL    HW151871  13.590   9.386  13.802
16699SOL    HW251872  13.713   9.473  13.824
16700SOL     OW51873   8.147   4.511  11.930
16700SOL    HW151874   8.191   4.535  11.849
16700SOL    HW251875   8.202   4.443  11.968
16701SOL     OW51876   7.934   6.671   6.927
16701SOL    HW151877   7.956   6.661   7.020
16701SOL    HW251878   7.872   6.601   6.909
16702SOL     OW51879  12.532   6.462   1.954
16702SOL    HW151880  12.493   6.539   1.995
16702SOL    HW251881  12.536   6.485   1.861
16703SOL     OW51882   7.163   2.968   9.147
16703SOL    HW151883   7.221   2.976   9.223
16703SOL    HW251884   7.106   2.894   9.168
16704SOL     OW51885   1.637  14.529   0.696
16704SOL    HW151886   1.584  14.553   0.620
16704SOL    HW251887   1.659  14.612   0.738
16705SOL     OW51888   9.092  13.732   5.228
16705SOL    HW151889   9.124  13.703   5.313
16705SOL    HW251890   9.131  13.819   5.216
16706SOL     OW51891   5.117  12.230  10.929
16706SOL    HW151892   5.155  12.147  10.957
16706SOL    HW251893   5.025  12.224  10.952
16707SOL     OW51894  13.988   1.506  13.418
16707SOL    HW151895  14.078   1.502  13.385
16707SOL    HW251896  13.935   1.525  13.341
16708SOL     OW51897  13.835  11.998   9.551
16708SOL    HW151898  13.908  11.948   9.585
16708SOL    HW251899  13.857  12.089   9.570
16709SOL     OW51900  10.501   9.442   5.333
16709SOL    HW151901  10.490   9.534   5.310
16709SOL    HW251902  10.540   9.401   5.255
16710SOL     OW51903   1.301   4.306   3.977
16710SOL    HW151904   1.253   4.227   4.002
16710SOL    HW251905   1.304   4.358   4.057
16711SOL     OW51906   6.274   9.811   4.368
16711SOL    HW151907   6.185   9.831   4.399
16711SOL    HW251908   6.304   9.740   4.425
16712SOL     OW51909   4.026   6.791   8.057
16712SOL    HW151910   3.996   6.881   8.046
16712SOL    HW251911   3.985   6.742   7.986
16713SOL     OW51912   7.153   6.267  12.311
16713SOL    HW151913   7.223   6.322  12.276
16713SOL    HW251914   7.181   6.244  12.399
16714SOL     OW51915   4.382  11.706   5.024
16714SOL    HW151916   4.341  11.674   4.944
16714SOL    HW251917   4.471  11.731   4.998
16715SOL     OW51918   6.132  12.805  10.579
16715SOL    HW151919   6.051  12.756  10.587
16715SOL    HW251920   6.109  12.882  10.526
16716SOL     OW51921  13.043  14.719   8.488
16716SOL    HW151922  13.106  14.727   8.417
16716SOL    HW251923  13.018  14.627   8.488
16717SOL     OW51924  14.532   6.759   1.169
16717SOL    HW151925  14.529   6.719   1.082
16717SOL    HW251926  14.470   6.707   1.221
16718SOL     OW51927  13.139   8.823   3.158
16718SOL    HW151928  13.061   8.773   3.181
16718SOL    HW251929  13.112   8.914   3.167
16719SOL     OW51930   9.644   3.107  11.501
16719SOL    HW151931   9.595   3.168  11.556
16719SOL    HW251932   9.704   3.063  11.560
16720SOL     OW51933   9.500   6.082   2.805
16720SOL    HW151934   9.487   5.995   2.767
16720SOL    HW251935   9.591   6.082   2.835
16721SOL     OW51936   5.011  14.848   9.148
16721SOL    HW151937   5.083  14.809   9.198
16721SOL    HW251938   4.966   0.027   9.212
16722SOL     OW51939   3.311   6.528  14.641
16722SOL    HW151940   3.261   6.600  14.679
16722SOL    HW251941   3.376   6.507  14.708
16723SOL     OW51942   4.372   5.104  14.796
16723SOL    HW151943   4.305   5.164  14.761
16723SOL    HW251944   4.434   5.161  14.842
16724SOL     OW51945   3.002   7.626   0.118
16724SOL    HW151946   2.926   7.673   0.152
16724SOL    HW251947   2.969   7.539   0.096
16725SOL     OW51948   5.613  14.079   0.557
16725SOL    HW151949   5.568  14.163   0.560
16725SOL    HW251950   5.555  14.022   0.507
16726SOL     OW51951   9.873  14.550   8.075
16726SOL    HW151952   9.873  14.475   8.135
16726SOL    HW251953   9.796  14.600   8.100
16727SOL     OW51954   5.516  13.755   6.773
16727SOL    HW151955   5.541  13.787   6.859
16727SOL    HW251956   5.590  13.778   6.716
16728SOL     OW51957   6.259  14.657   7.961
16728SOL    HW151958   6.178  14.606   7.951
16728SOL    HW251959   6.231  14.748   7.962
16729SOL     OW51960   2.960   6.765  11.273
16729SOL    HW151961   2.953   6.860  11.265
16729SOL    HW251962   2.886   6.731  11.222
16730SOL     OW51963   5.013   5.730   3.303
16730SOL    HW151964   4.980   5.818   3.286
16730SOL    HW251965   5.080   5.742   3.370
16731SOL     OW51966   7.525   0.657  11.584
16731SOL    HW151967   7.461   0.586  11.584
16731SOL    HW251968   7.607   0.614  11.559
16732SOL     OW51969  14.870   2.870   4.418
16732SOL    HW151970   0.064   2.925   4.449
16732SOL    HW251971   0.008   2.785   4.459
16733SOL     OW51972  12.981   6.350   7.861
16733SOL    HW151973  12.906   6.325   7.807
16733SOL    HW251974  13.049   6.288   7.837
16734SOL     OW51975  13.513   6.936  12.615
16734SOL    HW151976  13.597   6.898  12.639
16734SOL    HW251977  13.453   6.862  12.609
16735SOL     OW51978   9.855   8.050   6.444
16735SOL    HW151979   9.775   8.051   6.391
16735SOL    HW251980   9.851   7.968   6.493
16736SOL     OW51981   7.629   0.729   0.129
16736SOL    HW151982   7.609   0.776   0.048
16736SOL    HW251983   7.667   0.796   0.186
16737SOL     OW51984   4.921   8.246  12.725
16737SOL    HW151985   4.839   8.264  12.772
16737SOL    HW251986   4.896   8.186  12.655
16738SOL     OW51987   5.753   2.949   8.152
16738SOL    HW151988   5.841   2.960   8.117
16738SOL    HW251989   5.722   2.867   8.114
16739SOL     OW51990  11.533   2.647  11.985
16739SOL    HW151991  11.505   2.641  11.894
16739SOL    HW251992  11.616   2.695  11.981
16740SOL     OW51993   9.292   9.706  10.638
16740SOL    HW151994   9.279   9.623  10.592
16740SOL    HW251995   9.294   9.772  10.570
16741SOL     OW51996  11.572  13.320  12.476
16741SOL    HW151997  11.599  13.331  12.567
16741SOL    HW251998  11.597  13.402  12.434
16742SOL     OW51999   4.253  10.463   2.125
16742SOL    HW152000   4.249  10.540   2.068
16742SOL    HW252001   4.189  10.402   2.087
16743SOL     OW52002   5.151   2.307  12.973
16743SOL    HW152003   5.060   2.321  12.946
16743SOL    HW252004   5.159   2.353  13.056
16744SOL     OW52005  12.299   1.800   7.035
16744SOL    HW152006  12.325   1.873   6.978
16744SOL    HW252007  12.345   1.724   6.999
16745SOL     OW52008  14.126   9.679   0.885
16745SOL    HW152009  14.126   9.682   0.981
16745SOL    HW252010  14.049   9.627   0.863
16746SOL     OW52011  12.320   5.713   1.595
16746SOL    HW152012  12.235   5.753   1.581
16746SOL    HW252013  12.383   5.784   1.584
16747SOL     OW52014   8.528   6.452   7.377
16747SOL    HW152015   8.582   6.410   7.310
16747SOL    HW252016   8.592   6.484   7.441
16748SOL     OW52017   1.767   4.300   3.116
16748SOL    HW152018   1.853   4.296   3.159
16748SOL    HW252019   1.726   4.378   3.153
16749SOL     OW52020  13.703   9.404   3.001
16749SOL    HW152021  13.623   9.444   3.034
16749SOL    HW252022  13.709   9.320   3.047
16750SOL     OW52023   6.736  13.164  11.267
16750SOL    HW152024   6.793  13.233  11.303
16750SOL    HW252025   6.793  13.088  11.260
16751SOL     OW52026   8.685   4.567   5.344
16751SOL    HW152027   8.776   4.581   5.318
16751SOL    HW252028   8.690   4.514   5.423
16752SOL     OW52029  13.039  10.588   0.893
16752SOL    HW152030  12.968  10.610   0.954
16752SOL    HW252031  12.993  10.569   0.810
16753SOL     OW52032   9.777   4.038  12.340
16753SOL    HW152033   9.821   4.058  12.422
16753SOL    HW252034   9.745   4.122  12.308
16754SOL     OW52035  13.634   5.706   4.792
16754SOL    HW152036  13.560   5.646   4.796
16754SOL    HW252037  13.673   5.689   4.706
16755SOL     OW52038  10.367  11.410   5.193
16755SOL    HW152039  10.362  11.424   5.288
16755SOL    HW252040  10.461  11.402   5.175
16756SOL     OW52041  11.434   9.413  12.751
16756SOL    HW152042  11.357   9.396  12.698
16756SOL    HW252043  11.493   9.341  12.731
16757SOL     OW52044   8.397   5.481   4.429
16757SOL    HW152045   8.399   5.406   4.488
16757SOL    HW252046   8.306   5.509   4.429
16758SOL     OW52047   6.781   5.913   6.401
16758SOL    HW152048   6.687   5.917   6.388
16758SOL    HW252049   6.817   5.891   6.315
16759SOL     OW52050   8.601   1.966   1.612
16759SOL    HW152051   8.679   1.985   1.560
16759SOL    HW252052   8.559   1.893   1.567
16760SOL     OW52053   7.346   7.339  13.125
16760SOL    HW152054   7.433   7.354  13.161
16760SOL    HW252055   7.337   7.404  13.055
16761SOL     OW52056   1.774   5.533  10.447
16761SOL    HW152057   1.755   5.568  10.534
16761SOL    HW252058   1.828   5.601  10.405
16762SOL     OW52059   0.114   8.481  13.939
16762SOL    HW152060   0.188   8.541  13.935
16762SOL    HW252061   0.077   8.494  14.026
16763SOL     OW52062   6.968   2.154   0.680
16763SOL    HW152063   6.944   2.217   0.612
16763SOL    HW252064   7.063   2.142   0.669
16764SOL     OW52065   6.785   1.030   3.804
16764SOL    HW152066   6.861   1.078   3.838
16764SOL    HW252067   6.712   1.061   3.857
16765SOL     OW52068   0.068   7.236   9.869
16765SOL    HW152069  14.860   7.200   9.892
16765SOL    HW252070   0.127   7.201   9.936
16766SOL     OW52071   2.986   0.516  11.135
16766SOL    HW152072   2.963   0.423  11.132
16766SOL    HW252073   3.030   0.527  11.219
16767SOL     OW52074  11.424  11.928  10.807
16767SOL    HW152075  11.416  11.838  10.775
16767SOL    HW252076  11.497  11.925  10.869
16768SOL     OW52077  14.845   5.681   0.543
16768SOL    HW152078  14.761   5.727   0.542
16768SOL    HW252079  14.839   5.619   0.470
16769SOL     OW52080   2.846   4.092  12.017
16769SOL    HW152081   2.902   4.025  11.977
16769SOL    HW252082   2.907   4.157  12.051
16770SOL     OW52083   6.589  13.493   7.232
16770SOL    HW152084   6.672  13.447   7.243
16770SOL    HW252085   6.593  13.566   7.294
16771SOL     OW52086   0.359  13.118  14.733
16771SOL    HW152087   0.322  13.030  14.741
16771SOL    HW252088   0.445  13.111  14.773
16772SOL     OW52089   1.928  12.953   5.037
16772SOL    HW152090   1.863  12.938   5.106
16772SOL    HW252091   2.007  12.980   5.085
16773SOL     OW52092   8.037   2.168   3.364
16773SOL    HW152093   8.083   2.207   3.290
16773SOL    HW252094   8.046   2.074   3.351
16774SOL     OW52095  14.530   5.823   8.365
16774SOL    HW152096  14.539   5.863   8.452
16774SOL    HW252097  14.527   5.729   8.383
16775SOL     OW52098  11.641   8.287   2.851
16775SOL    HW152099  11.722   8.289   2.902
16775SOL    HW252100  11.637   8.373   2.809
16776SOL     OW52101   0.226  14.404   5.395
16776SOL    HW152102   0.269  14.407   5.480
16776SOL    HW252103   0.145  14.454   5.408
16777SOL     OW52104   0.364  10.873  13.626
16777SOL    HW152105   0.382  10.782  13.650
16777SOL    HW252106   0.449  10.917  13.632
16778SOL     OW52107   2.480   5.816   5.788
16778SOL    HW152108   2.482   5.736   5.840
16778SOL    HW252109   2.492   5.886   5.852
16779SOL     OW52110   2.818   8.931  10.823
16779SOL    HW152111   2.790   9.003  10.880
16779SOL    HW252112   2.908   8.954  10.798
16780SOL     OW52113   2.340   8.753   2.296
16780SOL    HW152114   2.408   8.691   2.271
16780SOL    HW252115   2.363   8.779   2.385
16781SOL     OW52116   4.254  14.588  13.085
16781SOL    HW152117   4.341  14.613  13.117
16781SOL    HW252118   4.254  14.615  12.993
16782SOL     OW52119  12.521  10.649  13.630
16782SOL    HW152120  12.429  10.642  13.658
16782SOL    HW252121  12.523  10.724  13.571
16783SOL     OW52122  12.807   6.615  11.278
16783SOL    HW152123  12.740   6.566  11.325
16783SOL    HW252124  12.809   6.576  11.190
16784SOL     OW52125  12.611   1.651   7.955
16784SOL    HW152126  12.599   1.678   7.864
16784SOL    HW252127  12.684   1.704   7.987
16785SOL     OW52128   2.721   1.000   1.528
16785SOL    HW152129   2.631   0.991   1.560
16785SOL    HW252130   2.717   1.072   1.465
16786SOL     OW52131   3.334   9.604   6.873
16786SOL    HW152132   3.271   9.630   6.940
16786SOL    HW252133   3.418   9.640   6.902
16787SOL     OW52134   4.985   6.582   2.584
16787SOL    HW152135   4.908   6.614   2.538
16787SOL    HW252136   5.052   6.573   2.516
16788SOL     OW52137  10.220   9.255  12.410
16788SOL    HW152138  10.196   9.216  12.494
16788SOL    HW252139  10.262   9.338  12.434
16789SOL     OW52140   8.021   7.064   2.681
16789SOL    HW152141   7.990   6.976   2.701
16789SOL    HW252142   7.943   7.119   2.681
16790SOL     OW52143  13.098   4.391   9.307
16790SOL    HW152144  13.016   4.381   9.260
16790SOL    HW252145  13.144   4.308   9.295
16791SOL     OW52146  14.442   4.376  13.972
16791SOL    HW152147  14.418   4.431  13.897
16791SOL    HW252148  14.392   4.296  13.959
16792SOL     OW52149   6.143   4.063   8.326
16792SOL    HW152150   6.131   4.089   8.235
16792SOL    HW252151   6.170   4.143   8.371
16793SOL     OW52152   6.877  14.380  14.493
16793SOL    HW152153   6.967  14.386  14.525
16793SOL    HW252154   6.835  14.460  14.525
16794SOL     OW52155  13.463   5.086   9.715
16794SOL    HW152156  13.391   5.061   9.656
16794SOL    HW252157  13.422   5.096   9.800
16795SOL     OW52158  14.563  12.501   2.800
16795SOL    HW152159  14.547  12.411   2.772
16795SOL    HW252160  14.493  12.519   2.863
16796SOL     OW52161   7.084   1.783   9.779
16796SOL    HW152162   7.145   1.851   9.750
16796SOL    HW252163   7.095   1.712   9.716
16797SOL     OW52164   2.865   8.206  11.027
16797SOL    HW152165   2.904   8.131  10.982
16797SOL    HW252166   2.931   8.275  11.019
16798SOL     OW52167   6.893   8.916  12.811
16798SOL    HW152168   6.960   8.911  12.742
16798SOL    HW252169   6.937   8.886  12.890
16799SOL     OW52170   4.513   7.517  10.224
16799SOL    HW152171   4.533   7.527  10.317
16799SOL    HW252172   4.495   7.423  10.214
16800SOL     OW52173  10.209  13.806   4.294
16800SOL    HW152174  10.222  13.763   4.209
16800SOL    HW252175  10.181  13.895   4.272
16801SOL     OW52176   7.680   2.389  14.461
16801SOL    HW152177   7.644   2.426  14.541
16801SOL    HW252178   7.605   2.384  14.401
16802SOL     OW52179   7.259   0.570   4.552
16802SOL    HW152180   7.223   0.582   4.464
16802SOL    HW252181   7.343   0.527   4.538
16803SOL     OW52182  11.878   9.907   7.168
16803SOL    HW152183  11.826   9.967   7.222
16803SOL    HW252184  11.814   9.868   7.108
16804SOL     OW52185  13.972   2.330   5.219
16804SOL    HW152186  13.890   2.286   5.240
16804SOL    HW252187  14.037   2.290   5.276
16805SOL     OW52188  11.824   5.095   1.291
16805SOL    HW152189  11.870   5.085   1.374
16805SOL    HW252190  11.893   5.107   1.226
16806SOL     OW52191   0.842   5.861  12.727
16806SOL    HW152192   0.853   5.776  12.768
16806SOL    HW252193   0.794   5.844  12.646
16807SOL     OW52194   9.189   9.927   6.871
16807SOL    HW152195   9.284   9.931   6.881
16807SOL    HW252196   9.158   9.886   6.952
16808SOL     OW52197   3.966   3.959  11.194
16808SOL    HW152198   4.025   3.886  11.177
16808SOL    HW252199   3.891   3.920  11.238
16809SOL     OW52200  12.965  14.148  12.612
16809SOL    HW152201  13.018  14.167  12.690
16809SOL    HW252202  12.911  14.074  12.637
16810SOL     OW52203  14.343  12.654   3.506
16810SOL    HW152204  14.419  12.603   3.534
16810SOL    HW252205  14.379  12.724   3.453
16811SOL     OW52206  11.156  11.687  11.018
16811SOL    HW152207  11.098  11.763  11.014
16811SOL    HW252208  11.112  11.621  10.965
16812SOL     OW52209  11.064  12.469  12.429
16812SOL    HW152210  11.100  12.392  12.473
16812SOL    HW252211  10.969  12.455  12.431
16813SOL     OW52212   8.475  12.732   4.139
16813SOL    HW152213   8.382  12.721   4.159
16813SOL    HW252214   8.483  12.704   4.048
16814SOL     OW52215  10.629  11.404  12.463
16814SOL    HW152216  10.574  11.475  12.431
16814SOL    HW252217  10.572  11.327  12.463
16815SOL     OW52218   5.207   3.264   2.076
16815SOL    HW152219   5.263   3.260   2.153
16815SOL    HW252220   5.212   3.177   2.037
16816SOL     OW52221   7.328   3.766   2.848
16816SOL    HW152222   7.281   3.810   2.920
16816SOL    HW252223   7.418   3.797   2.856
16817SOL     OW52224   8.522   4.246   1.158
16817SOL    HW152225   8.527   4.323   1.101
16817SOL    HW252226   8.452   4.266   1.219
16818SOL     OW52227  12.119   9.070   9.230
16818SOL    HW152228  12.120   9.141   9.294
16818SOL    HW252229  12.035   9.079   9.185
16819SOL     OW52230  10.579   6.292   2.021
16819SOL    HW152231  10.649   6.301   1.956
16819SOL    HW252232  10.500   6.322   1.975
16820SOL     OW52233   4.812   5.085   2.293
16820SOL    HW152234   4.745   5.148   2.267
16820SOL    HW252235   4.861   5.067   2.213
16821SOL     OW52236  13.914   6.876   3.099
16821SOL    HW152237  13.853   6.811   3.063
16821SOL    HW252238  13.992   6.869   3.044
16822SOL     OW52239   5.681   4.483  14.686
16822SOL    HW152240   5.645   4.414  14.630
16822SOL    HW252241   5.604   4.524  14.726
16823SOL     OW52242  14.532   1.715   1.199
16823SOL    HW152243  14.548   1.683   1.288
16823SOL    HW252244  14.616   1.706   1.155
16824SOL     OW52245   3.136   6.267  10.616
16824SOL    HW152246   3.176   6.318  10.686
16824SOL    HW252247   3.094   6.331  10.559
16825SOL     OW52248  11.365   4.876   1.271
16825SOL    HW152249  11.292   4.879   1.210
16825SOL    HW252250  11.416   4.954   1.252
16826SOL     OW52251   1.440  12.429  13.211
16826SOL    HW152252   1.519  12.386  13.243
16826SOL    HW252253   1.377  12.357  13.202
16827SOL     OW52254  12.723   4.152   7.950
16827SOL    HW152255  12.733   4.072   7.898
16827SOL    HW252256  12.667   4.209   7.898
16828SOL     OW52257   1.537  14.094  14.123
16828SOL    HW152258   1.554  14.016  14.176
16828SOL    HW252259   1.606  14.092  14.057
16829SOL     OW52260   3.356   5.817  14.688
16829SOL    HW152261   3.284   5.880  14.697
16829SOL    HW252262   3.395   5.838  14.603
16830SOL     OW52263   9.422  14.777   4.958
16830SOL    HW152264   9.365  14.766   4.881
16830SOL    HW252265   9.471  14.695   4.964
16831SOL     OW52266  10.967   1.931   0.029
16831SOL    HW152267  10.932   1.893  14.826
16831SOL    HW252268  10.961   1.860   0.093
16832SOL     OW52269   7.380   7.260   6.138
16832SOL    HW152270   7.454   7.321   6.135
16832SOL    HW252271   7.351   7.263   6.229
16833SOL     OW52272  13.284  12.913   8.921
16833SOL    HW152273  13.267  12.908   8.827
16833SOL    HW252274  13.201  12.888   8.961
16834SOL     OW52275   9.014   2.939   7.713
16834SOL    HW152276   8.935   2.986   7.741
16834SOL    HW252277   9.053   2.996   7.647
16835SOL     OW52278   1.094   0.037   8.667
16835SOL    HW152279   1.122   0.054   8.577
16835SOL    HW252280   1.125  14.825   8.685
16836SOL     OW52281   2.963  10.741   1.068
16836SOL    HW152282   2.909  10.768   0.994
16836SOL    HW252283   2.974  10.821   1.120
16837SOL     OW52284   0.980   4.500  14.293
16837SOL    HW152285   0.945   4.580  14.254
16837SOL    HW252286   1.011   4.527  14.380
16838SOL     OW52287   2.975   0.168   4.326
16838SOL    HW152288   2.912   0.101   4.353
16838SOL    HW252289   3.003   0.210   4.407
16839SOL     OW52290  11.378   0.502   4.939
16839SOL    HW152291  11.471   0.496   4.961
16839SOL    HW252292  11.372   0.474   4.848
16840SOL     OW52293  10.805   5.591   5.434
16840SOL    HW152294  10.730   5.644   5.409
16840SOL    HW252295  10.881   5.647   5.420
16841SOL     OW52296  14.003  10.519   5.197
16841SOL    HW152297  13.969  10.608   5.182
16841SOL    HW252298  13.968  10.494   5.282
16842SOL     OW52299  10.086   5.266   0.470
16842SOL    HW152300  10.092   5.248   0.564
16842SOL    HW252301  10.110   5.359   0.463
16843SOL     OW52302   0.935   9.955  12.976
16843SOL    HW152303   1.012   9.987  12.929
16843SOL    HW252304   0.874  10.029  12.974
16844SOL     OW52305   2.778  10.743   7.642
16844SOL    HW152306   2.779  10.651   7.616
16844SOL    HW252307   2.744  10.789   7.565
16845SOL     OW52308   9.257   2.743   0.813
16845SOL    HW152309   9.290   2.689   0.741
16845SOL    HW252310   9.299   2.706   0.891
16846SOL     OW52311   9.041   4.505   7.510
16846SOL    HW152312   8.998   4.521   7.594
16846SOL    HW252313   9.119   4.453   7.532
16847SOL     OW52314   1.557   5.167  12.071
16847SOL    HW152315   1.495   5.126  12.132
16847SOL    HW252316   1.633   5.187  12.126
16848SOL     OW52317  12.074   6.725   2.481
16848SOL    HW152318  12.040   6.764   2.561
16848SOL    HW252319  12.005   6.666   2.451
16849SOL     OW52320   6.722   8.207   8.584
16849SOL    HW152321   6.675   8.144   8.530
16849SOL    HW252322   6.655   8.267   8.615
16850SOL     OW52323   7.854  12.521   9.481
16850SOL    HW152324   7.842  12.528   9.386
16850SOL    HW252325   7.921  12.453   9.492
16851SOL     OW52326  12.834  13.777   8.782
16851SOL    HW152327  12.746  13.770   8.818
16851SOL    HW252328  12.871  13.855   8.823
16852SOL     OW52329   8.274   3.194   7.535
16852SOL    HW152330   8.278   3.103   7.505
16852SOL    HW252331   8.227   3.240   7.465
16853SOL     OW52332  10.372   7.379   4.558
16853SOL    HW152333  10.295   7.435   4.549
16853SOL    HW252334  10.337   7.293   4.580
16854SOL     OW52335   9.340  14.515  12.916
16854SOL    HW152336   9.315  14.467  12.837
16854SOL    HW252337   9.367  14.448  12.978
16855SOL     OW52338   0.138   9.494   0.632
16855SOL    HW152339   0.097   9.500   0.545
16855SOL    HW252340   0.196   9.570   0.636
16856SOL     OW52341   1.708   1.143  11.236
16856SOL    HW152342   1.800   1.160  11.255
16856SOL    HW252343   1.669   1.122  11.322
16857SOL     OW52344  12.448   5.421  14.348
16857SOL    HW152345  12.438   5.516  14.345
16857SOL    HW252346  12.535   5.406  14.310
16858SOL     OW52347  11.808   2.120  13.640
16858SOL    HW152348  11.806   2.057  13.569
16858SOL    HW252349  11.734   2.178  13.623
16859SOL     OW52350   6.140   0.443   7.431
16859SOL    HW152351   6.094   0.362   7.408
16859SOL    HW252352   6.111   0.507   7.366
16860SOL     OW52353   0.299   5.939  13.331
16860SOL    HW152354   0.231   5.889  13.376
16860SOL    HW252355   0.354   5.873  13.290
16861SOL     OW52356  14.655   4.151   3.269
16861SOL    HW152357  14.672   4.107   3.186
16861SOL    HW252358  14.574   4.200   3.255
16862SOL     OW52359   1.171  10.978   5.260
16862SOL    HW152360   1.260  10.995   5.291
16862SOL    HW252361   1.167  10.883   5.250
16863SOL     OW52362   0.751   2.791   5.277
16863SOL    HW152363   0.782   2.825   5.362
16863SOL    HW252364   0.801   2.711   5.264
16864SOL     OW52365  11.110   2.667  14.700
16864SOL    HW152366  11.080   2.720  14.626
16864SOL    HW252367  11.206   2.672  14.695
16865SOL     OW52368   2.878   0.248   3.913
16865SOL    HW152369   2.940   0.201   3.968
16865SOL    HW252370   2.806   0.187   3.900
16866SOL     OW52371   4.577   7.400  10.857
16866SOL    HW152372   4.653   7.342  10.857
16866SOL    HW252373   4.549   7.403  10.765
16867SOL     OW52374  14.124   7.585  10.552
16867SOL    HW152375  14.044   7.636  10.562
16867SOL    HW252376  14.194   7.649  10.553
16868SOL     OW52377  13.935  11.393  14.641
16868SOL    HW152378  14.020  11.365  14.607
16868SOL    HW252379  13.925  11.482  14.609
16869SOL     OW52380   9.051   6.891   1.238
16869SOL    HW152381   9.084   6.809   1.202
16869SOL    HW252382   9.048   6.876   1.332
16870SOL     OW52383  12.783   7.693   1.339
16870SOL    HW152384  12.820   7.609   1.310
16870SOL    HW252385  12.693   7.672   1.362
16871SOL     OW52386   9.803   3.403   1.673
16871SOL    HW152387   9.780   3.467   1.741
16871SOL    HW252388   9.810   3.320   1.720
16872SOL     OW52389  13.776  11.936   1.212
16872SOL    HW152390  13.799  12.017   1.257
16872SOL    HW252391  13.760  11.962   1.121
16873SOL     OW52392   5.297   0.530   2.023
16873SOL    HW152393   5.379   0.575   2.041
16873SOL    HW252394   5.237   0.601   1.998
16874SOL     OW52395   0.494   9.020  13.163
16874SOL    HW152396   0.425   8.964  13.129
16874SOL    HW252397   0.574   8.969  13.152
16875SOL     OW52398  10.706   7.020   4.936
16875SOL    HW152399  10.753   7.030   5.019
16875SOL    HW252400  10.615   7.006   4.961
16876SOL     OW52401   3.420  11.270  14.385
16876SOL    HW152402   3.411  11.325  14.308
16876SOL    HW252403   3.493  11.309  14.434
16877SOL     OW52404   2.277   5.581   8.631
16877SOL    HW152405   2.293   5.674   8.612
16877SOL    HW252406   2.196   5.581   8.683
16878SOL     OW52407   6.639   1.427   9.262
16878SOL    HW152408   6.663   1.365   9.331
16878SOL    HW252409   6.554   1.395   9.231
16879SOL     OW52410   6.219  10.860   8.738
16879SOL    HW152411   6.135  10.884   8.778
16879SOL    HW252412   6.259  10.800   8.801
16880SOL     OW52413   2.286   7.398   8.824
16880SOL    HW152414   2.317   7.470   8.879
16880SOL    HW252415   2.268   7.439   8.740
16881SOL     OW52416   5.205   2.397   9.109
16881SOL    HW152417   5.151   2.324   9.080
16881SOL    HW252418   5.277   2.356   9.157
16882SOL     OW52419   2.849   4.826   3.257
16882SOL    HW152420   2.843   4.919   3.235
16882SOL    HW252421   2.892   4.786   3.181
16883SOL     OW52422   5.423   3.279   5.315
16883SOL    HW152423   5.383   3.342   5.255
16883SOL    HW252424   5.477   3.332   5.373
16884SOL     OW52425   7.085   4.271  14.549
16884SOL    HW152426   7.135   4.198  14.512
16884SOL    HW252427   7.060   4.324  14.474
16885SOL     OW52428  12.550  13.836  11.111
16885SOL    HW152429  12.507  13.817  11.027
16885SOL    HW252430  12.557  13.931  11.113
16886SOL     OW52431   8.920   2.818   6.577
16886SOL    HW152432   8.851   2.821   6.511
16886SOL    HW252433   8.898   2.743   6.632
16887SOL     OW52434   7.103  14.802   8.890
16887SOL    HW152435   7.062  14.848   8.963
16887SOL    HW252436   7.084  14.857   8.814
16888SOL     OW52437   8.011  14.338  12.647
16888SOL    HW152438   8.022  14.428  12.618
16888SOL    HW252439   8.045  14.285  12.574
16889SOL     OW52440  12.226   8.263   1.447
16889SOL    HW152441  12.193   8.189   1.498
16889SOL    HW252442  12.310   8.285   1.489
16890SOL     OW52443  10.318   4.107   2.880
16890SOL    HW152444  10.232   4.143   2.900
16890SOL    HW252445  10.300   4.030   2.826
16891SOL     OW52446  14.596  13.216  10.716
16891SOL    HW152447  14.580  13.132  10.760
16891SOL    HW252448  14.614  13.277  10.788
16892SOL     OW52449  10.272   4.835   5.117
16892SOL    HW152450  10.296   4.857   5.028
16892SOL    HW252451  10.243   4.918   5.156
16893SOL     OW52452  14.074   2.614   9.266
16893SOL    HW152453  14.090   2.677   9.337
16893SOL    HW252454  14.067   2.669   9.188
16894SOL     OW52455   4.455   4.862   9.955
16894SOL    HW152456   4.486   4.917  10.027
16894SOL    HW252457   4.497   4.778   9.969
16895SOL     OW52458   8.417   0.782   6.719
16895SOL    HW152459   8.403   0.774   6.814
16895SOL    HW252460   8.366   0.711   6.681
16896SOL     OW52461   6.250   3.620   0.896
16896SOL    HW152462   6.181   3.582   0.841
16896SOL    HW252463   6.314   3.551   0.906
16897SOL     OW52464   0.309  14.279   7.742
16897SOL    HW152465   0.257  14.331   7.680
16897SOL    HW252466   0.343  14.343   7.804
16898SOL     OW52467   8.767   1.162  14.457
16898SOL    HW152468   8.684   1.183  14.413
16898SOL    HW252469   8.756   1.197  14.545
16899SOL     OW52470   8.486   2.164   8.628
16899SOL    HW152471   8.526   2.174   8.715
16899SOL    HW252472   8.446   2.249   8.611
16900SOL     OW52473   6.884   4.246   3.577
16900SOL    HW152474   6.807   4.192   3.595
16900SOL    HW252475   6.938   4.237   3.655
16901SOL     OW52476  10.363   3.263   1.729
16901SOL    HW152477  10.421   3.192   1.702
16901SOL    HW252478  10.388   3.337   1.674
16902SOL     OW52479   3.877   8.329  14.518
16902SOL    HW152480   3.956   8.282  14.546
16902SOL    HW252481   3.820   8.261  14.482
16903SOL     OW52482   3.534   1.368   0.525
16903SOL    HW152483   3.504   1.296   0.468
16903SOL    HW252484   3.602   1.412   0.474
16904SOL     OW52485  13.791   5.338   3.543
16904SOL    HW152486  13.767   5.246   3.557
16904SOL    HW252487  13.744   5.363   3.464
16905SOL     OW52488   4.751  13.992  13.549
16905SOL    HW152489   4.682  13.952  13.495
16905SOL    HW252490   4.792  13.918  13.593
16906SOL     OW52491   5.697  11.726   7.791
16906SOL    HW152492   5.743  11.645   7.813
16906SOL    HW252493   5.761  11.796   7.808
16907SOL     OW52494   8.386  14.852   4.766
16907SOL    HW152495   8.351   0.050   4.718
16907SOL    HW252496   8.337  14.850   4.848
16908SOL     OW52497  12.622   2.548   7.624
16908SOL    HW152498  12.557   2.531   7.556
16908SOL    HW252499  12.639   2.462   7.662
16909SOL     OW52500   9.023   6.296  11.421
16909SOL    HW152501   9.000   6.378  11.377
16909SOL    HW252502   9.117   6.288  11.410
16910SOL     OW52503   5.314   0.431  14.674
16910SOL    HW152504   5.258   0.479  14.736
16910SOL    HW252505   5.401   0.431  14.716
16911SOL     OW52506   5.502   9.600   8.201
16911SOL    HW152507   5.502   9.693   8.223
16911SOL    HW252508   5.543   9.595   8.115
16912SOL     OW52509  12.330   2.176   7.993
16912SOL    HW152510  12.245   2.167   7.949
16912SOL    HW252511  12.334   2.267   8.020
16913SOL     OW52512   6.450   0.977  11.550
16913SOL    HW152513   6.486   1.034  11.482
16913SOL    HW252514   6.364   1.016  11.569
16914SOL     OW52515  13.826  12.346   3.806
16914SOL    HW152516  13.914  12.383   3.801
16914SOL    HW252517  13.807  12.316   3.717
16915SOL     OW52518  11.083   6.104   4.250
16915SOL    HW152519  11.027   6.180   4.240
16915SOL    HW252520  11.148   6.130   4.315
16916SOL     OW52521  11.078   0.445  11.203
16916SOL    HW152522  11.117   0.449  11.116
16916SOL    HW252523  11.153   0.447  11.263
16917SOL     OW52524   0.985   8.571  11.438
16917SOL    HW152525   0.923   8.613  11.498
16917SOL    HW252526   1.024   8.500  11.489
16918SOL     OW52527   3.564  10.948   7.371
16918SOL    HW152528   3.613  11.030   7.365
16918SOL    HW252529   3.625  10.882   7.339
16919SOL     OW52530   8.333   8.214   7.971
16919SOL    HW152531   8.276   8.178   7.903
16919SOL    HW252532   8.407   8.251   7.923
16920SOL     OW52533  10.924   6.022   3.960
16920SOL    HW152534  10.833   5.995   3.966
16920SOL    HW252535  10.958   6.011   4.049
16921SOL     OW52536  12.515  10.369   7.098
16921SOL    HW152537  12.474  10.361   7.184
16921SOL    HW252538  12.609  10.363   7.115
16922SOL     OW52539   7.067  12.447   8.634
16922SOL    HW152540   7.153  12.433   8.674
16922SOL    HW252541   7.020  12.365   8.648
16923SOL     OW52542   3.904   4.367  10.713
16923SOL    HW152543   3.921   4.299  10.647
16923SOL    HW252544   3.840   4.425  10.671
16924SOL     OW52545  14.577   0.577   3.265
16924SOL    HW152546  14.582   0.552   3.173
16924SOL    HW252547  14.531   0.661   3.265
16925SOL     OW52548   6.306   3.002  13.442
16925SOL    HW152549   6.366   3.044  13.503
16925SOL    HW252550   6.243   2.956  13.497
16926SOL     OW52551   5.708   3.738   4.333
16926SOL    HW152552   5.780   3.741   4.269
16926SOL    HW252553   5.632   3.771   4.285
16927SOL     OW52554   6.153   3.283  13.956
16927SOL    HW152555   6.114   3.277  13.868
16927SOL    HW252556   6.098   3.346  14.002
16928SOL     OW52557   7.249  12.803   7.130
16928SOL    HW152558   7.316  12.763   7.186
16928SOL    HW252559   7.168  12.795   7.180
16929SOL     OW52560  10.668   9.471  11.736
16929SOL    HW152561  10.612   9.515  11.799
16929SOL    HW252562  10.740   9.436  11.789
16930SOL     OW52563   9.625   4.867   9.600
16930SOL    HW152564   9.674   4.834   9.525
16930SOL    HW252565   9.541   4.893   9.563
16931SOL     OW52566   5.634   1.244   3.793
16931SOL    HW152567   5.694   1.312   3.824
16931SOL    HW252568   5.692   1.179   3.753
16932SOL     OW52569   9.999  11.956  10.989
16932SOL    HW152570   9.986  11.944  11.084
16932SOL    HW252571  10.055  11.883  10.963
16933SOL     OW52572   7.775  11.887   2.781
16933SOL    HW152573   7.840  11.861   2.717
16933SOL    HW252574   7.767  11.982   2.772
16934SOL     OW52575   8.287  12.687   4.419
16934SOL    HW152576   8.230  12.708   4.345
16934SOL    HW252577   8.281  12.763   4.477
16935SOL     OW52578   6.558   5.703  14.219
16935SOL    HW152579   6.564   5.659  14.304
16935SOL    HW252580   6.561   5.797  14.241
16936SOL     OW52581  13.246   7.495   5.372
16936SOL    HW152582  13.176   7.440   5.336
16936SOL    HW252583  13.298   7.435   5.426
16937SOL     OW52584   8.041   1.274   1.619
16937SOL    HW152585   8.099   1.234   1.555
16937SOL    HW252586   8.087   1.353   1.648
16938SOL     OW52587   2.766   5.389   2.708
16938SOL    HW152588   2.697   5.450   2.734
16938SOL    HW252589   2.785   5.412   2.617
16939SOL     OW52590  10.061   4.222   1.030
16939SOL    HW152591  10.119   4.292   1.061
16939SOL    HW252592  10.118   4.146   1.018
16940SOL     OW52593   8.178   4.400   4.247
16940SOL    HW152594   8.231   4.321   4.259
16940SOL    HW252595   8.172   4.438   4.335
16941SOL     OW52596   0.225   4.706  12.733
16941SOL    HW152597   0.133   4.731  12.732
16941SOL    HW252598   0.256   4.731  12.820
16942SOL     OW52599   3.379   1.137   2.344
16942SOL    HW152600   3.299   1.189   2.349
16942SOL    HW252601   3.394   1.106   2.434
16943SOL     OW52602  13.980   6.675  10.712
16943SOL    HW152603  13.971   6.632  10.798
16943SOL    HW252604  13.898   6.656  10.668
16944SOL     OW52605   6.187  12.547  11.465
16944SOL    HW152606   6.273  12.587  11.456
16944SOL    HW252607   6.125  12.617  11.445
16945SOL     OW52608   2.882   8.017  14.871
16945SOL    HW152609   2.913   8.050   0.078
16945SOL    HW252610   2.939   7.942  14.852
16946SOL     OW52611   7.839  12.293  12.639
16946SOL    HW152612   7.877  12.309  12.725
16946SOL    HW252613   7.911  12.306  12.578
16947SOL     OW52614   2.366   3.412   4.278
16947SOL    HW152615   2.454   3.446   4.260
16947SOL    HW252616   2.351   3.430   4.371
16948SOL     OW52617   2.058   9.577   0.580
16948SOL    HW152618   1.966   9.555   0.595
16948SOL    HW252619   2.069   9.664   0.617
16949SOL     OW52620   1.739   2.613   8.456
16949SOL    HW152621   1.763   2.633   8.365
16949SOL    HW252622   1.726   2.518   8.457
16950SOL     OW52623   2.656  14.695   7.798
16950SOL    HW152624   2.591  14.636   7.761
16950SOL    HW252625   2.619  14.722   7.882
16951SOL     OW52626  12.179  13.401   6.346
16951SOL    HW152627  12.117  13.426   6.415
16951SOL    HW252628  12.167  13.307   6.336
16952SOL     OW52629   4.372   8.077   9.469
16952SOL    HW152630   4.384   8.099   9.562
16952SOL    HW252631   4.289   8.030   9.466
16953SOL     OW52632  11.258   9.373  13.909
16953SOL    HW152633  11.321   9.371  13.981
16953SOL    HW252634  11.245   9.280  13.887
16954SOL     OW52635  13.528  13.599   2.934
16954SOL    HW152636  13.475  13.674   2.960
16954SOL    HW252637  13.510  13.533   3.001
16955SOL     OW52638   9.941   3.615   9.035
16955SOL    HW152639   9.991   3.621   9.117
16955SOL    HW252640   9.882   3.541   9.047
16956SOL     OW52641  11.656   8.467   7.097
16956SOL    HW152642  11.568   8.491   7.069
16956SOL    HW252643  11.674   8.525   7.172
16957SOL     OW52644   7.623  13.514  10.613
16957SOL    HW152645   7.578  13.570  10.549
16957SOL    HW252646   7.677  13.456  10.560
16958SOL     OW52647  10.306   6.579   0.749
16958SOL    HW152648  10.333   6.565   0.659
16958SOL    HW252649  10.350   6.510   0.799
16959SOL     OW52650   8.379  10.777   8.583
16959SOL    HW152651   8.320  10.703   8.597
16959SOL    HW252652   8.337  10.850   8.629
16960SOL     OW52653   6.765   8.672  14.261
16960SOL    HW152654   6.781   8.583  14.232
16960SOL    HW252655   6.852   8.709  14.274
16961SOL     OW52656   2.479  10.739   4.305
16961SOL    HW152657   2.435  10.807   4.254
16961SOL    HW252658   2.569  10.739   4.273
16962SOL     OW52659   2.947   3.085   0.544
16962SOL    HW152660   3.024   3.030   0.526
16962SOL    HW252661   2.874   3.023   0.545
16963SOL     OW52662   1.614   6.775   3.693
16963SOL    HW152663   1.692   6.771   3.748
16963SOL    HW252664   1.647   6.765   3.604
16964SOL     OW52665   9.183  14.239   5.402
16964SOL    HW152666   9.173  14.312   5.463
16964SOL    HW252667   9.268  14.200   5.425
16965SOL     OW52668   0.485   7.005  13.726
16965SOL    HW152669   0.567   7.051  13.741
16965SOL    HW252670   0.511   6.918  13.697
16966SOL     OW52671  11.790  12.568  13.292
16966SOL    HW152672  11.759  12.581  13.382
16966SOL    HW252673  11.731  12.620  13.238
16967SOL     OW52674   7.462   7.026  13.148
16967SOL    HW152675   7.558   7.024  13.151
16967SOL    HW252676   7.442   7.093  13.083
16968SOL     OW52677   4.800   9.298   3.599
16968SOL    HW152678   4.801   9.391   3.624
16968SOL    HW252679   4.779   9.298   3.506
16969SOL     OW52680  14.626   7.398   5.175
16969SOL    HW152681  14.713   7.409   5.137
16969SOL    HW252682  14.642   7.374   5.266
16970SOL     OW52683   3.640  14.710   1.644
16970SOL    HW152684   3.708  14.747   1.587
16970SOL    HW252685   3.558  14.725   1.597
16971SOL     OW52686  10.742  11.625   5.332
16971SOL    HW152687  10.808  11.556   5.334
16971SOL    HW252688  10.750  11.663   5.245
16972SOL     OW52689   2.456  13.886   0.516
16972SOL    HW152690   2.414  13.971   0.526
16972SOL    HW252691   2.545  13.907   0.486
16973SOL     OW52692   8.531  11.263   0.792
16973SOL    HW152693   8.504  11.355   0.792
16973SOL    HW252694   8.525  11.236   0.883
16974SOL     OW52695   5.236  12.275  13.924
16974SOL    HW152696   5.153  12.319  13.942
16974SOL    HW252697   5.224  12.237  13.837
16975SOL     OW52698   4.273  14.526   1.960
16975SOL    HW152699   4.219  14.555   2.033
16975SOL    HW252700   4.221  14.461   1.915
16976SOL     OW52701  11.669   1.654   0.661
16976SOL    HW152702  11.688   1.710   0.586
16976SOL    HW252703  11.595   1.697   0.704
16977SOL     OW52704  10.968   4.514   6.608
16977SOL    HW152705  10.955   4.592   6.554
16977SOL    HW252706  11.045   4.534   6.661
16978SOL     OW52707   1.481   8.338   8.860
16978SOL    HW152708   1.430   8.403   8.811
16978SOL    HW252709   1.526   8.287   8.793
16979SOL     OW52710   5.258   1.676  10.213
16979SOL    HW152711   5.270   1.710  10.302
16979SOL    HW252712   5.164   1.663  10.204
16980SOL     OW52713  11.335   1.787   0.256
16980SOL    HW152714  11.289   1.737   0.323
16980SOL    HW252715  11.412   1.734   0.235
16981SOL     OW52716   4.106   3.704   3.485
16981SOL    HW152717   4.181   3.645   3.480
16981SOL    HW252718   4.139   3.787   3.450
16982SOL     OW52719  12.141   9.875   1.771
16982SOL    HW152720  12.234   9.899   1.775
16982SOL    HW252721  12.095   9.958   1.786
16983SOL     OW52722   7.136   1.340   7.628
16983SOL    HW152723   7.222   1.329   7.587
16983SOL    HW252724   7.114   1.432   7.614
16984SOL     OW52725   0.996  14.849   1.336
16984SOL    HW152726   1.062  14.832   1.268
16984SOL    HW252727   0.962  14.763   1.359
16985SOL     OW52728   2.422  10.390   2.180
16985SOL    HW152729   2.472  10.416   2.102
16985SOL    HW252730   2.381  10.472   2.209
16986SOL     OW52731   8.554   9.484   7.146
16986SOL    HW152732   8.560   9.389   7.151
16986SOL    HW252733   8.480   9.501   7.088
16987SOL     OW52734   2.710  10.954   8.787
16987SOL    HW152735   2.731  10.862   8.799
16987SOL    HW252736   2.647  10.974   8.857
16988SOL     OW52737   4.062   5.043  13.262
16988SOL    HW152738   4.085   5.077  13.176
16988SOL    HW252739   4.027   5.118  13.309
16989SOL     OW52740   7.922  12.083  11.754
16989SOL    HW152741   7.908  11.989  11.759
16989SOL    HW252742   7.888  12.117  11.836
16990SOL     OW52743   8.446  13.172   2.308
16990SOL    HW152744   8.378  13.112   2.277
16990SOL    HW252745   8.445  13.163   2.404
16991SOL     OW52746  13.705   1.318  14.690
16991SOL    HW152747  13.652   1.267  14.629
16991SOL    HW252748  13.652   1.396  14.708
16992SOL     OW52749  13.723  13.933   1.565
16992SOL    HW152750  13.754  13.975   1.646
16992SOL    HW252751  13.803  13.923   1.512
16993SOL     OW52752  13.856   4.322  10.988
16993SOL    HW152753  13.869   4.304  10.895
16993SOL    HW252754  13.818   4.410  10.991
16994SOL     OW52755   7.375   6.937   0.843
16994SOL    HW152756   7.313   6.977   0.904
16994SOL    HW252757   7.341   6.848   0.831
16995SOL     OW52758   0.701   5.976   0.526
16995SOL    HW152759   0.771   5.910   0.519
16995SOL    HW252760   0.745   6.055   0.557
16996SOL     OW52761   1.965  12.792   7.001
16996SOL    HW152762   1.902  12.832   6.941
16996SOL    HW252763   2.036  12.762   6.945
16997SOL     OW52764   9.459   3.370   3.882
16997SOL    HW152765   9.364   3.377   3.895
16997SOL    HW252766   9.477   3.427   3.807
16998SOL     OW52767   7.558   2.828   6.498
16998SOL    HW152768   7.577   2.876   6.418
16998SOL    HW252769   7.605   2.745   6.488
16999SOL     OW52770   8.233  14.221   9.010
16999SOL    HW152771   8.196  14.206   9.097
16999SOL    HW252772   8.157  14.242   8.955
17000SOL     OW52773   1.912   3.856   2.900
17000SOL    HW152774   1.851   3.882   2.970
17000SOL    HW252775   1.983   3.920   2.906
17001SOL     OW52776  14.148  10.104  13.818
17001SOL    HW152777  14.162  10.113  13.724
17001SOL    HW252778  14.110  10.188  13.844
17002SOL     OW52779   5.430  12.501  13.959
17002SOL    HW152780   5.400  12.592  13.959
17002SOL    HW252781   5.366  12.454  14.012
17003SOL     OW52782   8.157  13.591   0.644
17003SOL    HW152783   8.091  13.556   0.584
17003SOL    HW252784   8.166  13.523   0.711
17004SOL     OW52785  12.097   8.967  14.238
17004SOL    HW152786  12.154   8.950  14.313
17004SOL    HW252787  12.122   9.055  14.209
17005SOL     OW52788   8.962   7.150   4.415
17005SOL    HW152789   9.019   7.222   4.444
17005SOL    HW252790   8.884   7.193   4.380
17006SOL     OW52791   7.183  13.210   7.877
17006SOL    HW152792   7.168  13.206   7.972
17006SOL    HW252793   7.207  13.120   7.853
17007SOL     OW52794   4.736   2.528   4.959
17007SOL    HW152795   4.745   2.450   4.905
17007SOL    HW252796   4.784   2.508   5.039
17008SOL     OW52797   4.869  12.963   7.797
17008SOL    HW152798   4.871  13.040   7.853
17008SOL    HW252799   4.781  12.964   7.759
17009SOL     OW52800  13.166   6.677  11.220
17009SOL    HW152801  13.153   6.600  11.274
17009SOL    HW252802  13.239   6.724  11.262
17010SOL     OW52803   2.482  14.253   7.944
17010SOL    HW152804   2.558  14.239   7.888
17010SOL    HW252805   2.413  14.281   7.884
17011SOL     OW52806   5.074  12.277   7.544
17011SOL    HW152807   5.107  12.362   7.573
17011SOL    HW252808   5.107  12.269   7.454
17012SOL     OW52809  12.923   2.897   5.062
17012SOL    HW152810  12.859   2.840   5.104
17012SOL    HW252811  12.877   2.933   4.986
17013SOL     OW52812  12.213  12.673   0.475
17013SOL    HW152813  12.289  12.652   0.530
17013SOL    HW252814  12.152  12.718   0.533
17014SOL     OW52815   8.719  10.722   1.095
17014SOL    HW152816   8.733  10.740   1.188
17014SOL    HW252817   8.626  10.700   1.089
17015SOL     OW52818  12.163   7.605   6.852
17015SOL    HW152819  12.160   7.513   6.828
17015SOL    HW252820  12.128   7.608   6.941
17016SOL     OW52821   7.278   3.465   7.920
17016SOL    HW152822   7.348   3.484   7.859
17016SOL    HW252823   7.256   3.373   7.905
17017SOL     OW52824   1.927  13.998  12.738
17017SOL    HW152825   1.877  13.920  12.714
17017SOL    HW252826   1.946  14.040  12.654
17018SOL     OW52827  11.039  12.635  10.585
17018SOL    HW152828  11.046  12.542  10.607
17018SOL    HW252829  10.988  12.637  10.504
17019SOL     OW52830   7.329   1.310  12.202
17019SOL    HW152831   7.257   1.291  12.261
17019SOL    HW252832   7.362   1.395  12.231
17020SOL     OW52833   1.518  10.991   9.087
17020SOL    HW152834   1.566  11.074   9.083
17020SOL    HW252835   1.427  11.016   9.101
17021SOL     OW52836   0.990  12.461  12.440
17021SOL    HW152837   0.901  12.488  12.418
17021SOL    HW252838   1.008  12.503  12.524
17022SOL     OW52839   7.585  11.247  10.202
17022SOL    HW152840   7.680  11.254  10.215
17022SOL    HW252841   7.574  11.180  10.135
17023SOL     OW52842   3.747   3.983  12.153
17023SOL    HW152843   3.819   4.046  12.146
17023SOL    HW252844   3.718   3.990  12.244
17024SOL     OW52845  10.786   6.757   3.471
17024SOL    HW152846  10.715   6.812   3.501
17024SOL    HW252847  10.758   6.668   3.493
17025SOL     OW52848  13.560  13.095  13.013
17025SOL    HW152849  13.515  13.037  13.075
17025SOL    HW252850  13.511  13.177  13.016
17026SOL     OW52851   2.350   8.690   8.576
17026SOL    HW152852   2.414   8.761   8.564
17026SOL    HW252853   2.329   8.662   8.487
17027SOL     OW52854   3.074   4.566   7.359
17027SOL    HW152855   3.154   4.520   7.332
17027SOL    HW252856   3.097   4.605   7.444
17028SOL     OW52857  13.571  12.494   6.423
17028SOL    HW152858  13.613  12.574   6.393
17028SOL    HW252859  13.478  12.516   6.427
17029SOL     OW52860  10.335   4.374   3.175
17029SOL    HW152861  10.296   4.433   3.240
17029SOL    HW252862  10.416   4.419   3.148
17030SOL     OW52863   2.219   4.994   3.361
17030SOL    HW152864   2.135   5.036   3.377
17030SOL    HW252865   2.265   4.998   3.445
17031SOL     OW52866  11.423   1.016   2.323
17031SOL    HW152867  11.446   1.103   2.290
17031SOL    HW252868  11.492   0.959   2.290
17032SOL     OW52869   9.301   6.893  12.564
17032SOL    HW152870   9.286   6.814  12.512
17032SOL    HW252871   9.350   6.951  12.506
17033SOL     OW52872  11.290  13.607   2.474
17033SOL    HW152873  11.293  13.655   2.391
17033SOL    HW252874  11.373  13.561   2.478
17034SOL     OW52875  12.673   2.334  14.374
17034SOL    HW152876  12.596   2.385  14.397
17034SOL    HW252877  12.689   2.355  14.282
17035SOL     OW52878  13.353   4.485   3.574
17035SOL    HW152879  13.279   4.431   3.547
17035SOL    HW252880  13.338   4.570   3.532
17036SOL     OW52881  11.256   5.948  10.956
17036SOL    HW152882  11.344   5.979  10.978
17036SOL    HW252883  11.255   5.940  10.861
17037SOL     OW52884   1.448  13.192   7.339
17037SOL    HW152885   1.457  13.196   7.244
17037SOL    HW252886   1.429  13.282   7.366
17038SOL     OW52887   5.477   4.780   2.570
17038SOL    HW152888   5.564   4.747   2.589
17038SOL    HW252889   5.465   4.763   2.476
17039SOL     OW52890   7.759   9.933   5.445
17039SOL    HW152891   7.690   9.993   5.417
17039SOL    HW252892   7.839   9.971   5.411
17040SOL     OW52893   1.029   6.975   4.228
17040SOL    HW152894   1.121   6.976   4.254
17040SOL    HW252895   0.987   7.039   4.285
17041SOL     OW52896   5.764   8.910   4.802
17041SOL    HW152897   5.777   8.899   4.896
17041SOL    HW252898   5.700   8.981   4.795
17042SOL     OW52899  13.214  14.820  12.826
17042SOL    HW152900  13.144  14.769  12.868
17042SOL    HW252901  13.222   0.021  12.880
17043SOL     OW52902   9.378  12.234  13.167
17043SOL    HW152903   9.343  12.308  13.217
17043SOL    HW252904   9.469  12.226  13.196
17044SOL     OW52905   9.378   5.779   6.653
17044SOL    HW152906   9.294   5.749   6.617
17044SOL    HW252907   9.436   5.703   6.645
17045SOL     OW52908   3.678   6.367  12.092
17045SOL    HW152909   3.670   6.459  12.116
17045SOL    HW252910   3.755   6.364  12.035
17046SOL     OW52911  11.783   7.287   8.891
17046SOL    HW152912  11.783   7.374   8.932
17046SOL    HW252913  11.696   7.279   8.852
17047SOL     OW52914   5.402   9.011   1.856
17047SOL    HW152915   5.356   8.959   1.791
17047SOL    HW252916   5.395   8.960   1.937
17048SOL     OW52917  11.576   2.579   4.806
17048SOL    HW152918  11.510   2.510   4.793
17048SOL    HW252919  11.651   2.533   4.845
17049SOL     OW52920  13.594  11.209   1.576
17049SOL    HW152921  13.648  11.139   1.537
17049SOL    HW252922  13.509  11.200   1.533
17050SOL     OW52923   6.489  13.452  11.960
17050SOL    HW152924   6.441  13.373  11.985
17050SOL    HW252925   6.570  13.447  12.012
17051SOL     OW52926   7.790   0.415   4.945
17051SOL    HW152927   7.743   0.487   4.903
17051SOL    HW252928   7.835   0.455   5.018
17052SOL     OW52929  10.434   9.669  10.389
17052SOL    HW152930  10.350   9.710  10.410
17052SOL    HW252931  10.422   9.636  10.300
17053SOL     OW52932  12.073  11.871   3.429
17053SOL    HW152933  12.122  11.951   3.411
17053SOL    HW252934  12.058  11.831   3.343
17054SOL     OW52935   5.597   8.069   4.067
17054SOL    HW152936   5.604   8.162   4.045
17054SOL    HW252937   5.687   8.039   4.075
17055SOL     OW52938   8.372  10.227   4.788
17055SOL    HW152939   8.334  10.313   4.772
17055SOL    HW252940   8.464  10.244   4.806
17056SOL     OW52941  11.274  13.250   5.093
17056SOL    HW152942  11.344  13.297   5.047
17056SOL    HW252943  11.249  13.180   5.033
17057SOL     OW52944   4.781   7.054  12.745
17057SOL    HW152945   4.836   7.054  12.666
17057SOL    HW252946   4.696   7.022  12.716
17058SOL     OW52947   8.357  12.726   2.239
17058SOL    HW152948   8.268  12.755   2.258
17058SOL    HW252949   8.405  12.806   2.219
17059SOL     OW52950  14.868   7.966   0.556
17059SOL    HW152951   0.004   8.060   0.539
17059SOL    HW252952  14.785   7.946   0.513
17060SOL     OW52953  10.728  11.418   2.697
17060SOL    HW152954  10.741  11.492   2.756
17060SOL    HW252955  10.810  11.412   2.648
17061SOL     OW52956  12.443  12.023  10.831
17061SOL    HW152957  12.365  12.023  10.887
17061SOL    HW252958  12.430  12.099  10.773
17062SOL     OW52959   2.284   1.904   3.833
17062SOL    HW152960   2.309   1.975   3.773
17062SOL    HW252961   2.233   1.948   3.901
17063SOL     OW52962   8.810   3.509   6.479
17063SOL    HW152963   8.736   3.565   6.505
17063SOL    HW252964   8.866   3.567   6.427
17064SOL     OW52965   9.339  10.078   8.563
17064SOL    HW152966   9.384   9.994   8.575
17064SOL    HW252967   9.263  10.072   8.621
17065SOL     OW52968   4.216   9.158  11.341
17065SOL    HW152969   4.129   9.197  11.349
17065SOL    HW252970   4.253   9.198  11.263
17066SOL     OW52971  13.080   9.174   5.585
17066SOL    HW152972  13.157   9.140   5.629
17066SOL    HW252973  13.013   9.106   5.595
17067SOL     OW52974   5.850   1.531  10.534
17067SOL    HW152975   5.894   1.538  10.619
17067SOL    HW252976   5.909   1.573  10.472
17068SOL     OW52977   1.412  14.596  12.022
17068SOL    HW152978   1.336  14.654  12.031
17068SOL    HW252979   1.440  14.579  12.112
17069SOL     OW52980  11.481   7.264   7.701
17069SOL    HW152981  11.452   7.267   7.793
17069SOL    HW252982  11.435   7.190   7.663
17070SOL     OW52983   3.438   6.628   9.901
17070SOL    HW152984   3.402   6.550   9.943
17070SOL    HW252985   3.493   6.668   9.968
17071SOL     OW52986   0.613   5.549   1.699
17071SOL    HW152987   0.611   5.565   1.793
17071SOL    HW252988   0.575   5.462   1.688
17072SOL     OW52989   8.617   9.561  11.620
17072SOL    HW152990   8.621   9.586  11.713
17072SOL    HW252991   8.537   9.602  11.588
17073SOL     OW52992   2.733  14.411   2.144
17073SOL    HW152993   2.810  14.361   2.171
17073SOL    HW252994   2.757  14.502   2.161
17074SOL     OW52995   1.349   7.591   8.207
17074SOL    HW152996   1.431   7.627   8.172
17074SOL    HW252997   1.284   7.658   8.186
17075SOL     OW52998  11.834  14.734  10.208
17075SOL    HW152999  11.879  14.804  10.160
17075SOL    HW253000  11.860  14.747  10.299
17076SOL     OW53001   2.655   8.311   1.039
17076SOL    HW153002   2.746   8.297   1.068
17076SOL    HW253003   2.604   8.313   1.120
17077SOL     OW53004  13.974  13.046  11.862
17077SOL    HW153005  13.886  13.080  11.881
17077SOL    HW253006  13.977  12.963  11.910
17078SOL     OW53007  12.508   6.807   7.835
17078SOL    HW153008  12.519   6.762   7.919
17078SOL    HW253009  12.472   6.740   7.777
17079SOL     OW53010   6.184   9.730   3.022
17079SOL    HW153011   6.113   9.745   3.085
17079SOL    HW253012   6.258   9.701   3.075
17080SOL     OW53013   9.368   6.588   5.313
17080SOL    HW153014   9.293   6.531   5.299
17080SOL    HW253015   9.426   6.571   5.239
17081SOL     OW53016  14.440   9.583  14.362
17081SOL    HW153017  14.346   9.583  14.378
17081SOL    HW253018  14.449   9.601  14.268
17082SOL     OW53019   6.018   2.824   0.818
17082SOL    HW153020   6.112   2.842   0.823
17082SOL    HW253021   6.010   2.765   0.743
17083SOL     OW53022  11.271  13.752   2.164
17083SOL    HW153023  11.247  13.662   2.140
17083SOL    HW253024  11.312  13.787   2.085
17084SOL     OW53025   6.925  13.299  13.429
17084SOL    HW153026   6.881  13.321  13.512
17084SOL    HW253027   6.855  13.267  13.373
17085SOL     OW53028   7.536  10.492   7.459
17085SOL    HW153029   7.573  10.413   7.498
17085SOL    HW253030   7.549  10.560   7.526
17086SOL     OW53031   4.977   4.005   6.005
17086SOL    HW153032   4.948   3.991   5.915
17086SOL    HW253033   4.959   4.098   6.022
17087SOL     OW53034   1.802   9.024   4.957
17087SOL    HW153035   1.762   9.110   4.947
17087SOL    HW253036   1.892   9.036   4.928
17088SOL     OW53037   4.797   6.263   8.402
17088SOL    HW153038   4.890   6.261   8.378
17088SOL    HW253039   4.794   6.315   8.482
17089SOL     OW53040   2.347   1.160   9.812
17089SOL    HW153041   2.414   1.163   9.881
17089SOL    HW253042   2.381   1.218   9.744
17090SOL     OW53043   1.009   4.646   0.734
17090SOL    HW153044   0.988   4.708   0.665
17090SOL    HW253045   1.097   4.615   0.713
17091SOL     OW53046   1.422  13.075   5.849
17091SOL    HW153047   1.373  13.152   5.819
17091SOL    HW253048   1.378  13.050   5.931
17092SOL     OW53049  12.924  10.998   7.584
17092SOL    HW153050  13.010  10.958   7.594
17092SOL    HW253051  12.873  10.963   7.657
17093SOL     OW53052  14.313  13.440   8.742
17093SOL    HW153053  14.299  13.468   8.651
17093SOL    HW253054  14.293  13.347   8.742
17094SOL     OW53055  14.537   6.999   6.056
17094SOL    HW153056  14.499   7.024   5.971
17094SOL    HW253057  14.471   7.025   6.120
17095SOL     OW53058  12.361   3.775   6.556
17095SOL    HW153059  12.424   3.720   6.603
17095SOL    HW253060  12.374   3.753   6.464
17096SOL     OW53061   0.229   7.337   9.491
17096SOL    HW153062   0.290   7.325   9.419
17096SOL    HW253063   0.221   7.250   9.531
17097SOL     OW53064   8.117  11.507  12.402
17097SOL    HW153065   8.095  11.430  12.454
17097SOL    HW253066   8.142  11.471  12.317
17098SOL     OW53067   9.351   9.677   4.811
17098SOL    HW153068   9.317   9.710   4.894
17098SOL    HW253069   9.307   9.593   4.799
17099SOL     OW53070   1.717   6.941  12.210
17099SOL    HW153071   1.757   6.978  12.288
17099SOL    HW253072   1.657   6.874  12.243
17100SOL     OW53073   3.604   0.796  13.835
17100SOL    HW153074   3.543   0.738  13.790
17100SOL    HW253075   3.683   0.743  13.848
17101SOL     OW53076   5.525   5.604   9.870
17101SOL    HW153077   5.472   5.535   9.831
17101SOL    HW253078   5.510   5.595   9.964
17102SOL     OW53079  10.287   4.467  13.805
17102SOL    HW153080  10.336   4.396  13.765
17102SOL    HW253081  10.276   4.439  13.896
17103SOL     OW53082  11.357   9.063   5.533
17103SOL    HW153083  11.360   9.074   5.438
17103SOL    HW253084  11.448   9.070   5.561
17104SOL     OW53085   4.628  10.300   0.404
17104SOL    HW153086   4.675  10.384   0.405
17104SOL    HW253087   4.603  10.289   0.312
17105SOL     OW53088   9.029   6.210   3.215
17105SOL    HW153089   9.107   6.163   3.185
17105SOL    HW253090   9.054   6.302   3.214
17106SOL     OW53091  12.663   9.143   6.230
17106SOL    HW153092  12.658   9.212   6.296
17106SOL    HW253093  12.755   9.139   6.205
17107SOL     OW53094  10.436   4.995   7.448
17107SOL    HW153095  10.341   5.004   7.441
17107SOL    HW253096  10.470   5.081   7.423
17108SOL     OW53097   3.951   8.757   1.591
17108SOL    HW153098   4.013   8.690   1.622
17108SOL    HW253099   3.881   8.707   1.550
17109SOL     OW53100  10.549  11.555   6.039
17109SOL    HW153101  10.495  11.515   5.971
17109SOL    HW253102  10.556  11.488   6.107
17110SOL     OW53103   9.046  11.215   9.970
17110SOL    HW153104   9.015  11.195   9.881
17110SOL    HW253105   9.067  11.308   9.968
17111SOL     OW53106   1.150   3.848  12.371
17111SOL    HW153107   1.199   3.790  12.314
17111SOL    HW253108   1.194   3.933  12.363
17112SOL     OW53109  12.544  10.049   4.300
17112SOL    HW153110  12.619  10.080   4.351
17112SOL    HW253111  12.497   9.991   4.359
17113SOL     OW53112   5.914  12.095   1.203
17113SOL    HW153113   5.877  12.097   1.291
17113SOL    HW253114   5.896  12.182   1.167
17114SOL     OW53115   2.666   2.742   1.154
17114SOL    HW153116   2.609   2.710   1.084
17114SOL    HW253117   2.729   2.671   1.168
17115SOL     OW53118  12.885   7.953   8.830
17115SOL    HW153119  12.815   7.951   8.895
17115SOL    HW253120  12.965   7.968   8.881
17116SOL     OW53121   4.266   5.806   2.374
17116SOL    HW153122   4.321   5.739   2.415
17116SOL    HW253123   4.237   5.861   2.446
17117SOL     OW53124   8.292   0.719   0.936
17117SOL    HW153125   8.355   0.779   0.895
17117SOL    HW253126   8.218   0.718   0.876
17118SOL     OW53127   8.947  13.778  14.459
17118SOL    HW153128   8.990  13.749  14.540
17118SOL    HW253129   8.874  13.718  14.448
17119SOL     OW53130  13.397   9.376  11.696
17119SOL    HW153131  13.323   9.357  11.754
17119SOL    HW253132  13.363   9.366  11.608
17120SOL     OW53133  11.766   7.770  11.610
17120SOL    HW153134  11.860   7.777  11.590
17120SOL    HW253135  11.729   7.723  11.536
17121SOL     OW53136   1.585   3.299  14.350
17121SOL    HW153137   1.564   3.333  14.263
17121SOL    HW253138   1.514   3.237  14.369
17122SOL     OW53139  13.978   8.733   5.446
17122SOL    HW153140  14.033   8.736   5.367
17122SOL    HW253141  13.905   8.792   5.426
17123SOL     OW53142   4.989   7.054   8.485
17123SOL    HW153143   5.046   6.979   8.501
17123SOL    HW253144   4.920   7.047   8.551
17124SOL     OW53145   6.876   9.653   7.978
17124SOL    HW153146   6.882   9.711   7.902
17124SOL    HW253147   6.966   9.636   8.002
17125SOL     OW53148   8.098   1.974   5.358
17125SOL    HW153149   8.054   2.056   5.379
17125SOL    HW253150   8.126   1.939   5.443
17126SOL     OW53151   6.808   9.045   4.494
17126SOL    HW153152   6.733   9.056   4.552
17126SOL    HW253153   6.872   9.109   4.526
17127SOL     OW53154   2.474  14.734   7.996
17127SOL    HW153155   2.415  14.728   7.921
17127SOL    HW253156   2.460  14.652   8.044
17128SOL     OW53157  11.355   9.655   9.572
17128SOL    HW153158  11.294   9.583   9.557
17128SOL    HW253159  11.368   9.693   9.485
17129SOL     OW53160   1.039  12.483   7.572
17129SOL    HW153161   0.999  12.473   7.486
17129SOL    HW253162   1.122  12.436   7.566
17130SOL     OW53163  14.559   5.822  12.921
17130SOL    HW153164  14.508   5.865  12.853
17130SOL    HW253165  14.532   5.865  13.002
17131SOL     OW53166  12.617   3.041  13.020
17131SOL    HW153167  12.706   3.011  13.005
17131SOL    HW253168  12.620   3.136  13.008
17132SOL     OW53169   9.873   3.285   8.510
17132SOL    HW153170   9.955   3.235   8.515
17132SOL    HW253171   9.888   3.361   8.566
17133SOL     OW53172   2.778  12.428   3.033
17133SOL    HW153173   2.864  12.464   3.012
17133SOL    HW253174   2.739  12.406   2.948
17134SOL     OW53175   3.811   4.558   5.680
17134SOL    HW153176   3.777   4.618   5.614
17134SOL    HW253177   3.867   4.498   5.632
17135SOL     OW53178   3.613  14.278   3.517
17135SOL    HW153179   3.571  14.195   3.493
17135SOL    HW253180   3.549  14.322   3.573
17136SOL     OW53181  10.367   5.944  13.209
17136SOL    HW153182  10.380   6.021  13.265
17136SOL    HW253183  10.415   5.874  13.253
17137SOL     OW53184   4.349   7.978  14.769
17137SOL    HW153185   4.282   7.942  14.712
17137SOL    HW253186   4.347   7.923  14.847
17138SOL     OW53187  12.158  14.558   5.810
17138SOL    HW153188  12.117  14.525   5.890
17138SOL    HW253189  12.243  14.592   5.838
17139SOL     OW53190   7.814  11.625   5.645
17139SOL    HW153191   7.901  11.586   5.643
17139SOL    HW253192   7.762  11.566   5.699
17140SOL     OW53193  10.656   6.925  14.235
17140SOL    HW153194  10.726   6.960  14.290
17140SOL    HW253195  10.626   6.847  14.281
17141SOL     OW53196   3.226   7.734  14.622
17141SOL    HW153197   3.282   7.656  14.612
17141SOL    HW253198   3.261   7.796  14.558
17142SOL     OW53199   4.474   8.954  13.965
17142SOL    HW153200   4.439   8.923  14.049
17142SOL    HW253201   4.515   8.877  13.927
17143SOL     OW53202   6.968   9.497  12.543
17143SOL    HW153203   6.913   9.560  12.589
17143SOL    HW253204   6.997   9.543  12.464
17144SOL     OW53205   8.336  12.400   9.802
17144SOL    HW153206   8.422  12.369   9.831
17144SOL    HW253207   8.287  12.414   9.883
17145SOL     OW53208   8.436   1.601   1.601
17145SOL    HW153209   8.455   1.665   1.533
17145SOL    HW253210   8.480   1.521   1.573
17146SOL     OW53211  13.800   7.582   4.996
17146SOL    HW153212  13.871   7.619   5.048
17146SOL    HW253213  13.833   7.498   4.965
17147SOL     OW53214   3.984   0.292  13.486
17147SOL    HW153215   3.939   0.229  13.429
17147SOL    HW253216   3.928   0.369  13.486
17148SOL     OW53217  13.561  14.491   9.622
17148SOL    HW153218  13.565  14.473   9.528
17148SOL    HW253219  13.469  14.507   9.640
17149SOL     OW53220   6.586   8.468  10.386
17149SOL    HW153221   6.493   8.461  10.411
17149SOL    HW253222   6.586   8.462  10.291
17150SOL     OW53223  12.709  14.690  12.274
17150SOL    HW153224  12.735  14.741  12.351
17150SOL    HW253225  12.745  14.603  12.290
17151SOL     OW53226  11.195  13.447   7.895
17151SOL    HW153227  11.113  13.410   7.862
17151SOL    HW253228  11.231  13.378   7.952
17152SOL     OW53229   4.240  12.314   5.554
17152SOL    HW153230   4.183  12.341   5.482
17152SOL    HW253231   4.206  12.229   5.582
17153SOL     OW53232   2.453  12.871  11.417
17153SOL    HW153233   2.518  12.811  11.380
17153SOL    HW253234   2.369  12.830  11.398
17154SOL     OW53235  10.042  11.677  10.048
17154SOL    HW153236  10.082  11.591  10.050
17154SOL    HW253237   9.974  11.670   9.980
17155SOL     OW53238  10.240  13.051   9.755
17155SOL    HW153239  10.163  13.076   9.806
17155SOL    HW253240  10.209  12.981   9.697
17156SOL     OW53241  11.736   0.126   3.815
17156SOL    HW153242  11.827   0.143   3.793
17156SOL    HW253243  11.739   0.050   3.874
17157SOL     OW53244   2.504   5.234   5.573
17157SOL    HW153245   2.547   5.163   5.621
17157SOL    HW253246   2.450   5.189   5.508
17158SOL     OW53247   8.679  13.415   7.788
17158SOL    HW153248   8.613  13.347   7.781
17158SOL    HW253249   8.630  13.494   7.811
17159SOL     OW53250   4.896   1.958   4.769
17159SOL    HW153251   4.947   1.877   4.765
17159SOL    HW253252   4.812   1.934   4.729
17160SOL     OW53253  10.295  11.514   5.449
17160SOL    HW153254  10.248  11.432   5.462
17160SOL    HW253255  10.360  11.515   5.520
17161SOL     OW53256  14.876   7.870  12.078
17161SOL    HW153257  14.793   7.902  12.113
17161SOL    HW253258  14.855   7.840  11.990
17162SOL     OW53259   7.293   9.579   4.291
17162SOL    HW153260   7.305   9.499   4.240
17162SOL    HW253261   7.381   9.605   4.317
17163SOL     OW53262  11.849   3.515   7.138
17163SOL    HW153263  11.923   3.575   7.139
17163SOL    HW253264  11.774   3.570   7.118
17164SOL     OW53265   0.049  12.712   9.552
17164SOL    HW153266   0.022  12.802   9.572
17164SOL    HW253267   0.069  12.714   9.459
17165SOL     OW53268   8.073  12.488   1.133
17165SOL    HW153269   8.160  12.506   1.169
17165SOL    HW253270   8.024  12.448   1.205
17166SOL     OW53271   5.299  12.587   8.627
17166SOL    HW153272   5.379  12.607   8.675
17166SOL    HW253273   5.238  12.554   8.693
17167SOL     OW53274  13.376   4.565  14.508
17167SOL    HW153275  13.327   4.551  14.427
17167SOL    HW253276  13.379   4.478  14.548
17168SOL     OW53277   1.537  12.682   6.691
17168SOL    HW153278   1.562  12.639   6.610
17168SOL    HW253279   1.583  12.766   6.690
17169SOL     OW53280   5.412  11.889   0.505
17169SOL    HW153281   5.325  11.922   0.530
17169SOL    HW253282   5.419  11.912   0.412
17170SOL     OW53283   9.091   8.031   9.027
17170SOL    HW153284   9.125   8.068   8.946
17170SOL    HW253285   9.153   7.962   9.050
17171SOL     OW53286   4.698  11.941  11.089
17171SOL    HW153287   4.687  11.927  10.995
17171SOL    HW253288   4.687  12.036  11.101
17172SOL     OW53289  13.948   2.913   2.722
17172SOL    HW153290  13.931   2.867   2.640
17172SOL    HW253291  13.925   3.004   2.704
17173SOL     OW53292   6.760  13.728   4.972
17173SOL    HW153293   6.733  13.759   5.059
17173SOL    HW253294   6.688  13.755   4.914
17174SOL     OW53295   4.164  13.487   2.824
17174SOL    HW153296   4.193  13.401   2.853
17174SOL    HW253297   4.236  13.546   2.846
17175SOL     OW53298  14.253  10.896   8.935
17175SOL    HW153299  14.233  10.804   8.918
17175SOL    HW253300  14.201  10.944   8.871
17176SOL     OW53301   4.669  13.182  10.905
17176SOL    HW153302   4.592  13.206  10.854
17176SOL    HW253303   4.683  13.090  10.886
17177SOL     OW53304  12.264   3.903  10.478
17177SOL    HW153305  12.342   3.935  10.523
17177SOL    HW253306  12.274   3.808  10.476
17178SOL     OW53307  10.629  12.070   7.700
17178SOL    HW153308  10.587  12.058   7.615
17178SOL    HW253309  10.646  12.164   7.705
17179SOL     OW53310   8.448   5.978  11.835
17179SOL    HW153311   8.394   5.952  11.911
17179SOL    HW253312   8.532   6.002  11.873
17180SOL     OW53313   7.304  14.410   4.686
17180SOL    HW153314   7.394  14.442   4.689
17180SOL    HW253315   7.253  14.483   4.651
17181SOL     OW53316   2.865   0.034   7.504
17181SOL    HW153317   2.880  14.816   7.502
17181SOL    HW253318   2.951   0.072   7.486
17182SOL     OW53319   4.248   2.266   1.680
17182SOL    HW153320   4.178   2.327   1.702
17182SOL    HW253321   4.216   2.181   1.710
17183SOL     OW53322   2.159  13.617  12.036
17183SOL    HW153323   2.144  13.523  12.030
17183SOL    HW253324   2.220  13.636  11.964
17184SOL     OW53325  12.642  12.878   0.215
17184SOL    HW153326  12.662  12.857   0.124
17184SOL    HW253327  12.551  12.848   0.227
17185SOL     OW53328   4.582   9.131   5.135
17185SOL    HW153329   4.678   9.123   5.137
17185SOL    HW253330   4.552   9.071   5.204
17186SOL     OW53331   6.980   3.613   6.447
17186SOL    HW153332   7.019   3.682   6.393
17186SOL    HW253333   6.956   3.544   6.385
17187SOL     OW53334   7.649   0.341  14.287
17187SOL    HW153335   7.578   0.321  14.348
17187SOL    HW253336   7.682   0.426  14.315
17188SOL     OW53337   5.063   3.644  11.490
17188SOL    HW153338   5.157   3.635  11.509
17188SOL    HW253339   5.042   3.568  11.435
17189SOL     OW53340  13.803  10.978   8.270
17189SOL    HW153341  13.733  10.922   8.304
17189SOL    HW253342  13.884  10.936   8.299
17190SOL     OW53343  14.327   9.045   2.693
17190SOL    HW153344  14.303   9.134   2.719
17190SOL    HW253345  14.282   8.988   2.755
17191SOL     OW53346   6.662   1.501   5.040
17191SOL    HW153347   6.591   1.464   4.987
17191SOL    HW253348   6.673   1.590   5.007
17192SOL     OW53349   4.965   1.985   0.860
17192SOL    HW153350   5.014   1.984   0.942
17192SOL    HW253351   5.027   2.019   0.795
17193SOL     OW53352   9.248  13.836  11.892
17193SOL    HW153353   9.198  13.756  11.912
17193SOL    HW253354   9.320  13.836  11.955
17194SOL     OW53355  14.679  14.725   0.573
17194SOL    HW153356  14.680  14.651   0.512
17194SOL    HW253357  14.725  14.795   0.526
17195SOL     OW53358   9.946   4.994   9.718
17195SOL    HW153359   9.936   5.004   9.623
17195SOL    HW253360  10.019   5.052   9.740
17196SOL     OW53361   0.170  13.132   2.461
17196SOL    HW153362   0.090  13.107   2.508
17196SOL    HW253363   0.188  13.221   2.490
17197SOL     OW53364  13.971   7.499   1.434
17197SOL    HW153365  14.013   7.505   1.349
17197SOL    HW253366  14.019   7.430   1.480
17198SOL     OW53367   6.413  14.855  13.693
17198SOL    HW153368   6.450  14.793  13.630
17198SOL    HW253369   6.437  14.819  13.779
17199SOL     OW53370   2.397   4.908  10.553
17199SOL    HW153371   2.438   4.827  10.522
17199SOL    HW253372   2.310   4.880  10.583
17200SOL     OW53373   0.595   6.389   7.170
17200SOL    HW153374   0.638   6.328   7.231
17200SOL    HW253375   0.556   6.333   7.104
17201SOL     OW53376   1.267   6.819  14.707
17201SOL    HW153377   1.302   6.825  14.796
17201SOL    HW253378   1.238   6.728  14.698
17202SOL     OW53379  13.831  11.099   3.095
17202SOL    HW153380  13.742  11.133   3.107
17202SOL    HW253381  13.862  11.141   3.015
17203SOL     OW53382   2.523  12.436   9.326
17203SOL    HW153383   2.471  12.476   9.257
17203SOL    HW253384   2.472  12.360   9.354
17204SOL     OW53385   1.186   4.897   8.388
17204SOL    HW153386   1.115   4.833   8.377
17204SOL    HW253387   1.159   4.972   8.336
17205SOL     OW53388   3.963   6.437   4.858
17205SOL    HW153389   4.057   6.435   4.874
17205SOL    HW253390   3.934   6.523   4.890
17206SOL     OW53391   5.011   8.392   6.524
17206SOL    HW153392   4.981   8.357   6.440
17206SOL    HW253393   5.107   8.393   6.516
17207SOL     OW53394  12.381   2.265   0.155
17207SOL    HW153395  12.360   2.214   0.077
17207SOL    HW253396  12.296   2.288   0.193
17208SOL     OW53397  14.522   4.586   0.174
17208SOL    HW153398  14.498   4.633   0.254
17208SOL    HW253399  14.454   4.610   0.111
17209SOL     OW53400   3.870  11.711   3.958
17209SOL    HW153401   3.830  11.642   4.011
17209SOL    HW253402   3.934  11.666   3.903
17210SOL     OW53403   7.470   4.401  11.439
17210SOL    HW153404   7.561   4.369  11.437
17210SOL    HW253405   7.469   4.464  11.512
17211SOL     OW53406   3.014  10.176   2.522
17211SOL    HW153407   3.108  10.163   2.508
17211SOL    HW253408   2.972  10.137   2.446
17212SOL     OW53409  12.174   6.343  10.662
17212SOL    HW153410  12.163   6.248  10.675
17212SOL    HW253411  12.219   6.372  10.742
17213SOL     OW53412   4.295   0.196   5.357
17213SOL    HW153413   4.315   0.289   5.348
17213SOL    HW253414   4.200   0.190   5.348
17214SOL     OW53415   2.105  12.651  12.562
17214SOL    HW153416   2.060  12.735  12.569
17214SOL    HW253417   2.034  12.587  12.552
17215SOL     OW53418   8.267   6.970   5.840
17215SOL    HW153419   8.227   6.918   5.770
17215SOL    HW253420   8.192   6.997   5.894
17216SOL     OW53421   5.866  12.828   2.987
17216SOL    HW153422   5.898  12.768   2.919
17216SOL    HW253423   5.834  12.904   2.938
17217SOL     OW53424   2.658  11.574  11.377
17217SOL    HW153425   2.567  11.572  11.347
17217SOL    HW253426   2.657  11.528  11.461
17218SOL     OW53427  11.806  12.744   5.382
17218SOL    HW153428  11.865  12.808   5.420
17218SOL    HW253429  11.864  12.677   5.344
17219SOL     OW53430  13.931   5.155  14.083
17219SOL    HW153431  13.889   5.107  14.012
17219SOL    HW253432  13.937   5.245  14.051
17220SOL     OW53433   8.759   8.930   1.583
17220SOL    HW153434   8.719   8.843   1.582
17220SOL    HW253435   8.769   8.953   1.491
17221SOL     OW53436   9.906   4.391  10.296
17221SOL    HW153437   9.836   4.424  10.352
17221SOL    HW253438   9.862   4.370  10.213
17222SOL     OW53439   7.432   6.539  11.357
17222SOL    HW153440   7.347   6.530  11.398
17222SOL    HW253441   7.467   6.622  11.391
17223SOL     OW53442   5.626   2.077  14.120
17223SOL    HW153443   5.624   1.993  14.075
17223SOL    HW253444   5.711   2.079  14.163
17224SOL     OW53445  13.345  10.372   5.918
17224SOL    HW153446  13.378  10.340   5.834
17224SOL    HW253447  13.394  10.453   5.934
17225SOL     OW53448   1.853  11.504  11.172
17225SOL    HW153449   1.800  11.434  11.210
17225SOL    HW253450   1.791  11.574  11.154
17226SOL     OW53451   8.266   4.057   7.330
17226SOL    HW153452   8.303   4.090   7.412
17226SOL    HW253453   8.331   3.994   7.299
17227SOL     OW53454   3.922   2.232   4.231
17227SOL    HW153455   3.959   2.151   4.267
17227SOL    HW253456   3.998   2.283   4.204
17228SOL     OW53457   8.284   2.833   4.739
17228SOL    HW153458   8.288   2.916   4.785
17228SOL    HW253459   8.320   2.769   4.802
17229SOL     OW53460   8.873   3.158   5.783
17229SOL    HW153461   8.814   3.187   5.714
17229SOL    HW253462   8.912   3.239   5.817
17230SOL     OW53463   9.591  11.698  11.070
17230SOL    HW153464   9.665  11.638  11.082
17230SOL    HW253465   9.629  11.785  11.078
17231SOL     OW53466   7.000  11.693   8.955
17231SOL    HW153467   6.906  11.679   8.962
17231SOL    HW253468   7.039  11.611   8.985
17232SOL     OW53469   7.740  13.348   6.416
17232SOL    HW153470   7.740  13.302   6.499
17232SOL    HW253471   7.776  13.434   6.436
17233SOL     OW53472   6.247   8.016   8.945
17233SOL    HW153473   6.152   8.015   8.943
17233SOL    HW253474   6.270   8.080   9.013
17234SOL     OW53475   1.460   6.147   6.356
17234SOL    HW153476   1.413   6.184   6.431
17234SOL    HW253477   1.514   6.218   6.323
17235SOL     OW53478  11.772   7.668  10.653
17235SOL    HW153479  11.835   7.712  10.709
17235SOL    HW253480  11.825   7.615  10.593
17236SOL     OW53481   9.779   6.941   0.656
17236SOL    HW153482   9.708   6.953   0.720
17236SOL    HW253483   9.832   7.020   0.664
17237SOL     OW53484   9.496  11.740   8.331
17237SOL    HW153485   9.496  11.770   8.422
17237SOL    HW253486   9.493  11.645   8.338
17238SOL     OW53487  11.807  11.152  13.593
17238SOL    HW153488  11.848  11.107  13.667
17238SOL    HW253489  11.809  11.088  13.522
17239SOL     OW53490  14.266  12.612   0.777
17239SOL    HW153491  14.228  12.612   0.865
17239SOL    HW253492  14.293  12.703   0.763
17240SOL     OW53493   9.046   7.740   4.322
17240SOL    HW153494   8.954   7.720   4.305
17240SOL    HW253495   9.095   7.683   4.262
17241SOL     OW53496  13.721   8.920  10.020
17241SOL    HW153497  13.701   8.915  10.113
17241SOL    HW253498  13.640   8.952   9.980
17242SOL     OW53499  12.021   9.786   3.308
17242SOL    HW153500  12.102   9.784   3.359
17242SOL    HW253501  11.953   9.807   3.371
17243SOL     OW53502   5.529   3.199   1.254
17243SOL    HW153503   5.570   3.190   1.168
17243SOL    HW253504   5.496   3.112   1.274
17244SOL     OW53505   0.871   5.362  10.413
17244SOL    HW153506   0.898   5.279  10.374
17244SOL    HW253507   0.822   5.337  10.492
17245SOL     OW53508   3.059   9.212  14.214
17245SOL    HW153509   3.149   9.228  14.243
17245SOL    HW253510   3.069   9.176  14.126
17246SOL     OW53511   4.669   9.250  12.086
17246SOL    HW153512   4.672   9.297  12.169
17246SOL    HW253513   4.723   9.303  12.026
17247SOL     OW53514   3.343   1.456   5.674
17247SOL    HW153515   3.337   1.422   5.584
17247SOL    HW253516   3.436   1.473   5.688
17248SOL     OW53517  13.090  11.330   5.616
17248SOL    HW153518  13.010  11.303   5.660
17248SOL    HW253519  13.160  11.306   5.677
17249SOL     OW53520   4.053   0.070   6.027
17249SOL    HW153521   4.046  14.856   5.997
17249SOL    HW253522   4.128   0.070   6.087
17250SOL     OW53523  10.158  13.531   9.454
17250SOL    HW153524  10.090  13.489   9.401
17250SOL    HW253525  10.217  13.460   9.479
17251SOL     OW53526   0.608   7.794   1.144
17251SOL    HW153527   0.663   7.870   1.160
17251SOL    HW253528   0.635   7.763   1.057
17252SOL     OW53529   8.756   5.088   8.697
17252SOL    HW153530   8.723   5.178   8.691
17252SOL    HW253531   8.702   5.039   8.635
17253SOL     OW53532   1.044  13.019   5.713
17253SOL    HW153533   1.053  12.954   5.643
17253SOL    HW253534   1.135  13.043   5.735
17254SOL     OW53535  11.780   3.641   1.192
17254SOL    HW153536  11.763   3.730   1.225
17254SOL    HW253537  11.872   3.626   1.213
17255SOL     OW53538  11.711   3.047   7.258
17255SOL    HW153539  11.750   3.131   7.233
17255SOL    HW253540  11.785   2.994   7.287
17256SOL     OW53541   6.208  12.376   4.419
17256SOL    HW153542   6.236  12.462   4.387
17256SOL    HW253543   6.116  12.389   4.443
17257SOL     OW53544   0.554  13.371  11.223
17257SOL    HW153545   0.516  13.457  11.208
17257SOL    HW253546   0.484  13.320  11.263
17258SOL     OW53547   7.211  12.375   7.338
17258SOL    HW153548   7.142  12.344   7.397
17258SOL    HW253549   7.164  12.418   7.267
17259SOL     OW53550   9.967   7.330   7.563
17259SOL    HW153551   9.905   7.307   7.494
17259SOL    HW253552  10.052   7.299   7.531
17260SOL     OW53553  14.207   0.816   3.305
17260SOL    HW153554  14.178   0.900   3.340
17260SOL    HW253555  14.130   0.780   3.262
17261SOL     OW53556   9.164  13.125   9.309
17261SOL    HW153557   9.205  13.074   9.379
17261SOL    HW253558   9.177  13.073   9.230
17262SOL     OW53559   8.637   9.055  13.688
17262SOL    HW153560   8.725   9.064  13.726
17262SOL    HW253561   8.586   9.013  13.757
17263SOL     OW53562   2.314   2.661   5.110
17263SOL    HW153563   2.219   2.646   5.105
17263SOL    HW253564   2.350   2.574   5.130
17264SOL     OW53565   3.556  11.888  10.004
17264SOL    HW153566   3.601  11.904   9.921
17264SOL    HW253567   3.565  11.794  10.018
17265SOL     OW53568   6.996   7.461  13.855
17265SOL    HW153569   7.087   7.432  13.857
17265SOL    HW253570   6.989   7.523  13.927
17266SOL     OW53571   1.752   4.620  12.690
17266SOL    HW153572   1.659   4.615  12.667
17266SOL    HW253573   1.791   4.673  12.621
17267SOL     OW53574   3.960   6.047  14.223
17267SOL    HW153575   3.979   6.035  14.130
17267SOL    HW253576   3.923   5.963  14.251
17268SOL     OW53577   4.437  14.322  14.310
17268SOL    HW153578   4.377  14.391  14.340
17268SOL    HW253579   4.383  14.264  14.258
17269SOL     OW53580   5.179   6.808   5.777
17269SOL    HW153581   5.187   6.886   5.723
17269SOL    HW253582   5.084   6.793   5.784
17270SOL     OW53583  10.368   1.194  10.538
17270SOL    HW153584  10.390   1.101  10.528
17270SOL    HW253585  10.334   1.201  10.627
17271SOL     OW53586   3.717   5.618   0.069
17271SOL    HW153587   3.807   5.596   0.045
17271SOL    HW253588   3.692   5.687   0.007
17272SOL     OW53589  14.677   0.913   6.639
17272SOL    HW153590  14.712   0.828   6.667
17272SOL    HW253591  14.703   0.920   6.547
17273SOL     OW53592   8.495   9.196   0.911
17273SOL    HW153593   8.429   9.130   0.891
17273SOL    HW253594   8.456   9.279   0.883
17274SOL     OW53595  14.297   0.059   1.613
17274SOL    HW153596  14.355  14.875   1.568
17274SOL    HW253597  14.209   0.024   1.600
17275SOL     OW53598   2.094   8.858   0.052
17275SOL    HW153599   2.117   8.842   0.144
17275SOL    HW253600   2.074   8.952   0.048
17276SOL     OW53601   5.622  13.484   5.413
17276SOL    HW153602   5.543  13.446   5.376
17276SOL    HW253603   5.634  13.438   5.496
17277SOL     OW53604   2.446   6.724   8.566
17277SOL    HW153605   2.496   6.681   8.635
17277SOL    HW253606   2.392   6.788   8.612
17278SOL     OW53607   0.740  14.620   5.448
17278SOL    HW153608   0.663  14.649   5.398
17278SOL    HW253609   0.716  14.534   5.482
17279SOL     OW53610   3.197  11.339  12.002
17279SOL    HW153611   3.112  11.382  11.993
17279SOL    HW253612   3.246  11.367  11.925
17280SOL     OW53613  14.784   2.325  14.434
17280SOL    HW153614  14.757   2.237  14.409
17280SOL    HW253615  14.756   2.333  14.525
17281SOL     OW53616  11.350   7.113   8.808
17281SOL    HW153617  11.322   7.204   8.801
17281SOL    HW253618  11.305   7.069   8.736
17282SOL     OW53619  13.640   7.453   4.315
17282SOL    HW153620  13.565   7.501   4.348
17282SOL    HW253621  13.695   7.437   4.392
17283SOL     OW53622   3.522   1.707   4.764
17283SOL    HW153623   3.568   1.624   4.753
17283SOL    HW253624   3.431   1.681   4.781
17284SOL     OW53625   8.471   6.782  13.688
17284SOL    HW153626   8.533   6.820  13.751
17284SOL    HW253627   8.517   6.706  13.652
17285SOL     OW53628  14.298   1.283   4.666
17285SOL    HW153629  14.262   1.209   4.716
17285SOL    HW253630  14.380   1.249   4.630
17286SOL     OW53631   4.175   0.475   7.492
17286SOL    HW153632   4.224   0.436   7.419
17286SOL    HW253633   4.085   0.481   7.460
17287SOL     OW53634   6.031  11.334  10.742
17287SOL    HW153635   6.105  11.276  10.757
17287SOL    HW253636   6.062  11.420  10.771
17288SOL     OW53637  13.575   3.887   9.851
17288SOL    HW153638  13.639   3.938   9.801
17288SOL    HW253639  13.624   3.854   9.926
17289SOL     OW53640   3.387   5.330  13.893
17289SOL    HW153641   3.305   5.355  13.850
17289SOL    HW253642   3.381   5.235  13.902
17290SOL     OW53643   3.341   2.983   5.023
17290SOL    HW153644   3.336   3.063   4.970
17290SOL    HW253645   3.430   2.985   5.060
17291SOL     OW53646  10.282   6.941   0.235
17291SOL    HW153647  10.354   7.000   0.215
17291SOL    HW253648  10.256   6.906   0.150
17292SOL     OW53649  14.606   4.825   9.840
17292SOL    HW153650  14.669   4.889   9.808
17292SOL    HW253651  14.581   4.775   9.763
17293SOL     OW53652  14.677   2.840  12.995
17293SOL    HW153653  14.627   2.789  13.058
17293SOL    HW253654  14.622   2.844  12.917
17294SOL     OW53655  10.805  13.120   6.319
17294SOL    HW153656  10.799  13.026   6.336
17294SOL    HW253657  10.762  13.131   6.234
17295SOL     OW53658   8.451   6.446  13.891
17295SOL    HW153659   8.465   6.358  13.924
17295SOL    HW253660   8.439   6.435  13.796
17296SOL     OW53661   9.025  14.310  13.459
17296SOL    HW153662   8.979  14.225  13.460
17296SOL    HW253663   9.031  14.332  13.367
17297SOL     OW53664  12.387   7.138   0.275
17297SOL    HW153665  12.313   7.180   0.318
17297SOL    HW253666  12.353   7.054   0.244
17298SOL     OW53667  13.655   0.378   7.793
17298SOL    HW153668  13.629   0.381   7.885
17298SOL    HW253669  13.744   0.343   7.793
17299SOL     OW53670   2.062   8.794   8.937
17299SOL    HW153671   2.028   8.822   9.022
17299SOL    HW253672   2.014   8.714   8.918
17300SOL     OW53673   3.599   2.581   0.042
17300SOL    HW153674   3.517   2.619   0.009
17300SOL    HW253675   3.635   2.534  14.844
17301SOL     OW53676   9.831   8.838   4.597
17301SOL    HW153677   9.836   8.865   4.505
17301SOL    HW253678   9.806   8.746   4.594
17302SOL     OW53679  13.827   7.479   9.340
17302SOL    HW153680  13.897   7.527   9.295
17302SOL    HW253681  13.751   7.536   9.332
17303SOL     OW53682   9.918  10.988   2.357
17303SOL    HW153683   9.978  10.913   2.352
17303SOL    HW253684   9.855  10.963   2.424
17304SOL     OW53685  12.542   1.062   9.781
17304SOL    HW153686  12.460   1.027   9.815
17304SOL    HW253687  12.521   1.092   9.693
17305SOL     OW53688   2.998   2.960   6.082
17305SOL    HW153689   3.063   3.017   6.122
17305SOL    HW253690   3.025   2.952   5.991
17306SOL     OW53691   1.926   1.201  13.939
17306SOL    HW153692   1.956   1.114  13.965
17306SOL    HW253693   1.976   1.220  13.859
17307SOL     OW53694   2.849   0.837  14.562
17307SOL    HW153695   2.807   0.810  14.480
17307SOL    HW253696   2.930   0.880  14.534
17308SOL     OW53697   1.653   5.094   7.121
17308SOL    HW153698   1.586   5.137   7.068
17308SOL    HW253699   1.691   5.028   7.063
17309SOL     OW53700   1.501   6.756   3.950
17309SOL    HW153701   1.453   6.834   3.977
17309SOL    HW253702   1.540   6.780   3.866
17310SOL     OW53703  14.729   4.780   0.119
17310SOL    HW153704  14.670   4.711   0.148
17310SOL    HW253705  14.769   4.746   0.039
17311SOL     OW53706  14.004  14.332   3.774
17311SOL    HW153707  13.920  14.356   3.735
17311SOL    HW253708  14.034  14.411   3.818
17312SOL     OW53709  14.589   7.343   0.012
17312SOL    HW153710  14.649   7.411  14.859
17312SOL    HW253711  14.502   7.379  14.871
17313SOL     OW53712   8.862  12.718   0.538
17313SOL    HW153713   8.899  12.631   0.554
17313SOL    HW253714   8.805  12.707   0.462
17314SOL     OW53715   4.570   7.239  11.318
17314SOL    HW153716   4.501   7.245  11.384
17314SOL    HW253717   4.536   7.288  11.243
17315SOL     OW53718   3.364  13.328  14.085
17315SOL    HW153719   3.393  13.347  13.996
17315SOL    HW253720   3.436  13.279  14.124
17316SOL     OW53721   3.207   5.516   9.607
17316SOL    HW153722   3.194   5.554   9.520
17316SOL    HW253723   3.284   5.459   9.596
17317SOL     OW53724   4.047   4.265   6.695
17317SOL    HW153725   4.065   4.354   6.667
17317SOL    HW253726   4.019   4.220   6.616
17318SOL     OW53727  10.269  11.103  13.736
17318SOL    HW153728  10.248  11.195  13.753
17318SOL    HW253729  10.353  11.089  13.779
17319SOL     OW53730  12.324   3.600   3.741
17319SOL    HW153731  12.394   3.651   3.781
17319SOL    HW253732  12.340   3.606   3.647
17320SOL     OW53733  12.505   6.935   2.721
17320SOL    HW153734  12.471   6.871   2.784
17320SOL    HW253735  12.427   6.976   2.684
17321SOL     OW53736   1.400   2.163  10.869
17321SOL    HW153737   1.428   2.074  10.850
17321SOL    HW253738   1.322   2.153  10.924
17322SOL     OW53739   1.831   9.617   1.952
17322SOL    HW153740   1.916   9.576   1.966
17322SOL    HW253741   1.833   9.695   2.007
17323SOL     OW53742   7.862   6.399   4.494
17323SOL    HW153743   7.942   6.449   4.477
17323SOL    HW253744   7.888   6.335   4.560
17324SOL     OW53745   9.689   2.537   9.084
17324SOL    HW153746   9.767   2.593   9.081
17324SOL    HW253747   9.618   2.594   9.052
17325SOL     OW53748   2.211   1.398  13.216
17325SOL    HW153749   2.305   1.414  13.222
17325SOL    HW253750   2.181   1.401  13.306
17326SOL     OW53751   4.030   8.497  10.041
17326SOL    HW153752   4.024   8.592  10.041
17326SOL    HW253753   3.941   8.467  10.063
17327SOL     OW53754   1.080   1.892   4.161
17327SOL    HW153755   1.113   1.858   4.079
17327SOL    HW253756   1.000   1.939   4.137
17328SOL     OW53757   4.317   5.857   2.093
17328SOL    HW153758   4.321   5.816   2.179
17328SOL    HW253759   4.392   5.917   2.090
17329SOL     OW53760  12.340   8.428   3.310
17329SOL    HW153761  12.393   8.353   3.284
17329SOL    HW253762  12.402   8.489   3.351
17330SOL     OW53763   8.867   2.232   1.734
17330SOL    HW153764   8.893   2.140   1.741
17330SOL    HW253765   8.948   2.281   1.745
17331SOL     OW53766   8.815   1.310   2.553
17331SOL    HW153767   8.872   1.258   2.496
17331SOL    HW253768   8.770   1.370   2.493
17332SOL     OW53769   4.956  10.953   9.376
17332SOL    HW153770   4.907  11.025   9.417
17332SOL    HW253771   4.985  10.898   9.448
17333SOL     OW53772   3.593   0.330  10.600
17333SOL    HW153773   3.651   0.282  10.660
17333SOL    HW253774   3.578   0.414  10.644
17334SOL     OW53775   4.225   3.953  14.498
17334SOL    HW153776   4.129   3.951  14.504
17334SOL    HW253777   4.243   3.957  14.405
17335SOL     OW53778   3.306   4.478   8.266
17335SOL    HW153779   3.348   4.418   8.329
17335SOL    HW253780   3.377   4.537   8.240
17336SOL     OW53781  14.669   5.103   7.207
17336SOL    HW153782  14.645   5.144   7.124
17336SOL    HW253783  14.597   5.124   7.266
17337SOL     OW53784   5.240  12.746  12.623
17337SOL    HW153785   5.200  12.659  12.635
17337SOL    HW253786   5.216  12.770  12.534
17338SOL     OW53787  11.180   8.808   9.591
17338SOL    HW153788  11.236   8.740   9.629
17338SOL    HW253789  11.091   8.784   9.617
17339SOL     OW53790  14.467  14.174   4.703
17339SOL    HW153791  14.486  14.082   4.719
17339SOL    HW253792  14.420  14.203   4.781
17340SOL     OW53793   9.017  11.850   1.290
17340SOL    HW153794   8.956  11.924   1.295
17340SOL    HW253795   9.056  11.857   1.203
17341SOL     OW53796   0.512  11.283  11.243
17341SOL    HW153797   0.444  11.341  11.210
17341SOL    HW253798   0.570  11.268  11.168
17342SOL     OW53799   3.948  14.654   4.703
17342SOL    HW153800   4.004  14.658   4.625
17342SOL    HW253801   3.862  14.628   4.669
17343SOL     OW53802  11.232  12.946  11.194
17343SOL    HW153803  11.180  12.999  11.134
17343SOL    HW253804  11.323  12.960  11.166
17344SOL     OW53805  12.147   7.668   3.139
17344SOL    HW153806  12.065   7.714   3.120
17344SOL    HW253807  12.215   7.721   3.097
17345SOL     OW53808  12.163   3.764  11.282
17345SOL    HW153809  12.212   3.785  11.203
17345SOL    HW253810  12.124   3.679  11.265
17346SOL     OW53811   0.902   2.582  14.493
17346SOL    HW153812   0.960   2.653  14.466
17346SOL    HW253813   0.956   2.527  14.550
17347SOL     OW53814   4.959   5.676  11.167
17347SOL    HW153815   4.938   5.753  11.113
17347SOL    HW253816   5.050   5.656  11.145
17348SOL     OW53817  11.737   8.070   8.556
17348SOL    HW153818  11.659   8.048   8.505
17348SOL    HW253819  11.810   8.042   8.502
17349SOL     OW53820  14.355   3.458  11.274
17349SOL    HW153821  14.449   3.473  11.285
17349SOL    HW253822  14.315   3.496  11.352
17350SOL     OW53823   1.753  10.819   4.568
17350SOL    HW153824   1.814  10.882   4.606
17350SOL    HW253825   1.674  10.827   4.622
17351SOL     OW53826  11.216   5.099  13.237
17351SOL    HW153827  11.280   5.070  13.173
17351SOL    HW253828  11.147   5.032  13.233
17352SOL     OW53829   5.829   2.774  11.018
17352SOL    HW153830   5.812   2.744  11.107
17352SOL    HW253831   5.814   2.698  10.963
17353SOL     OW53832  10.646  14.240   0.678
17353SOL    HW153833  10.589  14.256   0.603
17353SOL    HW253834  10.595  14.272   0.753
17354SOL     OW53835   9.372  14.787   3.902
17354SOL    HW153836   9.422  14.705   3.899
17354SOL    HW253837   9.435  14.853   3.930
17355SOL     OW53838   8.495  13.424  14.654
17355SOL    HW153839   8.439  13.473  14.714
17355SOL    HW253840   8.531  13.353  14.707
17356SOL     OW53841   4.732   3.867   2.904
17356SOL    HW153842   4.754   3.928   2.974
17356SOL    HW253843   4.781   3.898   2.828
17357SOL     OW53844  14.106   3.279   3.743
17357SOL    HW153845  14.061   3.269   3.827
17357SOL    HW253846  14.189   3.233   3.755
17358SOL     OW53847   4.355  12.185  11.830
17358SOL    HW153848   4.260  12.190  11.819
17358SOL    HW253849   4.368  12.173  11.924
17359SOL     OW53850   7.722  10.539   7.175
17359SOL    HW153851   7.776  10.530   7.096
17359SOL    HW253852   7.760  10.478   7.238
17360SOL     OW53853   9.259   2.550  14.041
17360SOL    HW153854   9.242   2.636  14.080
17360SOL    HW253855   9.324   2.510  14.099
17361SOL     OW53856  13.159   4.219  11.840
17361SOL    HW153857  13.203   4.218  11.754
17361SOL    HW253858  13.186   4.138  11.881
17362SOL     OW53859   9.054  10.593   8.000
17362SOL    HW153860   9.063  10.544   8.082
17362SOL    HW253861   9.124  10.560   7.944
17363SOL     OW53862   5.017   6.198  13.178
17363SOL    HW153863   5.034   6.112  13.216
17363SOL    HW253864   4.930   6.190  13.139
17364SOL     OW53865   4.680   2.518  14.810
17364SOL    HW153866   4.648   2.602  14.844
17364SOL    HW253867   4.747   2.491  14.873
17365SOL     OW53868   6.524  12.354  12.980
17365SOL    HW153869   6.502  12.333  13.071
17365SOL    HW253870   6.463  12.424  12.956
17366SOL     OW53871  12.414  13.242   2.330
17366SOL    HW153872  12.410  13.148   2.316
17366SOL    HW253873  12.324  13.267   2.352
17367SOL     OW53874  13.912   4.434   5.652
17367SOL    HW153875  13.876   4.353   5.687
17367SOL    HW253876  13.839   4.496   5.654
17368SOL     OW53877   6.179   7.243   6.687
17368SOL    HW153878   6.133   7.326   6.701
17368SOL    HW253879   6.182   7.232   6.592
17369SOL     OW53880   8.412   9.666   5.108
17369SOL    HW153881   8.460   9.749   5.109
17369SOL    HW253882   8.467   9.606   5.159
17370SOL     OW53883  13.960  14.394  10.360
17370SOL    HW153884  14.035  14.400  10.419
17370SOL    HW253885  13.957  14.302  10.333
17371SOL     OW53886   7.555  14.251   4.491
17371SOL    HW153887   7.606  14.301   4.555
17371SOL    HW253888   7.549  14.163   4.529
17372SOL     OW53889  12.590   5.661   4.436
17372SOL    HW153890  12.549   5.717   4.502
17372SOL    HW253891  12.538   5.581   4.438
17373SOL     OW53892   6.702  13.470   1.527
17373SOL    HW153893   6.612  13.437   1.532
17373SOL    HW253894   6.749  13.401   1.480
17374SOL     OW53895  10.477   4.630   4.385
17374SOL    HW153896  10.555   4.591   4.425
17374SOL    HW253897  10.450   4.566   4.319
17375SOL     OW53898   7.392   9.536   3.317
17375SOL    HW153899   7.377   9.608   3.378
17375SOL    HW253900   7.306   9.519   3.277
17376SOL     OW53901   8.192   5.109   3.238
17376SOL    HW153902   8.115   5.166   3.247
17376SOL    HW253903   8.265   5.163   3.269
17377SOL     OW53904  12.107   7.901   2.767
17377SOL    HW153905  12.092   7.959   2.693
17377SOL    HW253906  12.163   7.831   2.732
17378SOL     OW53907   4.772   6.263  10.345
17378SOL    HW153908   4.790   6.219  10.262
17378SOL    HW253909   4.699   6.214  10.383
17379SOL     OW53910   6.350   7.708  12.457
17379SOL    HW153911   6.301   7.780  12.417
17379SOL    HW253912   6.383   7.745  12.539
17380SOL     OW53913  12.776  12.264   5.640
17380SOL    HW153914  12.816  12.248   5.725
17380SOL    HW253915  12.850  12.274   5.580
17381SOL     OW53916   8.746   5.034  11.427
17381SOL    HW153917   8.761   4.965  11.363
17381SOL    HW253918   8.830   5.081  11.431
17382SOL     OW53919   9.261  12.351  10.238
17382SOL    HW153920   9.337  12.396  10.274
17382SOL    HW253921   9.186  12.389  10.283
17383SOL     OW53922   5.032   6.439   9.806
17383SOL    HW153923   5.091   6.439   9.881
17383SOL    HW253924   4.952   6.397   9.838
17384SOL     OW53925   4.613   3.699  10.249
17384SOL    HW153926   4.627   3.756  10.324
17384SOL    HW253927   4.525   3.663  10.262
17385SOL     OW53928   2.889   6.908   4.274
17385SOL    HW153929   2.836   6.849   4.327
17385SOL    HW253930   2.834   6.929   4.199
17386SOL     OW53931  11.487   4.322   8.320
17386SOL    HW153932  11.399   4.321   8.359
17386SOL    HW253933  11.491   4.404   8.271
17387SOL     OW53934   5.001   5.161   0.747
17387SOL    HW153935   5.077   5.114   0.781
17387SOL    HW253936   4.966   5.104   0.679
17388SOL     OW53937   4.897   3.750   8.047
17388SOL    HW153938   4.957   3.811   8.003
17388SOL    HW253939   4.819   3.749   7.992
17389SOL     OW53940   0.873  12.119   2.698
17389SOL    HW153941   0.929  12.044   2.679
17389SOL    HW253942   0.800  12.082   2.748
17390SOL     OW53943  14.268  10.408   8.559
17390SOL    HW153944  14.206  10.342   8.529
17390SOL    HW253945  14.335  10.412   8.491
17391SOL     OW53946   7.448   7.111   7.264
17391SOL    HW153947   7.496   7.069   7.335
17391SOL    HW253948   7.499   7.189   7.243
17392SOL     OW53949   0.856  12.665   2.880
17392SOL    HW153950   0.891  12.738   2.830
17392SOL    HW253951   0.920  12.595   2.869
17393SOL     OW53952  13.529   2.470  13.701
17393SOL    HW153953  13.623   2.482  13.708
17393SOL    HW253954  13.518   2.375  13.688
17394SOL     OW53955   0.685   1.855   9.540
17394SOL    HW153956   0.711   1.784   9.481
17394SOL    HW253957   0.591   1.865   9.526
17395SOL     OW53958   1.905   4.215   4.620
17395SOL    HW153959   1.923   4.130   4.659
17395SOL    HW253960   1.810   4.218   4.612
17396SOL     OW53961   3.745  14.461  10.555
17396SOL    HW153962   3.698  14.537  10.589
17396SOL    HW253963   3.772  14.412  10.633
17397SOL     OW53964   1.808  14.129   3.874
17397SOL    HW153965   1.747  14.101   3.806
17397SOL    HW253966   1.757  14.188   3.929
17398SOL     OW53967   2.244  12.461   5.007
17398SOL    HW153968   2.268  12.425   4.921
17398SOL    HW253969   2.327  12.481   5.049
17399SOL     OW53970   0.442   5.507   1.226
17399SOL    HW153971   0.508   5.442   1.250
17399SOL    HW253972   0.377   5.458   1.176
17400SOL     OW53973   6.264   6.115   3.011
17400SOL    HW153974   6.208   6.185   3.047
17400SOL    HW253975   6.352   6.151   3.015
17401SOL     OW53976   5.458   9.608   6.065
17401SOL    HW153977   5.461   9.662   5.986
17401SOL    HW253978   5.472   9.669   6.137
17402SOL     OW53979   5.515   3.361   0.455
17402SOL    HW153980   5.502   3.445   0.411
17402SOL    HW253981   5.570   3.311   0.395
17403SOL     OW53982   6.929   5.729  11.113
17403SOL    HW153983   6.877   5.725  11.032
17403SOL    HW253984   6.865   5.751  11.181
17404SOL     OW53985   4.181  14.458   2.858
17404SOL    HW153986   4.195  14.481   2.766
17404SOL    HW253987   4.214  14.369   2.866
17405SOL     OW53988   3.567   1.261   7.877
17405SOL    HW153989   3.491   1.296   7.925
17405SOL    HW253990   3.640   1.317   7.905
17406SOL     OW53991  13.054  11.025   6.111
17406SOL    HW153992  13.094  11.112   6.107
17406SOL    HW253993  13.047  11.006   6.204
17407SOL     OW53994   9.630  13.807   0.633
17407SOL    HW153995   9.637  13.714   0.611
17407SOL    HW253996   9.576  13.808   0.712
17408SOL     OW53997  13.061   2.233   7.731
17408SOL    HW153998  13.029   2.311   7.775
17408SOL    HW253999  12.982   2.186   7.705
17409SOL     OW54000   0.045   8.319   3.739
17409SOL    HW154001   0.099   8.302   3.662
17409SOL    HW254002   0.107   8.323   3.812
17410SOL     OW54003   0.729   2.884   9.394
17410SOL    HW154004   0.776   2.930   9.465
17410SOL    HW254005   0.798   2.858   9.333
17411SOL     OW54006   9.285   7.365  11.553
17411SOL    HW154007   9.332   7.384  11.472
17411SOL    HW254008   9.326   7.285  11.586
17412SOL     OW54009   8.672   0.477  14.381
17412SOL    HW154010   8.643   0.562  14.348
17412SOL    HW254011   8.715   0.435  14.306
17413SOL     OW54012  10.159   1.283   1.502
17413SOL    HW154013  10.197   1.199   1.474
17413SOL    HW254014  10.215   1.311   1.574
17414SOL     OW54015   3.175   9.740  10.115
17414SOL    HW154016   3.162   9.816  10.172
17414SOL    HW254017   3.259   9.757  10.071
17415SOL     OW54018   9.875   1.602  10.223
17415SOL    HW154019   9.963   1.565  10.225
17415SOL    HW254020   9.875   1.670  10.289
17416SOL     OW54021   1.388   4.883   7.058
17416SOL    HW154022   1.382   4.932   6.976
17416SOL    HW254023   1.329   4.930   7.118
17417SOL     OW54024   3.435   5.448  12.995
17417SOL    HW154025   3.490   5.417  12.923
17417SOL    HW254026   3.361   5.387  12.997
17418SOL     OW54027  13.726  13.334   0.053
17418SOL    HW154028  13.774  13.313   0.133
17418SOL    HW254029  13.735  13.256  14.876
17419SOL     OW54030   6.465   5.450  14.144
17419SOL    HW154031   6.430   5.418  14.227
17419SOL    HW254032   6.482   5.543  14.161
17420SOL     OW54033   4.802  12.906   4.469
17420SOL    HW154034   4.748  12.981   4.444
17420SOL    HW254035   4.865  12.897   4.397
17421SOL     OW54036  13.628   2.479  10.618
17421SOL    HW154037  13.539   2.508  10.638
17421SOL    HW254038  13.684   2.535  10.673
17422SOL     OW54039   5.086  10.174  13.952
17422SOL    HW154040   5.016  10.155  14.014
17422SOL    HW254041   5.159  10.118  13.981
17423SOL     OW54042   4.905   8.955   2.287
17423SOL    HW154043   4.878   8.866   2.264
17423SOL    HW254044   4.974   8.943   2.352
17424SOL     OW54045  10.812   2.008  11.060
17424SOL    HW154046  10.813   1.912  11.055
17424SOL    HW254047  10.870   2.036  10.989
17425SOL     OW54048   8.749   6.227   7.480
17425SOL    HW154049   8.710   6.158   7.426
17425SOL    HW254050   8.810   6.272   7.421
17426SOL     OW54051   3.015  11.647  13.002
17426SOL    HW154052   2.982  11.725  12.957
17426SOL    HW254053   3.098  11.675  13.042
17427SOL     OW54054   8.711   9.193   6.469
17427SOL    HW154055   8.735   9.284   6.453
17427SOL    HW254056   8.782   9.142   6.432
17428SOL     OW54057  13.921  10.346  11.707
17428SOL    HW154058  13.831  10.355  11.740
17428SOL    HW254059  13.954  10.435  11.702
17429SOL     OW54060   5.397  13.949   6.602
17429SOL    HW154061   5.424  13.906   6.683
17429SOL    HW254062   5.412  14.042   6.618
17430SOL     OW54063  13.555   0.477  10.028
17430SOL    HW154064  13.474   0.427  10.037
17430SOL    HW254065  13.625   0.412  10.040
17431SOL     OW54066  10.883   1.653   5.789
17431SOL    HW154067  10.915   1.663   5.878
17431SOL    HW254068  10.947   1.699   5.735
17432SOL     OW54069   6.769  11.018  13.791
17432SOL    HW154070   6.709  10.945  13.777
17432SOL    HW254071   6.719  11.096  13.768
17433SOL     OW54072  14.723   5.504   4.584
17433SOL    HW154073  14.700   5.482   4.675
17433SOL    HW254074  14.693   5.595   4.574
17434SOL     OW54075   6.458  12.454   0.924
17434SOL    HW154076   6.450  12.398   0.847
17434SOL    HW254077   6.540  12.501   0.912
17435SOL     OW54078   9.664   0.711  10.382
17435SOL    HW154079   9.739   0.652  10.378
17435SOL    HW254080   9.628   0.711  10.294
17436SOL     OW54081   3.377  11.991   9.612
17436SOL    HW154082   3.289  11.967   9.641
17436SOL    HW254083   3.409  12.051   9.679
17437SOL     OW54084   5.325   0.123   8.647
17437SOL    HW154085   5.419   0.106   8.655
17437SOL    HW254086   5.289   0.042   8.612
17438SOL     OW54087   4.141  13.833   0.069
17438SOL    HW154088   4.056  13.856   0.107
17438SOL    HW254089   4.180  13.773   0.132
17439SOL     OW54090  11.956  12.695   6.479
17439SOL    HW154091  12.043  12.673   6.512
17439SOL    HW254092  11.913  12.738   6.553
17440SOL     OW54093   1.697   6.485   7.041
17440SOL    HW154094   1.715   6.538   7.119
17440SOL    HW254095   1.625   6.531   6.997
17441SOL     OW54096  11.242   6.788   7.549
17441SOL    HW154097  11.307   6.720   7.530
17441SOL    HW254098  11.158   6.746   7.530
17442SOL     OW54099   7.596  13.482  13.926
17442SOL    HW154100   7.626  13.563  13.884
17442SOL    HW254101   7.659  13.416  13.898
17443SOL     OW54102   7.382  13.705   0.908
17443SOL    HW154103   7.311  13.740   0.854
17443SOL    HW254104   7.461  13.729   0.860
17444SOL     OW54105   5.986  13.526   7.791
17444SOL    HW154106   6.034  13.469   7.731
17444SOL    HW254107   5.964  13.469   7.865
17445SOL     OW54108  10.761   4.231   3.556
17445SOL    HW154109  10.705   4.308   3.560
17445SOL    HW254110  10.798   4.223   3.644
17446SOL     OW54111  14.679  10.776   9.435
17446SOL    HW154112  14.721  10.833   9.500
17446SOL    HW254113  14.659  10.696   9.484
17447SOL     OW54114   6.354   8.414  13.829
17447SOL    HW154115   6.393   8.350  13.889
17447SOL    HW254116   6.279   8.450  13.877
17448SOL     OW54117  11.601  14.357   7.436
17448SOL    HW154118  11.686  14.401   7.443
17448SOL    HW254119  11.549  14.392   7.509
17449SOL     OW54120   4.452   8.737   7.852
17449SOL    HW154121   4.456   8.667   7.786
17449SOL    HW254122   4.367   8.725   7.893
17450SOL     OW54123  13.265   8.808   0.822
17450SOL    HW154124  13.305   8.878   0.771
17450SOL    HW254125  13.328   8.736   0.818
17451SOL     OW54126   8.713   5.458   5.536
17451SOL    HW154127   8.630   5.410   5.539
17451SOL    HW254128   8.762   5.416   5.466
17452SOL     OW54129   0.102   3.648   9.131
17452SOL    HW154130   0.179   3.705   9.132
17452SOL    HW254131   0.121   3.584   9.061
17453SOL     OW54132  13.404   0.637   1.774
17453SOL    HW154133  13.379   0.560   1.724
17453SOL    HW254134  13.343   0.638   1.849
17454SOL     OW54135   2.703   3.795   1.417
17454SOL    HW154136   2.663   3.815   1.332
17454SOL    HW254137   2.791   3.833   1.410
17455SOL     OW54138   0.851   7.782  13.405
17455SOL    HW154139   0.858   7.700  13.356
17455SOL    HW254140   0.893   7.763  13.489
17456SOL     OW54141   3.913   0.787   3.294
17456SOL    HW154142   3.879   0.721   3.233
17456SOL    HW254143   3.981   0.832   3.244
17457SOL     OW54144   9.294  11.096  12.680
17457SOL    HW154145   9.239  11.172  12.660
17457SOL    HW254146   9.319  11.061  12.595
17458SOL     OW54147   8.579  10.975   2.676
17458SOL    HW154148   8.552  11.001   2.765
17458SOL    HW254149   8.652  11.033   2.656
17459SOL     OW54150   2.351  14.294   9.895
17459SOL    HW154151   2.415  14.240   9.848
17459SOL    HW254152   2.325  14.361   9.831
17460SOL     OW54153   6.886   6.155  12.060
17460SOL    HW154154   6.852   6.144  12.149
17460SOL    HW254155   6.875   6.069  12.020
17461SOL     OW54156   4.050  10.609   8.040
17461SOL    HW154157   4.063  10.594   8.134
17461SOL    HW254158   4.134  10.587   8.000
17462SOL     OW54159   3.267  11.873   7.255
17462SOL    HW154160   3.313  11.790   7.245
17462SOL    HW254161   3.289  11.903   7.343
17463SOL     OW54162   8.080   8.075   2.275
17463SOL    HW154163   7.996   8.102   2.239
17463SOL    HW254164   8.059   8.036   2.360
17464SOL     OW54165   7.315   1.124   4.342
17464SOL    HW154166   7.223   1.131   4.367
17464SOL    HW254167   7.363   1.151   4.420
17465SOL     OW54168   7.813  14.471  10.635
17465SOL    HW154169   7.783  14.380  10.634
17465SOL    HW254170   7.742  14.520  10.593
17466SOL     OW54171  10.772  14.236  12.111
17466SOL    HW154172  10.812  14.185  12.181
17466SOL    HW254173  10.815  14.321  12.115
17467SOL     OW54174   0.972   3.031  14.259
17467SOL    HW154175   0.933   2.963  14.203
17467SOL    HW254176   1.061   3.041  14.225
17468SOL     OW54177   9.733  11.031   6.389
17468SOL    HW154178   9.704  11.122   6.393
17468SOL    HW254179   9.689  10.995   6.312
17469SOL     OW54180  10.817   4.893  10.129
17469SOL    HW154181  10.855   4.822  10.078
17469SOL    HW254182  10.890   4.929  10.179
17470SOL     OW54183  10.226   8.592  12.149
17470SOL    HW154184  10.277   8.643  12.212
17470SOL    HW254185  10.260   8.503  12.159
17471SOL     OW54186  11.734   5.172   7.747
17471SOL    HW154187  11.816   5.210   7.715
17471SOL    HW254188  11.687   5.246   7.787
17472SOL     OW54189  13.954   0.095  11.842
17472SOL    HW154190  13.946   0.142  11.759
17472SOL    HW254191  14.041   0.119  11.875
17473SOL     OW54192  10.922   5.623  11.643
17473SOL    HW154193  10.965   5.621  11.557
17473SOL    HW254194  10.987   5.662  11.701
17474SOL     OW54195   2.416  10.466  12.647
17474SOL    HW154196   2.357  10.538  12.671
17474SOL    HW254197   2.419  10.467  12.552
17475SOL     OW54198   8.683   3.390   8.351
17475SOL    HW154199   8.697   3.477   8.312
17475SOL    HW254200   8.766   3.344   8.337
17476SOL     OW54201   3.292   4.100   9.237
17476SOL    HW154202   3.331   4.185   9.254
17476SOL    HW254203   3.203   4.120   9.206
17477SOL     OW54204   1.407  10.126   4.393
17477SOL    HW154205   1.441  10.054   4.340
17477SOL    HW254206   1.398  10.089   4.481
17478SOL     OW54207   1.654   6.604   4.931
17478SOL    HW154208   1.632   6.518   4.896
17478SOL    HW254209   1.704   6.585   5.010
17479SOL     OW54210   9.424   0.906   0.710
17479SOL    HW154211   9.429   0.861   0.626
17479SOL    HW254212   9.335   0.940   0.714
17480SOL     OW54213   4.748   9.233   9.593
17480SOL    HW154214   4.831   9.253   9.636
17480SOL    HW254215   4.697   9.314   9.600
17481SOL     OW54216  10.119   4.928   0.845
17481SOL    HW154217  10.042   4.977   0.875
17481SOL    HW254218  10.125   4.854   0.905
17482SOL     OW54219   6.789   8.724   6.891
17482SOL    HW154220   6.820   8.744   6.802
17482SOL    HW254221   6.752   8.806   6.923
17483SOL     OW54222  14.719   4.308   5.123
17483SOL    HW154223  14.640   4.269   5.086
17483SOL    HW254224  14.690   4.391   5.161
17484SOL     OW54225   3.150   2.912   0.494
17484SOL    HW154226   3.156   2.863   0.412
17484SOL    HW254227   3.217   2.979   0.487
17485SOL     OW54228  10.096   8.471  13.287
17485SOL    HW154229  10.052   8.546  13.247
17485SOL    HW254230  10.043   8.451  13.365
17486SOL     OW54231  13.463   5.147   4.430
17486SOL    HW154232  13.513   5.117   4.354
17486SOL    HW254233  13.468   5.074   4.491
17487SOL     OW54234   8.489  12.516   1.621
17487SOL    HW154235   8.470  12.610   1.625
17487SOL    HW254236   8.551  12.507   1.548
17488SOL     OW54237   9.691  10.363   7.706
17488SOL    HW154238   9.622  10.315   7.750
17488SOL    HW254239   9.666  10.455   7.714
17489SOL     OW54240   6.765   6.550  14.273
17489SOL    HW154241   6.738   6.584  14.188
17489SOL    HW254242   6.726   6.609  14.337
17490SOL     OW54243   4.014   6.334   3.931
17490SOL    HW154244   3.965   6.357   4.010
17490SOL    HW254245   4.102   6.313   3.963
17491SOL     OW54246   6.954   3.943  10.185
17491SOL    HW154247   6.964   3.855  10.147
17491SOL    HW254248   7.043   3.977  10.189
17492SOL     OW54249  10.771   0.026   1.811
17492SOL    HW154250  10.698   0.004   1.753
17492SOL    HW254251  10.730   0.046   1.895
17493SOL     OW54252   0.437   0.831   0.387
17493SOL    HW154253   0.359   0.777   0.398
17493SOL    HW254254   0.509   0.768   0.378
17494SOL     OW54255  11.708   5.630   7.348
17494SOL    HW154256  11.682   5.553   7.297
17494SOL    HW254257  11.774   5.597   7.409
17495SOL     OW54258  12.007   6.046  10.004
17495SOL    HW154259  12.094   6.046   9.965
17495SOL    HW254260  11.958   6.112   9.955
17496SOL     OW54261   2.181  11.339   9.746
17496SOL    HW154262   2.091  11.365   9.767
17496SOL    HW254263   2.194  11.365   9.655
17497SOL     OW54264  11.330   0.118   4.554
17497SOL    HW154265  11.277   0.112   4.634
17497SOL    HW254266  11.287   0.185   4.502
17498SOL     OW54267   9.564   3.332   6.368
17498SOL    HW154268   9.612   3.250   6.361
17498SOL    HW254269   9.602   3.389   6.302
17499SOL     OW54270  11.280   7.439   6.201
17499SOL    HW154271  11.203   7.491   6.181
17499SOL    HW254272  11.309   7.406   6.115
17500SOL     OW54273  10.317   1.694   7.019
17500SOL    HW154274  10.396   1.640   7.032
17500SOL    HW254275  10.295   1.725   7.106
17501SOL     OW54276  12.586   8.415   4.674
17501SOL    HW154277  12.665   8.363   4.685
17501SOL    HW254278  12.528   8.388   4.745
17502SOL     OW54279   3.411   0.216   4.322
17502SOL    HW154280   3.421   0.306   4.290
17502SOL    HW254281   3.447   0.218   4.410
17503SOL     OW54282  12.137  12.172  13.381
17503SOL    HW154283  12.095  12.227  13.447
17503SOL    HW254284  12.203  12.123  13.430
17504SOL     OW54285  14.626   3.741   4.161
17504SOL    HW154286  14.564   3.812   4.175
17504SOL    HW254287  14.685   3.746   4.237
17505SOL     OW54288   1.245  13.276  10.126
17505SOL    HW154289   1.313  13.215  10.154
17505SOL    HW254290   1.165  13.244  10.169
17506SOL     OW54291   0.318   6.007   6.279
17506SOL    HW154292   0.345   5.979   6.192
17506SOL    HW254293   0.395   5.993   6.334
17507SOL     OW54294   6.539   1.293  13.726
17507SOL    HW154295   6.498   1.260  13.807
17507SOL    HW254296   6.594   1.366  13.755
17508SOL     OW54297   1.998  13.341  10.057
17508SOL    HW154298   1.959  13.411  10.005
17508SOL    HW254299   2.086  13.330  10.020
17509SOL     OW54300   4.136   2.422   7.259
17509SOL    HW154301   4.052   2.377   7.247
17509SOL    HW254302   4.172   2.429   7.170
17510SOL     OW54303   7.813   5.759   8.265
17510SOL    HW154304   7.864   5.812   8.326
17510SOL    HW254305   7.838   5.669   8.284
17511SOL     OW54306   7.648  14.075  10.082
17511SOL    HW154307   7.619  14.162  10.110
17511SOL    HW254308   7.647  14.023  10.163
17512SOL     OW54309  13.791  11.959   3.327
17512SOL    HW154310  13.886  11.961   3.333
17512SOL    HW254311  13.767  11.870   3.352
17513SOL     OW54312   4.724   3.890   3.296
17513SOL    HW154313   4.696   3.979   3.275
17513SOL    HW254314   4.703   3.880   3.389
17514SOL     OW54315  14.538   9.206  11.709
17514SOL    HW154316  14.590   9.201  11.789
17514SOL    HW254317  14.594   9.169  11.641
17515SOL     OW54318   0.283   4.134  10.557
17515SOL    HW154319   0.320   4.155  10.471
17515SOL    HW254320   0.211   4.074  10.538
17516SOL     OW54321   0.246  13.028   1.800
17516SOL    HW154322   0.281  12.954   1.849
17516SOL    HW254323   0.302  13.035   1.722
17517SOL     OW54324   9.956  12.927  13.028
17517SOL    HW154325   9.872  12.885  13.011
17517SOL    HW254326   9.979  12.969  12.945
17518SOL     OW54327   9.629   9.742   2.647
17518SOL    HW154328   9.571   9.676   2.611
17518SOL    HW254329   9.663   9.789   2.570
17519SOL     OW54330   1.257  14.324  13.328
17519SOL    HW154331   1.173  14.332  13.375
17519SOL    HW254332   1.300  14.408  13.342
17520SOL     OW54333   7.740   2.303   9.239
17520SOL    HW154334   7.751   2.359   9.162
17520SOL    HW254335   7.704   2.222   9.205
17521SOL     OW54336  10.842  14.634   1.880
17521SOL    HW154337  10.799  14.715   1.854
17521SOL    HW254338  10.786  14.598   1.949
17522SOL     OW54339  14.586   1.409   2.345
17522SOL    HW154340  14.646   1.482   2.327
17522SOL    HW254341  14.572   1.412   2.439
17523SOL     OW54342   2.462  10.549  14.817
17523SOL    HW154343   2.556  10.543  14.798
17523SOL    HW254344   2.456  10.613   0.010
17524SOL     OW54345   6.214  12.947   2.741
17524SOL    HW154346   6.277  13.018   2.753
17524SOL    HW254347   6.132  12.991   2.720
17525SOL     OW54348   6.894  11.877   1.407
17525SOL    HW154349   6.931  11.837   1.329
17525SOL    HW254350   6.884  11.805   1.469
17526SOL     OW54351   8.653  11.465   9.847
17526SOL    HW154352   8.743  11.440   9.867
17526SOL    HW254353   8.605  11.446   9.927
17527SOL     OW54354   6.243  10.983   7.096
17527SOL    HW154355   6.276  11.034   7.171
17527SOL    HW254356   6.306  11.001   7.026
17528SOL     OW54357   8.759  14.333  12.802
17528SOL    HW154358   8.837  14.370  12.761
17528SOL    HW254359   8.729  14.401  12.862
17529SOL     OW54360   7.708   4.469  11.942
17529SOL    HW154361   7.747   4.426  11.866
17529SOL    HW254362   7.769   4.540  11.963
17530SOL     OW54363   1.552   0.428  11.587
17530SOL    HW154364   1.628   0.384  11.626
17530SOL    HW254365   1.567   0.423  11.493
17531SOL     OW54366   2.516   1.703  11.880
17531SOL    HW154367   2.566   1.731  11.804
17531SOL    HW254368   2.424   1.715  11.855
17532SOL     OW54369   7.987   8.895   4.858
17532SOL    HW154370   8.050   8.910   4.788
17532SOL    HW254371   7.919   8.961   4.844
17533SOL     OW54372  14.869  12.442   1.648
17533SOL    HW154373  14.776  12.459   1.634
17533SOL    HW254374   0.022  12.408   1.564
17534SOL     OW54375   0.876   8.466  10.064
17534SOL    HW154376   0.959   8.503  10.034
17534SOL    HW254377   0.896   8.376  10.087
17535SOL     OW54378  12.241   2.525  11.046
17535SOL    HW154379  12.157   2.569  11.054
17535SOL    HW254380  12.299   2.591  11.008
17536SOL     OW54381   7.006   4.296  11.617
17536SOL    HW154382   6.951   4.299  11.539
17536SOL    HW254383   7.036   4.205  11.621
17537SOL     OW54384  11.168   5.460  12.967
17537SOL    HW154385  11.219   5.415  13.035
17537SOL    HW254386  11.153   5.548  13.002
17538SOL     OW54387  13.362   6.358   1.898
17538SOL    HW154388  13.291   6.410   1.860
17538SOL    HW254389  13.324   6.270   1.907
17539SOL     OW54390  13.193   8.422   6.544
17539SOL    HW154391  13.206   8.451   6.453
17539SOL    HW254392  13.256   8.351   6.555
17540SOL     OW54393   5.851   8.875   8.463
17540SOL    HW154394   5.856   8.893   8.369
17540SOL    HW254395   5.799   8.947   8.498
17541SOL     OW54396  13.409   7.172   5.976
17541SOL    HW154397  13.366   7.088   5.960
17541SOL    HW254398  13.500   7.149   5.996
17542SOL     OW54399   4.869  13.442   3.694
17542SOL    HW154400   4.962  13.420   3.690
17542SOL    HW254401   4.846  13.471   3.606
17543SOL     OW54402   4.191   1.076   1.087
17543SOL    HW154403   4.137   1.010   1.044
17543SOL    HW254404   4.249   1.108   1.019
17544SOL     OW54405   8.344   0.232  14.314
17544SOL    HW154406   8.324   0.315  14.357
17544SOL    HW254407   8.261   0.206  14.274
17545SOL     OW54408   4.654  14.395  10.261
17545SOL    HW154409   4.578  14.449  10.241
17545SOL    HW254410   4.668  14.343  10.181
17546SOL     OW54411   3.475  13.906  14.340
17546SOL    HW154412   3.438  13.906  14.251
17546SOL    HW254413   3.405  13.869  14.394
17547SOL     OW54414   3.295   3.624  11.968
17547SOL    HW154415   3.276   3.536  11.999
17547SOL    HW254416   3.390   3.632  11.975
17548SOL     OW54417   8.817   3.124   7.799
17548SOL    HW154418   8.740   3.178   7.818
17548SOL    HW254419   8.875   3.137   7.874
17549SOL     OW54420   6.439  10.146   5.099
17549SOL    HW154421   6.519  10.178   5.142
17549SOL    HW254422   6.395  10.225   5.069
17550SOL     OW54423   4.105  14.719   5.256
17550SOL    HW154424   4.161  14.709   5.179
17550SOL    HW254425   4.164  14.703   5.330
17551SOL     OW54426   8.992  13.005  11.368
17551SOL    HW154427   9.030  12.927  11.409
17551SOL    HW254428   9.001  13.073  11.434
17552SOL     OW54429   4.058  12.931  10.548
17552SOL    HW154430   4.063  12.864  10.616
17552SOL    HW254431   4.016  13.006  10.592
17553SOL     OW54432  12.733  12.983   2.633
17553SOL    HW154433  12.791  13.050   2.596
17553SOL    HW254434  12.776  12.900   2.614
17554SOL     OW54435   7.368   6.743   2.870
17554SOL    HW154436   7.345   6.766   2.960
17554SOL    HW254437   7.438   6.804   2.847
17555SOL     OW54438   5.032  11.719   8.872
17555SOL    HW154439   4.940  11.718   8.899
17555SOL    HW254440   5.031  11.766   8.788
17556SOL     OW54441  10.453   7.239   6.810
17556SOL    HW154442  10.476   7.172   6.874
17556SOL    HW254443  10.430   7.315   6.863
17557SOL     OW54444   8.184   6.715   8.930
17557SOL    HW154445   8.228   6.779   8.874
17557SOL    HW254446   8.224   6.726   9.016
17558SOL     OW54447   1.912   3.047   8.665
17558SOL    HW154448   1.894   3.082   8.752
17558SOL    HW254449   1.918   3.125   8.609
17559SOL     OW54450   1.362   8.940   8.045
17559SOL    HW154451   1.393   8.882   7.976
17559SOL    HW254452   1.312   9.007   7.999
17560SOL     OW54453   7.764  10.404   0.276
17560SOL    HW154454   7.741  10.444   0.192
17560SOL    HW254455   7.683  10.365   0.307
17561SOL     OW54456   8.684  11.254   8.327
17561SOL    HW154457   8.596  11.237   8.363
17561SOL    HW254458   8.709  11.171   8.287
17562SOL     OW54459  10.576   6.827   3.612
17562SOL    HW154460  10.544   6.917   3.615
17562SOL    HW254461  10.528   6.782   3.681
17563SOL     OW54462   4.400  14.161   6.402
17563SOL    HW154463   4.354  14.143   6.484
17563SOL    HW254464   4.493  14.150   6.423
17564SOL     OW54465   0.082   1.530   5.621
17564SOL    HW154466   0.118   1.590   5.556
17564SOL    HW254467   0.081   1.581   5.702
17565SOL     OW54468   2.023   0.278  12.108
17565SOL    HW154469   2.082   0.226  12.162
17565SOL    HW254470   1.967   0.213  12.065
17566SOL     OW54471   0.208   2.832   7.941
17566SOL    HW154472   0.223   2.923   7.964
17566SOL    HW254473   0.277   2.784   7.987
17567SOL     OW54474   3.443  10.037   4.529
17567SOL    HW154475   3.512  10.027   4.464
17567SOL    HW254476   3.480  10.001   4.610
17568SOL     OW54477   5.759   5.470  14.227
17568SOL    HW154478   5.759   5.380  14.261
17568SOL    HW254479   5.666   5.492  14.220
17569SOL     OW54480  14.273  11.776   2.463
17569SOL    HW154481  14.190  11.820   2.445
17569SOL    HW254482  14.295  11.732   2.381
17570SOL     OW54483  11.951  10.275   2.914
17570SOL    HW154484  12.044  10.254   2.910
17570SOL    HW254485  11.928  10.302   2.825
17571SOL     OW54486  13.317  10.608   0.007
17571SOL    HW154487  13.234  10.653  14.870
17571SOL    HW254488  13.293  10.518   0.029
17572SOL     OW54489   8.255  11.678   7.109
17572SOL    HW154490   8.246  11.767   7.077
17572SOL    HW254491   8.237  11.623   7.032
17573SOL     OW54492  12.487  13.948   2.090
17573SOL    HW154493  12.466  13.999   2.168
17573SOL    HW254494  12.558  13.997   2.048
17574SOL     OW54495  11.514   5.744   0.898
17574SOL    HW154496  11.565   5.679   0.849
17574SOL    HW254497  11.560   5.752   0.982
17575SOL     OW54498   5.475   7.291   1.168
17575SOL    HW154499   5.560   7.335   1.156
17575SOL    HW254500   5.480   7.215   1.110
17576SOL     OW54501   8.452  10.060   9.675
17576SOL    HW154502   8.539  10.022   9.671
17576SOL    HW254503   8.397   9.990   9.711
17577SOL     OW54504   3.472   0.183  14.486
17577SOL    HW154505   3.543   0.213  14.428
17577SOL    HW254506   3.487   0.230  14.568
17578SOL     OW54507   0.785   9.727   2.466
17578SOL    HW154508   0.827   9.699   2.547
17578SOL    HW254509   0.837   9.686   2.397
17579SOL     OW54510   4.534   8.584   3.887
17579SOL    HW154511   4.474   8.512   3.907
17579SOL    HW254512   4.498   8.623   3.807
17580SOL     OW54513   0.338  14.450   1.401
17580SOL    HW154514   0.368  14.437   1.491
17580SOL    HW254515   0.351  14.544   1.385
17581SOL     OW54516   3.675   4.985   8.911
17581SOL    HW154517   3.642   5.040   8.840
17581SOL    HW254518   3.654   4.895   8.884
17582SOL     OW54519  12.561   7.920   7.102
17582SOL    HW154520  12.549   8.014   7.112
17582SOL    HW254521  12.507   7.882   7.172
17583SOL     OW54522   1.495   3.498   7.125
17583SOL    HW154523   1.456   3.437   7.062
17583SOL    HW254524   1.442   3.577   7.120
17584SOL     OW54525   8.838   2.421   1.552
17584SOL    HW154526   8.927   2.455   1.557
17584SOL    HW254527   8.837   2.347   1.613
17585SOL     OW54528  14.814   1.613   6.490
17585SOL    HW154529   0.014   1.643   6.443
17585SOL    HW254530  14.812   1.518   6.475
17586SOL     OW54531   2.207   4.094   1.470
17586SOL    HW154532   2.244   4.090   1.558
17586SOL    HW254533   2.257   4.029   1.420
17587SOL     OW54534   6.721  11.285   4.353
17587SOL    HW154535   6.788  11.261   4.416
17587SOL    HW254536   6.761  11.266   4.267
17588SOL     OW54537   8.372   0.457   9.174
17588SOL    HW154538   8.283   0.432   9.150
17588SOL    HW254539   8.371   0.553   9.172
17589SOL     OW54540  12.746  11.440  12.602
17589SOL    HW154541  12.797  11.376  12.652
17589SOL    HW254542  12.745  11.406  12.513
17590SOL     OW54543  11.557  11.471  12.347
17590SOL    HW154544  11.587  11.548  12.395
17590SOL    HW254545  11.566  11.494  12.255
17591SOL     OW54546   1.715   1.243   0.946
17591SOL    HW154547   1.670   1.260   0.863
17591SOL    HW254548   1.798   1.289   0.938
17592SOL     OW54549   0.482  11.242  13.875
17592SOL    HW154550   0.510  11.204  13.959
17592SOL    HW254551   0.421  11.312  13.900
17593SOL     OW54552   3.438   6.916  14.625
17593SOL    HW154553   3.530   6.938  14.641
17593SOL    HW254554   3.392   6.948  14.702
17594SOL     OW54555   3.445   2.573   4.619
17594SOL    HW154556   3.540   2.583   4.623
17594SOL    HW254557   3.413   2.658   4.586
17595SOL     OW54558   0.689   6.894  13.073
17595SOL    HW154559   0.627   6.823  13.054
17595SOL    HW254560   0.767   6.871  13.022
17596SOL     OW54561   2.876  13.082   3.998
17596SOL    HW154562   2.884  12.990   4.022
17596SOL    HW254563   2.950  13.099   3.941
17597SOL     OW54564  14.093  13.033  11.130
17597SOL    HW154565  14.155  13.099  11.161
17597SOL    HW254566  14.046  13.004  11.208
17598SOL     OW54567  13.010   9.966   6.418
17598SOL    HW154568  13.072  10.039   6.417
17598SOL    HW254569  13.017   9.928   6.330
17599SOL     OW54570   4.038   1.546   8.533
17599SOL    HW154571   4.070   1.457   8.515
17599SOL    HW254572   4.036   1.588   8.447
17600SOL     OW54573  11.758   3.558   8.486
17600SOL    HW154574  11.839   3.581   8.441
17600SOL    HW254575  11.736   3.637   8.536
17601SOL     OW54576   0.388   9.692  12.939
17601SOL    HW154577   0.451   9.691  13.011
17601SOL    HW254578   0.440   9.715  12.862
17602SOL     OW54579   4.476   8.966   3.270
17602SOL    HW154580   4.544   8.923   3.321
17602SOL    HW254581   4.521   9.002   3.194
17603SOL     OW54582  10.171   1.125   7.508
17603SOL    HW154583  10.221   1.114   7.427
17603SOL    HW254584  10.080   1.131   7.479
17604SOL     OW54585  10.490   2.991   3.725
17604SOL    HW154586  10.493   3.070   3.669
17604SOL    HW254587  10.473   3.025   3.813
17605SOL     OW54588   1.810   1.508  10.670
17605SOL    HW154589   1.880   1.514  10.734
17605SOL    HW254590   1.740   1.563  10.706
17606SOL     OW54591   2.113   1.688   7.437
17606SOL    HW154592   2.118   1.757   7.503
17606SOL    HW254593   2.193   1.699   7.385
17607SOL     OW54594  12.638   1.666   5.475
17607SOL    HW154595  12.652   1.586   5.525
17607SOL    HW254596  12.691   1.654   5.396
17608SOL     OW54597  11.950   0.982   4.640
17608SOL    HW154598  11.934   0.959   4.549
17608SOL    HW254599  11.863   0.989   4.679
17609SOL     OW54600  12.937  11.132   6.875
17609SOL    HW154601  12.961  11.225   6.883
17609SOL    HW254602  13.018  11.085   6.895
17610SOL     OW54603  12.902   0.267   7.971
17610SOL    HW154604  12.808   0.263   7.982
17610SOL    HW254605  12.919   0.356   7.939
17611SOL     OW54606   9.225  11.406  14.519
17611SOL    HW154607   9.233  11.336  14.454
17611SOL    HW254608   9.206  11.484  14.466
17612SOL     OW54609  13.098  12.499   1.682
17612SOL    HW154610  13.136  12.430   1.628
17612SOL    HW254611  13.006  12.503   1.655
17613SOL     OW54612   0.981   4.599  11.827
17613SOL    HW154613   0.896   4.581  11.786
17613SOL    HW254614   1.040   4.615  11.754
17614SOL     OW54615  14.766   5.499   2.843
17614SOL    HW154616  14.720   5.415   2.838
17614SOL    HW254617  14.799   5.513   2.754
17615SOL     OW54618   9.710   6.659   5.959
17615SOL    HW154619   9.803   6.636   5.966
17615SOL    HW254620   9.665   6.595   6.014
17616SOL     OW54621  13.134  13.443   0.061
17616SOL    HW154622  13.127  13.529   0.102
17616SOL    HW254623  13.208  13.452   0.001
17617SOL     OW54624   8.856   5.707   7.566
17617SOL    HW154625   8.897   5.666   7.490
17617SOL    HW254626   8.852   5.800   7.544
17618SOL     OW54627  12.781  14.556   0.846
17618SOL    HW154628  12.849  14.615   0.813
17618SOL    HW254629  12.729  14.610   0.905
17619SOL     OW54630   3.015  13.368  14.137
17619SOL    HW154631   2.952  13.323  14.082
17619SOL    HW254632   3.062  13.298  14.183
17620SOL     OW54633   8.288  13.877  14.634
17620SOL    HW154634   8.242  13.932  14.570
17620SOL    HW254635   8.372  13.857  14.592
17621SOL     OW54636   9.649  12.638  12.734
17621SOL    HW154637   9.691  12.717  12.767
17621SOL    HW254638   9.607  12.599  12.811
17622SOL     OW54639   3.496   2.128   4.065
17622SOL    HW154640   3.404   2.112   4.046
17622SOL    HW254641   3.535   2.041   4.070
17623SOL     OW54642  11.200   7.666  11.395
17623SOL    HW154643  11.253   7.700  11.466
17623SOL    HW254644  11.188   7.740  11.336
17624SOL     OW54645   2.314   7.689  10.710
17624SOL    HW154646   2.272   7.672  10.625
17624SOL    HW254647   2.260   7.642  10.773
17625SOL     OW54648   6.594   7.249   3.376
17625SOL    HW154649   6.519   7.285   3.328
17625SOL    HW254650   6.660   7.318   3.372
17626SOL     OW54651  13.551   1.918  11.359
17626SOL    HW154652  13.528   1.879  11.275
17626SOL    HW254653  13.478   1.977  11.379
17627SOL     OW54654  10.796  12.075   4.454
17627SOL    HW154655  10.731  12.137   4.423
17627SOL    HW254656  10.789  12.000   4.394
17628SOL     OW54657   0.957  12.475  13.319
17628SOL    HW154658   0.965  12.450  13.227
17628SOL    HW254659   0.941  12.392  13.365
17629SOL     OW54660   7.706   7.921   2.856
17629SOL    HW154661   7.650   7.847   2.879
17629SOL    HW254662   7.794   7.885   2.857
17630SOL     OW54663   4.143  13.551   2.163
17630SOL    HW154664   4.229  13.592   2.166
17630SOL    HW254665   4.141  13.495   2.241
17631SOL     OW54666   1.826  12.256   1.235
17631SOL    HW154667   1.916  12.227   1.222
17631SOL    HW254668   1.813  12.255   1.330
17632SOL     OW54669   7.094  13.607  14.045
17632SOL    HW154670   7.024  13.670  14.029
17632SOL    HW254671   7.144  13.606  13.963
17633SOL     OW54672   2.074  13.148   1.392
17633SOL    HW154673   2.076  13.078   1.457
17633SOL    HW254674   2.160  13.189   1.398
17634SOL     OW54675   4.462  12.517   8.136
17634SOL    HW154676   4.491  12.436   8.179
17634SOL    HW254677   4.368  12.520   8.152
17635SOL     OW54678  11.385   9.422   0.733
17635SOL    HW154679  11.377   9.489   0.665
17635SOL    HW254680  11.479   9.414   0.748
17636SOL     OW54681   5.924   7.449  14.090
17636SOL    HW154682   5.976   7.452  14.170
17636SOL    HW254683   5.833   7.456  14.121
17637SOL     OW54684   9.171  10.939  10.377
17637SOL    HW154685   9.184  11.012  10.317
17637SOL    HW254686   9.106  10.883  10.334
17638SOL     OW54687   1.602   0.733   4.640
17638SOL    HW154688   1.624   0.767   4.727
17638SOL    HW254689   1.684   0.701   4.604
17639SOL     OW54690   5.228   7.538  10.682
17639SOL    HW154691   5.175   7.580  10.750
17639SOL    HW254692   5.315   7.532  10.720
17640SOL     OW54693   9.718  12.507  11.776
17640SOL    HW154694   9.712  12.541  11.687
17640SOL    HW254695   9.811  12.507  11.795
17641SOL     OW54696   9.600  14.505   3.221
17641SOL    HW154697   9.611  14.578   3.159
17641SOL    HW254698   9.511  14.474   3.205
17642SOL     OW54699   2.236   5.910   2.753
17642SOL    HW154700   2.180   5.840   2.717
17642SOL    HW254701   2.294   5.865   2.815
17643SOL     OW54702  12.578  10.840  11.855
17643SOL    HW154703  12.632  10.803  11.785
17643SOL    HW254704  12.488  10.836  11.822
17644SOL     OW54705   6.866   6.597  14.606
17644SOL    HW154706   6.817   6.526  14.649
17644SOL    HW254707   6.798   6.654  14.571
17645SOL     OW54708  13.858   6.415  11.581
17645SOL    HW154709  13.920   6.487  11.568
17645SOL    HW254710  13.893   6.344  11.528
17646SOL     OW54711  12.842   2.144   5.207
17646SOL    HW154712  12.804   2.097   5.281
17646SOL    HW254713  12.873   2.227   5.245
17647SOL     OW54714   0.666   1.575  13.172
17647SOL    HW154715   0.596   1.512  13.185
17647SOL    HW254716   0.691   1.565  13.080
17648SOL     OW54717   1.210   7.213  14.469
17648SOL    HW154718   1.125   7.190  14.432
17648SOL    HW254719   1.190   7.267  14.545
17649SOL     OW54720   3.019   5.735  11.248
17649SOL    HW154721   2.984   5.677  11.180
17649SOL    HW254722   2.941   5.769  11.292
17650SOL     OW54723   1.352   8.313  10.257
17650SOL    HW154724   1.328   8.406  10.265
17650SOL    HW254725   1.364   8.284  10.348
17651SOL     OW54726   2.441  10.280   9.679
17651SOL    HW154727   2.349  10.269   9.653
17651SOL    HW254728   2.460  10.203   9.732
17652SOL     OW54729   5.242  11.936   3.006
17652SOL    HW154730   5.212  12.021   3.040
17652SOL    HW254731   5.327  11.923   3.048
17653SOL     OW54732  13.650   3.176  12.013
17653SOL    HW154733  13.556   3.172  11.995
17653SOL    HW254734  13.692   3.169  11.928
17654SOL     OW54735   9.526   2.808   1.174
17654SOL    HW154736   9.465   2.747   1.134
17654SOL    HW254737   9.473   2.861   1.233
17655SOL     OW54738  10.966   4.864  10.702
17655SOL    HW154739  10.977   4.777  10.741
17655SOL    HW254740  10.888   4.855  10.647
17656SOL     OW54741   4.116   5.664  14.477
17656SOL    HW154742   4.151   5.580  14.448
17656SOL    HW254743   4.023   5.660  14.456
17657SOL     OW54744  14.007   3.803   9.924
17657SOL    HW154745  14.054   3.874   9.968
17657SOL    HW254746  14.015   3.822   9.831
17658SOL     OW54747   8.981   5.204  14.437
17658SOL    HW154748   8.959   5.270  14.371
17658SOL    HW254749   9.054   5.242  14.485
17659SOL     OW54750  12.222  12.109   3.379
17659SOL    HW154751  12.196  12.116   3.287
17659SOL    HW254752  12.274  12.188   3.395
17660SOL     OW54753   0.930  11.191   4.486
17660SOL    HW154754   1.017  11.223   4.511
17660SOL    HW254755   0.931  11.190   4.390
17661SOL     OW54756   2.175   2.990   0.090
17661SOL    HW154757   2.233   3.061   0.119
17661SOL    HW254758   2.225   2.943   0.023
17662SOL     OW54759  10.549  13.523  13.283
17662SOL    HW154760  10.526  13.520  13.190
17662SOL    HW254761  10.476  13.481  13.327
17663SOL     OW54762   1.972  13.991   9.296
17663SOL    HW154763   2.063  14.020   9.302
17663SOL    HW254764   1.922  14.062   9.336
17664SOL     OW54765   0.501   6.640   3.077
17664SOL    HW154766   0.588   6.608   3.053
17664SOL    HW254767   0.440   6.586   3.027
17665SOL     OW54768   5.212   7.851   7.307
17665SOL    HW154769   5.253   7.919   7.252
17665SOL    HW254770   5.254   7.861   7.392
17666SOL     OW54771   0.488  14.773   6.481
17666SOL    HW154772   0.438  14.711   6.427
17666SOL    HW254773   0.444  14.857   6.468
17667SOL     OW54774   6.665   9.336   2.041
17667SOL    HW154775   6.631   9.272   1.979
17667SOL    HW254776   6.706   9.403   1.987
17668SOL     OW54777  13.620   0.104   4.000
17668SOL    HW154778  13.659   0.023   3.966
17668SOL    HW254779  13.664   0.118   4.084
17669SOL     OW54780   1.218   1.064   3.607
17669SOL    HW154781   1.304   1.106   3.602
17669SOL    HW254782   1.191   1.076   3.698
17670SOL     OW54783   2.517   2.625  11.197
17670SOL    HW154784   2.571   2.569  11.142
17670SOL    HW254785   2.428   2.593  11.184
17671SOL     OW54786   6.884   1.780   8.874
17671SOL    HW154787   6.938   1.791   8.952
17671SOL    HW254788   6.838   1.697   8.888
17672SOL     OW54789  12.031   8.447  14.042
17672SOL    HW154790  11.947   8.405  14.024
17672SOL    HW254791  12.010   8.540  14.050
17673SOL     OW54792   3.822  12.414   1.253
17673SOL    HW154793   3.849  12.341   1.197
17673SOL    HW254794   3.892  12.422   1.317
17674SOL     OW54795   6.774   3.650  13.078
17674SOL    HW154796   6.733   3.686  12.999
17674SOL    HW254797   6.701   3.635  13.138
17675SOL     OW54798  10.793   1.828   9.296
17675SOL    HW154799  10.832   1.744   9.321
17675SOL    HW254800  10.868   1.886   9.282
17676SOL     OW54801   9.246   2.711   4.234
17676SOL    HW154802   9.236   2.698   4.328
17676SOL    HW254803   9.158   2.731   4.202
17677SOL     OW54804   4.144  11.723   7.225
17677SOL    HW154805   4.113  11.695   7.311
17677SOL    HW254806   4.165  11.815   7.236
17678SOL     OW54807   8.112  10.244  12.538
17678SOL    HW154808   8.090  10.313  12.600
17678SOL    HW254809   8.055  10.171  12.563
17679SOL     OW54810  10.867   1.237  12.358
17679SOL    HW154811  10.845   1.319  12.403
17679SOL    HW254812  10.838   1.252  12.268
17680SOL     OW54813  11.319  14.116   2.069
17680SOL    HW154814  11.316  14.028   2.032
17680SOL    HW254815  11.395  14.114   2.127
17681SOL     OW54816   3.385   7.794   2.940
17681SOL    HW154817   3.418   7.705   2.923
17681SOL    HW254818   3.320   7.783   3.010
17682SOL     OW54819  11.341   6.805  12.747
17682SOL    HW154820  11.250   6.832  12.762
17682SOL    HW254821  11.355   6.733  12.809
17683SOL     OW54822  14.638  12.335  12.009
17683SOL    HW154823  14.573  12.328  12.080
17683SOL    HW254824  14.610  12.412  11.959
17684SOL     OW54825  13.021   4.677   4.053
17684SOL    HW154826  13.086   4.636   3.996
17684SOL    HW254827  13.047   4.651   4.142
17685SOL     OW54828  13.776   4.704   0.261
17685SOL    HW154829  13.736   4.790   0.274
17685SOL    HW254830  13.797   4.702   0.168
17686SOL     OW54831   3.880  12.972   7.605
17686SOL    HW154832   3.826  13.047   7.631
17686SOL    HW254833   3.842  12.898   7.651
17687SOL     OW54834   2.091   4.704   1.766
17687SOL    HW154835   2.123   4.698   1.676
17687SOL    HW254836   2.058   4.793   1.774
17688SOL     OW54837   3.213   3.043  13.153
17688SOL    HW154838   3.154   2.984  13.200
17688SOL    HW254839   3.278   3.068  13.218
17689SOL     OW54840   1.144  12.189   2.022
17689SOL    HW154841   1.226  12.216   2.063
17689SOL    HW254842   1.083  12.177   2.095
17690SOL     OW54843  12.596   4.484   8.186
17690SOL    HW154844  12.502   4.467   8.198
17690SOL    HW254845  12.603   4.579   8.186
17691SOL     OW54846   9.758   6.394  13.712
17691SOL    HW154847   9.696   6.373  13.781
17691SOL    HW254848   9.835   6.427  13.758
17692SOL     OW54849   8.786   1.846   5.409
17692SOL    HW154850   8.748   1.806   5.487
17692SOL    HW254851   8.872   1.878   5.438
17693SOL     OW54852   0.897   7.954  11.018
17693SOL    HW154853   0.957   7.943  11.092
17693SOL    HW254854   0.838   8.024  11.045
17694SOL     OW54855   5.911   4.177   4.825
17694SOL    HW154856   5.975   4.218   4.882
17694SOL    HW254857   5.834   4.164   4.880
17695SOL     OW54858   0.322   6.222   1.625
17695SOL    HW154859   0.385   6.251   1.559
17695SOL    HW254860   0.308   6.299   1.679
17696SOL     OW54861   7.315  14.122   1.966
17696SOL    HW154862   7.232  14.167   1.979
17696SOL    HW254863   7.379  14.175   2.015
17697SOL     OW54864   5.403   4.788  10.865
17697SOL    HW154865   5.332   4.803  10.803
17697SOL    HW254866   5.403   4.694  10.881
17698SOL     OW54867  13.029   8.337   9.604
17698SOL    HW154868  12.961   8.304   9.544
17698SOL    HW254869  13.029   8.275   9.676
17699SOL     OW54870   9.677  13.728   6.219
17699SOL    HW154871   9.675  13.653   6.278
17699SOL    HW254872   9.766  13.726   6.181
17700SOL     OW54873   0.528  10.322   4.551
17700SOL    HW154874   0.576  10.239   4.545
17700SOL    HW254875   0.541  10.350   4.641
17701SOL     OW54876   0.527   9.927   9.905
17701SOL    HW154877   0.596   9.970   9.956
17701SOL    HW254878   0.513   9.984   9.830
17702SOL     OW54879   7.655  12.871  11.943
17702SOL    HW154880   7.586  12.931  11.970
17702SOL    HW254881   7.725  12.885  12.007
17703SOL     OW54882  13.621   8.838   0.903
17703SOL    HW154883  13.627   8.743   0.911
17703SOL    HW254884  13.529   8.858   0.922
17704SOL     OW54885   3.364  13.246  13.320
17704SOL    HW154886   3.398  13.289  13.242
17704SOL    HW254887   3.391  13.155  13.311
17705SOL     OW54888   3.124   2.919   3.957
17705SOL    HW154889   3.077   2.993   3.995
17705SOL    HW254890   3.206   2.915   4.006
17706SOL     OW54891  12.980  14.333   4.834
17706SOL    HW154892  12.978  14.307   4.742
17706SOL    HW254893  12.952  14.424   4.834
17707SOL     OW54894   0.066   9.079   9.743
17707SOL    HW154895   0.001   9.141   9.776
17707SOL    HW254896   0.022   8.995   9.743
17708SOL     OW54897   9.893  12.186   8.833
17708SOL    HW154898   9.845  12.255   8.786
17708SOL    HW254899   9.985  12.213   8.827
17709SOL     OW54900   0.304  11.852   4.228
17709SOL    HW154901   0.241  11.782   4.215
17709SOL    HW254902   0.285  11.887   4.315
17710SOL     OW54903   3.060  10.061  12.117
17710SOL    HW154904   3.077   9.973  12.084
17710SOL    HW254905   3.144  10.089  12.155
17711SOL     OW54906   4.538  13.446   6.317
17711SOL    HW154907   4.484  13.481   6.388
17711SOL    HW254908   4.540  13.516   6.252
17712SOL     OW54909  10.813   6.675  10.488
17712SOL    HW154910  10.859   6.593  10.504
17712SOL    HW254911  10.724   6.659  10.520
17713SOL     OW54912   3.392  10.557   3.024
17713SOL    HW154913   3.308  10.548   3.069
17713SOL    HW254914   3.443  10.481   3.052
17714SOL     OW54915   8.234   6.682   6.456
17714SOL    HW154916   8.246   6.596   6.417
17714SOL    HW254917   8.149   6.678   6.499
17715SOL     OW54918   4.241   8.443   0.423
17715SOL    HW154919   4.281   8.494   0.353
17715SOL    HW254920   4.208   8.364   0.379
17716SOL     OW54921   6.804   2.863  13.293
17716SOL    HW154922   6.856   2.797  13.247
17716SOL    HW254923   6.731   2.881  13.234
17717SOL     OW54924  10.412   8.778   3.571
17717SOL    HW154925  10.467   8.704   3.597
17717SOL    HW254926  10.322   8.745   3.576
17718SOL     OW54927   8.104   9.483  12.949
17718SOL    HW154928   8.015   9.454  12.972
17718SOL    HW254929   8.106   9.575  12.975
17719SOL     OW54930  12.588  10.934   1.924
17719SOL    HW154931  12.629  10.848   1.931
17719SOL    HW254932  12.496  10.915   1.902
17720SOL     OW54933   8.715   9.356  13.280
17720SOL    HW154934   8.756   9.399  13.355
17720SOL    HW254935   8.698   9.267  13.310
17721SOL     OW54936   6.967   5.184  13.522
17721SOL    HW154937   6.897   5.210  13.461
17721SOL    HW254938   7.012   5.112  13.478
17722SOL     OW54939   8.970  12.574   9.189
17722SOL    HW154940   8.944  12.664   9.209
17722SOL    HW254941   9.063  12.580   9.169
17723SOL     OW54942  13.394   5.710   3.192
17723SOL    HW154943  13.325   5.654   3.156
17723SOL    HW254944  13.374   5.797   3.159
17724SOL     OW54945  10.339   9.474   3.377
17724SOL    HW154946  10.249   9.444   3.361
17724SOL    HW254947  10.334   9.519   3.461
17725SOL     OW54948   1.169  11.879   3.268
17725SOL    HW154949   1.177  11.863   3.174
17725SOL    HW254950   1.196  11.970   3.280
17726SOL     OW54951   0.458   9.276   7.638
17726SOL    HW154952   0.544   9.269   7.680
17726SOL    HW254953   0.397   9.237   7.701
17727SOL     OW54954   4.257   5.086   2.636
17727SOL    HW154955   4.164   5.099   2.649
17727SOL    HW254956   4.263   5.012   2.574
17728SOL     OW54957   1.358  11.355   8.274
17728SOL    HW154958   1.413  11.362   8.196
17728SOL    HW254959   1.418  11.328   8.344
17729SOL     OW54960   7.004   3.507  10.367
17729SOL    HW154961   6.992   3.531  10.275
17729SOL    HW254962   7.033   3.588  10.409
17730SOL     OW54963   8.562   4.816   4.463
17730SOL    HW154964   8.490   4.793   4.522
17730SOL    HW254965   8.525   4.809   4.375
17731SOL     OW54966   1.006   9.296  10.230
17731SOL    HW154967   1.062   9.330  10.299
17731SOL    HW254968   1.058   9.305  10.150
17732SOL     OW54969  10.392   2.910   3.476
17732SOL    HW154970  10.298   2.920   3.491
17732SOL    HW254971  10.432   2.936   3.559
17733SOL     OW54972  13.939  13.863   5.370
17733SOL    HW154973  13.973  13.842   5.457
17733SOL    HW254974  13.998  13.929   5.336
17734SOL     OW54975   8.089  10.304  14.083
17734SOL    HW154976   8.108  10.373  14.019
17734SOL    HW254977   8.114  10.341  14.167
17735SOL     OW54978  13.417  11.423   9.863
17735SOL    HW154979  13.507  11.424   9.832
17735SOL    HW254980  13.424  11.420   9.959
17736SOL     OW54981   9.688  13.019  10.860
17736SOL    HW154982   9.668  12.973  10.942
17736SOL    HW254983   9.624  13.091  10.857
17737SOL     OW54984   4.582  13.440   7.249
17737SOL    HW154985   4.586  13.372   7.181
17737SOL    HW254986   4.491  13.467   7.250
17738SOL     OW54987   9.112  14.553   6.860
17738SOL    HW154988   9.086  14.521   6.774
17738SOL    HW254989   9.035  14.537   6.915
17739SOL     OW54990  13.012   9.350   4.406
17739SOL    HW154991  13.004   9.425   4.464
17739SOL    HW254992  13.068   9.288   4.452
17740SOL     OW54993   9.057   1.151  14.805
17740SOL    HW154994   9.035   1.244  14.811
17740SOL    HW254995   9.109   1.143  14.725
17741SOL     OW54996   7.423   3.281   3.097
17741SOL    HW154997   7.463   3.198   3.124
17741SOL    HW254998   7.410   3.271   3.002
17742SOL     OW54999  14.773   3.723  10.158
17742SOL    HW155000  14.710   3.773  10.106
17742SOL    HW255001  14.774   3.766  10.243
17743SOL     OW55002   6.227   8.263   0.720
17743SOL    HW155003   6.215   8.210   0.641
17743SOL    HW255004   6.318   8.294   0.714
17744SOL     OW55005  10.628   7.676   1.934
17744SOL    HW155006  10.583   7.701   2.015
17744SOL    HW255007  10.591   7.591   1.912
17745SOL     OW55008  13.199   6.235   3.766
17745SOL    HW155009  13.225   6.154   3.810
17745SOL    HW255010  13.153   6.205   3.688
17746SOL     OW55011   2.033  11.471  13.976
17746SOL    HW155012   2.063  11.381  13.962
17746SOL    HW255013   2.062  11.519  13.898
17747SOL     OW55014   6.721   7.665   6.198
17747SOL    HW155015   6.691   7.683   6.109
17747SOL    HW255016   6.743   7.572   6.198
17748SOL     OW55017  14.451   5.825   6.517
17748SOL    HW155018  14.435   5.838   6.423
17748SOL    HW255019  14.393   5.752   6.541
17749SOL     OW55020   3.501   0.047   9.129
17749SOL    HW155021   3.563   0.118   9.145
17749SOL    HW255022   3.522  14.859   9.196
17750SOL     OW55023   5.331   1.962  12.043
17750SOL    HW155024   5.322   1.899  12.115
17750SOL    HW255025   5.412   1.936  11.999
17751SOL     OW55026  14.193  11.694   9.802
17751SOL    HW155027  14.265  11.671   9.743
17751SOL    HW255028  14.151  11.611   9.822
17752SOL     OW55029   2.948  11.982   8.945
17752SOL    HW155030   3.033  11.939   8.945
17752SOL    HW255031   2.885  11.910   8.950
17753SOL     OW55032  10.661   5.639   7.160
17753SOL    HW155033  10.636   5.731   7.153
17753SOL    HW255034  10.583   5.591   7.132
17754SOL     OW55035   6.643  11.059   7.772
17754SOL    HW155036   6.621  10.982   7.825
17754SOL    HW255037   6.735  11.047   7.750
17755SOL     OW55038   3.277   6.475   1.479
17755SOL    HW155039   3.293   6.390   1.437
17755SOL    HW255040   3.308   6.540   1.416
17756SOL     OW55041   9.626   4.967  14.283
17756SOL    HW155042   9.597   5.016  14.360
17756SOL    HW255043   9.676   4.894  14.318
17757SOL     OW55044   7.554   8.764   7.222
17757SOL    HW155045   7.530   8.772   7.315
17757SOL    HW255046   7.545   8.670   7.204
17758SOL     OW55047   4.211   7.994   5.578
17758SOL    HW155048   4.288   8.049   5.598
17758SOL    HW255049   4.138   8.055   5.578
17759SOL     OW55050  13.967  10.144   7.245
17759SOL    HW155051  14.025  10.174   7.175
17759SOL    HW255052  13.971  10.049   7.241
17760SOL     OW55053  14.631  12.491   0.638
17760SOL    HW155054  14.591  12.521   0.719
17760SOL    HW255055  14.659  12.570   0.593
17761SOL     OW55056  12.645   0.033   4.210
17761SOL    HW155057  12.588   0.003   4.139
17761SOL    HW255058  12.733   0.029   4.174
17762SOL     OW55059  10.764   0.199  14.660
17762SOL    HW155060  10.720   0.253  14.726
17762SOL    HW255061  10.833   0.154  14.708
17763SOL     OW55062   0.218   4.530   6.163
17763SOL    HW155063   0.295   4.537   6.107
17763SOL    HW255064   0.153   4.486   6.108
17764SOL     OW55065  13.515  13.858  13.237
17764SOL    HW155066  13.493  13.784  13.294
17764SOL    HW255067  13.556  13.922  13.294
17765SOL     OW55068   4.128   8.693  11.848
17765SOL    HW155069   4.156   8.753  11.916
17765SOL    HW255070   4.185   8.617  11.858
17766SOL     OW55071   6.557   7.154   0.934
17766SOL    HW155072   6.561   7.240   0.892
17766SOL    HW255073   6.511   7.169   1.016
17767SOL     OW55074  14.605  11.958  14.840
17767SOL    HW155075  14.555  11.997  14.768
17767SOL    HW255076  14.604  12.025   0.031
17768SOL     OW55077  13.650   8.371  12.814
17768SOL    HW155078  13.601   8.297  12.850
17768SOL    HW255079  13.736   8.333  12.792
17769SOL     OW55080   9.428   2.071   7.636
17769SOL    HW155081   9.479   2.012   7.581
17769SOL    HW255082   9.386   2.131   7.573
17770SOL     OW55083  14.590   0.238   6.168
17770SOL    HW155084  14.507   0.226   6.122
17770SOL    HW255085  14.599   0.160   6.222
17771SOL     OW55086   0.051  10.892   1.245
17771SOL    HW155087  14.866  10.821   1.263
17771SOL    HW255088   0.107  10.857   1.176
17772SOL     OW55089   6.226   7.638  11.694
17772SOL    HW155090   6.256   7.581  11.765
17772SOL    HW255091   6.187   7.578  11.630
17773SOL     OW55092   8.924   4.546   9.097
17773SOL    HW155093   8.943   4.589   9.180
17773SOL    HW255094   9.003   4.496   9.077
17774SOL     OW55095   7.619   9.255  13.303
17774SOL    HW155096   7.706   9.278  13.337
17774SOL    HW255097   7.601   9.169  13.340
17775SOL     OW55098   0.256   5.165   7.820
17775SOL    HW155099   0.197   5.234   7.790
17775SOL    HW255100   0.202   5.087   7.825
17776SOL     OW55101  10.569   7.091  13.782
17776SOL    HW155102  10.576   7.185  13.802
17776SOL    HW255103  10.597   7.048  13.863
17777SOL     OW55104  13.030  11.286  11.833
17777SOL    HW155105  12.952  11.323  11.875
17777SOL    HW255106  12.996  11.236  11.759
17778SOL     OW55107  11.536  13.690  13.381
17778SOL    HW155108  11.552  13.616  13.323
17778SOL    HW255109  11.621  13.709  13.420
17779SOL     OW55110  10.061  13.357   7.886
17779SOL    HW155111  10.009  13.338   7.808
17779SOL    HW255112  10.065  13.453   7.890
17780SOL     OW55113   2.405   4.041   8.748
17780SOL    HW155114   2.340   4.046   8.819
17780SOL    HW255115   2.412   4.131   8.716
17781SOL     OW55116   8.397  12.468   6.264
17781SOL    HW155117   8.351  12.441   6.184
17781SOL    HW255118   8.485  12.431   6.254
17782SOL     OW55119  10.341   9.628   4.270
17782SOL    HW155120  10.357   9.602   4.361
17782SOL    HW255121  10.392   9.708   4.259
17783SOL     OW55122  10.854   8.646   3.925
17783SOL    HW155123  10.770   8.656   3.880
17783SOL    HW255124  10.862   8.724   3.979
17784SOL     OW55125   8.737  12.530   1.449
17784SOL    HW155126   8.755  12.484   1.367
17784SOL    HW255127   8.786  12.481   1.515
17785SOL     OW55128   0.753  11.164  14.672
17785SOL    HW155129   0.751  11.147  14.766
17785SOL    HW255130   0.820  11.105  14.638
17786SOL     OW55131  12.940  11.816   5.135
17786SOL    HW155132  12.971  11.783   5.050
17786SOL    HW255133  12.844  11.812   5.128
17787SOL     OW55134   6.123  12.578   5.575
17787SOL    HW155135   6.178  12.504   5.550
17787SOL    HW255136   6.103  12.622   5.492
17788SOL     OW55137   5.752  11.092  13.154
17788SOL    HW155138   5.820  11.158  13.168
17788SOL    HW255139   5.713  11.079  13.240
17789SOL     OW55140   2.873  13.582   2.665
17789SOL    HW155141   2.948  13.541   2.706
17789SOL    HW255142   2.805  13.582   2.733
17790SOL     OW55143  14.682   1.261   9.708
17790SOL    HW155144  14.655   1.191   9.768
17790SOL    HW255145  14.653   1.342   9.750
17791SOL     OW55146  12.399   8.582  13.791
17791SOL    HW155147  12.470   8.518  13.789
17791SOL    HW255148  12.320   8.531  13.769
17792SOL     OW55149   9.079   9.646   2.888
17792SOL    HW155150   9.046   9.605   2.808
17792SOL    HW255151   9.096   9.573   2.947
17793SOL     OW55152  12.473   2.247  12.411
17793SOL    HW155153  12.431   2.324  12.372
17793SOL    HW255154  12.425   2.172  12.376
17794SOL     OW55155  10.958   3.918   0.862
17794SOL    HW155156  10.897   3.987   0.886
17794SOL    HW255157  10.992   3.945   0.777
17795SOL     OW55158  13.400   8.727   2.147
17795SOL    HW155159  13.353   8.658   2.099
17795SOL    HW255160  13.337   8.759   2.211
17796SOL     OW55161  10.140   4.238   0.648
17796SOL    HW155162  10.220   4.285   0.624
17796SOL    HW255163  10.164   4.146   0.643
17797SOL     OW55164   6.101  11.377   7.598
17797SOL    HW155165   6.148  11.339   7.672
17797SOL    HW255166   6.009  11.354   7.612
17798SOL     OW55167   6.570   1.322   8.151
17798SOL    HW155168   6.596   1.325   8.059
17798SOL    HW255169   6.480   1.290   8.148
17799SOL     OW55170   6.250  11.932  10.451
17799SOL    HW155171   6.246  11.956  10.358
17799SOL    HW255172   6.342  11.915  10.468
17800SOL     OW55173   9.054   6.056   2.171
17800SOL    HW155174   9.089   5.967   2.166
17800SOL    HW255175   8.973   6.053   2.119
17801SOL     OW55176  10.908  12.540  13.893
17801SOL    HW155177  10.867  12.538  13.807
17801SOL    HW255178  10.840  12.573  13.952
17802SOL     OW55179   9.599   0.380   7.606
17802SOL    HW155180   9.582   0.460   7.657
17802SOL    HW255181   9.516   0.331   7.611
17803SOL     OW55182   7.206  10.827   6.396
17803SOL    HW155183   7.246  10.751   6.438
17803SOL    HW255184   7.193  10.890   6.466
17804SOL     OW55185  11.307  11.883   5.928
17804SOL    HW155186  11.272  11.891   6.017
17804SOL    HW255187  11.236  11.843   5.878
17805SOL     OW55188   5.338   8.454  13.991
17805SOL    HW155189   5.247   8.426  13.994
17805SOL    HW255190   5.340   8.533  14.045
17806SOL     OW55191   8.302   2.370   3.875
17806SOL    HW155192   8.267   2.312   3.808
17806SOL    HW255193   8.233   2.376   3.941
17807SOL     OW55194   8.612  10.161  14.501
17807SOL    HW155195   8.532  10.144  14.551
17807SOL    HW255196   8.594  10.125  14.414
17808SOL     OW55197  12.538   7.682   2.557
17808SOL    HW155198  12.498   7.769   2.549
17808SOL    HW255199  12.625   7.693   2.519
17809SOL     OW55200  14.256  12.995   2.627
17809SOL    HW155201  14.271  12.980   2.534
17809SOL    HW255202  14.301  13.077   2.647
17810SOL     OW55203   0.713   6.768  14.087
17810SOL    HW155204   0.740   6.817  14.009
17810SOL    HW255205   0.727   6.829  14.160
17811SOL     OW55206   7.647   2.084   9.106
17811SOL    HW155207   7.578   2.090   9.040
17811SOL    HW255208   7.727   2.070   9.055
17812SOL     OW55209   9.658   1.244  11.753
17812SOL    HW155210   9.728   1.240  11.688
17812SOL    HW255211   9.640   1.152  11.774
17813SOL     OW55212   2.080   1.917  10.076
17813SOL    HW155213   2.110   1.827  10.089
17813SOL    HW255214   1.986   1.908  10.058
17814SOL     OW55215  14.716   9.122  14.640
17814SOL    HW155216  14.758   9.150  14.559
17814SOL    HW255217  14.629   9.162  14.638
17815SOL     OW55218   2.667   4.837   4.400
17815SOL    HW155219   2.669   4.872   4.489
17815SOL    HW255220   2.759   4.820   4.379
17816SOL     OW55221   0.028   0.320  11.591
17816SOL    HW155222   0.080   0.395  11.563
17816SOL    HW255223   0.081   0.277  11.658
17817SOL     OW55224  11.627   3.923   3.540
17817SOL    HW155225  11.555   3.964   3.491
17817SOL    HW255226  11.611   3.829   3.531
17818SOL     OW55227   8.984   3.967   1.812
17818SOL    HW155228   9.012   3.952   1.722
17818SOL    HW255229   9.002   4.059   1.828
17819SOL     OW55230   8.770   9.771   3.971
17819SOL    HW155231   8.737   9.690   4.009
17819SOL    HW255232   8.806   9.744   3.886
17820SOL     OW55233   0.632  12.588   9.464
17820SOL    HW155234   0.725  12.585   9.488
17820SOL    HW255235   0.592  12.520   9.518
17821SOL     OW55236   0.292  11.030  11.840
17821SOL    HW155237   0.345  11.102  11.875
17821SOL    HW255238   0.298  11.040  11.745
17822SOL     OW55239   3.782   5.674   5.559
17822SOL    HW155240   3.854   5.619   5.590
17822SOL    HW255241   3.773   5.651   5.466
17823SOL     OW55242  10.453   1.801  12.785
17823SOL    HW155243  10.389   1.764  12.845
17823SOL    HW255244  10.415   1.787  12.698
17824SOL     OW55245   1.530  13.714   1.909
17824SOL    HW155246   1.526  13.638   1.851
17824SOL    HW255247   1.480  13.782   1.864
17825SOL     OW55248  11.415   9.163   1.063
17825SOL    HW155249  11.492   9.126   1.021
17825SOL    HW255250  11.407   9.116   1.146
17826SOL     OW55251   3.990   6.062  13.939
17826SOL    HW155252   3.967   5.978  13.900
17826SOL    HW255253   4.078   6.081  13.905
17827SOL     OW55254   5.763   7.362   7.729
17827SOL    HW155255   5.670   7.354   7.750
17827SOL    HW255256   5.768   7.348   7.634
17828SOL     OW55257   4.909   2.668   2.281
17828SOL    HW155258   4.843   2.644   2.346
17828SOL    HW255259   4.886   2.757   2.254
17829SOL     OW55260   3.317  11.763   9.159
17829SOL    HW155261   3.299  11.831   9.224
17829SOL    HW255262   3.326  11.682   9.210
17830SOL     OW55263   0.198  11.773   8.659
17830SOL    HW155264   0.190  11.835   8.586
17830SOL    HW255265   0.253  11.819   8.723
17831SOL     OW55266   1.511   7.523   0.318
17831SOL    HW155267   1.557   7.454   0.270
17831SOL    HW255268   1.581   7.573   0.361
17832SOL     OW55269  10.753  12.000   6.731
17832SOL    HW155270  10.777  12.088   6.701
17832SOL    HW255271  10.830  11.947   6.713
17833SOL     OW55272   9.806   5.788   7.905
17833SOL    HW155273   9.852   5.736   7.839
17833SOL    HW255274   9.800   5.876   7.866
17834SOL     OW55275  12.855  12.736  11.770
17834SOL    HW155276  12.781  12.744  11.830
17834SOL    HW255277  12.915  12.675  11.815
17835SOL     OW55278   1.686  14.457   6.491
17835SOL    HW155279   1.744  14.529   6.515
17835SOL    HW255280   1.685  14.458   6.395
17836SOL     OW55281  10.425   5.974   9.009
17836SOL    HW155282  10.367   5.947   8.937
17836SOL    HW255283  10.512   5.977   8.969
17837SOL     OW55284  14.227  13.056  10.740
17837SOL    HW155285  14.132  13.066  10.734
17837SOL    HW255286  14.240  13.010  10.823
17838SOL     OW55287   5.735   6.685   1.705
17838SOL    HW155288   5.795   6.669   1.632
17838SOL    HW255289   5.655   6.637   1.682
17839SOL     OW55290   0.391   5.304  13.132
17839SOL    HW155291   0.398   5.211  13.108
17839SOL    HW255292   0.390   5.350  13.048
17840SOL     OW55293   5.854   8.389   8.576
17840SOL    HW155294   5.777   8.407   8.629
17840SOL    HW255295   5.882   8.476   8.545
17841SOL     OW55296  10.449   3.358   1.489
17841SOL    HW155297  10.524   3.379   1.434
17841SOL    HW255298  10.421   3.442   1.525
17842SOL     OW55299   8.371   9.161  14.737
17842SOL    HW155300   8.292   9.202  14.701
17842SOL    HW255301   8.374   9.191  14.828
17843SOL     OW55302   3.518   6.068   3.370
17843SOL    HW155303   3.582   6.136   3.348
17843SOL    HW255304   3.433   6.112   3.366
17844SOL     OW55305   2.456   6.280  14.211
17844SOL    HW155306   2.400   6.332  14.152
17844SOL    HW255307   2.399   6.211  14.243
17845SOL     OW55308   9.936   9.726  10.480
17845SOL    HW155309   9.869   9.794  10.491
17845SOL    HW255310   9.930   9.673  10.560
17846SOL     OW55311   3.636  12.669   0.243
17846SOL    HW155312   3.610  12.759   0.220
17846SOL    HW255313   3.645  12.671   0.338
17847SOL     OW55314   7.133  13.557  12.139
17847SOL    HW155315   7.192  13.626  12.168
17847SOL    HW255316   7.184  13.505  12.077
17848SOL     OW55317   1.089   3.549  12.257
17848SOL    HW155318   1.130   3.465  12.238
17848SOL    HW255319   0.998   3.539  12.230
17849SOL     OW55320  14.731   1.723  11.980
17849SOL    HW155321  14.745   1.705  12.073
17849SOL    HW255322  14.704   1.640  11.942
17850SOL     OW55323   2.314   7.748   5.273
17850SOL    HW155324   2.387   7.793   5.231
17850SOL    HW255325   2.354   7.670   5.313
17851SOL     OW55326   2.437   3.752   0.477
17851SOL    HW155327   2.388   3.789   0.404
17851SOL    HW255328   2.529   3.764   0.454
17852SOL     OW55329   9.174  11.609  10.464
17852SOL    HW155330   9.185  11.610  10.369
17852SOL    HW255331   9.122  11.530  10.481
17853SOL     OW55332  13.143   2.401  11.089
17853SOL    HW155333  13.206   2.430  11.155
17853SOL    HW255334  13.095   2.480  11.064
17854SOL     OW55335   0.592  14.032   9.666
17854SOL    HW155336   0.502  14.065   9.677
17854SOL    HW255337   0.604  14.027   9.571
17855SOL     OW55338  12.195   3.892   0.305
17855SOL    HW155339  12.138   3.834   0.255
17855SOL    HW255340  12.165   3.883   0.396
17856SOL     OW55341   0.184   3.304  13.437
17856SOL    HW155342   0.129   3.379  13.418
17856SOL    HW255343   0.271   3.330  13.407
17857SOL     OW55344  10.456   2.229   9.106
17857SOL    HW155345  10.543   2.201   9.078
17857SOL    HW255346  10.467   2.319   9.136
17858SOL     OW55347   0.176   0.926   7.616
17858SOL    HW155348   0.132   0.878   7.545
17858SOL    HW255349   0.264   0.943   7.583
17859SOL     OW55350   4.465   6.954   7.245
17859SOL    HW155351   4.505   6.950   7.332
17859SOL    HW255352   4.439   7.046   7.235
17860SOL     OW55353   9.074   2.461  13.334
17860SOL    HW155354   8.989   2.477  13.293
17860SOL    HW255355   9.069   2.506  13.418
17861SOL     OW55356  14.288   9.937   4.518
17861SOL    HW155357  14.229   9.872   4.479
17861SOL    HW255358  14.369   9.890   4.533
17862SOL     OW55359  14.572   6.792  12.710
17862SOL    HW155360  14.578   6.697  12.720
17862SOL    HW255361  14.591   6.826  12.797
17863SOL     OW55362   2.573   2.412   4.575
17863SOL    HW155363   2.655   2.459   4.562
17863SOL    HW255364   2.506   2.473   4.546
17864SOL     OW55365   1.006  13.736  10.000
17864SOL    HW155366   0.937  13.795  10.030
17864SOL    HW255367   0.994  13.731   9.905
17865SOL     OW55368   8.117   4.789  13.097
17865SOL    HW155369   8.138   4.732  13.023
17865SOL    HW255370   8.082   4.868  13.057
17866SOL     OW55371   1.773   3.857  12.702
17866SOL    HW155372   1.798   3.786  12.761
17866SOL    HW255373   1.842   3.861  12.637
17867SOL     OW55374   4.634  13.665   2.515
17867SOL    HW155375   4.665  13.630   2.598
17867SOL    HW255376   4.701  13.640   2.452
17868SOL     OW55377   9.151   6.694   7.244
17868SOL    HW155378   9.193   6.682   7.160
17868SOL    HW255379   9.223   6.695   7.308
17869SOL     OW55380  13.712  12.130  13.537
17869SOL    HW155381  13.630  12.174  13.513
17869SOL    HW255382  13.729  12.158  13.627
17870SOL     OW55383   7.529  11.711   8.157
17870SOL    HW155384   7.542  11.617   8.151
17870SOL    HW255385   7.440  11.722   8.189
17871SOL     OW55386   3.565  13.463   8.435
17871SOL    HW155387   3.601  13.509   8.359
17871SOL    HW255388   3.612  13.501   8.510
17872SOL     OW55389   4.739  12.387  13.071
17872SOL    HW155390   4.712  12.474  13.099
17872SOL    HW255391   4.722  12.331  13.147
17873SOL     OW55392   4.727   7.576   7.971
17873SOL    HW155393   4.816   7.587   7.936
17873SOL    HW255394   4.673   7.558   7.895
17874SOL     OW55395   3.357  14.846  10.870
17874SOL    HW155396   3.353  14.868  10.777
17874SOL    HW255397   3.344  14.751  10.873
17875SOL     OW55398  10.465   7.715   3.229
17875SOL    HW155399  10.378   7.740   3.260
17875SOL    HW255400  10.455   7.624   3.201
17876SOL     OW55401  14.826   5.293  10.862
17876SOL    HW155402  14.750   5.340  10.827
17876SOL    HW255403  14.865   5.250  10.786
17877SOL     OW55404  13.474   4.458   8.521
17877SOL    HW155405  13.441   4.398   8.588
17877SOL    HW255406  13.420   4.440   8.444
17878SOL     OW55407   7.576   2.377   2.712
17878SOL    HW155408   7.569   2.293   2.667
17878SOL    HW255409   7.493   2.421   2.694
17879SOL     OW55410   4.021  12.571   4.180
17879SOL    HW155411   4.101  12.611   4.214
17879SOL    HW255412   4.051  12.506   4.117
17880SOL     OW55413   2.519   3.794   1.199
17880SOL    HW155414   2.543   3.706   1.169
17880SOL    HW255415   2.498   3.841   1.118
17881SOL     OW55416   6.724   1.661   9.240
17881SOL    HW155417   6.673   1.721   9.294
17881SOL    HW255418   6.685   1.575   9.254
17882SOL     OW55419  13.515   7.667   1.896
17882SOL    HW155420  13.447   7.648   1.830
17882SOL    HW255421  13.573   7.729   1.853
17883SOL     OW55422   7.496   5.157  10.138
17883SOL    HW155423   7.428   5.134  10.075
17883SOL    HW255424   7.552   5.079  10.144
17884SOL     OW55425  13.172   4.704   1.022
17884SOL    HW155426  13.109   4.706   1.094
17884SOL    HW255427  13.244   4.761   1.052
17885SOL     OW55428   4.945   5.337  12.882
17885SOL    HW155429   5.035   5.315  12.906
17885SOL    HW255430   4.954   5.385  12.800
17886SOL     OW55431   8.934   5.378   4.498
17886SOL    HW155432   8.906   5.466   4.476
17886SOL    HW255433   8.906   5.366   4.589
17887SOL     OW55434   0.935   1.122   4.503
17887SOL    HW155435   0.995   1.053   4.531
17887SOL    HW255436   0.991   1.188   4.464
17888SOL     OW55437   8.079   1.109   8.003
17888SOL    HW155438   8.095   1.039   7.940
17888SOL    HW255439   8.103   1.072   8.088
17889SOL     OW55440   6.498   8.554   7.741
17889SOL    HW155441   6.514   8.612   7.667
17889SOL    HW255442   6.408   8.524   7.728
17890SOL     OW55443   2.577   4.625   2.263
17890SOL    HW155444   2.494   4.657   2.297
17890SOL    HW255445   2.605   4.559   2.327
17891SOL     OW55446   4.768  14.049   1.094
17891SOL    HW155447   4.678  14.083   1.096
17891SOL    HW255448   4.789  14.043   1.001
17892SOL     OW55449  14.099   7.800  12.597
17892SOL    HW155450  14.031   7.834  12.540
17892SOL    HW255451  14.053   7.747  12.662
17893SOL     OW55452  11.909   3.905   3.177
17893SOL    HW155453  12.003   3.921   3.164
17893SOL    HW255454  11.880   3.864   3.096
17894SOL     OW55455  13.585   1.222  14.453
17894SOL    HW155456  13.645   1.223  14.378
17894SOL    HW255457  13.538   1.139  14.446
17895SOL     OW55458   3.218   3.066   7.928
17895SOL    HW155459   3.170   3.142   7.895
17895SOL    HW255460   3.254   3.094   8.012
17896SOL     OW55461   9.789   7.295  12.454
17896SOL    HW155462   9.866   7.330  12.498
17896SOL    HW255463   9.734   7.259  12.524
17897SOL     OW55464   3.852   9.365   7.288
17897SOL    HW155465   3.796   9.423   7.340
17897SOL    HW255466   3.837   9.278   7.324
17898SOL     OW55467   0.353   1.027   0.587
17898SOL    HW155468   0.427   0.989   0.538
17898SOL    HW255469   0.332   1.108   0.540
17899SOL     OW55470  14.424   8.000   2.845
17899SOL    HW155471  14.343   8.007   2.896
17899SOL    HW255472  14.408   7.927   2.785
17900SOL     OW55473  10.160   8.661   4.019
17900SOL    HW155474  10.074   8.622   4.002
17900SOL    HW255475  10.208   8.593   4.067
17901SOL     OW55476   9.597   3.320  11.663
17901SOL    HW155477   9.626   3.410  11.671
17901SOL    HW255478   9.606   3.284  11.752
17902SOL     OW55479   4.582   6.204   3.478
17902SOL    HW155480   4.547   6.272   3.419
17902SOL    HW255481   4.623   6.253   3.549
17903SOL     OW55482   3.486  13.874  10.211
17903SOL    HW155483   3.548  13.936  10.173
17903SOL    HW255484   3.446  13.831  10.136
17904SOL     OW55485  10.871   3.196  10.826
17904SOL    HW155486  10.918   3.168  10.905
17904SOL    HW255487  10.915   3.150  10.755
17905SOL     OW55488   0.946   1.026   8.862
17905SOL    HW155489   0.866   0.975   8.852
17905SOL    HW255490   1.017   0.966   8.837
17906SOL     OW55491   4.455  10.854  12.623
17906SOL    HW155492   4.387  10.794  12.593
17906SOL    HW255493   4.498  10.883  12.542
17907SOL     OW55494  14.701  11.764  12.003
17907SOL    HW155495  14.676  11.673  11.989
17907SOL    HW255496  14.777  11.777  11.947
17908SOL     OW55497   6.675   4.681   9.341
17908SOL    HW155498   6.612   4.752   9.326
17908SOL    HW255499   6.622   4.601   9.337
17909SOL     OW55500   2.460  13.435   3.803
17909SOL    HW155501   2.420  13.435   3.716
17909SOL    HW255502   2.525  13.505   3.799
17910SOL     OW55503   0.114   7.446   2.422
17910SOL    HW155504   0.204   7.469   2.447
17910SOL    HW255505   0.063   7.459   2.502
17911SOL     OW55506   1.706   6.476  12.982
17911SOL    HW155507   1.654   6.396  12.982
17911SOL    HW255508   1.751   6.476  12.897
17912SOL     OW55509   0.741   6.451   2.234
17912SOL    HW155510   0.658   6.497   2.237
17912SOL    HW255511   0.718   6.358   2.235
17913SOL     OW55512   2.445   0.985   5.240
17913SOL    HW155513   2.434   0.957   5.149
17913SOL    HW255514   2.376   1.050   5.254
17914SOL     OW55515   4.580   6.494   3.381
17914SOL    HW155516   4.625   6.541   3.311
17914SOL    HW255517   4.605   6.541   3.461
17915SOL     OW55518   5.498  11.152   8.145
17915SOL    HW155519   5.446  11.182   8.071
17915SOL    HW255520   5.457  11.191   8.222
17916SOL     OW55521   8.268  14.869   2.881
17916SOL    HW155522   8.173  14.877   2.891
17916SOL    HW255523   8.303   0.029   2.962
17917SOL     OW55524   3.109   5.011  12.095
17917SOL    HW155525   3.064   5.055  12.024
17917SOL    HW255526   3.038   4.978  12.151
17918SOL     OW55527   9.672   2.422  13.414
17918SOL    HW155528   9.592   2.372  13.400
17918SOL    HW255529   9.725   2.404  13.336
17919SOL     OW55530   4.065   1.662  10.152
17919SOL    HW155531   4.111   1.703  10.079
17919SOL    HW255532   4.134   1.642  10.216
17920SOL     OW55533  12.270   9.499   8.835
17920SOL    HW155534  12.200   9.542   8.787
17920SOL    HW255535  12.234   9.486   8.923
17921SOL     OW55536   4.779   3.081   8.735
17921SOL    HW155537   4.782   2.986   8.728
17921SOL    HW255538   4.691   3.100   8.768
17922SOL     OW55539   2.232   1.918   0.236
17922SOL    HW155540   2.279   1.962   0.164
17922SOL    HW255541   2.301   1.883   0.292
17923SOL     OW55542   2.812   5.012   8.406
17923SOL    HW155543   2.823   5.042   8.497
17923SOL    HW255544   2.867   4.934   8.400
17924SOL     OW55545   6.777   5.464   8.622
17924SOL    HW155546   6.778   5.495   8.531
17924SOL    HW255547   6.698   5.502   8.659
17925SOL     OW55548  11.631   0.281   9.988
17925SOL    HW155549  11.608   0.188   9.992
17925SOL    HW255550  11.555   0.323   9.947
17926SOL     OW55551  11.535  12.214   1.275
17926SOL    HW155552  11.488  12.297   1.274
17926SOL    HW255553  11.469  12.149   1.297
17927SOL     OW55554   7.895   5.943  11.816
17927SOL    HW155555   7.949   6.003  11.867
17927SOL    HW255556   7.811   5.940  11.863
17928SOL     OW55557  14.349   1.419   3.706
17928SOL    HW155558  14.345   1.461   3.792
17928SOL    HW255559  14.285   1.348   3.710
17929SOL     OW55560  14.649   6.391   4.116
17929SOL    HW155561  14.675   6.482   4.107
17929SOL    HW255562  14.659   6.355   4.027
17930SOL     OW55563  14.511  11.616   8.840
17930SOL    HW155564  14.421  11.599   8.811
17930SOL    HW255565  14.553  11.657   8.765
17931SOL     OW55566   9.897   8.170   1.979
17931SOL    HW155567   9.985   8.151   1.945
17931SOL    HW255568   9.875   8.255   1.943
17932SOL     OW55569   6.266   9.482   7.589
17932SOL    HW155570   6.253   9.389   7.604
17932SOL    HW255571   6.360   9.496   7.600
17933SOL     OW55572   5.329  11.011   2.720
17933SOL    HW155573   5.257  11.027   2.781
17933SOL    HW255574   5.313  11.073   2.648
17934SOL     OW55575  11.758  11.267   1.311
17934SOL    HW155576  11.721  11.297   1.228
17934SOL    HW255577  11.747  11.340   1.371
17935SOL     OW55578   7.069  11.442   9.128
17935SOL    HW155579   7.053  11.470   9.219
17935SOL    HW255580   7.030  11.355   9.123
17936SOL     OW55581   9.508  12.180   4.994
17936SOL    HW155582   9.563  12.231   5.053
17936SOL    HW255583   9.513  12.226   4.910
17937SOL     OW55584  13.258   6.409   2.172
17937SOL    HW155585  13.280   6.500   2.151
17937SOL    HW255586  13.164   6.412   2.192
17938SOL     OW55587  11.104   7.046   0.282
17938SOL    HW155588  11.184   6.993   0.285
17938SOL    HW255589  11.083   7.051   0.188
17939SOL     OW55590   9.874   0.096   5.580
17939SOL    HW155591   9.935   0.115   5.509
17939SOL    HW255592   9.916   0.026   5.629
17940SOL     OW55593   9.599   2.980   6.660
17940SOL    HW155594   9.529   2.947   6.718
17940SOL    HW255595   9.608   3.072   6.683
17941SOL     OW55596   4.638   5.719  10.811
17941SOL    HW155597   4.716   5.771  10.831
17941SOL    HW255598   4.565   5.779  10.824
17942SOL     OW55599   0.085  13.582  10.570
17942SOL    HW155600   0.107  13.571  10.477
17942SOL    HW255601   0.049  13.671  10.575
17943SOL     OW55602   2.327   3.891   0.279
17943SOL    HW155603   2.304   3.970   0.231
17943SOL    HW255604   2.283   3.820   0.232
17944SOL     OW55605   2.915  14.687   5.158
17944SOL    HW155606   2.827  14.722   5.170
17944SOL    HW255607   2.927  14.625   5.229
17945SOL     OW55608   0.818   2.289   4.998
17945SOL    HW155609   0.794   2.381   4.993
17945SOL    HW255610   0.734   2.242   4.994
17946SOL     OW55611   2.402   8.030   9.572
17946SOL    HW155612   2.427   8.117   9.604
17946SOL    HW255613   2.425   7.971   9.643
17947SOL     OW55614   9.230   9.284   4.600
17947SOL    HW155615   9.226   9.191   4.623
17947SOL    HW255616   9.268   9.284   4.512
17948SOL     OW55617  11.469   4.520  14.036
17948SOL    HW155618  11.383   4.478  14.038
17948SOL    HW255619  11.529   4.454  14.068
17949SOL     OW55620   4.671  13.712   7.986
17949SOL    HW155621   4.713  13.715   7.900
17949SOL    HW255622   4.743  13.693   8.047
17950SOL     OW55623   8.541   1.838  12.332
17950SOL    HW155624   8.508   1.798  12.412
17950SOL    HW255625   8.564   1.764  12.276
17951SOL     OW55626   3.316  11.142   4.208
17951SOL    HW155627   3.332  11.182   4.293
17951SOL    HW255628   3.220  11.136   4.202
17952SOL     OW55629   4.495   0.421  13.404
17952SOL    HW155630   4.414   0.371  13.397
17952SOL    HW255631   4.467   0.505  13.442
17953SOL     OW55632   2.285   4.384  14.514
17953SOL    HW155633   2.278   4.330  14.593
17953SOL    HW255634   2.258   4.325  14.443
17954SOL     OW55635   6.084   6.705   4.657
17954SOL    HW155636   6.078   6.616   4.622
17954SOL    HW255637   6.103   6.760   4.581
17955SOL     OW55638   6.010   1.134   9.704
17955SOL    HW155639   6.025   1.114   9.612
17955SOL    HW255640   6.001   1.230   9.707
17956SOL     OW55641  14.666  12.905  14.248
17956SOL    HW155642  14.744  12.867  14.208
17956SOL    HW255643  14.686  12.999  14.255
17957SOL     OW55644   8.943  13.253  14.708
17957SOL    HW155645   8.917  13.345  14.697
17957SOL    HW255646   8.874  13.203  14.665
17958SOL     OW55647   2.819   5.370   7.606
17958SOL    HW155648   2.774   5.454   7.604
17958SOL    HW255649   2.824   5.343   7.514
17959SOL     OW55650   5.401   4.299   9.751
17959SOL    HW155651   5.322   4.310   9.805
17959SOL    HW255652   5.460   4.247   9.806
17960SOL     OW55653   6.881   4.394  12.963
17960SOL    HW155654   6.942   4.460  12.929
17960SOL    HW255655   6.902   4.387  13.056
17961SOL     OW55656   1.230   4.587   6.368
17961SOL    HW155657   1.154   4.644   6.382
17961SOL    HW255658   1.244   4.590   6.273
17962SOL     OW55659  14.417   3.665  10.737
17962SOL    HW155660  14.347   3.703  10.684
17962SOL    HW255661  14.379   3.585  10.774
17963SOL     OW55662  13.805   1.686  12.196
17963SOL    HW155663  13.870   1.750  12.226
17963SOL    HW255664  13.822   1.608  12.248
17964SOL     OW55665  12.794   2.939  10.001
17964SOL    HW155666  12.887   2.917  10.000
17964SOL    HW255667  12.792   3.035  10.011
17965SOL     OW55668   6.044   0.572   6.633
17965SOL    HW155669   5.999   0.650   6.664
17965SOL    HW255670   5.973   0.514   6.604
17966SOL     OW55671  12.297   8.050   5.148
17966SOL    HW155672  12.250   7.975   5.185
17966SOL    HW255673  12.346   8.013   5.074
17967SOL     OW55674   6.919   1.265  12.688
17967SOL    HW155675   6.975   1.189  12.701
17967SOL    HW255676   6.832   1.229  12.672
17968SOL     OW55677   0.594   4.471   1.686
17968SOL    HW155678   0.511   4.448   1.645
17968SOL    HW255679   0.636   4.531   1.623
17969SOL     OW55680   8.863   4.887  11.607
17969SOL    HW155681   8.944   4.868  11.560
17969SOL    HW255682   8.821   4.955  11.554
17970SOL     OW55683  12.716   8.497   7.071
17970SOL    HW155684  12.803   8.531   7.051
17970SOL    HW255685  12.678   8.561   7.131
17971SOL     OW55686   4.064   7.528  10.452
17971SOL    HW155687   4.031   7.439  10.437
17971SOL    HW255688   4.148   7.516  10.495
17972SOL     OW55689   7.655   4.671  10.514
17972SOL    HW155690   7.742   4.702  10.489
17972SOL    HW255691   7.627   4.617  10.440
17973SOL     OW55692   9.703  11.697   4.210
17973SOL    HW155693   9.711  11.609   4.173
17973SOL    HW255694   9.611  11.706   4.232
17974SOL     OW55695  10.303   4.056   8.985
17974SOL    HW155696  10.390   4.017   8.989
17974SOL    HW255697  10.318   4.145   8.953
17975SOL     OW55698   7.790   4.784   9.294
17975SOL    HW155699   7.857   4.833   9.247
17975SOL    HW255700   7.777   4.704   9.243
17976SOL     OW55701   8.650  13.353  14.140
17976SOL    HW155702   8.719  13.296  14.105
17976SOL    HW255703   8.683  13.380  14.226
17977SOL     OW55704  13.185   2.918   6.046
17977SOL    HW155705  13.178   2.824   6.034
17977SOL    HW255706  13.101   2.943   6.084
17978SOL     OW55707   3.939  12.186   7.142
17978SOL    HW155708   3.953  12.218   7.053
17978SOL    HW255709   3.868  12.122   7.134
17979SOL     OW55710  10.192   9.037   7.848
17979SOL    HW155711  10.171   9.113   7.903
17979SOL    HW255712  10.132   8.968   7.878
17980SOL     OW55713   3.489   9.764   5.139
17980SOL    HW155714   3.576   9.742   5.172
17980SOL    HW255715   3.455   9.681   5.105
17981SOL     OW55716   3.965  14.473   0.312
17981SOL    HW155717   3.877  14.493   0.279
17981SOL    HW255718   4.018  14.460   0.234
17982SOL     OW55719   3.489  13.536   0.791
17982SOL    HW155720   3.433  13.531   0.868
17982SOL    HW255721   3.450  13.475   0.729
17983SOL     OW55722   0.139  12.367  13.575
17983SOL    HW155723   0.046  12.371  13.550
17983SOL    HW255724   0.144  12.422  13.653
17984SOL     OW55725   9.180   9.642  13.748
17984SOL    HW155726   9.201   9.735  13.761
17984SOL    HW255727   9.236   9.597  13.812
17985SOL     OW55728   3.827   3.447   8.623
17985SOL    HW155729   3.733   3.445   8.605
17985SOL    HW255730   3.834   3.430   8.717
17986SOL     OW55731  14.820   3.000   8.115
17986SOL    HW155732  14.756   2.978   8.047
17986SOL    HW255733   0.027   3.001   8.070
17987SOL     OW55734   3.690  10.845   2.317
17987SOL    HW155735   3.649  10.781   2.375
17987SOL    HW255736   3.715  10.794   2.240
17988SOL     OW55737  12.466  11.329   8.503
17988SOL    HW155738  12.426  11.251   8.541
17988SOL    HW255739  12.393  11.377   8.463
17989SOL     OW55740   1.457   9.381   9.535
17989SOL    HW155741   1.429   9.374   9.626
17989SOL    HW255742   1.425   9.467   9.506
17990SOL     OW55743   9.198   0.201  11.390
17990SOL    HW155744   9.190   0.288  11.428
17990SOL    HW255745   9.169   0.141  11.458
17991SOL     OW55746   2.512  13.167  13.527
17991SOL    HW155747   2.449  13.160  13.598
17991SOL    HW255748   2.463  13.145  13.448
17992SOL     OW55749   9.249   0.855  11.654
17992SOL    HW155750   9.299   0.885  11.730
17992SOL    HW255751   9.192   0.928  11.632
17993SOL     OW55752  13.150   2.232   1.763
17993SOL    HW155753  13.204   2.301   1.724
17993SOL    HW255754  13.132   2.172   1.691
17994SOL     OW55755  13.002   3.234   2.393
17994SOL    HW155756  12.951   3.314   2.408
17994SOL    HW255757  13.093   3.262   2.402
17995SOL     OW55758  13.104  10.962   1.883
17995SOL    HW155759  13.080  11.055   1.880
17995SOL    HW255760  13.051  10.922   1.814
17996SOL     OW55761   1.434   2.679  14.444
17996SOL    HW155762   1.509   2.640  14.490
17996SOL    HW255763   1.358   2.642  14.489
17997SOL     OW55764  14.420   3.059   4.623
17997SOL    HW155765  14.456   3.147   4.638
17997SOL    HW255766  14.367   3.068   4.543
17998SOL     OW55767  10.266   9.148  11.084
17998SOL    HW155768  10.200   9.187  11.026
17998SOL    HW255769  10.216   9.112  11.157
17999SOL     OW55770   7.501  13.806  13.516
17999SOL    HW155771   7.525  13.890  13.554
17999SOL    HW255772   7.523  13.815  13.423
18000SOL     OW55773   7.772  13.471   0.793
18000SOL    HW155774   7.679  13.448   0.798
18000SOL    HW255775   7.774  13.567   0.798
18001SOL     OW55776   4.764   7.605   6.531
18001SOL    HW155777   4.852   7.623   6.562
18001SOL    HW255778   4.766   7.629   6.438
18002SOL     OW55779   5.339  13.028  13.578
18002SOL    HW155780   5.401  12.957  13.563
18002SOL    HW255781   5.387  13.108  13.556
18003SOL     OW55782   1.515   0.642   8.927
18003SOL    HW155783   1.602   0.678   8.914
18003SOL    HW255784   1.525   0.547   8.919
18004SOL     OW55785   3.810   2.126  10.372
18004SOL    HW155786   3.776   2.133  10.282
18004SOL    HW255787   3.877   2.058  10.367
18005SOL     OW55788  13.918  11.263  10.056
18005SOL    HW155789  13.824  11.251  10.039
18005SOL    HW255790  13.923  11.278  10.151
18006SOL     OW55791   0.686   5.135   4.978
18006SOL    HW155792   0.748   5.125   5.050
18006SOL    HW255793   0.646   5.049   4.969
18007SOL     OW55794  12.224  10.246   2.957
18007SOL    HW155795  12.203  10.153   2.964
18007SOL    HW255796  12.308  10.249   2.912
18008SOL     OW55797   7.693  10.808   9.979
18008SOL    HW155798   7.761  10.773  10.036
18008SOL    HW255799   7.715  10.774   9.892
18009SOL     OW55800   8.287   8.071   4.985
18009SOL    HW155801   8.248   8.139   5.040
18009SOL    HW255802   8.295   7.995   5.043
18010SOL     OW55803   2.674   5.353   8.039
18010SOL    HW155804   2.650   5.431   8.089
18010SOL    HW255805   2.625   5.282   8.082
18011SOL     OW55806  10.290   1.245  12.774
18011SOL    HW155807  10.236   1.321  12.793
18011SOL    HW255808  10.304   1.203  12.860
18012SOL     OW55809  11.814  12.371   2.174
18012SOL    HW155810  11.730  12.351   2.217
18012SOL    HW255811  11.829  12.295   2.117
18013SOL     OW55812   0.573   8.249   9.418
18013SOL    HW155813   0.490   8.283   9.386
18013SOL    HW255814   0.553   8.212   9.504
18014SOL     OW55815   4.679   6.526  14.830
18014SOL    HW155816   4.754   6.563  14.783
18014SOL    HW255817   4.648   6.455  14.774
18015SOL     OW55818   6.881   0.080   8.399
18015SOL    HW155819   6.861   0.092   8.491
18015SOL    HW255820   6.869  14.863   8.384
18016SOL     OW55821   8.904   5.406  14.294
18016SOL    HW155822   8.961   5.481  14.278
18016SOL    HW255823   8.815   5.443  14.295
18017SOL     OW55824   7.738   0.806   9.802
18017SOL    HW155825   7.717   0.753   9.725
18017SOL    HW255826   7.801   0.753   9.851
18018SOL     OW55827   8.233   1.369  14.214
18018SOL    HW155828   8.251   1.279  14.240
18018SOL    HW255829   8.318   1.412  14.212
18019SOL     OW55830   2.212  10.433   4.377
18019SOL    HW155831   2.174  10.349   4.353
18019SOL    HW255832   2.167  10.458   4.458
18020SOL     OW55833   0.436   5.471   4.457
18020SOL    HW155834   0.509   5.533   4.452
18020SOL    HW255835   0.367   5.511   4.405
18021SOL     OW55836   1.017   7.042  14.675
18021SOL    HW155837   1.102   7.043  14.719
18021SOL    HW255838   0.953   7.036  14.746
18022SOL     OW55839  12.714  13.067  11.206
18022SOL    HW155840  12.747  13.123  11.276
18022SOL    HW255841  12.691  12.985  11.249
18023SOL     OW55842  14.556   3.452   3.163
18023SOL    HW155843  14.650   3.464   3.175
18023SOL    HW255844  14.539   3.479   3.072
18024SOL     OW55845  10.222   4.216  11.269
18024SOL    HW155846  10.306   4.184  11.238
18024SOL    HW255847  10.164   4.211  11.193
18025SOL     OW55848  10.577  10.311   1.315
18025SOL    HW155849  10.619  10.329   1.231
18025SOL    HW255850  10.541  10.222   1.305
18026SOL     OW55851   9.461   1.323   8.539
18026SOL    HW155852   9.443   1.235   8.572
18026SOL    HW255853   9.435   1.319   8.447
18027SOL     OW55854  11.326   1.577   2.526
18027SOL    HW155855  11.265   1.548   2.458
18027SOL    HW255856  11.405   1.603   2.477
18028SOL     OW55857   8.998  14.871  14.476
18028SOL    HW155858   8.933  14.806  14.447
18028SOL    HW255859   8.962   0.030  14.556
18029SOL     OW55860  10.257   5.917   2.529
18029SOL    HW155861  10.266   5.833   2.485
18029SOL    HW255862  10.314   5.977   2.480
18030SOL     OW55863  12.794  11.497   8.769
18030SOL    HW155864  12.732  11.487   8.841
18030SOL    HW255865  12.772  11.426   8.709
18031SOL     OW55866   1.334   1.856  12.368
18031SOL    HW155867   1.318   1.871  12.275
18031SOL    HW255868   1.381   1.772  12.370
18032SOL     OW55869   6.027   7.525   6.236
18032SOL    HW155870   5.967   7.585   6.280
18032SOL    HW255871   6.040   7.564   6.150
18033SOL     OW55872  11.420   7.018   4.230
18033SOL    HW155873  11.451   7.108   4.241
18033SOL    HW255874  11.329   7.027   4.203
18034SOL     OW55875   4.516   9.032   1.212
18034SOL    HW155876   4.559   8.953   1.180
18034SOL    HW255877   4.428   9.005   1.236
18035SOL     OW55878  10.190   6.343  13.561
18035SOL    HW155879  10.242   6.404  13.510
18035SOL    HW255880  10.175   6.269  13.502
18036SOL     OW55881   9.185  11.003  12.097
18036SOL    HW155882   9.270  11.010  12.054
18036SOL    HW255883   9.158  10.913  12.083
18037SOL     OW55884  12.304  14.280   3.171
18037SOL    HW155885  12.358  14.329   3.108
18037SOL    HW255886  12.271  14.206   3.122
18038SOL     OW55887  13.692   7.847   4.336
18038SOL    HW155888  13.772   7.847   4.389
18038SOL    HW255889  13.705   7.775   4.274
18039SOL     OW55890   4.747   8.873   9.598
18039SOL    HW155891   4.714   8.828   9.676
18039SOL    HW255892   4.721   8.964   9.611
18040SOL     OW55893   9.194   9.467   4.781
18040SOL    HW155894   9.148   9.426   4.855
18040SOL    HW255895   9.174   9.410   4.707
18041SOL     OW55896  14.857   1.720  11.147
18041SOL    HW155897  14.771   1.745  11.113
18041SOL    HW255898  14.855   1.746  11.239
18042SOL     OW55899  14.073   2.998  13.790
18042SOL    HW155900  14.158   2.981  13.830
18042SOL    HW255901  14.080   3.086  13.754
18043SOL     OW55902   1.656   1.291   3.313
18043SOL    HW155903   1.613   1.225   3.367
18043SOL    HW255904   1.612   1.284   3.228
18044SOL     OW55905   3.281  11.874   0.201
18044SOL    HW155906   3.228  11.841   0.129
18044SOL    HW255907   3.218  11.910   0.264
18045SOL     OW55908   9.807   3.395  12.820
18045SOL    HW155909   9.882   3.451  12.806
18045SOL    HW255910   9.820   3.321  12.759
18046SOL     OW55911  12.123  12.148   0.826
18046SOL    HW155912  12.177  12.220   0.793
18046SOL    HW255913  12.186  12.081   0.853
18047SOL     OW55914   2.941  13.949   5.916
18047SOL    HW155915   2.894  13.963   5.834
18047SOL    HW255916   2.880  13.977   5.984
18048SOL     OW55917  12.546   5.627  14.790
18048SOL    HW155918  12.475   5.569  14.818
18048SOL    HW255919  12.502   5.699  14.744
18049SOL     OW55920   4.096  12.389  11.264
18049SOL    HW155921   4.100  12.391  11.359
18049SOL    HW255922   4.180  12.354  11.236
18050SOL     OW55923   1.501   2.102   1.561
18050SOL    HW155924   1.513   2.059   1.646
18050SOL    HW255925   1.444   2.176   1.579
18051SOL     OW55926  14.036   7.039   3.437
18051SOL    HW155927  14.074   7.058   3.351
18051SOL    HW255928  14.111   7.022   3.493
18052SOL     OW55929   9.417  12.973  13.997
18052SOL    HW155930   9.423  12.951  13.904
18052SOL    HW255931   9.495  12.934  14.036
18053SOL     OW55932   7.392  10.891  10.384
18053SOL    HW155933   7.396  10.982  10.354
18053SOL    HW255934   7.387  10.839  10.303
18054SOL     OW55935   8.035  13.520   2.367
18054SOL    HW155936   7.991  13.452   2.418
18054SOL    HW255937   7.969  13.549   2.303
18055SOL     OW55938   6.878   8.466   4.604
18055SOL    HW155939   6.783   8.474   4.590
18055SOL    HW255940   6.906   8.399   4.541
18056SOL     OW55941   0.952   7.327   1.330
18056SOL    HW155942   0.925   7.236   1.328
18056SOL    HW255943   1.045   7.324   1.351
18057SOL     OW55944  14.330  14.795  10.010
18057SOL    HW155945  14.257  14.767  10.065
18057SOL    HW255946  14.383  14.716   9.998
18058SOL     OW55947  13.568  12.554   2.045
18058SOL    HW155948  13.599  12.484   2.102
18058SOL    HW255949  13.474  12.558   2.061
18059SOL     OW55950   9.775   4.772   3.682
18059SOL    HW155951   9.800   4.730   3.599
18059SOL    HW255952   9.856   4.813   3.713
18060SOL     OW55953   3.299  14.039   3.136
18060SOL    HW155954   3.214  14.002   3.112
18060SOL    HW255955   3.297  14.041   3.232
18061SOL     OW55956   0.593   3.700   1.783
18061SOL    HW155957   0.574   3.660   1.698
18061SOL    HW255958   0.621   3.789   1.763
18062SOL     OW55959   8.939   0.968   5.473
18062SOL    HW155960   8.934   1.035   5.541
18062SOL    HW255961   8.978   1.013   5.398
18063SOL     OW55962   3.094  13.288  13.412
18063SOL    HW155963   3.069  13.359  13.470
18063SOL    HW255964   3.189  13.297  13.401
18064SOL     OW55965   0.644  14.387   5.519
18064SOL    HW155966   0.695  14.338   5.584
18064SOL    HW255967   0.558  14.346   5.520
18065SOL     OW55968   1.073  14.684  12.854
18065SOL    HW155969   1.165  14.698  12.832
18065SOL    HW255970   1.031  14.666  12.770
18066SOL     OW55971   2.676   4.764  12.232
18066SOL    HW155972   2.644   4.853  12.248
18066SOL    HW255973   2.603   4.707  12.257
18067SOL     OW55974   0.439   6.415   4.124
18067SOL    HW155975   0.454   6.487   4.062
18067SOL    HW255976   0.372   6.361   4.082
18068SOL     OW55977  12.102   6.884   6.150
18068SOL    HW155978  12.084   6.881   6.244
18068SOL    HW255979  12.099   6.792   6.122
18069SOL     OW55980  12.695   9.742   7.142
18069SOL    HW155981  12.743   9.793   7.076
18069SOL    HW255982  12.764   9.703   7.196
18070SOL     OW55983   4.620  13.436  14.031
18070SOL    HW155984   4.608  13.377  13.956
18070SOL    HW255985   4.714  13.455  14.031
18071SOL     OW55986  13.724   5.037   0.784
18071SOL    HW155987  13.754   4.949   0.807
18071SOL    HW255988  13.635   5.042   0.817
18072SOL     OW55989   8.203  11.564   3.072
18072SOL    HW155990   8.130  11.533   3.019
18072SOL    HW255991   8.278  11.563   3.014
18073SOL     OW55992   2.309   2.366   7.778
18073SOL    HW155993   2.258   2.447   7.772
18073SOL    HW255994   2.321   2.338   7.688
18074SOL     OW55995  13.407   1.110  10.166
18074SOL    HW155996  13.377   1.200  10.161
18074SOL    HW255997  13.420   1.084  10.075
18075SOL     OW55998   1.280   7.048  10.396
18075SOL    HW155999   1.324   7.130  10.375
18075SOL    HW256000   1.276   7.048  10.492
18076SOL     OW56001   4.124  13.442  12.330
18076SOL    HW156002   4.198  13.390  12.299
18076SOL    HW256003   4.157  13.532  12.333
18077SOL     OW56004   5.884   3.570   4.893
18077SOL    HW156005   5.852   3.579   4.803
18077SOL    HW256006   5.945   3.643   4.903
18078SOL     OW56007  13.845   7.969   4.772
18078SOL    HW156008  13.854   7.910   4.698
18078SOL    HW256009  13.869   7.917   4.848
18079SOL     OW56010   9.912  10.069  14.294
18079SOL    HW156011   9.818  10.076  14.312
18079SOL    HW256012   9.932   9.976  14.310
18080SOL     OW56013   0.539   4.981  11.713
18080SOL    HW156014   0.445   4.981  11.728
18080SOL    HW256015   0.551   5.031  11.632
18081SOL     OW56016  11.180  14.734   6.809
18081SOL    HW156017  11.259  14.778   6.840
18081SOL    HW256018  11.114  14.803   6.802
18082SOL     OW56019   3.680   4.062   8.401
18082SOL    HW156020   3.620   4.056   8.476
18082SOL    HW256021   3.653   3.990   8.344
18083SOL     OW56022  11.918   8.127  10.224
18083SOL    HW156023  11.832   8.138  10.182
18083SOL    HW256024  11.919   8.193  10.293
18084SOL     OW56025   9.058  10.161   1.922
18084SOL    HW156026   9.050  10.180   2.015
18084SOL    HW256027   9.131  10.215   1.892
18085SOL     OW56028   0.009  14.788   5.227
18085SOL    HW156029  14.828  14.793   5.151
18085SOL    HW256030   0.095  14.813   5.193
18086SOL     OW56031  13.367   2.746  11.219
18086SOL    HW156032  13.365   2.652  11.204
18086SOL    HW256033  13.278   2.768  11.247
18087SOL     OW56034   2.029  13.648  12.272
18087SOL    HW156035   2.081  13.648  12.192
18087SOL    HW256036   2.091  13.669  12.342
18088SOL     OW56037   9.613  11.577   1.783
18088SOL    HW156038   9.659  11.657   1.758
18088SOL    HW256039   9.521  11.596   1.766
18089SOL     OW56040   7.852   0.134  11.574
18089SOL    HW156041   7.798   0.213  11.583
18089SOL    HW256042   7.936   0.159  11.612
18090SOL     OW56043   9.905  13.001   2.209
18090SOL    HW156044   9.885  13.064   2.279
18090SOL    HW256045   9.997  13.017   2.188
18091SOL     OW56046  13.876   3.693  11.560
18091SOL    HW156047  13.881   3.598  11.562
18091SOL    HW256048  13.967   3.722  11.560
18092SOL     OW56049  14.854  11.496  10.885
18092SOL    HW156050   0.007  11.443  10.959
18092SOL    HW256051  14.826  11.432  10.820
18093SOL     OW56052   6.906  11.798  12.106
18093SOL    HW156053   6.918  11.733  12.037
18093SOL    HW256054   6.913  11.883  12.061
18094SOL     OW56055  10.192   3.909  11.040
18094SOL    HW156056  10.273   3.945  11.077
18094SOL    HW256057  10.181   3.825  11.085
18095SOL     OW56058   9.900   4.688   2.621
18095SOL    HW156059   9.959   4.763   2.620
18095SOL    HW256060   9.955   4.614   2.646
18096SOL     OW56061  11.083   9.249   7.443
18096SOL    HW156062  10.991   9.257   7.468
18096SOL    HW256063  11.127   9.220   7.523
18097SOL     OW56064   8.754   1.510   8.319
18097SOL    HW156065   8.818   1.530   8.388
18097SOL    HW256066   8.706   1.592   8.307
18098SOL     OW56067   6.926   2.934  14.702
18098SOL    HW156068   6.845   2.982  14.714
18098SOL    HW256069   6.993   3.002  14.690
18099SOL     OW56070  13.295  14.580   6.131
18099SOL    HW156071  13.390  14.581   6.127
18099SOL    HW256072  13.273  14.593   6.223
18100SOL     OW56073  12.907   7.300   9.556
18100SOL    HW156074  12.935   7.319   9.467
18100SOL    HW256075  12.895   7.386   9.596
18101SOL     OW56076  12.467   0.924   6.350
18101SOL    HW156077  12.553   0.934   6.309
18101SOL    HW256078  12.424   1.008   6.337
18102SOL     OW56079   9.508  13.000   2.269
18102SOL    HW156080   9.535  13.038   2.185
18102SOL    HW256081   9.557  13.049   2.335
18103SOL     OW56082   5.133  10.852   7.272
18103SOL    HW156083   5.135  10.760   7.298
18103SOL    HW256084   5.202  10.860   7.206
18104SOL     OW56085   9.127  11.759   2.888
18104SOL    HW156086   9.126  11.855   2.893
18104SOL    HW256087   9.219  11.738   2.872
18105SOL     OW56088   1.258  14.488  14.363
18105SOL    HW156089   1.253  14.396  14.388
18105SOL    HW256090   1.350  14.511  14.374
18106SOL     OW56091  10.743   3.199  10.408
18106SOL    HW156092  10.666   3.143  10.396
18106SOL    HW256093  10.810   3.161  10.351
18107SOL     OW56094   8.886   1.632   5.249
18107SOL    HW156095   8.868   1.632   5.155
18107SOL    HW256096   8.841   1.710   5.282
18108SOL     OW56097   4.238  12.167  10.360
18108SOL    HW156098   4.277  12.174  10.447
18108SOL    HW256099   4.282  12.235  10.309
18109SOL     OW56100  13.566   0.400   4.580
18109SOL    HW156101  13.507   0.435   4.513
18109SOL    HW256102  13.613   0.477   4.613
18110SOL     OW56103  13.058   0.142   8.443
18110SOL    HW156104  12.969   0.172   8.461
18110SOL    HW256105  13.053   0.047   8.449
18111SOL     OW56106   9.885   5.515  10.121
18111SOL    HW156107   9.852   5.556  10.041
18111SOL    HW256108   9.885   5.421  10.103
18112SOL     OW56109  13.572  10.836  11.601
18112SOL    HW156110  13.544  10.760  11.653
18112SOL    HW256111  13.497  10.855  11.545
18113SOL     OW56112   2.637   3.687  14.242
18113SOL    HW156113   2.586   3.657  14.318
18113SOL    HW256114   2.573   3.730  14.185
18114SOL     OW56115   9.361   0.491  10.176
18114SOL    HW156116   9.362   0.494  10.081
18114SOL    HW256117   9.422   0.559  10.203
18115SOL     OW56118   5.912   3.416   1.157
18115SOL    HW156119   5.910   3.468   1.076
18115SOL    HW256120   5.999   3.433   1.194
18116SOL     OW56121  14.407  11.064   4.365
18116SOL    HW156122  14.433  10.974   4.389
18116SOL    HW256123  14.487  11.104   4.331
18117SOL     OW56124  12.603  10.997   1.562
18117SOL    HW156125  12.609  10.961   1.651
18117SOL    HW256126  12.524  10.956   1.526
18118SOL     OW56127  12.672   8.896   2.162
18118SOL    HW156128  12.583   8.914   2.132
18118SOL    HW256129  12.663   8.826   2.227
18119SOL     OW56130   5.430   1.855  11.073
18119SOL    HW156131   5.359   1.795  11.098
18119SOL    HW256132   5.403   1.939  11.109
18120SOL     OW56133   1.662  10.338   7.283
18120SOL    HW156134   1.583  10.370   7.326
18120SOL    HW256135   1.630  10.278   7.216
18121SOL     OW56136  10.573   7.142  14.072
18121SOL    HW156137  10.604   7.085  14.142
18121SOL    HW256138  10.629   7.219  14.077
18122SOL     OW56139   4.111   0.376   2.860
18122SOL    HW156140   4.139   0.367   2.951
18122SOL    HW256141   4.141   0.464   2.835
18123SOL     OW56142  10.133  10.761   0.208
18123SOL    HW156143  10.198  10.699   0.242
18123SOL    HW256144  10.050  10.730   0.244
18124SOL     OW56145   6.537   7.520  11.638
18124SOL    HW156146   6.497   7.438  11.667
18124SOL    HW256147   6.568   7.501  11.549
18125SOL     OW56148  10.124   8.857   2.853
18125SOL    HW156149  10.039   8.873   2.811
18125SOL    HW256150  10.103   8.802   2.928
18126SOL     OW56151   2.401   5.503  13.022
18126SOL    HW156152   2.487   5.542  13.008
18126SOL    HW256153   2.343   5.550  12.962
18127SOL     OW56154   5.484  13.426   2.859
18127SOL    HW156155   5.422  13.474   2.913
18127SOL    HW256156   5.455  13.335   2.864
18128SOL     OW56157   9.612  12.984  14.246
18128SOL    HW156158   9.603  12.988  14.341
18128SOL    HW256159   9.706  12.986  14.230
18129SOL     OW56160  12.936   8.723  14.219
18129SOL    HW156161  12.931   8.630  14.241
18129SOL    HW256162  12.848   8.757  14.235
18130SOL     OW56163   9.191   2.028   9.721
18130SOL    HW156164   9.134   1.975   9.665
18130SOL    HW256165   9.274   2.032   9.673
18131SOL     OW56166   8.964  12.445   8.842
18131SOL    HW156167   8.922  12.453   8.757
18131SOL    HW256168   9.021  12.523   8.848
18132SOL     OW56169   4.468   2.018   1.590
18132SOL    HW156170   4.382   2.040   1.554
18132SOL    HW256171   4.526   2.088   1.561
18133SOL     OW56172  12.618   2.416  13.458
18133SOL    HW156173  12.694   2.386  13.407
18133SOL    HW256174  12.544   2.404  13.399
18134SOL     OW56175   5.189   7.499   7.711
18134SOL    HW156176   5.162   7.510   7.620
18134SOL    HW256177   5.185   7.404   7.726
18135SOL     OW56178   5.956   4.148   3.321
18135SOL    HW156179   5.961   4.053   3.310
18135SOL    HW256180   5.864   4.165   3.341
18136SOL     OW56181   1.921  10.127  11.031
18136SOL    HW156182   1.910  10.034  11.008
18136SOL    HW256183   1.974  10.163  10.961
18137SOL     OW56184   7.769   3.746   2.445
18137SOL    HW156185   7.691   3.794   2.417
18137SOL    HW256186   7.841   3.808   2.434
18138SOL     OW56187   5.278   1.675   2.130
18138SOL    HW156188   5.356   1.715   2.170
18138SOL    HW256189   5.229   1.750   2.094
18139SOL     OW56190  13.602  12.137  11.250
18139SOL    HW156191  13.621  12.191  11.327
18139SOL    HW256192  13.596  12.200  11.178
18140SOL     OW56193   0.140   4.898  13.453
18140SOL    HW156194   0.136   4.833  13.522
18140SOL    HW256195   0.181   4.975  13.494
18141SOL     OW56196   2.344   4.566  12.100
18141SOL    HW156197   2.367   4.539  12.011
18141SOL    HW256198   2.329   4.484  12.147
18142SOL     OW56199   7.941   4.688  10.527
18142SOL    HW156200   7.938   4.696  10.432
18142SOL    HW256201   7.998   4.614  10.543
18143SOL     OW56202   9.621   8.573   5.732
18143SOL    HW156203   9.646   8.481   5.745
18143SOL    HW256204   9.581   8.599   5.815
18144SOL     OW56205   2.378   0.668   9.571
18144SOL    HW156206   2.287   0.653   9.544
18144SOL    HW256207   2.429   0.654   9.491
18145SOL     OW56208  10.801   7.369   5.204
18145SOL    HW156209  10.861   7.345   5.133
18145SOL    HW256210  10.853   7.425   5.262
18146SOL     OW56211   8.989   2.033  10.377
18146SOL    HW156212   9.009   1.966  10.312
18146SOL    HW256213   8.968   1.983  10.456
18147SOL     OW56214   1.670  13.212  13.066
18147SOL    HW156215   1.707  13.214  13.154
18147SOL    HW256216   1.733  13.160  13.015
18148SOL     OW56217  10.705   6.060  11.771
18148SOL    HW156218  10.754   6.061  11.854
18148SOL    HW256219  10.615   6.080  11.797
18149SOL     OW56220   5.223   8.131  14.520
18149SOL    HW156221   5.196   8.196  14.585
18149SOL    HW256222   5.319   8.137  14.518
18150SOL     OW56223   7.620   4.471   5.500
18150SOL    HW156224   7.688   4.427   5.552
18150SOL    HW256225   7.652   4.561   5.492
18151SOL     OW56226   3.821   3.605  10.756
18151SOL    HW156227   3.884   3.656  10.706
18151SOL    HW256228   3.816   3.648  10.841
18152SOL     OW56229   7.063  14.510   1.154
18152SOL    HW156230   7.062  14.438   1.217
18152SOL    HW256231   6.971  14.526   1.133
18153SOL     OW56232   4.507  10.834  10.150
18153SOL    HW156233   4.480  10.922  10.178
18153SOL    HW256234   4.468  10.776  10.214
18154SOL     OW56235   6.615   2.977   1.880
18154SOL    HW156236   6.654   2.927   1.808
18154SOL    HW256237   6.588   2.910   1.943
18155SOL     OW56238  11.392   1.294   0.351
18155SOL    HW156239  11.364   1.369   0.405
18155SOL    HW256240  11.422   1.229   0.414
18156SOL     OW56241  12.768   6.891   7.740
18156SOL    HW156242  12.748   6.984   7.724
18156SOL    HW256243  12.696   6.859   7.793
18157SOL     OW56244   5.904  10.516   3.140
18157SOL    HW156245   5.894  10.601   3.099
18157SOL    HW256246   5.999  10.505   3.149
18158SOL     OW56247   3.630   2.703   8.708
18158SOL    HW156248   3.617   2.735   8.619
18158SOL    HW256249   3.573   2.758   8.762
18159SOL     OW56250   9.821  14.608   2.555
18159SOL    HW156251   9.884  14.587   2.624
18159SOL    HW256252   9.784  14.692   2.580
18160SOL     OW56253  13.580   0.612   7.478
18160SOL    HW156254  13.640   0.678   7.513
18160SOL    HW256255  13.634   0.560   7.418
18161SOL     OW56256   6.003   6.776  10.046
18161SOL    HW156257   6.017   6.815  10.132
18161SOL    HW256258   5.912   6.747  10.047
18162SOL     OW56259   2.267   3.494   1.245
18162SOL    HW156260   2.257   3.531   1.333
18162SOL    HW256261   2.187   3.443   1.230
18163SOL     OW56262   7.948  12.569   4.537
18163SOL    HW156263   8.036  12.571   4.575
18163SOL    HW256264   7.903  12.499   4.585
18164SOL     OW56265   6.521   3.550   0.239
18164SOL    HW156266   6.573   3.581   0.164
18164SOL    HW256267   6.569   3.475   0.272
18165SOL     OW56268   9.726   3.973   5.257
18165SOL    HW156269   9.692   4.022   5.332
18165SOL    HW256270   9.774   3.900   5.295
18166SOL     OW56271   1.891   2.424   8.769
18166SOL    HW156272   1.943   2.452   8.844
18166SOL    HW256273   1.944   2.447   8.693
18167SOL     OW56274   0.133  12.463   0.350
18167SOL    HW156275   0.098  12.527   0.288
18167SOL    HW256276   0.151  12.513   0.429
18168SOL     OW56277   8.729   1.967   1.988
18168SOL    HW156278   8.766   2.052   2.011
18168SOL    HW256279   8.755   1.910   2.060
18169SOL     OW56280   6.855   3.904   4.863
18169SOL    HW156281   6.808   3.952   4.931
18169SOL    HW256282   6.787   3.876   4.801
18170SOL     OW56283   4.912  13.901   1.307
18170SOL    HW156284   4.856  13.957   1.254
18170SOL    HW256285   4.978  13.867   1.246
18171SOL     OW56286   3.129  12.857   6.302
18171SOL    HW156287   3.104  12.829   6.213
18171SOL    HW256288   3.186  12.787   6.334
18172SOL     OW56289   2.026  11.973   2.619
18172SOL    HW156290   1.960  11.978   2.549
18172SOL    HW256291   1.980  11.933   2.692
18173SOL     OW56292  13.436   9.069  11.520
18173SOL    HW156293  13.523   9.049  11.555
18173SOL    HW256294  13.414   8.993  11.465
18174SOL     OW56295   0.462   6.826  12.130
18174SOL    HW156296   0.453   6.885  12.055
18174SOL    HW256297   0.532   6.864  12.183
18175SOL     OW56298   5.683  14.504  12.712
18175SOL    HW156299   5.643  14.498  12.625
18175SOL    HW256300   5.770  14.466  12.701
18176SOL     OW56301   5.816   6.608   1.961
18176SOL    HW156302   5.906   6.580   1.945
18176SOL    HW256303   5.784   6.633   1.875
18177SOL     OW56304   8.890  12.082   1.271
18177SOL    HW156305   8.850  12.107   1.355
18177SOL    HW256306   8.973  12.129   1.270
18178SOL     OW56307  13.622   3.084   8.245
18178SOL    HW156308  13.592   3.023   8.177
18178SOL    HW256309  13.680   3.032   8.301
18179SOL     OW56310  11.204   6.006   9.287
18179SOL    HW156311  11.292   6.045   9.283
18179SOL    HW256312  11.181   5.991   9.195
18180SOL     OW56313   9.977  10.893   2.676
18180SOL    HW156314   9.903  10.906   2.736
18180SOL    HW256315   9.976  10.799   2.658
18181SOL     OW56316   7.235   9.984  14.865
18181SOL    HW156317   7.229  10.035   0.068
18181SOL    HW256318   7.175  10.027  14.804
18182SOL     OW56319  11.052   1.799  11.171
18182SOL    HW156320  11.102   1.718  11.183
18182SOL    HW256321  10.964   1.769  11.148
18183SOL     OW56322   9.515   6.224   0.856
18183SOL    HW156323   9.573   6.275   0.800
18183SOL    HW256324   9.502   6.279   0.933
18184SOL     OW56325   9.327   1.567  14.445
18184SOL    HW156326   9.236   1.541  14.429
18184SOL    HW256327   9.352   1.617  14.368
18185SOL     OW56328  12.453   3.450   7.379
18185SOL    HW156329  12.504   3.451   7.298
18185SOL    HW256330  12.438   3.543   7.398
18186SOL     OW56331  13.729   3.086  12.808
18186SOL    HW156332  13.709   3.167  12.761
18186SOL    HW256333  13.653   3.072  12.865
18187SOL     OW56334   3.753   7.635   9.388
18187SOL    HW156335   3.696   7.591   9.452
18187SOL    HW256336   3.714   7.614   9.303
18188SOL     OW56337   6.558  12.250  11.850
18188SOL    HW156338   6.472  12.293  11.849
18188SOL    HW256339   6.576  12.231  11.758
18189SOL     OW56340   2.116   1.474  11.359
18189SOL    HW156341   2.131   1.529  11.283
18189SOL    HW256342   2.107   1.535  11.432
18190SOL     OW56343   8.140   6.058   0.017
18190SOL    HW156344   8.145   6.153   0.030
18190SOL    HW256345   8.213   6.038  14.835
18191SOL     OW56346  10.718   5.524  12.012
18191SOL    HW156347  10.730   5.460  11.942
18191SOL    HW256348  10.785   5.502  12.077
18192SOL     OW56349   6.195   3.583   3.281
18192SOL    HW156350   6.194   3.656   3.219
18192SOL    HW256351   6.283   3.546   3.272
18193SOL     OW56352   8.340  10.096  12.906
18193SOL    HW156353   8.359  10.155  12.833
18193SOL    HW256354   8.344  10.152  12.984
18194SOL     OW56355   8.021  13.533  13.154
18194SOL    HW156356   8.054  13.468  13.093
18194SOL    HW256357   7.965  13.483  13.214
18195SOL     OW56358   5.351  12.132   1.449
18195SOL    HW156359   5.439  12.151   1.417
18195SOL    HW256360   5.323  12.055   1.400
18196SOL     OW56361   0.220   6.218  12.007
18196SOL    HW156362   0.302   6.185  12.045
18196SOL    HW256363   0.239   6.309  11.986
18197SOL     OW56364   5.079   6.317  12.953
18197SOL    HW156365   5.006   6.348  12.899
18197SOL    HW256366   5.038   6.282  13.032
18198SOL     OW56367   6.202   8.843   1.938
18198SOL    HW156368   6.119   8.856   1.984
18198SOL    HW256369   6.269   8.845   2.006
18199SOL     OW56370  13.628  12.652   0.082
18199SOL    HW156371  13.567  12.595   0.129
18199SOL    HW256372  13.583  12.672  14.877
18200SOL     OW56373   2.222   4.569   9.065
18200SOL    HW156374   2.177   4.635   9.012
18200SOL    HW256375   2.299   4.615   9.100
18201SOL     OW56376   1.978   3.356   9.893
18201SOL    HW156377   1.989   3.322   9.982
18201SOL    HW256378   2.056   3.326   9.846
18202SOL     OW56379  11.289   1.089   4.523
18202SOL    HW156380  11.304   1.009   4.573
18202SOL    HW256381  11.254   1.151   4.586
18203SOL     OW56382  10.412   1.817  10.931
18203SOL    HW156383  10.448   1.902  10.905
18203SOL    HW256384  10.379   1.780  10.850
18204SOL     OW56385   9.413   9.638  10.036
18204SOL    HW156386   9.413   9.728  10.004
18204SOL    HW256387   9.439   9.586   9.960
18205SOL     OW56388  12.763   3.994   7.308
18205SOL    HW156389  12.812   3.969   7.229
18205SOL    HW256390  12.671   3.987   7.282
18206SOL     OW56391   4.142   4.635   8.183
18206SOL    HW156392   4.150   4.679   8.268
18206SOL    HW256393   4.092   4.555   8.202
18207SOL     OW56394  12.041   0.138   3.756
18207SOL    HW156395  12.097   0.073   3.798
18207SOL    HW256396  12.009   0.095   3.677
18208SOL     OW56397   5.006  13.712  12.649
18208SOL    HW156398   4.911  13.713  12.658
18208SOL    HW256399   5.021  13.673  12.563
18209SOL     OW56400   8.821   5.968   7.504
18209SOL    HW156401   8.821   6.005   7.593
18209SOL    HW256402   8.899   6.006   7.463
18210SOL     OW56403   0.733   1.868   4.965
18210SOL    HW156404   0.713   1.789   4.916
18210SOL    HW256405   0.709   1.940   4.906
18211SOL     OW56406  12.490  11.155  10.991
18211SOL    HW156407  12.455  11.237  10.958
18211SOL    HW256408  12.439  11.136  11.070
18212SOL     OW56409   6.647   7.048  10.773
18212SOL    HW156410   6.652   7.125  10.717
18212SOL    HW256411   6.555   7.045  10.801
18213SOL     OW56412   5.882  11.014   6.704
18213SOL    HW156413   5.844  10.987   6.620
18213SOL    HW256414   5.810  11.058   6.750
18214SOL     OW56415   6.720   7.201   3.022
18214SOL    HW156416   6.813   7.202   3.042
18214SOL    HW256417   6.679   7.173   3.104
18215SOL     OW56418  11.252  13.815   4.514
18215SOL    HW156419  11.307  13.885   4.482
18215SOL    HW256420  11.167  13.856   4.531
18216SOL     OW56421   4.725   1.801   1.938
18216SOL    HW156422   4.706   1.791   1.844
18216SOL    HW256423   4.819   1.819   1.941
18217SOL     OW56424   8.856  12.374   6.579
18217SOL    HW156425   8.938  12.327   6.565
18217SOL    HW256426   8.809  12.320   6.643
18218SOL     OW56427   0.864   5.516  13.436
18218SOL    HW156428   0.878   5.467  13.517
18218SOL    HW256429   0.797   5.467  13.389
18219SOL     OW56430   0.468   1.740  14.484
18219SOL    HW156431   0.510   1.759  14.568
18219SOL    HW256432   0.398   1.679  14.505
18220SOL     OW56433   6.046  13.642   5.300
18220SOL    HW156434   6.008  13.623   5.386
18220SOL    HW256435   6.063  13.736   5.302
18221SOL     OW56436   1.815   3.683   1.533
18221SOL    HW156437   1.883   3.744   1.504
18221SOL    HW256438   1.863   3.611   1.573
18222SOL     OW56439  11.717   9.820  11.366
18222SOL    HW156440  11.669   9.853  11.442
18222SOL    HW256441  11.800   9.788  11.403
18223SOL     OW56442  11.769   9.673  11.798
18223SOL    HW156443  11.843   9.711  11.846
18223SOL    HW256444  11.775   9.579  11.817
18224SOL     OW56445   4.604  10.239   1.453
18224SOL    HW156446   4.683  10.214   1.501
18224SOL    HW256447   4.550  10.160   1.453
18225SOL     OW56448  12.795   0.809  14.051
18225SOL    HW156449  12.816   0.826  14.143
18225SOL    HW256450  12.724   0.869  14.030
18226SOL     OW56451  10.576  10.496   9.949
18226SOL    HW156452  10.481  10.480   9.948
18226SOL    HW256453  10.611  10.426  10.004
18227SOL     OW56454   6.395   9.387   9.225
18227SOL    HW156455   6.443   9.363   9.304
18227SOL    HW256456   6.349   9.468   9.249
18228SOL     OW56457   6.633   7.558   4.601
18228SOL    HW156458   6.544   7.592   4.596
18228SOL    HW256459   6.624   7.464   4.583
18229SOL     OW56460  12.647   1.899  11.433
18229SOL    HW156461  12.615   1.984  11.402
18229SOL    HW256462  12.740   1.899  11.410
18230SOL     OW56463   8.640   9.887   9.778
18230SOL    HW156464   8.726   9.872   9.817
18230SOL    HW256465   8.578   9.868   9.849
18231SOL     OW56466  12.801   0.086   2.081
18231SOL    HW156467  12.810   0.159   2.019
18231SOL    HW256468  12.733   0.116   2.142
18232SOL     OW56469   1.334   0.775   7.023
18232SOL    HW156470   1.373   0.819   6.947
18232SOL    HW256471   1.357   0.682   7.012
18233SOL     OW56472  12.992   4.683   4.550
18233SOL    HW156473  13.047   4.762   4.556
18233SOL    HW256474  13.049   4.612   4.577
18234SOL     OW56475   3.421   2.033  10.921
18234SOL    HW156476   3.463   1.997  11.000
18234SOL    HW256477   3.442   2.126  10.924
18235SOL     OW56478   8.466   1.054   8.246
18235SOL    HW156479   8.550   1.016   8.272
18235SOL    HW256480   8.464   1.044   8.151
18236SOL     OW56481   3.039   8.512  13.416
18236SOL    HW156482   3.099   8.455  13.368
18236SOL    HW256483   2.960   8.460  13.427
18237SOL     OW56484  11.367  10.926   8.457
18237SOL    HW156485  11.417  11.001   8.491
18237SOL    HW256486  11.325  10.888   8.535
18238SOL     OW56487   9.214   4.934   2.905
18238SOL    HW156488   9.164   4.907   2.827
18238SOL    HW256489   9.164   4.899   2.978
18239SOL     OW56490   5.299   3.145   2.678
18239SOL    HW156491   5.371   3.097   2.637
18239SOL    HW256492   5.287   3.222   2.623
18240SOL     OW56493   7.670   9.679   3.414
18240SOL    HW156494   7.618   9.648   3.488
18240SOL    HW256495   7.636   9.631   3.339
18241SOL     OW56496  12.376   0.127   1.801
18241SOL    HW156497  12.318   0.119   1.877
18241SOL    HW256498  12.438   0.054   1.810
18242SOL     OW56499   1.028   6.374  14.411
18242SOL    HW156500   0.936   6.387  14.434
18242SOL    HW256501   1.055   6.457  14.370
18243SOL     OW56502   8.911  10.354   4.756
18243SOL    HW156503   8.936  10.337   4.665
18243SOL    HW256504   8.983  10.320   4.808
18244SOL     OW56505   5.292   7.901   6.933
18244SOL    HW156506   5.368   7.950   6.966
18244SOL    HW256507   5.288   7.823   6.988
18245SOL     OW56508   9.181   9.991   4.466
18245SOL    HW156509   9.212   9.908   4.431
18245SOL    HW256510   9.223   9.998   4.552
18246SOL     OW56511   9.446   4.358  12.084
18246SOL    HW156512   9.488   4.335  12.001
18246SOL    HW256513   9.430   4.452  12.077
18247SOL     OW56514   1.987   8.516   0.499
18247SOL    HW156515   2.082   8.507   0.499
18247SOL    HW256516   1.958   8.470   0.420
18248SOL     OW56517   7.719   0.174  13.445
18248SOL    HW156518   7.682   0.244  13.499
18248SOL    HW256519   7.734   0.102  13.506
18249SOL     OW56520   6.087  10.638  12.505
18249SOL    HW156521   6.034  10.568  12.544
18249SOL    HW256522   6.178  10.614  12.527
18250SOL     OW56523   7.718  13.615   5.688
18250SOL    HW156524   7.639  13.587   5.642
18250SOL    HW256525   7.689  13.692   5.739
18251SOL     OW56526   6.273   1.807   5.745
18251SOL    HW156527   6.340   1.740   5.754
18251SOL    HW256528   6.298   1.876   5.807
18252SOL     OW56529   3.599   5.804   3.961
18252SOL    HW156530   3.611   5.710   3.950
18252SOL    HW256531   3.665   5.843   3.903
18253SOL     OW56532  11.080  13.384   8.330
18253SOL    HW156533  11.039  13.342   8.406
18253SOL    HW256534  11.008  13.394   8.267
18254SOL     OW56535   9.046  10.107  12.323
18254SOL    HW156536   9.002  10.082  12.242
18254SOL    HW256537   8.976  10.145  12.377
18255SOL     OW56538   4.015   9.728   5.308
18255SOL    HW156539   4.037   9.686   5.391
18255SOL    HW256540   3.977   9.812   5.333
18256SOL     OW56541   4.120   6.816  13.717
18256SOL    HW156542   4.030   6.847  13.716
18256SOL    HW256543   4.160   6.853  13.638
18257SOL     OW56544  14.679  14.088   9.636
18257SOL    HW156545  14.588  14.078   9.667
18257SOL    HW256546  14.692  14.182   9.630
18258SOL     OW56547   5.438   5.125  11.277
18258SOL    HW156548   5.401   5.046  11.237
18258SOL    HW256549   5.524   5.098  11.310
18259SOL     OW56550   4.256  11.865  14.135
18259SOL    HW156551   4.189  11.847  14.202
18259SOL    HW256552   4.263  11.960  14.132
18260SOL     OW56553   9.298   8.267  13.095
18260SOL    HW156554   9.209   8.264  13.059
18260SOL    HW256555   9.303   8.190  13.152
18261SOL     OW56556  13.127   8.737   5.565
18261SOL    HW156557  13.128   8.731   5.660
18261SOL    HW256558  13.080   8.818   5.546
18262SOL     OW56559   1.166   3.430  11.664
18262SOL    HW156560   1.179   3.461  11.575
18262SOL    HW256561   1.170   3.509  11.718
18263SOL     OW56562  11.570   3.493  13.194
18263SOL    HW156563  11.541   3.584  13.202
18263SOL    HW256564  11.519   3.458  13.121
18264SOL     OW56565  14.565   4.578   8.268
18264SOL    HW156566  14.654   4.610   8.264
18264SOL    HW256567  14.533   4.583   8.177
18265SOL     OW56568   5.609  12.143   0.659
18265SOL    HW156569   5.696  12.177   0.677
18265SOL    HW256570   5.619  12.094   0.577
18266SOL     OW56571   0.570   1.816   1.923
18266SOL    HW156572   0.626   1.858   1.858
18266SOL    HW256573   0.535   1.738   1.879
18267SOL     OW56574  11.116  11.156  12.212
18267SOL    HW156575  11.132  11.160  12.306
18267SOL    HW256576  11.177  11.090  12.179
18268SOL     OW56577  13.147   8.313   5.117
18268SOL    HW156578  13.169   8.286   5.206
18268SOL    HW256579  13.053   8.297   5.110
18269SOL     OW56580   8.119   5.320   4.738
18269SOL    HW156581   8.209   5.323   4.772
18269SOL    HW256582   8.129   5.304   4.644
18270SOL     OW56583  11.323  11.494   6.036
18270SOL    HW156584  11.398  11.543   6.069
18270SOL    HW256585  11.359  11.438   5.967
18271SOL     OW56586   7.137   7.100  13.613
18271SOL    HW156587   7.210   7.046  13.646
18271SOL    HW256588   7.174   7.143  13.536
18272SOL     OW56589   7.079   8.624   8.784
18272SOL    HW156590   7.074   8.699   8.724
18272SOL    HW256591   7.140   8.651   8.852
18273SOL     OW56592  13.110   3.840  13.087
18273SOL    HW156593  13.105   3.906  13.156
18273SOL    HW256594  13.160   3.883  13.017
18274SOL     OW56595   3.183   4.467  10.744
18274SOL    HW156596   3.276   4.449  10.755
18274SOL    HW256597   3.176   4.505  10.656
18275SOL     OW56598   7.204  13.571  14.716
18275SOL    HW156599   7.257  13.633  14.765
18275SOL    HW256600   7.245  13.486  14.733
18276SOL     OW56601  11.771  10.382   2.415
18276SOL    HW156602  11.721  10.379   2.334
18276SOL    HW256603  11.704  10.388   2.484
18277SOL     OW56604   4.528   1.448   3.524
18277SOL    HW156605   4.524   1.541   3.547
18277SOL    HW256606   4.607   1.440   3.471
18278SOL     OW56607   2.123  14.265   0.032
18278SOL    HW156608   2.121  14.174   0.060
18278SOL    HW256609   2.035  14.298   0.051
18279SOL     OW56610   1.538   8.092  11.721
18279SOL    HW156611   1.597   8.020  11.745
18279SOL    HW256612   1.488   8.058  11.647
18280SOL     OW56613   7.039  12.635   3.430
18280SOL    HW156614   7.033  12.631   3.335
18280SOL    HW256615   7.131  12.614   3.449
18281SOL     OW56616   1.306  10.847   2.453
18281SOL    HW156617   1.223  10.808   2.479
18281SOL    HW256618   1.331  10.800   2.373
18282SOL     OW56619   1.188   9.705   5.866
18282SOL    HW156620   1.124   9.752   5.813
18282SOL    HW256621   1.207   9.626   5.816
18283SOL     OW56622   1.518   0.975   0.601
18283SOL    HW156623   1.596   0.964   0.655
18283SOL    HW256624   1.545   0.946   0.514
18284SOL     OW56625   1.281   8.334  12.796
18284SOL    HW156626   1.201   8.373  12.832
18284SOL    HW256627   1.334   8.314  12.873
18285SOL     OW56628  14.545   2.250   7.595
18285SOL    HW156629  14.622   2.241   7.540
18285SOL    HW256630  14.535   2.164   7.637
18286SOL     OW56631  11.537   5.112   0.758
18286SOL    HW156632  11.499   5.063   0.830
18286SOL    HW256633  11.542   5.050   0.686
18287SOL     OW56634  10.820  10.782   8.341
18287SOL    HW156635  10.904  10.740   8.356
18287SOL    HW256636  10.768  10.759   8.418
18288SOL     OW56637   1.934   9.173  11.095
18288SOL    HW156638   1.951   9.123  11.015
18288SOL    HW256639   1.935   9.108  11.165
18289SOL     OW56640  13.690   3.508   7.580
18289SOL    HW156641  13.649   3.426   7.551
18289SOL    HW256642  13.633   3.540   7.650
18290SOL     OW56643  11.009   2.519  14.065
18290SOL    HW156644  11.064   2.595  14.044
18290SOL    HW256645  10.921   2.556  14.077
18291SOL     OW56646   9.631   3.261  13.553
18291SOL    HW156647   9.673   3.178  13.529
18291SOL    HW256648   9.658   3.322  13.485
18292SOL     OW56649   3.207   7.664   2.635
18292SOL    HW156650   3.132   7.621   2.595
18292SOL    HW256651   3.216   7.622   2.720
18293SOL     OW56652   0.216  14.431   5.749
18293SOL    HW156653   0.254  14.371   5.685
18293SOL    HW256654   0.250  14.402   5.833
18294SOL     OW56655  13.381   1.671   0.622
18294SOL    HW156656  13.423   1.596   0.663
18294SOL    HW256657  13.338   1.717   0.695
18295SOL     OW56658   0.869  14.872  12.844
18295SOL    HW156659   0.889   0.088  12.849
18295SOL    HW256660   0.952  14.829  12.865
18296SOL     OW56661   9.967   6.560  13.478
18296SOL    HW156662  10.035   6.557  13.545
18296SOL    HW256663  10.015   6.569  13.395
18297SOL     OW56664   4.447  12.203  12.879
18297SOL    HW156665   4.358  12.178  12.905
18297SOL    HW256666   4.465  12.149  12.802
18298SOL     OW56667  12.747   2.944   2.652
18298SOL    HW156668  12.803   2.871   2.679
18298SOL    HW256669  12.775   2.965   2.563
18299SOL     OW56670   1.706   3.416  11.926
18299SOL    HW156671   1.750   3.487  11.880
18299SOL    HW256672   1.682   3.454  12.011
18300SOL     OW56673   2.061  12.145   9.381
18300SOL    HW156674   2.150  12.113   9.396
18300SOL    HW256675   2.005  12.070   9.400
18301SOL     OW56676  11.810   5.223  13.452
18301SOL    HW156677  11.843   5.299  13.404
18301SOL    HW256678  11.724   5.250  13.484
18302SOL     OW56679  14.518   6.143   1.265
18302SOL    HW156680  14.517   6.191   1.348
18302SOL    HW256681  14.436   6.167   1.222
18303SOL     OW56682   7.282   6.423   8.780
18303SOL    HW156683   7.314   6.341   8.740
18303SOL    HW256684   7.361   6.464   8.815
18304SOL     OW56685   3.569  14.533  14.557
18304SOL    HW156686   3.611  14.473  14.496
18304SOL    HW256687   3.621  14.613  14.551
18305SOL     OW56688  11.337  10.465   3.279
18305SOL    HW156689  11.342  10.517   3.360
18305SOL    HW256690  11.296  10.524   3.216
18306SOL     OW56691   4.389  11.731   7.006
18306SOL    HW156692   4.442  11.801   7.045
18306SOL    HW256693   4.355  11.682   7.080
18307SOL     OW56694   0.096   1.507   9.191
18307SOL    HW156695   0.117   1.540   9.103
18307SOL    HW256696   0.134   1.419   9.193
18308SOL     OW56697   1.445   5.213   1.629
18308SOL    HW156698   1.470   5.148   1.695
18308SOL    HW256699   1.444   5.164   1.547
18309SOL     OW56700   6.016   5.122   3.877
18309SOL    HW156701   6.018   5.190   3.945
18309SOL    HW256702   6.094   5.069   3.894
18310SOL     OW56703   4.969   1.528  12.222
18310SOL    HW156704   5.034   1.477  12.271
18310SOL    HW256705   4.911   1.462  12.183
18311SOL     OW56706  10.864  14.877   6.401
18311SOL    HW156707  10.953  14.847   6.419
18311SOL    HW256708  10.828   0.021   6.487
18312SOL     OW56709   1.312  11.221   1.046
18312SOL    HW156710   1.223  11.218   1.012
18312SOL    HW256711   1.309  11.166   1.125
18313SOL     OW56712   6.336   1.311  13.540
18313SOL    HW156713   6.393   1.266  13.602
18313SOL    HW256714   6.387   1.388  13.512
18314SOL     OW56715  11.350   0.170   8.493
18314SOL    HW156716  11.410   0.100   8.516
18314SOL    HW256717  11.264   0.128   8.492
18315SOL     OW56718  10.947   5.216  12.008
18315SOL    HW156719  10.888   5.205  12.083
18315SOL    HW256720  10.900   5.176  11.935
18316SOL     OW56721   8.351   3.196   9.989
18316SOL    HW156722   8.385   3.285   9.981
18316SOL    HW256723   8.387   3.149   9.913
18317SOL     OW56724  11.221   3.298   0.366
18317SOL    HW156725  11.297   3.301   0.307
18317SOL    HW256726  11.145   3.301   0.307
18318SOL     OW56727   4.953  12.634  14.040
18318SOL    HW156728   5.021  12.579  14.080
18318SOL    HW256729   4.974  12.634  13.947
18319SOL     OW56730   4.469   4.401  13.563
18319SOL    HW156731   4.454   4.424  13.471
18319SOL    HW256732   4.382   4.402  13.602
18320SOL     OW56733   6.194   1.635   1.857
18320SOL    HW156734   6.206   1.700   1.787
18320SOL    HW256735   6.136   1.569   1.818
18321SOL     OW56736   3.351  12.624   4.928
18321SOL    HW156737   3.357  12.606   4.834
18321SOL    HW256738   3.265  12.591   4.953
18322SOL     OW56739  14.679   7.826   2.743
18322SOL    HW156740  14.627   7.806   2.665
18322SOL    HW256741  14.639   7.775   2.813
18323SOL     OW56742   0.660  11.029   7.747
18323SOL    HW156743   0.680  11.069   7.832
18323SOL    HW256744   0.640  11.102   7.690
18324SOL     OW56745   4.473   3.025   6.513
18324SOL    HW156746   4.391   3.073   6.499
18324SOL    HW256747   4.540   3.081   6.475
18325SOL     OW56748   9.320  12.845   1.824
18325SOL    HW156749   9.388  12.861   1.759
18325SOL    HW256750   9.365  12.794   1.892
18326SOL     OW56751  10.004  13.025   3.343
18326SOL    HW156752  10.013  13.078   3.264
18326SOL    HW256753  10.054  13.073   3.410
18327SOL     OW56754   1.232   3.786  11.235
18327SOL    HW156755   1.143   3.814  11.257
18327SOL    HW256756   1.284   3.866  11.239
18328SOL     OW56757   8.042  12.574   4.818
18328SOL    HW156758   8.025  12.591   4.911
18328SOL    HW256759   8.082  12.487   4.817
18329SOL     OW56760  14.034  13.285   7.285
18329SOL    HW156761  14.074  13.327   7.209
18329SOL    HW256762  14.107  13.271   7.346
18330SOL     OW56763  11.986   2.748  10.092
18330SOL    HW156764  11.892   2.764  10.084
18330SOL    HW256765  12.004   2.757  10.186
18331SOL     OW56766  12.877   7.661   4.039
18331SOL    HW156767  12.944   7.638   4.103
18331SOL    HW256768  12.818   7.720   4.086
18332SOL     OW56769   5.704  13.208   5.883
18332SOL    HW156770   5.660  13.195   5.967
18332SOL    HW256771   5.780  13.149   5.886
18333SOL     OW56772   2.495  14.846   2.252
18333SOL    HW156773   2.434  14.866   2.322
18333SOL    HW256774   2.564   0.035   2.260
18334SOL     OW56775  11.938  11.614  14.582
18334SOL    HW156776  12.001  11.651  14.643
18334SOL    HW256777  11.949  11.519  14.592
18335SOL     OW56778  14.675  14.446  10.027
18335SOL    HW156779  14.737  14.378  10.055
18335SOL    HW256780  14.603  14.398   9.988
18336SOL     OW56781   1.829   1.630  11.398
18336SOL    HW156782   1.892   1.663  11.462
18336SOL    HW256783   1.880   1.572  11.342
18337SOL     OW56784  12.875   1.269   1.218
18337SOL    HW156785  12.902   1.238   1.304
18337SOL    HW256786  12.903   1.361   1.216
18338SOL     OW56787   4.280  14.392  11.897
18338SOL    HW156788   4.247  14.416  11.810
18338SOL    HW256789   4.375  14.382  11.884
18339SOL     OW56790   9.874   5.972  13.839
18339SOL    HW156791   9.914   6.014  13.763
18339SOL    HW256792   9.921   6.009  13.914
18340SOL     OW56793   4.983   9.793  11.927
18340SOL    HW156794   5.026   9.841  11.998
18340SOL    HW256795   5.026   9.707  11.927
18341SOL     OW56796   9.597  10.727   1.291
18341SOL    HW156797   9.663  10.758   1.228
18341SOL    HW256798   9.561  10.648   1.251
18342SOL     OW56799   4.833  11.988   4.794
18342SOL    HW156800   4.898  11.926   4.763
18342SOL    HW256801   4.750  11.941   4.789
18343SOL     OW56802  10.982   4.645  10.891
18343SOL    HW156803  10.929   4.598  10.827
18343SOL    HW256804  11.030   4.577  10.937
18344SOL     OW56805  12.466   5.864   6.863
18344SOL    HW156806  12.414   5.794   6.824
18344SOL    HW256807  12.543   5.820   6.898
18345SOL     OW56808   4.302  12.185   7.707
18345SOL    HW156809   4.377  12.243   7.691
18345SOL    HW256810   4.275  12.206   7.796
18346SOL     OW56811  10.412   3.823  11.769
18346SOL    HW156812  10.330   3.817  11.817
18346SOL    HW256813  10.418   3.742  11.719
18347SOL     OW56814  13.261  12.709   7.733
18347SOL    HW156815  13.244  12.769   7.806
18347SOL    HW256816  13.211  12.630   7.754
18348SOL     OW56817   8.301  12.153  11.682
18348SOL    HW156818   8.320  12.062  11.706
18348SOL    HW256819   8.315  12.201  11.764
18349SOL     OW56820  11.608   6.589   2.645
18349SOL    HW156821  11.535   6.537   2.612
18349SOL    HW256822  11.639   6.541   2.721
18350SOL     OW56823   7.375   9.966   0.452
18350SOL    HW156824   7.358  10.060   0.455
18350SOL    HW256825   7.459   9.955   0.498
18351SOL     OW56826  13.299  11.122   2.840
18351SOL    HW156827  13.286  11.204   2.887
18351SOL    HW256828  13.390  11.098   2.857
18352SOL     OW56829   3.574   2.524   3.712
18352SOL    HW156830   3.521   2.447   3.691
18352SOL    HW256831   3.664   2.496   3.692
18353SOL     OW56832  13.911   0.478   8.399
18353SOL    HW156833  13.967   0.490   8.475
18353SOL    HW256834  13.970   0.453   8.328
18354SOL     OW56835   8.941   2.637   0.917
18354SOL    HW156836   9.007   2.582   0.959
18354SOL    HW256837   8.896   2.680   0.990
18355SOL     OW56838   6.604   9.893   9.384
18355SOL    HW156839   6.644   9.810   9.359
18355SOL    HW256840   6.674   9.957   9.375
18356SOL     OW56841  10.998  12.522   5.945
18356SOL    HW156842  10.960  12.601   5.983
18356SOL    HW256843  11.005  12.461   6.019
18357SOL     OW56844   9.540  14.103   4.940
18357SOL    HW156845   9.530  14.009   4.924
18357SOL    HW256846   9.611  14.108   5.004
18358SOL     OW56847   0.404   0.100   7.450
18358SOL    HW156848   0.339   0.032   7.430
18358SOL    HW256849   0.377   0.175   7.396
18359SOL     OW56850   0.491  11.524  13.168
18359SOL    HW156851   0.448  11.560  13.091
18359SOL    HW256852   0.451  11.570  13.242
18360SOL     OW56853   5.416   6.402   1.149
18360SOL    HW156854   5.347   6.363   1.203
18360SOL    HW256855   5.495   6.396   1.203
18361SOL     OW56856  14.150   3.510  13.435
18361SOL    HW156857  14.087   3.495  13.364
18361SOL    HW256858  14.185   3.423  13.454
18362SOL     OW56859   3.523  14.012   5.968
18362SOL    HW156860   3.548  13.931   6.013
18362SOL    HW256861   3.589  14.022   5.899
18363SOL     OW56862   5.316   0.812  10.096
18363SOL    HW156863   5.258   0.742  10.125
18363SOL    HW256864   5.258   0.877  10.056
18364SOL     OW56865   7.680   9.217  11.728
18364SOL    HW156866   7.774   9.221  11.710
18364SOL    HW256867   7.656   9.126  11.713
18365SOL     OW56868   2.300  13.136   5.724
18365SOL    HW156869   2.234  13.177   5.780
18365SOL    HW256870   2.384  13.161   5.762
18366SOL     OW56871  10.646  14.753   2.299
18366SOL    HW156872  10.711  14.824   2.301
18366SOL    HW256873  10.640  14.724   2.390
18367SOL     OW56874  14.592   2.718   1.297
18367SOL    HW156875  14.656   2.648   1.313
18367SOL    HW256876  14.605   2.779   1.370
18368SOL     OW56877   2.721   7.213  10.453
18368SOL    HW156878   2.724   7.303  10.485
18368SOL    HW256879   2.637   7.206  10.408
18369SOL     OW56880   5.851  12.943   4.685
18369SOL    HW156881   5.854  12.863   4.632
18369SOL    HW256882   5.846  12.912   4.775
18370SOL     OW56883  13.508   9.956  13.773
18370SOL    HW156884  13.495   9.905  13.853
18370SOL    HW256885  13.538  10.042  13.804
18371SOL     OW56886  12.379  10.591   1.053
18371SOL    HW156887  12.402  10.542   1.132
18371SOL    HW256888  12.452  10.577   0.994
18372SOL     OW56889   5.163  12.167   4.650
18372SOL    HW156890   5.244  12.164   4.702
18372SOL    HW256891   5.093  12.170   4.716
18373SOL     OW56892  13.643  12.408  14.176
18373SOL    HW156893  13.614  12.401  14.267
18373SOL    HW256894  13.716  12.347  14.170
18374SOL     OW56895  10.137   1.181   2.550
18374SOL    HW156896  10.165   1.255   2.495
18374SOL    HW256897  10.178   1.197   2.634
18375SOL     OW56898   3.273   4.518  13.739
18375SOL    HW156899   3.339   4.451  13.725
18375SOL    HW256900   3.319   4.601  13.726
18376SOL     OW56901   5.409   6.220  12.239
18376SOL    HW156902   5.391   6.135  12.281
18376SOL    HW256903   5.336   6.276  12.267
18377SOL     OW56904   5.823  14.390   8.393
18377SOL    HW156905   5.832  14.376   8.487
18377SOL    HW256906   5.768  14.468   8.385
18378SOL     OW56907   8.296  14.309  11.354
18378SOL    HW156908   8.296  14.230  11.301
18378SOL    HW256909   8.267  14.378  11.294
18379SOL     OW56910   6.693   7.775   7.180
18379SOL    HW156911   6.773   7.816   7.215
18379SOL    HW256912   6.712   7.759   7.088
18380SOL     OW56913   1.150   5.960   5.707
18380SOL    HW156914   1.107   5.884   5.666
18380SOL    HW256915   1.118   6.035   5.657
18381SOL     OW56916  12.843  10.539   4.699
18381SOL    HW156917  12.851  10.625   4.656
18381SOL    HW256918  12.900  10.546   4.776
18382SOL     OW56919   8.976   5.287   6.176
18382SOL    HW156920   9.044   5.229   6.140
18382SOL    HW256921   8.931   5.233   6.241
18383SOL     OW56922   8.348   4.589   8.024
18383SOL    HW156923   8.291   4.666   8.024
18383SOL    HW256924   8.405   4.602   7.948
18384SOL     OW56925   6.152  12.933   1.092
18384SOL    HW156926   6.103  13.005   1.132
18384SOL    HW256927   6.230  12.974   1.054
18385SOL     OW56928   5.409  10.872   7.158
18385SOL    HW156929   5.472  10.866   7.086
18385SOL    HW256930   5.448  10.820   7.229
18386SOL     OW56931   8.070  11.358   4.423
18386SOL    HW156932   8.102  11.446   4.401
18386SOL    HW256933   8.143  11.316   4.468
18387SOL     OW56934  13.172  13.868  14.822
18387SOL    HW156935  13.250  13.913  14.853
18387SOL    HW256936  13.100  13.928  14.844
18388SOL     OW56937  10.718  14.399   4.137
18388SOL    HW156938  10.755  14.399   4.049
18388SOL    HW256939  10.753  14.320   4.178
18389SOL     OW56940  11.050   2.732   4.654
18389SOL    HW156941  11.049   2.748   4.748
18389SOL    HW256942  10.981   2.788   4.619
18390SOL     OW56943   2.892   7.428  10.978
18390SOL    HW156944   2.799   7.449  10.964
18390SOL    HW256945   2.921   7.493  11.042
18391SOL     OW56946   3.513  11.861   3.869
18391SOL    HW156947   3.473  11.825   3.790
18391SOL    HW256948   3.447  11.850   3.937
18392SOL     OW56949   8.573   6.990   9.695
18392SOL    HW156950   8.544   6.988   9.604
18392SOL    HW256951   8.623   7.072   9.702
18393SOL     OW56952   7.243   0.936  13.063
18393SOL    HW156953   7.318   0.995  13.052
18393SOL    HW256954   7.176   0.972  13.005
18394SOL     OW56955   2.164   1.144   3.403
18394SOL    HW156956   2.120   1.222   3.435
18394SOL    HW256957   2.155   1.080   3.473
18395SOL     OW56958  11.072   3.423   0.946
18395SOL    HW156959  11.069   3.517   0.963
18395SOL    HW256960  11.016   3.410   0.869
18396SOL     OW56961   2.525   8.751   8.387
18396SOL    HW156962   2.544   8.843   8.406
18396SOL    HW256963   2.557   8.738   8.297
18397SOL     OW56964  13.789   6.783   6.657
18397SOL    HW156965  13.713   6.813   6.707
18397SOL    HW256966  13.754   6.762   6.571
18398SOL     OW56967   8.607   1.492  12.463
18398SOL    HW156968   8.656   1.422  12.421
18398SOL    HW256969   8.536   1.447  12.509
18399SOL     OW56970   1.543   9.089   9.957
18399SOL    HW156971   1.500   9.078   9.872
18399SOL    HW256972   1.618   9.145   9.938
18400SOL     OW56973   6.606  11.385  14.529
18400SOL    HW156974   6.689  11.396  14.483
18400SOL    HW256975   6.540  11.409  14.464
18401SOL     OW56976   8.556   8.737  11.854
18401SOL    HW156977   8.589   8.779  11.933
18401SOL    HW256978   8.634   8.696  11.815
18402SOL     OW56979   4.122   5.436   4.193
18402SOL    HW156980   4.176   5.481   4.257
18402SOL    HW256981   4.070   5.505   4.152
18403SOL     OW56982   4.640   8.590   8.772
18403SOL    HW156983   4.617   8.498   8.766
18403SOL    HW256984   4.734   8.591   8.787
18404SOL     OW56985  13.573   2.177   4.358
18404SOL    HW156986  13.662   2.150   4.336
18404SOL    HW256987  13.567   2.165   4.453
18405SOL     OW56988  13.951   8.857   6.260
18405SOL    HW156989  14.014   8.876   6.190
18405SOL    HW256990  14.001   8.805   6.324
18406SOL     OW56991   4.883  11.016   9.763
18406SOL    HW156992   4.876  11.089   9.824
18406SOL    HW256993   4.857  11.052   9.678
18407SOL     OW56994  13.255   8.316  13.677
18407SOL    HW156995  13.323   8.273  13.729
18407SOL    HW256996  13.261   8.275  13.591
18408SOL     OW56997   7.663   4.961  12.824
18408SOL    HW156998   7.676   4.876  12.783
18408SOL    HW256999   7.568   4.973  12.827
18409SOL     OW57000  14.538  11.253   7.684
18409SOL    HW157001  14.494  11.170   7.670
18409SOL    HW257002  14.575  11.276   7.599
18410SOL     OW57003  13.460  11.161   8.866
18410SOL    HW157004  13.382  11.216   8.861
18410SOL    HW257005  13.474  11.130   8.776
18411SOL     OW57006  10.684   6.014   9.213
18411SOL    HW157007  10.627   5.996   9.138
18411SOL    HW257008  10.771   5.990   9.184
18412SOL     OW57009   2.715   4.095   3.537
18412SOL    HW157010   2.648   4.126   3.598
18412SOL    HW257011   2.778   4.167   3.532
18413SOL     OW57012   9.834   5.151   6.795
18413SOL    HW157013   9.847   5.084   6.861
18413SOL    HW257014   9.917   5.200   6.793
18414SOL     OW57015   0.369   7.616  14.310
18414SOL    HW157016   0.356   7.523  14.327
18414SOL    HW257017   0.316   7.661  14.376
18415SOL     OW57018   9.207   8.266   9.742
18415SOL    HW157019   9.284   8.304   9.698
18415SOL    HW257020   9.216   8.294   9.833
18416SOL     OW57021   1.615   9.182   6.634
18416SOL    HW157022   1.597   9.253   6.696
18416SOL    HW257023   1.546   9.189   6.568
18417SOL     OW57024   5.835   4.892  13.811
18417SOL    HW157025   5.791   4.917  13.730
18417SOL    HW257026   5.922   4.930  13.804
18418SOL     OW57027  12.845   0.713   5.947
18418SOL    HW157028  12.914   0.767   5.985
18418SOL    HW257029  12.800   0.675   6.022
18419SOL     OW57030  11.833   4.382   3.713
18419SOL    HW157031  11.817   4.306   3.658
18419SOL    HW257032  11.773   4.371   3.787
18420SOL     OW57033   5.129   4.666  14.834
18420SOL    HW157034   5.079   4.637  14.758
18420SOL    HW257035   5.064   4.703   0.016
18421SOL     OW57036   2.408   3.270   8.326
18421SOL    HW157037   2.400   3.280   8.231
18421SOL    HW257038   2.442   3.182   8.338
18422SOL     OW57039   4.827  10.668   6.666
18422SOL    HW157040   4.909  10.642   6.708
18422SOL    HW257041   4.829  10.763   6.667
18423SOL     OW57042  11.306   9.662   3.552
18423SOL    HW157043  11.246   9.649   3.625
18423SOL    HW257044  11.272   9.740   3.507
18424SOL     OW57045  12.509  13.969  12.565
18424SOL    HW157046  12.581  13.934  12.512
18424SOL    HW257047  12.477  14.044  12.515
18425SOL     OW57048   5.934   9.804   2.589
18425SOL    HW157049   5.937   9.896   2.563
18425SOL    HW257050   6.021   9.787   2.625
18426SOL     OW57051   6.713   3.771  11.145
18426SOL    HW157052   6.658   3.846  11.126
18426SOL    HW257053   6.653   3.703  11.173
18427SOL     OW57054   8.459  10.091   8.589
18427SOL    HW157055   8.377  10.049   8.617
18427SOL    HW257056   8.440  10.122   8.500
18428SOL     OW57057   8.513   1.426  12.004
18428SOL    HW157058   8.529   1.335  11.978
18428SOL    HW257059   8.423   1.444  11.976
18429SOL     OW57060   0.918  10.579   3.680
18429SOL    HW157061   0.974  10.626   3.742
18429SOL    HW257062   0.977  10.554   3.609
18430SOL     OW57063   3.393   7.111  14.369
18430SOL    HW157064   3.346   7.053  14.429
18430SOL    HW257065   3.360   7.198  14.389
18431SOL     OW57066  10.049  11.119  13.557
18431SOL    HW157067  10.138  11.108  13.590
18431SOL    HW257068  10.056  11.100  13.464
18432SOL     OW57069  11.246   9.049   4.768
18432SOL    HW157070  11.272   9.002   4.689
18432SOL    HW257071  11.319   9.108   4.786
18433SOL     OW57072   6.937  14.662   8.371
18433SOL    HW157073   7.031  14.648   8.373
18433SOL    HW257074   6.901  14.593   8.427
18434SOL     OW57075   1.682   7.587   1.816
18434SOL    HW157076   1.726   7.540   1.745
18434SOL    HW257077   1.754   7.623   1.868
18435SOL     OW57078   9.775  13.647   2.213
18435SOL    HW157079   9.729  13.639   2.297
18435SOL    HW257080   9.766  13.560   2.173
18436SOL     OW57081  10.445   9.460   6.436
18436SOL    HW157082  10.474   9.401   6.505
18436SOL    HW257083  10.496   9.434   6.359
18437SOL     OW57084   9.997   1.657   0.313
18437SOL    HW157085  10.091   1.673   0.311
18437SOL    HW257086   9.961   1.720   0.251
18438SOL     OW57087  11.792  12.096   4.882
18438SOL    HW157088  11.705  12.135   4.889
18438SOL    HW257089  11.805  12.084   4.788
18439SOL     OW57090   9.966   8.305   4.825
18439SOL    HW157091  10.048   8.265   4.856
18439SOL    HW257092   9.963   8.389   4.870
18440SOL     OW57093   2.724   3.159  10.898
18440SOL    HW157094   2.773   3.233  10.863
18440SOL    HW257095   2.654   3.144  10.834
18441SOL     OW57096   8.069  10.704   7.924
18441SOL    HW157097   8.124  10.626   7.915
18441SOL    HW257098   8.130  10.773   7.950
18442SOL     OW57099  13.448   3.306  10.032
18442SOL    HW157100  13.409   3.233   9.985
18442SOL    HW257101  13.459   3.375   9.967
18443SOL     OW57102   1.303  12.770   5.724
18443SOL    HW157103   1.390  12.760   5.763
18443SOL    HW257104   1.242  12.752   5.797
18444SOL     OW57105   1.789   1.221   6.684
18444SOL    HW157106   1.707   1.263   6.707
18444SOL    HW257107   1.857   1.275   6.724
18445SOL     OW57108  10.287   3.576  12.059
18445SOL    HW157109  10.377   3.598  12.082
18445SOL    HW257110  10.254   3.654  12.014
18446SOL     OW57111  12.777   8.587   1.105
18446SOL    HW157112  12.774   8.616   1.196
18446SOL    HW257113  12.764   8.667   1.054
18447SOL     OW57114   1.966  12.018   8.917
18447SOL    HW157115   2.023  12.014   8.994
18447SOL    HW257116   2.007  12.083   8.860
18448SOL     OW57117   4.353   5.225  10.579
18448SOL    HW157118   4.358   5.225  10.675
18448SOL    HW257119   4.260   5.215  10.560
18449SOL     OW57120   5.805   5.823  14.727
18449SOL    HW157121   5.724   5.772  14.734
18449SOL    HW257122   5.838   5.828  14.816
18450SOL     OW57123  12.305   3.720   1.765
18450SOL    HW157124  12.280   3.731   1.674
18450SOL    HW257125  12.317   3.810   1.798
18451SOL     OW57126   3.833   0.036   3.342
18451SOL    HW157127   3.892   0.004   3.410
18451SOL    HW257128   3.797  14.834   3.302
18452SOL     OW57129   4.224   4.971   3.844
18452SOL    HW157130   4.151   4.968   3.905
18452SOL    HW257131   4.187   4.941   3.761
18453SOL     OW57132  13.543   5.491  11.028
18453SOL    HW157133  13.492   5.424  10.982
18453SOL    HW257134  13.478   5.540  11.078
18454SOL     OW57135   5.846  14.299   8.147
18454SOL    HW157136   5.834  14.317   8.240
18454SOL    HW257137   5.840  14.203   8.141
18455SOL     OW57138   8.723   1.118   5.269
18455SOL    HW157139   8.652   1.143   5.209
18455SOL    HW257140   8.710   1.025   5.284
18456SOL     OW57141   5.869   3.148  14.032
18456SOL    HW157142   5.840   3.057  14.025
18456SOL    HW257143   5.951   3.143  14.083
18457SOL     OW57144   5.942  10.423   2.543
18457SOL    HW157145   5.914  10.371   2.468
18457SOL    HW257146   5.881  10.497   2.545
18458SOL     OW57147   9.521  14.686  10.628
18458SOL    HW157148   9.603  14.648  10.659
18458SOL    HW257149   9.503  14.758  10.689
18459SOL     OW57150   1.888   0.662  10.053
18459SOL    HW157151   1.858   0.699   9.970
18459SOL    HW257152   1.892   0.568  10.038
18460SOL     OW57153  12.258   5.076   3.584
18460SOL    HW157154  12.240   5.154   3.638
18460SOL    HW257155  12.228   5.003   3.637
18461SOL     OW57156   1.805   1.497   4.925
18461SOL    HW157157   1.752   1.569   4.890
18461SOL    HW257158   1.824   1.443   4.848
18462SOL     OW57159   4.659  13.818   5.310
18462SOL    HW157160   4.619  13.828   5.223
18462SOL    HW257161   4.726  13.750   5.297
18463SOL     OW57162   1.129   5.798   8.298
18463SOL    HW157163   1.220   5.825   8.300
18463SOL    HW257164   1.110   5.783   8.206
18464SOL     OW57165  12.033  12.232  14.250
18464SOL    HW157166  12.041  12.321  14.217
18464SOL    HW257167  11.939  12.220  14.263
18465SOL     OW57168  14.752   8.238  13.103
18465SOL    HW157169  14.712   8.230  13.190
18465SOL    HW257170  14.739   8.152  13.063
18466SOL     OW57171   8.228   3.214   8.236
18466SOL    HW157172   8.186   3.177   8.314
18466SOL    HW257173   8.202   3.156   8.165
18467SOL     OW57174  12.200  10.280   6.099
18467SOL    HW157175  12.123  10.319   6.060
18467SOL    HW257176  12.272  10.307   6.042
18468SOL     OW57177  14.626   6.643   8.030
18468SOL    HW157178  14.624   6.697   7.952
18468SOL    HW257179  14.702   6.586   8.018
18469SOL     OW57180   3.708  14.794  11.036
18469SOL    HW157181   3.663  14.740  10.971
18469SOL    HW257182   3.702  14.744  11.117
18470SOL     OW57183   3.772   1.526  11.597
18470SOL    HW157184   3.807   1.574  11.672
18470SOL    HW257185   3.766   1.590  11.527
18471SOL     OW57186   6.679   6.072   0.516
18471SOL    HW157187   6.605   6.095   0.571
18471SOL    HW257188   6.756   6.079   0.573
18472SOL     OW57189   6.294  14.491   1.961
18472SOL    HW157190   6.208  14.478   1.999
18472SOL    HW257191   6.281  14.557   1.893
18473SOL     OW57192   0.812  13.220   4.890
18473SOL    HW157193   0.832  13.289   4.954
18473SOL    HW257194   0.893  13.169   4.884
18474SOL     OW57195  12.185   7.225   8.163
18474SOL    HW157196  12.273   7.206   8.131
18474SOL    HW257197  12.146   7.280   8.096
18475SOL     OW57198   9.198   4.480  13.472
18475SOL    HW157199   9.261   4.451  13.537
18475SOL    HW257200   9.251   4.518  13.402
18476SOL     OW57201   4.385   0.738   3.002
18476SOL    HW157202   4.462   0.744   2.946
18476SOL    HW257203   4.344   0.824   2.996
18477SOL     OW57204  11.160   8.804   6.254
18477SOL    HW157205  11.184   8.821   6.345
18477SOL    HW257206  11.069   8.833   6.247
18478SOL     OW57207   4.949   7.499  11.949
18478SOL    HW157208   5.044   7.489  11.946
18478SOL    HW257209   4.916   7.434  11.887
18479SOL     OW57210   0.001   2.619  14.073
18479SOL    HW157211   0.071   2.554  14.076
18479SOL    HW257212  14.798   2.568  14.086
18480SOL     OW57213   1.619   9.342  12.652
18480SOL    HW157214   1.569   9.367  12.730
18480SOL    HW257215   1.567   9.374  12.579
18481SOL     OW57216   0.589  14.789  13.791
18481SOL    HW157217   0.498  14.759  13.793
18481SOL    HW257218   0.616  14.788  13.883
18482SOL     OW57219   5.463   2.466  10.545
18482SOL    HW157220   5.478   2.463  10.450
18482SOL    HW257221   5.373   2.498  10.554
18483SOL     OW57222   9.873  10.626   8.571
18483SOL    HW157223   9.896  10.551   8.517
18483SOL    HW257224   9.842  10.589   8.653
18484SOL     OW57225  11.020  10.324   0.985
18484SOL    HW157226  11.115  10.320   0.989
18484SOL    HW257227  10.991  10.234   0.996
18485SOL     OW57228  14.105  13.793  12.939
18485SOL    HW157229  14.114  13.872  12.993
18485SOL    HW257230  14.016  13.763  12.955
18486SOL     OW57231   5.074  14.208   5.298
18486SOL    HW157232   4.994  14.195   5.249
18486SOL    HW257233   5.121  14.125   5.290
18487SOL     OW57234  14.532   2.421   8.877
18487SOL    HW157235  14.463   2.484   8.861
18487SOL    HW257236  14.598   2.469   8.928
18488SOL     OW57237   9.708  10.744   0.841
18488SOL    HW157238   9.733  10.657   0.809
18488SOL    HW257239   9.707  10.799   0.763
18489SOL     OW57240  12.113   3.974   4.290
18489SOL    HW157241  12.167   3.930   4.355
18489SOL    HW257242  12.148   3.945   4.206
18490SOL     OW57243   4.925   3.053   0.761
18490SOL    HW157244   4.936   3.148   0.766
18490SOL    HW257245   4.929   3.024   0.852
18491SOL     OW57246   3.315   3.966   6.187
18491SOL    HW157247   3.341   4.024   6.258
18491SOL    HW257248   3.349   3.881   6.212
18492SOL     OW57249   2.998  11.743  10.139
18492SOL    HW157250   2.976  11.774  10.227
18492SOL    HW257251   3.044  11.817  10.098
18493SOL     OW57252  14.025  14.112  12.772
18493SOL    HW157253  13.958  14.125  12.838
18493SOL    HW257254  14.094  14.175  12.795
18494SOL     OW57255   2.624   4.533   9.295
18494SOL    HW157256   2.574   4.495   9.223
18494SOL    HW257257   2.567   4.600   9.333
18495SOL     OW57258  14.361   0.004   5.760
18495SOL    HW157259  14.431  14.858   5.699
18495SOL    HW257260  14.390  14.848   5.845
18496SOL     OW57261   2.882   9.010   8.251
18496SOL    HW157262   2.892   8.970   8.338
18496SOL    HW257263   2.882   8.936   8.190
18497SOL     OW57264  14.673   2.572   8.439
18497SOL    HW157265  14.614   2.632   8.393
18497SOL    HW257266  14.644   2.573   8.530
18498SOL     OW57267  12.540   7.319   3.388
18498SOL    HW157268  12.573   7.232   3.367
18498SOL    HW257269  12.462   7.329   3.333
18499SOL     OW57270  11.426   4.482   0.495
18499SOL    HW157271  11.422   4.524   0.581
18499SOL    HW257272  11.515   4.498   0.464
18500SOL     OW57273   7.297   6.285   8.155
18500SOL    HW157274   7.322   6.198   8.186
18500SOL    HW257275   7.214   6.272   8.109
18501SOL     OW57276  13.061   5.903   1.845
18501SOL    HW157277  13.135   5.843   1.846
18501SOL    HW257278  13.055   5.931   1.753
18502SOL     OW57279   9.721  11.465   2.012
18502SOL    HW157280   9.740  11.537   2.072
18502SOL    HW257281   9.672  11.506   1.941
18503SOL     OW57282  10.814   8.764   1.728
18503SOL    HW157283  10.735   8.781   1.781
18503SOL    HW257284  10.863   8.700   1.779
18504SOL     OW57285   1.956  10.230  11.374
18504SOL    HW157286   2.007  10.172  11.318
18504SOL    HW257287   1.869  10.232  11.333
18505SOL     OW57288  13.380   5.861   2.001
18505SOL    HW157289  13.474   5.858   2.014
18505SOL    HW257290  13.343   5.840   2.087
18506SOL     OW57291   5.878  10.497  14.625
18506SOL    HW157292   5.956  10.455  14.590
18506SOL    HW257293   5.911  10.576  14.667
18507SOL     OW57294   0.457   5.649   7.049
18507SOL    HW157295   0.489   5.696   6.972
18507SOL    HW257296   0.375   5.609   7.020
18508SOL     OW57297   6.469  12.601   7.637
18508SOL    HW157298   6.521  12.660   7.583
18508SOL    HW257299   6.476  12.637   7.726
18509SOL     OW57300   8.613   0.037   6.713
18509SOL    HW157301   8.614   0.042   6.617
18509SOL    HW257302   8.568  14.832   6.732
18510SOL     OW57303  10.791   6.893  11.083
18510SOL    HW157304  10.877   6.854  11.098
18510SOL    HW257305  10.801   6.985  11.107
18511SOL     OW57306  12.295  14.604  10.219
18511SOL    HW157307  12.268  14.549  10.146
18511SOL    HW257308  12.227  14.592  10.285
18512SOL     OW57309   5.236   2.207  10.395
18512SOL    HW157310   5.149   2.171  10.410
18512SOL    HW257311   5.295   2.151  10.446
18513SOL     OW57312  13.221  11.278   3.047
18513SOL    HW157313  13.161  11.208   3.021
18513SOL    HW257314  13.228  11.269   3.142
18514SOL     OW57315   9.171   2.677   8.770
18514SOL    HW157316   9.229   2.751   8.751
18514SOL    HW257317   9.153   2.639   8.684
18515SOL     OW57318   4.671   6.918   7.764
18515SOL    HW157319   4.718   6.834   7.771
18515SOL    HW257320   4.670   6.953   7.853
18516SOL     OW57321   2.113  10.612  14.758
18516SOL    HW157322   2.142  10.702  14.748
18516SOL    HW257323   2.018  10.618  14.764
18517SOL     OW57324   3.650   1.586   7.713
18517SOL    HW157325   3.562   1.594   7.749
18517SOL    HW257326   3.689   1.673   7.727
18518SOL     OW57327   2.615   6.986  11.525
18518SOL    HW157328   2.648   7.028  11.445
18518SOL    HW257329   2.599   6.895  11.499
18519SOL     OW57330   4.885   2.357   9.739
18519SOL    HW157331   4.965   2.309   9.717
18519SOL    HW257332   4.914   2.447   9.752
18520SOL     OW57333   2.324   8.197   4.148
18520SOL    HW157334   2.240   8.200   4.194
18520SOL    HW257335   2.308   8.246   4.067
18521SOL     OW57336   6.531   1.507   2.771
18521SOL    HW157337   6.463   1.552   2.822
18521SOL    HW257338   6.497   1.508   2.681
18522SOL     OW57339   1.163   3.280   4.534
18522SOL    HW157340   1.151   3.357   4.590
18522SOL    HW257341   1.182   3.316   4.448
18523SOL     OW57342   1.919  11.986  11.543
18523SOL    HW157343   1.834  11.958  11.509
18523SOL    HW257344   1.924  12.079  11.521
18524SOL     OW57345  14.232   7.848  13.149
18524SOL    HW157346  14.239   7.783  13.219
18524SOL    HW257347  14.291   7.816  13.080
18525SOL     OW57348   7.788   4.410  10.738
18525SOL    HW157349   7.846   4.376  10.807
18525SOL    HW257350   7.833   4.390  10.656
18526SOL     OW57351   0.741   5.691   4.099
18526SOL    HW157352   0.787   5.700   4.015
18526SOL    HW257353   0.760   5.772   4.145
18527SOL     OW57354   3.673   6.087   0.874
18527SOL    HW157355   3.704   6.172   0.843
18527SOL    HW257356   3.611   6.058   0.808
18528SOL     OW57357  11.267   5.188   2.877
18528SOL    HW157358  11.237   5.159   2.791
18528SOL    HW257359  11.309   5.111   2.915
18529SOL     OW57360   1.018   4.856   6.940
18529SOL    HW157361   0.987   4.790   7.002
18529SOL    HW257362   1.070   4.807   6.877
18530SOL     OW57363   9.123  10.060   3.310
18530SOL    HW157364   9.190  10.053   3.378
18530SOL    HW257365   9.041  10.069   3.357
18531SOL     OW57366   4.960  13.096   6.761
18531SOL    HW157367   4.930  13.025   6.704
18531SOL    HW257368   4.960  13.173   6.705
18532SOL     OW57369  13.289  13.783   7.762
18532SOL    HW157370  13.336  13.866   7.758
18532SOL    HW257371  13.353  13.720   7.796
18533SOL     OW57372   3.397   3.022  12.471
18533SOL    HW157373   3.342   3.041  12.547
18533SOL    HW257374   3.486   3.038  12.500
18534SOL     OW57375   9.074   9.863   5.961
18534SOL    HW157376   9.095   9.831   5.873
18534SOL    HW257377   8.978   9.861   5.964
18535SOL     OW57378  14.128   0.776  13.319
18535SOL    HW157379  14.049   0.740  13.358
18535SOL    HW257380  14.193   0.775  13.389
18536SOL     OW57381  10.899   8.762   2.496
18536SOL    HW157382  10.814   8.785   2.457
18536SOL    HW257383  10.895   8.796   2.585
18537SOL     OW57384   4.947   5.128   4.242
18537SOL    HW157385   4.914   5.202   4.293
18537SOL    HW257386   4.881   5.116   4.173
18538SOL     OW57387  10.035   2.943   9.102
18538SOL    HW157388  10.107   2.985   9.054
18538SOL    HW257389   9.979   3.015   9.129
18539SOL     OW57390   6.654   0.121   0.463
18539SOL    HW157391   6.580   0.181   0.474
18539SOL    HW257392   6.628   0.043   0.512
18540SOL     OW57393   8.631   7.916  13.050
18540SOL    HW157394   8.676   7.842  13.009
18540SOL    HW257395   8.664   7.993  13.005
18541SOL     OW57396   0.228   3.888   2.730
18541SOL    HW157397   0.245   3.910   2.821
18541SOL    HW257398   0.198   3.797   2.732
18542SOL     OW57399  14.177  14.288   9.416
18542SOL    HW157400  14.151  14.378   9.395
18542SOL    HW257401  14.168  14.240   9.334
18543SOL     OW57402  12.953   1.283   2.759
18543SOL    HW157403  12.992   1.238   2.834
18543SOL    HW257404  13.021   1.280   2.691
18544SOL     OW57405  10.313   7.164  13.974
18544SOL    HW157406  10.342   7.231  13.912
18544SOL    HW257407  10.395   7.133  14.015
18545SOL     OW57408   5.859  12.634   1.307
18545SOL    HW157409   5.778  12.613   1.260
18545SOL    HW257410   5.928  12.625   1.241
18546SOL     OW57411   2.299   4.896  11.428
18546SOL    HW157412   2.208   4.917  11.444
18546SOL    HW257413   2.341   4.900  11.514
18547SOL     OW57414   0.190  11.535  11.555
18547SOL    HW157415   0.274  11.583  11.555
18547SOL    HW257416   0.147  11.563  11.475
18548SOL     OW57417  11.607  11.660  13.271
18548SOL    HW157418  11.629  11.606  13.195
18548SOL    HW257419  11.674  11.638  13.336
18549SOL     OW57420  10.804   4.118   2.278
18549SOL    HW157421  10.880   4.060   2.269
18549SOL    HW257422  10.753   4.104   2.198
18550SOL     OW57423   4.368   1.769   1.342
18550SOL    HW157424   4.320   1.759   1.425
18550SOL    HW257425   4.451   1.809   1.368
18551SOL     OW57426   3.159  14.387  13.014
18551SOL    HW157427   3.145  14.418  12.925
18551SOL    HW257428   3.090  14.429  13.066
18552SOL     OW57429  11.754   5.296   1.682
18552SOL    HW157430  11.751   5.203   1.657
18552SOL    HW257431  11.723   5.298   1.772
18553SOL     OW57432   8.296   2.549   2.537
18553SOL    HW157433   8.312   2.585   2.625
18553SOL    HW257434   8.336   2.462   2.539
18554SOL     OW57435   0.977  13.269  12.927
18554SOL    HW157436   0.975  13.297  12.835
18554SOL    HW257437   0.913  13.197  12.931
18555SOL     OW57438   6.401   7.394   3.232
18555SOL    HW157439   6.429   7.437   3.151
18555SOL    HW257440   6.371   7.466   3.288
18556SOL     OW57441  11.653  11.951  13.270
18556SOL    HW157442  11.648  11.855  13.274
18556SOL    HW257443  11.737  11.969  13.229
18557SOL     OW57444   2.689   6.763  13.372
18557SOL    HW157445   2.687   6.674  13.338
18557SOL    HW257446   2.616   6.768  13.434
18558SOL     OW57447   3.948  10.012  12.221
18558SOL    HW157448   3.878   9.952  12.194
18558SOL    HW257449   3.981   9.975  12.303
18559SOL     OW57450   0.231  14.835   6.671
18559SOL    HW157451   0.268  14.836   6.583
18559SOL    HW257452   0.173  14.759   6.672
18560SOL     OW57453   2.146   0.220   0.852
18560SOL    HW157454   2.143   0.315   0.847
18560SOL    HW257455   2.229   0.196   0.811
18561SOL     OW57456  11.091   6.591   8.874
18561SOL    HW157457  11.018   6.545   8.833
18561SOL    HW257458  11.064   6.604   8.965
18562SOL     OW57459   9.567   4.091   4.810
18562SOL    HW157460   9.581   4.163   4.871
18562SOL    HW257461   9.481   4.056   4.834
18563SOL     OW57462  10.871   5.970   5.400
18563SOL    HW157463  10.927   6.028   5.451
18563SOL    HW257464  10.801   6.027   5.368
18564SOL     OW57465   8.786   0.157   2.556
18564SOL    HW157466   8.706   0.180   2.508
18564SOL    HW257467   8.820   0.240   2.588
18565SOL     OW57468   3.523   7.140  12.115
18565SOL    HW157469   3.607   7.148  12.070
18565SOL    HW257470   3.470   7.211  12.081
18566SOL     OW57471   1.758  14.745   9.486
18566SOL    HW157472   1.789  14.750   9.576
18566SOL    HW257473   1.756  14.836   9.456
18567SOL     OW57474   9.289   9.574   7.971
18567SOL    HW157475   9.230   9.609   8.037
18567SOL    HW257476   9.342   9.510   8.018
18568SOL     OW57477   1.584  12.112  10.927
18568SOL    HW157478   1.579  12.182  10.862
18568SOL    HW257479   1.493  12.102  10.957
18569SOL     OW57480  10.876   0.779   6.264
18569SOL    HW157481  10.921   0.817   6.189
18569SOL    HW257482  10.849   0.854   6.317
18570SOL     OW57483  10.536   8.473   2.880
18570SOL    HW157484  10.523   8.496   2.788
18570SOL    HW257485  10.475   8.530   2.927
18571SOL     OW57486  11.212  12.720   5.591
18571SOL    HW157487  11.225  12.639   5.541
18571SOL    HW257488  11.248  12.700   5.677
18572SOL     OW57489   6.541   3.266  10.259
18572SOL    HW157490   6.559   3.189  10.206
18572SOL    HW257491   6.463   3.305  10.220
18573SOL     OW57492   2.469   2.939  12.019
18573SOL    HW157493   2.455   3.032  11.999
18573SOL    HW257494   2.383   2.899  12.011
18574SOL     OW57495   6.987  13.975  11.506
18574SOL    HW157496   7.028  13.896  11.542
18574SOL    HW257497   7.011  13.974  11.413
18575SOL     OW57498   9.174   6.147   9.824
18575SOL    HW157499   9.081   6.153   9.843
18575SOL    HW257500   9.193   6.228   9.776
18576SOL     OW57501   3.674   1.803  11.782
18576SOL    HW157502   3.722   1.765  11.856
18576SOL    HW257503   3.690   1.897  11.789
18577SOL     OW57504   8.887  11.908  12.358
18577SOL    HW157505   8.939  11.989  12.363
18577SOL    HW257506   8.896  11.879  12.268
18578SOL     OW57507  10.573   3.625  10.467
18578SOL    HW157508  10.519   3.589  10.397
18578SOL    HW257509  10.517   3.620  10.545
18579SOL     OW57510   2.105   9.752  12.441
18579SOL    HW157511   2.098   9.734  12.534
18579SOL    HW257512   2.131   9.844  12.436
18580SOL     OW57513   7.921  12.422   1.593
18580SOL    HW157514   7.886  12.479   1.661
18580SOL    HW257515   7.969  12.354   1.640
18581SOL     OW57516   0.811  14.732   8.342
18581SOL    HW157517   0.716  14.742   8.345
18581SOL    HW257518   0.845  14.821   8.348
18582SOL     OW57519  10.634   3.166  14.551
18582SOL    HW157520  10.649   3.166  14.457
18582SOL    HW257521  10.699   3.228  14.586
18583SOL     OW57522  11.147   3.040  13.081
18583SOL    HW157523  11.223   3.029  13.024
18583SOL    HW257524  11.097   2.959  13.071
18584SOL     OW57525  14.107  14.013   8.856
18584SOL    HW157526  14.187  13.961   8.845
18584SOL    HW257527  14.131  14.101   8.827
18585SOL     OW57528   0.321   1.014   7.249
18585SOL    HW157529   0.250   0.955   7.271
18585SOL    HW257530   0.282   1.102   7.253
18586SOL     OW57531  14.403   2.806  10.911
18586SOL    HW157532  14.327   2.829  10.964
18586SOL    HW257533  14.475   2.798  10.975
18587SOL     OW57534   1.188  10.560   6.070
18587SOL    HW157535   1.227  10.489   6.121
18587SOL    HW257536   1.101  10.527   6.046
18588SOL     OW57537   3.187   9.713   0.253
18588SOL    HW157538   3.222   9.634   0.293
18588SOL    HW257539   3.105   9.684   0.212
18589SOL     OW57540  13.969  14.485   0.009
18589SOL    HW157541  14.047  14.531  14.855
18589SOL    HW257542  13.927  14.548   0.068
18590SOL     OW57543  10.743  14.859   0.840
18590SOL    HW157544  10.648  14.861   0.831
18590SOL    HW257545  10.767  14.768   0.824
18591SOL     OW57546  14.124   5.978   6.939
18591SOL    HW157547  14.068   5.910   6.901
18591SOL    HW257548  14.066   6.030   6.993
18592SOL     OW57549  12.211   4.773   2.820
18592SOL    HW157550  12.190   4.681   2.803
18592SOL    HW257551  12.130   4.811   2.853
18593SOL     OW57552   5.597   2.306  11.783
18593SOL    HW157553   5.618   2.390  11.823
18593SOL    HW257554   5.540   2.262  11.846
18594SOL     OW57555  14.461   0.700   6.523
18594SOL    HW157556  14.554   0.681   6.512
18594SOL    HW257557  14.434   0.647   6.598
18595SOL     OW57558  10.703  12.972   3.389
18595SOL    HW157559  10.730  13.002   3.476
18595SOL    HW257560  10.659  12.889   3.404
18596SOL     OW57561   4.058   9.091  12.860
18596SOL    HW157562   3.975   9.067  12.819
18596SOL    HW257563   4.063   9.034  12.938
18597SOL     OW57564  10.307   9.595   2.152
18597SOL    HW157565  10.243   9.660   2.180
18597SOL    HW257566  10.291   9.583   2.059
18598SOL     OW57567  10.701  12.530   8.675
18598SOL    HW157568  10.659  12.447   8.693
18598SOL    HW257569  10.730  12.562   8.761
18599SOL     OW57570   9.723  11.062  14.422
18599SOL    HW157571   9.733  10.972  14.453
18599SOL    HW257572   9.771  11.115  14.486
18600SOL     OW57573   5.623   4.573   0.288
18600SOL    HW157574   5.622   4.595   0.381
18600SOL    HW257575   5.716   4.561   0.267
18601SOL     OW57576   5.765   9.841  12.541
18601SOL    HW157577   5.748   9.935  12.535
18601SOL    HW257578   5.837   9.826  12.480
18602SOL     OW57579  11.038   2.026   1.977
18602SOL    HW157580  11.056   2.078   2.055
18602SOL    HW257581  11.125   2.000   1.946
18603SOL     OW57582   1.703  10.055  12.876
18603SOL    HW157583   1.773  10.093  12.930
18603SOL    HW257584   1.748  10.018  12.800
18604SOL     OW57585  12.881   3.634   2.821
18604SOL    HW157586  12.905   3.689   2.747
18604SOL    HW257587  12.889   3.544   2.788
18605SOL     OW57588   8.905  13.667   3.389
18605SOL    HW157589   8.824  13.712   3.365
18605SOL    HW257590   8.893  13.641   3.480
18606SOL     OW57591   9.792   3.021  14.545
18606SOL    HW157592   9.735   3.038  14.470
18606SOL    HW257593   9.785   2.927  14.560
18607SOL     OW57594   0.903   3.015   2.302
18607SOL    HW157595   0.902   3.100   2.258
18607SOL    HW257596   0.933   3.034   2.391
18608SOL     OW57597   2.472   1.122   4.921
18608SOL    HW157598   2.482   1.080   4.835
18608SOL    HW257599   2.559   1.158   4.939
18609SOL     OW57600   3.382   8.404   6.528
18609SOL    HW157601   3.473   8.422   6.504
18609SOL    HW257602   3.331   8.435   6.454
18610SOL     OW57603  11.251  12.294   4.332
18610SOL    HW157604  11.225  12.215   4.379
18610SOL    HW257605  11.285  12.352   4.400
18611SOL     OW57606   0.865  11.192   6.090
18611SOL    HW157607   0.923  11.158   6.021
18611SOL    HW257608   0.782  11.209   6.046
18612SOL     OW57609   8.967   7.918   9.355
18612SOL    HW157610   8.887   7.964   9.332
18612SOL    HW257611   8.940   7.827   9.367
18613SOL     OW57612  10.848  11.616  11.353
18613SOL    HW157613  10.832  11.608  11.447
18613SOL    HW257614  10.782  11.560  11.313
18614SOL     OW57615  14.079   2.040  12.682
18614SOL    HW157616  14.055   2.091  12.759
18614SOL    HW257617  14.035   2.085  12.609
18615SOL     OW57618  12.253   2.662  14.652
18615SOL    HW157619  12.170   2.664  14.604
18615SOL    HW257620  12.318   2.691  14.588
18616SOL     OW57621  14.591   5.196   4.853
18616SOL    HW157622  14.519   5.149   4.811
18616SOL    HW257623  14.666   5.182   4.795
18617SOL     OW57624  11.461  12.545  14.418
18617SOL    HW157625  11.548  12.586  14.412
18617SOL    HW257626  11.434  12.560  14.508
18618SOL     OW57627   1.360   6.925   4.979
18618SOL    HW157628   1.417   6.891   5.048
18618SOL    HW257629   1.421   6.958   4.912
18619SOL     OW57630  10.300   8.433   2.513
18619SOL    HW157631  10.296   8.360   2.575
18619SOL    HW257632  10.365   8.492   2.550
18620SOL     OW57633  14.805  10.316  14.644
18620SOL    HW157634  14.838  10.384  14.585
18620SOL    HW257635  14.825  10.349  14.732
18621SOL     OW57636   4.231   1.750   0.372
18621SOL    HW157637   4.143   1.742   0.335
18621SOL    HW257638   4.225   1.709   0.458
18622SOL     OW57639   7.890   9.131  13.651
18622SOL    HW157640   7.979   9.119  13.682
18622SOL    HW257641   7.835   9.088  13.716
18623SOL     OW57642   3.924   4.859   5.469
18623SOL    HW157643   3.874   4.906   5.536
18623SOL    HW257644   4.008   4.839   5.511
18624SOL     OW57645   9.351  10.322  10.706
18624SOL    HW157646   9.386  10.336  10.618
18624SOL    HW257647   9.403  10.249  10.741
18625SOL     OW57648  11.306   7.268   2.545
18625SOL    HW157649  11.353   7.351   2.552
18625SOL    HW257650  11.217   7.293   2.518
18626SOL     OW57651  10.734   1.124   9.256
18626SOL    HW157652  10.713   1.116   9.349
18626SOL    HW257653  10.652   1.103   9.211
18627SOL     OW57654   8.495   0.759   7.886
18627SOL    HW157655   8.574   0.715   7.916
18627SOL    HW257656   8.424   0.700   7.913
18628SOL     OW57657   0.192  14.567   8.370
18628SOL    HW157658   0.178  14.656   8.402
18628SOL    HW257659   0.171  14.511   8.444
18629SOL     OW57660   5.232   7.306   6.237
18629SOL    HW157661   5.163   7.360   6.276
18629SOL    HW257662   5.309   7.322   6.292
18630SOL     OW57663   0.249   4.096   9.404
18630SOL    HW157664   0.177   4.091   9.341
18630SOL    HW257665   0.327   4.072   9.353
18631SOL     OW57666   6.910  13.277   1.655
18631SOL    HW157667   6.937  13.365   1.683
18631SOL    HW257668   6.833  13.258   1.709
18632SOL     OW57669  13.881  10.326   8.209
18632SOL    HW157670  13.828  10.405   8.221
18632SOL    HW257671  13.963  10.358   8.172
18633SOL     OW57672  14.662   1.757   5.829
18633SOL    HW157673  14.712   1.676   5.819
18633SOL    HW257674  14.571   1.732   5.814
18634SOL     OW57675  11.611  10.027  12.149
18634SOL    HW157676  11.623   9.936  12.123
18634SOL    HW257677  11.516  10.038  12.152
18635SOL     OW57678   9.408   7.410  10.014
18635SOL    HW157679   9.378   7.359   9.939
18635SOL    HW257680   9.444   7.490   9.974
18636SOL     OW57681   9.064   2.213  12.439
18636SOL    HW157682   9.024   2.258  12.364
18636SOL    HW257683   9.043   2.121  12.427
18637SOL     OW57684   7.466   3.927  10.181
18637SOL    HW157685   7.521   4.002  10.204
18637SOL    HW257686   7.472   3.921  10.086
18638SOL     OW57687  14.214   2.870   2.751
18638SOL    HW157688  14.123   2.899   2.758
18638SOL    HW257689  14.208   2.775   2.739
18639SOL     OW57690   0.002  10.123   0.323
18639SOL    HW157691   0.065  10.195   0.327
18639SOL    HW257692   0.042  10.060   0.263
18640SOL     OW57693  13.094   0.850   2.147
18640SOL    HW157694  13.065   0.772   2.194
18640SOL    HW257695  13.083   0.921   2.210
18641SOL     OW57696  12.700  10.092  12.321
18641SOL    HW157697  12.658  10.158  12.377
18641SOL    HW257698  12.785  10.078  12.361
18642SOL     OW57699  12.940   9.713   9.107
18642SOL    HW157700  12.847   9.696   9.120
18642SOL    HW257701  12.983   9.668   9.180
18643SOL     OW57702  11.673   1.150   5.258
18643SOL    HW157703  11.701   1.178   5.345
18643SOL    HW257704  11.586   1.189   5.248
18644SOL     OW57705   6.320   7.175   1.639
18644SOL    HW157706   6.368   7.165   1.722
18644SOL    HW257707   6.238   7.217   1.664
18645SOL     OW57708  10.555   8.713   8.650
18645SOL    HW157709  10.593   8.628   8.675
18645SOL    HW257710  10.526   8.750   8.733
18646SOL     OW57711   6.784   9.074  14.584
18646SOL    HW157712   6.810   9.037  14.500
18646SOL    HW257713   6.725   9.146  14.561
18647SOL     OW57714   0.083   0.825  12.228
18647SOL    HW157715   0.078   0.904  12.173
18647SOL    HW257716   0.176   0.811  12.242
18648SOL     OW57717   8.726  10.479   1.985
18648SOL    HW157718   8.639  10.497   1.950
18648SOL    HW257719   8.746  10.390   1.955
18649SOL     OW57720   0.852   7.635   3.080
18649SOL    HW157721   0.783   7.616   3.016
18649SOL    HW257722   0.887   7.549   3.103
18650SOL     OW57723   2.020   7.015   6.629
18650SOL    HW157724   2.004   6.968   6.547
18650SOL    HW257725   1.949   7.079   6.635
18651SOL     OW57726   9.147  14.008   8.073
18651SOL    HW157727   9.206  13.963   8.012
18651SOL    HW257728   9.069  13.953   8.077
18652SOL     OW57729   6.624   0.411   8.601
18652SOL    HW157730   6.628   0.507   8.599
18652SOL    HW257731   6.565   0.389   8.529
18653SOL     OW57732   8.020   1.330  12.015
18653SOL    HW157733   8.104   1.373  11.994
18653SOL    HW257734   7.971   1.397  12.063
18654SOL     OW57735   6.362   5.744  10.772
18654SOL    HW157736   6.405   5.665  10.805
18654SOL    HW257737   6.433   5.794  10.732
18655SOL     OW57738  12.396  11.641  13.880
18655SOL    HW157739  12.381  11.669  13.970
18655SOL    HW257740  12.487  11.665  13.861
18656SOL     OW57741   8.199  12.025   5.790
18656SOL    HW157742   8.127  11.992   5.735
18656SOL    HW257743   8.232  12.101   5.744
18657SOL     OW57744   2.907   3.696  13.247
18657SOL    HW157745   2.964   3.640  13.194
18657SOL    HW257746   2.906   3.780  13.200
18658SOL     OW57747   1.700   6.742   6.212
18658SOL    HW157748   1.756   6.742   6.134
18658SOL    HW257749   1.680   6.649   6.227
18659SOL     OW57750  14.347   1.597   3.467
18659SOL    HW157751  14.435   1.606   3.503
18659SOL    HW257752  14.308   1.525   3.515
18660SOL     OW57753  14.050  12.995  14.260
18660SOL    HW157754  13.966  12.955  14.282
18660SOL    HW257755  14.032  13.047  14.181
18661SOL     OW57756  14.085   3.151   1.823
18661SOL    HW157757  14.123   3.239   1.823
18661SOL    HW257758  14.141   3.101   1.764
18662SOL     OW57759   9.678  10.029   0.431
18662SOL    HW157760   9.759   9.986   0.405
18662SOL    HW257761   9.615   9.958   0.444
18663SOL     OW57762   7.526   2.095  10.208
18663SOL    HW157763   7.593   2.156  10.241
18663SOL    HW257764   7.510   2.036  10.281
18664SOL     OW57765   1.251   9.632   7.703
18664SOL    HW157766   1.159   9.654   7.711
18664SOL    HW257767   1.297   9.716   7.705
18665SOL     OW57768   9.686   0.227  11.640
18665SOL    HW157769   9.682   0.150  11.583
18665SOL    HW257770   9.599   0.266  11.634
18666SOL     OW57771  12.348  12.273   1.363
18666SOL    HW157772  12.265  12.319   1.373
18666SOL    HW257773  12.411  12.341   1.340
18667SOL     OW57774  10.365   0.557  12.001
18667SOL    HW157775  10.413   0.515  11.929
18667SOL    HW257776  10.319   0.486  12.044
18668SOL     OW57777  13.284  10.050   1.605
18668SOL    HW157778  13.216   9.986   1.625
18668SOL    HW257779  13.315  10.080   1.691
18669SOL     OW57780   0.631  14.118  14.357
18669SOL    HW157781   0.561  14.071  14.402
18669SOL    HW257782   0.635  14.078  14.270
18670SOL     OW57783  14.441  14.174   8.932
18670SOL    HW157784  14.520  14.191   8.984
18670SOL    HW257785  14.392  14.110   8.983
18671SOL     OW57786  12.707  10.691  14.345
18671SOL    HW157787  12.646  10.657  14.279
18671SOL    HW257788  12.791  10.696  14.300
18672SOL     OW57789   5.624   9.839   7.044
18672SOL    HW157790   5.691   9.777   7.016
18672SOL    HW257791   5.673   9.910   7.086
18673SOL     OW57792   5.067  12.222   6.325
18673SOL    HW157793   5.139  12.181   6.278
18673SOL    HW257794   5.002  12.241   6.257
18674SOL     OW57795  11.316  11.175  14.344
18674SOL    HW157796  11.347  11.181  14.254
18674SOL    HW257797  11.250  11.244  14.352
18675SOL     OW57798  12.088   8.889  11.337
18675SOL    HW157799  12.071   8.905  11.430
18675SOL    HW257800  12.087   8.977  11.297
18676SOL     OW57801   8.964   9.557   9.842
18676SOL    HW157802   8.868   9.554   9.846
18676SOL    HW257803   8.988   9.483   9.786
18677SOL     OW57804  10.261   6.438   7.244
18677SOL    HW157805  10.176   6.482   7.237
18677SOL    HW257806  10.290   6.456   7.334
18678SOL     OW57807  14.460   1.448   9.009
18678SOL    HW157808  14.550   1.471   9.035
18678SOL    HW257809  14.404   1.505   9.061
18679SOL     OW57810   0.754   6.629   8.899
18679SOL    HW157811   0.782   6.558   8.955
18679SOL    HW257812   0.835   6.675   8.876
18680SOL     OW57813   4.861  14.499  12.903
18680SOL    HW157814   4.877  14.590  12.880
18680SOL    HW257815   4.886  14.449  12.825
18681SOL     OW57816   7.650   9.742   1.520
18681SOL    HW157817   7.603   9.692   1.587
18681SOL    HW257818   7.718   9.789   1.568
18682SOL     OW57819   2.475  14.275   6.777
18682SOL    HW157820   2.462  14.350   6.835
18682SOL    HW257821   2.524  14.212   6.829
18683SOL     OW57822   5.411  12.823   4.374
18683SOL    HW157823   5.487  12.880   4.384
18683SOL    HW257824   5.398  12.816   4.279
18684SOL     OW57825   1.187  13.025   2.772
18684SOL    HW157826   1.221  12.960   2.834
18684SOL    HW257827   1.249  13.097   2.776
18685SOL     OW57828   7.302   1.981   9.756
18685SOL    HW157829   7.389   1.986   9.796
18685SOL    HW257830   7.278   2.072   9.738
18686SOL     OW57831   5.282   4.036  10.650
18686SOL    HW157832   5.289   3.947  10.684
18686SOL    HW257833   5.369   4.075  10.664
18687SOL     OW57834  13.253  14.760   6.761
18687SOL    HW157835  13.207  14.676   6.759
18687SOL    HW257836  13.200  14.817   6.705
18688SOL     OW57837   7.465   9.701  12.301
18688SOL    HW157838   7.412   9.656  12.367
18688SOL    HW257839   7.551   9.659  12.307
18689SOL     OW57840   0.417   3.782   7.272
18689SOL    HW157841   0.499   3.732   7.271
18689SOL    HW257842   0.353   3.725   7.229
18690SOL     OW57843   3.526  13.280   7.393
18690SOL    HW157844   3.531  13.234   7.309
18690SOL    HW257845   3.491  13.366   7.371
18691SOL     OW57846  12.916   9.824   9.987
18691SOL    HW157847  12.943   9.849   9.899
18691SOL    HW257848  12.872   9.739   9.976
18692SOL     OW57849  14.628  13.903   2.404
18692SOL    HW157850  14.630  13.981   2.348
18692SOL    HW257851  14.606  13.831   2.344
18693SOL     OW57852   9.623   3.467   8.244
18693SOL    HW157853   9.611   3.436   8.334
18693SOL    HW257854   9.534   3.479   8.211
18694SOL     OW57855   4.318   2.645   7.651
18694SOL    HW157856   4.344   2.732   7.620
18694SOL    HW257857   4.366   2.584   7.596
18695SOL     OW57858   7.540  11.118   9.784
18695SOL    HW157859   7.591  11.060   9.728
18695SOL    HW257860   7.522  11.067   9.863
18696SOL     OW57861   4.823   6.182  13.378
18696SOL    HW157862   4.771   6.254  13.341
18696SOL    HW257863   4.896   6.172  13.318
18697SOL     OW57864  13.358   9.144   0.280
18697SOL    HW157865  13.313   9.171   0.200
18697SOL    HW257866  13.451   9.160   0.262
18698SOL     OW57867   2.282  12.309   2.945
18698SOL    HW157868   2.370  12.287   2.916
18698SOL    HW257869   2.275  12.404   2.930
18699SOL     OW57870  10.491   5.929  10.600
18699SOL    HW157871  10.539   5.915  10.518
18699SOL    HW257872  10.554   5.972  10.658
18700SOL     OW57873  10.988   2.242  14.450
18700SOL    HW157874  10.900   2.203  14.442
18700SOL    HW257875  11.044   2.185  14.399
18701SOL     OW57876   5.347   3.602  11.514
18701SOL    HW157877   5.403   3.568  11.584
18701SOL    HW257878   5.380   3.690  11.497
18702SOL     OW57879   9.514  12.391   4.786
18702SOL    HW157880   9.465  12.472   4.802
18702SOL    HW257881   9.504  12.375   4.692
18703SOL     OW57882  13.632   7.137   6.612
18703SOL    HW157883  13.573   7.064   6.628
18703SOL    HW257884  13.644   7.138   6.517
18704SOL     OW57885  11.781   5.707  11.627
18704SOL    HW157886  11.788   5.727  11.534
18704SOL    HW257887  11.784   5.793  11.670
18705SOL     OW57888  11.332   4.334   8.029
18705SOL    HW157889  11.298   4.416   8.064
18705SOL    HW257890  11.418   4.356   7.994
18706SOL     OW57891   4.964  10.592   0.847
18706SOL    HW157892   5.006  10.506   0.842
18706SOL    HW257893   4.966  10.615   0.940
18707SOL     OW57894   7.465   3.386   7.305
18707SOL    HW157895   7.452   3.307   7.357
18707SOL    HW257896   7.397   3.382   7.237
18708SOL     OW57897   4.691   7.305  12.868
18708SOL    HW157898   4.693   7.226  12.813
18708SOL    HW257899   4.765   7.357  12.839
18709SOL     OW57900  13.244   7.447  12.671
18709SOL    HW157901  13.255   7.466  12.764
18709SOL    HW257902  13.194   7.365  12.669
18710SOL     OW57903   6.343   3.273   2.946
18710SOL    HW157904   6.422   3.259   2.893
18710SOL    HW257905   6.326   3.189   2.988
18711SOL     OW57906   7.104   4.723   8.095
18711SOL    HW157907   7.169   4.766   8.151
18711SOL    HW257908   7.141   4.637   8.079
18712SOL     OW57909   7.544   4.411  10.433
18712SOL    HW157910   7.502   4.385  10.515
18712SOL    HW257911   7.631   4.372  10.437
18713SOL     OW57912   3.187  13.487  13.607
18713SOL    HW157913   3.251  13.553  13.581
18713SOL    HW257914   3.239  13.419  13.651
18714SOL     OW57915   0.479   0.587   2.765
18714SOL    HW157916   0.385   0.581   2.748
18714SOL    HW257917   0.510   0.655   2.705
18715SOL     OW57918  12.272   9.784   0.187
18715SOL    HW157919  12.368   9.776   0.184
18715SOL    HW257920  12.242   9.703   0.228
18716SOL     OW57921  10.769   9.943  14.628
18716SOL    HW157922  10.853   9.955  14.583
18716SOL    HW257923  10.703   9.967  14.563
18717SOL     OW57924   4.229  14.030  14.770
18717SOL    HW157925   4.244  14.003  14.680
18717SOL    HW257926   4.199  13.951  14.814
18718SOL     OW57927   1.370   1.614  13.860
18718SOL    HW157928   1.427   1.559  13.807
18718SOL    HW257929   1.424   1.641  13.935
18719SOL     OW57930   7.707  14.875   6.979
18719SOL    HW157931   7.671  14.874   7.068
18719SOL    HW257932   7.771  14.804   6.979
18720SOL     OW57933  12.620   8.228   1.261
18720SOL    HW157934  12.591   8.258   1.348
18720SOL    HW257935  12.588   8.137   1.256
18721SOL     OW57936   3.144  12.674   4.413
18721SOL    HW157937   3.166  12.741   4.348
18721SOL    HW257938   3.091  12.720   4.479
18722SOL     OW57939  11.101   7.543  10.750
18722SOL    HW157940  11.144   7.578  10.672
18722SOL    HW257941  11.155   7.468  10.776
18723SOL     OW57942   1.321   8.431  13.436
18723SOL    HW157943   1.304   8.350  13.485
18723SOL    HW257944   1.235   8.456  13.401
18724SOL     OW57945   0.340   6.159  13.901
18724SOL    HW157946   0.258   6.180  13.946
18724SOL    HW257947   0.319   6.164  13.808
18725SOL     OW57948  13.724   8.383   0.021
18725SOL    HW157949  13.779   8.449   0.064
18725SOL    HW257950  13.636   8.402   0.051
18726SOL     OW57951  10.723  11.376   1.317
18726SOL    HW157952  10.674  11.326   1.251
18726SOL    HW257953  10.744  11.458   1.273
18727SOL     OW57954   9.198   1.713   2.451
18727SOL    HW157955   9.234   1.684   2.368
18727SOL    HW257956   9.213   1.639   2.511
18728SOL     OW57957  13.778   4.707  14.045
18728SOL    HW157958  13.801   4.616  14.026
18728SOL    HW257959  13.836   4.759  13.990
18729SOL     OW57960   4.524  14.196   1.067
18729SOL    HW157961   4.480  14.180   1.151
18729SOL    HW257962   4.490  14.280   1.038
18730SOL     OW57963  14.404  11.929  12.304
18730SOL    HW157964  14.471  11.968  12.360
18730SOL    HW257965  14.452  11.903  12.225
18731SOL     OW57966  12.022   3.854   8.136
18731SOL    HW157967  11.936   3.895   8.150
18731SOL    HW257968  12.008   3.794   8.064
18732SOL     OW57969   7.969   8.777   2.935
18732SOL    HW157970   8.034   8.721   2.893
18732SOL    HW257971   8.005   8.865   2.928
18733SOL     OW57972  13.330  12.234   3.356
18733SOL    HW157973  13.240  12.245   3.387
18733SOL    HW257974  13.354  12.145   3.383
18734SOL     OW57975   8.240  11.125  10.463
18734SOL    HW157976   8.162  11.079  10.494
18734SOL    HW257977   8.310  11.094  10.521
18735SOL     OW57978  14.805   1.758   1.173
18735SOL    HW157979   0.022   1.745   1.179
18735SOL    HW257980  14.784   1.815   1.247
18736SOL     OW57981   5.214   8.572   2.013
18736SOL    HW157982   5.301   8.534   1.999
18736SOL    HW257983   5.225   8.627   2.091
18737SOL     OW57984   4.120   3.904   3.977
18737SOL    HW157985   4.071   3.965   4.032
18737SOL    HW257986   4.142   3.832   4.036
18738SOL     OW57987   4.680  11.711   7.538
18738SOL    HW157988   4.600  11.667   7.510
18738SOL    HW257989   4.748  11.645   7.527
18739SOL     OW57990  11.011   6.946   0.771
18739SOL    HW157991  10.975   7.010   0.709
18739SOL    HW257992  10.954   6.870   0.762
18740SOL     OW57993  13.446  13.390   0.830
18740SOL    HW157994  13.363  13.437   0.836
18740SOL    HW257995  13.438  13.338   0.749
18741SOL     OW57996   6.803   7.058   6.507
18741SOL    HW157997   6.873   7.105   6.553
18741SOL    HW257998   6.836   6.968   6.499
18742SOL     OW57999   3.978   8.356   0.056
18742SOL    HW158000   3.897   8.406   0.069
18742SOL    HW258001   4.027   8.407  14.869
18743SOL     OW58002   0.933   1.737  13.000
18743SOL    HW158003   0.998   1.678  13.037
18743SOL    HW258004   0.972   1.824  13.007
18744SOL     OW58005  12.328  14.760   0.776
18744SOL    HW158006  12.402  14.755   0.836
18744SOL    HW258007  12.252  14.736   0.829
18745SOL     OW58008   8.308   2.553  11.015
18745SOL    HW158009   8.280   2.515  10.932
18745SOL    HW258010   8.239   2.615  11.037
18746SOL     OW58011   5.508   2.284  11.515
18746SOL    HW158012   5.577   2.330  11.468
18746SOL    HW258013   5.538   2.281  11.606
18747SOL     OW58014  10.622   3.785  10.908
18747SOL    HW158015  10.705   3.831  10.896
18747SOL    HW258016  10.588   3.773  10.819
18748SOL     OW58017   0.361   0.793  12.301
18748SOL    HW158018   0.401   0.825  12.382
18748SOL    HW258019   0.372   0.698  12.306
18749SOL     OW58020   8.502  12.698   5.199
18749SOL    HW158021   8.507  12.611   5.239
18749SOL    HW258022   8.472  12.755   5.270
18750SOL     OW58023   6.568  12.953  10.617
18750SOL    HW158024   6.480  12.941  10.581
18750SOL    HW258025   6.603  13.027  10.568
18751SOL     OW58026   8.700   2.829   6.113
18751SOL    HW158027   8.775   2.884   6.091
18751SOL    HW258028   8.636   2.847   6.043
18752SOL     OW58029   9.717   8.507  11.654
18752SOL    HW158030   9.770   8.510  11.733
18752SOL    HW258031   9.627   8.504  11.686
18753SOL     OW58032  11.052   9.701   5.478
18753SOL    HW158033  10.967   9.745   5.476
18753SOL    HW258034  11.032   9.609   5.466
18754SOL     OW58035   1.110  11.944   1.115
18754SOL    HW158036   1.025  11.917   1.150
18754SOL    HW258037   1.108  12.040   1.118
18755SOL     OW58038   5.486   3.729  13.706
18755SOL    HW158039   5.452   3.656  13.759
18755SOL    HW258040   5.579   3.733  13.728
18756SOL     OW58041   9.671   6.574   6.913
18756SOL    HW158042   9.610   6.515   6.957
18756SOL    HW258043   9.651   6.660   6.949
18757SOL     OW58044   0.778   0.656   1.329
18757SOL    HW158045   0.739   0.742   1.318
18757SOL    HW258046   0.707   0.602   1.366
18758SOL     OW58047   9.352   3.281  11.547
18758SOL    HW158048   9.300   3.344  11.598
18758SOL    HW258049   9.442   3.297  11.574
18759SOL     OW58050   5.371   9.105  13.240
18759SOL    HW158051   5.452   9.136  13.200
18759SOL    HW258052   5.346   9.029  13.188
18760SOL     OW58053   1.678   8.593   9.628
18760SOL    HW158054   1.616   8.618   9.697
18760SOL    HW258055   1.630   8.530   9.575
18761SOL     OW58056  11.088   0.969   6.733
18761SOL    HW158057  11.040   0.898   6.689
18761SOL    HW258058  11.020   1.021   6.776
18762SOL     OW58059   4.307  12.525   0.236
18762SOL    HW158060   4.212  12.511   0.231
18762SOL    HW258061   4.341  12.446   0.278
18763SOL     OW58062  11.737   8.775  13.910
18763SOL    HW158063  11.789   8.846  13.872
18763SOL    HW258064  11.647   8.795  13.884
18764SOL     OW58065   3.079   3.996  13.703
18764SOL    HW158066   3.141   4.068  13.714
18764SOL    HW258067   3.050   3.975  13.792
18765SOL     OW58068   6.194  11.693   3.879
18765SOL    HW158069   6.115  11.651   3.843
18765SOL    HW258070   6.179  11.786   3.867
18766SOL     OW58071   2.436   8.549  14.831
18766SOL    HW158072   2.369   8.529  14.765
18766SOL    HW258073   2.518   8.542  14.783
18767SOL     OW58074   9.108   4.735  14.508
18767SOL    HW158075   9.044   4.669  14.482
18767SOL    HW258076   9.189   4.708  14.466
18768SOL     OW58077  12.670   4.250  14.211
18768SOL    HW158078  12.660   4.157  14.190
18768SOL    HW258079  12.629   4.296  14.138
18769SOL     OW58080   9.307   8.887   1.979
18769SOL    HW158081   9.289   8.981   1.979
18769SOL    HW258082   9.228   8.847   2.015
18770SOL     OW58083   4.532   9.756  10.065
18770SOL    HW158084   4.559   9.776  10.155
18770SOL    HW258085   4.437   9.769  10.064
18771SOL     OW58086  11.430   3.774   1.333
18771SOL    HW158087  11.450   3.722   1.410
18771SOL    HW258088  11.439   3.865   1.361
18772SOL     OW58089  13.697  14.585   4.013
18772SOL    HW158090  13.704  14.669   3.968
18772SOL    HW258091  13.606  14.583   4.044
18773SOL     OW58092   9.468   9.398   4.737
18773SOL    HW158093   9.373   9.408   4.731
18773SOL    HW258094   9.503   9.453   4.667
18774SOL     OW58095  10.583   6.320   5.707
18774SOL    HW158096  10.560   6.294   5.796
18774SOL    HW258097  10.678   6.320   5.706
18775SOL     OW58098  13.748   0.817   7.106
18775SOL    HW158099  13.805   0.811   7.029
18775SOL    HW258100  13.702   0.732   7.108
18776SOL     OW58101  12.813   4.879  13.211
18776SOL    HW158102  12.738   4.878  13.270
18776SOL    HW258103  12.778   4.913  13.129
18777SOL     OW58104  13.967  10.428  12.131
18777SOL    HW158105  13.935  10.518  12.117
18777SOL    HW258106  13.958  10.414  12.225
18778SOL     OW58107   4.336   7.316  12.674
18778SOL    HW158108   4.349   7.286  12.764
18778SOL    HW258109   4.400   7.267  12.622
18779SOL     OW58110   1.647  12.613   8.780
18779SOL    HW158111   1.675  12.546   8.718
18779SOL    HW258112   1.551  12.609   8.777
18780SOL     OW58113  12.627   6.195  11.531
18780SOL    HW158114  12.716   6.231  11.536
18780SOL    HW258115  12.633   6.124  11.467
18781SOL     OW58116  13.494   1.687  12.199
18781SOL    HW158117  13.587   1.706  12.188
18781SOL    HW258118  13.454   1.772  12.220
18782SOL     OW58119   3.473   1.304   3.056
18782SOL    HW158120   3.507   1.295   2.967
18782SOL    HW258121   3.547   1.338   3.106
18783SOL     OW58122   7.684   6.314  11.501
18783SOL    HW158123   7.650   6.234  11.542
18783SOL    HW258124   7.650   6.312  11.412
18784SOL     OW58125   9.216   4.892   3.277
18784SOL    HW158126   9.192   4.888   3.369
18784SOL    HW258127   9.209   4.802   3.246
18785SOL     OW58128   3.457  12.820   5.783
18785SOL    HW158129   3.523  12.806   5.715
18785SOL    HW258130   3.450  12.915   5.791
18786SOL     OW58131  12.567   1.775  11.888
18786SOL    HW158132  12.612   1.713  11.945
18786SOL    HW258133  12.637   1.816  11.837
18787SOL     OW58134   6.808  13.103  12.773
18787SOL    HW158135   6.838  13.033  12.830
18787SOL    HW258136   6.716  13.115  12.796
18788SOL     OW58137   8.395  10.834   1.530
18788SOL    HW158138   8.490  10.829   1.542
18788SOL    HW258139   8.366  10.900   1.593
18789SOL     OW58140   5.293   8.747   3.356
18789SOL    HW158141   5.267   8.713   3.270
18789SOL    HW258142   5.388   8.759   3.349
18790SOL     OW58143   1.320  12.701   3.816
18790SOL    HW158144   1.364  12.672   3.736
18790SOL    HW258145   1.329  12.628   3.876
18791SOL     OW58146  11.242   5.470  11.826
18791SOL    HW158147  11.221   5.467  11.919
18791SOL    HW258148  11.262   5.562  11.809
18792SOL     OW58149   9.008   5.290   1.308
18792SOL    HW158150   8.991   5.293   1.402
18792SOL    HW258151   8.939   5.234   1.273
18793SOL     OW58152  12.547  12.813   6.219
18793SOL    HW158153  12.506  12.880   6.164
18793SOL    HW258154  12.636  12.804   6.184
18794SOL     OW58155   0.953   8.109  11.849
18794SOL    HW158156   0.956   8.202  11.869
18794SOL    HW258157   1.004   8.068  11.919
18795SOL     OW58158  11.711   6.606   1.728
18795SOL    HW158159  11.733   6.521   1.767
18795SOL    HW258160  11.662   6.583   1.649
18796SOL     OW58161  12.857   5.441   6.305
18796SOL    HW158162  12.814   5.525   6.314
18796SOL    HW258163  12.938   5.449   6.356
18797SOL     OW58164   3.859   5.501   3.401
18797SOL    HW158165   3.945   5.529   3.368
18797SOL    HW258166   3.828   5.575   3.453
18798SOL     OW58167  10.021   4.802   2.888
18798SOL    HW158168   9.926   4.807   2.882
18798SOL    HW258169  10.051   4.892   2.871
18799SOL     OW58170   3.018   3.496   2.868
18799SOL    HW158171   2.967   3.462   2.794
18799SOL    HW258172   2.972   3.576   2.893
18800SOL     OW58173   9.263   1.364   0.103
18800SOL    HW158174   9.216   1.281   0.115
18800SOL    HW258175   9.351   1.338   0.076
18801SOL     OW58176  14.650  13.644  10.801
18801SOL    HW158177  14.673  13.580  10.868
18801SOL    HW258178  14.673  13.602  10.719
18802SOL     OW58179  13.081  14.362  10.922
18802SOL    HW158180  13.152  14.387  10.982
18802SOL    HW258181  13.116  14.285  10.876
18803SOL     OW58182   4.319  14.714  10.865
18803SOL    HW158183   4.235  14.724  10.909
18803SOL    HW258184   4.364  14.645  10.915
18804SOL     OW58185   5.834   4.574   3.238
18804SOL    HW158186   5.791   4.611   3.162
18804SOL    HW258187   5.903   4.638   3.259
18805SOL     OW58188   0.550   4.897  10.516
18805SOL    HW158189   0.643   4.875  10.506
18805SOL    HW258190   0.522   4.849  10.593
18806SOL     OW58191  10.682   4.966   8.186
18806SOL    HW158192  10.632   4.990   8.108
18806SOL    HW258193  10.663   4.873   8.199
18807SOL     OW58194   4.903   4.351   4.637
18807SOL    HW158195   4.851   4.378   4.562
18807SOL    HW258196   4.936   4.264   4.614
18808SOL     OW58197   4.010   3.081   3.135
18808SOL    HW158198   3.997   3.041   3.222
18808SOL    HW258199   3.949   3.034   3.078
18809SOL     OW58200  14.255   4.888   2.302
18809SOL    HW158201  14.183   4.930   2.348
18809SOL    HW258202  14.223   4.876   2.212
18810SOL     OW58203   9.747  11.718  14.249
18810SOL    HW158204   9.762  11.734  14.343
18810SOL    HW258205   9.752  11.623  14.240
18811SOL     OW58206   7.277   9.856   7.522
18811SOL    HW158207   7.201   9.837   7.466
18811SOL    HW258208   7.254   9.818   7.607
18812SOL     OW58209   9.772   4.352   0.548
18812SOL    HW158210   9.708   4.377   0.481
18812SOL    HW258211   9.856   4.348   0.502
18813SOL     OW58212  12.980   9.314  14.278
18813SOL    HW158213  12.918   9.243  14.261
18813SOL    HW258214  12.972   9.371  14.201
18814SOL     OW58215  10.081   6.440   9.786
18814SOL    HW158216  10.025   6.498   9.735
18814SOL    HW258217  10.121   6.383   9.721
18815SOL     OW58218  12.224   1.173   1.205
18815SOL    HW158219  12.266   1.102   1.254
18815SOL    HW258220  12.266   1.253   1.237
18816SOL     OW58221   3.489  12.604   3.976
18816SOL    HW158222   3.484  12.649   4.060
18816SOL    HW258223   3.511  12.513   3.998
18817SOL     OW58224   3.538  14.074   7.882
18817SOL    HW158225   3.546  13.988   7.922
18817SOL    HW258226   3.453  14.107   7.911
18818SOL     OW58227  11.451   4.476   8.610
18818SOL    HW158228  11.453   4.528   8.690
18818SOL    HW258229  11.542   4.472   8.582
18819SOL     OW58230   7.098   8.046  14.707
18819SOL    HW158231   7.185   8.044  14.746
18819SOL    HW258232   7.043   8.087  14.774
18820SOL     OW58233   0.625   9.589   4.561
18820SOL    HW158234   0.563   9.573   4.632
18820SOL    HW258235   0.710   9.598   4.603
18821SOL     OW58236   0.015   5.799  13.998
18821SOL    HW158237   0.104   5.771  14.020
18821SOL    HW258238  14.851   5.816  14.082
18822SOL     OW58239  13.426   7.510  10.851
18822SOL    HW158240  13.379   7.475  10.775
18822SOL    HW258241  13.508   7.544  10.815
18823SOL     OW58242  10.826  12.375  12.391
18823SOL    HW158243  10.736  12.400  12.409
18823SOL    HW258244  10.827  12.280  12.398
18824SOL     OW58245   7.979   9.221   9.234
18824SOL    HW158246   7.966   9.189   9.324
18824SOL    HW258247   8.073   9.220   9.221
18825SOL     OW58248   2.595   4.133   6.973
18825SOL    HW158249   2.623   4.161   7.060
18825SOL    HW258250   2.611   4.209   6.917
18826SOL     OW58251  14.468  11.597   6.056
18826SOL    HW158252  14.482  11.551   5.973
18826SOL    HW258253  14.503  11.537   6.122
18827SOL     OW58254  11.811   0.907   5.608
18827SOL    HW158255  11.724   0.879   5.578
18827SOL    HW258256  11.794   0.987   5.657
18828SOL     OW58257   9.761  11.354   8.480
18828SOL    HW158258   9.844  11.314   8.508
18828SOL    HW258259   9.736  11.411   8.553
18829SOL     OW58260  11.742   8.108   0.402
18829SOL    HW158261  11.777   8.020   0.385
18829SOL    HW258262  11.776   8.162   0.331
18830SOL     OW58263   7.174  14.341   0.737
18830SOL    HW158264   7.160  14.352   0.643
18830SOL    HW258265   7.260  14.380   0.753
18831SOL     OW58266   9.284   1.969   4.382
18831SOL    HW158267   9.302   2.055   4.345
18831SOL    HW258268   9.205   1.981   4.435
18832SOL     OW58269   7.670   9.335   7.882
18832SOL    HW158270   7.644   9.372   7.798
18832SOL    HW258271   7.604   9.269   7.902
18833SOL     OW58272   6.592   4.859   3.685
18833SOL    HW158273   6.657   4.789   3.693
18833SOL    HW258274   6.566   4.856   3.593
18834SOL     OW58275   3.186   5.278   4.190
18834SOL    HW158276   3.196   5.364   4.231
18834SOL    HW258277   3.168   5.297   4.098
18835SOL     OW58278   2.537   8.393   7.771
18835SOL    HW158279   2.632   8.381   7.779
18835SOL    HW258280   2.508   8.317   7.719
18836SOL     OW58281   7.709  13.148   9.471
18836SOL    HW158282   7.772  13.076   9.463
18836SOL    HW258283   7.724  13.202   9.393
18837SOL     OW58284   0.656   0.233  13.669
18837SOL    HW158285   0.601   0.230  13.591
18837SOL    HW258286   0.744   0.213  13.638
18838SOL     OW58287   0.834   6.852   9.661
18838SOL    HW158288   0.858   6.767   9.700
18838SOL    HW258289   0.750   6.874   9.702
18839SOL     OW58290  10.942   2.616  13.758
18839SOL    HW158291  10.919   2.545  13.699
18839SOL    HW258292  10.869   2.623  13.818
18840SOL     OW58293   1.412   7.756   1.309
18840SOL    HW158294   1.336   7.781   1.361
18840SOL    HW258295   1.487   7.770   1.367
18841SOL     OW58296   9.101  11.788  11.984
18841SOL    HW158297   9.025  11.816  11.932
18841SOL    HW258298   9.176  11.828  11.939
18842SOL     OW58299   7.286   3.212  12.509
18842SOL    HW158300   7.353   3.151  12.477
18842SOL    HW258301   7.315   3.234  12.598
18843SOL     OW58302   2.424   2.453   5.758
18843SOL    HW158303   2.374   2.534   5.751
18843SOL    HW258304   2.507   2.472   5.715
18844SOL     OW58305   5.560   2.667   9.861
18844SOL    HW158306   5.615   2.618   9.922
18844SOL    HW258307   5.509   2.725   9.917
18845SOL     OW58308  13.961   6.806  11.143
18845SOL    HW158309  13.915   6.785  11.225
18845SOL    HW258310  14.047   6.766  11.152
18846SOL     OW58311  13.474   9.515  11.289
18846SOL    HW158312  13.499   9.579  11.355
18846SOL    HW258313  13.402   9.466  11.328
18847SOL     OW58314   5.099  12.501   5.011
18847SOL    HW158315   5.092  12.407   5.027
18847SOL    HW258316   5.034  12.540   5.070
18848SOL     OW58317   3.339   4.732   2.287
18848SOL    HW158318   3.414   4.695   2.334
18848SOL    HW258319   3.347   4.826   2.301
18849SOL     OW58320   8.337  13.858   0.945
18849SOL    HW158321   8.379  13.822   0.867
18849SOL    HW258322   8.409  13.896   0.995
18850SOL     OW58323   1.057  12.167   0.924
18850SOL    HW158324   0.984  12.189   0.982
18850SOL    HW258325   1.030  12.086   0.881
18851SOL     OW58326   8.524  14.319   2.112
18851SOL    HW158327   8.544  14.356   2.198
18851SOL    HW258328   8.440  14.276   2.123
18852SOL     OW58329   6.303  11.899  12.807
18852SOL    HW158330   6.370  11.962  12.830
18852SOL    HW258331   6.261  11.935  12.729
18853SOL     OW58332   2.654  10.342   0.343
18853SOL    HW158333   2.604  10.342   0.262
18853SOL    HW258334   2.740  10.307   0.319
18854SOL     OW58335   3.946  10.662   8.775
18854SOL    HW158336   3.892  10.716   8.832
18854SOL    HW258337   3.884  10.620   8.715
18855SOL     OW58338   0.618  10.881   5.579
18855SOL    HW158339   0.568  10.962   5.595
18855SOL    HW258340   0.555  10.811   5.593
18856SOL     OW58341   4.463  13.573   0.940
18856SOL    HW158342   4.396  13.570   0.872
18856SOL    HW258343   4.449  13.493   0.991
18857SOL     OW58344  12.073   2.239   9.318
18857SOL    HW158345  12.158   2.280   9.333
18857SOL    HW258346  12.017   2.309   9.285
18858SOL     OW58347   4.239   0.238   9.048
18858SOL    HW158348   4.171   0.193   9.099
18858SOL    HW258349   4.308   0.257   9.112
18859SOL     OW58350  12.048   6.125   9.465
18859SOL    HW158351  12.010   6.194   9.411
18859SOL    HW258352  12.138   6.117   9.432
18860SOL     OW58353   9.589   2.880   3.755
18860SOL    HW158354   9.611   2.873   3.662
18860SOL    HW258355   9.618   2.967   3.780
18861SOL     OW58356   8.528   3.360   1.053
18861SOL    HW158357   8.489   3.313   1.127
18861SOL    HW258358   8.609   3.397   1.088
18862SOL     OW58359   4.570  13.151   2.192
18862SOL    HW158360   4.564  13.061   2.224
18862SOL    HW258361   4.520  13.150   2.110
18863SOL     OW58362   4.190   0.378   3.397
18863SOL    HW158363   4.234   0.448   3.445
18863SOL    HW258364   4.200   0.300   3.452
18864SOL     OW58365   2.188   3.765   4.726
18864SOL    HW158366   2.138   3.737   4.650
18864SOL    HW258367   2.260   3.817   4.690
18865SOL     OW58368  14.203  11.723   7.941
18865SOL    HW158369  14.262  11.789   7.978
18865SOL    HW258370  14.117  11.746   7.975
18866SOL     OW58371  11.110   3.713   4.337
18866SOL    HW158372  11.176   3.649   4.364
18866SOL    HW258373  11.096   3.696   4.244
18867SOL     OW58374   1.111   1.213  13.401
18867SOL    HW158375   1.044   1.280  13.412
18867SOL    HW258376   1.108   1.162  13.483
18868SOL     OW58377  14.014   9.917   7.511
18868SOL    HW158378  14.048  10.003   7.537
18868SOL    HW258379  13.920   9.923   7.525
18869SOL     OW58380  13.883  13.589   1.591
18869SOL    HW158381  13.866  13.495   1.595
18869SOL    HW258382  13.911  13.605   1.501
18870SOL     OW58383  11.016   4.983   7.391
18870SOL    HW158384  11.013   5.056   7.330
18870SOL    HW258385  10.931   4.983   7.435
18871SOL     OW58386   1.973  14.242   5.815
18871SOL    HW158387   2.019  14.187   5.879
18871SOL    HW258388   1.890  14.197   5.800
18872SOL     OW58389  13.590  14.327   7.206
18872SOL    HW158390  13.600  14.268   7.281
18872SOL    HW258391  13.656  14.395   7.221
18873SOL     OW58392   4.352  11.388   4.989
18873SOL    HW158393   4.337  11.470   5.035
18873SOL    HW258394   4.433  11.403   4.939
18874SOL     OW58395  13.436   1.184   1.743
18874SOL    HW158396  13.435   1.159   1.836
18874SOL    HW258397  13.518   1.232   1.731
18875SOL     OW58398  12.293   2.780   0.615
18875SOL    HW158399  12.227   2.713   0.598
18875SOL    HW258400  12.376   2.732   0.613
18876SOL     OW58401  10.139  11.642   2.670
18876SOL    HW158402  10.210  11.654   2.732
18876SOL    HW258403  10.162  11.562   2.622
18877SOL     OW58404   9.933  12.297   6.871
18877SOL    HW158405   9.909  12.334   6.786
18877SOL    HW258406   9.855  12.309   6.925
18878SOL     OW58407   9.014   7.443   2.573
18878SOL    HW158408   8.973   7.493   2.644
18878SOL    HW258409   8.957   7.368   2.561
18879SOL     OW58410   0.855   6.647   3.828
18879SOL    HW158411   0.949   6.647   3.844
18879SOL    HW258412   0.817   6.609   3.907
18880SOL     OW58413   1.506   4.936  11.634
18880SOL    HW158414   1.460   4.862  11.673
18880SOL    HW258415   1.554   4.975  11.707
18881SOL     OW58416  11.036   3.242   4.518
18881SOL    HW158417  10.942   3.234   4.535
18881SOL    HW258418  11.042   3.263   4.424
18882SOL     OW58419   0.154   2.407   1.143
18882SOL    HW158420   0.059   2.403   1.156
18882SOL    HW258421   0.170   2.498   1.116
18883SOL     OW58422   4.323   7.658   5.476
18883SOL    HW158423   4.341   7.601   5.401
18883SOL    HW258424   4.410   7.682   5.509
18884SOL     OW58425   8.160   1.030   5.418
18884SOL    HW158426   8.113   1.054   5.498
18884SOL    HW258427   8.216   0.957   5.444
18885SOL     OW58428  14.846  14.415   0.131
18885SOL    HW158429   0.012  14.331   0.115
18885SOL    HW258430  14.814  14.442   0.045
18886SOL     OW58431   6.996  11.683   7.662
18886SOL    HW158432   6.956  11.753   7.713
18886SOL    HW258433   6.992  11.606   7.720
18887SOL     OW58434  12.922  11.023   3.464
18887SOL    HW158435  12.845  11.065   3.425
18887SOL    HW258436  12.921  11.052   3.555
18888SOL     OW58437   6.184  12.350   5.423
18888SOL    HW158438   6.258  12.383   5.372
18888SOL    HW258439   6.194  12.255   5.421
18889SOL     OW58440  10.953  11.288   5.105
18889SOL    HW158441  10.996  11.360   5.059
18889SOL    HW258442  11.025  11.241   5.148
18890SOL     OW58443   7.012   4.290   7.752
18890SOL    HW158444   6.917   4.291   7.767
18890SOL    HW258445   7.023   4.231   7.677
18891SOL     OW58446  14.348   4.883   1.383
18891SOL    HW158447  14.273   4.825   1.395
18891SOL    HW258448  14.382   4.897   1.472
18892SOL     OW58449   8.263   1.104   9.641
18892SOL    HW158450   8.200   1.083   9.710
18892SOL    HW258451   8.209   1.131   9.566
18893SOL     OW58452   8.226   3.670   1.854
18893SOL    HW158453   8.223   3.760   1.887
18893SOL    HW258454   8.159   3.667   1.785
18894SOL     OW58455  10.844   3.750  14.470
18894SOL    HW158456  10.804   3.800  14.399
18894SOL    HW258457  10.770   3.708  14.514
18895SOL     OW58458  14.387   9.306   2.031
18895SOL    HW158459  14.371   9.399   2.014
18895SOL    HW258460  14.340   9.260   1.961
18896SOL     OW58461   9.334  12.655   2.280
18896SOL    HW158462   9.303  12.566   2.297
18896SOL    HW258463   9.384  12.679   2.358
18897SOL     OW58464   1.823   5.648   8.933
18897SOL    HW158465   1.787   5.732   8.963
18897SOL    HW258466   1.754   5.585   8.953
18898SOL     OW58467  14.322   9.781   0.016
18898SOL    HW158468  14.310   9.790  14.799
18898SOL    HW258469  14.281   9.860   0.052
18899SOL     OW58470   6.220   8.059  14.192
18899SOL    HW158471   6.158   8.057  14.265
18899SOL    HW258472   6.242   7.967  14.177
18900SOL     OW58473   5.254   1.374   3.402
18900SOL    HW158474   5.228   1.282   3.393
18900SOL    HW258475   5.210   1.404   3.481
18901SOL     OW58476   6.749   7.006  11.731
18901SOL    HW158477   6.713   7.031  11.816
18901SOL    HW258478   6.798   6.926  11.749
18902SOL     OW58479   9.892  12.544   9.679
18902SOL    HW158480   9.827  12.579   9.741
18902SOL    HW258481   9.909  12.455   9.711
18903SOL     OW58482   6.029   2.359   4.632
18903SOL    HW158483   5.934   2.361   4.644
18903SOL    HW258484   6.046   2.273   4.593
18904SOL     OW58485   0.118   4.556  12.415
18904SOL    HW158486   0.091   4.558  12.324
18904SOL    HW258487   0.185   4.624  12.422
18905SOL     OW58488   1.012  12.531  14.503
18905SOL    HW158489   0.966  12.450  14.482
18905SOL    HW258490   1.104  12.504  14.514
18906SOL     OW58491   8.608   0.312  13.674
18906SOL    HW158492   8.554   0.362  13.613
18906SOL    HW258493   8.693   0.306  13.631
18907SOL     OW58494   8.057   3.017   3.047
18907SOL    HW158495   8.120   2.982   3.110
18907SOL    HW258496   8.107   3.025   2.965
18908SOL     OW58497   8.842   9.406  13.527
18908SOL    HW158498   8.809   9.451  13.605
18908SOL    HW258499   8.919   9.359  13.557
18909SOL     OW58500  10.803   3.975   4.624
18909SOL    HW158501  10.724   3.926   4.646
18909SOL    HW258502  10.875   3.917   4.649
18910SOL     OW58503   7.673  11.822  10.850
18910SOL    HW158504   7.677  11.906  10.804
18910SOL    HW258505   7.759  11.782  10.835
18911SOL     OW58506  10.657   7.403   1.905
18911SOL    HW158507  10.621   7.341   1.841
18911SOL    HW258508  10.713   7.350   1.961
18912SOL     OW58509  10.445   3.096  11.096
18912SOL    HW158510  10.457   3.062  11.007
18912SOL    HW258511  10.475   3.025  11.153
18913SOL     OW58512   3.263   3.240   6.955
18913SOL    HW158513   3.265   3.309   7.021
18913SOL    HW258514   3.306   3.279   6.879
18914SOL     OW58515  12.675  14.454   6.354
18914SOL    HW158516  12.673  14.549   6.342
18914SOL    HW258517  12.584  14.429   6.370
18915SOL     OW58518   8.121   8.630   1.922
18915SOL    HW158519   8.114   8.591   1.834
18915SOL    HW258520   8.095   8.560   1.981
18916SOL     OW58521   6.659   6.259   1.238
18916SOL    HW158522   6.729   6.235   1.298
18916SOL    HW258523   6.583   6.210   1.269
18917SOL     OW58524   2.456   4.510   8.888
18917SOL    HW158525   2.507   4.442   8.845
18917SOL    HW258526   2.463   4.490   8.982
18918SOL     OW58527   8.340   5.694  10.626
18918SOL    HW158528   8.421   5.697  10.676
18918SOL    HW258529   8.308   5.605  10.637
18919SOL     OW58530   1.363   5.807   0.686
18919SOL    HW158531   1.348   5.713   0.676
18919SOL    HW258532   1.401   5.835   0.603
18920SOL     OW58533   6.207   5.468   4.053
18920SOL    HW158534   6.270   5.396   4.054
18920SOL    HW258535   6.210   5.501   3.963
18921SOL     OW58536   6.637  14.111  13.260
18921SOL    HW158537   6.698  14.172  13.219
18921SOL    HW258538   6.562  14.109  13.201
18922SOL     OW58539  12.898  10.443   0.055
18922SOL    HW158540  12.807  10.413   0.058
18922SOL    HW258541  12.927  10.423  14.844
18923SOL     OW58542  14.838   0.713   5.969
18923SOL    HW158543  14.857   0.689   6.059
18923SOL    HW258544  14.794   0.636   5.932
18924SOL     OW58545  14.053   2.146  13.492
18924SOL    HW158546  14.093   2.230  13.512
18924SOL    HW258547  14.101   2.113  13.416
18925SOL     OW58548   7.593  13.794   7.011
18925SOL    HW158549   7.499  13.790   6.996
18925SOL    HW258550   7.617  13.885   6.993
18926SOL     OW58551   9.871   3.442   5.205
18926SOL    HW158552   9.934   3.511   5.222
18926SOL    HW258553   9.888   3.375   5.272
18927SOL     OW58554   0.280   9.575   1.202
18927SOL    HW158555   0.274   9.489   1.245
18927SOL    HW258556   0.356   9.568   1.146
18928SOL     OW58557   2.675   6.998   6.333
18928SOL    HW158558   2.660   6.909   6.367
18928SOL    HW258559   2.593   7.044   6.350
18929SOL     OW58560   4.107   4.733  13.256
18929SOL    HW158561   4.168   4.801  13.228
18929SOL    HW258562   4.043   4.728  13.184
18930SOL     OW58563  11.984   1.581   5.888
18930SOL    HW158564  12.075   1.606   5.906
18930SOL    HW258565  11.945   1.659   5.849
18931SOL     OW58566  12.327  11.203   2.138
18931SOL    HW158567  12.417  11.217   2.107
18931SOL    HW258568  12.301  11.288   2.174
18932SOL     OW58569  11.169  14.393  11.643
18932SOL    HW158570  11.079  14.376  11.672
18932SOL    HW258571  11.162  14.468  11.585
18933SOL     OW58572   6.654   8.222   6.166
18933SOL    HW158573   6.572   8.256   6.128
18933SOL    HW258574   6.646   8.127   6.159
18934SOL     OW58575  13.153   1.273   9.142
18934SOL    HW158576  13.170   1.260   9.235
18934SOL    HW258577  13.191   1.196   9.099
18935SOL     OW58578   8.114   6.638   1.506
18935SOL    HW158579   8.086   6.729   1.505
18935SOL    HW258580   8.195   6.638   1.555
18936SOL     OW58581   9.569   9.575   7.544
18936SOL    HW158582   9.490   9.543   7.499
18936SOL    HW258583   9.535   9.634   7.612
18937SOL     OW58584   0.931  11.380   1.645
18937SOL    HW158585   0.968  11.358   1.559
18937SOL    HW258586   0.969  11.315   1.704
18938SOL     OW58587  13.176   0.760   8.733
18938SOL    HW158588  13.088   0.728   8.754
18938SOL    HW258589  13.200   0.716   8.652
18939SOL     OW58590  13.190   2.968   9.755
18939SOL    HW158591  13.253   2.906   9.719
18939SOL    HW258592  13.240   3.049   9.766
18940SOL     OW58593   8.868  14.095  11.358
18940SOL    HW158594   8.934  14.028  11.338
18940SOL    HW258595   8.894  14.128  11.444
18941SOL     OW58596  11.488  14.154  12.935
18941SOL    HW158597  11.457  14.241  12.961
18941SOL    HW258598  11.566  14.171  12.882
18942SOL     OW58599   7.464  11.643   4.677
18942SOL    HW158600   7.436  11.585   4.747
18942SOL    HW258601   7.539  11.691   4.713
18943SOL     OW58602   8.990   3.486   5.785
18943SOL    HW158603   9.045   3.409   5.769
18943SOL    HW258604   9.045   3.560   5.761
18944SOL     OW58605   4.082   7.180   3.863
18944SOL    HW158606   3.992   7.170   3.895
18944SOL    HW258607   4.072   7.187   3.768
18945SOL     OW58608  12.315   9.113  14.776
18945SOL    HW158609  12.338   9.071  14.693
18945SOL    HW258610  12.220   9.121  14.772
18946SOL     OW58611   9.430   6.909   4.843
18946SOL    HW158612   9.489   6.923   4.916
18946SOL    HW258613   9.372   6.839   4.872
18947SOL     OW58614   1.162  10.050  10.029
18947SOL    HW158615   1.143   9.995   9.953
18947SOL    HW258616   1.077  10.064  10.071
18948SOL     OW58617   3.322  14.561   1.338
18948SOL    HW158618   3.353  14.534   1.424
18948SOL    HW258619   3.361  14.497   1.277
18949SOL     OW58620  14.085   0.498   8.591
18949SOL    HW158621  14.113   0.589   8.585
18949SOL    HW258622  14.032   0.495   8.671
18950SOL     OW58623  11.745   8.407  11.730
18950SOL    HW158624  11.809   8.363  11.673
18950SOL    HW258625  11.794   8.426  11.810
18951SOL     OW58626   3.018   1.093   9.939
18951SOL    HW158627   3.106   1.071   9.908
18951SOL    HW258628   3.013   1.188   9.930
18952SOL     OW58629   7.199   4.728   2.628
18952SOL    HW158630   7.106   4.747   2.614
18952SOL    HW258631   7.240   4.745   2.544
18953SOL     OW58632   1.664  13.156   1.521
18953SOL    HW158633   1.729  13.225   1.532
18953SOL    HW258634   1.699  13.083   1.571
18954SOL     OW58635  13.364   4.613   0.411
18954SOL    HW158636  13.373   4.580   0.500
18954SOL    HW258637  13.429   4.564   0.360
18955SOL     OW58638   8.488   5.297  13.254
18955SOL    HW158639   8.583   5.294  13.249
18955SOL    HW258640   8.459   5.259  13.171
18956SOL     OW58641   4.876   6.349   8.108
18956SOL    HW158642   4.957   6.398   8.125
18956SOL    HW258643   4.820   6.368   8.183
18957SOL     OW58644  13.936   4.869  10.694
18957SOL    HW158645  14.002   4.880  10.627
18957SOL    HW258646  13.879   4.946  10.685
18958SOL     OW58647   1.174   1.087   6.347
18958SOL    HW158648   1.178   0.991   6.350
18958SOL    HW258649   1.265   1.115   6.361
18959SOL     OW58650   2.268   4.257   4.297
18959SOL    HW158651   2.327   4.333   4.291
18959SOL    HW258652   2.186   4.292   4.331
18960SOL     OW58653   6.067   1.418   2.094
18960SOL    HW158654   6.052   1.427   2.000
18960SOL    HW258655   5.999   1.472   2.135
18961SOL     OW58656  10.791   5.087   5.664
18961SOL    HW158657  10.754   5.009   5.621
18961SOL    HW258658  10.840   5.131   5.595
18962SOL     OW58659  11.904   0.370   7.107
18962SOL    HW158660  11.848   0.387   7.032
18962SOL    HW258661  11.892   0.276   7.125
18963SOL     OW58662   8.441  14.649   1.571
18963SOL    HW158663   8.369  14.711   1.561
18963SOL    HW258664   8.402  14.563   1.556
18964SOL     OW58665   7.753   3.576   3.420
18964SOL    HW158666   7.676   3.624   3.388
18964SOL    HW258667   7.750   3.492   3.375
18965SOL     OW58668  13.638   6.478   6.017
18965SOL    HW158669  13.584   6.514   5.947
18965SOL    HW258670  13.716   6.443   5.973
18966SOL     OW58671   5.580   2.802  10.320
18966SOL    HW158672   5.569   2.857  10.398
18966SOL    HW258673   5.532   2.848  10.251
18967SOL     OW58674   4.524   0.222   7.289
18967SOL    HW158675   4.584   0.159   7.329
18967SOL    HW258676   4.494   0.180   7.209
18968SOL     OW58677   7.121   0.631   2.291
18968SOL    HW158678   7.160   0.685   2.222
18968SOL    HW258679   7.050   0.584   2.248
18969SOL     OW58680  14.860  11.897   5.354
18969SOL    HW158681   0.041  11.942   5.416
18969SOL    HW258682   0.009  11.805   5.360
18970SOL     OW58683   9.316  10.021  14.868
18970SOL    HW158684   9.327  10.041  14.775
18970SOL    HW258685   9.331   9.926  14.874
18971SOL     OW58686  13.863  11.925  13.818
18971SOL    HW158687  13.926  11.875  13.766
18971SOL    HW258688  13.902  12.012  13.826
18972SOL     OW58689  13.956  10.296   2.391
18972SOL    HW158690  13.871  10.256   2.375
18972SOL    HW258691  13.962  10.367   2.326
18973SOL     OW58692   7.383  10.722   1.027
18973SOL    HW158693   7.307  10.766   1.065
18973SOL    HW258694   7.393  10.642   1.079
18974SOL     OW58695   4.553  13.618   5.516
18974SOL    HW158696   4.549  13.525   5.494
18974SOL    HW258697   4.596  13.659   5.441
18975SOL     OW58698   7.287   5.953   7.812
18975SOL    HW158699   7.214   6.004   7.776
18975SOL    HW258700   7.268   5.863   7.787
18976SOL     OW58701   5.749  11.429  14.057
18976SOL    HW158702   5.791  11.364  14.000
18976SOL    HW258703   5.722  11.379  14.134
18977SOL     OW58704   4.991  13.306   9.815
18977SOL    HW158705   4.902  13.286   9.786
18977SOL    HW258706   5.046  13.288   9.739
18978SOL     OW58707   2.216   1.208   7.511
18978SOL    HW158708   2.265   1.234   7.433
18978SOL    HW258709   2.216   1.285   7.567
18979SOL     OW58710   4.185   6.338   8.949
18979SOL    HW158711   4.130   6.317   8.874
18979SOL    HW258712   4.262   6.282   8.939
18980SOL     OW58713   2.547   9.590  12.564
18980SOL    HW158714   2.581   9.504  12.541
18980SOL    HW258715   2.522   9.629  12.479
18981SOL     OW58716   9.219   8.697  11.442
18981SOL    HW158717   9.304   8.697  11.399
18981SOL    HW258718   9.230   8.753  11.519
18982SOL     OW58719   0.788   4.680   8.867
18982SOL    HW158720   0.702   4.702   8.831
18982SOL    HW258721   0.849   4.703   8.797
18983SOL     OW58722  14.306  10.556   2.306
18983SOL    HW158723  14.336  10.501   2.379
18983SOL    HW258724  14.224  10.514   2.277
18984SOL     OW58725   9.109   2.075   2.894
18984SOL    HW158726   9.059   2.154   2.913
18984SOL    HW258727   9.072   2.008   2.952
18985SOL     OW58728  11.029   0.635   4.618
18985SOL    HW158729  11.072   0.689   4.684
18985SOL    HW258730  11.009   0.553   4.663
18986SOL     OW58731   4.321   3.622   7.302
18986SOL    HW158732   4.341   3.605   7.394
18986SOL    HW258733   4.231   3.591   7.291
18987SOL     OW58734   2.906  12.518  12.846
18987SOL    HW158735   2.928  12.431  12.878
18987SOL    HW258736   2.932  12.517  12.753
18988SOL     OW58737   9.608   1.530  10.107
18988SOL    HW158738   9.698   1.550  10.131
18988SOL    HW258739   9.595   1.573  10.022
18989SOL     OW58740   1.657  11.830   8.736
18989SOL    HW158741   1.587  11.780   8.777
18989SOL    HW258742   1.637  11.922   8.756
18990SOL     OW58743   5.482   1.007   0.965
18990SOL    HW158744   5.574   1.025   0.950
18990SOL    HW258745   5.463   1.049   1.049
18991SOL     OW58746   7.782   7.350   6.406
18991SOL    HW158747   7.838   7.428   6.410
18991SOL    HW258748   7.752   7.346   6.315
18992SOL     OW58749  12.976   0.830   7.501
18992SOL    HW158750  12.939   0.848   7.415
18992SOL    HW258751  12.914   0.868   7.563
18993SOL     OW58752  14.494   9.285   7.714
18993SOL    HW158753  14.411   9.328   7.732
18993SOL    HW258754  14.517   9.315   7.626
18994SOL     OW58755   9.179   8.701  13.681
18994SOL    HW158756   9.175   8.728  13.589
18994SOL    HW258757   9.239   8.626  13.682
18995SOL     OW58758   5.491  13.679   8.084
18995SOL    HW158759   5.580  13.643   8.085
18995SOL    HW258760   5.441  13.618   8.031
18996SOL     OW58761  13.228   1.237   1.582
18996SOL    HW158762  13.300   1.244   1.645
18996SOL    HW258763  13.262   1.180   1.513
18997SOL     OW58764  14.388  10.253   5.392
18997SOL    HW158765  14.471  10.299   5.383
18997SOL    HW258766  14.329  10.316   5.433
18998SOL     OW58767   5.546  14.724  12.379
18998SOL    HW158768   5.582  14.675  12.305
18998SOL    HW258769   5.622  14.759  12.424
18999SOL     OW58770  11.550  10.840   8.793
18999SOL    HW158771  11.625  10.830   8.852
18999SOL    HW258772  11.584  10.814   8.708
19000SOL     OW58773   5.810   0.997  11.502
19000SOL    HW158774   5.878   0.930  11.505
19000SOL    HW258775   5.809   1.027  11.411
19001SOL     OW58776   6.153   5.669   4.647
19001SOL    HW158777   6.232   5.696   4.694
19001SOL    HW258778   6.180   5.592   4.597
19002SOL     OW58779   4.298   4.705   4.233
19002SOL    HW158780   4.223   4.680   4.288
19002SOL    HW258781   4.361   4.634   4.244
19003SOL     OW58782   7.150   2.672  12.736
19003SOL    HW158783   7.184   2.748  12.783
19003SOL    HW258784   7.228   2.629  12.700
19004SOL     OW58785   5.339  11.422   3.536
19004SOL    HW158786   5.324  11.507   3.494
19004SOL    HW258787   5.361  11.364   3.463
19005SOL     OW58788   4.453   4.051   3.086
19005SOL    HW158789   4.481   4.090   3.003
19005SOL    HW258790   4.358   4.066   3.089
19006SOL     OW58791   8.750  11.167  10.349
19006SOL    HW158792   8.683  11.185  10.415
19006SOL    HW258793   8.829  11.148  10.399
19007SOL     OW58794   3.828   6.478   1.451
19007SOL    HW158795   3.804   6.570   1.438
19007SOL    HW258796   3.748   6.436   1.482
19008SOL     OW58797   2.541  14.345  14.076
19008SOL    HW158798   2.603  14.272  14.074
19008SOL    HW258799   2.569  14.398  14.151
19009SOL     OW58800   8.318   8.707  10.431
19009SOL    HW158801   8.344   8.694  10.340
19009SOL    HW258802   8.240   8.762  10.426
19010SOL     OW58803  13.872  14.762   0.570
19010SOL    HW158804  13.853  14.846   0.528
19010SOL    HW258805  13.830  14.768   0.656
19011SOL     OW58806  11.070   4.862   5.557
19011SOL    HW158807  11.101   4.784   5.603
19011SOL    HW258808  11.011   4.904   5.619
19012SOL     OW58809   4.343  14.128   8.565
19012SOL    HW158810   4.307  14.131   8.476
19012SOL    HW258811   4.267  14.116   8.621
19013SOL     OW58812   8.765   6.452   3.792
19013SOL    HW158813   8.771   6.370   3.743
19013SOL    HW258814   8.779   6.520   3.726
19014SOL     OW58815   6.389  13.637   7.433
19014SOL    HW158816   6.389  13.647   7.528
19014SOL    HW258817   6.297  13.641   7.408
19015SOL     OW58818   4.792  13.822  10.664
19015SOL    HW158819   4.885  13.802  10.657
19015SOL    HW258820   4.753  13.741  10.696
19016SOL     OW58821  10.172   2.954   8.216
19016SOL    HW158822  10.217   3.015   8.157
19016SOL    HW258823  10.167   2.872   8.168
19017SOL     OW58824   2.967  11.224   4.940
19017SOL    HW158825   2.933  11.143   4.977
19017SOL    HW258826   2.895  11.287   4.948
19018SOL     OW58827   2.312   0.578   7.539
19018SOL    HW158828   2.340   0.578   7.447
19018SOL    HW258829   2.382   0.625   7.585
19019SOL     OW58830  10.566  14.606  10.136
19019SOL    HW158831  10.552  14.669  10.207
19019SOL    HW258832  10.621  14.653  10.073
19020SOL     OW58833   8.016   9.315  14.546
19020SOL    HW158834   7.990   9.401  14.513
19020SOL    HW258835   8.067   9.277  14.475
19021SOL     OW58836   1.719   6.451   7.731
19021SOL    HW158837   1.744   6.487   7.816
19021SOL    HW258838   1.795   6.468   7.675
19022SOL     OW58839   8.811   3.606   3.371
19022SOL    HW158840   8.792   3.629   3.280
19022SOL    HW258841   8.792   3.512   3.376
19023SOL     OW58842   6.350  14.687   4.786
19023SOL    HW158843   6.371  14.594   4.777
19023SOL    HW258844   6.377  14.725   4.702
19024SOL     OW58845   5.820   1.296  14.582
19024SOL    HW158846   5.848   1.245  14.658
19024SOL    HW258847   5.870   1.261  14.509
19025SOL     OW58848   0.990   5.783  11.058
19025SOL    HW158849   0.987   5.688  11.041
19025SOL    HW258850   0.907   5.816  11.021
19026SOL     OW58851   1.527   4.854  11.338
19026SOL    HW158852   1.527   4.759  11.348
19026SOL    HW258853   1.472   4.886  11.410
19027SOL     OW58854  12.292   5.741   9.738
19027SOL    HW158855  12.307   5.748   9.644
19027SOL    HW258856  12.270   5.649   9.752
19028SOL     OW58857  11.933  13.329   3.909
19028SOL    HW158858  11.944  13.412   3.863
19028SOL    HW258859  11.840  13.327   3.933
19029SOL     OW58860   5.846   7.452   3.456
19029SOL    HW158861   5.804   7.532   3.423
19029SOL    HW258862   5.838   7.390   3.384
19030SOL     OW58863   5.195   8.525  11.579
19030SOL    HW158864   5.109   8.490  11.553
19030SOL    HW258865   5.199   8.611  11.536
19031SOL     OW58866   1.608   9.239   8.011
19031SOL    HW158867   1.647   9.323   8.034
19031SOL    HW258868   1.682   9.179   8.002
19032SOL     OW58869  13.333   9.644   8.602
19032SOL    HW158870  13.382   9.678   8.527
19032SOL    HW258871  13.388   9.661   8.678
19033SOL     OW58872   0.320   3.153   1.909
19033SOL    HW158873   0.315   3.244   1.938
19033SOL    HW258874   0.258   3.148   1.836
19034SOL     OW58875   6.295  12.454  12.901
19034SOL    HW158876   6.241  12.531  12.919
19034SOL    HW258877   6.258  12.385  12.957
19035SOL     OW58878  11.354   6.397   1.178
19035SOL    HW158879  11.447   6.417   1.193
19035SOL    HW258880  11.355   6.320   1.121
19036SOL     OW58881   8.741   7.805   1.626
19036SOL    HW158882   8.683   7.808   1.702
19036SOL    HW258883   8.700   7.742   1.567
19037SOL     OW58884   3.175   5.223   9.540
19037SOL    HW158885   3.265   5.253   9.549
19037SOL    HW258886   3.156   5.229   9.447
19038SOL     OW58887   0.794   9.042  13.523
19038SOL    HW158888   0.765   9.070  13.611
19038SOL    HW258889   0.739   8.966  13.504
19039SOL     OW58890  12.780  14.434   8.356
19039SOL    HW158891  12.741  14.513   8.319
19039SOL    HW258892  12.874  14.453   8.362
19040SOL     OW58893   3.275  12.781  12.682
19040SOL    HW158894   3.275  12.687  12.664
19040SOL    HW258895   3.325  12.819  12.610
19041SOL     OW58896   1.287   9.481   6.574
19041SOL    HW158897   1.279   9.574   6.595
19041SOL    HW258898   1.210   9.441   6.616
19042SOL     OW58899  11.656  11.696  12.709
19042SOL    HW158900  11.584  11.685  12.770
19042SOL    HW258901  11.645  11.784  12.673
19043SOL     OW58902  11.286   0.068  12.839
19043SOL    HW158903  11.319  14.856  12.853
19043SOL    HW258904  11.363   0.119  12.817
19044SOL     OW58905  12.261  10.161  14.288
19044SOL    HW158906  12.258  10.065  14.293
19044SOL    HW258907  12.170  10.186  14.272
19045SOL     OW58908   6.899  10.507  11.056
19045SOL    HW158909   6.822  10.564  11.052
19045SOL    HW258910   6.955  10.538  10.984
19046SOL     OW58911  14.072   7.710   3.658
19046SOL    HW158912  13.989   7.663   3.663
19046SOL    HW258913  14.089   7.737   3.748
19047SOL     OW58914  13.751  12.108   2.491
19047SOL    HW158915  13.753  12.203   2.503
19047SOL    HW258916  13.843  12.084   2.475
19048SOL     OW58917   6.735  10.626   2.452
19048SOL    HW158918   6.792  10.571   2.507
19048SOL    HW258919   6.751  10.715   2.483
19049SOL     OW58920   6.284  14.750   8.324
19049SOL    HW158921   6.243  14.812   8.385
19049SOL    HW258922   6.245  14.665   8.347
19050SOL     OW58923  11.975  14.749   7.563
19050SOL    HW158924  11.986  14.825   7.620
19050SOL    HW258925  12.056  14.744   7.512
19051SOL     OW58926  11.931   9.228   4.594
19051SOL    HW158927  12.013   9.186   4.616
19051SOL    HW258928  11.870   9.201   4.663
19052SOL     OW58929  11.933   3.552   4.409
19052SOL    HW158930  11.898   3.497   4.479
19052SOL    HW258931  11.864   3.616   4.392
19053SOL     OW58932   9.951   1.018   8.059
19053SOL    HW158933   9.865   0.979   8.051
19053SOL    HW258934   9.982   0.993   8.146
19054SOL     OW58935  11.407   3.701  12.881
19054SOL    HW158936  11.448   3.632  12.828
19054SOL    HW258937  11.480   3.756  12.908
19055SOL     OW58938   9.930  12.194   2.245
19055SOL    HW158939   9.986  12.124   2.280
19055SOL    HW258940   9.887  12.231   2.322
19056SOL     OW58941   0.323   9.817  11.827
19056SOL    HW158942   0.257   9.762  11.869
19056SOL    HW258943   0.388   9.755  11.794
19057SOL     OW58944   1.209   7.489   6.033
19057SOL    HW158945   1.156   7.437   6.094
19057SOL    HW258946   1.284   7.434   6.013
19058SOL     OW58947   6.154   6.978  11.997
19058SOL    HW158948   6.109   6.993  12.080
19058SOL    HW258949   6.244   6.958  12.021
19059SOL     OW58950   0.169   4.468   3.206
19059SOL    HW158951   0.162   4.403   3.137
19059SOL    HW258952   0.085   4.514   3.205
19060SOL     OW58953   4.264   5.747   3.025
19060SOL    HW158954   4.313   5.666   3.034
19060SOL    HW258955   4.200   5.729   2.956
19061SOL     OW58956  12.508  13.339  13.322
19061SOL    HW158957  12.570  13.267  13.328
19061SOL    HW258958  12.555  13.409  13.276
19062SOL     OW58959  14.715   3.651  13.056
19062SOL    HW158960  14.801   3.631  13.020
19062SOL    HW258961  14.724   3.642  13.150
19063SOL     OW58962   2.990   0.974   4.692
19063SOL    HW158963   2.942   0.969   4.609
19063SOL    HW258964   2.922   0.991   4.757
19064SOL     OW58965   1.319   8.390  10.946
19064SOL    HW158966   1.321   8.462  10.883
19064SOL    HW258967   1.288   8.430  11.027
19065SOL     OW58968   5.860  11.800  12.175
19065SOL    HW158969   5.820  11.716  12.199
19065SOL    HW258970   5.857  11.851  12.256
19066SOL     OW58971   8.643   5.391   0.823
19066SOL    HW158972   8.586   5.454   0.780
19066SOL    HW258973   8.659   5.323   0.757
19067SOL     OW58974   9.215  13.585  11.993
19067SOL    HW158975   9.195  13.521  11.924
19067SOL    HW258976   9.237  13.532  12.070
19068SOL     OW58977  14.261  13.607  11.104
19068SOL    HW158978  14.203  13.661  11.158
19068SOL    HW258979  14.205  13.535  11.075
19069SOL     OW58980   9.862  13.450  13.241
19069SOL    HW158981   9.914  13.400  13.178
19069SOL    HW258982   9.854  13.393  13.317
19070SOL     OW58983  10.052   1.292   8.331
19070SOL    HW158984  10.091   1.266   8.414
19070SOL    HW258985   9.968   1.248   8.329
19071SOL     OW58986   9.451   8.990   0.817
19071SOL    HW158987   9.380   8.940   0.858
19071SOL    HW258988   9.531   8.955   0.857
19072SOL     OW58989   5.002   9.271   1.326
19072SOL    HW158990   4.981   9.354   1.282
19072SOL    HW258991   4.953   9.274   1.408
19073SOL     OW58992   7.373   0.369   8.129
19073SOL    HW158993   7.362   0.301   8.063
19073SOL    HW258994   7.396   0.322   8.209
19074SOL     OW58995   6.259   9.497   1.522
19074SOL    HW158996   6.166   9.520   1.525
19074SOL    HW258997   6.267   9.422   1.582
19075SOL     OW58998  11.812  10.075   7.858
19075SOL    HW158999  11.721  10.047   7.863
19075SOL    HW259000  11.814  10.159   7.904
19076SOL     OW59001   5.197  13.578   1.788
19076SOL    HW159002   5.167  13.497   1.746
19076SOL    HW259003   5.138  13.646   1.756
19077SOL     OW59004   4.854  12.317   8.918
19077SOL    HW159005   4.797  12.256   8.871
19077SOL    HW259006   4.795  12.386   8.948
19078SOL     OW59007  13.278  10.471   0.678
19078SOL    HW159008  13.209  10.459   0.612
19078SOL    HW259009  13.236  10.522   0.747
19079SOL     OW59010   8.433  14.863   2.625
19079SOL    HW159011   8.378   0.034   2.563
19079SOL    HW259012   8.377  14.848   2.701
19080SOL     OW59013   5.222   0.988  12.559
19080SOL    HW159014   5.271   0.999  12.640
19080SOL    HW259015   5.144   1.042  12.569
19081SOL     OW59016   8.465   4.991  10.781
19081SOL    HW159017   8.387   5.038  10.810
19081SOL    HW259018   8.538   5.042  10.817
19082SOL     OW59019   2.965  14.182   0.442
19082SOL    HW159020   2.984  14.275   0.452
19082SOL    HW259021   3.025  14.152   0.374
19083SOL     OW59022   3.286  13.292   9.141
19083SOL    HW159023   3.353  13.318   9.077
19083SOL    HW259024   3.248  13.212   9.104
19084SOL     OW59025   1.673  11.516   1.650
19084SOL    HW159026   1.702  11.602   1.621
19084SOL    HW259027   1.669  11.522   1.746
19085SOL     OW59028   7.212   9.740   6.661
19085SOL    HW159029   7.120   9.746   6.633
19085SOL    HW259030   7.245   9.662   6.618
19086SOL     OW59031   0.998  12.659   7.130
19086SOL    HW159032   0.943  12.702   7.195
19086SOL    HW259033   1.048  12.594   7.179
19087SOL     OW59034   3.462   2.648   2.078
19087SOL    HW159035   3.515   2.721   2.044
19087SOL    HW259036   3.386   2.690   2.117
19088SOL     OW59037   2.269  12.215  13.801
19088SOL    HW159038   2.257  12.298  13.848
19088SOL    HW259039   2.351  12.180  13.837
19089SOL     OW59040  10.156  10.919   6.581
19089SOL    HW159041  10.250  10.910   6.564
19089SOL    HW259042  10.122  10.960   6.501
19090SOL     OW59043   0.210   9.712   6.268
19090SOL    HW159044   0.250   9.638   6.314
19090SOL    HW259045   0.134   9.735   6.321
19091SOL     OW59046  14.603   3.423   6.360
19091SOL    HW159047  14.610   3.464   6.274
19091SOL    HW259048  14.677   3.458   6.409
19092SOL     OW59049   7.387  11.779  13.635
19092SOL    HW159050   7.310  11.735  13.671
19092SOL    HW259051   7.434  11.813  13.711
19093SOL     OW59052   4.773   9.042  12.862
19093SOL    HW159053   4.711   9.096  12.813
19093SOL    HW259054   4.853   9.043  12.810
19094SOL     OW59055   8.960  12.979  14.359
19094SOL    HW159056   8.971  13.024  14.275
19094SOL    HW259057   8.889  13.026  14.402
19095SOL     OW59058   7.614   8.067   3.613
19095SOL    HW159059   7.527   8.089   3.579
19095SOL    HW259060   7.609   7.974   3.634
19096SOL     OW59061  14.410  11.369   2.981
19096SOL    HW159062  14.465  11.442   2.954
19096SOL    HW259063  14.374  11.335   2.899
19097SOL     OW59064   1.417  13.482  11.270
19097SOL    HW159065   1.322  13.490  11.262
19097SOL    HW259066   1.432  13.390  11.292
19098SOL     OW59067  14.491   3.472  12.666
19098SOL    HW159068  14.478   3.567  12.663
19098SOL    HW259069  14.437   3.443  12.739
19099SOL     OW59070   8.063  12.643  10.625
19099SOL    HW159071   8.066  12.695  10.705
19099SOL    HW259072   8.079  12.553  10.654
19100SOL     OW59073  14.308   5.391  14.851
19100SOL    HW159074  14.219   5.408  14.820
19100SOL    HW259075  14.331   5.468   0.024
19101SOL     OW59076   1.462   5.663   5.123
19101SOL    HW159077   1.379   5.638   5.162
19101SOL    HW259078   1.486   5.745   5.167
19102SOL     OW59079  14.404   6.244  12.663
19102SOL    HW159080  14.419   6.306  12.592
19102SOL    HW259081  14.488   6.238  12.708
19103SOL     OW59082  10.785  12.226   0.760
19103SOL    HW159083  10.876  12.227   0.728
19103SOL    HW259084  10.793  12.206   0.854
19104SOL     OW59085   6.697  14.866   3.832
19104SOL    HW159086   6.721   0.081   3.826
19104SOL    HW259087   6.605  14.867   3.859
19105SOL     OW59088   5.438   6.133  14.721
19105SOL    HW159089   5.402   6.221  14.726
19105SOL    HW259090   5.531   6.145  14.741
19106SOL     OW59091   2.941   9.540   0.256
19106SOL    HW159092   2.960   9.453   0.220
19106SOL    HW259093   2.920   9.524   0.348
19107SOL     OW59094   3.101   1.660   8.333
19107SOL    HW159095   3.190   1.634   8.311
19107SOL    HW259096   3.066   1.587   8.384
19108SOL     OW59097  13.972  10.182  14.135
19108SOL    HW159098  13.883  10.190  14.168
19108SOL    HW259099  13.971  10.227  14.051
19109SOL     OW59100   3.719  11.636  14.466
19109SOL    HW159101   3.808  11.668  14.447
19109SOL    HW259102   3.721  11.616  14.560
19110SOL     OW59103   9.438  14.705   2.077
19110SOL    HW159104   9.368  14.762   2.044
19110SOL    HW259105   9.518  14.757   2.066
19111SOL     OW59106   3.987  13.809   7.121
19111SOL    HW159107   3.986  13.904   7.116
19111SOL    HW259108   3.959  13.780   7.034
19112SOL     OW59109   5.520  11.421  10.256
19112SOL    HW159110   5.604  11.463  10.275
19112SOL    HW259111   5.538  11.327  10.258
19113SOL     OW59112  13.479   4.853  10.759
19113SOL    HW159113  13.394   4.815  10.781
19113SOL    HW259114  13.489   4.927  10.819
19114SOL     OW59115   2.265  10.736  12.240
19114SOL    HW159116   2.242  10.758  12.331
19114SOL    HW259117   2.344  10.788  12.223
19115SOL     OW59118   7.004  12.518   4.764
19115SOL    HW159119   7.066  12.502   4.693
19115SOL    HW259120   6.920  12.531   4.719
19116SOL     OW59121   6.247   9.429   3.023
19116SOL    HW159122   6.188   9.354   3.033
19116SOL    HW259123   6.189   9.504   3.015
19117SOL     OW59124   3.778   0.908   1.362
19117SOL    HW159125   3.792   0.817   1.337
19117SOL    HW259126   3.865   0.948   1.357
19118SOL     OW59127   2.319   4.639  11.664
19118SOL    HW159128   2.399   4.601  11.701
19118SOL    HW259129   2.333   4.634  11.569
19119SOL     OW59130  13.988   4.877   1.521
19119SOL    HW159131  14.046   4.952   1.537
19119SOL    HW259132  14.034   4.803   1.560
19120SOL     OW59133  12.591   0.162   8.280
19120SOL    HW159134  12.503   0.124   8.272
19120SOL    HW259135  12.644   0.111   8.218
19121SOL     OW59136   0.941   3.627   3.627
19121SOL    HW159137   0.899   3.630   3.541
19121SOL    HW259138   0.894   3.693   3.679
19122SOL     OW59139   3.206  11.098   8.421
19122SOL    HW159140   3.151  11.122   8.495
19122SOL    HW259141   3.191  11.004   8.410
19123SOL     OW59142   0.935   9.054   4.729
19123SOL    HW159143   0.859   9.002   4.702
19123SOL    HW259144   0.958   9.105   4.651
19124SOL     OW59145   1.542   5.603   8.784
19124SOL    HW159146   1.573   5.534   8.842
19124SOL    HW259147   1.507   5.670   8.842
19125SOL     OW59148  14.414  10.883   7.425
19125SOL    HW159149  14.408  10.953   7.490
19125SOL    HW259150  14.357  10.912   7.354
19126SOL     OW59151   1.317  12.967   8.590
19126SOL    HW159152   1.285  13.052   8.620
19126SOL    HW259153   1.260  12.944   8.517
19127SOL     OW59154   1.833   8.017  12.533
19127SOL    HW159155   1.769   7.963  12.488
19127SOL    HW259156   1.792   8.103  12.541
19128SOL     OW59157  12.728   8.178   4.405
19128SOL    HW159158  12.761   8.171   4.495
19128SOL    HW259159  12.638   8.210   4.415
19129SOL     OW59160   4.953   9.122  11.275
19129SOL    HW159161   4.948   9.206  11.230
19129SOL    HW259162   4.912   9.060  11.215
19130SOL     OW59163   5.250   1.426   1.265
19130SOL    HW159164   5.226   1.483   1.192
19130SOL    HW259165   5.198   1.346   1.251
19131SOL     OW59166  11.524   6.469   7.959
19131SOL    HW159167  11.502   6.405   8.027
19131SOL    HW259168  11.463   6.541   7.974
19132SOL     OW59169  13.725  11.529   7.374
19132SOL    HW159170  13.661  11.483   7.319
19132SOL    HW259171  13.779  11.579   7.312
19133SOL     OW59172   9.045   3.145   6.310
19133SOL    HW159173   9.045   3.056   6.345
19133SOL    HW259174   9.129   3.181   6.336
19134SOL     OW59175   2.189  10.813   5.031
19134SOL    HW159176   2.278  10.845   5.045
19134SOL    HW259177   2.146  10.883   4.982
19135SOL     OW59178   7.501   9.362   8.263
19135SOL    HW159179   7.578   9.315   8.296
19135SOL    HW259180   7.537   9.431   8.208
19136SOL     OW59181   1.615  14.444   8.920
19136SOL    HW159182   1.600  14.512   8.985
19136SOL    HW259183   1.630  14.365   8.970
19137SOL     OW59184   9.694   4.586   0.081
19137SOL    HW159185   9.659   4.562  14.872
19137SOL    HW259186   9.775   4.633   0.061
19138SOL     OW59187   0.073   5.618   4.760
19138SOL    HW159188   0.075   5.674   4.838
19138SOL    HW259189   0.096   5.531   4.793
19139SOL     OW59190   8.563  14.057  11.375
19139SOL    HW159191   8.653  14.030  11.393
19139SOL    HW259192   8.547  14.129  11.436
19140SOL     OW59193   7.939   3.691   4.898
19140SOL    HW159194   7.957   3.726   4.985
19140SOL    HW259195   7.914   3.600   4.914
19141SOL     OW59196   3.311   4.830   9.454
19141SOL    HW159197   3.310   4.864   9.544
19141SOL    HW259198   3.219   4.811   9.435
19142SOL     OW59199   1.678  11.244  12.635
19142SOL    HW159200   1.720  11.305  12.696
19142SOL    HW259201   1.596  11.220  12.678
19143SOL     OW59202   0.140   3.367   4.441
19143SOL    HW159203   0.225   3.334   4.411
19143SOL    HW259204   0.084   3.290   4.443
19144SOL     OW59205  11.737   3.317  11.875
19144SOL    HW159206  11.701   3.309  11.964
19144SOL    HW259207  11.787   3.236  11.862
19145SOL     OW59208   3.482  11.706  11.577
19145SOL    HW159209   3.426  11.680  11.503
19145SOL    HW259210   3.565  11.663  11.560
19146SOL     OW59211   7.995   3.823   1.219
19146SOL    HW159212   7.986   3.901   1.275
19146SOL    HW259213   8.048   3.853   1.146
19147SOL     OW59214  13.912   3.643   1.166
19147SOL    HW159215  13.960   3.721   1.194
19147SOL    HW259216  13.834   3.643   1.221
19148SOL     OW59217   8.920   7.789   0.249
19148SOL    HW159218   8.928   7.865   0.306
19148SOL    HW259219   8.909   7.826   0.161
19149SOL     OW59220  11.413  14.825  10.627
19149SOL    HW159221  11.403  14.733  10.601
19149SOL    HW259222  11.439  14.870  10.546
19150SOL     OW59223   7.075   6.649   9.680
19150SOL    HW159224   7.100   6.701   9.605
19150SOL    HW259225   6.990   6.684   9.706
19151SOL     OW59226   8.972   8.241   2.567
19151SOL    HW159227   8.921   8.295   2.506
19151SOL    HW259228   9.041   8.202   2.513
19152SOL     OW59229   0.299  11.337  11.023
19152SOL    HW159230   0.207  11.333  11.047
19152SOL    HW259231   0.326  11.245  11.017
19153SOL     OW59232   9.167  14.579   0.216
19153SOL    HW159233   9.086  14.531   0.229
19153SOL    HW259234   9.176  14.584   0.121
19154SOL     OW59235   4.797   9.122   4.455
19154SOL    HW159236   4.768   9.188   4.392
19154SOL    HW259237   4.720   9.108   4.511
19155SOL     OW59238   6.413  11.895   6.050
19155SOL    HW159239   6.378  11.850   5.973
19155SOL    HW259240   6.428  11.826   6.114
19156SOL     OW59241  12.961   0.564   8.610
19156SOL    HW159242  12.941   0.653   8.638
19156SOL    HW259243  13.030   0.575   8.545
19157SOL     OW59244   8.988   3.538   5.166
19157SOL    HW159245   9.001   3.451   5.128
19157SOL    HW259246   9.077   3.573   5.178
19158SOL     OW59247   0.578   1.925  11.995
19158SOL    HW159248   0.531   1.955  11.917
19158SOL    HW259249   0.670   1.943  11.976
19159SOL     OW59250   2.008   0.940   0.958
19159SOL    HW159251   1.953   0.960   1.033
19159SOL    HW259252   2.097   0.934   0.994
19160SOL     OW59253  14.668  10.084   5.092
19160SOL    HW159254  14.720  10.090   5.172
19160SOL    HW259255  14.730  10.054   5.025
19161SOL     OW59256  12.007   9.485   1.208
19161SOL    HW159257  11.973   9.426   1.275
19161SOL    HW259258  11.929   9.518   1.163
19162SOL     OW59259   5.532  13.413   0.444
19162SOL    HW159260   5.566  13.417   0.534
19162SOL    HW259261   5.603  13.448   0.390
19163SOL     OW59262   7.652   3.787   5.748
19163SOL    HW159263   7.615   3.868   5.783
19163SOL    HW259264   7.663   3.804   5.654
19164SOL     OW59265   0.617   2.492  13.899
19164SOL    HW159266   0.632   2.412  13.949
19164SOL    HW259267   0.552   2.467  13.833
19165SOL     OW59268   4.760   3.451   8.157
19165SOL    HW159269   4.736   3.489   8.073
19165SOL    HW259270   4.677   3.429   8.198
19166SOL     OW59271   4.824   8.965  10.775
19166SOL    HW159272   4.743   9.003  10.811
19166SOL    HW259273   4.807   8.871  10.773
19167SOL     OW59274   8.964  10.361   6.652
19167SOL    HW159275   8.927  10.300   6.716
19167SOL    HW259276   8.897  10.369   6.585
19168SOL     OW59277   2.893  12.101   9.362
19168SOL    HW159278   2.910  12.138   9.449
19168SOL    HW259279   2.931  12.164   9.301
19169SOL     OW59280  13.677   9.951   9.509
19169SOL    HW159281  13.598   9.915   9.468
19169SOL    HW259282  13.653   9.964   9.600
19170SOL     OW59283   0.071   4.765   0.536
19170SOL    HW159284   0.120   4.807   0.465
19170SOL    HW259285   0.135   4.753   0.606
19171SOL     OW59286  10.664   2.587   7.885
19171SOL    HW159287  10.715   2.664   7.910
19171SOL    HW259288  10.617   2.613   7.806
19172SOL     OW59289   6.331   1.361  10.590
19172SOL    HW159290   6.412   1.328  10.630
19172SOL    HW259291   6.352   1.451  10.565
19173SOL     OW59292  14.429  13.595   8.512
19173SOL    HW159293  14.518  13.619   8.486
19173SOL    HW259294  14.417  13.507   8.477
19174SOL     OW59295  13.601   9.451  13.256
19174SOL    HW159296  13.589   9.542  13.228
19174SOL    HW259297  13.592   9.400  13.175
19175SOL     OW59298   9.660   2.193  11.420
19175SOL    HW159299   9.729   2.162  11.362
19175SOL    HW259300   9.659   2.288  11.408
19176SOL     OW59301   8.704   3.588  13.517
19176SOL    HW159302   8.771   3.655  13.504
19176SOL    HW259303   8.669   3.572  13.429
19177SOL     OW59304   9.809   8.448   1.917
19177SOL    HW159305   9.804   8.543   1.921
19177SOL    HW259306   9.899   8.429   1.893
19178SOL     OW59307   8.212  12.239   2.089
19178SOL    HW159308   8.300  12.277   2.088
19178SOL    HW259309   8.171  12.273   2.010
19179SOL     OW59310  14.300   9.187  12.535
19179SOL    HW159311  14.235   9.226  12.594
19179SOL    HW259312  14.384   9.212  12.573
19180SOL     OW59313   6.565   4.644   6.798
19180SOL    HW159314   6.659   4.645   6.814
19180SOL    HW259315   6.540   4.552   6.807
19181SOL     OW59316   7.404  11.347   9.859
19181SOL    HW159317   7.381  11.383   9.774
19181SOL    HW259318   7.445  11.262   9.839
19182SOL     OW59319   3.952  12.761   3.554
19182SOL    HW159320   3.864  12.744   3.585
19182SOL    HW259321   3.978  12.843   3.596
19183SOL     OW59322   2.909  14.093   8.571
19183SOL    HW159323   2.961  14.153   8.517
19183SOL    HW259324   2.827  14.082   8.523
19184SOL     OW59325   0.463  14.293   1.747
19184SOL    HW159326   0.465  14.341   1.830
19184SOL    HW259327   0.554  14.269   1.731
19185SOL     OW59328  11.199   6.083   2.018
19185SOL    HW159329  11.109   6.107   2.038
19185SOL    HW259330  11.210   6.107   1.926
19186SOL     OW59331   0.056  14.389   2.372
19186SOL    HW159332  14.849  14.359   2.405
19186SOL    HW259333   0.067  14.476   2.410
19187SOL     OW59334   3.588  12.479   2.748
19187SOL    HW159335   3.659  12.528   2.789
19187SOL    HW259336   3.631  12.422   2.685
19188SOL     OW59337   8.620   7.281   3.502
19188SOL    HW159338   8.572   7.322   3.430
19188SOL    HW259339   8.709   7.271   3.469
19189SOL     OW59340   7.473   5.530   7.823
19189SOL    HW159341   7.538   5.581   7.775
19189SOL    HW259342   7.479   5.562   7.913
19190SOL     OW59343  13.721   8.894   7.114
19190SOL    HW159344  13.710   8.922   7.023
19190SOL    HW259345  13.634   8.863   7.140
19191SOL     OW59346   5.462   6.418   4.318
19191SOL    HW159347   5.484   6.496   4.267
19191SOL    HW259348   5.486   6.345   4.261
19192SOL     OW59349   2.411   2.030   9.304
19192SOL    HW159350   2.374   1.950   9.341
19192SOL    HW259351   2.334   2.084   9.282
19193SOL     OW59352   9.755  14.151  14.140
19193SOL    HW159353   9.792  14.157  14.053
19193SOL    HW259354   9.793  14.071  14.177
19194SOL     OW59355   3.260  10.739   9.455
19194SOL    HW159356   3.339  10.784   9.487
19194SOL    HW259357   3.268  10.741   9.360
19195SOL     OW59358   7.107  12.531   1.401
19195SOL    HW159359   7.159  12.537   1.481
19195SOL    HW259360   7.169  12.500   1.335
19196SOL     OW59361   5.528   8.897   1.531
19196SOL    HW159362   5.476   8.853   1.597
19196SOL    HW259363   5.550   8.829   1.467
19197SOL     OW59364   5.900   4.716   8.577
19197SOL    HW159365   5.856   4.791   8.616
19197SOL    HW259366   5.924   4.745   8.489
19198SOL     OW59367  10.036   8.726  13.465
19198SOL    HW159368  10.082   8.748  13.384
19198SOL    HW259369  10.041   8.805  13.519
19199SOL     OW59370   2.742   2.901   0.496
19199SOL    HW159371   2.783   2.815   0.500
19199SOL    HW259372   2.718   2.912   0.404
19200SOL     OW59373  10.214   6.340  11.883
19200SOL    HW159374  10.301   6.373  11.905
19200SOL    HW259375  10.209   6.348  11.788
19201SOL     OW59376   8.659   9.028   0.710
19201SOL    HW159377   8.641   8.935   0.724
19201SOL    HW259378   8.607   9.073   0.776
19202SOL     OW59379   4.742   9.120  13.917
19202SOL    HW159380   4.793   9.096  13.994
19202SOL    HW259381   4.657   9.145  13.952
19203SOL     OW59382   4.765   5.877   1.953
19203SOL    HW159383   4.778   5.831   2.036
19203SOL    HW259384   4.731   5.810   1.893
19204SOL     OW59385  13.840   5.078  14.601
19204SOL    HW159386  13.886   4.998  14.625
19204SOL    HW259387  13.747   5.058  14.615
19205SOL     OW59388   6.760   8.305  12.201
19205SOL    HW159389   6.696   8.308  12.130
19205SOL    HW259390   6.844   8.322  12.158
19206SOL     OW59391   6.909   8.838   1.722
19206SOL    HW159392   6.976   8.897   1.690
19206SOL    HW259393   6.834   8.853   1.664
19207SOL     OW59394   9.878   9.805   1.914
19207SOL    HW159395   9.899   9.805   2.007
19207SOL    HW259396   9.963   9.794   1.870
19208SOL     OW59397   0.323  12.466  11.218
19208SOL    HW159398   0.387  12.491  11.152
19208SOL    HW259399   0.293  12.379  11.191
19209SOL     OW59400   5.006   7.951   1.497
19209SOL    HW159401   5.081   7.903   1.531
19209SOL    HW259402   4.931   7.895   1.516
19210SOL     OW59403  13.797   0.768   8.836
19210SOL    HW159404  13.727   0.705   8.822
19210SOL    HW259405  13.774   0.843   8.781
19211SOL     OW59406   3.640   9.940   0.459
19211SOL    HW159407   3.646   9.915   0.367
19211SOL    HW259408   3.564   9.997   0.464
19212SOL     OW59409   2.719  12.862  11.141
19212SOL    HW159410   2.650  12.797  11.137
19212SOL    HW259411   2.796  12.818  11.104
19213SOL     OW59412  14.775   1.636   9.560
19213SOL    HW159413  14.804   1.712   9.609
19213SOL    HW259414  14.849   1.575   9.564
19214SOL     OW59415   8.676  10.915  10.574
19214SOL    HW159416   8.592  10.930  10.617
19214SOL    HW259417   8.694  10.997  10.528
19215SOL     OW59418   6.089  13.815   4.625
19215SOL    HW159419   6.019  13.757   4.654
19215SOL    HW259420   6.058  13.903   4.645
19216SOL     OW59421   0.165   6.444   0.079
19216SOL    HW159422   0.135   6.412  14.871
19216SOL    HW259423   0.107   6.402   0.142
19217SOL     OW59424  14.810   5.740  13.737
19217SOL    HW159425  14.816   5.756  13.832
19217SOL    HW259426  14.851   5.654  13.726
19218SOL     OW59427   6.668   3.175   2.067
19218SOL    HW159428   6.711   3.124   2.135
19218SOL    HW259429   6.670   3.118   1.990
19219SOL     OW59430   0.624   3.203   2.676
19219SOL    HW159431   0.614   3.129   2.615
19219SOL    HW259432   0.534   3.229   2.697
19220SOL     OW59433   3.260   7.358   0.385
19220SOL    HW159434   3.258   7.449   0.356
19220SOL    HW259435   3.328   7.317   0.332
19221SOL     OW59436  10.730   0.511  12.425
19221SOL    HW159437  10.640   0.496  12.396
19221SOL    HW259438  10.782   0.446  12.377
19222SOL     OW59439   9.261   4.502   0.869
19222SOL    HW159440   9.274   4.516   0.775
19222SOL    HW259441   9.174   4.464   0.876
19223SOL     OW59442  11.634   7.829   0.705
19223SOL    HW159443  11.644   7.760   0.638
19223SOL    HW259444  11.717   7.876   0.703
19224SOL     OW59445   5.382   8.725   4.715
19224SOL    HW159446   5.406   8.814   4.689
19224SOL    HW259447   5.385   8.674   4.634
19225SOL     OW59448   7.111  13.017   5.833
19225SOL    HW159449   7.196  13.043   5.797
19225SOL    HW259450   7.068  12.969   5.763
19226SOL     OW59451   9.740   1.221  13.258
19226SOL    HW159452   9.774   1.270  13.333
19226SOL    HW259453   9.650   1.200  13.282
19227SOL     OW59454  10.357   6.383   1.859
19227SOL    HW159455  10.277   6.343   1.823
19227SOL    HW259456  10.327   6.431   1.936
19228SOL     OW59457   6.787   0.036  13.007
19228SOL    HW159458   6.752   0.123  13.024
19228SOL    HW259459   6.877   0.040  13.039
19229SOL     OW59460   6.818   2.459  12.979
19229SOL    HW159461   6.813   2.527  13.047
19229SOL    HW259462   6.728   2.425  12.974
19230SOL     OW59463   1.209   1.116   1.912
19230SOL    HW159464   1.138   1.070   1.867
19230SOL    HW259465   1.271   1.140   1.842
19231SOL     OW59466   6.670   9.863   0.799
19231SOL    HW159467   6.741   9.799   0.802
19231SOL    HW259468   6.628   9.847   0.714
19232SOL     OW59469   2.509  12.968   1.134
19232SOL    HW159470   2.561  12.988   1.212
19232SOL    HW259471   2.569  12.919   1.078
19233SOL     OW59472  13.828  12.510   4.839
19233SOL    HW159473  13.735  12.527   4.854
19233SOL    HW259474  13.848  12.434   4.894
19234SOL     OW59475   5.933   3.926   8.666
19234SOL    HW159476   5.915   3.855   8.726
19234SOL    HW259477   5.848   3.968   8.652
19235SOL     OW59478  12.588   0.439   3.003
19235SOL    HW159479  12.537   0.420   3.082
19235SOL    HW259480  12.553   0.522   2.971
19236SOL     OW59481  10.189   7.772  13.886
19236SOL    HW159482  10.260   7.778  13.949
19236SOL    HW259483  10.148   7.687  13.904
19237SOL     OW59484   1.803   1.863  12.210
19237SOL    HW159485   1.753   1.869  12.128
19237SOL    HW259486   1.771   1.784  12.252
19238SOL     OW59487  10.957   5.282  11.476
19238SOL    HW159488  11.002   5.199  11.458
19238SOL    HW259489  11.028   5.343  11.497
19239SOL     OW59490  10.979   6.762   1.069
19239SOL    HW159491  11.068   6.727   1.066
19239SOL    HW259492  10.945   6.749   0.981
19240SOL     OW59493   5.813   7.692   5.283
19240SOL    HW159494   5.895   7.739   5.299
19240SOL    HW259495   5.803   7.634   5.358
19241SOL     OW59496  11.410   3.890   7.425
19241SOL    HW159497  11.328   3.933   7.449
19241SOL    HW259498  11.457   3.881   7.508
19242SOL     OW59499   9.166  13.061   4.511
19242SOL    HW159500   9.226  13.020   4.574
19242SOL    HW259501   9.118  12.987   4.472
19243SOL     OW59502   2.247   5.745   7.540
19243SOL    HW159503   2.294   5.693   7.605
19243SOL    HW259504   2.310   5.757   7.469
19244SOL     OW59505   0.690   2.235   7.468
19244SOL    HW159506   0.702   2.327   7.488
19244SOL    HW259507   0.597   2.228   7.446
19245SOL     OW59508  13.580  12.853   7.674
19245SOL    HW159509  13.582  12.944   7.644
19245SOL    HW259510  13.500  12.847   7.727
19246SOL     OW59511   0.114   9.744  13.468
19246SOL    HW159512   0.114   9.762  13.562
19246SOL    HW259513   0.028   9.705  13.450
19247SOL     OW59514  12.484  14.574   7.690
19247SOL    HW159515  12.515  14.663   7.706
19247SOL    HW259516  12.433  14.580   7.609
19248SOL     OW59517   3.709  14.867   4.320
19248SOL    HW159518   3.722   0.076   4.281
19248SOL    HW259519   3.680   0.009   4.409
19249SOL     OW59520   1.963   5.558   0.759
19249SOL    HW159521   2.024   5.609   0.812
19249SOL    HW259522   2.018   5.496   0.712
19250SOL     OW59523   5.731   2.114  11.651
19250SOL    HW159524   5.711   2.198  11.691
19250SOL    HW259525   5.748   2.134  11.559
19251SOL     OW59526  14.844   6.509   7.950
19251SOL    HW159527  14.823   6.416   7.960
19251SOL    HW259528   0.060   6.515   7.972
19252SOL     OW59529   7.783   0.815  13.716
19252SOL    HW159530   7.766   0.766  13.797
19252SOL    HW259531   7.786   0.906  13.743
19253SOL     OW59532  12.305   7.319   3.266
19253SOL    HW159533  12.259   7.245   3.227
19253SOL    HW259534  12.236   7.370   3.308
19254SOL     OW59535   8.932   8.303   8.543
19254SOL    HW159536   8.872   8.345   8.480
19254SOL    HW259537   8.926   8.359   8.621
19255SOL     OW59538   4.039  11.517   3.818
19255SOL    HW159539   3.990  11.453   3.767
19255SOL    HW259540   4.074  11.467   3.892
19256SOL     OW59541   3.377   2.710  14.855
19256SOL    HW159542   3.424   2.791  14.875
19256SOL    HW259543   3.298   2.738  14.809
19257SOL     OW59544   7.645   2.900  10.756
19257SOL    HW159545   7.655   2.920  10.663
19257SOL    HW259546   7.688   2.815  10.768
19258SOL     OW59547   9.903   2.646   8.173
19258SOL    HW159548   9.870   2.684   8.092
19258SOL    HW259549   9.897   2.716   8.237
19259SOL     OW59550   4.878   5.185   4.982
19259SOL    HW159551   4.862   5.177   5.076
19259SOL    HW259552   4.829   5.263   4.956
19260SOL     OW59553   4.349   6.855   2.724
19260SOL    HW159554   4.321   6.767   2.750
19260SOL    HW259555   4.320   6.911   2.795
19261SOL     OW59556   6.430   6.861  10.939
19261SOL    HW159557   6.465   6.778  10.907
19261SOL    HW259558   6.396   6.905  10.860
19262SOL     OW59559   3.030   8.022   7.358
19262SOL    HW159560   2.978   7.946   7.386
19262SOL    HW259561   3.098   8.030   7.425
19263SOL     OW59562   6.974   9.565  12.950
19263SOL    HW159563   6.906   9.582  13.014
19263SOL    HW259564   7.010   9.479  12.975
19264SOL     OW59565  11.182  13.672   6.400
19264SOL    HW159566  11.222  13.680   6.314
19264SOL    HW259567  11.235  13.727   6.457
19265SOL     OW59568   5.030  14.405   8.948
19265SOL    HW159569   5.090  14.416   9.022
19265SOL    HW259570   5.044  14.484   8.895
19266SOL     OW59571   1.598   0.435  12.595
19266SOL    HW159572   1.532   0.473  12.537
19266SOL    HW259573   1.677   0.429  12.542
19267SOL     OW59574   6.626  11.121   9.491
19267SOL    HW159575   6.706  11.123   9.543
19267SOL    HW259576   6.656  11.109   9.400
19268SOL     OW59577   7.127   5.362   2.288
19268SOL    HW159578   7.147   5.268   2.286
19268SOL    HW259579   7.071   5.374   2.365
19269SOL     OW59580  11.052   1.977   0.850
19269SOL    HW159581  10.966   1.997   0.887
19269SOL    HW259582  11.035   1.951   0.760
19270SOL     OW59583   4.044   1.538   5.573
19270SOL    HW159584   3.953   1.555   5.595
19270SOL    HW259585   4.050   1.442   5.568
19271SOL     OW59586   7.827  11.907   9.455
19271SOL    HW159587   7.881  11.891   9.533
19271SOL    HW259588   7.843  11.999   9.433
19272SOL     OW59589   9.220   5.533   6.098
19272SOL    HW159590   9.142   5.480   6.081
19272SOL    HW259591   9.187   5.612   6.140
19273SOL     OW59592   5.567   5.212  12.836
19273SOL    HW159593   5.581   5.301  12.870
19273SOL    HW259594   5.654   5.174  12.831
19274SOL     OW59595   0.518   5.914   2.987
19274SOL    HW159596   0.570   5.881   2.914
19274SOL    HW259597   0.437   5.864   2.983
19275SOL     OW59598   9.445   8.690   1.497
19275SOL    HW159599   9.440   8.726   1.586
19275SOL    HW259600   9.396   8.608   1.502
19276SOL     OW59601  14.333   8.343   6.372
19276SOL    HW159602  14.357   8.430   6.341
19276SOL    HW259603  14.402   8.286   6.339
19277SOL     OW59604  10.321   7.760   5.599
19277SOL    HW159605  10.366   7.818   5.660
19277SOL    HW259606  10.230   7.789   5.600
19278SOL     OW59607   7.758   0.524   9.303
19278SOL    HW159608   7.780   0.608   9.263
19278SOL    HW259609   7.766   0.540   9.397
19279SOL     OW59610   4.241   7.906  12.351
19279SOL    HW159611   4.276   7.859  12.276
19279SOL    HW259612   4.275   7.860  12.428
19280SOL     OW59613   4.160  11.926   8.756
19280SOL    HW159614   4.097  11.888   8.818
19280SOL    HW259615   4.150  12.020   8.766
19281SOL     OW59616   2.907   4.737  11.411
19281SOL    HW159617   2.981   4.677  11.401
19281SOL    HW259618   2.945   4.824  11.400
19282SOL     OW59619   8.650   5.116   1.048
19282SOL    HW159620   8.697   5.157   0.976
19282SOL    HW259621   8.700   5.140   1.126
19283SOL     OW59622   7.622   4.476   1.415
19283SOL    HW159623   7.652   4.547   1.471
19283SOL    HW259624   7.656   4.498   1.328
19284SOL     OW59625   9.826   8.765   7.035
19284SOL    HW159626   9.866   8.687   7.074
19284SOL    HW259627   9.758   8.731   6.977
19285SOL     OW59628   2.055  14.495   3.255
19285SOL    HW159629   2.037  14.525   3.344
19285SOL    HW259630   2.041  14.573   3.201
19286SOL     OW59631   7.582  11.241   6.834
19286SOL    HW159632   7.639  11.315   6.812
19286SOL    HW259633   7.529  11.272   6.907
19287SOL     OW59634  12.271   3.442   6.930
19287SOL    HW159635  12.262   3.509   6.863
19287SOL    HW259636  12.356   3.401   6.913
19288SOL     OW59637  11.660  13.877   5.056
19288SOL    HW159638  11.727  13.899   4.991
19288SOL    HW259639  11.590  13.940   5.041
19289SOL     OW59640   4.517   0.594   2.497
19289SOL    HW159641   4.549   0.684   2.501
19289SOL    HW259642   4.561   0.550   2.569
19290SOL     OW59643   6.258   6.633   1.057
19290SOL    HW159644   6.228   6.660   0.970
19290SOL    HW259645   6.258   6.538   1.054
19291SOL     OW59646  12.042   0.873   1.955
19291SOL    HW159647  12.070   0.803   1.895
19291SOL    HW259648  11.949   0.883   1.939
19292SOL     OW59649   9.508   9.372  14.856
19292SOL    HW159650   9.413   9.366  14.860
19292SOL    HW259651   9.537   9.283  14.835
19293SOL     OW59652   3.568   7.330   6.832
19293SOL    HW159653   3.624   7.366   6.763
19293SOL    HW259654   3.516   7.262   6.788
19294SOL     OW59655  12.205   6.661  12.820
19294SOL    HW159656  12.269   6.663  12.891
19294SOL    HW259657  12.130   6.711  12.854
19295SOL     OW59658   5.367  13.493  12.086
19295SOL    HW159659   5.372  13.576  12.038
19295SOL    HW259660   5.291  13.448  12.049
19296SOL     OW59661  12.964   5.618  12.746
19296SOL    HW159662  13.050   5.575  12.745
19296SOL    HW259663  12.982   5.709  12.722
19297SOL     OW59664   9.552   2.364   1.635
19297SOL    HW159665   9.489   2.406   1.576
19297SOL    HW259666   9.502   2.345   1.714
19298SOL     OW59667   7.825   7.647   5.975
19298SOL    HW159668   7.901   7.704   5.972
19298SOL    HW259669   7.847   7.580   6.039
19299SOL     OW59670  10.555   1.410   7.744
19299SOL    HW159671  10.560   1.361   7.662
19299SOL    HW259672  10.506   1.353   7.803
19300SOL     OW59673   8.302   4.474   8.712
19300SOL    HW159674   8.372   4.539   8.713
19300SOL    HW259675   8.224   4.524   8.687
19301SOL     OW59676  14.457   2.024   7.739
19301SOL    HW159677  14.517   1.951   7.752
19301SOL    HW259678  14.457   2.071   7.822
19302SOL     OW59679  14.832  14.551   8.191
19302SOL    HW159680   0.042  14.542   8.227
19302SOL    HW259681  14.774  14.525   8.262
19303SOL     OW59682   6.224  14.218   1.954
19303SOL    HW159683   6.270  14.173   1.883
19303SOL    HW259684   6.256  14.308   1.950
19304SOL     OW59685  10.655   5.747   5.864
19304SOL    HW159686  10.682   5.682   5.799
19304SOL    HW259687  10.559   5.739   5.868
19305SOL     OW59688  10.180   4.015   6.259
19305SOL    HW159689  10.246   4.026   6.328
19305SOL    HW259690  10.131   3.937   6.286
19306SOL     OW59691  11.707   3.111   6.354
19306SOL    HW159692  11.786   3.151   6.320
19306SOL    HW259693  11.674   3.057   6.283
19307SOL     OW59694   6.249   4.984   3.963
19307SOL    HW159695   6.281   4.918   3.902
19307SOL    HW259696   6.194   4.936   4.024
19308SOL     OW59697   0.146  14.508   4.598
19308SOL    HW159698   0.172  14.522   4.689
19308SOL    HW259699   0.051  14.504   4.600
19309SOL     OW59700   4.227   3.786   0.601
19309SOL    HW159701   4.207   3.880   0.602
19309SOL    HW259702   4.234   3.762   0.694
19310SOL     OW59703   8.264  14.202   0.291
19310SOL    HW159704   8.324  14.275   0.278
19310SOL    HW259705   8.266  14.154   0.208
19311SOL     OW59706   9.832   4.642   1.624
19311SOL    HW159707   9.742   4.643   1.657
19311SOL    HW259708   9.887   4.655   1.701
19312SOL     OW59709   0.727   8.488   5.800
19312SOL    HW159710   0.819   8.505   5.820
19312SOL    HW259711   0.696   8.567   5.757
19313SOL     OW59712   6.455   6.491  13.373
19313SOL    HW159713   6.489   6.511  13.286
19313SOL    HW259714   6.436   6.577  13.412
19314SOL     OW59715  14.211   4.387  13.459
19314SOL    HW159716  14.126   4.393  13.503
19314SOL    HW259717  14.198   4.322  13.389
19315SOL     OW59718   7.351   8.718   5.366
19315SOL    HW159719   7.322   8.674   5.446
19315SOL    HW259720   7.420   8.661   5.331
19316SOL     OW59721   0.565   6.263  14.712
19316SOL    HW159722   0.635   6.292  14.654
19316SOL    HW259723   0.610   6.232  14.791
19317SOL     OW59724   7.984   0.880   2.542
19317SOL    HW159725   8.010   0.959   2.590
19317SOL    HW259726   7.913   0.908   2.485
19318SOL     OW59727  11.060   5.712   5.331
19318SOL    HW159728  11.126   5.769   5.293
19318SOL    HW259729  11.108   5.658   5.393
19319SOL     OW59730  13.030   5.015  11.730
19319SOL    HW159731  13.028   4.946  11.798
19319SOL    HW259732  12.939   5.023  11.703
19320SOL     OW59733   0.529   2.662   2.147
19320SOL    HW159734   0.589   2.704   2.208
19320SOL    HW259735   0.552   2.569   2.150
19321SOL     OW59736   9.954   3.217   6.944
19321SOL    HW159737   9.993   3.183   6.863
19321SOL    HW259738   9.957   3.312   6.934
19322SOL     OW59739   3.390   5.745  14.010
19322SOL    HW159740   3.329   5.704  13.948
19322SOL    HW259741   3.394   5.837  13.982
19323SOL     OW59742   5.536   9.284   3.892
19323SOL    HW159743   5.454   9.333   3.885
19323SOL    HW259744   5.598   9.345   3.932
19324SOL     OW59745  10.791  13.852   9.205
19324SOL    HW159746  10.813  13.759   9.200
19324SOL    HW259747  10.859  13.890   9.260
19325SOL     OW59748   2.625  12.468   6.700
19325SOL    HW159749   2.566  12.526   6.750
19325SOL    HW259750   2.710  12.479   6.742
19326SOL     OW59751  13.466   4.594   8.170
19326SOL    HW159752  13.440   4.686   8.166
19326SOL    HW259753  13.386   4.547   8.192
19327SOL     OW59754   4.217  10.168   1.820
19327SOL    HW159755   4.292  10.226   1.807
19327SOL    HW259756   4.167  10.175   1.739
19328SOL     OW59757   9.795   0.091   5.225
19328SOL    HW159758   9.860   0.053   5.165
19328SOL    HW259759   9.735   0.019   5.245
19329SOL     OW59760  14.657  12.397   0.199
19329SOL    HW159761  14.697  12.474   0.159
19329SOL    HW259762  14.591  12.369   0.136
19330SOL     OW59763  10.177   3.772  11.500
19330SOL    HW159764  10.237   3.832  11.457
19330SOL    HW259765  10.234   3.709  11.544
19331SOL     OW59766  13.859   7.092   0.046
19331SOL    HW159767  13.912   7.028   0.092
19331SOL    HW259768  13.921   7.162   0.023
19332SOL     OW59769   9.428  13.193   7.497
19332SOL    HW159770   9.453  13.256   7.565
19332SOL    HW259771   9.376  13.127   7.543
19333SOL     OW59772   4.745   6.152  12.393
19333SOL    HW159773   4.813   6.085  12.389
19333SOL    HW259774   4.712   6.157  12.303
19334SOL     OW59775   5.486   0.507  10.814
19334SOL    HW159776   5.564   0.522  10.760
19334SOL    HW259777   5.519   0.505  10.904
19335SOL     OW59778   0.545  13.409   7.483
19335SOL    HW159779   0.623  13.459   7.505
19335SOL    HW259780   0.521  13.365   7.564
19336SOL     OW59781   8.765   2.347   0.700
19336SOL    HW159782   8.722   2.262   0.713
19336SOL    HW259783   8.711   2.409   0.749
19337SOL     OW59784   1.220   3.362   1.471
19337SOL    HW159785   1.291   3.337   1.411
19337SOL    HW259786   1.186   3.278   1.503
19338SOL     OW59787  12.540   1.884  12.578
19338SOL    HW159788  12.581   1.969  12.598
19338SOL    HW259789  12.587   1.854  12.500
19339SOL     OW59790   8.425   5.340   7.796
19339SOL    HW159791   8.377   5.257   7.804
19339SOL    HW259792   8.516   5.313   7.781
19340SOL     OW59793   2.129   3.596   5.688
19340SOL    HW159794   2.039   3.609   5.719
19340SOL    HW259795   2.119   3.551   5.604
19341SOL     OW59796   3.875  14.735  13.906
19341SOL    HW159797   3.816  14.660  13.912
19341SOL    HW259798   3.892  14.745  13.812
19342SOL     OW59799   3.390  11.626   0.292
19342SOL    HW159800   3.389  11.711   0.248
19342SOL    HW259801   3.408  11.647   0.384
19343SOL     OW59802   7.512  11.767   3.049
19343SOL    HW159803   7.555  11.803   3.126
19343SOL    HW259804   7.429  11.732   3.081
19344SOL     OW59805   1.500   2.826   0.720
19344SOL    HW159806   1.421   2.866   0.685
19344SOL    HW259807   1.572   2.870   0.674
19345SOL     OW59808  10.913   4.234  14.226
19345SOL    HW159809  10.968   4.202  14.298
19345SOL    HW259810  10.827   4.197  14.244
19346SOL     OW59811   6.666  10.462   1.520
19346SOL    HW159812   6.594  10.403   1.543
19346SOL    HW259813   6.678  10.516   1.598
19347SOL     OW59814   7.424   8.530   1.188
19347SOL    HW159815   7.452   8.615   1.223
19347SOL    HW259816   7.330   8.526   1.207
19348SOL     OW59817  11.429   6.166   3.279
19348SOL    HW159818  11.355   6.105   3.283
19348SOL    HW259819  11.498   6.122   3.329
19349SOL     OW59820   9.456   7.903  10.017
19349SOL    HW159821   9.432   7.852   9.940
19349SOL    HW259822   9.528   7.959   9.986
19350SOL     OW59823  10.822  13.633   3.498
19350SOL    HW159824  10.783  13.576   3.431
19350SOL    HW259825  10.770  13.713   3.495
19351SOL     OW59826   2.150   0.104  10.896
19351SOL    HW159827   2.121   0.047  10.967
19351SOL    HW259828   2.238   0.072  10.875
19352SOL     OW59829  13.847  10.766   2.466
19352SOL    HW159830  13.823  10.818   2.390
19352SOL    HW259831  13.937  10.794   2.487
19353SOL     OW59832   0.985   4.869   4.698
19353SOL    HW159833   1.008   4.900   4.786
19353SOL    HW259834   1.044   4.916   4.639
19354SOL     OW59835   5.212   2.088   0.130
19354SOL    HW159836   5.129   2.063   0.171
19354SOL    HW259837   5.266   2.120   0.203
19355SOL     OW59838  13.657   1.308   1.700
19355SOL    HW159839  13.700   1.362   1.634
19355SOL    HW259840  13.705   1.324   1.780
19356SOL     OW59841   4.950   6.360   7.841
19356SOL    HW159842   4.918   6.363   7.931
19356SOL    HW259843   5.024   6.299   7.843
19357SOL     OW59844   0.284  11.254   2.300
19357SOL    HW159845   0.332  11.171   2.297
19357SOL    HW259846   0.352  11.321   2.303
19358SOL     OW59847   0.911   3.209  13.287
19358SOL    HW159848   0.999   3.214  13.323
19358SOL    HW259849   0.906   3.123  13.246
19359SOL     OW59850  11.999  14.457   0.134
19359SOL    HW159851  12.064  14.527   0.140
19359SOL    HW259852  12.005  14.427   0.043
19360SOL     OW59853   4.881  13.609   1.172
19360SOL    HW159854   4.878  13.652   1.086
19360SOL    HW259855   4.822  13.662   1.226
19361SOL     OW59856   0.060   8.120   5.738
19361SOL    HW159857   0.101   8.041   5.774
19361SOL    HW259858   0.076   8.187   5.804
19362SOL     OW59859   9.753  13.193   6.700
19362SOL    HW159860   9.672  13.223   6.658
19362SOL    HW259861   9.819  13.197   6.631
19363SOL     OW59862  11.063  14.549  14.782
19363SOL    HW159863  11.043  14.458  14.808
19363SOL    HW259864  11.153  14.562  14.810
19364SOL     OW59865  13.596   9.812   3.659
19364SOL    HW159866  13.545   9.781   3.734
19364SOL    HW259867  13.602   9.736   3.602
19365SOL     OW59868   0.848   1.520  13.516
19365SOL    HW159869   0.777   1.581  13.495
19365SOL    HW259870   0.820   1.479  13.598
19366SOL     OW59871   9.734  11.810  14.522
19366SOL    HW159872   9.826  11.835  14.515
19366SOL    HW259873   9.718  11.802  14.616
19367SOL     OW59874   5.267   8.817  13.623
19367SOL    HW159875   5.246   8.819  13.530
19367SOL    HW259876   5.197   8.764  13.662
19368SOL     OW59877   2.199   1.265   4.794
19368SOL    HW159878   2.264   1.277   4.724
19368SOL    HW259879   2.134   1.206   4.755
19369SOL     OW59880  12.731   3.627   1.049
19369SOL    HW159881  12.701   3.559   0.988
19369SOL    HW259882  12.797   3.583   1.102
19370SOL     OW59883   2.984   8.441   1.595
19370SOL    HW159884   3.054   8.425   1.658
19370SOL    HW259885   2.993   8.371   1.530
19371SOL     OW59886   7.211   0.212   0.525
19371SOL    HW159887   7.143   0.175   0.581
19371SOL    HW259888   7.202   0.166   0.441
19372SOL     OW59889   0.647   7.022   7.024
19372SOL    HW159890   0.582   7.085   6.994
19372SOL    HW259891   0.659   6.962   6.951
19373SOL     OW59892   9.944   0.089   9.099
19373SOL    HW159893   9.879   0.136   9.046
19373SOL    HW259894   9.935   0.127   9.187
19374SOL     OW59895   1.929   0.987  11.038
19374SOL    HW159896   2.003   0.934  11.008
19374SOL    HW259897   1.962   1.077  11.035
19375SOL     OW59898   0.042  12.730   5.004
19375SOL    HW159899  14.824  12.737   5.007
19375SOL    HW259900   0.061  12.684   4.922
19376SOL     OW59901   4.335   2.147  11.751
19376SOL    HW159902   4.372   2.177  11.668
19376SOL    HW259903   4.407   2.102  11.795
19377SOL     OW59904   5.666   3.091  14.315
19377SOL    HW159905   5.609   3.026  14.275
19377SOL    HW259906   5.629   3.175  14.288
19378SOL     OW59907   2.030   8.324   9.732
19378SOL    HW159908   2.032   8.245   9.785
19378SOL    HW259909   2.080   8.302   9.654
19379SOL     OW59910   3.750   4.794  12.209
19379SOL    HW159911   3.739   4.700  12.220
19379SOL    HW259912   3.663   4.830  12.225
19380SOL     OW59913   0.236   3.450  14.251
19380SOL    HW159914   0.280   3.483  14.329
19380SOL    HW259915   0.183   3.377  14.282
19381SOL     OW59916   9.767  11.433  13.282
19381SOL    HW159917   9.741  11.525  13.286
19381SOL    HW259918   9.689  11.384  13.308
19382SOL     OW59919  13.217   2.110   2.995
19382SOL    HW159920  13.254   2.026   3.023
19382SOL    HW259921  13.263   2.130   2.914
19383SOL     OW59922   8.547  11.193   5.502
19383SOL    HW159923   8.524  11.122   5.442
19383SOL    HW259924   8.550  11.151   5.588
19384SOL     OW59925   7.610   5.295   8.367
19384SOL    HW159926   7.571   5.381   8.380
19384SOL    HW259927   7.558   5.256   8.296
19385SOL     OW59928   5.493   2.222  10.263
19385SOL    HW159929   5.533   2.307  10.282
19385SOL    HW259930   5.402   2.232  10.293
19386SOL     OW59931  10.229  13.683   1.608
19386SOL    HW159932  10.241  13.718   1.696
19386SOL    HW259933  10.294  13.731   1.555
19387SOL     OW59934   1.811   0.020  10.780
19387SOL    HW159935   1.811  14.804  10.761
19387SOL    HW259936   1.903   0.046  10.775
19388SOL     OW59937   9.547  10.412   3.882
19388SOL    HW159938   9.493  10.405   3.804
19388SOL    HW259939   9.521  10.495   3.922
19389SOL     OW59940  14.175   0.119  12.728
19389SOL    HW159941  14.196   0.053  12.794
19389SOL    HW259942  14.081   0.134  12.740
19390SOL     OW59943   9.665   4.453  12.233
19390SOL    HW159944   9.745   4.427  12.278
19390SOL    HW259945   9.630   4.372  12.197
19391SOL     OW59946  13.123   3.972  10.477
19391SOL    HW159947  13.116   4.053  10.528
19391SOL    HW259948  13.032   3.950  10.455
19392SOL     OW59949   1.889  14.481  14.084
19392SOL    HW159950   1.820  14.447  14.141
19392SOL    HW259951   1.844  14.542  14.026
19393SOL     OW59952   7.653   1.355  12.220
19393SOL    HW159953   7.645   1.280  12.279
19393SOL    HW259954   7.659   1.316  12.133
19394SOL     OW59955   2.085   0.965   0.658
19394SOL    HW159956   2.102   0.873   0.641
19394SOL    HW259957   2.062   0.969   0.751
19395SOL     OW59958   0.741   5.921  11.081
19395SOL    HW159959   0.766   5.903  11.172
19395SOL    HW259960   0.727   6.016  11.078
19396SOL     OW59961   6.781  12.170  10.662
19396SOL    HW159962   6.839  12.108  10.707
19396SOL    HW259963   6.697  12.126  10.657
19397SOL     OW59964  13.533  12.810   4.460
19397SOL    HW159965  13.496  12.897   4.444
19397SOL    HW259966  13.621  12.827   4.494
19398SOL     OW59967   8.695   5.941   2.592
19398SOL    HW159968   8.718   6.009   2.527
19398SOL    HW259969   8.726   5.977   2.675
19399SOL     OW59970  12.618   2.264   4.236
19399SOL    HW159971  12.576   2.305   4.160
19399SOL    HW259972  12.652   2.181   4.202
19400SOL     OW59973  13.989  13.148   0.193
19400SOL    HW159974  13.919  13.178   0.251
19400SOL    HW259975  14.070  13.178   0.235
19401SOL     OW59976   7.145   7.067   5.225
19401SOL    HW159977   7.175   7.116   5.301
19401SOL    HW259978   7.118   7.134   5.162
19402SOL     OW59979   7.782  12.193   6.686
19402SOL    HW159980   7.709  12.132   6.679
19402SOL    HW259981   7.776  12.248   6.608
19403SOL     OW59982   0.796   2.386   7.005
19403SOL    HW159983   0.794   2.326   7.080
19403SOL    HW259984   0.785   2.330   6.929
19404SOL     OW59985   8.411  12.817  13.552
19404SOL    HW159986   8.326  12.854  13.526
19404SOL    HW259987   8.460  12.811  13.470
19405SOL     OW59988   6.749   1.662  11.193
19405SOL    HW159989   6.737   1.715  11.114
19405SOL    HW259990   6.822   1.704  11.239
19406SOL     OW59991   9.755   7.837   1.784
19406SOL    HW159992   9.713   7.813   1.866
19406SOL    HW259993   9.683   7.841   1.720
19407SOL     OW59994   8.561  13.926  11.734
19407SOL    HW159995   8.621  13.891  11.669
19407SOL    HW259996   8.479  13.938  11.687
19408SOL     OW59997   7.391  10.011   9.256
19408SOL    HW159998   7.420   9.922   9.235
19408SOL    HW259999   7.421  10.065   9.183
19409SOL     OW60000  10.040   3.722  14.745
19409SOL    HW160001  10.030   3.797  14.687
19409SOL    HW260002  10.132   3.723  14.770
19410SOL     OW60003  11.180   8.652   1.090
19410SOL    HW160004  11.204   8.564   1.116
19410SOL    HW260005  11.114   8.679   1.154
19411SOL     OW60006  10.851   9.807  14.865
19411SOL    HW160007  10.827   9.852  14.784
19411SOL    HW260008  10.928   9.854   0.018
19412SOL     OW60009  14.447   3.012   3.864
19412SOL    HW160010  14.517   2.977   3.919
19412SOL    HW260011  14.457   3.107   3.870
19413SOL     OW60012   5.691  11.522   0.618
19413SOL    HW160013   5.777  11.557   0.641
19413SOL    HW260014   5.659  11.579   0.549
19414SOL     OW60015   1.390   5.220   6.622
19414SOL    HW160016   1.362   5.156   6.688
19414SOL    HW260017   1.328   5.292   6.632
19415SOL     OW60018  14.842   0.240  10.410
19415SOL    HW160019  14.762   0.225  10.360
19415SOL    HW260020  14.871   0.153  10.437
19416SOL     OW60021   4.397  13.466  14.421
19416SOL    HW160022   4.331  13.400  14.441
19416SOL    HW260023   4.451  13.470  14.500
19417SOL     OW60024  14.513   1.642   4.508
19417SOL    HW160025  14.458   1.639   4.586
19417SOL    HW260026  14.490   1.724   4.465
19418SOL     OW60027   0.758  10.579   5.888
19418SOL    HW160028   0.684  10.545   5.838
19418SOL    HW260029   0.736  10.560   5.979
19419SOL     OW60030   0.226   5.461   7.789
19419SOL    HW160031   0.223   5.472   7.884
19419SOL    HW260032   0.309   5.417   7.772
19420SOL     OW60033   9.085   6.597  11.662
19420SOL    HW160034   9.079   6.501  11.668
19420SOL    HW260035   9.141   6.612  11.585
19421SOL     OW60036   0.174  13.484  14.387
19421SOL    HW160037   0.213  13.407  14.345
19421SOL    HW260038   0.099  13.506  14.331
19422SOL     OW60039   7.597   4.477   2.647
19422SOL    HW160040   7.597   4.432   2.732
19422SOL    HW260041   7.566   4.565   2.667
19423SOL     OW60042   7.192   8.509   8.324
19423SOL    HW160043   7.123   8.485   8.386
19423SOL    HW260044   7.273   8.477   8.365
19424SOL     OW60045  12.432  10.776  13.394
19424SOL    HW160046  12.423  10.867  13.368
19424SOL    HW260047  12.343  10.740  13.386
19425SOL     OW60048  12.750  11.584  12.260
19425SOL    HW160049  12.845  11.586  12.257
19425SOL    HW260050  12.728  11.495  12.291
19426SOL     OW60051  14.511  11.358  13.335
19426SOL    HW160052  14.462  11.416  13.394
19426SOL    HW260053  14.502  11.397  13.249
19427SOL     OW60054   4.718  10.513   6.006
19427SOL    HW160055   4.787  10.517   6.073
19427SOL    HW260056   4.764  10.483   5.927
19428SOL     OW60057  14.661   9.799  12.817
19428SOL    HW160058  14.726   9.855  12.775
19428SOL    HW260059  14.659   9.828  12.908
19429SOL     OW60060  13.427   6.480  11.426
19429SOL    HW160061  13.455   6.391  11.407
19429SOL    HW260062  13.484   6.535  11.373
19430SOL     OW60063   1.205  12.261   5.225
19430SOL    HW160064   1.180  12.171   5.202
19430SOL    HW260065   1.295  12.252   5.259
19431SOL     OW60066   2.586  11.427   7.716
19431SOL    HW160067   2.634  11.376   7.781
19431SOL    HW260068   2.607  11.386   7.633
19432SOL     OW60069   8.445  12.251   6.477
19432SOL    HW160070   8.477  12.313   6.541
19432SOL    HW260071   8.520  12.195   6.457
19433SOL     OW60072   1.125   0.139  10.853
19433SOL    HW160073   1.110   0.049  10.880
19433SOL    HW260074   1.220   0.150  10.858
19434SOL     OW60075   2.899  13.690   6.399
19434SOL    HW160076   2.979  13.676   6.450
19434SOL    HW260077   2.924  13.757   6.335
19435SOL     OW60078   3.318   2.269  12.515
19435SOL    HW160079   3.411   2.249  12.527
19435SOL    HW260080   3.273   2.209  12.575
19436SOL     OW60081   3.682   2.745   6.477
19436SOL    HW160082   3.758   2.746   6.535
19436SOL    HW260083   3.660   2.653   6.467
19437SOL     OW60084   6.848   1.693   6.706
19437SOL    HW160085   6.796   1.773   6.709
19437SOL    HW260086   6.785   1.623   6.720
19438SOL     OW60087  11.306   1.489   1.487
19438SOL    HW160088  11.386   1.512   1.535
19438SOL    HW260089  11.263   1.573   1.471
19439SOL     OW60090   8.296   4.962  10.225
19439SOL    HW160091   8.339   5.031  10.275
19439SOL    HW260092   8.366   4.904  10.197
19440SOL     OW60093   6.748   6.121   4.687
19440SOL    HW160094   6.719   6.032   4.708
19440SOL    HW260095   6.699   6.145   4.608
19441SOL     OW60096   1.782   9.893   5.284
19441SOL    HW160097   1.779   9.867   5.376
19441SOL    HW260098   1.799   9.988   5.287
19442SOL     OW60099   1.442  12.597   7.189
19442SOL    HW160100   1.468  12.684   7.220
19442SOL    HW260101   1.416  12.611   7.098
19443SOL     OW60102   2.932  10.627   3.499
19443SOL    HW160103   2.971  10.689   3.438
19443SOL    HW260104   2.972  10.543   3.477
19444SOL     OW60105   5.070   4.741  10.314
19444SOL    HW160106   5.103   4.799  10.245
19444SOL    HW260107   5.007   4.794  10.362
19445SOL     OW60108  14.656   5.723   2.929
19445SOL    HW160109  14.563   5.702   2.928
19445SOL    HW260110  14.700   5.639   2.918
19446SOL     OW60111   9.450  11.848   0.557
19446SOL    HW160112   9.451  11.776   0.493
19446SOL    HW260113   9.542  11.873   0.566
19447SOL     OW60114   0.442   1.060   4.121
19447SOL    HW160115   0.510   1.120   4.090
19447SOL    HW260116   0.480   0.973   4.111
19448SOL     OW60117   8.936   5.469  10.950
19448SOL    HW160118   9.003   5.470  11.019
19448SOL    HW260119   8.956   5.546  10.897
19449SOL     OW60120  13.581   9.239   6.089
19449SOL    HW160121  13.628   9.192   6.021
19449SOL    HW260122  13.545   9.316   6.045
19450SOL     OW60123  12.631   0.134   3.763
19450SOL    HW160124  12.639   0.046   3.799
19450SOL    HW260125  12.548   0.166   3.795
19451SOL     OW60126   2.035   7.891  13.240
19451SOL    HW160127   2.043   7.847  13.324
19451SOL    HW260128   2.010   7.981  13.261
19452SOL     OW60129   3.090   8.096   4.370
19452SOL    HW160130   3.102   8.129   4.281
19452SOL    HW260131   3.010   8.139   4.400
19453SOL     OW60132  14.698  13.699   0.657
19453SOL    HW160133  14.789  13.719   0.634
19453SOL    HW260134  14.650  13.779   0.636
19454SOL     OW60135  13.300  11.209   6.321
19454SOL    HW160136  13.306  11.234   6.413
19454SOL    HW260137  13.364  11.138   6.311
19455SOL     OW60138   7.553  11.852   8.791
19455SOL    HW160139   7.575  11.863   8.699
19455SOL    HW260140   7.637  11.855   8.836
19456SOL     OW60141   4.757  14.063   2.348
19456SOL    HW160142   4.815  14.054   2.273
19456SOL    HW260143   4.815  14.058   2.424
19457SOL     OW60144   0.907  13.929  11.968
19457SOL    HW160145   0.962  13.855  11.943
19457SOL    HW260146   0.948  13.963  12.047
19458SOL     OW60147   3.168   0.839   0.154
19458SOL    HW160148   3.096   0.784   0.184
19458SOL    HW260149   3.176   0.906   0.222
19459SOL     OW60150  13.018   6.475   6.622
19459SOL    HW160151  13.029   6.423   6.702
19459SOL    HW260152  12.975   6.416   6.560
19460SOL     OW60153  11.658  12.738   2.702
19460SOL    HW160154  11.633  12.818   2.655
19460SOL    HW260155  11.753  12.746   2.713
19461SOL     OW60156   0.607   1.048   3.633
19461SOL    HW160157   0.548   1.119   3.608
19461SOL    HW260158   0.677   1.092   3.681
19462SOL     OW60159   5.960   5.903   8.851
19462SOL    HW160160   6.022   5.973   8.871
19462SOL    HW260161   5.897   5.943   8.791
19463SOL     OW60162   1.746   2.240   5.176
19463SOL    HW160163   1.664   2.194   5.159
19463SOL    HW260164   1.736   2.324   5.131
19464SOL     OW60165   5.496  13.035  12.458
19464SOL    HW160166   5.585  13.000  12.450
19464SOL    HW260167   5.475  13.028  12.552
19465SOL     OW60168   4.131   4.428   7.759
19465SOL    HW160169   4.100   4.502   7.810
19465SOL    HW260170   4.075   4.426   7.682
19466SOL     OW60171   4.585   8.084   7.390
19466SOL    HW160172   4.508   8.029   7.376
19466SOL    HW260173   4.659   8.026   7.373
19467SOL     OW60174   2.313   3.788   9.716
19467SOL    HW160175   2.311   3.719   9.783
19467SOL    HW260176   2.255   3.755   9.647
19468SOL     OW60177   5.097   0.010   5.138
19468SOL    HW160178   5.022  14.828   5.132
19468SOL    HW260179   5.100   0.053   5.053
19469SOL     OW60180   1.489   1.546   8.560
19469SOL    HW160181   1.568   1.504   8.593
19469SOL    HW260182   1.421   1.524   8.624
19470SOL     OW60183   0.081   3.265  10.589
19470SOL    HW160184   0.139   3.199  10.627
19470SOL    HW260185   0.129   3.298  10.513
19471SOL     OW60186   7.006   0.394   8.706
19471SOL    HW160187   6.941   0.325   8.717
19471SOL    HW260188   6.982   0.438   8.625
19472SOL     OW60189  12.827   1.649   8.160
19472SOL    HW160190  12.792   1.736   8.177
19472SOL    HW260191  12.913   1.665   8.121
19473SOL     OW60192   8.417  12.676   8.911
19473SOL    HW160193   8.332  12.658   8.870
19473SOL    HW260194   8.481  12.637   8.851
19474SOL     OW60195  13.298   9.306  14.718
19474SOL    HW160196  13.393   9.290  14.714
19474SOL    HW260197  13.267   9.288  14.629
19475SOL     OW60198  11.461   6.027   6.701
19475SOL    HW160199  11.479   5.997   6.790
19475SOL    HW260200  11.448   5.947   6.650
19476SOL     OW60201   2.726   8.683   2.835
19476SOL    HW160202   2.642   8.729   2.826
19476SOL    HW260203   2.755   8.703   2.924
19477SOL     OW60204   6.517  10.354   4.290
19477SOL    HW160205   6.562  10.302   4.357
19477SOL    HW260206   6.433  10.310   4.277
19478SOL     OW60207  13.023   5.911   6.809
19478SOL    HW160208  13.010   5.988   6.865
19478SOL    HW260209  12.935   5.884   6.784
19479SOL     OW60210   6.955   0.055   9.106
19479SOL    HW160211   6.872   0.014   9.130
19479SOL    HW260212   6.958   0.135   9.159
19480SOL     OW60213   3.476   7.685   4.819
19480SOL    HW160214   3.549   7.718   4.767
19480SOL    HW260215   3.509   7.605   4.860
19481SOL     OW60216  13.922   0.389  14.615
19481SOL    HW160217  13.941   0.436  14.696
19481SOL    HW260218  13.987   0.420  14.552
19482SOL     OW60219   7.636   8.985   1.852
19482SOL    HW160220   7.615   8.984   1.945
19482SOL    HW260221   7.599   8.904   1.817
19483SOL     OW60222  12.313   3.952   8.502
19483SOL    HW160223  12.303   3.891   8.429
19483SOL    HW260224  12.379   3.912   8.558
19484SOL     OW60225   8.200  12.363  14.634
19484SOL    HW160226   8.151  12.399  14.560
19484SOL    HW260227   8.240  12.283  14.600
19485SOL     OW60228  11.828   5.100   5.701
19485SOL    HW160229  11.846   5.097   5.795
19485SOL    HW260230  11.891   5.040   5.662
19486SOL     OW60231   3.784   4.984   7.880
19486SOL    HW160232   3.738   5.068   7.885
19486SOL    HW260233   3.843   4.993   7.806
19487SOL     OW60234   0.328  14.035   7.358
19487SOL    HW160235   0.274  14.102   7.316
19487SOL    HW260236   0.302  14.036   7.450
19488SOL     OW60237  13.166   8.212  14.318
19488SOL    HW160238  13.087   8.187  14.270
19488SOL    HW260239  13.138   8.218  14.410
19489SOL     OW60240   6.350  11.547   2.760
19489SOL    HW160241   6.294  11.623   2.778
19489SOL    HW260242   6.296  11.471   2.782
19490SOL     OW60243  13.841   6.013   6.748
19490SOL    HW160244  13.909   6.021   6.681
19490SOL    HW260245  13.802   6.100   6.753
19491SOL     OW60246  14.277   0.955   3.888
19491SOL    HW160247  14.332   0.993   3.957
19491SOL    HW260248  14.305   0.863   3.884
19492SOL     OW60249  12.642   5.082   7.291
19492SOL    HW160250  12.572   5.147   7.301
19492SOL    HW260251  12.654   5.075   7.196
19493SOL     OW60252  13.597  13.298   6.968
19493SOL    HW160253  13.545  13.372   6.937
19493SOL    HW260254  13.577  13.292   7.062
19494SOL     OW60255   6.059   8.973  10.851
19494SOL    HW160256   6.140   9.022  10.864
19494SOL    HW260257   6.043   8.929  10.934
19495SOL     OW60258  10.389  11.329   2.478
19495SOL    HW160259  10.424  11.333   2.567
19495SOL    HW260260  10.406  11.239   2.449
19496SOL     OW60261   6.135  10.584  11.984
19496SOL    HW160262   6.051  10.624  12.004
19496SOL    HW260263   6.183  10.651  11.936
19497SOL     OW60264  14.561   1.504   8.403
19497SOL    HW160265  14.488   1.522   8.463
19497SOL    HW260266  14.524   1.446   8.337
19498SOL     OW60267  10.216  11.004   1.938
19498SOL    HW160268  10.311  11.011   1.942
19498SOL    HW260269  10.200  10.910   1.924
19499SOL     OW60270   5.503   8.675   8.334
19499SOL    HW160271   5.505   8.673   8.429
19499SOL    HW260272   5.436   8.740   8.312
19500SOL     OW60273   1.264   7.082  14.821
19500SOL    HW160274   1.236   7.166  14.783
19500SOL    HW260275   1.352   7.100  14.854
19501SOL     OW60276  14.738   5.685   2.190
19501SOL    HW160277  14.743   5.710   2.097
19501SOL    HW260278  14.667   5.738   2.225
19502SOL     OW60279   1.366   7.615   9.356
19502SOL    HW160280   1.361   7.695   9.305
19502SOL    HW260281   1.316   7.633   9.435
19503SOL     OW60282   0.150  14.542  13.428
19503SOL    HW160283   0.153  14.506  13.516
19503SOL    HW260284   0.057  14.559  13.412
19504SOL     OW60285   4.541  13.002  13.982
19504SOL    HW160286   4.591  12.933  14.027
19504SOL    HW260287   4.450  12.973  13.988
19505SOL     OW60288   5.756  13.254  12.241
19505SOL    HW160289   5.714  13.219  12.163
19505SOL    HW260290   5.723  13.344  12.248
19506SOL     OW60291  11.322  12.710   9.096
19506SOL    HW160292  11.313  12.635   9.155
19506SOL    HW260293  11.350  12.782   9.152
19507SOL     OW60294  13.162   9.254   3.222
19507SOL    HW160295  13.216   9.197   3.275
19507SOL    HW260296  13.167   9.217   3.134
19508SOL     OW60297   9.057   8.121   8.196
19508SOL    HW160298   9.097   8.148   8.278
19508SOL    HW260299   9.047   8.026   8.204
19509SOL     OW60300   4.427   1.313   6.251
19509SOL    HW160301   4.342   1.302   6.293
19509SOL    HW260302   4.479   1.363   6.314
19510SOL     OW60303   4.221   3.833   9.044
19510SOL    HW160304   4.184   3.768   8.984
19510SOL    HW260305   4.288   3.878   8.993
19511SOL     OW60306   0.812  10.855   7.608
19511SOL    HW160307   0.770  10.932   7.648
19511SOL    HW260308   0.906  10.875   7.611
19512SOL     OW60309  10.690   7.858   0.757
19512SOL    HW160310  10.710   7.948   0.784
19512SOL    HW260311  10.642   7.868   0.675
19513SOL     OW60312  10.680   4.911  10.634
19513SOL    HW160313  10.661   4.892  10.726
19513SOL    HW260314  10.668   5.005  10.625
19514SOL     OW60315  14.067  11.438   8.920
19514SOL    HW160316  14.034  11.520   8.885
19514SOL    HW260317  14.025  11.370   8.867
19515SOL     OW60318  11.763  11.528   8.782
19515SOL    HW160319  11.791  11.437   8.766
19515SOL    HW260320  11.760  11.536   8.877
19516SOL     OW60321   4.120   1.538  13.401
19516SOL    HW160322   4.214   1.555  13.411
19516SOL    HW260323   4.078   1.613  13.442
19517SOL     OW60324   4.454   2.452   6.034
19517SOL    HW160325   4.499   2.395   5.972
19517SOL    HW260326   4.402   2.511   5.980
19518SOL     OW60327   3.235   0.226  14.344
19518SOL    HW160328   3.230   0.305  14.399
19518SOL    HW260329   3.300   0.171  14.387
19519SOL     OW60330   2.620   9.323   1.762
19519SOL    HW160331   2.679   9.382   1.807
19519SOL    HW260332   2.540   9.324   1.814
19520SOL     OW60333   8.541   1.154  14.264
19520SOL    HW160334   8.592   1.081  14.230
19520SOL    HW260335   8.454   1.119  14.279
19521SOL     OW60336   6.692  12.488   8.887
19521SOL    HW160337   6.626  12.557   8.884
19521SOL    HW260338   6.772  12.530   8.855
19522SOL     OW60339   2.197   4.665  12.670
19522SOL    HW160340   2.262   4.734  12.683
19522SOL    HW260341   2.249   4.587  12.653
19523SOL     OW60342   1.936   6.990  10.477
19523SOL    HW160343   1.978   7.072  10.450
19523SOL    HW260344   1.956   6.928  10.407
19524SOL     OW60345  12.709   8.489  14.002
19524SOL    HW160346  12.649   8.417  13.983
19524SOL    HW260347  12.783   8.476  13.943
19525SOL     OW60348   1.121  10.300   7.199
19525SOL    HW160349   1.101  10.392   7.220
19525SOL    HW260350   1.146  10.262   7.283
19526SOL     OW60351   4.737  11.622   7.846
19526SOL    HW160352   4.825  11.607   7.812
19526SOL    HW260353   4.715  11.711   7.819
19527SOL     OW60354   4.044   1.786  13.524
19527SOL    HW160355   4.038   1.835  13.442
19527SOL    HW260356   4.098   1.841  13.582
19528SOL     OW60357   7.512   1.918   8.646
19528SOL    HW160358   7.513   1.865   8.726
19528SOL    HW260359   7.455   1.871   8.586
19529SOL     OW60360  10.648   3.553  13.584
19529SOL    HW160361  10.568   3.504  13.564
19529SOL    HW260362  10.709   3.528  13.515
19530SOL     OW60363  10.367   5.986  14.127
19530SOL    HW160364  10.371   5.914  14.190
19530SOL    HW260365  10.280   5.981  14.090
19531SOL     OW60366   8.328   0.826   3.522
19531SOL    HW160367   8.318   0.842   3.615
19531SOL    HW260368   8.242   0.796   3.493
19532SOL     OW60369   5.602  10.323   6.785
19532SOL    HW160370   5.686  10.278   6.770
19532SOL    HW260371   5.576  10.355   6.699
19533SOL     OW60372   5.692  10.885  12.633
19533SOL    HW160373   5.667  10.802  12.676
19533SOL    HW260374   5.641  10.951  12.679
19534SOL     OW60375   4.957  10.825  13.180
19534SOL    HW160376   4.929  10.848  13.269
19534SOL    HW260377   4.892  10.864  13.123
19535SOL     OW60378   0.906   9.630   2.673
19535SOL    HW160379   0.950   9.702   2.717
19535SOL    HW260380   0.970   9.560   2.672
19536SOL     OW60381  13.041  13.633   7.856
19536SOL    HW160382  12.955  13.673   7.873
19536SOL    HW260383  13.104  13.703   7.874
19537SOL     OW60384   4.121   9.108   3.403
19537SOL    HW160385   4.206   9.144   3.427
19537SOL    HW260386   4.059   9.147   3.465
19538SOL     OW60387   3.497  14.875  14.261
19538SOL    HW160388   3.427   0.020  14.199
19538SOL    HW260389   3.451  14.857  14.343
19539SOL     OW60390   7.333   5.681   6.793
19539SOL    HW160391   7.358   5.642   6.876
19539SOL    HW260392   7.389   5.757   6.784
19540SOL     OW60393   9.519   2.701   8.905
19540SOL    HW160394   9.490   2.617   8.869
19540SOL    HW260395   9.439   2.752   8.914
19541SOL     OW60396   5.033  12.543   8.720
19541SOL    HW160397   5.004  12.464   8.766
19541SOL    HW260398   4.967  12.557   8.653
19542SOL     OW60399   2.175   5.350  10.816
19542SOL    HW160400   2.143   5.430  10.772
19542SOL    HW260401   2.095   5.300  10.835
19543SOL     OW60402   5.906   1.247   2.329
19543SOL    HW160403   5.912   1.334   2.368
19543SOL    HW260404   5.996   1.226   2.305
19544SOL     OW60405   8.922   4.817   3.947
19544SOL    HW160406   8.982   4.889   3.964
19544SOL    HW260407   8.889   4.832   3.859
19545SOL     OW60408  12.098   4.960   0.746
19545SOL    HW160409  12.042   4.888   0.715
19545SOL    HW260410  12.061   4.984   0.831
19546SOL     OW60411   3.193   1.662   5.672
19546SOL    HW160412   3.224   1.724   5.738
19546SOL    HW260413   3.252   1.587   5.680
19547SOL     OW60414   0.837   0.826   6.413
19547SOL    HW160415   0.753   0.807   6.454
19547SOL    HW260416   0.900   0.823   6.485
19548SOL     OW60417   8.478   2.891   5.845
19548SOL    HW160418   8.530   2.964   5.812
19548SOL    HW260419   8.459   2.914   5.936
19549SOL     OW60420   5.454   3.179   3.297
19549SOL    HW160421   5.513   3.215   3.364
19549SOL    HW260422   5.385   3.244   3.288
19550SOL     OW60423   7.822   2.918  12.907
19550SOL    HW160424   7.767   2.934  12.830
19550SOL    HW260425   7.806   2.826  12.929
19551SOL     OW60426   6.672  11.239   5.162
19551SOL    HW160427   6.647  11.321   5.120
19551SOL    HW260428   6.644  11.249   5.253
19552SOL     OW60429   7.862   8.647  11.622
19552SOL    HW160430   7.860   8.685  11.535
19552SOL    HW260431   7.834   8.556  11.610
19553SOL     OW60432  10.981   9.191   9.087
19553SOL    HW160433  10.886   9.185   9.097
19553SOL    HW260434  11.003   9.118   9.029
19554SOL     OW60435   1.616  10.210   3.193
19554SOL    HW160436   1.646  10.300   3.209
19554SOL    HW260437   1.561  10.189   3.269
19555SOL     OW60438   8.437  10.187   8.310
19555SOL    HW160439   8.460  10.150   8.225
19555SOL    HW260440   8.406  10.275   8.290
19556SOL     OW60441   3.472   1.418   1.170
19556SOL    HW160442   3.455   1.396   1.079
19556SOL    HW260443   3.564   1.397   1.183
19557SOL     OW60444   6.866   8.460  10.151
19557SOL    HW160445   6.923   8.528  10.187
19557SOL    HW260446   6.831   8.415  10.228
19558SOL     OW60447  12.842   9.598   3.338
19558SOL    HW160448  12.879   9.567   3.255
19558SOL    HW260449  12.876   9.687   3.348
19559SOL     OW60450   5.246   1.177   2.340
19559SOL    HW160451   5.209   1.166   2.252
19559SOL    HW260452   5.327   1.126   2.338
19560SOL     OW60453  10.649  14.024   1.276
19560SOL    HW160454  10.662  13.935   1.309
19560SOL    HW260455  10.557  14.025   1.249
19561SOL     OW60456   4.902   8.814   6.891
19561SOL    HW160457   4.891   8.734   6.840
19561SOL    HW260458   4.982   8.854   6.857
19562SOL     OW60459   2.578   2.400   9.609
19562SOL    HW160460   2.616   2.319   9.645
19562SOL    HW260461   2.591   2.393   9.515
19563SOL     OW60462  12.209   8.424   4.858
19563SOL    HW160463  12.165   8.370   4.924
19563SOL    HW260464  12.297   8.388   4.851
19564SOL     OW60465   5.594   5.357  11.553
19564SOL    HW160466   5.552   5.271  11.544
19564SOL    HW260467   5.536   5.416  11.506
19565SOL     OW60468   8.954  11.613   7.319
19565SOL    HW160469   8.906  11.695   7.330
19565SOL    HW260470   8.941  11.565   7.401
19566SOL     OW60471   9.966  11.452   2.904
19566SOL    HW160472  10.024  11.438   2.829
19566SOL    HW260473   9.912  11.373   2.908
19567SOL     OW60474   2.722   0.147   4.972
19567SOL    HW160475   2.785   0.166   4.902
19567SOL    HW260476   2.674   0.229   4.983
19568SOL     OW60477   8.475   6.702  13.108
19568SOL    HW160478   8.445   6.642  13.178
19568SOL    HW260479   8.513   6.644  13.042
19569SOL     OW60480   9.376   2.215   2.194
19569SOL    HW160481   9.382   2.234   2.287
19569SOL    HW260482   9.462   2.238   2.159
19570SOL     OW60483   2.634   1.334   6.896
19570SOL    HW160484   2.586   1.284   6.963
19570SOL    HW260485   2.700   1.382   6.944
19571SOL     OW60486   3.358   7.502   1.228
19571SOL    HW160487   3.421   7.567   1.197
19571SOL    HW260488   3.407   7.449   1.292
19572SOL     OW60489  14.183  11.744   6.360
19572SOL    HW160490  14.248  11.673   6.362
19572SOL    HW260491  14.228  11.819   6.398
19573SOL     OW60492  13.349   8.414   7.686
19573SOL    HW160493  13.401   8.358   7.745
19573SOL    HW260494  13.364   8.377   7.599
19574SOL     OW60495  14.164   5.675   3.500
19574SOL    HW160496  14.089   5.626   3.533
19574SOL    HW260497  14.144   5.767   3.521
19575SOL     OW60498  13.807   1.304  12.554
19575SOL    HW160499  13.763   1.223  12.580
19575SOL    HW260500  13.877   1.314  12.618
19576SOL     OW60501  12.113   6.157   1.213
19576SOL    HW160502  12.114   6.227   1.148
19576SOL    HW260503  12.194   6.109   1.199
19577SOL     OW60504   6.329   1.313   7.845
19577SOL    HW160505   6.423   1.298   7.855
19577SOL    HW260506   6.319   1.408   7.852
19578SOL     OW60507   3.946  10.185  10.279
19578SOL    HW160508   3.878  10.166  10.344
19578SOL    HW260509   3.932  10.121  10.210
19579SOL     OW60510   6.338   5.900   7.858
19579SOL    HW160511   6.374   5.816   7.886
19579SOL    HW260512   6.409   5.943   7.811
19580SOL     OW60513   7.872   0.490   2.246
19580SOL    HW160514   7.815   0.518   2.317
19580SOL    HW260515   7.823   0.508   2.166
19581SOL     OW60516   0.410   4.648   1.490
19581SOL    HW160517   0.335   4.598   1.459
19581SOL    HW260518   0.390   4.668   1.582
19582SOL     OW60519   1.385  13.596  10.719
19582SOL    HW160520   1.368  13.503  10.731
19582SOL    HW260521   1.372  13.634  10.806
19583SOL     OW60522   8.296   0.268   0.862
19583SOL    HW160523   8.298   0.338   0.928
19583SOL    HW260524   8.269   0.312   0.781
19584SOL     OW60525   0.405  14.087  10.634
19584SOL    HW160526   0.427  14.178  10.615
19584SOL    HW260527   0.435  14.075  10.725
19585SOL     OW60528   0.284  13.988   8.636
19585SOL    HW160529   0.248  13.904   8.665
19585SOL    HW260530   0.285  13.982   8.540
19586SOL     OW60531  13.512  14.689  14.020
19586SOL    HW160532  13.494  14.679  14.114
19586SOL    HW260533  13.483  14.607  13.981
19587SOL     OW60534  12.518   1.969  14.277
19587SOL    HW160535  12.466   1.897  14.312
19587SOL    HW260536  12.574   1.996  14.350
19588SOL     OW60537   6.371   3.921  13.210
19588SOL    HW160538   6.339   3.993  13.265
19588SOL    HW260539   6.413   3.964  13.136
19589SOL     OW60540   5.023  11.731   8.385
19589SOL    HW160541   5.050  11.656   8.332
19589SOL    HW260542   5.023  11.805   8.324
19590SOL     OW60543   8.601  10.559   8.670
19590SOL    HW160544   8.659  10.560   8.593
19590SOL    HW260545   8.653  10.516   8.738
19591SOL     OW60546   1.460  10.194   0.713
19591SOL    HW160547   1.413  10.151   0.784
19591SOL    HW260548   1.449  10.136   0.637
19592SOL     OW60549   3.341   2.738   7.467
19592SOL    HW160550   3.272   2.715   7.404
19592SOL    HW260551   3.298   2.735   7.552
19593SOL     OW60552   3.440   7.937   8.761
19593SOL    HW160553   3.510   7.959   8.823
19593SOL    HW260554   3.485   7.893   8.688
19594SOL     OW60555   3.601   8.601   2.264
19594SOL    HW160556   3.621   8.580   2.356
19594SOL    HW260557   3.685   8.592   2.219
19595SOL     OW60558   0.361   6.791   5.274
19595SOL    HW160559   0.402   6.773   5.190
19595SOL    HW260560   0.309   6.712   5.293
19596SOL     OW60561   6.374   0.106   9.581
19596SOL    HW160562   6.371   0.049   9.503
19596SOL    HW260563   6.462   0.142   9.581
19597SOL     OW60564   8.116   4.761   0.500
19597SOL    HW160565   8.149   4.842   0.540
19597SOL    HW260566   8.155   4.691   0.553
19598SOL     OW60567  13.443   5.275  10.066
19598SOL    HW160568  13.472   5.260  10.156
19598SOL    HW260569  13.510   5.331  10.028
19599SOL     OW60570   4.447   3.008   3.596
19599SOL    HW160571   4.485   2.930   3.555
19599SOL    HW260572   4.513   3.076   3.583
19600SOL     OW60573   0.661   5.916   3.363
19600SOL    HW160574   0.748   5.909   3.323
19600SOL    HW260575   0.612   5.843   3.325
19601SOL     OW60576   4.556  13.941  10.418
19601SOL    HW160577   4.560  14.026  10.462
19601SOL    HW260578   4.478  13.946  10.362
19602SOL     OW60579   3.606   3.201   6.002
19602SOL    HW160580   3.525   3.151   5.990
19602SOL    HW260581   3.675   3.135   6.001
19603SOL     OW60582   1.122   3.981   5.764
19603SOL    HW160583   1.045   3.931   5.736
19603SOL    HW260584   1.196   3.924   5.747
19604SOL     OW60585   3.773  14.100  10.465
19604SOL    HW160586   3.814  14.092  10.379
19604SOL    HW260587   3.696  14.156  10.449
19605SOL     OW60588  12.436   9.774   5.824
19605SOL    HW160589  12.447   9.685   5.858
19605SOL    HW260590  12.366   9.812   5.877
19606SOL     OW60591  14.417  12.290  12.523
19606SOL    HW160592  14.417  12.380  12.490
19606SOL    HW260593  14.368  12.241  12.457
19607SOL     OW60594   5.043   5.788   5.722
19607SOL    HW160595   5.078   5.699   5.713
19607SOL    HW260596   4.948   5.777   5.711
19608SOL     OW60597   9.257  13.493   5.749
19608SOL    HW160598   9.198  13.542   5.806
19608SOL    HW260599   9.207  13.478   5.669
19609SOL     OW60600   9.333  10.231  14.159
19609SOL    HW160601   9.427  10.245  14.160
19609SOL    HW260602   9.298  10.297  14.219
19610SOL     OW60603   0.776   8.056   2.264
19610SOL    HW160604   0.802   8.062   2.356
19610SOL    HW260605   0.697   8.110   2.258
19611SOL     OW60606   3.373   2.357   2.579
19611SOL    HW160607   3.367   2.349   2.484
19611SOL    HW260608   3.448   2.303   2.602
19612SOL     OW60609   5.410   6.839   0.611
19612SOL    HW160610   5.417   6.878   0.698
19612SOL    HW260611   5.316   6.834   0.594
19613SOL     OW60612  12.157   1.251  10.691
19613SOL    HW160613  12.128   1.215  10.607
19613SOL    HW260614  12.108   1.332  10.700
19614SOL     OW60615  13.628   2.111   9.758
19614SOL    HW160616  13.624   2.040   9.822
19614SOL    HW260617  13.560   2.090   9.695
19615SOL     OW60618   6.402   8.523   9.016
19615SOL    HW160619   6.354   8.493   8.939
19615SOL    HW260620   6.393   8.618   9.015
19616SOL     OW60621   4.692  14.185   3.645
19616SOL    HW160622   4.623  14.128   3.680
19616SOL    HW260623   4.646  14.241   3.582
19617SOL     OW60624  13.694   0.375   8.290
19617SOL    HW160625  13.757   0.433   8.332
19617SOL    HW260626  13.609   0.408   8.318
19618SOL     OW60627   9.914   1.504   0.575
19618SOL    HW160628   9.905   1.527   0.482
19618SOL    HW260629   9.853   1.431   0.587
19619SOL     OW60630  14.663   1.583   3.053
19619SOL    HW160631  14.743   1.566   3.102
19619SOL    HW260632  14.593   1.573   3.118
19620SOL     OW60633  11.360  12.037   5.216
19620SOL    HW160634  11.370  11.975   5.288
19620SOL    HW260635  11.294  12.098   5.247
19621SOL     OW60636   5.885  10.709  11.993
19621SOL    HW160637   5.801  10.675  11.960
19621SOL    HW260638   5.929  10.743  11.915
19622SOL     OW60639   2.896   2.396   7.372
19622SOL    HW160640   2.841   2.330   7.415
19622SOL    HW260641   2.874   2.388   7.280
19623SOL     OW60642   9.107   0.110  12.302
19623SOL    HW160643   9.160   0.143  12.229
19623SOL    HW260644   9.052   0.043  12.264
19624SOL     OW60645  11.424  10.429  11.252
19624SOL    HW160646  11.438  10.442  11.346
19624SOL    HW260647  11.491  10.366  11.226
19625SOL     OW60648   6.119  13.308   0.025
19625SOL    HW160649   6.081  13.354   0.099
19625SOL    HW260650   6.053  13.243   0.000
19626SOL     OW60651   5.556   3.342   5.877
19626SOL    HW160652   5.551   3.318   5.969
19626SOL    HW260653   5.486   3.407   5.865
19627SOL     OW60654   1.582  12.371   3.422
19627SOL    HW160655   1.585  12.277   3.442
19627SOL    HW260656   1.515  12.406   3.480
19628SOL     OW60657   9.343   1.236   0.519
19628SOL    HW160658   9.406   1.228   0.590
19628SOL    HW260659   9.392   1.276   0.448
19629SOL     OW60660   8.019  11.403  11.219
19629SOL    HW160661   8.036  11.310  11.204
19629SOL    HW260662   7.960  11.429  11.148
19630SOL     OW60663   0.252   9.077  12.281
19630SOL    HW160664   0.166   9.113  12.304
19630SOL    HW260665   0.247   8.985  12.308
19631SOL     OW60666   3.598   3.508  12.114
19631SOL    HW160667   3.531   3.570  12.141
19631SOL    HW260668   3.630   3.469  12.196
19632SOL     OW60669   4.764  11.959   1.777
19632SOL    HW160670   4.695  12.011   1.818
19632SOL    HW260671   4.740  11.954   1.685
19633SOL     OW60672  13.554   3.311   7.984
19633SOL    HW160673  13.491   3.246   7.952
19633SOL    HW260674  13.627   3.306   7.922
19634SOL     OW60675   9.276  13.809   7.923
19634SOL    HW160676   9.245  13.775   7.839
19634SOL    HW260677   9.369  13.787   7.924
19635SOL     OW60678   7.377   3.330   0.882
19635SOL    HW160679   7.376   3.406   0.939
19635SOL    HW260680   7.414   3.260   0.935
19636SOL     OW60681   4.579  14.363  11.998
19636SOL    HW160682   4.555  14.321  11.916
19636SOL    HW260683   4.571  14.295  12.064
19637SOL     OW60684  10.378   7.052   9.358
19637SOL    HW160685  10.350   7.069   9.268
19637SOL    HW260686  10.447   6.986   9.350
19638SOL     OW60687   5.097   9.526  10.196
19638SOL    HW160688   5.001   9.530  10.200
19638SOL    HW260689   5.120   9.572  10.116
19639SOL     OW60690   6.890   9.894   9.214
19639SOL    HW160691   6.824   9.928   9.154
19639SOL    HW260692   6.880   9.947   9.294
19640SOL     OW60693   2.885   9.091   8.536
19640SOL    HW160694   2.897   9.116   8.628
19640SOL    HW260695   2.886   9.173   8.488
19641SOL     OW60696   2.068   9.000   2.383
19641SOL    HW160697   2.118   8.974   2.460
19641SOL    HW260698   2.068   9.096   2.386
19642SOL     OW60699   0.617   4.257  12.697
19642SOL    HW160700   0.547   4.322  12.703
19642SOL    HW260701   0.651   4.267  12.608
19643SOL     OW60702   8.201   3.494   7.033
19643SOL    HW160703   8.240   3.580   7.018
19643SOL    HW260704   8.269   3.443   7.077
19644SOL     OW60705   8.418  13.636  13.239
19644SOL    HW160706   8.327  13.641  13.266
19644SOL    HW260707   8.441  13.725  13.212
19645SOL     OW60708   6.014   8.721   8.027
19645SOL    HW160709   6.053   8.666   8.095
19645SOL    HW260710   5.980   8.797   8.075
19646SOL     OW60711  12.121  10.669  11.153
19646SOL    HW160712  12.107  10.691  11.245
19646SOL    HW260713  12.213  10.644  11.148
19647SOL     OW60714  11.472   6.081  12.927
19647SOL    HW160715  11.519   6.133  12.862
19647SOL    HW260716  11.409   6.029  12.876
19648SOL     OW60717  10.722   0.910  11.514
19648SOL    HW160718  10.652   0.974  11.525
19648SOL    HW260719  10.791   0.957  11.466
19649SOL     OW60720  13.017   0.013   6.053
19649SOL    HW160721  13.084   0.082   6.053
19649SOL    HW260722  13.030  14.845   5.969
19650SOL     OW60723   9.389  10.360   5.019
19650SOL    HW160724   9.356  10.397   4.937
19650SOL    HW260725   9.484  10.357   5.007
19651SOL     OW60726   6.387   4.733  12.829
19651SOL    HW160727   6.374   4.797  12.759
19651SOL    HW260728   6.456   4.675  12.796
19652SOL     OW60729   0.352  10.337  13.730
19652SOL    HW160730   0.326  10.311  13.641
19652SOL    HW260731   0.405  10.416  13.717
19653SOL     OW60732  10.573   1.329  10.382
19653SOL    HW160733  10.642   1.263  10.381
19653SOL    HW260734  10.498   1.284  10.422
19654SOL     OW60735   1.104   9.133   5.633
19654SOL    HW160736   1.188   9.179   5.630
19654SOL    HW260737   1.075   9.130   5.542
19655SOL     OW60738   4.783   7.673   0.425
19655SOL    HW160739   4.792   7.695   0.332
19655SOL    HW260740   4.860   7.620   0.445
19656SOL     OW60741   2.821   8.419  12.872
19656SOL    HW160742   2.891   8.359  12.845
19656SOL    HW260743   2.818   8.410  12.968
19657SOL     OW60744  10.956  12.020  11.809
19657SOL    HW160745  11.047  12.045  11.794
19657SOL    HW260746  10.932  12.064  11.890
19658SOL     OW60747   5.883   7.723   3.716
19658SOL    HW160748   5.878   7.691   3.806
19658SOL    HW260749   5.803   7.691   3.674
19659SOL     OW60750   8.536   6.832   0.849
19659SOL    HW160751   8.488   6.798   0.924
19659SOL    HW260752   8.628   6.822   0.872
19660SOL     OW60753   0.108   0.344   1.845
19660SOL    HW160754   0.147   0.425   1.814
19660SOL    HW260755   0.015   0.363   1.854
19661SOL     OW60756   4.485  11.073   6.116
19661SOL    HW160757   4.575  11.042   6.123
19661SOL    HW260758   4.488  11.143   6.050
19662SOL     OW60759   0.854   0.782  10.085
19662SOL    HW160760   0.860   0.852  10.150
19662SOL    HW260761   0.773   0.799  10.038
19663SOL     OW60762   8.582   7.177   1.487
19663SOL    HW160763   8.498   7.220   1.479
19663SOL    HW260764   8.627   7.196   1.404
19664SOL     OW60765  10.896  14.729   9.712
19664SOL    HW160766  10.908  14.636   9.693
19664SOL    HW260767  10.809  14.750   9.679
19665SOL     OW60768   0.024  13.834  10.629
19665SOL    HW160769   0.031  13.799  10.718
19665SOL    HW260770   0.017  13.928  10.641
19666SOL     OW60771   5.796  14.200   1.269
19666SOL    HW160772   5.765  14.236   1.186
19666SOL    HW260773   5.729  14.137   1.295
19667SOL     OW60774   2.558   3.438   6.571
19667SOL    HW160775   2.552   3.533   6.568
19667SOL    HW260776   2.544   3.415   6.662
19668SOL     OW60777  13.623   3.069   4.478
19668SOL    HW160778  13.589   2.983   4.451
19668SOL    HW260779  13.702   3.049   4.528
19669SOL     OW60780   9.113  12.417   3.282
19669SOL    HW160781   9.032  12.383   3.244
19669SOL    HW260782   9.126  12.502   3.240
19670SOL     OW60783  14.463   9.398   1.106
19670SOL    HW160784  14.460   9.333   1.036
19670SOL    HW260785  14.450   9.482   1.062
19671SOL     OW60786   3.763   3.503   9.517
19671SOL    HW160787   3.670   3.485   9.505
19671SOL    HW260788   3.801   3.419   9.540
19672SOL     OW60789   2.797   2.129   6.264
19672SOL    HW160790   2.716   2.115   6.313
19672SOL    HW260791   2.767   2.159   6.178
19673SOL     OW60792  13.989  14.594   0.822
19673SOL    HW160793  13.941  14.647   0.885
19673SOL    HW260794  14.080  14.600   0.849
19674SOL     OW60795   3.582   2.957   1.434
19674SOL    HW160796   3.605   3.011   1.358
19674SOL    HW260797   3.602   2.868   1.406
19675SOL     OW60798   3.171   1.724  12.160
19675SOL    HW160799   3.139   1.772  12.084
19675SOL    HW260800   3.177   1.790  12.230
19676SOL     OW60801   0.609   0.332  13.209
19676SOL    HW160802   0.639   0.246  13.242
19676SOL    HW260803   0.673   0.355  13.142
19677SOL     OW60804   7.896   2.663   0.980
19677SOL    HW160805   7.887   2.572   0.950
19677SOL    HW260806   7.890   2.715   0.900
19678SOL     OW60807   0.715  12.364   5.685
19678SOL    HW160808   0.791  12.336   5.634
19678SOL    HW260809   0.742  12.355   5.776
19679SOL     OW60810   8.403  13.997   0.582
19679SOL    HW160811   8.398  13.920   0.637
19679SOL    HW260812   8.394  13.964   0.492
19680SOL     OW60813   8.288   9.305  10.565
19680SOL    HW160814   8.331   9.292  10.480
19680SOL    HW260815   8.285   9.217  10.603
19681SOL     OW60816   4.873   0.716   0.467
19681SOL    HW160817   4.790   0.687   0.505
19681SOL    HW260818   4.856   0.805   0.437
19682SOL     OW60819   1.283   1.100   0.703
19682SOL    HW160820   1.361   1.053   0.672
19682SOL    HW260821   1.315   1.154   0.775
19683SOL     OW60822   2.832  10.539   4.084
19683SOL    HW160823   2.834  10.631   4.113
19683SOL    HW260824   2.924  10.517   4.070
19684SOL     OW60825   4.804  10.680  10.905
19684SOL    HW160826   4.798  10.727  10.822
19684SOL    HW260827   4.720  10.697  10.948
19685SOL     OW60828   1.183   8.636   7.123
19685SOL    HW160829   1.102   8.598   7.088
19685SOL    HW260830   1.156   8.681   7.203
19686SOL     OW60831   1.193   9.108  12.298
19686SOL    HW160832   1.147   9.192  12.291
19686SOL    HW260833   1.148   9.063  12.370
19687SOL     OW60834   8.147   7.002   7.955
19687SOL    HW160835   8.229   7.028   7.997
19687SOL    HW260836   8.159   6.909   7.936
19688SOL     OW60837   5.473   7.605   5.792
19688SOL    HW160838   5.495   7.555   5.871
19688SOL    HW260839   5.399   7.660   5.819
19689SOL     OW60840  11.269   8.547   1.728
19689SOL    HW160841  11.314   8.462   1.734
19689SOL    HW260842  11.318   8.604   1.787
19690SOL     OW60843   9.923   2.452  11.736
19690SOL    HW160844   9.910   2.532  11.787
19690SOL    HW260845   9.994   2.407  11.781
19691SOL     OW60846  10.582   5.624   4.313
19691SOL    HW160847  10.634   5.681   4.371
19691SOL    HW260848  10.635   5.616   4.234
19692SOL     OW60849   4.137  11.999   8.431
19692SOL    HW160850   4.051  12.000   8.472
19692SOL    HW260851   4.134  11.924   8.372
19693SOL     OW60852  13.597   6.760  13.186
19693SOL    HW160853  13.503   6.773  13.197
19693SOL    HW260854  13.630   6.745  13.275
19694SOL     OW60855   1.694   0.083   5.521
19694SOL    HW160856   1.680   0.010   5.461
19694SOL    HW260857   1.639   0.154   5.486
19695SOL     OW60858   8.115  10.681   9.598
19695SOL    HW160859   8.168  10.639   9.666
19695SOL    HW260860   8.169  10.753   9.566
19696SOL     OW60861  12.889  10.092  11.388
19696SOL    HW160862  12.801  10.064  11.361
19696SOL    HW260863  12.875  10.143  11.467
19697SOL     OW60864   6.412   4.861   6.679
19697SOL    HW160865   6.370   4.836   6.597
19697SOL    HW260866   6.441   4.778   6.717
19698SOL     OW60867   5.884   7.052  13.273
19698SOL    HW160868   5.919   6.963  13.267
19698SOL    HW260869   5.927   7.099  13.201
19699SOL     OW60870   6.908  12.241   6.846
19699SOL    HW160871   6.953  12.270   6.767
19699SOL    HW260872   6.864  12.160   6.821
19700SOL     OW60873  12.794  13.434  13.695
19700SOL    HW160874  12.874  13.432  13.747
19700SOL    HW260875  12.823  13.448  13.606
19701SOL     OW60876   0.223   4.893   5.713
19701SOL    HW160877   0.129   4.896   5.698
19701SOL    HW260878   0.261   4.921   5.629
19702SOL     OW60879  12.051  12.917   9.591
19702SOL    HW160880  12.117  12.865   9.636
19702SOL    HW260881  12.011  12.856   9.528
19703SOL     OW60882  10.167   9.259   2.627
19703SOL    HW160883  10.142   9.188   2.568
19703SOL    HW260884  10.114   9.245   2.706
19704SOL     OW60885   6.635  13.689  11.930
19704SOL    HW160886   6.571  13.619  11.917
19704SOL    HW260887   6.670  13.706  11.843
19705SOL     OW60888  14.371   1.295   7.892
19705SOL    HW160889  14.439   1.259   7.835
19705SOL    HW260890  14.357   1.228   7.958
19706SOL     OW60891  11.682   6.784   8.065
19706SOL    HW160892  11.699   6.867   8.111
19706SOL    HW260893  11.623   6.736   8.123
19707SOL     OW60894   9.469  11.455  11.998
19707SOL    HW160895   9.486  11.547  12.017
19707SOL    HW260896   9.428  11.421  12.077
19708SOL     OW60897   8.995   3.857   9.002
19708SOL    HW160898   8.935   3.908   8.947
19708SOL    HW260899   9.060   3.920   9.033
19709SOL     OW60900  14.808  13.895   4.501
19709SOL    HW160901  14.824  13.850   4.585
19709SOL    HW260902  14.876  13.962   4.497
19710SOL     OW60903   1.970  10.664   4.713
19710SOL    HW160904   1.968  10.740   4.655
19710SOL    HW260905   1.906  10.684   4.782
19711SOL     OW60906   8.479   1.540  14.841
19711SOL    HW160907   8.463   1.634  14.852
19711SOL    HW260908   8.482   1.527  14.747
19712SOL     OW60909  13.315  11.982   5.560
19712SOL    HW160910  13.357  11.930   5.628
19712SOL    HW260911  13.302  11.920   5.488
19713SOL     OW60912   1.410   4.352  12.053
19713SOL    HW160913   1.344   4.284  12.042
19713SOL    HW260914   1.475   4.314  12.113
19714SOL     OW60915  10.154   2.009   6.044
19714SOL    HW160916  10.233   2.057   6.069
19714SOL    HW260917  10.095   2.077   6.012
19715SOL     OW60918   6.998   2.903  13.919
19715SOL    HW160919   6.934   2.865  13.859
19715SOL    HW260920   7.050   2.829  13.950
19716SOL     OW60921   8.948   5.672  14.209
19716SOL    HW160922   8.964   5.766  14.218
19716SOL    HW260923   8.883   5.666  14.139
19717SOL     OW60924  12.130   4.565   2.316
19717SOL    HW160925  12.114   4.609   2.233
19717SOL    HW260926  12.086   4.480   2.307
19718SOL     OW60927   0.674   2.764  11.352
19718SOL    HW160928   0.713   2.679  11.369
19718SOL    HW260929   0.682   2.776  11.257
19719SOL     OW60930   4.186   3.823   7.158
19719SOL    HW160931   4.156   3.907   7.194
19719SOL    HW260932   4.262   3.800   7.211
19720SOL     OW60933  10.959   4.184  10.044
19720SOL    HW160934  11.053   4.201  10.052
19720SOL    HW260935  10.948   4.093  10.072
19721SOL     OW60936   4.045   6.605  10.151
19721SOL    HW160937   4.034   6.561  10.235
19721SOL    HW260938   4.062   6.533  10.089
19722SOL     OW60939   3.774   8.387  14.029
19722SOL    HW160940   3.846   8.347  13.980
19722SOL    HW260941   3.730   8.443  13.965
19723SOL     OW60942   9.508  10.440   2.604
19723SOL    HW160943   9.429  10.468   2.649
19723SOL    HW260944   9.479  10.413   2.517
19724SOL     OW60945   2.269  13.262   5.484
19724SOL    HW160946   2.198  13.279   5.421
19724SOL    HW260947   2.231  13.202   5.548
19725SOL     OW60948   4.162  10.311   1.310
19725SOL    HW160949   4.168  10.368   1.387
19725SOL    HW260950   4.112  10.361   1.246
19726SOL     OW60951  11.147  14.595  13.542
19726SOL    HW160952  11.182  14.541  13.471
19726SOL    HW260953  11.218  14.656  13.564
19727SOL     OW60954   0.804   4.168   3.186
19727SOL    HW160955   0.868   4.239   3.177
19727SOL    HW260956   0.810   4.120   3.104
19728SOL     OW60957   7.190  12.681  14.404
19728SOL    HW160958   7.138  12.603  14.427
19728SOL    HW260959   7.280  12.655  14.424
19729SOL     OW60960   6.527   5.474   7.891
19729SOL    HW160961   6.573   5.494   7.810
19729SOL    HW260962   6.434   5.475   7.868
19730SOL     OW60963   4.713   1.819   7.525
19730SOL    HW160964   4.684   1.771   7.602
19730SOL    HW260965   4.784   1.874   7.557
19731SOL     OW60966   6.777  13.720   6.918
19731SOL    HW160967   6.781  13.811   6.946
19731SOL    HW260968   6.686  13.694   6.935
19732SOL     OW60969   5.064   8.189   1.577
19732SOL    HW160970   5.121   8.176   1.654
19732SOL    HW260971   5.062   8.103   1.535
19733SOL     OW60972   3.163   2.210   5.500
19733SOL    HW160973   3.192   2.215   5.591
19733SOL    HW260974   3.200   2.288   5.459
19734SOL     OW60975   5.439   3.194  12.073
19734SOL    HW160976   5.369   3.256  12.093
19734SOL    HW260977   5.396   3.126  12.020
19735SOL     OW60978   9.634  10.119  11.753
19735SOL    HW160979   9.552  10.069  11.750
19735SOL    HW260980   9.642  10.159  11.666
19736SOL     OW60981   3.108   5.831   5.405
19736SOL    HW160982   3.118   5.776   5.328
19736SOL    HW260983   3.175   5.799   5.466
19737SOL     OW60984   0.345   3.120   8.369
19737SOL    HW160985   0.374   3.034   8.398
19737SOL    HW260986   0.250   3.110   8.356
19738SOL     OW60987   6.225   8.690   7.446
19738SOL    HW160988   6.244   8.611   7.495
19738SOL    HW260989   6.131   8.685   7.427
19739SOL     OW60990  13.609   3.537   3.155
19739SOL    HW160991  13.609   3.527   3.250
19739SOL    HW260992  13.702   3.549   3.132
19740SOL     OW60993  11.723  13.708   1.554
19740SOL    HW160994  11.699  13.800   1.562
19740SOL    HW260995  11.806  13.700   1.602
19741SOL     OW60996   5.647   2.753  13.873
19741SOL    HW160997   5.657   2.759  13.778
19741SOL    HW260998   5.730   2.783  13.909
19742SOL     OW60999   4.985   1.446   6.644
19742SOL    HW161000   4.941   1.361   6.642
19742SOL    HW261001   5.070   1.428   6.684
19743SOL     OW61002   9.993  10.129  11.326
19743SOL    HW161003  10.087  10.119  11.336
19743SOL    HW261004   9.955  10.069  11.390
19744SOL     OW61005   5.049   3.818   5.004
19744SOL    HW161006   5.005   3.846   5.084
19744SOL    HW261007   5.008   3.734   4.982
19745SOL     OW61008   7.599   2.262   5.113
19745SOL    HW161009   7.514   2.283   5.075
19745SOL    HW261010   7.627   2.182   5.067
19746SOL     OW61011   3.527   5.068  14.357
19746SOL    HW161012   3.507   5.161  14.354
19746SOL    HW261013   3.539   5.043  14.266
19747SOL     OW61014   1.202   6.289   6.901
19747SOL    HW161015   1.139   6.266   6.833
19747SOL    HW261016   1.150   6.333   6.968
19748SOL     OW61017   5.864   9.130   5.897
19748SOL    HW161018   5.941   9.121   5.953
19748SOL    HW261019   5.895   9.109   5.809
19749SOL     OW61020  14.774   6.295  11.184
19749SOL    HW161021  14.754   6.208  11.217
19749SOL    HW261022  14.694   6.322  11.138
19750SOL     OW61023   1.019   4.203   6.147
19750SOL    HW161024   1.099   4.190   6.095
19750SOL    HW261025   1.050   4.224   6.235
19751SOL     OW61026   2.912   4.445  11.418
19751SOL    HW161027   2.935   4.410  11.332
19751SOL    HW261028   2.856   4.520  11.399
19752SOL     OW61029   1.011  14.490   8.931
19752SOL    HW161030   1.043  14.578   8.948
19752SOL    HW261031   0.988  14.455   9.017
19753SOL     OW61032   8.053  11.329   8.992
19753SOL    HW161033   8.112  11.382   9.046
19753SOL    HW261034   8.001  11.393   8.943
19754SOL     OW61035   0.419   9.546   6.502
19754SOL    HW161036   0.474   9.471   6.525
19754SOL    HW261037   0.349   9.508   6.449
19755SOL     OW61038  14.410   2.957   0.820
19755SOL    HW161039  14.363   3.025   0.773
19755SOL    HW261040  14.432   2.892   0.753
19756SOL     OW61041   9.377   6.928   3.821
19756SOL    HW161042   9.425   6.964   3.747
19756SOL    HW261043   9.292   6.972   3.819
19757SOL     OW61044   3.375  10.826   9.794
19757SOL    HW161045   3.402  10.842   9.704
19757SOL    HW261046   3.318  10.749   9.789
19758SOL     OW61047   4.671  14.140   7.548
19758SOL    HW161048   4.641  14.069   7.604
19758SOL    HW261049   4.591  14.180   7.514
19759SOL     OW61050   8.938  10.304   5.084
19759SOL    HW161051   8.955  10.239   5.152
19759SOL    HW261052   8.910  10.253   5.008
19760SOL     OW61053   5.764   4.654  14.403
19760SOL    HW161054   5.743   4.617  14.489
19760SOL    HW261055   5.706   4.607  14.343
19761SOL     OW61056   0.655   8.841   9.805
19761SOL    HW161057   0.598   8.848   9.728
19761SOL    HW261058   0.609   8.887   9.874
19762SOL     OW61059   3.640  13.187  10.532
19762SOL    HW161060   3.666  13.148  10.448
19762SOL    HW261061   3.638  13.112  10.592
19763SOL     OW61062   4.374  11.792   2.472
19763SOL    HW161063   4.436  11.835   2.530
19763SOL    HW261064   4.368  11.850   2.396
19764SOL     OW61065   0.686  14.736  12.709
19764SOL    HW161066   0.744  14.780  12.772
19764SOL    HW261067   0.713  14.769  12.624
19765SOL     OW61068  14.677   5.785   5.884
19765SOL    HW161069  14.642   5.702   5.851
19765SOL    HW261070  14.600   5.834   5.912
19766SOL     OW61071   2.764  13.717   6.835
19766SOL    HW161072   2.818  13.640   6.856
19766SOL    HW261073   2.695  13.682   6.779
19767SOL     OW61074  13.190   6.159  13.654
19767SOL    HW161075  13.188   6.065  13.674
19767SOL    HW261076  13.124   6.169  13.585
19768SOL     OW61077  10.690   4.140  12.567
19768SOL    HW161078  10.739   4.179  12.639
19768SOL    HW261079  10.673   4.050  12.596
19769SOL     OW61080  13.093   1.878   2.064
19769SOL    HW161081  13.163   1.863   2.000
19769SOL    HW261082  13.052   1.959   2.035
19770SOL     OW61083  14.014  12.740  12.385
19770SOL    HW161084  13.983  12.683  12.454
19770SOL    HW261085  13.960  12.719  12.309
19771SOL     OW61086   4.406   5.933   7.678
19771SOL    HW161087   4.452   6.014   7.700
19771SOL    HW261088   4.436   5.870   7.744
19772SOL     OW61089   8.474  11.497  10.837
19772SOL    HW161090   8.550  11.551  10.815
19772SOL    HW261091   8.399  11.545  10.801
19773SOL     OW61092  11.399  10.739   2.734
19773SOL    HW161093  11.494  10.730   2.721
19773SOL    HW261094  11.363  10.655   2.705
19774SOL     OW61095   0.235  10.094   8.070
19774SOL    HW161096   0.285  10.175   8.069
19774SOL    HW261097   0.192  10.092   7.984
19775SOL     OW61098   8.647  12.810  11.633
19775SOL    HW161099   8.604  12.895  11.618
19775SOL    HW261100   8.660  12.774  11.546
19776SOL     OW61101   2.939   2.813  12.312
19776SOL    HW161102   3.002   2.863  12.364
19776SOL    HW261103   2.981   2.805  12.226
19777SOL     OW61104   8.270   4.859   7.108
19777SOL    HW161105   8.177   4.875   7.120
19777SOL    HW261106   8.278   4.764   7.105
19778SOL     OW61107   6.876   4.403  10.140
19778SOL    HW161108   6.887   4.322  10.189
19778SOL    HW261109   6.799   4.388  10.084
19779SOL     OW61110   3.409  14.204  10.670
19779SOL    HW161111   3.402  14.232  10.579
19779SOL    HW261112   3.407  14.109  10.666
19780SOL     OW61113  10.924  12.378   5.655
19780SOL    HW161114  10.936  12.421   5.739
19780SOL    HW261115  11.003  12.326   5.643
19781SOL     OW61116   6.603   0.757   4.517
19781SOL    HW161117   6.514   0.791   4.516
19781SOL    HW261118   6.594   0.665   4.492
19782SOL     OW61119   7.936   8.657   2.525
19782SOL    HW161120   7.922   8.636   2.432
19782SOL    HW261121   7.912   8.749   2.533
19783SOL     OW61122   0.581  11.150   9.839
19783SOL    HW161123   0.632  11.118   9.913
19783SOL    HW261124   0.600  11.244   9.836
19784SOL     OW61125   2.170   4.985   3.851
19784SOL    HW161126   2.241   4.955   3.795
19784SOL    HW261127   2.180   4.934   3.932
19785SOL     OW61128  12.044  10.547  14.851
19785SOL    HW161129  12.039  10.458  14.816
19785SOL    HW261130  11.953  10.576  14.856
19786SOL     OW61131   9.938  10.645   3.590
19786SOL    HW161132  10.019  10.642   3.641
19786SOL    HW261133   9.919  10.738   3.579
19787SOL     OW61134  14.656   0.295  12.437
19787SOL    HW161135  14.661   0.219  12.494
19787SOL    HW261136  14.694   0.366  12.490
19788SOL     OW61137   6.738   0.668   6.362
19788SOL    HW161138   6.698   0.716   6.290
19788SOL    HW261139   6.761   0.583   6.325
19789SOL     OW61140   1.889  12.868  12.520
19789SOL    HW161141   1.874  12.952  12.477
19789SOL    HW261142   1.836  12.806  12.472
19790SOL     OW61143   5.459   9.181   0.311
19790SOL    HW161144   5.510   9.201   0.233
19790SOL    HW261145   5.377   9.228   0.300
19791SOL     OW61146   6.680   5.969  14.325
19791SOL    HW161147   6.686   6.030  14.252
19791SOL    HW261148   6.669   6.024  14.402
19792SOL     OW61149  12.309   1.272   7.801
19792SOL    HW161150  12.352   1.309   7.877
19792SOL    HW261151  12.370   1.289   7.729
19793SOL     OW61152   1.105   4.435   3.531
19793SOL    HW161153   1.024   4.483   3.550
19793SOL    HW261154   1.108   4.366   3.597
19794SOL     OW61155  13.685   9.509   2.729
19794SOL    HW161156  13.683   9.467   2.815
19794SOL    HW261157  13.769   9.484   2.692
19795SOL     OW61158   4.116   4.681  10.821
19795SOL    HW161159   4.064   4.607  10.790
19795SOL    HW261160   4.080   4.701  10.908
19796SOL     OW61161  11.161  10.948   7.507
19796SOL    HW161162  11.106  11.006   7.560
19796SOL    HW261163  11.222  11.007   7.463
19797SOL     OW61164   8.956  13.975  14.677
19797SOL    HW161165   9.045  14.005  14.694
19797SOL    HW261166   8.967  13.905  14.613
19798SOL     OW61167   3.179   8.870   1.387
19798SOL    HW161168   3.189   8.843   1.479
19798SOL    HW261169   3.085   8.860   1.370
19799SOL     OW61170   6.392   3.415  11.751
19799SOL    HW161171   6.310   3.387  11.711
19799SOL    HW261172   6.440   3.334  11.768
19800SOL     OW61173   9.794   8.553   4.571
19800SOL    HW161174   9.757   8.466   4.557
19800SOL    HW261175   9.884   8.545   4.539
19801SOL     OW61176  14.592  10.839   8.907
19801SOL    HW161177  14.572  10.913   8.849
19801SOL    HW261178  14.558  10.865   8.992
19802SOL     OW61179  12.348  11.782   9.911
19802SOL    HW161180  12.431  11.786   9.865
19802SOL    HW261181  12.323  11.874   9.925
19803SOL     OW61182   9.523   2.341   2.667
19803SOL    HW161183   9.454   2.389   2.712
19803SOL    HW261184   9.546   2.271   2.727
19804SOL     OW61185  13.724  13.622   7.135
19804SOL    HW161186  13.794  13.651   7.194
19804SOL    HW261187  13.686  13.546   7.180
19805SOL     OW61188   3.235  11.859  11.644
19805SOL    HW161189   3.260  11.767  11.642
19805SOL    HW261190   3.139  11.858  11.637
19806SOL     OW61191  14.252   3.269  14.082
19806SOL    HW161192  14.242   3.361  14.058
19806SOL    HW261193  14.230   3.266  14.175
19807SOL     OW61194  12.253   3.975   9.881
19807SOL    HW161195  12.274   4.042   9.815
19807SOL    HW261196  12.266   4.019   9.965
19808SOL     OW61197  14.531  11.845   9.748
19808SOL    HW161198  14.503  11.756   9.724
19808SOL    HW261199  14.620  11.833   9.781
19809SOL     OW61200   0.216  14.187   1.718
19809SOL    HW161201   0.300  14.232   1.729
19809SOL    HW261202   0.205  14.181   1.623
19810SOL     OW61203  13.844   0.548   4.934
19810SOL    HW161204  13.922   0.603   4.934
19810SOL    HW261205  13.831   0.525   4.842
19811SOL     OW61206   1.163   7.132   7.287
19811SOL    HW161207   1.257   7.142   7.269
19811SOL    HW261208   1.126   7.218   7.269
19812SOL     OW61209   7.422   5.889  14.702
19812SOL    HW161210   7.437   5.812  14.757
19812SOL    HW261211   7.509   5.913  14.671
19813SOL     OW61212   1.179   6.307   0.742
19813SOL    HW161213   1.176   6.226   0.691
19813SOL    HW261214   1.117   6.365   0.697
19814SOL     OW61215   1.363   0.616   2.619
19814SOL    HW161216   1.447   0.611   2.665
19814SOL    HW261217   1.384   0.655   2.535
19815SOL     OW61218  14.629  13.123   0.768
19815SOL    HW161219  14.685  13.197   0.748
19815SOL    HW261220  14.541  13.152   0.743
19816SOL     OW61221   4.799  11.243   6.318
19816SOL    HW161222   4.727  11.264   6.259
19816SOL    HW261223   4.762  11.179   6.379
19817SOL     OW61224  10.487   9.695   2.347
19817SOL    HW161225  10.456   9.667   2.261
19817SOL    HW261226  10.565   9.747   2.329
19818SOL     OW61227   5.928   5.419  10.989
19818SOL    HW161228   5.947   5.512  10.997
19818SOL    HW261229   5.846   5.407  11.037
19819SOL     OW61230   7.807   6.713   0.455
19819SOL    HW161231   7.723   6.758   0.463
19819SOL    HW261232   7.820   6.671   0.540
19820SOL     OW61233  10.721  10.937  11.688
19820SOL    HW161234  10.700  10.897  11.773
19820SOL    HW261235  10.813  10.963  11.697
19821SOL     OW61236   4.485  11.226  13.734
19821SOL    HW161237   4.409  11.189  13.689
19821SOL    HW261238   4.491  11.315  13.702
19822SOL     OW61239   6.193  13.371  11.944
19822SOL    HW161240   6.261  13.322  11.991
19822SOL    HW261241   6.186  13.326  11.860
19823SOL     OW61242   9.891   1.325   2.404
19823SOL    HW161243   9.961   1.299   2.344
19823SOL    HW261244   9.810   1.304   2.357
19824SOL     OW61245  13.696  10.517   3.494
19824SOL    HW161246  13.659  10.438   3.456
19824SOL    HW261247  13.697  10.501   3.588
19825SOL     OW61248  10.885  10.946  12.016
19825SOL    HW161249  10.951  10.877  12.007
19825SOL    HW261250  10.803  10.899  12.029
19826SOL     OW61251   8.238   9.043  13.067
19826SOL    HW161252   8.161   9.085  13.107
19826SOL    HW261253   8.223   9.050  12.973
19827SOL     OW61254   0.250   6.764  11.015
19827SOL    HW161255   0.284   6.684  11.055
19827SOL    HW261256   0.315   6.831  11.037
19828SOL     OW61257   2.704   6.315  13.360
19828SOL    HW161258   2.692   6.402  13.321
19828SOL    HW261259   2.703   6.331  13.455
19829SOL     OW61260  13.138   1.797   0.337
19829SOL    HW161261  13.150   1.703   0.351
19829SOL    HW261262  13.057   1.818   0.383
19830SOL     OW61263  10.981   1.869  11.452
19830SOL    HW161264  10.987   1.869  11.356
19830SOL    HW261265  11.036   1.796  11.480
19831SOL     OW61266   3.674   1.104   2.325
19831SOL    HW161267   3.593   1.055   2.312
19831SOL    HW261268   3.733   1.071   2.257
19832SOL     OW61269   8.893   8.491   6.684
19832SOL    HW161270   8.862   8.579   6.707
19832SOL    HW261271   8.987   8.502   6.668
19833SOL     OW61272   4.450   2.610   9.412
19833SOL    HW161273   4.479   2.606   9.321
19833SOL    HW261274   4.480   2.528   9.451
19834SOL     OW61275  13.482   8.433   7.189
19834SOL    HW161276  13.423   8.499   7.153
19834SOL    HW261277  13.425   8.361   7.216
19835SOL     OW61278  12.942   6.941  10.832
19835SOL    HW161279  12.847   6.944  10.822
19835SOL    HW261280  12.957   6.876  10.900
19836SOL     OW61281   7.740  12.298   3.356
19836SOL    HW161282   7.813  12.311   3.295
19836SOL    HW261283   7.662  12.295   3.300
19837SOL     OW61284   7.407   0.243   4.245
19837SOL    HW161285   7.353   0.220   4.320
19837SOL    HW261286   7.497   0.229   4.274
19838SOL     OW61287   4.596   3.844  13.157
19838SOL    HW161288   4.651   3.870  13.231
19838SOL    HW261289   4.564   3.757  13.180
19839SOL     OW61290   2.940  11.979   4.523
19839SOL    HW161291   3.021  12.011   4.483
19839SOL    HW261292   2.873  11.993   4.455
19840SOL     OW61293   2.265  12.091   6.378
19840SOL    HW161294   2.221  12.112   6.460
19840SOL    HW261295   2.313  12.170   6.355
19841SOL     OW61296  14.145   4.165   4.872
19841SOL    HW161297  14.179   4.234   4.815
19841SOL    HW261298  14.105   4.212   4.945
19842SOL     OW61299  13.639   2.507  12.025
19842SOL    HW161300  13.561   2.517  12.079
19842SOL    HW261301  13.608   2.521  11.935
19843SOL     OW61302   6.535   9.960  11.364
19843SOL    HW161303   6.517  10.032  11.425
19843SOL    HW261304   6.550   9.885  11.421
19844SOL     OW61305   0.351   7.961  12.867
19844SOL    HW161306   0.363   8.008  12.784
19844SOL    HW261307   0.256   7.960  12.880
19845SOL     OW61308   8.444   2.133  11.429
19845SOL    HW161309   8.501   2.208  11.448
19845SOL    HW261310   8.367   2.171  11.387
19846SOL     OW61311   7.019   8.931   2.235
19846SOL    HW161312   6.986   8.940   2.324
19846SOL    HW261313   7.086   8.999   2.227
19847SOL     OW61314  14.836  11.117   6.419
19847SOL    HW161315  14.766  11.132   6.482
19847SOL    HW261316  14.850  11.202   6.377
19848SOL     OW61317  14.820   8.064   2.756
19848SOL    HW161318  14.860   8.059   2.842
19848SOL    HW261319  14.768   7.983   2.749
19849SOL     OW61320  12.931  12.630   7.609
19849SOL    HW161321  12.965  12.553   7.656
19849SOL    HW261322  12.972  12.624   7.523
19850SOL     OW61323  11.774  10.883   0.334
19850SOL    HW161324  11.865  10.853   0.324
19850SOL    HW261325  11.734  10.866   0.249
19851SOL     OW61326   7.452   7.572   3.309
19851SOL    HW161327   7.489   7.656   3.337
19851SOL    HW261328   7.490   7.508   3.369
19852SOL     OW61329   7.363  14.669  13.743
19852SOL    HW161330   7.397  14.582  13.760
19852SOL    HW261331   7.368  14.678  13.648
19853SOL     OW61332  10.138   7.674  14.163
19853SOL    HW161333  10.058   7.645  14.119
19853SOL    HW261334  10.129   7.769  14.169
19854SOL     OW61335   1.249  14.591   0.076
19854SOL    HW161336   1.281  14.502   0.061
19854SOL    HW261337   1.246  14.630  14.866
19855SOL     OW61338  11.659  10.862   1.299
19855SOL    HW161339  11.695  10.899   1.219
19855SOL    HW261340  11.682  10.769   1.295
19856SOL     OW61341   6.253   4.646   1.182
19856SOL    HW161342   6.293   4.709   1.123
19856SOL    HW261343   6.327   4.601   1.223
19857SOL     OW61344  12.413  14.373   5.693
19857SOL    HW161345  12.365  14.441   5.645
19857SOL    HW261346  12.493  14.415   5.722
19858SOL     OW61347   5.326   9.445   8.795
19858SOL    HW161348   5.344   9.527   8.749
19858SOL    HW261349   5.233   9.450   8.819
19859SOL     OW61350   7.076   9.728   4.220
19859SOL    HW161351   7.165   9.693   4.232
19859SOL    HW261352   7.020   9.670   4.271
19860SOL     OW61353   9.539   2.198   5.999
19860SOL    HW161354   9.450   2.201   6.032
19860SOL    HW261355   9.555   2.105   5.980
19861SOL     OW61356   2.901   1.181  13.143
19861SOL    HW161357   2.922   1.120  13.073
19861SOL    HW261358   2.930   1.137  13.223
19862SOL     OW61359   8.103   8.901   8.494
19862SOL    HW161360   8.155   8.976   8.463
19862SOL    HW261361   8.033   8.893   8.430
19863SOL     OW61362   3.049   3.026   2.699
19863SOL    HW161363   3.082   3.116   2.704
19863SOL    HW261364   3.085   2.992   2.617
19864SOL     OW61365  14.198  10.657  12.426
19864SOL    HW161366  14.277  10.616  12.390
19864SOL    HW261367  14.193  10.624  12.516
19865SOL     OW61368   7.480   3.536  13.268
19865SOL    HW161369   7.503   3.489  13.188
19865SOL    HW261370   7.527   3.619  13.262
19866SOL     OW61371   8.237   2.784   1.814
19866SOL    HW161372   8.222   2.815   1.903
19866SOL    HW261373   8.330   2.762   1.810
19867SOL     OW61374  12.608   2.703   6.663
19867SOL    HW161375  12.543   2.765   6.631
19867SOL    HW261376  12.591   2.698   6.757
19868SOL     OW61377   0.046   5.853   3.977
19868SOL    HW161378   0.019   5.930   4.027
19868SOL    HW261379  14.856   5.788   3.994
19869SOL     OW61380  14.363   9.555   2.627
19869SOL    HW161381  14.325   9.633   2.587
19869SOL    HW261382  14.457   9.573   2.631
19870SOL     OW61383  12.451   4.861   7.443
19870SOL    HW161384  12.390   4.935   7.448
19870SOL    HW261385  12.513   4.885   7.375
19871SOL     OW61386   9.044   3.046   1.307
19871SOL    HW161387   8.954   3.042   1.273
19871SOL    HW261388   9.057   2.963   1.353
19872SOL     OW61389   7.400  14.550  12.047
19872SOL    HW161390   7.367  14.592  11.967
19872SOL    HW261391   7.321  14.522  12.093
19873SOL     OW61392   1.479   5.834   4.525
19873SOL    HW161393   1.447   5.752   4.488
19873SOL    HW261394   1.436   5.902   4.474
19874SOL     OW61395  11.431  10.809   6.883
19874SOL    HW161396  11.469  10.850   6.960
19874SOL    HW261397  11.382  10.734   6.918
19875SOL     OW61398   2.971   4.949  10.325
19875SOL    HW161399   2.967   5.043  10.340
19875SOL    HW261400   3.032   4.916  10.391
19876SOL     OW61401   8.812   6.073   9.721
19876SOL    HW161402   8.740   6.125   9.684
19876SOL    HW261403   8.794   5.983   9.694
19877SOL     OW61404   8.308   8.997  11.979
19877SOL    HW161405   8.288   8.906  12.001
19877SOL    HW261406   8.393   9.013  12.021
19878SOL     OW61407   9.606  12.952   4.584
19878SOL    HW161408   9.700  12.943   4.601
19878SOL    HW261409   9.590  12.898   4.506
19879SOL     OW61410   2.077  10.510  10.511
19879SOL    HW161411   2.071  10.496  10.606
19879SOL    HW261412   1.996  10.556  10.488
19880SOL     OW61413   2.502   7.399   5.658
19880SOL    HW161414   2.497   7.451   5.738
19880SOL    HW261415   2.447   7.323   5.675
19881SOL     OW61416  11.653   2.809   6.764
19881SOL    HW161417  11.710   2.734   6.749
19881SOL    HW261418  11.658   2.825   6.859
19882SOL     OW61419   4.697   4.482  12.549
19882SOL    HW161420   4.631   4.488  12.619
19882SOL    HW261421   4.781   4.490  12.595
19883SOL     OW61422   4.830   3.457  13.610
19883SOL    HW161423   4.862   3.546  13.621
19883SOL    HW261424   4.747   3.456  13.658
19884SOL     OW61425   3.826  11.115   2.074
19884SOL    HW161426   3.847  11.022   2.087
19884SOL    HW261427   3.901  11.150   2.026
19885SOL     OW61428   9.266  11.303  13.835
19885SOL    HW161429   9.277  11.222  13.885
19885SOL    HW261430   9.353  11.343  13.835
19886SOL     OW61431   7.609  12.441   4.131
19886SOL    HW161432   7.569  12.360   4.163
19886SOL    HW261433   7.577  12.509   4.191
19887SOL     OW61434   4.339   8.788  12.920
19887SOL    HW161435   4.372   8.778  12.830
19887SOL    HW261436   4.405   8.841  12.964
19888SOL     OW61437   6.565   5.757  13.918
19888SOL    HW161438   6.481   5.778  13.877
19888SOL    HW261439   6.540   5.706  13.996
19889SOL     OW61440   8.958   8.672   1.831
19889SOL    HW161441   9.042   8.713   1.852
19889SOL    HW261442   8.910   8.740   1.784
19890SOL     OW61443  13.399   4.925   5.904
19890SOL    HW161444  13.320   4.971   5.931
19890SOL    HW261445  13.415   4.862   5.974
19891SOL     OW61446   5.070   1.669  11.346
19891SOL    HW161447   4.982   1.652  11.380
19891SOL    HW261448   5.126   1.669  11.424
19892SOL     OW61449   2.454   7.236   9.387
19892SOL    HW161450   2.479   7.149   9.419
19892SOL    HW261451   2.527   7.293   9.414
19893SOL     OW61452   3.873  12.673   2.735
19893SOL    HW161453   3.889  12.663   2.829
19893SOL    HW261454   3.814  12.748   2.728
19894SOL     OW61455  10.109  12.323   3.674
19894SOL    HW161456  10.058  12.338   3.594
19894SOL    HW261457  10.152  12.406   3.692
19895SOL     OW61458   7.057  12.758   7.333
19895SOL    HW161459   7.026  12.668   7.343
19895SOL    HW261460   7.003  12.793   7.262
19896SOL     OW61461   3.877   6.012   0.663
19896SOL    HW161462   3.910   5.925   0.642
19896SOL    HW261463   3.833   6.002   0.747
19897SOL     OW61464   6.506   1.590   0.598
19897SOL    HW161465   6.542   1.573   0.511
19897SOL    HW261466   6.481   1.682   0.596
19898SOL     OW61467  13.298   4.186  11.599
19898SOL    HW161468  13.215   4.157  11.561
19898SOL    HW261469  13.331   4.252  11.537
19899SOL     OW61470  11.102   4.243   0.720
19899SOL    HW161471  11.027   4.245   0.660
19899SOL    HW261472  11.173   4.284   0.671
19900SOL     OW61473  14.591  11.147   6.559
19900SOL    HW161474  14.582  11.056   6.587
19900SOL    HW261475  14.579  11.144   6.464
19901SOL     OW61476   1.432  10.210  10.653
19901SOL    HW161477   1.360  10.151  10.675
19901SOL    HW261478   1.511  10.158  10.668
19902SOL     OW61479   5.154  12.463   5.793
19902SOL    HW161480   5.184  12.497   5.877
19902SOL    HW261481   5.073  12.417   5.813
19903SOL     OW61482  11.946   1.907  11.295
19903SOL    HW161483  11.870   1.898  11.237
19903SOL    HW261484  11.915   1.877  11.380
19904SOL     OW61485  11.395   8.263   6.791
19904SOL    HW161486  11.346   8.195   6.745
19904SOL    HW261487  11.386   8.240   6.883
19905SOL     OW61488   4.060  12.923   9.390
19905SOL    HW161489   4.088  12.850   9.334
19905SOL    HW261490   4.103  13.000   9.352
19906SOL     OW61491   8.000  11.523   2.887
19906SOL    HW161492   8.042  11.585   2.827
19906SOL    HW261493   7.928  11.486   2.835
19907SOL     OW61494   8.379  13.335   0.594
19907SOL    HW161495   8.341  13.295   0.672
19907SOL    HW261496   8.306  13.340   0.532
19908SOL     OW61497   7.884  14.058   5.849
19908SOL    HW161498   7.811  13.999   5.831
19908SOL    HW261499   7.904  14.099   5.765
19909SOL     OW61500  14.791   6.451   2.092
19909SOL    HW161501   0.003   6.451   2.059
19909SOL    HW261502  14.794   6.504   2.171
19910SOL     OW61503   7.787   2.445   5.907
19910SOL    HW161504   7.811   2.444   6.000
19910SOL    HW261505   7.795   2.537   5.881
19911SOL     OW61506   7.768   7.844  12.355
19911SOL    HW161507   7.703   7.774  12.359
19911SOL    HW261508   7.851   7.802  12.376
19912SOL     OW61509   0.731  10.020   3.743
19912SOL    HW161510   0.812  10.052   3.782
19912SOL    HW261511   0.710  10.084   3.674
19913SOL     OW61512   0.636   2.223   3.411
19913SOL    HW161513   0.544   2.196   3.418
19913SOL    HW261514   0.639   2.308   3.454
19914SOL     OW61515   9.000  13.479   5.965
19914SOL    HW161516   9.008  13.386   5.985
19914SOL    HW261517   8.956  13.481   5.880
19915SOL     OW61518   8.066   3.807  10.395
19915SOL    HW161519   8.019   3.789  10.313
19915SOL    HW261520   8.128   3.735  10.404
19916SOL     OW61521   9.806   2.203  11.991
19916SOL    HW161522   9.772   2.229  12.077
19916SOL    HW261523   9.728   2.184  11.939
19917SOL     OW61524  13.640  14.536   0.746
19917SOL    HW161525  13.661  14.628   0.731
19917SOL    HW261526  13.665  14.520   0.837
19918SOL     OW61527   3.433  10.237   5.301
19918SOL    HW161528   3.441  10.142   5.310
19918SOL    HW261529   3.404  10.267   5.387
19919SOL     OW61530   8.292   1.172   4.508
19919SOL    HW161531   8.218   1.224   4.540
19919SOL    HW261532   8.353   1.237   4.474
19920SOL     OW61533   1.507   2.147  14.286
19920SOL    HW161534   1.554   2.095  14.351
19920SOL    HW261535   1.489   2.230  14.330
19921SOL     OW61536   2.340   8.786   1.387
19921SOL    HW161537   2.379   8.858   1.437
19921SOL    HW261538   2.246   8.796   1.401
19922SOL     OW61539   0.970   1.813   8.916
19922SOL    HW161540   1.032   1.783   8.982
19922SOL    HW261541   0.884   1.797   8.955
19923SOL     OW61542   0.867   9.742   6.713
19923SOL    HW161543   0.941   9.800   6.695
19923SOL    HW261544   0.885   9.707   6.800
19924SOL     OW61545   1.849   1.994  14.074
19924SOL    HW161546   1.798   1.984  13.993
19924SOL    HW261547   1.783   2.011  14.141
19925SOL     OW61548   3.487  13.181  11.994
19925SOL    HW161549   3.535  13.098  11.995
19925SOL    HW261550   3.427  13.176  12.068
19926SOL     OW61551   4.839  11.757  13.660
19926SOL    HW161552   4.850  11.755  13.565
19926SOL    HW261553   4.769  11.821  13.675
19927SOL     OW61554   1.017  10.998  14.410
19927SOL    HW161555   1.010  10.913  14.367
19927SOL    HW261556   0.977  10.985  14.496
19928SOL     OW61557   0.667   5.022   7.856
19928SOL    HW161558   0.691   5.008   7.764
19928SOL    HW261559   0.644   4.934   7.887
19929SOL     OW61560  10.280   1.102   3.913
19929SOL    HW161561  10.305   1.011   3.901
19929SOL    HW261562  10.268   1.112   4.007
19930SOL     OW61563  13.758   6.969   1.298
19930SOL    HW161564  13.813   6.905   1.343
19930SOL    HW261565  13.696   6.999   1.365
19931SOL     OW61566   1.508   3.052  12.933
19931SOL    HW161567   1.602   3.071  12.928
19931SOL    HW261568   1.468   3.112  12.871
19932SOL     OW61569   7.983   6.343   4.811
19932SOL    HW161570   7.960   6.287   4.737
19932SOL    HW261571   8.074   6.321   4.831
19933SOL     OW61572  14.146   7.786  14.452
19933SOL    HW161573  14.058   7.806  14.483
19933SOL    HW261574  14.162   7.849  14.383
19934SOL     OW61575  14.633   1.617  10.843
19934SOL    HW161576  14.631   1.705  10.883
19934SOL    HW261577  14.543   1.603  10.813
19935SOL     OW61578  14.837   6.278   8.673
19935SOL    HW161579  14.835   6.183   8.688
19935SOL    HW261580  14.766   6.293   8.611
19936SOL     OW61581   5.206  11.291   6.904
19936SOL    HW161582   5.158  11.227   6.851
19936SOL    HW261583   5.281  11.242   6.938
19937SOL     OW61584   7.728   6.216  14.850
19937SOL    HW161585   7.787   6.146  14.877
19937SOL    HW261586   7.710   6.198  14.758
19938SOL     OW61587   9.442   1.095   9.455
19938SOL    HW161588   9.414   1.062   9.541
19938SOL    HW261589   9.527   1.053   9.440
19939SOL     OW61590  10.661  12.657   3.442
19939SOL    HW161591  10.653  12.577   3.389
19939SOL    HW261592  10.596  12.646   3.511
19940SOL     OW61593  13.330   1.394   3.827
19940SOL    HW161594  13.410   1.406   3.877
19940SOL    HW261595  13.344   1.312   3.779
19941SOL     OW61596   7.017   3.832   9.782
19941SOL    HW161597   7.056   3.830   9.870
19941SOL    HW261598   7.048   3.915   9.744
19942SOL     OW61599   2.867  11.132   0.503
19942SOL    HW161600   2.887  11.209   0.449
19942SOL    HW261601   2.854  11.167   0.591
19943SOL     OW61602  10.623   7.824   5.780
19943SOL    HW161603  10.700   7.858   5.735
19943SOL    HW261604  10.549   7.871   5.741
19944SOL     OW61605   6.741  12.601   1.465
19944SOL    HW161606   6.779  12.539   1.403
19944SOL    HW261607   6.810  12.617   1.529
19945SOL     OW61608   3.149   2.493  11.814
19945SOL    HW161609   3.082   2.552  11.848
19945SOL    HW261610   3.107   2.407  11.814
19946SOL     OW61611  13.482   7.216   7.876
19946SOL    HW161612  13.505   7.284   7.812
19946SOL    HW261613  13.390   7.198   7.860
19947SOL     OW61614  10.951   5.073   2.034
19947SOL    HW161615  10.858   5.093   2.022
19947SOL    HW261616  10.981   5.135   2.101
19948SOL     OW61617   4.444   0.239   8.437
19948SOL    HW161618   4.355   0.220   8.407
19948SOL    HW261619   4.459   0.330   8.412
19949SOL     OW61620   3.220   6.263  13.135
19949SOL    HW161621   3.190   6.278  13.046
19949SOL    HW261622   3.153   6.304  13.190
19950SOL     OW61623   4.605   3.640  11.920
19950SOL    HW161624   4.580   3.580  11.849
19950SOL    HW261625   4.638   3.718  11.875
19951SOL     OW61626   2.235   1.604   9.261
19951SOL    HW161627   2.248   1.674   9.326
19951SOL    HW261628   2.309   1.612   9.202
19952SOL     OW61629   8.893   3.478   6.044
19952SOL    HW161630   8.899   3.569   6.071
19952SOL    HW261631   8.942   3.473   5.962
19953SOL     OW61632   3.053  11.920  11.222
19953SOL    HW161633   3.001  11.994  11.190
19953SOL    HW261634   2.991  11.848  11.230
19954SOL     OW61635  14.380   9.587  14.059
19954SOL    HW161636  14.313   9.527  14.027
19954SOL    HW261637  14.332   9.667  14.083
19955SOL     OW61638  12.120  13.289   6.743
19955SOL    HW161639  12.187  13.225   6.767
19955SOL    HW261640  12.113  13.347   6.819
19956SOL     OW61641  11.867   5.226   8.727
19956SOL    HW161642  11.919   5.306   8.734
19956SOL    HW261643  11.824   5.232   8.641
19957SOL     OW61644  13.502   5.184  11.943
19957SOL    HW161645  13.408   5.172  11.928
19957SOL    HW261646  13.519   5.275  11.917
19958SOL     OW61647  12.515   0.972   8.682
19958SOL    HW161648  12.577   0.959   8.610
19958SOL    HW261649  12.525   1.064   8.705
19959SOL     OW61650   8.561   2.218   5.453
19959SOL    HW161651   8.537   2.306   5.425
19959SOL    HW261652   8.593   2.175   5.373
19960SOL     OW61653  13.048   0.579   9.332
19960SOL    HW161654  13.103   0.654   9.352
19960SOL    HW261655  13.016   0.596   9.243
19961SOL     OW61656  11.072   7.145  10.984
19961SOL    HW161657  11.127   7.167  11.059
19961SOL    HW261658  10.983   7.160  11.014
19962SOL     OW61659   0.422  13.078   6.493
19962SOL    HW161660   0.356  13.025   6.449
19962SOL    HW261661   0.437  13.034   6.576
19963SOL     OW61662   7.338  11.396  13.937
19963SOL    HW161663   7.342  11.481  13.893
19963SOL    HW261664   7.430  11.370  13.948
19964SOL     OW61665   4.391  13.464   0.502
19964SOL    HW161666   4.360  13.475   0.592
19964SOL    HW261667   4.435  13.380   0.502
19965SOL     OW61668  13.947   6.557   8.072
19965SOL    HW161669  13.976   6.617   8.140
19965SOL    HW261670  13.856   6.582   8.056
19966SOL     OW61671   6.394   8.855  10.593
19966SOL    HW161672   6.329   8.821  10.532
19966SOL    HW261673   6.470   8.797  10.581
19967SOL     OW61674   3.109   2.469   2.247
19967SOL    HW161675   3.046   2.430   2.307
19967SOL    HW261676   3.158   2.531   2.301
19968SOL     OW61677  11.395   0.968   2.871
19968SOL    HW161678  11.384   0.927   2.785
19968SOL    HW261679  11.319   1.026   2.880
19969SOL     OW61680  14.304  12.046   4.385
19969SOL    HW161681  14.372  12.102   4.348
19969SOL    HW261682  14.269  12.096   4.459
19970SOL     OW61683   0.325   2.663  12.997
19970SOL    HW161684   0.420   2.656  13.000
19970SOL    HW261685   0.301   2.634  12.909
19971SOL     OW61686   6.516  10.032  13.612
19971SOL    HW161687   6.487   9.996  13.696
19971SOL    HW261688   6.600  10.074  13.631
19972SOL     OW61689  11.972   4.644   5.269
19972SOL    HW161690  11.900   4.662   5.329
19972SOL    HW261691  12.017   4.727   5.260
19973SOL     OW61692   7.768  10.806   2.658
19973SOL    HW161693   7.685  10.818   2.704
19973SOL    HW261694   7.776  10.885   2.603
19974SOL     OW61695  14.068   0.749   0.758
19974SOL    HW161696  14.146   0.793   0.791
19974SOL    HW261697  14.051   0.680   0.823
19975SOL     OW61698  14.562  12.175   7.980
19975SOL    HW161699  14.630  12.125   8.025
19975SOL    HW261700  14.544  12.124   7.900
19976SOL     OW61701   7.174   1.681   3.443
19976SOL    HW161702   7.114   1.612   3.470
19976SOL    HW261703   7.226   1.642   3.373
19977SOL     OW61704   4.957   5.636   0.372
19977SOL    HW161705   5.032   5.581   0.394
19977SOL    HW261706   4.995   5.712   0.328
19978SOL     OW61707  11.347  12.886   3.466
19978SOL    HW161708  11.304  12.847   3.542
19978SOL    HW261709  11.412  12.821   3.439
19979SOL     OW61710   1.516   6.545  13.154
19979SOL    HW161711   1.474   6.608  13.095
19979SOL    HW261712   1.593   6.515  13.105
19980SOL     OW61713  12.753   9.155   3.823
19980SOL    HW161714  12.673   9.167   3.772
19980SOL    HW261715  12.733   9.192   3.909
19981SOL     OW61716   3.618   3.459  11.842
19981SOL    HW161717   3.595   3.436  11.932
19981SOL    HW261718   3.592   3.550  11.833
19982SOL     OW61719   1.694   6.394   1.465
19982SOL    HW161720   1.620   6.338   1.492
19982SOL    HW261721   1.684   6.401   1.370
19983SOL     OW61722   9.550   6.511   4.048
19983SOL    HW161723   9.526   6.589   3.997
19983SOL    HW261724   9.621   6.471   3.998
19984SOL     OW61725  14.569  10.346   3.182
19984SOL    HW161726  14.488  10.390   3.208
19984SOL    HW261727  14.612  10.327   3.265
19985SOL     OW61728  11.267  11.575  11.552
19985SOL    HW161729  11.277  11.485  11.522
19985SOL    HW261730  11.233  11.622  11.477
19986SOL     OW61731   9.714  14.123   7.472
19986SOL    HW161732   9.683  14.140   7.383
19986SOL    HW261733   9.779  14.191   7.489
19987SOL     OW61734   6.828   8.263   9.004
19987SOL    HW161735   6.743   8.298   8.979
19987SOL    HW261736   6.861   8.221   8.924
19988SOL     OW61737   1.588   8.281   3.638
19988SOL    HW161738   1.669   8.308   3.681
19988SOL    HW261739   1.592   8.185   3.636
19989SOL     OW61740  13.693   8.596   6.888
19989SOL    HW161741  13.724   8.560   6.972
19989SOL    HW261742  13.608   8.634   6.909
19990SOL     OW61743   5.571   8.868   7.051
19990SOL    HW161744   5.543   8.942   7.105
19990SOL    HW261745   5.654   8.840   7.089
19991SOL     OW61746  13.940   3.902  13.262
19991SOL    HW161747  13.903   3.894  13.175
19991SOL    HW261748  14.034   3.890  13.249
19992SOL     OW61749   3.484   2.731   1.082
19992SOL    HW161750   3.486   2.636   1.081
19992SOL    HW261751   3.417   2.754   1.018
19993SOL     OW61752   7.744   3.508   2.632
19993SOL    HW161753   7.659   3.540   2.663
19993SOL    HW261754   7.779   3.580   2.579
19994SOL     OW61755  14.841   9.200   0.602
19994SOL    HW161756  14.866   9.112   0.576
19994SOL    HW261757  14.865   9.254   0.526
19995SOL     OW61758  12.920  14.083   2.646
19995SOL    HW161759  12.836  14.052   2.680
19995SOL    HW261760  12.982  14.066   2.718
19996SOL     OW61761  11.871  10.589   0.833
19996SOL    HW161762  11.933  10.655   0.862
19996SOL    HW261763  11.795  10.640   0.802
19997SOL     OW61764   9.863   3.865   0.690
19997SOL    HW161765   9.844   3.953   0.724
19997SOL    HW261766   9.915   3.881   0.611
19998SOL     OW61767   9.247   1.446  10.054
19998SOL    HW161768   9.325   1.480  10.098
19998SOL    HW261769   9.240   1.355  10.084
19999SOL     OW61770   2.213   9.692  10.527
19999SOL    HW161771   2.139   9.632  10.518
19999SOL    HW261772   2.285   9.636  10.557
20000SOL     OW61773   2.305   8.485   6.736
20000SOL    HW161774   2.344   8.438   6.662
20000SOL    HW261775   2.354   8.567   6.741
20001SOL     OW61776   0.004  13.000   8.511
20001SOL    HW161777   0.069  12.990   8.441
20001SOL    HW261778  14.804  13.036   8.467
20002SOL     OW61779   4.633   8.694   2.434
20002SOL    HW161780   4.668   8.631   2.371
20002SOL    HW261781   4.538   8.685   2.427
20003SOL     OW61782   9.010  11.640  12.429
20003SOL    HW161783   8.953  11.586  12.484
20003SOL    HW261784   8.951  11.699  12.383
20004SOL     OW61785  14.120   8.307   0.542
20004SOL    HW161786  14.040   8.359   0.537
20004SOL    HW261787  14.152   8.305   0.451
20005SOL     OW61788   9.724  12.389  13.915
20005SOL    HW161789   9.714  12.302  13.953
20005SOL    HW261790   9.636  12.412  13.884
20006SOL     OW61791   9.822   8.415   3.249
20006SOL    HW161792   9.804   8.329   3.288
20006SOL    HW261793   9.917   8.419   3.243
20007SOL     OW61794   7.366   3.107   5.764
20007SOL    HW161795   7.411   3.191   5.766
20007SOL    HW261796   7.342   3.090   5.855
20008SOL     OW61797   4.650   4.367   8.320
20008SOL    HW161798   4.636   4.451   8.363
20008SOL    HW261799   4.568   4.319   8.335
20009SOL     OW61800   3.713   9.248  13.898
20009SOL    HW161801   3.727   9.343  13.891
20009SOL    HW261802   3.777   9.218  13.961
20010SOL     OW61803  10.033  10.556  11.087
20010SOL    HW161804  10.063  10.531  11.174
20010SOL    HW261805   9.981  10.480  11.058
20011SOL     OW61806   2.249   2.213   5.525
20011SOL    HW161807   2.242   2.304   5.497
20011SOL    HW261808   2.340   2.189   5.508
20012SOL     OW61809   5.365   1.368   0.332
20012SOL    HW161810   5.285   1.401   0.290
20012SOL    HW261811   5.386   1.433   0.398
20013SOL     OW61812   7.259   8.098   6.783
20013SOL    HW161813   7.284   8.007   6.764
20013SOL    HW261814   7.264   8.142   6.698
20014SOL     OW61815  14.251   6.870  10.597
20014SOL    HW161816  14.185   6.923  10.641
20014SOL    HW261817  14.201   6.815  10.536
20015SOL     OW61818   4.012  10.859   9.901
20015SOL    HW161819   4.039  10.951   9.898
20015SOL    HW261820   3.933  10.859   9.956
20016SOL     OW61821   6.203   0.547  11.261
20016SOL    HW161822   6.116   0.565  11.224
20016SOL    HW261823   6.229   0.630  11.302
20017SOL     OW61824   7.441   2.450   7.594
20017SOL    HW161825   7.417   2.522   7.653
20017SOL    HW261826   7.366   2.391   7.596
20018SOL     OW61827   9.656   0.469   4.974
20018SOL    HW161828   9.628   0.423   5.053
20018SOL    HW261829   9.694   0.551   5.005
20019SOL     OW61830  10.710  12.405   3.352
20019SOL    HW161831  10.782  12.391   3.290
20019SOL    HW261832  10.741  12.366   3.434
20020SOL     OW61833   6.887   7.784   3.774
20020SOL    HW161834   6.947   7.831   3.715
20020SOL    HW261835   6.864   7.848   3.841
20021SOL     OW61836  14.064   8.161   1.941
20021SOL    HW161837  14.115   8.169   1.860
20021SOL    HW261838  14.041   8.251   1.964
20022SOL     OW61839   3.754  11.029   5.969
20022SOL    HW161840   3.806  11.064   6.041
20022SOL    HW261841   3.803  10.953   5.939
20023SOL     OW61842  12.763   3.743   4.242
20023SOL    HW161843  12.765   3.838   4.248
20023SOL    HW261844  12.688   3.724   4.185
20024SOL     OW61845   9.606  12.710  11.948
20024SOL    HW161846   9.588  12.656  12.025
20024SOL    HW261847   9.646  12.650  11.885
20025SOL     OW61848   1.833   9.296   0.071
20025SOL    HW161849   1.752   9.289   0.020
20025SOL    HW261850   1.804   9.316   0.159
20026SOL     OW61851  11.398   9.719   6.817
20026SOL    HW161852  11.403   9.721   6.912
20026SOL    HW261853  11.424   9.630   6.793
20027SOL     OW61854   1.613  11.311   2.547
20027SOL    HW161855   1.686  11.373   2.538
20027SOL    HW261856   1.649  11.227   2.521
20028SOL     OW61857   7.791   7.156  10.448
20028SOL    HW161858   7.834   7.227  10.496
20028SOL    HW261859   7.773   7.194  10.361
20029SOL     OW61860   3.641  11.792   0.173
20029SOL    HW161861   3.598  11.810   0.257
20029SOL    HW261862   3.709  11.859   0.166
20030SOL     OW61863   4.430   1.899  12.959
20030SOL    HW161864   4.523   1.879  12.971
20030SOL    HW261865   4.384   1.831  13.007
20031SOL     OW61866  12.562   3.412   2.030
20031SOL    HW161867  12.550   3.498   1.990
20031SOL    HW261868  12.652   3.389   2.011
20032SOL     OW61869   1.158   6.389   5.008
20032SOL    HW161870   1.191   6.445   4.938
20032SOL    HW261871   1.226   6.322   5.019
20033SOL     OW61872   5.192   7.358   8.112
20033SOL    HW161873   5.223   7.312   8.191
20033SOL    HW261874   5.272   7.372   8.061
20034SOL     OW61875  12.506  12.568   7.255
20034SOL    HW161876  12.593  12.541   7.283
20034SOL    HW261877  12.491  12.651   7.302
20035SOL     OW61878   8.233   8.901   5.027
20035SOL    HW161879   8.254   8.990   5.055
20035SOL    HW261880   8.144   8.906   4.992
20036SOL     OW61881   6.820  13.275   1.381
20036SOL    HW161882   6.873  13.264   1.460
20036SOL    HW261883   6.878  13.248   1.310
20037SOL     OW61884   0.835   2.192  14.522
20037SOL    HW161885   0.846   2.098  14.504
20037SOL    HW261886   0.889   2.208  14.600
20038SOL     OW61887   5.115   1.559   4.016
20038SOL    HW161888   5.051   1.582   3.949
20038SOL    HW261889   5.081   1.478   4.054
20039SOL     OW61890   1.739   8.624   9.107
20039SOL    HW161891   1.762   8.675   9.184
20039SOL    HW261892   1.751   8.684   9.034
20040SOL     OW61893   6.324   8.393   1.580
20040SOL    HW161894   6.235   8.395   1.616
20040SOL    HW261895   6.314   8.422   1.490
20041SOL     OW61896   7.751   2.846   2.458
20041SOL    HW161897   7.713   2.815   2.375
20041SOL    HW261898   7.676   2.877   2.508
20042SOL     OW61899   3.260   2.713   7.087
20042SOL    HW161900   3.323   2.692   7.019
20042SOL    HW261901   3.252   2.808   7.084
20043SOL     OW61902   2.762  11.990   7.678
20043SOL    HW161903   2.671  12.017   7.682
20043SOL    HW261904   2.783  11.965   7.768
20044SOL     OW61905   8.026   2.639  10.834
20044SOL    HW161906   8.074   2.608  10.758
20044SOL    HW261907   7.935   2.647  10.803
20045SOL     OW61908  13.283   7.181   9.398
20045SOL    HW161909  13.326   7.225   9.472
20045SOL    HW261910  13.191   7.203   9.407
20046SOL     OW61911   1.155   6.332  13.636
20046SOL    HW161912   1.155   6.299  13.727
20046SOL    HW261913   1.182   6.256  13.584
20047SOL     OW61914   3.408   3.139   0.208
20047SOL    HW161915   3.448   3.142   0.295
20047SOL    HW261916   3.414   3.228   0.175
20048SOL     OW61917   0.447   1.758  12.924
20048SOL    HW161918   0.436   1.776  13.018
20048SOL    HW261919   0.539   1.733  12.915
20049SOL     OW61920   7.022  10.646   1.320
20049SOL    HW161921   6.952  10.581   1.324
20049SOL    HW261922   6.992  10.717   1.376
20050SOL     OW61923   2.134  12.764   2.954
20050SOL    HW161924   2.157  12.761   3.046
20050SOL    HW261925   2.195  12.705   2.911
20051SOL     OW61926  11.909   9.326   0.245
20051SOL    HW161927  11.921   9.231   0.249
20051SOL    HW261928  11.867   9.348   0.328
20052SOL     OW61929   3.798  13.461  13.418
20052SOL    HW161930   3.710  13.442  13.453
20052SOL    HW261931   3.815  13.551  13.445
20053SOL     OW61932   6.919  10.245   7.534
20053SOL    HW161933   7.003  10.214   7.499
20053SOL    HW261934   6.853  10.199   7.483
20054SOL     OW61935   0.802   9.816  12.636
20054SOL    HW161936   0.890   9.781  12.624
20054SOL    HW261937   0.783   9.801  12.729
20055SOL     OW61938   4.885   8.924  11.097
20055SOL    HW161939   4.947   8.853  11.118
20055SOL    HW261940   4.824   8.884  11.035
20056SOL     OW61941   1.812   0.771  12.568
20056SOL    HW161942   1.730   0.779  12.519
20056SOL    HW261943   1.785   0.750  12.657
20057SOL     OW61944   5.188  13.651   4.566
20057SOL    HW161945   5.114  13.710   4.552
20057SOL    HW261946   5.224  13.679   4.650
20058SOL     OW61947   8.805   1.549   6.721
20058SOL    HW161948   8.843   1.540   6.808
20058SOL    HW261949   8.848   1.626   6.684
20059SOL     OW61950  10.630  10.117   2.791
20059SOL    HW161951  10.592  10.054   2.730
20059SOL    HW261952  10.557  10.143   2.847
20060SOL     OW61953   4.074   0.595   6.295
20060SOL    HW161954   3.997   0.649   6.317
20060SOL    HW261955   4.053   0.508   6.328
20061SOL     OW61956  11.865   3.728   0.658
20061SOL    HW161957  11.818   3.744   0.577
20061SOL    HW261958  11.806   3.760   0.727
20062SOL     OW61959   8.014   6.255   2.101
20062SOL    HW161960   7.951   6.325   2.121
20062SOL    HW261961   7.961   6.176   2.096
20063SOL     OW61962   7.823   7.631   6.418
20063SOL    HW161963   7.894   7.683   6.456
20063SOL    HW261964   7.836   7.637   6.324
20064SOL     OW61965   2.310   8.111  11.594
20064SOL    HW161966   2.326   8.200  11.562
20064SOL    HW261967   2.246   8.122  11.664
20065SOL     OW61968   2.846  12.044   3.885
20065SOL    HW161969   2.754  12.069   3.897
20065SOL    HW261970   2.879  12.105   3.819
20066SOL     OW61971   9.607   6.614   0.792
20066SOL    HW161972   9.697   6.588   0.812
20066SOL    HW261973   9.574   6.545   0.736
20067SOL     OW61974   3.621  13.533  10.810
20067SOL    HW161975   3.627  13.499  10.900
20067SOL    HW261976   3.548  13.485  10.771
20068SOL     OW61977   0.166  12.706   8.898
20068SOL    HW161978   0.121  12.777   8.945
20068SOL    HW261979   0.120  12.700   8.814
20069SOL     OW61980  12.470  10.853   8.834
20069SOL    HW161981  12.402  10.793   8.862
20069SOL    HW261982  12.444  10.938   8.870
20070SOL     OW61983  13.339   4.828   5.030
20070SOL    HW161984  13.354   4.913   5.073
20070SOL    HW261985  13.342   4.765   5.102
20071SOL     OW61986   6.769   1.423   2.286
20071SOL    HW161987   6.733   1.403   2.373
20071SOL    HW261988   6.772   1.519   2.283
20072SOL     OW61989   2.383  13.681   1.674
20072SOL    HW161990   2.473  13.658   1.700
20072SOL    HW261991   2.329  13.646   1.744
20073SOL     OW61992   9.272   9.063   1.204
20073SOL    HW161993   9.267   9.063   1.300
20073SOL    HW261994   9.280   8.970   1.181
20074SOL     OW61995  10.165  10.333   5.154
20074SOL    HW161996  10.207  10.254   5.120
20074SOL    HW261997  10.238  10.392   5.173
20075SOL     OW61998   1.696   0.746  14.552
20075SOL    HW161999   1.688   0.715  14.462
20075SOL    HW262000   1.612   0.724  14.592
20076SOL     OW62001   3.134   5.565   0.478
20076SOL    HW162002   3.103   5.476   0.494
20076SOL    HW262003   3.105   5.614   0.555
20077SOL     OW62004  12.021   7.752   3.582
20077SOL    HW162005  12.008   7.658   3.575
20077SOL    HW262006  12.047   7.766   3.673
20078SOL     OW62007  12.801   2.188   7.671
20078SOL    HW162008  12.764   2.168   7.757
20078SOL    HW262009  12.736   2.156   7.608
20079SOL     OW62010  13.021   5.383   3.664
20079SOL    HW162011  13.086   5.319   3.694
20079SOL    HW262012  12.973   5.408   3.743
20080SOL     OW62013  11.471   1.848   4.965
20080SOL    HW162014  11.517   1.867   5.047
20080SOL    HW262015  11.469   1.932   4.919
20081SOL     OW62016  13.091   0.577   9.647
20081SOL    HW162017  13.032   0.530   9.588
20081SOL    HW262018  13.032   0.622   9.708
20082SOL     OW62019   1.522   2.796   1.319
20082SOL    HW162020   1.453   2.841   1.367
20082SOL    HW262021   1.604   2.835   1.352
20083SOL     OW62022  13.836   9.340   3.358
20083SOL    HW162023  13.754   9.294   3.374
20083SOL    HW262024  13.875   9.351   3.445
20084SOL     OW62025   6.526   4.874   9.110
20084SOL    HW162026   6.453   4.828   9.152
20084SOL    HW262027   6.504   4.967   9.119
20085SOL     OW62028   7.510   9.690   1.778
20085SOL    HW162029   7.499   9.783   1.757
20085SOL    HW262030   7.427   9.665   1.819
20086SOL     OW62031  14.053   9.315  11.057
20086SOL    HW162032  13.967   9.356  11.051
20086SOL    HW262033  14.060   9.287  11.149
20087SOL     OW62034   7.573   1.667   1.678
20087SOL    HW162035   7.648   1.617   1.646
20087SOL    HW262036   7.569   1.647   1.771
20088SOL     OW62037  14.738   7.266   1.906
20088SOL    HW162038  14.715   7.358   1.898
20088SOL    HW262039  14.806   7.252   1.841
20089SOL     OW62040   8.035   7.695   7.171
20089SOL    HW162041   7.968   7.654   7.226
20089SOL    HW262042   8.109   7.709   7.230
20090SOL     OW62043   4.804  14.367   0.692
20090SOL    HW162044   4.796  14.415   0.774
20090SOL    HW262045   4.763  14.425   0.627
20091SOL     OW62046   8.148   0.790   1.653
20091SOL    HW162047   8.086   0.814   1.585
20091SOL    HW262048   8.115   0.707   1.688
20092SOL     OW62049   6.413  10.933   9.547
20092SOL    HW162050   6.405  10.943   9.642
20092SOL    HW262051   6.478  10.998   9.521
20093SOL     OW62052   8.419   6.009  13.154
20093SOL    HW162053   8.494   5.997  13.096
20093SOL    HW262054   8.380   5.922  13.161
20094SOL     OW62055   3.755   1.952   5.656
20094SOL    HW162056   3.681   1.967   5.597
20094SOL    HW262057   3.807   1.884   5.613
20095SOL     OW62058   7.318  10.648   2.721
20095SOL    HW162059   7.241  10.607   2.761
20095SOL    HW262060   7.342  10.717   2.783
20096SOL     OW62061   5.840  11.836   0.764
20096SOL    HW162062   5.851  11.847   0.859
20096SOL    HW262063   5.862  11.744   0.748
20097SOL     OW62064   9.241   1.407   4.440
20097SOL    HW162065   9.307   1.352   4.482
20097SOL    HW262066   9.256   1.396   4.346
20098SOL     OW62067  12.009  10.171  12.578
20098SOL    HW162068  12.031  10.138  12.492
20098SOL    HW262069  12.035  10.102  12.638
20099SOL     OW62070  10.258  10.156   1.047
20099SOL    HW162071  10.259  10.251   1.064
20099SOL    HW262072  10.166  10.132   1.058
20100SOL     OW62073   4.246   8.844   8.615
20100SOL    HW162074   4.217   8.789   8.687
20100SOL    HW262075   4.334   8.812   8.594
20101SOL     OW62076  11.611   4.256   0.312
20101SOL    HW162077  11.655   4.198   0.249
20101SOL    HW262078  11.522   4.264   0.279
20102SOL     OW62079  11.182   3.680   5.228
20102SOL    HW162080  11.236   3.601   5.234
20102SOL    HW262081  11.122   3.661   5.156
20103SOL     OW62082   9.224  11.964   5.715
20103SOL    HW162083   9.223  11.973   5.810
20103SOL    HW262084   9.136  11.991   5.688
20104SOL     OW62085   6.299  12.183  11.373
20104SOL    HW162086   6.310  12.251  11.306
20104SOL    HW262087   6.227  12.214  11.428
20105SOL     OW62088   1.558   9.844   8.643
20105SOL    HW162089   1.627   9.909   8.658
20105SOL    HW262090   1.587   9.766   8.690
20106SOL     OW62091   9.210  12.300   4.617
20106SOL    HW162092   9.214  12.204   4.618
20106SOL    HW262093   9.127  12.320   4.576
20107SOL     OW62094  11.097  14.488  12.755
20107SOL    HW162095  11.007  14.474  12.782
20107SOL    HW262096  11.091  14.514  12.663
20108SOL     OW62097  10.491  11.605   2.142
20108SOL    HW162098  10.462  11.514   2.154
20108SOL    HW262099  10.499  11.615   2.047
20109SOL     OW62100   7.529   6.672  12.334
20109SOL    HW162101   7.452   6.715  12.296
20109SOL    HW262102   7.603   6.710  12.286
20110SOL     OW62103  14.393   1.594   1.433
20110SOL    HW162104  14.404   1.677   1.479
20110SOL    HW262105  14.348   1.617   1.352
20111SOL     OW62106   7.707   6.997   8.234
20111SOL    HW162107   7.673   7.077   8.194
20111SOL    HW262108   7.705   6.932   8.163
20112SOL     OW62109   9.987   4.545  13.068
20112SOL    HW162110   9.984   4.630  13.024
20112SOL    HW262111  10.026   4.486  13.004
20113SOL     OW62112  10.626   4.717  11.593
20113SOL    HW162113  10.632   4.801  11.546
20113SOL    HW262114  10.628   4.651  11.524
20114SOL     OW62115  13.524   8.498  12.552
20114SOL    HW162116  13.556   8.450  12.628
20114SOL    HW262117  13.559   8.451  12.477
20115SOL     OW62118   8.583   8.114   5.038
20115SOL    HW162119   8.634   8.112   5.119
20115SOL    HW262120   8.553   8.024   5.026
20116SOL     OW62121   5.343  13.201   6.983
20116SOL    HW162122   5.267  13.145   6.969
20116SOL    HW262123   5.362  13.237   6.897
20117SOL     OW62124   9.374   0.338  12.706
20117SOL    HW162125   9.299   0.346  12.766
20117SOL    HW262126   9.334   0.335  12.619
20118SOL     OW62127   7.153   3.860  13.416
20118SOL    HW162128   7.098   3.840  13.492
20118SOL    HW262129   7.104   3.824  13.341
20119SOL     OW62130   2.891  12.643   2.894
20119SOL    HW162131   2.929  12.586   2.827
20119SOL    HW262132   2.798  12.644   2.875
20120SOL     OW62133   7.252   3.806   9.950
20120SOL    HW162134   7.310   3.880   9.933
20120SOL    HW262135   7.248   3.759   9.867
20121SOL     OW62136   1.923   7.745   7.147
20121SOL    HW162137   1.873   7.664   7.156
20121SOL    HW262138   2.009   7.717   7.116
20122SOL     OW62139   2.443   2.918   0.897
20122SOL    HW162140   2.526   2.897   0.854
20122SOL    HW262141   2.386   2.844   0.877
20123SOL     OW62142   4.331   1.967   2.311
20123SOL    HW162143   4.371   1.928   2.389
20123SOL    HW262144   4.358   1.909   2.240
20124SOL     OW62145   3.380  14.807   9.696
20124SOL    HW162146   3.386  14.812   9.601
20124SOL    HW262147   3.446  14.742   9.721
20125SOL     OW62148   2.315   5.395   3.736
20125SOL    HW162149   2.292   5.424   3.824
20125SOL    HW262150   2.346   5.475   3.692
20126SOL     OW62151   6.857   1.522   0.799
20126SOL    HW162152   6.791   1.465   0.759
20126SOL    HW262153   6.847   1.506   0.893
20127SOL     OW62154   6.970   4.015  11.566
20127SOL    HW162155   6.923   3.983  11.489
20127SOL    HW262156   6.910   4.001  11.639
20128SOL     OW62157   1.459  11.991   3.126
20128SOL    HW162158   1.419  12.011   3.210
20128SOL    HW262159   1.399  12.029   3.061
20129SOL     OW62160  11.357   6.326   2.767
20129SOL    HW162161  11.331   6.358   2.681
20129SOL    HW262162  11.305   6.378   2.828
20130SOL     OW62163   8.656   0.287   2.315
20130SOL    HW162164   8.659   0.230   2.239
20130SOL    HW262165   8.731   0.346   2.304
20131SOL     OW62166   9.181   8.935   5.378
20131SOL    HW162167   9.262   8.896   5.345
20131SOL    HW262168   9.111   8.881   5.339
20132SOL     OW62169   6.869   8.063   0.937
20132SOL    HW162170   6.885   7.994   1.002
20132SOL    HW262171   6.936   8.129   0.956
20133SOL     OW62172   2.317   0.797   3.012
20133SOL    HW162173   2.349   0.884   2.989
20133SOL    HW262174   2.360   0.738   2.951
20134SOL     OW62175   4.318  12.670  12.955
20134SOL    HW162176   4.350  12.616  13.028
20134SOL    HW262177   4.333  12.616  12.877
20135SOL     OW62178   9.571  11.623   0.767
20135SOL    HW162179   9.487  11.594   0.732
20135SOL    HW262180   9.559  11.619   0.862
20136SOL     OW62181   4.386  12.104  10.825
20136SOL    HW162182   4.474  12.071  10.807
20136SOL    HW262183   4.341  12.030  10.865
20137SOL     OW62184   2.152   1.238  12.784
20137SOL    HW162185   2.117   1.313  12.735
20137SOL    HW262186   2.133   1.162  12.729
20138SOL     OW62187   1.136   1.686   9.433
20138SOL    HW162188   1.178   1.685   9.519
20138SOL    HW262189   1.064   1.748   9.442
20139SOL     OW62190   8.936   9.396   3.476
20139SOL    HW162191   8.851   9.395   3.433
20139SOL    HW262192   8.932   9.324   3.539
20140SOL     OW62193   8.218   1.000   7.141
20140SOL    HW162194   8.296   0.986   7.194
20140SOL    HW262195   8.169   1.068   7.187
20141SOL     OW62196  13.398   2.140  12.555
20141SOL    HW162197  13.484   2.160  12.518
20141SOL    HW262198  13.406   2.162  12.648
20142SOL     OW62199   0.459  12.133  12.570
20142SOL    HW162200   0.540  12.145  12.619
20142SOL    HW262201   0.420  12.054  12.608
20143SOL     OW62202   8.600  12.744   6.469
20143SOL    HW162203   8.521  12.795   6.451
20143SOL    HW262204   8.600  12.734   6.565
20144SOL     OW62205  13.998   2.096   3.823
20144SOL    HW162206  13.969   2.186   3.841
20144SOL    HW262207  14.004   2.091   3.727
20145SOL     OW62208  12.350  12.369  14.854
20145SOL    HW162209  12.299  12.288  14.850
20145SOL    HW262210  12.288  12.436   0.004
20146SOL     OW62211   0.682  11.583  11.434
20146SOL    HW162212   0.725  11.565  11.350
20146SOL    HW262213   0.657  11.675  11.429
20147SOL     OW62214   0.481  11.906   7.241
20147SOL    HW162215   0.526  11.933   7.161
20147SOL    HW262216   0.396  11.874   7.211
20148SOL     OW62217  14.122   9.047  10.235
20148SOL    HW162218  14.191   8.981  10.240
20148SOL    HW262219  14.130   9.095  10.318
20149SOL     OW62220   5.009  10.152   4.852
20149SOL    HW162221   4.923  10.195   4.855
20149SOL    HW262222   4.988  10.058   4.858
20150SOL     OW62223   2.575   8.469   6.355
20150SOL    HW162224   2.585   8.459   6.449
20150SOL    HW262225   2.630   8.545   6.333
20151SOL     OW62226  13.181   7.945   0.487
20151SOL    HW162227  13.100   7.901   0.513
20151SOL    HW262228  13.240   7.874   0.461
20152SOL     OW62229   4.624   6.174  11.615
20152SOL    HW162230   4.550   6.115  11.626
20152SOL    HW262231   4.682   6.155  11.689
20153SOL     OW62232   7.921   4.268   3.833
20153SOL    HW162233   7.886   4.326   3.766
20153SOL    HW262234   7.991   4.319   3.875
20154SOL     OW62235   1.036   8.417  13.492
20154SOL    HW162236   1.068   8.356  13.559
20154SOL    HW262237   1.007   8.360  13.420
20155SOL     OW62238   2.932   1.149   5.191
20155SOL    HW162239   2.936   1.098   5.272
20155SOL    HW262240   2.842   1.181   5.188
20156SOL     OW62241   5.702   2.649   1.004
20156SOL    HW162242   5.633   2.590   1.035
20156SOL    HW262243   5.782   2.597   1.010
20157SOL     OW62244   6.025   8.452   4.566
20157SOL    HW162245   5.937   8.419   4.586
20157SOL    HW262246   6.071   8.377   4.528
20158SOL     OW62247   9.384   8.787  12.711
20158SOL    HW162248   9.403   8.799  12.619
20158SOL    HW262249   9.292   8.811  12.721
20159SOL     OW62250   1.085   1.206   1.295
20159SOL    HW162251   1.180   1.220   1.294
20159SOL    HW262252   1.075   1.115   1.266
20160SOL     OW62253   8.313   9.796   8.102
20160SOL    HW162254   8.230   9.761   8.071
20160SOL    HW262255   8.379   9.742   8.059
20161SOL     OW62256   9.375   3.077   0.736
20161SOL    HW162257   9.446   3.021   0.767
20161SOL    HW262258   9.376   3.152   0.796
20162SOL     OW62259   8.518   0.849  11.997
20162SOL    HW162260   8.481   0.871  11.912
20162SOL    HW262261   8.593   0.792  11.977
20163SOL     OW62262   6.789   9.029  10.572
20163SOL    HW162263   6.805   8.982  10.491
20163SOL    HW262264   6.733   9.102  10.547
20164SOL     OW62265   8.234   2.619  10.279
20164SOL    HW162266   8.314   2.591  10.324
20164SOL    HW262267   8.175   2.544  10.285
20165SOL     OW62268  13.481   8.867  14.209
20165SOL    HW162269  13.447   8.951  14.240
20165SOL    HW262270  13.451   8.804  14.276
20166SOL     OW62271   1.230   6.337   1.352
20166SOL    HW162272   1.155   6.342   1.293
20166SOL    HW262273   1.291   6.276   1.309
20167SOL     OW62274   7.572   4.182   3.760
20167SOL    HW162275   7.646   4.151   3.813
20167SOL    HW262276   7.598   4.165   3.670
20168SOL     OW62277   7.646  10.111   1.558
20168SOL    HW162278   7.693  10.194   1.550
20168SOL    HW262279   7.709  10.052   1.600
20169SOL     OW62280   0.356   2.804   9.620
20169SOL    HW162281   0.405   2.784   9.540
20169SOL    HW262282   0.300   2.727   9.634
20170SOL     OW62283  11.362  10.086   4.474
20170SOL    HW162284  11.454  10.108   4.491
20170SOL    HW262285  11.334  10.038   4.552
20171SOL     OW62286   0.023   2.335   1.559
20171SOL    HW162287   0.078   2.283   1.500
20171SOL    HW262288   0.020   2.284   1.640
20172SOL     OW62289  12.971   0.267   6.788
20172SOL    HW162290  12.918   0.341   6.757
20172SOL    HW262291  13.060   0.288   6.762
20173SOL     OW62292   2.111   4.116  12.697
20173SOL    HW162293   2.136   4.038  12.647
20173SOL    HW262294   2.186   4.133  12.754
20174SOL     OW62295  11.488   7.209   7.379
20174SOL    HW162296  11.532   7.169   7.453
20174SOL    HW262297  11.558   7.252   7.329
20175SOL     OW62298  13.136  10.994   3.069
20175SOL    HW162299  13.054  10.979   3.114
20175SOL    HW262300  13.145  10.920   3.009
20176SOL     OW62301   3.401  14.510   9.567
20176SOL    HW162302   3.428  14.426   9.530
20176SOL    HW262303   3.481  14.562   9.567
20177SOL     OW62304  14.267  12.685   5.389
20177SOL    HW162305  14.246  12.593   5.403
20177SOL    HW262306  14.195  12.718   5.335
20178SOL     OW62307  14.731   5.867  13.515
20178SOL    HW162308  14.754   5.834  13.601
20178SOL    HW262309  14.652   5.919  13.529
20179SOL     OW62310   1.803   0.213  11.533
20179SOL    HW162311   1.835   0.133  11.493
20179SOL    HW262312   1.839   0.213  11.622
20180SOL     OW62313   6.153  13.373   4.698
20180SOL    HW162314   6.133  13.280   4.688
20180SOL    HW262315   6.206  13.395   4.621
20181SOL     OW62316  12.438   0.936   7.440
20181SOL    HW162317  12.478   1.021   7.460
20181SOL    HW262318  12.410   0.943   7.349
20182SOL     OW62319  10.183   9.841   2.241
20182SOL    HW162320  10.244   9.873   2.175
20182SOL    HW262321  10.157   9.920   2.289
20183SOL     OW62322  10.913  10.296   8.470
20183SOL    HW162323  10.924  10.284   8.565
20183SOL    HW262324  10.987  10.351   8.445
20184SOL     OW62325   1.666   7.932   1.307
20184SOL    HW162326   1.677   7.994   1.235
20184SOL    HW262327   1.611   7.978   1.370
20185SOL     OW62328   3.150   0.498  11.922
20185SOL    HW162329   3.179   0.511  11.831
20185SOL    HW262330   3.158   0.585  11.961
20186SOL     OW62331  13.954  11.558  13.784
20186SOL    HW162332  14.040  11.589  13.809
20186SOL    HW262333  13.911  11.536  13.866
20187SOL     OW62334   5.323  13.015  12.233
20187SOL    HW162335   5.242  13.055  12.263
20187SOL    HW262336   5.380  13.014  12.310
20188SOL     OW62337  12.513   3.880   1.218
20188SOL    HW162338  12.594   3.866   1.268
20188SOL    HW262339  12.540   3.874   1.126
20189SOL     OW62340  14.576   2.858  14.541
20189SOL    HW162341  14.601   2.845  14.633
20189SOL    HW262342  14.657   2.842  14.492
20190SOL     OW62343   1.059   8.664  13.421
20190SOL    HW162344   0.981   8.717  13.402
20190SOL    HW262345   1.024   8.577  13.441
20191SOL     OW62346   7.275   0.899   2.707
20191SOL    HW162347   7.314   0.910   2.620
20191SOL    HW262348   7.321   0.963   2.762
20192SOL     OW62349   3.090  13.477   7.653
20192SOL    HW162350   3.001  13.513   7.647
20192SOL    HW262351   3.099  13.451   7.745
20193SOL     OW62352  12.171   4.194   9.095
20193SOL    HW162353  12.201   4.117   9.046
20193SOL    HW262354  12.103   4.233   9.040
20194SOL     OW62355   0.131  12.037   7.201
20194SOL    HW162356   0.076  12.037   7.279
20194SOL    HW262357   0.159  11.945   7.192
20195SOL     OW62358   2.075   9.855   1.999
20195SOL    HW162359   2.105   9.776   2.043
20195SOL    HW262360   2.129   9.859   1.920
20196SOL     OW62361  11.135  10.918  10.718
20196SOL    HW162362  11.094  10.837  10.687
20196SOL    HW262363  11.202  10.889  10.779
20197SOL     OW62364   6.322  12.761   0.250
20197SOL    HW162365   6.396  12.704   0.270
20197SOL    HW262366   6.250  12.701   0.230
20198SOL     OW62367  12.803  11.765  10.651
20198SOL    HW162368  12.715  11.751  10.617
20198SOL    HW262369  12.853  11.690  10.620
20199SOL     OW62370  12.274   8.756  13.991
20199SOL    HW162371  12.189   8.717  14.010
20199SOL    HW262372  12.304   8.711  13.912
20200SOL     OW62373   0.580   1.346  11.088
20200SOL    HW162374   0.607   1.438  11.083
20200SOL    HW262375   0.556   1.323  10.998
20201SOL     OW62376  12.380   2.958  13.836
20201SOL    HW162377  12.320   2.893  13.800
20201SOL    HW262378  12.392   2.931  13.928
20202SOL     OW62379   5.501   9.009   5.556
20202SOL    HW162380   5.423   9.012   5.502
20202SOL    HW262381   5.564   8.959   5.506
20203SOL     OW62382   2.286   4.389   1.722
20203SOL    HW162383   2.222   4.318   1.719
20203SOL    HW262384   2.260   4.440   1.799
20204SOL     OW62385   4.911   0.142   7.146
20204SOL    HW162386   4.839   0.102   7.194
20204SOL    HW262387   4.985   0.139   7.207
20205SOL     OW62388   3.359   2.404   7.457
20205SOL    HW162389   3.354   2.386   7.363
20205SOL    HW262390   3.381   2.497   7.462
20206SOL     OW62391   0.789  14.182   3.907
20206SOL    HW162392   0.698  14.212   3.913
20206SOL    HW262393   0.836  14.257   3.871
20207SOL     OW62394   6.127   5.000   8.473
20207SOL    HW162395   6.036   4.978   8.453
20207SOL    HW262396   6.122   5.084   8.518
20208SOL     OW62397   3.907  10.017   7.100
20208SOL    HW162398   3.958   9.956   7.153
20208SOL    HW262399   3.893  10.093   7.157
20209SOL     OW62400  13.733   5.629   5.618
20209SOL    HW162401  13.821   5.610   5.650
20209SOL    HW262402  13.711   5.554   5.562
20210SOL     OW62403  13.876   7.023   8.768
20210SOL    HW162404  13.796   7.042   8.816
20210SOL    HW262405  13.939   7.088   8.799
20211SOL     OW62406   6.369  10.656  12.644
20211SOL    HW162407   6.322  10.588  12.692
20211SOL    HW262408   6.330  10.738  12.674
20212SOL     OW62409  10.396  12.073  10.242
20212SOL    HW162410  10.382  11.996  10.187
20212SOL    HW262411  10.431  12.140  10.183
20213SOL     OW62412   2.948   6.142   3.978
20213SOL    HW162413   3.009   6.187   4.037
20213SOL    HW262414   2.913   6.212   3.923
20214SOL     OW62415   4.328   7.219   7.180
20214SOL    HW162416   4.301   7.208   7.272
20214SOL    HW262417   4.246   7.213   7.131
20215SOL     OW62418   8.590   6.258  12.452
20215SOL    HW162419   8.661   6.202  12.421
20215SOL    HW262420   8.592   6.249  12.547
20216SOL     OW62421   1.648   9.988   2.614
20216SOL    HW162422   1.728  10.005   2.664
20216SOL    HW262423   1.590  10.061   2.637
20217SOL     OW62424  14.331  11.731  13.662
20217SOL    HW162425  14.353  11.822  13.682
20217SOL    HW262426  14.242  11.719  13.696
20218SOL     OW62427  10.120   0.755   8.797
20218SOL    HW162428  10.055   0.802   8.745
20218SOL    HW262429  10.202   0.764   8.748
20219SOL     OW62430   8.405  13.579   9.647
20219SOL    HW162431   8.361  13.644   9.701
20219SOL    HW262432   8.498  13.596   9.660
20220SOL     OW62433  11.118   3.452  12.432
20220SOL    HW162434  11.110   3.539  12.472
20220SOL    HW262435  11.030   3.415  12.436
20221SOL     OW62436  14.834   1.729   1.639
20221SOL    HW162437  14.875   1.801   1.687
20221SOL    HW262438  14.831   1.759   1.548
20222SOL     OW62439   7.540   6.346   2.264
20222SOL    HW162440   7.626   6.375   2.295
20222SOL    HW262441   7.488   6.335   2.344
20223SOL     OW62442   7.285   9.090   1.080
20223SOL    HW162443   7.245   9.133   1.156
20223SOL    HW262444   7.379   9.109   1.089
20224SOL     OW62445   4.604   0.401  12.478
20224SOL    HW162446   4.687   0.436  12.446
20224SOL    HW262447   4.612   0.306  12.464
20225SOL     OW62448  14.256  10.776  11.347
20225SOL    HW162449  14.311  10.723  11.405
20225SOL    HW262450  14.173  10.729  11.343
20226SOL     OW62451   2.308   6.887   5.997
20226SOL    HW162452   2.314   6.835   5.917
20226SOL    HW262453   2.247   6.839   6.053
20227SOL     OW62454   5.378   5.698   5.535
20227SOL    HW162455   5.341   5.661   5.615
20227SOL    HW262456   5.305   5.743   5.493
20228SOL     OW62457   7.726   9.945  12.440
20228SOL    HW162458   7.668  10.008  12.483
20228SOL    HW262459   7.707   9.956  12.346
20229SOL     OW62460  13.022  11.408  12.283
20229SOL    HW162461  13.054  11.378  12.368
20229SOL    HW262462  12.994  11.328  12.238
20230SOL     OW62463   0.947  10.556   4.405
20230SOL    HW162464   0.868  10.572   4.457
20230SOL    HW262465   0.979  10.471   4.436
20231SOL     OW62466  13.437   6.313  11.863
20231SOL    HW162467  13.428   6.345  11.952
20231SOL    HW262468  13.437   6.392  11.809
20232SOL     OW62469   4.776  11.496   2.884
20232SOL    HW162470   4.730  11.455   2.958
20232SOL    HW262471   4.858  11.528   2.922
20233SOL     OW62472  14.173  12.407  10.679
20233SOL    HW162473  14.114  12.338  10.708
20233SOL    HW262474  14.124  12.488  10.691
20234SOL     OW62475  14.844   8.148   3.004
20234SOL    HW162476   0.052   8.157   3.046
20234SOL    HW262477  14.798   8.229   3.027
20235SOL     OW62478   0.470  12.206  13.577
20235SOL    HW162479   0.546  12.149  13.565
20235SOL    HW262480   0.490  12.284  13.525
20236SOL     OW62481   6.997  14.124   1.636
20236SOL    HW162482   7.031  14.206   1.671
20236SOL    HW262483   6.902  14.130   1.649
20237SOL     OW62484   3.937  12.201  14.458
20237SOL    HW162485   3.970  12.163  14.377
20237SOL    HW262486   4.013  12.240  14.499
20238SOL     OW62487   7.655   1.383  11.714
20238SOL    HW162488   7.745   1.377  11.683
20238SOL    HW262489   7.601   1.374  11.635
20239SOL     OW62490  12.721   5.729   6.888
20239SOL    HW162491  12.736   5.648   6.838
20239SOL    HW262492  12.728   5.702   6.979
20240SOL     OW62493  10.213  12.801   0.912
20240SOL    HW162494  10.294  12.761   0.881
20240SOL    HW262495  10.186  12.858   0.840
20241SOL     OW62496   1.376   6.356  12.388
20241SOL    HW162497   1.404   6.289  12.325
20241SOL    HW262498   1.316   6.310  12.447
20242SOL     OW62499  14.294  12.745   1.776
20242SOL    HW162500  14.216  12.694   1.797
20242SOL    HW262501  14.363  12.680   1.767
20243SOL     OW62502   0.579   8.588  10.958
20243SOL    HW162503   0.601   8.571  11.049
20243SOL    HW262504   0.513   8.522  10.937
20244SOL     OW62505   0.521   6.313   1.946
20244SOL    HW162506   0.449   6.265   1.986
20244SOL    HW262507   0.498   6.405   1.956
20245SOL     OW62508   9.847   1.378   6.641
20245SOL    HW162509   9.771   1.324   6.663
20245SOL    HW262510   9.810   1.464   6.620
20246SOL     OW62511   7.658  13.988  13.907
20246SOL    HW162512   7.609  13.921  13.954
20246SOL    HW262513   7.742  13.945  13.886
20247SOL     OW62514   1.109  11.320   7.663
20247SOL    HW162515   1.183  11.358   7.617
20247SOL    HW262516   1.129  11.333   7.756
20248SOL     OW62517  10.775   8.137   3.281
20248SOL    HW162518  10.737   8.185   3.208
20248SOL    HW262519  10.700   8.108   3.333
20249SOL     OW62520   8.512  11.008   5.316
20249SOL    HW162521   8.547  10.985   5.229
20249SOL    HW262522   8.472  10.928   5.347
20250SOL     OW62523  12.579   9.299   5.712
20250SOL    HW162524  12.560   9.206   5.728
20250SOL    HW262525  12.674   9.306   5.722
20251SOL     OW62526  13.146   7.851   5.001
20251SOL    HW162527  13.232   7.871   4.965
20251SOL    HW262528  13.086   7.905   4.949
20252SOL     OW62529   4.318   3.382  10.788
20252SOL    HW162530   4.268   3.382  10.707
20252SOL    HW262531   4.295   3.464  10.831
20253SOL     OW62532  13.298  14.642   4.374
20253SOL    HW162533  13.343  14.713   4.420
20253SOL    HW262534  13.205  14.665   4.379
20254SOL     OW62535   1.327  14.590   9.466
20254SOL    HW162536   1.321  14.538   9.546
20254SOL    HW262537   1.417  14.577   9.436
20255SOL     OW62538   2.591   7.319  13.253
20255SOL    HW162539   2.549   7.232  13.257
20255SOL    HW262540   2.646   7.315  13.174
20256SOL     OW62541   0.902  11.400  11.770
20256SOL    HW162542   0.845  11.335  11.728
20256SOL    HW262543   0.907  11.371  11.862
20257SOL     OW62544   7.860   9.555   7.324
20257SOL    HW162545   7.953   9.561   7.346
20257SOL    HW262546   7.842   9.634   7.272
20258SOL     OW62547   7.077   7.481   0.376
20258SOL    HW162548   7.058   7.573   0.393
20258SOL    HW262549   7.135   7.455   0.448
20259SOL     OW62550  12.112   4.208   7.090
20259SOL    HW162551  12.154   4.150   7.026
20259SOL    HW262552  12.020   4.208   7.064
20260SOL     OW62553  13.901  12.718   6.550
20260SOL    HW162554  13.821  12.749   6.591
20260SOL    HW262555  13.967  12.721   6.619
20261SOL     OW62556   5.541   1.895   4.720
20261SOL    HW162557   5.622   1.915   4.766
20261SOL    HW262558   5.553   1.933   4.633
20262SOL     OW62559  13.150  11.939   4.169
20262SOL    HW162560  13.088  11.922   4.240
20262SOL    HW262561  13.214  12.000   4.206
20263SOL     OW62562   2.519   3.891   8.056
20263SOL    HW162563   2.446   3.916   8.114
20263SOL    HW262564   2.573   3.970   8.052
20264SOL     OW62565  12.775   0.176  14.316
20264SOL    HW162566  12.860   0.183  14.359
20264SOL    HW262567  12.743   0.266  14.312
20265SOL     OW62568  11.286  11.188   5.945
20265SOL    HW162569  11.254  11.108   5.904
20265SOL    HW262570  11.362  11.214   5.892
20266SOL     OW62571   1.327   8.204   3.993
20266SOL    HW162572   1.239   8.243   3.987
20266SOL    HW262573   1.380   8.256   3.933
20267SOL     OW62574  11.512  12.793   0.248
20267SOL    HW162575  11.541  12.732   0.316
20267SOL    HW262576  11.579  12.786   0.180
20268SOL     OW62577  13.290   5.752   2.474
20268SOL    HW162578  13.222   5.684   2.472
20268SOL    HW262579  13.328   5.744   2.562
20269SOL     OW62580  12.692   9.051   5.885
20269SOL    HW162581  12.686   9.137   5.929
20269SOL    HW262582  12.780   9.020   5.905
20270SOL     OW62583   8.579  13.885  12.796
20270SOL    HW162584   8.550  13.798  12.820
20270SOL    HW262585   8.673  13.886  12.815
20271SOL     OW62586   4.351   4.565  12.577
20271SOL    HW162587   4.394   4.543  12.494
20271SOL    HW262588   4.278   4.621  12.552
20272SOL     OW62589   5.976  12.247  14.113
20272SOL    HW162590   6.067  12.262  14.086
20272SOL    HW262591   5.926  12.313  14.064
20273SOL     OW62592  12.303  11.022   4.562
20273SOL    HW162593  12.317  11.028   4.657
20273SOL    HW262594  12.294  10.929   4.545
20274SOL     OW62595   8.824   2.498  11.509
20274SOL    HW162596   8.761   2.474  11.441
20274SOL    HW262597   8.899   2.532  11.460
20275SOL     OW62598  14.600   6.635  12.059
20275SOL    HW162599  14.627   6.612  12.148
20275SOL    HW262600  14.638   6.722  12.045
20276SOL     OW62601   1.773   9.080   6.901
20276SOL    HW162602   1.755   8.986   6.910
20276SOL    HW262603   1.699   9.122   6.944
20277SOL     OW62604  14.543   8.481   1.042
20277SOL    HW162605  14.572   8.417   1.107
20277SOL    HW262606  14.497   8.548   1.093
20278SOL     OW62607  13.303  14.871   3.296
20278SOL    HW162608  13.268  14.851   3.384
20278SOL    HW262609  13.300  14.787   3.250
20279SOL     OW62610   0.260   8.376  14.211
20279SOL    HW162611   0.198   8.450  14.214
20279SOL    HW262612   0.216   8.306  14.260
20280SOL     OW62613  13.872  13.666   4.501
20280SOL    HW162614  13.897  13.581   4.537
20280SOL    HW262615  13.953  13.718   4.502
20281SOL     OW62616   7.253   9.300   8.254
20281SOL    HW162617   7.251   9.204   8.253
20281SOL    HW262618   7.345   9.322   8.240
20282SOL     OW62619  14.852   9.339  13.848
20282SOL    HW162620  14.818   9.250  13.856
20282SOL    HW262621  14.775   9.394  13.838
20283SOL     OW62622  10.378   0.637   9.957
20283SOL    HW162623  10.383   0.668  10.048
20283SOL    HW262624  10.363   0.717   9.906
20284SOL     OW62625   6.673   6.175   2.214
20284SOL    HW162626   6.651   6.180   2.307
20284SOL    HW262627   6.609   6.233   2.171
20285SOL     OW62628   2.212  13.750  13.703
20285SOL    HW162629   2.303  13.734  13.680
20285SOL    HW262630   2.202  13.714  13.791
20286SOL     OW62631  12.455   6.671   8.608
20286SOL    HW162632  12.516   6.676   8.681
20286SOL    HW262633  12.384   6.615   8.639
20287SOL     OW62634  14.533  14.667   9.400
20287SOL    HW162635  14.565  14.676   9.310
20287SOL    HW262636  14.506  14.575   9.406
20288SOL     OW62637   3.928   2.783   6.595
20288SOL    HW162638   3.954   2.753   6.508
20288SOL    HW262639   3.947   2.708   6.653
20289SOL     OW62640   4.951   9.887   4.511
20289SOL    HW162641   5.006   9.962   4.534
20289SOL    HW262642   4.900   9.917   4.436
20290SOL     OW62643  12.968   6.608  14.788
20290SOL    HW162644  12.922   6.525  14.778
20290SOL    HW262645  12.913   6.672  14.743
20291SOL     OW62646   7.391   6.755   6.036
20291SOL    HW162647   7.348   6.798   6.110
20291SOL    HW262648   7.414   6.668   6.068
20292SOL     OW62649   0.085   1.533  14.214
20292SOL    HW162650   0.092   1.558  14.306
20292SOL    HW262651  14.876   1.492  14.208
20293SOL     OW62652  11.922   1.203   9.017
20293SOL    HW162653  12.012   1.191   8.987
20293SOL    HW262654  11.873   1.133   8.974
20294SOL     OW62655   7.655  11.463   5.800
20294SOL    HW162656   7.690  11.385   5.757
20294SOL    HW262657   7.561  11.448   5.803
20295SOL     OW62658   2.561   0.997   0.556
20295SOL    HW162659   2.580   1.072   0.501
20295SOL    HW262660   2.604   1.017   0.639
20296SOL     OW62661  14.659  11.258   2.805
20296SOL    HW162662  14.715  11.312   2.861
20296SOL    HW262663  14.599  11.214   2.865
20297SOL     OW62664   8.792  14.060   9.340
20297SOL    HW162665   8.769  14.078   9.431
20297SOL    HW262666   8.707  14.051   9.295
20298SOL     OW62667   3.032  14.616   3.122
20298SOL    HW162668   3.056  14.688   3.181
20298SOL    HW262669   2.944  14.591   3.150
20299SOL     OW62670   2.875  10.939   7.812
20299SOL    HW162671   2.875  10.891   7.895
20299SOL    HW262672   2.847  10.874   7.748
20300SOL     OW62673   1.892   8.979   8.253
20300SOL    HW162674   1.960   9.047   8.256
20300SOL    HW262675   1.907   8.927   8.332
20301SOL     OW62676  10.566   8.713   3.855
20301SOL    HW162677  10.557   8.632   3.805
20301SOL    HW262678  10.525   8.695   3.939
20302SOL     OW62679   5.330  12.220  14.629
20302SOL    HW162680   5.290  12.246  14.546
20302SOL    HW262681   5.263  12.169  14.673
20303SOL     OW62682   2.001  12.830  13.415
20303SOL    HW162683   1.969  12.798  13.332
20303SOL    HW262684   2.037  12.917  13.395
20304SOL     OW62685   9.667   4.914   1.949
20304SOL    HW162686   9.748   4.907   1.900
20304SOL    HW262687   9.687   4.879   2.035
20305SOL     OW62688  12.892   6.773   5.581
20305SOL    HW162689  12.914   6.709   5.513
20305SOL    HW262690  12.904   6.725   5.663
20306SOL     OW62691   2.885  10.980  14.333
20306SOL    HW162692   2.820  10.967  14.402
20306SOL    HW262693   2.940  11.052  14.365
20307SOL     OW62694   5.904   5.771   0.427
20307SOL    HW162695   5.849   5.768   0.505
20307SOL    HW262696   5.921   5.679   0.406
20308SOL     OW62697   2.574  12.022  13.201
20308SOL    HW162698   2.580  11.929  13.176
20308SOL    HW262699   2.626  12.068  13.136
20309SOL     OW62700   7.874   7.602   4.363
20309SOL    HW162701   7.947   7.661   4.383
20309SOL    HW262702   7.835   7.637   4.283
20310SOL     OW62703   1.425   1.683  14.393
20310SOL    HW162704   1.385   1.744  14.455
20310SOL    HW262705   1.407   1.720  14.307
20311SOL     OW62706  10.898  13.855  14.617
20311SOL    HW162707  10.819  13.813  14.652
20311SOL    HW262708  10.927  13.914  14.687
20312SOL     OW62709  13.210   0.011   2.073
20312SOL    HW162710  13.297  14.851   2.061
20312SOL    HW262711  13.197   0.068   1.998
20313SOL     OW62712   4.900   4.237   0.426
20313SOL    HW162713   4.925   4.151   0.393
20313SOL    HW262714   4.883   4.223   0.519
20314SOL     OW62715  13.408  11.806   2.534
20314SOL    HW162716  13.431  11.720   2.569
20314SOL    HW262717  13.478  11.864   2.565
20315SOL     OW62718   2.902   7.018   8.465
20315SOL    HW162719   2.981   7.040   8.514
20315SOL    HW262720   2.830   7.048   8.521
20316SOL     OW62721   7.565   6.387  14.547
20316SOL    HW162722   7.475   6.373  14.516
20316SOL    HW262723   7.603   6.447  14.483
20317SOL     OW62724   3.591  12.994  11.242
20317SOL    HW162725   3.498  12.989  11.219
20317SOL    HW262726   3.601  12.930  11.313
20318SOL     OW62727  13.323   1.679   1.402
20318SOL    HW162728  13.370   1.712   1.478
20318SOL    HW262729  13.379   1.610   1.367
20319SOL     OW62730   2.318   9.342   3.370
20319SOL    HW162731   2.242   9.396   3.389
20319SOL    HW262732   2.282   9.262   3.331
20320SOL     OW62733  10.392  13.304  13.994
20320SOL    HW162734  10.356  13.266  14.075
20320SOL    HW262735  10.463  13.360  14.024
20321SOL     OW62736   6.886  11.892   2.006
20321SOL    HW162737   6.829  11.961   2.039
20321SOL    HW262738   6.957  11.887   2.069
20322SOL     OW62739  10.422   4.548   5.602
20322SOL    HW162740  10.452   4.457   5.608
20322SOL    HW262741  10.344   4.544   5.546
20323SOL     OW62742   3.310   6.526  11.815
20323SOL    HW162743   3.307   6.506  11.909
20323SOL    HW262744   3.397   6.498  11.788
20324SOL     OW62745   0.967   5.136   3.649
20324SOL    HW162746   0.898   5.160   3.711
20324SOL    HW262747   0.951   5.044   3.630
20325SOL     OW62748  12.095  14.506   4.754
20325SOL    HW162749  12.096  14.455   4.673
20325SOL    HW262750  12.015  14.478   4.799
20326SOL     OW62751  10.211   0.042   9.046
20326SOL    HW162752  10.233   0.006   9.132
20326SOL    HW262753  10.127   0.084   9.058
20327SOL     OW62754   5.834   7.699  13.551
20327SOL    HW162755   5.866   7.788  13.568
20327SOL    HW262756   5.762   7.687  13.613
20328SOL     OW62757   6.343   4.070   5.985
20328SOL    HW162758   6.390   4.037   6.061
20328SOL    HW262759   6.338   4.164   5.998
20329SOL     OW62760   7.344   9.321   8.956
20329SOL    HW162761   7.329   9.406   8.915
20329SOL    HW262762   7.272   9.267   8.925
20330SOL     OW62763   2.297  11.836   0.262
20330SOL    HW162764   2.368  11.875   0.313
20330SOL    HW262765   2.316  11.862   0.172
20331SOL     OW62766  14.322  12.764   3.913
20331SOL    HW162767  14.377  12.685   3.919
20331SOL    HW262768  14.293  12.780   4.003
20332SOL     OW62769   0.152   8.664  10.815
20332SOL    HW162770   0.093   8.733  10.784
20332SOL    HW262771   0.185   8.624  10.735
20333SOL     OW62772  14.375  11.889   1.010
20333SOL    HW162773  14.397  11.849   0.925
20333SOL    HW262774  14.320  11.824   1.053
20334SOL     OW62775  13.904   3.433   6.232
20334SOL    HW162776  13.979   3.415   6.290
20334SOL    HW262777  13.858   3.506   6.275
20335SOL     OW62778  14.368   9.798   8.755
20335SOL    HW162779  14.450   9.836   8.724
20335SOL    HW262780  14.351   9.841   8.838
20336SOL     OW62781   7.145   6.236   1.275
20336SOL    HW162782   7.198   6.264   1.200
20336SOL    HW262783   7.063   6.207   1.236
20337SOL     OW62784   1.850   5.261  10.279
20337SOL    HW162785   1.814   5.347  10.298
20337SOL    HW262786   1.775   5.212  10.244
20338SOL     OW62787   9.949  11.811   7.352
20338SOL    HW162788  10.044  11.798   7.350
20338SOL    HW262789   9.931  11.849   7.438
20339SOL     OW62790   8.574   7.663   0.474
20339SOL    HW162791   8.640   7.594   0.485
20339SOL    HW262792   8.499   7.618   0.435
20340SOL     OW62793   5.301  14.678   8.802
20340SOL    HW162794   5.281  14.662   8.710
20340SOL    HW262795   5.394  14.698   8.804
20341SOL     OW62796  11.565  10.577  13.211
20341SOL    HW162797  11.582  10.497  13.161
20341SOL    HW262798  11.516  10.548  13.287
20342SOL     OW62799   6.920  14.775   9.794
20342SOL    HW162800   6.927  14.772   9.698
20342SOL    HW262801   6.988  14.714   9.824
20343SOL     OW62802   6.180   2.421  11.286
20343SOL    HW162803   6.264   2.434  11.242
20343SOL    HW262804   6.151   2.510  11.309
20344SOL     OW62805   9.439   4.681   0.656
20344SOL    HW162806   9.462   4.729   0.736
20344SOL    HW262807   9.522   4.671   0.610
20345SOL     OW62808   7.799  14.675   5.151
20345SOL    HW162809   7.787  14.737   5.079
20345SOL    HW262810   7.894  14.665   5.159
20346SOL     OW62811  12.937   5.320  11.172
20346SOL    HW162812  13.010   5.339  11.113
20346SOL    HW262813  12.972   5.336  11.260
20347SOL     OW62814   7.053   1.209  14.315
20347SOL    HW162815   6.995   1.220  14.240
20347SOL    HW262816   7.007   1.145  14.371
20348SOL     OW62817   5.305   3.403  13.005
20348SOL    HW162818   5.387   3.357  12.989
20348SOL    HW262819   5.253   3.342  13.059
20349SOL     OW62820   5.195   8.287  13.421
20349SOL    HW162821   5.242   8.207  13.442
20349SOL    HW262822   5.105   8.270  13.448
20350SOL     OW62823   9.071   1.883  10.148
20350SOL    HW162824   9.052   1.792  10.171
20350SOL    HW262825   9.155   1.879  10.102
20351SOL     OW62826  10.551   8.161   7.647
20351SOL    HW162827  10.492   8.104   7.597
20351SOL    HW262828  10.576   8.109   7.723
20352SOL     OW62829   1.662  10.993   6.900
20352SOL    HW162830   1.714  10.950   6.968
20352SOL    HW262831   1.630  10.922   6.845
20353SOL     OW62832  14.610   2.859   4.022
20353SOL    HW162833  14.519   2.830   4.019
20353SOL    HW262834  14.656   2.791   4.072
20354SOL     OW62835  11.735   1.500   9.467
20354SOL    HW162836  11.671   1.548   9.415
20354SOL    HW262837  11.685   1.464   9.540
20355SOL     OW62838   0.856   6.375   5.933
20355SOL    HW162839   0.802   6.344   6.006
20355SOL    HW262840   0.938   6.326   5.942
20356SOL     OW62841  12.064   8.794  14.670
20356SOL    HW162842  12.102   8.854  14.606
20356SOL    HW262843  12.136   8.774  14.730
20357SOL     OW62844   2.659   0.287  14.455
20357SOL    HW162845   2.734   0.263  14.510
20357SOL    HW262846   2.698   0.332  14.380
20358SOL     OW62847   2.078  14.643  12.825
20358SOL    HW162848   2.157  14.695  12.842
20358SOL    HW262849   2.093  14.605  12.738
20359SOL     OW62850  11.813   2.891  11.363
20359SOL    HW162851  11.830   2.804  11.329
20359SOL    HW262852  11.719   2.905  11.349
20360SOL     OW62853  13.851   4.596   6.305
20360SOL    HW162854  13.838   4.548   6.387
20360SOL    HW262855  13.767   4.589   6.260
20361SOL     OW62856   5.560   3.454   5.540
20361SOL    HW162857   5.652   3.465   5.519
20361SOL    HW262858   5.524   3.543   5.540
20362SOL     OW62859  12.523   2.936   4.147
20362SOL    HW162860  12.506   2.842   4.149
20362SOL    HW262861  12.470   2.971   4.218
20363SOL     OW62862   7.416   0.589  10.434
20363SOL    HW162863   7.507   0.617  10.446
20363SOL    HW262864   7.390   0.630  10.351
20364SOL     OW62865   3.828   3.422  10.443
20364SOL    HW162866   3.840   3.335  10.481
20364SOL    HW262867   3.737   3.445  10.464
20365SOL     OW62868   8.792   9.405  13.013
20365SOL    HW162869   8.798   9.499  12.993
20365SOL    HW262870   8.775   9.401  13.107
20366SOL     OW62871   9.273   8.894  13.836
20366SOL    HW162872   9.225   8.970  13.803
20366SOL    HW262873   9.240   8.820  13.784
20367SOL     OW62874  13.994   4.838  13.911
20367SOL    HW162875  14.064   4.775  13.926
20367SOL    HW262876  14.039   4.920  13.892
20368SOL     OW62877   9.716   8.542   5.404
20368SOL    HW162878   9.746   8.594   5.329
20368SOL    HW262879   9.621   8.553   5.405
20369SOL     OW62880  13.443  13.954  12.142
20369SOL    HW162881  13.482  13.948  12.229
20369SOL    HW262882  13.475  13.877  12.096
20370SOL     OW62883   4.395  12.466   9.220
20370SOL    HW162884   4.462  12.413   9.176
20370SOL    HW262885   4.340  12.499   9.148
20371SOL     OW62886  11.621  10.082   2.728
20371SOL    HW162887  11.583  10.034   2.802
20371SOL    HW262888  11.569  10.053   2.653
20372SOL     OW62889   8.490   3.173   4.210
20372SOL    HW162890   8.400   3.195   4.187
20372SOL    HW262891   8.508   3.092   4.164
20373SOL     OW62892   0.445   3.427   9.521
20373SOL    HW162893   0.409   3.502   9.473
20373SOL    HW262894   0.535   3.421   9.490
20374SOL     OW62895   4.830   5.977  14.606
20374SOL    HW162896   4.738   5.969  14.582
20374SOL    HW262897   4.832   6.050  14.668
20375SOL     OW62898   2.663   3.643   7.058
20375SOL    HW162899   2.582   3.606   7.094
20375SOL    HW262900   2.723   3.569   7.055
20376SOL     OW62901   6.441  11.619  10.687
20376SOL    HW162902   6.515  11.661  10.643
20376SOL    HW262903   6.440  11.530  10.651
20377SOL     OW62904   1.642   7.306   8.344
20377SOL    HW162905   1.667   7.372   8.409
20377SOL    HW262906   1.648   7.353   8.260
20378SOL     OW62907  10.181   4.854  13.091
20378SOL    HW162908  10.170   4.817  13.003
20378SOL    HW262909  10.095   4.889  13.113
20379SOL     OW62910   8.107  13.950   5.904
20379SOL    HW162911   8.142  13.934   5.816
20379SOL    HW262912   8.030  14.005   5.890
20380SOL     OW62913   4.254   3.774   2.795
20380SOL    HW162914   4.313   3.772   2.871
20380SOL    HW262915   4.168   3.754   2.831
20381SOL     OW62916   7.457  13.540   3.768
20381SOL    HW162917   7.486  13.449   3.767
20381SOL    HW262918   7.488  13.574   3.852
20382SOL     OW62919  12.935   1.133   8.778
20382SOL    HW162920  12.857   1.155   8.726
20382SOL    HW262921  12.905   1.137   8.869
20383SOL     OW62922   8.320  14.347   9.918
20383SOL    HW162923   8.325  14.313  10.007
20383SOL    HW262924   8.388  14.299   9.870
20384SOL     OW62925  14.309   9.075   2.232
20384SOL    HW162926  14.353   9.125   2.164
20384SOL    HW262927  14.298   9.137   2.304
20385SOL     OW62928   9.911   9.771   2.814
20385SOL    HW162929   9.916   9.703   2.881
20385SOL    HW262930   9.833   9.749   2.763
20386SOL     OW62931   0.198   3.069  10.048
20386SOL    HW162932   0.153   2.985  10.041
20386SOL    HW262933   0.274   3.059   9.990
20387SOL     OW62934  12.650   4.681  10.117
20387SOL    HW162935  12.603   4.645  10.042
20387SOL    HW262936  12.640   4.614  10.185
20388SOL     OW62937   1.440  11.620  10.944
20388SOL    HW162938   1.510  11.616  10.879
20388SOL    HW262939   1.395  11.536  10.935
20389SOL     OW62940  10.390   4.916  14.234
20389SOL    HW162941  10.408   4.836  14.285
20389SOL    HW262942  10.331   4.887  14.165
20390SOL     OW62943  12.874   4.615  11.689
20390SOL    HW162944  12.822   4.584  11.763
20390SOL    HW262945  12.918   4.537  11.656
20391SOL     OW62946   5.756   2.999   1.853
20391SOL    HW162947   5.771   3.090   1.880
20391SOL    HW262948   5.844   2.965   1.834
20392SOL     OW62949   4.242   0.157   0.458
20392SOL    HW162950   4.274   0.110   0.535
20392SOL    HW262951   4.156   0.118   0.441
20393SOL     OW62952   9.685   6.768  13.789
20393SOL    HW162953   9.601   6.812  13.780
20393SOL    HW262954   9.683   6.697  13.725
20394SOL     OW62955   6.002   9.232   6.759
20394SOL    HW162956   6.001   9.249   6.853
20394SOL    HW262957   6.017   9.138   6.751
20395SOL     OW62958   1.799   1.718   6.095
20395SOL    HW162959   1.814   1.690   6.186
20395SOL    HW262960   1.733   1.787   6.103
20396SOL     OW62961   8.989   3.188   8.024
20396SOL    HW162962   8.969   3.216   8.113
20396SOL    HW262963   9.063   3.128   8.033
20397SOL     OW62964   4.044   9.032   3.983
20397SOL    HW162965   4.024   8.998   3.896
20397SOL    HW262966   4.069   8.954   4.034
20398SOL     OW62967  12.050   9.347   5.644
20398SOL    HW162968  12.015   9.412   5.583
20398SOL    HW262969  12.014   9.264   5.613
20399SOL     OW62970  14.336   3.575   1.410
20399SOL    HW162971  14.247   3.560   1.442
20399SOL    HW262972  14.351   3.503   1.348
20400SOL     OW62973  14.616  11.364   4.089
20400SOL    HW162974  14.621  11.403   4.002
20400SOL    HW262975  14.524  11.344   4.102
20401SOL     OW62976   2.212   8.362  10.364
20401SOL    HW162977   2.199   8.421  10.290
20401SOL    HW262978   2.197   8.416  10.441
20402SOL     OW62979  12.956   5.073   4.413
20402SOL    HW162980  13.016   5.076   4.488
20402SOL    HW262981  13.005   5.114   4.342
20403SOL     OW62982   0.985  10.590  10.530
20403SOL    HW162983   1.076  10.605  10.505
20403SOL    HW262984   0.981  10.614  10.623
20404SOL     OW62985   1.391   0.040   5.482
20404SOL    HW162986   1.372   0.089   5.402
20404SOL    HW262987   1.386   0.106   5.552
20405SOL     OW62988  12.080   9.542   9.420
20405SOL    HW162989  12.074   9.579   9.508
20405SOL    HW262990  12.133   9.605   9.371
20406SOL     OW62991   9.537   1.392   1.729
20406SOL    HW162992   9.593   1.355   1.661
20406SOL    HW262993   9.464   1.432   1.681
20407SOL     OW62994  11.090  11.417  11.257
20407SOL    HW162995  11.159  11.356  11.284
20407SOL    HW262996  11.129  11.504  11.267
20408SOL     OW62997   4.552   9.302   6.090
20408SOL    HW162998   4.535   9.214   6.056
20408SOL    HW262999   4.647   9.308   6.093
20409SOL     OW63000   6.694   8.896   3.024
20409SOL    HW163001   6.705   8.977   2.973
20409SOL    HW263002   6.772   8.893   3.080
20410SOL     OW63003   7.869   9.130   5.245
20410SOL    HW163004   7.789   9.114   5.195
20410SOL    HW263005   7.838   9.168   5.328
20411SOL     OW63006   6.149   8.725   6.768
20411SOL    HW163007   6.145   8.633   6.741
20411SOL    HW263008   6.229   8.730   6.821
20412SOL     OW63009   2.604  13.435   0.062
20412SOL    HW163010   2.695  13.441   0.091
20412SOL    HW263011   2.572  13.354   0.101
20413SOL     OW63012  10.629   4.417   4.530
20413SOL    HW163013  10.712   4.465   4.533
20413SOL    HW263014  10.639   4.348   4.596
20414SOL     OW63015   9.595   9.246   1.098
20414SOL    HW163016   9.632   9.172   1.146
20414SOL    HW263017   9.667   9.280   1.046
20415SOL     OW63018   3.004   6.466   8.545
20415SOL    HW163019   3.056   6.386   8.542
20415SOL    HW263020   2.917   6.440   8.516
20416SOL     OW63021   6.584   1.823   2.546
20416SOL    HW163022   6.564   1.765   2.472
20416SOL    HW263023   6.506   1.876   2.557
20417SOL     OW63024   4.107  10.839   3.187
20417SOL    HW163025   4.117  10.934   3.179
20417SOL    HW263026   4.168  10.803   3.123
20418SOL     OW63027   9.259  11.212   1.984
20418SOL    HW163028   9.251  11.168   2.069
20418SOL    HW263029   9.210  11.156   1.924
20419SOL     OW63030   9.552   0.365   3.760
20419SOL    HW163031   9.530   0.292   3.819
20419SOL    HW263032   9.549   0.326   3.673
20420SOL     OW63033   9.573  10.228   8.520
20420SOL    HW163034   9.636  10.165   8.558
20420SOL    HW263035   9.488  10.188   8.536
20421SOL     OW63036   3.845   1.021  13.026
20421SOL    HW163037   3.859   0.995  12.935
20421SOL    HW263038   3.772   1.082  13.023
20422SOL     OW63039   7.147   5.059   9.766
20422SOL    HW163040   7.116   4.968   9.771
20422SOL    HW263041   7.070   5.109   9.740
20423SOL     OW63042   6.683   8.268  10.561
20423SOL    HW163043   6.753   8.224  10.512
20423SOL    HW263044   6.649   8.334  10.501
20424SOL     OW63045   0.490   9.197   9.913
20424SOL    HW163046   0.498   9.215  10.007
20424SOL    HW263047   0.417   9.136   9.906
20425SOL     OW63048   1.707  11.594   2.532
20425SOL    HW163049   1.623  11.579   2.575
20425SOL    HW263050   1.685  11.611   2.440
20426SOL     OW63051   6.184   0.305   9.309
20426SOL    HW163052   6.251   0.312   9.241
20426SOL    HW263053   6.226   0.341   9.387
20427SOL     OW63054  13.180   2.240  10.538
20427SOL    HW163055  13.162   2.245  10.444
20427SOL    HW263056  13.109   2.288  10.579
20428SOL     OW63057   8.092   5.698  13.989
20428SOL    HW163058   8.092   5.794  13.982
20428SOL    HW263059   8.111   5.667  13.901
20429SOL     OW63060  12.539   7.197   9.912
20429SOL    HW163061  12.583   7.126   9.959
20429SOL    HW263062  12.478   7.152   9.853
20430SOL     OW63063   4.382  14.739   2.280
20430SOL    HW163064   4.353  14.808   2.220
20430SOL    HW263065   4.355  14.770   2.366
20431SOL     OW63066   8.255   6.427  14.371
20431SOL    HW163067   8.166   6.457  14.353
20431SOL    HW263068   8.302   6.505  14.399
20432SOL     OW63069  14.047   9.684  13.059
20432SOL    HW163070  13.995   9.605  13.077
20432SOL    HW263071  14.024   9.744  13.130
20433SOL     OW63072   2.211   2.358  10.400
20433SOL    HW163073   2.197   2.335  10.492
20433SOL    HW263074   2.170   2.287  10.351
20434SOL     OW63075   1.539   0.817   6.515
20434SOL    HW163076   1.588   0.745   6.477
20434SOL    HW263077   1.605   0.884   6.533
20435SOL     OW63078   7.977   3.954  14.877
20435SOL    HW163079   7.969   3.910   0.085
20435SOL    HW263080   7.943   4.042   0.016
20436SOL     OW63081   2.324  12.715   3.142
20436SOL    HW163082   2.309  12.620   3.139
20436SOL    HW263083   2.407  12.724   3.188
20437SOL     OW63084   5.269  14.100  11.773
20437SOL    HW163085   5.290  14.159  11.701
20437SOL    HW263086   5.244  14.018  11.731
20438SOL     OW63087  14.699  13.454   7.520
20438SOL    HW163088  14.657  13.462   7.434
20438SOL    HW263089  14.788  13.426   7.501
20439SOL     OW63090   7.100  11.262   8.045
20439SOL    HW163091   7.129  11.200   7.978
20439SOL    HW263092   7.005  11.267   8.033
20440SOL     OW63093   1.081   9.284  11.030
20440SOL    HW163094   1.078   9.216  11.098
20440SOL    HW263095   0.995   9.325  11.034
20441SOL     OW63096  12.861   1.144   2.292
20441SOL    HW163097  12.926   1.077   2.311
20441SOL    HW263098  12.854   1.195   2.373
20442SOL     OW63099   9.710  11.314   0.576
20442SOL    HW163100   9.755  11.335   0.658
20442SOL    HW263101   9.698  11.219   0.579
20443SOL     OW63102   6.465  12.545   8.240
20443SOL    HW163103   6.503  12.470   8.194
20443SOL    HW263104   6.433  12.508   8.323
20444SOL     OW63105  10.498   2.930  10.668
20444SOL    HW163106  10.562   2.988  10.708
20444SOL    HW263107  10.528   2.841  10.690
20445SOL     OW63108  11.976   9.265   7.183
20445SOL    HW163109  11.888   9.240   7.154
20445SOL    HW263110  12.029   9.264   7.103
20446SOL     OW63111   4.571  13.552   4.196
20446SOL    HW163112   4.534  13.562   4.108
20446SOL    HW263113   4.540  13.629   4.244
20447SOL     OW63114   7.307   5.121   3.529
20447SOL    HW163115   7.390   5.147   3.488
20447SOL    HW263116   7.257   5.080   3.458
20448SOL     OW63117  13.818  11.925   7.948
20448SOL    HW163118  13.887  11.975   7.991
20448SOL    HW263119  13.761  11.897   8.020
20449SOL     OW63120  11.097  11.860   5.014
20449SOL    HW163121  11.040  11.793   4.977
20449SOL    HW263122  11.121  11.827   5.101
20450SOL     OW63123  14.196  13.240  11.283
20450SOL    HW163124  14.164  13.205  11.366
20450SOL    HW263125  14.142  13.318  11.268
20451SOL     OW63126   2.725   3.460   1.496
20451SOL    HW163127   2.696   3.545   1.462
20451SOL    HW263128   2.721   3.402   1.420
20452SOL     OW63129   6.112  14.312   7.163
20452SOL    HW163130   6.042  14.376   7.151
20452SOL    HW263131   6.075  14.230   7.131
20453SOL     OW63132   8.833  12.772   8.229
20453SOL    HW163133   8.843  12.779   8.324
20453SOL    HW263134   8.883  12.845   8.194
20454SOL     OW63135   7.883  14.015   0.862
20454SOL    HW163136   7.912  14.034   0.951
20454SOL    HW263137   7.933  13.938   0.836
20455SOL     OW63138  10.101   5.640   0.501
20455SOL    HW163139  10.157   5.643   0.424
20455SOL    HW263140  10.013   5.653   0.466
20456SOL     OW63141  12.580   8.105   3.448
20456SOL    HW163142  12.513   8.067   3.391
20456SOL    HW263143  12.569   8.060   3.532
20457SOL     OW63144   6.364   8.495  11.041
20457SOL    HW163145   6.410   8.471  11.122
20457SOL    HW263146   6.295   8.428  11.033
20458SOL     OW63147   9.309   2.509  13.194
20458SOL    HW163148   9.321   2.590  13.244
20458SOL    HW263149   9.233   2.467  13.235
20459SOL     OW63150  11.829  13.965   4.846
20459SOL    HW163151  11.857  14.005   4.763
20459SOL    HW263152  11.909  13.954   4.896
20460SOL     OW63153  14.687   6.795   8.655
20460SOL    HW163154  14.711   6.826   8.742
20460SOL    HW263155  14.678   6.700   8.665
20461SOL     OW63156   8.650   2.308   3.903
20461SOL    HW163157   8.662   2.273   3.814
20461SOL    HW263158   8.657   2.231   3.960
20462SOL     OW63159  12.309  13.016   0.533
20462SOL    HW163160  12.267  12.995   0.450
20462SOL    HW263161  12.237  13.032   0.594
20463SOL     OW63162  12.692  11.311   1.636
20463SOL    HW163163  12.630  11.259   1.688
20463SOL    HW263164  12.726  11.250   1.571
20464SOL     OW63165  12.144  13.091  13.919
20464SOL    HW163166  12.202  13.078  13.994
20464SOL    HW263167  12.201  13.079  13.843
20465SOL     OW63168  10.401   9.511   5.064
20465SOL    HW163169  10.337   9.496   4.994
20465SOL    HW263170  10.356   9.567   5.127
20466SOL     OW63171   5.094  10.490   7.933
20466SOL    HW163172   5.060  10.548   8.001
20466SOL    HW263173   5.035  10.415   7.934
20467SOL     OW63174  14.877   8.236   1.664
20467SOL    HW163175  14.786   8.264   1.649
20467SOL    HW263176   0.043   8.256   1.581
20468SOL     OW63177   1.097   6.047   2.839
20468SOL    HW163178   1.187   6.051   2.806
20468SOL    HW263179   1.060   6.133   2.820
20469SOL     OW63180  12.614   7.528   0.142
20469SOL    HW163181  12.539   7.525   0.201
20469SOL    HW263182  12.586   7.481   0.064
20470SOL     OW63183  14.163   9.247  14.478
20470SOL    HW163184  14.161   9.199  14.396
20470SOL    HW263185  14.073   9.246  14.510
20471SOL     OW63186   1.221   5.526   4.124
20471SOL    HW163187   1.313   5.516   4.098
20471SOL    HW263188   1.220   5.605   4.179
20472SOL     OW63189   6.144  13.440   9.940
20472SOL    HW163190   6.180  13.503  10.003
20472SOL    HW263191   6.215  13.427   9.877
20473SOL     OW63192  10.885   7.620   3.239
20473SOL    HW163193  10.941   7.694   3.214
20473SOL    HW263194  10.945   7.556   3.277
20474SOL     OW63195  13.902   9.303  11.295
20474SOL    HW163196  13.830   9.282  11.356
20474SOL    HW263197  13.883   9.393  11.267
20475SOL     OW63198  11.891   6.193   9.093
20475SOL    HW163199  11.953   6.251   9.050
20475SOL    HW263200  11.897   6.216   9.186
20476SOL     OW63201   4.824   1.670  11.477
20476SOL    HW163202   4.838   1.758  11.511
20476SOL    HW263203   4.755   1.681  11.411
20477SOL     OW63204  13.505  14.121   4.944
20477SOL    HW163205  13.409  14.123   4.950
20477SOL    HW263206  13.535  14.146   5.031
20478SOL     OW63207   3.875   5.251   4.178
20478SOL    HW163208   3.959   5.295   4.164
20478SOL    HW263209   3.857   5.264   4.271
20479SOL     OW63210   1.190   7.011  10.156
20479SOL    HW163211   1.224   7.032  10.243
20479SOL    HW263212   1.173   7.097  10.116
20480SOL     OW63213  11.711   5.507  12.010
20480SOL    HW163214  11.806   5.517  12.014
20480SOL    HW263215  11.691   5.493  11.918
20481SOL     OW63216   8.268   3.002   8.734
20481SOL    HW163217   8.244   3.083   8.779
20481SOL    HW263218   8.314   3.031   8.655
20482SOL     OW63219   7.607  12.074  13.069
20482SOL    HW163220   7.583  12.103  13.157
20482SOL    HW263221   7.528  12.033  13.034
20483SOL     OW63222   5.135  14.313  12.392
20483SOL    HW163223   5.111  14.341  12.303
20483SOL    HW263224   5.195  14.240  12.378
20484SOL     OW63225  12.671   1.548   2.565
20484SOL    HW163226  12.593   1.543   2.509
20484SOL    HW263227  12.648   1.615   2.630
20485SOL     OW63228   6.933  12.150   2.370
20485SOL    HW163229   6.967  12.238   2.382
20485SOL    HW263230   6.922  12.116   2.459
20486SOL     OW63231  11.157  13.783  11.981
20486SOL    HW163232  11.146  13.714  11.916
20486SOL    HW263233  11.233  13.833  11.950
20487SOL     OW63234   4.244  10.921   3.419
20487SOL    HW163235   4.316  10.964   3.372
20487SOL    HW263236   4.201  10.868   3.352
20488SOL     OW63237  10.301  10.054   3.477
20488SOL    HW163238  10.297  10.051   3.381
20488SOL    HW263239  10.345  10.136   3.496
20489SOL     OW63240   0.205   5.431   8.072
20489SOL    HW163241   0.286   5.404   8.115
20489SOL    HW263242   0.142   5.361   8.093
20490SOL     OW63243   8.946  10.420   5.877
20490SOL    HW163244   8.966  10.469   5.957
20490SOL    HW263245   8.919  10.334   5.909
20491SOL     OW63246   5.199   3.121   4.947
20491SOL    HW163247   5.287   3.152   4.970
20491SOL    HW263248   5.191   3.140   4.853
20492SOL     OW63249   9.456   7.863  11.563
20492SOL    HW163250   9.362   7.878  11.552
20492SOL    HW263251   9.497   7.945  11.536
20493SOL     OW63252   5.613   9.332  10.312
20493SOL    HW163253   5.609   9.426  10.327
20493SOL    HW263254   5.557   9.318  10.235
20494SOL     OW63255   9.054  10.288   5.659
20494SOL    HW163256   9.038  10.367   5.608
20494SOL    HW263257   9.052  10.318   5.750
20495SOL     OW63258   5.605  11.904   7.584
20495SOL    HW163259   5.664  11.933   7.514
20495SOL    HW263260   5.663  11.865   7.649
20496SOL     OW63261   5.908  12.200  14.362
20496SOL    HW163262   5.972  12.260  14.401
20496SOL    HW263263   5.899  12.229  14.272
20497SOL     OW63264  13.009  14.168  11.871
20497SOL    HW163265  13.084  14.112  11.891
20497SOL    HW263266  13.021  14.244  11.927
20498SOL     OW63267  11.556  12.874   7.548
20498SOL    HW163268  11.486  12.909   7.494
20498SOL    HW263269  11.622  12.844   7.485
20499SOL     OW63270   5.453   3.028   5.890
20499SOL    HW163271   5.497   3.086   5.828
20499SOL    HW263272   5.379   3.079   5.923
20500SOL     OW63273   2.396   0.132  10.535
20500SOL    HW163274   2.347   0.213  10.526
20500SOL    HW263275   2.477   0.147  10.487
20501SOL     OW63276   4.248  11.701   3.880
20501SOL    HW163277   4.199  11.638   3.827
20501SOL    HW263278   4.220  11.685   3.970
20502SOL     OW63279   7.170   9.499   4.587
20502SOL    HW163280   7.251   9.462   4.622
20502SOL    HW263281   7.197   9.539   4.504
20503SOL     OW63282   6.185  11.801   5.354
20503SOL    HW163283   6.266  11.834   5.315
20503SOL    HW263284   6.122  11.804   5.283
20504SOL     OW63285   4.580   6.426   5.160
20504SOL    HW163286   4.517   6.383   5.102
20504SOL    HW263287   4.552   6.517   5.162
20505SOL     OW63288   4.913   5.355   4.732
20505SOL    HW163289   4.997   5.309   4.722
20505SOL    HW263290   4.852   5.303   4.679
20506SOL     OW63291   6.378   3.838   3.522
20506SOL    HW163292   6.287   3.847   3.550
20506SOL    HW263293   6.376   3.859   3.428
20507SOL     OW63294  13.557  13.027   3.986
20507SOL    HW163295  13.627  13.092   3.996
20507SOL    HW263296  13.514  13.024   4.071
20508SOL     OW63297   0.053   7.325   8.179
20508SOL    HW163298   0.055   7.244   8.231
20508SOL    HW263299   0.091   7.392   8.237
20509SOL     OW63300  13.720   1.413   7.484
20509SOL    HW163301  13.684   1.421   7.573
20509SOL    HW263302  13.809   1.447   7.491
20510SOL     OW63303   0.798   6.077   1.170
20510SOL    HW163304   0.867   6.143   1.159
20510SOL    HW263305   0.747   6.082   1.089
20511SOL     OW63306   0.558  11.971   6.994
20511SOL    HW163307   0.504  12.050   6.993
20511SOL    HW263308   0.535  11.925   6.913
20512SOL     OW63309   4.435   7.707   1.878
20512SOL    HW163310   4.462   7.663   1.797
20512SOL    HW263311   4.471   7.795   1.871
20513SOL     OW63312   1.861  12.235   0.395
20513SOL    HW163313   1.946  12.274   0.411
20513SOL    HW263314   1.800  12.309   0.391
20514SOL     OW63315  10.763  13.298  10.510
20514SOL    HW163316  10.771  13.392  10.494
20514SOL    HW263317  10.775  13.257  10.424
20515SOL     OW63318   9.693   9.789  11.816
20515SOL    HW163319   9.627   9.800  11.884
20515SOL    HW263320   9.729   9.876  11.801
20516SOL     OW63321   9.740   0.342  10.152
20516SOL    HW163322   9.667   0.298  10.197
20516SOL    HW263323   9.759   0.418  10.206
20517SOL     OW63324   0.969   4.814  10.760
20517SOL    HW163325   1.061   4.832  10.780
20517SOL    HW263326   0.946   4.878  10.693
20518SOL     OW63327  10.031   1.509   9.649
20518SOL    HW163328   9.991   1.584   9.605
20518SOL    HW263329  10.084   1.548   9.719
20519SOL     OW63330   9.957   9.961   3.199
20519SOL    HW163331  10.046   9.942   3.227
20519SOL    HW263332   9.902   9.907   3.256
20520SOL     OW63333  14.067   7.476   6.756
20520SOL    HW163334  13.985   7.525   6.752
20520SOL    HW263335  14.051   7.397   6.704
20521SOL     OW63336   3.844  11.129   4.736
20521SOL    HW163337   3.907  11.057   4.730
20521SOL    HW263338   3.898  11.208   4.734
20522SOL     OW63339  11.754   1.543  12.074
20522SOL    HW163340  11.760   1.638  12.085
20522SOL    HW263341  11.842   1.517  12.048
20523SOL     OW63342  14.416   7.786   1.805
20523SOL    HW163343  14.328   7.771   1.841
20523SOL    HW263344  14.401   7.846   1.732
20524SOL     OW63345   1.437   6.089  14.732
20524SOL    HW163346   1.477   6.075  14.818
20524SOL    HW263347   1.380   6.013  14.720
20525SOL     OW63348  11.339   4.405  11.202
20525SOL    HW163349  11.264   4.353  11.174
20525SOL    HW263350  11.415   4.353  11.176
20526SOL     OW63351   1.607  13.144   4.998
20526SOL    HW163352   1.689  13.129   5.046
20526SOL    HW263353   1.559  13.206   5.052
20527SOL     OW63354   8.347   1.634  12.775
20527SOL    HW163355   8.300   1.551  12.771
20527SOL    HW263356   8.328   1.667  12.863
20528SOL     OW63357  14.560  11.121  13.110
20528SOL    HW163358  14.586  11.179  13.038
20528SOL    HW263359  14.617  11.146  13.183
20529SOL     OW63360   6.469   8.744   4.729
20529SOL    HW163361   6.493   8.659   4.765
20529SOL    HW263362   6.465   8.731   4.635
20530SOL     OW63363   8.607   7.934   0.463
20530SOL    HW163364   8.685   7.896   0.421
20530SOL    HW263365   8.572   7.864   0.517
20531SOL     OW63366  10.027   1.434  12.392
20531SOL    HW163367  10.116   1.424  12.358
20531SOL    HW263368  10.029   1.388  12.477
20532SOL     OW63369  10.056   6.674  11.410
20532SOL    HW163370   9.994   6.618  11.456
20532SOL    HW263371  10.083   6.622  11.334
20533SOL     OW63372   1.183   6.206   6.252
20533SOL    HW163373   1.214   6.253   6.175
20533SOL    HW263374   1.262   6.164   6.288
20534SOL     OW63375   7.501   3.252  14.702
20534SOL    HW163376   7.597   3.258  14.702
20534SOL    HW263377   7.475   3.292  14.619
20535SOL     OW63378  11.593   7.382   4.784
20535SOL    HW163379  11.621   7.302   4.739
20535SOL    HW263380  11.533   7.351   4.853
20536SOL     OW63381   9.981   7.852  10.079
20536SOL    HW163382   9.893   7.815  10.076
20536SOL    HW263383   9.987   7.904   9.998
20537SOL     OW63384   8.136   2.412  13.364
20537SOL    HW163385   8.146   2.504  13.387
20537SOL    HW263386   8.197   2.366  13.423
20538SOL     OW63387   8.632   8.501   2.006
20538SOL    HW163388   8.671   8.448   2.076
20538SOL    HW263389   8.632   8.444   1.929
20539SOL     OW63390   4.167   9.815   0.399
20539SOL    HW163391   4.146   9.782   0.487
20539SOL    HW263392   4.221   9.893   0.415
20540SOL     OW63393  13.831   9.241   7.949
20540SOL    HW163394  13.878   9.158   7.940
20540SOL    HW263395  13.854   9.290   7.870
20541SOL     OW63396  11.778   7.450   6.620
20541SOL    HW163397  11.754   7.373   6.569
20541SOL    HW263398  11.867   7.471   6.590
20542SOL     OW63399   5.514  10.532  10.245
20542SOL    HW163400   5.422  10.538  10.269
20542SOL    HW263401   5.531  10.612  10.195
20543SOL     OW63402  12.155   7.741  12.775
20543SOL    HW163403  12.215   7.815  12.773
20543SOL    HW263404  12.209   7.666  12.751
20544SOL     OW63405   6.159   7.991   3.644
20544SOL    HW163406   6.192   7.944   3.721
20544SOL    HW263407   6.167   7.929   3.572
20545SOL     OW63408  12.709   9.898  14.088
20545SOL    HW163409  12.774   9.916  14.020
20545SOL    HW263410  12.653   9.975  14.089
20546SOL     OW63411  12.541  13.411   0.431
20546SOL    HW163412  12.455  13.452   0.437
20546SOL    HW263413  12.530  13.325   0.471
20547SOL     OW63414   6.545  13.474   8.732
20547SOL    HW163415   6.615  13.460   8.669
20547SOL    HW263416   6.578  13.541   8.791
20548SOL     OW63417   9.501   3.594  11.927
20548SOL    HW163418   9.407   3.609  11.927
20548SOL    HW263419   9.533   3.637  12.006
20549SOL     OW63420   6.067   3.762   4.852
20549SOL    HW163421   6.138   3.714   4.894
20549SOL    HW263422   6.103   3.787   4.767
20550SOL     OW63423   0.617  10.834  10.556
20550SOL    HW163424   0.566  10.792  10.487
20550SOL    HW263425   0.584  10.923  10.561
20551SOL     OW63426  11.751   3.044  13.950
20551SOL    HW163427  11.729   2.969  13.895
20551SOL    HW263428  11.790   3.007  14.029
20552SOL     OW63429  11.528  14.056   8.941
20552SOL    HW163430  11.501  14.077   8.852
20552SOL    HW263431  11.615  14.018   8.932
20553SOL     OW63432   8.131   4.243   0.420
20553SOL    HW163433   8.078   4.307   0.373
20553SOL    HW263434   8.143   4.282   0.507
20554SOL     OW63435   7.446   8.921   0.580
20554SOL    HW163436   7.462   8.963   0.495
20554SOL    HW263437   7.351   8.909   0.583
20555SOL     OW63438   4.694   7.180   7.280
20555SOL    HW163439   4.683   7.105   7.339
20555SOL    HW263440   4.747   7.145   7.207
20556SOL     OW63441  10.993   6.516   0.144
20556SOL    HW163442  10.898   6.510   0.133
20556SOL    HW263443  11.005   6.586   0.208
20557SOL     OW63444   6.560   7.172   1.481
20557SOL    HW163445   6.611   7.149   1.559
20557SOL    HW263446   6.470   7.149   1.504
20558SOL     OW63447   3.687   6.182   8.887
20558SOL    HW163448   3.617   6.193   8.951
20558SOL    HW263449   3.688   6.264   8.838
20559SOL     OW63450  12.893  11.012   9.341
20559SOL    HW163451  12.942  11.070   9.399
20559SOL    HW263452  12.941  11.014   9.259
20560SOL     OW63453   7.806   2.170   6.885
20560SOL    HW163454   7.822   2.264   6.882
20560SOL    HW263455   7.891   2.130   6.865
20561SOL     OW63456  14.133  10.644  10.974
20561SOL    HW163457  14.213  10.627  11.022
20561SOL    HW263458  14.078  10.567  10.990
20562SOL     OW63459   9.934  11.485   9.842
20562SOL    HW163460   9.934  11.447   9.754
20562SOL    HW263461   9.844  11.474   9.873
20563SOL     OW63462   4.646  11.044  13.841
20563SOL    HW163463   4.574  11.106  13.833
20563SOL    HW263464   4.717  11.095  13.881
20564SOL     OW63465   9.684  12.591  12.490
20564SOL    HW163466   9.681  12.595  12.585
20564SOL    HW263467   9.628  12.664  12.462
20565SOL     OW63468   1.873  10.588  13.025
20565SOL    HW163469   1.816  10.649  12.979
20565SOL    HW263470   1.961  10.625  13.015
20566SOL     OW63471   7.487   2.908  12.986
20566SOL    HW163472   7.457   2.999  12.994
20566SOL    HW263473   7.429   2.869  12.921
20567SOL     OW63474   8.193  13.327  13.457
20567SOL    HW163475   8.182  13.242  13.415
20567SOL    HW263476   8.104  13.361  13.466
20568SOL     OW63477  14.748   3.546   6.950
20568SOL    HW163478  14.685   3.498   6.897
20568SOL    HW263479  14.766   3.487   7.024
20569SOL     OW63480   5.107  13.073  13.279
20569SOL    HW163481   5.070  13.033  13.201
20569SOL    HW263482   5.171  13.136  13.246
20570SOL     OW63483   8.536  14.028   5.718
20570SOL    HW163484   8.614  14.044   5.771
20570SOL    HW263485   8.463  14.060   5.772
20571SOL     OW63486  10.613  14.186   4.804
20571SOL    HW163487  10.626  14.185   4.899
20571SOL    HW263488  10.546  14.119   4.789
20572SOL     OW63489   2.788  13.845   0.593
20572SOL    HW163490   2.877  13.877   0.605
20572SOL    HW263491   2.747  13.910   0.536
20573SOL     OW63492  10.525   2.742   7.173
20573SOL    HW163493  10.505   2.775   7.085
20573SOL    HW263494  10.617   2.764   7.186
20574SOL     OW63495   1.067  14.424  11.179
20574SOL    HW163496   0.990  14.410  11.234
20574SOL    HW263497   1.071  14.347  11.123
20575SOL     OW63498   3.223   3.482  12.921
20575SOL    HW163499   3.132   3.501  12.897
20575SOL    HW263500   3.217   3.409  12.983
20576SOL     OW63501   7.517   7.648  14.578
20576SOL    HW163502   7.568   7.721  14.612
20576SOL    HW263503   7.501   7.670  14.486
20577SOL     OW63504   3.715  14.025   1.380
20577SOL    HW163505   3.742  13.983   1.461
20577SOL    HW263506   3.774  14.099   1.370
20578SOL     OW63507  12.795   6.325  10.781
20578SOL    HW163508  12.777   6.261  10.713
20578SOL    HW263509  12.875   6.369  10.753
20579SOL     OW63510   7.901   7.011   0.753
20579SOL    HW163511   7.981   7.031   0.802
20579SOL    HW263512   7.882   6.920   0.774
20580SOL     OW63513   1.510  10.988   1.658
20580SOL    HW163514   1.557  10.968   1.577
20580SOL    HW263515   1.553  11.066   1.693
20581SOL     OW63516   8.876   2.750  10.957
20581SOL    HW163517   8.960   2.795  10.942
20581SOL    HW263518   8.857   2.766  11.050
20582SOL     OW63519  12.276   1.579  10.347
20582SOL    HW163520  12.315   1.647  10.291
20582SOL    HW263521  12.351   1.533  10.385
20583SOL     OW63522   8.889   5.740   1.788
20583SOL    HW163523   8.873   5.680   1.861
20583SOL    HW263524   8.808   5.790   1.779
20584SOL     OW63525   6.554   7.032   1.826
20584SOL    HW163526   6.619   7.091   1.865
20584SOL    HW263527   6.606   6.963   1.785
20585SOL     OW63528   0.076  13.795   0.612
20585SOL    HW163529   0.127  13.860   0.562
20585SOL    HW263530   0.143  13.745   0.659
20586SOL     OW63531  12.155   1.720   7.464
20586SOL    HW163532  12.142   1.625   7.470
20586SOL    HW263533  12.079   1.757   7.509
20587SOL     OW63534   6.805  11.650   2.681
20587SOL    HW163535   6.799  11.563   2.642
20587SOL    HW263536   6.723  11.693   2.655
20588SOL     OW63537   5.783  14.221  14.844
20588SOL    HW163538   5.826  14.143   0.001
20588SOL    HW263539   5.843  14.255  14.778
20589SOL     OW63540   7.352   2.289   9.776
20589SOL    HW163541   7.372   2.265   9.686
20589SOL    HW263542   7.295   2.366   9.768
20590SOL     OW63543   6.833   4.959   5.196
20590SOL    HW163544   6.822   4.923   5.108
20590SOL    HW263545   6.773   5.033   5.201
20591SOL     OW63546  14.591   4.922   9.157
20591SOL    HW163547  14.503   4.953   9.135
20591SOL    HW263548  14.612   4.966   9.239
20592SOL     OW63549  12.321   5.352  13.985
20592SOL    HW163550  12.411   5.333  13.957
20592SOL    HW263551  12.324   5.348  14.080
20593SOL     OW63552  13.401   3.950   1.130
20593SOL    HW163553  13.342   3.906   1.191
20593SOL    HW263554  13.347   4.017   1.088
20594SOL     OW63555  10.190  12.139  11.198
20594SOL    HW163556  10.240  12.137  11.116
20594SOL    HW263557  10.228  12.069  11.251
20595SOL     OW63558  10.145   8.648  14.180
20595SOL    HW163559  10.222   8.704  14.173
20595SOL    HW263560  10.130   8.616  14.091
20596SOL     OW63561   5.294   5.128   8.231
20596SOL    HW163562   5.337   5.043   8.243
20596SOL    HW263563   5.223   5.128   8.295
20597SOL     OW63564   2.732   6.655   5.615
20597SOL    HW163565   2.636   6.659   5.616
20597SOL    HW263566   2.759   6.734   5.661
20598SOL     OW63567   5.924   0.248   7.603
20598SOL    HW163568   5.971   0.217   7.526
20598SOL    HW263569   5.987   0.240   7.675
20599SOL     OW63570   8.401   1.737   1.087
20599SOL    HW163571   8.365   1.696   1.166
20599SOL    HW263572   8.326   1.745   1.028
20600SOL     OW63573   3.426  10.140  11.720
20600SOL    HW163574   3.488  10.104  11.657
20600SOL    HW263575   3.474  10.211  11.764
20601SOL     OW63576   6.731  12.723   6.884
20601SOL    HW163577   6.737  12.777   6.805
20601SOL    HW263578   6.637  12.718   6.902
20602SOL     OW63579  11.191  13.869   1.321
20602SOL    HW163580  11.249  13.938   1.290
20602SOL    HW263581  11.183  13.809   1.247
20603SOL     OW63582   5.636  12.915  10.649
20603SOL    HW163583   5.719  12.915  10.696
20603SOL    HW263584   5.574  12.876  10.710
20604SOL     OW63585   1.237   0.084   6.732
20604SOL    HW163586   1.281   0.002   6.710
20604SOL    HW263587   1.144   0.066   6.718
20605SOL     OW63588  13.134  12.872   2.773
20605SOL    HW163589  13.058  12.901   2.823
20605SOL    HW263590  13.209  12.890   2.830
20606SOL     OW63591   6.350   6.170   8.898
20606SOL    HW163592   6.346   6.243   8.960
20606SOL    HW263593   6.373   6.210   8.815
20607SOL     OW63594  12.131   7.338   8.915
20607SOL    HW163595  12.163   7.253   8.886
20607SOL    HW263596  12.056   7.318   8.971
20608SOL     OW63597   6.532   4.058  12.762
20608SOL    HW163598   6.569   4.074  12.849
20608SOL    HW263599   6.469   3.987  12.776
20609SOL     OW63600  12.709   0.907   8.498
20609SOL    HW163601  12.732   0.995   8.470
20609SOL    HW263602  12.746   0.850   8.431
20610SOL     OW63603   5.948  11.932  10.916
20610SOL    HW163604   6.031  11.929  10.964
20610SOL    HW263605   5.961  12.002  10.852
20611SOL     OW63606   7.317  12.255   7.069
20611SOL    HW163607   7.274  12.309   7.134
20611SOL    HW263608   7.323  12.311   6.991
20612SOL     OW63609   2.966   8.450   2.403
20612SOL    HW163610   2.996   8.391   2.334
20612SOL    HW263611   2.996   8.410   2.485
20613SOL     OW63612   5.996  14.592   4.186
20613SOL    HW163613   5.983  14.686   4.173
20613SOL    HW263614   6.059  14.567   4.118
20614SOL     OW63615   6.440   6.841  14.421
20614SOL    HW163616   6.430   6.905  14.350
20614SOL    HW263617   6.416   6.758  14.382
20615SOL     OW63618   2.998   4.960  13.061
20615SOL    HW163619   3.039   4.890  13.010
20615SOL    HW263620   3.066   4.990  13.121
20616SOL     OW63621   6.861  13.236  12.535
20616SOL    HW163622   6.806  13.172  12.491
20616SOL    HW263623   6.857  13.212  12.628
20617SOL     OW63624   0.219   4.902   6.519
20617SOL    HW163625   0.132   4.895   6.480
20617SOL    HW263626   0.233   4.996   6.530
20618SOL     OW63627  12.960  10.069  10.345
20618SOL    HW163628  12.933  10.040  10.433
20618SOL    HW263629  12.904  10.018  10.286
20619SOL     OW63630  12.717   3.200   0.761
20619SOL    HW163631  12.630   3.184   0.797
20619SOL    HW263632  12.777   3.167   0.828
20620SOL     OW63633   3.489   5.618   3.480
20620SOL    HW163634   3.573   5.627   3.524
20620SOL    HW263635   3.486   5.692   3.418
20621SOL     OW63636   9.640  10.585  12.153
20621SOL    HW163637   9.556  10.632  12.160
20621SOL    HW263638   9.675  10.611  12.068
20622SOL     OW63639  11.157  14.003   0.827
20622SOL    HW163640  11.197  14.049   0.901
20622SOL    HW263641  11.231  13.967   0.779
20623SOL     OW63642   9.245  11.266   7.149
20623SOL    HW163643   9.280  11.201   7.089
20623SOL    HW263644   9.197  11.327   7.093
20624SOL     OW63645   9.328  11.073  13.968
20624SOL    HW163646   9.412  11.044  14.006
20624SOL    HW263647   9.295  10.995  13.923
20625SOL     OW63648   5.178   6.508  10.523
20625SOL    HW163649   5.263   6.539  10.551
20625SOL    HW263650   5.180   6.413  10.540
20626SOL     OW63651  14.860   2.967   3.023
20626SOL    HW163652  14.842   3.024   3.098
20626SOL    HW263653   0.078   2.956   3.023
20627SOL     OW63654   0.226   8.965  12.723
20627SOL    HW163655   0.137   8.948  12.692
20627SOL    HW263656   0.214   9.025  12.797
20628SOL     OW63657  11.693   9.075   4.456
20628SOL    HW163658  11.667   9.153   4.406
20628SOL    HW263659  11.709   9.008   4.390
20629SOL     OW63660   5.163   2.367   6.888
20629SOL    HW163661   5.141   2.446   6.938
20629SOL    HW263662   5.157   2.296   6.951
20630SOL     OW63663  12.660   7.966   5.572
20630SOL    HW163664  12.580   7.929   5.609
20630SOL    HW263665  12.655   7.946   5.479
20631SOL     OW63666   5.958   4.155   6.792
20631SOL    HW163667   5.936   4.191   6.706
20631SOL    HW263668   5.875   4.155   6.840
20632SOL     OW63669   7.806   0.956   3.197
20632SOL    HW163670   7.836   1.045   3.218
20632SOL    HW263671   7.811   0.910   3.281
20633SOL     OW63672  13.017  12.723   8.680
20633SOL    HW163673  13.104  12.763   8.670
20633SOL    HW263674  13.016  12.652   8.616
20634SOL     OW63675  13.235   9.550   5.540
20634SOL    HW163676  13.306   9.609   5.564
20634SOL    HW263677  13.251   9.471   5.592
20635SOL     OW63678  12.362   2.978   9.469
20635SOL    HW163679  12.358   3.073   9.458
20635SOL    HW263680  12.387   2.965   9.561
20636SOL     OW63681   3.335   3.282   8.949
20636SOL    HW163682   3.290   3.310   9.028
20636SOL    HW263683   3.272   3.223   8.905
20637SOL     OW63684  12.712  10.149   4.505
20637SOL    HW163685  12.799  10.189   4.506
20637SOL    HW263686  12.721  10.071   4.559
20638SOL     OW63687   1.898   7.026   5.287
20638SOL    HW163688   1.805   7.024   5.309
20638SOL    HW263689   1.907   7.099   5.226
20639SOL     OW63690   7.227   6.234   6.392
20639SOL    HW163691   7.152   6.184   6.426
20639SOL    HW263692   7.189   6.315   6.360
20640SOL     OW63693  12.542   8.329   1.800
20640SOL    HW163694  12.605   8.392   1.834
20640SOL    HW263695  12.495   8.298   1.877
20641SOL     OW63696  13.566   4.436   1.256
20641SOL    HW163697  13.569   4.341   1.245
20641SOL    HW263698  13.564   4.470   1.167
20642SOL     OW63699  11.128   5.551  14.089
20642SOL    HW163700  11.114   5.603  14.010
20642SOL    HW263701  11.051   5.495  14.096
20643SOL     OW63702   0.631   5.434   7.011
20643SOL    HW163703   0.588   5.512   7.046
20643SOL    HW263704   0.562   5.368   7.007
20644SOL     OW63705   6.750   5.815   5.848
20644SOL    HW163706   6.682   5.813   5.781
20644SOL    HW263707   6.786   5.726   5.849
20645SOL     OW63708   9.204   0.566   7.546
20645SOL    HW163709   9.216   0.499   7.479
20645SOL    HW263710   9.199   0.516   7.628
20646SOL     OW63711  10.089   2.521  10.349
20646SOL    HW163712  10.095   2.437  10.305
20646SOL    HW263713   9.998   2.526  10.379
20647SOL     OW63714   0.929   2.005   8.493
20647SOL    HW163715   0.984   1.974   8.420
20647SOL    HW263716   0.927   2.100   8.482
20648SOL     OW63717   3.423  10.030  14.136
20648SOL    HW163718   3.341  10.079  14.128
20648SOL    HW263719   3.441  10.029  14.230
20649SOL     OW63720  11.079   2.140   8.258
20649SOL    HW163721  11.158   2.117   8.308
20649SOL    HW263722  11.078   2.077   8.186
20650SOL     OW63723  12.721   6.560  14.167
20650SOL    HW163724  12.626   6.549  14.165
20650SOL    HW263725  12.747   6.556  14.075
20651SOL     OW63726  10.291   2.451  12.201
20651SOL    HW163727  10.290   2.540  12.236
20651SOL    HW263728  10.326   2.461  12.112
20652SOL     OW63729   6.927  14.165   7.126
20652SOL    HW163730   6.869  14.238   7.103
20652SOL    HW263731   6.930  14.165   7.221
20653SOL     OW63732  13.228   5.417   4.034
20653SOL    HW163733  13.155   5.413   4.095
20653SOL    HW263734  13.306   5.401   4.088
20654SOL     OW63735   8.511   0.558   7.144
20654SOL    HW163736   8.435   0.611   7.167
20654SOL    HW263737   8.480   0.501   7.073
20655SOL     OW63738   5.137   9.255  10.199
20655SOL    HW163739   5.130   9.351  10.198
20655SOL    HW263740   5.208   9.237  10.261
20656SOL     OW63741   0.923   4.405   1.203
20656SOL    HW163742   0.896   4.484   1.156
20656SOL    HW263743   0.903   4.333   1.143
20657SOL     OW63744   7.704  10.553   4.400
20657SOL    HW163745   7.677  10.498   4.327
20657SOL    HW263746   7.681  10.502   4.478
20658SOL     OW63747   0.520   0.847   5.448
20658SOL    HW163748   0.560   0.782   5.507
20658SOL    HW263749   0.585   0.860   5.379
20659SOL     OW63750  13.190   9.118   4.479
20659SOL    HW163751  13.233   9.100   4.563
20659SOL    HW263752  13.261   9.141   4.419
20660SOL     OW63753   9.780   1.690   9.238
20660SOL    HW163754   9.783   1.781   9.211
20660SOL    HW263755   9.799   1.693   9.332
20661SOL     OW63756   9.510   1.151   7.753
20661SOL    HW163757   9.436   1.192   7.797
20661SOL    HW263758   9.525   1.204   7.675
20662SOL     OW63759   2.993   8.661   9.620
20662SOL    HW163760   2.993   8.619   9.534
20662SOL    HW263761   2.977   8.754   9.601
20663SOL     OW63762   1.451   6.515  14.197
20663SOL    HW163763   1.435   6.516  14.291
20663SOL    HW263764   1.512   6.587  14.182
20664SOL     OW63765   8.001   4.354  10.075
20664SOL    HW163766   7.942   4.426  10.098
20664SOL    HW263767   7.988   4.343   9.980
20665SOL     OW63768  12.812   8.619  12.848
20665SOL    HW163769  12.899   8.646  12.877
20665SOL    HW263770  12.752   8.656  12.912
20666SOL     OW63771   3.181   1.289   3.717
20666SOL    HW163772   3.160   1.282   3.623
20666SOL    HW263773   3.099   1.316   3.758
20667SOL     OW63774   3.902   6.714  10.467
20667SOL    HW163775   3.859   6.799  10.473
20667SOL    HW263776   3.991   6.731  10.498
20668SOL     OW63777   6.051   8.995  11.502
20668SOL    HW163778   5.971   9.024  11.546
20668SOL    HW263779   6.023   8.922  11.448
20669SOL     OW63780  12.905  11.411   8.467
20669SOL    HW163781  12.977  11.429   8.526
20669SOL    HW263782  12.854  11.343   8.512
20670SOL     OW63783   7.322   0.897   0.278
20670SOL    HW163784   7.318   0.819   0.334
20670SOL    HW263785   7.231   0.911   0.251
20671SOL     OW63786  12.021   7.484  11.433
20671SOL    HW163787  12.017   7.574  11.465
20671SOL    HW263788  12.086   7.486  11.363
20672SOL     OW63789   9.966   1.060  10.176
20672SOL    HW163790   9.900   1.120  10.143
20672SOL    HW263791  10.014   1.111  10.241
20673SOL     OW63792   4.896   7.908   8.071
20673SOL    HW163793   4.965   7.891   8.006
20673SOL    HW263794   4.816   7.920   8.019
20674SOL     OW63795   8.344   4.687   3.393
20674SOL    HW163796   8.387   4.719   3.472
20674SOL    HW263797   8.412   4.694   3.325
20675SOL     OW63798  10.271   4.919  13.730
20675SOL    HW163799  10.195   4.974  13.714
20675SOL    HW263800  10.321   4.923  13.648
20676SOL     OW63801   5.353  11.804  14.637
20676SOL    HW163802   5.324  11.854  14.561
20676SOL    HW263803   5.348  11.713  14.610
20677SOL     OW63804   4.552   5.722   6.648
20677SOL    HW163805   4.618   5.790   6.665
20677SOL    HW263806   4.495   5.724   6.725
20678SOL     OW63807   1.550  12.341   2.643
20678SOL    HW163808   1.608  12.373   2.711
20678SOL    HW263809   1.503  12.268   2.683
20679SOL     OW63810   6.357   6.287  11.022
20679SOL    HW163811   6.414   6.218  11.055
20679SOL    HW263812   6.304   6.244  10.955
20680SOL     OW63813   6.559   0.147  11.052
20680SOL    HW163814   6.566   0.194  11.136
20680SOL    HW263815   6.475   0.174  11.016
20681SOL     OW63816  10.366  10.265  12.642
20681SOL    HW163817  10.436  10.330  12.650
20681SOL    HW263818  10.409  10.181  12.656
20682SOL     OW63819  10.588   6.928   9.676
20682SOL    HW163820  10.562   7.013   9.712
20682SOL    HW263821  10.606   6.946   9.584
20683SOL     OW63822   0.069   4.261   6.689
20683SOL    HW163823  14.858   4.225   6.691
20683SOL    HW263824   0.118   4.209   6.753
20684SOL     OW63825  12.068  12.965  10.797
20684SOL    HW163826  12.146  13.011  10.827
20684SOL    HW263827  12.080  12.958  10.702
20685SOL     OW63828  11.404  14.793   9.087
20685SOL    HW163829  11.475  14.849   9.117
20685SOL    HW263830  11.429  14.705   9.117
20686SOL     OW63831   9.754   7.676   7.877
20686SOL    HW163832   9.794   7.634   7.800
20686SOL    HW263833   9.706   7.750   7.841
20687SOL     OW63834  12.574   9.273   6.701
20687SOL    HW163835  12.552   9.225   6.782
20687SOL    HW263836  12.636   9.340   6.730
20688SOL     OW63837  10.097   2.585  11.949
20688SOL    HW163838  10.181   2.548  11.923
20688SOL    HW263839  10.099   2.675  11.916
20689SOL     OW63840  14.282  13.616  11.613
20689SOL    HW163841  14.248  13.599  11.701
20689SOL    HW263842  14.361  13.562  11.607
20690SOL     OW63843   0.649  11.736   1.852
20690SOL    HW163844   0.587  11.799   1.814
20690SOL    HW263845   0.670  11.677   1.780
20691SOL     OW63846   5.764   0.032   8.146
20691SOL    HW163847   5.733   0.099   8.207
20691SOL    HW263848   5.854   0.013   8.174
20692SOL     OW63849  13.733  10.019   2.443
20692SOL    HW163850  13.807   9.976   2.485
20692SOL    HW263851  13.670  10.032   2.514
20693SOL     OW63852  11.329  14.554   3.420
20693SOL    HW163853  11.414  14.521   3.390
20693SOL    HW263854  11.264  14.502   3.373
20694SOL     OW63855  12.512   6.283   0.200
20694SOL    HW163856  12.493   6.198   0.239
20694SOL    HW263857  12.524   6.264   0.106
20695SOL     OW63858   3.090   6.690   4.127
20695SOL    HW163859   3.111   6.664   4.217
20695SOL    HW263860   3.092   6.786   4.130
20696SOL     OW63861   2.036   6.760   6.083
20696SOL    HW163862   2.051   6.678   6.036
20696SOL    HW263863   1.963   6.801   6.037
20697SOL     OW63864   5.045  12.583  13.780
20697SOL    HW163865   4.995  12.592  13.698
20697SOL    HW263866   5.023  12.495  13.811
20698SOL     OW63867   9.245   0.760   4.687
20698SOL    HW163868   9.165   0.811   4.674
20698SOL    HW263869   9.227   0.705   4.763
20699SOL     OW63870   3.267   0.697   1.705
20699SOL    HW163871   3.304   0.735   1.785
20699SOL    HW263872   3.218   0.621   1.735
20700SOL     OW63873   5.629  12.190  13.680
20700SOL    HW163874   5.555  12.251  13.679
20700SOL    HW263875   5.592  12.110  13.719
20701SOL     OW63876   3.175  12.511   9.373
20701SOL    HW163877   3.218  12.590   9.339
20701SOL    HW263878   3.212  12.500   9.461
20702SOL     OW63879   9.625  11.280   7.433
20702SOL    HW163880   9.667  11.198   7.462
20702SOL    HW263881   9.566  11.253   7.363
20703SOL     OW63882   2.044   2.497   9.006
20703SOL    HW163883   1.961   2.533   9.036
20703SOL    HW263884   2.038   2.403   9.026
20704SOL     OW63885  11.908   5.315   2.165
20704SOL    HW163886  11.897   5.241   2.105
20704SOL    HW263887  11.896   5.277   2.252
20705SOL     OW63888   9.344  14.202   4.060
20705SOL    HW163889   9.255  14.168   4.052
20705SOL    HW263890   9.364  14.239   3.974
20706SOL     OW63891  11.548  14.004   4.578
20706SOL    HW163892  11.523  14.095   4.559
20706SOL    HW263893  11.480  13.972   4.637
20707SOL     OW63894   9.389   1.693   4.340
20707SOL    HW163895   9.387   1.788   4.349
20707SOL    HW263896   9.381   1.660   4.429
20708SOL     OW63897   0.211   2.225   0.386
20708SOL    HW163898   0.286   2.254   0.334
20708SOL    HW263899   0.248   2.161   0.447
20709SOL     OW63900  14.482   4.766   8.845
20709SOL    HW163901  14.407   4.779   8.904
20709SOL    HW263902  14.478   4.841   8.785
20710SOL     OW63903   9.839   7.231  11.953
20710SOL    HW163904   9.870   7.313  11.914
20710SOL    HW263905   9.747   7.227  11.929
20711SOL     OW63906  10.790   5.907   9.489
20711SOL    HW163907  10.784   5.948   9.576
20711SOL    HW263908  10.871   5.942   9.452
20712SOL     OW63909   9.271   2.249   9.337
20712SOL    HW163910   9.310   2.277   9.254
20712SOL    HW263911   9.177   2.246   9.319
20713SOL     OW63912  13.406  10.152  10.582
20713SOL    HW163913  13.438  10.165  10.493
20713SOL    HW263914  13.363  10.235  10.604
20714SOL     OW63915  14.558  11.808   5.570
20714SOL    HW163916  14.568  11.810   5.475
20714SOL    HW263917  14.484  11.750   5.586
20715SOL     OW63918   4.504   5.753  11.068
20715SOL    HW163919   4.501   5.811  10.992
20715SOL    HW263920   4.505   5.665  11.031
20716SOL     OW63921   0.306   1.028   7.967
20716SOL    HW163922   0.217   1.058   7.985
20716SOL    HW263923   0.295   0.954   7.907
20717SOL     OW63924   6.797   7.020   4.245
20717SOL    HW163925   6.870   7.040   4.188
20717SOL    HW263926   6.719   7.028   4.189
20718SOL     OW63927   1.947   5.047   3.443
20718SOL    HW163928   1.920   4.978   3.503
20718SOL    HW263929   1.887   5.040   3.369
20719SOL     OW63930  13.788   1.175   6.670
20719SOL    HW163931  13.827   1.101   6.623
20719SOL    HW263932  13.860   1.211   6.722
20720SOL     OW63933   8.098   9.868   6.240
20720SOL    HW163934   8.071   9.950   6.281
20720SOL    HW263935   8.021   9.839   6.191
20721SOL     OW63936  11.964  10.763  13.865
20721SOL    HW163937  12.042  10.734  13.913
20721SOL    HW263938  11.892  10.747  13.926
20722SOL     OW63939   4.296   2.895   1.977
20722SOL    HW163940   4.279   2.925   1.887
20722SOL    HW263941   4.234   2.945   2.031
20723SOL     OW63942   6.463  14.617   1.166
20723SOL    HW163943   6.497  14.637   1.253
20723SOL    HW263944   6.389  14.676   1.155
20724SOL     OW63945   5.784   1.327   0.110
20724SOL    HW163946   5.726   1.267   0.063
20724SOL    HW263947   5.857   1.272   0.139
20725SOL     OW63948  14.852  12.971  11.580
20725SOL    HW163949   0.057  12.924  11.591
20725SOL    HW263950  14.786  12.911  11.615
20726SOL     OW63951   4.917   5.428   8.286
20726SOL    HW163952   4.987   5.423   8.351
20726SOL    HW263953   4.947   5.494   8.224
20727SOL     OW63954  12.765   5.516  12.560
20727SOL    HW163955  12.776   5.425  12.584
20727SOL    HW263956  12.828   5.563  12.615
20728SOL     OW63957  11.166   6.185  10.698
20728SOL    HW163958  11.132   6.133  10.625
20728SOL    HW263959  11.089   6.228  10.735
20729SOL     OW63960   2.889  13.503   3.798
20729SOL    HW163961   2.870  13.569   3.731
20729SOL    HW263962   2.831  13.526   3.871
20730SOL     OW63963   4.315   8.720   9.364
20730SOL    HW163964   4.344   8.740   9.453
20730SOL    HW263965   4.223   8.696   9.374
20731SOL     OW63966   7.435   2.341  11.321
20731SOL    HW163967   7.451   2.249  11.301
20731SOL    HW263968   7.340   2.352  11.314
20732SOL     OW63969  14.317   0.119   0.225
20732SOL    HW163970  14.316   0.082   0.137
20732SOL    HW263971  14.247   0.074   0.272
20733SOL     OW63972  14.156  13.846  11.232
20733SOL    HW163973  14.062  13.835  11.221
20733SOL    HW263974  14.169  13.941  11.237
20734SOL     OW63975   6.925   1.876  13.673
20734SOL    HW163976   6.835   1.898  13.698
20734SOL    HW263977   6.932   1.782  13.690
20735SOL     OW63978   4.102   1.960   6.917
20735SOL    HW163979   4.114   1.867   6.899
20735SOL    HW263980   4.187   1.988   6.952
20736SOL     OW63981  11.595   2.601   7.510
20736SOL    HW163982  11.619   2.661   7.439
20736SOL    HW263983  11.603   2.514   7.471
20737SOL     OW63984   0.609   7.172   2.661
20737SOL    HW163985   0.584   7.136   2.746
20737SOL    HW263986   0.669   7.243   2.681
20738SOL     OW63987  10.181  11.418  14.131
20738SOL    HW163988  10.142  11.463  14.205
20738SOL    HW263989  10.150  11.467  14.054
20739SOL     OW63990   9.586   1.501   2.836
20739SOL    HW163991   9.498   1.498   2.799
20739SOL    HW263992   9.606   1.594   2.845
20740SOL     OW63993   8.970   5.770   0.682
20740SOL    HW163994   9.002   5.718   0.756
20740SOL    HW263995   8.933   5.706   0.621
20741SOL     OW63996  10.405  14.745   2.177
20741SOL    HW163997  10.405  14.820   2.117
20741SOL    HW263998  10.484  14.757   2.230
20742SOL     OW63999   2.232   7.692   1.505
20742SOL    HW164000   2.170   7.620   1.499
20742SOL    HW264001   2.251   7.715   1.414
20743SOL     OW64002   2.677   9.903   0.643
20743SOL    HW164003   2.637   9.990   0.649
20743SOL    HW264004   2.664   9.877   0.552
20744SOL     OW64005   1.279   8.631  11.716
20744SOL    HW164006   1.227   8.690  11.661
20744SOL    HW264007   1.337   8.689  11.766
20745SOL     OW64008   4.127   4.189   8.116
20745SOL    HW164009   4.069   4.193   8.040
20745SOL    HW264010   4.193   4.124   8.093
20746SOL     OW64011  14.298   7.734   5.907
20746SOL    HW164012  14.205   7.751   5.920
20746SOL    HW264013  14.322   7.678   5.982
20747SOL     OW64014   5.985  11.707   0.305
20747SOL    HW164015   5.967  11.614   0.316
20747SOL    HW264016   5.909  11.740   0.256
20748SOL     OW64017   8.379   6.214   7.127
20748SOL    HW164018   8.319   6.241   7.058
20748SOL    HW264019   8.456   6.180   7.081
20749SOL     OW64020  14.790   9.346   0.383
20749SOL    HW164021  14.829   9.427   0.350
20749SOL    HW264022  14.701   9.371   0.408
20750SOL     OW64023   4.427  10.229  10.185
20750SOL    HW164024   4.359  10.172  10.148
20750SOL    HW264025   4.509  10.184  10.164
20751SOL     OW64026   3.767   9.823   3.466
20751SOL    HW164027   3.801   9.785   3.547
20751SOL    HW264028   3.837   9.879   3.434
20752SOL     OW64029   9.986  11.219   7.985
20752SOL    HW164030  10.048  11.162   7.939
20752SOL    HW264031   9.934  11.159   8.038
20753SOL     OW64032   1.551   6.818   6.495
20753SOL    HW164033   1.540   6.761   6.419
20753SOL    HW264034   1.524   6.764   6.570
20754SOL     OW64035   0.505   6.014   0.737
20754SOL    HW164036   0.574   6.009   0.671
20754SOL    HW264037   0.469   6.103   0.728
20755SOL     OW64038  14.214   3.561  14.072
20755SOL    HW164039  14.132   3.602  14.098
20755SOL    HW264040  14.280   3.600  14.128
20756SOL     OW64041   8.065   6.123   6.298
20756SOL    HW164042   8.035   6.211   6.322
20756SOL    HW264043   7.984   6.075   6.280
20757SOL     OW64044  13.478  13.488  12.393
20757SOL    HW164045  13.532  13.551  12.440
20757SOL    HW264046  13.469  13.415  12.453
20758SOL     OW64047   4.986  11.374  11.935
20758SOL    HW164048   4.894  11.347  11.931
20758SOL    HW264049   4.982  11.467  11.956
20759SOL     OW64050   0.976  13.863   0.136
20759SOL    HW164051   0.918  13.788   0.153
20759SOL    HW264052   0.974  13.913   0.217
20760SOL     OW64053   2.581  10.343  11.719
20760SOL    HW164054   2.627  10.269  11.759
20760SOL    HW264055   2.616  10.420  11.763
20761SOL     OW64056  13.751  13.410  11.439
20761SOL    HW164057  13.754  13.464  11.360
20761SOL    HW264058  13.750  13.320  11.406
20762SOL     OW64059   1.850   1.991   8.305
20762SOL    HW164060   1.763   2.030   8.294
20762SOL    HW264061   1.840   1.900   8.277
20763SOL     OW64062  14.659  11.253   1.350
20763SOL    HW164063  14.746  11.219   1.331
20763SOL    HW264064  14.604  11.175   1.360
20764SOL     OW64065   0.958  11.384  14.650
20764SOL    HW164066   0.929  11.467  14.612
20764SOL    HW264067   0.877  11.334  14.661
20765SOL     OW64068   4.090   7.708   6.852
20765SOL    HW164069   4.181   7.725   6.875
20765SOL    HW264070   4.084   7.730   6.759
20766SOL     OW64071   4.821   9.676   3.344
20766SOL    HW164072   4.822   9.643   3.255
20766SOL    HW264073   4.849   9.767   3.337
20767SOL     OW64074   3.457   4.486   7.960
20767SOL    HW164075   3.382   4.426   7.960
20767SOL    HW264076   3.532   4.429   7.943
20768SOL     OW64077   0.366   9.886   1.587
20768SOL    HW164078   0.288   9.849   1.546
20768SOL    HW264079   0.337   9.971   1.620
20769SOL     OW64080   9.518   8.844  13.146
20769SOL    HW164081   9.465   8.915  13.111
20769SOL    HW264082   9.455   8.785  13.188
20770SOL     OW64083  11.363   7.826   2.784
20770SOL    HW164084  11.306   7.753   2.808
20770SOL    HW264085  11.451   7.789   2.782
20771SOL     OW64086   3.195   6.772   7.841
20771SOL    HW164087   3.123   6.828   7.870
20771SOL    HW264088   3.193   6.697   7.901
20772SOL     OW64089   9.690  10.494   8.736
20772SOL    HW164090   9.602  10.529   8.717
20772SOL    HW264091   9.680  10.399   8.729
20773SOL     OW64092   6.471   0.669   8.556
20773SOL    HW164093   6.460   0.657   8.461
20773SOL    HW264094   6.384   0.691   8.588
20774SOL     OW64095   2.792  14.182   3.898
20774SOL    HW164096   2.840  14.125   3.838
20774SOL    HW264097   2.850  14.192   3.973
20775SOL     OW64098  10.048   5.228   3.860
20775SOL    HW164099  10.069   5.213   3.767
20775SOL    HW264100  10.009   5.315   3.862
20776SOL     OW64101   5.232   4.372  10.471
20776SOL    HW164102   5.312   4.325  10.450
20776SOL    HW264103   5.223   4.364  10.566
20777SOL     OW64104   7.969   8.385   4.681
20777SOL    HW164105   7.927   8.470   4.673
20777SOL    HW264106   8.063   8.405   4.684
20778SOL     OW64107  11.780   2.412   2.112
20778SOL    HW164108  11.844   2.378   2.050
20778SOL    HW264109  11.728   2.335   2.137
20779SOL     OW64110  14.297  12.942   8.548
20779SOL    HW164111  14.261  12.859   8.580
20779SOL    HW264112  14.388  12.921   8.525
20780SOL     OW64113  13.711   5.297   7.685
20780SOL    HW164114  13.697   5.205   7.703
20780SOL    HW264115  13.696   5.306   7.590
20781SOL     OW64116   0.872  10.802   5.516
20781SOL    HW164117   0.926  10.877   5.543
20781SOL    HW264118   0.786  10.841   5.498
20782SOL     OW64119   7.800  13.238   6.187
20782SOL    HW164120   7.762  13.281   6.264
20782SOL    HW264121   7.783  13.299   6.115
20783SOL     OW64122   4.853   8.587  11.761
20783SOL    HW164123   4.889   8.538  11.836
20783SOL    HW264124   4.807   8.660  11.801
20784SOL     OW64125   8.050  13.504   3.204
20784SOL    HW164126   8.118  13.549   3.155
20784SOL    HW264127   7.976  13.498   3.143
20785SOL     OW64128  10.000   3.668   5.615
20785SOL    HW164129  10.094   3.649   5.617
20785SOL    HW264130   9.986   3.732   5.685
20786SOL     OW64131  11.917  11.139   9.412
20786SOL    HW164132  11.860  11.161   9.486
20786SOL    HW264133  11.932  11.045   9.421
20787SOL     OW64134  13.438  12.765  14.761
20787SOL    HW164135  13.417  12.704  14.690
20787SOL    HW264136  13.357  12.812  14.777
20788SOL     OW64137  11.784   8.020   7.684
20788SOL    HW164138  11.757   7.929   7.666
20788SOL    HW264139  11.703   8.064   7.708
20789SOL     OW64140  12.335  12.006  13.492
20789SOL    HW164141  12.401  12.006  13.561
20789SOL    HW264142  12.360  11.934  13.435
20790SOL     OW64143   2.118   4.657   8.019
20790SOL    HW164144   2.099   4.719   8.090
20790SOL    HW264145   2.059   4.682   7.948
20791SOL     OW64146   1.758   1.361   7.810
20791SOL    HW164147   1.745   1.334   7.720
20791SOL    HW264148   1.697   1.434   7.823
20792SOL     OW64149  14.697   5.299   3.522
20792SOL    HW164150  14.753   5.377   3.518
20792SOL    HW264151  14.746   5.237   3.575
20793SOL     OW64152  11.062  14.548   1.442
20793SOL    HW164153  10.989  14.609   1.428
20793SOL    HW264154  11.020  14.463   1.456
20794SOL     OW64155   5.521  12.867  11.136
20794SOL    HW164156   5.479  12.784  11.159
20794SOL    HW264157   5.614  12.845  11.125
20795SOL     OW64158   5.615  11.083   7.738
20795SOL    HW164159   5.653  11.068   7.651
20795SOL    HW264160   5.631  11.001   7.785
20796SOL     OW64161   6.199  14.838  12.631
20796SOL    HW164162   6.124  14.779  12.635
20796SOL    HW264163   6.201   0.003  12.717
20797SOL     OW64164  10.312   8.931   1.014
20797SOL    HW164165  10.291   9.019   1.046
20797SOL    HW264166  10.297   8.874   1.090
20798SOL     OW64167   5.715  12.991   0.366
20798SOL    HW164168   5.772  13.068   0.365
20798SOL    HW264169   5.761  12.928   0.422
20799SOL     OW64170   0.408   4.972   0.973
20799SOL    HW164171   0.407   4.955   0.879
20799SOL    HW264172   0.322   5.010   0.992
20800SOL     OW64173   3.138  11.067  10.490
20800SOL    HW164174   3.194  11.038  10.563
20800SOL    HW264175   3.182  11.034  10.412
20801SOL     OW64176   5.391   2.310   8.755
20801SOL    HW164177   5.361   2.397   8.781
20801SOL    HW264178   5.422   2.269   8.836
20802SOL     OW64179   2.804   8.141  10.112
20802SOL    HW164180   2.809   8.232  10.084
20802SOL    HW264181   2.791   8.092  10.031
20803SOL     OW64182   7.284  12.787   0.669
20803SOL    HW164183   7.213  12.749   0.618
20803SOL    HW264184   7.356  12.796   0.607
20804SOL     OW64185   8.208  13.969  10.032
20804SOL    HW164186   8.121  14.008  10.024
20804SOL    HW264187   8.269  14.042  10.021
20805SOL     OW64188   9.938  10.357   4.972
20805SOL    HW164189   9.980  10.383   4.890
20805SOL    HW264190  10.011  10.336   5.030
20806SOL     OW64191   1.230   1.493   5.355
20806SOL    HW164192   1.220   1.435   5.279
20806SOL    HW264193   1.181   1.449   5.425
20807SOL     OW64194  13.363   5.719  12.136
20807SOL    HW164195  13.390   5.709  12.045
20807SOL    HW264196  13.282   5.670  12.143
20808SOL     OW64197   0.874   2.580  10.655
20808SOL    HW164198   0.805   2.563  10.591
20808SOL    HW264199   0.955   2.562  10.607
20809SOL     OW64200   3.314   4.829  13.299
20809SOL    HW164201   3.370   4.902  13.271
20809SOL    HW264202   3.330   4.761  13.235
20810SOL     OW64203   3.272  10.874   1.048
20810SOL    HW164204   3.251  10.836   0.963
20810SOL    HW264205   3.365  10.857   1.060
20811SOL     OW64206   1.801   4.410  11.403
20811SOL    HW164207   1.836   4.437  11.488
20811SOL    HW264208   1.780   4.317  11.413
20812SOL     OW64209   3.049  12.484   3.324
20812SOL    HW164210   3.102  12.461   3.401
20812SOL    HW264211   2.962  12.448   3.344
20813SOL     OW64212   6.415  13.516   7.748
20813SOL    HW164213   6.367  13.433   7.750
20813SOL    HW264214   6.474  13.507   7.673
20814SOL     OW64215  10.389   4.727   2.314
20814SOL    HW164216  10.361   4.686   2.233
20814SOL    HW264217  10.484   4.734   2.306
20815SOL     OW64218   1.946  13.702  13.439
20815SOL    HW164219   1.876  13.751  13.481
20815SOL    HW264220   1.946  13.617  13.484
20816SOL     OW64221  13.923   5.123   6.723
20816SOL    HW164222  13.855   5.185   6.748
20816SOL    HW264223  13.954   5.086   6.806
20817SOL     OW64224  10.789   0.941   4.784
20817SOL    HW164225  10.723   1.003   4.816
20817SOL    HW264226  10.748   0.855   4.793
20818SOL     OW64227   8.605   0.488   5.962
20818SOL    HW164228   8.649   0.428   6.022
20818SOL    HW264229   8.648   0.474   5.878
20819SOL     OW64230   7.259  14.002   9.661
20819SOL    HW164231   7.294  13.939   9.598
20819SOL    HW264232   7.285  13.968   9.746
20820SOL     OW64233  14.409   1.465   6.370
20820SOL    HW164234  14.330   1.498   6.327
20820SOL    HW264235  14.465   1.542   6.378
20821SOL     OW64236  11.401  14.396   0.681
20821SOL    HW164237  11.475  14.456   0.695
20821SOL    HW264238  11.374  14.411   0.591
20822SOL     OW64239  13.848   1.681   3.480
20822SOL    HW164240  13.859   1.657   3.388
20822SOL    HW264241  13.758   1.656   3.500
20823SOL     OW64242  12.963   5.203   7.629
20823SOL    HW164243  12.931   5.224   7.541
20823SOL    HW264244  13.053   5.174   7.616
20824SOL     OW64245  10.180   8.395  14.234
20824SOL    HW164246  10.189   8.484  14.202
20824SOL    HW264247  10.141   8.347  14.161
20825SOL     OW64248  12.599   0.980  13.273
20825SOL    HW164249  12.550   0.993  13.354
20825SOL    HW264250  12.541   0.926  13.218
20826SOL     OW64251   1.823  12.563   2.444
20826SOL    HW164252   1.727  12.558   2.447
20826SOL    HW264253   1.850  12.562   2.536
20827SOL     OW64254   4.292  13.329   9.111
20827SOL    HW164255   4.302  13.406   9.167
20827SOL    HW264256   4.377  13.285   9.114
20828SOL     OW64257   6.320  13.621   4.304
20828SOL    HW164258   6.239  13.581   4.274
20828SOL    HW264259   6.310  13.714   4.283
20829SOL     OW64260  11.178   6.567  12.205
20829SOL    HW164261  11.137   6.550  12.290
20829SOL    HW264262  11.272   6.561  12.222
20830SOL     OW64263  14.011   3.282  13.671
20830SOL    HW164264  13.920   3.309  13.678
20830SOL    HW264265  14.061   3.358  13.702
20831SOL     OW64266   7.648  11.543   8.865
20831SOL    HW164267   7.600  11.461   8.854
20831SOL    HW264268   7.593  11.608   8.821
20832SOL     OW64269   8.365  12.966   5.086
20832SOL    HW164270   8.380  13.048   5.133
20832SOL    HW264271   8.353  12.901   5.155
20833SOL     OW64272  14.077   1.869   6.234
20833SOL    HW164273  14.015   1.927   6.189
20833SOL    HW264274  14.162   1.912   6.223
20834SOL     OW64275   2.037   8.988  14.620
20834SOL    HW164276   2.026   9.047  14.694
20834SOL    HW264277   2.122   9.012  14.582
20835SOL     OW64278   1.425   4.092   4.239
20835SOL    HW164279   1.359   4.076   4.171
20835SOL    HW264280   1.399   4.033   4.310
20836SOL     OW64281  13.280   9.477   8.879
20836SOL    HW164282  13.212   9.544   8.881
20836SOL    HW264283  13.305   9.466   8.971
20837SOL     OW64284   7.840   3.376  10.311
20837SOL    HW164285   7.751   3.411  10.318
20837SOL    HW264286   7.896   3.454  10.300
20838SOL     OW64287   7.713   0.176  12.273
20838SOL    HW164288   7.665   0.211  12.348
20838SOL    HW264289   7.681   0.226  12.198
20839SOL     OW64290   2.267   9.082  11.316
20839SOL    HW164291   2.303   9.045  11.235
20839SOL    HW264292   2.339   9.130  11.355
20840SOL     OW64293  13.721   2.994  10.259
20840SOL    HW164294  13.817   2.987  10.265
20840SOL    HW264295  13.699   3.064  10.321
20841SOL     OW64296   9.319   8.885   5.742
20841SOL    HW164297   9.344   8.875   5.650
20841SOL    HW264298   9.294   8.977   5.750
20842SOL     OW64299   0.026   0.869   2.632
20842SOL    HW164300   0.010   0.814   2.708
20842SOL    HW264301  14.820   0.915   2.619
20843SOL     OW64302  12.437   5.999   5.312
20843SOL    HW164303  12.392   6.081   5.288
20843SOL    HW264304  12.528   6.025   5.327
20844SOL     OW64305   9.210  11.052   2.237
20844SOL    HW164306   9.143  10.985   2.224
20844SOL    HW264307   9.259  11.021   2.314
20845SOL     OW64308   9.080  11.079   2.931
20845SOL    HW164309   9.037  11.163   2.919
20845SOL    HW264310   9.064  11.032   2.849
20846SOL     OW64311   8.800   8.778   0.296
20846SOL    HW164312   8.826   8.867   0.272
20846SOL    HW264313   8.793   8.732   0.213
20847SOL     OW64314  13.458  12.217  10.473
20847SOL    HW164315  13.430  12.136  10.430
20847SOL    HW264316  13.381  12.273  10.471
20848SOL     OW64317  10.694   6.337   3.364
20848SOL    HW164318  10.645   6.413   3.332
20848SOL    HW264319  10.639   6.262   3.341
20849SOL     OW64320  11.098   5.430   6.359
20849SOL    HW164321  11.007   5.456   6.373
20849SOL    HW264322  11.115   5.449   6.267
20850SOL     OW64323   7.389   9.149  12.623
20850SOL    HW164324   7.348   9.128  12.708
20850SOL    HW264325   7.374   9.243  12.612
20851SOL     OW64326   4.947   4.855   2.617
20851SOL    HW164327   4.978   4.772   2.653
20851SOL    HW264328   5.027   4.904   2.599
20852SOL     OW64329   2.111  13.579   9.366
20852SOL    HW164330   2.154  13.632   9.298
20852SOL    HW264331   2.126  13.488   9.339
20853SOL     OW64332   5.406   6.184   5.720
20853SOL    HW164333   5.442   6.231   5.644
20853SOL    HW264334   5.426   6.092   5.703
20854SOL     OW64335  14.287  12.922   4.917
20854SOL    HW164336  14.210  12.881   4.879
20854SOL    HW264337  14.358  12.901   4.856
20855SOL     OW64338   3.650  13.572   5.855
20855SOL    HW164339   3.695  13.538   5.932
20855SOL    HW264340   3.717  13.573   5.786
20856SOL     OW64341   4.082  12.969   4.572
20856SOL    HW164342   4.063  12.958   4.479
20856SOL    HW264343   4.049  12.890   4.614
20857SOL     OW64344   7.663   1.367   9.204
20857SOL    HW164345   7.597   1.430   9.175
20857SOL    HW264346   7.640   1.349   9.295
20858SOL     OW64347   5.784   9.093  12.069
20858SOL    HW164348   5.843   9.105  11.994
20858SOL    HW264349   5.716   9.034  12.037
20859SOL     OW64350   1.513   1.687   9.753
20859SOL    HW164351   1.562   1.769   9.741
20859SOL    HW264352   1.492   1.685   9.846
20860SOL     OW64353  13.184   1.017   5.900
20860SOL    HW164354  13.201   1.078   5.972
20860SOL    HW264355  13.121   0.955   5.935
20861SOL     OW64356   1.081   6.497   2.481
20861SOL    HW164357   1.143   6.470   2.548
20861SOL    HW264358   1.025   6.420   2.467
20862SOL     OW64359   7.011   4.599   0.692
20862SOL    HW164360   7.052   4.671   0.739
20862SOL    HW264361   7.083   4.542   0.667
20863SOL     OW64362   4.796   0.964  14.017
20863SOL    HW164363   4.737   1.024  14.061
20863SOL    HW264364   4.745   0.929  13.944
20864SOL     OW64365   1.094   1.809   2.315
20864SOL    HW164366   1.002   1.832   2.319
20864SOL    HW264367   1.103   1.758   2.234
20865SOL     OW64368  11.813  12.143   0.260
20865SOL    HW164369  11.859  12.134   0.176
20865SOL    HW264370  11.769  12.059   0.273
20866SOL     OW64371   6.358   4.086  12.326
20866SOL    HW164372   6.412   4.145  12.273
20866SOL    HW264373   6.357   4.127  12.413
20867SOL     OW64374  14.669   6.991   8.162
20867SOL    HW164375  14.699   6.955   8.245
20867SOL    HW264376  14.659   7.085   8.180
20868SOL     OW64377   3.903  13.663  11.237
20868SOL    HW164378   3.820  13.672  11.190
20868SOL    HW264379   3.924  13.570  11.231
20869SOL     OW64380   8.271   4.827   9.925
20869SOL    HW164381   8.333   4.825   9.998
20869SOL    HW264382   8.264   4.736   9.897
20870SOL     OW64383   5.575   8.987   7.457
20870SOL    HW164384   5.521   9.063   7.437
20870SOL    HW264385   5.547   8.959   7.543
20871SOL     OW64386   6.159  12.526   8.154
20871SOL    HW164387   6.095  12.595   8.168
20871SOL    HW264388   6.243  12.565   8.178
20872SOL     OW64389   7.022   6.560  11.210
20872SOL    HW164390   7.106   6.561  11.165
20872SOL    HW264391   7.040   6.595  11.297
20873SOL     OW64392  10.715  10.500   6.803
20873SOL    HW164393  10.784  10.537   6.747
20873SOL    HW264394  10.651  10.465   6.742
20874SOL     OW64395   2.718   1.180  12.391
20874SOL    HW164396   2.717   1.241  12.465
20874SOL    HW264397   2.775   1.222  12.327
20875SOL     OW64398  11.659  12.834   3.285
20875SOL    HW164399  11.616  12.767   3.338
20875SOL    HW264400  11.711  12.784   3.222
20876SOL     OW64401   4.460   4.207   1.207
20876SOL    HW164402   4.543   4.252   1.223
20876SOL    HW264403   4.399   4.246   1.270
20877SOL     OW64404   2.637   8.033   1.638
20877SOL    HW164405   2.644   7.971   1.710
20877SOL    HW264406   2.556   8.008   1.593
20878SOL     OW64407   2.551   9.194   8.767
20878SOL    HW164408   2.490   9.265   8.747
20878SOL    HW264409   2.636   9.228   8.738
20879SOL     OW64410  10.668  12.968  10.798
20879SOL    HW164411  10.721  13.046  10.808
20879SOL    HW264412  10.730  12.895  10.800
20880SOL     OW64413   6.432   1.162   0.862
20880SOL    HW164414   6.419   1.179   0.769
20880SOL    HW264415   6.355   1.113   0.889
20881SOL     OW64416   1.374   5.175   9.039
20881SOL    HW164417   1.285   5.173   9.003
20881SOL    HW264418   1.362   5.189   9.133
20882SOL     OW64419   2.413   3.009   5.666
20882SOL    HW164420   2.469   2.971   5.598
20882SOL    HW264421   2.420   3.103   5.653
20883SOL     OW64422   0.927   9.797   4.533
20883SOL    HW164423   0.945   9.890   4.543
20883SOL    HW264424   1.011   9.754   4.547
20884SOL     OW64425   6.280   9.209  11.961
20884SOL    HW164426   6.301   9.239  12.049
20884SOL    HW264427   6.221   9.135  11.974
20885SOL     OW64428  10.029  10.636   2.401
20885SOL    HW164429  10.021  10.570   2.470
20885SOL    HW264430  10.112  10.680   2.419
20886SOL     OW64431   6.537   2.332   4.173
20886SOL    HW164432   6.556   2.408   4.119
20886SOL    HW264433   6.512   2.264   4.111
20887SOL     OW64434  11.246   3.540   1.551
20887SOL    HW164435  11.155   3.561   1.571
20887SOL    HW264436  11.240   3.471   1.485
20888SOL     OW64437   0.607  10.499  11.231
20888SOL    HW164438   0.561  10.510  11.314
20888SOL    HW264439   0.699  10.491  11.255
20889SOL     OW64440   2.704   0.109  10.709
20889SOL    HW164441   2.795   0.139  10.703
20889SOL    HW264442   2.687   0.067  10.624
20890SOL     OW64443   4.072  11.748   0.790
20890SOL    HW164444   4.035  11.772   0.875
20890SOL    HW264445   4.006  11.689   0.752
20891SOL     OW64446  10.598   8.406   5.548
20891SOL    HW164447  10.560   8.486   5.583
20891SOL    HW264448  10.638   8.432   5.465
20892SOL     OW64449   4.949  10.660   6.416
20892SOL    HW164450   4.965  10.752   6.400
20892SOL    HW264451   4.900  10.658   6.498
20893SOL     OW64452   1.302   1.570   3.543
20893SOL    HW164453   1.235   1.626   3.583
20893SOL    HW264454   1.380   1.625   3.540
20894SOL     OW64455   0.507   4.868   0.229
20894SOL    HW164456   0.551   4.799   0.277
20894SOL    HW264457   0.578   4.924   0.197
20895SOL     OW64458  13.601   1.242  12.844
20895SOL    HW164459  13.656   1.183  12.792
20895SOL    HW264460  13.513   1.229  12.810
20896SOL     OW64461  11.435  13.222  13.744
20896SOL    HW164462  11.452  13.317  13.739
20896SOL    HW264463  11.513  13.182  13.704
20897SOL     OW64464   2.288   1.472   2.575
20897SOL    HW164465   2.261   1.552   2.621
20897SOL    HW264466   2.258   1.401   2.631
20898SOL     OW64467  12.365   5.668   9.252
20898SOL    HW164468  12.421   5.746   9.244
20898SOL    HW264469  12.334   5.671   9.343
20899SOL     OW64470  14.076  12.350   4.090
20899SOL    HW164471  14.162  12.310   4.080
20899SOL    HW264472  14.017  12.277   4.107
20900SOL     OW64473  12.003  12.994   7.256
20900SOL    HW164474  12.066  13.039   7.313
20900SOL    HW264475  12.019  13.031   7.169
20901SOL     OW64476  10.383   6.715   6.805
20901SOL    HW164477  10.385   6.651   6.734
20901SOL    HW264478  10.320   6.781   6.776
20902SOL     OW64479   6.292   9.630   6.484
20902SOL    HW164480   6.242   9.703   6.448
20902SOL    HW264481   6.341   9.596   6.409
20903SOL     OW64482   8.581   8.059   6.182
20903SOL    HW164483   8.613   7.976   6.217
20903SOL    HW264484   8.638   8.125   6.222
20904SOL     OW64485   9.466  14.381   8.696
20904SOL    HW164486   9.445  14.289   8.712
20904SOL    HW264487   9.510  14.410   8.776
20905SOL     OW64488  12.286   6.562   2.631
20905SOL    HW164489  12.231   6.636   2.606
20905SOL    HW264490  12.312   6.580   2.721
20906SOL     OW64491   3.524   1.896   1.032
20906SOL    HW164492   3.598   1.846   0.996
20906SOL    HW264493   3.448   1.838   1.021
20907SOL     OW64494  11.704   7.203   3.543
20907SOL    HW164495  11.696   7.226   3.451
20907SOL    HW264496  11.644   7.130   3.555
20908SOL     OW64497   9.998  13.629   9.886
20908SOL    HW164498  10.070  13.683   9.851
20908SOL    HW264499   9.968  13.677   9.964
20909SOL     OW64500  14.529   8.126   8.255
20909SOL    HW164501  14.620   8.112   8.281
20909SOL    HW264502  14.522   8.221   8.245
20910SOL     OW64503   2.731   2.667   8.103
20910SOL    HW164504   2.666   2.737   8.105
20910SOL    HW264505   2.699   2.603   8.167
20911SOL     OW64506   4.738   0.557  11.326
20911SOL    HW164507   4.745   0.497  11.251
20911SOL    HW264508   4.666   0.616  11.302
20912SOL     OW64509   2.609  11.407   8.490
20912SOL    HW164510   2.698  11.392   8.457
20912SOL    HW264511   2.567  11.459   8.421
20913SOL     OW64512   7.292  10.915  13.087
20913SOL    HW164513   7.279  10.914  13.182
20913SOL    HW264514   7.206  10.898  13.051
20914SOL     OW64515   8.172   4.757   4.290
20914SOL    HW164516   8.233   4.691   4.259
20914SOL    HW264517   8.085   4.725   4.264
20915SOL     OW64518   8.072   8.914   0.100
20915SOL    HW164519   8.164   8.891   0.115
20915SOL    HW264520   8.064   8.917   0.004
20916SOL     OW64521   5.305   9.946  12.005
20916SOL    HW164522   5.363   9.969  11.933
20916SOL    HW264523   5.264  10.029  12.031
20917SOL     OW64524   5.008   6.620  12.506
20917SOL    HW164525   5.030   6.695  12.562
20917SOL    HW264526   4.916   6.601  12.526
20918SOL     OW64527   6.040   0.724   1.478
20918SOL    HW164528   5.945   0.713   1.479
20918SOL    HW264529   6.074   0.639   1.506
20919SOL     OW64530  12.090  12.227   5.142
20919SOL    HW164531  12.091  12.182   5.226
20919SOL    HW264532  12.057  12.162   5.080
20920SOL     OW64533   5.509  12.713  12.578
20920SOL    HW164534   5.417  12.730  12.597
20920SOL    HW264535   5.514  12.712  12.482
20921SOL     OW64536   4.189  11.687   3.600
20921SOL    HW164537   4.109  11.709   3.553
20921SOL    HW264538   4.160  11.626   3.669
20922SOL     OW64539  13.140  12.241  14.041
20922SOL    HW164540  13.123  12.165  13.986
20922SOL    HW264541  13.233  12.236  14.062
20923SOL     OW64542   9.802   1.293   0.928
20923SOL    HW164543   9.884   1.265   0.885
20923SOL    HW264544   9.760   1.212   0.956
20924SOL     OW64545  12.124  10.198   7.542
20924SOL    HW164546  12.219  10.192   7.530
20924SOL    HW264547  12.102  10.121   7.596
20925SOL     OW64548   1.059   0.817   6.647
20925SOL    HW164549   1.117   0.830   6.572
20925SOL    HW264550   1.108   0.851   6.722
20926SOL     OW64551   4.821   8.829  14.758
20926SOL    HW164552   4.769   8.904  14.788
20926SOL    HW264553   4.907   8.840  14.799
20927SOL     OW64554   7.900  11.971   9.956
20927SOL    HW164555   7.885  12.056   9.997
20927SOL    HW264556   7.876  11.907  10.023
20928SOL     OW64557   5.682   2.619   6.902
20928SOL    HW164558   5.712   2.661   6.822
20928SOL    HW264559   5.751   2.635   6.966
20929SOL     OW64560  12.505  10.111   6.324
20929SOL    HW164561  12.467  10.028   6.355
20929SOL    HW264562  12.562  10.086   6.252
20930SOL     OW64563   9.818   3.552  10.039
20930SOL    HW164564   9.738   3.506  10.063
20930SOL    HW264565   9.788   3.638  10.010
20931SOL     OW64566   7.201  11.640  13.741
20931SOL    HW164567   7.157  11.679  13.818
20931SOL    HW264568   7.131  11.595  13.694
20932SOL     OW64569   0.809  10.679   0.969
20932SOL    HW164570   0.903  10.682   0.987
20932SOL    HW264571   0.794  10.594   0.929
20933SOL     OW64572   0.465   5.596   4.750
20933SOL    HW164573   0.428   5.633   4.831
20933SOL    HW264574   0.417   5.514   4.737
20934SOL     OW64575  11.538   6.339   2.407
20934SOL    HW164576  11.468   6.280   2.378
20934SOL    HW264577  11.581   6.292   2.479
20935SOL     OW64578  11.278  14.052  14.413
20935SOL    HW164579  11.368  14.020  14.415
20935SOL    HW264580  11.227  13.985  14.459
20936SOL     OW64581   9.557   5.960   5.000
20936SOL    HW164582   9.640   5.925   5.031
20936SOL    HW264583   9.539   5.912   4.919
20937SOL     OW64584   3.291   5.570  10.978
20937SOL    HW164585   3.320   5.492  11.025
20937SOL    HW264586   3.199   5.554  10.958
20938SOL     OW64587  11.448   4.871  13.847
20938SOL    HW164588  11.418   4.782  13.829
20938SOL    HW264589  11.527   4.860  13.899
20939SOL     OW64590   4.897  10.593   4.332
20939SOL    HW164591   4.881  10.500   4.312
20939SOL    HW264592   4.890  10.599   4.427
20940SOL     OW64593   2.018  13.704   3.514
20940SOL    HW164594   1.940  13.651   3.528
20940SOL    HW264595   2.076  13.682   3.587
20941SOL     OW64596  13.154   9.433   5.969
20941SOL    HW164597  13.070   9.395   5.991
20941SOL    HW264598  13.205   9.429   6.050
20942SOL     OW64599   4.656   9.445   1.438
20942SOL    HW164600   4.570   9.451   1.398
20942SOL    HW264601   4.673   9.533   1.472
20943SOL     OW64602   4.217  12.143  14.230
20943SOL    HW164603   4.174  12.069  14.274
20943SOL    HW264604   4.146  12.190  14.188
20944SOL     OW64605   2.966  11.904  11.537
20944SOL    HW164606   2.884  11.949  11.514
20944SOL    HW264607   3.032  11.944  11.481
20945SOL     OW64608   2.441  14.552   4.541
20945SOL    HW164609   2.497  14.536   4.464
20945SOL    HW264610   2.503  14.579   4.610
20946SOL     OW64611   2.388   6.252   3.562
20946SOL    HW164612   2.324   6.323   3.564
20946SOL    HW264613   2.422   6.253   3.473
20947SOL     OW64614   3.632  10.716   4.493
20947SOL    HW164615   3.566  10.691   4.428
20947SOL    HW264616   3.631  10.811   4.493
20948SOL     OW64617   4.694   5.391   6.798
20948SOL    HW164618   4.694   5.456   6.868
20948SOL    HW264619   4.744   5.432   6.727
20949SOL     OW64620   6.747  12.745   6.585
20949SOL    HW164621   6.744  12.650   6.597
20949SOL    HW264622   6.693  12.761   6.507
20950SOL     OW64623  14.204  14.746   3.789
20950SOL    HW164624  14.268  14.777   3.854
20950SOL    HW264625  14.159  14.673   3.832
20951SOL     OW64626   4.509  10.533   3.630
20951SOL    HW164627   4.512  10.616   3.678
20951SOL    HW264628   4.578  10.480   3.669
20952SOL     OW64629  12.100   0.182   6.124
20952SOL    HW164630  12.069   0.189   6.033
20952SOL    HW264631  12.077   0.265   6.164
20953SOL     OW64632  11.395   0.350   9.818
20953SOL    HW164633  11.314   0.399   9.806
20953SOL    HW264634  11.413   0.312   9.732
20954SOL     OW64635   0.782   9.131  11.099
20954SOL    HW164636   0.736   9.072  11.159
20954SOL    HW264637   0.747   9.109  11.013
20955SOL     OW64638   3.563  14.589  13.994
20955SOL    HW164639   3.525  14.512  13.951
20955SOL    HW264640   3.535  14.663  13.940
20956SOL     OW64641   7.820  11.373   7.839
20956SOL    HW164642   7.738  11.328   7.859
20956SOL    HW264643   7.885  11.331   7.895
20957SOL     OW64644   9.867  12.830   0.723
20957SOL    HW164645   9.895  12.901   0.665
20957SOL    HW264646   9.854  12.755   0.665
20958SOL     OW64647   0.825  10.559   8.398
20958SOL    HW164648   0.868  10.480   8.430
20958SOL    HW264649   0.737  10.556   8.435
20959SOL     OW64650   7.557   8.480   9.200
20959SOL    HW164651   7.580   8.422   9.273
20959SOL    HW264652   7.529   8.561   9.242
20960SOL     OW64653  12.362  11.111   8.630
20960SOL    HW164654  12.327  11.115   8.719
20960SOL    HW264655  12.285  11.094   8.575
20961SOL     OW64656   0.644   3.698   1.196
20961SOL    HW164657   0.555   3.665   1.207
20961SOL    HW264658   0.668   3.732   1.282
20962SOL     OW64659   1.498   5.919   4.077
20962SOL    HW164660   1.476   5.828   4.099
20962SOL    HW264661   1.591   5.917   4.055
20963SOL     OW64662  12.456   9.913  12.464
20963SOL    HW164663  12.521   9.849  12.435
20963SOL    HW264664  12.373   9.868  12.456
20964SOL     OW64665  13.910  13.383  14.389
20964SOL    HW164666  13.992  13.420  14.423
20964SOL    HW264667  13.843  13.414  14.451
20965SOL     OW64668   1.606   0.994   9.679
20965SOL    HW164669   1.617   0.935   9.604
20965SOL    HW264670   1.694   1.028   9.695
20966SOL     OW64671   6.349  10.394   0.435
20966SOL    HW164672   6.428  10.340   0.430
20966SOL    HW264673   6.288  10.344   0.489
20967SOL     OW64674   1.286   2.024  13.941
20967SOL    HW164675   1.197   1.992  13.929
20967SOL    HW264676   1.338   1.976  13.877
20968SOL     OW64677   7.796   3.625   1.520
20968SOL    HW164678   7.777   3.591   1.608
20968SOL    HW264679   7.890   3.612   1.509
20969SOL     OW64680  13.171   5.664   6.089
20969SOL    HW164681  13.077   5.672   6.105
20969SOL    HW264682  13.186   5.713   6.008
20970SOL     OW64683   7.635   5.086   7.287
20970SOL    HW164684   7.636   5.024   7.360
20970SOL    HW264685   7.657   5.034   7.210
20971SOL     OW64686   1.482  13.067  10.681
20971SOL    HW164687   1.459  12.981  10.645
20971SOL    HW264688   1.532  13.047  10.760
20972SOL     OW64689  10.327   5.915  14.873
20972SOL    HW164690  10.272   5.969   0.052
20972SOL    HW264691  10.409   5.963  14.867
20973SOL     OW64692  13.014   6.239  11.253
20973SOL    HW164693  12.951   6.306  11.229
20973SOL    HW264694  13.065   6.278  11.324
20974SOL     OW64695   3.961   0.268  14.796
20974SOL    HW164696   3.909   0.348  14.786
20974SOL    HW264697   4.049   0.300  14.818
20975SOL     OW64698  11.670  10.785   4.377
20975SOL    HW164699  11.668  10.705   4.428
20975SOL    HW264700  11.745  10.774   4.318
20976SOL     OW64701   5.957  10.818  11.204
20976SOL    HW164702   5.905  10.878  11.150
20976SOL    HW264703   6.029  10.791  11.148
20977SOL     OW64704   2.527  12.162  10.372
20977SOL    HW164705   2.554  12.251  10.396
20977SOL    HW264706   2.607  12.122  10.337
20978SOL     OW64707   4.019  14.852   3.551
20978SOL    HW164708   4.045   0.055   3.595
20978SOL    HW264709   3.984  14.797   3.620
20979SOL     OW64710  13.961   4.914  13.061
20979SOL    HW164711  13.922   4.826  13.057
20979SOL    HW264712  14.042   4.906  13.011
20980SOL     OW64713   3.883   1.633  11.804
20980SOL    HW164714   3.958   1.693  11.799
20980SOL    HW264715   3.907   1.570  11.872
20981SOL     OW64716  11.586  11.312  13.278
20981SOL    HW164717  11.603  11.231  13.229
20981SOL    HW264718  11.576  11.283  13.369
20982SOL     OW64719   5.857   4.730  12.287
20982SOL    HW164720   5.887   4.679  12.362
20982SOL    HW264721   5.938   4.763  12.247
20983SOL     OW64722  12.569   8.673   7.814
20983SOL    HW164723  12.582   8.764   7.840
20983SOL    HW264724  12.474   8.661   7.815
20984SOL     OW64725  14.207   6.866  13.210
20984SOL    HW164726  14.275   6.880  13.144
20984SOL    HW264727  14.251   6.819  13.281
20985SOL     OW64728   3.762   7.063   4.679
20985SOL    HW164729   3.714   7.129   4.729
20985SOL    HW264730   3.814   7.016   4.745
20986SOL     OW64731   5.143   5.961   0.212
20986SOL    HW164732   5.140   6.048   0.173
20986SOL    HW264733   5.111   5.903   0.143
20987SOL     OW64734   9.934  14.847   5.026
20987SOL    HW164735  10.004  14.839   4.961
20987SOL    HW264736   9.854  14.830   4.976
20988SOL     OW64737  10.428   3.451  13.357
20988SOL    HW164738  10.371   3.421  13.286
20988SOL    HW264739  10.507   3.399  13.348
20989SOL     OW64740   1.717   8.464   6.988
20989SOL    HW164741   1.809   8.486   6.973
20989SOL    HW264742   1.672   8.548   6.990
20990SOL     OW64743   3.776   5.766  12.156
20990SOL    HW164744   3.741   5.843  12.110
20990SOL    HW264745   3.727   5.692  12.119
20991SOL     OW64746  11.583   0.125  11.800
20991SOL    HW164747  11.577   0.209  11.847
20991SOL    HW264748  11.572   0.059  11.868
20992SOL     OW64749   8.587   8.096   8.835
20992SOL    HW164750   8.565   8.004   8.822
20992SOL    HW264751   8.672   8.106   8.792
20993SOL     OW64752   0.375   1.082   3.255
20993SOL    HW164753   0.470   1.074   3.246
20993SOL    HW264754   0.363   1.130   3.337
20994SOL     OW64755   1.854  10.671  10.416
20994SOL    HW164756   1.866  10.621  10.336
20994SOL    HW264757   1.761  10.662  10.436
20995SOL     OW64758   7.987   6.160   5.374
20995SOL    HW164759   7.985   6.089   5.439
20995SOL    HW264760   8.076   6.195   5.380
20996SOL     OW64761   8.140   2.538   4.642
20996SOL    HW164762   8.184   2.569   4.722
20996SOL    HW264763   8.076   2.474   4.674
20997SOL     OW64764   4.740   6.642  11.702
20997SOL    HW164765   4.821   6.693  11.709
20997SOL    HW264766   4.748   6.576  11.770
20998SOL     OW64767   4.167   0.657  11.034
20998SOL    HW164768   4.186   0.684  11.124
20998SOL    HW264769   4.246   0.680  10.985
20999SOL     OW64770  11.389   2.738  14.703
20999SOL    HW164771  11.342   2.797  14.761
20999SOL    HW264772  11.420   2.667  14.760
21000SOL     OW64773   4.200   7.946  13.458
21000SOL    HW164774   4.151   7.867  13.483
21000SOL    HW264775   4.137   7.997  13.406
21001SOL     OW64776  10.198   3.948   3.818
21001SOL    HW164777  10.112   3.951   3.861
21001SOL    HW264778  10.259   3.924   3.887
21002SOL     OW64779   6.964   6.291  10.023
21002SOL    HW164780   6.969   6.208  10.070
21002SOL    HW264781   6.943   6.355  10.091
21003SOL     OW64782   2.987  10.155   4.796
21003SOL    HW164783   2.941  10.071   4.798
21003SOL    HW264784   3.062  10.140   4.739
21004SOL     OW64785  11.566   3.467   2.706
21004SOL    HW164786  11.534   3.390   2.753
21004SOL    HW264787  11.497   3.487   2.642
21005SOL     OW64788   1.799   7.044   3.262
21005SOL    HW164789   1.751   7.063   3.343
21005SOL    HW264790   1.734   7.052   3.193
21006SOL     OW64791  14.559   0.106  10.858
21006SOL    HW164792  14.503   0.082  10.784
21006SOL    HW264793  14.540   0.198  10.873
21007SOL     OW64794  13.152   4.819   7.508
21007SOL    HW164795  13.214   4.765   7.557
21007SOL    HW264796  13.206   4.872   7.450
21008SOL     OW64797   3.164   5.114   6.627
21008SOL    HW164798   3.244   5.085   6.583
21008SOL    HW264799   3.173   5.210   6.632
21009SOL     OW64800   2.684   7.102   1.538
21009SOL    HW164801   2.658   7.073   1.450
21009SOL    HW264802   2.602   7.127   1.581
21010SOL     OW64803   3.361  11.639   4.727
21010SOL    HW164804   3.382  11.548   4.745
21010SOL    HW264805   3.430  11.669   4.668
21011SOL     OW64806   7.452  13.152   7.490
21011SOL    HW164807   7.454  13.171   7.584
21011SOL    HW264808   7.432  13.237   7.449
21012SOL     OW64809   7.902  14.085   8.677
21012SOL    HW164810   7.819  14.043   8.654
21012SOL    HW264811   7.952  14.086   8.596
21013SOL     OW64812   1.620   1.862  11.982
21013SOL    HW164813   1.534   1.876  11.943
21013SOL    HW264814   1.682   1.875  11.910
21014SOL     OW64815   5.914   7.519  10.916
21014SOL    HW164816   5.883   7.501  11.005
21014SOL    HW264817   5.886   7.609  10.899
21015SOL     OW64818  12.540   3.134   3.954
21015SOL    HW164819  12.536   3.056   4.010
21015SOL    HW264820  12.507   3.204   4.010
21016SOL     OW64821   6.512  13.776  14.617
21016SOL    HW164822   6.534  13.826  14.695
21016SOL    HW264823   6.531  13.836  14.544
21017SOL     OW64824   7.020  10.268   4.580
21017SOL    HW164825   7.098  10.213   4.580
21017SOL    HW264826   6.947  10.206   4.576
21018SOL     OW64827   8.273  11.154  11.250
21018SOL    HW164828   8.340  11.086  11.236
21018SOL    HW264829   8.323  11.235  11.261
21019SOL     OW64830   3.815   7.428   6.721
21019SOL    HW164831   3.859   7.491   6.777
21019SOL    HW264832   3.880   7.360   6.705
21020SOL     OW64833   1.617   5.480   4.336
21020SOL    HW164834   1.691   5.443   4.384
21020SOL    HW264835   1.594   5.414   4.271
21021SOL     OW64836   9.649   2.862  12.559
21021SOL    HW164837   9.720   2.818  12.512
21021SOL    HW264838   9.570   2.840  12.510
21022SOL     OW64839   2.796   0.414  11.527
21022SOL    HW164840   2.720   0.373  11.568
21022SOL    HW264841   2.857   0.342  11.512
21023SOL     OW64842   5.980   0.500   3.040
21023SOL    HW164843   5.984   0.593   3.059
21023SOL    HW264844   6.067   0.479   3.006
21024SOL     OW64845   3.894   6.453   2.801
21024SOL    HW164846   3.867   6.469   2.711
21024SOL    HW264847   3.815   6.468   2.853
21025SOL     OW64848  13.556   2.142  13.676
21025SOL    HW164849  13.477   2.094  13.653
21025SOL    HW264850  13.606   2.145  13.594
21026SOL     OW64851  14.119   7.319   1.979
21026SOL    HW164852  14.107   7.271   2.061
21026SOL    HW264853  14.203   7.287   1.945
21027SOL     OW64854  14.096  12.874   1.208
21027SOL    HW164855  14.038  12.805   1.243
21027SOL    HW264856  14.125  12.840   1.123
21028SOL     OW64857   4.676  10.603   6.958
21028SOL    HW164858   4.763  10.636   6.936
21028SOL    HW264859   4.659  10.535   6.893
21029SOL     OW64860   4.357  10.054   2.920
21029SOL    HW164861   4.448  10.078   2.903
21029SOL    HW264862   4.362   9.987   2.988
21030SOL     OW64863   8.050   5.157   9.286
21030SOL    HW164864   8.031   5.249   9.269
21030SOL    HW264865   8.088   5.155   9.373
21031SOL     OW64866   9.992   3.512   0.132
21031SOL    HW164867   9.995   3.548   0.044
21031SOL    HW264868   9.918   3.558   0.173
21032SOL     OW64869  11.914   6.076   4.701
21032SOL    HW164870  11.852   6.093   4.629
21032SOL    HW264871  11.943   6.162   4.729
21033SOL     OW64872   5.747   1.347   5.825
21033SOL    HW164873   5.764   1.362   5.733
21033SOL    HW264874   5.714   1.431   5.858
21034SOL     OW64875   4.724  13.718   1.398
21034SOL    HW164876   4.791  13.786   1.388
21034SOL    HW264877   4.762  13.656   1.460
21035SOL     OW64878   8.991  12.352  13.330
21035SOL    HW164879   8.924  12.347  13.262
21035SOL    HW264880   9.064  12.398  13.288
21036SOL     OW64881   4.033   9.038   9.042
21036SOL    HW164882   4.037   9.048   8.947
21036SOL    HW264883   3.947   9.071   9.067
21037SOL     OW64884   2.952  10.881   4.577
21037SOL    HW164885   3.018  10.813   4.562
21037SOL    HW264886   3.003  10.958   4.600
21038SOL     OW64887   7.264  10.643   6.591
21038SOL    HW164888   7.359  10.634   6.602
21038SOL    HW264889   7.229  10.632   6.680
21039SOL     OW64890   5.601  14.226   3.111
21039SOL    HW164891   5.589  14.235   3.016
21039SOL    HW264892   5.613  14.131   3.124
21040SOL     OW64893  13.605   3.997  14.428
21040SOL    HW164894  13.565   3.944  14.359
21040SOL    HW264895  13.592   3.946  14.508
21041SOL     OW64896   8.978  11.157   0.950
21041SOL    HW164897   8.922  11.176   0.875
21041SOL    HW264898   8.974  11.061   0.960
21042SOL     OW64899  12.349   1.763  13.496
21042SOL    HW164900  12.280   1.824  13.523
21042SOL    HW264901  12.312   1.676  13.511
21043SOL     OW64902   2.144  14.649   9.899
21043SOL    HW164903   2.075  14.596   9.939
21043SOL    HW264904   2.225  14.617   9.937
21044SOL     OW64905   8.777   1.952  13.627
21044SOL    HW164906   8.763   2.045  13.610
21044SOL    HW264907   8.706   1.928  13.686
21045SOL     OW64908   2.012   3.560   1.033
21045SOL    HW164909   2.043   3.470   1.024
21045SOL    HW264910   1.923   3.552   1.065
21046SOL     OW64911  11.914   2.595   8.584
21046SOL    HW164912  11.894   2.502   8.599
21046SOL    HW264913  11.890   2.638   8.666
21047SOL     OW64914  10.563   9.816   4.330
21047SOL    HW164915  10.558   9.889   4.393
21047SOL    HW264916  10.620   9.848   4.260
21048SOL     OW64917   5.031   2.740  11.631
21048SOL    HW164918   5.117   2.700  11.622
21048SOL    HW264919   4.998   2.748  11.542
21049SOL     OW64920  11.614   8.552   4.692
21049SOL    HW164921  11.599   8.499   4.770
21049SOL    HW264922  11.550   8.519   4.628
21050SOL     OW64923   2.739   0.688  11.593
21050SOL    HW164924   2.716   0.694  11.685
21050SOL    HW264925   2.763   0.596  11.580
21051SOL     OW64926   5.364   1.016   3.576
21051SOL    HW164927   5.295   1.060   3.625
21051SOL    HW264928   5.359   0.924   3.603
21052SOL     OW64929   8.346   2.914   0.045
21052SOL    HW164930   8.322   2.970   0.118
21052SOL    HW264931   8.432   2.879   0.068
21053SOL     OW64932  13.894   8.057   6.349
21053SOL    HW164933  13.947   8.079   6.426
21053SOL    HW264934  13.953   8.008   6.292
21054SOL     OW64935   0.161   5.857   6.095
21054SOL    HW164936   0.126   5.936   6.054
21054SOL    HW264937   0.205   5.888   6.174
21055SOL     OW64938   9.268  11.639   3.702
21055SOL    HW164939   9.204  11.609   3.638
21055SOL    HW264940   9.342  11.580   3.691
21056SOL     OW64941  10.380   8.847   8.478
21056SOL    HW164942  10.435   8.806   8.545
21056SOL    HW264943  10.324   8.776   8.445
21057SOL     OW64944  13.007   9.876  11.955
21057SOL    HW164945  13.012   9.838  12.043
21057SOL    HW264946  13.067   9.824  11.903
21058SOL     OW64947   5.106   1.323  10.590
21058SOL    HW164948   5.103   1.418  10.603
21058SOL    HW264949   5.101   1.286  10.678
21059SOL     OW64950   6.611  13.966   5.543
21059SOL    HW164951   6.560  13.885   5.539
21059SOL    HW264952   6.699  13.937   5.565
21060SOL     OW64953  13.806   4.318   8.053
21060SOL    HW164954  13.732   4.327   8.114
21060SOL    HW264955  13.798   4.229   8.020
21061SOL     OW64956   9.275   5.041   2.336
21061SOL    HW164957   9.352   4.998   2.373
21061SOL    HW264958   9.309   5.120   2.294
21062SOL     OW64959   0.454  13.896   6.872
21062SOL    HW164960   0.511  13.895   6.949
21062SOL    HW264961   0.494  13.832   6.812
21063SOL     OW64962   6.652   0.235   9.586
21063SOL    HW164963   6.623   0.292   9.657
21063SOL    HW264964   6.746   0.248   9.581
21064SOL     OW64965  12.952  13.090   5.348
21064SOL    HW164966  13.037  13.130   5.331
21064SOL    HW264967  12.912  13.080   5.261
21065SOL     OW64968  10.627  11.439  10.795
21065SOL    HW164969  10.670  11.519  10.767
21065SOL    HW264970  10.538  11.467  10.818
21066SOL     OW64971  12.185  10.238   4.106
21066SOL    HW164972  12.143  10.152   4.097
21066SOL    HW264973  12.179  10.258   4.200
21067SOL     OW64974  13.199  14.845   8.691
21067SOL    HW164975  13.141  14.824   8.618
21067SOL    HW264976  13.212  14.762   8.736
21068SOL     OW64977   9.402   4.279   5.129
21068SOL    HW164978   9.485   4.261   5.084
21068SOL    HW264979   9.397   4.211   5.197
21069SOL     OW64980   9.071  10.312   7.822
21069SOL    HW164981   9.038  10.260   7.749
21069SOL    HW264982   9.095  10.247   7.889
21070SOL     OW64983   8.617   1.394   3.435
21070SOL    HW164984   8.616   1.406   3.340
21070SOL    HW264985   8.703   1.356   3.454
21071SOL     OW64986   6.540  10.605  13.512
21071SOL    HW164987   6.447  10.584  13.501
21071SOL    HW264988   6.565  10.647  13.429
21072SOL     OW64989   2.191  11.151   0.576
21072SOL    HW164990   2.171  11.072   0.526
21072SOL    HW264991   2.107  11.196   0.586
21073SOL     OW64992  10.905  12.984   5.255
21073SOL    HW164993  10.887  12.934   5.335
21073SOL    HW264994  10.985  13.032   5.275
21074SOL     OW64995  12.949   3.794   3.045
21074SOL    HW164996  13.032   3.766   3.081
21074SOL    HW264997  12.945   3.754   2.958
21075SOL     OW64998   6.478   9.582   6.990
21075SOL    HW164999   6.550   9.644   6.979
21075SOL    HW265000   6.481   9.558   7.082
21076SOL     OW65001   2.867   3.148  11.193
21076SOL    HW165002   2.923   3.224  11.175
21076SOL    HW265003   2.925   3.072  11.179
21077SOL     OW65004  12.990  11.456   4.840
21077SOL    HW165005  12.962  11.384   4.783
21077SOL    HW265006  12.950  11.437   4.925
21078SOL     OW65007  12.137   1.683   3.430
21078SOL    HW165008  12.066   1.747   3.440
21078SOL    HW265009  12.095   1.598   3.447
21079SOL     OW65010   5.981  14.326   5.801
21079SOL    HW165011   6.030  14.404   5.777
21079SOL    HW265012   6.017  14.299   5.885
21080SOL     OW65013   1.496   9.674   0.364
21080SOL    HW165014   1.553   9.744   0.331
21080SOL    HW265015   1.475   9.622   0.287
21081SOL     OW65016   9.542  11.585   1.039
21081SOL    HW165017   9.568  11.493   1.045
21081SOL    HW265018   9.517  11.608   1.129
21082SOL     OW65019   6.413   6.601   8.795
21082SOL    HW165020   6.503   6.603   8.826
21082SOL    HW265021   6.409   6.524   8.739
21083SOL     OW65022  11.513   4.071  14.351
21083SOL    HW165023  11.591   4.052  14.300
21083SOL    HW265024  11.503   3.996  14.409
21084SOL     OW65025   8.495   3.996   8.424
21084SOL    HW165026   8.429   4.007   8.355
21084SOL    HW265027   8.499   4.081   8.468
21085SOL     OW65028   4.122  13.804   3.210
21085SOL    HW165029   4.129  13.862   3.286
21085SOL    HW265030   4.116  13.863   3.135
21086SOL     OW65031  10.345  11.945  10.966
21086SOL    HW165032  10.296  11.934  10.884
21086SOL    HW265033  10.290  11.906  11.033
21087SOL     OW65034   1.238   0.227  10.245
21087SOL    HW165035   1.306   0.202  10.309
21087SOL    HW265036   1.283   0.222  10.160
21088SOL     OW65037   4.532   4.619   2.139
21088SOL    HW165038   4.574   4.620   2.225
21088SOL    HW265039   4.570   4.543   2.095
21089SOL     OW65040   6.236  11.620   8.054
21089SOL    HW165041   6.221  11.536   8.097
21089SOL    HW265042   6.275  11.675   8.122
21090SOL     OW65043   1.332   2.482  11.387
21090SOL    HW165044   1.317   2.569  11.424
21090SOL    HW265045   1.362   2.498  11.298
21091SOL     OW65046   1.642   2.922   7.165
21091SOL    HW165047   1.710   2.987   7.150
21091SOL    HW265048   1.678   2.841   7.129
21092SOL     OW65049   3.467   2.916  10.196
21092SOL    HW165050   3.421   2.847  10.244
21092SOL    HW265051   3.447   2.898  10.104
21093SOL     OW65052   8.496  13.120   5.434
21093SOL    HW165053   8.438  13.180   5.480
21093SOL    HW265054   8.584  13.155   5.450
21094SOL     OW65055   9.462   6.608   1.162
21094SOL    HW165056   9.463   6.589   1.256
21094SOL    HW265057   9.550   6.584   1.133
21095SOL     OW65058  11.360  10.699   9.785
21095SOL    HW165059  11.359  10.634   9.855
21095SOL    HW265060  11.453  10.716   9.770
21096SOL     OW65061  13.783  10.100   8.114
21096SOL    HW165062  13.760  10.122   8.023
21096SOL    HW265063  13.833  10.176   8.144
21097SOL     OW65064   1.967   3.549  13.592
21097SOL    HW165065   1.900   3.615  13.572
21097SOL    HW265066   1.969   3.545  13.688
21098SOL     OW65067   2.490   0.258   1.013
21098SOL    HW165068   2.477   0.326   0.946
21098SOL    HW265069   2.585   0.252   1.023
21099SOL     OW65070  13.683   6.260   7.388
21099SOL    HW165071  13.729   6.344   7.392
21099SOL    HW265072  13.715   6.220   7.307
21100SOL     OW65073   3.888   4.171   7.953
21100SOL    HW165074   3.916   4.080   7.942
21100SOL    HW265075   3.827   4.168   8.027
21101SOL     OW65076  14.366   7.564   6.132
21101SOL    HW165077  14.411   7.480   6.126
21101SOL    HW265078  14.371   7.588   6.224
21102SOL     OW65079   3.450  14.077   3.485
21102SOL    HW165080   3.368  14.102   3.442
21102SOL    HW265081   3.490  14.013   3.426
21103SOL     OW65082   3.840   5.525   4.008
21103SOL    HW165083   3.858   5.459   4.074
21103SOL    HW265084   3.918   5.581   4.008
21104SOL     OW65085   6.032  14.060  11.805
21104SOL    HW165086   6.121  14.033  11.782
21104SOL    HW265087   5.990  13.980  11.837
21105SOL     OW65088   3.904   7.070   4.430
21105SOL    HW165089   3.866   7.064   4.518
21105SOL    HW265090   3.963   6.995   4.424
21106SOL     OW65091   4.005   1.975   2.922
21106SOL    HW165092   4.013   2.034   2.847
21106SOL    HW265093   4.056   1.898   2.898
21107SOL     OW65094   5.503   3.756   3.520
21107SOL    HW165095   5.477   3.720   3.605
21107SOL    HW265096   5.593   3.725   3.508
21108SOL     OW65097   9.493   4.480  13.508
21108SOL    HW165098   9.586   4.471  13.485
21108SOL    HW265099   9.486   4.438  13.594
21109SOL     OW65100   8.171   0.388  14.707
21109SOL    HW165101   8.095   0.435  14.671
21109SOL    HW265102   8.246   0.426  14.660
21110SOL     OW65103  13.144  10.503   4.084
21110SOL    HW165104  13.187  10.588   4.077
21110SOL    HW265105  13.172  10.455   4.006
21111SOL     OW65106  14.378  10.696   4.688
21111SOL    HW165107  14.394  10.738   4.603
21111SOL    HW265108  14.461  10.704   4.735
21112SOL     OW65109   9.596   8.145   1.191
21112SOL    HW165110   9.647   8.069   1.218
21112SOL    HW265111   9.512   8.135   1.236
21113SOL     OW65112   8.720   2.426   5.884
21113SOL    HW165113   8.807   2.465   5.868
21113SOL    HW265114   8.705   2.371   5.807
21114SOL     OW65115  14.128   3.482   3.153
21114SOL    HW165116  14.083   3.478   3.237
21114SOL    HW265117  14.076   3.426   3.096
21115SOL     OW65118  12.635   4.430   7.292
21115SOL    HW165119  12.648   4.488   7.366
21115SOL    HW265120  12.540   4.419   7.287
21116SOL     OW65121   2.661   7.214   2.298
21116SOL    HW165122   2.727   7.231   2.365
21116SOL    HW265123   2.688   7.132   2.258
21117SOL     OW65124   8.610   9.400  12.799
21117SOL    HW165125   8.643   9.366  12.882
21117SOL    HW265126   8.688   9.430  12.752
21118SOL     OW65127  10.152  12.810   6.832
21118SOL    HW165128  10.129  12.814   6.739
21118SOL    HW265129  10.100  12.738   6.866
21119SOL     OW65130   5.191   9.340  12.229
21119SOL    HW165131   5.250   9.265  12.235
21119SOL    HW265132   5.249   9.416  12.233
21120SOL     OW65133   0.515  11.037  14.395
21120SOL    HW165134   0.475  11.123  14.405
21120SOL    HW265135   0.444  10.982  14.362
21121SOL     OW65136   2.316   0.808   4.584
21121SOL    HW165137   2.409   0.788   4.570
21121SOL    HW265138   2.302   0.797   4.678
21122SOL     OW65139   1.142   9.349   4.825
21122SOL    HW165140   1.064   9.372   4.875
21122SOL    HW265141   1.195   9.429   4.825
21123SOL     OW65142   9.400  13.722   8.504
21123SOL    HW165143   9.419  13.782   8.432
21123SOL    HW265144   9.457  13.751   8.576
21124SOL     OW65145   8.915   8.290   1.561
21124SOL    HW165146   8.895   8.241   1.641
21124SOL    HW265147   8.921   8.223   1.493
21125SOL     OW65148   0.866   8.949   2.166
21125SOL    HW165149   0.771   8.957   2.177
21125SOL    HW265150   0.887   8.865   2.208
21126SOL     OW65151  12.103   7.563   2.764
21126SOL    HW165152  12.130   7.526   2.847
21126SOL    HW265153  12.173   7.623   2.739
21127SOL     OW65154   6.202   7.672   1.058
21127SOL    HW165155   6.253   7.666   1.140
21127SOL    HW265156   6.187   7.581   1.033
21128SOL     OW65157   9.983   6.006  11.004
21128SOL    HW165158   9.901   5.979  10.964
21128SOL    HW265159  10.007   5.934  11.062
21129SOL     OW65160   1.631  14.351   5.132
21129SOL    HW165161   1.701  14.300   5.090
21129SOL    HW265162   1.675  14.402   5.200
21130SOL     OW65163   3.836   0.536   7.859
21130SOL    HW165164   3.823   0.624   7.823
21130SOL    HW265165   3.805   0.477   7.790
21131SOL     OW65166   1.333   0.953  14.854
21131SOL    HW165167   1.418   0.911  14.867
21131SOL    HW265168   1.355   1.042  14.828
21132SOL     OW65169   9.203   3.156   2.468
21132SOL    HW165170   9.130   3.104   2.501
21132SOL    HW265171   9.273   3.092   2.452
21133SOL     OW65172   3.593  10.194   2.630
21133SOL    HW165173   3.512  10.224   2.670
21133SOL    HW265174   3.566  10.158   2.545
21134SOL     OW65175   6.191   9.932   7.265
21134SOL    HW165176   6.173  10.002   7.328
21134SOL    HW265177   6.105   9.898   7.241
21135SOL     OW65178  12.646   4.209  10.100
21135SOL    HW165179  12.616   4.208  10.009
21135SOL    HW265180  12.579   4.260  10.146
21136SOL     OW65181   9.271   1.757  11.779
21136SOL    HW165182   9.187   1.744  11.822
21136SOL    HW265183   9.326   1.801  11.844
21137SOL     OW65184  12.187   1.450   8.248
21137SOL    HW165185  12.140   1.513   8.304
21137SOL    HW265186  12.266   1.496   8.221
21138SOL     OW65187  12.095   9.905  13.002
21138SOL    HW165188  12.045   9.964  13.058
21138SOL    HW265189  12.186   9.914  13.033
21139SOL     OW65190  12.180  12.986  12.330
21139SOL    HW165191  12.136  12.914  12.374
21139SOL    HW265192  12.172  12.967  12.237
21140SOL     OW65193   5.870   1.998   5.318
21140SOL    HW165194   5.820   2.075   5.289
21140SOL    HW265195   5.960   2.030   5.326
21141SOL     OW65196   6.287   8.340   3.411
21141SOL    HW165197   6.243   8.409   3.360
21141SOL    HW265198   6.314   8.275   3.345
21142SOL     OW65199   1.615  12.775   9.988
21142SOL    HW165200   1.545  12.717   9.959
21142SOL    HW265201   1.627  12.836   9.915
21143SOL     OW65202   8.515   9.855   8.720
21143SOL    HW165203   8.474   9.877   8.804
21143SOL    HW265204   8.516   9.937   8.671
21144SOL     OW65205  13.623  12.382   2.251
21144SOL    HW165206  13.560  12.312   2.266
21144SOL    HW265207  13.708  12.345   2.278
21145SOL     OW65208   7.077  12.699   6.576
21145SOL    HW165209   6.998  12.735   6.536
21145SOL    HW265210   7.146  12.716   6.511
21146SOL     OW65211   7.233   7.248   1.486
21146SOL    HW165212   7.225   7.329   1.537
21146SOL    HW265213   7.167   7.257   1.417
21147SOL     OW65214  13.536   2.969   6.903
21147SOL    HW165215  13.623   2.962   6.944
21147SOL    HW265216  13.476   2.980   6.977
21148SOL     OW65217   5.840  11.326  13.575
21148SOL    HW165218   5.910  11.261  13.567
21148SOL    HW265219   5.828  11.337  13.670
21149SOL     OW65220   9.073  12.701  13.718
21149SOL    HW165221   8.980  12.709  13.695
21149SOL    HW265222   9.104  12.628  13.664
21150SOL     OW65223   8.068   2.665  14.211
21150SOL    HW165224   8.041   2.655  14.119
21150SOL    HW265225   8.049   2.757  14.232
21151SOL     OW65226   8.426  11.995   9.195
21151SOL    HW165227   8.457  11.922   9.250
21151SOL    HW265228   8.495  12.006   9.130
21152SOL     OW65229  13.292  11.737   2.265
21152SOL    HW165230  13.311  11.733   2.358
21152SOL    HW265231  13.202  11.704   2.257
21153SOL     OW65232  12.487  11.256   7.372
21153SOL    HW165233  12.450  11.220   7.291
21153SOL    HW265234  12.474  11.351   7.364
21154SOL     OW65235   1.263  12.435  14.108
21154SOL    HW165236   1.322  12.489  14.159
21154SOL    HW265237   1.183  12.431  14.160
21155SOL     OW65238   3.047   4.229  14.028
21155SOL    HW165239   3.035   4.299  13.964
21155SOL    HW265240   3.067   4.151  13.974
21156SOL     OW65241  14.586  13.272   1.389
21156SOL    HW165242  14.535  13.348   1.363
21156SOL    HW265243  14.554  13.251   1.477
21157SOL     OW65244  13.508   2.778   7.821
21157SOL    HW165245  13.453   2.716   7.867
21157SOL    HW265246  13.447   2.837   7.777
21158SOL     OW65247   5.467   5.762   3.329
21158SOL    HW165248   5.401   5.767   3.261
21158SOL    HW265249   5.457   5.674   3.366
21159SOL     OW65250   5.127  10.104   9.250
21159SOL    HW165251   5.124  10.098   9.155
21159SOL    HW265252   5.068  10.035   9.280
21160SOL     OW65253   8.339   8.018   2.230
21160SOL    HW165254   8.356   7.936   2.184
21160SOL    HW265255   8.253   8.008   2.269
21161SOL     OW65256   6.563   2.943   9.448
21161SOL    HW165257   6.530   2.907   9.366
21161SOL    HW265258   6.658   2.929   9.444
21162SOL     OW65259  12.637   9.739  13.825
21162SOL    HW165260  12.729   9.718  13.809
21162SOL    HW265261  12.628   9.737  13.921
21163SOL     OW65262   7.223   9.750   7.755
21163SOL    HW165263   7.269   9.675   7.794
21163SOL    HW265264   7.238   9.822   7.817
21164SOL     OW65265   5.831  12.918   1.257
21164SOL    HW165266   5.810  12.875   1.341
21164SOL    HW265267   5.854  12.846   1.198
21165SOL     OW65268  11.590  10.687   6.659
21165SOL    HW165269  11.615  10.638   6.737
21165SOL    HW265270  11.533  10.757   6.691
21166SOL     OW65271  12.911   5.932  13.962
21166SOL    HW165272  12.840   5.961  14.019
21166SOL    HW265273  12.991   5.966  14.003
21167SOL     OW65274   3.488  11.734   5.382
21167SOL    HW165275   3.537  11.663   5.339
21167SOL    HW265276   3.476  11.704   5.472
21168SOL     OW65277   3.619   8.305   0.989
21168SOL    HW165278   3.634   8.256   0.907
21168SOL    HW265279   3.640   8.395   0.966
21169SOL     OW65280  12.097  10.206   8.900
21169SOL    HW165281  12.114  10.297   8.923
21169SOL    HW265282  12.182  10.171   8.873
21170SOL     OW65283   8.281   3.648   6.770
21170SOL    HW165284   8.199   3.698   6.769
21170SOL    HW265285   8.287   3.610   6.683
21171SOL     OW65286  14.636   9.430  11.574
21171SOL    HW165287  14.565   9.468  11.523
21171SOL    HW265288  14.599   9.349  11.610
21172SOL     OW65289   8.492   8.652   7.263
21172SOL    HW165290   8.514   8.571   7.217
21172SOL    HW265291   8.431   8.697   7.204
21173SOL     OW65292  13.627   9.660  10.031
21173SOL    HW165293  13.704   9.671  10.086
21173SOL    HW265294  13.643   9.579   9.982
21174SOL     OW65295  11.365  13.207  13.393
21174SOL    HW165296  11.420  13.129  13.382
21174SOL    HW265297  11.332  13.201  13.483
21175SOL     OW65298   0.666   9.749   8.151
21175SOL    HW165299   0.697   9.661   8.130
21175SOL    HW265300   0.622   9.779   8.071
21176SOL     OW65301  13.246  13.683  11.731
21176SOL    HW165302  13.196  13.692  11.813
21176SOL    HW265303  13.203  13.744  11.671
21177SOL     OW65304   0.899   4.063  11.485
21177SOL    HW165305   0.816   4.085  11.443
21177SOL    HW265306   0.909   4.128  11.555
21178SOL     OW65307   9.151   3.942   0.820
21178SOL    HW165308   9.245   3.959   0.807
21178SOL    HW265309   9.115   3.936   0.732
21179SOL     OW65310   5.489   6.858  11.282
21179SOL    HW165311   5.573   6.899  11.304
21179SOL    HW265312   5.499   6.767  11.308
21180SOL     OW65313  10.597   2.383  13.990
21180SOL    HW165314  10.525   2.320  14.000
21180SOL    HW265315  10.673   2.329  13.970
21181SOL     OW65316  11.981  11.691   8.947
21181SOL    HW165317  12.006  11.763   8.888
21181SOL    HW265318  11.909  11.727   8.998
21182SOL     OW65319  13.817   9.555   7.178
21182SOL    HW165320  13.899   9.581   7.138
21182SOL    HW265321  13.750   9.593   7.121
21183SOL     OW65322  11.277   3.414   5.407
21183SOL    HW165323  11.331   3.349   5.451
21183SOL    HW265324  11.324   3.496   5.418
21184SOL     OW65325   8.068  12.550   1.874
21184SOL    HW165326   8.053  12.607   1.949
21184SOL    HW265327   7.987  12.555   1.823
21185SOL     OW65328   9.535  12.053   5.325
21185SOL    HW165329   9.550  11.994   5.399
21185SOL    HW265330   9.623  12.079   5.298
21186SOL     OW65331   1.896   2.203   9.045
21186SOL    HW165332   1.800   2.195   9.052
21186SOL    HW265333   1.911   2.218   8.952
21187SOL     OW65334   1.022   0.019  14.284
21187SOL    HW165335   1.037   0.094  14.226
21187SOL    HW265336   1.080  14.828  14.250
21188SOL     OW65337  10.480   7.559  12.074
21188SOL    HW165338  10.407   7.498  12.081
21188SOL    HW265339  10.557   7.503  12.061
21189SOL     OW65340   3.488  13.234   0.889
21189SOL    HW165341   3.511  13.279   0.971
21189SOL    HW265342   3.566  13.244   0.834
21190SOL     OW65343   0.705   0.153   6.257
21190SOL    HW165344   0.738   0.167   6.168
21190SOL    HW265345   0.657   0.071   6.251
21191SOL     OW65346  13.135   4.531   9.637
21191SOL    HW165347  13.122   4.619   9.671
21191SOL    HW265348  13.229   4.516   9.643
21192SOL     OW65349   1.856  13.275  10.662
21192SOL    HW165350   1.854  13.336  10.588
21192SOL    HW265351   1.809  13.321  10.732
21193SOL     OW65352  12.808  11.940   1.171
21193SOL    HW165353  12.715  11.950   1.150
21193SOL    HW265354  12.809  11.919   1.264
21194SOL     OW65355   0.748   8.052  12.375
21194SOL    HW165356   0.732   8.047  12.469
21194SOL    HW265357   0.842   8.040  12.365
21195SOL     OW65358   2.556   9.293   2.942
21195SOL    HW165359   2.513   9.287   2.857
21195SOL    HW265360   2.586   9.383   2.948
21196SOL     OW65361  10.827   0.257  12.356
21196SOL    HW165362  10.766   0.187  12.381
21196SOL    HW265363  10.911   0.229  12.390
21197SOL     OW65364   0.390  11.375  14.643
21197SOL    HW165365   0.395  11.300  14.704
21197SOL    HW265366   0.325  11.433  14.683
21198SOL     OW65367   4.028  10.870   5.313
21198SOL    HW165368   4.003  10.827   5.231
21198SOL    HW265369   3.956  10.850   5.373
21199SOL     OW65370   0.636   4.385   4.674
21199SOL    HW165371   0.716   4.341   4.702
21199SOL    HW265372   0.662   4.433   4.595
21200SOL     OW65373   6.869   4.325   5.764
21200SOL    HW165374   6.820   4.366   5.836
21200SOL    HW265375   6.956   4.311   5.800
21201SOL     OW65376  11.973   7.770   2.372
21201SOL    HW165377  12.027   7.691   2.375
21201SOL    HW265378  12.024   7.836   2.419
21202SOL     OW65379   7.151   5.421  14.672
21202SOL    HW165380   7.166   5.468  14.590
21202SOL    HW265381   7.153   5.328  14.647
21203SOL     OW65382  12.360   5.193  10.185
21203SOL    HW165383  12.293   5.143  10.231
21203SOL    HW265384  12.353   5.281  10.221
21204SOL     OW65385   3.814   7.164   3.898
21204SOL    HW165386   3.765   7.105   3.956
21204SOL    HW265387   3.793   7.252   3.930
21205SOL     OW65388   0.856   3.282   0.495
21205SOL    HW165389   0.805   3.314   0.569
21205SOL    HW265390   0.888   3.196   0.523
21206SOL     OW65391   3.187  11.384  11.592
21206SOL    HW165392   3.225  11.356  11.508
21206SOL    HW265393   3.096  11.403  11.571
21207SOL     OW65394   0.463   5.326   2.745
21207SOL    HW165395   0.375   5.307   2.780
21207SOL    HW265396   0.498   5.240   2.722
21208SOL     OW65397   7.346   1.336   1.133
21208SOL    HW165398   7.304   1.320   1.217
21208SOL    HW265399   7.274   1.354   1.073
21209SOL     OW65400  13.858   2.527   5.550
21209SOL    HW165401  13.919   2.454   5.536
21209SOL    HW265402  13.885   2.593   5.486
21210SOL     OW65403  11.273  13.385  12.640
21210SOL    HW165404  11.353  13.332  12.640
21210SOL    HW265405  11.228  13.359  12.720
21211SOL     OW65406   6.608   1.711  11.464
21211SOL    HW165407   6.656   1.678  11.389
21211SOL    HW265408   6.562   1.788  11.432
21212SOL     OW65409   5.492  12.838   7.283
21212SOL    HW165410   5.489  12.760   7.228
21212SOL    HW265411   5.560  12.820   7.348
21213SOL     OW65412   9.546   2.436  13.769
21213SOL    HW165413   9.529   2.374  13.840
21213SOL    HW265414   9.464   2.485  13.760
21214SOL     OW65415   4.408   8.942   6.796
21214SOL    HW165416   4.483   8.994   6.765
21214SOL    HW265417   4.343   8.951   6.726
21215SOL     OW65418   2.266   9.385  11.959
21215SOL    HW165419   2.340   9.440  11.935
21215SOL    HW265420   2.291   9.346  12.043
21216SOL     OW65421  10.452   0.833   9.122
21216SOL    HW165422  10.474   0.925   9.110
21216SOL    HW265423  10.405   0.809   9.041
21217SOL     OW65424   4.104   9.897   4.861
21217SOL    HW165425   4.193   9.885   4.829
21217SOL    HW265426   4.112   9.890   4.957
21218SOL     OW65427  10.022   1.907   4.215
21218SOL    HW165428   9.998   1.970   4.147
21218SOL    HW265429  10.108   1.936   4.246
21219SOL     OW65430  11.877   9.995   4.954
21219SOL    HW165431  11.838   9.994   5.041
21219SOL    HW265432  11.934  10.072   4.954
21220SOL     OW65433   2.617   7.814   3.407
21220SOL    HW165434   2.647   7.905   3.407
21220SOL    HW265435   2.565   7.806   3.326
21221SOL     OW65436   1.592   7.721   3.952
21221SOL    HW165437   1.650   7.690   3.882
21221SOL    HW265438   1.515   7.756   3.906
21222SOL     OW65439   7.276   9.243  11.539
21222SOL    HW165440   7.330   9.263  11.615
21222SOL    HW265441   7.288   9.149  11.524
21223SOL     OW65442   6.637   4.251   0.709
21223SOL    HW165443   6.596   4.230   0.625
21223SOL    HW265444   6.565   4.262   0.770
21224SOL     OW65445  13.645  12.312  12.567
21224SOL    HW165446  13.551  12.325  12.583
21224SOL    HW265447  13.670  12.241  12.626
21225SOL     OW65448  12.953   9.661  10.365
21225SOL    HW165449  13.015   9.726  10.398
21225SOL    HW265450  12.980   9.579  10.406
21226SOL     OW65451  14.533   6.506   9.883
21226SOL    HW165452  14.583   6.546   9.955
21226SOL    HW265453  14.490   6.431   9.923
21227SOL     OW65454   3.446  14.465   9.284
21227SOL    HW165455   3.440  14.449   9.190
21227SOL    HW265456   3.469  14.558   9.291
21228SOL     OW65457   2.788  14.502  14.565
21228SOL    HW165458   2.756  14.417  14.595
21228SOL    HW265459   2.712  14.559  14.569
21229SOL     OW65460   2.645  11.613  13.262
21229SOL    HW165461   2.657  11.583  13.352
21229SOL    HW265462   2.610  11.537  13.216
21230SOL     OW65463  14.395   3.494   3.373
21230SOL    HW165464  14.411   3.401   3.390
21230SOL    HW265465  14.448   3.515   3.296
21231SOL     OW65466   1.302  11.951   9.941
21231SOL    HW165467   1.340  12.032   9.906
21231SOL    HW265468   1.352  11.934  10.021
21232SOL     OW65469   4.621  11.943   6.209
21232SOL    HW165470   4.626  12.028   6.166
21232SOL    HW265471   4.619  11.880   6.137
21233SOL     OW65472  14.063   1.961  11.413
21233SOL    HW165473  14.125   1.924  11.349
21233SOL    HW265474  13.999   1.891  11.427
21234SOL     OW65475  12.806   3.610  10.764
21234SOL    HW165476  12.784   3.629  10.673
21234SOL    HW265477  12.856   3.687  10.793
21235SOL     OW65478  13.146   6.551   4.376
21235SOL    HW165479  13.122   6.460   4.360
21235SOL    HW265480  13.103   6.600   4.306
21236SOL     OW65481  12.699   6.307   1.370
21236SOL    HW165482  12.666   6.236   1.315
21236SOL    HW265483  12.716   6.379   1.309
21237SOL     OW65484  12.217   9.212  14.181
21237SOL    HW165485  12.217   9.307  14.168
21237SOL    HW265486  12.309   9.187  14.173
21238SOL     OW65487   9.173  12.628   4.385
21238SOL    HW165488   9.130  12.709   4.413
21238SOL    HW265489   9.259  12.632   4.426
21239SOL     OW65490  12.129  12.451  12.592
21239SOL    HW165491  12.107  12.368  12.550
21239SOL    HW265492  12.079  12.451  12.673
21240SOL     OW65493   3.361  11.408   8.250
21240SOL    HW165494   3.429  11.341   8.246
21240SOL    HW265495   3.305  11.391   8.174
21241SOL     OW65496   1.106   7.159   7.951
21241SOL    HW165497   1.050   7.232   7.978
21241SOL    HW265498   1.190   7.176   7.994
21242SOL     OW65499   9.621   8.742  10.467
21242SOL    HW165500   9.635   8.650  10.442
21242SOL    HW265501   9.552   8.738  10.534
21243SOL     OW65502  10.342  13.556   2.261
21243SOL    HW165503  10.282  13.624   2.230
21243SOL    HW265504  10.358  13.502   2.183
21244SOL     OW65505   0.287  13.234  11.530
21244SOL    HW165506   0.308  13.195  11.445
21244SOL    HW265507   0.322  13.171  11.594
21245SOL     OW65508  13.520   8.883   2.662
21245SOL    HW165509  13.578   8.955   2.637
21245SOL    HW265510  13.510   8.893   2.757
21246SOL     OW65511   3.640   2.746  12.594
21246SOL    HW165512   3.682   2.824  12.632
21246SOL    HW265513   3.561   2.733  12.647
21247SOL     OW65514  10.079  10.362   3.404
21247SOL    HW165515   9.989  10.362   3.436
21247SOL    HW265516  10.130  10.321   3.474
21248SOL     OW65517   2.520  13.921  10.994
21248SOL    HW165518   2.454  13.989  10.999
21248SOL    HW265519   2.603  13.967  11.007
21249SOL     OW65520   2.595   4.339   1.672
21249SOL    HW165521   2.508   4.380   1.670
21249SOL    HW265522   2.590   4.269   1.608
21250SOL     OW65523   5.772   0.819  12.714
21250SOL    HW165524   5.752   0.753  12.779
21250SOL    HW265525   5.686   0.848  12.682
21251SOL     OW65526  12.548  11.055  12.256
21251SOL    HW165527  12.568  11.055  12.350
21251SOL    HW265528  12.593  10.978  12.222
21252SOL     OW65529   0.039   6.546   9.115
21252SOL    HW165530   0.052   6.480   9.047
21252SOL    HW265531  14.830   6.582   9.096
21253SOL     OW65532  12.736  12.598   1.109
21253SOL    HW165533  12.752  12.539   1.036
21253SOL    HW265534  12.740  12.685   1.071
21254SOL     OW65535   9.421   3.641   0.016
21254SOL    HW165536   9.495   3.583   0.002
21254SOL    HW265537   9.452   3.704   0.081
21255SOL     OW65538   9.123  11.738  10.713
21255SOL    HW165539   9.146  11.692  10.633
21255SOL    HW265540   9.180  11.815  10.714
21256SOL     OW65541  10.565  11.428   3.636
21256SOL    HW165542  10.562  11.455   3.544
21256SOL    HW265543  10.595  11.507   3.682
21257SOL     OW65544   3.535   8.200   9.066
21257SOL    HW165545   3.574   8.185   9.152
21257SOL    HW265546   3.477   8.125   9.052
21258SOL     OW65547   2.044   2.673   2.106
21258SOL    HW165548   2.050   2.748   2.165
21258SOL    HW265549   1.954   2.643   2.116
21259SOL     OW65550   1.645   7.158   0.456
21259SOL    HW165551   1.642   7.073   0.499
21259SOL    HW265552   1.732   7.162   0.416
21260SOL     OW65553   0.852   4.042   2.927
21260SOL    HW165554   0.837   3.951   2.953
21260SOL    HW265555   0.767   4.072   2.896
21261SOL     OW65556   5.383  10.590  12.459
21261SOL    HW165557   5.319  10.632  12.515
21261SOL    HW265558   5.352  10.500  12.450
21262SOL     OW65559  13.786   9.321  10.498
21262SOL    HW165560  13.873   9.351  10.524
21262SOL    HW265561  13.802   9.243  10.445
21263SOL     OW65562  14.769  14.090  11.441
21263SOL    HW165563  14.679  14.103  11.472
21263SOL    HW265564  14.807  14.178  11.442
21264SOL     OW65565   8.759   3.280   0.868
21264SOL    HW165566   8.823   3.347   0.892
21264SOL    HW265567   8.676   3.314   0.901
21265SOL     OW65568   2.924  11.283   6.387
21265SOL    HW165569   2.907  11.373   6.414
21265SOL    HW265570   2.838  11.247   6.365
21266SOL     OW65571   4.824   0.931  11.459
21266SOL    HW165572   4.915   0.921  11.433
21266SOL    HW265573   4.812   0.871  11.532
21267SOL     OW65574  13.589   5.025  11.247
21267SOL    HW165575  13.599   4.994  11.157
21267SOL    HW265576  13.494   5.027  11.261
21268SOL     OW65577   0.998   1.447   5.162
21268SOL    HW165578   0.974   1.511   5.095
21268SOL    HW265579   1.010   1.498   5.242
21269SOL     OW65580   4.239   4.917   8.254
21269SOL    HW165581   4.162   4.939   8.201
21269SOL    HW265582   4.286   4.854   8.201
21270SOL     OW65583  10.105   4.332   3.902
21270SOL    HW165584  10.030   4.356   3.849
21270SOL    HW265585  10.084   4.244   3.935
21271SOL     OW65586   9.692  12.516   8.259
21271SOL    HW165587   9.621  12.540   8.199
21271SOL    HW265588   9.735  12.442   8.217
21272SOL     OW65589   1.367   7.710   5.296
21272SOL    HW165590   1.392   7.799   5.271
21272SOL    HW265591   1.423   7.689   5.371
21273SOL     OW65592  12.018   4.349   0.092
21273SOL    HW165593  11.998   4.442   0.083
21273SOL    HW265594  12.088   4.333   0.028
21274SOL     OW65595  10.041  13.069  12.820
21274SOL    HW165596   9.989  13.095  12.744
21274SOL    HW265597  10.129  13.103  12.800
21275SOL     OW65598   9.268  10.823  13.856
21275SOL    HW165599   9.191  10.787  13.899
21275SOL    HW265600   9.319  10.747  13.829
21276SOL     OW65601   4.319   8.349   7.882
21276SOL    HW165602   4.293   8.314   7.797
21276SOL    HW265603   4.412   8.330   7.889
21277SOL     OW65604  11.879   9.790   1.609
21277SOL    HW165605  11.814   9.725   1.583
21277SOL    HW265606  11.933   9.746   1.675
21278SOL     OW65607   1.079   3.492   0.483
21278SOL    HW165608   1.052   3.572   0.529
21278SOL    HW265609   1.010   3.429   0.502
21279SOL     OW65610  10.718   0.909   7.565
21279SOL    HW165611  10.685   0.916   7.475
21279SOL    HW265612  10.681   0.826   7.596
21280SOL     OW65613  10.285   9.122   2.261
21280SOL    HW165614  10.368   9.136   2.216
21280SOL    HW265615  10.310   9.093   2.349
21281SOL     OW65616   8.491   9.672   3.431
21281SOL    HW165617   8.493   9.582   3.397
21281SOL    HW265618   8.467   9.661   3.523
21282SOL     OW65619   0.827   8.995   8.549
21282SOL    HW165620   0.819   9.085   8.581
21282SOL    HW265621   0.901   8.997   8.488
21283SOL     OW65622   3.299   5.364   2.330
21283SOL    HW165623   3.383   5.349   2.374
21283SOL    HW265624   3.291   5.292   2.267
21284SOL     OW65625   4.995   1.942  14.104
21284SOL    HW165626   4.932   2.014  14.108
21284SOL    HW265627   5.077   1.981  14.136
21285SOL     OW65628   6.721   8.969  12.007
21285SOL    HW165629   6.742   8.969  11.913
21285SOL    HW265630   6.676   9.053  12.021
21286SOL     OW65631  13.711  11.336   8.834
21286SOL    HW165632  13.784  11.275   8.827
21286SOL    HW265633  13.637  11.281   8.863
21287SOL     OW65634  13.597  10.851   8.394
21287SOL    HW165635  13.582  10.810   8.479
21287SOL    HW265636  13.525  10.821   8.339
21288SOL     OW65637   6.799   2.476  11.264
21288SOL    HW165638   6.816   2.513  11.350
21288SOL    HW265639   6.753   2.394  11.281
21289SOL     OW65640   9.027  12.169  11.928
21289SOL    HW165641   9.015  12.074  11.925
21289SOL    HW265642   8.988  12.200  11.846
21290SOL     OW65643   1.657   6.768  11.139
21290SOL    HW165644   1.634   6.676  11.153
21290SOL    HW265645   1.581   6.805  11.095
21291SOL     OW65646   1.704   5.011   3.309
21291SOL    HW165647   1.697   4.940   3.246
21291SOL    HW265648   1.638   4.991   3.375
21292SOL     OW65649  14.844   1.181  13.406
21292SOL    HW165650  14.838   1.272  13.377
21292SOL    HW265651   0.023   1.184  13.483
21293SOL     OW65652   2.789  11.739  14.686
21293SOL    HW165653   2.875  11.710  14.656
21293SOL    HW265654   2.735  11.742  14.607
21294SOL     OW65655   9.380   5.145   2.816
21294SOL    HW165656   9.341   5.062   2.842
21294SOL    HW265657   9.346   5.208   2.879
21295SOL     OW65658   7.233  13.632   4.083
21295SOL    HW165659   7.192  13.553   4.119
21295SOL    HW265660   7.327  13.619   4.098
21296SOL     OW65661  12.319   1.982   6.642
21296SOL    HW165662  12.325   1.938   6.557
21296SOL    HW265663  12.264   1.923   6.694
21297SOL     OW65664   3.751   7.870   7.149
21297SOL    HW165665   3.684   7.802   7.142
21297SOL    HW265666   3.732   7.915   7.231
21298SOL     OW65667   5.741   7.107   7.948
21298SOL    HW165668   5.734   7.051   8.025
21298SOL    HW265669   5.835   7.117   7.934
21299SOL     OW65670   0.895  11.355   7.310
21299SOL    HW165671   0.839  11.317   7.242
21299SOL    HW265672   0.924  11.280   7.363
21300SOL     OW65673   4.917   7.655   2.505
21300SOL    HW165674   4.887   7.723   2.566
21300SOL    HW265675   5.013   7.663   2.506
21301SOL     OW65676  13.317   2.622   3.486
21301SOL    HW165677  13.228   2.587   3.485
21301SOL    HW265678  13.366   2.565   3.426
21302SOL     OW65679   7.668   8.141   4.419
21302SOL    HW165680   7.613   8.207   4.462
21302SOL    HW265681   7.668   8.165   4.327
21303SOL     OW65682   1.740   1.355   5.910
21303SOL    HW165683   1.744   1.288   5.841
21303SOL    HW265684   1.713   1.435   5.864
21304SOL     OW65685   6.320  11.696   8.337
21304SOL    HW165686   6.224  11.694   8.329
21304SOL    HW265687   6.336  11.718   8.429
21305SOL     OW65688   4.456  14.186   4.620
21305SOL    HW165689   4.511  14.168   4.544
21305SOL    HW265690   4.401  14.260   4.593
21306SOL     OW65691  11.664   1.055   3.374
21306SOL    HW165692  11.679   0.990   3.306
21306SOL    HW265693  11.708   1.019   3.451
21307SOL     OW65694   8.332   9.678  12.314
21307SOL    HW165695   8.311   9.593  12.351
21307SOL    HW265696   8.260   9.735  12.343
21308SOL     OW65697   4.366  10.581  13.405
21308SOL    HW165698   4.276  10.558  13.429
21308SOL    HW265699   4.360  10.612  13.315
21309SOL     OW65700   1.164  12.712  10.521
21309SOL    HW165701   1.120  12.796  10.508
21309SOL    HW265702   1.176  12.677  10.432
21310SOL     OW65703   7.600   0.484  12.931
21310SOL    HW165704   7.563   0.407  12.888
21310SOL    HW265705   7.656   0.524  12.865
21311SOL     OW65706  14.145  14.579  13.939
21311SOL    HW165707  14.117  14.669  13.955
21311SOL    HW265708  14.081  14.526  13.988
21312SOL     OW65709  14.259  13.798   9.752
21312SOL    HW165710  14.315  13.756   9.686
21312SOL    HW265711  14.179  13.820   9.704
21313SOL     OW65712  10.868  11.622   0.558
21313SOL    HW165713  10.928  11.614   0.484
21313SOL    HW265714  10.899  11.558   0.622
21314SOL     OW65715   7.049   2.110  12.429
21314SOL    HW165716   6.977   2.172  12.440
21314SOL    HW265717   7.042   2.081  12.338
21315SOL     OW65718   8.962   5.211  11.678
21315SOL    HW165719   9.046   5.218  11.634
21315SOL    HW265720   8.897   5.232  11.610
21316SOL     OW65721   9.539   8.857   3.368
21316SOL    HW165722   9.601   8.791   3.338
21316SOL    HW265723   9.466   8.807   3.403
21317SOL     OW65724   3.422   1.666   1.231
21317SOL    HW165725   3.446   1.580   1.196
21317SOL    HW265726   3.505   1.707   1.252
21318SOL     OW65727   7.290  10.248  11.834
21318SOL    HW165728   7.218  10.191  11.808
21318SOL    HW265729   7.368  10.194  11.827
21319SOL     OW65730   2.467   5.467  13.996
21319SOL    HW165731   2.415   5.533  14.044
21319SOL    HW265732   2.415   5.448  13.918
21320SOL     OW65733   7.331  13.898   1.236
21320SOL    HW165734   7.261  13.964   1.239
21320SOL    HW265735   7.383  13.921   1.159
21321SOL     OW65736  14.686   1.962  13.460
21321SOL    HW165737  14.692   1.891  13.524
21321SOL    HW265738  14.664   1.918  13.378
21322SOL     OW65739   7.689   6.262   4.823
21322SOL    HW165740   7.729   6.181   4.855
21322SOL    HW265741   7.595   6.241   4.818
21323SOL     OW65742   7.896   4.274   4.534
21323SOL    HW165743   7.974   4.220   4.519
21323SOL    HW265744   7.855   4.235   4.611
21324SOL     OW65745   4.581  10.121  12.719
21324SOL    HW165746   4.543  10.041  12.755
21324SOL    HW265747   4.657  10.091  12.669
21325SOL     OW65748   8.872   0.071  12.457
21325SOL    HW165749   8.942   0.115  12.409
21325SOL    HW265750   8.892  14.855  12.448
21326SOL     OW65751  11.083   0.294  13.783
21326SOL    HW165752  10.994   0.265  13.763
21326SOL    HW265753  11.138   0.217  13.765
21327SOL     OW65754  12.989  12.168   5.505
21327SOL    HW165755  12.973  12.083   5.463
21327SOL    HW265756  13.079  12.161   5.538
21328SOL     OW65757  14.723   8.167   9.097
21328SOL    HW165758  14.698   8.208   9.015
21328SOL    HW265759  14.640   8.152   9.143
21329SOL     OW65760   1.228  10.546  12.895
21329SOL    HW165761   1.149  10.562  12.946
21329SOL    HW265762   1.262  10.634  12.876
21330SOL     OW65763   0.234   4.593   3.906
21330SOL    HW165764   0.148   4.565   3.875
21330SOL    HW265765   0.232   4.688   3.901
21331SOL     OW65766   3.195  10.812   0.138
21331SOL    HW165767   3.103  10.783   0.133
21331SOL    HW265768   3.244  10.740   0.098
21332SOL     OW65769  12.485  11.065   7.624
21332SOL    HW165770  12.505  11.116   7.703
21332SOL    HW265771  12.531  11.110   7.554
21333SOL     OW65772   7.497   3.817   0.539
21333SOL    HW165773   7.403   3.836   0.542
21333SOL    HW265774   7.511   3.756   0.611
21334SOL     OW65775   9.760  11.716   9.732
21334SOL    HW165776   9.788  11.682   9.647
21334SOL    HW265777   9.746  11.638   9.786
21335SOL     OW65778   5.003   6.989  10.267
21335SOL    HW165779   5.059   7.047  10.319
21335SOL    HW265780   5.046   6.904  10.272
21336SOL     OW65781  12.968   9.318   4.809
21336SOL    HW165782  12.947   9.288   4.897
21336SOL    HW265783  12.952   9.242   4.753
21337SOL     OW65784  11.622   7.710   5.472
21337SOL    HW165785  11.540   7.667   5.498
21337SOL    HW265786  11.639   7.772   5.543
21338SOL     OW65787   2.266   1.726  12.654
21338SOL    HW165788   2.215   1.665  12.708
21338SOL    HW265789   2.212   1.741  12.577
21339SOL     OW65790   4.391   4.198   8.926
21339SOL    HW165791   4.318   4.240   8.972
21339SOL    HW265792   4.450   4.270   8.905
21340SOL     OW65793  12.885   5.680   0.764
21340SOL    HW165794  12.862   5.739   0.836
21340SOL    HW265795  12.915   5.600   0.806
21341SOL     OW65796  11.984  13.415   6.545
21341SOL    HW165797  12.042  13.383   6.613
21341SOL    HW265798  11.933  13.484   6.587
21342SOL     OW65799   2.664   3.527   5.528
21342SOL    HW165800   2.673   3.433   5.543
21342SOL    HW265801   2.629   3.534   5.439
21343SOL     OW65802   6.468   4.244   1.336
21343SOL    HW165803   6.462   4.151   1.315
21343SOL    HW265804   6.391   4.262   1.389
21344SOL     OW65805   9.988   5.381  11.034
21344SOL    HW165806   9.988   5.475  11.053
21344SOL    HW265807  10.078   5.362  11.007
21345SOL     OW65808   3.585  14.656   5.114
21345SOL    HW165809   3.564  14.564   5.100
21345SOL    HW265810   3.548  14.702   5.039
21346SOL     OW65811  13.798   2.993   9.134
21346SOL    HW165812  13.774   2.966   9.045
21346SOL    HW265813  13.889   3.023   9.125
21347SOL     OW65814  13.556   5.263   5.001
21347SOL    HW165815  13.576   5.357   4.995
21347SOL    HW265816  13.581   5.228   4.916
21348SOL     OW65817   2.019   4.144   3.677
21348SOL    HW165818   1.938   4.179   3.713
21348SOL    HW265819   2.070   4.221   3.651
21349SOL     OW65820   6.538  13.334  11.100
21349SOL    HW165821   6.614  13.383  11.130
21349SOL    HW265822   6.486  13.319  11.179
21350SOL     OW65823  13.378   5.100  12.677
21350SOL    HW165824  13.422   5.184  12.689
21350SOL    HW265825  13.450   5.036  12.678
21351SOL     OW65826  11.885   2.522  13.054
21351SOL    HW165827  11.836   2.566  13.124
21351SOL    HW265828  11.930   2.593  13.008
21352SOL     OW65829  11.231   6.670   1.086
21352SOL    HW165830  11.324   6.682   1.064
21352SOL    HW265831  11.219   6.576   1.089
21353SOL     OW65832   3.642   2.538   5.111
21353SOL    HW165833   3.653   2.587   5.193
21353SOL    HW265834   3.711   2.572   5.054
21354SOL     OW65835  12.281   3.473   5.545
21354SOL    HW165836  12.346   3.480   5.615
21354SOL    HW265837  12.207   3.526   5.575
21355SOL     OW65838   6.358   3.462   4.107
21355SOL    HW165839   6.399   3.409   4.039
21355SOL    HW265840   6.409   3.444   4.185
21356SOL     OW65841   5.373  13.232  11.803
21356SOL    HW165842   5.408  13.153  11.844
21356SOL    HW265843   5.385  13.217  11.709
21357SOL     OW65844  14.093   0.725   4.033
21357SOL    HW165845  14.140   0.644   4.053
21357SOL    HW265846  14.095   0.731   3.938
21358SOL     OW65847  12.780   6.006   9.528
21358SOL    HW165848  12.860   5.953   9.526
21358SOL    HW265849  12.726   5.964   9.595
21359SOL     OW65850   2.829   8.541   0.408
21359SOL    HW165851   2.753   8.548   0.465
21359SOL    HW265852   2.795   8.560   0.320
21360SOL     OW65853   4.153  11.007   6.338
21360SOL    HW165854   4.099  10.973   6.409
21360SOL    HW265855   4.233  10.954   6.341
21361SOL     OW65856  14.679   1.124   2.300
21361SOL    HW165857  14.693   1.122   2.205
21361SOL    HW265858  14.622   1.200   2.314
21362SOL     OW65859   2.571   8.490  12.140
21362SOL    HW165860   2.517   8.412  12.149
21362SOL    HW265861   2.642   8.463  12.082
21363SOL     OW65862  12.319   5.795   4.529
21363SOL    HW165863  12.305   5.711   4.573
21363SOL    HW265864  12.398   5.831   4.568
21364SOL     OW65865   4.001   3.156   4.255
21364SOL    HW165866   3.963   3.154   4.343
21364SOL    HW265867   3.996   3.065   4.225
21365SOL     OW65868   7.129  11.804   8.057
21365SOL    HW165869   7.120  11.719   8.100
21365SOL    HW265870   7.084  11.865   8.115
21366SOL     OW65871  13.278  11.343   6.624
21366SOL    HW165872  13.313  11.426   6.591
21366SOL    HW265873  13.356  11.289   6.641
21367SOL     OW65874   0.038  10.749   8.258
21367SOL    HW165875   0.050  10.721   8.349
21367SOL    HW265876   0.062  10.673   8.206
21368SOL     OW65877   6.515   1.813   3.264
21368SOL    HW165878   6.594   1.774   3.302
21368SOL    HW265879   6.546   1.897   3.228
21369SOL     OW65880   6.895   8.853   7.178
21369SOL    HW165881   6.936   8.766   7.181
21369SOL    HW265882   6.914   8.886   7.090
21370SOL     OW65883   4.945   7.862  11.060
21370SOL    HW165884   4.999   7.848  11.138
21370SOL    HW265885   4.873   7.918  11.089
21371SOL     OW65886  14.861   2.978   2.267
21371SOL    HW165887  14.797   2.912   2.239
21371SOL    HW265888  14.868   2.966   2.361
21372SOL     OW65889   5.061   6.351  11.046
21372SOL    HW165890   5.021   6.432  11.017
21372SOL    HW265891   5.098   6.312  10.967
21373SOL     OW65892   7.492  13.500  14.418
21373SOL    HW165893   7.532  13.456  14.343
21373SOL    HW265894   7.531  13.458  14.494
21374SOL     OW65895   3.866  13.250  12.862
21374SOL    HW165896   3.792  13.276  12.917
21374SOL    HW265897   3.834  13.175  12.812
21375SOL     OW65898  11.974   3.695   4.102
21375SOL    HW165899  11.914   3.711   4.175
21375SOL    HW265900  12.061   3.711   4.139
21376SOL     OW65901   0.568   6.533   6.426
21376SOL    HW165902   0.580   6.440   6.446
21376SOL    HW265903   0.624   6.549   6.350
21377SOL     OW65904   4.247   9.900  14.039
21377SOL    HW165905   4.327   9.935  13.999
21377SOL    HW265906   4.207   9.976  14.082
21378SOL     OW65907   1.244  10.272   3.139
21378SOL    HW165908   1.294  10.223   3.204
21378SOL    HW265909   1.297  10.351   3.122
21379SOL     OW65910   6.906  13.680  12.511
21379SOL    HW165911   6.985  13.629  12.495
21379SOL    HW265912   6.937  13.771  12.514
21380SOL     OW65913   6.999  13.933   6.743
21380SOL    HW165914   6.984  14.000   6.676
21380SOL    HW265915   6.924  13.942   6.803
21381SOL     OW65916   3.202   3.483   7.526
21381SOL    HW165917   3.131   3.422   7.547
21381SOL    HW265918   3.167   3.569   7.551
21382SOL     OW65919   4.691   0.360   5.018
21382SOL    HW165920   4.630   0.411   5.071
21382SOL    HW265921   4.640   0.284   4.989
21383SOL     OW65922  10.557  10.001  11.003
21383SOL    HW165923  10.505   9.923  10.984
21383SOL    HW265924  10.604   9.980  11.084
21384SOL     OW65925   4.941   4.550   5.872
21384SOL    HW165926   4.960   4.622   5.811
21384SOL    HW265927   4.966   4.583   5.958
21385SOL     OW65928   2.600   1.246   1.719
21385SOL    HW165929   2.594   1.155   1.747
21385SOL    HW265930   2.679   1.280   1.761
21386SOL     OW65931   8.571   4.713   7.404
21386SOL    HW165932   8.606   4.787   7.453
21386SOL    HW265933   8.603   4.726   7.315
21387SOL     OW65934  13.359   5.880   7.662
21387SOL    HW165935  13.441   5.915   7.697
21387SOL    HW265936  13.373   5.785   7.660
21388SOL     OW65937  11.491   0.903   1.992
21388SOL    HW165938  11.566   0.902   2.052
21388SOL    HW265939  11.417   0.925   2.047
21389SOL     OW65940   2.999   7.774   6.205
21389SOL    HW165941   3.094   7.787   6.207
21389SOL    HW265942   2.980   7.749   6.115
21390SOL     OW65943   9.450   1.234   4.521
21390SOL    HW165944   9.520   1.267   4.464
21390SOL    HW265945   9.491   1.162   4.569
21391SOL     OW65946   7.506   5.270   5.239
21391SOL    HW165947   7.466   5.249   5.324
21391SOL    HW265948   7.593   5.231   5.244
21392SOL     OW65949   7.271  12.996  10.122
21392SOL    HW165950   7.317  12.920  10.087
21392SOL    HW265951   7.217  13.027  10.050
21393SOL     OW65952   7.358  14.844   3.652
21393SOL    HW165953   7.383   0.032   3.718
21393SOL    HW265954   7.328  14.769   3.704
21394SOL     OW65955   4.120  10.251   7.096
21394SOL    HW165956   4.109  10.157   7.101
21394SOL    HW265957   4.195  10.263   7.037
21395SOL     OW65958   3.424  10.611   8.766
21395SOL    HW165959   3.454  10.610   8.675
21395SOL    HW265960   3.346  10.667   8.765
21396SOL     OW65961   1.498   7.976   6.478
21396SOL    HW165962   1.562   8.042   6.454
21396SOL    HW265963   1.422   8.025   6.508
21397SOL     OW65964   5.143   0.325  10.066
21397SOL    HW165965   5.142   0.289  10.154
21397SOL    HW265966   5.234   0.319  10.038
21398SOL     OW65967   9.576  12.896   0.546
21398SOL    HW165968   9.557  12.907   0.639
21398SOL    HW265969   9.672  12.901   0.541
21399SOL     OW65970   7.759   8.209  11.316
21399SOL    HW165971   7.732   8.177  11.402
21399SOL    HW265972   7.677   8.228  11.270
21400SOL     OW65973   6.623   9.443   5.083
21400SOL    HW165974   6.551   9.506   5.072
21400SOL    HW265975   6.579   9.361   5.104
21401SOL     OW65976   6.215   3.468  12.833
21401SOL    HW165977   6.128   3.484  12.870
21401SOL    HW265978   6.227   3.536  12.767
21402SOL     OW65979  10.997  10.343  10.394
21402SOL    HW165980  10.974  10.428  10.433
21402SOL    HW265981  11.063  10.306  10.451
21403SOL     OW65982   9.131   3.393   7.231
21403SOL    HW165983   9.186   3.391   7.152
21403SOL    HW265984   9.140   3.305   7.267
21404SOL     OW65985  12.368   6.890   8.797
21404SOL    HW165986  12.460   6.913   8.796
21404SOL    HW265987  12.365   6.799   8.765
21405SOL     OW65988   2.233  11.108   7.209
21405SOL    HW165989   2.179  11.151   7.276
21405SOL    HW265990   2.276  11.036   7.255
21406SOL     OW65991  12.294  11.515   9.851
21406SOL    HW165992  12.301  11.604   9.885
21406SOL    HW265993  12.310  11.523   9.757
21407SOL     OW65994   4.476   4.898  14.630
21407SOL    HW165995   4.410   4.948  14.678
21407SOL    HW265996   4.459   4.807  14.652
21408SOL     OW65997   3.735   7.013   2.641
21408SOL    HW165998   3.642   7.027   2.624
21408SOL    HW265999   3.738   6.934   2.694
21409SOL     OW66000  12.456   6.694   3.219
21409SOL    HW166001  12.385   6.689   3.283
21409SOL    HW266002  12.518   6.756   3.257
21410SOL     OW66003  11.020   3.438   8.077
21410SOL    HW166004  10.984   3.495   8.009
21410SOL    HW266005  11.063   3.498   8.139
21411SOL     OW66006  10.322   8.570  11.808
21411SOL    HW166007  10.266   8.493  11.802
21411SOL    HW266008  10.276   8.637  11.757
21412SOL     OW66009   0.348   6.925  14.815
21412SOL    HW166010   0.376   7.005  14.859
21412SOL    HW266011   0.253   6.926  14.822
21413SOL     OW66012  13.870   2.781   8.045
21413SOL    HW166013  13.876   2.728   7.965
21413SOL    HW266014  13.955   2.772   8.086
21414SOL     OW66015   4.614  14.560   7.780
21414SOL    HW166016   4.608  14.654   7.799
21414SOL    HW266017   4.524  14.533   7.764
21415SOL     OW66018  13.827  11.077  11.375
21415SOL    HW166019  13.766  11.128  11.429
21415SOL    HW266020  13.896  11.050  11.435
21416SOL     OW66021   0.568   5.584  13.621
21416SOL    HW166022   0.592   5.641  13.548
21416SOL    HW266023   0.472   5.580  13.617
21417SOL     OW66024  12.494   4.237  11.309
21417SOL    HW166025  12.483   4.332  11.303
21417SOL    HW266026  12.560   4.216  11.242
21418SOL     OW66027   7.355   3.166  10.913
21418SOL    HW166028   7.304   3.180  10.992
21418SOL    HW266029   7.290   3.150  10.845
21419SOL     OW66030   5.391   6.178   6.427
21419SOL    HW166031   5.356   6.114   6.365
21419SOL    HW266032   5.484   6.157   6.432
21420SOL     OW66033  11.090  10.502  11.171
21420SOL    HW166034  11.145  10.574  11.140
21420SOL    HW266035  11.000  10.530  11.151
21421SOL     OW66036  11.652   2.552   6.070
21421SOL    HW166037  11.637   2.558   5.976
21421SOL    HW266038  11.592   2.616   6.108
21422SOL     OW66039   8.209   4.037   9.329
21422SOL    HW166040   8.282   4.026   9.389
21422SOL    HW266041   8.133   4.007   9.378
21423SOL     OW66042   9.380  11.902   7.703
21423SOL    HW166043   9.436  11.974   7.731
21423SOL    HW266044   9.313  11.895   7.771
21424SOL     OW66045   8.678  11.862   3.755
21424SOL    HW166046   8.650  11.882   3.666
21424SOL    HW266047   8.773  11.859   3.751
21425SOL     OW66048   1.378   1.018   0.243
21425SOL    HW166049   1.362   0.958   0.171
21425SOL    HW266050   1.430   0.968   0.306
21426SOL     OW66051   1.617  12.012   9.761
21426SOL    HW166052   1.677  12.057   9.701
21426SOL    HW266053   1.673  11.981   9.832
21427SOL     OW66054   3.862   0.467   0.218
21427SOL    HW166055   3.818   0.386   0.245
21427SOL    HW266056   3.804   0.537   0.248
21428SOL     OW66057   4.614   4.554   7.949
21428SOL    HW166058   4.682   4.502   7.992
21428SOL    HW266059   4.583   4.498   7.877
21429SOL     OW66060  13.582  13.363   9.668
21429SOL    HW166061  13.512  13.426   9.652
21429SOL    HW266062  13.659  13.400   9.624
21430SOL     OW66063   0.371   3.058  12.448
21430SOL    HW166064   0.370   3.075  12.542
21430SOL    HW266065   0.392   3.143  12.409
21431SOL     OW66066   0.373   4.696   5.045
21431SOL    HW166067   0.337   4.650   5.121
21431SOL    HW266068   0.402   4.626   4.986
21432SOL     OW66069   0.213   4.134   8.656
21432SOL    HW166070   0.206   4.046   8.694
21432SOL    HW266071   0.127   4.149   8.615
21433SOL     OW66072  14.445   9.708   8.315
21433SOL    HW166073  14.499   9.741   8.243
21433SOL    HW266074  14.413   9.787   8.359
21434SOL     OW66075   7.254   6.214  13.298
21434SOL    HW166076   7.254   6.118  13.303
21434SOL    HW266077   7.321   6.242  13.360
21435SOL     OW66078  13.262   7.868   0.851
21435SOL    HW166079  13.310   7.808   0.794
21435SOL    HW266080  13.187   7.896   0.799
21436SOL     OW66081  13.003   5.078   7.061
21436SOL    HW166082  13.024   5.146   7.125
21436SOL    HW266083  12.999   4.997   7.112
21437SOL     OW66084   7.053   0.845  10.578
21437SOL    HW166085   7.014   0.928  10.549
21437SOL    HW266086   6.986   0.779  10.557
21438SOL     OW66087   1.699   6.236   2.098
21438SOL    HW166088   1.743   6.190   2.027
21438SOL    HW266089   1.742   6.204   2.178
21439SOL     OW66090   7.069  13.973  11.247
21439SOL    HW166091   7.086  14.060  11.211
21439SOL    HW266092   7.069  13.915  11.171
21440SOL     OW66093  11.769   0.325  13.718
21440SOL    HW166094  11.788   0.231  13.718
21440SOL    HW266095  11.800   0.356  13.633
21441SOL     OW66096  10.748   8.621  13.420
21441SOL    HW166097  10.687   8.607  13.348
21441SOL    HW266098  10.695   8.660  13.489
21442SOL     OW66099   4.613  11.649  11.228
21442SOL    HW166100   4.532  11.671  11.273
21442SOL    HW266101   4.638  11.729  11.181
21443SOL     OW66102   0.356   6.202   8.567
21443SOL    HW166103   0.287   6.266   8.547
21443SOL    HW266104   0.399   6.237   8.645
21444SOL     OW66105   1.073   0.319  13.466
21444SOL    HW166106   1.152   0.298  13.416
21444SOL    HW266107   1.089   0.406  13.501
21445SOL     OW66108   3.809   2.973   5.971
21445SOL    HW166109   3.809   2.918   6.049
21445SOL    HW266110   3.878   3.037   5.987
21446SOL     OW66111   7.210  10.148   9.613
21446SOL    HW166112   7.238  10.115   9.698
21446SOL    HW266113   7.151  10.221   9.634
21447SOL     OW66114   0.285  14.193   2.840
21447SOL    HW166115   0.269  14.261   2.775
21447SOL    HW266116   0.219  14.126   2.821
21448SOL     OW66117  12.574  11.017   4.357
21448SOL    HW166118  12.520  11.095   4.343
21448SOL    HW266119  12.602  11.024   4.448
21449SOL     OW66120   4.285   2.045   3.371
21449SOL    HW166121   4.268   1.968   3.425
21449SOL    HW266122   4.380   2.047   3.361
21450SOL     OW66123  10.629   8.398  11.946
21450SOL    HW166124  10.631   8.444  12.030
21450SOL    HW266125  10.648   8.466  11.881
21451SOL     OW66126   6.933   6.171   0.043
21451SOL    HW166127   6.937   6.256   0.087
21451SOL    HW266128   6.999   6.118   0.087
21452SOL     OW66129  11.094   8.103   9.056
21452SOL    HW166130  11.174   8.131   9.100
21452SOL    HW266131  11.099   8.141   8.969
21453SOL     OW66132  13.803  10.551  11.293
21453SOL    HW166133  13.797  10.614  11.366
21453SOL    HW266134  13.797  10.606  11.214
21454SOL     OW66135  13.931   9.148   4.712
21454SOL    HW166136  13.904   9.106   4.794
21454SOL    HW266137  13.853   9.143   4.656
21455SOL     OW66138   8.401   4.194  13.728
21455SOL    HW166139   8.462   4.172  13.799
21455SOL    HW266140   8.457   4.206  13.651
21456SOL     OW66141  12.782  11.550  14.860
21456SOL    HW166142  12.725  11.473  14.860
21456SOL    HW266143  12.838  11.538  14.783
21457SOL     OW66144  13.495   1.107  11.961
21457SOL    HW166145  13.542   1.152  11.891
21457SOL    HW266146  13.544   1.026  11.974
21458SOL     OW66147   6.662   8.015   2.306
21458SOL    HW166148   6.681   8.047   2.394
21458SOL    HW266149   6.703   8.078   2.248
21459SOL     OW66150  12.076  14.748   4.587
21459SOL    HW166151  12.078  14.720   4.679
21459SOL    HW266152  12.163  14.784   4.571
21460SOL     OW66153   5.890   9.610  12.131
21460SOL    HW166154   5.882   9.609  12.036
21460SOL    HW266155   5.824   9.547  12.162
21461SOL     OW66156   2.553  10.042   7.684
21461SOL    HW166157   2.506   9.960   7.701
21461SOL    HW266158   2.541  10.093   7.765
21462SOL     OW66159  12.069   0.230   0.471
21462SOL    HW166160  12.061   0.189   0.385
21462SOL    HW266161  12.128   0.173   0.520
21463SOL     OW66162  12.523  11.650   7.047
21463SOL    HW166163  12.491  11.592   6.978
21463SOL    HW266164  12.547  11.731   7.001
21464SOL     OW66165  12.720   8.726   3.006
21464SOL    HW166166  12.784   8.717   3.077
21464SOL    HW266167  12.655   8.657   3.024
21465SOL     OW66168   3.397   1.484   0.918
21465SOL    HW166169   3.398   1.551   0.849
21465SOL    HW266170   3.305   1.472   0.939
21466SOL     OW66171  10.322   2.884   6.206
21466SOL    HW166172  10.307   2.904   6.114
21466SOL    HW266173  10.398   2.826   6.206
21467SOL     OW66174   8.759   2.441   9.036
21467SOL    HW166175   8.744   2.520   8.984
21467SOL    HW266176   8.673   2.418   9.069
21468SOL     OW66177   5.342   5.997  10.845
21468SOL    HW166178   5.286   5.978  10.770
21468SOL    HW266179   5.396   6.070  10.817
21469SOL     OW66180  13.041  13.462   6.857
21469SOL    HW166181  12.999  13.546   6.872
21469SOL    HW266182  13.121  13.482   6.808
21470SOL     OW66183   2.871   6.260   5.273
21470SOL    HW166184   2.921   6.341   5.282
21470SOL    HW266185   2.836   6.243   5.360
21471SOL     OW66186  10.184  10.375   4.366
21471SOL    HW166187  10.122  10.352   4.435
21471SOL    HW266188  10.211  10.290   4.330
21472SOL     OW66189   2.635   6.746  12.998
21472SOL    HW166190   2.692   6.816  13.030
21472SOL    HW266191   2.649   6.745  12.903
21473SOL     OW66192   8.412  11.016  10.662
21473SOL    HW166193   8.441  11.103  10.691
21473SOL    HW266194   8.388  10.971  10.744
21474SOL     OW66195   2.724   4.838   7.898
21474SOL    HW166196   2.634   4.839   7.928
21474SOL    HW266197   2.761   4.921   7.927
21475SOL     OW66198   8.065   5.064  12.984
21475SOL    HW166199   7.990   5.030  13.034
21475SOL    HW266200   8.040   5.153  12.960
21476SOL     OW66201  14.518   6.519   4.314
21476SOL    HW166202  14.571   6.443   4.290
21476SOL    HW266203  14.524   6.578   4.239
21477SOL     OW66204   4.544   8.216   5.893
21477SOL    HW166205   4.526   8.186   5.982
21477SOL    HW266206   4.555   8.311   5.901
21478SOL     OW66207   3.593  13.471   2.739
21478SOL    HW166208   3.621  13.555   2.704
21478SOL    HW266209   3.596  13.411   2.665
21479SOL     OW66210   9.897  12.688  14.113
21479SOL    HW166211   9.803  12.674  14.123
21479SOL    HW266212   9.937  12.607  14.146
21480SOL     OW66213   5.996   7.637   5.980
21480SOL    HW166214   5.906   7.622   6.009
21480SOL    HW266215   6.000   7.731   5.962
21481SOL     OW66216   5.919  14.757  14.135
21481SOL    HW166217   5.859  14.832  14.141
21481SOL    HW266218   6.001  14.789  14.172
21482SOL     OW66219   5.076   0.576  13.405
21482SOL    HW166220   5.033   0.581  13.491
21482SOL    HW266221   5.010   0.610  13.344
21483SOL     OW66222   0.167   0.756  10.521
21483SOL    HW166223   0.190   0.663  10.525
21483SOL    HW266224   0.180   0.780  10.430
21484SOL     OW66225   7.242   7.646   3.134
21484SOL    HW166226   7.307   7.619   3.199
21484SOL    HW266227   7.164   7.668   3.186
21485SOL     OW66228   4.167   4.106  13.880
21485SOL    HW166229   4.128   4.032  13.928
21485SOL    HW266230   4.216   4.066  13.809
21486SOL     OW66231   2.615  12.366   0.306
21486SOL    HW166232   2.634  12.325   0.221
21486SOL    HW266233   2.520  12.374   0.308
21487SOL     OW66234  14.225   1.573  13.236
21487SOL    HW166235  14.188   1.642  13.180
21487SOL    HW266236  14.252   1.504  13.175
21488SOL     OW66237   8.759  10.783   1.368
21488SOL    HW166238   8.849  10.814   1.379
21488SOL    HW266239   8.719  10.797   1.454
21489SOL     OW66240   9.906  11.359   5.902
21489SOL    HW166241   9.947  11.293   5.846
21489SOL    HW266242   9.857  11.414   5.842
21490SOL     OW66243   2.370   6.246   6.253
21490SOL    HW166244   2.429   6.180   6.290
21490SOL    HW266245   2.282   6.211   6.266
21491SOL     OW66246  11.474  13.767  10.582
21491SOL    HW166247  11.407  13.835  10.581
21491SOL    HW266248  11.473  13.732  10.492
21492SOL     OW66249  12.520   5.245  14.567
21492SOL    HW166250  12.433   5.256  14.604
21492SOL    HW266251  12.515   5.163  14.516
21493SOL     OW66252   6.629   6.388  10.548
21493SOL    HW166253   6.608   6.409  10.639
21493SOL    HW266254   6.607   6.467  10.500
21494SOL     OW66255  10.483  14.175   7.876
21494SOL    HW166256  10.482  14.081   7.856
21494SOL    HW266257  10.445  14.216   7.798
21495SOL     OW66258   0.595   2.040   4.735
21495SOL    HW166259   0.574   1.946   4.735
21495SOL    HW266260   0.554   2.073   4.814
21496SOL     OW66261  11.432  12.844  12.462
21496SOL    HW166262  11.493  12.878  12.397
21496SOL    HW266263  11.367  12.796  12.412
21497SOL     OW66264  13.398  10.896   7.455
21497SOL    HW166265  13.458  10.965   7.423
21497SOL    HW266266  13.423  10.818   7.405
21498SOL     OW66267   5.590   6.751   8.795
21498SOL    HW166268   5.556   6.840   8.787
21498SOL    HW266269   5.522   6.696   8.755
21499SOL     OW66270  10.145   6.268   2.103
21499SOL    HW166271  10.128   6.178   2.131
21499SOL    HW266272  10.095   6.277   2.022
21500SOL     OW66273   2.069   2.832   8.231
21500SOL    HW166274   2.060   2.913   8.180
21500SOL    HW266275   2.083   2.862   8.321
21501SOL     OW66276   0.518   7.975   7.519
21501SOL    HW166277   0.464   8.005   7.446
21501SOL    HW266278   0.607   7.974   7.484
21502SOL     OW66279   6.974   4.347   2.751
21502SOL    HW166280   6.982   4.330   2.845
21502SOL    HW266281   7.061   4.375   2.724
21503SOL     OW66282   3.129   4.443   9.369
21503SOL    HW166283   3.205   4.386   9.357
21503SOL    HW266284   3.063   4.408   9.310
21504SOL     OW66285   1.275   0.335  13.905
21504SOL    HW166286   1.229   0.288  13.835
21504SOL    HW266287   1.355   0.286  13.919
21505SOL     OW66288   2.373   6.303   4.758
21505SOL    HW166289   2.306   6.276   4.696
21505SOL    HW266290   2.358   6.397   4.771
21506SOL     OW66291  11.834   3.283  10.951
21506SOL    HW166292  11.914   3.323  10.915
21506SOL    HW266293  11.767   3.300  10.885
21507SOL     OW66294  11.838   2.571   1.828
21507SOL    HW166295  11.928   2.598   1.811
21507SOL    HW266296  11.846   2.499   1.890
21508SOL     OW66297  13.198  11.675   9.158
21508SOL    HW166298  13.135  11.671   9.086
21508SOL    HW266299  13.156  11.627   9.230
21509SOL     OW66300   6.229  10.131  11.781
21509SOL    HW166301   6.168  10.205  11.791
21509SOL    HW266302   6.186  10.058  11.825
21510SOL     OW66303   1.784   6.315   0.574
21510SOL    HW166304   1.756   6.368   0.500
21510SOL    HW266305   1.710   6.256   0.591
21511SOL     OW66306   7.740   5.638   1.155
21511SOL    HW166307   7.835   5.627   1.154
21511SOL    HW266308   7.706   5.550   1.137
21512SOL     OW66309   2.679   6.333   9.059
21512SOL    HW166310   2.615   6.350   8.989
21512SOL    HW266311   2.758   6.304   9.013
21513SOL     OW66312  11.399  13.843  13.216
21513SOL    HW166313  11.448  13.790  13.279
21513SOL    HW266314  11.307  13.828  13.238
21514SOL     OW66315   6.799   9.887  10.476
21514SOL    HW166316   6.876   9.833  10.496
21514SOL    HW266317   6.756   9.842  10.404
21515SOL     OW66318   4.611  10.465  10.903
21515SOL    HW166319   4.603  10.560  10.890
21515SOL    HW266320   4.670  10.457  10.979
21516SOL     OW66321  14.127   0.218   4.041
21516SOL    HW166322  14.150   0.129   4.066
21516SOL    HW266323  14.160   0.228   3.952
21517SOL     OW66324   3.252   8.531   3.649
21517SOL    HW166325   3.307   8.476   3.705
21517SOL    HW266326   3.309   8.558   3.577
21518SOL     OW66327   4.944   6.265   2.864
21518SOL    HW166328   4.954   6.229   2.775
21518SOL    HW266329   4.881   6.336   2.853
21519SOL     OW66330  12.847   3.698  13.695
21519SOL    HW166331  12.823   3.679  13.785
21519SOL    HW266332  12.941   3.714  13.697
21520SOL     OW66333   3.359  12.157  10.655
21520SOL    HW166334   3.434  12.179  10.600
21520SOL    HW266335   3.397  12.132  10.739
21521SOL     OW66336  11.632   3.667  11.926
21521SOL    HW166337  11.653   3.644  11.836
21521SOL    HW266338  11.695   3.617  11.978
21522SOL     OW66339   9.503   2.794   4.183
21522SOL    HW166340   9.423   2.751   4.212
21522SOL    HW266341   9.547   2.729   4.128
21523SOL     OW66342   4.691   4.126  12.121
21523SOL    HW166343   4.751   4.051  12.125
21523SOL    HW266344   4.709   4.166  12.036
21524SOL     OW66345   5.025   2.426   0.501
21524SOL    HW166346   4.947   2.477   0.521
21524SOL    HW266347   5.002   2.336   0.524
21525SOL     OW66348   3.258   6.298  11.640
21525SOL    HW166349   3.185   6.268  11.694
21525SOL    HW266350   3.276   6.387  11.672
21526SOL     OW66351  11.358   9.993  12.086
21526SOL    HW166352  11.283   9.933  12.080
21526SOL    HW266353  11.347  10.051  12.011
21527SOL     OW66354   4.431   1.477  14.512
21527SOL    HW166355   4.442   1.430  14.595
21527SOL    HW266356   4.358   1.433  14.469
21528SOL     OW66357  12.287   3.912   8.978
21528SOL    HW166358  12.241   3.829   8.973
21528SOL    HW266359  12.380   3.889   8.978
21529SOL     OW66360  11.284   5.749   7.825
21529SOL    HW166361  11.243   5.666   7.801
21529SOL    HW266362  11.212   5.807   7.848
21530SOL     OW66363   4.261  13.908   9.005
21530SOL    HW166364   4.335  13.903   9.066
21530SOL    HW266365   4.280  13.842   8.939
21531SOL     OW66366  12.831  13.888  12.665
21531SOL    HW166367  12.896  13.889  12.736
21531SOL    HW266368  12.825  13.795  12.640
21532SOL     OW66369  10.212   1.450   3.545
21532SOL    HW166370  10.249   1.445   3.634
21532SOL    HW266371  10.126   1.409   3.553
21533SOL     OW66372   2.226  14.603   7.224
21533SOL    HW166373   2.235  14.508   7.218
21533SOL    HW266374   2.247  14.623   7.315
21534SOL     OW66375   9.475   0.576  11.018
21534SOL    HW166376   9.549   0.601  11.073
21534SOL    HW266377   9.511   0.572  10.929
21535SOL     OW66378   4.517  12.696   0.834
21535SOL    HW166379   4.547  12.642   0.761
21535SOL    HW266380   4.496  12.632   0.903
21536SOL     OW66381   6.262  14.815   3.122
21536SOL    HW166382   6.338  14.786   3.173
21536SOL    HW266383   6.193  14.752   3.142
21537SOL     OW66384   4.390  12.043  12.158
21537SOL    HW166385   4.485  12.044  12.164
21537SOL    HW266386   4.371  11.969  12.100
21538SOL     OW66387  12.834   1.111   0.433
21538SOL    HW166388  12.810   1.021   0.455
21538SOL    HW266389  12.839   1.156   0.518
21539SOL     OW66390  13.136  14.318   6.616
21539SOL    HW166391  13.206  14.380   6.597
21539SOL    HW266392  13.176  14.253   6.674
21540SOL     OW66393  11.272  10.597   6.962
21540SOL    HW166394  11.194  10.652   6.967
21540SOL    HW266395  11.243  10.519   6.915
21541SOL     OW66396   5.055   5.138   8.381
21541SOL    HW166397   5.091   5.224   8.402
21541SOL    HW266398   5.022   5.147   8.291
21542SOL     OW66399  10.346  13.968   7.554
21542SOL    HW166400  10.354  13.965   7.649
21542SOL    HW266401  10.291  14.044   7.537
21543SOL     OW66402   5.369   6.113   1.447
21543SOL    HW166403   5.329   6.186   1.400
21543SOL    HW266404   5.318   6.037   1.421
21544SOL     OW66405  10.697   2.104   9.031
21544SOL    HW166406  10.633   2.041   9.063
21544SOL    HW266407  10.724   2.070   8.946
21545SOL     OW66408  13.884  10.787   3.950
21545SOL    HW166409  13.812  10.735   3.914
21545SOL    HW266410  13.921  10.832   3.874
21546SOL     OW66411   5.433   0.114   5.408
21546SOL    HW166412   5.430   0.201   5.449
21546SOL    HW266413   5.341   0.088   5.401
21547SOL     OW66414   9.528  12.733   1.156
21547SOL    HW166415   9.622  12.747   1.142
21547SOL    HW266416   9.491  12.736   1.068
21548SOL     OW66417   1.620   3.416   3.092
21548SOL    HW166418   1.670   3.375   3.021
21548SOL    HW266419   1.651   3.506   3.094
21549SOL     OW66420   0.564  11.168  14.124
21549SOL    HW166421   0.528  11.116  14.195
21549SOL    HW266422   0.659  11.163  14.137
21550SOL     OW66423   8.826  11.791   8.541
21550SOL    HW166424   8.820  11.730   8.614
21550SOL    HW266425   8.737  11.825   8.530
21551SOL     OW66426   5.144  11.155   9.498
21551SOL    HW166427   5.176  11.126   9.413
21551SOL    HW266428   5.223  11.162   9.552
21552SOL     OW66429  14.060   2.139   2.702
21552SOL    HW166430  13.976   2.095   2.693
21552SOL    HW266431  14.048   2.223   2.657
21553SOL     OW66432   9.464   1.337  11.996
21553SOL    HW166433   9.548   1.311  12.035
21553SOL    HW266434   9.483   1.349  11.903
21554SOL     OW66435   7.012   9.263   9.298
21554SOL    HW166436   7.049   9.233   9.215
21554SOL    HW266437   7.071   9.228   9.365
21555SOL     OW66438   2.068   3.843   1.156
21555SOL    HW166439   1.985   3.881   1.182
21555SOL    HW266440   2.044   3.759   1.117
21556SOL     OW66441   8.148   7.553   2.934
21556SOL    HW166442   8.107   7.542   3.020
21556SOL    HW266443   8.242   7.554   2.952
21557SOL     OW66444   2.497   5.849   9.638
21557SOL    HW166445   2.525   5.890   9.720
21557SOL    HW266446   2.571   5.793   9.614
21558SOL     OW66447   9.418   1.083  12.796
21558SOL    HW166448   9.396   1.096  12.704
21558SOL    HW266449   9.388   0.995  12.816
21559SOL     OW66450   0.487   0.561   6.824
21559SOL    HW166451   0.525   0.502   6.889
21559SOL    HW266452   0.558   0.622   6.803
21560SOL     OW66453  14.858  12.812   0.804
21560SOL    HW166454  14.767  12.796   0.779
21560SOL    HW266455   0.021  12.726   0.806
21561SOL     OW66456   7.166  10.006   1.444
21561SOL    HW166457   7.130  10.042   1.525
21561SOL    HW266458   7.259   9.993   1.463
21562SOL     OW66459  13.522  12.194   0.262
21562SOL    HW166460  13.608  12.158   0.241
21562SOL    HW266461  13.541  12.278   0.305
21563SOL     OW66462  12.476  12.466  13.068
21563SOL    HW166463  12.418  12.419  13.127
21563SOL    HW266464  12.425  12.479  12.989
21564SOL     OW66465   9.545  14.286   0.931
21564SOL    HW166466   9.622  14.333   0.900
21564SOL    HW266467   9.490  14.352   0.972
21565SOL     OW66468   8.938   9.869   4.214
21565SOL    HW166469   8.932   9.813   4.292
21565SOL    HW266470   8.864   9.841   4.160
21566SOL     OW66471  10.929  14.629   3.936
21566SOL    HW166472  10.869  14.696   3.906
21566SOL    HW266473  10.939  14.570   3.862
21567SOL     OW66474   0.654   4.727   4.286
21567SOL    HW166475   0.637   4.821   4.295
21567SOL    HW266476   0.711   4.721   4.209
21568SOL     OW66477   6.963  10.372   8.438
21568SOL    HW166478   6.953  10.427   8.360
21568SOL    HW266479   6.928  10.287   8.411
21569SOL     OW66480   5.271  10.621  10.822
21569SOL    HW166481   5.242  10.712  10.816
21569SOL    HW266482   5.357  10.620  10.781
21570SOL     OW66483   7.820  10.993   5.686
21570SOL    HW166484   7.805  10.942   5.607
21570SOL    HW266485   7.776  11.077   5.669
21571SOL     OW66486  13.337  10.843   0.815
21571SOL    HW166487  13.394  10.770   0.838
21571SOL    HW266488  13.382  10.888   0.744
21572SOL     OW66489  10.530   2.654   8.870
21572SOL    HW166490  10.623   2.641   8.886
21572SOL    HW266491  10.488   2.636   8.954
21573SOL     OW66492   3.301   0.129  10.649
21573SOL    HW166493   3.312   0.186  10.725
21573SOL    HW266494   3.291   0.189  10.575
21574SOL     OW66495   1.034   9.872  10.974
21574SOL    HW166496   1.076   9.788  10.991
21574SOL    HW266497   1.078   9.933  11.033
21575SOL     OW66498   7.503   8.444   5.509
21575SOL    HW166499   7.527   8.396   5.588
21575SOL    HW266500   7.438   8.388   5.466
21576SOL     OW66501  12.523  10.662  14.126
21576SOL    HW166502  12.539  10.574  14.093
21576SOL    HW266503  12.449  10.652  14.186
21577SOL     OW66504   5.989   2.941   3.420
21577SOL    HW166505   5.989   3.030   3.457
21577SOL    HW266506   5.896   2.916   3.422
21578SOL     OW66507   1.851   6.553  12.521
21578SOL    HW166508   1.870   6.548  12.428
21578SOL    HW266509   1.761   6.585  12.526
21579SOL     OW66510   5.023  11.800   4.728
21579SOL    HW166511   5.099  11.768   4.777
21579SOL    HW266512   5.046  11.788   4.636
21580SOL     OW66513   5.397   6.331  11.553
21580SOL    HW166514   5.442   6.247  11.561
21580SOL    HW266515   5.458   6.395  11.590
21581SOL     OW66516   3.344   7.615   5.785
21581SOL    HW166517   3.378   7.534   5.823
21581SOL    HW266518   3.349   7.600   5.690
21582SOL     OW66519   5.477   2.880   7.118
21582SOL    HW166520   5.511   2.969   7.124
21582SOL    HW266521   5.398   2.880   7.171
21583SOL     OW66522   3.557  10.050   3.434
21583SOL    HW166523   3.565   9.960   3.463
21583SOL    HW266524   3.644  10.073   3.401
21584SOL     OW66525   4.115   0.733   0.719
21584SOL    HW166526   4.115   0.758   0.627
21584SOL    HW266527   4.049   0.663   0.724
21585SOL     OW66528   5.478  12.627   7.955
21585SOL    HW166529   5.494  12.556   8.017
21585SOL    HW266530   5.398  12.669   7.986
21586SOL     OW66531   6.996   5.404   5.537
21586SOL    HW166532   6.993   5.309   5.526
21586SOL    HW266533   7.016   5.438   5.450
21587SOL     OW66534   5.371  14.344  12.221
21587SOL    HW166535   5.331  14.324  12.137
21587SOL    HW266536   5.329  14.425  12.249
21588SOL     OW66537   9.744   7.383   3.414
21588SOL    HW166538   9.781   7.455   3.364
21588SOL    HW266539   9.672   7.422   3.464
21589SOL     OW66540   9.862   4.041   0.974
21589SOL    HW166541   9.935   4.102   0.968
21589SOL    HW266542   9.796   4.077   0.913
21590SOL     OW66543   2.334   9.285   3.670
21590SOL    HW166544   2.337   9.194   3.642
21590SOL    HW266545   2.324   9.335   3.589
21591SOL     OW66546   7.879   1.503  12.199
21591SOL    HW166547   7.805   1.447  12.223
21591SOL    HW266548   7.871   1.579  12.256
21592SOL     OW66549   1.200   2.668   6.072
21592SOL    HW166550   1.172   2.675   6.163
21592SOL    HW266551   1.118   2.660   6.023
21593SOL     OW66552   3.045   5.293   8.725
21593SOL    HW166553   3.042   5.283   8.820
21593SOL    HW266554   3.138   5.289   8.704
21594SOL     OW66555  14.832   5.008   0.424
21594SOL    HW166556  14.870   4.930   0.385
21594SOL    HW266557  14.829   4.989   0.518
21595SOL     OW66558   6.846   6.241   5.128
21595SOL    HW166559   6.901   6.212   5.055
21595SOL    HW266560   6.879   6.328   5.150
21596SOL     OW66561   9.891   3.065  13.521
21596SOL    HW166562   9.840   3.032  13.448
21596SOL    HW266563   9.876   3.003  13.592
21597SOL     OW66564  13.971   2.273   1.662
21597SOL    HW166565  14.056   2.276   1.706
21597SOL    HW266566  13.939   2.364   1.665
21598SOL     OW66567  14.082   7.115   9.281
21598SOL    HW166568  14.095   7.043   9.219
21598SOL    HW266569  14.074   7.192   9.225
21599SOL     OW66570   0.793   1.264   8.696
21599SOL    HW166571   0.795   1.270   8.791
21599SOL    HW266572   0.723   1.201   8.677
21600SOL     OW66573   2.369   7.565   6.692
21600SOL    HW166574   2.286   7.604   6.718
21600SOL    HW266575   2.389   7.606   6.607
21601SOL     OW66576  14.832  12.172   4.009
21601SOL    HW166577  14.839  12.266   3.990
21601SOL    HW266578   0.031  12.153   4.063
21602SOL     OW66579   6.946  11.104   4.499
21602SOL    HW166580   7.040  11.089   4.503
21602SOL    HW266581   6.910  11.041   4.563
21603SOL     OW66582   4.191   1.761   9.923
21603SOL    HW166583   4.260   1.719   9.871
21603SOL    HW266584   4.113   1.753   9.869
21604SOL     OW66585   8.442   3.377   4.609
21604SOL    HW166586   8.505   3.305   4.616
21604SOL    HW266587   8.399   3.380   4.695
21605SOL     OW66588  11.334   3.487   6.567
21605SOL    HW166589  11.360   3.417   6.628
21605SOL    HW266590  11.369   3.459   6.482
21606SOL     OW66591   6.056  13.145   3.951
21606SOL    HW166592   6.007  13.227   3.957
21606SOL    HW266593   5.991  13.076   3.967
21607SOL     OW66594   2.721   8.285   3.669
21607SOL    HW166595   2.705   8.277   3.763
21607SOL    HW266596   2.634   8.289   3.631
21608SOL     OW66597   0.092  11.578   9.292
21608SOL    HW166598   0.113  11.662   9.250
21608SOL    HW266599   0.058  11.524   9.221
21609SOL     OW66600  14.508   2.633  10.254
21609SOL    HW166601  14.558   2.604  10.330
21609SOL    HW266602  14.575   2.648  10.186
21610SOL     OW66603   6.720  12.543   5.255
21610SOL    HW166604   6.628  12.534   5.230
21610SOL    HW266605   6.754  12.611   5.197
21611SOL     OW66606  11.110   1.365   5.334
21611SOL    HW166607  11.055   1.426   5.383
21611SOL    HW266608  11.190   1.357   5.387
21612SOL     OW66609   3.061   0.663   1.112
21612SOL    HW166610   3.102   0.578   1.130
21612SOL    HW266611   2.971   0.641   1.087
21613SOL     OW66612   7.539   0.126   7.459
21613SOL    HW166613   7.560   0.216   7.483
21613SOL    HW266614   7.597   0.072   7.514
21614SOL     OW66615   5.335   6.941  14.296
21614SOL    HW166616   5.383   6.869  14.338
21614SOL    HW266617   5.306   6.904  14.212
21615SOL     OW66618   6.552  13.939  13.863
21615SOL    HW166619   6.462  13.955  13.833
21615SOL    HW266620   6.591  13.885  13.795
21616SOL     OW66621   2.387   5.690   8.934
21616SOL    HW166622   2.305   5.652   8.965
21616SOL    HW266623   2.455   5.646   8.985
21617SOL     OW66624  14.830  12.221  14.697
21617SOL    HW166625  14.780  12.296  14.729
21617SOL    HW266626  14.875  12.254  14.619
21618SOL     OW66627   8.834   5.711   6.370
21618SOL    HW166628   8.775   5.784   6.350
21618SOL    HW266629   8.776   5.640   6.396
21619SOL     OW66630   4.801   3.376   6.277
21619SOL    HW166631   4.815   3.421   6.360
21619SOL    HW266632   4.889   3.348   6.250
21620SOL     OW66633  12.967   4.486   2.992
21620SOL    HW166634  12.969   4.577   3.024
21620SOL    HW266635  12.903   4.487   2.921
21621SOL     OW66636   4.007   7.375   9.776
21621SOL    HW166637   4.071   7.444   9.759
21621SOL    HW266638   3.941   7.417   9.831
21622SOL     OW66639  10.853   8.832   0.021
21622SOL    HW166640  10.845   8.800  14.808
21622SOL    HW266641  10.774   8.883   0.036
21623SOL     OW66642  11.895   7.298  14.372
21623SOL    HW166643  11.871   7.344  14.291
21623SOL    HW266644  11.990   7.300  14.373
21624SOL     OW66645   0.311   5.680   2.524
21624SOL    HW166646   0.274   5.647   2.443
21624SOL    HW266647   0.337   5.770   2.504
21625SOL     OW66648  12.108   0.180  12.001
21625SOL    HW166649  12.197   0.188  12.034
21625SOL    HW266650  12.087   0.268  11.968
21626SOL     OW66651  12.279   9.644   0.812
21626SOL    HW166652  12.250   9.618   0.899
21626SOL    HW266653  12.372   9.665   0.823
21627SOL     OW66654  12.429   6.391  13.293
21627SOL    HW166655  12.396   6.477  13.319
21627SOL    HW266656  12.407   6.333  13.366
21628SOL     OW66657   0.735   7.885  14.816
21628SOL    HW166658   0.714   7.857  14.726
21628SOL    HW266659   0.676   7.958  14.833
21629SOL     OW66660   4.405   7.204   0.976
21629SOL    HW166661   4.382   7.285   0.930
21629SOL    HW266662   4.476   7.229   1.034
21630SOL     OW66663  12.795   0.254   3.030
21630SOL    HW166664  12.808   0.232   3.122
21630SOL    HW266665  12.725   0.319   3.031
21631SOL     OW66666   8.354   7.704   6.108
21631SOL    HW166667   8.315   7.792   6.111
21631SOL    HW266668   8.426   7.707   6.171
21632SOL     OW66669  13.579   4.023  13.213
21632SOL    HW166670  13.617   3.939  13.187
21632SOL    HW266671  13.616   4.086  13.151
21633SOL     OW66672  10.653   7.882   0.494
21633SOL    HW166673  10.670   7.792   0.466
21633SOL    HW266674  10.737   7.928   0.482
21634SOL     OW66675  13.820   4.955  12.502
21634SOL    HW166676  13.828   5.047  12.478
21634SOL    HW266677  13.894   4.939  12.560
21635SOL     OW66678  10.103   7.025   8.213
21635SOL    HW166679  10.049   6.951   8.241
21635SOL    HW266680  10.059   7.059   8.135
21636SOL     OW66681  11.325  10.325  11.009
21636SOL    HW166682  11.231  10.324  10.990
21636SOL    HW266683  11.331  10.356  11.099
21637SOL     OW66684  14.091  12.484  13.269
21637SOL    HW166685  14.021  12.420  13.261
21637SOL    HW266686  14.067  12.537  13.345
21638SOL     OW66687  14.484   4.334   9.208
21638SOL    HW166688  14.492   4.386   9.127
21638SOL    HW266689  14.459   4.398   9.274
21639SOL     OW66690   8.030   1.259   6.702
21639SOL    HW166691   8.087   1.234   6.775
21639SOL    HW266692   7.941   1.251   6.736
21640SOL     OW66693   0.833  10.493  12.289
21640SOL    HW166694   0.743  10.519  12.271
21640SOL    HW266695   0.828  10.447  12.373
21641SOL     OW66696   2.426   0.747   5.046
21641SOL    HW166697   2.400   0.684   5.114
21641SOL    HW266698   2.500   0.705   5.002
21642SOL     OW66699   8.720   5.800  10.001
21642SOL    HW166700   8.699   5.708   9.985
21642SOL    HW266701   8.784   5.822   9.934
21643SOL     OW66702  11.722   9.681  11.117
21643SOL    HW166703  11.650   9.704  11.058
21643SOL    HW266704  11.688   9.700  11.205
21644SOL     OW66705   3.311   5.603   1.865
21644SOL    HW166706   3.229   5.607   1.816
21644SOL    HW266707   3.379   5.591   1.798
21645SOL     OW66708   2.493  14.768   1.987
21645SOL    HW166709   2.567  14.814   1.948
21645SOL    HW266710   2.483  14.808   2.073
21646SOL     OW66711   7.962   4.120   4.916
21646SOL    HW166712   7.900   4.108   4.845
21646SOL    HW266713   7.952   4.212   4.941
21647SOL     OW66714  12.369  13.862   6.633
21647SOL    HW166715  12.447  13.809   6.616
21647SOL    HW266716  12.339  13.889   6.546
21648SOL     OW66717   1.600   9.485  13.877
21648SOL    HW166718   1.530   9.440  13.830
21648SOL    HW266719   1.615   9.431  13.954
21649SOL     OW66720  10.991  14.255   2.407
21649SOL    HW166721  11.059  14.236   2.472
21649SOL    HW266722  10.921  14.194   2.427
21650SOL     OW66723   9.420  14.828  11.950
21650SOL    HW166724   9.406  14.813  12.043
21650SOL    HW266725   9.334  14.850  11.915
21651SOL     OW66726   0.766   5.452   0.446
21651SOL    HW166727   0.840   5.511   0.456
21651SOL    HW266728   0.705   5.477   0.515
21652SOL     OW66729   4.358  14.744   3.059
21652SOL    HW166730   4.368  14.807   3.131
21652SOL    HW266731   4.271  14.762   3.023
21653SOL     OW66732   7.647   0.562   2.440
21653SOL    HW166733   7.592   0.490   2.410
21653SOL    HW266734   7.592   0.640   2.431
21654SOL     OW66735   3.946   5.469  13.679
21654SOL    HW166736   4.003   5.454  13.604
21654SOL    HW266737   3.876   5.525  13.646
21655SOL     OW66738  10.744  12.183  13.031
21655SOL    HW166739  10.753  12.268  13.075
21655SOL    HW266740  10.826  12.173  12.982
21656SOL     OW66741  13.628  13.855   5.429
21656SOL    HW166742  13.629  13.940   5.385
21656SOL    HW266743  13.713  13.849   5.472
21657SOL     OW66744  11.465  12.251   3.077
21657SOL    HW166745  11.477  12.341   3.044
21657SOL    HW266746  11.423  12.205   3.005
21658SOL     OW66747   0.586  10.933  12.215
21658SOL    HW166748   0.560  10.865  12.277
21658SOL    HW266749   0.507  10.987  12.205
21659SOL     OW66750   1.181   7.797   0.943
21659SOL    HW166751   1.151   7.887   0.959
21659SOL    HW266752   1.276   7.805   0.933
21660SOL     OW66753   2.704   7.298   3.686
21660SOL    HW166754   2.718   7.324   3.777
21660SOL    HW266755   2.626   7.346   3.659
21661SOL     OW66756  13.742   8.550   3.549
21661SOL    HW166757  13.712   8.641   3.550
21661SOL    HW266758  13.837   8.556   3.538
21662SOL     OW66759   6.271  11.535   1.041
21662SOL    HW166760   6.300  11.619   1.007
21662SOL    HW266761   6.349  11.480   1.039
21663SOL     OW66762   3.469   4.637   9.587
21663SOL    HW166763   3.547   4.683   9.617
21663SOL    HW266764   3.446   4.679   9.505
21664SOL     OW66765  14.011   3.605   2.425
21664SOL    HW166766  13.918   3.616   2.449
21664SOL    HW266767  14.012   3.613   2.330
21665SOL     OW66768   1.643  10.991  10.545
21665SOL    HW166769   1.661  10.923  10.610
21665SOL    HW266770   1.714  10.984  10.482
21666SOL     OW66771  14.181   2.830   7.609
21666SOL    HW166772  14.100   2.881   7.603
21666SOL    HW266773  14.151   2.739   7.614
21667SOL     OW66774   1.433   7.456   7.931
21667SOL    HW166775   1.362   7.501   7.885
21667SOL    HW266776   1.390   7.390   7.984
21668SOL     OW66777  13.072  12.021   3.440
21668SOL    HW166778  13.038  12.110   3.442
21668SOL    HW266779  13.106  12.006   3.528
21669SOL     OW66780  14.119  10.340   5.031
21669SOL    HW166781  14.181  10.290   5.084
21669SOL    HW266782  14.062  10.383   5.095
21670SOL     OW66783  12.792   9.665  11.948
21670SOL    HW166784  12.832   9.750  11.929
21670SOL    HW266785  12.708   9.686  11.990
21671SOL     OW66786  12.033   9.423   2.544
21671SOL    HW166787  12.120   9.417   2.506
21671SOL    HW266788  12.026   9.513   2.575
21672SOL     OW66789   5.134   7.956   7.661
21672SOL    HW166790   5.181   8.039   7.668
21672SOL    HW266791   5.190   7.900   7.607
21673SOL     OW66792   1.337   7.321   0.436
21673SOL    HW166793   1.255   7.357   0.402
21673SOL    HW266794   1.380   7.395   0.478
21674SOL     OW66795  13.958   2.336  14.604
21674SOL    HW166796  13.922   2.378  14.683
21674SOL    HW266797  14.018   2.401  14.568
21675SOL     OW66798   8.403   9.548  10.200
21675SOL    HW166799   8.477   9.546  10.138
21675SOL    HW266800   8.327   9.526  10.147
21676SOL     OW66801   6.888   5.080   6.384
21676SOL    HW166802   6.810   5.073   6.439
21676SOL    HW266803   6.865   5.143   6.316
21677SOL     OW66804   1.937   5.359  10.602
21677SOL    HW166805   1.883   5.281  10.589
21677SOL    HW266806   1.903   5.422  10.539
21678SOL     OW66807   1.002   6.446   0.596
21678SOL    HW166808   0.928   6.482   0.645
21678SOL    HW266809   1.021   6.512   0.530
21679SOL     OW66810   9.952   7.471   9.971
21679SOL    HW166811   9.989   7.445   9.887
21679SOL    HW266812   9.868   7.425   9.975
21680SOL     OW66813  11.147   5.419   5.133
21680SOL    HW166814  11.114   5.369   5.208
21680SOL    HW266815  11.140   5.511   5.160
21681SOL     OW66816   5.372  14.250   8.347
21681SOL    HW166817   5.440  14.212   8.404
21681SOL    HW266818   5.384  14.344   8.355
21682SOL     OW66819   6.930   4.337   9.662
21682SOL    HW166820   6.842   4.333   9.624
21682SOL    HW266821   6.964   4.422   9.634
21683SOL     OW66822   6.979  12.425  13.828
21683SOL    HW166823   6.979  12.512  13.786
21683SOL    HW266824   6.957  12.365  13.757
21684SOL     OW66825   0.972  12.632   8.955
21684SOL    HW166826   0.983  12.725   8.975
21684SOL    HW266827   1.062  12.599   8.946
21685SOL     OW66828  12.322   9.456  14.086
21685SOL    HW166829  12.233   9.466  14.052
21685SOL    HW266830  12.377   9.505  14.026
21686SOL     OW66831   5.793  14.380   8.670
21686SOL    HW166832   5.714  14.351   8.716
21686SOL    HW266833   5.861  14.383   8.737
21687SOL     OW66834   4.457   5.638   7.325
21687SOL    HW166835   4.386   5.664   7.384
21687SOL    HW266836   4.460   5.706   7.259
21688SOL     OW66837   9.988   6.880   5.257
21688SOL    HW166838   9.901   6.879   5.296
21688SOL    HW266839  10.046   6.851   5.327
21689SOL     OW66840   8.700  14.816   8.889
21689SOL    HW166841   8.756  14.748   8.851
21689SOL    HW266842   8.653  14.852   8.814
21690SOL     OW66843   2.524   6.429   1.706
21690SOL    HW166844   2.436   6.394   1.692
21690SOL    HW266845   2.576   6.354   1.735
21691SOL     OW66846   8.634  11.716   7.328
21691SOL    HW166847   8.551  11.675   7.354
21691SOL    HW266848   8.701  11.653   7.355
21692SOL     OW66849   4.933   2.652   9.735
21692SOL    HW166850   5.010   2.703   9.759
21692SOL    HW266851   4.916   2.675   9.644
21693SOL     OW66852   2.151   8.839  13.978
21693SOL    HW166853   2.174   8.775  13.911
21693SOL    HW266854   2.101   8.789  14.043
21694SOL     OW66855   2.169  13.125  11.247
21694SOL    HW166856   2.263  13.136  11.266
21694SOL    HW266857   2.167  13.060  11.176
21695SOL     OW66858   9.297   0.426   8.426
21695SOL    HW166859   9.350   0.495   8.386
21695SOL    HW266860   9.290   0.451   8.518
21696SOL     OW66861  13.948   9.747  14.019
21696SOL    HW166862  13.960   9.797  14.100
21696SOL    HW266863  13.953   9.655  14.047
21697SOL     OW66864  13.506   7.594   8.606
21697SOL    HW166865  13.448   7.600   8.530
21697SOL    HW266866  13.458   7.539   8.668
21698SOL     OW66867  14.488   9.324   6.770
21698SOL    HW166868  14.567   9.323   6.824
21698SOL    HW266869  14.435   9.395   6.806
21699SOL     OW66870  10.365   8.215  14.367
21699SOL    HW166871  10.284   8.245  14.327
21699SOL    HW266872  10.420   8.293  14.373
21700SOL     OW66873   0.833  14.257  11.279
21700SOL    HW166874   0.752  14.210  11.257
21700SOL    HW266875   0.893  14.188  11.309
21701SOL     OW66876   6.863   6.352   1.085
21701SOL    HW166877   6.791   6.324   1.141
21701SOL    HW266878   6.879   6.279   1.026
21702SOL     OW66879   8.326   5.013   9.699
21702SOL    HW166880   8.245   5.064   9.687
21702SOL    HW266881   8.306   4.953   9.771
21703SOL     OW66882  11.581  12.156   0.975
21703SOL    HW166883  11.644  12.083   0.974
21703SOL    HW266884  11.513  12.128   1.036
21704SOL     OW66885  12.276  11.550   8.564
21704SOL    HW166886  12.276  11.646   8.567
21704SOL    HW266887  12.293  11.523   8.654
21705SOL     OW66888   1.964   8.646  13.436
21705SOL    HW166889   1.948   8.612  13.524
21705SOL    HW266890   2.055   8.675  13.438
21706SOL     OW66891  11.502   5.019   8.603
21706SOL    HW166892  11.549   5.087   8.555
21706SOL    HW266893  11.430   4.994   8.545
21707SOL     OW66894   8.113   2.944  13.623
21707SOL    HW166895   8.057   2.979  13.554
21707SOL    HW266896   8.052   2.908  13.687
21708SOL     OW66897   1.947  13.742  14.452
21708SOL    HW166898   2.039  13.718  14.439
21708SOL    HW266899   1.939  13.829  14.412
21709SOL     OW66900  13.433   0.110   8.010
21709SOL    HW166901  13.436   0.062   8.092
21709SOL    HW266902  13.502   0.177   8.018
21710SOL     OW66903   3.554   6.904  13.579
21710SOL    HW166904   3.543   6.994  13.610
21710SOL    HW266905   3.649   6.888  13.585
21711SOL     OW66906   9.453   9.529  11.140
21711SOL    HW166907   9.367   9.492  11.158
21711SOL    HW266908   9.447   9.563  11.051
21712SOL     OW66909  13.830   2.693  12.589
21712SOL    HW166910  13.752   2.647  12.620
21712SOL    HW266911  13.846   2.760  12.655
21713SOL     OW66912   7.616   2.602   3.918
21713SOL    HW166913   7.654   2.548   3.988
21713SOL    HW266914   7.685   2.666   3.898
21714SOL     OW66915  11.805   4.077   3.928
21714SOL    HW166916  11.838   4.130   4.001
21714SOL    HW266917  11.884   4.042   3.887
21715SOL     OW66918   2.288  14.310  11.467
21715SOL    HW166919   2.299  14.355  11.383
21715SOL    HW266920   2.299  14.378  11.533
21716SOL     OW66921  12.081   3.622   1.878
21716SOL    HW166922  12.118   3.614   1.966
21716SOL    HW266923  12.155   3.649   1.824
21717SOL     OW66924   7.792  10.417   0.870
21717SOL    HW166925   7.814  10.324   0.883
21717SOL    HW266926   7.697  10.420   0.883
21718SOL     OW66927  10.473   0.038   5.194
21718SOL    HW166928  10.441   0.126   5.213
21718SOL    HW266929  10.447  14.863   5.270
21719SOL     OW66930   6.755   5.463   2.794
21719SOL    HW166931   6.822   5.465   2.725
21719SOL    HW266932   6.805   5.447   2.874
21720SOL     OW66933   9.748   7.125  10.702
21720SOL    HW166934   9.709   7.185  10.638
21720SOL    HW266935   9.835   7.106  10.667
21721SOL     OW66936   4.268  11.864  10.923
21721SOL    HW166937   4.203  11.795  10.908
21721SOL    HW266938   4.320  11.832  10.996
21722SOL     OW66939   3.698   9.722   4.586
21722SOL    HW166940   3.703   9.726   4.491
21722SOL    HW266941   3.753   9.794   4.617
21723SOL     OW66942   6.822   6.347   1.864
21723SOL    HW166943   6.796   6.314   1.950
21723SOL    HW266944   6.744   6.337   1.809
21724SOL     OW66945  13.024   4.032  10.012
21724SOL    HW166946  13.118   4.012  10.020
21724SOL    HW266947  13.001   4.074  10.094
21725SOL     OW66948  10.933   8.576   7.260
21725SOL    HW166949  10.859   8.579   7.321
21725SOL    HW266950  10.899   8.616   7.180
21726SOL     OW66951   1.909   5.709   4.876
21726SOL    HW166952   1.864   5.698   4.792
21726SOL    HW266953   1.975   5.776   4.860
21727SOL     OW66954   0.979   4.784   8.685
21727SOL    HW166955   1.073   4.798   8.701
21727SOL    HW266956   0.976   4.737   8.602
21728SOL     OW66957   9.112  11.154  14.183
21728SOL    HW166958   9.194  11.166  14.136
21728SOL    HW266959   9.083  11.243  14.204
21729SOL     OW66960   4.234   1.094  12.475
21729SOL    HW166961   4.325   1.068  12.458
21729SOL    HW266962   4.183   1.015  12.456
21730SOL     OW66963   7.625  13.479   2.615
21730SOL    HW166964   7.620  13.410   2.549
21730SOL    HW266965   7.536  13.514   2.619
21731SOL     OW66966  14.700   1.386   0.625
21731SOL    HW166967  14.651   1.326   0.569
21731SOL    HW266968  14.642   1.400   0.700
21732SOL     OW66969  10.760   8.327  10.382
21732SOL    HW166970  10.854   8.309  10.379
21732SOL    HW266971  10.728   8.275  10.457
21733SOL     OW66972  12.343   9.026   2.795
21733SOL    HW166973  12.414   8.991   2.848
21733SOL    HW266974  12.377   9.109   2.761
21734SOL     OW66975  13.269  14.817  11.125
21734SOL    HW166976  13.294   0.031  11.139
21734SOL    HW266977  13.333  14.784  11.063
21735SOL     OW66978   2.305   1.480   4.006
21735SOL    HW166979   2.341   1.541   3.941
21735SOL    HW266980   2.381   1.436   4.042
21736SOL     OW66981   6.545   1.168   7.608
21736SOL    HW166982   6.486   1.159   7.533
21736SOL    HW266983   6.606   1.095   7.599
21737SOL     OW66984   2.370   1.640   1.375
21737SOL    HW166985   2.435   1.614   1.441
21737SOL    HW266986   2.369   1.736   1.379
21738SOL     OW66987   9.403   2.502   3.731
21738SOL    HW166988   9.362   2.416   3.739
21738SOL    HW266989   9.487   2.486   3.689
21739SOL     OW66990   8.840   9.031   8.742
21739SOL    HW166991   8.810   9.122   8.745
21739SOL    HW266992   8.804   8.991   8.820
21740SOL     OW66993  12.487   4.888  10.236
21740SOL    HW166994  12.502   4.978  10.206
21740SOL    HW266995  12.553   4.836  10.191
21741SOL     OW66996   4.034  12.393   2.412
21741SOL    HW166997   4.082  12.311   2.423
21741SOL    HW266998   4.095  12.460   2.440
21742SOL     OW66999   5.823   8.158  14.870
21742SOL    HW167000   5.762   8.084  14.877
21742SOL    HW267001   5.824   8.196   0.080
21743SOL     OW67002   8.991   2.199   7.265
21743SOL    HW167003   9.064   2.260   7.265
21743SOL    HW267004   8.994   2.158   7.178
21744SOL     OW67005  12.426  14.448   8.370
21744SOL    HW167006  12.346  14.407   8.403
21744SOL    HW267007  12.497  14.403   8.415
21745SOL     OW67008  10.139   0.735   6.245
21745SOL    HW167009  10.076   0.799   6.278
21745SOL    HW267010  10.223   0.782   6.242
21746SOL     OW67011  10.168  10.638   5.301
21746SOL    HW167012  10.199  10.683   5.223
21746SOL    HW267013  10.082  10.604   5.278
21747SOL     OW67014   7.578  14.436  12.496
21747SOL    HW167015   7.652  14.390  12.536
21747SOL    HW267016   7.618  14.504  12.442
21748SOL     OW67017   1.373   1.888   9.574
21748SOL    HW167018   1.331   1.809   9.607
21748SOL    HW267019   1.427   1.858   9.501
21749SOL     OW67020   8.434   5.562   4.104
21749SOL    HW167021   8.438   5.482   4.158
21749SOL    HW267022   8.351   5.603   4.129
21750SOL     OW67023   8.918   8.787   4.892
21750SOL    HW167024   8.940   8.698   4.918
21750SOL    HW267025   8.993   8.816   4.840
21751SOL     OW67026   2.047   8.179   0.663
21751SOL    HW167027   2.102   8.208   0.735
21751SOL    HW267028   1.980   8.247   0.654
21752SOL     OW67029   5.231  13.003   2.161
21752SOL    HW167030   5.290  12.983   2.088
21752SOL    HW267031   5.288  13.041   2.228
21753SOL     OW67032   7.776   2.649   1.945
21753SOL    HW167033   7.790   2.629   2.037
21753SOL    HW267034   7.744   2.567   1.907
21754SOL     OW67035   8.962   1.832   8.069
21754SOL    HW167036   8.996   1.820   8.157
21754SOL    HW267037   8.980   1.924   8.048
21755SOL     OW67038   1.777  10.481   8.139
21755SOL    HW167039   1.692  10.495   8.097
21755SOL    HW267040   1.831  10.443   8.070
21756SOL     OW67041   5.509  11.173  12.069
21756SOL    HW167042   5.567  11.123  12.126
21756SOL    HW267043   5.463  11.108  12.017
21757SOL     OW67044   2.627   4.959   2.157
21757SOL    HW167045   2.542   4.931   2.124
21757SOL    HW267046   2.688   4.941   2.086
21758SOL     OW67047  11.665   9.285   7.700
21758SOL    HW167048  11.748   9.238   7.697
21758SOL    HW267049  11.676   9.349   7.770
21759SOL     OW67050   6.262   1.546   6.022
21759SOL    HW167051   6.258   1.544   6.118
21759SOL    HW267052   6.300   1.461   5.998
21760SOL     OW67053   4.674   6.378  12.544
21760SOL    HW167054   4.630   6.326  12.612
21760SOL    HW267055   4.713   6.314  12.486
21761SOL     OW67056  13.146  10.293  13.108
21761SOL    HW167057  13.190  10.337  13.036
21761SOL    HW267058  13.112  10.364  13.163
21762SOL     OW67059   3.105  10.066  11.548
21762SOL    HW167060   3.171  10.093  11.484
21762SOL    HW267061   3.136  10.100  11.631
21763SOL     OW67062   1.548   6.005   6.762
21763SOL    HW167063   1.636   6.003   6.724
21763SOL    HW267064   1.541   6.092   6.801
21764SOL     OW67065  12.364   3.324   5.279
21764SOL    HW167066  12.376   3.396   5.217
21764SOL    HW267067  12.346   3.366   5.363
21765SOL     OW67068  11.843  14.204   7.625
21765SOL    HW167069  11.793  14.174   7.549
21765SOL    HW267070  11.870  14.293   7.602
21766SOL     OW67071   9.479  12.508  13.848
21766SOL    HW167072   9.410  12.569  13.873
21766SOL    HW267073   9.443  12.461  13.773
21767SOL     OW67074   0.746   4.585  10.353
21767SOL    HW167075   0.661   4.578  10.397
21767SOL    HW267076   0.725   4.583  10.260
21768SOL     OW67077  13.916  10.675   2.792
21768SOL    HW167078  13.973  10.707   2.862
21768SOL    HW267079  13.965  10.694   2.712
21769SOL     OW67080   8.453  13.499   1.802
21769SOL    HW167081   8.494  13.452   1.730
21769SOL    HW267082   8.470  13.445   1.879
21770SOL     OW67083  11.698   1.486  14.790
21770SOL    HW167084  11.693   1.394  14.765
21770SOL    HW267085  11.788   1.498  14.820
21771SOL     OW67086   9.653  11.266  12.548
21771SOL    HW167087   9.569  11.230  12.520
21771SOL    HW267088   9.664  11.345  12.495
21772SOL     OW67089  13.459   4.753   8.485
21772SOL    HW167090  13.414   4.770   8.568
21772SOL    HW267091  13.467   4.657   8.482
21773SOL     OW67092   0.798   1.276   8.992
21773SOL    HW167093   0.870   1.217   8.970
21773SOL    HW267094   0.804   1.289   9.086
21774SOL     OW67095   6.086  13.329   7.653
21774SOL    HW167096   6.165  13.289   7.691
21774SOL    HW267097   6.100  13.324   7.558
21775SOL     OW67098   6.635  14.784   6.494
21775SOL    HW167099   6.688  14.724   6.547
21775SOL    HW267100   6.681  14.867   6.499
21776SOL     OW67101  12.355   4.438   2.436
21776SOL    HW167102  12.269   4.480   2.424
21776SOL    HW267103  12.415   4.492   2.385
21777SOL     OW67104   9.295   9.245   0.236
21777SOL    HW167105   9.362   9.190   0.276
21777SOL    HW267106   9.212   9.207   0.265
21778SOL     OW67107  12.101   5.651  10.592
21778SOL    HW167108  12.168   5.607  10.540
21778SOL    HW267109  12.149   5.712  10.648
21779SOL     OW67110   6.045  11.975   2.324
21779SOL    HW167111   6.097  11.955   2.246
21779SOL    HW267112   6.052  12.070   2.334
21780SOL     OW67113  13.055  13.263   8.482
21780SOL    HW167114  13.069  13.321   8.407
21780SOL    HW267115  12.966  13.229   8.470
21781SOL     OW67116  12.740   6.050   5.334
21781SOL    HW167117  12.788   5.970   5.311
21781SOL    HW267118  12.809   6.113   5.357
21782SOL     OW67119   1.741   5.617  12.173
21782SOL    HW167120   1.789   5.561  12.111
21782SOL    HW267121   1.662   5.642  12.125
21783SOL     OW67122   2.151   8.135  13.334
21783SOL    HW167123   2.206   8.200  13.379
21783SOL    HW267124   2.212   8.087  13.279
21784SOL     OW67125   3.420  11.205   4.901
21784SOL    HW167126   3.388  11.114   4.894
21784SOL    HW267127   3.342  11.259   4.886
21785SOL     OW67128   6.290  11.268   9.712
21785SOL    HW167129   6.206  11.315   9.713
21785SOL    HW267130   6.319  11.275   9.621
21786SOL     OW67131   9.653   8.691   6.497
21786SOL    HW167132   9.714   8.673   6.425
21786SOL    HW267133   9.568   8.664   6.463
21787SOL     OW67134   6.993  11.028   2.571
21787SOL    HW167135   7.084  11.039   2.544
21787SOL    HW267136   6.945  11.096   2.524
21788SOL     OW67137  12.509   6.150  10.111
21788SOL    HW167138  12.584   6.164  10.169
21788SOL    HW267139  12.475   6.238  10.094
21789SOL     OW67140   4.844   6.752   5.271
21789SOL    HW167141   4.860   6.667   5.229
21789SOL    HW267142   4.755   6.747   5.303
21790SOL     OW67143   7.437  12.329  11.655
21790SOL    HW167144   7.365  12.331  11.592
21790SOL    HW267145   7.393  12.328  11.740
21791SOL     OW67146  13.625   3.694  12.938
21791SOL    HW167147  13.652   3.632  12.871
21791SOL    HW267148  13.679   3.672  13.014
21792SOL     OW67149   7.142   0.007   1.290
21792SOL    HW167150   7.165  14.829   1.215
21792SOL    HW267151   7.208  14.864   1.356
21793SOL     OW67152  14.574   4.014   7.283
21793SOL    HW167153  14.484   3.982   7.279
21793SOL    HW267154  14.625   3.947   7.238
21794SOL     OW67155  10.940   4.940  11.340
21794SOL    HW167156  10.928   4.845  11.340
21794SOL    HW267157  11.013   4.954  11.400
21795SOL     OW67158   8.240  12.978   2.233
21795SOL    HW167159   8.152  12.943   2.220
21795SOL    HW267160   8.254  13.038   2.160
21796SOL     OW67161   8.896  13.705   1.501
21796SOL    HW167162   8.933  13.623   1.467
21796SOL    HW267163   8.835  13.677   1.569
21797SOL     OW67164  12.633   5.518  14.557
21797SOL    HW167165  12.571   5.445  14.562
21797SOL    HW267166  12.627   5.561  14.642
21798SOL     OW67167   7.478   4.854   8.898
21798SOL    HW167168   7.428   4.917   8.846
21798SOL    HW267169   7.560   4.844   8.850
21799SOL     OW67170  10.097   5.251  13.479
21799SOL    HW167171  10.112   5.330  13.428
21799SOL    HW267172  10.180   5.238  13.527
21800SOL     OW67173   2.757  12.177   1.478
21800SOL    HW167174   2.745  12.247   1.542
21800SOL    HW267175   2.711  12.207   1.400
21801SOL     OW67176   1.119   5.185   8.920
21801SOL    HW167177   1.073   5.130   8.857
21801SOL    HW267178   1.065   5.181   8.999
21802SOL     OW67179  10.020   9.764   9.934
21802SOL    HW167180   9.990   9.768  10.025
21802SOL    HW267181  10.106   9.721   9.939
21803SOL     OW67182  14.808  11.356   7.664
21803SOL    HW167183  14.745  11.286   7.677
21803SOL    HW267184  14.874  11.341   7.733
21804SOL     OW67185  14.301  11.265   0.101
21804SOL    HW167186  14.383  11.221   0.122
21804SOL    HW267187  14.248  11.199   0.055
21805SOL     OW67188   5.918  14.389  12.655
21805SOL    HW167189   5.957  14.381  12.568
21805SOL    HW267190   5.981  14.349  12.714
21806SOL     OW67191   9.359  14.462   9.402
21806SOL    HW167192   9.397  14.375   9.388
21806SOL    HW267193   9.369  14.506   9.318
21807SOL     OW67194  10.204  11.880  10.160
21807SOL    HW167195  10.238  11.856  10.246
21807SOL    HW267196  10.139  11.813  10.139
21808SOL     OW67197   5.767   9.644  13.805
21808SOL    HW167198   5.737   9.625  13.716
21808SOL    HW267199   5.835   9.711  13.794
21809SOL     OW67200   1.177   4.477   1.255
21809SOL    HW167201   1.100   4.430   1.221
21809SOL    HW267202   1.225   4.411   1.305
21810SOL     OW67203   5.772   2.437  11.099
21810SOL    HW167204   5.754   2.457  11.007
21810SOL    HW267205   5.862   2.404  11.099
21811SOL     OW67206   5.077  12.585  12.423
21811SOL    HW167207   5.153  12.574  12.366
21811SOL    HW267208   5.059  12.497  12.456
21812SOL     OW67209  11.386  14.370   1.447
21812SOL    HW167210  11.379  14.298   1.509
21812SOL    HW267211  11.301  14.414   1.451
21813SOL     OW67212   4.732   7.078   8.003
21813SOL    HW167213   4.723   7.075   8.099
21813SOL    HW267214   4.787   7.156   7.987
21814SOL     OW67215  11.515   8.050   8.395
21814SOL    HW167216  11.524   8.073   8.303
21814SOL    HW267217  11.425   8.018   8.403
21815SOL     OW67218   5.229   3.167   5.929
21815SOL    HW167219   5.142   3.156   5.890
21815SOL    HW267220   5.268   3.240   5.881
21816SOL     OW67221   2.785   4.570  12.770
21816SOL    HW167222   2.708   4.601  12.819
21816SOL    HW267223   2.803   4.484  12.806
21817SOL     OW67224   1.593  12.433   4.732
21817SOL    HW167225   1.514  12.407   4.779
21817SOL    HW267226   1.635  12.497   4.789
21818SOL     OW67227   0.145   5.629   6.382
21818SOL    HW167228   0.067   5.602   6.332
21818SOL    HW267229   0.218   5.609   6.323
21819SOL     OW67230   5.717  12.868   6.862
21819SOL    HW167231   5.719  12.774   6.880
21819SOL    HW267232   5.628  12.884   6.829
21820SOL     OW67233   1.713   4.465   2.513
21820SOL    HW167234   1.712   4.488   2.420
21820SOL    HW267235   1.782   4.519   2.551
21821SOL     OW67236   6.838   1.865  14.857
21821SOL    HW167237   6.805   1.795  14.800
21821SOL    HW267238   6.911   1.903  14.808
21822SOL     OW67239  11.695   8.860  11.832
21822SOL    HW167240  11.665   8.779  11.792
21822SOL    HW267241  11.701   8.923  11.760
21823SOL     OW67242   1.585   4.373   4.783
21823SOL    HW167243   1.657   4.427   4.816
21823SOL    HW267244   1.530   4.433   4.733
21824SOL     OW67245  13.815  11.011   8.964
21824SOL    HW167246  13.813  10.931   8.912
21824SOL    HW267247  13.844  10.983   9.050
21825SOL     OW67248   4.265   5.839   4.802
21825SOL    HW167249   4.317   5.877   4.873
21825SOL    HW267250   4.190   5.897   4.793
21826SOL     OW67251  12.184  13.145   3.379
21826SOL    HW167252  12.124  13.075   3.352
21826SOL    HW267253  12.131  13.224   3.376
21827SOL     OW67254   3.733   8.175  10.409
21827SOL    HW167255   3.707   8.162  10.318
21827SOL    HW267256   3.811   8.121  10.419
21828SOL     OW67257   7.837   3.206   3.051
21828SOL    HW167258   7.853   3.284   2.997
21828SOL    HW267259   7.923   3.181   3.083
21829SOL     OW67260   6.384  13.818  10.885
21829SOL    HW167261   6.445  13.749  10.909
21829SOL    HW267262   6.438  13.897  10.877
21830SOL     OW67263   2.445   5.893  13.913
21830SOL    HW167264   2.389   5.845  13.852
21830SOL    HW267265   2.399   5.975  13.929
21831SOL     OW67266  12.354   0.658   2.425
21831SOL    HW167267  12.288   0.619   2.369
21831SOL    HW267268  12.356   0.603   2.503
21832SOL     OW67269  13.964   7.895   2.686
21832SOL    HW167270  13.973   7.876   2.780
21832SOL    HW267271  13.901   7.967   2.682
21833SOL     OW67272   8.912   4.139   0.596
21833SOL    HW167273   8.851   4.208   0.568
21833SOL    HW267274   8.976   4.133   0.525
21834SOL     OW67275  12.040   7.043   2.294
21834SOL    HW167276  11.978   7.075   2.359
21834SOL    HW267277  12.108   7.000   2.345
21835SOL     OW67278  13.328  14.691   5.842
21835SOL    HW167279  13.300  14.781   5.860
21835SOL    HW267280  13.278  14.638   5.905
21836SOL     OW67281   3.983  12.598   6.486
21836SOL    HW167282   3.987  12.692   6.503
21836SOL    HW267283   3.948  12.591   6.397
21837SOL     OW67284  11.886   0.264   0.716
21837SOL    HW167285  11.933   0.266   0.633
21837SOL    HW267286  11.898   0.352   0.753
21838SOL     OW67287  14.223   2.328   5.998
21838SOL    HW167288  14.161   2.396   6.024
21838SOL    HW267289  14.299   2.342   6.055
21839SOL     OW67290  10.530  11.721   8.733
21839SOL    HW167291  10.553  11.801   8.685
21839SOL    HW267292  10.558  11.650   8.676
21840SOL     OW67293   8.466   9.977   6.444
21840SOL    HW167294   8.510   9.893   6.454
21840SOL    HW267295   8.408   9.965   6.369
21841SOL     OW67296  14.877   0.466   7.879
21841SOL    HW167297  14.811   0.525   7.917
21841SOL    HW267298   0.022   0.406   7.950
21842SOL     OW67299   9.186   0.538  14.126
21842SOL    HW167300   9.189   0.449  14.091
21842SOL    HW267301   9.201   0.595  14.050
21843SOL     OW67302   3.144  14.775   9.207
21843SOL    HW167303   3.096  14.696   9.231
21843SOL    HW267304   3.124  14.787   9.114
21844SOL     OW67305   8.351  13.885   8.388
21844SOL    HW167306   8.445  13.894   8.373
21844SOL    HW267307   8.344  13.843   8.474
21845SOL     OW67308  11.086   4.546   1.547
21845SOL    HW167309  10.993   4.525   1.555
21845SOL    HW267310  11.088   4.629   1.499
21846SOL     OW67311   9.689   0.493  14.484
21846SOL    HW167312   9.703   0.406  14.523
21846SOL    HW267313   9.735   0.489  14.400
21847SOL     OW67314   6.350  13.657   9.995
21847SOL    HW167315   6.343  13.751   9.978
21847SOL    HW267316   6.371  13.651  10.088
21848SOL     OW67317   1.961  10.183   0.906
21848SOL    HW167318   2.034  10.199   0.847
21848SOL    HW267319   1.892  10.243   0.877
21849SOL     OW67320   5.917   5.679   2.278
21849SOL    HW167321   5.965   5.602   2.246
21849SOL    HW267322   5.986   5.744   2.296
21850SOL     OW67323   7.029   4.892   4.411
21850SOL    HW167324   7.051   4.981   4.439
21850SOL    HW267325   7.056   4.837   4.485
21851SOL     OW67326   3.247   4.445  14.618
21851SOL    HW167327   3.187   4.371  14.606
21851SOL    HW267328   3.222   4.508  14.551
21852SOL     OW67329  12.341   3.055   0.619
21852SOL    HW167330  12.248   3.064   0.597
21852SOL    HW267331  12.365   2.967   0.589
21853SOL     OW67332  13.023   8.271   4.799
21853SOL    HW167333  13.116   8.264   4.819
21853SOL    HW267334  12.990   8.338   4.859
21854SOL     OW67335  12.326  11.469   5.731
21854SOL    HW167336  12.287  11.408   5.794
21854SOL    HW267337  12.263  11.472   5.659
21855SOL     OW67338   7.670   0.296   3.766
21855SOL    HW167339   7.713   0.217   3.732
21855SOL    HW267340   7.608   0.321   3.697
21856SOL     OW67341  12.379   3.304  10.720
21856SOL    HW167342  12.309   3.339  10.665
21856SOL    HW267343  12.405   3.378  10.775
21857SOL     OW67344  12.928  12.185   4.703
21857SOL    HW167345  12.869  12.168   4.630
21857SOL    HW267346  12.870  12.200   4.778
21858SOL     OW67347  10.622  10.491  11.085
21858SOL    HW167348  10.654  10.537  11.007
21858SOL    HW267349  10.593  10.406  11.052
21859SOL     OW67350   7.663   7.727   4.178
21859SOL    HW167351   7.640   7.652   4.123
21859SOL    HW267352   7.584   7.781   4.178
21860SOL     OW67353  10.732   7.370   7.627
21860SOL    HW167354  10.653   7.423   7.640
21860SOL    HW267355  10.745   7.370   7.532
21861SOL     OW67356  12.791   2.516   6.798
21861SOL    HW167357  12.759   2.588   6.743
21861SOL    HW267358  12.751   2.531   6.883
21862SOL     OW67359   7.149  11.059   4.028
21862SOL    HW167360   7.205  11.136   4.017
21862SOL    HW267361   7.163  11.008   3.948
21863SOL     OW67362   3.337   6.899   9.563
21863SOL    HW167363   3.277   6.950   9.617
21863SOL    HW267364   3.412   6.956   9.548
21864SOL     OW67365   7.531   8.120   7.579
21864SOL    HW167366   7.604   8.133   7.518
21864SOL    HW267367   7.458   8.167   7.540
21865SOL     OW67368  13.201   2.129   8.579
21865SOL    HW167369  13.109   2.142   8.554
21865SOL    HW267370  13.251   2.159   8.503
21866SOL     OW67371   3.598   8.234   2.792
21866SOL    HW167372   3.516   8.265   2.832
21866SOL    HW267373   3.592   8.139   2.798
21867SOL     OW67374   3.718  12.870   4.415
21867SOL    HW167375   3.643  12.818   4.387
21867SOL    HW267376   3.709  12.878   4.510
21868SOL     OW67377  14.185   8.399   3.627
21868SOL    HW167378  14.243   8.326   3.603
21868SOL    HW267379  14.130   8.365   3.697
21869SOL     OW67380   8.937   4.046   5.982
21869SOL    HW167381   8.936   3.987   5.906
21869SOL    HW267382   9.024   4.086   5.980
21870SOL     OW67383   7.634   3.804   4.715
21870SOL    HW167384   7.626   3.709   4.724
21870SOL    HW267385   7.549   3.833   4.685
21871SOL     OW67386   4.220   0.553   0.362
21871SOL    HW167387   4.293   0.615   0.371
21871SOL    HW267388   4.152   0.588   0.419
21872SOL     OW67389   3.349   5.051  12.253
21872SOL    HW167390   3.292   5.024  12.180
21872SOL    HW267391   3.304   5.126  12.291
21873SOL     OW67392   1.311   5.921  12.489
21873SOL    HW167393   1.224   5.889  12.464
21873SOL    HW267394   1.300   6.016  12.496
21874SOL     OW67395  10.063  12.634   2.675
21874SOL    HW167396  10.083  12.682   2.755
21874SOL    HW267397  10.131  12.662   2.613
21875SOL     OW67398   2.560   2.574   3.790
21875SOL    HW167399   2.645   2.530   3.787
21875SOL    HW267400   2.556   2.624   3.708
21876SOL     OW67401   3.066  10.357   1.229
21876SOL    HW167402   3.151  10.395   1.250
21876SOL    HW267403   3.005  10.430   1.235
21877SOL     OW67404   7.266   7.670   9.453
21877SOL    HW167405   7.260   7.629   9.540
21877SOL    HW267406   7.192   7.633   9.405
21878SOL     OW67407   2.712   4.182   4.950
21878SOL    HW167408   2.721   4.095   4.989
21878SOL    HW267409   2.620   4.187   4.923
21879SOL     OW67410   2.378   2.083  10.363
21879SOL    HW167411   2.283   2.092  10.360
21879SOL    HW267412   2.410   2.139  10.293
21880SOL     OW67413   5.645  13.768   9.529
21880SOL    HW167414   5.689  13.740   9.610
21880SOL    HW267415   5.588  13.695   9.506
21881SOL     OW67416  14.606  14.355  10.326
21881SOL    HW167417  14.611  14.441  10.370
21881SOL    HW267418  14.685  14.309  10.355
21882SOL     OW67419   0.377   4.556   0.912
21882SOL    HW167420   0.429   4.501   0.854
21882SOL    HW267421   0.435   4.576   0.985
21883SOL     OW67422   7.889  13.057   3.497
21883SOL    HW167423   7.832  13.116   3.546
21883SOL    HW267424   7.843  12.973   3.498
21884SOL     OW67425   9.077   3.649  12.402
21884SOL    HW167426   9.038   3.735  12.384
21884SOL    HW267427   9.007   3.587  12.382
21885SOL     OW67428  13.493  13.083   1.873
21885SOL    HW167429  13.561  13.106   1.936
21885SOL    HW267430  13.483  12.988   1.883
21886SOL     OW67431  10.664   6.077   2.848
21886SOL    HW167432  10.756   6.053   2.852
21886SOL    HW267433  10.616   5.994   2.855
21887SOL     OW67434   5.010   8.223  14.243
21887SOL    HW167435   5.013   8.268  14.158
21887SOL    HW267436   5.067   8.275  14.299
21888SOL     OW67437   0.137  13.660   5.126
21888SOL    HW167438   0.161  13.629   5.213
21888SOL    HW267439   0.101  13.583   5.082
21889SOL     OW67440   7.554  12.321  11.122
21889SOL    HW167441   7.518  12.402  11.158
21889SOL    HW267442   7.485  12.256  11.135
21890SOL     OW67443   8.612  13.524  10.848
21890SOL    HW167444   8.683  13.463  10.870
21890SOL    HW267445   8.633  13.604  10.897
21891SOL     OW67446  13.815   2.871   2.215
21891SOL    HW167447  13.758   2.882   2.138
21891SOL    HW267448  13.846   2.781   2.208
21892SOL     OW67449   3.004  12.254  10.187
21892SOL    HW167450   3.028  12.245  10.094
21892SOL    HW267451   2.984  12.347  10.198
21893SOL     OW67452  11.779   2.866  12.851
21893SOL    HW167453  11.743   2.778  12.844
21893SOL    HW267454  11.858   2.856  12.903
21894SOL     OW67455   6.053   2.283   5.526
21894SOL    HW167456   6.109   2.330   5.587
21894SOL    HW267457   6.043   2.344   5.452
21895SOL     OW67458   5.620   8.584   1.588
21895SOL    HW167459   5.669   8.661   1.618
21895SOL    HW267460   5.601   8.601   1.496
21896SOL     OW67461   4.361  10.968   2.716
21896SOL    HW167462   4.368  10.966   2.620
21896SOL    HW267463   4.451  10.981   2.746
21897SOL     OW67464   0.773   3.500   2.121
21897SOL    HW167465   0.712   3.516   2.048
21897SOL    HW267466   0.765   3.578   2.176
21898SOL     OW67467   7.325   9.868   0.856
21898SOL    HW167468   7.242   9.915   0.858
21898SOL    HW267469   7.325   9.815   0.936
21899SOL     OW67470  10.308   8.135   0.202
21899SOL    HW167471  10.299   8.201   0.270
21899SOL    HW267472  10.332   8.055   0.250
21900SOL     OW67473  12.618  11.467   4.433
21900SOL    HW167474  12.600  11.559   4.416
21900SOL    HW267475  12.713  11.458   4.422
21901SOL     OW67476   1.339   9.385  10.117
21901SOL    HW167477   1.369   9.372  10.026
21901SOL    HW267478   1.420   9.397  10.167
21902SOL     OW67479   6.761   5.057  11.492
21902SOL    HW167480   6.851   5.082  11.471
21902SOL    HW267481   6.725   5.027  11.409
21903SOL     OW67482   5.024  13.990  14.170
21903SOL    HW167483   4.986  13.910  14.204
21903SOL    HW267484   5.006  14.056  14.237
21904SOL     OW67485   6.536   9.584   5.757
21904SOL    HW167486   6.500   9.672   5.769
21904SOL    HW267487   6.461   9.526   5.764
21905SOL     OW67488  12.862  10.414   1.664
21905SOL    HW167489  12.858  10.320   1.644
21905SOL    HW267490  12.781  10.432   1.712
21906SOL     OW67491   0.874   7.276   8.668
21906SOL    HW167492   0.939   7.287   8.738
21906SOL    HW267493   0.857   7.182   8.665
21907SOL     OW67494   8.137   7.851   9.591
21907SOL    HW167495   8.078   7.780   9.614
21907SOL    HW267496   8.200   7.853   9.663
21908SOL     OW67497   7.164   1.756   0.291
21908SOL    HW167498   7.230   1.687   0.289
21908SOL    HW267499   7.164   1.786   0.382
21909SOL     OW67500  13.645  10.874   3.771
21909SOL    HW167501  13.716  10.860   3.709
21909SOL    HW267502  13.574  10.819   3.738
21910SOL     OW67503  14.003  11.763   3.526
21910SOL    HW167504  13.970  11.846   3.491
21910SOL    HW267505  14.039  11.785   3.612
21911SOL     OW67506   5.249  13.584  11.637
21911SOL    HW167507   5.189  13.601  11.564
21911SOL    HW267508   5.328  13.550  11.596
21912SOL     OW67509  11.646   8.542   5.444
21912SOL    HW167510  11.612   8.629   5.467
21912SOL    HW267511  11.705   8.520   5.516
21913SOL     OW67512   0.444   6.946   8.191
21913SOL    HW167513   0.409   7.025   8.150
21913SOL    HW267514   0.504   6.977   8.258
21914SOL     OW67515  13.733  14.043   9.205
21914SOL    HW167516  13.727  14.124   9.254
21914SOL    HW267517  13.798  14.060   9.137
21915SOL     OW67518  13.512   7.826   3.395
21915SOL    HW167519  13.521   7.801   3.487
21915SOL    HW267520  13.456   7.904   3.396
21916SOL     OW67521  10.833  11.372   8.946
21916SOL    HW167522  10.843  11.285   8.985
21916SOL    HW267523  10.821  11.431   9.021
21917SOL     OW67524   4.801   1.171  12.665
21917SOL    HW167525   4.814   1.146  12.574
21917SOL    HW267526   4.735   1.240  12.662
21918SOL     OW67527  10.411  13.791   1.294
21918SOL    HW167528  10.389  13.699   1.303
21918SOL    HW267529  10.421  13.823   1.384
21919SOL     OW67530  10.563   0.079   8.332
21919SOL    HW167531  10.507   0.156   8.331
21919SOL    HW267532  10.652   0.114   8.330
21920SOL     OW67533   7.445   1.653   6.935
21920SOL    HW167534   7.513   1.702   6.888
21920SOL    HW267535   7.448   1.688   7.024
21921SOL     OW67536  11.880   2.476   1.529
21921SOL    HW167537  11.933   2.418   1.475
21921SOL    HW267538  11.944   2.529   1.577
21922SOL     OW67539   5.938   6.740  10.694
21922SOL    HW167540   5.995   6.689  10.752
21922SOL    HW267541   5.909   6.813  10.748
21923SOL     OW67542  11.321   6.300   0.742
21923SOL    HW167543  11.237   6.343   0.731
21923SOL    HW267544  11.330   6.245   0.664
21924SOL     OW67545   1.479   5.231   4.659
21924SOL    HW167546   1.529   5.312   4.667
21924SOL    HW267547   1.519   5.185   4.585
21925SOL     OW67548   2.890  11.871  12.934
21925SOL    HW167549   2.831  11.914  12.872
21925SOL    HW267550   2.834  11.848  13.008
21926SOL     OW67551   1.461  14.005   2.536
21926SOL    HW167552   1.381  13.955   2.519
21926SOL    HW267553   1.442  14.092   2.499
21927SOL     OW67554   1.462   9.729   7.420
21927SOL    HW167555   1.506   9.737   7.336
21927SOL    HW267556   1.456   9.635   7.436
21928SOL     OW67557  10.252   1.779   6.185
21928SOL    HW167558  10.257   1.859   6.133
21928SOL    HW267559  10.186   1.725   6.141
21929SOL     OW67560   5.259   4.068   0.639
21929SOL    HW167561   5.303   4.090   0.721
21929SOL    HW267562   5.243   4.153   0.597
21930SOL     OW67563   5.481  14.593   7.596
21930SOL    HW167564   5.548  14.655   7.626
21930SOL    HW267565   5.471  14.611   7.503
21931SOL     OW67566   6.508  11.426   4.393
21931SOL    HW167567   6.593  11.382   4.387
21931SOL    HW267568   6.514  11.498   4.331
21932SOL     OW67569  10.789  10.604   0.476
21932SOL    HW167570  10.884  10.606   0.474
21932SOL    HW267571  10.763  10.695   0.490
21933SOL     OW67572  12.357   6.424   6.907
21933SOL    HW167573  12.410   6.383   6.976
21933SOL    HW267574  12.267   6.417   6.938
21934SOL     OW67575   4.696   4.458  14.051
21934SOL    HW167576   4.634   4.474  13.979
21934SOL    HW267577   4.781   4.452  14.009
21935SOL     OW67578   3.661   3.178  10.261
21935SOL    HW167579   3.603   3.129  10.202
21935SOL    HW267580   3.624   3.164  10.348
21936SOL     OW67581   6.204   0.101   4.627
21936SOL    HW167582   6.146   0.046   4.679
21936SOL    HW267583   6.269   0.041   4.590
21937SOL     OW67584   4.806   0.697   7.134
21937SOL    HW167585   4.846   0.610   7.138
21937SOL    HW267586   4.762   0.707   7.218
21938SOL     OW67587  11.590   9.897   0.646
21938SOL    HW167588  11.618   9.976   0.694
21938SOL    HW267589  11.525   9.929   0.584
21939SOL     OW67590  13.481   9.325   5.255
21939SOL    HW167591  13.389   9.302   5.264
21939SOL    HW267592  13.498   9.386   5.327
21940SOL     OW67593   9.521   8.254  14.595
21940SOL    HW167594   9.447   8.313  14.602
21940SOL    HW267595   9.582   8.298  14.535
21941SOL     OW67596   5.729   4.181  14.407
21941SOL    HW167597   5.660   4.238  14.441
21941SOL    HW267598   5.698   4.092  14.426
21942SOL     OW67599   2.664   6.374   7.113
21942SOL    HW167600   2.702   6.458   7.137
21942SOL    HW267601   2.642   6.332   7.196
21943SOL     OW67602  10.734  14.093   8.497
21943SOL    HW167603  10.697  14.172   8.459
21943SOL    HW267604  10.816  14.079   8.448
21944SOL     OW67605  10.863   0.519   9.513
21944SOL    HW167606  10.804   0.579   9.468
21944SOL    HW267607  10.866   0.550   9.603
21945SOL     OW67608  13.089   3.245   9.298
21945SOL    HW167609  13.182   3.242   9.278
21945SOL    HW267610  13.080   3.194   9.379
21946SOL     OW67611   8.530   3.126  10.675
21946SOL    HW167612   8.545   3.192  10.742
21946SOL    HW267613   8.607   3.069  10.680
21947SOL     OW67614   7.593   3.139   7.095
21947SOL    HW167615   7.618   3.221   7.053
21947SOL    HW267616   7.498   3.140   7.096
21948SOL     OW67617   2.107  10.466   6.308
21948SOL    HW167618   2.034  10.453   6.248
21948SOL    HW267619   2.174  10.508   6.254
21949SOL     OW67620   4.428  11.969  12.437
21949SOL    HW167621   4.376  12.028  12.382
21949SOL    HW267622   4.470  11.910  12.375
21950SOL     OW67623   2.738   2.298  12.999
21950SOL    HW167624   2.679   2.353  12.948
21950SOL    HW267625   2.715   2.316  13.090
21951SOL     OW67626  14.275   0.294   9.634
21951SOL    HW167627  14.353   0.271   9.584
21951SOL    HW267628  14.299   0.373   9.682
21952SOL     OW67629   0.761   3.128   9.000
21952SOL    HW167630   0.760   3.224   9.005
21952SOL    HW267631   0.853   3.105   8.988
21953SOL     OW67632  13.605   6.095   3.667
21953SOL    HW167633  13.526   6.063   3.622
21953SOL    HW267634  13.604   6.050   3.751
21954SOL     OW67635   3.949  11.711   6.775
21954SOL    HW167636   3.999  11.777   6.726
21954SOL    HW267637   4.006  11.688   6.849
21955SOL     OW67638   3.322   7.955   8.005
21955SOL    HW167639   3.272   7.939   7.924
21955SOL    HW267640   3.274   7.906   8.072
21956SOL     OW67641   1.078   1.224   5.454
21956SOL    HW167642   1.099   1.140   5.495
21956SOL    HW267643   1.124   1.289   5.508
21957SOL     OW67644   7.265   4.162  14.114
21957SOL    HW167645   7.303   4.093  14.059
21957SOL    HW267646   7.304   4.147  14.200
21958SOL     OW67647  13.040   4.661   6.932
21958SOL    HW167648  13.092   4.581   6.939
21958SOL    HW267649  13.070   4.701   6.850
21959SOL     OW67650   2.581  14.091   0.041
21959SOL    HW167651   2.665  14.133   0.023
21959SOL    HW267652   2.600  13.997   0.041
21960SOL     OW67653   2.056   2.420   5.415
21960SOL    HW167654   2.151   2.428   5.425
21960SOL    HW267655   2.036   2.466   5.334
21961SOL     OW67656   6.746   4.508  14.031
21961SOL    HW167657   6.768   4.581  14.089
21961SOL    HW267658   6.662   4.476  14.064
21962SOL     OW67659   4.949  11.690   3.219
21962SOL    HW167660   4.954  11.664   3.127
21962SOL    HW267661   4.943  11.607   3.266
21963SOL     OW67662  12.731   7.269  12.782
21963SOL    HW167663  12.644   7.247  12.749
21963SOL    HW267664  12.787   7.198  12.753
21964SOL     OW67665   7.192  12.984   2.128
21964SOL    HW167666   7.142  12.910   2.093
21964SOL    HW267667   7.217  13.035   2.051
21965SOL     OW67668  14.786   5.560   3.942
21965SOL    HW167669  14.877   5.578   3.918
21965SOL    HW267670  14.736   5.577   3.863
21966SOL     OW67671   9.055   9.902   9.029
21966SOL    HW167672   9.084   9.863   9.111
21966SOL    HW267673   9.117   9.973   9.012
21967SOL     OW67674  14.165  12.750   7.813
21967SOL    HW167675  14.224  12.823   7.793
21967SOL    HW267676  14.081  12.778   7.778
21968SOL     OW67677   8.236  12.735   3.658
21968SOL    HW167678   8.229  12.828   3.637
21968SOL    HW267679   8.178  12.691   3.596
21969SOL     OW67680   0.660   8.098   4.414
21969SOL    HW167681   0.668   8.059   4.327
21969SOL    HW267682   0.588   8.161   4.405
21970SOL     OW67683   3.268  10.142  12.273
21970SOL    HW167684   3.348  10.195  12.277
21970SOL    HW267685   3.203  10.192  12.321
21971SOL     OW67686   6.469   0.486   5.160
21971SOL    HW167687   6.452   0.488   5.254
21971SOL    HW267688   6.564   0.485   5.153
21972SOL     OW67689   7.389   1.184  10.071
21972SOL    HW167690   7.423   1.271  10.092
21972SOL    HW267691   7.297   1.187  10.097
21973SOL     OW67692   7.779   8.348   5.690
21973SOL    HW167693   7.874   8.346   5.688
21973SOL    HW267694   7.753   8.257   5.700
21974SOL     OW67695  14.192   8.124   0.733
21974SOL    HW167696  14.271   8.074   0.711
21974SOL    HW267697  14.181   8.184   0.659
21975SOL     OW67698   4.818  13.959  10.304
21975SOL    HW167699   4.841  13.867  10.292
21975SOL    HW267700   4.724  13.958  10.322
21976SOL     OW67701  10.533   4.335  14.084
21976SOL    HW167702  10.568   4.411  14.130
21976SOL    HW267703  10.518   4.270  14.153
21977SOL     OW67704   9.256   9.278  14.056
21977SOL    HW167705   9.319   9.206  14.059
21977SOL    HW267706   9.231   9.290  14.148
21978SOL     OW67707   1.984  11.668   7.400
21978SOL    HW167708   1.989  11.613   7.478
21978SOL    HW267709   1.968  11.605   7.329
21979SOL     OW67710  10.129   7.593   4.421
21979SOL    HW167711  10.216   7.583   4.382
21979SOL    HW267712  10.081   7.516   4.391
21980SOL     OW67713   9.900   7.635   0.300
21980SOL    HW167714   9.849   7.698   0.350
21980SOL    HW267715   9.964   7.688   0.253
21981SOL     OW67716  11.197  12.084   8.925
21981SOL    HW167717  11.181  12.014   8.862
21981SOL    HW267718  11.260  12.046   8.987
21982SOL     OW67719   2.327   8.202   2.391
21982SOL    HW167720   2.419   8.189   2.413
21982SOL    HW267721   2.320   8.295   2.370
21983SOL     OW67722   2.902   3.881   5.532
21983SOL    HW167723   2.871   3.840   5.451
21983SOL    HW267724   2.822   3.914   5.573
21984SOL     OW67725   1.272   0.923   1.056
21984SOL    HW167726   1.287   0.830   1.073
21984SOL    HW267727   1.212   0.950   1.125
21985SOL     OW67728   9.354   6.726   7.066
21985SOL    HW167729   9.420   6.739   7.134
21985SOL    HW267730   9.386   6.776   6.991
21986SOL     OW67731  14.873   4.579   3.737
21986SOL    HW167732  14.819   4.644   3.781
21986SOL    HW267733  14.819   4.500   3.736
21987SOL     OW67734   8.182   0.372  12.848
21987SOL    HW167735   8.140   0.287  12.860
21987SOL    HW267736   8.158   0.398  12.759
21988SOL     OW67737   5.379   7.159   9.864
21988SOL    HW167738   5.311   7.094   9.881
21988SOL    HW267739   5.336   7.243   9.884
21989SOL     OW67740   3.430   7.505   3.337
21989SOL    HW167741   3.431   7.500   3.242
21989SOL    HW267742   3.493   7.439   3.366
21990SOL     OW67743   9.010  11.674   0.283
21990SOL    HW167744   9.097  11.713   0.288
21990SOL    HW267745   8.967  11.700   0.365
21991SOL     OW67746  14.212  14.776   8.209
21991SOL    HW167747  14.176  14.716   8.143
21991SOL    HW267748  14.180  14.862   8.182
21992SOL     OW67749   3.593  10.985   1.138
21992SOL    HW167750   3.613  10.921   1.205
21992SOL    HW267751   3.675  10.998   1.091
21993SOL     OW67752   2.146   6.528   3.263
21993SOL    HW167753   2.182   6.507   3.177
21993SOL    HW267754   2.206   6.594   3.299
21994SOL     OW67755  11.100   4.503  12.407
21994SOL    HW167756  11.035   4.571  12.419
21994SOL    HW267757  11.174   4.546  12.364
21995SOL     OW67758   2.149   3.375   8.050
21995SOL    HW167759   2.148   3.471   8.050
21995SOL    HW267760   2.241   3.352   8.063
21996SOL     OW67761  10.089   0.315   8.692
21996SOL    HW167762  10.177   0.334   8.724
21996SOL    HW267763  10.085   0.220   8.689
21997SOL     OW67764   6.846   8.905  10.343
21997SOL    HW167765   6.863   8.887  10.251
21997SOL    HW267766   6.883   8.830  10.390
21998SOL     OW67767  11.561   8.375  14.723
21998SOL    HW167768  11.571   8.283  14.750
21998SOL    HW267769  11.484   8.375  14.667
21999SOL     OW67770   0.676   0.906  10.328
21999SOL    HW167771   0.608   0.842  10.348
21999SOL    HW267772   0.757   0.866  10.357
22000SOL     OW67773   1.029   5.078  12.567
22000SOL    HW167774   0.986   5.156  12.602
22000SOL    HW267775   0.975   5.005  12.600
22001SOL     OW67776   4.604   0.139   0.468
22001SOL    HW167777   4.573   0.227   0.489
22001SOL    HW267778   4.657   0.151   0.389
22002SOL     OW67779  12.458   7.319   2.251
22002SOL    HW167780  12.366   7.343   2.263
22002SOL    HW267781  12.462   7.229   2.284
22003SOL     OW67782   9.604  13.589   1.377
22003SOL    HW167783   9.671  13.538   1.331
22003SOL    HW267784   9.646  13.617   1.458
22004SOL     OW67785   3.494   7.250  10.855
22004SOL    HW167786   3.432   7.279  10.788
22004SOL    HW267787   3.443   7.249  10.936
22005SOL     OW67788   3.826   9.520   8.910
22005SOL    HW167789   3.901   9.480   8.866
22005SOL    HW267790   3.822   9.609   8.874
22006SOL     OW67791   7.561   0.896   3.822
22006SOL    HW167792   7.485   0.891   3.880
22006SOL    HW267793   7.541   0.836   3.750
22007SOL     OW67794   9.182   0.591  10.969
22007SOL    HW167795   9.138   0.507  10.978
22007SOL    HW267796   9.275   0.572  10.986
22008SOL     OW67797   1.590   4.840  12.442
22008SOL    HW167798   1.679   4.824  12.472
22008SOL    HW267799   1.555   4.906  12.502
22009SOL     OW67800  14.264   1.094  14.479
22009SOL    HW167801  14.174   1.116  14.457
22009SOL    HW267802  14.261   1.066  14.570
22010SOL     OW67803   2.687   5.918  13.623
22010SOL    HW167804   2.696   5.942  13.530
22010SOL    HW267805   2.669   5.824  13.621
22011SOL     OW67806   4.538  11.463   3.968
22011SOL    HW167807   4.609  11.488   3.909
22011SOL    HW267808   4.491  11.394   3.921
22012SOL     OW67809   3.018  13.037  13.460
22012SOL    HW167810   3.040  13.128  13.439
22012SOL    HW267811   3.088  13.010  13.519
22013SOL     OW67812   4.493   7.606   9.971
22013SOL    HW167813   4.518   7.532   9.916
22013SOL    HW267814   4.492   7.571  10.060
22014SOL     OW67815   0.693  13.547   6.445
22014SOL    HW167816   0.729  13.565   6.358
22014SOL    HW267817   0.637  13.470   6.432
22015SOL     OW67818   2.849   5.527   7.283
22015SOL    HW167819   2.839   5.578   7.203
22015SOL    HW267820   2.766   5.537   7.329
22016SOL     OW67821   8.859   8.083  11.661
22016SOL    HW167822   8.846   8.167  11.705
22016SOL    HW267823   8.948   8.086  11.628
22017SOL     OW67824   2.815  13.172   4.648
22017SOL    HW167825   2.751  13.164   4.577
22017SOL    HW267826   2.812  13.087   4.692
22018SOL     OW67827   3.067   3.282   8.740
22018SOL    HW167828   3.105   3.204   8.780
22018SOL    HW267829   2.990   3.250   8.693
22019SOL     OW67830  13.965  13.068  13.209
22019SOL    HW167831  13.927  13.114  13.134
22019SOL    HW267832  13.945  13.125  13.284
22020SOL     OW67833   0.046   8.365   8.205
22020SOL    HW167834   0.126   8.413   8.182
22020SOL    HW267835   0.059   8.278   8.168
22021SOL     OW67836   3.686   6.781   2.783
22021SOL    HW167837   3.593   6.792   2.804
22021SOL    HW267838   3.716   6.712   2.842
22022SOL     OW67839   0.669  13.247  12.808
22022SOL    HW167840   0.760  13.216  12.816
22022SOL    HW267841   0.678  13.338  12.779
22023SOL     OW67842   7.336   9.929   5.343
22023SOL    HW167843   7.280   9.993   5.299
22023SOL    HW267844   7.392   9.981   5.400
22024SOL     OW67845   6.056  12.129   6.986
22024SOL    HW167846   6.126  12.108   6.923
22024SOL    HW267847   6.088  12.207   7.032
22025SOL     OW67848   5.587   9.589  10.903
22025SOL    HW167849   5.556   9.669  10.859
22025SOL    HW267850   5.680   9.583  10.879
22026SOL     OW67851   9.088   2.411   8.825
22026SOL    HW167852   9.040   2.391   8.906
22026SOL    HW267853   9.112   2.504   8.834
22027SOL     OW67854  13.096   5.638   8.540
22027SOL    HW167855  13.012   5.665   8.502
22027SOL    HW267856  13.101   5.544   8.524
22028SOL     OW67857  12.350  10.998   5.735
22028SOL    HW167858  12.374  10.964   5.649
22028SOL    HW267859  12.422  10.970   5.792
22029SOL     OW67860   9.389   5.476  11.641
22029SOL    HW167861   9.336   5.554  11.657
22029SOL    HW267862   9.453   5.475  11.712
22030SOL     OW67863  13.843   1.401  12.296
22030SOL    HW167864  13.806   1.326  12.249
22030SOL    HW267865  13.834   1.379  12.389
22031SOL     OW67866   4.461   5.017   3.558
22031SOL    HW167867   4.503   4.940   3.596
22031SOL    HW267868   4.415   5.058   3.631
22032SOL     OW67869   6.708   1.494   8.736
22032SOL    HW167870   6.735   1.522   8.824
22032SOL    HW267871   6.635   1.551   8.714
22033SOL     OW67872   1.371  10.785   7.666
22033SOL    HW167873   1.285  10.801   7.627
22033SOL    HW267874   1.374  10.840   7.744
22034SOL     OW67875   4.550  10.443   2.873
22034SOL    HW167876   4.588  10.359   2.850
22034SOL    HW267877   4.606  10.507   2.829
22035SOL     OW67878  11.627   0.835   4.097
22035SOL    HW167879  11.609   0.928   4.112
22035SOL    HW267880  11.631   0.798   4.185
22036SOL     OW67881   2.425  13.174   4.745
22036SOL    HW167882   2.473  13.256   4.734
22036SOL    HW267883   2.485  13.116   4.792
22037SOL     OW67884   3.501   5.334   3.751
22037SOL    HW167885   3.533   5.246   3.772
22037SOL    HW267886   3.572   5.392   3.776
22038SOL     OW67887   4.555  12.990   6.814
22038SOL    HW167888   4.568  13.030   6.900
22038SOL    HW267889   4.461  12.975   6.808
22039SOL     OW67890   2.352   7.136   8.870
22039SOL    HW167891   2.340   7.173   8.957
22039SOL    HW267892   2.325   7.206   8.811
22040SOL     OW67893  12.520  10.188   3.139
22040SOL    HW167894  12.445  10.245   3.125
22040SOL    HW267895  12.546  10.160   3.051
22041SOL     OW67896   7.949  11.611   3.719
22041SOL    HW167897   8.040  11.637   3.736
22041SOL    HW267898   7.954  11.518   3.698
22042SOL     OW67899   4.486  13.092  10.393
22042SOL    HW167900   4.415  13.153  10.416
22042SOL    HW267901   4.444  13.006  10.388
22043SOL     OW67902  14.675   3.573   0.578
22043SOL    HW167903  14.652   3.486   0.545
22043SOL    HW267904  14.621   3.632   0.527
22044SOL     OW67905  12.288   8.008   5.746
22044SOL    HW167906  12.278   8.012   5.841
22044SOL    HW267907  12.372   7.964   5.732
22045SOL     OW67908   8.710  11.677   6.068
22045SOL    HW167909   8.645  11.612   6.094
22045SOL    HW267910   8.769  11.629   6.010
22046SOL     OW67911   6.514   9.155   2.865
22046SOL    HW167912   6.491   9.247   2.853
22046SOL    HW267913   6.442   9.107   2.823
22047SOL     OW67914   7.604   9.056   7.359
22047SOL    HW167915   7.657   8.976   7.367
22047SOL    HW267916   7.592   9.068   7.265
22048SOL     OW67917  10.935  12.562   1.518
22048SOL    HW167918  10.917  12.621   1.446
22048SOL    HW267919  10.897  12.604   1.595
22049SOL     OW67920   8.416  14.540   0.806
22049SOL    HW167921   8.391  14.470   0.866
22049SOL    HW267922   8.418  14.499   0.720
22050SOL     OW67923   9.236  14.596  14.599
22050SOL    HW167924   9.296  14.656  14.555
22050SOL    HW267925   9.169  14.578  14.533
22051SOL     OW67926  14.706  13.189   2.610
22051SOL    HW167927  14.642  13.118   2.610
22051SOL    HW267928  14.791  13.146   2.620
22052SOL     OW67929   8.427   5.221  11.207
22052SOL    HW167930   8.425   5.157  11.279
22052SOL    HW267931   8.424   5.306  11.251
22053SOL     OW67932   1.945   9.805   7.962
22053SOL    HW167933   1.917   9.885   7.916
22053SOL    HW267934   1.863   9.767   7.996
22054SOL     OW67935   7.830   5.556  11.865
22054SOL    HW167936   7.878   5.479  11.833
22054SOL    HW267937   7.800   5.529  11.952
22055SOL     OW67938   9.833   0.338   2.957
22055SOL    HW167939   9.839   0.322   2.863
22055SOL    HW267940   9.739   0.331   2.977
22056SOL     OW67941   1.971   7.123   7.294
22056SOL    HW167942   1.934   7.200   7.337
22056SOL    HW267943   2.039   7.159   7.237
22057SOL     OW67944   0.420   2.139   5.392
22057SOL    HW167945   0.415   2.195   5.469
22057SOL    HW267946   0.336   2.092   5.391
22058SOL     OW67947   0.692   3.081   6.467
22058SOL    HW167948   0.648   3.022   6.529
22058SOL    HW267949   0.784   3.078   6.492
22059SOL     OW67950   6.117   2.391   9.894
22059SOL    HW167951   6.193   2.342   9.864
22059SOL    HW267952   6.150   2.480   9.909
22060SOL     OW67953   1.254   9.735   3.406
22060SOL    HW167954   1.183   9.685   3.364
22060SOL    HW267955   1.219   9.760   3.491
22061SOL     OW67956   3.824  12.389   3.095
22061SOL    HW167957   3.847  12.342   3.176
22061SOL    HW267958   3.747  12.441   3.119
22062SOL     OW67959   5.333   2.530   4.194
22062SOL    HW167960   5.390   2.579   4.134
22062SOL    HW267961   5.361   2.557   4.281
22063SOL     OW67962   7.866   6.897   9.272
22063SOL    HW167963   7.957   6.873   9.290
22063SOL    HW267964   7.829   6.918   9.358
22064SOL     OW67965   5.301   8.333  11.311
22064SOL    HW167966   5.351   8.272  11.257
22064SOL    HW267967   5.227   8.358  11.257
22065SOL     OW67968  10.819  10.888   4.462
22065SOL    HW167969  10.892  10.916   4.407
22065SOL    HW267970  10.785  10.810   4.418
22066SOL     OW67971  14.636   7.392  11.677
22066SOL    HW167972  14.599   7.321  11.627
22066SOL    HW267973  14.564   7.453  11.691
22067SOL     OW67974   0.420   9.495   3.266
22067SOL    HW167975   0.486   9.428   3.278
22067SOL    HW267976   0.405   9.499   3.172
22068SOL     OW67977  11.328  11.900  11.693
22068SOL    HW167978  11.317  11.835  11.763
22068SOL    HW267979  11.383  11.856  11.628
22069SOL     OW67980   0.605   0.400   2.951
22069SOL    HW167981   0.681   0.353   2.917
22069SOL    HW267982   0.578   0.456   2.878
22070SOL     OW67983   4.666   6.387   7.679
22070SOL    HW167984   4.757   6.386   7.710
22070SOL    HW267985   4.618   6.434   7.746
22071SOL     OW67986   0.983   8.801  13.122
22071SOL    HW167987   1.052   8.747  13.084
22071SOL    HW267988   1.005   8.809  13.214
22072SOL     OW67989   0.212  11.844   9.276
22072SOL    HW167990   0.244  11.913   9.333
22072SOL    HW267991   0.290  11.814   9.229
22073SOL     OW67992  11.844   8.865   5.665
22073SOL    HW167993  11.799   8.945   5.692
22073SOL    HW267994  11.937   8.886   5.673
22074SOL     OW67995   6.605   6.016  10.334
22074SOL    HW167996   6.613   6.047  10.243
22074SOL    HW267997   6.645   5.929  10.333
22075SOL     OW67998  10.414   2.439   4.512
22075SOL    HW167999  10.423   2.397   4.598
22075SOL    HW268000  10.455   2.378   4.451
22076SOL     OW68001   6.141   8.257   2.945
22076SOL    HW168002   6.187   8.176   2.924
22076SOL    HW268003   6.063   8.256   2.890
22077SOL     OW68004   1.754  14.022   2.567
22077SOL    HW168005   1.663  14.037   2.590
22077SOL    HW268006   1.803  14.085   2.619
22078SOL     OW68007   9.184   8.509  14.766
22078SOL    HW168008   9.172   8.580  14.829
22078SOL    HW268009   9.097   8.468  14.760
22079SOL     OW68010   2.020   1.510  14.758
22079SOL    HW168011   2.058   1.462  14.685
22079SOL    HW268012   2.092   1.564  14.792
22080SOL     OW68013   4.374   9.794   4.466
22080SOL    HW168014   4.369   9.736   4.390
22080SOL    HW268015   4.385   9.735   4.540
22081SOL     OW68016   0.345   4.187   0.171
22081SOL    HW168017   0.392   4.110   0.141
22081SOL    HW268018   0.313   4.164   0.258
22082SOL     OW68019   7.656   8.133   8.497
22082SOL    HW168020   7.738   8.170   8.465
22082SOL    HW268021   7.681   8.049   8.535
22083SOL     OW68022   5.855   1.110   5.195
22083SOL    HW168023   5.869   1.103   5.289
22083SOL    HW268024   5.909   1.184   5.168
22084SOL     OW68025  13.684   8.725   9.697
22084SOL    HW168026  13.666   8.812   9.661
22084SOL    HW268027  13.779   8.723   9.710
22085SOL     OW68028   2.769  11.779   2.426
22085SOL    HW168029   2.712  11.713   2.384
22085SOL    HW268030   2.708  11.838   2.470
22086SOL     OW68031   7.985  13.301   1.290
22086SOL    HW168032   7.982  13.239   1.217
22086SOL    HW268033   8.066  13.279   1.337
22087SOL     OW68034   2.933   3.123  10.316
22087SOL    HW168035   3.023   3.134  10.346
22087SOL    HW268036   2.940   3.069  10.237
22088SOL     OW68037   0.373   8.451   5.693
22088SOL    HW168038   0.389   8.511   5.767
22088SOL    HW268039   0.423   8.372   5.715
22089SOL     OW68040  12.718   4.160  13.125
22089SOL    HW168041  12.795   4.140  13.179
22089SOL    HW268042  12.645   4.160  13.186
22090SOL     OW68043   6.280   4.058   2.106
22090SOL    HW168044   6.256   4.125   2.170
22090SOL    HW268045   6.220   4.072   2.033
22091SOL     OW68046   9.010   2.904   1.607
22091SOL    HW168047   9.012   2.865   1.520
22091SOL    HW268048   9.063   2.845   1.661
22092SOL     OW68049  11.829   5.404   5.771
22092SOL    HW168050  11.882   5.444   5.702
22092SOL    HW268051  11.884   5.333   5.804
22093SOL     OW68052   0.603   5.326  12.558
22093SOL    HW168053   0.517   5.361  12.579
22093SOL    HW268054   0.603   5.238  12.594
22094SOL     OW68055  13.609   7.714  14.844
22094SOL    HW168056  13.570   7.657  14.778
22094SOL    HW268057  13.662   7.655   0.020
22095SOL     OW68058   0.120   5.557  11.251
22095SOL    HW168059   0.099   5.513  11.168
22095SOL    HW268060   0.099   5.649  11.235
22096SOL     OW68061  11.857  13.520   4.920
22096SOL    HW168062  11.906  13.563   4.990
22096SOL    HW268063  11.773  13.567   4.917
22097SOL     OW68064   9.018  10.074   9.631
22097SOL    HW168065   9.066  10.045   9.708
22097SOL    HW268066   9.055  10.024   9.558
22098SOL     OW68067  14.015   7.886   1.695
22098SOL    HW168068  14.025   7.942   1.618
22098SOL    HW268069  13.958   7.816   1.666
22099SOL     OW68070   1.038   3.096   1.271
22099SOL    HW168071   1.072   3.119   1.185
22099SOL    HW268072   0.965   3.156   1.286
22100SOL     OW68073   4.385   8.532  10.683
22100SOL    HW168074   4.308   8.494  10.640
22100SOL    HW268075   4.409   8.607  10.629
22101SOL     OW68076  11.388   9.367   8.923
22101SOL    HW168077  11.433   9.291   8.960
22101SOL    HW268078  11.424   9.375   8.835
22102SOL     OW68079   1.268   5.808   9.684
22102SOL    HW168080   1.268   5.723   9.639
22102SOL    HW268081   1.361   5.823   9.705
22103SOL     OW68082  10.448   4.410  10.022
22103SOL    HW168083  10.356   4.397  10.042
22103SOL    HW268084  10.466   4.500  10.050
22104SOL     OW68085  12.892   2.635   8.679
22104SOL    HW168086  12.930   2.722   8.663
22104SOL    HW268087  12.832   2.648   8.752
22105SOL     OW68088  13.156   8.577   5.360
22105SOL    HW168089  13.095   8.620   5.299
22105SOL    HW268090  13.145   8.624   5.442
22106SOL     OW68091   6.106  12.106   3.615
22106SOL    HW168092   6.082  12.168   3.546
22106SOL    HW268093   6.173  12.153   3.666
22107SOL     OW68094   0.662   0.486  13.449
22107SOL    HW168095   0.661   0.517  13.359
22107SOL    HW268096   0.593   0.419  13.452
22108SOL     OW68097   4.317   0.014  10.141
22108SOL    HW168098   4.296   0.104  10.115
22108SOL    HW268099   4.382  14.863  10.077
22109SOL     OW68100   4.511   6.059  13.931
22109SOL    HW168101   4.553   6.008  13.863
22109SOL    HW268102   4.581   6.115  13.966
22110SOL     OW68103  14.417   9.575  11.162
22110SOL    HW168104  14.431   9.667  11.185
22110SOL    HW268105  14.414   9.530  11.246
22111SOL     OW68106   7.644  12.613  10.497
22111SOL    HW168107   7.669  12.534  10.449
22111SOL    HW268108   7.607  12.582  10.579
22112SOL     OW68109  13.554  10.887  10.438
22112SOL    HW168110  13.647  10.895  10.417
22112SOL    HW268111  13.541  10.949  10.510
22113SOL     OW68112   1.579   9.872   4.324
22113SOL    HW168113   1.633   9.946   4.354
22113SOL    HW268114   1.633   9.830   4.256
22114SOL     OW68115  14.212  10.250   8.084
22114SOL    HW168116  14.164  10.177   8.125
22114SOL    HW268117  14.171  10.260   7.998
22115SOL     OW68118  10.860   7.169   0.076
22115SOL    HW168119  10.805   7.155  14.877
22115SOL    HW268120  10.851   7.088   0.127
22116SOL     OW68121  10.013   2.107  12.881
22116SOL    HW168122   9.947   2.042  12.857
22116SOL    HW268123  10.068   2.115  12.803
22117SOL     OW68124   8.041  13.593   5.659
22117SOL    HW168125   7.985  13.669   5.677
22117SOL    HW268126   8.011  13.560   5.574
22118SOL     OW68127   9.912  10.894   3.033
22118SOL    HW168128   9.854  10.899   2.957
22118SOL    HW268129   9.853  10.884   3.107
22119SOL     OW68130   3.218   5.967  11.661
22119SOL    HW168131   3.252   5.988  11.747
22119SOL    HW268132   3.295   5.944  11.609
22120SOL     OW68133   1.068  13.859   1.487
22120SOL    HW168134   1.115  13.819   1.560
22120SOL    HW268135   1.078  13.953   1.502
22121SOL     OW68136   7.584   0.697   1.919
22121SOL    HW168137   7.550   0.638   1.851
22121SOL    HW268138   7.640   0.759   1.872
22122SOL     OW68139  13.918  14.129   2.501
22122SOL    HW168140  13.912  14.224   2.497
22122SOL    HW268141  13.891  14.107   2.590
22123SOL     OW68142   8.808  11.845   6.233
22123SOL    HW168143   8.802  11.776   6.298
22123SOL    HW268144   8.779  11.803   6.151
22124SOL     OW68145   6.338   1.125  14.304
22124SOL    HW168146   6.278   1.200  14.304
22124SOL    HW268147   6.419   1.159  14.267
22125SOL     OW68148   6.791  13.650   8.417
22125SOL    HW168149   6.707  13.664   8.372
22125SOL    HW268150   6.785  13.705   8.495
22126SOL     OW68151  13.255  11.570   0.189
22126SOL    HW168152  13.219  11.598   0.105
22126SOL    HW268153  13.292  11.650   0.227
22127SOL     OW68154   4.509   9.419   3.737
22127SOL    HW168155   4.538   9.328   3.733
22127SOL    HW268156   4.567   9.459   3.803
22128SOL     OW68157   5.922   5.815  11.246
22128SOL    HW168158   5.890   5.893  11.199
22128SOL    HW268159   5.954   5.849  11.330
22129SOL     OW68160   2.385  13.619   0.089
22129SOL    HW168161   2.469  13.574   0.091
22129SOL    HW268162   2.403  13.706   0.126
22130SOL     OW68163   3.714   8.383  11.589
22130SOL    HW168164   3.640   8.443  11.598
22130SOL    HW268165   3.681   8.299  11.619
22131SOL     OW68166  11.353   8.149   7.030
22131SOL    HW168167  11.283   8.209   7.055
22131SOL    HW268168  11.308   8.067   7.010
22132SOL     OW68169  11.036  10.474   5.494
22132SOL    HW168170  11.051  10.379   5.494
22132SOL    HW268171  11.120  10.511   5.522
22133SOL     OW68172  14.792   3.838   6.886
22133SOL    HW168173  14.806   3.809   6.796
22133SOL    HW268174  14.783   3.757   6.936
22134SOL     OW68175   0.110  12.868   1.132
22134SOL    HW168176   0.076  12.938   1.188
22134SOL    HW268177   0.110  12.907   1.044
22135SOL     OW68178   1.436  10.406  14.285
22135SOL    HW168179   1.515  10.361  14.255
22135SOL    HW268180   1.441  10.492  14.245
22136SOL     OW68181   8.808   1.061   3.935
22136SOL    HW168182   8.863   1.024   3.866
22136SOL    HW268183   8.760   0.987   3.970
22137SOL     OW68184   6.566   9.648   9.647
22137SOL    HW168185   6.532   9.713   9.586
22137SOL    HW268186   6.492   9.590   9.663
22138SOL     OW68187  13.855   6.384  14.502
22138SOL    HW168188  13.854   6.457  14.564
22138SOL    HW268189  13.883   6.424  14.419
22139SOL     OW68190   0.785  11.537  11.170
22139SOL    HW168191   0.880  11.529  11.158
22139SOL    HW268192   0.748  11.505  11.088
22140SOL     OW68193  11.856   8.218   1.374
22140SOL    HW168194  11.936   8.175   1.403
22140SOL    HW268195  11.790   8.149   1.374
22141SOL     OW68196  12.568   0.958  12.711
22141SOL    HW168197  12.643   0.999  12.668
22141SOL    HW268198  12.516   0.922  12.639
22142SOL     OW68199   1.410  12.438   6.470
22142SOL    HW168200   1.409  12.382   6.548
22142SOL    HW268201   1.493  12.418   6.427
22143SOL     OW68202   9.739   0.462   3.964
22143SOL    HW168203   9.662   0.497   4.009
22143SOL    HW268204   9.703   0.421   3.885
22144SOL     OW68205   9.991  14.139   9.700
22144SOL    HW168206  10.069  14.189   9.676
22144SOL    HW268207   9.966  14.172   9.786
22145SOL     OW68208   7.860  11.124  14.075
22145SOL    HW168209   7.843  11.105  14.167
22145SOL    HW268210   7.773  11.135  14.036
22146SOL     OW68211   1.569   3.862  11.068
22146SOL    HW168212   1.486   3.909  11.061
22146SOL    HW268213   1.550   3.790  11.128
22147SOL     OW68214  12.525   6.235  10.844
22147SOL    HW168215  12.518   6.142  10.866
22147SOL    HW268216  12.451   6.275  10.890
22148SOL     OW68217   5.575   5.750   9.058
22148SOL    HW168218   5.495   5.754   9.110
22148SOL    HW268219   5.551   5.788   8.974
22149SOL     OW68220   2.760  12.884  12.662
22149SOL    HW168221   2.762  12.935  12.580
22149SOL    HW268222   2.851  12.877  12.687
22150SOL     OW68223   2.393   1.794  11.593
22150SOL    HW168224   2.477   1.809  11.549
22150SOL    HW268225   2.334   1.858  11.552
22151SOL     OW68226  11.528  14.819   7.682
22151SOL    HW168227  11.542  14.741   7.629
22151SOL    HW268228  11.460  14.794   7.744
22152SOL     OW68229   5.696   0.599  12.864
22152SOL    HW168230   5.706   0.600  12.959
22152SOL    HW268231   5.602   0.584  12.851
22153SOL     OW68232   0.558   7.064   8.474
22153SOL    HW168233   0.473   7.067   8.519
22153SOL    HW268234   0.602   7.145   8.500
22154SOL     OW68235   5.194   0.231  10.326
22154SOL    HW168236   5.199   0.136  10.334
22154SOL    HW268237   5.267   0.263  10.379
22155SOL     OW68238   1.841   3.641  11.067
22155SOL    HW168239   1.813   3.553  11.040
22155SOL    HW268240   1.902   3.668  10.998
22156SOL     OW68241   9.639   3.125   2.377
22156SOL    HW168242   9.689   3.177   2.441
22156SOL    HW268243   9.571   3.185   2.345
22157SOL     OW68244   6.822   3.879   2.011
22157SOL    HW168245   6.752   3.926   1.966
22157SOL    HW268246   6.874   3.947   2.054
22158SOL     OW68247  13.485   7.499   7.702
22158SOL    HW168248  13.406   7.540   7.738
22158SOL    HW268249  13.462   7.481   7.611
22159SOL     OW68250   5.527   1.005   1.965
22159SOL    HW168251   5.620   1.022   1.949
22159SOL    HW268252   5.482   1.066   1.907
22160SOL     OW68253   4.391   4.053   2.786
22160SOL    HW168254   4.362   3.962   2.783
22160SOL    HW268255   4.367   4.089   2.701
22161SOL     OW68256   9.333   0.069   9.447
22161SOL    HW168257   9.335  14.853   9.431
22161SOL    HW268258   9.356   0.109   9.363
22162SOL     OW68259   9.966   2.908  10.019
22162SOL    HW168260  10.044   2.880   9.972
22162SOL    HW268261   9.995   2.921  10.109
22163SOL     OW68262   9.041   6.931   5.526
22163SOL    HW168263   8.991   6.876   5.466
22163SOL    HW268264   9.035   7.019   5.490
22164SOL     OW68265   1.406   5.123   8.754
22164SOL    HW168266   1.359   5.194   8.711
22164SOL    HW268267   1.392   5.137   8.848
22165SOL     OW68268  11.152   4.929   2.784
22165SOL    HW168269  11.095   4.868   2.831
22165SOL    HW268270  11.121   4.926   2.694
22166SOL     OW68271   5.848   7.333  11.454
22166SOL    HW168272   5.896   7.315  11.535
22166SOL    HW268273   5.826   7.426  11.459
22167SOL     OW68274   8.587  11.959   0.976
22167SOL    HW168275   8.604  12.050   1.002
22167SOL    HW268276   8.582  11.962   0.881
22168SOL     OW68277   4.096   9.787  11.898
22168SOL    HW168278   4.154   9.828  11.962
22168SOL    HW268279   4.031   9.741  11.951
22169SOL     OW68280   2.508  14.540   1.426
22169SOL    HW168281   2.585  14.548   1.370
22169SOL    HW268282   2.505  14.447   1.450
22170SOL     OW68283   1.986   5.802   5.449
22170SOL    HW168284   1.897   5.828   5.474
22170SOL    HW268285   1.993   5.828   5.357
22171SOL     OW68286  12.453   0.678   9.075
22171SOL    HW168287  12.531   0.646   9.120
22171SOL    HW268288  12.465   0.773   9.069
22172SOL     OW68289  14.158   8.912  14.480
22172SOL    HW168290  14.249   8.882  14.479
22172SOL    HW268291  14.147   8.956  14.395
22173SOL     OW68292   6.231   2.330   4.802
22173SOL    HW168293   6.158   2.366   4.753
22173SOL    HW268294   6.238   2.239   4.772
22174SOL     OW68295   6.656  13.063  12.448
22174SOL    HW168296   6.593  13.133  12.433
22174SOL    HW268297   6.713  13.066  12.371
22175SOL     OW68298   7.649  14.663   9.825
22175SOL    HW168299   7.729  14.611   9.826
22175SOL    HW268300   7.670  14.742   9.873
22176SOL     OW68301   0.817  12.454   2.572
22176SOL    HW168302   0.805  12.370   2.616
22176SOL    HW268303   0.909  12.454   2.545
22177SOL     OW68304   6.389   2.357   4.396
22177SOL    HW168305   6.453   2.346   4.326
22177SOL    HW268306   6.304   2.351   4.352
22178SOL     OW68307   2.608  13.734   9.045
22178SOL    HW168308   2.562  13.675   8.986
22178SOL    HW268309   2.595  13.696   9.132
22179SOL     OW68310   0.046   5.108   2.757
22179SOL    HW168311   0.049   5.179   2.693
22179SOL    HW268312   0.133   5.068   2.753
22180SOL     OW68313  14.571  13.149   9.010
22180SOL    HW168314  14.568  13.135   8.915
22180SOL    HW268315  14.479  13.163   9.034
22181SOL     OW68316   5.544   3.967   7.887
22181SOL    HW168317   5.545   3.899   7.954
22181SOL    HW268318   5.547   3.919   7.804
22182SOL     OW68319  11.930   5.659   5.659
22182SOL    HW168320  11.874   5.655   5.737
22182SOL    HW268321  12.019   5.656   5.693
22183SOL     OW68322   1.234  13.699   2.734
22183SOL    HW168323   1.310  13.689   2.791
22183SOL    HW268324   1.214  13.610   2.706
22184SOL     OW68325   3.546   6.923   6.926
22184SOL    HW168326   3.619   6.983   6.916
22184SOL    HW268327   3.580   6.853   6.982
22185SOL     OW68328   4.502  10.860   9.323
22185SOL    HW168329   4.590  10.850   9.361
22185SOL    HW268330   4.507  10.939   9.270
22186SOL     OW68331   1.412   5.638   4.853
22186SOL    HW168332   1.401   5.727   4.820
22186SOL    HW268333   1.441   5.650   4.943
22187SOL     OW68334   0.376  11.907  12.683
22187SOL    HW168335   0.373  11.906  12.779
22187SOL    HW268336   0.315  11.839  12.656
22188SOL     OW68337   4.809   5.503   2.563
22188SOL    HW168338   4.786   5.414   2.537
22188SOL    HW268339   4.747   5.525   2.632
22189SOL     OW68340   8.523   5.054  11.721
22189SOL    HW168341   8.569   5.091  11.796
22189SOL    HW268342   8.482   4.974  11.754
22190SOL     OW68343  13.686   4.605  14.825
22190SOL    HW168344  13.626   4.674  14.852
22190SOL    HW268345  13.692   4.614  14.730
22191SOL     OW68346  10.548   8.446   0.216
22191SOL    HW168347  10.460   8.418   0.193
22191SOL    HW268348  10.590   8.367   0.250
22192SOL     OW68349   3.160   5.089  13.242
22192SOL    HW168350   3.156   5.178  13.278
22192SOL    HW268351   3.161   5.032  13.318
22193SOL     OW68352   9.034   7.494  14.864
22193SOL    HW168353   8.941   7.517  14.854
22193SOL    HW268354   9.059   7.459  14.779
22194SOL     OW68355  12.550   8.760  11.023
22194SOL    HW168356  12.466   8.801  11.000
22194SOL    HW268357  12.610   8.790  10.956
22195SOL     OW68358   3.534  14.776  11.324
22195SOL    HW168359   3.617  14.805  11.361
22195SOL    HW268360   3.473  14.847  11.342
22196SOL     OW68361   2.518   7.557  13.088
22196SOL    HW168362   2.451   7.552  13.020
22196SOL    HW268363   2.521   7.470  13.126
22197SOL     OW68364   6.735   0.574   1.792
22197SOL    HW168365   6.697   0.630   1.859
22197SOL    HW268366   6.663   0.554   1.732
22198SOL     OW68367   4.188   1.732  13.961
22198SOL    HW168368   4.171   1.645  13.924
22198SOL    HW268369   4.281   1.747  13.945
22199SOL     OW68370   1.955   3.262  10.138
22199SOL    HW168371   2.041   3.275  10.178
22199SOL    HW268372   1.895   3.252  10.212
22200SOL     OW68373  11.227  11.622  13.610
22200SOL    HW168374  11.186  11.643  13.694
22200SOL    HW268375  11.290  11.693  13.595
22201SOL     OW68376  12.862  13.393  11.893
22201SOL    HW168377  12.794  13.325  11.889
22201SOL    HW268378  12.943  13.347  11.872
22202SOL     OW68379   0.606   0.996  11.096
22202SOL    HW168380   0.523   1.038  11.119
22202SOL    HW268381   0.660   1.008  11.174
22203SOL     OW68382  13.478   5.513   8.512
22203SOL    HW168383  13.446   5.423   8.502
22203SOL    HW268384  13.482   5.526   8.607
22204SOL     OW68385   6.599  13.871   5.147
22204SOL    HW168386   6.651  13.923   5.208
22204SOL    HW268387   6.529  13.930   5.118
22205SOL     OW68388   4.690   8.740   9.129
22205SOL    HW168389   4.708   8.750   9.223
22205SOL    HW268390   4.776   8.738   9.088
22206SOL     OW68391  14.660   6.616   8.314
22206SOL    HW168392  14.692   6.639   8.227
22206SOL    HW268393  14.736   6.628   8.371
22207SOL     OW68394   4.411  12.857   5.780
22207SOL    HW168395   4.501  12.852   5.748
22207SOL    HW268396   4.357  12.831   5.706
22208SOL     OW68397  10.335   0.281   2.374
22208SOL    HW168398  10.292   0.232   2.444
22208SOL    HW268399  10.295   0.367   2.377
22209SOL     OW68400   7.339  12.746  10.578
22209SOL    HW168401   7.312  12.811  10.513
22209SOL    HW268402   7.342  12.663  10.530
22210SOL     OW68403  11.603   1.465   2.088
22210SOL    HW168404  11.591   1.424   2.002
22210SOL    HW268405  11.652   1.545   2.070
22211SOL     OW68406   7.978   8.503   8.077
22211SOL    HW168407   8.022   8.430   8.120
22211SOL    HW268408   8.039   8.532   8.009
22212SOL     OW68409  13.351   9.419   6.869
22212SOL    HW168410  13.424   9.380   6.821
22212SOL    HW268411  13.288   9.443   6.801
22213SOL     OW68412  11.311   5.127   2.304
22213SOL    HW168413  11.332   5.214   2.339
22213SOL    HW268414  11.217   5.131   2.287
22214SOL     OW68415   4.574   3.733   1.458
22214SOL    HW168416   4.566   3.809   1.400
22214SOL    HW268417   4.655   3.749   1.507
22215SOL     OW68418  10.011  13.270  14.132
22215SOL    HW168419  10.027  13.356  14.093
22215SOL    HW268420  10.096  13.243  14.167
22216SOL     OW68421   4.093  14.234  11.240
22216SOL    HW168422   4.115  14.144  11.217
22216SOL    HW268423   4.000  14.243  11.219
22217SOL     OW68424   2.987  10.882   8.893
22217SOL    HW168425   2.961  10.961   8.845
22217SOL    HW268426   3.051  10.913   8.957
22218SOL     OW68427   0.214  10.415   0.630
22218SOL    HW168428   0.284  10.369   0.584
22218SOL    HW268429   0.241  10.414   0.722
22219SOL     OW68430  13.535   8.277  14.703
22219SOL    HW168431  13.442   8.293  14.717
22219SOL    HW268432  13.575   8.293  14.789
22220SOL     OW68433   8.016   8.600  11.225
22220SOL    HW168434   7.955   8.596  11.150
22220SOL    HW268435   8.102   8.610  11.185
22221SOL     OW68436  13.572  10.753  13.132
22221SOL    HW168437  13.631  10.744  13.206
22221SOL    HW268438  13.492  10.707  13.159
22222SOL     OW68439  11.796   8.697  14.577
22222SOL    HW168440  11.729   8.690  14.645
22222SOL    HW268441  11.867   8.748  14.618
22223SOL     OW68442   3.685   0.906   3.232
22223SOL    HW168443   3.771   0.868   3.248
22223SOL    HW268444   3.702   1.000   3.226
22224SOL     OW68445   8.179  12.119   8.292
22224SOL    HW168446   8.145  12.156   8.374
22224SOL    HW268447   8.237  12.186   8.257
22225SOL     OW68448   6.951  10.451   0.615
22225SOL    HW168449   6.997  10.372   0.645
22225SOL    HW268450   6.858  10.429   0.624
22226SOL     OW68451   8.932   8.403  14.701
22226SOL    HW168452   8.913   8.439  14.615
22226SOL    HW268453   8.903   8.312  14.696
22227SOL     OW68454   8.588  10.710   5.431
22227SOL    HW168455   8.548  10.668   5.355
22227SOL    HW268456   8.527  10.693   5.503
22228SOL     OW68457   1.484  13.870   1.390
22228SOL    HW168458   1.512  13.778   1.384
22228SOL    HW268459   1.397  13.871   1.350
22229SOL     OW68460   4.689   7.264   0.134
22229SOL    HW168461   4.621   7.222   0.186
22229SOL    HW268462   4.679   7.357   0.153
22230SOL     OW68463   5.871   6.670   9.299
22230SOL    HW168464   5.961   6.695   9.323
22230SOL    HW268465   5.863   6.693   9.207
22231SOL     OW68466  10.737   6.400  13.267
22231SOL    HW168467  10.741   6.341  13.342
22231SOL    HW268468  10.684   6.353  13.202
22232SOL     OW68469   2.805   3.915   4.855
22232SOL    HW168470   2.773   3.938   4.768
22232SOL    HW268471   2.752   3.840   4.881
22233SOL     OW68472   9.920  14.708  12.606
22233SOL    HW168473   9.843  14.686  12.659
22233SOL    HW268474   9.962  14.624  12.588
22234SOL     OW68475   6.105   2.352   7.383
22234SOL    HW168476   6.124   2.442   7.355
22234SOL    HW268477   6.064   2.362   7.468
22235SOL     OW68478   0.152   4.441  11.368
22235SOL    HW168479   0.148   4.346  11.363
22235SOL    HW268480   0.061   4.468  11.377
22236SOL     OW68481   9.112   1.500   6.547
22236SOL    HW168482   9.096   1.414   6.584
22236SOL    HW268483   9.056   1.504   6.469
22237SOL     OW68484   0.771   1.021   0.582
22237SOL    HW168485   0.726   1.063   0.508
22237SOL    HW268486   0.864   1.034   0.563
22238SOL     OW68487   1.262   5.403   8.816
22238SOL    HW168488   1.206   5.334   8.850
22238SOL    HW268489   1.262   5.470   8.885
22239SOL     OW68490   8.835   2.647   5.171
22239SOL    HW168491   8.908   2.709   5.167
22239SOL    HW268492   8.819   2.623   5.079
22240SOL     OW68493   0.131   1.122  12.515
22240SOL    HW168494   0.209   1.115  12.460
22240SOL    HW268495   0.149   1.066  12.590
22241SOL     OW68496   9.995   4.318   4.314
22241SOL    HW168497   9.928   4.385   4.297
22241SOL    HW268498   9.958   4.265   4.384
22242SOL     OW68499  14.769  10.085  11.436
22242SOL    HW168500  14.772  10.019  11.367
22242SOL    HW268501  14.807  10.163  11.397
22243SOL     OW68502   7.680   5.082   6.672
22243SOL    HW168503   7.774   5.089   6.658
22243SOL    HW268504   7.659   4.990   6.651
22244SOL     OW68505   0.400   7.359   8.524
22244SOL    HW168506   0.315   7.391   8.493
22244SOL    HW268507   0.408   7.395   8.613
22245SOL     OW68508   0.995  14.543   2.206
22245SOL    HW168509   1.038  14.513   2.286
22245SOL    HW268510   0.910  14.498   2.206
22246SOL     OW68511  10.579   2.981   8.345
22246SOL    HW168512  10.496   3.022   8.368
22246SOL    HW268513  10.563   2.887   8.351
22247SOL     OW68514   9.909   3.853   2.505
22247SOL    HW168515   9.894   3.926   2.565
22247SOL    HW268516   9.976   3.884   2.444
22248SOL     OW68517  12.418   8.204  12.703
22248SOL    HW168518  12.507   8.233  12.683
22248SOL    HW268519  12.368   8.223  12.624
22249SOL     OW68520  14.471  13.329  11.924
22249SOL    HW168521  14.429  13.247  11.948
22249SOL    HW268522  14.536  13.304  11.858
22250SOL     OW68523  13.815   8.438   5.312
22250SOL    HW168524  13.865   8.419   5.232
22250SOL    HW268525  13.882   8.454   5.378
22251SOL     OW68526   4.830  13.882   1.972
22251SOL    HW168527   4.848  13.929   1.890
22251SOL    HW268528   4.876  13.933   2.039
22252SOL     OW68529   1.644  14.434   2.286
22252SOL    HW168530   1.644  14.346   2.249
22252SOL    HW268531   1.552  14.459   2.289
22253SOL     OW68532   4.913  10.557   6.178
22253SOL    HW168533   4.979  10.490   6.159
22253SOL    HW268534   4.931  10.585   6.267
22254SOL     OW68535  13.393   9.899  12.474
22254SOL    HW168536  13.484   9.929  12.475
22254SOL    HW268537  13.348   9.963  12.418
22255SOL     OW68538  10.243  14.051  14.628
22255SOL    HW168539  10.282  14.115  14.687
22255SOL    HW268540  10.236  13.971  14.681
22256SOL     OW68541   1.544   0.318   5.412
22256SOL    HW168542   1.600   0.390   5.382
22256SOL    HW268543   1.483   0.304   5.340
22257SOL     OW68544   3.947  13.714  13.893
22257SOL    HW168545   4.021  13.775  13.885
22257SOL    HW268546   3.947  13.689  13.986
22258SOL     OW68547   4.888   6.574   9.474
22258SOL    HW168548   4.793   6.565   9.464
22258SOL    HW268549   4.901   6.592   9.567
22259SOL     OW68550  11.373  12.260   9.541
22259SOL    HW168551  11.372  12.218   9.627
22259SOL    HW268552  11.310  12.331   9.549
22260SOL     OW68553   3.069   4.235  14.523
22260SOL    HW168554   3.137   4.171  14.503
22260SOL    HW268555   3.025   4.252  14.440
22261SOL     OW68556  13.569   1.875  14.095
22261SOL    HW168557  13.581   1.888  14.001
22261SOL    HW268558  13.494   1.929  14.117
22262SOL     OW68559   0.955   8.229   8.805
22262SOL    HW168560   0.974   8.280   8.883
22262SOL    HW268561   0.983   8.140   8.827
22263SOL     OW68562  12.032   0.637  10.431
22263SOL    HW168563  12.045   0.712  10.373
22263SOL    HW268564  11.972   0.670  10.499
22264SOL     OW68565   4.699  12.990   0.504
22264SOL    HW168566   4.670  12.932   0.434
22264SOL    HW268567   4.794  12.984   0.502
22265SOL     OW68568  14.688   4.733   2.760
22265SOL    HW168569  14.689   4.653   2.811
22265SOL    HW268570  14.749   4.792   2.805
22266SOL     OW68571  13.930   5.038   6.973
22266SOL    HW168572  13.865   5.074   7.033
22266SOL    HW268573  14.014   5.054   7.017
22267SOL     OW68574  12.949   3.728  12.396
22267SOL    HW168575  12.993   3.803  12.356
22267SOL    HW268576  12.884   3.766  12.455
22268SOL     OW68577   9.779  13.383   1.310
22268SOL    HW168578   9.844  13.399   1.242
22268SOL    HW268579   9.830  13.382   1.391
22269SOL     OW68580  12.760   1.121   1.630
22269SOL    HW168581  12.682   1.112   1.575
22269SOL    HW268582  12.830   1.143   1.569
22270SOL     OW68583  13.096   5.023   9.718
22270SOL    HW168584  13.072   5.102   9.671
22270SOL    HW268585  13.139   5.054   9.798
22271SOL     OW68586   3.655   2.593   5.730
22271SOL    HW168587   3.693   2.524   5.676
22271SOL    HW268588   3.590   2.549   5.784
22272SOL     OW68589   4.871   3.482   2.218
22272SOL    HW168590   4.872   3.404   2.162
22272SOL    HW268591   4.802   3.537   2.180
22273SOL     OW68592  12.128  13.228   5.572
22273SOL    HW168593  12.222  13.246   5.575
22273SOL    HW268594  12.091  13.284   5.640
22274SOL     OW68595  12.144   4.182   9.685
22274SOL    HW168596  12.187   4.169   9.600
22274SOL    HW268597  12.052   4.195   9.664
22275SOL     OW68598  13.414   9.699   7.336
22275SOL    HW168599  13.387   9.659   7.253
22275SOL    HW268600  13.495   9.745   7.316
22276SOL     OW68601   7.463   9.894  10.743
22276SOL    HW168602   7.413   9.888  10.825
22276SOL    HW268603   7.494   9.984  10.741
22277SOL     OW68604   6.760   2.958   8.675
22277SOL    HW168605   6.832   3.021   8.675
22277SOL    HW268606   6.798   2.878   8.710
22278SOL     OW68607   3.241  11.541   1.091
22278SOL    HW168608   3.223  11.590   1.011
22278SOL    HW268609   3.213  11.452   1.071
22279SOL     OW68610   6.217   4.394  10.078
22279SOL    HW168611   6.290   4.426  10.131
22279SOL    HW268612   6.182   4.320  10.126
22280SOL     OW68613   7.048   5.643   1.465
22280SOL    HW168614   7.074   5.735   1.464
22280SOL    HW268615   6.976   5.638   1.529
22281SOL     OW68616   9.271  14.365  12.710
22281SOL    HW168617   9.265  14.357  12.615
22281SOL    HW268618   9.195  14.316  12.743
22282SOL     OW68619   3.255   8.339   2.749
22282SOL    HW168620   3.293   8.318   2.834
22282SOL    HW268621   3.161   8.323   2.761
22283SOL     OW68622   1.421  13.701   4.801
22283SOL    HW168623   1.350  13.677   4.742
22283SOL    HW268624   1.458  13.617   4.830
22284SOL     OW68625   1.858   5.590   8.123
22284SOL    HW168626   1.883   5.525   8.189
22284SOL    HW268627   1.782   5.634   8.161
22285SOL     OW68628   3.766   5.967   8.486
22285SOL    HW168629   3.712   5.895   8.451
22285SOL    HW268630   3.707   6.042   8.488
22286SOL     OW68631   5.768   0.627   2.630
22286SOL    HW168632   5.768   0.629   2.725
22286SOL    HW268633   5.803   0.541   2.607
22287SOL     OW68634   4.780   2.943   9.804
22287SOL    HW168635   4.693   2.982   9.792
22287SOL    HW268636   4.785   2.874   9.738
22288SOL     OW68637  10.998   2.914  11.252
22288SOL    HW168638  10.910   2.905  11.217
22288SOL    HW268639  11.050   2.851  11.202
22289SOL     OW68640   7.041  13.639   6.518
22289SOL    HW168641   6.992  13.586   6.580
22289SOL    HW268642   7.133  13.620   6.537
22290SOL     OW68643   7.353  10.291   8.290
22290SOL    HW168644   7.428  10.234   8.308
22290SOL    HW268645   7.334  10.333   8.374
22291SOL     OW68646   4.044   8.319   4.844
22291SOL    HW168647   4.070   8.304   4.753
22291SOL    HW268648   4.107   8.382   4.877
22292SOL     OW68649   0.557   1.586  13.512
22292SOL    HW168650   0.506   1.630  13.443
22292SOL    HW268651   0.547   1.492  13.492
22293SOL     OW68652  10.307   5.123  10.280
22293SOL    HW168653  10.379   5.128  10.343
22293SOL    HW268654  10.250   5.196  10.303
22294SOL     OW68655   4.652  10.553  11.971
22294SOL    HW168656   4.709  10.551  11.894
22294SOL    HW268657   4.631  10.461  11.988
22295SOL     OW68658   3.918   0.271   3.224
22295SOL    HW168659   3.912   0.228   3.139
22295SOL    HW268660   3.883   0.208   3.287
22296SOL     OW68661  10.320   2.651  14.043
22296SOL    HW168662  10.310   2.746  14.049
22296SOL    HW268663  10.363   2.626  14.125
22297SOL     OW68664  12.394   6.738   2.961
22297SOL    HW168665  12.358   6.650   2.961
22297SOL    HW268666  12.404   6.760   3.054
22298SOL     OW68667   3.587  13.528  14.271
22298SOL    HW168668   3.645  13.575  14.331
22298SOL    HW268669   3.593  13.437  14.300
22299SOL     OW68670  11.854  10.655  10.239
22299SOL    HW168671  11.889  10.596  10.307
22299SOL    HW268672  11.778  10.695  10.280
22300SOL     OW68673   4.440   2.468   1.819
22300SOL    HW168674   4.346   2.474   1.799
22300SOL    HW268675   4.444   2.457   1.914
22301SOL     OW68676   5.628  12.979   0.049
22301SOL    HW168677   5.542  12.981   0.091
22301SOL    HW268678   5.688  13.013   0.115
22302SOL     OW68679  12.604  14.123   9.625
22302SOL    HW168680  12.572  14.038   9.654
22302SOL    HW268681  12.562  14.186   9.683
22303SOL     OW68682   8.298   7.206  13.038
22303SOL    HW168683   8.271   7.227  12.949
22303SOL    HW268684   8.352   7.128  13.029
22304SOL     OW68685  14.347   5.340  12.285
22304SOL    HW168686  14.333   5.412  12.348
22304SOL    HW268687  14.283   5.274  12.311
22305SOL     OW68688   1.975   5.240  11.764
22305SOL    HW168689   2.032   5.231  11.688
22305SOL    HW268690   1.889   5.208  11.734
22306SOL     OW68691   1.396   9.321   3.491
22306SOL    HW168692   1.426   9.331   3.581
22306SOL    HW268693   1.305   9.292   3.498
22307SOL     OW68694   6.903   2.333   0.932
22307SOL    HW168695   6.984   2.292   0.964
22307SOL    HW268696   6.837   2.308   0.997
22308SOL     OW68697   5.678  14.296  10.522
22308SOL    HW168698   5.723  14.327  10.600
22308SOL    HW268699   5.590  14.272  10.551
22309SOL     OW68700   4.066   2.380   8.055
22309SOL    HW168701   4.010   2.456   8.072
22309SOL    HW268702   4.121   2.407   7.981
22310SOL     OW68703  14.829   5.001  11.273
22310SOL    HW168704  14.875   5.044  11.201
22310SOL    HW268705  14.738   5.028  11.262
22311SOL     OW68706   0.724  10.418  12.826
22311SOL    HW168707   0.787  10.478  12.786
22311SOL    HW268708   0.653  10.475  12.855
22312SOL     OW68709   6.711  14.358   9.878
22312SOL    HW168710   6.712  14.311   9.962
22312SOL    HW268711   6.716  14.451   9.902
22313SOL     OW68712  11.480  12.547   7.856
22313SOL    HW168713  11.493  12.574   7.947
22313SOL    HW268714  11.553  12.488   7.837
22314SOL     OW68715  10.044  13.346   2.224
22314SOL    HW168716  10.110  13.325   2.290
22314SOL    HW268717   9.997  13.420   2.260
22315SOL     OW68718   5.400   1.832  12.473
22315SOL    HW168719   5.461   1.807  12.403
22315SOL    HW268720   5.369   1.919  12.448
22316SOL     OW68721  12.357  12.478   9.833
22316SOL    HW168722  12.338  12.455   9.924
22316SOL    HW268723  12.319  12.406   9.782
22317SOL     OW68724  14.400   9.330   3.756
22317SOL    HW168725  14.452   9.348   3.834
22317SOL    HW268726  14.463   9.300   3.691
22318SOL     OW68727  13.459  14.086  13.850
22318SOL    HW168728  13.500  14.007  13.885
22318SOL    HW268729  13.430  14.134  13.928
22319SOL     OW68730  14.134   9.578  14.437
22319SOL    HW168731  14.131   9.486  14.409
22319SOL    HW268732  14.096   9.578  14.524
22320SOL     OW68733   8.395   6.230   1.747
22320SOL    HW168734   8.363   6.173   1.678
22320SOL    HW268735   8.418   6.171   1.819
22321SOL     OW68736   9.199  11.169   8.357
22321SOL    HW168737   9.188  11.184   8.264
22321SOL    HW268738   9.155  11.243   8.399
22322SOL     OW68739   8.292   4.544  14.180
22322SOL    HW168740   8.379   4.538  14.218
22322SOL    HW268741   8.236   4.574  14.252
22323SOL     OW68742  13.411   3.230   4.934
22323SOL    HW168743  13.456   3.283   4.868
22323SOL    HW268744  13.481   3.176   4.972
22324SOL     OW68745  11.947  14.162  12.059
22324SOL    HW168746  11.999  14.136  12.135
22324SOL    HW268747  11.973  14.102  11.990
22325SOL     OW68748   4.695   6.465   0.682
22325SOL    HW168749   4.770   6.503   0.636
22325SOL    HW268750   4.695   6.373   0.654
22326SOL     OW68751  11.839   2.498   7.146
22326SOL    HW168752  11.858   2.568   7.083
22326SOL    HW268753  11.860   2.536   7.231
22327SOL     OW68754   5.234   6.669   7.802
22327SOL    HW168755   5.267   6.583   7.776
22327SOL    HW268756   5.140   6.664   7.784
22328SOL     OW68757   1.005  14.277   7.275
22328SOL    HW168758   1.076  14.312   7.330
22328SOL    HW268759   0.932  14.266   7.336
22329SOL     OW68760  12.580  10.809   6.358
22329SOL    HW168761  12.621  10.877   6.304
22329SOL    HW268762  12.583  10.730   6.304
22330SOL     OW68763   1.936   8.931  10.874
22330SOL    HW168764   2.025   8.928  10.909
22330SOL    HW268765   1.946   8.904  10.783
22331SOL     OW68766   1.289   4.245   1.316
22331SOL    HW168767   1.233   4.226   1.392
22331SOL    HW268768   1.377   4.252   1.353
22332SOL     OW68769   6.330   0.294   2.224
22332SOL    HW168770   6.368   0.211   2.254
22332SOL    HW268771   6.239   0.289   2.251
22333SOL     OW68772   6.208   5.296   8.349
22333SOL    HW168773   6.299   5.292   8.319
22333SOL    HW268774   6.167   5.217   8.315
22334SOL     OW68775   9.697   2.879   3.499
22334SOL    HW168776   9.719   2.799   3.450
22334SOL    HW268777   9.779   2.905   3.541
22335SOL     OW68778  10.531   5.250   4.152
22335SOL    HW168779  10.506   5.160   4.135
22335SOL    HW268780  10.468   5.303   4.102
22336SOL     OW68781   6.684   6.979   3.825
22336SOL    HW168782   6.773   6.999   3.797
22336SOL    HW268783   6.629   7.004   3.751
22337SOL     OW68784  13.274   4.525   7.167
22337SOL    HW168785  13.203   4.519   7.231
22337SOL    HW268786  13.241   4.477   7.090
22338SOL     OW68787   2.619   3.562   1.083
22338SOL    HW168788   2.627   3.494   1.149
22338SOL    HW268789   2.705   3.563   1.039
22339SOL     OW68790   4.991  13.308   6.588
22339SOL    HW168791   4.917  13.358   6.554
22339SOL    HW268792   5.037  13.277   6.510
22340SOL     OW68793   2.289   7.097   2.773
22340SOL    HW168794   2.382   7.118   2.771
22340SOL    HW268795   2.261   7.104   2.682
22341SOL     OW68796  11.246   1.579  12.499
22341SOL    HW168797  11.158   1.587  12.462
22341SOL    HW268798  11.262   1.664  12.540
22342SOL     OW68799   2.600   7.514  11.714
22342SOL    HW168800   2.542   7.584  11.685
22342SOL    HW268801   2.619   7.464  11.635
22343SOL     OW68802   8.351   3.954   9.123
22343SOL    HW168803   8.402   3.905   9.188
22343SOL    HW268804   8.274   3.985   9.170
22344SOL     OW68805  13.128  11.323   2.151
22344SOL    HW168806  13.186  11.265   2.200
22344SOL    HW268807  13.057  11.344   2.212
22345SOL     OW68808  12.791  14.856   0.896
22345SOL    HW168809  12.824  14.835   0.809
22345SOL    HW268810  12.861  14.827   0.956
22346SOL     OW68811   6.943   1.793  13.412
22346SOL    HW168812   7.037   1.782  13.400
22346SOL    HW268813   6.934   1.826  13.501
22347SOL     OW68814   7.898   4.792  12.230
22347SOL    HW168815   7.884   4.870  12.177
22347SOL    HW268816   7.848   4.808  12.310
22348SOL     OW68817   5.112   2.856  10.195
22348SOL    HW168818   5.018   2.848  10.177
22348SOL    HW268819   5.153   2.860  10.109
22349SOL     OW68820   4.388   8.221   6.153
22349SOL    HW168821   4.424   8.309   6.166
22349SOL    HW268822   4.381   8.184   6.241
22350SOL     OW68823  10.058   0.631  12.822
22350SOL    HW168824   9.962   0.630  12.829
22350SOL    HW268825  10.089   0.625  12.912
22351SOL     OW68826   5.829   8.622  11.758
22351SOL    HW168827   5.801   8.568  11.832
22351SOL    HW268828   5.884   8.565  11.706
22352SOL     OW68829   1.140  11.145   9.722
22352SOL    HW168830   1.071  11.208   9.743
22352SOL    HW268831   1.216  11.199   9.701
22353SOL     OW68832   5.985   2.007   8.380
22353SOL    HW168833   6.005   2.012   8.473
22353SOL    HW268834   5.891   1.991   8.375
22354SOL     OW68835   0.456  12.393  10.281
22354SOL    HW168836   0.540  12.395  10.326
22354SOL    HW268837   0.423  12.304  10.297
22355SOL     OW68838   5.662   5.710   7.223
22355SOL    HW168839   5.629   5.675   7.306
22355SOL    HW268840   5.718   5.782   7.248
22356SOL     OW68841   8.224   2.181   4.663
22356SOL    HW168842   8.282   2.111   4.631
22356SOL    HW268843   8.165   2.198   4.589
22357SOL     OW68844  14.790  10.262  12.790
22357SOL    HW168845  14.821  10.181  12.749
22357SOL    HW268846  14.868  10.298  12.833
22358SOL     OW68847   2.489   9.924   5.224
22358SOL    HW168848   2.429   9.902   5.153
22358SOL    HW268849   2.558   9.977   5.183
22359SOL     OW68850   5.009   8.682   6.568
22359SOL    HW168851   4.994   8.594   6.535
22359SOL    HW268852   5.053   8.727   6.496
22360SOL     OW68853   4.105   5.845   5.624
22360SOL    HW168854   4.093   5.936   5.596
22360SOL    HW268855   4.169   5.809   5.561
22361SOL     OW68856  13.253   0.488  13.470
22361SOL    HW168857  13.264   0.410  13.415
22361SOL    HW268858  13.341   0.516  13.492
22362SOL     OW68859   2.237  14.055   6.861
22362SOL    HW168860   2.242  14.128   6.922
22362SOL    HW268861   2.272  14.090   6.779
22363SOL     OW68862   3.761   8.274   2.562
22363SOL    HW168863   3.703   8.238   2.629
22363SOL    HW268864   3.739   8.367   2.559
22364SOL     OW68865   3.237  14.813   7.659
22364SOL    HW168866   3.296  14.876   7.617
22364SOL    HW268867   3.198  14.861   7.732
22365SOL     OW68868   4.091  11.351   6.058
22365SOL    HW168869   4.039  11.341   6.138
22365SOL    HW268870   4.058  11.431   6.018
22366SOL     OW68871   2.850   4.771   2.463
22366SOL    HW168872   2.840   4.798   2.554
22366SOL    HW268873   2.837   4.676   2.465
22367SOL     OW68874   8.812   1.957   1.425
22367SOL    HW168875   8.827   1.930   1.334
22367SOL    HW268876   8.879   2.023   1.441
22368SOL     OW68877  12.422   1.167  10.566
22368SOL    HW168878  12.360   1.164  10.639
22368SOL    HW268879  12.430   1.261  10.546
22369SOL     OW68880   3.276   7.827  10.849
22369SOL    HW168881   3.203   7.873  10.808
22369SOL    HW268882   3.251   7.735  10.849
22370SOL     OW68883   7.292   9.662  10.423
22370SOL    HW168884   7.317   9.655  10.515
22370SOL    HW268885   7.296   9.573  10.390
22371SOL     OW68886   2.846   7.612   1.460
22371SOL    HW168887   2.840   7.594   1.554
22371SOL    HW268888   2.920   7.560   1.430
22372SOL     OW68889   6.778  10.359   5.123
22372SOL    HW168890   6.714  10.425   5.094
22372SOL    HW268891   6.839  10.352   5.050
22373SOL     OW68892  14.386  11.748  14.404
22373SOL    HW168893  14.476  11.779  14.395
22373SOL    HW268894  14.364  11.765  14.496
22374SOL     OW68895  10.439  12.621  11.254
22374SOL    HW168896  10.349  12.620  11.221
22374SOL    HW268897  10.472  12.534  11.236
22375SOL     OW68898  12.249   9.320  14.476
22375SOL    HW168899  12.178   9.352  14.532
22375SOL    HW268900  12.205   9.287  14.398
22376SOL     OW68901   1.592   5.962  12.468
22376SOL    HW168902   1.497   5.956  12.465
22376SOL    HW268903   1.622   5.871  12.465
22377SOL     OW68904  13.074   3.306   5.944
22377SOL    HW168905  13.097   3.237   5.881
22377SOL    HW268906  13.133   3.378   5.922
22378SOL     OW68907  11.833   1.788   6.656
22378SOL    HW168908  11.745   1.800   6.620
22378SOL    HW268909  11.890   1.837   6.597
22379SOL     OW68910   6.696   6.418   6.134
22379SOL    HW168911   6.705   6.367   6.215
22379SOL    HW268912   6.697   6.510   6.164
22380SOL     OW68913  10.596   5.277   3.719
22380SOL    HW168914  10.517   5.326   3.740
22380SOL    HW268915  10.623   5.311   3.634
22381SOL     OW68916   9.925  11.229   4.548
22381SOL    HW168917   9.879  11.287   4.608
22381SOL    HW268918  10.009  11.271   4.533
22382SOL     OW68919   7.943   5.353   6.539
22382SOL    HW168920   7.949   5.276   6.595
22382SOL    HW268921   7.932   5.317   6.451
22383SOL     OW68922  11.150   8.138  14.095
22383SOL    HW168923  11.066   8.183  14.099
22383SOL    HW268924  11.145   8.072  14.164
22384SOL     OW68925  11.539   9.945   9.047
22384SOL    HW168926  11.530   9.856   9.014
22384SOL    HW268927  11.535   9.935   9.142
22385SOL     OW68928   2.687  14.703  12.991
22385SOL    HW168929   2.683  14.742  13.078
22385SOL    HW268930   2.710  14.611  13.007
22386SOL     OW68931   2.764  10.593   1.534
22386SOL    HW168932   2.816  10.586   1.454
22386SOL    HW268933   2.711  10.672   1.521
22387SOL     OW68934   8.334   7.999   0.894
22387SOL    HW168935   8.384   8.049   0.829
22387SOL    HW268936   8.253   7.975   0.848
22388SOL     OW68937  14.240   6.489  14.619
22388SOL    HW168938  14.307   6.441  14.669
22388SOL    HW268939  14.168   6.426  14.610
22389SOL     OW68940   4.087   2.291   0.636
22389SOL    HW168941   4.023   2.355   0.607
22389SOL    HW268942   4.081   2.220   0.572
22390SOL     OW68943   8.784   3.911   1.046
22390SOL    HW168944   8.728   3.850   1.093
22390SOL    HW268945   8.828   3.858   0.980
22391SOL     OW68946   1.652   7.534  11.736
22391SOL    HW168947   1.675   7.454  11.784
22391SOL    HW268948   1.574   7.568  11.781
22392SOL     OW68949  12.849   4.807   7.039
22392SOL    HW168950  12.794   4.788   6.962
22392SOL    HW268951  12.930   4.760   7.023
22393SOL     OW68952  13.127   6.105  14.048
22393SOL    HW168953  13.203   6.072  14.000
22393SOL    HW268954  13.112   6.192  14.013
22394SOL     OW68955  11.804   3.688   9.134
22394SOL    HW168956  11.762   3.706   9.051
22394SOL    HW268957  11.811   3.593   9.139
22395SOL     OW68958   6.955   0.171   4.497
22395SOL    HW168959   6.876   0.224   4.487
22395SOL    HW268960   6.996   0.172   4.411
22396SOL     OW68961   8.908   0.497  13.805
22396SOL    HW168962   8.903   0.491  13.710
22396SOL    HW268963   8.962   0.575  13.821
22397SOL     OW68964  14.115   3.845   1.544
22397SOL    HW168965  14.107   3.751   1.528
22397SOL    HW268966  14.098   3.855   1.638
22398SOL     OW68967   7.280  10.233   1.964
22398SOL    HW168968   7.323  10.300   2.018
22398SOL    HW268969   7.351  10.195   1.912
22399SOL     OW68970   6.887   4.934  11.740
22399SOL    HW168971   6.826   4.986  11.792
22399SOL    HW268972   6.868   4.958  11.649
22400SOL     OW68973  13.360  11.788   3.999
22400SOL    HW168974  13.297  11.852   4.032
22400SOL    HW268975  13.340  11.707   4.047
22401SOL     OW68976   0.652   2.123   9.333
22401SOL    HW168977   0.558   2.131   9.317
22401SOL    HW268978   0.670   2.187   9.402
22402SOL     OW68979   5.123   3.840   7.696
22402SOL    HW168980   5.095   3.924   7.660
22402SOL    HW268981   5.116   3.851   7.790
22403SOL     OW68982   6.753  11.015   0.562
22403SOL    HW168983   6.771  11.036   0.654
22403SOL    HW268984   6.679  11.071   0.538
22404SOL     OW68985  14.782  14.869  12.449
22404SOL    HW168986  14.744  14.792  12.407
22404SOL    HW268987  14.767  14.855  12.543
22405SOL     OW68988   9.433   8.369   7.438
22405SOL    HW168989   9.444   8.429   7.364
22405SOL    HW268990   9.509   8.311   7.434
22406SOL     OW68991  11.947  11.585  14.010
22406SOL    HW168992  11.965  11.524  14.081
22406SOL    HW268993  11.936  11.531  13.932
22407SOL     OW68994  13.965  13.652   0.055
22407SOL    HW168995  14.045  13.684   0.097
22407SOL    HW268996  13.969  13.557   0.065
22408SOL     OW68997   1.256  12.167   7.976
22408SOL    HW168998   1.303  12.241   7.937
22408SOL    HW268999   1.294  12.090   7.934
22409SOL     OW69000   7.285  12.577   7.652
22409SOL    HW169001   7.316  12.667   7.659
22409SOL    HW269002   7.363  12.526   7.631
22410SOL     OW69003  11.285   9.232   2.777
22410SOL    HW169004  11.370   9.266   2.750
22410SOL    HW269005  11.302   9.187   2.859
22411SOL     OW69006  13.195   6.397   7.142
22411SOL    HW169007  13.180   6.396   7.237
22411SOL    HW269008  13.270   6.339   7.129
22412SOL     OW69009   1.199   1.942   4.623
22412SOL    HW169010   1.229   1.956   4.533
22412SOL    HW269011   1.147   2.019   4.643
22413SOL     OW69012   9.987   7.684  12.471
22413SOL    HW169013   9.960   7.730  12.551
22413SOL    HW269014  10.058   7.737  12.435
22414SOL     OW69015   4.486  13.347   3.892
22414SOL    HW169016   4.427  13.273   3.882
22414SOL    HW269017   4.573  13.311   3.874
22415SOL     OW69018   0.899   4.642   6.687
22415SOL    HW169019   0.989   4.653   6.719
22415SOL    HW269020   0.867   4.731   6.674
22416SOL     OW69021   9.928   9.999   8.556
22416SOL    HW169022  10.012  10.017   8.514
22416SOL    HW269023   9.946   9.930   8.619
22417SOL     OW69024   8.247   9.581   1.914
22417SOL    HW169025   8.309   9.646   1.883
22417SOL    HW269026   8.292   9.535   1.984
22418SOL     OW69027   0.037   0.197   8.074
22418SOL    HW169028   0.041   0.208   8.169
22418SOL    HW269029  14.827   0.161   8.057
22419SOL     OW69030   8.639   4.410   3.468
22419SOL    HW169031   8.685   4.478   3.420
22419SOL    HW269032   8.546   4.426   3.451
22420SOL     OW69033  12.948   0.218  11.752
22420SOL    HW169034  12.965   0.154  11.683
22420SOL    HW269035  12.880   0.276  11.716
22421SOL     OW69036  11.973  12.393  12.187
22421SOL    HW169037  11.901  12.337  12.157
22421SOL    HW269038  12.050  12.337  12.183
22422SOL     OW69039   5.927   7.770  12.234
22422SOL    HW169040   5.895   7.857  12.255
22422SOL    HW269041   5.854   7.728  12.189
22423SOL     OW69042   0.642   5.071   9.792
22423SOL    HW169043   0.719   5.110   9.751
22423SOL    HW269044   0.605   5.141   9.846
22424SOL     OW69045   6.694  12.460   3.624
22424SOL    HW169046   6.781  12.499   3.627
22424SOL    HW269047   6.689  12.421   3.537
22425SOL     OW69048   5.562   2.393   1.040
22425SOL    HW169049   5.575   2.300   1.021
22425SOL    HW269050   5.623   2.411   1.112
22426SOL     OW69051   8.022   5.471  11.323
22426SOL    HW169052   8.096   5.516  11.283
22426SOL    HW269053   8.055   5.383  11.342
22427SOL     OW69054   8.445  11.319   8.441
22427SOL    HW169055   8.431  11.367   8.523
22427SOL    HW269056   8.375  11.253   8.440
22428SOL     OW69057   8.423  13.664  12.849
22428SOL    HW169058   8.358  13.734  12.851
22428SOL    HW269059   8.387  13.600  12.787
22429SOL     OW69060  14.022  11.881   2.438
22429SOL    HW169061  14.021  11.976   2.447
22429SOL    HW269062  13.930  11.856   2.428
22430SOL     OW69063   7.786   5.243   3.772
22430SOL    HW169064   7.783   5.335   3.748
22430SOL    HW269065   7.800   5.197   3.689
22431SOL     OW69066  10.561  13.583   0.298
22431SOL    HW169067  10.485  13.641   0.304
22431SOL    HW269068  10.617  13.623   0.232
22432SOL     OW69069   3.176   1.765   1.293
22432SOL    HW169070   3.159   1.859   1.295
22432SOL    HW269071   3.269   1.758   1.269
22433SOL     OW69072  12.553   9.518   7.557
22433SOL    HW169073  12.467   9.491   7.589
22433SOL    HW269074  12.612   9.506   7.632
22434SOL     OW69075   4.429   8.328   7.444
22434SOL    HW169076   4.505   8.279   7.412
22434SOL    HW269077   4.389   8.269   7.508
22435SOL     OW69078   8.231   4.140  14.555
22435SOL    HW169079   8.146   4.101  14.577
22435SOL    HW269080   8.263   4.087  14.482
22436SOL     OW69081   1.724   2.331   7.569
22436SOL    HW169082   1.721   2.275   7.646
22436SOL    HW269083   1.698   2.275   7.496
22437SOL     OW69084   0.836  14.254  10.648
22437SOL    HW169085   0.794  14.177  10.609
22437SOL    HW269086   0.779  14.327  10.625
22438SOL     OW69087  10.945   8.013  14.749
22438SOL    HW169088  10.892   8.090  14.769
22438SOL    HW269089  11.006   8.006  14.822
22439SOL     OW69090  12.487   0.901   0.538
22439SOL    HW169091  12.530   0.952   0.607
22439SOL    HW269092  12.394   0.920   0.548
22440SOL     OW69093   8.639   0.879   5.429
22440SOL    HW169094   8.734   0.882   5.439
22440SOL    HW269095   8.607   0.860   5.517
22441SOL     OW69096   0.336  11.722   4.846
22441SOL    HW169097   0.328  11.790   4.779
22441SOL    HW269098   0.298  11.760   4.925
22442SOL     OW69099   2.294   3.125  10.712
22442SOL    HW169100   2.376   3.162  10.678
22442SOL    HW269101   2.258   3.194  10.767
22443SOL     OW69102  12.374  10.147   7.032
22443SOL    HW169103  12.430  10.225   7.038
22443SOL    HW269104  12.304  10.164   7.094
22444SOL     OW69105  13.272   7.823   7.941
22444SOL    HW169106  13.299   7.806   8.031
22444SOL    HW269107  13.325   7.898   7.914
22445SOL     OW69108   8.781  13.563  10.557
22445SOL    HW169109   8.735  13.488  10.595
22445SOL    HW269110   8.858  13.525  10.515
22446SOL     OW69111   7.664   5.282   9.723
22446SOL    HW169112   7.692   5.282   9.814
22446SOL    HW269113   7.699   5.200   9.687
22447SOL     OW69114   1.607  10.789   2.895
22447SOL    HW169115   1.574  10.797   2.805
22447SOL    HW269116   1.702  10.798   2.886
22448SOL     OW69117   0.644  10.554   0.714
22448SOL    HW169118   0.699  10.508   0.777
22448SOL    HW269119   0.599  10.620   0.766
22449SOL     OW69120   6.001  12.571   3.773
22449SOL    HW169121   5.939  12.637   3.742
22449SOL    HW269122   6.084  12.617   3.780
22450SOL     OW69123  11.628   1.942   5.191
22450SOL    HW169124  11.687   1.869   5.174
22450SOL    HW269125  11.675   1.997   5.253
22451SOL     OW69126  14.557   3.222  10.882
22451SOL    HW169127  14.626   3.254  10.824
22451SOL    HW269128  14.476   3.253  10.842
22452SOL     OW69129   5.180   2.168   1.268
22452SOL    HW169130   5.217   2.199   1.352
22452SOL    HW269131   5.114   2.233   1.246
22453SOL     OW69132   6.946   5.687  10.060
22453SOL    HW169133   6.993   5.609  10.033
22453SOL    HW269134   7.009   5.758  10.049
22454SOL     OW69135   2.082   1.261  10.448
22454SOL    HW169136   2.085   1.181  10.500
22454SOL    HW269137   2.122   1.236  10.364
22455SOL     OW69138   9.161   3.707   5.745
22455SOL    HW169139   9.250   3.726   5.715
22455SOL    HW269140   9.156   3.746   5.832
22456SOL     OW69141   5.384   4.463   4.908
22456SOL    HW169142   5.413   4.437   4.820
22456SOL    HW269143   5.448   4.529   4.935
22457SOL     OW69144   9.323   7.476   3.595
22457SOL    HW169145   9.330   7.414   3.668
22457SOL    HW269146   9.374   7.437   3.525
22458SOL     OW69147   4.609  11.954   4.102
22458SOL    HW169148   4.620  11.929   4.194
22458SOL    HW269149   4.581  11.873   4.059
22459SOL     OW69150   7.992  13.131   2.171
22459SOL    HW169151   8.051  13.200   2.203
22459SOL    HW269152   8.006  13.058   2.231
22460SOL     OW69153   2.556   0.436  13.311
22460SOL    HW169154   2.582   0.511  13.258
22460SOL    HW269155   2.557   0.362  13.250
22461SOL     OW69156  10.816   2.361   0.086
22461SOL    HW169157  10.841   2.373  14.872
22461SOL    HW269158  10.816   2.450   0.122
22462SOL     OW69159   3.016   7.865   1.367
22462SOL    HW169160   3.012   7.835   1.276
22462SOL    HW269161   2.927   7.849   1.400
22463SOL     OW69162   2.485   0.424   3.519
22463SOL    HW169163   2.564   0.382   3.486
22463SOL    HW269164   2.511   0.461   3.604
22464SOL     OW69165  11.004   8.540   1.829
22464SOL    HW169166  11.091   8.533   1.790
22464SOL    HW269167  10.964   8.455   1.815
22465SOL     OW69168  10.599   6.094  14.056
22465SOL    HW169169  10.515   6.049  14.069
22465SOL    HW269170  10.579   6.161  13.991
22466SOL     OW69171   9.920  13.578  12.915
22466SOL    HW169172   9.857  13.537  12.856
22466SOL    HW269173   9.900  13.541  13.001
22467SOL     OW69174   2.261   7.910   7.537
22467SOL    HW169175   2.347   7.939   7.505
22467SOL    HW269176   2.239   7.835   7.481
22468SOL     OW69177   6.196  13.254   7.403
22468SOL    HW169178   6.198  13.159   7.404
22468SOL    HW269179   6.288  13.280   7.408
22469SOL     OW69180   5.112   4.081  10.087
22469SOL    HW169181   5.072   4.142  10.148
22469SOL    HW269182   5.080   4.109  10.001
22470SOL     OW69183   2.499   2.326  14.556
22470SOL    HW169184   2.553   2.267  14.609
22470SOL    HW269185   2.494   2.406  14.608
22471SOL     OW69186  12.176  13.239  12.046
22471SOL    HW169187  12.247  13.247  11.983
22471SOL    HW269188  12.113  13.307  12.020
22472SOL     OW69189   9.929   5.651   1.297
22472SOL    HW169190   9.939   5.597   1.375
22472SOL    HW269191   9.894   5.734   1.330
22473SOL     OW69192   1.906   1.351   3.221
22473SOL    HW169193   1.966   1.365   3.294
22473SOL    HW269194   1.828   1.313   3.261
22474SOL     OW69195  14.624   1.913  10.183
22474SOL    HW169196  14.577   1.995  10.198
22474SOL    HW269197  14.556   1.845  10.190
22475SOL     OW69198  14.189  13.330   6.081
22475SOL    HW169199  14.246  13.359   6.010
22475SOL    HW269200  14.149  13.249   6.049
22476SOL     OW69201  14.534   3.832   6.060
22476SOL    HW169202  14.511   3.904   6.119
22476SOL    HW269203  14.459   3.824   6.001
22477SOL     OW69204   1.724  11.600  10.301
22477SOL    HW169205   1.707  11.643  10.217
22477SOL    HW269206   1.637  11.585  10.339
22478SOL     OW69207  14.542  14.613   8.909
22478SOL    HW169208  14.594  14.693   8.902
22478SOL    HW269209  14.598  14.551   8.954
22479SOL     OW69210   7.463  12.323  10.247
22479SOL    HW169211   7.477  12.380  10.171
22479SOL    HW269212   7.389  12.268  10.221
22480SOL     OW69213   6.800   2.754   7.759
22480SOL    HW169214   6.830   2.765   7.849
22480SOL    HW269215   6.782   2.661   7.750
22481SOL     OW69216   8.152   8.301   9.424
22481SOL    HW169217   8.220   8.325   9.486
22481SOL    HW269218   8.198   8.251   9.356
22482SOL     OW69219   0.772  11.269   0.775
22482SOL    HW169220   0.728  11.351   0.795
22482SOL    HW269221   0.701  11.204   0.770
22483SOL     OW69222  10.662  11.268   2.160
22483SOL    HW169223  10.567  11.273   2.158
22483SOL    HW269224  10.691  11.322   2.087
22484SOL     OW69225   6.870   0.644   2.982
22484SOL    HW169226   6.865   0.721   3.040
22484SOL    HW269227   6.859   0.569   3.041
22485SOL     OW69228   7.698  11.599  11.467
22485SOL    HW169229   7.604  11.600  11.484
22485SOL    HW269230   7.707  11.553  11.383
22486SOL     OW69231   3.756   1.916   0.522
22486SOL    HW169232   3.718   1.832   0.498
22486SOL    HW269233   3.702   1.946   0.596
22487SOL     OW69234   3.208   0.232  12.009
22487SOL    HW169235   3.298   0.224  11.979
22487SOL    HW269236   3.194   0.326  12.018
22488SOL     OW69237  14.682  12.867   8.165
22488SOL    HW169238  14.772  12.877   8.134
22488SOL    HW269239  14.646  12.796   8.112
22489SOL     OW69240  11.601  11.555  11.575
22489SOL    HW169241  11.558  11.520  11.497
22489SOL    HW269242  11.609  11.480  11.634
22490SOL     OW69243   2.194   0.443   0.258
22490SOL    HW169244   2.217   0.359   0.219
22490SOL    HW269245   2.265   0.502   0.232
22491SOL     OW69246  12.030   2.327  13.789
22491SOL    HW169247  12.082   2.300  13.865
22491SOL    HW269248  12.060   2.270  13.718
22492SOL     OW69249   2.284   6.306  12.869
22492SOL    HW169250   2.333   6.385  12.891
22492SOL    HW269251   2.347   6.235  12.878
22493SOL     OW69252   7.608   9.285   1.799
22493SOL    HW169253   7.638   9.198   1.772
22493SOL    HW269254   7.688   9.337   1.806
22494SOL     OW69255   2.118   6.874   6.322
22494SOL    HW169256   2.096   6.831   6.240
22494SOL    HW269257   2.053   6.843   6.385
22495SOL     OW69258   0.536  11.821   1.258
22495SOL    HW169259   0.510  11.746   1.312
22495SOL    HW269260   0.453  11.860   1.230
22496SOL     OW69261   8.032  12.133  12.857
22496SOL    HW169262   8.057  12.042  12.846
22496SOL    HW269263   8.082  12.180  12.789
22497SOL     OW69264   3.927   5.661   1.444
22497SOL    HW169265   3.887   5.705   1.519
22497SOL    HW269266   3.902   5.714   1.369
22498SOL     OW69267  10.399   6.748   8.642
22498SOL    HW169268  10.339   6.816   8.672
22498SOL    HW269269  10.470   6.796   8.599
22499SOL     OW69270  12.195   9.681   7.954
22499SOL    HW169271  12.194   9.625   8.031
22499SOL    HW269272  12.198   9.770   7.990
22500SOL     OW69273  12.218   9.636   2.800
22500SOL    HW169274  12.313   9.635   2.786
22500SOL    HW269275  12.181   9.638   2.712
22501SOL     OW69276  13.104   0.981   1.919
22501SOL    HW169277  13.010   0.976   1.902
22501SOL    HW269278  13.117   0.928   1.998
22502SOL     OW69279   2.946  12.368  12.050
22502SOL    HW169280   2.860  12.406  12.031
22502SOL    HW269281   2.983  12.426  12.117
22503SOL     OW69282   0.299   4.768   9.652
22503SOL    HW169283   0.305   4.839   9.588
22503SOL    HW269284   0.349   4.696   9.614
22504SOL     OW69285  13.096   2.954   3.175
22504SOL    HW169286  13.164   3.020   3.163
22504SOL    HW269287  13.115   2.916   3.261
22505SOL     OW69288   2.022  13.047  11.963
22505SOL    HW169289   1.977  12.968  11.993
22505SOL    HW269290   2.115  13.024  11.965
22506SOL     OW69291   2.843   3.586   8.291
22506SOL    HW169292   2.785   3.661   8.304
22506SOL    HW269293   2.808   3.518   8.349
22507SOL     OW69294   9.996  11.540  14.661
22507SOL    HW169295  10.004  11.587  14.744
22507SOL    HW269296   9.902  11.539  14.643
22508SOL     OW69297   5.141   2.349  12.006
22508SOL    HW169298   5.148   2.426  12.062
22508SOL    HW269299   5.069   2.298  12.044
22509SOL     OW69300  14.688   1.682   9.286
22509SOL    HW169301  14.752   1.631   9.236
22509SOL    HW269302  14.739   1.721   9.358
22510SOL     OW69303   7.803   4.903   5.281
22510SOL    HW169304   7.723   4.850   5.277
22510SOL    HW269305   7.860   4.865   5.214
22511SOL     OW69306  10.418   5.731   3.553
22511SOL    HW169307  10.414   5.824   3.531
22511SOL    HW269308  10.435   5.730   3.647
22512SOL     OW69309  14.005  10.706   5.926
22512SOL    HW169310  14.072  10.688   5.861
22512SOL    HW269311  14.006  10.801   5.937
22513SOL     OW69312   7.726  14.815  11.656
22513SOL    HW169313   7.759   0.009  11.602
22513SOL    HW269314   7.780  14.817  11.735
22514SOL     OW69315   1.333   8.855   8.869
22514SOL    HW169316   1.260   8.892   8.820
22514SOL    HW269317   1.359   8.925   8.929
22515SOL     OW69318   6.875  12.672   3.692
22515SOL    HW169319   6.930  12.674   3.613
22515SOL    HW269320   6.932  12.639   3.761
22516SOL     OW69321   9.220   7.948  12.639
22516SOL    HW169322   9.228   7.859  12.673
22516SOL    HW269323   9.168   7.994  12.705
22517SOL     OW69324   6.229   2.505  10.281
22517SOL    HW169325   6.156   2.555  10.246
22517SOL    HW269326   6.190   2.442  10.341
22518SOL     OW69327   9.433   0.797   0.462
22518SOL    HW169328   9.519   0.832   0.439
22518SOL    HW269329   9.389   0.784   0.378
22519SOL     OW69330   7.246   5.934  12.924
22519SOL    HW169331   7.189   5.942  13.001
22519SOL    HW269332   7.199   5.979  12.854
22520SOL     OW69333   1.442  10.339   0.145
22520SOL    HW169334   1.353  10.369   0.158
22520SOL    HW269335   1.448  10.322   0.051
22521SOL     OW69336   8.398   3.264  12.728
22521SOL    HW169337   8.459   3.282  12.799
22521SOL    HW269338   8.402   3.169  12.716
22522SOL     OW69339   0.512   3.300   6.442
22522SOL    HW169340   0.566   3.379   6.430
22522SOL    HW269341   0.574   3.233   6.471
22523SOL     OW69342   5.378   7.123   1.697
22523SOL    HW169343   5.406   7.034   1.719
22523SOL    HW269344   5.399   7.133   1.604
22524SOL     OW69345  13.656   8.561  10.816
22524SOL    HW169346  13.712   8.621  10.864
22524SOL    HW269347  13.695   8.475  10.829
22525SOL     OW69348   5.821  14.125  11.330
22525SOL    HW169349   5.810  14.054  11.266
22525SOL    HW269350   5.915  14.139  11.334
22526SOL     OW69351   9.074   4.427   4.282
22526SOL    HW169352   9.115   4.368   4.345
22526SOL    HW269353   9.034   4.496   4.336
22527SOL     OW69354   3.424   3.214   4.915
22527SOL    HW169355   3.413   3.286   4.854
22527SOL    HW269356   3.424   3.256   5.002
22528SOL     OW69357   3.408   1.529   9.471
22528SOL    HW169358   3.428   1.438   9.495
22528SOL    HW269359   3.484   1.579   9.502
22529SOL     OW69360   3.260   1.950   8.359
22529SOL    HW169361   3.321   2.017   8.390
22529SOL    HW269362   3.276   1.943   8.265
22530SOL     OW69363  11.724   2.506   2.961
22530SOL    HW169364  11.816   2.531   2.965
22530SOL    HW269365  11.678   2.576   3.006
22531SOL     OW69366  12.645   8.590  11.374
22531SOL    HW169367  12.665   8.684  11.364
22531SOL    HW269368  12.708   8.546  11.317
22532SOL     OW69369   9.217   6.969  12.102
22532SOL    HW169370   9.272   6.891  12.109
22532SOL    HW269371   9.272   7.040  12.133
22533SOL     OW69372   6.405   5.278   3.737
22533SOL    HW169373   6.412   5.193   3.693
22533SOL    HW269374   6.354   5.332   3.677
22534SOL     OW69375   6.162   9.946  11.410
22534SOL    HW169376   6.107   9.915  11.482
22534SOL    HW269377   6.178   9.869  11.356
22535SOL     OW69378   9.796   5.068  12.857
22535SOL    HW169379   9.763   5.136  12.799
22535SOL    HW269380   9.723   5.048  12.915
22536SOL     OW69381   8.790   9.014   1.319
22536SOL    HW169382   8.718   9.046   1.264
22536SOL    HW269383   8.868   9.021   1.265
22537SOL     OW69384  11.299   8.327   2.817
22537SOL    HW169385  11.293   8.422   2.820
22537SOL    HW269386  11.276   8.303   2.728
22538SOL     OW69387   2.396   0.377   5.576
22538SOL    HW169388   2.395   0.402   5.668
22538SOL    HW269389   2.328   0.429   5.535
22539SOL     OW69390   4.217  13.376   6.063
22539SOL    HW169391   4.231  13.460   6.021
22539SOL    HW269392   4.163  13.395   6.140
22540SOL     OW69393   5.407   1.572  12.923
22540SOL    HW169394   5.428   1.491  12.877
22540SOL    HW269395   5.442   1.641  12.866
22541SOL     OW69396  14.370  12.962  10.248
22541SOL    HW169397  14.447  12.951  10.303
22541SOL    HW269398  14.325  13.039  10.285
22542SOL     OW69399   7.178  14.705   7.563
22542SOL    HW169400   7.214  14.617   7.577
22542SOL    HW269401   7.088  14.699   7.592
22543SOL     OW69402  10.175   9.797   4.946
22543SOL    HW169403  10.271   9.803   4.949
22543SOL    HW269404  10.152   9.748   5.025
22544SOL     OW69405   5.204   4.553   0.253
22544SOL    HW169406   5.168   4.573   0.167
22544SOL    HW269407   5.237   4.637   0.285
22545SOL     OW69408  10.825   1.938  10.186
22545SOL    HW169409  10.914   1.965  10.209
22545SOL    HW269410  10.769   2.002  10.229
22546SOL     OW69411   3.436   3.314  12.612
22546SOL    HW169412   3.480   3.257  12.675
22546SOL    HW269413   3.347   3.321  12.645
22547SOL     OW69414   0.492   7.338  13.858
22547SOL    HW169415   0.562   7.289  13.815
22547SOL    HW269416   0.515   7.430  13.843
22548SOL     OW69417   0.215   6.547  11.980
22548SOL    HW169418   0.133   6.526  11.936
22548SOL    HW269419   0.189   6.604  12.053
22549SOL     OW69420   9.971  11.659   5.725
22549SOL    HW169421   9.974  11.679   5.819
22549SOL    HW269422   9.909  11.587   5.718
22550SOL     OW69423  11.095   5.212   0.321
22550SOL    HW169424  11.165   5.147   0.314
22550SOL    HW269425  11.035   5.191   0.251
22551SOL     OW69426  14.421  14.591   4.386
22551SOL    HW169427  14.460  14.519   4.435
22551SOL    HW269428  14.352  14.625   4.443
22552SOL     OW69429  12.350  12.042  10.264
22552SOL    HW169430  12.308  12.116  10.307
22552SOL    HW269431  12.278  11.992  10.225
22553SOL     OW69432   5.093  13.116   8.511
22553SOL    HW169433   5.052  13.032   8.489
22553SOL    HW269434   5.185  13.095   8.523
22554SOL     OW69435   4.552   9.584  10.921
22554SOL    HW169436   4.481   9.646  10.930
22554SOL    HW269437   4.548   9.555  10.830
22555SOL     OW69438   1.404   3.075  14.675
22555SOL    HW169439   1.380   3.160  14.640
22555SOL    HW269440   1.324   3.023  14.672
22556SOL     OW69441   1.258   9.538   0.443
22556SOL    HW169442   1.352   9.560   0.443
22556SOL    HW269443   1.214   9.620   0.419
22557SOL     OW69444   3.428   8.770  10.628
22557SOL    HW169445   3.461   8.770  10.718
22557SOL    HW269446   3.485   8.831  10.582
22558SOL     OW69447  11.523  10.594  12.338
22558SOL    HW169448  11.465  10.518  12.337
22558SOL    HW269449  11.611  10.558  12.349
22559SOL     OW69450  12.480   3.820  11.483
22559SOL    HW169451  12.487   3.913  11.508
22559SOL    HW269452  12.545   3.776  11.538
22560SOL     OW69453   7.860  12.506   2.387
22560SOL    HW169454   7.931  12.522   2.449
22560SOL    HW269455   7.861  12.412   2.372
22561SOL     OW69456  12.109   2.267   3.555
22561SOL    HW169457  12.134   2.304   3.640
22561SOL    HW269458  12.076   2.342   3.505
22562SOL     OW69459   0.825   1.088  10.201
22562SOL    HW169460   0.774   1.032  10.258
22562SOL    HW269461   0.871   1.148  10.260
22563SOL     OW69462   0.352   8.331   9.258
22563SOL    HW169463   0.333   8.424   9.269
22563SOL    HW269464   0.267   8.291   9.238
22564SOL     OW69465  14.444   6.426  10.625
22564SOL    HW169466  14.388   6.401  10.699
22564SOL    HW269467  14.386   6.425  10.549
22565SOL     OW69468  12.933   9.527  12.265
22565SOL    HW169469  12.907   9.493  12.180
22565SOL    HW269470  12.851   9.530  12.315
22566SOL     OW69471   7.851  12.908  14.050
22566SOL    HW169472   7.765  12.946  14.030
22566SOL    HW269473   7.907  12.984  14.067
22567SOL     OW69474   9.165   4.351  12.399
22567SOL    HW169475   9.241   4.387  12.444
22567SOL    HW269476   9.093   4.408  12.425
22568SOL     OW69477   6.453  13.453  11.688
22568SOL    HW169478   6.516  13.400  11.639
22568SOL    HW269479   6.486  13.453  11.778
22569SOL     OW69480   4.441   7.763  10.309
22569SOL    HW169481   4.452   7.681  10.262
22569SOL    HW269482   4.503   7.758  10.381
22570SOL     OW69483   8.267   0.713   9.205
22570SOL    HW169484   8.301   0.802   9.214
22570SOL    HW269485   8.176   0.725   9.181
22571SOL     OW69486  11.842  13.109  12.054
22571SOL    HW169487  11.918  13.167  12.048
22571SOL    HW269488  11.825  13.101  12.147
22572SOL     OW69489   2.288   8.914   8.176
22572SOL    HW169490   2.383   8.913   8.189
22572SOL    HW269491   2.252   8.939   8.261
22573SOL     OW69492   8.358   7.657   2.762
22573SOL    HW169493   8.451   7.640   2.748
22573SOL    HW269494   8.357   7.724   2.831
22574SOL     OW69495   0.291  12.792   1.383
22574SOL    HW169496   0.337  12.836   1.311
22574SOL    HW269497   0.209  12.839   1.391
22575SOL     OW69498   6.494   2.975   5.481
22575SOL    HW169499   6.428   2.906   5.475
22575SOL    HW269500   6.479   3.030   5.404
22576SOL     OW69501   9.196  14.475  14.838
22576SOL    HW169502   9.211  14.510  14.750
22576SOL    HW269503   9.271  14.418  14.854
22577SOL     OW69504   1.286   2.953  13.908
22577SOL    HW169505   1.312   2.955  13.816
22577SOL    HW269506   1.218   2.885  13.912
22578SOL     OW69507   1.698   5.399  13.747
22578SOL    HW169508   1.687   5.489  13.715
22578SOL    HW269509   1.611   5.360  13.741
22579SOL     OW69510  13.931   9.664  11.507
22579SOL    HW169511  13.936   9.757  11.486
22579SOL    HW269512  13.894   9.623  11.428
22580SOL     OW69513  10.309  12.437   2.683
22580SOL    HW169514  10.344  12.524   2.705
22580SOL    HW269515  10.348  12.379   2.749
22581SOL     OW69516   0.029   4.847  12.001
22581SOL    HW169517   0.057   4.781  12.064
22581SOL    HW269518  14.811   4.841  12.000
22582SOL     OW69519   8.913   4.823   2.203
22582SOL    HW169520   9.002   4.838   2.171
22582SOL    HW269521   8.871   4.772   2.133
22583SOL     OW69522   0.282  13.330   3.833
22583SOL    HW169523   0.320  13.406   3.876
22583SOL    HW269524   0.204  13.364   3.789
22584SOL     OW69525   7.231   1.877  12.357
22584SOL    HW169526   7.193   1.841  12.437
22584SOL    HW269527   7.299   1.937  12.388
22585SOL     OW69528  11.985  14.447  11.199
22585SOL    HW169529  11.958  14.398  11.277
22585SOL    HW269530  12.028  14.525  11.233
22586SOL     OW69531   0.491   9.380   0.336
22586SOL    HW169532   0.469   9.329   0.257
22586SOL    HW269533   0.475   9.320   0.408
22587SOL     OW69534  13.060   9.557   5.025
22587SOL    HW169535  13.124   9.561   5.095
22587SOL    HW269536  13.013   9.475   5.040
22588SOL     OW69537  14.089   0.242   7.127
22588SOL    HW169538  14.122   0.269   7.213
22588SOL    HW269539  14.118   0.152   7.117
22589SOL     OW69540  12.387   8.097   4.179
22589SOL    HW169541  12.304   8.084   4.132
22589SOL    HW269542  12.441   8.022   4.153
22590SOL     OW69543   6.332  13.787   2.358
22590SOL    HW169544   6.409  13.730   2.353
22590SOL    HW269545   6.303  13.779   2.449
22591SOL     OW69546   6.900  12.623  10.000
22591SOL    HW169547   6.941  12.540   9.976
22591SOL    HW269548   6.845  12.602  10.075
22592SOL     OW69549  10.592   4.049   8.986
22592SOL    HW169550  10.615   4.041   9.079
22592SOL    HW269551  10.634   3.975   8.944
22593SOL     OW69552  12.293   5.339   3.241
22593SOL    HW169553  12.272   5.308   3.329
22593SOL    HW269554  12.214   5.385   3.212
22594SOL     OW69555   3.404  10.343  14.052
22594SOL    HW169556   3.399  10.405  13.978
22594SOL    HW269557   3.477  10.286  14.030
22595SOL     OW69558   7.685   5.379   2.159
22595SOL    HW169559   7.726   5.430   2.090
22595SOL    HW269560   7.601   5.351   2.122
22596SOL     OW69561   6.288   5.462  12.506
22596SOL    HW169562   6.284   5.370  12.479
22596SOL    HW269563   6.306   5.509  12.425
22597SOL     OW69564   4.596  12.688   3.523
22597SOL    HW169565   4.596  12.681   3.427
22597SOL    HW269566   4.684  12.663   3.549
22598SOL     OW69567  13.873  11.514   0.881
22598SOL    HW169568  13.914  11.446   0.828
22598SOL    HW269569  13.863  11.474   0.968
22599SOL     OW69570  13.940  12.900   7.133
22599SOL    HW169571  14.033  12.922   7.141
22599SOL    HW269572  13.896  12.962   7.192
22600SOL     OW69573   3.892  12.390   7.476
22600SOL    HW169574   3.825  12.326   7.451
22600SOL    HW269575   3.894  12.388   7.571
22601SOL     OW69576   4.865   0.835   3.140
22601SOL    HW169577   4.773   0.863   3.148
22601SOL    HW269578   4.864   0.768   3.072
22602SOL     OW69579   0.045  13.066   0.891
22602SOL    HW169580  14.838  13.106   0.870
22602SOL    HW269581   0.033  12.973   0.873
22603SOL     OW69582  12.384   8.590  11.266
22603SOL    HW169583  12.469   8.631  11.283
22603SOL    HW269584  12.356   8.556  11.351
22604SOL     OW69585   9.597  12.928  14.513
22604SOL    HW169586   9.686  12.952  14.539
22604SOL    HW269587   9.587  12.838  14.545
22605SOL     OW69588   8.967   6.891   4.087
22605SOL    HW169589   9.050   6.892   4.135
22605SOL    HW269590   8.990   6.865   3.998
22606SOL     OW69591   5.590  13.056  12.734
22606SOL    HW169592   5.638  13.030  12.655
22606SOL    HW269593   5.598  13.151  12.737
22607SOL     OW69594  14.435  11.701   4.326
22607SOL    HW169595  14.415  11.622   4.377
22607SOL    HW269596  14.372  11.766   4.358
22608SOL     OW69597   8.408   3.202   3.422
22608SOL    HW169598   8.383   3.270   3.484
22608SOL    HW269599   8.325   3.170   3.387
22609SOL     OW69600  13.137   7.587   9.154
22609SOL    HW169601  13.058   7.616   9.107
22609SOL    HW269602  13.127   7.625   9.242
22610SOL     OW69603   9.754  11.227  12.929
22610SOL    HW169604   9.662  11.206  12.913
22610SOL    HW269605   9.802  11.171  12.868
22611SOL     OW69606  12.266  11.290  10.051
22611SOL    HW169607  12.251  11.351   9.980
22611SOL    HW269608  12.185  11.238  10.056
22612SOL     OW69609  12.038   6.297   1.453
22612SOL    HW169610  12.067   6.269   1.366
22612SOL    HW269611  12.053   6.220   1.509
22613SOL     OW69612  14.067  12.807   5.799
22613SOL    HW169613  14.068  12.824   5.894
22613SOL    HW269614  14.048  12.893   5.760
22614SOL     OW69615   8.172   3.846   2.900
22614SOL    HW169616   8.194   3.938   2.880
22614SOL    HW269617   8.088   3.832   2.856
22615SOL     OW69618  12.702   3.565   4.500
22615SOL    HW169619  12.699   3.577   4.405
22615SOL    HW269620  12.648   3.635   4.535
22616SOL     OW69621   0.998   7.333  13.280
22616SOL    HW169622   0.909   7.312  13.307
22616SOL    HW269623   1.033   7.250  13.247
22617SOL     OW69624   6.255   1.333   8.175
22617SOL    HW169625   6.249   1.240   8.197
22617SOL    HW269626   6.195   1.344   8.101
22618SOL     OW69627  13.749   3.523  14.168
22618SOL    HW169628  13.828   3.573  14.146
22618SOL    HW269629  13.775   3.472  14.245
22619SOL     OW69630   8.774   0.431  12.788
22619SOL    HW169631   8.735   0.516  12.768
22619SOL    HW269632   8.733   0.370  12.727
22620SOL     OW69633  10.695   3.700   0.003
22620SOL    HW169634  10.779   3.746   0.001
22620SOL    HW269635  10.716   3.613   0.035
22621SOL     OW69636   5.364  12.626  13.316
22621SOL    HW169637   5.403  12.681  13.248
22621SOL    HW269638   5.361  12.539  13.277
22622SOL     OW69639  11.057   2.649   5.276
22622SOL    HW169640  10.991   2.606   5.330
22622SOL    HW269641  11.139   2.606   5.299
22623SOL     OW69642  12.390   6.052   8.111
22623SOL    HW169643  12.325   6.033   8.178
22623SOL    HW269644  12.428   5.967   8.089
22624SOL     OW69645   1.299   5.243   2.113
22624SOL    HW169646   1.302   5.277   2.024
22624SOL    HW269647   1.306   5.148   2.103
22625SOL     OW69648   0.019  10.667  12.313
22625SOL    HW169649   0.046  10.610  12.241
22625SOL    HW269650  14.812  10.632  12.341
22626SOL     OW69651  12.122   8.956   5.711
22626SOL    HW169652  12.210   8.993   5.708
22626SOL    HW269653  12.068   9.025   5.749
22627SOL     OW69654   8.287   1.977   8.582
22627SOL    HW169655   8.382   1.977   8.571
22627SOL    HW269656   8.254   1.936   8.502
22628SOL     OW69657  10.958  11.656   4.807
22628SOL    HW169658  10.922  11.711   4.738
22628SOL    HW269659  10.881  11.614   4.847
22629SOL     OW69660   0.711  12.434  10.422
22629SOL    HW169661   0.731  12.483  10.342
22629SOL    HW269662   0.795  12.426  10.467
22630SOL     OW69663   3.580  10.609   2.531
22630SOL    HW169664   3.652  10.613   2.594
22630SOL    HW269665   3.501  10.619   2.585
22631SOL     OW69666   5.095   9.048  10.767
22631SOL    HW169667   5.004   9.020  10.770
22631SOL    HW269668   5.142   8.983  10.819
22632SOL     OW69669   8.210   4.047   4.997
22632SOL    HW169670   8.211   3.953   5.012
22632SOL    HW269671   8.119   4.068   4.976
22633SOL     OW69672   1.806   3.976   8.303
22633SOL    HW169673   1.790   4.064   8.337
22633SOL    HW269674   1.808   3.987   8.208
22634SOL     OW69675   9.727   4.290   2.509
22634SOL    HW169676   9.793   4.342   2.464
22634SOL    HW269677   9.772   4.210   2.534
22635SOL     OW69678   5.012  13.227   8.769
22635SOL    HW169679   5.089  13.279   8.790
22635SOL    HW269680   5.036  13.178   8.690
22636SOL     OW69681  10.487  11.585  12.328
22636SOL    HW169682  10.575  11.594  12.291
22636SOL    HW269683  10.428  11.591  12.252
22637SOL     OW69684  11.446   3.444  12.703
22637SOL    HW169685  11.392   3.481  12.633
22637SOL    HW269686  11.383   3.401  12.762
22638SOL     OW69687   6.897   9.430   3.214
22638SOL    HW169688   6.820   9.445   3.159
22638SOL    HW269689   6.860   9.405   3.299
22639SOL     OW69690   1.866   2.272   8.290
22639SOL    HW169691   1.876   2.177   8.285
22639SOL    HW269692   1.830   2.288   8.377
22640SOL     OW69693  13.587   4.218  13.726
22640SOL    HW169694  13.537   4.144  13.691
22640SOL    HW269695  13.656   4.178  13.778
22641SOL     OW69696  13.990  11.575   2.024
22641SOL    HW169697  13.965  11.594   1.934
22641SOL    HW269698  13.965  11.484   2.037
22642SOL     OW69699  14.333   0.381   0.246
22642SOL    HW169700  14.378   0.401   0.328
22642SOL    HW269701  14.340   0.286   0.238
22643SOL     OW69702  10.289   1.407  13.791
22643SOL    HW169703  10.207   1.456  13.788
22643SOL    HW269704  10.264   1.320  13.822
22644SOL     OW69705  11.053  10.108   1.348
22644SOL    HW169706  11.003  10.105   1.266
22644SOL    HW269707  11.090  10.196   1.349
22645SOL     OW69708  11.979   3.689   5.122
22645SOL    HW169709  11.894   3.734   5.114
22645SOL    HW269710  11.962   3.618   5.184
22646SOL     OW69711  12.776   8.096   3.244
22646SOL    HW169712  12.710   8.083   3.312
22646SOL    HW269713  12.791   8.190   3.242
22647SOL     OW69714   1.653  13.167   0.169
22647SOL    HW169715   1.745  13.155   0.191
22647SOL    HW269716   1.631  13.094   0.111
22648SOL     OW69717   5.344   6.301   9.002
22648SOL    HW169718   5.324   6.395   8.999
22648SOL    HW269719   5.290   6.263   8.933
22649SOL     OW69720   2.966   6.598  12.928
22649SOL    HW169721   2.891   6.577  12.984
22649SOL    HW269722   3.000   6.680  12.964
22650SOL     OW69723   3.613   3.741   5.299
22650SOL    HW169724   3.658   3.734   5.215
22650SOL    HW269725   3.521   3.755   5.277
22651SOL     OW69726  10.289   7.402   5.523
22651SOL    HW169727  10.366   7.374   5.574
22651SOL    HW269728  10.320   7.474   5.470
22652SOL     OW69729   4.389   2.113   1.155
22652SOL    HW169730   4.348   2.050   1.095
22652SOL    HW269731   4.458   2.154   1.103
22653SOL     OW69732  13.755   6.733   2.474
22653SOL    HW169733  13.752   6.653   2.421
22653SOL    HW269734  13.697   6.715   2.549
22654SOL     OW69735   5.348   4.299  12.805
22654SOL    HW169736   5.439   4.322  12.785
22654SOL    HW269737   5.354   4.232  12.873
22655SOL     OW69738   9.530   5.781  13.448
22655SOL    HW169739   9.596   5.777  13.518
22655SOL    HW269740   9.500   5.872  13.449
22656SOL     OW69741  11.575   4.295   1.587
22656SOL    HW169742  11.658   4.306   1.541
22656SOL    HW269743  11.529   4.378   1.571
22657SOL     OW69744   0.104   0.947   9.343
22657SOL    HW169745   0.102   0.889   9.419
22657SOL    HW269746   0.139   0.893   9.272
22658SOL     OW69747  13.015   0.138  13.758
22658SOL    HW169748  12.955   0.066  13.776
22658SOL    HW269749  12.958   0.210  13.730
22659SOL     OW69750  12.456   5.467   7.550
22659SOL    HW169751  12.408   5.484   7.469
22659SOL    HW269752  12.525   5.534   7.551
22660SOL     OW69753  12.908   7.931  12.832
22660SOL    HW169754  12.975   7.974  12.779
22660SOL    HW269755  12.932   7.838  12.830
22661SOL     OW69756   1.760   4.370   6.735
22661SOL    HW169757   1.724   4.292   6.694
22661SOL    HW269758   1.839   4.389   6.683
22662SOL     OW69759   4.896  13.691   3.204
22662SOL    HW169760   4.814  13.661   3.165
22662SOL    HW269761   4.877  13.779   3.236
22663SOL     OW69762  13.015   3.768  11.679
22663SOL    HW169763  12.988   3.826  11.608
22663SOL    HW269764  13.100   3.735  11.651
22664SOL     OW69765   5.582   3.174   2.819
22664SOL    HW169766   5.587   3.145   2.910
22664SOL    HW269767   5.546   3.100   2.772
22665SOL     OW69768   6.896   1.909   8.416
22665SOL    HW169769   6.940   1.860   8.486
22665SOL    HW269770   6.931   1.871   8.335
22666SOL     OW69771  13.015   8.105  11.129
22666SOL    HW169772  12.955   8.133  11.060
22666SOL    HW269773  12.962   8.049  11.186
22667SOL     OW69774   1.815   2.996   5.040
22667SOL    HW169775   1.855   2.995   5.127
22667SOL    HW269776   1.750   3.066   5.044
22668SOL     OW69777   9.061   8.925   0.166
22668SOL    HW169778   8.979   8.957   0.127
22668SOL    HW269779   9.082   8.990   0.233
22669SOL     OW69780   1.733  10.330  11.698
22669SOL    HW169781   1.699  10.292  11.617
22669SOL    HW269782   1.778  10.409  11.669
22670SOL     OW69783   2.660  14.279  14.659
22670SOL    HW169784   2.678  14.186  14.675
22670SOL    HW269785   2.564  14.285  14.658
22671SOL     OW69786   7.579  14.340   6.987
22671SOL    HW169787   7.489  14.345   6.954
22671SOL    HW269788   7.625  14.411   6.940
22672SOL     OW69789   3.912   9.817   0.709
22672SOL    HW169790   3.879   9.891   0.658
22672SOL    HW269791   3.869   9.826   0.794
22673SOL     OW69792   6.585  13.680  14.263
22673SOL    HW169793   6.505  13.637  14.293
22673SOL    HW269794   6.555  13.765  14.228
22674SOL     OW69795  12.724   9.573  10.708
22674SOL    HW169796  12.817   9.595  10.699
22674SOL    HW269797  12.707   9.582  10.802
22675SOL     OW69798   5.833  13.683   3.610
22675SOL    HW169799   5.830  13.776   3.633
22675SOL    HW269800   5.901  13.677   3.543
22676SOL     OW69801  14.112   1.713   4.615
22676SOL    HW169802  14.202   1.731   4.643
22676SOL    HW269803  14.122   1.641   4.553
22677SOL     OW69804   2.955   6.075   1.435
22677SOL    HW169805   2.985   6.057   1.346
22677SOL    HW269806   2.936   6.168   1.436
22678SOL     OW69807  10.157   9.138   6.657
22678SOL    HW169808  10.233   9.193   6.675
22678SOL    HW269809  10.140   9.093   6.740
22679SOL     OW69810  14.675   9.303   3.583
22679SOL    HW169811  14.628   9.220   3.589
22679SOL    HW269812  14.763   9.283   3.613
22680SOL     OW69813   3.044   1.626   0.911
22680SOL    HW169814   3.065   1.568   0.839
22680SOL    HW269815   2.983   1.576   0.965
22681SOL     OW69816   6.736   8.328   7.174
22681SOL    HW169817   6.722   8.400   7.112
22681SOL    HW269818   6.748   8.251   7.119
22682SOL     OW69819   7.694   4.300  12.942
22682SOL    HW169820   7.660   4.260  12.861
22682SOL    HW269821   7.669   4.392  12.935
22683SOL     OW69822   5.096   1.023   4.735
22683SOL    HW169823   5.108   1.021   4.640
22683SOL    HW269824   5.133   1.107   4.763
22684SOL     OW69825  11.496   8.432   3.885
22684SOL    HW169826  11.465   8.379   3.812
22684SOL    HW269827  11.417   8.451   3.937
22685SOL     OW69828   4.060   6.606   8.512
22685SOL    HW169829   4.020   6.626   8.427
22685SOL    HW269830   3.987   6.578   8.567
22686SOL     OW69831  10.718   0.578   4.312
22686SOL    HW169832  10.764   0.637   4.251
22686SOL    HW269833  10.638   0.625   4.334
22687SOL     OW69834   6.125  14.592   9.947
22687SOL    HW169835   6.053  14.651   9.926
22687SOL    HW269836   6.094  14.542  10.022
22688SOL     OW69837   2.488   3.600  14.447
22688SOL    HW169838   2.393   3.600  14.449
22688SOL    HW269839   2.514   3.522  14.496
22689SOL     OW69840   9.715   3.164   9.897
22689SOL    HW169841   9.675   3.094   9.949
22689SOL    HW269842   9.722   3.128   9.809
22690SOL     OW69843   2.420   4.844  12.707
22690SOL    HW169844   2.465   4.782  12.765
22690SOL    HW269845   2.491   4.896  12.669
22691SOL     OW69846  11.048   2.290  10.674
22691SOL    HW169847  11.116   2.244  10.625
22691SOL    HW269848  11.096   2.341  10.739
22692SOL     OW69849   6.484   6.167  10.669
22692SOL    HW169850   6.392   6.195  10.675
22692SOL    HW269851   6.526   6.236  10.618
22693SOL     OW69852   3.111  14.800   6.110
22693SOL    HW169853   3.069  14.754   6.038
22693SOL    HW269854   3.137  14.732   6.171
22694SOL     OW69855  14.680  13.667   4.886
22694SOL    HW169856  14.756  13.609   4.878
22694SOL    HW269857  14.604  13.609   4.876
22695SOL     OW69858   2.117   8.204  11.795
22695SOL    HW169859   2.154   8.158  11.871
22695SOL    HW269860   2.078   8.284  11.832
22696SOL     OW69861   0.913   0.223   0.668
22696SOL    HW169862   0.835   0.263   0.706
22696SOL    HW269863   0.975   0.295   0.660
22697SOL     OW69864   8.744   8.110  10.386
22697SOL    HW169865   8.737   8.158  10.304
22697SOL    HW269866   8.806   8.161  10.438
22698SOL     OW69867   6.017  13.374   3.647
22698SOL    HW169868   6.097  13.338   3.685
22698SOL    HW269869   6.012  13.463   3.681
22699SOL     OW69870   2.529   7.210   2.805
22699SOL    HW169871   2.543   7.273   2.735
22699SOL    HW269872   2.563   7.253   2.883
22700SOL     OW69873   3.122   4.690  12.271
22700SOL    HW169874   3.207   4.714  12.234
22700SOL    HW269875   3.136   4.603  12.308
22701SOL     OW69876   1.627  14.345  13.451
22701SOL    HW169877   1.556  14.404  13.477
22701SOL    HW269878   1.611  14.328  13.358
22702SOL     OW69879  12.601   6.003   8.292
22702SOL    HW169880  12.589   5.912   8.263
22702SOL    HW269881  12.593   5.999   8.387
22703SOL     OW69882   7.567  14.732  12.171
22703SOL    HW169883   7.530  14.669  12.109
22703SOL    HW269884   7.518  14.812  12.155
22704SOL     OW69885  11.503   8.467   0.856
22704SOL    HW169886  11.411   8.489   0.841
22704SOL    HW269887  11.552   8.523   0.796
22705SOL     OW69888  13.937   2.114   1.910
22705SOL    HW169889  14.010   2.143   1.964
22705SOL    HW269890  13.925   2.184   1.846
22706SOL     OW69891  11.455  13.803   2.981
22706SOL    HW169892  11.408  13.797   3.064
22706SOL    HW269893  11.386  13.795   2.914
22707SOL     OW69894   4.784  12.800   0.891
22707SOL    HW169895   4.708  12.743   0.879
22707SOL    HW269896   4.824  12.770   0.973
22708SOL     OW69897   2.610   1.936   5.345
22708SOL    HW169898   2.672   1.890   5.401
22708SOL    HW269899   2.607   1.884   5.265
22709SOL     OW69900   7.952   5.279   4.004
22709SOL    HW169901   8.029   5.306   3.955
22709SOL    HW269902   7.878   5.306   3.950
22710SOL     OW69903  12.180   5.649   3.241
22710SOL    HW169904  12.084   5.643   3.232
22710SOL    HW269905  12.210   5.676   3.154
22711SOL     OW69906   3.003   5.155   3.774
22711SOL    HW169907   3.054   5.195   3.845
22711SOL    HW269908   3.069   5.110   3.721
22712SOL     OW69909  10.860   9.697   4.323
22712SOL    HW169910  10.818   9.671   4.405
22712SOL    HW269911  10.881   9.789   4.335
22713SOL     OW69912  12.872  11.591  11.045
22713SOL    HW169913  12.921  11.620  10.968
22713SOL    HW269914  12.921  11.515  11.077
22714SOL     OW69915   6.171   3.615   2.152
22714SOL    HW169916   6.227   3.667   2.210
22714SOL    HW269917   6.222   3.537   2.133
22715SOL     OW69918   4.649  12.803  11.134
22715SOL    HW169919   4.616  12.715  11.152
22715SOL    HW269920   4.600  12.860  11.194
22716SOL     OW69921   9.930   1.708   9.506
22716SOL    HW169922   9.844   1.748   9.500
22716SOL    HW269923   9.991   1.780   9.490
22717SOL     OW69924  10.103   8.341   2.342
22717SOL    HW169925  10.061   8.275   2.398
22717SOL    HW269926  10.157   8.393   2.402
22718SOL     OW69927   8.208  13.360  14.045
22718SOL    HW169928   8.274  13.430  14.050
22718SOL    HW269929   8.189  13.337  14.136
22719SOL     OW69930   5.064   0.018  11.954
22719SOL    HW169931   5.129  14.856  11.896
22719SOL    HW269932   4.985  14.843  11.941
22720SOL     OW69933   3.880   2.327   1.932
22720SOL    HW169934   3.826   2.363   2.002
22720SOL    HW269935   3.819   2.310   1.861
22721SOL     OW69936   0.748   0.390  11.756
22721SOL    HW169937   0.717   0.400  11.846
22721SOL    HW269938   0.728   0.300  11.733
22722SOL     OW69939   1.198   9.349   7.167
22722SOL    HW169940   1.278   9.356   7.219
22722SOL    HW269941   1.135   9.307   7.225
22723SOL     OW69942   6.018  10.462   9.703
22723SOL    HW169943   5.965  10.383   9.694
22723SOL    HW269944   6.102  10.431   9.737
22724SOL     OW69945  11.943  14.474   7.612
22724SOL    HW169946  11.960  14.567   7.594
22724SOL    HW269947  12.030  14.436   7.625
22725SOL     OW69948   1.850   9.286   2.928
22725SOL    HW169949   1.784   9.221   2.903
22725SOL    HW269950   1.810   9.371   2.905
22726SOL     OW69951  14.555   7.981   0.947
22726SOL    HW169952  14.581   7.927   1.022
22726SOL    HW269953  14.630   7.979   0.888
22727SOL     OW69954  11.836   5.686  13.183
22727SOL    HW169955  11.814   5.594  13.166
22727SOL    HW269956  11.920   5.698  13.139
22728SOL     OW69957  12.540   3.077  13.278
22728SOL    HW169958  12.445   3.068  13.272
22728SOL    HW269959  12.569   3.080  13.187
22729SOL     OW69960   9.754   1.954   8.241
22729SOL    HW169961   9.734   1.936   8.149
22729SOL    HW269962   9.693   2.024   8.265
22730SOL     OW69963   7.179   0.477   4.258
22730SOL    HW169964   7.195   0.392   4.298
22730SOL    HW269965   7.095   0.467   4.213
22731SOL     OW69966   9.627  11.989   4.240
22731SOL    HW169967   9.629  12.034   4.324
22731SOL    HW269968   9.703  12.024   4.192
22732SOL     OW69969   0.878   6.468   3.266
22732SOL    HW169970   0.967   6.454   3.299
22732SOL    HW269971   0.837   6.522   3.333
22733SOL     OW69972   5.469   3.821   1.432
22733SOL    HW169973   5.537   3.783   1.486
22733SOL    HW269974   5.513   3.847   1.351
22734SOL     OW69975   4.567   7.378   9.833
22734SOL    HW169976   4.629   7.308   9.852
22734SOL    HW269977   4.481   7.336   9.842
22735SOL     OW69978   7.613  12.348   7.184
22735SOL    HW169979   7.562  12.384   7.257
22735SOL    HW269980   7.557  12.361   7.107
22736SOL     OW69981   2.613  10.973   1.126
22736SOL    HW169982   2.628  10.951   1.035
22736SOL    HW269983   2.569  11.058   1.124
22737SOL     OW69984   1.334  10.938  11.338
22737SOL    HW169985   1.294  10.972  11.258
22737SOL    HW269986   1.415  10.988  11.347
22738SOL     OW69987   0.643  12.218   3.390
22738SOL    HW169988   0.736  12.238   3.385
22738SOL    HW269989   0.604  12.268   3.318
22739SOL     OW69990  12.413  10.861   0.107
22739SOL    HW169991  12.333  10.812   0.126
22739SOL    HW269992  12.473  10.836   0.178
22740SOL     OW69993   0.960  14.228  10.372
22740SOL    HW169994   0.988  14.317  10.348
22740SOL    HW269995   0.904  14.241  10.448
22741SOL     OW69996   7.295   8.582   5.860
22741SOL    HW169997   7.205   8.592   5.829
22741SOL    HW269998   7.345   8.650   5.814
22742SOL     OW69999  14.098  13.928   3.413
22742SOL    HW170000  14.191  13.926   3.431
22742SOL    HW270001  14.062  13.988   3.479
22743SOL     OW70002   4.991  12.134   1.784
22743SOL    HW170003   5.071  12.089   1.810
22743SOL    HW270004   4.922  12.068   1.794
22744SOL     OW70005   8.124   0.199  13.696
22744SOL    HW170006   8.062   0.159  13.757
22744SOL    HW270007   8.132   0.290  13.725
22745SOL     OW70008  13.089   2.378   1.039
22745SOL    HW170009  13.106   2.403   0.949
22745SOL    HW270010  13.126   2.449   1.092
22746SOL     OW70011  14.123  12.028   4.932
22746SOL    HW170012  14.184  11.997   4.999
22746SOL    HW270013  14.064  11.954   4.916
22747SOL     OW70014   7.202  14.291   3.722
22747SOL    HW170015   7.245  14.374   3.744
22747SOL    HW270016   7.274  14.234   3.694
22748SOL     OW70017   6.531  10.125   7.001
22748SOL    HW170018   6.540  10.189   7.071
22748SOL    HW270019   6.621  10.108   6.972
22749SOL     OW70020  10.461   4.780   1.586
22749SOL    HW170021  10.475   4.764   1.492
22749SOL    HW270022  10.435   4.872   1.591
22750SOL     OW70023   3.003   9.517   3.933
22750SOL    HW170024   2.974   9.437   3.977
22750SOL    HW270025   2.932   9.579   3.949
22751SOL     OW70026   1.023  14.648   7.310
22751SOL    HW170027   0.950  14.691   7.266
22751SOL    HW270028   1.079  14.619   7.238
22752SOL     OW70029   4.045   6.612   4.001
22752SOL    HW170030   3.952   6.618   3.978
22752SOL    HW270031   4.051   6.533   4.055
22753SOL     OW70032  10.199   3.717  12.556
22753SOL    HW170033  10.197   3.623  12.571
22753SOL    HW270034  10.162   3.729  12.469
22754SOL     OW70035   4.171  10.966  12.071
22754SOL    HW170036   4.095  11.021  12.087
22754SOL    HW270037   4.206  10.947  12.158
22755SOL     OW70038   2.506  13.347   1.672
22755SOL    HW170039   2.526  13.259   1.639
22755SOL    HW270040   2.588  13.395   1.662
22756SOL     OW70041   7.603   1.342   9.477
22756SOL    HW170042   7.530   1.303   9.525
22756SOL    HW270043   7.678   1.332   9.537
22757SOL     OW70044   4.982   1.654  10.232
22757SOL    HW170045   4.932   1.574  10.215
22757SOL    HW270046   5.008   1.648  10.323
22758SOL     OW70047   6.992   5.841  12.591
22758SOL    HW170048   6.950   5.922  12.561
22758SOL    HW270049   6.973   5.838  12.685
22759SOL     OW70050  13.265  10.261   5.172
22759SOL    HW170051  13.194  10.207   5.140
22759SOL    HW270052  13.287  10.319   5.098
22760SOL     OW70053  13.539  12.061   6.905
22760SOL    HW170054  13.574  12.125   6.966
22760SOL    HW270055  13.449  12.088   6.890
22761SOL     OW70056   9.738   2.092   6.219
22761SOL    HW170057   9.769   2.128   6.136
22761SOL    HW270058   9.803   2.027   6.244
22762SOL     OW70059   6.710   5.766   8.857
22762SOL    HW170060   6.665   5.844   8.888
22762SOL    HW270061   6.652   5.693   8.882
22763SOL     OW70062   0.513   4.717   4.513
22763SOL    HW170063   0.569   4.761   4.577
22763SOL    HW270064   0.570   4.702   4.437
22764SOL     OW70065   8.647   7.187  14.316
22764SOL    HW170066   8.635   7.270  14.362
22764SOL    HW270067   8.636   7.120  14.384
22765SOL     OW70068   6.060   2.150  12.162
22765SOL    HW170069   6.019   2.222  12.210
22765SOL    HW270070   5.986   2.103  12.122
22766SOL     OW70071   4.839   3.892   0.229
22766SOL    HW170072   4.890   3.813   0.244
22766SOL    HW270073   4.897   3.949   0.178
22767SOL     OW70074   4.042   3.287   9.426
22767SOL    HW170075   3.969   3.266   9.368
22767SOL    HW270076   4.119   3.255   9.380
22768SOL     OW70077  10.904   4.391   6.232
22768SOL    HW170078  10.815   4.365   6.255
22768SOL    HW270079  10.959   4.353   6.300
22769SOL     OW70080   0.136   2.936   3.768
22769SOL    HW170081   0.194   2.909   3.698
22769SOL    HW270082   0.096   3.017   3.736
22770SOL     OW70083   2.876  13.077   7.821
22770SOL    HW170084   2.887  13.045   7.910
22770SOL    HW270085   2.846  13.167   7.830
22771SOL     OW70086  14.787  11.662   2.145
22771SOL    HW170087  14.793  11.708   2.229
22771SOL    HW270088  14.843  11.585   2.157
22772SOL     OW70089   5.658   6.160   9.612
22772SOL    HW170090   5.597   6.089   9.590
22772SOL    HW270091   5.694   6.188   9.528
22773SOL     OW70092   8.457  13.075  14.819
22773SOL    HW170093   8.486  13.070   0.033
22773SOL    HW270094   8.378  13.129  14.822
22774SOL     OW70095   7.161   2.389  14.299
22774SOL    HW170096   7.230   2.338  14.342
22774SOL    HW270097   7.205   2.431  14.225
22775SOL     OW70098  13.374   8.907   3.879
22775SOL    HW170099  13.283   8.879   3.892
22775SOL    HW270100  13.385   8.909   3.784
22776SOL     OW70101   8.104  11.428   1.158
22776SOL    HW170102   8.033  11.372   1.129
22776SOL    HW270103   8.180  11.370   1.165
22777SOL     OW70104   7.002  14.580  13.507
22777SOL    HW170105   7.021  14.575  13.600
22777SOL    HW270106   6.950  14.660  13.497
22778SOL     OW70107   7.308   7.677   8.617
22778SOL    HW170108   7.318   7.770   8.635
22778SOL    HW270109   7.338   7.667   8.527
22779SOL     OW70110  12.859   6.453  11.054
22779SOL    HW170111  12.954   6.443  11.048
22779SOL    HW270112  12.827   6.440  10.964
22780SOL     OW70113   0.492   4.605  10.411
22780SOL    HW170114   0.469   4.548  10.484
22780SOL    HW270115   0.455   4.690  10.436
22781SOL     OW70116   2.363   2.837   8.484
22781SOL    HW170117   2.288   2.885   8.520
22781SOL    HW270118   2.361   2.752   8.529
22782SOL     OW70119   1.684   2.207   6.899
22782SOL    HW170120   1.704   2.115   6.916
22782SOL    HW270121   1.707   2.220   6.807
22783SOL     OW70122  14.622   2.361   7.872
22783SOL    HW170123  14.592   2.452   7.875
22783SOL    HW270124  14.589   2.328   7.789
22784SOL     OW70125   7.918   1.230   6.198
22784SOL    HW170126   7.977   1.249   6.125
22784SOL    HW270127   7.962   1.161   6.247
22785SOL     OW70128  11.609  10.977   0.522
22785SOL    HW170129  11.576  11.065   0.505
22785SOL    HW270130  11.664  10.957   0.446
22786SOL     OW70131   9.962   0.292   5.863
22786SOL    HW170132  10.026   0.315   5.931
22786SOL    HW270133  10.014   0.249   5.795
22787SOL     OW70134   5.006   4.610   2.768
22787SOL    HW170135   4.954   4.545   2.815
22787SOL    HW270136   5.075   4.636   2.829
22788SOL     OW70137   6.984  14.515   2.174
22788SOL    HW170138   6.903  14.495   2.127
22788SOL    HW270139   7.004  14.435   2.222
22789SOL     OW70140   8.033  12.155   8.510
22789SOL    HW170141   8.092  12.171   8.584
22789SOL    HW270142   8.024  12.059   8.508
22790SOL     OW70143  11.014  11.824   2.083
22790SOL    HW170144  10.948  11.869   2.031
22790SOL    HW270145  10.989  11.839   2.174
22791SOL     OW70146   4.130   3.998   3.728
22791SOL    HW170147   4.123   3.947   3.809
22791SOL    HW270148   4.048   3.980   3.682
22792SOL     OW70149   8.123   4.552   2.108
22792SOL    HW170150   8.073   4.616   2.159
22792SOL    HW270151   8.086   4.468   2.134
22793SOL     OW70152   5.740   8.757   8.706
22793SOL    HW170153   5.798   8.813   8.654
22793SOL    HW270154   5.783   8.751   8.792
22794SOL     OW70155   3.767   4.352  14.378
22794SOL    HW170156   3.677   4.365  14.408
22794SOL    HW270157   3.783   4.259  14.394
22795SOL     OW70158   2.277   0.958   7.520
22795SOL    HW170159   2.227   0.913   7.452
22795SOL    HW270160   2.236   1.045   7.526
22796SOL     OW70161   1.444  13.142  12.536
22796SOL    HW170162   1.368  13.103  12.580
22796SOL    HW270163   1.515  13.135  12.600
22797SOL     OW70164   8.501   0.123   6.181
22797SOL    HW170165   8.443   0.048   6.173
22797SOL    HW270166   8.458   0.192   6.132
22798SOL     OW70167   8.597   8.322   9.717
22798SOL    HW170168   8.560   8.287   9.798
22798SOL    HW270169   8.642   8.402   9.743
22799SOL     OW70170  11.854   3.348  14.293
22799SOL    HW170171  11.926   3.321  14.349
22799SOL    HW270172  11.782   3.368  14.353
22800SOL     OW70173   7.045   4.133  13.587
22800SOL    HW170174   6.950   4.123  13.598
22800SOL    HW270175   7.076   4.043  13.574
22801SOL     OW70176   5.115   0.851   9.373
22801SOL    HW170177   5.199   0.811   9.397
22801SOL    HW270178   5.140   0.934   9.333
22802SOL     OW70179   7.195   1.991  14.184
22802SOL    HW170180   7.244   2.016  14.107
22802SOL    HW270181   7.111   1.959  14.150
22803SOL     OW70182   2.742  11.610  12.916
22803SOL    HW170183   2.687  11.545  12.961
22803SOL    HW270184   2.832  11.583  12.937
22804SOL     OW70185   3.136  14.757   8.102
22804SOL    HW170186   3.061  14.798   8.144
22804SOL    HW270187   3.203  14.754   8.170
22805SOL     OW70188  13.289   3.980   9.998
22805SOL    HW170189  13.348   4.049  10.028
22805SOL    HW270190  13.342   3.928   9.938
22806SOL     OW70191  14.864   8.646   4.953
22806SOL    HW170192  14.793   8.679   5.009
22806SOL    HW270193   0.032   8.581   5.006
22807SOL     OW70194  13.159   2.679   4.801
22807SOL    HW170195  13.221   2.624   4.753
22807SOL    HW270196  13.173   2.655   4.893
22808SOL     OW70197  12.257   8.195   1.193
22808SOL    HW170198  12.269   8.254   1.267
22808SOL    HW270199  12.316   8.228   1.126
22809SOL     OW70200   2.544   6.620  12.587
22809SOL    HW170201   2.455   6.608  12.554
22809SOL    HW270202   2.591   6.541  12.559
22810SOL     OW70203  11.436   8.789  12.053
22810SOL    HW170204  11.479   8.872  12.033
22810SOL    HW270205  11.343   8.812  12.063
22811SOL     OW70206   9.570   2.485  12.489
22811SOL    HW170207   9.496   2.427  12.470
22811SOL    HW270208   9.566   2.499  12.583
22812SOL     OW70209  13.726  12.218   2.916
22812SOL    HW170210  13.713  12.129   2.884
22812SOL    HW270211  13.692  12.216   3.006
22813SOL     OW70212  13.576   0.095   2.737
22813SOL    HW170213  13.563   0.183   2.702
22813SOL    HW270214  13.618   0.047   2.665
22814SOL     OW70215   8.341  10.465   6.309
22814SOL    HW170216   8.377  10.420   6.385
22814SOL    HW270217   8.405  10.534   6.290
22815SOL     OW70218   1.406  11.548   2.086
22815SOL    HW170219   1.430  11.614   2.021
22815SOL    HW270220   1.314  11.530   2.070
22816SOL     OW70221   9.234   6.485  11.908
22816SOL    HW170222   9.291   6.429  11.856
22816SOL    HW270223   9.172   6.521  11.845
22817SOL     OW70224   5.666   7.222   1.857
22817SOL    HW170225   5.757   7.242   1.834
22817SOL    HW270226   5.647   7.139   1.814
22818SOL     OW70227  10.072  13.314   9.680
22818SOL    HW170228  10.050  13.406   9.666
22818SOL    HW270229  10.158  13.303   9.641
22819SOL     OW70230   8.960  11.514  14.574
22819SOL    HW170231   8.901  11.484  14.643
22819SOL    HW270232   9.040  11.463  14.586
22820SOL     OW70233   5.752  11.156   5.875
22820SOL    HW170234   5.734  11.065   5.901
22820SOL    HW270235   5.673  11.183   5.828
22821SOL     OW70236  11.979  13.225   4.624
22821SOL    HW170237  11.928  13.302   4.601
22821SOL    HW270238  11.973  13.220   4.719
22822SOL     OW70239   0.581   9.231   0.066
22822SOL    HW170240   0.553   9.162   0.006
22822SOL    HW270241   0.572   9.193   0.153
22823SOL     OW70242  10.952   7.136   2.604
22823SOL    HW170243  10.925   7.115   2.515
22823SOL    HW270244  10.964   7.050   2.646
22824SOL     OW70245   5.892  11.192  12.820
22824SOL    HW170246   5.797  11.183  12.816
22824SOL    HW270247   5.925  11.128  12.758
22825SOL     OW70248   7.910  11.515   6.612
22825SOL    HW170249   8.005  11.513   6.597
22825SOL    HW270250   7.883  11.602   6.582
22826SOL     OW70251   0.941   9.191   3.988
22826SOL    HW170252   1.011   9.251   3.965
22826SOL    HW270253   0.972   9.145   4.066
22827SOL     OW70254   5.268   7.133   8.960
22827SOL    HW170255   5.261   7.225   8.936
22827SOL    HW270256   5.212   7.125   9.038
22828SOL     OW70257   4.666  13.035   2.533
22828SOL    HW170258   4.684  12.997   2.619
22828SOL    HW270259   4.745  13.086   2.513
22829SOL     OW70260   8.127   6.845  14.555
22829SOL    HW170261   8.096   6.825  14.467
22829SOL    HW270262   8.048   6.846  14.609
22830SOL     OW70263   1.716   3.281   0.498
22830SOL    HW170264   1.702   3.369   0.533
22830SOL    HW270265   1.792   3.248   0.547
22831SOL     OW70266  12.497  13.319   9.856
22831SOL    HW170267  12.498  13.353   9.945
22831SOL    HW270268  12.552  13.379   9.806
22832SOL     OW70269  11.150   0.116   8.839
22832SOL    HW170270  11.169   0.023   8.826
22832SOL    HW270271  11.074   0.133   8.785
22833SOL     OW70272   0.213   3.270   8.752
22833SOL    HW170273   0.126   3.234   8.766
22833SOL    HW270274   0.273   3.198   8.772
22834SOL     OW70275   5.759  11.865   5.776
22834SOL    HW170276   5.847  11.895   5.755
22834SOL    HW270277   5.740  11.799   5.709
22835SOL     OW70278  14.176  11.522  10.127
22835SOL    HW170279  14.200  11.462  10.056
22835SOL    HW270280  14.164  11.465  10.203
22836SOL     OW70281   8.123  10.243   0.326
22836SOL    HW170282   8.043  10.208   0.288
22836SOL    HW270283   8.098  10.328   0.362
22837SOL     OW70284   2.177  11.694  13.480
22837SOL    HW170285   2.265  11.659  13.494
22837SOL    HW270286   2.124  11.656  13.550
22838SOL     OW70287  14.391  11.856   5.002
22838SOL    HW170288  14.376  11.883   5.093
22838SOL    HW270289  14.430  11.769   5.009
22839SOL     OW70290  14.731   5.732  14.287
22839SOL    HW170291  14.823   5.740  14.313
22839SOL    HW270292  14.683   5.777  14.357
22840SOL     OW70293   0.892   1.491  10.187
22840SOL    HW170294   0.917   1.522  10.274
22840SOL    HW270295   0.942   1.410  10.175
22841SOL     OW70296   1.432  14.766   0.513
22841SOL    HW170297   1.467  14.837   0.566
22841SOL    HW270298   1.471  14.779   0.427
22842SOL     OW70299   3.134   2.170  13.783
22842SOL    HW170300   3.101   2.131  13.702
22842SOL    HW270301   3.204   2.229  13.755
22843SOL     OW70302   1.421   8.163   3.365
22843SOL    HW170303   1.480   8.195   3.433
22843SOL    HW270304   1.465   8.186   3.283
22844SOL     OW70305   5.299   8.396   3.637
22844SOL    HW170306   5.233   8.331   3.661
22844SOL    HW270307   5.377   8.344   3.615
22845SOL     OW70308   6.390   2.225   1.916
22845SOL    HW170309   6.432   2.139   1.912
22845SOL    HW270310   6.317   2.214   1.976
22846SOL     OW70311  10.658   7.771  12.668
22846SOL    HW170312  10.749   7.753  12.648
22846SOL    HW270313  10.656   7.863  12.693
22847SOL     OW70314  10.944  11.183   8.474
22847SOL    HW170315  10.880  11.254   8.466
22847SOL    HW270316  10.916  11.136   8.553
22848SOL     OW70317   9.329  11.967   6.955
22848SOL    HW170318   9.281  12.001   7.031
22848SOL    HW270319   9.421  11.979   6.978
22849SOL     OW70320   7.998  10.713   9.330
22849SOL    HW170321   8.020  10.704   9.422
22849SOL    HW270322   7.924  10.774   9.329
22850SOL     OW70323   5.271   7.395   9.216
22850SOL    HW170324   5.276   7.377   9.310
22850SOL    HW270325   5.338   7.340   9.177
22851SOL     OW70326   2.897   2.031   4.459
22851SOL    HW170327   2.962   2.039   4.389
22851SOL    HW270328   2.907   2.112   4.509
22852SOL     OW70329   6.313  11.600  13.616
22852SOL    HW170330   6.342  11.565  13.700
22852SOL    HW270331   6.347  11.539  13.551
22853SOL     OW70332  13.780   9.986   4.013
22853SOL    HW170333  13.859   9.971   4.065
22853SOL    HW270334  13.710   9.943   4.062
22854SOL     OW70335  12.515   6.583   9.796
22854SOL    HW170336  12.420   6.587   9.796
22854SOL    HW270337  12.541   6.606   9.885
22855SOL     OW70338   0.100  12.186   0.060
22855SOL    HW170339   0.048  12.200  14.859
22855SOL    HW270340   0.036  12.160   0.127
22856SOL     OW70341   1.821  12.468   5.492
22856SOL    HW170342   1.905  12.504   5.521
22856SOL    HW270343   1.780  12.436   5.573
22857SOL     OW70344   9.614   1.878   9.995
22857SOL    HW170345   9.554   1.932   9.943
22857SOL    HW270346   9.633   1.802   9.940
22858SOL     OW70347   3.784   1.577   6.841
22858SOL    HW170348   3.693   1.574   6.810
22858SOL    HW270349   3.800   1.489   6.876
22859SOL     OW70350   0.200  13.753   1.539
22859SOL    HW170351   0.275  13.812   1.551
22859SOL    HW270352   0.216  13.710   1.455
22860SOL     OW70353   3.686   5.080  14.690
22860SOL    HW170354   3.652   5.042  14.609
22860SOL    HW270355   3.607   5.102  14.740
22861SOL     OW70356  10.845  10.910   4.138
22861SOL    HW170357  10.905  10.984   4.150
22861SOL    HW270358  10.759  10.944   4.159
22862SOL     OW70359   8.431  10.567   4.792
22862SOL    HW170360   8.497  10.549   4.725
22862SOL    HW270361   8.352  10.525   4.759
22863SOL     OW70362  13.495   0.582   2.138
22863SOL    HW170363  13.580   0.551   2.168
22863SOL    HW270364  13.454   0.619   2.216
22864SOL     OW70365   1.742   6.863   8.199
22864SOL    HW170366   1.677   6.929   8.176
22864SOL    HW270367   1.808   6.870   8.130
22865SOL     OW70368  10.487   8.536   5.855
22865SOL    HW170369  10.554   8.473   5.880
22865SOL    HW270370  10.438   8.552   5.936
22866SOL     OW70371   5.095  10.494  11.442
22866SOL    HW170372   5.166  10.518  11.501
22866SOL    HW270373   5.125  10.414  11.399
22867SOL     OW70374   8.534   3.948   6.273
22867SOL    HW170375   8.453   3.909   6.306
22867SOL    HW270376   8.507   4.034   6.238
22868SOL     OW70377   9.395   6.279   9.219
22868SOL    HW170378   9.440   6.363   9.218
22868SOL    HW270379   9.356   6.271   9.132
22869SOL     OW70380   3.767  10.827   1.566
22869SOL    HW170381   3.724  10.824   1.652
22869SOL    HW270382   3.798  10.738   1.551
22870SOL     OW70383   3.682   4.801  13.995
22870SOL    HW170384   3.775   4.784  14.010
22870SOL    HW270385   3.638   4.753  14.066
22871SOL     OW70386  12.701   4.837  12.134
22871SOL    HW170387  12.627   4.878  12.180
22871SOL    HW270388  12.778   4.869  12.181
22872SOL     OW70389   9.485   1.551   3.184
22872SOL    HW170390   9.445   1.511   3.261
22872SOL    HW270391   9.529   1.479   3.139
22873SOL     OW70392   8.306   8.742   4.821
22873SOL    HW170393   8.277   8.783   4.902
22873SOL    HW270394   8.371   8.802   4.785
22874SOL     OW70395   3.381  14.813  12.210
22874SOL    HW170396   3.308  14.813  12.149
22874SOL    HW270397   3.419   0.023  12.203
22875SOL     OW70398  14.322  11.818   4.634
22875SOL    HW170399  14.406  11.778   4.655
22875SOL    HW270400  14.344  11.904   4.599
22876SOL     OW70401   8.231   0.529   4.155
22876SOL    HW170402   8.259   0.600   4.098
22876SOL    HW270403   8.295   0.459   4.140
22877SOL     OW70404   2.197   0.154   0.147
22877SOL    HW170405   2.133   0.083   0.157
22877SOL    HW270406   2.223   0.151   0.055
22878SOL     OW70407  14.086  14.674   4.210
22878SOL    HW170408  14.046  14.587   4.201
22878SOL    HW270409  14.175  14.663   4.176
22879SOL     OW70410  12.117   1.264  11.310
22879SOL    HW170411  12.176   1.229  11.243
22879SOL    HW270412  12.033   1.272  11.267
22880SOL     OW70413  11.006  12.816   2.348
22880SOL    HW170414  11.017  12.888   2.410
22880SOL    HW270415  10.984  12.740   2.403
22881SOL     OW70416  14.685   3.339   2.384
22881SOL    HW170417  14.606   3.376   2.346
22881SOL    HW270418  14.753   3.404   2.365
22882SOL     OW70419   9.347   5.178   4.990
22882SOL    HW170420   9.391   5.093   4.998
22882SOL    HW270421   9.297   5.172   4.909
22883SOL     OW70422   1.967   0.327  11.108
22883SOL    HW170423   1.995   0.235  11.113
22883SOL    HW270424   1.918   0.332  11.026
22884SOL     OW70425   1.765  11.598   8.614
22884SOL    HW170426   1.761  11.552   8.698
22884SOL    HW270427   1.728  11.684   8.632
22885SOL     OW70428  11.027   4.808  11.818
22885SOL    HW170429  10.935   4.834  11.815
22885SOL    HW270430  11.046   4.775  11.730
22886SOL     OW70431  14.794  14.611  11.849
22886SOL    HW170432  14.857  14.539  11.840
22886SOL    HW270433  14.750  14.615  11.764
22887SOL     OW70434   8.218   7.964   9.065
22887SOL    HW170435   8.266   8.018   9.002
22887SOL    HW270436   8.263   7.880   9.063
22888SOL     OW70437   1.254   4.917   4.910
22888SOL    HW170438   1.284   4.948   4.825
22888SOL    HW270439   1.198   4.987   4.943
22889SOL     OW70440  11.546   5.686  13.736
22889SOL    HW170441  11.505   5.655  13.656
22889SOL    HW270442  11.521   5.622  13.803
22890SOL     OW70443   0.274   2.644  13.278
22890SOL    HW170444   0.296   2.625  13.187
22890SOL    HW270445   0.335   2.712  13.304
22891SOL     OW70446  11.846   3.692  12.330
22891SOL    HW170447  11.923   3.649  12.366
22891SOL    HW270448  11.792   3.712  12.406
22892SOL     OW70449   0.505  12.619   7.781
22892SOL    HW170450   0.506  12.567   7.701
22892SOL    HW270451   0.595  12.616   7.813
22893SOL     OW70452   9.783   6.297  13.466
22893SOL    HW170453   9.780   6.310  13.561
22893SOL    HW270454   9.805   6.382  13.430
22894SOL     OW70455  14.010  12.772  13.926
22894SOL    HW170456  13.943  12.734  13.983
22894SOL    HW270457  14.081  12.708  13.926
22895SOL     OW70458  10.815   2.922  14.452
22895SOL    HW170459  10.745   2.862  14.476
22895SOL    HW270460  10.826   2.979  14.529
22896SOL     OW70461  12.461   5.135   5.563
22896SOL    HW170462  12.419   5.109   5.645
22896SOL    HW270463  12.395   5.188   5.518
22897SOL     OW70464   4.651  13.993  10.889
22897SOL    HW170465   4.566  13.954  10.868
22897SOL    HW270466   4.713  13.945  10.834
22898SOL     OW70467  10.179   7.023   6.033
22898SOL    HW170468  10.104   6.971   6.006
22898SOL    HW270469  10.206   7.069   5.953
22899SOL     OW70470   0.777  10.238   5.851
22899SOL    HW170471   0.775  10.239   5.946
22899SOL    HW270472   0.692  10.273   5.824
22900SOL     OW70473  11.689   1.739   1.288
22900SOL    HW170474  11.605   1.781   1.308
22900SOL    HW270475  11.738   1.806   1.240
22901SOL     OW70476   2.822   8.685   8.213
22901SOL    HW170477   2.808   8.614   8.275
22901SOL    HW270478   2.876   8.646   8.144
22902SOL     OW70479   8.333   1.048  10.384
22902SOL    HW170480   8.252   1.038  10.434
22902SOL    HW270481   8.388   1.106  10.437
22903SOL     OW70482   8.651   2.353   5.009
22903SOL    HW170483   8.694   2.321   5.088
22903SOL    HW270484   8.591   2.283   4.984
22904SOL     OW70485   1.739   4.722   1.980
22904SOL    HW170486   1.669   4.772   2.022
22904SOL    HW270487   1.817   4.741   2.032
22905SOL     OW70488   2.427  14.786   1.541
22905SOL    HW170489   2.479  14.716   1.503
22905SOL    HW270490   2.381  14.745   1.614
22906SOL     OW70491   4.509   8.208   1.123
22906SOL    HW170492   4.567   8.247   1.058
22906SOL    HW270493   4.422   8.243   1.103
22907SOL     OW70494   5.827   8.158   2.575
22907SOL    HW170495   5.832   8.210   2.656
22907SOL    HW270496   5.918   8.133   2.558
22908SOL     OW70497   8.554  14.189   0.852
22908SOL    HW170498   8.584  14.233   0.931
22908SOL    HW270499   8.618  14.119   0.839
22909SOL     OW70500   3.130   3.550   7.917
22909SOL    HW170501   3.176   3.634   7.918
22909SOL    HW270502   3.038   3.572   7.935
22910SOL     OW70503  13.488   7.548   1.602
22910SOL    HW170504  13.579   7.523   1.620
22910SOL    HW270505  13.495   7.636   1.564
22911SOL     OW70506   7.848  10.298  10.519
22911SOL    HW170507   7.812  10.382  10.548
22911SOL    HW270508   7.773  10.240  10.513
22912SOL     OW70509   5.476  10.527   7.150
22912SOL    HW170510   5.424  10.476   7.087
22912SOL    HW270511   5.547  10.565   7.098
22913SOL     OW70512   0.176  10.876   7.301
22913SOL    HW170513   0.143  10.884   7.390
22913SOL    HW270514   0.103  10.838   7.252
22914SOL     OW70515  11.058   0.689  14.825
22914SOL    HW170516  11.011   0.621  14.776
22914SOL    HW270517  11.096   0.642   0.022
22915SOL     OW70518  11.449  10.097   5.311
22915SOL    HW170519  11.373  10.045   5.339
22915SOL    HW270520  11.525  10.049   5.344
22916SOL     OW70521   7.730   0.982   0.269
22916SOL    HW170522   7.731   0.948   0.359
22916SOL    HW270523   7.761   1.072   0.277
22917SOL     OW70524   4.157  14.249   2.606
22917SOL    HW170525   4.210  14.219   2.679
22917SOL    HW270526   4.081  14.190   2.606
22918SOL     OW70527   8.033  13.321  10.079
22918SOL    HW170528   8.104  13.371  10.037
22918SOL    HW270529   7.953  13.361  10.047
22919SOL     OW70530  14.875   9.699   4.873
22919SOL    HW170531  14.823   9.651   4.938
22919SOL    HW270532   0.083   9.710   4.915
22920SOL     OW70533   2.065  10.612  11.877
22920SOL    HW170534   1.979  10.627  11.838
22920SOL    HW270535   2.048  10.559  11.955
22921SOL     OW70536   0.900   7.853   8.514
22921SOL    HW170537   0.850   7.828   8.592
22921SOL    HW270538   0.862   7.935   8.485
22922SOL     OW70539   2.623   1.111  10.733
22922SOL    HW170540   2.684   1.087  10.802
22922SOL    HW270541   2.538   1.116  10.776
22923SOL     OW70542   4.079  12.196   4.999
22923SOL    HW170543   4.086  12.215   4.906
22923SOL    HW270544   3.992  12.226   5.024
22924SOL     OW70545   2.476   2.468  10.835
22924SOL    HW170546   2.533   2.543  10.852
22924SOL    HW270547   2.411   2.500  10.773
22925SOL     OW70548   4.477  12.755  13.812
22925SOL    HW170549   4.417  12.822  13.779
22925SOL    HW270550   4.457  12.678  13.760
22926SOL     OW70551   5.317   6.262   9.538
22926SOL    HW170552   5.372   6.203   9.589
22926SOL    HW270553   5.366   6.344   9.534
22927SOL     OW70554   3.921   6.429   6.161
22927SOL    HW170555   3.902   6.383   6.242
22927SOL    HW270556   3.918   6.522   6.184
22928SOL     OW70557   0.646  10.270  10.241
22928SOL    HW170558   0.562  10.309  10.266
22928SOL    HW270559   0.711  10.334  10.268
22929SOL     OW70560   7.622   8.810  10.979
22929SOL    HW170561   7.590   8.835  10.892
22929SOL    HW270562   7.714   8.788  10.964
22930SOL     OW70563   2.287  13.377   3.130
22930SOL    HW170564   2.285  13.472   3.118
22930SOL    HW270565   2.381  13.356   3.128
22931SOL     OW70566   4.591   9.164   5.763
22931SOL    HW170567   4.686   9.179   5.758
22931SOL    HW270568   4.552   9.246   5.734
22932SOL     OW70569   7.937  10.295   4.779
22932SOL    HW170570   7.947  10.310   4.685
22932SOL    HW270571   7.861  10.349   4.804
22933SOL     OW70572   2.234   5.159   6.316
22933SOL    HW170573   2.207   5.215   6.243
22933SOL    HW270574   2.318   5.196   6.344
22934SOL     OW70575   0.258   2.551  14.142
22934SOL    HW170576   0.282   2.617  14.206
22934SOL    HW270577   0.285   2.588  14.058
22935SOL     OW70578   5.107  12.418   9.884
22935SOL    HW170579   5.036  12.377   9.934
22935SOL    HW270580   5.165  12.345   9.862
22936SOL     OW70581  14.816   4.156   5.355
22936SOL    HW170582  14.776   4.224   5.302
22936SOL    HW270583  14.812   4.190   5.445
22937SOL     OW70584   8.015   9.012  11.552
22937SOL    HW170585   7.974   8.953  11.489
22937SOL    HW270586   8.083   8.959  11.594
22938SOL     OW70587   2.941  10.865  14.716
22938SOL    HW170588   3.013  10.921  14.687
22938SOL    HW270589   2.876  10.872  14.645
22939SOL     OW70590   1.304   0.139  14.498
22939SOL    HW170591   1.315   0.181  14.413
22939SOL    HW270592   1.328   0.048  14.483
22940SOL     OW70593  10.810  14.508  11.259
22940SOL    HW170594  10.852  14.435  11.216
22940SOL    HW270595  10.737  14.532  11.201
22941SOL     OW70596  13.990  13.754   0.670
22941SOL    HW170597  14.031  13.670   0.691
22941SOL    HW270598  13.916  13.760   0.730
22942SOL     OW70599   0.943   4.038   2.031
22942SOL    HW170600   0.857   3.996   2.033
22942SOL    HW270601   0.931   4.115   1.975
22943SOL     OW70602   9.194   8.160   8.797
22943SOL    HW170603   9.208   8.250   8.827
22943SOL    HW270604   9.241   8.156   8.713
22944SOL     OW70605   2.712  11.710   4.612
22944SOL    HW170606   2.798  11.697   4.572
22944SOL    HW270607   2.689  11.800   4.592
22945SOL     OW70608   7.645   9.447  10.933
22945SOL    HW170609   7.648   9.507  10.858
22945SOL    HW270610   7.606   9.498  11.004
22946SOL     OW70611  12.551   1.058  10.210
22946SOL    HW170612  12.572   0.965  10.209
22946SOL    HW270613  12.488   1.068  10.282
22947SOL     OW70614   4.403  14.308   8.144
22947SOL    HW170615   4.475  14.371   8.139
22947SOL    HW270616   4.344  14.333   8.072
22948SOL     OW70617  13.101  11.400   1.206
22948SOL    HW170618  13.121  11.445   1.287
22948SOL    HW270619  13.058  11.465   1.152
22949SOL     OW70620   8.918   2.821   8.139
22949SOL    HW170621   8.889   2.743   8.186
22949SOL    HW270622   8.856   2.889   8.165
22950SOL     OW70623  13.371   9.774   5.235
22950SOL    HW170624  13.371   9.842   5.168
22950SOL    HW270625  13.462   9.767   5.263
22951SOL     OW70626  10.744   0.041  11.923
22951SOL    HW170627  10.768  14.848  11.984
22951SOL    HW270628  10.723  14.873  11.841
22952SOL     OW70629   1.781  13.391   1.731
22952SOL    HW170630   1.705  13.435   1.771
22952SOL    HW270631   1.789  13.431   1.645
22953SOL     OW70632   4.306   2.915   8.859
22953SOL    HW170633   4.363   2.859   8.911
22953SOL    HW270634   4.220   2.872   8.863
22954SOL     OW70635   5.962   3.542   6.724
22954SOL    HW170636   5.877   3.551   6.681
22954SOL    HW270637   5.978   3.626   6.765
22955SOL     OW70638   2.888   6.073  11.281
22955SOL    HW170639   2.848   5.988  11.262
22955SOL    HW270640   2.931   6.061  11.366
22956SOL     OW70641  11.685  13.287   3.632
22956SOL    HW170642  11.630  13.235   3.574
22956SOL    HW270643  11.742  13.222   3.674
22957SOL     OW70644  10.012   8.309  14.462
22957SOL    HW170645  10.071   8.318  14.388
22957SOL    HW270646  10.051   8.363  14.531
22958SOL     OW70647  11.203   5.705   5.038
22958SOL    HW170648  11.289   5.743   5.018
22958SOL    HW270649  11.194   5.633   4.975
22959SOL     OW70650   0.514  13.076   9.234
22959SOL    HW170651   0.550  13.130   9.165
22959SOL    HW270652   0.438  13.125   9.266
22960SOL     OW70653   9.857   3.878  11.313
22960SOL    HW170654   9.773   3.858  11.272
22960SOL    HW270655   9.838   3.950  11.373
22961SOL     OW70656   7.200  10.920   3.214
22961SOL    HW170657   7.267  10.978   3.179
22961SOL    HW270658   7.118  10.957   3.183
22962SOL     OW70659   3.904  11.573   6.556
22962SOL    HW170660   3.967  11.609   6.493
22962SOL    HW270661   3.933  11.606   6.641
22963SOL     OW70662   5.197  14.700   0.581
22963SOL    HW170663   5.248  14.678   0.503
22963SOL    HW270664   5.135  14.627   0.590
22964SOL     OW70665   6.136   9.343  13.360
22964SOL    HW170666   6.199   9.321  13.291
22964SOL    HW270667   6.061   9.381  13.313
22965SOL     OW70668  12.783  10.440   7.199
22965SOL    HW170669  12.766  10.505   7.267
22965SOL    HW270670  12.856  10.388   7.233
22966SOL     OW70671  14.730   6.194   2.562
22966SOL    HW170672  14.636   6.175   2.566
22966SOL    HW270673  14.767   6.150   2.639
22967SOL     OW70674   3.369   9.990   3.234
22967SOL    HW170675   3.400  10.032   3.315
22967SOL    HW270676   3.279  10.020   3.225
22968SOL     OW70677   1.432   7.352  10.846
22968SOL    HW170678   1.455   7.402  10.767
22968SOL    HW270679   1.448   7.413  10.918
22969SOL     OW70680   2.547  13.044  11.609
22969SOL    HW170681   2.470  13.000  11.574
22969SOL    HW270682   2.601  13.063  11.532
22970SOL     OW70683   1.369  11.349  10.932
22970SOL    HW170684   1.419  11.304  10.863
22970SOL    HW270685   1.277  11.341  10.904
22971SOL     OW70686   3.186   4.022  13.004
22971SOL    HW170687   3.181   3.931  12.974
22971SOL    HW270688   3.097   4.042  13.034
22972SOL     OW70689  11.109   1.333  11.400
22972SOL    HW170690  11.073   1.246  11.383
22972SOL    HW270691  11.154   1.324  11.484
22973SOL     OW70692   2.689  13.264   7.453
22973SOL    HW170693   2.763  13.326   7.453
22973SOL    HW270694   2.730  13.178   7.456
22974SOL     OW70695   8.316   6.668   4.973
22974SOL    HW170696   8.258   6.724   5.025
22974SOL    HW270697   8.399   6.717   4.969
22975SOL     OW70698   4.813   4.856  14.812
22975SOL    HW170699   4.872   4.927  14.836
22975SOL    HW270700   4.815   4.796   0.009
22976SOL     OW70701   6.477   9.128   3.399
22976SOL    HW170702   6.400   9.171   3.436
22976SOL    HW270703   6.533   9.201   3.371
22977SOL     OW70704   5.170  13.211  14.298
22977SOL    HW170705   5.104  13.255  14.245
22977SOL    HW270706   5.165  13.252  14.384
22978SOL     OW70707  10.839   6.731   0.799
22978SOL    HW170708  10.839   6.636   0.808
22978SOL    HW270709  10.766   6.749   0.739
22979SOL     OW70710  14.326   0.871  12.970
22979SOL    HW170711  14.269   0.939  13.006
22979SOL    HW270712  14.281   0.839  12.892
22980SOL     OW70713  10.246   0.975  12.976
22980SOL    HW170714  10.262   0.897  13.029
22980SOL    HW270715  10.332   1.000  12.942
22981SOL     OW70716  10.834   4.190  13.779
22981SOL    HW170717  10.841   4.095  13.782
22981SOL    HW270718  10.867   4.214  13.693
22982SOL     OW70719   9.158   0.124   9.880
22982SOL    HW170720   9.066   0.103   9.866
22982SOL    HW270721   9.200   0.104   9.797
22983SOL     OW70722  11.357   7.360   6.980
22983SOL    HW170723  11.394   7.430   7.034
22983SOL    HW270724  11.410   7.361   6.900
22984SOL     OW70725   9.195   9.135   8.125
22984SOL    HW170726   9.267   9.191   8.094
22984SOL    HW270727   9.171   9.172   8.211
22985SOL     OW70728  10.149  13.964   1.305
22985SOL    HW170729  10.233  13.918   1.300
22985SOL    HW270730  10.137  13.983   1.398
22986SOL     OW70731  10.705  12.788  14.165
22986SOL    HW170732  10.787  12.767  14.210
22986SOL    HW270733  10.682  12.709  14.117
22987SOL     OW70734   1.442   7.682   3.101
22987SOL    HW170735   1.448   7.777   3.113
22987SOL    HW270736   1.348   7.663   3.111
22988SOL     OW70737   3.760   7.878   6.066
22988SOL    HW170738   3.682   7.900   6.117
22988SOL    HW270739   3.765   7.782   6.071
22989SOL     OW70740   4.007   5.577   4.883
22989SOL    HW170741   4.080   5.561   4.824
22989SOL    HW270742   4.006   5.502   4.942
22990SOL     OW70743   7.787   9.048   6.810
22990SOL    HW170744   7.732   9.117   6.773
22990SOL    HW270745   7.724   8.983   6.843
22991SOL     OW70746  10.851   6.774  13.755
22991SOL    HW170747  10.943   6.800  13.749
22991SOL    HW270748  10.824   6.802  13.842
22992SOL     OW70749  13.546   0.255  13.170
22992SOL    HW170750  13.484   0.263  13.242
22992SOL    HW270751  13.493   0.229  13.095
22993SOL     OW70752   1.258   7.432  13.597
22993SOL    HW170753   1.174   7.414  13.638
22993SOL    HW270754   1.294   7.506  13.648
22994SOL     OW70755   3.878   8.551   6.333
22994SOL    HW170756   3.894   8.489   6.262
22994SOL    HW270757   3.931   8.627   6.312
22995SOL     OW70758   4.948   9.909  11.487
22995SOL    HW170759   4.882   9.974  11.511
22995SOL    HW270760   5.025   9.933  11.538
22996SOL     OW70761   8.070   2.695   3.226
22996SOL    HW170762   8.088   2.789   3.231
22996SOL    HW270763   8.053   2.679   3.133
22997SOL     OW70764   0.234   7.727  12.663
22997SOL    HW170765   0.300   7.765  12.604
22997SOL    HW270766   0.180   7.801  12.688
22998SOL     OW70767   7.327   6.070   2.875
22998SOL    HW170768   7.322   6.165   2.865
22998SOL    HW270769   7.349   6.038   2.788
22999SOL     OW70770  11.143   7.506  11.157
22999SOL    HW170771  11.145   7.535  11.248
22999SOL    HW270772  11.167   7.414  11.159
23000SOL     OW70773   4.032  10.875   2.116
23000SOL    HW170774   4.112  10.875   2.063
23000SOL    HW270775   4.062  10.848   2.203
23001SOL     OW70776  14.262  13.788   8.553
23001SOL    HW170777  14.269  13.786   8.648
23001SOL    HW270778  14.320  13.718   8.523
23002SOL     OW70779   6.192   8.815   8.833
23002SOL    HW170780   6.204   8.749   8.765
23002SOL    HW270781   6.099   8.810   8.855
23003SOL     OW70782   6.497  11.837   7.163
23003SOL    HW170783   6.405  11.861   7.174
23003SOL    HW270784   6.502  11.747   7.195
23004SOL     OW70785  10.792  11.813   8.430
23004SOL    HW170786  10.871  11.852   8.391
23004SOL    HW270787  10.757  11.882   8.486
23005SOL     OW70788  14.870   0.602   9.867
23005SOL    HW170789   0.008   0.541   9.794
23005SOL    HW270790  14.858   0.545   9.943
23006SOL     OW70791  10.072   4.415   5.756
23006SOL    HW170792   9.988   4.450   5.786
23006SOL    HW270793  10.085   4.455   5.670
23007SOL     OW70794   0.743   8.605  10.372
23007SOL    HW170795   0.810   8.541  10.396
23007SOL    HW270796   0.765   8.630  10.283
23008SOL     OW70797   3.439   2.414   1.531
23008SOL    HW170798   3.513   2.464   1.564
23008SOL    HW270799   3.454   2.324   1.561
23009SOL     OW70800   3.279   0.581   5.709
23009SOL    HW170801   3.247   0.553   5.623
23009SOL    HW270802   3.256   0.509   5.768
23010SOL     OW70803   5.263  12.999   6.576
23010SOL    HW170804   5.250  12.980   6.669
23010SOL    HW270805   5.175  13.014   6.542
23011SOL     OW70806  12.502  10.085  13.338
23011SOL    HW170807  12.473  10.017  13.399
23011SOL    HW270808  12.573  10.129  13.385
23012SOL     OW70809   1.989  10.226   4.763
23012SOL    HW170810   2.025  10.242   4.851
23012SOL    HW270811   2.042  10.281   4.705
23013SOL     OW70812   2.208   9.652  11.033
23013SOL    HW170813   2.146   9.686  11.097
23013SOL    HW270814   2.179   9.562  11.017
23014SOL     OW70815   8.958   9.960  14.447
23014SOL    HW170816   9.053   9.965  14.461
23014SOL    HW270817   8.947   9.896  14.378
23015SOL     OW70818   4.768   3.827  11.804
23015SOL    HW170819   4.802   3.811  11.716
23015SOL    HW270820   4.824   3.896  11.839
23016SOL     OW70821   0.237   5.865  14.557
23016SOL    HW170822   0.296   5.938  14.577
23016SOL    HW270823   0.265   5.794  14.615
23017SOL     OW70824  13.212   4.940   3.448
23017SOL    HW170825  13.182   4.870   3.506
23017SOL    HW270826  13.134   4.991   3.429
23018SOL     OW70827  10.189  11.994  13.978
23018SOL    HW170828  10.235  12.013  13.897
23018SOL    HW270829  10.098  11.983  13.952
23019SOL     OW70830   2.555  14.576  11.645
23019SOL    HW170831   2.487  14.539  11.589
23019SOL    HW270832   2.568  14.510  11.713
23020SOL     OW70833   5.897   3.959  12.478
23020SOL    HW170834   5.984   3.985  12.507
23020SOL    HW270835   5.912   3.902  12.404
23021SOL     OW70836   1.139   8.798   6.209
23021SOL    HW170837   1.213   8.806   6.269
23021SOL    HW270838   1.073   8.750   6.260
23022SOL     OW70839   4.133  10.391   0.306
23022SOL    HW170840   4.046  10.359   0.328
23022SOL    HW270841   4.166  10.430   0.387
23023SOL     OW70842  10.302   2.440   2.331
23023SOL    HW170843  10.369   2.428   2.263
23023SOL    HW270844  10.325   2.524   2.372
23024SOL     OW70845   6.621   2.566   3.006
23024SOL    HW170846   6.691   2.628   2.984
23024SOL    HW270847   6.662   2.480   2.994
23025SOL     OW70848   8.639   9.456   6.130
23025SOL    HW170849   8.678   9.513   6.196
23025SOL    HW270850   8.574   9.405   6.178
23026SOL     OW70851  11.546   9.611  13.243
23026SOL    HW170852  11.543   9.707  13.242
23026SOL    HW270853  11.640   9.590  13.242
23027SOL     OW70854  12.709   5.922   3.968
23027SOL    HW170855  12.731   6.015   3.977
23027SOL    HW270856  12.792   5.880   3.942
23028SOL     OW70857  12.092   2.768  11.949
23028SOL    HW170858  12.106   2.830  12.021
23028SOL    HW270859  12.159   2.791  11.884
23029SOL     OW70860   7.238  13.317   1.093
23029SOL    HW170861   7.224  13.366   1.012
23029SOL    HW270862   7.178  13.357   1.156
23030SOL     OW70863  10.890  14.750   1.412
23030SOL    HW170864  10.859  14.821   1.467
23030SOL    HW270865  10.867  14.777   1.323
23031SOL     OW70866  11.659   0.414  11.948
23031SOL    HW170867  11.572   0.418  11.908
23031SOL    HW270868  11.641   0.410  12.042
23032SOL     OW70869   3.579   1.149   8.729
23032SOL    HW170870   3.530   1.184   8.654
23032SOL    HW270871   3.552   1.057   8.734
23033SOL     OW70872   9.056   9.292  13.650
23033SOL    HW170873   9.131   9.233  13.642
23033SOL    HW270874   9.019   9.272  13.736
23034SOL     OW70875   0.548  12.949   1.265
23034SOL    HW170876   0.571  13.038   1.241
23034SOL    HW270877   0.628  12.913   1.303
23035SOL     OW70878   4.673   8.176   1.345
23035SOL    HW170879   4.611   8.197   1.274
23035SOL    HW270880   4.622   8.121   1.405
23036SOL     OW70881  14.087   3.932   1.847
23036SOL    HW170882  14.120   3.977   1.925
23036SOL    HW270883  14.100   3.839   1.865
23037SOL     OW70884   6.839   5.541   2.096
23037SOL    HW170885   6.832   5.463   2.150
23037SOL    HW270886   6.929   5.541   2.064
23038SOL     OW70887   4.910   5.790  12.988
23038SOL    HW170888   4.834   5.798  12.929
23038SOL    HW270889   4.896   5.859  13.053
23039SOL     OW70890   5.015  14.568   3.538
23039SOL    HW170891   4.977  14.482   3.558
23039SOL    HW270892   5.038  14.563   3.445
23040SOL     OW70893  14.384  14.127   3.594
23040SOL    HW170894  14.454  14.180   3.631
23040SOL    HW270895  14.388  14.145   3.500
23041SOL     OW70896   9.833   2.400   9.877
23041SOL    HW170897   9.798   2.480   9.916
23041SOL    HW270898   9.768   2.333   9.898
23042SOL     OW70899  14.141   1.800  13.111
23042SOL    HW170900  14.052   1.832  13.100
23042SOL    HW270901  14.177   1.851  13.184
23043SOL     OW70902  12.053   2.473  10.739
23043SOL    HW170903  11.999   2.504  10.812
23043SOL    HW270904  12.019   2.520  10.663
23044SOL     OW70905   2.070   6.271  13.077
23044SOL    HW170906   2.132   6.310  13.016
23044SOL    HW270907   2.024   6.346  13.115
23045SOL     OW70908  14.591   4.193   1.658
23045SOL    HW170909  14.527   4.137   1.701
23045SOL    HW270910  14.635   4.136   1.596
23046SOL     OW70911   2.124   9.939   0.406
23046SOL    HW170912   2.219   9.949   0.413
23046SOL    HW270913   2.092  10.026   0.383
23047SOL     OW70914   1.790  13.600  12.512
23047SOL    HW170915   1.700  13.575  12.530
23047SOL    HW270916   1.790  13.628  12.421
23048SOL     OW70917  11.036   4.442  11.440
23048SOL    HW170918  10.977   4.376  11.404
23048SOL    HW270919  11.118   4.395  11.454
23049SOL     OW70920   4.667  13.823  13.160
23049SOL    HW170921   4.736  13.756  13.155
23049SOL    HW270922   4.617  13.800  13.238
23050SOL     OW70923  10.239   0.354  12.153
23050SOL    HW170924  10.261   0.317  12.239
23050SOL    HW270925  10.216   0.278  12.099
23051SOL     OW70926   5.117   1.122  11.265
23051SOL    HW170927   5.064   1.084  11.194
23051SOL    HW270928   5.109   1.060  11.337
23052SOL     OW70929   8.322  12.918   7.178
23052SOL    HW170930   8.261  12.930   7.105
23052SOL    HW270931   8.282  12.967   7.251
23053SOL     OW70932  11.428  13.456  13.140
23053SOL    HW170933  11.343  13.464  13.096
23053SOL    HW270934  11.407  13.420  13.226
23054SOL     OW70935  13.817  12.019  12.765
23054SOL    HW170936  13.836  12.069  12.844
23054SOL    HW270937  13.838  11.929  12.787
23055SOL     OW70938   2.561  14.678  12.720
23055SOL    HW170939   2.584  14.747  12.782
23055SOL    HW270940   2.486  14.634  12.759
23056SOL     OW70941   4.068  10.656   2.824
23056SOL    HW170942   4.104  10.595   2.760
23056SOL    HW270943   4.117  10.639   2.904
23057SOL     OW70944  10.725   3.977   0.621
23057SOL    HW170945  10.722   4.048   0.558
23057SOL    HW270946  10.810   3.935   0.606
23058SOL     OW70947   9.210   5.819   5.109
23058SOL    HW170948   9.204   5.747   5.046
23058SOL    HW270949   9.173   5.785   5.190
23059SOL     OW70950  12.678   9.850  12.156
23059SOL    HW170951  12.754   9.808  12.195
23059SOL    HW270952  12.674   9.936  12.198
23060SOL     OW70953   0.146  12.932  14.665
23060SOL    HW170954   0.081  12.871  14.629
23060SOL    HW270955   0.139  13.010  14.610
23061SOL     OW70956   6.214   9.203   4.771
23061SOL    HW170957   6.162   9.185   4.693
23061SOL    HW270958   6.297   9.236   4.737
23062SOL     OW70959   5.036   6.848   9.718
23062SOL    HW170960   5.064   6.843   9.626
23062SOL    HW270961   4.948   6.810   9.717
23063SOL     OW70962   7.872   6.999   9.549
23063SOL    HW170963   7.809   7.056   9.593
23063SOL    HW270964   7.938   7.059   9.515
23064SOL     OW70965  11.706   7.112   5.070
23064SOL    HW170966  11.730   7.062   4.991
23064SOL    HW270967  11.669   7.194   5.036
23065SOL     OW70968   7.098   3.342   5.862
23065SOL    HW170969   7.060   3.254   5.858
23065SOL    HW270970   7.110   3.367   5.770
23066SOL     OW70971   8.329  10.552  12.267
23066SOL    HW170972   8.386  10.604  12.210
23066SOL    HW270973   8.367  10.563  12.354
23067SOL     OW70974  11.914   9.795   0.925
23067SOL    HW170975  11.934   9.720   0.981
23067SOL    HW270976  11.940   9.871   0.978
23068SOL     OW70977  13.121   6.781  12.039
23068SOL    HW170978  13.158   6.707  11.992
23068SOL    HW270979  13.163   6.779  12.125
23069SOL     OW70980   8.219   2.807   2.717
23069SOL    HW170981   8.145   2.857   2.683
23069SOL    HW270982   8.243   2.852   2.798
23070SOL     OW70983   6.298   2.216   7.198
23070SOL    HW170984   6.212   2.258   7.204
23070SOL    HW270985   6.358   2.279   7.239
23071SOL     OW70986   9.358   2.066   9.505
23071SOL    HW170987   9.343   2.147   9.456
23071SOL    HW270988   9.324   1.997   9.449
23072SOL     OW70989   5.926   2.192   9.008
23072SOL    HW170990   5.916   2.212   9.101
23072SOL    HW270991   5.977   2.112   9.006
23073SOL     OW70992  11.691   5.473   2.400
23073SOL    HW170993  11.763   5.440   2.347
23073SOL    HW270994  11.733   5.517   2.474
23074SOL     OW70995   6.341   2.368   6.425
23074SOL    HW170996   6.431   2.335   6.423
23074SOL    HW270997   6.344   2.441   6.487
23075SOL     OW70998   7.922  12.221  14.561
23075SOL    HW170999   7.838  12.227  14.606
23075SOL    HW271000   7.929  12.302  14.511
23076SOL     OW71001   4.202  10.609  14.226
23076SOL    HW171002   4.158  10.553  14.162
23076SOL    HW271003   4.147  10.686  14.233
23077SOL     OW71004  11.605   6.336   3.141
23077SOL    HW171005  11.597   6.419   3.187
23077SOL    HW271006  11.566   6.272   3.200
23078SOL     OW71007  10.015   2.626  12.815
23078SOL    HW171008  10.022   2.624  12.720
23078SOL    HW271009   9.951   2.695  12.833
23079SOL     OW71010   7.154   8.462  14.533
23079SOL    HW171011   7.167   8.420  14.448
23079SOL    HW271012   7.205   8.408  14.594
23080SOL     OW71013   3.481  12.223  12.981
23080SOL    HW171014   3.414  12.262  13.035
23080SOL    HW271015   3.453  12.132  12.969
23081SOL     OW71016  13.834  14.518   9.534
23081SOL    HW171017  13.891  14.464   9.590
23081SOL    HW271018  13.746  14.499   9.566
23082SOL     OW71019   7.226  14.138   7.041
23082SOL    HW171020   7.133  14.150   7.062
23082SOL    HW271021   7.265  14.225   7.052
23083SOL     OW71022  13.383   3.757   6.064
23083SOL    HW171023  13.329   3.714   6.130
23083SOL    HW271024  13.456   3.796   6.114
23084SOL     OW71025  10.628   2.368   8.414
23084SOL    HW171026  10.557   2.307   8.395
23084SOL    HW271027  10.614   2.394   8.505
23085SOL     OW71028   8.299   2.367   0.502
23085SOL    HW171029   8.349   2.448   0.510
23085SOL    HW271030   8.351   2.301   0.548
23086SOL     OW71031   2.668   5.019  14.279
23086SOL    HW171032   2.623   4.935  14.280
23086SOL    HW271033   2.611   5.075  14.225
23087SOL     OW71034  10.690   6.919  10.826
23087SOL    HW171035  10.604   6.878  10.819
23087SOL    HW271036  10.718   6.899  10.915
23088SOL     OW71037   5.328   2.247   4.224
23088SOL    HW171038   5.420   2.243   4.196
23088SOL    HW271039   5.319   2.333   4.263
23089SOL     OW71040  12.534   8.885   9.965
23089SOL    HW171041  12.516   8.840   9.882
23089SOL    HW271042  12.544   8.977   9.941
23090SOL     OW71043   2.411   8.059   1.287
23090SOL    HW171044   2.431   8.031   1.376
23090SOL    HW271045   2.468   8.134   1.272
23091SOL     OW71046   5.659   3.680  10.625
23091SOL    HW171047   5.660   3.719  10.538
23091SOL    HW271048   5.571   3.699  10.659
23092SOL     OW71049  11.664   7.751  13.821
23092SOL    HW171050  11.690   7.840  13.844
23092SOL    HW271051  11.655   7.706  13.905
23093SOL     OW71052   1.153   1.652  11.055
23093SOL    HW171053   1.226   1.706  11.024
23093SOL    HW271054   1.122   1.697  11.134
23094SOL     OW71055   2.196   7.327   6.377
23094SOL    HW171056   2.277   7.279   6.360
23094SOL    HW271057   2.174   7.306   6.468
23095SOL     OW71058   8.490   9.595   8.674
23095SOL    HW171059   8.479   9.690   8.684
23095SOL    HW271060   8.578   9.577   8.707
23096SOL     OW71061   5.310   0.556   7.512
23096SOL    HW171062   5.241   0.544   7.447
23096SOL    HW271063   5.390   0.529   7.467
23097SOL     OW71064   4.010   2.304   6.420
23097SOL    HW171065   3.987   2.343   6.335
23097SOL    HW271066   4.066   2.230   6.398
23098SOL     OW71067   8.565   3.690   1.937
23098SOL    HW171068   8.520   3.606   1.937
23098SOL    HW271069   8.641   3.676   1.880
23099SOL     OW71070   2.603   0.249  11.201
23099SOL    HW171071   2.694   0.223  11.213
23099SOL    HW271072   2.608   0.335  11.158
23100SOL     OW71073   4.303   2.272  10.131
23100SOL    HW171074   4.290   2.189  10.176
23100SOL    HW271075   4.395   2.295  10.149
23101SOL     OW71076  14.326   0.779   7.531
23101SOL    HW171077  14.374   0.772   7.614
23101SOL    HW271078  14.320   0.690   7.498
23102SOL     OW71079   8.438   1.032  13.192
23102SOL    HW171080   8.417   1.058  13.282
23102SOL    HW271081   8.530   1.005  13.196
23103SOL     OW71082   3.295  12.352  13.168
23103SOL    HW171083   3.222  12.398  13.128
23103SOL    HW271084   3.281  12.363  13.262
23104SOL     OW71085   1.191  10.278  10.907
23104SOL    HW171086   1.216  10.362  10.947
23104SOL    HW271087   1.115  10.299  10.853
23105SOL     OW71088  14.012  12.210   5.406
23105SOL    HW171089  14.040  12.254   5.326
23105SOL    HW271090  14.071  12.244   5.473
23106SOL     OW71091  11.414   3.033   6.814
23106SOL    HW171092  11.490   3.027   6.756
23106SOL    HW271093  11.423   3.119   6.856
23107SOL     OW71094   9.036   9.052   5.841
23107SOL    HW171095   8.947   9.071   5.872
23107SOL    HW271096   9.025   8.976   5.783
23108SOL     OW71097   0.089  13.819  10.905
23108SOL    HW171098   0.012  13.860  10.943
23108SOL    HW271099   0.163  13.873  10.933
23109SOL     OW71100  11.978  12.011   5.669
23109SOL    HW171101  11.920  12.078   5.632
23109SOL    HW271102  12.064  12.054   5.674
23110SOL     OW71103   8.235  12.749  14.449
23110SOL    HW171104   8.238  12.807  14.525
23110SOL    HW271105   8.172  12.790  14.390
23111SOL     OW71106  12.311   5.906  14.213
23111SOL    HW171107  12.346   5.966  14.279
23111SOL    HW271108  12.323   5.953  14.130
23112SOL     OW71109   5.407  14.084  10.127
23112SOL    HW171110   5.461  14.140  10.183
23112SOL    HW271111   5.334  14.057  10.183
23113SOL     OW71112   3.581  14.658  10.648
23113SOL    HW171113   3.487  14.662  10.664
23113SOL    HW271114   3.603  14.744  10.610
23114SOL     OW71115  13.543   8.182  13.485
23114SOL    HW171116  13.483   8.136  13.543
23114SOL    HW271117  13.609   8.221  13.543
23115SOL     OW71118   5.353   0.128   1.771
23115SOL    HW171119   5.367   0.220   1.751
23115SOL    HW271120   5.258   0.118   1.773
23116SOL     OW71121  12.208   6.572  12.417
23116SOL    HW171122  12.130   6.529  12.383
23116SOL    HW271123  12.267   6.499  12.440
23117SOL     OW71124  11.338   8.047  14.777
23117SOL    HW171125  11.299   8.129  14.747
23117SOL    HW271126  11.263   7.991  14.795
23118SOL     OW71127   3.773   8.994  11.625
23118SOL    HW171128   3.781   8.900  11.612
23118SOL    HW271129   3.863   9.026  11.620
23119SOL     OW71130   1.336   7.377  13.322
23119SOL    HW171131   1.289   7.304  13.280
23119SOL    HW271132   1.284   7.398  13.399
23120SOL     OW71133   0.909  11.037   9.049
23120SOL    HW171134   0.842  10.994   9.102
23120SOL    HW271135   0.965  10.966   9.019
23121SOL     OW71136   4.501   7.853   8.514
23121SOL    HW171137   4.554   7.855   8.593
23121SOL    HW271138   4.555   7.806   8.450
23122SOL     OW71139   7.567   2.729  12.281
23122SOL    HW171140   7.661   2.741  12.266
23122SOL    HW271141   7.545   2.649  12.233
23123SOL     OW71142  10.495  11.814   3.424
23123SOL    HW171143  10.482  11.870   3.501
23123SOL    HW271144  10.434  11.742   3.435
23124SOL     OW71145   0.398   2.696   6.633
23124SOL    HW171146   0.321   2.679   6.687
23124SOL    HW271147   0.373   2.667   6.545
23125SOL     OW71148   9.254   9.845   0.507
23125SOL    HW171149   9.165   9.820   0.533
23125SOL    HW271150   9.298   9.762   0.490
23126SOL     OW71151   8.525  12.467   7.638
23126SOL    HW171152   8.464  12.396   7.618
23126SOL    HW271153   8.607  12.441   7.596
23127SOL     OW71154  14.623   0.446  10.445
23127SOL    HW171155  14.678   0.478  10.517
23127SOL    HW271156  14.672   0.373  10.408
23128SOL     OW71157  13.668  12.008   7.743
23128SOL    HW171158  13.726  11.973   7.810
23128SOL    HW271159  13.707  11.978   7.660
23129SOL     OW71160   8.999  13.884   5.793
23129SOL    HW171161   9.009  13.948   5.723
23129SOL    HW271162   9.083  13.885   5.838
23130SOL     OW71163  11.701   4.708   4.107
23130SOL    HW171164  11.733   4.749   4.027
23130SOL    HW271165  11.678   4.781   4.164
23131SOL     OW71166   8.609   5.247  10.255
23131SOL    HW171167   8.521   5.231  10.288
23131SOL    HW271168   8.596   5.274  10.164
23132SOL     OW71169   3.156  13.688   8.264
23132SOL    HW171170   3.229  13.672   8.205
23132SOL    HW271171   3.198  13.712   8.347
23133SOL     OW71172  10.753   8.702  10.459
23133SOL    HW171173  10.828   8.658  10.499
23133SOL    HW271174  10.716   8.637  10.399
23134SOL     OW71175  10.488   5.160  12.977
23134SOL    HW171176  10.437   5.151  12.896
23134SOL    HW271177  10.428   5.130  13.045
23135SOL     OW71178   1.063  10.820  11.933
23135SOL    HW171179   1.148  10.782  11.957
23135SOL    HW271180   1.002  10.747  11.938
23136SOL     OW71181   7.265   0.769   0.720
23136SOL    HW171182   7.287   0.676   0.726
23136SOL    HW271183   7.335   0.813   0.769
23137SOL     OW71184   3.711   8.994  14.251
23137SOL    HW171185   3.718   9.087  14.230
23137SOL    HW271186   3.627   8.968  14.215
23138SOL     OW71187  11.276  12.618   3.737
23138SOL    HW171188  11.358  12.664   3.752
23138SOL    HW271189  11.268  12.614   3.641
23139SOL     OW71190   7.068   0.868  13.573
23139SOL    HW171191   6.975   0.886  13.587
23139SOL    HW271192   7.093   0.926  13.502
23140SOL     OW71193   0.790   6.767   4.698
23140SOL    HW171194   0.739   6.739   4.622
23140SOL    HW271195   0.779   6.862   4.702
23141SOL     OW71196   4.603   6.993   4.266
23141SOL    HW171197   4.510   7.005   4.243
23141SOL    HW271198   4.630   7.079   4.299
23142SOL     OW71199   8.216   8.271   5.913
23142SOL    HW171200   8.218   8.249   6.007
23142SOL    HW271201   8.274   8.346   5.906
23143SOL     OW71202   4.134   1.050   2.066
23143SOL    HW171203   4.148   0.965   2.108
23143SOL    HW271204   4.213   1.100   2.087
23144SOL     OW71205   2.248   2.774  11.286
23144SOL    HW171206   2.255   2.837  11.357
23144SOL    HW271207   2.328   2.787  11.235
23145SOL     OW71208   0.894   5.424   2.690
23145SOL    HW171209   0.840   5.355   2.652
23145SOL    HW271210   0.934   5.468   2.615
23146SOL     OW71211  10.145   4.477  10.732
23146SOL    HW171212  10.193   4.484  10.815
23146SOL    HW271213  10.185   4.542  10.675
23147SOL     OW71214   4.700   7.766   4.679
23147SOL    HW171215   4.746   7.838   4.637
23147SOL    HW271216   4.720   7.690   4.626
23148SOL     OW71217  12.839   4.231   7.588
23148SOL    HW171218  12.744   4.226   7.600
23148SOL    HW271219  12.849   4.263   7.498
23149SOL     OW71220   1.669   8.098   4.518
23149SOL    HW171221   1.616   8.018   4.521
23149SOL    HW271222   1.606   8.167   4.499
23150SOL     OW71223   6.279  10.078   9.753
23150SOL    HW171224   6.194  10.034   9.752
23150SOL    HW271225   6.321  10.052   9.671
23151SOL     OW71226   1.328   4.649   1.064
23151SOL    HW171227   1.279   4.579   1.106
23151SOL    HW271228   1.286   4.660   0.978
23152SOL     OW71229   3.662   2.377   6.797
23152SOL    HW171230   3.709   2.387   6.714
23152SOL    HW271231   3.572   2.402   6.776
23153SOL     OW71232  13.448  10.361  10.089
23153SOL    HW171233  13.484  10.275  10.068
23153SOL    HW271234  13.420  10.397  10.005
23154SOL     OW71235   9.651   0.887   8.821
23154SOL    HW171236   9.669   0.794   8.829
23154SOL    HW271237   9.563   0.898   8.857
23155SOL     OW71238   3.069  13.992   5.030
23155SOL    HW171239   3.021  14.055   5.083
23155SOL    HW271240   3.046  14.014   4.939
23156SOL     OW71241   6.872   6.532   0.378
23156SOL    HW171242   6.803   6.514   0.442
23156SOL    HW271243   6.950   6.549   0.431
23157SOL     OW71244   3.342   8.541   0.076
23157SOL    HW171245   3.286   8.599   0.025
23157SOL    HW271246   3.290   8.461   0.088
23158SOL     OW71247   0.719  13.132  11.520
23158SOL    HW171248   0.634  13.100  11.489
23158SOL    HW271249   0.698  13.185  11.597
23159SOL     OW71250   2.870   0.296  11.051
23159SOL    HW171251   2.839   0.214  11.014
23159SOL    HW271252   2.875   0.356  10.976
23160SOL     OW71253  13.667   4.818   9.737
23160SOL    HW171254  13.660   4.912   9.755
23160SOL    HW271255  13.583   4.795   9.698
23161SOL     OW71256   5.816   0.958  13.961
23161SOL    HW171257   5.844   0.884  14.014
23161SOL    HW271258   5.807   0.922  13.873
23162SOL     OW71259  14.586   3.420   1.796
23162SOL    HW171260  14.503   3.437   1.751
23162SOL    HW271261  14.650   3.470   1.746
23163SOL     OW71262   8.829  13.179  12.096
23163SOL    HW171263   8.846  13.268  12.127
23163SOL    HW271264   8.833  13.124  12.175
23164SOL     OW71265   2.880   9.173   3.036
23164SOL    HW171266   2.966   9.171   3.077
23164SOL    HW271267   2.856   9.266   3.034
23165SOL     OW71268   4.980  14.823   8.082
23165SOL    HW171269   5.013   0.033   8.062
23165SOL    HW271270   5.054  14.765   8.063
23166SOL     OW71271  10.039   7.684  10.414
23166SOL    HW171272  10.076   7.629  10.344
23166SOL    HW271273   9.997   7.757  10.368
23167SOL     OW71274   3.295   4.329   5.336
23167SOL    HW171275   3.379   4.286   5.352
23167SOL    HW271276   3.296   4.348   5.242
23168SOL     OW71277   0.793  14.466   1.685
23168SOL    HW171278   0.809  14.481   1.778
23168SOL    HW271279   0.771  14.373   1.678
23169SOL     OW71280   2.774   9.732  13.024
23169SOL    HW171281   2.800   9.713  13.114
23169SOL    HW271282   2.852   9.711  12.972
23170SOL     OW71283  10.254   2.068   9.661
23170SOL    HW171284  10.269   2.013   9.739
23170SOL    HW271285  10.332   2.123   9.656
23171SOL     OW71286  12.253   6.745   3.394
23171SOL    HW171287  12.315   6.771   3.462
23171SOL    HW271288  12.218   6.661   3.425
23172SOL     OW71289  10.484   6.399  14.115
23172SOL    HW171290  10.561   6.383  14.169
23172SOL    HW271291  10.414   6.350  14.159
23173SOL     OW71292   7.929   1.872   3.993
23173SOL    HW171293   7.905   1.930   4.066
23173SOL    HW271294   7.867   1.895   3.924
23174SOL     OW71295   6.656   8.900   7.339
23174SOL    HW171296   6.674   8.987   7.373
23174SOL    HW271297   6.740   8.868   7.306
23175SOL     OW71298   3.493   0.516  13.078
23175SOL    HW171299   3.507   0.609  13.059
23175SOL    HW271300   3.565   0.471  13.034
23176SOL     OW71301   9.815   6.527  11.463
23176SOL    HW171302   9.724   6.556  11.455
23176SOL    HW271303   9.822   6.453  11.403
23177SOL     OW71304   9.936   4.743   6.094
23177SOL    HW171305   9.938   4.692   6.013
23177SOL    HW271306  10.022   4.785   6.098
23178SOL     OW71307   9.040  14.475   3.370
23178SOL    HW171308   9.029  14.509   3.281
23178SOL    HW271309   9.001  14.542   3.426
23179SOL     OW71310   1.948   2.811   8.991
23179SOL    HW171311   1.908   2.896   9.010
23179SOL    HW271312   1.887   2.747   9.029
23180SOL     OW71313  12.763  12.604   2.978
23180SOL    HW171314  12.673  12.588   2.952
23180SOL    HW271315  12.757  12.673   3.044
23181SOL     OW71316   6.113   6.061  11.266
23181SOL    HW171317   6.109   6.141  11.318
23181SOL    HW271318   6.151   5.996  11.325
23182SOL     OW71319   8.115  11.292  14.409
23182SOL    HW171320   8.025  11.303  14.379
23182SOL    HW271321   8.167  11.343  14.347
23183SOL     OW71322  12.940   8.319  12.683
23183SOL    HW171323  12.996   8.296  12.757
23183SOL    HW271324  12.982   8.396  12.645
23184SOL     OW71325   7.670   6.345   0.203
23184SOL    HW171326   7.733   6.310   0.266
23184SOL    HW271327   7.689   6.299   0.121
23185SOL     OW71328  10.903   0.680   3.049
23185SOL    HW171329  10.846   0.662   3.124
23185SOL    HW271330  10.975   0.731   3.086
23186SOL     OW71331  12.810   1.253   9.191
23186SOL    HW171332  12.715   1.267   9.194
23186SOL    HW271333  12.844   1.313   9.257
23187SOL     OW71334  13.334   0.692   5.357
23187SOL    HW171335  13.419   0.681   5.313
23187SOL    HW271336  13.353   0.752   5.429
23188SOL     OW71337  13.469   9.059   5.466
23188SOL    HW171338  13.397   9.102   5.420
23188SOL    HW271339  13.524   9.023   5.397
23189SOL     OW71340   0.469  14.001   3.012
23189SOL    HW171341   0.380  14.002   3.049
23189SOL    HW271342   0.509  13.923   3.051
23190SOL     OW71343  14.188   9.178   4.669
23190SOL    HW171344  14.094   9.197   4.673
23190SOL    HW271345  14.206   9.126   4.747
23191SOL     OW71346   3.395   1.078  10.393
23191SOL    HW171347   3.476   1.027  10.400
23191SOL    HW271348   3.377   1.079  10.299
23192SOL     OW71349   0.262  12.393   3.405
23192SOL    HW171350   0.344  12.442   3.404
23192SOL    HW271351   0.238  12.389   3.498
23193SOL     OW71352   2.111   8.394   7.499
23193SOL    HW171353   2.053   8.397   7.423
23193SOL    HW271354   2.102   8.305   7.533
23194SOL     OW71355  11.546   4.358   0.929
23194SOL    HW171356  11.525   4.266   0.915
23194SOL    HW271357  11.466   4.395   0.966
23195SOL     OW71358  10.032  10.950   8.583
23195SOL    HW171359  10.125  10.960   8.562
23195SOL    HW271360  10.030  10.924   8.675
23196SOL     OW71361  13.486   0.839   8.143
23196SOL    HW171362  13.566   0.825   8.193
23196SOL    HW271363  13.513   0.837   8.052
23197SOL     OW71364  13.771   6.125   5.798
23197SOL    HW171365  13.702   6.104   5.861
23197SOL    HW271366  13.767   6.055   5.733
23198SOL     OW71367  14.650   0.789   7.753
23198SOL    HW171368  14.642   0.702   7.715
23198SOL    HW271369  14.563   0.808   7.788
23199SOL     OW71370   7.480   0.314   1.930
23199SOL    HW171371   7.433   0.336   1.849
23199SOL    HW271372   7.423   0.251   1.974
23200SOL     OW71373   7.958   8.470   0.470
23200SOL    HW171374   8.007   8.395   0.437
23200SOL    HW271375   7.971   8.468   0.565
23201SOL     OW71376   7.707   7.648   0.377
23201SOL    HW171377   7.624   7.614   0.410
23201SOL    HW271378   7.701   7.637   0.282
23202SOL     OW71379   3.254   2.403   9.247
23202SOL    HW171380   3.171   2.408   9.199
23202SOL    HW271381   3.258   2.312   9.277
23203SOL     OW71382   9.873   7.923  12.188
23203SOL    HW171383   9.831   7.950  12.269
23203SOL    HW271384   9.805   7.930  12.121
23204SOL     OW71385   6.444   5.436  13.870
23204SOL    HW171386   6.441   5.432  13.965
23204SOL    HW271387   6.362   5.397  13.841
23205SOL     OW71388   4.147   4.377  11.347
23205SOL    HW171389   4.112   4.304  11.399
23205SOL    HW271390   4.241   4.378  11.367
23206SOL     OW71391   6.881   9.334   7.345
23206SOL    HW171392   6.967   9.298   7.321
23206SOL    HW271393   6.832   9.260   7.379
23207SOL     OW71394   7.730   6.989  14.354
23207SOL    HW171395   7.702   7.047  14.425
23207SOL    HW271396   7.650   6.947  14.324
23208SOL     OW71397  10.149   1.634   0.025
23208SOL    HW171398  10.179   1.659   0.112
23208SOL    HW271399  10.064   1.677   0.015
23209SOL     OW71400   1.548   5.641  14.519
23209SOL    HW171401   1.579   5.731  14.504
23209SOL    HW271402   1.620   5.586  14.487
23210SOL     OW71403   6.982   6.787   5.524
23210SOL    HW171404   6.986   6.830   5.609
23210SOL    HW271405   6.924   6.712   5.537
23211SOL     OW71406   4.867   5.541   6.618
23211SOL    HW171407   4.927   5.468   6.636
23211SOL    HW271408   4.917   5.619   6.642
23212SOL     OW71409  10.795   8.596   6.265
23212SOL    HW171410  10.825   8.681   6.297
23212SOL    HW271411  10.875   8.547   6.248
23213SOL     OW71412   2.417  11.962   4.779
23213SOL    HW171413   2.498  11.977   4.731
23213SOL    HW271414   2.440  11.979   4.871
23214SOL     OW71415   6.278   4.819   6.431
23214SOL    HW171416   6.279   4.726   6.405
23214SOL    HW271417   6.351   4.858   6.384
23215SOL     OW71418   7.296  10.480   6.826
23215SOL    HW171419   7.260  10.526   6.902
23215SOL    HW271420   7.388  10.468   6.846
23216SOL     OW71421   5.665  12.652   0.910
23216SOL    HW171422   5.616  12.605   0.842
23216SOL    HW271423   5.740  12.596   0.929
23217SOL     OW71424   8.171   3.937   7.068
23217SOL    HW171425   8.233   3.877   7.111
23217SOL    HW271426   8.085   3.904   7.095
23218SOL     OW71427   3.014   8.556   3.818
23218SOL    HW171428   3.032   8.499   3.892
23218SOL    HW271429   3.078   8.530   3.751
23219SOL     OW71430  11.934   1.813   0.368
23219SOL    HW171431  11.950   1.902   0.400
23219SOL    HW271432  11.850   1.788   0.407
23220SOL     OW71433   3.015   6.217  12.380
23220SOL    HW171434   3.018   6.122  12.369
23220SOL    HW271435   3.100   6.247  12.349
23221SOL     OW71436  12.316  14.189   0.018
23221SOL    HW171437  12.408  14.199  14.873
23221SOL    HW271438  12.278  14.276   0.005
23222SOL     OW71439   7.905  12.404  13.549
23222SOL    HW171440   7.960  12.336  13.510
23222SOL    HW271441   7.922  12.482  13.496
23223SOL     OW71442   5.618   1.102   6.710
23223SOL    HW171443   5.700   1.074   6.752
23223SOL    HW271444   5.567   1.140   6.782
23224SOL     OW71445   3.015   0.786  12.948
23224SOL    HW171446   3.039   0.698  12.918
23224SOL    HW271447   3.077   0.804  13.018
23225SOL     OW71448   9.729   5.683   8.867
23225SOL    HW171449   9.725   5.667   8.961
23225SOL    HW271450   9.785   5.759   8.857
23226SOL     OW71451   1.182  11.760   3.494
23226SOL    HW171452   1.107  11.701   3.488
23226SOL    HW271453   1.169  11.823   3.424
23227SOL     OW71454   1.931   8.595   9.567
23227SOL    HW171455   1.986   8.527   9.606
23227SOL    HW271456   1.846   8.586   9.612
23228SOL     OW71457  11.280  12.297   8.788
23228SOL    HW171458  11.228  12.226   8.827
23228SOL    HW271459  11.260  12.373   8.842
23229SOL     OW71460   8.086   7.169   6.174
23229SOL    HW171461   8.069   7.098   6.236
23229SOL    HW271462   8.159   7.218   6.214
23230SOL     OW71463  12.294  13.793   8.440
23230SOL    HW171464  12.199  13.797   8.434
23230SOL    HW271465  12.325  13.863   8.382
23231SOL     OW71466   1.670   0.887  11.080
23231SOL    HW171467   1.756   0.916  11.049
23231SOL    HW271468   1.650   0.942  11.155
23232SOL     OW71469   5.008   1.836   7.731
23232SOL    HW171470   5.039   1.761   7.681
23232SOL    HW271471   5.077   1.901   7.724
23233SOL     OW71472   2.391   4.955   9.396
23233SOL    HW171473   2.460   4.961   9.462
23233SOL    HW271474   2.405   5.032   9.341
23234SOL     OW71475   2.812  12.260   4.564
23234SOL    HW171476   2.741  12.302   4.515
23234SOL    HW271477   2.866  12.219   4.497
23235SOL     OW71478   6.603   4.440   4.777
23235SOL    HW171479   6.601   4.493   4.697
23235SOL    HW271480   6.519   4.458   4.820
23236SOL     OW71481   2.217   2.370   3.621
23236SOL    HW171482   2.123   2.350   3.620
23236SOL    HW271483   2.227   2.435   3.691
23237SOL     OW71484  11.188   6.595  13.622
23237SOL    HW171485  11.240   6.616  13.545
23237SOL    HW271486  11.140   6.675  13.642
23238SOL     OW71487   4.094   5.679   2.216
23238SOL    HW171488   4.152   5.719   2.281
23238SOL    HW271489   4.007   5.684   2.255
23239SOL     OW71490   8.868   9.951   6.960
23239SOL    HW171491   8.785   9.911   6.935
23239SOL    HW271492   8.930   9.879   6.962
23240SOL     OW71493   7.319   0.780  10.255
23240SOL    HW171494   7.361   0.811  10.175
23240SOL    HW271495   7.243   0.730  10.225
23241SOL     OW71496  11.523  10.122  10.026
23241SOL    HW171497  11.444  10.128  10.080
23241SOL    HW271498  11.540  10.028  10.021
23242SOL     OW71499   5.552  13.356   3.254
23242SOL    HW171500   5.618  13.366   3.323
23242SOL    HW271501   5.546  13.443   3.214
23243SOL     OW71502  14.647  11.809   6.064
23243SOL    HW171503  14.574  11.752   6.090
23243SOL    HW271504  14.711  11.749   6.025
23244SOL     OW71505  11.011  10.531   9.725
23244SOL    HW171506  11.048  10.449   9.692
23244SOL    HW271507  10.933  10.546   9.672
23245SOL     OW71508  10.645   1.394   1.552
23245SOL    HW171509  10.673   1.453   1.482
23245SOL    HW271510  10.626   1.312   1.507
23246SOL     OW71511   1.855   4.191   2.123
23246SOL    HW171512   1.855   4.203   2.028
23246SOL    HW271513   1.923   4.124   2.138
23247SOL     OW71514   9.879   1.356   6.027
23247SOL    HW171515   9.824   1.428   5.997
23247SOL    HW271516   9.880   1.363   6.122
23248SOL     OW71517  14.693  11.718  12.272
23248SOL    HW171518  14.699  11.755  12.184
23248SOL    HW271519  14.756  11.769  12.324
23249SOL     OW71520   6.870  11.867  10.794
23249SOL    HW171521   6.914  11.795  10.841
23249SOL    HW271522   6.941  11.917  10.755
23250SOL     OW71523  10.130   4.239   9.512
23250SOL    HW171524  10.157   4.222   9.422
23250SOL    HW271525  10.143   4.155   9.557
23251SOL     OW71526  10.892   6.436   6.917
23251SOL    HW171527  10.926   6.490   6.846
23251SOL    HW271528  10.961   6.371   6.933
23252SOL     OW71529   6.050   1.704   3.150
23252SOL    HW171530   6.137   1.703   3.189
23252SOL    HW271531   6.037   1.796   3.123
23253SOL     OW71532   3.407   1.169  12.820
23253SOL    HW171533   3.354   1.247  12.804
23253SOL    HW271534   3.390   1.147  12.912
23254SOL     OW71535   0.093   8.511   7.216
23254SOL    HW171536   0.030   8.542   7.281
23254SOL    HW271537   0.091   8.578   7.147
23255SOL     OW71538  11.804   2.291   0.386
23255SOL    HW171539  11.749   2.272   0.462
23255SOL    HW271540  11.894   2.275   0.417
23256SOL     OW71541   3.802   2.062  13.946
23256SOL    HW171542   3.874   2.007  13.977
23256SOL    HW271543   3.826   2.150  13.975
23257SOL     OW71544  11.493   9.590  12.517
23257SOL    HW171545  11.575   9.589  12.467
23257SOL    HW271546  11.509   9.533  12.592
23258SOL     OW71547   5.225   8.079  12.071
23258SOL    HW171548   5.191   8.047  12.154
23258SOL    HW271549   5.303   8.025  12.055
23259SOL     OW71550  13.385   5.489   4.699
23259SOL    HW171551  13.290   5.497   4.686
23259SOL    HW271552  13.416   5.442   4.622
23260SOL     OW71553   1.437   2.769  10.260
23260SOL    HW171554   1.406   2.751  10.349
23260SOL    HW271555   1.528   2.797  10.272
23261SOL     OW71556   7.147   2.592  11.788
23261SOL    HW171557   7.070   2.536  11.791
23261SOL    HW271558   7.221   2.532  11.792
23262SOL     OW71559  10.910   0.665  11.563
23262SOL    HW171560  10.881   0.602  11.629
23262SOL    HW271561  10.840   0.730  11.559
23263SOL     OW71562   8.871   2.361   7.770
23263SOL    HW171563   8.795   2.310   7.745
23263SOL    HW271564   8.931   2.354   7.695
23264SOL     OW71565  13.783   5.172   0.566
23264SOL    HW171566  13.714   5.157   0.501
23264SOL    HW271567  13.753   5.126   0.644
23265SOL     OW71568  11.762   9.564   8.186
23265SOL    HW171569  11.731   9.634   8.129
23265SOL    HW271570  11.711   9.573   8.266
23266SOL     OW71571   8.594  12.748   9.372
23266SOL    HW171572   8.605  12.708   9.286
23266SOL    HW271573   8.499  12.758   9.382
23267SOL     OW71574   5.972  13.402   6.651
23267SOL    HW171575   6.033  13.470   6.621
23267SOL    HW271576   5.972  13.411   6.746
23268SOL     OW71577  13.696  12.775  11.182
23268SOL    HW171578  13.727  12.761  11.093
23268SOL    HW271579  13.639  12.700  11.200
23269SOL     OW71580   7.553   4.019  13.023
23269SOL    HW171581   7.627   4.056  12.975
23269SOL    HW271582   7.524   4.089  13.081
23270SOL     OW71583   2.527   0.673   9.838
23270SOL    HW171584   2.516   0.680   9.744
23270SOL    HW271585   2.503   0.582   9.858
23271SOL     OW71586  14.521  10.051  11.927
23271SOL    HW171587  14.586   9.981  11.924
23271SOL    HW271588  14.519  10.086  11.838
23272SOL     OW71589  11.431   6.638   6.431
23272SOL    HW171590  11.406   6.704   6.496
23272SOL    HW271591  11.351   6.618   6.384
23273SOL     OW71592   5.768   8.833   5.085
23273SOL    HW171593   5.854   8.797   5.104
23273SOL    HW271594   5.707   8.769   5.120
23274SOL     OW71595   9.946   2.280   3.104
23274SOL    HW171596  10.014   2.292   3.038
23274SOL    HW271597   9.877   2.342   3.079
23275SOL     OW71598   7.026  14.536  11.296
23275SOL    HW171599   7.079  14.616  11.292
23275SOL    HW271600   6.941  14.562  11.260
23276SOL     OW71601   1.251  14.677   8.627
23276SOL    HW171602   1.323  14.630   8.668
23276SOL    HW271603   1.215  14.616   8.563
23277SOL     OW71604   6.932  10.337  11.297
23277SOL    HW171605   6.918  10.255  11.250
23277SOL    HW271606   6.906  10.405  11.234
23278SOL     OW71607   3.428   7.212   7.339
23278SOL    HW171608   3.457   7.122   7.346
23278SOL    HW271609   3.497   7.256   7.290
23279SOL     OW71610   2.378  13.096   2.353
23279SOL    HW171611   2.457  13.101   2.300
23279SOL    HW271612   2.407  13.115   2.442
23280SOL     OW71613   3.276   4.925   1.728
23280SOL    HW171614   3.300   5.002   1.677
23280SOL    HW271615   3.360   4.880   1.743
23281SOL     OW71616  12.406   9.962   1.869
23281SOL    HW171617  12.477   9.981   1.930
23281SOL    HW271618  12.347  10.037   1.877
23282SOL     OW71619   4.531  12.517   4.432
23282SOL    HW171620   4.459  12.454   4.444
23282SOL    HW271621   4.609  12.469   4.459
23283SOL     OW71622   1.446   6.928   0.352
23283SOL    HW171623   1.378   6.933   0.419
23283SOL    HW271624   1.471   7.019   0.336
23284SOL     OW71625  13.077  12.227   2.635
23284SOL    HW171626  13.164  12.238   2.675
23284SOL    HW271627  13.091  12.167   2.562
23285SOL     OW71628   8.514  13.873   9.365
23285SOL    HW171629   8.561  13.799   9.327
23285SOL    HW271630   8.534  13.947   9.307
23286SOL     OW71631   0.386   0.475   4.439
23286SOL    HW171632   0.394   0.465   4.533
23286SOL    HW271633   0.292   0.485   4.423
23287SOL     OW71634   5.730   1.992   3.065
23287SOL    HW171635   5.703   2.000   2.974
23287SOL    HW271636   5.681   2.060   3.111
23288SOL     OW71637  14.070   9.339  14.864
23288SOL    HW171638  14.157   9.379  14.853
23288SOL    HW271639  14.089   9.249   0.012
23289SOL     OW71640   5.074   5.470  13.268
23289SOL    HW171641   5.072   5.393  13.324
23289SOL    HW271642   5.031   5.442  13.187
23290SOL     OW71643   7.106  13.245   3.493
23290SOL    HW171644   7.170  13.223   3.426
23290SOL    HW271645   7.042  13.302   3.449
23291SOL     OW71646   8.886  13.479   1.313
23291SOL    HW171647   8.790  13.487   1.311
23291SOL    HW271648   8.902  13.395   1.356
23292SOL     OW71649   3.173   8.194  12.041
23292SOL    HW171650   3.118   8.133  12.089
23292SOL    HW271651   3.114   8.266  12.017
23293SOL     OW71652   5.500   1.768   6.395
23293SOL    HW171653   5.532   1.790   6.482
23293SOL    HW271654   5.405   1.783   6.400
23294SOL     OW71655   1.508   2.302   7.074
23294SOL    HW171656   1.573   2.268   7.013
23294SOL    HW271657   1.436   2.239   7.071
23295SOL     OW71658   3.696   5.621  13.631
23295SOL    HW171659   3.638   5.683  13.588
23295SOL    HW271660   3.637   5.557  13.671
23296SOL     OW71661   1.300   0.926   2.657
23296SOL    HW171662   1.205   0.942   2.652
23296SOL    HW271663   1.307   0.830   2.658
23297SOL     OW71664   0.904  12.026  10.907
23297SOL    HW171665   0.832  12.059  10.961
23297SOL    HW271666   0.895  12.071  10.824
23298SOL     OW71667   0.980   6.366  12.515
23298SOL    HW171668   0.939   6.452  12.508
23298SOL    HW271669   0.983   6.333  12.425
23299SOL     OW71670   2.409  10.695   8.580
23299SOL    HW171671   2.437  10.675   8.669
23299SOL    HW271672   2.484  10.673   8.525
23300SOL     OW71673  10.969   8.551   3.543
23300SOL    HW171674  10.988   8.471   3.494
23300SOL    HW271675  10.877   8.569   3.523
23301SOL     OW71676   1.577   1.624   9.298
23301SOL    HW171677   1.667   1.598   9.320
23301SOL    HW271678   1.523   1.575   9.359
23302SOL     OW71679   6.806   5.800   9.359
23302SOL    HW171680   6.827   5.748   9.436
23302SOL    HW271681   6.720   5.768   9.331
23303SOL     OW71682  12.442   6.587   6.135
23303SOL    HW171683  12.400   6.588   6.221
23303SOL    HW271684  12.502   6.512   6.139
23304SOL     OW71685   5.644  12.055   4.064
23304SOL    HW171686   5.555  12.045   4.030
23304SOL    HW271687   5.648  12.146   4.091
23305SOL     OW71688   7.868   8.408   9.066
23305SOL    HW171689   7.895   8.497   9.092
23305SOL    HW271690   7.782   8.420   9.026
23306SOL     OW71691  11.976  13.224   2.570
23306SOL    HW171692  12.006  13.211   2.480
23306SOL    HW271693  12.031  13.165   2.623
23307SOL     OW71694   8.617  10.184  12.591
23307SOL    HW171695   8.587  10.222  12.674
23307SOL    HW271696   8.563  10.106  12.580
23308SOL     OW71697  11.513  10.833  12.631
23308SOL    HW171698  11.558  10.807  12.712
23308SOL    HW271699  11.441  10.889  12.660
23309SOL     OW71700  12.766  10.070   7.531
23309SOL    HW171701  12.680  10.035   7.554
23309SOL    HW271702  12.812  10.079   7.615
23310SOL     OW71703  11.792   0.499   2.375
23310SOL    HW171704  11.740   0.496   2.295
23310SOL    HW271705  11.853   0.426   2.368
23311SOL     OW71706   3.554   1.948   0.702
23311SOL    HW171707   3.490   1.956   0.772
23311SOL    HW271708   3.503   1.933   0.623
23312SOL     OW71709  13.862   3.247   7.179
23312SOL    HW171710  13.942   3.257   7.127
23312SOL    HW271711  13.844   3.335   7.212
23313SOL     OW71712  11.993   3.655   8.379
23313SOL    HW171713  11.938   3.682   8.305
23313SOL    HW271714  12.053   3.590   8.342
23314SOL     OW71715  11.387   9.219   7.067
23314SOL    HW171716  11.300   9.237   7.103
23314SOL    HW271717  11.404   9.128   7.090
23315SOL     OW71718   0.718   3.642   6.097
23315SOL    HW171719   0.724   3.559   6.051
23315SOL    HW271720   0.681   3.703   6.033
23316SOL     OW71721   1.128   2.847   8.129
23316SOL    HW171722   1.125   2.797   8.047
23316SOL    HW271723   1.201   2.809   8.177
23317SOL     OW71724   2.862   5.122  11.918
23317SOL    HW171725   2.908   5.040  11.902
23317SOL    HW271726   2.810   5.137  11.838
23318SOL     OW71727  13.214   1.777   6.733
23318SOL    HW171728  13.282   1.773   6.800
23318SOL    HW271729  13.204   1.686   6.703
23319SOL     OW71730   7.365   2.119   8.265
23319SOL    HW171731   7.281   2.112   8.311
23319SOL    HW271732   7.430   2.126   8.335
23320SOL     OW71733   2.108   9.839   0.656
23320SOL    HW171734   2.036   9.885   0.701
23320SOL    HW271735   2.114   9.881   0.571
23321SOL     OW71736   3.668   0.180   4.992
23321SOL    HW171737   3.581   0.147   5.015
23321SOL    HW271738   3.698   0.225   5.071
23322SOL     OW71739   9.171   0.238   8.153
23322SOL    HW171740   9.236   0.171   8.135
23322SOL    HW271741   9.173   0.248   8.249
23323SOL     OW71742   9.750   4.454   9.583
23323SOL    HW171743   9.795   4.531   9.550
23323SOL    HW271744   9.785   4.440   9.671
23324SOL     OW71745  11.750   4.460   8.665
23324SOL    HW171746  11.843   4.437   8.657
23324SOL    HW271747  11.749   4.554   8.679
23325SOL     OW71748   4.707   5.604   2.862
23325SOL    HW171749   4.786   5.580   2.910
23325SOL    HW271750   4.721   5.696   2.838
23326SOL     OW71751   3.110   4.406   2.390
23326SOL    HW171752   3.100   4.455   2.472
23326SOL    HW271753   3.203   4.411   2.370
23327SOL     OW71754  13.979  12.458  13.858
23327SOL    HW171755  13.907  12.490  13.913
23327SOL    HW271756  13.972  12.508  13.777
23328SOL     OW71757  13.078   6.498   6.921
23328SOL    HW171758  12.992   6.537   6.934
23328SOL    HW271759  13.106   6.472   7.009
23329SOL     OW71760   3.385   3.250   2.825
23329SOL    HW171761   3.315   3.270   2.764
23329SOL    HW271762   3.412   3.161   2.801
23330SOL     OW71763  11.183  10.962   5.778
23330SOL    HW171764  11.180  10.892   5.843
23330SOL    HW271765  11.188  10.917   5.694
23331SOL     OW71766  13.216   8.187   8.638
23331SOL    HW171767  13.131   8.230   8.632
23331SOL    HW271768  13.197   8.094   8.624
23332SOL     OW71769  14.086   4.728   1.315
23332SOL    HW171770  14.026   4.779   1.369
23332SOL    HW271771  14.060   4.637   1.332
23333SOL     OW71772   8.155  11.665   9.800
23333SOL    HW171773   8.242  11.673   9.840
23333SOL    HW271774   8.109  11.601   9.854
23334SOL     OW71775   3.859   9.018   0.684
23334SOL    HW171776   3.921   9.075   0.639
23334SOL    HW271777   3.912   8.967   0.745
23335SOL     OW71778   2.727   4.059   8.467
23335SOL    HW171779   2.821   4.078   8.462
23335SOL    HW271780   2.688   4.138   8.504
23336SOL     OW71781   9.668  11.342   4.430
23336SOL    HW171782   9.643  11.406   4.496
23336SOL    HW271783   9.741  11.294   4.470
23337SOL     OW71784   9.301  13.658  11.456
23337SOL    HW171785   9.376  13.623  11.505
23337SOL    HW271786   9.296  13.603  11.378
23338SOL     OW71787  10.207   7.244   7.432
23338SOL    HW171788  10.256   7.162   7.425
23338SOL    HW271789  10.220   7.288   7.348
23339SOL     OW71790   0.846  12.278  10.749
23339SOL    HW171791   0.878  12.324  10.827
23339SOL    HW271792   0.882  12.327  10.675
23340SOL     OW71793  13.511  14.528   3.694
23340SOL    HW171794  13.562  14.591   3.746
23340SOL    HW271795  13.549  14.533   3.606
23341SOL     OW71796   3.965   3.627   4.238
23341SOL    HW171797   3.918   3.545   4.254
23341SOL    HW271798   4.019   3.639   4.316
23342SOL     OW71799   3.531  11.276  13.198
23342SOL    HW171800   3.560  11.265  13.108
23342SOL    HW271801   3.609  11.306  13.245
23343SOL     OW71802  14.013  13.608   6.544
23343SOL    HW171803  14.033  13.525   6.501
23343SOL    HW271804  13.997  13.669   6.471
23344SOL     OW71805  10.520   7.116   6.586
23344SOL    HW171806  10.444   7.062   6.564
23344SOL    HW271807  10.491   7.169   6.661
23345SOL     OW71808   7.512  13.487   5.578
23345SOL    HW171809   7.428  13.529   5.563
23345SOL    HW271810   7.515  13.415   5.515
23346SOL     OW71811  13.183   5.560  10.804
23346SOL    HW171812  13.237   5.583  10.728
23346SOL    HW271813  13.095   5.551  10.768
23347SOL     OW71814   2.481   0.183   1.572
23347SOL    HW171815   2.477   0.088   1.561
23347SOL    HW271816   2.445   0.219   1.491
23348SOL     OW71817  14.355   1.231   0.654
23348SOL    HW171818  14.276   1.212   0.603
23348SOL    HW271819  14.424   1.238   0.589
23349SOL     OW71820  11.600   3.231  10.182
23349SOL    HW171821  11.576   3.321  10.164
23349SOL    HW271822  11.696   3.231  10.183
23350SOL     OW71823   1.153  12.403  12.731
23350SOL    HW171824   1.214  12.438  12.796
23350SOL    HW271825   1.069  12.396  12.778
23351SOL     OW71826   5.208  11.365   9.097
23351SOL    HW171827   5.234  11.377   9.006
23351SOL    HW271828   5.218  11.451   9.137
23352SOL     OW71829  10.291  10.920   7.635
23352SOL    HW171830  10.254  10.837   7.603
23352SOL    HW271831  10.334  10.958   7.559
23353SOL     OW71832  10.399   5.354   4.923
23353SOL    HW171833  10.459   5.282   4.941
23353SOL    HW271834  10.382   5.393   5.009
23354SOL     OW71835   3.258   8.774   0.368
23354SOL    HW171836   3.212   8.856   0.384
23354SOL    HW271837   3.351   8.796   0.377
23355SOL     OW71838   7.149   9.598   8.103
23355SOL    HW171839   7.235   9.634   8.127
23355SOL    HW271840   7.167   9.507   8.082
23356SOL     OW71841   5.288   2.522   2.095
23356SOL    HW171842   5.194   2.521   2.078
23356SOL    HW271843   5.310   2.614   2.100
23357SOL     OW71844   1.049   7.484   6.796
23357SOL    HW171845   0.985   7.416   6.821
23357SOL    HW271846   1.100   7.499   6.875
23358SOL     OW71847  11.060   0.920   3.719
23358SOL    HW171848  11.092   0.993   3.772
23358SOL    HW271849  11.111   0.925   3.638
23359SOL     OW71850   5.163   8.644   4.226
23359SOL    HW171851   5.176   8.737   4.210
23359SOL    HW271852   5.192   8.601   4.145
23360SOL     OW71853   8.068   1.499   9.534
23360SOL    HW171854   7.975   1.493   9.511
23360SOL    HW271855   8.105   1.415   9.506
23361SOL     OW71856   9.611  10.541   8.064
23361SOL    HW171857   9.660  10.468   8.101
23361SOL    HW271858   9.523  10.506   8.049
23362SOL     OW71859   5.580  10.791  13.123
23362SOL    HW171860   5.650  10.773  13.185
23362SOL    HW271861   5.575  10.887  13.120
23363SOL     OW71862   8.614  11.236   3.978
23363SOL    HW171863   8.535  11.192   3.945
23363SOL    HW271864   8.621  11.315   3.925
23364SOL     OW71865   4.687   8.386   0.963
23364SOL    HW171866   4.702   8.465   1.016
23364SOL    HW271867   4.766   8.377   0.910
23365SOL     OW71868   4.261  10.554   9.786
23365SOL    HW171869   4.242  10.634   9.835
23365SOL    HW271870   4.357  10.549   9.785
23366SOL     OW71871   0.379   5.928   6.922
23366SOL    HW171872   0.387   5.991   6.993
23366SOL    HW271873   0.301   5.956   6.875
23367SOL     OW71874   5.410  12.377  13.708
23367SOL    HW171875   5.412  12.413  13.797
23367SOL    HW271876   5.342  12.427  13.664
23368SOL     OW71877  10.131   2.034  11.696
23368SOL    HW171878  10.090   1.956  11.732
23368SOL    HW271879  10.170   2.005  11.614
23369SOL     OW71880   9.350   3.134  10.040
23369SOL    HW171881   9.304   3.091   9.968
23369SOL    HW271882   9.412   3.068  10.072
23370SOL     OW71883   5.488  11.116   1.711
23370SOL    HW171884   5.572  11.096   1.669
23370SOL    HW271885   5.441  11.033   1.711
23371SOL     OW71886   3.990  14.398   7.691
23371SOL    HW171887   3.968  14.474   7.745
23371SOL    HW271888   3.912  14.383   7.638
23372SOL     OW71889   1.208  11.452   7.306
23372SOL    HW171890   1.249  11.484   7.386
23372SOL    HW271891   1.114  11.451   7.326
23373SOL     OW71892  13.010   8.037   9.210
23373SOL    HW171893  13.046   8.013   9.295
23373SOL    HW271894  13.018   7.957   9.158
23374SOL     OW71895   1.890  13.307   1.235
23374SOL    HW171896   1.882  13.283   1.143
23374SOL    HW271897   1.956  13.247   1.270
23375SOL     OW71898   8.735   0.317  13.110
23375SOL    HW171899   8.691   0.351  13.188
23375SOL    HW271900   8.718   0.383  13.043
23376SOL     OW71901   7.419   8.493  10.785
23376SOL    HW171902   7.390   8.530  10.702
23376SOL    HW271903   7.340   8.487  10.838
23377SOL     OW71904   2.766   1.993  13.938
23377SOL    HW171905   2.768   1.926  13.870
23377SOL    HW271906   2.768   2.076  13.891
23378SOL     OW71907  11.851   3.869  10.534
23378SOL    HW171908  11.771   3.896  10.578
23378SOL    HW271909  11.912   3.942  10.548
23379SOL     OW71910  13.333   1.916  12.286
23379SOL    HW171911  13.373   1.983  12.230
23379SOL    HW271912  13.286   1.966  12.353
23380SOL     OW71913   9.612   0.998   7.028
23380SOL    HW171914   9.682   0.978   7.090
23380SOL    HW271915   9.647   1.069   6.974
23381SOL     OW71916   9.194  13.040   3.247
23381SOL    HW171917   9.153  13.005   3.326
23381SOL    HW271918   9.120  13.072   3.195
23382SOL     OW71919   1.710   3.766  10.457
23382SOL    HW171920   1.759   3.821  10.396
23382SOL    HW271921   1.665   3.702  10.401
23383SOL     OW71922   2.774   5.601   6.683
23383SOL    HW171923   2.814   5.554   6.610
23383SOL    HW271924   2.805   5.554   6.761
23384SOL     OW71925  13.698   9.252  10.825
23384SOL    HW171926  13.739   9.193  10.761
23384SOL    HW271927  13.612   9.213  10.842
23385SOL     OW71928   9.679   8.289   7.712
23385SOL    HW171929   9.746   8.346   7.751
23385SOL    HW271930   9.600   8.309   7.764
23386SOL     OW71931   5.223   3.438   8.460
23386SOL    HW171932   5.151   3.417   8.399
23386SOL    HW271933   5.302   3.414   8.412
23387SOL     OW71934   5.837   2.933   9.044
23387SOL    HW171935   5.832   2.864   8.977
23387SOL    HW271936   5.879   2.890   9.119
23388SOL     OW71937  12.620  12.884  13.105
23388SOL    HW171938  12.613  12.939  13.027
23388SOL    HW271939  12.707  12.844  13.099
23389SOL     OW71940   9.385   1.394  10.509
23389SOL    HW171941   9.291   1.381  10.495
23389SOL    HW271942   9.400   1.367  10.599
23390SOL     OW71943  14.229   7.907  14.877
23390SOL    HW171944  14.192   7.987   0.036
23390SOL    HW271945  14.153   7.861  14.840
23391SOL     OW71946  14.278   5.194   0.668
23391SOL    HW171947  14.358   5.144   0.686
23391SOL    HW271948  14.276   5.203   0.573
23392SOL     OW71949   6.940   1.470   3.050
23392SOL    HW171950   7.003   1.492   2.981
23392SOL    HW271951   6.864   1.437   3.003
23393SOL     OW71952   6.483  11.739   8.921
23393SOL    HW171953   6.548  11.810   8.921
23393SOL    HW271954   6.399  11.783   8.935
23394SOL     OW71955   9.697   5.590   0.871
23394SOL    HW171956   9.611   5.554   0.850
23394SOL    HW271957   9.713   5.561   0.961
23395SOL     OW71958   5.796  12.617  11.258
23395SOL    HW171959   5.810  12.691  11.317
23395SOL    HW271960   5.857  12.550  11.289
23396SOL     OW71961  11.670   3.279  12.121
23396SOL    HW171962  11.628   3.361  12.147
23396SOL    HW271963  11.611   3.210  12.152
23397SOL     OW71964   4.394   9.955   0.433
23397SOL    HW171965   4.482   9.932   0.403
23397SOL    HW271966   4.400   9.959   0.528
23398SOL     OW71967  11.264   1.054   8.849
23398SOL    HW171968  11.182   1.006   8.864
23398SOL    HW271969  11.242   1.145   8.866
23399SOL     OW71970   7.199   1.220   0.375
23399SOL    HW171971   7.144   1.285   0.332
23399SOL    HW271972   7.272   1.206   0.313
23400SOL     OW71973   2.815   8.040   0.591
23400SOL    HW171974   2.820   8.094   0.512
23400SOL    HW271975   2.735   7.989   0.579
23401SOL     OW71976   4.963   3.174   5.813
23401SOL    HW171977   4.926   3.187   5.900
23401SOL    HW271978   4.888   3.176   5.754
23402SOL     OW71979   7.576   7.375   6.605
23402SOL    HW171980   7.659   7.396   6.562
23402SOL    HW271981   7.537   7.461   6.623
23403SOL     OW71982  14.712   3.444   3.665
23403SOL    HW171983  14.622   3.474   3.675
23403SOL    HW271984  14.744   3.431   3.754
23404SOL     OW71985  14.718  13.347   5.802
23404SOL    HW171986  14.743  13.436   5.827
23404SOL    HW271987  14.679  13.311   5.882
23405SOL     OW71988  12.862   8.578   3.170
23405SOL    HW171989  12.929   8.546   3.110
23405SOL    HW271990  12.906   8.579   3.256
23406SOL     OW71991   3.947   5.239   2.237
23406SOL    HW171992   3.977   5.305   2.174
23406SOL    HW271993   3.929   5.289   2.317
23407SOL     OW71994   2.486   7.540   5.879
23407SOL    HW171995   2.547   7.507   5.945
23407SOL    HW271996   2.399   7.525   5.917
23408SOL     OW71997   2.516   2.724   7.598
23408SOL    HW171998   2.426   2.752   7.582
23408SOL    HW271999   2.530   2.742   7.691
23409SOL     OW72000   6.206  13.224   5.492
23409SOL    HW172001   6.217  13.183   5.407
23409SOL    HW272002   6.229  13.316   5.477
23410SOL     OW72003  12.142   3.743  13.526
23410SOL    HW172004  12.111   3.700  13.606
23410SOL    HW272005  12.191   3.820  13.558
23411SOL     OW72006   5.639   2.576   0.558
23411SOL    HW172007   5.693   2.535   0.626
23411SOL    HW272008   5.670   2.535   0.477
23412SOL     OW72009  13.984   5.758   6.851
23412SOL    HW172010  13.921   5.819   6.812
23412SOL    HW272011  14.024   5.714   6.776
23413SOL     OW72012   5.552  11.677  12.417
23413SOL    HW172013   5.584  11.732  12.489
23413SOL    HW272014   5.463  11.653  12.444
23414SOL     OW72015   8.169   6.026   2.013
23414SOL    HW172016   8.163   6.094   2.081
23414SOL    HW272017   8.261   6.000   2.014
23415SOL     OW72018  11.097   8.991   6.033
23415SOL    HW172019  11.155   8.965   6.104
23415SOL    HW272020  11.071   8.908   5.992
23416SOL     OW72021   7.670   3.560   7.261
23416SOL    HW172022   7.740   3.513   7.215
23416SOL    HW272023   7.603   3.493   7.277
23417SOL     OW72024   4.418   1.044   7.298
23417SOL    HW172025   4.371   1.000   7.227
23417SOL    HW272026   4.478   0.977   7.331
23418SOL     OW72027   7.050  10.792  13.254
23418SOL    HW172028   6.993  10.804  13.178
23418SOL    HW272029   7.092  10.707  13.239
23419SOL     OW72030   7.387   7.350   8.253
23419SOL    HW172031   7.422   7.275   8.206
23419SOL    HW272032   7.354   7.314   8.335
23420SOL     OW72033  11.733   2.711   3.446
23420SOL    HW172034  11.669   2.755   3.502
23420SOL    HW272035  11.690   2.630   3.420
23421SOL     OW72036   5.675   9.397  13.279
23421SOL    HW172037   5.770   9.401  13.272
23421SOL    HW272038   5.646   9.487  13.266
23422SOL     OW72039   8.076  14.843   0.654
23422SOL    HW172040   8.142  14.864   0.721
23422SOL    HW272041   8.127  14.831   0.574
23423SOL     OW72042  11.629   2.569   9.153
23423SOL    HW172043  11.602   2.661   9.149
23423SOL    HW272044  11.607   2.534   9.067
23424SOL     OW72045  11.778   7.782   4.735
23424SOL    HW172046  11.722   7.856   4.711
23424SOL    HW272047  11.726   7.732   4.797
23425SOL     OW72048   9.590   0.841   4.054
23425SOL    HW172049   9.528   0.906   4.087
23425SOL    HW272050   9.554   0.757   4.081
23426SOL     OW72051   9.519   8.970   7.693
23426SOL    HW172052   9.601   9.007   7.661
23426SOL    HW272053   9.465   9.046   7.715
23427SOL     OW72054   0.929  13.064   1.030
23427SOL    HW172055   0.968  13.140   1.073
23427SOL    HW272056   0.933  13.084   0.936
23428SOL     OW72057  12.010   3.461   3.293
23428SOL    HW172058  11.933   3.499   3.250
23428SOL    HW272059  12.008   3.369   3.268
23429SOL     OW72060  14.355   7.108  14.634
23429SOL    HW172061  14.291   7.070  14.693
23429SOL    HW272062  14.440   7.081  14.669
23430SOL     OW72063   3.116   2.061   2.401
23430SOL    HW172064   3.054   2.123   2.363
23430SOL    HW272065   3.172   2.035   2.328
23431SOL     OW72066  11.047   6.913   9.109
23431SOL    HW172067  11.132   6.937   9.072
23431SOL    HW272068  11.007   6.997   9.133
23432SOL     OW72069   6.700   7.982   4.235
23432SOL    HW172070   6.633   7.914   4.230
23432SOL    HW272071   6.760   7.952   4.303
23433SOL     OW72072   1.378   1.800  12.843
23433SOL    HW172073   1.374   1.896  12.849
23433SOL    HW272074   1.328   1.770  12.918
23434SOL     OW72075   9.732   9.171   7.580
23434SOL    HW172076   9.778   9.232   7.522
23434SOL    HW272077   9.651   9.216   7.603
23435SOL     OW72078  10.869   9.651  13.869
23435SOL    HW172079  10.962   9.630  13.865
23435SOL    HW272080  10.862   9.734  13.821
23436SOL     OW72081   3.228   8.564   5.888
23436SOL    HW172082   3.178   8.603   5.959
23436SOL    HW272083   3.255   8.478   5.921
23437SOL     OW72084  11.973  12.852  13.910
23437SOL    HW172085  11.902  12.895  13.958
23437SOL    HW272086  12.021  12.924  13.870
23438SOL     OW72087   6.754   1.643   2.672
23438SOL    HW172088   6.714   1.728   2.654
23438SOL    HW272089   6.697   1.602   2.738
23439SOL     OW72090   5.687   6.320   2.731
23439SOL    HW172091   5.640   6.306   2.649
23439SOL    HW272092   5.726   6.234   2.751
23440SOL     OW72093   8.636   9.232   6.902
23440SOL    HW172094   8.581   9.201   6.975
23440SOL    HW272095   8.597   9.191   6.825
23441SOL     OW72096   5.342   2.159   5.752
23441SOL    HW172097   5.353   2.074   5.795
23441SOL    HW272098   5.304   2.215   5.819
23442SOL     OW72099   1.973  13.197  12.754
23442SOL    HW172100   1.934  13.280  12.782
23442SOL    HW272101   2.036  13.222  12.686
23443SOL     OW72102   0.449   8.478   2.021
23443SOL    HW172103   0.359   8.487   2.051
23443SOL    HW272104   0.492   8.558   2.050
23444SOL     OW72105   9.682   0.726   9.637
23444SOL    HW172106   9.679   0.727   9.541
23444SOL    HW272107   9.653   0.637   9.660
23445SOL     OW72108   0.372  12.491  10.738
23445SOL    HW172109   0.460  12.504  10.700
23445SOL    HW272110   0.345  12.579  10.765
23446SOL     OW72111   6.206   3.757  14.021
23446SOL    HW172112   6.170   3.834  13.977
23446SOL    HW272113   6.166   3.682  13.976
23447SOL     OW72114   8.557   6.282   9.060
23447SOL    HW172115   8.533   6.362   9.107
23447SOL    HW272116   8.650   6.270   9.080
23448SOL     OW72117   8.068  10.951   1.375
23448SOL    HW172118   7.972  10.950   1.370
23448SOL    HW272119   8.089  10.879   1.434
23449SOL     OW72120   5.265   8.104   5.631
23449SOL    HW172121   5.221   8.022   5.653
23449SOL    HW272122   5.270   8.151   5.714
23450SOL     OW72123   0.321   1.639   1.023
23450SOL    HW172124   0.252   1.633   0.957
23450SOL    HW272125   0.347   1.548   1.038
23451SOL     OW72126  10.825   3.614   3.184
23451SOL    HW172127  10.781   3.654   3.258
23451SOL    HW272128  10.810   3.520   3.194
23452SOL     OW72129   7.731   8.096  10.245
23452SOL    HW172130   7.776   8.180  10.256
23452SOL    HW272131   7.802   8.032  10.239
23453SOL     OW72132   0.943   5.126  11.934
23453SOL    HW172133   0.886   5.055  11.902
23453SOL    HW272134   0.923   5.200  11.877
23454SOL     OW72135   5.753   5.773   3.126
23454SOL    HW172136   5.683   5.708   3.128
23454SOL    HW272137   5.830   5.725   3.095
23455SOL     OW72138   2.732   2.798   2.599
23455SOL    HW172139   2.759   2.729   2.659
23455SOL    HW272140   2.761   2.767   2.513
23456SOL     OW72141   2.117  10.527   5.765
23456SOL    HW172142   2.052  10.524   5.694
23456SOL    HW272143   2.066  10.533   5.845
23457SOL     OW72144   1.984  11.178  11.417
23457SOL    HW172145   2.079  11.163  11.419
23457SOL    HW272146   1.951  11.113  11.355
23458SOL     OW72147   2.093   7.679  14.668
23458SOL    HW172148   2.177   7.637  14.649
23458SOL    HW272149   2.060   7.709  14.583
23459SOL     OW72150  11.094   5.302  10.531
23459SOL    HW172151  11.029   5.345  10.586
23459SOL    HW272152  11.046   5.231  10.488
23460SOL     OW72153   6.987  11.661   7.382
23460SOL    HW172154   6.993  11.658   7.477
23460SOL    HW272155   7.053  11.599   7.351
23461SOL     OW72156   1.291   9.180  10.877
23461SOL    HW172157   1.223   9.238  10.910
23461SOL    HW272158   1.283   9.185  10.782
23462SOL     OW72159  12.985  12.259   8.790
23462SOL    HW172160  12.905  12.270   8.738
23462SOL    HW272161  13.040  12.200   8.739
23463SOL     OW72162  14.383  10.498   2.845
23463SOL    HW172163  14.385  10.565   2.776
23463SOL    HW272164  14.460  10.444   2.827
23464SOL     OW72165   4.567   2.004   2.733
23464SOL    HW172166   4.543   2.066   2.664
23464SOL    HW272167   4.537   2.045   2.814
23465SOL     OW72168   9.542   2.647   2.743
23465SOL    HW172169   9.528   2.556   2.715
23465SOL    HW272170   9.472   2.696   2.699
23466SOL     OW72171  10.373  12.688   3.909
23466SOL    HW172172  10.413  12.774   3.913
23466SOL    HW272173  10.322  12.682   3.991
23467SOL     OW72174  11.480   4.988   6.858
23467SOL    HW172175  11.385   5.001   6.865
23467SOL    HW272176  11.517   5.071   6.889
23468SOL     OW72177   4.509  14.390   1.290
23468SOL    HW172178   4.443  14.323   1.308
23468SOL    HW272179   4.494  14.457   1.355
23469SOL     OW72180  10.561   5.824   2.922
23469SOL    HW172181  10.504   5.780   2.859
23469SOL    HW272182  10.627   5.759   2.944
23470SOL     OW72183   0.120   6.742  11.636
23470SOL    HW172184   0.030   6.721  11.612
23470SOL    HW272185   0.133   6.830  11.602
23471SOL     OW72186   3.260  10.691   6.710
23471SOL    HW172187   3.291  10.627   6.646
23471SOL    HW272188   3.339  10.740   6.734
23472SOL     OW72189  10.247   4.739  11.622
23472SOL    HW172190  10.168   4.789  11.600
23472SOL    HW272191  10.290   4.792  11.689
23473SOL     OW72192   0.216  12.388  10.456
23473SOL    HW172193   0.259  12.446  10.394
23473SOL    HW272194   0.265  12.399  10.537
23474SOL     OW72195   7.561   0.004   0.203
23474SOL    HW172196   7.645   0.016   0.248
23474SOL    HW272197   7.584  14.839   0.120
23475SOL     OW72198   2.837  10.610   3.202
23475SOL    HW172199   2.930  10.589   3.194
23475SOL    HW272200   2.815  10.586   3.292
23476SOL     OW72201  14.263  11.888   5.829
23476SOL    HW172202  14.186  11.945   5.819
23476SOL    HW272203  14.251  11.848   5.915
23477SOL     OW72204  10.537   3.057   4.391
23477SOL    HW172205  10.558   3.097   4.476
23477SOL    HW272206  10.494   3.127   4.342
23478SOL     OW72207   1.877   2.340  10.324
23478SOL    HW172208   1.944   2.363  10.259
23478SOL    HW272209   1.876   2.415  10.384
23479SOL     OW72210   4.126   3.564   9.290
23479SOL    HW172211   4.072   3.524   9.358
23479SOL    HW272212   4.104   3.657   9.294
23480SOL     OW72213  10.706   0.478   3.190
23480SOL    HW172214  10.691   0.482   3.285
23480SOL    HW272215  10.787   0.429   3.180
23481SOL     OW72216  13.478   8.619  14.360
23481SOL    HW172217  13.499   8.535  14.401
23481SOL    HW272218  13.385   8.632  14.378
23482SOL     OW72219   4.043   2.592   6.762
23482SOL    HW172220   4.129   2.588   6.804
23482SOL    HW272221   4.031   2.506   6.723
23483SOL     OW72222  10.620   1.048  13.597
23483SOL    HW172223  10.677   1.030  13.672
23483SOL    HW272224  10.609   0.962  13.555
23484SOL     OW72225   7.573   7.823   3.326
23484SOL    HW172226   7.662   7.858   3.321
23484SOL    HW272227   7.525   7.870   3.257
23485SOL     OW72228  10.739  13.954  14.274
23485SOL    HW172229  10.799  13.879  14.280
23485SOL    HW272230  10.673  13.937  14.341
23486SOL     OW72231  10.432   9.702   5.265
23486SOL    HW172232  10.441   9.751   5.348
23486SOL    HW272233  10.431   9.770   5.198
23487SOL     OW72234  12.381  10.905   7.015
23487SOL    HW172235  12.441  10.837   7.045
23487SOL    HW272236  12.304  10.857   6.986
23488SOL     OW72237  14.323  14.618   0.914
23488SOL    HW172238  14.373  14.683   0.864
23488SOL    HW272239  14.372  14.536   0.902
23489SOL     OW72240  11.175   4.761   3.046
23489SOL    HW172241  11.223   4.730   2.969
23489SOL    HW272242  11.199   4.699   3.115
23490SOL     OW72243   3.446  11.166  14.108
23490SOL    HW172244   3.527  11.186  14.155
23490SOL    HW272245   3.381  11.155  14.177
23491SOL     OW72246   0.999   7.163   3.578
23491SOL    HW172247   0.935   7.100   3.612
23491SOL    HW272248   1.035   7.205   3.656
23492SOL     OW72249   2.767   0.504   1.883
23492SOL    HW172250   2.695   0.442   1.871
23492SOL    HW272251   2.776   0.546   1.797
23493SOL     OW72252  12.083   0.828   8.194
23493SOL    HW172253  11.998   0.856   8.229
23493SOL    HW272254  12.145   0.849   8.264
23494SOL     OW72255   5.835   0.830   0.405
23494SOL    HW172256   5.882   0.757   0.446
23494SOL    HW272257   5.811   0.887   0.478
23495SOL     OW72258   2.980   4.474   4.504
23495SOL    HW172259   2.941   4.531   4.570
23495SOL    HW272260   3.046   4.423   4.551
23496SOL     OW72261   3.470   7.674   0.834
23496SOL    HW172262   3.425   7.665   0.750
23496SOL    HW272263   3.542   7.610   0.829
23497SOL     OW72264   6.333  11.516   4.829
23497SOL    HW172265   6.381  11.579   4.775
23497SOL    HW272266   6.258  11.492   4.774
23498SOL     OW72267   4.035   3.619   4.907
23498SOL    HW172268   3.989   3.650   4.985
23498SOL    HW272269   4.091   3.547   4.938
23499SOL     OW72270   6.229   6.981   7.301
23499SOL    HW172271   6.218   6.993   7.206
23499SOL    HW272272   6.139   6.977   7.334
23500SOL     OW72273   4.589   2.163   8.664
23500SOL    HW172274   4.502   2.146   8.700
23500SOL    HW272275   4.601   2.095   8.598
23501SOL     OW72276   4.651   1.812   2.231
23501SOL    HW172277   4.564   1.773   2.238
23501SOL    HW272278   4.681   1.789   2.144
23502SOL     OW72279   2.740   7.631   1.985
23502SOL    HW172280   2.676   7.575   2.029
23502SOL    HW272281   2.822   7.612   2.030
23503SOL     OW72282  11.340   9.405   5.994
23503SOL    HW172283  11.332   9.316   5.958
23503SOL    HW272284  11.346   9.391   6.089
23504SOL     OW72285   4.415   1.066   4.485
23504SOL    HW172286   4.448   1.031   4.402
23504SOL    HW272287   4.392   1.157   4.466
23505SOL     OW72288   1.019   9.926   9.157
23505SOL    HW172289   0.976   9.904   9.074
23505SOL    HW272290   0.977   9.869   9.222
23506SOL     OW72291   5.509   4.685   3.975
23506SOL    HW172292   5.486   4.729   3.893
23506SOL    HW272293   5.431   4.692   4.029
23507SOL     OW72294   3.420   2.035   8.952
23507SOL    HW172295   3.513   2.016   8.953
23507SOL    HW272296   3.407   2.090   8.874
23508SOL     OW72297   6.708   2.385   7.687
23508SOL    HW172298   6.756   2.309   7.722
23508SOL    HW272299   6.686   2.436   7.765
23509SOL     OW72300   6.565   6.201   5.201
23509SOL    HW172301   6.659   6.221   5.201
23509SOL    HW272302   6.524   6.283   5.172
23510SOL     OW72303  12.784   0.988   9.097
23510SOL    HW172304  12.845   0.937   9.150
23510SOL    HW272305  12.797   1.078   9.126
23511SOL     OW72306   3.350   9.722   7.849
23511SOL    HW172307   3.303   9.792   7.804
23511SOL    HW272308   3.442   9.737   7.826
23512SOL     OW72309   5.436  12.804   0.979
23512SOL    HW172310   5.522  12.770   0.955
23512SOL    HW272311   5.374  12.741   0.942
23513SOL     OW72312  11.274  12.220   6.705
23513SOL    HW172313  11.289  12.130   6.736
23513SOL    HW272314  11.353  12.267   6.732
23514SOL     OW72315  14.577   6.568  14.736
23514SOL    HW172316  14.640   6.531  14.674
23514SOL    HW272317  14.586   6.515  14.815
23515SOL     OW72318  13.227  12.533   8.903
23515SOL    HW172319  13.229  12.487   8.819
23515SOL    HW272320  13.316  12.528   8.936
23516SOL     OW72321   7.045   4.740   3.360
23516SOL    HW172322   6.994   4.675   3.312
23516SOL    HW272323   6.988   4.765   3.433
23517SOL     OW72324   6.688   6.442  12.911
23517SOL    HW172325   6.662   6.388  12.836
23517SOL    HW272326   6.742   6.511  12.874
23518SOL     OW72327   8.288   9.551   7.769
23518SOL    HW172328   8.208   9.502   7.753
23518SOL    HW272329   8.358   9.486   7.760
23519SOL     OW72330   7.463   0.872   8.289
23519SOL    HW172331   7.546   0.840   8.325
23519SOL    HW272332   7.458   0.832   8.202
23520SOL     OW72333  10.799  10.204  12.950
23520SOL    HW172334  10.845  10.150  12.886
23520SOL    HW272335  10.863  10.270  12.977
23521SOL     OW72336  13.011  11.700  10.843
23521SOL    HW172337  12.941  11.743  10.793
23521SOL    HW272338  13.075  11.674  10.777
23522SOL     OW72339   5.365  11.167  13.664
23522SOL    HW172340   5.427  11.173  13.737
23522SOL    HW272341   5.412  11.206  13.590
23523SOL     OW72342   5.099   6.193   0.083
23523SOL    HW172343   5.063   6.263   0.028
23523SOL    HW272344   5.158   6.238   0.144
23524SOL     OW72345   5.423   7.592   8.332
23524SOL    HW172346   5.506   7.597   8.379
23524SOL    HW272347   5.444   7.619   8.243
23525SOL     OW72348   1.877   5.498  14.850
23525SOL    HW172349   1.872   5.479  14.757
23525SOL    HW272350   1.970   5.492  14.871
23526SOL     OW72351   7.877  13.022   0.594
23526SOL    HW172352   7.851  13.006   0.503
23526SOL    HW272353   7.876  12.935   0.634
23527SOL     OW72354   2.111  10.801   4.484
23527SOL    HW172355   2.195  10.840   4.508
23527SOL    HW272356   2.125  10.767   4.396
23528SOL     OW72357   1.590   6.188   8.499
23528SOL    HW172358   1.545   6.257   8.549
23528SOL    HW272359   1.526   6.161   8.434
23529SOL     OW72360   3.869   7.750   8.123
23529SOL    HW172361   3.884   7.812   8.193
23529SOL    HW272362   3.942   7.688   8.128
23530SOL     OW72363  12.625   8.212  10.421
23530SOL    HW172364  12.541   8.235  10.461
23530SOL    HW272365  12.619   8.247  10.332
23531SOL     OW72366   3.600  10.481  12.979
23531SOL    HW172367   3.531  10.515  13.037
23531SOL    HW272368   3.679  10.482  13.033
23532SOL     OW72369   4.006  13.500  14.805
23532SOL    HW172370   3.917  13.513  14.770
23532SOL    HW272371   4.059  13.567  14.761
23533SOL     OW72372   5.166  14.269   1.297
23533SOL    HW172373   5.101  14.339   1.304
23533SOL    HW272374   5.163  14.243   1.205
23534SOL     OW72375   0.311   5.394  12.409
23534SOL    HW172376   0.393   5.442  12.418
23534SOL    HW272377   0.248   5.443  12.461
23535SOL     OW72378   4.870   4.180   6.588
23535SOL    HW172379   4.935   4.250   6.594
23535SOL    HW272380   4.857   4.167   6.494
23536SOL     OW72381   9.456   9.011   2.648
23536SOL    HW172382   9.387   9.029   2.584
23536SOL    HW272383   9.459   8.916   2.655
23537SOL     OW72384   6.567   8.697   7.522
23537SOL    HW172385   6.566   8.614   7.474
23537SOL    HW272386   6.608   8.759   7.463
23538SOL     OW72387  14.696  12.717  13.578
23538SOL    HW172388  14.720  12.685  13.491
23538SOL    HW272389  14.747  12.798  13.588
23539SOL     OW72390   5.133   0.750   2.028
23539SOL    HW172391   5.198   0.817   2.006
23539SOL    HW272392   5.107   0.769   2.118
23540SOL     OW72393   6.912  12.086  13.032
23540SOL    HW172394   6.961  12.097  13.113
23540SOL    HW272395   6.828  12.048  13.060
23541SOL     OW72396   3.440  10.032  13.364
23541SOL    HW172397   3.519  10.025  13.417
23541SOL    HW272398   3.471  10.026  13.273
23542SOL     OW72399   8.209   8.801  13.678
23542SOL    HW172400   8.188   8.882  13.632
23542SOL    HW272401   8.300   8.783  13.654
23543SOL     OW72402   7.709  11.359   9.794
23543SOL    HW172403   7.787  11.307   9.813
23543SOL    HW272404   7.635  11.300   9.811
23544SOL     OW72405   7.165   8.984   3.289
23544SOL    HW172406   7.149   8.909   3.346
23544SOL    HW272407   7.249   9.019   3.319
23545SOL     OW72408   9.009   5.187   2.841
23545SOL    HW172409   8.967   5.119   2.788
23545SOL    HW272410   9.008   5.152   2.930
23546SOL     OW72411  10.897   9.573  13.445
23546SOL    HW172412  10.973   9.531  13.485
23546SOL    HW272413  10.896   9.539  13.356
23547SOL     OW72414  14.681   6.276  12.661
23547SOL    HW172415  14.660   6.265  12.568
23547SOL    HW272416  14.777   6.276  12.663
23548SOL     OW72417   1.541   5.444  11.168
23548SOL    HW172418   1.609   5.387  11.205
23548SOL    HW272419   1.564   5.451  11.076
23549SOL     OW72420   1.305   6.386  10.456
23549SOL    HW172421   1.346   6.302  10.477
23549SOL    HW272422   1.259   6.412  10.536
23550SOL     OW72423   8.487  10.294  10.292
23550SOL    HW172424   8.531  10.210  10.301
23550SOL    HW272425   8.451  10.312  10.379
23551SOL     OW72426   5.153   2.387  10.207
23551SOL    HW172427   5.189   2.321  10.267
23551SOL    HW272428   5.180   2.471  10.245
23552SOL     OW72429  10.506   4.090   5.852
23552SOL    HW172430  10.533   4.007   5.813
23552SOL    HW272431  10.486   4.069   5.943
23553SOL     OW72432  12.175   9.170   8.656
23553SOL    HW172433  12.230   9.141   8.729
23553SOL    HW272434  12.105   9.220   8.698
23554SOL     OW72435  11.955  11.840   0.306
23554SOL    HW172436  11.917  11.813   0.222
23554SOL    HW272437  11.991  11.927   0.288
23555SOL     OW72438  11.470   2.158  13.795
23555SOL    HW172439  11.412   2.127  13.865
23555SOL    HW272440  11.511   2.079  13.762
23556SOL     OW72441   1.677   6.025   4.410
23556SOL    HW172442   1.680   5.933   4.384
23556SOL    HW272443   1.760   6.061   4.381
23557SOL     OW72444  14.691   2.913  13.409
23557SOL    HW172445  14.598   2.936  13.409
23557SOL    HW272446  14.736   2.998  13.415
23558SOL     OW72447  12.314   7.086   3.520
23558SOL    HW172448  12.330   6.992   3.526
23558SOL    HW272449  12.338   7.120   3.607
23559SOL     OW72450   9.636  12.807   8.519
23559SOL    HW172451   9.681  12.725   8.539
23559SOL    HW272452   9.588  12.828   8.600
23560SOL     OW72453   7.459   7.510   8.453
23560SOL    HW172454   7.550   7.522   8.481
23560SOL    HW272455   7.466   7.479   8.363
23561SOL     OW72456   2.954   0.341   2.323
23561SOL    HW172457   3.031   0.288   2.345
23561SOL    HW272458   2.928   0.380   2.406
23562SOL     OW72459   0.126  10.346   7.350
23562SOL    HW172460   0.071  10.284   7.301
23562SOL    HW272461   0.168  10.292   7.417
23563SOL     OW72462   8.830  13.661   2.470
23563SOL    HW172463   8.862  13.611   2.545
23563SOL    HW272464   8.785  13.736   2.508
23564SOL     OW72465  14.027  11.692  11.940
23564SOL    HW172466  13.979  11.645  12.008
23564SOL    HW272467  13.960  11.740  11.892
23565SOL     OW72468  12.240   7.811   4.124
23565SOL    HW172469  12.334   7.826   4.131
23565SOL    HW272470  12.204   7.844   4.206
23566SOL     OW72471   2.853   4.231   8.893
23566SOL    HW172472   2.804   4.289   8.834
23566SOL    HW272473   2.857   4.148   8.847
23567SOL     OW72474   4.704   7.551   3.649
23567SOL    HW172475   4.640   7.483   3.668
23567SOL    HW272476   4.657   7.615   3.596
23568SOL     OW72477   5.746   2.826   3.440
23568SOL    HW172478   5.665   2.789   3.405
23568SOL    HW272479   5.796   2.750   3.471
23569SOL     OW72480   3.295   9.953   2.591
23569SOL    HW172481   3.202   9.930   2.591
23569SOL    HW272482   3.334   9.893   2.527
23570SOL     OW72483   6.508   5.935   3.809
23570SOL    HW172484   6.441   5.911   3.745
23570SOL    HW272485   6.465   6.003   3.862
23571SOL     OW72486   3.376   4.743  13.639
23571SOL    HW172487   3.457   4.752  13.689
23571SOL    HW272488   3.403   4.700  13.558
23572SOL     OW72489   6.409   8.112  14.826
23572SOL    HW172490   6.458   8.134  14.747
23572SOL    HW272491   6.447   8.029  14.855
23573SOL     OW72492  12.167  12.648  12.377
23573SOL    HW172493  12.078  12.636  12.344
23573SOL    HW272494  12.166  12.605  12.463
23574SOL     OW72495   0.922   2.672  12.125
23574SOL    HW172496   0.931   2.578  12.137
23574SOL    HW272497   0.829   2.689  12.139
23575SOL     OW72498  10.006  10.624   3.935
23575SOL    HW172499  10.029  10.558   3.999
23575SOL    HW272500   9.973  10.698   3.987
23576SOL     OW72501   3.962  14.566   5.508
23576SOL    HW172502   4.011  14.490   5.541
23576SOL    HW272503   4.008  14.642   5.544
23577SOL     OW72504   1.541   7.270   7.713
23577SOL    HW172505   1.496   7.186   7.708
23577SOL    HW272506   1.484   7.325   7.766
23578SOL     OW72507   9.058   5.640   0.911
23578SOL    HW172508   9.131   5.702   0.913
23578SOL    HW272509   9.093   5.561   0.951
23579SOL     OW72510  12.099   3.996   5.738
23579SOL    HW172511  12.020   3.978   5.788
23579SOL    HW272512  12.078   4.073   5.687
23580SOL     OW72513   2.826   2.206  13.762
23580SOL    HW172514   2.910   2.176  13.727
23580SOL    HW272515   2.827   2.301  13.750
23581SOL     OW72516  10.335   5.119   3.367
23581SOL    HW172517  10.274   5.113   3.294
23581SOL    HW272518  10.366   5.209   3.366
23582SOL     OW72519  14.219   5.298  13.924
23582SOL    HW172520  14.143   5.337  13.966
23582SOL    HW272521  14.292   5.318  13.982
23583SOL     OW72522  14.095   8.504   1.460
23583SOL    HW172523  14.179   8.466   1.486
23583SOL    HW272524  14.075   8.567   1.530
23584SOL     OW72525   1.673   8.954   9.330
23584SOL    HW172526   1.590   8.915   9.358
23584SOL    HW272527   1.672   9.043   9.364
23585SOL     OW72528  12.627  11.254  13.659
23585SOL    HW172529  12.616  11.162  13.634
23585SOL    HW272530  12.579  11.302  13.592
23586SOL     OW72531   3.805   9.071  10.880
23586SOL    HW172532   3.729   9.093  10.826
23586SOL    HW272533   3.816   9.148  10.936
23587SOL     OW72534   8.168  12.154  10.861
23587SOL    HW172535   8.239  12.133  10.800
23587SOL    HW272536   8.213  12.184  10.940
23588SOL     OW72537   4.409  13.102   1.979
23588SOL    HW172538   4.417  13.175   1.917
23588SOL    HW272539   4.362  13.034   1.931
23589SOL     OW72540  12.674   0.141  10.373
23589SOL    HW172541  12.622   0.220  10.360
23589SOL    HW272542  12.631   0.075  10.319
23590SOL     OW72543  12.002   2.531   4.366
23590SOL    HW172544  11.919   2.541   4.320
23590SOL    HW272545  11.987   2.572   4.451
23591SOL     OW72546  14.280  14.245  10.366
23591SOL    HW172547  14.283  14.293  10.283
23591SOL    HW272548  14.372  14.241  10.395
23592SOL     OW72549  10.024   3.877  13.929
23592SOL    HW172550  10.029   3.919  14.015
23592SOL    HW272551   9.935   3.840  13.926
23593SOL     OW72552   6.704   8.886  12.489
23593SOL    HW172553   6.691   8.870  12.583
23593SOL    HW272554   6.777   8.829  12.464
23594SOL     OW72555   4.932   8.953   8.857
23594SOL    HW172556   4.986   8.876   8.871
23594SOL    HW272557   4.939   8.970   8.763
23595SOL     OW72558   8.858  12.954   6.457
23595SOL    HW172559   8.939  12.913   6.486
23595SOL    HW272560   8.789  12.894   6.485
23596SOL     OW72561  11.364  14.842  11.360
23596SOL    HW172562  11.454  14.875  11.370
23596SOL    HW272563  11.318  14.877  11.437
23597SOL     OW72564  11.142   2.549   3.986
23597SOL    HW172565  11.145   2.619   4.052
23597SOL    HW272566  11.137   2.596   3.903
23598SOL     OW72567   8.101   1.867   1.476
23598SOL    HW172568   8.148   1.852   1.558
23598SOL    HW272569   8.168   1.864   1.408
23599SOL     OW72570   8.306   4.627   9.528
23599SOL    HW172571   8.218   4.641   9.562
23599SOL    HW272572   8.336   4.715   9.504
23600SOL     OW72573  13.478  14.431   5.793
23600SOL    HW172574  13.388  14.407   5.772
23600SOL    HW272575  13.472  14.519   5.829
23601SOL     OW72576   1.072  10.541  13.116
23601SOL    HW172577   1.071  10.453  13.153
23601SOL    HW272578   1.106  10.596  13.187
23602SOL     OW72579   6.099  11.624   1.257
23602SOL    HW172580   6.135  11.599   1.172
23602SOL    HW272581   6.084  11.719   1.249
23603SOL     OW72582   3.823   7.092   8.128
23603SOL    HW172583   3.863   7.060   8.209
23603SOL    HW272584   3.825   7.187   8.136
23604SOL     OW72585   6.314  12.212   8.244
23604SOL    HW172586   6.221  12.234   8.244
23604SOL    HW272587   6.345  12.243   8.330
23605SOL     OW72588  10.239  10.127   4.298
23605SOL    HW172589  10.327  10.115   4.263
23605SOL    HW272590  10.237  10.075   4.378
23606SOL     OW72591  11.548  11.589  13.888
23606SOL    HW172592  11.592  11.527  13.946
23606SOL    HW272593  11.520  11.660  13.945
23607SOL     OW72594  11.534   2.551  13.414
23607SOL    HW172595  11.464   2.534  13.351
23607SOL    HW272596  11.488   2.570  13.496
23608SOL     OW72597   9.266   9.100  13.668
23608SOL    HW172598   9.348   9.122  13.711
23608SOL    HW272599   9.289   9.092  13.575
23609SOL     OW72600   6.314   4.711  13.093
23609SOL    HW172601   6.264   4.630  13.081
23609SOL    HW272602   6.360   4.722  13.010
23610SOL     OW72603  13.032  11.636   2.210
23610SOL    HW172604  12.995  11.725   2.211
23610SOL    HW272605  12.976  11.586   2.268
23611SOL     OW72606  12.164   1.531   2.976
23611SOL    HW172607  12.174   1.541   2.882
23611SOL    HW272608  12.148   1.438   2.989
23612SOL     OW72609   9.446   6.796  12.920
23612SOL    HW172610   9.533   6.809  12.880
23612SOL    HW272611   9.429   6.878  12.966
23613SOL     OW72612   6.289  11.495   2.096
23613SOL    HW172613   6.291  11.551   2.173
23613SOL    HW272614   6.345  11.539   2.032
23614SOL     OW72615   2.580   4.236   1.415
23614SOL    HW172616   2.597   4.215   1.324
23614SOL    HW272617   2.578   4.332   1.418
23615SOL     OW72618  10.874   0.076   3.486
23615SOL    HW172619  10.949   0.130   3.464
23615SOL    HW272620  10.894  14.868   3.448
23616SOL     OW72621   6.262  11.522   9.066
23616SOL    HW172622   6.354  11.544   9.053
23616SOL    HW272623   6.244  11.544   9.157
23617SOL     OW72624  11.768   6.054   4.097
23617SOL    HW172625  11.673   6.054   4.113
23617SOL    HW272626  11.794   5.962   4.104
23618SOL     OW72627   7.100  11.433   3.197
23618SOL    HW172628   7.123  11.404   3.285
23618SOL    HW272629   7.147  11.373   3.139
23619SOL     OW72630   3.500  13.514   7.219
23619SOL    HW172631   3.438  13.523   7.147
23619SOL    HW272632   3.521  13.604   7.244
23620SOL     OW72633  11.954  14.856  10.451
23620SOL    HW172634  12.049  14.849  10.465
23620SOL    HW272635  11.916  14.800  10.518
23621SOL     OW72636   8.498  11.522   3.537
23621SOL    HW172637   8.413  11.481   3.524
23621SOL    HW272638   8.525  11.495   3.624
23622SOL     OW72639   5.919  10.439  11.611
23622SOL    HW172640   5.924  10.503  11.540
23622SOL    HW272641   5.958  10.360  11.574
23623SOL     OW72642   3.365  14.237   2.001
23623SOL    HW172643   3.433  14.302   2.021
23623SOL    HW272644   3.387  14.206   1.914
23624SOL     OW72645  11.816  12.539  10.676
23624SOL    HW172646  11.820  12.597  10.752
23624SOL    HW272647  11.757  12.583  10.615
23625SOL     OW72648   0.135   3.900   8.767
23625SOL    HW172649   0.086   3.832   8.721
23625SOL    HW272650   0.133   3.874   8.859
23626SOL     OW72651   5.191   9.846   7.811
23626SOL    HW172652   5.201   9.940   7.796
23626SOL    HW272653   5.275   9.818   7.847
23627SOL     OW72654   7.298   2.195   2.970
23627SOL    HW172655   7.221   2.154   3.010
23627SOL    HW272656   7.264   2.239   2.892
23628SOL     OW72657  14.548   9.158   1.780
23628SOL    HW172658  14.504   9.224   1.726
23628SOL    HW272659  14.476   9.107   1.818
23629SOL     OW72660   5.692  14.170   4.464
23629SOL    HW172661   5.718  14.110   4.395
23629SOL    HW272662   5.746  14.248   4.450
23630SOL     OW72663   3.038   5.699   7.022
23630SOL    HW172664   3.132   5.680   7.026
23630SOL    HW272665   3.032   5.793   7.034
23631SOL     OW72666  13.375  12.015  12.920
23631SOL    HW172667  13.353  12.104  12.947
23631SOL    HW272668  13.291  11.968  12.923
23632SOL     OW72669  14.517   7.601   7.174
23632SOL    HW172670  14.592   7.657   7.157
23632SOL    HW272671  14.513   7.542   7.100
23633SOL     OW72672   2.562   3.536  11.032
23633SOL    HW172673   2.542   3.457  11.082
23633SOL    HW272674   2.611   3.505  10.956
23634SOL     OW72675  13.156   8.848  10.881
23634SOL    HW172676  13.134   8.850  10.788
23634SOL    HW272677  13.228   8.910  10.890
23635SOL     OW72678   7.707   0.310  10.190
23635SOL    HW172679   7.645   0.367  10.145
23635SOL    HW272680   7.778   0.296  10.128
23636SOL     OW72681   4.376  11.360  10.171
23636SOL    HW172682   4.407  11.390  10.085
23636SOL    HW272683   4.398  11.432  10.230
23637SOL     OW72684   0.464   9.692   7.649
23637SOL    HW172685   0.402   9.646   7.592
23637SOL    HW272686   0.416   9.704   7.731
23638SOL     OW72687  12.761   1.835  12.332
23638SOL    HW172688  12.699   1.770  12.300
23638SOL    HW272689  12.841   1.785  12.349
23639SOL     OW72690   3.634   9.596   9.614
23639SOL    HW172691   3.724   9.573   9.590
23639SOL    HW272692   3.605   9.654   9.544
23640SOL     OW72693   6.816  10.560  10.533
23640SOL    HW172694   6.906  10.592  10.541
23640SOL    HW272695   6.769  10.630  10.489
23641SOL     OW72696  13.694   2.236   0.800
23641SOL    HW172697  13.714   2.216   0.891
23641SOL    HW272698  13.601   2.255   0.800
23642SOL     OW72699   2.748  12.712  12.073
23642SOL    HW172700   2.719  12.648  12.138
23642SOL    HW272701   2.843  12.715  12.083
23643SOL     OW72702   2.856  11.392   0.639
23643SOL    HW172703   2.940  11.374   0.596
23643SOL    HW272704   2.814  11.457   0.582
23644SOL     OW72705  10.893  11.040   7.890
23644SOL    HW172706  10.984  11.070   7.886
23644SOL    HW272707  10.889  10.969   7.825
23645SOL     OW72708   6.290  14.156  11.982
23645SOL    HW172709   6.237  14.079  12.000
23645SOL    HW272710   6.376  14.135  12.019
23646SOL     OW72711   1.352  14.409   7.469
23646SOL    HW172712   1.371  14.500   7.491
23646SOL    HW272713   1.424  14.383   7.412
23647SOL     OW72714   5.151   6.034  13.576
23647SOL    HW172715   5.239   6.026  13.612
23647SOL    HW272716   5.158   5.996  13.488
23648SOL     OW72717   3.595   0.132   6.932
23648SOL    HW172718   3.596   0.183   7.013
23648SOL    HW272719   3.629   0.192   6.866
23649SOL     OW72720   5.541   7.769   6.372
23649SOL    HW172721   5.554   7.851   6.419
23649SOL    HW272722   5.546   7.701   6.439
23650SOL     OW72723   5.543  13.390   9.262
23650SOL    HW172724   5.471  13.369   9.323
23650SOL    HW272725   5.503  13.445   9.195
23651SOL     OW72726   4.205   2.855   1.491
23651SOL    HW172727   4.110   2.850   1.485
23651SOL    HW272728   4.235   2.865   1.400
23652SOL     OW72729  12.303  12.554  13.827
23652SOL    HW172730  12.293  12.538  13.733
23652SOL    HW272731  12.384  12.508  13.850
23653SOL     OW72732   7.841   5.509  11.524
23653SOL    HW172733   7.810   5.419  11.533
23653SOL    HW272734   7.897   5.508  11.446
23654SOL     OW72735  13.018   2.802  13.284
23654SOL    HW172736  13.016   2.898  13.283
23654SOL    HW272737  13.089   2.779  13.225
23655SOL     OW72738   6.737  13.339   3.402
23655SOL    HW172739   6.818  13.386   3.384
23655SOL    HW272740   6.742  13.261   3.346
23656SOL     OW72741   5.619   6.538   0.767
23656SOL    HW172742   5.632   6.628   0.797
23656SOL    HW272743   5.528   6.518   0.792
23657SOL     OW72744  13.161  14.747  12.364
23657SOL    HW172745  13.126  14.695  12.435
23657SOL    HW272746  13.245  14.779  12.397
23658SOL     OW72747   6.551  11.947  13.857
23658SOL    HW172748   6.597  12.031  13.855
23658SOL    HW272749   6.468  11.964  13.812
23659SOL     OW72750   4.299  10.088   5.282
23659SOL    HW172751   4.313  10.182   5.283
23659SOL    HW272752   4.371  10.052   5.333
23660SOL     OW72753  13.964   2.363   6.961
23660SOL    HW172754  13.876   2.399   6.972
23660SOL    HW272755  13.997   2.407   6.882
23661SOL     OW72756   6.639  14.072   0.682
23661SOL    HW172757   6.577  14.005   0.713
23661SOL    HW272758   6.637  14.140   0.750
23662SOL     OW72759   4.846   5.128   9.451
23662SOL    HW172760   4.839   5.188   9.377
23662SOL    HW272761   4.895   5.053   9.416
23663SOL     OW72762   5.788  14.555  10.105
23663SOL    HW172763   5.699  14.575  10.133
23663SOL    HW272764   5.842  14.572  10.183
23664SOL     OW72765  12.804   5.665   3.468
23664SOL    HW172766  12.877   5.676   3.406
23664SOL    HW272767  12.781   5.755   3.493
23665SOL     OW72768  10.656   9.358  10.238
23665SOL    HW172769  10.610   9.442  10.243
23665SOL    HW272770  10.733   9.369  10.293
23666SOL     OW72771   9.573   4.051   8.451
23666SOL    HW172772   9.663   4.076   8.430
23666SOL    HW272773   9.539   4.124   8.502
23667SOL     OW72774   4.103   4.729   8.887
23667SOL    HW172775   4.061   4.783   8.820
23667SOL    HW272776   4.170   4.786   8.925
23668SOL     OW72777   3.843  12.700  13.977
23668SOL    HW172778   3.902  12.679  14.050
23668SOL    HW272779   3.783  12.765  14.013
23669SOL     OW72780   9.180   5.544   8.750
23669SOL    HW172781   9.202   5.497   8.669
23669SOL    HW272782   9.087   5.527   8.762
23670SOL     OW72783   6.917   7.631  10.025
23670SOL    HW172784   7.006   7.665  10.027
23670SOL    HW272785   6.922   7.551   9.973
23671SOL     OW72786  10.581   3.832  14.251
23671SOL    HW172787  10.522   3.862  14.320
23671SOL    HW272788  10.523   3.804  14.180
23672SOL     OW72789  14.761  11.143   2.529
23672SOL    HW172790  14.768  11.180   2.617
23672SOL    HW272791  14.681  11.091   2.531
23673SOL     OW72792   7.083   0.257  12.220
23673SOL    HW172793   7.152   0.308  12.178
23673SOL    HW272794   7.060   0.308  12.298
23674SOL     OW72795   0.956   0.303  13.187
23674SOL    HW172796   0.943   0.328  13.278
23674SOL    HW272797   0.944   0.208  13.186
23675SOL     OW72798   8.160   9.390   3.272
23675SOL    HW172799   8.237   9.392   3.215
23675SOL    HW272800   8.121   9.303   3.256
23676SOL     OW72801  10.619   6.532  10.983
23676SOL    HW172802  10.586   6.622  10.980
23676SOL    HW272803  10.592   6.499  11.069
23677SOL     OW72804  12.676   2.165   9.510
23677SOL    HW172805  12.615   2.180   9.582
23677SOL    HW272806  12.627   2.186   9.431
23678SOL     OW72807   1.785   3.813   0.528
23678SOL    HW172808   1.866   3.765   0.510
23678SOL    HW272809   1.800   3.853   0.614
23679SOL     OW72810   1.874   9.767   8.913
23679SOL    HW172811   1.829   9.778   8.997
23679SOL    HW272812   1.935   9.695   8.928
23680SOL     OW72813   3.607   9.688  12.933
23680SOL    HW172814   3.584   9.659  13.022
23680SOL    HW272815   3.604   9.608  12.881
23681SOL     OW72816  14.513   8.054   6.624
23681SOL    HW172817  14.524   7.962   6.598
23681SOL    HW272818  14.592   8.075   6.673
23682SOL     OW72819  13.065  14.346   9.855
23682SOL    HW172820  13.073  14.343   9.950
23682SOL    HW272821  12.973  14.323   9.838
23683SOL     OW72822   5.459   5.521   5.798
23683SOL    HW172823   5.479   5.495   5.887
23683SOL    HW272824   5.518   5.594   5.780
23684SOL     OW72825   5.366  11.609  11.837
23684SOL    HW172826   5.348  11.524  11.797
23684SOL    HW272827   5.462  11.615  11.838
23685SOL     OW72828  13.156   5.755   8.197
23685SOL    HW172829  13.188   5.808   8.271
23685SOL    HW272830  13.214   5.778   8.125
23686SOL     OW72831   8.302   0.760   5.413
23686SOL    HW172832   8.365   0.701   5.454
23686SOL    HW272833   8.348   0.797   5.338
23687SOL     OW72834  11.318   5.806  12.378
23687SOL    HW172835  11.325   5.851  12.462
23687SOL    HW272836  11.228   5.772  12.376
23688SOL     OW72837   0.213   3.445   6.945
23688SOL    HW172838   0.129   3.450   6.901
23688SOL    HW272839   0.235   3.352   6.946
23689SOL     OW72840   9.362  13.877   6.861
23689SOL    HW172841   9.438  13.885   6.918
23689SOL    HW272842   9.291  13.919   6.910
23690SOL     OW72843   9.781   3.586  14.067
23690SOL    HW172844   9.833   3.546  13.997
23690SOL    HW272845   9.691   3.560  14.046
23691SOL     OW72846   4.187   5.086  10.909
23691SOL    HW172847   4.106   5.036  10.917
23691SOL    HW272848   4.243   5.032  10.853
23692SOL     OW72849  13.032  12.987   4.270
23692SOL    HW172850  13.021  13.026   4.183
23692SOL    HW272851  13.086  12.909   4.254
23693SOL     OW72852   6.444   1.184  12.855
23693SOL    HW172853   6.393   1.104  12.864
23693SOL    HW272854   6.502   1.184  12.932
23694SOL     OW72855   7.869   7.387   5.245
23694SOL    HW172856   7.902   7.310   5.290
23694SOL    HW272857   7.881   7.368   5.152
23695SOL     OW72858   3.478  12.709   9.988
23695SOL    HW172859   3.560  12.759   9.990
23695SOL    HW272860   3.451  12.713   9.896
23696SOL     OW72861   4.620   1.675   9.020
23696SOL    HW172862   4.651   1.763   9.042
23696SOL    HW272863   4.620   1.673   8.924
23697SOL     OW72864   7.568   0.012   1.704
23697SOL    HW172865   7.535  14.850   1.624
23697SOL    HW272866   7.650  14.844   1.722
23698SOL     OW72867   1.416   1.884  11.762
23698SOL    HW172868   1.415   1.798  11.719
23698SOL    HW272869   1.490   1.929  11.723
23699SOL     OW72870   2.309   2.478   5.452
23699SOL    HW172871   2.391   2.473   5.402
23699SOL    HW272872   2.314   2.562   5.498
23700SOL     OW72873   4.887   6.799   8.044
23700SOL    HW172874   4.866   6.888   8.014
23700SOL    HW272875   4.911   6.752   7.965
23701SOL     OW72876   0.546   1.296  14.681
23701SOL    HW172877   0.596   1.326  14.605
23701SOL    HW272878   0.500   1.218  14.649
23702SOL     OW72879  12.693   6.651   2.917
23702SOL    HW172880  12.661   6.567   2.947
23702SOL    HW272881  12.613   6.702   2.900
23703SOL     OW72882   7.415  12.942   6.546
23703SOL    HW172883   7.376  13.030   6.543
23703SOL    HW272884   7.412  12.918   6.638
23704SOL     OW72885   3.620   5.701  12.862
23704SOL    HW172886   3.677   5.667  12.793
23704SOL    HW272887   3.531   5.688  12.830
23705SOL     OW72888   7.921  13.371   5.842
23705SOL    HW172889   7.952  13.460   5.826
23705SOL    HW272890   7.886  13.342   5.758
23706SOL     OW72891   2.263   9.035  12.836
23706SOL    HW172892   2.218   9.112  12.803
23706SOL    HW272893   2.352   9.065  12.853
23707SOL     OW72894  11.772   8.121   2.598
23707SOL    HW172895  11.794   8.212   2.581
23707SOL    HW272896  11.678   8.122   2.617
23708SOL     OW72897   0.423   7.872   1.864
23708SOL    HW172898   0.432   7.792   1.917
23708SOL    HW272899   0.497   7.926   1.890
23709SOL     OW72900  11.521   1.929   0.853
23709SOL    HW172901  11.616   1.922   0.858
23709SOL    HW272902  11.489   1.875   0.926
23710SOL     OW72903   2.441   3.039   7.123
23710SOL    HW172904   2.506   2.981   7.162
23710SOL    HW272905   2.358   3.012   7.161
23711SOL     OW72906   0.525  11.105  10.566
23711SOL    HW172907   0.516  11.119  10.471
23711SOL    HW272908   0.463  11.167  10.605
23712SOL     OW72909   6.840   7.640   4.215
23712SOL    HW172910   6.766   7.609   4.162
23712SOL    HW272911   6.916   7.592   4.180
23713SOL     OW72912   0.862  12.752  11.885
23713SOL    HW172913   0.925  12.807  11.931
23713SOL    HW272914   0.776  12.779  11.918
23714SOL     OW72915  14.694   2.873   0.640
23714SOL    HW172916  14.736   2.906   0.561
23714SOL    HW272917  14.718   2.936   0.708
23715SOL     OW72918  13.355   6.244   1.164
23715SOL    HW172919  13.320   6.196   1.089
23715SOL    HW272920  13.404   6.317   1.126
23716SOL     OW72921   4.553   3.858  12.545
23716SOL    HW172922   4.592   3.789  12.491
23716SOL    HW272923   4.519   3.811  12.622
23717SOL     OW72924   7.049  12.761   4.514
23717SOL    HW172925   6.996  12.840   4.501
23717SOL    HW272926   6.999  12.692   4.470
23718SOL     OW72927  13.146   0.266   7.117
23718SOL    HW172928  13.115   0.184   7.076
23718SOL    HW272929  13.086   0.333   7.084
23719SOL     OW72930  13.389   7.589   3.355
23719SOL    HW172931  13.399   7.684   3.356
23719SOL    HW272932  13.478   7.555   3.357
23720SOL     OW72933   3.821   1.894   6.910
23720SOL    HW172934   3.917   1.895   6.904
23720SOL    HW272935   3.799   1.801   6.923
23721SOL     OW72936   9.193   8.338   5.269
23721SOL    HW172937   9.225   8.294   5.190
23721SOL    HW272938   9.152   8.419   5.236
23722SOL     OW72939   3.809   9.938   2.150
23722SOL    HW172940   3.727   9.959   2.106
23722SOL    HW272941   3.825   9.845   2.130
23723SOL     OW72942   9.263  14.877   4.214
23723SOL    HW172943   9.333  14.852   4.275
23723SOL    HW272944   9.192   0.030   4.271
23724SOL     OW72945   2.704   0.875  12.504
23724SOL    HW172946   2.751   0.814  12.447
23724SOL    HW272947   2.661   0.935  12.444
23725SOL     OW72948   4.822  10.768   8.087
23725SOL    HW172949   4.773  10.836   8.134
23725SOL    HW272950   4.859  10.814   8.012
23726SOL     OW72951   7.583  14.677  11.487
23726SOL    HW172952   7.630  14.718  11.559
23726SOL    HW272953   7.576  14.746  11.421
23727SOL     OW72954   0.520   5.606   7.396
23727SOL    HW172955   0.431   5.615   7.363
23727SOL    HW272956   0.547   5.518   7.368
23728SOL     OW72957   3.905   2.842   0.351
23728SOL    HW172958   3.928   2.783   0.280
23728SOL    HW272959   3.826   2.887   0.320
23729SOL     OW72960   4.990  12.476   8.170
23729SOL    HW172961   4.920  12.535   8.140
23729SOL    HW272962   4.965  12.390   8.135
23730SOL     OW72963   5.860  12.769  14.160
23730SOL    HW172964   5.805  12.798  14.233
23730SOL    HW272965   5.910  12.695  14.196
23731SOL     OW72966   4.916   6.286   5.852
23731SOL    HW172967   4.980   6.297   5.923
23731SOL    HW272968   4.938   6.201   5.813
23732SOL     OW72969   8.140  11.378  13.468
23732SOL    HW172970   8.124  11.445  13.402
23732SOL    HW272971   8.231  11.351  13.454
23733SOL     OW72972   4.195   0.094   8.401
23733SOL    HW172973   4.193   0.174   8.453
23733SOL    HW272974   4.146   0.030   8.454
23734SOL     OW72975   0.033   7.708   7.492
23734SOL    HW172976   0.027   7.726   7.586
23734SOL    HW272977   0.079   7.624   7.486
23735SOL     OW72978  14.745   4.282  10.064
23735SOL    HW172979  14.702   4.365  10.045
23735SOL    HW272980  14.830   4.288  10.019
23736SOL     OW72981  14.708   8.717   0.357
23736SOL    HW172982  14.704   8.628   0.391
23736SOL    HW272983  14.802   8.738   0.356
23737SOL     OW72984  14.516   0.842   4.733
23737SOL    HW172985  14.538   0.928   4.770
23737SOL    HW272986  14.581   0.829   4.664
23738SOL     OW72987  13.956   8.262   2.987
23738SOL    HW172988  14.019   8.257   2.914
23738SOL    HW272989  13.924   8.173   2.997
23739SOL     OW72990  10.472   4.281  10.528
23739SOL    HW172991  10.458   4.270  10.434
23739SOL    HW272992  10.402   4.229  10.568
23740SOL     OW72993  13.483  13.508   5.340
23740SOL    HW172994  13.397  13.537   5.369
23740SOL    HW272995  13.471  13.416   5.315
23741SOL     OW72996   9.903   7.109   9.518
23741SOL    HW172997   9.922   7.055   9.442
23741SOL    HW272998   9.915   7.199   9.487
23742SOL     OW72999  14.205  13.465  10.265
23742SOL    HW173000  14.243  13.493  10.348
23742SOL    HW273001  14.165  13.380  10.284
23743SOL     OW73002  14.083   7.328   1.645
23743SOL    HW173003  14.167   7.307   1.605
23743SOL    HW273004  14.103   7.340   1.738
23744SOL     OW73005   1.207   1.786   0.478
23744SOL    HW173006   1.286   1.795   0.425
23744SOL    HW273007   1.239   1.770   0.567
23745SOL     OW73008   5.641  13.681   2.828
23745SOL    HW173009   5.578  13.633   2.774
23745SOL    HW273010   5.611  13.667   2.917
23746SOL     OW73011   6.813   9.518   7.534
23746SOL    HW173012   6.886   9.570   7.568
23746SOL    HW273013   6.852   9.461   7.468
23747SOL     OW73014   2.071   1.994  11.881
23747SOL    HW173015   2.131   1.932  11.840
23747SOL    HW273016   2.107   2.008  11.968
23748SOL     OW73017   3.486   9.947  13.106
23748SOL    HW173018   3.537   9.899  13.041
23748SOL    HW273019   3.440  10.014  13.057
23749SOL     OW73020  10.550   9.673  12.588
23749SOL    HW173021  10.574   9.603  12.527
23749SOL    HW273022  10.633   9.715  12.610
23750SOL     OW73023   9.050  13.740   6.666
23750SOL    HW173024   9.145  13.729   6.664
23750SOL    HW273025   9.037  13.834   6.682
23751SOL     OW73026  12.518  11.322   3.146
23751SOL    HW173027  12.478  11.289   3.065
23751SOL    HW273028  12.465  11.283   3.216
23752SOL     OW73029   7.316   4.669   8.661
23752SOL    HW173030   7.368   4.646   8.737
23752SOL    HW273031   7.256   4.737   8.692
23753SOL     OW73032  10.583   9.826   5.903
23753SOL    HW173033  10.619   9.844   5.990
23753SOL    HW273034  10.503   9.879   5.899
23754SOL     OW73035  14.201  13.705   7.929
23754SOL    HW173036  14.288  13.713   7.889
23754SOL    HW273037  14.218  13.680   8.020
23755SOL     OW73038   5.421   1.631   2.677
23755SOL    HW173039   5.381   1.567   2.619
23755SOL    HW273040   5.467   1.579   2.743
23756SOL     OW73041  11.652   5.261  12.123
23756SOL    HW173042  11.689   5.264  12.211
23756SOL    HW273043  11.654   5.352  12.093
23757SOL     OW73044   5.360  11.091  11.171
23757SOL    HW173045   5.312  11.015  11.138
23757SOL    HW273046   5.366  11.150  11.096
23758SOL     OW73047   4.105  14.579   1.019
23758SOL    HW173048   4.073  14.617   1.101
23758SOL    HW273049   4.025  14.552   0.973
23759SOL     OW73050  13.953  10.143   5.912
23759SOL    HW173051  13.938  10.049   5.919
23759SOL    HW273052  14.047  10.150   5.894
23760SOL     OW73053  13.315  14.019   6.293
23760SOL    HW173054  13.235  14.012   6.241
23760SOL    HW273055  13.356  14.100   6.264
23761SOL     OW73056  11.427  11.630   6.407
23761SOL    HW173057  11.496  11.571   6.438
23761SOL    HW273058  11.463  11.718   6.420
23762SOL     OW73059   4.741  11.884   7.891
23762SOL    HW173060   4.698  11.956   7.844
23762SOL    HW273061   4.831  11.885   7.858
23763SOL     OW73062   7.135  10.033   4.876
23763SOL    HW173063   7.191  10.065   4.805
23763SOL    HW273064   7.078   9.969   4.834
23764SOL     OW73065  10.587   0.521   2.082
23764SOL    HW173066  10.589   0.487   1.992
23764SOL    HW273067  10.512   0.476   2.122
23765SOL     OW73068  14.612   4.430  14.692
23765SOL    HW173069  14.597   4.362  14.626
23765SOL    HW273070  14.529   4.436  14.740
23766SOL     OW73071   8.953   2.038   5.195
23766SOL    HW173072   9.016   1.998   5.255
23766SOL    HW273073   8.902   1.964   5.163
23767SOL     OW73074   2.652  11.137  11.108
23767SOL    HW173075   2.737  11.177  11.127
23767SOL    HW273076   2.667  11.085  11.029
23768SOL     OW73077  12.829  10.546   1.079
23768SOL    HW173078  12.786  10.631   1.068
23768SOL    HW273079  12.820  10.526   1.172
23769SOL     OW73080   1.001  13.779   1.867
23769SOL    HW173081   0.930  13.737   1.820
23769SOL    HW273082   0.989  13.752   1.958
23770SOL     OW73083   8.520   2.336   0.243
23770SOL    HW173084   8.592   2.324   0.304
23770SOL    HW273085   8.471   2.411   0.278
23771SOL     OW73086   7.124   1.915   7.504
23771SOL    HW173087   7.213   1.883   7.490
23771SOL    HW273088   7.128   2.009   7.484
23772SOL     OW73089   7.276   3.217   6.781
23772SOL    HW173090   7.223   3.241   6.857
23772SOL    HW273091   7.307   3.129   6.800
23773SOL     OW73092   2.614   5.611   2.810
23773SOL    HW173093   2.679   5.644   2.748
23773SOL    HW273094   2.565   5.689   2.837
23774SOL     OW73095  10.763   2.778   9.042
23774SOL    HW173096  10.784   2.829   8.964
23774SOL    HW273097  10.739   2.842   9.108
23775SOL     OW73098   8.571  12.723  14.852
23775SOL    HW173099   8.479  12.725   0.003
23775SOL    HW273100   8.572  12.658  14.781
23776SOL     OW73101   7.391  12.703  13.720
23776SOL    HW173102   7.348  12.714  13.635
23776SOL    HW273103   7.349  12.767  13.777
23777SOL     OW73104   6.293   0.665   6.785
23777SOL    HW173105   6.224   0.667   6.720
23777SOL    HW273106   6.374   0.652   6.735
23778SOL     OW73107   9.402  11.440  10.079
23778SOL    HW173108   9.336  11.494  10.036
23778SOL    HW273109   9.481  11.495  10.078
23779SOL     OW73110  14.791   5.895  14.759
23779SOL    HW173111  14.817   5.958  14.826
23779SOL    HW273112  14.862   5.898  14.695
23780SOL     OW73113   7.674   4.969   8.736
23780SOL    HW173114   7.617   4.997   8.664
23780SOL    HW273115   7.726   4.898   8.698
23781SOL     OW73116   1.227   3.468   2.072
23781SOL    HW173117   1.272   3.424   2.000
23781SOL    HW273118   1.143   3.423   2.078
23782SOL     OW73119   6.451   9.167   0.643
23782SOL    HW173120   6.379   9.114   0.678
23782SOL    HW273121   6.412   9.251   0.622
23783SOL     OW73122   7.413  11.112   0.921
23783SOL    HW173123   7.345  11.052   0.953
23783SOL    HW273124   7.450  11.067   0.845
23784SOL     OW73125  12.224   9.674  12.059
23784SOL    HW173126  12.263   9.587  12.071
23784SOL    HW273127  12.297   9.728  12.029
23785SOL     OW73128   4.416   0.321   1.023
23785SOL    HW173129   4.483   0.293   0.960
23785SOL    HW273130   4.431   0.265   1.099
23786SOL     OW73131  12.185  12.448   6.890
23786SOL    HW173132  12.131  12.526   6.885
23786SOL    HW273133  12.228  12.454   6.976
23787SOL     OW73134   7.228  10.139   0.215
23787SOL    HW173135   7.209  10.231   0.196
23787SOL    HW273136   7.166  10.116   0.284
23788SOL     OW73137   7.994   4.999   0.317
23788SOL    HW173138   8.000   5.074   0.259
23788SOL    HW273139   7.920   5.019   0.374
23789SOL     OW73140   8.300  10.047  14.219
23789SOL    HW173141   8.216  10.008  14.241
23789SOL    HW273142   8.289  10.140  14.237
23790SOL     OW73143  11.227   1.548   2.258
23790SOL    HW173144  11.226   1.641   2.235
23790SOL    HW273145  11.269   1.505   2.184
23791SOL     OW73146   3.665   8.258   1.667
23791SOL    HW173147   3.619   8.333   1.704
23791SOL    HW273148   3.718   8.295   1.597
23792SOL     OW73149  11.177   6.962  14.072
23792SOL    HW173150  11.143   7.007  13.995
23792SOL    HW273151  11.237   6.896  14.037
23793SOL     OW73152   7.493  10.835   4.707
23793SOL    HW173153   7.466  10.757   4.658
23793SOL    HW273154   7.557  10.802   4.770
23794SOL     OW73155  12.842   7.493   1.598
23794SOL    HW173156  12.802   7.419   1.552
23794SOL    HW273157  12.798   7.495   1.683
23795SOL     OW73158   4.900   8.211   2.457
23795SOL    HW173159   4.942   8.291   2.426
23795SOL    HW273160   4.810   8.237   2.477
23796SOL     OW73161   6.100  11.326   7.226
23796SOL    HW173162   6.105  11.253   7.288
23796SOL    HW273163   6.030  11.302   7.166
23797SOL     OW73164  10.272  11.060  14.064
23797SOL    HW173165  10.300  10.975  14.098
23797SOL    HW273166  10.305  11.061  13.974
23798SOL     OW73167   1.601  14.822  10.217
23798SOL    HW173168   1.655  14.810  10.296
23798SOL    HW273169   1.527  14.876  10.247
23799SOL     OW73170  12.895   7.667   9.032
23799SOL    HW173171  12.840   7.636   9.104
23799SOL    HW273172  12.851   7.636   8.953
23800SOL     OW73173  10.591  14.874   8.593
23800SOL    HW173174  10.583   0.014   8.500
23800SOL    HW273175  10.538   0.064   8.635
23801SOL     OW73176   8.083   9.946  10.718
23801SOL    HW173177   8.152   9.957  10.783
23801SOL    HW273178   8.061   9.853  10.721
23802SOL     OW73179  12.184   7.072  11.781
23802SOL    HW173180  12.210   7.004  11.844
23802SOL    HW273181  12.111   7.033  11.732
23803SOL     OW73182   6.836  12.242   6.124
23803SOL    HW173183   6.915  12.200   6.157
23803SOL    HW273184   6.770  12.173   6.126
23804SOL     OW73185  13.841   8.680   6.074
23804SOL    HW173186  13.899   8.728   6.133
23804SOL    HW273187  13.838   8.591   6.111
23805SOL     OW73188  14.659   9.340   2.097
23805SOL    HW173189  14.610   9.346   2.014
23805SOL    HW273190  14.680   9.247   2.105
23806SOL     OW73191   6.845  10.011   4.913
23806SOL    HW173192   6.800   9.995   4.830
23806SOL    HW273193   6.858  10.106   4.914
23807SOL     OW73194   6.198  12.923   6.577
23807SOL    HW173195   6.164  12.961   6.496
23807SOL    HW273196   6.291  12.946   6.577
23808SOL     OW73197   4.572   8.640  11.219
23808SOL    HW173198   4.556   8.685  11.136
23808SOL    HW273199   4.612   8.706  11.275
23809SOL     OW73200   8.044   5.189   9.732
23809SOL    HW173201   8.095   5.161   9.808
23809SOL    HW273202   7.969   5.131   9.731
23810SOL     OW73203   9.611   3.756   4.496
23810SOL    HW173204   9.580   3.844   4.474
23810SOL    HW273205   9.593   3.746   4.589
23811SOL     OW73206   5.412   6.010  11.136
23811SOL    HW173207   5.372   6.092  11.162
23811SOL    HW273208   5.386   5.997  11.045
23812SOL     OW73209  12.549   1.416   0.509
23812SOL    HW173210  12.487   1.471   0.461
23812SOL    HW273211  12.600   1.372   0.440
23813SOL     OW73212  11.268   7.192  12.657
23813SOL    HW173213  11.352   7.234  12.636
23813SOL    HW273214  11.210   7.220  12.586
23814SOL     OW73215   6.133   5.831   8.506
23814SOL    HW173216   6.138   5.875   8.421
23814SOL    HW273217   6.112   5.901   8.568
23815SOL     OW73218   5.204   0.985   5.368
23815SOL    HW173219   5.289   0.959   5.406
23815SOL    HW273220   5.210   0.958   5.276
23816SOL     OW73221   4.812   2.373   5.163
23816SOL    HW173222   4.823   2.279   5.149
23816SOL    HW273223   4.841   2.387   5.253
23817SOL     OW73224   5.933   1.109  11.713
23817SOL    HW173225   5.942   1.202  11.692
23817SOL    HW273226   5.887   1.072  11.638
23818SOL     OW73227   4.110  10.214   2.470
23818SOL    HW173228   4.059  10.222   2.389
23818SOL    HW273229   4.046  10.194   2.537
23819SOL     OW73230   6.591  14.453   3.487
23819SOL    HW173231   6.532  14.413   3.551
23819SOL    HW273232   6.649  14.509   3.538
23820SOL     OW73233   2.690   1.621   4.869
23820SOL    HW173234   2.777   1.653   4.846
23820SOL    HW273235   2.632   1.695   4.852
23821SOL     OW73236   0.439   4.281   9.060
23821SOL    HW173237   0.353   4.313   9.089
23821SOL    HW273238   0.488   4.361   9.038
23822SOL     OW73239  11.186   2.055   7.432
23822SOL    HW173240  11.140   1.973   7.450
23822SOL    HW273241  11.274   2.042   7.466
23823SOL     OW73242  12.896   8.971   5.523
23823SOL    HW173243  12.864   8.958   5.434
23823SOL    HW273244  12.840   8.916   5.577
23824SOL     OW73245   8.206   5.244   2.513
23824SOL    HW173246   8.269   5.175   2.496
23824SOL    HW273247   8.196   5.246   2.608
23825SOL     OW73248  12.495   0.993   9.361
23825SOL    HW173249  12.405   0.967   9.381
23825SOL    HW273250  12.519   1.053   9.432
23826SOL     OW73251   2.109   9.348   2.815
23826SOL    HW173252   2.024   9.389   2.799
23826SOL    HW273253   2.172   9.420   2.809
23827SOL     OW73254   2.457   1.807  10.347
23827SOL    HW173255   2.447   1.785  10.255
23827SOL    HW273256   2.429   1.899  10.353
23828SOL     OW73257   2.130   2.342   8.272
23828SOL    HW173258   2.140   2.428   8.230
23828SOL    HW273259   2.043   2.345   8.312
23829SOL     OW73260   9.753   3.289   4.179
23829SOL    HW173261   9.744   3.304   4.273
23829SOL    HW273262   9.846   3.267   4.167
23830SOL     OW73263  12.005   1.892   8.642
23830SOL    HW173264  11.951   1.917   8.567
23830SOL    HW273265  11.962   1.814   8.677
23831SOL     OW73266   1.286   9.600   3.831
23831SOL    HW173267   1.251   9.661   3.766
23831SOL    HW273268   1.371   9.637   3.855
23832SOL     OW73269   4.673   8.702   2.054
23832SOL    HW173270   4.751   8.699   1.999
23832SOL    HW273271   4.688   8.636   2.122
23833SOL     OW73272   2.651   8.178  10.609
23833SOL    HW173273   2.612   8.203  10.693
23833SOL    HW273274   2.695   8.095  10.627
23834SOL     OW73275   1.114  11.463  12.075
23834SOL    HW173276   1.137  11.405  12.003
23834SOL    HW273277   1.104  11.405  12.150
23835SOL     OW73278  13.151   8.035   5.596
23835SOL    HW173279  13.173   8.080   5.677
23835SOL    HW273280  13.073   7.984   5.618
23836SOL     OW73281   0.629  11.042   0.483
23836SOL    HW173282   0.563  11.000   0.539
23836SOL    HW273283   0.579  11.100   0.426
23837SOL     OW73284  12.685   1.016  11.563
23837SOL    HW173285  12.684   1.035  11.657
23837SOL    HW273286  12.730   1.092  11.524
23838SOL     OW73287   8.953   6.518  14.762
23838SOL    HW173288   8.980   6.601  14.802
23838SOL    HW273289   8.895   6.478  14.827
23839SOL     OW73290   0.608  10.503   6.127
23839SOL    HW173291   0.633  10.550   6.207
23839SOL    HW273292   0.529  10.548   6.096
23840SOL     OW73293  11.044  14.383  10.962
23840SOL    HW173294  11.120  14.406  11.016
23840SOL    HW273295  10.984  14.340  11.023
23841SOL     OW73296  14.464  13.148   0.251
23841SOL    HW173297  14.427  13.234   0.272
23841SOL    HW273298  14.498  13.115   0.334
23842SOL     OW73299   4.691   2.793   8.278
23842SOL    HW173300   4.640   2.853   8.333
23842SOL    HW273301   4.725   2.848   8.208
23843SOL     OW73302   9.357   9.644  11.579
23843SOL    HW173303   9.409   9.650  11.499
23843SOL    HW273304   9.280   9.595  11.554
23844SOL     OW73305   4.164   6.320   6.006
23844SOL    HW173306   4.082   6.346   6.047
23844SOL    HW273307   4.229   6.382   6.040
23845SOL     OW73308   1.530   1.580   3.122
23845SOL    HW173309   1.446   1.580   3.078
23845SOL    HW273310   1.574   1.659   3.089
23846SOL     OW73311   7.126   6.558   9.265
23846SOL    HW173312   7.092   6.506   9.338
23846SOL    HW273313   7.099   6.510   9.186
23847SOL     OW73314   3.498  10.243   6.800
23847SOL    HW173315   3.505  10.327   6.846
23847SOL    HW273316   3.544  10.258   6.717
23848SOL     OW73317   7.532   1.277   3.370
23848SOL    HW173318   7.522   1.265   3.465
23848SOL    HW273319   7.586   1.355   3.361
23849SOL     OW73320  12.393   2.509   2.199
23849SOL    HW173321  12.419   2.558   2.277
23849SOL    HW273322  12.467   2.520   2.139
23850SOL     OW73323  14.362  12.023  13.702
23850SOL    HW173324  14.309  12.089  13.746
23850SOL    HW273325  14.384  12.062  13.617
23851SOL     OW73326  12.846   6.513   2.690
23851SOL    HW173327  12.869   6.584   2.750
23851SOL    HW273328  12.761   6.539   2.654
23852SOL     OW73329   7.091  10.107   0.440
23852SOL    HW173330   7.165  10.074   0.491
23852SOL    HW273331   7.018  10.051   0.467
23853SOL     OW73332   2.541   5.169   0.280
23853SOL    HW173333   2.543   5.120   0.198
23853SOL    HW273334   2.513   5.257   0.255
23854SOL     OW73335   0.887   9.879   1.137
23854SOL    HW173336   0.917   9.808   1.194
23854SOL    HW273337   0.948   9.879   1.063
23855SOL     OW73338  11.969  11.609   0.722
23855SOL    HW173339  12.012  11.580   0.803
23855SOL    HW273340  12.035  11.662   0.677
23856SOL     OW73341  12.595   8.645  13.451
23856SOL    HW173342  12.573   8.601  13.369
23856SOL    HW273343  12.680   8.609  13.476
23857SOL     OW73344   8.615  11.660  13.820
23857SOL    HW173345   8.564  11.588  13.784
23857SOL    HW273346   8.552  11.711  13.871
23858SOL     OW73347   4.161   2.021   7.988
23858SOL    HW173348   4.188   2.113   7.990
23858SOL    HW273349   4.068   2.025   7.964
23859SOL     OW73350   6.418   7.821   0.408
23859SOL    HW173351   6.441   7.767   0.333
23859SOL    HW273352   6.326   7.844   0.394
23860SOL     OW73353   3.090   6.096   8.961
23860SOL    HW173354   3.057   6.013   8.995
23860SOL    HW273355   3.022   6.126   8.901
23861SOL     OW73356   5.457   7.414   8.028
23861SOL    HW173357   5.512   7.352   8.077
23861SOL    HW273358   5.465   7.496   8.075
23862SOL     OW73359   5.693  13.458   5.757
23862SOL    HW173360   5.712  13.366   5.777
23862SOL    HW273361   5.717  13.505   5.837
23863SOL     OW73362   5.780   0.367   7.835
23863SOL    HW173363   5.816   0.366   7.746
23863SOL    HW273364   5.741   0.280   7.845
23864SOL     OW73365   3.012   0.590   9.799
23864SOL    HW173366   2.933   0.642   9.809
23864SOL    HW273367   2.984   0.513   9.750
23865SOL     OW73368   0.467  12.681  14.445
23865SOL    HW173369   0.399  12.618  14.420
23865SOL    HW273370   0.446  12.703  14.536
23866SOL     OW73371   9.884  12.361   5.754
23866SOL    HW173372   9.935  12.408   5.689
23866SOL    HW273373   9.817  12.315   5.703
23867SOL     OW73374   1.391  13.661   9.210
23867SOL    HW173375   1.369  13.753   9.203
23867SOL    HW273376   1.468  13.659   9.267
23868SOL     OW73377  10.783   1.650   0.707
23868SOL    HW173378  10.797   1.555   0.707
23868SOL    HW273379  10.797   1.676   0.798
23869SOL     OW73380   7.209  11.939  11.908
23869SOL    HW173381   7.130  11.980  11.942
23869SOL    HW273382   7.261  12.012  11.873
23870SOL     OW73383   4.906  12.329   9.693
23870SOL    HW173384   4.989  12.376   9.702
23870SOL    HW273385   4.875  12.351   9.605
23871SOL     OW73386   6.762   0.761   3.731
23871SOL    HW173387   6.686   0.791   3.681
23871SOL    HW273388   6.797   0.840   3.772
23872SOL     OW73389   2.329   8.476   4.466
23872SOL    HW173390   2.272   8.552   4.478
23872SOL    HW273391   2.385   8.476   4.544
23873SOL     OW73392   9.786  12.634   5.897
23873SOL    HW173393   9.859  12.582   5.861
23873SOL    HW273394   9.828  12.691   5.962
23874SOL     OW73395   0.017   7.863   3.823
23874SOL    HW173396   0.099   7.851   3.775
23874SOL    HW273397  14.865   7.951   3.799
23875SOL     OW73398   0.456  14.204   9.421
23875SOL    HW173399   0.511  14.282   9.416
23875SOL    HW273400   0.388  14.227   9.485
23876SOL     OW73401   4.447   5.464  10.958
23876SOL    HW173402   4.440   5.371  10.979
23876SOL    HW273403   4.476   5.465  10.866
23877SOL     OW73404   4.030  12.813   2.515
23877SOL    HW173405   4.092  12.778   2.579
23877SOL    HW273406   4.007  12.900   2.548
23878SOL     OW73407  11.929   5.898   9.266
23878SOL    HW173408  11.895   5.964   9.327
23878SOL    HW273409  11.922   5.939   9.180
23879SOL     OW73410  13.624   3.692   1.080
23879SOL    HW173411  13.676   3.751   1.135
23879SOL    HW273412  13.678   3.677   1.003
23880SOL     OW73413  13.997  12.888  11.596
23880SOL    HW173414  13.938  12.941  11.650
23880SOL    HW273415  13.996  12.801  11.637
23881SOL     OW73416   8.515   2.905  10.035
23881SOL    HW173417   8.556   2.820  10.018
23881SOL    HW273418   8.497   2.941   9.949
23882SOL     OW73419  12.166   8.560   2.633
23882SOL    HW173420  12.251   8.594   2.658
23882SOL    HW273421  12.184   8.473   2.596
23883SOL     OW73422   4.684   5.598  12.261
23883SOL    HW173423   4.615   5.533  12.249
23883SOL    HW273424   4.638   5.680  12.277
23884SOL     OW73425   6.744   2.509   1.197
23884SOL    HW173426   6.734   2.415   1.212
23884SOL    HW273427   6.757   2.546   1.285
23885SOL     OW73428   8.016  13.850   8.066
23885SOL    HW173429   8.075  13.811   8.132
23885SOL    HW273430   7.988  13.776   8.013
23886SOL     OW73431   9.654   4.085  10.501
23886SOL    HW173432   9.735   4.135  10.489
23886SOL    HW273433   9.587   4.152  10.513
23887SOL     OW73434   2.038  14.526  13.158
23887SOL    HW173435   1.973  14.505  13.091
23887SOL    HW273436   2.122  14.513  13.114
23888SOL     OW73437   7.994   6.928   8.247
23888SOL    HW173438   7.915   6.982   8.235
23888SOL    HW273439   8.064   6.992   8.261
23889SOL     OW73440   9.827   5.283   5.404
23889SOL    HW173441   9.792   5.234   5.478
23889SOL    HW273442   9.903   5.232   5.375
23890SOL     OW73443   4.469  11.771   9.947
23890SOL    HW173444   4.541  11.833   9.961
23890SOL    HW273445   4.431  11.759  10.034
23891SOL     OW73446  12.001  13.361  11.634
23891SOL    HW173447  11.975  13.291  11.574
23891SOL    HW273448  12.086  13.333  11.668
23892SOL     OW73449  14.337  10.879  12.750
23892SOL    HW173450  14.370  10.945  12.690
23892SOL    HW273451  14.252  10.914  12.779
23893SOL     OW73452  11.207   2.322   0.909
23893SOL    HW173453  11.115   2.304   0.927
23893SOL    HW273454  11.237   2.246   0.860
23894SOL     OW73455  11.726   2.966   3.953
23894SOL    HW173456  11.652   3.020   3.926
23894SOL    HW273457  11.769   3.016   4.022
23895SOL     OW73458   5.835   6.765  11.590
23895SOL    HW173459   5.839   6.681  11.545
23895SOL    HW273460   5.903   6.760  11.657
23896SOL     OW73461   7.172   2.421  10.568
23896SOL    HW173462   7.168   2.459  10.480
23896SOL    HW273463   7.081   2.398  10.588
23897SOL     OW73464   2.130   6.647   0.543
23897SOL    HW173465   2.193   6.623   0.611
23897SOL    HW273466   2.159   6.599   0.466
23898SOL     OW73467   2.035   7.275  10.620
23898SOL    HW173468   2.114   7.295  10.670
23898SOL    HW273469   2.068   7.243  10.536
23899SOL     OW73470  11.074  10.535   7.618
23899SOL    HW173471  11.122  10.467   7.571
23899SOL    HW273472  11.136  10.608   7.623
23900SOL     OW73473   9.211   2.828  11.994
23900SOL    HW173474   9.155   2.843  12.070
23900SOL    HW273475   9.188   2.898  11.933
23901SOL     OW73476   3.847   1.531   6.497
23901SOL    HW173477   3.863   1.594   6.427
23901SOL    HW273478   3.875   1.575   6.577
23902SOL     OW73479   9.678   8.649   0.355
23902SOL    HW173480   9.735   8.600   0.415
23902SOL    HW273481   9.619   8.698   0.413
23903SOL     OW73482   0.329  10.599   6.139
23903SOL    HW173483   0.306  10.684   6.103
23903SOL    HW273484   0.323  10.611   6.234
23904SOL     OW73485   5.942  14.569  11.907
23904SOL    HW173486   5.998  14.591  11.832
23904SOL    HW273487   5.955  14.475  11.919
23905SOL     OW73488   1.676  11.359   1.430
23905SOL    HW173489   1.760  11.370   1.387
23905SOL    HW273490   1.662  11.442   1.477
23906SOL     OW73491   0.760  13.052   6.636
23906SOL    HW173492   0.733  13.027   6.548
23906SOL    HW273493   0.703  13.125   6.659
23907SOL     OW73494   0.198  10.898   6.702
23907SOL    HW173495   0.178  10.805   6.691
23907SOL    HW273496   0.281  10.899   6.750
23908SOL     OW73497   1.908   1.921   4.816
23908SOL    HW173498   1.978   1.986   4.808
23908SOL    HW273499   1.953   1.842   4.846
23909SOL     OW73500   5.988  11.365   1.402
23909SOL    HW173501   6.039  11.432   1.356
23909SOL    HW273502   5.914  11.414   1.439
23910SOL     OW73503   6.142  12.533   0.547
23910SOL    HW173504   6.146  12.456   0.604
23910SOL    HW273505   6.220  12.584   0.568
23911SOL     OW73506   5.688   2.307   5.802
23911SOL    HW173507   5.724   2.244   5.739
23911SOL    HW273508   5.763   2.330   5.858
23912SOL     OW73509   9.754   0.787  12.209
23912SOL    HW173510   9.779   0.852  12.143
23912SOL    HW273511   9.777   0.828  12.292
23913SOL     OW73512   6.241  11.562   1.494
23913SOL    HW173513   6.188  11.598   1.423
23913SOL    HW273514   6.224  11.619   1.568
23914SOL     OW73515  11.869   2.495  12.079
23914SOL    HW173516  11.836   2.523  12.164
23914SOL    HW273517  11.856   2.571  12.022
23915SOL     OW73518   5.821   6.033  10.404
23915SOL    HW173519   5.727   6.045  10.417
23915SOL    HW273520   5.852   5.996  10.486
23916SOL     OW73521   8.512  12.452  13.352
23916SOL    HW173522   8.465  12.418  13.275
23916SOL    HW273523   8.477  12.401  13.425
23917SOL     OW73524  12.286  13.090  10.852
23917SOL    HW173525  12.249  13.172  10.884
23917SOL    HW273526  12.366  13.078  10.904
23918SOL     OW73527   6.785   5.628   0.539
23918SOL    HW173528   6.754   5.706   0.493
23918SOL    HW273529   6.756   5.640   0.630
23919SOL     OW73530   5.707  13.582   1.907
23919SOL    HW173531   5.796  13.614   1.920
23919SOL    HW273532   5.669  13.642   1.844
23920SOL     OW73533   7.198  13.000  13.092
23920SOL    HW173534   7.263  13.011  13.022
23920SOL    HW273535   7.128  13.062  13.070
23921SOL     OW73536  13.803  10.184  10.632
23921SOL    HW173537  13.756  10.267  10.627
23921SOL    HW273538  13.761  10.128  10.567
23922SOL     OW73539   9.361   6.599   4.508
23922SOL    HW173540   9.346   6.582   4.415
23922SOL    HW273541   9.434   6.662   4.510
23923SOL     OW73542   2.350   5.621   5.009
23923SOL    HW173543   2.329   5.528   5.016
23923SOL    HW273544   2.335   5.655   5.097
23924SOL     OW73545   3.976  10.150   3.124
23924SOL    HW173546   3.971  10.089   3.198
23924SOL    HW273547   3.889  10.147   3.084
23925SOL     OW73548   0.749  10.944  11.889
23925SOL    HW173549   0.738  10.896  11.971
23925SOL    HW273550   0.714  10.886  11.821
23926SOL     OW73551  10.107   8.199  11.636
23926SOL    HW173552  10.201   8.206  11.655
23926SOL    HW273553  10.074   8.138  11.702
23927SOL     OW73554   4.513  10.881   0.956
23927SOL    HW173555   4.602  10.871   0.991
23927SOL    HW273556   4.494  10.974   0.966
23928SOL     OW73557   8.441   1.685  12.527
23928SOL    HW173558   8.521   1.633  12.530
23928SOL    HW273559   8.409   1.684  12.618
23929SOL     OW73560   7.270   5.938   8.602
23929SOL    HW173561   7.218   5.869   8.642
23929SOL    HW273562   7.235   5.948   8.514
23930SOL     OW73563  10.152  13.185  11.774
23930SOL    HW173564  10.198  13.114  11.731
23930SOL    HW273565  10.183  13.264  11.729
23931SOL     OW73566   2.237   2.582   9.297
23931SOL    HW173567   2.326   2.575   9.261
23931SOL    HW273568   2.180   2.567   9.221
23932SOL     OW73569   7.187  12.285   6.053
23932SOL    HW173570   7.149  12.201   6.027
23932SOL    HW273571   7.148  12.349   5.993
23933SOL     OW73572  12.507   7.889   8.726
23933SOL    HW173573  12.472   7.806   8.695
23933SOL    HW273574  12.511   7.944   8.648
23934SOL     OW73575  12.849   8.506   1.509
23934SOL    HW173576  12.831   8.589   1.554
23934SOL    HW273577  12.767   8.457   1.514
23935SOL     OW73578  10.365  10.481   4.923
23935SOL    HW173579  10.400  10.462   5.010
23935SOL    HW273580  10.438  10.521   4.876
23936SOL     OW73581  14.341   6.901   6.854
23936SOL    HW173582  14.305   6.833   6.912
23936SOL    HW273583  14.276   6.971   6.858
23937SOL     OW73584  11.005  13.769  14.076
23937SOL    HW173585  11.082  13.817  14.106
23937SOL    HW273586  10.944  13.773  14.149
23938SOL     OW73587   7.261  14.618   1.666
23938SOL    HW173588   7.248  14.531   1.628
23938SOL    HW273589   7.236  14.607   1.758
23939SOL     OW73590   5.589   4.307   0.444
23939SOL    HW173591   5.649   4.315   0.518
23939SOL    HW273592   5.593   4.391   0.400
23940SOL     OW73593   8.630   3.723  14.383
23940SOL    HW173594   8.717   3.752  14.354
23940SOL    HW273595   8.569   3.764  14.322
23941SOL     OW73596  13.689  14.152   4.123
23941SOL    HW173597  13.620  14.218   4.126
23941SOL    HW273598  13.684  14.109   4.209
23942SOL     OW73599  14.657  12.759   2.223
23942SOL    HW173600  14.667  12.751   2.128
23942SOL    HW273601  14.745  12.749   2.258
23943SOL     OW73602  10.583  10.454  12.116
23943SOL    HW173603  10.588  10.364  12.149
23943SOL    HW273604  10.543  10.445  12.029
23944SOL     OW73605   8.073   2.781   6.153
23944SOL    HW173606   8.139   2.754   6.089
23944SOL    HW273607   8.027   2.701   6.176
23945SOL     OW73608   2.747   4.206  10.161
23945SOL    HW173609   2.778   4.206  10.071
23945SOL    HW273610   2.826   4.196  10.214
23946SOL     OW73611   4.427   4.030  12.104
23946SOL    HW173612   4.514   4.068  12.100
23946SOL    HW273613   4.419   3.997  12.194
23947SOL     OW73614   3.375   5.900   2.661
23947SOL    HW173615   3.412   5.853   2.735
23947SOL    HW273616   3.323   5.835   2.614
23948SOL     OW73617   9.553   5.222   6.759
23948SOL    HW173618   9.644   5.198   6.781
23948SOL    HW273619   9.534   5.297   6.814
23949SOL     OW73620   7.429   4.338   8.376
23949SOL    HW173621   7.360   4.391   8.415
23949SOL    HW273622   7.399   4.322   8.287
23950SOL     OW73623   6.747  13.764  13.275
23950SOL    HW173624   6.779  13.829  13.338
23950SOL    HW273625   6.665  13.733  13.312
23951SOL     OW73626   9.410   8.299   2.409
23951SOL    HW173627   9.446   8.388   2.411
23951SOL    HW273628   9.480   8.244   2.444
23952SOL     OW73629   1.658  14.195   3.376
23952SOL    HW173630   1.697  14.197   3.288
23952SOL    HW273631   1.624  14.106   3.384
23953SOL     OW73632   5.992  13.494   9.474
23953SOL    HW173633   5.926  13.557   9.445
23953SOL    HW273634   6.026  13.529   9.556
23954SOL     OW73635  11.074  14.416   3.277
23954SOL    HW173636  11.005  14.419   3.343
23954SOL    HW273637  11.093  14.323   3.265
23955SOL     OW73638   0.324   3.285   9.793
23955SOL    HW173639   0.348   3.307   9.703
23955SOL    HW273640   0.270   3.206   9.784
23956SOL     OW73641   5.356   6.963   5.483
23956SOL    HW173642   5.347   6.881   5.436
23956SOL    HW273643   5.266   6.988   5.505
23957SOL     OW73644   1.211  11.488   5.949
23957SOL    HW173645   1.303  11.511   5.960
23957SOL    HW273646   1.173  11.497   6.036
23958SOL     OW73647   6.829   8.867   9.229
23958SOL    HW173648   6.867   8.780   9.218
23958SOL    HW273649   6.853   8.892   9.318
23959SOL     OW73650   1.051   5.335   6.749
23959SOL    HW173651   1.069   5.421   6.787
23959SOL    HW273652   1.112   5.276   6.793
23960SOL     OW73653   4.381   8.400  13.474
23960SOL    HW173654   4.353   8.379  13.385
23960SOL    HW273655   4.462   8.449  13.463
23961SOL     OW73656  10.946   4.907   3.040
23961SOL    HW173657  10.921   4.934   3.128
23961SOL    HW273658  11.029   4.859   3.052
23962SOL     OW73659   5.429   3.729  11.148
23962SOL    HW173660   5.389   3.798  11.095
23962SOL    HW273661   5.403   3.750  11.238
23963SOL     OW73662   5.940   0.397  11.904
23963SOL    HW173663   5.971   0.486  11.919
23963SOL    HW273664   5.918   0.364  11.991
23964SOL     OW73665   0.108   4.455  14.693
23964SOL    HW173666   0.088   4.410  14.775
23964SOL    HW273667   0.069   4.400  14.626
23965SOL     OW73668   4.873   5.976  13.606
23965SOL    HW173669   4.954   6.007  13.647
23965SOL    HW273670   4.872   6.018  13.520
23966SOL     OW73671   4.989   1.723   0.960
23966SOL    HW173672   4.962   1.797   1.015
23966SOL    HW273673   4.911   1.667   0.954
23967SOL     OW73674   1.259   0.645   1.100
23967SOL    HW173675   1.248   0.559   1.141
23967SOL    HW273676   1.174   0.663   1.060
23968SOL     OW73677  12.983   7.748   6.629
23968SOL    HW173678  12.938   7.772   6.710
23968SOL    HW273679  12.937   7.670   6.599
23969SOL     OW73680  10.003   2.725   4.267
23969SOL    HW173681  10.038   2.643   4.304
23969SOL    HW273682   9.987   2.705   4.175
23970SOL     OW73683   0.880   4.235   0.994
23970SOL    HW173684   0.971   4.207   0.987
23970SOL    HW273685   0.860   4.273   0.909
23971SOL     OW73686   7.189  10.578   7.088
23971SOL    HW173687   7.117  10.587   7.151
23971SOL    HW273688   7.268  10.577   7.142
23972SOL     OW73689   0.618  14.635   0.456
23972SOL    HW173690   0.586  14.696   0.522
23972SOL    HW273691   0.710  14.657   0.446
23973SOL     OW73692  11.532   2.806  11.230
23973SOL    HW173693  11.530   2.739  11.298
23973SOL    HW273694  11.446   2.848  11.235
23974SOL     OW73695   7.614  13.039   9.173
23974SOL    HW173696   7.636  13.088   9.095
23974SOL    HW273697   7.530  12.997   9.152
23975SOL     OW73698  10.403   3.976  11.540
23975SOL    HW173699  10.409   3.951  11.632
23975SOL    HW273700  10.478   3.934  11.499
23976SOL     OW73701   9.482  10.062   1.346
23976SOL    HW173702   9.419  10.067   1.418
23976SOL    HW273703   9.427  10.053   1.268
23977SOL     OW73704  11.110  10.349  10.106
23977SOL    HW173705  11.097  10.440  10.080
23977SOL    HW273706  11.070  10.343  10.193
23978SOL     OW73707   5.523   8.171   3.176
23978SOL    HW173708   5.601   8.122   3.150
23978SOL    HW273709   5.536   8.189   3.269
23979SOL     OW73710   0.200   4.867   4.091
23979SOL    HW173711   0.208   4.783   4.136
23979SOL    HW273712   0.249   4.929   4.144
23980SOL     OW73713   4.911   8.396  10.811
23980SOL    HW173714   4.822   8.429  10.800
23980SOL    HW273715   4.906   8.305  10.783
23981SOL     OW73716  14.784  11.360   3.034
23981SOL    HW173717  14.752  11.295   3.097
23981SOL    HW273718  14.761  11.445   3.073
23982SOL     OW73719  12.313   8.440   9.529
23982SOL    HW173720  12.289   8.517   9.580
23982SOL    HW273721  12.236   8.422   9.475
23983SOL     OW73722  13.876   4.780   2.501
23983SOL    HW173723  13.891   4.689   2.476
23983SOL    HW273724  13.798   4.806   2.453
23984SOL     OW73725   5.880  14.749   1.872
23984SOL    HW173726   5.877  14.842   1.852
23984SOL    HW273727   5.820  14.709   1.810
23985SOL     OW73728  10.652   0.697   9.414
23985SOL    HW173729  10.699   0.769   9.372
23985SOL    HW273730  10.602   0.656   9.342
23986SOL     OW73731   2.221  14.020  11.035
23986SOL    HW173732   2.262  14.060  11.112
23986SOL    HW273733   2.154  13.962  11.072
23987SOL     OW73734   7.574   7.159   3.316
23987SOL    HW173735   7.570   7.183   3.408
23987SOL    HW273736   7.562   7.064   3.314
23988SOL     OW73737   0.087  10.440  11.114
23988SOL    HW173738   0.039  10.487  11.046
23988SOL    HW273739   0.179  10.447  11.088
23989SOL     OW73740   5.001  13.153  10.041
23989SOL    HW173741   4.980  13.211   9.968
23989SOL    HW273742   5.031  13.212  10.110
23990SOL     OW73743   3.857  11.560  13.112
23990SOL    HW173744   3.870  11.654  13.125
23990SOL    HW273745   3.934  11.532  13.062
23991SOL     OW73746  12.514   4.801   1.266
23991SOL    HW173747  12.556   4.855   1.332
23991SOL    HW273748  12.557   4.825   1.184
23992SOL     OW73749  11.103   4.011   3.720
23992SOL    HW173750  11.104   3.947   3.649
23992SOL    HW273751  11.194   4.038   3.730
23993SOL     OW73752   7.786   9.495   2.925
23993SOL    HW173753   7.732   9.476   3.002
23993SOL    HW273754   7.867   9.447   2.940
23994SOL     OW73755  12.019  10.881   9.434
23994SOL    HW173756  11.985  10.798   9.402
23994SOL    HW273757  12.111  10.863   9.454
23995SOL     OW73758  11.124   2.019  11.077
23995SOL    HW173759  11.137   2.074  11.154
23995SOL    HW273760  11.101   1.933  11.112
23996SOL     OW73761  12.637  11.602   3.599
23996SOL    HW173762  12.642  11.579   3.692
23996SOL    HW273763  12.716  11.565   3.561
23997SOL     OW73764  11.008   1.167   3.612
23997SOL    HW173765  11.073   1.125   3.555
23997SOL    HW273766  11.052   1.245   3.645
23998SOL     OW73767   2.352   3.508   4.963
23998SOL    HW173768   2.336   3.494   4.870
23998SOL    HW273769   2.283   3.567   4.992
23999SOL     OW73770  12.221  14.820  12.550
23999SOL    HW173771  12.271  14.741  12.568
23999SOL    HW273772  12.286   0.009  12.527
24000SOL     OW73773   4.701   2.173   2.038
24000SOL    HW173774   4.750   2.254   2.050
24000SOL    HW273775   4.711   2.153   1.944
24001SOL     OW73776   9.767   0.528  13.121
24001SOL    HW173777   9.819   0.608  13.117
24001SOL    HW273778   9.802   0.479  13.195
24002SOL     OW73779   4.117   0.563   6.646
24002SOL    HW173780   4.151   0.482   6.610
24002SOL    HW273781   4.193   0.606   6.685
24003SOL     OW73782  11.488   7.296   5.026
24003SOL    HW173783  11.401   7.285   4.990
24003SOL    HW273784  11.474   7.328   5.115
24004SOL     OW73785   4.008   1.147  12.185
24004SOL    HW173786   3.929   1.196  12.209
24004SOL    HW273787   4.004   1.140  12.090
24005SOL     OW73788  10.385   9.080  10.841
24005SOL    HW173789  10.357   9.020  10.772
24005SOL    HW273790  10.344   9.046  10.921
24006SOL     OW73791   8.122  11.060   6.774
24006SOL    HW173792   8.093  10.970   6.791
24006SOL    HW273793   8.180  11.052   6.698
24007SOL     OW73794   6.904   4.845  14.017
24007SOL    HW173795   6.923   4.825  13.925
24007SOL    HW273796   6.988   4.871  14.055
24008SOL     OW73797   5.933  12.326   2.706
24008SOL    HW173798   6.023  12.293   2.712
24008SOL    HW273799   5.882  12.251   2.672
24009SOL     OW73800   7.386  14.775   3.946
24009SOL    HW173801   7.323  14.765   4.017
24009SOL    HW273802   7.396  14.870   3.935
24010SOL     OW73803   2.162  12.901   3.292
24010SOL    HW173804   2.220  12.863   3.226
24010SOL    HW273805   2.222  12.936   3.359
24011SOL     OW73806   7.403   1.391   5.436
24011SOL    HW173807   7.496   1.414   5.443
24011SOL    HW273808   7.383   1.398   5.343
24012SOL     OW73809  14.568  13.661   3.474
24012SOL    HW173810  14.475  13.648   3.455
24012SOL    HW273811  14.599  13.720   3.405
24013SOL     OW73812  13.241  13.196   6.964
24013SOL    HW173813  13.319  13.145   6.985
24013SOL    HW273814  13.264  13.286   6.988
24014SOL     OW73815  10.906  12.804   1.338
24014SOL    HW173816  10.917  12.891   1.377
24014SOL    HW273817  10.986  12.791   1.287
24015SOL     OW73818  13.086   1.407   7.583
24015SOL    HW173819  13.090   1.355   7.502
24015SOL    HW273820  13.167   1.387   7.629
24016SOL     OW73821  10.361   6.147   1.670
24016SOL    HW173822  10.316   6.122   1.751
24016SOL    HW273823  10.436   6.198   1.700
24017SOL     OW73824  13.591   2.088   1.675
24017SOL    HW173825  13.600   2.184   1.674
24017SOL    HW273826  13.519   2.070   1.615
24018SOL     OW73827   4.362  10.749   8.189
24018SOL    HW173828   4.382  10.713   8.275
24018SOL    HW273829   4.319  10.833   8.207
24019SOL     OW73830  12.054  10.182  12.289
24019SOL    HW173831  12.142  10.146  12.287
24019SOL    HW273832  12.020  10.167  12.200
24020SOL     OW73833  10.030   5.775  10.148
24020SOL    HW173834   9.960   5.832  10.181
24020SOL    HW273835   9.992   5.687  10.151
24021SOL     OW73836   8.372   3.726  13.313
24021SOL    HW173837   8.397   3.818  13.304
24021SOL    HW273838   8.295   3.728  13.369
24022SOL     OW73839   7.618  10.447  11.837
24022SOL    HW173840   7.596  10.366  11.884
24022SOL    HW273841   7.663  10.501  11.902
24023SOL     OW73842   8.765  14.441   8.604
24023SOL    HW173843   8.855  14.473   8.595
24023SOL    HW273844   8.711  14.509   8.564
24024SOL     OW73845   6.206  11.890   7.853
24024SOL    HW173846   6.158  11.814   7.820
24024SOL    HW273847   6.148  11.964   7.838
24025SOL     OW73848   1.007   9.606   6.471
24025SOL    HW173849   0.933   9.664   6.487
24025SOL    HW273850   1.011   9.549   6.549
24026SOL     OW73851   4.084   0.060   4.172
24026SOL    HW173852   4.036   0.142   4.163
24026SOL    HW273853   4.078   0.039   4.265
24027SOL     OW73854  12.202  12.093  14.786
24027SOL    HW173855  12.246  12.010  14.771
24027SOL    HW273856  12.192  12.131  14.698
24028SOL     OW73857   7.685   8.110   2.680
24028SOL    HW173858   7.688   8.044   2.749
24028SOL    HW273859   7.776   8.131   2.662
24029SOL     OW73860   0.470   1.167   5.302
24029SOL    HW173861   0.549   1.116   5.285
24029SOL    HW273862   0.411   1.106   5.348
24030SOL     OW73863   5.349  11.404  13.075
24030SOL    HW173864   5.439  11.431  13.094
24030SOL    HW273865   5.295  11.458  13.133
24031SOL     OW73866  10.175   0.809  12.247
24031SOL    HW173867  10.144   0.723  12.221
24031SOL    HW273868  10.210   0.848  12.167
24032SOL     OW73869  14.092   8.741   2.219
24032SOL    HW173870  14.071   8.809   2.283
24032SOL    HW273871  14.143   8.677   2.269
24033SOL     OW73872  13.878   4.470  11.858
24033SOL    HW173873  13.887   4.408  11.786
24033SOL    HW273874  13.964   4.512  11.864
24034SOL     OW73875   6.321   5.977  14.232
24034SOL    HW173876   6.371   6.042  14.183
24034SOL    HW273877   6.263   6.028  14.288
24035SOL     OW73878   7.828   0.436   6.832
24035SOL    HW173879   7.904   0.381   6.849
24035SOL    HW273880   7.865   0.518   6.799
24036SOL     OW73881   5.649  12.511  11.049
24036SOL    HW173882   5.704  12.547  11.118
24036SOL    HW273883   5.669  12.417  11.049
24037SOL     OW73884   1.152   3.269   3.442
24037SOL    HW173885   1.201   3.344   3.408
24037SOL    HW273886   1.110   3.302   3.521
24038SOL     OW73887  11.497   5.757  13.412
24038SOL    HW173888  11.481   5.703  13.334
24038SOL    HW273889  11.453   5.710  13.483
24039SOL     OW73890  14.290   9.270   2.429
24039SOL    HW173891  14.233   9.328   2.380
24039SOL    HW273892  14.284   9.301   2.519
24040SOL     OW73893   4.773   0.044   9.615
24040SOL    HW173894   4.767   0.130   9.656
24040SOL    HW273895   4.683   0.010   9.617
24041SOL     OW73896   7.416  12.417   5.750
24041SOL    HW173897   7.453  12.329   5.744
24041SOL    HW273898   7.459  12.467   5.681
24042SOL     OW73899   5.899   0.848   5.044
24042SOL    HW173900   5.874   0.902   5.119
24042SOL    HW273901   5.840   0.772   5.048
24043SOL     OW73902  11.183   2.126   2.403
24043SOL    HW173903  11.263   2.129   2.351
24043SOL    HW273904  11.199   2.058   2.468
24044SOL     OW73905  11.361   8.740   7.440
24044SOL    HW173906  11.281   8.691   7.422
24044SOL    HW273907  11.354   8.818   7.385
24045SOL     OW73908   1.029   1.992  10.775
24045SOL    HW173909   1.087   1.916  10.771
24045SOL    HW273910   1.026   2.024  10.685
24046SOL     OW73911  11.224   4.964   3.613
24046SOL    HW173912  11.280   5.019   3.560
24046SOL    HW273913  11.135   4.985   3.584
24047SOL     OW73914   9.416   1.384   2.299
24047SOL    HW173915   9.330   1.375   2.257
24047SOL    HW273916   9.400   1.442   2.373
24048SOL     OW73917  10.439   9.382  11.255
24048SOL    HW173918  10.490   9.397  11.335
24048SOL    HW273919  10.350   9.365  11.286
24049SOL     OW73920   4.373  13.832  12.532
24049SOL    HW173921   4.457  13.816  12.489
24049SOL    HW273922   4.396  13.860  12.621
24050SOL     OW73923  10.836  14.170   5.798
24050SOL    HW173924  10.914  14.204   5.754
24050SOL    HW273925  10.803  14.245   5.847
24051SOL     OW73926   7.035   7.143   2.862
24051SOL    HW173927   7.040   7.232   2.897
24051SOL    HW273928   7.119   7.129   2.819
24052SOL     OW73929   0.930   8.046  11.589
24052SOL    HW173930   0.993   7.974  11.590
24052SOL    HW273931   0.914   8.065  11.682
24053SOL     OW73932   6.523  12.470  10.560
24053SOL    HW173933   6.511  12.384  10.520
24053SOL    HW273934   6.453  12.524  10.523
24054SOL     OW73935  13.117   2.453  10.053
24054SOL    HW173936  13.023   2.438  10.041
24054SOL    HW273937  13.150   2.473   9.965
24055SOL     OW73938   7.446   4.282   8.835
24055SOL    HW173939   7.371   4.291   8.893
24055SOL    HW273940   7.471   4.372   8.813
24056SOL     OW73941  14.775  11.916   1.013
24056SOL    HW173942  14.844  11.924   0.947
24056SOL    HW273943  14.751  12.006   1.033
24057SOL     OW73944   6.134   2.731  10.493
24057SOL    HW173945   6.176   2.713  10.409
24057SOL    HW273946   6.057   2.782  10.470
24058SOL     OW73947   6.830   3.600  11.686
24058SOL    HW173948   6.834   3.584  11.780
24058SOL    HW273949   6.915   3.571  11.653
24059SOL     OW73950   8.211   3.332   4.445
24059SOL    HW173951   8.253   3.362   4.526
24059SOL    HW273952   8.261   3.255   4.419
24060SOL     OW73953  14.426  11.315  12.329
24060SOL    HW173954  14.491  11.384  12.342
24060SOL    HW273955  14.404  11.284  12.417
24061SOL     OW73956   5.417   2.163   3.600
24061SOL    HW173957   5.449   2.121   3.520
24061SOL    HW273958   5.332   2.123   3.616
24062SOL     OW73959   8.500   8.090   2.907
24062SOL    HW173960   8.587   8.080   2.946
24062SOL    HW273961   8.516   8.118   2.817
24063SOL     OW73962  12.102   8.053  10.768
24063SOL    HW173963  12.050   8.134  10.767
24063SOL    HW273964  12.132   8.045  10.859
24064SOL     OW73965   2.829  10.333  13.627
24064SOL    HW173966   2.750  10.372  13.664
24064SOL    HW273967   2.897  10.400  13.639
24065SOL     OW73968   1.603  11.271  11.094
24065SOL    HW173969   1.551  11.341  11.054
24065SOL    HW273970   1.616  11.301  11.185
24066SOL     OW73971   1.896  12.975  14.777
24066SOL    HW173972   1.806  13.001  14.795
24066SOL    HW273973   1.926  13.036  14.709
24067SOL     OW73974   2.679   9.578   0.518
24067SOL    HW173975   2.638   9.600   0.602
24067SOL    HW273976   2.640   9.494   0.494
24068SOL     OW73977   0.896   6.751   7.841
24068SOL    HW173978   0.946   6.829   7.866
24068SOL    HW273979   0.900   6.751   7.745
24069SOL     OW73980  10.533   8.182   9.814
24069SOL    HW173981  10.542   8.135   9.732
24069SOL    HW273982  10.483   8.123   9.870
24070SOL     OW73983  12.125   8.029   8.131
24070SOL    HW173984  12.094   8.108   8.087
24070SOL    HW273985  12.144   8.058   8.221
24071SOL     OW73986  14.014   5.606   3.067
24071SOL    HW173987  13.988   5.629   2.978
24071SOL    HW273988  14.104   5.637   3.074
24072SOL     OW73989  13.633  12.323   3.202
24072SOL    HW173990  13.689  12.287   3.270
24072SOL    HW273991  13.544  12.318   3.238
24073SOL     OW73992  14.239  12.801   4.162
24073SOL    HW173993  14.270  12.864   4.227
24073SOL    HW273994  14.195  12.734   4.214
24074SOL     OW73995   3.229   8.036   7.536
24074SOL    HW173996   3.302   7.999   7.487
24074SOL    HW273997   3.256   8.125   7.557
24075SOL     OW73998  11.690   4.560  12.409
24075SOL    HW173999  11.639   4.505  12.349
24075SOL    HW274000  11.648   4.548  12.494
24076SOL     OW74001   6.898   3.365   4.808
24076SOL    HW174002   6.898   3.456   4.778
24076SOL    HW274003   6.988   3.351   4.840
24077SOL     OW74004  12.280  11.885   7.967
24077SOL    HW174005  12.271  11.980   7.957
24077SOL    HW274006  12.274  11.870   8.061
24078SOL     OW74007   9.514   0.401   2.874
24078SOL    HW174008   9.530   0.476   2.816
24078SOL    HW274009   9.565   0.421   2.953
24079SOL     OW74010  10.673  10.182   6.714
24079SOL    HW174011  10.586  10.202   6.678
24079SOL    HW274012  10.655  10.132   6.794
24080SOL     OW74013   3.692   7.663   4.436
24080SOL    HW174014   3.721   7.686   4.524
24080SOL    HW274015   3.637   7.735   4.408
24081SOL     OW74016   6.550   6.708  13.690
24081SOL    HW174017   6.528   6.754  13.610
24081SOL    HW274018   6.634   6.666  13.671
24082SOL     OW74019  14.753  13.515   4.306
24082SOL    HW174020  14.783  13.586   4.249
24082SOL    HW274021  14.661  13.535   4.323
24083SOL     OW74022   5.018   7.793   9.202
24083SOL    HW174023   5.039   7.722   9.142
24083SOL    HW274024   4.967   7.751   9.272
24084SOL     OW74025   7.790  12.438   3.930
24084SOL    HW174026   7.793  12.344   3.947
24084SOL    HW274027   7.714  12.468   3.980
24085SOL     OW74028   3.521  12.568   5.493
24085SOL    HW174029   3.492  12.518   5.569
24085SOL    HW274030   3.552  12.651   5.529
24086SOL     OW74031   6.522  11.907  10.474
24086SOL    HW174032   6.584  11.922  10.402
24086SOL    HW274033   6.574  11.863  10.542
24087SOL     OW74034  13.850   2.436   9.254
24087SOL    HW174035  13.929   2.488   9.270
24087SOL    HW274036  13.780   2.486   9.296
24088SOL     OW74037  13.583  11.956   2.658
24088SOL    HW174038  13.645  11.945   2.730
24088SOL    HW274039  13.630  12.009   2.594
24089SOL     OW74040   1.632  14.870   7.333
24089SOL    HW174041   1.603   0.016   7.421
24089SOL    HW274042   1.565   0.030   7.275
24090SOL     OW74043   1.635   6.024   0.023
24090SOL    HW174044   1.704   5.962  14.875
24090SOL    HW274045   1.682   6.093   0.070
24091SOL     OW74046  14.507   1.746  13.829
24091SOL    HW174047  14.455   1.669  13.854
24091SOL    HW274048  14.529   1.788  13.913
24092SOL     OW74049   0.836  14.046   6.642
24092SOL    HW174050   0.778  14.071   6.571
24092SOL    HW274051   0.793  13.971   6.683
24093SOL     OW74052   3.229   4.893   8.710
24093SOL    HW174053   3.139   4.877   8.680
24093SOL    HW274054   3.266   4.952   8.645
24094SOL     OW74055   5.433   0.555  13.553
24094SOL    HW174056   5.378   0.490  13.599
24094SOL    HW274057   5.488   0.592  13.622
24095SOL     OW74058   1.810  12.746   3.518
24095SOL    HW174059   1.867  12.787   3.452
24095SOL    HW274060   1.854  12.664   3.540
24096SOL     OW74061   1.108  11.556  13.887
24096SOL    HW174062   1.148  11.572  13.973
24096SOL    HW274063   1.163  11.605  13.826
24097SOL     OW74064   5.808  11.862   9.530
24097SOL    HW174065   5.793  11.767   9.527
24097SOL    HW274066   5.732  11.900   9.486
24098SOL     OW74067  11.744  11.400  10.237
24098SOL    HW174068  11.724  11.320  10.284
24098SOL    HW274069  11.833  11.423  10.265
24099SOL     OW74070  10.450   4.273   5.612
24099SOL    HW174071  10.468   4.236   5.699
24099SOL    HW274072  10.517   4.235   5.555
24100SOL     OW74073   4.686  14.759   3.299
24100SOL    HW174074   4.773  14.781   3.266
24100SOL    HW274075   4.672  14.668   3.271
24101SOL     OW74076   3.562   2.262   5.095
24101SOL    HW174077   3.573   2.357   5.083
24101SOL    HW274078   3.574   2.226   5.007
24102SOL     OW74079   6.614  14.110   0.242
24102SOL    HW174080   6.562  14.179   0.201
24102SOL    HW274081   6.649  14.150   0.322
24103SOL     OW74082  11.959   0.436  11.947
24103SOL    HW174083  11.994   0.455  12.034
24103SOL    HW274084  11.870   0.403  11.965
24104SOL     OW74085   8.512   7.305   3.978
24104SOL    HW174086   8.577   7.290   3.910
24104SOL    HW274087   8.496   7.219   4.017
24105SOL     OW74088   9.517   8.913   0.545
24105SOL    HW174089   9.567   8.840   0.583
24105SOL    HW274090   9.482   8.960   0.621
24106SOL     OW74091   8.593   9.901  10.241
24106SOL    HW174092   8.631   9.815  10.259
24106SOL    HW274093   8.558   9.930  10.325
24107SOL     OW74094   4.862   8.451   4.748
24107SOL    HW174095   4.847   8.480   4.838
24107SOL    HW274096   4.814   8.513   4.694
24108SOL     OW74097  12.880  10.583  13.562
24108SOL    HW174098  12.965  10.578  13.519
24108SOL    HW274099  12.863  10.677  13.571
24109SOL     OW74100   1.176  14.196   4.162
24109SOL    HW174101   1.253  14.244   4.190
24109SOL    HW274102   1.210  14.126   4.107
24110SOL     OW74103   6.898   8.347   9.631
24110SOL    HW174104   6.839   8.284   9.589
24110SOL    HW274105   6.908   8.314   9.720
24111SOL     OW74106  12.961   4.755   8.675
24111SOL    HW174107  13.032   4.705   8.716
24111SOL    HW274108  12.888   4.694   8.671
24112SOL     OW74109  11.246   4.276   0.496
24112SOL    HW174110  11.191   4.305   0.424
24112SOL    HW274111  11.320   4.337   0.496
24113SOL     OW74112  11.944  11.482   6.443
24113SOL    HW174113  11.906  11.396   6.461
24113SOL    HW274114  12.025  11.483   6.493
24114SOL     OW74115   6.953   2.527   0.536
24114SOL    HW174116   7.013   2.539   0.610
24114SOL    HW274117   6.889   2.597   0.545
24115SOL     OW74118   9.143  13.761   7.688
24115SOL    HW174119   9.061  13.753   7.737
24115SOL    HW274120   9.142  13.850   7.654
24116SOL     OW74121  13.280  12.809   8.605
24116SOL    HW174122  13.257  12.894   8.569
24116SOL    HW274123  13.372  12.817   8.630
24117SOL     OW74124   5.600   7.414  14.242
24117SOL    HW174125   5.612   7.498  14.287
24117SOL    HW274126   5.607   7.348  14.311
24118SOL     OW74127   3.704   3.758  11.174
24118SOL    HW174128   3.769   3.793  11.113
24118SOL    HW274129   3.739   3.778  11.260
24119SOL     OW74130   2.197  13.610   9.990
24119SOL    HW174131   2.166  13.548   9.924
24119SOL    HW274132   2.234  13.682   9.939
24120SOL     OW74133   7.068   6.209   1.713
24120SOL    HW174134   7.126   6.285   1.715
24120SOL    HW274135   6.986   6.242   1.750
24121SOL     OW74136   4.817   0.040  13.189
24121SOL    HW174137   4.728   0.041  13.224
24121SOL    HW274138   4.843  14.825  13.192
24122SOL     OW74139  14.589  10.062  10.243
24122SOL    HW174140  14.622  10.026  10.161
24122SOL    HW274141  14.500  10.030  10.249
24123SOL     OW74142   8.545   9.999  13.709
24123SOL    HW174143   8.510   9.922  13.663
24123SOL    HW274144   8.480  10.019  13.776
24124SOL     OW74145   4.828  13.742   5.044
24124SOL    HW174146   4.806  13.650   5.055
24124SOL    HW274147   4.887  13.744   4.969
24125SOL     OW74148   5.512   8.060  11.866
24125SOL    HW174149   5.421   8.086  11.856
24125SOL    HW274150   5.558   8.106  11.796
24126SOL     OW74151  13.500   2.682   8.788
24126SOL    HW174152  13.418   2.634   8.801
24126SOL    HW274153  13.562   2.641   8.848
24127SOL     OW74154   9.645   9.993   8.643
24127SOL    HW174155   9.615   9.903   8.649
24127SOL    HW274156   9.726   9.988   8.593
24128SOL     OW74157   8.055   3.624   1.479
24128SOL    HW174158   8.086   3.695   1.536
24128SOL    HW274159   8.065   3.659   1.391
24129SOL     OW74160  13.316  13.242   3.351
24129SOL    HW174161  13.327  13.315   3.411
24129SOL    HW274162  13.404  13.224   3.319
24130SOL     OW74163   0.976   3.343   9.173
24130SOL    HW174164   0.927   3.361   9.092
24130SOL    HW274165   0.981   3.248   9.177
24131SOL     OW74166   7.803  11.452  11.687
24131SOL    HW174167   7.870  11.518  11.700
24131SOL    HW274168   7.729  11.499  11.648
24132SOL     OW74169   7.248  12.110   4.264
24132SOL    HW174170   7.175  12.104   4.202
24132SOL    HW274171   7.306  12.038   4.239
24133SOL     OW74172   4.991   9.130  11.541
24133SOL    HW174173   4.926   9.076  11.585
24133SOL    HW274174   4.960   9.138  11.451
24134SOL     OW74175   5.652   0.820   3.780
24134SOL    HW174176   5.715   0.769   3.728
24134SOL    HW274177   5.679   0.911   3.768
24135SOL     OW74178   5.120   1.121   7.063
24135SOL    HW174179   5.041   1.102   7.013
24135SOL    HW274180   5.113   1.214   7.086
24136SOL     OW74181   6.116   1.751  14.633
24136SOL    HW174182   6.085   1.804  14.560
24136SOL    HW274183   6.066   1.783  14.708
24137SOL     OW74184   5.429  14.590   0.085
24137SOL    HW174185   5.475  14.669   0.115
24137SOL    HW274186   5.498  14.532   0.053
24138SOL     OW74187   2.597   0.802  12.107
24138SOL    HW174188   2.670   0.769  12.159
24138SOL    HW274189   2.601   0.897  12.118
24139SOL     OW74190   6.577   0.939  12.117
24139SOL    HW174191   6.624   0.981  12.045
24139SOL    HW274192   6.549   0.855  12.080
24140SOL     OW74193   4.385   0.048   0.724
24140SOL    HW174194   4.448  14.862   0.760
24140SOL    HW274195   4.299   0.008   0.740
24141SOL     OW74196   4.884  13.393  13.919
24141SOL    HW174197   4.943  13.325  13.952
24141SOL    HW274198   4.849  13.356  13.837
24142SOL     OW74199   1.311  10.957  14.305
24142SOL    HW174200   1.324  10.903  14.383
24142SOL    HW274201   1.218  10.980  14.308
24143SOL     OW74202  14.344   8.193  12.031
24143SOL    HW174203  14.252   8.205  12.008
24143SOL    HW274204  14.383   8.149  11.956
24144SOL     OW74205   9.219  10.597   8.793
24144SOL    HW174206   9.286  10.590   8.862
24144SOL    HW274207   9.158  10.663   8.825
24145SOL     OW74208   5.273  14.151   6.295
24145SOL    HW174209   5.329  14.228   6.301
24145SOL    HW274210   5.183  14.186   6.297
24146SOL     OW74211  12.990   8.894   6.613
24146SOL    HW174212  12.939   8.840   6.673
24146SOL    HW274213  12.936   8.972   6.599
24147SOL     OW74214  14.442   6.694   4.508
24147SOL    HW174215  14.488   6.641   4.443
24147SOL    HW274216  14.485   6.779   4.506
24148SOL     OW74217   5.018   0.270   9.457
24148SOL    HW174218   4.977   0.282   9.371
24148SOL    HW274219   4.990   0.347   9.507
24149SOL     OW74220   5.927   4.839  10.482
24149SOL    HW174221   5.941   4.905  10.414
24149SOL    HW274222   6.012   4.798  10.494
24150SOL     OW74223   9.969   4.743   9.032
24150SOL    HW174224  10.025   4.685   9.084
24150SOL    HW274225  10.028   4.780   8.966
24151SOL     OW74226  13.162   9.163  14.440
24151SOL    HW174227  13.095   9.177  14.507
24151SOL    HW274228  13.128   9.208  14.363
24152SOL     OW74229  12.612   7.731  12.365
24152SOL    HW174230  12.677   7.778  12.313
24152SOL    HW274231  12.541   7.713  12.303
24153SOL     OW74232   0.872   5.813  10.578
24153SOL    HW174233   0.797   5.761  10.607
24153SOL    HW274234   0.854   5.902  10.609
24154SOL     OW74235   8.817   6.939   7.049
24154SOL    HW174236   8.869   6.981   7.118
24154SOL    HW274237   8.871   6.865   7.021
24155SOL     OW74238  12.246   3.165   0.228
24155SOL    HW174239  12.333   3.177   0.266
24155SOL    HW274240  12.221   3.076   0.251
24156SOL     OW74241  12.240   2.972   1.674
24156SOL    HW174242  12.250   2.972   1.578
24156SOL    HW274243  12.195   3.054   1.693
24157SOL     OW74244   0.589   3.023   1.257
24157SOL    HW174245   0.679   3.012   1.228
24157SOL    HW274246   0.537   3.022   1.176
24158SOL     OW74247   9.128   6.559  14.012
24158SOL    HW174248   9.051   6.538  14.064
24158SOL    HW274249   9.191   6.490  14.032
24159SOL     OW74250  10.002   3.395   7.269
24159SOL    HW174251   9.957   3.476   7.245
24159SOL    HW274252  10.090   3.405   7.234
24160SOL     OW74253   2.119  11.885   2.196
24160SOL    HW174254   2.046  11.866   2.136
24160SOL    HW274255   2.196  11.884   2.140
24161SOL     OW74256   7.492   2.540  10.525
24161SOL    HW174257   7.431   2.476  10.563
24161SOL    HW274258   7.526   2.497  10.447
24162SOL     OW74259   3.288   8.455   5.400
24162SOL    HW174260   3.307   8.488   5.488
24162SOL    HW274261   3.317   8.524   5.341
24163SOL     OW74262   0.869  13.446   3.837
24163SOL    HW174263   0.948  13.416   3.884
24163SOL    HW274264   0.841  13.523   3.886
24164SOL     OW74265   1.739   8.958  14.767
24164SOL    HW174266   1.748   8.912  14.851
24164SOL    HW274267   1.704   8.892  14.708
24165SOL     OW74268   0.861  11.099   1.553
24165SOL    HW174269   0.844  11.123   1.462
24165SOL    HW274270   0.949  11.061   1.551
24166SOL     OW74271   6.398  14.417   5.819
24166SOL    HW174272   6.315  14.447   5.857
24166SOL    HW274273   6.376  14.335   5.776
24167SOL     OW74274  14.214   5.294  14.200
24167SOL    HW174275  14.136   5.349  14.200
24167SOL    HW274276  14.180   5.204  14.205
24168SOL     OW74277  11.515   1.875   2.899
24168SOL    HW174278  11.452   1.809   2.870
24168SOL    HW274279  11.541   1.847   2.987
24169SOL     OW74280  12.176   8.486  11.422
24169SOL    HW174281  12.093   8.507  11.380
24169SOL    HW274282  12.165   8.518  11.512
24170SOL     OW74283  14.806   5.067   2.261
24170SOL    HW174284   0.023   5.077   2.275
24170SOL    HW274285  14.771   5.050   2.348
24171SOL     OW74286   9.453   6.022   0.550
24171SOL    HW174287   9.493   5.947   0.508
24171SOL    HW274288   9.465   6.007   0.644
24172SOL     OW74289   4.102  13.169   8.790
24172SOL    HW174290   4.182  13.217   8.765
24172SOL    HW274291   4.035  13.204   8.732
24173SOL     OW74292   2.315   3.826  10.954
24173SOL    HW174293   2.332   3.826  11.049
24173SOL    HW274294   2.387   3.878  10.917
24174SOL     OW74295  13.421   6.203  14.741
24174SOL    HW174296  13.496   6.197  14.800
24174SOL    HW274297  13.447   6.268  14.676
24175SOL     OW74298   4.227   5.643   9.679
24175SOL    HW174299   4.163   5.697   9.632
24175SOL    HW274300   4.282   5.707   9.726
24176SOL     OW74301   5.440   7.314  11.083
24176SOL    HW174302   5.389   7.368  11.144
24176SOL    HW274303   5.403   7.226  11.092
24177SOL     OW74304  12.262   8.118  13.549
24177SOL    HW174305  12.247   8.027  13.521
24177SOL    HW274306  12.194   8.133  13.614
24178SOL     OW74307   7.695   0.089   8.021
24178SOL    HW174308   7.713   0.132   7.937
24178SOL    HW274309   7.750   0.010   8.020
24179SOL     OW74310   2.625  14.118   4.970
24179SOL    HW174311   2.540  14.130   5.013
24179SOL    HW274312   2.654  14.031   4.997
24180SOL     OW74313   2.889   7.069   7.867
24180SOL    HW174314   2.797   7.066   7.844
24180SOL    HW274315   2.901   6.996   7.927
24181SOL     OW74316   0.688   9.087  11.850
24181SOL    HW174317   0.768   9.104  11.799
24181SOL    HW274318   0.682   9.161  11.910
24182SOL     OW74319   2.656  12.112   2.922
24182SOL    HW174320   2.751  12.115   2.936
24182SOL    HW274321   2.638  12.186   2.865
24183SOL     OW74322  12.013   1.740   3.094
24183SOL    HW174323  11.941   1.677   3.092
24183SOL    HW274324  12.091   1.686   3.107
24184SOL     OW74325   1.767  13.690   2.320
24184SOL    HW174326   1.692  13.646   2.281
24184SOL    HW274327   1.788  13.760   2.259
24185SOL     OW74328   6.131   8.927   7.677
24185SOL    HW174329   6.160   8.925   7.586
24185SOL    HW274330   6.047   8.881   7.678
24186SOL     OW74331  12.724   5.355   7.956
24186SOL    HW174332  12.663   5.347   7.882
24186SOL    HW274333  12.809   5.369   7.915
24187SOL     OW74334  11.308  12.871   3.186
24187SOL    HW174335  11.275  12.873   3.275
24187SOL    HW274336  11.262  12.798   3.144
24188SOL     OW74337   2.538   4.434   5.044
24188SOL    HW174338   2.499   4.467   4.963
24188SOL    HW274339   2.499   4.348   5.057
24189SOL     OW74340   5.435  10.262   9.790
24189SOL    HW174341   5.390  10.347   9.793
24189SOL    HW274342   5.396  10.217   9.715
24190SOL     OW74343   8.873  14.429  11.634
24190SOL    HW174344   8.936  14.452  11.703
24190SOL    HW274345   8.790  14.468  11.663
24191SOL     OW74346  14.730   2.642   7.075
24191SOL    HW174347  14.677   2.719   7.055
24191SOL    HW274348  14.756   2.654   7.166
24192SOL     OW74349  14.013   2.716  14.174
24192SOL    HW174350  13.979   2.697  14.261
24192SOL    HW274351  14.042   2.808  14.180
24193SOL     OW74352   5.502   7.588   9.223
24193SOL    HW174353   5.420   7.568   9.180
24193SOL    HW274354   5.541   7.657   9.169
24194SOL     OW74355   1.331   1.687  10.390
24194SOL    HW174356   1.381   1.750  10.338
24194SOL    HW274357   1.330   1.607  10.338
24195SOL     OW74358   6.474   2.953   3.013
24195SOL    HW174359   6.516   2.999   3.086
24195SOL    HW274360   6.507   2.864   3.019
24196SOL     OW74361   1.590  12.255  12.040
24196SOL    HW174362   1.630  12.227  11.958
24196SOL    HW274363   1.664  12.281  12.095
24197SOL     OW74364   8.019   8.617  13.739
24197SOL    HW174365   7.953   8.655  13.681
24197SOL    HW274366   8.090   8.681  13.740
24198SOL     OW74367   2.759   2.718   2.311
24198SOL    HW174368   2.827   2.755   2.254
24198SOL    HW274369   2.735   2.636   2.269
24199SOL     OW74370   5.852   9.038   2.872
24199SOL    HW174371   5.874   8.962   2.818
24199SOL    HW274372   5.778   9.079   2.827
24200SOL     OW74373   2.379  12.237  11.429
24200SOL    HW174374   2.340  12.174  11.368
24200SOL    HW274375   2.339  12.216  11.514
24201SOL     OW74376   8.415  10.330   7.727
24201SOL    HW174377   8.393  10.324   7.819
24201SOL    HW274378   8.391  10.244   7.690
24202SOL     OW74379   8.754   9.891  11.115
24202SOL    HW174380   8.787   9.802  11.119
24202SOL    HW274381   8.706   9.902  11.197
24203SOL     OW74382   2.909   7.850   2.264
24203SOL    HW174383   2.862   7.881   2.186
24203SOL    HW274384   2.851   7.784   2.302
24204SOL     OW74385   4.433   1.584   9.880
24204SOL    HW174386   4.515   1.553   9.919
24204SOL    HW274387   4.449   1.584   9.786
24205SOL     OW74388   4.338   4.271  12.909
24205SOL    HW174389   4.275   4.201  12.889
24205SOL    HW274390   4.408   4.227  12.957
24206SOL     OW74391   0.084   8.719  11.977
24206SOL    HW174392   0.053   8.647  12.031
24206SOL    HW274393   0.028   8.718  11.900
24207SOL     OW74394  13.085   6.143   6.906
24207SOL    HW174395  12.999   6.182   6.891
24207SOL    HW274396  13.147   6.206   6.869
24208SOL     OW74397   1.415   9.290   9.224
24208SOL    HW174398   1.473   9.333   9.286
24208SOL    HW274399   1.462   9.210   9.199
24209SOL     OW74400   5.501  13.271   1.244
24209SOL    HW174401   5.509  13.269   1.340
24209SOL    HW274402   5.543  13.190   1.215
24210SOL     OW74403   8.092   5.358  10.402
24210SOL    HW174404   8.031   5.424  10.369
24210SOL    HW274405   8.061   5.340  10.491
24211SOL     OW74406   0.452   7.044   0.357
24211SOL    HW174407   0.468   6.955   0.389
24211SOL    HW274408   0.368   7.068   0.395
24212SOL     OW74409   3.686  12.957  14.580
24212SOL    HW174410   3.645  12.916  14.656
24212SOL    HW274411   3.780  12.943  14.593
24213SOL     OW74412  13.467   2.064   0.147
24213SOL    HW174413  13.468   2.047   0.241
24213SOL    HW274414  13.400   2.006   0.112
24214SOL     OW74415   3.600   9.934   2.385
24214SOL    HW174416   3.629   9.984   2.309
24214SOL    HW274417   3.680   9.902   2.425
24215SOL     OW74418   4.474   6.398   5.479
24215SOL    HW174419   4.523   6.399   5.397
24215SOL    HW274420   4.387   6.367   5.455
24216SOL     OW74421   2.387   9.618   5.053
24216SOL    HW174422   2.292   9.622   5.064
24216SOL    HW274423   2.418   9.565   5.126
24217SOL     OW74424   5.637   3.745  12.261
24217SOL    HW174425   5.658   3.677  12.196
24217SOL    HW274426   5.706   3.736  12.328
24218SOL     OW74427   2.744   9.925   2.786
24218SOL    HW174428   2.734   9.896   2.695
24218SOL    HW274429   2.775  10.015   2.779
24219SOL     OW74430  13.851  14.756   8.345
24219SOL    HW174431  13.777  14.738   8.402
24219SOL    HW274432  13.853  14.682   8.284
24220SOL     OW74433  14.420  14.421  12.713
24220SOL    HW174434  14.418  14.450  12.621
24220SOL    HW274435  14.510  14.436  12.741
24221SOL     OW74436  13.740  10.404   1.059
24221SOL    HW174437  13.825  10.424   1.098
24221SOL    HW274438  13.681  10.392   1.134
24222SOL     OW74439   5.821  11.493   9.776
24222SOL    HW174440   5.741  11.499   9.724
24222SOL    HW274441   5.797  11.529   9.862
24223SOL     OW74442  11.568   8.221  12.451
24223SOL    HW174443  11.481   8.187  12.432
24223SOL    HW274444  11.620   8.143  12.473
24224SOL     OW74445   9.322  10.890  10.111
24224SOL    HW174446   9.288  10.959  10.167
24224SOL    HW274447   9.337  10.932  10.026
24225SOL     OW74448   7.013   9.263   6.926
24225SOL    HW174449   7.053   9.325   6.987
24225SOL    HW274450   7.065   9.271   6.846
24226SOL     OW74451   7.493   3.765  13.080
24226SOL    HW174452   7.568   3.723  13.037
24226SOL    HW274453   7.510   3.859  13.072
24227SOL     OW74454  12.939  12.187  11.959
24227SOL    HW174455  12.932  12.109  12.014
24227SOL    HW274456  12.864  12.181  11.900
24228SOL     OW74457  12.704  13.538   1.479
24228SOL    HW174458  12.739  13.600   1.415
24228SOL    HW274459  12.619  13.575   1.504
24229SOL     OW74460   5.426   8.812   7.976
24229SOL    HW174461   5.508   8.773   8.006
24229SOL    HW274462   5.385   8.846   8.056
24230SOL     OW74463   5.986   9.939   7.968
24230SOL    HW174464   5.969  10.032   7.983
24230SOL    HW274465   5.904   9.904   7.934
24231SOL     OW74466  13.421   2.651   1.346
24231SOL    HW174467  13.508   2.686   1.362
24231SOL    HW274468  13.367   2.690   1.415
24232SOL     OW74469   0.372   8.909   0.753
24232SOL    HW174470   0.375   8.850   0.679
24232SOL    HW274471   0.413   8.860   0.825
24233SOL     OW74472   1.342   3.318   6.300
24233SOL    HW174473   1.403   3.251   6.269
24233SOL    HW274474   1.259   3.272   6.308
24234SOL     OW74475  13.191   0.009   7.012
24234SOL    HW174476  13.233  14.844   7.086
24234SOL    HW274477  13.227  14.842   6.935
24235SOL     OW74478   3.486  10.036   6.383
24235SOL    HW174479   3.468  10.055   6.475
24235SOL    HW274480   3.577  10.007   6.382
24236SOL     OW74481   3.111   8.635   0.810
24236SOL    HW174482   3.074   8.601   0.891
24236SOL    HW274483   3.132   8.726   0.830
24237SOL     OW74484   8.681   3.575   0.186
24237SOL    HW174485   8.651   3.517   0.116
24237SOL    HW274486   8.608   3.580   0.247
24238SOL     OW74487   5.055  14.822  11.247
24238SOL    HW174488   5.105  14.799  11.168
24238SOL    HW274489   5.035   0.037  11.236
24239SOL     OW74490   7.560   6.373   8.139
24239SOL    HW174491   7.609   6.296   8.109
24239SOL    HW274492   7.469   6.345   8.137
24240SOL     OW74493   1.539  10.028   1.441
24240SOL    HW174494   1.495   9.944   1.442
24240SOL    HW274495   1.598  10.026   1.517
24241SOL     OW74496   2.081   1.810  12.478
24241SOL    HW174497   2.071   1.802  12.383
24241SOL    HW274498   1.991   1.817  12.511
24242SOL     OW74499  11.668   0.182   3.007
24242SOL    HW174500  11.624   0.254   2.962
24242SOL    HW274501  11.761   0.207   3.006
24243SOL     OW74502   0.430   3.485   6.810
24243SOL    HW174503   0.341   3.484   6.844
24243SOL    HW274504   0.445   3.576   6.784
24244SOL     OW74505   8.342  14.025  11.194
24244SOL    HW174506   8.420  14.034  11.249
24244SOL    HW274507   8.300  13.945  11.224
24245SOL     OW74508   4.823   1.282  12.129
24245SOL    HW174509   4.886   1.216  12.156
24245SOL    HW274510   4.817   1.272  12.034
24246SOL     OW74511   5.203   4.789  14.078
24246SOL    HW174512   5.144   4.811  14.149
24246SOL    HW274513   5.187   4.855  14.011
24247SOL     OW74514   5.844   1.445   7.771
24247SOL    HW174515   5.813   1.515   7.829
24247SOL    HW274516   5.766   1.420   7.721
24248SOL     OW74517   6.753   2.142  13.294
24248SOL    HW174518   6.844   2.119  13.278
24248SOL    HW274519   6.711   2.134  13.208
24249SOL     OW74520  10.980  12.851   9.303
24249SOL    HW174521  10.979  12.865   9.209
24249SOL    HW274522  11.038  12.920   9.337
24250SOL     OW74523  11.289   8.383   5.960
24250SOL    HW174524  11.253   8.447   5.898
24250SOL    HW274525  11.220   8.318   5.971
24251SOL     OW74526  11.255   2.171  14.064
24251SOL    HW174527  11.204   2.247  14.092
24251SOL    HW274528  11.203   2.132  13.993
24252SOL     OW74529   4.498  10.156   3.558
24252SOL    HW174530   4.560  10.167   3.486
24252SOL    HW274531   4.438  10.088   3.528
24253SOL     OW74532  11.753   9.715  14.446
24253SOL    HW174533  11.738   9.658  14.370
24253SOL    HW274534  11.803   9.788  14.411
24254SOL     OW74535   6.752  14.476   4.381
24254SOL    HW174536   6.786  14.563   4.361
24254SOL    HW274537   6.814  14.416   4.340
24255SOL     OW74538   6.215  13.518   8.195
24255SOL    HW174539   6.241  13.429   8.174
24255SOL    HW274540   6.183  13.554   8.112
24256SOL     OW74541  12.525   4.257   2.562
24256SOL    HW174542  12.465   4.331   2.548
24256SOL    HW274543  12.519   4.239   2.656
24257SOL     OW74544   1.598  10.495   4.574
24257SOL    HW174545   1.626  10.482   4.483
24257SOL    HW274546   1.630  10.417   4.620
24258SOL     OW74547   7.922   4.575   4.200
24258SOL    HW174548   7.903   4.601   4.110
24258SOL    HW274549   7.951   4.485   4.194
24259SOL     OW74550  13.783  10.263   8.676
24259SOL    HW174551  13.841  10.222   8.740
24259SOL    HW274552  13.749  10.191   8.623
24260SOL     OW74553  10.962   4.887   1.664
24260SOL    HW174554  10.940   4.976   1.636
24260SOL    HW274555  11.039   4.864   1.612
24261SOL     OW74556   5.783   0.292   2.259
24261SOL    HW174557   5.792   0.379   2.220
24261SOL    HW274558   5.700   0.259   2.225
24262SOL     OW74559  13.397   0.784   5.604
24262SOL    HW174560  13.368   0.739   5.683
24262SOL    HW274561  13.369   0.875   5.616
24263SOL     OW74562  13.920   9.567   3.585
24263SOL    HW174563  13.932   9.483   3.628
24263SOL    HW274564  13.939   9.632   3.653
24264SOL     OW74565   2.169   5.960   4.055
24264SOL    HW174566   2.243   5.946   4.113
24264SOL    HW274567   2.140   6.050   4.073
24265SOL     OW74568   9.240   5.219  11.977
24265SOL    HW174569   9.211   5.298  11.931
24265SOL    HW274570   9.198   5.224  12.063
24266SOL     OW74571  12.629  12.172  14.818
24266SOL    HW174572  12.691  12.139   0.006
24266SOL    HW274573  12.546  12.178  14.864
24267SOL     OW74574   2.769   3.375   8.469
24267SOL    HW174575   2.686   3.410   8.498
24267SOL    HW274576   2.798   3.318   8.540
24268SOL     OW74577   0.975   5.456   1.423
24268SOL    HW174578   0.920   5.395   1.473
24268SOL    HW274579   0.963   5.541   1.465
24269SOL     OW74580   0.036   0.747   3.220
24269SOL    HW174581  14.838   0.766   3.164
24269SOL    HW274582   0.112   0.765   3.166
24270SOL     OW74583   8.192   1.223   0.903
24270SOL    HW174584   8.183   1.128   0.901
24270SOL    HW274585   8.127   1.255   0.841
24271SOL     OW74586  14.361   5.997   5.286
24271SOL    HW174587  14.405   6.080   5.304
24271SOL    HW274588  14.288   6.021   5.229
24272SOL     OW74589   8.664   5.045  11.975
24272SOL    HW174590   8.606   4.970  11.984
24272SOL    HW274591   8.752   5.008  11.973
24273SOL     OW74592   2.164   5.471   0.155
24273SOL    HW174593   2.151   5.561   0.186
24273SOL    HW274594   2.111   5.417   0.213
24274SOL     OW74595   3.088   5.645   3.718
24274SOL    HW174596   3.175   5.629   3.754
24274SOL    HW274597   3.065   5.733   3.746
24275SOL     OW74598  11.076  10.016  12.276
24275SOL    HW174599  11.153  10.038  12.329
24275SOL    HW274600  11.063   9.922  12.291
24276SOL     OW74601   6.578   5.232   5.921
24276SOL    HW174602   6.545   5.202   6.006
24276SOL    HW274603   6.500   5.257   5.872
24277SOL     OW74604   2.685   8.659  14.796
24277SOL    HW174605   2.637   8.738  14.771
24277SOL    HW274606   2.738   8.638  14.719
24278SOL     OW74607   4.739  12.254  10.462
24278SOL    HW174608   4.682  12.323  10.428
24278SOL    HW274609   4.699  12.173  10.431
24279SOL     OW74610   4.550  11.233   7.465
24279SOL    HW174611   4.463  11.198   7.483
24279SOL    HW274612   4.566  11.212   7.373
24280SOL     OW74613  14.045   4.634   2.786
24280SOL    HW174614  14.071   4.587   2.865
24280SOL    HW274615  14.007   4.716   2.819
24281SOL     OW74616  13.143  13.702   8.973
24281SOL    HW174617  13.194  13.745   8.904
24281SOL    HW274618  13.069  13.761   8.989
24282SOL     OW74619   8.627  10.857  11.783
24282SOL    HW174620   8.612  10.871  11.690
24282SOL    HW274621   8.553  10.902  11.826
24283SOL     OW74622   8.448   6.472   2.823
24283SOL    HW174623   8.520   6.536   2.822
24283SOL    HW274624   8.490   6.389   2.803
24284SOL     OW74625   3.453   4.546   2.748
24284SOL    HW174626   3.374   4.564   2.798
24284SOL    HW274627   3.513   4.507   2.812
24285SOL     OW74628   2.086   9.525   2.025
24285SOL    HW174629   2.112   9.526   1.933
24285SOL    HW274630   2.167   9.512   2.073
24286SOL     OW74631   3.607   2.570   7.635
24286SOL    HW174632   3.544   2.643   7.639
24286SOL    HW274633   3.590   2.520   7.714
24287SOL     OW74634   1.083   9.938   6.667
24287SOL    HW174635   1.140  10.012   6.686
24287SOL    HW274636   1.070   9.941   6.572
24288SOL     OW74637   3.718   1.771  12.932
24288SOL    HW174638   3.670   1.690  12.913
24288SOL    HW274639   3.653   1.840  12.921
24289SOL     OW74640   2.547   3.976  10.887
24289SOL    HW174641   2.553   4.067  10.914
24289SOL    HW274642   2.610   3.967  10.816
24290SOL     OW74643   3.969   4.237   9.805
24290SOL    HW174644   4.013   4.172   9.860
24290SOL    HW274645   4.037   4.267   9.744
24291SOL     OW74646   8.957  13.364  10.192
24291SOL    HW174647   8.987  13.424  10.260
24291SOL    HW274648   9.013  13.381  10.117
24292SOL     OW74649   0.087  13.391   5.591
24292SOL    HW174650   0.134  13.472   5.613
24292SOL    HW274651   0.012  13.420   5.539
24293SOL     OW74652  10.497  12.372  11.114
24293SOL    HW174653  10.489  12.313  11.189
24293SOL    HW274654  10.423  12.350  11.058
24294SOL     OW74655   6.696   7.187  13.728
24294SOL    HW174656   6.768   7.124  13.732
24294SOL    HW274657   6.726   7.261  13.780
24295SOL     OW74658  13.533   7.006   1.462
24295SOL    HW174659  13.498   7.094   1.472
24295SOL    HW274660  13.456   6.949   1.461
24296SOL     OW74661   1.861   5.798   2.498
24296SOL    HW174662   1.893   5.840   2.418
24296SOL    HW274663   1.940   5.765   2.541
24297SOL     OW74664   9.605  12.600   6.075
24297SOL    HW174665   9.675  12.610   6.010
24297SOL    HW274666   9.630  12.521   6.124
24298SOL     OW74667  12.124   6.414   5.690
24298SOL    HW174668  12.206   6.444   5.729
24298SOL    HW274669  12.138   6.321   5.673
24299SOL     OW74670   9.549   8.002   5.110
24299SOL    HW174671   9.616   8.062   5.078
24299SOL    HW274672   9.522   8.038   5.195
24300SOL     OW74673  10.714   9.573   2.920
24300SOL    HW174674  10.792   9.517   2.922
24300SOL    HW274675  10.721   9.622   2.838
24301SOL     OW74676   5.989  12.838   9.819
24301SOL    HW174677   5.987  12.835   9.723
24301SOL    HW274678   6.081  12.822   9.841
24302SOL     OW74679   0.655   2.103   6.015
24302SOL    HW174680   0.740   2.080   5.978
24302SOL    HW274681   0.614   2.159   5.949
24303SOL     OW74682   4.701   9.486   7.585
24303SOL    HW174683   4.758   9.431   7.532
24303SOL    HW274684   4.760   9.549   7.627
24304SOL     OW74685  13.820   8.565  12.507
24304SOL    HW174686  13.750   8.595  12.564
24304SOL    HW274687  13.780   8.561  12.420
24305SOL     OW74688   0.760   4.848   0.743
24305SOL    HW174689   0.773   4.813   0.831
24305SOL    HW274690   0.844   4.887   0.720
24306SOL     OW74691   3.881   8.817  10.817
24306SOL    HW174692   3.850   8.906  10.833
24306SOL    HW274693   3.968   8.816  10.857
24307SOL     OW74694   9.055  12.327  12.136
24307SOL    HW174695   9.074  12.269  12.062
24307SOL    HW274696   9.014  12.403  12.097
24308SOL     OW74697   8.467  13.242   7.280
24308SOL    HW174698   8.497  13.293   7.356
24308SOL    HW274699   8.376  13.268   7.268
24309SOL     OW74700  13.708   2.963   7.724
24309SOL    HW174701  13.650   2.991   7.653
24309SOL    HW274702  13.652   2.912   7.782
24310SOL     OW74703   7.550   9.380  14.667
24310SOL    HW174704   7.503   9.453  14.627
24310SOL    HW274705   7.550   9.312  14.599
24311SOL     OW74706  11.579  11.048   7.789
24311SOL    HW174707  11.646  11.028   7.854
24311SOL    HW274708  11.523  10.971   7.788
24312SOL     OW74709   6.622   4.355   9.501
24312SOL    HW174710   6.601   4.262   9.490
24312SOL    HW274711   6.549   4.401   9.460
24313SOL     OW74712   1.241   6.075  13.501
24313SOL    HW174713   1.249   6.068  13.405
24313SOL    HW274714   1.288   5.998  13.534
24314SOL     OW74715   4.517   1.499   8.562
24314SOL    HW174716   4.426   1.529   8.566
24314SOL    HW274717   4.535   1.489   8.469
24315SOL     OW74718   0.150   1.206   9.452
24315SOL    HW174719   0.137   1.113   9.433
24315SOL    HW274720   0.174   1.245   9.368
24316SOL     OW74721  11.655   9.206   3.054
24316SOL    HW174722  11.635   9.256   3.133
24316SOL    HW274723  11.653   9.270   2.984
24317SOL     OW74724   2.170   2.588   7.376
24317SOL    HW174725   2.209   2.675   7.384
24317SOL    HW274726   2.134   2.570   7.463
24318SOL     OW74727   1.932   8.993   5.449
24318SOL    HW174728   1.943   8.951   5.364
24318SOL    HW274729   1.837   9.002   5.459
24319SOL     OW74730  12.159   0.140  13.300
24319SOL    HW174731  12.220   0.069  13.322
24319SOL    HW274732  12.073   0.106  13.325
24320SOL     OW74733   6.791   6.271  12.480
24320SOL    HW174734   6.752   6.298  12.397
24320SOL    HW274735   6.718   6.236  12.531
24321SOL     OW74736   4.844  12.767  14.634
24321SOL    HW174737   4.863  12.755  14.541
24321SOL    HW274738   4.927  12.794  14.673
24322SOL     OW74739   8.174   7.650   4.339
24322SOL    HW174740   8.253   7.611   4.374
24322SOL    HW274741   8.163   7.731   4.389
24323SOL     OW74742   6.635   0.936  12.982
24323SOL    HW174743   6.615   0.888  13.062
24323SOL    HW274744   6.619   1.028  13.004
24324SOL     OW74745   6.322   6.091  13.914
24324SOL    HW174746   6.265   6.015  13.906
24324SOL    HW274747   6.366   6.097  13.829
24325SOL     OW74748   8.127   3.624   0.278
24325SOL    HW174749   8.062   3.554   0.278
24325SOL    HW274750   8.111   3.672   0.197
24326SOL     OW74751   7.560   8.439  14.057
24326SOL    HW174752   7.534   8.491  14.133
24326SOL    HW274753   7.617   8.496  14.007
24327SOL     OW74754   3.406  11.172   5.416
24327SOL    HW174755   3.329  11.156   5.361
24327SOL    HW274756   3.432  11.261   5.393
24328SOL     OW74757  11.414  11.601  12.805
24328SOL    HW174758  11.356  11.548  12.751
24328SOL    HW274759  11.360  11.627  12.879
24329SOL     OW74760  13.190  11.921   7.022
24329SOL    HW174761  13.168  12.014   7.014
24329SOL    HW274762  13.125  11.886   7.083
24330SOL     OW74763   0.401   9.864   6.589
24330SOL    HW174764   0.460   9.875   6.664
24330SOL    HW274765   0.434   9.785   6.545
24331SOL     OW74766   8.852   2.670  11.762
24331SOL    HW174767   8.826   2.631  11.679
24331SOL    HW274768   8.820   2.760  11.757
24332SOL     OW74769  11.879  11.438   8.359
24332SOL    HW174770  11.801  11.388   8.338
24332SOL    HW274771  11.849  11.503   8.423
24333SOL     OW74772   5.508   1.158   6.460
24333SOL    HW174773   5.520   1.246   6.425
24333SOL    HW274774   5.553   1.159   6.545
24334SOL     OW74775   1.880   6.551   9.542
24334SOL    HW174776   1.938   6.507   9.604
24334SOL    HW274777   1.892   6.502   9.460
24335SOL     OW74778   4.983  12.896  13.093
24335SOL    HW174779   5.017  12.862  13.010
24335SOL    HW274780   4.987  12.822  13.153
24336SOL     OW74781   5.379   4.661  11.988
24336SOL    HW174782   5.416   4.582  11.949
24336SOL    HW274783   5.320   4.695  11.921
24337SOL     OW74784   3.253  14.632   8.784
24337SOL    HW174785   3.327  14.676   8.825
24337SOL    HW274786   3.271  14.538   8.797
24338SOL     OW74787   4.727   1.618   0.921
24338SOL    HW174788   4.677   1.625   1.002
24338SOL    HW274789   4.691   1.540   0.877
24339SOL     OW74790   4.195  11.605  11.210
24339SOL    HW174791   4.119  11.554  11.236
24339SOL    HW274792   4.178  11.693  11.243
24340SOL     OW74793   6.787   3.614   4.551
24340SOL    HW174794   6.863   3.596   4.607
24340SOL    HW274795   6.720   3.553   4.581
24341SOL     OW74796   1.284   7.497   3.826
24341SOL    HW174797   1.284   7.465   3.736
24341SOL    HW274798   1.198   7.473   3.860
24342SOL     OW74799  12.810   3.295   6.058
24342SOL    HW174800  12.900   3.306   6.028
24342SOL    HW274801  12.775   3.384   6.062
24343SOL     OW74802  12.832   6.613  10.618
24343SOL    HW174803  12.888   6.544  10.654
24343SOL    HW274804  12.831   6.596  10.524
24344SOL     OW74805   9.212   8.693   2.671
24344SOL    HW174806   9.138   8.646   2.634
24344SOL    HW274807   9.193   8.785   2.654
24345SOL     OW74808   7.525   0.206   6.960
24345SOL    HW174809   7.495   0.200   6.868
24345SOL    HW274810   7.590   0.136   6.968
24346SOL     OW74811   7.286   9.267   5.609
24346SOL    HW174812   7.258   9.335   5.669
24346SOL    HW274813   7.330   9.313   5.537
24347SOL     OW74814   7.417  14.340   6.133
24347SOL    HW174815   7.408  14.435   6.140
24347SOL    HW274816   7.500  14.326   6.087
24348SOL     OW74817  10.550  11.528   3.392
24348SOL    HW174818  10.546  11.622   3.379
24348SOL    HW274819  10.529  11.491   3.306
24349SOL     OW74820   7.747  12.037   8.376
24349SOL    HW174821   7.818  12.002   8.431
24349SOL    HW274822   7.761  11.997   8.290
24350SOL     OW74823   5.638   9.205   5.045
24350SOL    HW174824   5.654   9.299   5.050
24350SOL    HW274825   5.697   9.167   5.110
24351SOL     OW74826  10.779  10.011   1.474
24351SOL    HW174827  10.855   9.975   1.427
24351SOL    HW274828  10.817  10.075   1.534
24352SOL     OW74829  11.657   1.083   9.591
24352SOL    HW174830  11.741   1.087   9.636
24352SOL    HW274831  11.603   1.027   9.647
24353SOL     OW74832   8.168  12.457   7.631
24353SOL    HW174833   8.224  12.401   7.577
24353SOL    HW274834   8.205  12.452   7.719
24354SOL     OW74835   3.074  13.573   7.387
24354SOL    HW174836   3.090  13.543   7.476
24354SOL    HW274837   3.061  13.667   7.395
24355SOL     OW74838   7.960   4.788   5.059
24355SOL    HW174839   7.991   4.840   4.985
24355SOL    HW274840   8.022   4.716   5.066
24356SOL     OW74841  14.698   6.489   2.871
24356SOL    HW174842  14.693   6.549   2.946
24356SOL    HW274843  14.741   6.540   2.803
24357SOL     OW74844   0.996   1.546  12.459
24357SOL    HW174845   0.947   1.621  12.426
24357SOL    HW274846   1.055   1.582  12.524
24358SOL     OW74847  13.549   4.984   8.423
24358SOL    HW174848  13.544   4.889   8.439
24358SOL    HW274849  13.572   5.021   8.508
24359SOL     OW74850   3.798  13.217   4.002
24359SOL    HW174851   3.843  13.135   3.979
24359SOL    HW274852   3.812  13.226   4.097
24360SOL     OW74853   0.151   8.717   0.305
24360SOL    HW174854   0.108   8.793   0.266
24360SOL    HW274855   0.185   8.668   0.230
24361SOL     OW74856   7.405   8.647   9.423
24361SOL    HW174857   7.313   8.622   9.420
24361SOL    HW274858   7.409   8.733   9.382
24362SOL     OW74859  13.319   6.676  14.032
24362SOL    HW174860  13.332   6.582  14.017
24362SOL    HW274861  13.403   6.716  14.008
24363SOL     OW74862   4.066   5.970   7.386
24363SOL    HW174863   4.071   6.029   7.461
24363SOL    HW274864   3.986   5.996   7.340
24364SOL     OW74865  12.698   7.262   1.449
24364SOL    HW174866  12.627   7.215   1.407
24364SOL    HW274867  12.714   7.214   1.530
24365SOL     OW74868   6.460   5.452   4.267
24365SOL    HW174869   6.458   5.389   4.195
24365SOL    HW274870   6.465   5.537   4.224
24366SOL     OW74871   6.357   9.024   0.875
24366SOL    HW174872   6.293   9.006   0.807
24366SOL    HW274873   6.307   9.065   0.945
24367SOL     OW74874   3.236  12.079   5.895
24367SOL    HW174875   3.212  12.073   5.987
24367SOL    HW274876   3.308  12.018   5.884
24368SOL     OW74877  12.535   2.092   4.882
24368SOL    HW174878  12.492   2.049   4.955
24368SOL    HW274879  12.518   2.036   4.807
24369SOL     OW74880  13.743  13.268  12.578
24369SOL    HW174881  13.826  13.309  12.554
24369SOL    HW274882  13.768  13.185  12.618
24370SOL     OW74883  12.436   5.537   7.843
24370SOL    HW174884  12.405   5.454   7.879
24370SOL    HW274885  12.463   5.516   7.754
24371SOL     OW74886   7.391   3.765  12.703
24371SOL    HW174887   7.339   3.771  12.623
24371SOL    HW274888   7.334   3.722  12.767
24372SOL     OW74889  11.876   1.460  12.627
24372SOL    HW174890  11.845   1.370  12.635
24372SOL    HW274891  11.866   1.497  12.715
24373SOL     OW74892  14.492   7.891  11.214
24373SOL    HW174893  14.539   7.867  11.134
24373SOL    HW274894  14.500   7.986  11.219
24374SOL     OW74895   8.203  10.457  10.683
24374SOL    HW174896   8.151  10.380  10.661
24374SOL    HW274897   8.182  10.475  10.774
24375SOL     OW74898   9.871   1.374   1.925
24375SOL    HW174899   9.943   1.329   1.882
24375SOL    HW274900   9.909   1.410   2.005
24376SOL     OW74901  14.423   4.823   2.768
24376SOL    HW174902  14.391   4.802   2.856
24376SOL    HW274903  14.514   4.793   2.768
24377SOL     OW74904   9.770   9.056  10.835
24377SOL    HW174905   9.677   9.044  10.814
24377SOL    HW274906   9.816   9.002  10.771
24378SOL     OW74907   2.596  14.863   8.201
24378SOL    HW174908   2.549  14.804   8.143
24378SOL    HW274909   2.548  14.859   8.284
24379SOL     OW74910   2.781   9.701   6.608
24379SOL    HW174911   2.690   9.709   6.637
24379SOL    HW274912   2.815   9.624   6.654
24380SOL     OW74913   5.000  11.700  11.361
24380SOL    HW174914   5.021  11.690  11.453
24380SOL    HW274915   5.026  11.617  11.320
24381SOL     OW74916   4.099   0.464   7.964
24381SOL    HW174917   4.009   0.492   7.948
24381SOL    HW274918   4.091   0.403   8.038
24382SOL     OW74919   7.552   8.097   0.079
24382SOL    HW174920   7.603   8.178   0.089
24382SOL    HW274921   7.587   8.039   0.147
24383SOL     OW74922  12.464  12.448   9.108
24383SOL    HW174923  12.496  12.538   9.093
24383SOL    HW274924  12.436  12.418   9.022
24384SOL     OW74925   2.848  14.341   4.564
24384SOL    HW174926   2.940  14.351   4.588
24384SOL    HW274927   2.810  14.289   4.635
24385SOL     OW74928  10.983   5.146   4.422
24385SOL    HW174929  10.996   5.240   4.429
24385SOL    HW274930  10.901   5.137   4.372
24386SOL     OW74931  13.377  11.124  14.736
24386SOL    HW174932  13.322  11.082  14.802
24386SOL    HW274933  13.466  11.113  14.769
24387SOL     OW74934   1.260   3.333   7.975
24387SOL    HW174935   1.218   3.386   8.043
24387SOL    HW274936   1.231   3.243   7.992
24388SOL     OW74937  10.855   8.632  12.157
24388SOL    HW174938  10.761   8.649  12.150
24388SOL    HW274939  10.870   8.619  12.250
24389SOL     OW74940   7.787   0.605   3.246
24389SOL    HW174941   7.819   0.608   3.156
24389SOL    HW274942   7.768   0.512   3.261
24390SOL     OW74943  14.738   5.073   6.528
24390SOL    HW174944  14.684   5.150   6.544
24390SOL    HW274945  14.790   5.062   6.608
24391SOL     OW74946  13.533  11.426   8.283
24391SOL    HW174947  13.458  11.410   8.226
24391SOL    HW274948  13.593  11.479   8.230
24392SOL     OW74949  12.475   5.151  10.651
24392SOL    HW174950  12.497   5.058  10.641
24392SOL    HW274951  12.523   5.194  10.581
24393SOL     OW74952  11.323  13.086  10.715
24393SOL    HW174953  11.375  13.164  10.736
24393SOL    HW274954  11.237  13.120  10.692
24394SOL     OW74955   1.082   6.854   9.561
24394SOL    HW174956   1.145   6.922   9.585
24394SOL    HW274957   0.998   6.886   9.595
24395SOL     OW74958   1.865   3.604   4.700
24395SOL    HW174959   1.879   3.532   4.762
24395SOL    HW274960   1.774   3.592   4.671
24396SOL     OW74961   1.270  13.670   3.544
24396SOL    HW174962   1.217  13.592   3.559
24396SOL    HW274963   1.326  13.677   3.621
24397SOL     OW74964  10.669   7.893  10.887
24397SOL    HW174965  10.682   7.979  10.847
24397SOL    HW274966  10.750   7.846  10.869
24398SOL     OW74967   7.613   7.903   8.002
24398SOL    HW174968   7.619   7.810   8.026
24398SOL    HW274969   7.697   7.940   8.030
24399SOL     OW74970   7.504   8.988   8.813
24399SOL    HW174971   7.443   8.929   8.857
24399SOL    HW274972   7.574   9.002   8.877
24400SOL     OW74973   0.691   3.373   9.427
24400SOL    HW174974   0.673   3.279   9.427
24400SOL    HW274975   0.786   3.380   9.437
24401SOL     OW74976   2.474  10.700  10.466
24401SOL    HW174977   2.446  10.726  10.554
24401SOL    HW274978   2.554  10.750  10.450
24402SOL     OW74979   4.518   9.920  14.719
24402SOL    HW174980   4.515   9.933  14.814
24402SOL    HW274981   4.427   9.922  14.691
24403SOL     OW74982   1.450  11.971   5.067
24403SOL    HW174983   1.354  11.970   5.071
24403SOL    HW274984   1.478  11.920   5.143
24404SOL     OW74985  12.907  10.670   6.861
24404SOL    HW174986  12.933  10.585   6.895
24404SOL    HW274987  12.900  10.657   6.766
24405SOL     OW74988   9.927   3.518   6.916
24405SOL    HW174989   9.972   3.601   6.934
24405SOL    HW274990   9.851   3.542   6.863
24406SOL     OW74991  11.063   1.333   8.072
24406SOL    HW174992  11.023   1.315   7.987
24406SOL    HW274993  11.092   1.248   8.103
24407SOL     OW74994   7.563   5.449   1.630
24407SOL    HW174995   7.560   5.545   1.634
24407SOL    HW274996   7.621   5.430   1.556
24408SOL     OW74997   0.888   7.463   6.538
24408SOL    HW174998   0.921   7.492   6.623
24408SOL    HW274999   0.838   7.383   6.558
24409SOL     OW75000  12.142   6.801  13.472
24409SOL    HW175001  12.170   6.886  13.440
24409SOL    HW275002  12.126   6.815  13.566
24410SOL     OW75003   4.577   6.651   8.423
24410SOL    HW175004   4.642   6.713   8.391
24410SOL    HW275005   4.499   6.704   8.440
24411SOL     OW75006   1.444  12.776   2.004
24411SOL    HW175007   1.408  12.688   2.009
24411SOL    HW275008   1.397  12.825   2.072
24412SOL     OW75009  12.937  14.673   1.094
24412SOL    HW175010  12.865  14.670   1.157
24412SOL    HW275011  13.007  14.720   1.139
24413SOL     OW75012   1.407   7.876  10.310
24413SOL    HW175013   1.376   7.821  10.238
24413SOL    HW275014   1.488   7.915  10.276
24414SOL     OW75015  12.317   5.297   5.043
24414SOL    HW175016  12.398   5.347   5.040
24414SOL    HW275017  12.258   5.349   5.097
24415SOL     OW75018   1.184  14.590   2.040
24415SOL    HW175019   1.120  14.552   2.100
24415SOL    HW275020   1.176  14.685   2.053
24416SOL     OW75021   4.120   0.051  12.894
24416SOL    HW175022   4.214   0.061  12.910
24416SOL    HW275023   4.107  14.834  12.887
24417SOL     OW75024  11.217   4.494  13.404
24417SOL    HW175025  11.241   4.511  13.496
24417SOL    HW275026  11.298   4.511  13.355
24418SOL     OW75027   3.536   2.203   6.963
24418SOL    HW175028   3.454   2.218   6.915
24418SOL    HW275029   3.602   2.250   6.913
24419SOL     OW75030   5.334  14.449   4.079
24419SOL    HW175031   5.345  14.514   4.149
24419SOL    HW275032   5.420  14.445   4.037
24420SOL     OW75033   4.559  12.375  12.352
24420SOL    HW175034   4.537  12.464  12.328
24420SOL    HW275035   4.534  12.368  12.444
24421SOL     OW75036  10.512   8.032  13.299
24421SOL    HW175037  10.477   8.020  13.211
24421SOL    HW275038  10.503   7.946  13.340
24422SOL     OW75039   2.935   1.354   9.236
24422SOL    HW175040   2.917   1.437   9.191
24422SOL    HW275041   2.856   1.336   9.287
24423SOL     OW75042   5.304   4.069   7.460
24423SOL    HW175043   5.292   3.977   7.483
24423SOL    HW275044   5.338   4.068   7.371
24424SOL     OW75045   8.849   9.811   9.929
24424SOL    HW175046   8.829   9.845  10.016
24424SOL    HW275047   8.941   9.786   9.933
24425SOL     OW75048   2.374   7.953   2.760
24425SOL    HW175049   2.362   8.048   2.755
24425SOL    HW275050   2.457   7.937   2.714
24426SOL     OW75051  13.719  13.396   4.191
24426SOL    HW175052  13.754  13.485   4.199
24426SOL    HW275053  13.690  13.374   4.279
24427SOL     OW75054   8.091   9.124  12.278
24427SOL    HW175055   8.063   9.034  12.263
24427SOL    HW275056   8.133   9.150  12.196
24428SOL     OW75057  13.390   9.886  14.436
24428SOL    HW175058  13.417   9.816  14.496
24428SOL    HW275059  13.301   9.863  14.410
24429SOL     OW75060   2.452  12.728   6.340
24429SOL    HW175061   2.513  12.727   6.414
24429SOL    HW275062   2.483  12.799   6.285
24430SOL     OW75063  10.708  14.387   5.910
24430SOL    HW175064  10.751  14.472   5.923
24430SOL    HW275065  10.618  14.410   5.885
24431SOL     OW75066   4.336   1.827   2.580
24431SOL    HW175067   4.394   1.889   2.626
24431SOL    HW275068   4.248   1.852   2.608
24432SOL     OW75069  13.082  11.396   0.797
24432SOL    HW175070  13.087  11.305   0.827
24432SOL    HW275071  12.997  11.402   0.754
24433SOL     OW75072  14.516   7.300   9.402
24433SOL    HW175073  14.453   7.228   9.409
24433SOL    HW275074  14.597   7.264   9.440
24434SOL     OW75075   4.746   3.255   0.124
24434SOL    HW175076   4.726   3.319   0.192
24434SOL    HW275077   4.665   3.246   0.075
24435SOL     OW75078   3.381  13.568   5.868
24435SOL    HW175079   3.476  13.570   5.854
24435SOL    HW275080   3.367  13.618   5.948
24436SOL     OW75081  12.044   5.858   5.517
24436SOL    HW175082  12.030   5.949   5.545
24436SOL    HW275083  11.967   5.811   5.548
24437SOL     OW75084  11.740   0.795   3.861
24437SOL    HW175085  11.676   0.821   3.926
24437SOL    HW275086  11.823   0.793   3.908
24438SOL     OW75087   5.899   2.079   6.943
24438SOL    HW175088   5.980   2.116   6.977
24438SOL    HW275089   5.906   1.985   6.963
24439SOL     OW75090  12.672   1.894  13.338
24439SOL    HW175091  12.757   1.932  13.314
24439SOL    HW275092  12.611   1.967  13.333
24440SOL     OW75093  12.506   8.968   7.545
24440SOL    HW175094  12.417   8.964   7.578
24440SOL    HW275095  12.549   9.036   7.597
24441SOL     OW75096  12.580   3.134  13.783
24441SOL    HW175097  12.605   3.147  13.692
24441SOL    HW275098  12.519   3.060  13.782
24442SOL     OW75099  12.775   7.170   3.322
24442SOL    HW175100  12.843   7.236   3.307
24442SOL    HW275101  12.778   7.113   3.245
24443SOL     OW75102   8.516   3.995   5.458
24443SOL    HW175103   8.596   3.944   5.443
24443SOL    HW275104   8.488   4.021   5.370
24444SOL     OW75105   9.485   7.750  11.243
24444SOL    HW175106   9.461   7.814  11.175
24444SOL    HW275107   9.580   7.748  11.242
24445SOL     OW75108   3.783  11.607   3.396
24445SOL    HW175109   3.770  11.568   3.483
24445SOL    HW275110   3.705  11.581   3.347
24446SOL     OW75111   1.424  11.774   6.852
24446SOL    HW175112   1.455  11.837   6.787
24446SOL    HW275113   1.339  11.745   6.818
24447SOL     OW75114   8.595  12.210   8.889
24447SOL    HW175115   8.674  12.161   8.867
24447SOL    HW275116   8.557  12.234   8.804
24448SOL     OW75117   8.972   9.216   2.763
24448SOL    HW175118   9.025   9.206   2.842
24448SOL    HW275119   8.942   9.128   2.743
24449SOL     OW75120   6.049   7.932   5.113
24449SOL    HW175121   6.005   7.851   5.089
24449SOL    HW275122   6.084   7.916   5.200
24450SOL     OW75123  11.993   1.913  10.971
24450SOL    HW175124  11.972   1.825  11.002
24450SOL    HW275125  12.065   1.942  11.027
24451SOL     OW75126  13.128   6.626  13.384
24451SOL    HW175127  13.137   6.721  13.379
24451SOL    HW275128  13.218   6.593  13.379
24452SOL     OW75129   2.181   0.240   2.617
24452SOL    HW175130   2.275   0.255   2.610
24452SOL    HW275131   2.142   0.313   2.568
24453SOL     OW75132  13.676  11.270  10.485
24453SOL    HW175133  13.617  11.343  10.505
24453SOL    HW275134  13.707  11.240  10.570
24454SOL     OW75135   1.337  14.332  14.583
24454SOL    HW175136   1.411  14.332  14.523
24454SOL    HW275137   1.317  14.239  14.598
24455SOL     OW75138   7.235   1.870   0.540
24455SOL    HW175139   7.269   1.959   0.550
24455SOL    HW275140   7.313   1.816   0.526
24456SOL     OW75141  10.949   5.384   6.997
24456SOL    HW175142  11.032   5.400   6.951
24456SOL    HW275143  10.882   5.420   6.939
24457SOL     OW75144  14.694  10.439   1.406
24457SOL    HW175145  14.645  10.377   1.353
24457SOL    HW275146  14.628  10.502   1.435
24458SOL     OW75147   5.577   7.238  10.605
24458SOL    HW175148   5.645   7.279  10.551
24458SOL    HW275149   5.554   7.304  10.669
24459SOL     OW75150   4.612   1.379   1.399
24459SOL    HW175151   4.577   1.448   1.455
24459SOL    HW275152   4.642   1.312   1.460
24460SOL     OW75153  10.798   4.523   8.335
24460SOL    HW175154  10.708   4.501   8.360
24460SOL    HW275155  10.793   4.540   8.241
24461SOL     OW75156  11.843   5.649   9.268
24461SOL    HW175157  11.792   5.620   9.192
24461SOL    HW275158  11.861   5.742   9.251
24462SOL     OW75159   3.231  11.033   5.549
24462SOL    HW175160   3.266  10.947   5.572
24462SOL    HW275161   3.307  11.083   5.520
24463SOL     OW75162  10.347  12.683  11.529
24463SOL    HW175163  10.417  12.668  11.466
24463SOL    HW275164  10.280  12.732  11.480
24464SOL     OW75165   1.665   7.319   4.045
24464SOL    HW175166   1.687   7.294   3.956
24464SOL    HW275167   1.601   7.389   4.036
24465SOL     OW75168   2.640  10.333   0.743
24465SOL    HW175169   2.660  10.344   0.836
24465SOL    HW275170   2.718  10.366   0.698
24466SOL     OW75171   7.483  14.436  13.805
24466SOL    HW175172   7.425  14.363  13.785
24466SOL    HW275173   7.561  14.395  13.843
24467SOL     OW75174   4.928   1.295   1.483
24467SOL    HW175175   4.845   1.274   1.526
24467SOL    HW275176   4.995   1.260   1.541
24468SOL     OW75177  14.408  11.526   0.083
24468SOL    HW175178  14.411  11.563  14.872
24468SOL    HW275179  14.376  11.436   0.069
24469SOL     OW75180  13.619  14.645   1.417
24469SOL    HW175181  13.586  14.711   1.478
24469SOL    HW275182  13.541  14.595   1.393
24470SOL     OW75183   4.920   1.245   3.094
24470SOL    HW175184   4.947   1.320   3.146
24470SOL    HW275185   4.886   1.282   3.013
24471SOL     OW75186  12.688   3.073   1.906
24471SOL    HW175187  12.649   3.144   1.856
24471SOL    HW275188  12.648   3.079   1.993
24472SOL     OW75189   6.635  11.614   5.938
24472SOL    HW175190   6.611  11.704   5.914
24472SOL    HW275191   6.557  11.562   5.917
24473SOL     OW75192   3.961   6.606   4.651
24473SOL    HW175193   3.870   6.616   4.679
24473SOL    HW275194   3.956   6.576   4.561
24474SOL     OW75195   1.852   8.272   6.339
24474SOL    HW175196   1.897   8.209   6.282
24474SOL    HW275197   1.901   8.354   6.327
24475SOL     OW75198   1.355   5.342  13.524
24475SOL    HW175199   1.411   5.415  13.499
24475SOL    HW275200   1.286   5.340  13.458
24476SOL     OW75201   7.937  13.807  11.621
24476SOL    HW175202   7.904  13.844  11.703
24476SOL    HW275203   7.985  13.879  11.580
24477SOL     OW75204  10.670  12.553   4.492
24477SOL    HW175205  10.760  12.547   4.523
24477SOL    HW275206  10.617  12.543   4.570
24478SOL     OW75207   0.832   1.345   4.803
24478SOL    HW175208   0.800   1.416   4.859
24478SOL    HW275209   0.838   1.385   4.716
24479SOL     OW75210  14.570   5.303   2.165
24479SOL    HW175211  14.570   5.209   2.147
24479SOL    HW275212  14.661   5.324   2.185
24480SOL     OW75213   7.777   1.821   3.352
24480SOL    HW175214   7.777   1.764   3.429
24480SOL    HW275215   7.850   1.881   3.368
24481SOL     OW75216   2.396   8.097   5.387
24481SOL    HW175217   2.444   8.021   5.421
24481SOL    HW275218   2.418   8.100   5.294
24482SOL     OW75219   9.076  11.880   9.295
24482SOL    HW175220   9.030  11.817   9.351
24482SOL    HW275221   9.105  11.949   9.355
24483SOL     OW75222   2.696  13.099   1.934
24483SOL    HW175223   2.772  13.148   1.902
24483SOL    HW275224   2.674  13.141   2.018
24484SOL     OW75225   6.307   6.467  12.851
24484SOL    HW175226   6.298   6.384  12.804
24484SOL    HW275227   6.365   6.520  12.797
24485SOL     OW75228   0.810   8.718   3.744
24485SOL    HW175229   0.864   8.669   3.681
24485SOL    HW275230   0.759   8.779   3.690
24486SOL     OW75231  14.733  13.455   2.772
24486SOL    HW175232  14.812  13.507   2.758
24486SOL    HW275233  14.763  13.378   2.821
24487SOL     OW75234  10.681   7.556   9.170
24487SOL    HW175235  10.606   7.580   9.115
24487SOL    HW275236  10.655   7.472   9.209
24488SOL     OW75237   0.216   5.157   3.944
24488SOL    HW175238   0.285   5.169   4.010
24488SOL    HW275239   0.256   5.186   3.862
24489SOL     OW75240  10.791  11.917   1.963
24489SOL    HW175241  10.753  11.831   1.946
24489SOL    HW275242  10.729  11.960   2.021
24490SOL     OW75243   1.211  12.568   8.471
24490SOL    HW175244   1.237  12.558   8.380
24490SOL    HW275245   1.153  12.644   8.471
24491SOL     OW75246   7.051  10.060  12.443
24491SOL    HW175247   7.007   9.983  12.480
24491SOL    HW275248   7.083  10.031  12.358
24492SOL     OW75249   0.904   7.197   0.322
24492SOL    HW175250   0.933   7.108   0.343
24492SOL    HW275251   0.915   7.204   0.227
24493SOL     OW75252   2.609  10.126   5.559
24493SOL    HW175253   2.552  10.203   5.563
24493SOL    HW275254   2.582  10.072   5.633
24494SOL     OW75255   7.291   6.935  10.582
24494SOL    HW175256   7.345   7.002  10.625
24494SOL    HW275257   7.347   6.858  10.577
24495SOL     OW75258   8.694   8.382   9.065
24495SOL    HW175259   8.636   8.393   9.140
24495SOL    HW275260   8.724   8.291   9.070
24496SOL     OW75261   6.736   2.967   9.737
24496SOL    HW175262   6.823   2.971   9.697
24496SOL    HW275263   6.701   3.055   9.725
24497SOL     OW75264  11.865  11.931  13.081
24497SOL    HW175265  11.818  11.991  13.022
24497SOL    HW275266  11.834  11.844  13.056
24498SOL     OW75267   2.791   7.605   9.991
24498SOL    HW175268   2.776   7.519  10.031
24498SOL    HW275269   2.783   7.589   9.897
24499SOL     OW75270   8.998   8.487   0.655
24499SOL    HW175271   8.973   8.576   0.631
24499SOL    HW275272   9.090   8.494   0.681
24500SOL     OW75273   2.991   8.429   2.720
24500SOL    HW175274   2.904   8.450   2.754
24500SOL    HW275275   3.028   8.514   2.695
24501SOL     OW75276  13.187   1.398   6.896
24501SOL    HW175277  13.243   1.402   6.974
24501SOL    HW275278  13.105   1.440   6.924
24502SOL     OW75279   4.736   4.654  11.997
24502SOL    HW175280   4.784   4.571  11.993
24502SOL    HW275281   4.670   4.647  11.928
24503SOL     OW75282   8.901  12.330   9.291
24503SOL    HW175283   8.856  12.282   9.221
24503SOL    HW275284   8.916  12.418   9.254
24504SOL     OW75285  12.017   1.018   2.637
24504SOL    HW175286  12.059   0.975   2.563
24504SOL    HW275287  12.089   1.057   2.687
24505SOL     OW75288   8.032   8.089   8.750
24505SOL    HW175289   7.990   8.175   8.745
24505SOL    HW275290   8.126   8.108   8.754
24506SOL     OW75291   4.459   9.567   6.423
24506SOL    HW175292   4.529   9.506   6.445
24506SOL    HW275293   4.480   9.646   6.472
24507SOL     OW75294   3.885   3.774  11.392
24507SOL    HW175295   3.862   3.790  11.483
24507SOL    HW275296   3.920   3.685  11.392
24508SOL     OW75297   9.059  12.196   5.846
24508SOL    HW175298   8.968  12.180   5.820
24508SOL    HW275299   9.101  12.231   5.767
24509SOL     OW75300   3.240   4.180   3.347
24509SOL    HW175301   3.246   4.180   3.442
24509SOL    HW275302   3.328   4.207   3.318
24510SOL     OW75303  14.790   5.037   1.559
24510SOL    HW175304  14.821   4.946   1.554
24510SOL    HW275305  14.743   5.051   1.476
24511SOL     OW75306  13.482  11.388   0.072
24511SOL    HW175307  13.406  11.368   0.126
24511SOL    HW275308  13.554  11.339   0.112
24512SOL     OW75309  11.352  14.237  10.792
24512SOL    HW175310  11.394  14.294  10.857
24512SOL    HW275311  11.272  14.207  10.835
24513SOL     OW75312   6.212  13.942   4.817
24513SOL    HW175313   6.206  13.889   4.738
24513SOL    HW275314   6.171  14.025   4.794
24514SOL     OW75315   5.767   2.673   0.176
24514SOL    HW175316   5.797   2.601   0.232
24514SOL    HW275317   5.775   2.751   0.231
24515SOL     OW75318  14.411   1.916   0.140
24515SOL    HW175319  14.497   1.884   0.168
24515SOL    HW275320  14.350   1.876   0.202
24516SOL     OW75321   5.954  12.661  10.736
24516SOL    HW175322   5.860  12.648  10.725
24516SOL    HW275323   5.961  12.747  10.777
24517SOL     OW75324   9.723   5.870   0.932
24517SOL    HW175325   9.760   5.913   1.010
24517SOL    HW275326   9.753   5.779   0.940
24518SOL     OW75327   3.980   2.415   2.833
24518SOL    HW175328   3.997   2.395   2.925
24518SOL    HW275329   3.891   2.451   2.833
24519SOL     OW75330   2.807   9.236  11.356
24519SOL    HW175331   2.821   9.304  11.422
24519SOL    HW275332   2.894   9.220  11.319
24520SOL     OW75333   4.000   8.082   5.890
24520SOL    HW175334   3.980   8.082   5.984
24520SOL    HW275335   4.060   8.008   5.879
24521SOL     OW75336  14.416   6.912   8.437
24521SOL    HW175337  14.494   6.965   8.456
24521SOL    HW275338  14.349   6.947   8.496
24522SOL     OW75339   8.036   4.234  11.719
24522SOL    HW175340   8.125   4.267  11.732
24522SOL    HW275341   8.028   4.161  11.781
24523SOL     OW75342   8.087  10.568   8.290
24523SOL    HW175343   8.032  10.491   8.272
24523SOL    HW275344   8.036  10.621   8.351
24524SOL     OW75345   7.370   2.546   8.495
24524SOL    HW175346   7.444   2.522   8.440
24524SOL    HW275347   7.410   2.570   8.579
24525SOL     OW75348   2.628   5.371   0.510
24525SOL    HW175349   2.705   5.320   0.536
24525SOL    HW275350   2.556   5.334   0.560
24526SOL     OW75351   4.436   1.479   2.207
24526SOL    HW175352   4.402   1.503   2.294
24526SOL    HW275353   4.481   1.557   2.176
24527SOL     OW75354   4.459   1.962   8.872
24527SOL    HW175355   4.512   1.886   8.892
24527SOL    HW275356   4.390   1.962   8.938
24528SOL     OW75357   1.179   3.292  12.176
24528SOL    HW175358   1.240   3.219  12.188
24528SOL    HW275359   1.170   3.301  12.081
24529SOL     OW75360  12.937  11.952   9.767
24529SOL    HW175361  12.887  12.020   9.814
24529SOL    HW275362  13.025  11.958   9.803
24530SOL     OW75363   5.605   5.819   4.948
24530SOL    HW175364   5.591   5.756   5.019
24530SOL    HW275365   5.679   5.872   4.978
24531SOL     OW75366  11.319   4.049   2.525
24531SOL    HW175367  11.291   4.099   2.602
24531SOL    HW275368  11.359   3.969   2.561
24532SOL     OW75369  12.094  12.184  10.741
24532SOL    HW175370  12.155  12.181  10.667
24532SOL    HW275371  12.009  12.203  10.701
24533SOL     OW75372   0.967   1.611   8.010
24533SOL    HW175373   0.991   1.580   7.923
24533SOL    HW275374   1.049   1.609   8.059
24534SOL     OW75375   6.996  13.953  12.426
24534SOL    HW175376   7.007  14.038  12.467
24534SOL    HW275377   6.987  13.973  12.332
24535SOL     OW75378   6.358   5.579   1.205
24535SOL    HW175379   6.411   5.506   1.173
24535SOL    HW275380   6.370   5.578   1.300
24536SOL     OW75381  12.692   3.727  10.532
24536SOL    HW175382  12.622   3.745  10.594
24536SOL    HW275383  12.648   3.701  10.451
24537SOL     OW75384  11.458   9.560   6.581
24537SOL    HW175385  11.418   9.494   6.637
24537SOL    HW275386  11.536   9.518   6.546
24538SOL     OW75387   0.600   3.165   4.408
24538SOL    HW175388   0.626   3.152   4.500
24538SOL    HW275389   0.634   3.088   4.363
24539SOL     OW75390   0.015   7.229  13.753
24539SOL    HW175391   0.062   7.297  13.705
24539SOL    HW275392   0.080   7.160  13.766
24540SOL     OW75393  10.524   8.646  11.415
24540SOL    HW175394  10.534   8.741  11.422
24540SOL    HW275395  10.608   8.616  11.381
24541SOL     OW75396   8.589   9.965  13.396
24541SOL    HW175397   8.590   9.967  13.492
24541SOL    HW275398   8.519   9.904  13.374
24542SOL     OW75399   6.326   8.459  13.549
24542SOL    HW175400   6.298   8.407  13.473
24542SOL    HW275401   6.306   8.403  13.624
24543SOL     OW75402   1.388   2.425  13.515
24543SOL    HW175403   1.380   2.399  13.607
24543SOL    HW275404   1.300   2.412  13.479
24544SOL     OW75405   7.600  10.180   8.308
24544SOL    HW175406   7.639  10.134   8.233
24544SOL    HW275407   7.675  10.217   8.355
24545SOL     OW75408   1.854  13.977   8.182
24545SOL    HW175409   1.870  13.934   8.098
24545SOL    HW275410   1.900  13.923   8.246
24546SOL     OW75411  14.444   1.249   5.888
24546SOL    HW175412  14.425   1.244   5.981
24546SOL    HW275413  14.513   1.184   5.873
24547SOL     OW75414   3.152  14.465  10.524
24547SOL    HW175415   3.078  14.519  10.552
24547SOL    HW275416   3.112  14.392  10.477
24548SOL     OW75417   9.922   9.492   6.848
24548SOL    HW175418   9.920   9.482   6.752
24548SOL    HW275419   9.906   9.585   6.862
24549SOL     OW75420   8.031  11.594  11.734
24549SOL    HW175421   8.075  11.633  11.810
24549SOL    HW275422   8.096  11.534  11.697
24550SOL     OW75423   5.232   6.517  13.988
24550SOL    HW175424   5.201   6.448  13.928
24550SOL    HW275425   5.285   6.574  13.932
24551SOL     OW75426  13.261   9.542   5.262
24551SOL    HW175427  13.313   9.618   5.236
24551SOL    HW275428  13.239   9.558   5.354
24552SOL     OW75429   9.160   1.357  13.756
24552SOL    HW175430   9.237   1.309  13.786
24552SOL    HW275431   9.186   1.396  13.673
24553SOL     OW75432  10.351   2.792   7.422
24553SOL    HW175433  10.434   2.832   7.448
24553SOL    HW275434  10.369   2.755   7.336
24554SOL     OW75435   3.941  13.427  14.025
24554SOL    HW175436   3.921  13.510  14.069
24554SOL    HW275437   4.035  13.414  14.041
24555SOL     OW75438  12.418  11.150   7.125
24555SOL    HW175439  12.508  11.126   7.149
24555SOL    HW275440  12.384  11.075   7.077
24556SOL     OW75441   6.330   2.675   2.393
24556SOL    HW175442   6.312   2.735   2.320
24556SOL    HW275443   6.281   2.712   2.467
24557SOL     OW75444  14.683   7.089   6.945
24557SOL    HW175445  14.760   7.130   6.905
24557SOL    HW275446  14.715   7.004   6.976
24558SOL     OW75447   0.269   0.649  10.965
24558SOL    HW175448   0.298   0.674  11.052
24558SOL    HW275449   0.188   0.600  10.979
24559SOL     OW75450  12.785  13.429   8.975
24559SOL    HW175451  12.845  13.372   9.023
24559SOL    HW275452  12.841  13.498   8.938
24560SOL     OW75453  10.729   5.741   6.267
24560SOL    HW175454  10.648   5.705   6.303
24560SOL    HW275455  10.773   5.780   6.343
24561SOL     OW75456   0.818   9.414  11.038
24561SOL    HW175457   0.792   9.322  11.043
24561SOL    HW275458   0.820   9.443  11.130
24562SOL     OW75459  12.055  12.410  10.310
24562SOL    HW175460  12.040  12.352  10.236
24562SOL    HW275461  11.995  12.379  10.378
24563SOL     OW75462   7.771   2.249  12.136
24563SOL    HW175463   7.851   2.221  12.091
24563SOL    HW275464   7.708   2.180  12.118
24564SOL     OW75465   0.170   9.271   6.953
24564SOL    HW175466   0.227   9.347   6.940
24564SOL    HW275467   0.180   9.249   7.045
24565SOL     OW75468   8.905   5.411  10.537
24565SOL    HW175469   8.926   5.323  10.567
24565SOL    HW275470   8.921   5.409  10.442
24566SOL     OW75471  13.780  11.720  13.192
24566SOL    HW175472  13.791  11.625  13.195
24566SOL    HW275473  13.700  11.737  13.242
24567SOL     OW75474   8.185   8.282   5.102
24567SOL    HW175475   8.127   8.345   5.060
24567SOL    HW275476   8.197   8.315   5.190
24568SOL     OW75477  11.907   1.512  13.832
24568SOL    HW175478  11.927   1.599  13.866
24568SOL    HW275479  11.993   1.473  13.815
24569SOL     OW75480  13.990   5.808   2.094
24569SOL    HW175481  14.000   5.713   2.097
24569SOL    HW275482  14.015   5.832   2.004
24570SOL     OW75483   1.711   5.189   2.616
24570SOL    HW175484   1.733   5.257   2.553
24570SOL    HW275485   1.724   5.230   2.702
24571SOL     OW75486   2.990  12.334  14.669
24571SOL    HW175487   2.958  12.249  14.638
24571SOL    HW275488   3.064  12.313  14.725
24572SOL     OW75489   8.389   7.121   3.579
24572SOL    HW175490   8.472   7.165   3.596
24572SOL    HW275491   8.381   7.120   3.483
24573SOL     OW75492  14.502   5.472   1.921
24573SOL    HW175493  14.514   5.387   1.878
24573SOL    HW275494  14.591   5.507   1.930
24574SOL     OW75495   9.289   2.416  11.908
24574SOL    HW175496   9.233   2.493  11.914
24574SOL    HW275497   9.231   2.347  11.874
24575SOL     OW75498  12.215  12.890  12.653
24575SOL    HW175499  12.178  12.916  12.737
24575SOL    HW275500  12.215  12.795  12.654
24576SOL     OW75501  14.356  10.974   9.916
24576SOL    HW175502  14.296  10.914   9.961
24576SOL    HW275503  14.422  10.995   9.981
24577SOL     OW75504   4.592  11.494  12.546
24577SOL    HW175505   4.582  11.482  12.451
24577SOL    HW275506   4.575  11.407  12.582
24578SOL     OW75507  13.360   8.263  11.988
24578SOL    HW175508  13.297   8.198  12.018
24578SOL    HW275509  13.446   8.223  12.006
24579SOL     OW75510   9.850  11.455   7.443
24579SOL    HW175511   9.806  11.500   7.371
24579SOL    HW275512   9.796  11.378   7.460
24580SOL     OW75513  13.839   8.982   4.948
24580SOL    HW175514  13.857   9.029   5.030
24580SOL    HW275515  13.744   8.976   4.944
24581SOL     OW75516   3.316   4.325  10.311
24581SOL    HW175517   3.257   4.400  10.297
24581SOL    HW275518   3.364   4.317  10.229
24582SOL     OW75519   9.600   4.692  13.880
24582SOL    HW175520   9.519   4.661  13.838
24582SOL    HW275521   9.569   4.740  13.957
24583SOL     OW75522   3.404   4.438   4.630
24583SOL    HW175523   3.416   4.456   4.537
24583SOL    HW275524   3.317   4.396   4.635
24584SOL     OW75525  11.376   9.403   7.860
24584SOL    HW175526  11.467   9.377   7.849
24584SOL    HW275527  11.331   9.324   7.892
24585SOL     OW75528   8.774   3.208   4.035
24585SOL    HW175529   8.824   3.140   3.990
24585SOL    HW275530   8.713   3.159   4.091
24586SOL     OW75531   3.535  13.274   4.938
24586SOL    HW175532   3.526  13.276   4.843
24586SOL    HW275533   3.629  13.287   4.953
24587SOL     OW75534   3.654   9.871   0.190
24587SOL    HW175535   3.660   9.783   0.152
24587SOL    HW275536   3.568   9.902   0.164
24588SOL     OW75537   4.300   1.920   8.672
24588SOL    HW175538   4.352   1.929   8.752
24588SOL    HW275539   4.332   1.839   8.632
24589SOL     OW75540   6.076   1.109  13.667
24589SOL    HW175541   6.156   1.158  13.649
24589SOL    HW275542   6.081   1.089  13.761
24590SOL     OW75543   3.119   3.147   6.723
24590SOL    HW175544   3.207   3.109   6.719
24590SOL    HW275545   3.115   3.190   6.809
24591SOL     OW75546   5.181   4.289   0.254
24591SOL    HW175547   5.166   4.382   0.274
24591SOL    HW275548   5.240   4.291   0.179
24592SOL     OW75549   5.174  10.925   0.212
24592SOL    HW175550   5.183  10.929   0.307
24592SOL    HW275551   5.164  10.831   0.193
24593SOL     OW75552   3.156  10.696   8.442
24593SOL    HW175553   3.097  10.766   8.416
24593SOL    HW275554   3.170  10.708   8.535
24594SOL     OW75555  10.029   3.248   4.069
24594SOL    HW175556  10.073   3.164   4.087
24594SOL    HW275557  10.010   3.246   3.976
24595SOL     OW75558   1.774   9.435   6.623
24595SOL    HW175559   1.817   9.362   6.579
24595SOL    HW275560   1.768   9.408   6.714
24596SOL     OW75561   0.154   7.041   3.551
24596SOL    HW175562   0.127   7.108   3.489
24596SOL    HW275563   0.074   6.991   3.569
24597SOL     OW75564   1.694   5.757  13.000
24597SOL    HW175565   1.681   5.844  12.964
24597SOL    HW275566   1.633   5.702  12.951
24598SOL     OW75567   3.530   5.170  12.491
24598SOL    HW175568   3.595   5.210  12.433
24598SOL    HW275569   3.453   5.225  12.482
24599SOL     OW75570   5.049   2.863  12.366
24599SOL    HW175571   5.047   2.773  12.334
24599SOL    HW275572   5.075   2.856  12.458
24600SOL     OW75573   1.356   3.076   3.381
24600SOL    HW175574   1.272   3.120   3.394
24600SOL    HW275575   1.417   3.147   3.361
24601SOL     OW75576   4.729   9.643  11.886
24601SOL    HW175577   4.742   9.548  11.887
24601SOL    HW275578   4.818   9.678  11.884
24602SOL     OW75579   1.849   8.091  14.543
24602SOL    HW175580   1.912   8.152  14.583
24602SOL    HW275581   1.877   8.084  14.452
24603SOL     OW75582  14.287  10.666  13.124
24603SOL    HW175583  14.365  10.712  13.155
24603SOL    HW275584  14.215  10.706  13.174
24604SOL     OW75585  10.888   8.945  12.716
24604SOL    HW175586  10.943   8.946  12.637
24604SOL    HW275587  10.950   8.932  12.788
24605SOL     OW75588   9.343   0.928  10.219
24605SOL    HW175589   9.292   1.009  10.215
24605SOL    HW275590   9.379   0.927  10.308
24606SOL     OW75591  14.380   7.269  13.542
24606SOL    HW175592  14.468   7.261  13.579
24606SOL    HW275593  14.338   7.185  13.561
24607SOL     OW75594   0.948   5.021   0.709
24607SOL    HW175595   0.980   5.014   0.799
24607SOL    HW275596   0.939   5.115   0.694
24608SOL     OW75597   7.634   1.811   7.823
24608SOL    HW175598   7.574   1.885   7.831
24608SOL    HW275599   7.583   1.742   7.781
24609SOL     OW75600  12.886   2.642   1.938
24609SOL    HW175601  12.949   2.654   1.867
24609SOL    HW275602  12.887   2.547   1.954
24610SOL     OW75603   4.175  12.231  12.558
24610SOL    HW175604   4.179  12.196  12.469
24610SOL    HW275605   4.095  12.284  12.559
24611SOL     OW75606   7.381   0.546   2.156
24611SOL    HW175607   7.381   0.628   2.107
24611SOL    HW275608   7.305   0.498   2.123
24612SOL     OW75609  11.466   4.126  11.303
24612SOL    HW175610  11.518   4.053  11.337
24612SOL    HW275611  11.530   4.186  11.264
24613SOL     OW75612   4.828   9.142   3.115
24613SOL    HW175613   4.826   9.055   3.154
24613SOL    HW275614   4.803   9.128   3.024
24614SOL     OW75615  10.003   9.506  10.676
24614SOL    HW175616   9.974   9.420  10.645
24614SOL    HW275617  10.094   9.512  10.647
24615SOL     OW75618   2.916   6.565   0.492
24615SOL    HW175619   2.857   6.502   0.449
24615SOL    HW275620   2.936   6.629   0.423
24616SOL     OW75621   7.323   1.570   1.948
24616SOL    HW175622   7.415   1.547   1.938
24616SOL    HW275623   7.317   1.608   2.036
24617SOL     OW75624   3.556   0.609   1.511
24617SOL    HW175625   3.495   0.670   1.469
24617SOL    HW275626   3.522   0.522   1.489
24618SOL     OW75627  11.900  14.760   4.821
24618SOL    HW175628  11.907  14.677   4.868
24618SOL    HW275629  11.813  14.792   4.844
24619SOL     OW75630   5.440  11.857  11.501
24619SOL    HW175631   5.522  11.906  11.502
24619SOL    HW275632   5.384  11.902  11.564
24620SOL     OW75633  13.484   1.127   3.596
24620SOL    HW175634  13.545   1.195   3.627
24620SOL    HW275635  13.511   1.111   3.506
24621SOL     OW75636  12.504   6.794   4.610
24621SOL    HW175637  12.432   6.781   4.548
24621SOL    HW275638  12.581   6.761   4.564
24622SOL     OW75639  12.027   1.871   1.559
24622SOL    HW175640  12.112   1.877   1.516
24622SOL    HW275641  11.977   1.944   1.522
24623SOL     OW75642   2.699  12.596  14.823
24623SOL    HW175643   2.715  12.661  14.755
24623SOL    HW275644   2.648  12.528  14.779
24624SOL     OW75645  10.914   9.388   2.901
24624SOL    HW175646  11.002   9.424   2.890
24624SOL    HW275647  10.929   9.299   2.934
24625SOL     OW75648   4.252   8.656   3.205
24625SOL    HW175649   4.322   8.625   3.263
24625SOL    HW275650   4.215   8.732   3.249
24626SOL     OW75651   1.058   2.630   9.978
24626SOL    HW175652   1.023   2.664  10.060
24626SOL    HW275653   0.984   2.631   9.918
24627SOL     OW75654   9.766  14.869  10.926
24627SOL    HW175655   9.839   0.029  10.975
24627SOL    HW275656   9.773   0.029  10.839
24628SOL     OW75657   7.271   9.527  11.066
24628SOL    HW175658   7.296   9.438  11.092
24628SOL    HW275659   7.177   9.531  11.085
24629SOL     OW75660   9.972   5.892   0.035
24629SOL    HW175661   9.968   5.946  14.833
24629SOL    HW275662  10.032   5.940   0.093
24630SOL     OW75663  14.553   5.299   4.409
24630SOL    HW175664  14.600   5.353   4.473
24630SOL    HW275665  14.482   5.355   4.377
24631SOL     OW75666  11.860   9.445   1.856
24631SOL    HW175667  11.855   9.501   1.933
24631SOL    HW275668  11.769   9.420   1.839
24632SOL     OW75669  11.470  10.758   2.401
24632SOL    HW175670  11.433  10.838   2.440
24632SOL    HW275671  11.525  10.721   2.469
24633SOL     OW75672   6.717   6.758   3.218
24633SOL    HW175673   6.634   6.713   3.208
24633SOL    HW275674   6.776   6.714   3.157
24634SOL     OW75675   0.569   7.888  14.097
24634SOL    HW175676   0.611   7.807  14.126
24634SOL    HW275677   0.637   7.955  14.108
24635SOL     OW75678   0.601  12.383   4.578
24635SOL    HW175679   0.674  12.376   4.640
24635SOL    HW275680   0.642  12.400   4.494
24636SOL     OW75681   6.769  12.820   4.768
24636SOL    HW175682   6.712  12.759   4.721
24636SOL    HW275683   6.719  12.901   4.775
24637SOL     OW75684   2.055   1.230  11.006
24637SOL    HW175685   2.138   1.220  10.959
24637SOL    HW275686   2.034   1.323  10.998
24638SOL     OW75687   0.128   9.511   2.329
24638SOL    HW175688   0.166   9.598   2.338
24638SOL    HW275689   0.073   9.516   2.251
24639SOL     OW75690   8.250   6.162  11.792
24639SOL    HW175691   8.289   6.074  11.784
24639SOL    HW275692   8.322   6.222  11.772
24640SOL     OW75693   4.190  10.132  10.101
24640SOL    HW175694   4.129  10.061  10.123
24640SOL    HW275695   4.188  10.136  10.006
24641SOL     OW75696  13.157  13.973  10.358
24641SOL    HW175697  13.185  14.063  10.371
24641SOL    HW275698  13.183  13.953  10.268
24642SOL     OW75699  13.021   4.038   0.688
24642SOL    HW175700  13.019   4.099   0.762
24642SOL    HW275701  12.929   4.030   0.661
24643SOL     OW75702   8.736   9.036   3.205
24643SOL    HW175703   8.746   8.992   3.121
24643SOL    HW275704   8.805   8.997   3.260
24644SOL     OW75705  12.857   8.854   7.946
24644SOL    HW175706  12.846   8.909   7.868
24644SOL    HW275707  12.903   8.777   7.914
24645SOL     OW75708   0.813  14.070  13.120
24645SOL    HW175709   0.814  14.149  13.066
24645SOL    HW275710   0.755  14.009  13.073
24646SOL     OW75711  10.526   5.830   2.183
24646SOL    HW175712  10.559   5.749   2.143
24646SOL    HW275713  10.562   5.829   2.271
24647SOL     OW75714   5.893   4.044   2.994
24647SOL    HW175715   5.854   3.956   2.996
24647SOL    HW275716   5.987   4.028   3.007
24648SOL     OW75717   1.179   8.486   8.160
24648SOL    HW175718   1.239   8.559   8.175
24648SOL    HW275719   1.167   8.483   8.065
24649SOL     OW75720   3.686   0.099   3.999
24649SOL    HW175721   3.617   0.138   3.945
24649SOL    HW275722   3.704   0.164   4.067
24650SOL     OW75723  10.475   7.467   2.792
24650SOL    HW175724  10.557   7.468   2.841
24650SOL    HW275725  10.421   7.534   2.834
24651SOL     OW75726  12.994   2.635  14.557
24651SOL    HW175727  12.981   2.614  14.465
24651SOL    HW275728  12.905   2.646  14.592
24652SOL     OW75729   5.026  10.727   0.075
24652SOL    HW175730   4.932  10.727   0.093
24652SOL    HW275731   5.034  10.772  14.868
24653SOL     OW75732   9.798   5.376   9.138
24653SOL    HW175733   9.722   5.423   9.102
24653SOL    HW275734   9.870   5.439   9.131
24654SOL     OW75735   5.798  11.692  14.134
24654SOL    HW175736   5.791  11.600  14.109
24654SOL    HW275737   5.856  11.692  14.210
24655SOL     OW75738   9.093  12.531   6.836
24655SOL    HW175739   9.121  12.526   6.745
24655SOL    HW275740   9.144  12.464   6.881
24656SOL     OW75741  10.747  12.888   8.459
24656SOL    HW175742  10.661  12.846   8.450
24656SOL    HW275743  10.737  12.973   8.416
24657SOL     OW75744   2.194   7.416  14.618
24657SOL    HW175745   2.196   7.351  14.547
24657SOL    HW275746   2.285   7.423  14.646
24658SOL     OW75747  13.028  11.722   4.904
24658SOL    HW175748  13.011  11.779   4.828
24658SOL    HW275749  13.020  11.633   4.870
24659SOL     OW75750   7.787   8.467   9.528
24659SOL    HW175751   7.817   8.417   9.603
24659SOL    HW275752   7.809   8.413   9.452
24660SOL     OW75753  14.591   7.444   2.568
24660SOL    HW175754  14.554   7.380   2.507
24660SOL    HW275755  14.556   7.528   2.538
24661SOL     OW75756  14.213   7.046   8.563
24661SOL    HW175757  14.275   7.055   8.636
24661SOL    HW275758  14.164   7.129   8.563
24662SOL     OW75759  11.308  12.057   2.912
24662SOL    HW175760  11.385  12.090   2.865
24662SOL    HW275761  11.344  11.994   2.974
24663SOL     OW75762  12.879  10.913   3.144
24663SOL    HW175763  12.785  10.916   3.127
24663SOL    HW275764  12.886  10.891   3.237
24664SOL     OW75765   3.756  13.040  10.336
24664SOL    HW175766   3.790  12.951  10.346
24664SOL    HW275767   3.796  13.072  10.256
24665SOL     OW75768   3.687   8.835  12.096
24665SOL    HW175769   3.733   8.769  12.043
24665SOL    HW275770   3.628   8.878  12.034
24666SOL     OW75771   2.342   6.749   9.563
24666SOL    HW175772   2.251   6.767   9.543
24666SOL    HW275773   2.373   6.696   9.489
24667SOL     OW75774   6.615   7.849  11.384
24667SOL    HW175775   6.559   7.877  11.456
24667SOL    HW275776   6.679   7.790  11.425
24668SOL     OW75777   7.693   5.745  11.614
24668SOL    HW175778   7.769   5.688  11.619
24668SOL    HW275779   7.698   5.798  11.694
24669SOL     OW75780   7.807   4.524   0.072
24669SOL    HW175781   7.793   4.478  14.866
24669SOL    HW275782   7.739   4.489   0.129
24670SOL     OW75783   2.458   0.840   2.334
24670SOL    HW175784   2.463   0.815   2.427
24670SOL    HW275785   2.386   0.902   2.330
24671SOL     OW75786  14.176   6.987   2.388
24671SOL    HW175787  14.080   6.988   2.389
24671SOL    HW275788  14.201   6.957   2.475
24672SOL     OW75789   6.006   8.569   2.636
24672SOL    HW175790   6.079   8.517   2.671
24672SOL    HW275791   5.978   8.522   2.559
24673SOL     OW75792   2.147  11.611   2.807
24673SOL    HW175793   2.149  11.701   2.837
24673SOL    HW275794   2.105  11.615   2.721
24674SOL     OW75795   3.045   2.059  13.575
24674SOL    HW175796   3.031   1.965  13.579
24674SOL    HW275797   3.021   2.084  13.486
24675SOL     OW75798  10.492   2.644   5.472
24675SOL    HW175799  10.582   2.620   5.494
24675SOL    HW275800  10.441   2.565   5.491
24676SOL     OW75801   5.346   5.013  11.836
24676SOL    HW175802   5.257   5.025  11.869
24676SOL    HW275803   5.354   5.076  11.764
24677SOL     OW75804   3.100  14.584   4.469
24677SOL    HW175805   3.021  14.639   4.477
24677SOL    HW275806   3.151  14.626   4.400
24678SOL     OW75807  14.369   7.698   7.400
24678SOL    HW175808  14.431   7.677   7.330
24678SOL    HW275809  14.289   7.724   7.355
24679SOL     OW75810  13.111   8.304   0.963
24679SOL    HW175811  13.066   8.272   1.041
24679SOL    HW275812  13.061   8.381   0.937
24680SOL     OW75813  10.734   7.642  14.846
24680SOL    HW175814  10.800   7.666   0.033
24680SOL    HW275815  10.709   7.724  14.806
24681SOL     OW75816   3.373   3.820  14.419
24681SOL    HW175817   3.430   3.745  14.435
24681SOL    HW275818   3.305   3.787  14.361
24682SOL     OW75819   1.712   7.567   3.780
24682SOL    HW175820   1.718   7.581   3.686
24682SOL    HW275821   1.711   7.472   3.791
24683SOL     OW75822  14.447   7.431   4.970
24683SOL    HW175823  14.356   7.450   4.991
24683SOL    HW275824  14.494   7.442   5.053
24684SOL     OW75825  12.130   2.098   4.983
24684SOL    HW175826  12.114   2.190   5.005
24684SOL    HW275827  12.075   2.082   4.906
24685SOL     OW75828   5.856  11.974   8.784
24685SOL    HW175829   5.851  12.055   8.734
24685SOL    HW275830   5.793  11.986   8.855
24686SOL     OW75831   6.665   7.177   2.184
24686SOL    HW175832   6.682   7.189   2.091
24686SOL    HW275833   6.667   7.265   2.221
24687SOL     OW75834   1.580   1.034  11.481
24687SOL    HW175835   1.625   1.046  11.565
24687SOL    HW275836   1.488   1.053  11.500
24688SOL     OW75837   5.404  12.305   0.625
24688SOL    HW175838   5.466  12.235   0.646
24688SOL    HW275839   5.457  12.372   0.582
24689SOL     OW75840   5.374   2.450  14.810
24689SOL    HW175841   5.299   2.506  14.830
24689SOL    HW275842   5.449   2.496  14.848
24690SOL     OW75843  10.308   9.492  12.016
24690SOL    HW175844  10.356   9.528  12.091
24690SOL    HW275845  10.367   9.426  11.979
24691SOL     OW75846   5.643   5.937   1.211
24691SOL    HW175847   5.572   5.973   1.157
24691SOL    HW275848   5.617   5.847   1.228
24692SOL     OW75849   8.795  12.707   2.104
24692SOL    HW175850   8.850  12.784   2.122
24692SOL    HW275851   8.836  12.637   2.156
24693SOL     OW75852  10.185   0.463   7.300
24693SOL    HW175853  10.215   0.375   7.276
24693SOL    HW275854  10.130   0.490   7.227
24694SOL     OW75855   5.579   8.157  12.387
24694SOL    HW175856   5.570   8.249  12.411
24694SOL    HW275857   5.537   8.149  12.301
24695SOL     OW75858   7.922   6.670   6.469
24695SOL    HW175859   7.890   6.738   6.528
24695SOL    HW275860   7.849   6.610   6.459
24696SOL     OW75861   4.562   1.522   6.531
24696SOL    HW175862   4.622   1.454   6.499
24696SOL    HW275863   4.538   1.572   6.453
24697SOL     OW75864   2.235   2.738   1.899
24697SOL    HW175865   2.174   2.722   1.972
24697SOL    HW275866   2.245   2.834   1.898
24698SOL     OW75867   3.761   6.469   9.634
24698SOL    HW175868   3.776   6.500   9.545
24698SOL    HW275869   3.833   6.409   9.651
24699SOL     OW75870  12.477   0.125  13.511
24699SOL    HW175871  12.467   0.215  13.482
24699SOL    HW275872  12.416   0.075  13.456
24700SOL     OW75873   2.291   1.517   7.012
24700SOL    HW175874   2.384   1.539   7.012
24700SOL    HW275875   2.249   1.590   6.967
24701SOL     OW75876  14.554   3.814  10.953
24701SOL    HW175877  14.539   3.768  10.870
24701SOL    HW275878  14.572   3.905  10.926
24702SOL     OW75879  11.003   9.059   5.777
24702SOL    HW175880  10.961   9.025   5.856
24702SOL    HW275881  11.091   9.021   5.778
24703SOL     OW75882   6.664  13.767   9.721
24703SOL    HW175883   6.671  13.840   9.784
24703SOL    HW275884   6.739  13.712   9.740
24704SOL     OW75885   2.416  11.194   0.325
24704SOL    HW175886   2.497  11.199   0.274
24704SOL    HW275887   2.432  11.125   0.389
24705SOL     OW75888   7.643   0.555   5.319
24705SOL    HW175889   7.668   0.486   5.258
24705SOL    HW275890   7.726   0.591   5.349
24706SOL     OW75891   4.983   3.371   9.438
24706SOL    HW175892   4.959   3.398   9.349
24706SOL    HW275893   4.935   3.290   9.452
24707SOL     OW75894   3.374  14.542   7.753
24707SOL    HW175895   3.361  14.603   7.825
24707SOL    HW275896   3.335  14.586   7.677
24708SOL     OW75897   7.146  13.596  12.501
24708SOL    HW175898   7.198  13.657  12.449
24708SOL    HW275899   7.191  13.512  12.492
24709SOL     OW75900   7.243   8.680   1.916
24709SOL    HW175901   7.250   8.734   1.995
24709SOL    HW275902   7.240   8.590   1.948
24710SOL     OW75903   3.049   9.354  12.112
24710SOL    HW175904   3.059   9.332  12.019
24710SOL    HW275905   3.028   9.270  12.154
24711SOL     OW75906  13.391  12.988   3.548
24711SOL    HW175907  13.311  12.951   3.511
24711SOL    HW275908  13.458  12.922   3.532
24712SOL     OW75909   8.295  13.782   4.979
24712SOL    HW175910   8.333  13.846   5.040
24712SOL    HW275911   8.329  13.806   4.894
24713SOL     OW75912  13.461   1.225   6.717
24713SOL    HW175913  13.386   1.219   6.657
24713SOL    HW275914  13.536   1.201   6.662
24714SOL     OW75915  14.532   5.715   5.541
24714SOL    HW175916  14.475   5.651   5.584
24714SOL    HW275917  14.491   5.799   5.558
24715SOL     OW75918  12.861   4.592   7.847
24715SOL    HW175919  12.766   4.582   7.841
24715SOL    HW275920  12.880   4.675   7.803
24716SOL     OW75921   0.051   9.502  11.803
24716SOL    HW175922   0.137   9.485  11.767
24716SOL    HW275923   0.062   9.491  11.898
24717SOL     OW75924   1.693  14.165   1.283
24717SOL    HW175925   1.685  14.213   1.366
24717SOL    HW275926   1.780  14.125   1.287
24718SOL     OW75927   4.080   6.861   4.497
24718SOL    HW175928   4.051   6.786   4.549
24718SOL    HW275929   4.148   6.902   4.550
24719SOL     OW75930   1.793  13.785  12.714
24719SOL    HW175931   1.796  13.722  12.641
24719SOL    HW275932   1.727  13.749  12.772
24720SOL     OW75933  14.068  14.214  13.201
24720SOL    HW175934  13.994  14.219  13.262
24720SOL    HW275935  14.119  14.293  13.218
24721SOL     OW75936   9.541  13.005  13.192
24721SOL    HW175937   9.546  13.044  13.104
24721SOL    HW275938   9.447  12.991  13.206
24722SOL     OW75939   3.296   1.013  11.806
24722SOL    HW175940   3.381   0.977  11.779
24722SOL    HW275941   3.302   1.020  11.901
24723SOL     OW75942   9.258   7.679  11.362
24723SOL    HW175943   9.342   7.697  11.320
24723SOL    HW275944   9.226   7.766  11.388
24724SOL     OW75945   6.229   5.900  11.504
24724SOL    HW175946   6.143   5.924  11.540
24724SOL    HW275947   6.292   5.947  11.558
24725SOL     OW75948   0.229  10.578   7.250
24725SOL    HW175949   0.210  10.605   7.340
24725SOL    HW275950   0.189  10.491   7.242
24726SOL     OW75951   8.700  12.372   0.240
24726SOL    HW175952   8.780  12.377   0.188
24726SOL    HW275953   8.711  12.293   0.294
24727SOL     OW75954   7.301   9.240  11.058
24727SOL    HW175955   7.374   9.222  10.999
24727SOL    HW275956   7.342   9.259  11.142
24728SOL     OW75957   7.741  11.320  14.248
24728SOL    HW175958   7.823  11.368  14.256
24728SOL    HW275959   7.757  11.237  14.292
24729SOL     OW75960   5.057   9.359  14.844
24729SOL    HW175961   5.112   9.353  14.765
24729SOL    HW275962   5.026   9.449  14.844
24730SOL     OW75963  14.823   8.120   1.911
24730SOL    HW175964  14.844   8.131   1.818
24730SOL    HW275965   0.025   8.146   1.956
24731SOL     OW75966   6.329   2.834   9.267
24731SOL    HW175967   6.300   2.866   9.182
24731SOL    HW275968   6.280   2.887   9.330
24732SOL     OW75969  11.004   4.065  12.642
24732SOL    HW175970  10.956   3.987  12.614
24732SOL    HW275971  11.029   4.108  12.560
24733SOL     OW75972   2.603  12.944   3.432
24733SOL    HW175973   2.591  13.027   3.479
24733SOL    HW275974   2.670  12.963   3.366
24734SOL     OW75975   0.997   3.008   0.244
24734SOL    HW175976   0.940   3.064   0.297
24734SOL    HW275977   0.973   3.029   0.154
24735SOL     OW75978   9.492   6.934   2.045
24735SOL    HW175979   9.480   6.848   2.006
24735SOL    HW275980   9.526   6.916   2.133
24736SOL     OW75981   4.771   1.934  12.049
24736SOL    HW175982   4.860   1.971  12.047
24736SOL    HW275983   4.773   1.872  12.122
24737SOL     OW75984  11.034  12.903  14.763
24737SOL    HW175985  11.042  12.985  14.716
24737SOL    HW275986  11.003  12.928  14.850
24738SOL     OW75987  13.103   4.028  14.406
24738SOL    HW175988  13.087   3.950  14.353
24738SOL    HW275989  13.059   4.098  14.359
24739SOL     OW75990   8.547  11.088  13.872
24739SOL    HW175991   8.566  11.174  13.833
24739SOL    HW275992   8.556  11.102  13.966
24740SOL     OW75993   9.690  13.660  10.030
24740SOL    HW175994   9.729  13.573  10.036
24740SOL    HW275995   9.655  13.677  10.117
24741SOL     OW75996   1.034  14.677   3.635
24741SOL    HW175997   0.948  14.636   3.629
24741SOL    HW275998   1.071  14.644   3.716
24742SOL     OW75999   1.299   3.026   0.398
24742SOL    HW176000   1.245   2.952   0.426
24742SOL    HW276001   1.260   3.055   0.315
24743SOL     OW76002  13.846   8.776   8.916
24743SOL    HW176003  13.810   8.691   8.939
24743SOL    HW276004  13.810   8.794   8.829
24744SOL     OW76005  13.612   0.664   9.525
24744SOL    HW176006  13.631   0.640   9.616
24744SOL    HW276007  13.581   0.583   9.485
24745SOL     OW76008   4.024   7.722  11.498
24745SOL    HW176009   3.990   7.738  11.586
24745SOL    HW276010   4.078   7.798  11.478
24746SOL     OW76011   8.779   0.624   4.819
24746SOL    HW176012   8.872   0.648   4.816
24746SOL    HW276013   8.772   0.551   4.757
24747SOL     OW76014   4.918   3.477   5.319
24747SOL    HW176015   4.866   3.405   5.285
24747SOL    HW276016   4.980   3.436   5.379
24748SOL     OW76017   4.374  13.825   1.738
24748SOL    HW176018   4.362  13.805   1.830
24748SOL    HW276019   4.461  13.793   1.717
24749SOL     OW76020  11.008   2.595   9.700
24749SOL    HW176021  11.082   2.610   9.641
24749SOL    HW276022  10.945   2.663   9.679
24750SOL     OW76023   6.148   1.318  14.264
24750SOL    HW176024   6.127   1.292  14.174
24750SOL    HW276025   6.120   1.409  14.271
24751SOL     OW76026   1.427   5.596   6.429
24751SOL    HW176027   1.348   5.614   6.378
24751SOL    HW276028   1.484   5.671   6.411
24752SOL     OW76029   7.882  12.430   7.894
24752SOL    HW176030   7.909  12.393   7.978
24752SOL    HW276031   7.889  12.356   7.832
24753SOL     OW76032   3.622   8.808   6.299
24753SOL    HW176033   3.537   8.825   6.340
24753SOL    HW276034   3.608   8.730   6.245
24754SOL     OW76035   4.931   6.021   7.580
24754SOL    HW176036   4.851   6.012   7.632
24754SOL    HW276037   4.948   6.115   7.577
24755SOL     OW76038  13.634  14.166   6.249
24755SOL    HW176039  13.561  14.156   6.188
24755SOL    HW276040  13.658  14.258   6.243
24756SOL     OW76041  12.873  13.637   4.673
24756SOL    HW176042  12.911  13.640   4.585
24756SOL    HW276043  12.782  13.666   4.661
24757SOL     OW76044  14.699   7.215   7.183
24757SOL    HW176045  14.745   7.296   7.160
24757SOL    HW276046  14.698   7.164   7.102
24758SOL     OW76047  13.387   6.965   6.588
24758SOL    HW176048  13.351   6.973   6.500
24758SOL    HW276049  13.315   6.932   6.641
24759SOL     OW76050  13.013   9.512   4.636
24759SOL    HW176051  13.030   9.443   4.700
24759SOL    HW276052  13.100   9.549   4.617
24760SOL     OW76053  13.763  13.035  10.536
24760SOL    HW176054  13.672  13.007  10.541
24760SOL    HW276055  13.767  13.091  10.459
24761SOL     OW76056   5.264   1.629   9.794
24761SOL    HW176057   5.213   1.635   9.713
24761SOL    HW276058   5.259   1.536   9.818
24762SOL     OW76059   8.032   8.077   9.546
24762SOL    HW176060   8.095   8.148   9.537
24762SOL    HW276061   8.084   7.997   9.549
24763SOL     OW76062   2.688  13.629   6.244
24763SOL    HW176063   2.731  13.563   6.188
24763SOL    HW276064   2.741  13.630   6.324
24764SOL     OW76065   1.818   9.017   7.975
24764SOL    HW176066   1.890   9.021   7.912
24764SOL    HW276067   1.855   8.973   8.052
24765SOL     OW76068   3.515   7.089  10.311
24765SOL    HW176069   3.436   7.035  10.317
24765SOL    HW276070   3.552   7.068  10.225
24766SOL     OW76071   1.291   8.571   7.925
24766SOL    HW176072   1.382   8.596   7.940
24766SOL    HW276073   1.289   8.539   7.835
24767SOL     OW76074   8.437   0.385   2.980
24767SOL    HW176075   8.363   0.438   2.950
24767SOL    HW276076   8.475   0.349   2.900
24768SOL     OW76077  10.039   6.934  14.226
24768SOL    HW176078  10.092   7.002  14.267
24768SOL    HW276079   9.969   6.982  14.181
24769SOL     OW76080  13.312   4.095   7.013
24769SOL    HW176081  13.359   4.052   6.943
24769SOL    HW276082  13.376   4.155   7.052
24770SOL     OW76083   0.746   9.430   0.885
24770SOL    HW176084   0.676   9.397   0.941
24770SOL    HW276085   0.826   9.397   0.926
24771SOL     OW76086   7.478   1.164   0.612
24771SOL    HW176087   7.402   1.203   0.656
24771SOL    HW276088   7.553   1.213   0.646
24772SOL     OW76089   0.848  11.375   2.098
24772SOL    HW176090   0.760  11.339   2.114
24772SOL    HW276091   0.852  11.453   2.154
24773SOL     OW76092  13.653   4.466   5.385
24773SOL    HW176093  13.567   4.500   5.359
24773SOL    HW276094  13.696   4.541   5.427
24774SOL     OW76095   8.398   2.926   6.466
24774SOL    HW176096   8.454   3.002   6.449
24774SOL    HW276097   8.310   2.961   6.472
24775SOL     OW76098  14.768   8.978   3.544
24775SOL    HW176099  14.722   8.899   3.571
24775SOL    HW276100  14.738   8.994   3.455
24776SOL     OW76101  11.042  11.536   0.792
24776SOL    HW176102  10.965  11.582   0.823
24776SOL    HW276103  11.032  11.447   0.825
24777SOL     OW76104   0.061  14.714   3.887
24777SOL    HW176105   0.137  14.715   3.829
24777SOL    HW276106   0.096  14.741   3.972
24778SOL     OW76107  10.017  12.759   3.236
24778SOL    HW176108  10.031  12.851   3.257
24778SOL    HW276109   9.990  12.719   3.319
24779SOL     OW76110   1.702   0.768   3.663
24779SOL    HW176111   1.640   0.840   3.659
24779SOL    HW276112   1.783   0.808   3.695
24780SOL     OW76113   7.038  11.578  13.331
24780SOL    HW176114   7.095  11.501  13.336
24780SOL    HW276115   6.949  11.541  13.327
24781SOL     OW76116   0.010  11.856   1.929
24781SOL    HW176117  14.806  11.895   1.897
24781SOL    HW276118  14.859  11.784   1.985
24782SOL     OW76119   2.925   0.088   1.748
24782SOL    HW176120   2.883   0.081   1.662
24782SOL    HW276121   2.978   0.008   1.756
24783SOL     OW76122  11.372   2.720   8.581
24783SOL    HW176123  11.285   2.750   8.558
24783SOL    HW276124  11.420   2.717   8.498
24784SOL     OW76125  11.278   4.448   6.929
24784SOL    HW176126  11.248   4.423   7.016
24784SOL    HW276127  11.311   4.537   6.939
24785SOL     OW76128   4.536  14.600   5.166
24785SOL    HW176129   4.517  14.693   5.155
24785SOL    HW276130   4.586  14.577   5.088
24786SOL     OW76131   9.185   6.098   6.102
24786SOL    HW176132   9.151   6.138   6.181
24786SOL    HW276133   9.278   6.121   6.101
24787SOL     OW76134   6.789   7.302  13.994
24787SOL    HW176135   6.843   7.355  13.935
24787SOL    HW276136   6.847   7.232  14.023
24788SOL     OW76137   8.713   4.307   6.725
24788SOL    HW176138   8.747   4.218   6.722
24788SOL    HW276139   8.652   4.311   6.651
24789SOL     OW76140   7.784   0.972   6.447
24789SOL    HW176141   7.842   0.902   6.417
24789SOL    HW276142   7.747   0.939   6.529
24790SOL     OW76143   4.079   1.897   6.176
24790SOL    HW176144   4.116   1.847   6.103
24790SOL    HW276145   4.027   1.965   6.133
24791SOL     OW76146   0.694   7.296   7.389
24791SOL    HW176147   0.767   7.297   7.450
24791SOL    HW276148   0.625   7.247   7.434
24792SOL     OW76149   0.342   9.546   3.981
24792SOL    HW176150   0.413   9.498   4.024
24792SOL    HW276151   0.281   9.478   3.953
24793SOL     OW76152   9.783  12.903   7.772
24793SOL    HW176153   9.757  12.909   7.864
24793SOL    HW276154   9.871  12.942   7.769
24794SOL     OW76155   1.251   4.655   5.171
24794SOL    HW176156   1.247   4.576   5.226
24794SOL    HW276157   1.284   4.623   5.087
24795SOL     OW76158  13.007   2.034  11.860
24795SOL    HW176159  13.087   2.083  11.881
24795SOL    HW276160  13.038   1.957  11.812
24796SOL     OW76161   0.053  14.834   8.987
24796SOL    HW176162   0.016  14.874   8.908
24796SOL    HW276163   0.052  14.740   8.969
24797SOL     OW76164  10.805   9.155   8.593
24797SOL    HW176165  10.854   9.230   8.561
24797SOL    HW276166  10.720   9.190   8.619
24798SOL     OW76167  10.181   6.680   9.252
24798SOL    HW176168  10.125   6.621   9.203
24798SOL    HW276169  10.196   6.754   9.193
24799SOL     OW76170   5.684   4.235  12.933
24799SOL    HW176171   5.690   4.265  13.024
24799SOL    HW276172   5.699   4.141  12.937
24800SOL     OW76173  14.258   4.839   1.980
24800SOL    HW176174  14.338   4.821   1.930
24800SOL    HW276175  14.200   4.766   1.960
24801SOL     OW76176   8.663   0.313   4.800
24801SOL    HW176177   8.639   0.359   4.881
24801SOL    HW276178   8.737   0.257   4.824
24802SOL     OW76179   3.077  12.819   2.599
24802SOL    HW176180   3.006  12.764   2.566
24802SOL    HW276181   3.048  12.909   2.580
24803SOL     OW76182   2.096  12.425   9.178
24803SOL    HW176183   2.094  12.340   9.222
24803SOL    HW276184   2.171  12.420   9.119
24804SOL     OW76185  14.689  10.052   9.730
24804SOL    HW176186  14.626  10.098   9.786
24804SOL    HW276187  14.712   9.973   9.779
24805SOL     OW76188  13.476   8.596   6.194
24805SOL    HW176189  13.393   8.549   6.202
24805SOL    HW276190  13.498   8.621   6.284
24806SOL     OW76191  10.874  13.964   3.660
24806SOL    HW176192  10.844  14.044   3.618
24806SOL    HW276193  10.969  13.977   3.671
24807SOL     OW76194  11.797   2.631   3.713
24807SOL    HW176195  11.703   2.649   3.704
24807SOL    HW276196  11.837   2.718   3.717
24808SOL     OW76197   5.630  10.357  12.803
24808SOL    HW176198   5.721  10.336  12.782
24808SOL    HW276199   5.610  10.304  12.880
24809SOL     OW76200   7.038   7.615  11.196
24809SOL    HW176201   7.039   7.585  11.287
24809SOL    HW276202   7.107   7.564  11.153
24810SOL     OW76203   0.052   2.000   6.169
24810SOL    HW176204   0.053   1.916   6.122
24810SOL    HW276205   0.117   2.054   6.125
24811SOL     OW76206   6.752  10.569   8.108
24811SOL    HW176207   6.847  10.577   8.117
24811SOL    HW276208   6.735  10.475   8.118
24812SOL     OW76209  11.662   4.534  11.694
24812SOL    HW176210  11.598   4.605  11.702
24812SOL    HW276211  11.747   4.577  11.695
24813SOL     OW76212   5.435   8.712  11.464
24813SOL    HW176213   5.454   8.632  11.514
24813SOL    HW276214   5.383   8.766  11.524
24814SOL     OW76215   1.916   6.941   0.193
24814SOL    HW176216   1.958   6.923   0.277
24814SOL    HW276217   1.876   7.027   0.206
24815SOL     OW76218   5.777   8.630  10.662
24815SOL    HW176219   5.853   8.681  10.689
24815SOL    HW276220   5.707   8.658  10.721
24816SOL     OW76221   5.244  13.149   2.540
24816SOL    HW176222   5.303  13.078   2.564
24816SOL    HW276223   5.221  13.190   2.624
24817SOL     OW76224   2.921   7.183  11.111
24817SOL    HW176225   2.994   7.145  11.062
24817SOL    HW276226   2.895   7.259  11.059
24818SOL     OW76227  10.329  12.419   8.648
24818SOL    HW176228  10.348  12.444   8.558
24818SOL    HW276229  10.405  12.368   8.676
24819SOL     OW76230   7.694   5.915   4.573
24819SOL    HW176231   7.627   5.909   4.642
24819SOL    HW276232   7.754   5.983   4.604
24820SOL     OW76233  13.741   8.967  14.145
24820SOL    HW176234  13.650   8.940  14.158
24820SOL    HW276235  13.782   8.893  14.101
24821SOL     OW76236   2.657  13.056   5.559
24821SOL    HW176237   2.659  12.961   5.543
24821SOL    HW276238   2.579  13.069   5.613
24822SOL     OW76239   7.268   0.017  11.006
24822SOL    HW176240   7.291  14.829  10.940
24822SOL    HW276241   7.241   0.093  10.955
24823SOL     OW76242  14.401   5.823   5.974
24823SOL    HW176243  14.324   5.774   6.002
24823SOL    HW276244  14.379   5.853   5.885
24824SOL     OW76245  13.505  14.319   3.091
24824SOL    HW176246  13.481  14.229   3.115
24824SOL    HW276247  13.427  14.353   3.046
24825SOL     OW76248   4.418  14.287   0.366
24825SOL    HW176249   4.447  14.361   0.313
24825SOL    HW276250   4.374  14.229   0.303
24826SOL     OW76251   0.607   5.368   4.896
24826SOL    HW176252   0.578   5.368   4.805
24826SOL    HW276253   0.653   5.285   4.907
24827SOL     OW76254   6.029   7.108   8.476
24827SOL    HW176255   5.949   7.080   8.520
24827SOL    HW276256   6.057   7.031   8.426
24828SOL     OW76257   7.848   9.432  10.707
24828SOL    HW176258   7.799   9.469  10.633
24828SOL    HW276259   7.781   9.416  10.774
24829SOL     OW76260  14.066   8.248  12.342
24829SOL    HW176261  13.989   8.301  12.320
24829SOL    HW276262  14.140   8.301  12.313
24830SOL     OW76263   0.119   1.899   0.949
24830SOL    HW176264   0.064   1.882   0.872
24830SOL    HW276265   0.206   1.914   0.913
24831SOL     OW76266   4.344   1.385   8.294
24831SOL    HW176267   4.297   1.373   8.377
24831SOL    HW276268   4.360   1.296   8.263
24832SOL     OW76269  10.743   9.603   5.629
24832SOL    HW176270  10.769   9.524   5.583
24832SOL    HW276271  10.762   9.585   5.721
24833SOL     OW76272   1.349  13.425   4.401
24833SOL    HW176273   1.268  13.379   4.381
24833SOL    HW276274   1.359  13.487   4.329
24834SOL     OW76275   6.679   1.604   8.375
24834SOL    HW176276   6.690   1.509   8.374
24834SOL    HW276277   6.609   1.620   8.438
24835SOL     OW76278   9.542  12.970  14.807
24835SOL    HW176279   9.530  12.877  14.829
24835SOL    HW276280   9.462  12.993  14.759
24836SOL     OW76281   7.925   4.705   3.968
24836SOL    HW176282   7.961   4.696   3.880
24836SOL    HW276283   7.834   4.730   3.954
24837SOL     OW76284   7.870   5.422   0.492
24837SOL    HW176285   7.781   5.411   0.526
24837SOL    HW276286   7.868   5.381   0.406
24838SOL     OW76287   3.266   5.760   2.125
24838SOL    HW176288   3.307   5.745   2.040
24838SOL    HW276289   3.263   5.855   2.134
24839SOL     OW76290   4.239   4.136   6.844
24839SOL    HW176291   4.177   4.200   6.807
24839SOL    HW276292   4.298   4.188   6.898
24840SOL     OW76293   4.570   7.672   7.215
24840SOL    HW176294   4.623   7.646   7.291
24840SOL    HW276295   4.592   7.764   7.201
24841SOL     OW76296  14.736   5.464  14.477
24841SOL    HW176297  14.762   5.538  14.531
24841SOL    HW276298  14.682   5.502  14.408
24842SOL     OW76299   6.223   3.059  14.794
24842SOL    HW176300   6.245   3.035  14.704
24842SOL    HW276301   6.177   3.142  14.785
24843SOL     OW76302   0.187   3.271   2.885
24843SOL    HW176303   0.099   3.237   2.871
24843SOL    HW276304   0.234   3.250   2.805
24844SOL     OW76305   8.875  14.295  10.550
24844SOL    HW176306   8.836  14.321  10.634
24844SOL    HW276307   8.946  14.236  10.575
24845SOL     OW76308   1.385  14.208   0.660
24845SOL    HW176309   1.473  14.171   0.664
24845SOL    HW276310   1.327  14.131   0.657
24846SOL     OW76311   3.957   0.743  13.728
24846SOL    HW176312   4.051   0.742  13.713
24846SOL    HW276313   3.948   0.745  13.823
24847SOL     OW76314   3.871   4.149   6.462
24847SOL    HW176315   3.915   4.090   6.401
24847SOL    HW276316   3.806   4.093   6.506
24848SOL     OW76317  13.844   3.890  11.852
24848SOL    HW176318  13.890   3.843  11.782
24848SOL    HW276319  13.884   3.857  11.933
24849SOL     OW76320   7.096   8.578   0.632
24849SOL    HW176321   7.170   8.586   0.572
24849SOL    HW276322   7.028   8.632   0.593
24850SOL     OW76323   9.289   8.459  14.525
24850SOL    HW176324   9.226   8.393  14.496
24850SOL    HW276325   9.253   8.493  14.607
24851SOL     OW76326  10.122   6.257   2.445
24851SOL    HW176327  10.195   6.262   2.507
24851SOL    HW276328  10.074   6.339   2.458
24852SOL     OW76329  13.682   8.841   5.469
24852SOL    HW176330  13.666   8.809   5.380
24852SOL    HW276331  13.596   8.837   5.511
24853SOL     OW76332   8.927   6.523  14.482
24853SOL    HW176333   8.921   6.539  14.576
24853SOL    HW276334   8.865   6.452  14.466
24854SOL     OW76335   8.137  12.838   5.693
24854SOL    HW176336   8.214  12.813   5.744
24854SOL    HW276337   8.076  12.872   5.758
24855SOL     OW76338  13.203   5.170   1.232
24855SOL    HW176339  13.212   5.259   1.267
24855SOL    HW276340  13.254   5.171   1.151
24856SOL     OW76341   1.745   9.772   3.285
24856SOL    HW176342   1.770   9.680   3.293
24856SOL    HW276343   1.649   9.770   3.283
24857SOL     OW76344  14.463   1.312   8.258
24857SOL    HW176345  14.550   1.284   8.228
24857SOL    HW276346  14.422   1.232   8.291
24858SOL     OW76347  10.870   8.599  13.178
24858SOL    HW176348  10.791   8.645  13.150
24858SOL    HW276349  10.870   8.608  13.273
24859SOL     OW76350   3.502  10.817   5.020
24859SOL    HW176351   3.450  10.855   4.949
24859SOL    HW276352   3.458  10.846   5.100
24860SOL     OW76353   9.213   9.201   0.982
24860SOL    HW176354   9.302   9.197   1.014
24860SOL    HW276355   9.170   9.124   1.020
24861SOL     OW76356   2.803  10.946   9.376
24861SOL    HW176357   2.851  11.013   9.327
24861SOL    HW276358   2.711  10.970   9.367
24862SOL     OW76359  13.129  14.074   0.838
24862SOL    HW176360  13.219  14.062   0.808
24862SOL    HW276361  13.116  14.169   0.835
24863SOL     OW76362   9.937  11.201   7.041
24863SOL    HW176363   9.980  11.282   7.068
24863SOL    HW276364   9.993  11.131   7.074
24864SOL     OW76365   5.599   1.835   5.061
24864SOL    HW176366   5.528   1.898   5.071
24864SOL    HW276367   5.671   1.885   5.021
24865SOL     OW76368   3.953   1.903  10.340
24865SOL    HW176369   3.886   1.833  10.336
24865SOL    HW276370   4.019   1.869  10.399
24866SOL     OW76371   1.151   2.764   1.197
24866SOL    HW176372   1.160   2.859   1.183
24866SOL    HW276373   1.225   2.726   1.149
24867SOL     OW76374   0.669   2.268   8.941
24867SOL    HW176375   0.618   2.315   8.875
24867SOL    HW276376   0.621   2.185   8.954
24868SOL     OW76377   8.720   7.173  10.059
24868SOL    HW176378   8.797   7.135  10.016
24868SOL    HW276379   8.680   7.228   9.991
24869SOL     OW76380   5.501  10.050   4.642
24869SOL    HW176381   5.440   9.977   4.632
24869SOL    HW276382   5.506  10.089   4.555
24870SOL     OW76383   7.774  11.191   2.936
24870SOL    HW176384   7.736  11.236   2.861
24870SOL    HW276385   7.787  11.260   3.002
24871SOL     OW76386   5.938  14.230   0.388
24871SOL    HW176387   5.979  14.246   0.303
24871SOL    HW276388   6.011  14.226   0.450
24872SOL     OW76389  13.205  12.007   3.687
24872SOL    HW176390  13.288  11.963   3.673
24872SOL    HW276391  13.219  12.060   3.766
24873SOL     OW76392   2.155   9.767  14.793
24873SOL    HW176393   2.222   9.747  14.858
24873SOL    HW276394   2.136   9.683  14.752
24874SOL     OW76395  11.564   1.150   1.870
24874SOL    HW176396  11.488   1.113   1.914
24874SOL    HW276397  11.637   1.129   1.929
24875SOL     OW76398   8.610   4.450   7.100
24875SOL    HW176399   8.637   4.541   7.088
24875SOL    HW276400   8.615   4.435   7.194
24876SOL     OW76401  10.697   9.856   3.864
24876SOL    HW176402  10.739   9.794   3.924
24876SOL    HW276403  10.605   9.854   3.889
24877SOL     OW76404  13.468   8.031   7.405
24877SOL    HW176405  13.492   7.962   7.467
24877SOL    HW276406  13.549   8.047   7.356
24878SOL     OW76407   4.670   7.101   8.270
24878SOL    HW176408   4.592   7.073   8.319
24878SOL    HW276409   4.715   7.161   8.330
24879SOL     OW76410  11.853   4.487  10.781
24879SOL    HW176411  11.835   4.549  10.711
24879SOL    HW276412  11.769   4.446  10.800
24880SOL     OW76413   3.161  10.175  11.784
24880SOL    HW176414   3.138  10.264  11.809
24880SOL    HW276415   3.256  10.171  11.792
24881SOL     OW76416   0.284  14.676   3.735
24881SOL    HW176417   0.244  14.694   3.650
24881SOL    HW276418   0.358  14.617   3.715
24882SOL     OW76419  13.327  12.424   5.151
24882SOL    HW176420  13.413  12.444   5.115
24882SOL    HW276421  13.273  12.500   5.128
24883SOL     OW76422   5.704  10.648  10.993
24883SOL    HW176423   5.700  10.715  11.061
24883SOL    HW276424   5.714  10.698  10.912
24884SOL     OW76425   0.979   0.119  10.111
24884SOL    HW176426   0.957   0.212  10.111
24884SOL    HW276427   1.072   0.116  10.131
24885SOL     OW76428  14.242  13.952   1.908
24885SOL    HW176429  14.298  13.892   1.859
24885SOL    HW276430  14.180  13.986   1.842
24886SOL     OW76431   2.625   7.404   5.035
24886SOL    HW176432   2.714   7.427   5.007
24886SOL    HW276433   2.589   7.353   4.962
24887SOL     OW76434   2.438   4.111  10.565
24887SOL    HW176435   2.460   4.112  10.471
24887SOL    HW276436   2.487   4.037  10.600
24888SOL     OW76437  12.392   2.314  12.100
24888SOL    HW176438  12.333   2.349  12.032
24888SOL    HW276439  12.471   2.367  12.093
24889SOL     OW76440   5.905   7.772  11.841
24889SOL    HW176441   5.941   7.859  11.827
24889SOL    HW276442   5.957   7.736  11.913
24890SOL     OW76443   6.473  12.339   2.973
24890SOL    HW176444   6.413  12.389   2.917
24890SOL    HW276445   6.425  12.260   2.995
24891SOL     OW76446   6.733  10.446   6.848
24891SOL    HW176447   6.824  10.443   6.876
24891SOL    HW276448   6.738  10.450   6.752
24892SOL     OW76449  12.750   0.002  13.789
24892SOL    HW176450  12.684   0.003  13.859
24892SOL    HW276451  12.737  14.795  13.746
24893SOL     OW76452   8.148   7.046   0.849
24893SOL    HW176453   8.154   6.995   0.930
24893SOL    HW276454   8.184   7.132   0.872
24894SOL     OW76455   2.589  12.417   8.871
24894SOL    HW176456   2.629  12.338   8.835
24894SOL    HW276457   2.530  12.385   8.940
24895SOL     OW76458  13.331   3.752   5.779
24895SOL    HW176459  13.259   3.689   5.778
24895SOL    HW276460  13.359   3.755   5.871
24896SOL     OW76461  13.366   3.080   1.372
24896SOL    HW176462  13.454   3.080   1.335
24896SOL    HW276463  13.309   3.069   1.296
24897SOL     OW76464   8.703   2.875   2.032
24897SOL    HW176465   8.764   2.947   2.047
24897SOL    HW276466   8.617   2.915   2.037
24898SOL     OW76467   3.910  14.486   8.019
24898SOL    HW176468   3.926  14.487   8.114
24898SOL    HW276469   3.834  14.429   8.008
24899SOL     OW76470   1.094   8.007  14.839
24899SOL    HW176471   1.074   7.988   0.053
24899SOL    HW276472   1.166   8.070  14.844
24900SOL     OW76473  13.646   3.103   5.053
24900SOL    HW176474  13.712   3.062   5.109
24900SOL    HW276475  13.685   3.103   4.966
24901SOL     OW76476   7.683   4.065  10.333
24901SOL    HW176477   7.771   4.046  10.366
24901SOL    HW276478   7.698   4.122  10.257
24902SOL     OW76479   4.002  12.875   6.531
24902SOL    HW176480   3.969  12.903   6.617
24902SOL    HW276481   4.097  12.887   6.537
24903SOL     OW76482   6.603  10.594   5.877
24903SOL    HW176483   6.618  10.535   5.803
24903SOL    HW276484   6.509  10.612   5.874
24904SOL     OW76485   6.567   4.315   6.392
24904SOL    HW176486   6.595   4.260   6.319
24904SOL    HW276487   6.598   4.403   6.369
24905SOL     OW76488  11.071   0.645   6.761
24905SOL    HW176489  10.990   0.596   6.776
24905SOL    HW276490  11.061   0.682   6.674
24906SOL     OW76491   3.587   0.959   9.233
24906SOL    HW176492   3.627   0.963   9.320
24906SOL    HW276493   3.527   1.034   9.231
24907SOL     OW76494   3.933  10.482   3.161
24907SOL    HW176495   3.885  10.399   3.157
24907SOL    HW276496   3.875  10.545   3.118
24908SOL     OW76497   8.182   5.248  11.408
24908SOL    HW176498   8.133   5.191  11.467
24908SOL    HW276499   8.263   5.268  11.455
24909SOL     OW76500   6.505   5.120   6.721
24909SOL    HW176501   6.519   5.107   6.815
24909SOL    HW276502   6.459   5.041   6.692
24910SOL     OW76503  13.048   0.878   1.673
24910SOL    HW176504  13.096   0.917   1.745
24910SOL    HW276505  12.956   0.900   1.690
24911SOL     OW76506   8.813   8.114  14.003
24911SOL    HW176507   8.888   8.056  14.011
24911SOL    HW276508   8.803   8.127  13.908
24912SOL     OW76509   5.297   1.572   3.770
24912SOL    HW176510   5.302   1.636   3.841
24912SOL    HW276511   5.323   1.489   3.810
24913SOL     OW76512   0.891  12.866   7.331
24913SOL    HW176513   0.803  12.845   7.300
24913SOL    HW276514   0.916  12.944   7.281
24914SOL     OW76515   8.115   3.390  13.575
24914SOL    HW176516   8.171   3.373  13.500
24914SOL    HW276517   8.059   3.313  13.582
24915SOL     OW76518   9.043  14.501  14.416
24915SOL    HW176519   8.955  14.510  14.451
24915SOL    HW276520   9.030  14.488  14.322
24916SOL     OW76521   7.530  12.392   1.754
24916SOL    HW176522   7.616  12.350   1.765
24916SOL    HW276523   7.471  12.319   1.735
24917SOL     OW76524   8.059  14.098   0.439
24917SOL    HW176525   8.060  14.164   0.509
24917SOL    HW276526   8.124  14.130   0.376
24918SOL     OW76527  12.429  10.025   8.377
24918SOL    HW176528  12.355  10.071   8.416
24918SOL    HW276529  12.478   9.989   8.451
24919SOL     OW76530   1.972   0.259   7.846
24919SOL    HW176531   1.911   0.329   7.824
24919SOL    HW276532   2.059   0.299   7.841
24920SOL     OW76533  11.762   2.638   4.136
24920SOL    HW176534  11.714   2.573   4.187
24920SOL    HW276535  11.696   2.704   4.113
24921SOL     OW76536  12.266   1.806   6.145
24921SOL    HW176537  12.278   1.820   6.239
24921SOL    HW276538  12.222   1.885   6.114
24922SOL     OW76539   3.819   7.351   5.536
24922SOL    HW176540   3.807   7.446   5.545
24922SOL    HW276541   3.870   7.326   5.613
24923SOL     OW76542  14.303   4.214   0.070
24923SOL    HW176543  14.391   4.242   0.094
24923SOL    HW276544  14.253   4.221   0.152
24924SOL     OW76545   4.900   3.492   8.608
24924SOL    HW176546   4.986   3.522   8.636
24924SOL    HW276547   4.914   3.401   8.581
24925SOL     OW76548  13.773   9.949   8.976
24925SOL    HW176549  13.769   9.910   9.063
24925SOL    HW276550  13.682   9.972   8.956
24926SOL     OW76551   7.233   1.133   5.423
24926SOL    HW176552   7.233   1.101   5.513
24926SOL    HW276553   7.305   1.196   5.420
24927SOL     OW76554   2.778   7.947   9.898
24927SOL    HW176555   2.754   7.900   9.818
24927SOL    HW276556   2.715   7.917   9.963
24928SOL     OW76557   4.858   5.532   5.705
24928SOL    HW176558   4.825   5.556   5.792
24928SOL    HW276559   4.802   5.579   5.644
24929SOL     OW76560   9.148   8.919   2.324
24929SOL    HW176561   9.085   8.915   2.396
24929SOL    HW276562   9.106   8.870   2.253
24930SOL     OW76563  12.387  14.409   0.884
24930SOL    HW176564  12.463  14.409   0.827
24930SOL    HW276565  12.332  14.338   0.850
24931SOL     OW76566  14.381  14.380   5.908
24931SOL    HW176567  14.412  14.297   5.871
24931SOL    HW276568  14.326  14.418   5.839
24932SOL     OW76569   7.340   5.442   3.425
24932SOL    HW176570   7.411   5.391   3.464
24932SOL    HW276571   7.267   5.433   3.486
24933SOL     OW76572  10.627   2.012  12.726
24933SOL    HW176573  10.566   1.942  12.747
24933SOL    HW276574  10.589   2.090  12.767
24934SOL     OW76575   1.300   6.791   4.670
24934SOL    HW176576   1.306   6.863   4.733
24934SOL    HW276577   1.226   6.814   4.614
24935SOL     OW76578  12.991   9.353   0.639
24935SOL    HW176579  13.067   9.393   0.682
24935SOL    HW276580  13.021   9.335   0.550
24936SOL     OW76581   4.425   7.845  14.386
24936SOL    HW176582   4.358   7.803  14.439
24936SOL    HW276583   4.508   7.813  14.422
24937SOL     OW76584  10.342   9.635   3.619
24937SOL    HW176585  10.391   9.713   3.592
24937SOL    HW276586  10.408   9.567   3.628
24938SOL     OW76587   2.695   5.305   7.070
24938SOL    HW176588   2.767   5.242   7.073
24938SOL    HW276589   2.737   5.391   7.070
24939SOL     OW76590   5.936   3.662  11.063
24939SOL    HW176591   5.851   3.621  11.049
24939SOL    HW276592   5.945   3.725  10.992
24940SOL     OW76593   2.786   9.621   7.168
24940SOL    HW176594   2.714   9.663   7.216
24940SOL    HW276595   2.848   9.595   7.237
24941SOL     OW76596   5.785   9.837   9.603
24941SOL    HW176597   5.799   9.746   9.577
24941SOL    HW276598   5.781   9.834   9.699
24942SOL     OW76599   2.554   5.868  11.161
24942SOL    HW176600   2.617   5.832  11.223
24942SOL    HW276601   2.529   5.793  11.107
24943SOL     OW76602   9.179  11.798   9.935
24943SOL    HW176603   9.139  11.875   9.976
24943SOL    HW276604   9.135  11.791   9.850
24944SOL     OW76605  14.279  11.882   1.306
24944SOL    HW176606  14.360  11.831   1.314
24944SOL    HW276607  14.210  11.821   1.333
24945SOL     OW76608   5.596   2.351   6.881
24945SOL    HW176609   5.628   2.343   6.971
24945SOL    HW276610   5.610   2.443   6.859
24946SOL     OW76611   7.501   0.590   1.680
24946SOL    HW176612   7.446   0.511   1.674
24946SOL    HW276613   7.441   0.662   1.662
24947SOL     OW76614  12.067   3.892  13.313
24947SOL    HW176615  11.973   3.885  13.326
24947SOL    HW276616  12.106   3.843  13.385
24948SOL     OW76617   1.216   9.547  12.071
24948SOL    HW176618   1.291   9.488  12.070
24948SOL    HW276619   1.236   9.611  12.139
24949SOL     OW76620  12.634   8.706   2.763
24949SOL    HW176621  12.664   8.739   2.848
24949SOL    HW276622  12.608   8.616   2.780
24950SOL     OW76623   6.614   8.196  13.550
24950SOL    HW176624   6.535   8.191  13.605
24950SOL    HW276625   6.623   8.108  13.514
24951SOL     OW76626  13.319  12.122  12.343
24951SOL    HW176627  13.286  12.181  12.275
24951SOL    HW276628  13.279  12.154  12.424
24952SOL     OW76629  12.883   4.879  14.025
24952SOL    HW176630  12.844   4.792  14.019
24952SOL    HW276631  12.948   4.870  14.096
24953SOL     OW76632   9.442  14.821  10.122
24953SOL    HW176633   9.362  14.873  10.130
24953SOL    HW276634   9.476  14.842  10.035
24954SOL     OW76635   1.387  10.728   9.141
24954SOL    HW176636   1.369  10.711   9.048
24954SOL    HW276637   1.477  10.760   9.142
24955SOL     OW76638   2.366   3.295   5.402
24955SOL    HW176639   2.379   3.214   5.353
24955SOL    HW276640   2.425   3.288   5.477
24956SOL     OW76641   9.914   7.775  10.928
24956SOL    HW176642   9.931   7.869  10.915
24956SOL    HW276643   9.980   7.732  10.874
24957SOL     OW76644  12.652   5.119  12.357
24957SOL    HW176645  12.729   5.082  12.314
24957SOL    HW276646  12.593   5.045  12.368
24958SOL     OW76647   1.628   6.958   6.776
24958SOL    HW176648   1.695   7.024   6.762
24958SOL    HW276649   1.672   6.875   6.761
24959SOL     OW76650   5.895  10.429  10.938
24959SOL    HW176651   5.842  10.498  10.978
24959SOL    HW276652   5.835  10.354  10.931
24960SOL     OW76653   6.049   1.739   6.284
24960SOL    HW176654   6.034   1.833   6.288
24960SOL    HW276655   6.143   1.730   6.266
24961SOL     OW76656   1.565  12.309  10.694
24961SOL    HW176657   1.645  12.361  10.688
24961SOL    HW276658   1.495  12.374  10.701
24962SOL     OW76659  13.545   6.997   5.016
24962SOL    HW176660  13.481   6.938   4.978
24962SOL    HW276661  13.539   7.077   4.963
24963SOL     OW76662  12.632   6.861   1.804
24963SOL    HW176663  12.689   6.812   1.862
24963SOL    HW276664  12.583   6.794   1.756
24964SOL     OW76665  13.295   1.627  14.611
24964SOL    HW176666  13.297   1.561  14.680
24964SOL    HW276667  13.375   1.612  14.561
24965SOL     OW76668   0.564  11.682   3.316
24965SOL    HW176669   0.497  11.650   3.255
24965SOL    HW276670   0.545  11.775   3.326
24966SOL     OW76671   4.140   6.518   3.708
24966SOL    HW176672   4.116   6.548   3.796
24966SOL    HW276673   4.178   6.432   3.722
24967SOL     OW76674  11.108   3.644   2.796
24967SOL    HW176675  11.165   3.690   2.733
24967SOL    HW276676  11.020   3.675   2.775
24968SOL     OW76677  11.221  14.168  11.247
24968SOL    HW176678  11.252  14.258  11.255
24968SOL    HW276679  11.158  14.158  11.319
24969SOL     OW76680  13.676  10.397   3.783
24969SOL    HW176681  13.588  10.400   3.820
24969SOL    HW276682  13.701  10.304   3.787
24970SOL     OW76683   7.392   4.646   5.427
24970SOL    HW176684   7.417   4.566   5.381
24970SOL    HW276685   7.475   4.691   5.444
24971SOL     OW76686   2.208   4.980   0.909
24971SOL    HW176687   2.195   4.922   0.834
24971SOL    HW276688   2.285   4.943   0.954
24972SOL     OW76689   8.598   5.963   1.326
24972SOL    HW176690   8.560   5.965   1.238
24972SOL    HW276691   8.546   5.896   1.372
24973SOL     OW76692  13.062   4.458   5.884
24973SOL    HW176693  12.996   4.389   5.891
24973SOL    HW276694  13.105   4.440   5.800
24974SOL     OW76695  14.350   9.673  13.219
24974SOL    HW176696  14.312   9.704  13.136
24974SOL    HW276697  14.432   9.631  13.194
24975SOL     OW76698   4.645  12.816   2.713
24975SOL    HW176699   4.724  12.799   2.765
24975SOL    HW276700   4.611  12.730   2.691
24976SOL     OW76701   5.513  11.598   9.218
24976SOL    HW176702   5.461  11.671   9.253
24976SOL    HW276703   5.497  11.601   9.124
24977SOL     OW76704  13.179   0.718   4.342
24977SOL    HW176705  13.179   0.760   4.256
24977SOL    HW276706  13.143   0.631   4.327
24978SOL     OW76707  11.197   6.975   1.682
24978SOL    HW176708  11.124   6.951   1.739
24978SOL    HW276709  11.239   7.049   1.727
24979SOL     OW76710   3.944   4.047   9.245
24979SOL    HW176711   3.879   4.022   9.179
24979SOL    HW276712   3.938   4.142   9.251
24980SOL     OW76713   6.563  12.086   4.618
24980SOL    HW176714   6.606  12.043   4.545
24980SOL    HW276715   6.598  12.043   4.696
24981SOL     OW76716   8.415   0.594  14.667
24981SOL    HW176717   8.449   0.527  14.726
24981SOL    HW276718   8.491   0.650  14.648
24982SOL     OW76719   6.944   4.284   4.945
24982SOL    HW176720   7.039   4.273   4.948
24982SOL    HW276721   6.924   4.291   4.851
24983SOL     OW76722  13.489   0.217   2.197
24983SOL    HW176723  13.409   0.266   2.181
24983SOL    HW276724  13.544   0.234   2.120
24984SOL     OW76725   5.297   5.660   9.379
24984SOL    HW176726   5.307   5.666   9.475
24984SOL    HW276727   5.288   5.567   9.362
24985SOL     OW76728   4.804   6.889   5.803
24985SOL    HW176729   4.801   6.860   5.894
24985SOL    HW276730   4.802   6.808   5.752
24986SOL     OW76731   2.037   3.745   4.108
24986SOL    HW176732   2.031   3.649   4.103
24986SOL    HW276733   2.113   3.761   4.164
24987SOL     OW76734  12.334   9.083   5.596
24987SOL    HW176735  12.335   9.165   5.644
24987SOL    HW276736  12.341   9.109   5.504
24988SOL     OW76737  10.807   0.116   2.271
24988SOL    HW176738  10.889   0.113   2.320
24988SOL    HW276739  10.751   0.173   2.323
24989SOL     OW76740   8.892  10.737   5.939
24989SOL    HW176741   8.984  10.742   5.912
24989SOL    HW276742   8.852  10.677   5.876
24990SOL     OW76743   8.168  13.158   1.383
24990SOL    HW176744   8.247  13.210   1.394
24990SOL    HW276745   8.191  13.072   1.417
24991SOL     OW76746   2.170   2.541  14.624
24991SOL    HW176747   2.108   2.491  14.571
24991SOL    HW276748   2.137   2.534  14.713
24992SOL     OW76749  10.088   4.972   4.502
24992SOL    HW176750  10.047   4.901   4.453
24992SOL    HW276751  10.182   4.963   4.484
24993SOL     OW76752   5.025  11.194  11.379
24993SOL    HW176753   5.019  11.116  11.325
24993SOL    HW276754   4.982  11.170  11.461
24994SOL     OW76755   9.954   7.252  13.664
24994SOL    HW176756   9.998   7.273  13.582
24994SOL    HW276757  10.019   7.202  13.714
24995SOL     OW76758   9.547   9.752   6.405
24995SOL    HW176759   9.616   9.720   6.347
24995SOL    HW276760   9.528   9.677   6.462
24996SOL     OW76761   2.628  14.175   1.052
24996SOL    HW176762   2.704  14.131   1.089
24996SOL    HW276763   2.620  14.140   0.963
24997SOL     OW76764  11.050   6.718  10.311
24997SOL    HW176765  10.968   6.715  10.360
24997SOL    HW276766  11.036   6.658  10.238
24998SOL     OW76767   6.338   7.835   3.034
24998SOL    HW176768   6.315   7.792   3.117
24998SOL    HW276769   6.254   7.856   2.994
24999SOL     OW76770  13.344   0.241  14.297
24999SOL    HW176771  13.439   0.233  14.309
24999SOL    HW276772  13.309   0.245  14.386
25000SOL     OW76773  10.975   0.719   7.643
25000SOL    HW176774  11.003   0.795   7.592
25000SOL    HW276775  10.884   0.738   7.666
25001SOL     OW76776  13.229  10.078   1.906
25001SOL    HW176777  13.175  10.156   1.913
25001SOL    HW276778  13.172  10.014   1.863
25002SOL     OW76779   5.492   7.951   9.767
25002SOL    HW176780   5.574   7.982   9.729
25002SOL    HW276781   5.458   8.025   9.816
25003SOL     OW76782   3.495   7.539   2.841
25003SOL    HW176783   3.531   7.480   2.906
25003SOL    HW276784   3.555   7.532   2.766
25004SOL     OW76785   3.934  14.095   2.597
25004SOL    HW176786   3.855  14.053   2.631
25004SOL    HW276787   3.936  14.070   2.505
25005SOL     OW76788  11.462   0.974   9.785
25005SOL    HW176789  11.411   1.055   9.790
25005SOL    HW276790  11.526   0.982   9.855
25006SOL     OW76791  12.016  11.271   3.031
25006SOL    HW176792  11.958  11.297   3.102
25006SOL    HW276793  11.995  11.331   2.959
25007SOL     OW76794   9.574   9.404   7.756
25007SOL    HW176795   9.484   9.371   7.751
25007SOL    HW276796   9.588   9.447   7.671
25008SOL     OW76797   9.155  12.775   8.076
25008SOL    HW176798   9.198  12.859   8.063
25008SOL    HW276799   9.144  12.739   7.987
25009SOL     OW76800  11.521  14.875   2.804
25009SOL    HW176801  11.518   0.090   2.780
25009SOL    HW276802  11.429  14.851   2.817
25010SOL     OW76803  10.275  10.814   3.517
25010SOL    HW176804  10.368  10.792   3.524
25010SOL    HW276805  10.235  10.772   3.592
25011SOL     OW76806   1.524   7.154   8.519
25011SOL    HW176807   1.558   7.208   8.448
25011SOL    HW276808   1.576   7.074   8.515
25012SOL     OW76809   8.097   6.034   8.015
25012SOL    HW176810   8.147   5.993   8.086
25012SOL    HW276811   8.010   5.996   8.023
25013SOL     OW76812   9.726  13.278   5.699
25013SOL    HW176813   9.729  13.189   5.666
25013SOL    HW276814   9.632  13.297   5.711
25014SOL     OW76815   5.691  12.796   7.467
25014SOL    HW176816   5.749  12.777   7.393
25014SOL    HW276817   5.749  12.799   7.543
25015SOL     OW76818   4.429   3.353   2.095
25015SOL    HW176819   4.339   3.340   2.066
25015SOL    HW276820   4.480   3.291   2.043
25016SOL     OW76821   5.595  14.226   8.497
25016SOL    HW176822   5.677  14.250   8.455
25016SOL    HW276823   5.616  14.149   8.550
25017SOL     OW76824   8.285   3.531   7.900
25017SOL    HW176825   8.336   3.515   7.821
25017SOL    HW276826   8.269   3.625   7.901
25018SOL     OW76827   2.902   2.882   9.961
25018SOL    HW176828   2.961   2.854  10.031
25018SOL    HW276829   2.942   2.848   9.881
25019SOL     OW76830  11.425   2.379   2.534
25019SOL    HW176831  11.394   2.451   2.589
25019SOL    HW276832  11.513   2.360   2.566
25020SOL     OW76833   6.878  10.057  13.895
25020SOL    HW176834   6.867  10.053  13.990
25020SOL    HW276835   6.811   9.998  13.861
25021SOL     OW76836   8.303   3.967   8.878
25021SOL    HW176837   8.331   4.053   8.849
25021SOL    HW276838   8.318   3.968   8.973
25022SOL     OW76839  10.695  11.118  14.360
25022SOL    HW176840  10.647  11.182  14.414
25022SOL    HW276841  10.777  11.105  14.407
25023SOL     OW76842   1.816   0.715   3.114
25023SOL    HW176843   1.759   0.642   3.088
25023SOL    HW276844   1.903   0.691   3.081
25024SOL     OW76845   0.598  12.697   2.316
25024SOL    HW176846   0.641  12.614   2.334
25024SOL    HW276847   0.618  12.715   2.224
25025SOL     OW76848   9.660   0.120   7.982
25025SOL    HW176849   9.611   0.123   7.900
25025SOL    HW276850   9.740   0.169   7.964
25026SOL     OW76851  12.810   4.659   9.304
25026SOL    HW176852  12.767   4.700   9.228
25026SOL    HW276853  12.752   4.679   9.378
25027SOL     OW76854   7.918  14.682   4.556
25027SOL    HW176855   8.005  14.715   4.575
25027SOL    HW276856   7.888  14.734   4.482
25028SOL     OW76857  11.910   7.175   8.320
25028SOL    HW176858  11.925   7.175   8.415
25028SOL    HW276859  11.997   7.165   8.282
25029SOL     OW76860   2.809  13.124  14.485
25029SOL    HW176861   2.848  13.203  14.448
25029SOL    HW276862   2.715  13.133  14.468
25030SOL     OW76863   6.978   5.504   4.423
25030SOL    HW176864   6.946   5.464   4.504
25030SOL    HW276865   6.984   5.432   4.361
25031SOL     OW76866   5.059   3.431   1.109
25031SOL    HW176867   5.114   3.364   1.070
25031SOL    HW276868   5.106   3.456   1.189
25032SOL     OW76869   8.225  10.109   7.018
25032SOL    HW176870   8.296  10.172   7.010
25032SOL    HW276871   8.269  10.024   7.021
25033SOL     OW76872  13.095   6.747  12.468
25033SOL    HW176873  13.034   6.702  12.526
25033SOL    HW276874  13.058   6.835  12.458
25034SOL     OW76875   8.552   4.740   7.819
25034SOL    HW176876   8.644   4.767   7.823
25034SOL    HW276877   8.555   4.652   7.782
25035SOL     OW76878  10.673   9.579   2.062
25035SOL    HW176879  10.601   9.523   2.032
25035SOL    HW276880  10.701   9.626   1.983
25036SOL     OW76881   2.059   9.224   0.824
25036SOL    HW176882   2.140   9.196   0.867
25036SOL    HW276883   2.087   9.291   0.762
25037SOL     OW76884   0.036   8.251   9.537
25037SOL    HW176885  14.819   8.259   9.519
25037SOL    HW276886   0.052   8.314   9.607
25038SOL     OW76887  12.749   2.925  13.607
25038SOL    HW176888  12.798   2.860  13.556
25038SOL    HW276889  12.751   2.891  13.696
25039SOL     OW76890  13.313  12.210   1.919
25039SOL    HW176891  13.356  12.200   2.003
25039SOL    HW276892  13.307  12.121   1.884
25040SOL     OW76893   4.461  14.449   5.935
25040SOL    HW176894   4.422  14.537   5.932
25040SOL    HW276895   4.548  14.460   5.898
25041SOL     OW76896   4.644   4.781  13.109
25041SOL    HW176897   4.560   4.773  13.156
25041SOL    HW276898   4.681   4.693  13.113
25042SOL     OW76899   8.079   4.218  13.914
25042SOL    HW176900   8.135   4.173  13.850
25042SOL    HW276901   8.137   4.283  13.953
25043SOL     OW76902   0.564   7.752  10.049
25043SOL    HW176903   0.648   7.722  10.083
25043SOL    HW276904   0.580   7.841  10.017
25044SOL     OW76905   9.356   1.794  12.085
25044SOL    HW176906   9.436   1.802  12.033
25044SOL    HW276907   9.355   1.703  12.114
25045SOL     OW76908   4.718   4.439   3.623
25045SOL    HW176909   4.641   4.386   3.640
25045SOL    HW276910   4.789   4.394   3.668
25046SOL     OW76911   3.922   5.328  10.742
25046SOL    HW176912   3.973   5.293  10.815
25046SOL    HW276913   3.854   5.380  10.783
25047SOL     OW76914  11.688   5.199  10.413
25047SOL    HW176915  11.673   5.198  10.508
25047SOL    HW276916  11.604   5.174  10.375
25048SOL     OW76917   9.581   2.762  14.796
25048SOL    HW176918   9.649   2.783  14.732
25048SOL    HW276919   9.567   2.668  14.786
25049SOL     OW76920   4.027   9.737   6.442
25049SOL    HW176921   4.048   9.654   6.398
25049SOL    HW276922   4.083   9.739   6.519
25050SOL     OW76923   6.825   2.364   1.589
25050SOL    HW176924   6.743   2.323   1.558
25050SOL    HW276925   6.851   2.311   1.664
25051SOL     OW76926  13.680   6.332   9.604
25051SOL    HW176927  13.693   6.368   9.515
25051SOL    HW276928  13.626   6.255   9.590
25052SOL     OW76929   7.476   5.798   5.382
25052SOL    HW176930   7.512   5.715   5.351
25052SOL    HW276931   7.554   5.852   5.400
25053SOL     OW76932   5.284   7.261   1.903
25053SOL    HW176933   5.311   7.196   1.839
25053SOL    HW276934   5.297   7.345   1.858
25054SOL     OW76935  10.668   9.890   0.737
25054SOL    HW176936  10.718   9.823   0.690
25054SOL    HW276937  10.662   9.963   0.674
25055SOL     OW76938  11.488   5.588   2.181
25055SOL    HW176939  11.542   5.662   2.152
25055SOL    HW276940  11.514   5.574   2.272
25056SOL     OW76941  11.603  13.941   1.270
25056SOL    HW176942  11.667  13.872   1.288
25056SOL    HW276943  11.640  14.019   1.311
25057SOL     OW76944   7.174   4.117  10.469
25057SOL    HW176945   7.244   4.084  10.525
25057SOL    HW276946   7.189   4.076  10.384
25058SOL     OW76947  13.096  10.252   6.808
25058SOL    HW176948  13.023  10.285   6.860
25058SOL    HW276949  13.087  10.297   6.724
25059SOL     OW76950   7.592   3.997   3.159
25059SOL    HW176951   7.583   3.966   3.069
25059SOL    HW276952   7.682   4.030   3.163
25060SOL     OW76953   9.870   4.974   7.723
25060SOL    HW176954   9.839   4.885   7.706
25060SOL    HW276955   9.953   4.962   7.769
25061SOL     OW76956   7.821   0.602  11.832
25061SOL    HW176957   7.878   0.576  11.759
25061SOL    HW276958   7.865   0.566  11.910
25062SOL     OW76959   5.936   7.787   7.409
25062SOL    HW176960   5.859   7.839   7.385
25062SOL    HW276961   5.990   7.846   7.462
25063SOL     OW76962   2.905   4.336   4.236
25063SOL    HW176963   2.844   4.409   4.225
25063SOL    HW276964   2.921   4.331   4.330
25064SOL     OW76965   8.035  12.207   8.089
25064SOL    HW176966   7.980  12.137   8.054
25064SOL    HW276967   8.075  12.170   8.168
25065SOL     OW76968  12.877   8.103   0.053
25065SOL    HW176969  12.815   8.087  14.859
25065SOL    HW276970  12.941   8.032   0.045
25066SOL     OW76971   7.031   5.410  13.162
25066SOL    HW176972   7.117   5.398  13.203
25066SOL    HW276973   6.986   5.473  13.218
25067SOL     OW76974  10.412   5.046   3.746
25067SOL    HW176975  10.385   5.023   3.835
25067SOL    HW276976  10.495   5.091   3.757
25068SOL     OW76977  12.811   9.083  13.263
25068SOL    HW176978  12.885   9.127  13.305
25068SOL    HW276979  12.779   9.022  13.330
25069SOL     OW76980  10.768  13.911   2.848
25069SOL    HW176981  10.813  13.995   2.838
25069SOL    HW276982  10.772  13.893   2.942
25070SOL     OW76983   5.682  14.359  11.626
25070SOL    HW176984   5.768  14.389  11.596
25070SOL    HW276985   5.677  14.268  11.596
25071SOL     OW76986  11.825   1.083  13.195
25071SOL    HW176987  11.793   1.055  13.109
25071SOL    HW276988  11.823   1.003  13.248
25072SOL     OW76989   7.151   1.336   3.511
25072SOL    HW176990   7.149   1.325   3.415
25072SOL    HW276991   7.188   1.253   3.543
25073SOL     OW76992   8.898  14.638   3.220
25073SOL    HW176993   8.947  14.720   3.216
25073SOL    HW276994   8.812  14.659   3.184
25074SOL     OW76995   0.806   6.579   7.089
25074SOL    HW176996   0.786   6.645   7.155
25074SOL    HW276997   0.744   6.508   7.106
25075SOL     OW76998  10.037   8.701   3.395
25075SOL    HW176999  10.053   8.795   3.401
25075SOL    HW277000  10.070   8.665   3.478
25076SOL     OW77001   1.592   1.591   1.237
25076SOL    HW177002   1.654   1.664   1.244
25076SOL    HW277003   1.645   1.513   1.251
25077SOL     OW77004   0.797   1.608  10.919
25077SOL    HW177005   0.767   1.676  10.859
25077SOL    HW277006   0.718   1.582  10.967
25078SOL     OW77007   0.914  12.420  10.965
25078SOL    HW177008   0.900  12.466  11.048
25078SOL    HW277009   0.919  12.490  10.900
25079SOL     OW77010   5.512   0.429   8.327
25079SOL    HW177011   5.507   0.471   8.241
25079SOL    HW277012   5.477   0.495   8.387
25080SOL     OW77013   4.770   7.646  12.324
25080SOL    HW177014   4.718   7.594  12.385
25080SOL    HW277015   4.854   7.602  12.321
25081SOL     OW77016  13.030  14.348  13.209
25081SOL    HW177017  13.038  14.409  13.137
25081SOL    HW277018  13.102  14.371  13.268
25082SOL     OW77019  12.250   2.319   7.621
25082SOL    HW177020  12.268   2.312   7.527
25082SOL    HW277021  12.160   2.289   7.631
25083SOL     OW77022   8.329   7.776   4.155
25083SOL    HW177023   8.273   7.715   4.202
25083SOL    HW277024   8.346   7.847   4.217
25084SOL     OW77025   9.468   9.690  11.354
25084SOL    HW177026   9.555   9.662  11.382
25084SOL    HW277027   9.452   9.642  11.273
25085SOL     OW77028  10.578  14.029   9.192
25085SOL    HW177029  10.545  14.036   9.102
25085SOL    HW277030  10.665  13.990   9.182
25086SOL     OW77031  11.374  13.040   8.953
25086SOL    HW177032  11.368  12.968   9.016
25086SOL    HW277033  11.438  13.010   8.889
25087SOL     OW77034   4.397   6.151   8.980
25087SOL    HW177035   4.464   6.127   9.045
25087SOL    HW277036   4.419   6.099   8.903
25088SOL     OW77037  11.785   1.143   5.746
25088SOL    HW177038  11.726   1.154   5.820
25088SOL    HW277039  11.845   1.217   5.752
25089SOL     OW77040   6.690   9.738   6.924
25089SOL    HW177041   6.681   9.823   6.881
25089SOL    HW277042   6.684   9.757   7.017
25090SOL     OW77043   8.269   1.582   0.402
25090SOL    HW177044   8.343   1.603   0.346
25090SOL    HW277045   8.267   1.652   0.467
25091SOL     OW77046  10.442   1.758  10.423
25091SOL    HW177047  10.467   1.679  10.472
25091SOL    HW277048  10.518   1.777  10.367
25092SOL     OW77049  12.152   9.949   0.367
25092SOL    HW177050  12.215   9.914   0.432
25092SOL    HW277051  12.167   9.895   0.289
25093SOL     OW77052  11.213   5.162  11.766
25093SOL    HW177053  11.227   5.160  11.861
25093SOL    HW277054  11.140   5.222  11.754
25094SOL     OW77055   3.700  12.853   3.709
25094SOL    HW177056   3.782  12.899   3.724
25094SOL    HW277057   3.643  12.917   3.668
25095SOL     OW77058   8.721  12.141   0.363
25095SOL    HW177059   8.772  12.119   0.441
25095SOL    HW277060   8.705  12.057   0.320
25096SOL     OW77061   1.501   6.858   7.175
25096SOL    HW177062   1.574   6.904   7.216
25096SOL    HW277063   1.466   6.802   7.244
25097SOL     OW77064   1.846   9.755   2.719
25097SOL    HW177065   1.908   9.788   2.784
25097SOL    HW277066   1.848   9.821   2.649
25098SOL     OW77067   6.626  14.358   5.582
25098SOL    HW177068   6.681  14.365   5.660
25098SOL    HW277069   6.686  14.331   5.513
25099SOL     OW77070  13.137   5.193   7.283
25099SOL    HW177071  13.166   5.180   7.373
25099SOL    HW277072  13.106   5.284   7.281
25100SOL     OW77073   1.722   0.279  14.092
25100SOL    HW177074   1.726   0.343  14.162
25100SOL    HW277075   1.721   0.194  14.136
25101SOL     OW77076   3.842   5.907   9.757
25101SOL    HW177077   3.812   5.820   9.783
25101SOL    HW277078   3.774   5.939   9.698
25102SOL     OW77079   7.285   4.423   6.662
25102SOL    HW177080   7.215   4.476   6.626
25102SOL    HW277081   7.336   4.483   6.716
25103SOL     OW77082   3.553   2.219  14.651
25103SOL    HW177083   3.600   2.303  14.654
25103SOL    HW277084   3.513   2.217  14.564
25104SOL     OW77085  13.240  14.806   9.845
25104SOL    HW177086  13.325  14.803   9.802
25104SOL    HW277087  13.253  14.758   9.927
25105SOL     OW77088   2.427   7.294   6.761
25105SOL    HW177089   2.409   7.385   6.737
25105SOL    HW277090   2.521   7.284   6.745
25106SOL     OW77091  14.097   5.847   0.085
25106SOL    HW177092  14.018   5.828   0.034
25106SOL    HW277093  14.081   5.933   0.124
25107SOL     OW77094   2.523  14.502   8.132
25107SOL    HW177095   2.456  14.461   8.186
25107SOL    HW277096   2.574  14.429   8.096
25108SOL     OW77097  12.294   5.706   5.723
25108SOL    HW177098  12.371   5.652   5.705
25108SOL    HW277099  12.278   5.754   5.642
25109SOL     OW77100  12.940  11.582   1.614
25109SOL    HW177101  12.848  11.559   1.612
25109SOL    HW277102  12.958  11.603   1.706
25110SOL     OW77103  10.705   7.854   9.441
25110SOL    HW177104  10.675   7.769   9.473
25110SOL    HW277105  10.745   7.835   9.356
25111SOL     OW77106  10.429  11.671  14.056
25111SOL    HW177107  10.403  11.747  14.108
25111SOL    HW277108  10.429  11.598  14.119
25112SOL     OW77109  14.213  10.564  14.176
25112SOL    HW177110  14.161  10.525  14.246
25112SOL    HW277111  14.149  10.595  14.113
25113SOL     OW77112   6.941   8.520   7.426
25113SOL    HW177113   6.926   8.501   7.333
25113SOL    HW277114   6.934   8.615   7.433
25114SOL     OW77115   5.745  11.134   0.824
25114SOL    HW177116   5.654  11.142   0.852
25114SOL    HW277117   5.794  11.125   0.906
25115SOL     OW77118   2.229   9.011   3.612
25115SOL    HW177119   2.211   9.008   3.706
25115SOL    HW277120   2.256   8.922   3.590
25116SOL     OW77121   4.063  12.896  12.407
25116SOL    HW177122   4.130  12.963  12.420
25116SOL    HW277123   3.984  12.932  12.447
25117SOL     OW77124   1.015   1.221  10.708
25117SOL    HW177125   1.087   1.163  10.685
25117SOL    HW277126   1.051   1.279  10.775
25118SOL     OW77127   1.946   4.382   8.544
25118SOL    HW177128   1.967   4.367   8.636
25118SOL    HW277129   1.900   4.466   8.543
25119SOL     OW77130  13.847  11.926  14.606
25119SOL    HW177131  13.837  11.958  14.517
25119SOL    HW277132  13.798  11.988  14.660
25120SOL     OW77133  13.831  12.417   2.775
25120SOL    HW177134  13.809  12.346   2.836
25120SOL    HW277135  13.796  12.388   2.691
25121SOL     OW77136   3.579  11.486   7.969
25121SOL    HW177137   3.629  11.552   8.017
25121SOL    HW277138   3.499  11.531   7.942
25122SOL     OW77139   4.538  10.720   6.070
25122SOL    HW177140   4.586  10.797   6.041
25122SOL    HW277141   4.586  10.646   6.033
25123SOL     OW77142  14.650   8.270  12.113
25123SOL    HW177143  14.627   8.303  12.200
25123SOL    HW277144  14.567   8.236  12.078
25124SOL     OW77145   8.724  14.416   9.371
25124SOL    HW177146   8.696  14.486   9.312
25124SOL    HW277147   8.818  14.407   9.354
25125SOL     OW77148  10.459   8.216   4.056
25125SOL    HW177149  10.544   8.232   4.014
25125SOL    HW277150  10.471   8.134   4.104
25126SOL     OW77151   8.415   8.388  10.414
25126SOL    HW177152   8.343   8.332  10.445
25126SOL    HW277153   8.434   8.445  10.488
25127SOL     OW77154   5.223   4.168   3.565
25127SOL    HW177155   5.163   4.240   3.584
25127SOL    HW277156   5.288   4.172   3.635
25128SOL     OW77157  10.120   3.425  12.955
25128SOL    HW177158  10.077   3.340  12.954
25128SOL    HW277159  10.207   3.409  12.991
25129SOL     OW77160   1.824  13.029   1.924
25129SOL    HW177161   1.862  13.067   1.845
25129SOL    HW277162   1.873  13.069   1.996
25130SOL     OW77163   0.378   0.361   1.681
25130SOL    HW177164   0.352   0.427   1.745
25130SOL    HW277165   0.298   0.344   1.630
25131SOL     OW77166   2.106   4.105   9.342
25131SOL    HW177167   2.076   4.036   9.282
25131SOL    HW277168   2.051   4.180   9.321
25132SOL     OW77169   8.028  12.847  11.112
25132SOL    HW177170   8.009  12.813  11.199
25132SOL    HW277171   8.059  12.772  11.063
25133SOL     OW77172  14.814  10.276  12.298
25133SOL    HW177173   0.011  10.335  12.290
25133SOL    HW277174  14.842  10.196  12.252
25134SOL     OW77175   5.579  12.099   1.291
25134SOL    HW177176   5.578  12.004   1.295
25134SOL    HW277177   5.594  12.119   1.198
25135SOL     OW77178   6.314   7.222  14.014
25135SOL    HW177179   6.370   7.144  14.023
25135SOL    HW277180   6.291   7.225  13.921
25136SOL     OW77181   6.941  14.604   1.505
25136SOL    HW177182   6.902  14.632   1.423
25136SOL    HW277183   7.013  14.665   1.520
25137SOL     OW77184  11.924  12.336  10.551
25137SOL    HW177185  11.863  12.312  10.481
25137SOL    HW277186  11.885  12.412  10.593
25138SOL     OW77187   7.807   9.135   9.886
25138SOL    HW177188   7.878   9.087   9.928
25138SOL    HW277189   7.851   9.202   9.834
25139SOL     OW77190   7.279   2.816   7.016
25139SOL    HW177191   7.247   2.755   7.083
25139SOL    HW277192   7.275   2.766   6.934
25140SOL     OW77193   0.794   2.751   2.584
25140SOL    HW177194   0.760   2.777   2.669
25140SOL    HW277195   0.889   2.759   2.592
25141SOL     OW77196   2.864  10.381   0.172
25141SOL    HW177197   2.903  10.297   0.197
25141SOL    HW277198   2.865  10.380   0.076
25142SOL     OW77199   6.949  14.776   4.933
25142SOL    HW177200   6.987  14.821   4.857
25142SOL    HW277201   6.926  14.689   4.900
25143SOL     OW77202   4.706   2.992   6.061
25143SOL    HW177203   4.758   2.956   6.132
25143SOL    HW277204   4.641   2.924   6.042
25144SOL     OW77205  11.508  11.883  13.499
25144SOL    HW177206  11.565  11.810  13.526
25144SOL    HW277207  11.548  11.915  13.419
25145SOL     OW77208   6.287   0.837  11.286
25145SOL    HW177209   6.218   0.902  11.288
25145SOL    HW277210   6.354   0.874  11.228
25146SOL     OW77211   3.533  14.583  10.942
25146SOL    HW177212   3.523  14.489  10.929
25146SOL    HW277213   3.529  14.621  10.855
25147SOL     OW77214   6.392   4.791   7.274
25147SOL    HW177215   6.398   4.776   7.180
25147SOL    HW277216   6.449   4.724   7.312
25148SOL     OW77217  12.966   0.790   7.046
25148SOL    HW177218  13.022   0.765   7.120
25148SOL    HW277219  12.964   0.885   7.049
25149SOL     OW77220  14.085   3.958   3.697
25149SOL    HW177221  14.001   3.994   3.726
25149SOL    HW277222  14.121   4.024   3.638
25150SOL     OW77223   7.373   0.122   2.098
25150SOL    HW177224   7.328   0.178   2.162
25150SOL    HW277225   7.455   0.097   2.141
25151SOL     OW77226  12.827  11.685   3.311
25151SOL    HW177227  12.795  11.600   3.339
25151SOL    HW277228  12.748  11.739   3.302
25152SOL     OW77229  13.023   8.553   0.903
25152SOL    HW177230  13.044   8.646   0.913
25152SOL    HW277231  12.932   8.552   0.875
25153SOL     OW77232   7.516   2.054   3.514
25153SOL    HW177233   7.465   2.077   3.436
25153SOL    HW277234   7.607   2.054   3.484
25154SOL     OW77235   3.345   7.355   7.541
25154SOL    HW177236   3.352   7.310   7.457
25154SOL    HW277237   3.268   7.317   7.583
25155SOL     OW77238   3.887   0.198   5.652
25155SOL    HW177239   3.816   0.240   5.604
25155SOL    HW277240   3.919   0.266   5.712
25156SOL     OW77241  14.658  11.920  14.205
25156SOL    HW177242  14.674  11.825  14.208
25156SOL    HW277243  14.568  11.928  14.173
25157SOL     OW77244   6.348   2.766  10.933
25157SOL    HW177245   6.326   2.742  10.843
25157SOL    HW277246   6.372   2.859  10.927
25158SOL     OW77247   4.662  10.047   1.684
25158SOL    HW177248   4.610   9.988   1.629
25158SOL    HW277249   4.700   9.989   1.751
25159SOL     OW77250   6.734   4.234  14.242
25159SOL    HW177251   6.685   4.155  14.262
25159SOL    HW277252   6.667   4.302  14.233
25160SOL     OW77253   6.596   5.707   4.397
25160SOL    HW177254   6.608   5.613   4.410
25160SOL    HW277255   6.634   5.725   4.311
25161SOL     OW77256  14.840   3.172   8.762
25161SOL    HW177257  14.754   3.186   8.801
25161SOL    HW277258  14.839   3.081   8.733
25162SOL     OW77259   6.938   6.057   0.665
25162SOL    HW177260   6.965   6.114   0.593
25162SOL    HW277261   6.973   5.971   0.642
25163SOL     OW77262   5.367   2.431   3.232
25163SOL    HW177263   5.348   2.456   3.141
25163SOL    HW277264   5.344   2.338   3.236
25164SOL     OW77265   2.496  14.317   0.520
25164SOL    HW177266   2.471  14.350   0.434
25164SOL    HW277267   2.457  14.378   0.582
25165SOL     OW77268  11.158   9.353   2.031
25165SOL    HW177269  11.095   9.422   2.050
25165SOL    HW277270  11.109   9.287   1.982
25166SOL     OW77271   5.835  14.487   0.551
25166SOL    HW177272   5.768  14.442   0.501
25166SOL    HW277273   5.906  14.502   0.489
25167SOL     OW77274   4.804  11.235  12.646
25167SOL    HW177275   4.712  11.238  12.673
25167SOL    HW277276   4.831  11.327  12.643
25168SOL     OW77277  11.862   4.970   7.895
25168SOL    HW177278  11.935   4.948   7.837
25168SOL    HW277279  11.808   5.030   7.843
25169SOL     OW77280   9.574  14.350   4.489
25169SOL    HW177281   9.630  14.273   4.491
25169SOL    HW277282   9.558  14.366   4.396
25170SOL     OW77283   2.097  12.509  11.373
25170SOL    HW177284   2.105  12.448  11.299
25170SOL    HW277285   2.004  12.506  11.396
25171SOL     OW77286  12.340  11.508   8.832
25171SOL    HW177287  12.337  11.589   8.884
25171SOL    HW277288  12.429  11.475   8.845
25172SOL     OW77289   7.211   5.894  11.762
25172SOL    HW177290   7.127   5.855  11.784
25172SOL    HW277291   7.200   5.987  11.783
25173SOL     OW77292   0.104   3.461   0.325
25173SOL    HW177293   0.197   3.444   0.335
25173SOL    HW277294   0.093   3.487   0.234
25174SOL     OW77295   3.760   1.676   3.049
25174SOL    HW177296   3.806   1.617   2.989
25174SOL    HW277297   3.829   1.716   3.101
25175SOL     OW77298   2.385   0.973   6.085
25175SOL    HW177299   2.362   0.881   6.097
25175SOL    HW277300   2.384   0.985   5.990
25176SOL     OW77301  12.268   7.969   7.852
25176SOL    HW177302  12.291   7.905   7.784
25176SOL    HW277303  12.179   7.996   7.830
25177SOL     OW77304   2.286   0.154   4.314
25177SOL    HW177305   2.265   0.064   4.340
25177SOL    HW277306   2.203   0.190   4.285
25178SOL     OW77307   0.255   8.284   1.814
25178SOL    HW177308   0.205   8.365   1.805
25178SOL    HW277309   0.238   8.236   1.733
25179SOL     OW77310   8.291  12.759  12.716
25179SOL    HW177311   8.378  12.791  12.740
25179SOL    HW277312   8.298  12.741  12.622
25180SOL     OW77313   3.542   5.253   8.419
25180SOL    HW177314   3.519   5.346   8.422
25180SOL    HW277315   3.632   5.252   8.386
25181SOL     OW77316  11.441   3.759  12.103
25181SOL    HW177317  11.488   3.705  12.039
25181SOL    HW277318  11.481   3.846  12.094
25182SOL     OW77319   4.146  13.987  11.207
25182SOL    HW177320   4.096  13.924  11.155
25182SOL    HW277321   4.231  13.944  11.221
25183SOL     OW77322  10.036   5.505   8.076
25183SOL    HW177323  10.106   5.528   8.137
25183SOL    HW277324  10.072   5.523   7.990
25184SOL     OW77325   8.147   4.673  14.750
25184SOL    HW177326   8.204   4.738  14.710
25184SOL    HW277327   8.061   4.714  14.753
25185SOL     OW77328   8.365   4.671   6.860
25185SOL    HW177329   8.303   4.666   6.933
25185SOL    HW277330   8.321   4.728   6.796
25186SOL     OW77331  14.378   8.580   9.456
25186SOL    HW177332  14.300   8.590   9.402
25186SOL    HW277333  14.357   8.508   9.515
25187SOL     OW77334   4.408   1.517  13.968
25187SOL    HW177335   4.369   1.494  14.052
25187SOL    HW277336   4.346   1.484  13.902
25188SOL     OW77337  10.144   7.995   3.854
25188SOL    HW177338  10.107   7.971   3.939
25188SOL    HW277339  10.122   8.088   3.844
25189SOL     OW77340  11.047   5.791   2.586
25189SOL    HW177341  10.988   5.836   2.524
25189SOL    HW277342  11.122   5.850   2.595
25190SOL     OW77343   3.098  14.297  11.447
25190SOL    HW177344   3.081  14.309  11.540
25190SOL    HW277345   3.042  14.361  11.404
25191SOL     OW77346   4.039   7.883   4.940
25191SOL    HW177347   4.007   7.915   5.024
25191SOL    HW277348   4.134   7.895   4.945
25192SOL     OW77349   6.787   4.796   4.970
25192SOL    HW177350   6.768   4.771   4.880
25192SOL    HW277351   6.784   4.713   5.019
25193SOL     OW77352  10.360  12.711   5.024
25193SOL    HW177353  10.368  12.790   4.971
25193SOL    HW277354  10.431  12.717   5.088
25194SOL     OW77355   3.840  10.061   0.594
25194SOL    HW177356   3.791  10.131   0.637
25194SOL    HW277357   3.780  10.027   0.528
25195SOL     OW77358   3.292   6.212   1.926
25195SOL    HW177359   3.279   6.231   1.833
25195SOL    HW277360   3.259   6.122   1.937
25196SOL     OW77361   0.900   8.430   8.173
25196SOL    HW177362   0.990   8.458   8.192
25196SOL    HW277363   0.893   8.437   8.078
25197SOL     OW77364   5.663   7.703  13.154
25197SOL    HW177365   5.602   7.648  13.203
25197SOL    HW277366   5.619   7.788  13.149
25198SOL     OW77367   9.692   0.230  14.558
25198SOL    HW177368   9.606   0.207  14.593
25198SOL    HW277369   9.754   0.201  14.625
25199SOL     OW77370  11.032  11.662   3.238
25199SOL    HW177371  11.063  11.595   3.299
25199SOL    HW277372  11.086  11.739   3.257
25200SOL     OW77373  14.718   5.938   6.247
25200SOL    HW177374  14.801   5.982   6.227
25200SOL    HW277375  14.739   5.845   6.236
25201SOL     OW77376  13.821   7.721   3.410
25201SOL    HW177377  13.766   7.778   3.464
25201SOL    HW277378  13.858   7.658   3.472
25202SOL     OW77379   5.678  14.324   0.391
25202SOL    HW177380   5.738  14.251   0.410
25202SOL    HW277381   5.598  14.303   0.439
25203SOL     OW77382   7.697   2.710  11.612
25203SOL    HW177383   7.709   2.622  11.577
25203SOL    HW277384   7.776   2.757  11.585
25204SOL     OW77385  14.144  11.027  11.236
25204SOL    HW177386  14.198  10.955  11.270
25204SOL    HW277387  14.147  11.093  11.305
25205SOL     OW77388   3.296   4.962   5.095
25205SOL    HW177389   3.208   4.957   5.132
25205SOL    HW277390   3.311   4.876   5.055
25206SOL     OW77391   7.917   9.530   6.507
25206SOL    HW177392   7.950   9.523   6.597
25206SOL    HW277393   7.853   9.601   6.510
25207SOL     OW77394  11.391   9.690   9.841
25207SOL    HW177395  11.343   9.773   9.842
25207SOL    HW277396  11.415   9.678   9.750
25208SOL     OW77397   7.045  11.548  11.139
25208SOL    HW177398   7.055  11.485  11.068
25208SOL    HW277399   7.131  11.551  11.181
25209SOL     OW77400   9.926  10.548   4.607
25209SOL    HW177401   9.882  10.621   4.650
25209SOL    HW277402  10.019  10.560   4.626
25210SOL     OW77403   4.748   8.469   3.351
25210SOL    HW177404   4.700   8.426   3.280
25210SOL    HW277405   4.813   8.405   3.379
25211SOL     OW77406   2.125   9.214   4.431
25211SOL    HW177407   2.067   9.208   4.507
25211SOL    HW277408   2.175   9.295   4.446
25212SOL     OW77409  10.403   3.312   8.480
25212SOL    HW177410  10.376   3.395   8.440
25212SOL    HW277411  10.321   3.268   8.502
25213SOL     OW77412   0.767  13.005   5.120
25213SOL    HW177413   0.704  13.054   5.174
25213SOL    HW277414   0.716  12.976   5.044
25214SOL     OW77415   8.282   6.232  13.083
25214SOL    HW177416   8.344   6.161  13.104
25214SOL    HW277417   8.242   6.253  13.167
25215SOL     OW77418   2.462   4.447   4.330
25215SOL    HW177419   2.447   4.510   4.400
25215SOL    HW277420   2.545   4.474   4.291
25216SOL     OW77421  14.597   8.978  12.454
25216SOL    HW177422  14.543   9.002  12.529
25216SOL    HW277423  14.596   9.055  12.397
25217SOL     OW77424  12.363   7.581  12.258
25217SOL    HW177425  12.279   7.585  12.304
25217SOL    HW277426  12.359   7.654  12.195
25218SOL     OW77427  13.823  13.142   1.788
25218SOL    HW177428  13.908  13.104   1.810
25218SOL    HW277429  13.782  13.160   1.873
25219SOL     OW77430  11.879   0.400   4.734
25219SOL    HW177431  11.883   0.494   4.752
25219SOL    HW277432  11.960   0.365   4.771
25220SOL     OW77433  11.785  14.661   2.451
25220SOL    HW177434  11.697  14.645   2.485
25220SOL    HW277435  11.775  14.660   2.356
25221SOL     OW77436   4.901   9.421  14.446
25221SOL    HW177437   4.988   9.456  14.432
25221SOL    HW277438   4.847   9.497  14.468
25222SOL     OW77439   3.232   5.149  10.376
25222SOL    HW177440   3.146   5.172  10.341
25222SOL    HW277441   3.222   5.058  10.406
25223SOL     OW77442   5.561   8.998   3.108
25223SOL    HW177443   5.568   8.926   3.171
25223SOL    HW277444   5.628   9.061   3.136
25224SOL     OW77445  11.910  14.631   8.537
25224SOL    HW177446  11.954  14.561   8.585
25224SOL    HW277447  11.973  14.657   8.470
25225SOL     OW77448   8.936   4.000   0.283
25225SOL    HW177449   8.927   4.082   0.234
25225SOL    HW277450   8.945   3.933   0.215
25226SOL     OW77451   0.524  14.847   3.057
25226SOL    HW177452   0.522  14.772   2.997
25226SOL    HW277453   0.596  14.827   3.117
25227SOL     OW77454   2.604   7.363   7.022
25227SOL    HW177455   2.638   7.333   6.937
25227SOL    HW277456   2.647   7.448   7.035
25228SOL     OW77457   9.108   7.304   0.166
25228SOL    HW177458   9.061   7.333   0.244
25228SOL    HW277459   9.086   7.369   0.100
25229SOL     OW77460  13.284   5.709  14.346
25229SOL    HW177461  13.215   5.704  14.412
25229SOL    HW277462  13.323   5.622  14.345
25230SOL     OW77463  10.537   5.867   1.301
25230SOL    HW177464  10.495   5.923   1.366
25230SOL    HW277465  10.492   5.888   1.219
25231SOL     OW77466   0.867   6.814  10.271
25231SOL    HW177467   0.945   6.839  10.220
25231SOL    HW277468   0.892   6.829  10.362
25232SOL     OW77469  13.583  10.212  12.701
25232SOL    HW177470  13.611  10.123  12.722
25232SOL    HW277471  13.487  10.207  12.701
25233SOL     OW77472   0.458  11.507   0.481
25233SOL    HW177473   0.375  11.531   0.439
25233SOL    HW277474   0.438  11.511   0.575
25234SOL     OW77475   4.413   5.401   8.131
25234SOL    HW177476   4.372   5.483   8.158
25234SOL    HW277477   4.506   5.412   8.151
25235SOL     OW77478   0.575   4.137   4.072
25235SOL    HW177479   0.641   4.206   4.065
25235SOL    HW277480   0.621   4.065   4.117
25236SOL     OW77481   0.666  10.647   2.234
25236SOL    HW177482   0.674  10.709   2.161
25236SOL    HW277483   0.572  10.644   2.252
25237SOL     OW77484  13.472   1.313  12.149
25237SOL    HW177485  13.484   1.235  12.096
25237SOL    HW277486  13.465   1.384  12.086
25238SOL     OW77487   7.338   1.870  11.665
25238SOL    HW177488   7.284   1.803  11.706
25238SOL    HW277489   7.428   1.847  11.690
25239SOL     OW77490   1.271   8.551   6.533
25239SOL    HW177491   1.292   8.615   6.601
25239SOL    HW277492   1.286   8.466   6.574
25240SOL     OW77493  13.745  12.376   7.332
25240SOL    HW177494  13.795  12.302   7.297
25240SOL    HW277495  13.736  12.436   7.258
25241SOL     OW77496   7.207  13.785  13.684
25241SOL    HW177497   7.170  13.701  13.710
25241SOL    HW277498   7.132  13.836  13.654
25242SOL     OW77499  12.311   0.584   9.887
25242SOL    HW177500  12.398   0.571   9.923
25242SOL    HW277501  12.269   0.498   9.894
25243SOL     OW77502  10.897   8.036   4.081
25243SOL    HW177503  10.936   7.979   4.015
25243SOL    HW277504  10.871   7.976   4.151
25244SOL     OW77505   4.771  11.738  10.838
25244SOL    HW177506   4.688  11.694  10.858
25244SOL    HW277507   4.837  11.688  10.886
25245SOL     OW77508  10.389   0.665   6.453
25245SOL    HW177509  10.393   0.639   6.360
25245SOL    HW277510  10.360   0.756   6.451
25246SOL     OW77511  10.913   4.945   5.325
25246SOL    HW177512  10.954   4.906   5.402
25246SOL    HW277513  10.977   5.007   5.293
25247SOL     OW77514   2.782   2.321   1.409
25247SOL    HW177515   2.853   2.274   1.365
25247SOL    HW277516   2.712   2.257   1.418
25248SOL     OW77517   5.909   4.740   9.424
25248SOL    HW177518   5.847   4.669   9.407
25248SOL    HW277519   5.888   4.769   9.512
25249SOL     OW77520  13.924   8.608  13.331
25249SOL    HW177521  14.006   8.603  13.379
25249SOL    HW277522  13.861   8.645  13.393
25250SOL     OW77523   4.225   4.490   7.382
25250SOL    HW177524   4.199   4.553   7.449
25250SOL    HW277525   4.143   4.463   7.341
25251SOL     OW77526  12.603   7.670   3.941
25251SOL    HW177527  12.691   7.633   3.949
25251SOL    HW277528  12.575   7.648   3.853
25252SOL     OW77529   4.151   8.689   5.513
25252SOL    HW177530   4.193   8.772   5.488
25252SOL    HW277531   4.060   8.700   5.488
25253SOL     OW77532   9.191   4.562   8.549
25253SOL    HW177533   9.194   4.655   8.573
25253SOL    HW277534   9.236   4.558   8.465
25254SOL     OW77535   7.284   2.422   3.865
25254SOL    HW177536   7.243   2.421   3.952
25254SOL    HW277537   7.211   2.412   3.804
25255SOL     OW77538  13.437  13.041  10.340
25255SOL    HW177539  13.345  13.015  10.340
25255SOL    HW277540  13.468  13.017  10.253
25256SOL     OW77541   4.826   3.951  10.406
25256SOL    HW177542   4.755   4.012  10.425
25256SOL    HW277543   4.906   3.997  10.432
25257SOL     OW77544   6.957   0.589   9.460
25257SOL    HW177545   6.986   0.513   9.510
25257SOL    HW277546   7.028   0.605   9.397
25258SOL     OW77547   3.872   5.718   2.365
25258SOL    HW177548   3.784   5.726   2.327
25258SOL    HW277549   3.880   5.792   2.424
25259SOL     OW77550   0.980   3.551   1.493
25259SOL    HW177551   1.039   3.487   1.454
25259SOL    HW277552   0.894   3.530   1.458
25260SOL     OW77553   4.413   9.890   6.743
25260SOL    HW177554   4.399   9.821   6.808
25260SOL    HW277555   4.454   9.845   6.668
25261SOL     OW77556   0.599   6.558   7.436
25261SOL    HW177557   0.526   6.511   7.475
25261SOL    HW277558   0.664   6.564   7.506
25262SOL     OW77559   4.191   3.466   5.085
25262SOL    HW177560   4.202   3.551   5.128
25262SOL    HW277561   4.257   3.410   5.127
25263SOL     OW77562   2.697   4.326   2.907
25263SOL    HW177563   2.700   4.233   2.885
25263SOL    HW277564   2.606   4.351   2.892
25264SOL     OW77565   4.771   8.593   7.601
25264SOL    HW177566   4.680   8.564   7.612
25264SOL    HW277567   4.779   8.612   7.508
25265SOL     OW77568   8.217   6.757   7.817
25265SOL    HW177569   8.308   6.744   7.845
25265SOL    HW277570   8.185   6.669   7.796
25266SOL     OW77571   0.111   5.859   9.022
25266SOL    HW177572   0.048   5.789   9.037
25266SOL    HW277573   0.145   5.842   8.934
25267SOL     OW77574  10.674   3.829   1.353
25267SOL    HW177575  10.663   3.914   1.396
25267SOL    HW277576  10.703   3.771   1.423
25268SOL     OW77577   4.644   2.459   4.537
25268SOL    HW177578   4.646   2.503   4.452
25268SOL    HW277579   4.609   2.524   4.598
25269SOL     OW77580   7.046   2.613   2.273
25269SOL    HW177581   7.127   2.574   2.240
25269SOL    HW277582   6.983   2.599   2.203
25270SOL     OW77583  12.499   4.414   3.436
25270SOL    HW177584  12.564   4.375   3.378
25270SOL    HW277585  12.500   4.358   3.514
25271SOL     OW77586  11.546   6.925   2.373
25271SOL    HW177587  11.599   6.961   2.444
25271SOL    HW277588  11.486   6.864   2.417
25272SOL     OW77589   8.045   6.220  12.523
25272SOL    HW177590   8.119   6.279  12.540
25272SOL    HW277591   8.017   6.241  12.434
25273SOL     OW77592   0.869   5.819   1.264
25273SOL    HW177593   0.845   5.742   1.213
25273SOL    HW277594   0.838   5.893   1.212
25274SOL     OW77595   3.434   7.172  11.278
25274SOL    HW177596   3.389   7.088  11.282
25274SOL    HW277597   3.520   7.155  11.317
25275SOL     OW77598  11.627   8.921  12.821
25275SOL    HW177599  11.629   9.003  12.772
25275SOL    HW277600  11.693   8.866  12.779
25276SOL     OW77601   0.927   9.175  14.788
25276SOL    HW177602   0.844   9.130  14.776
25276SOL    HW277603   0.927   9.245  14.722
25277SOL     OW77604  10.268   1.624   7.487
25277SOL    HW177605  10.192   1.683   7.488
25277SOL    HW277606  10.312   1.639   7.570
25278SOL     OW77607  10.974   1.153  13.528
25278SOL    HW177608  10.976   1.092  13.455
25278SOL    HW277609  11.025   1.228  13.497
25279SOL     OW77610   6.123   2.912   2.404
25279SOL    HW177611   6.138   2.952   2.318
25279SOL    HW277612   6.051   2.963   2.442
25280SOL     OW77613   7.854   2.226   9.682
25280SOL    HW177614   7.821   2.198   9.597
25280SOL    HW277615   7.908   2.303   9.663
25281SOL     OW77616   0.429  14.465   8.238
25281SOL    HW177617   0.336  14.489   8.239
25281SOL    HW277618   0.436  14.395   8.302
25282SOL     OW77619   8.015   6.339   7.276
25282SOL    HW177620   8.014   6.311   7.185
25282SOL    HW277621   8.071   6.275   7.320
25283SOL     OW77622  14.251   0.661   2.937
25283SOL    HW177623  14.281   0.571   2.950
25283SOL    HW277624  14.331   0.712   2.927
25284SOL     OW77625   7.435   5.146   8.201
25284SOL    HW177626   7.347   5.155   8.238
25284SOL    HW277627   7.425   5.173   8.109
25285SOL     OW77628   2.287  12.357  13.379
25285SOL    HW177629   2.211  12.336  13.326
25285SOL    HW277630   2.256  12.347  13.470
25286SOL     OW77631   7.030   1.550  12.756
25286SOL    HW177632   6.955   1.608  12.765
25286SOL    HW277633   6.998   1.475  12.705
25287SOL     OW77634   6.862   8.760   5.896
25287SOL    HW177635   6.921   8.701   5.850
25287SOL    HW277636   6.824   8.815   5.828
25288SOL     OW77637   0.176   0.285   4.695
25288SOL    HW177638   0.152   0.213   4.637
25288SOL    HW277639   0.099   0.342   4.696
25289SOL     OW77640   6.800   0.312   7.945
25289SOL    HW177641   6.791   0.232   7.895
25289SOL    HW277642   6.821   0.283   8.034
25290SOL     OW77643  14.715  10.356   3.414
25290SOL    HW177644  14.705  10.431   3.473
25290SOL    HW277645  14.777  10.298   3.459
25291SOL     OW77646   4.059   0.408  11.351
25291SOL    HW177647   4.012   0.463  11.288
25291SOL    HW277648   4.094   0.337  11.299
25292SOL     OW77649   3.991  12.166   5.667
25292SOL    HW177650   4.027  12.119   5.591
25292SOL    HW277651   3.937  12.101   5.712
25293SOL     OW77652   8.832  14.585   4.552
25293SOL    HW177653   8.769  14.569   4.482
25293SOL    HW277654   8.828  14.507   4.606
25294SOL     OW77655   3.410   9.983  13.763
25294SOL    HW177656   3.408  10.078  13.771
25294SOL    HW277657   3.362   9.964  13.683
25295SOL     OW77658  13.905   8.985   3.531
25295SOL    HW177659  13.978   8.939   3.488
25295SOL    HW277660  13.827   8.949   3.490
25296SOL     OW77661   1.023  14.361   9.970
25296SOL    HW177662   1.053  14.451   9.961
25296SOL    HW277663   0.997  14.353  10.062
25297SOL     OW77664   1.814   6.155   9.872
25297SOL    HW177665   1.855   6.084   9.922
25297SOL    HW277666   1.879   6.226   9.873
25298SOL     OW77667  13.346   6.557   6.752
25298SOL    HW177668  13.319   6.625   6.690
25298SOL    HW277669  13.427   6.521   6.715
25299SOL     OW77670   3.399   5.298   6.270
25299SOL    HW177671   3.335   5.364   6.293
25299SOL    HW277672   3.360   5.250   6.197
25300SOL     OW77673  13.559   0.452   0.657
25300SOL    HW177674  13.584   0.457   0.749
25300SOL    HW277675  13.585   0.537   0.621
25301SOL     OW77676  12.913   1.536  10.731
25301SOL    HW177677  12.864   1.532  10.813
25301SOL    HW277678  12.845   1.550  10.664
25302SOL     OW77679  13.185   6.181   8.126
25302SOL    HW177680  13.272   6.162   8.090
25302SOL    HW277681  13.133   6.104   8.104
25303SOL     OW77682   1.899  12.926   3.302
25303SOL    HW177683   1.995  12.925   3.311
25303SOL    HW277684   1.883  12.883   3.218
25304SOL     OW77685  10.590  10.591   2.490
25304SOL    HW177686  10.628  10.512   2.451
25304SOL    HW277687  10.516  10.560   2.542
25305SOL     OW77688  11.281   4.282   8.487
25305SOL    HW177689  11.196   4.326   8.488
25305SOL    HW277690  11.330   4.325   8.558
25306SOL     OW77691  10.318  11.523   7.025
25306SOL    HW177692  10.305  11.471   6.946
25306SOL    HW277693  10.308  11.460   7.097
25307SOL     OW77694   6.236   4.200   1.621
25307SOL    HW177695   6.274   4.125   1.574
25307SOL    HW277696   6.311   4.250   1.652
25308SOL     OW77697  11.344  11.214   1.015
25308SOL    HW177698  11.332  11.261   0.933
25308SOL    HW277699  11.256  11.185   1.040
25309SOL     OW77700   4.350  10.681   8.531
25309SOL    HW177701   4.295  10.743   8.580
25309SOL    HW277702   4.316  10.595   8.555
25310SOL     OW77703   1.071   2.786   2.586
25310SOL    HW177704   1.123   2.756   2.511
25310SOL    HW277705   1.078   2.882   2.583
25311SOL     OW77706   3.551   9.680  12.258
25311SOL    HW177707   3.520   9.768  12.280
25311SOL    HW277708   3.541   9.630  12.339
25312SOL     OW77709  14.639   8.779   8.824
25312SOL    HW177710  14.564   8.739   8.778
25312SOL    HW277711  14.664   8.853   8.768
25313SOL     OW77712   6.039   6.905   5.099
25313SOL    HW177713   6.098   6.875   5.031
25313SOL    HW277714   5.994   6.980   5.061
25314SOL     OW77715  14.516   9.651   0.133
25314SOL    HW177716  14.480   9.567   0.161
25314SOL    HW277717  14.441   9.699   0.098
25315SOL     OW77718   1.697   0.712   2.421
25315SOL    HW177719   1.718   0.805   2.410
25315SOL    HW277720   1.602   0.708   2.416
25316SOL     OW77721   4.363  13.784   0.678
25316SOL    HW177722   4.343  13.691   0.687
25316SOL    HW277723   4.370  13.816   0.768
25317SOL     OW77724   9.036   4.050   4.873
25317SOL    HW177725   8.942   4.069   4.879
25317SOL    HW277726   9.045   3.961   4.906
25318SOL     OW77727  13.224   8.496   8.944
25318SOL    HW177728  13.319   8.483   8.935
25318SOL    HW277729  13.207   8.581   8.904
25319SOL     OW77730   6.909  14.637  11.959
25319SOL    HW177731   6.896  14.575  11.886
25319SOL    HW277732   6.863  14.716  11.931
25320SOL     OW77733  10.871   3.496   1.857
25320SOL    HW177734  10.813   3.567   1.884
25320SOL    HW277735  10.827   3.416   1.884
25321SOL     OW77736   3.858  10.316  10.910
25321SOL    HW177737   3.941  10.348  10.875
25321SOL    HW277738   3.822  10.262  10.840
25322SOL     OW77739  14.069  12.497   0.616
25322SOL    HW177740  14.127  12.567   0.648
25322SOL    HW277741  14.100  12.418   0.660
25323SOL     OW77742  13.292   0.983   7.789
25323SOL    HW177743  13.241   0.928   7.849
25323SOL    HW277744  13.267   0.952   7.702
25324SOL     OW77745  14.320   3.085   4.207
25324SOL    HW177746  14.299   3.170   4.168
25324SOL    HW277747  14.412   3.093   4.235
25325SOL     OW77748   3.277  10.049   7.365
25325SOL    HW177749   3.194  10.017   7.331
25325SOL    HW277750   3.329   9.971   7.381
25326SOL     OW77751   6.098   2.330   6.961
25326SOL    HW177752   6.044   2.401   6.994
25326SOL    HW277753   6.188   2.361   6.971
25327SOL     OW77754   0.111   7.369   2.066
25327SOL    HW177755   0.079   7.292   2.112
25327SOL    HW277756   0.037   7.431   2.069
25328SOL     OW77757   4.702   0.576   8.713
25328SOL    HW177758   4.632   0.606   8.656
25328SOL    HW277759   4.753   0.516   8.659
25329SOL     OW77760   7.908   3.830  10.164
25329SOL    HW177761   7.822   3.862  10.192
25329SOL    HW277762   7.924   3.874  10.081
25330SOL     OW77763   2.588   1.920   9.131
25330SOL    HW177764   2.526   1.970   9.184
25330SOL    HW277765   2.534   1.857   9.083
25331SOL     OW77766  11.538   4.810   2.339
25331SOL    HW177767  11.480   4.735   2.331
25331SOL    HW277768  11.519   4.846   2.426
25332SOL     OW77769   2.430   7.905  11.742
25332SOL    HW177770   2.388   7.833  11.696
25332SOL    HW277771   2.424   7.979  11.682
25333SOL     OW77772  14.234   5.257  11.324
25333SOL    HW177773  14.141   5.238  11.311
25333SOL    HW277774  14.239   5.352  11.322
25334SOL     OW77775   8.315   2.573   4.858
25334SOL    HW177776   8.334   2.479   4.859
25334SOL    HW277777   8.336   2.602   4.947
25335SOL     OW77778  12.829  14.735  13.204
25335SOL    HW177779  12.778  14.809  13.238
25335SOL    HW277780  12.854  14.685  13.282
25336SOL     OW77781  10.599   3.742  12.612
25336SOL    HW177782  10.674   3.753  12.553
25336SOL    HW277783  10.617   3.799  12.686
25337SOL     OW77784   2.098   1.336   4.163
25337SOL    HW177785   2.161   1.387   4.112
25337SOL    HW277786   2.124   1.351   4.254
25338SOL     OW77787   5.688   7.690   3.012
25338SOL    HW177788   5.631   7.676   2.936
25338SOL    HW277789   5.766   7.637   2.993
25339SOL     OW77790   2.401   4.550   8.251
25339SOL    HW177791   2.400   4.615   8.322
25339SOL    HW277792   2.372   4.469   8.294
25340SOL     OW77793  13.348   8.574  13.763
25340SOL    HW177794  13.295   8.604  13.836
25340SOL    HW277795  13.303   8.495  13.732
25341SOL     OW77796  11.215   6.465   6.878
25341SOL    HW177797  11.308   6.487   6.882
25341SOL    HW277798  11.192   6.442   6.969
25342SOL     OW77799   7.661  12.293   5.333
25342SOL    HW177800   7.748  12.323   5.307
25342SOL    HW277801   7.670  12.199   5.345
25343SOL     OW77802   8.282   4.432   2.849
25343SOL    HW177803   8.300   4.453   2.758
25343SOL    HW277804   8.328   4.350   2.864
25344SOL     OW77805   9.088   2.263   3.848
25344SOL    HW177806   9.135   2.180   3.837
25344SOL    HW277807   9.045   2.277   3.763
25345SOL     OW77808   4.965  10.773  14.662
25345SOL    HW177809   5.017  10.739  14.589
25345SOL    HW277810   4.877  10.739  14.648
25346SOL     OW77811   1.708  12.186   9.584
25346SOL    HW177812   1.712  12.221   9.494
25346SOL    HW277813   1.721  12.263   9.640
25347SOL     OW77814  11.787   5.028   3.804
25347SOL    HW177815  11.810   5.102   3.860
25347SOL    HW277816  11.691   5.024   3.806
25348SOL     OW77817   4.942  11.748   9.320
25348SOL    HW177818   4.891  11.825   9.296
25348SOL    HW277819   5.011  11.781   9.377
25349SOL     OW77820   6.612  11.327   7.750
25349SOL    HW177821   6.618  11.233   7.766
25349SOL    HW277822   6.520  11.349   7.766
25350SOL     OW77823  13.748   6.197   2.805
25350SOL    HW177824  13.827   6.162   2.764
25350SOL    HW277825  13.712   6.257   2.741
25351SOL     OW77826   4.669   8.710   8.079
25351SOL    HW177827   4.592   8.748   8.036
25351SOL    HW277828   4.737   8.712   8.013
25352SOL     OW77829   7.918   6.423  10.815
25352SOL    HW177830   7.882   6.499  10.769
25352SOL    HW277831   7.915   6.353  10.750
25353SOL     OW77832   3.645  12.178   9.599
25353SOL    HW177833   3.623  12.245   9.664
25353SOL    HW277834   3.584  12.194   9.527
25354SOL     OW77835   6.244   7.235   9.691
25354SOL    HW177836   6.252   7.140   9.684
25354SOL    HW277837   6.295   7.258   9.768
25355SOL     OW77838   5.176  14.419   5.075
25355SOL    HW177839   5.161  14.330   5.043
25355SOL    HW277840   5.272  14.428   5.077
25356SOL     OW77841   9.887  10.929   5.328
25356SOL    HW177842   9.952  10.962   5.265
25356SOL    HW277843   9.803  10.947   5.287
25357SOL     OW77844   6.076   6.743   0.444
25357SOL    HW177845   6.020   6.672   0.475
25357SOL    HW277846   6.015   6.809   0.411
25358SOL     OW77847   1.423   6.248  11.545
25358SOL    HW177848   1.418   6.154  11.559
25358SOL    HW277849   1.368   6.286  11.614
25359SOL     OW77850   3.986   4.366   5.566
25359SOL    HW177851   4.043   4.315   5.508
25359SOL    HW277852   3.979   4.313   5.645
25360SOL     OW77853   4.080  14.497   2.557
25360SOL    HW177854   4.100  14.405   2.574
25360SOL    HW277855   4.062  14.501   2.464
25361SOL     OW77856   4.109   3.558   0.062
25361SOL    HW177857   4.204   3.556   0.074
25361SOL    HW277858   4.075   3.502   0.132
25362SOL     OW77859  13.487   5.432   4.167
25362SOL    HW177860  13.561   5.486   4.138
25362SOL    HW277861  13.493   5.353   4.114
25363SOL     OW77862   4.513   7.548   9.641
25363SOL    HW177863   4.459   7.501   9.577
25363SOL    HW277864   4.533   7.483   9.708
25364SOL     OW77865   0.021   9.917   6.869
25364SOL    HW177866   0.117   9.917   6.870
25364SOL    HW277867  14.875  10.005   6.839
25365SOL     OW77868   3.761   6.243   6.575
25365SOL    HW177869   3.749   6.150   6.555
25365SOL    HW277870   3.707   6.288   6.510
25366SOL     OW77871  14.750  14.338   9.516
25366SOL    HW177872  14.807  14.374   9.449
25366SOL    HW277873  14.662  14.368   9.492
25367SOL     OW77874  10.558   6.699  10.168
25367SOL    HW177875  10.603   6.738  10.093
25367SOL    HW277876  10.597   6.741  10.244
25368SOL     OW77877   7.540   4.931   9.378
25368SOL    HW177878   7.509   4.966   9.295
25368SOL    HW277879   7.598   4.858   9.354
25369SOL     OW77880  11.094   8.940   7.083
25369SOL    HW177881  11.087   9.008   7.015
25369SOL    HW277882  11.006   8.904   7.090
25370SOL     OW77883  11.651   6.500   6.338
25370SOL    HW177884  11.568   6.543   6.359
25370SOL    HW277885  11.670   6.527   6.248
25371SOL     OW77886  13.728  14.636   5.567
25371SOL    HW177887  13.810  14.608   5.608
25371SOL    HW277888  13.682  14.683   5.636
25372SOL     OW77889   7.954   4.093  11.470
25372SOL    HW177890   8.010   4.021  11.499
25372SOL    HW277891   7.980   4.167  11.524
25373SOL     OW77892  10.188   4.808   0.230
25373SOL    HW177893  10.280   4.794   0.206
25373SOL    HW277894  10.192   4.846   0.317
25374SOL     OW77895   4.748   2.138  14.086
25374SOL    HW177896   4.665   2.147  14.134
25374SOL    HW277897   4.768   2.228  14.058
25375SOL     OW77898   1.215  11.597   6.230
25375SOL    HW177899   1.128  11.558   6.234
25375SOL    HW277900   1.200  11.688   6.206
25376SOL     OW77901   8.555   7.196   6.432
25376SOL    HW177902   8.610   7.124   6.402
25376SOL    HW277903   8.594   7.274   6.392
25377SOL     OW77904   7.086   6.868   6.382
25377SOL    HW177905   7.060   6.841   6.295
25377SOL    HW277906   7.020   6.831   6.440
25378SOL     OW77907   1.622  12.022  14.776
25378SOL    HW177908   1.530  12.050  14.783
25378SOL    HW277909   1.670  12.082  14.833
25379SOL     OW77910   2.412  13.218  12.639
25379SOL    HW177911   2.413  13.309  12.667
25379SOL    HW277912   2.412  13.222  12.543
25380SOL     OW77913  14.618  10.657  12.373
25380SOL    HW177914  14.580  10.736  12.334
25380SOL    HW277915  14.599  10.587  12.309
25381SOL     OW77916  10.689   5.290  13.845
25381SOL    HW177917  10.614   5.231  13.850
25381SOL    HW277918  10.756   5.240  13.798
25382SOL     OW77919   1.547  14.801   2.067
25382SOL    HW177920   1.558   0.001   2.012
25382SOL    HW277921   1.453  14.782   2.063
25383SOL     OW77922   6.260  10.739   9.696
25383SOL    HW177923   6.351  10.748   9.669
25383SOL    HW277924   6.265  10.705   9.785
25384SOL     OW77925  10.690   3.267   4.580
25384SOL    HW177926  10.718   3.262   4.671
25384SOL    HW277927  10.668   3.359   4.566
25385SOL     OW77928   1.984   5.973   4.606
25385SOL    HW177929   1.941   5.891   4.586
25385SOL    HW277930   2.066   5.970   4.557
25386SOL     OW77931  11.812  12.553   8.777
25386SOL    HW177932  11.897  12.596   8.766
25386SOL    HW277933  11.748  12.618   8.752
25387SOL     OW77934   8.243   3.175   0.976
25387SOL    HW177935   8.219   3.251   1.029
25387SOL    HW277936   8.314   3.206   0.920
25388SOL     OW77937   0.700   9.789   7.044
25388SOL    HW177938   0.789   9.774   7.014
25388SOL    HW277939   0.702   9.769   7.138
25389SOL     OW77940  14.289  10.012   9.282
25389SOL    HW177941  14.216  10.074   9.276
25389SOL    HW277942  14.357  10.060   9.328
25390SOL     OW77943  11.498   9.047   1.302
25390SOL    HW177944  11.507   9.012   1.390
25390SOL    HW277945  11.571   9.108   1.293
25391SOL     OW77946  11.066   6.478   3.428
25391SOL    HW177947  10.998   6.456   3.492
25391SOL    HW277948  11.083   6.571   3.441
25392SOL     OW77949   0.811   7.562  12.676
25392SOL    HW177950   0.775   7.588  12.591
25392SOL    HW277951   0.734   7.542  12.729
25393SOL     OW77952   0.620  13.999   7.548
25393SOL    HW177953   0.579  14.033   7.628
25393SOL    HW277954   0.578  13.914   7.534
25394SOL     OW77955   8.601  13.251   6.960
25394SOL    HW177956   8.655  13.313   7.009
25394SOL    HW277957   8.511  13.284   6.969
25395SOL     OW77958   8.225   9.219   3.670
25395SOL    HW177959   8.261   9.189   3.754
25395SOL    HW277960   8.232   9.314   3.675
25396SOL     OW77961   7.363   9.149   9.651
25396SOL    HW177962   7.300   9.188   9.590
25396SOL    HW277963   7.370   9.213   9.722
25397SOL     OW77964   1.014   2.367   2.533
25397SOL    HW177965   1.086   2.324   2.578
25397SOL    HW277966   0.968   2.415   2.601
25398SOL     OW77967  11.845  10.403  11.689
25398SOL    HW177968  11.928  10.397  11.735
25398SOL    HW277969  11.806  10.485  11.721
25399SOL     OW77970  12.464   2.168   5.213
25399SOL    HW177971  12.421   2.124   5.139
25399SOL    HW277972  12.519   2.101   5.252
25400SOL     OW77973  11.257  14.323   7.458
25400SOL    HW177974  11.272  14.408   7.501
25400SOL    HW277975  11.283  14.258   7.523
25401SOL     OW77976   2.564  11.278  11.340
25401SOL    HW177977   2.521  11.355  11.302
25401SOL    HW277978   2.575  11.218  11.267
25402SOL     OW77979   3.275  14.793   5.303
25402SOL    HW177980   3.370  14.786   5.312
25402SOL    HW277981   3.241  14.718   5.351
25403SOL     OW77982   3.965  11.982   4.061
25403SOL    HW177983   3.912  11.916   4.018
25403SOL    HW277984   4.054  11.965   4.030
25404SOL     OW77985   2.902   7.917   7.796
25404SOL    HW177986   2.807   7.921   7.783
25404SOL    HW277987   2.924   7.825   7.783
25405SOL     OW77988   8.084  14.414  13.992
25405SOL    HW177989   8.130  14.396  14.074
25405SOL    HW277990   8.153  14.422  13.927
25406SOL     OW77991  10.890   8.215  12.752
25406SOL    HW177992  10.918   8.307  12.750
25406SOL    HW277993  10.795   8.220  12.762
25407SOL     OW77994   8.701   8.246   6.319
25407SOL    HW177995   8.787   8.262   6.281
25407SOL    HW277996   8.714   8.256   6.413
25408SOL     OW77997  10.862   7.795   1.921
25408SOL    HW177998  10.790   7.742   1.954
25408SOL    HW277999  10.903   7.832   2.000
25409SOL     OW78000  13.392  10.732  11.109
25409SOL    HW178001  13.350  10.663  11.056
25409SOL    HW278002  13.358  10.814  11.073
25410SOL     OW78003   7.428  13.099   6.044
25410SOL    HW178004   7.428  13.013   6.003
25410SOL    HW278005   7.520  13.121   6.054
25411SOL     OW78006   3.532  14.400   5.056
25411SOL    HW178007   3.448  14.407   5.011
25411SOL    HW278008   3.551  14.307   5.058
25412SOL     OW78009   4.809   0.888  14.647
25412SOL    HW178010   4.869   0.813  14.646
25412SOL    HW278011   4.740   0.865  14.586
25413SOL     OW78012   2.060  11.104   4.930
25413SOL    HW178013   2.073  11.170   4.862
25413SOL    HW278014   1.991  11.140   4.985
25414SOL     OW78015   1.199   8.292   7.320
25414SOL    HW178016   1.143   8.336   7.256
25414SOL    HW278017   1.147   8.287   7.400
25415SOL     OW78018  11.641   8.234   2.359
25415SOL    HW178019  11.699   8.264   2.288
25415SOL    HW278020  11.613   8.146   2.331
25416SOL     OW78021  10.739   8.299  14.648
25416SOL    HW178022  10.742   8.357  14.723
25416SOL    HW278023  10.686   8.225  14.676
25417SOL     OW78024   6.133   6.824   9.822
25417SOL    HW178025   6.128   6.920   9.819
25417SOL    HW278026   6.114   6.801   9.913
25418SOL     OW78027   8.383   0.371   5.704
25418SOL    HW178028   8.457   0.327   5.746
25418SOL    HW278029   8.339   0.302   5.654
25419SOL     OW78030  11.071   7.386   1.778
25419SOL    HW178031  11.008   7.355   1.713
25419SOL    HW278032  11.072   7.481   1.767
25420SOL     OW78033   8.306  11.446  10.151
25420SOL    HW178034   8.302  11.440  10.246
25420SOL    HW278035   8.224  11.489  10.127
25421SOL     OW78036   5.488  14.555   8.076
25421SOL    HW178037   5.410  14.514   8.039
25421SOL    HW278038   5.561  14.506   8.039
25422SOL     OW78039   3.559   7.683  14.679
25422SOL    HW178040   3.643   7.643  14.656
25422SOL    HW278041   3.495   7.638  14.625
25423SOL     OW78042   5.869   3.117   0.053
25423SOL    HW178043   5.914   3.197   0.023
25423SOL    HW278044   5.833   3.079  14.850
25424SOL     OW78045  12.692   1.161   5.865
25424SOL    HW178046  12.675   1.067   5.870
25424SOL    HW278047  12.775   1.168   5.818
25425SOL     OW78048   1.572   3.478   9.725
25425SOL    HW178049   1.635   3.407   9.710
25425SOL    HW278050   1.486   3.436   9.721
25426SOL     OW78051   8.113  13.914   3.326
25426SOL    HW178052   8.182  13.905   3.392
25426SOL    HW278053   8.073  13.827   3.320
25427SOL     OW78054   2.193  13.989   0.068
25427SOL    HW178055   2.132  13.918   0.046
25427SOL    HW278056   2.260  13.947   0.122
25428SOL     OW78057   6.227   0.538   7.888
25428SOL    HW178058   6.278   0.476   7.835
25428SOL    HW278059   6.173   0.483   7.944
25429SOL     OW78060   6.007  12.125   6.324
25429SOL    HW178061   6.093  12.083   6.328
25429SOL    HW278062   5.965  12.104   6.407
25430SOL     OW78063   5.532   7.909   5.720
25430SOL    HW178064   5.495   7.821   5.725
25430SOL    HW278065   5.519   7.935   5.629
25431SOL     OW78066   2.573  10.835   6.678
25431SOL    HW178067   2.486  10.796   6.667
25431SOL    HW278068   2.570  10.874   6.766
25432SOL     OW78069   8.552  14.098   7.337
25432SOL    HW178070   8.488  14.162   7.308
25432SOL    HW278071   8.634  14.147   7.346
25433SOL     OW78072   5.429   8.257  12.798
25433SOL    HW178073   5.380   8.244  12.717
25433SOL    HW278074   5.420   8.173  12.844
25434SOL     OW78075   0.179  10.344   0.321
25434SOL    HW178076   0.273  10.326   0.316
25434SOL    HW278077   0.173  10.439   0.333
25435SOL     OW78078  14.572   5.110  11.296
25435SOL    HW178079  14.522   5.088  11.374
25435SOL    HW278080  14.506   5.132  11.230
25436SOL     OW78081   7.312  12.823   1.261
25436SOL    HW178082   7.218  12.807   1.252
25436SOL    HW278083   7.328  12.904   1.214
25437SOL     OW78084   3.459   5.739   9.812
25437SOL    HW178085   3.394   5.706   9.873
25437SOL    HW278086   3.527   5.671   9.811
25438SOL     OW78087  14.317  11.231  11.121
25438SOL    HW178088  14.251  11.177  11.165
25438SOL    HW278089  14.283  11.243  11.033
25439SOL     OW78090   5.328   5.545   1.029
25439SOL    HW178091   5.295   5.598   1.102
25439SOL    HW278092   5.269   5.469   1.027
25440SOL     OW78093   8.114   2.570  14.789
25440SOL    HW178094   8.157   2.544  14.708
25440SOL    HW278095   8.123   2.494  14.847
25441SOL     OW78096   8.450   4.691   0.482
25441SOL    HW178097   8.468   4.775   0.525
25441SOL    HW278098   8.523   4.679   0.421
25442SOL     OW78099   5.752   7.497   7.216
25442SOL    HW178100   5.681   7.494   7.153
25442SOL    HW278101   5.831   7.480   7.164
25443SOL     OW78102  10.610   2.258   1.096
25443SOL    HW178103  10.564   2.220   1.021
25443SOL    HW278104  10.702   2.236   1.082
25444SOL     OW78105   2.682  10.220   6.042
25444SOL    HW178106   2.653  10.220   6.133
25444SOL    HW278107   2.777  10.210   6.047
25445SOL     OW78108   3.786   4.245  11.626
25445SOL    HW178109   3.778   4.266  11.719
25445SOL    HW278110   3.752   4.322  11.580
25446SOL     OW78111   0.703  10.856   6.543
25446SOL    HW178112   0.792  10.887   6.559
25446SOL    HW278113   0.662  10.926   6.493
25447SOL     OW78114   1.425   6.752   8.472
25447SOL    HW178115   1.438   6.685   8.539
25447SOL    HW278116   1.482   6.824   8.499
25448SOL     OW78117   8.549  10.260  13.625
25448SOL    HW178118   8.546  10.167  13.650
25448SOL    HW278119   8.539  10.307  13.707
25449SOL     OW78120  14.174   2.318   7.342
25449SOL    HW178121  14.145   2.268   7.419
25449SOL    HW278122  14.138   2.406   7.356
25450SOL     OW78123   3.246   8.730  11.230
25450SOL    HW178124   3.304   8.676  11.176
25450SOL    HW278125   3.302   8.798  11.266
25451SOL     OW78126   9.365   9.300  10.156
25451SOL    HW178127   9.311   9.379  10.159
25451SOL    HW278128   9.367   9.276  10.063
25452SOL     OW78129   4.591   5.990   0.894
25452SOL    HW178130   4.596   5.962   0.802
25452SOL    HW278131   4.507   5.954   0.925
25453SOL     OW78132   8.976   5.998   0.843
25453SOL    HW178133   8.979   5.926   0.780
25453SOL    HW278134   9.045   5.978   0.906
25454SOL     OW78135  13.872  13.989   9.681
25454SOL    HW178136  13.878  13.995   9.776
25454SOL    HW278137  13.792  13.939   9.665
25455SOL     OW78138  13.621   0.417  11.800
25455SOL    HW178139  13.593   0.484  11.863
25455SOL    HW278140  13.668   0.466  11.733
25456SOL     OW78141   4.463  11.090  10.300
25456SOL    HW178142   4.449  11.140  10.219
25456SOL    HW278143   4.374  11.071  10.332
25457SOL     OW78144   0.393   0.126   6.813
25457SOL    HW178145   0.339   0.076   6.752
25457SOL    HW278146   0.461   0.165   6.757
25458SOL     OW78147   7.788   4.156   8.691
25458SOL    HW178148   7.768   4.205   8.612
25458SOL    HW278149   7.718   4.091   8.698
25459SOL     OW78150  13.140   2.434   8.954
25459SOL    HW178151  13.103   2.475   8.875
25459SOL    HW278152  13.234   2.428   8.936
25460SOL     OW78153   3.621   2.790   9.805
25460SOL    HW178154   3.634   2.721   9.740
25460SOL    HW278155   3.709   2.821   9.825
25461SOL     OW78156   4.525   9.096  11.634
25461SOL    HW178157   4.482   9.020  11.595
25461SOL    HW278158   4.476   9.172  11.601
25462SOL     OW78159   7.142   0.008  12.146
25462SOL    HW178160   7.095   0.091  12.157
25462SOL    HW278161   7.155  14.853  12.235
25463SOL     OW78162   4.056  13.465  10.736
25463SOL    HW178163   3.994  13.499  10.800
25463SOL    HW278164   4.001  13.426  10.668
25464SOL     OW78165   0.442  10.795   0.073
25464SOL    HW178166   0.490  10.840   0.003
25464SOL    HW278167   0.509  10.744   0.120
25465SOL     OW78168  10.449   4.834  10.017
25465SOL    HW178169  10.462   4.739  10.030
25465SOL    HW278170  10.397   4.841   9.937
25466SOL     OW78171   0.826   6.649   6.810
25466SOL    HW178172   0.742   6.690   6.791
25466SOL    HW278173   0.819   6.623   6.902
25467SOL     OW78174   5.574   6.298   4.542
25467SOL    HW178175   5.520   6.331   4.470
25467SOL    HW278176   5.627   6.373   4.569
25468SOL     OW78177   7.045   0.786   5.386
25468SOL    HW178178   6.974   0.826   5.335
25468SOL    HW278179   7.056   0.699   5.348
25469SOL     OW78180   3.260  12.018  13.168
25469SOL    HW178181   3.291  12.080  13.234
25469SOL    HW278182   3.167  12.040  13.156
25470SOL     OW78183   0.332  10.048   5.091
25470SOL    HW178184   0.347  10.120   5.152
25470SOL    HW278185   0.360  10.081   5.006
25471SOL     OW78186   9.235   6.284   8.989
25471SOL    HW178187   9.236   6.379   8.976
25471SOL    HW278188   9.188   6.249   8.913
25472SOL     OW78189  14.770   1.527   0.233
25472SOL    HW178190  14.826   1.522   0.310
25472SOL    HW278191  14.807   1.465   0.171
25473SOL     OW78192   4.276   1.002   7.079
25473SOL    HW178193   4.182   0.991   7.094
25473SOL    HW278194   4.286   1.093   7.051
25474SOL     OW78195  12.332   2.261   1.347
25474SOL    HW178196  12.357   2.170   1.364
25474SOL    HW278197  12.243   2.268   1.383
25475SOL     OW78198   2.395   9.637   7.119
25475SOL    HW178199   2.440   9.575   7.061
25475SOL    HW278200   2.431   9.619   7.206
25476SOL     OW78201  11.966   8.219  13.863
25476SOL    HW178202  11.977   8.217  13.768
25476SOL    HW278203  12.029   8.285  13.893
25477SOL     OW78204   8.441   8.904  10.637
25477SOL    HW178205   8.516   8.963  10.629
25477SOL    HW278206   8.416   8.885  10.546
25478SOL     OW78207   2.774   1.430   7.549
25478SOL    HW178208   2.801   1.501   7.607
25478SOL    HW278209   2.824   1.354   7.579
25479SOL     OW78210   9.587  13.803   9.051
25479SOL    HW178211   9.584  13.754   8.968
25479SOL    HW278212   9.547  13.744   9.115
25480SOL     OW78213   0.562   0.887  13.363
25480SOL    HW178214   0.627   0.829  13.402
25480SOL    HW278215   0.566   0.967  13.417
25481SOL     OW78216  13.732   0.175  14.843
25481SOL    HW178217  13.672   0.130   0.025
25481SOL    HW278218  13.709   0.141  14.756
25482SOL     OW78219   8.270   3.086  13.821
25482SOL    HW178220   8.235   3.045  13.741
25482SOL    HW278221   8.283   3.013  13.881
25483SOL     OW78222   4.305   9.253   0.284
25483SOL    HW178223   4.267   9.326   0.332
25483SOL    HW278224   4.258   9.176   0.315
25484SOL     OW78225   9.469  14.453   1.599
25484SOL    HW178226   9.392  14.398   1.590
25484SOL    HW278227   9.542  14.398   1.572
25485SOL     OW78228  11.558   9.835  12.993
25485SOL    HW178229  11.639   9.813  12.948
25485SOL    HW278230  11.516   9.901  12.938
25486SOL     OW78231  12.078  11.111  10.156
25486SOL    HW178232  12.044  11.026  10.130
25486SOL    HW278233  12.011  11.147  10.214
25487SOL     OW78234  10.040   7.191   5.743
25487SOL    HW178235   9.977   7.232   5.802
25487SOL    HW278236  10.121   7.184   5.795
25488SOL     OW78237   1.517  14.109  14.790
25488SOL    HW178238   1.566  14.191  14.784
25488SOL    HW278239   1.497  14.086  14.699
25489SOL     OW78240   0.649  11.145   0.135
25489SOL    HW178241   0.717  11.211   0.151
25489SOL    HW278242   0.586  11.157   0.206
25490SOL     OW78243  12.851   9.261   9.254
25490SOL    HW178244  12.782   9.318   9.286
25490SOL    HW278245  12.858   9.192   9.319
25491SOL     OW78246  12.522  13.360   4.864
25491SOL    HW178247  12.575  13.422   4.914
25491SOL    HW278248  12.582  13.325   4.798
25492SOL     OW78249  11.597   5.542   8.537
25492SOL    HW178250  11.687   5.525   8.510
25492SOL    HW278251  11.568   5.461   8.579
25493SOL     OW78252   5.644  13.882   6.991
25493SOL    HW178253   5.598  13.965   6.978
25493SOL    HW278254   5.664  13.880   7.084
25494SOL     OW78255  10.533  13.570   8.696
25494SOL    HW178256  10.518  13.535   8.608
25494SOL    HW278257  10.530  13.665   8.685
25495SOL     OW78258  13.242  14.463   1.984
25495SOL    HW178259  13.245  14.528   1.914
25495SOL    HW278260  13.320  14.410   1.972
25496SOL     OW78261   0.193   2.687   0.994
25496SOL    HW178262   0.228   2.696   1.083
25496SOL    HW278263   0.230   2.762   0.947
25497SOL     OW78264  12.291  13.294   7.935
25497SOL    HW178265  12.275  13.236   8.010
25497SOL    HW278266  12.203  13.312   7.900
25498SOL     OW78267  10.276   5.141   5.202
25498SOL    HW178268  10.365   5.153   5.235
25498SOL    HW278269  10.242   5.230   5.192
25499SOL     OW78270  12.417   3.469   8.194
25499SOL    HW178271  12.427   3.374   8.188
25499SOL    HW278272  12.503   3.504   8.171
25500SOL     OW78273   3.811   4.907   9.820
25500SOL    HW178274   3.902   4.935   9.831
25500SOL    HW278275   3.759   4.983   9.847
25501SOL     OW78276   6.865   0.171  11.805
25501SOL    HW178277   6.912   0.091  11.781
25501SOL    HW278278   6.833   0.206  11.722
25502SOL     OW78279   4.876   2.332   7.858
25502SOL    HW178280   4.911   2.331   7.947
25502SOL    HW278281   4.783   2.352   7.869
25503SOL     OW78282  11.757  14.700   1.685
25503SOL    HW178283  11.832  14.700   1.625
25503SOL    HW278284  11.705  14.776   1.658
25504SOL     OW78285   5.997   9.386  13.753
25504SOL    HW178286   6.074   9.427  13.794
25504SOL    HW278287   5.929   9.391  13.820
25505SOL     OW78288  10.011   3.312  11.223
25505SOL    HW178289  10.019   3.377  11.153
25505SOL    HW278290  10.056   3.352  11.298
25506SOL     OW78291   9.659   0.375  10.596
25506SOL    HW178292   9.625   0.422  10.673
25506SOL    HW278293   9.748   0.349  10.621
25507SOL     OW78294   5.066   5.060   3.954
25507SOL    HW178295   5.013   5.086   3.879
25507SOL    HW278296   5.026   5.103   4.029
25508SOL     OW78297   3.442   9.893  11.505
25508SOL    HW178298   3.403   9.976  11.478
25508SOL    HW278299   3.513   9.878  11.442
25509SOL     OW78300  10.775  13.002   7.323
25509SOL    HW178301  10.682  13.023   7.322
25509SOL    HW278302  10.790  12.966   7.410
25510SOL     OW78303   6.642   8.474  11.781
25510SOL    HW178304   6.554   8.477  11.744
25510SOL    HW278305   6.700   8.484  11.706
25511SOL     OW78306  10.201   7.711  13.299
25511SOL    HW178307  10.174   7.623  13.272
25511SOL    HW278308  10.158   7.769  13.236
25512SOL     OW78309   9.942  13.715  13.811
25512SOL    HW178310   9.876  13.712  13.880
25512SOL    HW278311  10.025  13.705  13.856
25513SOL     OW78312   5.176   3.048  14.253
25513SOL    HW178313   5.083   3.054  14.233
25513SOL    HW278314   5.180   3.041  14.349
25514SOL     OW78315   6.481   5.461   8.967
25514SOL    HW178316   6.455   5.512   9.043
25514SOL    HW278317   6.435   5.501   8.894
25515SOL     OW78318   7.906   9.848   2.530
25515SOL    HW178319   7.850   9.857   2.453
25515SOL    HW278320   7.952   9.932   2.537
25516SOL     OW78321   1.622   2.006   8.938
25516SOL    HW178322   1.656   1.997   9.027
25516SOL    HW278323   1.539   2.053   8.950
25517SOL     OW78324   4.483   6.889   8.583
25517SOL    HW178325   4.506   6.969   8.630
25517SOL    HW278326   4.437   6.835   8.647
25518SOL     OW78327   3.988   6.162   4.926
25518SOL    HW178328   4.041   6.161   5.006
25518SOL    HW278329   3.968   6.254   4.912
25519SOL     OW78330  13.417   7.584   4.404
25519SOL    HW178331  13.364   7.519   4.449
25519SOL    HW278332  13.448   7.642   4.473
25520SOL     OW78333   5.595  11.492  12.820
25520SOL    HW178334   5.654  11.512  12.747
25520SOL    HW278335   5.650  11.500  12.898
25521SOL     OW78336  10.523   7.940  10.598
25521SOL    HW178337  10.495   7.938  10.507
25521SOL    HW278338  10.451   7.899  10.647
25522SOL     OW78339   5.830   6.466  14.098
25522SOL    HW178340   5.735   6.477  14.103
25522SOL    HW278341   5.865   6.516  14.172
25523SOL     OW78342   6.457   6.717   8.416
25523SOL    HW178343   6.431   6.797   8.371
25523SOL    HW278344   6.525   6.746   8.477
25524SOL     OW78345   6.180   0.686  14.334
25524SOL    HW178346   6.202   0.734  14.413
25524SOL    HW278347   6.118   0.618  14.363
25525SOL     OW78348   8.933  11.386   1.190
25525SOL    HW178349   8.954  11.476   1.165
25525SOL    HW278350   9.016  11.339   1.179
25526SOL     OW78351   9.213   2.054  14.017
25526SOL    HW178352   9.158   2.109  13.962
25526SOL    HW278353   9.282   2.023  13.959
25527SOL     OW78354   6.132   2.177   5.809
25527SOL    HW178355   6.159   2.152   5.897
25527SOL    HW278356   6.083   2.258   5.820
25528SOL     OW78357   5.203  12.799   2.320
25528SOL    HW178358   5.112  12.822   2.339
25528SOL    HW278359   5.225  12.849   2.241
25529SOL     OW78360   9.740   7.809  13.167
25529SOL    HW178361   9.757   7.760  13.086
25529SOL    HW278362   9.692   7.886  13.137
25530SOL     OW78363  14.625   6.923   5.365
25530SOL    HW178364  14.708   6.882   5.389
25530SOL    HW278365  14.639   6.955   5.276
25531SOL     OW78366   4.751   2.714  12.229
25531SOL    HW178367   4.809   2.785  12.258
25531SOL    HW278368   4.790   2.683  12.148
25532SOL     OW78369   2.712   7.680  11.246
25532SOL    HW178370   2.707   7.585  11.252
25532SOL    HW278371   2.764   7.696  11.167
25533SOL     OW78372  12.927  11.744  11.456
25533SOL    HW178373  12.939  11.656  11.423
25533SOL    HW278374  13.012  11.787  11.442
25534SOL     OW78375   2.484   1.018  12.383
25534SOL    HW178376   2.452   1.023  12.293
25534SOL    HW278377   2.538   1.096  12.393
25535SOL     OW78378  10.154  12.331  10.025
25535SOL    HW178379  10.244  12.300  10.019
25535SOL    HW278380  10.110  12.266  10.080
25536SOL     OW78381   2.794   5.818   2.737
25536SOL    HW178382   2.852   5.812   2.662
25536SOL    HW278383   2.845   5.866   2.803
25537SOL     OW78384   0.552  10.342   7.118
25537SOL    HW178385   0.487  10.300   7.062
25537SOL    HW278386   0.560  10.285   7.194
25538SOL     OW78387   9.470   0.176   5.830
25538SOL    HW178388   9.435   0.235   5.897
25538SOL    HW278389   9.565   0.180   5.842
25539SOL     OW78390   4.230   9.491   1.894
25539SOL    HW178391   4.159   9.482   1.830
25539SOL    HW278392   4.229   9.583   1.919
25540SOL     OW78393   2.613   1.173   7.602
25540SOL    HW178394   2.591   1.241   7.539
25540SOL    HW278395   2.708   1.165   7.597
25541SOL     OW78396   7.293   7.779   0.094
25541SOL    HW178397   7.328   7.783   0.183
25541SOL    HW278398   7.346   7.842   0.045
25542SOL     OW78399   9.411   8.430  10.517
25542SOL    HW178400   9.465   8.451  10.441
25542SOL    HW278401   9.352   8.505  10.525
25543SOL     OW78402  10.021   6.805   0.748
25543SOL    HW178403   9.934   6.842   0.731
25543SOL    HW278404  10.054   6.856   0.823
25544SOL     OW78405   2.767   5.762   9.586
25544SOL    HW178406   2.831   5.770   9.657
25544SOL    HW278407   2.727   5.676   9.599
25545SOL     OW78408   0.550   7.823   2.208
25545SOL    HW178409   0.586   7.906   2.176
25545SOL    HW278410   0.550   7.765   2.131
25546SOL     OW78411   3.168   9.199  10.405
25546SOL    HW178412   3.130   9.200  10.494
25546SOL    HW278413   3.108   9.253  10.354
25547SOL     OW78414   5.432   4.524   9.993
25547SOL    HW178415   5.503   4.490  10.049
25547SOL    HW278416   5.352   4.493  10.035
25548SOL     OW78417  14.204  12.709   6.757
25548SOL    HW178418  14.254  12.731   6.835
25548SOL    HW278419  14.183  12.616   6.768
25549SOL     OW78420   1.814   2.692   3.723
25549SOL    HW178421   1.817   2.775   3.769
25549SOL    HW278422   1.800   2.716   3.631
25550SOL     OW78423   8.211  11.281   0.244
25550SOL    HW178424   8.226  11.243   0.157
25550SOL    HW278425   8.264  11.360   0.245
25551SOL     OW78426   9.931  10.315   7.864
25551SOL    HW178427   9.838  10.328   7.843
25551SOL    HW278428   9.972  10.293   7.780
25552SOL     OW78429   5.679   4.182   4.999
25552SOL    HW178430   5.585   4.178   4.982
25552SOL    HW278431   5.698   4.101   5.046
25553SOL     OW78432   0.826   7.688   3.368
25553SOL    HW178433   0.761   7.756   3.348
25553SOL    HW278434   0.852   7.654   3.283
25554SOL     OW78435  13.509   2.337   0.145
25554SOL    HW178436  13.475   2.256   0.108
25554SOL    HW278437  13.583   2.310   0.199
25555SOL     OW78438   6.317  10.792   4.773
25555SOL    HW178439   6.382  10.859   4.752
25555SOL    HW278440   6.268  10.780   4.692
25556SOL     OW78441   5.124   5.643   1.242
25556SOL    HW178442   5.069   5.650   1.164
25556SOL    HW278443   5.065   5.658   1.315
25557SOL     OW78444   1.827   9.359   9.033
25557SOL    HW178445   1.840   9.267   9.055
25557SOL    HW278446   1.737   9.377   9.059
25558SOL     OW78447  13.739   0.668   0.580
25558SOL    HW178448  13.824   0.673   0.536
25558SOL    HW278449  13.709   0.759   0.584
25559SOL     OW78450   6.532   8.767   8.877
25559SOL    HW178451   6.527   8.783   8.783
25559SOL    HW278452   6.626   8.767   8.897
25560SOL     OW78453  12.784  13.735   1.324
25560SOL    HW178454  12.752  13.818   1.361
25560SOL    HW278455  12.791  13.753   1.230
25561SOL     OW78456  12.214  12.438  11.728
25561SOL    HW178457  12.299  12.398  11.709
25561SOL    HW278458  12.234  12.531  11.738
25562SOL     OW78459   9.102   0.070   3.535
25562SOL    HW178460   9.062   0.072   3.448
25562SOL    HW278461   9.178   0.011   3.525
25563SOL     OW78462  13.794   6.750   0.360
25563SOL    HW178463  13.722   6.734   0.298
25563SOL    HW278464  13.751   6.770   0.443
25564SOL     OW78465  10.793  13.866   5.565
25564SOL    HW178466  10.749  13.803   5.623
25564SOL    HW278467  10.872  13.891   5.614
25565SOL     OW78468  10.723   5.218  10.620
25565SOL    HW178469  10.767   5.192  10.702
25565SOL    HW278470  10.774   5.292  10.589
25566SOL     OW78471   7.941  11.144  11.131
25566SOL    HW178472   7.871  11.124  11.069
25566SOL    HW278473   7.921  11.089  11.207
25567SOL     OW78474   2.940   3.941   4.502
25567SOL    HW178475   2.867   3.975   4.554
25567SOL    HW278476   2.911   3.950   4.411
25568SOL     OW78477   0.527   9.095   8.354
25568SOL    HW178478   0.541   9.185   8.383
25568SOL    HW278479   0.598   9.079   8.291
25569SOL     OW78480   9.658   9.547   5.161
25569SOL    HW178481   9.577   9.500   5.181
25569SOL    HW278482   9.635   9.639   5.171
25570SOL     OW78483  12.925   5.462   3.978
25570SOL    HW178484  12.977   5.513   4.040
25570SOL    HW278485  12.893   5.527   3.916
25571SOL     OW78486   1.280  10.260   8.098
25571SOL    HW178487   1.203  10.203   8.093
25571SOL    HW278488   1.338  10.217   8.160
25572SOL     OW78489   0.920   9.630   3.047
25572SOL    HW178490   0.921   9.725   3.052
25572SOL    HW278491   0.827   9.607   3.048
25573SOL     OW78492   4.499  12.972  13.353
25573SOL    HW178493   4.483  12.889  13.398
25573SOL    HW278494   4.526  12.947  13.264
25574SOL     OW78495   0.988  14.866   6.162
25574SOL    HW178496   0.906  14.836   6.123
25574SOL    HW278497   0.984  14.837   6.253
25575SOL     OW78498   0.240   7.912   1.674
25575SOL    HW178499   0.161   7.869   1.708
25575SOL    HW278500   0.303   7.906   1.745
25576SOL     OW78501   9.367   2.323  11.223
25576SOL    HW178502   9.426   2.399  11.219
25576SOL    HW278503   9.364   2.300  11.315
25577SOL     OW78504  13.938   3.766   7.022
25577SOL    HW178505  14.006   3.833   7.016
25577SOL    HW278506  13.892   3.786   7.103
25578SOL     OW78507   0.001  12.537   8.100
25578SOL    HW178508  14.809  12.479   8.069
25578SOL    HW278509   0.010  12.604   8.032
25579SOL     OW78510   5.830   0.449  14.618
25579SOL    HW178511   5.762   0.502  14.577
25579SOL    HW278512   5.864   0.504  14.689
25580SOL     OW78513   5.773   7.206  10.992
25580SOL    HW178514   5.688   7.243  11.016
25580SOL    HW278515   5.832   7.235  11.061
25581SOL     OW78516   0.765   1.582   7.599
25581SOL    HW178517   0.755   1.500   7.647
25581SOL    HW278518   0.804   1.643   7.661
25582SOL     OW78519  11.969   2.014   0.689
25582SOL    HW178520  12.054   1.975   0.711
25582SOL    HW278521  11.906   1.969   0.745
25583SOL     OW78522   0.730   9.729   3.273
25583SOL    HW178523   0.768   9.782   3.204
25583SOL    HW278524   0.636   9.741   3.264
25584SOL     OW78525  14.514  11.332  14.575
25584SOL    HW178526  14.429  11.315  14.616
25584SOL    HW278527  14.493  11.374  14.492
25585SOL     OW78528   0.091  13.017   9.309
25585SOL    HW178529   0.131  13.103   9.297
25585SOL    HW278530   0.004  13.037   9.346
25586SOL     OW78531  14.350   5.419   6.519
25586SOL    HW178532  14.440   5.424   6.552
25586SOL    HW278533  14.332   5.325   6.511
25587SOL     OW78534   2.937   6.602   8.309
25587SOL    HW178535   2.976   6.546   8.242
25587SOL    HW278536   2.975   6.571   8.391
25588SOL     OW78537  12.494  12.995   9.115
25588SOL    HW178538  12.414  13.046   9.101
25588SOL    HW278539  12.468  12.925   9.174
25589SOL     OW78540   7.695   9.439   5.319
25589SOL    HW178541   7.731   9.500   5.383
25589SOL    HW278542   7.691   9.355   5.365
25590SOL     OW78543  14.145   2.397   8.578
25590SOL    HW178544  14.238   2.398   8.600
25590SOL    HW278545  14.101   2.431   8.655
25591SOL     OW78546   5.975  11.302   6.683
25591SOL    HW178547   6.009  11.225   6.728
25591SOL    HW278548   6.009  11.376   6.733
25592SOL     OW78549   0.741  10.491   7.313
25592SOL    HW178550   0.835  10.493   7.295
25592SOL    HW278551   0.706  10.422   7.257
25593SOL     OW78552   8.206   7.076   8.365
25593SOL    HW178553   8.240   6.989   8.386
25593SOL    HW278554   8.279   7.120   8.321
25594SOL     OW78555  13.824   4.906   8.223
25594SOL    HW178556  13.797   4.947   8.305
25594SOL    HW278557  13.918   4.923   8.218
25595SOL     OW78558   9.299  10.517   7.590
25595SOL    HW178559   9.387  10.487   7.569
25595SOL    HW278560   9.296  10.607   7.559
25596SOL     OW78561  11.085   6.964  12.553
25596SOL    HW178562  11.085   7.038  12.493
25596SOL    HW278563  11.176   6.933  12.554
25597SOL     OW78564  10.217   4.046   0.353
25597SOL    HW178565  10.237   4.037   0.260
25597SOL    HW278566  10.203   4.140   0.365
25598SOL     OW78567  14.849   1.741   7.437
25598SOL    HW178568  14.755   1.755   7.434
25598SOL    HW278569  14.863   1.691   7.518
25599SOL     OW78570   7.187   7.569   6.266
25599SOL    HW178571   7.102   7.583   6.224
25599SOL    HW278572   7.251   7.583   6.196
25600SOL     OW78573  13.644  11.364   9.229
25600SOL    HW178574  13.557  11.403   9.229
25600SOL    HW278575  13.668  11.357   9.321
25601SOL     OW78576   7.573   2.711   5.630
25601SOL    HW178577   7.525   2.792   5.612
25601SOL    HW278578   7.604   2.720   5.720
25602SOL     OW78579   0.711  13.522  10.956
25602SOL    HW178580   0.728  13.595  10.897
25602SOL    HW278581   0.670  13.561  11.033
25603SOL     OW78582  10.384   6.979  10.574
25603SOL    HW178583  10.420   7.064  10.600
25603SOL    HW278584  10.359   6.990  10.483
25604SOL     OW78585  11.375   1.573  11.914
25604SOL    HW178586  11.383   1.584  11.819
25604SOL    HW278587  11.403   1.657  11.950
25605SOL     OW78588   7.537   2.422   4.473
25605SOL    HW178589   7.527   2.342   4.421
25605SOL    HW278590   7.474   2.412   4.544
25606SOL     OW78591   9.018  11.456   1.951
25606SOL    HW178592   9.054  11.369   1.967
25606SOL    HW278593   9.010  11.495   2.038
25607SOL     OW78594  13.592   3.195  11.444
25607SOL    HW178595  13.556   3.106  11.448
25607SOL    HW278596  13.583   3.221  11.353
25608SOL     OW78597  12.522  14.132  10.763
25608SOL    HW178598  12.431  14.117  10.788
25608SOL    HW278599  12.528  14.099  10.673
25609SOL     OW78600  14.005   5.911   9.535
25609SOL    HW178601  14.069   5.966   9.489
25609SOL    HW278602  13.981   5.962   9.612
25610SOL     OW78603   2.737   5.081  11.663
25610SOL    HW178604   2.683   5.115  11.592
25610SOL    HW278605   2.734   4.986  11.652
25611SOL     OW78606  10.203   0.635  13.869
25611SOL    HW178607  10.197   0.553  13.822
25611SOL    HW278608  10.280   0.679  13.831
25612SOL     OW78609   3.068  11.538   8.865
25612SOL    HW178610   2.977  11.513   8.846
25612SOL    HW278611   3.080  11.621   8.818
25613SOL     OW78612  12.805   3.228  11.974
25613SOL    HW178613  12.807   3.141  11.935
25613SOL    HW278614  12.716   3.236  12.009
25614SOL     OW78615   6.867   5.057  14.375
25614SOL    HW178616   6.841   5.138  14.331
25614SOL    HW278617   6.793   4.998  14.363
25615SOL     OW78618   0.478   0.921   8.290
25615SOL    HW178619   0.518   0.935   8.204
25615SOL    HW278620   0.391   0.887   8.271
25616SOL     OW78621   8.282   3.537   8.751
25616SOL    HW178622   8.295   3.469   8.685
25616SOL    HW278623   8.311   3.617   8.708
25617SOL     OW78624   4.418  13.752   7.705
25617SOL    HW178625   4.455  13.770   7.791
25617SOL    HW278626   4.345  13.814   7.697
25618SOL     OW78627  14.376   0.462   0.545
25618SOL    HW178628  14.453   0.451   0.600
25618SOL    HW278629  14.324   0.383   0.560
25619SOL     OW78630   3.500   4.539   8.915
25619SOL    HW178631   3.470   4.452   8.891
25619SOL    HW278632   3.468   4.596   8.845
25620SOL     OW78633  11.492  11.792   4.070
25620SOL    HW178634  11.452  11.819   4.153
25620SOL    HW278635  11.515  11.700   4.083
25621SOL     OW78636  12.162  12.324   3.026
25621SOL    HW178637  12.144  12.238   3.065
25621SOL    HW278638  12.140  12.313   2.933
25622SOL     OW78639   2.319   3.993   1.700
25622SOL    HW178640   2.319   3.933   1.775
25622SOL    HW278641   2.408   3.989   1.666
25623SOL     OW78642   0.274   0.060   5.188
25623SOL    HW178643   0.258   0.108   5.269
25623SOL    HW278644   0.279   0.128   5.121
25624SOL     OW78645   5.412   7.162   5.656
25624SOL    HW178646   5.387   7.075   5.625
25624SOL    HW278647   5.503   7.172   5.629
25625SOL     OW78648   2.635   4.216  12.602
25625SOL    HW178649   2.670   4.291  12.650
25625SOL    HW278650   2.712   4.170  12.569
25626SOL     OW78651   5.614   6.453   0.038
25626SOL    HW178652   5.689   6.511   0.053
25626SOL    HW278653   5.577   6.439   0.125
25627SOL     OW78654   8.379   4.536   2.614
25627SOL    HW178655   8.366   4.631   2.608
25627SOL    HW278656   8.474   4.525   2.624
25628SOL     OW78657   0.132   6.109   4.372
25628SOL    HW178658   0.201   6.097   4.306
25628SOL    HW278659   0.091   6.023   4.381
25629SOL     OW78660  11.075   4.294  12.744
25629SOL    HW178661  11.155   4.279  12.796
25629SOL    HW278662  11.046   4.206  12.719
25630SOL     OW78663   9.101   4.659  13.071
25630SOL    HW178664   9.116   4.656  13.166
25630SOL    HW278665   9.036   4.589  13.056
25631SOL     OW78666  13.851   1.924   0.171
25631SOL    HW178667  13.888   2.009   0.149
25631SOL    HW278668  13.890   1.864   0.107
25632SOL     OW78669   8.268  10.166   6.233
25632SOL    HW178670   8.337  10.225   6.266
25632SOL    HW278671   8.192  10.223   6.222
25633SOL     OW78672   3.533  11.045   4.050
25633SOL    HW178673   3.587  11.043   4.129
25633SOL    HW278674   3.445  11.067   4.083
25634SOL     OW78675  13.632   8.940  13.283
25634SOL    HW178676  13.706   8.880  13.277
25634SOL    HW278677  13.621   8.975  13.194
25635SOL     OW78678  10.783   4.393  10.221
25635SOL    HW178679  10.863   4.432  10.256
25635SOL    HW278680  10.814   4.333  10.153
25636SOL     OW78681   6.018   4.750   6.539
25636SOL    HW178682   6.091   4.697   6.507
25636SOL    HW278683   6.060   4.820   6.590
25637SOL     OW78684  10.458   7.400  14.347
25637SOL    HW178685  10.414   7.442  14.273
25637SOL    HW278686  10.415   7.315  14.354
25638SOL     OW78687   5.160   5.804   8.240
25638SOL    HW178688   5.249   5.840   8.241
25638SOL    HW278689   5.153   5.754   8.321
25639SOL     OW78690   1.110   6.596  13.581
25639SOL    HW178691   1.115   6.510  13.622
25639SOL    HW278692   1.202   6.622  13.568
25640SOL     OW78693  10.762  14.556   3.182
25640SOL    HW178694  10.718  14.598   3.109
25640SOL    HW278695  10.845  14.524   3.145
25641SOL     OW78696   7.408   4.873  11.866
25641SOL    HW178697   7.495   4.854  11.900
25641SOL    HW278698   7.351   4.869  11.943
25642SOL     OW78699   8.380   6.873   1.120
25642SOL    HW178700   8.410   6.784   1.137
25642SOL    HW278701   8.285   6.869   1.136
25643SOL     OW78702   4.058   0.469  14.474
25643SOL    HW178703   4.059   0.380  14.440
25643SOL    HW278704   4.111   0.465  14.554
25644SOL     OW78705  10.611   2.069   6.704
25644SOL    HW178706  10.653   2.091   6.787
25644SOL    HW278707  10.663   2.115   6.638
25645SOL     OW78708   3.197   4.599  10.502
25645SOL    HW178709   3.238   4.619  10.418
25645SOL    HW278710   3.106   4.624  10.491
25646SOL     OW78711   0.181  12.666   6.982
25646SOL    HW178712   0.270  12.633   6.975
25646SOL    HW278713   0.140  12.610   7.048
25647SOL     OW78714   7.221  13.272  12.139
25647SOL    HW178715   7.180  13.234  12.061
25647SOL    HW278716   7.216  13.203  12.205
25648SOL     OW78717  13.572  10.251   5.744
25648SOL    HW178718  13.512  10.212   5.681
25648SOL    HW278719  13.659  10.241   5.705
25649SOL     OW78720   0.745   1.598   8.153
25649SOL    HW178721   0.829   1.579   8.111
25649SOL    HW278722   0.687   1.620   8.080
25650SOL     OW78723  10.459  10.435   5.943
25650SOL    HW178724  10.398  10.383   5.891
25650SOL    HW278725  10.544  10.422   5.902
25651SOL     OW78726   7.713   4.088   2.236
25651SOL    HW178727   7.725   4.181   2.216
25651SOL    HW278728   7.670   4.052   2.159
25652SOL     OW78729   8.099   2.775   6.579
25652SOL    HW178730   8.126   2.835   6.510
25652SOL    HW278731   8.016   2.810   6.611
25653SOL     OW78732   9.421   5.953   6.852
25653SOL    HW178733   9.387   5.898   6.781
25653SOL    HW278734   9.402   6.042   6.824
25654SOL     OW78735   8.956   7.766   9.632
25654SOL    HW178736   8.950   7.719   9.549
25654SOL    HW278737   9.038   7.815   9.626
25655SOL     OW78738   3.035   3.929   9.974
25655SOL    HW178739   2.950   3.950   9.935
25655SOL    HW278740   3.014   3.876  10.051
25656SOL     OW78741   1.934  12.402   9.442
25656SOL    HW178742   1.946  12.440   9.355
25656SOL    HW278743   1.969  12.314   9.435
25657SOL     OW78744   4.069   8.401   2.904
25657SOL    HW178745   4.010   8.326   2.905
25657SOL    HW278746   4.081   8.422   2.812
25658SOL     OW78747   7.596   2.812  10.492
25658SOL    HW178748   7.579   2.753  10.566
25658SOL    HW278749   7.640   2.757  10.427
25659SOL     OW78750   6.258   0.537   9.632
25659SOL    HW178751   6.252   0.609   9.694
25659SOL    HW278752   6.347   0.504   9.640
25660SOL     OW78753   1.477   8.617   9.839
25660SOL    HW178754   1.487   8.703   9.880
25660SOL    HW278755   1.408   8.575   9.890
25661SOL     OW78756  11.416   8.240   3.708
25661SOL    HW178757  11.501   8.199   3.697
25661SOL    HW278758  11.380   8.246   3.620
25662SOL     OW78759  10.839   8.456   2.857
25662SOL    HW178760  10.838   8.384   2.793
25662SOL    HW278761  10.746   8.474   2.874
25663SOL     OW78762  10.916   1.933  12.756
25663SOL    HW178763  10.931   1.894  12.842
25663SOL    HW278764  10.822   1.925  12.741
25664SOL     OW78765   1.237   3.197   4.245
25664SOL    HW178766   1.261   3.286   4.222
25664SOL    HW278767   1.290   3.142   4.188
25665SOL     OW78768  14.663   2.003   9.256
25665SOL    HW178769  14.583   1.951   9.246
25665SOL    HW278770  14.699   2.008   9.168
25666SOL     OW78771   6.160  14.719   2.543
25666SOL    HW178772   6.194  14.630   2.544
25666SOL    HW278773   6.065  14.709   2.540
25667SOL     OW78774  11.211  10.597   8.866
25667SOL    HW178775  11.192  10.566   8.955
25667SOL    HW278776  11.251  10.683   8.878
25668SOL     OW78777   7.063  10.044   2.059
25668SOL    HW178778   7.065  10.136   2.083
25668SOL    HW278779   7.053  10.044   1.964
25669SOL     OW78780  14.079   9.425   7.453
25669SOL    HW178781  14.172   9.445   7.456
25669SOL    HW278782  14.074   9.333   7.430
25670SOL     OW78783   0.605   2.483   1.067
25670SOL    HW178784   0.520   2.469   1.025
25670SOL    HW278785   0.593   2.450   1.156
25671SOL     OW78786   3.542  10.393   2.382
25671SOL    HW178787   3.565  10.471   2.432
25671SOL    HW278788   3.626  10.347   2.369
25672SOL     OW78789   3.751  10.341   9.459
25672SOL    HW178790   3.752  10.399   9.383
25672SOL    HW278791   3.795  10.261   9.429
25673SOL     OW78792   0.142   0.290  12.565
25673SOL    HW178793   0.146   0.284  12.660
25673SOL    HW278794   0.050   0.311  12.547
25674SOL     OW78795   5.634  11.509   6.079
25674SOL    HW178796   5.622  11.601   6.103
25674SOL    HW278797   5.711  11.509   6.021
25675SOL     OW78798   7.256   7.085   3.589
25675SOL    HW178799   7.218   7.029   3.521
25675SOL    HW278800   7.325   7.032   3.629
25676SOL     OW78801   5.083   2.392  13.777
25676SOL    HW178802   5.046   2.357  13.696
25676SOL    HW278803   5.159   2.337  13.795
25677SOL     OW78804   8.424   2.320   2.423
25677SOL    HW178805   8.508   2.288   2.391
25677SOL    HW278806   8.366   2.316   2.347
25678SOL     OW78807   4.496   2.700   8.841
25678SOL    HW178808   4.457   2.613   8.851
25678SOL    HW278809   4.543   2.715   8.923
25679SOL     OW78810   2.893   1.133   6.251
25679SOL    HW178811   2.828   1.064   6.263
25679SOL    HW278812   2.974   1.095   6.284
25680SOL     OW78813  13.609   8.002  10.980
25680SOL    HW178814  13.650   7.982  11.064
25680SOL    HW278815  13.516   7.987  10.995
25681SOL     OW78816   7.956  10.963  12.119
25681SOL    HW178817   8.046  10.931  12.122
25681SOL    HW278818   7.911  10.915  12.189
25682SOL     OW78819  13.465  12.271  13.965
25682SOL    HW178820  13.524  12.335  14.004
25682SOL    HW278821  13.443  12.211  14.036
25683SOL     OW78822   0.330   9.492   3.533
25683SOL    HW178823   0.389   9.546   3.586
25683SOL    HW278824   0.370   9.492   3.446
25684SOL     OW78825  10.729   9.156  11.206
25684SOL    HW178826  10.739   9.219  11.278
25684SOL    HW278827  10.818   9.139  11.176
25685SOL     OW78828  13.412  14.826   3.924
25685SOL    HW178829  13.469  14.830   3.848
25685SOL    HW278830  13.441   0.021   3.980
25686SOL     OW78831  13.299   2.774   6.878
25686SOL    HW178832  13.296   2.826   6.798
25686SOL    HW278833  13.283   2.838   6.948
25687SOL     OW78834  11.975  12.940   8.160
25687SOL    HW178835  11.955  13.034   8.165
25687SOL    HW278836  11.960  12.907   8.249
25688SOL     OW78837  13.774  11.490   1.466
25688SOL    HW178838  13.808  11.558   1.408
25688SOL    HW278839  13.684  11.515   1.483
25689SOL     OW78840   1.735   0.281  11.810
25689SOL    HW178841   1.746   0.238  11.895
25689SOL    HW278842   1.803   0.348  11.808
25690SOL     OW78843   7.900   2.470   4.772
25690SOL    HW178844   7.815   2.431   4.795
25690SOL    HW278845   7.944   2.483   4.855
25691SOL     OW78846  12.122   7.842   4.377
25691SOL    HW178847  12.139   7.908   4.444
25691SOL    HW278848  12.062   7.780   4.419
25692SOL     OW78849   1.451   8.827   6.212
25692SOL    HW178850   1.537   8.804   6.246
25692SOL    HW278851   1.398   8.749   6.225
25693SOL     OW78852  13.344   6.621   7.007
25693SOL    HW178853  13.351   6.530   7.033
25693SOL    HW278854  13.320   6.618   6.914
25694SOL     OW78855   7.582   0.647   8.510
25694SOL    HW178856   7.634   0.687   8.440
25694SOL    HW278857   7.583   0.553   8.490
25695SOL     OW78858   1.211   1.107   7.794
25695SOL    HW178859   1.283   1.056   7.758
25695SOL    HW278860   1.197   1.070   7.881
25696SOL     OW78861   8.008   9.139  13.197
25696SOL    HW178862   7.972   9.198  13.263
25696SOL    HW278863   7.978   9.052  13.223
25697SOL     OW78864  12.401   1.617  12.075
25697SOL    HW178865  12.438   1.679  12.012
25697SOL    HW278866  12.467   1.611  12.144
25698SOL     OW78867  10.664   8.451  12.717
25698SOL    HW178868  10.590   8.407  12.674
25698SOL    HW278869  10.703   8.505  12.648
25699SOL     OW78870   5.582  10.059   4.078
25699SOL    HW178871   5.555  10.151   4.077
25699SOL    HW278872   5.536  10.021   4.153
25700SOL     OW78873  14.409   3.480   5.154
25700SOL    HW178874  14.317   3.456   5.153
25700SOL    HW278875  14.422   3.527   5.236
25701SOL     OW78876   3.612  14.511   0.887
25701SOL    HW178877   3.528  14.556   0.882
25701SOL    HW278878   3.593  14.422   0.858
25702SOL     OW78879   4.136   7.924  13.837
25702SOL    HW178880   4.199   7.970  13.782
25702SOL    HW278881   4.183   7.845  13.865
25703SOL     OW78882   3.989   7.915   7.031
25703SOL    HW178883   3.917   7.889   7.088
25703SOL    HW278884   4.023   7.833   6.996
25704SOL     OW78885   2.896   4.495   5.349
25704SOL    HW178886   2.858   4.525   5.267
25704SOL    HW278887   2.857   4.551   5.416
25705SOL     OW78888   3.184  13.310  10.010
25705SOL    HW178889   3.251  13.272  10.066
25705SOL    HW278890   3.131  13.364  10.069
25706SOL     OW78891  14.338   9.406   9.488
25706SOL    HW178892  14.331   9.319   9.447
25706SOL    HW278893  14.358   9.388   9.580
25707SOL     OW78894   8.765  10.810   6.756
25707SOL    HW178895   8.775  10.777   6.667
25707SOL    HW278896   8.671  10.821   6.767
25708SOL     OW78897   6.542   8.804  14.293
25708SOL    HW178898   6.460   8.755  14.301
25708SOL    HW278899   6.610   8.737  14.302
25709SOL     OW78900   6.516   1.785   9.396
25709SOL    HW178901   6.545   1.839   9.470
25709SOL    HW278902   6.474   1.847   9.336
25710SOL     OW78903   3.709   6.655   6.584
25710SOL    HW178904   3.691   6.633   6.676
25710SOL    HW278905   3.656   6.733   6.568
25711SOL     OW78906  11.784   5.538   3.824
25711SOL    HW178907  11.727   5.600   3.780
25711SOL    HW278908  11.868   5.546   3.780
25712SOL     OW78909  11.315   3.110   9.547
25712SOL    HW178910  11.358   3.133   9.629
25712SOL    HW278911  11.384   3.118   9.481
25713SOL     OW78912  10.507   8.150  13.640
25713SOL    HW178913  10.498   8.176  13.548
25713SOL    HW278914  10.562   8.071  13.637
25714SOL     OW78915   3.598   4.701   3.719
25714SOL    HW178916   3.658   4.764   3.680
25714SOL    HW278917   3.617   4.618   3.675
25715SOL     OW78918   1.600   1.182   7.277
25715SOL    HW178919   1.645   1.264   7.297
25715SOL    HW278920   1.670   1.122   7.251
25716SOL     OW78921   5.238  13.030   0.424
25716SOL    HW178922   5.314  12.974   0.407
25716SOL    HW278923   5.265  13.085   0.497
25717SOL     OW78924   0.821   3.196  11.867
25717SOL    HW178925   0.807   3.195  11.961
25717SOL    HW278926   0.761   3.129  11.833
25718SOL     OW78927   4.931   0.833  11.709
25718SOL    HW178928   4.874   0.807  11.781
25718SOL    HW278929   4.946   0.927  11.723
25719SOL     OW78930   3.869   3.836   3.756
25719SOL    HW178931   3.924   3.757   3.765
25719SOL    HW278932   3.791   3.805   3.711
25720SOL     OW78933   1.268   1.161  13.045
25720SOL    HW178934   1.302   1.182  12.958
25720SOL    HW278935   1.278   1.242  13.095
25721SOL     OW78936   7.465   5.237  13.510
25721SOL    HW178937   7.560   5.234  13.525
25721SOL    HW278938   7.446   5.330  13.496
25722SOL     OW78939  13.860   2.543   6.491
25722SOL    HW178940  13.902   2.525   6.407
25722SOL    HW278941  13.790   2.478   6.497
25723SOL     OW78942   3.708  11.186   7.314
25723SOL    HW178943   3.667  11.267   7.345
25723SOL    HW278944   3.801  11.198   7.332
25724SOL     OW78945   5.099   5.964  13.280
25724SOL    HW178946   5.109   5.870  13.265
25724SOL    HW278947   5.176   6.003  13.240
25725SOL     OW78948   2.379   1.426  10.089
25725SOL    HW178949   2.451   1.370  10.058
25725SOL    HW278950   2.301   1.390  10.047
25726SOL     OW78951   8.226   4.127   4.202
25726SOL    HW178952   8.262   4.038   4.203
25726SOL    HW278953   8.135   4.116   4.229
25727SOL     OW78954   7.511   2.642   0.605
25727SOL    HW178955   7.525   2.674   0.694
25727SOL    HW278956   7.599   2.621   0.572
25728SOL     OW78957  13.402  10.625  11.372
25728SOL    HW178958  13.378  10.644  11.281
25728SOL    HW278959  13.396  10.709  11.417
25729SOL     OW78960   3.721   1.142   4.108
25729SOL    HW178961   3.815   1.155   4.120
25729SOL    HW278962   3.681   1.224   4.135
25730SOL     OW78963   5.231   6.794   8.055
25730SOL    HW178964   5.196   6.850   7.986
25730SOL    HW278965   5.280   6.726   8.009
25731SOL     OW78966  13.691   3.874  11.434
25731SOL    HW178967  13.604   3.845  11.410
25731SOL    HW278968  13.722   3.809  11.497
25732SOL     OW78969   8.855  10.963   6.107
25732SOL    HW178970   8.944  10.984   6.137
25732SOL    HW278971   8.869  10.906   6.031
25733SOL     OW78972  10.595   4.461   3.089
25733SOL    HW178973  10.550   4.391   3.041
25733SOL    HW278974  10.660   4.494   3.027
25734SOL     OW78975   8.800  12.346   4.613
25734SOL    HW178976   8.849  12.266   4.634
25734SOL    HW278977   8.843  12.382   4.536
25735SOL     OW78978  11.909  10.847   1.703
25735SOL    HW178979  11.882  10.761   1.669
25735SOL    HW278980  11.885  10.908   1.634
25736SOL     OW78981   2.756   8.657   5.087
25736SOL    HW178982   2.847   8.637   5.067
25736SOL    HW278983   2.709   8.577   5.065
25737SOL     OW78984   2.592  10.180   6.966
25737SOL    HW178985   2.507  10.146   6.993
25737SOL    HW278986   2.571  10.254   6.909
25738SOL     OW78987   3.815   0.487  13.705
25738SOL    HW178988   3.840   0.435  13.781
25738SOL    HW278989   3.885   0.551  13.696
25739SOL     OW78990   9.181   7.696  13.519
25739SOL    HW178991   9.148   7.621  13.568
25739SOL    HW278992   9.220   7.753  13.585
25740SOL     OW78993   3.093   9.291   1.193
25740SOL    HW178994   3.150   9.306   1.268
25740SOL    HW278995   3.045   9.211   1.215
25741SOL     OW78996  12.297   5.289   9.663
25741SOL    HW178997  12.302   5.224   9.592
25741SOL    HW278998  12.275   5.237   9.741
25742SOL     OW78999   9.713   3.138  10.290
25742SOL    HW179000   9.744   3.210  10.235
25742SOL    HW279001   9.669   3.180  10.363
25743SOL     OW79002   9.374  11.255   6.202
25743SOL    HW179003   9.310  11.266   6.132
25743SOL    HW279004   9.361  11.165   6.233
25744SOL     OW79005   4.442  14.345   9.795
25744SOL    HW179006   4.484  14.382   9.717
25744SOL    HW279007   4.440  14.417   9.857
25745SOL     OW79008   0.064   6.489   1.666
25745SOL    HW179009  14.875   6.535   1.718
25745SOL    HW279010   0.146   6.533   1.689
25746SOL     OW79011   2.282   1.739  14.148
25746SOL    HW179012   2.324   1.654  14.163
25746SOL    HW279013   2.209   1.740  14.210
25747SOL     OW79014   9.989  11.829   7.932
25747SOL    HW179015  10.083  11.812   7.936
25747SOL    HW279016   9.949  11.743   7.943
25748SOL     OW79017   2.477   3.515   4.542
25748SOL    HW179018   2.395   3.474   4.572
25748SOL    HW279019   2.449   3.594   4.498
25749SOL     OW79020  10.425   1.327   6.584
25749SOL    HW179021  10.424   1.268   6.660
25749SOL    HW279022  10.411   1.270   6.509
25750SOL     OW79023   2.308   5.912   3.780
25750SOL    HW179024   2.224   5.895   3.739
25750SOL    HW279025   2.286   5.959   3.861
25751SOL     OW79026  13.207  12.553   6.858
25751SOL    HW179027  13.174  12.521   6.942
25751SOL    HW279028  13.132  12.547   6.799
25752SOL     OW79029   2.412   1.547   0.991
25752SOL    HW179030   2.330   1.585   1.022
25752SOL    HW279031   2.431   1.475   1.052
25753SOL     OW79032   8.773   6.800   0.958
25753SOL    HW179033   8.860   6.762   0.972
25753SOL    HW279034   8.757   6.853   1.036
25754SOL     OW79035   3.900   9.023   2.895
25754SOL    HW179036   3.952   9.096   2.861
25754SOL    HW279037   3.812   9.039   2.861
25755SOL     OW79038   9.290   5.552  10.109
25755SOL    HW179039   9.375   5.577  10.073
25755SOL    HW279040   9.227   5.607  10.063
25756SOL     OW79041   4.193   1.341   1.311
25756SOL    HW179042   4.254   1.298   1.252
25756SOL    HW279043   4.156   1.270   1.363
25757SOL     OW79044  10.982   8.923   7.907
25757SOL    HW179045  10.894   8.933   7.942
25757SOL    HW279046  11.038   8.913   7.984
25758SOL     OW79047   6.730  11.856  14.574
25758SOL    HW179048   6.696  11.853  14.484
25758SOL    HW279049   6.752  11.765  14.594
25759SOL     OW79050   0.975   6.716   0.017
25759SOL    HW179051   0.893   6.747   0.056
25759SOL    HW279052   0.985   6.627   0.050
25760SOL     OW79053  10.777  11.819  11.849
25760SOL    HW179054  10.784  11.792  11.758
25760SOL    HW279055  10.829  11.899  11.855
25761SOL     OW79056   8.046  12.364  12.114
25761SOL    HW179057   8.115  12.425  12.139
25761SOL    HW279058   8.034  12.378  12.020
25762SOL     OW79059   3.690   6.192   7.809
25762SOL    HW179060   3.608   6.230   7.840
25762SOL    HW279061   3.676   6.179   7.715
25763SOL     OW79062   6.524   8.203   5.040
25763SOL    HW179063   6.503   8.284   5.087
25763SOL    HW279064   6.480   8.135   5.090
25764SOL     OW79065   9.983  12.147   3.881
25764SOL    HW179066  10.006  12.136   3.788
25764SOL    HW279067   9.896  12.109   3.888
25765SOL     OW79068   4.000  11.009  14.555
25765SOL    HW179069   4.086  10.976  14.581
25765SOL    HW279070   4.014  11.102  14.538
25766SOL     OW79071   0.916   9.356   1.929
25766SOL    HW179072   0.827   9.390   1.930
25766SOL    HW279073   0.909   9.267   1.963
25767SOL     OW79074   9.877  13.368   3.495
25767SOL    HW179075   9.851  13.369   3.403
25767SOL    HW279076   9.941  13.438   3.504
25768SOL     OW79077   0.195   2.960   0.156
25768SOL    HW179078   0.245   3.002   0.226
25768SOL    HW279079   0.232   2.996   0.075
25769SOL     OW79080   5.302   6.050   5.972
25769SOL    HW179081   5.337   6.087   5.891
25769SOL    HW279082   5.210   6.031   5.952
25770SOL     OW79083  11.077   9.209   3.847
25770SOL    HW179084  11.085   9.146   3.776
25770SOL    HW279085  11.089   9.156   3.927
25771SOL     OW79086   9.005   9.684   6.232
25771SOL    HW179087   8.927   9.735   6.254
25771SOL    HW279088   9.040   9.726   6.154
25772SOL     OW79089   6.546   2.808   8.797
25772SOL    HW179090   6.607   2.881   8.791
25772SOL    HW279091   6.590   2.737   8.750
25773SOL     OW79092  13.618   9.602  12.867
25773SOL    HW179093  13.629   9.693  12.895
25773SOL    HW279094  13.576   9.608  12.781
25774SOL     OW79095   6.059  11.925   4.460
25774SOL    HW179096   6.041  11.856   4.396
25774SOL    HW279097   6.096  11.996   4.408
25775SOL     OW79098   5.274  14.005  10.394
25775SOL    HW179099   5.186  14.042  10.391
25775SOL    HW279100   5.328  14.074  10.432
25776SOL     OW79101  12.354  12.986  14.081
25776SOL    HW179102  12.420  13.017  14.019
25776SOL    HW279103  12.344  12.893  14.062
25777SOL     OW79104   0.333  14.150   4.354
25777SOL    HW179105   0.248  14.193   4.345
25777SOL    HW279106   0.393  14.219   4.383
25778SOL     OW79107   1.853   3.227   1.469
25778SOL    HW179108   1.901   3.301   1.505
25778SOL    HW279109   1.810   3.262   1.391
25779SOL     OW79110   7.567  13.621   4.003
25779SOL    HW179111   7.649  13.670   4.005
25779SOL    HW279112   7.593  13.531   3.987
25780SOL     OW79113  12.329   4.425   9.486
25780SOL    HW179114  12.382   4.357   9.445
25780SOL    HW279115  12.239   4.403   9.460
25781SOL     OW79116  14.450  12.120  10.613
25781SOL    HW179117  14.545  12.124  10.625
25781SOL    HW279118  14.431  12.027  10.606
25782SOL     OW79119  10.797  13.823   4.734
25782SOL    HW179120  10.793  13.895   4.671
25782SOL    HW279121  10.886  13.788   4.725
25783SOL     OW79122  13.904  12.451  12.905
25783SOL    HW179123  13.989  12.464  12.863
25783SOL    HW279124  13.842  12.442  12.832
25784SOL     OW79125  12.616  10.594   9.835
25784SOL    HW179126  12.547  10.554   9.782
25784SOL    HW279127  12.608  10.551   9.921
25785SOL     OW79128   0.459  12.553   6.654
25785SOL    HW179129   0.423  12.554   6.743
25785SOL    HW279130   0.522  12.625   6.653
25786SOL     OW79131  10.327   3.806  14.098
25786SOL    HW179132  10.347   3.842  14.012
25786SOL    HW279133  10.259   3.864  14.133
25787SOL     OW79134   4.730   2.028   7.906
25787SOL    HW179135   4.793   2.076   7.961
25787SOL    HW279136   4.644   2.053   7.940
25788SOL     OW79137  10.321  11.390  14.697
25788SOL    HW179138  10.284  11.462  14.746
25788SOL    HW279139  10.372  11.432  14.628
25789SOL     OW79140  11.515  11.770  11.275
25789SOL    HW179141  11.545  11.744  11.363
25789SOL    HW279142  11.428  11.733  11.267
25790SOL     OW79143  12.801  10.483  10.904
25790SOL    HW179144  12.881  10.517  10.944
25790SOL    HW279145  12.829  10.452  10.818
25791SOL     OW79146  13.214  10.929   5.892
25791SOL    HW179147  13.302  10.934   5.929
25791SOL    HW279148  13.170  10.860   5.942
25792SOL     OW79149   6.966   3.243  10.526
25792SOL    HW179150   6.962   3.291  10.609
25792SOL    HW279151   7.010   3.303  10.466
25793SOL     OW79152   9.435  12.346   4.253
25793SOL    HW179153   9.366  12.285   4.229
25793SOL    HW279154   9.437  12.411   4.182
25794SOL     OW79155   2.505   7.353  10.683
25794SOL    HW179156   2.477   7.272  10.640
25794SOL    HW279157   2.460   7.423  10.634
25795SOL     OW79158  11.005   5.646  10.511
25795SOL    HW179159  11.011   5.694  10.428
25795SOL    HW279160  11.092   5.609  10.525
25796SOL     OW79161  11.671   9.992   0.194
25796SOL    HW179162  11.606   9.980   0.124
25796SOL    HW279163  11.668  10.085   0.214
25797SOL     OW79164  14.154   2.924   5.383
25797SOL    HW179165  14.084   2.937   5.319
25797SOL    HW279166  14.139   2.991   5.450
25798SOL     OW79167   8.158   6.963  14.137
25798SOL    HW179168   8.127   7.028  14.201
25798SOL    HW279169   8.253   6.974  14.137
25799SOL     OW79170   5.480  11.072   4.297
25799SOL    HW179171   5.430  11.070   4.379
25799SOL    HW279172   5.503  10.981   4.280
25800SOL     OW79173   1.638  10.549   1.416
25800SOL    HW179174   1.649  10.637   1.381
25800SOL    HW279175   1.602  10.499   1.343
25801SOL     OW79176  13.272   0.376   8.533
25801SOL    HW179177  13.334   0.333   8.593
25801SOL    HW279178  13.199   0.315   8.527
25802SOL     OW79179  14.877   3.685   8.699
25802SOL    HW179180  14.795   3.725   8.670
25802SOL    HW279181  14.851   3.602   8.739
25803SOL     OW79182   2.846   2.738  13.509
25803SOL    HW179183   2.900   2.709  13.436
25803SOL    HW279184   2.887   2.700  13.586
25804SOL     OW79185   3.094   7.198  11.741
25804SOL    HW179186   3.026   7.138  11.711
25804SOL    HW279187   3.140   7.149  11.809
25805SOL     OW79188  14.716   4.939   4.429
25805SOL    HW179189  14.708   4.855   4.385
25805SOL    HW279190  14.707   4.918   4.522
25806SOL     OW79191   7.505   8.263   1.244
25806SOL    HW179192   7.493   8.353   1.215
25806SOL    HW279193   7.597   8.258   1.269
25807SOL     OW79194   3.351  12.203   2.752
25807SOL    HW179195   3.400  12.247   2.683
25807SOL    HW279196   3.310  12.129   2.708
25808SOL     OW79197   3.848   4.254   4.267
25808SOL    HW179198   3.849   4.324   4.202
25808SOL    HW279199   3.772   4.273   4.322
25809SOL     OW79200   0.612   6.482   9.444
25809SOL    HW179201   0.596   6.450   9.533
25809SOL    HW279202   0.694   6.440   9.418
25810SOL     OW79203   5.074  11.751  12.944
25810SOL    HW179204   5.061  11.659  12.966
25810SOL    HW279205   4.998  11.796  12.980
25811SOL     OW79206   0.356  11.827   2.812
25811SOL    HW179207   0.418  11.797   2.745
25811SOL    HW279208   0.288  11.874   2.762
25812SOL     OW79209   8.324   8.562  14.162
25812SOL    HW179210   8.237   8.584  14.129
25812SOL    HW279211   8.317   8.573  14.256
25813SOL     OW79212  14.631   6.547  12.720
25813SOL    HW179213  14.607   6.471  12.667
25813SOL    HW279214  14.661   6.510  12.803
25814SOL     OW79215   7.715   7.235   1.269
25814SOL    HW179216   7.776   7.181   1.219
25814SOL    HW279217   7.642   7.251   1.209
25815SOL     OW79218  13.693  14.815   0.808
25815SOL    HW179219  13.732   0.024   0.795
25815SOL    HW279220  13.662  14.816   0.899
25816SOL     OW79221   2.094   0.042   6.062
25816SOL    HW179222   2.090   0.013   5.971
25816SOL    HW279223   2.147   0.121   6.059
25817SOL     OW79224   7.385   5.067  11.507
25817SOL    HW179225   7.398   5.137  11.444
25817SOL    HW279226   7.443   5.089  11.580
25818SOL     OW79227   8.556  10.060   2.019
25818SOL    HW179228   8.526  10.115   2.091
25818SOL    HW279229   8.476  10.042   1.968
25819SOL     OW79230   4.979  13.371   8.418
25819SOL    HW179231   5.014  13.286   8.444
25819SOL    HW279232   5.054  13.419   8.384
25820SOL     OW79233   8.683   1.956  12.590
25820SOL    HW179234   8.624   2.007  12.535
25820SOL    HW279235   8.760   1.941  12.535
25821SOL     OW79236  11.972   2.643  14.550
25821SOL    HW179237  11.945   2.657  14.641
25821SOL    HW279238  11.938   2.719  14.503
25822SOL     OW79239   8.139   1.242  13.324
25822SOL    HW179240   8.207   1.292  13.369
25822SOL    HW279241   8.090   1.200  13.395
25823SOL     OW79242   8.759   4.241   2.744
25823SOL    HW179243   8.780   4.194   2.825
25823SOL    HW279244   8.836   4.229   2.688
25824SOL     OW79245  10.466  12.440   7.233
25824SOL    HW179246  10.420  12.472   7.156
25824SOL    HW279247  10.549  12.488   7.234
25825SOL     OW79248  12.837   0.515  12.616
25825SOL    HW179249  12.818   0.599  12.658
25825SOL    HW279250  12.920   0.487  12.654
25826SOL     OW79251   1.368   3.232  12.757
25826SOL    HW179252   1.315   3.300  12.800
25826SOL    HW279253   1.440   3.280  12.717
25827SOL     OW79254  14.272  13.252   2.356
25827SOL    HW179255  14.223  13.298   2.287
25827SOL    HW279256  14.355  13.229   2.314
25828SOL     OW79257   7.679   0.392  12.453
25828SOL    HW179258   7.735   0.432  12.520
25828SOL    HW279259   7.704   0.436  12.372
25829SOL     OW79260   9.457   5.485  12.122
25829SOL    HW179261   9.451   5.452  12.033
25829SOL    HW279262   9.484   5.410  12.174
25830SOL     OW79263   8.575  14.519   4.267
25830SOL    HW179264   8.569  14.603   4.220
25830SOL    HW279265   8.488  14.507   4.305
25831SOL     OW79266  11.430  11.216   4.466
25831SOL    HW179267  11.446  11.165   4.386
25831SOL    HW279268  11.466  11.163   4.537
25832SOL     OW79269  10.998  11.493   5.323
25832SOL    HW179270  11.027  11.403   5.335
25832SOL    HW279271  10.986  11.502   5.228
25833SOL     OW79272  14.305   3.391   6.057
25833SOL    HW179273  14.385   3.338   6.058
25833SOL    HW279274  14.243   3.343   6.111
25834SOL     OW79275   6.153   0.885   2.753
25834SOL    HW179276   6.148   0.850   2.664
25834SOL    HW279277   6.062   0.899   2.779
25835SOL     OW79278  12.651  11.303  14.583
25835SOL    HW179279  12.700  11.293  14.502
25835SOL    HW279280  12.696  11.247  14.646
25836SOL     OW79281   3.274   4.216   4.074
25836SOL    HW179282   3.365   4.217   4.044
25836SOL    HW279283   3.224   4.256   4.002
25837SOL     OW79284   7.275   0.181   3.409
25837SOL    HW179285   7.303   0.243   3.477
25837SOL    HW279286   7.303   0.095   3.442
25838SOL     OW79287   5.640   0.491   2.103
25838SOL    HW179288   5.637   0.547   2.025
25838SOL    HW279289   5.617   0.404   2.070
25839SOL     OW79290  11.377   1.762   8.952
25839SOL    HW179291  11.321   1.748   8.876
25839SOL    HW279292  11.413   1.850   8.940
25840SOL     OW79293  14.796  13.458   1.472
25840SOL    HW179294  14.866  13.483   1.412
25840SOL    HW279295  14.718  13.449   1.416
25841SOL     OW79296  11.158   7.248   8.464
25841SOL    HW179297  11.235   7.301   8.441
25841SOL    HW279298  11.189   7.158   8.463
25842SOL     OW79299   6.799   1.566   8.986
25842SOL    HW179300   6.880   1.532   9.023
25842SOL    HW279301   6.749   1.598   9.061
25843SOL     OW79302  14.727   8.369  10.959
25843SOL    HW179303  14.796   8.347  10.897
25843SOL    HW279304  14.704   8.460  10.938
25844SOL     OW79305  14.065   0.356   3.753
25844SOL    HW179306  14.154   0.384   3.773
25844SOL    HW279307  14.072   0.263   3.735
25845SOL     OW79308  13.167  14.345   8.826
25845SOL    HW179309  13.102  14.320   8.761
25845SOL    HW279310  13.128  14.324   8.910
25846SOL     OW79311   5.984   8.417  11.631
25846SOL    HW179312   6.069   8.401  11.672
25846SOL    HW279313   5.951   8.330  11.609
25847SOL     OW79314   3.213  10.516   6.930
25847SOL    HW179315   3.208  10.593   6.873
25847SOL    HW279316   3.164  10.449   6.882
25848SOL     OW79317   8.603   3.565  12.290
25848SOL    HW179318   8.568   3.629  12.228
25848SOL    HW279319   8.602   3.610  12.374
25849SOL     OW79320   1.029  10.540  12.621
25849SOL    HW179321   1.084  10.607  12.583
25849SOL    HW279322   1.085  10.462  12.626
25850SOL     OW79323   2.999   2.203   0.775
25850SOL    HW179324   2.971   2.173   0.862
25850SOL    HW279325   3.094   2.208   0.781
25851SOL     OW79326  14.102  10.290   9.709
25851SOL    HW179327  14.196  10.280   9.697
25851SOL    HW279328  14.094  10.341   9.789
25852SOL     OW79329   4.852   8.276   4.342
25852SOL    HW179330   4.772   8.261   4.293
25852SOL    HW279331   4.881   8.363   4.317
25853SOL     OW79332   6.593   1.803  12.619
25853SOL    HW179333   6.613   1.710  12.628
25853SOL    HW279334   6.677   1.847  12.629
25854SOL     OW79335   4.743  12.354   7.074
25854SOL    HW179336   4.755  12.286   7.140
25854SOL    HW279337   4.671  12.407   7.107
25855SOL     OW79338  14.194   7.611   8.427
25855SOL    HW179339  14.164   7.701   8.416
25855SOL    HW279340  14.183   7.570   8.341
25856SOL     OW79341   6.422   2.342   5.405
25856SOL    HW179342   6.483   2.316   5.337
25856SOL    HW279343   6.347   2.377   5.358
25857SOL     OW79344   7.319  10.227   0.653
25857SOL    HW179345   7.233  10.230   0.695
25857SOL    HW279346   7.346  10.319   0.647
25858SOL     OW79347  10.785   5.117   5.920
25858SOL    HW179348  10.784   5.212   5.933
25858SOL    HW279349  10.804   5.105   5.827
25859SOL     OW79350  11.079  12.622   0.363
25859SOL    HW179351  11.140  12.633   0.290
25859SOL    HW279352  11.119  12.671   0.435
25860SOL     OW79353  12.441   4.411   0.343
25860SOL    HW179354  12.396   4.330   0.368
25860SOL    HW279355  12.505   4.383   0.277
25861SOL     OW79356  14.453   8.865  10.472
25861SOL    HW179357  14.417   8.881  10.385
25861SOL    HW279358  14.496   8.947  10.496
25862SOL     OW79359   8.670   6.346  10.122
25862SOL    HW179360   8.694   6.422  10.175
25862SOL    HW279361   8.581   6.363  10.094
25863SOL     OW79362   4.122  10.019  11.765
25863SOL    HW179363   4.115   9.930  11.800
25863SOL    HW279364   4.131  10.075  11.842
25864SOL     OW79365   6.825   0.378  13.822
25864SOL    HW179366   6.896   0.392  13.759
25864SOL    HW279367   6.843   0.292  13.860
25865SOL     OW79368   2.436   1.511   8.420
25865SOL    HW179369   2.470   1.477   8.502
25865SOL    HW279370   2.371   1.576   8.446
25866SOL     OW79371  14.666   7.290   8.203
25866SOL    HW179372  14.615   7.344   8.143
25866SOL    HW279373  14.757   7.302   8.175
25867SOL     OW79374   0.955  13.595  12.248
25867SOL    HW179375   1.001  13.678  12.237
25867SOL    HW279376   1.016  13.529  12.213
25868SOL     OW79377   4.574   0.137  10.874
25868SOL    HW179378   4.662   0.170  10.895
25868SOL    HW279379   4.573   0.048  10.911
25869SOL     OW79380   1.505   4.656  10.073
25869SOL    HW179381   1.495   4.574  10.025
25869SOL    HW279382   1.510   4.629  10.165
25870SOL     OW79383   2.559  10.502   3.175
25870SOL    HW179384   2.607  10.510   3.093
25870SOL    HW279385   2.627  10.492   3.242
25871SOL     OW79386  11.235  12.891   1.476
25871SOL    HW179387  11.292  12.968   1.470
25871SOL    HW279388  11.147  12.926   1.458
25872SOL     OW79389  11.056  11.457   8.724
25872SOL    HW179390  10.982  11.422   8.773
25872SOL    HW279391  11.017  11.521   8.664
25873SOL     OW79392   3.554   3.046  11.349
25873SOL    HW179393   3.618   3.090  11.293
25873SOL    HW279394   3.503   3.117  11.387
25874SOL     OW79395   8.538   7.078   9.420
25874SOL    HW179396   8.473   7.097   9.352
25874SOL    HW279397   8.590   7.159   9.426
25875SOL     OW79398  11.948  13.226  10.989
25875SOL    HW179399  11.974  13.214  10.898
25875SOL    HW279400  12.030  13.215  11.039
25876SOL     OW79401   0.811   2.421  12.418
25876SOL    HW179402   0.784   2.403  12.508
25876SOL    HW279403   0.740   2.473  12.381
25877SOL     OW79404  11.098   2.107  11.973
25877SOL    HW179405  11.019   2.052  11.973
25877SOL    HW279406  11.170   2.044  11.969
25878SOL     OW79407   0.255   6.890   8.995
25878SOL    HW179408   0.211   6.871   9.078
25878SOL    HW279409   0.297   6.807   8.971
25879SOL     OW79410  12.153   3.966   0.563
25879SOL    HW179411  12.190   4.055   0.561
25879SOL    HW279412  12.070   3.975   0.610
25880SOL     OW79413  10.727  14.872   2.949
25880SOL    HW179414  10.662  14.806   2.971
25880SOL    HW279415  10.687   0.078   2.975
25881SOL     OW79416   0.674   3.898   8.764
25881SOL    HW179417   0.743   3.947   8.808
25881SOL    HW279418   0.612   3.965   8.734
25882SOL     OW79419   0.345   2.560   3.841
25882SOL    HW179420   0.324   2.471   3.871
25882SOL    HW279421   0.431   2.579   3.881
25883SOL     OW79422  10.864   1.287  13.298
25883SOL    HW179423  10.798   1.300  13.365
25883SOL    HW279424  10.901   1.374  13.283
25884SOL     OW79425  11.072   8.616   2.809
25884SOL    HW179426  10.987   8.572   2.821
25884SOL    HW279427  11.051   8.693   2.754
25885SOL     OW79428   7.867   5.011   3.916
25885SOL    HW179429   7.861   5.106   3.910
25885SOL    HW279430   7.780   4.983   3.945
25886SOL     OW79431   0.689  14.066   2.271
25886SOL    HW179432   0.598  14.073   2.241
25886SOL    HW279433   0.688  13.990   2.330
25887SOL     OW79434   6.684  10.806   9.425
25887SOL    HW179435   6.759  10.771   9.377
25887SOL    HW279436   6.721  10.851   9.500
25888SOL     OW79437   5.597   0.920   7.780
25888SOL    HW179438   5.628   0.839   7.740
25888SOL    HW279439   5.575   0.976   7.705
25889SOL     OW79440   8.256   1.941   9.085
25889SOL    HW179441   8.201   1.865   9.066
25889SOL    HW279442   8.346   1.910   9.071
25890SOL     OW79443  12.596   5.288   1.181
25890SOL    HW179444  12.514   5.312   1.138
25890SOL    HW279445  12.664   5.320   1.121
25891SOL     OW79446   2.718   6.179   2.032
25891SOL    HW179447   2.706   6.230   2.112
25891SOL    HW279448   2.805   6.203   2.000
25892SOL     OW79449   4.793   0.546  10.989
25892SOL    HW179450   4.765   0.596  10.912
25892SOL    HW279451   4.806   0.457  10.956
25893SOL     OW79452  14.344   3.921   0.280
25893SOL    HW179453  14.309   3.904   0.193
25893SOL    HW279454  14.273   3.967   0.326
25894SOL     OW79455   8.152   9.982  11.139
25894SOL    HW179456   8.243   9.996  11.164
25894SOL    HW279457   8.154   9.983  11.043
25895SOL     OW79458   9.312  10.367  11.052
25895SOL    HW179459   9.259  10.308  11.105
25895SOL    HW279460   9.285  10.349  10.962
25896SOL     OW79461  14.779  14.236   7.846
25896SOL    HW179462  14.802  14.244   7.753
25896SOL    HW279463  14.863  14.223   7.891
25897SOL     OW79464   3.611   7.021  10.876
25897SOL    HW179465   3.571   7.107  10.861
25897SOL    HW279466   3.588   6.971  10.797
25898SOL     OW79467   3.556  10.329  13.244
25898SOL    HW179468   3.634  10.325  13.188
25898SOL    HW279469   3.488  10.284  13.193
25899SOL     OW79470   7.158   7.951  11.809
25899SOL    HW179471   7.107   8.031  11.818
25899SOL    HW279472   7.159   7.913  11.897
25900SOL     OW79473  13.106  10.127   3.397
25900SOL    HW179474  13.086  10.110   3.489
25900SOL    HW279475  13.095  10.221   3.387
25901SOL     OW79476  10.782  12.802   6.862
25901SOL    HW179477  10.791  12.756   6.945
25901SOL    HW279478  10.737  12.884   6.884
25902SOL     OW79479  13.173  13.189   8.898
25902SOL    HW179480  13.130  13.104   8.901
25902SOL    HW279481  13.267  13.168   8.899
25903SOL     OW79482  14.604  14.370   1.835
25903SOL    HW179483  14.622  14.464   1.825
25903SOL    HW279484  14.653  14.346   1.914
25904SOL     OW79485   7.676   4.260  14.518
25904SOL    HW179486   7.691   4.165  14.520
25904SOL    HW279487   7.694   4.285  14.427
25905SOL     OW79488   7.495  11.475  13.623
25905SOL    HW179489   7.483  11.569  13.636
25905SOL    HW279490   7.406  11.441  13.610
25906SOL     OW79491  10.877  14.447   9.705
25906SOL    HW179492  10.869  14.389   9.629
25906SOL    HW279493  10.792  14.443   9.748
25907SOL     OW79494   3.537   1.365   0.075
25907SOL    HW179495   3.567   1.455   0.063
25907SOL    HW279496   3.460   1.374   0.131
25908SOL     OW79497  12.840   6.136   6.009
25908SOL    HW179498  12.776   6.069   5.987
25908SOL    HW279499  12.901   6.093   6.068
25909SOL     OW79500  13.093   9.252   1.050
25909SOL    HW179501  13.003   9.265   1.081
25909SOL    HW279502  13.144   9.316   1.099
25910SOL     OW79503   9.251   7.957  13.075
25910SOL    HW179504   9.207   8.027  13.027
25910SOL    HW279505   9.239   7.980  13.167
25911SOL     OW79506   0.462   4.699  11.613
25911SOL    HW179507   0.441   4.710  11.706
25911SOL    HW279508   0.391   4.646  11.579
25912SOL     OW79509  10.294   6.758  10.684
25912SOL    HW179510  10.325   6.844  10.657
25912SOL    HW279511  10.214   6.744  10.633
25913SOL     OW79512   9.277   5.578  10.417
25913SOL    HW179513   9.272   5.556  10.324
25913SOL    HW279514   9.370   5.582  10.436
25914SOL     OW79515   0.889   9.156   3.135
25914SOL    HW179516   0.881   9.096   3.210
25914SOL    HW279517   0.970   9.203   3.151
25915SOL     OW79518   9.164   3.819   7.584
25915SOL    HW179519   9.125   3.785   7.503
25915SOL    HW279520   9.247   3.859   7.556
25916SOL     OW79521   6.590   4.566  13.638
25916SOL    HW179522   6.545   4.637  13.593
25916SOL    HW279523   6.615   4.602  13.722
25917SOL     OW79524  10.151  13.059   2.159
25917SOL    HW179525  10.178  13.051   2.067
25917SOL    HW279526  10.127  13.151   2.169
25918SOL     OW79527   3.252   8.065  14.831
25918SOL    HW179528   3.179   8.005  14.847
25918SOL    HW279529   3.310   8.017  14.772
25919SOL     OW79530   2.265   7.742   8.437
25919SOL    HW179531   2.186   7.748   8.382
25919SOL    HW279532   2.269   7.826   8.482
25920SOL     OW79533   8.764   0.578   9.342
25920SOL    HW179534   8.795   0.527   9.416
25920SOL    HW279535   8.702   0.520   9.297
25921SOL     OW79536   0.362   9.983  12.119
25921SOL    HW179537   0.419   9.920  12.162
25921SOL    HW279538   0.320   9.934  12.048
25922SOL     OW79539   0.635   2.394   1.908
25922SOL    HW179540   0.650   2.299   1.916
25922SOL    HW279541   0.541   2.402   1.892
25923SOL     OW79542   2.348   7.456  12.868
25923SOL    HW179543   2.256   7.468  12.895
25923SOL    HW279544   2.352   7.367  12.835
25924SOL     OW79545   8.584   0.964   3.107
25924SOL    HW179546   8.547   0.877   3.091
25924SOL    HW279547   8.531   1.022   3.053
25925SOL     OW79548   1.562  11.333  13.852
25925SOL    HW179549   1.586  11.424  13.868
25925SOL    HW279550   1.644  11.289  13.830
25926SOL     OW79551   7.343   7.213   2.823
25926SOL    HW179552   7.338   7.221   2.919
25926SOL    HW279553   7.435   7.194   2.805
25927SOL     OW79554  12.199  11.504   3.047
25927SOL    HW179555  12.136  11.432   3.037
25927SOL    HW279556  12.268  11.467   3.101
25928SOL     OW79557   3.568   8.875   2.158
25928SOL    HW179558   3.604   8.791   2.129
25928SOL    HW279559   3.538   8.917   2.077
25929SOL     OW79560   4.998   9.773   0.974
25929SOL    HW179561   4.903   9.788   0.972
25929SOL    HW279562   5.008   9.678   0.962
25930SOL     OW79563   2.473  14.726   8.427
25930SOL    HW179564   2.474  14.639   8.468
25930SOL    HW279565   2.518  14.783   8.489
25931SOL     OW79566   0.321   2.742   5.829
25931SOL    HW179567   0.317   2.836   5.809
25931SOL    HW279568   0.299   2.736   5.921
25932SOL     OW79569  12.766   6.219   5.656
25932SOL    HW179570  12.687   6.212   5.602
25932SOL    HW279571  12.836   6.190   5.598
25933SOL     OW79572  12.808   6.003  14.484
25933SOL    HW179573  12.863   5.977  14.558
25933SOL    HW279574  12.870   6.020  14.413
25934SOL     OW79575   0.717   0.842   0.807
25934SOL    HW179576   0.741   0.903   0.738
25934SOL    HW279577   0.636   0.801   0.776
25935SOL     OW79578  10.936   6.234  11.434
25935SOL    HW179579  10.890   6.272  11.359
25935SOL    HW279580  10.875   6.244  11.507
25936SOL     OW79581  12.235   9.862  10.920
25936SOL    HW179582  12.258   9.949  10.952
25936SOL    HW279583  12.257   9.803  10.992
25937SOL     OW79584  12.679   1.760  14.146
25937SOL    HW179585  12.633   1.829  14.192
25937SOL    HW279586  12.702   1.799  14.061
25938SOL     OW79587   0.618   7.505   2.340
25938SOL    HW179588   0.662   7.505   2.255
25938SOL    HW279589   0.660   7.577   2.388
25939SOL     OW79590   7.728  13.710  13.179
25939SOL    HW179591   7.719  13.618  13.153
25939SOL    HW279592   7.822  13.727  13.178
25940SOL     OW79593   2.956  13.640   1.562
25940SOL    HW179594   2.868  13.678   1.552
25940SOL    HW279595   2.988  13.675   1.645
25941SOL     OW79596   0.133  10.045  14.112
25941SOL    HW179597   0.160   9.958  14.142
25941SOL    HW279598   0.137  10.099  14.191
25942SOL     OW79599   8.565  13.138   8.894
25942SOL    HW179600   8.565  13.215   8.952
25942SOL    HW279601   8.499  13.160   8.828
25943SOL     OW79602  10.231   3.978   0.687
25943SOL    HW179603  10.319   3.943   0.671
25943SOL    HW279604  10.172   3.915   0.645
25944SOL     OW79605   1.921   3.357   3.366
25944SOL    HW179606   1.942   3.441   3.324
25944SOL    HW279607   1.962   3.363   3.453
25945SOL     OW79608   5.212   2.465  14.199
25945SOL    HW179609   5.239   2.556  14.212
25945SOL    HW279610   5.230   2.422  14.282
25946SOL     OW79611   8.249   0.155   2.225
25946SOL    HW179612   8.260   0.149   2.130
25946SOL    HW279613   8.166   0.202   2.236
25947SOL     OW79614  13.722   6.318  13.672
25947SOL    HW179615  13.756   6.270  13.747
25947SOL    HW279616  13.631   6.289  13.665
25948SOL     OW79617  13.690  14.231   5.279
25948SOL    HW179618  13.675  14.322   5.302
25948SOL    HW279619  13.624  14.183   5.328
25949SOL     OW79620   1.732   7.001   4.589
25949SOL    HW179621   1.761   7.060   4.520
25949SOL    HW279622   1.798   6.932   4.592
25950SOL     OW79623   7.480  14.625  14.722
25950SOL    HW179624   7.418  14.653  14.789
25950SOL    HW279625   7.565  14.656  14.753
25951SOL     OW79626  14.455  13.480   4.849
25951SOL    HW179627  14.468  13.386   4.843
25951SOL    HW279628  14.390  13.490   4.918
25952SOL     OW79629   2.886   5.629  10.029
25952SOL    HW179630   2.935   5.572  10.088
25952SOL    HW279631   2.936   5.627   9.947
25953SOL     OW79632  10.903  10.680  11.096
25953SOL    HW179633  10.927  10.769  11.072
25953SOL    HW279634  10.878  10.638  11.014
25954SOL     OW79635  12.712   9.202   1.230
25954SOL    HW179636  12.634   9.147   1.235
25954SOL    HW279637  12.780   9.143   1.197
25955SOL     OW79638  11.512   7.697   1.472
25955SOL    HW179639  11.581   7.714   1.536
25955SOL    HW279640  11.557   7.700   1.387
25956SOL     OW79641  12.672   3.713  11.974
25956SOL    HW179642  12.606   3.648  11.950
25956SOL    HW279643  12.751   3.685  11.929
25957SOL     OW79644   7.037   6.905  12.444
25957SOL    HW179645   7.017   6.894  12.351
25957SOL    HW279646   7.009   6.994  12.464
25958SOL     OW79647   4.986   0.183  11.449
25958SOL    HW179648   5.023   0.267  11.476
25958SOL    HW279649   4.931   0.204  11.374
25959SOL     OW79650   8.757  14.406   6.401
25959SOL    HW179651   8.795  14.420   6.315
25959SOL    HW279652   8.691  14.474   6.409
25960SOL     OW79653   2.421   3.749  11.646
25960SOL    HW179654   2.408   3.832  11.692
25960SOL    HW279655   2.365   3.687  11.691
25961SOL     OW79656   8.565  13.423  12.177
25961SOL    HW179657   8.544  13.516  12.171
25961SOL    HW279658   8.660  13.421  12.194
25962SOL     OW79659   9.813  12.849   4.845
25962SOL    HW179660   9.824  12.800   4.927
25962SOL    HW279661   9.894  12.832   4.796
25963SOL     OW79662  10.814   0.409   2.166
25963SOL    HW179663  10.727   0.433   2.135
25963SOL    HW279664  10.862   0.491   2.169
25964SOL     OW79665   5.637  11.339  11.620
25964SOL    HW179666   5.547  11.342  11.652
25964SOL    HW279667   5.660  11.246  11.622
25965SOL     OW79668   1.677  14.474   1.189
25965SOL    HW179669   1.687  14.382   1.211
25965SOL    HW279670   1.755  14.494   1.136
25966SOL     OW79671   7.568  13.275   3.062
25966SOL    HW179672   7.613  13.286   2.978
25966SOL    HW279673   7.545  13.364   3.089
25967SOL     OW79674   6.183   7.885   4.205
25967SOL    HW179675   6.245   7.867   4.135
25967SOL    HW279676   6.141   7.967   4.180
25968SOL     OW79677   4.333   6.745   6.348
25968SOL    HW179678   4.314   6.662   6.393
25968SOL    HW279679   4.409   6.726   6.294
25969SOL     OW79680  12.682  10.564   7.435
25969SOL    HW179681  12.673  10.657   7.456
25969SOL    HW279682  12.697  10.522   7.519
25970SOL     OW79683   8.594   6.213   8.655
25970SOL    HW179684   8.674   6.220   8.707
25970SOL    HW279685   8.570   6.121   8.661
25971SOL     OW79686  12.011  12.239   6.238
25971SOL    HW179687  12.051  12.307   6.183
25971SOL    HW279688  12.029  12.158   6.191
25972SOL     OW79689   0.503   0.095  12.654
25972SOL    HW179690   0.547   0.124  12.734
25972SOL    HW279691   0.478   0.005  12.672
25973SOL     OW79692  11.207   1.045  14.012
25973SOL    HW179693  11.144   1.037  14.085
25973SOL    HW279694  11.168   0.994  13.941
25974SOL     OW79695   9.531  13.499   7.317
25974SOL    HW179696   9.551  13.591   7.333
25974SOL    HW279697   9.616  13.455   7.325
25975SOL     OW79698   0.260   2.464   7.140
25975SOL    HW179699   0.279   2.404   7.212
25975SOL    HW279700   0.314   2.432   7.068
25976SOL     OW79701   3.329  11.592  14.656
25976SOL    HW179702   3.368  11.599  14.568
25976SOL    HW279703   3.366  11.666  14.704
25977SOL     OW79704   7.719   3.292   0.954
25977SOL    HW179705   7.743   3.202   0.975
25977SOL    HW279706   7.673   3.324   1.031
25978SOL     OW79707  14.180   0.294  10.925
25978SOL    HW179708  14.162   0.211  10.880
25978SOL    HW279709  14.274   0.293  10.941
25979SOL     OW79710  12.030   7.503  12.054
25979SOL    HW179711  12.082   7.443  12.001
25979SOL    HW279712  11.952   7.521  12.001
25980SOL     OW79713  13.912   0.283   7.791
25980SOL    HW179714  13.918   0.195   7.827
25980SOL    HW279715  14.003   0.312   7.783
25981SOL     OW79716  12.411   0.604   4.623
25981SOL    HW179717  12.495   0.563   4.644
25981SOL    HW279718  12.356   0.586   4.699
25982SOL     OW79719  14.872   8.745   0.723
25982SOL    HW179720   0.032   8.725   0.809
25982SOL    HW279721   0.032   8.680   0.664
25983SOL     OW79722  10.165   1.368   5.255
25983SOL    HW179723  10.234   1.425   5.290
25983SOL    HW279724  10.162   1.388   5.162
25984SOL     OW79725   4.519   3.616   0.369
25984SOL    HW179726   4.571   3.678   0.420
25984SOL    HW279727   4.498   3.546   0.431
25985SOL     OW79728   8.417   9.881   3.253
25985SOL    HW179729   8.405   9.966   3.294
25985SOL    HW279730   8.426   9.820   3.327
25986SOL     OW79731  10.373   8.284   8.119
25986SOL    HW179732  10.313   8.358   8.133
25986SOL    HW279733  10.428   8.312   8.046
25987SOL     OW79734   7.572   0.992  13.564
25987SOL    HW179735   7.489   1.030  13.535
25987SOL    HW279736   7.547   0.906  13.600
25988SOL     OW79737   4.481   0.082   9.238
25988SOL    HW179738   4.526   0.012   9.285
25988SOL    HW279739   4.514   0.163   9.279
25989SOL     OW79740  12.050   4.063   3.455
25989SOL    HW179741  12.044   4.025   3.543
25989SOL    HW279742  12.118   4.012   3.412
25990SOL     OW79743   0.303  13.083   0.783
25990SOL    HW179744   0.214  13.113   0.802
25990SOL    HW279745   0.339  13.060   0.868
25991SOL     OW79746  10.207   0.388   5.975
25991SOL    HW179747  10.237   0.379   5.884
25991SOL    HW279748  10.288   0.397   6.026
25992SOL     OW79749   1.257   7.009   1.455
25992SOL    HW179750   1.348   7.002   1.425
25992SOL    HW279751   1.244   6.928   1.506
25993SOL     OW79752   9.430  13.094   8.417
25993SOL    HW179753   9.352  13.063   8.462
25993SOL    HW279754   9.406  13.182   8.386
25994SOL     OW79755   9.984   1.793   3.349
25994SOL    HW179756   9.955   1.849   3.422
25994SOL    HW279757  10.071   1.825   3.328
25995SOL     OW79758  12.038  13.997   5.061
25995SOL    HW179759  12.068  14.074   5.013
25995SOL    HW279760  12.109  13.933   5.052
25996SOL     OW79761   5.314   5.008   0.510
25996SOL    HW179762   5.287   5.092   0.476
25996SOL    HW279763   5.410   5.012   0.510
25997SOL     OW79764   2.136  13.751   4.475
25997SOL    HW179765   2.176  13.812   4.414
25997SOL    HW279766   2.127  13.669   4.425
25998SOL     OW79767   0.009   9.274   5.697
25998SOL    HW179768   0.049   9.355   5.727
25998SOL    HW279769   0.052   9.205   5.747
25999SOL     OW79770  11.354   0.681   1.422
25999SOL    HW179771  11.405   0.602   1.440
25999SOL    HW279772  11.346   0.725   1.506
26000SOL     OW79773  11.855   3.790   3.844
26000SOL    HW179774  11.897   3.766   3.927
26000SOL    HW279775  11.796   3.861   3.867
26001SOL     OW79776  10.210   1.816  13.969
26001SOL    HW179777  10.247   1.827  13.881
26001SOL    HW279778  10.283   1.833  14.028
26002SOL     OW79779   1.311  14.405   5.812
26002SOL    HW179780   1.346  14.482   5.858
26002SOL    HW279781   1.355  14.331   5.853
26003SOL     OW79782  10.270  10.860   5.430
26003SOL    HW179783  10.264  10.923   5.359
26003SOL    HW279784  10.246  10.776   5.391
26004SOL     OW79785   9.626  10.029   1.621
26004SOL    HW179786   9.579  10.088   1.681
26004SOL    HW279787   9.559  10.001   1.558
26005SOL     OW79788   5.426   4.400   6.562
26005SOL    HW179789   5.352   4.373   6.508
26005SOL    HW279790   5.391   4.471   6.617
26006SOL     OW79791   8.204   4.272   6.014
26006SOL    HW179792   8.210   4.304   6.104
26006SOL    HW279793   8.255   4.191   6.013
26007SOL     OW79794   1.620   2.537   6.390
26007SOL    HW179795   1.662   2.517   6.306
26007SOL    HW279796   1.537   2.489   6.388
26008SOL     OW79797   1.720   5.630  14.071
26008SOL    HW179798   1.761   5.562  14.125
26008SOL    HW279799   1.661   5.676  14.131
26009SOL     OW79800   9.081  12.522   4.129
26009SOL    HW179801   9.168  12.499   4.096
26009SOL    HW279802   9.099  12.574   4.208
26010SOL     OW79803  10.735   4.388   5.602
26010SOL    HW179804  10.703   4.333   5.531
26010SOL    HW279805  10.695   4.474   5.586
26011SOL     OW79806   8.272   9.889   2.873
26011SOL    HW179807   8.347   9.852   2.920
26011SOL    HW279808   8.196   9.864   2.925
26012SOL     OW79809  10.656   9.479   4.822
26012SOL    HW179810  10.727   9.506   4.764
26012SOL    HW279811  10.577   9.513   4.780
26013SOL     OW79812  14.253  12.131   4.669
26013SOL    HW179813  14.284  12.183   4.743
26013SOL    HW279814  14.198  12.063   4.708
26014SOL     OW79815  11.152  14.125   5.316
26014SOL    HW179816  11.225  14.161   5.366
26014SOL    HW279817  11.193  14.065   5.253
26015SOL     OW79818  14.207  14.846  12.960
26015SOL    HW179819  14.190   0.050  13.007
26015SOL    HW279820  14.179  14.777  13.021
26016SOL     OW79821   3.900   9.476   4.028
26016SOL    HW179822   3.919   9.434   4.112
26016SOL    HW279823   3.981   9.465   3.977
26017SOL     OW79824  14.167  12.559   8.015
26017SOL    HW179825  14.203  12.630   8.069
26017SOL    HW279826  14.125  12.603   7.941
26018SOL     OW79827   6.052   4.976   0.681
26018SOL    HW179828   5.976   5.028   0.706
26018SOL    HW279829   6.060   4.988   0.586
26019SOL     OW79830  13.055  12.632   2.691
26019SOL    HW179831  13.128  12.570   2.685
26019SOL    HW279832  13.091  12.708   2.736
26020SOL     OW79833   3.095   6.040  13.360
26020SOL    HW179834   3.111   6.107  13.427
26020SOL    HW279835   3.022   6.074  13.309
26021SOL     OW79836  14.691  11.181   8.276
26021SOL    HW179837  14.600  11.193   8.251
26021SOL    HW279838  14.715  11.261   8.321
26022SOL     OW79839   4.739   9.752  14.780
26022SOL    HW179840   4.666   9.797  14.737
26022SOL    HW279841   4.702   9.720  14.862
26023SOL     OW79842   5.392  11.309  10.967
26023SOL    HW179843   5.462  11.375  10.966
26023SOL    HW279844   5.359  11.308  10.877
26024SOL     OW79845  11.159   9.288   9.287
26024SOL    HW179846  11.122   9.316   9.370
26024SOL    HW279847  11.083   9.265   9.234
26025SOL     OW79848   8.669  14.506   0.951
26025SOL    HW179849   8.635  14.519   1.040
26025SOL    HW279850   8.593  14.517   0.894
26026SOL     OW79851   8.421   6.186   6.071
26026SOL    HW179852   8.418   6.243   5.994
26026SOL    HW279853   8.491   6.223   6.125
26027SOL     OW79854  12.125  11.970  14.232
26027SOL    HW179855  12.050  11.912  14.219
26027SOL    HW279856  12.088  12.058  14.232
26028SOL     OW79857  12.728   7.918   3.011
26028SOL    HW179858  12.818   7.929   2.983
26028SOL    HW279859  12.721   7.969   3.092
26029SOL     OW79860   1.646  13.772   7.481
26029SOL    HW179861   1.624  13.719   7.558
26029SOL    HW279862   1.728  13.815   7.505
26030SOL     OW79863   7.262  10.994  12.472
26030SOL    HW179864   7.292  11.038  12.392
26030SOL    HW279865   7.304  10.908  12.469
26031SOL     OW79866  14.110   5.987   6.130
26031SOL    HW179867  14.132   5.898   6.102
26031SOL    HW279868  14.071   5.976   6.217
26032SOL     OW79869   7.406  13.223  10.214
26032SOL    HW179870   7.363  13.165  10.151
26032SOL    HW279871   7.375  13.310  10.191
26033SOL     OW79872   5.204   9.309  13.347
26033SOL    HW179873   5.272   9.244  13.328
26033SOL    HW279874   5.205   9.367  13.271
26034SOL     OW79875   8.479   0.368   9.451
26034SOL    HW179876   8.400   0.421   9.458
26034SOL    HW279877   8.507   0.379   9.360
26035SOL     OW79878  12.012   9.307   4.044
26035SOL    HW179879  11.991   9.291   4.137
26035SOL    HW279880  12.052   9.225   4.015
26036SOL     OW79881   5.322   2.585   1.774
26036SOL    HW179882   5.282   2.669   1.795
26036SOL    HW279883   5.332   2.541   1.859
26037SOL     OW79884   4.928  13.630  14.033
26037SOL    HW179885   4.919  13.560  13.968
26037SOL    HW279886   4.881  13.704  13.994
26038SOL     OW79887  12.349   6.917   8.440
26038SOL    HW179888  12.266   6.921   8.392
26038SOL    HW279889  12.337   6.846   8.503
26039SOL     OW79890   4.664   0.771   9.043
26039SOL    HW179891   4.596   0.786   8.978
26039SOL    HW279892   4.648   0.682   9.074
26040SOL     OW79893  10.336   0.430   2.010
26040SOL    HW179894  10.364   0.463   1.924
26040SOL    HW279895  10.281   0.499   2.046
26041SOL     OW79896   0.847  10.483   8.077
26041SOL    HW179897   0.805  10.542   8.014
26041SOL    HW279898   0.860  10.538   8.155
26042SOL     OW79899  14.118  14.645  13.105
26042SOL    HW179900  14.052  14.633  13.173
26042SOL    HW279901  14.075  14.617  13.024
26043SOL     OW79902  11.424   9.186   3.620
26043SOL    HW179903  11.478   9.153   3.548
26043SOL    HW279904  11.342   9.214   3.578
26044SOL     OW79905   0.180   4.305  11.940
26044SOL    HW179906   0.250   4.285  11.878
26044SOL    HW279907   0.178   4.400  11.945
26045SOL     OW79908   9.832   7.969   2.527
26045SOL    HW179909   9.856   7.886   2.568
26045SOL    HW279910   9.866   7.962   2.438
26046SOL     OW79911  14.649   5.088  10.943
26046SOL    HW179912  14.724   5.086  11.003
26046SOL    HW279913  14.657   5.171  10.896
26047SOL     OW79914   7.903  14.157  13.210
26047SOL    HW179915   7.964  14.231  13.200
26047SOL    HW279916   7.818  14.197  13.225
26048SOL     OW79917   4.086  14.447   0.042
26048SOL    HW179918   4.155  14.397  14.875
26048SOL    HW279919   4.113  14.538   0.034
26049SOL     OW79920   5.458  13.039   8.127
26049SOL    HW179921   5.428  12.990   8.203
26049SOL    HW279922   5.382  13.041   8.068
26050SOL     OW79923   6.141   9.737   8.083
26050SOL    HW179924   6.084   9.671   8.123
26050SOL    HW279925   6.083   9.810   8.062
26051SOL     OW79926   9.483   4.103   0.487
26051SOL    HW179927   9.504   4.019   0.527
26051SOL    HW279928   9.430   4.149   0.552
26052SOL     OW79929   4.926   3.093  12.741
26052SOL    HW179930   4.959   3.127  12.658
26052SOL    HW279931   4.835   3.068  12.723
26053SOL     OW79932   3.481   5.176   9.351
26053SOL    HW179933   3.564   5.164   9.306
26053SOL    HW279934   3.420   5.118   9.305
26054SOL     OW79935   1.830   1.387   2.467
26054SOL    HW179936   1.794   1.382   2.378
26054SOL    HW279937   1.804   1.474   2.498
26055SOL     OW79938  10.430   3.904  13.866
26055SOL    HW179939  10.410   3.930  13.776
26055SOL    HW279940  10.494   3.968  13.896
26056SOL     OW79941   3.950   3.521  11.457
26056SOL    HW179942   3.935   3.494  11.547
26056SOL    HW279943   3.878   3.483  11.407
26057SOL     OW79944   3.756  12.506   0.851
26057SOL    HW179945   3.773  12.426   0.802
26057SOL    HW279946   3.828  12.564   0.826
26058SOL     OW79947   4.664   6.105   8.182
26058SOL    HW179948   4.709   6.167   8.239
26058SOL    HW279949   4.621   6.159   8.116
26059SOL     OW79950  12.063  12.106   7.513
26059SOL    HW179951  11.999  12.062   7.568
26059SOL    HW279952  12.033  12.088   7.423
26060SOL     OW79953   3.590  13.107   3.621
26060SOL    HW179954   3.649  13.176   3.591
26060SOL    HW279955   3.529  13.152   3.680
26061SOL     OW79956   3.039  12.850   4.981
26061SOL    HW179957   3.016  12.874   5.071
26061SOL    HW279958   3.049  12.754   4.983
26062SOL     OW79959   0.799   4.142  11.823
26062SOL    HW179960   0.850   4.202  11.768
26062SOL    HW279961   0.722   4.192  11.847
26063SOL     OW79962  11.447   1.116  11.568
26063SOL    HW179963  11.368   1.089  11.614
26063SOL    HW279964  11.518   1.100  11.630
26064SOL     OW79965  10.994   3.890   2.400
26064SOL    HW179966  10.997   3.813   2.343
26064SOL    HW279967  10.929   3.867   2.467
26065SOL     OW79968   3.118   2.764   9.210
26065SOL    HW179969   3.055   2.803   9.271
26065SOL    HW279970   3.204   2.783   9.248
26066SOL     OW79971  11.059  12.493   5.321
26066SOL    HW179972  11.046  12.575   5.369
26066SOL    HW279973  11.112  12.519   5.245
26067SOL     OW79974   7.640   0.346   4.711
26067SOL    HW179975   7.671   0.265   4.670
26067SOL    HW279976   7.682   0.346   4.798
26068SOL     OW79977   9.666   0.391  13.603
26068SOL    HW179978   9.683   0.456  13.535
26068SOL    HW279979   9.729   0.321  13.585
26069SOL     OW79980   9.170   3.955   7.268
26069SOL    HW179981   9.236   4.009   7.312
26069SOL    HW279982   9.217   3.877   7.240
26070SOL     OW79983  14.490   8.936   9.427
26070SOL    HW179984  14.571   8.980   9.400
26070SOL    HW279985  14.515   8.844   9.438
26071SOL     OW79986   9.741   9.058  13.527
26071SOL    HW179987   9.718   9.041  13.435
26071SOL    HW279988   9.832   9.086  13.524
26072SOL     OW79989   8.281   9.923   8.922
26072SOL    HW179990   8.224   9.949   8.994
26072SOL    HW279991   8.245   9.967   8.845
26073SOL     OW79992  11.766  12.903   8.984
26073SOL    HW179993  11.857  12.900   8.952
26073SOL    HW279994  11.716  12.936   8.910
26074SOL     OW79995   8.313   7.091   9.270
26074SOL    HW179996   8.260   7.161   9.233
26074SOL    HW279997   8.254   7.016   9.276
26075SOL     OW79998  12.673  14.860   5.699
26075SOL    HW179999  12.679  14.828   5.789
26075SOL    HW280000  12.742  14.813   5.652
26076SOL     OW80001   6.967   0.690   5.949
26076SOL    HW180002   7.007   0.686   5.862
26076SOL    HW280003   7.035   0.727   6.005
26077SOL     OW80004   4.828   4.110  13.831
26077SOL    HW180005   4.872   4.055  13.766
26077SOL    HW280006   4.768   4.165  13.779
26078SOL     OW80007   2.696   0.885   4.294
26078SOL    HW180008   2.682   0.959   4.236
26078SOL    HW280009   2.696   0.808   4.237
26079SOL     OW80010  13.350   0.739  14.129
26079SOL    HW180011  13.324   0.648  14.147
26079SOL    HW280012  13.357   0.742  14.033
26080SOL     OW80013   3.562   2.744  11.942
26080SOL    HW180014   3.495   2.713  12.003
26080SOL    HW280015   3.524   2.821  11.901
26081SOL     OW80016   8.961  14.310   9.301
26081SOL    HW180017   8.906  14.253   9.356
26081SOL    HW280018   9.031  14.253   9.270
26082SOL     OW80019   9.755   9.303  11.375
26082SOL    HW180020   9.766   9.231  11.313
26082SOL    HW280021   9.842   9.315  11.413
26083SOL     OW80022  11.195  13.039   4.911
26083SOL    HW180023  11.184  12.945   4.919
26083SOL    HW280024  11.234  13.052   4.825
26084SOL     OW80025   8.748  13.265  12.469
26084SOL    HW180026   8.718  13.186  12.423
26084SOL    HW280027   8.823  13.296  12.418
26085SOL     OW80028   2.777  10.996   0.018
26085SOL    HW180029   2.719  10.930   0.056
26085SOL    HW280030   2.853  10.947  14.865
26086SOL     OW80031   7.540   4.489   4.261
26086SOL    HW180032   7.577   4.495   4.349
26086SOL    HW280033   7.576   4.408   4.225
26087SOL     OW80034   5.438   1.076   9.855
26087SOL    HW180035   5.526   1.071   9.817
26087SOL    HW280036   5.440   1.154   9.910
26088SOL     OW80037   1.425   3.323   0.027
26088SOL    HW180038   1.362   3.394   0.017
26088SOL    HW280039   1.445   3.322   0.121
26089SOL     OW80040   2.033   6.675   1.023
26089SOL    HW180041   1.970   6.741   0.994
26089SOL    HW280042   2.047   6.621   0.945
26090SOL     OW80043   0.167  10.563  13.798
26090SOL    HW180044   0.072  10.571  13.803
26090SOL    HW280045   0.187  10.483  13.846
26091SOL     OW80046   8.506  10.778  14.717
26091SOL    HW180047   8.545  10.699  14.681
26091SOL    HW280048   8.579  10.839  14.727
26092SOL     OW80049  10.642   1.253   2.692
26092SOL    HW180050  10.575   1.229   2.756
26092SOL    HW280051  10.594   1.266   2.611
26093SOL     OW80052   5.139  12.383  11.839
26093SOL    HW180053   5.214  12.374  11.897
26093SOL    HW280054   5.177  12.397  11.752
26094SOL     OW80055   8.542   5.433   7.405
26094SOL    HW180056   8.518   5.511   7.354
26094SOL    HW280057   8.524   5.457   7.496
26095SOL     OW80058   7.799   6.045   6.289
26095SOL    HW180059   7.810   6.010   6.200
26095SOL    HW280060   7.715   6.010   6.318
26096SOL     OW80061   8.612  14.640   3.799
26096SOL    HW180062   8.701  14.673   3.809
26096SOL    HW280063   8.596  14.591   3.880
26097SOL     OW80064  11.077  11.178   6.137
26097SOL    HW180065  11.145  11.201   6.075
26097SOL    HW280066  11.058  11.259   6.184
26098SOL     OW80067   0.581   9.680  10.012
26098SOL    HW180068   0.556   9.689  10.104
26098SOL    HW280069   0.565   9.766   9.974
26099SOL     OW80070  11.330  13.333  11.269
26099SOL    HW180071  11.379  13.289  11.200
26099SOL    HW280072  11.366  13.298  11.351
26100SOL     OW80073  13.053  14.016   2.885
26100SOL    HW180074  13.071  13.980   2.972
26100SOL    HW280075  13.089  13.950   2.824
26101SOL     OW80076   9.473   5.958  12.285
26101SOL    HW180077   9.532   5.976  12.212
26101SOL    HW280078   9.524   5.981  12.363
26102SOL     OW80079   5.413   1.012   7.364
26102SOL    HW180080   5.452   1.089   7.323
26102SOL    HW280081   5.326   1.040   7.391
26103SOL     OW80082   2.361   7.651  12.345
26103SOL    HW180083   2.456   7.664  12.336
26103SOL    HW280084   2.345   7.565  12.306
26104SOL     OW80085   7.096   2.823  11.594
26104SOL    HW180086   7.145   2.767  11.654
26104SOL    HW280087   7.006   2.820  11.626
26105SOL     OW80088  11.287   3.031   1.419
26105SOL    HW180089  11.204   3.006   1.460
26105SOL    HW280090  11.349   3.033   1.491
26106SOL     OW80091   1.517   1.156  10.562
26106SOL    HW180092   1.530   1.250  10.571
26106SOL    HW280093   1.548   1.119  10.644
26107SOL     OW80094   0.552   3.275   6.949
26107SOL    HW180095   0.594   3.350   6.991
26107SOL    HW280096   0.483   3.313   6.894
26108SOL     OW80097   3.251  12.061   8.612
26108SOL    HW180098   3.284  11.972   8.596
26108SOL    HW280099   3.170  12.047   8.660
26109SOL     OW80100   2.822   8.381   7.788
26109SOL    HW180101   2.861   8.457   7.745
26109SOL    HW280102   2.895   8.322   7.804
26110SOL     OW80103   8.310  11.423  11.091
26110SOL    HW180104   8.344  11.457  11.008
26110SOL    HW280105   8.216  11.441  11.088
26111SOL     OW80106   4.558  11.039  11.462
26111SOL    HW180107   4.490  10.973  11.475
26111SOL    HW280108   4.607  11.041  11.544
26112SOL     OW80109  14.356  12.909   7.710
26112SOL    HW180110  14.367  12.862   7.628
26112SOL    HW280111  14.444  12.912   7.748
26113SOL     OW80112   6.154   5.576   3.809
26113SOL    HW180113   6.065   5.606   3.828
26113SOL    HW280114   6.150   5.542   3.719
26114SOL     OW80115  12.247  12.680   4.079
26114SOL    HW180116  12.192  12.613   4.038
26114SOL    HW280117  12.228  12.760   4.029
26115SOL     OW80118  12.527   7.716  12.955
26115SOL    HW180119  12.463   7.725  13.026
26115SOL    HW280120  12.491   7.770  12.885
26116SOL     OW80121   7.086   2.693  14.681
26116SOL    HW180122   7.050   2.625  14.738
26116SOL    HW280123   7.059   2.776  14.722
26117SOL     OW80124   5.471  10.076   6.242
26117SOL    HW180125   5.553  10.059   6.197
26117SOL    HW280126   5.440   9.990   6.271
26118SOL     OW80127  12.595  12.162  12.136
26118SOL    HW180128  12.674  12.168  12.189
26118SOL    HW280129  12.614  12.212  12.057
26119SOL     OW80130  13.946  14.840   6.605
26119SOL    HW180131  13.858  14.833   6.569
26119SOL    HW280132  13.946   0.047   6.650
26120SOL     OW80133   3.258   8.292  13.843
26120SOL    HW180134   3.192   8.234  13.880
26120SOL    HW280135   3.341   8.262  13.882
26121SOL     OW80136  12.722  10.701   2.012
26121SOL    HW180137  12.776  10.706   1.933
26121SOL    HW280138  12.773  10.647   2.073
26122SOL     OW80139  12.716  11.220   5.584
26122SOL    HW180140  12.675  11.304   5.567
26122SOL    HW280141  12.690  11.198   5.673
26123SOL     OW80142   7.775   6.853   3.631
26123SOL    HW180143   7.827   6.910   3.574
26123SOL    HW280144   7.733   6.913   3.693
26124SOL     OW80145  14.035   3.436   4.227
26124SOL    HW180146  14.002   3.408   4.142
26124SOL    HW280147  13.991   3.378   4.290
26125SOL     OW80148   3.092   0.948  14.438
26125SOL    HW180149   3.087   0.960  14.343
26125SOL    HW280150   3.158   1.011  14.467
26126SOL     OW80151   9.954   8.221   2.561
26126SOL    HW180152  10.038   8.185   2.593
26126SOL    HW280153   9.895   8.146   2.562
26127SOL     OW80154   8.587  11.957  14.787
26127SOL    HW180155   8.558  11.938  14.697
26127SOL    HW280156   8.678  11.984  14.778
26128SOL     OW80157  11.120   7.002  10.137
26128SOL    HW180158  11.068   6.965  10.209
26128SOL    HW280159  11.202   7.028  10.179
26129SOL     OW80160   2.553   4.066  10.325
26129SOL    HW180161   2.479   4.111  10.285
26129SOL    HW280162   2.624   4.075  10.262
26130SOL     OW80163  11.052  14.069   0.461
26130SOL    HW180164  11.108  13.992   0.457
26130SOL    HW280165  11.091  14.131   0.400
26131SOL     OW80166   9.424   7.131   1.582
26131SOL    HW180167   9.417   7.109   1.489
26131SOL    HW280168   9.407   7.048   1.627
26132SOL     OW80169   6.753   0.268   9.214
26132SOL    HW180170   6.737   0.191   9.159
26132SOL    HW280171   6.690   0.260   9.286
26133SOL     OW80172   4.417   0.192   9.547
26133SOL    HW180173   4.461   0.107   9.539
26133SOL    HW280174   4.329   0.171   9.578
26134SOL     OW80175  14.759   4.479   9.381
26134SOL    HW180176  14.719   4.507   9.298
26134SOL    HW280177  14.808   4.555   9.411
26135SOL     OW80178   3.917   9.643   1.444
26135SOL    HW180179   3.958   9.560   1.470
26135SOL    HW280180   3.825   9.621   1.431
26136SOL     OW80181  13.985   3.290   3.517
26136SOL    HW180182  14.023   3.294   3.604
26136SOL    HW280183  13.891   3.296   3.531
26137SOL     OW80184   6.744  11.173   6.193
26137SOL    HW180185   6.816  11.150   6.135
26137SOL    HW280186   6.786  11.203   6.274
26138SOL     OW80187   5.983   0.060   5.329
26138SOL    HW180188   5.903   0.109   5.314
26138SOL    HW280189   6.031   0.111   5.394
26139SOL     OW80190   9.001   0.603   7.940
26139SOL    HW180191   9.081   0.574   7.984
26139SOL    HW280192   9.013   0.697   7.926
26140SOL     OW80193   6.086   3.294   0.011
26140SOL    HW180194   6.115   3.315   0.100
26140SOL    HW280195   6.140   3.349  14.832
26141SOL     OW80196   9.730   8.188  14.748
26141SOL    HW180197   9.646   8.210  14.706
26141SOL    HW280198   9.773   8.130  14.685
26142SOL     OW80199   6.775  10.025   6.900
26142SOL    HW180200   6.861  10.005   6.937
26142SOL    HW280201   6.790  10.033   6.806
26143SOL     OW80202   8.541  11.934  14.518
26143SOL    HW180203   8.495  11.888  14.447
26143SOL    HW280204   8.633  11.914  14.504
26144SOL     OW80205   6.270   2.490   6.194
26144SOL    HW180206   6.186   2.444   6.188
26144SOL    HW280207   6.312   2.453   6.271
26145SOL     OW80208   6.707  14.636   9.915
26145SOL    HW180209   6.777  14.672   9.860
26145SOL    HW280210   6.626  14.660   9.869
26146SOL     OW80211   9.503   9.282   1.365
26146SOL    HW180212   9.473   9.254   1.279
26146SOL    HW280213   9.598   9.292   1.356
26147SOL     OW80214   3.065  11.248   8.819
26147SOL    HW180215   3.000  11.220   8.884
26147SOL    HW280216   3.071  11.343   8.831
26148SOL     OW80217   9.161  12.849   2.677
26148SOL    HW180218   9.092  12.907   2.645
26148SOL    HW280219   9.184  12.884   2.763
26149SOL     OW80220  10.703   0.336   6.910
26149SOL    HW180221  10.627   0.394   6.910
26149SOL    HW280222  10.778   0.395   6.907
26150SOL     OW80223  13.332   8.400   4.920
26150SOL    HW180224  13.419   8.400   4.961
26150SOL    HW280225  13.273   8.375   4.990
26151SOL     OW80226   2.677   1.197  11.178
26151SOL    HW180227   2.651   1.130  11.115
26151SOL    HW280228   2.597   1.247  11.194
26152SOL     OW80229   1.006   0.241  10.446
26152SOL    HW180230   1.032   0.149  10.444
26152SOL    HW280231   1.019   0.271  10.356
26153SOL     OW80232  12.326  10.568  14.403
26153SOL    HW180233  12.244  10.550  14.449
26153SOL    HW280234  12.368  10.482  14.396
26154SOL     OW80235  12.752   1.788   2.398
26154SOL    HW180236  12.736   1.736   2.476
26154SOL    HW280237  12.772   1.724   2.330
26155SOL     OW80238   0.828  13.581  13.785
26155SOL    HW180239   0.812  13.501  13.735
26155SOL    HW280240   0.905  13.560  13.838
26156SOL     OW80241   8.424   9.811  14.513
26156SOL    HW180242   8.450   9.756  14.586
26156SOL    HW280243   8.356   9.761  14.468
26157SOL     OW80244   5.981   3.864  10.340
26157SOL    HW180245   5.962   3.871  10.247
26157SOL    HW280246   5.910   3.912  10.383
26158SOL     OW80247  13.999  13.199   3.527
26158SOL    HW180248  13.952  13.208   3.610
26158SOL    HW280249  14.090  13.216   3.549
26159SOL     OW80250  13.837  14.870   2.320
26159SOL    HW180251  13.891   0.067   2.292
26159SOL    HW280252  13.787  14.846   2.242
26160SOL     OW80253   3.789  14.847   5.804
26160SOL    HW180254   3.823   0.031   5.740
26160SOL    HW280255   3.835  14.765   5.786
26161SOL     OW80256   4.235   2.666  13.747
26161SOL    HW180257   4.229   2.577  13.782
26161SOL    HW280258   4.166   2.714  13.793
26162SOL     OW80259   4.901  11.312   3.677
26162SOL    HW180260   4.946  11.229   3.689
26162SOL    HW280261   4.867  11.334   3.764
26163SOL     OW80262  13.955   0.678   0.218
26163SOL    HW180263  13.924   0.710   0.303
26163SOL    HW280264  13.893   0.714   0.155
26164SOL     OW80265   2.710  12.777   6.160
26164SOL    HW180266   2.758  12.850   6.198
26164SOL    HW280267   2.725  12.704   6.221
26165SOL     OW80268   9.681   9.473   1.958
26165SOL    HW180269   9.747   9.505   2.019
26165SOL    HW280270   9.614   9.542   1.957
26166SOL     OW80271  10.362   2.038   2.311
26166SOL    HW180272  10.411   1.982   2.251
26166SOL    HW280273  10.412   2.120   2.314
26167SOL     OW80274  10.397   1.060  13.281
26167SOL    HW180275  10.489   1.033  13.281
26167SOL    HW280276  10.349   0.983  13.251
26168SOL     OW80277  13.984  10.233   0.237
26168SOL    HW180278  14.006  10.288   0.311
26168SOL    HW280279  13.994  10.291   0.161
26169SOL     OW80280   6.639   7.568   8.494
26169SOL    HW180281   6.602   7.633   8.553
26169SOL    HW280282   6.596   7.585   8.410
26170SOL     OW80283  11.456   4.179  12.602
26170SOL    HW180284  11.435   4.190  12.510
26170SOL    HW280285  11.424   4.259  12.644
26171SOL     OW80286   9.017   7.568  10.539
26171SOL    HW180287   8.936   7.607  10.506
26171SOL    HW280288   9.035   7.615  10.620
26172SOL     OW80289   3.771  14.650   8.376
26172SOL    HW180290   3.720  14.689   8.305
26172SOL    HW280291   3.745  14.698   8.455
26173SOL     OW80292   1.735  11.690   0.867
26173SOL    HW180293   1.801  11.678   0.936
26173SOL    HW280294   1.780  11.666   0.786
26174SOL     OW80295   5.954  13.194  10.571
26174SOL    HW180296   5.900  13.129  10.615
26174SOL    HW280297   6.037  13.149  10.555
26175SOL     OW80298   3.000   0.350  12.622
26175SOL    HW180299   3.085   0.310  12.603
26175SOL    HW280300   2.936   0.288  12.586
26176SOL     OW80301   5.000   1.628   3.383
26176SOL    HW180302   4.957   1.679   3.314
26176SOL    HW280303   5.001   1.538   3.348
26177SOL     OW80304  13.005   1.956   0.169
26177SOL    HW180305  13.002   1.911   0.084
26177SOL    HW280306  13.028   1.887   0.231
26178SOL     OW80307  14.371  10.104   5.711
26178SOL    HW180308  14.403  10.062   5.632
26178SOL    HW280309  14.403  10.049   5.783
26179SOL     OW80310  13.336  10.947   1.616
26179SOL    HW180311  13.377  10.974   1.533
26179SOL    HW280312  13.272  11.016   1.634
26180SOL     OW80313  11.729  10.866   8.440
26180SOL    HW180314  11.711  10.945   8.492
26180SOL    HW280315  11.718  10.794   8.501
26181SOL     OW80316  10.325   0.779  11.042
26181SOL    HW180317  10.386   0.852  11.049
26181SOL    HW280318  10.338   0.729  11.123
26182SOL     OW80319   1.151   8.081   0.720
26182SOL    HW180320   1.153   8.075   0.815
26182SOL    HW280321   1.068   8.040   0.695
26183SOL     OW80322   1.798  10.461   0.663
26183SOL    HW180323   1.716  10.489   0.622
26183SOL    HW280324   1.831  10.539   0.706
26184SOL     OW80325   3.822   7.627   0.253
26184SOL    HW180326   3.800   7.588   0.338
26184SOL    HW280327   3.783   7.714   0.256
26185SOL     OW80328   5.379  14.510   8.488
26185SOL    HW180329   5.376  14.599   8.455
26185SOL    HW280330   5.291  14.495   8.522
26186SOL     OW80331   2.915  12.868  14.393
26186SOL    HW180332   2.921  12.947  14.339
26186SOL    HW280333   2.867  12.897  14.471
26187SOL     OW80334  11.403   6.530   4.836
26187SOL    HW180335  11.354   6.606   4.868
26187SOL    HW280336  11.479   6.524   4.894
26188SOL     OW80337  11.832  10.696  12.653
26188SOL    HW180338  11.859  10.619  12.603
26188SOL    HW280339  11.773  10.743  12.594
26189SOL     OW80340   6.323   2.221   8.474
26189SOL    HW180341   6.288   2.170   8.401
26189SOL    HW280342   6.348   2.305   8.435
26190SOL     OW80343   0.468   0.642   9.605
26190SOL    HW180344   0.412   0.699   9.552
26190SOL    HW280345   0.410   0.612   9.676
26191SOL     OW80346   4.384   7.140  12.919
26191SOL    HW180347   4.290   7.132  12.937
26191SOL    HW280348   4.426   7.100  12.996
26192SOL     OW80349  12.960  11.403   0.305
26192SOL    HW180350  12.889  11.438   0.359
26192SOL    HW280351  13.040  11.433   0.349
26193SOL     OW80352  13.369  13.262  14.143
26193SOL    HW180353  13.309  13.190  14.122
26193SOL    HW280354  13.455  13.221  14.145
26194SOL     OW80355   2.115   0.205  13.648
26194SOL    HW180356   2.161   0.274  13.696
26194SOL    HW280357   2.070   0.251  13.578
26195SOL     OW80358   1.139  14.611   9.882
26195SOL    HW180359   1.207  14.678   9.886
26195SOL    HW280360   1.139  14.583   9.790
26196SOL     OW80361  11.801   2.838   6.501
26196SOL    HW180362  11.871   2.811   6.442
26196SOL    HW280363  11.753   2.758   6.521
26197SOL     OW80364   2.529   7.599   6.919
26197SOL    HW180365   2.526   7.506   6.942
26197SOL    HW280366   2.512   7.601   6.825
26198SOL     OW80367   6.671   3.693  14.015
26198SOL    HW180368   6.617   3.731  13.946
26198SOL    HW280369   6.682   3.763  14.079
26199SOL     OW80370   6.757  12.033   6.832
26199SOL    HW180371   6.665  12.020   6.853
26199SOL    HW280372   6.804  11.967   6.883
26200SOL     OW80373   4.988   4.052   7.609
26200SOL    HW180374   5.036   4.101   7.542
26200SOL    HW280375   4.913   4.108   7.631
26201SOL     OW80376   4.059   2.734   0.583
26201SOL    HW180377   4.002   2.699   0.515
26201SOL    HW280378   4.000   2.761   0.653
26202SOL     OW80379   7.252   9.928   2.807
26202SOL    HW180380   7.344   9.913   2.829
26202SOL    HW280381   7.243   9.895   2.717
26203SOL     OW80382   4.114   0.691   1.928
26203SOL    HW180383   4.117   0.601   1.958
26203SOL    HW280384   4.042   0.731   1.977
26204SOL     OW80385   3.219   2.335   5.108
26204SOL    HW180386   3.216   2.300   5.019
26204SOL    HW280387   3.284   2.405   5.105
26205SOL     OW80388   8.167   0.368   9.040
26205SOL    HW180389   8.149   0.286   8.994
26205SOL    HW280390   8.080   0.404   9.060
26206SOL     OW80391  14.416  11.122  11.890
26206SOL    HW180392  14.364  11.163  11.960
26206SOL    HW280393  14.366  11.138  11.810
26207SOL     OW80394   0.423   4.474  12.685
26207SOL    HW180395   0.350   4.414  12.676
26207SOL    HW280396   0.386   4.551  12.728
26208SOL     OW80397   0.963   7.623  12.904
26208SOL    HW180398   0.923   7.628  12.818
26208SOL    HW280399   1.019   7.700  12.909
26209SOL     OW80400  11.193   4.642   1.241
26209SOL    HW180401  11.236   4.677   1.319
26209SOL    HW280402  11.157   4.719   1.197
26210SOL     OW80403   4.064   9.405  11.026
26210SOL    HW180404   4.097   9.421  10.938
26210SOL    HW280405   4.052   9.493  11.064
26211SOL     OW80406   2.076   0.040   9.887
26211SOL    HW180407   2.145   0.090   9.845
26211SOL    HW280408   2.111  14.829   9.895
26212SOL     OW80409   3.494  13.388   1.612
26212SOL    HW180410   3.505  13.397   1.707
26212SOL    HW280411   3.402  13.361   1.602
26213SOL     OW80412   6.532   5.071   4.177
26213SOL    HW180413   6.444   5.035   4.184
26213SOL    HW280414   6.561   5.046   4.089
26214SOL     OW80415   6.551   0.058   8.744
26214SOL    HW180416   6.489   0.080   8.814
26214SOL    HW280417   6.498   0.055   8.665
26215SOL     OW80418  10.943   4.150   8.632
26215SOL    HW180419  10.988   4.073   8.667
26215SOL    HW280420  10.882   4.115   8.568
26216SOL     OW80421   3.543   3.893   0.499
26216SOL    HW180422   3.489   3.840   0.441
26216SOL    HW280423   3.626   3.904   0.451
26217SOL     OW80424  13.275   5.778   4.077
26217SOL    HW180425  13.214   5.756   4.148
26217SOL    HW280426  13.248   5.723   4.004
26218SOL     OW80427  10.981  10.764   5.983
26218SOL    HW180428  10.961  10.856   5.968
26218SOL    HW280429  10.941  10.744   6.067
26219SOL     OW80430  12.385   9.418   3.750
26219SOL    HW180431  12.467   9.458   3.782
26219SOL    HW280432  12.320   9.443   3.815
26220SOL     OW80433  13.706   8.266   9.989
26220SOL    HW180434  13.752   8.247   9.906
26220SOL    HW280435  13.626   8.311   9.962
26221SOL     OW80436  11.148  13.711   9.086
26221SOL    HW180437  11.161  13.698   9.180
26221SOL    HW280438  11.124  13.624   9.053
26222SOL     OW80439   6.927   0.219   2.473
26222SOL    HW180440   6.926   0.276   2.549
26222SOL    HW280441   7.003   0.248   2.422
26223SOL     OW80442  10.263   5.946   8.751
26223SOL    HW180443  10.257   5.851   8.742
26223SOL    HW280444  10.248   5.980   8.662
26224SOL     OW80445   8.418  10.632   5.615
26224SOL    HW180446   8.336  10.603   5.575
26224SOL    HW280447   8.393  10.657   5.704
26225SOL     OW80448  13.254  13.831   0.296
26225SOL    HW180449  13.198  13.869   0.363
26225SOL    HW280450  13.283  13.906   0.243
26226SOL     OW80451   6.848   7.479   6.504
26226SOL    HW180452   6.858   7.414   6.434
26226SOL    HW280453   6.894   7.442   6.579
26227SOL     OW80454  12.668   0.764   0.161
26227SOL    HW180455  12.598   0.816   0.201
26227SOL    HW280456  12.642   0.673   0.177
26228SOL     OW80457  10.084   8.869  14.798
26228SOL    HW180458  10.080   8.847   0.013
26228SOL    HW280459   9.993   8.890  14.775
26229SOL     OW80460  11.281  12.652  12.331
26229SOL    HW180461  11.220  12.578  12.331
26229SOL    HW280462  11.315  12.654  12.242
26230SOL     OW80463   5.863   9.491   1.275
26230SOL    HW180464   5.833   9.495   1.185
26230SOL    HW280465   5.785   9.508   1.327
26231SOL     OW80466  11.361   9.065   5.258
26231SOL    HW180467  11.421   9.036   5.189
26231SOL    HW280468  11.290   9.109   5.212
26232SOL     OW80469   6.336   9.755   1.486
26232SOL    HW180470   6.251   9.799   1.485
26232SOL    HW280471   6.314   9.662   1.482
26233SOL     OW80472   2.490   1.403  10.389
26233SOL    HW180473   2.458   1.450  10.312
26233SOL    HW280474   2.525   1.472  10.445
26234SOL     OW80475   2.922   2.097  11.245
26234SOL    HW180476   2.993   2.033  11.257
26234SOL    HW280477   2.944   2.142  11.164
26235SOL     OW80478  12.168   9.807   8.286
26235SOL    HW180479  12.185   9.853   8.368
26235SOL    HW280480  12.152   9.877   8.222
26236SOL     OW80481  13.799  12.920   9.547
26236SOL    HW180482  13.791  12.826   9.566
26236SOL    HW280483  13.736  12.962   9.605
26237SOL     OW80484  10.434  13.981  10.097
26237SOL    HW180485  10.487  14.018  10.167
26237SOL    HW280486  10.353  14.032  10.098
26238SOL     OW80487   3.035  14.426   3.381
26238SOL    HW180488   2.976  14.369   3.430
26238SOL    HW280489   3.122  14.400   3.411
26239SOL     OW80490   5.277   3.788   7.363
26239SOL    HW180491   5.275   3.698   7.394
26239SOL    HW280492   5.332   3.786   7.285
26240SOL     OW80493   4.220   8.878   6.982
26240SOL    HW180494   4.149   8.838   6.931
26240SOL    HW280495   4.288   8.896   6.916
26241SOL     OW80496  11.000   8.593   5.136
26241SOL    HW180497  11.008   8.620   5.044
26241SOL    HW280498  10.947   8.661   5.176
26242SOL     OW80499  14.002   9.116   2.229
26242SOL    HW180500  14.039   9.051   2.289
26242SOL    HW280501  13.989   9.069   2.147
26243SOL     OW80502   0.174   7.252   4.323
26243SOL    HW180503   0.203   7.189   4.389
26243SOL    HW280504   0.153   7.331   4.372
26244SOL     OW80505  12.610  13.330   8.097
26244SOL    HW180506  12.522  13.329   8.060
26244SOL    HW280507  12.627  13.239   8.122
26245SOL     OW80508   3.319   8.080   6.590
26245SOL    HW180509   3.363   8.143   6.648
26245SOL    HW280510   3.250   8.042   6.644
26246SOL     OW80511   8.690   3.925   0.396
26246SOL    HW180512   8.702   3.893   0.486
26246SOL    HW280513   8.777   3.955   0.370
26247SOL     OW80514   6.271  11.372  11.516
26247SOL    HW180515   6.243  11.423  11.593
26247SOL    HW280516   6.266  11.281  11.545
26248SOL     OW80517  11.815   1.759  14.470
26248SOL    HW180518  11.869   1.769  14.549
26248SOL    HW280519  11.804   1.664  14.461
26249SOL     OW80520  12.812   4.648   2.712
26249SOL    HW180521  12.724   4.672   2.684
26249SOL    HW280522  12.829   4.702   2.789
26250SOL     OW80523  11.762   6.480   9.117
26250SOL    HW180524  11.804   6.401   9.150
26250SOL    HW280525  11.785   6.548   9.180
26251SOL     OW80526   7.597  13.901   8.016
26251SOL    HW180527   7.673  13.956   7.999
26251SOL    HW280528   7.631  13.828   8.067
26252SOL     OW80529  14.772   4.122  13.763
26252SOL    HW180530  14.781   4.208  13.804
26252SOL    HW280531  14.792   4.136  13.671
26253SOL     OW80532   8.656   9.867   9.490
26253SOL    HW180533   8.612   9.783   9.480
26253SOL    HW280534   8.657   9.883   9.584
26254SOL     OW80535   6.858  10.500   3.594
26254SOL    HW180536   6.774  10.456   3.605
26254SOL    HW280537   6.851  10.546   3.511
26255SOL     OW80538  11.312   8.560   9.169
26255SOL    HW180539  11.383   8.622   9.152
26255SOL    HW280540  11.242   8.613   9.207
26256SOL     OW80541   4.831   1.390   8.044
26256SOL    HW180542   4.864   1.453   7.980
26256SOL    HW280543   4.903   1.379   8.106
26257SOL     OW80544   4.773   6.316   9.597
26257SOL    HW180545   4.867   6.303   9.586
26257SOL    HW280546   4.733   6.256   9.535
26258SOL     OW80547   0.385  13.480   9.087
26258SOL    HW180548   0.313  13.420   9.108
26258SOL    HW280549   0.424  13.502   9.172
26259SOL     OW80550   7.100   2.259   2.770
26259SOL    HW180551   7.051   2.338   2.792
26259SOL    HW280552   7.103   2.257   2.675
26260SOL     OW80553   1.055   8.905  14.077
26260SOL    HW180554   1.065   8.816  14.043
26260SOL    HW280555   1.061   8.896  14.172
26261SOL     OW80556   9.881   4.906   4.659
26261SOL    HW180557   9.839   4.974   4.712
26261SOL    HW280558   9.948   4.953   4.609
26262SOL     OW80559   9.290  11.348  10.289
26262SOL    HW180560   9.382  11.326  10.306
26262SOL    HW280561   9.293  11.408  10.215
26263SOL     OW80562  12.378  14.570  14.188
26263SOL    HW180563  12.288  14.540  14.206
26263SOL    HW280564  12.368  14.661  14.161
26264SOL     OW80565   3.233   4.425  14.114
26264SOL    HW180566   3.303   4.395  14.056
26264SOL    HW280567   3.178   4.347  14.127
26265SOL     OW80568  10.823   4.953   2.556
26265SOL    HW180569  10.842   4.885   2.621
26265SOL    HW280570  10.838   4.910   2.472
26266SOL     OW80571   8.827   5.327  12.387
26266SOL    HW180572   8.869   5.372  12.314
26266SOL    HW280573   8.756   5.278  12.348
26267SOL     OW80574   5.745  11.300  14.874
26267SOL    HW180575   5.653  11.311  14.850
26267SOL    HW280576   5.748  11.317   0.091
26268SOL     OW80577   3.469  14.541   0.369
26268SOL    HW180578   3.417  14.580   0.300
26268SOL    HW280579   3.407  14.489   0.420
26269SOL     OW80580  11.863   1.177  13.734
26269SOL    HW180581  11.824   1.247  13.682
26269SOL    HW280582  11.801   1.164  13.806
26270SOL     OW80583   3.549   7.320  10.199
26270SOL    HW180584   3.471   7.375  10.200
26270SOL    HW280585   3.526   7.244  10.253
26271SOL     OW80586   6.167  13.726  11.431
26271SOL    HW180587   6.172  13.672  11.510
26271SOL    HW280588   6.076  13.756  11.428
26272SOL     OW80589   8.362   8.865   0.488
26272SOL    HW180590   8.296   8.819   0.436
26272SOL    HW280591   8.438   8.808   0.487
26273SOL     OW80592  11.314   6.170   4.955
26273SOL    HW180593  11.319   6.096   5.016
26273SOL    HW280594  11.400   6.211   4.960
26274SOL     OW80595   3.611   5.582   4.383
26274SOL    HW180596   3.622   5.544   4.470
26274SOL    HW280597   3.522   5.559   4.358
26275SOL     OW80598  13.559   8.938   7.517
26275SOL    HW180599  13.585   8.946   7.609
26275SOL    HW280600  13.640   8.915   7.471
26276SOL     OW80601   0.222  11.133   0.459
26276SOL    HW180602   0.175  11.216   0.461
26276SOL    HW280603   0.218  11.100   0.549
26277SOL     OW80604   3.873   9.742  14.840
26277SOL    HW180605   3.788   9.744   0.006
26277SOL    HW280606   3.936   9.736   0.034
26278SOL     OW80607   6.784   2.636   7.261
26278SOL    HW180608   6.719   2.701   7.287
26278SOL    HW280609   6.843   2.631   7.336
26279SOL     OW80610  10.409   3.574   2.514
26279SOL    HW180611  10.459   3.573   2.595
26279SOL    HW280612  10.328   3.620   2.537
26280SOL     OW80613   9.039  13.957   5.528
26280SOL    HW180614   8.964  13.900   5.512
26280SOL    HW280615   9.114  13.897   5.535
26281SOL     OW80616  12.728   2.637  14.641
26281SOL    HW180617  12.742   2.552  14.682
26281SOL    HW280618  12.713   2.696  14.715
26282SOL     OW80619   1.100   3.245   2.704
26282SOL    HW180620   1.038   3.220   2.772
26282SOL    HW280621   1.154   3.313   2.744
26283SOL     OW80622   0.795   9.884  11.684
26283SOL    HW180623   0.836   9.851  11.764
26283SOL    HW280624   0.730   9.818  11.661
26284SOL     OW80625   3.005   3.543   5.004
26284SOL    HW180626   2.954   3.526   4.925
26284SOL    HW280627   2.940   3.543   5.075
26285SOL     OW80628   4.894  13.534   7.558
26285SOL    HW180629   4.908  13.503   7.468
26285SOL    HW280630   4.895  13.455   7.611
26286SOL     OW80631   2.426  11.643   7.739
26286SOL    HW180632   2.453  11.680   7.824
26286SOL    HW280633   2.472  11.559   7.734
26287SOL     OW80634   7.604   9.520   8.059
26287SOL    HW180635   7.683   9.563   8.089
26287SOL    HW280636   7.636   9.444   8.009
26288SOL     OW80637   3.481   3.012  11.033
26288SOL    HW180638   3.427   3.035  11.109
26288SOL    HW280639   3.571   3.016  11.065
26289SOL     OW80640   8.604   3.237   3.205
26289SOL    HW180641   8.533   3.247   3.269
26289SOL    HW280642   8.574   3.288   3.129
26290SOL     OW80643   8.301   3.526  13.105
26290SOL    HW180644   8.360   3.579  13.158
26290SOL    HW280645   8.214   3.562  13.122
26291SOL     OW80646   3.249   9.568  12.045
26291SOL    HW180647   3.204   9.533  12.121
26291SOL    HW280648   3.253   9.663  12.061
26292SOL     OW80649  13.381   9.513   0.950
26292SOL    HW180650  13.352   9.603   0.967
26292SOL    HW280651  13.436   9.492   1.026
26293SOL     OW80652   7.850   7.141  11.801
26293SOL    HW180653   7.833   7.179  11.714
26293SOL    HW280654   7.898   7.210  11.848
26294SOL     OW80655   3.325  12.198  11.257
26294SOL    HW180656   3.289  12.171  11.172
26294SOL    HW280657   3.293  12.133  11.319
26295SOL     OW80658   6.515   5.385   1.130
26295SOL    HW180659   6.463   5.351   1.058
26295SOL    HW280660   6.568   5.311   1.160
26296SOL     OW80661   3.727   2.057   1.274
26296SOL    HW180662   3.712   1.963   1.277
26296SOL    HW280663   3.746   2.076   1.182
26297SOL     OW80664   0.487   9.460  14.436
26297SOL    HW180665   0.555   9.525  14.453
26297SOL    HW280666   0.522   9.378  14.471
26298SOL     OW80667   4.555   5.903  10.524
26298SOL    HW180668   4.637   5.893  10.476
26298SOL    HW280669   4.507   5.821  10.507
26299SOL     OW80670  11.330   7.948   9.800
26299SOL    HW180671  11.280   8.023   9.831
26299SOL    HW280672  11.320   7.950   9.705
26300SOL     OW80673   1.724   3.574   0.356
26300SOL    HW180674   1.737   3.611   0.444
26300SOL    HW280675   1.803   3.522   0.341
26301SOL     OW80676  11.476   0.218   9.599
26301SOL    HW180677  11.401   0.245   9.546
26301SOL    HW280678  11.549   0.271   9.565
26302SOL     OW80679   8.920  10.414  14.821
26302SOL    HW180680   8.992  10.403   0.006
26302SOL    HW280681   8.903  10.326  14.789
26303SOL     OW80682   8.013  10.682  12.195
26303SOL    HW180683   8.030  10.684  12.101
26303SOL    HW280684   8.099  10.694  12.235
26304SOL     OW80685   1.743   7.279  13.813
26304SOL    HW180686   1.762   7.216  13.882
26304SOL    HW280687   1.652   7.262  13.789
26305SOL     OW80688   7.481  14.703   7.724
26305SOL    HW180689   7.486  14.696   7.629
26305SOL    HW280690   7.501  14.616   7.756
26306SOL     OW80691   6.634   3.091   2.802
26306SOL    HW180692   6.570   3.060   2.866
26306SOL    HW280693   6.692   3.016   2.786
26307SOL     OW80694  12.179   1.586   0.767
26307SOL    HW180695  12.094   1.600   0.809
26307SOL    HW280696  12.228   1.531   0.828
26308SOL     OW80697  10.820  10.135   4.530
26308SOL    HW180698  10.801  10.229   4.529
26308SOL    HW280699  10.734  10.094   4.539
26309SOL     OW80700   2.709  13.037  11.365
26309SOL    HW180701   2.797  13.019  11.399
26309SOL    HW280702   2.698  12.974  11.294
26310SOL     OW80703   7.368   8.016  14.783
26310SOL    HW180704   7.409   8.055  14.706
26310SOL    HW280705   7.421   8.048  14.857
26311SOL     OW80706   2.777   0.156   5.700
26311SOL    HW180707   2.796   0.249   5.702
26311SOL    HW280708   2.851   0.115   5.746
26312SOL     OW80709  12.887   6.843   6.941
26312SOL    HW180710  12.958   6.828   7.004
26312SOL    HW280711  12.923   6.816   6.857
26313SOL     OW80712   3.176  14.222   0.292
26313SOL    HW180713   3.203  14.303   0.247
26313SOL    HW280714   3.234  14.155   0.256
26314SOL     OW80715  14.180  11.316  10.300
26314SOL    HW180716  14.238  11.251  10.340
26314SOL    HW280717  14.092  11.284  10.320
26315SOL     OW80718  10.365  10.908   2.790
26315SOL    HW180719  10.323  10.900   2.876
26315SOL    HW280720  10.370  10.819   2.758
26316SOL     OW80721   4.004   0.037   0.371
26316SOL    HW180722   3.938   0.067   0.434
26316SOL    HW280723   3.961   0.043   0.286
26317SOL     OW80724   0.676   6.074  12.534
26317SOL    HW180725   0.681   6.168  12.517
26317SOL    HW280726   0.588   6.061  12.569
26318SOL     OW80727   1.186   7.249   6.451
26318SOL    HW180728   1.202   7.334   6.493
26318SOL    HW280729   1.273   7.219   6.425
26319SOL     OW80730  11.449   6.983   6.204
26319SOL    HW180731  11.387   7.009   6.136
26319SOL    HW280732  11.458   6.888   6.194
26320SOL     OW80733   4.508  10.060   4.478
26320SOL    HW180734   4.431  10.103   4.440
26320SOL    HW280735   4.477   9.974   4.504
26321SOL     OW80736   4.224   1.420   1.705
26321SOL    HW180737   4.235   1.328   1.679
26321SOL    HW280738   4.302   1.439   1.757
26322SOL     OW80739   9.336   8.438   8.089
26322SOL    HW180740   9.365   8.362   8.139
26322SOL    HW280741   9.291   8.493   8.154
26323SOL     OW80742   3.858   3.236   1.192
26323SOL    HW180743   3.936   3.198   1.152
26323SOL    HW280744   3.791   3.167   1.187
26324SOL     OW80745   4.688   5.352  14.287
26324SOL    HW180746   4.593   5.340  14.295
26324SOL    HW280747   4.699   5.446  14.274
26325SOL     OW80748  14.483   5.363  14.323
26325SOL    HW180749  14.551   5.297  14.316
26325SOL    HW280750  14.412   5.332  14.267
26326SOL     OW80751   5.770   7.299   3.808
26326SOL    HW180752   5.808   7.296   3.896
26326SOL    HW280753   5.821   7.366   3.762
26327SOL     OW80754  12.504   9.026   1.240
26327SOL    HW180755  12.460   8.950   1.203
26327SOL    HW280756  12.498   9.014   1.334
26328SOL     OW80757   5.657   2.188  10.781
26328SOL    HW180758   5.678   2.159  10.692
26328SOL    HW280759   5.595   2.260  10.768
26329SOL     OW80760   4.330   8.939   3.912
26329SOL    HW180761   4.260   8.906   3.968
26329SOL    HW280762   4.332   9.033   3.929
26330SOL     OW80763  11.896  12.998   0.012
26330SOL    HW180764  11.858  13.083  14.868
26330SOL    HW280765  11.970  12.989  14.830
26331SOL     OW80766   8.556   8.317   7.847
26331SOL    HW180767   8.636   8.279   7.813
26331SOL    HW280768   8.537   8.390   7.789
26332SOL     OW80769  10.132   6.753   8.893
26332SOL    HW180770  10.140   6.793   8.980
26332SOL    HW280771  10.155   6.824   8.832
26333SOL     OW80772  14.246   8.008   2.065
26333SOL    HW180773  14.257   7.949   1.990
26333SOL    HW280774  14.171   8.063   2.041
26334SOL     OW80775   0.097   8.009   9.622
26334SOL    HW180776   0.055   8.087   9.586
26334SOL    HW280777   0.112   7.952   9.547
26335SOL     OW80778   1.252  14.835  10.670
26335SOL    HW180779   1.299   0.018  10.728
26335SOL    HW280780   1.174  14.811  10.720
26336SOL     OW80781  10.351   2.569   1.293
26336SOL    HW180782  10.267   2.562   1.338
26336SOL    HW280783  10.327   2.587   1.202
26337SOL     OW80784  10.493  11.662  12.032
26337SOL    HW180785  10.577  11.634  12.068
26337SOL    HW280786  10.471  11.741  12.083
26338SOL     OW80787   5.562   2.570  13.216
26338SOL    HW180788   5.615   2.508  13.166
26338SOL    HW280789   5.501   2.606  13.152
26339SOL     OW80790   8.394   2.056  14.842
26339SOL    HW180791   8.329   2.072  14.774
26339SOL    HW280792   8.459   2.125  14.828
26340SOL     OW80793  13.720  11.111   5.597
26340SOL    HW180794  13.664  11.094   5.521
26340SOL    HW280795  13.671  11.075   5.671
26341SOL     OW80796   1.687  13.783  11.976
26341SOL    HW180797   1.763  13.801  11.920
26341SOL    HW280798   1.622  13.747  11.916
26342SOL     OW80799  10.795   1.476   4.976
26342SOL    HW180800  10.711   1.511   5.006
26342SOL    HW280801  10.860   1.523   5.028
26343SOL     OW80802   1.265   8.438   4.770
26343SOL    HW180803   1.350   8.463   4.807
26343SOL    HW280804   1.270   8.466   4.678
26344SOL     OW80805  12.042  13.847   1.097
26344SOL    HW180806  12.088  13.818   1.018
26344SOL    HW280807  11.950  13.826   1.081
26345SOL     OW80808   1.060   7.458   4.083
26345SOL    HW180809   1.047   7.462   3.988
26345SOL    HW280810   0.987   7.406   4.116
26346SOL     OW80811   4.863  14.496   0.030
26346SOL    HW180812   4.892  14.520  14.819
26346SOL    HW280813   4.913  14.417   0.051
26347SOL     OW80814   5.051   2.448   4.868
26347SOL    HW180815   5.022   2.528   4.911
26347SOL    HW280816   5.146   2.457   4.860
26348SOL     OW80817   9.795  13.238   2.721
26348SOL    HW180818   9.705  13.234   2.689
26348SOL    HW280819   9.792  13.301   2.793
26349SOL     OW80820   8.386   3.813   1.355
26349SOL    HW180821   8.361   3.744   1.416
26349SOL    HW280822   8.305   3.858   1.335
26350SOL     OW80823   8.409   2.675   2.332
26350SOL    HW180824   8.499   2.677   2.366
26350SOL    HW280825   8.362   2.616   2.392
26351SOL     OW80826   8.677  12.623   2.956
26351SOL    HW180827   8.661  12.568   2.879
26351SOL    HW280828   8.723  12.700   2.921
26352SOL     OW80829   9.253   0.203  12.091
26352SOL    HW180830   9.266   0.158  12.008
26352SOL    HW280831   9.202   0.281  12.069
26353SOL     OW80832  10.310   9.358   7.003
26353SOL    HW180833  10.265   9.435   6.968
26353SOL    HW280834  10.391   9.393   7.041
26354SOL     OW80835   9.781   5.872  10.277
26354SOL    HW180836   9.767   5.884  10.371
26354SOL    HW280837   9.765   5.957  10.238
26355SOL     OW80838   0.314   2.104  12.727
26355SOL    HW180839   0.409   2.094  12.728
26355SOL    HW280840   0.280   2.017  12.708
26356SOL     OW80841  10.607  13.916  13.325
26356SOL    HW180842  10.643  13.844  13.376
26356SOL    HW280843  10.555  13.967  13.388
26357SOL     OW80844   4.569  12.134   0.542
26357SOL    HW180845   4.662  12.122   0.524
26357SOL    HW280846   4.554  12.089   0.625
26358SOL     OW80847   7.750  11.745   7.161
26358SOL    HW180848   7.672  11.693   7.179
26358SOL    HW280849   7.806  11.687   7.109
26359SOL     OW80850   0.799  13.442   6.967
26359SOL    HW180851   0.809  13.514   7.029
26359SOL    HW280852   0.827  13.479   6.883
26360SOL     OW80853   2.318  10.109   5.394
26360SOL    HW180854   2.344  10.017   5.393
26360SOL    HW280855   2.387  10.154   5.345
26361SOL     OW80856   4.434  10.665   5.579
26361SOL    HW180857   4.375  10.719   5.528
26361SOL    HW280858   4.519  10.707   5.572
26362SOL     OW80859   9.119   4.849   1.355
26362SOL    HW180860   9.162   4.790   1.417
26362SOL    HW280861   9.146   4.816   1.269
26363SOL     OW80862  14.368  11.857   6.556
26363SOL    HW180863  14.321  11.883   6.635
26363SOL    HW280864  14.426  11.786   6.585
26364SOL     OW80865   3.547  13.177   1.429
26364SOL    HW180866   3.560  13.233   1.506
26364SOL    HW280867   3.453  13.182   1.411
26365SOL     OW80868  12.983  13.084   8.138
26365SOL    HW180869  12.986  13.122   8.226
26365SOL    HW280870  12.889  13.073   8.121
26366SOL     OW80871   6.501   7.298   4.004
26366SOL    HW180872   6.476   7.207   4.019
26366SOL    HW280873   6.417   7.346   4.003
26367SOL     OW80874   0.976   3.978   0.165
26367SOL    HW180875   1.047   4.019   0.215
26367SOL    HW280876   0.969   4.030   0.085
26368SOL     OW80877   0.621  13.302  12.506
26368SOL    HW180878   0.704  13.290  12.460
26368SOL    HW280879   0.645  13.311  12.598
26369SOL     OW80880   4.271  11.485   0.191
26369SOL    HW180881   4.279  11.400   0.148
26369SOL    HW280882   4.183  11.515   0.171
26370SOL     OW80883   8.551   3.856   2.790
26370SOL    HW180884   8.500   3.805   2.853
26370SOL    HW280885   8.491   3.872   2.717
26371SOL     OW80886  14.543   1.412   9.290
26371SOL    HW180887  14.506   1.498   9.312
26371SOL    HW280888  14.466   1.354   9.283
26372SOL     OW80889  12.359   2.750   7.497
26372SOL    HW180890  12.301   2.827   7.488
26372SOL    HW280891  12.330   2.708   7.578
26373SOL     OW80892  12.836  13.793  14.054
26373SOL    HW180893  12.843  13.780  13.960
26373SOL    HW280894  12.922  13.768  14.088
26374SOL     OW80895  14.023   2.827   1.538
26374SOL    HW180896  14.026   2.852   1.446
26374SOL    HW280897  14.087   2.884   1.581
26375SOL     OW80898  11.003   4.813   8.140
26375SOL    HW180899  11.078   4.757   8.119
26375SOL    HW280900  10.927   4.757   8.128
26376SOL     OW80901  11.770   4.358   9.837
26376SOL    HW180902  11.716   4.424   9.881
26376SOL    HW280903  11.822   4.408   9.774
26377SOL     OW80904  10.293  11.681   4.783
26377SOL    HW180905  10.313  11.775   4.780
26377SOL    HW280906  10.212  11.672   4.733
26378SOL     OW80907   1.882   1.752   4.523
26378SOL    HW180908   1.909   1.815   4.590
26378SOL    HW280909   1.955   1.691   4.516
26379SOL     OW80910   1.813   2.142  10.106
26379SOL    HW180911   1.825   2.073  10.171
26379SOL    HW280912   1.822   2.224  10.155
26380SOL     OW80913   5.277   4.794   0.317
26380SOL    HW180914   5.326   4.844   0.251
26380SOL    HW280915   5.272   4.852   0.393
26381SOL     OW80916  13.468   8.313  10.620
26381SOL    HW180917  13.434   8.388  10.572
26381SOL    HW280918  13.503   8.255  10.552
26382SOL     OW80919   7.822   4.420   5.204
26382SOL    HW180920   7.866   4.480   5.264
26382SOL    HW280921   7.776   4.476   5.142
26383SOL     OW80922   9.898  12.234  14.493
26383SOL    HW180923   9.826  12.180  14.459
26383SOL    HW280924   9.859  12.281  14.567
26384SOL     OW80925  13.069   8.937   4.886
26384SOL    HW180926  13.139   8.871   4.889
26384SOL    HW280927  13.003   8.904   4.946
26385SOL     OW80928   5.738   8.884  11.831
26385SOL    HW180929   5.760   8.814  11.770
26385SOL    HW280930   5.655   8.918  11.799
26386SOL     OW80931   3.886   4.934   7.511
26386SOL    HW180932   3.920   4.944   7.600
26386SOL    HW280933   3.841   5.017   7.493
26387SOL     OW80934  14.307   8.103   4.552
26387SOL    HW180935  14.372   8.058   4.499
26387SOL    HW280936  14.223   8.081   4.511
26388SOL     OW80937  10.839   2.330   0.966
26388SOL    HW180938  10.809   2.332   0.875
26388SOL    HW280939  10.871   2.419   0.983
26389SOL     OW80940   1.433   8.802  14.735
26389SOL    HW180941   1.407   8.867  14.669
26389SOL    HW280942   1.351   8.780  14.779
26390SOL     OW80943  11.954  13.931   1.471
26390SOL    HW180944  12.017  13.864   1.444
26390SOL    HW280945  11.985  13.961   1.556
26391SOL     OW80946   8.414   3.373   2.168
26391SOL    HW180947   8.392   3.456   2.211
26391SOL    HW280948   8.398   3.389   2.075
26392SOL     OW80949   7.937   3.274   2.116
26392SOL    HW180950   7.974   3.191   2.086
26392SOL    HW280951   7.996   3.341   2.082
26393SOL     OW80952   5.813   4.930   0.403
26393SOL    HW180953   5.790   4.874   0.478
26393SOL    HW280954   5.907   4.948   0.415
26394SOL     OW80955   2.185  14.586   1.498
26394SOL    HW180956   2.167  14.535   1.420
26394SOL    HW280957   2.230  14.665   1.466
26395SOL     OW80958  11.319   5.419  14.396
26395SOL    HW180959  11.260   5.344  14.399
26395SOL    HW280960  11.284   5.479  14.461
26396SOL     OW80961   5.884   1.813  10.800
26396SOL    HW180962   5.895   1.815  10.895
26396SOL    HW280963   5.972   1.799  10.766
26397SOL     OW80964  13.207   2.307  13.824
26397SOL    HW180965  13.214   2.213  13.838
26397SOL    HW280966  13.173   2.317  13.735
26398SOL     OW80967  14.570   5.829   4.548
26398SOL    HW180968  14.617   5.819   4.631
26398SOL    HW280969  14.613   5.903   4.505
26399SOL     OW80970   5.898   3.728   2.189
26399SOL    HW180971   5.989   3.698   2.196
26399SOL    HW280972   5.864   3.722   2.278
26400SOL     OW80973   1.232  11.678   7.697
26400SOL    HW180974   1.148  11.636   7.715
26400SOL    HW280975   1.252  11.728   7.776
26401SOL     OW80976  13.110   1.271   7.354
26401SOL    HW180977  13.067   1.186   7.349
26401SOL    HW280978  13.062   1.326   7.293
26402SOL     OW80979   9.684  10.483  12.397
26402SOL    HW180980   9.716  10.571  12.417
26402SOL    HW280981   9.643  10.491  12.311
26403SOL     OW80982   7.683   7.485   4.573
26403SOL    HW180983   7.735   7.415   4.613
26403SOL    HW280984   7.745   7.533   4.518
26404SOL     OW80985  11.260   5.628  12.094
26404SOL    HW180986  11.224   5.540  12.086
26404SOL    HW280987  11.354   5.615  12.105
26405SOL     OW80988  14.870   8.933  12.547
26405SOL    HW180989   0.040   8.881  12.483
26405SOL    HW280990  14.779   8.932  12.517
26406SOL     OW80991  12.318   1.298   2.717
26406SOL    HW180992  12.264   1.267   2.790
26406SOL    HW280993  12.260   1.356   2.667
26407SOL     OW80994   2.305   5.334   5.763
26407SOL    HW180995   2.353   5.354   5.682
26407SOL    HW280996   2.260   5.252   5.744
26408SOL     OW80997   4.266   9.595  13.963
26408SOL    HW180998   4.226   9.681  13.980
26408SOL    HW280999   4.240   9.542  14.038
26409SOL     OW81000   1.752  10.773   5.963
26409SOL    HW181001   1.777  10.858   5.926
26409SOL    HW281002   1.658  10.782   5.982
26410SOL     OW81003   6.690   6.429   0.788
26410SOL    HW181004   6.634   6.502   0.815
26410SOL    HW281005   6.651   6.352   0.829
26411SOL     OW81006   6.778   0.811   5.623
26411SOL    HW181007   6.742   0.899   5.614
26411SOL    HW281008   6.870   0.824   5.647
26412SOL     OW81009   5.545   4.110   6.089
26412SOL    HW181010   5.617   4.165   6.119
26412SOL    HW281011   5.587   4.045   6.031
26413SOL     OW81012   1.498   0.968  14.252
26413SOL    HW181013   1.541   1.038  14.302
26413SOL    HW281014   1.563   0.898  14.248
26414SOL     OW81015  10.815  10.311  13.867
26414SOL    HW181016  10.748  10.354  13.813
26414SOL    HW281017  10.835  10.230  13.820
26415SOL     OW81018  10.935   3.919  10.533
26415SOL    HW181019  10.865   3.899  10.471
26415SOL    HW281020  11.000   3.850  10.520
26416SOL     OW81021  14.497   5.857   7.665
26416SOL    HW181022  14.483   5.859   7.570
26416SOL    HW281023  14.496   5.949   7.691
26417SOL     OW81024  13.368   8.055   3.367
26417SOL    HW181025  13.321   8.126   3.411
26417SOL    HW281026  13.460   8.079   3.376
26418SOL     OW81027   1.947  10.762   8.841
26418SOL    HW181028   2.041  10.746   8.850
26418SOL    HW281029   1.915  10.689   8.789
26419SOL     OW81030   4.666  14.641   2.046
26419SOL    HW181031   4.623  14.638   2.131
26419SOL    HW281032   4.598  14.672   1.986
26420SOL     OW81033   5.580   2.410   1.868
26420SOL    HW181034   5.555   2.383   1.956
26420SOL    HW281035   5.656   2.356   1.846
26421SOL     OW81036   8.999  13.438   9.175
26421SOL    HW181037   9.087  13.460   9.147
26421SOL    HW281038   8.968  13.516   9.222
26422SOL     OW81039   3.186   3.247  12.289
26422SOL    HW181040   3.131   3.186  12.339
26422SOL    HW281041   3.239   3.291  12.355
26423SOL     OW81042   6.896   6.034   4.041
26423SOL    HW181043   6.974   5.980   4.053
26423SOL    HW281044   6.844   5.988   3.975
26424SOL     OW81045  12.223  14.663  12.286
26424SOL    HW181046  12.312  14.630  12.276
26424SOL    HW281047  12.224  14.709  12.371
26425SOL     OW81048   2.681   2.083  12.025
26425SOL    HW181049   2.660   2.117  11.938
26425SOL    HW281050   2.737   2.007  12.008
26426SOL     OW81051   0.081  12.301  14.477
26426SOL    HW181052   0.175  12.284  14.473
26426SOL    HW281053   0.043  12.245  14.410
26427SOL     OW81054   2.940  14.240   4.127
26427SOL    HW181055   2.935  14.334   4.110
26427SOL    HW281056   3.033  14.221   4.134
26428SOL     OW81057   5.638  11.082  11.246
26428SOL    HW181058   5.544  11.100  11.247
26428SOL    HW281059   5.679  11.167  11.261
26429SOL     OW81060   8.628  10.694   7.507
26429SOL    HW181061   8.626  10.605   7.471
26429SOL    HW281062   8.720  10.719   7.504
26430SOL     OW81063  12.565  14.043   6.319
26430SOL    HW181064  12.550  14.075   6.230
26430SOL    HW281065  12.486  14.068   6.368
26431SOL     OW81066   3.015   0.766   8.672
26431SOL    HW181067   2.933   0.716   8.675
26431SOL    HW281068   3.047   0.765   8.762
26432SOL     OW81069   1.852   7.058   3.677
26432SOL    HW181070   1.799   7.041   3.598
26432SOL    HW281071   1.936   7.087   3.643
26433SOL     OW81072  11.977   4.261  14.592
26433SOL    HW181073  12.071   4.275  14.577
26433SOL    HW281074  11.963   4.169  14.567
26434SOL     OW81075   7.577  10.361  10.808
26434SOL    HW181076   7.538  10.302  10.743
26434SOL    HW281077   7.621  10.428  10.756
26435SOL     OW81078  10.071   2.426  14.734
26435SOL    HW181079   9.978   2.414  14.715
26435SOL    HW281080  10.116   2.365  14.674
26436SOL     OW81081  11.669   0.164   8.582
26436SOL    HW181082  11.629   0.178   8.668
26436SOL    HW281083  11.623   0.088   8.547
26437SOL     OW81084  11.408   9.999   0.933
26437SOL    HW181085  11.387   9.912   0.897
26437SOL    HW281086  11.439  10.049   0.858
26438SOL     OW81087  13.261   2.848   6.636
26438SOL    HW181088  13.354   2.873   6.634
26438SOL    HW281089  13.240   2.827   6.545
26439SOL     OW81090   4.714  13.138  10.067
26439SOL    HW181091   4.691  13.161   9.977
26439SOL    HW281092   4.809  13.127  10.066
26440SOL     OW81093  13.525  10.782  12.081
26440SOL    HW181094  13.537  10.841  12.007
26440SOL    HW281095  13.485  10.836  12.149
26441SOL     OW81096   8.814  12.508   8.629
26441SOL    HW181097   8.818  12.597   8.665
26441SOL    HW281098   8.859  12.514   8.545
26442SOL     OW81099  13.100  13.525   4.833
26442SOL    HW181100  13.023  13.530   4.776
26442SOL    HW281101  13.072  13.472   4.907
26443SOL     OW81102   8.434   2.212   7.188
26443SOL    HW181103   8.524   2.243   7.178
26443SOL    HW281104   8.386   2.290   7.217
26444SOL     OW81105   8.442   8.006   9.363
26444SOL    HW181106   8.511   8.055   9.409
26444SOL    HW281107   8.411   8.066   9.295
26445SOL     OW81108  13.475   3.599  10.876
26445SOL    HW181109  13.448   3.602  10.785
26445SOL    HW281110  13.516   3.684  10.892
26446SOL     OW81111  12.260   1.833   0.232
26446SOL    HW181112  12.314   1.874   0.300
26446SOL    HW281113  12.170   1.856   0.257
26447SOL     OW81114   2.572   1.019   2.951
26447SOL    HW181115   2.485   1.053   2.933
26447SOL    HW281116   2.620   1.092   2.989
26448SOL     OW81117   3.374   9.516   5.061
26448SOL    HW181118   3.283   9.544   5.052
26448SOL    HW281119   3.385   9.501   5.155
26449SOL     OW81120  12.818   1.114   4.036
26449SOL    HW181121  12.868   1.046   4.080
26449SOL    HW281122  12.855   1.196   4.069
26450SOL     OW81123  13.333   1.206   4.775
26450SOL    HW181124  13.280   1.149   4.831
26450SOL    HW281125  13.342   1.157   4.693
26451SOL     OW81126  13.382   8.134  14.506
26451SOL    HW181127  13.344   8.120  14.420
26451SOL    HW281128  13.415   8.224  14.503
26452SOL     OW81129   0.560   2.529  12.330
26452SOL    HW181130   0.474   2.552  12.295
26452SOL    HW281131   0.545   2.448  12.380
26453SOL     OW81132   5.207   9.791  13.730
26453SOL    HW181133   5.160   9.820  13.651
26453SOL    HW281134   5.224   9.872  13.778
26454SOL     OW81135   9.053  11.923   6.155
26454SOL    HW181136   8.957  11.926   6.165
26454SOL    HW281137   9.083  11.871   6.229
26455SOL     OW81138  11.950   7.279   7.048
26455SOL    HW181139  12.033   7.310   7.085
26455SOL    HW281140  11.954   7.184   7.058
26456SOL     OW81141   6.392  11.477   5.350
26456SOL    HW181142   6.464  11.527   5.388
26456SOL    HW281143   6.396  11.496   5.256
26457SOL     OW81144  14.716   7.851   1.163
26457SOL    HW181145  14.750   7.922   1.217
26457SOL    HW281146  14.758   7.772   1.198
26458SOL     OW81147  12.920   3.394   9.983
26458SOL    HW181148  12.994   3.373  10.040
26458SOL    HW281149  12.958   3.446   9.913
26459SOL     OW81150   5.023   8.891   1.040
26459SOL    HW181151   4.965   8.889   1.116
26459SOL    HW281152   5.013   8.978   1.003
26460SOL     OW81153  10.772  13.441  13.679
26460SOL    HW181154  10.754  13.402  13.593
26460SOL    HW281155  10.726  13.525  13.677
26461SOL     OW81156   5.215  10.215   1.039
26461SOL    HW181157   5.268  10.154   1.090
26461SOL    HW281158   5.271  10.292   1.027
26462SOL     OW81159   9.251   1.652   7.312
26462SOL    HW181160   9.264   1.746   7.300
26462SOL    HW281161   9.178   1.645   7.374
26463SOL     OW81162   4.157   8.488  10.574
26463SOL    HW181163   4.149   8.497  10.479
26463SOL    HW281164   4.079   8.439  10.601
26464SOL     OW81165   1.951   8.088   2.142
26464SOL    HW181166   2.041   8.061   2.160
26464SOL    HW281167   1.897   8.024   2.189
26465SOL     OW81168   7.012  10.715  14.225
26465SOL    HW181169   7.082  10.661  14.188
26465SOL    HW281170   7.051  10.802  14.235
26466SOL     OW81171  10.070  11.568   3.148
26466SOL    HW181172  10.016  11.645   3.130
26466SOL    HW281173  10.059  11.513   3.070
26467SOL     OW81174   4.997  11.603   7.801
26467SOL    HW181175   4.997  11.538   7.730
26467SOL    HW281176   5.077  11.585   7.850
26468SOL     OW81177  12.258  12.620  10.355
26468SOL    HW181178  12.177  12.569  10.343
26468SOL    HW281179  12.258  12.642  10.448
26469SOL     OW81180   0.472   4.961  10.065
26469SOL    HW181181   0.435   5.021  10.000
26469SOL    HW281182   0.535   5.015  10.113
26470SOL     OW81183  10.532  10.299   3.469
26470SOL    HW181184  10.612  10.247   3.474
26470SOL    HW281185  10.553  10.379   3.517
26471SOL     OW81186   1.467  13.364  14.268
26471SOL    HW181187   1.425  13.289  14.226
26471SOL    HW281188   1.486  13.335  14.357
26472SOL     OW81189  12.156   2.789   7.712
26472SOL    HW181190  12.219   2.851   7.749
26472SOL    HW281191  12.153   2.717   7.775
26473SOL     OW81192  12.501   7.870  10.221
26473SOL    HW181193  12.467   7.840  10.137
26473SOL    HW281194  12.596   7.860  10.214
26474SOL     OW81195  12.895  11.644   7.473
26474SOL    HW181196  12.834  11.653   7.546
26474SOL    HW281197  12.967  11.591   7.508
26475SOL     OW81198  10.887   5.134   9.484
26475SOL    HW181199  10.829   5.199   9.446
26475SOL    HW281200  10.955   5.120   9.418
26476SOL     OW81201   6.994   3.747  13.215
26476SOL    HW181202   7.046   3.680  13.170
26476SOL    HW281203   6.918   3.760  13.158
26477SOL     OW81204   3.180   0.398   1.110
26477SOL    HW181205   3.154   0.327   1.169
26477SOL    HW281206   3.226   0.354   1.039
26478SOL     OW81207   6.163  11.792  11.669
26478SOL    HW181208   6.215  11.712  11.678
26478SOL    HW281209   6.205  11.855  11.728
26479SOL     OW81210   9.132   3.956   6.283
26479SOL    HW181211   9.192   3.978   6.212
26479SOL    HW281212   9.092   4.039   6.309
26480SOL     OW81213   2.015   5.880   5.201
26480SOL    HW181214   2.024   5.898   5.107
26480SOL    HW281215   2.097   5.837   5.225
26481SOL     OW81216  12.296   3.475   8.831
26481SOL    HW181217  12.282   3.387   8.865
26481SOL    HW281218  12.243   3.478   8.751
26482SOL     OW81219   8.996  14.784  13.239
26482SOL    HW181220   9.052  14.814  13.311
26482SOL    HW281221   9.047  14.803  13.160
26483SOL     OW81222  11.908   8.429   0.048
26483SOL    HW181223  11.945   8.485   0.117
26483SOL    HW281224  11.923   8.478  14.844
26484SOL     OW81225   1.703  12.572   7.806
26484SOL    HW181226   1.690  12.497   7.865
26484SOL    HW281227   1.761  12.631   7.855
26485SOL     OW81228   9.954   9.197  13.723
26485SOL    HW181229   9.891   9.269  13.732
26485SOL    HW281230  10.032   9.238  13.684
26486SOL     OW81231  10.383   9.269   6.764
26486SOL    HW181232  10.340   9.277   6.849
26486SOL    HW281233  10.446   9.341   6.762
26487SOL     OW81234  11.114   8.282   3.042
26487SOL    HW181235  11.156   8.311   2.961
26487SOL    HW281236  11.044   8.346   3.057
26488SOL     OW81237   3.896   3.866   7.518
26488SOL    HW181238   3.859   3.782   7.546
26488SOL    HW281239   3.879   3.869   7.423
26489SOL     OW81240  11.685   7.573   0.558
26489SOL    HW181241  11.736   7.570   0.477
26489SOL    HW281242  11.723   7.503   0.612
26490SOL     OW81243   4.350  12.860   5.209
26490SOL    HW181244   4.429  12.871   5.262
26490SOL    HW281245   4.375  12.889   5.121
26491SOL     OW81246   5.218  13.393   8.867
26491SOL    HW181247   5.148  13.458   8.874
26491SOL    HW281248   5.270  13.404   8.947
26492SOL     OW81249   9.429   5.233  10.571
26492SOL    HW181250   9.499   5.232  10.637
26492SOL    HW281251   9.373   5.305  10.598
26493SOL     OW81252  11.247   5.279  14.050
26493SOL    HW181253  11.220   5.369  14.068
26493SOL    HW281254  11.320   5.264  14.110
26494SOL     OW81255   6.169   2.159   8.811
26494SOL    HW181256   6.251   2.146   8.763
26494SOL    HW281257   6.164   2.254   8.825
26495SOL     OW81258  13.497   5.795   4.440
26495SOL    HW181259  13.554   5.741   4.495
26495SOL    HW281260  13.416   5.744   4.433
26496SOL     OW81261  11.812   3.297  12.637
26496SOL    HW181262  11.843   3.219  12.592
26496SOL    HW281263  11.823   3.368  12.575
26497SOL     OW81264   0.401   1.654  11.916
26497SOL    HW181265   0.394   1.743  11.949
26497SOL    HW281266   0.323   1.609  11.949
26498SOL     OW81267   0.838   0.863   4.130
26498SOL    HW181268   0.829   0.888   4.038
26498SOL    HW281269   0.851   0.945   4.176
26499SOL     OW81270  14.365   9.056   9.936
26499SOL    HW181271  14.365   9.138   9.984
26499SOL    HW281272  14.274   9.044   9.909
26500SOL     OW81273   3.883   4.750   0.170
26500SOL    HW181274   3.896   4.729   0.078
26500SOL    HW281275   3.956   4.709   0.215
26501SOL     OW81276   1.059   6.710   0.492
26501SOL    HW181277   1.152   6.692   0.507
26501SOL    HW281278   1.056   6.756   0.408
26502SOL     OW81279   9.439   3.295   0.909
26502SOL    HW181280   9.510   3.359   0.907
26502SOL    HW281281   9.465   3.233   0.978
26503SOL     OW81282  13.440  12.803   0.882
26503SOL    HW181283  13.393  12.816   0.964
26503SOL    HW281284  13.450  12.891   0.846
26504SOL     OW81285   7.341  10.969  12.192
26504SOL    HW181286   7.305  11.027  12.124
26504SOL    HW281287   7.292  10.887  12.182
26505SOL     OW81288   0.432   4.525   6.601
26505SOL    HW181289   0.516   4.568   6.588
26505SOL    HW281290   0.369   4.581   6.554
26506SOL     OW81291   8.447   7.617   8.493
26506SOL    HW181292   8.485   7.582   8.573
26506SOL    HW281293   8.388   7.549   8.461
26507SOL     OW81294   5.576   6.092  10.488
26507SOL    HW181295   5.490   6.093  10.446
26507SOL    HW281296   5.564   6.141  10.570
26508SOL     OW81297   5.072   2.730  13.374
26508SOL    HW181298   5.153   2.759  13.331
26508SOL    HW281299   5.002   2.768  13.321
26509SOL     OW81300  11.526   7.532  11.847
26509SOL    HW181301  11.491   7.604  11.900
26509SOL    HW281302  11.543   7.462  11.909
26510SOL     OW81303  12.465   4.843   0.419
26510SOL    HW181304  12.408   4.831   0.494
26510SOL    HW281305  12.550   4.806   0.446
26511SOL     OW81306  10.584  13.981  10.362
26511SOL    HW181307  10.624  14.068  10.371
26511SOL    HW281308  10.499  13.989  10.404
26512SOL     OW81309   9.938   1.395   7.391
26512SOL    HW181310   9.894   1.395   7.477
26512SOL    HW281311   9.878   1.442   7.334
26513SOL     OW81312  14.812  13.342   9.723
26513SOL    HW181313   0.028  13.333   9.708
26513SOL    HW281314  14.791  13.431   9.693
26514SOL     OW81315   6.804   4.430   0.028
26514SOL    HW181316   6.814   4.342   0.065
26514SOL    HW281317   6.715   4.432  14.872
26515SOL     OW81318  12.039   7.480  14.587
26515SOL    HW181319  12.073   7.474  14.498
26515SOL    HW281320  12.060   7.396  14.627
26516SOL     OW81321  12.091   0.525   4.296
26516SOL    HW181322  12.060   0.614   4.311
26516SOL    HW281323  12.113   0.523   4.203
26517SOL     OW81324   4.633   2.536   3.853
26517SOL    HW181325   4.671   2.454   3.884
26517SOL    HW281326   4.557   2.509   3.802
26518SOL     OW81327   7.315   1.802  14.733
26518SOL    HW181328   7.273   1.856  14.667
26518SOL    HW281329   7.404   1.788  14.701
26519SOL     OW81330   5.624   6.830   0.891
26519SOL    HW181331   5.663   6.918   0.898
26519SOL    HW281332   5.537   6.839   0.931
26520SOL     OW81333   6.246  12.020  14.560
26520SOL    HW181334   6.216  12.105  14.526
26520SOL    HW281335   6.234  12.027  14.655
26521SOL     OW81336   9.186  12.714   5.341
26521SOL    HW181337   9.135  12.744   5.266
26521SOL    HW281338   9.170  12.779   5.409
26522SOL     OW81339   0.085   9.534   1.864
26522SOL    HW181340   0.115   9.443   1.866
26522SOL    HW281341   0.045   9.548   1.949
26523SOL     OW81342  11.594   1.259   7.680
26523SOL    HW181343  11.552   1.340   7.652
26523SOL    HW281344  11.529   1.191   7.663
26524SOL     OW81345   0.632  14.254   7.467
26524SOL    HW181346   0.619  14.159   7.467
26524SOL    HW281347   0.623  14.279   7.559
26525SOL     OW81348   8.946   5.139   3.281
26525SOL    HW181349   9.014   5.124   3.346
26525SOL    HW281350   8.948   5.061   3.225
26526SOL     OW81351   4.552   2.296   7.438
26526SOL    HW181352   4.639   2.323   7.409
26526SOL    HW281353   4.530   2.223   7.381
26527SOL     OW81354   5.989   7.111  11.184
26527SOL    HW181355   5.993   7.078  11.274
26527SOL    HW281356   5.943   7.043  11.136
26528SOL     OW81357   7.511  11.051   3.033
26528SOL    HW181358   7.495  10.958   3.016
26528SOL    HW281359   7.577  11.076   2.969
26529SOL     OW81360  13.983   7.556   1.999
26529SOL    HW181361  13.939   7.558   2.084
26529SOL    HW281362  14.039   7.478   2.004
26530SOL     OW81363  12.023   5.156   5.085
26530SOL    HW181364  11.995   5.244   5.063
26530SOL    HW281365  11.960   5.099   5.041
26531SOL     OW81366  11.176   3.752   7.871
26531SOL    HW181367  11.154   3.839   7.836
26531SOL    HW281368  11.097   3.700   7.857
26532SOL     OW81369   7.658  12.211   0.752
26532SOL    HW181370   7.593  12.192   0.684
26532SOL    HW281371   7.649  12.141   0.815
26533SOL     OW81372  13.353   5.585  10.559
26533SOL    HW181373  13.371   5.678  10.573
26533SOL    HW281374  13.350   5.576  10.463
26534SOL     OW81375  13.211   3.241   7.140
26534SOL    HW181376  13.155   3.283   7.075
26534SOL    HW281377  13.189   3.284   7.222
26535SOL     OW81378   3.759  12.357   0.125
26535SOL    HW181379   3.746  12.435   0.071
26535SOL    HW281380   3.699  12.292   0.087
26536SOL     OW81381   1.112  13.448   3.600
26536SOL    HW181382   1.065  13.459   3.682
26536SOL    HW281383   1.167  13.371   3.615
26537SOL     OW81384   1.369   8.772  12.243
26537SOL    HW181385   1.349   8.773  12.337
26537SOL    HW281386   1.345   8.684  12.214
26538SOL     OW81387  13.268   8.562   1.982
26538SOL    HW181388  13.296   8.473   2.005
26538SOL    HW281389  13.230   8.553   1.895
26539SOL     OW81390   9.034   4.694  13.553
26539SOL    HW181391   9.007   4.735  13.635
26539SOL    HW281392   9.093   4.623  13.580
26540SOL     OW81393   3.309   5.097   1.265
26540SOL    HW181394   3.382   5.142   1.223
26540SOL    HW281395   3.347   5.016   1.298
26541SOL     OW81396   7.016   1.383   2.171
26541SOL    HW181397   7.045   1.453   2.112
26541SOL    HW281398   6.925   1.405   2.191
26542SOL     OW81399   1.051   3.660   4.619
26542SOL    HW181400   1.127   3.694   4.572
26542SOL    HW281401   1.026   3.582   4.570
26543SOL     OW81402  11.955   6.877  10.246
26543SOL    HW181403  11.873   6.855  10.204
26543SOL    HW281404  11.948   6.841  10.334
26544SOL     OW81405   2.617   3.260   9.734
26544SOL    HW181406   2.625   3.354   9.753
26544SOL    HW281407   2.571   3.224   9.810
26545SOL     OW81408   5.513  14.571   6.465
26545SOL    HW181409   5.563  14.593   6.543
26545SOL    HW281410   5.442  14.635   6.462
26546SOL     OW81411   1.708  11.896   7.557
26546SOL    HW181412   1.801  11.873   7.562
26546SOL    HW281413   1.704  11.987   7.587
26547SOL     OW81414  14.258   6.406  10.823
26547SOL    HW181415  14.238   6.436  10.912
26547SOL    HW281416  14.181   6.355  10.797
26548SOL     OW81417   9.083   6.932   0.742
26548SOL    HW181418   9.156   6.971   0.694
26548SOL    HW281419   9.039   6.876   0.678
26549SOL     OW81420   5.992   1.284  11.150
26549SOL    HW181421   5.897   1.285  11.151
26549SOL    HW281422   6.018   1.364  11.197
26550SOL     OW81423   8.419   9.908   0.419
26550SOL    HW181424   8.336   9.860   0.426
26550SOL    HW281425   8.395  10.000   0.421
26551SOL     OW81426   2.312  14.626   0.274
26551SOL    HW181427   2.320  14.535   0.247
26551SOL    HW281428   2.223  14.632   0.309
26552SOL     OW81429   6.353   7.695   6.041
26552SOL    HW181430   6.350   7.608   6.080
26552SOL    HW281431   6.261   7.723   6.037
26553SOL     OW81432  11.226   7.248  11.184
26553SOL    HW181433  11.165   7.218  11.252
26553SOL    HW281434  11.308   7.202  11.203
26554SOL     OW81435   4.666  12.181   6.062
26554SOL    HW181436   4.738  12.228   6.104
26554SOL    HW281437   4.595  12.245   6.059
26555SOL     OW81438   3.016   5.444  10.573
26555SOL    HW181439   2.929   5.403  10.578
26555SOL    HW281440   3.058   5.402  10.498
26556SOL     OW81441   8.212   2.504   8.889
26556SOL    HW181442   8.126   2.546   8.887
26556SOL    HW281443   8.201   2.425   8.837
26557SOL     OW81444   3.889   9.977   4.525
26557SOL    HW181445   3.984   9.970   4.525
26557SOL    HW281446   3.866  10.003   4.436
26558SOL     OW81447   0.254   5.603   9.630
26558SOL    HW181448   0.220   5.667   9.567
26558SOL    HW281449   0.190   5.604   9.701
26559SOL     OW81450  11.696  14.179   2.549
26559SOL    HW181451  11.635  14.221   2.488
26559SOL    HW281452  11.776  14.230   2.542
26560SOL     OW81453   8.388   8.955   1.119
26560SOL    HW181454   8.304   8.965   1.074
26560SOL    HW281455   8.365   8.918   1.205
26561SOL     OW81456   4.184  13.712  10.307
26561SOL    HW181457   4.269  13.670  10.319
26561SOL    HW281458   4.188  13.788  10.365
26562SOL     OW81459   2.563   1.332   2.584
26562SOL    HW181460   2.631   1.386   2.544
26562SOL    HW281461   2.486   1.347   2.530
26563SOL     OW81462   7.502  12.884   5.865
26563SOL    HW181463   7.507  12.954   5.800
26563SOL    HW281464   7.408  12.866   5.873
26564SOL     OW81465  12.331   6.576   7.381
26564SOL    HW181466  12.282   6.635   7.437
26564SOL    HW281467  12.266   6.539   7.322
26565SOL     OW81468   0.713   9.152   9.788
26565SOL    HW181469   0.632   9.178   9.832
26565SOL    HW281470   0.685   9.084   9.726
26566SOL     OW81471   3.331   8.733   8.137
26566SOL    HW181472   3.421   8.764   8.131
26566SOL    HW281473   3.301   8.763   8.223
26567SOL     OW81474  11.566  13.638  14.345
26567SOL    HW181475  11.545  13.549  14.317
26567SOL    HW281476  11.482  13.676  14.370
26568SOL     OW81477   1.220  13.249   0.083
26568SOL    HW181478   1.287  13.317   0.088
26568SOL    HW281479   1.230  13.212  14.873
26569SOL     OW81480   9.617   4.989   7.382
26569SOL    HW181481   9.527   4.983   7.412
26569SOL    HW281482   9.631   4.909   7.330
26570SOL     OW81483   6.630   3.918   8.667
26570SOL    HW181484   6.557   3.887   8.721
26570SOL    HW281485   6.594   3.994   8.621
26571SOL     OW81486   1.998   5.896   7.446
26571SOL    HW181487   1.950   5.923   7.525
26571SOL    HW281488   2.067   5.839   7.478
26572SOL     OW81489   2.446   3.539   7.185
26572SOL    HW181490   2.387   3.498   7.121
26572SOL    HW281491   2.470   3.467   7.243
26573SOL     OW81492  14.311   8.935   8.686
26573SOL    HW181493  14.332   8.843   8.670
26573SOL    HW281494  14.238   8.953   8.626
26574SOL     OW81495   3.251   3.695   1.114
26574SOL    HW181496   3.344   3.713   1.120
26574SOL    HW281497   3.215   3.771   1.068
26575SOL     OW81498   9.499  13.032   5.270
26575SOL    HW181499   9.487  13.072   5.356
26575SOL    HW281500   9.537  12.946   5.288
26576SOL     OW81501  14.071   3.673   4.341
26576SOL    HW181502  14.018   3.741   4.300
26576SOL    HW281503  14.048   3.593   4.294
26577SOL     OW81504   3.706  11.493  10.662
26577SOL    HW181505   3.687  11.515  10.571
26577SOL    HW281506   3.716  11.577  10.706
26578SOL     OW81507  14.259  14.729   9.291
26578SOL    HW181508  14.177  14.769   9.322
26578SOL    HW281509  14.289  14.788   9.222
26579SOL     OW81510   8.180  10.295  11.367
26579SOL    HW181511   8.187  10.244  11.447
26579SOL    HW281512   8.226  10.243  11.301
26580SOL     OW81513   2.461   8.154  10.927
26580SOL    HW181514   2.453   8.063  10.957
26580SOL    HW281515   2.489   8.202  11.005
26581SOL     OW81516   8.945   2.201   4.378
26581SOL    HW181517   8.855   2.232   4.387
26581SOL    HW281518   8.954   2.135   4.447
26582SOL     OW81519   5.616   8.680  13.150
26582SOL    HW181520   5.579   8.596  13.175
26582SOL    HW281521   5.574   8.701  13.066
26583SOL     OW81522   2.783  11.162   5.611
26583SOL    HW181523   2.859  11.123   5.567
26583SOL    HW281524   2.732  11.087   5.642
26584SOL     OW81525   2.918  14.222   7.643
26584SOL    HW181526   2.972  14.238   7.565
26584SOL    HW281527   2.918  14.127   7.653
26585SOL     OW81528   2.142   2.695  14.368
26585SOL    HW181529   2.214   2.662  14.421
26585SOL    HW281530   2.087   2.744  14.429
26586SOL     OW81531  11.164   1.736   1.425
26586SOL    HW181532  11.131   1.799   1.488
26586SOL    HW281533  11.092   1.724   1.363
26587SOL     OW81534  10.856  11.641   2.818
26587SOL    HW181535  10.952  11.636   2.818
26587SOL    HW281536  10.836  11.706   2.885
26588SOL     OW81537  12.969   1.365   4.082
26588SOL    HW181538  12.917   1.429   4.130
26588SOL    HW281539  13.006   1.413   4.008
26589SOL     OW81540   5.779  13.523   7.435
26589SOL    HW181541   5.855  13.476   7.402
26589SOL    HW281542   5.715  13.455   7.457
26590SOL     OW81543   5.163   3.454  10.163
26590SOL    HW181544   5.140   3.364  10.142
26590SOL    HW281545   5.258   3.453  10.173
26591SOL     OW81546   8.672   7.986   7.550
26591SOL    HW181547   8.698   8.078   7.550
26591SOL    HW281548   8.735   7.943   7.493
26592SOL     OW81549   3.233  14.095   5.493
26592SOL    HW181550   3.207  14.053   5.575
26592SOL    HW281551   3.268  14.023   5.440
26593SOL     OW81552   6.289   7.081  12.394
26593SOL    HW181553   6.292   7.135  12.473
26593SOL    HW281554   6.347   7.007  12.413
26594SOL     OW81555  11.837  14.062   4.358
26594SOL    HW181556  11.836  14.082   4.451
26594SOL    HW281557  11.880  14.137   4.317
26595SOL     OW81558  11.769   1.187   0.461
26595SOL    HW181559  11.696   1.170   0.520
26595SOL    HW281560  11.776   1.283   0.460
26596SOL     OW81561   3.738  11.122   1.477
26596SOL    HW181562   3.665  11.131   1.416
26596SOL    HW281563   3.729  11.033   1.512
26597SOL     OW81564   3.338  12.126  12.120
26597SOL    HW181565   3.367  12.040  12.090
26597SOL    HW281566   3.257  12.142  12.070
26598SOL     OW81567   7.971   5.645  14.347
26598SOL    HW181568   7.913   5.652  14.423
26598SOL    HW281569   7.929   5.581  14.290
26599SOL     OW81570   4.770  10.433  11.155
26599SOL    HW181571   4.866  10.430  11.153
26599SOL    HW281572   4.750  10.482  11.235
26600SOL     OW81573   9.951   1.966   0.883
26600SOL    HW181574   9.876   1.951   0.940
26600SOL    HW281575   9.913   1.996   0.801
26601SOL     OW81576   8.738  10.769  11.096
26601SOL    HW181577   8.736  10.692  11.040
26601SOL    HW281578   8.791  10.833  11.048
26602SOL     OW81579   5.430   2.646  12.954
26602SOL    HW181580   5.420   2.584  12.882
26602SOL    HW281581   5.501   2.704  12.927
26603SOL     OW81582   1.754   1.525  12.655
26603SOL    HW181583   1.661   1.550  12.650
26603SOL    HW281584   1.761   1.447  12.600
26604SOL     OW81585  12.534   5.210  12.590
26604SOL    HW181586  12.458   5.233  12.536
26604SOL    HW281587  12.606   5.200  12.527
26605SOL     OW81588   3.496   9.865   6.745
26605SOL    HW181589   3.572   9.843   6.691
26605SOL    HW281590   3.518   9.949   6.785
26606SOL     OW81591   3.119   6.677   2.242
26606SOL    HW181592   3.117   6.581   2.238
26606SOL    HW281593   3.029   6.703   2.259
26607SOL     OW81594   8.314  12.774   1.908
26607SOL    HW181595   8.359  12.751   1.989
26607SOL    HW281596   8.225  12.741   1.920
26608SOL     OW81597  14.309  13.259  13.422
26608SOL    HW181598  14.378  13.302  13.371
26608SOL    HW281599  14.229  13.307  13.400
26609SOL     OW81600   5.589  11.226  12.793
26609SOL    HW181601   5.577  11.318  12.818
26609SOL    HW281602   5.539  11.217  12.712
26610SOL     OW81603  13.960   1.577  10.582
26610SOL    HW181604  13.964   1.580  10.678
26610SOL    HW281605  13.896   1.509  10.563
26611SOL     OW81606  14.826   6.872   0.157
26611SOL    HW181607  14.835   6.967   0.166
26611SOL    HW281608  14.843   6.856   0.064
26612SOL     OW81609   1.822   5.464   5.498
26612SOL    HW181610   1.775   5.406   5.439
26612SOL    HW281611   1.915   5.451   5.477
26613SOL     OW81612   7.847   5.679   0.618
26613SOL    HW181613   7.840   5.603   0.561
26613SOL    HW281614   7.854   5.753   0.559
26614SOL     OW81615   7.603   5.850  13.840
26614SOL    HW181616   7.637   5.930  13.880
26614SOL    HW281617   7.671   5.784  13.855
26615SOL     OW81618  10.108  11.190  14.304
26615SOL    HW181619  10.160  11.256  14.257
26615SOL    HW281620  10.136  11.107  14.266
26616SOL     OW81621  11.513  10.158   9.727
26616SOL    HW181622  11.488  10.211   9.802
26616SOL    HW281623  11.495  10.068   9.753
26617SOL     OW81624   7.481  11.871   0.043
26617SOL    HW181625   7.501  11.817   0.120
26617SOL    HW281626   7.536  11.948   0.053
26618SOL     OW81627  12.046   9.008   7.586
26618SOL    HW181628  12.032   9.087   7.533
26618SOL    HW281629  11.962   8.961   7.580
26619SOL     OW81630   2.303   9.917  10.394
26619SOL    HW181631   2.376   9.862  10.369
26619SOL    HW281632   2.246   9.860  10.446
26620SOL     OW81633   3.487   0.040   0.510
26620SOL    HW181634   3.541   0.001   0.580
26620SOL    HW281635   3.398   0.035   0.543
26621SOL     OW81636   6.974   5.618   6.877
26621SOL    HW181637   6.992   5.596   6.786
26621SOL    HW281638   7.059   5.639   6.914
26622SOL     OW81639   4.126   7.455  11.481
26622SOL    HW181640   4.174   7.467  11.562
26622SOL    HW281641   4.098   7.543  11.457
26623SOL     OW81642   8.592   2.797   0.047
26623SOL    HW181643   8.638   2.720   0.080
26623SOL    HW281644   8.647   2.871   0.072
26624SOL     OW81645   9.357  14.778   7.506
26624SOL    HW181646   9.378  14.688   7.482
26624SOL    HW281647   9.419  14.800   7.575
26625SOL     OW81648   6.338  14.159  12.804
26625SOL    HW181649   6.286  14.119  12.734
26625SOL    HW281650   6.417  14.105  12.809
26626SOL     OW81651   5.069   7.581   5.065
26626SOL    HW181652   5.022   7.626   4.995
26626SOL    HW281653   5.158   7.616   5.060
26627SOL     OW81654   9.510  13.483   5.734
26627SOL    HW181655   9.419  13.466   5.708
26627SOL    HW281656   9.505  13.563   5.787
26628SOL     OW81657   1.043  11.534   8.141
26628SOL    HW181658   0.974  11.548   8.206
26628SOL    HW281659   1.125  11.546   8.190
26629SOL     OW81660   7.004  13.421   9.966
26629SOL    HW181661   7.064  13.349   9.947
26629SOL    HW281662   7.006  13.428  10.062
26630SOL     OW81663  12.767   5.472   6.765
26630SOL    HW181664  12.851   5.447   6.803
26630SOL    HW281665  12.759   5.418   6.686
26631SOL     OW81666   5.210   1.622   1.098
26631SOL    HW181667   5.134   1.657   1.052
26631SOL    HW281668   5.282   1.632   1.037
26632SOL     OW81669  10.088   1.847   5.793
26632SOL    HW181670  10.068   1.868   5.702
26632SOL    HW281671  10.150   1.915   5.821
26633SOL     OW81672   5.015   5.321  13.495
26633SOL    HW181673   4.976   5.234  13.488
26633SOL    HW281674   4.964   5.364  13.564
26634SOL     OW81675  14.708   6.538  12.335
26634SOL    HW181676  14.676   6.608  12.392
26634SOL    HW281677  14.796   6.566  12.309
26635SOL     OW81678   8.634  14.123   8.042
26635SOL    HW181679   8.713  14.070   8.034
26635SOL    HW281680   8.622  14.134   8.136
26636SOL     OW81681   4.064  10.492  14.479
26636SOL    HW181682   4.122  10.453  14.544
26636SOL    HW281683   4.121  10.511  14.404
26637SOL     OW81684  13.116  12.837   7.545
26637SOL    HW181685  13.035  12.790   7.566
26637SOL    HW281686  13.176  12.814   7.615
26638SOL     OW81687   6.359   1.776   1.442
26638SOL    HW181688   6.347   1.869   1.421
26638SOL    HW281689   6.393   1.738   1.361
26639SOL     OW81690   1.287  13.309   1.074
26639SOL    HW181691   1.333  13.393   1.078
26639SOL    HW281692   1.239  13.304   1.157
26640SOL     OW81693   7.186   0.391   5.850
26640SOL    HW181694   7.168   0.315   5.905
26640SOL    HW281695   7.118   0.388   5.782
26641SOL     OW81696  14.400   1.041   9.596
26641SOL    HW181697  14.388   0.952   9.561
26641SOL    HW281698  14.468   1.079   9.541
26642SOL     OW81699   3.929   4.193   8.515
26642SOL    HW181700   3.847   4.183   8.467
26642SOL    HW281701   3.903   4.233   8.598
26643SOL     OW81702   1.755  11.115  13.101
26643SOL    HW181703   1.664  11.088  13.089
26643SOL    HW281704   1.748  11.207  13.129
26644SOL     OW81705   2.951  12.165   8.771
26644SOL    HW181706   3.022  12.227   8.787
26644SOL    HW281707   2.939  12.120   8.855
26645SOL     OW81708   7.769  14.280   9.543
26645SOL    HW181709   7.854  14.324   9.540
26645SOL    HW281710   7.790  14.187   9.537
26646SOL     OW81711   7.020   7.178  14.437
26646SOL    HW181712   6.931   7.144  14.424
26646SOL    HW281713   7.014   7.231  14.516
26647SOL     OW81714   6.335   7.827   3.511
26647SOL    HW181715   6.388   7.862   3.582
26647SOL    HW281716   6.357   7.880   3.435
26648SOL     OW81717  11.459   3.290   0.201
26648SOL    HW181718  11.549   3.263   0.218
26648SOL    HW281719  11.456   3.382   0.229
26649SOL     OW81720  10.087  10.871   9.124
26649SOL    HW181721  10.114  10.780   9.107
26649SOL    HW281722  10.019  10.864   9.191
26650SOL     OW81723  14.212   5.843  12.849
26650SOL    HW181724  14.238   5.751  12.852
26650SOL    HW281725  14.165   5.852  12.766
26651SOL     OW81726  14.081   1.190   9.805
26651SOL    HW181727  14.035   1.225   9.881
26651SOL    HW281728  14.068   1.095   9.811
26652SOL     OW81729   1.486   0.370   8.934
26652SOL    HW181730   1.531   0.293   8.899
26652SOL    HW281731   1.414   0.334   8.986
26653SOL     OW81732  14.290  12.889   0.669
26653SOL    HW181733  14.201  12.900   0.701
26653SOL    HW281734  14.282  12.895   0.574
26654SOL     OW81735   2.878  10.457   8.564
26654SOL    HW181736   2.891  10.439   8.657
26654SOL    HW281737   2.957  10.424   8.521
26655SOL     OW81738  14.118   0.528   0.889
26655SOL    HW181739  14.075   0.470   0.951
26655SOL    HW281740  14.211   0.524   0.913
26656SOL     OW81741   4.012   7.227   9.546
26656SOL    HW181742   4.020   7.249   9.639
26656SOL    HW281743   4.011   7.312   9.502
26657SOL     OW81744  14.439  14.233   8.393
26657SOL    HW181745  14.456  14.140   8.406
26657SOL    HW281746  14.424  14.242   8.299
26658SOL     OW81747  14.738   1.400   7.572
26658SOL    HW181748  14.660   1.450   7.598
26658SOL    HW281749  14.714   1.360   7.489
26659SOL     OW81750  12.551   3.482   9.323
26659SOL    HW181751  12.541   3.453   9.232
26659SOL    HW281752  12.569   3.401   9.372
26660SOL     OW81753   1.914   5.861   6.008
26660SOL    HW181754   1.936   5.861   5.915
26660SOL    HW281755   1.984   5.811   6.050
26661SOL     OW81756  10.348   1.539  14.397
26661SOL    HW181757  10.279   1.605  14.393
26661SOL    HW281758  10.385   1.538  14.309
26662SOL     OW81759  11.865  14.448  10.116
26662SOL    HW181760  11.913  14.509  10.172
26662SOL    HW281761  11.785  14.428  10.165
26663SOL     OW81762   2.039   4.688   8.364
26663SOL    HW181763   1.999   4.750   8.303
26663SOL    HW281764   2.100   4.742   8.415
26664SOL     OW81765  12.306  13.768  11.243
26664SOL    HW181766  12.336  13.686  11.281
26664SOL    HW281767  12.379  13.798  11.189
26665SOL     OW81768  14.349   1.778   9.715
26665SOL    HW181769  14.360   1.700   9.769
26665SOL    HW281770  14.405   1.844   9.757
26666SOL     OW81771  11.072   0.370   4.197
26666SOL    HW181772  11.022   0.298   4.159
26666SOL    HW281773  11.099   0.424   4.123
26667SOL     OW81774   9.148  10.284   4.849
26667SOL    HW181775   9.184  10.295   4.761
26667SOL    HW281776   9.166  10.192   4.870
26668SOL     OW81777   5.210   6.916  10.528
26668SOL    HW181778   5.282   6.857  10.552
26668SOL    HW281779   5.141   6.858  10.496
26669SOL     OW81780   6.246   0.539   5.783
26669SOL    HW181781   6.335   0.568   5.762
26669SOL    HW281782   6.214   0.500   5.701
26670SOL     OW81783   1.897  14.780   4.198
26670SOL    HW181784   1.871  14.834   4.124
26670SOL    HW281785   1.840  14.704   4.194
26671SOL     OW81786   9.845   9.136   9.908
26671SOL    HW181787   9.780   9.066   9.904
26671SOL    HW281788   9.834   9.185   9.826
26672SOL     OW81789   8.501   3.890  10.502
26672SOL    HW181790   8.488   3.800  10.473
26672SOL    HW281791   8.532   3.881  10.593
26673SOL     OW81792   5.644   8.509   0.571
26673SOL    HW181793   5.699   8.443   0.613
26673SOL    HW281794   5.645   8.583   0.632
26674SOL     OW81795  10.123   4.487   5.496
26674SOL    HW181796  10.190   4.440   5.448
26674SOL    HW281797  10.049   4.493   5.435
26675SOL     OW81798  11.735   3.465   3.218
26675SOL    HW181799  11.692   3.384   3.248
26675SOL    HW281800  11.712   3.471   3.126
26676SOL     OW81801   7.291  12.267  13.233
26676SOL    HW181802   7.266  12.359  13.237
26676SOL    HW281803   7.366  12.261  13.293
26677SOL     OW81804  10.374  10.261   9.056
26677SOL    HW181805  10.459  10.296   9.028
26677SOL    HW281806  10.310  10.325   9.026
26678SOL     OW81807  14.251   6.054   3.349
26678SOL    HW181808  14.316   6.124   3.350
26678SOL    HW281809  14.251   6.021   3.439
26679SOL     OW81810   2.049   1.841   9.201
26679SOL    HW181811   1.984   1.825   9.133
26679SOL    HW281812   2.108   1.766   9.195
26680SOL     OW81813   6.477  10.230   5.624
26680SOL    HW181814   6.529  10.256   5.548
26680SOL    HW281815   6.410  10.172   5.589
26681SOL     OW81816   3.145  11.714   5.162
26681SOL    HW181817   3.205  11.706   5.088
26681SOL    HW281818   3.140  11.626   5.198
26682SOL     OW81819   0.249   3.674   3.350
26682SOL    HW181820   0.244   3.581   3.370
26682SOL    HW281821   0.170   3.692   3.300
26683SOL     OW81822  12.602   3.679  10.275
26683SOL    HW181823  12.593   3.768  10.241
26683SOL    HW281824  12.600   3.623  10.197
26684SOL     OW81825   8.957  10.833  11.590
26684SOL    HW181826   8.881  10.878  11.553
26684SOL    HW281827   8.978  10.766  11.525
26685SOL     OW81828  11.207   5.401   0.975
26685SOL    HW181829  11.232   5.325   0.924
26685SOL    HW281830  11.280   5.415   1.035
26686SOL     OW81831   7.586   6.708   9.704
26686SOL    HW181832   7.522   6.643   9.675
26686SOL    HW281833   7.559   6.730   9.793
26687SOL     OW81834   5.616   0.782  14.371
26687SOL    HW181835   5.689   0.843  14.383
26687SOL    HW281836   5.537   0.836  14.382
26688SOL     OW81837  12.975  14.024   6.487
26688SOL    HW181838  12.912  14.090   6.515
26688SOL    HW281839  13.056  14.048   6.530
26689SOL     OW81840   6.032  12.075   9.202
26689SOL    HW181841   6.041  12.125   9.121
26689SOL    HW281842   6.043  11.984   9.175
26690SOL     OW81843   7.802   9.470  14.134
26690SOL    HW181844   7.770   9.511  14.054
26690SOL    HW281845   7.732   9.483  14.198
26691SOL     OW81846   1.857   9.175   7.225
26691SOL    HW181847   1.831   9.178   7.317
26691SOL    HW281848   1.876   9.266   7.202
26692SOL     OW81849   8.802   3.016  10.695
26692SOL    HW181850   8.825   3.075  10.624
26692SOL    HW281851   8.886   2.980  10.725
26693SOL     OW81852   1.862   0.676  11.166
26693SOL    HW181853   1.793   0.737  11.193
26693SOL    HW281854   1.858   0.676  11.070
26694SOL     OW81855  11.793   2.156   8.980
26694SOL    HW181856  11.720   2.152   8.918
26694SOL    HW281857  11.760   2.209   9.053
26695SOL     OW81858  10.929   4.429   0.100
26695SOL    HW181859  10.854   4.375   0.127
26695SOL    HW281860  10.889   4.506   0.060
26696SOL     OW81861   1.592   4.807   8.436
26696SOL    HW181862   1.598   4.863   8.514
26696SOL    HW281863   1.600   4.867   8.363
26697SOL     OW81864   1.849  11.238  11.875
26697SOL    HW181865   1.898  11.320  11.888
26697SOL    HW281866   1.757  11.264  11.881
26698SOL     OW81867   3.846  14.094   3.213
26698SOL    HW181868   3.865  14.086   3.306
26698SOL    HW281869   3.878  14.181   3.189
26699SOL     OW81870   0.444  11.429   8.154
26699SOL    HW181871   0.459  11.459   8.064
26699SOL    HW281872   0.355  11.456   8.174
26700SOL     OW81873  13.676   0.289   9.293
26700SOL    HW181874  13.664   0.237   9.373
26700SOL    HW281875  13.646   0.232   9.222
26701SOL     OW81876   9.054   1.978   2.041
26701SOL    HW181877   9.146   1.956   2.051
26701SOL    HW281878   9.038   2.047   2.105
26702SOL     OW81879   6.143   6.261   7.211
26702SOL    HW181880   6.196   6.249   7.290
26702SOL    HW281881   6.134   6.356   7.202
26703SOL     OW81882   9.690   2.080   1.524
26703SOL    HW181883   9.690   1.987   1.546
26703SOL    HW281884   9.603   2.095   1.486
26704SOL     OW81885   8.879   6.689   6.892
26704SOL    HW181886   8.906   6.639   6.969
26704SOL    HW281887   8.962   6.713   6.849
26705SOL     OW81888  10.414   2.938  11.438
26705SOL    HW181889  10.339   2.999  11.434
26705SOL    HW281890  10.393   2.871  11.373
26706SOL     OW81891  14.036   3.428   0.798
26706SOL    HW181892  14.088   3.406   0.876
26706SOL    HW281893  14.092   3.488   0.749
26707SOL     OW81894   3.909   9.085   5.973
26707SOL    HW181895   3.964   9.087   6.052
26707SOL    HW281896   3.874   8.996   5.972
26708SOL     OW81897  12.143  13.687   6.703
26708SOL    HW181898  12.156  13.713   6.612
26708SOL    HW281899  12.050  13.666   6.709
26709SOL     OW81900  12.128   5.851  14.627
26709SOL    HW181901  12.117   5.815  14.539
26709SOL    HW281902  12.063   5.804  14.680
26710SOL     OW81903   4.425   8.701  10.466
26710SOL    HW181904   4.437   8.796  10.463
26710SOL    HW281905   4.469   8.669  10.387
26711SOL     OW81906   0.308   1.780   2.214
26711SOL    HW181907   0.394   1.744   2.236
26711SOL    HW281908   0.273   1.809   2.298
26712SOL     OW81909   8.676  10.011   7.627
26712SOL    HW181910   8.580  10.014   7.625
26712SOL    HW281911   8.703  10.059   7.548
26713SOL     OW81912  13.492   8.056   1.906
26713SOL    HW181913  13.544   8.009   1.841
26713SOL    HW281914  13.512   8.013   1.989
26714SOL     OW81915   5.810   5.682  12.648
26714SOL    HW181916   5.793   5.747  12.579
26714SOL    HW281917   5.888   5.635  12.617
26715SOL     OW81918  10.631   6.153   2.518
26715SOL    HW181919  10.586   6.189   2.441
26715SOL    HW281920  10.614   6.217   2.587
26716SOL     OW81921  10.854  13.972   0.264
26716SOL    HW181922  10.883  13.951   0.353
26716SOL    HW281923  10.853  14.068   0.261
26717SOL     OW81924   1.888  11.706   7.995
26717SOL    HW181925   1.941  11.681   7.919
26717SOL    HW281926   1.952  11.718   8.065
26718SOL     OW81927  11.977   1.751  13.915
26718SOL    HW181928  12.027   1.727  13.993
26718SOL    HW281929  11.946   1.840  13.932
26719SOL     OW81930  14.683   5.483   5.849
26719SOL    HW181931  14.684   5.402   5.900
26719SOL    HW281932  14.733   5.463   5.770
26720SOL     OW81933  13.652   0.879  12.953
26720SOL    HW181934  13.722   0.923  13.001
26720SOL    HW281935  13.573   0.928  12.975
26721SOL     OW81936  13.280  10.983   8.432
26721SOL    HW181937  13.304  10.929   8.356
26721SOL    HW281938  13.201  11.030   8.403
26722SOL     OW81939   7.211   8.590  13.834
26722SOL    HW181940   7.148   8.565  13.767
26722SOL    HW281941   7.228   8.683  13.817
26723SOL     OW81942  11.344   6.265  13.579
26723SOL    HW181943  11.400   6.203  13.627
26723SOL    HW281944  11.401   6.339  13.560
26724SOL     OW81945   2.854  10.422   0.590
26724SOL    HW181946   2.865  10.327   0.586
26724SOL    HW281947   2.943  10.456   0.593
26725SOL     OW81948  13.785  13.739  14.389
26725SOL    HW181949  13.796  13.834  14.388
26725SOL    HW281950  13.802  13.714  14.480
26726SOL     OW81951   2.158   3.341  13.544
26726SOL    HW181952   2.178   3.381  13.629
26726SOL    HW281953   2.064   3.323  13.548
26727SOL     OW81954   6.592   0.308  14.078
26727SOL    HW181955   6.585   0.319  13.983
26727SOL    HW281956   6.644   0.383  14.107
26728SOL     OW81957  12.795   5.054  13.610
26728SOL    HW181958  12.835   5.078  13.694
26728SOL    HW281959  12.865   5.067  13.546
26729SOL     OW81960   9.306   8.275   6.182
26729SOL    HW181961   9.338   8.186   6.163
26729SOL    HW281962   9.250   8.265   6.259
26730SOL     OW81963   8.174   1.151   8.979
26730SOL    HW181964   8.161   1.211   8.905
26730SOL    HW281965   8.192   1.066   8.939
26731SOL     OW81966   8.936   9.954  11.465
26731SOL    HW181967   8.926   9.862  11.441
26731SOL    HW281968   8.921   9.956  11.560
26732SOL     OW81969  14.170   1.979   5.480
26732SOL    HW181970  14.074   1.983   5.482
26732SOL    HW281971  14.194   1.936   5.562
26733SOL     OW81972   5.091   6.134   7.003
26733SOL    HW181973   5.092   6.228   6.987
26733SOL    HW281974   5.184   6.108   7.001
26734SOL     OW81975   9.629  12.341   7.820
26734SOL    HW181976   9.704  12.284   7.802
26734SOL    HW281977   9.560  12.281   7.848
26735SOL     OW81978   0.836  10.769   6.920
26735SOL    HW181979   0.851  10.863   6.904
26735SOL    HW281980   0.741  10.758   6.909
26736SOL     OW81981   7.117   7.385  11.839
26736SOL    HW181982   7.089   7.476  11.833
26736SOL    HW281983   7.126   7.356  11.748
26737SOL     OW81984  11.946   6.108   6.251
26737SOL    HW181985  11.858   6.096   6.287
26737SOL    HW281986  11.946   6.058   6.169
26738SOL     OW81987   6.409   8.527  11.663
26738SOL    HW181988   6.372   8.566  11.583
26738SOL    HW281989   6.381   8.585  11.733
26739SOL     OW81990   6.281  14.207  13.119
26739SOL    HW181991   6.311  14.161  13.040
26739SOL    HW281992   6.268  14.138  13.184
26740SOL     OW81993  10.241   9.550   1.878
26740SOL    HW181994  10.231   9.607   1.802
26740SOL    HW281995  10.187   9.474   1.858
26741SOL     OW81996  12.416   4.843   4.737
26741SOL    HW181997  12.444   4.896   4.811
26741SOL    HW281998  12.437   4.896   4.660
26742SOL     OW81999   2.319   3.534   6.403
26742SOL    HW182000   2.410   3.504   6.407
26742SOL    HW282001   2.285   3.496   6.323
26743SOL     OW82002   4.157   1.544  11.396
26743SOL    HW182003   4.123   1.477  11.455
26743SOL    HW282004   4.091   1.548  11.326
26744SOL     OW82005   0.942   4.151  12.125
26744SOL    HW182006   0.905   4.141  12.037
26744SOL    HW282007   0.952   4.246  12.136
26745SOL     OW82008   5.869   1.544  14.409
26745SOL    HW182009   5.942   1.563  14.349
26745SOL    HW282010   5.907   1.485  14.474
26746SOL     OW82011   3.131   0.469   2.660
26746SOL    HW182012   3.221   0.436   2.669
26746SOL    HW282013   3.142   0.561   2.635
26747SOL     OW82014   0.855   0.788   3.223
26747SOL    HW182015   0.897   0.777   3.137
26747SOL    HW282016   0.921   0.834   3.275
26748SOL     OW82017  12.602  13.660   9.938
26748SOL    HW182018  12.623  13.689  10.027
26748SOL    HW282019  12.673  13.601   9.914
26749SOL     OW82020   6.909  10.968  10.365
26749SOL    HW182021   6.951  10.883  10.380
26749SOL    HW282022   6.975  11.032  10.391
26750SOL     OW82023   3.009   4.750   6.767
26750SOL    HW182024   2.964   4.739   6.851
26750SOL    HW282025   2.965   4.824   6.726
26751SOL     OW82026  13.254  13.986  10.078
26751SOL    HW182027  13.206  13.949  10.004
26751SOL    HW282028  13.300  14.062  10.041
26752SOL     OW82029   4.625   4.653   7.673
26752SOL    HW182030   4.695   4.602   7.630
26752SOL    HW282031   4.547   4.599   7.662
26753SOL     OW82032   7.523  11.735   1.307
26753SOL    HW182033   7.581  11.659   1.310
26753SOL    HW282034   7.467  11.725   1.385
26754SOL     OW82035  13.304   9.240   7.077
26754SOL    HW182036  13.210   9.227   7.083
26754SOL    HW282037  13.315   9.303   7.006
26755SOL     OW82038   7.604   5.358   7.346
26755SOL    HW182039   7.634   5.269   7.327
26755SOL    HW282040   7.684   5.410   7.348
26756SOL     OW82041   6.149   6.080   4.483
26756SOL    HW182042   6.115   5.998   4.447
26756SOL    HW282043   6.079   6.113   4.539
26757SOL     OW82044  12.121   4.328   6.691
26757SOL    HW182045  12.145   4.237   6.675
26757SOL    HW282046  12.132   4.340   6.786
26758SOL     OW82047   7.643   6.113   4.052
26758SOL    HW182048   7.709   6.056   4.092
26758SOL    HW282049   7.581   6.053   4.011
26759SOL     OW82050   3.877  14.470   5.244
26759SOL    HW182051   3.901  14.515   5.325
26759SOL    HW282052   3.882  14.377   5.266
26760SOL     OW82053  14.559  10.070   3.589
26760SOL    HW182054  14.644  10.027   3.575
26760SOL    HW282055  14.581  10.150   3.635
26761SOL     OW82056  14.712   8.771  13.240
26761SOL    HW182057  14.768   8.700  13.208
26761SOL    HW282058  14.770   8.846  13.246
26762SOL     OW82059  14.121   8.279   7.068
26762SOL    HW182060  14.174   8.322   7.000
26762SOL    HW282061  14.050   8.341   7.086
26763SOL     OW82062   3.634   6.647  12.612
26763SOL    HW182063   3.679   6.641  12.528
26763SOL    HW282064   3.704   6.645  12.677
26764SOL     OW82065   8.261   5.054   2.962
26764SOL    HW182066   8.182   5.090   2.922
26764SOL    HW282067   8.236   5.035   3.052
26765SOL     OW82068   6.104   1.471   0.622
26765SOL    HW182069   6.195   1.488   0.596
26765SOL    HW282070   6.060   1.447   0.540
26766SOL     OW82071   9.915   4.766   6.700
26766SOL    HW182072   9.982   4.707   6.667
26766SOL    HW282073   9.905   4.832   6.631
26767SOL     OW82074   1.431   5.211  10.472
26767SOL    HW182075   1.415   5.146  10.541
26767SOL    HW282076   1.359   5.273  10.479
26768SOL     OW82077  13.545   0.556   8.787
26768SOL    HW182078  13.461   0.522   8.817
26768SOL    HW282079  13.529   0.581   8.696
26769SOL     OW82080   3.761   3.696   1.466
26769SOL    HW182081   3.786   3.609   1.435
26769SOL    HW282082   3.743   3.683   1.559
26770SOL     OW82083   9.427   0.799   9.729
26770SOL    HW182084   9.418   0.839   9.816
26770SOL    HW282085   9.517   0.817   9.704
26771SOL     OW82086   5.340   3.984  10.219
26771SOL    HW182087   5.324   3.891  10.232
26771SOL    HW282088   5.283   4.009  10.146
26772SOL     OW82089   0.710  12.501  14.775
26772SOL    HW182090   0.750  12.432  14.829
26772SOL    HW282091   0.667  12.559  14.839
26773SOL     OW82092   5.304   8.475   2.682
26773SOL    HW182093   5.379   8.441   2.633
26773SOL    HW282094   5.304   8.426   2.764
26774SOL     OW82095   2.869   3.683  14.757
26774SOL    HW182096   2.958   3.689  14.723
26774SOL    HW282097   2.841   3.774  14.769
26775SOL     OW82098  10.705   8.026  10.017
26775SOL    HW182099  10.706   7.986   9.930
26775SOL    HW282100  10.611   8.035  10.037
26776SOL     OW82101  14.188   5.325   8.947
26776SOL    HW182102  14.120   5.285   9.001
26776SOL    HW282103  14.193   5.269   8.869
26777SOL     OW82104   7.001  12.057   1.764
26777SOL    HW182105   7.012  12.043   1.858
26777SOL    HW282106   7.045  11.982   1.723
26778SOL     OW82107   3.908   4.872  11.310
26778SOL    HW182108   3.829   4.876  11.363
26778SOL    HW282109   3.949   4.788  11.332
26779SOL     OW82110  11.691  13.047  12.681
26779SOL    HW182111  11.650  13.133  12.682
26779SOL    HW282112  11.728  13.036  12.768
26780SOL     OW82113  13.072   8.742  11.107
26780SOL    HW182114  13.095   8.649  11.100
26780SOL    HW282115  13.104   8.780  11.025
26781SOL     OW82116   4.115   3.675   8.869
26781SOL    HW182117   4.022   3.695   8.857
26781SOL    HW282118   4.159   3.731   8.805
26782SOL     OW82119   6.082   8.498   3.057
26782SOL    HW182120   6.080   8.405   3.036
26782SOL    HW282121   6.126   8.539   2.982
26783SOL     OW82122   2.693   2.817  10.507
26783SOL    HW182123   2.657   2.730  10.490
26783SOL    HW282124   2.620   2.866  10.544
26784SOL     OW82125   8.899   1.012  11.906
26784SOL    HW182126   8.971   1.060  11.866
26784SOL    HW282127   8.847   0.981  11.832
26785SOL     OW82128  10.109   6.286   1.820
26785SOL    HW182129  10.087   6.216   1.759
26785SOL    HW282130  10.035   6.346   1.815
26786SOL     OW82131   1.522   2.727   2.072
26786SOL    HW182132   1.533   2.660   2.004
26786SOL    HW282133   1.611   2.754   2.094
26787SOL     OW82134   4.373  14.739   7.123
26787SOL    HW182135   4.378  14.661   7.178
26787SOL    HW282136   4.301  14.790   7.159
26788SOL     OW82137  11.004  10.594   6.938
26788SOL    HW182138  10.959  10.520   6.978
26788SOL    HW282139  10.943  10.667   6.946
26789SOL     OW82140  12.730  12.063  10.876
26789SOL    HW182141  12.778  12.032  10.799
26789SOL    HW282142  12.638  12.053  10.853
26790SOL     OW82143   1.043   5.287  14.274
26790SOL    HW182144   1.114   5.341  14.239
26790SOL    HW282145   0.969   5.305  14.217
26791SOL     OW82146   1.549  14.363  14.381
26791SOL    HW182147   1.563  14.346  14.288
26791SOL    HW282148   1.637  14.358  14.419
26792SOL     OW82149   0.853   2.440  14.783
26792SOL    HW182150   0.771   2.436  14.735
26792SOL    HW282151   0.900   2.361  14.758
26793SOL     OW82152   3.483   0.163   1.090
26793SOL    HW182153   3.549   0.163   1.160
26793SOL    HW282154   3.429   0.086   1.109
26794SOL     OW82155   1.246  12.472   8.927
26794SOL    HW182156   1.215  12.402   8.869
26794SOL    HW282157   1.340  12.458   8.932
26795SOL     OW82158  12.770  12.753   5.888
26795SOL    HW182159  12.804  12.708   5.965
26795SOL    HW282160  12.741  12.838   5.922
26796SOL     OW82161   9.439  11.689   9.692
26796SOL    HW182162   9.422  11.621   9.627
26796SOL    HW282163   9.519  11.660   9.736
26797SOL     OW82164   2.779  14.585  12.332
26797SOL    HW182165   2.719  14.633  12.390
26797SOL    HW282166   2.847  14.551  12.390
26798SOL     OW82167   2.656   9.744   5.431
26798SOL    HW182168   2.628   9.741   5.339
26798SOL    HW282169   2.715   9.819   5.436
26799SOL     OW82170   7.495   7.787  12.336
26799SOL    HW182171   7.445   7.859  12.298
26799SOL    HW282172   7.508   7.725  12.264
26800SOL     OW82173   1.176   5.082   7.898
26800SOL    HW182174   1.116   5.019   7.858
26800SOL    HW282175   1.119   5.141   7.947
26801SOL     OW82176  14.187  11.202  11.438
26801SOL    HW182177  14.206  11.200  11.531
26801SOL    HW282178  14.133  11.280  11.426
26802SOL     OW82179  14.412   3.917   3.050
26802SOL    HW182180  14.373   3.859   3.116
26802SOL    HW282181  14.374   4.003   3.070
26803SOL     OW82182  10.471   2.212   1.709
26803SOL    HW182183  10.401   2.246   1.653
26803SOL    HW282184  10.469   2.268   1.787
26804SOL     OW82185  13.051   8.677   0.089
26804SOL    HW182186  13.053   8.603   0.148
26804SOL    HW282187  13.038   8.753   0.145
26805SOL     OW82188   4.331   1.034   6.175
26805SOL    HW182189   4.243   1.029   6.137
26805SOL    HW282190   4.342   1.126   6.198
26806SOL     OW82191  12.100   8.296   2.958
26806SOL    HW182192  12.010   8.267   2.973
26806SOL    HW282193  12.121   8.263   2.870
26807SOL     OW82194   0.007   0.723  13.280
26807SOL    HW182195  14.853   0.810  13.255
26807SOL    HW282196  14.859   0.714  13.372
26808SOL     OW82197  11.632  12.611   8.409
26808SOL    HW182198  11.646  12.702   8.384
26808SOL    HW282199  11.614  12.614   8.503
26809SOL     OW82200   3.923  14.433  12.999
26809SOL    HW182201   3.836  14.473  12.989
26809SOL    HW282202   3.935  14.425  13.093
26810SOL     OW82203   0.636  14.010  11.931
26810SOL    HW182204   0.611  13.934  11.983
26810SOL    HW282205   0.732  14.007  11.928
26811SOL     OW82206  13.573   5.181   4.747
26811SOL    HW182207  13.576   5.105   4.690
26811SOL    HW282208  13.660   5.220   4.740
26812SOL     OW82209  11.726   4.750   8.662
26812SOL    HW182210  11.679   4.774   8.582
26812SOL    HW282211  11.704   4.818   8.725
26813SOL     OW82212   2.719   9.818  14.028
26813SOL    HW182213   2.712   9.841  13.935
26813SOL    HW282214   2.793   9.870  14.060
26814SOL     OW82215   5.240  14.216   2.928
26814SOL    HW182216   5.265  14.261   2.847
26814SOL    HW282217   5.287  14.263   2.997
26815SOL     OW82218   2.344  13.396   9.147
26815SOL    HW182219   2.297  13.345   9.213
26815SOL    HW282220   2.287  13.395   9.070
26816SOL     OW82221   1.495   2.890   3.804
26816SOL    HW182222   1.473   2.983   3.792
26816SOL    HW282223   1.458   2.846   3.727
26817SOL     OW82224   4.706  13.162  11.169
26817SOL    HW182225   4.781  13.104  11.184
26817SOL    HW282226   4.704  13.175  11.075
26818SOL     OW82227  13.488   1.895   4.578
26818SOL    HW182228  13.557   1.831   4.596
26818SOL    HW282229  13.454   1.871   4.492
26819SOL     OW82230   0.849   7.783  11.344
26819SOL    HW182231   0.871   7.774  11.437
26819SOL    HW282232   0.913   7.846  11.311
26820SOL     OW82233   7.697  10.702   4.820
26820SOL    HW182234   7.735  10.781   4.858
26820SOL    HW282235   7.698  10.638   4.891
26821SOL     OW82236   0.352   7.849  10.641
26821SOL    HW182237   0.445   7.874  10.643
26821SOL    HW282238   0.353   7.755  10.624
26822SOL     OW82239   3.435  13.548   5.010
26822SOL    HW182240   3.489  13.576   4.936
26822SOL    HW282241   3.443  13.453   5.011
26823SOL     OW82242   5.574   5.476   0.323
26823SOL    HW182243   5.488   5.468   0.364
26823SOL    HW282244   5.636   5.467   0.395
26824SOL     OW82245  10.281   3.079  10.151
26824SOL    HW182246  10.270   3.092  10.245
26824SOL    HW282247  10.231   3.149  10.111
26825SOL     OW82248  14.102  14.768   5.863
26825SOL    HW182249  14.123  14.748   5.954
26825SOL    HW282250  14.160  14.840   5.839
26826SOL     OW82251  12.847   6.315  11.586
26826SOL    HW182252  12.901   6.390  11.561
26826SOL    HW282253  12.866   6.302  11.679
26827SOL     OW82254   7.356   6.945  13.386
26827SOL    HW182255   7.422   6.975  13.323
26827SOL    HW282256   7.347   6.851  13.367
26828SOL     OW82257  14.671  14.846   2.880
26828SOL    HW182258  14.694   0.018   2.958
26828SOL    HW282259  14.691  14.755   2.902
26829SOL     OW82260  14.173   2.925  14.221
26829SOL    HW182261  14.152   3.018  14.225
26829SOL    HW282262  14.220   2.907  14.303
26830SOL     OW82263  10.562  12.573   9.960
26830SOL    HW182264  10.581  12.523   9.881
26830SOL    HW282265  10.487  12.628   9.936
26831SOL     OW82266   7.045  11.860   5.501
26831SOL    HW182267   6.953  11.880   5.514
26831SOL    HW282268   7.065  11.794   5.567
26832SOL     OW82269   8.394  13.218   3.102
26832SOL    HW182270   8.302  13.231   3.126
26832SOL    HW282271   8.419  13.138   3.148
26833SOL     OW82272   9.775  12.228   1.125
26833SOL    HW182273   9.722  12.308   1.128
26833SOL    HW282274   9.718  12.160   1.160
26834SOL     OW82275   5.212  12.275   3.901
26834SOL    HW182276   5.247  12.239   3.983
26834SOL    HW282277   5.254  12.225   3.832
26835SOL     OW82278   7.265   4.824   2.377
26835SOL    HW182279   7.209   4.796   2.305
26835SOL    HW282280   7.354   4.820   2.342
26836SOL     OW82281   4.387  11.261   2.515
26836SOL    HW182282   4.427  11.343   2.486
26836SOL    HW282283   4.310  11.250   2.458
26837SOL     OW82284   3.633   9.300  14.220
26837SOL    HW182285   3.721   9.308  14.257
26837SOL    HW282286   3.575   9.312  14.295
26838SOL     OW82287  12.162  14.474  14.300
26838SOL    HW182288  12.068  14.491  14.286
26838SOL    HW282289  12.164  14.417  14.376
26839SOL     OW82290   0.517   6.351   5.845
26839SOL    HW182291   0.550   6.428   5.891
26839SOL    HW282292   0.429   6.375   5.818
26840SOL     OW82293   0.338   2.321   9.258
26840SOL    HW182294   0.286   2.360   9.188
26840SOL    HW282295   0.363   2.235   9.223
26841SOL     OW82296   1.361   4.568   1.992
26841SOL    HW182297   1.313   4.574   1.909
26841SOL    HW282298   1.438   4.515   1.972
26842SOL     OW82299   4.743   4.660   6.560
26842SOL    HW182300   4.772   4.599   6.628
26842SOL    HW282301   4.715   4.738   6.608
26843SOL     OW82302   5.962   3.287   6.901
26843SOL    HW182303   5.956   3.376   6.936
26843SOL    HW282304   5.978   3.300   6.807
26844SOL     OW82305   1.013   8.891   5.729
26844SOL    HW182306   1.055   8.971   5.698
26844SOL    HW282307   0.947   8.870   5.663
26845SOL     OW82308  12.559   9.423   1.785
26845SOL    HW182309  12.597   9.511   1.791
26845SOL    HW282310  12.562   9.390   1.875
26846SOL     OW82311  14.232   1.163   8.253
26846SOL    HW182312  14.158   1.215   8.221
26846SOL    HW282313  14.267   1.121   8.174
26847SOL     OW82314   4.506  12.287   8.948
26847SOL    HW182315   4.419  12.248   8.953
26847SOL    HW282316   4.494  12.364   8.893
26848SOL     OW82317  10.291  13.810  14.273
26848SOL    HW182318  10.213  13.791  14.325
26848SOL    HW282319  10.321  13.724  14.243
26849SOL     OW82320   1.857   3.176   4.600
26849SOL    HW182321   1.791   3.107   4.604
26849SOL    HW282322   1.824   3.246   4.656
26850SOL     OW82323   8.881   4.476   1.727
26850SOL    HW182324   8.919   4.391   1.705
26850SOL    HW282325   8.822   4.494   1.654
26851SOL     OW82326   4.517   0.842   6.147
26851SOL    HW182327   4.466   0.921   6.166
26851SOL    HW282328   4.452   0.772   6.145
26852SOL     OW82329   5.294   5.973   6.239
26852SOL    HW182330   5.202   5.946   6.235
26852SOL    HW282331   5.324   5.968   6.148
26853SOL     OW82332   4.297   7.111   8.838
26853SOL    HW182333   4.301   7.190   8.891
26853SOL    HW282334   4.365   7.054   8.874
26854SOL     OW82335   7.045   1.061  11.435
26854SOL    HW182336   6.982   0.990  11.448
26854SOL    HW282337   7.120   1.038  11.490
26855SOL     OW82338   3.553   5.786   2.204
26855SOL    HW182339   3.458   5.786   2.193
26855SOL    HW282340   3.574   5.874   2.236
26856SOL     OW82341   5.318  12.993   1.763
26856SOL    HW182342   5.234  12.972   1.804
26856SOL    HW282343   5.356  13.060   1.820
26857SOL     OW82344   9.091  10.062   0.776
26857SOL    HW182345   9.092   9.981   0.726
26857SOL    HW282346   9.059  10.128   0.715
26858SOL     OW82347   9.762  12.368   2.121
26858SOL    HW182348   9.753  12.415   2.204
26858SOL    HW282349   9.827  12.301   2.138
26859SOL     OW82350   5.019   6.014   8.116
26859SOL    HW182351   4.986   5.976   8.034
26859SOL    HW282352   5.063   5.941   8.159
26860SOL     OW82353  13.694   3.381  10.620
26860SOL    HW182354  13.749   3.352  10.693
26860SOL    HW282355  13.617   3.421  10.663
26861SOL     OW82356  11.677   8.441  13.682
26861SOL    HW182357  11.590   8.477  13.696
26861SOL    HW282358  11.682   8.365  13.739
26862SOL     OW82359  14.851   8.992  13.467
26862SOL    HW182360  14.764   8.998  13.508
26862SOL    HW282361   0.011   8.911  13.501
26863SOL     OW82362   8.413  14.155  13.246
26863SOL    HW182363   8.482  14.203  13.291
26863SOL    HW282364   8.446  14.065  13.241
26864SOL     OW82365  14.485   2.197   4.884
26864SOL    HW182366  14.411   2.247   4.917
26864SOL    HW282367  14.456   2.106   4.885
26865SOL     OW82368   4.983  12.846   5.898
26865SOL    HW182369   4.991  12.861   5.804
26865SOL    HW282370   4.903  12.893   5.923
26866SOL     OW82371   1.280   7.671   5.585
26866SOL    HW182372   1.269   7.750   5.531
26866SOL    HW282373   1.348   7.695   5.649
26867SOL     OW82374  14.135   1.483   0.378
26867SOL    HW182375  14.163   1.504   0.289
26867SOL    HW282376  14.149   1.388   0.385
26868SOL     OW82377  13.939   0.501   4.381
26868SOL    HW182378  14.003   0.459   4.323
26868SOL    HW282379  13.911   0.579   4.333
26869SOL     OW82380  11.291   4.659   3.592
26869SOL    HW182381  11.276   4.753   3.602
26869SOL    HW282382  11.272   4.623   3.679
26870SOL     OW82383  14.752  10.371   0.087
26870SOL    HW182384  14.820  10.304   0.082
26870SOL    HW282385  14.775  10.422   0.165
26871SOL     OW82386   2.547   6.082   1.171
26871SOL    HW182387   2.578   6.074   1.081
26871SOL    HW282388   2.572   6.000   1.213
26872SOL     OW82389   2.795   1.410   1.853
26872SOL    HW182390   2.786   1.504   1.866
26872SOL    HW282391   2.869   1.401   1.793
26873SOL     OW82392   0.663  12.686   5.612
26873SOL    HW182393   0.655  12.708   5.519
26873SOL    HW282394   0.685  12.593   5.613
26874SOL     OW82395   0.244   4.029  12.319
26874SOL    HW182396   0.212   3.993  12.402
26874SOL    HW282397   0.168   4.072  12.281
26875SOL     OW82398  11.765   2.023   9.533
26875SOL    HW182399  11.855   1.995   9.548
26875SOL    HW282400  11.774   2.101   9.478
26876SOL     OW82401  13.684   5.318  12.615
26876SOL    HW182402  13.769   5.274  12.622
26876SOL    HW282403  13.630   5.275  12.682
26877SOL     OW82404   9.059   2.816  10.447
26877SOL    HW182405   9.077   2.874  10.521
26877SOL    HW282406   9.002   2.748  10.484
26878SOL     OW82407   9.133   1.509  12.295
26878SOL    HW182408   9.123   1.568  12.370
26878SOL    HW282409   9.044   1.493  12.265
26879SOL     OW82410  14.692   5.642   8.881
26879SOL    HW182411  14.744   5.641   8.801
26879SOL    HW282412  14.743   5.590   8.943
26880SOL     OW82413   9.759   7.086  10.299
26880SOL    HW182414   9.833   7.131  10.256
26880SOL    HW282415   9.785   6.994  10.299
26881SOL     OW82416   9.920   3.568  13.114
26881SOL    HW182417  10.001   3.532  13.077
26881SOL    HW282418   9.855   3.499  13.101
26882SOL     OW82419   4.339   9.798  14.302
26882SOL    HW182420   4.396   9.823  14.230
26882SOL    HW282421   4.253   9.786  14.263
26883SOL     OW82422   4.256   3.522  13.800
26883SOL    HW182423   4.271   3.498  13.708
26883SOL    HW282424   4.204   3.449  13.835
26884SOL     OW82425   3.520   7.385  12.747
26884SOL    HW182426   3.475   7.309  12.710
26884SOL    HW282427   3.613   7.360  12.749
26885SOL     OW82428   1.788  13.597   1.040
26885SOL    HW182429   1.802  13.535   1.111
26885SOL    HW282430   1.813  13.682   1.077
26886SOL     OW82431  10.403  13.096   8.023
26886SOL    HW182432  10.319  13.063   7.990
26886SOL    HW282433  10.406  13.067   8.114
26887SOL     OW82434   1.169   9.843  13.241
26887SOL    HW182435   1.142   9.756  13.272
26887SOL    HW282436   1.201   9.829  13.152
26888SOL     OW82437   1.467  13.060   9.552
26888SOL    HW182438   1.452  13.017   9.468
26888SOL    HW282439   1.422  13.004   9.615
26889SOL     OW82440   3.495   9.176   4.296
26889SOL    HW182441   3.543   9.105   4.253
26889SOL    HW282442   3.431   9.132   4.351
26890SOL     OW82443   1.343   7.073   3.105
26890SOL    HW182444   1.308   6.996   3.149
26890SOL    HW282445   1.310   7.068   3.016
26891SOL     OW82446   9.689   1.533  11.347
26891SOL    HW182447   9.699   1.603  11.283
26891SOL    HW282448   9.722   1.570  11.429
26892SOL     OW82449   0.822  11.619   9.931
26892SOL    HW182450   0.911  11.616   9.966
26892SOL    HW282451   0.807  11.712   9.914
26893SOL     OW82452  14.194   1.011   6.925
26893SOL    HW182453  14.266   0.986   6.867
26893SOL    HW282454  14.172   0.931   6.972
26894SOL     OW82455   7.447   8.292  14.418
26894SOL    HW182456   7.487   8.324  14.498
26894SOL    HW282457   7.387   8.223  14.447
26895SOL     OW82458  13.764   4.147   4.960
26895SOL    HW182459  13.805   4.109   5.038
26895SOL    HW282460  13.673   4.118   4.965
26896SOL     OW82461  13.046   8.458   8.626
26896SOL    HW182462  13.054   8.498   8.712
26896SOL    HW282463  12.951   8.444   8.615
26897SOL     OW82464  13.579  13.898  13.614
26897SOL    HW182465  13.642  13.936  13.675
26897SOL    HW282466  13.511  13.965  13.605
26898SOL     OW82467   5.183   2.032   7.656
26898SOL    HW182468   5.145   2.092   7.592
26898SOL    HW282469   5.276   2.052   7.655
26899SOL     OW82470  11.292   9.190   1.556
26899SOL    HW182471  11.218   9.134   1.531
26899SOL    HW282472  11.349   9.190   1.479
26900SOL     OW82473   2.946   2.534   0.178
26900SOL    HW182474   2.951   2.462   0.242
26900SOL    HW282475   3.023   2.522   0.122
26901SOL     OW82476  12.840   7.836   8.589
26901SOL    HW182477  12.750   7.870   8.587
26901SOL    HW282478  12.872   7.859   8.676
26902SOL     OW82479   3.803   0.439  13.309
26902SOL    HW182480   3.893   0.471  13.301
26902SOL    HW282481   3.758   0.509  13.356
26903SOL     OW82482  14.027   6.217  10.215
26903SOL    HW182483  14.105   6.192  10.264
26903SOL    HW282484  14.047   6.195  10.124
26904SOL     OW82485  12.509   7.817   4.151
26904SOL    HW182486  12.592   7.855   4.180
26904SOL    HW282487  12.530   7.775   4.067
26905SOL     OW82488   7.243   9.408   2.583
26905SOL    HW182489   7.289   9.489   2.560
26905SOL    HW282490   7.209   9.376   2.499
26906SOL     OW82491  13.003   9.632   8.270
26906SOL    HW182492  13.016   9.588   8.354
26906SOL    HW282493  13.076   9.602   8.216
26907SOL     OW82494   2.531  12.927   5.829
26907SOL    HW182495   2.437  12.929   5.812
26907SOL    HW282496   2.540  12.880   5.912
26908SOL     OW82497   6.868  11.553   5.804
26908SOL    HW182498   6.778  11.572   5.832
26908SOL    HW282499   6.859  11.523   5.713
26909SOL     OW82500   6.414  13.099   4.449
26909SOL    HW182501   6.464  13.180   4.446
26909SOL    HW282502   6.347  13.114   4.515
26910SOL     OW82503   2.555   0.105  12.542
26910SOL    HW182504   2.559   0.048  12.619
26910SOL    HW282505   2.492   0.173  12.566
26911SOL     OW82506   4.993   2.092   1.775
26911SOL    HW182507   5.033   2.174   1.804
26911SOL    HW282508   4.901   2.114   1.761
26912SOL     OW82509  12.518   5.316   3.080
26912SOL    HW182510  12.447   5.306   3.144
26912SOL    HW282511  12.583   5.369   3.124
26913SOL     OW82512   8.176  13.218   1.753
26913SOL    HW182513   8.212  13.267   1.678
26913SOL    HW282514   8.134  13.285   1.807
26914SOL     OW82515  10.973   2.029  13.534
26914SOL    HW182516  10.989   2.113  13.490
26914SOL    HW282517  10.911   2.050  13.604
26915SOL     OW82518   5.783  11.893  13.868
26915SOL    HW182519   5.844  11.934  13.929
26915SOL    HW282520   5.830  11.817  13.834
26916SOL     OW82521   8.760   8.726  11.360
26916SOL    HW182522   8.840   8.679  11.383
26916SOL    HW282523   8.774   8.815  11.395
26917SOL     OW82524  10.271  12.189   5.032
26917SOL    HW182525  10.356  12.169   5.073
26917SOL    HW282526  10.229  12.250   5.092
26918SOL     OW82527   1.015   6.777   4.524
26918SOL    HW182528   0.958   6.762   4.599
26918SOL    HW282529   1.008   6.871   4.508
26919SOL     OW82530   9.732   3.124   6.426
26919SOL    HW182531   9.803   3.062   6.407
26919SOL    HW282532   9.670   3.073   6.477
26920SOL     OW82533  13.991  14.565   1.716
26920SOL    HW182534  13.953  14.516   1.643
26920SOL    HW282535  13.978  14.509   1.792
26921SOL     OW82536   1.482   5.128  13.303
26921SOL    HW182537   1.519   5.199  13.355
26921SOL    HW282538   1.524   5.049  13.336
26922SOL     OW82539   8.883  10.035   8.667
26922SOL    HW182540   8.849  10.107   8.613
26922SOL    HW282541   8.814  10.019   8.731
26923SOL     OW82542   4.881  14.680   6.851
26923SOL    HW182543   4.904  14.772   6.854
26923SOL    HW282544   4.798  14.677   6.804
26924SOL     OW82545  12.155   9.029   2.312
26924SOL    HW182546  12.147   9.078   2.394
26924SOL    HW282547  12.095   9.073   2.252
26925SOL     OW82548   3.564  10.362   0.041
26925SOL    HW182549   3.584  10.447   0.000
26925SOL    HW282550   3.468  10.358   0.042
26926SOL     OW82551   9.151   3.256   9.667
26926SOL    HW182552   9.088   3.219   9.605
26926SOL    HW282553   9.194   3.179   9.704
26927SOL     OW82554   0.062  12.054   0.513
26927SOL    HW182555   0.032  12.128   0.460
26927SOL    HW282556   0.157  12.057   0.506
26928SOL     OW82557   4.915   9.592   5.576
26928SOL    HW182558   4.871   9.643   5.644
26928SOL    HW282559   4.974   9.655   5.533
26929SOL     OW82560   3.633  13.738   0.121
26929SOL    HW182561   3.590  13.823   0.124
26929SOL    HW282562   3.568  13.676   0.154
26930SOL     OW82563   9.639  13.873   3.061
26930SOL    HW182564   9.591  13.944   3.020
26930SOL    HW282565   9.573  13.822   3.108
26931SOL     OW82566  12.237  13.765   9.485
26931SOL    HW182567  12.241  13.770   9.580
26931SOL    HW282568  12.143  13.766   9.465
26932SOL     OW82569   5.006  10.019  13.657
26932SOL    HW182570   5.013  10.004  13.752
26932SOL    HW282571   4.948   9.949  13.627
26933SOL     OW82572   3.162   9.849   0.753
26933SOL    HW182573   3.218   9.793   0.806
26933SOL    HW282574   3.210   9.860   0.671
26934SOL     OW82575   0.503   7.134   5.021
26934SOL    HW182576   0.557   7.210   5.000
26934SOL    HW282577   0.438   7.167   5.083
26935SOL     OW82578   6.064  11.911   5.820
26935SOL    HW182579   6.091  11.983   5.877
26935SOL    HW282580   6.085  11.941   5.731
26936SOL     OW82581   8.722   8.117  12.927
26936SOL    HW182582   8.660   8.155  12.865
26936SOL    HW282583   8.746   8.190  12.984
26937SOL     OW82584   7.516  14.787   5.933
26937SOL    HW182585   7.585  14.825   5.878
26937SOL    HW282586   7.535  14.693   5.933
26938SOL     OW82587  11.574   8.527   4.963
26938SOL    HW182588  11.635   8.456   4.984
26938SOL    HW282589  11.528   8.544   5.045
26939SOL     OW82590   4.619   6.370   4.703
26939SOL    HW182591   4.556   6.358   4.632
26939SOL    HW282592   4.679   6.438   4.671
26940SOL     OW82593   1.167   3.862   1.040
26940SOL    HW182594   1.171   3.958   1.035
26940SOL    HW282595   1.095   3.844   1.100
26941SOL     OW82596   0.132   0.310   1.492
26941SOL    HW182597   0.083   0.342   1.416
26941SOL    HW282598   0.075   0.330   1.567
26942SOL     OW82599   8.951   4.637  14.296
26942SOL    HW182600   8.934   4.583  14.218
26942SOL    HW282601   8.915   4.723  14.275
26943SOL     OW82602   6.381  14.333   9.265
26943SOL    HW182603   6.299  14.347   9.312
26943SOL    HW282604   6.381  14.399   9.196
26944SOL     OW82605   5.675   5.786   3.838
26944SOL    HW182606   5.680   5.801   3.743
26944SOL    HW282607   5.736   5.850   3.875
26945SOL     OW82608   7.925   5.082  11.244
26945SOL    HW182609   8.001   5.107  11.192
26945SOL    HW282610   7.961   5.063  11.331
26946SOL     OW82611   7.917   1.409   7.809
26946SOL    HW182612   7.967   1.393   7.729
26946SOL    HW282613   7.927   1.503   7.826
26947SOL     OW82614   8.976   0.529  12.987
26947SOL    HW182615   9.002   0.613  12.950
26947SOL    HW282616   8.897   0.505  12.939
26948SOL     OW82617  10.540   3.538  12.217
26948SOL    HW182618  10.524   3.445  12.203
26948SOL    HW282619  10.576   3.543  12.306
26949SOL     OW82620   3.454   2.770  14.286
26949SOL    HW182621   3.388   2.773  14.355
26949SOL    HW282622   3.493   2.858  14.287
26950SOL     OW82623   5.078  11.823   9.999
26950SOL    HW182624   4.998  11.775  10.023
26950SOL    HW282625   5.108  11.862  10.082
26951SOL     OW82626  10.495   9.468  11.533
26951SOL    HW182627  10.562   9.461  11.601
26951SOL    HW282628  10.432   9.400  11.555
26952SOL     OW82629  12.693   0.036   7.351
26952SOL    HW182630  12.622   0.029   7.415
26952SOL    HW282631  12.684  14.835   7.297
26953SOL     OW82632   9.745   1.555  11.872
26953SOL    HW182633   9.837   1.566  11.896
26953SOL    HW282634   9.727   1.462  11.888
26954SOL     OW82635  13.287   4.008   7.961
26954SOL    HW182636  13.280   3.998   7.866
26954SOL    HW282637  13.213   3.958   7.995
26955SOL     OW82638   7.121   5.862   6.621
26955SOL    HW182639   7.123   5.881   6.714
26955SOL    HW282640   7.213   5.848   6.597
26956SOL     OW82641   6.367   3.303  11.021
26956SOL    HW182642   6.285   3.351  11.012
26956SOL    HW282643   6.404   3.302  10.933
26957SOL     OW82644  11.451  13.754   6.863
26957SOL    HW182645  11.437  13.663   6.891
26957SOL    HW282646  11.494  13.796   6.937
26958SOL     OW82647   7.782   4.361  11.697
26958SOL    HW182648   7.774   4.362  11.602
26958SOL    HW282649   7.876   4.350  11.713
26959SOL     OW82650   8.454   4.981  14.872
26959SOL    HW182651   8.547   4.995   0.010
26959SOL    HW282652   8.427   4.917   0.061
26960SOL     OW82653  11.021  10.348   1.732
26960SOL    HW182654  10.978  10.426   1.767
26960SOL    HW282655  11.113  10.359   1.755
26961SOL     OW82656   9.127   3.986  14.286
26961SOL    HW182657   9.190   3.978  14.214
26961SOL    HW282658   9.170   3.944  14.360
26962SOL     OW82659   6.027  14.655   3.623
26962SOL    HW182660   6.076  14.585   3.666
26962SOL    HW282661   5.935  14.635   3.640
26963SOL     OW82662   1.651   1.325  11.634
26963SOL    HW182663   1.658   1.363  11.721
26963SOL    HW282664   1.733   1.277  11.623
26964SOL     OW82665   8.792   6.776  14.441
26964SOL    HW182666   8.830   6.690  14.423
26964SOL    HW282667   8.850   6.837  14.395
26965SOL     OW82668   3.344   9.242  13.033
26965SOL    HW182669   3.323   9.335  13.042
26965SOL    HW282670   3.431   9.240  12.993
26966SOL     OW82671  12.816   8.470  14.284
26966SOL    HW182672  12.789   8.383  14.313
26966SOL    HW282673  12.794   8.471  14.190
26967SOL     OW82674   1.066  14.469  10.291
26967SOL    HW182675   1.124  14.526  10.242
26967SOL    HW282676   1.067  14.504  10.380
26968SOL     OW82677  13.106  13.092   4.518
26968SOL    HW182678  13.092  13.048   4.434
26968SOL    HW282679  13.035  13.061   4.573
26969SOL     OW82680  12.764  13.443   2.466
26969SOL    HW182681  12.830  13.377   2.449
26969SOL    HW282682  12.732  13.469   2.380
26970SOL     OW82683  14.634  13.691   5.387
26970SOL    HW182684  14.634  13.638   5.307
26970SOL    HW282685  14.633  13.626   5.458
26971SOL     OW82686   6.616  10.808   7.239
26971SOL    HW182687   6.685  10.858   7.282
26971SOL    HW282688   6.659  10.768   7.163
26972SOL     OW82689  13.867  11.220  11.105
26972SOL    HW182690  13.852  11.156  11.174
26972SOL    HW282691  13.897  11.168  11.030
26973SOL     OW82692   8.388   7.235  11.144
26973SOL    HW182693   8.367   7.217  11.053
26973SOL    HW282694   8.398   7.330  11.149
26974SOL     OW82695   8.814   1.690  13.889
26974SOL    HW182696   8.810   1.621  13.823
26974SOL    HW282697   8.861   1.650  13.962
26975SOL     OW82698  10.881   2.279  11.169
26975SOL    HW182699  10.969   2.273  11.205
26975SOL    HW282700  10.849   2.189  11.168
26976SOL     OW82701   6.317   6.740   4.348
26976SOL    HW182702   6.391   6.707   4.400
26976SOL    HW282703   6.254   6.668   4.349
26977SOL     OW82704  14.271   9.640   4.707
26977SOL    HW182705  14.280   9.646   4.612
26977SOL    HW282706  14.348   9.590   4.736
26978SOL     OW82707   1.503   4.120   2.864
26978SOL    HW182708   1.501   4.202   2.813
26978SOL    HW282709   1.551   4.142   2.944
26979SOL     OW82710  10.587  12.456   3.098
26979SOL    HW182711  10.559  12.547   3.104
26979SOL    HW282712  10.595  12.427   3.189
26980SOL     OW82713  14.224   5.821   9.241
26980SOL    HW182714  14.248   5.804   9.150
26980SOL    HW282715  14.305   5.803   9.290
26981SOL     OW82716   6.057   2.666  11.301
26981SOL    HW182717   5.962   2.674  11.299
26981SOL    HW282718   6.090   2.741  11.252
26982SOL     OW82719  10.861  13.685   0.148
26982SOL    HW182720  10.891  13.618   0.210
26982SOL    HW282721  10.861  13.766   0.198
26983SOL     OW82722   3.874   1.778   5.870
26983SOL    HW182723   3.895   1.866   5.840
26983SOL    HW282724   3.799   1.790   5.929
26984SOL     OW82725  14.174  13.658   7.321
26984SOL    HW182726  14.236  13.731   7.323
26984SOL    HW282727  14.223  13.584   7.357
26985SOL     OW82728  11.886   8.673   3.444
26985SOL    HW182729  11.869   8.618   3.368
26985SOL    HW282730  11.820   8.743   3.437
26986SOL     OW82731   8.926   0.984   3.679
26986SOL    HW182732   8.976   0.907   3.652
26986SOL    HW282733   8.843   0.977   3.632
26987SOL     OW82734   1.807   6.716   0.047
26987SOL    HW182735   1.888   6.706  14.875
26987SOL    HW282736   1.818   6.797   0.096
26988SOL     OW82737  13.204   0.005  14.104
26988SOL    HW182738  13.110   0.023  14.101
26988SOL    HW282739  13.237   0.060  14.175
26989SOL     OW82740   7.599   2.032  10.642
26989SOL    HW182741   7.659   1.958  10.640
26989SOL    HW282742   7.655   2.108  10.653
26990SOL     OW82743  10.708   8.558   1.879
26990SOL    HW182744  10.755   8.485   1.839
26990SOL    HW282745  10.616   8.534   1.871
26991SOL     OW82746   3.446  14.434  13.093
26991SOL    HW182747   3.384  14.498  13.126
26991SOL    HW282748   3.394  14.354  13.080
26992SOL     OW82749  11.723   3.447  14.527
26992SOL    HW182750  11.641   3.494  14.514
26992SOL    HW282751  11.791   3.513  14.512
26993SOL     OW82752  14.875  10.893  10.206
26993SOL    HW182753   0.086  10.882  10.240
26993SOL    HW282754   0.008  10.896  10.111
26994SOL     OW82755   4.738   7.986   5.233
26994SOL    HW182756   4.646   8.007   5.218
26994SOL    HW282757   4.774   8.064   5.275
26995SOL     OW82758  12.287   4.740   4.427
26995SOL    HW182759  12.265   4.667   4.487
26995SOL    HW282760  12.342   4.700   4.360
26996SOL     OW82761  13.149   5.732  14.600
26996SOL    HW182762  13.102   5.810  14.628
26996SOL    HW282763  13.080   5.668  14.582
26997SOL     OW82764   3.746   8.484   0.251
26997SOL    HW182765   3.700   8.411   0.291
26997SOL    HW282766   3.677   8.537   0.211
26998SOL     OW82767  14.770   5.507   1.863
26998SOL    HW182768  14.865   5.506   1.870
26998SOL    HW282769  14.752   5.559   1.784
26999SOL     OW82770   9.673   4.591   0.363
26999SOL    HW182771   9.675   4.562   0.271
26999SOL    HW282772   9.756   4.637   0.376
27000SOL     OW82773  10.807   0.314   4.432
27000SOL    HW182774  10.830   0.384   4.370
27000SOL    HW282775  10.715   0.294   4.412
27001SOL     OW82776   5.019   6.373   6.281
27001SOL    HW182777   5.097   6.398   6.331
27001SOL    HW282778   5.053   6.336   6.200
27002SOL     OW82779   4.877  10.710   2.577
27002SOL    HW182780   4.906  10.629   2.536
27002SOL    HW282781   4.945  10.774   2.555
27003SOL     OW82782   6.872   5.572   1.666
27003SOL    HW182783   6.929   5.609   1.734
27003SOL    HW282784   6.874   5.478   1.681
27004SOL     OW82785   3.702   3.291   2.983
27004SOL    HW182786   3.651   3.370   2.996
27004SOL    HW282787   3.786   3.309   3.025
27005SOL     OW82788  11.709  12.529   9.828
27005SOL    HW182789  11.769  12.541   9.754
27005SOL    HW282790  11.660  12.611   9.833
27006SOL     OW82791   6.644   7.099   5.504
27006SOL    HW182792   6.727   7.138   5.533
27006SOL    HW282793   6.621   7.037   5.573
27007SOL     OW82794   9.581  10.132   6.924
27007SOL    HW182795   9.528  10.191   6.978
27007SOL    HW282796   9.654  10.107   6.981
27008SOL     OW82797   7.360   7.739   0.370
27008SOL    HW182798   7.324   7.790   0.442
27008SOL    HW282799   7.349   7.648   0.397
27009SOL     OW82800   3.630   0.630  13.378
27009SOL    HW182801   3.616   0.667  13.291
27009SOL    HW282802   3.639   0.706  13.436
27010SOL     OW82803  10.983   8.563  14.851
27010SOL    HW182804  10.994   8.651   0.010
27010SOL    HW282805  10.890   8.543  14.862
27011SOL     OW82806   3.657   7.797  14.419
27011SOL    HW182807   3.688   7.855  14.488
27011SOL    HW282808   3.736   7.752  14.388
27012SOL     OW82809   3.312   4.166  13.754
27012SOL    HW182810   3.370   4.152  13.679
27012SOL    HW282811   3.372   4.180  13.828
27013SOL     OW82812   3.655   7.898   0.331
27013SOL    HW182813   3.715   7.963   0.296
27013SOL    HW282814   3.568   7.935   0.314
27014SOL     OW82815   0.330   8.054   2.786
27014SOL    HW182816   0.367   8.126   2.836
27014SOL    HW282817   0.270   8.096   2.724
27015SOL     OW82818   7.711  14.577  10.131
27015SOL    HW182819   7.729  14.483  10.144
27015SOL    HW282820   7.618  14.580  10.108
27016SOL     OW82821   0.194  13.697   2.418
27016SOL    HW182822   0.127  13.765   2.426
27016SOL    HW282823   0.229  13.707   2.329
27017SOL     OW82824   7.911   2.357  13.623
27017SOL    HW182825   7.981   2.385  13.565
27017SOL    HW282826   7.843   2.424  13.613
27018SOL     OW82827  10.852   0.126  13.709
27018SOL    HW182828  10.922   0.062  13.696
27018SOL    HW282829  10.794   0.114  13.634
27019SOL     OW82830  10.885  12.828   5.038
27019SOL    HW182831  10.915  12.876   5.115
27019SOL    HW282832  10.966  12.798   4.996
27020SOL     OW82833   3.123  14.654   0.051
27020SOL    HW182834   3.168  14.730   0.089
27020SOL    HW282835   3.062  14.691  14.866
27021SOL     OW82836   6.861   3.212   8.150
27021SOL    HW182837   6.843   3.122   8.179
27021SOL    HW282838   6.786   3.262   8.182
27022SOL     OW82839   0.265   4.908   0.081
27022SOL    HW182840   0.263   4.824   0.034
27022SOL    HW282841   0.348   4.907   0.128
27023SOL     OW82842   2.220   3.631  14.327
27023SOL    HW182843   2.258   3.549  14.297
27023SOL    HW282844   2.126   3.622  14.309
27024SOL     OW82845   3.153   6.375  12.027
27024SOL    HW182846   3.196   6.291  12.011
27024SOL    HW282847   3.115   6.399  11.942
27025SOL     OW82848   5.152  11.365  12.627
27025SOL    HW182849   5.176  11.457  12.637
27025SOL    HW282850   5.200  11.320  12.696
27026SOL     OW82851   7.073   0.223   4.003
27026SOL    HW182852   7.152   0.254   3.959
27026SOL    HW282853   7.039   0.153   3.947
27027SOL     OW82854   4.473   6.504  13.044
27027SOL    HW182855   4.554   6.504  12.994
27027SOL    HW282856   4.437   6.592  13.032
27028SOL     OW82857   9.132   7.028   0.994
27028SOL    HW182858   9.145   6.942   1.035
27028SOL    HW282859   9.141   7.012   0.900
27029SOL     OW82860   7.508   4.566   7.893
27029SOL    HW182861   7.412   4.570   7.891
27029SOL    HW282862   7.537   4.654   7.871
27030SOL     OW82863   9.425   6.446   3.217
27030SOL    HW182864   9.414   6.361   3.259
27030SOL    HW282865   9.489   6.492   3.272
27031SOL     OW82866   3.784   4.969   4.466
27031SOL    HW182867   3.737   4.922   4.535
27031SOL    HW282868   3.787   5.060   4.497
27032SOL     OW82869   6.227   2.660   7.712
27032SOL    HW182870   6.300   2.709   7.751
27032SOL    HW282871   6.262   2.571   7.700
27033SOL     OW82872   1.424  12.872   2.874
27033SOL    HW182873   1.470  12.949   2.908
27033SOL    HW282874   1.359  12.852   2.941
27034SOL     OW82875   4.752   5.161  10.931
27034SOL    HW182876   4.754   5.154  11.026
27034SOL    HW282877   4.707   5.244  10.914
27035SOL     OW82878   6.734   9.475   1.045
27035SOL    HW182879   6.771   9.559   1.019
27035SOL    HW282880   6.708   9.434   0.963
27036SOL     OW82881  12.952   6.262   3.382
27036SOL    HW182882  13.000   6.321   3.441
27036SOL    HW282883  12.944   6.312   3.300
27037SOL     OW82884   4.337   8.837   2.469
27037SOL    HW182885   4.243   8.854   2.463
27037SOL    HW282886   4.343   8.757   2.521
27038SOL     OW82887   3.812  14.240   5.552
27038SOL    HW182888   3.826  14.194   5.468
27038SOL    HW282889   3.731  14.288   5.539
27039SOL     OW82890  11.715  13.314   4.829
27039SOL    HW182891  11.786  13.379   4.836
27039SOL    HW282892  11.639  13.357   4.868
27040SOL     OW82893  14.190   7.881  12.055
27040SOL    HW182894  14.280   7.898  12.028
27040SOL    HW282895  14.195   7.872  12.150
27041SOL     OW82896   6.591   7.505   3.594
27041SOL    HW182897   6.608   7.416   3.624
27041SOL    HW282898   6.499   7.504   3.565
27042SOL     OW82899   5.292   5.645   6.028
27042SOL    HW182900   5.374   5.644   6.077
27042SOL    HW282901   5.317   5.672   5.939
27043SOL     OW82902   6.553   9.088   6.160
27043SOL    HW182903   6.598   9.167   6.189
27043SOL    HW282904   6.623   9.027   6.138
27044SOL     OW82905   7.832   9.939   8.532
27044SOL    HW182906   7.743   9.908   8.515
27044SOL    HW282907   7.871   9.870   8.586
27045SOL     OW82908   1.810   2.719   8.209
27045SOL    HW182909   1.796   2.706   8.115
27045SOL    HW282910   1.904   2.738   8.217
27046SOL     OW82911   2.759   3.254   7.768
27046SOL    HW182912   2.813   3.278   7.844
27046SOL    HW282913   2.779   3.162   7.753
27047SOL     OW82914   3.981   5.226   5.737
27047SOL    HW182915   4.056   5.221   5.677
27047SOL    HW282916   4.018   5.257   5.819
27048SOL     OW82917   1.807   1.917   3.437
27048SOL    HW182918   1.816   1.991   3.376
27048SOL    HW282919   1.740   1.946   3.499
27049SOL     OW82920   2.090   1.460   9.448
27049SOL    HW182921   2.148   1.502   9.384
27049SOL    HW282922   2.087   1.522   9.521
27050SOL     OW82923   9.689  11.420   4.156
27050SOL    HW182924   9.659  11.418   4.247
27050SOL    HW282925   9.723  11.332   4.141
27051SOL     OW82926  12.343   7.505   6.139
27051SOL    HW182927  12.249   7.522   6.142
27051SOL    HW282928  12.366   7.481   6.229
27052SOL     OW82929   1.786   6.610   1.791
27052SOL    HW182930   1.853   6.676   1.769
27052SOL    HW282931   1.704   6.650   1.765
27053SOL     OW82932  13.027   9.605   7.008
27053SOL    HW182933  12.958   9.671   7.011
27053SOL    HW282934  13.056   9.604   6.916
27054SOL     OW82935   0.643   2.465   3.599
27054SOL    HW182936   0.569   2.516   3.565
27054SOL    HW282937   0.720   2.519   3.579
27055SOL     OW82938  12.768  12.240   4.184
27055SOL    HW182939  12.764  12.325   4.140
27055SOL    HW282940  12.684  12.199   4.164
27056SOL     OW82941  12.384   7.160   6.011
27056SOL    HW182942  12.380   7.156   6.107
27056SOL    HW282943  12.295   7.135   5.983
27057SOL     OW82944  13.070   5.334  12.371
27057SOL    HW182945  13.015   5.341  12.293
27057SOL    HW282946  13.107   5.246  12.366
27058SOL     OW82947   5.677   2.605  14.275
27058SOL    HW182948   5.718   2.536  14.328
27058SOL    HW282949   5.741   2.676  14.276
27059SOL     OW82950   3.638   4.973   6.332
27059SOL    HW182951   3.695   5.047   6.351
27059SOL    HW282952   3.569   4.978   6.398
27060SOL     OW82953   0.146   8.107   6.372
27060SOL    HW182954   0.132   8.198   6.347
27060SOL    HW282955   0.059   8.076   6.399
27061SOL     OW82956   7.142   5.329  11.561
27061SOL    HW182957   7.153   5.281  11.643
27061SOL    HW282958   7.056   5.304  11.529
27062SOL     OW82959   0.764   2.669   0.268
27062SOL    HW182960   0.740   2.681   0.176
27062SOL    HW282961   0.683   2.684   0.317
27063SOL     OW82962  11.844  12.541  11.977
27063SOL    HW182963  11.786  12.579  12.043
27063SOL    HW282964  11.910  12.493  12.028
27064SOL     OW82965   4.373   1.529  12.538
27064SOL    HW182966   4.357   1.576  12.455
27064SOL    HW282967   4.369   1.597  12.605
27065SOL     OW82968   2.416  10.843   0.747
27065SOL    HW182969   2.321  10.853   0.740
27065SOL    HW282970   2.450  10.932   0.747
27066SOL     OW82971   1.593  11.539  11.469
27066SOL    HW182972   1.640  11.610  11.513
27066SOL    HW282973   1.505  11.575  11.453
27067SOL     OW82974   5.828   2.040   0.424
27067SOL    HW182975   5.877   2.008   0.500
27067SOL    HW282976   5.860   2.129   0.410
27068SOL     OW82977  13.551   0.114  10.602
27068SOL    HW182978  13.630   0.163  10.625
27068SOL    HW282979  13.490   0.182  10.573
27069SOL     OW82980   4.364  12.141   7.294
27069SOL    HW182981   4.273  12.171   7.298
27069SOL    HW282982   4.416  12.215   7.325
27070SOL     OW82983   1.802   8.747   1.872
27070SOL    HW182984   1.834   8.698   1.948
27070SOL    HW282985   1.765   8.827   1.909
27071SOL     OW82986   0.967   3.303  14.399
27071SOL    HW182987   0.956   3.370  14.332
27071SOL    HW282988   0.970   3.220  14.350
27072SOL     OW82989  14.508  12.521   9.378
27072SOL    HW182990  14.573  12.534   9.447
27072SOL    HW282991  14.450  12.597   9.385
27073SOL     OW82992  10.471   6.110   0.628
27073SOL    HW182993  10.531   6.039   0.606
27073SOL    HW282994  10.437   6.139   0.543
27074SOL     OW82995  10.953   8.045   9.658
27074SOL    HW182996  10.924   8.119   9.604
27074SOL    HW282997  10.960   7.972   9.597
27075SOL     OW82998  11.293   8.422   1.178
27075SOL    HW182999  11.319   8.407   1.268
27075SOL    HW283000  11.375   8.428   1.129
27076SOL     OW83001  14.322   3.862   6.524
27076SOL    HW183002  14.391   3.820   6.473
27076SOL    HW283003  14.347   3.845   6.615
27077SOL     OW83004   3.177   9.175   7.284
27077SOL    HW183005   3.234   9.174   7.361
27077SOL    HW283006   3.106   9.115   7.305
27078SOL     OW83007   4.280   1.262   0.847
27078SOL    HW183008   4.188   1.238   0.838
27078SOL    HW283009   4.329   1.184   0.822
27079SOL     OW83010   5.929   4.849   1.344
27079SOL    HW183011   5.913   4.829   1.251
27079SOL    HW283012   5.865   4.917   1.365
27080SOL     OW83013   9.008   9.733  14.262
27080SOL    HW183014   8.949   9.719  14.188
27080SOL    HW283015   9.017   9.646  14.301
27081SOL     OW83016   9.593   4.770  11.579
27081SOL    HW183017   9.514   4.825  11.581
27081SOL    HW283018   9.626   4.773  11.669
27082SOL     OW83019  13.053  12.416   3.676
27082SOL    HW183020  13.027  12.354   3.744
27082SOL    HW283021  13.109  12.479   3.722
27083SOL     OW83022   0.245   0.864   0.837
27083SOL    HW183023   0.327   0.838   0.794
27083SOL    HW283024   0.248   0.820   0.922
27084SOL     OW83025   7.458   1.562   9.076
27084SOL    HW183026   7.426   1.513   9.001
27084SOL    HW283027   7.404   1.532   9.149
27085SOL     OW83028   1.557   4.689   4.287
27085SOL    HW183029   1.591   4.606   4.255
27085SOL    HW283030   1.615   4.712   4.359
27086SOL     OW83031   9.615   2.796  13.502
27086SOL    HW183032   9.548   2.821  13.566
27086SOL    HW283033   9.663   2.725  13.545
27087SOL     OW83034   1.536   9.931  14.771
27087SOL    HW183035   1.534   9.836  14.769
27087SOL    HW283036   1.539   9.958  14.679
27088SOL     OW83037   5.772   7.965   4.760
27088SOL    HW183038   5.799   8.056   4.765
27088SOL    HW283039   5.850   7.917   4.732
27089SOL     OW83040   6.290  12.087   3.035
27089SOL    HW183041   6.313  12.015   3.093
27089SOL    HW283042   6.204  12.117   3.066
27090SOL     OW83043   5.882   5.751   9.978
27090SOL    HW183044   5.830   5.820   9.937
27090SOL    HW283045   5.973   5.779   9.967
27091SOL     OW83046  13.363  13.674   5.825
27091SOL    HW183047  13.329  13.591   5.792
27091SOL    HW283048  13.375  13.727   5.746
27092SOL     OW83049   6.578   8.450   7.370
27092SOL    HW183050   6.495   8.442   7.323
27092SOL    HW283051   6.642   8.408   7.312
27093SOL     OW83052  10.325   1.324  13.193
27093SOL    HW183053  10.375   1.256  13.238
27093SOL    HW283054  10.384   1.400  13.193
27094SOL     OW83055   2.906   9.152   8.806
27094SOL    HW183056   2.862   9.229   8.771
27094SOL    HW283057   2.877   9.145   8.896
27095SOL     OW83058   0.817  13.526  11.307
27095SOL    HW183059   0.792  13.536  11.399
27095SOL    HW283060   0.778  13.442  11.281
27096SOL     OW83061   5.319   6.995   4.915
27096SOL    HW183062   5.225   7.011   4.927
27096SOL    HW283063   5.359   7.081   4.926
27097SOL     OW83064   0.574  10.291  10.995
27097SOL    HW183065   0.537  10.207  10.968
27097SOL    HW283066   0.669  10.280  10.984
27098SOL     OW83067  14.595   3.803  12.295
27098SOL    HW183068  14.564   3.778  12.382
27098SOL    HW283069  14.655   3.876  12.312
27099SOL     OW83070   0.871   0.946   3.812
27099SOL    HW183071   0.839   1.035   3.797
27099SOL    HW283072   0.966   0.955   3.819
27100SOL     OW83073   5.057   1.047   3.175
27100SOL    HW183074   5.018   0.963   3.154
27100SOL    HW283075   5.001   1.111   3.132
27101SOL     OW83076   6.342   9.710   8.285
27101SOL    HW183077   6.298   9.723   8.200
27101SOL    HW283078   6.281   9.746   8.349
27102SOL     OW83079   6.419   2.474   8.425
27102SOL    HW183080   6.397   2.536   8.356
27102SOL    HW283081   6.515   2.473   8.428
27103SOL     OW83082  10.942  10.743  10.639
27103SOL    HW183083  10.913  10.834  10.630
27103SOL    HW283084  10.882  10.693  10.584
27104SOL     OW83085   6.529   9.838  11.101
27104SOL    HW183086   6.498   9.844  11.191
27104SOL    HW283087   6.546   9.929  11.076
27105SOL     OW83088   4.627  12.025   3.407
27105SOL    HW183089   4.686  11.950   3.415
27105SOL    HW283090   4.540  11.986   3.398
27106SOL     OW83091   6.325   8.307  12.401
27106SOL    HW183092   6.234   8.296  12.430
27106SOL    HW283093   6.371   8.339  12.478
27107SOL     OW83094   5.778   9.905   4.689
27107SOL    HW183095   5.691   9.945   4.693
27107SOL    HW283096   5.806   9.917   4.598
27108SOL     OW83097  12.914  14.063  10.723
27108SOL    HW183098  12.861  14.130  10.768
27108SOL    HW283099  12.883  14.064  10.633
27109SOL     OW83100   7.370   3.335   0.274
27109SOL    HW183101   7.320   3.305   0.198
27109SOL    HW283102   7.451   3.284   0.272
27110SOL     OW83103   8.004   9.126   7.854
27110SOL    HW183104   8.016   9.047   7.906
27110SOL    HW283105   8.090   9.143   7.816
27111SOL     OW83106   6.946   6.086   8.386
27111SOL    HW183107   6.997   6.012   8.355
27111SOL    HW283108   6.872   6.047   8.432
27112SOL     OW83109   5.998  13.341  12.347
27112SOL    HW183110   5.913  13.326  12.306
27112SOL    HW283111   6.019  13.432  12.327
27113SOL     OW83112  12.687   3.099  12.560
27113SOL    HW183113  12.618   3.164  12.549
27113SOL    HW283114  12.746   3.136  12.625
27114SOL     OW83115   1.979   5.514   1.335
27114SOL    HW183116   1.970   5.472   1.249
27114SOL    HW283117   2.045   5.582   1.321
27115SOL     OW83118   5.744  14.820   6.966
27115SOL    HW183119   5.756  14.734   6.925
27115SOL    HW283120   5.817  14.828   7.027
27116SOL     OW83121   4.209   4.495   8.782
27116SOL    HW183122   4.190   4.572   8.837
27116SOL    HW283123   4.202   4.421   8.842
27117SOL     OW83124   7.777  10.030   4.058
27117SOL    HW183125   7.685  10.047   4.078
27117SOL    HW283126   7.779   9.942   4.021
27118SOL     OW83127   9.832  11.925  13.176
27118SOL    HW183128   9.903  11.926  13.239
27118SOL    HW283129   9.875  11.915  13.091
27119SOL     OW83130   1.351   5.141  11.483
27119SOL    HW183131   1.264   5.122  11.518
27119SOL    HW283132   1.411   5.106  11.548
27120SOL     OW83133   5.364  10.662  13.732
27120SOL    HW183134   5.346  10.702  13.647
27120SOL    HW283135   5.353  10.734  13.795
27121SOL     OW83136   7.562   4.034   4.427
27121SOL    HW183137   7.528   4.103   4.483
27121SOL    HW283138   7.502   3.961   4.440
27122SOL     OW83139   0.539  11.879  12.209
27122SOL    HW183140   0.532  11.852  12.300
27122SOL    HW283141   0.625  11.847  12.181
27123SOL     OW83142  14.219   7.979   2.518
27123SOL    HW183143  14.155   7.990   2.589
27123SOL    HW283144  14.269   7.901   2.544
27124SOL     OW83145   7.594   4.306   9.677
27124SOL    HW183146   7.601   4.399   9.658
27124SOL    HW283147   7.514   4.299   9.731
27125SOL     OW83148  14.006   1.124   7.125
27125SOL    HW183149  14.090   1.094   7.088
27125SOL    HW283150  13.967   1.045   7.162
27126SOL     OW83151  11.264   4.300   9.260
27126SOL    HW183152  11.277   4.284   9.354
27126SOL    HW283153  11.221   4.221   9.229
27127SOL     OW83154   3.954   1.559   9.614
27127SOL    HW183155   4.033   1.604   9.585
27127SOL    HW283156   3.933   1.598   9.699
27128SOL     OW83157  10.980   5.164  14.703
27128SOL    HW183158  10.940   5.223  14.639
27128SOL    HW283159  11.001   5.085  14.654
27129SOL     OW83160  10.154   9.436   9.014
27129SOL    HW183161  10.159   9.356   8.961
27129SOL    HW283162  10.241   9.474   9.007
27130SOL     OW83163   1.317  14.243  13.077
27130SOL    HW183164   1.279  14.275  13.159
27130SOL    HW283165   1.313  14.148  13.085
27131SOL     OW83166  14.202   0.330   9.338
27131SOL    HW183167  14.195   0.315   9.433
27131SOL    HW283168  14.259   0.406   9.330
27132SOL     OW83169   6.626  11.877   8.614
27132SOL    HW183170   6.680  11.904   8.688
27132SOL    HW283171   6.676  11.807   8.572
27133SOL     OW83172  12.823   6.670   8.526
27133SOL    HW183173  12.913   6.652   8.555
27133SOL    HW283174  12.826   6.761   8.495
27134SOL     OW83175   4.983   3.014  10.750
27134SOL    HW183176   4.954   3.102  10.726
27134SOL    HW283177   5.016   3.023  10.839
27135SOL     OW83178  12.012  12.016   5.013
27135SOL    HW183179  11.932  12.042   4.966
27135SOL    HW283180  12.052  11.949   4.957
27136SOL     OW83181   7.657   8.704  10.435
27136SOL    HW183182   7.617   8.788  10.414
27136SOL    HW283183   7.751   8.720  10.431
27137SOL     OW83184   7.983  10.367   5.461
27137SOL    HW183185   7.910  10.428   5.446
27137SOL    HW283186   8.055  10.422   5.491
27138SOL     OW83187   9.189   4.373   5.735
27138SOL    HW183188   9.102   4.334   5.733
27138SOL    HW283189   9.242   4.319   5.677
27139SOL     OW83190  14.038   8.677   9.944
27139SOL    HW183191  14.017   8.677   9.851
27139SOL    HW283192  14.017   8.766   9.973
27140SOL     OW83193   9.022   6.545   2.482
27140SOL    HW183194   8.942   6.572   2.439
27140SOL    HW283195   9.082   6.524   2.410
27141SOL     OW83196   1.852   9.371  13.792
27141SOL    HW183197   1.890   9.449  13.834
27141SOL    HW283198   1.777   9.405  13.744
27142SOL     OW83199   6.042   4.043   6.342
27142SOL    HW183200   5.948   4.036   6.326
27142SOL    HW283201   6.071   3.953   6.354
27143SOL     OW83202   8.282   1.428  13.491
27143SOL    HW183203   8.247   1.423  13.580
27143SOL    HW283204   8.346   1.498  13.495
27144SOL     OW83205   2.328  11.422  14.763
27144SOL    HW183206   2.314  11.411  14.857
27144SOL    HW283207   2.423  11.429  14.754
27145SOL     OW83208   1.323   3.482   8.552
27145SOL    HW183209   1.417   3.476   8.570
27145SOL    HW283210   1.316   3.549   8.484
27146SOL     OW83211   3.924   4.982   2.903
27146SOL    HW183212   3.978   4.965   2.826
27146SOL    HW283213   3.834   4.973   2.871
27147SOL     OW83214   3.787  12.383   2.560
27147SOL    HW183215   3.820  12.471   2.542
27147SOL    HW283216   3.803  12.334   2.480
27148SOL     OW83217   4.161   6.444  11.168
27148SOL    HW183218   4.233   6.478  11.221
27148SOL    HW283219   4.200   6.429  11.081
27149SOL     OW83220  11.236   8.246   1.504
27149SOL    HW183221  11.159   8.280   1.548
27149SOL    HW283222  11.273   8.183   1.565
27150SOL     OW83223   4.486   9.884   2.131
27150SOL    HW183224   4.502   9.926   2.216
27150SOL    HW283225   4.500   9.954   2.067
27151SOL     OW83226   5.460   9.371  10.721
27151SOL    HW183227   5.538   9.317  10.713
27151SOL    HW283228   5.484   9.440  10.783
27152SOL     OW83229   5.431   0.373   5.495
27152SOL    HW183230   5.465   0.457   5.464
27152SOL    HW283231   5.484   0.352   5.571
27153SOL     OW83232   3.925   7.948  13.663
27153SOL    HW183233   3.996   7.944  13.726
27153SOL    HW283234   3.946   7.881  13.598
27154SOL     OW83235   9.436   0.223   1.528
27154SOL    HW183236   9.523   0.250   1.498
27154SOL    HW283237   9.376   0.284   1.485
27155SOL     OW83238   3.646  14.339   8.376
27155SOL    HW183239   3.674  14.250   8.353
27155SOL    HW283240   3.678  14.352   8.465
27156SOL     OW83241  12.044   7.335   2.561
27156SOL    HW183242  12.006   7.249   2.540
27156SOL    HW283243  12.079   7.323   2.650
27157SOL     OW83244   4.748   0.452   7.535
27157SOL    HW183245   4.812   0.522   7.532
27157SOL    HW283246   4.792   0.377   7.495
27158SOL     OW83247   3.994   1.757   9.384
27158SOL    HW183248   4.057   1.689   9.360
27158SOL    HW283249   3.968   1.796   9.300
27159SOL     OW83250   0.957   3.040   6.521
27159SOL    HW183251   0.993   2.951   6.520
27159SOL    HW283252   0.995   3.080   6.600
27160SOL     OW83253  12.606   6.611   1.688
27160SOL    HW183254  12.574   6.524   1.662
27160SOL    HW283255  12.661   6.639   1.616
27161SOL     OW83256   9.357   4.424   0.242
27161SOL    HW183257   9.426   4.359   0.244
27161SOL    HW283258   9.334   4.433   0.150
27162SOL     OW83259   8.056   3.915  13.550
27162SOL    HW183260   8.006   3.968  13.489
27162SOL    HW283261   8.061   3.968  13.630
27163SOL     OW83262   8.038  11.899   3.370
27163SOL    HW183263   7.954  11.900   3.415
27163SOL    HW283264   8.098  11.944   3.430
27164SOL     OW83265   6.166   4.947   6.986
27164SOL    HW183266   6.165   4.979   7.077
27164SOL    HW283267   6.245   4.893   6.981
27165SOL     OW83268   9.178  12.325   7.813
27165SOL    HW183269   9.209  12.402   7.861
27165SOL    HW283270   9.227  12.252   7.852
27166SOL     OW83271   3.022   1.076  12.062
27166SOL    HW183272   3.112   1.049  12.083
27166SOL    HW283273   3.006   1.151  12.120
27167SOL     OW83274   8.660  11.597   9.445
27167SOL    HW183275   8.625  11.537   9.380
27167SOL    HW283276   8.613  11.576   9.525
27168SOL     OW83277   1.504  11.633   8.419
27168SOL    HW183278   1.561  11.574   8.468
27168SOL    HW283279   1.562  11.680   8.360
27169SOL     OW83280  10.750  12.125   3.147
27169SOL    HW183281  10.709  12.042   3.171
27169SOL    HW283282  10.707  12.190   3.203
27170SOL     OW83283  12.902   7.689  14.096
27170SOL    HW183284  12.881   7.745  14.021
27170SOL    HW283285  12.872   7.739  14.172
27171SOL     OW83286  14.376   7.381   0.756
27171SOL    HW183287  14.441   7.448   0.736
27171SOL    HW283288  14.373   7.326   0.677
27172SOL     OW83289   5.896   3.797   9.406
27172SOL    HW183290   5.943   3.786   9.488
27172SOL    HW283291   5.840   3.719   9.400
27173SOL     OW83292   0.173  13.104   9.629
27173SOL    HW183293   0.225  13.100   9.548
27173SOL    HW283294   0.187  13.192   9.662
27174SOL     OW83295  14.362   0.778   9.499
27174SOL    HW183296  14.389   0.696   9.458
27174SOL    HW283297  14.267   0.781   9.487
27175SOL     OW83298   8.093   2.345   0.838
27175SOL    HW183299   8.006   2.386   0.836
27175SOL    HW283300   8.128   2.361   0.750
27176SOL     OW83301   5.255  14.690  13.483
27176SOL    HW183302   5.298  14.715  13.402
27176SOL    HW283303   5.289  14.750  13.549
27177SOL     OW83304  10.351   3.318  12.486
27177SOL    HW183305  10.302   3.369  12.550
27177SOL    HW283306  10.288   3.301  12.416
27178SOL     OW83307   7.638  12.780   7.095
27178SOL    HW183308   7.707  12.715   7.114
27178SOL    HW283309   7.627  12.776   7.000
27179SOL     OW83310   7.570   6.315  11.259
27179SOL    HW183311   7.502   6.249  11.249
27179SOL    HW283312   7.524   6.390  11.297
27180SOL     OW83313   6.407   8.060   1.018
27180SOL    HW183314   6.425   7.972   0.985
27180SOL    HW283315   6.417   8.053   1.113
27181SOL     OW83316   0.557   0.205   0.354
27181SOL    HW183317   0.559   0.233   0.445
27181SOL    HW283318   0.474   0.238   0.320
27182SOL     OW83319   1.809  11.194  10.913
27182SOL    HW183320   1.733  11.238  10.952
27182SOL    HW283321   1.833  11.249  10.838
27183SOL     OW83322   7.267   9.058  12.114
27183SOL    HW183323   7.260   8.966  12.088
27183SOL    HW283324   7.177   9.085  12.134
27184SOL     OW83325  14.035   0.696   7.426
27184SOL    HW183326  14.069   0.669   7.341
27184SOL    HW283327  14.096   0.762   7.457
27185SOL     OW83328   9.234   5.432  10.990
27185SOL    HW183329   9.229   5.452  11.084
27185SOL    HW283330   9.254   5.516  10.949
27186SOL     OW83331   1.078  11.758   8.851
27186SOL    HW183332   1.073  11.710   8.934
27186SOL    HW283333   0.988  11.764   8.821
27187SOL     OW83334  14.534  11.571   6.526
27187SOL    HW183335  14.516  11.597   6.617
27187SOL    HW283336  14.555  11.478   6.531
27188SOL     OW83337  10.880   1.576  11.279
27188SOL    HW183338  10.874   1.580  11.374
27188SOL    HW283339  10.973   1.561  11.262
27189SOL     OW83340  10.213  13.422   2.450
27189SOL    HW183341  10.258  13.474   2.383
27189SOL    HW283342  10.198  13.483   2.522
27190SOL     OW83343   5.507   6.191  10.746
27190SOL    HW183344   5.594   6.161  10.772
27190SOL    HW283345   5.512   6.286  10.749
27191SOL     OW83346   1.134  10.802   4.943
27191SOL    HW183347   1.172  10.739   4.881
27191SOL    HW283348   1.065  10.846   4.894
27192SOL     OW83349   2.893  14.335   9.086
27192SOL    HW183350   2.901  14.415   9.034
27192SOL    HW283351   2.875  14.266   9.022
27193SOL     OW83352  10.636  10.052   4.836
27193SOL    HW183353  10.574  10.073   4.906
27193SOL    HW283354  10.722  10.055   4.878
27194SOL     OW83355  14.527  10.300   8.002
27194SOL    HW183356  14.527  10.366   8.071
27194SOL    HW283357  14.572  10.342   7.928
27195SOL     OW83358   1.640   3.724   5.255
27195SOL    HW183359   1.619   3.815   5.236
27195SOL    HW283360   1.702   3.699   5.185
27196SOL     OW83361  11.434   3.255   7.053
27196SOL    HW183362  11.449   3.328   6.993
27196SOL    HW283363  11.499   3.267   7.122
27197SOL     OW83364   6.067   8.907   0.132
27197SOL    HW183365   6.015   8.866   0.062
27197SOL    HW283366   6.057   9.001   0.118
27198SOL     OW83367   7.901  11.146  10.225
27198SOL    HW183368   7.944  11.094  10.156
27198SOL    HW283369   7.898  11.235  10.189
27199SOL     OW83370   1.431   9.867   9.767
27199SOL    HW183371   1.342   9.902   9.768
27199SOL    HW283372   1.476   9.920   9.701
27200SOL     OW83373  14.803  11.424   6.295
27200SOL    HW183374  14.852  11.403   6.215
27200SOL    HW283375  14.866  11.467   6.352
27201SOL     OW83376   0.596  12.832  13.099
27201SOL    HW183377   0.609  12.802  13.189
27201SOL    HW283378   0.511  12.797  13.074
27202SOL     OW83379   5.346   6.634  11.092
27202SOL    HW183380   5.418   6.693  11.071
27202SOL    HW283381   5.273   6.692  11.116
27203SOL     OW83382  13.424  14.016   7.929
27203SOL    HW183383  13.480  13.940   7.945
27203SOL    HW283384  13.429  14.030   7.835
27204SOL     OW83385  14.108   9.639   7.140
27204SOL    HW183386  14.102   9.614   7.048
27204SOL    HW283387  14.199   9.623   7.164
27205SOL     OW83388   3.174   6.054   2.429
27205SOL    HW183389   3.153   5.975   2.478
27205SOL    HW283390   3.116   6.121   2.466
27206SOL     OW83391  10.095   8.530   5.332
27206SOL    HW183392  10.189   8.525   5.348
27206SOL    HW283393  10.060   8.571   5.412
27207SOL     OW83394   3.054   3.270  14.848
27207SOL    HW183395   3.070   3.262   0.064
27207SOL    HW283396   2.971   3.317  14.841
27208SOL     OW83397  13.707   4.531   0.552
27208SOL    HW183398  13.794   4.542   0.592
27208SOL    HW283399  13.725   4.500   0.464
27209SOL     OW83400  14.771   7.193  14.427
27209SOL    HW183401  14.848   7.169  14.377
27209SOL    HW283402  14.779   7.145  14.509
27210SOL     OW83403  14.462  13.019  12.227
27210SOL    HW183404  14.475  13.029  12.322
27210SOL    HW283405  14.407  12.942  12.219
27211SOL     OW83406   1.035   4.792   5.275
27211SOL    HW183407   1.099   4.741   5.226
27211SOL    HW283408   0.962   4.732   5.289
27212SOL     OW83409   4.414   5.915  13.088
27212SOL    HW183410   4.498   5.904  13.132
27212SOL    HW283411   4.390   5.827  13.059
27213SOL     OW83412   2.779   9.361  11.725
27213SOL    HW183413   2.760   9.448  11.760
27213SOL    HW283414   2.835   9.377  11.650
27214SOL     OW83415   2.725   1.914   2.976
27214SOL    HW183416   2.703   1.994   2.928
27214SOL    HW283417   2.750   1.852   2.908
27215SOL     OW83418   8.459  13.917  13.108
27215SOL    HW183419   8.541  13.937  13.063
27215SOL    HW283420   8.391  13.935  13.044
27216SOL     OW83421  11.894  14.627   9.901
27216SOL    HW183422  11.884  14.559   9.968
27216SOL    HW283423  11.989  14.640   9.893
27217SOL     OW83424   2.125   9.880  13.634
27217SOL    HW183425   2.211   9.874  13.675
27217SOL    HW283426   2.097   9.970  13.652
27218SOL     OW83427   1.101  13.255   6.888
27218SOL    HW183428   1.181  13.205   6.872
27218SOL    HW283429   1.035  13.189   6.908
27219SOL     OW83430  13.635   0.490   1.383
27219SOL    HW183431  13.595   0.432   1.319
27219SOL    HW283432  13.563   0.547   1.412
27220SOL     OW83433   3.947  12.844   7.208
27220SOL    HW183434   3.931  12.775   7.272
27220SOL    HW283435   3.974  12.919   7.259
27221SOL     OW83436  12.512   5.469   4.989
27221SOL    HW183437  12.520   5.562   5.009
27221SOL    HW283438  12.522   5.463   4.894
27222SOL     OW83439   0.820   6.904   3.333
27222SOL    HW183440   0.749   6.842   3.352
27222SOL    HW283441   0.826   6.957   3.412
27223SOL     OW83442  11.388   0.935   3.169
27223SOL    HW183443  11.423   0.964   3.084
27223SOL    HW283444  11.370   1.017   3.216
27224SOL     OW83445   5.283   9.632   5.284
27224SOL    HW183446   5.324   9.708   5.242
27224SOL    HW283447   5.280   9.656   5.377
27225SOL     OW83448  13.626   5.000  12.689
27225SOL    HW183449  13.678   4.948  12.628
27225SOL    HW283450  13.659   4.974  12.776
27226SOL     OW83451   7.398  10.804   5.808
27226SOL    HW183452   7.403  10.713   5.779
27226SOL    HW283453   7.429  10.802   5.898
27227SOL     OW83454   2.915   1.713   1.920
27227SOL    HW183455   2.910   1.806   1.939
27227SOL    HW283456   2.894   1.671   2.004
27228SOL     OW83457   2.800   2.764   0.895
27228SOL    HW183458   2.723   2.706   0.892
27228SOL    HW283459   2.768   2.847   0.860
27229SOL     OW83460   9.151  14.313  12.034
27229SOL    HW183461   9.239  14.318  12.071
27229SOL    HW283462   9.093  14.319  12.111
27230SOL     OW83463   4.917   6.950   7.409
27230SOL    HW183464   5.007   6.918   7.406
27230SOL    HW283465   4.863   6.871   7.414
27231SOL     OW83466  10.890  10.718   6.223
27231SOL    HW183467  10.809  10.742   6.266
27231SOL    HW283468  10.883  10.623   6.210
27232SOL     OW83469   3.349   1.923   6.783
27232SOL    HW183470   3.415   1.902   6.717
27232SOL    HW283471   3.272   1.950   6.733
27233SOL     OW83472  12.680   7.613   5.443
27233SOL    HW183473  12.726   7.696   5.429
27233SOL    HW283474  12.705   7.586   5.531
27234SOL     OW83475   4.036   5.410   6.903
27234SOL    HW183476   4.021   5.495   6.946
27234SOL    HW283477   3.949   5.380   6.878
27235SOL     OW83478   9.062   9.080   4.818
27235SOL    HW183479   9.053   9.169   4.852
27235SOL    HW283480   9.046   9.024   4.894
27236SOL     OW83481   0.926   2.634   1.300
27236SOL    HW183482   0.949   2.546   1.330
27236SOL    HW283483   1.004   2.665   1.254
27237SOL     OW83484   7.052  10.379   9.568
27237SOL    HW183485   6.957  10.380   9.583
27237SOL    HW283486   7.084  10.457   9.613
27238SOL     OW83487   8.493   7.370   0.689
27238SOL    HW183488   8.459   7.284   0.663
27238SOL    HW283489   8.511   7.361   0.783
27239SOL     OW83490  13.890   6.126   8.893
27239SOL    HW183491  13.928   6.089   8.973
27239SOL    HW283492  13.910   6.063   8.825
27240SOL     OW83493  11.001   8.985  11.840
27240SOL    HW183494  10.921   8.939  11.864
27240SOL    HW283495  11.039   8.933  11.769
27241SOL     OW83496  10.683   8.885   7.236
27241SOL    HW183497  10.733   8.888   7.318
27241SOL    HW283498  10.596   8.916   7.261
27242SOL     OW83499   3.216   4.645   2.616
27242SOL    HW183500   3.307   4.668   2.597
27242SOL    HW283501   3.165   4.714   2.574
27243SOL     OW83502  12.562  14.843   8.035
27243SOL    HW183503  12.500  14.794   8.089
27243SOL    HW283504  12.563  14.797   7.951
27244SOL     OW83505  10.119  10.581  10.363
27244SOL    HW183506  10.093  10.662  10.408
27244SOL    HW283507  10.050  10.566  10.299
27245SOL     OW83508  14.702   1.343   5.238
27245SOL    HW183509  14.690   1.323   5.331
27245SOL    HW283510  14.617   1.323   5.199
27246SOL     OW83511   1.235   9.487  12.725
27246SOL    HW183512   1.249   9.411  12.668
27246SOL    HW283513   1.161   9.461  12.781
27247SOL     OW83514   6.269   4.131   4.850
27247SOL    HW183515   6.222   4.123   4.767
27247SOL    HW283516   6.318   4.049   4.858
27248SOL     OW83517   1.105   9.807   5.351
27248SOL    HW183518   1.043   9.782   5.281
27248SOL    HW283519   1.111   9.730   5.407
27249SOL     OW83520  10.331   5.505  11.201
27249SOL    HW183521  10.423   5.526  11.188
27249SOL    HW283522  10.312   5.438  11.135
27250SOL     OW83523  13.400   7.220   8.912
27250SOL    HW183524  13.418   7.248   9.001
27250SOL    HW283525  13.308   7.193   8.913
27251SOL     OW83526  10.955   0.036  11.137
27251SOL    HW183527  11.012   0.031  11.060
27251SOL    HW283528  10.959   0.128  11.164
27252SOL     OW83529   2.530  10.377  11.335
27252SOL    HW183530   2.492  10.457  11.372
27252SOL    HW283531   2.518  10.386  11.241
27253SOL     OW83532   7.692  14.829   5.683
27253SOL    HW183533   7.780  14.799   5.706
27253SOL    HW283534   7.695   0.046   5.695
27254SOL     OW83535  14.842   7.075   5.690
27254SOL    HW183536   0.001   7.093   5.777
27254SOL    HW283537   0.041   7.058   5.635
27255SOL     OW83538   4.448   5.683   6.174
27255SOL    HW183539   4.355   5.706   6.174
27255SOL    HW283540   4.479   5.710   6.087
27256SOL     OW83541  13.004  12.638  11.978
27256SOL    HW183542  12.974  12.560  12.025
27256SOL    HW283543  13.035  12.697  12.047
27257SOL     OW83544   8.287   4.662  11.702
27257SOL    HW183545   8.363   4.634  11.753
27257SOL    HW283546   8.305   4.632  11.613
27258SOL     OW83547   4.520   6.708   6.108
27258SOL    HW183548   4.591   6.770   6.127
27258SOL    HW283549   4.508   6.713   6.013
27259SOL     OW83550  11.290  10.656  12.015
27259SOL    HW183551  11.294  10.639  11.921
27259SOL    HW283552  11.382  10.668  12.040
27260SOL     OW83553   1.845  14.191   5.037
27260SOL    HW183554   1.902  14.268   5.034
27260SOL    HW283555   1.876  14.136   4.965
27261SOL     OW83556   9.794  10.048   4.925
27261SOL    HW183557   9.829  10.086   5.006
27261SOL    HW283558   9.817  10.111   4.857
27262SOL     OW83559   9.587   7.487   0.986
27262SOL    HW183560   9.591   7.408   0.932
27262SOL    HW283561   9.652   7.546   0.947
27263SOL     OW83562   8.905   8.852   9.151
27263SOL    HW183563   8.991   8.882   9.123
27263SOL    HW283564   8.917   8.829   9.243
27264SOL     OW83565   5.251   6.323   0.633
27264SOL    HW183566   5.313   6.260   0.595
27264SOL    HW283567   5.304   6.375   0.693
27265SOL     OW83568   7.396   7.767  11.248
27265SOL    HW183569   7.405   7.778  11.153
27265SOL    HW283570   7.472   7.811  11.285
27266SOL     OW83571  14.609  11.570  11.409
27266SOL    HW183572  14.536  11.523  11.369
27266SOL    HW283573  14.590  11.568  11.503
27267SOL     OW83574  14.231  10.487   3.612
27267SOL    HW183575  14.136  10.498   3.614
27267SOL    HW283576  14.251  10.429   3.685
27268SOL     OW83577   3.786   3.624   7.605
27268SOL    HW183578   3.692   3.636   7.592
27268SOL    HW283579   3.794   3.574   7.686
27269SOL     OW83580  12.344  10.418  12.530
27269SOL    HW183581  12.371  10.454  12.446
27269SOL    HW283582  12.416  10.360  12.556
27270SOL     OW83583  12.833   0.776  12.670
27270SOL    HW183584  12.854   0.841  12.736
27270SOL    HW283585  12.878   0.806  12.591
27271SOL     OW83586   7.868   8.616   7.388
27271SOL    HW183587   7.826   8.609   7.302
27271SOL    HW283588   7.841   8.537   7.434
27272SOL     OW83589   0.201  11.178   3.671
27272SOL    HW183590   0.134  11.222   3.618
27272SOL    HW283591   0.282  11.193   3.624
27273SOL     OW83592   2.088   8.173   8.548
27273SOL    HW183593   2.002   8.135   8.530
27273SOL    HW283594   2.081   8.263   8.518
27274SOL     OW83595   5.602   7.910   0.616
27274SOL    HW183596   5.558   7.995   0.608
27274SOL    HW283597   5.530   7.847   0.621
27275SOL     OW83598   5.902  11.453  13.152
27275SOL    HW183599   5.952  11.531  13.175
27275SOL    HW283600   5.962  11.400  13.100
27276SOL     OW83601  12.127   7.323   7.401
27276SOL    HW183602  12.065   7.376   7.351
27276SOL    HW283603  12.083   7.238   7.411
27277SOL     OW83604  11.755   4.099   3.296
27277SOL    HW183605  11.689   4.069   3.233
27277SOL    HW283606  11.825   4.033   3.289
27278SOL     OW83607  12.091   9.002   6.940
27278SOL    HW183608  12.094   8.996   6.845
27278SOL    HW283609  12.170   9.051   6.964
27279SOL     OW83610   9.779  14.682   0.264
27279SOL    HW183611   9.779  14.774   0.291
27279SOL    HW283612   9.807  14.684   0.172
27280SOL     OW83613   0.723   1.056   7.713
27280SOL    HW183614   0.801   1.108   7.732
27280SOL    HW283615   0.665   1.116   7.667
27281SOL     OW83616  12.324  12.372   7.951
27281SOL    HW183617  12.255  12.357   8.015
27281SOL    HW283618  12.352  12.284   7.925
27282SOL     OW83619  14.124   9.916  12.188
27282SOL    HW183620  14.198   9.876  12.234
27282SOL    HW283621  14.055   9.850  12.192
27283SOL     OW83622   5.059   5.038  11.906
27283SOL    HW183623   4.974   5.009  11.872
27283SOL    HW283624   5.039   5.079  11.990
27284SOL     OW83625  10.903   2.344   5.199
27284SOL    HW183626  10.986   2.355   5.246
27284SOL    HW283627  10.858   2.428   5.209
27285SOL     OW83628   5.305   7.832   9.353
27285SOL    HW183629   5.249   7.884   9.294
27285SOL    HW283630   5.335   7.759   9.299
27286SOL     OW83631   2.874  12.069  14.622
27286SOL    HW183632   2.809  12.061  14.552
27286SOL    HW283633   2.841  12.014  14.692
27287SOL     OW83634   1.496   9.197   2.477
27287SOL    HW183635   1.440   9.120   2.474
27287SOL    HW283636   1.454   9.259   2.417
27288SOL     OW83637   6.225   3.382  10.635
27288SOL    HW183638   6.142   3.422  10.663
27288SOL    HW283639   6.200   3.293  10.609
27289SOL     OW83640  11.481  10.118   6.092
27289SOL    HW183641  11.437  10.140   6.175
27289SOL    HW283642  11.525  10.199   6.067
27290SOL     OW83643   6.438   5.959   3.518
27290SOL    HW183644   6.353   6.001   3.507
27290SOL    HW283645   6.497   6.032   3.539
27291SOL     OW83646   3.122   3.493   6.864
27291SOL    HW183647   3.155   3.514   6.777
27291SOL    HW283648   3.027   3.508   6.858
27292SOL     OW83649  11.763  11.483  11.135
27292SOL    HW183650  11.813  11.423  11.081
27292SOL    HW283651  11.699  11.522  11.075
27293SOL     OW83652   1.325  11.520   3.074
27293SOL    HW183653   1.274  11.446   3.042
27293SOL    HW283654   1.365  11.557   2.995
27294SOL     OW83655  11.350  13.327   9.074
27294SOL    HW183656  11.434  13.367   9.053
27294SOL    HW283657  11.369  13.233   9.080
27295SOL     OW83658   8.848   3.592   2.078
27295SOL    HW183659   8.866   3.639   1.996
27295SOL    HW283660   8.767   3.631   2.111
27296SOL     OW83661   5.186   4.334   9.927
27296SOL    HW183662   5.208   4.354  10.018
27296SOL    HW283663   5.094   4.309   9.930
27297SOL     OW83664   3.343   2.393  11.403
27297SOL    HW183665   3.269   2.448  11.375
27297SOL    HW283666   3.306   2.334  11.468
27298SOL     OW83667  13.918  13.267  12.086
27298SOL    HW183668  13.857  13.334  12.119
27298SOL    HW283669  13.869  13.222  12.018
27299SOL     OW83670   5.314   5.580   4.685
27299SOL    HW183671   5.285   5.632   4.760
27299SOL    HW283672   5.366   5.510   4.724
27300SOL     OW83673   7.881   2.501  14.058
27300SOL    HW183674   7.796   2.473  14.093
27300SOL    HW283675   7.930   2.420  14.045
27301SOL     OW83676   5.384  13.715   5.307
27301SOL    HW183677   5.463  13.765   5.287
27301SOL    HW283678   5.408  13.624   5.287
27302SOL     OW83679  14.631   7.846  11.589
27302SOL    HW183680  14.587   7.778  11.538
27302SOL    HW283681  14.610   7.927  11.542
27303SOL     OW83682   2.344   3.337   7.001
27303SOL    HW183683   2.323   3.303   7.088
27303SOL    HW283684   2.346   3.259   6.945
27304SOL     OW83685   9.914  14.367   8.260
27304SOL    HW183686   9.834  14.315   8.269
27304SOL    HW283687   9.984  14.309   8.291
27305SOL     OW83688  12.038   8.213   2.299
27305SOL    HW183689  11.957   8.264   2.298
27305SOL    HW283690  12.094   8.257   2.235
27306SOL     OW83691   2.979   6.608  12.347
27306SOL    HW183692   2.907   6.665  12.322
27306SOL    HW283693   2.975   6.604  12.443
27307SOL     OW83694   9.361  13.819  13.950
27307SOL    HW183695   9.295  13.767  13.904
27307SOL    HW283696   9.313  13.896  13.981
27308SOL     OW83697   0.648   4.565   6.987
27308SOL    HW183698   0.699   4.603   7.059
27308SOL    HW283699   0.602   4.640   6.949
27309SOL     OW83700   3.262   3.374  12.081
27309SOL    HW183701   3.268   3.353  12.174
27309SOL    HW283702   3.178   3.337  12.053
27310SOL     OW83703   1.170  10.653  14.084
27310SOL    HW183704   1.127  10.574  14.049
27310SOL    HW283705   1.098  10.706  14.118
27311SOL     OW83706   1.060  10.142   1.553
27311SOL    HW183707   1.073  10.235   1.570
27311SOL    HW283708   1.109  10.098   1.622
27312SOL     OW83709   5.845  10.631   5.972
27312SOL    HW183710   5.926  10.590   5.941
27312SOL    HW283711   5.874  10.706   6.024
27313SOL     OW83712   1.064  11.140  11.418
27313SOL    HW183713   1.122  11.075  11.378
27313SOL    HW283714   0.998  11.158  11.351
27314SOL     OW83715  14.322  14.827   9.565
27314SOL    HW183716  14.233  14.813   9.532
27314SOL    HW283717  14.379  14.794   9.494
27315SOL     OW83718   1.606   8.071  10.422
27315SOL    HW183719   1.681   8.066  10.480
27315SOL    HW283720   1.642   8.098  10.338
27316SOL     OW83721   3.177   6.615   1.916
27316SOL    HW183722   3.264   6.619   1.876
27316SOL    HW283723   3.190   6.568   1.998
27317SOL     OW83724   9.234   6.061   4.356
27317SOL    HW183725   9.248   5.982   4.302
27317SOL    HW283726   9.242   6.030   4.446
27318SOL     OW83727   4.051   6.669  11.305
27318SOL    HW183728   4.041   6.650  11.211
27318SOL    HW283729   3.968   6.644  11.344
27319SOL     OW83730   2.862   2.135  12.222
27319SOL    HW183731   2.804   2.141  12.146
27319SOL    HW283732   2.888   2.043  12.225
27320SOL     OW83733  10.208   9.318   3.085
27320SOL    HW183734  10.155   9.345   3.161
27320SOL    HW283735  10.207   9.394   3.027
27321SOL     OW83736   7.125   0.931   9.614
27321SOL    HW183737   7.039   0.897   9.588
27321SOL    HW283738   7.184   0.903   9.543
27322SOL     OW83739   1.097   3.981  14.795
27322SOL    HW183740   1.164   4.003  14.860
27322SOL    HW283741   1.139   3.914  14.740
27323SOL     OW83742   3.897  14.587  14.568
27323SOL    HW183743   3.860  14.561  14.483
27323SOL    HW283744   3.956  14.515  14.591
27324SOL     OW83745   7.093  13.985   8.394
27324SOL    HW183746   7.009  13.958   8.431
27324SOL    HW283747   7.127  13.906   8.353
27325SOL     OW83748   4.337  11.468   5.253
27325SOL    HW183749   4.302  11.380   5.248
27325SOL    HW283750   4.415  11.460   5.308
27326SOL     OW83751   8.583   9.829   5.241
27326SOL    HW183752   8.667   9.854   5.279
27326SOL    HW283753   8.523   9.825   5.316
27327SOL     OW83754   3.021  10.687   4.378
27327SOL    HW183755   2.965  10.637   4.438
27327SOL    HW283756   3.107  10.645   4.385
27328SOL     OW83757  14.608   4.428   4.262
27328SOL    HW183758  14.601   4.440   4.167
27328SOL    HW283759  14.523   4.456   4.296
27329SOL     OW83760   5.415  13.716   0.605
27329SOL    HW183761   5.434  13.655   0.677
27329SOL    HW283762   5.351  13.670   0.551
27330SOL     OW83763   4.996   8.726  11.581
27330SOL    HW183764   4.958   8.649  11.624
27330SOL    HW283765   4.932   8.795  11.593
27331SOL     OW83766  11.699   9.564  13.912
27331SOL    HW183767  11.617   9.598  13.877
27331SOL    HW283768  11.761   9.573  13.839
27332SOL     OW83769   2.401   7.972   8.727
27332SOL    HW183770   2.306   7.965   8.717
27332SOL    HW283771   2.435   7.891   8.688
27333SOL     OW83772  10.666   8.593   4.131
27333SOL    HW183773  10.721   8.566   4.204
27333SOL    HW283774  10.722   8.649   4.077
27334SOL     OW83775   2.790  14.608   8.389
27334SOL    HW183776   2.826  14.560   8.315
27334SOL    HW283777   2.697  14.618   8.368
27335SOL     OW83778   7.044   1.460   7.043
27335SOL    HW183779   7.028   1.426   7.131
27335SOL    HW283780   6.983   1.533   7.034
27336SOL     OW83781  10.358   8.844  14.412
27336SOL    HW183782  10.290   8.912  14.407
27336SOL    HW283783  10.341   8.800  14.496
27337SOL     OW83784   6.867  11.911   0.850
27337SOL    HW183785   6.960  11.932   0.844
27337SOL    HW283786   6.823  11.995   0.867
27338SOL     OW83787  12.798   7.455   2.412
27338SOL    HW183788  12.742   7.397   2.464
27338SOL    HW283789  12.867   7.397   2.378
27339SOL     OW83790   4.490   0.482  14.815
27339SOL    HW183791   4.471   0.398  14.857
27339SOL    HW283792   4.506   0.542   0.011
27340SOL     OW83793  14.739  10.343   8.431
27340SOL    HW183794  14.795  10.393   8.490
27340SOL    HW283795  14.665  10.401   8.415
27341SOL     OW83796   0.180  10.316  11.946
27341SOL    HW183797   0.164  10.226  11.916
27341SOL    HW283798   0.272  10.332  11.923
27342SOL     OW83799   1.153   2.598   4.824
27342SOL    HW183800   1.235   2.604   4.872
27342SOL    HW283801   1.116   2.514   4.851
27343SOL     OW83802  13.799   5.579  14.395
27343SOL    HW183803  13.770   5.490  14.378
27343SOL    HW283804  13.755   5.632  14.328
27344SOL     OW83805   8.328   3.639   0.040
27344SOL    HW183806   8.288   3.719   0.075
27344SOL    HW283807   8.400   3.620   0.100
27345SOL     OW83808   6.267   0.607  14.697
27345SOL    HW183809   6.356   0.572  14.688
27345SOL    HW283810   6.247   0.598  14.790
27346SOL     OW83811   3.365   2.839  13.773
27346SOL    HW183812   3.371   2.808  13.682
27346SOL    HW283813   3.456   2.846  13.802
27347SOL     OW83814  13.676   5.125   7.916
27347SOL    HW183815  13.769   5.117   7.895
27347SOL    HW283816  13.670   5.103   8.009
27348SOL     OW83817  10.359   1.714   9.702
27348SOL    HW183818  10.429   1.674   9.754
27348SOL    HW283819  10.312   1.769   9.765
27349SOL     OW83820   2.135   5.681   3.995
27349SOL    HW183821   2.140   5.694   3.900
27349SOL    HW283822   2.138   5.770   4.031
27350SOL     OW83823   7.434   9.666   9.540
27350SOL    HW183824   7.475   9.721   9.475
27350SOL    HW283825   7.485   9.680   9.620
27351SOL     OW83826   5.291  13.936   7.286
27351SOL    HW183827   5.369  13.948   7.340
27351SOL    HW283828   5.303  13.997   7.213
27352SOL     OW83829   5.683   1.762   1.808
27352SOL    HW183830   5.622   1.804   1.869
27352SOL    HW283831   5.763   1.813   1.815
27353SOL     OW83832   6.079   4.563  13.028
27353SOL    HW183833   5.983   4.560  13.024
27353SOL    HW283834   6.100   4.528  13.115
27354SOL     OW83835  14.666   9.799   1.972
27354SOL    HW183836  14.604   9.753   1.915
27354SOL    HW283837  14.739   9.822   1.914
27355SOL     OW83838   0.722  10.714   6.295
27355SOL    HW183839   0.766  10.798   6.302
27355SOL    HW283840   0.714  10.683   6.385
27356SOL     OW83841  10.890   7.968   8.407
27356SOL    HW183842  10.928   7.960   8.495
27356SOL    HW283843  10.925   8.050   8.373
27357SOL     OW83844   0.878   4.247  12.841
27357SOL    HW183845   0.866   4.302  12.918
27357SOL    HW283846   0.796   4.256  12.792
27358SOL     OW83847   1.912   1.098  13.459
27358SOL    HW183848   1.899   1.187  13.493
27358SOL    HW283849   1.902   1.107  13.364
27359SOL     OW83850   8.950  14.825   1.284
27359SOL    HW183851   8.996  14.774   1.217
27359SOL    HW283852   8.859  14.825   1.256
27360SOL     OW83853  10.835  13.128   6.754
27360SOL    HW183854  10.926  13.118   6.729
27360SOL    HW283855  10.817  13.056   6.814
27361SOL     OW83856   8.432   1.088   1.332
27361SOL    HW183857   8.407   1.063   1.243
27361SOL    HW283858   8.528   1.078   1.334
27362SOL     OW83859  10.999  14.617  12.480
27362SOL    HW183860  10.999  14.622  12.385
27362SOL    HW283861  10.917  14.659  12.507
27363SOL     OW83862   3.047  13.594  13.102
27363SOL    HW183863   2.998  13.535  13.159
27363SOL    HW283864   3.061  13.673  13.155
27364SOL     OW83865  14.050   2.951   8.311
27364SOL    HW183866  14.068   2.890   8.240
27364SOL    HW283867  13.958   2.936   8.333
27365SOL     OW83868   1.602  11.800   7.245
27365SOL    HW183869   1.688  11.841   7.234
27365SOL    HW283870   1.621  11.718   7.290
27366SOL     OW83871  13.029   1.426   5.733
27366SOL    HW183872  12.986   1.340   5.732
27366SOL    HW283873  12.991   1.471   5.809
27367SOL     OW83874   2.178   7.996   3.903
27367SOL    HW183875   2.193   7.909   3.865
27367SOL    HW283876   2.142   7.977   3.990
27368SOL     OW83877   4.969   8.106  10.713
27368SOL    HW183878   4.896   8.129  10.655
27368SOL    HW283879   5.042   8.090  10.655
27369SOL     OW83880   3.580  14.328  11.342
27369SOL    HW183881   3.524  14.387  11.291
27369SOL    HW283882   3.520  14.283  11.401
27370SOL     OW83883   8.504   2.505  10.369
27370SOL    HW183884   8.500   2.571  10.438
27370SOL    HW283885   8.475   2.424  10.413
27371SOL     OW83886   2.522   3.153   8.603
27371SOL    HW183887   2.497   3.245   8.616
27371SOL    HW283888   2.507   3.137   8.510
27372SOL     OW83889   0.840  12.115   6.071
27372SOL    HW183890   0.816  12.194   6.119
27372SOL    HW283891   0.929  12.131   6.041
27373SOL     OW83892  13.221   3.243  12.156
27373SOL    HW183893  13.253   3.290  12.233
27373SOL    HW283894  13.145   3.294  12.128
27374SOL     OW83895   0.746  10.941   0.902
27374SOL    HW183896   0.733  10.988   0.985
27374SOL    HW283897   0.796  10.862   0.927
27375SOL     OW83898   3.646  11.487  13.547
27375SOL    HW183899   3.559  11.469  13.514
27375SOL    HW283900   3.705  11.455  13.479
27376SOL     OW83901   8.636  14.517  14.695
27376SOL    HW183902   8.656  14.603  14.657
27376SOL    HW283903   8.551  14.529  14.737
27377SOL     OW83904  14.028  13.558   7.763
27377SOL    HW183905  14.097  13.499   7.733
27377SOL    HW283906  14.074  13.623   7.817
27378SOL     OW83907   6.564  11.199   5.870
27378SOL    HW183908   6.539  11.238   5.953
27378SOL    HW283909   6.567  11.104   5.887
27379SOL     OW83910   4.273   4.941   5.033
27379SOL    HW183911   4.282   4.886   4.955
27379SOL    HW283912   4.354   4.992   5.036
27380SOL     OW83913   6.834   4.705   1.622
27380SOL    HW183914   6.921   4.742   1.608
27380SOL    HW283915   6.801   4.688   1.534
27381SOL     OW83916  14.110   7.315  14.688
27381SOL    HW183917  14.189   7.367  14.676
27381SOL    HW283918  14.127   7.233  14.642
27382SOL     OW83919  10.319  13.843   9.078
27382SOL    HW183920  10.313  13.935   9.055
27382SOL    HW283921  10.402  13.814   9.041
27383SOL     OW83922  11.659   4.419   6.537
27383SOL    HW183923  11.678   4.504   6.578
27383SOL    HW283924  11.716   4.357   6.583
27384SOL     OW83925   1.263  14.056   9.393
27384SOL    HW183926   1.272  13.978   9.448
27384SOL    HW283927   1.256  14.128   9.456
27385SOL     OW83928   0.877  14.503   6.100
27385SOL    HW183929   0.792  14.533   6.069
27385SOL    HW283930   0.940  14.544   6.041
27386SOL     OW83931   6.040   1.469   6.742
27386SOL    HW183932   6.074   1.497   6.827
27386SOL    HW283933   6.107   1.496   6.679
27387SOL     OW83934   5.904  14.722   9.906
27387SOL    HW183935   5.898  14.814   9.931
27387SOL    HW283936   5.851  14.676   9.971
27388SOL     OW83937   0.573   9.029   6.284
27388SOL    HW183938   0.658   9.016   6.326
27388SOL    HW283939   0.512   9.039   6.357
27389SOL     OW83940   0.429  12.691  14.100
27389SOL    HW183941   0.421  12.623  14.167
27389SOL    HW283942   0.394  12.770  14.142
27390SOL     OW83943  13.334  11.693   5.666
27390SOL    HW183944  13.422  11.729   5.650
27390SOL    HW283945  13.348  11.599   5.671
27391SOL     OW83946   1.154  14.320   9.437
27391SOL    HW183947   1.146  14.402   9.485
27391SOL    HW283948   1.233  14.330   9.383
27392SOL     OW83949   4.450   4.473   4.218
27392SOL    HW183950   4.529   4.429   4.186
27392SOL    HW283951   4.382   4.407   4.213
27393SOL     OW83952   7.474   4.120   4.788
27393SOL    HW183953   7.435   4.034   4.771
27393SOL    HW283954   7.403   4.172   4.826
27394SOL     OW83955   1.337  10.525  13.841
27394SOL    HW183956   1.262  10.539  13.898
27394SOL    HW283957   1.298  10.505  13.756
27395SOL     OW83958   7.156   1.423  10.486
27395SOL    HW183959   7.218   1.490  10.457
27395SOL    HW283960   7.203   1.341  10.479
27396SOL     OW83961  13.351   6.010   2.411
27396SOL    HW183962  13.323   5.919   2.419
27396SOL    HW283963  13.391   6.030   2.496
27397SOL     OW83964   5.695   6.921  14.334
27397SOL    HW183965   5.715   6.850  14.395
27397SOL    HW283966   5.763   6.986  14.349
27398SOL     OW83967   8.977   5.520  14.572
27398SOL    HW183968   8.896   5.550  14.614
27398SOL    HW283969   8.948   5.455  14.508
27399SOL     OW83970   1.735   8.418   1.869
27399SOL    HW183971   1.804   8.454   1.925
27399SOL    HW283972   1.688   8.357   1.925
27400SOL     OW83973   6.173   1.849  13.876
27400SOL    HW183974   6.135   1.856  13.963
27400SOL    HW283975   6.098   1.835  13.818
27401SOL     OW83976   6.802   1.818   4.433
27401SOL    HW183977   6.798   1.906   4.470
27401SOL    HW283978   6.829   1.831   4.342
27402SOL     OW83979  10.178  11.039   0.212
27402SOL    HW183980  10.274  11.038   0.216
27402SOL    HW283981  10.153  10.948   0.198
27403SOL     OW83982   2.575  12.517   5.297
27403SOL    HW183983   2.630  12.448   5.259
27403SOL    HW283984   2.501  12.470   5.336
27404SOL     OW83985   7.288   9.695  13.170
27404SOL    HW183986   7.282   9.734  13.257
27404SOL    HW283987   7.377   9.662  13.165
27405SOL     OW83988   1.377  12.207  14.792
27405SOL    HW183989   1.320  12.163  14.855
27405SOL    HW283990   1.319  12.230  14.719
27406SOL     OW83991   2.444   0.112   1.223
27406SOL    HW183992   2.459   0.163   1.143
27406SOL    HW283993   2.479   0.025   1.202
27407SOL     OW83994  12.616  14.123  11.047
27407SOL    HW183995  12.706  14.122  11.080
27407SOL    HW283996  12.626  14.110  10.952
27408SOL     OW83997  14.526   8.918   8.060
27408SOL    HW183998  14.526   8.832   8.103
27408SOL    HW283999  14.604   8.962   8.094
27409SOL     OW84000  10.601   2.591  12.846
27409SOL    HW184001  10.526   2.556  12.797
27409SOL    HW284002  10.575   2.680  12.869
27410SOL     OW84003   8.173   3.415   1.694
27410SOL    HW184004   8.090   3.425   1.740
27410SOL    HW284005   8.151   3.423   1.601
27411SOL     OW84006   7.414   1.080  14.311
27411SOL    HW184007   7.359   1.129  14.250
27411SOL    HW284008   7.364   1.080  14.393
27412SOL     OW84009  12.597  10.030  10.469
27412SOL    HW184010  12.512   9.996  10.498
27412SOL    HW284011  12.639   9.956  10.425
27413SOL     OW84012  10.102  14.856   9.705
27413SOL    HW184013  10.075   0.070   9.714
27413SOL    HW284014  10.191  14.862   9.670
27414SOL     OW84015  10.774   4.695  13.438
27414SOL    HW184016  10.840   4.726  13.376
27414SOL    HW284017  10.823   4.652  13.507
27415SOL     OW84018  12.513  10.337   4.235
27415SOL    HW184019  12.527  10.261   4.291
27415SOL    HW284020  12.495  10.300   4.148
27416SOL     OW84021   5.128  11.794   4.468
27416SOL    HW184022   5.201  11.856   4.477
27416SOL    HW284023   5.094  11.810   4.380
27417SOL     OW84024   8.205   4.419   5.248
27417SOL    HW184025   8.269   4.464   5.302
27417SOL    HW284026   8.140   4.386   5.311
27418SOL     OW84027  14.242  10.853   4.846
27418SOL    HW184028  14.186  10.899   4.784
27418SOL    HW284029  14.294  10.794   4.792
27419SOL     OW84030  11.952   7.946   6.249
27419SOL    HW184031  11.916   7.857   6.256
27419SOL    HW284032  11.969   7.972   6.340
27420SOL     OW84033   6.847   9.670  12.352
27420SOL    HW184034   6.757   9.675  12.387
27420SOL    HW284035   6.836   9.649  12.260
27421SOL     OW84036  11.021  12.153   3.317
27421SOL    HW184037  11.026  12.211   3.242
27421SOL    HW284038  10.961  12.197   3.378
27422SOL     OW84039   7.336   9.663  10.687
27422SOL    HW184040   7.298   9.662  10.775
27422SOL    HW284041   7.391   9.742  10.686
27423SOL     OW84042   2.886   8.695  12.323
27423SOL    HW184043   2.799   8.698  12.283
27423SOL    HW284044   2.873   8.647  12.404
27424SOL     OW84045   3.038  12.990   1.513
27424SOL    HW184046   3.006  13.000   1.602
27424SOL    HW284047   2.992  12.913   1.479
27425SOL     OW84048   9.057  11.467   6.251
27425SOL    HW184049   8.970  11.426   6.251
27425SOL    HW284050   9.040  11.558   6.273
27426SOL     OW84051  14.670  13.420  14.056
27426SOL    HW184052  14.634  13.448  14.141
27426SOL    HW284053  14.608  13.355  14.024
27427SOL     OW84054   6.197   0.442  11.751
27427SOL    HW184055   6.145   0.387  11.810
27427SOL    HW284056   6.146   0.444  11.670
27428SOL     OW84057   3.457   1.162  14.624
27428SOL    HW184058   3.542   1.175  14.583
27428SOL    HW284059   3.474   1.170  14.718
27429SOL     OW84060   4.182   9.513  12.523
27429SOL    HW184061   4.233   9.573  12.576
27429SOL    HW284062   4.241   9.440  12.506
27430SOL     OW84063   7.323  13.634  10.612
27430SOL    HW184064   7.367  13.638  10.527
27430SOL    HW284065   7.342  13.546  10.645
27431SOL     OW84066  12.583  10.801   7.517
27431SOL    HW184067  12.564  10.869   7.581
27431SOL    HW284068  12.512  10.806   7.454
27432SOL     OW84069   8.797   9.655  12.923
27432SOL    HW184070   8.795   9.648  12.828
27432SOL    HW284071   8.706   9.669  12.948
27433SOL     OW84072   9.282   3.675   9.042
27433SOL    HW184073   9.288   3.703   8.951
27433SOL    HW284074   9.234   3.745   9.086
27434SOL     OW84075   3.737  10.980  13.581
27434SOL    HW184076   3.781  11.057  13.618
27434SOL    HW284077   3.759  10.909  13.640
27435SOL     OW84078   2.278   2.589   3.803
27435SOL    HW184079   2.257   2.682   3.802
27435SOL    HW284080   2.369   2.585   3.833
27436SOL     OW84081   9.822   8.865   0.134
27436SOL    HW184082   9.738   8.907   0.118
27436SOL    HW284083   9.813   8.777   0.097
27437SOL     OW84084   5.543   5.661   1.271
27437SOL    HW184085   5.498   5.614   1.202
27437SOL    HW284086   5.477   5.676   1.338
27438SOL     OW84087   7.196   2.300   5.293
27438SOL    HW184088   7.185   2.255   5.209
27438SOL    HW284089   7.262   2.248   5.340
27439SOL     OW84090   8.143   9.787   0.424
27439SOL    HW184091   8.096   9.833   0.493
27439SOL    HW284092   8.140   9.695   0.450
27440SOL     OW84093  10.004   9.015   5.983
27440SOL    HW184094   9.981   9.074   5.911
27440SOL    HW284095  10.032   8.935   5.940
27441SOL     OW84096  13.144   8.272   6.822
27441SOL    HW184097  13.231   8.232   6.813
27441SOL    HW284098  13.162   8.366   6.825
27442SOL     OW84099  12.206   9.621   5.268
27442SOL    HW184100  12.288   9.608   5.316
27442SOL    HW284101  12.210   9.558   5.196
27443SOL     OW84102   2.448   6.095   5.612
27443SOL    HW184103   2.370   6.043   5.595
27443SOL    HW284104   2.489   6.052   5.687
27444SOL     OW84105   8.997   2.939   8.961
27444SOL    HW184106   8.967   2.973   9.045
27444SOL    HW284107   9.085   2.975   8.950
27445SOL     OW84108   9.561   2.323   7.206
27445SOL    HW184109   9.623   2.370   7.150
27445SOL    HW284110   9.580   2.356   7.294
27446SOL     OW84111   9.353   4.517   8.885
27446SOL    HW184112   9.332   4.454   8.816
27446SOL    HW284113   9.318   4.600   8.853
27447SOL     OW84114   1.756   9.745  12.060
27447SOL    HW184115   1.834   9.797  12.082
27447SOL    HW284116   1.727   9.780  11.976
27448SOL     OW84117   5.706   7.015   3.413
27448SOL    HW184118   5.700   6.966   3.331
27448SOL    HW284119   5.696   7.107   3.386
27449SOL     OW84120  14.642   2.481   5.744
27449SOL    HW184121  14.569   2.419   5.746
27449SOL    HW284122  14.600   2.567   5.741
27450SOL     OW84123   4.529   9.235   2.990
27450SOL    HW184124   4.604   9.255   2.935
27450SOL    HW284125   4.518   9.140   2.983
27451SOL     OW84126   9.736   8.246   4.357
27451SOL    HW184127   9.721   8.153   4.339
27451SOL    HW284128   9.684   8.291   4.290
27452SOL     OW84129   4.048   7.795   8.528
27452SOL    HW184130   4.106   7.862   8.490
27452SOL    HW284131   4.102   7.716   8.532
27453SOL     OW84132   3.415   3.445   6.254
27453SOL    HW184133   3.351   3.463   6.323
27453SOL    HW284134   3.401   3.516   6.190
27454SOL     OW84135  14.435   2.726   4.315
27454SOL    HW184136  14.497   2.796   4.336
27454SOL    HW284137  14.390   2.755   4.236
27455SOL     OW84138   2.493  12.986   9.990
27455SOL    HW184139   2.483  13.002  10.083
27455SOL    HW284140   2.554  13.054   9.960
27456SOL     OW84141   0.507  12.978  11.624
27456SOL    HW184142   0.601  12.993  11.637
27456SOL    HW284143   0.496  12.884  11.636
27457SOL     OW84144  11.685   5.794   7.844
27457SOL    HW184145  11.643   5.761   7.766
27457SOL    HW284146  11.709   5.716   7.894
27458SOL     OW84147   4.610   3.312  14.531
27458SOL    HW184148   4.604   3.376  14.460
27458SOL    HW284149   4.604   3.227  14.488
27459SOL     OW84150  11.668   4.811  10.452
27459SOL    HW184151  11.725   4.864  10.396
27459SOL    HW284152  11.611   4.874  10.496
27460SOL     OW84153   4.499   4.677   6.316
27460SOL    HW184154   4.535   4.692   6.403
27460SOL    HW284155   4.532   4.591   6.290
27461SOL     OW84156   8.836   1.665   9.365
27461SOL    HW184157   8.862   1.676   9.457
27461SOL    HW284158   8.749   1.704   9.360
27462SOL     OW84159  12.233   0.388  12.759
27462SOL    HW184160  12.224   0.297  12.733
27462SOL    HW284161  12.269   0.384  12.848
27463SOL     OW84162   0.873  14.759  11.150
27463SOL    HW184163   0.814  14.718  11.087
27463SOL    HW284164   0.888  14.847  11.115
27464SOL     OW84165  13.086   9.193  10.431
27464SOL    HW184166  13.149   9.137  10.475
27464SOL    HW284167  13.001   9.151  10.446
27465SOL     OW84168   6.026   5.874   9.604
27465SOL    HW184169   6.012   5.915   9.689
27465SOL    HW284170   6.073   5.941   9.553
27466SOL     OW84171  13.787  12.740   9.081
27466SOL    HW184172  13.871  12.765   9.042
27466SOL    HW284173  13.779  12.797   9.158
27467SOL     OW84174   0.070   9.566   3.558
27467SOL    HW184175   0.028   9.511   3.625
27467SOL    HW284176   0.144   9.514   3.527
27468SOL     OW84177  11.578   0.042   1.579
27468SOL    HW184178  11.486   0.058   1.599
27468SOL    HW284179  11.602   0.112   1.519
27469SOL     OW84180   0.588   9.272   8.881
27469SOL    HW184181   0.645   9.240   8.951
27469SOL    HW284182   0.645   9.278   8.804
27470SOL     OW84183   4.508   2.968   3.306
27470SOL    HW184184   4.495   2.925   3.222
27470SOL    HW284185   4.536   2.899   3.366
27471SOL     OW84186   8.571  10.932   7.147
27471SOL    HW184187   8.601  10.970   7.230
27471SOL    HW284188   8.630  10.858   7.131
27472SOL     OW84189   5.469  13.420   6.095
27472SOL    HW184190   5.511  13.501   6.123
27472SOL    HW284191   5.472  13.364   6.173
27473SOL     OW84192  12.706   6.461   0.271
27473SOL    HW184193  12.660   6.377   0.268
27473SOL    HW284194  12.637   6.526   0.256
27474SOL     OW84195   6.020  14.778   8.932
27474SOL    HW184196   6.005  14.872   8.933
27474SOL    HW284197   5.987  14.748   9.016
27475SOL     OW84198   0.224   6.653   4.922
27475SOL    HW184199   0.315   6.682   4.929
27475SOL    HW284200   0.210   6.600   5.001
27476SOL     OW84201   6.106   1.090   0.222
27476SOL    HW184202   6.011   1.083   0.226
27476SOL    HW284203   6.138   1.025   0.285
27477SOL     OW84204  10.095   0.333   3.466
27477SOL    HW184205  10.167   0.350   3.405
27477SOL    HW284206  10.036   0.408   3.456
27478SOL     OW84207  10.730   5.809   1.036
27478SOL    HW184208  10.717   5.717   1.059
27478SOL    HW284209  10.797   5.840   1.097
27479SOL     OW84210   1.059   3.835   4.023
27479SOL    HW184211   0.983   3.813   4.076
27479SOL    HW284212   1.041   3.796   3.937
27480SOL     OW84213  12.293  13.746  13.964
27480SOL    HW184214  12.383  13.739  13.996
27480SOL    HW284215  12.293  13.825  13.909
27481SOL     OW84216   0.573   1.762   8.860
27481SOL    HW184217   0.594   1.677   8.899
27481SOL    HW284218   0.538   1.740   8.773
27482SOL     OW84219   7.027  13.826  11.822
27482SOL    HW184220   6.946  13.787  11.857
27482SOL    HW284221   7.016  13.920  11.834
27483SOL     OW84222  11.446  11.430   7.662
27483SOL    HW184223  11.407  11.354   7.705
27483SOL    HW284224  11.402  11.435   7.577
27484SOL     OW84225   1.751  11.024   4.813
27484SOL    HW184226   1.769  11.100   4.757
27484SOL    HW284227   1.656  11.014   4.810
27485SOL     OW84228   8.585   4.070   3.477
27485SOL    HW184229   8.581   4.090   3.571
27485SOL    HW284230   8.662   4.015   3.467
27486SOL     OW84231  12.067   0.941   5.714
27486SOL    HW184232  11.975   0.943   5.739
27486SOL    HW284233  12.085   0.849   5.694
27487SOL     OW84234  12.130  12.495   5.084
27487SOL    HW184235  12.137  12.487   4.989
27487SOL    HW284236  12.120  12.405   5.115
27488SOL     OW84237   0.531  14.276   4.767
27488SOL    HW184238   0.543  14.365   4.800
27488SOL    HW284239   0.451  14.245   4.809
27489SOL     OW84240   8.248   5.708  14.318
27489SOL    HW184241   8.293   5.629  14.291
27489SOL    HW284242   8.157   5.680  14.334
27490SOL     OW84243  14.653   2.012  11.417
27490SOL    HW184244  14.737   1.983  11.453
27490SOL    HW284245  14.661   2.108  11.414
27491SOL     OW84246   0.770   0.618  13.679
27491SOL    HW184247   0.714   0.594  13.605
27491SOL    HW284248   0.738   0.565  13.751
27492SOL     OW84249   5.319   0.129   2.154
27492SOL    HW184250   5.238   0.151   2.108
27492SOL    HW284251   5.331   0.036   2.139
27493SOL     OW84252   6.788   6.762  13.077
27493SOL    HW184253   6.767   6.855  13.066
27493SOL    HW284254   6.807   6.731  12.988
27494SOL     OW84255   5.241  14.097   4.622
27494SOL    HW184256   5.334  14.084   4.642
27494SOL    HW284257   5.207  14.008   4.614
27495SOL     OW84258  13.908   9.131   6.782
27495SOL    HW184259  13.941   9.205   6.731
27495SOL    HW284260  13.934   9.151   6.872
27496SOL     OW84261  11.589   9.065   7.345
27496SOL    HW184262  11.536   9.092   7.420
27496SOL    HW284263  11.534   9.003   7.298
27497SOL     OW84264   2.053   4.200   2.569
27497SOL    HW184265   2.046   4.246   2.485
27497SOL    HW284266   1.987   4.131   2.563
27498SOL     OW84267  14.220   8.286   8.758
27498SOL    HW184268  14.194   8.254   8.845
27498SOL    HW284269  14.188   8.376   8.756
27499SOL     OW84270   8.238   9.243  13.639
27499SOL    HW184271   8.173   9.287  13.693
27499SOL    HW284272   8.321   9.255  13.685
27500SOL     OW84273   5.665   2.685   3.180
27500SOL    HW184274   5.757   2.683   3.205
27500SOL    HW284275   5.661   2.746   3.107
27501SOL     OW84276  14.182   5.489   1.597
27501SOL    HW184277  14.180   5.410   1.542
27501SOL    HW284278  14.191   5.455   1.686
27502SOL     OW84279  10.898   3.563  14.093
27502SOL    HW184280  10.965   3.622  14.127
27502SOL    HW284281  10.940   3.477  14.091
27503SOL     OW84282   5.855  13.934  11.550
27503SOL    HW184283   5.886  13.869  11.487
27503SOL    HW284284   5.875  14.019  11.509
27504SOL     OW84285   0.412   1.556   4.914
27504SOL    HW184286   0.501   1.523   4.923
27504SOL    HW284287   0.357   1.478   4.909
27505SOL     OW84288   3.941   2.389   1.580
27505SOL    HW184289   3.917   2.439   1.502
27505SOL    HW284290   3.859   2.380   1.628
27506SOL     OW84291  13.865   0.790  11.531
27506SOL    HW184292  13.955   0.778  11.499
27506SOL    HW284293  13.819   0.831  11.458
27507SOL     OW84294   9.385   6.716   9.975
27507SOL    HW184295   9.377   6.621   9.968
27507SOL    HW284296   9.384   6.747   9.884
27508SOL     OW84297   9.505   5.712   9.263
27508SOL    HW184298   9.507   5.807   9.257
27508SOL    HW284299   9.532   5.693   9.353
27509SOL     OW84300   7.407  13.675  14.149
27509SOL    HW184301   7.411  13.734  14.075
27509SOL    HW284302   7.322  13.630  14.141
27510SOL     OW84303  11.904   4.685   0.283
27510SOL    HW184304  11.971   4.678   0.216
27510SOL    HW284305  11.938   4.633   0.357
27511SOL     OW84306   8.891  11.978  10.072
27511SOL    HW184307   8.807  11.993  10.028
27511SOL    HW284308   8.954  12.031  10.022
27512SOL     OW84309   4.453   1.441   9.017
27512SOL    HW184310   4.531   1.495   9.000
27512SOL    HW284311   4.474   1.393   9.097
27513SOL     OW84312   0.600   6.663  10.665
27513SOL    HW184313   0.561   6.682  10.579
27513SOL    HW284314   0.658   6.589  10.649
27514SOL     OW84315   0.950  13.878   3.257
27514SOL    HW184316   0.881  13.897   3.320
27514SOL    HW284317   1.027  13.860   3.311
27515SOL     OW84318   8.162   0.410  14.021
27515SOL    HW184319   8.127   0.324  14.043
27515SOL    HW284320   8.254   0.406  14.047
27516SOL     OW84321  12.548   9.606  12.833
27516SOL    HW184322  12.626   9.637  12.880
27516SOL    HW284323  12.497   9.559  12.900
27517SOL     OW84324   5.802   8.742   1.886
27517SOL    HW184325   5.817   8.756   1.793
27517SOL    HW284326   5.877   8.782   1.929
27518SOL     OW84327  11.455  14.149   2.833
27518SOL    HW184328  11.388  14.083   2.818
27518SOL    HW284329  11.436  14.184   2.920
27519SOL     OW84330   7.008   6.828   2.774
27519SOL    HW184331   7.093   6.871   2.765
27519SOL    HW284332   6.980   6.812   2.684
27520SOL     OW84333   1.127   0.827   4.169
27520SOL    HW184334   1.076   0.790   4.097
27520SOL    HW284335   1.095   0.782   4.247
27521SOL     OW84336   9.062  10.783  13.421
27521SOL    HW184337   9.037  10.794  13.513
27521SOL    HW284338   9.067  10.872  13.387
27522SOL     OW84339  12.300  10.657   5.675
27522SOL    HW184340  12.304  10.629   5.583
27522SOL    HW284341  12.216  10.704   5.682
27523SOL     OW84342  13.991   4.326   0.048
27523SOL    HW184343  14.020   4.351  14.838
27523SOL    HW284344  13.953   4.239   0.037
27524SOL     OW84345  10.780   8.660   4.784
27524SOL    HW184346  10.793   8.734   4.844
27524SOL    HW284347  10.713   8.606   4.827
27525SOL     OW84348  14.877  12.290   6.741
27525SOL    HW184349  14.802  12.252   6.694
27525SOL    HW284350   0.062  12.218   6.747
27526SOL     OW84351  13.766   2.416  12.320
27526SOL    HW184352  13.766   2.508  12.294
27526SOL    HW284353  13.852   2.401  12.360
27527SOL     OW84354   8.933   7.633  14.467
27527SOL    HW184355   8.983   7.657  14.389
27527SOL    HW284356   8.914   7.540  14.455
27528SOL     OW84357   2.487   8.005  12.095
27528SOL    HW184358   2.486   8.027  12.188
27528SOL    HW284359   2.535   8.077  12.054
27529SOL     OW84360   3.807   6.442  12.806
27529SOL    HW184361   3.841   6.370  12.753
27529SOL    HW284362   3.725   6.408  12.842
27530SOL     OW84363   2.209   3.653   2.119
27530SOL    HW184364   2.217   3.727   2.060
27530SOL    HW284365   2.116   3.629   2.116
27531SOL     OW84366   9.807   2.752   7.620
27531SOL    HW184367   9.808   2.842   7.653
27531SOL    HW284368   9.717   2.738   7.591
27532SOL     OW84369  12.000   9.461   5.047
27532SOL    HW184370  11.962   9.464   4.959
27532SOL    HW284371  12.094   9.478   5.032
27533SOL     OW84372  13.073  11.791   3.277
27533SOL    HW184373  13.077  11.852   3.351
27533SOL    HW284374  12.980  11.767   3.271
27534SOL     OW84375   6.759   3.068   4.312
27534SOL    HW184376   6.798   3.091   4.227
27534SOL    HW284377   6.813   2.996   4.344
27535SOL     OW84378   1.239   9.946   6.062
27535SOL    HW184379   1.213   9.855   6.072
27535SOL    HW284380   1.303   9.946   5.991
27536SOL     OW84381   4.426   2.817   0.218
27536SOL    HW184382   4.374   2.802   0.297
27536SOL    HW284383   4.375   2.777   0.148
27537SOL     OW84384   8.242   1.204   0.362
27537SOL    HW184385   8.248   1.110   0.347
27537SOL    HW284386   8.327   1.238   0.333
27538SOL     OW84387   2.541   3.338   3.805
27538SOL    HW184388   2.547   3.247   3.774
27538SOL    HW284389   2.630   3.359   3.835
27539SOL     OW84390   4.844  11.024   6.906
27539SOL    HW184391   4.791  10.967   6.962
27539SOL    HW284392   4.920  11.045   6.959
27540SOL     OW84393   7.528   9.974   7.679
27540SOL    HW184394   7.457   9.974   7.616
27540SOL    HW284395   7.544   9.881   7.697
27541SOL     OW84396   8.311   5.804  13.683
27541SOL    HW184397   8.287   5.770  13.597
27541SOL    HW284398   8.278   5.894  13.683
27542SOL     OW84399  11.551   3.405   7.268
27542SOL    HW184400  11.645   3.417   7.253
27542SOL    HW284401  11.522   3.487   7.308
27543SOL     OW84402  12.329   4.352   6.530
27543SOL    HW184403  12.248   4.337   6.579
27543SOL    HW284404  12.323   4.294   6.455
27544SOL     OW84405   0.465  10.351  10.035
27544SOL    HW184406   0.549  10.316  10.065
27544SOL    HW284407   0.477  10.446  10.038
27545SOL     OW84408  13.011  13.011  11.238
27545SOL    HW184409  13.076  12.947  11.265
27545SOL    HW284410  12.977  13.048  11.319
27546SOL     OW84411  12.017  12.301  11.883
27546SOL    HW184412  12.043  12.209  11.874
27546SOL    HW284413  12.095  12.351  11.860
27547SOL     OW84414   1.745   5.013   6.397
27547SOL    HW184415   1.840   5.019   6.384
27547SOL    HW284416   1.719   4.935   6.347
27548SOL     OW84417   8.833   8.462  12.337
27548SOL    HW184418   8.876   8.384  12.371
27548SOL    HW284419   8.746   8.461  12.377
27549SOL     OW84420  10.431   2.317   1.320
27549SOL    HW184421  10.416   2.411   1.309
27549SOL    HW284422  10.489   2.293   1.248
27550SOL     OW84423   2.209  14.764   5.256
27550SOL    HW184424   2.268  14.725   5.320
27550SOL    HW284425   2.139  14.802   5.309
27551SOL     OW84426  13.622   0.114   1.477
27551SOL    HW184427  13.653   0.064   1.553
27551SOL    HW284428  13.699   0.121   1.421
27552SOL     OW84429  13.932   7.790   7.132
27552SOL    HW184430  13.892   7.730   7.195
27552SOL    HW284431  14.010   7.744   7.100
27553SOL     OW84432  11.353   6.563   5.148
27553SOL    HW184433  11.428   6.516   5.112
27553SOL    HW284434  11.281   6.499   5.144
27554SOL     OW84435   5.361   6.234   1.694
27554SOL    HW184436   5.390   6.152   1.735
27554SOL    HW284437   5.384   6.224   1.602
27555SOL     OW84438   1.225   1.847   2.803
27555SOL    HW184439   1.204   1.760   2.768
27555SOL    HW284440   1.140   1.891   2.811
27556SOL     OW84441  12.903   7.072   5.337
27556SOL    HW184442  12.902   7.055   5.243
27556SOL    HW284443  12.813   7.057   5.366
27557SOL     OW84444  10.263   6.450   4.602
27557SOL    HW184445  10.311   6.482   4.679
27557SOL    HW284446  10.171   6.447   4.630
27558SOL     OW84447  10.740  11.549   3.093
27558SOL    HW184448  10.818  11.583   3.136
27558SOL    HW284449  10.747  11.454   3.102
27559SOL     OW84450   5.376   5.009   6.350
27559SOL    HW184451   5.453   4.953   6.353
27559SOL    HW284452   5.310   4.963   6.401
27560SOL     OW84453  10.749   0.684   6.977
27560SOL    HW184454  10.794   0.769   6.983
27560SOL    HW284455  10.820   0.620   6.975
27561SOL     OW84456   0.443   9.222  10.180
27561SOL    HW184457   0.391   9.301  10.200
27561SOL    HW284458   0.406   9.154  10.237
27562SOL     OW84459   2.188   8.766   3.195
27562SOL    HW184460   2.213   8.687   3.147
27562SOL    HW284461   2.271   8.804   3.223
27563SOL     OW84462  14.438   2.328   5.818
27563SOL    HW184463  14.467   2.257   5.876
27563SOL    HW284464  14.361   2.365   5.862
27564SOL     OW84465   6.533   3.205  12.913
27564SOL    HW184466   6.487   3.219  12.996
27564SOL    HW284467   6.570   3.291  12.892
27565SOL     OW84468   3.714  12.186   2.345
27565SOL    HW184469   3.652  12.199   2.273
27565SOL    HW284470   3.714  12.092   2.360
27566SOL     OW84471   2.157   4.137   5.852
27566SOL    HW184472   2.156   4.233   5.855
27566SOL    HW284473   2.244   4.114   5.819
27567SOL     OW84474   7.918   1.010   7.597
27567SOL    HW184475   7.847   1.055   7.550
27567SOL    HW284476   7.998   1.051   7.567
27568SOL     OW84477  13.359  12.358   3.659
27568SOL    HW184478  13.264  12.357   3.669
27568SOL    HW284479  13.373  12.390   3.570
27569SOL     OW84480   2.749  14.087   2.048
27569SOL    HW184481   2.832  14.105   2.091
27569SOL    HW284482   2.687  14.074   2.120
27570SOL     OW84483   4.939   9.869   4.803
27570SOL    HW184484   4.851   9.854   4.837
27570SOL    HW284485   4.929   9.862   4.707
27571SOL     OW84486   7.411  10.969  11.079
27571SOL    HW184487   7.409  10.933  10.990
27571SOL    HW284488   7.502  10.995  11.093
27572SOL     OW84489   9.570   2.828   1.998
27572SOL    HW184490   9.532   2.848   2.083
27572SOL    HW284491   9.549   2.905   1.944
27573SOL     OW84492  10.522  14.755  11.255
27573SOL    HW184493  10.478  14.679  11.293
27573SOL    HW284494  10.470  14.830  11.283
27574SOL     OW84495   9.241  10.838   3.622
27574SOL    HW184496   9.273  10.860   3.534
27574SOL    HW284497   9.259  10.916   3.674
27575SOL     OW84498   0.288   6.261  12.312
27575SOL    HW184499   0.217   6.249  12.249
27575SOL    HW284500   0.318   6.172  12.332
27576SOL     OW84501  12.401   4.643   9.676
27576SOL    HW184502  12.364   4.581   9.613
27576SOL    HW284503  12.330   4.705   9.692
27577SOL     OW84504   2.558   6.479  10.839
27577SOL    HW184505   2.632   6.463  10.780
27577SOL    HW284506   2.597   6.483  10.926
27578SOL     OW84507   1.366   6.613   0.248
27578SOL    HW184508   1.337   6.703   0.234
27578SOL    HW284509   1.337   6.592   0.336
27579SOL     OW84510   2.323   1.225   5.957
27579SOL    HW184511   2.351   1.180   6.037
27579SOL    HW284512   2.234   1.193   5.941
27580SOL     OW84513   7.803  12.596   1.780
27580SOL    HW184514   7.714  12.572   1.806
27580SOL    HW284515   7.811  12.688   1.806
27581SOL     OW84516  12.362   0.107   6.098
27581SOL    HW184517  12.271   0.135   6.083
27581SOL    HW284518  12.411   0.145   6.025
27582SOL     OW84519   8.421   5.888   9.917
27582SOL    HW184520   8.431   5.802   9.877
27582SOL    HW284521   8.509   5.926   9.916
27583SOL     OW84522   2.053   6.907   0.433
27583SOL    HW184523   2.062   6.818   0.465
27583SOL    HW284524   2.124   6.918   0.370
27584SOL     OW84525  13.837   9.511  14.447
27584SOL    HW184526  13.775   9.459  14.497
27584SOL    HW284527  13.910   9.527  14.507
27585SOL     OW84528   0.108  10.646   6.666
27585SOL    HW184529   0.153  10.566   6.694
27585SOL    HW284530   0.052  10.617   6.594
27586SOL     OW84531   5.898   5.015   2.949
27586SOL    HW184532   5.980   4.997   2.994
27586SOL    HW284533   5.870   4.930   2.915
27587SOL     OW84534  14.312   6.566   3.359
27587SOL    HW184535  14.284   6.543   3.447
27587SOL    HW284536  14.331   6.660   3.364
27588SOL     OW84537  10.351  13.503  10.798
27588SOL    HW184538  10.388  13.417  10.783
27588SOL    HW284539  10.277  13.488  10.857
27589SOL     OW84540   1.166   9.246  12.543
27589SOL    HW184541   1.086   9.296  12.526
27589SOL    HW284542   1.135   9.162  12.576
27590SOL     OW84543   4.250   6.702   2.296
27590SOL    HW184544   4.257   6.607   2.302
27590SOL    HW284545   4.167   6.718   2.251
27591SOL     OW84546   5.269   0.187   4.629
27591SOL    HW184547   5.346   0.149   4.670
27591SOL    HW284548   5.270   0.153   4.540
27592SOL     OW84549   8.497   6.255   3.463
27592SOL    HW184550   8.481   6.337   3.510
27592SOL    HW284551   8.472   6.186   3.525
27593SOL     OW84552   5.517   0.549  14.250
27593SOL    HW184553   5.557   0.634  14.264
27593SOL    HW284554   5.426   0.568  14.227
27594SOL     OW84555   7.365   1.782   4.667
27594SOL    HW184556   7.319   1.732   4.735
27594SOL    HW284557   7.357   1.729   4.588
27595SOL     OW84558   2.687   5.627   7.584
27595SOL    HW184559   2.609   5.611   7.532
27595SOL    HW284560   2.659   5.616   7.675
27596SOL     OW84561   2.396  13.158   5.163
27596SOL    HW184562   2.350  13.226   5.114
27596SOL    HW284563   2.489  13.180   5.153
27597SOL     OW84564  10.845  13.572   9.138
27597SOL    HW184565  10.871  13.493   9.091
27597SOL    HW284566  10.816  13.540   9.224
27598SOL     OW84567   0.850   6.624   6.010
27598SOL    HW184568   0.849   6.535   5.976
27598SOL    HW284569   0.931   6.662   5.977
27599SOL     OW84570   6.045   3.623  11.626
27599SOL    HW184571   6.048   3.680  11.549
27599SOL    HW284572   6.107   3.661  11.687
27600SOL     OW84573  14.755   4.283   0.316
27600SOL    HW184574  14.809   4.214   0.356
27600SOL    HW284575  14.807   4.363   0.325
27601SOL     OW84576   2.098   6.014   9.799
27601SOL    HW184577   2.139   6.093   9.763
27601SOL    HW284578   2.167   5.948   9.795
27602SOL     OW84579   5.080   8.439   2.483
27602SOL    HW184580   5.078   8.423   2.578
27602SOL    HW284581   5.171   8.425   2.458
27603SOL     OW84582  11.621  12.222   3.507
27603SOL    HW184583  11.710  12.202   3.477
27603SOL    HW284584  11.566  12.207   3.430
27604SOL     OW84585   7.829   9.125   1.202
27604SOL    HW184586   7.802   9.080   1.121
27604SOL    HW284587   7.857   9.211   1.173
27605SOL     OW84588  12.705   1.546   1.038
27605SOL    HW184589  12.785   1.543   1.091
27605SOL    HW284590  12.651   1.614   1.079
27606SOL     OW84591   5.470  11.455  10.572
27606SOL    HW184592   5.399  11.397  10.599
27606SOL    HW284593   5.506  11.413  10.494
27607SOL     OW84594  11.883  14.033  14.712
27607SOL    HW184595  11.878  13.943  14.681
27607SOL    HW284596  11.925  14.081  14.640
27608SOL     OW84597  11.388   5.454  10.320
27608SOL    HW184598  11.309   5.411  10.286
27608SOL    HW284599  11.459   5.419  10.266
27609SOL     OW84600  14.092   4.679   6.439
27609SOL    HW184601  14.170   4.655   6.389
27609SOL    HW284602  14.019   4.642   6.390
27610SOL     OW84603   3.917  10.850  11.780
27610SOL    HW184604   3.853  10.780  11.773
27610SOL    HW284605   3.881  10.910  11.846
27611SOL     OW84606   6.780   6.786   9.661
27611SOL    HW184607   6.788   6.862   9.604
27611SOL    HW284608   6.718   6.728   9.616
27612SOL     OW84609   7.587   1.353   0.237
27612SOL    HW184610   7.522   1.286   0.260
27612SOL    HW284611   7.661   1.335   0.294
27613SOL     OW84612   9.780   6.625   6.310
27613SOL    HW184613   9.705   6.668   6.351
27613SOL    HW284614   9.798   6.550   6.367
27614SOL     OW84615  11.131  12.513   6.331
27614SOL    HW184616  11.205  12.460   6.362
27614SOL    HW284617  11.170  12.595   6.302
27615SOL     OW84618   5.008  11.209   4.052
27615SOL    HW184619   5.021  11.125   4.095
27615SOL    HW284620   5.080  11.216   3.989
27616SOL     OW84621   3.709  11.824   5.649
27616SOL    HW184622   3.762  11.763   5.700
27616SOL    HW284623   3.756  11.833   5.566
27617SOL     OW84624   2.866   4.607   9.226
27617SOL    HW184625   2.906   4.663   9.292
27617SOL    HW284626   2.778   4.590   9.259
27618SOL     OW84627   6.173  11.731  14.149
27618SOL    HW184628   6.250  11.786  14.133
27618SOL    HW284629   6.101  11.793  14.161
27619SOL     OW84630   9.519   5.327   7.736
27619SOL    HW184631   9.511   5.396   7.802
27619SOL    HW284632   9.600   5.281   7.759
27620SOL     OW84633   7.083   1.920   1.314
27620SOL    HW184634   7.076   1.864   1.391
27620SOL    HW284635   7.168   1.963   1.322
27621SOL     OW84636   7.813  12.576   6.096
27621SOL    HW184637   7.772  12.492   6.114
27621SOL    HW284638   7.751  12.621   6.038
27622SOL     OW84639   4.422  14.142  11.217
27622SOL    HW184640   4.494  14.205  11.223
27622SOL    HW284641   4.343  14.195  11.230
27623SOL     OW84642   7.341  10.286   5.884
27623SOL    HW184643   7.334  10.324   5.972
27623SOL    HW284644   7.389  10.204   5.898
27624SOL     OW84645   7.222   6.758   9.134
27624SOL    HW184646   7.187   6.688   9.189
27624SOL    HW284647   7.205   6.730   9.044
27625SOL     OW84648  13.999   8.481   7.284
27625SOL    HW184649  14.028   8.570   7.301
27625SOL    HW284650  13.909   8.490   7.255
27626SOL     OW84651   5.512   0.053   0.488
27626SOL    HW184652   5.582  14.867   0.471
27626SOL    HW284653   5.558   0.137   0.497
27627SOL     OW84654   3.555  12.477   7.122
27627SOL    HW184655   3.530  12.461   7.213
27627SOL    HW284656   3.573  12.571   7.119
27628SOL     OW84657  13.234   0.269  13.910
27628SOL    HW184658  13.208   0.183  13.878
27628SOL    HW284659  13.184   0.331  13.858
27629SOL     OW84660  10.002  10.860   0.583
27629SOL    HW184661  10.019  10.788   0.522
27629SOL    HW284662   9.958  10.819   0.657
27630SOL     OW84663  13.098   8.568   3.369
27630SOL    HW184664  13.072   8.636   3.432
27630SOL    HW284665  13.120   8.492   3.423
27631SOL     OW84666   9.416   4.898   1.006
27631SOL    HW184667   9.343   4.862   1.056
27631SOL    HW284668   9.472   4.822   0.987
27632SOL     OW84669  13.270   4.050   8.701
27632SOL    HW184670  13.202   4.006   8.752
27632SOL    HW284671  13.244   4.038   8.610
27633SOL     OW84672  12.831   0.845   3.111
27633SOL    HW184673  12.846   0.861   3.204
27633SOL    HW284674  12.772   0.770   3.109
27634SOL     OW84675  12.333  14.196  11.082
27634SOL    HW184676  12.422  14.170  11.057
27634SOL    HW284677  12.320  14.155  11.168
27635SOL     OW84678   6.917   6.188  11.460
27635SOL    HW184679   6.982   6.191  11.390
27635SOL    HW284680   6.836   6.219  11.419
27636SOL     OW84681  11.951  13.195   1.441
27636SOL    HW184682  11.950  13.222   1.533
27636SOL    HW284683  11.902  13.113   1.439
27637SOL     OW84684   9.314   7.247   4.279
27637SOL    HW184685   9.274   7.259   4.365
27637SOL    HW284686   9.248   7.276   4.217
27638SOL     OW84687  10.116   7.188  10.388
27638SOL    HW184688  10.198   7.234  10.372
27638SOL    HW284689  10.081   7.170  10.301
27639SOL     OW84690  13.358   3.355   5.359
27639SOL    HW184691  13.402   3.288   5.411
27639SOL    HW284692  13.314   3.308   5.289
27640SOL     OW84693  11.255   4.911   8.033
27640SOL    HW184694  11.243   4.886   7.942
27640SOL    HW284695  11.283   4.831   8.077
27641SOL     OW84696  10.895   4.040   0.333
27641SOL    HW184697  10.837   3.969   0.305
27641SOL    HW284698  10.950   4.057   0.256
27642SOL     OW84699   8.422   2.123  10.854
27642SOL    HW184700   8.404   2.070  10.776
27642SOL    HW284701   8.454   2.060  10.919
27643SOL     OW84702   2.561  13.146   9.577
27643SOL    HW184703   2.602  13.225   9.540
27643SOL    HW284704   2.503  13.114   9.508
27644SOL     OW84705   8.082   7.295   2.205
27644SOL    HW184706   8.063   7.333   2.291
27644SOL    HW284707   8.173   7.322   2.187
27645SOL     OW84708   6.835  10.863   0.018
27645SOL    HW184709   6.880  10.780   0.037
27645SOL    HW284710   6.799  10.850  14.807
27646SOL     OW84711   7.973   2.273   5.759
27646SOL    HW184712   8.046   2.261   5.819
27646SOL    HW284713   7.908   2.321   5.810
27647SOL     OW84714   9.832   2.532   2.780
27647SOL    HW184715   9.898   2.568   2.722
27647SOL    HW284716   9.760   2.595   2.777
27648SOL     OW84717   8.573   2.574  14.271
27648SOL    HW184718   8.482   2.546  14.271
27648SOL    HW284719   8.612   2.529  14.345
27649SOL     OW84720   9.734   5.271   1.037
27649SOL    HW184721   9.654   5.262   1.089
27649SOL    HW284722   9.735   5.363   1.011
27650SOL     OW84723  10.392  11.336   2.148
27650SOL    HW184724  10.330  11.343   2.075
27650SOL    HW284725  10.338  11.348   2.226
27651SOL     OW84726  13.356   8.666   8.462
27651SOL    HW184727  13.297   8.594   8.438
27651SOL    HW284728  13.337   8.735   8.399
27652SOL     OW84729   8.240   0.304   9.817
27652SOL    HW184730   8.282   0.389   9.803
27652SOL    HW284731   8.296   0.242   9.770
27653SOL     OW84732  13.916   4.804   8.509
27653SOL    HW184733  13.865   4.879   8.537
27653SOL    HW284734  13.910   4.742   8.581
27654SOL     OW84735   6.777   6.491   1.457
27654SOL    HW184736   6.759   6.406   1.496
27654SOL    HW284737   6.711   6.500   1.389
27655SOL     OW84738   5.938   7.281  14.639
27655SOL    HW184739   5.991   7.230  14.577
27655SOL    HW284740   5.993   7.357  14.659
27656SOL     OW84741   1.689  14.763  11.769
27656SOL    HW184742   1.648  14.848  11.754
27656SOL    HW284743   1.710  14.762  11.863
27657SOL     OW84744   1.628   5.657   8.284
27657SOL    HW184745   1.650   5.653   8.378
27657SOL    HW284746   1.552   5.600   8.275
27658SOL     OW84747   9.472  12.211   2.591
27658SOL    HW184748   9.491  12.160   2.670
27658SOL    HW284749   9.415  12.154   2.539
27659SOL     OW84750   7.736   1.333   8.781
27659SOL    HW184751   7.673   1.292   8.723
27659SOL    HW284752   7.758   1.416   8.738
27660SOL     OW84753  13.677   8.452   7.795
27660SOL    HW184754  13.708   8.407   7.874
27660SOL    HW284755  13.670   8.382   7.729
27661SOL     OW84756  14.132   3.784   6.188
27661SOL    HW184757  14.145   3.829   6.104
27661SOL    HW284758  14.119   3.855   6.251
27662SOL     OW84759   8.781   8.893  10.247
27662SOL    HW184760   8.873   8.893  10.273
27662SOL    HW284761   8.737   8.839  10.313
27663SOL     OW84762  10.717  11.651  10.570
27663SOL    HW184763  10.782  11.710  10.608
27663SOL    HW284764  10.762  11.567  10.563
27664SOL     OW84765   1.916   7.153   3.007
27664SOL    HW184766   2.004   7.162   2.970
27664SOL    HW284767   1.914   7.064   3.042
27665SOL     OW84768   8.772   7.620  11.704
27665SOL    HW184769   8.739   7.707  11.679
27665SOL    HW284770   8.784   7.575  11.620
27666SOL     OW84771   4.579   4.884   8.266
27666SOL    HW184772   4.557   4.837   8.185
27666SOL    HW284773   4.517   4.957   8.268
27667SOL     OW84774   1.219   3.577   2.455
27667SOL    HW184775   1.289   3.553   2.514
27667SOL    HW284776   1.241   3.666   2.426
27668SOL     OW84777   0.120   2.287  12.117
27668SOL    HW184778   0.063   2.297  12.041
27668SOL    HW284779   0.181   2.217  12.092
27669SOL     OW84780  12.474  12.604  11.236
27669SOL    HW184781  12.546  12.543  11.250
27669SOL    HW284782  12.477  12.624  11.142
27670SOL     OW84783   0.545   0.735   8.480
27670SOL    HW184784   0.474   0.763   8.538
27670SOL    HW284785   0.536   0.790   8.402
27671SOL     OW84786  10.707   8.620  12.920
27671SOL    HW184787  10.793   8.628  12.879
27671SOL    HW284788  10.656   8.565  12.860
27672SOL     OW84789   3.297   5.455   1.526
27672SOL    HW184790   3.221   5.457   1.469
27672SOL    HW284791   3.364   5.507   1.480
27673SOL     OW84792  12.145   6.401  12.154
27673SOL    HW184793  12.209   6.420  12.223
27673SOL    HW284794  12.198   6.375  12.079
27674SOL     OW84795   4.267   2.855   2.584
27674SOL    HW184796   4.202   2.791   2.555
27674SOL    HW284797   4.298   2.897   2.504
27675SOL     OW84798   2.949  10.005   5.994
27675SOL    HW184799   2.901   9.933   6.034
27675SOL    HW284800   3.039   9.972   5.985
27676SOL     OW84801  14.612  11.243  14.211
27676SOL    HW184802  14.680  11.237  14.278
27676SOL    HW284803  14.658  11.273  14.133
27677SOL     OW84804   9.960   7.147   0.734
27677SOL    HW184805   9.986   7.107   0.817
27677SOL    HW284806  10.042   7.177   0.695
27678SOL     OW84807   6.252   3.396   6.770
27678SOL    HW184808   6.281   3.398   6.861
27678SOL    HW284809   6.177   3.456   6.767
27679SOL     OW84810   0.776  11.666  10.307
27679SOL    HW184811   0.785  11.672  10.403
27679SOL    HW284812   0.688  11.699  10.289
27680SOL     OW84813   4.339  14.649  11.399
27680SOL    HW184814   4.395  14.716  11.438
27680SOL    HW284815   4.374  14.637  11.311
27681SOL     OW84816  13.887   2.453   0.770
27681SOL    HW184817  13.842   2.532   0.739
27681SOL    HW284818  13.824   2.383   0.756
27682SOL     OW84819   4.650  11.939  13.365
27682SOL    HW184820   4.727  11.883  13.364
27682SOL    HW284821   4.623  11.945  13.273
27683SOL     OW84822   3.821   0.385   9.980
27683SOL    HW184823   3.836   0.477   9.956
27683SOL    HW284824   3.906   0.343   9.968
27684SOL     OW84825   7.912   0.702   6.745
27684SOL    HW184826   7.993   0.738   6.709
27684SOL    HW284827   7.854   0.693   6.669
27685SOL     OW84828  12.913   9.740   4.533
27685SOL    HW184829  12.997   9.786   4.537
27685SOL    HW284830  12.937   9.647   4.539
27686SOL     OW84831  14.509   7.949   5.564
27686SOL    HW184832  14.435   7.918   5.617
27686SOL    HW284833  14.552   8.014   5.619
27687SOL     OW84834   4.040  14.072   3.813
27687SOL    HW184835   4.024  14.076   3.908
27687SOL    HW284836   4.001  14.153   3.779
27688SOL     OW84837  13.152   6.957   2.207
27688SOL    HW184838  13.130   6.905   2.130
27688SOL    HW284839  13.069   6.996   2.235
27689SOL     OW84840  13.685   3.555  10.104
27689SOL    HW184841  13.638   3.553  10.188
27689SOL    HW284842  13.732   3.472  10.101
27690SOL     OW84843  13.882  14.155  10.238
27690SOL    HW184844  13.951  14.088  10.236
27690SOL    HW284845  13.854  14.163  10.147
27691SOL     OW84846   5.808  12.150   4.437
27691SOL    HW184847   5.848  12.191   4.514
27691SOL    HW284848   5.882  12.126   4.381
27692SOL     OW84849  11.793   9.800  12.595
27692SOL    HW184850  11.832   9.768  12.676
27692SOL    HW284851  11.795   9.724  12.536
27693SOL     OW84852   4.822   3.678   8.304
27693SOL    HW184853   4.828   3.585   8.322
27693SOL    HW284854   4.849   3.686   8.212
27694SOL     OW84855   4.705   9.818   4.948
27694SOL    HW184856   4.680   9.893   5.003
27694SOL    HW284857   4.673   9.742   4.996
27695SOL     OW84858   8.303   6.752   3.302
27695SOL    HW184859   8.316   6.676   3.359
27695SOL    HW284860   8.370   6.742   3.234
27696SOL     OW84861   2.018  13.351  11.551
27696SOL    HW184862   1.939  13.399  11.529
27696SOL    HW284863   1.993  13.297  11.626
27697SOL     OW84864  13.333   0.700   3.918
27697SOL    HW184865  13.369   0.774   3.869
27697SOL    HW284866  13.355   0.719   4.010
27698SOL     OW84867   6.807   0.455   3.180
27698SOL    HW184868   6.746   0.510   3.228
27698SOL    HW284869   6.842   0.394   3.245
27699SOL     OW84870   8.339  13.009  11.133
27699SOL    HW184871   8.427  13.040  11.115
27699SOL    HW284872   8.283  13.084  11.114
27700SOL     OW84873   3.580   0.575   2.486
27700SOL    HW184874   3.497   0.603   2.447
27700SOL    HW284875   3.629   0.539   2.413
27701SOL     OW84876   7.704  10.949   5.171
27701SOL    HW184877   7.702  10.993   5.256
27701SOL    HW284878   7.612  10.943   5.145
27702SOL     OW84879   0.202   7.011  11.239
27702SOL    HW184880   0.189   7.106  11.244
27702SOL    HW284881   0.254   6.998  11.160
27703SOL     OW84882   2.441   7.088  10.622
27703SOL    HW184883   2.385   7.061  10.695
27703SOL    HW284884   2.479   7.007  10.589
27704SOL     OW84885  12.557   3.787  14.549
27704SOL    HW184886  12.471   3.793  14.591
27704SOL    HW284887  12.603   3.866  14.578
27705SOL     OW84888   3.389   4.944  11.093
27705SOL    HW184889   3.446   4.869  11.111
27705SOL    HW284890   3.417   5.010  11.157
27706SOL     OW84891   2.942  11.667   0.369
27706SOL    HW184892   2.965  11.757   0.391
27706SOL    HW284893   3.025  11.627   0.343
27707SOL     OW84894  12.223  10.903  10.759
27707SOL    HW184895  12.265  10.830  10.805
27707SOL    HW284896  12.143  10.865  10.723
27708SOL     OW84897   3.230  10.139   4.960
27708SOL    HW184898   3.255  10.111   5.048
27708SOL    HW284899   3.162  10.077   4.933
27709SOL     OW84900  13.176   0.257   6.487
27709SOL    HW184901  13.152   0.328   6.427
27709SOL    HW284902  13.194   0.301   6.570
27710SOL     OW84903   4.436  12.700   6.227
27710SOL    HW184904   4.459  12.674   6.138
27710SOL    HW284905   4.408  12.619   6.270
27711SOL     OW84906  11.173  12.713  11.704
27711SOL    HW184907  11.259  12.712  11.663
27711SOL    HW284908  11.183  12.661  11.784
27712SOL     OW84909   4.423  13.772   3.122
27712SOL    HW184910   4.421  13.867   3.111
27712SOL    HW284911   4.352  13.754   3.183
27713SOL     OW84912   0.997  11.711   8.507
27713SOL    HW184913   1.048  11.698   8.427
27713SOL    HW284914   0.993  11.806   8.518
27714SOL     OW84915  13.123   1.246   9.433
27714SOL    HW184916  13.135   1.222   9.525
27714SOL    HW284917  13.031   1.225   9.414
27715SOL     OW84918   3.468  13.906   1.876
27715SOL    HW184919   3.559  13.877   1.867
27715SOL    HW284920   3.472  14.001   1.862
27716SOL     OW84921  12.703   7.083  13.909
27716SOL    HW184922  12.651   7.042  13.977
27716SOL    HW284923  12.673   7.042  13.828
27717SOL     OW84924  14.407   8.211   0.962
27717SOL    HW184925  14.364   8.169   0.887
27717SOL    HW284926  14.482   8.156   0.982
27718SOL     OW84927  14.327   3.601   6.268
27718SOL    HW184928  14.261   3.663   6.237
27718SOL    HW284929  14.360   3.559   6.188
27719SOL     OW84930   4.747  14.072   3.091
27719SOL    HW184931   4.825  14.087   3.037
27719SOL    HW284932   4.778  14.018   3.164
27720SOL     OW84933   2.904   6.868   2.715
27720SOL    HW184934   2.934   6.779   2.733
27720SOL    HW284935   2.967   6.924   2.760
27721SOL     OW84936   9.081   2.015   3.469
27721SOL    HW184937   9.089   2.107   3.446
27721SOL    HW284938   9.159   1.997   3.522
27722SOL     OW84939   2.632   3.683   4.978
27722SOL    HW184940   2.645   3.614   4.913
27722SOL    HW284941   2.556   3.654   5.029
27723SOL     OW84942  14.236  11.473  10.614
27723SOL    HW184943  14.144  11.477  10.588
27723SOL    HW284944  14.261  11.381  10.603
27724SOL     OW84945   9.929   7.217   7.043
27724SOL    HW184946   9.847   7.169   7.053
27724SOL    HW284947   9.910   7.304   7.078
27725SOL     OW84948   8.732   4.211  11.690
27725SOL    HW184949   8.668   4.280  11.673
27725SOL    HW284950   8.775   4.238  11.771
27726SOL     OW84951  10.087   7.423  14.334
27726SOL    HW184952  10.078   7.518  14.331
27726SOL    HW284953   9.998   7.391  14.316
27727SOL     OW84954   2.131   3.013  11.905
27727SOL    HW184955   2.197   2.953  11.941
27727SOL    HW284956   2.051   2.961  11.899
27728SOL     OW84957   5.324   1.111   3.146
27728SOL    HW184958   5.232   1.136   3.148
27728SOL    HW284959   5.328   1.032   3.201
27729SOL     OW84960   8.144  12.455   9.361
27729SOL    HW184961   8.215  12.509   9.325
27729SOL    HW284962   8.165  12.366   9.332
27730SOL     OW84963   3.848   7.295   8.981
27730SOL    HW184964   3.843   7.264   8.890
27730SOL    HW284965   3.938   7.325   8.991
27731SOL     OW84966   6.787   0.931  12.595
27731SOL    HW184967   6.698   0.957  12.619
27731SOL    HW284968   6.789   0.938  12.500
27732SOL     OW84969  12.984   4.632   6.622
27732SOL    HW184970  12.926   4.574   6.573
27732SOL    HW284971  12.927   4.681   6.681
27733SOL     OW84972   1.500   3.087   6.159
27733SOL    HW184973   1.520   3.066   6.251
27733SOL    HW284974   1.448   3.012   6.129
27734SOL     OW84975  11.889   3.837  13.752
27734SOL    HW184976  11.812   3.837  13.808
27734SOL    HW284977  11.950   3.778  13.796
27735SOL     OW84978  11.174   3.089   7.371
27735SOL    HW184979  11.203   3.093   7.280
27735SOL    HW284980  11.120   3.167   7.383
27736SOL     OW84981   5.202   8.923   5.087
27736SOL    HW184982   5.265   8.987   5.120
27736SOL    HW284983   5.120   8.945   5.131
27737SOL     OW84984   0.731   0.252   6.855
27737SOL    HW184985   0.822   0.276   6.876
27737SOL    HW284986   0.680   0.287   6.928
27738SOL     OW84987   6.895  12.205  11.721
27738SOL    HW184988   6.889  12.300  11.731
27738SOL    HW284989   6.911  12.191  11.628
27739SOL     OW84990  11.056   6.533   2.200
27739SOL    HW184991  11.021   6.569   2.282
27739SOL    HW284992  11.043   6.603   2.136
27740SOL     OW84993  11.954  13.380  10.136
27740SOL    HW184994  11.999  13.347  10.059
27740SOL    HW284995  12.004  13.458  10.161
27741SOL     OW84996   0.623  14.366   7.797
27741SOL    HW184997   0.537  14.330   7.817
27741SOL    HW284998   0.651  14.409   7.878
27742SOL     OW84999   1.022   4.932   1.221
27742SOL    HW185000   0.963   4.982   1.276
27742SOL    HW285001   1.056   4.863   1.278
27743SOL     OW85002  11.040  11.534   5.948
27743SOL    HW185003  11.029  11.628   5.931
27743SOL    HW285004  11.121  11.528   5.999
27744SOL     OW85005   1.959   9.044  11.919
27744SOL    HW185006   2.053   9.034  11.931
27744SOL    HW285007   1.932   9.105  11.988
27745SOL     OW85008  11.833   9.685  10.215
27745SOL    HW185009  11.779   9.624  10.165
27745SOL    HW285010  11.851   9.757  10.154
27746SOL     OW85011   1.287  13.525  11.645
27746SOL    HW185012   1.341  13.554  11.571
27746SOL    HW285013   1.337  13.552  11.722
27747SOL     OW85014   2.450   9.444   0.790
27747SOL    HW185015   2.467   9.531   0.756
27747SOL    HW285016   2.418   9.459   0.879
27748SOL     OW85017   3.263  10.994  14.803
27748SOL    HW185018   3.181  11.033  14.833
27748SOL    HW285019   3.291  10.937  14.874
27749SOL     OW85020   2.554  12.688  14.200
27749SOL    HW185021   2.523  12.772  14.233
27749SOL    HW285022   2.544  12.694  14.105
27750SOL     OW85023  11.401   4.521   1.568
27750SOL    HW185024  11.429   4.541   1.657
27750SOL    HW285025  11.306   4.520   1.572
27751SOL     OW85026   9.272   6.892  10.585
27751SOL    HW185027   9.227   6.919  10.504
27751SOL    HW285028   9.275   6.972  10.638
27752SOL     OW85029   4.250   5.112   6.643
27752SOL    HW185030   4.325   5.153   6.685
27752SOL    HW285031   4.282   5.027   6.614
27753SOL     OW85032   4.353   9.851  11.162
27753SOL    HW185033   4.402   9.919  11.208
27753SOL    HW285034   4.362   9.774  11.218
27754SOL     OW85035  13.452   2.875   9.759
27754SOL    HW185036  13.454   2.783   9.730
27754SOL    HW285037  13.500   2.874   9.842
27755SOL     OW85038  10.138   3.314   0.507
27755SOL    HW185039  10.198   3.290   0.436
27755SOL    HW285040  10.057   3.266   0.487
27756SOL     OW85041  10.426   0.832   0.334
27756SOL    HW185042  10.516   0.864   0.329
27756SOL    HW285043  10.380   0.899   0.384
27757SOL     OW85044   8.559   6.434   4.803
27757SOL    HW185045   8.580   6.441   4.710
27757SOL    HW285046   8.499   6.508   4.819
27758SOL     OW85047   2.077   3.830   5.425
27758SOL    HW185048   2.144   3.818   5.492
27758SOL    HW285049   2.095   3.762   5.360
27759SOL     OW85050   5.965  10.945   8.832
27759SOL    HW185051   5.970  10.900   8.917
27759SOL    HW285052   5.927  10.880   8.773
27760SOL     OW85053  12.287   0.538   7.266
27760SOL    HW185054  12.195   0.554   7.244
27760SOL    HW285055  12.311   0.609   7.324
27761SOL     OW85056   6.397  12.257   0.685
27761SOL    HW185057   6.449  12.203   0.744
27761SOL    HW285058   6.403  12.212   0.600
27762SOL     OW85059   1.227  10.258   1.180
27762SOL    HW185060   1.147  10.221   1.217
27762SOL    HW285061   1.296  10.228   1.239
27763SOL     OW85062   3.398   5.149   7.414
27763SOL    HW185063   3.442   5.142   7.329
27763SOL    HW285064   3.397   5.060   7.448
27764SOL     OW85065   8.135  14.739  10.148
27764SOL    HW185066   8.198  14.669  10.166
27764SOL    HW285067   8.160  14.774  10.063
27765SOL     OW85068  12.946  14.789   7.184
27765SOL    HW185069  12.944  14.839   7.103
27765SOL    HW285070  12.964  14.699   7.156
27766SOL     OW85071   0.373   6.263   5.456
27766SOL    HW185072   0.454   6.237   5.412
27766SOL    HW285073   0.393   6.349   5.492
27767SOL     OW85074  13.386   6.970  12.272
27767SOL    HW185075  13.308   6.922  12.244
27767SOL    HW285076  13.424   7.003  12.190
27768SOL     OW85077  13.270  11.823   1.765
27768SOL    HW185078  13.348  11.793   1.812
27768SOL    HW285079  13.224  11.879   1.828
27769SOL     OW85080   4.112   6.017   7.653
27769SOL    HW185081   4.068   5.957   7.713
27769SOL    HW285082   4.202   6.023   7.687
27770SOL     OW85083   0.762   7.801   3.609
27770SOL    HW185084   0.797   7.780   3.523
27770SOL    HW285085   0.834   7.785   3.670
27771SOL     OW85086   5.995  10.851   5.475
27771SOL    HW185087   5.963  10.938   5.497
27771SOL    HW285088   6.046  10.863   5.395
27772SOL     OW85089  14.772   7.059   3.247
27772SOL    HW185090  14.764   7.146   3.209
27772SOL    HW285091  14.786   7.001   3.172
27773SOL     OW85092   4.515  11.899   8.285
27773SOL    HW185093   4.587  11.847   8.249
27773SOL    HW285094   4.534  11.989   8.259
27774SOL     OW85095   7.287   9.913   6.218
27774SOL    HW185096   7.371   9.894   6.259
27774SOL    HW285097   7.286  10.009   6.209
27775SOL     OW85098   5.310   3.826   8.474
27775SOL    HW185099   5.310   3.795   8.383
27775SOL    HW285100   5.229   3.876   8.482
27776SOL     OW85101   9.695   4.591   8.254
27776SOL    HW185102   9.778   4.544   8.266
27776SOL    HW285103   9.685   4.596   8.159
27777SOL     OW85104  13.606  14.825  13.447
27777SOL    HW185105  13.550  14.847  13.520
27777SOL    HW285106  13.547  14.816  13.372
27778SOL     OW85107   5.570   2.837   4.778
27778SOL    HW185108   5.521   2.856   4.858
27778SOL    HW285109   5.584   2.922   4.737
27779SOL     OW85110   5.309   7.009   6.354
27779SOL    HW185111   5.303   7.091   6.402
27779SOL    HW285112   5.323   6.942   6.421
27780SOL     OW85113   6.701  12.493   4.263
27780SOL    HW185114   6.622  12.455   4.301
27780SOL    HW285115   6.670  12.572   4.217
27781SOL     OW85116   1.541  13.597   3.488
27781SOL    HW185117   1.446  13.600   3.479
27781SOL    HW285118   1.571  13.683   3.461
27782SOL     OW85119   1.997   8.886   2.102
27782SOL    HW185120   1.998   8.936   2.184
27782SOL    HW285121   1.907   8.895   2.070
27783SOL     OW85122   7.042   2.273   8.890
27783SOL    HW185123   7.072   2.188   8.857
27783SOL    HW285124   7.121   2.313   8.926
27784SOL     OW85125   9.057  13.329   6.270
27784SOL    HW185126   8.965  13.302   6.282
27784SOL    HW285127   9.101  13.248   6.243
27785SOL     OW85128  13.817   9.658   1.806
27785SOL    HW185129  13.826   9.654   1.711
27785SOL    HW285130  13.826   9.568   1.836
27786SOL     OW85131   7.132   1.166  10.244
27786SOL    HW185132   7.115   1.260  10.233
27786SOL    HW285133   7.191   1.161  10.318
27787SOL     OW85134   1.118   0.945  12.152
27787SOL    HW185135   1.030   0.924  12.182
27787SOL    HW285136   1.126   0.899  12.068
27788SOL     OW85137   7.352  11.333   7.770
27788SOL    HW185138   7.383  11.415   7.809
27788SOL    HW285139   7.260  11.350   7.748
27789SOL     OW85140   6.581   5.999   5.036
27789SOL    HW185141   6.599   6.069   5.098
27789SOL    HW285142   6.516   6.036   4.976
27790SOL     OW85143   5.214  10.900  13.281
27790SOL    HW185144   5.138  10.878  13.228
27790SOL    HW285145   5.243  10.985  13.248
27791SOL     OW85146   6.769   0.707   9.310
27791SOL    HW185147   6.832   0.652   9.355
27791SOL    HW285148   6.800   0.712   9.220
27792SOL     OW85149  10.749   1.463   9.226
27792SOL    HW185150  10.759   1.372   9.198
27792SOL    HW285151  10.691   1.502   9.160
27793SOL     OW85152   9.492   1.979   9.762
27793SOL    HW185153   9.478   2.038   9.688
27793SOL    HW285154   9.584   1.952   9.753
27794SOL     OW85155  12.786   0.440  12.309
27794SOL    HW185156  12.849   0.444  12.381
27794SOL    HW285157  12.743   0.355  12.321
27795SOL     OW85158   5.406  10.695  12.879
27795SOL    HW185159   5.442  10.767  12.931
27795SOL    HW285160   5.480  10.664  12.826
27796SOL     OW85161  14.329  11.736   3.374
27796SOL    HW185162  14.306  11.660   3.428
27796SOL    HW285163  14.275  11.807   3.409
27797SOL     OW85164  10.007   3.665   3.462
27797SOL    HW185165  10.021   3.661   3.556
27797SOL    HW285166  10.081   3.619   3.424
27798SOL     OW85167   5.044  13.599  12.391
27798SOL    HW185168   5.100  13.636  12.323
27798SOL    HW285169   4.963  13.576  12.345
27799SOL     OW85170  11.268   0.884   9.147
27799SOL    HW185171  11.271   0.972   9.185
27799SOL    HW285172  11.225   0.896   9.062
27800SOL     OW85173  13.881  10.032  13.901
27800SOL    HW185174  13.841   9.964  13.955
27800SOL    HW285175  13.975  10.015  13.906
27801SOL     OW85176  13.012   6.766  13.114
27801SOL    HW185177  13.017   6.817  13.195
27801SOL    HW285178  12.989   6.831  13.047
27802SOL     OW85179   6.112   7.385   9.488
27802SOL    HW185180   6.080   7.459   9.538
27802SOL    HW285181   6.155   7.328   9.553
27803SOL     OW85182   2.454  10.923   5.076
27803SOL    HW185183   2.408  10.969   5.145
27803SOL    HW285184   2.531  10.885   5.119
27804SOL     OW85185   9.427   0.163   9.732
27804SOL    HW185186   9.438   0.162   9.637
27804SOL    HW285187   9.439   0.072   9.758
27805SOL     OW85188   4.548   0.587   0.703
27805SOL    HW185189   4.486   0.514   0.699
27805SOL    HW285190   4.535   0.634   0.620
27806SOL     OW85191  12.065   6.270   3.861
27806SOL    HW185192  12.034   6.197   3.915
27806SOL    HW285193  11.986   6.311   3.829
27807SOL     OW85194   5.215   0.453   4.326
27807SOL    HW185195   5.129   0.483   4.356
27807SOL    HW285196   5.277   0.509   4.371
27808SOL     OW85197   5.460   7.711   5.182
27808SOL    HW185198   5.532   7.768   5.156
27808SOL    HW285199   5.440   7.738   5.272
27809SOL     OW85200   4.823  13.101   5.072
27809SOL    HW185201   4.806  13.144   4.988
27809SOL    HW285202   4.851  13.013   5.049
27810SOL     OW85203   3.340  12.128   1.296
27810SOL    HW185204   3.350  12.198   1.232
27810SOL    HW285205   3.246  12.127   1.316
27811SOL     OW85206   3.604   4.911  11.817
27811SOL    HW185207   3.610   4.979  11.749
27811SOL    HW285208   3.512   4.911  11.843
27812SOL     OW85209   3.826  10.832   5.505
27812SOL    HW185210   3.836  10.899   5.573
27812SOL    HW285211   3.733  10.834   5.484
27813SOL     OW85212   4.820   1.017  10.803
27813SOL    HW185213   4.872   0.938  10.792
27813SOL    HW285214   4.730   0.989  10.790
27814SOL     OW85215   5.258   5.256  13.621
27814SOL    HW185216   5.305   5.328  13.579
27814SOL    HW285217   5.178   5.246  13.570
27815SOL     OW85218   6.982   7.595   7.043
27815SOL    HW185219   6.976   7.641   7.127
27815SOL    HW285220   7.065   7.625   7.006
27816SOL     OW85221  11.134   8.103  10.541
27816SOL    HW185222  11.199   8.033  10.544
27816SOL    HW285223  11.089   8.090  10.457
27817SOL     OW85224   3.198  14.151  11.237
27817SOL    HW185225   3.136  14.144  11.164
27817SOL    HW285226   3.154  14.208  11.300
27818SOL     OW85227  12.154   2.690   3.756
27818SOL    HW185228  12.063   2.706   3.729
27818SOL    HW285229  12.168   2.751   3.828
27819SOL     OW85230   8.689  13.556   1.099
27819SOL    HW185231   8.616  13.529   1.044
27819SOL    HW285232   8.751  13.597   1.039
27820SOL     OW85233   2.193   6.521  11.872
27820SOL    HW185234   2.129   6.588  11.898
27820SOL    HW285235   2.260   6.569  11.825
27821SOL     OW85236  14.709   6.914   3.489
27821SOL    HW185237  14.638   6.970   3.519
27821SOL    HW285238  14.734   6.950   3.404
27822SOL     OW85239  13.875  11.054   7.361
27822SOL    HW185240  13.861  11.046   7.267
27822SOL    HW285241  13.969  11.042   7.373
27823SOL     OW85242  11.549   7.144   0.828
27823SOL    HW185243  11.468   7.194   0.815
27823SOL    HW285244  11.582   7.128   0.740
27824SOL     OW85245   4.954   9.187   0.423
27824SOL    HW185246   4.942   9.093   0.434
27824SOL    HW285247   4.987   9.217   0.507
27825SOL     OW85248   6.224   3.604  13.516
27825SOL    HW185249   6.235   3.695  13.491
27825SOL    HW285250   6.314   3.573  13.533
27826SOL     OW85251   7.200  13.517  14.432
27826SOL    HW185252   7.153  13.542  14.511
27826SOL    HW285253   7.292  13.540  14.450
27827SOL     OW85254   2.256  14.618  12.060
27827SOL    HW185255   2.341  14.624  12.017
27827SOL    HW285256   2.274  14.566  12.139
27828SOL     OW85257   4.835   9.903   6.986
27828SOL    HW185258   4.848   9.832   7.049
27828SOL    HW285259   4.901   9.968   7.009
27829SOL     OW85260  14.654   3.037  14.059
27829SOL    HW185261  14.567   3.071  14.038
27829SOL    HW285262  14.701   3.037  13.975
27830SOL     OW85263   0.855   6.236  12.202
27830SOL    HW185264   0.860   6.157  12.256
27830SOL    HW285265   0.770   6.230  12.158
27831SOL     OW85266   9.419   2.200   8.014
27831SOL    HW185267   9.473   2.168   8.086
27831SOL    HW285268   9.394   2.120   7.966
27832SOL     OW85269   4.689  12.878  10.883
27832SOL    HW185270   4.657  12.847  10.968
27832SOL    HW285271   4.775  12.837  10.874
27833SOL     OW85272   4.116   0.415   3.137
27833SOL    HW185273   4.166   0.421   3.218
27833SOL    HW285274   4.033   0.376   3.164
27834SOL     OW85275  10.085   4.581   6.623
27834SOL    HW185276  10.179   4.562   6.620
27834SOL    HW285277  10.044   4.494   6.626
27835SOL     OW85278  13.093   7.644   9.892
27835SOL    HW185279  13.051   7.727   9.916
27835SOL    HW285280  13.178   7.647   9.936
27836SOL     OW85281   4.134  11.659   9.706
27836SOL    HW185282   4.163  11.694   9.621
27836SOL    HW285283   4.059  11.714   9.730
27837SOL     OW85284  11.663   1.105   7.344
27837SOL    HW185285  11.661   1.171   7.275
27837SOL    HW285286  11.752   1.110   7.379
27838SOL     OW85287  13.399   2.541  12.107
27838SOL    HW185288  13.355   2.588  12.179
27838SOL    HW285289  13.328   2.517  12.047
27839SOL     OW85290  13.641   5.952  12.806
27839SOL    HW185291  13.641   5.922  12.897
27839SOL    HW285292  13.721   6.004  12.797
27840SOL     OW85293   5.476   8.575   7.728
27840SOL    HW185294   5.508   8.485   7.739
27840SOL    HW285295   5.422   8.592   7.805
27841SOL     OW85296  11.842   5.862   2.454
27841SOL    HW185297  11.763   5.864   2.400
27841SOL    HW285298  11.858   5.953   2.477
27842SOL     OW85299   4.270   7.595  12.878
27842SOL    HW185300   4.269   7.532  12.950
27842SOL    HW285301   4.362   7.601  12.852
27843SOL     OW85302   7.339  13.616  13.031
27843SOL    HW185303   7.335  13.707  13.060
27843SOL    HW285304   7.352  13.622  12.936
27844SOL     OW85305  14.607   5.645  12.390
27844SOL    HW185306  14.541   5.664  12.323
27844SOL    HW285307  14.685   5.623  12.340
27845SOL     OW85308  11.176   1.000   2.441
27845SOL    HW185309  11.271   0.989   2.450
27845SOL    HW285310  11.165   1.069   2.376
27846SOL     OW85311   8.077   1.760  14.378
27846SOL    HW185312   7.984   1.776  14.362
27846SOL    HW285313   8.095   1.678  14.332
27847SOL     OW85314   1.144   8.195  13.665
27847SOL    HW185315   1.120   8.134  13.596
27847SOL    HW285316   1.165   8.139  13.740
27848SOL     OW85317  14.767   3.228   2.155
27848SOL    HW185318  14.797   3.141   2.181
27848SOL    HW285319  14.727   3.264   2.233
27849SOL     OW85320  11.815   0.564   5.489
27849SOL    HW185321  11.905   0.595   5.503
27849SOL    HW285322  11.770   0.583   5.571
27850SOL     OW85323   6.377  11.593   5.106
27850SOL    HW185324   6.371  11.686   5.127
27850SOL    HW285325   6.301  11.575   5.051
27851SOL     OW85326   8.245   9.912   8.592
27851SOL    HW185327   8.150   9.900   8.603
27851SOL    HW285328   8.275   9.831   8.550
27852SOL     OW85329   5.419   8.307   5.498
27852SOL    HW185330   5.385   8.392   5.525
27852SOL    HW285331   5.362   8.243   5.541
27853SOL     OW85332   7.555   3.608  11.305
27853SOL    HW185333   7.482   3.584  11.362
27853SOL    HW285334   7.624   3.546  11.329
27854SOL     OW85335  12.663   6.326  10.338
27854SOL    HW185336  12.632   6.282  10.417
27854SOL    HW285337  12.714   6.400  10.370
27855SOL     OW85338   4.837   3.368  13.943
27855SOL    HW185339   4.906   3.434  13.942
27855SOL    HW285340   4.875   3.293  13.897
27856SOL     OW85341   2.011  13.396  12.451
27856SOL    HW185342   1.971  13.452  12.518
27856SOL    HW285343   1.982  13.433  12.368
27857SOL     OW85344  10.794   9.597   2.300
27857SOL    HW185345  10.874   9.551   2.273
27857SOL    HW285346  10.733   9.580   2.228
27858SOL     OW85347   1.089   7.031  12.681
27858SOL    HW185348   1.178   7.063  12.690
27858SOL    HW285349   1.057   7.022  12.771
27859SOL     OW85350  12.923   0.920   3.372
27859SOL    HW185351  12.894   0.856   3.438
27859SOL    HW285352  13.008   0.888   3.344
27860SOL     OW85353   2.460  12.204   5.565
27860SOL    HW185354   2.503  12.271   5.620
27860SOL    HW285355   2.387  12.173   5.618
27861SOL     OW85356  14.239  13.282   3.658
27861SOL    HW185357  14.329  13.268   3.688
27861SOL    HW285358  14.187  13.279   3.739
27862SOL     OW85359   2.809   2.431   5.869
27862SOL    HW185360   2.846   2.518   5.879
27862SOL    HW285361   2.838   2.401   5.783
27863SOL     OW85362  14.073   6.325  10.599
27863SOL    HW185363  14.157   6.356  10.565
27863SOL    HW285364  14.010   6.345  10.530
27864SOL     OW85365  14.176  14.165  10.800
27864SOL    HW185366  14.235  14.105  10.754
27864SOL    HW285367  14.235  14.228  10.842
27865SOL     OW85368  11.717   0.451   3.849
27865SOL    HW185369  11.708   0.481   3.759
27865SOL    HW285370  11.801   0.487   3.879
27866SOL     OW85371   7.657  11.823   1.924
27866SOL    HW185372   7.617  11.864   2.000
27866SOL    HW285373   7.746  11.859   1.921
27867SOL     OW85374   3.544   8.796   4.757
27867SOL    HW185375   3.636   8.812   4.736
27867SOL    HW285376   3.513   8.880   4.792
27868SOL     OW85377   4.802   3.524  12.883
27868SOL    HW185378   4.892   3.553  12.869
27868SOL    HW285379   4.748   3.601  12.867
27869SOL     OW85380  14.457   0.169  14.831
27869SOL    HW185381  14.441   0.081  14.795
27869SOL    HW285382  14.370   0.209  14.836
27870SOL     OW85383   3.766  10.369   7.408
27870SOL    HW185384   3.847  10.342   7.451
27870SOL    HW285385   3.735  10.443   7.461
27871SOL     OW85386   5.710   8.205   2.322
27871SOL    HW185387   5.781   8.227   2.261
27871SOL    HW285388   5.754   8.180   2.403
27872SOL     OW85389   7.009   3.364   0.648
27872SOL    HW185390   7.090   3.376   0.598
27872SOL    HW285391   7.024   3.284   0.698
27873SOL     OW85392  14.022  12.813   8.980
27873SOL    HW185393  14.025  12.890   9.038
27873SOL    HW285394  14.111  12.807   8.944
27874SOL     OW85395  14.013   4.728   5.483
27874SOL    HW185396  14.055   4.784   5.549
27874SOL    HW285397  14.064   4.647   5.484
27875SOL     OW85398  12.326   5.582  10.476
27875SOL    HW185399  12.352   5.535  10.556
27875SOL    HW285400  12.386   5.656  10.472
27876SOL     OW85401   1.179   2.261  10.178
27876SOL    HW185402   1.127   2.286  10.102
27876SOL    HW285403   1.146   2.317  10.249
27877SOL     OW85404   5.849  12.739   7.110
27877SOL    HW185405   5.801  12.674   7.058
27877SOL    HW285406   5.930  12.754   7.061
27878SOL     OW85407   8.606   1.896   6.666
27878SOL    HW185408   8.572   1.934   6.585
27878SOL    HW285409   8.697   1.874   6.646
27879SOL     OW85410  14.527   0.610   5.095
27879SOL    HW185411  14.602   0.649   5.052
27879SOL    HW285412  14.528   0.518   5.066
27880SOL     OW85413  10.389   6.027   1.442
27880SOL    HW185414  10.376   6.057   1.531
27880SOL    HW285415  10.403   6.107   1.391
27881SOL     OW85416  12.509  13.164   0.182
27881SOL    HW185417  12.528  13.172   0.275
27881SOL    HW285418  12.451  13.238   0.163
27882SOL     OW85419   8.556   3.954   7.555
27882SOL    HW185420   8.586   3.942   7.645
27882SOL    HW285421   8.616   3.901   7.502
27883SOL     OW85422   5.480   6.781   2.064
27883SOL    HW185423   5.423   6.843   2.019
27883SOL    HW285424   5.500   6.823   2.148
27884SOL     OW85425   0.962  10.658   6.647
27884SOL    HW185426   0.989  10.633   6.558
27884SOL    HW285427   0.963  10.754   6.646
27885SOL     OW85428   1.614   7.689   7.500
27885SOL    HW185429   1.697   7.656   7.534
27885SOL    HW285430   1.549   7.663   7.566
27886SOL     OW85431  10.755   2.490   8.685
27886SOL    HW185432  10.827   2.426   8.688
27886SOL    HW285433  10.677   2.440   8.708
27887SOL     OW85434   2.427   0.486   8.467
27887SOL    HW185435   2.476   0.414   8.428
27887SOL    HW285436   2.459   0.564   8.422
27888SOL     OW85437  12.469   9.068   0.130
27888SOL    HW185438  12.562   9.084   0.118
27888SOL    HW285439  12.430   9.086   0.045
27889SOL     OW85440   8.873   4.014  13.291
27889SOL    HW185441   8.846   3.934  13.337
27889SOL    HW285442   8.915   4.068  13.358
27890SOL     OW85443   3.575   3.281   0.420
27890SOL    HW185444   3.627   3.260   0.497
27890SOL    HW285445   3.505   3.337   0.454
27891SOL     OW85446   3.255   2.404   5.786
27891SOL    HW185447   3.266   2.433   5.877
27891SOL    HW285448   3.274   2.310   5.789
27892SOL     OW85449  12.541   7.601   1.418
27892SOL    HW185450  12.521   7.527   1.476
27892SOL    HW285451  12.468   7.662   1.430
27893SOL     OW85452   8.944  14.667   8.571
27893SOL    HW185453   8.975  14.633   8.488
27893SOL    HW285454   9.016  14.722   8.603
27894SOL     OW85455   9.888  13.030  14.206
27894SOL    HW185456   9.939  13.110  14.192
27894SOL    HW285457   9.912  13.000  14.293
27895SOL     OW85458  10.430   2.155  11.984
27895SOL    HW185459  10.509   2.191  12.023
27895SOL    HW285460  10.459   2.116  11.902
27896SOL     OW85461  14.779   8.110   6.932
27896SOL    HW185462  14.870   8.091   6.912
27896SOL    HW285463  14.776   8.115   7.028
27897SOL     OW85464   1.653  14.473   5.855
27897SOL    HW185465   1.630  14.555   5.812
27897SOL    HW285466   1.607  14.476   5.939
27898SOL     OW85467   0.060   1.592   2.578
27898SOL    HW185468   0.077   1.499   2.564
27898SOL    HW285469  14.855   1.594   2.627
27899SOL     OW85470  13.907   6.561  12.774
27899SOL    HW185471  13.980   6.618  12.749
27899SOL    HW285472  13.880   6.592  12.860
27900SOL     OW85473  11.433  13.457   7.526
27900SOL    HW185474  11.414  13.390   7.591
27900SOL    HW285475  11.348  13.477   7.486
27901SOL     OW85476   0.364   3.333  14.018
27901SOL    HW185477   0.323   3.374  14.094
27901SOL    HW285478   0.413   3.404  13.976
27902SOL     OW85479  12.450   0.479   1.109
27902SOL    HW185480  12.456   0.424   1.187
27902SOL    HW285481  12.527   0.456   1.058
27903SOL     OW85482  13.884   1.541   6.400
27903SOL    HW185483  13.823   1.614   6.389
27903SOL    HW285484  13.928   1.560   6.484
27904SOL     OW85485  11.742  11.198   9.641
27904SOL    HW185486  11.658  11.244   9.642
27904SOL    HW285487  11.760  11.181   9.734
27905SOL     OW85488   1.439  12.178  11.754
27905SOL    HW185489   1.432  12.271  11.732
27905SOL    HW285490   1.525  12.152  11.720
27906SOL     OW85491   6.687  13.559  11.219
27906SOL    HW185492   6.738  13.636  11.246
27906SOL    HW285493   6.609  13.562  11.275
27907SOL     OW85494   8.590   6.960   6.650
27907SOL    HW185495   8.662   7.023   6.651
27907SOL    HW285496   8.592   6.920   6.736
27908SOL     OW85497  12.222   9.775  12.535
27908SOL    HW185498  12.172   9.821  12.467
27908SOL    HW285499  12.217   9.833  12.611
27909SOL     OW85500  14.411   5.319   1.622
27909SOL    HW185501  14.390   5.253   1.688
27909SOL    HW285502  14.506   5.312   1.610
27910SOL     OW85503   6.823   0.109  13.916
27910SOL    HW185504   6.899   0.054  13.936
27910SOL    HW285505   6.749   0.049  13.917
27911SOL     OW85506   3.903   2.160  13.431
27911SOL    HW185507   3.848   2.177  13.354
27911SOL    HW285508   3.965   2.094  13.402
27912SOL     OW85509   9.786   9.996   5.658
27912SOL    HW185510   9.728   9.927   5.626
27912SOL    HW285511   9.857   9.949   5.701
27913SOL     OW85512   0.238  11.371   6.976
27913SOL    HW185513   0.302  11.312   6.935
27913SOL    HW285514   0.191  11.317   7.039
27914SOL     OW85515   6.414   2.630   4.493
27914SOL    HW185516   6.414   2.663   4.403
27914SOL    HW285517   6.393   2.537   4.485
27915SOL     OW85518   8.866   8.155   7.160
27915SOL    HW185519   8.958   8.133   7.146
27915SOL    HW285520   8.868   8.219   7.231
27916SOL     OW85521  12.273   1.274  10.270
27916SOL    HW185522  12.360   1.292  10.306
27916SOL    HW285523  12.284   1.284  10.175
27917SOL     OW85524   9.197   4.827  11.188
27917SOL    HW185525   9.162   4.897  11.133
27917SOL    HW285526   9.178   4.854  11.278
27918SOL     OW85527   4.254  13.450  12.981
27918SOL    HW185528   4.239  13.493  12.897
27918SOL    HW285529   4.337  13.404  12.971
27919SOL     OW85530   8.398   3.816   7.213
27919SOL    HW185531   8.462   3.773   7.156
27919SOL    HW285532   8.394   3.761   7.291
27920SOL     OW85533   9.114   9.766   5.711
27920SOL    HW185534   9.090   9.680   5.678
27920SOL    HW285535   9.070   9.827   5.651
27921SOL     OW85536   4.131  10.421  12.039
27921SOL    HW185537   4.161  10.447  11.952
27921SOL    HW285538   4.111  10.504  12.084
27922SOL     OW85539   8.518   4.888   0.661
27922SOL    HW185540   8.540   4.950   0.730
27922SOL    HW285541   8.595   4.830   0.655
27923SOL     OW85542  10.542   0.488   3.440
27923SOL    HW185543  10.525   0.581   3.455
27923SOL    HW285544  10.592   0.460   3.517
27924SOL     OW85545  12.577   9.000   4.351
27924SOL    HW185546  12.542   8.978   4.437
27924SOL    HW285547  12.630   8.924   4.326
27925SOL     OW85548   7.578  14.255   6.390
27925SOL    HW185549   7.525  14.251   6.311
27925SOL    HW285550   7.611  14.345   6.392
27926SOL     OW85551   1.573  14.244  10.350
27926SOL    HW185552   1.579  14.163  10.299
27926SOL    HW285553   1.483  14.273  10.338
27927SOL     OW85554  14.754  11.690   5.148
27927SOL    HW185555  14.662  11.670   5.133
27927SOL    HW285556  14.782  11.737   5.069
27928SOL     OW85557  12.966  14.619   4.719
27928SOL    HW185558  12.983  14.608   4.626
27928SOL    HW285559  12.875  14.650   4.723
27929SOL     OW85560   3.065  14.568   3.715
27929SOL    HW185561   3.045  14.639   3.776
27929SOL    HW285562   2.986  14.560   3.661
27930SOL     OW85563   2.698  10.914  14.541
27930SOL    HW185564   2.627  10.867  14.496
27930SOL    HW285565   2.656  10.993  14.575
27931SOL     OW85566   3.357   6.470  13.277
27931SOL    HW185567   3.283   6.530  13.275
27931SOL    HW285568   3.328   6.394  13.227
27932SOL     OW85569   1.251   6.646   6.244
27932SOL    HW185570   1.246   6.724   6.188
27932SOL    HW285571   1.209   6.672   6.326
27933SOL     OW85572  13.466   9.720  13.563
27933SOL    HW185573  13.458   9.791  13.627
27933SOL    HW285574  13.389   9.666  13.578
27934SOL     OW85575   5.169   0.685   6.994
27934SOL    HW185576   5.117   0.746   6.942
27934SOL    HW285577   5.203   0.738   7.066
27935SOL     OW85578   9.987   5.400   9.772
27935SOL    HW185579  10.001   5.462   9.844
27935SOL    HW285580   9.982   5.315   9.814
27936SOL     OW85581  10.027   7.450   8.184
27936SOL    HW185582  10.118   7.479   8.182
27936SOL    HW285583   9.996   7.459   8.094
27937SOL     OW85584  13.194  13.811  14.383
27937SOL    HW185585  13.159  13.777  14.300
27937SOL    HW285586  13.285  13.833  14.362
27938SOL     OW85587   2.368   9.237   0.398
27938SOL    HW185588   2.321   9.283   0.468
27938SOL    HW285589   2.386   9.150   0.435
27939SOL     OW85590   0.183   5.762  10.978
27939SOL    HW185591   0.233   5.811  11.044
27939SOL    HW285592   0.194   5.671  11.002
27940SOL     OW85593   2.799   0.769  14.821
27940SOL    HW185594   2.718   0.819  14.825
27940SOL    HW285595   2.838   0.794  14.737
27941SOL     OW85596  14.854   3.402   7.541
27941SOL    HW185597   0.021   3.438   7.617
27941SOL    HW285598   0.031   3.427   7.466
27942SOL     OW85599   7.404   2.059   5.466
27942SOL    HW185600   7.466   2.006   5.515
27942SOL    HW285601   7.321   2.014   5.475
27943SOL     OW85602   8.363  11.436   9.760
27943SOL    HW185603   8.412  11.518   9.746
27943SOL    HW285604   8.345  11.434   9.854
27944SOL     OW85605   4.952   4.267   5.238
27944SOL    HW185606   4.992   4.183   5.258
27944SOL    HW285607   5.024   4.330   5.247
27945SOL     OW85608   9.770   3.211   3.297
27945SOL    HW185609   9.713   3.177   3.227
27945SOL    HW285610   9.831   3.269   3.251
27946SOL     OW85611   9.030  13.686  11.093
27946SOL    HW185612   9.002  13.688  11.185
27946SOL    HW285613   8.969  13.746  11.049
27947SOL     OW85614   3.820  13.892   3.039
27947SOL    HW185615   3.816  13.818   3.099
27947SOL    HW285616   3.826  13.969   3.096
27948SOL     OW85617   9.378   6.867   5.327
27948SOL    HW185618   9.363   6.871   5.422
27948SOL    HW285619   9.374   6.773   5.307
27949SOL     OW85620   4.709   0.987   6.629
27949SOL    HW185621   4.723   1.004   6.536
27949SOL    HW285622   4.684   1.072   6.666
27950SOL     OW85623  12.949   4.659  12.170
27950SOL    HW185624  13.019   4.595  12.184
27950SOL    HW285625  12.964   4.726  12.236
27951SOL     OW85626   9.527   9.252   0.747
27951SOL    HW185627   9.484   9.287   0.670
27951SOL    HW285628   9.476   9.174   0.769
27952SOL     OW85629   9.632  14.803   9.040
27952SOL    HW185630   9.628  14.713   9.073
27952SOL    HW285631   9.724  14.828   9.049
27953SOL     OW85632  12.192   0.237  11.162
27953SOL    HW185633  12.101   0.253  11.138
27953SOL    HW285634  12.188   0.201  11.250
27954SOL     OW85635   1.453  13.966  10.998
27954SOL    HW185636   1.430  13.999  10.912
27954SOL    HW285637   1.504  14.036  11.038
27955SOL     OW85638   6.176  14.289   0.602
27955SOL    HW185639   6.271  14.290   0.597
27955SOL    HW285640   6.153  14.372   0.644
27956SOL     OW85641   0.069   4.405  10.592
27956SOL    HW185642   0.051   4.494  10.561
27956SOL    HW285643   0.131   4.418  10.664
27957SOL     OW85644  10.800   1.611  10.018
27957SOL    HW185645  10.845   1.564  10.088
27957SOL    HW285646  10.870   1.657   9.971
27958SOL     OW85647   0.225  14.275   7.224
27958SOL    HW185648   0.281  14.278   7.147
27958SOL    HW285649   0.203  14.367   7.242
27959SOL     OW85650   4.077   4.959  12.258
27959SOL    HW185651   4.060   4.960  12.164
27959SOL    HW285652   4.005   4.908  12.295
27960SOL     OW85653   9.802   6.150   3.991
27960SOL    HW185654   9.862   6.104   4.050
27960SOL    HW285655   9.727   6.092   3.981
27961SOL     OW85656   3.832   7.676  11.301
27961SOL    HW185657   3.903   7.701  11.360
27961SOL    HW285658   3.799   7.759  11.267
27962SOL     OW85659   0.185   2.171  13.119
27962SOL    HW185660   0.092   2.185  13.104
27962SOL    HW285661   0.196   2.187  13.213
27963SOL     OW85662  14.741  12.253   6.316
27963SOL    HW185663  14.747  12.161   6.290
27963SOL    HW285664  14.785  12.300   6.245
27964SOL     OW85665   5.296   0.339   2.522
27964SOL    HW185666   5.374   0.385   2.555
27964SOL    HW285667   5.293   0.361   2.429
27965SOL     OW85668  10.888   7.208   7.767
27965SOL    HW185669  10.875   7.124   7.723
27965SOL    HW285670  10.833   7.269   7.719
27966SOL     OW85671   7.204   5.201   4.216
27966SOL    HW185672   7.113   5.212   4.243
27966SOL    HW285673   7.254   5.250   4.281
27967SOL     OW85674   9.552  11.112   4.030
27967SOL    HW185675   9.595  11.123   3.945
27967SOL    HW285676   9.623  11.116   4.094
27968SOL     OW85677   0.682  10.097   8.397
27968SOL    HW185678   0.654  10.189   8.396
27968SOL    HW285679   0.647  10.062   8.479
27969SOL     OW85680   9.716   5.384   6.122
27969SOL    HW185681   9.692   5.316   6.060
27969SOL    HW285682   9.634   5.405   6.167
27970SOL     OW85683   1.035  13.435  13.936
27970SOL    HW185684   1.091  13.387  13.997
27970SOL    HW285685   0.963  13.375  13.917
27971SOL     OW85686   9.682  11.141   3.768
27971SOL    HW185687   9.602  11.141   3.717
27971SOL    HW285688   9.735  11.070   3.732
27972SOL     OW85689   6.392  10.016   9.516
27972SOL    HW185690   6.465   9.979   9.466
27972SOL    HW285691   6.314   9.981   9.475
27973SOL     OW85692   2.941  12.456   4.741
27973SOL    HW185693   2.905  12.383   4.689
27973SOL    HW285694   2.879  12.528   4.726
27974SOL     OW85695   8.093   3.195  10.718
27974SOL    HW185696   8.009   3.195  10.671
27974SOL    HW285697   8.095   3.110  10.762
27975SOL     OW85698   4.465  12.420   9.793
27975SOL    HW185699   4.417  12.412   9.710
27975SOL    HW285700   4.465  12.331   9.829
27976SOL     OW85701   0.231   4.502   5.217
27976SOL    HW185702   0.299   4.436   5.204
27976SOL    HW285703   0.166   4.482   5.150
27977SOL     OW85704  10.571   9.460   6.695
27977SOL    HW185705  10.571   9.534   6.754
27977SOL    HW285706  10.647   9.474   6.638
27978SOL     OW85707   2.239  11.982   9.101
27978SOL    HW185708   2.299  12.024   9.040
27978SOL    HW285709   2.275  12.001   9.188
27979SOL     OW85710   9.601   3.157  12.182
27979SOL    HW185711   9.673   3.097  12.162
27979SOL    HW285712   9.638   3.245  12.169
27980SOL     OW85713   9.078  12.575   2.780
27980SOL    HW185714   9.085  12.670   2.783
27980SOL    HW285715   9.166  12.545   2.759
27981SOL     OW85716  12.364  12.663   0.013
27981SOL    HW185717  12.385  12.755   0.030
27981SOL    HW285718  12.364  12.657  14.795
27982SOL     OW85719   7.312  12.828  12.865
27982SOL    HW185720   7.272  12.857  12.783
27982SOL    HW285721   7.252  12.760  12.897
27983SOL     OW85722   6.262  13.904   4.218
27983SOL    HW185723   6.253  13.883   4.125
27983SOL    HW285724   6.173  13.925   4.246
27984SOL     OW85725  11.533   2.838   4.831
27984SOL    HW185726  11.532   2.755   4.783
27984SOL    HW285727  11.624   2.867   4.825
27985SOL     OW85728  14.097   1.343   8.914
27985SOL    HW185729  14.030   1.281   8.885
27985SOL    HW285730  14.075   1.361   9.006
27986SOL     OW85731  10.072  13.522  14.063
27986SOL    HW185732  10.103  13.564  13.982
27986SOL    HW285733  10.152  13.506  14.113
27987SOL     OW85734   8.325   8.122  11.445
27987SOL    HW185735   8.387   8.057  11.476
27987SOL    HW285736   8.267   8.139  11.520
27988SOL     OW85737   0.252   0.734   1.072
27988SOL    HW185738   0.223   0.647   1.045
27988SOL    HW285739   0.311   0.718   1.145
27989SOL     OW85740  13.583   9.149   3.939
27989SOL    HW185741  13.552   9.223   3.992
27989SOL    HW285742  13.528   9.076   3.966
27990SOL     OW85743   8.439   6.341   5.842
27990SOL    HW185744   8.348   6.337   5.812
27990SOL    HW285745   8.478   6.412   5.791
27991SOL     OW85746   4.996  10.855   3.153
27991SOL    HW185747   4.935  10.847   3.227
27991SOL    HW285748   4.942  10.888   3.081
27992SOL     OW85749   0.772   0.483  13.943
27992SOL    HW185750   0.764   0.578  13.943
27992SOL    HW285751   0.865   0.466  13.928
27993SOL     OW85752   8.270   1.551   3.652
27993SOL    HW185753   8.191   1.517   3.693
27993SOL    HW285754   8.335   1.481   3.664
27994SOL     OW85755   5.417   0.991   6.270
27994SOL    HW185756   5.456   0.904   6.268
27994SOL    HW285757   5.449   1.030   6.351
27995SOL     OW85758  14.666  14.442   8.004
27995SOL    HW185759  14.726  14.463   8.076
27995SOL    HW285760  14.702  14.362   7.967
27996SOL     OW85761  10.513   8.832   8.895
27996SOL    HW185762  10.523   8.817   8.989
27996SOL    HW285763  10.565   8.910   8.877
27997SOL     OW85764   0.743   8.099   3.746
27997SOL    HW185765   0.750   8.014   3.703
27997SOL    HW285766   0.809   8.153   3.703
27998SOL     OW85767   7.294   8.408  14.769
27998SOL    HW185768   7.330   8.475  14.826
27998SOL    HW285769   7.371   8.374  14.721
27999SOL     OW85770  11.974   8.264  10.838
27999SOL    HW185771  11.961   8.258  10.933
27999SOL    HW285772  11.951   8.354  10.816
28000SOL     OW85773  13.494   2.824  12.078
28000SOL    HW185774  13.512   2.817  11.984
28000SOL    HW285775  13.477   2.734  12.106
28001SOL     OW85776  14.456   7.757  11.952
28001SOL    HW185777  14.477   7.699  11.878
28001SOL    HW285778  14.511   7.725  12.024
28002SOL     OW85779   1.356   5.455  11.367
28002SOL    HW185780   1.355   5.369  11.409
28002SOL    HW285781   1.392   5.439  11.280
28003SOL     OW85782   7.191   2.827  12.995
28003SOL    HW185783   7.211   2.870  13.078
28003SOL    HW285784   7.191   2.898  12.931
28004SOL     OW85785  11.273   1.486   5.722
28004SOL    HW185786  11.214   1.556   5.748
28004SOL    HW285787  11.305   1.450   5.805
28005SOL     OW85788   7.518   1.667  14.402
28005SOL    HW185789   7.505   1.745  14.349
28005SOL    HW285790   7.570   1.696  14.476
28006SOL     OW85791   5.277   0.742   3.679
28006SOL    HW185792   5.330   0.747   3.759
28006SOL    HW285793   5.222   0.665   3.692
28007SOL     OW85794  12.585  14.025   3.752
28007SOL    HW185795  12.538  14.091   3.803
28007SOL    HW285796  12.528  13.948   3.755
28008SOL     OW85797   1.833   5.278   3.824
28008SOL    HW185798   1.785   5.209   3.778
28008SOL    HW285799   1.923   5.270   3.791
28009SOL     OW85800   2.068   7.246  12.859
28009SOL    HW185801   2.089   7.335  12.887
28009SOL    HW285802   1.991   7.221  12.911
28010SOL     OW85803  11.806  14.356  12.406
28010SOL    HW185804  11.779  14.271  12.373
28010SOL    HW285805  11.724  14.400  12.429
28011SOL     OW85806  14.566   7.150  12.262
28011SOL    HW185807  14.634   7.144  12.194
28011SOL    HW285808  14.499   7.208  12.225
28012SOL     OW85809   7.355   0.152   0.148
28012SOL    HW185810   7.444   0.129   0.174
28012SOL    HW285811   7.354   0.139   0.053
28013SOL     OW85812   0.460   8.144  13.608
28013SOL    HW185813   0.457   8.220  13.549
28013SOL    HW285814   0.520   8.084  13.566
28014SOL     OW85815  10.522  12.534   7.935
28014SOL    HW185816  10.499  12.604   7.997
28014SOL    HW285817  10.461  12.463   7.955
28015SOL     OW85818   8.364   9.881   0.024
28015SOL    HW185819   8.292   9.850  14.845
28015SOL    HW285820   8.322   9.943   0.084
28016SOL     OW85821   1.260   5.573   9.050
28016SOL    HW185822   1.267   5.553   9.143
28016SOL    HW285823   1.166   5.586   9.035
28017SOL     OW85824   8.563   3.922  14.177
28017SOL    HW185825   8.600   3.973  14.105
28017SOL    HW285826   8.589   3.969  14.256
28018SOL     OW85827   8.786  11.261   2.304
28018SOL    HW185828   8.876  11.292   2.313
28018SOL    HW285829   8.788  11.205   2.226
28019SOL     OW85830   1.986   5.769   7.022
28019SOL    HW185831   1.919   5.719   7.067
28019SOL    HW285832   2.054   5.785   7.088
28020SOL     OW85833  12.278  14.595   5.475
28020SOL    HW185834  12.190  14.634   5.470
28020SOL    HW285835  12.335  14.669   5.494
28021SOL     OW85836   8.457  12.456   9.155
28021SOL    HW185837   8.546  12.421   9.153
28021SOL    HW285838   8.468  12.549   9.134
28022SOL     OW85839   6.047   7.522   1.386
28022SOL    HW185840   5.992   7.580   1.332
28022SOL    HW285841   6.068   7.449   1.328
28023SOL     OW85842   4.680  11.224   9.872
28023SOL    HW185843   4.660  11.265   9.788
28023SOL    HW285844   4.624  11.146   9.875
28024SOL     OW85845   2.693   9.123  12.172
28024SOL    HW185846   2.780   9.159  12.186
28024SOL    HW285847   2.674   9.073  12.252
28025SOL     OW85848  14.259  11.617   9.035
28025SOL    HW185849  14.180  11.601   9.087
28025SOL    HW285850  14.267  11.712   9.031
28026SOL     OW85851   1.539   5.141   6.297
28026SOL    HW185852   1.622   5.119   6.338
28026SOL    HW285853   1.546   5.235   6.278
28027SOL     OW85854   5.666  11.910  14.246
28027SOL    HW185855   5.714  11.986  14.216
28027SOL    HW285856   5.690  11.840  14.185
28028SOL     OW85857   4.334   9.603  11.282
28028SOL    HW185858   4.283   9.544  11.337
28028SOL    HW285859   4.423   9.596  11.316
28029SOL     OW85860  12.561   3.462   2.626
28029SOL    HW185861  12.502   3.481   2.699
28029SOL    HW285862  12.532   3.522   2.557
28030SOL     OW85863   8.046   9.764   2.958
28030SOL    HW185864   8.049   9.781   3.052
28030SOL    HW285865   7.969   9.708   2.946
28031SOL     OW85866   6.322   4.396  11.052
28031SOL    HW185867   6.236   4.408  11.012
28031SOL    HW285868   6.336   4.476  11.103
28032SOL     OW85869  11.276   0.144  10.066
28032SOL    HW185870  11.217   0.130   9.992
28032SOL    HW285871  11.306   0.234  10.057
28033SOL     OW85872  14.238  13.648  12.215
28033SOL    HW185873  14.184  13.582  12.172
28033SOL    HW285874  14.228  13.630  12.308
28034SOL     OW85875   8.336   1.818   2.757
28034SOL    HW185876   8.367   1.746   2.700
28034SOL    HW285877   8.309   1.886   2.696
28035SOL     OW85878   8.492  12.404   9.413
28035SOL    HW185879   8.438  12.471   9.456
28035SOL    HW285880   8.493  12.431   9.321
28036SOL     OW85881   1.976   6.570   7.644
28036SOL    HW185882   1.933   6.615   7.715
28036SOL    HW285883   2.058   6.618   7.630
28037SOL     OW85884  14.058   3.951   7.445
28037SOL    HW185885  13.983   3.948   7.504
28037SOL    HW285886  14.037   4.021   7.383
28038SOL     OW85887   5.077   1.926   5.703
28038SOL    HW185888   5.121   1.912   5.620
28038SOL    HW285889   5.147   1.922   5.768
28039SOL     OW85890   4.338   6.933   1.934
28039SOL    HW185891   4.314   6.843   1.910
28039SOL    HW285892   4.390   6.923   2.014
28040SOL     OW85893  13.998  14.071   1.849
28040SOL    HW185894  13.972  13.984   1.820
28040SOL    HW285895  13.918  14.123   1.847
28041SOL     OW85896  14.578   7.713  10.045
28041SOL    HW185897  14.487   7.682  10.047
28041SOL    HW285898  14.611   7.685   9.960
28042SOL     OW85899   7.096   3.488  12.067
28042SOL    HW185900   7.093   3.550  12.139
28042SOL    HW285901   7.178   3.440  12.081
28043SOL     OW85902   9.386   3.570   2.065
28043SOL    HW185903   9.368   3.560   2.159
28043SOL    HW285904   9.418   3.484   2.037
28044SOL     OW85905   4.772   3.726   7.079
28044SOL    HW185906   4.771   3.648   7.024
28044SOL    HW285907   4.767   3.799   7.016
28045SOL     OW85908   0.850  11.794  14.024
28045SOL    HW185909   0.798  11.821  13.948
28045SOL    HW285910   0.937  11.774  13.988
28046SOL     OW85911   6.814   4.991   0.850
28046SOL    HW185912   6.873   5.033   0.786
28046SOL    HW285913   6.795   4.906   0.811
28047SOL     OW85914   9.657  11.069  11.485
28047SOL    HW185915   9.630  11.066  11.392
28047SOL    HW285916   9.717  10.996  11.494
28048SOL     OW85917   8.875   9.478   2.080
28048SOL    HW185918   8.793   9.482   2.130
28048SOL    HW285919   8.944   9.473   2.146
28049SOL     OW85920   5.996   2.297   3.308
28049SOL    HW185921   6.015   2.391   3.312
28049SOL    HW285922   6.023   2.271   3.220
28050SOL     OW85923  11.377   9.825   5.136
28050SOL    HW185924  11.419   9.782   5.061
28050SOL    HW285925  11.315   9.887   5.096
28051SOL     OW85926   2.695   4.581   6.724
28051SOL    HW185927   2.720   4.556   6.635
28051SOL    HW285928   2.702   4.677   6.725
28052SOL     OW85929   5.694  10.873   6.025
28052SOL    HW185930   5.698  10.822   5.945
28052SOL    HW285931   5.774  10.849   6.072
28053SOL     OW85932   0.142   6.582  13.728
28053SOL    HW185933   0.090   6.518  13.680
28053SOL    HW285934   0.127   6.665  13.682
28054SOL     OW85935   3.923   1.280   9.789
28054SOL    HW185936   3.837   1.321   9.786
28054SOL    HW285937   3.945   1.264   9.697
28055SOL     OW85938   1.334   0.908  11.152
28055SOL    HW185939   1.325   0.986  11.206
28055SOL    HW285940   1.337   0.941  11.062
28056SOL     OW85941  13.740   5.597  14.691
28056SOL    HW185942  13.764   5.619  14.601
28056SOL    HW285943  13.739   5.502  14.693
28057SOL     OW85944   7.986   5.610  13.060
28057SOL    HW185945   7.951   5.671  12.994
28057SOL    HW285946   7.965   5.651  13.144
28058SOL     OW85947   2.882   5.855   5.695
28058SOL    HW185948   2.852   5.802   5.770
28058SOL    HW285949   2.829   5.824   5.622
28059SOL     OW85950   0.741   5.095   6.832
28059SOL    HW185951   0.664   5.094   6.888
28059SOL    HW285952   0.812   5.062   6.887
28060SOL     OW85953   8.080  13.600  12.859
28060SOL    HW185954   8.141  13.659  12.814
28060SOL    HW285955   8.048  13.650  12.933
28061SOL     OW85956  10.143  11.940   5.623
28061SOL    HW185957  10.130  12.027   5.585
28061SOL    HW285958  10.136  11.880   5.548
28062SOL     OW85959   5.630  12.807   3.579
28062SOL    HW185960   5.551  12.776   3.623
28062SOL    HW285961   5.643  12.746   3.506
28063SOL     OW85962   8.457  13.253   7.771
28063SOL    HW185963   8.384  13.293   7.723
28063SOL    HW285964   8.417  13.213   7.848
28064SOL     OW85965   2.155   2.886   1.585
28064SOL    HW185966   2.211   2.924   1.652
28064SOL    HW285967   2.067   2.888   1.623
28065SOL     OW85968   1.307   1.011   8.778
28065SOL    HW185969   1.303   0.938   8.841
28065SOL    HW285970   1.230   1.000   8.723
28066SOL     OW85971   8.853   1.545   0.271
28066SOL    HW185972   8.760   1.562   0.286
28066SOL    HW285973   8.863   1.452   0.287
28067SOL     OW85974  12.336   9.950  14.555
28067SOL    HW185975  12.330  10.045  14.552
28067SOL    HW285976  12.330   9.928  14.648
28068SOL     OW85977   5.432   7.435   3.264
28068SOL    HW185978   5.380   7.440   3.344
28068SOL    HW285979   5.367   7.434   3.193
28069SOL     OW85980   5.489   5.880   2.538
28069SOL    HW185981   5.548   5.897   2.465
28069SOL    HW285982   5.546   5.866   2.613
28070SOL     OW85983   7.401   0.075  11.717
28070SOL    HW185984   7.442   0.078  11.804
28070SOL    HW285985   7.420  14.865  11.684
28071SOL     OW85986   3.972   5.055   9.381
28071SOL    HW185987   3.893   5.002   9.382
28071SOL    HW285988   3.960   5.119   9.451
28072SOL     OW85989   7.442   8.529  14.265
28072SOL    HW185990   7.351   8.524  14.237
28072SOL    HW285991   7.448   8.471  14.341
28073SOL     OW85992  14.395   7.481   6.417
28073SOL    HW185993  14.471   7.539   6.404
28073SOL    HW285994  14.417   7.402   6.368
28074SOL     OW85995   9.979  14.606  11.359
28074SOL    HW185996  10.052  14.638  11.307
28074SOL    HW285997   9.901  14.642  11.315
28075SOL     OW85998  12.555   3.632  13.372
28075SOL    HW185999  12.581   3.596  13.457
28075SOL    HW286000  12.625   3.604  13.313
28076SOL     OW86001  12.136   5.699   2.237
28076SOL    HW186002  12.174   5.672   2.153
28076SOL    HW286003  12.069   5.763   2.213
28077SOL     OW86004   6.366  11.153  13.500
28077SOL    HW186005   6.433  11.102  13.454
28077SOL    HW286006   6.398  11.243  13.494
28078SOL     OW86007   6.524   2.161   7.669
28078SOL    HW186008   6.526   2.253   7.643
28078SOL    HW286009   6.432   2.144   7.691
28079SOL     OW86010   8.897  14.028   2.962
28079SOL    HW186011   8.959  14.097   2.986
28079SOL    HW286012   8.950  13.961   2.919
28080SOL     OW86013   1.888   0.176   3.716
28080SOL    HW186014   1.922   0.263   3.695
28080SOL    HW286015   1.796   0.191   3.739
28081SOL     OW86016   6.206  14.105   2.646
28081SOL    HW186017   6.285  14.158   2.650
28081SOL    HW286018   6.233  14.024   2.602
28082SOL     OW86019   1.149   5.835   4.633
28082SOL    HW186020   1.218   5.790   4.682
28082SOL    HW286021   1.108   5.766   4.581
28083SOL     OW86022   8.915  13.195   1.404
28083SOL    HW186023   8.842  13.142   1.371
28083SOL    HW286024   8.992  13.139   1.395
28084SOL     OW86025  10.486   1.413   5.556
28084SOL    HW186026  10.455   1.323   5.550
28084SOL    HW286027  10.490   1.432   5.650
28085SOL     OW86028   1.401   7.304   1.686
28085SOL    HW186029   1.399   7.346   1.600
28085SOL    HW286030   1.310   7.308   1.716
28086SOL     OW86031   3.263   3.032   6.364
28086SOL    HW186032   3.223   2.949   6.391
28086SOL    HW286033   3.354   3.024   6.390
28087SOL     OW86034  14.561   1.369   0.877
28087SOL    HW186035  14.475   1.353   0.915
28087SOL    HW286036  14.600   1.436   0.933
28088SOL     OW86037   2.339   3.715  12.322
28088SOL    HW186038   2.397   3.646  12.354
28088SOL    HW286039   2.255   3.672  12.307
28089SOL     OW86040  13.269   3.318   2.407
28089SOL    HW186041  13.222   3.383   2.460
28089SOL    HW286042  13.350   3.303   2.455
28090SOL     OW86043   9.527   4.650  10.183
28090SOL    HW186044   9.465   4.722  10.194
28090SOL    HW286045   9.603   4.675  10.235
28091SOL     OW86046   9.111  14.797   0.824
28091SOL    HW186047   9.165  14.719   0.813
28091SOL    HW286048   9.166  14.859   0.870
28092SOL     OW86049   8.551   8.597   5.047
28092SOL    HW186050   8.504   8.524   5.007
28092SOL    HW286051   8.556   8.663   4.978
28093SOL     OW86052   1.697   7.793  12.932
28093SOL    HW186053   1.685   7.764  12.842
28093SOL    HW286054   1.619   7.762  12.978
28094SOL     OW86055   4.770   2.972  10.089
28094SOL    HW186056   4.735   2.960  10.001
28094SOL    HW286057   4.694   2.998  10.142
28095SOL     OW86058   8.587   7.197  10.513
28095SOL    HW186059   8.623   7.249  10.441
28095SOL    HW286060   8.659   7.187  10.574
28096SOL     OW86061  11.397   7.362  14.278
28096SOL    HW186062  11.376   7.331  14.365
28096SOL    HW286063  11.491   7.348  14.269
28097SOL     OW86064   9.282  14.871   8.128
28097SOL    HW186065   9.225  14.800   8.156
28097SOL    HW286066   9.369  14.847   8.161
28098SOL     OW86067   0.784   2.664   3.377
28098SOL    HW186068   0.859   2.662   3.318
28098SOL    HW286069   0.822   2.655   3.464
28099SOL     OW86070  10.271   5.669  14.780
28099SOL    HW186071  10.178   5.651  14.791
28099SOL    HW286072  10.283   5.756  14.819
28100SOL     OW86073  11.112  14.193   6.204
28100SOL    HW186074  11.024  14.214   6.238
28100SOL    HW286075  11.099  14.116   6.150
28101SOL     OW86076   1.383  14.517   2.246
28101SOL    HW186077   1.418  14.600   2.279
28101SOL    HW286078   1.308  14.543   2.192
28102SOL     OW86079   0.054   6.656   7.727
28102SOL    HW186080   0.014   6.606   7.798
28102SOL    HW286081  14.868   6.652   7.656
28103SOL     OW86082  11.847   9.350   6.377
28103SOL    HW186083  11.871   9.442   6.391
28103SOL    HW286084  11.812   9.321   6.461
28104SOL     OW86085  12.575  13.731   6.542
28104SOL    HW186086  12.668  13.720   6.561
28104SOL    HW286087  12.541  13.641   6.535
28105SOL     OW86088  12.955   4.567   1.989
28105SOL    HW186089  12.911   4.482   1.986
28105SOL    HW286090  12.961   4.594   1.898
28106SOL     OW86091  14.844   7.998   1.356
28106SOL    HW186092  14.784   8.019   1.427
28106SOL    HW286093   0.025   8.073   1.351
28107SOL     OW86094   7.573   9.691   7.678
28107SOL    HW186095   7.516   9.614   7.681
28107SOL    HW286096   7.644   9.672   7.739
28108SOL     OW86097  11.390   4.838  10.789
28108SOL    HW186098  11.381   4.766  10.851
28108SOL    HW286099  11.347   4.807  10.709
28109SOL     OW86100  10.146   1.671   2.376
28109SOL    HW186101  10.172   1.735   2.443
28109SOL    HW286102  10.051   1.665   2.383
28110SOL     OW86103   4.963   6.961  11.459
28110SOL    HW186104   5.024   6.893  11.429
28110SOL    HW286105   4.973   7.032  11.395
28111SOL     OW86106   7.746   0.929   4.013
28111SOL    HW186107   7.693   0.929   3.933
28111SOL    HW286108   7.704   0.864   4.069
28112SOL     OW86109   2.189   7.410   7.658
28112SOL    HW186110   2.187   7.320   7.625
28112SOL    HW286111   2.115   7.453   7.615
28113SOL     OW86112   3.889   9.766   8.187
28113SOL    HW186113   3.970   9.719   8.167
28113SOL    HW286114   3.891   9.844   8.131
28114SOL     OW86115   1.571   3.998   3.354
28114SOL    HW186116   1.511   3.990   3.280
28114SOL    HW286117   1.604   3.909   3.367
28115SOL     OW86118  11.324   2.464  11.570
28115SOL    HW186119  11.253   2.492  11.512
28115SOL    HW286120  11.280   2.430  11.648
28116SOL     OW86121   8.984   1.013   0.343
28116SOL    HW186122   8.951   1.039   0.257
28116SOL    HW286123   8.974   0.918   0.344
28117SOL     OW86124   0.700   6.527   8.583
28117SOL    HW186125   0.668   6.617   8.584
28117SOL    HW286126   0.672   6.492   8.498
28118SOL     OW86127   2.411   9.069   5.078
28118SOL    HW186128   2.449   9.034   4.996
28118SOL    HW286129   2.443   9.009   5.145
28119SOL     OW86130  14.773   0.304   1.639
28119SOL    HW186131  14.689   0.306   1.595
28119SOL    HW286132  14.751   0.298   1.732
28120SOL     OW86133  14.107  12.329   7.043
28120SOL    HW186134  14.161  12.391   7.091
28120SOL    HW286135  14.070  12.380   6.971
28121SOL     OW86136  13.529  14.526   9.363
28121SOL    HW186137  13.532  14.601   9.303
28121SOL    HW286138  13.436  14.510   9.376
28122SOL     OW86139  13.902   7.345   2.239
28122SOL    HW186140  13.970   7.278   2.233
28122SOL    HW286141  13.821   7.296   2.251
28123SOL     OW86142   3.785   9.388   5.158
28123SOL    HW186143   3.801   9.330   5.232
28123SOL    HW286144   3.823   9.341   5.083
28124SOL     OW86145  10.757   7.848   1.429
28124SOL    HW186146  10.666   7.841   1.456
28124SOL    HW286147  10.780   7.940   1.446
28125SOL     OW86148  12.686  11.096  10.606
28125SOL    HW186149  12.630  11.174  10.600
28125SOL    HW286150  12.690  11.062  10.516
28126SOL     OW86151   4.634   2.676   6.799
28126SOL    HW186152   4.720   2.706   6.829
28126SOL    HW286153   4.575   2.696   6.871
28127SOL     OW86154   5.106  11.748   6.218
28127SOL    HW186155   5.044  11.686   6.179
28127SOL    HW286156   5.151  11.699   6.286
28128SOL     OW86157   9.222   0.501   0.746
28128SOL    HW186158   9.270   0.496   0.664
28128SOL    HW286159   9.239   0.589   0.779
28129SOL     OW86160   5.512  11.561   6.572
28129SOL    HW186161   5.542  11.650   6.552
28129SOL    HW286162   5.427  11.574   6.615
28130SOL     OW86163   1.224  11.690   2.635
28130SOL    HW186164   1.310  11.730   2.620
28130SOL    HW286165   1.234  11.600   2.603
28131SOL     OW86166   8.508   4.460   0.040
28131SOL    HW186167   8.478   4.429  14.832
28131SOL    HW286168   8.435   4.444   0.099
28132SOL     OW86169   3.172   6.683   3.221
28132SOL    HW186170   3.167   6.735   3.301
28132SOL    HW286171   3.215   6.602   3.247
28133SOL     OW86172   1.396   5.193   3.428
28133SOL    HW186173   1.353   5.116   3.392
28133SOL    HW286174   1.463   5.215   3.364
28134SOL     OW86175  13.962  12.623   7.212
28134SOL    HW186176  13.943  12.714   7.192
28134SOL    HW286177  13.878  12.578   7.207
28135SOL     OW86178   3.308  14.834   2.844
28135SOL    HW186179   3.243  14.771   2.816
28135SOL    HW286180   3.263   0.041   2.840
28136SOL     OW86181   3.583  10.871   3.055
28136SOL    HW186182   3.492  10.864   3.027
28136SOL    HW286183   3.624  10.928   2.989
28137SOL     OW86184  14.226  14.230   4.322
28137SOL    HW186185  14.209  14.253   4.231
28137SOL    HW286186  14.241  14.135   4.321
28138SOL     OW86187   5.986  10.006   3.300
28138SOL    HW186188   6.030  10.068   3.358
28138SOL    HW286189   5.945  10.060   3.233
28139SOL     OW86190  11.168  10.335  13.378
28139SOL    HW186191  11.255  10.374  13.383
28139SOL    HW286192  11.181  10.243  13.401
28140SOL     OW86193   8.712   7.796   9.795
28140SOL    HW186194   8.772   7.774   9.724
28140SOL    HW286195   8.625   7.794   9.755
28141SOL     OW86196   3.467   3.674   6.804
28141SOL    HW186197   3.480   3.673   6.899
28141SOL    HW286198   3.550   3.642   6.768
28142SOL     OW86199  14.256   5.538  11.832
28142SOL    HW186200  14.319   5.473  11.803
28142SOL    HW286201  14.309   5.613  11.859
28143SOL     OW86202   9.617   1.338   3.059
28143SOL    HW186203   9.628   1.374   2.970
28143SOL    HW286204   9.638   1.245   3.049
28144SOL     OW86205   1.051   9.208   2.174
28144SOL    HW186206   1.009   9.123   2.157
28144SOL    HW286207   0.980   9.263   2.208
28145SOL     OW86208  10.223   9.673   7.927
28145SOL    HW186209  10.158   9.633   7.985
28145SOL    HW286210  10.295   9.697   7.985
28146SOL     OW86211   9.802  14.049   0.409
28146SOL    HW186212   9.795  14.053   0.313
28146SOL    HW286213   9.727  14.099   0.441
28147SOL     OW86214  14.842   7.769   4.072
28147SOL    HW186215   0.022   7.811   4.135
28147SOL    HW286216  14.847   7.824   3.994
28148SOL     OW86217  14.543  10.911   3.773
28148SOL    HW186218  14.485  10.971   3.821
28148SOL    HW286219  14.484  10.845   3.737
28149SOL     OW86220   4.510   5.117   1.499
28149SOL    HW186221   4.572   5.159   1.559
28149SOL    HW286222   4.564   5.058   1.446
28150SOL     OW86223   8.760  13.359  13.811
28150SOL    HW186224   8.799  13.305  13.742
28150SOL    HW286225   8.785  13.316  13.892
28151SOL     OW86226  10.932   5.797  14.335
28151SOL    HW186227  10.939   5.886  14.369
28151SOL    HW286228  10.946   5.806  14.241
28152SOL     OW86229   3.456   7.416  12.036
28152SOL    HW186230   3.365   7.401  12.060
28152SOL    HW286231   3.454   7.434  11.942
28153SOL     OW86232  14.351   8.357   9.665
28153SOL    HW186233  14.403   8.407   9.728
28153SOL    HW286234  14.394   8.272   9.660
28154SOL     OW86235  13.693   6.470   2.360
28154SOL    HW186236  13.684   6.396   2.420
28154SOL    HW286237  13.674   6.434   2.273
28155SOL     OW86238  11.011   2.619   5.987
28155SOL    HW186239  11.100   2.630   6.021
28155SOL    HW286240  10.980   2.537   6.026
28156SOL     OW86241   9.460   2.599  11.148
28156SOL    HW186242   9.382   2.565  11.106
28156SOL    HW286243   9.428   2.663  11.212
28157SOL     OW86244   9.865   0.249   0.513
28157SOL    HW186245   9.775   0.244   0.545
28157SOL    HW286246   9.869   0.333   0.466
28158SOL     OW86247   0.979  12.679   4.011
28158SOL    HW186248   1.004  12.747   3.948
28158SOL    HW286249   1.037  12.692   4.086
28159SOL     OW86250   6.822  10.578   9.670
28159SOL    HW186251   6.748  10.596   9.728
28159SOL    HW286252   6.894  10.558   9.729
28160SOL     OW86253   0.117   8.495   1.736
28160SOL    HW186254   0.036   8.456   1.768
28160SOL    HW286255   0.093   8.535   1.652
28161SOL     OW86256   8.394   1.021   2.121
28161SOL    HW186257   8.339   1.037   2.197
28161SOL    HW286258   8.343   1.053   2.047
28162SOL     OW86259   0.702   6.752   1.940
28162SOL    HW186260   0.645   6.730   1.866
28162SOL    HW286261   0.791   6.740   1.907
28163SOL     OW86262   2.029  12.786  11.580
28163SOL    HW186263   2.103  12.807  11.637
28163SOL    HW286264   2.063  12.799  11.491
28164SOL     OW86265   6.792   1.861  10.637
28164SOL    HW186266   6.868   1.917  10.654
28164SOL    HW286267   6.817   1.808  10.562
28165SOL     OW86268  14.602   2.998  11.421
28165SOL    HW186269  14.591   2.929  11.356
28165SOL    HW286270  14.514   3.034  11.433
28166SOL     OW86271   5.012  11.224   8.932
28166SOL    HW186272   4.999  11.314   8.902
28166SOL    HW286273   5.085  11.231   8.994
28167SOL     OW86274   2.396   5.547   9.933
28167SOL    HW186275   2.392   5.455   9.957
28167SOL    HW286276   2.306   5.570   9.909
28168SOL     OW86277   6.276  11.452   5.905
28168SOL    HW186278   6.215  11.400   5.957
28168SOL    HW286279   6.298  11.396   5.831
28169SOL     OW86280   8.098   1.861   4.875
28169SOL    HW186281   8.035   1.933   4.872
28169SOL    HW286282   8.124   1.856   4.967
28170SOL     OW86283  10.631  12.606   9.442
28170SOL    HW186284  10.603  12.643   9.526
28170SOL    HW286285  10.651  12.682   9.388
28171SOL     OW86286   8.466  10.278   7.075
28171SOL    HW186287   8.453  10.354   7.132
28171SOL    HW286288   8.523  10.220   7.126
28172SOL     OW86289   9.498   1.210   0.745
28172SOL    HW186290   9.469   1.137   0.799
28172SOL    HW286291   9.588   1.188   0.720
28173SOL     OW86292  13.085  12.734   1.794
28173SOL    HW186293  13.090  12.647   1.754
28173SOL    HW286294  13.023  12.782   1.738
28174SOL     OW86295   8.081   1.975   8.782
28174SOL    HW186296   8.161   1.958   8.733
28174SOL    HW286297   8.017   2.000   8.716
28175SOL     OW86298   3.542  10.354   1.615
28175SOL    HW186299   3.457  10.334   1.576
28175SOL    HW286300   3.591  10.272   1.608
28176SOL     OW86301  11.288  10.377  11.611
28176SOL    HW186302  11.217  10.385  11.547
28176SOL    HW286303  11.294  10.283  11.627
28177SOL     OW86304   7.198   1.374   5.166
28177SOL    HW186305   7.106   1.390   5.144
28177SOL    HW286306   7.203   1.279   5.181
28178SOL     OW86307   5.606   3.955   1.786
28178SOL    HW186308   5.632   3.876   1.739
28178SOL    HW286309   5.626   3.935   1.878
28179SOL     OW86310  13.765   5.207   8.637
28179SOL    HW186311  13.808   5.227   8.720
28179SOL    HW286312  13.765   5.111   8.632
28180SOL     OW86313   1.584  12.248   7.346
28180SOL    HW186314   1.568  12.204   7.430
28180SOL    HW286315   1.651  12.195   7.303
28181SOL     OW86316   4.814   1.081  12.418
28181SOL    HW186317   4.851   1.105  12.333
28181SOL    HW286318   4.833   0.988  12.427
28182SOL     OW86319  11.833   7.598  11.919
28182SOL    HW186320  11.901   7.611  11.853
28182SOL    HW286321  11.777   7.676  11.912
28183SOL     OW86322   2.532  13.992  10.445
28183SOL    HW186323   2.535  14.017  10.538
28183SOL    HW286324   2.470  13.919  10.442
28184SOL     OW86325   9.884   3.446   3.649
28184SOL    HW186326   9.832   3.493   3.584
28184SOL    HW286327   9.927   3.515   3.700
28185SOL     OW86328   7.226  10.666   9.182
28185SOL    HW186329   7.308  10.712   9.200
28185SOL    HW286330   7.233  10.584   9.231
28186SOL     OW86331   6.144  12.230   5.009
28186SOL    HW186332   6.157  12.152   4.955
28186SOL    HW286333   6.229  12.272   5.011
28187SOL     OW86334  11.153  13.869   3.697
28187SOL    HW186335  11.135  13.778   3.722
28187SOL    HW286336  11.223  13.896   3.757
28188SOL     OW86337   5.802   0.353   0.185
28188SOL    HW186338   5.783   0.384   0.274
28188SOL    HW286339   5.823   0.432   0.136
28189SOL     OW86340   0.109  14.522  10.958
28189SOL    HW186341   0.026  14.554  10.922
28189SOL    HW286342   0.159  14.602  10.978
28190SOL     OW86343   9.802   2.676   3.768
28190SOL    HW186344   9.764   2.761   3.789
28190SOL    HW286345   9.803   2.673   3.673
28191SOL     OW86346  12.985   2.914  14.262
28191SOL    HW186347  12.900   2.872  14.257
28191SOL    HW286348  13.048   2.846  14.237
28192SOL     OW86349   0.153  14.017  14.733
28192SOL    HW186350   0.242  13.982  14.735
28192SOL    HW286351   0.098  13.943  14.710
28193SOL     OW86352   2.487   0.451   4.105
28193SOL    HW186353   2.447   0.521   4.053
28193SOL    HW286354   2.494   0.378   4.045
28194SOL     OW86355   6.864   9.191   5.057
28194SOL    HW186356   6.921   9.114   5.061
28194SOL    HW286357   6.924   9.265   5.050
28195SOL     OW86358   7.399  12.773   7.980
28195SOL    HW186359   7.489  12.803   7.993
28195SOL    HW286360   7.385  12.708   8.048
28196SOL     OW86361  14.488   6.148   2.087
28196SOL    HW186362  14.477   6.243   2.090
28196SOL    HW286363  14.582   6.135   2.081
28197SOL     OW86364  11.552   3.196  12.471
28197SOL    HW186365  11.639   3.169  12.500
28197SOL    HW286366  11.493   3.164  12.539
28198SOL     OW86367   2.491   1.506   8.080
28198SOL    HW186368   2.406   1.472   8.108
28198SOL    HW286369   2.470   1.580   8.024
28199SOL     OW86370  12.306  11.331  13.293
28199SOL    HW186371  12.325  11.342  13.200
28199SOL    HW286372  12.242  11.400  13.313
28200SOL     OW86373   4.649  11.291  11.014
28200SOL    HW186374   4.612  11.231  11.079
28200SOL    HW286375   4.622  11.254  10.929
28201SOL     OW86376   7.813   8.710   1.089
28201SOL    HW186377   7.728   8.753   1.078
28201SOL    HW286378   7.814   8.640   1.024
28202SOL     OW86379   0.247   5.834   0.970
28202SOL    HW186380   0.266   5.757   0.918
28202SOL    HW286381   0.154   5.851   0.954
28203SOL     OW86382   3.402  14.579   2.446
28203SOL    HW186383   3.415  14.489   2.417
28203SOL    HW286384   3.356  14.571   2.529
28204SOL     OW86385   8.391   3.000  11.827
28204SOL    HW186386   8.351   3.087  11.820
28204SOL    HW286387   8.393   2.969  11.736
28205SOL     OW86388   4.491   5.070   9.043
28205SOL    HW186389   4.582   5.042   9.048
28205SOL    HW286390   4.494   5.157   9.003
28206SOL     OW86391   7.713   7.449   8.827
28206SOL    HW186392   7.703   7.383   8.895
28206SOL    HW286393   7.626   7.490   8.821
28207SOL     OW86394  11.984   0.155   5.476
28207SOL    HW186395  12.051   0.110   5.424
28207SOL    HW286396  11.957   0.229   5.422
28208SOL     OW86397  11.055   1.798  14.024
28208SOL    HW186398  11.140   1.775  14.061
28208SOL    HW286399  10.996   1.802  14.099
28209SOL     OW86400  13.804   4.813   1.761
28209SOL    HW186401  13.731   4.769   1.718
28209SOL    HW286402  13.864   4.835   1.689
28210SOL     OW86403   3.860   0.916   0.888
28210SOL    HW186404   3.774   0.959   0.885
28210SOL    HW286405   3.848   0.837   0.835
28211SOL     OW86406  11.582   5.192   8.417
28211SOL    HW186407  11.554   5.180   8.326
28211SOL    HW286408  11.677   5.201   8.412
28212SOL     OW86409  12.442  10.370   0.647
28212SOL    HW186410  12.457  10.456   0.685
28212SOL    HW286411  12.529  10.341   0.617
28213SOL     OW86412   0.353   1.462   9.380
28213SOL    HW186413   0.426   1.499   9.428
28213SOL    HW286414   0.276   1.485   9.432
28214SOL     OW86415  12.267   2.303   8.852
28214SOL    HW186416  12.340   2.360   8.877
28214SOL    HW286417  12.292   2.217   8.886
28215SOL     OW86418  12.921   4.458  12.917
28215SOL    HW186419  12.970   4.385  12.956
28215SOL    HW286420  12.872   4.496  12.990
28216SOL     OW86421   3.288   4.951  10.852
28216SOL    HW186422   3.312   4.932  10.943
28216SOL    HW286423   3.313   4.871  10.805
28217SOL     OW86424  13.998   6.655   3.555
28217SOL    HW186425  14.003   6.684   3.464
28217SOL    HW286426  14.033   6.566   3.554
28218SOL     OW86427   7.470  13.670   9.834
28218SOL    HW186428   7.453  13.577   9.846
28218SOL    HW286429   7.514  13.676   9.749
28219SOL     OW86430  10.847   1.351   3.986
28219SOL    HW186431  10.821   1.286   3.921
28219SOL    HW286432  10.774   1.412   3.989
28220SOL     OW86433   3.849   1.122   4.642
28220SOL    HW186434   3.930   1.121   4.592
28220SOL    HW286435   3.871   1.165   4.724
28221SOL     OW86436   1.364   0.589   5.903
28221SOL    HW186437   1.301   0.518   5.917
28221SOL    HW286438   1.449   0.546   5.908
28222SOL     OW86439   8.549  14.163  13.669
28222SOL    HW186440   8.595  14.179  13.751
28222SOL    HW286441   8.581  14.078  13.639
28223SOL     OW86442   8.699  10.151  12.213
28223SOL    HW186443   8.736  10.114  12.133
28223SOL    HW286444   8.631  10.088  12.239
28224SOL     OW86445  11.923   4.169   7.454
28224SOL    HW186446  11.862   4.134   7.519
28224SOL    HW286447  11.906   4.263   7.453
28225SOL     OW86448   6.674  12.197   6.603
28225SOL    HW186449   6.753  12.149   6.578
28225SOL    HW286450   6.647  12.157   6.687
28226SOL     OW86451  11.192  11.538   6.307
28226SOL    HW186452  11.279  11.550   6.345
28226SOL    HW286453  11.209  11.517   6.215
28227SOL     OW86454   2.380  10.898   4.102
28227SOL    HW186455   2.386  10.829   4.037
28227SOL    HW286456   2.448  10.961   4.077
28228SOL     OW86457   5.446  10.756   1.410
28228SOL    HW186458   5.403  10.671   1.423
28228SOL    HW286459   5.395  10.798   1.340
28229SOL     OW86460   0.716   7.618  10.776
28229SOL    HW186461   0.749   7.532  10.749
28229SOL    HW286462   0.795   7.671  10.787
28230SOL     OW86463   4.838  14.237   3.314
28230SOL    HW186464   4.743  14.221   3.315
28230SOL    HW286465   4.848  14.313   3.256
28231SOL     OW86466  13.459   0.533   8.310
28231SOL    HW186467  13.367   0.516   8.288
28231SOL    HW286468  13.502   0.545   8.225
28232SOL     OW86469   1.619   0.487  14.230
28232SOL    HW186470   1.670   0.565  14.252
28232SOL    HW286471   1.570   0.511  14.152
28233SOL     OW86472   7.038  13.674   2.775
28233SOL    HW186473   7.091  13.738   2.727
28233SOL    HW286474   7.100  13.605   2.798
28234SOL     OW86475   2.764   5.100   9.285
28234SOL    HW186476   2.702   5.124   9.354
28234SOL    HW286477   2.841   5.068   9.332
28235SOL     OW86478  10.959   8.434   4.396
28235SOL    HW186479  10.958   8.343   4.365
28235SOL    HW286480  11.036   8.439   4.452
28236SOL     OW86481   1.462   7.427   4.539
28236SOL    HW186482   1.512   7.471   4.470
28236SOL    HW286483   1.441   7.342   4.501
28237SOL     OW86484  10.596  10.178   6.072
28237SOL    HW186485  10.633  10.221   5.994
28237SOL    HW286486  10.668  10.177   6.135
28238SOL     OW86487  10.990   9.421  11.117
28238SOL    HW186488  10.900   9.444  11.095
28238SOL    HW286489  10.997   9.327  11.095
28239SOL     OW86490   6.054  10.054  12.885
28239SOL    HW186491   6.001   9.990  12.838
28239SOL    HW286492   6.144  10.034  12.860
28240SOL     OW86493  12.318  14.395   9.056
28240SOL    HW186494  12.283  14.333   8.993
28240SOL    HW286495  12.322  14.478   9.009
28241SOL     OW86496   7.161  10.383  10.098
28241SOL    HW186497   7.163  10.297  10.055
28241SOL    HW286498   7.138  10.363  10.189
28242SOL     OW86499   2.917  11.127   9.228
28242SOL    HW186500   3.003  11.107   9.264
28242SOL    HW286501   2.889  11.206   9.275
28243SOL     OW86502  10.110  13.998   3.291
28243SOL    HW186503  10.029  13.971   3.248
28243SOL    HW286504  10.091  14.085   3.326
28244SOL     OW86505   3.478   7.098   8.348
28244SOL    HW186506   3.547   7.103   8.414
28244SOL    HW286507   3.491   7.012   8.307
28245SOL     OW86508   7.868   7.326   5.865
28245SOL    HW186509   7.775   7.321   5.887
28245SOL    HW286510   7.903   7.240   5.889
28246SOL     OW86511   6.054   5.018   4.970
28246SOL    HW186512   6.076   4.996   4.879
28246SOL    HW286513   5.979   5.077   4.963
28247SOL     OW86514   3.721  11.410   6.838
28247SOL    HW186515   3.783  11.368   6.779
28247SOL    HW286516   3.694  11.341   6.898
28248SOL     OW86517  12.415   4.267   6.791
28248SOL    HW186518  12.442   4.177   6.771
28248SOL    HW286519  12.397   4.306   6.706
28249SOL     OW86520  12.646   8.650   4.981
28249SOL    HW186521  12.592   8.669   4.905
28249SOL    HW286522  12.587   8.660   5.056
28250SOL     OW86523  12.145   2.413  12.492
28250SOL    HW186524  12.231   2.435  12.455
28250SOL    HW286525  12.117   2.335  12.445
28251SOL     OW86526  10.500   2.492   9.179
28251SOL    HW186527  10.550   2.565   9.215
28251SOL    HW286528  10.425   2.533   9.136
28252SOL     OW86529   9.798   5.653   9.887
28252SOL    HW186530   9.773   5.733   9.934
28252SOL    HW286531   9.806   5.680   9.796
28253SOL     OW86532   3.817   3.235   6.856
28253SOL    HW186533   3.823   3.186   6.774
28253SOL    HW286534   3.868   3.184   6.919
28254SOL     OW86535  11.619  11.958   8.236
28254SOL    HW186536  11.590  11.977   8.147
28254SOL    HW286537  11.714  11.971   8.233
28255SOL     OW86538  13.209   7.337   7.182
28255SOL    HW186539  13.275   7.319   7.249
28255SOL    HW286540  13.259   7.376   7.110
28256SOL     OW86541  12.312   8.933   4.900
28256SOL    HW186542  12.392   8.943   4.950
28256SOL    HW286543  12.256   9.005   4.929
28257SOL     OW86544  13.461   3.932   8.202
28257SOL    HW186545  13.450   3.973   8.117
28257SOL    HW286546  13.399   3.859   8.202
28258SOL     OW86547   4.245   3.518   2.345
28258SOL    HW186548   4.222   3.429   2.373
28258SOL    HW286549   4.261   3.566   2.426
28259SOL     OW86550   9.334   1.128   5.169
28259SOL    HW186551   9.303   1.059   5.111
28259SOL    HW286552   9.305   1.101   5.256
28260SOL     OW86553  11.863   2.890   3.741
28260SOL    HW186554  11.791   2.920   3.798
28260SOL    HW286555  11.896   2.969   3.700
28261SOL     OW86556   4.318   1.452  10.091
28261SOL    HW186557   4.322   1.512  10.166
28261SOL    HW286558   4.361   1.500  10.020
28262SOL     OW86559  14.550  11.287  11.548
28262SOL    HW186560  14.630  11.323  11.587
28262SOL    HW286561  14.480  11.343  11.580
28263SOL     OW86562   5.548   2.969   9.440
28263SOL    HW186563   5.484   3.022   9.487
28263SOL    HW286564   5.558   3.012   9.356
28264SOL     OW86565   2.341  12.613   5.661
28264SOL    HW186566   2.250  12.615   5.631
28264SOL    HW286567   2.335  12.606   5.756
28265SOL     OW86568  10.204   1.503   0.538
28265SOL    HW186569  10.257   1.584   0.540
28265SOL    HW286570  10.128   1.523   0.593
28266SOL     OW86571  11.217   4.939   2.511
28266SOL    HW186572  11.229   4.970   2.422
28266SOL    HW286573  11.303   4.946   2.551
28267SOL     OW86574  11.522   6.417   1.435
28267SOL    HW186575  11.558   6.492   1.389
28267SOL    HW286576  11.432   6.411   1.402
28268SOL     OW86577   2.681   4.617  13.563
28268SOL    HW186578   2.762   4.667  13.551
28268SOL    HW286579   2.642   4.614  13.475
28269SOL     OW86580   9.052   7.147   1.470
28269SOL    HW186581   9.081   7.109   1.387
28269SOL    HW286582   8.989   7.214   1.444
28270SOL     OW86583  11.125  13.278   6.996
28270SOL    HW186584  11.177  13.338   6.943
28270SOL    HW286585  11.064  13.335   7.044
28271SOL     OW86586  11.384   4.327   0.162
28271SOL    HW186587  11.404   4.328   0.068
28271SOL    HW286588  11.318   4.395   0.173
28272SOL     OW86589   8.646   6.839  14.163
28272SOL    HW186590   8.571   6.807  14.113
28272SOL    HW286591   8.641   6.791  14.246
28273SOL     OW86592   2.584   2.643  13.460
28273SOL    HW186593   2.532   2.641  13.540
28273SOL    HW286594   2.669   2.677  13.487
28274SOL     OW86595  12.580   3.816   6.926
28274SOL    HW186596  12.511   3.814   6.993
28274SOL    HW286597  12.572   3.902   6.886
28275SOL     OW86598   7.080   9.628   2.878
28275SOL    HW186599   7.122   9.554   2.833
28275SOL    HW286600   7.113   9.624   2.967
28276SOL     OW86601  13.392   5.707  14.726
28276SOL    HW186602  13.296   5.702  14.720
28276SOL    HW286603  13.409   5.783  14.781
28277SOL     OW86604   2.185   5.654   2.964
28277SOL    HW186605   2.162   5.745   2.985
28277SOL    HW286606   2.163   5.604   3.043
28278SOL     OW86607   5.791   4.909   8.728
28278SOL    HW186608   5.705   4.878   8.756
28278SOL    HW286609   5.778   5.001   8.705
28279SOL     OW86610  10.144   0.669  13.078
28279SOL    HW186611  10.060   0.714  13.091
28279SOL    HW286612  10.206   0.719  13.131
28280SOL     OW86613  10.107   2.598   0.649
28280SOL    HW186614  10.183   2.549   0.618
28280SOL    HW286615  10.094   2.666   0.584
28281SOL     OW86616  13.386   9.752  11.128
28281SOL    HW186617  13.361   9.775  11.217
28281SOL    HW286618  13.343   9.669  11.111
28282SOL     OW86619  13.660   3.743   2.892
28282SOL    HW186620  13.688   3.718   2.980
28282SOL    HW286621  13.577   3.789   2.906
28283SOL     OW86622   9.330   1.604   3.541
28283SOL    HW186623   9.425   1.613   3.548
28283SOL    HW286624   9.317   1.533   3.479
28284SOL     OW86625  13.511  12.605   3.709
28284SOL    HW186626  13.440  12.647   3.759
28284SOL    HW286627  13.497  12.511   3.722
28285SOL     OW86628   1.403  12.881   6.297
28285SOL    HW186629   1.486  12.873   6.345
28285SOL    HW286630   1.396  12.798   6.249
28286SOL     OW86631   4.822   7.398  13.388
28286SOL    HW186632   4.907   7.441  13.396
28286SOL    HW286633   4.805   7.396  13.294
28287SOL     OW86634   2.149   9.308   6.356
28287SOL    HW186635   2.068   9.257   6.352
28287SOL    HW286636   2.166   9.319   6.449
28288SOL     OW86637   3.619   1.227   6.769
28288SOL    HW186638   3.651   1.313   6.743
28288SOL    HW286639   3.631   1.226   6.864
28289SOL     OW86640   1.214  11.077   4.911
28289SOL    HW186641   1.196  11.043   4.999
28289SOL    HW286642   1.156  11.153   4.902
28290SOL     OW86643   3.178  12.556  12.448
28290SOL    HW186644   3.240  12.501  12.497
28290SOL    HW286645   3.231  12.628  12.415
28291SOL     OW86646   7.966   6.418   2.694
28291SOL    HW186647   7.987   6.508   2.669
28291SOL    HW286648   7.989   6.366   2.616
28292SOL     OW86649   9.718   9.952   3.574
28292SOL    HW186650   9.726  10.038   3.532
28292SOL    HW286651   9.775   9.895   3.523
28293SOL     OW86652   8.561  11.782   8.612
28293SOL    HW186653   8.487  11.768   8.553
28293SOL    HW286654   8.525  11.765   8.699
28294SOL     OW86655   2.637  11.104  11.868
28294SOL    HW186656   2.586  11.077  11.791
28294SOL    HW286657   2.578  11.161  11.917
28295SOL     OW86658   7.682   9.553   4.714
28295SOL    HW186659   7.738   9.609   4.767
28295SOL    HW286660   7.628   9.505   4.777
28296SOL     OW86661  10.450   5.192   1.167
28296SOL    HW186662  10.535   5.169   1.206
28296SOL    HW286663  10.456   5.161   1.077
28297SOL     OW86664   3.474   7.127   6.678
28297SOL    HW186665   3.389   7.083   6.687
28297SOL    HW286666   3.529   7.064   6.633
28298SOL     OW86667  13.853   0.343   3.002
28298SOL    HW186668  13.878   0.340   3.095
28298SOL    HW286669  13.910   0.277   2.960
28299SOL     OW86670   8.373  11.332   5.769
28299SOL    HW186671   8.362  11.246   5.727
28299SOL    HW286672   8.442  11.374   5.718
28300SOL     OW86673   7.025   1.544   9.914
28300SOL    HW186674   7.034   1.638   9.900
28300SOL    HW286675   7.072   1.505   9.840
28301SOL     OW86676   0.045  12.891   1.407
28301SOL    HW186677   0.022  12.957   1.473
28301SOL    HW286678  14.848  12.831   1.406
28302SOL     OW86679   7.152   0.730   2.853
28302SOL    HW186680   7.183   0.786   2.782
28302SOL    HW286681   7.061   0.713   2.832
28303SOL     OW86682  11.290  10.622  11.744
28303SOL    HW186683  11.294  10.541  11.694
28303SOL    HW286684  11.263  10.689  11.680
28304SOL     OW86685  10.262   3.227   2.625
28304SOL    HW186686  10.309   3.200   2.546
28304SOL    HW286687  10.183   3.270   2.591
28305SOL     OW86688   3.022   7.636  11.881
28305SOL    HW186689   3.081   7.563  11.865
28305SOL    HW286690   2.983   7.656  11.796
28306SOL     OW86691  10.796   4.946   0.241
28306SOL    HW186692  10.712   4.982   0.269
28306SOL    HW286693  10.818   4.994   0.161
28307SOL     OW86694  10.898  10.612   6.619
28307SOL    HW186695  10.959  10.580   6.552
28307SOL    HW286696  10.884  10.704   6.596
28308SOL     OW86697   7.014   7.956   1.541
28308SOL    HW186698   7.046   8.003   1.618
28308SOL    HW286699   6.947   7.897   1.575
28309SOL     OW86700   2.659   1.443  11.485
28309SOL    HW186701   2.568   1.450  11.456
28309SOL    HW286702   2.709   1.484  11.415
28310SOL     OW86703  14.330   4.658   2.999
28310SOL    HW186704  14.386   4.621   3.066
28310SOL    HW286705  14.254   4.599   2.995
28311SOL     OW86706   9.229   8.975   4.579
28311SOL    HW186707   9.160   8.922   4.539
28311SOL    HW286708   9.196   8.993   4.667
28312SOL     OW86709   2.954   7.439   1.122
28312SOL    HW186710   3.024   7.433   1.058
28312SOL    HW286711   2.987   7.501   1.188
28313SOL     OW86712   3.091   9.843   1.476
28313SOL    HW186713   3.061   9.924   1.434
28313SOL    HW286714   3.059   9.774   1.419
28314SOL     OW86715   6.299   1.999   1.296
28314SOL    HW186716   6.290   1.939   1.222
28314SOL    HW286717   6.229   2.063   1.283
28315SOL     OW86718   4.300   5.471   5.331
28315SOL    HW186719   4.243   5.526   5.384
28315SOL    HW286720   4.370   5.445   5.391
28316SOL     OW86721   9.190   9.023  11.546
28316SOL    HW186722   9.208   9.093  11.608
28316SOL    HW286723   9.224   8.944  11.589
28317SOL     OW86724   7.994   4.368   0.975
28317SOL    HW186725   8.070   4.384   1.030
28317SOL    HW286726   7.946   4.451   0.975
28318SOL     OW86727  11.339   1.286   8.367
28318SOL    HW186728  11.247   1.263   8.380
28318SOL    HW286729  11.363   1.243   8.285
28319SOL     OW86730   0.965   4.651   7.140
28319SOL    HW186731   1.016   4.579   7.176
28319SOL    HW286732   0.916   4.686   7.214
28320SOL     OW86733   5.665   1.879  14.496
28320SOL    HW186734   5.573   1.906  14.499
28320SOL    HW286735   5.670   1.825  14.416
28321SOL     OW86736  14.826  12.338   0.793
28321SOL    HW186737  14.764  12.326   0.721
28321SOL    HW286738  14.789  12.410   0.845
28322SOL     OW86739  14.685   2.821   2.120
28322SOL    HW186740  14.596   2.855   2.127
28322SOL    HW286741  14.695   2.796   2.028
28323SOL     OW86742   6.157   0.713  11.838
28323SOL    HW186743   6.129   0.699  11.929
28323SOL    HW286744   6.168   0.625  11.803
28324SOL     OW86745  12.192   6.796   0.934
28324SOL    HW186746  12.229   6.709   0.949
28324SOL    HW286747  12.155   6.822   1.019
28325SOL     OW86748  11.037  13.832   2.339
28325SOL    HW186749  11.018  13.740   2.356
28325SOL    HW286750  11.091  13.831   2.260
28326SOL     OW86751  11.950   7.291   3.897
28326SOL    HW186752  11.957   7.221   3.962
28326SOL    HW286753  11.927   7.246   3.815
28327SOL     OW86754   2.792   0.959  11.275
28327SOL    HW186755   2.752   1.043  11.250
28327SOL    HW286756   2.736   0.927  11.346
28328SOL     OW86757   3.239  12.918  11.473
28328SOL    HW186758   3.242  12.826  11.448
28328SOL    HW286759   3.302  12.925  11.544
28329SOL     OW86760   8.627   5.033   5.752
28329SOL    HW186761   8.570   5.038   5.828
28329SOL    HW286762   8.687   5.107   5.762
28330SOL     OW86763   1.352  10.464   3.505
28330SOL    HW186764   1.292  10.473   3.431
28330SOL    HW286765   1.297  10.435   3.578
28331SOL     OW86766   0.236  12.839   6.643
28331SOL    HW186767   0.265  12.856   6.553
28331SOL    HW286768   0.174  12.766   6.634
28332SOL     OW86769   1.530  12.941   6.717
28332SOL    HW186770   1.553  13.021   6.671
28332SOL    HW286771   1.434  12.945   6.726
28333SOL     OW86772   3.958   9.667  12.931
28333SOL    HW186773   3.920   9.610  12.998
28333SOL    HW286774   3.895   9.739  12.922
28334SOL     OW86775   5.802   1.491   9.196
28334SOL    HW186776   5.851   1.503   9.277
28334SOL    HW286777   5.715   1.462   9.224
28335SOL     OW86778   6.538  14.759   1.646
28335SOL    HW186779   6.555  14.795   1.733
28335SOL    HW286780   6.443  14.765   1.636
28336SOL     OW86781  14.865   5.263  10.365
28336SOL    HW186782  14.787   5.316  10.351
28336SOL    HW286783   0.001   5.218  10.281
28337SOL     OW86784   3.261   9.467   6.670
28337SOL    HW186785   3.292   9.530   6.735
28337SOL    HW286786   3.201   9.411   6.718
28338SOL     OW86787  10.594   0.855   2.812
28338SOL    HW186788  10.543   0.784   2.850
28338SOL    HW286789  10.685   0.829   2.825
28339SOL     OW86790   6.439   3.828  14.150
28339SOL    HW186791   6.445   3.759  14.217
28339SOL    HW286792   6.361   3.804  14.099
28340SOL     OW86793  11.273   6.349   8.687
28340SOL    HW186794  11.365   6.374   8.697
28340SOL    HW286795  11.231   6.379   8.768
28341SOL     OW86796  10.921   8.520   3.129
28341SOL    HW186797  10.859   8.593   3.140
28341SOL    HW286798  10.910   8.494   3.037
28342SOL     OW86799   3.317  14.591  10.742
28342SOL    HW186800   3.274  14.525  10.797
28342SOL    HW286801   3.267  14.590  10.660
28343SOL     OW86802   3.278  12.293   3.947
28343SOL    HW186803   3.321  12.363   3.997
28343SOL    HW286804   3.340  12.220   3.951
28344SOL     OW86805   3.710   8.002  14.184
28344SOL    HW186806   3.695   8.009  14.090
28344SOL    HW286807   3.796   7.962  14.193
28345SOL     OW86808   6.644  12.272   1.560
28345SOL    HW186809   6.723  12.221   1.540
28345SOL    HW286810   6.637  12.269   1.655
28346SOL     OW86811  12.283  10.559   3.762
28346SOL    HW186812  12.243  10.605   3.835
28346SOL    HW286813  12.318  10.479   3.800
28347SOL     OW86814   1.916  13.763   7.995
28347SOL    HW186815   1.984  13.698   7.978
28347SOL    HW286816   1.855  13.719   8.054
28348SOL     OW86817   1.487   2.450   1.686
28348SOL    HW186818   1.447   2.514   1.745
28348SOL    HW286819   1.553   2.500   1.639
28349SOL     OW86820   2.332   6.129  13.932
28349SOL    HW186821   2.238   6.136  13.915
28349SOL    HW286822   2.366   6.218  13.920
28350SOL     OW86823   4.248   6.146  12.333
28350SOL    HW186824   4.241   6.074  12.270
28350SOL    HW286825   4.328   6.128  12.382
28351SOL     OW86826   4.527  10.128   5.691
28351SOL    HW186827   4.526  10.032   5.693
28351SOL    HW286828   4.531  10.153   5.783
28352SOL     OW86829   8.262   6.404   8.603
28352SOL    HW186830   8.213   6.486   8.600
28352SOL    HW286831   8.303   6.403   8.690
28353SOL     OW86832  13.882   1.476   4.208
28353SOL    HW186833  13.849   1.565   4.214
28353SOL    HW286834  13.908   1.466   4.117
28354SOL     OW86835   7.805   9.653   4.384
28354SOL    HW186836   7.791   9.740   4.421
28354SOL    HW286837   7.866   9.667   4.312
28355SOL     OW86838  11.924  12.734  12.645
28355SOL    HW186839  11.903  12.695  12.560
28355SOL    HW286840  11.962  12.819  12.623
28356SOL     OW86841  13.835   4.045  14.593
28356SOL    HW186842  13.804   3.984  14.526
28356SOL    HW286843  13.886   4.110  14.546
28357SOL     OW86844   1.492   8.191  14.021
28357SOL    HW186845   1.435   8.251  13.972
28357SOL    HW286846   1.439   8.164  14.096
28358SOL     OW86847   9.896   8.528   4.184
28358SOL    HW186848   9.831   8.466   4.217
28358SOL    HW286849   9.980   8.484   4.198
28359SOL     OW86850   9.478  12.285   1.647
28359SOL    HW186851   9.543  12.311   1.713
28359SOL    HW286852   9.492  12.346   1.575
28360SOL     OW86853  11.941   8.514   2.328
28360SOL    HW186854  11.997   8.592   2.328
28360SOL    HW286855  11.852   8.547   2.321
28361SOL     OW86856   2.585   8.447   5.301
28361SOL    HW186857   2.560   8.384   5.369
28361SOL    HW286858   2.667   8.412   5.265
28362SOL     OW86859   6.421   3.886   4.800
28362SOL    HW186860   6.372   3.810   4.769
28362SOL    HW286861   6.508   3.876   4.761
28363SOL     OW86862   8.172   2.082   7.572
28363SOL    HW186863   8.217   2.012   7.620
28363SOL    HW286864   8.131   2.037   7.498
28364SOL     OW86865   5.560   0.208   2.014
28364SOL    HW186866   5.514   0.157   2.081
28364SOL    HW286867   5.493   0.227   1.948
28365SOL     OW86868   0.530  13.927   2.763
28365SOL    HW186869   0.445  13.899   2.731
28365SOL    HW286870   0.511  13.989   2.833
28366SOL     OW86871   6.250   8.302  13.320
28366SOL    HW186872   6.163   8.273  13.348
28366SOL    HW286873   6.272   8.244  13.247
28367SOL     OW86874   2.074   7.812   1.699
28367SOL    HW186875   2.126   7.891   1.715
28367SOL    HW286876   2.120   7.766   1.630
28368SOL     OW86877   5.822   9.551   9.602
28368SOL    HW186878   5.741   9.552   9.652
28368SOL    HW286879   5.828   9.462   9.566
28369SOL     OW86880   2.647   1.130   5.577
28369SOL    HW186881   2.554   1.144   5.559
28369SOL    HW286882   2.693   1.180   5.509
28370SOL     OW86883   9.821  11.238   6.214
28370SOL    HW186884   9.794  11.313   6.267
28370SOL    HW286885   9.913  11.255   6.194
28371SOL     OW86886   1.340  14.025  14.587
28371SOL    HW186887   1.375  13.939  14.565
28371SOL    HW286888   1.245  14.016  14.573
28372SOL     OW86889   5.666   7.129   5.935
28372SOL    HW186890   5.688   7.057   5.876
28372SOL    HW286891   5.586   7.099   5.979
28373SOL     OW86892  11.878  12.167   8.934
28373SOL    HW186893  11.848  12.213   8.855
28373SOL    HW286894  11.830  12.210   9.006
28374SOL     OW86895  10.220   2.968   6.459
28374SOL    HW186896  10.244   2.936   6.372
28374SOL    HW286897  10.263   2.907   6.519
28375SOL     OW86898  10.503   4.591  10.230
28375SOL    HW186899  10.511   4.654  10.303
28375SOL    HW286900  10.588   4.547  10.228
28376SOL     OW86901  12.998   1.185   5.108
28376SOL    HW186902  13.027   1.100   5.074
28376SOL    HW286903  12.925   1.210   5.050
28377SOL     OW86904  10.835  10.518  12.236
28377SOL    HW186905  10.866  10.429  12.216
28377SOL    HW286906  10.753  10.526  12.187
28378SOL     OW86907  14.302  12.256   2.905
28378SOL    HW186908  14.301  12.347   2.937
28378SOL    HW286909  14.255  12.260   2.822
28379SOL     OW86910   0.167   3.934   6.610
28379SOL    HW186911   0.222   3.921   6.533
28379SOL    HW286912   0.226   3.923   6.684
28380SOL     OW86913   2.202  10.626   1.611
28380SOL    HW186914   2.172  10.557   1.670
28380SOL    HW286915   2.206  10.585   1.525
28381SOL     OW86916   0.452  14.798   0.603
28381SOL    HW186917   0.482   0.011   0.604
28381SOL    HW286918   0.379  14.798   0.540
28382SOL     OW86919  13.376   0.571   1.443
28382SOL    HW186920  13.318   0.544   1.514
28382SOL    HW286921  13.327   0.554   1.363
28383SOL     OW86922  12.133   9.997  12.734
28383SOL    HW186923  12.197  10.067  12.751
28383SOL    HW286924  12.118   9.956  12.820
28384SOL     OW86925  14.194   7.364   0.470
28384SOL    HW186926  14.137   7.305   0.421
28384SOL    HW286927  14.217   7.432   0.407
28385SOL     OW86928  12.341   7.646  14.735
28385SOL    HW186929  12.292   7.607  14.807
28385SOL    HW286930  12.281   7.709  14.696
28386SOL     OW86931   4.118  12.479   8.086
28386SOL    HW186932   4.064  12.411   8.127
28386SOL    HW286933   4.116  12.552   8.147
28387SOL     OW86934   3.714  11.507   2.295
28387SOL    HW186935   3.783  11.471   2.351
28387SOL    HW286936   3.678  11.430   2.251
28388SOL     OW86937   0.141   3.991   4.459
28388SOL    HW186938   0.224   3.953   4.487
28388SOL    HW286939   0.075   3.943   4.509
28389SOL     OW86940   9.440   6.363  12.180
28389SOL    HW186941   9.503   6.419  12.136
28389SOL    HW286942   9.490   6.321  12.251
28390SOL     OW86943  11.617  12.445   6.288
28390SOL    HW186944  11.643  12.498   6.213
28390SOL    HW286945  11.679  12.371   6.288
28391SOL     OW86946  14.021   6.081   0.169
28391SOL    HW186947  14.057   6.128   0.244
28391SOL    HW286948  13.940   6.042   0.202
28392SOL     OW86949   5.702   0.115  11.334
28392SOL    HW186950   5.731   0.203  11.358
28392SOL    HW286951   5.672   0.077  11.417
28393SOL     OW86952   5.210   6.735  12.883
28393SOL    HW186953   5.229   6.691  12.966
28393SOL    HW286954   5.296   6.755  12.846
28394SOL     OW86955   2.836  10.658   9.281
28394SOL    HW186956   2.863  10.744   9.250
28394SOL    HW286957   2.806  10.673   9.371
28395SOL     OW86958   5.442   1.280   8.391
28395SOL    HW186959   5.441   1.196   8.345
28395SOL    HW286960   5.383   1.336   8.341
28396SOL     OW86961  10.066  13.449   0.146
28396SOL    HW186962  10.099  13.457   0.235
28396SOL    HW286963   9.986  13.397   0.155
28397SOL     OW86964  10.302  10.086   4.592
28397SOL    HW186965  10.230  10.147   4.576
28397SOL    HW286966  10.258  10.004   4.618
28398SOL     OW86967   3.482   4.186   4.866
28398SOL    HW186968   3.491   4.281   4.869
28398SOL    HW286969   3.569   4.152   4.887
28399SOL     OW86970  10.546   1.468   3.975
28399SOL    HW186971  10.542   1.525   4.052
28399SOL    HW286972  10.521   1.381   4.008
28400SOL     OW86973  13.168  10.619   0.325
28400SOL    HW186974  13.147  10.569   0.246
28400SOL    HW286975  13.121  10.574   0.395
28401SOL     OW86976  10.252  10.364  14.717
28401SOL    HW186977  10.216  10.296  14.774
28401SOL    HW286978  10.247  10.444  14.769
28402SOL     OW86979   4.671   6.854  14.371
28402SOL    HW186980   4.760   6.870  14.342
28402SOL    HW286981   4.674   6.766  14.411
28403SOL     OW86982   4.303   3.777   0.310
28403SOL    HW186983   4.370   3.709   0.317
28403SOL    HW286984   4.274   3.792   0.400
28404SOL     OW86985   3.589   1.316   2.787
28404SOL    HW186986   3.658   1.273   2.838
28404SOL    HW286987   3.597   1.278   2.699
28405SOL     OW86988   4.697   9.439   6.525
28405SOL    HW186989   4.650   9.430   6.608
28405SOL    HW286990   4.773   9.383   6.535
28406SOL     OW86991   4.058   2.950  12.568
28406SOL    HW186992   4.109   3.002  12.630
28406SOL    HW286993   4.099   2.969  12.483
28407SOL     OW86994   3.664   1.431  14.116
28407SOL    HW186995   3.614   1.408  14.195
28407SOL    HW286996   3.670   1.350  14.067
28408SOL     OW86997   7.977   3.835  13.256
28408SOL    HW186998   7.897   3.882  13.281
28408SOL    HW286999   7.996   3.778  13.331
28409SOL     OW87000  13.399   4.802   9.904
28409SOL    HW187001  13.338   4.864   9.864
28409SOL    HW287002  13.441   4.758   9.830
28410SOL     OW87003   8.225   8.320   8.475
28410SOL    HW187004   8.293   8.268   8.517
28410SOL    HW287005   8.210   8.276   8.391
28411SOL     OW87006   2.395  10.402   1.846
28411SOL    HW187007   2.462  10.433   1.906
28411SOL    HW287008   2.430  10.419   1.759
28412SOL     OW87009  12.276   8.939   7.701
28412SOL    HW187010  12.194   8.973   7.667
28412SOL    HW287011  12.303   9.002   7.768
28413SOL     OW87012   9.776   8.502  14.155
28413SOL    HW187013   9.752   8.562  14.085
28413SOL    HW287014   9.868   8.481  14.139
28414SOL     OW87015  11.397   3.802   8.444
28414SOL    HW187016  11.364   3.882   8.484
28414SOL    HW287017  11.431   3.830   8.359
28415SOL     OW87018  10.691   9.060   8.865
28415SOL    HW187019  10.639   9.118   8.921
28415SOL    HW287020  10.713   9.114   8.789
28416SOL     OW87021   2.218   6.231  10.304
28416SOL    HW187022   2.293   6.223  10.364
28416SOL    HW287023   2.169   6.306  10.338
28417SOL     OW87024   5.598   3.982   5.747
28417SOL    HW187025   5.641   3.934   5.676
28417SOL    HW287026   5.660   3.979   5.820
28418SOL     OW87027  10.586  11.347   4.349
28418SOL    HW187028  10.579  11.443   4.352
28418SOL    HW287029  10.510  11.316   4.398
28419SOL     OW87030  13.666   6.843  11.486
28419SOL    HW187031  13.600   6.904  11.453
28419SOL    HW287032  13.738   6.899  11.516
28420SOL     OW87033   4.091   1.440   7.028
28420SOL    HW187034   4.168   1.390   7.000
28420SOL    HW287035   4.024   1.374   7.044
28421SOL     OW87036  11.115   3.944  11.545
28421SOL    HW187037  11.201   3.945  11.586
28421SOL    HW287038  11.057   3.982  11.611
28422SOL     OW87039  12.009   3.090   3.594
28422SOL    HW187040  12.074   3.098   3.524
28422SOL    HW287041  11.928   3.125   3.556
28423SOL     OW87042   3.038   9.432   5.046
28423SOL    HW187043   2.964   9.386   5.007
28423SOL    HW287044   3.089   9.364   5.089
28424SOL     OW87045   4.573  14.461   3.249
28424SOL    HW187046   4.497  14.456   3.191
28424SOL    HW287047   4.578  14.375   3.290
28425SOL     OW87048   1.218  10.850   3.514
28425SOL    HW187049   1.156  10.888   3.576
28425SOL    HW287050   1.174  10.852   3.430
28426SOL     OW87051  14.215   6.701  11.224
28426SOL    HW187052  14.277   6.742  11.164
28426SOL    HW287053  14.252   6.719  11.311
28427SOL     OW87054   7.051  13.362  10.234
28427SOL    HW187055   6.993  13.287  10.245
28427SOL    HW287056   7.084  13.380  10.322
28428SOL     OW87057   9.548  11.278  10.359
28428SOL    HW187058   9.519  11.293  10.450
28428SOL    HW287059   9.599  11.198  10.364
28429SOL     OW87060  13.153   7.929   1.316
28429SOL    HW187061  13.068   7.951   1.279
28429SOL    HW287062  13.216   7.952   1.247
28430SOL     OW87063  13.262   0.720  14.537
28430SOL    HW187064  13.341   0.683  14.500
28430SOL    HW287065  13.219   0.765  14.465
28431SOL     OW87066  12.098   3.003   0.479
28431SOL    HW187067  12.105   2.979   0.386
28431SOL    HW287068  12.016   3.051   0.485
28432SOL     OW87069   5.435   9.799   7.934
28432SOL    HW187070   5.491   9.871   7.904
28432SOL    HW287071   5.444   9.799   8.029
28433SOL     OW87072   0.331   7.104  12.085
28433SOL    HW187073   0.311   7.088  11.993
28433SOL    HW287074   0.422   7.132  12.086
28434SOL     OW87075   4.029   9.696   0.194
28434SOL    HW187076   4.095   9.732   0.136
28434SOL    HW287077   4.061   9.715   0.282
28435SOL     OW87078  11.936  14.220  11.637
28435SOL    HW187079  11.955  14.128  11.621
28435SOL    HW287080  11.840  14.223  11.646
28436SOL     OW87081   5.920   0.047   4.327
28436SOL    HW187082   5.858   0.031   4.256
28436SOL    HW287083   6.000   0.077   4.283
28437SOL     OW87084  13.274   0.991   0.286
28437SOL    HW187085  13.202   0.939   0.322
28437SOL    HW287086  13.352   0.955   0.329
28438SOL     OW87087  10.322  10.137   2.198
28438SOL    HW187088  10.228  10.148   2.180
28438SOL    HW287089  10.331  10.160   2.291
28439SOL     OW87090   1.048  10.577   5.319
28439SOL    HW187091   1.102  10.626   5.256
28439SOL    HW287092   1.016  10.644   5.380
28440SOL     OW87093   8.189   7.261   7.664
28440SOL    HW187094   8.239   7.337   7.636
28440SOL    HW287095   8.248   7.213   7.723
28441SOL     OW87096  12.059   5.018   3.965
28441SOL    HW187097  12.093   5.103   3.994
28441SOL    HW287098  12.067   4.962   4.042
28442SOL     OW87099   5.870   6.468  11.081
28442SOL    HW187100   5.952   6.504  11.049
28442SOL    HW287101   5.888   6.374  11.093
28443SOL     OW87102  11.157   1.648  10.865
28443SOL    HW187103  11.227   1.708  10.894
28443SOL    HW287104  11.187   1.616  10.780
28444SOL     OW87105  14.566   3.074  11.966
28444SOL    HW187106  14.568   3.017  12.042
28444SOL    HW287107  14.658   3.095  11.949
28445SOL     OW87108   2.523  12.139   5.296
28445SOL    HW187109   2.462  12.149   5.369
28445SOL    HW287110   2.607  12.170   5.330
28446SOL     OW87111   1.541   3.646   0.157
28446SOL    HW187112   1.583   3.596   0.226
28446SOL    HW287113   1.596   3.723   0.145
28447SOL     OW87114   5.843   3.179   7.570
28447SOL    HW187115   5.854   3.240   7.643
28447SOL    HW287116   5.874   3.227   7.493
28448SOL     OW87117   0.597   2.584   6.816
28448SOL    HW187118   0.684   2.571   6.777
28448SOL    HW287119   0.553   2.643   6.755
28449SOL     OW87120  12.181   5.043   6.774
28449SOL    HW187121  12.168   5.128   6.817
28449SOL    HW287122  12.214   5.066   6.687
28450SOL     OW87123   5.215  14.180   2.504
28450SOL    HW187124   5.273  14.142   2.570
28450SOL    HW287125   5.253  14.265   2.484
28451SOL     OW87126   1.010   2.727  11.635
28451SOL    HW187127   0.938   2.686  11.588
28451SOL    HW287128   0.979   2.735  11.725
28452SOL     OW87129   9.267   9.572   2.670
28452SOL    HW187130   9.176   9.600   2.669
28452SOL    HW287131   9.291   9.571   2.762
28453SOL     OW87132   3.490   9.477   0.264
28453SOL    HW187133   3.415   9.491   0.322
28453SOL    HW287134   3.524   9.566   0.249
28454SOL     OW87135  12.958   4.564  13.355
28454SOL    HW187136  13.045   4.604  13.356
28454SOL    HW287137  12.974   4.470  13.364
28455SOL     OW87138   1.660  11.487   4.727
28455SOL    HW187139   1.598  11.431   4.774
28455SOL    HW287140   1.607  11.561   4.696
28456SOL     OW87141  10.857   8.835   9.993
28456SOL    HW187142  10.786   8.788   9.949
28456SOL    HW287143  10.844   8.926   9.968
28457SOL     OW87144   1.202   9.633  11.655
28457SOL    HW187145   1.269   9.597  11.714
28457SOL    HW287146   1.173   9.713  11.698
28458SOL     OW87147  12.681   9.620   9.997
28458SOL    HW187148  12.670   9.615  10.092
28458SOL    HW287149  12.595   9.599   9.962
28459SOL     OW87150  10.799   2.174   3.777
28459SOL    HW187151  10.847   2.251   3.807
28459SOL    HW287152  10.866   2.105   3.770
28460SOL     OW87153  11.550  14.292   5.656
28460SOL    HW187154  11.605  14.221   5.624
28460SOL    HW287155  11.607  14.340   5.716
28461SOL     OW87156   4.026   5.553   9.383
28461SOL    HW187157   4.042   5.603   9.303
28461SOL    HW287158   4.073   5.471   9.370
28462SOL     OW87159   9.047   9.189   6.151
28462SOL    HW187160   9.049   9.182   6.055
28462SOL    HW287161   9.083   9.276   6.169
28463SOL     OW87162  12.423   4.408   2.935
28463SOL    HW187163  12.370   4.426   2.858
28463SOL    HW287164  12.373   4.343   2.984
28464SOL     OW87165   6.115   0.576   5.524
28464SOL    HW187166   6.069   0.611   5.448
28464SOL    HW287167   6.053   0.585   5.596
28465SOL     OW87168   9.089   1.700   0.359
28465SOL    HW187169   9.126   1.638   0.421
28465SOL    HW287170   9.006   1.660   0.332
28466SOL     OW87171  13.465   2.741   4.670
28466SOL    HW187172  13.460   2.647   4.652
28466SOL    HW287173  13.497   2.779   4.588
28467SOL     OW87174   9.842   7.151   3.300
28467SOL    HW187175   9.808   7.222   3.355
28467SOL    HW287176   9.767   7.093   3.287
28468SOL     OW87177  10.983  12.296  13.398
28468SOL    HW187178  11.035  12.224  13.364
28468SOL    HW287179  10.910  12.305  13.337
28469SOL     OW87180  11.847  14.355   8.488
28469SOL    HW187181  11.857  14.440   8.444
28469SOL    HW287182  11.906  14.296   8.441
28470SOL     OW87183   6.156  11.191  14.208
28470SOL    HW187184   6.121  11.256  14.269
28470SOL    HW287185   6.204  11.129  14.264
28471SOL     OW87186   1.000  10.192   4.887
28471SOL    HW187187   0.977  10.234   4.804
28471SOL    HW287188   0.965  10.250   4.954
28472SOL     OW87189   8.053   6.426   5.076
28472SOL    HW187190   8.019   6.403   4.990
28472SOL    HW287191   8.137   6.381   5.082
28473SOL     OW87192   7.379  14.097   0.904
28473SOL    HW187193   7.456  14.056   0.943
28473SOL    HW287194   7.378  14.066   0.814
28474SOL     OW87195   1.015  11.903   2.621
28474SOL    HW187196   0.978  11.848   2.552
28474SOL    HW287197   1.098  11.861   2.643
28475SOL     OW87198   1.079   7.521   9.302
28475SOL    HW187199   1.133   7.554   9.374
28475SOL    HW287200   1.065   7.597   9.246
28476SOL     OW87201   3.759  13.577  13.100
28476SOL    HW187202   3.838  13.543  13.141
28476SOL    HW287203   3.694  13.577  13.169
28477SOL     OW87204  11.961  13.572  12.809
28477SOL    HW187205  11.924  13.659  12.792
28477SOL    HW287206  11.926  13.518  12.738
28478SOL     OW87207   5.906  11.732   7.025
28478SOL    HW187208   5.831  11.675   7.006
28478SOL    HW287209   5.907  11.739   7.120
28479SOL     OW87210   5.394   7.167  10.236
28479SOL    HW187211   5.444   7.123  10.167
28479SOL    HW287212   5.414   7.117  10.315
28480SOL     OW87213   9.843   1.480   8.289
28480SOL    HW187214   9.832   1.544   8.360
28480SOL    HW287215   9.923   1.433   8.311
28481SOL     OW87216   1.741   4.279  13.974
28481SOL    HW187217   1.788   4.362  13.978
28481SOL    HW287218   1.803   4.213  14.005
28482SOL     OW87219   3.358   0.305  13.598
28482SOL    HW187220   3.437   0.358  13.594
28482SOL    HW287221   3.375   0.243  13.669
28483SOL     OW87222   7.639   5.310  11.478
28483SOL    HW187223   7.610   5.282  11.392
28483SOL    HW287224   7.568   5.366  11.511
28484SOL     OW87225   9.557  10.364   9.541
28484SOL    HW187226   9.622  10.433   9.550
28484SOL    HW287227   9.562  10.338   9.449
28485SOL     OW87228  11.859   1.000   4.352
28485SOL    HW187229  11.769   1.009   4.384
28485SOL    HW287230  11.870   1.071   4.290
28486SOL     OW87231   7.704   6.870  10.922
28486SOL    HW187232   7.790   6.852  10.959
28486SOL    HW287233   7.723   6.907  10.835
28487SOL     OW87234   0.645   7.901   8.947
28487SOL    HW187235   0.624   7.871   9.036
28487SOL    HW287236   0.673   7.991   8.959
28488SOL     OW87237  13.856  14.106   2.771
28488SOL    HW187238  13.864  14.038   2.837
28488SOL    HW287239  13.794  14.168   2.808
28489SOL     OW87240   7.089   4.450   0.343
28489SOL    HW187241   7.125   4.413   0.262
28489SOL    HW287242   7.068   4.374   0.397
28490SOL     OW87243  13.769   0.880   3.184
28490SOL    HW187244  13.761   0.858   3.277
28490SOL    HW287245  13.805   0.801   3.144
28491SOL     OW87246  13.378   8.140   0.278
28491SOL    HW187247  13.337   8.204   0.336
28491SOL    HW287248  13.387   8.061   0.332
28492SOL     OW87249  14.143   3.982   8.127
28492SOL    HW187250  14.080   4.047   8.158
28492SOL    HW287251  14.110   3.956   8.041
28493SOL     OW87252  11.021   5.028  10.294
28493SOL    HW187253  11.077   5.022  10.372
28493SOL    HW287254  11.076   5.073  10.229
28494SOL     OW87255   5.149   2.762  14.245
28494SOL    HW187256   5.065   2.738  14.283
28494SOL    HW287257   5.161   2.855  14.267
28495SOL     OW87258   0.310  13.841  12.372
28495SOL    HW187259   0.238  13.901  12.393
28495SOL    HW287260   0.303  13.828  12.277
28496SOL     OW87261   8.365  13.869  13.683
28496SOL    HW187262   8.397  13.858  13.593
28496SOL    HW287263   8.318  13.952  13.681
28497SOL     OW87264   5.165   8.723  13.967
28497SOL    HW187265   5.129   8.757  14.049
28497SOL    HW287266   5.257   8.749  13.969
28498SOL     OW87267  13.251   6.165   8.878
28498SOL    HW187268  13.275   6.248   8.836
28498SOL    HW287269  13.163   6.146   8.845
28499SOL     OW87270   9.941   1.869  13.909
28499SOL    HW187271   9.918   1.782  13.875
28499SOL    HW287272  10.030   1.858  13.944
28500SOL     OW87273   7.000   2.050   0.245
28500SOL    HW187274   6.979   1.994   0.320
28500SOL    HW287275   7.046   1.993   0.184
28501SOL     OW87276  13.564   9.205   9.298
28501SOL    HW187277  13.543   9.202   9.205
28501SOL    HW287278  13.482   9.182   9.342
28502SOL     OW87279  12.689  10.446   7.680
28502SOL    HW187280  12.729  10.377   7.734
28502SOL    HW287281  12.730  10.527   7.712
28503SOL     OW87282   4.282  12.838   5.544
28503SOL    HW187283   4.266  12.930   5.564
28503SOL    HW287284   4.304  12.838   5.451
28504SOL     OW87285   7.072   8.477  12.417
28504SOL    HW187286   7.077   8.399  12.472
28504SOL    HW287287   7.108   8.448  12.333
28505SOL     OW87288   8.578  10.945   5.067
28505SOL    HW187289   8.557  10.858   5.032
28505SOL    HW287290   8.668  10.961   5.037
28506SOL     OW87291  10.809   3.599   5.602
28506SOL    HW187292  10.822   3.689   5.574
28506SOL    HW287293  10.889   3.553   5.577
28507SOL     OW87294   0.007   7.419  11.558
28507SOL    HW187295   0.000   7.396  11.465
28507SOL    HW287296  14.801   7.392  11.596
28508SOL     OW87297  14.194   6.226   1.033
28508SOL    HW187298  14.232   6.217   0.946
28508SOL    HW287299  14.151   6.142   1.049
28509SOL     OW87300  12.229   6.117  12.337
28509SOL    HW187301  12.271   6.038  12.303
28509SOL    HW287302  12.147   6.123  12.288
28510SOL     OW87303   0.825  10.695   5.004
28510SOL    HW187304   0.808  10.736   4.919
28510SOL    HW287305   0.823  10.768   5.066
28511SOL     OW87306   0.875  10.257   4.613
28511SOL    HW187307   0.850  10.348   4.628
28511SOL    HW287308   0.801  10.206   4.646
28512SOL     OW87309   1.696   0.415   0.158
28512SOL    HW187310   1.791   0.422   0.149
28512SOL    HW287311   1.661   0.488   0.106
28513SOL     OW87312  13.794  12.636   3.785
28513SOL    HW187313  13.706  12.633   3.748
28513SOL    HW287314  13.820  12.544   3.793
28514SOL     OW87315   7.238   0.827   7.599
28514SOL    HW187316   7.246   0.750   7.655
28514SOL    HW287317   7.144   0.845   7.596
28515SOL     OW87318   7.639   0.423  11.238
28515SOL    HW187319   7.726   0.386  11.248
28515SOL    HW287320   7.586   0.378  11.303
28516SOL     OW87321  10.974   0.696   3.369
28516SOL    HW187322  11.014   0.617   3.408
28516SOL    HW287323  11.033   0.719   3.298
28517SOL     OW87324   0.957   7.386  14.748
28517SOL    HW187325   0.917   7.308  14.708
28517SOL    HW287326   0.905   7.402  14.827
28518SOL     OW87327   5.009  10.383   6.512
28518SOL    HW187328   5.089  10.367   6.462
28518SOL    HW287329   4.978  10.468   6.481
28519SOL     OW87330   9.369   8.662  12.065
28519SOL    HW187331   9.456   8.678  12.103
28519SOL    HW287332   9.312   8.726  12.107
28520SOL     OW87333  12.556   2.205   0.411
28520SOL    HW187334  12.526   2.290   0.381
28520SOL    HW287335  12.592   2.221   0.498
28521SOL     OW87336   9.305   0.312   3.563
28521SOL    HW187337   9.286   0.259   3.486
28521SOL    HW287338   9.298   0.403   3.532
28522SOL     OW87339  10.795   2.932   2.122
28522SOL    HW187340  10.743   2.853   2.137
28522SOL    HW287341  10.858   2.907   2.054
28523SOL     OW87342  12.156   7.853  13.455
28523SOL    HW187343  12.076   7.824  13.412
28523SOL    HW287344  12.169   7.790  13.527
28524SOL     OW87345  12.298  13.888   1.859
28524SOL    HW187346  12.370  13.862   1.917
28524SOL    HW287347  12.295  13.984   1.867
28525SOL     OW87348   2.191   8.197  10.102
28525SOL    HW187349   2.199   8.265  10.035
28525SOL    HW287350   2.180   8.245  10.184
28526SOL     OW87351   5.024   3.968   3.831
28526SOL    HW187352   4.969   3.890   3.828
28526SOL    HW287353   4.974   4.035   3.784
28527SOL     OW87354   3.019   6.397  10.130
28527SOL    HW187355   2.965   6.441  10.064
28527SOL    HW287356   3.017   6.305  10.104
28528SOL     OW87357  14.714   7.448  13.294
28528SOL    HW187358  14.735   7.474  13.383
28528SOL    HW287359  14.770   7.373  13.276
28529SOL     OW87360   2.691   7.877   1.853
28529SOL    HW187361   2.690   7.919   1.939
28529SOL    HW287362   2.707   7.785   1.871
28530SOL     OW87363  12.773   2.108   0.570
28530SOL    HW187364  12.753   2.190   0.615
28530SOL    HW287365  12.711   2.045   0.605
28531SOL     OW87366   6.709   9.124   9.661
28531SOL    HW187367   6.663   9.042   9.644
28531SOL    HW287368   6.717   9.165   9.575
28532SOL     OW87369   4.419  10.341   5.023
28532SOL    HW187370   4.426  10.335   5.118
28532SOL    HW287371   4.327  10.325   5.004
28533SOL     OW87372  13.884  13.057  12.717
28533SOL    HW187373  13.858  12.989  12.779
28533SOL    HW287374  13.944  13.013  12.656
28534SOL     OW87375  13.873   3.092   0.267
28534SOL    HW187376  13.919   3.148   0.205
28534SOL    HW287377  13.939   3.069   0.332
28535SOL     OW87378  13.160   2.637   6.037
28535SOL    HW187379  13.085   2.631   6.096
28535SOL    HW287380  13.176   2.546   6.010
28536SOL     OW87381  11.822   9.764  12.928
28536SOL    HW187382  11.845   9.673  12.910
28536SOL    HW287383  11.905   9.812  12.921
28537SOL     OW87384  10.060   8.545   4.515
28537SOL    HW187385  10.093   8.506   4.434
28537SOL    HW287386  10.131   8.531   4.579
28538SOL     OW87387  13.643  10.179   0.613
28538SOL    HW187388  13.658  10.185   0.707
28538SOL    HW287389  13.699  10.246   0.575
28539SOL     OW87390   3.169   1.322  13.981
28539SOL    HW187391   3.243   1.366  14.023
28539SOL    HW287392   3.205   1.290  13.898
28540SOL     OW87393  10.187   7.154  14.224
28540SOL    HW187394  10.144   7.239  14.230
28540SOL    HW287395  10.210   7.146  14.131
28541SOL     OW87396   1.435  14.511  10.620
28541SOL    HW187397   1.402  14.598  10.595
28541SOL    HW287398   1.421  14.506  10.714
28542SOL     OW87399   4.793   2.820   6.252
28542SOL    HW187400   4.873   2.771   6.233
28542SOL    HW287401   4.728   2.752   6.273
28543SOL     OW87402  12.177   4.351  11.873
28543SOL    HW187403  12.225   4.422  11.916
28543SOL    HW287404  12.121   4.315  11.941
28544SOL     OW87405   6.768   0.700   9.668
28544SOL    HW187406   6.733   0.785   9.644
28544SOL    HW287407   6.795   0.660   9.586
28545SOL     OW87408   6.396   4.141   6.830
28545SOL    HW187409   6.419   4.125   6.921
28545SOL    HW287410   6.312   4.097   6.819
28546SOL     OW87411   6.832  10.066   7.223
28546SOL    HW187412   6.772   9.996   7.197
28546SOL    HW287413   6.889  10.078   7.146
28547SOL     OW87414   2.610   2.011   1.834
28547SOL    HW187415   2.583   2.083   1.892
28547SOL    HW287416   2.597   1.932   1.886
28548SOL     OW87417   6.162   5.583   8.277
28548SOL    HW187418   6.132   5.495   8.301
28548SOL    HW287419   6.115   5.642   8.335
28549SOL     OW87420  14.821  14.372   5.043
28549SOL    HW187421  14.758  14.303   5.066
28549SOL    HW287422  14.781  14.419   4.971
28550SOL     OW87423   3.204   0.904   1.105
28550SOL    HW187424   3.135   0.970   1.102
28550SOL    HW287425   3.159   0.820   1.095
28551SOL     OW87426   9.428  11.723   5.363
28551SOL    HW187427   9.351  11.779   5.374
28551SOL    HW287428   9.403  11.662   5.293
28552SOL     OW87429   6.124   5.868  13.909
28552SOL    HW187430   6.174   5.825  13.840
28552SOL    HW287431   6.131   5.809  13.984
28553SOL     OW87432   7.510   1.858  13.689
28553SOL    HW187433   7.553   1.900  13.614
28553SOL    HW287434   7.425   1.902  13.696
28554SOL     OW87435  13.839   1.343  12.952
28554SOL    HW187436  13.758   1.308  12.916
28554SOL    HW287437  13.900   1.345  12.878
28555SOL     OW87438   0.245  14.502  12.429
28555SOL    HW187439   0.314  14.460  12.378
28555SOL    HW287440   0.167  14.496  12.373
28556SOL     OW87441  12.492   4.577   2.275
28556SOL    HW187442  12.518   4.570   2.183
28556SOL    HW287443  12.536   4.655   2.307
28557SOL     OW87444   2.927  10.086  10.116
28557SOL    HW187445   2.943  10.028  10.042
28557SOL    HW287446   2.984  10.053  10.185
28558SOL     OW87447   0.740   7.994   0.267
28558SOL    HW187448   0.681   7.922   0.248
28558SOL    HW287449   0.717   8.061   0.203
28559SOL     OW87450  13.402  14.317   8.685
28559SOL    HW187451  13.329  14.313   8.746
28559SOL    HW287452  13.478  14.287   8.736
28560SOL     OW87453   5.927  12.216   4.673
28560SOL    HW187454   6.023  12.220   4.678
28560SOL    HW287455   5.897  12.294   4.720
28561SOL     OW87456  10.032   9.904  14.494
28561SOL    HW187457  10.123   9.923  14.470
28561SOL    HW287458  10.031   9.809  14.506
28562SOL     OW87459   9.358   7.077   8.793
28562SOL    HW187460   9.426   7.064   8.859
28562SOL    HW287461   9.400   7.057   8.710
28563SOL     OW87462   7.298  13.972   9.932
28563SOL    HW187463   7.320  13.942  10.020
28563SOL    HW287464   7.235  14.043   9.946
28564SOL     OW87465   3.381  11.964  11.416
28564SOL    HW187466   3.465  12.007  11.427
28564SOL    HW287467   3.346  11.955  11.504
28565SOL     OW87468   9.668  14.673   8.691
28565SOL    HW187469   9.584  14.649   8.653
28565SOL    HW287470   9.684  14.606   8.757
28566SOL     OW87471   4.474  11.675   4.140
28566SOL    HW187472   4.382  11.650   4.130
28566SOL    HW287473   4.517  11.638   4.063
28567SOL     OW87474  12.327   3.285  12.124
28567SOL    HW187475  12.369   3.223  12.182
28567SOL    HW287476  12.249   3.240  12.093
28568SOL     OW87477   5.858   8.252   4.802
28568SOL    HW187478   5.814   8.271   4.719
28568SOL    HW287479   5.802   8.292   4.868
28569SOL     OW87480  13.238   5.534  12.450
28569SOL    HW187481  13.190   5.476  12.390
28569SOL    HW287482  13.270   5.476  12.519
28570SOL     OW87483   7.909   4.479   2.666
28570SOL    HW187484   7.817   4.505   2.667
28570SOL    HW287485   7.911   4.394   2.710
28571SOL     OW87486   6.672   2.006   7.146
28571SOL    HW187487   6.604   1.980   7.208
28571SOL    HW287488   6.639   2.087   7.107
28572SOL     OW87489   4.612   5.032  10.167
28572SOL    HW187490   4.698   5.059  10.200
28572SOL    HW287491   4.557   5.029  10.244
28573SOL     OW87492   6.627   5.083   3.423
28573SOL    HW187493   6.643   4.988   3.424
28573SOL    HW287494   6.635   5.109   3.515
28574SOL     OW87495   2.042   1.064   1.651
28574SOL    HW187496   2.045   0.978   1.692
28574SOL    HW287497   2.054   1.126   1.724
28575SOL     OW87498   8.200  12.929   8.229
28575SOL    HW187499   8.193  12.875   8.151
28575SOL    HW287500   8.109  12.945   8.256
28576SOL     OW87501   1.095  12.862  11.665
28576SOL    HW187502   1.005  12.831  11.657
28576SOL    HW287503   1.144  12.784  11.692
28577SOL     OW87504  10.729   0.391  11.058
28577SOL    HW187505  10.756   0.363  11.145
28577SOL    HW287506  10.770   0.328  10.999
28578SOL     OW87507   2.970   7.395   7.118
28578SOL    HW187508   3.037   7.333   7.146
28578SOL    HW287509   3.015   7.454   7.058
28579SOL     OW87510   8.059  14.225   0.705
28579SOL    HW187511   8.136  14.199   0.756
28579SOL    HW287512   7.998  14.152   0.715
28580SOL     OW87513  11.609   3.791   5.275
28580SOL    HW187514  11.649   3.876   5.296
28580SOL    HW287515  11.543   3.778   5.342
28581SOL     OW87516   8.709   2.527   5.363
28581SOL    HW187517   8.747   2.580   5.294
28581SOL    HW287518   8.632   2.486   5.323
28582SOL     OW87519   3.538  14.872   5.879
28582SOL    HW187520   3.525  14.811   5.951
28582SOL    HW287521   3.631  14.863   5.857
28583SOL     OW87522   9.070  12.331   5.226
28583SOL    HW187523   9.136  12.300   5.288
28583SOL    HW287524   9.112  12.324   5.141
28584SOL     OW87525   0.830  10.282  14.336
28584SOL    HW187526   0.771  10.244  14.272
28584SOL    HW287527   0.895  10.214  14.353
28585SOL     OW87528   9.751  12.965  11.902
28585SOL    HW187529   9.710  12.881  11.884
28585SOL    HW287530   9.777  12.960  11.995
28586SOL     OW87531   5.089   0.770   9.708
28586SOL    HW187532   5.154   0.771   9.779
28586SOL    HW287533   5.105   0.852   9.661
28587SOL     OW87534   5.579  13.774  11.658
28587SOL    HW187535   5.510  13.835  11.686
28587SOL    HW287536   5.609  13.808  11.574
28588SOL     OW87537   5.605   2.960   6.860
28588SOL    HW187538   5.690   3.000   6.878
28588SOL    HW287539   5.575   2.927   6.945
28589SOL     OW87540  10.413   6.817   0.490
28589SOL    HW187541  10.342   6.777   0.540
28589SOL    HW287542  10.386   6.807   0.399
28590SOL     OW87543   2.703  11.036   4.567
28590SOL    HW187544   2.778  10.976   4.560
28590SOL    HW287545   2.696  11.053   4.661
28591SOL     OW87546   1.122   8.829  10.288
28591SOL    HW187547   1.106   8.861  10.199
28591SOL    HW287548   1.035   8.825  10.327
28592SOL     OW87549   6.685  10.092   5.429
28592SOL    HW187550   6.725  10.063   5.347
28592SOL    HW287551   6.646  10.013   5.466
28593SOL     OW87552  12.844   8.648   0.491
28593SOL    HW187553  12.898   8.698   0.552
28593SOL    HW287554  12.802   8.714   0.436
28594SOL     OW87555  11.525   8.371  14.071
28594SOL    HW187556  11.572   8.431  14.128
28594SOL    HW287557  11.589   8.346  14.004
28595SOL     OW87558   6.478   1.057   9.338
28595SOL    HW187559   6.552   1.005   9.305
28595SOL    HW287560   6.403   1.026   9.287
28596SOL     OW87561  12.021   3.602   7.954
28596SOL    HW187562  12.044   3.515   7.986
28596SOL    HW287563  11.927   3.596   7.934
28597SOL     OW87564   2.152   9.076  10.873
28597SOL    HW187565   2.166   9.094  10.781
28597SOL    HW287566   2.216   9.130  10.919
28598SOL     OW87567   5.732   2.506   1.567
28598SOL    HW187568   5.640   2.534   1.570
28598SOL    HW287569   5.736   2.433   1.629
28599SOL     OW87570  10.829   3.883   6.467
28599SOL    HW187571  10.823   3.800   6.515
28599SOL    HW287572  10.742   3.896   6.431
28600SOL     OW87573   7.447   8.881   4.951
28600SOL    HW187574   7.470   8.956   5.006
28600SOL    HW287575   7.373   8.841   4.996
28601SOL     OW87576   7.330   2.981  11.552
28601SOL    HW187577   7.242   2.942  11.555
28601SOL    HW287578   7.385   2.920  11.600
28602SOL     OW87579  10.668   6.437  10.117
28602SOL    HW187580  10.648   6.401  10.203
28602SOL    HW287581  10.619   6.519  10.113
28603SOL     OW87582   6.785   3.801   5.733
28603SOL    HW187583   6.793   3.896   5.734
28603SOL    HW287584   6.726   3.781   5.806
28604SOL     OW87585   2.980   7.468  14.257
28604SOL    HW187586   3.063   7.511  14.278
28604SOL    HW287587   2.982   7.458  14.162
28605SOL     OW87588   0.258   7.806   2.457
28605SOL    HW187589   0.198   7.788   2.529
28605SOL    HW287590   0.307   7.883   2.485
28606SOL     OW87591   3.558   8.169   6.341
28606SOL    HW187592   3.596   8.191   6.256
28606SOL    HW287593   3.561   8.251   6.391
28607SOL     OW87594   7.723   4.385   3.251
28607SOL    HW187595   7.774   4.424   3.323
28607SOL    HW287596   7.785   4.328   3.206
28608SOL     OW87597   1.394   5.302   7.533
28608SOL    HW187598   1.463   5.362   7.561
28608SOL    HW287599   1.376   5.248   7.610
28609SOL     OW87600   3.794   0.363   7.669
28609SOL    HW187601   3.813   0.270   7.654
28609SOL    HW287602   3.852   0.410   7.610
28610SOL     OW87603  12.248   2.327   6.958
28610SOL    HW187604  12.208   2.272   6.890
28610SOL    HW287605  12.277   2.406   6.911
28611SOL     OW87606   1.895  12.634   2.694
28611SOL    HW187607   1.917  12.545   2.723
28611SOL    HW287608   1.808  12.650   2.731
28612SOL     OW87609  11.282   0.338   8.897
28612SOL    HW187610  11.236   0.256   8.883
28612SOL    HW287611  11.260   0.364   8.986
28613SOL     OW87612  11.369  11.565  11.167
28613SOL    HW187613  11.382  11.502  11.096
28613SOL    HW287614  11.294  11.617  11.140
28614SOL     OW87615   1.906   3.985  11.961
28614SOL    HW187616   1.935   3.905  12.005
28614SOL    HW287617   1.925   4.055  12.023
28615SOL     OW87618   2.734  12.486   5.690
28615SOL    HW187619   2.698  12.573   5.674
28615SOL    HW287620   2.681  12.452   5.763
28616SOL     OW87621   3.986   7.223  14.351
28616SOL    HW187622   4.075   7.206  14.383
28616SOL    HW287623   3.946   7.136  14.344
28617SOL     OW87624  12.061   5.275  13.658
28617SOL    HW187625  12.121   5.344  13.687
28617SOL    HW287626  11.975   5.304  13.689
28618SOL     OW87627  10.421   6.926   9.030
28618SOL    HW187628  10.327   6.934   9.044
28618SOL    HW287629  10.442   6.997   8.969
28619SOL     OW87630  14.169   2.154  12.924
28619SOL    HW187631  14.206   2.231  12.880
28619SOL    HW287632  14.245   2.097  12.940
28620SOL     OW87633   2.513  12.122   1.696
28620SOL    HW187634   2.556  12.206   1.677
28620SOL    HW287635   2.582  12.068   1.735
28621SOL     OW87636   6.399   4.335   5.265
28621SOL    HW187637   6.404   4.241   5.283
28621SOL    HW287638   6.350   4.340   5.182
28622SOL     OW87639   0.508  10.146   5.495
28622SOL    HW187640   0.495  10.235   5.464
28622SOL    HW287641   0.580  10.112   5.442
28623SOL     OW87642   1.997   5.732   3.426
28623SOL    HW187643   2.089   5.714   3.446
28623SOL    HW287644   1.951   5.709   3.507
28624SOL     OW87645   5.004  11.096   1.946
28624SOL    HW187646   5.036  11.071   1.859
28624SOL    HW287647   5.060  11.048   2.007
28625SOL     OW87648  12.650  12.077   0.755
28625SOL    HW187649  12.665  12.119   0.670
28625SOL    HW287650  12.562  12.041   0.749
28626SOL     OW87651   8.563   5.124  12.318
28626SOL    HW187652   8.627   5.053  12.329
28626SOL    HW287653   8.566   5.172  12.401
28627SOL     OW87654  12.136   7.801  12.035
28627SOL    HW187655  12.061   7.846  12.074
28627SOL    HW287656  12.112   7.708  12.038
28628SOL     OW87657   6.472   3.373   5.216
28628SOL    HW187658   6.399   3.314   5.234
28628SOL    HW287659   6.482   3.424   5.297
28629SOL     OW87660  13.230   7.292   3.719
28629SOL    HW187661  13.268   7.321   3.636
28629SOL    HW287662  13.164   7.359   3.740
28630SOL     OW87663   5.954   3.553  10.408
28630SOL    HW187664   6.039   3.521  10.379
28630SOL    HW287665   5.945   3.639  10.366
28631SOL     OW87666   5.448   6.101   7.038
28631SOL    HW187667   5.494   6.122   6.956
28631SOL    HW287668   5.463   6.007   7.050
28632SOL     OW87669   1.571   6.138   3.652
28632SOL    HW187670   1.564   6.121   3.558
28632SOL    HW287671   1.486   6.115   3.688
28633SOL     OW87672   6.154   2.323   4.254
28633SOL    HW187673   6.104   2.394   4.215
28633SOL    HW287674   6.159   2.257   4.184
28634SOL     OW87675   0.678   6.243   3.849
28634SOL    HW187676   0.739   6.211   3.782
28634SOL    HW287677   0.734   6.261   3.925
28635SOL     OW87678   6.976  10.898   5.049
28635SOL    HW187679   6.887  10.877   5.079
28635SOL    HW287680   7.029  10.895   5.129
28636SOL     OW87681   3.861  11.446  12.773
28636SOL    HW187682   3.939  11.442  12.718
28636SOL    HW287683   3.894  11.435  12.862
28637SOL     OW87684   6.024   9.261   1.259
28637SOL    HW187685   5.977   9.179   1.276
28637SOL    HW287686   5.954   9.326   1.248
28638SOL     OW87687   4.963   6.296  11.296
28638SOL    HW187688   4.884   6.242  11.283
28638SOL    HW287689   4.978   6.338  11.212
28639SOL     OW87690  10.665   6.240   4.823
28639SOL    HW187691  10.756   6.211   4.833
28639SOL    HW287692  10.668   6.303   4.751
28640SOL     OW87693   7.184   7.339   9.581
28640SOL    HW187694   7.115   7.405   9.575
28640SOL    HW287695   7.147   7.261   9.539
28641SOL     OW87696   1.443   2.171   3.271
28641SOL    HW187697   1.504   2.211   3.334
28641SOL    HW287698   1.394   2.107   3.323
28642SOL     OW87699  14.247   3.776   3.206
28642SOL    HW187700  14.217   3.765   3.297
28642SOL    HW287701  14.254   3.686   3.173
28643SOL     OW87702  14.133   7.321   3.532
28643SOL    HW187703  14.061   7.259   3.523
28643SOL    HW287704  14.100   7.402   3.495
28644SOL     OW87705   6.267   0.899   1.457
28644SOL    HW187706   6.219   0.977   1.483
28644SOL    HW287707   6.201   0.829   1.458
28645SOL     OW87708   8.609   1.450  10.644
28645SOL    HW187709   8.677   1.418  10.704
28645SOL    HW287710   8.527   1.424  10.684
28646SOL     OW87711   2.277  12.832   4.954
28646SOL    HW187712   2.227  12.790   4.884
28646SOL    HW287713   2.324  12.761   4.997
28647SOL     OW87714   0.367  11.082   5.862
28647SOL    HW187715   0.353  10.997   5.821
28647SOL    HW287716   0.293  11.092   5.922
28648SOL     OW87717  12.322   3.197  14.848
28648SOL    HW187718  12.345   3.281  14.809
28648SOL    HW287719  12.259   3.219   0.040
28649SOL     OW87720   6.380   2.417   7.714
28649SOL    HW187721   6.334   2.334   7.721
28649SOL    HW287722   6.442   2.416   7.787
28650SOL     OW87723  10.848   7.663  11.705
28650SOL    HW187724  10.854   7.743  11.756
28650SOL    HW287725  10.793   7.605  11.757
28651SOL     OW87726   2.382   2.526  14.366
28651SOL    HW187727   2.368   2.499  14.276
28651SOL    HW287728   2.391   2.444  14.415
28652SOL     OW87729   0.810  13.065  13.560
28652SOL    HW187730   0.805  13.075  13.655
28652SOL    HW287731   0.728  13.103  13.528
28653SOL     OW87732   2.255  10.049  13.387
28653SOL    HW187733   2.239  10.018  13.476
28653SOL    HW287734   2.226  10.141  13.388
28654SOL     OW87735  11.393   0.173   4.147
28654SOL    HW187736  11.328   0.176   4.077
28654SOL    HW287737  11.418   0.264   4.161
28655SOL     OW87738   3.452   3.682  10.824
28655SOL    HW187739   3.442   3.773  10.794
28655SOL    HW287740   3.427   3.685  10.916
28656SOL     OW87741  10.356  10.541   5.484
28656SOL    HW187742  10.370  10.448   5.470
28656SOL    HW287743  10.286  10.564   5.422
28657SOL     OW87744   2.718  14.793   8.897
28657SOL    HW187745   2.644  14.733   8.888
28657SOL    HW287746   2.694  14.849   8.971
28658SOL     OW87747   0.056   5.326   6.327
28658SOL    HW187748   0.074   5.357   6.239
28658SOL    HW287749   0.019   5.238   6.315
28659SOL     OW87750  13.358  12.161   4.840
28659SOL    HW187751  13.325  12.188   4.926
28659SOL    HW287752  13.298  12.093   4.811
28660SOL     OW87753  14.057   6.726   3.309
28660SOL    HW187754  14.132   6.784   3.295
28660SOL    HW287755  13.998   6.746   3.237
28661SOL     OW87756  12.183  14.593  11.362
28661SOL    HW187757  12.229  14.538  11.426
28661SOL    HW287758  12.241  14.668  11.349
28662SOL     OW87759  10.776  11.250   5.284
28662SOL    HW187760  10.836  11.262   5.210
28662SOL    HW287761  10.830  11.216   5.354
28663SOL     OW87762  12.394  10.368   1.565
28663SOL    HW187763  12.322  10.338   1.510
28663SOL    HW287764  12.417  10.293   1.619
28664SOL     OW87765  12.927  10.230   0.681
28664SOL    HW187766  12.950  10.238   0.774
28664SOL    HW287767  13.005  10.260   0.634
28665SOL     OW87768  12.468   0.145   7.499
28665SOL    HW187769  12.380   0.180   7.508
28665SOL    HW287770  12.519   0.191   7.566
28666SOL     OW87771   0.999  14.225   0.456
28666SOL    HW187772   1.083  14.179   0.448
28666SOL    HW287773   1.006  14.299   0.396
28667SOL     OW87774   1.003   0.514   5.846
28667SOL    HW187775   0.990   0.598   5.890
28667SOL    HW287776   1.057   0.463   5.906
28668SOL     OW87777   0.648   8.501   3.282
28668SOL    HW187778   0.643   8.596   3.294
28668SOL    HW287779   0.681   8.468   3.366
28669SOL     OW87780  10.014   3.475   4.299
28669SOL    HW187781   9.957   3.517   4.364
28669SOL    HW287782  10.052   3.401   4.345
28670SOL     OW87783   2.334  14.257   4.115
28670SOL    HW187784   2.293  14.338   4.087
28670SOL    HW287785   2.386  14.282   4.192
28671SOL     OW87786  10.856   5.772   0.688
28671SOL    HW187787  10.946   5.765   0.654
28671SOL    HW287788  10.867   5.776   0.783
28672SOL     OW87789   0.802   0.320   1.805
28672SOL    HW187790   0.762   0.260   1.742
28672SOL    HW287791   0.836   0.263   1.874
28673SOL     OW87792   0.743  11.861  13.378
28673SOL    HW187793   0.759  11.775  13.341
28673SOL    HW287794   0.785  11.858  13.464
28674SOL     OW87795   4.446   8.161  14.087
28674SOL    HW187796   4.520   8.123  14.135
28674SOL    HW287797   4.449   8.254  14.110
28675SOL     OW87798  10.034  11.317   8.307
28675SOL    HW187799  10.000  11.406   8.297
28675SOL    HW287800  10.106  11.326   8.369
28676SOL     OW87801   4.324   4.230   4.190
28676SOL    HW187802   4.293   4.206   4.277
28676SOL    HW287803   4.394   4.167   4.171
28677SOL     OW87804   1.435   7.040   3.973
28677SOL    HW187805   1.344   7.012   3.980
28677SOL    HW287806   1.431   7.122   3.924
28678SOL     OW87807  10.408  14.653   6.081
28678SOL    HW187808  10.423  14.639   6.174
28678SOL    HW287809  10.315  14.634   6.068
28679SOL     OW87810   2.220  13.633  14.676
28679SOL    HW187811   2.228  13.695  14.748
28679SOL    HW287812   2.306  13.592  14.670
28680SOL     OW87813  13.053   7.456   6.067
28680SOL    HW187814  12.970   7.415   6.092
28680SOL    HW287815  13.119   7.394   6.097
28681SOL     OW87816   5.189   6.657  10.852
28681SOL    HW187817   5.220   6.653  10.942
28681SOL    HW287818   5.262   6.694  10.802
28682SOL     OW87819  12.074   5.685  11.737
28682SOL    HW187820  11.984   5.674  11.706
28682SOL    HW287821  12.105   5.597  11.753
28683SOL     OW87822  11.166   6.432   5.477
28683SOL    HW187823  11.169   6.430   5.382
28683SOL    HW287824  11.128   6.518   5.498
28684SOL     OW87825   8.268   5.363   5.648
28684SOL    HW187826   8.245   5.455   5.633
28684SOL    HW287827   8.323   5.340   5.573
28685SOL     OW87828  10.903  14.710  12.229
28685SOL    HW187829  10.844  14.665  12.168
28685SOL    HW287830  10.894  14.803  12.208
28686SOL     OW87831   4.141   5.444   0.801
28686SOL    HW187832   4.128   5.355   0.768
28686SOL    HW287833   4.053   5.479   0.813
28687SOL     OW87834  10.254   1.207  10.778
28687SOL    HW187835  10.185   1.201  10.843
28687SOL    HW287836  10.311   1.277  10.809
28688SOL     OW87837  11.077   7.632   7.261
28688SOL    HW187838  11.150   7.694   7.266
28688SOL    HW287839  11.115   7.549   7.289
28689SOL     OW87840   7.133   5.086   7.512
28689SOL    HW187841   7.228   5.081   7.502
28689SOL    HW287842   7.106   4.995   7.528
28690SOL     OW87843   1.843   4.429   8.247
28690SOL    HW187844   1.750   4.435   8.270
28690SOL    HW287845   1.884   4.500   8.296
28691SOL     OW87846   1.956   6.289   2.512
28691SOL    HW187847   1.978   6.259   2.600
28691SOL    HW287848   1.933   6.381   2.523
28692SOL     OW87849   4.457  11.987   3.096
28692SOL    HW187850   4.461  12.081   3.079
28692SOL    HW287851   4.502  11.948   3.022
28693SOL     OW87852   5.499   7.626  10.375
28693SOL    HW187853   5.408   7.644  10.398
28693SOL    HW287854   5.501   7.628  10.279
28694SOL     OW87855   2.680   6.194   1.745
28694SOL    HW187856   2.697   6.151   1.829
28694SOL    HW287857   2.629   6.129   1.696
28695SOL     OW87858  12.567  10.191   9.838
28695SOL    HW187859  12.663  10.199   9.844
28695SOL    HW287860  12.539  10.167   9.926
28696SOL     OW87861   8.024   2.360   2.851
28696SOL    HW187862   8.031   2.276   2.806
28696SOL    HW287863   7.984   2.418   2.786
28697SOL     OW87864   0.031  13.770  14.443
28697SOL    HW187865  14.842  13.735  14.383
28697SOL    HW287866   0.095  13.813  14.386
28698SOL     OW87867  14.448   3.179  12.582
28698SOL    HW187868  14.531   3.226  12.592
28698SOL    HW287869  14.390   3.240  12.538
28699SOL     OW87870  14.271   5.582  12.794
28699SOL    HW187871  14.350   5.533  12.818
28699SOL    HW287872  14.295   5.631  12.716
28700SOL     OW87873   9.241   9.230   5.257
28700SOL    HW187874   9.271   9.143   5.234
28700SOL    HW287875   9.218   9.225   5.350
28701SOL     OW87876   6.445  11.703   4.512
28701SOL    HW187877   6.493  11.646   4.452
28701SOL    HW287878   6.409  11.772   4.456
28702SOL     OW87879   1.021   7.124   4.530
28702SOL    HW187880   0.927   7.123   4.550
28702SOL    HW287881   1.036   7.207   4.486
28703SOL     OW87882  13.721  13.664   0.388
28703SOL    HW187883  13.788  13.727   0.414
28703SOL    HW287884  13.714  13.674   0.294
28704SOL     OW87885   2.090   2.631   6.983
28704SOL    HW187886   2.097   2.569   7.055
28704SOL    HW287887   2.037   2.586   6.917
28705SOL     OW87888  14.156  13.541   3.121
28705SOL    HW187889  14.191  13.453   3.133
28705SOL    HW287890  14.105  13.558   3.200
28706SOL     OW87891   1.721  14.184   9.716
28706SOL    HW187892   1.666  14.107   9.698
28706SOL    HW287893   1.700  14.207   9.806
28707SOL     OW87894  12.030  13.015  14.226
28707SOL    HW187895  12.126  13.023  14.227
28707SOL    HW287896  11.999  13.096  14.186
28708SOL     OW87897   0.121  11.868   7.428
28708SOL    HW187898   0.212  11.895   7.414
28708SOL    HW287899   0.122  11.774   7.413
28709SOL     OW87900   7.636   6.703  14.601
28709SOL    HW187901   7.582   6.631  14.634
28709SOL    HW287902   7.636   6.692  14.506
28710SOL     OW87903   0.951   4.070  13.298
28710SOL    HW187904   0.909   4.001  13.248
28710SOL    HW287905   1.030   4.092  13.248
28711SOL     OW87906   3.813   0.649   9.905
28711SOL    HW187907   3.797   0.709   9.978
28711SOL    HW287908   3.743   0.668   9.843
28712SOL     OW87909   9.170   4.833   8.577
28712SOL    HW187910   9.104   4.900   8.562
28712SOL    HW287911   9.221   4.830   8.496
28713SOL     OW87912   3.923   1.567   7.930
28713SOL    HW187913   4.018   1.574   7.939
28713SOL    HW287914   3.905   1.473   7.932
28714SOL     OW87915  12.115   4.552  10.675
28714SOL    HW187916  12.106   4.601  10.592
28714SOL    HW287917  12.028   4.514  10.690
28715SOL     OW87918   0.908   8.154   2.486
28715SOL    HW187919   0.999   8.161   2.514
28715SOL    HW287920   0.867   8.096   2.550
28716SOL     OW87921   3.376   7.988  11.574
28716SOL    HW187922   3.426   7.944  11.506
28716SOL    HW287923   3.436   7.991  11.650
28717SOL     OW87924   5.506   3.744   5.549
28717SOL    HW187925   5.452   3.800   5.605
28717SOL    HW287926   5.544   3.804   5.485
28718SOL     OW87927  12.502   3.850  12.493
28718SOL    HW187928  12.459   3.932  12.473
28718SOL    HW287929  12.596   3.868  12.483
28719SOL     OW87930   4.137   8.520   4.233
28719SOL    HW187931   4.064   8.517   4.295
28719SOL    HW287932   4.160   8.429   4.217
28720SOL     OW87933   6.729  13.550  14.011
28720SOL    HW187934   6.642  13.577  14.040
28720SOL    HW287935   6.763  13.625  13.963
28721SOL     OW87936   4.025   3.597   3.797
28721SOL    HW187937   4.060   3.542   3.726
28721SOL    HW287938   4.097   3.603   3.860
28722SOL     OW87939   4.612   3.084   8.344
28722SOL    HW187940   4.569   3.038   8.417
28722SOL    HW287941   4.561   3.059   8.267
28723SOL     OW87942   0.056   4.856  13.011
28723SOL    HW187943   0.150   4.837  13.001
28723SOL    HW287944   0.042   4.856  13.106
28724SOL     OW87945   5.252  11.385  12.046
28724SOL    HW187946   5.174  11.389  11.991
28724SOL    HW287947   5.284  11.295  12.037
28725SOL     OW87948   0.194   7.803  12.264
28725SOL    HW187949   0.182   7.708  12.263
28725SOL    HW287950   0.138   7.836  12.194
28726SOL     OW87951  13.129  10.403   2.082
28726SOL    HW187952  13.125  10.389   2.176
28726SOL    HW287953  13.222  10.416   2.064
28727SOL     OW87954   6.961   5.996   1.184
28727SOL    HW187955   6.869   5.976   1.199
28727SOL    HW287956   6.962   6.043   1.100
28728SOL     OW87957   4.341   4.008  12.399
28728SOL    HW187958   4.413   3.958  12.437
28728SOL    HW287959   4.262   3.968  12.435
28729SOL     OW87960   3.883  13.290   8.647
28729SOL    HW187961   3.860  13.296   8.554
28729SOL    HW287962   3.829  13.357   8.689
28730SOL     OW87963   1.420   6.638  13.702
28730SOL    HW187964   1.453   6.724  13.727
28730SOL    HW287965   1.422   6.586  13.783
28731SOL     OW87966   7.057   0.480   0.684
28731SOL    HW187967   7.034   0.465   0.775
28731SOL    HW287968   6.974   0.483   0.638
28732SOL     OW87969  13.284   3.379   8.541
28732SOL    HW187970  13.310   3.458   8.495
28732SOL    HW287971  13.281   3.312   8.473
28733SOL     OW87972  11.710   1.058   8.428
28733SOL    HW187973  11.686   1.073   8.336
28733SOL    HW287974  11.633   1.086   8.477
28734SOL     OW87975   1.787  11.869   6.585
28734SOL    HW187976   1.756  11.944   6.535
28734SOL    HW287977   1.881  11.885   6.598
28735SOL     OW87978   1.759  13.318   4.376
28735SOL    HW187979   1.692  13.250   4.368
28735SOL    HW287980   1.790  13.332   4.286
28736SOL     OW87981   0.366  11.531   7.171
28736SOL    HW187982   0.306  11.477   7.119
28736SOL    HW287983   0.326  11.618   7.172
28737SOL     OW87984   6.414   2.165  13.633
28737SOL    HW187985   6.322   2.190  13.644
28737SOL    HW287986   6.411   2.072  13.608
28738SOL     OW87987  11.722   1.163   2.763
28738SOL    HW187988  11.718   1.142   2.856
28738SOL    HW287989  11.730   1.078   2.719
28739SOL     OW87990   2.833  13.155   2.716
28739SOL    HW187991   2.914  13.148   2.766
28739SOL    HW287992   2.858  13.201   2.636
28740SOL     OW87993  10.808  12.404   2.936
28740SOL    HW187994  10.746  12.365   2.875
28740SOL    HW287995  10.754  12.453   2.998
28741SOL     OW87996   3.124   3.052   8.901
28741SOL    HW187997   3.119   3.092   8.987
28741SOL    HW287998   3.075   2.970   8.910
28742SOL     OW87999  14.763   0.056   6.014
28742SOL    HW188000  14.822   0.014   6.076
28742SOL    HW288001  14.677   0.055   6.057
28743SOL     OW88002  14.046  13.576   9.037
28743SOL    HW188003  13.983  13.530   9.093
28743SOL    HW288004  14.012  13.566   8.948
28744SOL     OW88005  11.551   9.717   4.939
28744SOL    HW188006  11.632   9.694   4.984
28744SOL    HW288007  11.579   9.775   4.868
28745SOL     OW88008   5.453   7.420   0.240
28745SOL    HW188009   5.521   7.484   0.261
28745SOL    HW288010   5.412   7.454   0.161
28746SOL     OW88011   7.710   3.571  13.083
28746SOL    HW188012   7.715   3.485  13.042
28746SOL    HW288013   7.781   3.570  13.148
28747SOL     OW88014   6.918  11.036   4.216
28747SOL    HW188015   7.004  11.051   4.178
28747SOL    HW288016   6.921  11.081   4.301
28748SOL     OW88017  13.576   5.323  11.283
28748SOL    HW188018  13.591   5.229  11.284
28748SOL    HW288019  13.627   5.355  11.208
28749SOL     OW88020  10.835  10.776  12.550
28749SOL    HW188021  10.919  10.767  12.504
28749SOL    HW288022  10.770  10.779  12.480
28750SOL     OW88023   3.847   9.245  13.132
28750SOL    HW188024   3.936   9.223  13.159
28750SOL    HW288025   3.796   9.237  13.213
28751SOL     OW88026   8.390   2.945   7.009
28751SOL    HW188027   8.460   3.009   7.021
28751SOL    HW288028   8.408   2.877   7.073
28752SOL     OW88029  12.603   0.477   3.416
28752SOL    HW188030  12.570   0.467   3.505
28752SOL    HW288031  12.601   0.389   3.380
28753SOL     OW88032   1.964   7.450   1.008
28753SOL    HW188033   1.947   7.471   0.916
28753SOL    HW288034   1.990   7.533   1.047
28754SOL     OW88035   5.231   4.076   3.953
28754SOL    HW188036   5.190   4.030   3.879
28754SOL    HW288037   5.165   4.071   4.023
28755SOL     OW88038   6.545  14.359  11.279
28755SOL    HW188039   6.553  14.413  11.358
28755SOL    HW288040   6.572  14.417  11.207
28756SOL     OW88041  13.995   9.554   2.893
28756SOL    HW188042  13.931   9.554   2.964
28756SOL    HW288043  14.073   9.511   2.930
28757SOL     OW88044  12.673   9.334   1.544
28757SOL    HW188045  12.635   9.331   1.632
28757SOL    HW288046  12.598   9.352   1.487
28758SOL     OW88047   2.191  13.081   2.134
28758SOL    HW188048   2.240  13.099   2.215
28758SOL    HW288049   2.258  13.058   2.070
28759SOL     OW88050   5.896   8.507  13.523
28759SOL    HW188051   5.874   8.414  13.527
28759SOL    HW288052   5.906   8.533  13.615
28760SOL     OW88053   0.814   1.181  11.574
28760SOL    HW188054   0.780   1.109  11.522
28760SOL    HW288055   0.820   1.255  11.513
28761SOL     OW88056   3.077   9.091  11.782
28761SOL    HW188057   3.088   9.183  11.805
28761SOL    HW288058   2.983   9.076  11.785
28762SOL     OW88059   7.365   3.862   5.468
28762SOL    HW188060   7.377   3.905   5.553
28762SOL    HW288061   7.451   3.829   5.445
28763SOL     OW88062   3.186  13.468   5.676
28763SOL    HW188063   3.200  13.504   5.588
28763SOL    HW288064   3.272  13.475   5.718
28764SOL     OW88065   2.970   7.600   5.917
28764SOL    HW188066   2.974   7.681   5.865
28764SOL    HW288067   3.061   7.584   5.943
28765SOL     OW88068  10.283   1.311   4.539
28765SOL    HW188069  10.257   1.390   4.586
28765SOL    HW288070  10.375   1.299   4.562
28766SOL     OW88071  12.838   7.079   2.042
28766SOL    HW188072  12.809   7.020   1.973
28766SOL    HW288073  12.830   7.028   2.122
28767SOL     OW88074  14.230  11.461  14.644
28767SOL    HW188075  14.282  11.431  14.719
28767SOL    HW288076  14.221  11.555  14.658
28768SOL     OW88077   6.239   0.459   2.516
28768SOL    HW188078   6.180   0.417   2.453
28768SOL    HW288079   6.182   0.484   2.589
28769SOL     OW88080  12.820   8.596   6.410
28769SOL    HW188081  12.853   8.597   6.500
28769SOL    HW288082  12.782   8.509   6.400
28770SOL     OW88083  11.737   2.709  10.213
28770SOL    HW188084  11.680   2.633  10.220
28770SOL    HW288085  11.720   2.760  10.293
28771SOL     OW88086   4.402   5.965   8.028
28771SOL    HW188087   4.425   5.984   8.119
28771SOL    HW288088   4.306   5.955   8.029
28772SOL     OW88089   9.718   9.935   6.616
28772SOL    HW188090   9.762  10.011   6.653
28772SOL    HW288091   9.673   9.967   6.538
28773SOL     OW88092   3.612   1.994   9.463
28773SOL    HW188093   3.650   2.052   9.397
28773SOL    HW288094   3.528   2.035   9.485
28774SOL     OW88095   6.184  13.252   2.957
28774SOL    HW188096   6.254  13.204   2.912
28774SOL    HW288097   6.109  13.193   2.953
28775SOL     OW88098  10.712   8.000   0.096
28775SOL    HW188099  10.666   7.922   0.126
28775SOL    HW288100  10.772   8.022   0.168
28776SOL     OW88101   7.499   5.549  11.528
28776SOL    HW188102   7.574   5.609  11.528
28776SOL    HW288103   7.444   5.581  11.600
28777SOL     OW88104   5.976   8.946   0.941
28777SOL    HW188105   5.881   8.946   0.958
28777SOL    HW288106   6.003   9.037   0.958
28778SOL     OW88107  10.136  12.762  14.584
28778SOL    HW188108  10.095  12.737  14.502
28778SOL    HW288109  10.095  12.707  14.650
28779SOL     OW88110   1.157  11.149   8.296
28779SOL    HW188111   1.184  11.119   8.382
28779SOL    HW288112   1.216  11.221   8.275
28780SOL     OW88113   0.312   2.778   4.154
28780SOL    HW188114   0.270   2.733   4.228
28780SOL    HW288115   0.256   2.757   4.079
28781SOL     OW88116  12.030   5.529  12.652
28781SOL    HW188117  11.943   5.563  12.671
28781SOL    HW288118  12.028   5.509  12.558
28782SOL     OW88119   7.632  10.114  12.890
28782SOL    HW188120   7.566  10.163  12.939
28782SOL    HW288121   7.678  10.181  12.838
28783SOL     OW88122   1.984  10.368   0.477
28783SOL    HW188123   1.931  10.402   0.548
28783SOL    HW288124   1.951  10.412   0.399
28784SOL     OW88125   6.705   9.027   8.075
28784SOL    HW188126   6.649   8.952   8.058
28784SOL    HW288127   6.682   9.054   8.164
28785SOL     OW88128   7.973   9.027  10.096
28785SOL    HW188129   8.020   8.953  10.057
28785SOL    HW288130   8.038   9.070  10.152
28786SOL     OW88131   6.734   2.506   0.776
28786SOL    HW188132   6.792   2.445   0.822
28786SOL    HW288133   6.792   2.575   0.745
28787SOL     OW88134  14.298   1.228  10.060
28787SOL    HW188135  14.324   1.299  10.001
28787SOL    HW288136  14.240   1.270  10.124
28788SOL     OW88137   5.212   0.893   7.193
28788SOL    HW188138   5.190   0.982   7.165
28788SOL    HW288139   5.271   0.906   7.268
28789SOL     OW88140   6.394  12.781   2.582
28789SOL    HW188141   6.336  12.841   2.630
28789SOL    HW288142   6.334  12.728   2.530
28790SOL     OW88143   9.329   0.567   5.734
28790SOL    HW188144   9.317   0.620   5.813
28790SOL    HW288145   9.403   0.509   5.755
28791SOL     OW88146   5.644  10.454   3.173
28791SOL    HW188147   5.739  10.465   3.176
28791SOL    HW288148   5.612  10.534   3.131
28792SOL     OW88149   8.323   2.896  14.021
28792SOL    HW188150   8.325   2.928  14.111
28792SOL    HW288151   8.245   2.841  14.017
28793SOL     OW88152  13.921  13.034  12.208
28793SOL    HW188153  13.969  13.023  12.290
28793SOL    HW288154  13.938  13.124  12.182
28794SOL     OW88155   2.237  12.919   5.872
28794SOL    HW188156   2.209  13.008   5.895
28794SOL    HW288157   2.194  12.903   5.787
28795SOL     OW88158   1.770   0.765   0.108
28795SOL    HW188159   1.814   0.754   0.193
28795SOL    HW288160   1.682   0.729   0.123
28796SOL     OW88161  12.855   8.313   6.123
28796SOL    HW188162  12.866   8.277   6.211
28796SOL    HW288163  12.859   8.237   6.066
28797SOL     OW88164   6.088   4.868   4.151
28797SOL    HW188165   6.067   4.947   4.200
28797SOL    HW288166   6.017   4.859   4.087
28798SOL     OW88167  13.409   2.106  14.221
28798SOL    HW188168  13.398   2.079  14.130
28798SOL    HW288169  13.367   2.192  14.225
28799SOL     OW88170   4.920  11.360   8.125
28799SOL    HW188171   4.928  11.273   8.162
28799SOL    HW288172   4.886  11.345   8.037
28800SOL     OW88173   0.737  14.049   4.602
28800SOL    HW188174   0.761  14.142   4.597
28800SOL    HW288175   0.652  14.048   4.644
28801SOL     OW88176  13.027  13.592  11.038
28801SOL    HW188177  13.036  13.680  11.075
28801SOL    HW288178  13.063  13.599  10.950
28802SOL     OW88179   1.885   5.411   6.000
28802SOL    HW188180   1.962   5.464   5.981
28802SOL    HW288181   1.830   5.468   6.054
28803SOL     OW88182  10.005   8.657   2.601
28803SOL    HW188183  10.077   8.712   2.633
28803SOL    HW288184  10.016   8.574   2.648
28804SOL     OW88185   2.842  12.445   9.102
28804SOL    HW188186   2.926  12.414   9.136
28804SOL    HW288187   2.790  12.464   9.180
28805SOL     OW88188   3.309  12.510   0.107
28805SOL    HW188189   3.230  12.521   0.160
28805SOL    HW288190   3.371  12.469   0.166
28806SOL     OW88191   6.485   4.264   1.669
28806SOL    HW188192   6.570   4.301   1.646
28806SOL    HW288193   6.499   4.170   1.674
28807SOL     OW88194  12.175   7.350  11.848
28807SOL    HW188195  12.176   7.255  11.836
28807SOL    HW288196  12.124   7.383  11.774
28808SOL     OW88197   6.263   2.884   4.493
28808SOL    HW188198   6.266   2.835   4.411
28808SOL    HW288199   6.231   2.820   4.558
28809SOL     OW88200  10.399  14.794   5.452
28809SOL    HW188201  10.376  14.839   5.534
28809SOL    HW288202  10.443  14.714   5.480
28810SOL     OW88203   7.464  10.363   7.767
28810SOL    HW188204   7.492  10.348   7.858
28810SOL    HW288205   7.527  10.313   7.715
28811SOL     OW88206  14.251  14.106   7.215
28811SOL    HW188207  14.178  14.166   7.229
28811SOL    HW288208  14.328  14.156   7.241
28812SOL     OW88209   5.699  10.842  11.366
28812SOL    HW188210   5.697  10.931  11.330
28812SOL    HW288211   5.641  10.792  11.309
28813SOL     OW88212  11.601   0.762   4.851
28813SOL    HW188213  11.619   0.671   4.831
28813SOL    HW288214  11.554   0.760   4.935
28814SOL     OW88215   6.513   2.775   8.352
28814SOL    HW188216   6.490   2.864   8.325
28814SOL    HW288217   6.440   2.721   8.321
28815SOL     OW88218   3.128   8.541  11.797
28815SOL    HW188219   3.164   8.612  11.744
28815SOL    HW288220   3.195   8.523  11.863
28816SOL     OW88221   4.279  13.350  11.701
28816SOL    HW188222   4.354  13.379  11.649
28816SOL    HW288223   4.284  13.402  11.782
28817SOL     OW88224   4.046   7.168   0.318
28817SOL    HW188225   3.961   7.137   0.351
28817SOL    HW288226   4.106   7.095   0.333
28818SOL     OW88227   1.534   7.928   5.926
28818SOL    HW188228   1.596   7.942   5.997
28818SOL    HW288229   1.466   7.871   5.964
28819SOL     OW88230   9.204   0.920   9.592
28819SOL    HW188231   9.139   0.950   9.656
28819SOL    HW288232   9.264   0.866   9.644
28820SOL     OW88233   2.404   8.629   0.206
28820SOL    HW188234   2.414   8.609   0.113
28820SOL    HW288235   2.367   8.717   0.208
28821SOL     OW88236   2.351  12.516  10.793
28821SOL    HW188237   2.354  12.546  10.702
28821SOL    HW288238   2.415  12.445  10.797
28822SOL     OW88239   3.039   1.053   1.855
28822SOL    HW188240   3.047   1.080   1.947
28822SOL    HW288241   3.078   0.966   1.852
28823SOL     OW88242   1.263  12.544   1.389
28823SOL    HW188243   1.311  12.507   1.315
28823SOL    HW288244   1.177  12.502   1.385
28824SOL     OW88245   5.349   4.063   6.961
28824SOL    HW188246   5.258   4.091   6.969
28824SOL    HW288247   5.363   4.049   6.868
28825SOL     OW88248   2.037   4.430   0.909
28825SOL    HW188249   2.028   4.523   0.932
28825SOL    HW288250   2.088   4.430   0.828
28826SOL     OW88251   3.070  12.723   8.622
28826SOL    HW188252   3.029  12.793   8.673
28826SOL    HW288253   3.063  12.753   8.531
28827SOL     OW88254   6.956  11.213  12.294
28827SOL    HW188255   6.938  11.202  12.201
28827SOL    HW288256   7.024  11.281  12.297
28828SOL     OW88257  11.559   9.042   8.068
28828SOL    HW188258  11.601   9.109   8.122
28828SOL    HW288259  11.468   9.072   8.059
28829SOL     OW88260   5.776   7.595   8.285
28829SOL    HW188261   5.785   7.500   8.287
28829SOL    HW288262   5.793   7.619   8.194
28830SOL     OW88263   5.640   9.471   1.891
28830SOL    HW188264   5.546   9.462   1.902
28830SOL    HW288265   5.676   9.388   1.922
28831SOL     OW88266  10.824   6.286  13.499
28831SOL    HW188267  10.801   6.370  13.539
28831SOL    HW288268  10.913   6.268  13.531
28832SOL     OW88269  14.189   8.584   0.364
28832SOL    HW188270  14.156   8.622   0.445
28832SOL    HW288271  14.252   8.647   0.330
28833SOL     OW88272   6.244   2.696   9.794
28833SOL    HW188273   6.214   2.777   9.752
28833SOL    HW288274   6.336   2.688   9.768
28834SOL     OW88275   5.771   5.129   3.477
28834SOL    HW188276   5.853   5.127   3.525
28834SOL    HW288277   5.710   5.175   3.534
28835SOL     OW88278   9.631   8.565   2.160
28835SOL    HW188279   9.614   8.506   2.233
28835SOL    HW288280   9.715   8.536   2.124
28836SOL     OW88281   6.238  14.213  10.805
28836SOL    HW188282   6.322  14.249  10.776
28836SOL    HW288283   6.182  14.290  10.817
28837SOL     OW88284   0.221   1.364  11.059
28837SOL    HW188285   0.182   1.284  11.023
28837SOL    HW288286   0.215   1.428  10.988
28838SOL     OW88287   9.503   2.580   1.408
28838SOL    HW188288   9.587   2.541   1.384
28838SOL    HW288289   9.526   2.665   1.447
28839SOL     OW88290   1.411   7.164   3.682
28839SOL    HW188291   1.338   7.142   3.740
28839SOL    HW288292   1.416   7.091   3.620
28840SOL     OW88293   7.004  11.991   7.589
28840SOL    HW188294   6.998  11.982   7.684
28840SOL    HW288295   6.917  11.965   7.557
28841SOL     OW88296  13.793   5.886   6.122
28841SOL    HW188297  13.706   5.926   6.111
28841SOL    HW288298  13.784   5.832   6.201
28842SOL     OW88299   0.154  12.099   8.017
28842SOL    HW188300   0.179  12.143   7.936
28842SOL    HW288301   0.078  12.046   7.993
28843SOL     OW88302  13.685   0.422   5.623
28843SOL    HW188303  13.743   0.486   5.582
28843SOL    HW288304  13.645   0.375   5.549
28844SOL     OW88305  10.466   1.956   9.981
28844SOL    HW188306  10.427   2.042   9.995
28844SOL    HW288307  10.506   1.963   9.894
28845SOL     OW88308   4.758  10.549   4.058
28845SOL    HW188309   4.806  10.508   3.986
28845SOL    HW288310   4.825  10.591   4.111
28846SOL     OW88311   2.111   2.214   7.925
28846SOL    HW188312   2.157   2.175   7.999
28846SOL    HW288313   2.178   2.268   7.882
28847SOL     OW88314   3.544  10.263   3.987
28847SOL    HW188315   3.569  10.184   3.938
28847SOL    HW288316   3.540  10.331   3.920
28848SOL     OW88317   5.053  13.091   6.382
28848SOL    HW188318   4.987  13.121   6.320
28848SOL    HW288319   5.084  13.008   6.347
28849SOL     OW88320   6.672   5.368   3.834
28849SOL    HW188321   6.577   5.373   3.837
28849SOL    HW288322   6.700   5.458   3.814
28850SOL     OW88323   4.917   1.459   4.750
28850SOL    HW188324   5.011   1.473   4.756
28850SOL    HW288325   4.902   1.437   4.658
28851SOL     OW88326   8.897   7.140   8.830
28851SOL    HW188327   8.854   7.141   8.915
28851SOL    HW288328   8.875   7.224   8.790
28852SOL     OW88329  10.241   9.365   0.340
28852SOL    HW188330  10.184   9.316   0.399
28852SOL    HW288331  10.300   9.413   0.398
28853SOL     OW88332   3.501  11.714   2.764
28853SOL    HW188333   3.521  11.740   2.854
28853SOL    HW288334   3.481  11.796   2.720
28854SOL     OW88335  11.223   4.674   7.740
28854SOL    HW188336  11.268   4.653   7.658
28854SOL    HW288337  11.237   4.768   7.751
28855SOL     OW88338   1.239  13.134  10.573
28855SOL    HW188339   1.238  13.222  10.535
28855SOL    HW288340   1.329  13.121  10.602
28856SOL     OW88341  12.592   5.305   6.261
28856SOL    HW188342  12.647   5.229   6.277
28856SOL    HW288343  12.601   5.322   6.167
28857SOL     OW88344   3.348   3.807  13.825
28857SOL    HW188345   3.287   3.744  13.787
28857SOL    HW288346   3.324   3.891  13.785
28858SOL     OW88347  12.924  14.742   3.733
28858SOL    HW188348  12.909  14.782   3.648
28858SOL    HW288349  12.847  14.687   3.748
28859SOL     OW88350  14.185   5.104   1.921
28859SOL    HW188351  14.094   5.077   1.908
28859SOL    HW288352  14.222   5.037   1.979
28860SOL     OW88353   2.744   0.102   1.064
28860SOL    HW188354   2.783   0.050   1.134
28860SOL    HW288355   2.815   0.115   1.001
28861SOL     OW88356   1.987   1.399   7.994
28861SOL    HW188357   1.898   1.383   7.963
28861SOL    HW288358   1.976   1.440   8.080
28862SOL     OW88359   7.519   3.283  12.173
28862SOL    HW188360   7.565   3.202  12.151
28862SOL    HW288361   7.568   3.352  12.128
28863SOL     OW88362  14.070   2.146   3.008
28863SOL    HW188363  14.095   2.144   2.915
28863SOL    HW288364  14.031   2.060   3.023
28864SOL     OW88365   5.505   4.080  13.682
28864SOL    HW188366   5.474   4.141  13.615
28864SOL    HW288367   5.597   4.065  13.660
28865SOL     OW88368  13.020   6.910   9.277
28865SOL    HW188369  13.084   6.874   9.216
28865SOL    HW288370  12.954   6.952   9.221
28866SOL     OW88371   1.833   7.521  14.030
28866SOL    HW188372   1.901   7.455  14.019
28866SOL    HW288373   1.788   7.524  13.946
28867SOL     OW88374  10.348   4.690  14.434
28867SOL    HW188375  10.365   4.613  14.488
28867SOL    HW288376  10.307   4.753  14.494
28868SOL     OW88377  13.899   8.511   9.668
28868SOL    HW188378  13.820   8.478   9.625
28868SOL    HW288379  13.955   8.434   9.678
28869SOL     OW88380   8.170  14.105   4.734
28869SOL    HW188381   8.116  14.131   4.660
28869SOL    HW288382   8.117  14.042   4.782
28870SOL     OW88383   9.491   7.910   8.222
28870SOL    HW188384   9.524   7.859   8.148
28870SOL    HW288385   9.537   7.875   8.298
28871SOL     OW88386  14.496   7.390   1.635
28871SOL    HW188387  14.570   7.361   1.582
28871SOL    HW288388  14.439   7.313   1.639
28872SOL     OW88389   2.798   5.653   5.871
28872SOL    HW188390   2.744   5.576   5.856
28872SOL    HW288391   2.888   5.620   5.869
28873SOL     OW88392  10.633   1.299   7.134
28873SOL    HW188393  10.585   1.268   7.211
28873SOL    HW288394  10.713   1.247   7.132
28874SOL     OW88395  12.347  10.173   8.788
28874SOL    HW188396  12.334  10.138   8.700
28874SOL    HW288397  12.412  10.243   8.776
28875SOL     OW88398   9.933  13.640  11.675
28875SOL    HW188399   9.905  13.724  11.712
28875SOL    HW288400   9.867  13.620  11.609
28876SOL     OW88401  12.734   1.693   3.427
28876SOL    HW188402  12.639   1.702   3.418
28876SOL    HW288403  12.754   1.610   3.382
28877SOL     OW88404   1.834   5.032   9.117
28877SOL    HW188405   1.776   5.104   9.141
28877SOL    HW288406   1.804   5.004   9.031
28878SOL     OW88407  12.433   0.136  12.472
28878SOL    HW188408  12.485   0.147  12.393
28878SOL    HW288409  12.354   0.187  12.457
28879SOL     OW88410   2.549  12.160  11.724
28879SOL    HW188411   2.468  12.200  11.692
28879SOL    HW288412   2.613  12.230  11.722
28880SOL     OW88413   4.950   6.812  13.776
28880SOL    HW188414   4.928   6.843  13.864
28880SOL    HW288415   5.040   6.839  13.763
28881SOL     OW88416   3.448   0.283  13.345
28881SOL    HW188417   3.366   0.245  13.376
28881SOL    HW288418   3.488   0.321  13.424
28882SOL     OW88419   8.181   8.185   0.193
28882SOL    HW188420   8.272   8.157   0.203
28882SOL    HW288421   8.182   8.245   0.118
28883SOL     OW88422   1.931  11.500   6.303
28883SOL    HW188423   1.904  11.456   6.384
28883SOL    HW288424   1.885  11.454   6.234
28884SOL     OW88425  14.797  12.114   8.246
28884SOL    HW188426  14.870  12.120   8.183
28884SOL    HW288427  14.825  12.049   8.310
28885SOL     OW88428   9.796   9.250   6.931
28885SOL    HW188429   9.847   9.330   6.919
28885SOL    HW288430   9.738   9.246   6.855
28886SOL     OW88431   9.171  13.926   0.143
28886SOL    HW188432   9.217  13.876   0.077
28886SOL    HW288433   9.228  14.001   0.161
28887SOL     OW88434   7.630  11.844  11.680
28887SOL    HW188435   7.616  11.933  11.648
28887SOL    HW288436   7.722  11.826  11.662
28888SOL     OW88437   3.170   5.499   4.489
28888SOL    HW188438   3.118   5.418   4.492
28888SOL    HW288439   3.221   5.497   4.570
28889SOL     OW88440   6.513   1.285   1.654
28889SOL    HW188441   6.592   1.234   1.672
28889SOL    HW288442   6.533   1.333   1.574
28890SOL     OW88443  11.860  14.561  14.348
28890SOL    HW188444  11.800  14.596  14.281
28890SOL    HW288445  11.815  14.483  14.381
28891SOL     OW88446   4.468   0.096   5.980
28891SOL    HW188447   4.556   0.103   6.016
28891SOL    HW288448   4.411   0.129   6.050
28892SOL     OW88449   6.429   7.283  12.947
28892SOL    HW188450   6.476   7.229  13.010
28892SOL    HW288451   6.424   7.369  12.989
28893SOL     OW88452   6.571   2.413  10.916
28893SOL    HW188453   6.537   2.345  10.858
28893SOL    HW288454   6.600   2.483  10.857
28894SOL     OW88455   1.820  14.198   9.425
28894SOL    HW188456   1.810  14.159   9.512
28894SOL    HW288457   1.739  14.176   9.379
28895SOL     OW88458   9.118   4.242  10.222
28895SOL    HW188459   9.177   4.195  10.280
28895SOL    HW288460   9.036   4.192  10.227
28896SOL     OW88461   4.437   2.876  10.918
28896SOL    HW188462   4.432   2.781  10.910
28896SOL    HW288463   4.455   2.892  11.011
28897SOL     OW88464   7.790   4.044   7.424
28897SOL    HW188465   7.732   3.969   7.438
28897SOL    HW288466   7.875   4.015   7.457
28898SOL     OW88467  13.202   7.572   8.561
28898SOL    HW188468  13.114   7.555   8.594
28898SOL    HW288469  13.213   7.510   8.489
28899SOL     OW88470   5.738   2.790   1.322
28899SOL    HW188471   5.758   2.831   1.237
28899SOL    HW288472   5.663   2.840   1.355
28900SOL     OW88473  10.898   5.997  10.248
28900SOL    HW188474  10.913   6.025  10.158
28900SOL    HW288475  10.818   6.044  10.274
28901SOL     OW88476  11.268  11.408   2.849
28901SOL    HW188477  11.358  11.399   2.818
28901SOL    HW288478  11.236  11.319   2.857
28902SOL     OW88479   5.022   0.222   8.750
28902SOL    HW188480   5.062   0.275   8.820
28902SOL    HW288481   5.091   0.214   8.684
28903SOL     OW88482  13.428  11.538   6.510
28903SOL    HW188483  13.366  11.535   6.437
28903SOL    HW288484  13.513  11.554   6.469
28904SOL     OW88485   8.416  14.271   6.919
28904SOL    HW188486   8.358  14.204   6.954
28904SOL    HW288487   8.486  14.223   6.877
28905SOL     OW88488  13.607  11.430  14.729
28905SOL    HW188489  13.690  11.404  14.769
28905SOL    HW288490  13.547  11.437  14.803
28906SOL     OW88491   8.086   4.023   0.714
28906SOL    HW188492   8.166   3.976   0.691
28906SOL    HW288493   8.017   3.977   0.666
28907SOL     OW88494   6.272   9.266   5.046
28907SOL    HW188495   6.326   9.239   4.972
28907SOL    HW288496   6.188   9.292   5.007
28908SOL     OW88497   5.909   2.678   7.993
28908SOL    HW188498   5.870   2.702   7.909
28908SOL    HW288499   5.834   2.660   8.050
28909SOL     OW88500   9.929   1.826   0.123
28909SOL    HW188501   9.853   1.820   0.065
28909SOL    HW288502   9.977   1.903   0.093
28910SOL     OW88503   1.352   0.469   0.003
28910SOL    HW188504   1.296   0.413   0.058
28910SOL    HW288505   1.291   0.532  14.842
28911SOL     OW88506  14.572   3.180   3.118
28911SOL    HW188507  14.546   3.272   3.125
28911SOL    HW288508  14.538   3.152   3.032
28912SOL     OW88509   0.517   0.562   5.930
28912SOL    HW188510   0.584   0.554   5.862
28912SOL    HW288511   0.563   0.546   6.012
28913SOL     OW88512   3.280   3.543   8.830
28913SOL    HW188513   3.186   3.528   8.841
28913SOL    HW288514   3.317   3.455   8.825
28914SOL     OW88515   9.473  12.316  12.678
28914SOL    HW188516   9.485  12.400  12.722
28914SOL    HW288517   9.419  12.265  12.738
28915SOL     OW88518  12.255  10.534   2.974
28915SOL    HW188519  12.207  10.463   2.931
28915SOL    HW288520  12.235  10.525   3.067
28916SOL     OW88521   5.684  14.362  11.251
28916SOL    HW188522   5.721  14.417  11.320
28916SOL    HW288523   5.747  14.291  11.240
28917SOL     OW88524  11.396  14.365  11.328
28917SOL    HW188525  11.463  14.434  11.320
28917SOL    HW288526  11.415  14.323  11.412
28918SOL     OW88527   3.980   5.019  13.823
28918SOL    HW188528   3.936   5.091  13.778
28918SOL    HW288529   3.910   4.957  13.844
28919SOL     OW88530   2.208   2.415  13.373
28919SOL    HW188531   2.150   2.490  13.390
28919SOL    HW288532   2.274   2.449  13.312
28920SOL     OW88533   7.725   8.052   4.696
28920SOL    HW188534   7.752   8.072   4.607
28920SOL    HW288535   7.802   8.072   4.750
28921SOL     OW88536   6.453   9.914  10.406
28921SOL    HW188537   6.501   9.980  10.456
28921SOL    HW288538   6.517   9.880  10.343
28922SOL     OW88539   8.587  10.131   9.971
28922SOL    HW188540   8.524  10.185   9.924
28922SOL    HW288541   8.550  10.043   9.968
28923SOL     OW88542  13.629  11.362   9.501
28923SOL    HW188543  13.583  11.445   9.516
28923SOL    HW288544  13.652  11.330   9.588
28924SOL     OW88545   5.717  13.738   5.331
28924SOL    HW188546   5.741  13.765   5.419
28924SOL    HW288547   5.723  13.642   5.334
28925SOL     OW88548   7.224  11.198   0.662
28925SOL    HW188549   7.317  11.220   0.651
28925SOL    HW288550   7.185  11.276   0.700
28926SOL     OW88551  12.403  14.677   8.212
28926SOL    HW188552  12.414  14.592   8.254
28926SOL    HW288553  12.366  14.657   8.126
28927SOL     OW88554  14.040   7.499   7.552
28927SOL    HW188555  14.101   7.572   7.563
28927SOL    HW288556  13.984   7.503   7.629
28928SOL     OW88557   3.046   3.150   9.182
28928SOL    HW188558   3.114   3.125   9.245
28928SOL    HW288559   2.973   3.092   9.202
28929SOL     OW88560   2.446  10.043   2.644
28929SOL    HW188561   2.511   9.982   2.677
28929SOL    HW288562   2.371  10.033   2.703
28930SOL     OW88563   1.232   3.233   3.104
28930SOL    HW188564   1.170   3.234   3.031
28930SOL    HW288565   1.258   3.324   3.114
28931SOL     OW88566  14.826   3.415  13.708
28931SOL    HW188567   0.037   3.431  13.742
28931SOL    HW288568  14.834   3.429  13.614
28932SOL     OW88569   5.497   4.607   7.506
28932SOL    HW188570   5.432   4.626   7.574
28932SOL    HW288571   5.550   4.536   7.543
28933SOL     OW88572   0.318  10.331   0.856
28933SOL    HW188573   0.273  10.340   0.940
28933SOL    HW288574   0.411  10.334   0.879
28934SOL     OW88575  13.738   9.971  14.118
28934SOL    HW188576  13.693   9.891  14.089
28934SOL    HW288577  13.813   9.939  14.169
28935SOL     OW88578   2.839   2.978  14.107
28935SOL    HW188579   2.827   3.025  14.189
28935SOL    HW288580   2.925   2.937  14.115
28936SOL     OW88581   5.670   9.203   4.464
28936SOL    HW188582   5.682   9.110   4.485
28936SOL    HW288583   5.740   9.223   4.402
28937SOL     OW88584   3.268  10.176   2.944
28937SOL    HW188585   3.211  10.099   2.946
28937SOL    HW288586   3.246  10.225   3.023
28938SOL     OW88587   6.718   4.152   9.233
28938SOL    HW188588   6.626   4.144   9.260
28938SOL    HW288589   6.741   4.243   9.252
28939SOL     OW88590  12.227   5.833   9.482
28939SOL    HW188591  12.183   5.891   9.544
28939SOL    HW288592  12.232   5.884   9.401
28940SOL     OW88593   9.597   2.039   0.316
28940SOL    HW188594   9.524   2.050   0.376
28940SOL    HW288595   9.572   1.964   0.261
28941SOL     OW88596  11.953  14.576  13.281
28941SOL    HW188597  11.930  14.577  13.373
28941SOL    HW288598  11.933  14.487  13.252
28942SOL     OW88599  13.997   0.831   2.307
28942SOL    HW188600  14.089   0.812   2.290
28942SOL    HW288601  13.998   0.906   2.366
28943SOL     OW88602   9.582  13.742  11.277
28943SOL    HW188603   9.665  13.752  11.230
28943SOL    HW288604   9.576  13.648  11.296
28944SOL     OW88605   3.755   3.258  13.671
28944SOL    HW188606   3.706   3.276  13.591
28944SOL    HW288607   3.793   3.171  13.657
28945SOL     OW88608   9.836   6.217   0.955
28945SOL    HW188609   9.792   6.216   1.040
28945SOL    HW288610   9.822   6.306   0.923
28946SOL     OW88611   4.356  13.680   2.447
28946SOL    HW188612   4.444  13.662   2.478
28946SOL    HW288613   4.309  13.597   2.460
28947SOL     OW88614  11.658   5.181   7.016
28947SOL    HW188615  11.750   5.181   6.992
28947SOL    HW288616  11.657   5.170   7.111
28948SOL     OW88617  11.846  14.145   4.639
28948SOL    HW188618  11.794  14.224   4.657
28948SOL    HW288619  11.929  14.178   4.606
28949SOL     OW88620  14.453   2.099  14.549
28949SOL    HW188621  14.432   2.189  14.575
28949SOL    HW288622  14.478   2.055  14.630
28950SOL     OW88623  12.937  11.825   4.646
28950SOL    HW188624  12.843  11.809   4.656
28950SOL    HW288625  12.952  11.815   4.552
28951SOL     OW88626  12.856   7.585   2.799
28951SOL    HW188627  12.796   7.637   2.745
28951SOL    HW288628  12.904   7.649   2.851
28952SOL     OW88629   9.055  10.505   8.254
28952SOL    HW188630   9.036  10.419   8.291
28952SOL    HW288631   9.063  10.563   8.330
28953SOL     OW88632  13.899   6.213   4.726
28953SOL    HW188633  13.817   6.209   4.676
28953SOL    HW288634  13.963   6.250   4.664
28954SOL     OW88635   8.117   9.897  13.135
28954SOL    HW188636   8.098   9.959  13.206
28954SOL    HW288637   8.203   9.861  13.158
28955SOL     OW88638   8.068   6.835   0.052
28955SOL    HW188639   8.012   6.830  14.853
28955SOL    HW288640   8.045   6.757   0.104
28956SOL     OW88641   1.218   3.766   7.912
28956SOL    HW188642   1.265   3.683   7.905
28956SOL    HW288643   1.141   3.745   7.965
28957SOL     OW88644  13.807  13.616   9.993
28957SOL    HW188645  13.834  13.686  10.052
28957SOL    HW288646  13.883  13.602   9.935
28958SOL     OW88647   5.185   0.150   6.292
28958SOL    HW188648   5.163   0.116   6.205
28958SOL    HW288649   5.103   0.188   6.324
28959SOL     OW88650   0.033   4.579  12.141
28959SOL    HW188651   0.078   4.574  12.057
28959SOL    HW288652  14.823   4.542  12.124
28960SOL     OW88653   1.273   2.572   2.258
28960SOL    HW188654   1.207   2.641   2.256
28960SOL    HW288655   1.326   2.587   2.180
28961SOL     OW88656  11.789   2.663   2.188
28961SOL    HW188657  11.804   2.706   2.104
28961SOL    HW288658  11.778   2.570   2.167
28962SOL     OW88659   0.355   9.664   0.733
28962SOL    HW188660   0.364   9.664   0.828
28962SOL    HW288661   0.371   9.755   0.707
28963SOL     OW88662   8.406  14.176   4.865
28963SOL    HW188663   8.402  14.252   4.808
28963SOL    HW288664   8.332  14.122   4.838
28964SOL     OW88665  10.941   5.910  12.876
28964SOL    HW188666  10.871   5.869  12.928
28964SOL    HW288667  10.922   6.004  12.881
28965SOL     OW88668   2.515  12.684  11.152
28965SOL    HW188669   2.449  12.732  11.103
28965SOL    HW288670   2.469  12.607  11.186
28966SOL     OW88671  13.756   4.004   4.056
28966SOL    HW188672  13.671   3.976   4.021
28966SOL    HW288673  13.734   4.050   4.137
28967SOL     OW88674   1.735   6.423   3.769
28967SOL    HW188675   1.717   6.438   3.861
28967SOL    HW288676   1.771   6.334   3.765
28968SOL     OW88677   1.474   8.554  12.055
28968SOL    HW188678   1.480   8.504  11.974
28968SOL    HW288679   1.381   8.550  12.078
28969SOL     OW88680   9.491  12.246   8.517
28969SOL    HW188681   9.458  12.335   8.506
28969SOL    HW288682   9.540  12.248   8.600
28970SOL     OW88683   9.529   0.709  14.867
28970SOL    HW188684   9.603   0.678  14.816
28970SOL    HW288685   9.459   0.646  14.849
28971SOL     OW88686   4.024   7.662   5.967
28971SOL    HW188687   4.085   7.681   5.896
28971SOL    HW288688   4.052   7.720   6.038
28972SOL     OW88689   2.498  10.106  10.887
28972SOL    HW188690   2.445  10.027  10.886
28972SOL    HW288691   2.510  10.129  10.795
28973SOL     OW88692  14.634   8.769   2.504
28973SOL    HW188693  14.613   8.708   2.433
28973SOL    HW288694  14.718   8.739   2.538
28974SOL     OW88695   6.206   1.663   4.718
28974SOL    HW188696   6.238   1.650   4.629
28974SOL    HW288697   6.283   1.692   4.767
28975SOL     OW88698   6.899  10.769   4.200
28975SOL    HW188699   6.895  10.761   4.105
28975SOL    HW288700   6.905  10.864   4.216
28976SOL     OW88701   3.567  13.873   3.329
28976SOL    HW188702   3.491  13.848   3.278
28976SOL    HW288703   3.636  13.813   3.302
28977SOL     OW88704   6.881  10.791  13.998
28977SOL    HW188705   6.918  10.780  14.085
28977SOL    HW288706   6.925  10.869  13.963
28978SOL     OW88707   9.807  12.890   6.724
28978SOL    HW188708   9.792  12.982   6.704
28978SOL    HW288709   9.862  12.892   6.803
28979SOL     OW88710   0.286   6.905  10.120
28979SOL    HW188711   0.252   6.853  10.193
28979SOL    HW288712   0.362   6.856  10.089
28980SOL     OW88713  14.443   9.676  13.801
28980SOL    HW188714  14.457   9.670  13.896
28980SOL    HW288715  14.351   9.654  13.789
28981SOL     OW88716   3.722   8.621   1.494
28981SOL    HW188717   3.749   8.531   1.512
28981SOL    HW288718   3.651   8.613   1.431
28982SOL     OW88719   8.831   6.654   5.399
28982SOL    HW188720   8.907   6.646   5.458
28982SOL    HW288721   8.776   6.579   5.421
28983SOL     OW88722  14.500   0.295   1.531
28983SOL    HW188723  14.460   0.380   1.551
28983SOL    HW288724  14.432   0.231   1.554
28984SOL     OW88725   4.045   3.006   2.055
28984SOL    HW188726   3.984   2.965   1.994
28984SOL    HW288727   4.016   3.097   2.060
28985SOL     OW88728  11.298   6.605  12.936
28985SOL    HW188729  11.286   6.517  12.970
28985SOL    HW288730  11.342   6.653  13.007
28986SOL     OW88731   4.525  11.232  12.616
28986SOL    HW188732   4.509  11.141  12.643
28986SOL    HW288733   4.454  11.251  12.553
28987SOL     OW88734  11.366   9.626  12.921
28987SOL    HW188735  11.399   9.544  12.884
28987SOL    HW288736  11.445   9.675  12.944
28988SOL     OW88737   5.355  11.057   1.943
28988SOL    HW188738   5.336  11.141   1.984
28988SOL    HW288739   5.411  11.079   1.868
28989SOL     OW88740  11.702  12.622  14.507
28989SOL    HW188741  11.797  12.622  14.523
28989SOL    HW288742  11.677  12.714  14.513
28990SOL     OW88743  14.307  13.817   0.393
28990SOL    HW188744  14.398  13.844   0.378
28990SOL    HW288745  14.273  13.880   0.456
28991SOL     OW88746   9.243  11.496   1.026
28991SOL    HW188747   9.313  11.548   0.987
28991SOL    HW288748   9.251  11.512   1.120
28992SOL     OW88749   5.049   4.398   7.984
28992SOL    HW188750   4.967   4.369   8.022
28992SOL    HW288751   5.024   4.447   7.906
28993SOL     OW88752   3.466   3.013   2.739
28993SOL    HW188753   3.474   2.932   2.790
28993SOL    HW288754   3.433   2.985   2.654
28994SOL     OW88755   7.147   4.824   9.441
28994SOL    HW188756   7.126   4.916   9.430
28994SOL    HW288757   7.062   4.782   9.453
28995SOL     OW88758   2.499   4.766  13.153
28995SOL    HW188759   2.457   4.726  13.230
28995SOL    HW288760   2.591   4.776  13.179
28996SOL     OW88761   9.993   6.058   8.833
28996SOL    HW188762   9.974   5.966   8.854
28996SOL    HW288763  10.088   6.061   8.825
28997SOL     OW88764   1.041   3.482   7.137
28997SOL    HW188765   1.117   3.503   7.082
28997SOL    HW288766   1.078   3.477   7.225
28998SOL     OW88767  12.608   2.980   8.003
28998SOL    HW188768  12.562   2.913   8.053
28998SOL    HW288769  12.681   3.005   8.059
28999SOL     OW88770  14.006   8.920   2.419
28999SOL    HW188771  13.941   8.911   2.488
28999SOL    HW288772  14.087   8.887   2.458
29000SOL     OW88773  13.673   7.878   1.756
29000SOL    HW188774  13.721   7.938   1.699
29000SOL    HW288775  13.737   7.810   1.779
29001SOL     OW88776   4.128   1.311   3.985
29001SOL    HW188777   4.221   1.334   3.976
29001SOL    HW288778   4.082   1.380   3.938
29002SOL     OW88779   8.974   4.115  10.846
29002SOL    HW188780   9.036   4.188  10.842
29002SOL    HW288781   8.898   4.150  10.891
29003SOL     OW88782   9.878  13.118   4.893
29003SOL    HW188783   9.966  13.119   4.856
29003SOL    HW288784   9.840  13.036   4.863
29004SOL     OW88785  12.383   6.129   8.486
29004SOL    HW188786  12.313   6.065   8.478
29004SOL    HW288787  12.418   6.139   8.398
29005SOL     OW88788   2.862   0.718   6.295
29005SOL    HW188789   2.859   0.714   6.391
29005SOL    HW288790   2.789   0.774   6.271
29006SOL     OW88791  11.906   3.490   5.285
29006SOL    HW188792  11.835   3.439   5.324
29006SOL    HW288793  11.967   3.425   5.251
29007SOL     OW88794  10.549   5.368   8.491
29007SOL    HW188795  10.582   5.280   8.512
29007SOL    HW288796  10.544   5.370   8.396
29008SOL     OW88797   6.431   7.588  11.922
29008SOL    HW188798   6.474   7.525  11.864
29008SOL    HW288799   6.477   7.671  11.905
29009SOL     OW88800   1.966   1.193   9.463
29009SOL    HW188801   2.032   1.174   9.396
29009SOL    HW288802   1.995   1.276   9.501
29010SOL     OW88803   8.203  13.571   1.134
29010SOL    HW188804   8.227  13.648   1.083
29010SOL    HW288805   8.108  13.564   1.123
29011SOL     OW88806   4.596   8.325   8.717
29011SOL    HW188807   4.630   8.254   8.663
29011SOL    HW288808   4.580   8.285   8.802
29012SOL     OW88809  12.518   2.912   6.179
29012SOL    HW188810  12.502   2.922   6.085
29012SOL    HW288811  12.435   2.882   6.216
29013SOL     OW88812   6.787  12.829   3.161
29013SOL    HW188813   6.767  12.745   3.202
29013SOL    HW288814   6.822  12.806   3.075
29014SOL     OW88815   1.009  14.421   1.214
29014SOL    HW188816   1.102  14.401   1.217
29014SOL    HW288817   0.979  14.381   1.132
29015SOL     OW88818   4.142   5.073   7.275
29015SOL    HW188819   4.148   4.979   7.254
29015SOL    HW288820   4.050   5.095   7.258
29016SOL     OW88821  14.313   1.820   9.478
29016SOL    HW188822  14.328   1.913   9.465
29016SOL    HW288823  14.333   1.805   9.570
29017SOL     OW88824  14.248  11.618   7.316
29017SOL    HW188825  14.222  11.585   7.230
29017SOL    HW288826  14.233  11.544   7.375
29018SOL     OW88827  14.775   9.918   5.984
29018SOL    HW188828  14.828   9.961   6.051
29018SOL    HW288829  14.817   9.942   5.901
29019SOL     OW88830  13.996   0.701   0.503
29019SOL    HW188831  14.021   0.730   0.591
29019SOL    HW288832  14.079   0.695   0.455
29020SOL     OW88833   6.317  14.251  14.201
29020SOL    HW188834   6.308  14.216  14.112
29020SOL    HW288835   6.310  14.346  14.190
29021SOL     OW88836  13.420   6.063   8.484
29021SOL    HW188837  13.336   6.076   8.529
29021SOL    HW288838  13.419   6.130   8.415
29022SOL     OW88839  12.711   3.279  12.311
29022SOL    HW188840  12.765   3.356  12.292
29022SOL    HW288841  12.739   3.252  12.398
29023SOL     OW88842  11.486   3.613   5.441
29023SOL    HW188843  11.534   3.568   5.510
29023SOL    HW288844  11.515   3.572   5.360
29024SOL     OW88845   7.100   0.056   3.747
29024SOL    HW188846   7.081   0.095   3.662
29024SOL    HW288847   7.184   0.012   3.736
29025SOL     OW88848   0.488   4.060   9.722
29025SOL    HW188849   0.443   3.986   9.761
29025SOL    HW288850   0.559   4.021   9.671
29026SOL     OW88851  11.259   1.460   3.491
29026SOL    HW188852  11.304   1.405   3.556
29026SOL    HW288853  11.257   1.547   3.531
29027SOL     OW88854   6.589   3.989  14.309
29027SOL    HW188855   6.551   3.940  14.237
29027SOL    HW288856   6.615   3.922  14.372
29028SOL     OW88857  11.697   7.839  12.062
29028SOL    HW188858  11.617   7.870  12.020
29028SOL    HW288859  11.765   7.853  11.996
29029SOL     OW88860   1.290   3.024  12.634
29029SOL    HW188861   1.363   2.967  12.656
29029SOL    HW288862   1.313   3.109  12.672
29030SOL     OW88863   3.427  11.706  13.978
29030SOL    HW188864   3.383  11.782  14.016
29030SOL    HW288865   3.360  11.638  13.973
29031SOL     OW88866   7.498   8.655   4.071
29031SOL    HW188867   7.498   8.705   4.153
29031SOL    HW288868   7.411   8.615   4.068
29032SOL     OW88869   6.142  11.169   6.421
29032SOL    HW188870   6.116  11.252   6.461
29032SOL    HW288871   6.234  11.183   6.396
29033SOL     OW88872   7.034  14.086  14.500
29033SOL    HW188873   7.026  14.002  14.546
29033SOL    HW288874   6.973  14.079  14.426
29034SOL     OW88875  13.158   0.333   4.082
29034SOL    HW188876  13.097   0.371   4.019
29034SOL    HW288877  13.231   0.303   4.028
29035SOL     OW88878   2.372   5.623   2.167
29035SOL    HW188879   2.421   5.683   2.110
29035SOL    HW288880   2.299   5.594   2.113
29036SOL     OW88881  13.942   9.872   0.323
29036SOL    HW188882  14.026   9.827   0.329
29036SOL    HW288883  13.923   9.898   0.414
29037SOL     OW88884   3.555   8.515   9.208
29037SOL    HW188885   3.590   8.545   9.124
29037SOL    HW288886   3.633   8.501   9.262
29038SOL     OW88887   4.188   6.510  13.908
29038SOL    HW188888   4.121   6.546  13.850
29038SOL    HW288889   4.156   6.528  13.996
29039SOL     OW88890  12.903  12.017   0.039
29039SOL    HW188891  12.889  11.946   0.102
29039SOL    HW288892  12.929  11.972  14.836
29040SOL     OW88893  12.637   8.173  12.483
29040SOL    HW188894  12.710   8.115  12.505
29040SOL    HW288895  12.566   8.114  12.457
29041SOL     OW88896   1.815   1.822   3.125
29041SOL    HW188897   1.833   1.756   3.192
29041SOL    HW288898   1.725   1.849   3.143
29042SOL     OW88899   6.834   0.641   4.284
29042SOL    HW188900   6.881   0.567   4.247
29042SOL    HW288901   6.892   0.675   4.352
29043SOL     OW88902   9.468  11.599  14.263
29043SOL    HW188903   9.542  11.652  14.294
29043SOL    HW288904   9.499  11.509  14.270
29044SOL     OW88905   3.736   2.879  10.176
29044SOL    HW188906   3.654   2.928  10.182
29044SOL    HW288907   3.718   2.811  10.111
29045SOL     OW88908   0.284   4.795   3.454
29045SOL    HW188909   0.220   4.730   3.482
29045SOL    HW288910   0.311   4.766   3.367
29046SOL     OW88911   4.231  10.147  13.155
29046SOL    HW188912   4.274  10.107  13.231
29046SOL    HW288913   4.274  10.232  13.145
29047SOL     OW88914  12.004   2.150  10.822
29047SOL    HW188915  11.995   2.066  10.867
29047SOL    HW288916  12.062   2.132  10.748
29048SOL     OW88917   6.687  14.641   3.657
29048SOL    HW188918   6.672  14.712   3.719
29048SOL    HW288919   6.768  14.600   3.687
29049SOL     OW88920   7.054   1.555   5.516
29049SOL    HW188921   7.081   1.605   5.593
29049SOL    HW288922   7.109   1.476   5.518
29050SOL     OW88923   5.915  11.630   6.421
29050SOL    HW188924   5.878  11.548   6.389
29050SOL    HW288925   5.860  11.698   6.382
29051SOL     OW88926   1.268   8.382  11.848
29051SOL    HW188927   1.268   8.463  11.798
29051SOL    HW288928   1.180   8.377  11.886
29052SOL     OW88929   1.310   5.399  10.878
29052SOL    HW188930   1.256   5.438  10.810
29052SOL    HW288931   1.400   5.415  10.850
29053SOL     OW88932  13.158   1.747   7.693
29053SOL    HW188933  13.207   1.703   7.763
29053SOL    HW288934  13.074   1.701   7.691
29054SOL     OW88935  14.360   9.331   6.413
29054SOL    HW188936  14.407   9.413   6.400
29054SOL    HW288937  14.304   9.324   6.335
29055SOL     OW88938   6.571   3.189   4.443
29055SOL    HW188939   6.604   3.173   4.532
29055SOL    HW288940   6.642   3.161   4.386
29056SOL     OW88941   9.890   9.878  12.212
29056SOL    HW188942   9.952   9.805  12.202
29056SOL    HW288943   9.913   9.917  12.297
29057SOL     OW88944  12.789  11.885   7.628
29057SOL    HW188945  12.818  11.844   7.546
29057SOL    HW288946  12.857  11.949   7.648
29058SOL     OW88947   0.264   6.773   8.314
29058SOL    HW188948   0.182   6.823   8.321
29058SOL    HW288949   0.320   6.828   8.259
29059SOL     OW88950   8.590  14.725  11.109
29059SOL    HW188951   8.607  14.817  11.089
29059SOL    HW288952   8.494  14.719  11.113
29060SOL     OW88953   5.436   1.601   9.478
29060SOL    HW188954   5.357   1.563   9.439
29060SOL    HW288955   5.505   1.538   9.458
29061SOL     OW88956   9.581   0.701  10.135
29061SOL    HW188957   9.605   0.638  10.067
29061SOL    HW288958   9.551   0.778  10.087
29062SOL     OW88959   8.237  13.044   0.973
29062SOL    HW188960   8.152  13.080   0.950
29062SOL    HW288961   8.226  13.011   1.062
29063SOL     OW88962   4.364   5.577   4.821
29063SOL    HW188963   4.348   5.670   4.803
29063SOL    HW288964   4.379   5.573   4.915
29064SOL     OW88965  11.706   9.337   1.481
29064SOL    HW188966  11.663   9.293   1.407
29064SOL    HW288967  11.797   9.310   1.474
29065SOL     OW88968   1.234  14.196  10.010
29065SOL    HW188969   1.146  14.233  10.001
29065SOL    HW288970   1.292  14.272  10.015
29066SOL     OW88971   6.965   7.198  11.326
29066SOL    HW188972   6.985   7.110  11.294
29066SOL    HW288973   6.900   7.184  11.395
29067SOL     OW88974   5.559  11.989  10.271
29067SOL    HW188975   5.524  11.991  10.360
29067SOL    HW288976   5.565  11.896  10.250
29068SOL     OW88977   2.356   5.515   7.653
29068SOL    HW188978   2.364   5.458   7.729
29068SOL    HW288979   2.342   5.456   7.579
29069SOL     OW88980   2.383   2.876   0.332
29069SOL    HW188981   2.343   2.897   0.416
29069SOL    HW288982   2.348   2.941   0.271
29070SOL     OW88983   1.126   3.025   5.431
29070SOL    HW188984   1.073   3.098   5.399
29070SOL    HW288985   1.076   2.988   5.503
29071SOL     OW88986   6.135   2.383   9.485
29071SOL    HW188987   6.147   2.290   9.464
29071SOL    HW288988   6.216   2.408   9.529
29072SOL     OW88989  13.196   7.623   5.654
29072SOL    HW188990  13.168   7.541   5.695
29072SOL    HW288991  13.156   7.622   5.567
29073SOL     OW88992   6.050  11.812  10.098
29073SOL    HW188993   6.036  11.818  10.192
29073SOL    HW288994   6.051  11.718  10.079
29074SOL     OW88995  10.217   6.366   0.176
29074SOL    HW188996  10.201   6.448   0.224
29074SOL    HW288997  10.185   6.383   0.088
29075SOL     OW88998  12.548  12.617  14.071
29075SOL    HW188999  12.463  12.657  14.054
29075SOL    HW289000  12.529  12.546  14.132
29076SOL     OW89001   3.864  14.106   0.434
29076SOL    HW189002   3.946  14.149   0.462
29076SOL    HW289003   3.830  14.066   0.514
29077SOL     OW89004   1.766   3.614   7.007
29077SOL    HW189005   1.795   3.705   6.999
29077SOL    HW289006   1.674   3.616   6.980
29078SOL     OW89007   5.935   4.497   4.142
29078SOL    HW189008   5.897   4.527   4.060
29078SOL    HW289009   5.984   4.418   4.118
29079SOL     OW89010   8.177  11.967  14.019
29079SOL    HW189011   8.243  12.009  13.963
29079SOL    HW289012   8.114  11.929  13.957
29080SOL     OW89013  10.336  10.501  13.050
29080SOL    HW189014  10.300  10.449  12.979
29080SOL    HW289015  10.349  10.588  13.012
29081SOL     OW89016   8.948  11.793   3.725
29081SOL    HW189017   9.038  11.820   3.705
29081SOL    HW289018   8.939  11.708   3.682
29082SOL     OW89019   8.149  10.984   3.964
29082SOL    HW189020   8.076  10.952   4.017
29082SOL    HW289021   8.192  10.905   3.932
29083SOL     OW89022   2.896   9.370  11.071
29083SOL    HW189023   2.854   9.404  10.992
29083SOL    HW289024   2.914   9.447  11.125
29084SOL     OW89025   3.658  14.674  12.213
29084SOL    HW189026   3.644  14.623  12.292
29084SOL    HW289027   3.576  14.722  12.201
29085SOL     OW89028   9.049  10.646   4.525
29085SOL    HW189029   9.131  10.621   4.567
29085SOL    HW289030   9.007  10.564   4.502
29086SOL     OW89031   1.062   2.530   3.895
29086SOL    HW189032   1.065   2.624   3.874
29086SOL    HW289033   1.087   2.526   3.988
29087SOL     OW89034  11.752   2.460   0.001
29087SOL    HW189035  11.786   2.547  14.858
29087SOL    HW289036  11.669   2.455  14.831
29088SOL     OW89037  12.637  13.095   8.815
29088SOL    HW189038  12.696  13.050   8.754
29088SOL    HW289039  12.657  13.058   8.900
29089SOL     OW89040   0.369  13.665   3.164
29089SOL    HW189041   0.345  13.631   3.078
29089SOL    HW289042   0.458  13.699   3.152
29090SOL     OW89043  11.984   6.312  11.372
29090SOL    HW189044  11.928   6.241  11.340
29090SOL    HW289045  11.927   6.389  11.372
29091SOL     OW89046  12.678   4.904   4.266
29091SOL    HW189047  12.770   4.894   4.291
29091SOL    HW289048  12.670   4.852   4.186
29092SOL     OW89049  10.351   6.881   2.903
29092SOL    HW189050  10.308   6.966   2.904
29092SOL    HW289051  10.302   6.828   2.966
29093SOL     OW89052   8.055   9.010   6.712
29093SOL    HW189053   7.970   8.999   6.755
29093SOL    HW289054   8.116   9.026   6.783
29094SOL     OW89055   6.557   2.776   0.416
29094SOL    HW189056   6.479   2.832   0.419
29094SOL    HW289057   6.618   2.824   0.360
29095SOL     OW89058   4.011   5.920  13.524
29095SOL    HW189059   3.991   6.012  13.541
29095SOL    HW289060   3.928   5.882  13.496
29096SOL     OW89061   4.917   5.602   1.083
29096SOL    HW189062   4.927   5.550   1.003
29096SOL    HW289063   4.822   5.616   1.090
29097SOL     OW89064  11.029   5.292   7.453
29097SOL    HW189065  10.967   5.337   7.394
29097SOL    HW289066  11.113   5.334   7.435
29098SOL     OW89067   5.561   2.324   2.157
29098SOL    HW189068   5.513   2.366   2.228
29098SOL    HW289069   5.650   2.358   2.165
29099SOL     OW89070  11.211  12.013   3.618
29099SOL    HW189071  11.233  12.001   3.711
29099SOL    HW289072  11.180  12.104   3.613
29100SOL     OW89073   3.027   2.110   6.412
29100SOL    HW189074   2.949   2.129   6.360
29100SOL    HW289075   3.100   2.117   6.350
29101SOL     OW89076   0.014   1.309   0.098
29101SOL    HW189077  14.871   1.361   0.020
29101SOL    HW289078   0.095   1.263   0.076
29102SOL     OW89079   0.538   7.720  11.095
29102SOL    HW189080   0.633   7.713  11.087
29102SOL    HW289081   0.524   7.807  11.130
29103SOL     OW89082   7.963   3.872   5.468
29103SOL    HW189083   8.033   3.923   5.426
29103SOL    HW289084   7.957   3.908   5.556
29104SOL     OW89085   5.488   3.747   8.254
29104SOL    HW189086   5.485   3.792   8.339
29104SOL    HW289087   5.581   3.742   8.232
29105SOL     OW89088  11.695   1.038  11.812
29105SOL    HW189089  11.628   0.983  11.852
29105SOL    HW289090  11.713   1.106  11.877
29106SOL     OW89091   9.858   1.780   7.299
29106SOL    HW189092   9.900   1.751   7.380
29106SOL    HW289093   9.852   1.702   7.245
29107SOL     OW89094   2.809  14.652   9.931
29107SOL    HW189095   2.884  14.621   9.880
29107SOL    HW289096   2.786  14.735   9.889
29108SOL     OW89097  14.338   0.995  10.725
29108SOL    HW189098  14.348   0.937  10.800
29108SOL    HW289099  14.354   0.938  10.649
29109SOL     OW89100   4.410   6.022   3.074
29109SOL    HW189101   4.468   6.014   3.149
29109SOL    HW289102   4.375   5.934   3.060
29110SOL     OW89103   1.071   7.977   9.444
29110SOL    HW189104   1.010   7.938   9.382
29110SOL    HW289105   1.157   7.945   9.417
29111SOL     OW89106   1.926   9.704   0.239
29111SOL    HW189107   1.956   9.615   0.259
29111SOL    HW289108   1.975   9.760   0.301
29112SOL     OW89109   1.913   3.876   4.433
29112SOL    HW189110   1.895   3.795   4.480
29112SOL    HW289111   1.886   3.945   4.494
29113SOL     OW89112   8.932   6.769  10.720
29113SOL    HW189113   8.920   6.758  10.626
29113SOL    HW289114   8.858   6.822  10.748
29114SOL     OW89115   6.159  12.643   5.852
29114SOL    HW189116   6.154  12.608   5.763
29114SOL    HW289117   6.252  12.637   5.874
29115SOL     OW89118   3.181   7.025   6.535
29115SOL    HW189119   3.197   6.931   6.549
29115SOL    HW289120   3.088   7.030   6.516
29116SOL     OW89121  12.296   9.464   5.084
29116SOL    HW189122  12.353   9.388   5.072
29116SOL    HW289123  12.343   9.536   5.042
29117SOL     OW89124   8.563   5.241  12.553
29117SOL    HW189125   8.470   5.261  12.552
29117SOL    HW289126   8.592   5.263  12.641
29118SOL     OW89127   6.028  14.431  10.859
29118SOL    HW189128   5.936  14.408  10.873
29118SOL    HW289129   6.027  14.484  10.779
29119SOL     OW89130   7.033   0.459   8.283
29119SOL    HW189131   7.093   0.531   8.261
29119SOL    HW289132   6.973   0.497   8.347
29120SOL     OW89133   0.572  11.325   2.060
29120SOL    HW189134   0.506  11.395   2.054
29120SOL    HW289135   0.545  11.261   1.995
29121SOL     OW89136   7.971   8.666   5.903
29121SOL    HW189137   8.063   8.689   5.917
29121SOL    HW289138   7.964   8.575   5.931
29122SOL     OW89139   8.713   4.670  11.692
29122SOL    HW189140   8.667   4.658  11.609
29122SOL    HW289141   8.777   4.739  11.675
29123SOL     OW89142  10.473  10.344   1.945
29123SOL    HW189143  10.567  10.326   1.951
29123SOL    HW289144  10.433  10.258   1.933
29124SOL     OW89145  13.262   5.853   8.884
29124SOL    HW189146  13.343   5.851   8.833
29124SOL    HW289147  13.245   5.946   8.899
29125SOL     OW89148   5.892   4.984   6.980
29125SOL    HW189149   5.976   4.939   6.990
29125SOL    HW289150   5.877   5.026   7.064
29126SOL     OW89151  12.222  12.917  14.446
29126SOL    HW189152  12.253  13.006  14.425
29126SOL    HW289153  12.192  12.923  14.537
29127SOL     OW89154  11.100   8.862  13.752
29127SOL    HW189155  11.089   8.776  13.711
29127SOL    HW289156  11.113   8.922  13.679
29128SOL     OW89157  13.720   2.830  10.948
29128SOL    HW189158  13.631   2.851  10.975
29128SOL    HW289159  13.768   2.912  10.956
29129SOL     OW89160  14.000   6.420   0.464
29129SOL    HW189161  13.996   6.478   0.388
29129SOL    HW289162  13.925   6.446   0.518
29130SOL     OW89163   1.789   2.513   1.306
29130SOL    HW189164   1.707   2.536   1.262
29130SOL    HW289165   1.828   2.446   1.250
29131SOL     OW89166   1.662   9.390   2.188
29131SOL    HW189167   1.574   9.366   2.216
29131SOL    HW289168   1.687   9.462   2.247
29132SOL     OW89169   4.443  13.484   7.711
29132SOL    HW189170   4.427  13.577   7.695
29132SOL    HW289171   4.406  13.440   7.635
29133SOL     OW89172  14.829   0.351   9.732
29133SOL    HW189173  14.741   0.334   9.765
29133SOL    HW289174  14.840   0.288   9.661
29134SOL     OW89175   4.861  12.173  11.457
29134SOL    HW189176   4.851  12.098  11.398
29134SOL    HW289177   4.926  12.228  11.413
29135SOL     OW89178   5.002  11.643   4.076
29135SOL    HW189179   4.994  11.732   4.112
29135SOL    HW289180   5.004  11.656   3.981
29136SOL     OW89181  14.130   1.820   4.871
29136SOL    HW189182  14.112   1.780   4.786
29136SOL    HW289183  14.052   1.872   4.891
29137SOL     OW89184   9.903   1.609   5.803
29137SOL    HW189185   9.826   1.616   5.860
29137SOL    HW289186   9.931   1.699   5.789
29138SOL     OW89187   7.108   0.790   1.570
29138SOL    HW189188   7.023   0.785   1.614
29138SOL    HW289189   7.090   0.761   1.480
29139SOL     OW89190   6.075   3.179   7.309
29139SOL    HW189191   6.055   3.262   7.352
29139SOL    HW289192   6.157   3.150   7.349
29140SOL     OW89193   3.857   1.387  14.760
29140SOL    HW189194   3.902   1.364  14.678
29140SOL    HW289195   3.910   1.346  14.828
29141SOL     OW89196  13.262   3.952   3.567
29141SOL    HW189197  13.319   3.877   3.584
29141SOL    HW289198  13.290   3.984   3.481
29142SOL     OW89199  14.283  12.030   8.963
29142SOL    HW189200  14.304  12.045   9.055
29142SOL    HW289201  14.225  11.953   8.964
29143SOL     OW89202   1.638   4.811   0.749
29143SOL    HW189203   1.732   4.790   0.750
29143SOL    HW289204   1.635   4.906   0.762
29144SOL     OW89205   0.867   5.296   9.376
29144SOL    HW189206   0.953   5.275   9.338
29144SOL    HW289207   0.807   5.295   9.301
29145SOL     OW89208  10.548   5.843   9.380
29145SOL    HW189209  10.524   5.927   9.343
29145SOL    HW289210  10.630   5.860   9.427
29146SOL     OW89211   9.915   7.861   6.911
29146SOL    HW189212   9.942   7.772   6.889
29146SOL    HW289213   9.964   7.917   6.850
29147SOL     OW89214   7.916  13.065   4.094
29147SOL    HW189215   7.883  13.152   4.072
29147SOL    HW289216   7.903  13.057   4.189
29148SOL     OW89217   8.099   9.693  10.957
29148SOL    HW189218   8.036   9.660  11.020
29148SOL    HW289219   8.178   9.710  11.009
29149SOL     OW89220   4.663   8.818  12.964
29149SOL    HW189221   4.583   8.867  12.982
29149SOL    HW289222   4.720   8.881  12.918
29150SOL     OW89223   0.934   0.494   9.327
29150SOL    HW189224   0.958   0.566   9.386
29150SOL    HW289225   0.939   0.416   9.381
29151SOL     OW89226   7.142   2.316   8.228
29151SOL    HW189227   7.204   2.273   8.286
29151SOL    HW289228   7.109   2.390   8.280
29152SOL     OW89229   9.398   9.937  11.948
29152SOL    HW189230   9.480   9.932  11.998
29152SOL    HW289231   9.333   9.892  12.002
29153SOL     OW89232   4.813   1.119  13.805
29153SOL    HW189233   4.877   1.189  13.792
29153SOL    HW289234   4.833   1.085  13.893
29154SOL     OW89235  13.928   9.869   7.234
29154SOL    HW189236  13.962   9.870   7.323
29154SOL    HW289237  13.990   9.813   7.186
29155SOL     OW89238   5.659  13.618  11.081
29155SOL    HW189239   5.662  13.532  11.041
29155SOL    HW289240   5.572  13.625  11.119
29156SOL     OW89241   3.079  10.125   9.241
29156SOL    HW189242   3.062  10.209   9.283
29156SOL    HW289243   3.136  10.147   9.167
29157SOL     OW89244  12.714   5.124   5.098
29157SOL    HW189245  12.687   5.135   5.007
29157SOL    HW289246  12.726   5.030   5.109
29158SOL     OW89247  12.804   1.694   9.473
29158SOL    HW189248  12.789   1.694   9.378
29158SOL    HW289249  12.766   1.777   9.503
29159SOL     OW89250   1.086  10.663  13.353
29159SOL    HW189251   1.073  10.752  13.322
29159SOL    HW289252   1.118  10.672  13.443
29160SOL     OW89253  11.567   4.792  11.776
29160SOL    HW189254  11.483   4.837  11.762
29160SOL    HW289255  11.630   4.863  11.789
29161SOL     OW89256  10.345   8.154  14.086
29161SOL    HW189257  10.357   8.202  14.168
29161SOL    HW289258  10.418   8.183  14.031
29162SOL     OW89259   3.313   4.076  10.459
29162SOL    HW189260   3.319   4.171  10.445
29162SOL    HW289261   3.306   4.039  10.371
29163SOL     OW89262   1.154   9.359   3.991
29163SOL    HW189263   1.188   9.426   3.931
29163SOL    HW289264   1.127   9.409   4.068
29164SOL     OW89265   3.269  12.925   1.409
29164SOL    HW189266   3.183  12.944   1.447
29164SOL    HW289267   3.283  12.995   1.345
29165SOL     OW89268   5.522   1.710   2.304
29165SOL    HW189269   5.570   1.722   2.386
29165SOL    HW289270   5.497   1.618   2.303
29166SOL     OW89271  13.343   9.709   1.304
29166SOL    HW189272  13.323   9.802   1.304
29166SOL    HW289273  13.369   9.689   1.214
29167SOL     OW89274   8.719   5.916   2.293
29167SOL    HW189275   8.667   5.996   2.300
29167SOL    HW289276   8.701   5.883   2.205
29168SOL     OW89277   7.695  10.340   6.813
29168SOL    HW189278   7.618  10.363   6.864
29168SOL    HW289279   7.670  10.356   6.722
29169SOL     OW89280   4.335   7.818  14.095
29169SOL    HW189281   4.380   7.858  14.169
29169SOL    HW289282   4.405   7.797  14.033
29170SOL     OW89283  14.110   1.155   6.017
29170SOL    HW189284  14.153   1.071   6.000
29170SOL    HW289285  14.042   1.161   5.950
29171SOL     OW89286   2.078   3.233  11.152
29171SOL    HW189287   2.056   3.295  11.221
29171SOL    HW289288   2.155   3.186  11.185
29172SOL     OW89289   5.830  12.637   9.925
29172SOL    HW189290   5.857  12.715   9.877
29172SOL    HW289291   5.781  12.586   9.862
29173SOL     OW89292  11.204   1.218   0.797
29173SOL    HW189293  11.147   1.146   0.770
29173SOL    HW289294  11.187   1.288   0.735
29174SOL     OW89295  13.482   9.467   0.146
29174SOL    HW189296  13.523   9.521   0.079
29174SOL    HW289297  13.477   9.524   0.223
29175SOL     OW89298   2.534   8.831   1.764
29175SOL    HW189299   2.498   8.745   1.787
29175SOL    HW289300   2.489   8.854   1.683
29176SOL     OW89301   4.742   9.183   2.828
29176SOL    HW189302   4.785   9.230   2.757
29176SOL    HW289303   4.699   9.109   2.785
29177SOL     OW89304  10.701   8.318   8.508
29177SOL    HW189305  10.693   8.239   8.561
29177SOL    HW289306  10.688   8.289   8.418
29178SOL     OW89307   7.210  14.457  13.324
29178SOL    HW189308   7.272  14.424  13.389
29178SOL    HW289309   7.149  14.512  13.374
29179SOL     OW89310   3.103  11.727  14.876
29179SOL    HW189311   3.129  11.708  14.786
29179SOL    HW289312   3.112  11.644   0.045
29180SOL     OW89313  10.704  10.043  13.993
29180SOL    HW189314  10.778  10.094  13.960
29180SOL    HW289315  10.639  10.108  14.018
29181SOL     OW89316  13.138   1.323   3.441
29181SOL    HW189317  13.053   1.307   3.400
29181SOL    HW289318  13.190   1.363   3.372
29182SOL     OW89319   5.678  11.922   8.975
29182SOL    HW189320   5.627  11.860   8.923
29182SOL    HW289321   5.733  11.867   9.030
29183SOL     OW89322  12.198  13.224  10.595
29183SOL    HW189323  12.149  13.146  10.569
29183SOL    HW289324  12.247  13.196  10.672
29184SOL     OW89325  13.173   9.193  10.765
29184SOL    HW189326  13.140   9.264  10.820
29184SOL    HW289327  13.108   9.123  10.773
29185SOL     OW89328  11.446   0.015   5.724
29185SOL    HW189329  11.357   0.042   5.703
29185SOL    HW289330  11.496   0.035   5.645
29186SOL     OW89331   1.486   4.003  13.885
29186SOL    HW189332   1.531   3.925  13.916
29186SOL    HW289333   1.546   4.042  13.822
29187SOL     OW89334  11.653   7.608   4.933
29187SOL    HW189335  11.610   7.540   4.881
29187SOL    HW289336  11.742   7.576   4.944
29188SOL     OW89337   5.154  12.417   9.326
29188SOL    HW189338   5.139  12.441   9.235
29188SOL    HW289339   5.249  12.420   9.337
29189SOL     OW89340   9.676   6.304  12.339
29189SOL    HW189341   9.685   6.372  12.406
29189SOL    HW289342   9.766   6.284  12.313
29190SOL     OW89343   1.043   9.709   0.844
29190SOL    HW189344   1.106   9.779   0.823
29190SOL    HW289345   1.075   9.633   0.797
29191SOL     OW89346   0.301  10.638  11.170
29191SOL    HW189347   0.258  10.672  11.092
29191SOL    HW289348   0.372  10.584  11.137
29192SOL     OW89349   9.460  13.959   2.338
29192SOL    HW189350   9.457  13.906   2.258
29192SOL    HW289351   9.553  13.977   2.352
29193SOL     OW89352   9.813   7.716   3.081
29193SOL    HW189353   9.816   7.650   3.012
29193SOL    HW289354   9.905   7.733   3.102
29194SOL     OW89355   0.673   7.614   8.044
29194SOL    HW189356   0.657   7.546   8.110
29194SOL    HW289357   0.617   7.687   8.072
29195SOL     OW89358   2.433  11.573  13.503
29195SOL    HW189359   2.523  11.582  13.534
29195SOL    HW289360   2.432  11.492  13.452
29196SOL     OW89361   6.546   3.865   4.369
29196SOL    HW189362   6.584   3.848   4.282
29196SOL    HW289363   6.517   3.779   4.399
29197SOL     OW89364  10.308  13.892   1.033
29197SOL    HW189365  10.348  13.935   1.109
29197SOL    HW289366  10.270  13.964   0.983
29198SOL     OW89367   7.143   2.090   8.436
29198SOL    HW189368   7.102   2.139   8.507
29198SOL    HW289369   7.076   2.028   8.408
29199SOL     OW89370  13.219   6.597  11.866
29199SOL    HW189371  13.292   6.594  11.804
29199SOL    HW289372  13.237   6.525  11.927
29200SOL     OW89373   3.923  14.847  10.039
29200SOL    HW189374   3.956  14.780  10.098
29200SOL    HW289375   3.840  14.874  10.078
29201SOL     OW89376   5.902   5.337  12.650
29201SOL    HW189377   5.821   5.306  12.610
29201SOL    HW289378   5.947   5.257  12.679
29202SOL     OW89379   1.710  13.140   5.456
29202SOL    HW189380   1.705  13.223   5.503
29202SOL    HW289381   1.679  13.075   5.519
29203SOL     OW89382   9.726   0.332   5.608
29203SOL    HW189383   9.742   0.238   5.596
29203SOL    HW289384   9.811   0.369   5.627
29204SOL     OW89385   9.157   5.178   1.027
29204SOL    HW189386   9.116   5.092   1.012
29204SOL    HW289387   9.185   5.175   1.118
29205SOL     OW89388   9.365   2.771  13.313
29205SOL    HW189389   9.361   2.856  13.356
29205SOL    HW289390   9.341   2.789  13.222
29206SOL     OW89391   9.641   8.732   4.402
29206SOL    HW189392   9.615   8.801   4.463
29206SOL    HW289393   9.665   8.659   4.458
29207SOL     OW89394   6.518   0.504  14.756
29207SOL    HW189395   6.547   0.560  14.828
29207SOL    HW289396   6.522   0.415  14.792
29208SOL     OW89397   4.422   2.652  13.165
29208SOL    HW189398   4.338   2.634  13.122
29208SOL    HW289399   4.435   2.746  13.155
29209SOL     OW89400   1.432   4.688   5.400
29209SOL    HW189401   1.369   4.701   5.330
29209SOL    HW289402   1.410   4.754   5.466
29210SOL     OW89403  14.116   4.260   2.474
29210SOL    HW189404  14.165   4.305   2.405
29210SOL    HW289405  14.087   4.329   2.532
29211SOL     OW89406  10.673  10.737   6.952
29211SOL    HW189407  10.679  10.644   6.928
29211SOL    HW289408  10.687  10.738   7.047
29212SOL     OW89409  12.630   5.384   6.985
29212SOL    HW189410  12.561   5.318   6.975
29212SOL    HW289411  12.639   5.423   6.898
29213SOL     OW89412   3.403   1.871  14.187
29213SOL    HW189413   3.383   1.964  14.201
29213SOL    HW289414   3.339   1.842  14.122
29214SOL     OW89415   3.948  13.237   2.170
29214SOL    HW189416   3.984  13.313   2.124
29214SOL    HW289417   4.020  13.174   2.173
29215SOL     OW89418   1.354   8.717  10.535
29215SOL    HW189419   1.444   8.741  10.555
29215SOL    HW289420   1.301   8.772  10.592
29216SOL     OW89421   2.517  14.507   7.652
29216SOL    HW189422   2.439  14.518   7.706
29216SOL    HW289423   2.487  14.522   7.563
29217SOL     OW89424  12.357   5.308  11.617
29217SOL    HW189425  12.440   5.355  11.623
29217SOL    HW289426  12.369   5.232  11.674
29218SOL     OW89427   0.471   1.720   8.611
29218SOL    HW189428   0.520   1.788   8.563
29218SOL    HW289429   0.526   1.642   8.604
29219SOL     OW89430   1.380  14.261   2.408
29219SOL    HW189431   1.396  14.339   2.460
29219SOL    HW289432   1.394  14.288   2.317
29220SOL     OW89433   5.383   5.529   3.948
29220SOL    HW189434   5.460   5.584   3.958
29220SOL    HW289435   5.401   5.453   4.005
29221SOL     OW89436   0.985   1.726   5.399
29221SOL    HW189437   0.925   1.772   5.341
29221SOL    HW289438   1.071   1.762   5.378
29222SOL     OW89439   1.850  14.325   3.489
29222SOL    HW189440   1.777  14.269   3.463
29222SOL    HW289441   1.826  14.412   3.455
29223SOL     OW89442  10.325   7.127  12.031
29223SOL    HW189443  10.321   7.082  12.115
29223SOL    HW289444  10.310   7.219  12.051
29224SOL     OW89445   5.738   2.205  12.490
29224SOL    HW189446   5.698   2.285  12.457
29224SOL    HW289447   5.789   2.233  12.566
29225SOL     OW89448  11.231   0.124   1.940
29225SOL    HW189449  11.197   0.040   1.909
29225SOL    HW289450  11.155   0.181   1.946
29226SOL     OW89451  10.817   2.892  10.479
29226SOL    HW189452  10.805   2.797  10.484
29226SOL    HW289453  10.834   2.909  10.386
29227SOL     OW89454   8.303  14.515   1.283
29227SOL    HW189455   8.257  14.597   1.299
29227SOL    HW289456   8.284  14.462   1.360
29228SOL     OW89457   6.685   3.102   7.036
29228SOL    HW189458   6.625   3.078   7.107
29228SOL    HW289459   6.693   3.022   6.984
29229SOL     OW89460   3.372   1.298  11.977
29229SOL    HW189461   3.454   1.250  11.990
29229SOL    HW289462   3.401   1.386  11.951
29230SOL     OW89463   7.608   0.617   4.869
29230SOL    HW189464   7.622   0.698   4.820
29230SOL    HW289465   7.518   0.622   4.899
29231SOL     OW89466   9.477   5.953   0.848
29231SOL    HW189467   9.493   6.044   0.871
29231SOL    HW289468   9.552   5.905   0.885
29232SOL     OW89469   5.769   3.739  10.099
29232SOL    HW189470   5.797   3.652  10.070
29232SOL    HW289471   5.689   3.756  10.050
29233SOL     OW89472   3.286  10.360  14.861
29233SOL    HW189473   3.253  10.273  14.838
29233SOL    HW289474   3.209  10.418  14.854
29234SOL     OW89475   8.312  14.390  14.512
29234SOL    HW189476   8.386  14.335  14.485
29234SOL    HW289477   8.352  14.465  14.555
29235SOL     OW89478   9.030   3.724  11.074
29235SOL    HW189479   8.957   3.663  11.063
29235SOL    HW289480   9.039   3.766  10.988
29236SOL     OW89481   0.730   8.505   4.172
29236SOL    HW189482   0.823   8.517   4.189
29236SOL    HW289483   0.688   8.583   4.208
29237SOL     OW89484  13.264   9.068   6.803
29237SOL    HW189485  13.312   9.118   6.737
29237SOL    HW289486  13.185   9.121   6.820
29238SOL     OW89487  11.633   7.811   7.605
29238SOL    HW189488  11.572   7.865   7.655
29238SOL    HW289489  11.606   7.721   7.625
29239SOL     OW89490  10.632   5.698   7.476
29239SOL    HW189491  10.648   5.604   7.488
29239SOL    HW289492  10.553   5.715   7.526
29240SOL     OW89493   2.820   0.675   4.613
29240SOL    HW189494   2.904   0.637   4.585
29240SOL    HW289495   2.827   0.683   4.708
29241SOL     OW89496   3.436  11.675  14.405
29241SOL    HW189497   3.440  11.600  14.346
29241SOL    HW289498   3.526  11.706  14.411
29242SOL     OW89499   0.607   8.309   7.928
29242SOL    HW189500   0.654   8.228   7.948
29242SOL    HW289501   0.576   8.297   7.838
29243SOL     OW89502  12.419   4.311   4.225
29243SOL    HW189503  12.443   4.385   4.281
29243SOL    HW289504  12.456   4.234   4.269
29244SOL     OW89505  14.772   9.643  10.193
29244SOL    HW189506  14.718   9.657  10.270
29244SOL    HW289507  14.855   9.686  10.214
29245SOL     OW89508   6.572   3.696   5.214
29245SOL    HW189509   6.532   3.760   5.273
29245SOL    HW289510   6.535   3.716   5.128
29246SOL     OW89511   4.243   1.509  12.147
29246SOL    HW189512   4.157   1.542  12.122
29246SOL    HW289513   4.225   1.434  12.203
29247SOL     OW89514  12.047   6.739  14.353
29247SOL    HW189515  12.064   6.657  14.399
29247SOL    HW289516  12.066   6.807  14.418
29248SOL     OW89517   5.186  14.408  13.185
29248SOL    HW189518   5.270  14.453  13.184
29248SOL    HW289519   5.121  14.478  13.188
29249SOL     OW89520   8.328   7.065   0.045
29249SOL    HW189521   8.287   7.142   0.006
29249SOL    HW289522   8.392   7.100   0.106
29250SOL     OW89523   0.048   4.212   4.204
29250SOL    HW189524   0.127   4.163   4.226
29250SOL    HW289525   0.033   4.268   4.280
29251SOL     OW89526   2.746   5.930   8.378
29251SOL    HW189527   2.676   5.986   8.343
29251SOL    HW289528   2.701   5.852   8.409
29252SOL     OW89529   0.882   6.223   7.661
29252SOL    HW189530   0.804   6.270   7.690
29252SOL    HW289531   0.896   6.156   7.729
29253SOL     OW89532  14.755   2.387   1.114
29253SOL    HW189533  14.661   2.404   1.124
29253SOL    HW289534  14.762   2.291   1.112
29254SOL     OW89535   8.417  14.760  10.397
29254SOL    HW189536   8.398  14.814  10.319
29254SOL    HW289537   8.512  14.764  10.405
29255SOL     OW89538   6.318  10.705  10.760
29255SOL    HW189539   6.276  10.622  10.739
29255SOL    HW289540   6.394  10.681  10.812
29256SOL     OW89541  10.991  14.221  10.622
29256SOL    HW189542  10.910  14.268  10.644
29256SOL    HW289543  10.969  14.172  10.543
29257SOL     OW89544   8.317   6.609   0.022
29257SOL    HW189545   8.403   6.578   0.049
29257SOL    HW289546   8.297   6.680   0.082
29258SOL     OW89547   7.773  14.719  11.128
29258SOL    HW189548   7.806  14.788  11.187
29258SOL    HW289549   7.700  14.761  11.081
29259SOL     OW89550   6.838   9.094  13.405
29259SOL    HW189551   6.809   9.036  13.334
29259SOL    HW289552   6.865   9.034  13.475
29260SOL     OW89553   7.733   4.868  10.846
29260SOL    HW189554   7.729   4.773  10.856
29260SOL    HW289555   7.809   4.883  10.790
29261SOL     OW89556  10.828  13.332   4.837
29261SOL    HW189557  10.854  13.364   4.750
29261SOL    HW289558  10.880  13.252   4.849
29262SOL     OW89559  12.848   0.004   4.567
29262SOL    HW189560  12.798  14.861   4.646
29262SOL    HW289561  12.802   0.079   4.528
29263SOL     OW89562   5.743  14.239   1.630
29263SOL    HW189563   5.734  14.160   1.576
29263SOL    HW289564   5.836  14.261   1.625
29264SOL     OW89565   5.084   3.166   5.286
29264SOL    HW189566   5.081   3.185   5.193
29264SOL    HW289567   5.005   3.113   5.302
29265SOL     OW89568  13.700   1.412   8.105
29265SOL    HW189569  13.756   1.347   8.064
29265SOL    HW289570  13.760   1.467   8.156
29266SOL     OW89571   4.316   0.338   7.684
29266SOL    HW189572   4.252   0.382   7.628
29266SOL    HW289573   4.365   0.281   7.625
29267SOL     OW89574  11.833  13.060   4.070
29267SOL    HW189575  11.798  13.148   4.058
29267SOL    HW289576  11.774  13.003   4.021
29268SOL     OW89577   8.263  14.123   8.276
29268SOL    HW189578   8.298  14.052   8.330
29268SOL    HW289579   8.268  14.089   8.186
29269SOL     OW89580  13.779  14.226   3.039
29269SOL    HW189581  13.687  14.234   3.064
29269SOL    HW289582  13.811  14.149   3.087
29270SOL     OW89583   5.234   5.595   9.976
29270SOL    HW189584   5.149   5.608   9.934
29270SOL    HW289585   5.213   5.555  10.061
29271SOL     OW89586   5.477   8.305  13.777
29271SOL    HW189587   5.536   8.240  13.814
29271SOL    HW289588   5.468   8.371  13.846
29272SOL     OW89589   0.927   1.091  14.297
29272SOL    HW189590   0.898   1.173  14.257
29272SOL    HW289591   1.012   1.112  14.334
29273SOL     OW89592   0.292   8.890   5.888
29273SOL    HW189593   0.324   8.969   5.930
29273SOL    HW289594   0.370   8.851   5.849
29274SOL     OW89595   8.812  12.318  14.361
29274SOL    HW189596   8.757  12.339  14.285
29274SOL    HW289597   8.765  12.357  14.435
29275SOL     OW89598   5.066   2.270   8.432
29275SOL    HW189599   5.076   2.365   8.444
29275SOL    HW289600   5.031   2.239   8.516
29276SOL     OW89601  11.153  11.679  11.328
29276SOL    HW189602  11.058  11.673  11.323
29276SOL    HW289603  11.172  11.769  11.303
29277SOL     OW89604   2.432  12.071   8.347
29277SOL    HW189605   2.362  12.137   8.351
29277SOL    HW289606   2.386  11.987   8.343
29278SOL     OW89607  12.795   0.387  13.070
29278SOL    HW189608  12.838   0.466  13.104
29278SOL    HW289609  12.727   0.419  13.012
29279SOL     OW89610   5.357  12.287   1.886
29279SOL    HW189611   5.329  12.346   1.955
29279SOL    HW289612   5.286  12.223   1.878
29280SOL     OW89613   3.703  11.926  14.730
29280SOL    HW189614   3.675  11.901  14.818
29280SOL    HW289615   3.621  11.940  14.682
29281SOL     OW89616  13.612   0.391  12.783
29281SOL    HW189617  13.665   0.453  12.834
29281SOL    HW289618  13.568   0.446  12.718
29282SOL     OW89619  10.330  12.257   0.931
29282SOL    HW189620  10.316  12.296   0.845
29282SOL    HW289621  10.273  12.307   0.990
29283SOL     OW89622   4.170   3.461   0.545
29283SOL    HW189623   4.152   3.491   0.634
29283SOL    HW289624   4.109   3.390   0.530
29284SOL     OW89625   4.336   0.924   0.557
29284SOL    HW189626   4.380   0.845   0.525
29284SOL    HW289627   4.402   0.969   0.609
29285SOL     OW89628   0.790  14.750   2.081
29285SOL    HW189629   0.761  14.661   2.101
29285SOL    HW289630   0.837  14.742   1.998
29286SOL     OW89631   0.423   8.521   7.058
29286SOL    HW189632   0.380   8.450   7.107
29286SOL    HW289633   0.462   8.478   6.983
29287SOL     OW89634   8.687   3.012   7.565
29287SOL    HW189635   8.613   2.994   7.623
29287SOL    HW289636   8.755   3.045   7.623
29288SOL     OW89637  12.009  13.005   1.959
29288SOL    HW189638  11.999  12.931   1.899
29288SOL    HW289639  11.929  13.004   2.012
29289SOL     OW89640  13.600   0.699   2.845
29289SOL    HW189641  13.523   0.711   2.901
29289SOL    HW289642  13.565   0.669   2.762
29290SOL     OW89643   3.647  11.572  13.959
29290SOL    HW189644   3.576  11.636  13.951
29290SOL    HW289645   3.709  11.597  13.891
29291SOL     OW89646   3.050  11.116   4.679
29291SOL    HW189647   2.999  11.179   4.628
29291SOL    HW289648   3.060  11.158   4.765
29292SOL     OW89649   4.775   4.756   7.926
29292SOL    HW189650   4.736   4.843   7.930
29292SOL    HW289651   4.700   4.697   7.919
29293SOL     OW89652  10.530   0.911   9.668
29293SOL    HW189653  10.535   0.816   9.666
29293SOL    HW289654  10.492   0.931   9.754
29294SOL     OW89655  11.393   6.491  11.339
29294SOL    HW189656  11.485   6.511  11.319
29294SOL    HW289657  11.389   6.487  11.434
29295SOL     OW89658   0.987   1.024   2.821
29295SOL    HW189659   0.973   0.946   2.874
29295SOL    HW289660   0.976   0.995   2.731
29296SOL     OW89661  11.918   0.397   2.606
29296SOL    HW189662  11.824   0.395   2.622
29296SOL    HW289663  11.935   0.484   2.571
29297SOL     OW89664  11.135   0.820  10.231
29297SOL    HW189665  11.133   0.867  10.147
29297SOL    HW289666  11.225   0.833  10.263
29298SOL     OW89667   0.360   4.814  14.598
29298SOL    HW189668   0.455   4.824  14.600
29298SOL    HW289669   0.339   4.763  14.677
29299SOL     OW89670  13.597  10.791   1.087
29299SOL    HW189671  13.522  10.851   1.087
29299SOL    HW289672  13.576  10.728   1.018
29300SOL     OW89673   2.924   5.942   7.335
29300SOL    HW189674   2.914   6.037   7.348
29300SOL    HW289675   2.951   5.909   7.421
29301SOL     OW89676  10.127   9.211   5.225
29301SOL    HW189677  10.172   9.173   5.301
29301SOL    HW289678  10.195   9.222   5.159
29302SOL     OW89679   0.670   1.542   5.458
29302SOL    HW189680   0.635   1.512   5.542
29302SOL    HW289681   0.760   1.510   5.456
29303SOL     OW89682   2.034   6.841  14.810
29303SOL    HW189683   2.039   6.876   0.022
29303SOL    HW289684   2.032   6.919  14.754
29304SOL     OW89685   4.896   7.478   9.477
29304SOL    HW189686   4.850   7.562   9.483
29304SOL    HW289687   4.829   7.412   9.494
29305SOL     OW89688   9.340   3.157  10.335
29305SOL    HW189689   9.354   3.141  10.242
29305SOL    HW289690   9.272   3.224  10.337
29306SOL     OW89691   1.011  11.157  12.588
29306SOL    HW189692   0.975  11.130  12.503
29306SOL    HW289693   1.014  11.253  12.583
29307SOL     OW89694   6.020   2.734   5.884
29307SOL    HW189695   5.964   2.807   5.857
29307SOL    HW289696   6.052   2.760   5.971
29308SOL     OW89697   1.601   8.738  10.650
29308SOL    HW189698   1.606   8.772  10.739
29308SOL    HW289699   1.639   8.650  10.656
29309SOL     OW89700   0.988   3.094   4.690
29309SOL    HW189701   1.016   3.077   4.601
29309SOL    HW289702   0.995   3.010   4.735
29310SOL     OW89703   5.543   0.202  10.316
29310SOL    HW189704   5.509   0.202  10.406
29310SOL    HW289705   5.634   0.174  10.325
29311SOL     OW89706  11.205   4.420   4.731
29311SOL    HW189707  11.152   4.343   4.747
29311SOL    HW289708  11.266   4.422   4.805
29312SOL     OW89709   9.984   0.090   0.735
29312SOL    HW189710   9.903   0.054   0.770
29312SOL    HW289711   9.956   0.158   0.674
29313SOL     OW89712  13.652  11.766   8.743
29313SOL    HW189713  13.677  11.848   8.699
29313SOL    HW289714  13.570  11.786   8.787
29314SOL     OW89715   3.775   5.142   2.540
29314SOL    HW189716   3.743   5.133   2.630
29314SOL    HW289717   3.868   5.164   2.550
29315SOL     OW89718   2.892   6.058   2.871
29315SOL    HW189719   2.982   6.030   2.884
29315SOL    HW289720   2.857   6.068   2.960
29316SOL     OW89721   8.371   5.122   5.265
29316SOL    HW189722   8.326   5.194   5.222
29316SOL    HW289723   8.426   5.083   5.197
29317SOL     OW89724   5.489   8.672   9.519
29317SOL    HW189725   5.463   8.588   9.482
29317SOL    HW289726   5.412   8.703   9.566
29318SOL     OW89727   4.245  12.880   0.503
29318SOL    HW189728   4.301  12.858   0.429
29318SOL    HW289729   4.304  12.921   0.567
29319SOL     OW89730   3.106  10.379   6.677
29319SOL    HW189731   3.108  10.296   6.724
29319SOL    HW289732   3.168  10.368   6.605
29320SOL     OW89733  10.288   1.658  14.685
29320SOL    HW189734  10.358   1.593  14.683
29320SOL    HW289735  10.242   1.643  14.768
29321SOL     OW89736   0.325   0.169   1.317
29321SOL    HW189737   0.416   0.193   1.298
29321SOL    HW289738   0.304   0.218   1.396
29322SOL     OW89739  11.758   2.347   5.177
29322SOL    HW189740  11.782   2.437   5.197
29322SOL    HW289741  11.839   2.298   5.188
29323SOL     OW89742  12.371   1.858   8.511
29323SOL    HW189743  12.418   1.887   8.590
29323SOL    HW289744  12.282   1.838   8.542
29324SOL     OW89745   6.265   0.549  14.107
29324SOL    HW189746   6.355   0.564  14.133
29324SOL    HW289747   6.212   0.599  14.169
29325SOL     OW89748   6.881   6.277   6.611
29325SOL    HW189749   6.927   6.199   6.579
29325SOL    HW289750   6.951   6.338   6.633
29326SOL     OW89751  10.798   3.182   7.543
29326SOL    HW189752  10.786   3.258   7.600
29326SOL    HW289753  10.728   3.122   7.569
29327SOL     OW89754   6.425  10.649  11.292
29327SOL    HW189755   6.434  10.635  11.198
29327SOL    HW289756   6.422  10.744  11.303
29328SOL     OW89757  12.455  10.319  10.479
29328SOL    HW189758  12.537  10.305  10.431
29328SOL    HW289759  12.481  10.371  10.555
29329SOL     OW89760  14.498  11.450  14.338
29329SOL    HW189761  14.505  11.370  14.286
29329SOL    HW289762  14.416  11.490  14.309
29330SOL     OW89763   7.761   0.132   3.480
29330SOL    HW189764   7.730   0.075   3.550
29330SOL    HW289765   7.848   0.099   3.458
29331SOL     OW89766  13.682   1.056   1.532
29331SOL    HW189767  13.683   1.124   1.599
29331SOL    HW289768  13.598   1.011   1.544
29332SOL     OW89769  11.460   4.417   2.201
29332SOL    HW189770  11.515   4.362   2.257
29332SOL    HW289771  11.438   4.360   2.126
29333SOL     OW89772   1.100   9.891  11.334
29333SOL    HW189773   1.023   9.842  11.305
29333SOL    HW289774   1.073   9.931  11.417
29334SOL     OW89775   1.986  11.311  12.277
29334SOL    HW189776   2.037  11.252  12.222
29334SOL    HW289777   1.899  11.270  12.282
29335SOL     OW89778   4.019   3.298   0.200
29335SOL    HW189779   4.062   3.232   0.253
29335SOL    HW289780   3.926   3.287   0.220
29336SOL     OW89781   9.093   2.890   6.379
29336SOL    HW189782   9.035   2.850   6.444
29336SOL    HW289783   9.174   2.838   6.384
29337SOL     OW89784   5.453   9.931   1.784
29337SOL    HW189785   5.484  10.002   1.728
29337SOL    HW289786   5.361   9.953   1.801
29338SOL     OW89787   4.858   3.017   6.449
29338SOL    HW189788   4.944   2.993   6.415
29338SOL    HW289789   4.797   2.990   6.380
29339SOL     OW89790   6.808   2.395  13.367
29339SOL    HW189791   6.889   2.398  13.316
29339SOL    HW289792   6.770   2.309  13.347
29340SOL     OW89793  13.684   3.843   6.890
29340SOL    HW189794  13.653   3.802   6.970
29340SOL    HW289795  13.744   3.779   6.851
29341SOL     OW89796   3.449   5.803   7.210
29341SOL    HW189797   3.371   5.844   7.171
29341SOL    HW289798   3.416   5.758   7.287
29342SOL     OW89799   9.268  12.762  13.430
29342SOL    HW189800   9.244  12.832  13.490
29342SOL    HW289801   9.220  12.685  13.462
29343SOL     OW89802   6.334   0.207   1.892
29343SOL    HW189803   6.298   0.277   1.947
29343SOL    HW289804   6.293   0.127   1.924
29344SOL     OW89805   7.721   1.183   6.737
29344SOL    HW189806   7.673   1.101   6.724
29344SOL    HW289807   7.700   1.235   6.659
29345SOL     OW89808   2.109   0.377   1.393
29345SOL    HW189809   2.078   0.396   1.305
29345SOL    HW289810   2.112   0.281   1.397
29346SOL     OW89811  13.997   5.531  12.827
29346SOL    HW189812  14.091   5.548  12.821
29346SOL    HW289813  13.957   5.615  12.805
29347SOL     OW89814   3.553   4.506   6.080
29347SOL    HW189815   3.560   4.597   6.111
29347SOL    HW289816   3.521   4.514   5.991
29348SOL     OW89817   5.124  11.262  14.308
29348SOL    HW189818   5.161  11.184  14.348
29348SOL    HW289819   5.037  11.270  14.348
29349SOL     OW89820   7.919   7.256   7.664
29349SOL    HW189821   8.012   7.250   7.685
29349SOL    HW289822   7.882   7.312   7.733
29350SOL     OW89823   8.268   8.655  11.484
29350SOL    HW189824   8.219   8.689  11.409
29350SOL    HW289825   8.346   8.615  11.446
29351SOL     OW89826   5.371  13.459   7.443
29351SOL    HW189827   5.376  13.390   7.377
29351SOL    HW289828   5.424  13.426   7.515
29352SOL     OW89829  12.862   1.347   3.632
29352SOL    HW189830  12.910   1.278   3.678
29352SOL    HW289831  12.854   1.315   3.543
29353SOL     OW89832  11.704   9.616   7.175
29353SOL    HW189833  11.679   9.529   7.143
29353SOL    HW289834  11.792   9.603   7.210
29354SOL     OW89835  12.029  12.106   8.321
29354SOL    HW189836  11.957  12.168   8.314
29354SOL    HW289837  12.047  12.100   8.415
29355SOL     OW89838  12.555   6.674  13.242
29355SOL    HW189839  12.487   6.659  13.307
29355SOL    HW289840  12.516   6.645  13.159
29356SOL     OW89841   1.576  14.298   1.471
29356SOL    HW189842   1.541  14.228   1.526
29356SOL    HW289843   1.581  14.374   1.529
29357SOL     OW89844  13.767   8.278   2.116
29357SOL    HW189845  13.789   8.271   2.023
29357SOL    HW289846  13.790   8.367   2.140
29358SOL     OW89847   1.415   6.876   8.825
29358SOL    HW189848   1.492   6.855   8.771
29358SOL    HW289849   1.341   6.844   8.773
29359SOL     OW89850   4.170  11.427   3.124
29359SOL    HW189851   4.110  11.354   3.108
29359SOL    HW289852   4.183  11.466   3.038
29360SOL     OW89853   9.057  11.412   7.555
29360SOL    HW189854   9.065  11.342   7.491
29360SOL    HW289855   9.143  11.453   7.557
29361SOL     OW89856  12.702  13.893   6.093
29361SOL    HW189857  12.759  13.879   6.169
29361SOL    HW289858  12.692  13.988   6.088
29362SOL     OW89859   6.009  14.017   2.396
29362SOL    HW189860   6.081  14.054   2.345
29362SOL    HW289861   5.932  14.067   2.369
29363SOL     OW89862   7.307   8.861   2.110
29363SOL    HW189863   7.289   8.858   2.204
29363SOL    HW289864   7.234   8.911   2.074
29364SOL     OW89865   6.927  13.619  14.790
29364SOL    HW189866   6.858  13.586  14.732
29364SOL    HW289867   6.994  13.551  14.788
29365SOL     OW89868  12.225  10.469  12.060
29365SOL    HW189869  12.223  10.560  12.091
29365SOL    HW289870  12.301  10.431  12.104
29366SOL     OW89871   5.541   8.442   9.709
29366SOL    HW189872   5.501   8.526   9.686
29366SOL    HW289873   5.617   8.465   9.762
29367SOL     OW89874  10.809   9.981  14.251
29367SOL    HW189875  10.729   9.980  14.304
29367SOL    HW289876  10.778  10.001  14.162
29368SOL     OW89877   4.375   0.086   4.783
29368SOL    HW189878   4.391   0.057   4.873
29368SOL    HW289879   4.373   0.182   4.789
29369SOL     OW89880   9.627   6.372   0.630
29369SOL    HW189881   9.691   6.361   0.559
29369SOL    HW289882   9.558   6.308   0.611
29370SOL     OW89883  13.186   4.115  10.731
29370SOL    HW189884  13.263   4.123  10.675
29370SOL    HW289885  13.210   4.161  10.812
29371SOL     OW89886   1.124  10.951   0.297
29371SOL    HW189887   1.085  10.922   0.380
29371SOL    HW289888   1.108  10.877   0.237
29372SOL     OW89889  10.552  10.491   6.547
29372SOL    HW189890  10.533  10.406   6.507
29372SOL    HW289891  10.470  10.540   6.536
29373SOL     OW89892   3.168  10.965  13.723
29373SOL    HW189893   3.229  10.897  13.751
29373SOL    HW289894   3.200  10.992  13.636
29374SOL     OW89895  13.645   8.953   9.569
29374SOL    HW189896  13.736   8.982   9.567
29374SOL    HW289897  13.595   9.031   9.548
29375SOL     OW89898   5.302   4.584   1.030
29375SOL    HW189899   5.307   4.517   0.962
29375SOL    HW289900   5.391   4.616   1.040
29376SOL     OW89901   6.896   6.492   5.267
29376SOL    HW189902   6.974   6.541   5.241
29376SOL    HW289903   6.885   6.513   5.360
29377SOL     OW89904   2.663   0.861   8.235
29377SOL    HW189905   2.571   0.840   8.250
29377SOL    HW289906   2.699   0.784   8.191
29378SOL     OW89907   0.227   8.247   5.551
29378SOL    HW189908   0.141   8.212   5.573
29378SOL    HW289909   0.241   8.317   5.613
29379SOL     OW89910  10.071   1.470  14.585
29379SOL    HW189911  10.137   1.402  14.583
29379SOL    HW289912  10.120   1.552  14.578
29380SOL     OW89913   1.658   1.361  13.201
29380SOL    HW189914   1.626   1.398  13.283
29380SOL    HW289915   1.727   1.300  13.229
29381SOL     OW89916  12.443   0.778  13.723
29381SOL    HW189917  12.392   0.842  13.774
29381SOL    HW289918  12.377   0.722  13.683
29382SOL     OW89919   3.820  14.036   7.665
29382SOL    HW189920   3.869  14.073   7.591
29382SOL    HW289921   3.729  14.038   7.636
29383SOL     OW89922   2.182  14.274  14.617
29383SOL    HW189923   2.274  14.276  14.644
29383SOL    HW289924   2.133  14.271  14.699
29384SOL     OW89925  14.776  14.746   4.395
29384SOL    HW189926  14.844  14.738   4.328
29384SOL    HW289927  14.757  14.656   4.421
29385SOL     OW89928   3.407   2.499  14.250
29385SOL    HW189929   3.439   2.585  14.277
29385SOL    HW289930   3.312   2.508  14.252
29386SOL     OW89931   6.696  11.051   3.324
29386SOL    HW189932   6.630  11.111   3.289
29386SOL    HW289933   6.682  11.052   3.418
29387SOL     OW89934   2.600  14.430   9.091
29387SOL    HW189935   2.530  14.364   9.091
29387SOL    HW289936   2.654  14.407   9.015
29388SOL     OW89937  11.826   2.445  11.620
29388SOL    HW189938  11.861   2.379  11.679
29388SOL    HW289939  11.734   2.423  11.610
29389SOL     OW89940   6.150  12.864   3.815
29389SOL    HW189941   6.074  12.881   3.869
29389SOL    HW289942   6.143  12.926   3.742
29390SOL     OW89943  14.424  12.641  12.094
29390SOL    HW189944  14.385  12.569  12.044
29390SOL    HW289945  14.359  12.711  12.088
29391SOL     OW89946  11.985  11.369   4.967
29391SOL    HW189947  12.037  11.307   4.916
29391SOL    HW289948  12.036  11.450   4.966
29392SOL     OW89949   0.702   3.479  14.429
29392SOL    HW189950   0.747   3.395  14.420
29392SOL    HW289951   0.756   3.528  14.491
29393SOL     OW89952  13.397  10.305   8.958
29393SOL    HW189953  13.486  10.276   8.939
29393SOL    HW289954  13.344  10.271   8.886
29394SOL     OW89955   2.711   2.479   0.526
29394SOL    HW189956   2.632   2.532   0.528
29394SOL    HW289957   2.780   2.539   0.498
29395SOL     OW89958   8.443   2.506  13.541
29395SOL    HW189959   8.398   2.421  13.535
29395SOL    HW289960   8.479   2.508  13.629
29396SOL     OW89961   0.647  11.294   8.775
29396SOL    HW189962   0.690  11.302   8.860
29396SOL    HW289963   0.559  11.262   8.795
29397SOL     OW89964   4.944  11.660   5.986
29397SOL    HW189965   4.869  11.633   6.038
29397SOL    HW289966   4.951  11.592   5.918
29398SOL     OW89967   0.094  12.278   2.167
29398SOL    HW189968   0.078  12.297   2.075
29398SOL    HW289969   0.184  12.245   2.170
29399SOL     OW89970  10.148  10.645   8.746
29399SOL    HW189971  10.127  10.659   8.838
29399SOL    HW289972  10.094  10.708   8.698
29400SOL     OW89973  14.165   5.233   3.184
29400SOL    HW189974  14.156   5.246   3.279
29400SOL    HW289975  14.114   5.304   3.145
29401SOL     OW89976   7.244   5.573  11.661
29401SOL    HW189977   7.218   5.486  11.629
29401SOL    HW289978   7.177   5.632  11.626
29402SOL     OW89979   6.334   6.214   5.353
29402SOL    HW189980   6.258   6.173   5.311
29402SOL    HW289981   6.408   6.192   5.296
29403SOL     OW89982   6.592   7.867   2.939
29403SOL    HW189983   6.588   7.888   2.846
29403SOL    HW289984   6.503   7.840   2.962
29404SOL     OW89985  13.594  14.017   0.226
29404SOL    HW189986  13.604  14.029   0.320
29404SOL    HW289987  13.643  14.089   0.186
29405SOL     OW89988  12.641   0.178   6.781
29405SOL    HW189989  12.675   0.231   6.852
29405SOL    HW289990  12.546   0.179   6.793
29406SOL     OW89991   0.178   2.112   8.767
29406SOL    HW189992   0.105   2.089   8.709
29406SOL    HW289993   0.231   2.033   8.771
29407SOL     OW89994  11.712  14.230  13.523
29407SOL    HW189995  11.679  14.141  13.532
29407SOL    HW289996  11.658  14.268  13.453
29408SOL     OW89997   3.819   7.255   2.884
29408SOL    HW189998   3.774   7.174   2.907
29408SOL    HW289999   3.855   7.239   2.796
29409SOL     OW90000   8.061   7.903   3.359
29409SOL    HW190001   8.103   7.891   3.274
29409SOL    HW290002   7.967   7.900   3.339
29410SOL     OW90003   8.641   1.679  11.671
29410SOL    HW190004   8.577   1.704  11.737
29410SOL    HW290005   8.619   1.588  11.649
29411SOL     OW90006   4.153   2.665   7.880
29411SOL    HW190007   4.224   2.643   7.820
29411SOL    HW290008   4.079   2.686   7.823
29412SOL     OW90009   9.284   7.034  11.030
29412SOL    HW190010   9.295   7.050  10.937
29412SOL    HW290011   9.191   7.011  11.040
29413SOL     OW90012   5.066   9.596   1.726
29413SOL    HW190013   5.156   9.621   1.705
29413SOL    HW290014   5.075   9.522   1.786
29414SOL     OW90015   2.487   9.993   8.427
29414SOL    HW190016   2.424  10.049   8.382
29414SOL    HW290017   2.571  10.039   8.418
29415SOL     OW90018  14.608   3.139   9.578
29415SOL    HW190019  14.628   3.119   9.670
29415SOL    HW290020  14.643   3.227   9.564
29416SOL     OW90021  10.854   6.240   0.289
29416SOL    HW190022  10.850   6.311   0.226
29416SOL    HW290023  10.795   6.173   0.255
29417SOL     OW90024   5.769  10.809   9.667
29417SOL    HW190025   5.863  10.823   9.680
29417SOL    HW290026   5.729  10.849   9.744
29418SOL     OW90027  13.113  13.109   3.450
29418SOL    HW190028  13.050  13.150   3.390
29418SOL    HW290029  13.193  13.160   3.439
29419SOL     OW90030   1.481   1.026   2.855
29419SOL    HW190031   1.569   1.043   2.819
29419SOL    HW290032   1.424   1.024   2.779
29420SOL     OW90033   2.623   3.831   9.866
29420SOL    HW190034   2.692   3.896   9.849
29420SOL    HW290035   2.613   3.785   9.783
29421SOL     OW90036   6.338   2.543  12.150
29421SOL    HW190037   6.344   2.468  12.091
29421SOL    HW290038   6.376   2.513  12.232
29422SOL     OW90039  11.146   9.714   0.936
29422SOL    HW190040  11.227   9.719   0.886
29422SOL    HW290041  11.084   9.769   0.887
29423SOL     OW90042   8.253   3.496  11.774
29423SOL    HW190043   8.260   3.527  11.684
29423SOL    HW290044   8.160   3.502  11.795
29424SOL     OW90045  13.575   7.533   9.563
29424SOL    HW190046  13.539   7.551   9.476
29424SOL    HW290047  13.634   7.607   9.580
29425SOL     OW90048   4.821   0.247  12.854
29425SOL    HW190049   4.868   0.208  12.927
29425SOL    HW290050   4.882   0.312  12.819
29426SOL     OW90051   4.786   8.632   4.050
29426SOL    HW190052   4.724   8.561   4.035
29426SOL    HW290053   4.825   8.649   3.964
29427SOL     OW90054  13.287   3.034  10.803
29427SOL    HW190055  13.241   3.097  10.748
29427SOL    HW290056  13.282   2.952  10.754
29428SOL     OW90057   6.619   6.887  12.739
29428SOL    HW190058   6.528   6.910  12.758
29428SOL    HW290059   6.657   6.967  12.702
29429SOL     OW90060   8.373   8.441   3.262
29429SOL    HW190061   8.397   8.436   3.355
29429SOL    HW290062   8.402   8.357   3.225
29430SOL     OW90063  13.394   2.493  13.188
29430SOL    HW190064  13.461   2.503  13.256
29430SOL    HW290065  13.325   2.442  13.231
29431SOL     OW90066   3.272   6.470  10.817
29431SOL    HW190067   3.270   6.541  10.753
29431SOL    HW290068   3.358   6.477  10.858
29432SOL     OW90069   3.561   4.256   0.396
29432SOL    HW190070   3.542   4.297   0.480
29432SOL    HW290071   3.585   4.329   0.339
29433SOL     OW90072   0.399   3.914  13.019
29433SOL    HW190073   0.324   3.970  12.999
29433SOL    HW290074   0.462   3.931  12.949
29434SOL     OW90075   5.950  10.977   7.891
29434SOL    HW190076   5.939  10.988   7.985
29434SOL    HW290077   5.880  10.918   7.865
29435SOL     OW90078   3.980   2.345  12.554
29435SOL    HW190079   3.895   2.350  12.511
29435SOL    HW290080   4.000   2.435  12.578
29436SOL     OW90081  10.356  12.514   7.511
29436SOL    HW190082  10.333  12.495   7.420
29436SOL    HW290083  10.276  12.552   7.548
29437SOL     OW90084  10.572  11.748   2.370
29437SOL    HW190085  10.587  11.707   2.285
29437SOL    HW290086  10.631  11.703   2.430
29438SOL     OW90087  12.547   6.146   6.857
29438SOL    HW190088  12.532   6.173   6.766
29438SOL    HW290089  12.543   6.050   6.854
29439SOL     OW90090  10.536   2.771   3.068
29439SOL    HW190091  10.543   2.835   3.138
29439SOL    HW290092  10.626   2.741   3.053
29440SOL     OW90093   7.258  12.046   2.038
29440SOL    HW190094   7.174  12.018   2.076
29440SOL    HW290095   7.261  12.003   1.952
29441SOL     OW90096   5.922   2.587   8.609
29441SOL    HW190097   5.891   2.496   8.611
29441SOL    HW290098   6.000   2.587   8.664
29442SOL     OW90099   9.791   0.607   6.362
29442SOL    HW190100   9.845   0.618   6.440
29442SOL    HW290101   9.845   0.640   6.290
29443SOL     OW90102   8.029  13.994   9.783
29443SOL    HW190103   7.979  13.978   9.862
29443SOL    HW290104   7.966  13.986   9.711
29444SOL     OW90105   2.936  14.159   2.248
29444SOL    HW190106   2.971  14.221   2.311
29444SOL    HW290107   2.915  14.081   2.300
29445SOL     OW90108  10.443  13.752   1.958
29445SOL    HW190109  10.407  13.837   1.932
29445SOL    HW290110  10.513  13.773   2.020
29446SOL     OW90111  11.482   9.096   0.401
29446SOL    HW190112  11.504   9.186   0.376
29446SOL    HW290113  11.566   9.049   0.395
29447SOL     OW90114   4.679  14.764   5.623
29447SOL    HW190115   4.604  14.816   5.594
29447SOL    HW290116   4.655  14.734   5.710
29448SOL     OW90117   6.452   3.112   3.500
29448SOL    HW190118   6.496   3.040   3.454
29448SOL    HW290119   6.407   3.069   3.573
29449SOL     OW90120  11.246  12.555  13.848
29449SOL    HW190121  11.160  12.512  13.848
29449SOL    HW290122  11.305  12.490  13.810
29450SOL     OW90123  13.508   1.627   6.313
29450SOL    HW190124  13.579   1.691   6.320
29450SOL    HW290125  13.544   1.557   6.258
29451SOL     OW90126  11.921   6.553   5.834
29451SOL    HW190127  11.966   6.482   5.789
29451SOL    HW290128  11.837   6.560   5.789
29452SOL     OW90129   9.465  14.179   6.467
29452SOL    HW190130   9.421  14.155   6.386
29452SOL    HW290131   9.500  14.097   6.502
29453SOL     OW90132  10.588   0.305  13.193
29453SOL    HW190133  10.666   0.263  13.227
29453SOL    HW290134  10.616   0.345  13.110
29454SOL     OW90135   2.306   3.966   8.203
29454SOL    HW190136   2.221   3.990   8.164
29454SOL    HW290137   2.293   3.877   8.236
29455SOL     OW90138   4.693   2.183   8.981
29455SOL    HW190139   4.665   2.143   8.898
29455SOL    HW290140   4.752   2.253   8.954
29456SOL     OW90141  12.042   4.057   3.793
29456SOL    HW190142  12.093   3.976   3.793
29456SOL    HW290143  12.101   4.122   3.832
29457SOL     OW90144   1.541   7.758   5.673
29457SOL    HW190145   1.543   7.818   5.748
29457SOL    HW290146   1.583   7.807   5.602
29458SOL     OW90147   1.808  13.615   9.620
29458SOL    HW190148   1.727  13.586   9.663
29458SOL    HW290149   1.795  13.592   9.528
29459SOL     OW90150   6.056   4.784   9.036
29459SOL    HW190151   6.083   4.841   8.963
29459SOL    HW290152   6.119   4.803   9.106
29460SOL     OW90153  13.126   5.989   0.537
29460SOL    HW190154  13.096   6.074   0.569
29460SOL    HW290155  13.211   5.975   0.581
29461SOL     OW90156   8.930   4.527  11.126
29461SOL    HW190157   8.878   4.552  11.050
29461SOL    HW290158   9.021   4.541  11.099
29462SOL     OW90159   7.995   5.467  10.974
29462SOL    HW190160   8.061   5.533  10.953
29462SOL    HW290161   7.946   5.456  10.893
29463SOL     OW90162  13.436  14.176   1.078
29463SOL    HW190163  13.464  14.085   1.062
29463SOL    HW290164  13.517  14.226   1.078
29464SOL     OW90165   3.326  11.074   7.433
29464SOL    HW190166   3.356  11.161   7.409
29464SOL    HW290167   3.406  11.021   7.439
29465SOL     OW90168   6.758   7.528  13.755
29465SOL    HW190169   6.848   7.505  13.777
29465SOL    HW290170   6.764   7.618  13.723
29466SOL     OW90171   4.501   7.557   2.403
29466SOL    HW190172   4.522   7.493   2.334
29466SOL    HW290173   4.406   7.561   2.403
29467SOL     OW90174   4.355  10.458  12.345
29467SOL    HW190175   4.448  10.438  12.359
29467SOL    HW290176   4.311  10.374  12.353
29468SOL     OW90177   2.362   2.800   4.660
29468SOL    HW190178   2.382   2.742   4.587
29468SOL    HW290179   2.383   2.888   4.626
29469SOL     OW90180  13.728  14.084   9.954
29469SOL    HW190181  13.760  14.172   9.938
29469SOL    HW290182  13.634  14.089   9.938
29470SOL     OW90183  10.011   0.063   2.683
29470SOL    HW190184   9.922   0.041   2.655
29470SOL    HW290185  10.019   0.023   2.769
29471SOL     OW90186   9.776   1.255  11.326
29471SOL    HW190187   9.821   1.262  11.410
29471SOL    HW290188   9.743   1.343  11.309
29472SOL     OW90189   4.364   1.254   3.109
29472SOL    HW190190   4.333   1.290   3.193
29472SOL    HW290191   4.425   1.320   3.076
29473SOL     OW90192  10.111   2.800   1.827
29473SOL    HW190193  10.136   2.749   1.750
29473SOL    HW290194  10.024   2.834   1.806
29474SOL     OW90195   4.739  10.987   8.227
29474SOL    HW190196   4.744  11.043   8.150
29474SOL    HW290197   4.650  11.000   8.261
29475SOL     OW90198  12.836  14.194   5.534
29475SOL    HW190199  12.884  14.114   5.552
29475SOL    HW290200  12.796  14.218   5.617
29476SOL     OW90201  11.426   0.396   1.055
29476SOL    HW190202  11.509   0.393   1.008
29476SOL    HW290203  11.414   0.307   1.090
29477SOL     OW90204   9.327   5.602   7.285
29477SOL    HW190205   9.342   5.675   7.225
29477SOL    HW290206   9.330   5.642   7.372
29478SOL     OW90207  10.626  14.079   5.992
29478SOL    HW190208  10.538  14.107   6.020
29478SOL    HW290209  10.639  14.122   5.908
29479SOL     OW90210  11.218  14.232   4.123
29479SOL    HW190211  11.209  14.327   4.118
29479SOL    HW290212  11.291  14.217   4.183
29480SOL     OW90213   7.514   5.936   6.350
29480SOL    HW190214   7.510   5.982   6.434
29480SOL    HW290215   7.454   5.985   6.293
29481SOL     OW90216   6.205   5.231   6.917
29481SOL    HW190217   6.159   5.291   6.858
29481SOL    HW290218   6.167   5.145   6.897
29482SOL     OW90219   4.251  12.271  11.021
29482SOL    HW190220   4.299  12.237  10.946
29482SOL    HW290221   4.306  12.250  11.097
29483SOL     OW90222   7.581   7.369   5.595
29483SOL    HW190223   7.626   7.284   5.585
29483SOL    HW290224   7.585   7.407   5.507
29484SOL     OW90225   1.139  12.610  11.801
29484SOL    HW190226   1.196  12.676  11.842
29484SOL    HW290227   1.170  12.527  11.837
29485SOL     OW90228   1.965   7.809   4.036
29485SOL    HW190229   1.880   7.817   3.994
29485SOL    HW290230   1.955   7.856   4.119
29486SOL     OW90231   7.322  12.758  13.464
29486SOL    HW190232   7.394  12.730  13.407
29486SOL    HW290233   7.334  12.852  13.473
29487SOL     OW90234   8.629   5.348   4.345
29487SOL    HW190235   8.574   5.407   4.397
29487SOL    HW290236   8.716   5.356   4.384
29488SOL     OW90237   8.931   5.759   9.786
29488SOL    HW190238   8.867   5.704   9.741
29488SOL    HW290239   8.958   5.823   9.721
29489SOL     OW90240   6.454   3.632  11.133
29489SOL    HW190241   6.439   3.568  11.203
29489SOL    HW290242   6.489   3.580  11.061
29490SOL     OW90243   6.592   2.513  14.273
29490SOL    HW190244   6.612   2.556  14.356
29490SOL    HW290245   6.678   2.492  14.236
29491SOL     OW90246   2.150  12.997   0.278
29491SOL    HW190247   2.219  13.062   0.263
29491SOL    HW290248   2.173  12.956   0.361
29492SOL     OW90249   5.594  14.442   9.381
29492SOL    HW190250   5.533  14.388   9.330
29492SOL    HW290251   5.608  14.393   9.462
29493SOL     OW90252   0.323  11.994   8.198
29493SOL    HW190253   0.286  12.039   8.122
29493SOL    HW290254   0.417  11.988   8.179
29494SOL     OW90255   9.477   9.206   7.330
29494SOL    HW190256   9.552   9.191   7.274
29494SOL    HW290257   9.472   9.301   7.339
29495SOL     OW90258  13.143  10.130   1.073
29495SOL    HW190259  13.192  10.170   1.001
29495SOL    HW290260  13.112  10.047   1.038
29496SOL     OW90261   4.666   1.682   8.062
29496SOL    HW190262   4.598   1.697   7.997
29496SOL    HW290263   4.739   1.645   8.013
29497SOL     OW90264  13.384  12.806   1.770
29497SOL    HW190265  13.291  12.787   1.782
29497SOL    HW290266  13.425  12.778   1.852
29498SOL     OW90267  11.924  13.645   4.168
29498SOL    HW190268  11.959  13.722   4.212
29498SOL    HW290269  11.997  13.584   4.162
29499SOL     OW90270   6.347   9.989   5.976
29499SOL    HW190271   6.325   9.936   6.052
29499SOL    HW290272   6.268  10.039   5.959
29500SOL     OW90273   9.165   0.978   3.948
29500SOL    HW190274   9.118   1.059   3.928
29500SOL    HW290275   9.201   0.949   3.864
29501SOL     OW90276   2.420   9.117   7.363
29501SOL    HW190277   2.483   9.068   7.415
29501SOL    HW290278   2.335   9.081   7.389
29502SOL     OW90279   8.535   1.515   6.809
29502SOL    HW190280   8.529   1.528   6.715
29502SOL    HW290281   8.628   1.522   6.828
29503SOL     OW90282   1.949   2.884  14.486
29503SOL    HW190283   1.897   2.898  14.564
29503SOL    HW290284   1.888   2.848  14.422
29504SOL     OW90285   5.836   5.376   6.778
29504SOL    HW190286   5.843   5.403   6.870
29504SOL    HW290287   5.868   5.452   6.729
29505SOL     OW90288  14.791   4.959   5.704
29505SOL    HW190289  14.806   4.866   5.683
29505SOL    HW290290  14.729   4.957   5.777
29506SOL     OW90291   6.950   4.142   6.912
29506SOL    HW190292   6.892   4.093   6.971
29506SOL    HW290293   7.032   4.092   6.913
29507SOL     OW90294  12.438  12.470   5.370
29507SOL    HW190295  12.476  12.534   5.309
29507SOL    HW290296  12.500  12.397   5.370
29508SOL     OW90297  13.267   5.802   0.788
29508SOL    HW190298  13.279   5.737   0.858
29508SOL    HW290299  13.176   5.789   0.760
29509SOL     OW90300   0.867   9.410   7.534
29509SOL    HW190301   0.921   9.478   7.575
29509SOL    HW290302   0.827   9.364   7.608
29510SOL     OW90303   4.239  11.455  13.359
29510SOL    HW190304   4.244  11.405  13.440
29510SOL    HW290305   4.148  11.484  13.354
29511SOL     OW90306   6.700   4.027   0.372
29511SOL    HW190307   6.767   3.973   0.415
29511SOL    HW290308   6.709   4.006   0.279
29512SOL     OW90309  14.721   0.354   9.250
29512SOL    HW190310  14.805   0.393   9.223
29512SOL    HW290311  14.669   0.427   9.282
29513SOL     OW90312   8.155   3.593  12.581
29513SOL    HW190313   8.184   3.608  12.671
29513SOL    HW290314   8.073   3.545  12.590
29514SOL     OW90315   9.857  12.643   5.438
29514SOL    HW190316   9.814  12.692   5.368
29514SOL    HW290317   9.882  12.710   5.502
29515SOL     OW90318   4.384  10.362  13.104
29515SOL    HW190319   4.454  10.395  13.161
29515SOL    HW290320   4.428  10.340  13.022
29516SOL     OW90321   4.503   1.969   1.904
29516SOL    HW190322   4.580   1.912   1.909
29516SOL    HW290323   4.528   2.047   1.953
29517SOL     OW90324   7.215   0.861  11.071
29517SOL    HW190325   7.168   0.781  11.047
29517SOL    HW290326   7.174   0.930  11.020
29518SOL     OW90327  12.858   1.346   7.063
29518SOL    HW190328  12.821   1.400   6.993
29518SOL    HW290329  12.866   1.406   7.137
29519SOL     OW90330  13.008  10.682  11.179
29519SOL    HW190331  12.932  10.740  11.172
29519SOL    HW290332  13.031  10.661  11.089
29520SOL     OW90333   0.153   1.645  12.002
29520SOL    HW190334   0.142   1.706  12.075
29520SOL    HW290335   0.066   1.640  11.962
29521SOL     OW90336   9.739  13.328  11.611
29521SOL    HW190337   9.793  13.356  11.685
29521SOL    HW290338   9.801  13.300  11.544
29522SOL     OW90339  11.195   6.866   2.323
29522SOL    HW190340  11.258   6.821   2.380
29522SOL    HW290341  11.233   6.953   2.310
29523SOL     OW90342  11.082  10.976   4.728
29523SOL    HW190343  11.021  11.045   4.755
29523SOL    HW290344  11.106  10.999   4.638
29524SOL     OW90345   9.897   8.811   1.524
29524SOL    HW190346   9.891   8.762   1.442
29524SOL    HW290347   9.939   8.893   1.500
29525SOL     OW90348   9.651   0.864   8.322
29525SOL    HW190349   9.721   0.852   8.258
29525SOL    HW290350   9.574   0.822   8.283
29526SOL     OW90351   5.777  10.909   4.390
29526SOL    HW190352   5.691  10.868   4.389
29526SOL    HW290353   5.792  10.936   4.299
29527SOL     OW90354   7.596   5.432  12.708
29527SOL    HW190355   7.661   5.480  12.759
29527SOL    HW290356   7.617   5.452  12.617
29528SOL     OW90357   1.123  14.007   8.240
29528SOL    HW190358   1.067  13.932   8.260
29528SOL    HW290359   1.205  13.989   8.286
29529SOL     OW90360  14.092   5.606  13.284
29529SOL    HW190361  14.177   5.579  13.318
29529SOL    HW290362  14.106   5.696  13.253
29530SOL     OW90363   7.303   9.251  14.354
29530SOL    HW190364   7.310   9.306  14.276
29530SOL    HW290365   7.393   9.232  14.378
29531SOL     OW90366   5.317   4.569   6.247
29531SOL    HW190367   5.240   4.589   6.300
29531SOL    HW290368   5.389   4.566   6.310
29532SOL     OW90369  14.345  13.214  10.537
29532SOL    HW190370  14.435  13.184  10.528
29532SOL    HW290371  14.312  13.169  10.614
29533SOL     OW90372  11.322   9.725   7.103
29533SOL    HW190373  11.363   9.781   7.169
29533SOL    HW290374  11.230   9.750   7.105
29534SOL     OW90375   2.719  11.737   3.592
29534SOL    HW190376   2.748  11.813   3.541
29534SOL    HW290377   2.768  11.663   3.555
29535SOL     OW90378   3.425   8.541   2.843
29535SOL    HW190379   3.370   8.591   2.903
29535SOL    HW290380   3.366   8.477   2.804
29536SOL     OW90381   0.778  13.825   5.922
29536SOL    HW190382   0.818  13.786   6.000
29536SOL    HW290383   0.741  13.750   5.875
29537SOL     OW90384  13.404   3.533   8.054
29537SOL    HW190385  13.379   3.521   8.145
29537SOL    HW290386  13.442   3.449   8.028
29538SOL     OW90387   4.189   9.275   9.136
29538SOL    HW190388   4.182   9.273   9.231
29538SOL    HW290389   4.187   9.183   9.110
29539SOL     OW90390   6.071   1.096   3.261
29539SOL    HW190391   6.145   1.038   3.281
29539SOL    HW290392   6.081   1.116   3.168
29540SOL     OW90393  11.423   3.004  11.853
29540SOL    HW190394  11.348   2.974  11.903
29540SOL    HW290395  11.433   3.096  11.876
29541SOL     OW90396   5.794   4.129   5.893
29541SOL    HW190397   5.817   4.127   5.800
29541SOL    HW290398   5.843   4.056   5.931
29542SOL     OW90399   7.057   3.326  13.003
29542SOL    HW190400   7.096   3.300  13.086
29542SOL    HW290401   7.080   3.256  12.943
29543SOL     OW90402   8.426  13.198   8.678
29543SOL    HW190403   8.470  13.147   8.611
29543SOL    HW290404   8.334  13.194   8.655
29544SOL     OW90405  12.131   9.743  11.281
29544SOL    HW190406  12.078   9.704  11.350
29544SOL    HW290407  12.068   9.780  11.219
29545SOL     OW90408   9.273   0.860   4.414
29545SOL    HW190409   9.190   0.899   4.385
29545SOL    HW290410   9.259   0.838   4.506
29546SOL     OW90411  13.414   7.644  12.321
29546SOL    HW190412  13.425   7.574  12.385
29546SOL    HW290413  13.496   7.644  12.271
29547SOL     OW90414   0.315   1.878  10.796
29547SOL    HW190415   0.375   1.811  10.828
29547SOL    HW290416   0.314   1.867  10.701
29548SOL     OW90417  13.854   5.791   3.432
29548SOL    HW190418  13.895   5.810   3.516
29548SOL    HW290419  13.877   5.699   3.415
29549SOL     OW90420   4.711   7.036   2.138
29549SOL    HW190421   4.679   7.070   2.222
29549SOL    HW290422   4.656   7.080   2.073
29550SOL     OW90423   8.707   1.737  10.137
29550SOL    HW190424   8.731   1.762  10.048
29550SOL    HW290425   8.767   1.667  10.160
29551SOL     OW90426   6.641  14.205   6.841
29551SOL    HW190427   6.670  14.275   6.900
29551SOL    HW290428   6.641  14.245   6.755
29552SOL     OW90429  14.531  12.869   9.748
29552SOL    HW190430  14.608  12.925   9.762
29552SOL    HW290431  14.505  12.843   9.836
29553SOL     OW90432  10.801   4.487   1.625
29553SOL    HW190433  10.792   4.537   1.705
29553SOL    HW290434  10.847   4.407   1.651
29554SOL     OW90435  12.272   7.864   9.638
29554SOL    HW190436  12.269   7.958   9.657
29554SOL    HW290437  12.257   7.822   9.722
29555SOL     OW90438   0.957   0.760   4.802
29555SOL    HW190439   0.983   0.676   4.764
29555SOL    HW290440   0.972   0.823   4.731
29556SOL     OW90441   8.873   4.559   6.572
29556SOL    HW190442   8.839   4.473   6.596
29556SOL    HW290443   8.872   4.609   6.653
29557SOL     OW90444   0.664  11.534  10.906
29557SOL    HW190445   0.693  11.486  10.829
29557SOL    HW290446   0.707  11.619  10.900
29558SOL     OW90447  10.769   1.036  11.914
29558SOL    HW190448  10.740   1.027  11.823
29558SOL    HW290449  10.846   0.980  11.921
29559SOL     OW90450   9.536   6.163   5.702
29559SOL    HW190451   9.621   6.139   5.667
29559SOL    HW290452   9.552   6.243   5.752
29560SOL     OW90453   4.797   8.341   8.382
29560SOL    HW190454   4.861   8.274   8.404
29560SOL    HW290455   4.716   8.313   8.425
29561SOL     OW90456   7.596   3.720   6.300
29561SOL    HW190457   7.564   3.789   6.359
29561SOL    HW290458   7.643   3.660   6.358
29562SOL     OW90459  13.719  11.831   6.992
29562SOL    HW190460  13.630  11.868   6.993
29562SOL    HW290461  13.707  11.739   7.015
29563SOL     OW90462   3.731  12.733   5.626
29563SOL    HW190463   3.745  12.746   5.532
29563SOL    HW290464   3.790  12.661   5.650
29564SOL     OW90465   2.167  10.532   4.130
29564SOL    HW190466   2.178  10.485   4.213
29564SOL    HW290467   2.256  10.557   4.104
29565SOL     OW90468   7.147   5.851  14.776
29565SOL    HW190469   7.239   5.866  14.753
29565SOL    HW290470   7.099   5.871  14.696
29566SOL     OW90471  12.871   4.319   1.902
29566SOL    HW190472  12.803   4.294   1.840
29566SOL    HW290473  12.947   4.266   1.878
29567SOL     OW90474   3.550  12.245   2.586
29567SOL    HW190475   3.616  12.249   2.654
29567SOL    HW290476   3.598  12.218   2.507
29568SOL     OW90477  11.865  10.984   0.688
29568SOL    HW190478  11.844  11.065   0.735
29568SOL    HW290479  11.781  10.955   0.652
29569SOL     OW90480  14.595  11.685   1.781
29569SOL    HW190481  14.565  11.604   1.740
29569SOL    HW290482  14.597  11.665   1.875
29570SOL     OW90483   9.776  11.034  13.607
29570SOL    HW190484   9.871  11.023  13.604
29570SOL    HW290485   9.763  11.126  13.631
29571SOL     OW90486   8.786   8.218   8.211
29571SOL    HW190487   8.871   8.189   8.178
29571SOL    HW290488   8.741   8.138   8.237
29572SOL     OW90489  12.197   5.416   9.346
29572SOL    HW190490  12.240   5.485   9.295
29572SOL    HW290491  12.104   5.436   9.340
29573SOL     OW90492  13.283  14.877  13.841
29573SOL    HW190493  13.259  14.791  13.806
29573SOL    HW290494  13.275  14.867  13.936
29574SOL     OW90495   7.953  11.028   9.607
29574SOL    HW190496   7.927  10.953   9.661
29574SOL    HW290497   8.048  11.031   9.613
29575SOL     OW90498   3.683   5.909   5.632
29575SOL    HW190499   3.739   5.837   5.602
29575SOL    HW290500   3.691   5.908   5.727
29576SOL     OW90501   4.969   5.034  12.534
29576SOL    HW190502   5.028   4.974  12.489
29576SOL    HW290503   4.954   4.993  12.619
29577SOL     OW90504   2.470   1.076  13.796
29577SOL    HW190505   2.396   1.136  13.804
29577SOL    HW290506   2.440   1.008  13.735
29578SOL     OW90507   8.400  14.501   8.807
29578SOL    HW190508   8.413  14.565   8.737
29578SOL    HW290509   8.327  14.448   8.778
29579SOL     OW90510   5.527   5.622   4.515
29579SOL    HW190511   5.436   5.643   4.537
29579SOL    HW290512   5.520   5.549   4.453
29580SOL     OW90513  13.228   8.790   6.764
29580SOL    HW190514  13.218   8.885   6.773
29580SOL    HW290515  13.291   8.766   6.832
29581SOL     OW90516   9.824   6.788  11.829
29581SOL    HW190517   9.871   6.779  11.912
29581SOL    HW290518   9.876   6.851  11.779
29582SOL     OW90519   6.861   1.480  13.098
29582SOL    HW190520   6.835   1.484  13.006
29582SOL    HW290521   6.795   1.424  13.139
29583SOL     OW90522   1.797  13.326   9.232
29583SOL    HW190523   1.716  13.289   9.267
29583SOL    HW290524   1.797  13.416   9.265
29584SOL     OW90525   0.298  11.946   2.345
29584SOL    HW190526   0.256  11.862   2.362
29584SOL    HW290527   0.248  12.009   2.396
29585SOL     OW90528   9.198  13.493   6.832
29585SOL    HW190529   9.111  13.478   6.796
29585SOL    HW290530   9.233  13.406   6.849
29586SOL     OW90531   1.670  10.562   4.888
29586SOL    HW190532   1.635  10.596   4.806
29586SOL    HW290533   1.694  10.472   4.868
29587SOL     OW90534   9.071   1.330   7.656
29587SOL    HW190535   9.055   1.319   7.750
29587SOL    HW290536   9.055   1.244   7.619
29588SOL     OW90537   8.092   0.127  14.691
29588SOL    HW190538   8.119   0.217  14.710
29588SOL    HW290539   7.998   0.126  14.711
29589SOL     OW90540  13.460   6.352   2.681
29589SOL    HW190541  13.457   6.265   2.642
29589SOL    HW290542  13.436   6.337   2.773
29590SOL     OW90543   0.611   6.041   5.818
29590SOL    HW190544   0.581   6.120   5.864
29590SOL    HW290545   0.543   6.023   5.753
29591SOL     OW90546   4.823   3.690  10.519
29591SOL    HW190547   4.841   3.774  10.478
29591SOL    HW290548   4.864   3.626  10.461
29592SOL     OW90549   2.391  12.147   8.920
29592SOL    HW190550   2.479  12.159   8.956
29592SOL    HW290551   2.403  12.094   8.841
29593SOL     OW90552  10.406   2.402  11.247
29593SOL    HW190553  10.319   2.442  11.247
29593SOL    HW290554  10.435   2.409  11.156
29594SOL     OW90555   2.714   4.116   5.988
29594SOL    HW190556   2.624   4.105   5.960
29594SOL    HW290557   2.759   4.038   5.957
29595SOL     OW90558   4.985  13.852   8.227
29595SOL    HW190559   5.007  13.821   8.139
29595SOL    HW290560   5.033  13.935   8.235
29596SOL     OW90561   1.389   3.134  14.370
29596SOL    HW190562   1.335   3.144  14.448
29596SOL    HW290563   1.328   3.101  14.304
29597SOL     OW90564   8.401  11.864   1.510
29597SOL    HW190565   8.444  11.779   1.524
29597SOL    HW290566   8.308  11.843   1.507
29598SOL     OW90567  10.557   2.032  11.571
29598SOL    HW190568  10.572   2.036  11.666
29598SOL    HW290569  10.595   1.948  11.544
29599SOL     OW90570   1.542   0.970   0.916
29599SOL    HW190571   1.472   0.984   0.980
29599SOL    HW290572   1.600   1.045   0.927
29600SOL     OW90573   2.022   4.601   4.591
29600SOL    HW190574   2.083   4.588   4.518
29600SOL    HW290575   2.048   4.685   4.630
29601SOL     OW90576   2.886   5.636   4.819
29601SOL    HW190577   2.924   5.717   4.854
29601SOL    HW290578   2.904   5.639   4.725
29602SOL     OW90579   7.564   5.728   7.003
29602SOL    HW190580   7.627   5.782   7.051
29602SOL    HW290581   7.512   5.686   7.071
29603SOL     OW90582   1.492   8.567   1.150
29603SOL    HW190583   1.425   8.526   1.094
29603SOL    HW290584   1.444   8.631   1.202
29604SOL     OW90585   7.189  10.437   2.865
29604SOL    HW190586   7.200  10.455   2.959
29604SOL    HW290587   7.135  10.358   2.862
29605SOL     OW90588   2.303  13.422   8.435
29605SOL    HW190589   2.398  13.431   8.440
29605SOL    HW290590   2.285  13.331   8.456
29606SOL     OW90591  13.017   8.191  13.636
29606SOL    HW190592  12.992   8.208  13.545
29606SOL    HW290593  13.093   8.247  13.651
29607SOL     OW90594  10.083   0.550   0.277
29607SOL    HW190595  10.085   0.640   0.245
29607SOL    HW290596  10.085   0.495   0.199
29608SOL     OW90597   2.596   2.992   2.997
29608SOL    HW190598   2.662   2.926   3.018
29608SOL    HW290599   2.645   3.066   2.963
29609SOL     OW90600  10.695  14.571   9.027
29609SOL    HW190601  10.620  14.612   8.984
29609SOL    HW290602  10.662  14.485   9.055
29610SOL     OW90603   7.306   5.522  14.050
29610SOL    HW190604   7.294   5.535  13.956
29610SOL    HW290605   7.379   5.579  14.074
29611SOL     OW90606  14.748   6.261  14.363
29611SOL    HW190607  14.749   6.334  14.302
29611SOL    HW290608  14.722   6.186  14.310
29612SOL     OW90609   0.776   5.531  14.454
29612SOL    HW190610   0.733   5.453  14.421
29612SOL    HW290611   0.807   5.577  14.376
29613SOL     OW90612   3.646   3.873  10.693
29613SOL    HW190613   3.673   3.876  10.784
29613SOL    HW290614   3.570   3.932  10.689
29614SOL     OW90615   3.491   6.867   6.313
29614SOL    HW190616   3.446   6.796   6.358
29614SOL    HW290617   3.488   6.842   6.221
29615SOL     OW90618   1.654   5.668   3.172
29615SOL    HW190619   1.696   5.656   3.087
29615SOL    HW290620   1.564   5.694   3.150
29616SOL     OW90621   9.151   5.903   8.257
29616SOL    HW190622   9.120   5.930   8.170
29616SOL    HW290623   9.188   5.816   8.242
29617SOL     OW90624   3.387   5.369  11.143
29617SOL    HW190625   3.418   5.286  11.177
29617SOL    HW290626   3.303   5.384  11.188
29618SOL     OW90627  14.066   6.006   1.148
29618SOL    HW190628  14.076   5.967   1.235
29618SOL    HW290629  13.971   6.020   1.140
29619SOL     OW90630   6.916   6.352   4.496
29619SOL    HW190631   6.949   6.276   4.449
29619SOL    HW290632   6.994   6.401   4.521
29620SOL     OW90633   8.024  14.272  11.158
29620SOL    HW190634   8.003  14.280  11.251
29620SOL    HW290635   8.096  14.334  11.145
29621SOL     OW90636  12.948  11.333   2.349
29621SOL    HW190637  12.962  11.254   2.401
29621SOL    HW290638  12.854  11.350   2.357
29622SOL     OW90639  14.482   9.757   7.368
29622SOL    HW190640  14.494   9.663   7.380
29622SOL    HW290641  14.511   9.774   7.279
29623SOL     OW90642  11.309  11.992  14.074
29623SOL    HW190643  11.219  12.022  14.088
29623SOL    HW290644  11.356  12.022  14.152
29624SOL     OW90645   0.555   6.320   1.446
29624SOL    HW190646   0.503   6.273   1.381
29624SOL    HW290647   0.622   6.365   1.394
29625SOL     OW90648  10.742   5.857  11.461
29625SOL    HW190649  10.686   5.811  11.523
29625SOL    HW290650  10.805   5.904  11.516
29626SOL     OW90651   0.688  11.264  11.022
29626SOL    HW190652   0.690  11.356  10.995
29626SOL    HW290653   0.685  11.215  10.940
29627SOL     OW90654  11.002   0.274   2.016
29627SOL    HW190655  10.947   0.286   1.939
29627SOL    HW290656  10.941   0.279   2.090
29628SOL     OW90657   7.674   1.344   1.172
29628SOL    HW190658   7.677   1.274   1.107
29628SOL    HW290659   7.583   1.343   1.203
29629SOL     OW90660  10.452  13.864   8.730
29629SOL    HW190661  10.529  13.921   8.725
29629SOL    HW290662  10.467  13.810   8.808
29630SOL     OW90663   5.723  12.077   3.789
29630SOL    HW190664   5.674  12.158   3.771
29630SOL    HW290665   5.686  12.045   3.871
29631SOL     OW90666   0.506   0.612  12.529
29631SOL    HW190667   0.532   0.674  12.597
29631SOL    HW290668   0.414   0.593  12.547
29632SOL     OW90669   8.196  11.002   8.637
29632SOL    HW190670   8.263  11.004   8.705
29632SOL    HW290671   8.128  11.061   8.667
29633SOL     OW90672  13.111   8.522  11.510
29633SOL    HW190673  13.123   8.554  11.421
29633SOL    HW290674  13.074   8.597  11.557
29634SOL     OW90675   4.528   8.094   6.557
29634SOL    HW190676   4.449   8.114   6.506
29634SOL    HW290677   4.546   8.002   6.537
29635SOL     OW90678   2.130   4.638   1.512
29635SOL    HW190679   2.072   4.619   1.439
29635SOL    HW290680   2.207   4.584   1.496
29636SOL     OW90681  12.194   8.452   7.498
29636SOL    HW190682  12.226   8.536   7.466
29636SOL    HW290683  12.107   8.444   7.459
29637SOL     OW90684   5.110   5.186   1.959
29637SOL    HW190685   5.154   5.163   2.041
29637SOL    HW290686   5.018   5.164   1.974
29638SOL     OW90687   3.153   2.224   9.540
29638SOL    HW190688   3.142   2.182   9.455
29638SOL    HW290689   3.066   2.255   9.564
29639SOL     OW90690   1.661   5.443   0.113
29639SOL    HW190691   1.581   5.471   0.069
29639SOL    HW290692   1.732   5.474   0.057
29640SOL     OW90693  14.346   7.373   8.498
29640SOL    HW190694  14.297   7.455   8.501
29640SOL    HW290695  14.334   7.341   8.408
29641SOL     OW90696  11.988  11.721   3.995
29641SOL    HW190697  11.986  11.806   3.952
29641SOL    HW290698  11.896  11.696   4.003
29642SOL     OW90699   2.842   2.774   5.180
29642SOL    HW190700   2.752   2.750   5.200
29642SOL    HW290701   2.874   2.703   5.125
29643SOL     OW90702   9.386   0.768  12.184
29643SOL    HW190703   9.406   0.861  12.180
29643SOL    HW290704   9.384   0.747  12.277
29644SOL     OW90705   7.672  14.095  11.258
29644SOL    HW190706   7.651  14.156  11.329
29644SOL    HW290707   7.722  14.148  11.195
29645SOL     OW90708   6.349  11.569  12.217
29645SOL    HW190709   6.312  11.626  12.284
29645SOL    HW290710   6.439  11.555  12.244
29646SOL     OW90711  13.118   7.960   9.443
29646SOL    HW190712  13.188   7.898   9.422
29646SOL    HW290713  13.073   7.920   9.518
29647SOL     OW90714   8.627   1.071   2.616
29647SOL    HW190715   8.653   1.149   2.567
29647SOL    HW290716   8.584   1.015   2.552
29648SOL     OW90717   3.897  11.511  10.407
29648SOL    HW190718   3.956  11.456  10.356
29648SOL    HW290719   3.953  11.551  10.473
29649SOL     OW90720   6.007   1.271  14.006
29649SOL    HW190721   6.021   1.179  13.982
29649SOL    HW290722   6.093   1.311  13.998
29650SOL     OW90723   8.376  10.095   7.612
29650SOL    HW190724   8.380  10.061   7.522
29650SOL    HW290725   8.283  10.109   7.628
29651SOL     OW90726   8.569   6.519   0.099
29651SOL    HW190727   8.601   6.515   0.009
29651SOL    HW290728   8.645   6.500   0.153
29652SOL     OW90729   2.631   3.323   6.808
29652SOL    HW190730   2.598   3.261   6.743
29652SOL    HW290731   2.630   3.275   6.890
29653SOL     OW90732   5.568   9.601   3.359
29653SOL    HW190733   5.658   9.580   3.337
29653SOL    HW290734   5.540   9.530   3.416
29654SOL     OW90735   7.390   3.542  10.054
29654SOL    HW190736   7.333   3.611  10.020
29654SOL    HW290737   7.354   3.461  10.017
29655SOL     OW90738   7.890   2.013   4.616
29655SOL    HW190739   7.977   2.032   4.583
29655SOL    HW290740   7.895   2.033   4.710
29656SOL     OW90741   3.722   9.144   4.017
29656SOL    HW190742   3.786   9.099   4.072
29656SOL    HW290743   3.759   9.231   4.004
29657SOL     OW90744   8.535  11.953   0.693
29657SOL    HW190745   8.470  11.883   0.688
29657SOL    HW290746   8.490  12.030   0.660
29658SOL     OW90747   5.370  10.484   8.063
29658SOL    HW190748   5.411  10.568   8.043
29658SOL    HW290749   5.281  10.492   8.029
29659SOL     OW90750   0.883  13.368   9.304
29659SOL    HW190751   0.840  13.379   9.389
29659SOL    HW290752   0.956  13.308   9.321
29660SOL     OW90753  11.469   6.092  14.693
29660SOL    HW190754  11.424   6.128  14.616
29660SOL    HW290755  11.402   6.044  14.740
29661SOL     OW90756   9.196   0.431   1.042
29661SOL    HW190757   9.130   0.469   0.984
29661SOL    HW290758   9.216   0.346   1.003
29662SOL     OW90759  14.387  10.264   7.092
29662SOL    HW190760  14.395  10.308   7.176
29662SOL    HW290761  14.455  10.304   7.037
29663SOL     OW90762   5.139   6.983   5.978
29663SOL    HW190763   5.140   6.898   5.934
29663SOL    HW290764   5.176   7.043   5.914
29664SOL     OW90765   8.137  12.929   1.748
29664SOL    HW190766   8.164  13.021   1.752
29664SOL    HW290767   8.195  12.884   1.810
29665SOL     OW90768   6.457   3.697   1.603
29665SOL    HW190769   6.431   3.643   1.678
29665SOL    HW290770   6.512   3.640   1.550
29666SOL     OW90771  10.256  14.610   9.804
29666SOL    HW190772  10.168  14.643   9.822
29666SOL    HW290773  10.313  14.660   9.862
29667SOL     OW90774  13.341   4.341   7.583
29667SOL    HW190775  13.253   4.305   7.567
29667SOL    HW290776  13.368   4.377   7.499
29668SOL     OW90777   2.544   9.164   9.040
29668SOL    HW190778   2.552   9.187   8.947
29668SOL    HW290779   2.451   9.176   9.060
29669SOL     OW90780   5.629   0.378   2.492
29669SOL    HW190781   5.604   0.322   2.419
29669SOL    HW290782   5.725   0.371   2.496
29670SOL     OW90783  12.032   1.277  13.122
29670SOL    HW190784  12.061   1.360  13.160
29670SOL    HW290785  11.998   1.301  13.036
29671SOL     OW90786  13.557   1.984   3.240
29671SOL    HW190787  13.627   1.941   3.191
29671SOL    HW290788  13.484   1.990   3.178
29672SOL     OW90789   2.903  12.644  11.079
29672SOL    HW190790   2.922  12.682  10.993
29672SOL    HW290791   2.965  12.571  11.087
29673SOL     OW90792  10.261   1.907   8.529
29673SOL    HW190793  10.287   1.995   8.504
29673SOL    HW290794  10.277   1.902   8.623
29674SOL     OW90795  12.260   1.078  12.581
29674SOL    HW190796  12.319   1.118  12.517
29674SOL    HW290797  12.172   1.104  12.552
29675SOL     OW90798   9.002   8.603  11.293
29675SOL    HW190799   9.078   8.614  11.350
29675SOL    HW290800   8.999   8.509  11.274
29676SOL     OW90801  11.948  10.732   6.192
29676SOL    HW190802  12.019  10.705   6.251
29676SOL    HW290803  11.906  10.650   6.166
29677SOL     OW90804   4.778   0.771  14.347
29677SOL    HW190805   4.783   0.682  14.383
29677SOL    HW290806   4.833   0.769  14.269
29678SOL     OW90807   5.891  12.581  13.464
29678SOL    HW190808   5.832  12.606  13.393
29678SOL    HW290809   5.835  12.536  13.527
29679SOL     OW90810   3.941  12.867   6.272
29679SOL    HW190811   4.035  12.871   6.250
29679SOL    HW290812   3.939  12.882   6.366
29680SOL     OW90813   6.160   6.136  14.414
29680SOL    HW190814   6.103   6.212  14.403
29680SOL    HW290815   6.100   6.063  14.432
29681SOL     OW90816   8.208   5.651  12.688
29681SOL    HW190817   8.297   5.683  12.672
29681SOL    HW290818   8.218   5.556  12.694
29682SOL     OW90819   8.550   3.512  13.308
29682SOL    HW190820   8.578   3.506  13.217
29682SOL    HW290821   8.490   3.587  13.310
29683SOL     OW90822   4.085   8.895   1.887
29683SOL    HW190823   4.065   8.811   1.928
29683SOL    HW290824   4.134   8.943   1.954
29684SOL     OW90825   5.645   8.668   5.251
29684SOL    HW190826   5.551   8.658   5.235
29684SOL    HW290827   5.670   8.587   5.296
29685SOL     OW90828  10.485  14.554   5.831
29685SOL    HW190829  10.408  14.536   5.777
29685SOL    HW290830  10.452  14.610   5.902
29686SOL     OW90831   8.662   1.156   7.501
29686SOL    HW190832   8.694   1.247   7.506
29686SOL    HW290833   8.740   1.105   7.483
29687SOL     OW90834   9.315   2.695   6.393
29687SOL    HW190835   9.407   2.720   6.396
29687SOL    HW290836   9.315   2.601   6.410
29688SOL     OW90837  11.494   0.277   5.230
29688SOL    HW190838  11.456   0.349   5.281
29688SOL    HW290839  11.556   0.318   5.171
29689SOL     OW90840   2.885   9.312   3.365
29689SOL    HW190841   2.799   9.314   3.325
29689SOL    HW290842   2.943   9.276   3.297
29690SOL     OW90843   3.914   6.668   7.829
29690SOL    HW190844   3.843   6.703   7.775
29690SOL    HW290845   3.905   6.573   7.821
29691SOL     OW90846  10.843   8.180  11.875
29691SOL    HW190847  10.870   8.254  11.929
29691SOL    HW290848  10.816   8.219  11.792
29692SOL     OW90849   9.809  12.674   4.129
29692SOL    HW190850   9.813  12.735   4.055
29692SOL    HW290851   9.809  12.588   4.088
29693SOL     OW90852   7.488   4.431   2.258
29693SOL    HW190853   7.478   4.521   2.286
29693SOL    HW290854   7.549   4.392   2.321
29694SOL     OW90855   0.356  12.719   9.668
29694SOL    HW190856   0.346  12.752   9.579
29694SOL    HW290857   0.384  12.628   9.656
29695SOL     OW90858   1.194   2.111   2.968
29695SOL    HW190859   1.112   2.070   2.940
29695SOL    HW290860   1.168   2.174   3.036
29696SOL     OW90861  14.631  10.445   7.804
29696SOL    HW190862  14.710  10.412   7.761
29696SOL    HW290863  14.596  10.511   7.744
29697SOL     OW90864   8.380  10.106  11.209
29697SOL    HW190865   8.400  10.177  11.148
29697SOL    HW290866   8.464  10.085  11.249
29698SOL     OW90867  10.784   1.191   8.023
29698SOL    HW190868  10.766   1.276   8.063
29698SOL    HW290869  10.833   1.212   7.944
29699SOL     OW90870   5.925   7.168   4.473
29699SOL    HW190871   5.981   7.206   4.404
29699SOL    HW290872   5.986   7.130   4.535
29700SOL     OW90873   8.062   6.120   8.317
29700SOL    HW190874   8.121   6.194   8.330
29700SOL    HW290875   7.974   6.156   8.334
29701SOL     OW90876  14.490   7.370   0.297
29701SOL    HW190877  14.518   7.451   0.341
29701SOL    HW290878  14.540   7.368   0.216
29702SOL     OW90879   5.612   8.804  11.189
29702SOL    HW190880   5.590   8.881  11.137
29702SOL    HW290881   5.550   8.805  11.262
29703SOL     OW90882   8.481   8.889   3.545
29703SOL    HW190883   8.532   8.811   3.525
29703SOL    HW290884   8.417   8.860   3.611
29704SOL     OW90885  10.045   7.269   5.455
29704SOL    HW190886  10.041   7.243   5.547
29704SOL    HW290887  10.133   7.306   5.445
29705SOL     OW90888   7.185  10.076  13.281
29705SOL    HW190889   7.143  10.109  13.202
29705SOL    HW290890   7.211  10.155  13.329
29706SOL     OW90891  10.427   0.698  13.538
29706SOL    HW190892  10.355   0.754  13.510
29706SOL    HW290893  10.433   0.711  13.632
29707SOL     OW90894   4.469  12.528   1.986
29707SOL    HW190895   4.561  12.518   2.009
29707SOL    HW290896   4.423  12.533   2.070
29708SOL     OW90897  14.312   4.378  11.820
29708SOL    HW190898  14.280   4.333  11.898
29708SOL    HW290899  14.286   4.321  11.747
29709SOL     OW90900   5.067   7.616  12.396
29709SOL    HW190901   5.130   7.640  12.328
29709SOL    HW290902   5.098   7.532  12.428
29710SOL     OW90903   2.762   3.397   2.072
29710SOL    HW190904   2.770   3.486   2.037
29710SOL    HW290905   2.817   3.396   2.150
29711SOL     OW90906  14.102   1.295  12.339
29711SOL    HW190907  14.111   1.257  12.251
29711SOL    HW290908  14.018   1.340  12.337
29712SOL     OW90909  12.570   8.672   8.424
29712SOL    HW190910  12.636   8.734   8.393
29712SOL    HW290911  12.506   8.668   8.353
29713SOL     OW90912   6.548   5.802   1.881
29713SOL    HW190913   6.575   5.893   1.890
29713SOL    HW290914   6.579   5.760   1.961
29714SOL     OW90915  10.049   7.882   3.123
29714SOL    HW190916  10.127   7.896   3.069
29714SOL    HW290917  10.012   7.969   3.135
29715SOL     OW90918  10.727   8.829   6.796
29715SOL    HW190919  10.672   8.907   6.799
29715SOL    HW290920  10.670   8.761   6.761
29716SOL     OW90921   2.201   4.079   8.915
29716SOL    HW190922   2.156   4.142   8.972
29716SOL    HW290923   2.135   4.012   8.897
29717SOL     OW90924  10.434   2.653   2.441
29717SOL    HW190925  10.432   2.737   2.488
29717SOL    HW290926  10.521   2.617   2.461
29718SOL     OW90927   3.055   1.925  14.368
29718SOL    HW190928   3.098   1.897  14.287
29718SOL    HW290929   2.964   1.942  14.341
29719SOL     OW90930   2.618   4.589   3.119
29719SOL    HW190931   2.593   4.679   3.141
29719SOL    HW290932   2.639   4.549   3.204
29720SOL     OW90933   7.255  11.534   1.035
29720SOL    HW190934   7.346  11.525   1.006
29720SOL    HW290935   7.203  11.522   0.956
29721SOL     OW90936   9.784   0.712  12.861
29721SOL    HW190937   9.707   0.661  12.886
29721SOL    HW290938   9.771   0.797  12.902
29722SOL     OW90939  12.610  13.247   7.003
29722SOL    HW190940  12.704  13.246   6.987
29722SOL    HW290941  12.586  13.154   7.010
29723SOL     OW90942  13.713   9.738   1.305
29723SOL    HW190943  13.620   9.726   1.283
29723SOL    HW290944  13.759   9.728   1.221
29724SOL     OW90945  12.056   8.512   1.503
29724SOL    HW190946  12.114   8.448   1.545
29724SOL    HW290947  11.978   8.513   1.559
29725SOL     OW90948  12.167   9.369   7.860
29725SOL    HW190949  12.227   9.412   7.798
29725SOL    HW290950  12.199   9.397   7.946
29726SOL     OW90951   5.942  13.089   9.273
29726SOL    HW190952   6.016  13.126   9.321
29726SOL    HW290953   5.878  13.161   9.271
29727SOL     OW90954   0.146  12.799   6.006
29727SOL    HW190955   0.121  12.743   6.079
29727SOL    HW290956   0.064  12.833   5.972
29728SOL     OW90957  10.499   1.093   9.087
29728SOL    HW190958  10.423   1.097   9.145
29728SOL    HW290959  10.470   1.135   9.006
29729SOL     OW90960  13.446  13.176  13.429
29729SOL    HW190961  13.446  13.167  13.524
29729SOL    HW290962  13.538  13.193  13.407
29730SOL     OW90963   4.165  12.176  12.303
29730SOL    HW190964   4.237  12.131  12.257
29730SOL    HW290965   4.090  12.118  12.294
29731SOL     OW90966   6.507   3.488  12.799
29731SOL    HW190967   6.529   3.581  12.790
29731SOL    HW290968   6.419   3.488  12.838
29732SOL     OW90969  11.142   7.368   4.112
29732SOL    HW190970  11.134   7.323   4.028
29732SOL    HW290971  11.226   7.414   4.107
29733SOL     OW90972   4.751   1.339  13.281
29733SOL    HW190973   4.824   1.333  13.220
29733SOL    HW290974   4.726   1.248  13.297
29734SOL     OW90975   9.077   8.066   1.267
29734SOL    HW190976   9.108   7.990   1.317
29734SOL    HW290977   9.147   8.082   1.203
29735SOL     OW90978   2.631   1.111   8.414
29735SOL    HW190979   2.572   1.141   8.483
29735SOL    HW290980   2.616   1.016   8.408
29736SOL     OW90981  11.344   2.479   4.349
29736SOL    HW190982  11.281   2.525   4.293
29736SOL    HW290983  11.409   2.546   4.372
29737SOL     OW90984  13.665   6.204   9.181
29737SOL    HW190985  13.744   6.257   9.187
29737SOL    HW290986  13.596   6.266   9.156
29738SOL     OW90987   1.742   7.674   1.180
29738SOL    HW190988   1.704   7.761   1.193
29738SOL    HW290989   1.836   7.689   1.181
29739SOL     OW90990   3.459  11.664  10.685
29739SOL    HW190991   3.473  11.570  10.682
29739SOL    HW290992   3.402  11.683  10.610
29740SOL     OW90993   1.866  11.336   9.188
29740SOL    HW190994   1.930  11.315   9.119
29740SOL    HW290995   1.916  11.386   9.252
29741SOL     OW90996   1.458   4.902   0.172
29741SOL    HW190997   1.494   4.959   0.104
29741SOL    HW290998   1.365   4.897   0.152
29742SOL     OW90999   4.014   8.195   9.407
29742SOL    HW191000   4.042   8.283   9.383
29742SOL    HW291001   3.982   8.157   9.325
29743SOL     OW91002   3.354  12.012   1.770
29743SOL    HW191003   3.278  11.958   1.748
29743SOL    HW291004   3.380  12.051   1.687
29744SOL     OW91005   4.736   3.862   5.712
29744SOL    HW191006   4.788   3.797   5.665
29744SOL    HW291007   4.724   3.933   5.649
29745SOL     OW91008  10.753   4.696   3.247
29745SOL    HW191009  10.720   4.616   3.285
29745SOL    HW291010  10.813   4.732   3.312
29746SOL     OW91011  11.880  12.120   3.682
29746SOL    HW191012  11.865  12.144   3.590
29746SOL    HW291013  11.830  12.185   3.732
29747SOL     OW91014   9.484   2.253   4.429
29747SOL    HW191015   9.403   2.242   4.478
29747SOL    HW291016   9.551   2.212   4.484
29748SOL     OW91017   5.375   3.796   0.667
29748SOL    HW191018   5.456   3.782   0.618
29748SOL    HW291019   5.335   3.872   0.626
29749SOL     OW91020   3.651   7.806   2.404
29749SOL    HW191021   3.565   7.806   2.447
29749SOL    HW291022   3.674   7.899   2.398
29750SOL     OW91023  13.900   8.808   8.049
29750SOL    HW191024  13.941   8.806   8.136
29750SOL    HW291025  13.815   8.848   8.064
29751SOL     OW91026   7.028  12.524  13.310
29751SOL    HW191027   6.992  12.466  13.243
29751SOL    HW291028   7.005  12.612  13.281
29752SOL     OW91029  11.882   7.140  10.246
29752SOL    HW191030  11.931   7.062  10.221
29752SOL    HW291031  11.847   7.174  10.163
29753SOL     OW91032   2.336   6.585  12.225
29753SOL    HW191033   2.424   6.579  12.187
29753SOL    HW291034   2.345   6.542  12.310
29754SOL     OW91035   4.414   9.916  12.800
29754SOL    HW191036   4.350   9.942  12.867
29754SOL    HW291037   4.360   9.887  12.726
29755SOL     OW91038  14.586   0.302   4.669
29755SOL    HW191039  14.567   0.394   4.656
29755SOL    HW291040  14.579   0.263   4.582
29756SOL     OW91041  13.415   7.807   6.504
29756SOL    HW191042  13.322   7.821   6.485
29756SOL    HW291043  13.459   7.830   6.422
29757SOL     OW91044   8.856  13.398   4.912
29757SOL    HW191045   8.780  13.346   4.937
29757SOL    HW291046   8.931  13.351   4.947
29758SOL     OW91047  14.357  14.859   7.197
29758SOL    HW191048  14.436  14.838   7.247
29758SOL    HW291049  14.293   0.009   7.262
29759SOL     OW91050   1.938   7.790   9.437
29759SOL    HW191051   1.842   7.786   9.445
29759SOL    HW291052   1.955   7.778   9.344
29760SOL     OW91053  13.425   4.580   6.750
29760SOL    HW191054  13.364   4.522   6.795
29760SOL    HW291055  13.456   4.640   6.818
29761SOL     OW91056   8.760  14.259  14.708
29761SOL    HW191057   8.836  14.293  14.756
29761SOL    HW291058   8.710  14.336  14.683
29762SOL     OW91059  12.007  12.696   1.428
29762SOL    HW191060  12.079  12.636   1.407
29762SOL    HW291061  11.946  12.642   1.480
29763SOL     OW91062   9.443  10.840   0.183
29763SOL    HW191063   9.365  10.797   0.149
29763SOL    HW291064   9.420  10.866   0.272
29764SOL     OW91065  13.533  10.551  13.633
29764SOL    HW191066  13.574  10.470  13.604
29764SOL    HW291067  13.512  10.537  13.725
29765SOL     OW91068   1.137   3.894   0.752
29765SOL    HW191069   1.148   3.850   0.836
29765SOL    HW291070   1.043   3.901   0.741
29766SOL     OW91071   7.065   2.084   3.124
29766SOL    HW191072   6.987   2.122   3.083
29766SOL    HW291073   7.031   2.019   3.186
29767SOL     OW91074   6.603   0.270  11.939
29767SOL    HW191075   6.684   0.235  11.901
29767SOL    HW291076   6.610   0.365  11.926
29768SOL     OW91077   7.564   4.822   9.813
29768SOL    HW191078   7.515   4.746   9.842
29768SOL    HW291079   7.505   4.867   9.751
29769SOL     OW91080  14.196   6.043   4.291
29769SOL    HW191081  14.266   6.108   4.293
29769SOL    HW291082  14.217   5.983   4.363
29770SOL     OW91083   4.211   8.363   6.892
29770SOL    HW191084   4.254   8.382   6.976
29770SOL    HW291085   4.162   8.282   6.908
29771SOL     OW91086  11.400  13.189  14.228
29771SOL    HW191087  11.346  13.229  14.160
29771SOL    HW291088  11.374  13.097  14.228
29772SOL     OW91089  14.342   2.643  14.644
29772SOL    HW191090  14.418   2.683  14.686
29772SOL    HW291091  14.289   2.609  14.716
29773SOL     OW91092  13.419   0.228   6.995
29773SOL    HW191093  13.451   0.143   6.966
29773SOL    HW291094  13.344   0.208   7.050
29774SOL     OW91095  14.863  11.881   4.927
29774SOL    HW191096  14.858  11.899   4.833
29774SOL    HW291097  14.823  11.957   4.969
29775SOL     OW91098   7.002  10.644  11.345
29775SOL    HW191099   6.963  10.674  11.427
29775SOL    HW291100   6.973  10.553  11.336
29776SOL     OW91101   3.577   7.434  14.550
29776SOL    HW191102   3.588   7.397  14.463
29776SOL    HW291103   3.649   7.396  14.601
29777SOL     OW91104  13.539   7.391  12.833
29777SOL    HW191105  13.570   7.444  12.759
29777SOL    HW291106  13.567   7.301  12.811
29778SOL     OW91107  11.903   9.908  12.152
29778SOL    HW191108  11.976   9.942  12.203
29778SOL    HW291109  11.852   9.985  12.127
29779SOL     OW91110   7.914  10.672   8.508
29779SOL    HW191111   7.921  10.584   8.543
29779SOL    HW291112   7.826  10.678   8.473
29780SOL     OW91113  10.019  10.090   0.127
29780SOL    HW191114   9.997  10.087   0.221
29780SOL    HW291115   9.963  10.022   0.088
29781SOL     OW91116  13.672  12.459   1.054
29781SOL    HW191117  13.654  12.534   1.110
29781SOL    HW291118  13.610  12.392   1.084
29782SOL     OW91119   7.657  13.956   2.626
29782SOL    HW191120   7.600  13.983   2.698
29782SOL    HW291121   7.733  14.014   2.632
29783SOL     OW91122  13.277   0.432   0.633
29783SOL    HW191123  13.248   0.427   0.724
29783SOL    HW291124  13.370   0.455   0.639
29784SOL     OW91125   1.016  14.770   2.587
29784SOL    HW191126   0.941  14.710   2.585
29784SOL    HW291127   1.013  14.815   2.503
29785SOL     OW91128  13.582  11.792   1.797
29785SOL    HW191129  13.666  11.813   1.756
29785SOL    HW291130  13.600  11.791   1.891
29786SOL     OW91131   9.632   7.789  10.584
29786SOL    HW191132   9.697   7.719  10.597
29786SOL    HW291133   9.627   7.800  10.489
29787SOL     OW91134   3.181   7.167   3.396
29787SOL    HW191135   3.126   7.190   3.471
29787SOL    HW291136   3.267   7.150   3.433
29788SOL     OW91137   2.515   0.563   2.290
29788SOL    HW191138   2.520   0.658   2.284
29788SOL    HW291139   2.568   0.531   2.217
29789SOL     OW91140   3.004   2.727   7.493
29789SOL    HW191141   2.933   2.742   7.431
29789SOL    HW291142   3.048   2.648   7.461
29790SOL     OW91143   0.664   5.992   1.628
29790SOL    HW191144   0.723   6.039   1.569
29790SOL    HW291145   0.670   5.901   1.600
29791SOL     OW91146   1.998   6.328   2.051
29791SOL    HW191147   1.910   6.362   2.036
29791SOL    HW291148   2.031   6.381   2.124
29792SOL     OW91149   7.113   3.232   0.957
29792SOL    HW191150   7.172   3.305   0.937
29792SOL    HW291151   7.142   3.200   1.042
29793SOL     OW91152   4.770  13.939   4.153
29793SOL    HW191153   4.827  13.889   4.094
29793SOL    HW291154   4.829  13.997   4.201
29794SOL     OW91155   4.663   8.171   9.876
29794SOL    HW191156   4.623   8.257   9.864
29794SOL    HW291157   4.598   8.121   9.925
29795SOL     OW91158   6.922   9.483   6.508
29795SOL    HW191159   6.916   9.400   6.461
29795SOL    HW291160   6.845   9.484   6.564
29796SOL     OW91161   8.845  13.505  11.581
29796SOL    HW191162   8.937  13.518  11.607
29796SOL    HW291163   8.809  13.446  11.647
29797SOL     OW91164   9.856   8.255   0.718
29797SOL    HW191165   9.887   8.194   0.785
29797SOL    HW291166   9.912   8.238   0.642
29798SOL     OW91167  12.873   0.286  13.309
29798SOL    HW191168  12.844   0.329  13.389
29798SOL    HW291169  12.856   0.349  13.239
29799SOL     OW91170  12.917   4.029   8.194
29799SOL    HW191171  12.859   4.104   8.206
29799SOL    HW291172  12.861   3.962   8.155
29800SOL     OW91173   9.424  13.780   3.203
29800SOL    HW191174   9.456  13.730   3.278
29800SOL    HW291175   9.357  13.724   3.164
29801SOL     OW91176   9.547   2.872   7.850
29801SOL    HW191177   9.547   2.959   7.811
29801SOL    HW291178   9.454   2.852   7.864
29802SOL     OW91179   5.454   7.576  13.868
29802SOL    HW191180   5.466   7.502  13.928
29802SOL    HW291181   5.360   7.593  13.870
29803SOL     OW91182  10.267  11.069   0.959
29803SOL    HW191183  10.288  11.161   0.969
29803SOL    HW291184  10.352  11.026   0.949
29804SOL     OW91185   9.932  14.864  13.512
29804SOL    HW191186   9.954  14.855  13.419
29804SOL    HW291187   9.930   0.081  13.527
29805SOL     OW91188   9.072   4.475  10.020
29805SOL    HW191189   9.153   4.501  10.064
29805SOL    HW291190   9.044   4.396  10.067
29806SOL     OW91191  13.463  10.020   4.811
29806SOL    HW191192  13.521  10.011   4.736
29806SOL    HW291193  13.402  10.090   4.786
29807SOL     OW91194   5.066   6.195   4.939
29807SOL    HW191195   5.156   6.171   4.964
29807SOL    HW291196   5.036   6.122   4.885
29808SOL     OW91197  13.483   1.660   8.232
29808SOL    HW191198  13.398   1.704   8.232
29808SOL    HW291199  13.481   1.605   8.154
29809SOL     OW91200   9.996   3.328   6.360
29809SOL    HW191201  10.027   3.256   6.306
29809SOL    HW291202  10.001   3.294   6.450
29810SOL     OW91203   7.616  10.679   5.970
29810SOL    HW191204   7.614  10.608   5.907
29810SOL    HW291205   7.550  10.655   6.036
29811SOL     OW91206   7.335   1.126   2.229
29811SOL    HW191207   7.264   1.180   2.264
29811SOL    HW291208   7.309   1.107   2.139
29812SOL     OW91209   8.697   6.110   5.340
29812SOL    HW191210   8.781   6.098   5.384
29812SOL    HW291211   8.691   6.036   5.278
29813SOL     OW91212   9.574   0.735  14.429
29813SOL    HW191213   9.591   0.646  14.461
29813SOL    HW291214   9.658   0.765  14.396
29814SOL     OW91215  11.018   1.477   0.389
29814SOL    HW191216  11.018   1.436   0.475
29814SOL    HW291217  11.013   1.404   0.327
29815SOL     OW91218   8.688   0.897  12.909
29815SOL    HW191219   8.641   0.945  12.977
29815SOL    HW291220   8.779   0.896  12.940
29816SOL     OW91221   2.911   5.541  13.464
29816SOL    HW191222   2.988   5.592  13.441
29816SOL    HW291223   2.849   5.558  13.392
29817SOL     OW91224   8.890   3.866   8.034
29817SOL    HW191225   8.971   3.861   7.983
29817SOL    HW291226   8.828   3.911   7.977
29818SOL     OW91227  11.839   2.372   9.225
29818SOL    HW191228  11.800   2.332   9.302
29818SOL    HW291229  11.788   2.452   9.211
29819SOL     OW91230  13.319   2.119  13.351
29819SOL    HW191231  13.296   2.087  13.264
29819SOL    HW291232  13.394   2.066  13.378
29820SOL     OW91233   3.054  12.646   1.148
29820SOL    HW191234   3.049  12.654   1.052
29820SOL    HW291235   2.981  12.587   1.170
29821SOL     OW91236   9.388   3.211  12.033
29821SOL    HW191237   9.436   3.267  11.972
29821SOL    HW291238   9.456   3.169  12.086
29822SOL     OW91239   7.111   1.099  12.796
29822SOL    HW191240   7.131   1.017  12.750
29822SOL    HW291241   7.197   1.135  12.819
29823SOL     OW91242  14.438  11.514   1.167
29823SOL    HW191243  14.507  11.466   1.121
29823SOL    HW291244  14.473  11.602   1.179
29824SOL     OW91245   5.987   9.677   1.766
29824SOL    HW191246   5.986   9.693   1.672
29824SOL    HW291247   5.903   9.711   1.797
29825SOL     OW91248   4.655   8.716   6.537
29825SOL    HW191249   4.704   8.783   6.489
29825SOL    HW291250   4.660   8.638   6.482
29826SOL     OW91251   7.548   4.029   5.841
29826SOL    HW191252   7.459   4.016   5.806
29826SOL    HW291253   7.561   4.124   5.835
29827SOL     OW91254   0.174  10.679  10.394
29827SOL    HW191255   0.159  10.765  10.434
29827SOL    HW291256   0.268  10.665  10.404
29828SOL     OW91257   6.827   3.942  11.805
29828SOL    HW191258   6.815   3.865  11.750
29828SOL    HW291259   6.777   3.924  11.884
29829SOL     OW91260   6.529   4.857   7.978
29829SOL    HW191261   6.576   4.823   8.054
29829SOL    HW291262   6.437   4.841   7.998
29830SOL     OW91263   6.030   5.406  14.186
29830SOL    HW191264   6.099   5.472  14.178
29830SOL    HW291265   5.948   5.456  14.178
29831SOL     OW91266   2.872   8.876   1.347
29831SOL    HW191267   2.856   8.796   1.397
29831SOL    HW291268   2.788   8.896   1.306
29832SOL     OW91269   3.257   0.963   9.842
29832SOL    HW191270   3.212   0.926   9.766
29832SOL    HW291271   3.339   0.998   9.807
29833SOL     OW91272  12.673  11.321  12.351
29833SOL    HW191273  12.631  11.260  12.412
29833SOL    HW291274  12.734  11.267  12.301
29834SOL     OW91275   4.462   3.050  13.418
29834SOL    HW191276   4.551   3.021  13.398
29834SOL    HW291277   4.472   3.106  13.495
29835SOL     OW91278  13.958   3.306   9.537
29835SOL    HW191279  14.049   3.336   9.546
29835SOL    HW291280  13.944   3.251   9.615
29836SOL     OW91281   7.188   3.735   5.707
29836SOL    HW191282   7.190   3.812   5.649
29836SOL    HW291283   7.111   3.686   5.679
29837SOL     OW91284   1.203   2.319   3.193
29837SOL    HW191285   1.229   2.405   3.226
29837SOL    HW291286   1.265   2.258   3.233
29838SOL     OW91287   0.118   0.358   7.244
29838SOL    HW191288   0.077   0.441   7.219
29838SOL    HW291289   0.181   0.341   7.174
29839SOL     OW91290   2.871   5.500   1.133
29839SOL    HW191291   2.848   5.564   1.201
29839SOL    HW291292   2.914   5.429   1.181
29840SOL     OW91293  10.508  12.467   2.241
29840SOL    HW191294  10.455  12.389   2.221
29840SOL    HW291295  10.595  12.432   2.260
29841SOL     OW91296   5.188   7.367  12.443
29841SOL    HW191297   5.283   7.355  12.436
29841SOL    HW291298   5.162   7.309  12.515
29842SOL     OW91299   1.063  10.199   5.561
29842SOL    HW191300   1.064  10.141   5.637
29842SOL    HW291301   1.108  10.278   5.590
29843SOL     OW91302   1.142   5.819   1.344
29843SOL    HW191303   1.048   5.833   1.341
29843SOL    HW291304   1.155   5.756   1.415
29844SOL     OW91305   8.664   8.547   3.873
29844SOL    HW191306   8.659   8.588   3.959
29844SOL    HW291307   8.584   8.495   3.866
29845SOL     OW91308   1.363   1.806   7.130
29845SOL    HW191309   1.409   1.787   7.048
29845SOL    HW291310   1.274   1.774   7.115
29846SOL     OW91311   1.439   2.293   5.955
29846SOL    HW191312   1.432   2.373   6.008
29846SOL    HW291313   1.532   2.287   5.932
29847SOL     OW91314   9.185   1.704   0.730
29847SOL    HW191315   9.201   1.798   0.720
29847SOL    HW291316   9.181   1.670   0.640
29848SOL     OW91317   2.186   0.156   2.114
29848SOL    HW191318   2.110   0.212   2.125
29848SOL    HW291319   2.244   0.179   2.186
29849SOL     OW91320  14.347  14.346   5.324
29849SOL    HW191321  14.277  14.397   5.285
29849SOL    HW291322  14.356  14.269   5.267
29850SOL     OW91323   7.937   8.423  13.365
29850SOL    HW191324   7.972   8.354  13.420
29850SOL    HW291325   8.014   8.467  13.328
29851SOL     OW91326   8.704  14.786   9.429
29851SOL    HW191327   8.639  14.761   9.493
29851SOL    HW291328   8.664  14.765   9.344
29852SOL     OW91329   1.845   6.145   3.632
29852SOL    HW191330   1.753   6.132   3.610
29852SOL    HW291331   1.869   6.067   3.682
29853SOL     OW91332  11.717  14.649   5.602
29853SOL    HW191333  11.647  14.635   5.666
29853SOL    HW291334  11.786  14.588   5.628
29854SOL     OW91335  10.853   3.881   2.641
29854SOL    HW191336  10.919   3.886   2.710
29854SOL    HW291337  10.771   3.866   2.688
29855SOL     OW91338   5.466   8.170  11.166
29855SOL    HW191339   5.547   8.187  11.117
29855SOL    HW291340   5.397   8.172  11.099
29856SOL     OW91341  11.648   7.053  13.998
29856SOL    HW191342  11.566   7.087  13.961
29856SOL    HW291343  11.637   7.063  14.093
29857SOL     OW91344   9.023   4.541   1.074
29857SOL    HW191345   9.076   4.475   1.119
29857SOL    HW291346   8.988   4.496   0.998
29858SOL     OW91347  14.379   9.577   8.565
29858SOL    HW191348  14.355   9.601   8.476
29858SOL    HW291349  14.355   9.653   8.618
29859SOL     OW91350   1.777   3.968   6.257
29859SOL    HW191351   1.846   4.029   6.284
29859SOL    HW291352   1.705   3.985   6.319
29860SOL     OW91353   3.797   9.933   2.778
29860SOL    HW191354   3.891   9.942   2.759
29860SOL    HW291355   3.793   9.921   2.873
29861SOL     OW91356   3.301  10.612  13.532
29861SOL    HW191357   3.395  10.614  13.517
29861SOL    HW291358   3.269  10.540  13.478
29862SOL     OW91359   2.585   6.687   9.719
29862SOL    HW191360   2.623   6.600   9.735
29862SOL    HW291361   2.502   6.668   9.675
29863SOL     OW91362  10.933   5.765   5.786
29863SOL    HW191363  10.851   5.803   5.817
29863SOL    HW291364  10.979   5.739   5.866
29864SOL     OW91365   7.617  10.250   9.947
29864SOL    HW191366   7.618  10.281  10.038
29864SOL    HW291367   7.705  10.270   9.915
29865SOL     OW91368  12.841   8.491  11.221
29865SOL    HW191369  12.792   8.505  11.140
29865SOL    HW291370  12.932   8.489  11.193
29866SOL     OW91371   0.029   7.986   5.493
29866SOL    HW191372   0.122   7.964   5.503
29866SOL    HW291373  14.877   8.003   5.583
29867SOL     OW91374   7.233  14.647   6.642
29867SOL    HW191375   7.252  14.710   6.572
29867SOL    HW291376   7.138  14.634   6.637
29868SOL     OW91377  10.146   0.706  14.135
29868SOL    HW191378  10.134   0.618  14.173
29868SOL    HW291379  10.173   0.690  14.045
29869SOL     OW91380   7.389   1.691   7.724
29869SOL    HW191381   7.368   1.721   7.813
29869SOL    HW291382   7.305   1.689   7.679
29870SOL     OW91383   3.213   3.142  12.695
29870SOL    HW191384   3.238   3.092  12.773
29870SOL    HW291385   3.129   3.183  12.717
29871SOL     OW91386  14.717  12.622   7.561
29871SOL    HW191387  14.783  12.585   7.503
29871SOL    HW291388  14.766  12.678   7.621
29872SOL     OW91389   1.149   8.235   2.639
29872SOL    HW191390   1.155   8.327   2.616
29872SOL    HW291391   1.239   8.210   2.662
29873SOL     OW91392  13.365   3.258  13.259
29873SOL    HW191393  13.297   3.280  13.194
29873SOL    HW291394  13.384   3.166  13.244
29874SOL     OW91395   1.713   0.084   4.874
29874SOL    HW191396   1.799   0.089   4.832
29874SOL    HW291397   1.671   0.168   4.855
29875SOL     OW91398   0.297   8.309   0.572
29875SOL    HW191399   0.369   8.368   0.549
29875SOL    HW291400   0.291   8.314   0.667
29876SOL     OW91401   7.257  10.914   0.329
29876SOL    HW191402   7.344  10.880   0.307
29876SOL    HW291403   7.214  10.843   0.376
29877SOL     OW91404   5.686  13.982   8.658
29877SOL    HW191405   5.692  13.924   8.583
29877SOL    HW291406   5.685  13.923   8.734
29878SOL     OW91407   3.254  13.888   7.443
29878SOL    HW191408   3.260  13.954   7.512
29878SOL    HW291409   3.289  13.808   7.484
29879SOL     OW91410  11.865  13.448   2.500
29879SOL    HW191411  11.902  13.372   2.545
29879SOL    HW291412  11.792  13.476   2.556
29880SOL     OW91413  12.419  12.191   4.343
29880SOL    HW191414  12.443  12.146   4.424
29880SOL    HW291415  12.365  12.265   4.371
29881SOL     OW91416   8.132   7.262   9.153
29881SOL    HW191417   8.046   7.245   9.192
29881SOL    HW291418   8.116   7.269   9.059
29882SOL     OW91419   1.172   4.620  13.919
29882SOL    HW191420   1.181   4.654  14.008
29882SOL    HW291421   1.125   4.689  13.872
29883SOL     OW91422   6.076   6.419  11.967
29883SOL    HW191423   6.060   6.330  11.999
29883SOL    HW291424   6.107   6.467  12.045
29884SOL     OW91425   8.402   3.993  13.262
29884SOL    HW191426   8.344   4.012  13.336
29884SOL    HW291427   8.471   4.059  13.267
29885SOL     OW91428  13.109   6.581  10.019
29885SOL    HW191429  13.149   6.667  10.001
29885SOL    HW291430  13.170   6.539  10.079
29886SOL     OW91431  12.058  10.964  11.035
29886SOL    HW191432  12.057  10.873  11.066
29886SOL    HW291433  12.107  11.012  11.102
29887SOL     OW91434  10.183   5.751  10.632
29887SOL    HW191435  10.089   5.756  10.644
29887SOL    HW291436  10.200   5.806  10.556
29888SOL     OW91437  11.423  14.247  13.636
29888SOL    HW191438  11.492  14.292  13.588
29888SOL    HW291439  11.404  14.305  13.710
29889SOL     OW91440   7.436   9.873   3.923
29889SOL    HW191441   7.452   9.958   3.882
29889SOL    HW291442   7.522   9.831   3.926
29890SOL     OW91443   3.772   8.865   7.217
29890SOL    HW191444   3.770   8.771   7.229
29890SOL    HW291445   3.693   8.885   7.166
29891SOL     OW91446  10.381   4.355   0.561
29891SOL    HW191447  10.381   4.451   0.559
29891SOL    HW291448  10.410   4.333   0.650
29892SOL     OW91449  10.873   5.405   8.626
29892SOL    HW191450  10.873   5.390   8.532
29892SOL    HW291451  10.956   5.450   8.643
29893SOL     OW91452   9.331   1.096   4.791
29893SOL    HW191453   9.402   1.142   4.836
29893SOL    HW291454   9.373   1.019   4.754
29894SOL     OW91455  10.175   8.162   4.404
29894SOL    HW191456  10.103   8.180   4.464
29894SOL    HW291457  10.155   8.075   4.369
29895SOL     OW91458   7.317   2.019   0.015
29895SOL    HW191459   7.288   1.930   0.034
29895SOL    HW291460   7.264   2.047  14.818
29896SOL     OW91461  10.504   7.903   1.507
29896SOL    HW191462  10.490   7.979   1.450
29896SOL    HW291463  10.416   7.870   1.523
29897SOL     OW91464   2.636   7.895   8.392
29897SOL    HW191465   2.622   7.856   8.478
29897SOL    HW291466   2.710   7.847   8.355
29898SOL     OW91467   7.351   5.257   9.430
29898SOL    HW191468   7.331   5.192   9.362
29898SOL    HW291469   7.266   5.297   9.449
29899SOL     OW91470  12.113  10.855   7.808
29899SOL    HW191471  12.154  10.942   7.807
29899SOL    HW291472  12.125  10.824   7.898
29900SOL     OW91473  13.664   3.223  13.468
29900SOL    HW191474  13.627   3.135  13.473
29900SOL    HW291475  13.664   3.254  13.559
29901SOL     OW91476   4.527   0.913   7.549
29901SOL    HW191477   4.506   1.002   7.576
29901SOL    HW291478   4.443   0.867   7.548
29902SOL     OW91479   7.027  10.536  11.681
29902SOL    HW191480   7.011  10.623  11.646
29902SOL    HW291481   6.940  10.496  11.686
29903SOL     OW91482  12.678  11.297   6.958
29903SOL    HW191483  12.588  11.271   6.975
29903SOL    HW291484  12.731  11.239   7.013
29904SOL     OW91485   0.739   9.096   3.727
29904SOL    HW191486   0.739   9.174   3.671
29904SOL    HW291487   0.817   9.106   3.781
29905SOL     OW91488   2.721   2.078  12.486
29905SOL    HW191489   2.654   2.016  12.460
29905SOL    HW291490   2.772   2.093  12.407
29906SOL     OW91491  10.144   9.979   6.569
29906SOL    HW191492  10.114  10.023   6.649
29906SOL    HW291493  10.239   9.971   6.581
29907SOL     OW91494   6.335   2.907   1.922
29907SOL    HW191495   6.291   2.822   1.917
29907SOL    HW291496   6.368   2.922   1.833
29908SOL     OW91497   8.000   1.112  10.313
29908SOL    HW191498   7.946   1.143  10.241
29908SOL    HW291499   7.961   1.027  10.337
29909SOL     OW91500   2.217   6.852   2.894
29909SOL    HW191501   2.227   6.944   2.872
29909SOL    HW291502   2.277   6.806   2.835
29910SOL     OW91503   8.249   3.211   8.958
29910SOL    HW191504   8.233   3.301   8.986
29910SOL    HW291505   8.341   3.209   8.933
29911SOL     OW91506   9.974   7.326  12.201
29911SOL    HW191507   9.918   7.315  12.124
29911SOL    HW291508   9.912   7.342  12.273
29912SOL     OW91509   0.728   6.852  14.438
29912SOL    HW191510   0.725   6.769  14.486
29912SOL    HW291511   0.643   6.892  14.454
29913SOL     OW91512   4.327  12.031   0.743
29913SOL    HW191513   4.245  12.042   0.694
29913SOL    HW291514   4.342  11.937   0.743
29914SOL     OW91515   6.601  11.325  14.780
29914SOL    HW191516   6.569  11.328  14.690
29914SOL    HW291517   6.693  11.352  14.774
29915SOL     OW91518   9.768   4.135   0.159
29915SOL    HW191519   9.845   4.188   0.139
29915SOL    HW291520   9.804   4.051   0.187
29916SOL     OW91521   0.397  11.150   8.781
29916SOL    HW191522   0.306  11.121   8.776
29916SOL    HW291523   0.448  11.073   8.754
29917SOL     OW91524  12.188  13.885   9.135
29917SOL    HW191525  12.201  13.794   9.160
29917SOL    HW291526  12.190  13.934   9.217
29918SOL     OW91527   1.256   2.257   4.112
29918SOL    HW191528   1.326   2.194   4.127
29918SOL    HW291529   1.202   2.216   4.044
29919SOL     OW91530  10.371  10.470  13.485
29919SOL    HW191531  10.316  10.426  13.550
29919SOL    HW291532  10.455  10.426  13.491
29920SOL     OW91533  11.264   8.949   7.324
29920SOL    HW191534  11.193   8.919   7.268
29920SOL    HW291535  11.224   9.013   7.382
29921SOL     OW91536   7.695   3.575   3.694
29921SOL    HW191537   7.678   3.579   3.599
29921SOL    HW291538   7.720   3.484   3.710
29922SOL     OW91539   7.937   9.139  12.495
29922SOL    HW191540   7.854   9.100  12.465
29922SOL    HW291541   7.996   9.129  12.420
29923SOL     OW91542   9.940   1.064   0.306
29923SOL    HW191543   9.955   1.157   0.287
29923SOL    HW291544   9.874   1.037   0.242
29924SOL     OW91545   5.975   4.526  10.276
29924SOL    HW191546   6.027   4.531  10.196
29924SOL    HW291547   5.937   4.613  10.285
29925SOL     OW91548  13.708   3.758   8.213
29925SOL    HW191549  13.747   3.742   8.299
29925SOL    HW291550  13.629   3.809   8.231
29926SOL     OW91551   5.793  13.673   7.193
29926SOL    HW191552   5.715  13.642   7.147
29926SOL    HW291553   5.793  13.624   7.276
29927SOL     OW91554   0.868   2.765  14.170
29927SOL    HW191555   0.892   2.673  14.164
29927SOL    HW291556   0.789   2.772  14.116
29928SOL     OW91557  12.671   1.508  10.152
29928SOL    HW191558  12.650   1.425  10.194
29928SOL    HW291559  12.741   1.546  10.206
29929SOL     OW91560   5.731  11.473   7.575
29929SOL    HW191561   5.682  11.452   7.654
29929SOL    HW291562   5.821  11.483   7.605
29930SOL     OW91563   0.801   7.520   9.277
29930SOL    HW191564   0.895   7.509   9.295
29930SOL    HW291565   0.768   7.431   9.267
29931SOL     OW91566   7.114  11.236   1.655
29931SOL    HW191567   7.165  11.161   1.624
29931SOL    HW291568   7.074  11.206   1.736
29932SOL     OW91569   4.721  10.171  11.242
29932SOL    HW191570   4.813  10.147  11.226
29932SOL    HW291571   4.715  10.262  11.215
29933SOL     OW91572  10.225   2.681  10.867
29933SOL    HW191573  10.209   2.602  10.816
29933SOL    HW291574  10.165   2.676  10.940
29934SOL     OW91575   1.303   5.526  11.766
29934SOL    HW191576   1.275   5.455  11.824
29934SOL    HW291577   1.233   5.533  11.701
29935SOL     OW91578  14.397  14.746   2.413
29935SOL    HW191579  14.407  14.836   2.382
29935SOL    HW291580  14.405  14.753   2.508
29936SOL     OW91581  14.710   8.059   8.754
29936SOL    HW191582  14.687   8.146   8.787
29936SOL    HW291583  14.749   8.015   8.830
29937SOL     OW91584  11.187  11.078   9.587
29937SOL    HW191585  11.282  11.078   9.596
29937SOL    HW291586  11.160  10.991   9.614
29938SOL     OW91587   2.421   1.415   1.214
29938SOL    HW191588   2.370   1.336   1.235
29938SOL    HW291589   2.375   1.485   1.260
29939SOL     OW91590   6.119   6.432   9.487
29939SOL    HW191591   6.090   6.507   9.539
29939SOL    HW291592   6.116   6.463   9.397
29940SOL     OW91593  12.630   2.840  12.581
29940SOL    HW191594  12.647   2.934  12.584
29940SOL    HW291595  12.714   2.799  12.600
29941SOL     OW91596  10.897   4.558   9.383
29941SOL    HW191597  10.811   4.558   9.341
29941SOL    HW291598  10.881   4.594   9.470
29942SOL     OW91599   7.747  13.017   5.477
29942SOL    HW191600   7.770  12.992   5.566
29942SOL    HW291601   7.684  12.951   5.449
29943SOL     OW91602   3.429  11.849  14.787
29943SOL    HW191603   3.397  11.846  14.877
29943SOL    HW291604   3.375  11.915  14.744
29944SOL     OW91605   3.076   6.969   0.753
29944SOL    HW191606   3.063   6.997   0.663
29944SOL    HW291607   3.002   7.006   0.801
29945SOL     OW91608   5.555  14.812   0.999
29945SOL    HW191609   5.522  14.787   0.912
29945SOL    HW291610   5.620   0.002   0.981
29946SOL     OW91611   6.497   7.707   8.664
29946SOL    HW191612   6.521   7.779   8.722
29946SOL    HW291613   6.404   7.721   8.645
29947SOL     OW91614  14.575   9.800   8.063
29947SOL    HW191615  14.656   9.780   8.015
29947SOL    HW291616  14.559   9.893   8.045
29948SOL     OW91617  12.575  11.147  13.212
29948SOL    HW191618  12.639  11.083  13.243
29948SOL    HW291619  12.505  11.145  13.278
29949SOL     OW91620   3.565   9.373  11.429
29949SOL    HW191621   3.601   9.304  11.372
29949SOL    HW291622   3.552   9.330  11.513
29950SOL     OW91623   3.669  13.840  12.135
29950SOL    HW191624   3.665  13.745  12.126
29950SOL    HW291625   3.671  13.855  12.230
29951SOL     OW91626   1.303  14.715   6.621
29951SOL    HW191627   1.273  14.651   6.685
29951SOL    HW291628   1.355  14.664   6.559
29952SOL     OW91629  13.401   6.360  12.455
29952SOL    HW191630  13.484   6.398  12.484
29952SOL    HW291631  13.417   6.265  12.455
29953SOL     OW91632   8.284   3.390  12.483
29953SOL    HW191633   8.323   3.375  12.569
29953SOL    HW291634   8.228   3.467  12.496
29954SOL     OW91635   2.996   4.790   3.844
29954SOL    HW191636   3.065   4.730   3.870
29954SOL    HW291637   3.030   4.877   3.866
29955SOL     OW91638  12.839   8.687  12.595
29955SOL    HW191639  12.772   8.624  12.568
29955SOL    HW291640  12.823   8.701  12.688
29956SOL     OW91641  11.356  10.699   1.110
29956SOL    HW191642  11.372  10.665   1.022
29956SOL    HW291643  11.361  10.622   1.167
29957SOL     OW91644   4.525   7.756  13.908
29957SOL    HW191645   4.585   7.682  13.899
29957SOL    HW291646   4.582   7.833  13.908
29958SOL     OW91647  14.511  13.717  14.466
29958SOL    HW191648  14.568  13.641  14.453
29958SOL    HW291649  14.423  13.685  14.448
29959SOL     OW91650   4.376  10.540  11.520
29959SOL    HW191651   4.372  10.447  11.543
29959SOL    HW291652   4.289  10.561  11.488
29960SOL     OW91653  10.198   9.848  10.159
29960SOL    HW191654  10.234   9.921  10.109
29960SOL    HW291655  10.199   9.774  10.098
29961SOL     OW91656   6.248   6.981   9.561
29961SOL    HW191657   6.160   6.980   9.524
29961SOL    HW291658   6.287   6.898   9.534
29962SOL     OW91659  12.486   3.554  12.935
29962SOL    HW191660  12.549   3.621  12.910
29962SOL    HW291661  12.446   3.526  12.852
29963SOL     OW91662   5.181  10.883  11.596
29963SOL    HW191663   5.198  10.962  11.544
29963SOL    HW291664   5.143  10.917  11.678
29964SOL     OW91665  12.781  12.114   0.372
29964SOL    HW191666  12.756  12.142   0.460
29964SOL    HW291667  12.848  12.176   0.345
29965SOL     OW91668  14.739  11.856   2.622
29965SOL    HW191669  14.697  11.891   2.701
29965SOL    HW291670  14.722  11.762   2.625
29966SOL     OW91671   2.939   1.387   7.242
29966SOL    HW191672   2.887   1.321   7.288
29966SOL    HW291673   3.001   1.336   7.189
29967SOL     OW91674   8.258   4.313  10.504
29967SOL    HW191675   8.218   4.227  10.488
29967SOL    HW291676   8.335   4.314  10.447
29968SOL     OW91677   5.014   7.523  13.131
29968SOL    HW191678   5.096   7.497  13.089
29968SOL    HW291679   5.040   7.554  13.218
29969SOL     OW91680   5.201   0.482  10.844
29969SOL    HW191681   5.296   0.486  10.838
29969SOL    HW291682   5.170   0.511  10.758
29970SOL     OW91683  14.760  13.441   2.070
29970SOL    HW191684  14.702  13.369   2.045
29970SOL    HW291685  14.781  13.485   1.987
29971SOL     OW91686   8.051   2.980   9.796
29971SOL    HW191687   8.085   2.968   9.884
29971SOL    HW291688   7.971   3.031   9.807
29972SOL     OW91689  13.157   5.079  13.037
29972SOL    HW191690  13.184   4.989  13.054
29972SOL    HW291691  13.068   5.072  13.004
29973SOL     OW91692  10.919  11.386  11.071
29973SOL    HW191693  10.989  11.403  11.134
29973SOL    HW291694  10.874  11.310  11.106
29974SOL     OW91695  12.848   6.420   3.910
29974SOL    HW191696  12.937   6.455   3.916
29974SOL    HW291697  12.810   6.462   3.833
29975SOL     OW91698  13.244   9.911   2.544
29975SOL    HW191699  13.301   9.847   2.588
29975SOL    HW291700  13.304   9.959   2.486
29976SOL     OW91701   6.741   7.589   9.057
29976SOL    HW191702   6.816   7.648   9.051
29976SOL    HW291703   6.753   7.527   8.985
29977SOL     OW91704   3.203  12.289  14.826
29977SOL    HW191705   3.241  12.377  14.829
29977SOL    HW291706   3.163  12.278   0.035
29978SOL     OW91707   4.411  12.800   7.388
29978SOL    HW191708   4.377  12.727   7.440
29978SOL    HW291709   4.496  12.770   7.357
29979SOL     OW91710  10.045  14.669  12.004
29979SOL    HW191711  10.141  14.667  12.008
29979SOL    HW291712  10.018  14.661  12.095
29980SOL     OW91713  10.761   0.299   8.544
29980SOL    HW191714  10.673   0.334   8.532
29980SOL    HW291715  10.790   0.275   8.456
29981SOL     OW91716   7.919   4.273   9.561
29981SOL    HW191717   7.943   4.364   9.545
29981SOL    HW291718   7.842   4.259   9.507
29982SOL     OW91719  10.180   9.083   4.663
29982SOL    HW191720  10.175   8.988   4.675
29982SOL    HW291721  10.170   9.096   4.569
29983SOL     OW91722   0.283   2.648   0.155
29983SOL    HW191723   0.281   2.737   0.191
29983SOL    HW291724   0.196   2.636   0.116
29984SOL     OW91725   8.606   3.696   7.747
29984SOL    HW191726   8.584   3.638   7.819
29984SOL    HW291727   8.695   3.726   7.766
29985SOL     OW91728   7.853  13.558   7.210
29985SOL    HW191729   7.903  13.562   7.291
29985SOL    HW291730   7.770  13.518   7.234
29986SOL     OW91731   1.532   0.351   4.248
29986SOL    HW191732   1.539   0.329   4.341
29986SOL    HW291733   1.507   0.269   4.206
29987SOL     OW91734   2.150   8.483   5.331
29987SOL    HW191735   2.081   8.520   5.386
29987SOL    HW291736   2.214   8.447   5.393
29988SOL     OW91737   1.657  13.395   4.010
29988SOL    HW191738   1.734  13.366   4.060
29988SOL    HW291739   1.632  13.478   4.050
29989SOL     OW91740   9.375   4.389   9.256
29989SOL    HW191741   9.410   4.444   9.326
29989SOL    HW291742   9.407   4.301   9.277
29990SOL     OW91743   9.589  10.837  11.630
29990SOL    HW191744   9.580  10.742  11.639
29990SOL    HW291745   9.535  10.859  11.554
29991SOL     OW91746  11.013  13.016  14.278
29991SOL    HW191747  10.972  13.017  14.364
29991SOL    HW291748  10.942  13.031  14.216
29992SOL     OW91749  12.352   2.680   2.812
29992SOL    HW191750  12.304   2.638   2.884
29992SOL    HW291751  12.441   2.646   2.821
29993SOL     OW91752   1.636   3.509   0.648
29993SOL    HW191753   1.717   3.544   0.686
29993SOL    HW291754   1.571   3.519   0.717
29994SOL     OW91755   8.498  14.693   0.497
29994SOL    HW191756   8.539  14.735   0.573
29994SOL    HW291757   8.465  14.610   0.531
29995SOL     OW91758  14.077   5.122   1.626
29995SOL    HW191759  14.018   5.079   1.688
29995SOL    HW291760  14.161   5.127   1.673
29996SOL     OW91761  11.712   6.592  12.686
29996SOL    HW191762  11.677   6.510  12.720
29996SOL    HW291763  11.654   6.615  12.614
29997SOL     OW91764   3.339   6.044   6.740
29997SOL    HW191765   3.366   6.124   6.696
29997SOL    HW291766   3.412   6.023   6.799
29998SOL     OW91767   6.672  13.288   4.541
29998SOL    HW191768   6.651  13.337   4.461
29998SOL    HW291769   6.764  13.308   4.558
29999SOL     OW91770   5.943   5.336   2.907
29999SOL    HW191771   5.890   5.325   2.828
29999SOL    HW291772   5.902   5.278   2.971
30000SOL     OW91773  11.169   6.412   2.558
30000SOL    HW191774  11.109   6.433   2.486
30000SOL    HW291775  11.173   6.317   2.559
30001SOL     OW91776   6.171   5.386   1.919
30001SOL    HW191777   6.245   5.428   1.876
30001SOL    HW291778   6.203   5.362   2.006
30002SOL     OW91779   0.346  10.052  12.476
30002SOL    HW191780   0.440  10.068  12.468
30002SOL    HW291781   0.316  10.043  12.385
30003SOL     OW91782   9.640   8.754   8.212
30003SOL    HW191783   9.562   8.728   8.261
30003SOL    HW291784   9.641   8.698   8.135
30004SOL     OW91785   7.101  13.105  14.785
30004SOL    HW191786   7.104  13.061  14.700
30004SOL    HW291787   7.013  13.089  14.818
30005SOL     OW91788   9.988   2.191  12.413
30005SOL    HW191789  10.009   2.178  12.321
30005SOL    HW291790   9.923   2.262  12.413
30006SOL     OW91791   4.825   2.711   0.136
30006SOL    HW191792   4.882   2.635   0.147
30006SOL    HW291793   4.859   2.777   0.197
30007SOL     OW91794  11.846   2.526   1.173
30007SOL    HW191795  11.842   2.603   1.230
30007SOL    HW291796  11.764   2.480   1.189
30008SOL     OW91797  13.214  13.536   3.730
30008SOL    HW191798  13.251  13.532   3.641
30008SOL    HW291799  13.166  13.454   3.739
30009SOL     OW91800   5.519  10.933   3.670
30009SOL    HW191801   5.462  10.986   3.726
30009SOL    HW291802   5.528  10.984   3.590
30010SOL     OW91803   1.242   4.116  13.919
30010SOL    HW191804   1.267   4.202  13.954
30010SOL    HW291805   1.323   4.065  13.922
30011SOL     OW91806  10.121   6.202   3.736
30011SOL    HW191807  10.087   6.118   3.767
30011SOL    HW291808  10.212   6.203   3.767
30012SOL     OW91809  13.388   5.456  14.312
30012SOL    HW191810  13.341   5.400  14.250
30012SOL    HW291811  13.479   5.428  14.306
30013SOL     OW91812   1.301  14.561  13.062
30013SOL    HW191813   1.329  14.580  12.973
30013SOL    HW291814   1.205  14.559  13.056
30014SOL     OW91815   7.096   9.330  14.059
30014SOL    HW191816   7.098   9.425  14.068
30014SOL    HW291817   7.076   9.298  14.147
30015SOL     OW91818   5.964  13.593   5.540
30015SOL    HW191819   5.878  13.631   5.559
30015SOL    HW291820   5.982  13.537   5.615
30016SOL     OW91821   5.838   7.493   7.474
30016SOL    HW191822   5.852   7.588   7.477
30016SOL    HW291823   5.788   7.479   7.393
30017SOL     OW91824   4.858  13.910   6.528
30017SOL    HW191825   4.829  13.827   6.567
30017SOL    HW291826   4.953  13.909   6.540
30018SOL     OW91827   4.981  13.802   4.486
30018SOL    HW191828   4.922  13.744   4.438
30018SOL    HW291829   4.928  13.881   4.502
30019SOL     OW91830   8.634   0.188  12.016
30019SOL    HW191831   8.653   0.095  12.027
30019SOL    HW291832   8.708   0.222  11.966
30020SOL     OW91833   9.908   3.506  11.810
30020SOL    HW191834   9.946   3.519  11.723
30020SOL    HW291835   9.906   3.593  11.849
30021SOL     OW91836  11.141   6.266  14.307
30021SOL    HW191837  11.181   6.196  14.359
30021SOL    HW291838  11.213   6.306  14.259
30022SOL     OW91839  13.982  13.122   4.317
30022SOL    HW191840  14.071  13.099   4.344
30022SOL    HW291841  13.957  13.194   4.375
30023SOL     OW91842   6.137  11.364   0.132
30023SOL    HW191843   6.226  11.385   0.104
30023SOL    HW291844   6.140  11.270   0.152
30024SOL     OW91845   4.926   8.515   1.224
30024SOL    HW191846   4.859   8.491   1.288
30024SOL    HW291847   5.007   8.477   1.259
30025SOL     OW91848  12.852   9.003  12.768
30025SOL    HW191849  12.825   9.026  12.679
30025SOL    HW291850  12.783   9.040  12.823
30026SOL     OW91851   4.974   7.675   7.723
30026SOL    HW191852   5.056   7.627   7.723
30026SOL    HW291853   4.990   7.752   7.668
30027SOL     OW91854  11.832   4.108  11.359
30027SOL    HW191855  11.805   4.200  11.370
30027SOL    HW291856  11.927   4.111  11.360
30028SOL     OW91857   7.881  12.701  10.404
30028SOL    HW191858   7.938  12.688  10.480
30028SOL    HW291859   7.793  12.682  10.437
30029SOL     OW91860   6.756   3.736   9.477
30029SOL    HW191861   6.704   3.686   9.540
30029SOL    HW291862   6.846   3.709   9.493
30030SOL     OW91863   8.638  11.674  12.556
30030SOL    HW191864   8.543  11.668  12.540
30030SOL    HW291865   8.651  11.763  12.589
30031SOL     OW91866  12.838   6.593  12.996
30031SOL    HW191867  12.924   6.621  13.028
30031SOL    HW291868  12.791   6.675  12.981
30032SOL     OW91869   8.214   9.470  12.456
30032SOL    HW191870   8.229   9.383  12.420
30032SOL    HW291871   8.286   9.483  12.518
30033SOL     OW91872   1.503   9.206  14.844
30033SOL    HW191873   1.487   9.118  14.812
30033SOL    HW291874   1.479   9.203   0.059
30034SOL     OW91875  13.353   6.514   5.188
30034SOL    HW191876  13.372   6.535   5.280
30034SOL    HW291877  13.262   6.484   5.189
30035SOL     OW91878   9.807   0.143   8.636
30035SOL    HW191879   9.718   0.125   8.605
30035SOL    HW291880   9.834   0.220   8.586
30036SOL     OW91881   0.061   2.952   4.182
30036SOL    HW191882   0.005   2.926   4.254
30036SOL    HW291883   0.037   2.894   4.110
30037SOL     OW91884   3.651  12.756   6.492
30037SOL    HW191885   3.631  12.849   6.487
30037SOL    HW291886   3.681  12.742   6.582
30038SOL     OW91887  10.475   7.285  10.092
30038SOL    HW191888  10.562   7.248  10.105
30038SOL    HW291889  10.490   7.379  10.082
30039SOL     OW91890   3.208   3.696   9.497
30039SOL    HW191891   3.284   3.682   9.552
30039SOL    HW291892   3.241   3.741   9.419
30040SOL     OW91893   3.308   6.225   3.446
30040SOL    HW191894   3.289   6.258   3.534
30040SOL    HW291895   3.229   6.247   3.395
30041SOL     OW91896  12.459   3.197   8.198
30041SOL    HW191897  12.372   3.159   8.210
30041SOL    HW291898  12.515   3.123   8.174
30042SOL     OW91899   7.275   1.552   6.430
30042SOL    HW191900   7.204   1.563   6.493
30042SOL    HW291901   7.232   1.555   6.345
30043SOL     OW91902   9.603  12.563   8.019
30043SOL    HW191903   9.558  12.631   7.968
30043SOL    HW291904   9.627  12.497   7.954
30044SOL     OW91905   6.937   0.411  10.789
30044SOL    HW191906   6.957   0.481  10.727
30044SOL    HW291907   6.937   0.455  10.874
30045SOL     OW91908   7.407   8.902   7.496
30045SOL    HW191909   7.432   8.912   7.588
30045SOL    HW291910   7.485   8.928   7.447
30046SOL     OW91911   4.322  10.252   6.922
30046SOL    HW191912   4.405  10.223   6.961
30046SOL    HW291913   4.296  10.180   6.865
30047SOL     OW91914   4.651   0.439   1.138
30047SOL    HW191915   4.562   0.472   1.131
30047SOL    HW291916   4.683   0.438   1.047
30048SOL     OW91917   4.622  11.355   9.559
30048SOL    HW191918   4.589  11.292   9.495
30048SOL    HW291919   4.649  11.430   9.507
30049SOL     OW91920   6.033  10.299  10.017
30049SOL    HW191921   5.955  10.354  10.009
30049SOL    HW291922   6.078  10.333  10.094
30050SOL     OW91923   9.138   5.633   3.318
30050SOL    HW191924   9.070   5.572   3.347
30050SOL    HW291925   9.171   5.597   3.236
30051SOL     OW91926   7.784  13.191   8.944
30051SOL    HW191927   7.877  13.178   8.926
30051SOL    HW291928   7.745  13.210   8.858
30052SOL     OW91929   0.518  10.037   5.766
30052SOL    HW191930   0.529  10.076   5.679
30052SOL    HW291931   0.496  10.111   5.823
30053SOL     OW91932   8.298   6.938   6.428
30053SOL    HW191933   8.204   6.952   6.421
30053SOL    HW291934   8.309   6.845   6.408
30054SOL     OW91935  12.173   1.926  12.888
30054SOL    HW191936  12.202   2.012  12.858
30054SOL    HW291937  12.240   1.865  12.858
30055SOL     OW91938   8.534   7.617   6.892
30055SOL    HW191939   8.474   7.615   6.966
30055SOL    HW291940   8.487   7.571   6.822
30056SOL     OW91941   4.953   5.757  11.712
30056SOL    HW191942   4.897   5.833  11.692
30056SOL    HW291943   4.992   5.733  11.628
30057SOL     OW91944  11.166  10.031   9.053
30057SOL    HW191945  11.173  10.118   9.015
30057SOL    HW291946  11.190  10.043   9.145
30058SOL     OW91947   6.795   4.058   7.676
30058SOL    HW191948   6.848   4.075   7.597
30058SOL    HW291949   6.777   3.964   7.672
30059SOL     OW91950  14.415   5.965   9.731
30059SOL    HW191951  14.398   6.059   9.723
30059SOL    HW291952  14.379   5.941   9.816
30060SOL     OW91953  11.639   4.711  14.179
30060SOL    HW191954  11.588   4.651  14.126
30060SOL    HW291955  11.664   4.782  14.119
30061SOL     OW91956  13.327   1.302  12.768
30061SOL    HW191957  13.313   1.377  12.826
30061SOL    HW291958  13.354   1.340  12.685
30062SOL     OW91959  13.892  12.065  12.478
30062SOL    HW191960  13.961  12.003  12.457
30062SOL    HW291961  13.926  12.116  12.552
30063SOL     OW91962   6.417   2.867  13.228
30063SOL    HW191963   6.480   2.801  13.257
30063SOL    HW291964   6.391   2.913  13.308
30064SOL     OW91965   4.561  10.938   2.101
30064SOL    HW191966   4.617  10.861   2.109
30064SOL    HW291967   4.473  10.903   2.085
30065SOL     OW91968   3.015  13.205   8.698
30065SOL    HW191969   2.972  13.127   8.663
30065SOL    HW291970   3.099  13.173   8.732
30066SOL     OW91971  10.573  11.660   7.735
30066SOL    HW191972  10.635  11.733   7.737
30066SOL    HW291973  10.508  11.686   7.670
30067SOL     OW91974  11.252   8.399   6.453
30067SOL    HW191975  11.172   8.452   6.453
30067SOL    HW291976  11.305   8.435   6.382
30068SOL     OW91977   5.393   1.145  14.684
30068SOL    HW191978   5.305   1.177  14.668
30068SOL    HW291979   5.449   1.221  14.670
30069SOL     OW91980  13.728   0.721   8.272
30069SOL    HW191981  13.740   0.678   8.187
30069SOL    HW291982  13.785   0.672   8.331
30070SOL     OW91983   9.112   1.403   3.095
30070SOL    HW191984   9.139   1.331   3.039
30070SOL    HW291985   9.054   1.456   3.041
30071SOL     OW91986  13.728  13.189  13.450
30071SOL    HW191987  13.768  13.241  13.380
30071SOL    HW291988  13.724  13.249  13.524
30072SOL     OW91989   1.763  13.360   5.603
30072SOL    HW191990   1.795  13.331   5.688
30072SOL    HW291991   1.743  13.453   5.615
30073SOL     OW91992  14.034  13.631  14.303
30073SOL    HW191993  14.007  13.573  14.233
30073SOL    HW291994  13.956  13.684  14.321
30074SOL     OW91995   6.452  12.989   6.571
30074SOL    HW191996   6.522  13.001   6.635
30074SOL    HW291997   6.478  12.911   6.522
30075SOL     OW91998   7.343   7.575   3.609
30075SOL    HW191999   7.297   7.645   3.562
30075SOL    HW292000   7.349   7.606   3.699
30076SOL     OW92001  13.292   5.783   5.817
30076SOL    HW192002  13.255   5.738   5.741
30076SOL    HW292003  13.260   5.872   5.810
30077SOL     OW92004   8.822   6.687  11.899
30077SOL    HW192005   8.875   6.688  11.978
30077SOL    HW292006   8.746   6.742  11.918
30078SOL     OW92007   2.759  10.544   6.590
30078SOL    HW192008   2.788  10.455   6.608
30078SOL    HW292009   2.825  10.600   6.631
30079SOL     OW92010   6.700  10.705  11.115
30079SOL    HW192011   6.759  10.708  11.191
30079SOL    HW292012   6.634  10.773  11.134
30080SOL     OW92013   1.229   7.755   7.228
30080SOL    HW192014   1.186   7.693   7.168
30080SOL    HW292015   1.192   7.840   7.205
30081SOL     OW92016   2.403   7.564   2.829
30081SOL    HW192017   2.394   7.648   2.785
30081SOL    HW292018   2.428   7.587   2.919
30082SOL     OW92019   8.270   9.982   3.602
30082SOL    HW192020   8.354   9.971   3.557
30082SOL    HW292021   8.238  10.067   3.572
30083SOL     OW92022  14.405   9.348   9.765
30083SOL    HW192023  14.426   9.383   9.851
30083SOL    HW292024  14.463   9.272   9.755
30084SOL     OW92025  10.388   2.818   7.751
30084SOL    HW192026  10.309   2.872   7.745
30084SOL    HW292027  10.425   2.841   7.836
30085SOL     OW92028  11.744  10.967  11.257
30085SOL    HW192029  11.730  11.045  11.310
30085SOL    HW292030  11.725  10.894  11.316
30086SOL     OW92031   6.960   9.852  14.173
30086SOL    HW192032   7.012   9.803  14.238
30086SOL    HW292033   6.921   9.784  14.118
30087SOL     OW92034  12.731  11.726  14.088
30087SOL    HW192035  12.671  11.651  14.090
30087SOL    HW292036  12.690  11.791  14.144
30088SOL     OW92037   5.512   7.695   7.364
30088SOL    HW192038   5.482   7.637   7.294
30088SOL    HW292039   5.551   7.769   7.318
30089SOL     OW92040   1.026   4.396   9.758
30089SOL    HW192041   1.018   4.459   9.686
30089SOL    HW292042   1.077   4.324   9.721
30090SOL     OW92043   4.608   2.777   0.000
30090SOL    HW192044   4.546   2.828   0.052
30090SOL    HW292045   4.690   2.780   0.050
30091SOL     OW92046   7.654   9.340   6.877
30091SOL    HW192047   7.633   9.293   6.796
30091SOL    HW292048   7.617   9.428   6.864
30092SOL     OW92049   3.195   6.480   7.449
30092SOL    HW192050   3.170   6.568   7.422
30092SOL    HW292051   3.120   6.426   7.427
30093SOL     OW92052   5.025   7.914   6.001
30093SOL    HW192053   5.005   7.875   5.916
30093SOL    HW292054   4.950   7.970   6.021
30094SOL     OW92055   6.453   4.680   4.618
30094SOL    HW192056   6.418   4.739   4.551
30094SOL    HW292057   6.430   4.592   4.588
30095SOL     OW92058  11.394  13.064   8.162
30095SOL    HW192059  11.345  13.093   8.085
30095SOL    HW292060  11.354  12.980   8.185
30096SOL     OW92061   7.996  14.209   8.205
30096SOL    HW192062   8.066  14.245   8.149
30096SOL    HW292063   8.039  14.140   8.255
30097SOL     OW92064   2.837  10.202  12.278
30097SOL    HW192065   2.839  10.126  12.337
30097SOL    HW292066   2.898  10.179  12.208
30098SOL     OW92067   0.221  12.766   3.053
30098SOL    HW192068   0.183  12.726   3.131
30098SOL    HW292069   0.307  12.726   3.046
30099SOL     OW92070   0.800   0.118  12.060
30099SOL    HW192071   0.731   0.053  12.073
30099SOL    HW292072   0.784   0.154  11.973
30100SOL     OW92073   3.341   9.138   4.565
30100SOL    HW192074   3.321   9.067   4.626
30100SOL    HW292075   3.428   9.167   4.590
30101SOL     OW92076   8.706   1.453   5.626
30101SOL    HW192077   8.723   1.477   5.717
30101SOL    HW292078   8.764   1.379   5.610
30102SOL     OW92079   2.863   7.091   0.867
30102SOL    HW192080   2.872   7.120   0.958
30102SOL    HW292081   2.785   7.036   0.867
30103SOL     OW92082  14.458  12.559   6.636
30103SOL    HW192083  14.397  12.521   6.573
30103SOL    HW292084  14.505  12.626   6.586
30104SOL     OW92085   2.789   2.169   6.686
30104SOL    HW192086   2.787   2.242   6.748
30104SOL    HW292087   2.776   2.211   6.601
30105SOL     OW92088   6.995   7.462  11.410
30105SOL    HW192089   6.999   7.388  11.349
30105SOL    HW292090   7.054   7.437  11.481
30106SOL     OW92091  13.789   0.657   9.207
30106SOL    HW192092  13.737   0.737   9.200
30106SOL    HW292093  13.749   0.597   9.145
30107SOL     OW92094  13.929   7.043  13.058
30107SOL    HW192095  13.979   7.018  13.136
30107SOL    HW292096  13.877   7.117  13.087
30108SOL     OW92097   5.831   4.763   4.806
30108SOL    HW192098   5.806   4.856   4.808
30108SOL    HW292099   5.886   4.752   4.884
30109SOL     OW92100  13.486   0.909   2.629
30109SOL    HW192101  13.457   0.981   2.573
30109SOL    HW292102  13.564   0.875   2.586
30110SOL     OW92103   8.078  12.258   6.866
30110SOL    HW192104   8.060  12.244   6.959
30110SOL    HW292105   8.069  12.171   6.827
30111SOL     OW92106   1.152   4.899   2.307
30111SOL    HW192107   1.192   4.813   2.291
30111SOL    HW292108   1.223   4.961   2.292
30112SOL     OW92109  10.858   1.790   3.515
30112SOL    HW192110  10.810   1.710   3.491
30112SOL    HW292111  10.898   1.819   3.433
30113SOL     OW92112   5.421  14.796   5.679
30113SOL    HW192113   5.357  14.726   5.675
30113SOL    HW292114   5.414  14.841   5.594
30114SOL     OW92115   3.413   2.581   2.799
30114SOL    HW192116   3.472   2.522   2.751
30114SOL    HW292117   3.467   2.619   2.867
30115SOL     OW92118   7.020  13.713   8.669
30115SOL    HW192119   7.102  13.711   8.718
30115SOL    HW292120   7.046  13.715   8.577
30116SOL     OW92121   2.147  11.731   0.470
30116SOL    HW192122   2.180  11.739   0.381
30116SOL    HW292123   2.089  11.807   0.481
30117SOL     OW92124  11.265   9.083  10.948
30117SOL    HW192125  11.313   9.045  10.874
30117SOL    HW292126  11.186   9.119  10.909
30118SOL     OW92127   2.692  10.880   8.253
30118SOL    HW192128   2.673  10.932   8.331
30118SOL    HW292129   2.622  10.815   8.251
30119SOL     OW92130   4.000  12.964   5.655
30119SOL    HW192131   4.064  12.901   5.687
30119SOL    HW292132   3.936  12.972   5.726
30120SOL     OW92133  12.777   6.285   8.992
30120SOL    HW192134  12.800   6.363   9.043
30120SOL    HW292135  12.859   6.237   8.984
30121SOL     OW92136   1.237  11.710  12.097
30121SOL    HW192137   1.185  11.630  12.089
30121SOL    HW292138   1.326  11.679  12.111
30122SOL     OW92139  14.453   6.328  13.963
30122SOL    HW192140  14.379   6.353  14.018
30122SOL    HW292141  14.506   6.408  13.957
30123SOL     OW92142   1.336   8.834   1.288
30123SOL    HW192143   1.381   8.851   1.370
30123SOL    HW292144   1.380   8.890   1.224
30124SOL     OW92145  11.868   5.047   6.225
30124SOL    HW192146  11.823   4.992   6.290
30124SOL    HW292147  11.960   5.040   6.248
30125SOL     OW92148   1.195  14.621  12.289
30125SOL    HW192149   1.108  14.653  12.264
30125SOL    HW292150   1.222  14.678  12.361
30126SOL     OW92151   5.473  12.972   6.792
30126SOL    HW192152   5.485  13.064   6.766
30126SOL    HW292153   5.392  12.972   6.843
30127SOL     OW92154   1.252   7.726   6.841
30127SOL    HW192155   1.286   7.750   6.755
30127SOL    HW292156   1.323   7.746   6.902
30128SOL     OW92157  12.666  14.097   9.935
30128SOL    HW192158  12.594  14.049   9.895
30128SOL    HW292159  12.724  14.119   9.862
30129SOL     OW92160  10.024   0.936  14.219
30129SOL    HW192161  10.062   0.858  14.180
30129SOL    HW292162  10.087   0.963  14.286
30130SOL     OW92163   1.843  11.002  12.607
30130SOL    HW192164   1.788  11.076  12.581
30130SOL    HW292165   1.859  11.015  12.701
30131SOL     OW92166  14.335   6.280   1.461
30131SOL    HW192167  14.420   6.324   1.470
30131SOL    HW292168  14.286   6.335   1.400
30132SOL     OW92169  10.915   1.608   9.372
30132SOL    HW192170  10.985   1.561   9.418
30132SOL    HW292171  10.884   1.546   9.306
30133SOL     OW92172  10.642   1.285  13.464
30133SOL    HW192173  10.565   1.336  13.489
30133SOL    HW292174  10.645   1.213  13.527
30134SOL     OW92175  14.463   7.023  13.325
30134SOL    HW192176  14.398   7.011  13.395
30134SOL    HW292177  14.539   6.974  13.353
30135SOL     OW92178   9.142   7.682   7.576
30135SOL    HW192179   9.055   7.707   7.608
30135SOL    HW292180   9.125   7.608   7.518
30136SOL     OW92181   7.071   6.014  13.543
30136SOL    HW192182   7.006   5.944  13.544
30136SOL    HW292183   7.137   5.986  13.607
30137SOL     OW92184   2.532   0.905   7.575
30137SOL    HW192185   2.572   0.980   7.618
30137SOL    HW292186   2.446   0.936   7.546
30138SOL     OW92187   2.256   3.929   3.077
30138SOL    HW192188   2.233   3.967   2.993
30138SOL    HW292189   2.352   3.937   3.082
30139SOL     OW92190   3.284  13.767   8.518
30139SOL    HW192191   3.239  13.717   8.586
30139SOL    HW292192   3.244  13.854   8.520
30140SOL     OW92193   2.823   4.024   9.825
30140SOL    HW192194   2.785   4.109   9.845
30140SOL    HW292195   2.890   4.043   9.760
30141SOL     OW92196   7.493   4.724   1.666
30141SOL    HW192197   7.471   4.652   1.607
30141SOL    HW292198   7.579   4.754   1.637
30142SOL     OW92199   2.636   8.449   4.943
30142SOL    HW192200   2.657   8.370   4.993
30142SOL    HW292201   2.661   8.428   4.853
30143SOL     OW92202   4.290   3.537  11.892
30143SOL    HW192203   4.296   3.623  11.851
30143SOL    HW292204   4.354   3.484  11.845
30144SOL     OW92205   4.327  12.068   0.422
30144SOL    HW192206   4.403  12.103   0.467
30144SOL    HW292207   4.267  12.042   0.492
30145SOL     OW92208   6.803   0.344   7.331
30145SOL    HW192209   6.720   0.371   7.292
30145SOL    HW292210   6.868   0.405   7.293
30146SOL     OW92211   6.215   5.760  12.050
30146SOL    HW192212   6.237   5.797  12.136
30146SOL    HW292213   6.216   5.835  11.990
30147SOL     OW92214   6.373   2.214  11.779
30147SOL    HW192215   6.345   2.257  11.698
30147SOL    HW292216   6.325   2.258  11.848
30148SOL     OW92217   2.526   0.833   8.514
30148SOL    HW192218   2.471   0.807   8.588
30148SOL    HW292219   2.466   0.839   8.440
30149SOL     OW92220   2.862   6.424   0.973
30149SOL    HW192221   2.791   6.405   0.911
30149SOL    HW292222   2.895   6.509   0.946
30150SOL     OW92223   2.723  13.266   3.359
30150SOL    HW192224   2.749  13.274   3.451
30150SOL    HW292225   2.801  13.232   3.316
30151SOL     OW92226   3.594   6.065   6.790
30151SOL    HW192227   3.628   6.022   6.868
30151SOL    HW292228   3.625   6.011   6.717
30152SOL     OW92229  10.913   9.878   1.936
30152SOL    HW192230  10.873   9.813   1.879
30152SOL    HW292231  11.000   9.891   1.900
30153SOL     OW92232   9.798   1.349  13.510
30153SOL    HW192233   9.801   1.336  13.605
30153SOL    HW292234   9.837   1.436  13.496
30154SOL     OW92235   0.757   8.122   7.310
30154SOL    HW192236   0.733   8.029   7.319
30154SOL    HW292237   0.741   8.142   7.218
30155SOL     OW92238   1.506  11.140   7.670
30155SOL    HW192239   1.524  11.215   7.726
30155SOL    HW292240   1.589  11.122   7.626
30156SOL     OW92241  13.521  10.128  14.516
30156SOL    HW192242  13.506  10.045  14.471
30156SOL    HW292243  13.556  10.102  14.601
30157SOL     OW92244  14.855  11.903  13.472
30157SOL    HW192245  14.782  11.868  13.421
30157SOL    HW292246  14.814  11.959  13.538
30158SOL     OW92247   5.446   9.287  10.094
30158SOL    HW192248   5.413   9.330  10.015
30158SOL    HW292249   5.455   9.195  10.070
30159SOL     OW92250  11.405   7.453   1.456
30159SOL    HW192251  11.447   7.539   1.453
30159SOL    HW292252  11.459   7.402   1.517
30160SOL     OW92253   2.258   9.796  10.026
30160SOL    HW192254   2.349   9.791   9.998
30160SOL    HW292255   2.242   9.713  10.071
30161SOL     OW92256   6.397   1.995   2.569
30161SOL    HW192257   6.357   1.925   2.620
30161SOL    HW292258   6.381   2.075   2.620
30162SOL     OW92259  13.945   9.052   1.857
30162SOL    HW192260  13.889   9.091   1.790
30162SOL    HW292261  13.886   8.998   1.909
30163SOL     OW92262  11.384   1.580   1.116
30163SOL    HW192263  11.446   1.508   1.124
30163SOL    HW292264  11.299   1.542   1.135
30164SOL     OW92265   8.137   9.844  13.930
30164SOL    HW192266   8.208   9.907  13.922
30164SOL    HW292267   8.165   9.768  13.879
30165SOL     OW92268   5.263   5.343   9.447
30165SOL    HW192269   5.210   5.354   9.369
30165SOL    HW292270   5.345   5.303   9.416
30166SOL     OW92271   1.863   0.859   4.069
30166SOL    HW192272   1.931   0.830   4.130
30166SOL    HW292273   1.897   0.941   4.032
30167SOL     OW92274   9.376   4.054  11.238
30167SOL    HW192275   9.462   4.085  11.209
30167SOL    HW292276   9.365   4.092  11.325
30168SOL     OW92277   5.115   3.753   3.155
30168SOL    HW192278   5.160   3.773   3.073
30168SOL    HW292279   5.180   3.707   3.208
30169SOL     OW92280   0.299   5.407  14.738
30169SOL    HW192281   0.348   5.439  14.813
30169SOL    HW292282   0.208   5.402  14.768
30170SOL     OW92283  11.614   1.831  10.357
30170SOL    HW192284  11.585   1.820  10.266
30170SOL    HW292285  11.698   1.785  10.361
30171SOL     OW92286  14.792   2.702  14.439
30171SOL    HW192287  14.849   2.745  14.376
30171SOL    HW292288  14.758   2.626  14.392
30172SOL     OW92289   5.547  10.045  11.476
30172SOL    HW192290   5.512  10.134  11.473
30172SOL    HW292291   5.636  10.053  11.440
30173SOL     OW92292  11.767  14.494  10.378
30173SOL    HW192293  11.801  14.407  10.396
30173SOL    HW292294  11.806  14.549  10.446
30174SOL     OW92295   9.012   0.348   6.743
30174SOL    HW192296   8.928   0.306   6.763
30174SOL    HW292297   8.990   0.441   6.732
30175SOL     OW92298   0.642   1.659   0.913
30175SOL    HW192299   0.709   1.632   0.975
30175SOL    HW292300   0.560   1.654   0.962
30176SOL     OW92301  13.986  11.282  12.606
30176SOL    HW192302  13.990  11.299  12.700
30176SOL    HW292303  14.072  11.307  12.574
30177SOL     OW92304   7.056   8.313   2.053
30177SOL    HW192305   7.150   8.328   2.057
30177SOL    HW292306   7.032   8.334   1.963
30178SOL     OW92307  11.597  12.554   5.844
30178SOL    HW192308  11.588  12.543   5.749
30178SOL    HW292309  11.671  12.498   5.868
30179SOL     OW92310   5.195   3.251   3.572
30179SOL    HW192311   5.119   3.193   3.561
30179SOL    HW292312   5.201   3.297   3.489
30180SOL     OW92313   1.168   5.708  14.542
30180SOL    HW192314   1.136   5.618  14.536
30180SOL    HW292315   1.227   5.718  14.468
30181SOL     OW92316   9.660  13.547   3.304
30181SOL    HW192317   9.706  13.478   3.255
30181SOL    HW292318   9.590  13.500   3.351
30182SOL     OW92319  12.321  10.889  12.492
30182SOL    HW192320  12.343  10.950  12.562
30182SOL    HW292321  12.284  10.944  12.423
30183SOL     OW92322   1.994  13.458   3.856
30183SOL    HW192323   2.004  13.391   3.789
30183SOL    HW292324   1.949  13.413   3.928
30184SOL     OW92325  13.252  10.457  11.862
30184SOL    HW192326  13.312  10.436  11.933
30184SOL    HW292327  13.229  10.372  11.823
30185SOL     OW92328   4.039   3.931  12.161
30185SOL    HW192329   4.113   3.877  12.132
30185SOL    HW292330   3.997   3.879  12.229
30186SOL     OW92331   6.521  13.025   0.562
30186SOL    HW192332   6.612  12.995   0.556
30186SOL    HW292333   6.528  13.119   0.580
30187SOL     OW92334  12.379  11.395   9.467
30187SOL    HW192335  12.298  11.354   9.440
30187SOL    HW292336  12.397  11.359   9.554
30188SOL     OW92337   7.518  11.289   3.805
30188SOL    HW192338   7.513  11.342   3.726
30188SOL    HW292339   7.582  11.220   3.784
30189SOL     OW92340   5.199   3.806  13.267
30189SOL    HW192341   5.241   3.887  13.296
30189SOL    HW292342   5.107   3.830  13.256
30190SOL     OW92343   5.940   7.523   5.735
30190SOL    HW192344   5.971   7.432   5.737
30190SOL    HW292345   5.968   7.560   5.818
30191SOL     OW92346   4.081   7.310  11.268
30191SOL    HW192347   4.000   7.338  11.226
30191SOL    HW292348   4.102   7.382  11.329
30192SOL     OW92349   8.683   2.444  14.514
30192SOL    HW192350   8.740   2.446  14.591
30192SOL    HW292351   8.668   2.351  14.498
30193SOL     OW92352  11.446   8.604   3.122
30193SOL    HW192353  11.358   8.626   3.154
30193SOL    HW292354  11.484   8.552   3.192
30194SOL     OW92355   4.337   6.420  10.054
30194SOL    HW192356   4.272   6.357  10.084
30194SOL    HW292357   4.365   6.465  10.134
30195SOL     OW92358  12.444   5.217   6.890
30195SOL    HW192359  12.444   5.249   6.800
30195SOL    HW292360  12.443   5.122   6.882
30196SOL     OW92361   5.499   8.186  14.132
30196SOL    HW192362   5.415   8.154  14.099
30196SOL    HW292363   5.562   8.166  14.063
30197SOL     OW92364   6.523  13.343  10.332
30197SOL    HW192365   6.438  13.353  10.287
30197SOL    HW292366   6.538  13.249  10.333
30198SOL     OW92367   3.978   7.413   1.633
30198SOL    HW192368   3.930   7.330   1.630
30198SOL    HW292369   3.948   7.460   1.556
30199SOL     OW92370  10.921   3.910  14.669
30199SOL    HW192371  10.883   3.861  14.596
30199SOL    HW292372  10.934   3.844  14.737
30200SOL     OW92373   8.561  13.033   9.416
30200SOL    HW192374   8.525  12.961   9.364
30200SOL    HW292375   8.641  12.997   9.455
30201SOL     OW92376  13.315  12.857   5.215
30201SOL    HW192377  13.285  12.803   5.289
30201SOL    HW292378  13.285  12.810   5.138
30202SOL     OW92379   6.180  11.477  10.466
30202SOL    HW192380   6.155  11.549  10.525
30202SOL    HW292381   6.244  11.517  10.406
30203SOL     OW92382  10.342  11.790   7.616
30203SOL    HW192383  10.337  11.860   7.551
30203SOL    HW292384  10.298  11.716   7.575
30204SOL     OW92385  10.776   6.823   1.884
30204SOL    HW192386  10.750   6.772   1.807
30204SOL    HW292387  10.807   6.906   1.848
30205SOL     OW92388   8.854   4.624   6.837
30205SOL    HW192389   8.875   4.672   6.917
30205SOL    HW292390   8.861   4.532   6.862
30206SOL     OW92391  10.111   8.941   3.266
30206SOL    HW192392  10.199   8.980   3.263
30206SOL    HW292393  10.111   8.878   3.194
30207SOL     OW92394   4.882   1.977   5.295
30207SOL    HW192395   4.804   2.003   5.246
30207SOL    HW292396   4.867   1.886   5.319
30208SOL     OW92397   5.154   8.380  12.443
30208SOL    HW192398   5.210   8.441  12.492
30208SOL    HW292399   5.071   8.427  12.432
30209SOL     OW92400   0.878   5.266  14.597
30209SOL    HW192401   0.785   5.291  14.602
30209SOL    HW292402   0.886   5.222  14.513
30210SOL     OW92403  11.423  14.489  10.688
30210SOL    HW192404  11.372  14.410  10.709
30210SOL    HW292405  11.421  14.540  10.769
30211SOL     OW92406   5.770   8.295   4.553
30211SOL    HW192407   5.808   8.212   4.526
30211SOL    HW292408   5.723   8.326   4.475
30212SOL     OW92409   7.164   8.240  12.537
30212SOL    HW192410   7.250   8.201  12.518
30212SOL    HW292411   7.123   8.178  12.597
30213SOL     OW92412  14.249  13.613  14.482
30213SOL    HW192413  14.163  13.592  14.446
30213SOL    HW292414  14.242  13.593  14.575
30214SOL     OW92415  13.979  11.076   5.636
30214SOL    HW192416  14.025  11.041   5.560
30214SOL    HW292417  13.887  11.076   5.609
30215SOL     OW92418  11.470   4.998   0.989
30215SOL    HW192419  11.487   4.910   1.023
30215SOL    HW292420  11.529   5.054   1.039
30216SOL     OW92421   7.278   3.030   7.717
30216SOL    HW192422   7.299   3.050   7.809
30216SOL    HW292423   7.355   2.982   7.685
30217SOL     OW92424  13.334   9.397   8.090
30217SOL    HW192425  13.325   9.340   8.166
30217SOL    HW292426  13.341   9.336   8.016
30218SOL     OW92427   0.702   4.055  10.021
30218SOL    HW192428   0.719   4.023   9.932
30218SOL    HW292429   0.669   4.144  10.009
30219SOL     OW92430   6.283   7.509   2.622
30219SOL    HW192431   6.326   7.424   2.618
30219SOL    HW292432   6.213   7.504   2.557
30220SOL     OW92433   3.273   7.794  12.487
30220SOL    HW192434   3.367   7.809  12.499
30220SOL    HW292435   3.268   7.739  12.408
30221SOL     OW92436  12.580   5.499   8.187
30221SOL    HW192437  12.662   5.484   8.235
30221SOL    HW292438  12.593   5.453   8.103
30222SOL     OW92439   6.811   0.096  11.005
30222SOL    HW192440   6.867   0.167  11.038
30222SOL    HW292441   6.724   0.116  11.040
30223SOL     OW92442   4.137   5.462   0.295
30223SOL    HW192443   4.071   5.417   0.241
30223SOL    HW292444   4.172   5.394   0.352
30224SOL     OW92445   5.790  10.768   0.571
30224SOL    HW192446   5.802  10.828   0.497
30224SOL    HW292447   5.697  10.747   0.570
30225SOL     OW92448  10.694   0.872   5.153
30225SOL    HW192449  10.788   0.858   5.140
30225SOL    HW292450  10.654   0.787   5.133
30226SOL     OW92451   4.368   5.437   1.348
30226SOL    HW192452   4.434   5.392   1.295
30226SOL    HW292453   4.344   5.374   1.416
30227SOL     OW92454   2.319   1.028   8.099
30227SOL    HW192455   2.403   1.074   8.094
30227SOL    HW292456   2.286   1.029   8.009
30228SOL     OW92457  10.180   2.773   5.835
30228SOL    HW192458  10.203   2.785   5.743
30228SOL    HW292459  10.165   2.679   5.844
30229SOL     OW92460  14.141   4.898   8.661
30229SOL    HW192461  14.077   4.863   8.599
30229SOL    HW292462  14.220   4.844   8.645
30230SOL     OW92463   5.159  14.540   2.865
30230SOL    HW192464   5.198  14.569   2.947
30230SOL    HW292465   5.129  14.621   2.823
30231SOL     OW92466   9.153   4.302  10.855
30231SOL    HW192467   9.222   4.276  10.916
30231SOL    HW292468   9.135   4.393  10.876
30232SOL     OW92469   8.381   7.977  11.948
30232SOL    HW192470   8.326   8.019  11.882
30232SOL    HW292471   8.447   8.044  11.970
30233SOL     OW92472   8.860   1.357   8.668
30233SOL    HW192473   8.896   1.445   8.678
30233SOL    HW292474   8.778   1.360   8.717
30234SOL     OW92475   3.803   9.888   5.829
30234SOL    HW192476   3.719   9.863   5.791
30234SOL    HW292477   3.833   9.962   5.776
30235SOL     OW92478  10.556  11.383   9.755
30235SOL    HW192479  10.619  11.374   9.684
30235SOL    HW292480  10.608  11.414   9.829
30236SOL     OW92481  11.557   6.405   5.057
30236SOL    HW192482  11.627   6.360   5.010
30236SOL    HW292483  11.540   6.350   5.134
30237SOL     OW92484  12.816  12.713   1.362
30237SOL    HW192485  12.851  12.802   1.352
30237SOL    HW292486  12.786  12.689   1.275
30238SOL     OW92487   7.522   8.720  11.691
30238SOL    HW192488   7.494   8.709  11.782
30238SOL    HW292489   7.501   8.637  11.649
30239SOL     OW92490   1.744  13.245   5.209
30239SOL    HW192491   1.733  13.337   5.231
30239SOL    HW292492   1.731  13.198   5.291
30240SOL     OW92493   9.133   8.219   4.519
30240SOL    HW192494   9.215   8.170   4.512
30240SOL    HW292495   9.144   8.292   4.458
30241SOL     OW92496   0.930  13.457  10.388
30241SOL    HW192497   0.971  13.466  10.474
30241SOL    HW292498   0.915  13.547  10.359
30242SOL     OW92499   1.656  14.310   0.437
30242SOL    HW192500   1.577  14.358   0.463
30242SOL    HW292501   1.720  14.379   0.419
30243SOL     OW92502  13.544  11.606   1.593
30243SOL    HW192503  13.561  11.665   1.667
30243SOL    HW292504  13.449  11.603   1.585
30244SOL     OW92505   8.071   4.216   8.496
30244SOL    HW192506   8.056   4.307   8.469
30244SOL    HW292507   8.049   4.215   8.589
30245SOL     OW92508   4.673   5.529   9.667
30245SOL    HW192509   4.592   5.515   9.619
30245SOL    HW292510   4.696   5.442   9.700
30246SOL     OW92511   9.998  10.422   8.461
30246SOL    HW192512  10.077  10.470   8.435
30246SOL    HW292513  10.020  10.330   8.448
30247SOL     OW92514   5.113  11.085  13.629
30247SOL    HW192515   5.205  11.108  13.617
30247SOL    HW292516   5.115  10.994  13.658
30248SOL     OW92517   7.050   6.955   0.157
30248SOL    HW192518   6.966   6.913   0.174
30248SOL    HW292519   7.069   7.003   0.237
30249SOL     OW92520  12.876   6.770   1.135
30249SOL    HW192521  12.820   6.695   1.115
30249SOL    HW292522  12.965   6.734   1.131
30250SOL     OW92523   5.950   6.251   7.503
30250SOL    HW192524   5.993   6.302   7.571
30250SOL    HW292525   5.948   6.162   7.537
30251SOL     OW92526  10.071   9.675  11.163
30251SOL    HW192527  10.016   9.634  11.096
30251SOL    HW292528  10.009   9.710  11.227
30252SOL     OW92529   6.523  12.939   5.394
30252SOL    HW192530   6.566  12.969   5.474
30252SOL    HW292531   6.437  12.909   5.423
30253SOL     OW92532   3.407  10.009   9.966
30253SOL    HW192533   3.405   9.915   9.980
30253SOL    HW292534   3.396  10.020   9.871
30254SOL     OW92535  12.757  13.767   4.307
30254SOL    HW192536  12.718  13.735   4.225
30254SOL    HW292537  12.790  13.688   4.350
30255SOL     OW92538  13.282   4.154   4.364
30255SOL    HW192539  13.275   4.118   4.453
30255SOL    HW292540  13.373   4.184   4.358
30256SOL     OW92541   7.575  10.132   5.437
30256SOL    HW192542   7.593  10.189   5.362
30256SOL    HW292543   7.569  10.191   5.512
30257SOL     OW92544   8.442   6.551   5.578
30257SOL    HW192545   8.416   6.618   5.515
30257SOL    HW292546   8.537   6.545   5.569
30258SOL     OW92547   0.578   1.287   1.544
30258SOL    HW192548   0.634   1.234   1.487
30258SOL    HW292549   0.586   1.376   1.509
30259SOL     OW92550   4.875   7.376  12.466
30259SOL    HW192551   4.863   7.364  12.372
30259SOL    HW292552   4.941   7.310  12.490
30260SOL     OW92553   9.631  13.642   7.022
30260SOL    HW192554   9.706  13.645   7.082
30260SOL    HW292555   9.647  13.564   6.969
30261SOL     OW92556  12.429  13.243  11.530
30261SOL    HW192557  12.464  13.154  11.527
30261SOL    HW292558  12.507  13.299  11.530
30262SOL     OW92559   7.198   8.504  12.045
30262SOL    HW192560   7.287   8.470  12.036
30262SOL    HW292561   7.208   8.582  12.101
30263SOL     OW92562   2.366  14.480  13.116
30263SOL    HW192563   2.434  14.450  13.056
30263SOL    HW292564   2.383  14.432  13.197
30264SOL     OW92565   1.091  10.821   7.230
30264SOL    HW192566   1.185  10.818   7.215
30264SOL    HW292567   1.064  10.908   7.200
30265SOL     OW92568   7.562  10.097  11.463
30265SOL    HW192569   7.548  10.191  11.476
30265SOL    HW292570   7.475  10.058  11.470
30266SOL     OW92571   2.978  10.309   6.072
30266SOL    HW192572   2.972  10.373   6.002
30266SOL    HW292573   3.059  10.261   6.053
30267SOL     OW92574   5.738   4.708   2.985
30267SOL    HW192575   5.824   4.710   2.942
30267SOL    HW292576   5.681   4.661   2.924
30268SOL     OW92577  12.604   8.246   7.035
30268SOL    HW192578  12.631   8.326   7.080
30268SOL    HW292579  12.510   8.257   7.022
30269SOL     OW92580  14.487   7.608  10.480
30269SOL    HW192581  14.433   7.672  10.434
30269SOL    HW292582  14.508   7.650  10.563
30270SOL     OW92583   9.482  13.018   6.240
30270SOL    HW192584   9.514  12.930   6.261
30270SOL    HW292585   9.485  13.023   6.145
30271SOL     OW92586   6.299   4.982   1.689
30271SOL    HW192587   6.258   5.050   1.741
30271SOL    HW292588   6.228   4.944   1.638
30272SOL     OW92589   2.559  11.661   2.249
30272SOL    HW192590   2.609  11.581   2.261
30272SOL    HW292591   2.486  11.636   2.193
30273SOL     OW92592   8.523   9.992   5.669
30273SOL    HW192593   8.461  10.017   5.737
30273SOL    HW292594   8.593  10.056   5.675
30274SOL     OW92595   0.300  12.116  12.230
30274SOL    HW192596   0.245  12.044  12.259
30274SOL    HW292597   0.387  12.077  12.218
30275SOL     OW92598   2.637  10.898   1.794
30275SOL    HW192599   2.662  10.990   1.787
30275SOL    HW292600   2.629  10.867   1.704
30276SOL     OW92601   0.829   8.023   5.044
30276SOL    HW192602   0.893   8.090   5.019
30276SOL    HW292603   0.779   8.063   5.115
30277SOL     OW92604  11.481  12.015   0.503
30277SOL    HW192605  11.403  12.044   0.456
30277SOL    HW292606  11.487  12.074   0.578
30278SOL     OW92607  12.453   1.384   8.902
30278SOL    HW192608  12.373   1.353   8.944
30278SOL    HW292609  12.432   1.385   8.809
30279SOL     OW92610  12.307   1.191   0.738
30279SOL    HW192611  12.377   1.137   0.775
30279SOL    HW292612  12.331   1.280   0.762
30280SOL     OW92613   7.287   8.432   2.897
30280SOL    HW192614   7.361   8.401   2.846
30280SOL    HW292615   7.277   8.369   2.968
30281SOL     OW92616  14.327  14.402   0.037
30281SOL    HW192617  14.294  14.316   0.064
30281SOL    HW292618  14.295  14.462   0.105
30282SOL     OW92619   8.539  10.841   5.866
30282SOL    HW192620   8.567  10.751   5.852
30282SOL    HW292621   8.525  10.847   5.961
30283SOL     OW92622  13.299  14.876   7.508
30283SOL    HW192623  13.298  14.870   7.604
30283SOL    HW292624  13.213   0.034   7.486
30284SOL     OW92625   3.687  13.804   6.048
30284SOL    HW192626   3.766  13.853   6.023
30284SOL    HW292627   3.703  13.716   6.016
30285SOL     OW92628  14.782   4.641  14.062
30285SOL    HW192629  14.825   4.661  14.146
30285SOL    HW292630  14.842   4.676  13.996
30286SOL     OW92631  12.215   7.872  14.557
30286SOL    HW192632  12.154   7.896  14.626
30286SOL    HW292633  12.221   7.951  14.502
30287SOL     OW92634  14.351   0.044   1.254
30287SOL    HW192635  14.416  14.872   1.305
30287SOL    HW292636  14.282  14.859   1.235
30288SOL     OW92637   2.098  12.456   1.342
30288SOL    HW192638   2.141  12.433   1.259
30288SOL    HW292639   2.014  12.493   1.316
30289SOL     OW92640  14.794  10.555  10.913
30289SOL    HW192641  14.866  10.617  10.896
30289SOL    HW292642  14.719  10.611  10.932
30290SOL     OW92643  10.105  11.720   9.147
30290SOL    HW192644  10.046  11.749   9.078
30290SOL    HW292645  10.188  11.765   9.129
30291SOL     OW92646   0.125   0.531  13.543
30291SOL    HW192647   0.220   0.545  13.539
30291SOL    HW292648   0.114   0.454  13.599
30292SOL     OW92649   6.191   4.547   6.446
30292SOL    HW192650   6.230   4.476   6.498
30292SOL    HW292651   6.136   4.501   6.382
30293SOL     OW92652  12.109  13.984   4.752
30293SOL    HW192653  12.147  13.952   4.670
30293SOL    HW292654  12.142  13.923   4.818
30294SOL     OW92655  10.288   1.777   1.499
30294SOL    HW192656  10.308   1.864   1.467
30294SOL    HW292657  10.317   1.778   1.590
30295SOL     OW92658  14.638   9.700   3.919
30295SOL    HW192659  14.592   9.674   3.838
30295SOL    HW292660  14.730   9.681   3.901
30296SOL     OW92661  11.261   0.134  13.667
30296SOL    HW192662  11.253   0.197  13.595
30296SOL    HW292663  11.354   0.135  13.690
30297SOL     OW92664   7.387   7.896   6.502
30297SOL    HW192665   7.480   7.880   6.484
30297SOL    HW292666   7.381   7.991   6.510
30298SOL     OW92667  10.639   1.693   8.519
30298SOL    HW192668  10.720   1.643   8.518
30298SOL    HW292669  10.633   1.731   8.431
30299SOL     OW92670  11.614   2.314  12.096
30299SOL    HW192671  11.628   2.391  12.152
30299SOL    HW292672  11.596   2.243  12.157
30300SOL     OW92673   8.362   4.230  14.768
30300SOL    HW192674   8.323   4.164  14.711
30300SOL    HW292675   8.364   4.189  14.854
30301SOL     OW92676  14.624  10.288   3.731
30301SOL    HW192677  14.592  10.376   3.711
30301SOL    HW292678  14.719  10.295   3.724
30302SOL     OW92679  13.143  10.386  14.232
30302SOL    HW192680  13.207  10.446  14.193
30302SOL    HW292681  13.196  10.325  14.284
30303SOL     OW92682   3.821   6.483   6.988
30303SOL    HW192683   3.908   6.489   6.950
30303SOL    HW292684   3.771   6.430   6.926
30304SOL     OW92685  13.167   7.870   6.444
30304SOL    HW192686  13.132   7.891   6.357
30304SOL    HW292687  13.091   7.840   6.494
30305SOL     OW92688   2.463   7.417  14.038
30305SOL    HW192689   2.421   7.475  14.101
30305SOL    HW292690   2.480   7.471  13.962
30306SOL     OW92691   6.041  10.377   7.628
30306SOL    HW192692   6.093  10.297   7.614
30306SOL    HW292693   6.029  10.413   7.540
30307SOL     OW92694  10.924   1.758   2.491
30307SOL    HW192695  10.973   1.755   2.574
30307SOL    HW292696  10.836   1.731   2.515
30308SOL     OW92697   8.232   8.969   8.208
30308SOL    HW192698   8.288   8.898   8.176
30308SOL    HW292699   8.150   8.960   8.159
30309SOL     OW92700   0.847   8.987   0.197
30309SOL    HW192701   0.831   8.896   0.170
30309SOL    HW292702   0.759   9.023   0.212
30310SOL     OW92703  13.359  11.799   8.648
30310SOL    HW192704  13.275  11.762   8.673
30310SOL    HW292705  13.413  11.723   8.623
30311SOL     OW92706   3.362   9.100   7.086
30311SOL    HW192707   3.403   9.179   7.119
30311SOL    HW292708   3.294   9.079   7.151
30312SOL     OW92709   9.454   0.986   2.877
30312SOL    HW192710   9.359   1.000   2.881
30312SOL    HW292711   9.466   0.893   2.893
30313SOL     OW92712   5.370  13.462   9.072
30313SOL    HW192713   5.444  13.481   9.014
30313SOL    HW292714   5.340  13.549   9.101
30314SOL     OW92715   1.778   0.771  12.082
30314SOL    HW192716   1.757   0.740  11.994
30314SOL    HW292717   1.830   0.701  12.120
30315SOL     OW92718   5.720   6.050  11.166
30315SOL    HW192719   5.718   6.087  11.078
30315SOL    HW292720   5.629   6.028  11.186
30316SOL     OW92721  11.534   2.178   0.042
30316SOL    HW192722  11.469   2.212  14.857
30316SOL    HW292723  11.542   2.247   0.108
30317SOL     OW92724   6.735   8.528   1.666
30317SOL    HW192725   6.690   8.576   1.597
30317SOL    HW292726   6.675   8.534   1.741
30318SOL     OW92727  11.846   6.371   8.749
30318SOL    HW192728  11.931   6.353   8.790
30318SOL    HW292729  11.827   6.461   8.774
30319SOL     OW92730   6.849   8.043  11.350
30319SOL    HW192731   6.927   8.018  11.301
30319SOL    HW292732   6.797   7.963  11.354
30320SOL     OW92733  12.262  14.759  13.905
30320SOL    HW192734  12.284  14.785  13.994
30320SOL    HW292735  12.295  14.831  13.851
30321SOL     OW92736   0.007   7.801   5.009
30321SOL    HW192737   0.009   7.897   5.007
30321SOL    HW292738   0.078   7.776   5.068
30322SOL     OW92739   6.110   6.681  12.097
30322SOL    HW192740   6.160   6.696  12.178
30322SOL    HW292741   6.175   6.648  12.035
30323SOL     OW92742   9.700   2.885   3.014
30323SOL    HW192743   9.658   2.948   3.073
30323SOL    HW292744   9.660   2.801   3.035
30324SOL     OW92745   1.817   8.129   7.917
30324SOL    HW192746   1.814   8.178   7.999
30324SOL    HW292747   1.872   8.182   7.860
30325SOL     OW92748  11.966  12.639  11.114
30325SOL    HW192749  11.997  12.728  11.098
30325SOL    HW292750  11.994  12.620  11.203
30326SOL     OW92751   2.981   5.563   1.986
30326SOL    HW192752   3.067   5.529   2.011
30326SOL    HW292753   2.999   5.617   1.909
30327SOL     OW92754   4.248   8.379  12.109
30327SOL    HW192755   4.210   8.298  12.143
30327SOL    HW292756   4.182   8.446  12.124
30328SOL     OW92757   9.718  13.034   3.732
30328SOL    HW192758   9.789  13.094   3.753
30328SOL    HW292759   9.761  12.964   3.681
30329SOL     OW92760  12.888  12.820   0.829
30329SOL    HW192761  12.794  12.834   0.835
30329SOL    HW292762  12.920  12.831   0.919
30330SOL     OW92763   1.591   3.862   6.433
30330SOL    HW192764   1.557   3.901   6.513
30330SOL    HW292765   1.515   3.852   6.376
30331SOL     OW92766   7.038   1.010  10.029
30331SOL    HW192767   6.964   0.966  10.072
30331SOL    HW292768   7.071   1.071  10.095
30332SOL     OW92769   2.442   0.489   2.929
30332SOL    HW192770   2.529   0.518   2.901
30332SOL    HW292771   2.382   0.523   2.862
30333SOL     OW92772   3.054  13.359   0.675
30333SOL    HW192773   3.097  13.342   0.759
30333SOL    HW292774   3.000  13.436   0.690
30334SOL     OW92775  11.804  10.525  10.792
30334SOL    HW192776  11.888  10.549  10.831
30334SOL    HW292777  11.738  10.566  10.848
30335SOL     OW92778   5.754   7.824   1.325
30335SOL    HW192779   5.682   7.785   1.375
30335SOL    HW292780   5.718   7.907   1.292
30336SOL     OW92781   2.576   2.366   9.287
30336SOL    HW192782   2.571   2.461   9.296
30336SOL    HW292783   2.489   2.340   9.258
30337SOL     OW92784  11.166   6.157   3.027
30337SOL    HW192785  11.246   6.199   2.995
30337SOL    HW292786  11.194   6.072   3.058
30338SOL     OW92787   1.310  10.862   9.449
30338SOL    HW192788   1.254  10.928   9.409
30338SOL    HW292789   1.249  10.799   9.487
30339SOL     OW92790   4.711   3.763   4.922
30339SOL    HW192791   4.762   3.689   4.956
30339SOL    HW292792   4.663   3.727   4.847
30340SOL     OW92793   8.907   3.823   6.604
30340SOL    HW192794   8.920   3.801   6.512
30340SOL    HW292795   8.960   3.759   6.652
30341SOL     OW92796   4.814  11.792   2.032
30341SOL    HW192797   4.794  11.760   2.120
30341SOL    HW292798   4.747  11.857   2.014
30342SOL     OW92799  10.001   5.036   9.451
30342SOL    HW192800  10.003   5.131   9.436
30342SOL    HW292801  10.092   5.008   9.441
30343SOL     OW92802   7.545  10.067   6.877
30343SOL    HW192803   7.608  10.082   6.807
30343SOL    HW292804   7.460  10.075   6.834
30344SOL     OW92805  10.206   7.675   9.751
30344SOL    HW192806  10.217   7.769   9.765
30344SOL    HW292807  10.294   7.639   9.759
30345SOL     OW92808   6.766   2.350   8.360
30345SOL    HW192809   6.754   2.270   8.308
30345SOL    HW292810   6.806   2.413   8.300
30346SOL     OW92811   0.634   3.995   5.389
30346SOL    HW192812   0.557   3.944   5.360
30346SOL    HW292813   0.624   4.001   5.484
30347SOL     OW92814   1.225   7.244  10.042
30347SOL    HW192815   1.213   7.334  10.012
30347SOL    HW292816   1.319   7.228  10.033
30348SOL     OW92817   0.190  12.012   6.285
30348SOL    HW192818   0.095  12.026   6.282
30348SOL    HW292819   0.220  12.033   6.197
30349SOL     OW92820   5.934  10.038   3.756
30349SOL    HW192821   5.863  10.095   3.785
30349SOL    HW292822   5.897   9.950   3.757
30350SOL     OW92823   3.038  10.531   4.962
30350SOL    HW192824   3.041  10.444   5.003
30350SOL    HW292825   3.045  10.592   5.035
30351SOL     OW92826   0.354   2.058  14.749
30351SOL    HW192827   0.432   2.076  14.697
30351SOL    HW292828   0.304   2.139  14.749
30352SOL     OW92829  14.327  12.577   4.936
30352SOL    HW192830  14.385  12.580   5.012
30352SOL    HW292831  14.316  12.668   4.909
30353SOL     OW92832  14.293   5.894   0.688
30353SOL    HW192833  14.385   5.888   0.713
30353SOL    HW292834  14.245   5.869   0.767
30354SOL     OW92835  10.799   2.298   7.074
30354SOL    HW192836  10.876   2.354   7.080
30354SOL    HW292837  10.826   2.215   7.113
30355SOL     OW92838   6.049   3.588   3.529
30355SOL    HW192839   6.086   3.629   3.451
30355SOL    HW292840   6.124   3.551   3.575
30356SOL     OW92841   8.995  10.883   4.421
30356SOL    HW192842   9.026  10.810   4.474
30356SOL    HW292843   9.074  10.924   4.387
30357SOL     OW92844   3.917   2.507   4.478
30357SOL    HW192845   3.986   2.457   4.434
30357SOL    HW292846   3.881   2.563   4.410
30358SOL     OW92847   8.256   0.561   9.457
30358SOL    HW192848   8.176   0.524   9.420
30358SOL    HW292849   8.284   0.626   9.392
30359SOL     OW92850   1.680  11.861  11.425
30359SOL    HW192851   1.618  11.869  11.353
30359SOL    HW292852   1.626  11.863  11.504
30360SOL     OW92853   7.717   6.856   7.986
30360SOL    HW192854   7.658   6.807   7.929
30360SOL    HW292855   7.804   6.829   7.959
30361SOL     OW92856   1.488   7.098  11.168
30361SOL    HW192857   1.530   7.062  11.246
30361SOL    HW292858   1.559   7.111  11.106
30362SOL     OW92859   1.813  13.630   5.690
30362SOL    HW192860   1.882  13.654   5.751
30362SOL    HW292861   1.842  13.667   5.606
30363SOL     OW92862  12.326   0.358   5.050
30363SOL    HW192863  12.418   0.384   5.052
30363SOL    HW292864  12.324   0.273   5.094
30364SOL     OW92865  13.932   9.491   9.113
30364SOL    HW192866  13.954   9.438   9.036
30364SOL    HW292867  13.981   9.451   9.184
30365SOL     OW92868   5.619   9.528   9.785
30365SOL    HW192869   5.538   9.494   9.748
30365SOL    HW292870   5.600   9.541   9.878
30366SOL     OW92871   5.398  12.705   3.664
30366SOL    HW192872   5.378  12.649   3.739
30366SOL    HW292873   5.313  12.733   3.632
30367SOL     OW92874   6.442   8.373  14.409
30367SOL    HW192875   6.471   8.421  14.332
30367SOL    HW292876   6.350   8.396  14.419
30368SOL     OW92877   8.696  14.010  14.761
30368SOL    HW192878   8.782  13.970  14.748
30368SOL    HW292879   8.707  14.100  14.732
30369SOL     OW92880  11.075   3.677  10.767
30369SOL    HW192881  11.104   3.704  10.680
30369SOL    HW292882  11.101   3.749  10.824
30370SOL     OW92883  10.574  13.591  12.582
30370SOL    HW192884  10.535  13.668  12.541
30370SOL    HW292885  10.651  13.624  12.627
30371SOL     OW92886   0.712   4.176  13.586
30371SOL    HW192887   0.636   4.160  13.642
30371SOL    HW292888   0.768   4.100  13.599
30372SOL     OW92889   6.266   3.064   5.831
30372SOL    HW192890   6.282   3.126   5.760
30372SOL    HW292891   6.174   3.079   5.856
30373SOL     OW92892   4.201   4.836  12.549
30373SOL    HW192893   4.175   4.911  12.495
30373SOL    HW292894   4.296   4.845  12.558
30374SOL     OW92895  10.483  10.039  11.916
30374SOL    HW192896  10.439  10.059  11.999
30374SOL    HW292897  10.453  10.108  11.856
30375SOL     OW92898   4.002  12.250   9.291
30375SOL    HW192899   4.056  12.222   9.218
30375SOL    HW292900   4.006  12.178   9.354
30376SOL     OW92901  13.667  14.310   1.076
30376SOL    HW192902  13.757  14.290   1.101
30376SOL    HW292903  13.666  14.405   1.061
30377SOL     OW92904  12.064   0.820  10.237
30377SOL    HW192905  11.989   0.809  10.179
30377SOL    HW292906  12.070   0.915  10.250
30378SOL     OW92907  14.740   1.482   3.413
30378SOL    HW192908  14.796   1.528   3.476
30378SOL    HW292909  14.686   1.425   3.467
30379SOL     OW92910   0.068  13.242   3.192
30379SOL    HW192911   0.062  13.184   3.268
30379SOL    HW292912   0.127  13.311   3.219
30380SOL     OW92913   4.263   9.298   8.826
30380SOL    HW192914   4.232   9.272   8.912
30380SOL    HW292915   4.194   9.354   8.791
30381SOL     OW92916  11.994   0.482   8.978
30381SOL    HW192917  12.067   0.428   8.949
30381SOL    HW292918  12.033   0.546   9.036
30382SOL     OW92919   8.836   2.427   1.177
30382SOL    HW192920   8.825   2.519   1.153
30382SOL    HW292921   8.930   2.411   1.166
30383SOL     OW92922  10.778   3.056  11.067
30383SOL    HW192923  10.809   2.997  10.998
30383SOL    HW292924  10.724   3.120  11.022
30384SOL     OW92925  14.644   2.945  10.092
30384SOL    HW192926  14.697   2.939  10.172
30384SOL    HW292927  14.553   2.945  10.124
30385SOL     OW92928   9.924   4.207  13.728
30385SOL    HW192929   9.952   4.243  13.812
30385SOL    HW292930   9.989   4.139  13.708
30386SOL     OW92931   9.363   8.267   0.319
30386SOL    HW192932   9.367   8.303   0.230
30386SOL    HW292933   9.352   8.173   0.307
30387SOL     OW92934  11.589   2.267  13.585
30387SOL    HW192935  11.531   2.279  13.660
30387SOL    HW292936  11.570   2.341  13.528
30388SOL     OW92937  10.231   5.542   1.625
30388SOL    HW192938  10.236   5.632   1.656
30388SOL    HW292939  10.294   5.537   1.553
30389SOL     OW92940   6.155  11.986   5.572
30389SOL    HW192941   6.153  11.937   5.490
30389SOL    HW292942   6.084  12.050   5.564
30390SOL     OW92943   1.723   5.512   9.821
30390SOL    HW192944   1.699   5.558   9.901
30390SOL    HW292945   1.790   5.567   9.780
30391SOL     OW92946   1.346   8.371   1.504
30391SOL    HW192947   1.301   8.302   1.552
30391SOL    HW292948   1.431   8.379   1.546
30392SOL     OW92949   8.769   7.022  11.621
30392SOL    HW192950   8.844   7.081  11.631
30392SOL    HW292951   8.807   6.934  11.617
30393SOL     OW92952   5.093   2.436  11.752
30393SOL    HW192953   5.119   2.411  11.841
30393SOL    HW292954   5.098   2.354  11.702
30394SOL     OW92955   2.282  10.435  14.658
30394SOL    HW192956   2.358  10.472  14.704
30394SOL    HW292957   2.209  10.490  14.684
30395SOL     OW92958  12.386  10.839   1.508
30395SOL    HW192959  12.339  10.800   1.434
30395SOL    HW292960  12.345  10.801   1.585
30396SOL     OW92961  11.604  12.237   6.553
30396SOL    HW192962  11.602  12.153   6.598
30396SOL    HW292963  11.678  12.230   6.492
30397SOL     OW92964   9.326   6.234   5.351
30397SOL    HW192965   9.327   6.159   5.291
30397SOL    HW292966   9.418   6.260   5.358
30398SOL     OW92967   2.118  10.608   8.626
30398SOL    HW192968   2.138  10.590   8.717
30398SOL    HW292969   2.175  10.681   8.602
30399SOL     OW92970  14.168   4.413   0.242
30399SOL    HW192971  14.124   4.363   0.173
30399SOL    HW292972  14.098   4.460   0.287
30400SOL     OW92973   4.860   5.360   7.916
30400SOL    HW192974   4.808   5.420   7.862
30400SOL    HW292975   4.934   5.413   7.945
30401SOL     OW92976  14.173   2.777   4.494
30401SOL    HW192977  14.207   2.818   4.574
30401SOL    HW292978  14.251   2.755   4.444
30402SOL     OW92979   5.283  13.277   0.309
30402SOL    HW192980   5.279  13.185   0.334
30402SOL    HW292981   5.355  13.313   0.361
30403SOL     OW92982   5.824   0.799   9.438
30403SOL    HW192983   5.848   0.711   9.469
30403SOL    HW292984   5.766   0.783   9.364
30404SOL     OW92985  10.771   3.655   9.636
30404SOL    HW192986  10.735   3.659   9.547
30404SOL    HW292987  10.866   3.654   9.623
30405SOL     OW92988  11.880  14.422   2.579
30405SOL    HW192989  11.856  14.502   2.532
30405SOL    HW292990  11.921  14.454   2.660
30406SOL     OW92991   2.539   4.694  10.481
30406SOL    HW192992   2.491   4.631  10.427
30406SOL    HW292993   2.626   4.698  10.441
30407SOL     OW92994   2.701  11.136  12.253
30407SOL    HW192995   2.741  11.079  12.319
30407SOL    HW292996   2.741  11.222  12.268
30408SOL     OW92997   0.961   9.448   7.917
30408SOL    HW192998   0.967   9.513   7.848
30408SOL    HW292999   0.995   9.367   7.878
30409SOL     OW93000   6.910   5.259  10.721
30409SOL    HW193001   6.829   5.283  10.676
30409SOL    HW293002   6.959   5.341  10.727
30410SOL     OW93003   7.919   1.705   5.399
30410SOL    HW193004   7.839   1.755   5.381
30410SOL    HW293005   7.945   1.672   5.313
30411SOL     OW93006  12.511  11.240   4.929
30411SOL    HW193007  12.548  11.305   4.869
30411SOL    HW293008  12.578  11.172   4.935
30412SOL     OW93009   4.928  14.007  11.676
30412SOL    HW193010   4.941  13.927  11.726
30412SOL    HW293011   4.835  14.008  11.654
30413SOL     OW93012   4.079   5.439   3.619
30413SOL    HW193013   4.167   5.414   3.590
30413SOL    HW293014   4.037   5.474   3.540
30414SOL     OW93015   9.516  11.118   2.222
30414SOL    HW193016   9.565  11.175   2.282
30414SOL    HW293017   9.467  11.059   2.279
30415SOL     OW93018   1.201   7.894   0.413
30415SOL    HW193019   1.297   7.901   0.407
30415SOL    HW293020   1.184   7.800   0.411
30416SOL     OW93021   6.080   9.715   9.899
30416SOL    HW193022   6.113   9.719   9.809
30416SOL    HW293023   6.159   9.719   9.953
30417SOL     OW93024   0.774   7.233   6.624
30417SOL    HW193025   0.808   7.244   6.713
30417SOL    HW293026   0.815   7.153   6.592
30418SOL     OW93027   0.122  13.417   7.456
30418SOL    HW193028   0.123  13.499   7.408
30418SOL    HW293029   0.127  13.349   7.389
30419SOL     OW93030  14.625   4.267  10.315
30419SOL    HW193031  14.594   4.178  10.299
30419SOL    HW293032  14.652   4.299  10.229
30420SOL     OW93033   3.734   8.699   1.942
30420SOL    HW193034   3.800   8.679   2.009
30420SOL    HW293035   3.769   8.775   1.896
30421SOL     OW93036  12.990   8.546   6.156
30421SOL    HW193037  12.926   8.560   6.225
30421SOL    HW293038  12.959   8.468   6.109
30422SOL     OW93039   2.357   7.323  13.645
30422SOL    HW193040   2.263   7.331  13.632
30422SOL    HW293041   2.387   7.413  13.657
30423SOL     OW93042   6.074  14.039   3.897
30423SOL    HW193043   6.063  14.080   3.811
30423SOL    HW293044   6.147  13.978   3.885
30424SOL     OW93045   0.567   1.266   6.750
30424SOL    HW193046   0.546   1.348   6.704
30424SOL    HW293047   0.526   1.275   6.835
30425SOL     OW93048   7.756  12.517  11.067
30425SOL    HW193049   7.783  12.537  10.978
30425SOL    HW293050   7.671  12.475  11.058
30426SOL     OW93051   9.984   7.090   1.917
30426SOL    HW193052  10.010   7.086   1.825
30426SOL    HW293053   9.894   7.056   1.918
30427SOL     OW93054   0.310   1.205  14.245
30427SOL    HW193055   0.250   1.191  14.318
30427SOL    HW293056   0.378   1.139  14.257
30428SOL     OW93057   6.584   2.583  13.243
30428SOL    HW193058   6.576   2.504  13.191
30428SOL    HW293059   6.655   2.565  13.305
30429SOL     OW93060  13.027   7.209   0.492
30429SOL    HW193061  13.068   7.229   0.575
30429SOL    HW293062  13.099   7.180   0.435
30430SOL     OW93063  10.814   4.095   1.509
30430SOL    HW193064  10.728   4.097   1.552
30430SOL    HW293065  10.826   4.184   1.477
30431SOL     OW93066   8.360   3.704   2.575
30431SOL    HW193067   8.431   3.643   2.556
30431SOL    HW293068   8.382   3.783   2.526
30432SOL     OW93069   8.480   4.926   4.174
30432SOL    HW193070   8.566   4.966   4.163
30432SOL    HW293071   8.434   4.985   4.234
30433SOL     OW93072  10.041   9.151   8.058
30433SOL    HW193073   9.962   9.149   8.005
30433SOL    HW293074  10.014   9.114   8.142
30434SOL     OW93075   0.158  10.961   1.861
30434SOL    HW193076   0.173  10.873   1.827
30434SOL    HW293077   0.212  10.966   1.940
30435SOL     OW93078   2.871  14.854  12.576
30435SOL    HW193079   2.860   0.061  12.532
30435SOL    HW293080   2.799  14.800  12.543
30436SOL     OW93081   7.516   0.721  13.407
30436SOL    HW193082   7.427   0.721  13.370
30436SOL    HW293083   7.574   0.721  13.331
30437SOL     OW93084   8.343   9.573   6.112
30437SOL    HW193085   8.365   9.599   6.202
30437SOL    HW293086   8.248   9.578   6.108
30438SOL     OW93087  14.217   4.412   5.797
30438SOL    HW193088  14.140   4.458   5.830
30438SOL    HW293089  14.289   4.444   5.852
30439SOL     OW93090   6.939   3.168   4.119
30439SOL    HW193091   7.019   3.121   4.093
30439SOL    HW293092   6.967   3.259   4.129
30440SOL     OW93093   0.281  13.524   5.341
30440SOL    HW193094   0.368  13.491   5.363
30440SOL    HW293095   0.227  13.445   5.333
30441SOL     OW93096  13.051  11.865   7.458
30441SOL    HW193097  12.999  11.785   7.452
30441SOL    HW293098  13.125  11.841   7.514
30442SOL     OW93099  11.143   8.887  12.073
30442SOL    HW193100  11.101   8.918  11.992
30442SOL    HW293101  11.096   8.807  12.095
30443SOL     OW93102   9.003   1.905   5.928
30443SOL    HW193103   9.079   1.923   5.872
30443SOL    HW293104   8.967   1.991   5.949
30444SOL     OW93105   2.547   8.032  14.038
30444SOL    HW193106   2.495   8.067  14.110
30444SOL    HW293107   2.630   8.005  14.077
30445SOL     OW93108  12.831  12.724  11.507
30445SOL    HW193109  12.835  12.712  11.602
30445SOL    HW293110  12.882  12.651  11.471
30446SOL     OW93111   9.553   4.151  11.691
30446SOL    HW193112   9.503   4.231  11.705
30446SOL    HW293113   9.637   4.167  11.736
30447SOL     OW93114   1.424  11.102  14.114
30447SOL    HW193115   1.395  11.192  14.126
30447SOL    HW293116   1.363  11.050  14.165
30448SOL     OW93117   3.064  12.016   2.256
30448SOL    HW193118   3.160  12.016   2.255
30448SOL    HW293119   3.041  12.068   2.334
30449SOL     OW93120   1.681  14.655   9.084
30449SOL    HW193121   1.776  14.664   9.088
30449SOL    HW293122   1.648  14.744   9.101
30450SOL     OW93123   2.239  12.953   3.570
30450SOL    HW193124   2.331  12.958   3.597
30450SOL    HW293125   2.193  13.006   3.635
30451SOL     OW93126  13.733  14.402  11.993
30451SOL    HW193127  13.664  14.451  11.947
30451SOL    HW293128  13.771  14.466  12.053
30452SOL     OW93129   5.019   2.742   7.594
30452SOL    HW193130   5.045   2.768   7.683
30452SOL    HW293131   4.993   2.824   7.552
30453SOL     OW93132  11.945   3.578   9.812
30453SOL    HW193133  11.858   3.574   9.771
30453SOL    HW293134  11.976   3.667   9.795
30454SOL     OW93135   2.943   1.435   5.873
30454SOL    HW193136   2.896   1.352   5.866
30454SOL    HW293137   3.026   1.413   5.914
30455SOL     OW93138  12.501   9.989   2.605
30455SOL    HW193139  12.475  10.045   2.532
30455SOL    HW293140  12.594  10.009   2.619
30456SOL     OW93141   1.379   0.940   1.446
30456SOL    HW193142   1.459   0.892   1.428
30456SOL    HW293143   1.309   0.883   1.415
30457SOL     OW93144  10.849   2.634   0.287
30457SOL    HW193145  10.941   2.614   0.273
30457SOL    HW293146  10.849   2.724   0.321
30458SOL     OW93147   2.516   6.553   3.800
30458SOL    HW193148   2.487   6.644   3.795
30458SOL    HW293149   2.555   6.535   3.715
30459SOL     OW93150   9.648   2.665  13.270
30459SOL    HW193151   9.571   2.721  13.275
30459SOL    HW293152   9.660   2.631  13.358
30460SOL     OW93153   1.141   6.852   2.006
30460SOL    HW193154   1.153   6.803   2.087
30460SOL    HW293155   1.228   6.887   1.987
30461SOL     OW93156  10.627  14.637   2.565
30461SOL    HW193157  10.703  14.657   2.620
30461SOL    HW293158  10.645  14.550   2.530
30462SOL     OW93159   1.444   6.427   6.318
30462SOL    HW193160   1.383   6.496   6.292
30462SOL    HW293161   1.394   6.373   6.379
30463SOL     OW93162   1.412   5.919   8.554
30463SOL    HW193163   1.421   5.907   8.459
30463SOL    HW293164   1.498   5.949   8.583
30464SOL     OW93165   7.422  11.313   2.297
30464SOL    HW193166   7.423  11.365   2.217
30464SOL    HW293167   7.329  11.303   2.318
30465SOL     OW93168   4.261   9.036  12.682
30465SOL    HW193169   4.196   9.062  12.748
30465SOL    HW293170   4.236   8.947  12.658
30466SOL     OW93171   6.016  10.804  14.180
30466SOL    HW193172   6.081  10.855  14.131
30466SOL    HW293173   5.934  10.818  14.132
30467SOL     OW93174  13.423  14.169   9.986
30467SOL    HW193175  13.468  14.233   9.931
30467SOL    HW293176  13.438  14.199  10.075
30468SOL     OW93177   3.439  14.060  12.654
30468SOL    HW193178   3.487  14.064  12.571
30468SOL    HW293179   3.378  14.134  12.649
30469SOL     OW93180   0.076   5.346   4.534
30469SOL    HW193181  14.875   5.401   4.537
30469SOL    HW293182   0.149   5.407   4.549
30470SOL     OW93183   1.665   9.640  12.733
30470SOL    HW193184   1.631   9.622  12.645
30470SOL    HW293185   1.606   9.591  12.792
30471SOL     OW93186  10.603   5.778   5.419
30471SOL    HW193187  10.587   5.838   5.492
30471SOL    HW293188  10.618   5.836   5.344
30472SOL     OW93189  13.559   7.065   3.147
30472SOL    HW193190  13.644   7.041   3.183
30472SOL    HW293191  13.573   7.151   3.107
30473SOL     OW93192   7.838  11.901   0.705
30473SOL    HW193193   7.831  11.872   0.614
30473SOL    HW293194   7.906  11.846   0.743
30474SOL     OW93195   2.946   5.676   8.749
30474SOL    HW193196   3.022   5.716   8.790
30474SOL    HW293197   2.906   5.746   8.697
30475SOL     OW93198   9.967   3.461   1.385
30475SOL    HW193199   9.898   3.412   1.341
30475SOL    HW293200   9.999   3.402   1.453
30476SOL     OW93201   4.953  11.662   9.631
30476SOL    HW193202   4.882  11.661   9.566
30476SOL    HW293203   4.996  11.578   9.620
30477SOL     OW93204   7.061   3.369   6.927
30477SOL    HW193205   7.052   3.435   6.858
30477SOL    HW293206   6.976   3.368   6.971
30478SOL     OW93207  13.306   9.245   7.489
30478SOL    HW193208  13.251   9.308   7.442
30478SOL    HW293209  13.385   9.295   7.510
30479SOL     OW93210   8.070   9.487   6.275
30479SOL    HW193211   8.024   9.547   6.335
30479SOL    HW293212   8.045   9.400   6.306
30480SOL     OW93213   3.839   6.651  14.089
30480SOL    HW193214   3.797   6.570  14.060
30480SOL    HW293215   3.831   6.650  14.184
30481SOL     OW93216  12.599   6.936   8.942
30481SOL    HW193217  12.626   6.980   8.861
30481SOL    HW293218  12.677   6.937   8.997
30482SOL     OW93219  11.406   2.202   8.327
30482SOL    HW193220  11.392   2.266   8.397
30482SOL    HW293221  11.376   2.245   8.248
30483SOL     OW93222   5.666   2.888  13.566
30483SOL    HW193223   5.687   2.887  13.473
30483SOL    HW293224   5.573   2.911  13.569
30484SOL     OW93225   6.816   5.947  10.713
30484SOL    HW193226   6.778   6.007  10.777
30484SOL    HW293227   6.911   5.963  10.718
30485SOL     OW93228   6.029   0.851  11.517
30485SOL    HW193229   6.068   0.874  11.432
30485SOL    HW293230   6.092   0.883  11.582
30486SOL     OW93231   0.534   0.802   3.800
30486SOL    HW193232   0.545   0.807   3.895
30486SOL    HW293233   0.562   0.887   3.768
30487SOL     OW93234   7.518  14.801  12.719
30487SOL    HW193235   7.525  14.845  12.804
30487SOL    HW293236   7.594  14.831  12.669
30488SOL     OW93237  10.336  13.305   3.963
30488SOL    HW193238  10.352  13.320   3.869
30488SOL    HW293239  10.241  13.318   3.973
30489SOL     OW93240   0.513  10.774   3.649
30489SOL    HW193241   0.507  10.826   3.568
30489SOL    HW293242   0.491  10.836   3.719
30490SOL     OW93243   2.705  14.350   9.338
30490SOL    HW193244   2.695  14.382   9.248
30490SOL    HW293245   2.798  14.327   9.344
30491SOL     OW93246   0.876   8.818   1.784
30491SOL    HW193247   0.956   8.795   1.737
30491SOL    HW293248   0.812   8.753   1.754
30492SOL     OW93249   4.498  11.717   2.808
30492SOL    HW193250   4.490  11.801   2.763
30492SOL    HW293251   4.475  11.652   2.742
30493SOL     OW93252   3.995  10.338   8.737
30493SOL    HW193253   3.975  10.381   8.821
30493SOL    HW293254   3.920  10.359   8.682
30494SOL     OW93255   4.498   9.859   5.817
30494SOL    HW193256   4.407   9.834   5.806
30494SOL    HW293257   4.509   9.869   5.912
30495SOL     OW93258   4.325  10.931   1.942
30495SOL    HW193259   4.366  10.951   1.858
30495SOL    HW293260   4.323  11.015   1.989
30496SOL     OW93261   5.243   7.702   3.006
30496SOL    HW193262   5.268   7.610   2.994
30496SOL    HW293263   5.303   7.734   3.073
30497SOL     OW93264   8.844  11.581   0.805
30497SOL    HW193265   8.872  11.510   0.747
30497SOL    HW293266   8.789  11.636   0.750
30498SOL     OW93267  13.264   6.037   3.971
30498SOL    HW193268  13.256   5.957   4.023
30498SOL    HW293269  13.249   6.108   4.033
30499SOL     OW93270   4.722   7.009  10.289
30499SOL    HW193271   4.810   6.970  10.285
30499SOL    HW293272   4.697   7.022  10.198
30500SOL     OW93273   9.041   3.984   1.267
30500SOL    HW193274   9.062   3.940   1.185
30500SOL    HW293275   8.981   3.924   1.312
30501SOL     OW93276  10.089   3.276   1.557
30501SOL    HW193277  10.098   3.181   1.550
30501SOL    HW293278  10.147   3.300   1.630
30502SOL     OW93279  10.397   1.755   8.009
30502SOL    HW193280  10.321   1.806   8.037
30502SOL    HW293281  10.399   1.680   8.069
30503SOL     OW93282   1.295  12.027  13.318
30503SOL    HW193283   1.280  12.103  13.262
30503SOL    HW293284   1.384  12.038  13.350
30504SOL     OW93285   8.591   4.193  13.248
30504SOL    HW193286   8.651   4.251  13.294
30504SOL    HW293287   8.638   4.167  13.169
30505SOL     OW93288   4.623   1.536   2.483
30505SOL    HW193289   4.581   1.621   2.467
30505SOL    HW293290   4.591   1.509   2.569
30506SOL     OW93291  14.692   9.406   5.971
30506SOL    HW193292  14.758   9.468   6.001
30506SOL    HW293293  14.650   9.375   6.051
30507SOL     OW93294   4.262   6.296  14.301
30507SOL    HW193295   4.168   6.305  14.315
30507SOL    HW293296   4.271   6.289  14.206
30508SOL     OW93297   4.332  13.926  14.563
30508SOL    HW193298   4.418  13.957  14.535
30508SOL    HW293299   4.317  13.847  14.511
30509SOL     OW93300   8.351  14.659   3.095
30509SOL    HW193301   8.444  14.679   3.097
30509SOL    HW293302   8.308  14.739   3.127
30510SOL     OW93303   6.481  10.566   6.845
30510SOL    HW193304   6.440  10.591   6.762
30510SOL    HW293305   6.569  10.538   6.820
30511SOL     OW93306   5.476   4.152   4.628
30511SOL    HW193307   5.494   4.241   4.658
30511SOL    HW293308   5.487   4.156   4.533
30512SOL     OW93309   3.836  14.230   0.914
30512SOL    HW193310   3.768  14.281   0.871
30512SOL    HW293311   3.896  14.205   0.844
30513SOL     OW93312   9.585   3.244   4.458
30513SOL    HW193313   9.548   3.207   4.538
30513SOL    HW293314   9.673   3.272   4.483
30514SOL     OW93315   2.349  12.393   0.309
30514SOL    HW193316   2.302  12.467   0.346
30514SOL    HW293317   2.282  12.325   0.296
30515SOL     OW93318   7.269  13.484  10.117
30515SOL    HW193319   7.248  13.503  10.026
30515SOL    HW293320   7.185  13.466  10.159
30516SOL     OW93321   6.241   6.757  11.819
30516SOL    HW193322   6.196   6.802  11.891
30516SOL    HW293323   6.302   6.823  11.785
30517SOL     OW93324  13.369   1.084   1.368
30517SOL    HW193325  13.305   1.071   1.298
30517SOL    HW293326  13.372   0.999   1.413
30518SOL     OW93327   3.193  14.358  10.853
30518SOL    HW193328   3.107  14.317  10.845
30518SOL    HW293329   3.254  14.294  10.816
30519SOL     OW93330   7.061   3.061   6.312
30519SOL    HW193331   7.088   3.151   6.296
30519SOL    HW293332   7.062   3.020   6.225
30520SOL     OW93333   0.585   4.002  12.795
30520SOL    HW193334   0.603   4.096  12.783
30520SOL    HW293335   0.661   3.959  12.756
30521SOL     OW93336   2.273   6.471  11.487
30521SOL    HW193337   2.180   6.492  11.486
30521SOL    HW293338   2.311   6.531  11.552
30522SOL     OW93339   1.785   5.128   8.707
30522SOL    HW193340   1.749   5.159   8.790
30522SOL    HW293341   1.879   5.126   8.721
30523SOL     OW93342   8.214  12.111   1.138
30523SOL    HW193343   8.155  12.111   1.214
30523SOL    HW293344   8.270  12.034   1.151
30524SOL     OW93345  11.062   9.244  12.913
30524SOL    HW193346  11.015   9.169  12.877
30524SOL    HW293347  11.151   9.235  12.879
30525SOL     OW93348   4.092   2.145  14.143
30525SOL    HW193349   4.042   2.063  14.146
30525SOL    HW293350   4.172   2.123  14.095
30526SOL     OW93351   2.197   0.752  14.748
30526SOL    HW193352   2.276   0.720  14.704
30526SOL    HW293353   2.125   0.703  14.709
30527SOL     OW93354  14.025  11.938  14.078
30527SOL    HW193355  13.981  11.918  13.996
30527SOL    HW293356  13.977  11.888  14.144
30528SOL     OW93357   8.208  14.093   1.053
30528SOL    HW193358   8.249  14.024   1.000
30528SOL    HW293359   8.176  14.047   1.131
30529SOL     OW93360   0.444   7.480   3.873
30529SOL    HW193361   0.510   7.548   3.861
30529SOL    HW293362   0.361   7.527   3.880
30530SOL     OW93363   8.603  12.793   5.608
30530SOL    HW193364   8.630  12.719   5.663
30530SOL    HW293365   8.666  12.862   5.629
30531SOL     OW93366   5.913   4.263   8.012
30531SOL    HW193367   5.911   4.301   7.924
30531SOL    HW293368   5.991   4.302   8.052
30532SOL     OW93369   4.421  14.083   3.144
30532SOL    HW193370   4.484  14.141   3.101
30532SOL    HW293371   4.340  14.135   3.149
30533SOL     OW93372   1.787   3.368   6.735
30533SOL    HW193373   1.836   3.354   6.816
30533SOL    HW293374   1.854   3.381   6.668
30534SOL     OW93375   2.748   2.243  13.483
30534SOL    HW193376   2.653   2.236  13.487
30534SOL    HW293377   2.774   2.273  13.570
30535SOL     OW93378  10.915  10.241   9.839
30535SOL    HW193379  10.830  10.201   9.859
30535SOL    HW293380  10.893  10.332   9.818
30536SOL     OW93381  13.636   1.810   9.890
30536SOL    HW193382  13.710   1.795   9.949
30536SOL    HW293383  13.665   1.776   9.806
30537SOL     OW93384   3.041   3.396   0.279
30537SOL    HW193385   3.038   3.426   0.370
30537SOL    HW293386   3.079   3.308   0.284
30538SOL     OW93387   0.807  11.360   2.859
30538SOL    HW193388   0.872  11.359   2.789
30538SOL    HW293389   0.816  11.275   2.901
30539SOL     OW93390   3.316  14.540   3.072
30539SOL    HW193391   3.316  14.459   3.122
30539SOL    HW293392   3.224  14.568   3.071
30540SOL     OW93393   8.110   5.347   8.979
30540SOL    HW193394   8.163   5.324   8.903
30540SOL    HW293395   8.170   5.341   9.053
30541SOL     OW93396  10.563   5.005   0.364
30541SOL    HW193397  10.528   4.917   0.351
30541SOL    HW293398  10.542   5.025   0.456
30542SOL     OW93399   5.597   6.833   2.730
30542SOL    HW193400   5.680   6.835   2.683
30542SOL    HW293401   5.555   6.916   2.708
30543SOL     OW93402   7.582   1.262   2.204
30543SOL    HW193403   7.589   1.227   2.115
30543SOL    HW293404   7.553   1.189   2.258
30544SOL     OW93405  14.682   6.634   6.263
30544SOL    HW193406  14.764   6.684   6.255
30544SOL    HW293407  14.627   6.669   6.192
30545SOL     OW93408   8.882   3.927   4.448
30545SOL    HW193409   8.977   3.924   4.464
30545SOL    HW293410   8.874   3.932   4.353
30546SOL     OW93411   0.973  10.942   9.650
30546SOL    HW193412   1.035  11.010   9.677
30546SOL    HW293413   1.029  10.870   9.620
30547SOL     OW93414   4.502   2.234   9.174
30547SOL    HW193415   4.557   2.213   9.099
30547SOL    HW293416   4.520   2.165   9.238
30548SOL     OW93417   2.518   8.532  10.320
30548SOL    HW193418   2.461   8.516  10.395
30548SOL    HW293419   2.582   8.461  10.323
30549SOL     OW93420  14.287   5.176   7.562
30549SOL    HW193421  14.207   5.197   7.514
30549SOL    HW293422  14.340   5.127   7.499
30550SOL     OW93423   7.934   6.613   7.213
30550SOL    HW193424   7.938   6.520   7.234
30550SOL    HW293425   7.941   6.658   7.297
30551SOL     OW93426   8.560  11.226   1.644
30551SOL    HW193427   8.540  11.192   1.557
30551SOL    HW293428   8.494  11.185   1.701
30552SOL     OW93429   5.040  13.783  12.917
30552SOL    HW193430   5.022  13.740  12.833
30552SOL    HW293431   5.107  13.849  12.895
30553SOL     OW93432  14.392  13.779  11.391
30553SOL    HW193433  14.300  13.797  11.371
30553SOL    HW293434  14.389  13.718  11.465
30554SOL     OW93435   3.905   4.608  14.463
30554SOL    HW193436   3.896   4.655  14.380
30554SOL    HW293437   3.859   4.525  14.449
30555SOL     OW93438   9.365   8.112   2.144
30555SOL    HW193439   9.329   8.112   2.233
30555SOL    HW293440   9.364   8.205   2.119
30556SOL     OW93441  14.230  13.993   3.778
30556SOL    HW193442  14.305  14.044   3.749
30556SOL    HW293443  14.159  14.019   3.719
30557SOL     OW93444   2.050   4.656   5.088
30557SOL    HW193445   2.061   4.750   5.104
30557SOL    HW293446   1.970   4.633   5.136
30558SOL     OW93447  11.603   4.261   2.373
30558SOL    HW193448  11.682   4.253   2.319
30558SOL    HW293449  11.583   4.171   2.400
30559SOL     OW93450   3.486  13.449   4.623
30559SOL    HW193451   3.450  13.362   4.607
30559SOL    HW293452   3.436  13.507   4.566
30560SOL     OW93453   0.653   7.969   2.002
30560SOL    HW193454   0.738   7.979   2.043
30560SOL    HW293455   0.613   8.056   2.008
30561SOL     OW93456   2.480  14.219   8.567
30561SOL    HW193457   2.509  14.220   8.658
30561SOL    HW293458   2.475  14.311   8.542
30562SOL     OW93459  10.684  11.724  13.302
30562SOL    HW193460  10.611  11.722  13.241
30562SOL    HW293461  10.738  11.798  13.273
30563SOL     OW93462   8.408   2.975   2.351
30563SOL    HW193463   8.410   2.879   2.349
30563SOL    HW293464   8.466   3.002   2.280
30564SOL     OW93465   3.442   2.568  12.355
30564SOL    HW193466   3.429   2.493  12.298
30564SOL    HW293467   3.355   2.590  12.387
30565SOL     OW93468   4.087  10.640   7.344
30565SOL    HW193469   4.039  10.606   7.420
30565SOL    HW293470   4.139  10.713   7.379
30566SOL     OW93471  14.110   3.254   7.064
30566SOL    HW193472  14.098   3.308   6.986
30566SOL    HW293473  14.180   3.193   7.041
30567SOL     OW93474   6.036   1.604  10.301
30567SOL    HW193475   6.060   1.516  10.274
30567SOL    HW293476   6.009   1.648  10.221
30568SOL     OW93477   8.589   7.893   1.991
30568SOL    HW193478   8.660   7.926   2.046
30568SOL    HW293479   8.540   7.833   2.047
30569SOL     OW93480   1.487   1.337  11.415
30569SOL    HW193481   1.525   1.424  11.404
30569SOL    HW293482   1.537   1.298  11.487
30570SOL     OW93483   9.022  11.326   5.059
30570SOL    HW193484   8.999  11.419   5.055
30570SOL    HW293485   8.979  11.295   5.138
30571SOL     OW93486   2.550  11.822   5.261
30571SOL    HW193487   2.569  11.871   5.342
30571SOL    HW293488   2.636  11.799   5.227
30572SOL     OW93489  10.874  14.293   8.827
30572SOL    HW193490  10.865  14.200   8.849
30572SOL    HW293491  10.791  14.315   8.784
30573SOL     OW93492   3.442   1.288   7.621
30573SOL    HW193493   3.485   1.348   7.560
30573SOL    HW293494   3.482   1.308   7.706
30574SOL     OW93495  10.364  13.646   0.819
30574SOL    HW193496  10.374  13.560   0.860
30574SOL    HW293497  10.356  13.707   0.893
30575SOL     OW93498   8.259  11.226   4.591
30575SOL    HW193499   8.297  11.170   4.523
30575SOL    HW293500   8.196  11.170   4.636
30576SOL     OW93501  13.153  14.876   0.917
30576SOL    HW193502  13.208   0.076   0.903
30576SOL    HW293503  13.135  14.876   1.011
30577SOL     OW93504  12.302   4.679  10.461
30577SOL    HW193505  12.228   4.726  10.499
30577SOL    HW293506  12.271   4.651  10.374
30578SOL     OW93507   2.443  10.915   8.023
30578SOL    HW193508   2.460  11.005   8.052
30578SOL    HW293509   2.401  10.873   8.098
30579SOL     OW93510   6.431   4.014   7.619
30579SOL    HW193511   6.491   4.051   7.553
30579SOL    HW293512   6.456   3.922   7.624
30580SOL     OW93513   9.687  14.535   1.933
30580SOL    HW193514   9.693  14.511   1.841
30580SOL    HW293515   9.644  14.620   1.933
30581SOL     OW93516   1.555   7.898   4.155
30581SOL    HW193517   1.575   7.827   4.093
30581SOL    HW293518   1.571   7.978   4.106
30582SOL     OW93519   4.756   2.715  13.643
30582SOL    HW193520   4.677   2.758  13.613
30582SOL    HW293521   4.785   2.767  13.718
30583SOL     OW93522  10.071   2.203   5.614
30583SOL    HW193523  10.071   2.121   5.566
30583SOL    HW293524  10.077   2.177   5.706
30584SOL     OW93525  14.477   1.784  12.288
30584SOL    HW193526  14.417   1.858  12.298
30584SOL    HW293527  14.557   1.811  12.332
30585SOL     OW93528  11.953   2.834   1.002
30585SOL    HW193529  11.980   2.808   1.090
30585SOL    HW293530  11.950   2.752   0.952
30586SOL     OW93531   9.365   2.306  11.497
30586SOL    HW193532   9.390   2.222  11.536
30586SOL    HW293533   9.443   2.361  11.506
30587SOL     OW93534  14.575   1.751   3.805
30587SOL    HW193535  14.485   1.784   3.804
30587SOL    HW293536  14.589   1.719   3.715
30588SOL     OW93537   3.207   1.386   7.522
30588SOL    HW193538   3.280   1.386   7.583
30588SOL    HW293539   3.208   1.298   7.483
30589SOL     OW93540   8.998  10.458   0.896
30589SOL    HW193541   9.071  10.428   0.844
30589SOL    HW293542   8.932  10.389   0.888
30590SOL     OW93543   0.770   6.032   2.611
30590SOL    HW193544   0.770   5.998   2.521
30590SOL    HW293545   0.704   5.980   2.656
30591SOL     OW93546  13.463  12.899   9.726
30591SOL    HW193547  13.381  12.915   9.679
30591SOL    HW293548  13.523  12.966   9.692
30592SOL     OW93549   4.481   2.978  10.107
30592SOL    HW193550   4.474   2.944  10.197
30592SOL    HW293551   4.391   2.986  10.077
30593SOL     OW93552   1.043   2.945  11.094
30593SOL    HW193553   1.080   3.015  11.039
30593SOL    HW293554   1.024   2.875  11.032
30594SOL     OW93555   6.583   0.619  12.547
30594SOL    HW193556   6.678   0.629  12.542
30594SOL    HW293557   6.562   0.632  12.639
30595SOL     OW93558   4.247   6.874  12.779
30595SOL    HW193559   4.219   6.840  12.864
30595SOL    HW293560   4.197   6.955  12.769
30596SOL     OW93561  14.676   2.979  10.791
30596SOL    HW193562  14.654   3.062  10.831
30596SOL    HW293563  14.695   2.921  10.864
30597SOL     OW93564   9.901   0.241  13.606
30597SOL    HW193565   9.920   0.219  13.697
30597SOL    HW293566   9.916   0.335  13.600
30598SOL     OW93567   3.968  12.940   4.322
30598SOL    HW193568   3.932  13.014   4.275
30598SOL    HW293569   3.892  12.893   4.355
30599SOL     OW93570   7.755   5.382   2.435
30599SOL    HW193571   7.708   5.382   2.351
30599SOL    HW293572   7.817   5.454   2.428
30600SOL     OW93573   1.423   2.717   8.657
30600SOL    HW193574   1.417   2.782   8.726
30600SOL    HW293575   1.515   2.690   8.657
30601SOL     OW93576   5.382  11.828   9.291
30601SOL    HW193577   5.352  11.906   9.245
30601SOL    HW293578   5.311  11.806   9.352
30602SOL     OW93579  13.904   4.092  14.851
30602SOL    HW193580  13.881   4.086  14.758
30602SOL    HW293581  13.854   4.023   0.016
30603SOL     OW93582   6.522   6.528  10.304
30603SOL    HW193583   6.488   6.617  10.301
30603SOL    HW293584   6.553   6.510  10.215
30604SOL     OW93585   7.491   3.655   2.619
30604SOL    HW193586   7.464   3.613   2.538
30604SOL    HW293587   7.429   3.727   2.630
30605SOL     OW93588   6.647  10.521   4.936
30605SOL    HW193589   6.568  10.522   4.881
30605SOL    HW293590   6.664  10.614   4.954
30606SOL     OW93591  13.724   4.136   0.559
30606SOL    HW193592  13.763   4.054   0.590
30606SOL    HW293593  13.642   4.144   0.608
30607SOL     OW93594  11.167   4.674   5.019
30607SOL    HW193595  11.204   4.598   5.063
30607SOL    HW293596  11.172   4.744   5.084
30608SOL     OW93597   8.164  14.602  14.323
30608SOL    HW193598   8.134  14.682  14.280
30608SOL    HW293599   8.160  14.623  14.417
30609SOL     OW93600   2.890  11.321   6.824
30609SOL    HW193601   2.982  11.342   6.844
30609SOL    HW293602   2.858  11.279   6.904
30610SOL     OW93603  12.920   7.893   0.583
30610SOL    HW193604  12.872   7.963   0.627
30610SOL    HW293605  12.866   7.871   0.507
30611SOL     OW93606   8.648   6.586   1.380
30611SOL    HW193607   8.664   6.553   1.292
30611SOL    HW293608   8.696   6.669   1.383
30612SOL     OW93609   8.291   0.103   7.714
30612SOL    HW193610   8.220   0.132   7.658
30612SOL    HW293611   8.316   0.180   7.764
30613SOL     OW93612  12.240   1.263  14.729
30613SOL    HW193613  12.241   1.207  14.651
30613SOL    HW293614  12.213   1.204  14.800
30614SOL     OW93615   4.416   1.831   5.196
30614SOL    HW193616   4.402   1.793   5.283
30614SOL    HW293617   4.437   1.756   5.141
30615SOL     OW93618   2.954  11.668   5.657
30615SOL    HW193619   2.985  11.755   5.679
30615SOL    HW293620   2.889  11.682   5.588
30616SOL     OW93621  10.959   0.675  12.505
30616SOL    HW193622  10.937   0.768  12.506
30616SOL    HW293623  10.881   0.633  12.467
30617SOL     OW93624  14.586  12.200   2.850
30617SOL    HW193625  14.521  12.236   2.910
30617SOL    HW293626  14.541  12.194   2.766
30618SOL     OW93627  12.116  13.449   4.107
30618SOL    HW193628  12.103  13.387   4.179
30618SOL    HW293629  12.068  13.411   4.034
30619SOL     OW93630  14.778  14.352   2.041
30619SOL    HW193631  14.866  14.378   2.014
30619SOL    HW293632  14.787  14.327   2.133
30620SOL     OW93633   0.847   1.843  11.595
30620SOL    HW193634   0.862   1.867  11.504
30620SOL    HW293635   0.926   1.795  11.620
30621SOL     OW93636  12.292   4.159   4.041
30621SOL    HW193637  12.232   4.225   4.007
30621SOL    HW293638  12.355   4.209   4.094
30622SOL     OW93639   7.135  11.224   1.343
30622SOL    HW193640   7.159  11.312   1.371
30622SOL    HW293641   7.214  11.189   1.302
30623SOL     OW93642   6.155   5.614   5.793
30623SOL    HW193643   6.204   5.695   5.782
30623SOL    HW293644   6.118   5.620   5.882
30624SOL     OW93645  14.141  14.248  11.879
30624SOL    HW193646  14.114  14.320  11.822
30624SOL    HW293647  14.061  14.220  11.922
30625SOL     OW93648   2.813  12.142  11.942
30625SOL    HW193649   2.823  12.236  11.926
30625SOL    HW293650   2.862  12.126  12.023
30626SOL     OW93651   4.672   1.675   9.347
30626SOL    HW193652   4.609   1.605   9.334
30626SOL    HW293653   4.723   1.678   9.266
30627SOL     OW93654  13.812   5.994  13.180
30627SOL    HW193655  13.734   6.050  13.188
30627SOL    HW293656  13.871   6.026  13.248
30628SOL     OW93657   8.202   4.019  13.784
30628SOL    HW193658   8.290   4.054  13.771
30628SOL    HW293659   8.214   3.925  13.795
30629SOL     OW93660   7.850   6.320  13.709
30629SOL    HW193661   7.879   6.285  13.794
30629SOL    HW293662   7.770   6.271  13.689
30630SOL     OW93663  13.522   2.108   4.051
30630SOL    HW193664  13.536   2.128   3.959
30630SOL    HW293665  13.429   2.126   4.066
30631SOL     OW93666   8.442   6.060   0.253
30631SOL    HW193667   8.414   6.146   0.221
30631SOL    HW293668   8.362   6.021   0.289
30632SOL     OW93669   1.491   2.258  13.752
30632SOL    HW193670   1.576   2.221  13.774
30632SOL    HW293671   1.501   2.352  13.763
30633SOL     OW93672   8.110   8.191  11.705
30633SOL    HW193673   8.095   8.101  11.733
30633SOL    HW293674   8.049   8.203  11.632
30634SOL     OW93675   8.975   2.622  12.576
30634SOL    HW193676   9.058   2.592  12.611
30634SOL    HW293677   8.999   2.686  12.508
30635SOL     OW93678   9.325   3.540  10.713
30635SOL    HW193679   9.377   3.490  10.776
30635SOL    HW293680   9.341   3.497  10.629
30636SOL     OW93681   9.570  13.529  11.484
30636SOL    HW193682   9.637  13.466  11.513
30636SOL    HW293683   9.593  13.610  11.529
30637SOL     OW93684   6.654  14.745  11.365
30637SOL    HW193685   6.636  14.823  11.418
30637SOL    HW293686   6.627  14.672  11.421
30638SOL     OW93687   7.036   5.040   9.015
30638SOL    HW193688   6.963   5.051   9.076
30638SOL    HW293689   7.114   5.048   9.069
30639SOL     OW93690  13.575   5.391   1.804
30639SOL    HW193691  13.581   5.402   1.709
30639SOL    HW293692  13.481   5.387   1.823
30640SOL     OW93693  10.640  13.370   5.943
30640SOL    HW193694  10.726  13.331   5.929
30640SOL    HW293695  10.627  13.367   6.038
30641SOL     OW93696   0.620  14.358   9.105
30641SOL    HW193697   0.616  14.438   9.053
30641SOL    HW293698   0.602  14.386   9.194
30642SOL     OW93699  10.247   1.673  13.173
30642SOL    HW193700  10.249   1.735  13.246
30642SOL    HW293701  10.317   1.611  13.192
30643SOL     OW93702   7.467   7.345  13.659
30643SOL    HW193703   7.535   7.398  13.701
30643SOL    HW293704   7.471   7.368  13.567
30644SOL     OW93705   0.608   9.478   9.195
30644SOL    HW193706   0.663   9.508   9.267
30644SOL    HW293707   0.620   9.383   9.193
30645SOL     OW93708   0.182  14.147   2.329
30645SOL    HW193709   0.130  14.227   2.339
30645SOL    HW293710   0.144  14.085   2.390
30646SOL     OW93711   8.061   4.949   3.409
30646SOL    HW193712   8.115   4.985   3.338
30646SOL    HW293713   8.071   5.011   3.481
30647SOL     OW93714  12.013   3.220   2.826
30647SOL    HW193715  12.101   3.254   2.839
30647SOL    HW293716  12.017   3.130   2.859
30648SOL     OW93717   8.130   0.869   0.725
30648SOL    HW193718   8.131   0.910   0.811
30648SOL    HW293719   8.084   0.931   0.668
30649SOL     OW93720  14.168   9.657  13.760
30649SOL    HW193721  14.090   9.708  13.784
30649SOL    HW293722  14.178   9.673  13.666
30650SOL     OW93723  13.153   0.284  11.068
30650SOL    HW193724  13.150   0.244  10.981
30650SOL    HW293725  13.233   0.248  11.108
30651SOL     OW93726   8.210  13.077  13.974
30651SOL    HW193727   8.228  13.033  14.057
30651SOL    HW293728   8.243  13.166  13.986
30652SOL     OW93729   4.162  13.424   6.342
30652SOL    HW193730   4.179  13.329   6.347
30652SOL    HW293731   4.094  13.439   6.407
30653SOL     OW93732   3.463  14.258   9.457
30653SOL    HW193733   3.467  14.322   9.386
30653SOL    HW293734   3.544  14.208   9.448
30654SOL     OW93735   7.904   4.354   2.211
30654SOL    HW193736   7.850   4.371   2.289
30654SOL    HW293737   7.989   4.328   2.245
30655SOL     OW93738  11.169   3.531   8.300
30655SOL    HW193739  11.180   3.455   8.358
30655SOL    HW293740  11.258   3.562   8.285
30656SOL     OW93741   4.820   8.061  12.574
30656SOL    HW193742   4.769   8.080  12.495
30656SOL    HW293743   4.880   7.991  12.547
30657SOL     OW93744   7.072  12.881  10.743
30657SOL    HW193745   7.014  12.951  10.772
30657SOL    HW293746   7.020  12.801  10.753
30658SOL     OW93747   4.068   4.428  11.875
30658SOL    HW193748   4.015   4.357  11.837
30658SOL    HW293749   4.121   4.385  11.942
30659SOL     OW93750   2.657  10.603   6.869
30659SOL    HW193751   2.648  10.672   6.935
30659SOL    HW293752   2.669  10.650   6.786
30660SOL     OW93753   4.419  14.423  12.695
30660SOL    HW193754   4.394  14.374  12.774
30660SOL    HW293755   4.506  14.458  12.715
30661SOL     OW93756   5.452   4.748   4.696
30661SOL    HW193757   5.425   4.728   4.607
30661SOL    HW293758   5.484   4.838   4.692
30662SOL     OW93759   7.637   2.363   4.789
30662SOL    HW193760   7.673   2.276   4.806
30662SOL    HW293761   7.542   2.351   4.797
30663SOL     OW93762   3.410   3.498  13.177
30663SOL    HW193763   3.391   3.546  13.257
30663SOL    HW293764   3.324   3.478  13.140
30664SOL     OW93765   1.731   7.299  10.297
30664SOL    HW193766   1.762   7.263  10.213
30664SOL    HW293767   1.802   7.356  10.325
30665SOL     OW93768   0.734  13.336  11.727
30665SOL    HW193769   0.822  13.300  11.723
30665SOL    HW293770   0.700  13.309  11.812
30666SOL     OW93771  13.842   1.107   5.733
30666SOL    HW193772  13.829   1.135   5.823
30666SOL    HW293773  13.851   1.188   5.683
30667SOL     OW93774   5.378  10.958  10.367
30667SOL    HW193775   5.431  10.909  10.430
30667SOL    HW293776   5.302  10.903  10.351
30668SOL     OW93777   5.724   2.603   5.979
30668SOL    HW193778   5.667   2.678   6.001
30668SOL    HW293779   5.779   2.635   5.907
30669SOL     OW93780   5.419   2.963  13.551
30669SOL    HW193781   5.383   3.021  13.484
30669SOL    HW293782   5.392   3.002  13.634
30670SOL     OW93783   0.638   4.891   8.681
30670SOL    HW193784   0.682   4.962   8.728
30670SOL    HW293785   0.672   4.895   8.592
30671SOL     OW93786   6.280  14.373   2.263
30671SOL    HW193787   6.221  14.346   2.192
30671SOL    HW293788   6.357  14.408   2.217
30672SOL     OW93789  12.682   5.020   3.671
30672SOL    HW193790  12.631   5.093   3.635
30672SOL    HW293791  12.702   4.965   3.596
30673SOL     OW93792  13.318   9.753   4.280
30673SOL    HW193793  13.304   9.827   4.220
30673SOL    HW293794  13.403   9.718   4.255
30674SOL     OW93795  14.832  12.124   4.799
30674SOL    HW193796  14.745  12.110   4.761
30674SOL    HW293797  14.815  12.170   4.881
30675SOL     OW93798   8.069  12.407  10.730
30675SOL    HW193799   8.011  12.364  10.667
30675SOL    HW293800   8.116  12.336  10.773
30676SOL     OW93801   9.144  10.726   6.355
30676SOL    HW193802   9.152  10.692   6.444
30676SOL    HW293803   9.233  10.753   6.331
30677SOL     OW93804   6.228  10.624   7.392
30677SOL    HW193805   6.306  10.653   7.344
30677SOL    HW293806   6.247  10.533   7.416
30678SOL     OW93807   2.019   3.392  11.354
30678SOL    HW193808   1.954   3.460  11.377
30678SOL    HW293809   2.071   3.382  11.433
30679SOL     OW93810  12.737   8.780   4.254
30679SOL    HW193811  12.686   8.722   4.196
30679SOL    HW293812  12.816   8.731   4.273
30680SOL     OW93813   6.765   4.866   8.270
30680SOL    HW193814   6.725   4.921   8.338
30680SOL    HW293815   6.816   4.801   8.319
30681SOL     OW93816   0.794   2.113  13.970
30681SOL    HW193817   0.746   2.158  13.901
30681SOL    HW293818   0.779   2.020  13.952
30682SOL     OW93819   8.601   2.477   0.878
30682SOL    HW193820   8.600   2.401   0.937
30682SOL    HW293821   8.509   2.499   0.865
30683SOL     OW93822   3.427   9.087   0.288
30683SOL    HW193823   3.458   8.997   0.278
30683SOL    HW293824   3.497   9.141   0.251
30684SOL     OW93825  11.365  12.855   6.424
30684SOL    HW193826  11.345  12.832   6.334
30684SOL    HW293827  11.291  12.909   6.453
30685SOL     OW93828  11.962   8.026   5.728
30685SOL    HW193829  12.053   8.044   5.702
30685SOL    HW293830  11.912   8.100   5.694
30686SOL     OW93831   5.725   1.874   5.749
30686SOL    HW193832   5.800   1.932   5.765
30686SOL    HW293833   5.699   1.893   5.659
30687SOL     OW93834   2.376  10.777   3.414
30687SOL    HW193835   2.455  10.821   3.380
30687SOL    HW293836   2.404  10.743   3.499
30688SOL     OW93837  11.641   5.548   9.106
30688SOL    HW193838  11.615   5.549   9.014
30688SOL    HW293839  11.597   5.471   9.143
30689SOL     OW93840   7.275   4.042   1.565
30689SOL    HW193841   7.231   4.125   1.552
30689SOL    HW293842   7.368   4.065   1.573
30690SOL     OW93843   2.926  12.240  12.565
30690SOL    HW193844   2.838  12.207  12.547
30690SOL    HW293845   2.920  12.334  12.547
30691SOL     OW93846   2.346   1.509   6.502
30691SOL    HW193847   2.391   1.549   6.427
30691SOL    HW293848   2.412   1.510   6.572
30692SOL     OW93849   3.938   2.364   2.574
30692SOL    HW193850   3.978   2.394   2.657
30692SOL    HW293851   3.898   2.280   2.596
30693SOL     OW93852   3.031   6.255  11.119
30693SOL    HW193853   2.978   6.236  11.196
30693SOL    HW293854   3.088   6.178  11.109
30694SOL     OW93855   7.798   4.871  11.657
30694SOL    HW193856   7.730   4.831  11.603
30694SOL    HW293857   7.878   4.824  11.635
30695SOL     OW93858  14.252   1.294   4.186
30695SOL    HW193859  14.317   1.247   4.133
30695SOL    HW293860  14.288   1.382   4.197
30696SOL     OW93861   6.379   8.984   8.675
30696SOL    HW193862   6.343   8.929   8.744
30696SOL    HW293863   6.385   9.071   8.714
30697SOL     OW93864   5.778   9.205  12.333
30697SOL    HW193865   5.691   9.178  12.363
30697SOL    HW293866   5.800   9.142  12.264
30698SOL     OW93867   1.106  13.883  11.572
30698SOL    HW193868   1.084  13.833  11.651
30698SOL    HW293869   1.058  13.966  11.582
30699SOL     OW93870   1.320  12.631   9.926
30699SOL    HW193871   1.245  12.620   9.868
30699SOL    HW293872   1.328  12.546   9.971
30700SOL     OW93873   5.995   3.475   5.500
30700SOL    HW193874   6.002   3.551   5.557
30700SOL    HW293875   6.023   3.507   5.414
30701SOL     OW93876   1.445   2.911   1.575
30701SOL    HW193877   1.368   2.955   1.537
30701SOL    HW293878   1.488   2.979   1.627
30702SOL     OW93879   3.820   1.072   0.132
30702SOL    HW193880   3.844   1.110   0.216
30702SOL    HW293881   3.886   1.005   0.115
30703SOL     OW93882   7.970  10.472  11.702
30703SOL    HW193883   7.919  10.550  11.680
30703SOL    HW293884   8.005  10.490  11.789
30704SOL     OW93885   5.458   8.604   0.204
30704SOL    HW193886   5.390   8.537   0.196
30704SOL    HW293887   5.410   8.687   0.204
30705SOL     OW93888  12.333  12.951   9.851
30705SOL    HW193889  12.261  12.946   9.788
30705SOL    HW293890  12.314  12.880   9.914
30706SOL     OW93891   6.380   8.054   5.714
30706SOL    HW193892   6.451   8.110   5.684
30706SOL    HW293893   6.311   8.114   5.743
30707SOL     OW93894   2.632   7.478   2.210
30707SOL    HW193895   2.540   7.484   2.238
30707SOL    HW293896   2.653   7.385   2.217
30708SOL     OW93897   4.581   2.390   9.562
30708SOL    HW193898   4.493   2.351   9.554
30708SOL    HW293899   4.640   2.321   9.532
30709SOL     OW93900  12.306   6.158  13.197
30709SOL    HW193901  12.335   6.249  13.187
30709SOL    HW293902  12.309   6.122  13.108
30710SOL     OW93903  10.860   7.318   8.045
30710SOL    HW193904  10.875   7.318   7.950
30710SOL    HW293905  10.874   7.227   8.071
30711SOL     OW93906   1.296  14.510   6.254
30711SOL    HW193907   1.287  14.441   6.188
30711SOL    HW293908   1.215  14.503   6.306
30712SOL     OW93909   1.864   7.397   6.814
30712SOL    HW193910   1.931   7.335   6.843
30712SOL    HW293911   1.788   7.377   6.869
30713SOL     OW93912   1.429   3.539   6.140
30713SOL    HW193913   1.367   3.486   6.190
30713SOL    HW293914   1.515   3.509   6.168
30714SOL     OW93915  12.211  12.140  11.225
30714SOL    HW193916  12.213  12.100  11.312
30714SOL    HW293917  12.188  12.231  11.241
30715SOL     OW93918   2.797   2.514   4.425
30715SOL    HW193919   2.786   2.433   4.375
30715SOL    HW293920   2.766   2.583   4.367
30716SOL     OW93921   3.681   5.756   5.114
30716SOL    HW193922   3.772   5.780   5.100
30716SOL    HW293923   3.633   5.838   5.109
30717SOL     OW93924   5.174  12.930   0.166
30717SOL    HW193925   5.203  12.953   0.254
30717SOL    HW293926   5.214  12.996   0.110
30718SOL     OW93927  13.307   8.880   9.648
30718SOL    HW193928  13.234   8.830   9.612
30718SOL    HW293929  13.281   8.899   9.738
30719SOL     OW93930   7.307   4.588   1.515
30719SOL    HW193931   7.254   4.658   1.553
30719SOL    HW293932   7.317   4.612   1.423
30720SOL     OW93933  12.913   1.186   3.329
30720SOL    HW193934  12.832   1.177   3.278
30720SOL    HW293935  12.928   1.098   3.363
30721SOL     OW93936   6.797  13.445   6.405
30721SOL    HW193937   6.782  13.351   6.393
30721SOL    HW293938   6.766  13.485   6.324
30722SOL     OW93939   8.838  12.227   7.875
30722SOL    HW193940   8.768  12.190   7.822
30722SOL    HW293941   8.864  12.156   7.934
30723SOL     OW93942   7.581   0.451   4.029
30723SOL    HW193943   7.653   0.491   4.079
30723SOL    HW293944   7.625   0.400   3.961
30724SOL     OW93945   5.918   4.107   4.567
30724SOL    HW193946   5.896   4.014   4.561
30724SOL    HW293947   5.908   4.127   4.660
30725SOL     OW93948   4.023  11.011   0.207
30725SOL    HW193949   3.928  11.000   0.208
30725SOL    HW293950   4.045  11.041   0.295
30726SOL     OW93951   3.658  14.612   1.916
30726SOL    HW193952   3.632  14.635   1.826
30726SOL    HW293953   3.747  14.645   1.925
30727SOL     OW93954  11.595   7.899   6.171
30727SOL    HW193955  11.671   7.915   6.227
30727SOL    HW293956  11.527   7.867   6.231
30728SOL     OW93957   4.710   6.649   2.440
30728SOL    HW193958   4.737   6.647   2.348
30728SOL    HW293959   4.614   6.646   2.437
30729SOL     OW93960  11.573   3.936  10.202
30729SOL    HW193961  11.608   3.896  10.282
30729SOL    HW293962  11.648   3.982  10.164
30730SOL     OW93963  14.405   1.659   5.939
30730SOL    HW193964  14.326   1.617   5.974
30730SOL    HW293965  14.451   1.588   5.895
30731SOL     OW93966  11.695   5.050  11.758
30731SOL    HW193967  11.755   5.058  11.684
30731SOL    HW293968  11.619   5.102  11.734
30732SOL     OW93969   1.963   4.818   4.782
30732SOL    HW193970   1.920   4.873   4.848
30732SOL    HW293971   2.040   4.782   4.826
30733SOL     OW93972   7.910   3.570  10.003
30733SOL    HW193973   7.972   3.508  10.041
30733SOL    HW293974   7.909   3.644  10.064
30734SOL     OW93975   5.253   8.740   2.243
30734SOL    HW193976   5.218   8.783   2.321
30734SOL    HW293977   5.343   8.718   2.266
30735SOL     OW93978   0.335  13.699   7.628
30735SOL    HW193979   0.373  13.616   7.656
30735SOL    HW293980   0.368  13.712   7.539
30736SOL     OW93981   5.287   9.703  11.875
30736SOL    HW193982   5.329   9.757  11.942
30736SOL    HW293983   5.359   9.678  11.817
30737SOL     OW93984  13.643  11.943   6.204
30737SOL    HW193985  13.707  11.950   6.274
30737SOL    HW293986  13.695  11.922   6.126
30738SOL     OW93987   9.226  10.930   4.700
30738SOL    HW193988   9.222  11.012   4.749
30738SOL    HW293989   9.140  10.890   4.714
30739SOL     OW93990   3.670   2.131   3.193
30739SOL    HW193991   3.765   2.143   3.185
30739SOL    HW293992   3.654   2.131   3.288
30740SOL     OW93993   5.151   6.518   0.391
30740SOL    HW193994   5.060   6.492   0.411
30740SOL    HW293995   5.195   6.518   0.476
30741SOL     OW93996  10.503   1.008   3.511
30741SOL    HW193997  10.415   1.032   3.482
30741SOL    HW293998  10.528   1.078   3.572
30742SOL     OW93999   8.297   7.484  14.603
30742SOL    HW194000   8.328   7.526  14.683
30742SOL    HW294001   8.286   7.392  14.627
30743SOL     OW94002  13.791   9.791   6.372
30743SOL    HW194003  13.868   9.841   6.343
30743SOL    HW294004  13.716   9.843   6.344
30744SOL     OW94005   9.865   0.983   8.931
30744SOL    HW194006   9.787   0.945   8.892
30744SOL    HW294007   9.843   0.994   9.024
30745SOL     OW94008   2.555  13.248   0.293
30745SOL    HW194009   2.603  13.329   0.309
30745SOL    HW294010   2.617  13.179   0.314
30746SOL     OW94011  13.778   1.184   2.329
30746SOL    HW194012  13.802   1.272   2.301
30746SOL    HW294013  13.823   1.126   2.268
30747SOL     OW94014   3.237  12.842   4.207
30747SOL    HW194015   3.213  12.810   4.119
30747SOL    HW294016   3.298  12.913   4.191
30748SOL     OW94017   3.890   5.766   7.452
30748SOL    HW194018   3.957   5.830   7.430
30748SOL    HW294019   3.851   5.742   7.368
30749SOL     OW94020   4.270   6.460   6.399
30749SOL    HW194021   4.283   6.429   6.489
30749SOL    HW294022   4.177   6.443   6.381
30750SOL     OW94023   2.042  14.482   6.890
30750SOL    HW194024   1.999  14.501   6.807
30750SOL    HW294025   2.016  14.555   6.947
30751SOL     OW94026   1.057  13.598   9.468
30751SOL    HW194027   1.101  13.514   9.482
30751SOL    HW294028   1.057  13.640   9.554
30752SOL     OW94029   3.361   4.056  10.010
30752SOL    HW194030   3.311   4.051   9.928
30752SOL    HW294031   3.390   4.147  10.015
30753SOL     OW94032  12.365   9.944   0.975
30753SOL    HW194033  12.379  10.009   0.906
30753SOL    HW294034  12.270   9.947   0.991
30754SOL     OW94035  11.696   9.859   2.191
30754SOL    HW194036  11.735   9.781   2.152
30754SOL    HW294037  11.732   9.861   2.280
30755SOL     OW94038  13.949   9.445  14.156
30755SOL    HW194039  13.900   9.372  14.120
30755SOL    HW294040  13.919   9.452  14.247
30756SOL     OW94041   6.693   9.878   4.689
30756SOL    HW194042   6.724   9.789   4.674
30756SOL    HW294043   6.603   9.877   4.656
30757SOL     OW94044   8.043  10.537   4.190
30757SOL    HW194045   8.036  10.555   4.284
30757SOL    HW294046   8.120  10.586   4.162
30758SOL     OW94047   6.490  11.202   6.156
30758SOL    HW194048   6.582  11.197   6.181
30758SOL    HW294049   6.444  11.223   6.237
30759SOL     OW94050  10.151  13.486  10.965
30759SOL    HW194051  10.157  13.511  11.057
30759SOL    HW294052  10.112  13.398  10.967
30760SOL     OW94053   1.415   9.432   6.304
30760SOL    HW194054   1.347   9.497   6.322
30760SOL    HW294055   1.479   9.480   6.250
30761SOL     OW94056   8.327   2.626   6.977
30761SOL    HW194057   8.362   2.623   6.888
30761SOL    HW294058   8.399   2.658   7.030
30762SOL     OW94059   6.809   9.746   1.022
30762SOL    HW194060   6.892   9.771   1.065
30762SOL    HW294061   6.749   9.818   1.043
30763SOL     OW94062  11.338   0.960   6.498
30763SOL    HW194063  11.404   0.893   6.511
30763SOL    HW294064  11.341   0.981   6.405
30764SOL     OW94065   2.880  10.799   8.066
30764SOL    HW194066   2.897  10.713   8.106
30764SOL    HW294067   2.786  10.800   8.051
30765SOL     OW94068  13.006   1.051  11.950
30765SOL    HW194069  12.981   1.134  11.910
30765SOL    HW294070  13.080   1.020  11.898
30766SOL     OW94071   6.521   3.608   2.689
30766SOL    HW194072   6.555   3.612   2.778
30766SOL    HW294073   6.449   3.545   2.694
30767SOL     OW94074  10.892   7.744  10.268
30767SOL    HW194075  10.871   7.837  10.271
30767SOL    HW294076  10.875   7.712  10.357
30768SOL     OW94077  10.130   7.939   7.512
30768SOL    HW194078  10.084   7.876   7.567
30768SOL    HW294079  10.108   7.914   7.422
30769SOL     OW94080   4.102  14.587   0.532
30769SOL    HW194081   4.090  14.681   0.521
30769SOL    HW294082   4.074  14.550   0.448
30770SOL     OW94083   8.114   1.019   1.847
30770SOL    HW194084   8.123   0.949   1.781
30770SOL    HW294085   8.055   0.982   1.913
30771SOL     OW94086  14.838   8.470  14.830
30771SOL    HW194087   0.036   8.486   0.010
30771SOL    HW294088  14.855   8.384  14.792
30772SOL     OW94089  11.007  14.559   8.982
30772SOL    HW194090  10.913  14.560   8.963
30772SOL    HW294091  11.012  14.568   9.077
30773SOL     OW94092   0.853   5.269   7.413
30773SOL    HW194093   0.814   5.274   7.500
30773SOL    HW294094   0.880   5.359   7.394
30774SOL     OW94095   9.421   4.705   0.309
30774SOL    HW194096   9.504   4.674   0.346
30774SOL    HW294097   9.370   4.625   0.296
30775SOL     OW94098  12.414   7.020   4.334
30775SOL    HW194099  12.387   7.106   4.367
30775SOL    HW294100  12.359   6.957   4.382
30776SOL     OW94101   1.949  10.939   0.244
30776SOL    HW194102   1.986  11.027   0.245
30776SOL    HW294103   1.882  10.941   0.175
30777SOL     OW94104   5.705   5.693  13.283
30777SOL    HW194105   5.647   5.752  13.331
30777SOL    HW294106   5.732   5.742  13.206
30778SOL     OW94107  13.671   9.605   6.948
30778SOL    HW194108  13.648   9.661   6.874
30778SOL    HW294109  13.665   9.516   6.913
30779SOL     OW94110   4.589   6.333   6.131
30779SOL    HW194111   4.510   6.367   6.089
30779SOL    HW294112   4.660   6.363   6.074
30780SOL     OW94113   6.576  12.462  12.535
30780SOL    HW194114   6.616  12.413  12.606
30780SOL    HW294115   6.646  12.521  12.505
30781SOL     OW94116   0.441   3.690  13.158
30781SOL    HW194117   0.401   3.761  13.106
30781SOL    HW294118   0.387   3.613  13.139
30782SOL     OW94119   1.881  11.213   4.009
30782SOL    HW194120   1.946  11.252   4.066
30782SOL    HW294121   1.892  11.119   4.020
30783SOL     OW94122   1.603  11.202  13.524
30783SOL    HW194123   1.577  11.111  13.541
30783SOL    HW294124   1.696  11.197  13.503
30784SOL     OW94125   0.086   4.570   6.981
30784SOL    HW194126   0.013   4.582   7.041
30784SOL    HW294127   0.073   4.637   6.913
30785SOL     OW94128  13.991  11.764   4.036
30785SOL    HW194129  14.045  11.808   4.102
30785SOL    HW294130  14.042  11.770   3.955
30786SOL     OW94131   9.085   9.839  10.075
30786SOL    HW194132   9.046   9.813  10.158
30786SOL    HW294133   9.100   9.933  10.083
30787SOL     OW94134   1.741  12.752   4.566
30787SOL    HW194135   1.797  12.811   4.616
30787SOL    HW294136   1.694  12.809   4.505
30788SOL     OW94137   4.351  11.150  13.173
30788SOL    HW194138   4.386  11.239  13.169
30788SOL    HW294139   4.385  11.114  13.254
30789SOL     OW94140  10.342  11.903  14.200
30789SOL    HW194141  10.310  11.955  14.127
30789SOL    HW294142  10.348  11.964  14.273
30790SOL     OW94143   9.838   9.568   4.734
30790SOL    HW194144   9.825   9.590   4.641
30790SOL    HW294145   9.914   9.510   4.734
30791SOL     OW94146   3.276   6.719   5.583
30791SOL    HW194147   3.319   6.804   5.572
30791SOL    HW294148   3.184   6.736   5.564
30792SOL     OW94149   7.321   6.831   8.150
30792SOL    HW194150   7.281   6.745   8.142
30792SOL    HW294151   7.409   6.814   8.184
30793SOL     OW94152   9.785   2.899  11.628
30793SOL    HW194153   9.864   2.898  11.573
30793SOL    HW294154   9.724   2.841  11.582
30794SOL     OW94155  11.660   2.337  13.189
30794SOL    HW194156  11.698   2.394  13.122
30794SOL    HW294157  11.713   2.354  13.267
30795SOL     OW94158   3.293   3.142   0.541
30795SOL    HW194159   3.247   3.203   0.483
30795SOL    HW294160   3.339   3.199   0.603
30796SOL     OW94161   0.874  13.751  14.589
30796SOL    HW194162   0.934  13.693  14.635
30796SOL    HW294163   0.816  13.692  14.540
30797SOL     OW94164   2.454   9.101   5.548
30797SOL    HW194165   2.434   9.048   5.624
30797SOL    HW294166   2.522   9.053   5.502
30798SOL     OW94167  12.036  11.994   9.600
30798SOL    HW194168  11.999  11.928   9.542
30798SOL    HW294169  12.044  12.072   9.546
30799SOL     OW94170   1.531   3.186   7.393
30799SOL    HW194171   1.583   3.120   7.439
30799SOL    HW294172   1.594   3.231   7.336
30800SOL     OW94173  13.676  10.913  13.755
30800SOL    HW194174  13.687  11.007  13.744
30800SOL    HW294175  13.680  10.878  13.666
30801SOL     OW94176  12.219   3.826   4.503
30801SOL    HW194177  12.257   3.862   4.583
30801SOL    HW294178  12.128   3.808   4.526
30802SOL     OW94179   5.668  14.611  13.714
30802SOL    HW194180   5.710  14.690  13.679
30802SOL    HW294181   5.653  14.556  13.638
30803SOL     OW94182  13.601   4.544  11.616
30803SOL    HW194183  13.505   4.542  11.611
30803SOL    HW294184  13.624   4.633  11.588
30804SOL     OW94185   3.059   8.551   9.869
30804SOL    HW194186   3.041   8.586   9.956
30804SOL    HW294187   3.027   8.619   9.809
30805SOL     OW94188   1.006   0.341   1.583
30805SOL    HW194189   0.938   0.339   1.650
30805SOL    HW294190   1.087   0.325   1.630
30806SOL     OW94191   1.100   4.875   3.998
30806SOL    HW194192   1.102   4.953   3.943
30806SOL    HW294193   1.092   4.802   3.936
30807SOL     OW94194   8.179   4.301   0.714
30807SOL    HW194195   8.144   4.217   0.743
30807SOL    HW294196   8.224   4.337   0.791
30808SOL     OW94197   3.328   1.620   6.310
30808SOL    HW194198   3.237   1.651   6.311
30808SOL    HW294199   3.326   1.542   6.254
30809SOL     OW94200   2.667   0.822  10.894
30809SOL    HW194201   2.733   0.889  10.879
30809SOL    HW294202   2.701   0.770  10.967
30810SOL     OW94203   0.498  10.540   9.744
30810SOL    HW194204   0.487  10.447   9.723
30810SOL    HW294205   0.448  10.553   9.824
30811SOL     OW94206   1.516   5.090   9.968
30811SOL    HW194207   1.580   5.041  10.018
30811SOL    HW294208   1.472   5.025   9.914
30812SOL     OW94209   7.958  10.667   9.000
30812SOL    HW194210   8.013  10.743   8.984
30812SOL    HW294211   7.965  10.650   9.094
30813SOL     OW94212  14.610   9.681   4.697
30813SOL    HW194213  14.563   9.598   4.693
30813SOL    HW294214  14.674   9.668   4.767
30814SOL     OW94215   2.469   5.100   6.086
30814SOL    HW194216   2.436   5.019   6.126
30814SOL    HW294217   2.396   5.162   6.094
30815SOL     OW94218   2.660   8.693   8.662
30815SOL    HW194219   2.655   8.789   8.667
30815SOL    HW294220   2.639   8.673   8.571
30816SOL     OW94221   8.365   5.118  13.998
30816SOL    HW194222   8.375   5.023  13.989
30816SOL    HW294223   8.334   5.147  13.913
30817SOL     OW94224   9.827   7.020   5.632
30817SOL    HW194225   9.911   7.062   5.652
30817SOL    HW294226   9.839   6.929   5.658
30818SOL     OW94227   1.593   5.691   0.935
30818SOL    HW194228   1.598   5.731   0.848
30818SOL    HW294229   1.647   5.613   0.929
30819SOL     OW94230   9.208   0.470  11.493
30819SOL    HW194231   9.268   0.542  11.473
30819SOL    HW294232   9.127   0.494  11.448
30820SOL     OW94233   0.707  13.135   0.827
30820SOL    HW194234   0.782  13.144   0.768
30820SOL    HW294235   0.680  13.044   0.818
30821SOL     OW94236   6.672   1.045   5.577
30821SOL    HW194237   6.600   1.101   5.605
30821SOL    HW294238   6.736   1.105   5.538
30822SOL     OW94239   9.068   0.806   8.878
30822SOL    HW194240   9.076   0.738   8.944
30822SOL    HW294241   8.976   0.832   8.882
30823SOL     OW94242   0.789   4.804  12.139
30823SOL    HW194243   0.768   4.855  12.061
30823SOL    HW294244   0.883   4.787  12.132
30824SOL     OW94245   7.713  13.304   2.805
30824SOL    HW194246   7.661  13.372   2.762
30824SOL    HW294247   7.802  13.321   2.776
30825SOL     OW94248   2.427   0.107  12.130
30825SOL    HW194249   2.360   0.115  12.198
30825SOL    HW294250   2.378   0.112  12.048
30826SOL     OW94251  11.512   5.526   8.865
30826SOL    HW194252  11.480   5.476   8.789
30826SOL    HW294253  11.457   5.604   8.866
30827SOL     OW94254   8.440   5.439   1.556
30827SOL    HW194255   8.527   5.419   1.591
30827SOL    HW294256   8.395   5.354   1.556
30828SOL     OW94257  12.307   2.477  13.041
30828SOL    HW194258  12.285   2.546  12.978
30828SOL    HW294259  12.236   2.413  13.031
30829SOL     OW94260   7.976   5.989  12.677
30829SOL    HW194261   7.992   6.079  12.650
30829SOL    HW294262   7.886   5.988  12.708
30830SOL     OW94263  11.880   3.630  11.135
30830SOL    HW194264  11.931   3.576  11.195
30830SOL    HW294265  11.887   3.719  11.169
30831SOL     OW94266   7.746   4.931  14.170
30831SOL    HW194267   7.666   4.879  14.160
30831SOL    HW294268   7.792   4.889  14.243
30832SOL     OW94269  14.210   5.971  11.218
30832SOL    HW194270  14.128   5.925  11.236
30832SOL    HW294271  14.235   5.942  11.131
30833SOL     OW94272   5.823   6.317   0.677
30833SOL    HW194273   5.768   6.387   0.714
30833SOL    HW294274   5.811   6.243   0.737
30834SOL     OW94275   4.428  12.725   9.760
30834SOL    HW194276   4.408  12.633   9.781
30834SOL    HW294277   4.349  12.773   9.783
30835SOL     OW94278   1.015  13.149   9.381
30835SOL    HW194279   1.051  13.107   9.303
30835SOL    HW294280   0.957  13.083   9.419
30836SOL     OW94281   3.835   9.114   7.373
30836SOL    HW194282   3.923   9.092   7.342
30836SOL    HW294283   3.779   9.045   7.338
30837SOL     OW94284   1.435   8.980   5.928
30837SOL    HW194285   1.349   8.947   5.955
30837SOL    HW294286   1.482   8.994   6.011
30838SOL     OW94287  11.754  12.293   8.746
30838SOL    HW194288  11.778  12.385   8.741
30838SOL    HW294289  11.664  12.293   8.779
30839SOL     OW94290  11.029   7.062   1.064
30839SOL    HW194291  10.996   6.972   1.063
30839SOL    HW294292  10.972   7.110   1.003
30840SOL     OW94293   9.908   3.973   2.168
30840SOL    HW194294   9.820   3.940   2.150
30840SOL    HW294295   9.955   3.898   2.204
30841SOL     OW94296   3.973  11.971  13.611
30841SOL    HW194297   3.899  12.004  13.662
30841SOL    HW294298   3.964  12.013  13.526
30842SOL     OW94299   4.535   1.103   8.724
30842SOL    HW194300   4.559   1.083   8.634
30842SOL    HW294301   4.455   1.154   8.717
30843SOL     OW94302   8.615  13.808   3.375
30843SOL    HW194303   8.652  13.851   3.297
30843SOL    HW294304   8.568  13.733   3.340
30844SOL     OW94305  13.189   5.755   1.375
30844SOL    HW194306  13.238   5.831   1.346
30844SOL    HW294307  13.251   5.682   1.369
30845SOL     OW94308   9.337   2.326   1.145
30845SOL    HW194309   9.315   2.240   1.111
30845SOL    HW294310   9.426   2.318   1.178
30846SOL     OW94311   4.335   9.737   8.549
30846SOL    HW194312   4.423   9.722   8.581
30846SOL    HW294313   4.333   9.831   8.528
30847SOL     OW94314  11.548   4.250   5.465
30847SOL    HW194315  11.612   4.197   5.418
30847SOL    HW294316  11.476   4.190   5.484
30848SOL     OW94317   1.266  13.035  11.200
30848SOL    HW194318   1.203  12.972  11.165
30848SOL    HW294319   1.349  13.012  11.158
30849SOL     OW94320  12.879  10.616   6.593
30849SOL    HW194321  12.856  10.701   6.554
30849SOL    HW294322  12.819  10.554   6.552
30850SOL     OW94323   7.035   5.416  12.661
30850SOL    HW194324   7.122   5.438  12.626
30850SOL    HW294325   6.997   5.358  12.595
30851SOL     OW94326   8.461   4.791  13.375
30851SOL    HW194327   8.454   4.831  13.461
30851SOL    HW294328   8.370   4.778  13.347
30852SOL     OW94329  14.510   4.197   1.288
30852SOL    HW194330  14.415   4.200   1.289
30852SOL    HW294331  14.536   4.279   1.244
30853SOL     OW94332  11.158   3.408   3.502
30853SOL    HW194333  11.200   3.480   3.550
30853SOL    HW294334  11.067   3.411   3.530
30854SOL     OW94335  12.986   7.533   7.896
30854SOL    HW194336  13.010   7.533   7.989
30854SOL    HW294337  12.900   7.575   7.894
30855SOL     OW94338   1.426   3.222   7.745
30855SOL    HW194339   1.404   3.281   7.817
30855SOL    HW294340   1.343   3.208   7.699
30856SOL     OW94341   1.111   7.654   9.525
30856SOL    HW194342   1.055   7.720   9.565
30856SOL    HW294343   1.084   7.572   9.567
30857SOL     OW94344   4.934  13.456  12.133
30857SOL    HW194345   5.017  13.444  12.087
30857SOL    HW294346   4.898  13.368  12.143
30858SOL     OW94347  13.875   3.871  12.977
30858SOL    HW194348  13.934   3.862  12.902
30858SOL    HW294349  13.789   3.888  12.938
30859SOL     OW94350   3.641   7.039   1.983
30859SOL    HW194351   3.657   7.128   1.952
30859SOL    HW294352   3.728   7.007   2.007
30860SOL     OW94353   8.709   1.299  14.699
30860SOL    HW194354   8.780   1.341  14.748
30860SOL    HW294355   8.659   1.372  14.662
30861SOL     OW94356   9.063   1.842   8.307
30861SOL    HW194357   9.125   1.769   8.318
30861SOL    HW294358   9.030   1.859   8.395
30862SOL     OW94359   9.141   4.228   6.389
30862SOL    HW194360   9.191   4.209   6.469
30862SOL    HW294361   9.160   4.320   6.370
30863SOL     OW94362  13.572  10.564   1.687
30863SOL    HW194363  13.490  10.591   1.646
30863SOL    HW294364  13.630  10.542   1.613
30864SOL     OW94365   3.715  12.731  12.401
30864SOL    HW194366   3.761  12.798  12.451
30864SOL    HW294367   3.759  12.649  12.425
30865SOL     OW94368   6.333  10.175   8.549
30865SOL    HW194369   6.376  10.186   8.634
30865SOL    HW294370   6.253  10.126   8.569
30866SOL     OW94371   2.982  10.522   5.890
30866SOL    HW194372   2.948  10.604   5.926
30866SOL    HW294373   3.054  10.549   5.833
30867SOL     OW94374   9.802  13.010   7.107
30867SOL    HW194375   9.816  13.099   7.074
30867SOL    HW294376   9.719  13.015   7.154
30868SOL     OW94377   9.452  11.293  10.625
30868SOL    HW194378   9.364  11.257  10.636
30868SOL    HW294379   9.510  11.227  10.663
30869SOL     OW94380   5.234   3.338   9.492
30869SOL    HW194381   5.146   3.351   9.458
30869SOL    HW294382   5.223   3.329   9.586
30870SOL     OW94383   2.899   4.215   7.811
30870SOL    HW194384   2.932   4.216   7.721
30870SOL    HW294385   2.805   4.198   7.802
30871SOL     OW94386  11.889   3.894   1.861
30871SOL    HW194387  11.959   3.951   1.831
30871SOL    HW294388  11.922   3.805   1.847
30872SOL     OW94389  13.226   0.972   3.318
30872SOL    HW194390  13.187   0.986   3.232
30872SOL    HW294391  13.282   1.049   3.332
30873SOL     OW94392  11.675  10.061   7.306
30873SOL    HW194393  11.686  10.100   7.393
30873SOL    HW294394  11.656  10.135   7.249
30874SOL     OW94395   6.769   7.480   0.842
30874SOL    HW194396   6.675   7.495   0.848
30874SOL    HW294397   6.808   7.559   0.879
30875SOL     OW94398   2.764  14.156   4.739
30875SOL    HW194399   2.724  14.137   4.824
30875SOL    HW294400   2.843  14.102   4.737
30876SOL     OW94401   4.775   7.074   6.792
30876SOL    HW194402   4.709   7.122   6.740
30876SOL    HW294403   4.827   7.027   6.727
30877SOL     OW94404  12.547  11.445   0.676
30877SOL    HW194405  12.458  11.409   0.675
30877SOL    HW294406  12.600  11.374   0.712
30878SOL     OW94407   2.765   6.326   6.820
30878SOL    HW194408   2.755   6.366   6.906
30878SOL    HW294409   2.815   6.245   6.836
30879SOL     OW94410   3.921   2.036   5.414
30879SOL    HW194411   3.864   1.991   5.353
30879SOL    HW294412   3.886   2.125   5.419
30880SOL     OW94413   3.596   3.983   6.289
30880SOL    HW194414   3.629   4.066   6.256
30880SOL    HW294415   3.578   3.999   6.381
30881SOL     OW94416   7.300  10.102   3.527
30881SOL    HW194417   7.303  10.148   3.443
30881SOL    HW294418   7.220  10.051   3.524
30882SOL     OW94419   0.088  14.651   6.099
30882SOL    HW194420   0.100  14.650   6.004
30882SOL    HW294421   0.072  14.744   6.120
30883SOL     OW94422   4.175   9.427   4.275
30883SOL    HW194423   4.082   9.440   4.259
30883SOL    HW294424   4.181   9.405   4.367
30884SOL     OW94425   2.158   0.434  12.439
30884SOL    HW194426   2.205   0.455  12.358
30884SOL    HW294427   2.140   0.519  12.479
30885SOL     OW94428   4.024  12.271   6.917
30885SOL    HW194429   3.982  12.356   6.907
30885SOL    HW294430   4.060  12.252   6.830
30886SOL     OW94431   7.653  14.332   8.549
30886SOL    HW194432   7.734  14.347   8.500
30886SOL    HW294433   7.597  14.405   8.524
30887SOL     OW94434   6.354   6.764   2.155
30887SOL    HW194435   6.352   6.811   2.239
30887SOL    HW294436   6.321   6.828   2.092
30888SOL     OW94437   3.791   0.683   1.640
30888SOL    HW194438   3.801   0.777   1.656
30888SOL    HW294439   3.698   0.671   1.623
30889SOL     OW94440   4.775  10.781   5.127
30889SOL    HW194441   4.732  10.800   5.044
30889SOL    HW294442   4.842  10.849   5.135
30890SOL     OW94443  10.969   7.358  12.873
30890SOL    HW194444  10.908   7.401  12.933
30890SOL    HW294445  10.985   7.423  12.805
30891SOL     OW94446   2.726   4.501   2.534
30891SOL    HW194447   2.729   4.437   2.463
30891SOL    HW294448   2.656   4.470   2.591
30892SOL     OW94449  13.452  12.028   9.895
30892SOL    HW194450  13.520  12.008   9.960
30892SOL    HW294451  13.480  12.111   9.856
30893SOL     OW94452   0.675   7.138  14.178
30893SOL    HW194453   0.672   7.138  14.274
30893SOL    HW294454   0.602   7.081  14.152
30894SOL     OW94455   2.205   9.248  14.219
30894SOL    HW194456   2.253   9.242  14.136
30894SOL    HW294457   2.176   9.339  14.223
30895SOL     OW94458  12.943   7.792   7.509
30895SOL    HW194459  12.861   7.815   7.465
30895SOL    HW294460  12.981   7.722   7.455
30896SOL     OW94461   9.629  12.069   6.281
30896SOL    HW194462   9.594  12.120   6.354
30896SOL    HW294463   9.573  11.991   6.277
30897SOL     OW94464  12.839  14.570   5.675
30897SOL    HW194465  12.914  14.510   5.669
30897SOL    HW294466  12.843  14.620   5.593
30898SOL     OW94467  10.461   7.246   7.257
30898SOL    HW194468  10.431   7.161   7.291
30898SOL    HW294469  10.532   7.225   7.197
30899SOL     OW94470  14.720   8.947  11.135
30899SOL    HW194471  14.786   9.013  11.113
30899SOL    HW294472  14.660   8.947  11.061
30900SOL     OW94473   5.415  11.005  11.877
30900SOL    HW194474   5.437  11.052  11.797
30900SOL    HW294475   5.453  10.918  11.865
30901SOL     OW94476   0.420   2.190   7.612
30901SOL    HW194477   0.445   2.124   7.677
30901SOL    HW294478   0.403   2.269   7.662
30902SOL     OW94479  14.507  11.337   0.508
30902SOL    HW194480  14.469  11.394   0.575
30902SOL    HW294481  14.526  11.396   0.435
30903SOL     OW94482   9.977   3.958  11.658
30903SOL    HW194483   9.910   4.005  11.608
30903SOL    HW294484  10.035   3.922  11.592
30904SOL     OW94485  13.087  14.554  12.524
30904SOL    HW194486  13.015  14.564  12.587
30904SOL    HW294487  13.142  14.485  12.562
30905SOL     OW94488   4.646  13.679   1.782
30905SOL    HW194489   4.705  13.731   1.837
30905SOL    HW294490   4.627  13.601   1.835
30906SOL     OW94491   4.815  13.175   0.088
30906SOL    HW194492   4.861  13.260   0.090
30906SOL    HW294493   4.873  13.117   0.137
30907SOL     OW94494   5.343  11.650   1.012
30907SOL    HW194495   5.281  11.679   0.946
30907SOL    HW294496   5.404  11.723   1.022
30908SOL     OW94497   0.274  13.072   2.225
30908SOL    HW194498   0.229  13.099   2.305
30908SOL    HW294499   0.346  13.017   2.255
30909SOL     OW94500  13.498   8.746   8.688
30909SOL    HW194501  13.499   8.842   8.686
30909SOL    HW294502  13.452   8.721   8.608
30910SOL     OW94503   6.201   5.311  10.993
30910SOL    HW194504   6.207   5.391  10.941
30910SOL    HW294505   6.107   5.297  11.005
30911SOL     OW94506   9.330  10.964   9.842
30911SOL    HW194507   9.265  10.943   9.774
30911SOL    HW294508   9.382  11.034   9.805
30912SOL     OW94509  14.692  13.820   1.233
30912SOL    HW194510  14.748  13.822   1.156
30912SOL    HW294511  14.674  13.727   1.247
30913SOL     OW94512   6.664   8.082  12.902
30913SOL    HW194513   6.622   8.053  12.821
30913SOL    HW294514   6.646   8.176  12.906
30914SOL     OW94515  11.309  11.152  13.173
30914SOL    HW194516  11.397  11.115  13.179
30914SOL    HW294517  11.263  11.115  13.249
30915SOL     OW94518   5.324   3.973   5.265
30915SOL    HW194519   5.230   3.974   5.250
30915SOL    HW294520   5.347   4.064   5.284
30916SOL     OW94521  14.048   4.531   5.955
30916SOL    HW194522  14.049   4.594   6.027
30916SOL    HW294523  13.968   4.480   5.970
30917SOL     OW94524   5.910  11.179  14.022
30917SOL    HW194525   5.988  11.186  14.076
30917SOL    HW294526   5.875  11.092  14.041
30918SOL     OW94527  14.323   3.587   7.131
30918SOL    HW194528  14.290   3.567   7.044
30918SOL    HW294529  14.246   3.616   7.180
30919SOL     OW94530  14.211   0.679   5.705
30919SOL    HW194531  14.165   0.707   5.626
30919SOL    HW294532  14.292   0.639   5.673
30920SOL     OW94533   1.147   7.822  13.671
30920SOL    HW194534   1.158   7.877  13.594
30920SOL    HW294535   1.208   7.750  13.658
30921SOL     OW94536   1.524   0.494  11.325
30921SOL    HW194537   1.618   0.490  11.307
30921SOL    HW294538   1.487   0.537  11.248
30922SOL     OW94539  13.031   1.687   8.376
30922SOL    HW194540  12.986   1.643   8.304
30922SOL    HW294541  12.961   1.712   8.436
30923SOL     OW94542  13.174   0.347  14.668
30923SOL    HW194543  13.268   0.344  14.652
30923SOL    HW294544  13.151   0.439  14.664
30924SOL     OW94545   9.108   2.695  10.723
30924SOL    HW194546   9.108   2.656  10.810
30924SOL    HW294547   9.016   2.697  10.697
30925SOL     OW94548   3.039  12.200   2.472
30925SOL    HW194549   3.083  12.156   2.544
30925SOL    HW294550   3.109  12.245   2.424
30926SOL     OW94551  11.053   8.446  11.186
30926SOL    HW194552  11.067   8.525  11.134
30926SOL    HW294553  11.110   8.381  11.146
30927SOL     OW94554   2.110   5.474   3.207
30927SOL    HW194555   2.203   5.471   3.228
30927SOL    HW294556   2.066   5.477   3.292
30928SOL     OW94557   8.825  12.972   8.865
30928SOL    HW194558   8.862  13.019   8.940
30928SOL    HW294559   8.738  13.008   8.853
30929SOL     OW94560  14.429   1.320  14.667
30929SOL    HW194561  14.390   1.235  14.691
30929SOL    HW294562  14.354   1.375  14.644
30930SOL     OW94563   3.005   6.409  10.901
30930SOL    HW194564   3.093   6.445  10.903
30930SOL    HW294565   2.999   6.355  10.980
30931SOL     OW94566   7.597   8.803  14.777
30931SOL    HW194567   7.599   8.797  14.873
30931SOL    HW294568   7.507   8.777  14.754
30932SOL     OW94569  12.559   7.660   9.018
30932SOL    HW194570  12.537   7.569   9.037
30932SOL    HW294571  12.491   7.689   8.956
30933SOL     OW94572   9.470   4.741   5.232
30933SOL    HW194573   9.530   4.805   5.194
30933SOL    HW294574   9.526   4.668   5.259
30934SOL     OW94575   5.179   3.040   9.099
30934SOL    HW194576   5.128   2.962   9.074
30934SOL    HW294577   5.269   3.009   9.103
30935SOL     OW94578   7.488   0.627   3.738
30935SOL    HW194579   7.394   0.610   3.728
30935SOL    HW294580   7.514   0.575   3.814
30936SOL     OW94581   3.779  11.412   5.624
30936SOL    HW194582   3.732  11.371   5.697
30936SOL    HW294583   3.846  11.348   5.600
30937SOL     OW94584  12.902  10.892   7.838
30937SOL    HW194585  12.869  10.867   7.925
30937SOL    HW294586  12.991  10.925   7.855
30938SOL     OW94587   7.237  14.432   8.090
30938SOL    HW194588   7.184  14.493   8.039
30938SOL    HW294589   7.173  14.380   8.139
30939SOL     OW94590   9.774  13.947   8.866
30939SOL    HW194591   9.703  13.953   8.929
30939SOL    HW294592   9.821  13.868   8.890
30940SOL     OW94593   8.742   7.047   5.124
30940SOL    HW194594   8.754   7.141   5.105
30940SOL    HW294595   8.815   7.005   5.080
30941SOL     OW94596  12.404   2.601   1.620
30941SOL    HW194597  12.391   2.546   1.698
30941SOL    HW294598  12.430   2.539   1.551
30942SOL     OW94599   7.681  11.475  12.233
30942SOL    HW194600   7.611  11.540  12.225
30942SOL    HW294601   7.751  11.522  12.281
30943SOL     OW94602  14.679   1.707  13.605
30943SOL    HW194603  14.666   1.616  13.580
30943SOL    HW294604  14.624   1.719  13.683
30944SOL     OW94605  13.348   8.011   5.164
30944SOL    HW194606  13.355   7.930   5.214
30944SOL    HW294607  13.408   7.999   5.091
30945SOL     OW94608   9.302   5.107   6.658
30945SOL    HW194609   9.224   5.163   6.661
30945SOL    HW294610   9.373   5.163   6.688
30946SOL     OW94611   4.715   6.820   7.120
30946SOL    HW194612   4.634   6.861   7.151
30946SOL    HW294613   4.704   6.727   7.141
30947SOL     OW94614   9.580   5.464   8.757
30947SOL    HW194615   9.656   5.522   8.759
30947SOL    HW294616   9.529   5.488   8.835
30948SOL     OW94617  10.521   9.201   1.280
30948SOL    HW194618  10.545   9.147   1.356
30948SOL    HW294619  10.594   9.188   1.219
30949SOL     OW94620   1.566   3.809   2.363
30949SOL    HW194621   1.501   3.815   2.293
30949SOL    HW294622   1.550   3.887   2.418
30950SOL     OW94623   5.145  12.954   2.921
30950SOL    HW194624   5.207  12.895   2.962
30950SOL    HW294625   5.061  12.934   2.963
30951SOL     OW94626   9.273   6.073  14.164
30951SOL    HW194627   9.208   6.007  14.141
30951SOL    HW294628   9.240   6.111  14.246
30952SOL     OW94629   8.744  12.256  10.134
30952SOL    HW194630   8.712  12.338  10.170
30952SOL    HW294631   8.727  12.191  10.203
30953SOL     OW94632   1.515   0.629  11.068
30953SOL    HW194633   1.453   0.700  11.052
30953SOL    HW294634   1.600   0.664  11.041
30954SOL     OW94635   4.507   2.632   4.740
30954SOL    HW194636   4.565   2.585   4.800
30954SOL    HW294637   4.443   2.674   4.797
30955SOL     OW94638   0.101   2.255   8.449
30955SOL    HW194639   0.144   2.313   8.511
30955SOL    HW294640   0.017   2.297   8.431
30956SOL     OW94641   3.214  14.025   8.524
30956SOL    HW194642   3.257  14.042   8.608
30956SOL    HW294643   3.177  14.109   8.498
30957SOL     OW94644  12.231   9.217   1.843
30957SOL    HW194645  12.314   9.206   1.797
30957SOL    HW294646  12.212   9.130   1.880
30958SOL     OW94647   5.597   8.868   2.862
30958SOL    HW194648   5.560   8.935   2.805
30958SOL    HW294649   5.591   8.905   2.950
30959SOL     OW94650   5.903   6.192   9.411
30959SOL    HW194651   5.897   6.163   9.320
30959SOL    HW294652   5.990   6.164   9.440
30960SOL     OW94653   2.037  14.337   4.422
30960SOL    HW194654   2.128  14.318   4.444
30960SOL    HW294655   1.998  14.251   4.405
30961SOL     OW94656   6.772   0.342   4.427
30961SOL    HW194657   6.806   0.394   4.354
30961SOL    HW294658   6.690   0.385   4.451
30962SOL     OW94659   5.814  10.923   3.712
30962SOL    HW194660   5.719  10.925   3.727
30962SOL    HW294661   5.852  10.956   3.793
30963SOL     OW94662   8.195   8.595   9.396
30963SOL    HW194663   8.223   8.677   9.437
30963SOL    HW294664   8.199   8.531   9.467
30964SOL     OW94665   5.010   9.115   0.896
30964SOL    HW194666   5.047   9.194   0.936
30964SOL    HW294667   4.939   9.147   0.841
30965SOL     OW94668   0.937   6.889   2.877
30965SOL    HW194669   0.905   6.924   2.961
30965SOL    HW294670   0.865   6.835   2.845
30966SOL     OW94671  10.188  13.638   6.943
30966SOL    HW194672  10.260  13.590   6.901
30966SOL    HW294673  10.109  13.602   6.904
30967SOL     OW94674   8.803  12.140   4.081
30967SOL    HW194675   8.825  12.054   4.115
30967SOL    HW294676   8.722  12.127   4.032
30968SOL     OW94677   0.887   8.333   1.808
30968SOL    HW194678   0.912   8.410   1.756
30968SOL    HW294679   0.792   8.326   1.796
30969SOL     OW94680  13.910   3.408  12.474
30969SOL    HW194681  13.926   3.440  12.562
30969SOL    HW294682  13.903   3.313  12.483
30970SOL     OW94683  10.198   5.712  13.230
30970SOL    HW194684  10.206   5.798  13.191
30970SOL    HW294685  10.285   5.672  13.220
30971SOL     OW94686   3.587  13.269   5.251
30971SOL    HW194687   3.494  13.284   5.232
30971SOL    HW294688   3.593  13.174   5.267
30972SOL     OW94689   6.407   4.874  14.691
30972SOL    HW194690   6.435   4.965  14.700
30972SOL    HW294691   6.382   4.866  14.599
30973SOL     OW94692   2.268   2.719   6.802
30973SOL    HW194693   2.217   2.751   6.728
30973SOL    HW294694   2.202   2.696   6.868
30974SOL     OW94695  11.976  11.203   6.010
30974SOL    HW194696  12.005  11.179   6.099
30974SOL    HW294697  11.929  11.125   5.980
30975SOL     OW94698   0.402   8.689   4.341
30975SOL    HW194699   0.375   8.780   4.351
30975SOL    HW294700   0.485   8.683   4.388
30976SOL     OW94701   4.123   7.936   8.011
30976SOL    HW194702   4.150   8.021   7.978
30976SOL    HW294703   4.056   7.956   8.077
30977SOL     OW94704   5.073   3.221  10.353
30977SOL    HW194705   5.152   3.168  10.340
30977SOL    HW294706   5.017   3.199  10.278
30978SOL     OW94707  11.654  11.132  10.294
30978SOL    HW194708  11.696  11.128  10.208
30978SOL    HW294709  11.562  11.114  10.276
30979SOL     OW94710   3.817  10.078   7.546
30979SOL    HW194711   3.728  10.090   7.512
30979SOL    HW294712   3.823  10.136   7.622
30980SOL     OW94713  12.796  14.749   3.400
30980SOL    HW194714  12.803  14.739   3.305
30980SOL    HW294715  12.839  14.833   3.418
30981SOL     OW94716  12.167   5.040   0.502
30981SOL    HW194717  12.192   5.027   0.594
30981SOL    HW294718  12.072   5.034   0.501
30982SOL     OW94719  12.253   2.782   4.371
30982SOL    HW194720  12.320   2.740   4.424
30982SOL    HW294721  12.277   2.874   4.370
30983SOL     OW94722   7.622  14.715   8.900
30983SOL    HW194723   7.695  14.656   8.880
30983SOL    HW294724   7.576  14.725   8.817
30984SOL     OW94725   6.262  11.758  14.843
30984SOL    HW194726   6.239  11.846  14.813
30984SOL    HW294727   6.278  11.709  14.763
30985SOL     OW94728   2.213  11.551   0.690
30985SOL    HW194729   2.248  11.471   0.651
30985SOL    HW294730   2.204  11.612   0.617
30986SOL     OW94731  12.011   7.773  11.476
30986SOL    HW194732  11.972   7.800  11.393
30986SOL    HW294733  12.105   7.771  11.459
30987SOL     OW94734   4.737   3.004  13.311
30987SOL    HW194735   4.821   2.973  13.276
30987SOL    HW294736   4.756   3.094  13.340
30988SOL     OW94737  14.786   3.043   0.162
30988SOL    HW194738  14.746   3.023   0.247
30988SOL    HW294739  14.877   3.015   0.171
30989SOL     OW94740   8.478   2.409   7.431
30989SOL    HW194741   8.554   2.463   7.453
30989SOL    HW294742   8.425   2.464   7.373
30990SOL     OW94743  13.846   6.339   5.419
30990SOL    HW194744  13.900   6.418   5.413
30990SOL    HW294745  13.886   6.278   5.358
30991SOL     OW94746   5.383   7.289  14.788
30991SOL    HW194747   5.371   7.281   0.005
30991SOL    HW294748   5.372   7.200  14.754
30992SOL     OW94749   7.848   0.284   7.330
30992SOL    HW194750   7.804   0.339   7.266
30992SOL    HW294751   7.784   0.217   7.352
30993SOL     OW94752   2.250   1.910   5.861
30993SOL    HW194753   2.197   1.876   5.934
30993SOL    HW294754   2.186   1.938   5.796
30994SOL     OW94755   6.758   5.849  10.158
30994SOL    HW194756   6.800   5.763  10.150
30994SOL    HW294757   6.830   5.912  10.150
30995SOL     OW94758   0.393  12.935   5.111
30995SOL    HW194759   0.397  13.028   5.090
30995SOL    HW294760   0.461  12.896   5.056
30996SOL     OW94761   8.067  13.709  11.032
30996SOL    HW194762   8.125  13.715  10.957
30996SOL    HW294763   8.030  13.797  11.041
30997SOL     OW94764  14.830  11.169  12.285
30997SOL    HW194765  14.849  11.160  12.379
30997SOL    HW294766  14.816  11.079  12.255
30998SOL     OW94767   1.643   1.319   1.872
30998SOL    HW194768   1.662   1.226   1.887
30998SOL    HW294769   1.572   1.319   1.808
30999SOL     OW94770  13.232  14.572   3.667
30999SOL    HW194771  13.320  14.549   3.636
30999SOL    HW294772  13.234  14.553   3.760
31000SOL     OW94773   1.465   4.339  13.001
31000SOL    HW194774   1.498   4.297  13.081
31000SOL    HW294775   1.444   4.266  12.943
31001SOL     OW94776   6.881  10.529  10.101
31001SOL    HW194777   6.826  10.451  10.107
31001SOL    HW294778   6.971  10.496  10.103
31002SOL     OW94779   2.558  10.592   8.794
31002SOL    HW194780   2.598  10.631   8.872
31002SOL    HW294781   2.569  10.498   8.806
31003SOL     OW94782   8.840   2.829   2.925
31003SOL    HW194783   8.934   2.836   2.942
31003SOL    HW294784   8.812   2.920   2.913
31004SOL     OW94785   5.559  11.152   2.436
31004SOL    HW194786   5.635  11.095   2.443
31004SOL    HW294787   5.535  11.151   2.343
31005SOL     OW94788   6.346  12.742   1.987
31005SOL    HW194789   6.263  12.716   1.946
31005SOL    HW294790   6.365  12.673   2.050
31006SOL     OW94791   9.002   6.377  13.743
31006SOL    HW194792   9.034   6.316  13.677
31006SOL    HW294793   9.066   6.448  13.744
31007SOL     OW94794   9.617   1.209   6.631
31007SOL    HW194795   9.529   1.192   6.664
31007SOL    HW294796   9.603   1.264   6.554
31008SOL     OW94797   7.609   2.912   0.429
31008SOL    HW194798   7.679   2.876   0.376
31008SOL    HW294799   7.646   2.919   0.517
31009SOL     OW94800  11.521   8.752   1.263
31009SOL    HW194801  11.458   8.704   1.317
31009SOL    HW294802  11.605   8.737   1.305
31010SOL     OW94803  12.901  11.122  11.055
31010SOL    HW194804  12.811  11.099  11.031
31010SOL    HW294805  12.955  11.085  10.985
31011SOL     OW94806   1.205  10.048  11.127
31011SOL    HW194807   1.237  10.127  11.172
31011SOL    HW294808   1.169   9.994  11.197
31012SOL     OW94809   9.429  14.781   2.778
31012SOL    HW194810   9.462  14.853   2.724
31012SOL    HW294811   9.470  14.703   2.742
31013SOL     OW94812   8.548   0.605   7.523
31013SOL    HW194813   8.484   0.550   7.478
31013SOL    HW294814   8.554   0.569   7.611
31014SOL     OW94815  10.190   7.708   3.299
31014SOL    HW194816  10.139   7.765   3.242
31014SOL    HW294817  10.165   7.735   3.388
31015SOL     OW94818   5.846   5.357  13.843
31015SOL    HW194819   5.781   5.373  13.775
31015SOL    HW294820   5.904   5.433  13.839
31016SOL     OW94821   8.803   1.148   7.191
31016SOL    HW194822   8.834   1.065   7.226
31016SOL    HW294823   8.711   1.153   7.217
31017SOL     OW94824  11.491   9.494   6.292
31017SOL    HW194825  11.446   9.529   6.369
31017SOL    HW294826  11.536   9.570   6.255
31018SOL     OW94827   5.385   1.290   6.030
31018SOL    HW194828   5.398   1.381   6.057
31018SOL    HW294829   5.296   1.269   6.060
31019SOL     OW94830   0.636   5.038  10.267
31019SOL    HW194831   0.731   5.045  10.272
31019SOL    HW294832   0.613   4.972  10.333
31020SOL     OW94833   2.487   5.653  11.504
31020SOL    HW194834   2.564   5.697  11.539
31020SOL    HW294835   2.414   5.710  11.527
31021SOL     OW94836   4.544  10.149  13.389
31021SOL    HW194837   4.618  10.122  13.444
31021SOL    HW294838   4.572  10.232  13.351
31022SOL     OW94839   2.904   1.921   0.583
31022SOL    HW194840   2.888   2.010   0.615
31022SOL    HW294841   2.890   1.865   0.659
31023SOL     OW94842   6.754   1.324  12.080
31023SOL    HW194843   6.788   1.255  12.023
31023SOL    HW294844   6.694   1.374  12.025
31024SOL     OW94845   7.048  14.409   5.888
31024SOL    HW194846   7.029  14.502   5.898
31024SOL    HW294847   7.132  14.406   5.842
31025SOL     OW94848   5.195  10.582   7.284
31025SOL    HW194849   5.139  10.504   7.281
31025SOL    HW294850   5.280  10.551   7.253
31026SOL     OW94851   1.729   9.335   5.883
31026SOL    HW194852   1.655   9.317   5.826
31026SOL    HW294853   1.796   9.370   5.824
31027SOL     OW94854   1.043  11.201   5.361
31027SOL    HW194855   1.099  11.130   5.329
31027SOL    HW294856   1.054  11.198   5.456
31028SOL     OW94857   1.877   4.234   5.846
31028SOL    HW194858   1.833   4.251   5.929
31028SOL    HW294859   1.827   4.162   5.807
31029SOL     OW94860   7.099   6.509   5.871
31029SOL    HW194861   7.004   6.514   5.883
31029SOL    HW294862   7.129   6.453   5.943
31030SOL     OW94863   8.544  11.478  14.438
31030SOL    HW194864   8.470  11.524  14.477
31030SOL    HW294865   8.517  11.386  14.436
31031SOL     OW94866   4.094  14.649  13.306
31031SOL    HW194867   4.145  14.595  13.366
31031SOL    HW294868   4.117  14.618  13.219
31032SOL     OW94869   8.462   5.662   7.259
31032SOL    HW194870   8.433   5.703   7.177
31032SOL    HW294871   8.481   5.736   7.317
31033SOL     OW94872   5.452   8.015  11.405
31033SOL    HW194873   5.429   8.087  11.464
31033SOL    HW294874   5.461   8.057  11.319
31034SOL     OW94875   9.748   3.907  12.746
31034SOL    HW194876   9.665   3.867  12.718
31034SOL    HW294877   9.758   3.879  12.837
31035SOL     OW94878   7.452   4.298  14.336
31035SOL    HW194879   7.515   4.349  14.285
31035SOL    HW294880   7.369   4.343  14.322
31036SOL     OW94881  11.705   9.960   6.115
31036SOL    HW194882  11.663   9.876   6.131
31036SOL    HW294883  11.634  10.024   6.122
31037SOL     OW94884   6.382  14.575  10.710
31037SOL    HW194885   6.395  14.622  10.628
31037SOL    HW294886   6.377  14.645  10.776
31038SOL     OW94887   1.341   0.573  14.369
31038SOL    HW194888   1.346   0.597  14.277
31038SOL    HW294889   1.392   0.492  14.375
31039SOL     OW94890   9.248   6.337  14.082
31039SOL    HW194891   9.261   6.243  14.090
31039SOL    HW294892   9.300   6.374  14.154
31040SOL     OW94893  11.532  10.276  10.837
31040SOL    HW194894  11.485  10.303  10.759
31040SOL    HW294895  11.467  10.280  10.907
31041SOL     OW94896   4.279  10.358   3.587
31041SOL    HW194897   4.322  10.277   3.560
31041SOL    HW294898   4.351  10.415   3.616
31042SOL     OW94899  11.442   4.932  14.462
31042SOL    HW194900  11.382   4.910  14.534
31042SOL    HW294901  11.385   4.949  14.387
31043SOL     OW94902   6.503   4.264  12.159
31043SOL    HW194903   6.479   4.357  12.163
31043SOL    HW294904   6.522   4.248  12.067
31044SOL     OW94905   7.191   5.312  11.859
31044SOL    HW194906   7.169   5.222  11.839
31044SOL    HW294907   7.281   5.308  11.892
31045SOL     OW94908   4.383   6.260   2.939
31045SOL    HW194909   4.349   6.203   3.007
31045SOL    HW294910   4.397   6.344   2.983
31046SOL     OW94911   1.217   3.266  14.517
31046SOL    HW194912   1.128   3.262  14.483
31046SOL    HW294913   1.231   3.359  14.537
31047SOL     OW94914  14.384   5.175   8.257
31047SOL    HW194915  14.368   5.137   8.343
31047SOL    HW294916  14.297   5.190   8.221
31048SOL     OW94917   4.945  12.843   0.450
31048SOL    HW194918   5.014  12.901   0.481
31048SOL    HW294919   4.954  12.845   0.355
31049SOL     OW94920   9.033   8.547   5.169
31049SOL    HW194921   8.987   8.543   5.085
31049SOL    HW294922   8.965   8.565   5.233
31050SOL     OW94923   0.115   3.451   6.354
31050SOL    HW194924   0.031   3.471   6.395
31050SOL    HW294925   0.178   3.454   6.425
31051SOL     OW94926   3.712   2.167  13.223
31051SOL    HW194927   3.738   2.175  13.131
31051SOL    HW294928   3.648   2.096  13.224
31052SOL     OW94929   7.767   1.815  10.648
31052SOL    HW194930   7.734   1.755  10.581
31052SOL    HW294931   7.820   1.760  10.705
31053SOL     OW94932   3.458   5.007   7.732
31053SOL    HW194933   3.493   4.927   7.771
31053SOL    HW294934   3.478   5.076   7.795
31054SOL     OW94935   5.570  10.017   0.168
31054SOL    HW194936   5.556   9.983   0.256
31054SOL    HW294937   5.510  10.091   0.161
31055SOL     OW94938  12.410   1.469  14.605
31055SOL    HW194939  12.338   1.456  14.667
31055SOL    HW294940  12.367   1.489  14.522
31056SOL     OW94941   0.915   1.428   4.464
31056SOL    HW194942   0.983   1.453   4.525
31056SOL    HW294943   0.955   1.437   4.377
31057SOL     OW94944  12.067   5.929  10.274
31057SOL    HW194945  12.161   5.944  10.274
31057SOL    HW294946  12.034   5.982  10.202
31058SOL     OW94947   2.055   7.988  13.990
31058SOL    HW194948   1.980   8.044  13.969
31058SOL    HW294949   2.017   7.902  14.008
31059SOL     OW94950   7.705   7.152   4.400
31059SOL    HW194951   7.691   7.107   4.316
31059SOL    HW294952   7.621   7.143   4.445
31060SOL     OW94953   5.974   6.768   1.138
31060SOL    HW194954   5.931   6.829   1.198
31060SOL    HW294955   5.953   6.681   1.174
31061SOL     OW94956   7.822   4.208   1.713
31061SOL    HW194957   7.755   4.235   1.776
31061SOL    HW294958   7.879   4.285   1.703
31062SOL     OW94959   8.586   6.933   7.194
31062SOL    HW194960   8.666   6.930   7.141
31062SOL    HW294961   8.580   6.846   7.234
31063SOL     OW94962   3.978   3.310  12.801
31063SOL    HW194963   4.038   3.236  12.808
31063SOL    HW294964   3.918   3.286  12.730
31064SOL     OW94965   3.424  11.456   5.375
31064SOL    HW194966   3.332  11.481   5.369
31064SOL    HW294967   3.451  11.484   5.462
31065SOL     OW94968   6.052   1.060  12.651
31065SOL    HW194969   6.042   1.116  12.728
31065SOL    HW294970   6.080   0.976  12.685
31066SOL     OW94971  12.450  14.724   0.179
31066SOL    HW194972  12.470  14.809   0.218
31066SOL    HW294973  12.513  14.715   0.108
31067SOL     OW94974   8.729   4.625   4.637
31067SOL    HW194975   8.671   4.622   4.561
31067SOL    HW294976   8.697   4.554   4.694
31068SOL     OW94977  12.079  11.455   8.925
31068SOL    HW194978  12.052  11.545   8.910
31068SOL    HW294979  12.174  11.458   8.924
31069SOL     OW94980   1.899  14.715   1.350
31069SOL    HW194981   1.946  14.641   1.312
31069SOL    HW294982   1.914  14.706   1.445
31070SOL     OW94983   0.900  12.099   8.795
31070SOL    HW194984   0.947  12.088   8.877
31070SOL    HW294985   0.857  12.185   8.802
31071SOL     OW94986   2.244  13.409   4.991
31071SOL    HW194987   2.338  13.399   5.006
31071SOL    HW294988   2.237  13.486   4.935
31072SOL     OW94989   7.091   9.231   8.913
31072SOL    HW194990   7.025   9.185   8.964
31072SOL    HW294991   7.107   9.175   8.837
31073SOL     OW94992   8.650   8.372   3.038
31073SOL    HW194993   8.595   8.379   3.116
31073SOL    HW294994   8.596   8.327   2.974
31074SOL     OW94995   8.383   2.394   1.397
31074SOL    HW194996   8.415   2.432   1.315
31074SOL    HW294997   8.459   2.394   1.455
31075SOL     OW94998   0.714   9.385   6.382
31075SOL    HW194999   0.802   9.350   6.393
31075SOL    HW295000   0.660   9.335   6.443
31076SOL     OW95001   7.514   6.794   0.493
31076SOL    HW195002   7.527   6.876   0.447
31076SOL    HW295003   7.471   6.818   0.575
31077SOL     OW95004   0.471   6.727  10.024
31077SOL    HW195005   0.477   6.650   9.968
31077SOL    HW295006   0.558   6.735  10.063
31078SOL     OW95007   1.568  14.671  12.242
31078SOL    HW195008   1.593  14.640  12.329
31078SOL    HW295009   1.519  14.752  12.259
31079SOL     OW95010   4.433   1.954   7.786
31079SOL    HW195011   4.370   1.949   7.715
31079SOL    HW295012   4.440   2.048   7.806
31080SOL     OW95013   2.403   9.028  10.182
31080SOL    HW195014   2.470   9.097  10.189
31080SOL    HW295015   2.437   8.956  10.236
31081SOL     OW95016  14.700   9.298   6.950
31081SOL    HW195017  14.701   9.290   7.045
31081SOL    HW295018  14.782   9.344   6.928
31082SOL     OW95019  10.248   8.687  11.177
31082SOL    HW195020  10.209   8.638  11.104
31082SOL    HW295021  10.253   8.622  11.248
31083SOL     OW95022   7.987   5.359  12.902
31083SOL    HW195023   7.897   5.328  12.893
31083SOL    HW295024   7.981   5.434  12.961
31084SOL     OW95025  10.014   6.140   1.223
31084SOL    HW195026  10.094   6.182   1.192
31084SOL    HW295027   9.994   6.184   1.306
31085SOL     OW95028  13.134   6.126   3.531
31085SOL    HW195029  13.223   6.108   3.501
31085SOL    HW295030  13.094   6.177   3.460
31086SOL     OW95031   0.404   6.274  10.070
31086SOL    HW195032   0.473   6.223  10.027
31086SOL    HW295033   0.392   6.231  10.155
31087SOL     OW95034  14.759  10.226  11.797
31087SOL    HW195035  14.797  10.140  11.779
31087SOL    HW295036  14.827  10.289  11.773
31088SOL     OW95037   8.542  12.235   8.098
31088SOL    HW195038   8.570  12.251   8.007
31088SOL    HW295039   8.475  12.301   8.114
31089SOL     OW95040  12.828   8.540   5.838
31089SOL    HW195041  12.744   8.582   5.820
31089SOL    HW295042  12.862   8.587   5.915
31090SOL     OW95043   1.891   0.415   6.754
31090SOL    HW195044   1.882   0.407   6.659
31090SOL    HW295045   1.978   0.455   6.767
31091SOL     OW95046  10.268  12.953   0.347
31091SOL    HW195047  10.186  12.905   0.337
31091SOL    HW295048  10.258  13.031   0.293
31092SOL     OW95049   1.906   9.957   6.765
31092SOL    HW195050   1.911  10.044   6.727
31092SOL    HW295051   1.843   9.909   6.710
31093SOL     OW95052  12.441   5.862   3.402
31093SOL    HW195053  12.487   5.852   3.318
31093SOL    HW295054  12.390   5.943   3.391
31094SOL     OW95055   6.353  13.768   5.946
31094SOL    HW195056   6.344  13.728   6.033
31094SOL    HW295057   6.387  13.855   5.963
31095SOL     OW95058   5.046  13.547  10.393
31095SOL    HW195059   5.018  13.465  10.352
31095SOL    HW295060   5.111  13.583  10.334
31096SOL     OW95061  11.610  12.640  10.547
31096SOL    HW195062  11.580  12.723  10.584
31096SOL    HW295063  11.530  12.590  10.532
31097SOL     OW95064   1.986   1.217  11.285
31097SOL    HW195065   2.027   1.299  11.311
31097SOL    HW295066   2.003   1.211  11.191
31098SOL     OW95067   5.877  12.442   1.799
31098SOL    HW195068   5.895  12.352   1.772
31098SOL    HW295069   5.847  12.486   1.719
31099SOL     OW95070   8.238  13.610   3.041
31099SOL    HW195071   8.312  13.564   3.003
31099SOL    HW295072   8.273  13.696   3.065
31100SOL     OW95073  12.340   8.249   6.074
31100SOL    HW195074  12.326   8.265   5.981
31100SOL    HW295075  12.274   8.302   6.118
31101SOL     OW95076  13.911   3.536   7.216
31101SOL    HW195077  13.971   3.585   7.274
31101SOL    HW295078  13.904   3.591   7.138
31102SOL     OW95079   0.322   9.288  13.533
31102SOL    HW195080   0.280   9.228  13.593
31102SOL    HW295081   0.390   9.236  13.490
31103SOL     OW95082   5.690   8.873  12.671
31103SOL    HW195083   5.772   8.921  12.654
31103SOL    HW295084   5.621   8.938  12.656
31104SOL     OW95085  13.079  13.503   2.504
31104SOL    HW195086  13.042  13.501   2.415
31104SOL    HW295087  13.118  13.417   2.516
31105SOL     OW95088   5.582   1.205   4.377
31105SOL    HW195089   5.616   1.135   4.321
31105SOL    HW295090   5.660   1.251   4.407
31106SOL     OW95091   3.078   7.837   9.969
31106SOL    HW195092   2.986   7.863   9.970
31106SOL    HW295093   3.117   7.887  10.041
31107SOL     OW95094  14.179   1.623   8.633
31107SOL    HW195095  14.216   1.700   8.592
31107SOL    HW295096  14.250   1.558   8.630
31108SOL     OW95097   6.331   1.965   3.441
31108SOL    HW195098   6.386   1.924   3.375
31108SOL    HW295099   6.344   1.912   3.520
31109SOL     OW95100   5.256   9.418   6.828
31109SOL    HW195101   5.267   9.325   6.852
31109SOL    HW295102   5.343   9.456   6.840
31110SOL     OW95103  12.608   2.503  13.067
31110SOL    HW195104  12.522   2.536  13.042
31110SOL    HW295105  12.609   2.412  13.037
31111SOL     OW95106  12.513   3.940   3.093
31111SOL    HW195107  12.590   3.993   3.112
31111SOL    HW295108  12.548   3.853   3.074
31112SOL     OW95109   3.598   5.486   9.359
31112SOL    HW195110   3.657   5.438   9.301
31112SOL    HW295111   3.538   5.419   9.392
31113SOL     OW95112   8.251   2.852   3.537
31113SOL    HW195113   8.269   2.909   3.612
31113SOL    HW295114   8.262   2.763   3.572
31114SOL     OW95115   3.489   6.972  10.625
31114SOL    HW195116   3.473   7.060  10.589
31114SOL    HW295117   3.456   6.913  10.558
31115SOL     OW95118  12.300  12.701  14.290
31115SOL    HW195119  12.287  12.788  14.328
31115SOL    HW295120  12.249  12.702  14.209
31116SOL     OW95121  11.586   8.757  11.037
31116SOL    HW195122  11.657   8.777  11.097
31116SOL    HW295123  11.514   8.814  11.065
31117SOL     OW95124  11.640   7.846   6.816
31117SOL    HW195125  11.585   7.808   6.884
31117SOL    HW295126  11.730   7.825   6.843
31118SOL     OW95127  14.429   3.688  10.397
31118SOL    HW195128  14.436   3.630  10.322
31118SOL    HW295129  14.354   3.744  10.378
31119SOL     OW95130   3.701   2.451   7.423
31119SOL    HW195131   3.695   2.503   7.503
31119SOL    HW295132   3.637   2.490   7.364
31120SOL     OW95133   3.246   6.851   8.614
31120SOL    HW195134   3.178   6.883   8.673
31120SOL    HW295135   3.285   6.930   8.577
31121SOL     OW95136   7.972  10.864  14.483
31121SOL    HW195137   7.975  10.798  14.413
31121SOL    HW295138   8.057  10.856  14.526
31122SOL     OW95139   6.517  10.309  13.466
31122SOL    HW195140   6.484  10.307  13.556
31122SOL    HW295141   6.512  10.401  13.441
31123SOL     OW95142   8.981   8.071  10.624
31123SOL    HW195143   8.969   8.156  10.582
31123SOL    HW295144   8.998   8.011  10.552
31124SOL     OW95145   7.614   3.255  13.750
31124SOL    HW195146   7.584   3.337  13.712
31124SOL    HW295147   7.652   3.207  13.677
31125SOL     OW95148  12.744  13.537  10.956
31125SOL    HW195149  12.737  13.625  10.993
31125SOL    HW295150  12.830  13.506  10.984
31126SOL     OW95151   3.063  10.612  14.214
31126SOL    HW195152   2.968  10.597  14.208
31126SOL    HW295153   3.102  10.526  14.201
31127SOL     OW95154   3.964   9.228   4.913
31127SOL    HW195155   3.923   9.193   4.992
31127SOL    HW295156   4.055   9.198   4.917
31128SOL     OW95157   6.699   4.365   6.912
31128SOL    HW195158   6.736   4.342   6.997
31128SOL    HW295159   6.760   4.427   6.874
31129SOL     OW95160   9.584   3.303   3.465
31129SOL    HW195161   9.611   3.395   3.472
31129SOL    HW295162   9.648   3.263   3.406
31130SOL     OW95163   6.225   7.462  12.366
31130SOL    HW195164   6.246   7.540  12.418
31130SOL    HW295165   6.295   7.457  12.301
31131SOL     OW95166   3.314  11.495   9.035
31131SOL    HW195167   3.244  11.453   8.986
31131SOL    HW295168   3.288  11.588   9.039
31132SOL     OW95169   7.851   3.397   6.810
31132SOL    HW195170   7.912   3.331   6.843
31132SOL    HW295171   7.863   3.395   6.715
31133SOL     OW95172   8.743   6.576   5.022
31133SOL    HW195173   8.663   6.606   4.979
31133SOL    HW295174   8.801   6.652   5.019
31134SOL     OW95175   1.843   1.497   9.332
31134SOL    HW195176   1.929   1.513   9.370
31134SOL    HW295177   1.855   1.511   9.238
31135SOL     OW95178   2.189   3.269   8.523
31135SOL    HW195179   2.138   3.340   8.561
31135SOL    HW295180   2.193   3.289   8.430
31136SOL     OW95181   7.475   6.539   7.531
31136SOL    HW195182   7.484   6.506   7.621
31136SOL    HW295183   7.564   6.566   7.507
31137SOL     OW95184  14.670  10.781  11.011
31137SOL    HW195185  14.752  10.820  11.044
31137SOL    HW295186  14.601  10.827  11.058
31138SOL     OW95187   5.458  14.764  12.903
31138SOL    HW195188   5.481  14.848  12.944
31138SOL    HW295189   5.525  14.750  12.837
31139SOL     OW95190  11.326   0.796   6.800
31139SOL    HW195191  11.378   0.716   6.801
31139SOL    HW295192  11.237   0.767   6.781
31140SOL     OW95193   8.964   8.338  11.262
31140SOL    HW195194   8.897   8.326  11.195
31140SOL    HW295195   9.038   8.286  11.231
31141SOL     OW95196   1.543  11.752   6.346
31141SOL    HW195197   1.591  11.780   6.268
31141SOL    HW295198   1.507  11.833   6.382
31142SOL     OW95199   4.014  10.182  12.436
31142SOL    HW195200   4.059  10.226  12.508
31142SOL    HW295201   4.005  10.092  12.466
31143SOL     OW95202   4.424   5.992   5.397
31143SOL    HW195203   4.473   6.070   5.371
31143SOL    HW295204   4.472   5.919   5.359
31144SOL     OW95205   6.545   4.003   5.043
31144SOL    HW195206   6.507   3.945   4.976
31144SOL    HW295207   6.576   4.079   4.994
31145SOL     OW95208   1.466   7.016   7.711
31145SOL    HW195209   1.462   6.993   7.804
31145SOL    HW295210   1.397   6.965   7.670
31146SOL     OW95211   2.192   1.799   3.506
31146SOL    HW195212   2.245   1.862   3.457
31146SOL    HW295213   2.177   1.727   3.445
31147SOL     OW95214   3.340   3.769   7.954
31147SOL    HW195215   3.352   3.789   7.861
31147SOL    HW295216   3.428   3.767   7.991
31148SOL     OW95217   9.192  10.148   1.426
31148SOL    HW195218   9.189  10.244   1.425
31148SOL    HW295219   9.148  10.122   1.345
31149SOL     OW95220  12.278   2.521   4.582
31149SOL    HW195221  12.203   2.466   4.606
31149SOL    HW295222  12.342   2.460   4.545
31150SOL     OW95223   7.421   2.436   2.964
31150SOL    HW195224   7.404   2.371   3.033
31150SOL    HW295225   7.495   2.400   2.915
31151SOL     OW95226   0.574   6.096   9.988
31151SOL    HW195227   0.667   6.111   9.967
31151SOL    HW295228   0.575   6.025  10.052
31152SOL     OW95229   7.933   7.259   3.862
31152SOL    HW195230   7.896   7.346   3.877
31152SOL    HW295231   8.004   7.273   3.799
31153SOL     OW95232   2.222   7.849   2.972
31153SOL    HW195233   2.264   7.854   2.886
31153SOL    HW295234   2.205   7.940   2.996
31154SOL     OW95235  10.499  13.683   3.033
31154SOL    HW195236  10.413  13.643   3.047
31154SOL    HW295237  10.519  13.725   3.116
31155SOL     OW95238   7.468   5.886  13.094
31155SOL    HW195239   7.427   5.799  13.085
31155SOL    HW295240   7.433   5.937  13.021
31156SOL     OW95241  11.309   5.704   5.630
31156SOL    HW195242  11.245   5.648   5.675
31156SOL    HW295243  11.377   5.719   5.696
31157SOL     OW95244   7.580  10.204   3.284
31157SOL    HW195245   7.540  10.117   3.281
31157SOL    HW295246   7.662  10.194   3.236
31158SOL     OW95247   6.983   5.327   0.722
31158SOL    HW195248   6.920   5.372   0.778
31158SOL    HW295249   7.034   5.272   0.782
31159SOL     OW95250   6.799   7.883   0.653
31159SOL    HW195251   6.873   7.944   0.654
31159SOL    HW295252   6.726   7.936   0.621
31160SOL     OW95253   2.466  13.867   2.404
31160SOL    HW195254   2.497  13.798   2.346
31160SOL    HW295255   2.389  13.831   2.446
31161SOL     OW95256   0.035  14.391  12.675
31161SOL    HW195257   0.084  14.309  12.677
31161SOL    HW295258   0.089  14.450  12.622
31162SOL     OW95259   7.602  13.703   9.589
31162SOL    HW195260   7.667  13.650   9.543
31162SOL    HW295261   7.634  13.793   9.581
31163SOL     OW95262  13.307   0.467  14.167
31163SOL    HW195263  13.386   0.457  14.113
31163SOL    HW295264  13.292   0.380  14.204
31164SOL     OW95265   0.037  10.667   0.077
31164SOL    HW195266   0.007  10.665  14.864
31164SOL    HW295267  14.840  10.635   0.128
31165SOL     OW95268   4.053   2.352   9.595
31165SOL    HW195269   3.998   2.392   9.663
31165SOL    HW295270   4.110   2.423   9.566
31166SOL     OW95271   7.672  10.080   7.128
31166SOL    HW195272   7.619  10.115   7.057
31166SOL    HW295273   7.757  10.062   7.088
31167SOL     OW95274  14.162  10.319   7.359
31167SOL    HW195275  14.162  10.382   7.287
31167SOL    HW295276  14.104  10.249   7.328
31168SOL     OW95277   7.509   3.968   6.906
31168SOL    HW195278   7.545   3.886   6.941
31168SOL    HW295279   7.583   4.028   6.903
31169SOL     OW95280   7.595  11.251   7.928
31169SOL    HW195281   7.512  11.241   7.882
31169SOL    HW295282   7.596  11.179   7.992
31170SOL     OW95283   1.032   1.134   6.652
31170SOL    HW195284   0.988   1.103   6.731
31170SOL    HW295285   0.982   1.096   6.580
31171SOL     OW95286   1.233   0.376   1.725
31171SOL    HW195287   1.308   0.359   1.668
31171SOL    HW295288   1.270   0.417   1.803
31172SOL     OW95289  11.386   4.137  13.891
31172SOL    HW195290  11.458   4.197  13.873
31172SOL    HW295291  11.307   4.188  13.869
31173SOL     OW95292  12.481   2.652  11.285
31173SOL    HW195293  12.514   2.574  11.241
31173SOL    HW295294  12.455   2.621  11.372
31174SOL     OW95295  13.693  13.969   5.115
31174SOL    HW195296  13.745  14.001   5.042
31174SOL    HW295297  13.757  13.940   5.180
31175SOL     OW95298   7.748   3.455  12.031
31175SOL    HW195299   7.690   3.462  11.956
31175SOL    HW295300   7.831   3.423  11.994
31176SOL     OW95301   7.887   3.376   4.973
31176SOL    HW195302   7.821   3.366   5.042
31176SOL    HW295303   7.969   3.391   5.021
31177SOL     OW95304   3.160   2.263   2.724
31177SOL    HW195305   3.171   2.168   2.712
31177SOL    HW295306   3.223   2.302   2.662
31178SOL     OW95307   8.695   5.457  14.710
31178SOL    HW195308   8.741   5.486  14.789
31178SOL    HW295309   8.605   5.441  14.739
31179SOL     OW95310  13.567  11.498  11.075
31179SOL    HW195311  13.661  11.481  11.080
31179SOL    HW295312  13.543  11.525  11.164
31180SOL     OW95313   1.141  11.819   4.389
31180SOL    HW195314   1.196  11.844   4.314
31180SOL    HW295315   1.131  11.724   4.380
31181SOL     OW95316   8.159   7.207  12.142
31181SOL    HW195317   8.242   7.238  12.179
31181SOL    HW295318   8.182   7.126  12.097
31182SOL     OW95319  12.209   5.537  14.577
31182SOL    HW195320  12.256   5.455  14.587
31182SOL    HW295321  12.249   5.579  14.501
31183SOL     OW95322  10.975   7.098   6.537
31183SOL    HW195323  11.020   7.170   6.493
31183SOL    HW295324  10.885   7.102   6.503
31184SOL     OW95325   0.035   1.086   6.384
31184SOL    HW195326  14.839   1.041   6.342
31184SOL    HW295327   0.097   1.017   6.406
31185SOL     OW95328   7.163   8.528  10.881
31185SOL    HW195329   7.112   8.447  10.873
31185SOL    HW295330   7.134   8.566  10.963
31186SOL     OW95331   1.206   1.619  14.551
31186SOL    HW195332   1.282   1.619  14.492
31186SOL    HW295333   1.239   1.656  14.632
31187SOL     OW95334  10.661   0.088   0.533
31187SOL    HW195335  10.623   0.147   0.598
31187SOL    HW295336  10.750   0.073   0.565
31188SOL     OW95337  10.787   5.623  13.625
31188SOL    HW195338  10.693   5.614  13.637
31188SOL    HW295339  10.797   5.689  13.558
31189SOL     OW95340   7.776  12.252  12.996
31189SOL    HW195341   7.855  12.214  12.958
31189SOL    HW295342   7.718  12.177  13.011
31190SOL     OW95343   6.754   5.696   2.517
31190SOL    HW195344   6.763   5.790   2.498
31190SOL    HW295345   6.842   5.668   2.542
31191SOL     OW95346   5.565   6.472   6.201
31191SOL    HW195347   5.608   6.416   6.266
31191SOL    HW295348   5.546   6.413   6.128
31192SOL     OW95349  10.073   3.743  11.231
31192SOL    HW195350  10.089   3.746  11.326
31192SOL    HW295351   9.982   3.771  11.222
31193SOL     OW95352  11.880   0.993   1.694
31193SOL    HW195353  11.957   1.049   1.689
31193SOL    HW295354  11.825   1.021   1.621
31194SOL     OW95355   2.971   6.172  12.956
31194SOL    HW195356   3.011   6.085  12.954
31194SOL    HW295357   2.885   6.160  12.914
31195SOL     OW95358  10.047   5.106   5.988
31195SOL    HW195359   9.974   5.115   6.049
31195SOL    HW295360  10.034   5.176   5.924
31196SOL     OW95361  11.330   6.258   6.635
31196SOL    HW195362  11.408   6.311   6.650
31196SOL    HW295363  11.356   6.170   6.660
31197SOL     OW95364   9.356   3.051  14.032
31197SOL    HW195365   9.363   3.051  14.127
31197SOL    HW295366   9.407   3.127  14.004
31198SOL     OW95367  10.020   0.473   9.167
31198SOL    HW195368  10.019   0.454   9.073
31198SOL    HW295369  10.113   0.465   9.192
31199SOL     OW95370   0.236  10.537   8.756
31199SOL    HW195371   0.319  10.552   8.802
31199SOL    HW295372   0.169  10.567   8.818
31200SOL     OW95373   1.655   0.713   1.687
31200SOL    HW195374   1.648   0.626   1.724
31200SOL    HW295375   1.565   0.746   1.684
31201SOL     OW95376   3.360   8.228  12.787
31201SOL    HW195377   3.352   8.259  12.697
31201SOL    HW295378   3.422   8.156  12.782
31202SOL     OW95379   5.758   6.107  10.838
31202SOL    HW195380   5.816   6.045  10.793
31202SOL    HW295381   5.808   6.137  10.914
31203SOL     OW95382   8.238   0.453  11.453
31203SOL    HW195383   8.215   0.542  11.429
31203SOL    HW295384   8.305   0.463  11.521
31204SOL     OW95385   2.831   6.459   2.439
31204SOL    HW195386   2.828   6.554   2.437
31204SOL    HW295387   2.743   6.432   2.411
31205SOL     OW95388  12.585  11.800   9.800
31205SOL    HW195389  12.643  11.724   9.806
31205SOL    HW295390  12.611  11.843   9.718
31206SOL     OW95391   5.920   6.976   6.626
31206SOL    HW195392   5.894   7.032   6.553
31206SOL    HW295393   5.907   7.030   6.704
31207SOL     OW95394  13.450   3.374   3.732
31207SOL    HW195395  13.369   3.396   3.685
31207SOL    HW295396  13.471   3.285   3.703
31208SOL     OW95397  10.352   7.819  12.058
31208SOL    HW195398  10.294   7.797  12.131
31208SOL    HW295399  10.411   7.743  12.051
31209SOL     OW95400   7.958   9.869   0.263
31209SOL    HW195401   7.988   9.868   0.173
31209SOL    HW295402   8.032   9.834   0.313
31210SOL     OW95403  13.766   7.266   8.990
31210SOL    HW195404  13.704   7.209   8.946
31210SOL    HW295405  13.743   7.355   8.962
31211SOL     OW95406   5.823   7.912   8.268
31211SOL    HW195407   5.753   7.847   8.256
31211SOL    HW295408   5.896   7.878   8.217
31212SOL     OW95409  11.788   2.437  13.758
31212SOL    HW195410  11.877   2.402  13.749
31212SOL    HW295411  11.746   2.379  13.821
31213SOL     OW95412  14.088  11.400   1.639
31213SOL    HW195413  14.004  11.392   1.683
31213SOL    HW295414  14.105  11.495   1.637
31214SOL     OW95415  12.236   4.253  11.196
31214SOL    HW195416  12.169   4.303  11.243
31214SOL    HW295417  12.315   4.265  11.248
31215SOL     OW95418  12.816   4.425   7.000
31215SOL    HW195419  12.742   4.462   7.048
31215SOL    HW295420  12.892   4.446   7.055
31216SOL     OW95421   9.539   6.604   5.094
31216SOL    HW195422   9.601   6.674   5.079
31216SOL    HW295423   9.592   6.525   5.101
31217SOL     OW95424   3.350   9.443   5.327
31217SOL    HW195425   3.334   9.515   5.388
31217SOL    HW295426   3.408   9.384   5.375
31218SOL     OW95427   8.209   6.011   5.843
31218SOL    HW195428   8.209   5.992   5.937
31218SOL    HW295429   8.273   5.951   5.806
31219SOL     OW95430  10.752   2.819   7.986
31219SOL    HW195431  10.663   2.810   8.020
31219SOL    HW295432  10.797   2.874   8.049
31220SOL     OW95433  10.689   8.303   3.541
31220SOL    HW195434  10.728   8.314   3.629
31220SOL    HW295435  10.706   8.387   3.498
31221SOL     OW95436   1.401  14.876  11.101
31221SOL    HW195437   1.316  14.865  11.144
31221SOL    HW295438   1.447   0.063  11.155
31222SOL     OW95439   4.210  13.733  11.813
31222SOL    HW195440   4.155  13.795  11.862
31222SOL    HW295441   4.215  13.770  11.725
31223SOL     OW95442  14.145  10.464   2.537
31223SOL    HW195443  14.223  10.411   2.519
31223SOL    HW295444  14.073  10.415   2.495
31224SOL     OW95445   4.760   4.575  10.917
31224SOL    HW195446   4.721   4.643  10.972
31224SOL    HW295447   4.699   4.566  10.844
31225SOL     OW95448  13.332  14.059   2.636
31225SOL    HW195449  13.346  13.998   2.564
31225SOL    HW295450  13.319  14.004   2.713
31226SOL     OW95451  10.113   7.587   7.187
31226SOL    HW195452  10.196   7.539   7.184
31226SOL    HW295453  10.060   7.547   7.118
31227SOL     OW95454   2.908  12.456  14.155
31227SOL    HW195455   2.942  12.369  14.137
31227SOL    HW295456   2.893  12.494  14.068
31228SOL     OW95457   9.684   8.924  12.462
31228SOL    HW195458   9.707   8.843  12.508
31228SOL    HW295459   9.761   8.944  12.409
31229SOL     OW95460   1.963   6.648   8.178
31229SOL    HW195461   1.903   6.627   8.106
31229SOL    HW295462   1.922   6.721   8.223
31230SOL     OW95463   5.871  11.773   1.384
31230SOL    HW195464   5.960  11.801   1.362
31230SOL    HW295465   5.824  11.855   1.399
31231SOL     OW95466   2.981   7.032   3.222
31231SOL    HW195467   3.044   7.069   3.284
31231SOL    HW295468   2.916   6.988   3.277
31232SOL     OW95469   9.092  12.976  12.839
31232SOL    HW195470   9.059  13.066  12.844
31232SOL    HW295471   9.050  12.931  12.912
31233SOL     OW95472   5.474   0.683  11.434
31233SOL    HW195473   5.382   0.660  11.422
31233SOL    HW295474   5.521   0.600  11.424
31234SOL     OW95475   3.727   3.713   4.073
31234SOL    HW195476   3.671   3.777   4.116
31234SOL    HW295477   3.809   3.715   4.124
31235SOL     OW95478  12.379   7.477  13.033
31235SOL    HW195479  12.407   7.530  12.959
31235SOL    HW295480  12.458   7.468  13.087
31236SOL     OW95481   8.719   5.821   3.895
31236SOL    HW195482   8.687   5.900   3.940
31236SOL    HW295483   8.716   5.844   3.802
31237SOL     OW95484   4.309   0.450   4.220
31237SOL    HW195485   4.278   0.436   4.309
31237SOL    HW295486   4.322   0.362   4.184
31238SOL     OW95487   0.601   3.569   3.475
31238SOL    HW195488   0.637   3.655   3.452
31238SOL    HW295489   0.542   3.548   3.403
31239SOL     OW95490   8.473   3.212   0.219
31239SOL    HW195491   8.429   3.144   0.270
31239SOL    HW295492   8.567   3.197   0.235
31240SOL     OW95493   1.190   4.946   9.763
31240SOL    HW195494   1.259   4.893   9.803
31240SOL    HW295495   1.237   5.017   9.719
31241SOL     OW95496   4.502   5.637   2.007
31241SOL    HW195497   4.430   5.698   2.020
31241SOL    HW295498   4.557   5.647   2.084
31242SOL     OW95499  12.364   2.026   9.912
31242SOL    HW195500  12.435   2.015   9.975
31242SOL    HW295501  12.338   1.937   9.889
31243SOL     OW95502   8.940   3.241   8.316
31243SOL    HW195503   9.005   3.311   8.318
31243SOL    HW295504   8.931   3.214   8.408
31244SOL     OW95505   8.411   3.405   5.732
31244SOL    HW195506   8.347   3.475   5.721
31244SOL    HW295507   8.433   3.408   5.825
31245SOL     OW95508   2.468   6.164   1.457
31245SOL    HW195509   2.441   6.256   1.449
31245SOL    HW295510   2.489   6.138   1.368
31246SOL     OW95511  10.024   4.074  10.250
31246SOL    HW195512  10.086   4.001  10.254
31246SOL    HW295513  10.044   4.118  10.167
31247SOL     OW95514  13.594   5.884   7.847
31247SOL    HW195515  13.664   5.830   7.811
31247SOL    HW295516  13.599   5.966   7.798
31248SOL     OW95517  10.999   7.760   2.946
31248SOL    HW195518  10.979   7.797   2.860
31248SOL    HW295519  10.952   7.816   3.008
31249SOL     OW95520   8.845  12.671   4.603
31249SOL    HW195521   8.790  12.648   4.678
31249SOL    HW295522   8.834  12.599   4.542
31250SOL     OW95523  12.192  13.206   5.187
31250SOL    HW195524  12.271  13.187   5.238
31250SOL    HW295525  12.168  13.122   5.148
31251SOL     OW95526   9.514   2.530   0.290
31251SOL    HW195527   9.576   2.534   0.363
31251SOL    HW295528   9.444   2.472   0.322
31252SOL     OW95529   4.808   6.535  10.385
31252SOL    HW195530   4.776   6.464  10.329
31252SOL    HW295531   4.819   6.494  10.471
31253SOL     OW95532   3.399   7.617   7.571
31253SOL    HW195533   3.438   7.656   7.649
31253SOL    HW295534   3.377   7.527   7.596
31254SOL     OW95535  10.451   2.160   0.897
31254SOL    HW195536  10.384   2.139   0.962
31254SOL    HW295537  10.465   2.077   0.850
31255SOL     OW95538   3.095   3.296   1.268
31255SOL    HW195539   3.080   3.323   1.359
31255SOL    HW295540   3.027   3.232   1.251
31256SOL     OW95541   8.714  12.937   2.385
31256SOL    HW195542   8.767  13.017   2.385
31256SOL    HW295543   8.693  12.922   2.292
31257SOL     OW95544   3.134  10.805   6.122
31257SOL    HW195545   3.140  10.750   6.200
31257SOL    HW295546   3.171  10.889   6.149
31258SOL     OW95547   0.754   2.516   9.097
31258SOL    HW195548   0.714   2.538   9.181
31258SOL    HW295549   0.747   2.421   9.091
31259SOL     OW95550  11.123  11.093   2.630
31259SOL    HW195551  11.157  11.114   2.717
31259SOL    HW295552  11.028  11.094   2.641
31260SOL     OW95553  13.018  11.837   2.861
31260SOL    HW195554  12.977  11.917   2.893
31260SOL    HW295555  13.112  11.854   2.870
31261SOL     OW95556  13.622  11.938   9.079
31261SOL    HW195557  13.567  11.911   9.006
31261SOL    HW295558  13.646  11.856   9.123
31262SOL     OW95559  12.587   9.082   7.287
31262SOL    HW195560  12.561   9.038   7.368
31262SOL    HW295561  12.556   9.172   7.298
31263SOL     OW95562   0.848   0.900  12.937
31263SOL    HW195563   0.850   0.989  12.901
31263SOL    HW295564   0.756   0.885  12.958
31264SOL     OW95565   1.375  11.767  13.158
31264SOL    HW195566   1.375  11.775  13.063
31264SOL    HW295567   1.337  11.850  13.189
31265SOL     OW95568  11.413   8.558  11.900
31265SOL    HW195569  11.420   8.638  11.953
31265SOL    HW295570  11.467   8.574  11.823
31266SOL     OW95571   4.513   5.558   5.763
31266SOL    HW195572   4.518   5.640   5.810
31266SOL    HW295573   4.514   5.490   5.831
31267SOL     OW95574   4.980  10.714  10.647
31267SOL    HW195575   4.895  10.744  10.613
31267SOL    HW295576   4.990  10.626  10.609
31268SOL     OW95577  11.065  14.246   5.618
31268SOL    HW195578  10.997  14.257   5.551
31268SOL    HW295579  11.144  14.280   5.578
31269SOL     OW95580   4.045   5.410   7.847
31269SOL    HW195581   4.029   5.465   7.770
31269SOL    HW295582   4.043   5.471   7.921
31270SOL     OW95583   8.361   5.427  10.685
31270SOL    HW195584   8.379   5.421  10.779
31270SOL    HW295585   8.434   5.380  10.644
31271SOL     OW95586   2.614  12.824  11.838
31271SOL    HW195587   2.581  12.750  11.786
31271SOL    HW295588   2.686  12.787  11.889
31272SOL     OW95589  14.224   5.275   7.144
31272SOL    HW195590  14.238   5.362   7.182
31272SOL    HW295591  14.139   5.281   7.100
31273SOL     OW95592  12.004   7.079  10.826
31273SOL    HW195593  11.929   7.026  10.799
31273SOL    HW295594  12.023   7.050  10.915
31274SOL     OW95595   4.831   0.229   1.246
31274SOL    HW195596   4.768   0.298   1.224
31274SOL    HW295597   4.798   0.190   1.327
31275SOL     OW95598   9.808   7.527  11.556
31275SOL    HW195599   9.809   7.522  11.461
31275SOL    HW295600   9.788   7.438  11.585
31276SOL     OW95601   9.647  13.059   2.044
31276SOL    HW195602   9.605  13.084   1.962
31276SOL    HW295603   9.732  13.102   2.042
31277SOL     OW95604  13.315   7.852   9.237
31277SOL    HW195605  13.315   7.757   9.235
31277SOL    HW295606  13.255   7.878   9.167
31278SOL     OW95607   2.099  11.924  10.660
31278SOL    HW195608   2.010  11.933  10.625
31278SOL    HW295609   2.155  11.919  10.583
31279SOL     OW95610   5.196   7.986   0.637
31279SOL    HW195611   5.280   7.998   0.591
31279SOL    HW295612   5.220   7.985   0.730
31280SOL     OW95613   2.542   3.205   9.476
31280SOL    HW195614   2.614   3.220   9.537
31280SOL    HW295615   2.483   3.146   9.522
31281SOL     OW95616   0.022  12.915  13.901
31281SOL    HW195617   0.071  12.885  13.824
31281SOL    HW295618   0.054  13.004  13.916
31282SOL     OW95619   1.159   0.184   2.629
31282SOL    HW195620   1.103   0.253   2.665
31282SOL    HW295621   1.106   0.144   2.560
31283SOL     OW95622  13.740  13.188  11.887
31283SOL    HW195623  13.667  13.126  11.876
31283SOL    HW295624  13.714  13.264  11.835
31284SOL     OW95625  14.155   6.434   3.588
31284SOL    HW195626  14.204   6.376   3.647
31284SOL    HW295627  14.117   6.375   3.523
31285SOL     OW95628  13.206  10.505  10.190
31285SOL    HW195629  13.184  10.551  10.109
31285SOL    HW295630  13.278  10.446  10.166
31286SOL     OW95631  14.321   2.997   4.989
31286SOL    HW195632  14.388   2.961   5.047
31286SOL    HW295633  14.338   3.091   4.986
31287SOL     OW95634   8.273   1.637  11.370
31287SOL    HW195635   8.206   1.603  11.310
31287SOL    HW295636   8.350   1.583  11.352
31288SOL     OW95637   4.984   0.779   6.204
31288SOL    HW195638   4.997   0.827   6.286
31288SOL    HW295639   5.041   0.823   6.141
31289SOL     OW95640  14.385   7.381  14.576
31289SOL    HW195641  14.415   7.385  14.486
31289SOL    HW295642  14.412   7.295  14.607
31290SOL     OW95643   3.449  10.425   0.884
31290SOL    HW195644   3.494  10.490   0.830
31290SOL    HW295645   3.386  10.384   0.825
31291SOL     OW95646   6.546   4.253  11.889
31291SOL    HW195647   6.628   4.245  11.840
31291SOL    HW295648   6.506   4.167  11.883
31292SOL     OW95649   9.886  13.423   1.557
31292SOL    HW195650   9.815  13.378   1.603
31292SOL    HW295651   9.960  13.420   1.617
31293SOL     OW95652  14.827   8.696   9.200
31293SOL    HW195653  14.873   8.763   9.250
31293SOL    HW295654  14.795   8.634   9.266
31294SOL     OW95655  13.831  13.682   6.737
31294SOL    HW195656  13.888  13.644   6.669
31294SOL    HW295657  13.846  13.627   6.814
31295SOL     OW95658   0.989   5.986  13.567
31295SOL    HW195659   0.950   5.935  13.496
31295SOL    HW295660   1.068   6.024  13.528
31296SOL     OW95661  11.552   6.440  13.533
31296SOL    HW195662  11.583   6.422  13.621
31296SOL    HW295663  11.631   6.449  13.480
31297SOL     OW95664   1.521   0.226  13.903
31297SOL    HW195665   1.559   0.221  13.815
31297SOL    HW295666   1.596   0.238  13.961
31298SOL     OW95667   0.246  14.774  11.777
31298SOL    HW195668   0.304  14.771  11.701
31298SOL    HW295669   0.234  14.682  11.801
31299SOL     OW95670   5.132   0.843   8.962
31299SOL    HW195671   5.116   0.752   8.938
31299SOL    HW295672   5.195   0.874   8.897
31300SOL     OW95673   0.704  14.824   6.941
31300SOL    HW195674   0.778  14.777   6.979
31300SOL    HW295675   0.742   0.026   6.904
31301SOL     OW95676   8.204  10.240   8.032
31301SOL    HW195677   8.152  10.258   8.110
31301SOL    HW295678   8.260  10.166   8.056
31302SOL     OW95679   4.578   2.904  14.181
31302SOL    HW195680   4.636   2.893  14.256
31302SOL    HW295681   4.530   2.985  14.200
31303SOL     OW95682   5.090   7.743   5.524
31303SOL    HW195683   5.069   7.829   5.558
31303SOL    HW295684   5.037   7.734   5.445
31304SOL     OW95685  14.088  14.720   4.735
31304SOL    HW195686  14.026  14.776   4.781
31304SOL    HW295687  14.090  14.754   4.645
31305SOL     OW95688   8.721  13.777   1.287
31305SOL    HW195689   8.793  13.788   1.348
31305SOL    HW295690   8.739  13.694   1.243
31306SOL     OW95691  12.187   7.043   3.824
31306SOL    HW195692  12.196   7.002   3.910
31306SOL    HW295693  12.268   7.093   3.813
31307SOL     OW95694   2.555  12.519  14.472
31307SOL    HW195695   2.589  12.484  14.390
31307SOL    HW295696   2.630  12.515  14.532
31308SOL     OW95697   2.700   5.932   5.273
31308SOL    HW195698   2.663   6.015   5.242
31308SOL    HW295699   2.664   5.866   5.214
31309SOL     OW95700   9.464   7.401  10.885
31309SOL    HW195701   9.377   7.368  10.864
31309SOL    HW295702   9.492   7.349  10.960
31310SOL     OW95703   1.213   9.089   9.131
31310SOL    HW195704   1.304   9.059   9.129
31310SOL    HW295705   1.218   9.182   9.112
31311SOL     OW95706   5.041   7.108   6.202
31311SOL    HW195707   5.089   7.066   6.130
31311SOL    HW295708   5.095   7.185   6.225
31312SOL     OW95709   0.806   5.539   7.708
31312SOL    HW195710   0.741   5.603   7.677
31312SOL    HW295711   0.777   5.456   7.670
31313SOL     OW95712   7.059  13.184  11.121
31313SOL    HW195713   7.034  13.272  11.094
31313SOL    HW295714   7.105  13.147  11.045
31314SOL     OW95715  10.507  10.475  10.422
31314SOL    HW195716  10.573  10.413  10.452
31314SOL    HW295717  10.428  10.421  10.412
31315SOL     OW95718  12.550   8.790   8.673
31315SOL    HW195719  12.548   8.733   8.596
31315SOL    HW295720  12.542   8.879   8.636
31316SOL     OW95721   2.259   7.574  14.332
31316SOL    HW195722   2.191   7.626  14.375
31316SOL    HW295723   2.325   7.560  14.399
31317SOL     OW95724  13.595  11.493  12.118
31317SOL    HW195725  13.592  11.397  12.116
31317SOL    HW295726  13.570  11.520  12.029
31318SOL     OW95727   8.447   7.205  11.406
31318SOL    HW195728   8.417   7.117  11.427
31318SOL    HW295729   8.409   7.224  11.320
31319SOL     OW95730   5.202   0.686   1.120
31319SOL    HW195731   5.193   0.779   1.098
31319SOL    HW295732   5.182   0.640   1.038
31320SOL     OW95733   9.539   5.216   8.936
31320SOL    HW195734   9.489   5.295   8.919
31320SOL    HW295735   9.619   5.226   8.884
31321SOL     OW95736  14.101   6.220   8.172
31321SOL    HW195737  14.021   6.211   8.223
31321SOL    HW295738  14.150   6.140   8.188
31322SOL     OW95739   8.038   6.460   8.939
31322SOL    HW195740   7.989   6.500   8.867
31322SOL    HW295741   8.101   6.527   8.965
31323SOL     OW95742   0.883   3.381  10.906
31323SOL    HW195743   0.902   3.422  10.822
31323SOL    HW295744   0.969   3.362  10.944
31324SOL     OW95745   6.409  13.341   3.234
31324SOL    HW195746   6.476  13.378   3.291
31324SOL    HW295747   6.367  13.273   3.286
31325SOL     OW95748   0.825  14.207   8.848
31325SOL    HW195749   0.753  14.147   8.827
31325SOL    HW295750   0.791  14.294   8.828
31326SOL     OW95751   9.360   1.438  12.473
31326SOL    HW195752   9.361   1.478  12.386
31326SOL    HW295753   9.331   1.508  12.531
31327SOL     OW95754   2.832  14.278  10.248
31327SOL    HW195755   2.906  14.275  10.308
31327SOL    HW295756   2.790  14.192  10.258
31328SOL     OW95757  11.199  14.515   1.903
31328SOL    HW195758  11.157  14.595   1.872
31328SOL    HW295759  11.293  14.530   1.887
31329SOL     OW95760   1.442   4.919  10.243
31329SOL    HW195761   1.422   4.840  10.293
31329SOL    HW295762   1.357   4.950  10.213
31330SOL     OW95763   7.243   9.633   1.828
31330SOL    HW195764   7.200   9.584   1.758
31330SOL    HW295765   7.172   9.682   1.869
31331SOL     OW95766   0.646  11.530   2.967
31331SOL    HW195767   0.663  11.500   3.056
31331SOL    HW295768   0.695  11.470   2.912
31332SOL     OW95769   3.051  14.369  11.706
31332SOL    HW195770   2.961  14.360  11.736
31332SOL    HW295771   3.070  14.463  11.714
31333SOL     OW95772   1.230  11.072  14.830
31333SOL    HW195773   1.211  11.150  14.778
31333SOL    HW295774   1.224  11.000  14.767
31334SOL     OW95775  10.202   5.552   3.048
31334SOL    HW195776  10.203   5.618   2.979
31334SOL    HW295777  10.177   5.600   3.127
31335SOL     OW95778  12.269   8.525   9.875
31335SOL    HW195779  12.356   8.500   9.846
31335SOL    HW295780  12.278   8.617   9.902
31336SOL     OW95781   3.181   8.733   1.112
31336SOL    HW195782   3.096   8.773   1.096
31336SOL    HW295783   3.169   8.684   1.194
31337SOL     OW95784   0.159   4.205  14.296
31337SOL    HW195785   0.120   4.249  14.220
31337SOL    HW295786   0.188   4.276  14.353
31338SOL     OW95787   5.808   4.436  13.156
31338SOL    HW195788   5.718   4.432  13.191
31338SOL    HW295789   5.858   4.481  13.224
31339SOL     OW95790   9.053   9.756   6.695
31339SOL    HW195791   9.119   9.705   6.648
31339SOL    HW295792   9.102   9.827   6.736
31340SOL     OW95793   2.961   9.919  14.092
31340SOL    HW195794   3.049   9.884  14.107
31340SOL    HW295795   2.972   9.983  14.022
31341SOL     OW95796  10.467  13.640  11.512
31341SOL    HW195797  10.507  13.722  11.484
31341SOL    HW295798  10.518  13.613  11.589
31342SOL     OW95799  11.808   4.402   2.657
31342SOL    HW195800  11.820   4.341   2.730
31342SOL    HW295801  11.754   4.353   2.594
31343SOL     OW95802  11.491  14.540  13.292
31343SOL    HW195803  11.511  14.448  13.277
31343SOL    HW295804  11.484  14.548  13.387
31344SOL     OW95805   2.871   3.986   8.734
31344SOL    HW195806   2.925   3.984   8.655
31344SOL    HW295807   2.790   3.942   8.709
31345SOL     OW95808  11.838  10.241  10.178
31345SOL    HW195809  11.884  10.296  10.116
31345SOL    HW295810  11.759  10.213  10.131
31346SOL     OW95811  11.615   1.764   3.120
31346SOL    HW195812  11.702   1.728   3.109
31346SOL    HW295813  11.615   1.802   3.208
31347SOL     OW95814   9.652   3.518   4.067
31347SOL    HW195815   9.678   3.453   4.132
31347SOL    HW295816   9.602   3.468   4.002
31348SOL     OW95817   4.533   5.015  10.836
31348SOL    HW195818   4.522   4.980  10.747
31348SOL    HW295819   4.626   5.033  10.843
31349SOL     OW95820   8.406  14.208  11.838
31349SOL    HW195821   8.433  14.192  11.929
31349SOL    HW295822   8.478  14.173  11.786
31350SOL     OW95823   8.981  11.797   2.612
31350SOL    HW195824   9.028  11.821   2.692
31350SOL    HW295825   8.969  11.880   2.566
31351SOL     OW95826  10.579  13.182   7.849
31351SOL    HW195827  10.523  13.149   7.919
31351SOL    HW295828  10.549  13.271   7.834
31352SOL     OW95829  10.465   7.988   7.954
31352SOL    HW195830  10.394   7.928   7.976
31352SOL    HW295831  10.432   8.074   7.980
31353SOL     OW95832   5.673   5.037  11.377
31353SOL    HW195833   5.686   4.968  11.442
31353SOL    HW295834   5.761   5.062  11.351
31354SOL     OW95835   7.910  13.832   5.313
31354SOL    HW195836   7.923  13.927   5.308
31354SOL    HW295837   7.977  13.796   5.255
31355SOL     OW95838   9.676   6.064   1.574
31355SOL    HW195839   9.592   6.049   1.530
31355SOL    HW295840   9.654   6.121   1.648
31356SOL     OW95841   0.619   2.378   7.226
31356SOL    HW195842   0.539   2.370   7.279
31356SOL    HW295843   0.678   2.431   7.279
31357SOL     OW95844   9.127  14.758  13.916
31357SOL    HW195845   9.037  14.788  13.907
31357SOL    HW295846   9.179  14.838  13.915
31358SOL     OW95847   9.633  10.661  13.159
31358SOL    HW195848   9.611  10.568  13.158
31358SOL    HW295849   9.706  10.668  13.220
31359SOL     OW95850  10.357   4.327   4.554
31359SOL    HW195851  10.335   4.359   4.641
31359SOL    HW295852  10.435   4.376   4.529
31360SOL     OW95853  10.938   1.128  11.615
31360SOL    HW195854  10.917   1.106  11.524
31360SOL    HW295855  10.857   1.166  11.650
31361SOL     OW95856  14.142   6.585   6.783
31361SOL    HW195857  14.097   6.655   6.830
31361SOL    HW295858  14.228   6.579   6.826
31362SOL     OW95859   8.337   8.152  13.269
31362SOL    HW195860   8.363   8.243  13.282
31362SOL    HW295861   8.418   8.102  13.279
31363SOL     OW95862   0.722   0.596  11.596
31363SOL    HW195863   0.704   0.670  11.655
31363SOL    HW295864   0.729   0.520  11.654
31364SOL     OW95865  14.548   5.449   3.761
31364SOL    HW195866  14.459   5.432   3.731
31364SOL    HW295867  14.574   5.368   3.805
31365SOL     OW95868   5.251  10.354   9.475
31365SOL    HW195869   5.280  10.436   9.515
31365SOL    HW295870   5.164  10.374   9.441
31366SOL     OW95871  13.814   2.678   3.258
31366SOL    HW195872  13.808   2.599   3.312
31366SOL    HW295873  13.732   2.724   3.274
31367SOL     OW95874   4.611  12.268   9.252
31367SOL    HW195875   4.662  12.331   9.303
31367SOL    HW295876   4.638  12.283   9.162
31368SOL     OW95877   3.845  13.937   6.360
31368SOL    HW195878   3.905  14.011   6.356
31368SOL    HW295879   3.899  13.861   6.340
31369SOL     OW95880   6.629  10.937   5.086
31369SOL    HW195881   6.663  11.026   5.096
31369SOL    HW295882   6.535  10.950   5.070
31370SOL     OW95883   3.963   8.293  11.156
31370SOL    HW195884   4.000   8.205  11.153
31370SOL    HW295885   3.869   8.279  11.168
31371SOL     OW95886   6.221   0.544   3.651
31371SOL    HW195887   6.249   0.593   3.728
31371SOL    HW295888   6.209   0.454   3.683
31372SOL     OW95889   3.207   0.857   4.476
31372SOL    HW195890   3.200   0.911   4.555
31372SOL    HW295891   3.128   0.878   4.426
31373SOL     OW95892   0.899   5.026  11.482
31373SOL    HW195893   0.824   5.031  11.423
31373SOL    HW295894   0.872   4.964  11.550
31374SOL     OW95895   6.986   6.487   6.935
31374SOL    HW195896   7.044   6.471   6.861
31374SOL    HW295897   7.018   6.570   6.973
31375SOL     OW95898   0.485  10.780   7.481
31375SOL    HW195899   0.522  10.774   7.393
31375SOL    HW295900   0.538  10.721   7.534
31376SOL     OW95901   1.926   0.701   6.966
31376SOL    HW195902   1.871   0.622   6.971
31376SOL    HW295903   1.965   0.708   7.053
31377SOL     OW95904   2.770  14.313   1.705
31377SOL    HW195905   2.725  14.398   1.704
31377SOL    HW295906   2.706  14.252   1.740
31378SOL     OW95907   7.502   0.755   1.380
31378SOL    HW195908   7.596   0.736   1.371
31378SOL    HW295909   7.459   0.671   1.363
31379SOL     OW95910  14.066   5.857  13.109
31379SOL    HW195911  14.099   5.856  13.019
31379SOL    HW295912  13.978   5.893  13.102
31380SOL     OW95913  13.698   3.555  12.360
31380SOL    HW195914  13.765   3.520  12.418
31380SOL    HW295915  13.619   3.559  12.413
31381SOL     OW95916   3.097   0.775  11.050
31381SOL    HW195917   3.060   0.695  11.089
31381SOL    HW295918   3.079   0.765  10.957
31382SOL     OW95919  14.566  11.806   9.012
31382SOL    HW195920  14.563  11.729   8.955
31382SOL    HW295921  14.586  11.770   9.099
31383SOL     OW95922   6.242  10.103   0.286
31383SOL    HW195923   6.203  10.075   0.203
31383SOL    HW295924   6.202  10.188   0.304
31384SOL     OW95925   9.309  10.178   0.359
31384SOL    HW195926   9.372  10.167   0.288
31384SOL    HW295927   9.263  10.094   0.364
31385SOL     OW95928  12.137   6.848   0.073
31385SOL    HW195929  12.063   6.902   0.102
31385SOL    HW295930  12.145   6.781   0.140
31386SOL     OW95931   7.112   4.048   2.500
31386SOL    HW195932   7.052   4.034   2.574
31386SOL    HW295933   7.073   4.120   2.451
31387SOL     OW95934  14.449   8.103   6.913
31387SOL    HW195935  14.476   8.157   6.839
31387SOL    HW295936  14.366   8.065   6.885
31388SOL     OW95937   2.913   6.447   9.428
31388SOL    HW195938   3.002   6.459   9.461
31388SOL    HW295939   2.894   6.355   9.442
31389SOL     OW95940   5.384  11.454   3.975
31389SOL    HW195941   5.336  11.432   3.895
31389SOL    HW295942   5.337  11.408   4.045
31390SOL     OW95943   7.528   5.216   3.093
31390SOL    HW195944   7.532   5.312   3.092
31390SOL    HW295945   7.617   5.190   3.119
31391SOL     OW95946   7.882   2.575  14.658
31391SOL    HW195947   7.966   2.573  14.704
31391SOL    HW295948   7.895   2.638  14.587
31392SOL     OW95949   8.358   0.719   4.514
31392SOL    HW195950   8.432   0.773   4.489
31392SOL    HW295951   8.357   0.723   4.610
31393SOL     OW95952   1.368   5.653   1.070
31393SOL    HW195953   1.304   5.723   1.059
31393SOL    HW295954   1.453   5.695   1.059
31394SOL     OW95955  13.546   7.082   1.875
31394SOL    HW195956  13.568   7.158   1.929
31394SOL    HW295957  13.578   7.104   1.788
31395SOL     OW95958   3.878   6.722   8.710
31395SOL    HW195959   3.827   6.665   8.769
31395SOL    HW295960   3.944   6.761   8.767
31396SOL     OW95961   5.984   1.582   9.375
31396SOL    HW195962   6.035   1.639   9.317
31396SOL    HW295963   5.978   1.631   9.457
31397SOL     OW95964  10.283   5.136  11.963
31397SOL    HW195965  10.355   5.145  12.024
31397SOL    HW295966  10.207   5.173  12.009
31398SOL     OW95967  10.724  11.109   4.604
31398SOL    HW195968  10.744  11.084   4.694
31398SOL    HW295969  10.745  11.031   4.552
31399SOL     OW95970  13.287  12.998   0.290
31399SOL    HW195971  13.216  13.045   0.334
31399SOL    HW295972  13.346  13.067   0.260
31400SOL     OW95973   4.087   9.058  12.244
31400SOL    HW195974   4.026   9.030  12.313
31400SOL    HW295975   4.031   9.101  12.179
31401SOL     OW95976   3.378   9.437  14.415
31401SOL    HW195977   3.337   9.373  14.357
31401SOL    HW295978   3.396   9.389  14.496
31402SOL     OW95979   0.855   1.595   4.113
31402SOL    HW195980   0.775   1.613   4.163
31402SOL    HW295981   0.882   1.680   4.078
31403SOL     OW95982  14.021   4.369  10.572
31403SOL    HW195983  13.959   4.304  10.605
31403SOL    HW295984  14.090   4.318  10.530
31404SOL     OW95985  11.545   0.811  10.981
31404SOL    HW195986  11.510   0.847  11.062
31404SOL    HW295987  11.468   0.783  10.931
31405SOL     OW95988  12.737   3.211  10.018
31405SOL    HW195989  12.796   3.280   9.990
31405SOL    HW295990  12.777   3.176  10.098
31406SOL     OW95991  14.304   6.048  14.836
31406SOL    HW195992  14.288   6.078   0.048
31406SOL    HW295993  14.220   6.012  14.807
31407SOL     OW95994  14.052  11.326   0.776
31407SOL    HW195995  14.120  11.291   0.834
31407SOL    HW295996  14.051  11.266   0.701
31408SOL     OW95997   6.890  14.101   9.293
31408SOL    HW195998   6.935  14.113   9.377
31408SOL    HW295999   6.808  14.150   9.301
31409SOL     OW96000  12.165  12.929   2.218
31409SOL    HW196001  12.258  12.937   2.237
31409SOL    HW296002  12.160  12.862   2.149
31410SOL     OW96003  10.334  10.753   5.096
31410SOL    HW196004  10.306  10.760   5.004
31410SOL    HW296005  10.427  10.734   5.091
31411SOL     OW96006   7.565  10.753   3.464
31411SOL    HW196007   7.554  10.840   3.502
31411SOL    HW296008   7.561  10.694   3.539
31412SOL     OW96009   7.317   5.481  12.775
31412SOL    HW196010   7.408   5.454  12.767
31412SOL    HW296011   7.317   5.574  12.749
31413SOL     OW96012   0.955  10.631  10.795
31413SOL    HW196013   1.032  10.615  10.850
31413SOL    HW296014   0.908  10.701  10.841
31414SOL     OW96015   9.369   5.326   5.877
31414SOL    HW196016   9.298   5.291   5.825
31414SOL    HW296017   9.325   5.379   5.944
31415SOL     OW96018   9.267   8.313  14.110
31415SOL    HW196019   9.174   8.321  14.129
31415SOL    HW296020   9.299   8.249  14.174
31416SOL     OW96021  11.518  12.066   7.207
31416SOL    HW196022  11.436  12.027   7.236
31416SOL    HW296023  11.534  12.139   7.268
31417SOL     OW96024   0.310  10.664  13.299
31417SOL    HW196025   0.262  10.629  13.374
31417SOL    HW296026   0.400  10.635  13.312
31418SOL     OW96027   4.904   6.516  12.051
31418SOL    HW196028   4.926   6.506  11.958
31418SOL    HW296029   4.810   6.498  12.055
31419SOL     OW96030   1.423   7.898   8.969
31419SOL    HW196031   1.384   7.876   8.884
31419SOL    HW296032   1.355   7.946   9.015
31420SOL     OW96033   7.159   3.097  14.680
31420SOL    HW196034   7.140   3.176  14.629
31420SOL    HW296035   7.211   3.128  14.754
31421SOL     OW96036   7.726   1.574   3.808
31421SOL    HW196037   7.822   1.573   3.809
31421SOL    HW296038   7.702   1.571   3.901
31422SOL     OW96039  13.989   5.532   2.017
31422SOL    HW196040  13.898   5.537   1.986
31422SOL    HW296041  14.039   5.511   1.938
31423SOL     OW96042   3.234  14.508   2.643
31423SOL    HW196043   3.190  14.424   2.657
31423SOL    HW296044   3.212  14.560   2.720
31424SOL     OW96045   4.892   8.878   3.186
31424SOL    HW196046   4.850   8.792   3.178
31424SOL    HW296047   4.965   8.863   3.247
31425SOL     OW96048   1.679   8.011  13.282
31425SOL    HW196049   1.686   7.916  13.291
31425SOL    HW296050   1.674   8.044  13.372
31426SOL     OW96051   6.785   1.161   0.076
31426SOL    HW196052   6.692   1.170   0.097
31426SOL    HW296053   6.812   1.248   0.048
31427SOL     OW96054   9.621   3.416   3.108
31427SOL    HW196055   9.629   3.506   3.138
31427SOL    HW296056   9.695   3.404   3.048
31428SOL     OW96057   4.253  11.611  11.840
31428SOL    HW196058   4.283  11.542  11.781
31428SOL    HW296059   4.250  11.689  11.785
31429SOL     OW96060   1.149   0.583   3.767
31429SOL    HW196061   1.154   0.648   3.697
31429SOL    HW296062   1.230   0.533   3.758
31430SOL     OW96063  14.258   8.826   4.737
31430SOL    HW196064  14.180   8.788   4.778
31430SOL    HW296065  14.318   8.752   4.728
31431SOL     OW96066   1.197   5.561   5.241
31431SOL    HW196067   1.137   5.629   5.209
31431SOL    HW296068   1.217   5.588   5.331
31432SOL     OW96069   8.071  11.555  10.061
31432SOL    HW196070   8.007  11.485  10.071
31432SOL    HW296071   8.020  11.636  10.067
31433SOL     OW96072   8.744  12.358  11.243
31433SOL    HW196073   8.765  12.446  11.276
31433SOL    HW296074   8.767  12.299  11.314
31434SOL     OW96075   1.826   8.816  13.805
31434SOL    HW196076   1.913   8.776  13.805
31434SOL    HW296077   1.834   8.891  13.746
31435SOL     OW96078   7.089   6.906   0.726
31435SOL    HW196079   7.155   6.839   0.707
31435SOL    HW296080   7.017   6.885   0.667
31436SOL     OW96081   5.543   2.409  14.610
31436SOL    HW196082   5.623   2.379  14.652
31436SOL    HW296083   5.477   2.409  14.680
31437SOL     OW96084  14.455   9.179   8.690
31437SOL    HW196085  14.397   9.104   8.680
31437SOL    HW296086  14.496   9.189   8.604
31438SOL     OW96087  11.514   0.164  12.731
31438SOL    HW196088  11.591   0.218  12.746
31438SOL    HW296089  11.518   0.142  12.637
31439SOL     OW96090  12.966  12.837   5.456
31439SOL    HW196091  13.009  12.834   5.541
31439SOL    HW296092  12.971  12.930   5.430
31440SOL     OW96093   1.869  10.066   1.374
31440SOL    HW196094   1.843  10.135   1.435
31440SOL    HW296095   1.788  10.039   1.332
31441SOL     OW96096   2.060   9.461   7.810
31441SOL    HW196097   2.125   9.527   7.834
31441SOL    HW296098   2.112   9.384   7.787
31442SOL     OW96099   0.634   8.207   8.879
31442SOL    HW196100   0.619   8.184   8.788
31442SOL    HW296101   0.563   8.267   8.901
31443SOL     OW96102   5.749   6.737   5.857
31443SOL    HW196103   5.770   6.689   5.937
31443SOL    HW296104   5.689   6.679   5.810
31444SOL     OW96105  12.197  14.209   7.115
31444SOL    HW196106  12.140  14.140   7.083
31444SOL    HW296107  12.194  14.276   7.047
31445SOL     OW96108   7.836   5.763   7.798
31445SOL    HW196109   7.761   5.724   7.752
31445SOL    HW296110   7.909   5.750   7.737
31446SOL     OW96111  10.425  12.680   8.171
31446SOL    HW196112  10.512  12.702   8.203
31446SOL    HW296113  10.393  12.614   8.233
31447SOL     OW96114   2.177   4.841   0.672
31447SOL    HW196115   2.248   4.781   0.652
31447SOL    HW296116   2.164   4.891   0.592
31448SOL     OW96117  13.579   4.289  14.415
31448SOL    HW196118  13.592   4.195  14.406
31448SOL    HW296119  13.662   4.327  14.385
31449SOL     OW96120   5.097  11.881   9.719
31449SOL    HW196121   5.058  11.796   9.700
31449SOL    HW296122   5.078  11.896   9.812
31450SOL     OW96123  10.362  12.307  13.125
31450SOL    HW196124  10.364  12.277  13.034
31450SOL    HW296125  10.381  12.401  13.119
31451SOL     OW96126   8.686   6.841   2.593
31451SOL    HW196127   8.641   6.777   2.647
31451SOL    HW296128   8.620   6.873   2.532
31452SOL     OW96129  13.209   5.900  13.728
31452SOL    HW196130  13.132   5.848  13.750
31452SOL    HW296131  13.265   5.895  13.805
31453SOL     OW96132   6.629   6.427   7.813
31453SOL    HW196133   6.700   6.477   7.851
31453SOL    HW296134   6.622   6.459   7.723
31454SOL     OW96135  14.245  13.844   4.128
31454SOL    HW196136  14.164  13.794   4.126
31454SOL    HW296137  14.283  13.833   4.041
31455SOL     OW96138  13.341   5.395   0.867
31455SOL    HW196139  13.414   5.388   0.805
31455SOL    HW296140  13.335   5.308   0.906
31456SOL     OW96141   9.332   5.979  11.787
31456SOL    HW196142   9.411   5.954  11.738
31456SOL    HW296143   9.353   6.064  11.826
31457SOL     OW96144  12.411   6.193  13.489
31457SOL    HW196145  12.395   6.118  13.433
31457SOL    HW296146  12.444   6.156  13.571
31458SOL     OW96147  11.524   8.820   8.459
31458SOL    HW196148  11.599   8.856   8.411
31458SOL    HW296149  11.487   8.754   8.400
31459SOL     OW96150  12.984  10.279   1.870
31459SOL    HW196151  12.972  10.345   1.803
31459SOL    HW296152  13.005  10.328   1.949
31460SOL     OW96153   5.828  14.436   2.878
31460SOL    HW196154   5.887  14.398   2.814
31460SOL    HW296155   5.769  14.365   2.903
31461SOL     OW96156   2.281  13.149   8.754
31461SOL    HW196157   2.251  13.186   8.671
31461SOL    HW296158   2.201  13.124   8.799
31462SOL     OW96159   7.424   0.142   7.989
31462SOL    HW196160   7.517   0.136   8.011
31462SOL    HW296161   7.396   0.051   7.983
31463SOL     OW96162   0.440   6.897  14.567
31463SOL    HW196163   0.427   6.906  14.662
31463SOL    HW296164   0.374   6.833  14.541
31464SOL     OW96165  12.847   0.394   5.089
31464SOL    HW196166  12.822   0.340   5.014
31464SOL    HW296167  12.941   0.409   5.077
31465SOL     OW96168   9.342   3.004   4.009
31465SOL    HW196169   9.366   2.923   4.054
31465SOL    HW296170   9.413   3.065   4.029
31466SOL     OW96171  10.522   9.013  11.131
31466SOL    HW196172  10.596   9.066  11.161
31466SOL    HW296173  10.456   9.077  11.105
31467SOL     OW96174   2.113  10.194  12.603
31467SOL    HW196175   2.207  10.191  12.623
31467SOL    HW296176   2.074  10.128  12.660
31468SOL     OW96177   9.676   1.571   5.924
31468SOL    HW196178   9.640   1.483   5.916
31468SOL    HW296179   9.624   1.612   5.993
31469SOL     OW96180   6.049  14.667  12.365
31469SOL    HW196181   6.117  14.733  12.347
31469SOL    HW296182   6.052  14.609  12.289
31470SOL     OW96183  13.506   5.563   8.784
31470SOL    HW196184  13.536   5.653   8.794
31470SOL    HW296185  13.518   5.524   8.870
31471SOL     OW96186   5.342   5.665   6.529
31471SOL    HW196187   5.346   5.638   6.621
31471SOL    HW296188   5.318   5.585   6.482
31472SOL     OW96189   2.074   4.729   0.163
31472SOL    HW196190   2.089   4.684   0.080
31472SOL    HW296191   2.011   4.674   0.209
31473SOL     OW96192   1.076   4.302   8.552
31473SOL    HW196193   1.001   4.360   8.566
31473SOL    HW296194   1.141   4.356   8.508
31474SOL     OW96195   4.458  11.209   9.414
31474SOL    HW196196   4.391  11.276   9.398
31474SOL    HW296197   4.414  11.144   9.469
31475SOL     OW96198  13.907  11.427  10.835
31475SOL    HW196199  13.870  11.342  10.811
31475SOL    HW296200  13.864  11.449  10.918
31476SOL     OW96201   4.453   0.832   8.851
31476SOL    HW196202   4.488   0.918   8.829
31476SOL    HW296203   4.358   0.842   8.846
31477SOL     OW96204   6.792  10.623   0.997
31477SOL    HW196205   6.859  10.657   0.937
31477SOL    HW296206   6.829  10.542   1.032
31478SOL     OW96207  11.244   0.399   1.870
31478SOL    HW196208  11.225   0.326   1.930
31478SOL    HW296209  11.168   0.403   1.812
31479SOL     OW96210   1.287   2.850  12.934
31479SOL    HW196211   1.339   2.905  12.992
31479SOL    HW296212   1.345   2.830  12.861
31480SOL     OW96213   7.938   1.904   0.174
31480SOL    HW196214   7.852   1.947   0.183
31480SOL    HW296215   7.977   1.945   0.097
31481SOL     OW96216   1.535   4.740   9.697
31481SOL    HW196217   1.503   4.717   9.610
31481SOL    HW296218   1.574   4.827   9.685
31482SOL     OW96219   1.178  11.908  11.907
31482SOL    HW196220   1.205  11.985  11.959
31482SOL    HW296221   1.189  11.834  11.967
31483SOL     OW96222  14.264   2.885  11.316
31483SOL    HW196223  14.198   2.902  11.250
31483SOL    HW296224  14.282   2.791  11.308
31484SOL     OW96225   2.358  10.290   9.354
31484SOL    HW196226   2.451  10.284   9.374
31484SOL    HW296227   2.325  10.354   9.417
31485SOL     OW96228  11.155  13.704   4.990
31485SOL    HW196229  11.213  13.650   5.044
31485SOL    HW296230  11.118  13.768   5.051
31486SOL     OW96231   2.059  13.257   5.288
31486SOL    HW196232   1.964  13.248   5.289
31486SOL    HW296233   2.092  13.167   5.284
31487SOL     OW96234   0.818   1.873   2.293
31487SOL    HW196235   0.818   1.957   2.247
31487SOL    HW296236   0.738   1.829   2.263
31488SOL     OW96237   6.866   6.878   8.451
31488SOL    HW196238   6.853   6.807   8.513
31488SOL    HW296239   6.821   6.953   8.490
31489SOL     OW96240  14.571   8.470  12.343
31489SOL    HW196241  14.531   8.546  12.302
31489SOL    HW296242  14.620   8.506  12.417
31490SOL     OW96243   0.342   5.593  12.031
31490SOL    HW196244   0.368   5.506  11.999
31490SOL    HW296245   0.262   5.613  11.983
31491SOL     OW96246   7.255  13.658   2.159
31491SOL    HW196247   7.338  13.653   2.111
31491SOL    HW296248   7.188  13.665   2.091
31492SOL     OW96249  13.019  10.096   4.109
31492SOL    HW196250  12.966  10.027   4.149
31492SOL    HW296251  12.978  10.177   4.140
31493SOL     OW96252   6.339   0.471   4.146
31493SOL    HW196253   6.389   0.527   4.205
31493SOL    HW296254   6.283   0.420   4.203
31494SOL     OW96255   0.236   8.872   5.448
31494SOL    HW196256   0.278   8.788   5.462
31494SOL    HW296257   0.307   8.936   5.451
31495SOL     OW96258  11.190   3.163   0.978
31495SOL    HW196259  11.162   3.100   0.912
31495SOL    HW296260  11.158   3.248   0.946
31496SOL     OW96261   0.032   5.084   7.641
31496SOL    HW196262  14.871   5.170   7.623
31496SOL    HW296263  14.876   5.028   7.570
31497SOL     OW96264  12.806   7.412   1.255
31497SOL    HW196265  12.764   7.356   1.320
31497SOL    HW296266  12.852   7.351   1.197
31498SOL     OW96267  14.090   4.589  12.494
31498SOL    HW196268  14.167   4.636  12.463
31498SOL    HW296269  14.125   4.513  12.540
31499SOL     OW96270  12.895   2.631  12.322
31499SOL    HW196271  12.891   2.722  12.291
31499SOL    HW296272  12.805   2.599  12.313
31500SOL     OW96273   5.778  13.760   6.749
31500SOL    HW196274   5.785  13.785   6.841
31500SOL    HW296275   5.795  13.666   6.748
31501SOL     OW96276   3.106   6.931   1.703
31501SOL    HW196277   3.078   6.848   1.665
31501SOL    HW296278   3.129   6.909   1.794
31502SOL     OW96279   9.774  10.184   5.439
31502SOL    HW196280   9.798  10.127   5.512
31502SOL    HW296281   9.818  10.266   5.457
31503SOL     OW96282   9.861  11.741   2.764
31503SOL    HW196283   9.846  11.809   2.698
31503SOL    HW296284   9.951  11.713   2.750
31504SOL     OW96285   9.106   2.309  10.632
31504SOL    HW196286   9.052   2.240  10.669
31504SOL    HW296287   9.054   2.343  10.559
31505SOL     OW96288  10.228   6.065   6.308
31505SOL    HW196289  10.172   6.030   6.378
31505SOL    HW296290  10.277   6.136   6.350
31506SOL     OW96291  13.860   3.016   4.025
31506SOL    HW196292  13.885   2.954   4.094
31506SOL    HW296293  13.796   2.968   3.972
31507SOL     OW96294  11.284   7.743   8.725
31507SOL    HW196295  11.258   7.681   8.793
31507SOL    HW296296  11.226   7.725   8.651
31508SOL     OW96297  12.258  13.489   4.827
31508SOL    HW196298  12.342  13.446   4.809
31508SOL    HW296299  12.247  13.481   4.922
31509SOL     OW96300   8.142   5.559   5.047
31509SOL    HW196301   8.194   5.600   5.115
31509SOL    HW296302   8.199   5.556   4.970
31510SOL     OW96303   6.942  12.115   6.549
31510SOL    HW196304   7.016  12.054   6.542
31510SOL    HW296305   6.980  12.201   6.533
31511SOL     OW96306   2.751  13.274  13.463
31511SOL    HW196307   2.671  13.222  13.461
31511SOL    HW296308   2.813  13.219  13.511
31512SOL     OW96309  11.478   1.809  13.552
31512SOL    HW196310  11.503   1.724  13.515
31512SOL    HW296311  11.383   1.813  13.540
31513SOL     OW96312  13.176   0.199   3.025
31513SOL    HW196313  13.222   0.271   2.983
31513SOL    HW296314  13.202   0.204   3.117
31514SOL     OW96315  14.783  10.681  11.630
31514SOL    HW196316  14.798  10.630  11.710
31514SOL    HW296317  14.788  10.772  11.658
31515SOL     OW96318  11.996   3.561  14.569
31515SOL    HW196319  11.984   3.612  14.489
31515SOL    HW296320  12.045   3.484  14.540
31516SOL     OW96321   2.200   0.520   0.851
31516SOL    HW196322   2.152   0.560   0.778
31516SOL    HW296323   2.170   0.566   0.929
31517SOL     OW96324   2.682   6.187   5.514
31517SOL    HW196325   2.597   6.158   5.546
31517SOL    HW296326   2.739   6.111   5.524
31518SOL     OW96327   0.921  13.204   3.013
31518SOL    HW196328   0.938  13.293   3.045
31518SOL    HW296329   0.987  13.150   3.057
31519SOL     OW96330   6.489   4.347  14.201
31519SOL    HW196331   6.435   4.402  14.258
31519SOL    HW296332   6.426   4.297  14.149
31520SOL     OW96333   3.457  11.064  14.625
31520SOL    HW196334   3.380  11.055  14.681
31520SOL    HW296335   3.423  11.100  14.543
31521SOL     OW96336  13.880   2.487   7.941
31521SOL    HW196337  13.919   2.522   7.861
31521SOL    HW296338  13.796   2.450   7.912
31522SOL     OW96339   3.101  14.497   6.888
31522SOL    HW196340   3.088  14.403   6.893
31522SOL    HW296341   3.016  14.532   6.861
31523SOL     OW96342  13.921   4.226   4.044
31523SOL    HW196343  13.841   4.175   4.060
31523SOL    HW296344  13.988   4.182   4.096
31524SOL     OW96345  14.593   2.208   3.296
31524SOL    HW196346  14.641   2.216   3.214
31524SOL    HW296347  14.501   2.207   3.270
31525SOL     OW96348   3.101  10.855  11.486
31525SOL    HW196349   3.049  10.780  11.457
31525SOL    HW296350   3.057  10.930  11.448
31526SOL     OW96351   1.002   0.087   3.277
31526SOL    HW196352   1.014   0.089   3.372
31526SOL    HW296353   1.024   0.175   3.248
31527SOL     OW96354   7.691  11.289  11.136
31527SOL    HW196355   7.676  11.196  11.121
31527SOL    HW296356   7.749  11.292  11.212
31528SOL     OW96357  11.745  14.135   5.535
31528SOL    HW196358  11.780  14.214   5.493
31528SOL    HW296359  11.701  14.088   5.465
31529SOL     OW96360   7.455  12.809  10.038
31529SOL    HW196361   7.509  12.820  10.117
31529SOL    HW296362   7.508  12.845   9.967
31530SOL     OW96363   0.822   0.233   2.873
31530SOL    HW196364   0.881   0.308   2.871
31530SOL    HW296365   0.876   0.160   2.840
31531SOL     OW96366  13.208  13.035  11.750
31531SOL    HW196367  13.128  13.034  11.697
31531SOL    HW296368  13.209  12.950  11.794
31532SOL     OW96369   3.978  13.645   9.602
31532SOL    HW196370   3.933  13.567   9.570
31532SOL    HW296371   4.070  13.631   9.579
31533SOL     OW96372   2.390   2.421   1.832
31533SOL    HW196373   2.296   2.418   1.849
31533SOL    HW296374   2.405   2.507   1.792
31534SOL     OW96375   4.228   9.814  10.080
31534SOL    HW196376   4.174   9.827  10.158
31534SOL    HW296377   4.170   9.837  10.007
31535SOL     OW96378   0.857   0.492   9.687
31535SOL    HW196379   0.939   0.480   9.735
31535SOL    HW296380   0.791   0.502   9.755
31536SOL     OW96381   1.294  13.601   7.503
31536SOL    HW196382   1.335  13.646   7.429
31536SOL    HW296383   1.206  13.638   7.508
31537SOL     OW96384   9.699   8.041  12.573
31537SOL    HW196385   9.713   8.000  12.488
31537SOL    HW296386   9.626   8.102  12.560
31538SOL     OW96387   4.455  12.538   6.780
31538SOL    HW196388   4.500  12.470   6.829
31538SOL    HW296389   4.363  12.513   6.782
31539SOL     OW96390   7.129   7.079   1.687
31539SOL    HW196391   7.200   7.061   1.749
31539SOL    HW296392   7.169   7.133   1.619
31540SOL     OW96393   4.066   1.755   3.442
31540SOL    HW196394   4.136   1.781   3.501
31540SOL    HW296395   4.029   1.676   3.483
31541SOL     OW96396   3.083   5.219   5.859
31541SOL    HW196397   3.077   5.165   5.939
31541SOL    HW296398   3.128   5.164   5.796
31542SOL     OW96399  10.883   3.045   0.085
31542SOL    HW196400  10.935   3.116   0.047
31542SOL    HW296401  10.948   2.983   0.118
31543SOL     OW96402  10.599  13.277   3.491
31543SOL    HW196403  10.672  13.226   3.526
31543SOL    HW296404  10.567  13.226   3.418
31544SOL     OW96405   5.029   4.621   5.425
31544SOL    HW196406   4.938   4.611   5.396
31544SOL    HW296407   5.022   4.660   5.512
31545SOL     OW96408   0.887   4.717  14.175
31545SOL    HW196409   0.800   4.725  14.214
31545SOL    HW296410   0.913   4.808  14.155
31546SOL     OW96411   1.479   2.801   5.524
31546SOL    HW196412   1.518   2.817   5.610
31546SOL    HW296413   1.453   2.888   5.493
31547SOL     OW96414  13.316   2.631  11.487
31547SOL    HW196415  13.272   2.667  11.411
31547SOL    HW296416  13.403   2.606  11.455
31548SOL     OW96417   5.704   3.527  12.414
31548SOL    HW196418   5.610   3.518  12.401
31548SOL    HW296419   5.713   3.594  12.482
31549SOL     OW96420   5.866   4.056   1.951
31549SOL    HW196421   5.799   4.064   2.018
31549SOL    HW296422   5.828   3.997   1.886
31550SOL     OW96423   2.672   0.511   7.875
31550SOL    HW196424   2.646   0.559   7.796
31550SOL    HW296425   2.654   0.419   7.855
31551SOL     OW96426   8.986  10.928   2.102
31551SOL    HW196427   9.008  10.963   2.015
31551SOL    HW296428   8.903  10.970   2.125
31552SOL     OW96429   6.319   7.002   2.883
31552SOL    HW196430   6.360   7.087   2.897
31552SOL    HW296431   6.225   7.019   2.888
31553SOL     OW96432  12.064   4.684   2.040
31553SOL    HW196433  11.988   4.733   2.073
31553SOL    HW296434  12.129   4.752   2.019
31554SOL     OW96435   1.360   3.084   2.075
31554SOL    HW196436   1.316   2.999   2.074
31554SOL    HW296437   1.449   3.065   2.105
31555SOL     OW96438   7.882  14.681   7.716
31555SOL    HW196439   7.909  14.648   7.802
31555SOL    HW296440   7.840  14.765   7.735
31556SOL     OW96441   8.439   4.523   4.449
31556SOL    HW196442   8.503   4.452   4.451
31556SOL    HW296443   8.442   4.556   4.359
31557SOL     OW96444   0.655   1.214   1.825
31557SOL    HW196445   0.743   1.245   1.806
31557SOL    HW296446   0.602   1.248   1.753
31558SOL     OW96447  11.032   3.589   5.017
31558SOL    HW196448  11.060   3.520   4.957
31558SOL    HW296449  10.937   3.583   5.018
31559SOL     OW96450  14.447   3.548   5.704
31559SOL    HW196451  14.491   3.497   5.637
31559SOL    HW296452  14.518   3.581   5.760
31560SOL     OW96453   8.916  14.520   9.603
31560SOL    HW196454   9.011  14.515   9.613
31560SOL    HW296455   8.884  14.437   9.638
31561SOL     OW96456   2.499  12.458   1.366
31561SOL    HW196457   2.537  12.518   1.301
31561SOL    HW296458   2.461  12.387   1.315
31562SOL     OW96459   2.346  10.368   4.792
31562SOL    HW196460   2.425  10.422   4.796
31562SOL    HW296461   2.362  10.297   4.854
31563SOL     OW96462  14.089   0.342   1.599
31563SOL    HW196463  14.001   0.365   1.569
31563SOL    HW296464  14.077   0.312   1.689
31564SOL     OW96465   2.663   4.254   4.540
31564SOL    HW196466   2.610   4.275   4.463
31564SOL    HW296467   2.692   4.340   4.573
31565SOL     OW96468   9.815   8.033   6.010
31565SOL    HW196469   9.903   8.069   5.998
31565SOL    HW296470   9.770   8.053   5.928
31566SOL     OW96471   7.480  14.540  10.016
31566SOL    HW196472   7.515  14.521   9.930
31566SOL    HW296473   7.387  14.558  10.001
31567SOL     OW96474  10.110  14.829   6.788
31567SOL    HW196475  10.090  14.823   6.694
31567SOL    HW296476  10.196  14.870   6.791
31568SOL     OW96477   3.481   8.989   3.998
31568SOL    HW196478   3.483   8.921   3.930
31568SOL    HW296479   3.559   9.041   3.983
31569SOL     OW96480   5.915  13.398  12.736
31569SOL    HW196481   5.969  13.372  12.661
31569SOL    HW296482   5.912  13.493  12.731
31570SOL     OW96483   4.401   0.546   1.851
31570SOL    HW196484   4.347   0.586   1.783
31570SOL    HW296485   4.388   0.601   1.928
31571SOL     OW96486   3.888   6.677  14.375
31571SOL    HW196487   3.934   6.606  14.420
31571SOL    HW296488   3.827   6.712  14.441
31572SOL     OW96489   5.314  12.129   4.420
31572SOL    HW196490   5.242  12.153   4.478
31572SOL    HW296491   5.390  12.121   4.478
31573SOL     OW96492  10.402  13.013   4.553
31573SOL    HW196493  10.470  12.985   4.491
31573SOL    HW296494  10.329  13.039   4.498
31574SOL     OW96495  13.723   6.269   6.814
31574SOL    HW196496  13.787   6.339   6.828
31574SOL    HW296497  13.679   6.260   6.898
31575SOL     OW96498   3.724  14.838   7.135
31575SOL    HW196499   3.728   0.018   7.058
31575SOL    HW296500   3.636  14.802   7.134
31576SOL     OW96501  13.293   9.988   5.409
31576SOL    HW196502  13.251  10.024   5.331
31576SOL    HW296503  13.304   9.895   5.389
31577SOL     OW96504  14.070  13.853   4.508
31577SOL    HW196505  14.118  13.890   4.434
31577SOL    HW296506  14.127  13.870   4.584
31578SOL     OW96507  13.394   0.211   9.388
31578SOL    HW196508  13.342   0.147   9.437
31578SOL    HW296509  13.435   0.265   9.456
31579SOL     OW96510   2.921  13.185   0.343
31579SOL    HW196511   3.010  13.170   0.375
31579SOL    HW296512   2.880  13.098   0.342
31580SOL     OW96513  11.668   0.783  11.559
31580SOL    HW196514  11.762   0.768  11.551
31580SOL    HW296515  11.660   0.875  11.584
31581SOL     OW96516   3.800  12.649   2.464
31581SOL    HW196517   3.880  12.665   2.415
31581SOL    HW296518   3.828  12.640   2.555
31582SOL     OW96519  11.258  10.601  13.010
31582SOL    HW196520  11.261  10.694  13.029
31582SOL    HW296521  11.313  10.590  12.933
31583SOL     OW96522   4.520  12.409  11.732
31583SOL    HW196523   4.464  12.349  11.782
31583SOL    HW296524   4.573  12.351  11.677
31584SOL     OW96525  10.557   5.263   1.831
31584SOL    HW196526  10.510   5.344   1.852
31584SOL    HW296527  10.534   5.246   1.739
31585SOL     OW96528  11.507  10.380   5.879
31585SOL    HW196529  11.590  10.359   5.922
31585SOL    HW296530  11.447  10.400   5.950
31586SOL     OW96531   8.412   0.572  11.055
31586SOL    HW196532   8.341   0.513  11.029
31586SOL    HW296533   8.487   0.544  11.001
31587SOL     OW96534   4.367   9.621   3.846
31587SOL    HW196535   4.389   9.682   3.775
31587SOL    HW296536   4.385   9.534   3.809
31588SOL     OW96537   4.056   3.905   5.968
31588SOL    HW196538   4.050   3.849   6.045
31588SOL    HW296539   3.987   3.873   5.910
31589SOL     OW96540   0.324   1.372  14.803
31589SOL    HW196541   0.331   1.345   0.017
31589SOL    HW296542   0.399   1.332  14.760
31590SOL     OW96543   2.573  10.767  14.349
31590SOL    HW196544   2.620  10.686  14.331
31590SOL    HW296545   2.552  10.803  14.263
31591SOL     OW96546  13.685   8.120  13.256
31591SOL    HW196547  13.614   8.130  13.319
31591SOL    HW296548  13.740   8.051  13.292
31592SOL     OW96549  14.460   9.649   0.960
31592SOL    HW196550  14.544   9.663   0.917
31592SOL    HW296551  14.395   9.676   0.895
31593SOL     OW96552  13.433   4.395  14.702
31593SOL    HW196553  13.497   4.325  14.711
31593SOL    HW296554  13.349   4.350  14.693
31594SOL     OW96555   0.456   9.089   3.915
31594SOL    HW196556   0.494   9.034   3.846
31594SOL    HW296557   0.397   9.030   3.962
31595SOL     OW96558  12.125  13.509   2.452
31595SOL    HW196559  12.173  13.440   2.499
31595SOL    HW296560  12.037  13.507   2.491
31596SOL     OW96561   5.880   3.524   7.033
31596SOL    HW196562   5.963   3.512   7.078
31596SOL    HW296563   5.887   3.611   6.993
31597SOL     OW96564   8.756  13.271   6.195
31597SOL    HW196565   8.714  13.195   6.237
31597SOL    HW296566   8.682  13.323   6.162
31598SOL     OW96567  11.824   4.736   1.834
31598SOL    HW196568  11.891   4.802   1.816
31598SOL    HW296569  11.798   4.753   1.925
31599SOL     OW96570  13.238   8.794  13.225
31599SOL    HW196571  13.320   8.748  13.207
31599SOL    HW296572  13.264   8.882  13.249
31600SOL     OW96573   7.739   3.774   6.004
31600SOL    HW196574   7.730   3.790   5.910
31600SOL    HW296575   7.648   3.767   6.035
31601SOL     OW96576   2.252   5.684  12.863
31601SOL    HW196577   2.216   5.759  12.815
31601SOL    HW296578   2.177   5.626  12.877
31602SOL     OW96579   2.476  13.722  12.755
31602SOL    HW196580   2.550  13.697  12.699
31602SOL    HW296581   2.513  13.785  12.817
31603SOL     OW96582   4.714  14.553   2.325
31603SOL    HW196583   4.670  14.612   2.386
31603SOL    HW296584   4.669  14.469   2.336
31604SOL     OW96585   4.231   1.020   8.564
31604SOL    HW196586   4.245   0.937   8.518
31604SOL    HW296587   4.171   1.069   8.507
31605SOL     OW96588  14.461   0.582   1.540
31605SOL    HW196589  14.538   0.636   1.553
31605SOL    HW296590  14.387   0.639   1.559
31606SOL     OW96591  13.246  11.867   1.469
31606SOL    HW196592  13.251  11.845   1.562
31606SOL    HW296593  13.336  11.886   1.444
31607SOL     OW96594  10.115  10.719   7.589
31607SOL    HW196595  10.102  10.811   7.611
31607SOL    HW296596  10.033  10.676   7.613
31608SOL     OW96597  13.845  11.586  12.912
31608SOL    HW196598  13.872  11.644  12.984
31608SOL    HW296599  13.754  11.564  12.932
31609SOL     OW96600  14.517   6.681   0.893
31609SOL    HW196601  14.571   6.607   0.923
31609SOL    HW296602  14.454   6.641   0.833
31610SOL     OW96603   9.468  13.405   3.081
31610SOL    HW196604   9.531  13.474   3.102
31610SOL    HW296605   9.488  13.335   3.144
31611SOL     OW96606  11.438  14.754   9.971
31611SOL    HW196607  11.418  14.813   9.898
31611SOL    HW296608  11.460  14.812  10.043
31612SOL     OW96609   0.320  14.550  14.486
31612SOL    HW196610   0.325  14.646  14.479
31612SOL    HW296611   0.389  14.518  14.429
31613SOL     OW96612  11.510   0.796   5.092
31613SOL    HW196613  11.582   0.834   5.141
31613SOL    HW296614  11.434   0.807   5.150
31614SOL     OW96615   2.462   3.003  14.379
31614SOL    HW196616   2.421   3.090  14.389
31614SOL    HW296617   2.423   2.968  14.299
31615SOL     OW96618   4.270   0.827   3.895
31615SOL    HW196619   4.363   0.851   3.899
31615SOL    HW296620   4.232   0.892   3.836
31616SOL     OW96621   5.179   7.611  13.945
31616SOL    HW196622   5.113   7.667  13.905
31616SOL    HW296623   5.176   7.633  14.038
31617SOL     OW96624   8.936   2.277   3.001
31617SOL    HW196625   8.957   2.348   3.061
31617SOL    HW296626   8.856   2.306   2.956
31618SOL     OW96627   2.175   7.845   9.077
31618SOL    HW196628   2.146   7.934   9.053
31618SOL    HW296629   2.253   7.859   9.131
31619SOL     OW96630   8.010   2.555   2.452
31619SOL    HW196631   8.085   2.582   2.505
31619SOL    HW296632   8.045   2.485   2.396
31620SOL     OW96633  10.493   2.308   4.772
31620SOL    HW196634  10.533   2.364   4.838
31620SOL    HW296635  10.399   2.317   4.786
31621SOL     OW96636  14.691   2.909   8.350
31621SOL    HW196637  14.705   2.951   8.265
31621SOL    HW296638  14.603   2.873   8.344
31622SOL     OW96639  11.301   6.179   4.434
31622SOL    HW196640  11.374   6.232   4.402
31622SOL    HW296641  11.273   6.223   4.514
31623SOL     OW96642   7.721   7.878   9.450
31623SOL    HW196643   7.639   7.859   9.495
31623SOL    HW296644   7.771   7.796   9.454
31624SOL     OW96645   8.069   7.961  10.043
31624SOL    HW196646   8.029   7.974  10.128
31624SOL    HW296647   8.015   8.013   9.982
31625SOL     OW96648   6.659   7.454  11.393
31625SOL    HW196649   6.697   7.461  11.305
31625SOL    HW296650   6.727   7.409  11.444
31626SOL     OW96651   4.400  12.412   9.501
31626SOL    HW196652   4.414  12.422   9.407
31626SOL    HW296653   4.367  12.322   9.510
31627SOL     OW96654  10.148  11.199   9.889
31627SOL    HW196655  10.070  11.143   9.881
31627SOL    HW296656  10.219  11.138   9.910
31628SOL     OW96657   3.591   2.732   0.479
31628SOL    HW196658   3.515   2.710   0.533
31628SOL    HW296659   3.639   2.796   0.530
31629SOL     OW96660   6.984   8.049   0.603
31629SOL    HW196661   6.940   8.133   0.617
31629SOL    HW296662   7.067   8.057   0.650
31630SOL     OW96663   7.294  14.682   7.290
31630SOL    HW196664   7.241  14.701   7.367
31630SOL    HW296665   7.234  14.640   7.229
31631SOL     OW96666   1.200  14.113   6.579
31631SOL    HW196667   1.152  14.130   6.660
31631SOL    HW296668   1.282  14.161   6.590
31632SOL     OW96669   6.171   5.886   3.873
31632SOL    HW196670   6.201   5.795   3.866
31632SOL    HW296671   6.134   5.892   3.961
31633SOL     OW96672  13.867   9.054  10.634
31633SOL    HW196673  13.961   9.037  10.633
31633SOL    HW296674  13.849   9.095  10.549
31634SOL     OW96675   1.024  13.205   2.065
31634SOL    HW196676   0.979  13.283   2.033
31634SOL    HW296677   1.022  13.214   2.160
31635SOL     OW96678   6.260   2.784   3.523
31635SOL    HW196679   6.265   2.689   3.507
31635SOL    HW296680   6.169   2.806   3.501
31636SOL     OW96681   6.311   8.329   3.903
31636SOL    HW196682   6.341   8.417   3.881
31636SOL    HW296683   6.268   8.298   3.823
31637SOL     OW96684   2.432   8.739   0.543
31637SOL    HW196685   2.450   8.827   0.577
31637SOL    HW296686   2.340   8.723   0.565
31638SOL     OW96687   1.923   5.504   8.534
31638SOL    HW196688   1.970   5.557   8.598
31638SOL    HW296689   1.832   5.535   8.539
31639SOL     OW96690   8.408   3.214   7.777
31639SOL    HW196691   8.438   3.124   7.765
31639SOL    HW296692   8.353   3.231   7.701
31640SOL     OW96693   9.033   3.679  11.552
31640SOL    HW196694   8.969   3.732  11.506
31640SOL    HW296695   8.999   3.589  11.545
31641SOL     OW96696   9.367   0.261  13.067
31641SOL    HW196697   9.437   0.325  13.085
31641SOL    HW296698   9.296   0.313  13.029
31642SOL     OW96699  13.919   1.080   8.917
31642SOL    HW196700  13.875   1.123   8.843
31642SOL    HW296701  13.986   1.026   8.876
31643SOL     OW96702  14.251  14.607  13.699
31643SOL    HW196703  14.220  14.599  13.789
31643SOL    HW296704  14.316  14.678  13.702
31644SOL     OW96705   0.339  14.837   3.298
31644SOL    HW196706   0.269  14.839   3.233
31644SOL    HW296707   0.386   0.042   3.285
31645SOL     OW96708   8.566   7.669   6.271
31645SOL    HW196709   8.617   7.630   6.201
31645SOL    HW296710   8.620   7.742   6.302
31646SOL     OW96711   1.144   5.151   1.452
31646SOL    HW196712   1.136   5.093   1.527
31646SOL    HW296713   1.148   5.239   1.490
31647SOL     OW96714   4.327   1.472   1.016
31647SOL    HW196715   4.366   1.419   1.085
31647SOL    HW296716   4.313   1.411   0.944
31648SOL     OW96717  11.399  14.185   0.365
31648SOL    HW196718  11.347  14.263   0.383
31648SOL    HW296719  11.489  14.214   0.371
31649SOL     OW96720   7.132   3.295  10.004
31649SOL    HW196721   7.150   3.224  10.065
31649SOL    HW296722   7.114   3.252   9.921
31650SOL     OW96723  10.971   5.031   3.532
31650SOL    HW196724  10.924   4.955   3.500
31650SOL    HW296725  10.920   5.062   3.607
31651SOL     OW96726  14.693   4.553  10.365
31651SOL    HW196727  14.668   4.462  10.347
31651SOL    HW296728  14.769   4.569  10.310
31652SOL     OW96729   9.293   1.510   6.301
31652SOL    HW196730   9.274   1.576   6.234
31652SOL    HW296731   9.229   1.527   6.370
31653SOL     OW96732   3.101   9.656   7.598
31653SOL    HW196733   3.169   9.598   7.633
31653SOL    HW296734   3.140   9.744   7.602
31654SOL     OW96735   4.047  13.268   1.325
31654SOL    HW196736   3.954  13.245   1.322
31654SOL    HW296737   4.057  13.335   1.257
31655SOL     OW96738   3.004  10.619   6.681
31655SOL    HW196739   3.087  10.660   6.703
31655SOL    HW296740   3.025  10.527   6.666
31656SOL     OW96741   4.125   1.922   4.999
31656SOL    HW196742   4.124   1.830   5.026
31656SOL    HW296743   4.033   1.948   4.999
31657SOL     OW96744  10.854  11.791  14.715
31657SOL    HW196745  10.916  11.864  14.709
31657SOL    HW296746  10.789  11.821  14.779
31658SOL     OW96747  11.762   7.608  14.563
31658SOL    HW196748  11.703   7.539  14.593
31658SOL    HW296749  11.843   7.562  14.540
31659SOL     OW96750   9.907  12.318   4.773
31659SOL    HW196751   9.881  12.322   4.681
31659SOL    HW296752  10.001  12.299   4.770
31660SOL     OW96753   8.758  12.861  10.176
31660SOL    HW196754   8.751  12.952  10.148
31660SOL    HW296755   8.745  12.864  10.271
31661SOL     OW96756   9.173   2.872  13.911
31661SOL    HW196757   9.113   2.851  13.982
31661SOL    HW296758   9.256   2.891  13.955
31662SOL     OW96759   6.693  14.821   3.444
31662SOL    HW196760   6.720  14.794   3.356
31662SOL    HW296761   6.724  14.751   3.501
31663SOL     OW96762  12.256  10.600   9.935
31663SOL    HW196763  12.165  10.591   9.908
31663SOL    HW296764  12.305  10.600   9.853
31664SOL     OW96765   2.321  13.349  10.677
31664SOL    HW196766   2.337  13.259  10.649
31664SOL    HW296767   2.281  13.391  10.600
31665SOL     OW96768   4.800  13.068   9.584
31665SOL    HW196769   4.862  13.005   9.621
31665SOL    HW296770   4.714  13.038   9.616
31666SOL     OW96771   9.271   4.467   4.106
31666SOL    HW196772   9.207   4.469   4.177
31666SOL    HW296773   9.308   4.555   4.105
31667SOL     OW96774   2.526   5.646   1.372
31667SOL    HW196775   2.576   5.589   1.314
31667SOL    HW296776   2.435   5.624   1.354
31668SOL     OW96777   9.138   8.806   1.617
31668SOL    HW196778   9.077   8.757   1.562
31668SOL    HW296779   9.200   8.741   1.649
31669SOL     OW96780  12.115  13.735   1.343
31669SOL    HW196781  12.105  13.775   1.257
31669SOL    HW296782  12.048  13.666   1.345
31670SOL     OW96783   4.362   7.653   2.125
31670SOL    HW196784   4.419   7.576   2.123
31670SOL    HW296785   4.376   7.695   2.040
31671SOL     OW96786   1.784   0.045  14.867
31671SOL    HW196787   1.863   0.085   0.028
31671SOL    HW296788   1.731   0.020   0.064
31672SOL     OW96789   0.389  11.214   6.213
31672SOL    HW196790   0.379  11.222   6.308
31672SOL    HW296791   0.302  11.186   6.183
31673SOL     OW96792  13.243  12.498  14.101
31673SOL    HW196793  13.232  12.545  14.018
31673SOL    HW296794  13.172  12.434  14.102
31674SOL     OW96795   0.743  12.088  11.335
31674SOL    HW196796   0.753  12.147  11.409
31674SOL    HW296797   0.742  12.145  11.258
31675SOL     OW96798   8.993   6.608   0.983
31675SOL    HW196799   9.042   6.584   0.904
31675SOL    HW296800   9.060   6.613   1.052
31676SOL     OW96801   9.884  13.089   4.514
31676SOL    HW196802   9.902  13.138   4.433
31676SOL    HW296803   9.865  13.000   4.485
31677SOL     OW96804   6.076   3.939  10.081
31677SOL    HW196805   6.078   4.034  10.090
31677SOL    HW296806   6.168   3.913  10.080
31678SOL     OW96807   3.495   1.018   9.764
31678SOL    HW196808   3.535   0.932   9.775
31678SOL    HW296809   3.533   1.072   9.833
31679SOL     OW96810   4.172   3.659  14.304
31679SOL    HW196811   4.180   3.753  14.288
31679SOL    HW296812   4.233   3.619  14.242
31680SOL     OW96813   2.805  10.201  10.931
31680SOL    HW196814   2.764  10.284  10.953
31680SOL    HW296815   2.765  10.137  10.990
31681SOL     OW96816  14.764  10.631  13.850
31681SOL    HW196817  14.677  10.594  13.833
31681SOL    HW296818  14.751  10.692  13.922
31682SOL     OW96819   1.669   7.310  11.865
31682SOL    HW196820   1.722   7.272  11.795
31682SOL    HW296821   1.662   7.241  11.930
31683SOL     OW96822   1.580   4.966   8.212
31683SOL    HW196823   1.492   4.945   8.181
31683SOL    HW296824   1.620   5.014   8.140
31684SOL     OW96825   1.906   0.050   6.292
31684SOL    HW196826   1.858   0.116   6.242
31684SOL    HW296827   1.940  14.868   6.225
31685SOL     OW96828   5.708  12.732   1.979
31685SOL    HW196829   5.726  12.668   2.048
31685SOL    HW296830   5.778  12.796   1.987
31686SOL     OW96831   0.223  13.531   8.475
31686SOL    HW196832   0.256  13.507   8.389
31686SOL    HW296833   0.301  13.552   8.526
31687SOL     OW96834  12.283  14.288   9.458
31687SOL    HW196835  12.370  14.271   9.423
31687SOL    HW296836  12.255  14.369   9.415
31688SOL     OW96837  13.952   4.470   2.570
31688SOL    HW196838  13.857   4.461   2.581
31688SOL    HW296839  13.977   4.534   2.636
31689SOL     OW96840  13.319   4.530  11.126
31689SOL    HW196841  13.270   4.611  11.137
31689SOL    HW296842  13.274   4.466  11.181
31690SOL     OW96843  13.572   5.634   0.519
31690SOL    HW196844  13.520   5.554   0.514
31690SOL    HW296845  13.657   5.605   0.554
31691SOL     OW96846   6.901   9.900   2.536
31691SOL    HW196847   6.910   9.981   2.486
31691SOL    HW296848   6.830   9.852   2.492
31692SOL     OW96849   6.341   1.402   5.302
31692SOL    HW196850   6.414   1.460   5.283
31692SOL    HW296851   6.345   1.334   5.235
31693SOL     OW96852   2.057  14.404   5.315
31693SOL    HW196853   2.058  14.329   5.375
31693SOL    HW296854   2.015  14.474   5.365
31694SOL     OW96855  11.595   1.912  13.873
31694SOL    HW196856  11.616   1.971  13.945
31694SOL    HW296857  11.673   1.912  13.818
31695SOL     OW96858  11.628  13.234   9.613
31695SOL    HW196859  11.701  13.175   9.590
31695SOL    HW296860  11.650  13.316   9.569
31696SOL     OW96861   4.853  10.791   5.980
31696SOL    HW196862   4.823  10.739   5.905
31696SOL    HW296863   4.909  10.731   6.029
31697SOL     OW96864   9.387   7.948  13.490
31697SOL    HW196865   9.348   7.980  13.571
31697SOL    HW296866   9.475   7.987  13.488
31698SOL     OW96867   2.294   5.082  12.580
31698SOL    HW196868   2.242   5.045  12.651
31698SOL    HW296869   2.385   5.071  12.608
31699SOL     OW96870   0.530  11.996   4.152
31699SOL    HW196871   0.539  12.070   4.212
31699SOL    HW296872   0.464  11.940   4.193
31700SOL     OW96873  13.515   8.447  11.642
31700SOL    HW196874  13.459   8.455  11.719
31700SOL    HW296875  13.456   8.420  11.572
31701SOL     OW96876  14.876   7.731   1.727
31701SOL    HW196877  14.805   7.784   1.763
31701SOL    HW296878  14.838   7.691   1.648
31702SOL     OW96879   4.834   6.993   1.199
31702SOL    HW196880   4.911   6.950   1.163
31702SOL    HW296881   4.868   7.071   1.243
31703SOL     OW96882   6.441   8.121   8.738
31703SOL    HW196883   6.511   8.058   8.757
31703SOL    HW296884   6.371   8.099   8.800
31704SOL     OW96885   2.239   9.969   6.143
31704SOL    HW196886   2.203   9.895   6.192
31704SOL    HW296887   2.299   9.930   6.080
31705SOL     OW96888   3.481   3.108   3.855
31705SOL    HW196889   3.574   3.128   3.856
31705SOL    HW296890   3.438   3.193   3.865
31706SOL     OW96891   5.212  14.450   9.791
31706SOL    HW196892   5.124  14.437   9.827
31706SOL    HW296893   5.226  14.544   9.795
31707SOL     OW96894  14.535   6.610   5.388
31707SOL    HW196895  14.578   6.695   5.399
31707SOL    HW296896  14.554   6.563   5.470
31708SOL     OW96897  13.868   8.775   2.875
31708SOL    HW196898  13.916   8.693   2.878
31708SOL    HW296899  13.786   8.757   2.921
31709SOL     OW96900   9.630   9.468   7.135
31709SOL    HW196901   9.608   9.375   7.130
31709SOL    HW296902   9.726   9.471   7.133
31710SOL     OW96903   3.217   5.007   7.607
31710SOL    HW196904   3.300   5.016   7.655
31710SOL    HW296905   3.164   5.080   7.639
31711SOL     OW96906   8.126   8.060   6.423
31711SOL    HW196907   8.095   8.067   6.514
31711SOL    HW296908   8.221   8.065   6.430
31712SOL     OW96909   8.079   1.404   1.116
31712SOL    HW196910   8.152   1.355   1.078
31712SOL    HW296911   8.030   1.338   1.165
31713SOL     OW96912  13.882   6.964   1.928
31713SOL    HW196913  13.856   7.056   1.918
31713SOL    HW296914  13.844   6.920   1.852
31714SOL     OW96915   8.106   6.009   3.065
31714SOL    HW196916   8.152   5.925   3.072
31714SOL    HW296917   8.131   6.042   2.979
31715SOL     OW96918   1.633  10.317  11.438
31715SOL    HW196919   1.598  10.406  11.442
31715SOL    HW296920   1.662  10.306  11.347
31716SOL     OW96921  11.001   4.250   9.702
31716SOL    HW196922  10.923   4.222   9.654
31716SOL    HW296923  11.055   4.171   9.706
31717SOL     OW96924   0.651   6.341   8.365
31717SOL    HW196925   0.670   6.276   8.432
31717SOL    HW296926   0.564   6.317   8.332
31718SOL     OW96927   0.333   3.547   4.939
31718SOL    HW196928   0.361   3.579   5.025
31718SOL    HW296929   0.372   3.460   4.931
31719SOL     OW96930   3.864  14.567  12.024
31719SOL    HW196931   3.815  14.548  11.944
31719SOL    HW296932   3.797  14.576  12.092
31720SOL     OW96933  13.984  13.428   0.970
31720SOL    HW196934  14.042  13.463   0.903
31720SOL    HW296935  13.965  13.503   1.027
31721SOL     OW96936  14.301  14.352  10.993
31721SOL    HW196937  14.292  14.358  11.088
31721SOL    HW296938  14.387  14.311  10.979
31722SOL     OW96939   6.236  10.116   5.526
31722SOL    HW196940   6.287  10.046   5.485
31722SOL    HW296941   6.218  10.085   5.614
31723SOL     OW96942  12.709   8.563  14.523
31723SOL    HW196943  12.744   8.550  14.434
31723SOL    HW296944  12.787   8.564  14.579
31724SOL     OW96945  12.080   6.540   1.545
31724SOL    HW196946  12.101   6.522   1.637
31724SOL    HW296947  12.043   6.458   1.513
31725SOL     OW96948  12.614   7.918   8.958
31725SOL    HW196949  12.557   7.910   8.882
31725SOL    HW296950  12.600   7.838   9.008
31726SOL     OW96951  12.981   7.309   2.015
31726SOL    HW196952  12.933   7.236   2.054
31726SOL    HW296953  12.918   7.352   1.957
31727SOL     OW96954   3.252   4.049   3.599
31727SOL    HW196955   3.199   3.980   3.559
31727SOL    HW296956   3.305   4.004   3.665
31728SOL     OW96957   7.531   5.702   1.572
31728SOL    HW196958   7.463   5.711   1.506
31728SOL    HW296959   7.599   5.764   1.545
31729SOL     OW96960   6.867  14.207  12.267
31729SOL    HW196961   6.864  14.115  12.243
31729SOL    HW296962   6.919  14.249  12.199
31730SOL     OW96963   5.744  11.934   0.525
31730SOL    HW196964   5.812  11.989   0.485
31730SOL    HW296965   5.777  11.914   0.613
31731SOL     OW96966   6.526   5.444   0.481
31731SOL    HW196967   6.574   5.446   0.398
31731SOL    HW296968   6.510   5.537   0.500
31732SOL     OW96969   9.787  13.088  14.871
31732SOL    HW196970   9.696  13.071   0.015
31732SOL    HW296971   9.788  13.179  14.841
31733SOL     OW96972  13.947   7.292  13.973
31733SOL    HW196973  13.900   7.292  13.890
31733SOL    HW296974  13.880   7.277  14.040
31734SOL     OW96975   4.322  10.769  10.382
31734SOL    HW196976   4.230  10.794  10.377
31734SOL    HW296977   4.345  10.780  10.475
31735SOL     OW96978   5.411   0.785   9.245
31735SOL    HW196979   5.360   0.710   9.217
31735SOL    HW296980   5.502   0.753   9.247
31736SOL     OW96981   9.440  14.667   9.566
31736SOL    HW196982   9.416  14.643   9.656
31736SOL    HW296983   9.414  14.591   9.514
31737SOL     OW96984   5.539   6.180   7.466
31737SOL    HW196985   5.559   6.198   7.557
31737SOL    HW296986   5.481   6.103   7.469
31738SOL     OW96987   3.775   1.427   8.836
31738SOL    HW196988   3.718   1.411   8.911
31738SOL    HW296989   3.860   1.391   8.862
31739SOL     OW96990   4.270   4.931   1.976
31739SOL    HW196991   4.296   5.013   2.017
31739SOL    HW296992   4.339   4.912   1.913
31740SOL     OW96993  14.381   3.399   0.781
31740SOL    HW196994  14.410   3.460   0.849
31740SOL    HW296995  14.347   3.455   0.712
31741SOL     OW96996   2.404  14.228   7.098
31741SOL    HW196997   2.370  14.145   7.132
31741SOL    HW296998   2.326  14.278   7.076
31742SOL     OW96999  12.541  12.539   4.270
31742SOL    HW197000  12.511  12.630   4.263
31742SOL    HW297001  12.610  12.531   4.204
31743SOL     OW97002   5.543   8.081   8.778
31743SOL    HW197003   5.476   8.042   8.723
31743SOL    HW297004   5.549   8.172   8.749
31744SOL     OW97005   3.193   2.952  10.718
31744SOL    HW197006   3.109   2.966  10.674
31744SOL    HW297007   3.247   2.910  10.651
31745SOL     OW97008  10.367   7.078   8.120
31745SOL    HW197009  10.342   7.090   8.028
31745SOL    HW297010  10.284   7.085   8.168
31746SOL     OW97011   3.212  14.462   5.807
31746SOL    HW197012   3.276  14.429   5.744
31746SOL    HW297013   3.204  14.555   5.787
31747SOL     OW97014   8.995   2.794  14.106
31747SOL    HW197015   8.951   2.725  14.155
31747SOL    HW297016   8.924   2.845  14.067
31748SOL     OW97017   8.887   1.468   1.999
31748SOL    HW197018   8.912   1.405   1.932
31748SOL    HW297019   8.837   1.535   1.953
31749SOL     OW97020   8.025  12.568   3.390
31749SOL    HW197021   7.946  12.610   3.354
31749SOL    HW297022   8.092  12.637   3.386
31750SOL     OW97023   6.440   1.925  13.888
31750SOL    HW197024   6.416   1.971  13.969
31750SOL    HW297025   6.355   1.901  13.849
31751SOL     OW97026   1.801  14.097   1.775
31751SOL    HW197027   1.747  14.078   1.698
31751SOL    HW297028   1.786  14.023   1.834
31752SOL     OW97029   6.412   8.917  14.779
31752SOL    HW197030   6.408   8.949  14.869
31752SOL    HW297031   6.424   8.822  14.788
31753SOL     OW97032   4.201   9.120  10.132
31753SOL    HW197033   4.184   9.077  10.215
31753SOL    HW297034   4.256   9.196  10.155
31754SOL     OW97035  11.217  14.798   3.829
31754SOL    HW197036  11.130  14.815   3.793
31754SOL    HW297037  11.231  14.704   3.815
31755SOL     OW97038   5.717   2.325  12.122
31755SOL    HW197039   5.766   2.359  12.197
31755SOL    HW297040   5.738   2.232  12.120
31756SOL     OW97041   6.955  14.003   2.961
31756SOL    HW197042   7.048  14.011   2.984
31756SOL    HW297043   6.908  14.046   3.032
31757SOL     OW97044   8.924   3.629   3.989
31757SOL    HW197045   8.893   3.557   4.043
31757SOL    HW297046   8.952   3.588   3.907
31758SOL     OW97047   3.550  13.225   5.606
31758SOL    HW197048   3.511  13.295   5.554
31758SOL    HW297049   3.644  13.243   5.602
31759SOL     OW97050  14.861  12.090  12.494
31759SOL    HW197051   0.062  12.133  12.528
31759SOL    HW297052  14.798  12.160  12.480
31760SOL     OW97053   6.317  13.691   8.925
31760SOL    HW197054   6.224  13.695   8.947
31760SOL    HW297055   6.343  13.783   8.915
31761SOL     OW97056  12.108  10.885   2.549
31761SOL    HW197057  12.178  10.844   2.601
31761SOL    HW297058  12.153  10.949   2.494
31762SOL     OW97059   0.316   3.940  12.688
31762SOL    HW197060   0.405   3.910  12.704
31762SOL    HW297061   0.311   4.027  12.728
31763SOL     OW97062   9.306   3.481   0.717
31763SOL    HW197063   9.376   3.469   0.782
31763SOL    HW297064   9.236   3.422   0.745
31764SOL     OW97065   7.970   6.841  14.296
31764SOL    HW197066   7.990   6.898  14.222
31764SOL    HW297067   7.895   6.883  14.339
31765SOL     OW97068  11.874  10.960   3.527
31765SOL    HW197069  11.923  10.878   3.517
31765SOL    HW297070  11.845  10.959   3.618
31766SOL     OW97071   1.326  10.596  10.079
31766SOL    HW197072   1.308  10.661  10.011
31766SOL    HW297073   1.369  10.524  10.033
31767SOL     OW97074   9.609  14.475   8.924
31767SOL    HW197075   9.606  14.413   8.997
31767SOL    HW297076   9.703  14.491   8.911
31768SOL     OW97077   0.524  12.310   2.331
31768SOL    HW197078   0.471  12.389   2.343
31768SOL    HW297079   0.608  12.343   2.297
31769SOL     OW97080  13.100  13.939   6.795
31769SOL    HW197081  13.126  14.031   6.792
31769SOL    HW297082  13.018  13.939   6.844
31770SOL     OW97083   7.810  13.332   6.995
31770SOL    HW197084   7.887  13.376   7.032
31770SOL    HW297085   7.753  13.316   7.070
31771SOL     OW97086  13.865   8.145   1.146
31771SOL    HW197087  13.775   8.114   1.133
31771SOL    HW297088  13.896   8.167   1.058
31772SOL     OW97089   5.979   0.718   9.817
31772SOL    HW197090   5.894   0.740   9.778
31772SOL    HW297091   6.009   0.800   9.856
31773SOL     OW97092   3.182  11.738  13.714
31773SOL    HW197093   3.269  11.778  13.715
31773SOL    HW297094   3.143  11.764  13.798
31774SOL     OW97095   8.498   4.540   6.279
31774SOL    HW197096   8.585   4.507   6.303
31774SOL    HW297097   8.474   4.600   6.349
31775SOL     OW97098   5.350  13.296   4.235
31775SOL    HW197099   5.296  13.323   4.309
31775SOL    HW297100   5.292  13.300   4.160
31776SOL     OW97101   8.242   1.590   2.406
31776SOL    HW197102   8.308   1.630   2.462
31776SOL    HW297103   8.283   1.511   2.372
31777SOL     OW97104   4.267   3.909   2.340
31777SOL    HW197105   4.257   3.980   2.404
31777SOL    HW297106   4.230   3.832   2.384
31778SOL     OW97107   3.637   4.017  14.433
31778SOL    HW197108   3.561   3.959  14.434
31778SOL    HW297109   3.615   4.087  14.495
31779SOL     OW97110   0.211  13.006   7.639
31779SOL    HW197111   0.170  13.080   7.683
31779SOL    HW297112   0.302  13.006   7.670
31780SOL     OW97113   7.427  11.870  10.250
31780SOL    HW197114   7.379  11.799  10.207
31780SOL    HW297115   7.432  11.843  10.342
31781SOL     OW97116   9.916  13.936   6.039
31781SOL    HW197117   9.822  13.928   6.024
31781SOL    HW297118   9.950  13.848   6.025
31782SOL     OW97119  10.188   5.315  12.582
31782SOL    HW197120  10.244   5.390  12.599
31782SOL    HW297121  10.099   5.349  12.591
31783SOL     OW97122   5.481   8.776   8.595
31783SOL    HW197123   5.570   8.788   8.627
31783SOL    HW297124   5.425   8.804   8.668
31784SOL     OW97125   3.583  14.024   4.268
31784SOL    HW197126   3.618  14.057   4.351
31784SOL    HW297127   3.641  13.951   4.245
31785SOL     OW97128   1.010   6.219   0.302
31785SOL    HW197129   1.088   6.275   0.299
31785SOL    HW297130   1.034   6.149   0.362
31786SOL     OW97131  12.228   5.464   6.139
31786SOL    HW197132  12.144   5.505   6.116
31786SOL    HW297133  12.293   5.516   6.092
31787SOL     OW97134   4.456   3.212   7.703
31787SOL    HW197135   4.544   3.216   7.666
31787SOL    HW297136   4.411   3.288   7.667
31788SOL     OW97137   1.157   4.900   2.615
31788SOL    HW197138   1.197   4.899   2.529
31788SOL    HW297139   1.114   4.985   2.622
31789SOL     OW97140  14.297   8.761  12.905
31789SOL    HW197141  14.270   8.670  12.896
31789SOL    HW297142  14.328   8.768  12.995
31790SOL     OW97143   6.708   9.640   3.596
31790SOL    HW197144   6.746   9.703   3.534
31790SOL    HW297145   6.765   9.643   3.672
31791SOL     OW97146   9.157  11.365  12.961
31791SOL    HW197147   9.205  11.387  12.881
31791SOL    HW297148   9.133  11.273  12.950
31792SOL     OW97149   3.716  11.667  12.509
31792SOL    HW197150   3.800  11.668  12.464
31792SOL    HW297151   3.668  11.740  12.472
31793SOL     OW97152  13.757   6.903   8.242
31793SOL    HW197153  13.731   6.885   8.152
31793SOL    HW297154  13.689   6.962   8.275
31794SOL     OW97155   4.534   1.070   1.360
31794SOL    HW197156   4.505   1.161   1.371
31794SOL    HW297157   4.454   1.018   1.369
31795SOL     OW97158  12.050   2.830  10.411
31795SOL    HW197159  12.019   2.921  10.417
31795SOL    HW297160  12.145   2.836  10.417
31796SOL     OW97161   8.487   9.197  14.455
31796SOL    HW197162   8.477   9.102  14.463
31796SOL    HW297163   8.464   9.231  14.542
31797SOL     OW97164  13.441   2.107  11.845
31797SOL    HW197165  13.492   2.124  11.924
31797SOL    HW297166  13.361   2.157  11.856
31798SOL     OW97167  12.002   0.304   2.280
31798SOL    HW197168  11.977   0.283   2.190
31798SOL    HW297169  11.933   0.265   2.333
31799SOL     OW97170  11.979  14.510   5.587
31799SOL    HW197171  12.045  14.490   5.654
31799SOL    HW297172  12.016  14.585   5.540
31800SOL     OW97173  11.083   8.446   9.903
31800SOL    HW197174  11.010   8.431   9.964
31800SOL    HW297175  11.114   8.534   9.924
31801SOL     OW97176   5.402   1.981   1.244
31801SOL    HW197177   5.458   1.944   1.313
31801SOL    HW297178   5.331   2.024   1.292
31802SOL     OW97179   0.258  10.499   0.045
31802SOL    HW197180   0.180  10.554   0.037
31802SOL    HW297181   0.292  10.519   0.132
31803SOL     OW97182   9.187   9.432  11.507
31803SOL    HW197183   9.117   9.367  11.508
31803SOL    HW297184   9.239   9.411  11.429
31804SOL     OW97185   1.325   8.238   0.385
31804SOL    HW197186   1.409   8.218   0.344
31804SOL    HW297187   1.347   8.276   0.470
31805SOL     OW97188   7.995   9.122   2.092
31805SOL    HW197189   7.949   9.103   2.011
31805SOL    HW297190   8.077   9.073   2.085
31806SOL     OW97191   9.757  13.939   9.381
31806SOL    HW197192   9.843  13.923   9.342
31806SOL    HW297193   9.704  13.973   9.309
31807SOL     OW97194   4.873  14.032  12.672
31807SOL    HW197195   4.794  14.085  12.686
31807SOL    HW297196   4.930  14.055  12.745
31808SOL     OW97197   0.990   2.930   7.803
31808SOL    HW197198   0.974   2.909   7.711
31808SOL    HW297199   1.015   2.846   7.843
31809SOL     OW97200   4.422   6.005   1.561
31809SOL    HW197201   4.398   5.933   1.619
31809SOL    HW297202   4.517   6.000   1.555
31810SOL     OW97203   2.992  14.110   1.789
31810SOL    HW197204   2.926  14.171   1.753
31810SOL    HW297205   3.032  14.070   1.711
31811SOL     OW97206  11.271   0.036  11.623
31811SOL    HW197207  11.348   0.066  11.671
31811SOL    HW297208  11.200   0.038  11.686
31812SOL     OW97209   3.685   6.288   4.801
31812SOL    HW197210   3.648   6.373   4.826
31812SOL    HW297211   3.744   6.308   4.728
31813SOL     OW97212  10.110   5.202   2.188
31813SOL    HW197213  10.085   5.132   2.128
31813SOL    HW297214  10.190   5.239   2.151
31814SOL     OW97215  14.258  11.392   6.265
31814SOL    HW197216  14.228  11.403   6.355
31814SOL    HW297217  14.350  11.417   6.267
31815SOL     OW97218  12.392   2.743   3.323
31815SOL    HW197219  12.462   2.680   3.305
31815SOL    HW297220  12.434   2.829   3.313
31816SOL     OW97221   1.205  13.169   1.627
31816SOL    HW197222   1.258  13.147   1.550
31816SOL    HW297223   1.176  13.084   1.661
31817SOL     OW97224   2.376   3.219   2.382
31817SOL    HW197225   2.315   3.270   2.329
31817SOL    HW297226   2.359   3.128   2.359
31818SOL     OW97227   7.972   7.636   8.616
31818SOL    HW197228   8.061   7.663   8.593
31818SOL    HW297229   7.969   7.640   8.711
31819SOL     OW97230  13.072  13.784   1.704
31819SOL    HW197231  13.146  13.732   1.736
31819SOL    HW297232  12.997  13.754   1.756
31820SOL     OW97233   1.950   5.059   0.994
31820SOL    HW197234   2.036   5.030   0.962
31820SOL    HW297235   1.956   5.048   1.089
31821SOL     OW97236  14.057  12.793   6.067
31821SOL    HW197237  13.984  12.855   6.070
31821SOL    HW297238  14.064  12.760   6.156
31822SOL     OW97239  13.386   1.358   2.733
31822SOL    HW197240  13.457   1.418   2.708
31822SOL    HW297241  13.431   1.281   2.768
31823SOL     OW97242   0.163   2.526  10.662
31823SOL    HW197243   0.120   2.611  10.655
31823SOL    HW297244   0.194   2.507  10.573
31824SOL     OW97245   6.726   7.191   0.425
31824SOL    HW197246   6.636   7.173   0.452
31824SOL    HW297247   6.754   7.263   0.481
31825SOL     OW97248   5.180   9.299   0.986
31825SOL    HW197249   5.262   9.268   1.026
31825SOL    HW297250   5.150   9.369   1.044
31826SOL     OW97251   1.252   3.804   8.437
31826SOL    HW197252   1.329   3.833   8.485
31826SOL    HW297253   1.187   3.873   8.451
31827SOL     OW97254   1.709  10.046  14.104
31827SOL    HW197255   1.798  10.042  14.070
31827SOL    HW297256   1.653  10.033  14.027
31828SOL     OW97257  14.616  14.054   7.908
31828SOL    HW197258  14.679  14.118   7.875
31828SOL    HW297259  14.538  14.067   7.854
31829SOL     OW97260   5.672   1.071   3.187
31829SOL    HW197261   5.724   1.045   3.111
31829SOL    HW297262   5.602   1.006   3.192
31830SOL     OW97263  10.645   3.983  13.473
31830SOL    HW197264  10.603   4.064  13.444
31830SOL    HW297265  10.593   3.955  13.549
31831SOL     OW97266   4.996   0.380   6.827
31831SOL    HW197267   4.930   0.449   6.832
31831SOL    HW297268   5.063   0.408   6.889
31832SOL     OW97269  10.864   4.551   0.705
31832SOL    HW197270  10.832   4.632   0.743
31832SOL    HW297271  10.837   4.483   0.767
31833SOL     OW97272   4.547   4.449   1.594
31833SOL    HW197273   4.641   4.437   1.606
31833SOL    HW297274   4.506   4.388   1.655
31834SOL     OW97275   4.194  13.501   8.522
31834SOL    HW197276   4.121  13.493   8.583
31834SOL    HW297277   4.242  13.578   8.551
31835SOL     OW97278   6.896   5.942   2.562
31835SOL    HW197279   6.920   5.930   2.471
31835SOL    HW297280   6.864   6.032   2.567
31836SOL     OW97281   9.140   8.449   4.300
31836SOL    HW197282   9.170   8.429   4.211
31836SOL    HW297283   9.047   8.471   4.290
31837SOL     OW97284   4.277  10.457   4.308
31837SOL    HW197285   4.192  10.446   4.350
31837SOL    HW297286   4.257  10.491   4.221
31838SOL     OW97287   3.607  10.950   9.865
31838SOL    HW197288   3.518  10.920   9.847
31838SOL    HW297289   3.658  10.920   9.790
31839SOL     OW97290  13.476  12.734   9.949
31839SOL    HW197291  13.541  12.791   9.990
31839SOL    HW297292  13.466  12.770   9.861
31840SOL     OW97293  14.469   9.451  14.600
31840SOL    HW197294  14.481   9.359  14.574
31840SOL    HW297295  14.486   9.501  14.521
31841SOL     OW97296   1.600   8.402   7.420
31841SOL    HW197297   1.570   8.326   7.469
31841SOL    HW297298   1.569   8.477   7.471
31842SOL     OW97299   2.150   9.497   7.218
31842SOL    HW197300   2.220   9.562   7.223
31842SOL    HW297301   2.083   9.539   7.163
31843SOL     OW97302   4.301   7.675   8.630
31843SOL    HW197303   4.377   7.706   8.582
31843SOL    HW297304   4.315   7.581   8.640
31844SOL     OW97305   6.266   2.137   7.776
31844SOL    HW197306   6.231   2.160   7.862
31844SOL    HW297307   6.206   2.069   7.743
31845SOL     OW97308   5.904   8.289   4.000
31845SOL    HW197309   5.868   8.376   3.983
31845SOL    HW297310   5.893   8.241   3.917
31846SOL     OW97311  10.345   2.889   1.531
31846SOL    HW197312  10.390   2.875   1.448
31846SOL    HW297313  10.333   2.801   1.567
31847SOL     OW97314  14.432   6.702   6.645
31847SOL    HW197315  14.441   6.640   6.717
31847SOL    HW297316  14.437   6.788   6.686
31848SOL     OW97317   9.296   7.449   6.903
31848SOL    HW197318   9.369   7.488   6.950
31848SOL    HW297319   9.253   7.392   6.967
31849SOL     OW97320   0.377   2.311   5.591
31849SOL    HW197321   0.404   2.373   5.524
31849SOL    HW297322   0.385   2.359   5.673
31850SOL     OW97323   6.697  13.734   5.790
31850SOL    HW197324   6.743  13.790   5.726
31850SOL    HW297325   6.694  13.787   5.870
31851SOL     OW97326   4.148   6.600   5.651
31851SOL    HW197327   4.118   6.646   5.572
31851SOL    HW297328   4.084   6.623   5.718
31852SOL     OW97329   2.104   7.651  14.063
31852SOL    HW197330   2.164   7.721  14.087
31852SOL    HW297331   2.064   7.623  14.145
31853SOL     OW97332  13.422  14.478   4.178
31853SOL    HW197333  13.399  14.540   4.247
31853SOL    HW297334  13.511  14.449   4.201
31854SOL     OW97335   4.152  11.891  11.260
31854SOL    HW197336   4.180  11.917  11.347
31854SOL    HW297337   4.228  11.907  11.204
31855SOL     OW97338   6.060   8.546  10.906
31855SOL    HW197339   6.047   8.604  10.831
31855SOL    HW297340   6.098   8.602  10.974
31856SOL     OW97341   7.663   9.599  12.791
31856SOL    HW197342   7.631   9.687  12.770
31856SOL    HW297343   7.584   9.544  12.787
31857SOL     OW97344   4.522   0.968  11.113
31857SOL    HW197345   4.589   0.912  11.075
31857SOL    HW297346   4.510   1.038  11.049
31858SOL     OW97347   6.989   9.076   8.290
31858SOL    HW197348   6.927   9.051   8.221
31858SOL    HW297349   6.999   9.171   8.279
31859SOL     OW97350   3.617   3.407   2.616
31859SOL    HW197351   3.619   3.335   2.552
31859SOL    HW297352   3.538   3.456   2.594
31860SOL     OW97353   5.940   8.804   3.497
31860SOL    HW197354   6.017   8.800   3.554
31860SOL    HW297355   5.970   8.766   3.414
31861SOL     OW97356  13.748   4.668  13.591
31861SOL    HW197357  13.724   4.601  13.655
31861SOL    HW297358  13.841   4.684  13.606
31862SOL     OW97359   9.950  10.191   8.914
31862SOL    HW197360   9.995  10.135   8.852
31862SOL    HW297361   9.979  10.160   9.000
31863SOL     OW97362  10.941   0.376   7.310
31863SOL    HW197363  10.898   0.461   7.320
31863SOL    HW297364  10.957   0.345   7.399
31864SOL     OW97365   2.833  10.945   1.597
31864SOL    HW197366   2.904  11.009   1.605
31864SOL    HW297367   2.837  10.917   1.505
31865SOL     OW97368  12.341   1.323   5.597
31865SOL    HW197369  12.276   1.384   5.562
31865SOL    HW297370  12.415   1.378   5.622
31866SOL     OW97371   4.060   7.776   5.482
31866SOL    HW197372   4.123   7.730   5.427
31866SOL    HW297373   4.110   7.848   5.520
31867SOL     OW97374   3.831  13.145  14.264
31867SOL    HW197375   3.912  13.097  14.279
31867SOL    HW297376   3.839  13.223  14.319
31868SOL     OW97377   8.385  14.373   4.652
31868SOL    HW197378   8.330  14.324   4.592
31868SOL    HW297379   8.347  14.461   4.653
31869SOL     OW97380   9.689  11.738   6.396
31869SOL    HW197381   9.766  11.690   6.365
31869SOL    HW297382   9.656  11.686   6.469
31870SOL     OW97383  14.730  13.076   9.383
31870SOL    HW197384  14.726  13.140   9.454
31870SOL    HW297385  14.657  13.017   9.401
31871SOL     OW97386   6.049   0.811  14.621
31871SOL    HW197387   6.133   0.770  14.639
31871SOL    HW297388   6.033   0.870  14.695
31872SOL     OW97389   5.841  14.802   6.264
31872SOL    HW197390   5.761  14.786   6.215
31872SOL    HW297391   5.878  14.715   6.278
31873SOL     OW97392   9.826   5.647   0.404
31873SOL    HW197393   9.831   5.703   0.327
31873SOL    HW297394   9.770   5.694   0.465
31874SOL     OW97395   4.680   4.708   0.748
31874SOL    HW197396   4.727   4.698   0.665
31874SOL    HW297397   4.749   4.717   0.813
31875SOL     OW97398  11.496   3.059   1.645
31875SOL    HW197399  11.492   3.152   1.669
31875SOL    HW297400  11.529   3.016   1.724
31876SOL     OW97401  13.060   8.874   0.305
31876SOL    HW197402  13.155   8.866   0.306
31876SOL    HW297403  13.039   8.935   0.375
31877SOL     OW97404   9.078  14.627   8.106
31877SOL    HW197405   9.063  14.644   8.012
31877SOL    HW297406   9.036  14.542   8.121
31878SOL     OW97407  11.781   8.426   9.652
31878SOL    HW197408  11.789   8.380   9.735
31878SOL    HW297409  11.871   8.446   9.626
31879SOL     OW97410   9.797  10.905   7.054
31879SOL    HW197411   9.810  10.833   7.116
31879SOL    HW297412   9.876  10.959   7.063
31880SOL     OW97413   9.214   7.798   2.678
31880SOL    HW197414   9.257   7.724   2.636
31880SOL    HW297415   9.272   7.872   2.660
31881SOL     OW97416   2.831   7.078   9.451
31881SOL    HW197417   2.797   7.005   9.502
31881SOL    HW297418   2.773   7.151   9.473
31882SOL     OW97419  10.800   5.385   5.922
31882SOL    HW197420  10.789   5.438   5.843
31882SOL    HW297421  10.734   5.419   5.983
31883SOL     OW97422   9.600   7.046   3.288
31883SOL    HW197423   9.519   7.084   3.254
31883SOL    HW297424   9.588   6.952   3.278
31884SOL     OW97425  11.665  10.487  12.920
31884SOL    HW197426  11.718  10.468  12.843
31884SOL    HW297427  11.722  10.464  12.994
31885SOL     OW97428   4.391  12.095  13.369
31885SOL    HW197429   4.409  12.163  13.304
31885SOL    HW297430   4.476  12.055  13.387
31886SOL     OW97431  10.988  14.517   3.044
31886SOL    HW197432  11.019  14.607   3.053
31886SOL    HW297433  11.019  14.472   3.123
31887SOL     OW97434   3.230  12.225   4.818
31887SOL    HW197435   3.193  12.146   4.858
31887SOL    HW297436   3.320  12.229   4.850
31888SOL     OW97437   3.398   7.564   9.855
31888SOL    HW197438   3.319   7.578   9.908
31888SOL    HW297439   3.419   7.472   9.869
31889SOL     OW97440   5.693   3.825   2.009
31889SOL    HW197441   5.745   3.772   2.070
31889SOL    HW297442   5.658   3.895   2.064
31890SOL     OW97443   4.252   1.855   1.112
31890SOL    HW197444   4.158   1.851   1.130
31890SOL    HW297445   4.293   1.844   1.198
31891SOL     OW97446   3.228   9.495   7.948
31891SOL    HW197447   3.264   9.577   7.914
31891SOL    HW297448   3.260   9.491   8.038
31892SOL     OW97449   7.153  10.330   7.353
31892SOL    HW197450   7.190  10.270   7.417
31892SOL    HW297451   7.227  10.351   7.295
31893SOL     OW97452   0.483  11.948  13.290
31893SOL    HW197453   0.562  11.948  13.345
31893SOL    HW297454   0.497  12.021  13.230
31894SOL     OW97455   4.723   6.629  12.575
31894SOL    HW197456   4.681   6.660  12.656
31894SOL    HW297457   4.703   6.535  12.572
31895SOL     OW97458   3.103   6.269   4.187
31895SOL    HW197459   3.056   6.351   4.205
31895SOL    HW297460   3.157   6.255   4.264
31896SOL     OW97461  11.720   6.503  12.289
31896SOL    HW197462  11.766   6.577  12.329
31896SOL    HW297463  11.740   6.428  12.345
31897SOL     OW97464   7.324   9.399   2.830
31897SOL    HW197465   7.414   9.407   2.797
31897SOL    HW297466   7.271   9.388   2.752
31898SOL     OW97467   6.661   6.616   5.272
31898SOL    HW197468   6.696   6.699   5.240
31898SOL    HW297469   6.738   6.558   5.277
31899SOL     OW97470   3.479  12.229   9.381
31899SOL    HW197471   3.397  12.226   9.331
31899SOL    HW297472   3.547  12.215   9.315
31900SOL     OW97473   8.654   8.325  12.111
31900SOL    HW197474   8.740   8.300  12.146
31900SOL    HW297475   8.594   8.260  12.148
31901SOL     OW97476   8.969   4.653   8.822
31901SOL    HW197477   9.055   4.692   8.838
31901SOL    HW297478   8.926   4.651   8.907
31902SOL     OW97479  10.658  12.058   2.410
31902SOL    HW197480  10.743  12.074   2.453
31902SOL    HW297481  10.608  12.010   2.476
31903SOL     OW97482   7.501   1.444   7.712
31903SOL    HW197483   7.438   1.391   7.662
31903SOL    HW297484   7.454   1.526   7.730
31904SOL     OW97485   7.901   9.283   1.688
31904SOL    HW197486   7.942   9.202   1.716
31904SOL    HW297487   7.968   9.350   1.700
31905SOL     OW97488   7.768   5.322   1.153
31905SOL    HW197489   7.854   5.342   1.116
31905SOL    HW297490   7.711   5.312   1.076
31906SOL     OW97491   9.237   9.822  14.480
31906SOL    HW197492   9.289   9.877  14.421
31906SOL    HW297493   9.189   9.763  14.422
31907SOL     OW97494  11.930  14.287   7.914
31907SOL    HW197495  11.927  14.246   7.828
31907SOL    HW297496  11.854  14.346   7.915
31908SOL     OW97497   3.087   8.403   6.145
31908SOL    HW197498   3.072   8.310   6.160
31908SOL    HW297499   3.002   8.437   6.119
31909SOL     OW97500   0.669  13.836   3.356
31909SOL    HW197501   0.641  13.852   3.266
31909SOL    HW297502   0.641  13.746   3.374
31910SOL     OW97503   7.612   5.669   4.847
31910SOL    HW197504   7.670   5.697   4.917
31910SOL    HW297505   7.648   5.587   4.816
31911SOL     OW97506  13.783   5.223   2.502
31911SOL    HW197507  13.801   5.134   2.533
31911SOL    HW297508  13.858   5.245   2.447
31912SOL     OW97509  12.496  13.018   4.462
31912SOL    HW197510  12.524  13.075   4.390
31912SOL    HW297511  12.400  13.024   4.462
31913SOL     OW97512   9.089   0.827   2.425
31913SOL    HW197513   9.134   0.862   2.348
31913SOL    HW297514   9.038   0.753   2.391
31914SOL     OW97515   8.529   6.510   9.210
31914SOL    HW197516   8.499   6.591   9.170
31914SOL    HW297517   8.612   6.532   9.252
31915SOL     OW97518   7.741   1.450   3.518
31915SOL    HW197519   7.760   1.396   3.595
31915SOL    HW297520   7.814   1.433   3.458
31916SOL     OW97521   8.817   9.603  11.086
31916SOL    HW197522   8.838   9.541  11.156
31916SOL    HW297523   8.850   9.561  11.007
31917SOL     OW97524   2.322   2.290   9.137
31917SOL    HW197525   2.240   2.268   9.093
31917SOL    HW297526   2.390   2.250   9.082
31918SOL     OW97527   0.050  10.035   6.201
31918SOL    HW197528  14.869   9.992   6.263
31918SOL    HW297529   0.135  10.040   6.246
31919SOL     OW97530  13.686   4.778   1.337
31919SOL    HW197531  13.687   4.801   1.430
31919SOL    HW297532  13.594   4.785   1.311
31920SOL     OW97533  11.820  14.523  11.958
31920SOL    HW197534  11.885  14.464  11.923
31920SOL    HW297535  11.822  14.599  11.899
31921SOL     OW97536   8.898   4.947   3.084
31921SOL    HW197537   8.894   4.851   3.078
31921SOL    HW297538   8.816   4.976   3.044
31922SOL     OW97539   2.809  10.901   1.334
31922SOL    HW197540   2.902  10.891   1.313
31922SOL    HW297541   2.769  10.926   1.251
31923SOL     OW97542  10.554   5.149   1.585
31923SOL    HW197543  10.477   5.116   1.538
31923SOL    HW297544  10.598   5.069   1.616
31924SOL     OW97545  10.974   0.998  12.830
31924SOL    HW197546  11.004   0.947  12.906
31924SOL    HW297547  10.908   0.942  12.788
31925SOL     OW97548  13.532  11.744   5.293
31925SOL    HW197549  13.523  11.808   5.222
31925SOL    HW297550  13.623  11.751   5.321
31926SOL     OW97551   4.461   8.677   6.720
31926SOL    HW197552   4.466   8.761   6.767
31926SOL    HW297553   4.518   8.689   6.644
31927SOL     OW97554  14.097   8.674   6.741
31927SOL    HW197555  14.047   8.736   6.688
31927SOL    HW297556  14.188   8.693   6.721
31928SOL     OW97557  14.668   7.264   5.958
31928SOL    HW197558  14.600   7.201   5.934
31928SOL    HW297559  14.749   7.214   5.959
31929SOL     OW97560   1.117  13.020   3.559
31929SOL    HW197561   1.160  13.091   3.606
31929SOL    HW297562   1.086  13.059   3.478
31930SOL     OW97563   3.524   0.720   7.152
31930SOL    HW197564   3.553   0.809   7.131
31930SOL    HW297565   3.442   0.733   7.200
31931SOL     OW97566   4.926   4.028   8.234
31931SOL    HW197567   4.897   3.959   8.175
31931SOL    HW297568   4.846   4.075   8.258
31932SOL     OW97569  10.651   0.726  10.005
31932SOL    HW197570  10.587   0.688   9.945
31932SOL    HW297571  10.642   0.675  10.086
31933SOL     OW97572   0.742  13.222  14.838
31933SOL    HW197573   0.742  13.197  14.745
31933SOL    HW297574   0.798  13.157   0.003
31934SOL     OW97575  13.650   7.645  11.841
31934SOL    HW197576  13.708   7.632  11.765
31934SOL    HW297577  13.581   7.702  11.808
31935SOL     OW97578   5.984  12.108  10.303
31935SOL    HW197579   5.974  12.019  10.336
31935SOL    HW297580   5.900  12.129  10.263
31936SOL     OW97581  14.772   8.124  13.678
31936SOL    HW197582  14.825   8.201  13.699
31936SOL    HW297583  14.743   8.091  13.763
31937SOL     OW97584   9.286   0.727   9.045
31937SOL    HW197585   9.242   0.800   9.087
31937SOL    HW297586   9.373   0.725   9.085
31938SOL     OW97587   2.652  14.130   6.929
31938SOL    HW197588   2.716  14.097   6.866
31938SOL    HW297589   2.704  14.171   6.998
31939SOL     OW97590   0.345   3.370  10.965
31939SOL    HW197591   0.343   3.370  11.061
31939SOL    HW297592   0.372   3.282  10.941
31940SOL     OW97593  10.239   6.097  12.682
31940SOL    HW197594  10.174   6.074  12.749
31940SOL    HW297595  10.288   6.170  12.721
31941SOL     OW97596   1.945   1.734   7.713
31941SOL    HW197597   1.925   1.751   7.621
31941SOL    HW297598   2.036   1.762   7.723
31942SOL     OW97599  13.582   5.551   2.256
31942SOL    HW197600  13.555   5.638   2.285
31942SOL    HW297601  13.678   5.553   2.258
31943SOL     OW97602  12.726   3.518   6.492
31943SOL    HW197603  12.728   3.432   6.451
31943SOL    HW297604  12.657   3.511   6.559
31944SOL     OW97605   8.621   4.817   2.712
31944SOL    HW197606   8.535   4.789   2.679
31944SOL    HW297607   8.668   4.845   2.634
31945SOL     OW97608   7.658   3.897   9.735
31945SOL    HW197609   7.707   3.908   9.653
31945SOL    HW297610   7.691   3.816   9.773
31946SOL     OW97611   2.455  10.925  12.650
31946SOL    HW197612   2.508  10.881  12.583
31946SOL    HW297613   2.465  10.870  12.728
31947SOL     OW97614  12.483   1.225   5.095
31947SOL    HW197615  12.418   1.168   5.052
31947SOL    HW297616  12.535   1.261   5.024
31948SOL     OW97617  12.875   2.846   5.895
31948SOL    HW197618  12.853   2.753   5.900
31948SOL    HW297619  12.968   2.847   5.874
31949SOL     OW97620   9.307   6.195  12.497
31949SOL    HW197621   9.212   6.195  12.483
31949SOL    HW297622   9.325   6.108  12.534
31950SOL     OW97623   0.028  13.590   3.287
31950SOL    HW197624  14.843  13.546   3.345
31950SOL    HW297625  14.868  13.581   3.200
31951SOL     OW97626  13.163   4.668  11.778
31951SOL    HW197627  13.130   4.619  11.703
31951SOL    HW297628  13.085   4.710  11.815
31952SOL     OW97629  10.205   1.190   4.843
31952SOL    HW197630  10.295   1.212   4.820
31952SOL    HW297631  10.205   1.096   4.857
31953SOL     OW97632   6.314   6.898   8.967
31953SOL    HW197633   6.218   6.902   8.968
31953SOL    HW297634   6.342   6.988   8.952
31954SOL     OW97635   3.641   4.016  12.424
31954SOL    HW197636   3.608   3.935  12.463
31954SOL    HW297637   3.563   4.070  12.411
31955SOL     OW97638   6.728   3.596   3.209
31955SOL    HW197639   6.670   3.613   3.134
31955SOL    HW297640   6.683   3.638   3.283
31956SOL     OW97641   9.613  10.583   5.756
31956SOL    HW197642   9.572  10.512   5.706
31956SOL    HW297643   9.544  10.648   5.768
31957SOL     OW97644  12.245   0.938  11.283
31957SOL    HW197645  12.296   0.948  11.364
31957SOL    HW297646  12.188   0.864  11.300
31958SOL     OW97647  13.888  11.831   9.318
31958SOL    HW197648  13.801  11.845   9.354
31958SOL    HW297649  13.944  11.890   9.369
31959SOL     OW97650  13.824   4.758  11.750
31959SOL    HW197651  13.767   4.833  11.767
31959SOL    HW297652  13.795   4.691  11.811
31960SOL     OW97653   8.768   7.674  12.960
31960SOL    HW197654   8.721   7.597  12.990
31960SOL    HW297655   8.860   7.647  12.958
31961SOL     OW97656   1.021  12.349   2.391
31961SOL    HW197657   1.110  12.327   2.418
31961SOL    HW297658   1.021  12.444   2.381
31962SOL     OW97659   8.775   9.137  13.049
31962SOL    HW197660   8.787   9.231  13.061
31962SOL    HW297661   8.860   9.099  13.069
31963SOL     OW97662  13.823   2.735  10.366
31963SOL    HW197663  13.744   2.756  10.415
31963SOL    HW297664  13.860   2.821  10.341
31964SOL     OW97665   6.841   3.405   2.613
31964SOL    HW197666   6.868   3.314   2.598
31964SOL    HW297667   6.787   3.426   2.537
31965SOL     OW97668   2.105   4.181   1.743
31965SOL    HW197669   2.171   4.112   1.747
31965SOL    HW297670   2.023   4.134   1.726
31966SOL     OW97671   3.690   9.620  10.092
31966SOL    HW197672   3.658   9.567  10.019
31966SOL    HW297673   3.738   9.558  10.147
31967SOL     OW97674   7.471  10.299   7.244
31967SOL    HW197675   7.494  10.326   7.333
31967SOL    HW297676   7.514  10.215   7.232
31968SOL     OW97677   1.086   9.748   0.389
31968SOL    HW197678   1.006   9.799   0.401
31968SOL    HW297679   1.063   9.683   0.324
31969SOL     OW97680   5.852   0.122   9.923
31969SOL    HW197681   5.868   0.137   9.830
31969SOL    HW297682   5.876   0.204   9.966
31970SOL     OW97683   1.005   0.640   3.977
31970SOL    HW197684   1.072   0.630   3.909
31970SOL    HW297685   0.922   0.624   3.932
31971SOL     OW97686  12.739   4.061   5.049
31971SOL    HW197687  12.769   3.974   5.075
31971SOL    HW297688  12.813   4.119   5.068
31972SOL     OW97689  12.750  11.071   8.123
31972SOL    HW197690  12.755  11.051   8.216
31972SOL    HW297691  12.751  10.985   8.080
31973SOL     OW97692   3.094   7.169  14.020
31973SOL    HW197693   3.173   7.204  14.062
31973SOL    HW297694   3.030   7.240  14.025
31974SOL     OW97695   6.048  11.787   4.224
31974SOL    HW197696   6.089  11.846   4.161
31974SOL    HW297697   5.955  11.807   4.220
31975SOL     OW97698   5.073   3.553   9.627
31975SOL    HW197699   5.040   3.537   9.715
31975SOL    HW297700   5.039   3.481   9.575
31976SOL     OW97701  13.768   8.252   6.993
31976SOL    HW197702  13.790   8.289   6.907
31976SOL    HW297703  13.805   8.164   6.990
31977SOL     OW97704  14.083  14.650  14.304
31977SOL    HW197705  14.083  14.652  14.400
31977SOL    HW297706  14.027  14.724  14.279
31978SOL     OW97707   1.893   0.956  14.488
31978SOL    HW197708   1.865   0.868  14.513
31978SOL    HW297709   1.942   0.988  14.563
31979SOL     OW97710   7.179   0.493   7.410
31979SOL    HW197711   7.228   0.411   7.411
31979SOL    HW297712   7.176   0.520   7.502
31980SOL     OW97713  14.865  14.253   8.935
31980SOL    HW197714  14.830  14.167   8.912
31980SOL    HW297715   0.073  14.257   8.891
31981SOL     OW97716  11.471   1.599   2.854
31981SOL    HW197717  11.546   1.540   2.860
31981SOL    HW297718  11.395   1.545   2.877
31982SOL     OW97719   1.580   0.791   0.411
31982SOL    HW197720   1.501   0.739   0.421
31982SOL    HW297721   1.650   0.727   0.397
31983SOL     OW97722   6.245  12.454   1.823
31983SOL    HW197723   6.327  12.484   1.864
31983SOL    HW297724   6.272  12.385   1.762
31984SOL     OW97725  13.494   2.391   1.872
31984SOL    HW197726  13.428   2.415   1.807
31984SOL    HW297727  13.573   2.376   1.822
31985SOL     OW97728  14.694   7.378   7.545
31985SOL    HW197729  14.656   7.291   7.555
31985SOL    HW297730  14.709   7.409   7.634
31986SOL     OW97731   8.993  12.904   0.376
31986SOL    HW197732   9.025  12.840   0.313
31986SOL    HW297733   8.935  12.854   0.434
31987SOL     OW97734   1.803  10.692  13.287
31987SOL    HW197735   1.812  10.650  13.202
31987SOL    HW297736   1.811  10.621  13.350
31988SOL     OW97737   8.229   2.320  13.826
31988SOL    HW197738   8.297   2.282  13.771
31988SOL    HW297739   8.272   2.339  13.909
31989SOL     OW97740   5.510  14.505   3.665
31989SOL    HW197741   5.467  14.421   3.686
31989SOL    HW297742   5.439  14.560   3.632
31990SOL     OW97743   0.704  14.534   7.114
31990SOL    HW197744   0.794  14.514   7.088
31990SOL    HW297745   0.663  14.449   7.128
31991SOL     OW97746   0.273   5.022  10.312
31991SOL    HW197747   0.186   5.021  10.273
31991SOL    HW297748   0.331   4.990  10.243
31992SOL     OW97749   1.357  13.352  12.136
31992SOL    HW197750   1.331  13.283  12.197
31992SOL    HW297751   1.442  13.383  12.170
31993SOL     OW97752   8.247  13.450   7.730
31993SOL    HW197753   8.247  13.504   7.651
31993SOL    HW297754   8.245  13.512   7.802
31994SOL     OW97755  13.490   0.508   8.030
31994SOL    HW197756  13.423   0.555   7.981
31994SOL    HW297757  13.455   0.420   8.040
31995SOL     OW97758   4.064   2.830   8.571
31995SOL    HW197759   3.971   2.837   8.552
31995SOL    HW297760   4.075   2.876   8.654
31996SOL     OW97761   7.126   3.071   0.286
31996SOL    HW197762   7.204   3.059   0.341
31996SOL    HW297763   7.147   3.025   0.205
31997SOL     OW97764  13.485   4.730   4.831
31997SOL    HW197765  13.553   4.673   4.868
31997SOL    HW297766  13.442   4.769   4.908
31998SOL     OW97767  11.424  13.536  12.041
31998SOL    HW197768  11.482  13.511  12.113
31998SOL    HW297769  11.346  13.483  12.053
31999SOL     OW97770  11.569  13.144   8.336
31999SOL    HW197771  11.512  13.102   8.272
31999SOL    HW297772  11.510  13.176   8.404
32000SOL     OW97773   9.836   5.903   1.406
32000SOL    HW197774   9.795   5.949   1.479
32000SOL    HW297775   9.927   5.894   1.432
32001SOL     OW97776  12.259   0.901   2.459
32001SOL    HW197777  12.337   0.938   2.499
32001SOL    HW297778  12.276   0.807   2.454
32002SOL     OW97779  11.298   7.185   4.566
32002SOL    HW197780  11.306   7.275   4.533
32002SOL    HW297781  11.207   7.162   4.550
32003SOL     OW97782   2.860   7.252   9.766
32003SOL    HW197783   2.937   7.307   9.750
32003SOL    HW297784   2.816   7.293   9.840
32004SOL     OW97785  10.479   8.900  11.864
32004SOL    HW197786  10.412   8.962  11.892
32004SOL    HW297787  10.444   8.862  11.784
32005SOL     OW97788   1.440  11.430  14.857
32005SOL    HW197789   1.440  11.510   0.032
32005SOL    HW297790   1.349  11.403  14.854
32006SOL     OW97791  13.950   7.713  12.861
32006SOL    HW197792  13.886   7.681  12.924
32006SOL    HW297793  14.025   7.655  12.872
32007SOL     OW97794   2.147   1.355  14.581
32007SOL    HW197795   2.160   1.270  14.623
32007SOL    HW297796   2.232   1.376  14.543
32008SOL     OW97797   1.646   8.409  14.688
32008SOL    HW197798   1.642   8.344  14.617
32008SOL    HW297799   1.562   8.455  14.683
32009SOL     OW97800  10.607  14.330   7.623
32009SOL    HW197801  10.539  14.270   7.592
32009SOL    HW297802  10.676  14.272   7.657
32010SOL     OW97803  13.820   6.131  14.124
32010SOL    HW197804  13.789   6.074  14.195
32010SOL    HW297805  13.868   6.201  14.168
32011SOL     OW97806   6.238   9.261   9.052
32011SOL    HW197807   6.193   9.194   9.104
32011SOL    HW297808   6.292   9.308   9.115
32012SOL     OW97809   5.439  12.437   9.289
32012SOL    HW197810   5.459  12.420   9.197
32012SOL    HW297811   5.479  12.522   9.308
32013SOL     OW97812   0.394  12.101   5.842
32013SOL    HW197813   0.485  12.108   5.872
32013SOL    HW297814   0.395  12.031   5.777
32014SOL     OW97815  14.752  12.890   5.234
32014SOL    HW197816  14.697  12.830   5.184
32014SOL    HW297817  14.841  12.857   5.225
32015SOL     OW97818   2.293   0.793  11.111
32015SOL    HW197819   2.301   0.822  11.202
32015SOL    HW297820   2.311   0.699  11.114
32016SOL     OW97821   0.646   4.200   6.997
32016SOL    HW197822   0.684   4.253   7.067
32016SOL    HW297823   0.676   4.241   6.916
32017SOL     OW97824   8.977   5.806  11.894
32017SOL    HW197825   9.018   5.885  11.861
32017SOL    HW297826   9.013   5.735  11.840
32018SOL     OW97827   4.772   3.309   3.946
32018SOL    HW197828   4.793   3.368   3.874
32018SOL    HW297829   4.854   3.266   3.967
32019SOL     OW97830   1.535   2.534   4.669
32019SOL    HW197831   1.502   2.613   4.711
32019SOL    HW297832   1.582   2.566   4.592
32020SOL     OW97833   2.745  13.872   5.033
32020SOL    HW197834   2.836  13.874   5.063
32020SOL    HW297835   2.741  13.798   4.973
32021SOL     OW97836   8.942   4.547  13.329
32021SOL    HW197837   9.016   4.493  13.357
32021SOL    HW297838   8.953   4.629  13.376
32022SOL     OW97839   4.267  13.078   2.518
32022SOL    HW197840   4.334  13.044   2.459
32022SOL    HW297841   4.298  13.055   2.606
32023SOL     OW97842  13.028   5.438   7.325
32023SOL    HW197843  12.938   5.418   7.299
32023SOL    HW297844  13.020   5.511   7.386
32024SOL     OW97845   5.672  12.548  11.531
32024SOL    HW197846   5.677  12.472  11.473
32024SOL    HW297847   5.596  12.531  11.586
32025SOL     OW97848  13.194  10.066  13.643
32025SOL    HW197849  13.225   9.978  13.666
32025SOL    HW297850  13.104  10.051  13.612
32026SOL     OW97851   5.672  12.650   5.530
32026SOL    HW197852   5.736  12.580   5.541
32026SOL    HW297853   5.655  12.681   5.619
32027SOL     OW97854   7.132  10.741  14.564
32027SOL    HW197855   7.141  10.806  14.634
32027SOL    HW297856   7.204  10.680  14.580
32028SOL     OW97857   3.597   0.295   2.831
32028SOL    HW197858   3.607   0.201   2.843
32028SOL    HW297859   3.586   0.329   2.920
32029SOL     OW97860   2.695   9.013   3.887
32029SOL    HW197861   2.609   8.989   3.923
32029SOL    HW297862   2.685   9.104   3.861
32030SOL     OW97863   1.661   6.375   4.254
32030SOL    HW197864   1.598   6.366   4.183
32030SOL    HW297865   1.712   6.453   4.231
32031SOL     OW97866  10.125  13.091  13.180
32031SOL    HW197867  10.067  13.024  13.143
32031SOL    HW297868  10.084  13.115  13.263
32032SOL     OW97869   8.097  10.476   0.714
32032SOL    HW197870   8.143  10.395   0.737
32032SOL    HW297871   8.014  10.446   0.676
32033SOL     OW97872   3.073   0.462  10.767
32033SOL    HW197873   2.993   0.508  10.791
32033SOL    HW297874   3.140   0.531  10.763
32034SOL     OW97875   7.062   5.679   3.039
32034SOL    HW197876   7.084   5.710   2.951
32034SOL    HW297877   7.011   5.599   3.024
32035SOL     OW97878   5.962   8.533   8.222
32035SOL    HW197879   5.944   8.563   8.311
32035SOL    HW297880   5.881   8.549   8.174
32036SOL     OW97881   0.636   2.551   5.607
32036SOL    HW197882   0.723   2.583   5.631
32036SOL    HW297883   0.649   2.504   5.525
32037SOL     OW97884   5.245   5.626  10.602
32037SOL    HW197885   5.250   5.630  10.697
32037SOL    HW297886   5.290   5.705  10.572
32038SOL     OW97887  13.508   6.714  10.781
32038SOL    HW197888  13.590   6.673  10.753
32038SOL    HW297889  13.523   6.808  10.767
32039SOL     OW97890   4.430  10.327   8.802
32039SOL    HW197891   4.408  10.399   8.743
32039SOL    HW297892   4.421  10.248   8.748
32040SOL     OW97893  13.254   7.101   0.384
32040SOL    HW197894  13.250   7.097   0.288
32040SOL    HW297895  13.246   7.010   0.412
32041SOL     OW97896   7.918   9.590   8.109
32041SOL    HW197897   7.995   9.600   8.054
32041SOL    HW297898   7.906   9.495   8.118
32042SOL     OW97899   5.840   7.773   6.885
32042SOL    HW197900   5.905   7.821   6.937
32042SOL    HW297901   5.756   7.812   6.909
32043SOL     OW97902   9.382   2.597   2.218
32043SOL    HW197903   9.441   2.672   2.219
32043SOL    HW297904   9.354   2.588   2.309
32044SOL     OW97905   1.291  12.045   2.612
32044SOL    HW197906   1.246  12.084   2.538
32044SOL    HW297907   1.346  11.976   2.573
32045SOL     OW97908   8.086  11.917   0.949
32045SOL    HW197909   8.122  11.828   0.951
32045SOL    HW297910   8.032  11.924   1.028
32046SOL     OW97911   6.834  13.374   7.668
32046SOL    HW197912   6.838  13.402   7.759
32046SOL    HW297913   6.925  13.377   7.638
32047SOL     OW97914   7.462   4.090   6.119
32047SOL    HW197915   7.474   4.185   6.126
32047SOL    HW297916   7.465   4.072   6.025
32048SOL     OW97917   6.421  10.932  12.839
32048SOL    HW197918   6.325  10.928  12.840
32048SOL    HW297919   6.443  10.954  12.749
32049SOL     OW97920  13.833  13.738   7.999
32049SOL    HW197921  13.888  13.816   8.008
32049SOL    HW297922  13.881  13.683   7.937
32050SOL     OW97923   9.278   3.822   2.328
32050SOL    HW197924   9.195   3.789   2.360
32050SOL    HW297925   9.254   3.889   2.264
32051SOL     OW97926   0.151   2.368   8.834
32051SOL    HW197927   0.172   2.441   8.775
32051SOL    HW297928   0.180   2.290   8.786
32052SOL     OW97929   5.616  10.335  11.287
32052SOL    HW197930   5.656  10.421  11.295
32052SOL    HW297931   5.658  10.282  11.355
32053SOL     OW97932  13.565  11.400   1.020
32053SOL    HW197933  13.637  11.342   0.994
32053SOL    HW297934  13.538  11.367   1.106
32054SOL     OW97935  14.294   2.950  13.927
32054SOL    HW197936  14.340   3.033  13.939
32054SOL    HW297937  14.267   2.924  14.015
32055SOL     OW97938   3.324   9.911   1.085
32055SOL    HW197939   3.235   9.925   1.055
32055SOL    HW297940   3.362   9.852   1.020
32056SOL     OW97941   4.319  11.711  13.277
32056SOL    HW197942   4.299  11.619  13.294
32056SOL    HW297943   4.367  11.740  13.354
32057SOL     OW97944   5.464   8.046   4.298
32057SOL    HW197945   5.493   8.124   4.345
32057SOL    HW297946   5.508   8.051   4.213
32058SOL     OW97947  13.666   6.892  14.557
32058SOL    HW197948  13.642   6.809  14.517
32058SOL    HW297949  13.618   6.958  14.505
32059SOL     OW97950   6.398  13.145   2.788
32059SOL    HW197951   6.467  13.120   2.850
32059SOL    HW297952   6.440  13.211   2.732
32060SOL     OW97953   3.870  13.042  13.941
32060SOL    HW197954   3.814  13.019  14.016
32060SOL    HW297955   3.818  13.105  13.891
32061SOL     OW97956   8.670  11.603   0.301
32061SOL    HW197957   8.755  11.577   0.266
32061SOL    HW297958   8.642  11.529   0.354
32062SOL     OW97959   9.543   0.838   1.292
32062SOL    HW197960   9.511   0.928   1.283
32062SOL    HW297961   9.614   0.832   1.227
32063SOL     OW97962   5.392   8.770  14.578
32063SOL    HW197963   5.330   8.795  14.646
32063SOL    HW297964   5.341   8.771  14.497
32064SOL     OW97965   5.945  14.164   1.961
32064SOL    HW197966   5.912  14.222   2.030
32064SOL    HW297967   6.039  14.186   1.955
32065SOL     OW97968  14.592   8.941   5.635
32065SOL    HW197969  14.679   8.902   5.645
32065SOL    HW297970  14.572   8.932   5.542
32066SOL     OW97971   0.817   6.538   0.898
32066SOL    HW197972   0.804   6.579   0.984
32066SOL    HW297973   0.802   6.609   0.835
32067SOL     OW97974  13.230  11.850   7.649
32067SOL    HW197975  13.315  11.842   7.690
32067SOL    HW297976  13.171  11.797   7.703
32068SOL     OW97977   7.701  14.705  14.843
32068SOL    HW197978   7.768  14.761  14.804
32068SOL    HW297979   7.748  14.626  14.870
32069SOL     OW97980   8.002   1.638  11.263
32069SOL    HW197981   8.033   1.728  11.257
32069SOL    HW297982   7.914   1.640  11.226
32070SOL     OW97983  12.936   3.405   6.636
32070SOL    HW197984  12.870   3.437   6.575
32070SOL    HW297985  12.982   3.336   6.588
32071SOL     OW97986   9.875   8.078  14.519
32071SOL    HW197987   9.916   8.158  14.486
32071SOL    HW297988   9.850   8.030  14.440
32072SOL     OW97989   8.978  12.942   9.471
32072SOL    HW197990   9.068  12.953   9.501
32072SOL    HW297991   8.961  12.848   9.483
32073SOL     OW97992  12.485   9.175  11.275
32073SOL    HW197993  12.495   9.177  11.180
32073SOL    HW297994  12.431   9.251  11.295
32074SOL     OW97995   2.584   1.625   3.651
32074SOL    HW197996   2.564   1.682   3.577
32074SOL    HW297997   2.499   1.610   3.693
32075SOL     OW97998   2.155  10.077  12.363
32075SOL    HW197999   2.141  10.102  12.454
32075SOL    HW298000   2.234  10.124  12.336
32076SOL     OW98001   0.208   6.435   6.233
32076SOL    HW198002   0.271   6.392   6.292
32076SOL    HW298003   0.259   6.504   6.191
32077SOL     OW98004  13.323   6.019   5.366
32077SOL    HW198005  13.347   6.047   5.278
32077SOL    HW298006  13.391   5.955   5.390
32078SOL     OW98007  14.511   8.886   8.394
32078SOL    HW198008  14.597   8.860   8.425
32078SOL    HW298009  14.505   8.979   8.416
32079SOL     OW98010   7.526   3.714  10.690
32079SOL    HW198011   7.580   3.790  10.706
32079SOL    HW298012   7.537   3.660  10.768
32080SOL     OW98013  10.311   7.042  11.293
32080SOL    HW198014  10.337   7.097  11.219
32080SOL    HW298015  10.277   6.963  11.253
32081SOL     OW98016   1.158  11.284  10.765
32081SOL    HW198017   1.121  11.196  10.769
32081SOL    HW298018   1.083  11.342  10.777
32082SOL     OW98019   8.904   9.917   2.399
32082SOL    HW198020   8.979   9.867   2.431
32082SOL    HW298021   8.887   9.882   2.312
32083SOL     OW98022  14.575  12.343   1.249
32083SOL    HW198023  14.554  12.263   1.203
32083SOL    HW298024  14.492  12.389   1.258
32084SOL     OW98025   9.270   1.175   1.707
32084SOL    HW198026   9.361   1.151   1.691
32084SOL    HW298027   9.224   1.092   1.715
32085SOL     OW98028   4.649   8.612  14.281
32085SOL    HW198029   4.675   8.628  14.372
32085SOL    HW298030   4.694   8.681  14.231
32086SOL     OW98031   1.747   2.014   6.698
32086SOL    HW198032   1.769   1.930   6.736
32086SOL    HW298033   1.830   2.049   6.666
32087SOL     OW98034  11.583  13.259  10.757
32087SOL    HW198035  11.558  13.322  10.689
32087SOL    HW298036  11.577  13.174  10.715
32088SOL     OW98037  12.418   1.454   0.098
32088SOL    HW198038  12.424   1.360   0.077
32088SOL    HW298039  12.474   1.496   0.033
32089SOL     OW98040   9.254   8.902   9.900
32089SOL    HW198041   9.339   8.898   9.944
32089SOL    HW298042   9.207   8.973   9.945
32090SOL     OW98043  11.054  10.611   0.461
32090SOL    HW198044  11.000  10.638   0.386
32090SOL    HW298045  11.143  10.634   0.436
32091SOL     OW98046   4.180  13.775   4.214
32091SOL    HW198047   4.231  13.855   4.196
32091SOL    HW298048   4.112  13.775   4.146
32092SOL     OW98049  14.815  13.007  10.479
32092SOL    HW198050  14.841  13.022  10.570
32092SOL    HW298051   0.010  13.041  10.428
32093SOL     OW98052   9.765  12.668   3.120
32093SOL    HW198053   9.858  12.689   3.111
32093SOL    HW298054   9.763  12.573   3.135
32094SOL     OW98055   5.373   4.444   4.077
32094SOL    HW198056   5.352   4.495   4.155
32094SOL    HW298057   5.354   4.502   4.004
32095SOL     OW98058   4.188   2.861  10.696
32095SOL    HW198059   4.169   2.926  10.629
32095SOL    HW298060   4.284   2.854  10.695
32096SOL     OW98061   9.283   5.886  12.552
32096SOL    HW198062   9.280   5.795  12.581
32096SOL    HW298063   9.232   5.888  12.471
32097SOL     OW98064   1.516  12.139   7.579
32097SOL    HW198065   1.453  12.075   7.613
32097SOL    HW298066   1.522  12.205   7.649
32098SOL     OW98067  12.737   7.722   7.297
32098SOL    HW198068  12.688   7.781   7.239
32098SOL    HW298069  12.669   7.682   7.352
32099SOL     OW98070   2.036   5.803   0.230
32099SOL    HW198071   2.054   5.738   0.297
32099SOL    HW298072   2.028   5.886   0.278
32100SOL     OW98073   9.705   4.826   2.226
32100SOL    HW198074   9.638   4.867   2.281
32100SOL    HW298075   9.719   4.740   2.267
32101SOL     OW98076   2.807  13.065   5.894
32101SOL    HW198077   2.788  12.981   5.852
32101SOL    HW298078   2.807  13.045   5.988
32102SOL     OW98079  10.339  12.199   6.787
32102SOL    HW198080  10.407  12.231   6.845
32102SOL    HW298081  10.386  12.154   6.717
32103SOL     OW98082  11.336   5.804   5.905
32103SOL    HW198083  11.349   5.884   5.854
32103SOL    HW298084  11.423   5.784   5.939
32104SOL     OW98085   0.605   1.422   4.268
32104SOL    HW198086   0.615   1.515   4.247
32104SOL    HW298087   0.544   1.421   4.342
32105SOL     OW98088   2.275   4.575  11.391
32105SOL    HW198089   2.283   4.657  11.342
32105SOL    HW298090   2.184   4.549  11.380
32106SOL     OW98091   3.559   0.810  11.671
32106SOL    HW198092   3.583   0.902  11.680
32106SOL    HW298093   3.601   0.782  11.590
32107SOL     OW98094   5.069   2.599   7.339
32107SOL    HW198095   5.057   2.640   7.424
32107SOL    HW298096   5.004   2.530   7.336
32108SOL     OW98097   0.576   4.381   9.339
32108SOL    HW198098   0.498   4.329   9.357
32108SOL    HW298099   0.542   4.464   9.304
32109SOL     OW98100   3.049   7.107   6.912
32109SOL    HW198101   3.027   7.171   6.843
32109SOL    HW298102   2.976   7.113   6.974
32110SOL     OW98103   3.449   9.481   1.728
32110SOL    HW198104   3.354   9.468   1.721
32110SOL    HW298105   3.483   9.392   1.740
32111SOL     OW98106  14.219  12.213   5.623
32111SOL    HW198107  14.279  12.144   5.594
32111SOL    HW298108  14.242  12.227   5.715
32112SOL     OW98109   3.845   6.321   0.923
32112SOL    HW198110   3.830   6.378   0.847
32112SOL    HW298111   3.932   6.285   0.908
32113SOL     OW98112   9.476   5.673   3.119
32113SOL    HW198113   9.491   5.636   3.206
32113SOL    HW298114   9.556   5.724   3.101
32114SOL     OW98115   4.157   9.433   4.569
32114SOL    HW198116   4.249   9.460   4.565
32114SOL    HW298117   4.127   9.463   4.654
32115SOL     OW98118   3.593   8.100  12.735
32115SOL    HW198119   3.666   8.159  12.718
32115SOL    HW298120   3.566   8.069  12.649
32116SOL     OW98121   2.682   2.662  10.180
32116SOL    HW198122   2.734   2.740  10.201
32116SOL    HW298123   2.681   2.611  10.261
32117SOL     OW98124   3.040   8.726  14.672
32117SOL    HW198125   3.132   8.745  14.655
32117SOL    HW298126   3.029   8.634  14.648
32118SOL     OW98127   3.284   4.030   9.713
32118SOL    HW198128   3.330   4.109   9.741
32118SOL    HW298129   3.200   4.061   9.679
32119SOL     OW98130   9.063   2.999   4.071
32119SOL    HW198131   9.148   2.999   4.028
32119SOL    HW298132   9.005   3.046   4.011
32120SOL     OW98133   1.579   1.021   1.888
32120SOL    HW198134   1.514   1.015   1.817
32120SOL    HW298135   1.530   1.052   1.963
32121SOL     OW98136   2.588   7.715   4.711
32121SOL    HW198137   2.631   7.637   4.676
32121SOL    HW298138   2.601   7.782   4.644
32122SOL     OW98139  12.705   2.046   2.487
32122SOL    HW198140  12.713   2.107   2.414
32122SOL    HW298141  12.714   1.959   2.446
32123SOL     OW98142   9.425   0.727   2.931
32123SOL    HW198143   9.349   0.668   2.926
32123SOL    HW298144   9.494   0.681   2.884
32124SOL     OW98145   2.145   7.828   7.784
32124SOL    HW198146   2.201   7.750   7.787
32124SOL    HW298147   2.188   7.887   7.723
32125SOL     OW98148   6.628  13.198   9.022
32125SOL    HW198149   6.595  13.240   8.942
32125SOL    HW298150   6.652  13.271   9.079
32126SOL     OW98151   0.877  11.089   2.925
32126SOL    HW198152   0.930  11.034   2.868
32126SOL    HW298153   0.907  11.068   3.013
32127SOL     OW98154   1.507   7.497   5.745
32127SOL    HW198155   1.486   7.494   5.838
32127SOL    HW298156   1.527   7.589   5.728
32128SOL     OW98157  12.660   2.029  14.515
32128SOL    HW198158  12.742   2.048  14.560
32128SOL    HW298159  12.593   2.072  14.568
32129SOL     OW98160   7.687  13.691   1.113
32129SOL    HW198161   7.663  13.611   1.160
32129SOL    HW298162   7.710  13.753   1.182
32130SOL     OW98163  11.034   9.782   2.969
32130SOL    HW198164  10.963   9.845   2.977
32130SOL    HW298165  11.113   9.833   2.989
32131SOL     OW98166  11.247   5.072   7.153
32131SOL    HW198167  11.320   5.053   7.211
32131SOL    HW298168  11.266   5.024   7.073
32132SOL     OW98169   6.879  11.893   4.746
32132SOL    HW198170   6.842  11.835   4.679
32132SOL    HW298171   6.967  11.859   4.762
32133SOL     OW98172   0.696   3.664  14.221
32133SOL    HW198173   0.714   3.602  14.292
32133SOL    HW298174   0.604   3.688  14.232
32134SOL     OW98175   0.396   8.898   9.052
32134SOL    HW198176   0.335   8.960   9.093
32134SOL    HW298177   0.390   8.918   8.958
32135SOL     OW98178  14.713   5.076   0.043
32135SOL    HW198179  14.639   5.099  14.865
32135SOL    HW298180  14.690   4.991   0.080
32136SOL     OW98181   7.535   0.967   5.166
32136SOL    HW198182   7.522   1.031   5.096
32136SOL    HW298183   7.505   0.884   5.128
32137SOL     OW98184   0.277   8.884   5.022
32137SOL    HW198185   0.206   8.850   5.076
32137SOL    HW298186   0.235   8.945   4.962
32138SOL     OW98187   8.873   2.585   6.712
32138SOL    HW198188   8.813   2.541   6.652
32138SOL    HW298189   8.906   2.515   6.768
32139SOL     OW98190   3.128   3.578   3.202
32139SOL    HW198191   3.077   3.655   3.229
32139SOL    HW298192   3.062   3.512   3.180
32140SOL     OW98193   5.717   0.006   9.017
32140SOL    HW198194   5.722   0.101   9.007
32140SOL    HW298195   5.783  14.863   9.084
32141SOL     OW98196   6.087   3.223  14.499
32141SOL    HW198197   6.032   3.145  14.492
32141SOL    HW298198   6.175   3.190  14.517
32142SOL     OW98199   8.473   1.903   4.010
32142SOL    HW198200   8.480   1.849   4.089
32142SOL    HW298201   8.484   1.841   3.938
32143SOL     OW98202  12.938  11.898   9.300
32143SOL    HW198203  12.859  11.949   9.320
32143SOL    HW298204  12.949  11.908   9.205
32144SOL     OW98205  10.289   7.335   2.140
32144SOL    HW198206  10.201   7.297   2.141
32144SOL    HW298207  10.325   7.310   2.055
32145SOL     OW98208   1.709  11.212   5.325
32145SOL    HW198209   1.762  11.154   5.270
32145SOL    HW298210   1.631  11.230   5.271
32146SOL     OW98211   0.813  14.196  10.131
32146SOL    HW198212   0.842  14.184  10.221
32146SOL    HW298213   0.720  14.216  10.138
32147SOL     OW98214  11.203  13.751   9.399
32147SOL    HW198215  11.163  13.711   9.476
32147SOL    HW298216  11.291  13.714   9.396
32148SOL     OW98217   2.526  13.476   0.896
32148SOL    HW198218   2.542  13.383   0.880
32148SOL    HW298219   2.567  13.521   0.822
32149SOL     OW98220   5.893  11.303   7.034
32149SOL    HW198221   5.940  11.229   6.996
32149SOL    HW298222   5.904  11.373   6.969
32150SOL     OW98223  10.684  12.577   1.241
32150SOL    HW198224  10.736  12.531   1.307
32150SOL    HW298225  10.732  12.566   1.159
32151SOL     OW98226   3.668  11.963  13.245
32151SOL    HW198227   3.745  11.910  13.222
32151SOL    HW298228   3.701  12.053  13.247
32152SOL     OW98229  13.957  13.547   2.633
32152SOL    HW198230  13.910  13.565   2.714
32152SOL    HW298231  14.045  13.521   2.662
32153SOL     OW98232   8.333  10.724  11.079
32153SOL    HW198233   8.239  10.744  11.083
32153SOL    HW298234   8.344  10.648  11.136
32154SOL     OW98235  13.098  11.900  13.225
32154SOL    HW198236  13.047  11.930  13.150
32154SOL    HW298237  13.054  11.821  13.254
32155SOL     OW98238   3.660   5.732   8.383
32155SOL    HW198239   3.709   5.715   8.302
32155SOL    HW298240   3.568   5.718   8.358
32156SOL     OW98241   6.091   7.063   8.881
32156SOL    HW198242   6.021   7.077   8.817
32156SOL    HW298243   6.166   7.110   8.846
32157SOL     OW98244   1.740   6.896  13.757
32157SOL    HW198245   1.705   6.852  13.679
32157SOL    HW298246   1.662   6.919  13.807
32158SOL     OW98247   3.838   3.225  11.399
32158SOL    HW198248   3.771   3.292  11.409
32158SOL    HW298249   3.837   3.203  11.306
32159SOL     OW98250  10.835   9.743   6.743
32159SOL    HW198251  10.771   9.738   6.814
32159SOL    HW298252  10.886   9.662   6.751
32160SOL     OW98253   4.412  13.589  13.716
32160SOL    HW198254   4.369  13.514  13.676
32160SOL    HW298255   4.506  13.570  13.708
32161SOL     OW98256   3.097  13.980   8.916
32161SOL    HW198257   3.181  13.949   8.883
32161SOL    HW298258   3.119  14.044   8.983
32162SOL     OW98259   0.664  14.742   3.689
32162SOL    HW198260   0.645  14.833   3.712
32162SOL    HW298261   0.734  14.717   3.749
32163SOL     OW98262   1.071   4.164   9.613
32163SOL    HW198263   1.009   4.093   9.630
32163SOL    HW298264   1.156   4.129   9.640
32164SOL     OW98265   7.380   4.619  12.856
32164SOL    HW198266   7.388   4.632  12.762
32164SOL    HW298267   7.460   4.657  12.892
32165SOL     OW98268  13.252   6.824   0.497
32165SOL    HW198269  13.211   6.789   0.418
32165SOL    HW298270  13.284   6.746   0.543
32166SOL     OW98271  14.713   0.436  12.926
32166SOL    HW198272  14.735   0.465  13.015
32166SOL    HW298273  14.624   0.400  12.934
32167SOL     OW98274   0.475   0.603  14.137
32167SOL    HW198275   0.464   0.510  14.156
32167SOL    HW298276   0.431   0.648  14.209
32168SOL     OW98277   4.039  13.230  13.710
32168SOL    HW198278   4.079  13.271  13.634
32168SOL    HW298279   4.101  13.246  13.781
32169SOL     OW98280  14.698  12.635  11.260
32169SOL    HW198281  14.793  12.625  11.262
32169SOL    HW298282  14.684  12.729  11.269
32170SOL     OW98283  13.631  11.225  10.011
32170SOL    HW198284  13.566  11.258  10.073
32170SOL    HW298285  13.605  11.134   9.996
32171SOL     OW98286  14.743  10.551   0.296
32171SOL    HW198287  14.738  10.642   0.324
32171SOL    HW298288  14.773  10.503   0.373
32172SOL     OW98289   9.633   4.506   9.961
32172SOL    HW198290   9.599   4.555  10.036
32172SOL    HW298291   9.655   4.574   9.897
32173SOL     OW98292   7.792   4.642   9.822
32173SOL    HW198293   7.728   4.713   9.828
32173SOL    HW298294   7.774   4.588   9.898
32174SOL     OW98295  11.410   4.275   7.574
32174SOL    HW198296  11.368   4.222   7.641
32174SOL    HW298297  11.369   4.247   7.492
32175SOL     OW98298  14.523   9.836  12.474
32175SOL    HW198299  14.555   9.869  12.558
32175SOL    HW298300  14.431   9.816  12.489
32176SOL     OW98301   4.759   2.169  14.745
32176SOL    HW198302   4.834   2.216  14.708
32176SOL    HW298303   4.684   2.199  14.694
32177SOL     OW98304   7.937  13.571   1.137
32177SOL    HW198305   7.940  13.490   1.188
32177SOL    HW298306   7.848  13.603   1.148
32178SOL     OW98307   2.052  12.487   0.721
32178SOL    HW198308   2.147  12.489   0.711
32178SOL    HW298309   2.026  12.400   0.691
32179SOL     OW98310   2.950   3.450   2.265
32179SOL    HW198311   2.966   3.423   2.355
32179SOL    HW298312   3.036   3.477   2.233
32180SOL     OW98313   1.095  14.403   5.193
32180SOL    HW198314   1.164  14.347   5.156
32180SOL    HW298315   1.111  14.489   5.154
32181SOL     OW98316  10.779   5.773   8.745
32181SOL    HW198317  10.704   5.750   8.689
32181SOL    HW298318  10.811   5.690   8.778
32182SOL     OW98319  13.562   9.318  13.519
32182SOL    HW198320  13.633   9.265  13.485
32182SOL    HW298321  13.553   9.390  13.457
32183SOL     OW98322  11.460   3.649   3.875
32183SOL    HW198323  11.511   3.638   3.955
32183SOL    HW298324  11.477   3.739   3.848
32184SOL     OW98325   5.679   7.092   4.904
32184SOL    HW198326   5.625   7.132   4.835
32184SOL    HW298327   5.638   7.120   4.986
32185SOL     OW98328  12.331   6.131   3.078
32185SOL    HW198329  12.251   6.096   3.117
32185SOL    HW298330  12.314   6.225   3.069
32186SOL     OW98331  14.326   7.120   9.421
32186SOL    HW198332  14.254   7.108   9.359
32186SOL    HW298333  14.301   7.069   9.498
32187SOL     OW98334   1.052   0.303   4.552
32187SOL    HW198335   1.134   0.273   4.591
32187SOL    HW298336   0.998   0.224   4.548
32188SOL     OW98337   2.470  14.517   3.191
32188SOL    HW198338   2.396  14.573   3.168
32188SOL    HW298339   2.433  14.429   3.201
32189SOL     OW98340   9.136  12.766   6.292
32189SOL    HW198341   9.176  12.767   6.205
32189SOL    HW298342   9.046  12.739   6.277
32190SOL     OW98343   6.676   1.012   7.876
32190SOL    HW198344   6.691   0.967   7.793
32190SOL    HW298345   6.724   0.960   7.940
32191SOL     OW98346   6.402  14.176   2.900
32191SOL    HW198347   6.424  14.083   2.902
32191SOL    HW298348   6.308  14.179   2.915
32192SOL     OW98349   9.696  13.028  10.372
32192SOL    HW198350   9.777  13.025  10.323
32192SOL    HW298351   9.716  13.081  10.449
32193SOL     OW98352  13.545   4.180   6.156
32193SOL    HW198353  13.526   4.128   6.078
32193SOL    HW298354  13.563   4.268   6.122
32194SOL     OW98355  14.546   8.461   4.044
32194SOL    HW198356  14.505   8.402   3.981
32194SOL    HW298357  14.511   8.434   4.129
32195SOL     OW98358  12.772   6.432  12.108
32195SOL    HW198359  12.848   6.470  12.152
32195SOL    HW298360  12.770   6.341  12.136
32196SOL     OW98361  11.803   2.788   2.476
32196SOL    HW198362  11.790   2.766   2.384
32196SOL    HW298363  11.804   2.704   2.521
32197SOL     OW98364  14.775  10.579   2.907
32197SOL    HW198365  14.721  10.652   2.937
32197SOL    HW298366  14.862  10.599   2.941
32198SOL     OW98367   5.658   4.545   2.038
32198SOL    HW198368   5.591   4.582   1.981
32198SOL    HW298369   5.610   4.495   2.103
32199SOL     OW98370  13.823  11.390   1.727
32199SOL    HW198371  13.745  11.353   1.768
32199SOL    HW298372  13.796  11.411   1.638
32200SOL     OW98373  13.533   5.711  10.828
32200SOL    HW198374  13.478   5.771  10.879
32200SOL    HW298375  13.551   5.639  10.888
32201SOL     OW98376   5.765  13.167   3.787
32201SOL    HW198377   5.826  13.241   3.781
32201SOL    HW298378   5.799  13.114   3.859
32202SOL     OW98379  13.284   5.902  10.191
32202SOL    HW198380  13.247   5.816  10.208
32202SOL    HW298381  13.377   5.893  10.213
32203SOL     OW98382  13.580   6.167   3.313
32203SOL    HW198383  13.606   6.082   3.351
32203SOL    HW298384  13.632   6.175   3.234
32204SOL     OW98385  14.483   8.662   8.211
32204SOL    HW198386  14.504   8.718   8.285
32204SOL    HW298387  14.387   8.658   8.211
32205SOL     OW98388  11.724  10.520   0.204
32205SOL    HW198389  11.664  10.520   0.129
32205SOL    HW298390  11.775  10.601   0.194
32206SOL     OW98391   3.366   0.730   5.136
32206SOL    HW198392   3.421   0.697   5.065
32206SOL    HW298393   3.297   0.664   5.145
32207SOL     OW98394   6.571   7.978   5.285
32207SOL    HW198395   6.662   7.950   5.275
32207SOL    HW298396   6.576   8.069   5.311
32208SOL     OW98397   9.445  14.109   8.696
32208SOL    HW198398   9.496  14.053   8.637
32208SOL    HW298399   9.355  14.081   8.684
32209SOL     OW98400  14.590   1.702   7.454
32209SOL    HW198401  14.535   1.671   7.382
32209SOL    HW298402  14.531   1.712   7.528
32210SOL     OW98403   8.853  11.206   1.670
32210SOL    HW198404   8.757  11.199   1.670
32210SOL    HW298405   8.872  11.265   1.597
32211SOL     OW98406  12.841   1.473   8.758
32211SOL    HW198407  12.878   1.400   8.708
32211SOL    HW298408  12.892   1.475   8.839
32212SOL     OW98409   4.655  10.013   6.794
32212SOL    HW198410   4.572   9.971   6.771
32212SOL    HW298411   4.702   9.946   6.844
32213SOL     OW98412  14.144   7.956   5.060
32213SOL    HW198413  14.184   7.998   4.985
32213SOL    HW298414  14.215   7.904   5.099
32214SOL     OW98415  12.816   9.521   8.852
32214SOL    HW198416  12.873   9.473   8.912
32214SOL    HW298417  12.732   9.526   8.897
32215SOL     OW98418   7.664   0.110   4.300
32215SOL    HW198419   7.730   0.129   4.367
32215SOL    HW298420   7.634   0.021   4.321
32216SOL     OW98421   5.146   0.731   0.567
32216SOL    HW198422   5.051   0.719   0.562
32216SOL    HW298423   5.158   0.826   0.575
32217SOL     OW98424   7.576  12.583   1.968
32217SOL    HW198425   7.556  12.670   2.004
32217SOL    HW298426   7.496  12.556   1.925
32218SOL     OW98427   1.360  13.522   5.612
32218SOL    HW198428   1.300  13.595   5.631
32218SOL    HW298429   1.443  13.565   5.592
32219SOL     OW98430   4.132  10.212   4.676
32219SOL    HW198431   4.183  10.289   4.650
32219SOL    HW298432   4.163  10.142   4.619
32220SOL     OW98433   0.161   0.772   0.115
32220SOL    HW198434   0.071   0.739   0.122
32220SOL    HW298435   0.203   0.744   0.197
32221SOL     OW98436   3.192  11.129   9.307
32221SOL    HW198437   3.249  11.122   9.383
32221SOL    HW298438   3.252  11.139   9.233
32222SOL     OW98439  13.229   4.797   5.307
32222SOL    HW198440  13.286   4.789   5.384
32222SOL    HW298441  13.203   4.889   5.306
32223SOL     OW98442   2.951  11.306   7.908
32223SOL    HW198443   2.858  11.292   7.923
32223SOL    HW298444   2.983  11.223   7.874
32224SOL     OW98445  11.462   9.925   3.747
32224SOL    HW198446  11.536   9.877   3.712
32224SOL    HW298447  11.388   9.898   3.693
32225SOL     OW98448  11.863  14.727   3.759
32225SOL    HW198449  11.920  14.658   3.724
32225SOL    HW298450  11.867  14.796   3.693
32226SOL     OW98451   8.697   6.847   9.399
32226SOL    HW198452   8.788   6.876   9.405
32226SOL    HW298453   8.645   6.925   9.421
32227SOL     OW98454  10.069   9.381   3.292
32227SOL    HW198455  10.018   9.428   3.357
32227SOL    HW298456  10.036   9.292   3.294
32228SOL     OW98457   1.436   8.502  10.717
32228SOL    HW198458   1.515   8.471  10.673
32228SOL    HW298459   1.393   8.559  10.653
32229SOL     OW98460   4.662   8.324   1.743
32229SOL    HW198461   4.687   8.415   1.758
32229SOL    HW298462   4.575   8.315   1.781
32230SOL     OW98463  13.579  12.107  14.422
32230SOL    HW198464  13.510  12.128  14.485
32230SOL    HW298465  13.617  12.192  14.399
32231SOL     OW98466  12.129  12.923   4.010
32231SOL    HW198467  12.047  12.902   4.054
32231SOL    HW298468  12.108  13.000   3.957
32232SOL     OW98469   4.808   1.713  10.017
32232SOL    HW198470   4.894   1.699   9.977
32232SOL    HW298471   4.823   1.781  10.083
32233SOL     OW98472  11.249   3.323  12.887
32233SOL    HW198473  11.322   3.324  12.949
32233SOL    HW298474  11.172   3.304  12.941
32234SOL     OW98475   2.745   4.753   9.024
32234SOL    HW198476   2.795   4.687   9.073
32234SOL    HW298477   2.704   4.807   9.091
32235SOL     OW98478   0.704   7.547  11.336
32235SOL    HW198479   0.704   7.514  11.246
32235SOL    HW298480   0.749   7.632  11.330
32236SOL     OW98481  10.375  14.600   6.624
32236SOL    HW198482  10.359  14.683   6.668
32236SOL    HW298483  10.302  14.544   6.652
32237SOL     OW98484   3.518  11.150   6.800
32237SOL    HW198485   3.475  11.218   6.748
32237SOL    HW298486   3.474  11.069   6.774
32238SOL     OW98487   4.835  11.594   4.836
32238SOL    HW198488   4.900  11.612   4.768
32238SOL    HW298489   4.850  11.502   4.859
32239SOL     OW98490   3.972   0.870   3.050
32239SOL    HW198491   4.018   0.913   2.978
32239SOL    HW298492   3.958   0.780   3.019
32240SOL     OW98493   5.966   8.283   8.327
32240SOL    HW198494   6.029   8.349   8.298
32240SOL    HW298495   5.913   8.328   8.393
32241SOL     OW98496   1.339  13.811   9.776
32241SOL    HW198497   1.304  13.727   9.805
32241SOL    HW298498   1.322  13.813   9.682
32242SOL     OW98499   8.987   3.936   6.897
32242SOL    HW198500   9.080   3.945   6.876
32242SOL    HW298501   8.945   4.010   6.852
32243SOL     OW98502   5.947   7.949  13.060
32243SOL    HW198503   5.993   7.868  13.082
32243SOL    HW298504   5.879   7.923  12.998
32244SOL     OW98505  13.535  10.007   2.870
32244SOL    HW198506  13.578  10.092   2.859
32244SOL    HW298507  13.593   9.944   2.829
32245SOL     OW98508   6.149  11.731   7.287
32245SOL    HW198509   6.196  11.808   7.320
32245SOL    HW298510   6.192  11.657   7.328
32246SOL     OW98511   6.570  10.187  14.005
32246SOL    HW198512   6.610  10.230  13.929
32246SOL    HW298513   6.531  10.258  14.055
32247SOL     OW98514  10.942  14.438   4.425
32247SOL    HW198515  11.028  14.424   4.386
32247SOL    HW298516  10.959  14.483   4.507
32248SOL     OW98517  14.533  10.097   8.194
32248SOL    HW198518  14.442  10.083   8.219
32248SOL    HW298519  14.529  10.162   8.124
32249SOL     OW98520  14.436   7.995  12.408
32249SOL    HW198521  14.439   8.089  12.421
32249SOL    HW298522  14.347   7.970  12.436
32250SOL     OW98523   7.165   6.482   4.517
32250SOL    HW198524   7.197   6.557   4.467
32250SOL    HW298525   7.245   6.439   4.547
32251SOL     OW98526   1.050  10.114   3.051
32251SOL    HW198527   0.975  10.157   3.094
32251SOL    HW298528   1.126  10.164   3.080
32252SOL     OW98529   8.474  14.157   4.055
32252SOL    HW198530   8.481  14.129   4.146
32252SOL    HW298531   8.561  14.145   4.019
32253SOL     OW98532   7.821  14.492   4.885
32253SOL    HW198533   7.904  14.449   4.908
32253SOL    HW298534   7.842  14.585   4.888
32254SOL     OW98535  14.793   7.082   2.427
32254SOL    HW198536   0.007   7.090   2.457
32254SOL    HW298537  14.794   7.118   2.339
32255SOL     OW98538   9.335   4.418   7.254
32255SOL    HW198539   9.288   4.352   7.202
32255SOL    HW298540   9.309   4.400   7.344
32256SOL     OW98541  12.917  14.501   2.009
32256SOL    HW198542  12.955  14.585   1.984
32256SOL    HW298543  12.992  14.446   2.031
32257SOL     OW98544   1.854   7.836   7.959
32257SOL    HW198545   1.887   7.823   7.871
32257SOL    HW298546   1.852   7.931   7.971
32258SOL     OW98547   8.854   7.911  13.769
32258SOL    HW198548   8.920   7.905  13.838
32258SOL    HW298549   8.896   7.873  13.692
32259SOL     OW98550   2.094   0.601   9.526
32259SOL    HW198551   2.045   0.658   9.467
32259SOL    HW298552   2.059   0.513   9.510
32260SOL     OW98553   4.093   5.308  14.404
32260SOL    HW198554   4.118   5.216  14.395
32260SOL    HW298555   4.113   5.347  14.318
32261SOL     OW98556   7.387   3.040   2.267
32261SOL    HW198557   7.359   3.131   2.260
32261SOL    HW298558   7.472   3.037   2.222
32262SOL     OW98559   0.675   3.472   5.239
32262SOL    HW198560   0.677   3.498   5.147
32262SOL    HW298561   0.767   3.469   5.265
32263SOL     OW98562   1.019   9.475   8.173
32263SOL    HW198563   1.046   9.565   8.189
32263SOL    HW298564   0.984   9.476   8.084
32264SOL     OW98565   7.561  13.058   0.190
32264SOL    HW198566   7.477  13.051   0.144
32264SOL    HW298567   7.555  12.993   0.260
32265SOL     OW98568   3.915  11.322   2.390
32265SOL    HW198569   3.874  11.241   2.419
32265SOL    HW298570   3.965  11.298   2.312
32266SOL     OW98571  11.913  11.327   2.783
32266SOL    HW198572  11.886  11.244   2.744
32266SOL    HW298573  11.849  11.391   2.749
32267SOL     OW98574   5.393   0.320   9.998
32267SOL    HW198575   5.444   0.393   9.964
32267SOL    HW298576   5.426   0.306  10.087
32268SOL     OW98577   5.179   7.351   1.205
32268SOL    HW198578   5.273   7.334   1.198
32268SOL    HW298579   5.173   7.427   1.262
32269SOL     OW98580   2.655  13.118   8.275
32269SOL    HW198581   2.719  13.151   8.338
32269SOL    HW298582   2.621  13.197   8.232
32270SOL     OW98583   9.386  14.120   7.880
32270SOL    HW198584   9.373  14.106   7.786
32270SOL    HW298585   9.318  14.182   7.905
32271SOL     OW98586  12.592   0.488   5.060
32271SOL    HW198587  12.570   0.573   5.098
32271SOL    HW298588  12.687   0.482   5.068
32272SOL     OW98589   2.692   9.688   9.794
32272SOL    HW198590   2.670   9.603   9.755
32272SOL    HW298591   2.756   9.726   9.734
32273SOL     OW98592   8.820   5.922   7.184
32273SOL    HW198593   8.815   5.827   7.177
32273SOL    HW298594   8.882   5.939   7.255
32274SOL     OW98595  13.087   6.424   8.474
32274SOL    HW198596  13.062   6.406   8.383
32274SOL    HW298597  13.061   6.346   8.522
32275SOL     OW98598  11.157  13.410   9.664
32275SOL    HW198599  11.123  13.321   9.661
32275SOL    HW298600  11.216  13.416   9.589
32276SOL     OW98601  10.497   5.095  13.881
32276SOL    HW198602  10.430   5.077  13.816
32276SOL    HW298603  10.449   5.124  13.958
32277SOL     OW98604   8.579  14.691   2.294
32277SOL    HW198605   8.594  14.600   2.320
32277SOL    HW298606   8.666  14.723   2.269
32278SOL     OW98607   8.106   9.755   5.021
32278SOL    HW198608   8.152   9.672   5.029
32278SOL    HW298609   8.150   9.801   4.949
32279SOL     OW98610   0.471   4.089   9.247
32279SOL    HW198611   0.454   4.148   9.172
32279SOL    HW298612   0.563   4.101   9.267
32280SOL     OW98613  12.661   8.655   8.096
32280SOL    HW198614  12.748   8.694   8.101
32280SOL    HW298615  12.649   8.633   8.004
32281SOL     OW98616  10.734  11.549   9.156
32281SOL    HW198617  10.676  11.599   9.099
32281SOL    HW298618  10.681  11.532   9.234
32282SOL     OW98619  11.927   0.167   5.770
32282SOL    HW198620  11.931   0.176   5.675
32282SOL    HW298621  11.953   0.076   5.787
32283SOL     OW98622   7.407   5.773   7.471
32283SOL    HW198623   7.400   5.765   7.567
32283SOL    HW298624   7.486   5.825   7.457
32284SOL     OW98625   0.867   2.427  11.314
32284SOL    HW198626   0.870   2.484  11.237
32284SOL    HW298627   0.933   2.360  11.296
32285SOL     OW98628   8.001  11.868   6.044
32285SOL    HW198629   8.009  11.786   5.996
32285SOL    HW298630   8.089  11.906   6.041
32286SOL     OW98631   4.808   8.823  14.143
32286SOL    HW198632   4.786   8.904  14.188
32286SOL    HW298633   4.897   8.802  14.172
32287SOL     OW98634   5.499   6.465   9.479
32287SOL    HW198635   5.505   6.539   9.418
32287SOL    HW298636   5.590   6.450   9.506
32288SOL     OW98637   8.201  12.832   7.723
32288SOL    HW198638   8.242  12.918   7.707
32288SOL    HW298639   8.241  12.775   7.657
32289SOL     OW98640   8.539   2.086   6.466
32289SOL    HW198641   8.475   2.065   6.398
32289SOL    HW298642   8.498   2.157   6.516
32290SOL     OW98643  11.329   1.618   5.081
32290SOL    HW198644  11.389   1.679   5.037
32290SOL    HW298645  11.269   1.674   5.129
32291SOL     OW98646   5.079  11.551   2.037
32291SOL    HW198647   5.032  11.600   1.970
32291SOL    HW298648   5.170  11.581   2.027
32292SOL     OW98649   1.063  12.991   5.173
32292SOL    HW198650   0.969  12.993   5.158
32292SOL    HW298651   1.079  12.904   5.211
32293SOL     OW98652   2.568   6.570   1.360
32293SOL    HW198653   2.495   6.537   1.411
32293SOL    HW298654   2.588   6.499   1.298
32294SOL     OW98655  12.096   6.728   7.029
32294SOL    HW198656  12.125   6.813   7.062
32294SOL    HW298657  12.011   6.746   6.989
32295SOL     OW98658   3.905   6.713  12.747
32295SOL    HW198659   3.894   6.619  12.756
32295SOL    HW298660   3.939   6.742  12.832
32296SOL     OW98661   7.884   6.406  13.420
32296SOL    HW198662   7.889   6.499  13.395
32296SOL    HW298663   7.847   6.407  13.508
32297SOL     OW98664   2.478   4.028  14.124
32297SOL    HW198665   2.447   3.943  14.093
32297SOL    HW298666   2.411   4.090  14.094
32298SOL     OW98667   6.033   9.817   6.835
32298SOL    HW198668   6.107   9.865   6.799
32298SOL    HW298669   6.067   9.729   6.852
32299SOL     OW98670   5.267   6.256   0.307
32299SOL    HW198671   5.286   6.213   0.391
32299SOL    HW298672   5.293   6.347   0.320
32300SOL     OW98673   7.910   3.521  14.482
32300SOL    HW198674   7.972   3.452  14.460
32300SOL    HW298675   7.948   3.563  14.559
32301SOL     OW98676   6.728   1.918   6.769
32301SOL    HW198677   6.635   1.924   6.791
32301SOL    HW298678   6.763   2.005   6.787
32302SOL     OW98679  12.402   7.528   5.437
32302SOL    HW198680  12.390   7.472   5.514
32302SOL    HW298681  12.494   7.554   5.440
32303SOL     OW98682   1.498   2.989  12.295
32303SOL    HW198683   1.504   2.936  12.215
32303SOL    HW298684   1.404   3.003  12.307
32304SOL     OW98685   3.999   0.533   5.460
32304SOL    HW198686   3.922   0.502   5.507
32304SOL    HW298687   4.010   0.471   5.388
32305SOL     OW98688  12.554  13.711  13.726
32305SOL    HW198689  12.519  13.629  13.690
32305SOL    HW298690  12.541  13.775  13.656
32306SOL     OW98691   8.705   4.199   8.253
32306SOL    HW198692   8.674   4.289   8.246
32306SOL    HW298693   8.628   4.149   8.281
32307SOL     OW98694   0.588  12.910   2.812
32307SOL    HW198695   0.608  12.817   2.823
32307SOL    HW298696   0.602  12.947   2.899
32308SOL     OW98697  13.237   6.887  10.803
32308SOL    HW198698  13.143   6.900  10.787
32308SOL    HW298699  13.252   6.796  10.779
32309SOL     OW98700  10.571  12.616   7.655
32309SOL    HW198701  10.520  12.562   7.595
32309SOL    HW298702  10.543  12.588   7.742
32310SOL     OW98703   7.227  10.143   5.180
32310SOL    HW198704   7.223  10.174   5.090
32310SOL    HW298705   7.151  10.182   5.223
32311SOL     OW98706   3.774   9.013   8.062
32311SOL    HW198707   3.806   9.001   7.972
32311SOL    HW298708   3.725   8.933   8.081
32312SOL     OW98709   1.945   9.367   5.727
32312SOL    HW198710   2.004   9.428   5.773
32312SOL    HW298711   2.004   9.309   5.679
32313SOL     OW98712   1.002   6.816   6.326
32313SOL    HW198713   0.953   6.830   6.245
32313SOL    HW298714   0.972   6.886   6.384
32314SOL     OW98715   8.040   2.568   4.377
32314SOL    HW198716   7.951   2.535   4.363
32314SOL    HW298717   8.066   2.531   4.462
32315SOL     OW98718   3.483   0.493   4.269
32315SOL    HW198719   3.432   0.558   4.319
32315SOL    HW298720   3.573   0.526   4.273
32316SOL     OW98721   4.213  14.246  10.221
32316SOL    HW198722   4.220  14.292  10.305
32316SOL    HW298723   4.140  14.289  10.177
32317SOL     OW98724   5.538   7.495  11.906
32317SOL    HW198725   5.556   7.473  11.814
32317SOL    HW298726   5.569   7.585  11.915
32318SOL     OW98727   7.827   6.268  11.853
32318SOL    HW198728   7.861   6.240  11.938
32318SOL    HW298729   7.886   6.229  11.789
32319SOL     OW98730   7.191  12.596   9.915
32319SOL    HW198731   7.183  12.639  10.000
32319SOL    HW298732   7.280  12.562   9.912
32320SOL     OW98733   7.823   5.854  12.971
32320SOL    HW198734   7.752   5.913  12.993
32320SOL    HW298735   7.902   5.898  13.003
32321SOL     OW98736  10.200   6.834  12.834
32321SOL    HW198737  10.262   6.862  12.901
32321SOL    HW298738  10.241   6.860  12.751
32322SOL     OW98739   2.040  12.364  11.857
32322SOL    HW198740   2.068  12.453  11.876
32322SOL    HW298741   2.097  12.308  11.910
32323SOL     OW98742   3.291  12.862  10.123
32323SOL    HW198743   3.332  12.871  10.209
32323SOL    HW298744   3.350  12.805  10.074
32324SOL     OW98745  11.102   9.941   6.192
32324SOL    HW198746  11.043   9.975   6.259
32324SOL    HW298747  11.180   9.915   6.240
32325SOL     OW98748   7.803   3.669   2.909
32325SOL    HW198749   7.843   3.588   2.876
32325SOL    HW298750   7.855   3.691   2.986
32326SOL     OW98751  10.264   7.244   5.864
32326SOL    HW198752  10.335   7.272   5.806
32326SOL    HW298753  10.226   7.326   5.897
32327SOL     OW98754   3.372   8.001  12.027
32327SOL    HW198755   3.336   7.918  11.997
32327SOL    HW298756   3.306   8.066  12.003
32328SOL     OW98757   1.277   0.832   2.966
32328SOL    HW198758   1.302   0.900   2.905
32328SOL    HW298759   1.331   0.848   3.044
32329SOL     OW98760   4.265  10.981  14.293
32329SOL    HW198761   4.290  10.960  14.383
32329SOL    HW298762   4.182  10.936  14.280
32330SOL     OW98763  14.338   8.885  10.207
32330SOL    HW198764  14.379   8.924  10.130
32330SOL    HW298765  14.309   8.799  10.178
32331SOL     OW98766   3.058   6.581   4.389
32331SOL    HW198767   3.109   6.563   4.468
32331SOL    HW298768   2.977   6.530   4.401
32332SOL     OW98769   4.253   6.750   5.425
32332SOL    HW198770   4.248   6.843   5.402
32332SOL    HW298771   4.167   6.715   5.402
32333SOL     OW98772  10.379   3.448  10.344
32333SOL    HW198773  10.373   3.363  10.301
32333SOL    HW298774  10.323   3.506  10.291
32334SOL     OW98775   4.712   7.412  13.128
32334SOL    HW198776   4.775   7.471  13.086
32334SOL    HW298777   4.689   7.350  13.059
32335SOL     OW98778   9.036   1.974  10.656
32335SOL    HW198779   9.126   2.005  10.662
32335SOL    HW298780   9.026   1.916  10.732
32336SOL     OW98781   7.210   7.651   5.843
32336SOL    HW198782   7.281   7.600   5.805
32336SOL    HW298783   7.162   7.686   5.768
32337SOL     OW98784   9.631   6.828   6.433
32337SOL    HW198785   9.638   6.921   6.452
32337SOL    HW298786   9.656   6.784   6.514
32338SOL     OW98787   9.712   4.338  14.371
32338SOL    HW198788   9.715   4.344  14.276
32338SOL    HW298789   9.634   4.286  14.390
32339SOL     OW98790  12.627  14.027   8.700
32339SOL    HW198791  12.563  14.096   8.719
32339SOL    HW298792  12.634  13.977   8.781
32340SOL     OW98793  13.000  12.144   1.802
32340SOL    HW198794  12.946  12.222   1.793
32340SOL    HW298795  13.075  12.159   1.744
32341SOL     OW98796   8.790   1.714   4.668
32341SOL    HW198797   8.876   1.739   4.702
32341SOL    HW298798   8.739   1.795   4.671
32342SOL     OW98799   7.791  11.774   8.240
32342SOL    HW198800   7.852  11.726   8.183
32342SOL    HW298801   7.706  11.763   8.200
32343SOL     OW98802  10.147  11.716   1.415
32343SOL    HW198803  10.221  11.681   1.464
32343SOL    HW298804  10.070  11.685   1.463
32344SOL     OW98805   1.361   0.783   1.806
32344SOL    HW198806   1.402   0.868   1.816
32344SOL    HW298807   1.267   0.801   1.802
32345SOL     OW98808  10.828   5.218  10.305
32345SOL    HW198809  10.803   5.195  10.216
32345SOL    HW298810  10.884   5.146  10.334
32346SOL     OW98811   3.432  11.339   8.653
32346SOL    HW198812   3.483  11.375   8.581
32346SOL    HW298813   3.485  11.356   8.731
32347SOL     OW98814   7.081  11.471   9.413
32347SOL    HW198815   7.101  11.414   9.487
32347SOL    HW298816   7.114  11.557   9.439
32348SOL     OW98817  11.729  13.650   8.093
32348SOL    HW198818  11.712  13.732   8.048
32348SOL    HW298819  11.643  13.608   8.099
32349SOL     OW98820   3.286   5.974   9.747
32349SOL    HW198821   3.318   5.939   9.830
32349SOL    HW298822   3.344   5.937   9.681
32350SOL     OW98823   4.291  14.700   4.996
32350SOL    HW198824   4.372  14.717   4.948
32350SOL    HW298825   4.284  14.604   4.998
32351SOL     OW98826  13.933   6.638   5.095
32351SOL    HW198827  13.925   6.618   5.002
32351SOL    HW298828  13.844   6.630   5.129
32352SOL     OW98829   8.088   2.602   0.602
32352SOL    HW198830   8.074   2.597   0.507
32352SOL    HW298831   8.177   2.634   0.612
32353SOL     OW98832   4.976   2.793  14.790
32353SOL    HW198833   5.032   2.832  14.858
32353SOL    HW298834   4.894   2.774  14.835
32354SOL     OW98835   9.484   5.568   0.514
32354SOL    HW198836   9.541   5.644   0.506
32354SOL    HW298837   9.429   5.571   0.436
32355SOL     OW98838   6.635   5.762  13.517
32355SOL    HW198839   6.590   5.779  13.434
32355SOL    HW298840   6.576   5.704  13.565
32356SOL     OW98841   6.651   8.528   9.653
32356SOL    HW198842   6.658   8.501   9.744
32356SOL    HW298843   6.732   8.499   9.612
32357SOL     OW98844   5.893   6.545   5.223
32357SOL    HW198845   5.935   6.463   5.248
32357SOL    HW298846   5.802   6.520   5.204
32358SOL     OW98847   1.515   0.886   5.654
32358SOL    HW198848   1.528   0.970   5.611
32358SOL    HW298849   1.420   0.878   5.664
32359SOL     OW98850   7.915   7.463   6.153
32359SOL    HW198851   7.890   7.384   6.105
32359SOL    HW298852   8.010   7.469   6.142
32360SOL     OW98853   7.762  11.176   9.015
32360SOL    HW198854   7.694  11.200   8.951
32360SOL    HW298855   7.758  11.244   9.081
32361SOL     OW98856   1.748  10.481   9.142
32361SOL    HW198857   1.781  10.569   9.158
32361SOL    HW298858   1.735  10.478   9.047
32362SOL     OW98859   1.697   1.264   0.334
32362SOL    HW198860   1.665   1.255   0.244
32362SOL    HW298861   1.706   1.174   0.366
32363SOL     OW98862   1.220  12.232  13.159
32363SOL    HW198863   1.277  12.201  13.089
32363SOL    HW298864   1.152  12.282  13.113
32364SOL     OW98865   9.927   8.227   4.574
32364SOL    HW198866   9.918   8.249   4.667
32364SOL    HW298867   9.840   8.244   4.538
32365SOL     OW98868  10.675   5.961   6.960
32365SOL    HW198869  10.709   5.885   6.913
32365SOL    HW298870  10.671   5.932   7.051
32366SOL     OW98871  10.793   9.381  12.651
32366SOL    HW198872  10.790   9.360  12.744
32366SOL    HW298873  10.860   9.449  12.643
32367SOL     OW98874  10.921   0.087  11.507
32367SOL    HW198875  10.862   0.045  11.445
32367SOL    HW298876  10.983   0.018  11.532
32368SOL     OW98877  13.148   8.590   4.063
32368SOL    HW198878  13.141   8.500   4.032
32368SOL    HW298879  13.098   8.641   3.999
32369SOL     OW98880   8.547   0.459   7.759
32369SOL    HW198881   8.483   0.443   7.828
32369SOL    HW298882   8.632   0.447   7.802
32370SOL     OW98883   5.619   9.429  12.732
32370SOL    HW198884   5.707   9.465  12.719
32370SOL    HW298885   5.634   9.335  12.746
32371SOL     OW98886   3.043   8.875   8.554
32371SOL    HW198887   2.965   8.932   8.551
32371SOL    HW298888   3.012   8.794   8.595
32372SOL     OW98889   6.300   2.958   3.716
32372SOL    HW198890   6.302   2.886   3.653
32372SOL    HW298891   6.234   2.933   3.780
32373SOL     OW98892  14.251   9.761   2.871
32373SOL    HW198893  14.158   9.753   2.891
32373SOL    HW298894  14.276   9.674   2.840
32374SOL     OW98895   5.012  12.730  10.378
32374SOL    HW198896   4.958  12.753  10.303
32374SOL    HW298897   5.057  12.811  10.402
32375SOL     OW98898   2.126   0.798   5.812
32375SOL    HW198899   2.213   0.831   5.789
32375SOL    HW298900   2.128   0.705   5.788
32376SOL     OW98901  14.532   6.137   7.645
32376SOL    HW198902  14.581   6.146   7.727
32376SOL    HW298903  14.486   6.220   7.636
32377SOL     OW98904   0.596   7.273  12.643
32377SOL    HW198905   0.595   7.360  12.682
32377SOL    HW298906   0.682   7.237  12.668
32378SOL     OW98907   9.369   4.613   7.620
32378SOL    HW198908   9.407   4.531   7.651
32378SOL    HW298909   9.365   4.669   7.697
32379SOL     OW98910   4.548   8.942   7.720
32379SOL    HW198911   4.508   8.924   7.635
32379SOL    HW298912   4.518   8.869   7.776
32380SOL     OW98913  14.381  10.982   2.838
32380SOL    HW198914  14.342  11.065   2.867
32380SOL    HW298915  14.339  10.964   2.754
32381SOL     OW98916  14.656  12.915  11.361
32381SOL    HW198917  14.666  12.993  11.305
32381SOL    HW298918  14.728  12.921  11.423
32382SOL     OW98919   4.048  12.818  13.826
32382SOL    HW198920   4.054  12.753  13.897
32382SOL    HW298921   3.971  12.871  13.848
32383SOL     OW98922   2.966   7.722  13.256
32383SOL    HW198923   3.029   7.731  13.185
32383SOL    HW298924   2.882   7.742  13.216
32384SOL     OW98925  12.812  13.128  13.154
32384SOL    HW198926  12.898  13.088  13.170
32384SOL    HW298927  12.778  13.084  13.077
32385SOL     OW98928  10.989   8.268   8.488
32385SOL    HW198929  11.025   8.318   8.414
32385SOL    HW298930  10.899   8.299   8.497
32386SOL     OW98931   1.355  12.791   4.270
32386SOL    HW198932   1.412  12.799   4.193
32386SOL    HW298933   1.407  12.741   4.333
32387SOL     OW98934   6.322  10.636  13.020
32387SOL    HW198935   6.393  10.591  12.974
32387SOL    HW298936   6.243  10.590  12.993
32388SOL     OW98937   6.426   6.195   3.303
32388SOL    HW198938   6.517   6.168   3.316
32388SOL    HW298939   6.427   6.241   3.219
32389SOL     OW98940   9.115   2.902  11.344
32389SOL    HW198941   9.068   2.936  11.269
32389SOL    HW298942   9.120   2.976  11.405
32390SOL     OW98943   3.674  13.481   8.171
32390SOL    HW198944   3.769  13.491   8.181
32390SOL    HW298945   3.647  13.558   8.121
32391SOL     OW98946   6.980  11.629   6.200
32391SOL    HW198947   7.037  11.655   6.273
32391SOL    HW298948   6.914  11.573   6.240
32392SOL     OW98949   3.848  13.171   9.804
32392SOL    HW198950   3.911  13.190   9.735
32392SOL    HW298951   3.797  13.251   9.813
32393SOL     OW98952   7.046   5.602  12.943
32393SOL    HW198953   7.055   5.538  13.013
32393SOL    HW298954   7.107   5.573  12.875
32394SOL     OW98955   2.330   7.452   1.619
32394SOL    HW198956   2.316   7.546   1.606
32394SOL    HW298957   2.389   7.446   1.694
32395SOL     OW98958   3.139  10.824  12.892
32395SOL    HW198959   3.229  10.802  12.916
32395SOL    HW298960   3.121  10.905  12.940
32396SOL     OW98961   2.481   8.868  13.514
32396SOL    HW198962   2.509   8.959  13.501
32396SOL    HW298963   2.517   8.845  13.600
32397SOL     OW98964   5.480  13.219   9.603
32397SOL    HW198965   5.414  13.237   9.537
32397SOL    HW298966   5.436  13.236   9.687
32398SOL     OW98967   3.328   0.315   9.451
32398SOL    HW198968   3.264   0.248   9.476
32398SOL    HW298969   3.282   0.398   9.466
32399SOL     OW98970   4.852   4.485   0.276
32399SOL    HW198971   4.791   4.440   0.217
32399SOL    HW298972   4.879   4.417   0.338
32400SOL     OW98973   3.721   8.511   4.540
32400SOL    HW198974   3.796   8.565   4.516
32400SOL    HW298975   3.645   8.558   4.504
32401SOL     OW98976   2.844   3.707   2.024
32401SOL    HW198977   2.875   3.695   1.934
32401SOL    HW298978   2.917   3.751   2.068
32402SOL     OW98979   2.187  10.988   3.396
32402SOL    HW198980   2.259  10.926   3.400
32402SOL    HW298981   2.195  11.028   3.309
32403SOL     OW98982  14.684   2.708  12.219
32403SOL    HW198983  14.702   2.616  12.201
32403SOL    HW298984  14.634   2.739  12.144
32404SOL     OW98985   4.309   3.394   3.849
32404SOL    HW198986   4.387   3.350   3.885
32404SOL    HW298987   4.236   3.354   3.896
32405SOL     OW98988  11.750   0.510   7.601
32405SOL    HW198989  11.721   0.420   7.615
32405SOL    HW298990  11.703   0.538   7.523
32406SOL     OW98991  11.393  13.498   5.843
32406SOL    HW198992  11.440  13.505   5.760
32406SOL    HW298993  11.454  13.535   5.908
32407SOL     OW98994   0.878   0.898  12.283
32407SOL    HW198995   0.820   0.821  12.281
32407SOL    HW298996   0.821   0.970  12.312
32408SOL     OW98997   7.176  12.355  11.562
32408SOL    HW198998   7.181  12.381  11.470
32408SOL    HW298999   7.123  12.424  11.603
32409SOL     OW99000   6.552   3.443  14.100
32409SOL    HW199001   6.608   3.505  14.054
32409SOL    HW299002   6.607   3.408  14.170
32410SOL     OW99003   6.125   4.945   6.692
32410SOL    HW199004   6.176   5.022   6.666
32410SOL    HW299005   6.150   4.929   6.783
32411SOL     OW99006   6.729   5.931   1.358
32411SOL    HW199007   6.643   5.894   1.337
32411SOL    HW299008   6.766   5.870   1.422
32412SOL     OW99009  14.202   5.756   1.590
32412SOL    HW199010  14.283   5.807   1.592
32412SOL    HW299011  14.231   5.665   1.591
32413SOL     OW99012  11.284   7.884  10.604
32413SOL    HW199013  11.375   7.870  10.576
32413SOL    HW299014  11.246   7.797  10.605
32414SOL     OW99015  13.094  12.389   4.591
32414SOL    HW199016  13.033  12.321   4.622
32414SOL    HW299017  13.048  12.429   4.517
32415SOL     OW99018   1.656  11.742   3.416
32415SOL    HW199019   1.604  11.775   3.343
32415SOL    HW299020   1.593  11.695   3.471
32416SOL     OW99021   9.617   0.324   5.207
32416SOL    HW199022   9.661   0.244   5.234
32416SOL    HW299023   9.574   0.356   5.286
32417SOL     OW99024   6.502   1.834   6.922
32417SOL    HW199025   6.572   1.873   6.974
32417SOL    HW299026   6.426   1.890   6.937
32418SOL     OW99027   3.523  12.219  13.776
32418SOL    HW199028   3.544  12.256  13.690
32418SOL    HW299029   3.433  12.247  13.793
32419SOL     OW99030  11.719   0.540   1.845
32419SOL    HW199031  11.628   0.534   1.819
32419SOL    HW299032  11.760   0.596   1.779
32420SOL     OW99033   7.654   1.878   5.166
32420SOL    HW199034   7.614   1.797   5.198
32420SOL    HW299035   7.702   1.913   5.241
32421SOL     OW99036   0.717   6.829  10.846
32421SOL    HW199037   0.689   6.763  10.909
32421SOL    HW299038   0.721   6.782  10.762
32422SOL     OW99039   8.207   2.926   0.729
32422SOL    HW199040   8.186   2.857   0.792
32422SOL    HW299041   8.280   2.974   0.770
32423SOL     OW99042   5.752   3.375  14.208
32423SOL    HW199043   5.769   3.305  14.145
32423SOL    HW299044   5.838   3.395  14.246
32424SOL     OW99045  12.523   3.372   6.837
32424SOL    HW199046  12.510   3.311   6.765
32424SOL    HW299047  12.609   3.350   6.873
32425SOL     OW99048   7.535   7.169  12.562
32425SOL    HW199049   7.607   7.109  12.543
32425SOL    HW299050   7.459   7.128  12.521
32426SOL     OW99051   4.837   7.940   7.603
32426SOL    HW199052   4.928   7.970   7.603
32426SOL    HW299053   4.821   7.914   7.512
32427SOL     OW99054   9.591  12.094  10.909
32427SOL    HW199055   9.677  12.095  10.867
32427SOL    HW299056   9.561  12.004  10.899
32428SOL     OW99057  13.183   2.308   3.469
32428SOL    HW199058  13.104   2.302   3.522
32428SOL    HW299059  13.162   2.262   3.388
32429SOL     OW99060   7.889  10.778   7.258
32429SOL    HW199061   7.977  10.742   7.254
32429SOL    HW299062   7.832  10.705   7.234
32430SOL     OW99063  13.487   0.577   6.298
32430SOL    HW199064  13.498   0.647   6.362
32430SOL    HW299065  13.564   0.522   6.308
32431SOL     OW99066   2.817   2.871  12.024
32431SOL    HW199067   2.824   2.906  12.113
32431SOL    HW299068   2.811   2.949  11.968
32432SOL     OW99069  10.344   7.002  10.013
32432SOL    HW199070  10.269   7.062  10.017
32432SOL    HW299071  10.375   6.996  10.104
32433SOL     OW99072   7.894  11.814  11.688
32433SOL    HW199073   7.935  11.730  11.711
32433SOL    HW299074   7.940  11.842  11.609
32434SOL     OW99075   6.424   7.433  11.247
32434SOL    HW199076   6.460   7.359  11.295
32434SOL    HW299077   6.481   7.507  11.269
32435SOL     OW99078   7.086   1.760   5.313
32435SOL    HW199079   7.073   1.682   5.368
32435SOL    HW299080   7.066   1.834   5.371
32436SOL     OW99081   4.786   3.820  14.611
32436SOL    HW199082   4.859   3.782  14.660
32436SOL    HW299083   4.710   3.808  14.668
32437SOL     OW99084   2.625   5.085   8.809
32437SOL    HW199085   2.685   5.093   8.735
32437SOL    HW299086   2.678   5.112   8.885
32438SOL     OW99087   5.447   7.621   7.762
32438SOL    HW199088   5.468   7.620   7.856
32438SOL    HW299089   5.362   7.577   7.757
32439SOL     OW99090   8.905   1.078   8.486
32439SOL    HW199091   8.873   1.013   8.548
32439SOL    HW299092   8.987   1.109   8.524
32440SOL     OW99093   7.360   2.099   2.265
32440SOL    HW199094   7.398   2.064   2.346
32440SOL    HW299095   7.412   2.062   2.195
32441SOL     OW99096   1.082  11.456   6.609
32441SOL    HW199097   1.031  11.427   6.685
32441SOL    HW299098   1.135  11.379   6.585
32442SOL     OW99099   9.171   7.743   5.251
32442SOL    HW199100   9.265   7.741   5.267
32442SOL    HW299101   9.138   7.813   5.307
32443SOL     OW99102   7.327   5.954  13.819
32443SOL    HW199103   7.302   5.868  13.787
32443SOL    HW299104   7.422   5.949  13.829
32444SOL     OW99105  14.189   3.664   3.446
32444SOL    HW199106  14.258   3.600   3.430
32444SOL    HW299107  14.203   3.694   3.536
32445SOL     OW99108   8.159   2.426   4.171
32445SOL    HW199109   8.250   2.446   4.192
32445SOL    HW299110   8.108   2.489   4.221
32446SOL     OW99111   8.791   4.213  14.112
32446SOL    HW199112   8.808   4.200  14.205
32446SOL    HW299113   8.821   4.133  14.070
32447SOL     OW99114   5.264   4.225  14.642
32447SOL    HW199115   5.193   4.274  14.600
32447SOL    HW299116   5.263   4.139  14.600
32448SOL     OW99117  13.709  11.416   4.440
32448SOL    HW199118  13.672  11.497   4.475
32448SOL    HW299119  13.706  11.428   4.345
32449SOL     OW99120  10.992   6.784   6.618
32449SOL    HW199121  11.005   6.779   6.524
32449SOL    HW299122  10.957   6.698   6.643
32450SOL     OW99123   4.268   3.654   6.899
32450SOL    HW199124   4.342   3.635   6.956
32450SOL    HW299125   4.199   3.685   6.958
32451SOL     OW99126  12.977   7.365   5.466
32451SOL    HW199127  12.943   7.342   5.379
32451SOL    HW299128  12.938   7.300   5.525
32452SOL     OW99129   7.338   1.249   2.555
32452SOL    HW199130   7.332   1.157   2.528
32452SOL    HW299131   7.247   1.275   2.569
32453SOL     OW99132  11.004  14.328   8.043
32453SOL    HW199133  10.974  14.415   8.018
32453SOL    HW299134  11.091  14.343   8.080
32454SOL     OW99135   0.538  14.819  11.810
32454SOL    HW199136   0.571  14.738  11.847
32454SOL    HW299137   0.508  14.795  11.722
32455SOL     OW99138   9.076   4.184   7.662
32455SOL    HW199139   9.151   4.134   7.697
32455SOL    HW299140   9.115   4.241   7.595
32456SOL     OW99141   5.299   2.963   1.110
32456SOL    HW199142   5.344   3.008   1.038
32456SOL    HW299143   5.213   3.004   1.114
32457SOL     OW99144   5.482   0.505   0.046
32457SOL    HW199145   5.387   0.505   0.054
32457SOL    HW299146   5.508   0.417   0.075
32458SOL     OW99147   2.409   1.882   6.821
32458SOL    HW199148   2.487   1.830   6.804
32458SOL    HW299149   2.441   1.971   6.833
32459SOL     OW99150  11.871   5.859  12.458
32459SOL    HW199151  11.895   5.951  12.458
32459SOL    HW299152  11.788   5.856  12.409
32460SOL     OW99153  11.710  12.634   6.112
32460SOL    HW199154  11.739  12.725   6.113
32460SOL    HW299155  11.669  12.622   6.026
32461SOL     OW99156  11.285   8.517  12.452
32461SOL    HW199157  11.317   8.474  12.531
32461SOL    HW299158  11.363   8.537  12.401
32462SOL     OW99159   5.672   6.001   9.339
32462SOL    HW199160   5.759   5.999   9.301
32462SOL    HW299161   5.637   6.087   9.317
32463SOL     OW99162   5.358   2.179   2.030
32463SOL    HW199163   5.428   2.226   2.076
32463SOL    HW299164   5.333   2.109   2.090
32464SOL     OW99165   1.815   8.727   5.622
32464SOL    HW199166   1.801   8.791   5.552
32464SOL    HW299167   1.727   8.698   5.645
32465SOL     OW99168   9.917  12.009   5.771
32465SOL    HW199169   9.965  12.077   5.724
32465SOL    HW299170   9.951  11.927   5.734
32466SOL     OW99171   8.286  13.474  11.222
32466SOL    HW199172   8.250  13.558  11.249
32466SOL    HW299173   8.320  13.436  11.303
32467SOL     OW99174  12.013   3.806   2.242
32467SOL    HW199175  12.047   3.723   2.211
32467SOL    HW299176  12.089   3.865   2.243
32468SOL     OW99177   4.130  12.481   1.943
32468SOL    HW199178   4.082  12.506   2.022
32468SOL    HW299179   4.156  12.564   1.904
32469SOL     OW99180   7.418  10.979   4.356
32469SOL    HW199181   7.490  11.041   4.371
32469SOL    HW299182   7.461  10.898   4.329
32470SOL     OW99183  12.777   6.123   7.313
32470SOL    HW199184  12.744   6.055   7.254
32470SOL    HW299185  12.841   6.170   7.260
32471SOL     OW99186   3.151   3.252  10.658
32471SOL    HW199187   3.193   3.303  10.588
32471SOL    HW299188   3.075   3.213  10.616
32472SOL     OW99189  13.670   4.347   0.054
32472SOL    HW199190  13.666   4.439   0.027
32472SOL    HW299191  13.684   4.299  14.850
32473SOL     OW99192   5.924   4.692   7.940
32473SOL    HW199193   5.840   4.688   7.894
32473SOL    HW299194   5.912   4.634   8.015
32474SOL     OW99195   5.409   1.434  10.216
32474SOL    HW199196   5.488   1.452  10.268
32474SOL    HW299197   5.348   1.503  10.241
32475SOL     OW99198   3.970   0.053   0.069
32475SOL    HW199199   4.016  14.860   0.023
32475SOL    HW299200   3.972   0.126   0.008
32476SOL     OW99201   2.193   5.377  14.782
32476SOL    HW199202   2.166   5.285  14.780
32476SOL    HW299203   2.199   5.398  14.876
32477SOL     OW99204  14.464  12.974   1.184
32477SOL    HW199205  14.465  12.963   1.279
32477SOL    HW299206  14.390  13.033   1.167
32478SOL     OW99207  12.348  13.778   1.477
32478SOL    HW199208  12.390  13.852   1.433
32478SOL    HW299209  12.256  13.783   1.448
32479SOL     OW99210   5.134  11.852   3.603
32479SOL    HW199211   5.093  11.856   3.516
32479SOL    HW299212   5.091  11.921   3.653
32480SOL     OW99213   8.443   6.982  13.027
32480SOL    HW199214   8.414   6.899  13.064
32480SOL    HW299215   8.493   6.958  12.949
32481SOL     OW99216   6.814   9.051   0.815
32481SOL    HW199217   6.896   9.045   0.865
32481SOL    HW299218   6.751   8.999   0.866
32482SOL     OW99219  14.301  12.980   0.125
32482SOL    HW199220  14.209  13.005   0.116
32482SOL    HW299221  14.338  13.046   0.183
32483SOL     OW99222   8.088   5.846   4.361
32483SOL    HW199223   8.181   5.867   4.352
32483SOL    HW299224   8.083   5.793   4.441
32484SOL     OW99225  14.740   3.771   1.780
32484SOL    HW199226  14.758   3.837   1.713
32484SOL    HW299227  14.756   3.687   1.737
32485SOL     OW99228  12.774   6.538   6.908
32485SOL    HW199229  12.764   6.632   6.888
32485SOL    HW299230  12.708   6.521   6.975
32486SOL     OW99231   8.717   0.283   7.858
32486SOL    HW199232   8.761   0.242   7.933
32486SOL    HW299233   8.729   0.222   7.786
32487SOL     OW99234   5.365  12.653   4.800
32487SOL    HW199235   5.330  12.706   4.728
32487SOL    HW299236   5.332  12.565   4.783
32488SOL     OW99237  10.506   2.628   9.812
32488SOL    HW199238  10.487   2.572   9.887
32488SOL    HW299239  10.599   2.648   9.820
32489SOL     OW99240  11.281   4.493   4.451
32489SOL    HW199241  11.272   4.527   4.540
32489SOL    HW299242  11.242   4.406   4.454
32490SOL     OW99243   9.700   2.987  14.292
32490SOL    HW199244   9.667   2.898  14.280
32490SOL    HW299245   9.680   3.031  14.209
32491SOL     OW99246  13.253  14.717   0.493
32491SOL    HW199247  13.257  14.811   0.479
32491SOL    HW299248  13.277  14.705   0.585
32492SOL     OW99249   8.376   2.692  12.436
32492SOL    HW199250   8.303   2.753  12.435
32492SOL    HW299251   8.454   2.749  12.438
32493SOL     OW99252  13.986  10.407  13.891
32493SOL    HW199253  14.043  10.439  13.820
32493SOL    HW299254  13.986  10.478  13.955
32494SOL     OW99255  14.055   4.324   8.155
32494SOL    HW199256  13.961   4.315   8.136
32494SOL    HW299257  14.068   4.277   8.237
32495SOL     OW99258   6.584   1.948   4.949
32495SOL    HW199259   6.565   2.042   4.955
32495SOL    HW299260   6.551   1.911   5.031
32496SOL     OW99261  14.550   8.529  14.807
32496SOL    HW199262  14.524   8.592  14.875
32496SOL    HW299263  14.638   8.502  14.834
32497SOL     OW99264   2.282   7.177   6.002
32497SOL    HW199265   2.279   7.137   5.916
32497SOL    HW299266   2.287   7.103   6.063
32498SOL     OW99267  12.858  10.113  14.487
32498SOL    HW199268  12.878  10.206  14.490
32498SOL    HW299269  12.937  10.070  14.519
32499SOL     OW99270   4.980   4.903   7.727
32499SOL    HW199271   4.934   4.903   7.812
32499SOL    HW299272   5.062   4.950   7.745
32500SOL     OW99273   0.637  14.091   8.028
32500SOL    HW199274   0.733  14.095   8.030
32500SOL    HW299275   0.613  14.071   8.119
32501SOL     OW99276   4.745   0.697   5.083
32501SOL    HW199277   4.668   0.640   5.079
32501SOL    HW299278   4.716   0.781   5.049
32502SOL     OW99279   8.152   1.042   3.942
32502SOL    HW199280   8.098   1.121   3.955
32502SOL    HW299281   8.189   1.024   4.028
32503SOL     OW99282   6.654   0.046   9.835
32503SOL    HW199283   6.725   0.060   9.772
32503SOL    HW299284   6.606  14.848   9.801
32504SOL     OW99285  13.013   0.710   0.267
32504SOL    HW199286  13.087   0.662   0.304
32504SOL    HW299287  12.940   0.692   0.326
32505SOL     OW99288  12.249   8.370   9.142
32505SOL    HW199289  12.156   8.387   9.127
32505SOL    HW299290  12.250   8.303   9.211
32506SOL     OW99291   6.822   5.140  10.355
32506SOL    HW199292   6.730   5.117  10.348
32506SOL    HW299293   6.830   5.181  10.441
32507SOL     OW99294   2.789  14.349  11.760
32507SOL    HW199295   2.779  14.421  11.821
32507SOL    HW299296   2.703  14.340  11.719
32508SOL     OW99297   8.256  12.809   0.336
32508SOL    HW199298   8.311  12.859   0.396
32508SOL    HW299299   8.315  12.744   0.298
32509SOL     OW99300   0.589   0.909  13.085
32509SOL    HW199301   0.517   0.965  13.057
32509SOL    HW299302   0.582   0.906  13.181
32510SOL     OW99303   7.485   5.248   1.358
32510SOL    HW199304   7.445   5.290   1.282
32510SOL    HW299305   7.571   5.290   1.366
32511SOL     OW99306   2.078  11.012   3.121
32511SOL    HW199307   2.007  10.976   3.174
32511SOL    HW299308   2.034  11.070   3.058
32512SOL     OW99309   5.351   4.519  10.896
32512SOL    HW199310   5.317   4.459  10.829
32512SOL    HW299311   5.358   4.465  10.975
32513SOL     OW99312   3.026   8.464  14.566
32513SOL    HW199313   3.109   8.498  14.531
32513SOL    HW299314   3.049   8.379  14.602
32514SOL     OW99315   5.955  14.632  13.671
32514SOL    HW199316   5.969  14.640  13.766
32514SOL    HW299317   6.013  14.561  13.644
32515SOL     OW99318  12.462   0.929   6.639
32515SOL    HW199319  12.550   0.893   6.650
32515SOL    HW299320  12.457   0.953   6.546
32516SOL     OW99321  11.039   7.753  12.973
32516SOL    HW199322  11.134   7.745  12.983
32516SOL    HW299323  11.025   7.845  12.951
32517SOL     OW99324   4.572  11.451   6.464
32517SOL    HW199325   4.525  11.406   6.533
32517SOL    HW299326   4.663  11.453   6.493
32518SOL     OW99327   5.836  13.210   4.271
32518SOL    HW199328   5.880  13.128   4.249
32518SOL    HW299329   5.744  13.195   4.248
32519SOL     OW99330   1.073   6.294   2.730
32519SOL    HW199331   1.022   6.265   2.655
32519SOL    HW299332   1.008   6.327   2.792
32520SOL     OW99333   1.159   2.105   3.898
32520SOL    HW199334   1.210   2.176   3.859
32520SOL    HW299335   1.174   2.030   3.841
32521SOL     OW99336   7.235   6.462   7.426
32521SOL    HW199337   7.226   6.376   7.466
32521SOL    HW299338   7.322   6.492   7.452
32522SOL     OW99339   5.938   1.882   1.793
32522SOL    HW199340   5.997   1.816   1.758
32522SOL    HW299341   5.913   1.935   1.717
32523SOL     OW99342  14.716  14.578  11.581
32523SOL    HW199343  14.805  14.602  11.557
32523SOL    HW299344  14.668  14.661  11.582
32524SOL     OW99345  14.454  13.621   0.266
32524SOL    HW199346  14.378  13.666   0.304
32524SOL    HW299347  14.517  13.691   0.249
32525SOL     OW99348   3.819   4.393   6.813
32525SOL    HW199349   3.893   4.336   6.789
32525SOL    HW299350   3.851   4.482   6.797
32526SOL     OW99351   5.589   2.755   0.767
32526SOL    HW199352   5.589   2.692   0.695
32526SOL    HW299353   5.611   2.703   0.845
32527SOL     OW99354  12.150  10.731   3.979
32527SOL    HW199355  12.125  10.766   4.064
32527SOL    HW299356  12.162  10.808   3.923
32528SOL     OW99357  12.977  13.167   2.654
32528SOL    HW199358  12.969  13.228   2.727
32528SOL    HW299359  13.042  13.103   2.683
32529SOL     OW99360   2.830   9.752   3.605
32529SOL    HW199361   2.754   9.745   3.662
32529SOL    HW299362   2.818   9.683   3.540
32530SOL     OW99363   6.154   3.485  10.979
32530SOL    HW199364   6.101   3.544  11.033
32530SOL    HW299365   6.094   3.413  10.958
32531SOL     OW99366   7.156   3.189   2.765
32531SOL    HW199367   7.238   3.206   2.718
32531SOL    HW299368   7.089   3.186   2.697
32532SOL     OW99369  11.017   8.455  14.574
32532SOL    HW199370  10.994   8.466  14.666
32532SOL    HW299371  10.943   8.493  14.526
32533SOL     OW99372   7.462  10.343  11.516
32533SOL    HW199373   7.371  10.361  11.491
32533SOL    HW299374   7.468  10.374  11.606
32534SOL     OW99375  14.546   9.611   4.155
32534SOL    HW199376  14.525   9.697   4.191
32534SOL    HW299377  14.576   9.629   4.066
32535SOL     OW99378  14.461  10.000   6.188
32535SOL    HW199379  14.479   9.981   6.280
32535SOL    HW299380  14.377   9.957   6.171
32536SOL     OW99381   2.190  11.050   5.909
32536SOL    HW199382   2.260  11.106   5.941
32536SOL    HW299383   2.110  11.100   5.924
32537SOL     OW99384   4.657   4.043   8.239
32537SOL    HW199385   4.600   4.098   8.293
32537SOL    HW299386   4.600   3.974   8.205
32538SOL     OW99387   4.338  14.062  13.445
32538SOL    HW199388   4.351  14.142  13.496
32538SOL    HW299389   4.360  13.991  13.506
32539SOL     OW99390  11.132   7.483   7.648
32539SOL    HW199391  11.170   7.466   7.562
32539SOL    HW299392  11.132   7.397   7.691
32540SOL     OW99393   8.354   7.540   4.517
32540SOL    HW199394   8.326   7.586   4.595
32540SOL    HW299395   8.396   7.460   4.550
32541SOL     OW99396  10.709  10.873   8.038
32541SOL    HW199397  10.706  10.851   7.945
32541SOL    HW299398  10.708  10.788   8.083
32542SOL     OW99399  12.693   0.021  12.697
32542SOL    HW199400  12.734   0.036  12.612
32542SOL    HW299401  12.624   0.087  12.704
32543SOL     OW99402   4.646   3.281  10.045
32543SOL    HW199403   4.740   3.270  10.038
32543SOL    HW299404   4.627   3.362   9.997
32544SOL     OW99405   7.719   5.925   5.514
32544SOL    HW199406   7.709   6.013   5.480
32544SOL    HW299407   7.779   5.882   5.452
32545SOL     OW99408  14.642   4.769   0.974
32545SOL    HW199409  14.727   4.813   0.968
32545SOL    HW299410  14.625   4.763   1.068
32546SOL     OW99411   0.322   4.278   1.790
32546SOL    HW199412   0.373   4.197   1.794
32546SOL    HW299413   0.342   4.315   1.704
32547SOL     OW99414   7.460  12.356   6.038
32547SOL    HW199415   7.477  12.427   5.976
32547SOL    HW299416   7.365  12.345   6.036
32548SOL     OW99417   1.989  11.939  13.526
32548SOL    HW199418   2.067  11.886  13.512
32548SOL    HW299419   1.971  11.931  13.620
32549SOL     OW99420   3.294   1.492  13.468
32549SOL    HW199421   3.333   1.404  13.458
32549SOL    HW299422   3.299   1.530  13.380
32550SOL     OW99423  12.380   1.608   0.398
32550SOL    HW199424  12.397   1.690   0.352
32550SOL    HW299425  12.288   1.588   0.378
32551SOL     OW99426  10.296   5.698   6.324
32551SOL    HW199427  10.373   5.654   6.361
32551SOL    HW299428  10.332   5.763   6.264
32552SOL     OW99429   7.658  12.664  13.641
32552SOL    HW199430   7.570  12.653  13.677
32552SOL    HW299431   7.668  12.593  13.579
32553SOL     OW99432  10.779   4.782   0.525
32553SOL    HW199433  10.767   4.824   0.610
32553SOL    HW299434  10.845   4.715   0.540
32554SOL     OW99435   2.837  11.706  11.181
32554SOL    HW199436   2.838  11.696  11.085
32554SOL    HW299437   2.744  11.712  11.202
32555SOL     OW99438   3.985   0.513   9.150
32555SOL    HW199439   3.994   0.603   9.181
32555SOL    HW299440   4.012   0.459   9.224
32556SOL     OW99441   8.946   8.559   1.110
32556SOL    HW199442   8.959   8.467   1.129
32556SOL    HW299443   8.899   8.560   1.027
32557SOL     OW99444   0.307  13.767  11.847
32557SOL    HW199445   0.238  13.727  11.794
32557SOL    HW299446   0.388  13.729  11.814
32558SOL     OW99447   0.905   4.366   1.470
32558SOL    HW199448   0.923   4.385   1.378
32558SOL    HW299449   0.873   4.449   1.505
32559SOL     OW99450  10.676   4.001  14.569
32559SOL    HW199451  10.750   3.987  14.627
32559SOL    HW299452  10.636   4.082  14.599
32560SOL     OW99453  14.597   6.156   5.913
32560SOL    HW199454  14.562   6.118   5.993
32560SOL    HW299455  14.631   6.241   5.940
32561SOL     OW99456  10.277   8.533   4.696
32561SOL    HW199457  10.299   8.556   4.786
32561SOL    HW299458  10.289   8.438   4.692
32562SOL     OW99459  10.929   2.073   7.166
32562SOL    HW199460  10.874   1.994   7.167
32562SOL    HW299461  10.944   2.092   7.259
32563SOL     OW99462   2.841  13.273   3.610
32563SOL    HW199463   2.924  13.283   3.563
32563SOL    HW299464   2.851  13.325   3.689
32564SOL     OW99465   6.281  12.096   8.721
32564SOL    HW199466   6.328  12.148   8.786
32564SOL    HW299467   6.198  12.142   8.709
32565SOL     OW99468   0.583   8.690   2.162
32565SOL    HW199469   0.591   8.768   2.218
32565SOL    HW299470   0.544   8.722   2.081
32566SOL     OW99471  10.289   6.800   8.371
32566SOL    HW199472  10.224   6.835   8.432
32566SOL    HW299473  10.342   6.875   8.346
32567SOL     OW99474   1.559   3.111  13.329
32567SOL    HW199475   1.499   3.041  13.301
32567SOL    HW299476   1.543   3.182  13.267
32568SOL     OW99477  14.531  10.348   9.218
32568SOL    HW199478  14.596  10.412   9.248
32568SOL    HW299479  14.447  10.389   9.237
32569SOL     OW99480  12.566   3.643   7.764
32569SOL    HW199481  12.611   3.724   7.742
32569SOL    HW299482  12.528   3.659   7.851
32570SOL     OW99483   8.292  14.134   0.790
32570SOL    HW199484   8.317  14.086   0.711
32570SOL    HW299485   8.375  14.164   0.827
32571SOL     OW99486  12.742  12.388   9.633
32571SOL    HW199487  12.835  12.375   9.612
32571SOL    HW299488  12.705  12.428   9.555
32572SOL     OW99489   2.211  11.201   4.413
32572SOL    HW199490   2.130  11.164   4.378
32572SOL    HW299491   2.280  11.154   4.366
32573SOL     OW99492   3.184   7.115   5.725
32573SOL    HW199493   3.247   7.055   5.686
32573SOL    HW299494   3.168   7.081   5.813
32574SOL     OW99495  12.680   6.434   4.564
32574SOL    HW199496  12.601   6.380   4.563
32574SOL    HW299497  12.742   6.385   4.619
32575SOL     OW99498  11.787   9.467  13.247
32575SOL    HW199499  11.864   9.462  13.190
32575SOL    HW299500  11.755   9.377  13.252
32576SOL     OW99501   5.161   7.393   9.789
32576SOL    HW199502   5.162   7.486   9.768
32576SOL    HW299503   5.077   7.379   9.832
32577SOL     OW99504   5.640  12.262   3.396
32577SOL    HW199505   5.603  12.255   3.307
32577SOL    HW299506   5.720  12.313   3.385
32578SOL     OW99507   3.315   6.211  12.478
32578SOL    HW199508   3.242   6.179  12.530
32578SOL    HW299509   3.359   6.276  12.534
32579SOL     OW99510  10.137   5.701   9.640
32579SOL    HW199511  10.226   5.735   9.635
32579SOL    HW299512  10.083   5.768   9.598
32580SOL     OW99513   8.246  11.142  10.189
32580SOL    HW199514   8.225  11.167  10.279
32580SOL    HW299515   8.341  11.146  10.184
32581SOL     OW99516  10.436  12.163  13.975
32581SOL    HW199517  10.509  12.164  14.036
32581SOL    HW299518  10.420  12.071  13.958
32582SOL     OW99519  13.567   6.468   3.107
32582SOL    HW199520  13.626   6.491   3.179
32582SOL    HW299521  13.598   6.382   3.077
32583SOL     OW99522  12.589  12.659   2.718
32583SOL    HW199523  12.680  12.686   2.718
32583SOL    HW299524  12.592  12.564   2.733
32584SOL     OW99525   2.300   8.106  14.294
32584SOL    HW199526   2.257   8.161  14.359
32584SOL    HW299527   2.361   8.053  14.345
32585SOL     OW99528   4.657   2.222   8.102
32585SOL    HW199529   4.564   2.214   8.124
32585SOL    HW299530   4.701   2.225   8.187
32586SOL     OW99531   5.028  11.941   5.414
32586SOL    HW199532   5.076  11.942   5.497
32586SOL    HW299533   4.938  11.917   5.439
32587SOL     OW99534   4.719   0.500   6.913
32587SOL    HW199535   4.666   0.569   6.953
32587SOL    HW299536   4.784   0.547   6.860
32588SOL     OW99537   1.932   1.377  13.473
32588SOL    HW199538   2.011   1.424  13.444
32588SOL    HW299539   1.864   1.444  13.476
32589SOL     OW99540   7.827   1.500  14.513
32589SOL    HW199541   7.778   1.418  14.503
32589SOL    HW299542   7.913   1.481  14.476
32590SOL     OW99543   4.578  12.308   7.721
32590SOL    HW199544   4.630  12.299   7.801
32590SOL    HW299545   4.637  12.278   7.651
32591SOL     OW99546   7.252   7.588   2.564
32591SOL    HW199547   7.238   7.538   2.644
32591SOL    HW299548   7.176   7.569   2.509
32592SOL     OW99549  10.239   2.693  12.955
32592SOL    HW199550  10.146   2.676  12.939
32592SOL    HW299551  10.246   2.788  12.957
32593SOL     OW99552   3.727  10.123   4.976
32593SOL    HW199553   3.763  10.062   4.912
32593SOL    HW299554   3.650  10.160   4.934
32594SOL     OW99555   2.874   1.335   1.009
32594SOL    HW199556   2.816   1.352   1.083
32594SOL    HW299557   2.820   1.355   0.932
32595SOL     OW99558   6.953   5.097   2.549
32595SOL    HW199559   6.967   5.099   2.643
32595SOL    HW299560   6.956   5.004   2.527
32596SOL     OW99561   7.450   4.569  10.171
32596SOL    HW199562   7.429   4.658  10.201
32596SOL    HW299563   7.395   4.512  10.224
32597SOL     OW99564   2.388   2.393   0.580
32597SOL    HW199565   2.403   2.329   0.510
32597SOL    HW299566   2.433   2.472   0.550
32598SOL     OW99567   2.999  12.196  11.163
32598SOL    HW199568   3.048  12.192  11.245
32598SOL    HW299569   3.009  12.286  11.133
32599SOL     OW99570   5.911   9.917  10.501
32599SOL    HW199571   5.890   9.871  10.420
32599SOL    HW299572   6.005   9.935  10.495
32600SOL     OW99573   6.646  14.271   3.261
32600SOL    HW199574   6.610  14.318   3.185
32600SOL    HW299575   6.630  14.329   3.335
32601SOL     OW99576  14.224   9.353   2.700
32601SOL    HW199577  14.285   9.423   2.677
32601SOL    HW299578  14.192   9.375   2.787
32602SOL     OW99579   9.553   0.152   4.358
32602SOL    HW199580   9.529   0.184   4.445
32602SOL    HW299581   9.539   0.057   4.363
32603SOL     OW99582   6.658  14.537  11.109
32603SOL    HW199583   6.672  14.521  11.015
32603SOL    HW299584   6.703  14.620  11.126
32604SOL     OW99585   2.331   7.895  13.810
32604SOL    HW199586   2.300   7.875  13.899
32604SOL    HW299587   2.408   7.950  13.824
32605SOL     OW99588  13.609   9.743   4.359
32605SOL    HW199589  13.631   9.820   4.413
32605SOL    HW299590  13.605   9.777   4.269
32606SOL     OW99591   3.198  13.214   0.438
32606SOL    HW199592   3.168  13.273   0.507
32606SOL    HW299593   3.240  13.271   0.374
32607SOL     OW99594  14.645   2.434   2.408
32607SOL    HW199595  14.703   2.423   2.333
32607SOL    HW299596  14.645   2.349   2.452
32608SOL     OW99597   6.060  13.846   2.115
32608SOL    HW199598   6.096  13.888   2.193
32608SOL    HW299599   5.972  13.884   2.106
32609SOL     OW99600   3.212   4.364   0.248
32609SOL    HW199601   3.282   4.396   0.190
32609SOL    HW299602   3.170   4.444   0.281
32610SOL     OW99603   8.200   1.604   7.629
32610SOL    HW199604   8.194   1.613   7.725
32610SOL    HW299605   8.135   1.536   7.608
32611SOL     OW99606   8.539   5.322   0.485
32611SOL    HW199607   8.460   5.371   0.509
32611SOL    HW299608   8.608   5.360   0.539
32612SOL     OW99609   9.735   7.461  11.284
32612SOL    HW199610   9.643   7.440  11.271
32612SOL    HW299611   9.764   7.496  11.200
32613SOL     OW99612   4.946   8.698   8.222
32613SOL    HW199613   4.885   8.670   8.291
32613SOL    HW299614   4.927   8.791   8.210
32614SOL     OW99615  10.739   3.921   5.570
32614SOL    HW199616  10.673   3.906   5.637
32614SOL    HW299617  10.821   3.932   5.619
32615SOL     OW99618  11.802   5.921  10.119
32615SOL    HW199619  11.774   6.007  10.152
32615SOL    HW299620  11.884   5.939  10.073
32616SOL     OW99621   8.980   0.444   3.855
32616SOL    HW199622   8.956   0.353   3.872
32616SOL    HW299623   9.030   0.440   3.773
32617SOL     OW99624   5.708   2.966  11.798
32617SOL    HW199625   5.616   2.943  11.794
32617SOL    HW299626   5.709   3.060  11.817
32618SOL     OW99627   6.007   5.543  12.522
32618SOL    HW199628   5.968   5.472  12.574
32618SOL    HW299629   6.093   5.510  12.496
32619SOL     OW99630   2.651   4.044  14.366
32619SOL    HW199631   2.583   4.004  14.311
32619SOL    HW299632   2.722   4.065  14.306
32620SOL     OW99633   2.656   3.839  11.889
32620SOL    HW199634   2.591   3.905  11.865
32620SOL    HW299635   2.669   3.788  11.809
32621SOL     OW99636   4.652   1.432  12.268
32621SOL    HW199637   4.666   1.493  12.195
32621SOL    HW299638   4.705   1.356  12.246
32622SOL     OW99639   4.847  14.604  11.518
32622SOL    HW199640   4.857  14.699  11.513
32622SOL    HW299641   4.787  14.590  11.591
32623SOL     OW99642   3.783   5.588  10.298
32623SOL    HW199643   3.715   5.655  10.294
32623SOL    HW299644   3.839   5.605  10.223
32624SOL     OW99645   5.618   3.363   3.422
32624SOL    HW199646   5.608   3.395   3.511
32624SOL    HW299647   5.627   3.442   3.368
32625SOL     OW99648   7.294  11.381   8.966
32625SOL    HW199649   7.346  11.418   9.038
32625SOL    HW299650   7.203  11.394   8.993
32626SOL     OW99651   7.768   3.035   7.271
32626SOL    HW199652   7.808   2.964   7.220
32626SOL    HW299653   7.710   3.079   7.209
32627SOL     OW99654   3.582  11.044   0.522
32627SOL    HW199655   3.601  11.009   0.609
32627SOL    HW299656   3.640  10.995   0.463
32628SOL     OW99657   1.860   7.327   3.481
32628SOL    HW199658   1.768   7.345   3.463
32628SOL    HW299659   1.903   7.331   3.395
32629SOL     OW99660   0.608   5.959   8.315
32629SOL    HW199661   0.663   5.916   8.249
32629SOL    HW299662   0.666   6.020   8.359
32630SOL     OW99663   2.374  11.230  10.578
32630SOL    HW199664   2.343  11.285  10.650
32630SOL    HW299665   2.307  11.240  10.510
32631SOL     OW99666   3.870   6.995   5.472
32631SOL    HW199667   3.886   7.084   5.442
32631SOL    HW299668   3.780   6.976   5.444
32632SOL     OW99669  11.212  12.353   7.574
32632SOL    HW199670  11.228  12.306   7.656
32632SOL    HW299671  11.290  12.408   7.562
32633SOL     OW99672   1.478   7.599  12.338
32633SOL    HW199673   1.388   7.615  12.311
32633SOL    HW299674   1.498   7.512  12.304
32634SOL     OW99675  10.514   2.056   3.620
32634SOL    HW199676  10.607   2.055   3.644
32634SOL    HW299677  10.514   2.089   3.530
32635SOL     OW99678   8.978   8.181   5.388
32635SOL    HW199679   9.034   8.226   5.324
32635SOL    HW299680   8.992   8.229   5.470
32636SOL     OW99681  11.998   5.156  14.246
32636SOL    HW199682  12.072   5.217  14.247
32636SOL    HW299683  12.027   5.082  14.299
32637SOL     OW99684   9.890   9.553   2.980
32637SOL    HW199685   9.905   9.480   3.040
32637SOL    HW299686   9.882   9.512   2.894
32638SOL     OW99687   8.765   2.187   6.333
32638SOL    HW199688   8.760   2.248   6.406
32638SOL    HW299689   8.698   2.121   6.352
32639SOL     OW99690   8.367   3.729  14.129
32639SOL    HW199691   8.356   3.709  14.222
32639SOL    HW299692   8.440   3.790  14.125
32640SOL     OW99693   1.883   3.987  14.635
32640SOL    HW199694   1.960   3.933  14.648
32640SOL    HW299695   1.915   4.077  14.642
32641SOL     OW99696  13.825  13.056   7.385
32641SOL    HW199697  13.750  13.069   7.443
32641SOL    HW299698  13.845  13.143   7.351
32642SOL     OW99699   3.751  11.544   4.154
32642SOL    HW199700   3.766  11.493   4.233
32642SOL    HW299701   3.695  11.616   4.183
32643SOL     OW99702   6.581  10.438   3.689
32643SOL    HW199703   6.604  10.382   3.763
32643SOL    HW299704   6.490  10.462   3.703
32644SOL     OW99705   8.532   0.024  12.349
32644SOL    HW199706   8.586  14.842  12.297
32644SOL    HW299707   8.588   0.099  12.366
32645SOL     OW99708  14.247   6.412   2.750
32645SOL    HW199709  14.267   6.363   2.830
32645SOL    HW299710  14.198   6.488   2.780
32646SOL     OW99711  12.180   4.640  14.699
32646SOL    HW199712  12.131   4.708  14.746
32646SOL    HW299713  12.112   4.580  14.667
32647SOL     OW99714   2.824  13.431   6.086
32647SOL    HW199715   2.886  13.368   6.051
32647SOL    HW299716   2.863  13.517   6.066
32648SOL     OW99717   0.234  10.010   0.884
32648SOL    HW199718   0.268   9.982   0.969
32648SOL    HW299719   0.250  10.105   0.882
32649SOL     OW99720   1.704   1.498   3.482
32649SOL    HW199721   1.615   1.518   3.513
32649SOL    HW299722   1.691   1.437   3.409
32650SOL     OW99723   1.802  12.795   2.268
32650SOL    HW199724   1.824  12.720   2.323
32650SOL    HW299725   1.883  12.816   2.221
32651SOL     OW99726  11.441   4.598   7.922
32651SOL    HW199727  11.518   4.613   7.867
32651SOL    HW299728  11.368   4.596   7.860
32652SOL     OW99729   1.182   0.672  10.032
32652SOL    HW199730   1.088   0.658  10.036
32652SOL    HW299731   1.194   0.764  10.057
32653SOL     OW99732  10.325   8.436   7.181
32653SOL    HW199733  10.413   8.473   7.184
32653SOL    HW299734  10.335   8.347   7.215
32654SOL     OW99735   9.460   2.177   8.669
32654SOL    HW199736   9.530   2.134   8.619
32654SOL    HW299737   9.426   2.244   8.609
32655SOL     OW99738  13.976   1.891   2.885
32655SOL    HW199739  13.933   1.934   2.811
32655SOL    HW299740  14.007   1.808   2.849
32656SOL     OW99741   1.458   1.615  12.074
32656SOL    HW199742   1.445   1.589  11.983
32656SOL    HW299743   1.546   1.652  12.076
32657SOL     OW99744   0.238  10.245  13.143
32657SOL    HW199745   0.173  10.210  13.204
32657SOL    HW299746   0.314  10.264  13.198
32658SOL     OW99747  12.755   7.700   4.813
32658SOL    HW199748  12.765   7.664   4.901
32658SOL    HW299749  12.788   7.631   4.755
32659SOL     OW99750   9.787   2.442   1.796
32659SOL    HW199751   9.701   2.450   1.754
32659SOL    HW299752   9.828   2.367   1.754
32660SOL     OW99753   2.465  11.003  11.361
32660SOL    HW199754   2.427  11.071  11.416
32660SOL    HW299755   2.532  10.962  11.416
32661SOL     OW99756   8.430   5.358  14.386
32661SOL    HW199757   8.419   5.322  14.298
32661SOL    HW299758   8.377   5.301  14.442
32662SOL     OW99759   7.727   8.490   4.081
32662SOL    HW199760   7.659   8.558   4.088
32662SOL    HW299761   7.680   8.408   4.094
32663SOL     OW99762   4.233  11.571   7.890
32663SOL    HW199763   4.266  11.597   7.976
32663SOL    HW299764   4.242  11.650   7.836
32664SOL     OW99765  13.168  11.180   0.558
32664SOL    HW199766  13.199  11.195   0.647
32664SOL    HW299767  13.153  11.268   0.523
32665SOL     OW99768   3.689   7.532  14.071
32665SOL    HW199769   3.656   7.465  14.010
32665SOL    HW299770   3.762   7.489  14.115
32666SOL     OW99771   8.370   9.139   0.434
32666SOL    HW199772   8.315   9.179   0.501
32666SOL    HW299773   8.359   9.045   0.446
32667SOL     OW99774   7.095   6.938   4.769
32667SOL    HW199775   7.085   6.847   4.741
32667SOL    HW299776   7.024   6.985   4.724
32668SOL     OW99777   4.084  13.149   5.501
32668SOL    HW199778   4.047  13.072   5.544
32668SOL    HW299779   4.009  13.208   5.490
32669SOL     OW99780   9.808   9.954   1.150
32669SOL    HW199781   9.735   9.948   1.212
32669SOL    HW299782   9.773   9.920   1.068
32670SOL     OW99783   9.758  14.327   5.599
32670SOL    HW199784   9.701  14.356   5.528
32670SOL    HW299785   9.836  14.295   5.555
32671SOL     OW99786  11.842   0.671  10.105
32671SOL    HW199787  11.877   0.586  10.077
32671SOL    HW299788  11.804   0.654  10.191
32672SOL     OW99789   7.304  12.671   8.571
32672SOL    HW199790   7.224  12.721   8.585
32672SOL    HW299791   7.338  12.703   8.487
32673SOL     OW99792   7.067   0.006   5.401
32673SOL    HW199793   7.029  14.829   5.332
32673SOL    HW299794   7.131   0.061   5.356
32674SOL     OW99795   3.960  12.744   8.746
32674SOL    HW199796   3.939  12.691   8.669
32674SOL    HW299797   3.889  12.807   8.752
32675SOL     OW99798   0.531   2.354   1.616
32675SOL    HW199799   0.531   2.430   1.558
32675SOL    HW299800   0.451   2.363   1.667
32676SOL     OW99801   5.294  10.613   5.910
32676SOL    HW199802   5.389  10.614   5.899
32676SOL    HW299803   5.266  10.702   5.889
32677SOL     OW99804   7.267  10.478   4.840
32677SOL    HW199805   7.330  10.483   4.768
32677SOL    HW299806   7.220  10.561   4.836
32678SOL     OW99807   0.084   5.144   4.357
32678SOL    HW199808   0.100   5.222   4.410
32678SOL    HW299809   0.018   5.094   4.406
32679SOL     OW99810   0.501  10.906  12.891
32679SOL    HW199811   0.416  10.938  12.921
32679SOL    HW299812   0.565  10.963  12.932
32680SOL     OW99813   3.832  14.267  12.174
32680SOL    HW199814   3.866  14.351  12.144
32680SOL    HW299815   3.845  14.268  12.269
32681SOL     OW99816   9.300  13.042   2.509
32681SOL    HW199817   9.357  12.980   2.463
32681SOL    HW299818   9.255  12.988   2.575
32682SOL     OW99819  11.709   7.299   7.236
32682SOL    HW199820  11.733   7.344   7.317
32682SOL    HW299821  11.787   7.303   7.182
32683SOL     OW99822  14.530   6.405   8.223
32683SOL    HW199823  14.572   6.478   8.270
32683SOL    HW299824  14.457   6.446   8.177
32684SOL     OW99825   3.642   9.624   0.094
32684SOL    HW199826   3.625   9.608   0.001
32684SOL    HW299827   3.662   9.537   0.130
32685SOL     OW99828  13.119   0.113   5.622
32685SOL    HW199829  13.069   0.181   5.577
32685SOL    HW299830  13.168   0.069   5.552
32686SOL     OW99831  12.573  14.823   6.142
32686SOL    HW199832  12.582  14.802   6.235
32686SOL    HW299833  12.482  14.852   6.133
32687SOL     OW99834   0.922  10.902   4.515
32687SOL    HW199835   0.915  10.998   4.518
32687SOL    HW299836   0.983  10.885   4.443
32688SOL     OW99837   6.368  11.124   6.673
32688SOL    HW199838   6.396  11.121   6.765
32688SOL    HW299839   6.276  11.095   6.676
32689SOL     OW99840  11.207   3.478   0.561
32689SOL    HW199841  11.204   3.422   0.483
32689SOL    HW299842  11.275   3.439   0.616
32690SOL     OW99843   2.373   7.140   7.280
32690SOL    HW199844   2.460   7.108   7.302
32690SOL    HW299845   2.388   7.226   7.240
32691SOL     OW99846   7.668   6.174   6.732
32691SOL    HW199847   7.656   6.135   6.819
32691SOL    HW299848   7.591   6.145   6.682
32692SOL     OW99849  10.790  13.143   8.095
32692SOL    HW199850  10.733  13.125   8.020
32692SOL    HW299851  10.858  13.077   8.089
32693SOL     OW99852   7.361  11.675   7.399
32693SOL    HW199853   7.317  11.760   7.399
32693SOL    HW299854   7.299  11.616   7.358
32694SOL     OW99855  11.765   9.357  14.873
32694SOL    HW199856  11.818   9.430  14.841
32694SOL    HW299857  11.807   9.331   0.078
32695SOL     OW99858  14.258   9.050  11.536
32695SOL    HW199859  14.174   9.076  11.574
32695SOL    HW299860  14.319   9.049  11.610
32696SOL     OW99861   0.964   6.063   0.942
32696SOL    HW199862   0.932   5.976   0.915
32696SOL    HW299863   0.890   6.121   0.925
32697SOL     OW99864  12.231  13.534   5.601
32697SOL    HW199865  12.173  13.605   5.574
32697SOL    HW299866  12.235  13.541   5.696
32698SOL     OW99867  13.701   1.136  11.057
32698SOL    HW199868  13.733   1.120  11.145
32698SOL    HW299869  13.606   1.138  11.065
32699SOL     OW99870   1.202  12.515   7.290
32699SOL    HW199871   1.178  12.431   7.329
32699SOL    HW299872   1.297  12.510   7.280
32700SOL     OW99873  13.132  10.548   7.110
32700SOL    HW199874  13.102  10.585   7.193
32700SOL    HW299875  13.102  10.457   7.112
32701SOL     OW99876   2.796   0.679   4.879
32701SOL    HW199877   2.797   0.761   4.929
32701SOL    HW299878   2.740   0.621   4.929
32702SOL     OW99879  12.319   6.262  11.045
32702SOL    HW199880  12.277   6.343  11.015
32702SOL    HW299881  12.247   6.209  11.078
32703SOL     OW99882   4.609  10.199   7.422
32703SOL    HW199883   4.669  10.125   7.437
32703SOL    HW299884   4.574  10.184   7.334
32704SOL     OW99885  14.370   5.853   5.711
32704SOL    HW199886  14.320   5.934   5.697
32704SOL    HW299887  14.330   5.790   5.651
32705SOL     OW99888   2.919   7.815   5.503
32705SOL    HW199889   2.890   7.898   5.540
32705SOL    HW299890   2.946   7.763   5.579
32706SOL     OW99891   0.803  13.085   3.465
32706SOL    HW199892   0.752  13.020   3.513
32706SOL    HW299893   0.799  13.164   3.519
32707SOL     OW99894   5.007  13.815   4.093
32707SOL    HW199895   5.058  13.826   4.174
32707SOL    HW299896   5.062  13.856   4.025
32708SOL     OW99897   4.984  11.320   5.172
32708SOL    HW199898   5.007  11.413   5.167
32708SOL    HW299899   4.891  11.318   5.150
32709SOL     OW99900   3.466  13.124  10.006
32709SOL    HW199901   3.436  13.177  10.080
32709SOL    HW299902   3.423  13.039  10.019
32710SOL     OW99903  14.305   7.657  10.021
32710SOL    HW199904  14.272   7.744   9.999
32710SOL    HW299905  14.280   7.602   9.947
32711SOL     OW99906   4.881   6.337   0.272
32711SOL    HW199907   4.844   6.251   0.291
32711SOL    HW299908   4.935   6.324   0.194
32712SOL     OW99909   0.725   7.067   8.737
32712SOL    HW199910   0.785   7.051   8.810
32712SOL    HW299911   0.661   6.995   8.742
32713SOL     OW99912  11.606  13.365   8.970
32713SOL    HW199913  11.560  13.321   8.898
32713SOL    HW299914  11.698  13.345   8.956
32714SOL     OW99915   7.064  11.166  10.150
32714SOL    HW199916   6.994  11.100  10.150
32714SOL    HW299917   7.026  11.241  10.104
32715SOL     OW99918   1.768  13.771  11.101
32715SOL    HW199919   1.686  13.722  11.094
32715SOL    HW299920   1.751  13.837  11.168
32716SOL     OW99921  10.178   2.139   0.986
32716SOL    HW199922  10.094   2.093   0.982
32716SOL    HW299923  10.155   2.229   1.011
32717SOL     OW99924   1.298   9.740   6.635
32717SOL    HW199925   1.239   9.815   6.650
32717SOL    HW299926   1.337   9.722   6.721
32718SOL     OW99927   0.150   6.376   8.468
32718SOL    HW199928   0.101   6.341   8.542
32718SOL    HW299929   0.090   6.368   8.394
32719SOL     OW99930  11.002  12.957   9.758
32719SOL    HW199931  11.048  12.876   9.739
32719SOL    HW299932  10.938  12.934   9.825
32720SOL     OW99933   5.953  12.340   7.209
32720SOL    HW199934   5.867  12.373   7.235
32720SOL    HW299935   5.971  12.269   7.270
32721SOL     OW99936   5.520   9.994  14.448
32721SOL    HW199937   5.514   9.912  14.400
32721SOL    HW299938   5.436  10.037  14.433
32722SOL     OW99939   9.488   0.375   6.776
32722SOL    HW199940   9.455   0.428   6.703
32722SOL    HW299941   9.584   0.383   6.770
32723SOL     OW99942   1.248  11.417   9.086
32723SOL    HW199943   1.171  11.377   9.046
32723SOL    HW299944   1.244  11.388   9.178
32724SOL     OW99945  14.322  13.447   9.444
32724SOL    HW199946  14.324  13.359   9.483
32724SOL    HW299947  14.396  13.447   9.383
32725SOL     OW99948   3.200   6.546   3.942
32725SOL    HW199949   3.250   6.477   3.984
32725SOL    HW299950   3.155   6.590   4.015
32726SOL     OW99951  11.599  13.151   4.667
32726SOL    HW199952  11.651  13.197   4.733
32726SOL    HW299953  11.630  13.186   4.584
32727SOL     OW99954   6.444   7.474  12.189
32727SOL    HW199955   6.411   7.505  12.104
32727SOL    HW299956   6.499   7.546  12.221
32728SOL     OW99957  13.394   6.828  10.478
32728SOL    HW199958  13.430   6.882  10.549
32728SOL    HW299959  13.329   6.884  10.436
32729SOL     OW99960   7.780   1.779   8.527
32729SOL    HW199961   7.756   1.729   8.449
32729SOL    HW299962   7.816   1.861   8.493
32730SOL     OW99963   7.454  10.497  12.768
32730SOL    HW199964   7.364  10.526  12.784
32730SOL    HW299965   7.479  10.452  12.849
32731SOL     OW99966   3.819  14.672  13.373
32731SOL    HW199967   3.768  14.625  13.307
32731SOL    HW299968   3.910  14.649  13.354
32732SOL     OW99969  13.666  10.267   3.421
32732SOL    HW199970  13.631  10.183   3.450
32732SOL    HW299971  13.718  10.247   3.343
32733SOL     OW99972   4.388   5.811  12.485
32733SOL    HW199973   4.475   5.777  12.462
32733SOL    HW299974   4.398   5.906  12.485
32734SOL     OW99975  13.678   0.474   6.005
32734SOL    HW199976  13.715   0.415   5.939
32734SOL    HW299977  13.618   0.530   5.956
32735SOL     OW99978   4.875   6.587  13.374
32735SOL    HW199979   4.952   6.608  13.426
32735SOL    HW299980   4.893   6.625  13.288
32736SOL     OW99981   3.529   2.917   5.360
32736SOL    HW199982   3.446   2.873   5.380
32736SOL    HW299983   3.528   2.996   5.413
32737SOL     OW99984   5.465   6.947  13.692
32737SOL    HW199985   5.536   6.918  13.750
32737SOL    HW299986   5.457   7.041  13.709
32738SOL     OW99987   3.729   3.416  10.933
32738SOL    HW199988   3.705   3.351  10.868
32738SOL    HW299989   3.753   3.493  10.882
32739SOL     OW99990   2.083   2.423   9.476
32739SOL    HW199991   2.052   2.503   9.519
32739SOL    HW299992   2.142   2.455   9.407
32740SOL     OW99993   2.119  11.750  13.076
32740SOL    HW199994   2.186  11.754  13.145
32740SOL    HW299995   2.060  11.823  13.096
32741SOL     OW99996  12.195   0.606  12.109
32741SOL    HW199997  12.151   0.691  12.108
32741SOL    HW299998  12.238   0.603  12.195
32742SOL     OW99999   8.340  13.577  11.791
32742SOL    HW1    0   8.330  13.673  11.795
32742SOL    HW2    1   8.256  13.544  11.823
32743SOL     OW    2   8.286   9.586   2.479
32743SOL    HW1    3   8.375   9.565   2.506
32743SOL    HW2    4   8.247   9.630   2.554
32744SOL     OW    5  12.129   3.410   9.440
32744SOL    HW1    6  12.099   3.499   9.424
32744SOL    HW2    7  12.061   3.371   9.495
32745SOL     OW    8  13.080   5.021   5.629
32745SOL    HW1    9  13.105   4.965   5.703
32745SOL    HW2   10  12.984   5.024   5.633
32746SOL     OW   11  12.607   5.070   9.234
32746SOL    HW1   12  12.662   5.133   9.187
32746SOL    HW2   13  12.668   5.025   9.293
32747SOL     OW   14  10.953   9.246   6.074
32747SOL    HW1   15  10.961   9.318   6.011
32747SOL    HW2   16  11.005   9.175   6.034
32748SOL     OW   17  11.508   4.692   0.138
32748SOL    HW1   18  11.563   4.663   0.211
32748SOL    HW2   19  11.420   4.694   0.174
32749SOL     OW   20   2.736   9.560   9.094
32749SOL    HW1   21   2.805   9.534   9.154
32749SOL    HW2   22   2.767   9.642   9.055
32750SOL     OW   23  10.710  12.066   5.220
32750SOL    HW1   24  10.731  12.003   5.290
32750SOL    HW2   25  10.686  12.146   5.267
32751SOL     OW   26   8.621   3.141  14.166
32751SOL    HW1   27   8.657   3.053  14.180
32751SOL    HW2   28   8.623   3.152  14.071
32752SOL     OW   29   9.623   5.923  11.401
32752SOL    HW1   30   9.546   5.866  11.399
32752SOL    HW2   31   9.686   5.880  11.344
32753SOL     OW   32   1.745   7.876   5.181
32753SOL    HW1   33   1.713   7.855   5.093
32753SOL    HW2   34   1.838   7.854   5.179
32754SOL     OW   35   1.576  13.925   8.780
32754SOL    HW1   36   1.580  13.963   8.868
32754SOL    HW2   37   1.651  13.866   8.776
32755SOL     OW   38   0.425   0.842   4.981
32755SOL    HW1   39   0.459   0.793   5.056
32755SOL    HW2   40   0.487   0.824   4.910
32756SOL     OW   41  12.696   0.254   0.574
32756SOL    HW1   42  12.729   0.171   0.608
32756SOL    HW2   43  12.689   0.240   0.479
32757SOL     OW   44   2.522   7.968  14.431
32757SOL    HW1   45   2.519   7.873  14.420
32757SOL    HW2   46   2.613   7.987  14.454
32758SOL     OW   47  13.344   5.811   7.978
32758SOL    HW1   48  13.404   5.775   7.913
32758SOL    HW2   49  13.387   5.890   8.009
32759SOL     OW   50   9.419   0.085   2.504
32759SOL    HW1   51   9.424   0.025   2.430
32759SOL    HW2   52   9.407   0.171   2.465
32760SOL     OW   53   5.636  13.054  11.762
32760SOL    HW1   54   5.652  13.079  11.671
32760SOL    HW2   55   5.642  12.958  11.762
32761SOL     OW   56   7.403   7.184   1.238
32761SOL    HW1   57   7.417   7.090   1.248
32761SOL    HW2   58   7.329   7.204   1.296
32762SOL     OW   59   5.803  14.616   0.993
32762SOL    HW1   60   5.735  14.682   0.982
32762SOL    HW2   61   5.866  14.633   0.923
32763SOL     OW   62   5.536  13.145   5.630
32763SOL    HW1   63   5.553  13.195   5.710
32763SOL    HW2   64   5.556  13.054   5.654
32764SOL     OW   65   2.725  12.009   0.933
32764SOL    HW1   66   2.669  12.078   0.968
32764SOL    HW2   67   2.677  11.976   0.857
32765SOL     OW   68  10.885   5.669   1.899
32765SOL    HW1   69  10.923   5.703   1.818
32765SOL    HW2   70  10.914   5.578   1.903
32766SOL     OW   71  11.993  11.174   2.393
32766SOL    HW1   72  11.979  11.092   2.345
32766SOL    HW2   73  12.088  11.179   2.403
32767SOL     OW   74   7.993   7.697  13.109
32767SOL    HW1   75   7.945   7.621  13.074
32767SOL    HW2   76   8.008   7.675  13.201
32768SOL     OW   77  14.004   1.096   0.403
32768SOL    HW1   78  14.071   1.155   0.368
32768SOL    HW2   79  14.053   1.029   0.451
32769SOL     OW   80  14.462   2.376   0.213
32769SOL    HW1   81  14.514   2.454   0.236
32769SOL    HW2   82  14.451   2.330   0.295
32770SOL     OW   83   2.429   4.732   5.898
32770SOL    HW1   84   2.519   4.765   5.905
32770SOL    HW2   85   2.381   4.802   5.855
32771SOL     OW   86   9.998   5.663   2.063
32771SOL    HW1   87   9.911   5.664   2.102
32771SOL    HW2   88  10.048   5.601   2.117
32772SOL     OW   89   0.819   0.456   7.965
32772SOL    HW1   90   0.725   0.471   7.955
32772SOL    HW2   91   0.860   0.519   7.905
32773SOL     OW   92  12.129  10.843   3.242
32773SOL    HW1   93  12.155  10.833   3.334
32773SOL    HW2   94  12.079  10.764   3.222
32774SOL     OW   95   7.561   3.529   3.070
32774SOL    HW1   96   7.612   3.541   2.989
32774SOL    HW2   97   7.520   3.443   3.061
32775SOL     OW   98   6.745  10.231  13.046
32775SOL    HW1   99   6.677  10.281  13.002
32775SOL    HW2  100   6.813  10.295  13.066
32776SOL     OW  101  11.577   8.223  12.163
32776SOL    HW1  102  11.499   8.274  12.146
32776SOL    HW2  103  11.593   8.233  12.257
32777SOL     OW  104  11.803   6.511   7.840
32777SOL    HW1  105  11.864   6.548   7.903
32777SOL    HW2  106  11.718   6.549   7.864
32778SOL     OW  107   8.099  10.016   5.169
32778SOL    HW1  108   8.183  10.056   5.148
32778SOL    HW2  109   8.111   9.923   5.149
32779SOL     OW  110   1.862  12.588   1.622
32779SOL    HW1  111   1.940  12.538   1.596
32779SOL    HW2  112   1.823  12.537   1.693
32780SOL     OW  113   7.268   5.197   3.068
32780SOL    HW1  114   7.248   5.282   3.109
32780SOL    HW2  115   7.364   5.191   3.072
32781SOL     OW  116  13.998   5.868   6.370
32781SOL    HW1  117  14.022   5.900   6.456
32781SOL    HW2  118  14.020   5.775   6.372
32782SOL     OW  119  13.698  12.979   4.259
32782SOL    HW1  120  13.738  12.892   4.259
32782SOL    HW2  121  13.771  13.039   4.242
32783SOL     OW  122  14.028   4.548   4.254
32783SOL    HW1  123  14.084   4.623   4.238
32783SOL    HW2  124  13.944   4.571   4.213
32784SOL     OW  125   8.945   4.922   7.382
32784SOL    HW1  126   8.888   4.941   7.308
32784SOL    HW2  127   9.011   4.863   7.347
32785SOL     OW  128  10.838   7.045  14.477
32785SOL    HW1  129  10.856   7.138  14.472
32785SOL    HW2  130  10.897   7.005  14.412
32786SOL     OW  131  13.153  11.158   3.577
32786SOL    HW1  132  13.143  11.087   3.513
32786SOL    HW2  133  13.165  11.236   3.523
32787SOL     OW  134   3.537   0.051  13.007
32787SOL    HW1  135   3.603   0.076  13.071
32787SOL    HW2  136   3.537   0.122  12.943
32788SOL     OW  137   1.277   1.227   0.970
32788SOL    HW1  138   1.185   1.245   0.950
32788SOL    HW2  139   1.276   1.139   1.007
32789SOL     OW  140  10.477  13.660   9.709
32789SOL    HW1  141  10.446  13.676   9.798
32789SOL    HW2  142  10.397  13.651   9.657
32790SOL     OW  143  14.277  10.931   3.107
32790SOL    HW1  144  14.211  11.000   3.111
32790SOL    HW2  145  14.317  10.940   3.021
32791SOL     OW  146  11.169   6.398  14.852
32791SOL    HW1  147  11.181   6.447  14.771
32791SOL    HW2  148  11.102   6.449   0.022
32792SOL     OW  149  11.485  13.746   0.614
32792SOL    HW1  150  11.539  13.696   0.553
32792SOL    HW2  151  11.489  13.697   0.696
32793SOL     OW  152  14.366  11.479   7.841
32793SOL    HW1  153  14.445  11.501   7.793
32793SOL    HW2  154  14.325  11.409   7.790
32794SOL     OW  155   5.114   2.706  10.772
32794SOL    HW1  156   5.139   2.649  10.844
32794SOL    HW2  157   5.070   2.780  10.813
32795SOL     OW  158   2.352   1.976   4.830
32795SOL    HW1  159   2.308   1.991   4.914
32795SOL    HW2  160   2.429   1.925   4.852
32796SOL     OW  161   5.391   8.132   4.946
32796SOL    HW1  162   5.478   8.121   4.985
32796SOL    HW2  163   5.407   8.177   4.864
32797SOL     OW  164  14.522  14.601   3.629
32797SOL    HW1  165  14.618  14.600   3.629
32797SOL    HW2  166  14.497  14.570   3.716
32798SOL     OW  167   3.965  14.206   5.312
32798SOL    HW1  168   4.019  14.217   5.234
32798SOL    HW2  169   4.028  14.203   5.384
32799SOL     OW  170   6.729   8.698   0.333
32799SOL    HW1  171   6.791   8.627   0.347
32799SOL    HW2  172   6.759   8.768   0.392
32800SOL     OW  173  10.112  11.693   4.170
32800SOL    HW1  174  10.157  11.767   4.210
32800SOL    HW2  175  10.127  11.621   4.231
32801SOL     OW  176  13.130  14.434   2.685
32801SOL    HW1  177  13.215  14.392   2.674
32801SOL    HW2  178  13.084  14.378   2.748
32802SOL     OW  179   3.762  10.246   2.375
32802SOL    HW1  180   3.794  10.231   2.465
32802SOL    HW2  181   3.836  10.221   2.320
32803SOL     OW  182  12.837   5.374   3.458
32803SOL    HW1  183  12.915   5.356   3.511
32803SOL    HW2  184  12.832   5.469   3.454
32804SOL     OW  185   8.751  13.533   8.529
32804SOL    HW1  186   8.844  13.509   8.525
32804SOL    HW2  187   8.712  13.491   8.452
32805SOL     OW  188  12.836   1.591  12.719
32805SOL    HW1  189  12.898   1.656  12.687
32805SOL    HW2  190  12.828   1.608  12.812
32806SOL     OW  191   0.759   8.456   8.862
32806SOL    HW1  192   0.734   8.364   8.857
32806SOL    HW2  193   0.809   8.472   8.781
32807SOL     OW  194  12.753   5.971   2.368
32807SOL    HW1  195  12.838   5.942   2.401
32807SOL    HW2  196  12.690   5.911   2.408
32808SOL     OW  197  12.738   5.977   1.684
32808SOL    HW1  198  12.805   5.912   1.708
32808SOL    HW2  199  12.700   6.003   1.768
32809SOL     OW  200   5.717   6.988   5.451
32809SOL    HW1  201   5.630   7.007   5.415
32809SOL    HW2  202   5.776   6.995   5.376
32810SOL     OW  203   2.142   1.739   0.951
32810SOL    HW1  204   2.124   1.807   1.016
32810SOL    HW2  205   2.081   1.669   0.972
32811SOL     OW  206  11.074   5.723   6.424
32811SOL    HW1  207  11.035   5.636   6.415
32811SOL    HW2  208  10.999   5.783   6.426
32812SOL     OW  209  12.095  14.118   3.340
32812SOL    HW1  210  12.097  14.028   3.308
32812SOL    HW2  211  12.057  14.168   3.268
32813SOL     OW  212   6.197  10.043   2.266
32813SOL    HW1  213   6.116   9.993   2.261
32813SOL    HW2  214   6.197  10.097   2.187
32814SOL     OW  215  13.888  11.245   6.013
32814SOL    HW1  216  13.937  11.323   6.039
32814SOL    HW2  217  13.924  11.174   6.067
32815SOL     OW  218  11.672   8.990  12.071
32815SOL    HW1  219  11.669   8.939  11.990
32815SOL    HW2  220  11.721   9.068  12.049
32816SOL     OW  221   9.217  14.588   5.857
32816SOL    HW1  222   9.237  14.547   5.772
32816SOL    HW2  223   9.249  14.678   5.848
32817SOL     OW  224  12.731   6.673   4.420
32817SOL    HW1  225  12.705   6.590   4.460
32817SOL    HW2  226  12.780   6.647   4.342
32818SOL     OW  227   6.708  14.452   4.010
32818SOL    HW1  228   6.769  14.387   4.046
32818SOL    HW2  229   6.731  14.458   3.917
32819SOL     OW  230   2.128   0.443   1.668
32819SOL    HW1  231   2.106   0.483   1.584
32819SOL    HW2  232   2.090   0.355   1.664
32820SOL     OW  233   3.203  12.417   5.157
32820SOL    HW1  234   3.282  12.438   5.207
32820SOL    HW2  235   3.204  12.322   5.150
32821SOL     OW  236  10.518   6.308   8.498
32821SOL    HW1  237  10.449   6.371   8.521
32821SOL    HW2  238  10.593   6.334   8.552
32822SOL     OW  239  11.156   2.376  14.250
32822SOL    HW1  240  11.232   2.434  14.261
32822SOL    HW2  241  11.094   2.427  14.197
32823SOL     OW  242   5.616   7.697   9.820
32823SOL    HW1  243   5.551   7.767   9.810
32823SOL    HW2  244   5.658   7.691   9.734
32824SOL     OW  245   0.551   7.848   3.978
32824SOL    HW1  246   0.511   7.836   3.892
32824SOL    HW2  247   0.503   7.787   4.035
32825SOL     OW  248  11.177   6.083   3.344
32825SOL    HW1  249  11.106   6.146   3.331
32825SOL    HW2  250  11.150   6.032   3.420
32826SOL     OW  251   5.763   4.921   5.031
32826SOL    HW1  252   5.701   4.934   4.959
32826SOL    HW2  253   5.713   4.872   5.096
32827SOL     OW  254   1.204  11.759   1.661
32827SOL    HW1  255   1.125  11.811   1.679
32827SOL    HW2  256   1.186  11.716   1.578
32828SOL     OW  257   5.861   0.328  12.140
32828SOL    HW1  258   5.896   0.250  12.184
32828SOL    HW2  259   5.779   0.347  12.186
32829SOL     OW  260   9.155  14.701   0.491
32829SOL    HW1  261   9.129  14.616   0.527
32829SOL    HW2  262   9.197  14.679   0.408
32830SOL     OW  263   5.538  13.519   7.095
32830SOL    HW1  264   5.497  13.586   7.150
32830SOL    HW2  265   5.533  13.439   7.147
32831SOL     OW  266  13.725   0.817  11.243
32831SOL    HW1  267  13.633   0.800  11.265
32831SOL    HW2  268  13.737   0.910  11.262
32832SOL     OW  269  10.995   1.106  13.174
32832SOL    HW1  270  10.937   1.170  13.216
32832SOL    HW2  271  11.038   1.155  13.104
32833SOL     OW  272   7.294   0.886   1.309
32833SOL    HW1  273   7.358   0.820   1.336
32833SOL    HW2  274   7.239   0.842   1.245
32834SOL     OW  275   5.518  14.395   4.585
32834SOL    HW1  276   5.601  14.443   4.595
32834SOL    HW2  277   5.522  14.359   4.496
32835SOL     OW  278  13.903  10.182   1.970
32835SOL    HW1  279  13.968  10.173   2.040
32835SOL    HW2  280  13.829  10.129   1.999
32836SOL     OW  281  12.598  12.823  10.663
32836SOL    HW1  282  12.576  12.916  10.656
32836SOL    HW2  283  12.649  12.817  10.744
32837SOL     OW  284   0.204  12.077   4.101
32837SOL    HW1  285   0.268  12.084   4.030
32837SOL    HW2  286   0.226  11.996   4.146
32838SOL     OW  287   5.224   8.932   5.448
32838SOL    HW1  288   5.213   9.014   5.401
32838SOL    HW2  289   5.151   8.878   5.418
32839SOL     OW  290  10.101   0.832   4.666
32839SOL    HW1  291  10.097   0.764   4.732
32839SOL    HW2  292  10.074   0.788   4.585
32840SOL     OW  293  11.609  13.032   1.292
32840SOL    HW1  294  11.624  13.026   1.198
32840SOL    HW2  295  11.692  13.006   1.331
32841SOL     OW  296   7.609   3.211   5.108
32841SOL    HW1  297   7.655   3.140   5.153
32841SOL    HW2  298   7.640   3.291   5.152
32842SOL     OW  299   7.310   8.095   5.901
32842SOL    HW1  300   7.255   8.110   5.978
32842SOL    HW2  301   7.383   8.043   5.934
32843SOL     OW  302  10.148  11.812   2.434
32843SOL    HW1  303  10.124  11.793   2.525
32843SOL    HW2  304  10.196  11.735   2.405
32844SOL     OW  305   2.813  13.319  11.826
32844SOL    HW1  306   2.744  13.253  11.820
32844SOL    HW2  307   2.854  13.318  11.739
32845SOL     OW  308  13.174  14.564  12.156
32845SOL    HW1  309  13.163  14.638  12.215
32845SOL    HW2  310  13.195  14.604  12.071
32846SOL     OW  311  13.933  11.329  12.873
32846SOL    HW1  312  13.855  11.275  12.883
32846SOL    HW2  313  13.904  11.418  12.892
32847SOL     OW  314   1.591  14.084   8.186
32847SOL    HW1  315   1.678  14.047   8.203
32847SOL    HW2  316   1.581  14.082   8.091
32848SOL     OW  317   6.042   3.151   5.079
32848SOL    HW1  318   6.092   3.178   5.002
32848SOL    HW2  319   6.102   3.096   5.130
32849SOL     OW  320   3.646   6.179   3.032
32849SOL    HW1  321   3.734   6.197   3.000
32849SOL    HW2  322   3.643   6.220   3.118
32850SOL     OW  323   7.013  13.767  13.198
32850SOL    HW1  324   7.060  13.775  13.281
32850SOL    HW2  325   6.920  13.766  13.223
32851SOL     OW  326   8.511   5.276  11.946
32851SOL    HW1  327   8.437   5.267  12.006
32851SOL    HW2  328   8.567   5.200  11.964
32852SOL     OW  329   3.536   3.824   9.958
32852SOL    HW1  330   3.543   3.799   9.866
32852SOL    HW2  331   3.490   3.908   9.956
32853SOL     OW  332   9.310   5.574   8.128
32853SOL    HW1  333   9.369   5.514   8.083
32853SOL    HW2  334   9.355   5.594   8.210
32854SOL     OW  335   1.278   5.896   6.754
32854SOL    HW1  336   1.217   5.933   6.690
32854SOL    HW2  337   1.350   5.959   6.758
32855SOL     OW  338  10.658  10.802  12.068
32855SOL    HW1  339  10.631  10.726  12.016
32855SOL    HW2  340  10.618  10.877  12.024
32856SOL     OW  341   0.756  14.406   2.265
32856SOL    HW1  342   0.687  14.364   2.213
32856SOL    HW2  343   0.734  14.385   2.356
32857SOL     OW  344  12.351   5.399   8.622
32857SOL    HW1  345  12.402   5.319   8.630
32857SOL    HW2  346  12.377   5.434   8.536
32858SOL     OW  347  10.895   6.199  12.828
32858SOL    HW1  348  10.982   6.196  12.788
32858SOL    HW2  349  10.911   6.191  12.922
32859SOL     OW  350   5.158  13.504   0.240
32859SOL    HW1  351   5.188  13.414   0.248
32859SOL    HW2  352   5.063  13.496   0.225
32860SOL     OW  353   3.585   7.349   2.197
32860SOL    HW1  354   3.626   7.414   2.141
32860SOL    HW2  355   3.543   7.400   2.266
32861SOL     OW  356   1.510  12.376   0.097
32861SOL    HW1  357   1.477  12.336   0.016
32861SOL    HW2  358   1.482  12.467   0.091
32862SOL     OW  359   7.770   2.581   0.574
32862SOL    HW1  360   7.781   2.621   0.660
32862SOL    HW2  361   7.842   2.614   0.522
32863SOL     OW  362   6.878   4.306   1.108
32863SOL    HW1  363   6.832   4.325   1.190
32863SOL    HW2  364   6.875   4.210   1.101
32864SOL     OW  365   8.221  12.145  11.410
32864SOL    HW1  366   8.316  12.138  11.420
32864SOL    HW2  367   8.187  12.128  11.498
32865SOL     OW  368  11.554  12.040   8.485
32865SOL    HW1  369  11.523  12.130   8.471
32865SOL    HW2  370  11.589  12.014   8.400
32866SOL     OW  371   9.782  11.305  13.864
32866SOL    HW1  372   9.853  11.276  13.923
32866SOL    HW2  373   9.826  11.324  13.781
32867SOL     OW  374  10.968   3.499   8.690
32867SOL    HW1  375  11.002   3.431   8.634
32867SOL    HW2  376  11.005   3.480   8.777
32868SOL     OW  377   4.023  12.358  10.336
32868SOL    HW1  378   4.105  12.314  10.356
32868SOL    HW2  379   4.028  12.377  10.242
32869SOL     OW  380  10.976  12.107  10.823
32869SOL    HW1  381  10.913  12.129  10.892
32869SOL    HW2  382  10.934  12.038  10.772
32870SOL     OW  383  10.022   3.332   6.644
32870SOL    HW1  384  10.087   3.401   6.658
32870SOL    HW2  385  10.068   3.251   6.667
32871SOL     OW  386   8.386   9.845  12.860
32871SOL    HW1  387   8.348   9.928  12.887
32871SOL    HW2  388   8.448   9.824  12.930
32872SOL     OW  389   6.929   9.184   6.477
32872SOL    HW1  390   6.977   9.112   6.436
32872SOL    HW2  391   6.868   9.141   6.537
32873SOL     OW  392   8.308   1.118   0.628
32873SOL    HW1  393   8.228   1.098   0.580
32873SOL    HW2  394   8.328   1.209   0.604
32874SOL     OW  395  12.412   8.043   8.082
32874SOL    HW1  396  12.327   8.017   8.046
32874SOL    HW2  397  12.441   8.114   8.026
32875SOL     OW  398  12.229  13.380   2.859
32875SOL    HW1  399  12.309  13.413   2.900
32875SOL    HW2  400  12.188  13.325   2.926
32876SOL     OW  401  14.349   2.262   4.626
32876SOL    HW1  402  14.285   2.254   4.697
32876SOL    HW2  403  14.405   2.184   4.635
32877SOL     OW  404   3.353   4.151   1.547
32877SOL    HW1  405   3.344   4.243   1.523
32877SOL    HW2  406   3.356   4.151   1.643
32878SOL     OW  407   3.631   6.991   6.501
32878SOL    HW1  408   3.605   6.947   6.420
32878SOL    HW2  409   3.694   7.057   6.473
32879SOL     OW  410   2.775   4.724   9.504
32879SOL    HW1  411   2.849   4.675   9.539
32879SOL    HW2  412   2.717   4.736   9.579
32880SOL     OW  413   0.102  12.450   5.638
32880SOL    HW1  414   0.171  12.515   5.655
32880SOL    HW2  415   0.113  12.386   5.708
32881SOL     OW  416   3.952   9.589   6.999
32881SOL    HW1  417   3.936   9.630   6.914
32881SOL    HW2  418   3.998   9.508   6.978
32882SOL     OW  419   5.191  14.845  10.328
32882SOL    HW1  420   5.210  14.775  10.390
32882SOL    HW2  421   5.245  14.824  10.251
32883SOL     OW  422  11.719   7.823   3.657
32883SOL    HW1  423  11.672   7.813   3.740
32883SOL    HW2  424  11.809   7.841   3.683
32884SOL     OW  425  13.532   8.756   7.282
32884SOL    HW1  426  13.482   8.705   7.219
32884SOL    HW2  427  13.523   8.707   7.364
32885SOL     OW  428   0.285  13.406   7.999
32885SOL    HW1  429   0.347  13.465   8.040
32885SOL    HW2  430   0.203  13.456   7.996
32886SOL     OW  431   1.242   2.054   9.995
32886SOL    HW1  432   1.225   2.145  10.017
32886SOL    HW2  433   1.335   2.052   9.973
32887SOL     OW  434   0.612   3.229  10.631
32887SOL    HW1  435   0.595   3.265  10.718
32887SOL    HW2  436   0.613   3.305  10.573
32888SOL     OW  437  10.373   3.839   2.241
32888SOL    HW1  438  10.455   3.873   2.277
32888SOL    HW2  439  10.389   3.745   2.231
32889SOL     OW  440   7.320   0.879   3.939
32889SOL    HW1  441   7.325   0.970   3.969
32889SOL    HW2  442   7.270   0.834   4.006
32890SOL     OW  443   5.950  11.081   2.012
32890SOL    HW1  444   5.888  11.012   2.033
32890SOL    HW2  445   5.930  11.152   2.073
32891SOL     OW  446   2.747   1.745  12.812
32891SOL    HW1  447   2.662   1.760  12.770
32891SOL    HW2  448   2.749   1.650  12.829
32892SOL     OW  449  13.926   9.858  13.233
32892SOL    HW1  450  13.951   9.880  13.323
32892SOL    HW2  451  13.885   9.938  13.199
32893SOL     OW  452   1.097   8.805   1.185
32893SOL    HW1  453   1.186   8.818   1.219
32893SOL    HW2  454   1.051   8.886   1.206
32894SOL     OW  455   9.049  12.845   2.981
32894SOL    HW1  456   8.967  12.829   2.935
32894SOL    HW2  457   9.027  12.908   3.049
32895SOL     OW  458  10.255   0.731   4.098
32895SOL    HW1  459  10.310   0.804   4.125
32895SOL    HW2  460  10.196   0.717   4.172
32896SOL     OW  461  13.537   0.801   5.942
32896SOL    HW1  462  13.627   0.821   5.917
32896SOL    HW2  463  13.507   0.738   5.876
32897SOL     OW  464   2.551   7.309   5.267
32897SOL    HW1  465   2.584   7.356   5.190
32897SOL    HW2  466   2.475   7.261   5.235
32898SOL     OW  467   3.775   7.976   5.024
32898SOL    HW1  468   3.794   7.929   5.105
32898SOL    HW2  469   3.687   7.948   5.000
32899SOL     OW  470   6.228  12.460   7.897
32899SOL    HW1  471   6.197  12.486   7.984
32899SOL    HW2  472   6.197  12.530   7.839
32900SOL     OW  473   3.664  14.447  13.750
32900SOL    HW1  474   3.620  14.531  13.740
32900SOL    HW2  475   3.675  14.414  13.661
32901SOL     OW  476   2.618   4.190  11.071
32901SOL    HW1  477   2.631   4.225  11.159
32901SOL    HW2  478   2.641   4.263  11.013
32902SOL     OW  479  12.243   8.590   6.518
32902SOL    HW1  480  12.304   8.563   6.450
32902SOL    HW2  481  12.178   8.644   6.473
32903SOL     OW  482   0.184   0.217   6.120
32903SOL    HW1  483   0.273   0.193   6.092
32903SOL    HW2  484   0.185   0.313   6.124
32904SOL     OW  485  10.589   1.301  14.456
32904SOL    HW1  486  10.600   1.243  14.530
32904SOL    HW2  487  10.649   1.267  14.389
32905SOL     OW  488  10.298   7.570  10.027
32905SOL    HW1  489  10.332   7.628  10.095
32905SOL    HW2  490  10.205   7.593  10.020
32906SOL     OW  491   8.082   4.177   2.856
32906SOL    HW1  492   8.111   4.113   2.791
32906SOL    HW2  493   7.997   4.206   2.825
32907SOL     OW  494   8.877   3.986   4.185
32907SOL    HW1  495   8.852   4.078   4.176
32907SOL    HW2  496   8.913   3.963   4.099
32908SOL     OW  497   5.962  11.590   0.702
32908SOL    HW1  498   6.047  11.632   0.685
32908SOL    HW2  499   5.978  11.497   0.688
32909SOL     OW  500   4.638   8.022   2.351
32909SOL    HW1  501   4.707   8.062   2.405
32909SOL    HW2  502   4.669   7.933   2.335
32910SOL     OW  503   3.466   9.710   5.922
32910SOL    HW1  504   3.469   9.788   5.866
32910SOL    HW2  505   3.545   9.661   5.899
32911SOL     OW  506   8.123   9.910   7.238
32911SOL    HW1  507   8.068   9.951   7.172
32911SOL    HW2  508   8.134   9.820   7.208
32912SOL     OW  509   2.990   2.286  11.464
32912SOL    HW1  510   3.043   2.364  11.454
32912SOL    HW2  511   2.917   2.298  11.403
32913SOL     OW  512   7.145  13.390   4.170
32913SOL    HW1  513   7.169  13.307   4.131
32913SOL    HW2  514   7.124  13.369   4.261
32914SOL     OW  515  13.503  14.498   0.243
32914SOL    HW1  516  13.519  14.592   0.252
32914SOL    HW2  517  13.520  14.480   0.151
32915SOL     OW  518  10.389   9.774   0.456
32915SOL    HW1  519  10.383   9.734   0.542
32915SOL    HW2  520  10.440   9.853   0.469
32916SOL     OW  521  11.831   0.378   8.637
32916SOL    HW1  522  11.776   0.303   8.615
32916SOL    HW2  523  11.782   0.454   8.606
32917SOL     OW  524   1.352   2.988   5.739
32917SOL    HW1  525   1.316   3.074   5.762
32917SOL    HW2  526   1.360   2.990   5.644
32918SOL     OW  527  10.254  14.328   2.327
32918SOL    HW1  528  10.252  14.262   2.395
32918SOL    HW2  529  10.200  14.400   2.361
32919SOL     OW  530  10.889   6.153  13.094
32919SOL    HW1  531  10.839   6.106  13.161
32919SOL    HW2  532  10.972   6.176  13.137
32920SOL     OW  533  11.691   8.550  12.163
32920SOL    HW1  534  11.602   8.577  12.186
32920SOL    HW2  535  11.713   8.481  12.226
32921SOL     OW  536   5.721   6.357  13.095
32921SOL    HW1  537   5.692   6.279  13.048
32921SOL    HW2  538   5.783   6.325  13.160
32922SOL     OW  539   1.346   5.827  13.594
32922SOL    HW1  540   1.420   5.800  13.540
32922SOL    HW2  541   1.362   5.786  13.679
32923SOL     OW  542  13.890  12.716   8.343
32923SOL    HW1  543  13.949  12.739   8.415
32923SOL    HW2  544  13.803  12.718   8.381
32924SOL     OW  545   6.079   9.868   8.857
32924SOL    HW1  546   6.036   9.789   8.823
32924SOL    HW2  547   6.168   9.840   8.877
32925SOL     OW  548   2.508  10.285   1.120
32925SOL    HW1  549   2.415  10.299   1.136
32925SOL    HW2  550   2.545  10.373   1.116
32926SOL     OW  551   3.629  12.793  10.531
32926SOL    HW1  552   3.721  12.801  10.507
32926SOL    HW2  553   3.616  12.863  10.595
32927SOL     OW  554  10.424   1.698   7.735
32927SOL    HW1  555  10.407   1.724   7.825
32927SOL    HW2  556  10.478   1.620   7.742
32928SOL     OW  557  10.354   8.910  10.612
32928SOL    HW1  558  10.411   8.897  10.536
32928SOL    HW2  559  10.270   8.874  10.586
32929SOL     OW  560   3.298   3.892   0.325
32929SOL    HW1  561   3.267   3.935   0.245
32929SOL    HW2  562   3.328   3.964   0.380
32930SOL     OW  563   6.476  13.500   6.177
32930SOL    HW1  564   6.572  13.507   6.174
32930SOL    HW2  565   6.447  13.585   6.210
32931SOL     OW  566   1.901   0.916   8.536
32931SOL    HW1  567   1.933   0.994   8.582
32931SOL    HW2  568   1.955   0.912   8.457
32932SOL     OW  569   7.196   3.703   4.249
32932SOL    HW1  570   7.112   3.663   4.226
32932SOL    HW2  571   7.248   3.699   4.168
32933SOL     OW  572   5.160  12.054   9.046
32933SOL    HW1  573   5.191  11.974   9.004
32933SOL    HW2  574   5.214  12.064   9.124
32934SOL     OW  575   7.580   9.818   8.626
32934SOL    HW1  576   7.566   9.871   8.705
32934SOL    HW2  577   7.492   9.787   8.603
32935SOL     OW  578   5.615   4.288   9.140
32935SOL    HW1  579   5.628   4.381   9.118
32935SOL    HW2  580   5.560   4.289   9.217
32936SOL     OW  581   2.440  11.829   9.949
32936SOL    HW1  582   2.520  11.780   9.969
32936SOL    HW2  583   2.423  11.880  10.027
32937SOL     OW  584   1.176  10.288   9.113
32937SOL    HW1  585   1.235  10.288   9.188
32937SOL    HW2  586   1.223  10.334   9.044
32938SOL     OW  587   0.418   9.842   4.194
32938SOL    HW1  588   0.501   9.845   4.242
32938SOL    HW2  589   0.371   9.769   4.234
32939SOL     OW  590   8.306  12.576   9.590
32939SOL    HW1  591   8.296  12.661   9.632
32939SOL    HW2  592   8.314  12.514   9.663
32940SOL     OW  593  11.229   4.293   5.969
32940SOL    HW1  594  11.137   4.271   5.984
32940SOL    HW2  595  11.261   4.321   6.055
32941SOL     OW  596   8.401  12.693   7.561
32941SOL    HW1  597   8.426  12.612   7.605
32941SOL    HW2  598   8.352  12.665   7.484
32942SOL     OW  599   9.411   9.383   5.086
32942SOL    HW1  600   9.338   9.348   5.138
32942SOL    HW2  601   9.369   9.423   5.010
32943SOL     OW  602   2.074   1.658  10.778
32943SOL    HW1  603   2.034   1.744  10.793
32943SOL    HW2  604   2.127   1.670  10.699
32944SOL     OW  605   1.109   5.041   4.494
32944SOL    HW1  606   1.129   5.018   4.403
32944SOL    HW2  607   1.093   5.135   4.492
32945SOL     OW  608   2.194   6.503   7.215
32945SOL    HW1  609   2.114   6.516   7.266
32945SOL    HW2  610   2.263   6.494   7.280
32946SOL     OW  611   5.333   8.011   5.277
32946SOL    HW1  612   5.414   8.061   5.275
32946SOL    HW2  613   5.353   7.934   5.330
32947SOL     OW  614  12.893  12.321   1.225
32947SOL    HW1  615  12.955  12.394   1.225
32947SOL    HW2  616  12.828  12.345   1.290
32948SOL     OW  617   5.544  11.776   8.153
32948SOL    HW1  618   5.600  11.725   8.094
32948SOL    HW2  619   5.605  11.833   8.199
32949SOL     OW  620  13.793  13.388   6.739
32949SOL    HW1  621  13.745  13.327   6.795
32949SOL    HW2  622  13.861  13.424   6.796
32950SOL     OW  623  10.741   6.227   4.353
32950SOL    HW1  624  10.680   6.285   4.398
32950SOL    HW2  625  10.809   6.285   4.318
32951SOL     OW  626   7.070  10.070   1.771
32951SOL    HW1  627   7.002  10.135   1.754
32951SOL    HW2  628   7.147  10.103   1.724
32952SOL     OW  629   8.026   7.158   4.123
32952SOL    HW1  630   8.036   7.238   4.174
32952SOL    HW2  631   8.019   7.187   4.032
32953SOL     OW  632   5.981   2.017  12.829
32953SOL    HW1  633   5.889   2.016  12.857
32953SOL    HW2  634   6.023   1.949  12.881
32954SOL     OW  635  10.816   0.200   5.595
32954SOL    HW1  636  10.792   0.202   5.688
32954SOL    HW2  637  10.873   0.276   5.584
32955SOL     OW  638  14.748   5.204   3.032
32955SOL    HW1  639  14.735   5.229   2.941
32955SOL    HW2  640  14.795   5.278   3.071
32956SOL     OW  641   5.129   9.227   7.402
32956SOL    HW1  642   5.219   9.248   7.424
32956SOL    HW2  643   5.104   9.158   7.464
32957SOL     OW  644  11.451   4.589  14.349
32957SOL    HW1  645  11.393   4.644  14.401
32957SOL    HW2  646  11.513   4.651  14.309
32958SOL     OW  647   1.978   8.329  12.409
32958SOL    HW1  648   1.911   8.310  12.475
32958SOL    HW2  649   1.937   8.393  12.351
32959SOL     OW  650  10.535  10.523  11.332
32959SOL    HW1  651  10.456  10.469  11.340
32959SOL    HW2  652  10.570  10.500  11.246
32960SOL     OW  653   1.087   3.271   0.705
32960SOL    HW1  654   1.088   3.317   0.789
32960SOL    HW2  655   1.174   3.287   0.668
32961SOL     OW  656   9.248  12.407   9.689
32961SOL    HW1  657   9.155  12.429   9.698
32961SOL    HW2  658   9.272  12.371   9.774
32962SOL     OW  659   5.709   8.517  12.271
32962SOL    HW1  660   5.659   8.481  12.197
32962SOL    HW2  661   5.800   8.510  12.244
32963SOL     OW  662   6.558  14.505  11.544
32963SOL    HW1  663   6.473  14.470  11.569
32963SOL    HW2  664   6.612  14.495  11.622
32964SOL     OW  665   0.322  13.099   3.669
32964SOL    HW1  666   0.298  13.191   3.684
32964SOL    HW2  667   0.272  13.050   3.734
32965SOL     OW  668   0.575  11.769   9.769
32965SOL    HW1  669   0.507  11.706   9.750
32965SOL    HW2  670   0.649  11.743   9.714
32966SOL     OW  671  12.417   8.064  10.915
32966SOL    HW1  672  12.329   8.081  10.948
32966SOL    HW2  673  12.470   8.049  10.993
32967SOL     OW  674   5.846   9.568  10.869
32967SOL    HW1  675   5.917   9.615  10.826
32967SOL    HW2  676   5.883   9.484  10.895
32968SOL     OW  677  14.413   9.578  10.185
32968SOL    HW1  678  14.466   9.658  10.183
32968SOL    HW2  679  14.345   9.593  10.120
32969SOL     OW  680   1.739  13.723   6.384
32969SOL    HW1  681   1.819  13.736   6.332
32969SOL    HW2  682   1.680  13.676   6.325
32970SOL     OW  683   8.266  10.865   0.062
32970SOL    HW1  684   8.286  10.858  14.846
32970SOL    HW2  685   8.173  10.841   0.069
32971SOL     OW  686   9.268  14.230  11.645
32971SOL    HW1  687   9.257  14.138  11.668
32971SOL    HW2  688   9.337  14.261  11.703
32972SOL     OW  689   2.724   1.625  12.034
32972SOL    HW1  690   2.748   1.539  12.000
32972SOL    HW2  691   2.655   1.656  11.976
32973SOL     OW  692   5.598  13.417   1.048
32973SOL    HW1  693   5.671  13.478   1.058
32973SOL    HW2  694   5.580  13.387   1.137
32974SOL     OW  695   5.553  10.830   5.576
32974SOL    HW1  696   5.604  10.777   5.637
32974SOL    HW2  697   5.574  10.793   5.490
32975SOL     OW  698  11.451   9.351   1.961
32975SOL    HW1  699  11.484   9.348   1.871
32975SOL    HW2  700  11.357   9.365   1.952
32976SOL     OW  701   1.232  10.988   3.155
32976SOL    HW1  702   1.275  11.042   3.221
32976SOL    HW2  703   1.140  11.014   3.158
32977SOL     OW  704   8.128   8.528  10.263
32977SOL    HW1  705   8.170   8.566  10.186
32977SOL    HW2  706   8.186   8.456  10.289
32978SOL     OW  707  12.441   0.364   6.579
32978SOL    HW1  708  12.414   0.335   6.492
32978SOL    HW2  709  12.531   0.334   6.588
32979SOL     OW  710   1.148   6.791   5.104
32979SOL    HW1  711   1.207   6.857   5.069
32979SOL    HW2  712   1.205   6.720   5.132
32980SOL     OW  713  13.208   8.571   0.619
32980SOL    HW1  714  13.142   8.574   0.688
32980SOL    HW2  715  13.175   8.507   0.556
32981SOL     OW  716  11.343  11.330   2.035
32981SOL    HW1  717  11.409  11.270   2.072
32981SOL    HW2  718  11.284  11.272   1.987
32982SOL     OW  719   8.077   1.523   0.846
32982SOL    HW1  720   8.094   1.478   0.929
32982SOL    HW2  721   7.982   1.518   0.835
32983SOL     OW  722  12.859  11.663  13.678
32983SOL    HW1  723  12.792  11.658  13.610
32983SOL    HW2  724  12.934  11.705  13.635
32984SOL     OW  725   8.297   1.648   3.171
32984SOL    HW1  726   8.329   1.558   3.165
32984SOL    HW2  727   8.324   1.677   3.258
32985SOL     OW  728  14.141   5.003   8.208
32985SOL    HW1  729  14.161   4.913   8.182
32985SOL    HW2  730  14.113   5.046   8.127
32986SOL     OW  731   7.609  14.720   6.506
32986SOL    HW1  732   7.635  14.788   6.568
32986SOL    HW2  733   7.560  14.767   6.438
32987SOL     OW  734   7.681   3.880   6.600
32987SOL    HW1  735   7.744   3.891   6.529
32987SOL    HW2  736   7.704   3.796   6.640
32988SOL     OW  737   9.233  13.650   1.557
32988SOL    HW1  738   9.282  13.651   1.640
32988SOL    HW2  739   9.167  13.582   1.570
32989SOL     OW  740   5.112   8.541  10.709
32989SOL    HW1  741   5.143   8.498  10.629
32989SOL    HW2  742   5.045   8.481  10.743
32990SOL     OW  743  12.088   4.738  10.875
32990SOL    HW1  744  12.102   4.680  10.799
32990SOL    HW2  745  12.115   4.685  10.950
32991SOL     OW  746  10.084   1.338   3.844
32991SOL    HW1  747  10.102   1.366   3.934
32991SOL    HW2  748  10.128   1.253   3.837
32992SOL     OW  749   7.806   7.697   9.163
32992SOL    HW1  750   7.889   7.736   9.189
32992SOL    HW2  751   7.789   7.630   9.229
32993SOL     OW  752   7.117   3.150  10.256
32993SOL    HW1  753   7.114   3.137  10.351
32993SOL    HW2  754   7.044   3.099  10.222
32994SOL     OW  755   9.282   9.341  14.345
32994SOL    HW1  756   9.285   9.434  14.371
32994SOL    HW2  757   9.350   9.299  14.397
32995SOL     OW  758   4.618  14.777  12.174
32995SOL    HW1  759   4.538  14.784  12.227
32995SOL    HW2  760   4.616  14.688  12.140
32996SOL     OW  761  10.164   3.043   2.111
32996SOL    HW1  762  10.207   3.129   2.101
32996SOL    HW2  763  10.236   2.980   2.109
32997SOL     OW  764  14.420   3.097   8.590
32997SOL    HW1  765  14.496   3.039   8.588
32997SOL    HW2  766  14.410   3.121   8.682
32998SOL     OW  767   2.089   7.503  12.929
32998SOL    HW1  768   2.084   7.592  12.892
32998SOL    HW2  769   2.025   7.503  13.000
32999SOL     OW  770   2.865   7.097   3.013
32999SOL    HW1  771   2.929   7.102   3.084
32999SOL    HW2  772   2.812   7.020   3.034
33000SOL     OW  773   5.606  13.250   1.667
33000SOL    HW1  774   5.526  13.236   1.616
33000SOL    HW2  775   5.577  13.299   1.745
33001SOL     OW  776   6.224   3.015  13.963
33001SOL    HW1  777   6.154   2.992  14.025
33001SOL    HW2  778   6.222   3.110  13.958
33002SOL     OW  779   2.055   6.187   5.387
33002SOL    HW1  780   2.049   6.266   5.441
33002SOL    HW2  781   1.966   6.170   5.357
33003SOL     OW  782  14.307   6.873   2.074
33003SOL    HW1  783  14.278   6.849   2.162
33003SOL    HW2  784  14.396   6.836   2.067
33004SOL     OW  785   9.046   2.606   7.963
33004SOL    HW1  786   9.024   2.679   8.021
33004SOL    HW2  787   9.006   2.629   7.879
33005SOL     OW  788   5.955   7.844  14.438
33005SOL    HW1  789   5.979   7.808  14.352
33005SOL    HW2  790   6.036   7.838  14.489
33006SOL     OW  791   0.239   0.913   2.835
33006SOL    HW1  792   0.184   0.923   2.758
33006SOL    HW2  793   0.249   1.002   2.869
33007SOL     OW  794   8.743   8.577  13.662
33007SOL    HW1  795   8.745   8.550  13.570
33007SOL    HW2  796   8.711   8.499  13.709
33008SOL     OW  797   3.298   4.366   5.682
33008SOL    HW1  798   3.211   4.367   5.721
33008SOL    HW2  799   3.282   4.356   5.588
33009SOL     OW  800   1.876  14.497  12.949
33009SOL    HW1  801   1.787  14.531  12.937
33009SOL    HW2  802   1.929  14.545  12.885
33010SOL     OW  803   3.643   8.441  13.336
33010SOL    HW1  804   3.560   8.425  13.382
33010SOL    HW2  805   3.651   8.536  13.332
33011SOL     OW  806   1.104  14.277   5.702
33011SOL    HW1  807   1.066  14.224   5.773
33011SOL    HW2  808   1.166  14.335   5.746
33012SOL     OW  809   8.726   4.630   3.293
33012SOL    HW1  810   8.778   4.606   3.216
33012SOL    HW2  811   8.638   4.645   3.259
33013SOL     OW  812   1.266   0.848   7.559
33013SOL    HW1  813   1.219   0.809   7.485
33013SOL    HW2  814   1.322   0.915   7.518
33014SOL     OW  815  12.420   6.609  10.553
33014SOL    HW1  816  12.461   6.597  10.639
33014SOL    HW2  817  12.461   6.687  10.517
33015SOL     OW  818   7.879   6.243   9.842
33015SOL    HW1  819   7.859   6.149   9.834
33015SOL    HW2  820   7.798   6.287   9.820
33016SOL     OW  821  14.705   2.432  12.178
33016SOL    HW1  822  14.793   2.393  12.184
33016SOL    HW2  823  14.685   2.432  12.084
33017SOL     OW  824   1.607   0.083  12.420
33017SOL    HW1  825   1.685   0.080  12.475
33017SOL    HW2  826   1.628   0.148  12.353
33018SOL     OW  827   1.324   2.168   4.903
33018SOL    HW1  828   1.244   2.220   4.910
33018SOL    HW2  829   1.337   2.156   4.809
33019SOL     OW  830   8.345  14.622  12.532
33019SOL    HW1  831   8.370  14.602  12.442
33019SOL    HW2  832   8.379  14.548  12.583
33020SOL     OW  833  12.345   6.686   2.055
33020SOL    HW1  834  12.419   6.729   2.095
33020SOL    HW2  835  12.271   6.746   2.068
33021SOL     OW  836   0.913   6.076   0.071
33021SOL    HW1  837   0.936   6.145   0.134
33021SOL    HW2  838   0.913   5.995   0.122
33022SOL     OW  839   6.041  13.757   7.120
33022SOL    HW1  840   6.031  13.850   7.102
33022SOL    HW2  841   5.956  13.729   7.152
33023SOL     OW  842  10.657   6.758   2.282
33023SOL    HW1  843  10.636   6.792   2.369
33023SOL    HW2  844  10.728   6.814   2.251
33024SOL     OW  845   7.707   6.046   8.921
33024SOL    HW1  846   7.678   5.979   8.984
33024SOL    HW2  847   7.632   6.103   8.911
33025SOL     OW  848   8.143  11.717  14.331
33025SOL    HW1  849   8.077  11.679  14.388
33025SOL    HW2  850   8.123  11.811  14.329
33026SOL     OW  851   2.328  13.392  13.918
33026SOL    HW1  852   2.309  13.310  13.963
33026SOL    HW2  853   2.318  13.373  13.825
33027SOL     OW  854  13.567   7.995   3.799
33027SOL    HW1  855  13.472   7.999   3.804
33027SOL    HW2  856  13.595   8.087   3.806
33028SOL     OW  857   3.022  12.269  12.802
33028SOL    HW1  858   2.998  12.253  12.711
33028SOL    HW2  859   3.032  12.181  12.840
33029SOL     OW  860   4.633   3.478   9.868
33029SOL    HW1  861   4.599   3.563   9.842
33029SOL    HW2  862   4.647   3.431   9.785
33030SOL     OW  863   9.242  14.020   2.484
33030SOL    HW1  864   9.283  14.054   2.563
33030SOL    HW2  865   9.315  13.989   2.430
33031SOL     OW  866   1.967  13.050   6.448
33031SOL    HW1  867   1.942  13.101   6.371
33031SOL    HW2  868   2.006  12.970   6.412
33032SOL     OW  869   9.234  13.609   7.476
33032SOL    HW1  870   9.205  13.631   7.565
33032SOL    HW2  871   9.190  13.673   7.420
33033SOL     OW  872  10.773  14.112  13.192
33033SOL    HW1  873  10.796  14.147  13.278
33033SOL    HW2  874  10.704  14.049  13.210
33034SOL     OW  875  10.546  14.608   8.649
33034SOL    HW1  876  10.515  14.648   8.730
33034SOL    HW2  877  10.585  14.681   8.600
33035SOL     OW  878  14.427  10.596  10.619
33035SOL    HW1  879  14.503  10.539  10.632
33035SOL    HW2  880  14.357  10.554  10.669
33036SOL     OW  881  10.201  10.589   4.585
33036SOL    HW1  882  10.244  10.538   4.516
33036SOL    HW2  883  10.270  10.602   4.651
33037SOL     OW  884  11.330   0.562   7.710
33037SOL    HW1  885  11.404   0.614   7.740
33037SOL    HW2  886  11.283   0.619   7.649
33038SOL     OW  887  14.393   2.908  12.524
33038SOL    HW1  888  14.410   3.002  12.530
33038SOL    HW2  889  14.334   2.889  12.597
33039SOL     OW  890   1.375  13.861   6.372
33039SOL    HW1  891   1.371  13.765   6.367
33039SOL    HW2  892   1.302  13.885   6.428
33040SOL     OW  893  11.482   9.919  14.838
33040SOL    HW1  894  11.388   9.936  14.849
33040SOL    HW2  895  11.507   9.970  14.761
33041SOL     OW  896  10.606   9.156   2.929
33041SOL    HW1  897  10.514   9.127   2.930
33041SOL    HW2  898  10.623   9.182   3.019
33042SOL     OW  899  12.278   6.902   5.129
33042SOL    HW1  900  12.365   6.881   5.163
33042SOL    HW2  901  12.266   6.995   5.150
33043SOL     OW  902   0.641   3.332   4.136
33043SOL    HW1  903   0.607   3.352   4.049
33043SOL    HW2  904   0.594   3.252   4.162
33044SOL     OW  905  11.513   0.104  10.420
33044SOL    HW1  906  11.555   0.173  10.368
33044SOL    HW2  907  11.435   0.081  10.370
33045SOL     OW  908   3.649   8.764   8.364
33045SOL    HW1  909   3.702   8.778   8.442
33045SOL    HW2  910   3.568   8.726   8.397
33046SOL     OW  911  14.271  14.209   1.501
33046SOL    HW1  912  14.331  14.134   1.499
33046SOL    HW2  913  14.271  14.237   1.593
33047SOL     OW  914   0.489  11.979   9.061
33047SOL    HW1  915   0.578  11.971   9.097
33047SOL    HW2  916   0.444  12.038   9.121
33048SOL     OW  917  10.561   2.475   4.003
33048SOL    HW1  918  10.534   2.425   3.926
33048SOL    HW2  919  10.479   2.499   4.046
33049SOL     OW  920  11.521  10.178   0.748
33049SOL    HW1  921  11.484  10.165   0.661
33049SOL    HW2  922  11.552  10.268   0.749
33050SOL     OW  923   0.783   9.017   9.498
33050SOL    HW1  924   0.871   9.023   9.462
33050SOL    HW2  925   0.742   8.945   9.449
33051SOL     OW  926   9.579  10.971  14.871
33051SOL    HW1  927   9.672  10.989   0.011
33051SOL    HW2  928   9.555  10.905   0.059
33052SOL     OW  929   0.458   4.697   8.737
33052SOL    HW1  930   0.493   4.636   8.672
33052SOL    HW2  931   0.485   4.783   8.705
33053SOL     OW  932  11.092  11.270  13.819
33053SOL    HW1  933  11.010  11.220  13.823
33053SOL    HW2  934  11.084  11.334  13.890
33054SOL     OW  935  13.360   9.379   4.259
33054SOL    HW1  936  13.380   9.286   4.268
33054SOL    HW2  937  13.394   9.418   4.340
33055SOL     OW  938   0.654  14.743  11.355
33055SOL    HW1  939   0.721  14.733  11.287
33055SOL    HW2  940   0.659  14.661  11.404
33056SOL     OW  941   2.350   3.297  11.625
33056SOL    HW1  942   2.423   3.235  11.622
33056SOL    HW2  943   2.273   3.243  11.643
33057SOL     OW  944   5.974   3.794   9.660
33057SOL    HW1  945   6.037   3.867   9.661
33057SOL    HW2  946   5.919   3.810   9.736
33058SOL     OW  947   7.060  13.721  10.529
33058SOL    HW1  948   7.154  13.734  10.547
33058SOL    HW2  949   7.045  13.767  10.447
33059SOL     OW  950   0.244   8.543   8.111
33059SOL    HW1  951   0.248   8.611   8.178
33059SOL    HW2  952   0.280   8.584   8.033
33060SOL     OW  953  12.035  13.875   4.273
33060SOL    HW1  954  11.978  13.947   4.299
33060SOL    HW2  955  12.099  13.868   4.344
33061SOL     OW  956   5.546   5.227   6.354
33061SOL    HW1  957   5.562   5.229   6.448
33061SOL    HW2  958   5.473   5.165   6.344
33062SOL     OW  959  13.555  10.594  10.411
33062SOL    HW1  960  13.460  10.599  10.415
33062SOL    HW2  961  13.584  10.683  10.393
33063SOL     OW  962  11.496  11.828   2.158
33063SOL    HW1  963  11.497  11.873   2.242
33063SOL    HW2  964  11.406  11.838   2.126
33064SOL     OW  965  13.078   8.022   8.305
33064SOL    HW1  966  13.162   8.053   8.271
33064SOL    HW2  967  13.034   8.100   8.337
33065SOL     OW  968   5.773   7.791   4.440
33065SOL    HW1  969   5.690   7.827   4.473
33065SOL    HW2  970   5.805   7.735   4.511
33066SOL     OW  971  13.999   0.754   2.903
33066SOL    HW1  972  14.088   0.721   2.918
33066SOL    HW2  973  13.955   0.683   2.857
33067SOL     OW  974   1.398   3.637   3.742
33067SOL    HW1  975   1.354   3.564   3.786
33067SOL    HW2  976   1.336   3.665   3.675
33068SOL     OW  977   9.241  14.815   7.877
33068SOL    HW1  978   9.241  14.840   7.969
33068SOL    HW2  979   9.175  14.872   7.836
33069SOL     OW  980  11.713  10.411  13.951
33069SOL    HW1  981  11.658  10.360  14.011
33069SOL    HW2  982  11.792  10.359  13.942
33070SOL     OW  983  10.637  12.368   5.231
33070SOL    HW1  984  10.564  12.393   5.288
33070SOL    HW2  985  10.713  12.366   5.288
33071SOL     OW  986   8.828  14.134  10.148
33071SOL    HW1  987   8.773  14.070  10.103
33071SOL    HW2  988   8.897  14.155  10.086
33072SOL     OW  989   8.998   2.378   2.628
33072SOL    HW1  990   9.045   2.306   2.586
33072SOL    HW2  991   9.010   2.362   2.722
33073SOL     OW  992   6.230   0.547   0.094
33073SOL    HW1  993   6.202   0.639   0.102
33073SOL    HW2  994   6.225   0.512   0.183
33074SOL     OW  995   9.234  12.774   8.805
33074SOL    HW1  996   9.183  12.696   8.784
33074SOL    HW2  997   9.192  12.811   8.882
33075SOL     OW  998   3.492   2.526   8.876
33075SOL    HW1  999   3.564   2.552   8.818
33075SOL    HW2 1000   3.432   2.600   8.873
33076SOL     OW 1001  13.045   5.002  10.520
33076SOL    HW1 1002  13.051   4.948  10.441
33076SOL    HW2 1003  12.991   5.076  10.495
33077SOL     OW 1004  12.461  13.631   9.687
33077SOL    HW1 1005  12.521  13.647   9.615
33077SOL    HW2 1006  12.514  13.639   9.766
33078SOL     OW 1007  10.469   2.501   3.005
33078SOL    HW1 1008  10.464   2.439   3.077
33078SOL    HW2 1009  10.473   2.587   3.047
33079SOL     OW 1010  14.111   1.207  12.059
33079SOL    HW1 1011  14.080   1.167  11.978
33079SOL    HW2 1012  14.198   1.241  12.038
33080SOL     OW 1013   1.849  12.750  13.911
33080SOL    HW1 1014   1.830  12.841  13.889
33080SOL    HW2 1015   1.862  12.707  13.827
33081SOL     OW 1016   5.672  14.223  13.997
33081SOL    HW1 1017   5.726  14.301  14.010
33081SOL    HW2 1018   5.690  14.196  13.907
33082SOL     OW 1019  11.840   4.736   7.517
33082SOL    HW1 1020  11.822   4.796   7.444
33082SOL    HW2 1021  11.755   4.699   7.539
33083SOL     OW 1022   5.599   1.193   6.167
33083SOL    HW1 1023   5.545   1.134   6.220
33083SOL    HW2 1024   5.537   1.237   6.109
33084SOL     OW 1025   5.581   6.819  13.422
33084SOL    HW1 1026   5.671   6.791  13.442
33084SOL    HW2 1027   5.549   6.857  13.504
33085SOL     OW 1028   7.481  14.305   7.529
33085SOL    HW1 1029   7.493  14.350   7.445
33085SOL    HW2 1030   7.527  14.222   7.518
33086SOL     OW 1031  12.914   7.510   9.726
33086SOL    HW1 1032  12.826   7.546   9.735
33086SOL    HW2 1033  12.970   7.569   9.776
33087SOL     OW 1034   7.052  14.661  10.941
33087SOL    HW1 1035   7.094  14.726  10.886
33087SOL    HW2 1036   6.992  14.712  10.996
33088SOL     OW 1037  13.790  14.408  12.856
33088SOL    HW1 1038  13.778  14.388  12.763
33088SOL    HW2 1039  13.712  14.373  12.899
33089SOL     OW 1040   4.225  14.204  13.237
33089SOL    HW1 1041   4.310  14.181  13.273
33089SOL    HW2 1042   4.212  14.143  13.165
33090SOL     OW 1043  11.687   5.805   3.709
33090SOL    HW1 1044  11.682   5.899   3.728
33090SOL    HW2 1045  11.610   5.789   3.653
33091SOL     OW 1046  14.243   0.102   4.451
33091SOL    HW1 1047  14.284   0.107   4.538
33091SOL    HW2 1048  14.274   0.179   4.406
33092SOL     OW 1049  13.568   2.765   3.282
33092SOL    HW1 1050  13.543   2.796   3.369
33092SOL    HW2 1051  13.516   2.686   3.269
33093SOL     OW 1052  14.547  10.919   3.440
33093SOL    HW1 1053  14.533  10.950   3.350
33093SOL    HW2 1054  14.593  10.836   3.430
33094SOL     OW 1055  10.114   4.749   4.859
33094SOL    HW1 1056  10.200   4.789   4.843
33094SOL    HW2 1057  10.062   4.819   4.899
33095SOL     OW 1058  14.249  11.257   0.963
33095SOL    HW1 1059  14.344  11.267   0.965
33095SOL    HW2 1060  14.228  11.209   1.043
33096SOL     OW 1061  13.397   0.290   7.599
33096SOL    HW1 1062  13.471   0.271   7.656
33096SOL    HW2 1063  13.344   0.211   7.600
33097SOL     OW 1064  14.594   4.676  11.610
33097SOL    HW1 1065  14.508   4.645  11.582
33097SOL    HW2 1066  14.621   4.613  11.677
33098SOL     OW 1067   7.574  10.929   1.867
33098SOL    HW1 1068   7.553  10.854   1.923
33098SOL    HW2 1069   7.496  10.985   1.872
33099SOL     OW 1070   4.133  11.618   2.584
33099SOL    HW1 1071   4.141  11.534   2.539
33099SOL    HW2 1072   4.213  11.665   2.562
33100SOL     OW 1073   2.075   8.569   0.879
33100SOL    HW1 1074   2.086   8.475   0.895
33100SOL    HW2 1075   2.155   8.595   0.834
33101SOL     OW 1076  11.371   7.312  10.148
33101SOL    HW1 1077  11.307   7.254  10.188
33101SOL    HW2 1078  11.450   7.302  10.202
33102SOL     OW 1079   9.600   6.738  10.825
33102SOL    HW1 1080   9.581   6.646  10.843
33102SOL    HW2 1081   9.661   6.736  10.751
33103SOL     OW 1082  13.112   5.986  12.971
33103SOL    HW1 1083  13.189   5.930  12.979
33103SOL    HW2 1084  13.040   5.934  13.008
33104SOL     OW 1085   1.883  12.243  12.082
33104SOL    HW1 1086   1.971  12.249  12.119
33104SOL    HW2 1087   1.894  12.265  11.990
33105SOL     OW 1088   5.979   3.022  12.198
33105SOL    HW1 1089   5.993   3.022  12.104
33105SOL    HW2 1090   5.916   3.093  12.213
33106SOL     OW 1091   4.581  11.000  12.429
33106SOL    HW1 1092   4.573  11.080  12.377
33106SOL    HW2 1093   4.673  10.975  12.421
33107SOL     OW 1094   5.696   3.605   9.443
33107SOL    HW1 1095   5.608   3.624   9.411
33107SOL    HW2 1096   5.693   3.514   9.470
33108SOL     OW 1097   0.106   1.663   3.921
33108SOL    HW1 1098   0.194   1.682   3.889
33108SOL    HW2 1099   0.085   1.737   3.978
33109SOL     OW 1100  13.575   1.160   9.364
33109SOL    HW1 1101  13.483   1.136   9.355
33109SOL    HW2 1102  13.616   1.084   9.405
33110SOL     OW 1103   8.945   1.870   0.145
33110SOL    HW1 1104   8.926   1.960   0.173
33110SOL    HW2 1105   8.912   1.816   0.217
33111SOL     OW 1106   5.265   4.284  13.559
33111SOL    HW1 1107   5.349   4.328  13.570
33111SOL    HW2 1108   5.218   4.339  13.495
33112SOL     OW 1109   4.356   6.500   6.131
33112SOL    HW1 1110   4.411   6.578   6.134
33112SOL    HW2 1111   4.363   6.463   6.220
33113SOL     OW 1112  13.131  13.062   5.670
33113SOL    HW1 1113  13.216  13.073   5.712
33113SOL    HW2 1114  13.113  13.147   5.630
33114SOL     OW 1115  10.130   6.797   5.477
33114SOL    HW1 1116  10.084   6.767   5.556
33114SOL    HW2 1117  10.181   6.721   5.449
33115SOL     OW 1118   0.895   8.236  13.147
33115SOL    HW1 1119   0.890   8.141  13.159
33115SOL    HW2 1120   0.804   8.264  13.140
33116SOL     OW 1121   4.023   1.763  14.293
33116SOL    HW1 1122   4.020   1.799  14.382
33116SOL    HW2 1123   4.115   1.745  14.277
33117SOL     OW 1124   8.591  13.985   4.582
33117SOL    HW1 1125   8.594  14.005   4.675
33117SOL    HW2 1126   8.678  13.950   4.562
33118SOL     OW 1127   8.903  10.061   6.249
33118SOL    HW1 1128   8.870   9.971   6.254
33118SOL    HW2 1129   8.912  10.087   6.341
33119SOL     OW 1130  10.880   4.335   0.874
33119SOL    HW1 1131  10.830   4.254   0.871
33119SOL    HW2 1132  10.966   4.312   0.838
33120SOL     OW 1133   7.992   9.528   9.076
33120SOL    HW1 1134   8.031   9.445   9.049
33120SOL    HW2 1135   8.025   9.542   9.165
33121SOL     OW 1136   6.115   8.846   2.833
33121SOL    HW1 1137   6.166   8.765   2.844
33121SOL    HW2 1138   6.024   8.817   2.839
33122SOL     OW 1139   5.870   8.947  10.131
33122SOL    HW1 1140   5.857   9.039  10.108
33122SOL    HW2 1141   5.797   8.926  10.190
33123SOL     OW 1142  12.386   5.241   9.159
33123SOL    HW1 1143  12.350   5.249   9.247
33123SOL    HW2 1144  12.467   5.190   9.171
33124SOL     OW 1145   4.397   8.225   5.683
33124SOL    HW1 1146   4.378   8.315   5.709
33124SOL    HW2 1147   4.436   8.185   5.760
33125SOL     OW 1148  13.697  13.125  11.262
33125SOL    HW1 1149  13.761  13.151  11.196
33125SOL    HW2 1150  13.643  13.060  11.218
33126SOL     OW 1151   2.901   6.080   3.462
33126SOL    HW1 1152   2.924   5.991   3.487
33126SOL    HW2 1153   2.843   6.111   3.531
33127SOL     OW 1154   7.496   0.295   9.105
33127SOL    HW1 1155   7.408   0.310   9.139
33127SOL    HW2 1156   7.500   0.201   9.089
33128SOL     OW 1157   6.881   5.392   0.460
33128SOL    HW1 1158   6.918   5.356   0.540
33128SOL    HW2 1159   6.864   5.484   0.480
33129SOL     OW 1160   5.208   6.565  13.431
33129SOL    HW1 1161   5.194   6.654  13.398
33129SOL    HW2 1162   5.187   6.509  13.356
33130SOL     OW 1163   1.055   4.999   0.960
33130SOL    HW1 1164   1.043   4.985   1.054
33130SOL    HW2 1165   1.150   4.991   0.947
33131SOL     OW 1166  14.767   9.556  11.216
33131SOL    HW1 1167  14.720   9.477  11.191
33131SOL    HW2 1168  14.767   9.555  11.311
33132SOL     OW 1169  10.651  10.121   1.070
33132SOL    HW1 1170  10.586  10.098   1.136
33132SOL    HW2 1171  10.620  10.204   1.033
33133SOL     OW 1172   6.963   8.615   4.145
33133SOL    HW1 1173   6.943   8.659   4.227
33133SOL    HW2 1174   6.881   8.573   4.120
33134SOL     OW 1175   4.406  11.503   8.318
33134SOL    HW1 1176   4.496  11.489   8.289
33134SOL    HW2 1177   4.397  11.449   8.397
33135SOL     OW 1178   1.206   8.204   5.353
33135SOL    HW1 1179   1.167   8.250   5.428
33135SOL    HW2 1180   1.288   8.252   5.337
33136SOL     OW 1181   7.510  12.793   7.329
33136SOL    HW1 1182   7.505  12.698   7.343
33136SOL    HW2 1183   7.558  12.802   7.247
33137SOL     OW 1184  11.081   7.996   0.498
33137SOL    HW1 1185  11.153   7.944   0.534
33137SOL    HW2 1186  11.120   8.083   0.483
33138SOL     OW 1187   1.455   6.071   1.455
33138SOL    HW1 1188   1.536   6.022   1.449
33138SOL    HW2 1189   1.453   6.125   1.376
33139SOL     OW 1190  13.834  12.883  13.696
33139SOL    HW1 1191  13.913  12.882  13.750
33139SOL    HW2 1192  13.793  12.968  13.716
33140SOL     OW 1193  12.979  12.581   6.721
33140SOL    HW1 1194  12.943  12.661   6.761
33140SOL    HW2 1195  13.008  12.610   6.634
33141SOL     OW 1196   2.048   8.361  11.194
33141SOL    HW1 1197   1.962   8.379  11.232
33141SOL    HW2 1198   2.107   8.359  11.269
33142SOL     OW 1199  12.036   1.364  10.947
33142SOL    HW1 1200  11.993   1.320  11.021
33142SOL    HW2 1201  11.981   1.344  10.872
33143SOL     OW 1202  13.782  12.436   5.332
33143SOL    HW1 1203  13.692  12.419   5.357
33143SOL    HW2 1204  13.834  12.383   5.392
33144SOL     OW 1205   1.137  13.272   4.303
33144SOL    HW1 1206   1.109  13.195   4.254
33144SOL    HW2 1207   1.081  13.343   4.271
33145SOL     OW 1208  14.778  13.981  10.981
33145SOL    HW1 1209  14.811  14.064  10.948
33145SOL    HW2 1210  14.740  14.003  11.067
33146SOL     OW 1211   6.081   4.856  10.235
33146SOL    HW1 1212   6.119   4.931  10.281
33146SOL    HW2 1213   6.115   4.780  10.281
33147SOL     OW 1214   3.118   8.718   2.037
33147SOL    HW1 1215   3.049   8.733   1.972
33147SOL    HW2 1216   3.074   8.729   2.121
33148SOL     OW 1217  12.783   3.711   7.059
33148SOL    HW1 1218  12.823   3.663   6.986
33148SOL    HW2 1219  12.701   3.746   7.022
33149SOL     OW 1220   8.515  11.990  11.167
33149SOL    HW1 1221   8.549  11.991  11.077
33149SOL    HW2 1222   8.512  11.897  11.189
33150SOL     OW 1223   1.496   1.966   7.313
33150SOL    HW1 1224   1.540   1.901   7.368
33150SOL    HW2 1225   1.460   1.916   7.240
33151SOL     OW 1226   3.136   7.990   6.762
33151SOL    HW1 1227   3.043   7.988   6.782
33151SOL    HW2 1228   3.179   7.961   6.843
33152SOL     OW 1229   2.417  14.264  14.765
33152SOL    HW1 1230   2.466  14.201  14.818
33152SOL    HW2 1231   2.410  14.342  14.820
33153SOL     OW 1232  12.830   9.100  10.758
33153SOL    HW1 1233  12.736   9.118  10.769
33153SOL    HW2 1234  12.868   9.120  10.843
33154SOL     OW 1235   6.481  13.357  12.657
33154SOL    HW1 1236   6.545  13.415  12.615
33154SOL    HW2 1237   6.529  13.316  12.729
33155SOL     OW 1238   4.336  10.599  14.596
33155SOL    HW1 1239   4.307  10.509  14.611
33155SOL    HW2 1240   4.387  10.621  14.673
33156SOL     OW 1241  14.400   5.912  11.028
33156SOL    HW1 1242  14.483   5.865  11.026
33156SOL    HW2 1243  14.424   6.004  11.031
33157SOL     OW 1244  10.476   5.656   8.264
33157SOL    HW1 1245  10.568   5.676   8.277
33157SOL    HW2 1246  10.474   5.563   8.241
33158SOL     OW 1247   8.079  14.701  11.237
33158SOL    HW1 1248   8.021  14.625  11.246
33158SOL    HW2 1249   8.020  14.775  11.222
33159SOL     OW 1250  10.399   2.134  10.379
33159SOL    HW1 1251  10.326   2.134  10.316
33159SOL    HW2 1252  10.374   2.069  10.444
33160SOL     OW 1253   3.293   9.815   0.493
33160SOL    HW1 1254   3.370   9.760   0.510
33160SOL    HW2 1255   3.261   9.785   0.408
33161SOL     OW 1256   0.467   2.393   6.127
33161SOL    HW1 1257   0.388   2.339   6.134
33161SOL    HW2 1258   0.461   2.433   6.040
33162SOL     OW 1259   5.351  12.157   4.844
33162SOL    HW1 1260   5.417  12.200   4.898
33162SOL    HW2 1261   5.289  12.120   4.907
33163SOL     OW 1262  14.656   9.250   7.303
33163SOL    HW1 1263  14.596   9.177   7.289
33163SOL    HW2 1264  14.735   9.210   7.339
33164SOL     OW 1265   3.552   8.895   7.040
33164SOL    HW1 1266   3.509   8.834   6.981
33164SOL    HW2 1267   3.485   8.961   7.060
33165SOL     OW 1268   8.775  14.249  13.793
33165SOL    HW1 1269   8.766  14.343  13.782
33165SOL    HW2 1270   8.770  14.213  13.704
33166SOL     OW 1271   1.359   7.957   3.007
33166SOL    HW1 1272   1.424   7.979   3.074
33166SOL    HW2 1273   1.405   7.970   2.924
33167SOL     OW 1274   7.953  14.140   4.558
33167SOL    HW1 1275   7.900  14.067   4.588
33167SOL    HW2 1276   7.929  14.150   4.465
33168SOL     OW 1277   6.778   1.257  11.414
33168SOL    HW1 1278   6.789   1.207  11.495
33168SOL    HW2 1279   6.849   1.321  11.416
33169SOL     OW 1280   5.421   1.632   1.346
33169SOL    HW1 1281   5.366   1.554   1.349
33169SOL    HW2 1282   5.455   1.640   1.435
33170SOL     OW 1283   8.622   3.090   6.316
33170SOL    HW1 1284   8.714   3.097   6.291
33170SOL    HW2 1285   8.607   3.165   6.374
33171SOL     OW 1286   3.037   3.950  12.591
33171SOL    HW1 1287   3.029   4.045  12.601
33171SOL    HW2 1288   2.951   3.916  12.614
33172SOL     OW 1289   4.729   2.291   4.218
33172SOL    HW1 1290   4.708   2.199   4.235
33172SOL    HW2 1291   4.809   2.307   4.268
33173SOL     OW 1292   7.485  11.780   0.325
33173SOL    HW1 1293   7.544  11.712   0.292
33173SOL    HW2 1294   7.437  11.737   0.396
33174SOL     OW 1295  12.382   4.042   1.389
33174SOL    HW1 1296  12.417   4.124   1.425
33174SOL    HW2 1297  12.444   4.018   1.320
33175SOL     OW 1298  13.209   9.793   6.845
33175SOL    HW1 1299  13.222   9.869   6.788
33175SOL    HW2 1300  13.171   9.829   6.925
33176SOL     OW 1301   7.951  11.605   4.799
33176SOL    HW1 1302   8.018  11.537   4.812
33176SOL    HW2 1303   7.980  11.677   4.854
33177SOL     OW 1304   0.367  10.092  14.479
33177SOL    HW1 1305   0.382  10.063  14.389
33177SOL    HW2 1306   0.314  10.023  14.518
33178SOL     OW 1307   4.567  10.998   9.919
33178SOL    HW1 1308   4.622  10.941   9.865
33178SOL    HW2 1309   4.557  10.950  10.001
33179SOL     OW 1310   2.573   5.612   1.036
33179SOL    HW1 1311   2.647   5.572   0.991
33179SOL    HW2 1312   2.543   5.545   1.097
33180SOL     OW 1313   8.757   2.912  13.147
33180SOL    HW1 1314   8.789   2.856  13.077
33180SOL    HW2 1315   8.671   2.942  13.116
33181SOL     OW 1316   8.509   9.861   2.396
33181SOL    HW1 1317   8.595   9.826   2.419
33181SOL    HW2 1318   8.455   9.846   2.474
33182SOL     OW 1319   5.131  10.430  12.540
33182SOL    HW1 1320   5.199  10.371  12.574
33182SOL    HW2 1321   5.148  10.513  12.583
33183SOL     OW 1322   2.881   5.359   9.448
33183SOL    HW1 1323   2.898   5.335   9.540
33183SOL    HW2 1324   2.944   5.307   9.398
33184SOL     OW 1325   3.605   9.511   7.945
33184SOL    HW1 1326   3.651   9.489   8.026
33184SOL    HW2 1327   3.518   9.539   7.974
33185SOL     OW 1328   4.457   0.758   0.136
33185SOL    HW1 1329   4.381   0.795   0.180
33185SOL    HW2 1330   4.532   0.798   0.181
33186SOL     OW 1331  10.723   0.564  11.339
33186SOL    HW1 1332  10.634   0.561  11.306
33186SOL    HW2 1333  10.770   0.498  11.287
33187SOL     OW 1334   0.781   2.993   2.027
33187SOL    HW1 1335   0.817   2.994   2.115
33187SOL    HW2 1336   0.693   3.030   2.036
33188SOL     OW 1337  14.697   3.347  10.688
33188SOL    HW1 1338  14.786   3.332  10.656
33188SOL    HW2 1339  14.683   3.441  10.680
33189SOL     OW 1340   3.065   8.557   4.316
33189SOL    HW1 1341   3.066   8.515   4.402
33189SOL    HW2 1342   2.972   8.572   4.297
33190SOL     OW 1343  14.186   0.791   9.137
33190SOL    HW1 1344  14.265   0.738   9.123
33190SOL    HW2 1345  14.120   0.729   9.169
33191SOL     OW 1346   7.437   5.224   2.030
33191SOL    HW1 1347   7.344   5.228   2.007
33191SOL    HW2 1348   7.483   5.232   1.947
33192SOL     OW 1349   0.765   7.431  11.082
33192SOL    HW1 1350   0.741   7.394  10.997
33192SOL    HW2 1351   0.804   7.516  11.061
33193SOL     OW 1352   9.703   2.719  14.405
33193SOL    HW1 1353   9.667   2.632  14.417
33193SOL    HW2 1354   9.796   2.710  14.428
33194SOL     OW 1355   2.760   4.460  13.086
33194SOL    HW1 1356   2.825   4.530  13.079
33194SOL    HW2 1357   2.746   4.450  13.180
33195SOL     OW 1358   7.191   7.740   6.926
33195SOL    HW1 1359   7.152   7.752   6.840
33195SOL    HW2 1360   7.286   7.739   6.910
33196SOL     OW 1361   4.347  13.277   9.557
33196SOL    HW1 1362   4.372  13.197   9.512
33196SOL    HW2 1363   4.332  13.250   9.648
33197SOL     OW 1364   6.365   6.045   9.674
33197SOL    HW1 1365   6.446   6.015   9.633
33197SOL    HW2 1366   6.358   5.992   9.754
33198SOL     OW 1367  14.821   8.243  12.606
33198SOL    HW1 1368  14.795   8.242  12.514
33198SOL    HW2 1369  14.742   8.271  12.652
33199SOL     OW 1370   1.639   2.453  11.944
33199SOL    HW1 1371   1.652   2.358  11.952
33199SOL    HW2 1372   1.609   2.465  11.854
33200SOL     OW 1373   1.799  13.015  13.256
33200SOL    HW1 1374   1.717  12.995  13.209
33200SOL    HW2 1375   1.781  12.988  13.346
33201SOL     OW 1376   2.006   9.346   1.131
33201SOL    HW1 1377   1.934   9.397   1.168
33201SOL    HW2 1378   2.030   9.393   1.051
33202SOL     OW 1379   3.787   0.649   1.220
33202SOL    HW1 1380   3.739   0.670   1.140
33202SOL    HW2 1381   3.771   0.556   1.234
33203SOL     OW 1382   1.301  10.316   4.244
33203SOL    HW1 1383   1.242  10.367   4.301
33203SOL    HW2 1384   1.349  10.259   4.304
33204SOL     OW 1385  12.142  11.638   6.368
33204SOL    HW1 1386  12.183  11.555   6.343
33204SOL    HW2 1387  12.056  11.613   6.403
33205SOL     OW 1388   7.499  10.719   3.209
33205SOL    HW1 1389   7.516  10.753   3.297
33205SOL    HW2 1390   7.560  10.646   3.198
33206SOL     OW 1391   3.033   0.250   3.576
33206SOL    HW1 1392   2.957   0.199   3.549
33206SOL    HW2 1393   3.057   0.214   3.661
33207SOL     OW 1394   8.695   5.874   9.591
33207SOL    HW1 1395   8.708   5.786   9.555
33207SOL    HW2 1396   8.600   5.881   9.602
33208SOL     OW 1397  12.200   1.363   4.006
33208SOL    HW1 1398  12.251   1.435   3.969
33208SOL    HW2 1399  12.200   1.380   4.100
33209SOL     OW 1400  13.303  12.075  13.272
33209SOL    HW1 1401  13.382  12.021  13.277
33209SOL    HW2 1402  13.234  12.014  13.245
33210SOL     OW 1403  14.436  13.532  14.242
33210SOL    HW1 1404  14.410  13.494  14.158
33210SOL    HW2 1405  14.357  13.529  14.295
33211SOL     OW 1406   2.296   5.611   7.275
33211SOL    HW1 1407   2.238   5.542   7.243
33211SOL    HW2 1408   2.266   5.691   7.232
33212SOL     OW 1409   3.053   5.533   1.398
33212SOL    HW1 1410   2.995   5.504   1.469
33212SOL    HW2 1411   3.019   5.618   1.372
33213SOL     OW 1412   3.241   3.507   7.088
33213SOL    HW1 1413   3.205   3.495   7.000
33213SOL    HW2 1414   3.336   3.500   7.077
33214SOL     OW 1415   6.965   2.480   2.483
33214SOL    HW1 1416   6.968   2.515   2.394
33214SOL    HW2 1417   6.960   2.385   2.471
33215SOL     OW 1418   8.584   8.735   9.317
33215SOL    HW1 1419   8.527   8.726   9.241
33215SOL    HW2 1420   8.550   8.811   9.364
33216SOL     OW 1421   6.595  12.129   7.587
33216SOL    HW1 1422   6.579  12.220   7.562
33216SOL    HW2 1423   6.584  12.080   7.505
33217SOL     OW 1424  13.379   3.609   1.858
33217SOL    HW1 1425  13.373   3.696   1.820
33217SOL    HW2 1426  13.425   3.622   1.941
33218SOL     OW 1427  11.526   4.875  10.151
33218SOL    HW1 1428  11.544   4.871  10.057
33218SOL    HW2 1429  11.510   4.968  10.168
33219SOL     OW 1430  11.857   2.116   1.620
33219SOL    HW1 1431  11.763   2.133   1.612
33219SOL    HW2 1432  11.866   2.063   1.699
33220SOL     OW 1433   1.259  14.814  12.462
33220SOL    HW1 1434   1.343  14.852  12.438
33220SOL    HW2 1435   1.209   0.010  12.498
33221SOL     OW 1436   7.373   5.579  10.915
33221SOL    HW1 1437   7.385   5.523  10.991
33221SOL    HW2 1438   7.324   5.655  10.949
33222SOL     OW 1439   8.369   4.099   2.219
33222SOL    HW1 1440   8.422   4.170   2.254
33222SOL    HW2 1441   8.412   4.075   2.136
33223SOL     OW 1442   3.884  14.647   2.658
33223SOL    HW1 1443   3.942  14.574   2.636
33223SOL    HW2 1444   3.802  14.605   2.683
33224SOL     OW 1445   9.594   2.203   1.147
33224SOL    HW1 1446   9.673   2.257   1.143
33224SOL    HW2 1447   9.626   2.114   1.130
33225SOL     OW 1448  12.947  13.867  11.318
33225SOL    HW1 1449  12.873  13.826  11.364
33225SOL    HW2 1450  12.908  13.939  11.269
33226SOL     OW 1451   7.205  12.407   6.330
33226SOL    HW1 1452   7.150  12.344   6.283
33226SOL    HW2 1453   7.295  12.377   6.317
33227SOL     OW 1454   8.785  10.777   8.844
33227SOL    HW1 1455   8.695  10.772   8.876
33227SOL    HW2 1456   8.777  10.801   8.752
33228SOL     OW 1457   2.629  13.098   2.212
33228SOL    HW1 1458   2.658  13.017   2.252
33228SOL    HW2 1459   2.642  13.164   2.280
33229SOL     OW 1460   5.673   5.791   4.354
33229SOL    HW1 1461   5.638   5.732   4.420
33229SOL    HW2 1462   5.743   5.839   4.398
33230SOL     OW 1463   2.591   3.408  10.105
33230SOL    HW1 1464   2.576   3.439  10.016
33230SOL    HW2 1465   2.676   3.364  10.102
33231SOL     OW 1466   5.782   1.102   2.002
33231SOL    HW1 1467   5.836   1.023   1.999
33231SOL    HW2 1468   5.811   1.148   2.080
33232SOL     OW 1469   8.781   8.649   3.052
33232SOL    HW1 1470   8.686   8.644   3.062
33232SOL    HW2 1471   8.815   8.594   3.123
33233SOL     OW 1472   2.572  12.004  12.318
33233SOL    HW1 1473   2.578  11.908  12.318
33233SOL    HW2 1474   2.559  12.026  12.225
33234SOL     OW 1475   2.214  10.673  13.848
33234SOL    HW1 1476   2.298  10.652  13.807
33234SOL    HW2 1477   2.148  10.640  13.788
33235SOL     OW 1478  14.512   7.163   2.841
33235SOL    HW1 1479  14.417   7.164   2.853
33235SOL    HW2 1480  14.524   7.137   2.749
33236SOL     OW 1481   0.503   0.194   3.324
33236SOL    HW1 1482   0.583   0.142   3.312
33236SOL    HW2 1483   0.499   0.249   3.246
33237SOL     OW 1484   6.272  10.345   5.029
33237SOL    HW1 1485   6.228  10.288   5.093
33237SOL    HW2 1486   6.222  10.334   4.949
33238SOL     OW 1487   0.173   6.249  10.681
33238SOL    HW1 1488   0.250   6.305  10.677
33238SOL    HW2 1489   0.130   6.260  10.596
33239SOL     OW 1490  10.392  10.078   0.251
33239SOL    HW1 1491  10.432  10.058   0.336
33239SOL    HW2 1492  10.355   9.995   0.222
33240SOL     OW 1493   8.083  13.345   6.837
33240SOL    HW1 1494   8.084  13.430   6.881
33240SOL    HW2 1495   8.173  13.312   6.847
33241SOL     OW 1496   7.454  10.556   1.897
33241SOL    HW1 1497   7.485  10.633   1.944
33241SOL    HW2 1498   7.420  10.499   1.966
33242SOL     OW 1499  11.353   4.294  13.216
33242SOL    HW1 1500  11.441   4.331  13.214
33242SOL    HW2 1501  11.367   4.200  13.227
33243SOL     OW 1502  12.359   2.181   3.897
33243SOL    HW1 1503  12.387   2.133   3.819
33243SOL    HW2 1504  12.305   2.252   3.863
33244SOL     OW 1505   1.816  11.479   3.964
33244SOL    HW1 1506   1.775  11.494   4.049
33244SOL    HW2 1507   1.822  11.384   3.957
33245SOL     OW 1508   1.157  11.710   1.390
33245SOL    HW1 1509   1.181  11.799   1.417
33245SOL    HW2 1510   1.077  11.721   1.339
33246SOL     OW 1511   9.636   3.653   1.467
33246SOL    HW1 1512   9.632   3.636   1.372
33246SOL    HW2 1513   9.654   3.747   1.473
33247SOL     OW 1514   5.802  11.651   1.896
33247SOL    HW1 1515   5.884  11.615   1.928
33247SOL    HW2 1516   5.803  11.742   1.926
33248SOL     OW 1517  14.170  13.512   6.295
33248SOL    HW1 1518  14.194  13.441   6.235
33248SOL    HW2 1519  14.236  13.507   6.365
33249SOL     OW 1520   3.802   8.596   5.648
33249SOL    HW1 1521   3.782   8.516   5.698
33249SOL    HW2 1522   3.835   8.657   5.713
33250SOL     OW 1523  13.460   8.805   0.079
33250SOL    HW1 1524  13.454   8.849  14.872
33250SOL    HW2 1525  13.550   8.817   0.107
33251SOL     OW 1526   9.575   6.894  11.489
33251SOL    HW1 1527   9.660   6.879  11.447
33251SOL    HW2 1528   9.528   6.952  11.429
33252SOL     OW 1529   7.244   3.342   7.135
33252SOL    HW1 1530   7.290   3.263   7.106
33252SOL    HW2 1531   7.172   3.352   7.072
33253SOL     OW 1532   5.759  10.717   4.060
33253SOL    HW1 1533   5.746  10.808   4.087
33253SOL    HW2 1534   5.670  10.684   4.045
33254SOL     OW 1535   4.508  12.590  14.863
33254SOL    HW1 1536   4.526  12.495  14.862
33254SOL    HW2 1537   4.443  12.601   0.054
33255SOL     OW 1538  13.662   2.711   6.869
33255SOL    HW1 1539  13.602   2.785   6.871
33255SOL    HW2 1540  13.723   2.731   6.798
33256SOL     OW 1541   0.298  11.101   9.862
33256SOL    HW1 1542   0.372  11.160   9.875
33256SOL    HW2 1543   0.339  11.019   9.832
33257SOL     OW 1544  14.199   5.165   8.728
33257SOL    HW1 1545  14.169   5.081   8.693
33257SOL    HW2 1546  14.286   5.147   8.763
33258SOL     OW 1547   7.567  12.292  12.734
33258SOL    HW1 1548   7.662  12.280  12.727
33258SOL    HW2 1549   7.533  12.262  12.650
33259SOL     OW 1550   1.240  13.014   0.224
33259SOL    HW1 1551   1.248  13.103   0.189
33259SOL    HW2 1552   1.219  12.960   0.147
33260SOL     OW 1553  11.702   1.438   2.837
33260SOL    HW1 1554  11.682   1.345   2.848
33260SOL    HW2 1555  11.706   1.450   2.742
33261SOL     OW 1556  13.246   9.884   9.710
33261SOL    HW1 1557  13.271   9.927   9.628
33261SOL    HW2 1558  13.325   9.839   9.739
33262SOL     OW 1559   4.168   9.974  10.534
33262SOL    HW1 1560   4.123  10.004  10.613
33262SOL    HW2 1561   4.215  10.052  10.503
33263SOL     OW 1562   8.106   0.803   6.513
33263SOL    HW1 1563   8.108   0.894   6.543
33263SOL    HW2 1564   8.077   0.807   6.423
33264SOL     OW 1565  12.140   3.397   3.758
33264SOL    HW1 1566  12.209   3.461   3.774
33264SOL    HW2 1567  12.073   3.445   3.710
33265SOL     OW 1568   0.632   9.710   5.768
33265SOL    HW1 1569   0.608   9.802   5.774
33265SOL    HW2 1570   0.714   9.709   5.720
33266SOL     OW 1571   5.521   0.932  12.940
33266SOL    HW1 1572   5.461   0.955  12.870
33266SOL    HW2 1573   5.504   0.997  13.008
33267SOL     OW 1574  10.084   2.510   8.918
33267SOL    HW1 1575  10.028   2.557   8.979
33267SOL    HW2 1576  10.033   2.434   8.891
33268SOL     OW 1577  14.811   5.635   4.200
33268SOL    HW1 1578  14.804   5.599   4.112
33268SOL    HW2 1579  14.726   5.675   4.217
33269SOL     OW 1580   5.939  14.586   0.156
33269SOL    HW1 1581   5.935  14.589   0.060
33269SOL    HW2 1582   5.857  14.543   0.181
33270SOL     OW 1583   7.776  13.166   7.900
33270SOL    HW1 1584   7.686  13.156   7.868
33270SOL    HW2 1585   7.780  13.256   7.934
33271SOL     OW 1586  14.862   2.555   0.089
33271SOL    HW1 1587  14.801   2.482   0.084
33271SOL    HW2 1588   0.038   2.549   0.010
33272SOL     OW 1589  14.360  14.490   1.506
33272SOL    HW1 1590  14.274  14.530   1.517
33272SOL    HW2 1591  14.344  14.417   1.447
33273SOL     OW 1592   8.299  12.808  10.962
33273SOL    HW1 1593   8.221  12.826  10.910
33273SOL    HW2 1594   8.313  12.887  11.013
33274SOL     OW 1595  10.264   7.321   7.807
33274SOL    HW1 1596  10.327   7.301   7.876
33274SOL    HW2 1597  10.273   7.415   7.793
33275SOL     OW 1598   9.720   5.285   3.460
33275SOL    HW1 1599   9.700   5.291   3.367
33275SOL    HW2 1600   9.716   5.192   3.479
33276SOL     OW 1601   8.229   8.594   5.461
33276SOL    HW1 1602   8.159   8.605   5.396
33276SOL    HW2 1603   8.269   8.510   5.439
33277SOL     OW 1604   8.177  14.042  14.449
33277SOL    HW1 1605   8.268  14.056  14.426
33277SOL    HW2 1606   8.128  14.076  14.374
33278SOL     OW 1607   2.195   0.076   8.034
33278SOL    HW1 1608   2.229  14.877   8.081
33278SOL    HW2 1609   2.231   0.151   8.082
33279SOL     OW 1610  12.608   2.604   9.677
33279SOL    HW1 1611  12.680   2.665   9.692
33279SOL    HW2 1612  12.550   2.615   9.753
33280SOL     OW 1613   9.339   7.385  12.298
33280SOL    HW1 1614   9.248   7.411  12.283
33280SOL    HW2 1615   9.376   7.372  12.211
33281SOL     OW 1616   0.162   4.263   3.474
33281SOL    HW1 1617   0.088   4.288   3.418
33281SOL    HW2 1618   0.239   4.274   3.419
33282SOL     OW 1619   2.667   2.010  11.146
33282SOL    HW1 1620   2.704   2.013  11.057
33282SOL    HW2 1621   2.740   2.037  11.203
33283SOL     OW 1622   9.542  13.832   9.862
33283SOL    HW1 1623   9.588  13.759   9.903
33283SOL    HW2 1624   9.602  13.906   9.869
33284SOL     OW 1625   3.564   9.199   6.779
33284SOL    HW1 1626   3.612   9.246   6.847
33284SOL    HW2 1627   3.569   9.255   6.702
33285SOL     OW 1628  12.291   3.805   8.271
33285SOL    HW1 1629  12.290   3.716   8.305
33285SOL    HW2 1630  12.203   3.817   8.234
33286SOL     OW 1631   4.017  13.857  11.987
33286SOL    HW1 1632   3.929  13.870  11.951
33286SOL    HW2 1633   4.048  13.946  12.005
33287SOL     OW 1634  10.732   4.085   4.371
33287SOL    HW1 1635  10.751   4.031   4.448
33287SOL    HW2 1636  10.718   4.173   4.406
33288SOL     OW 1637   2.391   7.926  10.370
33288SOL    HW1 1638   2.312   7.895  10.414
33288SOL    HW2 1639   2.368   7.931  10.277
33289SOL     OW 1640   6.348   1.727  11.989
33289SOL    HW1 1641   6.350   1.758  12.080
33289SOL    HW2 1642   6.312   1.800  11.940
33290SOL     OW 1643  12.185   6.996   7.349
33290SOL    HW1 1644  12.181   7.018   7.256
33290SOL    HW2 1645  12.099   7.022   7.384
33291SOL     OW 1646   3.897   0.904  10.845
33291SOL    HW1 1647   3.872   0.813  10.831
33291SOL    HW2 1648   3.972   0.900  10.904
33292SOL     OW 1649  12.656  12.547  12.129
33292SOL    HW1 1650  12.620  12.536  12.217
33292SOL    HW2 1651  12.746  12.515  12.134
33293SOL     OW 1652  13.055   5.818   3.026
33293SOL    HW1 1653  13.045   5.773   2.942
33293SOL    HW2 1654  12.969   5.857   3.043
33294SOL     OW 1655  14.618  12.557   1.533
33294SOL    HW1 1656  14.525  12.537   1.521
33294SOL    HW2 1657  14.627  12.648   1.506
33295SOL     OW 1658  11.619   5.260   0.358
33295SOL    HW1 1659  11.634   5.242   0.265
33295SOL    HW2 1660  11.670   5.193   0.404
33296SOL     OW 1661  11.617   0.078   9.167
33296SOL    HW1 1662  11.661   0.153   9.128
33296SOL    HW2 1663  11.624   0.092   9.261
33297SOL     OW 1664  11.433   6.567  14.829
33297SOL    HW1 1665  11.350   6.601  14.862
33297SOL    HW2 1666  11.496   6.586   0.021
33298SOL     OW 1667   8.454   8.524   5.860
33298SOL    HW1 1668   8.548   8.521   5.845
33298SOL    HW2 1669   8.440   8.473   5.940
33299SOL     OW 1670   9.970  13.603   6.128
33299SOL    HW1 1671   9.941  13.520   6.167
33299SOL    HW2 1672  10.065  13.599   6.130
33300SOL     OW 1673  10.887  10.345   6.953
33300SOL    HW1 1674  10.935  10.279   6.902
33300SOL    HW2 1675  10.808  10.361   6.901
33301SOL     OW 1676   9.198   6.299   4.212
33301SOL    HW1 1677   9.126   6.268   4.156
33301SOL    HW2 1678   9.223   6.221   4.262
33302SOL     OW 1679   4.906   1.274  14.304
33302SOL    HW1 1680   4.954   1.227  14.236
33302SOL    HW2 1681   4.849   1.334  14.256
33303SOL     OW 1682  11.359   3.430   4.769
33303SOL    HW1 1683  11.276   3.460   4.734
33303SOL    HW2 1684  11.340   3.343   4.806
33304SOL     OW 1685   9.058  14.198  12.250
33304SOL    HW1 1686   8.993  14.215  12.319
33304SOL    HW2 1687   9.084  14.107  12.262
33305SOL     OW 1688   2.616   5.532   4.794
33305SOL    HW1 1689   2.708   5.551   4.813
33305SOL    HW2 1690   2.592   5.593   4.724
33306SOL     OW 1691   9.813  13.556   9.259
33306SOL    HW1 1692   9.798  13.463   9.278
33306SOL    HW2 1693   9.821  13.597   9.345
33307SOL     OW 1694   8.922  13.010   8.118
33307SOL    HW1 1695   8.998  13.066   8.100
33307SOL    HW2 1696   8.887  12.989   8.032
33308SOL     OW 1697   3.384   8.542  11.881
33308SOL    HW1 1698   3.436   8.483  11.935
33308SOL    HW2 1699   3.434   8.552  11.801
33309SOL     OW 1700   7.952   3.964  11.742
33309SOL    HW1 1701   7.932   3.880  11.782
33309SOL    HW2 1702   7.869   4.013  11.746
33310SOL     OW 1703   4.686  14.664   3.744
33310SOL    HW1 1704   4.772  14.695   3.715
33310SOL    HW2 1705   4.698  14.570   3.760
33311SOL     OW 1706   3.256   6.638   2.938
33311SOL    HW1 1707   3.228   6.721   2.976
33311SOL    HW2 1708   3.201   6.627   2.861
33312SOL     OW 1709   6.353   2.734   3.261
33312SOL    HW1 1710   6.335   2.766   3.349
33312SOL    HW2 1711   6.440   2.695   3.266
33313SOL     OW 1712   5.375   0.227   7.008
33313SOL    HW1 1713   5.436   0.247   6.937
33313SOL    HW2 1714   5.371   0.132   7.011
33314SOL     OW 1715   5.706  11.814   3.244
33314SOL    HW1 1716   5.783  11.769   3.209
33314SOL    HW2 1717   5.742  11.887   3.294
33315SOL     OW 1718  11.488  11.052   4.731
33315SOL    HW1 1719  11.560  10.991   4.744
33315SOL    HW2 1720  11.520  11.135   4.766
33316SOL     OW 1721   9.554   4.237   6.775
33316SOL    HW1 1722   9.491   4.167   6.762
33316SOL    HW2 1723   9.606   4.238   6.694
33317SOL     OW 1724   4.602   1.382   3.065
33317SOL    HW1 1725   4.601   1.466   3.111
33317SOL    HW2 1726   4.694   1.368   3.043
33318SOL     OW 1727   9.368  14.127   2.737
33318SOL    HW1 1728   9.443  14.184   2.720
33318SOL    HW2 1729   9.293  14.187   2.743
33319SOL     OW 1730  14.166   4.366  10.919
33319SOL    HW1 1731  14.174   4.441  10.860
33319SOL    HW2 1732  14.072   4.350  10.925
33320SOL     OW 1733  14.395   2.427   3.569
33320SOL    HW1 1734  14.346   2.509   3.580
33320SOL    HW2 1735  14.484   2.455   3.546
33321SOL     OW 1736   3.340   8.759  11.550
33321SOL    HW1 1737   3.373   8.849  11.548
33321SOL    HW2 1738   3.255   8.766  11.594
33322SOL     OW 1739  13.107   2.979   8.301
33322SOL    HW1 1740  13.177   2.942   8.248
33322SOL    HW2 1741  13.144   3.060   8.336
33323SOL     OW 1742   5.391   5.190   0.109
33323SOL    HW1 1743   5.432   5.110   0.142
33323SOL    HW2 1744   5.335   5.161   0.038
33324SOL     OW 1745   4.811  11.993   8.217
33324SOL    HW1 1746   4.906  11.994   8.220
33324SOL    HW2 1747   4.788  11.902   8.198
33325SOL     OW 1748  12.458   3.225   8.695
33325SOL    HW1 1749  12.384   3.259   8.647
33325SOL    HW2 1750  12.486   3.297   8.752
33326SOL     OW 1751   7.842   1.233   3.168
33326SOL    HW1 1752   7.752   1.237   3.134
33326SOL    HW2 1753   7.896   1.261   3.094
33327SOL     OW 1754  14.127   9.274   0.977
33327SOL    HW1 1755  14.156   9.260   0.887
33327SOL    HW2 1756  14.155   9.195   1.024
33328SOL     OW 1757   4.886   1.921  11.584
33328SOL    HW1 1758   4.851   1.967  11.508
33328SOL    HW2 1759   4.821   1.936  11.653
33329SOL     OW 1760  13.516   7.867   8.399
33329SOL    HW1 1761  13.503   7.887   8.491
33329SOL    HW2 1762  13.540   7.950   8.358
33330SOL     OW 1763   2.548   0.950  10.481
33330SOL    HW1 1764   2.497   0.896  10.420
33330SOL    HW2 1765   2.499   1.032  10.487
33331SOL     OW 1766   7.245   8.712   5.096
33331SOL    HW1 1767   7.182   8.644   5.120
33331SOL    HW2 1768   7.300   8.722   5.173
33332SOL     OW 1769  14.338  11.974   8.122
33332SOL    HW1 1770  14.374  11.974   8.210
33332SOL    HW2 1771  14.347  12.065   8.092
33333SOL     OW 1772  11.069   2.995  14.085
33333SOL    HW1 1773  11.088   2.908  14.052
33333SOL    HW2 1774  10.973   3.000  14.087
33334SOL     OW 1775  13.246   1.686  10.253
33334SOL    HW1 1776  13.220   1.710  10.164
33334SOL    HW2 1777  13.264   1.592  10.249
33335SOL     OW 1778   8.444   1.989  12.694
33335SOL    HW1 1779   8.532   1.967  12.663
33335SOL    HW2 1780   8.396   1.906  12.692
33336SOL     OW 1781   1.120  12.979  12.952
33336SOL    HW1 1782   1.099  12.885  12.956
33336SOL    HW2 1783   1.160  12.998  13.037
33337SOL     OW 1784   8.213  13.259  14.579
33337SOL    HW1 1785   8.261  13.266  14.661
33337SOL    HW2 1786   8.136  13.314  14.592
33338SOL     OW 1787   4.871   2.391   0.152
33338SOL    HW1 1788   4.798   2.394   0.213
33338SOL    HW2 1789   4.912   2.306   0.168
33339SOL     OW 1790  12.514  13.908   4.426
33339SOL    HW1 1791  12.569  13.983   4.449
33339SOL    HW2 1792  12.547  13.837   4.481
33340SOL     OW 1793  14.285   0.868   4.262
33340SOL    HW1 1794  14.301   0.860   4.356
33340SOL    HW2 1795  14.193   0.842   4.252
33341SOL     OW 1796   5.118   1.469  14.427
33341SOL    HW1 1797   5.175   1.392  14.433
33341SOL    HW2 1798   5.062   1.451  14.352
33342SOL     OW 1799  12.016   1.947   6.517
33342SOL    HW1 1800  12.022   1.984   6.605
33342SOL    HW2 1801  12.001   2.022   6.460
33343SOL     OW 1802   3.234   4.490  12.912
33343SOL    HW1 1803   3.219   4.585  12.910
33343SOL    HW2 1804   3.208   4.460  12.825
33344SOL     OW 1805   2.809   0.902  13.391
33344SOL    HW1 1806   2.873   0.841  13.426
33344SOL    HW2 1807   2.807   0.883  13.297
33345SOL     OW 1808  11.535   9.441  12.041
33345SOL    HW1 1809  11.625   9.410  12.049
33345SOL    HW2 1810  11.484   9.363  12.019
33346SOL     OW 1811   1.574  12.382   9.813
33346SOL    HW1 1812   1.549  12.467   9.775
33346SOL    HW2 1813   1.517  12.319   9.770
33347SOL     OW 1814   1.099   8.343   9.887
33347SOL    HW1 1815   1.177   8.399   9.886
33347SOL    HW2 1816   1.108   8.288   9.810
33348SOL     OW 1817   3.300   9.828  13.954
33348SOL    HW1 1818   3.362   9.873  13.897
33348SOL    HW2 1819   3.307   9.873  14.038
33349SOL     OW 1820   6.494   7.662   7.347
33349SOL    HW1 1821   6.421   7.721   7.328
33349SOL    HW2 1822   6.565   7.694   7.291
33350SOL     OW 1823   7.438   8.627  11.306
33350SOL    HW1 1824   7.390   8.565  11.251
33350SOL    HW2 1825   7.484   8.571  11.369
33351SOL     OW 1826  11.342   6.321   0.200
33351SOL    HW1 1827  11.289   6.361   0.270
33351SOL    HW2 1828  11.300   6.349   0.119
33352SOL     OW 1829  11.797   9.907  13.741
33352SOL    HW1 1830  11.844   9.948  13.814
33352SOL    HW2 1831  11.755   9.980  13.695
33353SOL     OW 1832   9.258  12.235   0.999
33353SOL    HW1 1833   9.216  12.205   0.919
33353SOL    HW2 1834   9.351  12.216   0.986
33354SOL     OW 1835  14.603  10.893   9.200
33354SOL    HW1 1836  14.558  10.976   9.216
33354SOL    HW2 1837  14.621  10.859   9.288
33355SOL     OW 1838   7.645  14.331   3.896
33355SOL    HW1 1839   7.738  14.355   3.900
33355SOL    HW2 1840   7.623  14.336   3.803
33356SOL     OW 1841   8.593  11.253   0.199
33356SOL    HW1 1842   8.551  11.216   0.122
33356SOL    HW2 1843   8.554  11.206   0.273
33357SOL     OW 1844  13.405  11.104   4.610
33357SOL    HW1 1845  13.427  11.169   4.677
33357SOL    HW2 1846  13.479  11.104   4.550
33358SOL     OW 1847   1.668   5.462   5.130
33358SOL    HW1 1848   1.602   5.531   5.122
33358SOL    HW2 1849   1.749   5.509   5.147
33359SOL     OW 1850   0.817  11.210   8.576
33359SOL    HW1 1851   0.880  11.283   8.575
33359SOL    HW2 1852   0.744  11.242   8.629
33360SOL     OW 1853  10.264   0.715   6.921
33360SOL    HW1 1854  10.320   0.785   6.954
33360SOL    HW2 1855  10.229   0.748   6.839
33361SOL     OW 1856   9.756   4.820   2.959
33361SOL    HW1 1857   9.758   4.894   3.020
33361SOL    HW2 1858   9.696   4.848   2.889
33362SOL     OW 1859  14.338   3.097  11.463
33362SOL    HW1 1860  14.326   3.005  11.442
33362SOL    HW2 1861  14.301   3.144  11.388
33363SOL     OW 1862   3.727   6.152  12.246
33363SOL    HW1 1863   3.714   6.170  12.339
33363SOL    HW2 1864   3.678   6.221  12.201
33364SOL     OW 1865   2.952   3.320   5.684
33364SOL    HW1 1866   2.961   3.385   5.614
33364SOL    HW2 1867   2.995   3.361   5.760
33365SOL     OW 1868   8.527   8.837   8.454
33365SOL    HW1 1869   8.507   8.789   8.373
33365SOL    HW2 1870   8.507   8.928   8.434
33366SOL     OW 1871   2.074   8.474   0.038
33366SOL    HW1 1872   2.123   8.426   0.105
33366SOL    HW2 1873   2.141   8.511  14.858
33367SOL     OW 1874   9.595   5.938   3.357
33367SOL    HW1 1875   9.627   5.947   3.447
33367SOL    HW2 1876   9.514   5.888   3.365
33368SOL     OW 1877   7.022   2.464  12.096
33368SOL    HW1 1878   7.101   2.423  12.133
33368SOL    HW2 1879   7.012   2.545  12.146
33369SOL     OW 1880  12.005   9.687   2.576
33369SOL    HW1 1881  12.055   9.764   2.550
33369SOL    HW2 1882  11.921   9.697   2.530
33370SOL     OW 1883   0.676   2.753  12.228
33370SOL    HW1 1884   0.593   2.792  12.200
33370SOL    HW2 1885   0.661   2.731  12.320
33371SOL     OW 1886  12.940  13.298   9.913
33371SOL    HW1 1887  13.024  13.260   9.889
33371SOL    HW2 1888  12.878  13.226   9.905
33372SOL     OW 1889   8.768  12.465  13.906
33372SOL    HW1 1890   8.850  12.417  13.898
33372SOL    HW2 1891   8.733  12.440  13.992
33373SOL     OW 1892  13.110   1.832  12.059
33373SOL    HW1 1893  13.176   1.814  12.126
33373SOL    HW2 1894  13.118   1.925  12.042
33374SOL     OW 1895   9.301  14.488   3.513
33374SOL    HW1 1896   9.206  14.494   3.507
33374SOL    HW2 1897   9.317  14.401   3.551
33375SOL     OW 1898  12.769   3.372  14.454
33375SOL    HW1 1899  12.787   3.415  14.538
33375SOL    HW2 1900  12.782   3.279  14.472
33376SOL     OW 1901   3.581   0.041  10.560
33376SOL    HW1 1902   3.551   0.129  10.541
33376SOL    HW2 1903   3.654   0.053  10.620
33377SOL     OW 1904   1.970   6.411   6.886
33377SOL    HW1 1905   1.994   6.455   6.968
33377SOL    HW2 1906   1.879   6.435   6.871
33378SOL     OW 1907   7.274   8.265  12.212
33378SOL    HW1 1908   7.291   8.353  12.248
33378SOL    HW2 1909   7.360   8.231  12.190
33379SOL     OW 1910   8.006  12.126   2.690
33379SOL    HW1 1911   8.090  12.080   2.689
33379SOL    HW2 1912   7.960  12.093   2.612
33380SOL     OW 1913  12.964  13.930   4.635
33380SOL    HW1 1914  12.922  13.964   4.556
33380SOL    HW2 1915  12.911  13.964   4.707
33381SOL     OW 1916  13.131  11.897  11.382
33381SOL    HW1 1917  13.219  11.934  11.385
33381SOL    HW2 1918  13.121  11.865  11.292
33382SOL     OW 1919  11.094   6.225  12.502
33382SOL    HW1 1920  11.178   6.203  12.461
33382SOL    HW2 1921  11.069   6.144  12.548
33383SOL     OW 1922  12.150   6.838   9.225
33383SOL    HW1 1923  12.242   6.813   9.224
33383SOL    HW2 1924  12.117   6.811   9.140
33384SOL     OW 1925   5.309  13.653  12.503
33384SOL    HW1 1926   5.261  13.724  12.544
33384SOL    HW2 1927   5.241  13.595  12.467
33385SOL     OW 1928  12.104   7.562  12.346
33385SOL    HW1 1929  12.070   7.549  12.258
33385SOL    HW2 1930  12.096   7.476  12.388
33386SOL     OW 1931   9.305   1.959  12.780
33386SOL    HW1 1932   9.233   2.013  12.813
33386SOL    HW2 1933   9.275   1.927  12.695
33387SOL     OW 1934   4.807   1.832   8.607
33387SOL    HW1 1935   4.847   1.819   8.521
33387SOL    HW2 1936   4.874   1.803   8.669
33388SOL     OW 1937   1.871   6.714   1.272
33388SOL    HW1 1938   1.929   6.730   1.197
33388SOL    HW2 1939   1.922   6.657   1.329
33389SOL     OW 1940   4.941  14.552   1.628
33389SOL    HW1 1941   5.001  14.479   1.615
33389SOL    HW2 1942   4.923  14.553   1.722
33390SOL     OW 1943  10.119   8.157   3.491
33390SOL    HW1 1944  10.056   8.192   3.428
33390SOL    HW2 1945  10.104   8.062   3.490
33391SOL     OW 1946   7.956  11.066   3.796
33391SOL    HW1 1947   7.973  11.021   3.714
33391SOL    HW2 1948   8.014  11.025   3.860
33392SOL     OW 1949   8.576  13.959  12.517
33392SOL    HW1 1950   8.543  13.910  12.592
33392SOL    HW2 1951   8.656  13.913  12.492
33393SOL     OW 1952  14.328   0.494   7.505
33393SOL    HW1 1953  14.391   0.463   7.570
33393SOL    HW2 1954  14.244   0.460   7.537
33394SOL     OW 1955  14.128   0.198   6.351
33394SOL    HW1 1956  14.215   0.157   6.342
33394SOL    HW2 1957  14.078   0.136   6.404
33395SOL     OW 1958   7.010   4.345   6.430
33395SOL    HW1 1959   6.925   4.315   6.463
33395SOL    HW2 1960   7.069   4.272   6.445
33396SOL     OW 1961   3.806   4.886  13.330
33396SOL    HW1 1962   3.896   4.912  13.314
33396SOL    HW2 1963   3.759   4.969  13.344
33397SOL     OW 1964   9.382   1.843   2.775
33397SOL    HW1 1965   9.319   1.871   2.708
33397SOL    HW2 1966   9.328   1.805   2.844
33398SOL     OW 1967  12.705   8.911  13.433
33398SOL    HW1 1968  12.648   8.981  13.463
33398SOL    HW2 1969  12.669   8.832  13.473
33399SOL     OW 1970   8.734  12.402   9.033
33399SOL    HW1 1971   8.695  12.329   8.985
33399SOL    HW2 1972   8.825  12.403   9.005
33400SOL     OW 1973  13.729   6.629   2.032
33400SOL    HW1 1974  13.680   6.548   2.044
33400SOL    HW2 1975  13.760   6.652   2.120
33401SOL     OW 1976   1.348  14.629   5.195
33401SOL    HW1 1977   1.261  14.652   5.165
33401SOL    HW2 1978   1.402  14.705   5.172
33402SOL     OW 1979   3.950   6.638   8.277
33402SOL    HW1 1980   3.856   6.631   8.289
33402SOL    HW2 1981   3.962   6.703   8.208
33403SOL     OW 1982  11.769  14.224  14.404
33403SOL    HW1 1983  11.842  14.206  14.464
33403SOL    HW2 1984  11.798  14.189  14.320
33404SOL     OW 1985   4.461  10.297   1.787
33404SOL    HW1 1986   4.528  10.256   1.733
33404SOL    HW2 1987   4.485  10.390   1.789
33405SOL     OW 1988   3.566   6.926   5.785
33405SOL    HW1 1989   3.561   6.860   5.854
33405SOL    HW2 1990   3.618   6.996   5.823
33406SOL     OW 1991  13.627   5.022   3.437
33406SOL    HW1 1992  13.552   5.019   3.377
33406SOL    HW2 1993  13.700   4.989   3.385
33407SOL     OW 1994  11.901  10.661   3.229
33407SOL    HW1 1995  11.923  10.573   3.198
33407SOL    HW2 1996  11.878  10.648   3.321
33408SOL     OW 1997   4.538  10.262   0.150
33408SOL    HW1 1998   4.558  10.339   0.096
33408SOL    HW2 1999   4.443  10.250   0.141
33409SOL     OW 2000   4.180   1.265  11.233
33409SOL    HW1 2001   4.110   1.327  11.256
33409SOL    HW2 2002   4.206   1.289  11.145
33410SOL     OW 2003  14.016  12.709   0.431
33410SOL    HW1 2004  14.070  12.677   0.503
33410SOL    HW2 2005  13.933  12.662   0.440
33411SOL     OW 2006  13.235   8.731   5.819
33411SOL    HW1 2007  13.328   8.753   5.814
33411SOL    HW2 2008  13.234   8.636   5.835
33412SOL     OW 2009  12.580   6.511  10.772
33412SOL    HW1 2010  12.664   6.525  10.729
33412SOL    HW2 2011  12.583   6.421  10.803
33413SOL     OW 2012   9.940  13.066  12.565
33413SOL    HW1 2013  10.025  13.028  12.545
33413SOL    HW2 2014   9.897  13.076  12.481
33414SOL     OW 2015   6.558  10.607  11.574
33414SOL    HW1 2016   6.479  10.606  11.629
33414SOL    HW2 2017   6.525  10.617  11.485
33415SOL     OW 2018   9.436   3.514   7.176
33415SOL    HW1 2019   9.405   3.453   7.108
33415SOL    HW2 2020   9.527   3.489   7.190
33416SOL     OW 2021  11.835   2.553  10.884
33416SOL    HW1 2022  11.871   2.641  10.895
33416SOL    HW2 2023  11.747   2.567  10.849
33417SOL     OW 2024   4.859   7.448   4.748
33417SOL    HW1 2025   4.819   7.363   4.765
33417SOL    HW2 2026   4.825   7.505   4.817
33418SOL     OW 2027   1.094   8.804   3.416
33418SOL    HW1 2028   1.055   8.751   3.346
33418SOL    HW2 2029   1.150   8.866   3.370
33419SOL     OW 2030   7.703   9.355   7.413
33419SOL    HW1 2031   7.750   9.431   7.380
33419SOL    HW2 2032   7.738   9.281   7.363
33420SOL     OW 2033   7.119   4.171   8.273
33420SOL    HW1 2034   7.142   4.170   8.181
33420SOL    HW2 2035   7.034   4.127   8.278
33421SOL     OW 2036   4.793  11.847   3.816
33421SOL    HW1 2037   4.787  11.923   3.875
33421SOL    HW2 2038   4.702  11.822   3.801
33422SOL     OW 2039   8.428   4.703  12.793
33422SOL    HW1 2040   8.441   4.619  12.750
33422SOL    HW2 2041   8.465   4.767  12.732
33423SOL     OW 2042  11.190   9.054   0.912
33423SOL    HW1 2043  11.281   9.057   0.942
33423SOL    HW2 2044  11.191   9.093   0.825
33424SOL     OW 2045   2.673   0.884   2.741
33424SOL    HW1 2046   2.637   0.929   2.818
33424SOL    HW2 2047   2.759   0.853   2.770
33425SOL     OW 2048   7.939   2.909   2.681
33425SOL    HW1 2049   7.894   2.976   2.732
33425SOL    HW2 2050   7.884   2.898   2.603
33426SOL     OW 2051  10.336   6.224  14.253
33426SOL    HW1 2052  10.312   6.188  14.339
33426SOL    HW2 2053  10.352   6.148  14.198
33427SOL     OW 2054  10.651  14.553  10.935
33427SOL    HW1 2055  10.624  14.645  10.942
33427SOL    HW2 2056  10.732  14.556  10.885
33428SOL     OW 2057   9.612   1.148  10.055
33428SOL    HW1 2058   9.557   1.176  10.129
33428SOL    HW2 2059   9.698   1.188  10.073
33429SOL     OW 2060   1.069  10.328  14.599
33429SOL    HW1 2061   1.032  10.305  14.513
33429SOL    HW2 2062   1.053  10.422  14.607
33430SOL     OW 2063  13.428   4.282  10.046
33430SOL    HW1 2064  13.509   4.299   9.999
33430SOL    HW2 2065  13.378   4.363  10.037
33431SOL     OW 2066   8.323   0.442  12.356
33431SOL    HW1 2067   8.405   0.445  12.306
33431SOL    HW2 2068   8.350   0.440  12.447
33432SOL     OW 2069   8.921   2.981  14.567
33432SOL    HW1 2070   8.885   2.895  14.547
33432SOL    HW2 2071   8.868   3.013  14.640
33433SOL     OW 2072   6.172  12.751   2.416
33433SOL    HW1 2073   6.230  12.805   2.363
33433SOL    HW2 2074   6.118  12.814   2.464
33434SOL     OW 2075   7.473   7.453   7.487
33434SOL    HW1 2076   7.386   7.421   7.512
33434SOL    HW2 2077   7.502   7.504   7.562
33435SOL     OW 2078   6.430  13.213  12.412
33435SOL    HW1 2079   6.340  13.179  12.414
33435SOL    HW2 2080   6.440  13.259  12.496
33436SOL     OW 2081   4.891   5.700   4.102
33436SOL    HW1 2082   4.961   5.723   4.041
33436SOL    HW2 2083   4.936   5.658   4.176
33437SOL     OW 2084   3.894   5.922  11.618
33437SOL    HW1 2085   3.955   5.885  11.682
33437SOL    HW2 2086   3.839   5.982  11.670
33438SOL     OW 2087  13.485   4.544   6.501
33438SOL    HW1 2088  13.409   4.487   6.497
33438SOL    HW2 2089  13.493   4.568   6.594
33439SOL     OW 2090  14.485   7.519   1.866
33439SOL    HW1 2091  14.468   7.611   1.845
33439SOL    HW2 2092  14.494   7.476   1.781
33440SOL     OW 2093   7.872   4.989   1.237
33440SOL    HW1 2094   7.888   5.064   1.294
33440SOL    HW2 2095   7.777   4.987   1.225
33441SOL     OW 2096  13.098  12.589  14.659
33441SOL    HW1 2097  13.190  12.598  14.634
33441SOL    HW2 2098  13.051  12.637  14.591
33442SOL     OW 2099   6.164   9.969  13.439
33442SOL    HW1 2100   6.203   9.953  13.353
33442SOL    HW2 2101   6.219   9.919  13.500
33443SOL     OW 2102   8.490   1.434  11.294
33443SOL    HW1 2103   8.448   1.361  11.248
33443SOL    HW2 2104   8.576   1.442  11.254
33444SOL     OW 2105   4.889  11.064  11.103
33444SOL    HW1 2106   4.799  11.029  11.103
33444SOL    HW2 2107   4.880  11.153  11.070
33445SOL     OW 2108  10.140   1.290   6.736
33445SOL    HW1 2109  10.051   1.311   6.708
33445SOL    HW2 2110  10.181   1.375   6.751
33446SOL     OW 2111  10.550   8.401   6.988
33446SOL    HW1 2112  10.622   8.341   6.967
33446SOL    HW2 2113  10.561   8.419   7.082
33447SOL     OW 2114  12.563   3.937  10.130
33447SOL    HW1 2115  12.476   3.975  10.140
33447SOL    HW2 2116  12.622   4.012  10.140
33448SOL     OW 2117   1.158   3.516  10.149
33448SOL    HW1 2118   1.123   3.426  10.148
33448SOL    HW2 2119   1.248   3.506  10.118
33449SOL     OW 2120   0.572  10.394   5.765
33449SOL    HW1 2121   0.480  10.370   5.758
33449SOL    HW2 2122   0.594  10.429   5.679
33450SOL     OW 2123   8.061   7.200  11.214
33450SOL    HW1 2124   8.067   7.296  11.217
33450SOL    HW2 2125   8.152   7.171  11.220
33451SOL     OW 2126   3.081  13.841  14.656
33451SOL    HW1 2127   3.108  13.828  14.747
33451SOL    HW2 2128   3.034  13.925  14.657
33452SOL     OW 2129   9.588   1.016   2.112
33452SOL    HW1 2130   9.555   0.951   2.049
33452SOL    HW2 2131   9.626   1.085   2.058
33453SOL     OW 2132   4.044  12.575  11.598
33453SOL    HW1 2133   4.000  12.659  11.609
33453SOL    HW2 2134   4.124  12.583  11.650
33454SOL     OW 2135   7.663  12.306  11.806
33454SOL    HW1 2136   7.718  12.384  11.807
33454SOL    HW2 2137   7.595  12.326  11.740
33455SOL     OW 2138   4.074   6.722   0.592
33455SOL    HW1 2139   4.163   6.710   0.560
33455SOL    HW2 2140   4.074   6.811   0.628
33456SOL     OW 2141  14.863  11.607   1.151
33456SOL    HW1 2142  14.847  11.550   1.076
33456SOL    HW2 2143  14.795  11.674   1.146
33457SOL     OW 2144  13.697  10.842   0.358
33457SOL    HW1 2145  13.715  10.893   0.437
33457SOL    HW2 2146  13.610  10.871   0.331
33458SOL     OW 2147  13.072   1.715  11.128
33458SOL    HW1 2148  13.132   1.671  11.188
33458SOL    HW2 2149  13.015   1.767  11.185
33459SOL     OW 2150   9.703   8.121   6.765
33459SOL    HW1 2151   9.765   8.072   6.820
33459SOL    HW2 2152   9.619   8.112   6.810
33460SOL     OW 2153   6.793   1.075   0.806
33460SOL    HW1 2154   6.834   1.026   0.735
33460SOL    HW2 2155   6.867   1.099   0.864
33461SOL     OW 2156  11.212   1.079  11.721
33461SOL    HW1 2157  11.143   1.023  11.688
33461SOL    HW2 2158  11.190   1.166  11.688
33462SOL     OW 2159   7.623   9.022  11.981
33462SOL    HW1 2160   7.562   9.068  12.039
33462SOL    HW2 2161   7.703   9.074  11.986
33463SOL     OW 2162   2.942   9.837   4.227
33463SOL    HW1 2163   2.969   9.803   4.141
33463SOL    HW2 2164   2.940   9.932   4.215
33464SOL     OW 2165   9.276   9.155   5.773
33464SOL    HW1 2166   9.307   9.246   5.769
33464SOL    HW2 2167   9.189   9.162   5.813
33465SOL     OW 2168   0.586  14.759   0.102
33465SOL    HW1 2169   0.605  14.666   0.108
33465SOL    HW2 2170   0.669  14.800   0.080
33466SOL     OW 2171  13.169   0.438   0.097
33466SOL    HW1 2172  13.258   0.450   0.129
33466SOL    HW2 2173  13.162   0.494   0.020
33467SOL     OW 2174   6.798   7.105  13.308
33467SOL    HW1 2175   6.825   7.191  13.338
33467SOL    HW2 2176   6.880   7.056  13.298
33468SOL     OW 2177   1.733   6.170  13.841
33468SOL    HW1 2178   1.781   6.208  13.915
33468SOL    HW2 2179   1.721   6.242  13.780
33469SOL     OW 2180  13.900   8.983  12.113
33469SOL    HW1 2181  13.811   8.981  12.076
33469SOL    HW2 2182  13.941   8.903  12.080
33470SOL     OW 2183   9.295   5.284   3.031
33470SOL    HW1 2184   9.204   5.299   3.059
33470SOL    HW2 2185   9.342   5.265   3.112
33471SOL     OW 2186   8.618  13.640   8.171
33471SOL    HW1 2187   8.561  13.563   8.169
33471SOL    HW2 2188   8.687  13.622   8.107
33472SOL     OW 2189   0.749   2.067  13.010
33472SOL    HW1 2190   0.830   2.099  13.050
33472SOL    HW2 2191   0.725   1.990  13.062
33473SOL     OW 2192   4.980   0.718   3.377
33473SOL    HW1 2193   4.972   0.780   3.305
33473SOL    HW2 2194   4.962   0.769   3.456
33474SOL     OW 2195   8.340  10.359   4.333
33474SOL    HW1 2196   8.320  10.403   4.416
33474SOL    HW2 2197   8.407  10.414   4.293
33475SOL     OW 2198   4.227   0.511  14.010
33475SOL    HW1 2199   4.222   0.536  14.102
33475SOL    HW2 2200   4.283   0.433  14.009
33476SOL     OW 2201   8.788   1.681   3.864
33476SOL    HW1 2202   8.703   1.699   3.824
33476SOL    HW2 2203   8.828   1.767   3.876
33477SOL     OW 2204   9.426   3.770  13.892
33477SOL    HW1 2205   9.421   3.691  13.947
33477SOL    HW2 2206   9.379   3.746  13.812
33478SOL     OW 2207   4.752   6.641   0.939
33478SOL    HW1 2208   4.688   6.685   0.996
33478SOL    HW2 2209   4.707   6.634   0.855
33479SOL     OW 2210   3.408  14.688   0.927
33479SOL    HW1 2211   3.327  14.652   0.892
33479SOL    HW2 2212   3.384  14.724   1.012
33480SOL     OW 2213  10.483  14.086  13.791
33480SOL    HW1 2214  10.536  14.033  13.849
33480SOL    HW2 2215  10.459  14.163  13.843
33481SOL     OW 2216   2.192   8.028   2.234
33481SOL    HW1 2217   2.220   7.951   2.282
33481SOL    HW2 2218   2.251   8.097   2.262
33482SOL     OW 2219   3.166   9.599   4.352
33482SOL    HW1 2220   3.157   9.507   4.377
33482SOL    HW2 2221   3.199   9.642   4.432
33483SOL     OW 2222   0.959   7.755   3.880
33483SOL    HW1 2223   1.002   7.789   3.801
33483SOL    HW2 2224   0.991   7.811   3.951
33484SOL     OW 2225   6.430   6.484   3.613
33484SOL    HW1 2226   6.493   6.556   3.616
33484SOL    HW2 2227   6.344   6.527   3.620
33485SOL     OW 2228   7.549  14.694   0.937
33485SOL    HW1 2229   7.597  14.657   1.011
33485SOL    HW2 2230   7.592  14.655   0.860
33486SOL     OW 2231   3.806   7.782   9.057
33486SOL    HW1 2232   3.718   7.772   9.093
33486SOL    HW2 2233   3.794   7.836   8.979
33487SOL     OW 2234   1.206   8.920  11.699
33487SOL    HW1 2235   1.244   8.983  11.638
33487SOL    HW2 2236   1.279   8.896  11.756
33488SOL     OW 2237   5.078   0.239  12.655
33488SOL    HW1 2238   4.994   0.197  12.638
33488SOL    HW2 2239   5.063   0.293  12.733
33489SOL     OW 2240  13.434   7.973   7.732
33489SOL    HW1 2241  13.522   7.971   7.694
33489SOL    HW2 2242  13.384   7.911   7.680
33490SOL     OW 2243   2.932   2.609  12.004
33490SOL    HW1 2244   2.988   2.569  12.070
33490SOL    HW2 2245   2.905   2.693  12.042
33491SOL     OW 2246  10.273   0.527   1.201
33491SOL    HW1 2247  10.226   0.565   1.127
33491SOL    HW2 2248  10.306   0.444   1.168
33492SOL     OW 2249   5.309   0.054   0.673
33492SOL    HW1 2250   5.263  14.853   0.643
33492SOL    HW2 2251   5.394   0.049   0.630
33493SOL     OW 2252  13.403   1.031  14.446
33493SOL    HW1 2253  13.399   0.994  14.534
33493SOL    HW2 2254  13.336   1.100  14.446
33494SOL     OW 2255   8.981   7.530   6.900
33494SOL    HW1 2256   9.071   7.506   6.880
33494SOL    HW2 2257   8.932   7.448   6.899
33495SOL     OW 2258   2.018  12.376   1.733
33495SOL    HW1 2259   1.957  12.325   1.786
33495SOL    HW2 2260   2.099  12.377   1.783
33496SOL     OW 2261  13.603   7.147   3.797
33496SOL    HW1 2262  13.520   7.128   3.754
33496SOL    HW2 2263  13.592   7.116   3.887
33497SOL     OW 2264   5.886   2.619   8.261
33497SOL    HW1 2265   5.898   2.530   8.293
33497SOL    HW2 2266   5.962   2.666   8.296
33498SOL     OW 2267  10.439  10.346   7.867
33498SOL    HW1 2268  10.367  10.388   7.819
33498SOL    HW2 2269  10.453  10.263   7.821
33499SOL     OW 2270  12.073   2.109   7.918
33499SOL    HW1 2271  12.035   2.166   7.851
33499SOL    HW2 2272  12.126   2.046   7.869
33500SOL     OW 2273   2.331  14.646  14.015
33500SOL    HW1 2274   2.260  14.584  13.997
33500SOL    HW2 2275   2.403  14.618  13.958
33501SOL     OW 2276   0.174  10.065   4.012
33501SOL    HW1 2277   0.219  10.058   3.927
33501SOL    HW2 2278   0.082  10.047   3.992
33502SOL     OW 2279   2.037   3.356  12.899
33502SOL    HW1 2280   2.030   3.399  12.985
33502SOL    HW2 2281   2.018   3.426  12.836
33503SOL     OW 2282  14.715   9.718   8.933
33503SOL    HW1 2283  14.671   9.803   8.944
33503SOL    HW2 2284  14.789   9.722   8.993
33504SOL     OW 2285   9.506   1.588   1.322
33504SOL    HW1 2286   9.448   1.518   1.291
33504SOL    HW2 2287   9.476   1.605   1.412
33505SOL     OW 2288   8.100  14.325   8.779
33505SOL    HW1 2289   8.057  14.402   8.741
33505SOL    HW2 2290   8.101  14.261   8.708
33506SOL     OW 2291  11.063  10.283   6.000
33506SOL    HW1 2292  10.987  10.234   6.033
33506SOL    HW2 2293  11.050  10.286   5.905
33507SOL     OW 2294   8.170  11.668   5.533
33507SOL    HW1 2295   8.250  11.615   5.534
33507SOL    HW2 2296   8.120  11.639   5.610
33508SOL     OW 2297   7.946   0.377   9.879
33508SOL    HW1 2298   7.947   0.339   9.967
33508SOL    HW2 2299   8.037   0.376   9.851
33509SOL     OW 2300   9.790   5.274   1.742
33509SOL    HW1 2301   9.838   5.225   1.810
33509SOL    HW2 2302   9.822   5.236   1.659
33510SOL     OW 2303   8.410  10.890  13.050
33510SOL    HW1 2304   8.368  10.907  13.134
33510SOL    HW2 2305   8.350  10.832  13.004
33511SOL     OW 2306   5.128   2.775  12.861
33511SOL    HW1 2307   5.106   2.699  12.807
33511SOL    HW2 2308   5.156   2.737  12.945
33512SOL     OW 2309   9.985   9.016   3.852
33512SOL    HW1 2310  10.002   9.078   3.781
33512SOL    HW2 2311   9.968   8.933   3.808
33513SOL     OW 2312   6.775   4.487   2.969
33513SOL    HW1 2313   6.725   4.483   3.050
33513SOL    HW2 2314   6.752   4.406   2.923
33514SOL     OW 2315   5.448   3.537   5.107
33514SOL    HW1 2316   5.438   3.607   5.043
33514SOL    HW2 2317   5.542   3.521   5.111
33515SOL     OW 2318   1.088   6.418   5.288
33515SOL    HW1 2319   1.056   6.328   5.282
33515SOL    HW2 2320   1.120   6.438   5.200
33516SOL     OW 2321   4.759   8.536   5.649
33516SOL    HW1 2322   4.758   8.521   5.554
33516SOL    HW2 2323   4.697   8.608   5.662
33517SOL     OW 2324   7.094   9.256   5.330
33517SOL    HW1 2325   7.181   9.225   5.355
33517SOL    HW2 2326   7.102   9.352   5.330
33518SOL     OW 2327  10.231   2.783   9.248
33518SOL    HW1 2328  10.148   2.758   9.290
33518SOL    HW2 2329  10.205   2.847   9.182
33519SOL     OW 2330   8.473   2.204   7.640
33519SOL    HW1 2331   8.454   2.127   7.587
33519SOL    HW2 2332   8.493   2.273   7.577
33520SOL     OW 2333   1.009   0.221  12.888
33520SOL    HW1 2334   1.098   0.204  12.919
33520SOL    HW2 2335   0.983   0.302  12.933
33521SOL     OW 2336   2.902   0.898   8.350
33521SOL    HW1 2337   2.940   0.811   8.345
33521SOL    HW2 2338   2.808   0.885   8.339
33522SOL     OW 2339   3.820   5.961   4.494
33522SOL    HW1 2340   3.729   5.982   4.514
33522SOL    HW2 2341   3.843   5.892   4.557
33523SOL     OW 2342  12.955   7.539   7.363
33523SOL    HW1 2343  12.959   7.448   7.332
33523SOL    HW2 2344  12.883   7.578   7.313
33524SOL     OW 2345   1.561   1.571  14.665
33524SOL    HW1 2346   1.598   1.489  14.698
33524SOL    HW2 2347   1.469   1.569  14.693
33525SOL     OW 2348  12.124  11.537   9.228
33525SOL    HW1 2349  12.218  11.525   9.243
33525SOL    HW2 2350  12.111  11.510   9.137
33526SOL     OW 2351  11.098   0.977  14.469
33526SOL    HW1 2352  11.149   1.049  14.507
33526SOL    HW2 2353  11.029   0.960  14.533
33527SOL     OW 2354  12.150   2.321   0.258
33527SOL    HW1 2355  12.083   2.389   0.262
33527SOL    HW2 2356  12.118   2.252   0.317
33528SOL     OW 2357   6.018   3.546  10.706
33528SOL    HW1 2358   6.015   3.588  10.621
33528SOL    HW2 2359   6.013   3.618  10.769
33529SOL     OW 2360   3.879   0.800  13.471
33529SOL    HW1 2361   3.946   0.857  13.433
33529SOL    HW2 2362   3.908   0.787  13.562
33530SOL     OW 2363   1.780  13.487  11.987
33530SOL    HW1 2364   1.736  13.486  11.902
33530SOL    HW2 2365   1.793  13.580  12.006
33531SOL     OW 2366   4.053   8.347   4.455
33531SOL    HW1 2367   4.130   8.321   4.404
33531SOL    HW2 2368   4.086   8.415   4.515
33532SOL     OW 2369   6.562   6.343   1.654
33532SOL    HW1 2370   6.502   6.339   1.728
33532SOL    HW2 2371   6.537   6.269   1.598
33533SOL     OW 2372  10.934   0.480   7.028
33533SOL    HW1 2373  11.017   0.529   7.032
33533SOL    HW2 2374  10.935   0.426   7.106
33534SOL     OW 2375   7.997  13.745   0.268
33534SOL    HW1 2376   8.090  13.724   0.274
33534SOL    HW2 2377   7.971  13.768   0.357
33535SOL     OW 2378   1.916   5.429   6.859
33535SOL    HW1 2379   1.905   5.477   6.940
33535SOL    HW2 2380   1.834   5.380   6.848
33536SOL     OW 2381   0.098  11.787   8.965
33536SOL    HW1 2382   0.085  11.694   8.944
33536SOL    HW2 2383   0.185  11.807   8.932
33537SOL     OW 2384   2.800  13.448  10.401
33537SOL    HW1 2385   2.786  13.542  10.402
33537SOL    HW2 2386   2.885  13.437  10.357
33538SOL     OW 2387   0.276  10.140   3.675
33538SOL    HW1 2388   0.330  10.064   3.696
33538SOL    HW2 2389   0.333  10.216   3.691
33539SOL     OW 2390   4.901   2.174   8.683
33539SOL    HW1 2391   4.835   2.116   8.646
33539SOL    HW2 2392   4.863   2.261   8.676
33540SOL     OW 2393  14.127   4.608  11.865
33540SOL    HW1 2394  14.216   4.575  11.876
33540SOL    HW2 2395  14.138   4.702  11.848
33541SOL     OW 2396   0.432   8.247   8.385
33541SOL    HW1 2397   0.414   8.317   8.448
33541SOL    HW2 2398   0.421   8.288   8.300
33542SOL     OW 2399   3.220   4.997   8.995
33542SOL    HW1 2400   3.235   4.946   8.916
33542SOL    HW2 2401   3.305   5.036   9.015
33543SOL     OW 2402  11.958  10.758   8.319
33543SOL    HW1 2403  11.875  10.786   8.357
33543SOL    HW2 2404  11.994  10.697   8.383
33544SOL     OW 2405   8.492   3.777  12.124
33544SOL    HW1 2406   8.501   3.782  12.029
33544SOL    HW2 2407   8.555   3.841  12.157
33545SOL     OW 2408   0.113   2.399  11.841
33545SOL    HW1 2409   0.087   2.460  11.771
33545SOL    HW2 2410   0.030   2.361  11.871
33546SOL     OW 2411   8.302  12.510   1.269
33546SOL    HW1 2412   8.335  12.421   1.260
33546SOL    HW2 2413   8.245  12.507   1.346
33547SOL     OW 2414   6.705  11.489   7.527
33547SOL    HW1 2415   6.706  11.447   7.613
33547SOL    HW2 2416   6.629  11.546   7.529
33548SOL     OW 2417   1.504   0.047   2.888
33548SOL    HW1 2418   1.439   0.100   2.841
33548SOL    HW2 2419   1.462  14.839   2.896
33549SOL     OW 2420  12.882  12.662  12.871
33549SOL    HW1 2421  12.884  12.603  12.947
33549SOL    HW2 2422  12.808  12.630  12.819
33550SOL     OW 2423   3.604  14.610  14.275
33550SOL    HW1 2424   3.618  14.581  14.185
33550SOL    HW2 2425   3.610  14.706  14.270
33551SOL     OW 2426  13.022  12.960   3.717
33551SOL    HW1 2427  13.061  12.876   3.743
33551SOL    HW2 2428  13.041  12.968   3.624
33552SOL     OW 2429  10.190   6.068   0.163
33552SOL    HW1 2430  10.217   6.159   0.152
33552SOL    HW2 2431  10.144   6.067   0.247
33553SOL     OW 2432  11.882   2.956  14.167
33553SOL    HW1 2433  11.871   3.028  14.229
33553SOL    HW2 2434  11.812   2.895  14.189
33554SOL     OW 2435   6.152   5.421   1.007
33554SOL    HW1 2436   6.220   5.355   0.993
33554SOL    HW2 2437   6.198   5.494   1.049
33555SOL     OW 2438  12.801   4.116   2.844
33555SOL    HW1 2439  12.844   4.159   2.770
33555SOL    HW2 2440  12.708   4.134   2.831
33556SOL     OW 2441  12.741  14.780  10.596
33556SOL    HW1 2442  12.675  14.712  10.609
33556SOL    HW2 2443  12.698  14.847  10.545
33557SOL     OW 2444  10.148   0.065   8.771
33557SOL    HW1 2445  10.071   0.008   8.764
33557SOL    HW2 2446  10.186   0.043   8.856
33558SOL     OW 2447  12.614  11.568  14.542
33558SOL    HW1 2448  12.660  11.491  14.575
33558SOL    HW2 2449  12.559  11.534  14.472
33559SOL     OW 2450   0.942   7.274   1.994
33559SOL    HW1 2451   0.925   7.186   2.028
33559SOL    HW2 2452   0.866   7.293   1.939
33560SOL     OW 2453  13.186  11.435   7.882
33560SOL    HW1 2454  13.121  11.373   7.849
33560SOL    HW2 2455  13.252  11.440   7.813
33561SOL     OW 2456   8.880   9.195   1.053
33561SOL    HW1 2457   8.852   9.133   0.986
33561SOL    HW2 2458   8.837   9.277   1.028
33562SOL     OW 2459   9.646  14.856  10.303
33562SOL    HW1 2460   9.577  14.870  10.238
33562SOL    HW2 2461   9.618   0.029  10.379
33563SOL     OW 2462   4.789   0.035   2.116
33563SOL    HW1 2463   4.773   0.127   2.094
33563SOL    HW2 2464   4.736  14.864   2.053
33564SOL     OW 2465   1.846   1.414  10.225
33564SOL    HW1 2466   1.808   1.501  10.219
33564SOL    HW2 2467   1.842   1.393  10.318
33565SOL     OW 2468   7.582  10.061   2.662
33565SOL    HW1 2469   7.551   9.973   2.685
33565SOL    HW2 2470   7.513  10.119   2.696
33566SOL     OW 2471   6.886  12.172   1.473
33566SOL    HW1 2472   6.961  12.168   1.533
33566SOL    HW2 2473   6.894  12.094   1.419
33567SOL     OW 2474   4.925  11.402  13.229
33567SOL    HW1 2475   4.874  11.413  13.309
33567SOL    HW2 2476   4.908  11.312  13.202
33568SOL     OW 2477   8.742   2.372  10.586
33568SOL    HW1 2478   8.713   2.282  10.603
33568SOL    HW2 2479   8.819   2.363  10.530
33569SOL     OW 2480   0.201   1.526   8.898
33569SOL    HW1 2481   0.211   1.436   8.869
33569SOL    HW2 2482   0.162   1.571   8.823
33570SOL     OW 2483  13.355  11.651   1.308
33570SOL    HW1 2484  13.332  11.729   1.257
33570SOL    HW2 2485  13.274  11.628   1.354
33571SOL     OW 2486   9.213  10.867   3.353
33571SOL    HW1 2487   9.237  10.786   3.310
33571SOL    HW2 2488   9.234  10.935   3.290
33572SOL     OW 2489  11.045  12.210   3.712
33572SOL    HW1 2490  11.115  12.273   3.729
33572SOL    HW2 2491  11.054  12.144   3.781
33573SOL     OW 2492  11.332  10.762  10.845
33573SOL    HW1 2493  11.332  10.690  10.782
33573SOL    HW2 2494  11.335  10.719  10.931
33574SOL     OW 2495   8.361   3.574   8.403
33574SOL    HW1 2496   8.407   3.500   8.443
33574SOL    HW2 2497   8.298   3.534   8.344
33575SOL     OW 2498  10.863   2.994   0.635
33575SOL    HW1 2499  10.954   2.987   0.663
33575SOL    HW2 2500  10.845   3.088   0.639
33576SOL     OW 2501   7.049  11.987  12.269
33576SOL    HW1 2502   7.025  11.981  12.362
33576SOL    HW2 2503   7.021  11.903  12.231
33577SOL     OW 2504  13.770   8.364   4.167
33577SOL    HW1 2505  13.781   8.452   4.132
33577SOL    HW2 2506  13.843   8.314   4.130
33578SOL     OW 2507   6.893   5.669   9.599
33578SOL    HW1 2508   6.958   5.738   9.613
33578SOL    HW2 2509   6.945   5.588   9.595
33579SOL     OW 2510   5.448  11.792  12.988
33579SOL    HW1 2511   5.434  11.858  12.921
33579SOL    HW2 2512   5.529  11.817  13.031
33580SOL     OW 2513   4.154   6.866  10.095
33580SOL    HW1 2514   4.095   6.903  10.030
33580SOL    HW2 2515   4.129   6.774  10.102
33581SOL     OW 2516   5.903   5.019  11.854
33581SOL    HW1 2517   5.976   5.076  11.830
33581SOL    HW2 2518   5.825   5.070  11.834
33582SOL     OW 2519  14.787   6.650   5.851
33582SOL    HW1 2520  14.850   6.714   5.883
33582SOL    HW2 2521  14.703   6.696   5.851
33583SOL     OW 2522  12.400  11.820   5.204
33583SOL    HW1 2523  12.374  11.891   5.145
33583SOL    HW2 2524  12.320  11.799   5.252
33584SOL     OW 2525   7.738  12.497  10.059
33584SOL    HW1 2526   7.796  12.565  10.094
33584SOL    HW2 2527   7.789  12.454   9.991
33585SOL     OW 2528   1.906   3.625  11.838
33585SOL    HW1 2529   1.979   3.586  11.790
33585SOL    HW2 2530   1.888   3.706  11.791
33586SOL     OW 2531   0.455   6.021  14.739
33586SOL    HW1 2532   0.548   6.003  14.726
33586SOL    HW2 2533   0.447   6.116  14.727
33587SOL     OW 2534   4.670   8.094  12.344
33587SOL    HW1 2535   4.581   8.126  12.334
33587SOL    HW2 2536   4.660   7.999  12.351
33588SOL     OW 2537   2.306  14.795   0.898
33588SOL    HW1 2538   2.339  14.715   0.858
33588SOL    HW2 2539   2.349  14.866   0.850
33589SOL     OW 2540   8.838  12.018  14.723
33589SOL    HW1 2541   8.901  11.949  14.700
33589SOL    HW2 2542   8.858  12.090  14.662
33590SOL     OW 2543   5.173   1.692   7.562
33590SOL    HW1 2544   5.160   1.611   7.512
33590SOL    HW2 2545   5.266   1.691   7.584
33591SOL     OW 2546   9.299   2.130  10.930
33591SOL    HW1 2547   9.350   2.068  10.878
33591SOL    HW2 2548   9.320   2.215  10.893
33592SOL     OW 2549   1.248   5.469  10.452
33592SOL    HW1 2550   1.316   5.502  10.393
33592SOL    HW2 2551   1.167   5.478  10.404
33593SOL     OW 2552  14.722   2.588   0.738
33593SOL    HW1 2553  14.703   2.678   0.711
33593SOL    HW2 2554  14.685   2.581   0.826
33594SOL     OW 2555  11.483  12.663   3.449
33594SOL    HW1 2556  11.514  12.602   3.516
33594SOL    HW2 2557  11.395  12.630   3.426
33595SOL     OW 2558   7.231   5.187   7.087
33595SOL    HW1 2559   7.311   5.239   7.087
33595SOL    HW2 2560   7.259   5.099   7.111
33596SOL     OW 2561   0.839   6.988   0.712
33596SOL    HW1 2562   0.893   7.048   0.764
33596SOL    HW2 2563   0.754   7.031   0.706
33597SOL     OW 2564   3.945   0.982  11.280
33597SOL    HW1 2565   3.877   1.020  11.335
33597SOL    HW2 2566   4.026   0.997  11.329
33598SOL     OW 2567   5.426  12.382  13.236
33598SOL    HW1 2568   5.451  12.358  13.147
33598SOL    HW2 2569   5.415  12.299  13.282
33599SOL     OW 2570   7.910  11.530   8.792
33599SOL    HW1 2571   7.817  11.522   8.814
33599SOL    HW2 2572   7.940  11.606   8.840
33600SOL     OW 2573   9.681  14.802  14.372
33600SOL    HW1 2574   9.643   0.003  14.334
33600SOL    HW2 2575   9.769  14.828  14.398
33601SOL     OW 2576   1.479   3.707   1.854
33601SOL    HW1 2577   1.476   3.636   1.919
33601SOL    HW2 2578   1.390   3.741   1.853
33602SOL     OW 2579  13.848   7.618   2.253
33602SOL    HW1 2580  13.813   7.642   2.339
33602SOL    HW2 2581  13.875   7.527   2.263
33603SOL     OW 2582   9.002   5.380   1.629
33603SOL    HW1 2583   8.993   5.285   1.624
33603SOL    HW2 2584   9.054   5.395   1.708
33604SOL     OW 2585   4.607   5.761  14.420
33604SOL    HW1 2586   4.515   5.757  14.394
33604SOL    HW2 2587   4.653   5.712  14.352
33605SOL     OW 2588   0.290  10.244   4.410
33605SOL    HW1 2589   0.363  10.285   4.456
33605SOL    HW2 2590   0.325  10.223   4.324
33606SOL     OW 2591   9.155   4.804   5.561
33606SOL    HW1 2592   9.230   4.818   5.619
33606SOL    HW2 2593   9.098   4.744   5.609
33607SOL     OW 2594   0.780   6.336   0.396
33607SOL    HW1 2595   0.807   6.345   0.487
33607SOL    HW2 2596   0.853   6.290   0.354
33608SOL     OW 2597   6.157   2.323   1.230
33608SOL    HW1 2598   6.227   2.343   1.291
33608SOL    HW2 2599   6.077   2.354   1.273
33609SOL     OW 2600   2.474   0.215   8.069
33609SOL    HW1 2601   2.472   0.121   8.088
33609SOL    HW2 2602   2.502   0.221   7.978
33610SOL     OW 2603   7.593   4.969   3.714
33610SOL    HW1 2604   7.618   5.060   3.703
33610SOL    HW2 2605   7.604   4.930   3.627
33611SOL     OW 2606  11.239   3.628   7.538
33611SOL    HW1 2607  11.314   3.641   7.480
33611SOL    HW2 2608  11.242   3.536   7.561
33612SOL     OW 2609   4.753   1.714   4.672
33612SOL    HW1 2610   4.721   1.756   4.593
33612SOL    HW2 2611   4.826   1.660   4.642
33613SOL     OW 2612  12.140   8.433   3.744
33613SOL    HW1 2613  12.188   8.367   3.695
33613SOL    HW2 2614  12.048   8.420   3.719
33614SOL     OW 2615   6.239   8.780  13.548
33614SOL    HW1 2616   6.193   8.795  13.466
33614SOL    HW2 2617   6.269   8.689  13.543
33615SOL     OW 2618   3.195   5.676   5.143
33615SOL    HW1 2619   3.203   5.729   5.064
33615SOL    HW2 2620   3.123   5.616   5.125
33616SOL     OW 2621  10.193   3.382  13.479
33616SOL    HW1 2622  10.165   3.313  13.418
33616SOL    HW2 2623  10.270   3.420  13.437
33617SOL     OW 2624  11.831   1.604   8.491
33617SOL    HW1 2625  11.797   1.520   8.522
33617SOL    HW2 2626  11.908   1.581   8.440
33618SOL     OW 2627  10.492  11.087   8.929
33618SOL    HW1 2628  10.445  11.004   8.938
33618SOL    HW2 2629  10.450  11.146   8.991
33619SOL     OW 2630   7.890   8.142   3.529
33619SOL    HW1 2631   7.795   8.130   3.540
33619SOL    HW2 2632   7.929   8.096   3.603
33620SOL     OW 2633   4.128   8.464   8.302
33620SOL    HW1 2634   4.090   8.405   8.366
33620SOL    HW2 2635   4.078   8.545   8.310
33621SOL     OW 2636   3.553   3.872   2.936
33621SOL    HW1 2637   3.638   3.858   2.978
33621SOL    HW2 2638   3.492   3.883   3.009
33622SOL     OW 2639   2.265   0.598  11.708
33622SOL    HW1 2640   2.297   0.687  11.719
33622SOL    HW2 2641   2.237   0.572  11.796
33623SOL     OW 2642   2.935   8.304   4.420
33623SOL    HW1 2643   2.864   8.356   4.381
33623SOL    HW2 2644   3.001   8.369   4.444
33624SOL     OW 2645  13.912  12.615   4.610
33624SOL    HW1 2646  13.884  12.706   4.624
33624SOL    HW2 2647  13.875  12.567   4.683
33625SOL     OW 2648   1.364  14.591  13.328
33625SOL    HW1 2649   1.364  14.570  13.234
33625SOL    HW2 2650   1.336  14.682  13.333
33626SOL     OW 2651  11.656   5.029   3.411
33626SOL    HW1 2652  11.649   5.048   3.318
33626SOL    HW2 2653  11.566   5.015   3.439
33627SOL     OW 2654   9.229   4.742   1.118
33627SOL    HW1 2655   9.169   4.684   1.071
33627SOL    HW2 2656   9.304   4.686   1.139
33628SOL     OW 2657  14.039   8.022   1.485
33628SOL    HW1 2658  13.981   7.975   1.425
33628SOL    HW2 2659  14.056   8.106   1.441
33629SOL     OW 2660   4.217   6.700   4.990
33629SOL    HW1 2661   4.221   6.667   4.901
33629SOL    HW2 2662   4.276   6.776   4.991
33630SOL     OW 2663   6.494   2.731   7.811
33630SOL    HW1 2664   6.524   2.818   7.838
33630SOL    HW2 2665   6.542   2.670   7.867
33631SOL     OW 2666   0.493  14.360   4.303
33631SOL    HW1 2667   0.468  14.425   4.237
33631SOL    HW2 2668   0.530  14.412   4.374
33632SOL     OW 2669   7.464   1.620   5.706
33632SOL    HW1 2670   7.470   1.535   5.749
33632SOL    HW2 2671   7.553   1.639   5.677
33633SOL     OW 2672  12.339   9.443  12.200
33633SOL    HW1 2673  12.339   9.489  12.284
33633SOL    HW2 2674  12.340   9.350  12.224
33634SOL     OW 2675   3.997   2.621   5.699
33634SOL    HW1 2676   3.937   2.577   5.640
33634SOL    HW2 2677   3.975   2.714   5.691
33635SOL     OW 2678   9.995  10.899   8.850
33635SOL    HW1 2679   9.900  10.906   8.860
33635SOL    HW2 2680  10.029  10.888   8.939
33636SOL     OW 2681   0.309   0.377   8.189
33636SOL    HW1 2682   0.395   0.371   8.232
33636SOL    HW2 2683   0.324   0.341   8.102
33637SOL     OW 2684   1.679   6.714  14.220
33637SOL    HW1 2685   1.705   6.717  14.312
33637SOL    HW2 2686   1.748   6.761  14.174
33638SOL     OW 2687  14.387  12.797   0.986
33638SOL    HW1 2688  14.456  12.816   0.922
33638SOL    HW2 2689  14.398  12.864   1.053
33639SOL     OW 2690   1.236   1.683   6.107
33639SOL    HW1 2691   1.267   1.651   6.192
33639SOL    HW2 2692   1.266   1.616   6.045
33640SOL     OW 2693   5.171   9.798   2.499
33640SOL    HW1 2694   5.206   9.722   2.545
33640SOL    HW2 2695   5.093   9.822   2.549
33641SOL     OW 2696   4.691   2.293  12.744
33641SOL    HW1 2697   4.627   2.364  12.748
33641SOL    HW2 2698   4.646   2.222  12.698
33642SOL     OW 2699   4.426  12.862  10.732
33642SOL    HW1 2700   4.390  12.947  10.709
33642SOL    HW2 2701   4.517  12.880  10.756
33643SOL     OW 2702   4.996   7.778   0.854
33643SOL    HW1 2703   5.064   7.733   0.804
33643SOL    HW2 2704   4.983   7.723   0.931
33644SOL     OW 2705   1.253   3.112   2.322
33644SOL    HW1 2706   1.325   3.108   2.259
33644SOL    HW2 2707   1.222   3.202   2.317
33645SOL     OW 2708  13.397   8.625   4.470
33645SOL    HW1 2709  13.423   8.541   4.507
33645SOL    HW2 2710  13.410   8.615   4.376
33646SOL     OW 2711   5.248  12.116  12.856
33646SOL    HW1 2712   5.277  12.153  12.773
33646SOL    HW2 2713   5.261  12.022  12.847
33647SOL     OW 2714   9.611   5.194  11.786
33647SOL    HW1 2715   9.543   5.143  11.830
33647SOL    HW2 2716   9.692   5.168  11.829
33648SOL     OW 2717   8.202   3.525  11.493
33648SOL    HW1 2718   8.133   3.508  11.429
33648SOL    HW2 2719   8.238   3.610  11.467
33649SOL     OW 2720  12.183  13.029   7.817
33649SOL    HW1 2721  12.240  13.088   7.768
33649SOL    HW2 2722  12.242  12.985   7.878
33650SOL     OW 2723   8.284   0.373   3.530
33650SOL    HW1 2724   8.295   0.449   3.473
33650SOL    HW2 2725   8.353   0.312   3.503
33651SOL     OW 2726  10.559  10.267   0.095
33651SOL    HW1 2727  10.495  10.328   0.057
33651SOL    HW2 2728  10.506  10.207   0.147
33652SOL     OW 2729  14.728   5.321  13.184
33652SOL    HW1 2730  14.796   5.254  13.194
33652SOL    HW2 2731  14.703   5.344  13.274
33653SOL     OW 2732  12.653   5.324   5.255
33653SOL    HW1 2733  12.665   5.248   5.199
33653SOL    HW2 2734  12.616   5.391   5.197
33654SOL     OW 2735  14.683   1.687  12.623
33654SOL    HW1 2736  14.650   1.614  12.675
33654SOL    HW2 2737  14.673   1.763  12.680
33655SOL     OW 2738   5.633   2.859  13.275
33655SOL    HW1 2739   5.543   2.889  13.272
33655SOL    HW2 2740   5.629   2.767  13.249
33656SOL     OW 2741   0.943   5.754   3.031
33656SOL    HW1 2742   1.004   5.681   3.041
33656SOL    HW2 2743   0.944   5.773   2.937
33657SOL     OW 2744   7.618  13.940   9.839
33657SOL    HW1 2745   7.606  14.016   9.897
33657SOL    HW2 2746   7.557  13.875   9.874
33658SOL     OW 2747  11.713   3.052   8.346
33658SOL    HW1 2748  11.669   2.980   8.391
33658SOL    HW2 2749  11.653   3.077   8.276
33659SOL     OW 2750   3.707  13.013   0.110
33659SOL    HW1 2751   3.757  12.984   0.186
33659SOL    HW2 2752   3.616  13.017   0.141
33660SOL     OW 2753   2.562   9.656   3.804
33660SOL    HW1 2754   2.489   9.603   3.835
33660SOL    HW2 2755   2.535   9.685   3.716
33661SOL     OW 2756   3.224   1.547   3.373
33661SOL    HW1 2757   3.147   1.493   3.389
33661SOL    HW2 2758   3.211   1.625   3.426
33662SOL     OW 2759   2.784   8.761   7.874
33662SOL    HW1 2760   2.811   8.728   7.789
33662SOL    HW2 2761   2.807   8.690   7.935
33663SOL     OW 2762  10.958   2.668   1.765
33663SOL    HW1 2763  11.032   2.702   1.715
33663SOL    HW2 2764  10.998   2.611   1.831
33664SOL     OW 2765   7.501  13.817  11.478
33664SOL    HW1 2766   7.529  13.725  11.475
33664SOL    HW2 2767   7.488  13.840  11.386
33665SOL     OW 2768   2.740   9.717  13.716
33665SOL    HW1 2769   2.815   9.677  13.671
33665SOL    HW2 2770   2.714   9.653  13.782
33666SOL     OW 2771   2.176   6.672  13.487
33666SOL    HW1 2772   2.249   6.610  13.498
33666SOL    HW2 2773   2.161   6.675  13.393
33667SOL     OW 2774  12.873  10.430  13.241
33667SOL    HW1 2775  12.925  10.376  13.300
33667SOL    HW2 2776  12.800  10.462  13.295
33668SOL     OW 2777   3.911   6.856   5.218
33668SOL    HW1 2778   3.943   6.834   5.306
33668SOL    HW2 2779   3.816   6.846   5.223
33669SOL     OW 2780   4.015  10.192   8.237
33669SOL    HW1 2781   4.004  10.228   8.148
33669SOL    HW2 2782   3.929  10.156   8.258
33670SOL     OW 2783  10.878   8.060   0.315
33670SOL    HW1 2784  10.939   8.094   0.249
33670SOL    HW2 2785  10.932   8.043   0.391
33671SOL     OW 2786   1.828   5.110  10.532
33671SOL    HW1 2787   1.793   5.021  10.531
33671SOL    HW2 2788   1.837   5.133  10.439
33672SOL     OW 2789  10.078  12.098   2.471
33672SOL    HW1 2790  10.095  12.069   2.560
33672SOL    HW2 2791  10.145  12.164   2.453
33673SOL     OW 2792  13.132   2.362   0.033
33673SOL    HW1 2793  13.154   2.271   0.015
33673SOL    HW2 2794  13.171   2.411  14.838
33674SOL     OW 2795   1.409   0.846   3.422
33674SOL    HW1 2796   1.433   0.927   3.467
33674SOL    HW2 2797   1.434   0.777   3.483
33675SOL     OW 2798   8.749   8.891   6.275
33675SOL    HW1 2799   8.701   8.885   6.193
33675SOL    HW2 2800   8.682   8.878   6.343
33676SOL     OW 2801   9.186   1.229   9.033
33676SOL    HW1 2802   9.246   1.303   9.031
33676SOL    HW2 2803   9.101   1.267   9.053
33677SOL     OW 2804   0.333   8.084   8.027
33677SOL    HW1 2805   0.359   8.161   8.078
33677SOL    HW2 2806   0.244   8.064   8.059
33678SOL     OW 2807   2.638  14.220  13.575
33678SOL    HW1 2808   2.721  14.232  13.530
33678SOL    HW2 2809   2.661  14.187  13.662
33679SOL     OW 2810  11.983   6.463   5.140
33679SOL    HW1 2811  12.035   6.508   5.206
33679SOL    HW2 2812  11.954   6.533   5.080
33680SOL     OW 2813  11.916   1.812   9.911
33680SOL    HW1 2814  11.945   1.758   9.837
33680SOL    HW2 2815  11.830   1.844   9.884
33681SOL     OW 2816  12.155   6.962  12.337
33681SOL    HW1 2817  12.210   6.915  12.274
33681SOL    HW2 2818  12.140   7.047  12.296
33682SOL     OW 2819   5.523   7.810   6.110
33682SOL    HW1 2820   5.614   7.838   6.118
33682SOL    HW2 2821   5.490   7.811   6.199
33683SOL     OW 2822   6.544  12.355   4.573
33683SOL    HW1 2823   6.524  12.335   4.481
33683SOL    HW2 2824   6.546  12.270   4.616
33684SOL     OW 2825   6.335   6.326   0.743
33684SOL    HW1 2826   6.418   6.311   0.789
33684SOL    HW2 2827   6.345   6.412   0.703
33685SOL     OW 2828   6.299  12.361  11.902
33685SOL    HW1 2829   6.231  12.424  11.877
33685SOL    HW2 2830   6.261  12.313  11.976
33686SOL     OW 2831   3.760   8.416   0.608
33686SOL    HW1 2832   3.817   8.489   0.582
33686SOL    HW2 2833   3.765   8.355   0.535
33687SOL     OW 2834   4.290  11.175   9.756
33687SOL    HW1 2835   4.344  11.110   9.710
33687SOL    HW2 2836   4.342  11.255   9.754
33688SOL     OW 2837  12.773   0.809   2.318
33688SOL    HW1 2838  12.717   0.745   2.364
33688SOL    HW2 2839  12.862   0.786   2.344
33689SOL     OW 2840   5.496  11.080   0.209
33689SOL    HW1 2841   5.425  11.045   0.155
33689SOL    HW2 2842   5.494  11.027   0.289
33690SOL     OW 2843  13.663  10.242   4.158
33690SOL    HW1 2844  13.725  10.310   4.183
33690SOL    HW2 2845  13.701  10.202   4.080
33691SOL     OW 2846  12.092  12.258   2.769
33691SOL    HW1 2847  12.118  12.329   2.711
33691SOL    HW2 2848  11.997  12.267   2.777
33692SOL     OW 2849  10.314   1.162   8.290
33692SOL    HW1 2850  10.230   1.199   8.315
33692SOL    HW2 2851  10.296   1.112   8.211
33693SOL     OW 2852   1.660  14.863   1.367
33693SOL    HW1 2853   1.752  14.837   1.376
33693SOL    HW2 2854   1.611  14.781   1.374
33694SOL     OW 2855   5.521  13.769  13.907
33694SOL    HW1 2856   5.492  13.774  13.998
33694SOL    HW2 2857   5.448  13.728  13.861
33695SOL     OW 2858  13.847   4.093   3.748
33695SOL    HW1 2859  13.859   4.105   3.842
33695SOL    HW2 2860  13.778   4.026   3.741
33696SOL     OW 2861   8.135  13.073  13.720
33696SOL    HW1 2862   8.147  13.079  13.815
33696SOL    HW2 2863   8.197  13.137  13.684
33697SOL     OW 2864   6.011  12.670   9.494
33697SOL    HW1 2865   5.929  12.716   9.511
33697SOL    HW2 2866   6.013  12.599   9.558
33698SOL     OW 2867   0.665   5.779  12.524
33698SOL    HW1 2868   0.659   5.837  12.448
33698SOL    HW2 2869   0.580   5.787  12.566
33699SOL     OW 2870  10.545  13.097  10.523
33699SOL    HW1 2871  10.544  13.013  10.570
33699SOL    HW2 2872  10.530  13.163  10.591
33700SOL     OW 2873   6.676  10.325  10.443
33700SOL    HW1 2874   6.740  10.394  10.462
33700SOL    HW2 2875   6.595  10.372  10.426
33701SOL     OW 2876   0.149   3.000  11.003
33701SOL    HW1 2877   0.063   3.042  10.998
33701SOL    HW2 2878   0.129   2.906  11.008
33702SOL     OW 2879   7.729   0.346  11.716
33702SOL    HW1 2880   7.719   0.440  11.733
33702SOL    HW2 2881   7.720   0.305  11.802
33703SOL     OW 2882   9.858  10.505   5.762
33703SOL    HW1 2883   9.772  10.548   5.762
33703SOL    HW2 2884   9.837  10.411   5.763
33704SOL     OW 2885   3.938   0.586   3.007
33704SOL    HW1 2886   3.917   0.529   2.933
33704SOL    HW2 2887   4.023   0.553   3.039
33705SOL     OW 2888   3.525   5.288  14.123
33705SOL    HW1 2889   3.470   5.311  14.048
33705SOL    HW2 2890   3.541   5.194  14.113
33706SOL     OW 2891   9.645   0.812   3.799
33706SOL    HW1 2892   9.592   0.746   3.755
33706SOL    HW2 2893   9.602   0.823   3.884
33707SOL     OW 2894  10.574   0.414   4.783
33707SOL    HW1 2895  10.590   0.506   4.803
33707SOL    HW2 2896  10.484   0.398   4.810
33708SOL     OW 2897   6.546  11.225   5.422
33708SOL    HW1 2898   6.455  11.240   5.397
33708SOL    HW2 2899   6.550  11.131   5.441
33709SOL     OW 2900   7.358   1.974   0.958
33709SOL    HW1 2901   7.381   1.897   0.906
33709SOL    HW2 2902   7.306   1.940   1.031
33710SOL     OW 2903   1.448  11.376   0.340
33710SOL    HW1 2904   1.456  11.367   0.435
33710SOL    HW2 2905   1.370  11.325   0.317
33711SOL     OW 2906   0.383   3.769  11.879
33711SOL    HW1 2907   0.312   3.712  11.852
33711SOL    HW2 2908   0.382   3.766  11.974
33712SOL     OW 2909   1.699   7.490   7.169
33712SOL    HW1 2910   1.683   7.463   7.079
33712SOL    HW2 2911   1.623   7.543   7.192
33713SOL     OW 2912   2.874   8.424   5.874
33713SOL    HW1 2913   2.804   8.370   5.837
33713SOL    HW2 2914   2.841   8.449   5.961
33714SOL     OW 2915   5.043  11.917   4.199
33714SOL    HW1 2916   5.126  11.957   4.171
33714SOL    HW2 2917   5.010  11.975   4.267
33715SOL     OW 2918   1.336   8.097   2.376
33715SOL    HW1 2919   1.291   8.175   2.345
33715SOL    HW2 2920   1.278   8.024   2.353
33716SOL     OW 2921   5.217   9.432  13.943
33716SOL    HW1 2922   5.288   9.481  13.901
33716SOL    HW2 2923   5.204   9.356  13.886
33717SOL     OW 2924  10.374   0.625   0.126
33717SOL    HW1 2925  10.371   0.674   0.208
33717SOL    HW2 2926  10.464   0.593   0.119
33718SOL     OW 2927   1.060  14.216   3.401
33718SOL    HW1 2928   0.968  14.239   3.390
33718SOL    HW2 2929   1.058  14.131   3.446
33719SOL     OW 2930  13.305   3.690   7.646
33719SOL    HW1 2931  13.267   3.677   7.732
33719SOL    HW2 2932  13.312   3.602   7.609
33720SOL     OW 2933  11.743   1.549   8.079
33720SOL    HW1 2934  11.797   1.472   8.062
33720SOL    HW2 2935  11.691   1.559   8.000
33721SOL     OW 2936   5.522  12.853   4.671
33721SOL    HW1 2937   5.426  12.858   4.671
33721SOL    HW2 2938   5.549  12.907   4.597
33722SOL     OW 2939   6.778   3.866   7.432
33722SOL    HW1 2940   6.782   3.774   7.405
33722SOL    HW2 2941   6.689   3.878   7.465
33723SOL     OW 2942   1.169  14.681   0.879
33723SOL    HW1 2943   1.157  14.768   0.841
33723SOL    HW2 2944   1.155  14.621   0.805
33724SOL     OW 2945   6.883   8.524   2.571
33724SOL    HW1 2946   6.936   8.603   2.565
33724SOL    HW2 2947   6.946   8.452   2.571
33725SOL     OW 2948  12.185  14.755   9.568
33725SOL    HW1 2949  12.102  14.793   9.596
33725SOL    HW2 2950  12.173  14.736   9.475
33726SOL     OW 2951   7.172   1.003   8.410
33726SOL    HW1 2952   7.221   0.936   8.364
33726SOL    HW2 2953   7.088   1.008   8.363
33727SOL     OW 2954   7.460   5.912  10.875
33727SOL    HW1 2955   7.384   5.894  10.930
33727SOL    HW2 2956   7.535   5.891  10.931
33728SOL     OW 2957   2.690  11.116  10.106
33728SOL    HW1 2958   2.760  11.115  10.171
33728SOL    HW2 2959   2.611  11.134  10.156
33729SOL     OW 2960   6.741   9.119   6.660
33729SOL    HW1 2961   6.649   9.095   6.666
33729SOL    HW2 2962   6.745   9.211   6.686
33730SOL     OW 2963   9.358   5.836   7.607
33730SOL    HW1 2964   9.294   5.851   7.538
33730SOL    HW2 2965   9.423   5.905   7.596
33731SOL     OW 2966   6.818  12.068   8.016
33731SOL    HW1 2967   6.749  12.055   8.082
33731SOL    HW2 2968   6.890  12.108   8.065
33732SOL     OW 2969   1.111   0.264   9.677
33732SOL    HW1 2970   1.164   0.324   9.729
33732SOL    HW2 2971   1.036   0.243   9.732
33733SOL     OW 2972   4.162   4.957   6.143
33733SOL    HW1 2973   4.198   4.879   6.185
33733SOL    HW2 2974   4.067   4.943   6.143
33734SOL     OW 2975  14.876  12.940  11.906
33734SOL    HW1 2976  14.797  12.916  11.857
33734SOL    HW2 2977   0.026  12.859  11.948
33735SOL     OW 2978   2.708  13.830   6.535
33735SOL    HW1 2979   2.763  13.764   6.493
33735SOL    HW2 2980   2.619  13.796   6.527
33736SOL     OW 2981   9.121   8.587   7.771
33736SOL    HW1 2982   9.183   8.661   7.770
33736SOL    HW2 2983   9.048   8.618   7.824
33737SOL     OW 2984  13.980  11.012  11.596
33737SOL    HW1 2985  13.944  11.014  11.684
33737SOL    HW2 2986  14.075  11.021  11.608
33738SOL     OW 2987   3.609   3.895   8.212
33738SOL    HW1 2988   3.665   3.886   8.135
33738SOL    HW2 2989   3.577   3.806   8.227
33739SOL     OW 2990   4.680   7.018   5.180
33739SOL    HW1 2991   4.735   6.947   5.213
33739SOL    HW2 2992   4.649   6.986   5.095
33740SOL     OW 2993   6.334  13.380   4.111
33740SOL    HW1 2994   6.263  13.342   4.165
33740SOL    HW2 2995   6.350  13.314   4.043
33741SOL     OW 2996   7.639   2.021  13.011
33741SOL    HW1 2997   7.718   2.075  13.015
33741SOL    HW2 2998   7.647   1.960  13.084
33742SOL     OW 2999   1.639   7.917   2.093
33742SOL    HW1 3000   1.705   7.929   2.024
33742SOL    HW2 3001   1.611   8.006   2.115
33743SOL     OW 3002   5.080   9.148   2.808
33743SOL    HW1 3003   5.009   9.090   2.782
33743SOL    HW2 3004   5.097   9.126   2.899
33744SOL     OW 3005   6.968  12.712  13.762
33744SOL    HW1 3006   6.995  12.791  13.808
33744SOL    HW2 3007   7.011  12.717  13.677
33745SOL     OW 3008   2.131   6.459   9.646
33745SOL    HW1 3009   2.202   6.472   9.709
33745SOL    HW2 3010   2.167   6.490   9.563
33746SOL     OW 3011   3.618  10.287  13.498
33746SOL    HW1 3012   3.585  10.306  13.410
33746SOL    HW2 3013   3.687  10.222  13.485
33747SOL     OW 3014   5.092  11.460   9.583
33747SOL    HW1 3015   5.153  11.484   9.653
33747SOL    HW2 3016   5.112  11.368   9.564
33748SOL     OW 3017   3.254   0.358   8.313
33748SOL    HW1 3018   3.311   0.382   8.387
33748SOL    HW2 3019   3.314   0.326   8.246
33749SOL     OW 3020   9.346   6.417   1.026
33749SOL    HW1 3021   9.360   6.496   1.079
33749SOL    HW2 3022   9.297   6.448   0.950
33750SOL     OW 3023  12.352  14.107   7.482
33750SOL    HW1 3024  12.381  14.034   7.428
33750SOL    HW2 3025  12.357  14.183   7.424
33751SOL     OW 3026   2.394   9.278  12.561
33751SOL    HW1 3027   2.341   9.294  12.639
33751SOL    HW2 3028   2.350   9.206  12.516
33752SOL     OW 3029   3.941   1.424  10.044
33752SOL    HW1 3030   3.977   1.364   9.979
33752SOL    HW2 3031   4.002   1.497  10.047
33753SOL     OW 3032   5.986   7.160   7.364
33753SOL    HW1 3033   5.938   7.214   7.427
33753SOL    HW2 3034   5.964   7.197   7.279
33754SOL     OW 3035   4.986   3.227  12.512
33754SOL    HW1 3036   4.977   3.212  12.418
33754SOL    HW2 3037   5.073   3.264  12.522
33755SOL     OW 3038  12.387   2.336  14.433
33755SOL    HW1 3039  12.299   2.323  14.397
33755SOL    HW2 3040  12.436   2.259  14.406
33756SOL     OW 3041   0.294  14.863  12.065
33756SOL    HW1 3042   0.223  14.801  12.081
33756SOL    HW2 3043   0.321  14.847  11.975
33757SOL     OW 3044   4.651   6.280   1.718
33757SOL    HW1 3045   4.655   6.269   1.813
33757SOL    HW2 3046   4.558   6.290   1.699
33758SOL     OW 3047   1.882   8.431   0.740
33758SOL    HW1 3048   1.895   8.495   0.811
33758SOL    HW2 3049   1.932   8.467   0.666
33759SOL     OW 3050  12.244  12.589   5.746
33759SOL    HW1 3051  12.296  12.509   5.756
33759SOL    HW2 3052  12.233  12.621   5.836
33760SOL     OW 3053   8.889   9.318   5.413
33760SOL    HW1 3054   8.932   9.248   5.461
33760SOL    HW2 3055   8.812   9.277   5.375
33761SOL     OW 3056   6.737   3.928  10.774
33761SOL    HW1 3057   6.800   3.985  10.731
33761SOL    HW2 3058   6.730   3.962  10.863
33762SOL     OW 3059  10.357   0.380   4.946
33762SOL    HW1 3060  10.296   0.313   4.976
33762SOL    HW2 3061  10.376   0.433   5.023
33763SOL     OW 3062  11.888   4.726   8.014
33763SOL    HW1 3063  11.906   4.816   7.988
33763SOL    HW2 3064  11.894   4.676   7.933
33764SOL     OW 3065   1.143   1.829  10.138
33764SOL    HW1 3066   1.202   1.900  10.112
33764SOL    HW2 3067   1.099   1.862  10.216
33765SOL     OW 3068   7.627   7.174   2.166
33765SOL    HW1 3069   7.625   7.091   2.213
33765SOL    HW2 3070   7.545   7.217   2.191
33766SOL     OW 3071  11.453  11.752  10.376
33766SOL    HW1 3072  11.489  11.728  10.461
33766SOL    HW2 3073  11.388  11.820  10.396
33767SOL     OW 3074   0.089   9.124   3.976
33767SOL    HW1 3075   0.137   9.043   3.996
33767SOL    HW2 3076   0.046   9.148   4.058
33768SOL     OW 3077  13.693   6.727  12.637
33768SOL    HW1 3078  13.728   6.696  12.721
33768SOL    HW2 3079  13.678   6.647  12.587
33769SOL     OW 3080   9.728  14.079  10.730
33769SOL    HW1 3081   9.806  14.081  10.674
33769SOL    HW2 3082   9.748  14.140  10.801
33770SOL     OW 3083   7.048  12.741   1.238
33770SOL    HW1 3084   7.033  12.660   1.288
33770SOL    HW2 3085   7.010  12.722   1.151
33771SOL     OW 3086  10.552   8.426   7.487
33771SOL    HW1 3087  10.484   8.485   7.521
33771SOL    HW2 3088  10.528   8.340   7.521
33772SOL     OW 3089  14.733   5.632   6.190
33772SOL    HW1 3090  14.638   5.622   6.190
33772SOL    HW2 3091  14.760   5.610   6.101
33773SOL     OW 3092  11.861   0.773  13.553
33773SOL    HW1 3093  11.877   0.818  13.636
33773SOL    HW2 3094  11.796   0.706  13.574
33774SOL     OW 3095   1.651   0.177  12.118
33774SOL    HW1 3096   1.727   0.120  12.105
33774SOL    HW2 3097   1.577   0.125  12.086
33775SOL     OW 3098  13.027  10.992   4.042
33775SOL    HW1 3099  12.959  10.949   3.990
33775SOL    HW2 3100  13.018  10.952   4.129
33776SOL     OW 3101   4.445   6.513   3.003
33776SOL    HW1 3102   4.524   6.555   2.970
33776SOL    HW2 3103   4.397   6.584   3.047
33777SOL     OW 3104   0.456   8.134   1.637
33777SOL    HW1 3105   0.482   8.069   1.571
33777SOL    HW2 3106   0.434   8.082   1.714
33778SOL     OW 3107   8.898  14.030   4.147
33778SOL    HW1 3108   8.982  13.996   4.118
33778SOL    HW2 3109   8.853  14.056   4.066
33779SOL     OW 3110   8.176  14.272  12.428
33779SOL    HW1 3111   8.121  14.259  12.351
33779SOL    HW2 3112   8.265  14.255  12.398
33780SOL     OW 3113  10.292   7.897   6.874
33780SOL    HW1 3114  10.373   7.905   6.822
33780SOL    HW2 3115  10.285   7.804   6.894
33781SOL     OW 3116  13.312   9.166  13.042
33781SOL    HW1 3117  13.354   9.140  13.124
33781SOL    HW2 3118  13.365   9.126  12.974
33782SOL     OW 3119   0.990   0.129  11.113
33782SOL    HW1 3120   1.028   0.154  11.029
33782SOL    HW2 3121   0.958   0.212  11.150
33783SOL     OW 3122   3.441   8.802   9.873
33783SOL    HW1 3123   3.481   8.857   9.805
33783SOL    HW2 3124   3.507   8.735   9.891
33784SOL     OW 3125  14.859   3.995  10.252
33784SOL    HW1 3126   0.025   4.080  10.261
33784SOL    HW2 3127   0.005   3.966  10.163
33785SOL     OW 3128   7.771   9.657   5.454
33785SOL    HW1 3129   7.835   9.660   5.383
33785SOL    HW2 3130   7.733   9.745   5.456
33786SOL     OW 3131   1.580   6.246   5.936
33786SOL    HW1 3132   1.631   6.304   5.992
33786SOL    HW2 3133   1.642   6.215   5.871
33787SOL     OW 3134   2.395   1.333   9.595
33787SOL    HW1 3135   2.335   1.329   9.520
33787SOL    HW2 3136   2.387   1.423   9.627
33788SOL     OW 3137   3.046  12.523   5.368
33788SOL    HW1 3138   3.102  12.501   5.293
33788SOL    HW2 3139   3.099  12.583   5.420
33789SOL     OW 3140   5.855   6.331   7.058
33789SOL    HW1 3141   5.839   6.420   7.029
33789SOL    HW2 3142   5.805   6.323   7.140
33790SOL     OW 3143   6.341  11.320  12.566
33790SOL    HW1 3144   6.335  11.263  12.490
33790SOL    HW2 3145   6.433  11.319  12.590
33791SOL     OW 3146  14.393   2.879  10.232
33791SOL    HW1 3147  14.302   2.877  10.202
33791SOL    HW2 3148  14.420   2.787  10.232
33792SOL     OW 3149  13.881   0.263   5.372
33792SOL    HW1 3150  13.863   0.209   5.295
33792SOL    HW2 3151  13.964   0.230   5.406
33793SOL     OW 3152   1.355   9.883   4.138
33793SOL    HW1 3153   1.417   9.811   4.129
33793SOL    HW2 3154   1.391   9.953   4.084
33794SOL     OW 3155  14.772   4.886   3.974
33794SOL    HW1 3156  14.772   4.981   3.990
33794SOL    HW2 3157  14.861   4.859   3.994
33795SOL     OW 3158   3.321   1.397   7.981
33795SOL    HW1 3159   3.226   1.399   7.988
33795SOL    HW2 3160   3.348   1.487   7.996
33796SOL     OW 3161  11.462   4.990  10.981
33796SOL    HW1 3162  11.391   5.035  11.026
33796SOL    HW2 3163  11.424   4.961  10.898
33797SOL     OW 3164  14.301   2.639  11.256
33797SOL    HW1 3165  14.351   2.606  11.331
33797SOL    HW2 3166  14.335   2.589  11.181
33798SOL     OW 3167  10.053  10.211   7.638
33798SOL    HW1 3168   9.987  10.144   7.624
33798SOL    HW2 3169  10.076  10.242   7.550
33799SOL     OW 3170   6.862   1.244  14.127
33799SOL    HW1 3171   6.814   1.164  14.106
33799SOL    HW2 3172   6.843   1.304  14.054
33800SOL     OW 3173   1.188   6.672  10.814
33800SOL    HW1 3174   1.128   6.736  10.853
33800SOL    HW2 3175   1.275   6.701  10.841
33801SOL     OW 3176  13.364   3.798   5.037
33801SOL    HW1 3177  13.307   3.768   4.966
33801SOL    HW2 3178  13.305   3.843   5.097
33802SOL     OW 3179  13.205   0.710   3.466
33802SOL    HW1 3180  13.228   0.792   3.422
33802SOL    HW2 3181  13.289   0.667   3.480
33803SOL     OW 3182   8.377   6.341   0.203
33803SOL    HW1 3183   8.440   6.399   0.160
33803SOL    HW2 3184   8.348   6.390   0.280
33804SOL     OW 3185   8.566  14.779  11.423
33804SOL    HW1 3186   8.498  14.844  11.443
33804SOL    HW2 3187   8.597  14.802  11.335
33805SOL     OW 3188  12.742   3.563   9.801
33805SOL    HW1 3189  12.653   3.527   9.792
33805SOL    HW2 3190  12.736   3.623   9.874
33806SOL     OW 3191   4.947  10.397  10.050
33806SOL    HW1 3192   4.949  10.374   9.957
33806SOL    HW2 3193   4.985  10.321  10.095
33807SOL     OW 3194   4.317   1.081   3.760
33807SOL    HW1 3195   4.412   1.077   3.771
33807SOL    HW2 3196   4.295   1.001   3.712
33808SOL     OW 3197   4.191   9.040   8.455
33808SOL    HW1 3198   4.103   9.030   8.420
33808SOL    HW2 3199   4.216   8.952   8.483
33809SOL     OW 3200   1.150   0.196  13.716
33809SOL    HW1 3201   1.104   0.227  13.638
33809SOL    HW2 3202   1.209   0.128  13.683
33810SOL     OW 3203   4.636   8.079   3.621
33810SOL    HW1 3204   4.687   8.005   3.587
33810SOL    HW2 3205   4.602   8.049   3.705
33811SOL     OW 3206   1.078   9.314   0.789
33811SOL    HW1 3207   1.166   9.313   0.825
33811SOL    HW2 3208   1.082   9.380   0.719
33812SOL     OW 3209   3.972   3.144   0.837
33812SOL    HW1 3210   4.059   3.171   0.809
33812SOL    HW2 3211   3.924   3.225   0.850
33813SOL     OW 3212   2.337   0.041   7.269
33813SOL    HW1 3213   2.260   0.049   7.213
33813SOL    HW2 3214   2.367   0.132   7.282
33814SOL     OW 3215   2.508   5.320   4.636
33814SOL    HW1 3216   2.575   5.272   4.588
33814SOL    HW2 3217   2.557   5.381   4.691
33815SOL     OW 3218   4.395  12.546   7.770
33815SOL    HW1 3219   4.428  12.611   7.832
33815SOL    HW2 3220   4.451  12.469   7.784
33816SOL     OW 3221  13.742  14.322  14.491
33816SOL    HW1 3222  13.746  14.291  14.582
33816SOL    HW2 3223  13.829  14.303  14.456
33817SOL     OW 3224  11.371   1.022   8.174
33817SOL    HW1 3225  11.349   0.935   8.209
33817SOL    HW2 3226  11.290   1.053   8.134
33818SOL     OW 3227  11.510   3.354   3.638
33818SOL    HW1 3228  11.524   3.326   3.548
33818SOL    HW2 3229  11.446   3.424   3.632
33819SOL     OW 3230   2.643  14.487   4.352
33819SOL    HW1 3231   2.707  14.426   4.388
33819SOL    HW2 3232   2.643  14.470   4.258
33820SOL     OW 3233  14.022   6.215  14.628
33820SOL    HW1 3234  13.967   6.186  14.700
33820SOL    HW2 3235  13.965   6.271  14.575
33821SOL     OW 3236  10.883   5.244   8.864
33821SOL    HW1 3237  10.868   5.316   8.804
33821SOL    HW2 3238  10.877   5.165   8.810
33822SOL     OW 3239  13.070   3.392   7.311
33822SOL    HW1 3240  13.050   3.484   7.294
33822SOL    HW2 3241  12.993   3.344   7.280
33823SOL     OW 3242  14.236  13.468  11.829
33823SOL    HW1 3243  14.174  13.405  11.792
33823SOL    HW2 3244  14.309  13.413  11.859
33824SOL     OW 3245  12.931   5.583   5.326
33824SOL    HW1 3246  12.893   5.522   5.262
33824SOL    HW2 3247  13.018   5.547   5.344
33825SOL     OW 3248   6.210   2.794  12.146
33825SOL    HW1 3249   6.125   2.790  12.189
33825SOL    HW2 3250   6.250   2.709  12.163
33826SOL     OW 3251  11.223  12.477   7.994
33826SOL    HW1 3252  11.248  12.401   7.942
33826SOL    HW2 3253  11.285  12.545   7.968
33827SOL     OW 3254   5.375   3.299  10.834
33827SOL    HW1 3255   5.408   3.361  10.898
33827SOL    HW2 3256   5.340   3.353  10.763
33828SOL     OW 3257  10.165   0.887   9.105
33828SOL    HW1 3258  10.126   0.909   9.020
33828SOL    HW2 3259  10.203   0.969   9.136
33829SOL     OW 3260   4.224  13.400  11.059
33829SOL    HW1 3261   4.189  13.312  11.042
33829SOL    HW2 3262   4.242  13.400  11.153
33830SOL     OW 3263   4.889  10.178   5.932
33830SOL    HW1 3264   4.926  10.146   6.014
33830SOL    HW2 3265   4.899  10.105   5.870
33831SOL     OW 3266   0.233   4.935  10.984
33831SOL    HW1 3267   0.208   4.953  10.893
33831SOL    HW2 3268   0.329   4.939  10.984
33832SOL     OW 3269  13.243   0.597   0.402
33832SOL    HW1 3270  13.244   0.528   0.469
33832SOL    HW2 3271  13.241   0.679   0.452
33833SOL     OW 3272  10.361   4.574   8.520
33833SOL    HW1 3273  10.351   4.610   8.608
33833SOL    HW2 3274  10.293   4.616   8.468
33834SOL     OW 3275   0.039   9.343   5.383
33834SOL    HW1 3276   0.068   9.431   5.404
33834SOL    HW2 3277   0.073   9.289   5.455
33835SOL     OW 3278  14.740   6.574   1.247
33835SOL    HW1 3279  14.755   6.661   1.282
33835SOL    HW2 3280  14.779   6.515   1.312
33836SOL     OW 3281   5.728   6.085   1.744
33836SOL    HW1 3282   5.692   6.080   1.656
33836SOL    HW2 3283   5.748   6.178   1.756
33837SOL     OW 3284  13.417   0.457  12.987
33837SOL    HW1 3285  13.505   0.426  12.967
33837SOL    HW2 3286  13.429   0.522  13.057
33838SOL     OW 3287   0.389  14.639  10.303
33838SOL    HW1 3288   0.482  14.635  10.325
33838SOL    HW2 3289   0.360  14.722  10.341
33839SOL     OW 3290  10.099   4.771  13.387
33839SOL    HW1 3291  10.024   4.732  13.342
33839SOL    HW2 3292  10.082   4.757  13.480
33840SOL     OW 3293   0.130   6.156   1.136
33840SOL    HW1 3294   0.205   6.103   1.162
33840SOL    HW2 3295   0.142   6.171   1.042
33841SOL     OW 3296  12.330   3.166  10.015
33841SOL    HW1 3297  12.251   3.171   9.962
33841SOL    HW2 3298  12.401   3.152   9.952
33842SOL     OW 3299   9.455   7.495   9.079
33842SOL    HW1 3300   9.412   7.536   9.155
33842SOL    HW2 3301   9.393   7.506   9.008
33843SOL     OW 3302   4.612  10.589  14.118
33843SOL    HW1 3303   4.550  10.650  14.077
33843SOL    HW2 3304   4.568  10.560  14.197
33844SOL     OW 3305   8.658  14.055   4.844
33844SOL    HW1 3306   8.579  14.102   4.872
33844SOL    HW2 3307   8.724  14.123   4.834
33845SOL     OW 3308  12.441   8.219   0.179
33845SOL    HW1 3309  12.516   8.272   0.206
33845SOL    HW2 3310  12.405   8.265   0.103
33846SOL     OW 3311   4.674  14.632  10.796
33846SOL    HW1 3312   4.766  14.607  10.787
33846SOL    HW2 3313   4.669  14.675  10.881
33847SOL     OW 3314   7.516  12.916   2.074
33847SOL    HW1 3315   7.522  12.989   2.013
33847SOL    HW2 3316   7.436  12.870   2.049
33848SOL     OW 3317  10.783  13.109   2.828
33848SOL    HW1 3318  10.783  13.049   2.754
33848SOL    HW2 3319  10.845  13.177   2.803
33849SOL     OW 3320  10.419   3.600  11.613
33849SOL    HW1 3321  10.487   3.595  11.546
33849SOL    HW2 3322  10.382   3.511  11.615
33850SOL     OW 3323   5.735   7.500   5.566
33850SOL    HW1 3324   5.797   7.526   5.634
33850SOL    HW2 3325   5.732   7.405   5.572
33851SOL     OW 3326   6.407   3.722  14.835
33851SOL    HW1 3327   6.432   3.779   0.030
33851SOL    HW2 3328   6.323   3.757  14.806
33852SOL     OW 3329   3.010   2.148  13.324
33852SOL    HW1 3330   3.006   2.108  13.237
33852SOL    HW2 3331   2.918   2.165  13.347
33853SOL     OW 3332  11.711  12.254   9.134
33853SOL    HW1 3333  11.666  12.171   9.147
33853SOL    HW2 3334  11.675  12.312   9.202
33854SOL     OW 3335   9.111   7.036   5.181
33854SOL    HW1 3336   9.164   7.087   5.121
33854SOL    HW2 3337   9.134   6.945   5.162
33855SOL     OW 3338  11.748   5.684   8.187
33855SOL    HW1 3339  11.653   5.693   8.186
33855SOL    HW2 3340  11.770   5.650   8.100
33856SOL     OW 3341  10.237   5.237   8.254
33856SOL    HW1 3342  10.233   5.221   8.348
33856SOL    HW2 3343  10.302   5.307   8.244
33857SOL     OW 3344   1.632  12.977   7.945
33857SOL    HW1 3345   1.570  13.050   7.943
33857SOL    HW2 3346   1.662  12.969   7.855
33858SOL     OW 3347   1.808   6.530   7.973
33858SOL    HW1 3348   1.870   6.459   7.985
33858SOL    HW2 3349   1.722   6.488   7.975
33859SOL     OW 3350   1.160   4.817   0.171
33859SOL    HW1 3351   1.119   4.757   0.234
33859SOL    HW2 3352   1.188   4.761   0.099
33860SOL     OW 3353  13.921   8.077   8.931
33860SOL    HW1 3354  13.949   8.026   8.855
33860SOL    HW2 3355  13.830   8.050   8.946
33861SOL     OW 3356   1.757   5.551  13.199
33861SOL    HW1 3357   1.757   5.594  13.113
33861SOL    HW2 3358   1.848   5.556  13.228
33862SOL     OW 3359   4.264   8.137   1.478
33862SOL    HW1 3360   4.174   8.132   1.448
33862SOL    HW2 3361   4.303   8.208   1.426
33863SOL     OW 3362   5.614  13.791   4.662
33863SOL    HW1 3363   5.528  13.784   4.703
33863SOL    HW2 3364   5.596  13.790   4.568
33864SOL     OW 3365  12.170  10.430   5.831
33864SOL    HW1 3366  12.229  10.494   5.793
33864SOL    HW2 3367  12.226  10.356   5.853
33865SOL     OW 3368  11.690  14.399   8.902
33865SOL    HW1 3369  11.722  14.485   8.873
33865SOL    HW2 3370  11.594  14.409   8.902
33866SOL     OW 3371  12.704   7.073  14.324
33866SOL    HW1 3372  12.789   7.031  14.315
33866SOL    HW2 3373  12.719   7.164  14.298
33867SOL     OW 3374   3.922   2.781   5.362
33867SOL    HW1 3375   3.909   2.850   5.296
33867SOL    HW2 3376   3.833   2.752   5.384
33868SOL     OW 3377  12.101   3.079  13.975
33868SOL    HW1 3378  12.087   3.052  13.884
33868SOL    HW2 3379  12.098   2.997  14.025
33869SOL     OW 3380   5.804   7.689   3.282
33869SOL    HW1 3381   5.791   7.769   3.334
33869SOL    HW2 3382   5.746   7.700   3.207
33870SOL     OW 3383   2.791  10.565  12.589
33870SOL    HW1 3384   2.825  10.638  12.641
33870SOL    HW2 3385   2.828  10.487  12.629
33871SOL     OW 3386  12.732   0.509  11.204
33871SOL    HW1 3387  12.818   0.517  11.164
33871SOL    HW2 3388  12.672   0.493  11.131
33872SOL     OW 3389  13.931   7.767  10.547
33872SOL    HW1 3390  13.888   7.822  10.613
33872SOL    HW2 3391  13.938   7.823  10.470
33873SOL     OW 3392   9.720   6.411   3.076
33873SOL    HW1 3393   9.725   6.315   3.075
33873SOL    HW2 3394   9.628   6.431   3.062
33874SOL     OW 3395   9.664   1.387   9.350
33874SOL    HW1 3396   9.660   1.413   9.258
33874SOL    HW2 3397   9.755   1.361   9.363
33875SOL     OW 3398   0.149   5.881   5.737
33875SOL    HW1 3399   0.091   5.898   5.663
33875SOL    HW2 3400   0.146   5.786   5.748
33876SOL     OW 3401   4.550   7.958  12.073
33876SOL    HW1 3402   4.527   8.022  12.141
33876SOL    HW2 3403   4.631   7.918  12.104
33877SOL     OW 3404   3.994  13.708   1.959
33877SOL    HW1 3405   3.944  13.778   2.001
33877SOL    HW2 3406   4.009  13.644   2.028
33878SOL     OW 3407   0.465   6.267   8.798
33878SOL    HW1 3408   0.559   6.285   8.791
33878SOL    HW2 3409   0.431   6.338   8.852
33879SOL     OW 3410   9.334   4.003   6.079
33879SOL    HW1 3411   9.349   4.092   6.048
33879SOL    HW2 3412   9.409   3.985   6.137
33880SOL     OW 3413   7.967   3.344   8.923
33880SOL    HW1 3414   7.921   3.369   9.002
33880SOL    HW2 3415   8.058   3.370   8.938
33881SOL     OW 3416   4.073   0.760   1.220
33881SOL    HW1 3417   3.986   0.721   1.208
33881SOL    HW2 3418   4.108   0.768   1.132
33882SOL     OW 3419  13.348   4.564   0.055
33882SOL    HW1 3420  13.378   4.504  14.864
33882SOL    HW2 3421  13.419   4.627   0.065
33883SOL     OW 3422  13.401   0.999   7.181
33883SOL    HW1 3423  13.400   1.018   7.087
33883SOL    HW2 3424  13.430   0.908   7.187
33884SOL     OW 3425   1.797   8.312   2.976
33884SOL    HW1 3426   1.749   8.353   3.049
33884SOL    HW2 3427   1.780   8.370   2.902
33885SOL     OW 3428   1.764   5.851   3.331
33885SOL    HW1 3429   1.853   5.825   3.355
33885SOL    HW2 3430   1.725   5.773   3.292
33886SOL     OW 3431   3.200   1.011  13.576
33886SOL    HW1 3432   3.160   0.987  13.660
33886SOL    HW2 3433   3.250   0.933  13.551
33887SOL     OW 3434   0.988   5.782   5.612
33887SOL    HW1 3435   0.946   5.804   5.529
33887SOL    HW2 3436   1.031   5.698   5.595
33888SOL     OW 3437  11.904   1.691   9.659
33888SOL    HW1 3438  11.959   1.666   9.584
33888SOL    HW2 3439  11.835   1.745   9.621
33889SOL     OW 3440   1.417   3.062   7.165
33889SOL    HW1 3441   1.492   3.014   7.131
33889SOL    HW2 3442   1.445   3.095   7.250
33890SOL     OW 3443  14.712   3.042   9.813
33890SOL    HW1 3444  14.690   3.035   9.906
33890SOL    HW2 3445  14.799   3.003   9.805
33891SOL     OW 3446   5.794   5.569   1.551
33891SOL    HW1 3447   5.764   5.488   1.592
33891SOL    HW2 3448   5.720   5.629   1.561
33892SOL     OW 3449   5.244   8.015   2.301
33892SOL    HW1 3450   5.185   7.997   2.374
33892SOL    HW2 3451   5.270   7.928   2.269
33893SOL     OW 3452  13.195   2.721  14.231
33893SOL    HW1 3453  13.257   2.695  14.298
33893SOL    HW2 3454  13.159   2.638  14.198
33894SOL     OW 3455  10.257  14.638   8.984
33894SOL    HW1 3456  10.279  14.579   9.056
33894SOL    HW2 3457  10.195  14.700   9.022
33895SOL     OW 3458  11.182   0.964   4.962
33895SOL    HW1 3459  11.243   1.026   5.003
33895SOL    HW2 3460  11.155   1.008   4.881
33896SOL     OW 3461   3.436   3.888   6.621
33896SOL    HW1 3462   3.399   3.846   6.543
33896SOL    HW2 3463   3.461   3.815   6.678
33897SOL     OW 3464   6.069  10.271  11.467
33897SOL    HW1 3465   6.140  10.233  11.518
33897SOL    HW2 3466   6.113  10.328  11.403
33898SOL     OW 3467   7.130  12.816   0.307
33898SOL    HW1 3468   7.163  12.744   0.361
33898SOL    HW2 3469   7.094  12.773   0.230
33899SOL     OW 3470  11.427  14.738   9.530
33899SOL    HW1 3471  11.457  14.704   9.446
33899SOL    HW2 3472  11.397  14.661   9.578
33900SOL     OW 3473  14.516   0.256   9.488
33900SOL    HW1 3474  14.574   0.304   9.430
33900SOL    HW2 3475  14.546   0.166   9.483
33901SOL     OW 3476   9.128   5.558   0.168
33901SOL    HW1 3477   9.151   5.565   0.075
33901SOL    HW2 3478   9.050   5.501   0.169
33902SOL     OW 3479  11.218   5.782  14.256
33902SOL    HW1 3480  11.182   5.713  14.201
33902SOL    HW2 3481  11.206   5.862  14.205
33903SOL     OW 3482  12.812   7.531  10.637
33903SOL    HW1 3483  12.768   7.608  10.673
33903SOL    HW2 3484  12.759   7.457  10.667
33904SOL     OW 3485  10.428  14.468   3.915
33904SOL    HW1 3486  10.517  14.469   3.880
33904SOL    HW2 3487  10.439  14.485   4.009
33905SOL     OW 3488   6.154   4.242   7.354
33905SOL    HW1 3489   6.066   4.278   7.363
33905SOL    HW2 3490   6.150   4.185   7.278
33906SOL     OW 3491  11.218   2.575   8.846
33906SOL    HW1 3492  11.123   2.582   8.857
33906SOL    HW2 3493  11.234   2.606   8.757
33907SOL     OW 3494  10.516   5.421  12.396
33907SOL    HW1 3495  10.532   5.416  12.490
33907SOL    HW2 3496  10.546   5.509  12.371
33908SOL     OW 3497   0.563   7.927  13.200
33908SOL    HW1 3498   0.518   7.968  13.126
33908SOL    HW2 3499   0.559   7.833  13.182
33909SOL     OW 3500  14.658   7.671   7.925
33909SOL    HW1 3501  14.583   7.709   7.879
33909SOL    HW2 3502  14.693   7.606   7.865
33910SOL     OW 3503   5.998   6.389  14.584
33910SOL    HW1 3504   6.014   6.360  14.673
33910SOL    HW2 3505   6.062   6.459  14.569
33911SOL     OW 3506   2.280   5.347  11.756
33911SOL    HW1 3507   2.352   5.294  11.723
33911SOL    HW2 3508   2.257   5.405  11.684
33912SOL     OW 3509   5.718   1.471   1.896
33912SOL    HW1 3510   5.711   1.563   1.872
33912SOL    HW2 3511   5.664   1.462   1.975
33913SOL     OW 3512   1.010   3.174   6.763
33913SOL    HW1 3513   1.062   3.117   6.820
33913SOL    HW2 3514   0.967   3.235   6.822
33914SOL     OW 3515   4.708  11.473   8.303
33914SOL    HW1 3516   4.669  11.468   8.216
33914SOL    HW2 3517   4.791  11.426   8.294
33915SOL     OW 3518   1.262  11.586   9.709
33915SOL    HW1 3519   1.338  11.641   9.726
33915SOL    HW2 3520   1.196  11.647   9.676
33916SOL     OW 3521  13.122   1.495   1.365
33916SOL    HW1 3522  13.079   1.489   1.450
33916SOL    HW2 3523  13.188   1.564   1.376
33917SOL     OW 3524  10.634   1.562  12.270
33917SOL    HW1 3525  10.552   1.569  12.221
33917SOL    HW2 3526  10.677   1.646  12.256
33918SOL     OW 3527  13.761   5.057  10.579
33918SOL    HW1 3528  13.801   5.034  10.495
33918SOL    HW2 3529  13.667   5.064  10.559
33919SOL     OW 3530   2.425   4.200   0.388
33919SOL    HW1 3531   2.449   4.290   0.408
33919SOL    HW2 3532   2.504   4.149   0.407
33920SOL     OW 3533   9.785   2.207   7.855
33920SOL    HW1 3534   9.815   2.228   7.944
33920SOL    HW2 3535   9.693   2.237   7.854
33921SOL     OW 3536   2.273   3.677   1.509
33921SOL    HW1 3537   2.300   3.746   1.449
33921SOL    HW2 3538   2.354   3.651   1.553
33922SOL     OW 3539  13.115   1.918   1.072
33922SOL    HW1 3540  13.085   1.988   1.015
33922SOL    HW2 3541  13.109   1.839   1.019
33923SOL     OW 3542   2.951  10.190  11.370
33923SOL    HW1 3543   2.994  10.117  11.414
33923SOL    HW2 3544   2.963  10.264  11.429
33924SOL     OW 3545  14.329   1.250  10.847
33924SOL    HW1 3546  14.307   1.171  10.797
33924SOL    HW2 3547  14.405   1.285  10.802
33925SOL     OW 3548  13.850   3.485  11.309
33925SOL    HW1 3549  13.811   3.460  11.392
33925SOL    HW2 3550  13.776   3.519  11.257
33926SOL     OW 3551  12.411   9.748   6.743
33926SOL    HW1 3552  12.457   9.685   6.798
33926SOL    HW2 3553  12.385   9.818   6.803
33927SOL     OW 3554   9.522  13.812   4.944
33927SOL    HW1 3555   9.555  13.747   5.005
33927SOL    HW2 3556   9.436  13.780   4.919
33928SOL     OW 3557  14.405  10.157  12.674
33928SOL    HW1 3558  14.431  10.217  12.744
33928SOL    HW2 3559  14.474  10.165  12.609
33929SOL     OW 3560   9.257   2.995   9.799
33929SOL    HW1 3561   9.301   2.924   9.753
33929SOL    HW2 3562   9.171   2.961   9.821
33930SOL     OW 3563   6.942   5.235   4.274
33930SOL    HW1 3564   6.901   5.243   4.188
33930SOL    HW2 3565   6.899   5.159   4.314
33931SOL     OW 3566  11.112   4.865  12.363
33931SOL    HW1 3567  11.068   4.855  12.279
33931SOL    HW2 3568  11.127   4.959  12.372
33932SOL     OW 3569   8.785   5.931   5.125
33932SOL    HW1 3570   8.873   5.957   5.154
33932SOL    HW2 3571   8.774   5.841   5.156
33933SOL     OW 3572   9.124   3.378   3.701
33933SOL    HW1 3573   9.161   3.391   3.788
33933SOL    HW2 3574   9.198   3.351   3.647
33934SOL     OW 3575   6.868  10.379   1.070
33934SOL    HW1 3576   6.892  10.301   1.021
33934SOL    HW2 3577   6.895  10.361   1.160
33935SOL     OW 3578  11.234  10.941   9.157
33935SOL    HW1 3579  11.294  11.008   9.190
33935SOL    HW2 3580  11.162  10.941   9.220
33936SOL     OW 3581   4.800   7.569   4.505
33936SOL    HW1 3582   4.843   7.526   4.579
33936SOL    HW2 3583   4.827   7.518   4.428
33937SOL     OW 3584  10.011  13.128   9.905
33937SOL    HW1 3585  10.023  13.203   9.846
33937SOL    HW2 3586  10.055  13.154   9.986
33938SOL     OW 3587  11.560   1.639   0.143
33938SOL    HW1 3588  11.602   1.565   0.101
33938SOL    HW2 3589  11.557   1.707   0.076
33939SOL     OW 3590   0.812   8.771  13.388
33939SOL    HW1 3591   0.732   8.786  13.439
33939SOL    HW2 3592   0.784   8.717  13.314
33940SOL     OW 3593   0.816  11.622   7.206
33940SOL    HW1 3594   0.872  11.546   7.215
33940SOL    HW2 3595   0.745  11.593   7.148
33941SOL     OW 3596  12.870   9.877   3.883
33941SOL    HW1 3597  12.812   9.887   3.958
33941SOL    HW2 3598  12.958   9.874   3.921
33942SOL     OW 3599   1.113   9.548   9.322
33942SOL    HW1 3600   1.200   9.553   9.362
33942SOL    HW2 3601   1.081   9.461   9.347
33943SOL     OW 3602   3.848   1.910   9.559
33943SOL    HW1 3603   3.916   1.869   9.506
33943SOL    HW2 3604   3.773   1.918   9.499
33944SOL     OW 3605   1.514   1.735   5.796
33944SOL    HW1 3606   1.609   1.743   5.782
33944SOL    HW2 3607   1.499   1.641   5.807
33945SOL     OW 3608  13.390   3.855   1.704
33945SOL    HW1 3609  13.429   3.936   1.736
33945SOL    HW2 3610  13.422   3.847   1.614
33946SOL     OW 3611   4.727   2.549   3.097
33946SOL    HW1 3612   4.765   2.576   3.181
33946SOL    HW2 3613   4.721   2.629   3.046
33947SOL     OW 3614  10.094  11.027   8.179
33947SOL    HW1 3615  10.078  11.118   8.204
33947SOL    HW2 3616  10.159  11.033   8.109
33948SOL     OW 3617   6.345   3.693   3.854
33948SOL    HW1 3618   6.347   3.697   3.950
33948SOL    HW2 3619   6.410   3.756   3.826
33949SOL     OW 3620   3.540  13.612   2.040
33949SOL    HW1 3621   3.473  13.561   2.085
33949SOL    HW2 3622   3.555  13.687   2.096
33950SOL     OW 3623  10.245   6.519   3.212
33950SOL    HW1 3624  10.161   6.549   3.246
33950SOL    HW2 3625  10.259   6.570   3.133
33951SOL     OW 3626  11.080   5.716  12.450
33951SOL    HW1 3627  11.065   5.674  12.535
33951SOL    HW2 3628  10.999   5.701  12.401
33952SOL     OW 3629  14.673  13.842   8.388
33952SOL    HW1 3630  14.705  13.785   8.457
33952SOL    HW2 3631  14.752  13.880   8.350
33953SOL     OW 3632   5.298   7.111  11.960
33953SOL    HW1 3633   5.284   7.136  12.051
33953SOL    HW2 3634   5.378   7.156  11.934
33954SOL     OW 3635  10.353  10.897   7.005
33954SOL    HW1 3636  10.405  10.918   6.928
33954SOL    HW2 3637  10.375  10.806   7.024
33955SOL     OW 3638  10.501  13.035   7.276
33955SOL    HW1 3639  10.430  12.989   7.230
33955SOL    HW2 3640  10.478  13.128   7.268
33956SOL     OW 3641   8.474   8.861  11.327
33956SOL    HW1 3642   8.482   8.867  11.422
33956SOL    HW2 3643   8.564   8.865  11.295
33957SOL     OW 3644  12.026  13.576  10.828
33957SOL    HW1 3645  11.954  13.574  10.765
33957SOL    HW2 3646  11.983  13.578  10.913
33958SOL     OW 3647   8.693   3.733   6.210
33958SOL    HW1 3648   8.635   3.657   6.212
33958SOL    HW2 3649   8.641   3.804   6.247
33959SOL     OW 3650  14.153   6.985   9.028
33959SOL    HW1 3651  14.195   6.991   8.942
33959SOL    HW2 3652  14.203   6.918   9.074
33960SOL     OW 3653   7.708   5.313   0.213
33960SOL    HW1 3654   7.793   5.276   0.188
33960SOL    HW2 3655   7.646   5.241   0.202
33961SOL     OW 3656   7.015  11.359   9.662
33961SOL    HW1 3657   6.927  11.385   9.687
33961SOL    HW2 3658   7.064  11.356   9.745
33962SOL     OW 3659   5.468  14.386   7.750
33962SOL    HW1 3660   5.468  14.465   7.695
33962SOL    HW2 3661   5.540  14.400   7.812
33963SOL     OW 3662  13.376   3.548   3.032
33963SOL    HW1 3663  13.402   3.523   2.943
33963SOL    HW2 3664  13.454   3.534   3.085
33964SOL     OW 3665   7.755  11.354   1.475
33964SOL    HW1 3666   7.850  11.363   1.477
33964SOL    HW2 3667   7.727  11.407   1.401
33965SOL     OW 3668  13.231   9.460  10.158
33965SOL    HW1 3669  13.176   9.483  10.233
33965SOL    HW2 3670  13.297   9.529  10.154
33966SOL     OW 3671  10.993  13.999   1.466
33966SOL    HW1 3672  10.992  14.079   1.412
33966SOL    HW2 3673  11.071  13.951   1.437
33967SOL     OW 3674  10.968   9.608   3.703
33967SOL    HW1 3675  10.927   9.522   3.695
33967SOL    HW2 3676  11.062   9.591   3.697
33968SOL     OW 3677  13.353   5.415   3.082
33968SOL    HW1 3678  13.409   5.337   3.077
33968SOL    HW2 3679  13.365   5.459   2.998
33969SOL     OW 3680   3.839  10.318   0.411
33969SOL    HW1 3681   3.765  10.300   0.353
33969SOL    HW2 3682   3.805  10.307   0.499
33970SOL     OW 3683  12.707   0.587   9.104
33970SOL    HW1 3684  12.728   0.493   9.106
33970SOL    HW2 3685  12.790   0.630   9.088
33971SOL     OW 3686   2.208   9.764   7.631
33971SOL    HW1 3687   2.301   9.782   7.618
33971SOL    HW2 3688   2.163   9.837   7.588
33972SOL     OW 3689   9.332  12.741  12.890
33972SOL    HW1 3690   9.336  12.792  12.971
33972SOL    HW2 3691   9.320  12.806  12.821
33973SOL     OW 3692  10.371   0.477  11.589
33973SOL    HW1 3693  10.460   0.508  11.606
33973SOL    HW2 3694  10.320   0.510  11.663
33974SOL     OW 3695  13.909  11.160   9.730
33974SOL    HW1 3696  13.969  11.229   9.701
33974SOL    HW2 3697  13.823  11.202   9.730
33975SOL     OW 3698  11.529  14.418  10.446
33975SOL    HW1 3699  11.618  14.453  10.454
33975SOL    HW2 3700  11.486  14.443  10.528
33976SOL     OW 3701  12.482   6.195   0.517
33976SOL    HW1 3702  12.407   6.253   0.509
33976SOL    HW2 3703  12.477   6.138   0.440
33977SOL     OW 3704  14.829   2.318  14.015
33977SOL    HW1 3705  14.868   2.335  14.101
33977SOL    HW2 3706  14.747   2.272  14.035
33978SOL     OW 3707   8.860  12.146   8.551
33978SOL    HW1 3708   8.803  12.210   8.509
33978SOL    HW2 3709   8.913  12.110   8.479
33979SOL     OW 3710   9.644  13.180  12.540
33979SOL    HW1 3711   9.717  13.170  12.602
33979SOL    HW2 3712   9.664  13.119  12.470
33980SOL     OW 3713   9.876  11.300   8.881
33980SOL    HW1 3714   9.885  11.247   8.802
33980SOL    HW2 3715   9.954  11.355   8.883
33981SOL     OW 3716   0.815  12.670   9.802
33981SOL    HW1 3717   0.730  12.659   9.844
33981SOL    HW2 3718   0.797  12.660   9.709
33982SOL     OW 3719  11.267   7.827   7.223
33982SOL    HW1 3720  11.292   7.861   7.309
33982SOL    HW2 3721  11.228   7.902   7.178
33983SOL     OW 3722   9.266  10.091   7.576
33983SOL    HW1 3723   9.175  10.117   7.592
33983SOL    HW2 3724   9.261   9.997   7.559
33984SOL     OW 3725   7.911   5.218   6.284
33984SOL    HW1 3726   7.841   5.153   6.290
33984SOL    HW2 3727   7.989   5.167   6.262
33985SOL     OW 3728   1.754  10.264   1.538
33985SOL    HW1 3729   1.666  10.245   1.506
33985SOL    HW2 3730   1.757  10.359   1.546
33986SOL     OW 3731   6.796  14.363  13.648
33986SOL    HW1 3732   6.732  14.359  13.719
33986SOL    HW2 3733   6.880  14.350  13.691
33987SOL     OW 3734   2.522  13.433   5.042
33987SOL    HW1 3735   2.572  13.515   5.029
33987SOL    HW2 3736   2.581  13.377   5.092
33988SOL     OW 3737   7.292   6.535  13.923
33988SOL    HW1 3738   7.364   6.526  13.860
33988SOL    HW2 3739   7.251   6.449  13.926
33989SOL     OW 3740  13.270  10.009   9.462
33989SOL    HW1 3741  13.342   9.976   9.409
33989SOL    HW2 3742  13.266  10.102   9.444
33990SOL     OW 3743   3.537   6.989   9.956
33990SOL    HW1 3744   3.542   6.894   9.940
33990SOL    HW2 3745   3.625   7.021   9.934
33991SOL     OW 3746  12.048   4.296   0.381
33991SOL    HW1 3747  12.023   4.309   0.290
33991SOL    HW2 3748  12.138   4.264   0.377
33992SOL     OW 3749   1.049  11.264  10.311
33992SOL    HW1 3750   1.100  11.183  10.304
33992SOL    HW2 3751   1.096  11.327  10.258
33993SOL     OW 3752   4.080  10.100   1.590
33993SOL    HW1 3753   4.133  10.056   1.524
33993SOL    HW2 3754   4.045  10.029   1.644
33994SOL     OW 3755   0.041   8.955   0.544
33994SOL    HW1 3756   0.028   8.874   0.593
33994SOL    HW2 3757   0.135   8.960   0.529
33995SOL     OW 3758   2.659   9.081  13.385
33995SOL    HW1 3759   2.647   9.029  13.306
33995SOL    HW2 3760   2.754   9.090  13.394
33996SOL     OW 3761  10.114   5.630   3.549
33996SOL    HW1 3762  10.051   5.677   3.604
33996SOL    HW2 3763  10.199   5.656   3.584
33997SOL     OW 3764   0.654   8.491   6.497
33997SOL    HW1 3765   0.625   8.559   6.558
33997SOL    HW2 3766   0.713   8.436   6.548
33998SOL     OW 3767   5.675  14.682   5.911
33998SOL    HW1 3768   5.730  14.677   5.989
33998SOL    HW2 3769   5.689  14.598   5.866
33999SOL     OW 3770  10.453  11.646  10.596
33999SOL    HW1 3771  10.548  11.655  10.596
33999SOL    HW2 3772  10.430  11.638  10.503
34000SOL     OW 3773   9.328   3.807  11.281
34000SOL    HW1 3774   9.412   3.762  11.274
34000SOL    HW2 3775   9.344   3.892  11.239
34001SOL     OW 3776  12.568  11.768  13.107
34001SOL    HW1 3777  12.647  11.776  13.053
34001SOL    HW2 3778  12.500  11.740  13.045
34002SOL     OW 3779  11.065   8.234   2.487
34002SOL    HW1 3780  11.156   8.249   2.461
34002SOL    HW2 3781  11.025   8.320   2.485
34003SOL     OW 3782   2.772  11.030   9.662
34003SOL    HW1 3783   2.704  11.098   9.662
34003SOL    HW2 3784   2.752  10.976   9.585
34004SOL     OW 3785   4.525  11.694  14.307
34004SOL    HW1 3786   4.449  11.647  14.272
34004SOL    HW2 3787   4.487  11.771  14.350
34005SOL     OW 3788  11.353   1.280  13.655
34005SOL    HW1 3789  11.443   1.311  13.657
34005SOL    HW2 3790  11.360   1.185  13.664
34006SOL     OW 3791   0.414   3.721  12.405
34006SOL    HW1 3792   0.463   3.800  12.384
34006SOL    HW2 3793   0.419   3.714  12.501
34007SOL     OW 3794   2.826  10.085   4.426
34007SOL    HW1 3795   2.904  10.067   4.374
34007SOL    HW2 3796   2.771  10.139   4.369
34008SOL     OW 3797  12.156   3.325   4.271
34008SOL    HW1 3798  12.074   3.371   4.291
34008SOL    HW2 3799  12.189   3.298   4.357
34009SOL     OW 3800   4.620  13.671   4.721
34009SOL    HW1 3801   4.575  13.749   4.688
34009SOL    HW2 3802   4.566  13.640   4.793
34010SOL     OW 3803   1.749   0.185   4.076
34010SOL    HW1 3804   1.838   0.167   4.047
34010SOL    HW2 3805   1.740   0.280   4.068
34011SOL     OW 3806   9.471  13.841  12.246
34011SOL    HW1 3807   9.525  13.804  12.176
34011SOL    HW2 3808   9.522  13.826  12.326
34012SOL     OW 3809   8.994   2.310   5.636
34012SOL    HW1 3810   9.036   2.286   5.718
34012SOL    HW2 3811   9.024   2.244   5.573
34013SOL     OW 3812   8.647  14.155   6.766
34013SOL    HW1 3813   8.738  14.153   6.739
34013SOL    HW2 3814   8.621  14.063   6.772
34014SOL     OW 3815   5.468  14.477  12.503
34014SOL    HW1 3816   5.395  14.492  12.564
34014SOL    HW2 3817   5.463  14.550  12.442
34015SOL     OW 3818  13.120   4.817  13.123
34015SOL    HW1 3819  13.037   4.844  13.161
34015SOL    HW2 3820  13.163   4.766  13.192
34016SOL     OW 3821   2.391   1.286   7.735
34016SOL    HW1 3822   2.449   1.223   7.691
34016SOL    HW2 3823   2.372   1.247   7.820
34017SOL     OW 3824  14.503   6.870   9.300
34017SOL    HW1 3825  14.590   6.907   9.284
34017SOL    HW2 3826  14.519   6.778   9.319
34018SOL     OW 3827   4.466   4.152   9.636
34018SOL    HW1 3828   4.495   4.073   9.590
34018SOL    HW2 3829   4.516   4.223   9.595
34019SOL     OW 3830  11.447   6.377   4.320
34019SOL    HW1 3831  11.359   6.414   4.320
34019SOL    HW2 3832  11.475   6.381   4.228
34020SOL     OW 3833  12.187   0.743   8.826
34020SOL    HW1 3834  12.237   0.726   8.906
34020SOL    HW2 3835  12.201   0.836   8.807
34021SOL     OW 3836  13.932   9.406   4.202
34021SOL    HW1 3837  14.015   9.440   4.167
34021SOL    HW2 3838  13.888   9.367   4.126
34022SOL     OW 3839   4.851   0.766   9.323
34022SOL    HW1 3840   4.945   0.779   9.334
34022SOL    HW2 3841   4.817   0.854   9.307
34023SOL     OW 3842   9.886  12.217   8.458
34023SOL    HW1 3843   9.944  12.265   8.518
34023SOL    HW2 3844   9.836  12.158   8.515
34024SOL     OW 3845   5.764  10.038   2.464
34024SOL    HW1 3846   5.699  10.089   2.513
34024SOL    HW2 3847   5.717   9.958   2.439
34025SOL     OW 3848   6.781   3.136   7.399
34025SOL    HW1 3849   6.826   3.072   7.454
34025SOL    HW2 3850   6.688   3.122   7.416
34026SOL     OW 3851  14.648   6.113   7.404
34026SOL    HW1 3852  14.722   6.064   7.438
34026SOL    HW2 3853  14.583   6.111   7.474
34027SOL     OW 3854   9.478   4.796   3.430
34027SOL    HW1 3855   9.537   4.866   3.460
34027SOL    HW2 3856   9.401   4.804   3.487
34028SOL     OW 3857   2.616   5.589   3.848
34028SOL    HW1 3858   2.641   5.525   3.915
34028SOL    HW2 3859   2.595   5.668   3.898
34029SOL     OW 3860   2.739   4.409  10.977
34029SOL    HW1 3861   2.812   4.347  10.971
34029SOL    HW2 3862   2.780   4.494  10.960
34030SOL     OW 3863   2.626   7.033   8.073
34030SOL    HW1 3864   2.644   7.104   8.134
34030SOL    HW2 3865   2.663   6.955   8.115
34031SOL     OW 3866   5.634   0.064   5.764
34031SOL    HW1 3867   5.579  14.867   5.743
34031SOL    HW2 3868   5.699   0.030   5.825
34032SOL     OW 3869   8.241   4.246   5.524
34032SOL    HW1 3870   8.244   4.287   5.610
34032SOL    HW2 3871   8.298   4.301   5.469
34033SOL     OW 3872  11.216   5.842  14.521
34033SOL    HW1 3873  11.286   5.787  14.556
34033SOL    HW2 3874  11.199   5.807  14.434
34034SOL     OW 3875   5.531  11.723  14.016
34034SOL    HW1 3876   5.525  11.629  13.999
34034SOL    HW2 3877   5.625  11.739  14.026
34035SOL     OW 3878  12.331  10.270   9.676
34035SOL    HW1 3879  12.384  10.236   9.749
34035SOL    HW2 3880  12.312  10.193   9.623
34036SOL     OW 3881   8.960   4.713  12.393
34036SOL    HW1 3882   8.922   4.798  12.371
34036SOL    HW2 3883   8.923   4.652  12.329
34037SOL     OW 3884   1.665  11.287   2.878
34037SOL    HW1 3885   1.598  11.228   2.914
34037SOL    HW2 3886   1.642  11.373   2.913
34038SOL     OW 3887  10.603   9.828  10.547
34038SOL    HW1 3888  10.669   9.792  10.607
34038SOL    HW2 3889  10.578   9.754  10.492
34039SOL     OW 3890  13.524   6.074   8.954
34039SOL    HW1 3891  13.458   6.143   8.951
34039SOL    HW2 3892  13.588   6.104   9.018
34040SOL     OW 3893   0.740   5.414  11.296
34040SOL    HW1 3894   0.684   5.458  11.233
34040SOL    HW2 3895   0.718   5.321  11.287
34041SOL     OW 3896  10.639  12.654   5.504
34041SOL    HW1 3897  10.724  12.694   5.486
34041SOL    HW2 3898  10.575  12.721   5.479
34042SOL     OW 3899   3.233  12.760  14.628
34042SOL    HW1 3900   3.147  12.725  14.653
34042SOL    HW2 3901   3.234  12.848  14.665
34043SOL     OW 3902   8.069  11.067  11.482
34043SOL    HW1 3903   8.027  11.121  11.549
34043SOL    HW2 3904   8.098  11.131  11.416
34044SOL     OW 3905  11.975   0.693   2.774
34044SOL    HW1 3906  12.016   0.634   2.837
34044SOL    HW2 3907  12.049   0.732   2.727
34045SOL     OW 3908   9.165   7.416  14.624
34045SOL    HW1 3909   9.099   7.422  14.555
34045SOL    HW2 3910   9.210   7.333  14.607
34046SOL     OW 3911  12.220   0.038   2.512
34046SOL    HW1 3912  12.128   0.066   2.519
34046SOL    HW2 3913  12.222  14.829   2.553
34047SOL     OW 3914  14.553  10.982   9.709
34047SOL    HW1 3915  14.581  11.073   9.708
34047SOL    HW2 3916  14.467  10.983   9.751
34048SOL     OW 3917   8.180  14.476   7.906
34048SOL    HW1 3918   8.226  14.468   7.990
34048SOL    HW2 3919   8.096  14.516   7.928
34049SOL     OW 3920  13.310  12.146   0.932
34049SOL    HW1 3921  13.242  12.117   0.993
34049SOL    HW2 3922  13.383  12.172   0.988
34050SOL     OW 3923   5.887   5.606   3.903
34050SOL    HW1 3924   5.867   5.570   3.990
34050SOL    HW2 3925   5.818   5.670   3.887
34051SOL     OW 3926  12.164  12.640  12.043
34051SOL    HW1 3927  12.142  12.563  12.095
34051SOL    HW2 3928  12.084  12.694  12.045
34052SOL     OW 3929   4.745   1.724   5.138
34052SOL    HW1 3930   4.831   1.681   5.129
34052SOL    HW2 3931   4.695   1.664   5.194
34053SOL     OW 3932  10.708   6.564   1.953
34053SOL    HW1 3933  10.745   6.652   1.944
34053SOL    HW2 3934  10.613   6.578   1.950
34054SOL     OW 3935   3.789   1.655   5.638
34054SOL    HW1 3936   3.819   1.711   5.709
34054SOL    HW2 3937   3.699   1.632   5.661
34055SOL     OW 3938   3.669   4.322   6.466
34055SOL    HW1 3939   3.751   4.273   6.466
34055SOL    HW2 3940   3.636   4.316   6.555
34056SOL     OW 3941   1.958   8.560  12.819
34056SOL    HW1 3942   1.899   8.627  12.784
34056SOL    HW2 3943   1.990   8.596  12.901
34057SOL     OW 3944  10.554   0.575  13.284
34057SOL    HW1 3945  10.564   0.487  13.248
34057SOL    HW2 3946  10.535   0.560  13.377
34058SOL     OW 3947   5.578   3.970  10.044
34058SOL    HW1 3948   5.554   3.968  10.136
34058SOL    HW2 3949   5.555   3.883  10.011
34059SOL     OW 3950  10.921   9.403  10.309
34059SOL    HW1 3951  10.952   9.317  10.337
34059SOL    HW2 3952  10.998   9.446  10.271
34060SOL     OW 3953   4.944  13.393   5.767
34060SOL    HW1 3954   5.006  13.450   5.721
34060SOL    HW2 3955   4.924  13.440   5.848
34061SOL     OW 3956  13.509   6.440   1.675
34061SOL    HW1 3957  13.465   6.428   1.759
34061SOL    HW2 3958  13.492   6.532   1.652
34062SOL     OW 3959   5.330   5.670   1.423
34062SOL    HW1 3960   5.256   5.638   1.371
34062SOL    HW2 3961   5.298   5.750   1.464
34063SOL     OW 3962   4.276   2.120   1.412
34063SOL    HW1 3963   4.181   2.125   1.416
34063SOL    HW2 3964   4.296   2.117   1.318
34064SOL     OW 3965   4.250   1.596   2.825
34064SOL    HW1 3966   4.240   1.503   2.846
34064SOL    HW2 3967   4.326   1.600   2.767
34065SOL     OW 3968   2.434   2.641   7.096
34065SOL    HW1 3969   2.389   2.560   7.121
34065SOL    HW2 3970   2.376   2.682   7.031
34066SOL     OW 3971   5.988   1.340   9.032
34066SOL    HW1 3972   5.912   1.398   9.038
34066SOL    HW2 3973   6.035   1.354   9.114
34067SOL     OW 3974   2.406   6.473   7.029
34067SOL    HW1 3975   2.442   6.386   7.049
34067SOL    HW2 3976   2.328   6.479   7.084
34068SOL     OW 3977  14.512   7.735   5.378
34068SOL    HW1 3978  14.602   7.729   5.346
34068SOL    HW2 3979  14.517   7.791   5.455
34069SOL     OW 3980  13.326  11.367  10.971
34069SOL    HW1 3981  13.387  11.416  11.026
34069SOL    HW2 3982  13.376  11.292  10.940
34070SOL     OW 3983   9.592  13.251   1.041
34070SOL    HW1 3984   9.499  13.235   1.026
34070SOL    HW2 3985   9.595  13.325   1.101
34071SOL     OW 3986  11.934   2.407  14.342
34071SOL    HW1 3987  11.943   2.315  14.367
34071SOL    HW2 3988  11.895   2.450  14.418
34072SOL     OW 3989   9.275   3.086  11.107
34072SOL    HW1 3990   9.266   3.175  11.143
34072SOL    HW2 3991   9.360   3.056  11.139
34073SOL     OW 3992   2.317   7.605   7.792
34073SOL    HW1 3993   2.272   7.542   7.736
34073SOL    HW2 3994   2.402   7.565   7.811
34074SOL     OW 3995   1.587   3.619   5.497
34074SOL    HW1 3996   1.627   3.643   5.414
34074SOL    HW2 3997   1.607   3.692   5.555
34075SOL     OW 3998  10.334   5.151  12.410
34075SOL    HW1 3999  10.417   5.157  12.457
34075SOL    HW2 4000  10.276   5.213  12.456
34076SOL     OW 4001   9.382   8.931   2.961
34076SOL    HW1 4002   9.408   8.900   2.874
34076SOL    HW2 4003   9.457   8.910   3.017
34077SOL     OW 4004  10.182   7.438  10.552
34077SOL    HW1 4005  10.253   7.416  10.493
34077SOL    HW2 4006  10.106   7.392  10.516
34078SOL     OW 4007   9.623   3.323   1.479
34078SOL    HW1 4008   9.694   3.381   1.507
34078SOL    HW2 4009   9.548   3.350   1.532
34079SOL     OW 4010   0.640   9.351  12.838
34079SOL    HW1 4011   0.591   9.324  12.916
34079SOL    HW2 4012   0.674   9.270  12.802
34080SOL     OW 4013   1.250  12.552   4.700
34080SOL    HW1 4014   1.343  12.538   4.679
34080SOL    HW2 4015   1.203  12.508   4.629
34081SOL     OW 4016   0.653   3.393  11.351
34081SOL    HW1 4017   0.733   3.383  11.403
34081SOL    HW2 4018   0.603   3.461  11.396
34082SOL     OW 4019  13.509   0.898   9.591
34082SOL    HW1 4020  13.524   0.804   9.582
34082SOL    HW2 4021  13.430   0.905   9.644
34083SOL     OW 4022   4.620   3.191  10.784
34083SOL    HW1 4023   4.679   3.163  10.714
34083SOL    HW2 4024   4.571   3.264  10.746
34084SOL     OW 4025  12.335  12.257   8.361
34084SOL    HW1 4026  12.258  12.313   8.347
34084SOL    HW2 4027  12.331  12.234   8.453
34085SOL     OW 4028  14.113   6.755   9.497
34085SOL    HW1 4029  14.178   6.686   9.480
34085SOL    HW2 4030  14.105   6.757   9.592
34086SOL     OW 4031   1.117  11.908  12.260
34086SOL    HW1 4032   1.063  11.846  12.308
34086SOL    HW2 4033   1.170  11.854  12.201
34087SOL     OW 4034  11.073   5.199  12.665
34087SOL    HW1 4035  10.980   5.216  12.647
34087SOL    HW2 4036  11.079   5.199  12.761
34088SOL     OW 4037   2.577  12.336   1.919
34088SOL    HW1 4038   2.648  12.365   1.975
34088SOL    HW2 4039   2.594  12.377   1.834
34089SOL     OW 4040   7.502  12.733  13.254
34089SOL    HW1 4041   7.524  12.786  13.177
34089SOL    HW2 4042   7.452  12.660  13.220
34090SOL     OW 4043   7.790  10.927  12.611
34090SOL    HW1 4044   7.885  10.928  12.601
34090SOL    HW2 4045   7.759  10.987  12.543
34091SOL     OW 4046   5.923  12.766   5.927
34091SOL    HW1 4047   5.914  12.732   6.016
34091SOL    HW2 4048   5.996  12.718   5.890
34092SOL     OW 4049   5.855   1.585  12.279
34092SOL    HW1 4050   5.903   1.515  12.235
34092SOL    HW2 4051   5.905   1.664  12.261
34093SOL     OW 4052  11.512   1.177   4.877
34093SOL    HW1 4053  11.426   1.220   4.875
34093SOL    HW2 4054  11.571   1.244   4.912
34094SOL     OW 4055   1.636   2.054   4.762
34094SOL    HW1 4056   1.570   1.992   4.792
34094SOL    HW2 4057   1.718   2.006   4.766
34095SOL     OW 4058   9.918   0.779   7.744
34095SOL    HW1 4059  10.003   0.814   7.773
34095SOL    HW2 4060   9.859   0.854   7.745
34096SOL     OW 4061   4.467  11.805   3.341
34096SOL    HW1 4062   4.469  11.862   3.264
34096SOL    HW2 4063   4.394  11.745   3.325
34097SOL     OW 4064   8.553  11.852   4.985
34097SOL    HW1 4065   8.638  11.845   4.943
34097SOL    HW2 4066   8.569  11.901   5.066
34098SOL     OW 4067  12.807   2.961   9.373
34098SOL    HW1 4068  12.899   2.988   9.372
34098SOL    HW2 4069  12.807   2.874   9.413
34099SOL     OW 4070   2.391   6.051  11.420
34099SOL    HW1 4071   2.380   5.983  11.354
34099SOL    HW2 4072   2.425   6.126  11.372
34100SOL     OW 4073   4.435  12.437   8.718
34100SOL    HW1 4074   4.493  12.410   8.646
34100SOL    HW2 4075   4.388  12.513   8.683
34101SOL     OW 4076   0.902   5.285  12.654
34101SOL    HW1 4077   0.847   5.352  12.612
34101SOL    HW2 4078   0.913   5.316  12.744
34102SOL     OW 4079  13.186   6.610   1.471
34102SOL    HW1 4080  13.091   6.619   1.476
34102SOL    HW2 4081  13.200   6.515   1.465
34103SOL     OW 4082   3.002   0.323   1.895
34103SOL    HW1 4083   2.971   0.247   1.845
34103SOL    HW2 4084   2.938   0.392   1.875
34104SOL     OW 4085   7.551   9.323   3.919
34104SOL    HW1 4086   7.498   9.248   3.943
34104SOL    HW2 4087   7.493   9.399   3.933
34105SOL     OW 4088   3.005  12.470   5.737
34105SOL    HW1 4089   2.914  12.468   5.709
34105SOL    HW2 4090   3.027  12.564   5.740
34106SOL     OW 4091   7.175  10.243  10.556
34106SOL    HW1 4092   7.152  10.197  10.637
34106SOL    HW2 4093   7.269  10.259  10.564
34107SOL     OW 4094   9.218   5.621   2.637
34107SOL    HW1 4095   9.297   5.568   2.643
34107SOL    HW2 4096   9.167   5.597   2.714
34108SOL     OW 4097   3.180   0.542  14.187
34108SOL    HW1 4098   3.202   0.566  14.096
34108SOL    HW2 4099   3.089   0.514  14.183
34109SOL     OW 4100  10.893   8.189  14.211
34109SOL    HW1 4101  10.965   8.189  14.274
34109SOL    HW2 4102  10.819   8.154  14.260
34110SOL     OW 4103   3.451   5.892   8.917
34110SOL    HW1 4104   3.496   5.869   8.998
34110SOL    HW2 4105   3.431   5.985   8.927
34111SOL     OW 4106   8.060   4.642   9.594
34111SOL    HW1 4107   8.047   4.604   9.507
34111SOL    HW2 4108   7.972   4.663   9.624
34112SOL     OW 4109   7.376  10.592   7.270
34112SOL    HW1 4110   7.414  10.532   7.333
34112SOL    HW2 4111   7.421  10.676   7.285
34113SOL     OW 4112  11.181   5.098   9.360
34113SOL    HW1 4113  11.138   5.015   9.381
34113SOL    HW2 4114  11.262   5.097   9.411
34114SOL     OW 4115   0.494   2.999   2.056
34114SOL    HW1 4116   0.451   3.061   1.997
34114SOL    HW2 4117   0.485   2.914   2.012
34115SOL     OW 4118  12.744   6.295   6.558
34115SOL    HW1 4119  12.656   6.324   6.582
34115SOL    HW2 4120  12.775   6.362   6.497
34116SOL     OW 4121   4.097   8.545   1.693
34116SOL    HW1 4122   4.191   8.544   1.672
34116SOL    HW2 4123   4.093   8.576   1.784
34117SOL     OW 4124   7.904   1.819  10.333
34117SOL    HW1 4125   7.819   1.786  10.362
34117SOL    HW2 4126   7.940   1.748  10.280
34118SOL     OW 4127  14.670  11.238   9.669
34118SOL    HW1 4128  14.708  11.217   9.583
34118SOL    HW2 4129  14.746  11.241   9.728
34119SOL     OW 4130   5.138  13.961   6.555
34119SOL    HW1 4131   5.117  14.046   6.517
34119SOL    HW2 4132   5.234  13.957   6.553
34120SOL     OW 4133  11.946  14.314  13.212
34120SOL    HW1 4134  11.914  14.224  13.218
34120SOL    HW2 4135  11.965  14.327  13.119
34121SOL     OW 4136   5.850  13.411   1.692
34121SOL    HW1 4137   5.845  13.424   1.787
34121SOL    HW2 4138   5.806  13.327   1.678
34122SOL     OW 4139   9.843   2.115   1.827
34122SOL    HW1 4140   9.868   2.128   1.736
34122SOL    HW2 4141   9.752   2.085   1.823
34123SOL     OW 4142   8.007  14.406   1.378
34123SOL    HW1 4143   8.048  14.338   1.325
34123SOL    HW2 4144   8.016  14.375   1.468
34124SOL     OW 4145   8.753   1.975   4.300
34124SOL    HW1 4146   8.746   1.968   4.396
34124SOL    HW2 4147   8.840   1.940   4.280
34125SOL     OW 4148  10.717   1.238  11.713
34125SOL    HW1 4149  10.651   1.233  11.782
34125SOL    HW2 4150  10.670   1.273  11.638
34126SOL     OW 4151  12.511  11.959   8.153
34126SOL    HW1 4152  12.518  11.958   8.249
34126SOL    HW2 4153  12.419  11.981   8.137
34127SOL     OW 4154   9.265   8.385   7.137
34127SOL    HW1 4155   9.322   8.431   7.198
34127SOL    HW2 4156   9.206   8.452   7.104
34128SOL     OW 4157   7.936   0.120   6.636
34128SOL    HW1 4158   7.935   0.175   6.557
34128SOL    HW2 4159   8.013   0.150   6.685
34129SOL     OW 4160   9.391   4.947   6.910
34129SOL    HW1 4161   9.419   5.011   6.975
34129SOL    HW2 4162   9.390   4.996   6.827
34130SOL     OW 4163  14.080   5.939   2.618
34130SOL    HW1 4164  14.005   5.994   2.595
34130SOL    HW2 4165  14.119   5.982   2.694
34131SOL     OW 4166  13.317   1.423  14.800
34131SOL    HW1 4167  13.307   1.367  14.876
34131SOL    HW2 4168  13.379   1.491  14.828
34132SOL     OW 4169   1.767   8.830   4.168
34132SOL    HW1 4170   1.785   8.889   4.241
34132SOL    HW2 4171   1.853   8.793   4.147
34133SOL     OW 4172   6.639   0.983   4.894
34133SOL    HW1 4173   6.653   0.889   4.882
34133SOL    HW2 4174   6.634   0.994   4.989
34134SOL     OW 4175  13.435   7.971   9.002
34134SOL    HW1 4176  13.378   8.023   9.057
34134SOL    HW2 4177  13.386   7.890   8.987
34135SOL     OW 4178  13.602   1.137   2.004
34135SOL    HW1 4179  13.673   1.076   2.025
34135SOL    HW2 4180  13.533   1.115   2.066
34136SOL     OW 4181   8.810  11.203   0.732
34136SOL    HW1 4182   8.719  11.230   0.747
34136SOL    HW2 4183   8.851  11.280   0.692
34137SOL     OW 4184   4.985   5.279   5.314
34137SOL    HW1 4185   4.959   5.286   5.406
34137SOL    HW2 4186   4.970   5.367   5.279
34138SOL     OW 4187  14.641   7.631  11.045
34138SOL    HW1 4188  14.637   7.725  11.026
34138SOL    HW2 4189  14.735   7.611  11.048
34139SOL     OW 4190   2.938   6.552   9.692
34139SOL    HW1 4191   2.987   6.612   9.636
34139SOL    HW2 4192   3.001   6.484   9.715
34140SOL     OW 4193   3.786   7.721   1.414
34140SOL    HW1 4194   3.731   7.799   1.405
34140SOL    HW2 4195   3.768   7.689   1.502
34141SOL     OW 4196   5.116   9.893   1.196
34141SOL    HW1 4197   5.098   9.833   1.124
34141SOL    HW2 4198   5.042   9.954   1.196
34142SOL     OW 4199  11.858   7.942   2.888
34142SOL    HW1 4200  11.862   7.876   2.957
34142SOL    HW2 4201  11.928   7.918   2.827
34143SOL     OW 4202  11.989   0.738   6.292
34143SOL    HW1 4203  11.967   0.766   6.381
34143SOL    HW2 4204  12.051   0.804   6.261
34144SOL     OW 4205   6.958   9.780   5.003
34144SOL    HW1 4206   6.960   9.719   4.930
34144SOL    HW2 4207   6.930   9.863   4.965
34145SOL     OW 4208  10.312  13.335  12.603
34145SOL    HW1 4209  10.282  13.283  12.528
34145SOL    HW2 4210  10.330  13.422  12.567
34146SOL     OW 4211  10.049  13.960   1.562
34146SOL    HW1 4212  10.000  13.884   1.532
34146SOL    HW2 4213  10.062  13.945   1.655
34147SOL     OW 4214   1.651  12.253   2.396
34147SOL    HW1 4215   1.615  12.289   2.315
34147SOL    HW2 4216   1.588  12.278   2.463
34148SOL     OW 4217   8.614  13.087  11.201
34148SOL    HW1 4218   8.692  13.141  11.209
34148SOL    HW2 4219   8.629  13.034  11.122
34149SOL     OW 4220   3.467  10.792   3.918
34149SOL    HW1 4221   3.524  10.854   3.963
34149SOL    HW2 4222   3.519  10.712   3.912
34150SOL     OW 4223  12.856   8.135   6.983
34150SOL    HW1 4224  12.907   8.209   6.951
34150SOL    HW2 4225  12.765   8.164   6.981
34151SOL     OW 4226  12.229  10.044   2.636
34151SOL    HW1 4227  12.321  10.032   2.659
34151SOL    HW2 4228  12.218  10.139   2.630
34152SOL     OW 4229   2.015   7.708   1.176
34152SOL    HW1 4230   2.106   7.685   1.197
34152SOL    HW2 4231   2.006   7.799   1.205
34153SOL     OW 4232   1.201   3.794  14.614
34153SOL    HW1 4233   1.167   3.714  14.653
34153SOL    HW2 4234   1.281   3.767  14.570
34154SOL     OW 4235   5.353  14.049  14.451
34154SOL    HW1 4236   5.415  14.064  14.521
34154SOL    HW2 4237   5.331  13.956  14.458
34155SOL     OW 4238  10.783   4.790  11.954
34155SOL    HW1 4239  10.774   4.772  12.047
34155SOL    HW2 4240  10.699   4.766  11.916
34156SOL     OW 4241  13.117   2.824   7.666
34156SOL    HW1 4242  13.172   2.749   7.644
34156SOL    HW2 4243  13.030   2.800   7.634
34157SOL     OW 4244   2.048   4.384   3.188
34157SOL    HW1 4245   2.116   4.395   3.122
34157SOL    HW2 4246   2.025   4.473   3.214
34158SOL     OW 4247  13.425  13.306   9.387
34158SOL    HW1 4248  13.460  13.394   9.374
34158SOL    HW2 4249  13.501  13.248   9.380
34159SOL     OW 4250  13.907   9.481   2.363
34159SOL    HW1 4251  13.920   9.478   2.458
34159SOL    HW2 4252  13.986   9.441   2.327
34160SOL     OW 4253   9.744   5.449   7.073
34160SOL    HW1 4254   9.820   5.478   7.124
34160SOL    HW2 4255   9.708   5.376   7.122
34161SOL     OW 4256   3.688   9.353  12.499
34161SOL    HW1 4257   3.757   9.411  12.531
34161SOL    HW2 4258   3.712   9.334  12.408
34162SOL     OW 4259   5.134  11.751  13.587
34162SOL    HW1 4260   5.183  11.789  13.660
34162SOL    HW2 4261   5.052  11.720  13.626
34163SOL     OW 4262  10.980   7.610  12.730
34163SOL    HW1 4263  11.030   7.680  12.689
34163SOL    HW2 4264  10.975   7.635  12.823
34164SOL     OW 4265  13.309   1.841   8.576
34164SOL    HW1 4266  13.267   1.830   8.491
34164SOL    HW2 4267  13.238   1.859   8.637
34165SOL     OW 4268   6.375   8.729   0.629
34165SOL    HW1 4269   6.295   8.708   0.582
34165SOL    HW2 4270   6.378   8.825   0.630
34166SOL     OW 4271   4.302  14.145   3.948
34166SOL    HW1 4272   4.302  14.233   3.987
34166SOL    HW2 4273   4.222  14.143   3.894
34167SOL     OW 4274   5.172   4.961   9.144
34167SOL    HW1 4275   5.227   5.031   9.110
34167SOL    HW2 4276   5.232   4.905   9.193
34168SOL     OW 4277   8.108   0.232  10.596
34168SOL    HW1 4278   8.022   0.207  10.561
34168SOL    HW2 4279   8.144   0.151  10.632
34169SOL     OW 4280   8.976  11.184   0.368
34169SOL    HW1 4281   8.953  11.137   0.448
34169SOL    HW2 4282   9.012  11.117   0.310
34170SOL     OW 4283  11.105  13.661   1.875
34170SOL    HW1 4284  11.051  13.591   1.911
34170SOL    HW2 4285  11.070  13.676   1.787
34171SOL     OW 4286  10.410   4.482   4.180
34171SOL    HW1 4287  10.354   4.414   4.218
34171SOL    HW2 4288  10.371   4.501   4.095
34172SOL     OW 4289   5.171  11.599   8.593
34172SOL    HW1 4290   5.244  11.654   8.567
34172SOL    HW2 4291   5.093  11.648   8.567
34173SOL     OW 4292  12.833  11.647   6.663
34173SOL    HW1 4293  12.878  11.673   6.743
34173SOL    HW2 4294  12.845  11.721   6.603
34174SOL     OW 4295   0.747  12.464   2.272
34174SOL    HW1 4296   0.823  12.475   2.329
34174SOL    HW2 4297   0.784  12.454   2.184
34175SOL     OW 4298  14.429   7.091   0.332
34175SOL    HW1 4299  14.357   7.072   0.273
34175SOL    HW2 4300  14.455   7.181   0.312
34176SOL     OW 4301  11.253   5.590  14.753
34176SOL    HW1 4302  11.299   5.656  14.805
34176SOL    HW2 4303  11.292   5.507  14.779
34177SOL     OW 4304   0.491  11.056   3.796
34177SOL    HW1 4305   0.584  11.035   3.791
34177SOL    HW2 4306   0.487  11.135   3.849
34178SOL     OW 4307   8.119   5.475   2.289
34178SOL    HW1 4308   8.142   5.400   2.344
34178SOL    HW2 4309   8.053   5.522   2.339
34179SOL     OW 4310  12.998   7.527  14.326
34179SOL    HW1 4311  12.934   7.578  14.278
34179SOL    HW2 4312  12.989   7.557  14.417
34180SOL     OW 4313   1.397   9.161  13.918
34180SOL    HW1 4314   1.305   9.173  13.939
34180SOL    HW2 4315   1.407   9.198  13.830
34181SOL     OW 4316   4.589  12.321  13.842
34181SOL    HW1 4317   4.526  12.326  13.913
34181SOL    HW2 4318   4.536  12.305  13.764
34182SOL     OW 4319   9.161   8.191   8.437
34182SOL    HW1 4320   9.086   8.215   8.492
34182SOL    HW2 4321   9.237   8.221   8.486
34183SOL     OW 4322   6.594   2.556  10.659
34183SOL    HW1 4323   6.625   2.633  10.611
34183SOL    HW2 4324   6.499   2.559  10.649
34184SOL     OW 4325  11.408  13.214   4.053
34184SOL    HW1 4326  11.327  13.169   4.078
34184SOL    HW2 4327  11.456  13.223   4.135
34185SOL     OW 4328   5.875   7.558   3.958
34185SOL    HW1 4329   5.919   7.474   3.967
34185SOL    HW2 4330   5.913   7.612   4.029
34186SOL     OW 4331  14.193  10.558   6.261
34186SOL    HW1 4332  14.100  10.578   6.256
34186SOL    HW2 4333  14.198  10.463   6.254
34187SOL     OW 4334  12.913   8.706   5.124
34187SOL    HW1 4335  12.829   8.660   5.131
34187SOL    HW2 4336  12.966   8.650   5.067
34188SOL     OW 4337   4.494  14.110   9.667
34188SOL    HW1 4338   4.578  14.139   9.631
34188SOL    HW2 4339   4.454  14.190   9.702
34189SOL     OW 4340   8.761   1.023   0.982
34189SOL    HW1 4341   8.797   0.936   0.997
34189SOL    HW2 4342   8.837   1.080   0.972
34190SOL     OW 4343  10.995  11.134   4.263
34190SOL    HW1 4344  11.040  11.085   4.332
34190SOL    HW2 4345  11.056  11.204   4.240
34191SOL     OW 4346   9.304   2.420   6.003
34191SOL    HW1 4347   9.381   2.426   6.059
34191SOL    HW2 4348   9.339   2.432   5.914
34192SOL     OW 4349   4.539   5.772   7.893
34192SOL    HW1 4350   4.611   5.761   7.954
34192SOL    HW2 4351   4.478   5.831   7.938
34193SOL     OW 4352  10.525   7.046   6.991
34193SOL    HW1 4353  10.579   6.967   6.988
34193SOL    HW2 4354  10.444   7.018   7.033
34194SOL     OW 4355   0.316  10.262   6.992
34194SOL    HW1 4356   0.333  10.223   6.907
34194SOL    HW2 4357   0.226  10.294   6.987
34195SOL     OW 4358   5.420  13.165   1.513
34195SOL    HW1 4359   5.412  13.084   1.463
34195SOL    HW2 4360   5.330  13.190   1.533
34196SOL     OW 4361  13.451   6.538  11.718
34196SOL    HW1 4362  13.440   6.518  11.625
34196SOL    HW2 4363  13.527   6.596  11.721
34197SOL     OW 4364  11.177  11.513  10.723
34197SOL    HW1 4365  11.151  11.450  10.790
34197SOL    HW2 4366  11.202  11.459  10.648
34198SOL     OW 4367   9.802   5.975   1.161
34198SOL    HW1 4368   9.874   6.038   1.156
34198SOL    HW2 4369   9.808   5.938   1.249
34199SOL     OW 4370   4.012  13.335   3.448
34199SOL    HW1 4371   3.927  13.296   3.427
34199SOL    HW2 4372   4.014  13.417   3.398
34200SOL     OW 4373  11.121  12.538  12.718
34200SOL    HW1 4374  11.093  12.592  12.644
34200SOL    HW2 4375  11.040  12.501  12.753
34201SOL     OW 4376   2.392   6.399  13.868
34201SOL    HW1 4377   2.450   6.390  13.792
34201SOL    HW2 4378   2.435   6.464  13.923
34202SOL     OW 4379  14.801   1.298  11.280
34202SOL    HW1 4380   0.009   1.337  11.295
34202SOL    HW2 4381  14.765   1.345  11.205
34203SOL     OW 4382   6.947   4.161   3.009
34203SOL    HW1 4383   6.983   4.077   3.038
34203SOL    HW2 4384   6.858   4.163   3.045
34204SOL     OW 4385   1.826  11.641   4.899
34204SOL    HW1 4386   1.872  11.712   4.854
34204SOL    HW2 4387   1.785  11.591   4.829
34205SOL     OW 4388   8.587   4.958   7.994
34205SOL    HW1 4389   8.531   4.887   7.961
34205SOL    HW2 4390   8.662   4.913   8.033
34206SOL     OW 4391  10.284   6.277   8.131
34206SOL    HW1 4392  10.269   6.356   8.078
34206SOL    HW2 4393  10.379   6.266   8.131
34207SOL     OW 4394   6.614   7.176   9.803
34207SOL    HW1 4395   6.544   7.241   9.808
34207SOL    HW2 4396   6.624   7.160   9.709
34208SOL     OW 4397  14.197  10.874   9.702
34208SOL    HW1 4398  14.190  10.930   9.625
34208SOL    HW2 4399  14.215  10.935   9.774
34209SOL     OW 4400   7.637  11.167   0.282
34209SOL    HW1 4401   7.655  11.133   0.370
34209SOL    HW2 4402   7.685  11.108   0.224
34210SOL     OW 4403  11.907   7.458  13.826
34210SOL    HW1 4404  11.935   7.539  13.784
34210SOL    HW2 4405  11.819   7.443  13.792
34211SOL     OW 4406  12.967  10.283   8.747
34211SOL    HW1 4407  12.978  10.377   8.761
34211SOL    HW2 4408  13.056  10.248   8.747
34212SOL     OW 4409  11.322   9.623  11.949
34212SOL    HW1 4410  11.391   9.568  11.984
34212SOL    HW2 4411  11.244   9.599  11.998
34213SOL     OW 4412  11.273   9.942   9.914
34213SOL    HW1 4413  11.224  10.021   9.890
34213SOL    HW2 4414  11.309   9.962  10.000
34214SOL     OW 4415   3.488   7.234   4.010
34214SOL    HW1 4416   3.471   7.223   4.104
34214SOL    HW2 4417   3.405   7.213   3.968
34215SOL     OW 4418   6.341  10.581   6.609
34215SOL    HW1 4419   6.347  10.628   6.525
34215SOL    HW2 4420   6.344  10.489   6.585
34216SOL     OW 4421  10.260   1.566  11.033
34216SOL    HW1 4422  10.292   1.504  10.968
34216SOL    HW2 4423  10.280   1.652  10.996
34217SOL     OW 4424  11.671   0.038   4.853
34217SOL    HW1 4425  11.638   0.108   4.796
34217SOL    HW2 4426  11.659   0.072   4.942
34218SOL     OW 4427   8.929   7.915  14.876
34218SOL    HW1 4428   8.955   7.868  14.797
34218SOL    HW2 4429   9.008   7.958   0.029
34219SOL     OW 4430   0.530   1.514   9.633
34219SOL    HW1 4431   0.487   1.519   9.719
34219SOL    HW2 4432   0.598   1.447   9.645
34220SOL     OW 4433  11.506   3.631  13.790
34220SOL    HW1 4434  11.524   3.590  13.705
34220SOL    HW2 4435  11.423   3.676  13.778
34221SOL     OW 4436  13.141   3.026  11.824
34221SOL    HW1 4437  13.122   3.108  11.778
34221SOL    HW2 4438  13.106   3.039  11.912
34222SOL     OW 4439  11.450  14.613   4.416
34222SOL    HW1 4440  11.504  14.594   4.339
34222SOL    HW2 4441  11.439  14.708   4.415
34223SOL     OW 4442   6.723   3.474  10.261
34223SOL    HW1 4443   6.798   3.474  10.320
34223SOL    HW2 4444   6.678   3.392  10.280
34224SOL     OW 4445   4.979   0.412   9.840
34224SOL    HW1 4446   5.054   0.384   9.892
34224SOL    HW2 4447   4.931   0.472   9.897
34225SOL     OW 4448  10.645   7.291   3.393
34225SOL    HW1 4449  10.696   7.251   3.463
34225SOL    HW2 4450  10.627   7.380   3.425
34226SOL     OW 4451   1.622   5.870  10.064
34226SOL    HW1 4452   1.713   5.898  10.053
34226SOL    HW2 4453   1.627   5.777  10.084
34227SOL     OW 4454   3.087   1.019   9.386
34227SOL    HW1 4455   3.176   1.026   9.422
34227SOL    HW2 4456   3.039   1.090   9.427
34228SOL     OW 4457   3.637  12.534   8.476
34228SOL    HW1 4458   3.544  12.553   8.464
34228SOL    HW2 4459   3.642  12.497   8.565
34229SOL     OW 4460   2.691   3.347   1.216
34229SOL    HW1 4461   2.640   3.273   1.249
34229SOL    HW2 4462   2.772   3.308   1.184
34230SOL     OW 4463   8.350  14.152  10.965
34230SOL    HW1 4464   8.333  14.120  11.053
34230SOL    HW2 4465   8.434  14.113  10.941
34231SOL     OW 4466  10.066  14.861  12.426
34231SOL    HW1 4467  10.025  14.838  12.509
34231SOL    HW2 4468  10.005  14.831  12.359
34232SOL     OW 4469   8.402   0.503   1.398
34232SOL    HW1 4470   8.371   0.555   1.323
34232SOL    HW2 4471   8.330   0.507   1.461
34233SOL     OW 4472   8.895  14.211   4.913
34233SOL    HW1 4473   8.939  14.137   4.870
34233SOL    HW2 4474   8.906  14.194   5.007
34234SOL     OW 4475   5.802   9.124  11.664
34234SOL    HW1 4476   5.844   9.100  11.747
34234SOL    HW2 4477   5.710   9.099  11.675
34235SOL     OW 4478  14.432   5.966  12.719
34235SOL    HW1 4479  14.452   6.053  12.682
34235SOL    HW2 4480  14.339   5.971  12.741
34236SOL     OW 4481   8.812   9.568  12.668
34236SOL    HW1 4482   8.794   9.651  12.624
34236SOL    HW2 4483   8.768   9.502  12.615
34237SOL     OW 4484   5.202   1.779   5.468
34237SOL    HW1 4485   5.155   1.698   5.487
34237SOL    HW2 4486   5.271   1.783   5.534
34238SOL     OW 4487   2.494   5.584   5.341
34238SOL    HW1 4488   2.443   5.507   5.364
34238SOL    HW2 4489   2.557   5.593   5.412
34239SOL     OW 4490   0.453   3.358   0.691
34239SOL    HW1 4491   0.366   3.357   0.729
34239SOL    HW2 4492   0.500   3.425   0.740
34240SOL     OW 4493  13.126   8.769   7.423
34240SOL    HW1 4494  13.159   8.856   7.444
34240SOL    HW2 4495  13.112   8.727   7.508
34241SOL     OW 4496   1.293  13.306  13.608
34241SOL    HW1 4497   1.250  13.271  13.530
34241SOL    HW2 4498   1.222  13.348  13.657
34242SOL     OW 4499   7.776   7.807  12.678
34242SOL    HW1 4500   7.801   7.737  12.739
34242SOL    HW2 4501   7.721   7.763  12.613
34243SOL     OW 4502   6.429   6.751  10.194
34243SOL    HW1 4503   6.344   6.772  10.156
34243SOL    HW2 4504   6.492   6.778  10.127
34244SOL     OW 4505   0.528  13.033   8.896
34244SOL    HW1 4506   0.439  13.067   8.906
34244SOL    HW2 4507   0.583  13.095   8.945
34245SOL     OW 4508   1.054  11.033  13.964
34245SOL    HW1 4509   0.961  11.039  13.940
34245SOL    HW2 4510   1.085  11.123  13.962
34246SOL     OW 4511   1.289   1.414  10.551
34246SOL    HW1 4512   1.292   1.420  10.456
34246SOL    HW2 4513   1.378   1.434  10.580
34247SOL     OW 4514   8.471  10.646  10.810
34247SOL    HW1 4515   8.442  10.673  10.723
34247SOL    HW2 4516   8.396  10.662  10.867
34248SOL     OW 4517  13.776   6.943   3.508
34248SOL    HW1 4518  13.784   6.848   3.506
34248SOL    HW2 4519  13.864   6.976   3.491
34249SOL     OW 4520   8.739   0.260   3.344
34249SOL    HW1 4521   8.803   0.292   3.280
34249SOL    HW2 4522   8.776   0.177   3.375
34250SOL     OW 4523   2.936   8.508  11.076
34250SOL    HW1 4524   2.938   8.558  11.158
34250SOL    HW2 4525   2.862   8.545  11.028
34251SOL     OW 4526  11.385   6.478  11.662
34251SOL    HW1 4527  11.300   6.520  11.658
34251SOL    HW2 4528  11.390   6.440  11.750
34252SOL     OW 4529   4.517   8.697   0.472
34252SOL    HW1 4530   4.483   8.764   0.532
34252SOL    HW2 4531   4.527   8.619   0.526
34253SOL     OW 4532  14.584  11.176   3.137
34253SOL    HW1 4533  14.505  11.189   3.084
34253SOL    HW2 4534  14.582  11.248   3.200
34254SOL     OW 4535   1.732   9.504  11.744
34254SOL    HW1 4536   1.688   9.484  11.660
34254SOL    HW2 4537   1.825   9.500  11.723
34255SOL     OW 4538   2.161  11.571  12.848
34255SOL    HW1 4539   2.079  11.544  12.806
34255SOL    HW2 4540   2.134  11.630  12.918
34256SOL     OW 4541   9.473   4.505   9.492
34256SOL    HW1 4542   9.567   4.496   9.506
34256SOL    HW2 4543   9.463   4.588   9.445
34257SOL     OW 4544   0.257   3.016   9.749
34257SOL    HW1 4545   0.175   2.967   9.741
34257SOL    HW2 4546   0.323   2.958   9.709
34258SOL     OW 4547   1.689   0.187   8.247
34258SOL    HW1 4548   1.780   0.216   8.262
34258SOL    HW2 4549   1.637   0.243   8.304
34259SOL     OW 4550  10.561  13.473  14.132
34259SOL    HW1 4551  10.608  13.554  14.108
34259SOL    HW2 4552  10.622  13.427  14.191
34260SOL     OW 4553  13.498   3.374   7.109
34260SOL    HW1 4554  13.551   3.305   7.071
34260SOL    HW2 4555  13.411   3.336   7.117
34261SOL     OW 4556   1.677   3.075   5.537
34261SOL    HW1 4557   1.590   3.082   5.576
34261SOL    HW2 4558   1.709   3.165   5.533
34262SOL     OW 4559   8.771   8.615  11.705
34262SOL    HW1 4560   8.828   8.687  11.675
34262SOL    HW2 4561   8.747   8.569  11.625
34263SOL     OW 4562   1.429  12.636  14.205
34263SOL    HW1 4563   1.501  12.653  14.144
34263SOL    HW2 4564   1.372  12.712  14.197
34264SOL     OW 4565   1.563   3.315   8.824
34264SOL    HW1 4566   1.538   3.365   8.746
34264SOL    HW2 4567   1.513   3.354   8.895
34265SOL     OW 4568   4.268   0.251  13.391
34265SOL    HW1 4569   4.260   0.160  13.361
34265SOL    HW2 4570   4.177   0.279  13.404
34266SOL     OW 4571   9.854   9.734  11.329
34266SOL    HW1 4572   9.793   9.676  11.374
34266SOL    HW2 4573   9.799   9.788  11.273
34267SOL     OW 4574  11.290  11.640  11.815
34267SOL    HW1 4575  11.306  11.558  11.862
34267SOL    HW2 4576  11.301  11.618  11.723
34268SOL     OW 4577   4.996  11.011   1.063
34268SOL    HW1 4578   5.036  10.975   1.142
34268SOL    HW2 4579   4.984  11.104   1.082
34269SOL     OW 4580  11.272   4.166   7.346
34269SOL    HW1 4581  11.218   4.087   7.342
34269SOL    HW2 4582  11.211   4.238   7.329
34270SOL     OW 4583   7.941  10.043  12.583
34270SOL    HW1 4584   7.941   9.968  12.643
34270SOL    HW2 4585   7.881  10.018  12.512
34271SOL     OW 4586   6.870   7.446   5.882
34271SOL    HW1 4587   6.834   7.426   5.968
34271SOL    HW2 4588   6.910   7.364   5.853
34272SOL     OW 4589   2.695  11.754   8.179
34272SOL    HW1 4590   2.728  11.803   8.255
34272SOL    HW2 4591   2.754  11.778   8.108
34273SOL     OW 4592   8.441   7.487   2.379
34273SOL    HW1 4593   8.387   7.411   2.398
34273SOL    HW2 4594   8.387   7.562   2.403
34274SOL     OW 4595  11.519   0.555  10.759
34274SOL    HW1 4596  11.544   0.544  10.667
34274SOL    HW2 4597  11.478   0.641  10.762
34275SOL     OW 4598   1.149   0.362   8.193
34275SOL    HW1 4599   1.054   0.368   8.207
34275SOL    HW2 4600   1.175   0.451   8.171
34276SOL     OW 4601   2.072  13.645   5.984
34276SOL    HW1 4602   2.070  13.676   5.893
34276SOL    HW2 4603   2.161  13.666   6.014
34277SOL     OW 4604   5.928  11.795   1.656
34277SOL    HW1 4605   5.876  11.858   1.707
34277SOL    HW2 4606   5.889  11.798   1.569
34278SOL     OW 4607   8.463  10.398  11.630
34278SOL    HW1 4608   8.372  10.421  11.647
34278SOL    HW2 4609   8.481  10.431  11.542
34279SOL     OW 4610   2.222   0.990   6.698
34279SOL    HW1 4611   2.198   1.026   6.613
34279SOL    HW2 4612   2.309   1.026   6.716
34280SOL     OW 4613   1.106   6.791  11.669
34280SOL    HW1 4614   1.115   6.703  11.707
34280SOL    HW2 4615   1.108   6.850  11.745
34281SOL     OW 4616   1.156   4.942  11.101
34281SOL    HW1 4617   1.122   4.894  11.177
34281SOL    HW2 4618   1.215   5.008  11.138
34282SOL     OW 4619   9.103  11.131  10.958
34282SOL    HW1 4620   9.065  11.134  11.045
34282SOL    HW2 4621   9.185  11.180  10.966
34283SOL     OW 4622   0.130   7.861   9.320
34283SOL    HW1 4623   0.052   7.873   9.266
34283SOL    HW2 4624   0.147   7.767   9.315
34284SOL     OW 4625   4.483   2.202   2.927
34284SOL    HW1 4626   4.440   2.174   3.007
34284SOL    HW2 4627   4.412   2.226   2.868
34285SOL     OW 4628  12.474   7.851   2.952
34285SOL    HW1 4629  12.467   7.755   2.948
34285SOL    HW2 4630  12.567   7.867   2.968
34286SOL     OW 4631   1.108  13.487  14.527
34286SOL    HW1 4632   1.114  13.546  14.453
34286SOL    HW2 4633   1.053  13.415  14.496
34287SOL     OW 4634  12.147  12.315   3.711
34287SOL    HW1 4635  12.082  12.250   3.685
34287SOL    HW2 4636  12.127  12.392   3.658
34288SOL     OW 4637   7.777   6.786   0.795
34288SOL    HW1 4638   7.761   6.695   0.822
34288SOL    HW2 4639   7.718   6.838   0.850
34289SOL     OW 4640  10.342  12.682   4.606
34289SOL    HW1 4641  10.416  12.670   4.665
34289SOL    HW2 4642  10.271  12.630   4.643
34290SOL     OW 4643   2.905  10.379  14.055
34290SOL    HW1 4644   2.987  10.346  14.092
34290SOL    HW2 4645   2.872  10.306  14.002
34291SOL     OW 4646   9.796   4.224  14.120
34291SOL    HW1 4647   9.875   4.213  14.066
34291SOL    HW2 4648   9.732   4.264  14.062
34292SOL     OW 4649   0.746   3.376   8.254
34292SOL    HW1 4650   0.777   3.458   8.215
34292SOL    HW2 4651   0.704   3.403   8.336
34293SOL     OW 4652   7.761   4.483   1.174
34293SOL    HW1 4653   7.850   4.468   1.204
34293SOL    HW2 4654   7.769   4.549   1.105
34294SOL     OW 4655   2.287   6.292   8.385
34294SOL    HW1 4656   2.255   6.213   8.429
34294SOL    HW2 4657   2.368   6.314   8.431
34295SOL     OW 4658  14.726   6.006   5.684
34295SOL    HW1 4659  14.718   5.920   5.726
34295SOL    HW2 4660  14.697   6.068   5.750
34296SOL     OW 4661  10.501  10.005  14.760
34296SOL    HW1 4662  10.591  10.038  14.764
34296SOL    HW2 4663  10.446  10.083  14.758
34297SOL     OW 4664  11.267   6.145  11.387
34297SOL    HW1 4665  11.315   6.103  11.459
34297SOL    HW2 4666  11.195   6.085  11.369
34298SOL     OW 4667   2.427   5.033   7.925
34298SOL    HW1 4668   2.454   5.008   7.837
34298SOL    HW2 4669   2.467   4.967   7.982
34299SOL     OW 4670  13.133   2.304  12.861
34299SOL    HW1 4671  13.129   2.375  12.925
34299SOL    HW2 4672  13.092   2.230  12.905
34300SOL     OW 4673  12.624   2.673   1.858
34300SOL    HW1 4674  12.608   2.685   1.764
34300SOL    HW2 4675  12.719   2.681   1.867
34301SOL     OW 4676   9.752   4.433   6.313
34301SOL    HW1 4677   9.747   4.342   6.341
34301SOL    HW2 4678   9.812   4.432   6.239
34302SOL     OW 4679   5.080  11.445  11.302
34302SOL    HW1 4680   5.166  11.439  11.260
34302SOL    HW2 4681   5.064  11.356  11.334
34303SOL     OW 4682  11.839   6.094  12.608
34303SOL    HW1 4683  11.754   6.052  12.596
34303SOL    HW2 4684  11.850   6.099  12.702
34304SOL     OW 4685   8.762   1.214   7.829
34304SOL    HW1 4686   8.849   1.242   7.857
34304SOL    HW2 4687   8.778   1.150   7.759
34305SOL     OW 4688   0.465   2.172   2.066
34305SOL    HW1 4689   0.445   2.263   2.089
34305SOL    HW2 4690   0.462   2.125   2.149
34306SOL     OW 4691   9.112   2.989   5.708
34306SOL    HW1 4692   9.036   3.042   5.733
34306SOL    HW2 4693   9.164   2.982   5.788
34307SOL     OW 4694  12.009  13.340   5.343
34307SOL    HW1 4695  12.055  13.326   5.426
34307SOL    HW2 4696  12.068  13.304   5.277
34308SOL     OW 4697   2.016   2.710  10.871
34308SOL    HW1 4698   1.965   2.686  10.948
34308SOL    HW2 4699   2.018   2.630  10.818
34309SOL     OW 4700   1.977   4.447  10.018
34309SOL    HW1 4701   2.004   4.424   9.929
34309SOL    HW2 4702   1.996   4.369  10.070
34310SOL     OW 4703   1.626  13.342   0.915
34310SOL    HW1 4704   1.568  13.394   0.971
34310SOL    HW2 4705   1.713  13.377   0.931
34311SOL     OW 4706  10.733   0.260   8.021
34311SOL    HW1 4707  10.810   0.279   7.968
34311SOL    HW2 4708  10.659   0.278   7.963
34312SOL     OW 4709   0.034  14.272   3.323
34312SOL    HW1 4710  14.818  14.250   3.323
34312SOL    HW2 4711   0.063  14.255   3.233
34313SOL     OW 4712   3.417  13.825   5.051
34313SOL    HW1 4713   3.412  13.729   5.054
34313SOL    HW2 4714   3.511  13.844   5.051
34314SOL     OW 4715   6.034  14.145   4.711
34314SOL    HW1 4716   5.959  14.102   4.751
34314SOL    HW2 4717   6.066  14.206   4.778
34315SOL     OW 4718   7.226   0.845   1.925
34315SOL    HW1 4719   7.248   0.841   2.018
34315SOL    HW2 4720   7.211   0.755   1.899
34316SOL     OW 4721   0.125  11.772  12.120
34316SOL    HW1 4722   0.118  11.841  12.054
34316SOL    HW2 4723   0.201  11.720  12.092
34317SOL     OW 4724   8.878   0.858   6.513
34317SOL    HW1 4725   8.797   0.819   6.548
34317SOL    HW2 4726   8.930   0.878   6.591
34318SOL     OW 4727  13.991   0.899   4.697
34318SOL    HW1 4728  13.926   0.842   4.739
34318SOL    HW2 4729  14.073   0.879   4.742
34319SOL     OW 4730  11.056  13.784   3.985
34319SOL    HW1 4731  11.127  13.740   3.939
34319SOL    HW2 4732  10.985  13.788   3.922
34320SOL     OW 4733  14.185   6.450  11.079
34320SOL    HW1 4734  14.196   6.544  11.091
34320SOL    HW2 4735  14.158   6.417  11.164
34321SOL     OW 4736   4.744  13.610   9.797
34321SOL    HW1 4737   4.714  13.549   9.729
34321SOL    HW2 4738   4.664  13.646   9.835
34322SOL     OW 4739   4.097   2.467   1.835
34322SOL    HW1 4740   4.063   2.494   1.750
34322SOL    HW2 4741   4.027   2.414   1.873
34323SOL     OW 4742  14.628  13.094  12.476
34323SOL    HW1 4743  14.658  13.168  12.423
34323SOL    HW2 4744  14.638  13.124  12.566
34324SOL     OW 4745  11.653   5.189  14.453
34324SOL    HW1 4746  11.574   5.138  14.467
34324SOL    HW2 4747  11.693   5.150  14.375
34325SOL     OW 4748   2.216  12.090   8.559
34325SOL    HW1 4749   2.167  12.007   8.562
34325SOL    HW2 4750   2.307  12.065   8.576
34326SOL     OW 4751  14.841  11.535   4.773
34326SOL    HW1 4752   0.020  11.599   4.817
34326SOL    HW2 4753   0.022  11.490   4.712
34327SOL     OW 4754  13.405   0.783   9.319
34327SOL    HW1 4755  13.467   0.819   9.381
34327SOL    HW2 4756  13.359   0.715   9.367
34328SOL     OW 4757  12.135   7.402  11.133
34328SOL    HW1 4758  12.210   7.345  11.149
34328SOL    HW2 4759  12.062   7.343  11.117
34329SOL     OW 4760   4.824   9.958  13.933
34329SOL    HW1 4761   4.887   9.891  13.961
34329SOL    HW2 4762   4.824  10.021  14.005
34330SOL     OW 4763  12.666   9.780   9.790
34330SOL    HW1 4764  12.754   9.804   9.762
34330SOL    HW2 4765  12.680   9.720   9.863
34331SOL     OW 4766   9.756   2.439   3.942
34331SOL    HW1 4767   9.744   2.515   3.886
34331SOL    HW2 4768   9.691   2.449   4.011
34332SOL     OW 4769   3.789   5.439   2.403
34332SOL    HW1 4770   3.745   5.398   2.329
34332SOL    HW2 4771   3.797   5.531   2.379
34333SOL     OW 4772   8.362   1.204   8.456
34333SOL    HW1 4773   8.401   1.182   8.372
34333SOL    HW2 4774   8.366   1.122   8.506
34334SOL     OW 4775  11.008   9.155   1.846
34334SOL    HW1 4776  10.955   9.232   1.866
34334SOL    HW2 4777  10.986   9.092   1.915
34335SOL     OW 4778   7.727   6.480   0.840
34335SOL    HW1 4779   7.745   6.483   0.746
34335SOL    HW2 4780   7.749   6.390   0.866
34336SOL     OW 4781  12.376   1.072   5.470
34336SOL    HW1 4782  12.463   1.076   5.510
34336SOL    HW2 4783  12.340   1.160   5.484
34337SOL     OW 4784  12.587  12.475   8.777
34337SOL    HW1 4785  12.524  12.507   8.712
34337SOL    HW2 4786  12.670  12.470   8.729
34338SOL     OW 4787   5.693   9.470  12.250
34338SOL    HW1 4788   5.716   9.396  12.306
34338SOL    HW2 4789   5.655   9.534  12.310
34339SOL     OW 4790  10.736   0.843  12.225
34339SOL    HW1 4791  10.815   0.854  12.278
34339SOL    HW2 4792  10.760   0.776  12.160
34340SOL     OW 4793   7.945   7.994  11.039
34340SOL    HW1 4794   7.976   8.050  11.111
34340SOL    HW2 4795   7.978   7.907  11.061
34341SOL     OW 4796  12.726   5.649  14.090
34341SOL    HW1 4797  12.705   5.690  14.174
34341SOL    HW2 4798  12.820   5.665  14.079
34342SOL     OW 4799  14.447  12.799  10.034
34342SOL    HW1 4800  14.468  12.720  10.084
34342SOL    HW2 4801  14.397  12.853  10.095
34343SOL     OW 4802   5.655   5.712   5.801
34343SOL    HW1 4803   5.737   5.686   5.758
34343SOL    HW2 4804   5.683   5.753   5.882
34344SOL     OW 4805   5.168  10.862  10.802
34344SOL    HW1 4806   5.089  10.827  10.759
34344SOL    HW2 4807   5.164  10.957  10.786
34345SOL     OW 4808  13.614  13.111   9.384
34345SOL    HW1 4809  13.640  13.037   9.329
34345SOL    HW2 4810  13.549  13.074   9.444
34346SOL     OW 4811  12.630  11.959  10.024
34346SOL    HW1 4812  12.700  12.016   9.993
34346SOL    HW2 4813  12.625  11.890   9.958
34347SOL     OW 4814   5.264   4.678   7.681
34347SOL    HW1 4815   5.273   4.683   7.776
34347SOL    HW2 4816   5.204   4.605   7.667
34348SOL     OW 4817  13.723   6.097   2.222
34348SOL    HW1 4818  13.766   6.030   2.169
34348SOL    HW2 4819  13.775   6.177   2.207
34349SOL     OW 4820   7.783   1.718   6.284
34349SOL    HW1 4821   7.792   1.622   6.280
34349SOL    HW2 4822   7.833   1.743   6.362
34350SOL     OW 4823   1.907  14.830   5.072
34350SOL    HW1 4824   1.837  14.865   5.017
34350SOL    HW2 4825   1.865  14.816   5.157
34351SOL     OW 4826   6.953   3.950   5.993
34351SOL    HW1 4827   6.964   3.942   5.898
34351SOL    HW2 4828   7.035   3.916   6.029
34352SOL     OW 4829   5.339  11.134  13.276
34352SOL    HW1 4830   5.362  11.162  13.187
34352SOL    HW2 4831   5.423  11.120  13.320
34353SOL     OW 4832   3.186   3.347  13.184
34353SOL    HW1 4833   3.226   3.261  13.180
34353SOL    HW2 4834   3.093   3.330  13.201
34354SOL     OW 4835   1.042   1.488   6.312
34354SOL    HW1 4836   1.092   1.569   6.318
34354SOL    HW2 4837   1.082   1.430   6.376
34355SOL     OW 4838  10.336   0.427  14.386
34355SOL    HW1 4839  10.266   0.436  14.322
34355SOL    HW2 4840  10.327   0.338  14.421
34356SOL     OW 4841  12.534   9.440   9.611
34356SOL    HW1 4842  12.540   9.345   9.621
34356SOL    HW2 4843  12.524   9.473   9.701
34357SOL     OW 4844   4.143   2.413   4.372
34357SOL    HW1 4845   4.211   2.370   4.424
34357SOL    HW2 4846   4.184   2.428   4.287
34358SOL     OW 4847   7.447  11.415  13.262
34358SOL    HW1 4848   7.352  11.418  13.270
34358SOL    HW2 4849   7.472  11.331  13.302
34359SOL     OW 4850   5.948   0.499   2.144
34359SOL    HW1 4851   5.990   0.442   2.209
34359SOL    HW2 4852   5.947   0.447   2.064
34360SOL     OW 4853   2.059   4.237   7.120
34360SOL    HW1 4854   1.985   4.275   7.074
34360SOL    HW2 4855   2.114   4.313   7.143
34361SOL     OW 4856  14.774  11.234  10.774
34361SOL    HW1 4857  14.691  11.235  10.822
34361SOL    HW2 4858  14.828  11.172  10.822
34362SOL     OW 4859  13.964   3.322   5.751
34362SOL    HW1 4860  13.936   3.365   5.832
34362SOL    HW2 4861  14.054   3.352   5.738
34363SOL     OW 4862   5.111   4.738   5.699
34363SOL    HW1 4863   5.117   4.833   5.713
34363SOL    HW2 4864   5.181   4.702   5.754
34364SOL     OW 4865   1.430  10.573   5.962
34364SOL    HW1 4866   1.342  10.558   5.995
34364SOL    HW2 4867   1.443  10.668   5.968
34365SOL     OW 4868   9.782   2.243   2.795
34365SOL    HW1 4869   9.865   2.223   2.750
34365SOL    HW2 4870   9.761   2.332   2.769
34366SOL     OW 4871  14.030  14.717  11.910
34366SOL    HW1 4872  13.990  14.795  11.871
34366SOL    HW2 4873  13.966  14.687  11.974
34367SOL     OW 4874   1.256   2.759   3.216
34367SOL    HW1 4875   1.161   2.757   3.217
34367SOL    HW2 4876   1.279   2.852   3.220
34368SOL     OW 4877   2.598  12.739   5.646
34368SOL    HW1 4878   2.585  12.805   5.714
34368SOL    HW2 4879   2.520  12.683   5.651
34369SOL     OW 4880   6.648  13.692  10.986
34369SOL    HW1 4881   6.633  13.645  11.068
34369SOL    HW2 4882   6.736  13.728  10.995
34370SOL     OW 4883  10.284   0.570   7.853
34370SOL    HW1 4884  10.262   0.499   7.913
34370SOL    HW2 4885  10.289   0.529   7.767
34371SOL     OW 4886   0.802   5.580  14.179
34371SOL    HW1 4887   0.815   5.545  14.091
34371SOL    HW2 4888   0.838   5.669  14.175
34372SOL     OW 4889  10.345  11.540   3.801
34372SOL    HW1 4890  10.390  11.486   3.737
34372SOL    HW2 4891  10.297  11.477   3.856
34373SOL     OW 4892   0.278   9.075   9.554
34373SOL    HW1 4893   0.274   9.170   9.544
34373SOL    HW2 4894   0.210   9.054   9.618
34374SOL     OW 4895   6.454   3.340   2.403
34374SOL    HW1 4896   6.516   3.275   2.437
34374SOL    HW2 4897   6.487   3.424   2.435
34375SOL     OW 4898   6.502   4.232  10.941
34375SOL    HW1 4899   6.462   4.177  10.874
34375SOL    HW2 4900   6.436   4.297  10.963
34376SOL     OW 4901   3.929  12.727  13.293
34376SOL    HW1 4902   3.898  12.806  13.249
34376SOL    HW2 4903   3.955  12.758  13.380
34377SOL     OW 4904   4.678   6.565   7.193
34377SOL    HW1 4905   4.603   6.508   7.173
34377SOL    HW2 4906   4.672   6.580   7.287
34378SOL     OW 4907   9.274   5.081   3.885
34378SOL    HW1 4908   9.329   5.018   3.932
34378SOL    HW2 4909   9.334   5.124   3.825
34379SOL     OW 4910  11.272  11.375  10.487
34379SOL    HW1 4911  11.313  11.397  10.403
34379SOL    HW2 4912  11.293  11.283  10.501
34380SOL     OW 4913  13.692   5.959  14.787
34380SOL    HW1 4914  13.624   5.899  14.757
34380SOL    HW2 4915  13.773   5.907  14.785
34381SOL     OW 4916   1.808   4.242   0.083
34381SOL    HW1 4917   1.746   4.253   0.011
34381SOL    HW2 4918   1.780   4.307   0.148
34382SOL     OW 4919  11.494  12.203  12.557
34382SOL    HW1 4920  11.453  12.284  12.587
34382SOL    HW2 4921  11.573  12.231  12.511
34383SOL     OW 4922  13.563  14.315  12.364
34383SOL    HW1 4923  13.615  14.276  12.294
34383SOL    HW2 4924  13.473  14.314  12.330
34384SOL     OW 4925  14.441  12.501   7.532
34384SOL    HW1 4926  14.414  12.447   7.606
34384SOL    HW2 4927  14.523  12.541   7.560
34385SOL     OW 4928   0.067  10.735   3.927
34385SOL    HW1 4929   0.084  10.794   4.000
34385SOL    HW2 4930   0.144  10.679   3.922
34386SOL     OW 4931  11.175  10.413   6.356
34386SOL    HW1 4932  11.244  10.472   6.385
34386SOL    HW2 4933  11.185  10.335   6.411
34387SOL     OW 4934  11.879   1.590   0.832
34387SOL    HW1 4935  11.814   1.604   0.763
34387SOL    HW2 4936  11.829   1.590   0.913
34388SOL     OW 4937   4.634  14.621  14.628
34388SOL    HW1 4938   4.705  14.588  14.683
34388SOL    HW2 4939   4.664  14.607  14.538
34389SOL     OW 4940   0.372   2.379   0.957
34389SOL    HW1 4941   0.295   2.405   0.906
34389SOL    HW2 4942   0.337   2.333   1.033
34390SOL     OW 4943  12.424  10.163   2.431
34390SOL    HW1 4944  12.330  10.173   2.418
34390SOL    HW2 4945  12.458  10.253   2.437
34391SOL     OW 4946   8.603   5.577  12.437
34391SOL    HW1 4947   8.636   5.499  12.482
34391SOL    HW2 4948   8.548   5.542  12.367
34392SOL     OW 4949   3.956   2.891   5.640
34392SOL    HW1 4950   3.883   2.905   5.580
34392SOL    HW2 4951   3.950   2.963   5.703
34393SOL     OW 4952  12.235  14.701   2.685
34393SOL    HW1 4953  12.178  14.624   2.677
34393SOL    HW2 4954  12.219  14.733   2.774
34394SOL     OW 4955  14.315   4.865   3.399
34394SOL    HW1 4956  14.246   4.910   3.351
34394SOL    HW2 4957  14.331   4.920   3.476
34395SOL     OW 4958  13.082  10.669   7.372
34395SOL    HW1 4959  13.149  10.737   7.368
34395SOL    HW2 4960  13.095  10.627   7.458
34396SOL     OW 4961   2.635  13.686   5.214
34396SOL    HW1 4962   2.705  13.687   5.148
34396SOL    HW2 4963   2.580  13.761   5.191
34397SOL     OW 4964   1.482   8.359  14.454
34397SOL    HW1 4965   1.522   8.284  14.410
34397SOL    HW2 4966   1.472   8.425  14.385
34398SOL     OW 4967  10.289  13.161   9.072
34398SOL    HW1 4968  10.298  13.186   8.980
34398SOL    HW2 4969  10.265  13.069   9.070
34399SOL     OW 4970   9.992   4.622   1.882
34399SOL    HW1 4971   9.972   4.663   1.967
34399SOL    HW2 4972  10.046   4.687   1.837
34400SOL     OW 4973  13.942  12.803   8.085
34400SOL    HW1 4974  14.027  12.798   8.130
34400SOL    HW2 4975  13.884  12.747   8.136
34401SOL     OW 4976   1.305  14.469  14.021
34401SOL    HW1 4977   1.230  14.529  14.010
34401SOL    HW2 4978   1.272  14.401  14.080
34402SOL     OW 4979   4.052   7.321   7.832
34402SOL    HW1 4980   4.079   7.371   7.909
34402SOL    HW2 4981   4.116   7.251   7.824
34403SOL     OW 4982   8.316   4.993   4.380
34403SOL    HW1 4983   8.271   4.913   4.352
34403SOL    HW2 4984   8.317   4.988   4.475
34404SOL     OW 4985  14.087   2.826  13.133
34404SOL    HW1 4986  14.098   2.759  13.200
34404SOL    HW2 4987  14.167   2.879  13.139
34405SOL     OW 4988  14.257  14.625   3.152
34405SOL    HW1 4989  14.174  14.585   3.125
34405SOL    HW2 4990  14.313  14.552   3.176
34406SOL     OW 4991  11.709   7.173   0.131
34406SOL    HW1 4992  11.675   7.103   0.188
34406SOL    HW2 4993  11.655   7.249   0.152
34407SOL     OW 4994  13.645   7.860   0.900
34407SOL    HW1 4995  13.642   7.922   0.828
34407SOL    HW2 4996  13.707   7.898   0.962
34408SOL     OW 4997   9.620   8.083   2.415
34408SOL    HW1 4998   9.700   8.069   2.466
34408SOL    HW2 4999   9.652   8.113   2.329
34409SOL     OW 5000   4.644   8.027   2.705
34409SOL    HW1 5001   4.612   8.078   2.630
34409SOL    HW2 5002   4.630   8.084   2.780
34410SOL     OW 5003   8.590  11.381  13.621
34410SOL    HW1 5004   8.647  11.307  13.640
34410SOL    HW2 5005   8.599  11.396  13.527
34411SOL     OW 5006   7.919  14.566   7.975
34411SOL    HW1 5007   7.874  14.614   8.044
34411SOL    HW2 5008   7.878  14.480   7.975
34412SOL     OW 5009   6.563   2.575   5.405
34412SOL    HW1 5010   6.543   2.630   5.329
34412SOL    HW2 5011   6.499   2.504   5.400
34413SOL     OW 5012   8.539   4.946   7.645
34413SOL    HW1 5013   8.567   5.025   7.691
34413SOL    HW2 5014   8.552   4.875   7.707
34414SOL     OW 5015   7.820   9.252   0.560
34414SOL    HW1 5016   7.839   9.205   0.479
34414SOL    HW2 5017   7.726   9.238   0.574
34415SOL     OW 5018   2.465  11.854   6.678
34415SOL    HW1 5019   2.374  11.846   6.705
34415SOL    HW2 5020   2.499  11.764   6.680
34416SOL     OW 5021   2.862   9.742  13.283
34416SOL    HW1 5022   2.782   9.788  13.311
34416SOL    HW2 5023   2.929   9.772  13.343
34417SOL     OW 5024   1.471   8.718   7.328
34417SOL    HW1 5025   1.446   8.627   7.342
34417SOL    HW2 5026   1.555   8.727   7.373
34418SOL     OW 5027  11.766  13.127  12.381
34418SOL    HW1 5028  11.785  13.097  12.470
34418SOL    HW2 5029  11.691  13.185  12.391
34419SOL     OW 5030   3.662   9.620  14.265
34419SOL    HW1 5031   3.676   9.532  14.231
34419SOL    HW2 5032   3.678   9.678  14.191
34420SOL     OW 5033  10.472   2.403  10.121
34420SOL    HW1 5034  10.547   2.403  10.062
34420SOL    HW2 5035  10.441   2.493  10.123
34421SOL     OW 5036   0.206   7.033  13.788
34421SOL    HW1 5037   0.230   7.051  13.879
34421SOL    HW2 5038   0.286   7.051  13.739
34422SOL     OW 5039   1.393   8.542   5.299
34422SOL    HW1 5040   1.363   8.577   5.215
34422SOL    HW2 5041   1.384   8.615   5.360
34423SOL     OW 5042  11.784   7.855   2.556
34423SOL    HW1 5043  11.792   7.949   2.570
34423SOL    HW2 5044  11.833   7.838   2.476
34424SOL     OW 5045  11.414   8.777   9.351
34424SOL    HW1 5046  11.363   8.847   9.392
34424SOL    HW2 5047  11.412   8.798   9.258
34425SOL     OW 5048   3.087   7.597   1.290
34425SOL    HW1 5049   3.162   7.538   1.299
34425SOL    HW2 5050   3.121   7.673   1.245
34426SOL     OW 5051   1.884   0.934   5.736
34426SOL    HW1 5052   1.969   0.891   5.736
34426SOL    HW2 5053   1.830   0.881   5.678
34427SOL     OW 5054  10.358  11.545  10.849
34427SOL    HW1 5055  10.292  11.476  10.852
34427SOL    HW2 5056  10.375  11.559  10.756
34428SOL     OW 5057   6.958   8.101   8.829
34428SOL    HW1 5058   6.923   8.063   8.748
34428SOL    HW2 5059   7.045   8.134   8.805
34429SOL     OW 5060   2.515  10.761   6.068
34429SOL    HW1 5061   2.595  10.789   6.112
34429SOL    HW2 5062   2.541  10.684   6.017
34430SOL     OW 5063   4.872  13.745   5.596
34430SOL    HW1 5064   4.792  13.697   5.574
34430SOL    HW2 5065   4.843  13.813   5.657
34431SOL     OW 5066  14.800  14.699   4.766
34431SOL    HW1 5067  14.760  14.749   4.695
34431SOL    HW2 5068   0.011  14.681   4.735
34432SOL     OW 5069   6.166   9.923   5.709
34432SOL    HW1 5070   6.168   9.872   5.628
34432SOL    HW2 5071   6.100   9.880   5.764
34433SOL     OW 5072   1.002   1.945   7.568
34433SOL    HW1 5073   0.942   1.916   7.499
34433SOL    HW2 5074   1.089   1.925   7.533
34434SOL     OW 5075   1.478   0.097   4.093
34434SOL    HW1 5076   1.461   0.009   4.126
34434SOL    HW2 5077   1.573   0.103   4.087
34435SOL     OW 5078  12.861   2.993   3.688
34435SOL    HW1 5079  12.951   2.964   3.705
34435SOL    HW2 5080  12.838   3.044   3.766
34436SOL     OW 5081   7.035   9.286   0.723
34436SOL    HW1 5082   7.039   9.214   0.785
34436SOL    HW2 5083   6.953   9.332   0.744
34437SOL     OW 5084   7.409   9.423   5.381
34437SOL    HW1 5085   7.495   9.419   5.339
34437SOL    HW2 5086   7.363   9.493   5.335
34438SOL     OW 5087   0.231  12.104  11.379
34438SOL    HW1 5088   0.307  12.084  11.324
34438SOL    HW2 5089   0.159  12.053  11.341
34439SOL     OW 5090   1.211  13.347   9.421
34439SOL    HW1 5091   1.242  13.333   9.331
34439SOL    HW2 5092   1.150  13.276   9.437
34440SOL     OW 5093   1.633  11.124   1.068
34440SOL    HW1 5094   1.586  11.182   1.128
34440SOL    HW2 5095   1.576  11.118   0.992
34441SOL     OW 5096   7.334   7.634   2.162
34441SOL    HW1 5097   7.288   7.671   2.237
34441SOL    HW2 5098   7.378   7.709   2.121
34442SOL     OW 5099  12.689   1.993   6.821
34442SOL    HW1 5100  12.667   2.053   6.749
34442SOL    HW2 5101  12.745   1.927   6.780
34443SOL     OW 5102   4.912   3.482   0.049
34443SOL    HW1 5103   4.908   3.409   0.110
34443SOL    HW2 5104   4.839   3.468  14.867
34444SOL     OW 5105   9.620   2.447   0.040
34444SOL    HW1 5106   9.711   2.428   0.065
34444SOL    HW2 5107   9.573   2.451   0.123
34445SOL     OW 5108  10.253   0.004   9.406
34445SOL    HW1 5109  10.319  14.846   9.346
34445SOL    HW2 5110  10.304   0.033   9.482
34446SOL     OW 5111  14.229   2.294  14.845
34446SOL    HW1 5112  14.247   2.238   0.044
34446SOL    HW2 5113  14.197   2.376   0.005
34447SOL     OW 5114   0.253   4.918  14.029
34447SOL    HW1 5115   0.289   5.002  14.056
34447SOL    HW2 5116   0.161   4.922  14.057
34448SOL     OW 5117  12.075   4.641   5.562
34448SOL    HW1 5118  11.986   4.644   5.598
34448SOL    HW2 5119  12.117   4.568   5.607
34449SOL     OW 5120   8.769   3.039   8.156
34449SOL    HW1 5121   8.790   3.131   8.136
34449SOL    HW2 5122   8.693   3.044   8.214
34450SOL     OW 5123   6.607   5.020   7.008
34450SOL    HW1 5124   6.644   5.093   7.058
34450SOL    HW2 5125   6.683   4.976   6.970
34451SOL     OW 5126   2.659  10.912   5.260
34451SOL    HW1 5127   2.634  10.871   5.342
34451SOL    HW2 5128   2.697  10.840   5.209
34452SOL     OW 5129   5.714  11.460   1.707
34452SOL    HW1 5130   5.755  11.464   1.621
34452SOL    HW2 5131   5.751  11.534   1.755
34453SOL     OW 5132   9.380  11.432   1.911
34453SOL    HW1 5133   9.451  11.439   1.974
34453SOL    HW2 5134   9.329  11.357   1.941
34454SOL     OW 5135   6.475  12.326   4.298
34454SOL    HW1 5136   6.401  12.376   4.264
34454SOL    HW2 5137   6.480  12.249   4.241
34455SOL     OW 5138   7.439   0.195   9.939
34455SOL    HW1 5139   7.475   0.232  10.020
34455SOL    HW2 5140   7.347   0.178   9.960
34456SOL     OW 5141   3.690   0.213  13.209
34456SOL    HW1 5142   3.736   0.278  13.262
34456SOL    HW2 5143   3.597   0.232  13.223
34457SOL     OW 5144   1.292   4.552   0.788
34457SOL    HW1 5145   1.373   4.517   0.825
34457SOL    HW2 5146   1.318   4.634   0.746
34458SOL     OW 5147   1.491  11.115   7.234
34458SOL    HW1 5148   1.522  11.030   7.203
34458SOL    HW2 5149   1.495  11.171   7.157
34459SOL     OW 5150   4.264   6.357   4.708
34459SOL    HW1 5151   4.304   6.342   4.623
34459SOL    HW2 5152   4.263   6.452   4.718
34460SOL     OW 5153   6.144   6.682  11.573
34460SOL    HW1 5154   6.193   6.707  11.651
34460SOL    HW2 5155   6.152   6.587  11.570
34461SOL     OW 5156   0.085   9.620  12.454
34461SOL    HW1 5157   0.136   9.540  12.461
34461SOL    HW2 5158   0.026   9.618  12.530
34462SOL     OW 5159   4.874   2.227  11.670
34462SOL    HW1 5160   4.799   2.179  11.634
34462SOL    HW2 5161   4.911   2.272  11.594
34463SOL     OW 5162   0.933   7.263   6.874
34463SOL    HW1 5163   0.911   7.278   6.966
34463SOL    HW2 5164   1.013   7.210   6.876
34464SOL     OW 5165   7.463   1.131   0.344
34464SOL    HW1 5166   7.425   1.048   0.314
34464SOL    HW2 5167   7.471   1.120   0.439
34465SOL     OW 5168   5.418  10.931   9.464
34465SOL    HW1 5169   5.473  10.863   9.425
34465SOL    HW2 5170   5.467  11.012   9.452
34466SOL     OW 5171  10.838   8.234   8.882
34466SOL    HW1 5172  10.785   8.155   8.890
34466SOL    HW2 5173  10.919   8.205   8.840
34467SOL     OW 5174   9.990   1.833   1.524
34467SOL    HW1 5175  10.055   1.799   1.463
34467SOL    HW2 5176  10.039   1.851   1.604
34468SOL     OW 5177   6.596   3.207   0.065
34468SOL    HW1 5178   6.543   3.277   0.026
34468SOL    HW2 5179   6.643   3.250   0.137
34469SOL     OW 5180   2.632   1.555   7.336
34469SOL    HW1 5181   2.569   1.523   7.401
34469SOL    HW2 5182   2.716   1.552   7.381
34470SOL     OW 5183   1.988  13.114   4.196
34470SOL    HW1 5184   2.076  13.085   4.171
34470SOL    HW2 5185   1.976  13.078   4.283
34471SOL     OW 5186   9.993   2.644   1.109
34471SOL    HW1 5187  10.018   2.720   1.161
34471SOL    HW2 5188  10.004   2.672   1.018
34472SOL     OW 5189   9.150   1.635   4.175
34472SOL    HW1 5190   9.229   1.652   4.227
34472SOL    HW2 5191   9.183   1.593   4.095
34473SOL     OW 5192   8.373  11.633  12.721
34473SOL    HW1 5193   8.378  11.639  12.626
34473SOL    HW2 5194   8.433  11.561  12.743
34474SOL     OW 5195   7.202  10.157   3.112
34474SOL    HW1 5196   7.131  10.174   3.174
34474SOL    HW2 5197   7.247  10.080   3.148
34475SOL     OW 5198   6.698   6.983  14.136
34475SOL    HW1 5199   6.656   7.011  14.217
34475SOL    HW2 5200   6.786   7.018  14.141
34476SOL     OW 5201   7.114   9.756   9.272
34476SOL    HW1 5202   7.023   9.783   9.270
34476SOL    HW2 5203   7.156   9.817   9.332
34477SOL     OW 5204   5.732   8.875  13.854
34477SOL    HW1 5205   5.787   8.948  13.881
34477SOL    HW2 5206   5.727   8.884  13.758
34478SOL     OW 5207  13.956  12.849  10.456
34478SOL    HW1 5208  13.894  12.818  10.390
34478SOL    HW2 5209  13.906  12.910  10.509
34479SOL     OW 5210   4.277  10.839   7.388
34479SOL    HW1 5211   4.349  10.841   7.451
34479SOL    HW2 5212   4.313  10.795   7.312
34480SOL     OW 5213  13.547   1.895  13.091
34480SOL    HW1 5214  13.584   1.958  13.029
34480SOL    HW2 5215  13.580   1.810  13.061
34481SOL     OW 5216   6.279   2.787   8.782
34481SOL    HW1 5217   6.269   2.722   8.712
34481SOL    HW2 5218   6.374   2.801   8.788
34482SOL     OW 5219   0.481  12.014  14.850
34482SOL    HW1 5220   0.496  11.920  14.851
34482SOL    HW2 5221   0.429  12.032   0.051
34483SOL     OW 5222   3.903   8.096   1.603
34483SOL    HW1 5223   3.875   8.005   1.613
34483SOL    HW2 5224   3.886   8.136   1.688
34484SOL     OW 5225   6.923   4.660   0.123
34484SOL    HW1 5226   6.887   4.575   0.099
34484SOL    HW2 5227   6.869   4.688   0.197
34485SOL     OW 5228   9.594   0.855   2.354
34485SOL    HW1 5229   9.589   0.890   2.265
34485SOL    HW2 5230   9.568   0.929   2.410
34486SOL     OW 5231   3.196  11.340   4.877
34486SOL    HW1 5232   3.151  11.410   4.831
34486SOL    HW2 5233   3.127  11.290   4.920
34487SOL     OW 5234   0.913   4.704  10.082
34487SOL    HW1 5235   0.819   4.701  10.068
34487SOL    HW2 5236   0.942   4.613  10.078
34488SOL     OW 5237   2.577   7.668   8.915
34488SOL    HW1 5238   2.597   7.697   8.826
34488SOL    HW2 5239   2.581   7.572   8.910
34489SOL     OW 5240  14.637   1.172   2.968
34489SOL    HW1 5241  14.565   1.231   2.991
34489SOL    HW2 5242  14.698   1.226   2.918
34490SOL     OW 5243   0.293  13.130  13.863
34490SOL    HW1 5244   0.202  13.157  13.867
34490SOL    HW2 5245   0.289  13.034  13.860
34491SOL     OW 5246  13.385  12.828   6.544
34491SOL    HW1 5247  13.473  12.829   6.581
34491SOL    HW2 5248  13.341  12.904   6.583
34492SOL     OW 5249  10.446   7.355   0.244
34492SOL    HW1 5250  10.477   7.400   0.165
34492SOL    HW2 5251  10.433   7.425   0.307
34493SOL     OW 5252   5.548   1.278  10.023
34493SOL    HW1 5253   5.487   1.322  10.082
34493SOL    HW2 5254   5.603   1.348   9.988
34494SOL     OW 5255   0.292   4.122   9.972
34494SOL    HW1 5256   0.385   4.120   9.947
34494SOL    HW2 5257   0.274   4.214   9.989
34495SOL     OW 5258   1.575  11.948   5.422
34495SOL    HW1 5259   1.636  11.895   5.473
34495SOL    HW2 5260   1.631  11.996   5.361
34496SOL     OW 5261   4.145   0.023   4.671
34496SOL    HW1 5262   4.232   0.037   4.708
34496SOL    HW2 5263   4.088   0.011   4.747
34497SOL     OW 5264  14.542  12.898   3.815
34497SOL    HW1 5265  14.452  12.871   3.833
34497SOL    HW2 5266  14.547  12.989   3.843
34498SOL     OW 5267   9.217  11.391   2.822
34498SOL    HW1 5268   9.125  11.366   2.812
34498SOL    HW2 5269   9.246  11.413   2.733
34499SOL     OW 5270   2.890   0.186  12.408
34499SOL    HW1 5271   2.909   0.152  12.321
34499SOL    HW2 5272   2.817   0.246  12.396
34500SOL     OW 5273   5.229   7.909   4.177
34500SOL    HW1 5274   5.256   7.817   4.183
34500SOL    HW2 5275   5.299   7.957   4.221
34501SOL     OW 5276  11.168   9.099   6.657
34501SOL    HW1 5277  11.257   9.077   6.684
34501SOL    HW2 5278  11.171   9.099   6.561
34502SOL     OW 5279   5.963   6.767   8.742
34502SOL    HW1 5280   6.036   6.821   8.710
34502SOL    HW2 5281   5.884   6.814   8.715
34503SOL     OW 5282   2.598   3.084   7.992
34503SOL    HW1 5283   2.586   3.077   7.897
34503SOL    HW2 5284   2.689   3.059   8.006
34504SOL     OW 5285  13.319   6.777  13.210
34504SOL    HW1 5286  13.308   6.722  13.132
34504SOL    HW2 5287  13.263   6.853  13.192
34505SOL     OW 5288  14.486   4.178   4.747
34505SOL    HW1 5289  14.538   4.249   4.709
34505SOL    HW2 5290  14.395   4.205   4.732
34506SOL     OW 5291   6.656   2.804  11.616
34506SOL    HW1 5292   6.575   2.771  11.655
34506SOL    HW2 5293   6.687   2.871  11.677
34507SOL     OW 5294   7.325   2.015   1.361
34507SOL    HW1 5295   7.384   2.080   1.400
34507SOL    HW2 5296   7.356   1.931   1.396
34508SOL     OW 5297   2.713   8.755  12.643
34508SOL    HW1 5298   2.654   8.692  12.602
34508SOL    HW2 5299   2.799   8.713  12.640
34509SOL     OW 5300   3.503   8.982   6.616
34509SOL    HW1 5301   3.508   9.028   6.700
34509SOL    HW2 5302   3.414   8.999   6.585
34510SOL     OW 5303   5.662   8.710  13.409
34510SOL    HW1 5304   5.626   8.711  13.321
34510SOL    HW2 5305   5.740   8.655  13.402
34511SOL     OW 5306   8.799   6.215   0.942
34511SOL    HW1 5307   8.797   6.184   1.033
34511SOL    HW2 5308   8.889   6.198   0.913
34512SOL     OW 5309  14.840  14.129   2.732
34512SOL    HW1 5310  14.779  14.163   2.667
34512SOL    HW2 5311  14.856  14.038   2.706
34513SOL     OW 5312  14.785  13.023   6.346
34513SOL    HW1 5313  14.783  13.071   6.429
34513SOL    HW2 5314  14.831  13.081   6.285
34514SOL     OW 5315  11.636   5.241   6.023
34514SOL    HW1 5316  11.633   5.323   6.071
34514SOL    HW2 5317  11.558   5.241   5.968
34515SOL     OW 5318   0.362   1.826   7.992
34515SOL    HW1 5319   0.345   1.732   7.983
34515SOL    HW2 5320   0.315   1.852   8.071
34516SOL     OW 5321   3.000  13.297   2.571
34516SOL    HW1 5322   3.033  13.316   2.483
34516SOL    HW2 5323   3.021  13.376   2.621
34517SOL     OW 5324  12.696   5.561   5.542
34517SOL    HW1 5325  12.760   5.544   5.611
34517SOL    HW2 5326  12.747   5.562   5.461
34518SOL     OW 5327   9.329  14.152   1.888
34518SOL    HW1 5328   9.312  14.235   1.933
34518SOL    HW2 5329   9.275  14.157   1.808
34519SOL     OW 5330   8.474   9.481   6.542
34519SOL    HW1 5331   8.433   9.421   6.606
34519SOL    HW2 5332   8.453   9.442   6.457
34520SOL     OW 5333  10.627   7.061  11.796
34520SOL    HW1 5334  10.541   7.022  11.805
34520SOL    HW2 5335  10.686   7.002  11.843
34521SOL     OW 5336   6.861   2.572   3.432
34521SOL    HW1 5337   6.948   2.613   3.433
34521SOL    HW2 5338   6.817   2.607   3.509
34522SOL     OW 5339   4.292   4.524   5.606
34522SOL    HW1 5340   4.332   4.469   5.539
34522SOL    HW2 5341   4.274   4.465   5.679
34523SOL     OW 5342   6.382   8.205   4.116
34523SOL    HW1 5343   6.362   8.241   4.030
34523SOL    HW2 5344   6.411   8.281   4.168
34524SOL     OW 5345  13.131  10.567   5.576
34524SOL    HW1 5346  13.150  10.476   5.553
34524SOL    HW2 5347  13.217  10.610   5.576
34525SOL     OW 5348   1.125  10.578   4.190
34525SOL    HW1 5349   1.041  10.555   4.230
34525SOL    HW2 5350   1.156  10.652   4.241
34526SOL     OW 5351   0.684  12.093   0.696
34526SOL    HW1 5352   0.700  12.177   0.652
34526SOL    HW2 5353   0.646  12.117   0.780
34527SOL     OW 5354   1.424  13.916   1.713
34527SOL    HW1 5355   1.407  14.010   1.709
34527SOL    HW2 5356   1.506  13.905   1.664
34528SOL     OW 5357   7.933   1.714   4.618
34528SOL    HW1 5358   8.001   1.712   4.685
34528SOL    HW2 5359   7.883   1.793   4.639
34529SOL     OW 5360   2.856  13.296   1.241
34529SOL    HW1 5361   2.871  13.231   1.171
34529SOL    HW2 5362   2.800  13.250   1.304
34530SOL     OW 5363   0.982   5.374  12.929
34530SOL    HW1 5364   1.013   5.403  13.015
34530SOL    HW2 5365   0.904   5.322  12.948
34531SOL     OW 5366  12.360   7.345   1.240
34531SOL    HW1 5367  12.367   7.333   1.335
34531SOL    HW2 5368  12.400   7.430   1.223
34532SOL     OW 5369   5.444  12.785  13.122
34532SOL    HW1 5370   5.518  12.842  13.102
34532SOL    HW2 5371   5.411  12.758  13.036
34533SOL     OW 5372   7.645   9.004  13.421
34533SOL    HW1 5373   7.726   8.976  13.463
34533SOL    HW2 5374   7.654   8.976  13.330
34534SOL     OW 5375   1.121  14.118   1.534
34534SOL    HW1 5376   1.167  14.193   1.495
34534SOL    HW2 5377   1.052  14.157   1.587
34535SOL     OW 5378  11.945   8.323  11.560
34535SOL    HW1 5379  12.036   8.341  11.585
34535SOL    HW2 5380  11.927   8.384  11.488
34536SOL     OW 5381  13.418   4.192   1.480
34536SOL    HW1 5382  13.372   4.114   1.447
34536SOL    HW2 5383  13.482   4.157   1.542
34537SOL     OW 5384  14.507   5.844   0.867
34537SOL    HW1 5385  14.439   5.794   0.913
34537SOL    HW2 5386  14.585   5.831   0.921
34538SOL     OW 5387   3.646   7.869  13.709
34538SOL    HW1 5388   3.738   7.870  13.682
34538SOL    HW2 5389   3.597   7.888  13.629
34539SOL     OW 5390  11.713  10.626   4.793
34539SOL    HW1 5391  11.669  10.555   4.841
34539SOL    HW2 5392  11.798  10.634   4.835
34540SOL     OW 5393   7.468   5.982  10.431
34540SOL    HW1 5394   7.391   5.968  10.376
34540SOL    HW2 5395   7.475   6.077  10.438
34541SOL     OW 5396   8.333   0.949   0.329
34541SOL    HW1 5397   8.417   0.919   0.364
34541SOL    HW2 5398   8.330   0.916   0.240
34542SOL     OW 5399   5.767  11.312  10.830
34542SOL    HW1 5400   5.862  11.320  10.816
34542SOL    HW2 5401   5.742  11.395  10.871
34543SOL     OW 5402   2.166   2.033  13.033
34543SOL    HW1 5403   2.248   2.030  13.082
34543SOL    HW2 5404   2.178   1.969  12.963
34544SOL     OW 5405   3.892   6.635  10.886
34544SOL    HW1 5406   3.911   6.578  10.812
34544SOL    HW2 5407   3.838   6.706  10.850
34545SOL     OW 5408   5.358   4.893  12.099
34545SOL    HW1 5409   5.383   4.806  12.068
34545SOL    HW2 5410   5.433   4.949  12.076
34546SOL     OW 5411  12.566   5.120   2.338
34546SOL    HW1 5412  12.519   5.146   2.417
34546SOL    HW2 5413  12.658   5.113   2.366
34547SOL     OW 5414   7.519   4.572   9.623
34547SOL    HW1 5415   7.444   4.516   9.605
34547SOL    HW2 5416   7.481   4.653   9.656
34548SOL     OW 5417   8.041   9.203   0.400
34548SOL    HW1 5418   8.027   9.292   0.433
34548SOL    HW2 5419   8.115   9.170   0.452
34549SOL     OW 5420   1.549  10.361   6.124
34549SOL    HW1 5421   1.571  10.275   6.087
34549SOL    HW2 5422   1.497  10.403   6.055
34550SOL     OW 5423   7.293  14.406   1.031
34550SOL    HW1 5424   7.377  14.379   1.068
34550SOL    HW2 5425   7.235  14.417   1.106
34551SOL     OW 5426   3.948  14.060  10.237
34551SOL    HW1 5427   4.008  14.040  10.165
34551SOL    HW2 5428   3.941  14.155  10.236
34552SOL     OW 5429   1.464   4.694  13.675
34552SOL    HW1 5430   1.426   4.612  13.706
34552SOL    HW2 5431   1.486   4.678  13.583
34553SOL     OW 5432  11.726   9.416   4.886
34553SOL    HW1 5433  11.660   9.410   4.954
34553SOL    HW2 5434  11.682   9.384   4.807
34554SOL     OW 5435   9.516  10.951   7.163
34554SOL    HW1 5436   9.507  10.863   7.199
34554SOL    HW2 5437   9.600  10.949   7.116
34555SOL     OW 5438   2.708   5.732   4.532
34555SOL    HW1 5439   2.741   5.814   4.568
34555SOL    HW2 5440   2.728   5.737   4.438
34556SOL     OW 5441   2.154  12.784   5.416
34556SOL    HW1 5442   2.233  12.805   5.366
34556SOL    HW2 5443   2.090  12.757   5.349
34557SOL     OW 5444  12.593   0.192   3.311
34557SOL    HW1 5445  12.593   0.164   3.219
34557SOL    HW2 5446  12.536   0.128   3.355
34558SOL     OW 5447   9.753   2.119   9.951
34558SOL    HW1 5448   9.704   2.059  10.007
34558SOL    HW2 5449   9.794   2.063   9.886
34559SOL     OW 5450   3.241   0.651  11.674
34559SOL    HW1 5451   3.212   0.667  11.584
34559SOL    HW2 5452   3.247   0.738  11.713
34560SOL     OW 5453  10.240   0.432  13.439
34560SOL    HW1 5454  10.244   0.369  13.366
34560SOL    HW2 5455  10.326   0.474  13.438
34561SOL     OW 5456   7.329  13.851  11.848
34561SOL    HW1 5457   7.335  13.944  11.871
34561SOL    HW2 5458   7.235  13.832  11.848
34562SOL     OW 5459   2.308   4.732   3.351
34562SOL    HW1 5460   2.403   4.730   3.361
34562SOL    HW2 5461   2.287   4.824   3.339
34563SOL     OW 5462   7.839   3.058   7.553
34563SOL    HW1 5463   7.831   3.153   7.560
34563SOL    HW2 5464   7.834   3.040   7.459
34564SOL     OW 5465  14.165   9.609   6.459
34564SOL    HW1 5466  14.166   9.548   6.533
34564SOL    HW2 5467  14.092   9.579   6.405
34565SOL     OW 5468  11.517  13.412  13.981
34565SOL    HW1 5469  11.439  13.468  13.986
34565SOL    HW2 5470  11.487  13.326  14.011
34566SOL     OW 5471   1.631   4.100   0.576
34566SOL    HW1 5472   1.623   4.048   0.495
34566SOL    HW2 5473   1.701   4.057   0.625
34567SOL     OW 5474  10.618   7.193  12.602
34567SOL    HW1 5475  10.576   7.209  12.687
34567SOL    HW2 5476  10.686   7.260  12.597
34568SOL     OW 5477  12.764   9.537  13.499
34568SOL    HW1 5478  12.764   9.441  13.499
34568SOL    HW2 5479  12.748   9.560  13.591
34569SOL     OW 5480   7.833   1.052  13.837
34569SOL    HW1 5481   7.765   1.117  13.820
34569SOL    HW2 5482   7.909   1.102  13.864
34570SOL     OW 5483   7.200  10.179   2.521
34570SOL    HW1 5484   7.138  10.221   2.462
34570SOL    HW2 5485   7.284  10.222   2.503
34571SOL     OW 5486  13.003  13.257  12.526
34571SOL    HW1 5487  13.077  13.211  12.487
34571SOL    HW2 5488  12.968  13.196  12.590
34572SOL     OW 5489   4.713   9.965   7.422
34572SOL    HW1 5490   4.796   9.918   7.412
34572SOL    HW2 5491   4.651   9.916   7.369
34573SOL     OW 5492  13.797   1.800   8.635
34573SOL    HW1 5493  13.865   1.849   8.681
34573SOL    HW2 5494  13.845   1.747   8.571
34574SOL     OW 5495   3.457   6.966   0.417
34574SOL    HW1 5496   3.502   7.032   0.471
34574SOL    HW2 5497   3.457   6.887   0.471
34575SOL     OW 5498   3.172  13.822  10.782
34575SOL    HW1 5499   3.197  13.729  10.780
34575SOL    HW2 5500   3.077  13.821  10.773
34576SOL     OW 5501   8.205   9.672   0.953
34576SOL    HW1 5502   8.209   9.722   1.034
34576SOL    HW2 5503   8.244   9.729   0.887
34577SOL     OW 5504  12.126   3.199   4.502
34577SOL    HW1 5505  12.183   3.166   4.571
34577SOL    HW2 5506  12.061   3.130   4.488
34578SOL     OW 5507   0.947   9.637   7.703
34578SOL    HW1 5508   0.853   9.634   7.717
34578SOL    HW2 5509   0.963   9.722   7.663
34579SOL     OW 5510   8.513  12.978   6.589
34579SOL    HW1 5511   8.501  12.964   6.683
34579SOL    HW2 5512   8.550  13.066   6.583
34580SOL     OW 5513  10.155   5.773  11.517
34580SOL    HW1 5514  10.235   5.810  11.482
34580SOL    HW2 5515  10.099   5.849  11.536
34581SOL     OW 5516   7.760   0.385   9.664
34581SOL    HW1 5517   7.810   0.450   9.616
34581SOL    HW2 5518   7.792   0.391   9.754
34582SOL     OW 5519   4.625   6.188  13.604
34582SOL    HW1 5520   4.671   6.271  13.618
34582SOL    HW2 5521   4.681   6.139  13.544
34583SOL     OW 5522   8.214   7.651  12.690
34583SOL    HW1 5523   8.296   7.662  12.642
34583SOL    HW2 5524   8.213   7.724  12.752
34584SOL     OW 5525   8.378  11.608   7.354
34584SOL    HW1 5526   8.341  11.625   7.441
34584SOL    HW2 5527   8.316  11.648   7.293
34585SOL     OW 5528   7.126  13.858  12.947
34585SOL    HW1 5529   7.069  13.819  13.013
34585SOL    HW2 5530   7.082  13.839  12.864
34586SOL     OW 5531   6.414  11.459   8.593
34586SOL    HW1 5532   6.377  11.527   8.650
34586SOL    HW2 5533   6.361  11.463   8.514
34587SOL     OW 5534   5.088  13.531   1.344
34587SOL    HW1 5535   5.005  13.557   1.304
34587SOL    HW2 5536   5.116  13.454   1.294
34588SOL     OW 5537   1.043  11.563  10.442
34588SOL    HW1 5538   0.997  11.595  10.520
34588SOL    HW2 5539   0.980  11.506  10.398
34589SOL     OW 5540  11.180   1.440   4.255
34589SOL    HW1 5541  11.108   1.487   4.213
34589SOL    HW2 5542  11.143   1.405   4.336
34590SOL     OW 5543   5.589   5.568   5.418
34590SOL    HW1 5544   5.559   5.572   5.327
34590SOL    HW2 5545   5.512   5.593   5.470
34591SOL     OW 5546  10.228   5.236   0.955
34591SOL    HW1 5547  10.165   5.297   0.919
34591SOL    HW2 5548  10.248   5.270   1.043
34592SOL     OW 5549  11.084  11.265   5.420
34592SOL    HW1 5550  11.118  11.311   5.497
34592SOL    HW2 5551  11.158  11.214   5.388
34593SOL     OW 5552   3.058   3.012  12.464
34593SOL    HW1 5553   3.143   3.013  12.509
34593SOL    HW2 5554   2.999   3.057  12.524
34594SOL     OW 5555  13.641   8.951   8.094
34594SOL    HW1 5556  13.622   9.022   8.155
34594SOL    HW2 5557  13.590   8.877   8.128
34595SOL     OW 5558   9.116   0.950  10.617
34595SOL    HW1 5559   9.029   0.925  10.587
34595SOL    HW2 5560   9.124   0.911  10.704
34596SOL     OW 5561   5.717  12.107   6.174
34596SOL    HW1 5562   5.800  12.131   6.132
34596SOL    HW2 5563   5.710  12.167   6.248
34597SOL     OW 5564  10.248   0.919   4.939
34597SOL    HW1 5565  10.168   0.867   4.933
34597SOL    HW2 5566  10.303   0.871   5.001
34598SOL     OW 5567  10.251   3.340  14.132
34598SOL    HW1 5568  10.342   3.343  14.101
34598SOL    HW2 5569  10.198   3.353  14.054
34599SOL     OW 5570   1.057   8.382   4.365
34599SOL    HW1 5571   0.983   8.360   4.421
34599SOL    HW2 5572   1.076   8.302   4.316
34600SOL     OW 5573   3.355  12.649  14.413
34600SOL    HW1 5574   3.315  12.689  14.490
34600SOL    HW2 5575   3.332  12.556  14.420
34601SOL     OW 5576   8.043   9.992   0.621
34601SOL    HW1 5577   8.043  10.068   0.678
34601SOL    HW2 5578   7.955   9.956   0.629
34602SOL     OW 5579   6.649  12.396  11.399
34602SOL    HW1 5580   6.630  12.350  11.317
34602SOL    HW2 5581   6.574  12.377  11.455
34603SOL     OW 5582  12.695  12.004  12.409
34603SOL    HW1 5583  12.779  11.959  12.401
34603SOL    HW2 5584  12.717  12.093  12.436
34604SOL     OW 5585   0.060   7.179   6.331
34604SOL    HW1 5586   0.035   7.270   6.319
34604SOL    HW2 5587   0.014   7.151   6.411
34605SOL     OW 5588  13.383   4.893   2.999
34605SOL    HW1 5589  13.332   4.817   2.972
34605SOL    HW2 5590  13.350   4.915   3.086
34606SOL     OW 5591  13.776  14.376  10.566
34606SOL    HW1 5592  13.844  14.312  10.587
34606SOL    HW2 5593  13.821  14.440  10.510
34607SOL     OW 5594  10.786   5.578  11.183
34607SOL    HW1 5595  10.873   5.611  11.159
34607SOL    HW2 5596  10.755   5.535  11.104
34608SOL     OW 5597  11.142   9.534   1.371
34608SOL    HW1 5598  11.127   9.446   1.335
34608SOL    HW2 5599  11.133   9.592   1.295
34609SOL     OW 5600  13.874  10.717  12.943
34609SOL    HW1 5601  13.940  10.760  12.998
34609SOL    HW2 5602  13.825  10.662  13.004
34610SOL     OW 5603   3.395   0.079   7.870
34610SOL    HW1 5604   3.415   0.164   7.833
34610SOL    HW2 5605   3.410   0.089   7.964
34611SOL     OW 5606  14.851   4.845   4.957
34611SOL    HW1 5607  14.838   4.830   5.051
34611SOL    HW2 5608   0.067   4.862   4.948
34612SOL     OW 5609  14.690   2.110   1.133
34612SOL    HW1 5610  14.695   2.099   1.228
34612SOL    HW2 5611  14.619   2.052   1.106
34613SOL     OW 5612   4.423   9.910   2.566
34613SOL    HW1 5613   4.382   9.992   2.593
34613SOL    HW2 5614   4.473   9.933   2.487
34614SOL     OW 5615   5.572   2.500   8.986
34614SOL    HW1 5616   5.501   2.511   8.924
34614SOL    HW2 5617   5.569   2.578   9.041
34615SOL     OW 5618   5.025   5.602   6.924
34615SOL    HW1 5619   4.992   5.512   6.925
34615SOL    HW2 5620   5.006   5.634   6.836
34616SOL     OW 5621   6.336   7.145  14.567
34616SOL    HW1 5622   6.296   7.064  14.598
34616SOL    HW2 5623   6.403   7.166  14.632
34617SOL     OW 5624  13.202   4.532  12.920
34617SOL    HW1 5625  13.222   4.493  13.005
34617SOL    HW2 5626  13.108   4.518  12.909
34618SOL     OW 5627   8.972   7.877  14.614
34618SOL    HW1 5628   8.920   7.845  14.540
34618SOL    HW2 5629   9.041   7.812  14.625
34619SOL     OW 5630  11.808   6.315   4.365
34619SOL    HW1 5631  11.759   6.395   4.387
34619SOL    HW2 5632  11.899   6.338   4.381
34620SOL     OW 5633   5.836  14.348   1.048
34620SOL    HW1 5634   5.831  14.442   1.030
34620SOL    HW2 5635   5.846  14.308   0.961
34621SOL     OW 5636  12.711   0.619   0.896
34621SOL    HW1 5637  12.721   0.543   0.953
34621SOL    HW2 5638  12.628   0.604   0.849
34622SOL     OW 5639   2.769   7.630   0.699
34622SOL    HW1 5640   2.731   7.705   0.745
34622SOL    HW2 5641   2.839   7.600   0.757
34623SOL     OW 5642  14.715   7.986   6.197
34623SOL    HW1 5643  14.700   8.077   6.169
34623SOL    HW2 5644  14.727   7.992   6.291
34624SOL     OW 5645   6.057   8.399   2.390
34624SOL    HW1 5646   6.080   8.309   2.413
34624SOL    HW2 5647   6.003   8.391   2.311
34625SOL     OW 5648   0.198   5.190   1.493
34625SOL    HW1 5649   0.240   5.104   1.491
34625SOL    HW2 5650   0.120   5.179   1.438
34626SOL     OW 5651  12.043  10.724   5.677
34626SOL    HW1 5652  11.953  10.739   5.706
34626SOL    HW2 5653  12.037  10.651   5.615
34627SOL     OW 5654   6.999   2.155   9.924
34627SOL    HW1 5655   7.036   2.235   9.961
34627SOL    HW2 5656   7.043   2.084   9.971
34628SOL     OW 5657  10.730   4.052  14.277
34628SOL    HW1 5658  10.699   4.093  14.359
34628SOL    HW2 5659  10.678   3.972  14.270
34629SOL     OW 5660   2.557  14.045   2.232
34629SOL    HW1 5661   2.510  14.126   2.251
34629SOL    HW2 5662   2.523  13.982   2.295
34630SOL     OW 5663  11.119   4.267   6.776
34630SOL    HW1 5664  11.206   4.304   6.790
34630SOL    HW2 5665  11.093   4.232   6.861
34631SOL     OW 5666  12.420   8.080   3.084
34631SOL    HW1 5667  12.436   7.993   3.046
34631SOL    HW2 5668  12.403   8.063   3.176
34632SOL     OW 5669   9.455   6.155  11.985
34632SOL    HW1 5670   9.414   6.209  12.052
34632SOL    HW2 5671   9.546   6.146  12.014
34633SOL     OW 5672  12.554  11.842   7.927
34633SOL    HW1 5673  12.458  11.843   7.924
34633SOL    HW2 5674  12.575  11.890   8.007
34634SOL     OW 5675   8.830   2.129  14.228
34634SOL    HW1 5676   8.905   2.108  14.283
34634SOL    HW2 5677   8.776   2.187  14.281
34635SOL     OW 5678  11.055  13.076  12.970
34635SOL    HW1 5679  10.996  13.109  13.037
34635SOL    HW2 5680  11.118  13.022  13.018
34636SOL     OW 5681   7.658  13.132   7.174
34636SOL    HW1 5682   7.706  13.053   7.151
34636SOL    HW2 5683   7.572  13.120   7.133
34637SOL     OW 5684  10.274   4.227  11.883
34637SOL    HW1 5685  10.274   4.314  11.842
34637SOL    HW2 5686  10.357   4.223  11.930
34638SOL     OW 5687   9.314   7.772  13.786
34638SOL    HW1 5688   9.391   7.771  13.730
34638SOL    HW2 5689   9.295   7.680  13.802
34639SOL     OW 5690   5.896   5.480   7.337
34639SOL    HW1 5691   5.890   5.558   7.392
34639SOL    HW2 5692   5.850   5.413   7.386
34640SOL     OW 5693   5.548  10.260  14.792
34640SOL    HW1 5694   5.566  10.336  14.737
34640SOL    HW2 5695   5.634  10.223  14.812
34641SOL     OW 5696   5.671   0.397   6.227
34641SOL    HW1 5697   5.747   0.451   6.205
34641SOL    HW2 5698   5.658   0.412   6.321
34642SOL     OW 5699   3.625   5.817   9.145
34642SOL    HW1 5700   3.683   5.890   9.124
34642SOL    HW2 5701   3.616   5.820   9.240
34643SOL     OW 5702   6.717  14.366  14.753
34643SOL    HW1 5703   6.660  14.293  14.730
34643SOL    HW2 5704   6.788  14.362  14.688
34644SOL     OW 5705   5.108  10.832   3.517
34644SOL    HW1 5706   5.189  10.873   3.487
34644SOL    HW2 5707   5.116  10.832   3.613
34645SOL     OW 5708  11.630  10.120   4.539
34645SOL    HW1 5709  11.669  10.174   4.608
34645SOL    HW2 5710  11.703  10.104   4.479
34646SOL     OW 5711   8.302   0.082   1.958
34646SOL    HW1 5712   8.311   0.149   1.890
34646SOL    HW2 5713   8.361   0.011   1.931
34647SOL     OW 5714  11.796   2.269  11.899
34647SOL    HW1 5715  11.823   2.356  11.928
34647SOL    HW2 5716  11.722   2.247  11.956
34648SOL     OW 5717   1.075   8.305   2.030
34648SOL    HW1 5718   1.063   8.224   2.080
34648SOL    HW2 5719   1.000   8.309   1.972
34649SOL     OW 5720   4.619  13.666  10.462
34649SOL    HW1 5721   4.619  13.762  10.466
34649SOL    HW2 5722   4.687  13.645  10.397
34650SOL     OW 5723  14.794   3.821   0.332
34650SOL    HW1 5724  14.748   3.738   0.319
34650SOL    HW2 5725  14.730   3.878   0.374
34651SOL     OW 5726   5.450   5.426  13.469
34651SOL    HW1 5727   5.533   5.427  13.516
34651SOL    HW2 5728   5.435   5.518  13.446
34652SOL     OW 5729   5.773  13.393   8.568
34652SOL    HW1 5730   5.723  13.401   8.486
34652SOL    HW2 5731   5.768  13.299   8.589
34653SOL     OW 5732   2.416   9.757   2.302
34653SOL    HW1 5733   2.462   9.695   2.358
34653SOL    HW2 5734   2.326   9.723   2.296
34654SOL     OW 5735   2.722  14.470   2.874
34654SOL    HW1 5736   2.799  14.484   2.819
34654SOL    HW2 5737   2.707  14.376   2.870
34655SOL     OW 5738   5.885   9.967   6.678
34655SOL    HW1 5739   5.917   9.914   6.751
34655SOL    HW2 5740   5.933   9.934   6.601
34656SOL     OW 5741   4.249   8.055   2.083
34656SOL    HW1 5742   4.249   8.023   1.993
34656SOL    HW2 5743   4.336   8.095   2.094
34657SOL     OW 5744   4.318  12.518   8.958
34657SOL    HW1 5745   4.299  12.608   8.933
34657SOL    HW2 5746   4.326  12.471   8.875
34658SOL     OW 5747   7.984   2.415  13.124
34658SOL    HW1 5748   8.024   2.391  13.208
34658SOL    HW2 5749   8.048   2.472  13.083
34659SOL     OW 5750  12.283   9.906  13.419
34659SOL    HW1 5751  12.206   9.854  13.397
34659SOL    HW2 5752  12.281   9.912  13.515
34660SOL     OW 5753   4.797   1.952   5.684
34660SOL    HW1 5754   4.844   2.010   5.624
34660SOL    HW2 5755   4.866   1.908   5.734
34661SOL     OW 5756   2.258   1.007   2.303
34661SOL    HW1 5757   2.178   0.957   2.316
34661SOL    HW2 5758   2.228   1.097   2.289
34662SOL     OW 5759   6.235   4.174   9.507
34662SOL    HW1 5760   6.155   4.143   9.465
34662SOL    HW2 5761   6.239   4.125   9.589
34663SOL     OW 5762   5.565   4.649   1.020
34663SOL    HW1 5763   5.652   4.684   1.040
34663SOL    HW2 5764   5.583   4.559   0.992
34664SOL     OW 5765   2.702   6.572  11.236
34664SOL    HW1 5766   2.734   6.610  11.155
34664SOL    HW2 5767   2.658   6.491  11.210
34665SOL     OW 5768   1.677   6.714  13.563
34665SOL    HW1 5769   1.742   6.647  13.540
34665SOL    HW2 5770   1.597   6.665  13.581
34666SOL     OW 5771  10.501   8.419  10.342
34666SOL    HW1 5772  10.593   8.394  10.339
34666SOL    HW2 5773  10.484   8.460  10.258
34667SOL     OW 5774   3.218  14.251   9.364
34667SOL    HW1 5775   3.305  14.245   9.403
34667SOL    HW2 5776   3.158  14.228   9.434
34668SOL     OW 5777   9.256   0.102  11.806
34668SOL    HW1 5778   9.299   0.092  11.721
34668SOL    HW2 5779   9.208   0.184  11.799
34669SOL     OW 5780   4.218   0.940   8.058
34669SOL    HW1 5781   4.140   0.895   8.024
34669SOL    HW2 5782   4.290   0.906   8.004
34670SOL     OW 5783  11.350   7.519   5.594
34670SOL    HW1 5784  11.377   7.431   5.619
34670SOL    HW2 5785  11.368   7.573   5.671
34671SOL     OW 5786   7.275   8.825   4.727
34671SOL    HW1 5787   7.325   8.862   4.800
34671SOL    HW2 5788   7.226   8.752   4.764
34672SOL     OW 5789   3.921   5.183   7.708
34672SOL    HW1 5790   3.943   5.203   7.617
34672SOL    HW2 5791   3.973   5.245   7.759
34673SOL     OW 5792   6.047   0.366  14.088
34673SOL    HW1 5793   6.135   0.402  14.098
34673SOL    HW2 5794   5.992   0.423  14.141
34674SOL     OW 5795   7.047   6.925   8.099
34674SOL    HW1 5796   7.134   6.886   8.095
34674SOL    HW2 5797   7.064   7.018   8.119
34675SOL     OW 5798   5.070  11.224  11.745
34675SOL    HW1 5799   4.993  11.225  11.688
34675SOL    HW2 5800   5.042  11.271  11.824
34676SOL     OW 5801   4.323   9.909   1.868
34676SOL    HW1 5802   4.347   9.930   1.958
34676SOL    HW2 5803   4.289   9.991   1.832
34677SOL     OW 5804   6.596   0.858  13.714
34677SOL    HW1 5805   6.538   0.795  13.757
34677SOL    HW2 5806   6.653   0.805  13.660
34678SOL     OW 5807   6.149   8.059  11.438
34678SOL    HW1 5808   6.234   8.048  11.396
34678SOL    HW2 5809   6.149   8.149  11.470
34679SOL     OW 5810  13.431   4.269   8.720
34679SOL    HW1 5811  13.521   4.238   8.715
34679SOL    HW2 5812  13.378   4.189   8.718
34680SOL     OW 5813  13.654   6.028   8.645
34680SOL    HW1 5814  13.658   6.111   8.693
34680SOL    HW2 5815  13.587   6.042   8.578
34681SOL     OW 5816   9.598   9.701  13.466
34681SOL    HW1 5817   9.534   9.656  13.412
34681SOL    HW2 5818   9.582   9.668  13.555
34682SOL     OW 5819  10.256  13.138  14.856
34682SOL    HW1 5820  10.227  13.164   0.066
34682SOL    HW2 5821  10.305  13.056  14.871
34683SOL     OW 5822   2.510   2.066  11.781
34683SOL    HW1 5823   2.513   2.014  11.701
34683SOL    HW2 5824   2.434   2.124  11.769
34684SOL     OW 5825   7.658   1.096   1.945
34684SOL    HW1 5826   7.660   1.176   1.892
34684SOL    HW2 5827   7.588   1.044   1.906
34685SOL     OW 5828   8.480   7.222   1.828
34685SOL    HW1 5829   8.426   7.289   1.786
34685SOL    HW2 5830   8.536   7.188   1.757
34686SOL     OW 5831   1.896  10.363  14.757
34686SOL    HW1 5832   1.877  10.317  14.839
34686SOL    HW2 5833   1.991  10.360  14.749
34687SOL     OW 5834   8.854   0.769   1.768
34687SOL    HW1 5835   8.941   0.776   1.727
34687SOL    HW2 5836   8.872   0.752   1.860
34688SOL     OW 5837   1.620   6.606   9.700
34688SOL    HW1 5838   1.595   6.683   9.650
34688SOL    HW2 5839   1.712   6.592   9.678
34689SOL     OW 5840   3.486   3.724   7.110
34689SOL    HW1 5841   3.472   3.753   7.200
34689SOL    HW2 5842   3.547   3.651   7.118
34690SOL     OW 5843   8.239   8.903   7.749
34690SOL    HW1 5844   8.159   8.921   7.798
34690SOL    HW2 5845   8.284   8.835   7.800
34691SOL     OW 5846   7.511  13.511   3.179
34691SOL    HW1 5847   7.596  13.550   3.199
34691SOL    HW2 5848   7.455  13.585   3.154
34692SOL     OW 5849   9.012   9.790   0.037
34692SOL    HW1 5850   8.937   9.753  14.869
34692SOL    HW2 5851   9.038   9.864  14.861
34693SOL     OW 5852   4.356   0.660   6.750
34693SOL    HW1 5853   4.326   0.750   6.761
34693SOL    HW2 5854   4.451   0.665   6.758
34694SOL     OW 5855   1.802  11.246   6.181
34694SOL    HW1 5856   1.860  11.219   6.253
34694SOL    HW2 5857   1.714  11.235   6.216
34695SOL     OW 5858   6.111   9.505   2.516
34695SOL    HW1 5859   6.164   9.470   2.444
34695SOL    HW2 5860   6.025   9.520   2.477
34696SOL     OW 5861   0.046   2.951   3.401
34696SOL    HW1 5862   0.125   2.983   3.445
34696SOL    HW2 5863   0.003   3.031   3.370
34697SOL     OW 5864   4.231  14.166   8.326
34697SOL    HW1 5865   4.266  14.179   8.237
34697SOL    HW2 5866   4.193  14.251   8.349
34698SOL     OW 5867   1.554  13.251  11.769
34698SOL    HW1 5868   1.488  13.221  11.707
34698SOL    HW2 5869   1.565  13.177  11.829
34699SOL     OW 5870  13.570  14.817   7.505
34699SOL    HW1 5871  13.572  14.731   7.548
34699SOL    HW2 5872  13.477  14.833   7.489
34700SOL     OW 5873   5.482   6.620  10.340
34700SOL    HW1 5874   5.473   6.642  10.247
34700SOL    HW2 5875   5.523   6.534  10.342
34701SOL     OW 5876   9.602  13.058  11.197
34701SOL    HW1 5877   9.607  13.009  11.279
34701SOL    HW2 5878   9.630  13.146  11.220
34702SOL     OW 5879  10.673   2.357   9.966
34702SOL    HW1 5880  10.758   2.312   9.972
34702SOL    HW2 5881  10.663   2.377   9.873
34703SOL     OW 5882  10.523   4.233  13.427
34703SOL    HW1 5883  10.494   4.323  13.443
34703SOL    HW2 5884  10.569   4.237  13.343
34704SOL     OW 5885   8.849  14.116  13.500
34704SOL    HW1 5886   8.837  14.097  13.407
34704SOL    HW2 5887   8.787  14.058  13.545
34705SOL     OW 5888   9.629   5.479   1.442
34705SOL    HW1 5889   9.614   5.385   1.435
34705SOL    HW2 5890   9.724   5.488   1.451
34706SOL     OW 5891   9.204   4.522   3.830
34706SOL    HW1 5892   9.108   4.520   3.825
34706SOL    HW2 5893   9.224   4.503   3.921
34707SOL     OW 5894   9.607   6.557  14.071
34707SOL    HW1 5895   9.565   6.507  14.141
34707SOL    HW2 5896   9.585   6.510  13.991
34708SOL     OW 5897  14.335   7.071   4.656
34708SOL    HW1 5898  14.247   7.101   4.634
34708SOL    HW2 5899  14.363   7.127   4.728
34709SOL     OW 5900  12.564   0.710   2.699
34709SOL    HW1 5901  12.568   0.755   2.615
34709SOL    HW2 5902  12.647   0.662   2.704
34710SOL     OW 5903   6.281   3.053   6.703
34710SOL    HW1 5904   6.267   3.104   6.783
34710SOL    HW2 5905   6.337   3.109   6.649
34711SOL     OW 5906   3.027   8.626   3.298
34711SOL    HW1 5907   2.962   8.656   3.234
34711SOL    HW2 5908   2.976   8.604   3.376
34712SOL     OW 5909  10.071   2.299   2.430
34712SOL    HW1 5910  10.021   2.308   2.349
34712SOL    HW2 5911  10.159   2.329   2.406
34713SOL     OW 5912   6.060   4.956  12.691
34713SOL    HW1 5913   6.037   4.863  12.690
34713SOL    HW2 5914   6.156   4.957  12.692
34714SOL     OW 5915   9.954   3.393   7.585
34714SOL    HW1 5916   9.906   3.314   7.561
34714SOL    HW2 5917   9.983   3.429   7.501
34715SOL     OW 5918   9.449   5.329   3.749
34715SOL    HW1 5919   9.521   5.355   3.807
34715SOL    HW2 5920   9.390   5.405   3.751
34716SOL     OW 5921   6.152   6.180   1.597
34716SOL    HW1 5922   6.178   6.089   1.578
34716SOL    HW2 5923   6.071   6.192   1.548
34717SOL     OW 5924   7.720  11.105   0.892
34717SOL    HW1 5925   7.705  11.122   0.799
34717SOL    HW2 5926   7.636  11.121   0.934
34718SOL     OW 5927   4.188   3.568  11.579
34718SOL    HW1 5928   4.181   3.475  11.560
34718SOL    HW2 5929   4.107   3.606  11.544
34719SOL     OW 5930   0.899   4.887   3.599
34719SOL    HW1 5931   0.810   4.854   3.584
34719SOL    HW2 5932   0.943   4.876   3.515
34720SOL     OW 5933   6.864   6.108   0.937
34720SOL    HW1 5934   6.885   6.111   0.843
34720SOL    HW2 5935   6.779   6.063   0.941
34721SOL     OW 5936   8.776   5.746  14.618
34721SOL    HW1 5937   8.735   5.729  14.533
34721SOL    HW2 5938   8.709   5.794  14.667
34722SOL     OW 5939  10.047   4.277  13.942
34722SOL    HW1 5940  10.066   4.368  13.968
34722SOL    HW2 5941  10.132   4.243  13.914
34723SOL     OW 5942   6.579  11.660   1.938
34723SOL    HW1 5943   6.599  11.659   2.031
34723SOL    HW2 5944   6.662  11.637   1.895
34724SOL     OW 5945   0.835   3.577   3.200
34724SOL    HW1 5946   0.883   3.495   3.201
34724SOL    HW2 5947   0.894   3.640   3.241
34725SOL     OW 5948   3.178   5.649  13.872
34725SOL    HW1 5949   3.118   5.582  13.840
34725SOL    HW2 5950   3.196   5.703  13.795
34726SOL     OW 5951  12.370   1.662  13.238
34726SOL    HW1 5952  12.442   1.600  13.223
34726SOL    HW2 5953  12.387   1.697  13.326
34727SOL     OW 5954   8.620   5.559   6.460
34727SOL    HW1 5955   8.644   5.592   6.547
34727SOL    HW2 5956   8.547   5.614   6.433
34728SOL     OW 5957   5.088   7.290   2.826
34728SOL    HW1 5958   5.017   7.262   2.884
34728SOL    HW2 5959   5.132   7.209   2.800
34729SOL     OW 5960  14.538  12.093   8.879
34729SOL    HW1 5961  14.600  12.024   8.901
34729SOL    HW2 5962  14.452  12.052   8.891
34730SOL     OW 5963  12.335  13.566   1.287
34730SOL    HW1 5964  12.336  13.620   1.366
34730SOL    HW2 5965  12.266  13.502   1.302
34731SOL     OW 5966   5.361   8.001  13.296
34731SOL    HW1 5967   5.312   7.924  13.267
34731SOL    HW2 5968   5.422   7.967  13.361
34732SOL     OW 5969  13.349   4.549  10.215
34732SOL    HW1 5970  13.441   4.544  10.188
34732SOL    HW2 5971  13.301   4.561  10.133
34733SOL     OW 5972  12.229   5.606   4.879
34733SOL    HW1 5973  12.313   5.653   4.875
34733SOL    HW2 5974  12.228   5.567   4.966
34734SOL     OW 5975  10.929   4.234   9.359
34734SOL    HW1 5976  10.913   4.328   9.364
34734SOL    HW2 5977  10.858   4.195   9.409
34735SOL     OW 5978   1.575  13.254  10.027
34735SOL    HW1 5979   1.650  13.236   9.971
34735SOL    HW2 5980   1.566  13.349  10.025
34736SOL     OW 5981  11.136   9.041  13.314
34736SOL    HW1 5982  11.135   8.969  13.377
34736SOL    HW2 5983  11.212   9.093  13.339
34737SOL     OW 5984   6.533  12.458   6.997
34737SOL    HW1 5985   6.625  12.456   7.023
34737SOL    HW2 5986   6.510  12.551   6.997
34738SOL     OW 5987   0.173   0.562   7.055
34738SOL    HW1 5988   0.226   0.510   6.995
34738SOL    HW2 5989   0.186   0.652   7.025
34739SOL     OW 5990   7.471   0.224  12.855
34739SOL    HW1 5991   7.399   0.257  12.908
34739SOL    HW2 5992   7.505   0.150  12.905
34740SOL     OW 5993   0.632  10.110   4.704
34740SOL    HW1 5994   0.616  10.118   4.798
34740SOL    HW2 5995   0.554  10.066   4.671
34741SOL     OW 5996  14.179   9.153   3.627
34741SOL    HW1 5997  14.245   9.185   3.688
34741SOL    HW2 5998  14.195   9.059   3.619
34742SOL     OW 5999   1.423   3.996   1.138
34742SOL    HW1 6000   1.483   4.052   1.088
34742SOL    HW2 6001   1.343   4.047   1.144
34743SOL     OW 6002   1.289   4.785  10.723
34743SOL    HW1 6003   1.298   4.709  10.666
34743SOL    HW2 6004   1.291   4.748  10.812
34744SOL     OW 6005   1.384   9.888   8.250
34744SOL    HW1 6006   1.394   9.967   8.302
34744SOL    HW2 6007   1.293   9.889   8.220
34745SOL     OW 6008   0.001   2.288   3.781
34745SOL    HW1 6009   0.078   2.297   3.837
34745SOL    HW2 6010   0.036   2.273   3.694
34746SOL     OW 6011   4.629  13.591   3.154
34746SOL    HW1 6012   4.565  13.654   3.122
34746SOL    HW2 6013   4.580  13.537   3.216
34747SOL     OW 6014   2.533   5.579   6.390
34747SOL    HW1 6015   2.580   5.544   6.466
34747SOL    HW2 6016   2.569   5.667   6.378
34748SOL     OW 6017  13.691  14.083   5.608
34748SOL    HW1 6018  13.671  14.016   5.673
34748SOL    HW2 6019  13.778  14.115   5.632
34749SOL     OW 6020  14.875   6.385   7.009
34749SOL    HW1 6021  14.799   6.348   7.054
34749SOL    HW2 6022  14.840   6.413   6.924
34750SOL     OW 6023  13.998  10.765  14.752
34750SOL    HW1 6024  13.985  10.828  14.823
34750SOL    HW2 6025  13.929  10.700  14.765
34751SOL     OW 6026   5.570   9.525   7.929
34751SOL    HW1 6027   5.550   9.611   7.890
34751SOL    HW2 6028   5.662   9.509   7.905
34752SOL     OW 6029   2.188  12.173   0.228
34752SOL    HW1 6030   2.114  12.122   0.195
34752SOL    HW2 6031   2.230  12.116   0.292
34753SOL     OW 6032  12.548   9.026   1.910
34753SOL    HW1 6033  12.637   8.992   1.910
34753SOL    HW2 6034  12.496   8.957   1.866
34754SOL     OW 6035   5.065  13.166  12.891
34754SOL    HW1 6036   5.036  13.217  12.816
34754SOL    HW2 6037   5.065  13.075  12.859
34755SOL     OW 6038   0.086   7.907  11.502
34755SOL    HW1 6039   0.116   7.830  11.550
34755SOL    HW2 6040   0.000   7.928  11.540
34756SOL     OW 6041   0.189   0.738  14.472
34756SOL    HW1 6042   0.155   0.657  14.510
34756SOL    HW2 6043   0.259   0.710  14.414
34757SOL     OW 6044  13.071  12.307   3.449
34757SOL    HW1 6045  13.059  12.337   3.540
34757SOL    HW2 6046  13.052  12.384   3.396
34758SOL     OW 6047   8.199   1.573   5.040
34758SOL    HW1 6048   8.183   1.659   5.078
34758SOL    HW2 6049   8.124   1.558   4.982
34759SOL     OW 6050   4.634  10.245   6.941
34759SOL    HW1 6051   4.655  10.164   6.894
34759SOL    HW2 6052   4.659  10.315   6.882
34760SOL     OW 6053   2.815   6.630  10.980
34760SOL    HW1 6054   2.871   6.567  10.934
34760SOL    HW2 6055   2.809   6.705  10.920
34761SOL     OW 6056   5.564  12.682   9.289
34761SOL    HW1 6057   5.594  12.730   9.212
34761SOL    HW2 6058   5.645  12.659   9.335
34762SOL     OW 6059  13.977  13.078   4.048
34762SOL    HW1 6060  13.978  13.074   4.144
34762SOL    HW2 6061  13.946  12.992   4.020
34763SOL     OW 6062   9.645   6.904  14.099
34763SOL    HW1 6063   9.616   6.815  14.081
34763SOL    HW2 6064   9.720   6.918  14.041
34764SOL     OW 6065   7.842   4.170   0.327
34764SOL    HW1 6066   7.912   4.225   0.363
34764SOL    HW2 6067   7.865   4.158   0.235
34765SOL     OW 6068  13.425   6.310   5.918
34765SOL    HW1 6069  13.340   6.306   5.963
34765SOL    HW2 6070  13.475   6.375   5.967
34766SOL     OW 6071   9.434   3.397  10.943
34766SOL    HW1 6072   9.367   3.439  10.996
34766SOL    HW2 6073   9.512   3.397  10.999
34767SOL     OW 6074   9.777   9.041  11.697
34767SOL    HW1 6075   9.715   9.010  11.632
34767SOL    HW2 6076   9.731   9.110  11.744
34768SOL     OW 6077   9.386   9.040  13.414
34768SOL    HW1 6078   9.347   9.124  13.390
34768SOL    HW2 6079   9.467   9.035  13.364
34769SOL     OW 6080  14.314   4.217  11.098
34769SOL    HW1 6081  14.325   4.133  11.053
34769SOL    HW2 6082  14.257   4.268  11.040
34770SOL     OW 6083   7.184   3.946   8.908
34770SOL    HW1 6084   7.098   3.982   8.931
34770SOL    HW2 6085   7.172   3.851   8.912
34771SOL     OW 6086   1.570   5.544  11.907
34771SOL    HW1 6087   1.592   5.591  11.827
34771SOL    HW2 6088   1.529   5.610  11.963
34772SOL     OW 6089   3.177  11.423  13.636
34772SOL    HW1 6090   3.222  11.494  13.681
34772SOL    HW2 6091   3.131  11.376  13.706
34773SOL     OW 6092  14.671  11.650  14.248
34773SOL    HW1 6093  14.627  11.630  14.166
34773SOL    HW2 6094  14.639  11.584  14.310
34774SOL     OW 6095   0.977  13.196   6.466
34774SOL    HW1 6096   0.958  13.189   6.560
34774SOL    HW2 6097   1.049  13.135   6.451
34775SOL     OW 6098   8.098   9.980   9.123
34775SOL    HW1 6099   8.041   9.998   9.198
34775SOL    HW2 6100   8.050   9.916   9.071
34776SOL     OW 6101   4.460   2.889  12.106
34776SOL    HW1 6102   4.482   2.802  12.072
34776SOL    HW2 6103   4.429   2.872  12.196
34777SOL     OW 6104  13.901   2.662  10.095
34777SOL    HW1 6105  13.812   2.644  10.065
34777SOL    HW2 6106  13.898   2.648  10.190
34778SOL     OW 6107  13.576   3.779  14.248
34778SOL    HW1 6108  13.483   3.758  14.247
34778SOL    HW2 6109  13.620   3.697  14.270
34779SOL     OW 6110  11.198   8.096   8.482
34779SOL    HW1 6111  11.191   8.036   8.409
34779SOL    HW2 6112  11.123   8.155   8.472
34780SOL     OW 6113   9.248   1.782   6.189
34780SOL    HW1 6114   9.187   1.854   6.174
34780SOL    HW2 6115   9.310   1.815   6.254
34781SOL     OW 6116   2.126   2.574  11.471
34781SOL    HW1 6117   2.060   2.511  11.442
34781SOL    HW2 6118   2.149   2.624  11.392
34782SOL     OW 6119   4.319   7.903   7.679
34782SOL    HW1 6120   4.382   7.841   7.717
34782SOL    HW2 6121   4.235   7.857   7.684
34783SOL     OW 6122   7.327  11.141  10.293
34783SOL    HW1 6123   7.255  11.179  10.242
34783SOL    HW2 6124   7.406  11.179  10.255
34784SOL     OW 6125   0.897   5.661   9.480
34784SOL    HW1 6126   0.836   5.606   9.529
34784SOL    HW2 6127   0.878   5.641   9.388
34785SOL     OW 6128   8.820   1.543   4.142
34785SOL    HW1 6129   8.853   1.630   4.164
34785SOL    HW2 6130   8.804   1.546   4.048
34786SOL     OW 6131   7.695   0.958   2.524
34786SOL    HW1 6132   7.671   0.895   2.592
34786SOL    HW2 6133   7.696   1.042   2.569
34787SOL     OW 6134  13.101   4.184   1.806
34787SOL    HW1 6135  13.084   4.205   1.714
34787SOL    HW2 6136  13.123   4.091   1.806
34788SOL     OW 6137   1.743   4.329  10.349
34788SOL    HW1 6138   1.751   4.308  10.256
34788SOL    HW2 6139   1.693   4.256  10.386
34789SOL     OW 6140   6.829  12.700  11.749
34789SOL    HW1 6141   6.784  12.631  11.798
34789SOL    HW2 6142   6.851  12.765  11.815
34790SOL     OW 6143   9.994  12.543  12.149
34790SOL    HW1 6144   9.901  12.566  12.148
34790SOL    HW2 6145  10.003  12.484  12.224
34791SOL     OW 6146  12.612   0.159  13.062
34791SOL    HW1 6147  12.624   0.141  13.155
34791SOL    HW2 6148  12.678   0.225  13.041
34792SOL     OW 6149   2.984   1.112  10.508
34792SOL    HW1 6150   3.032   1.076  10.434
34792SOL    HW2 6151   2.915   1.165  10.469
34793SOL     OW 6152  11.647  14.240   9.183
34793SOL    HW1 6153  11.631  14.165   9.125
34793SOL    HW2 6154  11.576  14.300   9.165
34794SOL     OW 6155  13.559   8.433   6.715
34794SOL    HW1 6156  13.478   8.458   6.759
34794SOL    HW2 6157  13.628   8.472   6.768
34795SOL     OW 6158  11.587  10.402   0.468
34795SOL    HW1 6159  11.639  10.427   0.392
34795SOL    HW2 6160  11.651  10.376   0.534
34796SOL     OW 6161   6.707   4.403   7.426
34796SOL    HW1 6162   6.802   4.397   7.437
34796SOL    HW2 6163   6.677   4.312   7.426
34797SOL     OW 6164   9.351  12.448   5.971
34797SOL    HW1 6165   9.393  12.371   5.934
34797SOL    HW2 6166   9.422  12.496   6.015
34798SOL     OW 6167   3.200  11.676  13.449
34798SOL    HW1 6168   3.176  11.692  13.541
34798SOL    HW2 6169   3.276  11.618  13.453
34799SOL     OW 6170   5.733  11.806   8.551
34799SOL    HW1 6171   5.758  11.836   8.463
34799SOL    HW2 6172   5.747  11.883   8.607
34800SOL     OW 6173   6.792   3.897   1.521
34800SOL    HW1 6174   6.753   3.887   1.434
34800SOL    HW2 6175   6.863   3.960   1.508
34801SOL     OW 6176  12.474  14.269   8.698
34801SOL    HW1 6177  12.541  14.328   8.665
34801SOL    HW2 6178  12.418  14.324   8.753
34802SOL     OW 6179   6.902   9.926  10.065
34802SOL    HW1 6180   6.903   9.874  10.146
34802SOL    HW2 6181   6.809   9.942  10.049
34803SOL     OW 6182   7.576  10.596   6.651
34803SOL    HW1 6183   7.603  10.635   6.734
34803SOL    HW2 6184   7.646  10.618   6.590
34804SOL     OW 6185  13.587   0.526  14.204
34804SOL    HW1 6186  13.610   0.557  14.116
34804SOL    HW2 6187  13.659   0.467  14.228
34805SOL     OW 6188   4.014  13.529   9.031
34805SOL    HW1 6189   4.030  13.532   9.126
34805SOL    HW2 6190   4.101  13.533   8.991
34806SOL     OW 6191   6.796  11.568  11.037
34806SOL    HW1 6192   6.875  11.581  11.091
34806SOL    HW2 6193   6.723  11.589  11.095
34807SOL     OW 6194   5.532   2.772   4.160
34807SOL    HW1 6195   5.600   2.709   4.183
34807SOL    HW2 6196   5.565   2.814   4.080
34808SOL     OW 6197  10.427   1.568   2.101
34808SOL    HW1 6198  10.430   1.492   2.159
34808SOL    HW2 6199  10.519   1.588   2.083
34809SOL     OW 6200   9.260  13.013   0.531
34809SOL    HW1 6201   9.177  12.993   0.487
34809SOL    HW2 6202   9.327  12.982   0.470
34810SOL     OW 6203   8.290   6.546   7.107
34810SOL    HW1 6204   8.320   6.485   7.175
34810SOL    HW2 6205   8.258   6.489   7.037
34811SOL     OW 6206   4.420   4.059   3.366
34811SOL    HW1 6207   4.453   4.016   3.288
34811SOL    HW2 6208   4.496   4.103   3.404
34812SOL     OW 6209   3.025  12.377   3.868
34812SOL    HW1 6210   3.112  12.359   3.904
34812SOL    HW2 6211   3.013  12.311   3.800
34813SOL     OW 6212   6.583  11.314   1.910
34813SOL    HW1 6213   6.617  11.339   1.997
34813SOL    HW2 6214   6.520  11.245   1.928
34814SOL     OW 6215  14.715   2.302   6.753
34814SOL    HW1 6216  14.644   2.254   6.711
34814SOL    HW2 6217  14.676   2.342   6.830
34815SOL     OW 6218   2.602  10.494   1.999
34815SOL    HW1 6219   2.636  10.530   1.917
34815SOL    HW2 6220   2.679  10.480   2.053
34816SOL     OW 6221   6.629   5.128   5.275
34816SOL    HW1 6222   6.597   5.078   5.350
34816SOL    HW2 6223   6.557   5.187   5.254
34817SOL     OW 6224   1.399   5.000  10.637
34817SOL    HW1 6225   1.368   4.910  10.643
34817SOL    HW2 6226   1.392   5.033  10.727
34818SOL     OW 6227  12.611   3.359   0.003
34818SOL    HW1 6228  12.649   3.301  14.815
34818SOL    HW2 6229  12.520   3.370  14.853
34819SOL     OW 6230   0.652   3.887   2.425
34819SOL    HW1 6231   0.613   3.871   2.511
34819SOL    HW2 6232   0.702   3.807   2.406
34820SOL     OW 6233   1.431  11.166   2.966
34820SOL    HW1 6234   1.360  11.216   3.007
34820SOL    HW2 6235   1.429  11.081   3.009
34821SOL     OW 6236   1.460   2.295   6.290
34821SOL    HW1 6237   1.533   2.233   6.279
34821SOL    HW2 6238   1.458   2.343   6.207
34822SOL     OW 6239  14.709   7.179   7.917
34822SOL    HW1 6240  14.669   7.111   7.972
34822SOL    HW2 6241  14.655   7.180   7.838
34823SOL     OW 6242   9.664  11.493  10.183
34823SOL    HW1 6243   9.626  11.417  10.229
34823SOL    HW2 6244   9.754  11.496  10.213
34824SOL     OW 6245   9.707   2.779   1.410
34824SOL    HW1 6246   9.679   2.864   1.442
34824SOL    HW2 6247   9.682   2.779   1.317
34825SOL     OW 6248  14.286   6.451  13.335
34825SOL    HW1 6249  14.218   6.397  13.296
34825SOL    HW2 6250  14.361   6.440  13.276
34826SOL     OW 6251   0.206   3.011   0.593
34826SOL    HW1 6252   0.146   3.068   0.642
34826SOL    HW2 6253   0.242   2.951   0.658
34827SOL     OW 6254   7.525  14.355  14.391
34827SOL    HW1 6255   7.609  14.311  14.401
34827SOL    HW2 6256   7.540  14.419  14.322
34828SOL     OW 6257  14.644   8.627   6.463
34828SOL    HW1 6258  14.652   8.687   6.537
34828SOL    HW2 6259  14.560   8.650   6.423
34829SOL     OW 6260   6.255   0.305  12.213
34829SOL    HW1 6261   6.241   0.302  12.308
34829SOL    HW2 6262   6.287   0.394  12.197
34830SOL     OW 6263  13.761   9.462  11.010
34830SOL    HW1 6264  13.701   9.536  11.006
34830SOL    HW2 6265  13.759   9.424  10.923
34831SOL     OW 6266   7.098   5.929  14.202
34831SOL    HW1 6267   7.149   5.886  14.270
34831SOL    HW2 6268   7.007   5.904  14.221
34832SOL     OW 6269  10.357   9.225   9.144
34832SOL    HW1 6270  10.291   9.247   9.210
34832SOL    HW2 6271  10.359   9.129   9.144
34833SOL     OW 6272  12.153  11.775  10.898
34833SOL    HW1 6273  12.059  11.782  10.917
34833SOL    HW2 6274  12.186  11.865  10.907
34834SOL     OW 6275   5.766   7.884  12.881
34834SOL    HW1 6276   5.794   7.797  12.853
34834SOL    HW2 6277   5.745   7.930  12.800
34835SOL     OW 6278  10.902   1.302   2.781
34835SOL    HW1 6279  10.822   1.299   2.729
34835SOL    HW2 6280  10.875   1.272   2.868
34836SOL     OW 6281   1.847  12.419  14.159
34836SOL    HW1 6282   1.864  12.513  14.161
34836SOL    HW2 6283   1.934  12.379  14.159
34837SOL     OW 6284  14.052  12.745   9.385
34837SOL    HW1 6285  14.084  12.821   9.434
34837SOL    HW2 6286  13.986  12.781   9.326
34838SOL     OW 6287  10.323  10.878  11.055
34838SOL    HW1 6288  10.293  10.793  11.025
34838SOL    HW2 6289  10.297  10.882  11.147
34839SOL     OW 6290   4.513   8.758   8.616
34839SOL    HW1 6291   4.582   8.788   8.557
34839SOL    HW2 6292   4.560   8.710   8.684
34840SOL     OW 6293   9.230   1.184   8.165
34840SOL    HW1 6294   9.210   1.176   8.258
34840SOL    HW2 6295   9.157   1.141   8.121
34841SOL     OW 6296  11.021   8.958   0.428
34841SOL    HW1 6297  11.007   9.052   0.432
34841SOL    HW2 6298  11.021   8.929   0.519
34842SOL     OW 6299   1.117   8.697   5.341
34842SOL    HW1 6300   1.025   8.693   5.316
34842SOL    HW2 6301   1.129   8.623   5.400
34843SOL     OW 6302  13.271   4.623   3.107
34843SOL    HW1 6303  13.271   4.634   3.202
34843SOL    HW2 6304  13.329   4.549   3.091
34844SOL     OW 6305   4.634  13.550   9.096
34844SOL    HW1 6306   4.687  13.548   9.175
34844SOL    HW2 6307   4.698  13.552   9.024
34845SOL     OW 6308   3.793   8.712  14.118
34845SOL    HW1 6309   3.769   8.669  14.200
34845SOL    HW2 6310   3.861   8.774  14.142
34846SOL     OW 6311  10.531   6.293  13.856
34846SOL    HW1 6312  10.485   6.351  13.916
34846SOL    HW2 6313  10.612   6.338  13.835
34847SOL     OW 6314   3.424  12.728   2.054
34847SOL    HW1 6315   3.465  12.805   2.094
34847SOL    HW2 6316   3.494  12.686   2.003
34848SOL     OW 6317  12.294   5.001   7.763
34848SOL    HW1 6318  12.207   4.993   7.724
34848SOL    HW2 6319  12.312   4.914   7.800
34849SOL     OW 6320  13.580  11.664   6.731
34849SOL    HW1 6321  13.520  11.645   6.804
34849SOL    HW2 6322  13.545  11.613   6.658
34850SOL     OW 6323  12.767   5.780   2.685
34850SOL    HW1 6324  12.846   5.816   2.644
34850SOL    HW2 6325  12.801   5.715   2.747
34851SOL     OW 6326  14.024   5.107  10.922
34851SOL    HW1 6327  13.962   5.083  10.990
34851SOL    HW2 6328  14.040   5.025  10.874
34852SOL     OW 6329   9.058   9.826   7.913
34852SOL    HW1 6330   8.997   9.772   7.863
34852SOL    HW2 6331   9.138   9.827   7.861
34853SOL     OW 6332   0.481  13.958   3.965
34853SOL    HW1 6333   0.399  13.922   3.932
34853SOL    HW2 6334   0.476  13.946   4.060
34854SOL     OW 6335   9.697   6.472  12.829
34854SOL    HW1 6336   9.748   6.498  12.906
34854SOL    HW2 6337   9.653   6.392  12.857
34855SOL     OW 6338   4.098   9.234   2.527
34855SOL    HW1 6339   4.128   9.250   2.437
34855SOL    HW2 6340   4.078   9.320   2.562
34856SOL     OW 6341   0.728   6.210  12.923
34856SOL    HW1 6342   0.682   6.280  12.969
34856SOL    HW2 6343   0.803   6.189  12.978
34857SOL     OW 6344  12.939   2.196   9.630
34857SOL    HW1 6345  12.873   2.157   9.572
34857SOL    HW2 6346  12.897   2.275   9.665
34858SOL     OW 6347   4.374   2.594  10.954
34858SOL    HW1 6348   4.403   2.508  10.923
34858SOL    HW2 6349   4.371   2.586  11.049
34859SOL     OW 6350   4.229  11.810  13.866
34859SOL    HW1 6351   4.135  11.813  13.845
34859SOL    HW2 6352   4.232  11.812  13.962
34860SOL     OW 6353   2.239  14.766   3.799
34860SOL    HW1 6354   2.266  14.801   3.884
34860SOL    HW2 6355   2.145  14.784   3.794
34861SOL     OW 6356  10.852   3.984  10.783
34861SOL    HW1 6357  10.880   3.926  10.712
34861SOL    HW2 6358  10.804   4.054  10.739
34862SOL     OW 6359   2.219  14.526   4.076
34862SOL    HW1 6360   2.211  14.609   4.123
34862SOL    HW2 6361   2.297  14.536   4.022
34863SOL     OW 6362  13.548   6.977  10.668
34863SOL    HW1 6363  13.634   7.015  10.649
34863SOL    HW2 6364  13.513   7.031  10.739
34864SOL     OW 6365  14.058   2.881  11.109
34864SOL    HW1 6366  13.992   2.951  11.115
34864SOL    HW2 6367  14.082   2.879  11.016
34865SOL     OW 6368   6.351   9.650  14.374
34865SOL    HW1 6369   6.362   9.563  14.336
34865SOL    HW2 6370   6.262   9.649  14.410
34866SOL     OW 6371  11.874   9.173   9.158
34866SOL    HW1 6372  11.792   9.221   9.173
34866SOL    HW2 6373  11.890   9.183   9.064
34867SOL     OW 6374  11.769   2.733   0.283
34867SOL    HW1 6375  11.713   2.763   0.355
34867SOL    HW2 6376  11.804   2.813   0.245
34868SOL     OW 6377  14.054   8.731   9.652
34868SOL    HW1 6378  14.006   8.648   9.656
34868SOL    HW2 6379  14.059   8.752   9.559
34869SOL     OW 6380   5.983   2.645   4.315
34869SOL    HW1 6381   6.044   2.620   4.245
34869SOL    HW2 6382   6.039   2.661   4.391
34870SOL     OW 6383   3.495   2.246   3.705
34870SOL    HW1 6384   3.409   2.284   3.688
34870SOL    HW2 6385   3.485   2.153   3.682
34871SOL     OW 6386   0.642   6.370  12.512
34871SOL    HW1 6387   0.710   6.416  12.464
34871SOL    HW2 6388   0.560   6.401  12.474
34872SOL     OW 6389  13.210   6.264  10.650
34872SOL    HW1 6390  13.130   6.300  10.688
34872SOL    HW2 6391  13.189   6.172  10.632
34873SOL     OW 6392   9.971   3.647   1.166
34873SOL    HW1 6393   9.984   3.588   1.240
34873SOL    HW2 6394   9.983   3.590   1.089
34874SOL     OW 6395   5.855  11.096   5.516
34874SOL    HW1 6396   5.937  11.144   5.527
34874SOL    HW2 6397   5.813  11.101   5.602
34875SOL     OW 6398   6.967   4.036  10.661
34875SOL    HW1 6399   7.006   4.123  10.670
34875SOL    HW2 6400   6.998   4.004  10.576
34876SOL     OW 6401   6.378  11.812  14.447
34876SOL    HW1 6402   6.320  11.885  14.467
34876SOL    HW2 6403   6.371  11.755  14.523
34877SOL     OW 6404  10.543   3.739   5.135
34877SOL    HW1 6405  10.563   3.824   5.096
34877SOL    HW2 6406  10.628   3.704   5.162
34878SOL     OW 6407   3.535   7.687   7.141
34878SOL    HW1 6408   3.477   7.610   7.144
34878SOL    HW2 6409   3.479   7.758   7.111
34879SOL     OW 6410   2.299   8.874  10.528
34879SOL    HW1 6411   2.303   8.828  10.612
34879SOL    HW2 6412   2.377   8.844  10.480
34880SOL     OW 6413   0.797  12.976   5.884
34880SOL    HW1 6414   0.869  13.021   5.839
34880SOL    HW2 6415   0.728  12.969   5.818
34881SOL     OW 6416   2.362   2.925   1.284
34881SOL    HW1 6417   2.271   2.911   1.258
34881SOL    HW2 6418   2.404   2.840   1.271
34882SOL     OW 6419   3.854  14.181  13.781
34882SOL    HW1 6420   3.834  14.274  13.789
34882SOL    HW2 6421   3.793  14.138  13.841
34883SOL     OW 6422   2.474  11.019   9.984
34883SOL    HW1 6423   2.465  10.940  10.037
34883SOL    HW2 6424   2.563  11.049  10.000
34884SOL     OW 6425   8.960   4.992   8.876
34884SOL    HW1 6426   8.920   4.950   8.952
34884SOL    HW2 6427   8.887   5.001   8.814
34885SOL     OW 6428  12.774   8.843   0.329
34885SOL    HW1 6429  12.737   8.927   0.358
34885SOL    HW2 6430  12.864   8.864   0.305
34886SOL     OW 6431  14.802   0.677  14.835
34886SOL    HW1 6432  14.715   0.638  14.828
34886SOL    HW2 6433  14.795   0.759  14.786
34887SOL     OW 6434   8.259   6.831   9.624
34887SOL    HW1 6435   8.350   6.844   9.650
34887SOL    HW2 6436   8.250   6.735   9.617
34888SOL     OW 6437   9.509   4.201   7.950
34888SOL    HW1 6438   9.602   4.181   7.951
34888SOL    HW2 6439   9.474   4.155   8.027
34889SOL     OW 6440   0.840   3.908   0.731
34889SOL    HW1 6441   0.815   3.865   0.812
34889SOL    HW2 6442   0.760   3.949   0.699
34890SOL     OW 6443  10.659   0.733   7.741
34890SOL    HW1 6444  10.604   0.660   7.712
34890SOL    HW2 6445  10.671   0.718   7.835
34891SOL     OW 6446   8.169   8.239  12.063
34891SOL    HW1 6447   8.222   8.221  11.986
34891SOL    HW2 6448   8.112   8.312  12.038
34892SOL     OW 6449  11.865  13.754  11.027
34892SOL    HW1 6450  11.831  13.729  11.113
34892SOL    HW2 6451  11.799  13.813  10.991
34893SOL     OW 6452   8.267   3.979  14.333
34893SOL    HW1 6453   8.304   3.891  14.335
34893SOL    HW2 6454   8.194   3.973  14.271
34894SOL     OW 6455   7.680   7.826   9.826
34894SOL    HW1 6456   7.639   7.797   9.744
34894SOL    HW2 6457   7.747   7.888   9.799
34895SOL     OW 6458   9.678   5.865  13.689
34895SOL    HW1 6459   9.671   5.782  13.736
34895SOL    HW2 6460   9.748   5.912  13.735
34896SOL     OW 6461   5.649   8.450   0.301
34896SOL    HW1 6462   5.636   8.461   0.395
34896SOL    HW2 6463   5.606   8.525   0.262
34897SOL     OW 6464   2.011  14.735  10.535
34897SOL    HW1 6465   2.022  14.826  10.562
34897SOL    HW2 6466   2.084  14.689  10.574
34898SOL     OW 6467  14.399  13.340  12.577
34898SOL    HW1 6468  14.445  13.259  12.597
34898SOL    HW2 6469  14.456  13.410  12.609
34899SOL     OW 6470  13.545  11.002   9.065
34899SOL    HW1 6471  13.512  11.064   9.000
34899SOL    HW2 6472  13.635  10.985   9.038
34900SOL     OW 6473   5.804   2.688   6.658
34900SOL    HW1 6474   5.890   2.648   6.647
34900SOL    HW2 6475   5.760   2.675   6.574
34901SOL     OW 6476  10.037   2.343  13.103
34901SOL    HW1 6477  10.022   2.248  13.108
34901SOL    HW2 6478   9.949   2.380  13.102
34902SOL     OW 6479   2.420   6.545   3.406
34902SOL    HW1 6480   2.499   6.534   3.459
34902SOL    HW2 6481   2.349   6.550   3.471
34903SOL     OW 6482  13.953   6.312   4.258
34903SOL    HW1 6483  14.009   6.272   4.191
34903SOL    HW2 6484  13.931   6.399   4.222
34904SOL     OW 6485   5.389   1.893   8.473
34904SOL    HW1 6486   5.436   1.977   8.469
34904SOL    HW2 6487   5.351   1.892   8.561
34905SOL     OW 6488  13.150   6.281   1.662
34905SOL    HW1 6489  13.209   6.310   1.592
34905SOL    HW2 6490  13.196   6.206   1.702
34906SOL     OW 6491   3.844  13.164  14.776
34906SOL    HW1 6492   3.809  13.097  14.835
34906SOL    HW2 6493   3.933  13.180  14.807
34907SOL     OW 6494   2.819   5.019   5.669
34907SOL    HW1 6495   2.807   5.012   5.575
34907SOL    HW2 6496   2.848   5.109   5.683
34908SOL     OW 6497  11.506   0.614  14.846
34908SOL    HW1 6498  11.577   0.632  14.785
34908SOL    HW2 6499  11.431   0.662  14.809
34909SOL     OW 6500   5.684   8.875   5.418
34909SOL    HW1 6501   5.677   8.795   5.366
34909SOL    HW2 6502   5.777   8.881   5.440
34910SOL     OW 6503  14.448   9.181   9.084
34910SOL    HW1 6504  14.373   9.185   9.143
34910SOL    HW2 6505  14.413   9.145   9.002
34911SOL     OW 6506   7.974   0.424   7.703
34911SOL    HW1 6507   8.026   0.344   7.694
34911SOL    HW2 6508   7.893   0.406   7.656
34912SOL     OW 6509   4.685   8.986   6.934
34912SOL    HW1 6510   4.760   8.930   6.915
34912SOL    HW2 6511   4.617   8.926   6.966
34913SOL     OW 6512   2.485  10.030  14.853
34913SOL    HW1 6513   2.453   9.991  14.771
34913SOL    HW2 6514   2.406  10.054   0.024
34914SOL     OW 6515  10.346   1.967   5.445
34914SOL    HW1 6516  10.395   2.043   5.473
34914SOL    HW2 6517  10.412   1.899   5.430
34915SOL     OW 6518  12.376   5.517   2.008
34915SOL    HW1 6519  12.379   5.521   2.103
34915SOL    HW2 6520  12.340   5.602   1.981
34916SOL     OW 6521   6.060   1.551   9.835
34916SOL    HW1 6522   6.091   1.593   9.755
34916SOL    HW2 6523   5.986   1.498   9.807
34917SOL     OW 6524   0.163  11.406  14.153
34917SOL    HW1 6525   0.196  11.341  14.214
34917SOL    HW2 6526   0.235  11.420  14.091
34918SOL     OW 6527   8.358   7.419   9.143
34918SOL    HW1 6528   8.360   7.427   9.047
34918SOL    HW2 6529   8.303   7.342   9.159
34919SOL     OW 6530   2.270  12.452   3.234
34919SOL    HW1 6531   2.177  12.475   3.231
34919SOL    HW2 6532   2.274  12.382   3.300
34920SOL     OW 6533   5.744  13.320  13.894
34920SOL    HW1 6534   5.729  13.273  13.976
34920SOL    HW2 6535   5.791  13.400  13.919
34921SOL     OW 6536  11.882   3.178   3.206
34921SOL    HW1 6537  11.816   3.187   3.137
34921SOL    HW2 6538  11.911   3.087   3.201
34922SOL     OW 6539  10.292   4.334   2.195
34922SOL    HW1 6540  10.239   4.269   2.149
34922SOL    HW2 6541  10.284   4.310   2.287
34923SOL     OW 6542  13.664   7.729   7.290
34923SOL    HW1 6543  13.711   7.646   7.293
34923SOL    HW2 6544  13.693   7.776   7.368
34924SOL     OW 6545   2.483   2.090   9.918
34924SOL    HW1 6546   2.396   2.051   9.916
34924SOL    HW2 6547   2.497   2.124   9.829
34925SOL     OW 6548   8.162   4.677  12.322
34925SOL    HW1 6549   8.201   4.764  12.331
34925SOL    HW2 6550   8.072   4.694  12.296
34926SOL     OW 6551   6.627  10.995   1.190
34926SOL    HW1 6552   6.558  11.045   1.233
34926SOL    HW2 6553   6.704  11.009   1.245
34927SOL     OW 6554  11.459   3.661   6.292
34927SOL    HW1 6555  11.489   3.645   6.382
34927SOL    HW2 6556  11.365   3.679   6.300
34928SOL     OW 6557   1.390   8.222   8.295
34928SOL    HW1 6558   1.408   8.265   8.211
34928SOL    HW2 6559   1.325   8.155   8.274
34929SOL     OW 6560   1.814   6.609   4.244
34929SOL    HW1 6561   1.803   6.700   4.214
34929SOL    HW2 6562   1.877   6.616   4.316
34930SOL     OW 6563  10.415   0.840  11.388
34930SOL    HW1 6564  10.401   0.872  11.477
34930SOL    HW2 6565  10.421   0.919  11.334
34931SOL     OW 6566   4.549   4.597  10.199
34931SOL    HW1 6567   4.546   4.512  10.157
34931SOL    HW2 6568   4.606   4.650  10.144
34932SOL     OW 6569  11.517  14.260  13.922
34932SOL    HW1 6570  11.523  14.181  13.868
34932SOL    HW2 6571  11.461  14.235  13.995
34933SOL     OW 6572   0.085   5.688   5.026
34933SOL    HW1 6573   0.111   5.726   5.110
34933SOL    HW2 6574   0.008   5.635   5.047
34934SOL     OW 6575  10.870  14.560   5.075
34934SOL    HW1 6576  10.819  14.636   5.101
34934SOL    HW2 6577  10.830  14.487   5.123
34935SOL     OW 6578  12.043   7.880  10.223
34935SOL    HW1 6579  11.991   7.958  10.206
34935SOL    HW2 6580  12.074   7.891  10.313
34936SOL     OW 6581   8.297   7.339   9.905
34936SOL    HW1 6582   8.309   7.428   9.873
34936SOL    HW2 6583   8.336   7.339   9.993
34937SOL     OW 6584  11.538   5.324  10.135
34937SOL    HW1 6585  11.583   5.395  10.088
34937SOL    HW2 6586  11.605   5.256  10.145
34938SOL     OW 6587   3.595   5.857   5.935
34938SOL    HW1 6588   3.681   5.853   5.975
34938SOL    HW2 6589   3.582   5.950   5.916
34939SOL     OW 6590  13.262   6.692  12.254
34939SOL    HW1 6591  13.201   6.706  12.327
34939SOL    HW2 6592  13.349   6.701  12.293
34940SOL     OW 6593   1.886   9.952   0.781
34940SOL    HW1 6594   1.921   9.928   0.867
34940SOL    HW2 6595   1.897  10.047   0.777
34941SOL     OW 6596   9.293   8.808   7.779
34941SOL    HW1 6597   9.372   8.850   7.744
34941SOL    HW2 6598   9.295   8.827   7.873
34942SOL     OW 6599   7.447   0.570  14.564
34942SOL    HW1 6600   7.393   0.630  14.616
34942SOL    HW2 6601   7.492   0.516  14.630
34943SOL     OW 6602   6.845   2.870   1.233
34943SOL    HW1 6603   6.820   2.779   1.250
34943SOL    HW2 6604   6.834   2.880   1.139
34944SOL     OW 6605   0.707   6.276   4.912
34944SOL    HW1 6606   0.673   6.226   4.838
34944SOL    HW2 6607   0.632   6.327   4.943
34945SOL     OW 6608   3.095   8.125  12.360
34945SOL    HW1 6609   3.004   8.154  12.360
34945SOL    HW2 6610   3.109   8.090  12.449
34946SOL     OW 6611   5.367  13.011   0.810
34946SOL    HW1 6612   5.405  12.962   0.738
34946SOL    HW2 6613   5.380  12.955   0.887
34947SOL     OW 6614  10.856  12.112   7.064
34947SOL    HW1 6615  10.904  12.044   7.018
34947SOL    HW2 6616  10.835  12.073   7.149
34948SOL     OW 6617  13.930   1.370  10.000
34948SOL    HW1 6618  13.932   1.414   9.915
34948SOL    HW2 6619  13.966   1.434  10.061
34949SOL     OW 6620   2.199   0.152   3.030
34949SOL    HW1 6621   2.135   0.110   2.973
34949SOL    HW2 6622   2.276   0.165   2.974
34950SOL     OW 6623   3.379   4.715   3.122
34950SOL    HW1 6624   3.345   4.626   3.110
34950SOL    HW2 6625   3.302   4.766   3.149
34951SOL     OW 6626   1.770  10.129   6.134
34951SOL    HW1 6627   1.819  10.048   6.119
34951SOL    HW2 6628   1.693  10.121   6.078
34952SOL     OW 6629   9.249   3.592   5.222
34952SOL    HW1 6630   9.337   3.632   5.220
34952SOL    HW2 6631   9.260   3.512   5.273
34953SOL     OW 6632   4.822  11.920   0.036
34953SOL    HW1 6633   4.862  11.948  14.830
34953SOL    HW2 6634   4.749  11.980   0.049
34954SOL     OW 6635  10.385  13.116   4.175
34954SOL    HW1 6636  10.349  13.163   4.250
34954SOL    HW2 6637  10.371  13.175   4.100
34955SOL     OW 6638  14.673  10.747  10.283
34955SOL    HW1 6639  14.739  10.805  10.245
34955SOL    HW2 6640  14.708  10.721  10.368
34956SOL     OW 6641   3.086   2.261   2.042
34956SOL    HW1 6642   3.096   2.341   2.094
34956SOL    HW2 6643   3.039   2.290   1.963
34957SOL     OW 6644   2.830  13.335  14.722
34957SOL    HW1 6645   2.776  13.383  14.659
34957SOL    HW2 6646   2.783  13.342  14.805
34958SOL     OW 6647   3.139   7.918   4.986
34958SOL    HW1 6648   3.159   7.958   4.901
34958SOL    HW2 6649   3.177   7.977   5.050
34959SOL     OW 6650   6.187  14.180   8.099
34959SOL    HW1 6651   6.148  14.177   8.187
34959SOL    HW2 6652   6.124  14.133   8.044
34960SOL     OW 6653   8.520   0.700   2.586
34960SOL    HW1 6654   8.472   0.625   2.554
34960SOL    HW2 6655   8.500   0.770   2.525
34961SOL     OW 6656   6.337   5.415  10.152
34961SOL    HW1 6657   6.331   5.508  10.170
34961SOL    HW2 6658   6.387   5.409  10.070
34962SOL     OW 6659   9.403   4.230   4.166
34962SOL    HW1 6660   9.361   4.315   4.175
34962SOL    HW2 6661   9.341   4.178   4.114
34963SOL     OW 6662  12.373   2.862  12.149
34963SOL    HW1 6663  12.297   2.864  12.208
34963SOL    HW2 6664  12.448   2.855  12.208
34964SOL     OW 6665  14.720  12.812   7.003
34964SOL    HW1 6666  14.788  12.833   6.940
34964SOL    HW2 6667  14.667  12.745   6.959
34965SOL     OW 6668   2.792   9.728   8.849
34965SOL    HW1 6669   2.730   9.710   8.778
34965SOL    HW2 6670   2.861   9.663   8.837
34966SOL     OW 6671   7.987   9.215  11.742
34966SOL    HW1 6672   8.000   9.148  11.675
34966SOL    HW2 6673   8.071   9.221  11.787
34967SOL     OW 6674   7.819  12.608   5.317
34967SOL    HW1 6675   7.842  12.518   5.294
34967SOL    HW2 6676   7.898  12.644   5.357
34968SOL     OW 6677   9.949   2.977   2.939
34968SOL    HW1 6678   9.860   2.949   2.959
34968SOL    HW2 6679  10.005   2.928   3.000
34969SOL     OW 6680   1.223  10.092  14.590
34969SOL    HW1 6681   1.263  10.127  14.510
34969SOL    HW2 6682   1.178  10.167  14.629
34970SOL     OW 6683   3.602   6.708  10.091
34970SOL    HW1 6684   3.603   6.665  10.177
34970SOL    HW2 6685   3.687   6.751  10.085
34971SOL     OW 6686   7.684   7.005  14.041
34971SOL    HW1 6687   7.633   6.940  14.089
34971SOL    HW2 6688   7.657   7.089  14.079
34972SOL     OW 6689   1.581  10.980  14.394
34972SOL    HW1 6690   1.551  10.990  14.484
34972SOL    HW2 6691   1.500  10.969  14.343
34973SOL     OW 6692  12.237  10.211   9.213
34973SOL    HW1 6693  12.300  10.162   9.267
34973SOL    HW2 6694  12.213  10.151   9.143
34974SOL     OW 6695   7.870   1.507  13.067
34974SOL    HW1 6696   7.876   1.524  12.973
34974SOL    HW2 6697   7.935   1.566  13.106
34975SOL     OW 6698  12.482   3.317  12.510
34975SOL    HW1 6699  12.506   3.402  12.474
34975SOL    HW2 6700  12.426   3.338  12.585
34976SOL     OW 6701   6.646   6.588   9.523
34976SOL    HW1 6702   6.569   6.533   9.506
34976SOL    HW2 6703   6.706   6.530   9.571
34977SOL     OW 6704   1.757   9.131   2.442
34977SOL    HW1 6705   1.669   9.164   2.464
34977SOL    HW2 6706   1.796   9.110   2.527
34978SOL     OW 6707   0.667  10.823  14.261
34978SOL    HW1 6708   0.687  10.749  14.318
34978SOL    HW2 6709   0.621  10.885  14.319
34979SOL     OW 6710  10.529   7.637  11.263
34979SOL    HW1 6711  10.564   7.706  11.320
34979SOL    HW2 6712  10.607   7.600  11.221
34980SOL     OW 6713   3.889   9.641   5.078
34980SOL    HW1 6714   3.957   9.661   5.142
34980SOL    HW2 6715   3.861   9.552   5.099
34981SOL     OW 6716   0.420   8.982   3.621
34981SOL    HW1 6717   0.396   9.075   3.619
34981SOL    HW2 6718   0.343   8.936   3.587
34982SOL     OW 6719   6.559  12.459  14.307
34982SOL    HW1 6720   6.560  12.377  14.356
34982SOL    HW2 6721   6.586  12.434  14.218
34983SOL     OW 6722   2.544   4.190   0.085
34983SOL    HW1 6723   2.449   4.203   0.084
34983SOL    HW2 6724   2.562   4.146   0.168
34984SOL     OW 6725   2.351  13.652   0.504
34984SOL    HW1 6726   2.267  13.684   0.471
34984SOL    HW2 6727   2.401  13.731   0.525
34985SOL     OW 6728   2.205   6.779   7.087
34985SOL    HW1 6729   2.268   6.726   7.137
34985SOL    HW2 6730   2.175   6.721   7.017
34986SOL     OW 6731   3.695  10.643   3.144
34986SOL    HW1 6732   3.671  10.736   3.142
34986SOL    HW2 6733   3.642  10.603   3.076
34987SOL     OW 6734   0.775   2.563   8.177
34987SOL    HW1 6735   0.745   2.530   8.092
34987SOL    HW2 6736   0.804   2.652   8.159
34988SOL     OW 6737  13.566   3.587  14.447
34988SOL    HW1 6738  13.472   3.574  14.434
34988SOL    HW2 6739  13.600   3.501  14.471
34989SOL     OW 6740  14.482   4.780  10.735
34989SOL    HW1 6741  14.447   4.830  10.809
34989SOL    HW2 6742  14.573   4.810  10.728
34990SOL     OW 6743  13.972   4.752   6.958
34990SOL    HW1 6744  13.977   4.774   6.866
34990SOL    HW2 6745  13.946   4.834   7.001
34991SOL     OW 6746  10.494   9.798   0.089
34991SOL    HW1 6747  10.401   9.813   0.107
34991SOL    HW2 6748  10.515   9.860   0.018
34992SOL     OW 6749  14.710   7.065   5.153
34992SOL    HW1 6750  14.677   6.996   5.096
34992SOL    HW2 6751  14.676   7.146   5.115
34993SOL     OW 6752  13.629   5.522   6.093
34993SOL    HW1 6753  13.575   5.511   6.015
34993SOL    HW2 6754  13.716   5.544   6.059
34994SOL     OW 6755   4.464   5.478   4.577
34994SOL    HW1 6756   4.525   5.546   4.549
34994SOL    HW2 6757   4.426   5.513   4.658
34995SOL     OW 6758   6.194   5.629  11.009
34995SOL    HW1 6759   6.233   5.646  11.095
34995SOL    HW2 6760   6.259   5.574  10.964
34996SOL     OW 6761  13.589  10.197   6.334
34996SOL    HW1 6762  13.623  10.236   6.415
34996SOL    HW2 6763  13.601  10.264   6.267
34997SOL     OW 6764   5.603   9.067   9.709
34997SOL    HW1 6765   5.687   9.093   9.670
34997SOL    HW2 6766   5.626   8.995   9.768
34998SOL     OW 6767   8.918   0.294   9.989
34998SOL    HW1 6768   8.994   0.345   9.960
34998SOL    HW2 6769   8.844   0.334   9.942
34999SOL     OW 6770   5.491   1.005   8.676
34999SOL    HW1 6771   5.400   0.984   8.655
34999SOL    HW2 6772   5.538   1.000   8.593
35000SOL     OW 6773   3.386   6.104   0.818
35000SOL    HW1 6774   3.337   6.108   0.736
35000SOL    HW2 6775   3.418   6.193   0.831
35001SOL     OW 6776  10.430  12.124   5.568
35001SOL    HW1 6777  10.445  12.035   5.538
35001SOL    HW2 6778  10.391  12.114   5.655
35002SOL     OW 6779   9.803   0.185   1.809
35002SOL    HW1 6780   9.782   0.255   1.871
35002SOL    HW2 6781   9.817   0.230   1.725
35003SOL     OW 6782   0.039   0.195   3.973
35003SOL    HW1 6783  14.833   0.170   3.933
35003SOL    HW2 6784   0.104   0.179   3.905
35004SOL     OW 6785   2.818   6.059   6.846
35004SOL    HW1 6786   2.823   6.004   6.924
35004SOL    HW2 6787   2.907   6.060   6.811
35005SOL     OW 6788   8.185  12.825   2.553
35005SOL    HW1 6789   8.210  12.735   2.575
35005SOL    HW2 6790   8.109  12.842   2.609
35006SOL     OW 6791   6.740  10.514  10.785
35006SOL    HW1 6792   6.795  10.438  10.805
35006SOL    HW2 6793   6.764  10.537  10.695
35007SOL     OW 6794   4.943   0.021  10.264
35007SOL    HW1 6795   5.016   0.009  10.326
35007SOL    HW2 6796   4.985   0.052  10.183
35008SOL     OW 6797  11.477   2.012   9.251
35008SOL    HW1 6798  11.409   1.972   9.197
35008SOL    HW2 6799  11.515   2.080   9.195
35009SOL     OW 6800   6.907   4.181  12.756
35009SOL    HW1 6801   6.919   4.221  12.670
35009SOL    HW2 6802   6.901   4.256  12.816
35010SOL     OW 6803  12.263   2.849   4.003
35010SOL    HW1 6804  12.283   2.938   3.974
35010SOL    HW2 6805  12.170   2.852   4.028
35011SOL     OW 6806  10.968   5.289   0.547
35011SOL    HW1 6807  10.994   5.262   0.459
35011SOL    HW2 6808  11.050   5.308   0.592
35012SOL     OW 6809   5.559  13.075   1.020
35012SOL    HW1 6810   5.612  13.077   0.941
35012SOL    HW2 6811   5.473  13.107   0.991
35013SOL     OW 6812  11.470   6.807   3.342
35013SOL    HW1 6813  11.529   6.878   3.368
35013SOL    HW2 6814  11.428   6.780   3.423
35014SOL     OW 6815   3.458   1.224   4.402
35014SOL    HW1 6816   3.410   1.302   4.431
35014SOL    HW2 6817   3.491   1.185   4.483
35015SOL     OW 6818   3.910   2.526  11.761
35015SOL    HW1 6819   3.986   2.510  11.816
35015SOL    HW2 6820   3.835   2.511  11.818
35016SOL     OW 6821  12.117   6.277   8.794
35016SOL    HW1 6822  12.113   6.271   8.699
35016SOL    HW2 6823  12.150   6.192   8.823
35017SOL     OW 6824   2.507  12.883  12.455
35017SOL    HW1 6825   2.518  12.941  12.530
35017SOL    HW2 6826   2.465  12.805  12.491
35018SOL     OW 6827  11.314  14.464   6.093
35018SOL    HW1 6828  11.263  14.535   6.053
35018SOL    HW2 6829  11.286  14.386   6.046
35019SOL     OW 6830  12.760  12.938   9.050
35019SOL    HW1 6831  12.667  12.928   9.068
35019SOL    HW2 6832  12.799  12.952   9.136
35020SOL     OW 6833  14.705  12.248  12.751
35020SOL    HW1 6834  14.794  12.278  12.771
35020SOL    HW2 6835  14.664  12.322  12.707
35021SOL     OW 6836   3.782   2.248   4.813
35021SOL    HW1 6837   3.814   2.221   4.726
35021SOL    HW2 6838   3.701   2.296   4.795
35022SOL     OW 6839   2.069  12.376   3.773
35022SOL    HW1 6840   2.076  12.468   3.796
35022SOL    HW2 6841   2.058  12.331   3.857
35023SOL     OW 6842  12.448   4.927   5.988
35023SOL    HW1 6843  12.430   4.964   5.902
35023SOL    HW2 6844  12.420   4.994   6.050
35024SOL     OW 6845  14.197   5.876  10.347
35024SOL    HW1 6846  14.199   5.839  10.435
35024SOL    HW2 6847  14.211   5.970  10.360
35025SOL     OW 6848  11.535   7.881  12.478
35025SOL    HW1 6849  11.607   7.927  12.435
35025SOL    HW2 6850  11.467   7.877  12.411
35026SOL     OW 6851   3.054  14.729  10.885
35026SOL    HW1 6852   3.110  14.755  10.812
35026SOL    HW2 6853   3.113  14.686  10.946
35027SOL     OW 6854  14.148   5.626   0.277
35027SOL    HW1 6855  14.166   5.713   0.311
35027SOL    HW2 6856  14.184   5.627   0.188
35028SOL     OW 6857   3.748   2.466  12.453
35028SOL    HW1 6858   3.724   2.558  12.452
35028SOL    HW2 6859   3.754   2.441  12.361
35029SOL     OW 6860   7.771   5.109   2.238
35029SOL    HW1 6861   7.860   5.123   2.271
35029SOL    HW2 6862   7.747   5.193   2.198
35030SOL     OW 6863  11.214   9.633  12.527
35030SOL    HW1 6864  11.219   9.686  12.607
35030SOL    HW2 6865  11.305   9.619  12.502
35031SOL     OW 6866   7.387   9.559  14.541
35031SOL    HW1 6867   7.421   9.630  14.488
35031SOL    HW2 6868   7.307   9.594  14.581
35032SOL     OW 6869  13.090   4.835   5.845
35032SOL    HW1 6870  12.994   4.838   5.849
35032SOL    HW2 6871  13.117   4.834   5.937
35033SOL     OW 6872   0.934   8.908   7.070
35033SOL    HW1 6873   0.867   8.959   7.116
35033SOL    HW2 6874   1.010   8.910   7.129
35034SOL     OW 6875   0.878   2.269   6.716
35034SOL    HW1 6876   0.878   2.364   6.700
35034SOL    HW2 6877   0.901   2.231   6.631
35035SOL     OW 6878   4.792  12.732   3.230
35035SOL    HW1 6879   4.760  12.767   3.313
35035SOL    HW2 6880   4.737  12.774   3.164
35036SOL     OW 6881  11.431   6.692   7.217
35036SOL    HW1 6882  11.494   6.638   7.265
35036SOL    HW2 6883  11.441   6.779   7.255
35037SOL     OW 6884  11.139   4.811   0.614
35037SOL    HW1 6885  11.144   4.845   0.703
35037SOL    HW2 6886  11.070   4.861   0.573
35038SOL     OW 6887   8.567   9.294   8.259
35038SOL    HW1 6888   8.596   9.335   8.340
35038SOL    HW2 6889   8.639   9.235   8.235
35039SOL     OW 6890  12.110  10.530   2.685
35039SOL    HW1 6891  12.135  10.598   2.748
35039SOL    HW2 6892  12.020  10.552   2.661
35040SOL     OW 6893   2.036   2.160   6.048
35040SOL    HW1 6894   2.065   2.243   6.010
35040SOL    HW2 6895   1.945   2.151   6.019
35041SOL     OW 6896  10.447   7.390  13.812
35041SOL    HW1 6897  10.487   7.476  13.803
35041SOL    HW2 6898  10.403   7.375  13.728
35042SOL     OW 6899   9.403   6.279  11.723
35042SOL    HW1 6900   9.438   6.363  11.693
35042SOL    HW2 6901   9.452   6.260  11.803
35043SOL     OW 6902   8.016  11.890   9.670
35043SOL    HW1 6903   8.081  11.826   9.699
35043SOL    HW2 6904   8.033  11.967   9.725
35044SOL     OW 6905   0.538  10.880   6.142
35044SOL    HW1 6906   0.600  10.812   6.167
35044SOL    HW2 6907   0.552  10.892   6.048
35045SOL     OW 6908   5.074   6.912   1.112
35045SOL    HW1 6909   5.061   6.820   1.088
35045SOL    HW2 6910   5.158   6.935   1.074
35046SOL     OW 6911  11.171  14.768   9.925
35046SOL    HW1 6912  11.261  14.759   9.954
35046SOL    HW2 6913  11.177  14.822   9.846
35047SOL     OW 6914  12.714   0.739   2.038
35047SOL    HW1 6915  12.638   0.793   2.014
35047SOL    HW2 6916  12.738   0.769   2.126
35048SOL     OW 6917   6.617   1.427   4.691
35048SOL    HW1 6918   6.603   1.515   4.655
35048SOL    HW2 6919   6.702   1.400   4.656
35049SOL     OW 6920   4.998  11.327   0.434
35049SOL    HW1 6921   4.998  11.336   0.338
35049SOL    HW2 6922   4.907  11.305   0.456
35050SOL     OW 6923   7.831  13.679   0.065
35050SOL    HW1 6924   7.784  13.762   0.058
35050SOL    HW2 6925   7.912  13.701   0.112
35051SOL     OW 6926  13.087   2.443   2.530
35051SOL    HW1 6927  13.083   2.348   2.541
35051SOL    HW2 6928  13.153   2.457   2.463
35052SOL     OW 6929   9.166   5.362  14.811
35052SOL    HW1 6930   9.078   5.324  14.801
35052SOL    HW2 6931   9.184   5.356   0.028
35053SOL     OW 6932   6.953  13.020   4.757
35053SOL    HW1 6933   6.871  12.971   4.764
35053SOL    HW2 6934   6.999  12.980   4.684
35054SOL     OW 6935   3.445  12.091  13.421
35054SOL    HW1 6936   3.527  12.117  13.462
35054SOL    HW2 6937   3.457  11.998  13.400
35055SOL     OW 6938   5.831   7.968  10.112
35055SOL    HW1 6939   5.914   8.016  10.109
35055SOL    HW2 6940   5.768   8.025  10.069
35056SOL     OW 6941   4.374  12.792   3.061
35056SOL    HW1 6942   4.307  12.841   3.012
35056SOL    HW2 6943   4.371  12.704   3.024
35057SOL     OW 6944   8.508  13.315   9.371
35057SOL    HW1 6945   8.575  13.357   9.425
35057SOL    HW2 6946   8.525  13.221   9.380
35058SOL     OW 6947  14.580  11.633   2.892
35058SOL    HW1 6948  14.599  11.584   2.812
35058SOL    HW2 6949  14.667  11.655   2.927
35059SOL     OW 6950  14.667   4.381  13.729
35059SOL    HW1 6951  14.662   4.476  13.740
35059SOL    HW2 6952  14.694   4.349  13.815
35060SOL     OW 6953  11.823   9.140  14.715
35060SOL    HW1 6954  11.774   9.061  14.737
35060SOL    HW2 6955  11.787   9.207  14.773
35061SOL     OW 6956   8.830  14.593   5.317
35061SOL    HW1 6957   8.803  14.516   5.267
35061SOL    HW2 6958   8.925  14.598   5.304
35062SOL     OW 6959   6.667  14.220   9.645
35062SOL    HW1 6960   6.701  14.270   9.718
35062SOL    HW2 6961   6.600  14.276   9.605
35063SOL     OW 6962   3.892   4.112  13.143
35063SOL    HW1 6963   3.930   4.184  13.092
35063SOL    HW2 6964   3.959   4.091  13.207
35064SOL     OW 6965   1.434   7.354  12.204
35064SOL    HW1 6966   1.448   7.264  12.174
35064SOL    HW2 6967   1.390   7.397  12.130
35065SOL     OW 6968  13.363   5.998  12.233
35065SOL    HW1 6969  13.380   6.004  12.327
35065SOL    HW2 6970  13.351   5.905  12.216
35066SOL     OW 6971   7.887  10.234  14.449
35066SOL    HW1 6972   7.853  10.177  14.518
35066SOL    HW2 6973   7.812  10.287  14.423
35067SOL     OW 6974   8.124  14.341  14.686
35067SOL    HW1 6975   8.043  14.345  14.636
35067SOL    HW2 6976   8.193  14.336  14.620
35068SOL     OW 6977  11.172  10.920   6.221
35068SOL    HW1 6978  11.122  11.000   6.203
35068SOL    HW2 6979  11.133  10.885   6.301
35069SOL     OW 6980   9.024   0.967  13.783
35069SOL    HW1 6981   9.029   0.998  13.874
35069SOL    HW2 6982   9.114   0.946  13.759
35070SOL     OW 6983   3.488  13.155  14.491
35070SOL    HW1 6984   3.547  13.081  14.505
35070SOL    HW2 6985   3.454  13.175  14.578
35071SOL     OW 6986   7.273   3.785  11.668
35071SOL    HW1 6987   7.333   3.844  11.714
35071SOL    HW2 6988   7.275   3.704  11.719
35072SOL     OW 6989   6.553  13.905  13.474
35072SOL    HW1 6990   6.476  13.851  13.490
35072SOL    HW2 6991   6.551  13.923  13.380
35073SOL     OW 6992  11.922   8.527   7.133
35073SOL    HW1 6993  11.870   8.552   7.056
35073SOL    HW2 6994  12.002   8.578   7.125
35074SOL     OW 6995  13.232   6.217   5.538
35074SOL    HW1 6996  13.299   6.282   5.558
35074SOL    HW2 6997  13.275   6.156   5.478
35075SOL     OW 6998   1.268   3.589   6.420
35075SOL    HW1 6999   1.227   3.582   6.505
35075SOL    HW2 7000   1.314   3.506   6.408
35076SOL     OW 7001   2.548   4.804   2.747
35076SOL    HW1 7002   2.528   4.817   2.654
35076SOL    HW2 7003   2.521   4.886   2.788
35077SOL     OW 7004  13.755  13.038   8.086
35077SOL    HW1 7005  13.812  12.971   8.124
35077SOL    HW2 7006  13.688  13.052   8.153
35078SOL     OW 7007   7.308   5.020   6.633
35078SOL    HW1 7008   7.241   5.028   6.565
35078SOL    HW2 7009   7.349   4.935   6.616
35079SOL     OW 7010   4.185   5.181   4.102
35079SOL    HW1 7011   4.205   5.208   4.012
35079SOL    HW2 7012   4.175   5.264   4.150
35080SOL     OW 7013   8.328   1.179  10.722
35080SOL    HW1 7014   8.373   1.209  10.643
35080SOL    HW2 7015   8.324   1.256  10.778
35081SOL     OW 7016  12.249   4.012  11.625
35081SOL    HW1 7017  12.310   3.942  11.649
35081SOL    HW2 7018  12.279   4.088  11.676
35082SOL     OW 7019  14.495   0.402   7.696
35082SOL    HW1 7020  14.551   0.459   7.644
35082SOL    HW2 7021  14.510   0.429   7.786
35083SOL     OW 7022  11.761  13.848   5.545
35083SOL    HW1 7023  11.771  13.936   5.582
35083SOL    HW2 7024  11.667  13.829   5.555
35084SOL     OW 7025   6.383   2.781   7.315
35084SOL    HW1 7026   6.445   2.747   7.378
35084SOL    HW2 7027   6.427   2.773   7.231
35085SOL     OW 7028   8.596   4.296  14.616
35085SOL    HW1 7029   8.552   4.239  14.679
35085SOL    HW2 7030   8.553   4.381  14.626
35086SOL     OW 7031   6.591   1.826  13.109
35086SOL    HW1 7032   6.567   1.735  13.129
35086SOL    HW2 7033   6.675   1.838  13.154
35087SOL     OW 7034  12.069   5.167  13.066
35087SOL    HW1 7035  12.061   5.099  12.999
35087SOL    HW2 7036  12.057   5.249  13.018
35088SOL     OW 7037   3.895   5.956   3.162
35088SOL    HW1 7038   3.801   5.968   3.146
35088SOL    HW2 7039   3.922   6.039   3.203
35089SOL     OW 7040   7.709   8.163   9.568
35089SOL    HW1 7041   7.626   8.199   9.538
35089SOL    HW2 7042   7.710   8.178   9.662
35090SOL     OW 7043   4.346   3.556  11.230
35090SOL    HW1 7044   4.266   3.509  11.251
35090SOL    HW2 7045   4.379   3.585  11.315
35091SOL     OW 7046  14.381  10.532   8.780
35091SOL    HW1 7047  14.350  10.491   8.699
35091SOL    HW2 7048  14.305  10.577   8.815
35092SOL     OW 7049   5.214   3.542   1.322
35092SOL    HW1 7050   5.193   3.627   1.360
35092SOL    HW2 7051   5.309   3.541   1.316
35093SOL     OW 7052  10.382   5.722   5.871
35093SOL    HW1 7053  10.371   5.796   5.931
35093SOL    HW2 7054  10.323   5.655   5.905
35094SOL     OW 7055   9.366   5.965   8.424
35094SOL    HW1 7056   9.294   5.992   8.367
35094SOL    HW2 7057   9.353   6.014   8.505
35095SOL     OW 7058  10.113   4.776  14.286
35095SOL    HW1 7059  10.192   4.738  14.324
35095SOL    HW2 7060  10.054   4.702  14.273
35096SOL     OW 7061   0.733  11.152  10.747
35096SOL    HW1 7062   0.765  11.237  10.716
35096SOL    HW2 7063   0.664  11.129  10.684
35097SOL     OW 7064   2.244  13.527   6.683
35097SOL    HW1 7065   2.281  13.610   6.713
35097SOL    HW2 7066   2.186  13.552   6.611
35098SOL     OW 7067   1.432   0.044   1.097
35098SOL    HW1 7068   1.474   0.095   1.028
35098SOL    HW2 7069   1.474  14.835   1.092
35099SOL     OW 7070  14.020   8.177   4.092
35099SOL    HW1 7071  13.954   8.125   4.046
35099SOL    HW2 7072  14.103   8.136   4.071
35100SOL     OW 7073   7.181   8.938   9.162
35100SOL    HW1 7074   7.207   9.030   9.171
35100SOL    HW2 7075   7.115   8.938   9.092
35101SOL     OW 7076   2.393  14.818  11.351
35101SOL    HW1 7077   2.355   0.029  11.351
35101SOL    HW2 7078   2.479  14.829  11.312
35102SOL     OW 7079   0.733   3.903  11.959
35102SOL    HW1 7080   0.741   3.982  11.905
35102SOL    HW2 7081   0.748   3.831  11.898
35103SOL     OW 7082  13.154   1.695   3.953
35103SOL    HW1 7083  13.250   1.690   3.950
35103SOL    HW2 7084  13.125   1.622   3.899
35104SOL     OW 7085  10.411   8.962   3.321
35104SOL    HW1 7086  10.417   9.057   3.320
35104SOL    HW2 7087  10.365   8.942   3.403
35105SOL     OW 7088   8.721   7.463   1.849
35105SOL    HW1 7089   8.663   7.528   1.810
35105SOL    HW2 7090   8.779   7.513   1.906
35106SOL     OW 7091  10.292  12.336   9.646
35106SOL    HW1 7092  10.279  12.361   9.554
35106SOL    HW2 7093  10.343  12.255   9.642
35107SOL     OW 7094  13.158   7.238   5.183
35107SOL    HW1 7095  13.199   7.184   5.251
35107SOL    HW2 7096  13.067   7.208   5.180
35108SOL     OW 7097   2.430   8.312   6.551
35108SOL    HW1 7098   2.503   8.255   6.528
35108SOL    HW2 7099   2.355   8.275   6.504
35109SOL     OW 7100  10.006   4.749   5.508
35109SOL    HW1 7101  10.049   4.664   5.519
35109SOL    HW2 7102   9.959   4.742   5.425
35110SOL     OW 7103   8.970   7.874   9.961
35110SOL    HW1 7104   8.881   7.857   9.928
35110SOL    HW2 7105   9.024   7.807   9.920
35111SOL     OW 7106   1.861  13.528   2.815
35111SOL    HW1 7107   1.845  13.593   2.746
35111SOL    HW2 7108   1.802  13.553   2.886
35112SOL     OW 7109  11.993   5.669   8.776
35112SOL    HW1 7110  11.902   5.662   8.747
35112SOL    HW2 7111  12.024   5.578   8.778
35113SOL     OW 7112  11.876   2.809  10.912
35113SOL    HW1 7113  11.842   2.825  10.824
35113SOL    HW2 7114  11.886   2.896  10.950
35114SOL     OW 7115   3.009   9.646  14.491
35114SOL    HW1 7116   3.003   9.591  14.413
35114SOL    HW2 7117   3.028   9.584  14.562
35115SOL     OW 7118  13.251  12.897   7.317
35115SOL    HW1 7119  13.206  12.973   7.279
35115SOL    HW2 7120  13.203  12.879   7.398
35116SOL     OW 7121   0.905  14.599   1.433
35116SOL    HW1 7122   0.832  14.544   1.459
35116SOL    HW2 7123   0.957  14.544   1.375
35117SOL     OW 7124  12.419   8.505  10.139
35117SOL    HW1 7125  12.405   8.517  10.233
35117SOL    HW2 7126  12.466   8.583  10.111
35118SOL     OW 7127  14.582   9.778   3.427
35118SOL    HW1 7128  14.602   9.685   3.414
35118SOL    HW2 7129  14.648   9.809   3.488
35119SOL     OW 7130   5.888   0.328  11.021
35119SOL    HW1 7131   5.977   0.348  10.992
35119SOL    HW2 7132   5.869   0.394  11.088
35120SOL     OW 7133   8.107   9.244  10.923
35120SOL    HW1 7134   8.117   9.300  11.000
35120SOL    HW2 7135   8.196   9.215  10.904
35121SOL     OW 7136   2.371   6.902   1.300
35121SOL    HW1 7137   2.459   6.904   1.264
35121SOL    HW2 7138   2.343   6.811   1.293
35122SOL     OW 7139   1.176   0.973  10.024
35122SOL    HW1 7140   1.082   0.981  10.005
35122SOL    HW2 7141   1.218   0.970   9.938
35123SOL     OW 7142   2.672   2.733   4.652
35123SOL    HW1 7143   2.730   2.796   4.695
35123SOL    HW2 7144   2.635   2.682   4.724
35124SOL     OW 7145   7.874   9.600  14.753
35124SOL    HW1 7146   7.880   9.545  14.832
35124SOL    HW2 7147   7.780   9.604  14.735
35125SOL     OW 7148   5.098  14.583   6.727
35125SOL    HW1 7149   5.022  14.611   6.777
35125SOL    HW2 7150   5.076  14.603   6.636
35126SOL     OW 7151  14.231  12.543   7.154
35126SOL    HW1 7152  14.283  12.561   7.232
35126SOL    HW2 7153  14.144  12.576   7.175
35127SOL     OW 7154   7.452  12.946   2.557
35127SOL    HW1 7155   7.463  12.881   2.627
35127SOL    HW2 7156   7.404  12.900   2.489
35128SOL     OW 7157   1.892  11.550   5.737
35128SOL    HW1 7158   1.968  11.513   5.782
35128SOL    HW2 7159   1.924  11.571   5.649
35129SOL     OW 7160   9.121   3.735   3.776
35129SOL    HW1 7161   9.056   3.670   3.751
35129SOL    HW2 7162   9.127   3.793   3.700
35130SOL     OW 7163   8.520   2.532  13.814
35130SOL    HW1 7164   8.568   2.603  13.856
35130SOL    HW2 7165   8.540   2.455  13.868
35131SOL     OW 7166   0.273  11.678  12.609
35131SOL    HW1 7167   0.320  11.663  12.527
35131SOL    HW2 7168   0.280  11.595  12.655
35132SOL     OW 7169  13.247   4.968   3.823
35132SOL    HW1 7170  13.235   4.882   3.783
35132SOL    HW2 7171  13.335   4.965   3.861
35133SOL     OW 7172  14.379   3.251  11.937
35133SOL    HW1 7173  14.437   3.175  11.943
35133SOL    HW2 7174  14.321   3.232  11.864
35134SOL     OW 7175  12.126   9.392   9.041
35134SOL    HW1 7176  12.093   9.329   8.977
35134SOL    HW2 7177  12.050   9.446   9.063
35135SOL     OW 7178  12.488   2.760   8.872
35135SOL    HW1 7179  12.531   2.842   8.849
35135SOL    HW2 7180  12.426   2.744   8.801
35136SOL     OW 7181   1.002   3.666   8.047
35136SOL    HW1 7182   0.929   3.604   8.052
35136SOL    HW2 7183   1.006   3.704   8.134
35137SOL     OW 7184   5.480   2.902   5.613
35137SOL    HW1 7185   5.483   2.998   5.610
35137SOL    HW2 7186   5.387   2.881   5.622
35138SOL     OW 7187  13.976  11.717   8.610
35138SOL    HW1 7188  13.982  11.662   8.688
35138SOL    HW2 7189  13.998  11.805   8.640
35139SOL     OW 7190   2.478  11.056   6.368
35139SOL    HW1 7191   2.557  11.017   6.406
35139SOL    HW2 7192   2.438  10.985   6.319
35140SOL     OW 7193   1.347   4.527   0.386
35140SOL    HW1 7194   1.263   4.573   0.378
35140SOL    HW2 7195   1.412   4.597   0.387
35141SOL     OW 7196  14.252   4.580   3.435
35141SOL    HW1 7197  14.185   4.562   3.501
35141SOL    HW2 7198  14.264   4.675   3.439
35142SOL     OW 7199  10.779  10.004   7.338
35142SOL    HW1 7200  10.867   9.967   7.350
35142SOL    HW2 7201  10.777  10.030   7.245
35143SOL     OW 7202   0.720   0.103   4.404
35143SOL    HW1 7203   0.722   0.189   4.362
35143SOL    HW2 7204   0.692   0.120   4.494
35144SOL     OW 7205  14.509  13.742   8.197
35144SOL    HW1 7206  14.438  13.796   8.163
35144SOL    HW2 7207  14.562  13.801   8.250
35145SOL     OW 7208  11.668   9.397   9.291
35145SOL    HW1 7209  11.684   9.346   9.371
35145SOL    HW2 7210  11.581   9.434   9.304
35146SOL     OW 7211   9.158  12.462   3.786
35146SOL    HW1 7212   9.197  12.377   3.764
35146SOL    HW2 7213   9.080  12.439   3.837
35147SOL     OW 7214  12.147  14.532   7.224
35147SOL    HW1 7215  12.110  14.619   7.236
35147SOL    HW2 7216  12.169  14.502   7.312
35148SOL     OW 7217   4.467   2.228   7.724
35148SOL    HW1 7218   4.495   2.300   7.780
35148SOL    HW2 7219   4.481   2.260   7.635
35149SOL     OW 7220   4.935  12.177   1.196
35149SOL    HW1 7221   4.953  12.165   1.103
35149SOL    HW2 7222   4.843  12.153   1.206
35150SOL     OW 7223  11.726  14.786   3.461
35150SOL    HW1 7224  11.664  14.817   3.527
35150SOL    HW2 7225  11.674  14.730   3.403
35151SOL     OW 7226   2.103   5.986   2.050
35151SOL    HW1 7227   2.110   5.962   1.958
35151SOL    HW2 7228   2.160   6.063   2.059
35152SOL     OW 7229   6.563   4.585   6.522
35152SOL    HW1 7230   6.599   4.621   6.603
35152SOL    HW2 7231   6.517   4.506   6.549
35153SOL     OW 7232  10.783   6.795  11.782
35153SOL    HW1 7233  10.739   6.753  11.856
35153SOL    HW2 7234  10.761   6.740  11.707
35154SOL     OW 7235  12.967   0.025   0.165
35154SOL    HW1 7236  12.974   0.082   0.088
35154SOL    HW2 7237  12.991  14.816   0.131
35155SOL     OW 7238   4.407   4.139  13.345
35155SOL    HW1 7239   4.381   4.222  13.306
35155SOL    HW2 7240   4.371   4.072  13.285
35156SOL     OW 7241  14.132   2.207   9.389
35156SOL    HW1 7242  14.215   2.183   9.431
35156SOL    HW2 7243  14.092   2.270   9.450
35157SOL     OW 7244   2.070   6.639   4.371
35157SOL    HW1 7245   2.052   6.563   4.427
35157SOL    HW2 7246   2.086   6.711   4.432
35158SOL     OW 7247  12.404  11.862   0.018
35158SOL    HW1 7248  12.427  11.776  14.859
35158SOL    HW2 7249  12.487  11.897   0.050
35159SOL     OW 7250   7.360  11.724  14.706
35159SOL    HW1 7251   7.415  11.756  14.776
35159SOL    HW2 7252   7.330  11.638  14.736
35160SOL     OW 7253   7.908   0.372  11.372
35160SOL    HW1 7254   7.940   0.309  11.437
35160SOL    HW2 7255   7.985   0.392  11.318
35161SOL     OW 7256   9.063  11.151   3.290
35161SOL    HW1 7257   9.095  11.160   3.380
35161SOL    HW2 7258   9.127  11.095   3.246
35162SOL     OW 7259   1.668   8.479   3.335
35162SOL    HW1 7260   1.721   8.554   3.308
35162SOL    HW2 7261   1.632   8.505   3.420
35163SOL     OW 7262   3.048   9.277   3.591
35163SOL    HW1 7263   2.991   9.295   3.516
35163SOL    HW2 7264   3.008   9.201   3.633
35164SOL     OW 7265   9.193  14.757   2.567
35164SOL    HW1 7266   9.255  14.798   2.627
35164SOL    HW2 7267   9.120  14.818   2.562
35165SOL     OW 7268  10.999  11.944   6.279
35165SOL    HW1 7269  10.957  11.865   6.245
35165SOL    HW2 7270  10.966  12.015   6.224
35166SOL     OW 7271  11.998  14.471   0.776
35166SOL    HW1 7272  12.066  14.471   0.709
35166SOL    HW2 7273  11.934  14.407   0.745
35167SOL     OW 7274   0.318   0.341   9.777
35167SOL    HW1 7275   0.241   0.338   9.834
35167SOL    HW2 7276   0.286   0.382   9.697
35168SOL     OW 7277   9.197  13.728   5.514
35168SOL    HW1 7278   9.281  13.688   5.491
35168SOL    HW2 7279   9.138  13.655   5.530
35169SOL     OW 7280   2.295  10.132   0.192
35169SOL    HW1 7281   2.221  10.161   0.245
35169SOL    HW2 7282   2.333  10.059   0.240
35170SOL     OW 7283   4.103  11.572  13.006
35170SOL    HW1 7284   4.179  11.523  13.036
35170SOL    HW2 7285   4.113  11.576  12.911
35171SOL     OW 7286   9.809   2.246   4.486
35171SOL    HW1 7287   9.791   2.272   4.577
35171SOL    HW2 7288   9.835   2.154   4.492
35172SOL     OW 7289  11.986   7.594   4.443
35172SOL    HW1 7290  11.982   7.557   4.531
35172SOL    HW2 7291  11.895   7.609   4.419
35173SOL     OW 7292   2.582   7.022   7.811
35173SOL    HW1 7293   2.589   7.043   7.904
35173SOL    HW2 7294   2.520   6.949   7.808
35174SOL     OW 7295   0.051   3.841   3.752
35174SOL    HW1 7296   0.056   3.896   3.830
35174SOL    HW2 7297  14.835   3.827   3.738
35175SOL     OW 7298   8.998   4.648   5.704
35175SOL    HW1 7299   8.960   4.561   5.716
35175SOL    HW2 7300   9.001   4.685   5.793
35176SOL     OW 7301   9.105   1.163  12.894
35176SOL    HW1 7302   9.156   1.094  12.852
35176SOL    HW2 7303   9.166   1.235  12.905
35177SOL     OW 7304   0.207   3.292  12.041
35177SOL    HW1 7305   0.202   3.325  11.952
35177SOL    HW2 7306   0.116   3.294  12.072
35178SOL     OW 7307   6.322   9.533   9.693
35178SOL    HW1 7308   6.327   9.459   9.755
35178SOL    HW2 7309   6.234   9.527   9.656
35179SOL     OW 7310   5.362  12.822   8.349
35179SOL    HW1 7311   5.343  12.862   8.433
35179SOL    HW2 7312   5.278  12.821   8.302
35180SOL     OW 7313   5.388  13.653  11.128
35180SOL    HW1 7314   5.348  13.600  11.196
35180SOL    HW2 7315   5.335  13.733  11.126
35181SOL     OW 7316   7.308   4.557  11.862
35181SOL    HW1 7317   7.212   4.560  11.859
35181SOL    HW2 7318   7.327   4.503  11.939
35182SOL     OW 7319   5.681   6.580   7.008
35182SOL    HW1 7320   5.619   6.507   7.013
35182SOL    HW2 7321   5.628   6.654   6.977
35183SOL     OW 7322   2.436   8.295   9.668
35183SOL    HW1 7323   2.411   8.387   9.679
35183SOL    HW2 7324   2.519   8.287   9.716
35184SOL     OW 7325  14.207   5.531  12.434
35184SOL    HW1 7326  14.262   5.591  12.484
35184SOL    HW2 7327  14.209   5.565  12.345
35185SOL     OW 7328   9.197   5.882   1.847
35185SOL    HW1 7329   9.138   5.955   1.828
35185SOL    HW2 7330   9.234   5.857   1.763
35186SOL     OW 7331   3.765  10.587  12.343
35186SOL    HW1 7332   3.840  10.644  12.362
35186SOL    HW2 7333   3.764  10.524  12.415
35187SOL     OW 7334   7.271   4.970  14.762
35187SOL    HW1 7335   7.258   4.878  14.782
35187SOL    HW2 7336   7.189   4.999  14.723
35188SOL     OW 7337   0.907   0.623   7.794
35188SOL    HW1 7338   0.929   0.708   7.754
35188SOL    HW2 7339   0.930   0.559   7.727
35189SOL     OW 7340   0.605  12.074  12.822
35189SOL    HW1 7341   0.690  12.080  12.778
35189SOL    HW2 7342   0.575  11.985  12.805
35190SOL     OW 7343   9.777  12.267   2.463
35190SOL    HW1 7344   9.846  12.259   2.528
35190SOL    HW2 7345   9.696  12.264   2.514
35191SOL     OW 7346  10.847  12.223   1.042
35191SOL    HW1 7347  10.755  12.247   1.056
35191SOL    HW2 7348  10.897  12.300   1.070
35192SOL     OW 7349   7.221   8.079   2.708
35192SOL    HW1 7350   7.295   8.136   2.689
35192SOL    HW2 7351   7.235   8.002   2.652
35193SOL     OW 7352   8.904   1.498  13.743
35193SOL    HW1 7353   8.901   1.541  13.658
35193SOL    HW2 7354   8.991   1.458  13.748
35194SOL     OW 7355   8.782  13.331  11.172
35194SOL    HW1 7356   8.858  13.339  11.229
35194SOL    HW2 7357   8.741  13.417  11.173
35195SOL     OW 7358   7.033   6.288  13.463
35195SOL    HW1 7359   7.100   6.288  13.395
35195SOL    HW2 7360   7.042   6.203  13.507
35196SOL     OW 7361   8.711  13.668   7.226
35196SOL    HW1 7362   8.738  13.672   7.317
35196SOL    HW2 7363   8.638  13.729   7.220
35197SOL     OW 7364  13.818   4.147   6.330
35197SOL    HW1 7365  13.769   4.130   6.250
35197SOL    HW2 7366  13.908   4.157   6.301
35198SOL     OW 7367   5.340   7.346  10.493
35198SOL    HW1 7368   5.331   7.416  10.558
35198SOL    HW2 7369   5.420   7.301  10.518
35199SOL     OW 7370  12.979   6.774   5.163
35199SOL    HW1 7371  13.073   6.759   5.174
35199SOL    HW2 7372  12.972   6.837   5.092
35200SOL     OW 7373  10.559   1.156   1.428
35200SOL    HW1 7374  10.617   1.080   1.436
35200SOL    HW2 7375  10.471   1.119   1.420
35201SOL     OW 7376  13.468   2.944  11.017
35201SOL    HW1 7377  13.419   3.025  11.034
35201SOL    HW2 7378  13.451   2.890  11.094
35202SOL     OW 7379   8.897   5.667  14.836
35202SOL    HW1 7380   8.873   5.698  14.749
35202SOL    HW2 7381   8.944   5.740  14.876
35203SOL     OW 7382   2.873   8.886  11.131
35203SOL    HW1 7383   2.885   8.815  11.194
35203SOL    HW2 7384   2.780   8.907  11.136
35204SOL     OW 7385   4.063   0.127   2.414
35204SOL    HW1 7386   3.994   0.121   2.481
35204SOL    HW2 7387   4.144   0.120   2.464
35205SOL     OW 7388   1.703  14.782   0.834
35205SOL    HW1 7389   1.701  14.803   0.927
35205SOL    HW2 7390   1.641  14.843   0.794
35206SOL     OW 7391   6.514  14.373   3.062
35206SOL    HW1 7392   6.430  14.415   3.082
35206SOL    HW2 7393   6.491  14.298   3.008
35207SOL     OW 7394   4.387  11.168   0.836
35207SOL    HW1 7395   4.393  11.252   0.790
35207SOL    HW2 7396   4.476  11.150   0.865
35208SOL     OW 7397  11.142   0.665   7.323
35208SOL    HW1 7398  11.161   0.725   7.251
35208SOL    HW2 7399  11.192   0.700   7.397
35209SOL     OW 7400  10.791  13.095  10.005
35209SOL    HW1 7401  10.782  13.008   9.966
35209SOL    HW2 7402  10.773  13.082  10.098
35210SOL     OW 7403   1.381   1.016  12.742
35210SOL    HW1 7404   1.375   1.004  12.837
35210SOL    HW2 7405   1.411   1.106  12.731
35211SOL     OW 7406   2.241   8.509   2.679
35211SOL    HW1 7407   2.326   8.475   2.651
35211SOL    HW2 7408   2.262   8.574   2.746
35212SOL     OW 7409   0.076   9.608   5.390
35212SOL    HW1 7410  14.874   9.630   5.439
35212SOL    HW2 7411   0.107   9.692   5.356
35213SOL     OW 7412   5.215  12.179   6.571
35213SOL    HW1 7413   5.241  12.177   6.479
35213SOL    HW2 7414   5.125  12.147   6.571
35214SOL     OW 7415   8.247   2.336   1.055
35214SOL    HW1 7416   8.185   2.326   0.983
35214SOL    HW2 7417   8.193   2.330   1.134
35215SOL     OW 7418   9.654  12.755  10.687
35215SOL    HW1 7419   9.631  12.840  10.724
35215SOL    HW2 7420   9.591  12.740  10.617
35216SOL     OW 7421   0.090   6.267  12.665
35216SOL    HW1 7422   0.150   6.213  12.613
35216SOL    HW2 7423   0.125   6.262  12.754
35217SOL     OW 7424  12.082   9.561  13.971
35217SOL    HW1 7425  12.055   9.612  13.894
35217SOL    HW2 7426  12.109   9.627  14.035
35218SOL     OW 7427   0.882   0.386   0.296
35218SOL    HW1 7428   0.912   0.425   0.213
35218SOL    HW2 7429   0.858   0.296   0.273
35219SOL     OW 7430  10.166  14.440   3.786
35219SOL    HW1 7431  10.251  14.448   3.830
35219SOL    HW2 7432  10.109  14.501   3.832
35220SOL     OW 7433   2.909   9.072  10.127
35220SOL    HW1 7434   2.876   9.137  10.189
35220SOL    HW2 7435   2.968   9.017  10.178
35221SOL     OW 7436  12.756   9.941   0.268
35221SOL    HW1 7437  12.698   9.865   0.276
35221SOL    HW2 7438  12.771   9.950   0.174
35222SOL     OW 7439  12.809   2.988  13.969
35222SOL    HW1 7440  12.769   3.075  13.970
35222SOL    HW2 7441  12.737   2.928  13.952
35223SOL     OW 7442   1.020  14.111   5.911
35223SOL    HW1 7443   0.989  14.093   6.000
35223SOL    HW2 7444   1.034  14.024   5.873
35224SOL     OW 7445   5.305   3.320  14.426
35224SOL    HW1 7446   5.394   3.354  14.416
35224SOL    HW2 7447   5.284   3.333  14.518
35225SOL     OW 7448   3.076   8.203  13.588
35225SOL    HW1 7449   3.128   8.280  13.612
35225SOL    HW2 7450   2.995   8.212  13.638
35226SOL     OW 7451  10.616   8.796   2.353
35226SOL    HW1 7452  10.605   8.725   2.290
35226SOL    HW2 7453  10.541   8.787   2.412
35227SOL     OW 7454   5.288   0.052   4.395
35227SOL    HW1 7455   5.198   0.077   4.370
35227SOL    HW2 7456   5.286  14.834   4.397
35228SOL     OW 7457  10.753  11.368  12.932
35228SOL    HW1 7458  10.678  11.424  12.951
35228SOL    HW2 7459  10.808  11.420  12.873
35229SOL     OW 7460   4.999   0.575   8.208
35229SOL    HW1 7461   4.966   0.493   8.245
35229SOL    HW2 7462   4.967   0.576   8.118
35230SOL     OW 7463   3.164   7.633   0.399
35230SOL    HW1 7464   3.162   7.635   0.303
35230SOL    HW2 7465   3.072   7.640   0.425
35231SOL     OW 7466  10.832  12.163  14.793
35231SOL    HW1 7467  10.890  12.088  14.780
35231SOL    HW2 7468  10.758  12.147  14.734
35232SOL     OW 7469   3.854   5.076   1.405
35232SOL    HW1 7470   3.931   5.027   1.374
35232SOL    HW2 7471   3.890   5.140   1.466
35233SOL     OW 7472  10.263   3.544   0.252
35233SOL    HW1 7473  10.358   3.538   0.247
35233SOL    HW2 7474  10.232   3.467   0.204
35234SOL     OW 7475   2.999   9.546  13.601
35234SOL    HW1 7476   3.031   9.559  13.512
35234SOL    HW2 7477   3.028   9.624  13.648
35235SOL     OW 7478  12.869   4.789  11.244
35235SOL    HW1 7479  12.884   4.792  11.338
35235SOL    HW2 7480  12.809   4.715  11.232
35236SOL     OW 7481   2.736   9.819   8.358
35236SOL    HW1 7482   2.736   9.915   8.367
35236SOL    HW2 7483   2.684   9.803   8.279
35237SOL     OW 7484   3.341   8.957   0.692
35237SOL    HW1 7485   3.324   9.008   0.613
35237SOL    HW2 7486   3.255   8.946   0.733
35238SOL     OW 7487  10.052   9.391  14.641
35238SOL    HW1 7488  10.039   9.307  14.684
35238SOL    HW2 7489  10.127   9.376  14.582
35239SOL     OW 7490  10.879  12.584   4.705
35239SOL    HW1 7491  10.975  12.589   4.706
35239SOL    HW2 7492  10.851  12.667   4.744
35240SOL     OW 7493   0.773  11.763  12.649
35240SOL    HW1 7494   0.790  11.669  12.657
35240SOL    HW2 7495   0.710  11.781  12.719
35241SOL     OW 7496  10.872   1.390  10.895
35241SOL    HW1 7497  10.950   1.414  10.944
35241SOL    HW2 7498  10.858   1.464  10.835
35242SOL     OW 7499   1.480   3.733   4.723
35242SOL    HW1 7500   1.393   3.694   4.718
35242SOL    HW2 7501   1.536   3.673   4.673
35243SOL     OW 7502   5.660  13.889  11.184
35243SOL    HW1 7503   5.641  13.810  11.133
35243SOL    HW2 7504   5.609  13.878  11.264
35244SOL     OW 7505   2.916  13.665  12.800
35244SOL    HW1 7506   2.998  13.712  12.813
35244SOL    HW2 7507   2.868  13.677  12.882
35245SOL     OW 7508   2.559   9.925   4.774
35245SOL    HW1 7509   2.639   9.898   4.728
35245SOL    HW2 7510   2.492   9.925   4.706
35246SOL     OW 7511  12.758  14.211   2.943
35246SOL    HW1 7512  12.739  14.199   3.036
35246SOL    HW2 7513  12.697  14.152   2.898
35247SOL     OW 7514  14.351   4.917  11.793
35247SOL    HW1 7515  14.351   5.007  11.762
35247SOL    HW2 7516  14.260   4.888  11.783
35248SOL     OW 7517  11.551  12.545   8.678
35248SOL    HW1 7518  11.553  12.509   8.767
35248SOL    HW2 7519  11.459  12.542   8.653
35249SOL     OW 7520   5.615   8.079   1.194
35249SOL    HW1 7521   5.698   8.116   1.164
35249SOL    HW2 7522   5.555   8.154   1.195
35250SOL     OW 7523  10.717  10.356   5.850
35250SOL    HW1 7524  10.721  10.400   5.765
35250SOL    HW2 7525  10.787  10.291   5.846
35251SOL     OW 7526  11.998   7.710   0.884
35251SOL    HW1 7527  11.960   7.674   0.804
35251SOL    HW2 7528  12.075   7.759   0.854
35252SOL     OW 7529   1.635   2.835  11.519
35252SOL    HW1 7530   1.619   2.903  11.585
35252SOL    HW2 7531   1.566   2.850  11.454
35253SOL     OW 7532   2.718  10.225  10.011
35253SOL    HW1 7533   2.799  10.174  10.015
35253SOL    HW2 7534   2.651  10.161   9.990
35254SOL     OW 7535   3.850   9.322   6.239
35254SOL    HW1 7536   3.822   9.232   6.256
35254SOL    HW2 7537   3.801   9.348   6.161
35255SOL     OW 7538   4.641   4.619   8.390
35255SOL    HW1 7539   4.608   4.702   8.355
35255SOL    HW2 7540   4.735   4.623   8.377
35256SOL     OW 7541  14.316   8.897   3.647
35256SOL    HW1 7542  14.332   8.939   3.731
35256SOL    HW2 7543  14.262   8.821   3.668
35257SOL     OW 7544  14.686   8.322   7.631
35257SOL    HW1 7545  14.778   8.322   7.604
35257SOL    HW2 7546  14.637   8.320   7.549
35258SOL     OW 7547   6.981  10.754   6.269
35258SOL    HW1 7548   6.960  10.827   6.210
35258SOL    HW2 7549   7.061  10.781   6.313
35259SOL     OW 7550  13.971   0.428   1.155
35259SOL    HW1 7551  13.905   0.497   1.146
35259SOL    HW2 7552  13.976   0.413   1.250
35260SOL     OW 7553  14.538  10.977   5.796
35260SOL    HW1 7554  14.470  11.033   5.758
35260SOL    HW2 7555  14.491  10.917   5.853
35261SOL     OW 7556  12.729  14.648  11.080
35261SOL    HW1 7557  12.735  14.554  11.064
35261SOL    HW2 7558  12.740  14.656  11.175
35262SOL     OW 7559   3.945   6.331  12.417
35262SOL    HW1 7560   3.918   6.423  12.417
35262SOL    HW2 7561   3.870   6.284  12.452
35263SOL     OW 7562  14.093   0.323   4.825
35263SOL    HW1 7563  14.033   0.254   4.797
35263SOL    HW2 7564  14.074   0.396   4.767
35264SOL     OW 7565  11.335   2.328   9.262
35264SOL    HW1 7566  11.266   2.271   9.295
35264SOL    HW2 7567  11.300   2.364   9.181
35265SOL     OW 7568   5.102   6.951   7.863
35265SOL    HW1 7569   5.032   7.017   7.862
35265SOL    HW2 7570   5.108   6.921   7.772
35266SOL     OW 7571   0.223   4.883   3.816
35266SOL    HW1 7572   0.218   4.921   3.904
35266SOL    HW2 7573   0.162   4.935   3.764
35267SOL     OW 7574   3.298   1.422   0.218
35267SOL    HW1 7575   3.302   1.359   0.290
35267SOL    HW2 7576   3.210   1.413   0.183
35268SOL     OW 7577  11.828   0.847   8.480
35268SOL    HW1 7578  11.886   0.871   8.552
35268SOL    HW2 7579  11.761   0.916   8.479
35269SOL     OW 7580   8.027   4.520   5.971
35269SOL    HW1 7581   8.078   4.589   5.929
35269SOL    HW2 7582   8.091   4.452   5.992
35270SOL     OW 7583  14.571  14.382  10.777
35270SOL    HW1 7584  14.533  14.295  10.788
35270SOL    HW2 7585  14.653  14.379  10.825
35271SOL     OW 7586   0.900  12.072   1.546
35271SOL    HW1 7587   0.861  11.989   1.519
35271SOL    HW2 7588   0.898  12.127   1.468
35272SOL     OW 7589   5.641  13.444   4.150
35272SOL    HW1 7590   5.668  13.479   4.235
35272SOL    HW2 7591   5.575  13.377   4.171
35273SOL     OW 7592   0.586   4.799  12.899
35273SOL    HW1 7593   0.625   4.841  12.823
35273SOL    HW2 7594   0.642   4.826  12.972
35274SOL     OW 7595   4.328   2.662   2.181
35274SOL    HW1 7596   4.313   2.747   2.222
35274SOL    HW2 7597   4.260   2.656   2.113
35275SOL     OW 7598   8.440   2.931   8.072
35275SOL    HW1 7599   8.473   3.013   8.108
35275SOL    HW2 7600   8.518   2.888   8.037
35276SOL     OW 7601   5.157  13.635  10.910
35276SOL    HW1 7602   5.238  13.676  10.878
35276SOL    HW2 7603   5.140  13.677  10.994
35277SOL     OW 7604   9.411  13.231   8.000
35277SOL    HW1 7605   9.494  13.202   7.962
35277SOL    HW2 7606   9.388  13.309   7.951
35278SOL     OW 7607  11.953  14.280   3.151
35278SOL    HW1 7608  11.879  14.266   3.092
35278SOL    HW2 7609  11.913  14.292   3.237
35279SOL     OW 7610  11.534   2.093   1.171
35279SOL    HW1 7611  11.467   2.161   1.162
35279SOL    HW2 7612  11.484   2.011   1.169
35280SOL     OW 7613  12.542   8.589  13.170
35280SOL    HW1 7614  12.568   8.507  13.128
35280SOL    HW2 7615  12.587   8.657  13.119
35281SOL     OW 7616  13.081   2.109  13.579
35281SOL    HW1 7617  13.142   2.118  13.506
35281SOL    HW2 7618  13.013   2.175  13.561
35282SOL     OW 7619   7.893   7.636   5.316
35282SOL    HW1 7620   7.871   7.596   5.400
35282SOL    HW2 7621   7.875   7.568   5.251
35283SOL     OW 7622   9.650   9.496  12.842
35283SOL    HW1 7623   9.740   9.510  12.871
35283SOL    HW2 7624   9.658   9.482  12.748
35284SOL     OW 7625  14.401   6.137  14.594
35284SOL    HW1 7626  14.336   6.112  14.528
35284SOL    HW2 7627  14.355   6.129  14.677
35285SOL     OW 7628  10.436   7.484  11.476
35285SOL    HW1 7629  10.454   7.527  11.392
35285SOL    HW2 7630  10.377   7.412  11.454
35286SOL     OW 7631   0.576   4.765   6.816
35286SOL    HW1 7632   0.489   4.788   6.783
35286SOL    HW2 7633   0.617   4.717   6.744
35287SOL     OW 7634   8.943   5.197   1.968
35287SOL    HW1 7635   8.862   5.248   1.974
35287SOL    HW2 7636   8.955   5.160   2.055
35288SOL     OW 7637   5.167   6.459  10.042
35288SOL    HW1 7638   5.143   6.482  10.132
35288SOL    HW2 7639   5.197   6.541  10.004
35289SOL     OW 7640   6.481   8.750   0.268
35289SOL    HW1 7641   6.575   8.738   0.281
35289SOL    HW2 7642   6.442   8.668   0.297
35290SOL     OW 7643   5.522   7.074   5.127
35290SOL    HW1 7644   5.430   7.093   5.146
35290SOL    HW2 7645   5.532   6.980   5.142
35291SOL     OW 7646   9.127  11.446   7.007
35291SOL    HW1 7647   9.127  11.464   6.913
35291SOL    HW2 7648   9.047  11.488   7.039
35292SOL     OW 7649   2.141   8.613   9.214
35292SOL    HW1 7650   2.201   8.581   9.281
35292SOL    HW2 7651   2.093   8.535   9.186
35293SOL     OW 7652   0.783   0.586  10.262
35293SOL    HW1 7653   0.806   0.619  10.349
35293SOL    HW2 7654   0.808   0.657  10.203
35294SOL     OW 7655   7.444   7.555  13.988
35294SOL    HW1 7656   7.398   7.473  14.006
35294SOL    HW2 7657   7.528   7.527  13.950
35295SOL     OW 7658   2.643   5.378   3.383
35295SOL    HW1 7659   2.720   5.402   3.434
35295SOL    HW2 7660   2.623   5.289   3.412
35296SOL     OW 7661   1.881   4.473   6.116
35296SOL    HW1 7662   1.955   4.413   6.129
35296SOL    HW2 7663   1.808   4.415   6.093
35297SOL     OW 7664  11.247   2.066   1.272
35297SOL    HW1 7665  11.175   2.113   1.230
35297SOL    HW2 7666  11.231   2.077   1.366
35298SOL     OW 7667   4.403  14.081   9.421
35298SOL    HW1 7668   4.328  14.025   9.398
35298SOL    HW2 7669   4.426  14.055   9.510
35299SOL     OW 7670   1.843   5.346   4.414
35299SOL    HW1 7671   1.868   5.329   4.323
35299SOL    HW2 7672   1.916   5.312   4.466
35300SOL     OW 7673   2.873   5.480   3.566
35300SOL    HW1 7674   2.910   5.530   3.639
35300SOL    HW2 7675   2.942   5.479   3.500
35301SOL     OW 7676   9.408   3.069   6.213
35301SOL    HW1 7677   9.354   3.107   6.282
35301SOL    HW2 7678   9.471   3.137   6.192
35302SOL     OW 7679   6.440   8.503   0.413
35302SOL    HW1 7680   6.412   8.413   0.398
35302SOL    HW2 7681   6.503   8.497   0.484
35303SOL     OW 7682  11.851  10.161  11.211
35303SOL    HW1 7683  11.879  10.219  11.141
35303SOL    HW2 7684  11.883  10.203  11.291
35304SOL     OW 7685  14.837   4.223   9.455
35304SOL    HW1 7686  14.840   4.304   9.404
35304SOL    HW2 7687   0.027   4.234   9.522
35305SOL     OW 7688  10.943  13.437   1.206
35305SOL    HW1 7689  10.870  13.491   1.239
35305SOL    HW2 7690  11.021  13.481   1.239
35306SOL     OW 7691   9.347   2.399  10.415
35306SOL    HW1 7692   9.284   2.327  10.405
35306SOL    HW2 7693   9.304   2.461  10.473
35307SOL     OW 7694  14.479   6.917   9.619
35307SOL    HW1 7695  14.476   6.822   9.624
35307SOL    HW2 7696  14.479   6.937   9.526
35308SOL     OW 7697   6.995   2.803   2.475
35308SOL    HW1 7698   7.089   2.813   2.487
35308SOL    HW2 7699   6.987   2.741   2.402
35309SOL     OW 7700   9.381  10.797   5.963
35309SOL    HW1 7701   9.361  10.705   5.979
35309SOL    HW2 7702   9.465  10.811   6.008
35310SOL     OW 7703  12.196   6.754  13.865
35310SOL    HW1 7704  12.110   6.749  13.823
35310SOL    HW2 7705  12.177   6.752  13.959
35311SOL     OW 7706   1.008  13.154  12.433
35311SOL    HW1 7707   0.947  13.216  12.393
35311SOL    HW2 7708   1.086  13.159  12.378
35312SOL     OW 7709   6.423   6.066   2.404
35312SOL    HW1 7710   6.450   5.990   2.353
35312SOL    HW2 7711   6.433   6.039   2.495
35313SOL     OW 7712  11.522   2.697   3.057
35313SOL    HW1 7713  11.435   2.657   3.062
35313SOL    HW2 7714  11.530   2.726   2.966
35314SOL     OW 7715  12.749   5.771  12.335
35314SOL    HW1 7716  12.729   5.678  12.331
35314SOL    HW2 7717  12.817   5.784  12.268
35315SOL     OW 7718  12.729  14.696   0.173
35315SOL    HW1 7719  12.812  14.651   0.192
35315SOL    HW2 7720  12.708  14.741   0.255
35316SOL     OW 7721   7.034  11.376   5.962
35316SOL    HW1 7722   7.112  11.419   5.997
35316SOL    HW2 7723   6.996  11.440   5.901
35317SOL     OW 7724  14.297   9.937   4.908
35317SOL    HW1 7725  14.352   9.859   4.897
35317SOL    HW2 7726  14.359  10.009   4.912
35318SOL     OW 7727  14.222   4.364  12.560
35318SOL    HW1 7728  14.300   4.390  12.609
35318SOL    HW2 7729  14.204   4.275  12.589
35319SOL     OW 7730  10.316  14.356  13.023
35319SOL    HW1 7731  10.231  14.400  13.017
35319SOL    HW2 7732  10.318  14.298  12.947
35320SOL     OW 7733   2.372   6.867  12.774
35320SOL    HW1 7734   2.317   6.788  12.769
35320SOL    HW2 7735   2.312   6.939  12.752
35321SOL     OW 7736  12.628   9.648   6.500
35321SOL    HW1 7737  12.641   9.690   6.585
35321SOL    HW2 7738  12.547   9.598   6.511
35322SOL     OW 7739   1.511   9.019   9.675
35322SOL    HW1 7740   1.601   8.989   9.661
35322SOL    HW2 7741   1.458   8.942   9.655
35323SOL     OW 7742   7.426   3.351  14.446
35323SOL    HW1 7743   7.518   3.376  14.436
35323SOL    HW2 7744   7.411   3.287  14.376
35324SOL     OW 7745  12.362   3.674  13.169
35324SOL    HW1 7746  12.390   3.641  13.083
35324SOL    HW2 7747  12.432   3.648  13.229
35325SOL     OW 7748   1.547   6.052  10.999
35325SOL    HW1 7749   1.550   6.073  11.092
35325SOL    HW2 7750   1.589   5.966  10.993
35326SOL     OW 7751  11.839   7.591   6.061
35326SOL    HW1 7752  11.768   7.527   6.057
35326SOL    HW2 7753  11.817   7.657   5.995
35327SOL     OW 7754  10.531   5.359   8.763
35327SOL    HW1 7755  10.508   5.375   8.672
35327SOL    HW2 7756  10.544   5.264   8.769
35328SOL     OW 7757   2.632   9.135  13.723
35328SOL    HW1 7758   2.719   9.108  13.693
35328SOL    HW2 7759   2.625   9.227  13.695
35329SOL     OW 7760   5.286  10.315  13.354
35329SOL    HW1 7761   5.330  10.397  13.333
35329SOL    HW2 7762   5.340  10.275  13.422
35330SOL     OW 7763   7.992   1.048   0.545
35330SOL    HW1 7764   7.987   1.122   0.605
35330SOL    HW2 7765   7.901   1.025   0.527
35331SOL     OW 7766  12.850  11.851   0.875
35331SOL    HW1 7767  12.834  11.845   0.781
35331SOL    HW2 7768  12.780  11.908   0.907
35332SOL     OW 7769   8.188   5.244   4.492
35332SOL    HW1 7770   8.234   5.165   4.463
35332SOL    HW2 7771   8.119   5.257   4.427
35333SOL     OW 7772   0.632   9.992  12.566
35333SOL    HW1 7773   0.702   9.929  12.585
35333SOL    HW2 7774   0.665  10.041  12.491
35334SOL     OW 7775   2.059   6.901  13.485
35334SOL    HW1 7776   2.135   6.959  13.494
35334SOL    HW2 7777   2.093   6.814  13.507
35335SOL     OW 7778  14.457   2.402   1.861
35335SOL    HW1 7779  14.510   2.334   1.818
35335SOL    HW2 7780  14.518   2.444   1.922
35336SOL     OW 7781  13.514   8.038   0.488
35336SOL    HW1 7782  13.566   8.021   0.410
35336SOL    HW2 7783  13.576   8.033   0.560
35337SOL     OW 7784   8.713   6.892   4.472
35337SOL    HW1 7785   8.697   6.928   4.384
35337SOL    HW2 7786   8.803   6.861   4.469
35338SOL     OW 7787   3.337   1.568   7.726
35338SOL    HW1 7788   3.317   1.608   7.811
35338SOL    HW2 7789   3.329   1.640   7.664
35339SOL     OW 7790   4.046   8.156  14.294
35339SOL    HW1 7791   4.013   8.247  14.293
35339SOL    HW2 7792   4.078   8.142  14.205
35340SOL     OW 7793   7.385  10.318   1.135
35340SOL    HW1 7794   7.341  10.377   1.197
35340SOL    HW2 7795   7.452  10.273   1.187
35341SOL     OW 7796  11.272   3.121   3.503
35341SOL    HW1 7797  11.220   3.201   3.513
35341SOL    HW2 7798  11.309   3.105   3.590
35342SOL     OW 7799   5.216  11.133   5.710
35342SOL    HW1 7800   5.174  11.092   5.785
35342SOL    HW2 7801   5.148  11.134   5.642
35343SOL     OW 7802   3.647   2.978   5.105
35343SOL    HW1 7803   3.727   2.926   5.098
35343SOL    HW2 7804   3.600   2.941   5.180
35344SOL     OW 7805   4.773  11.427   7.305
35344SOL    HW1 7806   4.859  11.391   7.285
35344SOL    HW2 7807   4.767  11.505   7.249
35345SOL     OW 7808   1.472   7.065   5.891
35345SOL    HW1 7809   1.518   7.120   5.828
35345SOL    HW2 7810   1.379   7.084   5.877
35346SOL     OW 7811  14.347   9.626   9.321
35346SOL    HW1 7812  14.357   9.700   9.382
35346SOL    HW2 7813  14.380   9.551   9.370
35347SOL     OW 7814   3.190   1.354   5.935
35347SOL    HW1 7815   3.247   1.384   5.864
35347SOL    HW2 7816   3.246   1.357   6.013
35348SOL     OW 7817   6.270  13.583  12.836
35348SOL    HW1 7818   6.274  13.678  12.840
35348SOL    HW2 7819   6.358  13.557  12.809
35349SOL     OW 7820   7.937  14.521   8.618
35349SOL    HW1 7821   7.998  14.517   8.544
35349SOL    HW2 7822   7.857  14.559   8.581
35350SOL     OW 7823  10.632   8.426   9.874
35350SOL    HW1 7824  10.598   8.472   9.797
35350SOL    HW2 7825  10.616   8.334   9.855
35351SOL     OW 7826   2.192  10.019   2.384
35351SOL    HW1 7827   2.251   9.965   2.436
35351SOL    HW2 7828   2.113   9.966   2.373
35352SOL     OW 7829  14.301   5.439   7.900
35352SOL    HW1 7830  14.357   5.476   7.968
35352SOL    HW2 7831  14.276   5.514   7.847
35353SOL     OW 7832   6.104   4.367   7.696
35353SOL    HW1 7833   6.185   4.407   7.666
35353SOL    HW2 7834   6.130   4.279   7.724
35354SOL     OW 7835  13.841   9.996   1.475
35354SOL    HW1 7836  13.893   9.924   1.439
35354SOL    HW2 7837  13.815  10.047   1.398
35355SOL     OW 7838   6.249   6.188  14.723
35355SOL    HW1 7839   6.228   6.281  14.715
35355SOL    HW2 7840   6.230   6.152  14.636
35356SOL     OW 7841   7.077   6.136  10.309
35356SOL    HW1 7842   7.120   6.208  10.355
35356SOL    HW2 7843   7.005   6.110  10.366
35357SOL     OW 7844   8.424  12.314  12.204
35357SOL    HW1 7845   8.362  12.386  12.217
35357SOL    HW2 7846   8.490  12.327  12.272
35358SOL     OW 7847   4.532   2.960  11.173
35358SOL    HW1 7848   4.490   2.893  11.228
35358SOL    HW2 7849   4.501   3.043  11.209
35359SOL     OW 7850   8.877   1.783  12.729
35359SOL    HW1 7851   8.786   1.812  12.731
35359SOL    HW2 7852   8.912   1.808  12.815
35360SOL     OW 7853   3.472   7.437   8.649
35360SOL    HW1 7854   3.530   7.512   8.656
35360SOL    HW2 7855   3.392   7.464   8.694
35361SOL     OW 7856  14.546  10.061  10.578
35361SOL    HW1 7857  14.466  10.019  10.545
35361SOL    HW2 7858  14.561  10.135  10.519
35362SOL     OW 7859   5.598  10.417  13.202
35362SOL    HW1 7860   5.590  10.323  13.186
35362SOL    HW2 7861   5.673  10.444  13.150
35363SOL     OW 7862   7.148  13.758   9.868
35363SOL    HW1 7863   7.226  13.813   9.876
35363SOL    HW2 7864   7.177  13.681   9.820
35364SOL     OW 7865   8.324   7.217   2.343
35364SOL    HW1 7866   8.246   7.163   2.359
35364SOL    HW2 7867   8.327   7.224   2.247
35365SOL     OW 7868   4.642  10.338  14.321
35365SOL    HW1 7869   4.579  10.279  14.279
35365SOL    HW2 7870   4.589  10.410  14.355
35366SOL     OW 7871  12.266   1.414  14.347
35366SOL    HW1 7872  12.286   1.321  14.336
35366SOL    HW2 7873  12.175   1.423  14.319
35367SOL     OW 7874  13.819   9.008   7.660
35367SOL    HW1 7875  13.852   8.918   7.656
35367SOL    HW2 7876  13.888   9.057   7.704
35368SOL     OW 7877   7.777   2.781   3.461
35368SOL    HW1 7878   7.683   2.784   3.445
35368SOL    HW2 7879   7.813   2.735   3.385
35369SOL     OW 7880   1.790  11.845   5.522
35369SOL    HW1 7881   1.810  11.762   5.478
35369SOL    HW2 7882   1.864  11.902   5.502
35370SOL     OW 7883   4.443   7.191  13.957
35370SOL    HW1 7884   4.535   7.177  13.976
35370SOL    HW2 7885   4.417   7.114  13.906
35371SOL     OW 7886   7.214  13.442   1.530
35371SOL    HW1 7887   7.137  13.476   1.577
35371SOL    HW2 7888   7.180  13.370   1.477
35372SOL     OW 7889  10.996   4.027   5.605
35372SOL    HW1 7890  10.975   4.103   5.658
35372SOL    HW2 7891  10.972   4.052   5.516
35373SOL     OW 7892   2.519   4.647   4.506
35373SOL    HW1 7893   2.539   4.718   4.445
35373SOL    HW2 7894   2.599   4.636   4.557
35374SOL     OW 7895  10.633  10.682   9.004
35374SOL    HW1 7896  10.563  10.740   8.974
35374SOL    HW2 7897  10.618  10.672   9.097
35375SOL     OW 7898   4.202  13.909   5.446
35375SOL    HW1 7899   4.180  13.922   5.538
35375SOL    HW2 7900   4.236  13.820   5.441
35376SOL     OW 7901  14.039  13.936   8.031
35376SOL    HW1 7902  14.076  13.936   8.119
35376SOL    HW2 7903  14.094  13.875   7.982
35377SOL     OW 7904   8.879   4.471   8.021
35377SOL    HW1 7905   8.966   4.440   8.045
35377SOL    HW2 7906   8.833   4.480   8.104
35378SOL     OW 7907   0.944  13.765   8.221
35378SOL    HW1 7908   0.938  13.683   8.270
35378SOL    HW2 7909   0.861  13.771   8.174
35379SOL     OW 7910   4.748   6.397   8.722
35379SOL    HW1 7911   4.727   6.308   8.751
35379SOL    HW2 7912   4.675   6.450   8.755
35380SOL     OW 7913   0.939   7.102   2.658
35380SOL    HW1 7914   0.914   7.042   2.588
35380SOL    HW2 7915   0.939   7.047   2.737
35381SOL     OW 7916   8.129   0.928   8.833
35381SOL    HW1 7917   8.130   0.840   8.871
35381SOL    HW2 7918   8.144   0.913   8.739
35382SOL     OW 7919  13.800   8.748   2.320
35382SOL    HW1 7920  13.832   8.797   2.396
35382SOL    HW2 7921  13.722   8.702   2.353
35383SOL     OW 7922   5.868   7.670  12.693
35383SOL    HW1 7923   5.946   7.687  12.747
35383SOL    HW2 7924   5.904   7.639  12.610
35384SOL     OW 7925   9.708  14.240   1.269
35384SOL    HW1 7926   9.664  14.252   1.184
35384SOL    HW2 7927   9.774  14.173   1.252
35385SOL     OW 7928   1.732   8.020   9.204
35385SOL    HW1 7929   1.671   7.954   9.171
35385SOL    HW2 7930   1.678   8.099   9.212
35386SOL     OW 7931  13.522  12.143   3.641
35386SOL    HW1 7932  13.471  12.104   3.570
35386SOL    HW2 7933  13.472  12.220   3.668
35387SOL     OW 7934  12.934   7.674  13.172
35387SOL    HW1 7935  12.985   7.755  13.181
35387SOL    HW2 7936  12.865   7.695  13.109
35388SOL     OW 7937  13.976   7.097   0.728
35388SOL    HW1 7938  14.009   7.050   0.651
35388SOL    HW2 7939  14.044   7.086   0.794
35389SOL     OW 7940   8.076   4.039   4.537
35389SOL    HW1 7941   8.019   3.988   4.595
35389SOL    HW2 7942   8.144   4.074   4.595
35390SOL     OW 7943   6.376   4.480   2.053
35390SOL    HW1 7944   6.453   4.490   2.108
35390SOL    HW2 7945   6.401   4.516   1.968
35391SOL     OW 7946   8.419   0.083   1.454
35391SOL    HW1 7947   8.405   0.097   1.360
35391SOL    HW2 7948   8.456   0.165   1.486
35392SOL     OW 7949   2.511   7.326  11.124
35392SOL    HW1 7950   2.583   7.351  11.182
35392SOL    HW2 7951   2.545   7.342  11.035
35393SOL     OW 7952   6.161   6.066   7.668
35393SOL    HW1 7953   6.148   6.159   7.655
35393SOL    HW2 7954   6.195   6.059   7.758
35394SOL     OW 7955   2.300   2.971   0.581
35394SOL    HW1 7956   2.216   2.983   0.625
35394SOL    HW2 7957   2.352   3.048   0.606
35395SOL     OW 7958  11.170   3.755  10.510
35395SOL    HW1 7959  11.258   3.794  10.513
35395SOL    HW2 7960  11.156   3.737  10.417
35396SOL     OW 7961   9.216   7.389   3.949
35396SOL    HW1 7962   9.233   7.326   3.879
35396SOL    HW2 7963   9.128   7.367   3.980
35397SOL     OW 7964   7.089   2.074   4.380
35397SOL    HW1 7965   7.028   2.082   4.306
35397SOL    HW2 7966   7.034   2.048   4.454
35398SOL     OW 7967   6.028   6.510   6.313
35398SOL    HW1 7968   6.121   6.515   6.289
35398SOL    HW2 7969   6.026   6.528   6.407
35399SOL     OW 7970   7.372   7.021   4.777
35399SOL    HW1 7971   7.285   6.995   4.747
35399SOL    HW2 7972   7.362   7.112   4.806
35400SOL     OW 7973   0.263   8.059   3.671
35400SOL    HW1 7974   0.250   8.131   3.609
35400SOL    HW2 7975   0.299   8.101   3.749
35401SOL     OW 7976  14.843  10.372   5.966
35401SOL    HW1 7977  14.852  10.376   6.061
35401SOL    HW2 7978  14.779  10.440   5.945
35402SOL     OW 7979   4.522   2.367   3.428
35402SOL    HW1 7980   4.540   2.276   3.402
35402SOL    HW2 7981   4.600   2.415   3.399
35403SOL     OW 7982   5.362  14.708   4.985
35403SOL    HW1 7983   5.338  14.800   4.997
35403SOL    HW2 7984   5.435  14.694   5.044
35404SOL     OW 7985  12.378  13.190   5.672
35404SOL    HW1 7986  12.356  13.097   5.670
35404SOL    HW2 7987  12.326  13.225   5.744
35405SOL     OW 7988   0.755   9.639  11.901
35405SOL    HW1 7989   0.737   9.657  11.993
35405SOL    HW2 7990   0.850   9.635  11.895
35406SOL     OW 7991  14.350   5.045   9.077
35406SOL    HW1 7992  14.392   5.047   8.991
35406SOL    HW2 7993  14.260   5.075   9.060
35407SOL     OW 7994   8.437   5.421   8.234
35407SOL    HW1 7995   8.506   5.479   8.265
35407SOL    HW2 7996   8.483   5.346   8.197
35408SOL     OW 7997   5.688   6.451   6.627
35408SOL    HW1 7998   5.693   6.547   6.629
35408SOL    HW2 7999   5.710   6.427   6.537
35409SOL     OW 8000  14.532  10.373   6.871
35409SOL    HW1 8001  14.617  10.395   6.911
35409SOL    HW2 8002  14.514  10.445   6.811
35410SOL     OW 8003   7.867  10.142  12.230
35410SOL    HW1 8004   7.937  10.204  12.249
35410SOL    HW2 8005   7.910  10.070  12.184
35411SOL     OW 8006   5.016   7.495   3.579
35411SOL    HW1 8007   4.936   7.511   3.629
35411SOL    HW2 8008   4.985   7.464   3.494
35412SOL     OW 8009  10.408  12.504   6.533
35412SOL    HW1 8010  10.478  12.482   6.594
35412SOL    HW2 8011  10.431  12.458   6.452
35413SOL     OW 8012   5.663   6.681   3.554
35413SOL    HW1 8013   5.704   6.715   3.633
35413SOL    HW2 8014   5.597   6.619   3.586
35414SOL     OW 8015  14.362  14.573  10.289
35414SOL    HW1 8016  14.380  14.556  10.382
35414SOL    HW2 8017  14.448  14.591  10.251
35415SOL     OW 8018  12.121  14.681  13.101
35415SOL    HW1 8019  12.177  14.623  13.050
35415SOL    HW2 8020  12.099  14.630  13.179
35416SOL     OW 8021   4.900  12.575   7.691
35416SOL    HW1 8022   4.819  12.594   7.738
35416SOL    HW2 8023   4.897  12.633   7.615
35417SOL     OW 8024   6.983  14.611   3.059
35417SOL    HW1 8025   7.002  14.562   2.979
35417SOL    HW2 8026   7.058  14.593   3.117
35418SOL     OW 8027   8.670  11.036   6.347
35418SOL    HW1 8028   8.693  11.125   6.374
35418SOL    HW2 8029   8.754  10.996   6.324
35419SOL     OW 8030   5.820  13.361   9.232
35419SOL    HW1 8031   5.847  13.449   9.209
35419SOL    HW2 8032   5.726  13.369   9.251
35420SOL     OW 8033   4.893  13.776  14.271
35420SOL    HW1 8034   4.949  13.719  14.218
35420SOL    HW2 8035   4.832  13.716  14.314
35421SOL     OW 8036  14.827  14.393  14.065
35421SOL    HW1 8037  14.809  14.476  14.021
35421SOL    HW2 8038   0.017  14.414  14.130
35422SOL     OW 8039   0.359  13.340  12.546
35422SOL    HW1 8040   0.356  13.436  12.549
35422SOL    HW2 8041   0.450  13.319  12.526
35423SOL     OW 8042  12.767   3.239   5.053
35423SOL    HW1 8043  12.850   3.286   5.047
35423SOL    HW2 8044  12.780   3.177   5.124
35424SOL     OW 8045   3.274   5.805  11.150
35424SOL    HW1 8046   3.187   5.785  11.185
35424SOL    HW2 8047   3.273   5.771  11.061
35425SOL     OW 8048   7.931   7.511  11.660
35425SOL    HW1 8049   7.947   7.419  11.638
35425SOL    HW2 8050   7.836   7.519  11.663
35426SOL     OW 8051   5.947   3.996  11.265
35426SOL    HW1 8052   6.022   3.984  11.207
35426SOL    HW2 8053   5.870   3.983  11.209
35427SOL     OW 8054   5.608  12.903  12.099
35427SOL    HW1 8055   5.639  12.882  12.187
35427SOL    HW2 8056   5.659  12.846  12.041
35428SOL     OW 8057   0.205   4.852   8.717
35428SOL    HW1 8058   0.269   4.819   8.779
35428SOL    HW2 8059   0.186   4.778   8.660
35429SOL     OW 8060   6.570   1.201  10.716
35429SOL    HW1 8061   6.661   1.229  10.724
35429SOL    HW2 8062   6.571   1.134  10.648
35430SOL     OW 8063   9.026   6.102  12.146
35430SOL    HW1 8064   9.023   6.064  12.058
35430SOL    HW2 8065   9.082   6.179  12.137
35431SOL     OW 8066  14.688  13.671   9.704
35431SOL    HW1 8067  14.638  13.713   9.774
35431SOL    HW2 8068  14.682  13.732   9.630
35432SOL     OW 8069  12.931   2.699   9.533
35432SOL    HW1 8070  12.891   2.612   9.539
35432SOL    HW2 8071  12.901   2.745   9.612
35433SOL     OW 8072  14.665   8.934  12.976
35433SOL    HW1 8073  14.617   9.015  12.992
35433SOL    HW2 8074  14.652   8.883  13.056
35434SOL     OW 8075   1.647   6.347  12.110
35434SOL    HW1 8076   1.666   6.326  12.019
35434SOL    HW2 8077   1.553   6.332  12.120
35435SOL     OW 8078  13.957  11.303   6.896
35435SOL    HW1 8079  14.008  11.332   6.821
35435SOL    HW2 8080  13.866  11.323   6.873
35436SOL     OW 8081   4.839  14.479  12.117
35436SOL    HW1 8082   4.763  14.436  12.077
35436SOL    HW2 8083   4.854  14.430  12.198
35437SOL     OW 8084  13.015  10.385   7.357
35437SOL    HW1 8085  13.063  10.326   7.415
35437SOL    HW2 8086  12.992  10.459   7.413
35438SOL     OW 8087   7.696   3.368  14.368
35438SOL    HW1 8088   7.752   3.434  14.407
35438SOL    HW2 8089   7.756   3.298  14.341
35439SOL     OW 8090  10.216  10.380  12.841
35439SOL    HW1 8091  10.141  10.430  12.806
35439SOL    HW2 8092  10.258  10.343  12.764
35440SOL     OW 8093   3.415   3.134  13.329
35440SOL    HW1 8094   3.390   3.140  13.421
35440SOL    HW2 8095   3.493   3.079  13.328
35441SOL     OW 8096   3.521  14.255   4.679
35441SOL    HW1 8097   3.440  14.207   4.698
35441SOL    HW2 8098   3.539  14.305   4.759
35442SOL     OW 8099  14.553   5.011   0.913
35442SOL    HW1 8100  14.575   4.919   0.927
35442SOL    HW2 8101  14.530   5.016   0.820
35443SOL     OW 8102  11.426   8.998   6.644
35443SOL    HW1 8103  11.489   9.031   6.579
35443SOL    HW2 8104  11.481   8.956   6.711
35444SOL     OW 8105  13.775  10.694  13.322
35444SOL    HW1 8106  13.838  10.695  13.250
35444SOL    HW2 8107  13.829  10.707  13.400
35445SOL     OW 8108   5.785   2.209  11.398
35445SOL    HW1 8109   5.828   2.279  11.447
35445SOL    HW2 8110   5.857   2.160  11.358
35446SOL     OW 8111   5.885   8.626  13.871
35446SOL    HW1 8112   5.971   8.657  13.844
35446SOL    HW2 8113   5.827   8.700  13.856
35447SOL     OW 8114   6.226  13.342  14.463
35447SOL    HW1 8115   6.131  13.327  14.462
35447SOL    HW2 8116   6.237  13.424  14.511
35448SOL     OW 8117  14.433   3.998   9.571
35448SOL    HW1 8118  14.522   4.012   9.539
35448SOL    HW2 8119  14.401   3.922   9.523
35449SOL     OW 8120   4.236   7.244   8.626
35449SOL    HW1 8121   4.254   7.178   8.694
35449SOL    HW2 8122   4.258   7.327   8.667
35450SOL     OW 8123   1.804  12.499   9.658
35450SOL    HW1 8124   1.844  12.456   9.582
35450SOL    HW2 8125   1.853  12.580   9.668
35451SOL     OW 8126  11.239  10.563   5.658
35451SOL    HW1 8127  11.215  10.578   5.749
35451SOL    HW2 8128  11.277  10.475   5.657
35452SOL     OW 8129  12.565  10.786  12.419
35452SOL    HW1 8130  12.474  10.815  12.427
35452SOL    HW2 8131  12.564  10.723  12.347
35453SOL     OW 8132   1.171   6.223   0.992
35453SOL    HW1 8133   1.191   6.278   0.916
35453SOL    HW2 8134   1.105   6.161   0.960
35454SOL     OW 8135   7.161   6.539  11.457
35454SOL    HW1 8136   7.162   6.455  11.504
35454SOL    HW2 8137   7.151   6.604  11.526
35455SOL     OW 8138   5.956  13.025   7.323
35455SOL    HW1 8139   5.874  13.025   7.273
35455SOL    HW2 8140   5.983  12.933   7.324
35456SOL     OW 8141  12.607  12.404  14.663
35456SOL    HW1 8142  12.523  12.436  14.693
35456SOL    HW2 8143  12.626  12.330  14.720
35457SOL     OW 8144   8.890   3.448   9.568
35457SOL    HW1 8145   8.900   3.354   9.578
35457SOL    HW2 8146   8.796   3.463   9.572
35458SOL     OW 8147  12.958   9.925   9.725
35458SOL    HW1 8148  13.050   9.931   9.750
35458SOL    HW2 8149  12.958   9.877   9.643
35459SOL     OW 8150   1.479   6.471   7.582
35459SOL    HW1 8151   1.459   6.388   7.539
35459SOL    HW2 8152   1.565   6.456   7.623
35460SOL     OW 8153  13.693  14.274   0.070
35460SOL    HW1 8154  13.681  14.360   0.030
35460SOL    HW2 8155  13.753  14.289   0.142
35461SOL     OW 8156   2.676   4.431  10.316
35461SOL    HW1 8157   2.690   4.363  10.251
35461SOL    HW2 8158   2.593   4.408  10.358
35462SOL     OW 8159   3.138   9.344   6.453
35462SOL    HW1 8160   3.114   9.406   6.385
35462SOL    HW2 8161   3.157   9.398   6.530
35463SOL     OW 8162   3.557   8.219   5.350
35463SOL    HW1 8163   3.498   8.257   5.416
35463SOL    HW2 8164   3.523   8.131   5.335
35464SOL     OW 8165   0.392   5.847   6.545
35464SOL    HW1 8166   0.436   5.791   6.481
35464SOL    HW2 8167   0.335   5.787   6.594
35465SOL     OW 8168  12.323  10.324  14.062
35465SOL    HW1 8169  12.353  10.254  14.121
35465SOL    HW2 8170  12.393  10.389  14.065
35466SOL     OW 8171   5.171   1.575   8.546
35466SOL    HW1 8172   5.196   1.535   8.463
35466SOL    HW2 8173   5.101   1.519   8.580
35467SOL     OW 8174  12.793  10.557  10.524
35467SOL    HW1 8175  12.803  10.531  10.432
35467SOL    HW2 8176  12.870  10.521  10.567
35468SOL     OW 8177   5.969   3.775  13.343
35468SOL    HW1 8178   5.967   3.838  13.415
35468SOL    HW2 8179   5.956   3.690  13.385
35469SOL     OW 8180  12.291  12.599   8.266
35469SOL    HW1 8181  12.357  12.550   8.217
35469SOL    HW2 8182  12.229  12.533   8.296
35470SOL     OW 8183  14.017   8.229   7.955
35470SOL    HW1 8184  14.019   8.202   8.047
35470SOL    HW2 8185  14.084   8.176   7.913
35471SOL     OW 8186   9.811   9.600   2.370
35471SOL    HW1 8187   9.811   9.686   2.327
35471SOL    HW2 8188   9.878   9.607   2.438
35472SOL     OW 8189  11.450  11.341  10.971
35472SOL    HW1 8190  11.524  11.399  10.954
35472SOL    HW2 8191  11.486  11.253  10.966
35473SOL     OW 8192   9.944  10.304  11.100
35473SOL    HW1 8193   9.949  10.241  11.171
35473SOL    HW2 8194   9.901  10.258  11.028
35474SOL     OW 8195   5.563   1.212  13.065
35474SOL    HW1 8196   5.617   1.285  13.036
35474SOL    HW2 8197   5.576   1.208  13.160
35475SOL     OW 8198   3.009   9.745   5.355
35475SOL    HW1 8199   3.075   9.730   5.422
35475SOL    HW2 8200   3.003   9.841   5.349
35476SOL     OW 8201  10.767   5.177  13.511
35476SOL    HW1 8202  10.704   5.249  13.522
35476SOL    HW2 8203  10.757   5.125  13.590
35477SOL     OW 8204   1.353  10.712   8.189
35477SOL    HW1 8205   1.413  10.685   8.258
35477SOL    HW2 8206   1.266  10.709   8.230
35478SOL     OW 8207   2.880   9.787   9.621
35478SOL    HW1 8208   2.917   9.698   9.623
35478SOL    HW2 8209   2.931   9.832   9.554
35479SOL     OW 8210   5.159   8.064  10.094
35479SOL    HW1 8211   5.104   8.131  10.135
35479SOL    HW2 8212   5.130   7.982  10.134
35480SOL     OW 8213   5.332   4.017   1.813
35480SOL    HW1 8214   5.349   4.077   1.886
35480SOL    HW2 8215   5.417   3.979   1.792
35481SOL     OW 8216  13.751   7.782   6.172
35481SOL    HW1 8217  13.721   7.691   6.168
35481SOL    HW2 8218  13.758   7.808   6.080
35482SOL     OW 8219  14.155   5.087   1.240
35482SOL    HW1 8220  14.120   5.047   1.319
35482SOL    HW2 8221  14.196   5.168   1.270
35483SOL     OW 8222  10.966  11.599   8.511
35483SOL    HW1 8223  11.036  11.607   8.446
35483SOL    HW2 8224  10.911  11.676   8.497
35484SOL     OW 8225  13.302   0.916   6.642
35484SOL    HW1 8226  13.291   0.957   6.728
35484SOL    HW2 8227  13.256   0.974   6.582
35485SOL     OW 8228  14.821  13.848   3.473
35485SOL    HW1 8229   0.038  13.855   3.455
35485SOL    HW2 8230  14.785  13.805   3.396
35486SOL     OW 8231  10.687   1.311   2.267
35486SOL    HW1 8232  10.763   1.359   2.299
35486SOL    HW2 8233  10.700   1.306   2.172
35487SOL     OW 8234   1.531  13.473  13.677
35487SOL    HW1 8235   1.465  13.507  13.737
35487SOL    HW2 8236   1.483  13.411  13.622
35488SOL     OW 8237   3.418  10.113   0.471
35488SOL    HW1 8238   3.326  10.095   0.451
35488SOL    HW2 8239   3.414  10.186   0.533
35489SOL     OW 8240   1.342   9.862  10.853
35489SOL    HW1 8241   1.317   9.770  10.847
35489SOL    HW2 8242   1.411   9.864  10.919
35490SOL     OW 8243  14.813   3.869   2.164
35490SOL    HW1 8244  14.784   3.789   2.119
35490SOL    HW2 8245  14.736   3.926   2.163
35491SOL     OW 8246   6.490   5.370   2.810
35491SOL    HW1 8247   6.422   5.423   2.769
35491SOL    HW2 8248   6.572   5.416   2.790
35492SOL     OW 8249   6.253   2.165   2.133
35492SOL    HW1 8250   6.240   2.121   2.217
35492SOL    HW2 8251   6.168   2.159   2.089
35493SOL     OW 8252  10.637  11.177   8.262
35493SOL    HW1 8253  10.613  11.268   8.248
35493SOL    HW2 8254  10.640  11.166   8.357
35494SOL     OW 8255  12.570   3.999  12.172
35494SOL    HW1 8256  12.508   3.928  12.154
35494SOL    HW2 8257  12.653   3.969  12.136
35495SOL     OW 8258   4.101   8.942   5.224
35495SOL    HW1 8259   4.160   8.961   5.296
35495SOL    HW2 8260   4.147   8.874   5.173
35496SOL     OW 8261  14.011   0.134   8.915
35496SOL    HW1 8262  14.012   0.139   9.011
35496SOL    HW2 8263  13.948   0.065   8.896
35497SOL     OW 8264   0.096  10.551  14.159
35497SOL    HW1 8265   0.180  10.596  14.165
35497SOL    HW2 8266   0.112  10.477  14.100
35498SOL     OW 8267  13.746  12.240   6.732
35498SOL    HW1 8268  13.689  12.303   6.687
35498SOL    HW2 8269  13.710  12.236   6.821
35499SOL     OW 8270   4.615  11.741  14.018
35499SOL    HW1 8271   4.572  11.731  14.103
35499SOL    HW2 8272   4.682  11.672  14.016
35500SOL     OW 8273   1.795   7.028  12.491
35500SOL    HW1 8274   1.800   7.124  12.486
35500SOL    HW2 8275   1.885   7.001  12.510
35501SOL     OW 8276  13.325   2.111   6.213
35501SOL    HW1 8277  13.250   2.063   6.177
35501SOL    HW2 8278  13.401   2.059   6.187
35502SOL     OW 8279  11.082  11.751   7.184
35502SOL    HW1 8280  11.119  11.681   7.131
35502SOL    HW2 8281  11.033  11.706   7.253
35503SOL     OW 8282   7.869  14.391   2.635
35503SOL    HW1 8283   7.923  14.457   2.679
35503SOL    HW2 8284   7.791  14.439   2.608
35504SOL     OW 8285   9.576  11.927   3.955
35504SOL    HW1 8286   9.604  11.897   4.041
35504SOL    HW2 8287   9.575  12.022   3.962
35505SOL     OW 8288   8.796  11.008  14.175
35505SOL    HW1 8289   8.869  11.060  14.144
35505SOL    HW2 8290   8.740  11.070  14.222
35506SOL     OW 8291  11.840   0.887   1.163
35506SOL    HW1 8292  11.848   0.871   1.069
35506SOL    HW2 8293  11.924   0.859   1.199
35507SOL     OW 8294   6.916   7.789   2.715
35507SOL    HW1 8295   6.974   7.792   2.638
35507SOL    HW2 8296   6.944   7.863   2.769
35508SOL     OW 8297   8.860  14.140   1.433
35508SOL    HW1 8298   8.842  14.096   1.516
35508SOL    HW2 8299   8.956  14.140   1.427
35509SOL     OW 8300   6.535   9.543   7.611
35509SOL    HW1 8301   6.622   9.519   7.579
35509SOL    HW2 8302   6.544   9.546   7.706
35510SOL     OW 8303  13.628   8.330  12.170
35510SOL    HW1 8304  13.591   8.266  12.229
35510SOL    HW2 8305  13.568   8.405  12.175
35511SOL     OW 8306  11.251   0.068  10.323
35511SOL    HW1 8307  11.247  14.850  10.312
35511SOL    HW2 8308  11.265   0.101  10.234
35512SOL     OW 8309   5.600  11.490   2.542
35512SOL    HW1 8310   5.573  11.399   2.533
35512SOL    HW2 8311   5.679  11.497   2.489
35513SOL     OW 8312   4.903   9.660   7.787
35513SOL    HW1 8313   4.938   9.574   7.810
35513SOL    HW2 8314   4.980   9.716   7.779
35514SOL     OW 8315   4.800   2.399   0.851
35514SOL    HW1 8316   4.894   2.388   0.868
35514SOL    HW2 8317   4.796   2.443   0.766
35515SOL     OW 8318   3.811   2.427   6.539
35515SOL    HW1 8319   3.749   2.446   6.469
35515SOL    HW2 8320   3.892   2.402   6.494
35516SOL     OW 8321  13.004   1.643   5.537
35516SOL    HW1 8322  13.012   1.632   5.443
35516SOL    HW2 8323  13.017   1.556   5.574
35517SOL     OW 8324   9.569   8.824   3.806
35517SOL    HW1 8325   9.606   8.781   3.729
35517SOL    HW2 8326   9.638   8.819   3.872
35518SOL     OW 8327   6.326   1.015   3.303
35518SOL    HW1 8328   6.366   1.102   3.305
35518SOL    HW2 8329   6.305   0.997   3.395
35519SOL     OW 8330   3.679  14.846  10.164
35519SOL    HW1 8331   3.684  14.777  10.231
35519SOL    HW2 8332   3.605   0.023  10.192
35520SOL     OW 8333   0.638   8.340   1.471
35520SOL    HW1 8334   0.631   8.331   1.566
35520SOL    HW2 8335   0.713   8.285   1.447
35521SOL     OW 8336  10.129  11.511  13.575
35521SOL    HW1 8337  10.165  11.585  13.625
35521SOL    HW2 8338  10.148  11.533  13.483
35522SOL     OW 8339   3.114  11.046   0.515
35522SOL    HW1 8340   3.116  11.039   0.611
35522SOL    HW2 8341   3.029  11.085   0.496
35523SOL     OW 8342   9.006  11.389  13.892
35523SOL    HW1 8343   9.078  11.353  13.840
35523SOL    HW2 8344   9.047  11.413  13.975
35524SOL     OW 8345   7.670   1.439   2.478
35524SOL    HW1 8346   7.634   1.408   2.396
35524SOL    HW2 8347   7.684   1.533   2.464
35525SOL     OW 8348   9.245   4.733   2.245
35525SOL    HW1 8349   9.334   4.701   2.262
35525SOL    HW2 8350   9.233   4.805   2.307
35526SOL     OW 8351   5.603  13.132  11.047
35526SOL    HW1 8352   5.567  13.198  11.107
35526SOL    HW2 8353   5.566  13.049  11.077
35527SOL     OW 8354   2.196   9.770   6.364
35527SOL    HW1 8355   2.121   9.789   6.421
35527SOL    HW2 8356   2.272   9.772   6.423
35528SOL     OW 8357  10.130   0.223  11.731
35528SOL    HW1 8358  10.056   0.275  11.764
35528SOL    HW2 8359  10.101   0.191  11.646
35529SOL     OW 8360   0.227  14.249   0.334
35529SOL    HW1 8361   0.248  14.222   0.244
35529SOL    HW2 8362   0.305  14.297   0.363
35530SOL     OW 8363   2.140  12.249   0.537
35530SOL    HW1 8364   2.094  12.248   0.622
35530SOL    HW2 8365   2.181  12.163   0.531
35531SOL     OW 8366  11.667   6.644   3.006
35531SOL    HW1 8367  11.608   6.715   2.980
35531SOL    HW2 8368  11.625   6.565   2.972
35532SOL     OW 8369   5.761  12.371   0.058
35532SOL    HW1 8370   5.815  12.392  14.859
35532SOL    HW2 8371   5.821  12.324   0.116
35533SOL     OW 8372  14.479  13.209  11.008
35533SOL    HW1 8373  14.416  13.274  10.976
35533SOL    HW2 8374  14.433  13.125  11.001
35534SOL     OW 8375   0.099  13.662   0.058
35534SOL    HW1 8376   0.105  13.735   0.119
35534SOL    HW2 8377   0.055  13.698  14.858
35535SOL     OW 8378   7.980  11.039  10.569
35535SOL    HW1 8379   7.938  11.078  10.645
35535SOL    HW2 8380   7.911  11.035  10.502
35536SOL     OW 8381   8.958   3.155   1.659
35536SOL    HW1 8382   8.926   3.206   1.585
35536SOL    HW2 8383   8.951   3.064   1.632
35537SOL     OW 8384  11.873   2.632   5.467
35537SOL    HW1 8385  11.965   2.641   5.445
35537SOL    HW2 8386  11.867   2.551   5.517
35538SOL     OW 8387  12.658   6.805   5.937
35538SOL    HW1 8388  12.564   6.808   5.954
35538SOL    HW2 8389  12.687   6.896   5.946
35539SOL     OW 8390  14.672  10.777   0.670
35539SOL    HW1 8391  14.689  10.870   0.682
35539SOL    HW2 8392  14.664  10.765   0.575
35540SOL     OW 8393   4.498   1.525   6.972
35540SOL    HW1 8394   4.558   1.523   7.047
35540SOL    HW2 8395   4.550   1.563   6.901
35541SOL     OW 8396   2.136   3.121  12.420
35541SOL    HW1 8397   2.136   3.144  12.513
35541SOL    HW2 8398   2.152   3.026  12.419
35542SOL     OW 8399   1.065   7.122   1.686
35542SOL    HW1 8400   0.989   7.151   1.738
35542SOL    HW2 8401   1.046   7.030   1.667
35543SOL     OW 8402  13.014   4.975   0.886
35543SOL    HW1 8403  13.036   4.890   0.849
35543SOL    HW2 8404  13.024   5.037   0.813
35544SOL     OW 8405  10.439  12.885   6.853
35544SOL    HW1 8406  10.443  12.979   6.874
35544SOL    HW2 8407  10.346  12.867   6.840
35545SOL     OW 8408   5.230   2.802   9.968
35545SOL    HW1 8409   5.228   2.827   9.876
35545SOL    HW2 8410   5.229   2.706   9.966
35546SOL     OW 8411  10.556   9.427   7.092
35546SOL    HW1 8412  10.617   9.443   7.164
35546SOL    HW2 8413  10.606   9.374   7.029
35547SOL     OW 8414   9.472  13.441  10.097
35547SOL    HW1 8415   9.533  13.419  10.167
35547SOL    HW2 8416   9.500  13.388  10.022
35548SOL     OW 8417  10.062   9.375   8.539
35548SOL    HW1 8418  10.100   9.435   8.475
35548SOL    HW2 8419  10.069   9.289   8.499
35549SOL     OW 8420  13.303  14.153   9.142
35549SOL    HW1 8421  13.299  14.248   9.137
35549SOL    HW2 8422  13.212  14.126   9.150
35550SOL     OW 8423   5.074  14.520   4.303
35550SOL    HW1 8424   5.135  14.560   4.365
35550SOL    HW2 8425   5.020  14.593   4.274
35551SOL     OW 8426   0.304  12.260   8.329
35551SOL    HW1 8427   0.298  12.171   8.294
35551SOL    HW2 8428   0.257  12.314   8.265
35552SOL     OW 8429   7.645   6.955   4.831
35552SOL    HW1 8430   7.667   7.014   4.904
35552SOL    HW2 8431   7.570   6.997   4.789
35553SOL     OW 8432  13.488  14.276   3.829
35553SOL    HW1 8433  13.417  14.217   3.803
35553SOL    HW2 8434  13.446  14.362   3.835
35554SOL     OW 8435  12.256   1.846  11.845
35554SOL    HW1 8436  12.174   1.893  11.859
35554SOL    HW2 8437  12.271   1.799  11.928
35555SOL     OW 8438   7.232   3.749  14.629
35555SOL    HW1 8439   7.160   3.696  14.595
35555SOL    HW2 8440   7.287   3.687  14.678
35556SOL     OW 8441  13.065   3.025   2.015
35556SOL    HW1 8442  13.134   3.091   2.018
35556SOL    HW2 8443  13.007   3.046   2.088
35557SOL     OW 8444  14.292   7.541  13.614
35557SOL    HW1 8445  14.228   7.522  13.684
35557SOL    HW2 8446  14.331   7.456  13.594
35558SOL     OW 8447   2.757   3.044   4.519
35558SOL    HW1 8448   2.796   3.021   4.603
35558SOL    HW2 8449   2.799   3.127   4.495
35559SOL     OW 8450   7.675   6.543   6.735
35559SOL    HW1 8451   7.686   6.517   6.826
35559SOL    HW2 8452   7.733   6.484   6.686
35560SOL     OW 8453  11.984   6.828  13.709
35560SOL    HW1 8454  11.941   6.744  13.692
35560SOL    HW2 8455  11.939   6.863  13.787
35561SOL     OW 8456  11.496   5.444   6.686
35561SOL    HW1 8457  11.493   5.477   6.776
35561SOL    HW2 8458  11.417   5.391   6.677
35562SOL     OW 8459   1.882   3.435   1.650
35562SOL    HW1 8460   1.970   3.466   1.672
35562SOL    HW2 8461   1.837   3.429   1.734
35563SOL     OW 8462   3.634   9.909   8.800
35563SOL    HW1 8463   3.650   9.984   8.743
35563SOL    HW2 8464   3.548   9.878   8.774
35564SOL     OW 8465   4.067   7.728  14.173
35564SOL    HW1 8466   4.134   7.767  14.117
35564SOL    HW2 8467   3.987   7.730  14.119
35565SOL     OW 8468  13.359   2.002  13.951
35565SOL    HW1 8469  13.365   1.994  13.856
35565SOL    HW2 8470  13.276   1.959  13.973
35566SOL     OW 8471   8.323   6.461   5.151
35566SOL    HW1 8472   8.250   6.485   5.209
35566SOL    HW2 8473   8.338   6.539   5.098
35567SOL     OW 8474   0.438  13.602  13.716
35567SOL    HW1 8475   0.412  13.684  13.759
35567SOL    HW2 8476   0.514  13.627  13.664
35568SOL     OW 8477   6.197   8.232   9.516
35568SOL    HW1 8478   6.173   8.168   9.583
35568SOL    HW2 8479   6.256   8.185   9.457
35569SOL     OW 8480   8.914  10.807  12.990
35569SOL    HW1 8481   8.877  10.848  13.069
35569SOL    HW2 8482   8.949  10.881  12.940
35570SOL     OW 8483   5.763   2.973   0.776
35570SOL    HW1 8484   5.695   2.907   0.786
35570SOL    HW2 8485   5.845   2.924   0.782
35571SOL     OW 8486  11.096   1.383   1.627
35571SOL    HW1 8487  11.179   1.399   1.582
35571SOL    HW2 8488  11.109   1.301   1.675
35572SOL     OW 8489   9.851   7.431   7.182
35572SOL    HW1 8490   9.795   7.509   7.184
35572SOL    HW2 8491   9.829   7.384   7.262
35573SOL     OW 8492   9.709   6.563   1.685
35573SOL    HW1 8493   9.680   6.651   1.659
35573SOL    HW2 8494   9.629   6.513   1.694
35574SOL     OW 8495   2.608  11.833   4.198
35574SOL    HW1 8496   2.689  11.797   4.163
35574SOL    HW2 8497   2.634  11.870   4.283
35575SOL     OW 8498   2.487   2.524   8.178
35575SOL    HW1 8499   2.463   2.483   8.261
35575SOL    HW2 8500   2.408   2.569   8.149
35576SOL     OW 8501   1.219   9.709   1.540
35576SOL    HW1 8502   1.160   9.725   1.614
35576SOL    HW2 8503   1.294   9.663   1.579
35577SOL     OW 8504  14.679   7.619   3.563
35577SOL    HW1 8505  14.669   7.536   3.609
35577SOL    HW2 8506  14.678   7.595   3.470
35578SOL     OW 8507   6.963   1.330   8.096
35578SOL    HW1 8508   6.886   1.363   8.051
35578SOL    HW2 8509   6.946   1.346   8.189
35579SOL     OW 8510   8.272   8.178   2.797
35579SOL    HW1 8511   8.347   8.174   2.857
35579SOL    HW2 8512   8.237   8.089   2.797
35580SOL     OW 8513  11.363   7.347   0.824
35580SOL    HW1 8514  11.363   7.426   0.769
35580SOL    HW2 8515  11.391   7.379   0.910
35581SOL     OW 8516   4.952  11.809  14.483
35581SOL    HW1 8517   4.970  11.762  14.564
35581SOL    HW2 8518   4.933  11.740  14.419
35582SOL     OW 8519   0.541   1.293  12.843
35582SOL    HW1 8520   0.483   1.344  12.786
35582SOL    HW2 8521   0.544   1.342  12.925
35583SOL     OW 8522   6.498   9.930  14.360
35583SOL    HW1 8523   6.425   9.930  14.422
35583SOL    HW2 8524   6.524   9.838  14.352
35584SOL     OW 8525   2.512   6.407   8.868
35584SOL    HW1 8526   2.457   6.484   8.883
35584SOL    HW2 8527   2.555   6.424   8.784
35585SOL     OW 8528   9.822   4.999   0.694
35585SOL    HW1 8529   9.844   5.033   0.781
35585SOL    HW2 8530   9.873   4.919   0.687
35586SOL     OW 8531   7.624   9.720   6.117
35586SOL    HW1 8532   7.538   9.696   6.081
35586SOL    HW2 8533   7.604   9.788   6.182
35587SOL     OW 8534  12.579   0.414   4.289
35587SOL    HW1 8535  12.505   0.465   4.322
35587SOL    HW2 8536  12.622   0.473   4.228
35588SOL     OW 8537   2.959   4.613  10.894
35588SOL    HW1 8538   3.044   4.571  10.901
35588SOL    HW2 8539   2.960   4.656  10.809
35589SOL     OW 8540   5.342   9.095   0.006
35589SOL    HW1 8541   5.271   9.142   0.050
35589SOL    HW2 8542   5.408   9.162  14.865
35590SOL     OW 8543   3.631  13.637   9.537
35590SOL    HW1 8544   3.601  13.687   9.613
35590SOL    HW2 8545   3.551  13.623   9.486
35591SOL     OW 8546   0.612  11.254   1.243
35591SOL    HW1 8547   0.574  11.315   1.306
35591SOL    HW2 8548   0.705  11.249   1.266
35592SOL     OW 8549  10.564  10.393  13.230
35592SOL    HW1 8550  10.532  10.463  13.174
35592SOL    HW2 8551  10.583  10.435  13.314
35593SOL     OW 8552   8.145   6.270  13.326
35593SOL    HW1 8553   8.194   6.299  13.403
35593SOL    HW2 8554   8.053   6.278  13.352
35594SOL     OW 8555  12.975   7.717   1.584
35594SOL    HW1 8556  12.944   7.628   1.594
35594SOL    HW2 8557  12.908   7.761   1.532
35595SOL     OW 8558   3.884   9.880   6.089
35595SOL    HW1 8559   3.866   9.902   5.998
35595SOL    HW2 8560   3.972   9.844   6.088
35596SOL     OW 8561   1.627  14.561   4.358
35596SOL    HW1 8562   1.714  14.566   4.318
35596SOL    HW2 8563   1.645  14.547   4.452
35597SOL     OW 8564   5.733  13.403  10.936
35597SOL    HW1 8565   5.697  13.316  10.916
35597SOL    HW2 8566   5.822  13.385  10.966
35598SOL     OW 8567   3.329  13.879   5.338
35598SOL    HW1 8568   3.402  13.837   5.384
35598SOL    HW2 8569   3.358  13.883   5.247
35599SOL     OW 8570  10.073   1.075   5.130
35599SOL    HW1 8571  10.149   1.046   5.081
35599SOL    HW2 8572  10.109   1.117   5.209
35600SOL     OW 8573   0.357  14.825  14.499
35600SOL    HW1 8574   0.312  14.839  14.583
35600SOL    HW2 8575   0.412   0.024  14.488
35601SOL     OW 8576   4.019  12.434   3.951
35601SOL    HW1 8577   3.987  12.497   3.887
35601SOL    HW2 8578   3.970  12.354   3.934
35602SOL     OW 8579   2.389   5.289   9.596
35602SOL    HW1 8580   2.426   5.305   9.683
35602SOL    HW2 8581   2.333   5.213   9.608
35603SOL     OW 8582   9.937   0.915   8.677
35603SOL    HW1 8583   9.910   0.947   8.763
35603SOL    HW2 8584   9.860   0.927   8.621
35604SOL     OW 8585   2.523   1.397  12.044
35604SOL    HW1 8586   2.519   1.382  11.950
35604SOL    HW2 8587   2.606   1.442  12.058
35605SOL     OW 8588   3.451  10.840  14.433
35605SOL    HW1 8589   3.499  10.922  14.446
35605SOL    HW2 8590   3.507  10.773  14.472
35606SOL     OW 8591  12.365   2.007   4.110
35606SOL    HW1 8592  12.357   2.084   4.167
35606SOL    HW2 8593  12.346   2.040   4.022
35607SOL     OW 8594  12.191   4.994   3.195
35607SOL    HW1 8595  12.256   4.924   3.184
35607SOL    HW2 8596  12.239   5.074   3.172
35608SOL     OW 8597   5.581   0.149  14.514
35608SOL    HW1 8598   5.542   0.232  14.487
35608SOL    HW2 8599   5.673   0.158  14.490
35609SOL     OW 8600  13.077   6.261   4.353
35609SOL    HW1 8601  12.985   6.251   4.378
35609SOL    HW2 8602  13.120   6.185   4.391
35610SOL     OW 8603   9.819  14.238   4.775
35610SOL    HW1 8604   9.774  14.183   4.840
35610SOL    HW2 8605   9.849  14.314   4.825
35611SOL     OW 8606  11.054   2.097  10.232
35611SOL    HW1 8607  11.037   2.191  10.230
35611SOL    HW2 8608  11.100   2.079  10.149
35612SOL     OW 8609   4.866   2.325  12.938
35612SOL    HW1 8610   4.799   2.287  12.995
35612SOL    HW2 8611   4.832   2.313  12.849
35613SOL     OW 8612  13.345   8.291   6.022
35613SOL    HW1 8613  13.340   8.197   6.002
35613SOL    HW2 8614  13.433   8.302   6.059
35614SOL     OW 8615   1.442   4.624  14.100
35614SOL    HW1 8616   1.373   4.686  14.125
35614SOL    HW2 8617   1.512   4.679  14.064
35615SOL     OW 8618  14.098   7.886   4.351
35615SOL    HW1 8619  14.035   7.815   4.339
35615SOL    HW2 8620  14.139   7.897   4.265
35616SOL     OW 8621   8.428   5.009   2.205
35616SOL    HW1 8622   8.434   5.011   2.300
35616SOL    HW2 8623   8.500   4.951   2.178
35617SOL     OW 8624  12.574   8.593   4.100
35617SOL    HW1 8625  12.544   8.503   4.084
35617SOL    HW2 8626  12.505   8.648   4.063
35618SOL     OW 8627   3.585   1.063   1.225
35618SOL    HW1 8628   3.567   1.012   1.146
35618SOL    HW2 8629   3.647   1.009   1.274
35619SOL     OW 8630   0.037   4.488   5.024
35619SOL    HW1 8631  14.856   4.416   5.047
35619SOL    HW2 8632  14.875   4.566   5.063
35620SOL     OW 8633   4.235  12.851   2.302
35620SOL    HW1 8634   4.320  12.854   2.346
35620SOL    HW2 8635   4.173  12.826   2.370
35621SOL     OW 8636  12.605   5.539  12.335
35621SOL    HW1 8637  12.649   5.523  12.419
35621SOL    HW2 8638  12.519   5.572  12.360
35622SOL     OW 8639   6.715  12.489  11.860
35622SOL    HW1 8640   6.676  12.405  11.834
35622SOL    HW2 8641   6.720  12.485  11.956
35623SOL     OW 8642   5.228   3.164  14.015
35623SOL    HW1 8643   5.196   3.135  14.100
35623SOL    HW2 8644   5.307   3.214  14.033
35624SOL     OW 8645   9.130   4.482   1.979
35624SOL    HW1 8646   9.213   4.463   2.024
35624SOL    HW2 8647   9.141   4.444   1.892
35625SOL     OW 8648   0.972  10.620   7.675
35625SOL    HW1 8649   0.977  10.610   7.770
35625SOL    HW2 8650   1.011  10.705   7.657
35626SOL     OW 8651   3.595  12.104  14.217
35626SOL    HW1 8652   3.639  12.161  14.280
35626SOL    HW2 8653   3.628  12.132  14.132
35627SOL     OW 8654   1.646   1.272  13.934
35627SOL    HW1 8655   1.734   1.245  13.909
35627SOL    HW2 8656   1.598   1.190  13.947
35628SOL     OW 8657   2.496   7.469   3.739
35628SOL    HW1 8658   2.402   7.480   3.722
35628SOL    HW2 8659   2.530   7.558   3.746
35629SOL     OW 8660  13.950   6.294   2.127
35629SOL    HW1 8661  13.892   6.269   2.055
35629SOL    HW2 8662  14.037   6.263   2.099
35630SOL     OW 8663   3.323   7.076   7.000
35630SOL    HW1 8664   3.250   7.019   6.977
35630SOL    HW2 8665   3.401   7.028   6.974
35631SOL     OW 8666   2.401   1.743   9.037
35631SOL    HW1 8667   2.346   1.820   9.024
35631SOL    HW2 8668   2.414   1.707   8.949
35632SOL     OW 8669   9.992   7.628  14.705
35632SOL    HW1 8670   9.899   7.652  14.713
35632SOL    HW2 8671  10.015   7.651  14.615
35633SOL     OW 8672  12.198   9.836   2.465
35633SOL    HW1 8673  12.144   9.903   2.424
35633SOL    HW2 8674  12.265   9.884   2.513
35634SOL     OW 8675  12.031   2.501  10.197
35634SOL    HW1 8676  12.124   2.482  10.208
35634SOL    HW2 8677  12.028   2.583  10.149
35635SOL     OW 8678   0.950   5.829   2.759
35635SOL    HW1 8679   0.976   5.805   2.670
35635SOL    HW2 8680   0.987   5.917   2.772
35636SOL     OW 8681   3.997  12.221  11.008
35636SOL    HW1 8682   4.090  12.245  11.004
35636SOL    HW2 8683   3.972  12.237  11.099
35637SOL     OW 8684   9.750   6.790   5.326
35637SOL    HW1 8685   9.671   6.813   5.374
35637SOL    HW2 8686   9.773   6.702   5.358
35638SOL     OW 8687   0.765  13.277   1.489
35638SOL    HW1 8688   0.829  13.216   1.452
35638SOL    HW2 8689   0.683  13.256   1.443
35639SOL     OW 8690   8.383   2.147   2.608
35639SOL    HW1 8691   8.395   2.210   2.537
35639SOL    HW2 8692   8.337   2.196   2.676
35640SOL     OW 8693  10.308  14.473  14.537
35640SOL    HW1 8694  10.374  14.489  14.469
35640SOL    HW2 8695  10.357  14.473  14.619
35641SOL     OW 8696   0.426   4.964  13.804
35641SOL    HW1 8697   0.485   5.039  13.813
35641SOL    HW2 8698   0.389   4.951  13.891
35642SOL     OW 8699  10.667   5.250   3.035
35642SOL    HW1 8700  10.586   5.294   3.009
35642SOL    HW2 8701  10.693   5.198   2.959
35643SOL     OW 8702   9.017  13.227  14.241
35643SOL    HW1 8703   9.106  13.239  14.207
35643SOL    HW2 8704   9.018  13.271  14.325
35644SOL     OW 8705   5.203  12.779  13.900
35644SOL    HW1 8706   5.143  12.720  13.854
35644SOL    HW2 8707   5.147  12.851  13.929
35645SOL     OW 8708   4.002   9.151   1.804
35645SOL    HW1 8709   4.025   9.058   1.811
35645SOL    HW2 8710   3.916   9.158   1.845
35646SOL     OW 8711  14.417  10.279  10.368
35646SOL    HW1 8712  14.475  10.349  10.399
35646SOL    HW2 8713  14.467  10.236  10.299
35647SOL     OW 8714  11.515   0.501   4.446
35647SOL    HW1 8715  11.592   0.550   4.419
35647SOL    HW2 8716  11.546   0.411   4.456
35648SOL     OW 8717  13.461  14.806  13.234
35648SOL    HW1 8718  13.383  14.836  13.187
35648SOL    HW2 8719  13.456  14.711  13.232
35649SOL     OW 8720   6.887   4.045   8.386
35649SOL    HW1 8721   6.805   4.087   8.410
35649SOL    HW2 8722   6.866   3.998   8.305
35650SOL     OW 8723   4.515   5.353   9.066
35650SOL    HW1 8724   4.505   5.328   9.158
35650SOL    HW2 8725   4.431   5.392   9.042
35651SOL     OW 8726  13.095   0.692   5.148
35651SOL    HW1 8727  13.173   0.743   5.169
35651SOL    HW2 8728  13.084   0.633   5.223
35652SOL     OW 8729   5.154   3.192   0.356
35652SOL    HW1 8730   5.186   3.189   0.446
35652SOL    HW2 8731   5.059   3.192   0.364
35653SOL     OW 8732  12.187   9.575   4.213
35653SOL    HW1 8733  12.103   9.578   4.258
35653SOL    HW2 8734  12.230   9.657   4.236
35654SOL     OW 8735   4.213   2.201   7.453
35654SOL    HW1 8736   4.274   2.160   7.391
35654SOL    HW2 8737   4.193   2.287   7.415
35655SOL     OW 8738   6.093   9.806   5.066
35655SOL    HW1 8739   6.114   9.898   5.074
35655SOL    HW2 8740   6.028   9.802   4.996
35656SOL     OW 8741   5.859   7.331   8.241
35656SOL    HW1 8742   5.903   7.322   8.156
35656SOL    HW2 8743   5.848   7.241   8.271
35657SOL     OW 8744  11.714   3.710   6.187
35657SOL    HW1 8745  11.624   3.681   6.205
35657SOL    HW2 8746  11.737   3.763   6.264
35658SOL     OW 8747   5.521   5.070   2.206
35658SOL    HW1 8748   5.546   5.105   2.292
35658SOL    HW2 8749   5.599   5.079   2.152
35659SOL     OW 8750  14.110  14.529   3.937
35659SOL    HW1 8751  14.188  14.523   3.992
35659SOL    HW2 8752  14.038  14.501   3.995
35660SOL     OW 8753   3.660   4.682  10.787
35660SOL    HW1 8754   3.671   4.768  10.745
35660SOL    HW2 8755   3.704   4.621  10.728
35661SOL     OW 8756  13.162  12.958  14.544
35661SOL    HW1 8757  13.153  12.944  14.450
35661SOL    HW2 8758  13.251  12.990  14.555
35662SOL     OW 8759   4.743   7.288   4.061
35662SOL    HW1 8760   4.649   7.270   4.065
35662SOL    HW2 8761   4.783   7.201   4.053
35663SOL     OW 8762  12.210  14.419   7.644
35663SOL    HW1 8763  12.276  14.477   7.682
35663SOL    HW2 8764  12.206  14.345   7.705
35664SOL     OW 8765   3.803  12.049  10.924
35664SOL    HW1 8766   3.869  12.118  10.932
35664SOL    HW2 8767   3.841  11.974  10.970
35665SOL     OW 8768   5.253   8.050   3.174
35665SOL    HW1 8769   5.213   8.073   3.258
35665SOL    HW2 8770   5.342   8.087   3.180
35666SOL     OW 8771  14.361  12.014  14.499
35666SOL    HW1 8772  14.342  11.955  14.426
35666SOL    HW2 8773  14.275  12.033  14.537
35667SOL     OW 8774  14.104   3.996  12.274
35667SOL    HW1 8775  14.075   4.044  12.197
35667SOL    HW2 8776  14.065   4.042  12.348
35668SOL     OW 8777   9.111  14.701   4.949
35668SOL    HW1 8778   9.106  14.627   5.010
35668SOL    HW2 8779   9.154  14.665   4.871
35669SOL     OW 8780   5.732   6.467   7.692
35669SOL    HW1 8781   5.807   6.523   7.711
35669SOL    HW2 8782   5.675   6.521   7.637
35670SOL     OW 8783   5.340   4.331  13.237
35670SOL    HW1 8784   5.272   4.391  13.267
35670SOL    HW2 8785   5.422   4.380  13.250
35671SOL     OW 8786  10.719   6.254  12.423
35671SOL    HW1 8787  10.760   6.171  12.399
35671SOL    HW2 8788  10.735   6.263  12.517
35672SOL     OW 8789  12.511  11.179   1.843
35672SOL    HW1 8790  12.540  11.089   1.854
35672SOL    HW2 8791  12.539  11.223   1.923
35673SOL     OW 8792   6.391   5.269   0.922
35673SOL    HW1 8793   6.411   5.177   0.942
35673SOL    HW2 8794   6.436   5.285   0.839
35674SOL     OW 8795  11.830  14.140  13.818
35674SOL    HW1 8796  11.912  14.128  13.865
35674SOL    HW2 8797  11.843  14.098  13.733
35675SOL     OW 8798   0.789   9.999   5.458
35675SOL    HW1 8799   0.838  10.023   5.537
35675SOL    HW2 8800   0.777   9.904   5.466
35676SOL     OW 8801  13.686   7.237   9.395
35676SOL    HW1 8802  13.740   7.307   9.360
35676SOL    HW2 8803  13.645   7.275   9.473
35677SOL     OW 8804  13.113   6.671   3.827
35677SOL    HW1 8805  13.024   6.694   3.853
35677SOL    HW2 8806  13.155   6.755   3.808
35678SOL     OW 8807   0.145   7.849   5.752
35678SOL    HW1 8808   0.049   7.851   5.750
35678SOL    HW2 8809   0.165   7.784   5.819
35679SOL     OW 8810   1.743   0.271   5.753
35679SOL    HW1 8811   1.836   0.296   5.749
35679SOL    HW2 8812   1.731   0.210   5.680
35680SOL     OW 8813  13.060  12.348  11.790
35680SOL    HW1 8814  13.034  12.278  11.849
35680SOL    HW2 8815  13.119  12.403  11.843
35681SOL     OW 8816   9.330  14.823   5.772
35681SOL    HW1 8817   9.286  14.841   5.689
35681SOL    HW2 8818   9.405   0.005   5.773
35682SOL     OW 8819   9.207   0.489   8.945
35682SOL    HW1 8820   9.247   0.443   9.019
35682SOL    HW2 8821   9.222   0.581   8.963
35683SOL     OW 8822   2.218   2.244   2.398
35683SOL    HW1 8823   2.239   2.174   2.460
35683SOL    HW2 8824   2.130   2.225   2.368
35684SOL     OW 8825  13.127   1.523  10.935
35684SOL    HW1 8826  13.064   1.508  10.865
35684SOL    HW2 8827  13.098   1.604  10.977
35685SOL     OW 8828  14.320   9.813   3.182
35685SOL    HW1 8829  14.286   9.889   3.136
35685SOL    HW2 8830  14.404   9.795   3.140
35686SOL     OW 8831   9.145   3.479   5.508
35686SOL    HW1 8832   9.207   3.540   5.466
35686SOL    HW2 8833   9.200   3.421   5.561
35687SOL     OW 8834  13.014  11.644   9.758
35687SOL    HW1 8835  13.013  11.718   9.697
35687SOL    HW2 8836  12.925  11.642   9.793
35688SOL     OW 8837   2.390  12.280   1.197
35688SOL    HW1 8838   2.365  12.191   1.222
35688SOL    HW2 8839   2.319  12.310   1.140
35689SOL     OW 8840   8.296   4.387  10.100
35689SOL    HW1 8841   8.228   4.421  10.042
35689SOL    HW2 8842   8.366   4.358  10.042
35690SOL     OW 8843  11.207   9.992   4.299
35690SOL    HW1 8844  11.271  10.027   4.361
35690SOL    HW2 8845  11.221  10.042   4.218
35691SOL     OW 8846   4.078  10.500   2.579
35691SOL    HW1 8847   4.005  10.439   2.590
35691SOL    HW2 8848   4.068  10.534   2.490
35692SOL     OW 8849   4.976   6.049   1.733
35692SOL    HW1 8850   5.054   6.103   1.742
35692SOL    HW2 8851   5.007   5.960   1.745
35693SOL     OW 8852  14.166   4.077   1.307
35693SOL    HW1 8853  14.227   4.003   1.298
35693SOL    HW2 8854  14.196   4.141   1.243
35694SOL     OW 8855  11.866  13.553  14.057
35694SOL    HW1 8856  11.777  13.542  14.023
35694SOL    HW2 8857  11.917  13.487  14.012
35695SOL     OW 8858   9.888   4.709  11.283
35695SOL    HW1 8859   9.931   4.731  11.201
35695SOL    HW2 8860   9.845   4.791  11.310
35696SOL     OW 8861  12.167   2.884   0.237
35696SOL    HW1 8862  12.254   2.856   0.268
35696SOL    HW2 8863  12.156   2.837   0.154
35697SOL     OW 8864   6.847   9.373  10.678
35697SOL    HW1 8865   6.789   9.370  10.602
35697SOL    HW2 8866   6.904   9.297  10.668
35698SOL     OW 8867   9.689  11.957   6.546
35698SOL    HW1 8868   9.701  11.903   6.468
35698SOL    HW2 8869   9.743  11.916   6.613
35699SOL     OW 8870   4.306   7.406   1.625
35699SOL    HW1 8871   4.307   7.457   1.544
35699SOL    HW2 8872   4.236   7.342   1.612
35700SOL     OW 8873   6.558   7.730   0.674
35700SOL    HW1 8874   6.649   7.747   0.700
35700SOL    HW2 8875   6.544   7.789   0.600
35701SOL     OW 8876  12.169  12.684   2.450
35701SOL    HW1 8877  12.253  12.716   2.420
35701SOL    HW2 8878  12.134  12.635   2.375
35702SOL     OW 8879  11.718   9.346   3.584
35702SOL    HW1 8880  11.695   9.277   3.646
35702SOL    HW2 8881  11.729   9.424   3.638
35703SOL     OW 8882   2.340   1.910   1.459
35703SOL    HW1 8883   2.402   1.905   1.533
35703SOL    HW2 8884   2.280   1.980   1.484
35704SOL     OW 8885   9.070  10.140   2.479
35704SOL    HW1 8886   9.008  10.069   2.460
35704SOL    HW2 8887   9.144  10.096   2.521
35705SOL     OW 8888   9.921   9.716  10.196
35705SOL    HW1 8889   9.844   9.767  10.169
35705SOL    HW2 8890   9.919   9.718  10.292
35706SOL     OW 8891  12.346   2.746  10.920
35706SOL    HW1 8892  12.441   2.759  10.925
35706SOL    HW2 8893  12.324   2.767  10.829
35707SOL     OW 8894  11.588  12.398   1.532
35707SOL    HW1 8895  11.518  12.341   1.563
35707SOL    HW2 8896  11.618  12.358   1.450
35708SOL     OW 8897   8.055   3.697   9.434
35708SOL    HW1 8898   7.998   3.727   9.364
35708SOL    HW2 8899   8.132   3.662   9.389
35709SOL     OW 8900   9.916   5.240   4.680
35709SOL    HW1 8901   9.963   5.203   4.605
35709SOL    HW2 8902   9.946   5.331   4.685
35710SOL     OW 8903   8.613  12.324  11.720
35710SOL    HW1 8904   8.586  12.389  11.784
35710SOL    HW2 8905   8.592  12.363  11.635
35711SOL     OW 8906   1.574  14.581   9.366
35711SOL    HW1 8907   1.619  14.657   9.402
35711SOL    HW2 8908   1.605  14.576   9.275
35712SOL     OW 8909  14.574  10.133  14.691
35712SOL    HW1 8910  14.657  10.181  14.695
35712SOL    HW2 8911  14.577  10.074  14.766
35713SOL     OW 8912   2.190  10.865   2.800
35713SOL    HW1 8913   2.179  10.947   2.848
35713SOL    HW2 8914   2.167  10.797   2.864
35714SOL     OW 8915   1.944   4.342   7.750
35714SOL    HW1 8916   1.910   4.254   7.763
35714SOL    HW2 8917   1.968   4.345   7.657
35715SOL     OW 8918  10.062  14.236  12.157
35715SOL    HW1 8919  10.004  14.241  12.233
35715SOL    HW2 8920  10.141  14.282  12.184
35716SOL     OW 8921   4.316  12.061   5.451
35716SOL    HW1 8922   4.226  12.042   5.478
35716SOL    HW2 8923   4.306  12.118   5.375
35717SOL     OW 8924   6.814  12.275  10.422
35717SOL    HW1 8925   6.887  12.336  10.432
35717SOL    HW2 8926   6.802  12.238  10.509
35718SOL     OW 8927   8.539   5.082   9.955
35718SOL    HW1 8928   8.500   5.157   9.910
35718SOL    HW2 8929   8.597   5.043   9.889
35719SOL     OW 8930   3.164   6.155   7.695
35719SOL    HW1 8931   3.166   6.248   7.717
35719SOL    HW2 8932   3.087   6.145   7.639
35720SOL     OW 8933   1.367   4.494   8.416
35720SOL    HW1 8934   1.307   4.474   8.345
35720SOL    HW2 8935   1.412   4.412   8.433
35721SOL     OW 8936   8.620   4.421   7.399
35721SOL    HW1 8937   8.704   4.398   7.360
35721SOL    HW2 8938   8.635   4.508   7.437
35722SOL     OW 8939   1.029   5.525   0.064
35722SOL    HW1 8940   0.941   5.491   0.075
35722SOL    HW2 8941   1.058   5.489  14.857
35723SOL     OW 8942   2.608  13.880   3.902
35723SOL    HW1 8943   2.573  13.925   3.980
35723SOL    HW2 8944   2.651  13.949   3.852
35724SOL     OW 8945   7.700   4.470  10.095
35724SOL    HW1 8946   7.609   4.492  10.112
35724SOL    HW2 8947   7.750   4.531  10.149
35725SOL     OW 8948   7.912   1.907   9.305
35725SOL    HW1 8949   7.887   1.956   9.227
35725SOL    HW2 8950   7.909   1.815   9.277
35726SOL     OW 8951   6.815   6.554  13.250
35726SOL    HW1 8952   6.910   6.542  13.259
35726SOL    HW2 8953   6.806   6.618  13.180
35727SOL     OW 8954  10.074   8.726   5.124
35727SOL    HW1 8955  10.061   8.656   5.189
35727SOL    HW2 8956  10.048   8.806   5.170
35728SOL     OW 8957   6.357  10.401   3.023
35728SOL    HW1 8958   6.286  10.465   3.029
35728SOL    HW2 8959   6.330  10.341   2.954
35729SOL     OW 8960   2.604  13.602  14.264
35729SOL    HW1 8961   2.661  13.674  14.238
35729SOL    HW2 8962   2.590  13.551  14.185
35730SOL     OW 8963  12.898   4.329  11.869
35730SOL    HW1 8964  12.967   4.266  11.847
35730SOL    HW2 8965  12.821   4.299  11.821
35731SOL     OW 8966  11.875   7.651  12.433
35731SOL    HW1 8967  11.820   7.594  12.381
35731SOL    HW2 8968  11.965   7.627  12.409
35732SOL     OW 8969  12.706   9.160   5.307
35732SOL    HW1 8970  12.729   9.068   5.298
35732SOL    HW2 8971  12.785   9.202   5.340
35733SOL     OW 8972   1.483   6.694   9.423
35733SOL    HW1 8973   1.438   6.707   9.507
35733SOL    HW2 8974   1.412   6.683   9.360
35734SOL     OW 8975   1.877   8.295  10.126
35734SOL    HW1 8976   1.924   8.366  10.170
35734SOL    HW2 8977   1.788   8.300  10.162
35735SOL     OW 8978   0.108  10.665   0.570
35735SOL    HW1 8979   0.018  10.634   0.583
35735SOL    HW2 8980   0.160  10.585   0.564
35736SOL     OW 8981  11.613   6.170   9.040
35736SOL    HW1 8982  11.590   6.240   8.978
35736SOL    HW2 8983  11.706   6.182   9.056
35737SOL     OW 8984   3.427   4.643  11.575
35737SOL    HW1 8985   3.464   4.606  11.494
35737SOL    HW2 8986   3.419   4.736  11.557
35738SOL     OW 8987   9.560   3.631  12.195
35738SOL    HW1 8988   9.591   3.699  12.255
35738SOL    HW2 8989   9.569   3.550  12.244
35739SOL     OW 8990  14.680   9.611  11.798
35739SOL    HW1 8991  14.767   9.571  11.809
35739SOL    HW2 8992  14.632   9.549  11.743
35740SOL     OW 8993  12.804   5.862  10.979
35740SOL    HW1 8994  12.837   5.948  11.003
35740SOL    HW2 8995  12.873   5.824  10.925
35741SOL     OW 8996   5.469   6.450   2.411
35741SOL    HW1 8997   5.459   6.462   2.316
35741SOL    HW2 8998   5.493   6.537   2.443
35742SOL     OW 8999   0.343   5.321   3.371
35742SOL    HW1 9000   0.423   5.337   3.321
35742SOL    HW2 9001   0.352   5.231   3.403
35743SOL     OW 9002   9.799   7.943   0.602
35743SOL    HW1 9003   9.725   8.002   0.587
35743SOL    HW2 9004   9.759   7.858   0.618
35744SOL     OW 9005   2.684   5.709   0.021
35744SOL    HW1 9006   2.605   5.676   0.063
35744SOL    HW2 9007   2.687   5.664  14.814
35745SOL     OW 9008   1.947   0.654  14.390
35745SOL    HW1 9009   1.997   0.647  14.472
35745SOL    HW2 9010   1.947   0.565  14.355
35746SOL     OW 9011  10.243  10.074  11.325
35746SOL    HW1 9012  10.284  10.031  11.400
35746SOL    HW2 9013  10.247  10.009  11.254
35747SOL     OW 9014   2.104   1.986   6.230
35747SOL    HW1 9015   2.084   1.911   6.173
35747SOL    HW2 9016   2.083   2.062   6.176
35748SOL     OW 9017  10.171   1.514   9.907
35748SOL    HW1 9018  10.242   1.530   9.969
35748SOL    HW2 9019  10.128   1.435   9.939
35749SOL     OW 9020  12.044  11.408   6.908
35749SOL    HW1 9021  11.962  11.360   6.917
35749SOL    HW2 9022  12.091  11.363   6.838
35750SOL     OW 9023  12.524  10.229  10.816
35750SOL    HW1 9024  12.576  10.184  10.749
35750SOL    HW2 9025  12.567  10.207  10.899
35751SOL     OW 9026   6.547   0.371  13.805
35751SOL    HW1 9027   6.643   0.365  13.807
35751SOL    HW2 9028   6.527   0.414  13.721
35752SOL     OW 9029  13.799  10.536   9.590
35752SOL    HW1 9030  13.749  10.558   9.511
35752SOL    HW2 9031  13.763  10.593   9.657
35753SOL     OW 9032   5.463  11.267  14.807
35753SOL    HW1 9033   5.392  11.213  14.841
35753SOL    HW2 9034   5.422  11.318  14.737
35754SOL     OW 9035   7.346   5.120  13.279
35754SOL    HW1 9036   7.262   5.100  13.320
35754SOL    HW2 9037   7.393   5.172  13.344
35755SOL     OW 9038   3.558  14.008   0.833
35755SOL    HW1 9039   3.584  13.945   0.765
35755SOL    HW2 9040   3.601  13.977   0.912
35756SOL     OW 9041   1.560   3.072   4.299
35756SOL    HW1 9042   1.607   2.995   4.332
35756SOL    HW2 9043   1.515   3.040   4.221
35757SOL     OW 9044   3.547  12.907   2.236
35757SOL    HW1 9045   3.513  12.993   2.262
35757SOL    HW2 9046   3.541  12.854   2.315
35758SOL     OW 9047   2.025   8.303   1.827
35758SOL    HW1 9048   2.064   8.244   1.891
35758SOL    HW2 9049   1.943   8.331   1.867
35759SOL     OW 9050   6.474  12.740   3.359
35759SOL    HW1 9051   6.438  12.689   3.432
35759SOL    HW2 9052   6.472  12.680   3.285
35760SOL     OW 9053   4.413  12.938   0.729
35760SOL    HW1 9054   4.436  12.850   0.758
35760SOL    HW2 9055   4.490  12.992   0.752
35761SOL     OW 9056   0.283   3.309  11.457
35761SOL    HW1 9057   0.207   3.367  11.462
35761SOL    HW2 9058   0.299   3.282  11.548
35762SOL     OW 9059   9.240   2.646  11.615
35762SOL    HW1 9060   9.320   2.605  11.648
35762SOL    HW2 9061   9.176   2.634  11.685
35763SOL     OW 9062  13.361   9.640   7.050
35763SOL    HW1 9063  13.301   9.590   6.995
35763SOL    HW2 9064  13.442   9.588   7.050
35764SOL     OW 9065   0.230  14.809   0.442
35764SOL    HW1 9066   0.226   0.011   0.390
35764SOL    HW2 9067   0.182  14.744   0.392
35765SOL     OW 9068  13.090  14.159  13.445
35765SOL    HW1 9069  12.998  14.144  13.422
35765SOL    HW2 9070  13.087  14.227  13.512
35766SOL     OW 9071   5.171   8.219   4.196
35766SOL    HW1 9072   5.176   8.155   4.125
35766SOL    HW2 9073   5.077   8.226   4.215
35767SOL     OW 9074   5.931   6.435  12.632
35767SOL    HW1 9075   5.862   6.454  12.696
35767SOL    HW2 9076   5.973   6.519  12.616
35768SOL     OW 9077   4.459   8.760   5.817
35768SOL    HW1 9078   4.538   8.806   5.791
35768SOL    HW2 9079   4.388   8.820   5.793
35769SOL     OW 9080  10.739  10.836  10.149
35769SOL    HW1 9081  10.731  10.747  10.185
35769SOL    HW2 9082  10.736  10.893  10.226
35770SOL     OW 9083   3.758  10.126   5.282
35770SOL    HW1 9084   3.753  10.136   5.187
35770SOL    HW2 9085   3.688  10.064   5.303
35771SOL     OW 9086   2.567   8.311   0.608
35771SOL    HW1 9087   2.592   8.402   0.592
35771SOL    HW2 9088   2.650   8.265   0.621
35772SOL     OW 9089   0.122   0.968   4.575
35772SOL    HW1 9090   0.211   0.996   4.597
35772SOL    HW2 9091   0.124   0.873   4.584
35773SOL     OW 9092   5.448  14.257   9.220
35773SOL    HW1 9093   5.395  14.224   9.147
35773SOL    HW2 9094   5.417  14.208   9.296
35774SOL     OW 9095  11.050  12.866   4.445
35774SOL    HW1 9096  11.089  12.796   4.392
35774SOL    HW2 9097  11.010  12.925   4.381
35775SOL     OW 9098   8.055  10.085   1.667
35775SOL    HW1 9099   8.096  10.009   1.708
35775SOL    HW2 9100   8.022  10.138   1.740
35776SOL     OW 9101  11.500   7.650   6.015
35776SOL    HW1 9102  11.544   7.689   5.940
35776SOL    HW2 9103  11.406   7.658   5.994
35777SOL     OW 9104   0.309  12.202   6.102
35777SOL    HW1 9105   0.387  12.249   6.132
35777SOL    HW2 9106   0.336  12.161   6.020
35778SOL     OW 9107   7.306   0.876   6.711
35778SOL    HW1 9108   7.261   0.793   6.724
35778SOL    HW2 9109   7.345   0.897   6.796
35779SOL     OW 9110  13.356   3.892  10.889
35779SOL    HW1 9111  13.341   3.973  10.938
35779SOL    HW2 9112  13.274   3.877  10.843
35780SOL     OW 9113   1.456   2.531   3.739
35780SOL    HW1 9114   1.424   2.619   3.718
35780SOL    HW2 9115   1.530   2.518   3.680
35781SOL     OW 9116   3.049   3.811  10.260
35781SOL    HW1 9117   2.996   3.731  10.256
35781SOL    HW2 9118   3.044   3.838  10.352
35782SOL     OW 9119  10.010  11.318   9.660
35782SOL    HW1 9120  10.068  11.280   9.727
35782SOL    HW2 9121  10.069  11.360   9.598
35783SOL     OW 9122   5.757   5.652  12.913
35783SOL    HW1 9123   5.750   5.670  12.819
35783SOL    HW2 9124   5.667   5.636  12.941
35784SOL     OW 9125  10.389   4.737   0.012
35784SOL    HW1 9126  10.323   4.778  14.833
35784SOL    HW2 9127  10.450   4.808   0.033
35785SOL     OW 9128  11.657   3.570   6.543
35785SOL    HW1 9129  11.608   3.492   6.517
35785SOL    HW2 9130  11.619   3.594   6.628
35786SOL     OW 9131   6.725   8.897   1.525
35786SOL    HW1 9132   6.666   8.829   1.491
35786SOL    HW2 9133   6.769   8.931   1.447
35787SOL     OW 9134  10.303   6.897  13.100
35787SOL    HW1 9135  10.337   6.902  13.189
35787SOL    HW2 9136  10.290   6.988  13.074
35788SOL     OW 9137  11.497  11.131   9.002
35788SOL    HW1 9138  11.480  11.196   8.934
35788SOL    HW2 9139  11.553  11.066   8.959
35789SOL     OW 9140   1.110  12.287   2.716
35789SOL    HW1 9141   1.052  12.212   2.703
35789SOL    HW2 9142   1.156  12.296   2.633
35790SOL     OW 9143   8.289   6.507  10.578
35790SOL    HW1 9144   8.385   6.511  10.583
35790SOL    HW2 9145   8.259   6.527  10.667
35791SOL     OW 9146   7.464   3.364   6.623
35791SOL    HW1 9147   7.382   3.358   6.672
35791SOL    HW2 9148   7.454   3.441   6.568
35792SOL     OW 9149   8.432   5.685   1.058
35792SOL    HW1 9150   8.375   5.691   0.981
35792SOL    HW2 9151   8.466   5.773   1.069
35793SOL     OW 9152  12.390   9.253   4.775
35793SOL    HW1 9153  12.363   9.336   4.735
35793SOL    HW2 9154  12.461   9.221   4.719
35794SOL     OW 9155   8.210   1.792   3.853
35794SOL    HW1 9156   8.201   1.758   3.764
35794SOL    HW2 9157   8.137   1.855   3.862
35795SOL     OW 9158   7.862  14.412   0.921
35795SOL    HW1 9159   7.904  14.473   0.860
35795SOL    HW2 9160   7.776  14.394   0.881
35796SOL     OW 9161   6.663  11.029   9.232
35796SOL    HW1 9162   6.711  11.045   9.151
35796SOL    HW2 9163   6.712  10.958   9.275
35797SOL     OW 9164  12.139   4.751  14.225
35797SOL    HW1 9165  12.177   4.833  14.195
35797SOL    HW2 9166  12.198   4.683  14.193
35798SOL     OW 9167   1.691  12.113  11.683
35798SOL    HW1 9168   1.728  12.080  11.765
35798SOL    HW2 9169   1.765  12.149  11.635
35799SOL     OW 9170   0.571   1.754   4.727
35799SOL    HW1 9171   0.618   1.688   4.676
35799SOL    HW2 9172   0.523   1.703   4.793
35800SOL     OW 9173   3.677  10.733   8.038
35800SOL    HW1 9174   3.647  10.821   8.062
35800SOL    HW2 9175   3.706  10.694   8.121
35801SOL     OW 9176   6.427   8.618   3.522
35801SOL    HW1 9177   6.419   8.579   3.435
35801SOL    HW2 9178   6.501   8.678   3.516
35802SOL     OW 9179   3.351   3.777   8.667
35802SOL    HW1 9180   3.441   3.769   8.634
35802SOL    HW2 9181   3.339   3.698   8.721
35803SOL     OW 9182   2.221   5.027   0.261
35803SOL    HW1 9183   2.277   4.960   0.301
35803SOL    HW2 9184   2.259   5.110   0.292
35804SOL     OW 9185   1.114   5.511   1.728
35804SOL    HW1 9186   1.054   5.566   1.677
35804SOL    HW2 9187   1.196   5.512   1.679
35805SOL     OW 9188   8.557   8.170  14.769
35805SOL    HW1 9189   8.561   8.198  14.861
35805SOL    HW2 9190   8.649   8.160  14.743
35806SOL     OW 9191  14.126   1.868  10.694
35806SOL    HW1 9192  14.031   1.858  10.702
35806SOL    HW2 9193  14.138   1.925  10.619
35807SOL     OW 9194  10.738  11.776  10.272
35807SOL    HW1 9195  10.690  11.707  10.318
35807SOL    HW2 9196  10.782  11.731  10.201
35808SOL     OW 9197  11.600   9.545   4.005
35808SOL    HW1 9198  11.523   9.590   3.972
35808SOL    HW2 9199  11.589   9.545   4.100
35809SOL     OW 9200   5.747   4.453   5.040
35809SOL    HW1 9201   5.720   4.363   5.021
35809SOL    HW2 9202   5.702   4.506   4.973
35810SOL     OW 9203   4.400  14.448  10.182
35810SOL    HW1 9204   4.357  14.366  10.207
35810SOL    HW2 9205   4.364  14.514  10.242
35811SOL     OW 9206   8.138   1.381  10.649
35811SOL    HW1 9207   8.179   1.298  10.677
35811SOL    HW2 9208   8.121   1.369  10.556
35812SOL     OW 9209  12.746   7.603   5.716
35812SOL    HW1 9210  12.746   7.514   5.750
35812SOL    HW2 9211  12.803   7.651   5.776
35813SOL     OW 9212  11.926   9.347  10.330
35813SOL    HW1 9213  11.934   9.285  10.402
35813SOL    HW2 9214  11.941   9.433  10.370
35814SOL     OW 9215   4.769   7.862  10.756
35814SOL    HW1 9216   4.796   7.803  10.827
35814SOL    HW2 9217   4.719   7.930  10.801
35815SOL     OW 9218   6.670   2.080   4.405
35815SOL    HW1 9219   6.621   2.132   4.469
35815SOL    HW2 9220   6.740   2.139   4.375
35816SOL     OW 9221   7.749  12.255   1.803
35816SOL    HW1 9222   7.841  12.239   1.783
35816SOL    HW2 9223   7.748  12.281   1.895
35817SOL     OW 9224   4.485  11.474  13.606
35817SOL    HW1 9225   4.469  11.555  13.559
35817SOL    HW2 9226   4.448  11.489  13.693
35818SOL     OW 9227   9.729   2.356   5.150
35818SOL    HW1 9228   9.789   2.320   5.215
35818SOL    HW2 9229   9.696   2.437   5.189
35819SOL     OW 9230   6.492   4.553   1.319
35819SOL    HW1 9231   6.505   4.462   1.343
35819SOL    HW2 9232   6.501   4.554   1.223
35820SOL     OW 9233   1.930   1.634   8.732
35820SOL    HW1 9234   1.947   1.661   8.641
35820SOL    HW2 9235   1.839   1.605   8.731
35821SOL     OW 9236   0.649   9.256   3.992
35821SOL    HW1 9237   0.736   9.227   4.021
35821SOL    HW2 9238   0.607   9.177   3.959
35822SOL     OW 9239  10.324   9.201   1.108
35822SOL    HW1 9240  10.407   9.192   1.155
35822SOL    HW2 9241  10.259   9.214   1.177
35823SOL     OW 9242   3.043   3.046   5.557
35823SOL    HW1 9243   2.984   3.109   5.597
35823SOL    HW2 9244   2.987   2.995   5.498
35824SOL     OW 9245   7.348   6.793   7.848
35824SOL    HW1 9246   7.432   6.794   7.801
35824SOL    HW2 9247   7.367   6.743   7.928
35825SOL     OW 9248   5.974   1.334  12.195
35825SOL    HW1 9249   6.020   1.294  12.269
35825SOL    HW2 9250   6.001   1.282  12.119
35826SOL     OW 9251  11.953  10.488  10.460
35826SOL    HW1 9252  11.968  10.396  10.438
35826SOL    HW2 9253  12.040  10.526  10.468
35827SOL     OW 9254   4.060  14.290   8.840
35827SOL    HW1 9255   4.047  14.219   8.777
35827SOL    HW2 9256   4.131  14.260   8.897
35828SOL     OW 9257  11.211  13.537   9.970
35828SOL    HW1 9258  11.301  13.547  10.004
35828SOL    HW2 9259  11.222  13.533   9.875
35829SOL     OW 9260  13.954   3.308   8.932
35829SOL    HW1 9261  13.954   3.318   8.837
35829SOL    HW2 9262  13.862   3.303   8.956
35830SOL     OW 9263   6.055   6.958   5.593
35830SOL    HW1 9264   6.028   6.899   5.523
35830SOL    HW2 9265   6.148   6.938   5.606
35831SOL     OW 9266   5.120   0.218   4.938
35831SOL    HW1 9267   5.215   0.232   4.934
35831SOL    HW2 9268   5.104   0.145   4.878
35832SOL     OW 9269   9.752   7.685  10.035
35832SOL    HW1 9270   9.820   7.641   9.984
35832SOL    HW2 9271   9.671   7.670   9.986
35833SOL     OW 9272   4.385  14.483   0.612
35833SOL    HW1 9273   4.326  14.533   0.555
35833SOL    HW2 9274   4.367  14.392   0.589
35834SOL     OW 9275  12.902   4.353  10.887
35834SOL    HW1 9276  12.985   4.400  10.888
35834SOL    HW2 9277  12.904   4.299  10.966
35835SOL     OW 9278   9.312   5.645   4.670
35835SOL    HW1 9279   9.358   5.662   4.752
35835SOL    HW2 9280   9.338   5.556   4.645
35836SOL     OW 9281   8.047   0.813   6.023
35836SOL    HW1 9282   8.024   0.760   5.947
35836SOL    HW2 9283   8.117   0.871   5.992
35837SOL     OW 9284  14.511   3.082  14.695
35837SOL    HW1 9285  14.501   3.048  14.606
35837SOL    HW2 9286  14.568   3.018  14.739
35838SOL     OW 9287   6.748   5.392  10.532
35838SOL    HW1 9288   6.676   5.409  10.470
35838SOL    HW2 9289   6.817   5.453  10.506
35839SOL     OW 9290  13.107   5.978  11.098
35839SOL    HW1 9291  13.086   5.940  11.183
35839SOL    HW2 9292  13.056   6.059  11.095
35840SOL     OW 9293   9.187   1.882   6.481
35840SOL    HW1 9294   9.110   1.828   6.502
35840SOL    HW2 9295   9.169   1.915   6.393
35841SOL     OW 9296   7.860   1.588   7.411
35841SOL    HW1 9297   7.771   1.587   7.445
35841SOL    HW2 9298   7.887   1.680   7.419
35842SOL     OW 9299   9.641  13.549   4.444
35842SOL    HW1 9300   9.732  13.541   4.474
35842SOL    HW2 9301   9.642  13.623   4.384
35843SOL     OW 9302   3.269  13.824  12.651
35843SOL    HW1 9303   3.353  13.871  12.654
35843SOL    HW2 9304   3.232  13.846  12.566
35844SOL     OW 9305   1.454   8.412   0.134
35844SOL    HW1 9306   1.513   8.339   0.118
35844SOL    HW2 9307   1.430   8.444   0.048
35845SOL     OW 9308   8.645  13.938   1.756
35845SOL    HW1 9309   8.626  14.010   1.815
35845SOL    HW2 9310   8.686  13.980   1.680
35846SOL     OW 9311   9.052   6.288  11.721
35846SOL    HW1 9312   8.959   6.305  11.739
35846SOL    HW2 9313   9.055   6.270  11.627
35847SOL     OW 9314  10.141  10.310   6.604
35847SOL    HW1 9315  10.073  10.278   6.545
35847SOL    HW2 9316  10.142  10.405   6.591
35848SOL     OW 9317  10.283  10.173   9.587
35848SOL    HW1 9318  10.254  10.082   9.595
35848SOL    HW2 9319  10.257  10.199   9.499
35849SOL     OW 9320   5.028   9.809  14.421
35849SOL    HW1 9321   5.081   9.808  14.341
35849SOL    HW2 9322   5.016   9.901  14.441
35850SOL     OW 9323   1.487  11.233   1.287
35850SOL    HW1 9324   1.405  11.283   1.290
35850SOL    HW2 9325   1.552  11.292   1.326
35851SOL     OW 9326  10.868   9.061   8.300
35851SOL    HW1 9327  10.777   9.048   8.272
35851SOL    HW2 9328  10.864   9.057   8.396
35852SOL     OW 9329   2.886  13.553   0.673
35852SOL    HW1 9330   2.790  13.555   0.665
35852SOL    HW2 9331   2.911  13.645   0.673
35853SOL     OW 9332   2.767   1.778   9.721
35853SOL    HW1 9333   2.837   1.712   9.719
35853SOL    HW2 9334   2.706   1.745   9.788
35854SOL     OW 9335   7.422   1.678  10.854
35854SOL    HW1 9336   7.484   1.610  10.827
35854SOL    HW2 9337   7.389   1.648  10.938
35855SOL     OW 9338   9.857   1.789  10.546
35855SOL    HW1 9339   9.904   1.867  10.517
35855SOL    HW2 9340   9.772   1.795  10.502
35856SOL     OW 9341  14.690   0.416   1.895
35856SOL    HW1 9342  14.679   0.504   1.928
35856SOL    HW2 9343  14.707   0.362   1.972
35857SOL     OW 9344   1.465   6.641   0.872
35857SOL    HW1 9345   1.469   6.565   0.814
35857SOL    HW2 9346   1.481   6.716   0.814
35858SOL     OW 9347   7.356   1.576   0.252
35858SOL    HW1 9348   7.356   1.481   0.239
35858SOL    HW2 9349   7.439   1.606   0.214
35859SOL     OW 9350  14.506  10.185   4.472
35859SOL    HW1 9351  14.539  10.114   4.417
35859SOL    HW2 9352  14.491  10.145   4.557
35860SOL     OW 9353   2.454   5.017   2.924
35860SOL    HW1 9354   2.382   5.041   2.983
35860SOL    HW2 9355   2.501   5.099   2.909
35861SOL     OW 9356   0.980   6.436  13.948
35861SOL    HW1 9357   0.946   6.443  14.037
35861SOL    HW2 9358   0.994   6.342  13.934
35862SOL     OW 9359   2.752   4.648  14.644
35862SOL    HW1 9360   2.790   4.712  14.584
35862SOL    HW2 9361   2.692   4.596  14.591
35863SOL     OW 9362  11.213  12.076  10.009
35863SOL    HW1 9363  11.262  12.096   9.929
35863SOL    HW2 9364  11.267  12.012  10.055
35864SOL     OW 9365  11.662   0.620   1.201
35864SOL    HW1 9366  11.626   0.650   1.118
35864SOL    HW2 9367  11.744   0.578   1.178
35865SOL     OW 9368   7.711   0.988   8.708
35865SOL    HW1 9369   7.714   1.046   8.784
35865SOL    HW2 9370   7.666   0.910   8.739
35866SOL     OW 9371  13.374   1.193   5.400
35866SOL    HW1 9372  13.413   1.174   5.485
35866SOL    HW2 9373  13.446   1.224   5.346
35867SOL     OW 9374  14.645   3.399  13.916
35867SOL    HW1 9375  14.721   3.416  13.861
35867SOL    HW2 9376  14.617   3.310  13.893
35868SOL     OW 9377  10.698   1.164   0.114
35868SOL    HW1 9378  10.614   1.193   0.150
35868SOL    HW2 9379  10.725   1.092   0.171
35869SOL     OW 9380   5.938  11.930   7.534
35869SOL    HW1 9381   5.967  11.842   7.557
35869SOL    HW2 9382   5.901  11.965   7.615
35870SOL     OW 9383  10.019   0.439   1.921
35870SOL    HW1 9384  10.088   0.451   1.987
35870SOL    HW2 9385   9.941   0.417   1.972
35871SOL     OW 9386   1.749  12.892   5.290
35871SOL    HW1 9387   1.733  12.981   5.319
35871SOL    HW2 9388   1.665  12.848   5.301
35872SOL     OW 9389   5.870   5.113   6.721
35872SOL    HW1 9390   5.831   5.200   6.726
35872SOL    HW2 9391   5.869   5.081   6.811
35873SOL     OW 9392   2.048  14.477   0.370
35873SOL    HW1 9393   2.038  14.449   0.461
35873SOL    HW2 9394   2.133  14.441   0.344
35874SOL     OW 9395  11.552   6.155  13.756
35874SOL    HW1 9396  11.579   6.079  13.705
35874SOL    HW2 9397  11.631   6.208  13.765
35875SOL     OW 9398   7.394   0.957   6.194
35875SOL    HW1 9399   7.419   0.934   6.283
35875SOL    HW2 9400   7.476   0.983   6.152
35876SOL     OW 9401  13.595   8.761   2.905
35876SOL    HW1 9402  13.535   8.692   2.874
35876SOL    HW2 9403  13.555   8.792   2.986
35877SOL     OW 9404   8.485   8.299   1.580
35877SOL    HW1 9405   8.458   8.207   1.578
35877SOL    HW2 9406   8.503   8.320   1.488
35878SOL     OW 9407  11.077   7.258  12.488
35878SOL    HW1 9408  11.044   7.292  12.405
35878SOL    HW2 9409  11.011   7.284  12.552
35879SOL     OW 9410  14.004   6.578   5.374
35879SOL    HW1 9411  14.099   6.590   5.371
35879SOL    HW2 9412  13.976   6.588   5.283
35880SOL     OW 9413   3.487   6.887  11.988
35880SOL    HW1 9414   3.420   6.931  11.936
35880SOL    HW2 9415   3.527   6.957  12.039
35881SOL     OW 9416   5.924  10.566   3.889
35881SOL    HW1 9417   5.869  10.632   3.930
35881SOL    HW2 9418   5.961  10.610   3.812
35882SOL     OW 9419   4.227   4.267  14.664
35882SOL    HW1 9420   4.300   4.210  14.641
35882SOL    HW2 9421   4.171   4.213  14.719
35883SOL     OW 9422  12.391   7.740   1.024
35883SOL    HW1 9423  12.297   7.722   1.029
35883SOL    HW2 9424  12.411   7.787   1.105
35884SOL     OW 9425   9.351   1.688   9.728
35884SOL    HW1 9426   9.293   1.697   9.653
35884SOL    HW2 9427   9.366   1.593   9.735
35885SOL     OW 9428   9.557   3.487  13.947
35885SOL    HW1 9429   9.605   3.511  13.868
35885SOL    HW2 9430   9.472   3.457  13.915
35886SOL     OW 9431  13.079  11.631   0.955
35886SOL    HW1 9432  12.999  11.677   0.928
35886SOL    HW2 9433  13.072  11.545   0.914
35887SOL     OW 9434   4.778   3.560   4.123
35887SOL    HW1 9435   4.829   3.514   4.057
35887SOL    HW2 9436   4.756   3.644   4.083
35888SOL     OW 9437  10.807   0.197   8.281
35888SOL    HW1 9438  10.901   0.213   8.288
35888SOL    HW2 9439  10.780   0.242   8.201
35889SOL     OW 9440  11.498  12.823   5.882
35889SOL    HW1 9441  11.409  12.798   5.858
35889SOL    HW2 9442  11.550  12.744   5.865
35890SOL     OW 9443   1.746  10.162   4.518
35890SOL    HW1 9444   1.771  10.076   4.552
35890SOL    HW2 9445   1.735  10.217   4.596
35891SOL     OW 9446   7.056   8.326   7.202
35891SOL    HW1 9447   7.114   8.258   7.168
35891SOL    HW2 9448   6.985   8.278   7.245
35892SOL     OW 9449  11.962   4.675  12.554
35892SOL    HW1 9450  11.871   4.652  12.535
35892SOL    HW2 9451  11.976   4.647  12.645
35893SOL     OW 9452   6.417   7.886   4.562
35893SOL    HW1 9453   6.505   7.902   4.528
35893SOL    HW2 9454   6.424   7.904   4.656
35894SOL     OW 9455   7.273  10.514   1.266
35894SOL    HW1 9456   7.186  10.551   1.256
35894SOL    HW2 9457   7.307  10.553   1.347
35895SOL     OW 9458   0.634   2.887  13.121
35895SOL    HW1 9459   0.604   2.896  13.030
35895SOL    HW2 9460   0.574   2.942  13.172
35896SOL     OW 9461   4.280   4.613  10.239
35896SOL    HW1 9462   4.264   4.704  10.214
35896SOL    HW2 9463   4.374   4.600  10.225
35897SOL     OW 9464   4.651   6.862  14.797
35897SOL    HW1 9465   4.639   6.767  14.801
35897SOL    HW2 9466   4.581   6.897  14.853
35898SOL     OW 9467   6.099   6.738   6.062
35898SOL    HW1 9468   6.161   6.676   6.100
35898SOL    HW2 9469   6.091   6.712   5.970
35899SOL     OW 9470  10.379   2.671   3.325
35899SOL    HW1 9471  10.417   2.724   3.395
35899SOL    HW2 9472  10.401   2.718   3.245
35900SOL     OW 9473  10.669   1.449   6.046
35900SOL    HW1 9474  10.720   1.380   6.089
35900SOL    HW2 9475  10.602   1.474   6.109
35901SOL     OW 9476  12.214  11.533   4.902
35901SOL    HW1 9477  12.263  11.543   4.984
35901SOL    HW2 9478  12.267  11.472   4.850
35902SOL     OW 9479   9.260   6.276   1.760
35902SOL    HW1 9480   9.216   6.360   1.768
35902SOL    HW2 9481   9.196   6.218   1.720
35903SOL     OW 9482  12.027  10.474  12.436
35903SOL    HW1 9483  12.068  10.477  12.522
35903SOL    HW2 9484  12.030  10.382  12.411
35904SOL     OW 9485   9.434   1.333   8.274
35904SOL    HW1 9486   9.352   1.325   8.227
35904SOL    HW2 9487   9.474   1.413   8.240
35905SOL     OW 9488  10.148   7.520   9.464
35905SOL    HW1 9489  10.159   7.610   9.435
35905SOL    HW2 9490  10.153   7.525   9.560
35906SOL     OW 9491   3.798   1.279   5.296
35906SOL    HW1 9492   3.884   1.299   5.259
35906SOL    HW2 9493   3.757   1.365   5.311
35907SOL     OW 9494  13.181   4.756   3.662
35907SOL    HW1 9495  13.230   4.674   3.657
35907SOL    HW2 9496  13.089   4.729   3.655
35908SOL     OW 9497   8.781   2.740  12.729
35908SOL    HW1 9498   8.838   2.734  12.652
35908SOL    HW2 9499   8.712   2.676  12.712
35909SOL     OW 9500   5.670  12.328   4.205
35909SOL    HW1 9501   5.603  12.377   4.252
35909SOL    HW2 9502   5.716  12.279   4.273
35910SOL     OW 9503   7.787   4.428  14.702
35910SOL    HW1 9504   7.752   4.363  14.642
35910SOL    HW2 9505   7.819   4.498  14.645
35911SOL     OW 9506   1.158   6.575  10.095
35911SOL    HW1 9507   1.118   6.645  10.044
35911SOL    HW2 9508   1.188   6.617  10.175
35912SOL     OW 9509  14.134  10.698   6.492
35912SOL    HW1 9510  14.077  10.624   6.513
35912SOL    HW2 9511  14.199  10.663   6.432
35913SOL     OW 9512   9.906   6.479  11.986
35913SOL    HW1 9513   9.944   6.567  11.987
35913SOL    HW2 9514   9.892   6.460  11.893
35914SOL     OW 9515   1.930   3.637  14.794
35914SOL    HW1 9516   1.900   3.673   0.000
35914SOL    HW2 9517   1.929   3.542  14.806
35915SOL     OW 9518   9.172   5.517   7.767
35915SOL    HW1 9519   9.172   5.488   7.858
35915SOL    HW2 9520   9.207   5.606   7.770
35916SOL     OW 9521   6.901  14.063   3.495
35916SOL    HW1 9522   6.869  14.133   3.552
35916SOL    HW2 9523   6.966  14.017   3.549
35917SOL     OW 9524   7.055   9.648   7.219
35917SOL    HW1 9525   7.057   9.728   7.272
35917SOL    HW2 9526   6.965   9.643   7.188
35918SOL     OW 9527   3.842   2.598   3.872
35918SOL    HW1 9528   3.767   2.646   3.907
35918SOL    HW2 9529   3.856   2.526   3.934
35919SOL     OW 9530   1.298   1.573   2.266
35919SOL    HW1 9531   1.224   1.584   2.325
35919SOL    HW2 9532   1.374   1.566   2.324
35920SOL     OW 9533   8.462  12.577  10.053
35920SOL    HW1 9534   8.470  12.669  10.079
35920SOL    HW2 9535   8.500  12.529  10.126
35921SOL     OW 9536   6.351   5.799  13.753
35921SOL    HW1 9537   6.290   5.774  13.684
35921SOL    HW2 9538   6.380   5.887  13.729
35922SOL     OW 9539   8.603   6.804   0.207
35922SOL    HW1 9540   8.509   6.813   0.222
35922SOL    HW2 9541   8.634   6.753   0.282
35923SOL     OW 9542   6.316   4.472   8.893
35923SOL    HW1 9543   6.382   4.540   8.883
35923SOL    HW2 9544   6.347   4.417   8.965
35924SOL     OW 9545   8.620  12.534   8.805
35924SOL    HW1 9546   8.651  12.483   8.880
35924SOL    HW2 9547   8.688  12.523   8.738
35925SOL     OW 9548  13.872  13.751   7.326
35925SOL    HW1 9549  13.928  13.688   7.371
35925SOL    HW2 9550  13.934  13.809   7.281
35926SOL     OW 9551   0.478   4.375   2.274
35926SOL    HW1 9552   0.384   4.389   2.263
35926SOL    HW2 9553   0.509   4.349   2.187
35927SOL     OW 9554   4.658  12.680  11.536
35927SOL    HW1 9555   4.712  12.685  11.615
35927SOL    HW2 9556   4.721  12.688  11.464
35928SOL     OW 9557   8.246   0.318   8.167
35928SOL    HW1 9558   8.332   0.284   8.143
35928SOL    HW2 9559   8.235   0.397   8.114
35929SOL     OW 9560   7.713  14.332  12.923
35929SOL    HW1 9561   7.738  14.395  12.991
35929SOL    HW2 9562   7.623  14.354  12.901
35930SOL     OW 9563   1.810  10.580   2.125
35930SOL    HW1 9564   1.813  10.657   2.182
35930SOL    HW2 9565   1.787  10.614   2.039
35931SOL     OW 9566   1.791  13.441   7.691
35931SOL    HW1 9567   1.737  13.412   7.617
35931SOL    HW2 9568   1.873  13.470   7.651
35932SOL     OW 9569  11.191   2.900  10.780
35932SOL    HW1 9570  11.171   2.953  10.858
35932SOL    HW2 9571  11.142   2.819  10.793
35933SOL     OW 9572   5.844  13.351   5.152
35933SOL    HW1 9573   5.925  13.309   5.180
35933SOL    HW2 9574   5.868  13.443   5.139
35934SOL     OW 9575   5.401   4.502  11.208
35934SOL    HW1 9576   5.347   4.580  11.218
35934SOL    HW2 9577   5.340   4.429  11.221
35935SOL     OW 9578   2.001   0.500   1.905
35935SOL    HW1 9579   1.957   0.416   1.917
35935SOL    HW2 9580   2.044   0.493   1.820
35936SOL     OW 9581   4.851  12.625   2.542
35936SOL    HW1 9582   4.840  12.614   2.636
35936SOL    HW2 9583   4.876  12.539   2.510
35937SOL     OW 9584   5.604  12.311   3.758
35937SOL    HW1 9585   5.698  12.331   3.753
35937SOL    HW2 9586   5.565  12.357   3.684
35938SOL     OW 9587  13.737  12.642   1.479
35938SOL    HW1 9588  13.709  12.729   1.509
35938SOL    HW2 9589  13.732  12.587   1.557
35939SOL     OW 9590   7.755   3.734   5.242
35939SOL    HW1 9591   7.849   3.744   5.235
35939SOL    HW2 9592   7.721   3.761   5.156
35940SOL     OW 9593  12.715   1.683   6.343
35940SOL    HW1 9594  12.774   1.611   6.320
35940SOL    HW2 9595  12.767   1.740   6.399
35941SOL     OW 9596   8.737   9.145  10.157
35941SOL    HW1 9597   8.815   9.175  10.205
35941SOL    HW2 9598   8.728   9.053  10.182
35942SOL     OW 9599  10.538  14.130   3.455
35942SOL    HW1 9600  10.521  14.124   3.361
35942SOL    HW2 9601  10.464  14.181   3.489
35943SOL     OW 9602  14.828   5.142  12.556
35943SOL    HW1 9603  14.763   5.113  12.619
35943SOL    HW2 9604  14.778   5.180  12.484
35944SOL     OW 9605  12.923   4.709  12.448
35944SOL    HW1 9606  12.862   4.775  12.482
35944SOL    HW2 9607  12.985   4.760  12.395
35945SOL     OW 9608  14.844   7.448   2.655
35945SOL    HW1 9609  14.754   7.424   2.633
35945SOL    HW2 9610  14.841   7.543   2.667
35946SOL     OW 9611   8.157  12.351   2.362
35946SOL    HW1 9612   8.184  12.275   2.413
35946SOL    HW2 9613   8.148  12.318   2.272
35947SOL     OW 9614  13.122   0.135  12.556
35947SOL    HW1 9615  13.199   0.081  12.575
35947SOL    HW2 9616  13.101   0.177  12.639
35948SOL     OW 9617   2.525  14.417  12.349
35948SOL    HW1 9618   2.553  14.335  12.390
35948SOL    HW2 9619   2.606  14.463  12.329
35949SOL     OW 9620  12.867  11.053   2.756
35949SOL    HW1 9621  12.949  11.016   2.789
35949SOL    HW2 9622  12.809  10.978   2.746
35950SOL     OW 9623   5.150  11.034   2.950
35950SOL    HW1 9624   5.096  11.097   2.998
35950SOL    HW2 9625   5.091  10.959   2.934
35951SOL     OW 9626  14.302   5.094   5.089
35951SOL    HW1 9627  14.346   5.029   5.035
35951SOL    HW2 9628  14.213   5.061   5.098
35952SOL     OW 9629   3.988   0.821   7.963
35952SOL    HW1 9630   3.929   0.851   7.894
35952SOL    HW2 9631   4.016   0.734   7.934
35953SOL     OW 9632   7.314  14.783   1.469
35953SOL    HW1 9633   7.398  14.756   1.432
35953SOL    HW2 9634   7.298  14.720   1.539
35954SOL     OW 9635  12.016   2.545   3.322
35954SOL    HW1 9636  11.931   2.577   3.354
35954SOL    HW2 9637  12.079   2.611   3.351
35955SOL     OW 9638   2.579   1.007   1.983
35955SOL    HW1 9639   2.657   1.005   1.927
35955SOL    HW2 9640   2.591   0.932   2.042
35956SOL     OW 9641   0.042  14.686   2.179
35956SOL    HW1 9642   0.109  14.744   2.143
35956SOL    HW2 9643   0.076  14.659   2.264
35957SOL     OW 9644   0.705  13.489   9.128
35957SOL    HW1 9645   0.772  13.466   9.193
35957SOL    HW2 9646   0.671  13.574   9.158
35958SOL     OW 9647  12.050   7.227   9.335
35958SOL    HW1 9648  12.018   7.210   9.246
35958SOL    HW2 9649  12.074   7.140   9.368
35959SOL     OW 9650   7.250   4.306   4.626
35959SOL    HW1 9651   7.237   4.290   4.532
35959SOL    HW2 9652   7.190   4.247   4.669
35960SOL     OW 9653   3.579  10.382  11.453
35960SOL    HW1 9654   3.647  10.326  11.416
35960SOL    HW2 9655   3.623  10.433  11.521
35961SOL     OW 9656   2.596  12.929  12.872
35961SOL    HW1 9657   2.636  12.942  12.786
35961SOL    HW2 9658   2.660  12.878  12.920
35962SOL     OW 9659   9.481   8.630  14.286
35962SOL    HW1 9660   9.454   8.562  14.348
35962SOL    HW2 9661   9.558   8.594  14.243
35963SOL     OW 9662   4.569   7.305   3.423
35963SOL    HW1 9663   4.523   7.374   3.375
35963SOL    HW2 9664   4.550   7.322   3.515
35964SOL     OW 9665  10.968   7.279   8.901
35964SOL    HW1 9666  10.901   7.346   8.910
35964SOL    HW2 9667  10.986   7.275   8.808
35965SOL     OW 9668  12.354   0.414  12.004
35965SOL    HW1 9669  12.293   0.480  12.039
35965SOL    HW2 9670  12.331   0.408  11.911
35966SOL     OW 9671  12.884   1.739   7.518
35966SOL    HW1 9672  12.927   1.824   7.525
35966SOL    HW2 9673  12.945   1.678   7.559
35967SOL     OW 9674   3.295  13.223  13.703
35967SOL    HW1 9675   3.241  13.158  13.748
35967SOL    HW2 9676   3.332  13.176  13.628
35968SOL     OW 9677  10.204  13.692  13.874
35968SOL    HW1 9678  10.232  13.746  13.949
35968SOL    HW2 9679  10.270  13.709  13.807
35969SOL     OW 9680  10.008   1.240  14.820
35969SOL    HW1 9681   9.953   1.299  14.770
35969SOL    HW2 9682  10.079   1.216  14.760
35970SOL     OW 9683   2.103  13.099  13.585
35970SOL    HW1 9684   2.145  13.181  13.609
35970SOL    HW2 9685   2.120  13.090  13.491
35971SOL     OW 9686   6.639   8.853   4.125
35971SOL    HW1 9687   6.649   8.887   4.036
35971SOL    HW2 9688   6.544   8.849   4.139
35972SOL     OW 9689  14.752   6.346   0.300
35972SOL    HW1 9690  14.792   6.311   0.379
35972SOL    HW2 9691  14.793   6.432   0.289
35973SOL     OW 9692  13.579   6.653  14.486
35973SOL    HW1 9693  13.562   6.563  14.515
35973SOL    HW2 9694  13.505   6.675  14.430
35974SOL     OW 9695  11.889  14.770   3.139
35974SOL    HW1 9696  11.837  14.832   3.190
35974SOL    HW2 9697  11.846  14.685   3.153
35975SOL     OW 9698  13.320   8.053   4.060
35975SOL    HW1 9699  13.399   8.106   4.071
35975SOL    HW2 9700  13.334   7.977   4.117
35976SOL     OW 9701   0.723   3.767   5.186
35976SOL    HW1 9702   0.669   3.694   5.218
35976SOL    HW2 9703   0.689   3.844   5.231
35977SOL     OW 9704  12.906   1.209  11.455
35977SOL    HW1 9705  12.938   1.171  11.537
35977SOL    HW2 9706  12.904   1.303  11.472
35978SOL     OW 9707   8.746   5.302   8.443
35978SOL    HW1 9708   8.737   5.396   8.427
35978SOL    HW2 9709   8.706   5.261   8.367
35979SOL     OW 9710  14.659   1.391   1.473
35979SOL    HW1 9711  14.575   1.436   1.473
35979SOL    HW2 9712  14.653   1.328   1.401
35980SOL     OW 9713   5.312  12.025   0.830
35980SOL    HW1 9714   5.359  11.969   0.892
35980SOL    HW2 9715   5.351  12.004   0.745
35981SOL     OW 9716   2.214  13.193  12.178
35981SOL    HW1 9717   2.297  13.218  12.139
35981SOL    HW2 9718   2.148  13.224  12.115
35982SOL     OW 9719   7.490   8.089   0.687
35982SOL    HW1 9720   7.537   8.107   0.606
35982SOL    HW2 9721   7.556   8.047   0.743
35983SOL     OW 9722   1.438  11.042   5.298
35983SOL    HW1 9723   1.441  10.999   5.213
35983SOL    HW2 9724   1.517  11.012   5.343
35984SOL     OW 9725   4.243  12.862  14.453
35984SOL    HW1 9726   4.162  12.883  14.406
35984SOL    HW2 9727   4.242  12.919  14.530
35985SOL     OW 9728  11.362   4.076   5.904
35985SOL    HW1 9729  11.322   4.000   5.947
35985SOL    HW2 9730  11.297   4.146   5.916
35986SOL     OW 9731   0.130  14.253   7.996
35986SOL    HW1 9732   0.140  14.257   8.091
35986SOL    HW2 9733   0.218  14.266   7.961
35987SOL     OW 9734   2.995   4.127   4.863
35987SOL    HW1 9735   2.974   4.034   4.863
35987SOL    HW2 9736   2.911   4.172   4.861
35988SOL     OW 9737   4.450   6.315   0.240
35988SOL    HW1 9738   4.431   6.306   0.333
35988SOL    HW2 9739   4.466   6.226   0.210
35989SOL     OW 9740   9.922  10.213   9.614
35989SOL    HW1 9741   9.942  10.126   9.650
35989SOL    HW2 9742   9.852  10.246   9.670
35990SOL     OW 9743   8.955  11.387   0.606
35990SOL    HW1 9744   9.031  11.444   0.594
35990SOL    HW2 9745   8.965  11.319   0.540
35991SOL     OW 9746  10.242   1.634  11.465
35991SOL    HW1 9747  10.210   1.722  11.447
35991SOL    HW2 9748  10.333   1.635  11.436
35992SOL     OW 9749   0.521  11.660   4.327
35992SOL    HW1 9750   0.489  11.745   4.358
35992SOL    HW2 9751   0.459  11.597   4.362
35993SOL     OW 9752   7.137   8.720   9.372
35993SOL    HW1 9753   7.140   8.774   9.292
35993SOL    HW2 9754   7.098   8.778   9.438
35994SOL     OW 9755  13.248  14.040   7.083
35994SOL    HW1 9756  13.170  14.059   7.134
35994SOL    HW2 9757  13.289  13.966   7.128
35995SOL     OW 9758   1.633   8.655   2.314
35995SOL    HW1 9759   1.594   8.677   2.398
35995SOL    HW2 9760   1.688   8.579   2.332
35996SOL     OW 9761  10.304   5.154  14.090
35996SOL    HW1 9762  10.350   5.107  14.161
35996SOL    HW2 9763  10.233   5.095  14.065
35997SOL     OW 9764   4.656   9.606  13.702
35997SOL    HW1 9765   4.621   9.561  13.779
35997SOL    HW2 9766   4.713   9.674  13.738
35998SOL     OW 9767  11.921  10.810   5.368
35998SOL    HW1 9768  11.862  10.809   5.443
35998SOL    HW2 9769  11.990  10.872   5.392
35999SOL     OW 9770  12.298   3.524   9.620
35999SOL    HW1 9771  12.302   3.616   9.647
35999SOL    HW2 9772  12.273   3.527   9.528
36000SOL     OW 9773   3.524   8.109   4.023
36000SOL    HW1 9774   3.495   8.189   4.067
36000SOL    HW2 9775   3.611   8.091   4.060
36001SOL     OW 9776  12.383  10.697   8.153
36001SOL    HW1 9777  12.444  10.700   8.079
36001SOL    HW2 9778  12.373  10.603   8.171
36002SOL     OW 9779   4.253   2.703  14.358
36002SOL    HW1 9780   4.339   2.699  14.398
36002SOL    HW2 9781   4.270   2.707  14.264
36003SOL     OW 9782   6.696  11.080   0.928
36003SOL    HW1 9783   6.753  11.154   0.944
36003SOL    HW2 9784   6.674  11.047   1.015
36004SOL     OW 9785   9.933   1.371   0.272
36004SOL    HW1 9786   9.984   1.452   0.277
36004SOL    HW2 9787   9.863   1.390   0.210
36005SOL     OW 9788   8.492   8.318   2.458
36005SOL    HW1 9789   8.537   8.397   2.485
36005SOL    HW2 9790   8.400   8.345   2.450
36006SOL     OW 9791   9.393   6.036   1.540
36006SOL    HW1 9792   9.339   5.957   1.536
36006SOL    HW2 9793   9.337   6.105   1.503
36007SOL     OW 9794   9.454  11.610   1.287
36007SOL    HW1 9795   9.370  11.563   1.286
36007SOL    HW2 9796   9.510  11.558   1.344
36008SOL     OW 9797   7.806   3.955  11.044
36008SOL    HW1 9798   7.848   3.908  10.972
36008SOL    HW2 9799   7.816   4.048  11.021
36009SOL     OW 9800   4.347  12.288   4.453
36009SOL    HW1 9801   4.400  12.226   4.502
36009SOL    HW2 9802   4.303  12.235   4.386
36010SOL     OW 9803  12.821   4.740   6.307
36010SOL    HW1 9804  12.893   4.712   6.251
36010SOL    HW2 9805  12.755   4.672   6.298
36011SOL     OW 9806  13.312  13.431  12.771
36011SOL    HW1 9807  13.380  13.390  12.718
36011SOL    HW2 9808  13.238  13.443  12.712
36012SOL     OW 9809  13.012   5.777  12.222
36012SOL    HW1 9810  13.072   5.822  12.282
36012SOL    HW2 9811  13.050   5.689  12.212
36013SOL     OW 9812   4.873   7.057   7.042
36013SOL    HW1 9813   4.828   7.074   6.960
36013SOL    HW2 9814   4.850   6.967   7.064
36014SOL     OW 9815   4.223   8.252  10.884
36014SOL    HW1 9816   4.145   8.278  10.835
36014SOL    HW2 9817   4.260   8.334  10.917
36015SOL     OW 9818   9.060  10.703   7.434
36015SOL    HW1 9819   9.042  10.662   7.349
36015SOL    HW2 9820   9.001  10.659   7.495
36016SOL     OW 9821   8.486  12.277   5.983
36016SOL    HW1 9822   8.420  12.305   5.919
36016SOL    HW2 9823   8.559  12.337   5.970
36017SOL     OW 9824  12.691  12.568   0.815
36017SOL    HW1 9825  12.650  12.489   0.780
36017SOL    HW2 9826  12.731  12.610   0.739
36018SOL     OW 9827   9.195   9.238  13.407
36018SOL    HW1 9828   9.102   9.249  13.430
36018SOL    HW2 9829   9.205   9.288  13.326
36019SOL     OW 9830   7.438   3.220   3.976
36019SOL    HW1 9831   7.426   3.305   3.934
36019SOL    HW2 9832   7.479   3.165   3.909
36020SOL     OW 9833   9.363  13.471   8.406
36020SOL    HW1 9834   9.414  13.490   8.327
36020SOL    HW2 9835   9.345  13.556   8.445
36021SOL     OW 9836   2.355   7.143  11.672
36021SOL    HW1 9837   2.446   7.114  11.665
36021SOL    HW2 9838   2.333   7.171  11.583
36022SOL     OW 9839  10.707   2.525   4.603
36022SOL    HW1 9840  10.641   2.562   4.544
36022SOL    HW2 9841  10.698   2.576   4.684
36023SOL     OW 9842  10.237   5.382   2.584
36023SOL    HW1 9843  10.282   5.432   2.516
36023SOL    HW2 9844  10.179   5.444   2.626
36024SOL     OW 9845   2.870  12.683  10.426
36024SOL    HW1 9846   2.959  12.649  10.433
36024SOL    HW2 9847   2.879  12.766  10.379
36025SOL     OW 9848  14.216  10.016   8.652
36025SOL    HW1 9849  14.265  10.086   8.695
36025SOL    HW2 9850  14.225   9.941   8.711
36026SOL     OW 9851   8.897   5.142   2.284
36026SOL    HW1 9852   8.845   5.223   2.286
36026SOL    HW2 9853   8.837   5.077   2.249
36027SOL     OW 9854  14.339   3.169   0.634
36027SOL    HW1 9855  14.421   3.154   0.588
36027SOL    HW2 9856  14.356   3.247   0.688
36028SOL     OW 9857   6.992   0.382   6.709
36028SOL    HW1 9858   7.084   0.357   6.707
36028SOL    HW2 9859   6.978   0.417   6.798
36029SOL     OW 9860  14.556   7.654   5.717
36029SOL    HW1 9861  14.498   7.609   5.656
36029SOL    HW2 9862  14.499   7.681   5.789
36030SOL     OW 9863   6.359   3.923   3.260
36030SOL    HW1 9864   6.417   3.880   3.197
36030SOL    HW2 9865   6.370   4.016   3.243
36031SOL     OW 9866  12.439   0.666  10.884
36031SOL    HW1 9867  12.479   0.588  10.846
36031SOL    HW2 9868  12.370   0.632  10.941
36032SOL     OW 9869   3.822  11.645  14.767
36032SOL    HW1 9870   3.780  11.721  14.808
36032SOL    HW2 9871   3.911  11.675  14.748
36033SOL     OW 9872   6.131  10.405   8.225
36033SOL    HW1 9873   6.055  10.463   8.223
36033SOL    HW2 9874   6.104  10.328   8.175
36034SOL     OW 9875  10.557   9.507   8.703
36034SOL    HW1 9876  10.546   9.412   8.697
36034SOL    HW2 9877  10.616   9.529   8.630
36035SOL     OW 9878   1.751   7.817  11.147
36035SOL    HW1 9879   1.827   7.848  11.197
36035SOL    HW2 9880   1.702   7.897  11.127
36036SOL     OW 9881   0.003   3.379  12.906
36036SOL    HW1 9882   0.058   3.450  12.874
36036SOL    HW2 9883   0.062   3.324  12.957
36037SOL     OW 9884   7.862  11.601  12.381
36037SOL    HW1 9885   7.945  11.560  12.404
36037SOL    HW2 9886   7.880  11.695  12.381
36038SOL     OW 9887  14.497   8.942   1.589
36038SOL    HW1 9888  14.457   9.029   1.585
36038SOL    HW2 9889  14.484   8.913   1.679
36039SOL     OW 9890   0.725   8.953   4.262
36039SOL    HW1 9891   0.687   9.040   4.267
36039SOL    HW2 9892   0.728   8.932   4.169
36040SOL     OW 9893   8.033   3.804  11.258
36040SOL    HW1 9894   8.085   3.846  11.326
36040SOL    HW2 9895   8.002   3.723  11.299
36041SOL     OW 9896   4.445  11.297   3.754
36041SOL    HW1 9897   4.431  11.290   3.660
36041SOL    HW2 9898   4.496  11.219   3.777
36042SOL     OW 9899  10.731  14.770   9.952
36042SOL    HW1 9900  10.788  14.792  10.025
36042SOL    HW2 9901  10.788  14.731   9.887
36043SOL     OW 9902   4.568   4.783  11.022
36043SOL    HW1 9903   4.564   4.839  11.100
36043SOL    HW2 9904   4.555   4.844  10.949
36044SOL     OW 9905  10.423  13.167   3.294
36044SOL    HW1 9906  10.451  13.160   3.203
36044SOL    HW2 9907  10.415  13.076   3.323
36045SOL     OW 9908  13.776   3.793  12.599
36045SOL    HW1 9909  13.723   3.873  12.604
36045SOL    HW2 9910  13.857   3.821  12.556
36046SOL     OW 9911   1.589  13.210   8.567
36046SOL    HW1 9912   1.635  13.273   8.623
36046SOL    HW2 9913   1.497  13.216   8.595
36047SOL     OW 9914   6.611   1.236   9.486
36047SOL    HW1 9915   6.548   1.177   9.445
36047SOL    HW2 9916   6.561   1.315   9.506
36048SOL     OW 9917   6.810  14.327   1.458
36048SOL    HW1 9918   6.817  14.422   1.463
36048SOL    HW2 9919   6.771  14.301   1.542
36049SOL     OW 9920   8.751   7.617   5.098
36049SOL    HW1 9921   8.674   7.570   5.065
36049SOL    HW2 9922   8.815   7.609   5.027
36050SOL     OW 9923   3.725   5.693   9.539
36050SOL    HW1 9924   3.751   5.626   9.602
36050SOL    HW2 9925   3.700   5.643   9.460
36051SOL     OW 9926   6.430   2.460   9.607
36051SOL    HW1 9927   6.439   2.400   9.681
36051SOL    HW2 9928   6.514   2.507   9.605
36052SOL     OW 9929   0.830   6.693   0.655
36052SOL    HW1 9930   0.798   6.779   0.683
36052SOL    HW2 9931   0.913   6.711   0.611
36053SOL     OW 9932  13.121   7.149   6.828
36053SOL    HW1 9933  13.087   7.147   6.739
36053SOL    HW2 9934  13.215   7.163   6.817
36054SOL     OW 9935   0.183   5.612  13.233
36054SOL    HW1 9936   0.177   5.704  13.206
36054SOL    HW2 9937   0.110   5.569  13.189
36055SOL     OW 9938  14.498   6.999  14.379
36055SOL    HW1 9939  14.478   7.091  14.394
36055SOL    HW2 9940  14.433   6.951  14.430
36056SOL     OW 9941   3.434   1.734   5.123
36056SOL    HW1 9942   3.403   1.751   5.212
36056SOL    HW2 9943   3.420   1.640   5.111
36057SOL     OW 9944  10.625   3.981   9.951
36057SOL    HW1 9945  10.640   4.074   9.968
36057SOL    HW2 9946  10.710   3.949   9.920
36058SOL     OW 9947  12.198   2.178  13.631
36058SOL    HW1 9948  12.183   2.084  13.639
36058SOL    HW2 9949  12.188   2.196  13.538
36059SOL     OW 9950   5.901  13.853  14.117
36059SOL    HW1 9951   5.965  13.918  14.146
36059SOL    HW2 9952   5.942  13.812  14.040
36060SOL     OW 9953   9.803  14.849  10.063
36060SOL    HW1 9954   9.746  14.820  10.134
36060SOL    HW2 9955   9.824   0.062  10.085
36061SOL     OW 9956  10.598  11.291  11.927
36061SOL    HW1 9957  10.506  11.313  11.938
36061SOL    HW2 9958  10.641  11.374  11.909
36062SOL     OW 9959   5.361  14.536   2.661
36062SOL    HW1 9960   5.308  14.540   2.741
36062SOL    HW2 9961   5.330  14.611   2.609
36063SOL     OW 9962  10.909   7.600  11.071
36063SOL    HW1 9963  10.996   7.564  11.088
36063SOL    HW2 9964  10.924   7.692  11.053
36064SOL     OW 9965  12.136   2.286  14.096
36064SOL    HW1 9966  12.130   2.225  14.170
36064SOL    HW2 9967  12.104   2.369  14.130
36065SOL     OW 9968  13.539   5.746  11.653
36065SOL    HW1 9969  13.550   5.661  11.696
36065SOL    HW2 9970  13.447   5.747  11.626
36066SOL     OW 9971   7.187   4.860  11.372
36066SOL    HW1 9972   7.263   4.916  11.357
36066SOL    HW2 9973   7.210   4.811  11.451
36067SOL     OW 9974   9.502  10.199   7.834
36067SOL    HW1 9975   9.449  10.147   7.774
36067SOL    HW2 9976   9.455  10.193   7.918
36068SOL     OW 9977   4.295   1.187  10.345
36068SOL    HW1 9978   4.213   1.230  10.322
36068SOL    HW2 9979   4.352   1.258  10.375
36069SOL     OW 9980  10.288  13.642  14.571
36069SOL    HW1 9981  10.307  13.588  14.647
36069SOL    HW2 9982  10.373  13.662  14.532
36070SOL     OW 9983   8.431   5.731   8.850
36070SOL    HW1 9984   8.379   5.654   8.872
36070SOL    HW2 9985   8.371   5.787   8.801
36071SOL     OW 9986   2.149  11.917  10.993
36071SOL    HW1 9987   2.157  11.893  10.900
36071SOL    HW2 9988   2.213  11.988  11.004
36072SOL     OW 9989   2.572  11.588   6.001
36072SOL    HW1 9990   2.645  11.526   5.998
36072SOL    HW2 9991   2.553  11.598   6.094
36073SOL     OW 9992   3.428  11.887  12.059
36073SOL    HW1 9993   3.483  11.900  11.982
36073SOL    HW2 9994   3.467  11.813  12.105
36074SOL     OW 9995  13.100  11.939  12.934
36074SOL    HW1 9996  13.095  12.033  12.914
36074SOL    HW2 9997  13.021  11.902  12.896
36075SOL     OW 9998  13.311  12.554   0.858
36075SOL    HW1 9999  13.389  12.501   0.840
36075SOL    HW210000  13.342  12.645   0.851
36076SOL     OW10001  13.017   0.118   7.768
36076SOL    HW110002  12.971   0.183   7.822
36076SOL    HW210003  13.100   0.160   7.745
36077SOL     OW10004  14.604   9.982   2.660
36077SOL    HW110005  14.660  10.017   2.729
36077SOL    HW210006  14.609   9.887   2.670
36078SOL     OW10007   7.312   8.181  14.063
36078SOL    HW110008   7.408   8.174  14.057
36078SOL    HW210009   7.288   8.238  13.990
36079SOL     OW10010   7.855   1.890   5.730
36079SOL    HW110011   7.802   1.960   5.693
36079SOL    HW210012   7.944   1.908   5.700
36080SOL     OW10013  14.288  10.846   1.002
36080SOL    HW110014  14.252  10.858   0.914
36080SOL    HW210015  14.211  10.833   1.058
36081SOL     OW10016   9.020   4.883   7.982
36081SOL    HW110017   9.081   4.957   7.978
36081SOL    HW210018   9.070   4.813   8.023
36082SOL     OW10019  13.569  14.776   5.751
36082SOL    HW110020  13.487  14.739   5.783
36082SOL    HW210021  13.623  14.786   5.830
36083SOL     OW10022  12.484   0.938   5.222
36083SOL    HW110023  12.477   1.015   5.280
36083SOL    HW210024  12.410   0.947   5.162
36084SOL     OW10025  14.382   6.506   4.845
36084SOL    HW110026  14.411   6.596   4.859
36084SOL    HW210027  14.286   6.510   4.854
36085SOL     OW10028   6.265  14.414  11.892
36085SOL    HW110029   6.273  14.322  11.918
36085SOL    HW210030   6.302  14.463  11.966
36086SOL     OW10031  12.510  12.484   8.119
36086SOL    HW110032  12.563  12.407   8.142
36086SOL    HW210033  12.443  12.450   8.061
36087SOL     OW10034   6.220   5.074   8.121
36087SOL    HW110035   6.144   5.016   8.122
36087SOL    HW210036   6.245   5.079   8.029
36088SOL     OW10037  12.097   5.277   1.448
36088SOL    HW110038  12.165   5.306   1.509
36088SOL    HW210039  12.146   5.244   1.372
36089SOL     OW10040   6.931  11.735   3.392
36089SOL    HW110041   6.905  11.649   3.425
36089SOL    HW210042   6.897  11.797   3.457
36090SOL     OW10043   8.314  10.394   5.110
36090SOL    HW110044   8.294  10.391   5.016
36090SOL    HW210045   8.320  10.302   5.135
36091SOL     OW10046   0.651   5.986   8.816
36091SOL    HW110047   0.648   5.936   8.897
36091SOL    HW210048   0.744   5.988   8.793
36092SOL     OW10049   4.886   6.440  12.802
36092SOL    HW110050   4.908   6.532  12.788
36092SOL    HW210051   4.930   6.393  12.731
36093SOL     OW10052   3.492  12.577  10.443
36093SOL    HW110053   3.555  12.510  10.470
36093SOL    HW210054   3.536  12.660  10.464
36094SOL     OW10055   3.880  10.155   3.830
36094SOL    HW110056   3.944  10.139   3.761
36094SOL    HW210057   3.932  10.173   3.908
36095SOL     OW10058   5.089  13.376   6.847
36095SOL    HW110059   5.177  13.412   6.863
36095SOL    HW210060   5.080  13.377   6.752
36096SOL     OW10061   2.561   9.259   3.851
36096SOL    HW110062   2.632   9.295   3.797
36096SOL    HW210063   2.481   9.286   3.807
36097SOL     OW10064   2.522   8.915  11.692
36097SOL    HW110065   2.546   8.946  11.779
36097SOL    HW210066   2.431   8.944  11.680
36098SOL     OW10067  10.516  10.719  14.761
36098SOL    HW110068  10.435  10.734  14.809
36098SOL    HW210069  10.491  10.662  14.688
36099SOL     OW10070  12.300   9.281   3.113
36099SOL    HW110071  12.348   9.330   3.046
36099SOL    HW210072  12.215   9.326   3.118
36100SOL     OW10073   4.808   8.920  10.454
36100SOL    HW110074   4.875   8.979  10.419
36100SOL    HW210075   4.801   8.945  10.547
36101SOL     OW10076   8.890   1.943  12.399
36101SOL    HW110077   8.892   1.960  12.305
36101SOL    HW210078   8.888   1.847  12.405
36102SOL     OW10079   8.659   2.798   7.397
36102SOL    HW110080   8.695   2.876   7.438
36102SOL    HW210081   8.679   2.727   7.458
36103SOL     OW10082  14.224   1.490   5.997
36103SOL    HW110083  14.248   1.398   6.008
36103SOL    HW210084  14.167   1.508   6.072
36104SOL     OW10085   4.331  13.309   8.731
36104SOL    HW110086   4.398  13.323   8.798
36104SOL    HW210087   4.365  13.353   8.654
36105SOL     OW10088   7.414   2.344  14.672
36105SOL    HW110089   7.473   2.416  14.695
36105SOL    HW210090   7.332   2.366  14.716
36106SOL     OW10091  11.007   0.787   2.441
36106SOL    HW110092  11.043   0.872   2.416
36106SOL    HW210093  10.972   0.800   2.529
36107SOL     OW10094  13.050   7.927   1.787
36107SOL    HW110095  13.013   7.892   1.706
36107SOL    HW210096  13.114   7.861   1.814
36108SOL     OW10097  14.828   4.979   3.154
36108SOL    HW110098  14.804   5.051   3.096
36108SOL    HW210099  14.867   4.913   3.096
36109SOL     OW10100   0.922   6.145  11.182
36109SOL    HW110101   0.879   6.217  11.135
36109SOL    HW210102   0.961   6.186  11.259
36110SOL     OW10103   6.856  10.861   4.642
36110SOL    HW110104   6.923  10.904   4.694
36110SOL    HW210105   6.794  10.826   4.706
36111SOL     OW10106   3.598   3.324  13.453
36111SOL    HW110107   3.516   3.325  13.403
36111SOL    HW210108   3.614   3.416  13.474
36112SOL     OW10109   6.562  11.006  13.322
36112SOL    HW110110   6.497  11.034  13.258
36112SOL    HW210111   6.550  10.911  13.327
36113SOL     OW10112   9.201  11.728   0.634
36113SOL    HW110113   9.231  11.637   0.640
36113SOL    HW210114   9.280  11.779   0.618
36114SOL     OW10115   0.870   0.568   0.513
36114SOL    HW110116   0.905   0.629   0.448
36114SOL    HW210117   0.860   0.485   0.467
36115SOL     OW10118   5.399  12.727   9.603
36115SOL    HW110119   5.414  12.760   9.514
36115SOL    HW210120   5.307  12.699   9.602
36116SOL     OW10121  14.526   4.724  13.995
36116SOL    HW110122  14.612   4.683  14.005
36116SOL    HW210123  14.518   4.781  14.071
36117SOL     OW10124  12.766  14.265   0.544
36117SOL    HW110125  12.759  14.273   0.449
36117SOL    HW210126  12.807  14.180   0.558
36118SOL     OW10127   1.898   0.766   6.402
36118SOL    HW110128   1.877   0.755   6.495
36118SOL    HW210129   1.951   0.845   6.398
36119SOL     OW10130   7.213   8.329  11.612
36119SOL    HW110131   7.190   8.388  11.684
36119SOL    HW210132   7.155   8.254  11.623
36120SOL     OW10133  11.161   4.006  13.649
36120SOL    HW110134  11.150   3.939  13.581
36120SOL    HW210135  11.083   3.997  13.704
36121SOL     OW10136   7.538  11.918   3.301
36121SOL    HW110137   7.525  11.823   3.299
36121SOL    HW210138   7.450  11.954   3.313
36122SOL     OW10139  14.241   5.767   8.011
36122SOL    HW110140  14.285   5.686   8.039
36122SOL    HW210141  14.291   5.837   8.052
36123SOL     OW10142  10.946   4.888  12.988
36123SOL    HW110143  10.864   4.925  13.019
36123SOL    HW210144  10.967   4.819  13.052
36124SOL     OW10145  10.554   2.288   8.713
36124SOL    HW110146  10.500   2.256   8.785
36124SOL    HW210147  10.515   2.249   8.635
36125SOL     OW10148   5.752   9.571  14.600
36125SOL    HW110149   5.802   9.515  14.659
36125SOL    HW210150   5.762   9.531  14.514
36126SOL     OW10151   9.008   7.629   2.854
36126SOL    HW110152   9.070   7.585   2.913
36126SOL    HW210153   8.947   7.561   2.827
36127SOL     OW10154  10.870  12.974  10.505
36127SOL    HW110155  10.821  12.894  10.526
36127SOL    HW210156  10.838  13.039  10.568
36128SOL     OW10157   4.468   0.362  11.424
36128SOL    HW110158   4.458   0.300  11.352
36128SOL    HW210159   4.417   0.438  11.397
36129SOL     OW10160   5.035   4.718  13.263
36129SOL    HW110161   5.033   4.783  13.193
36129SOL    HW210162   4.950   4.726  13.306
36130SOL     OW10163   0.193   1.955   0.642
36130SOL    HW110164   0.263   1.972   0.705
36130SOL    HW210165   0.234   1.903   0.574
36131SOL     OW10166  11.927  13.610   3.886
36131SOL    HW110167  11.894  13.658   3.962
36131SOL    HW210168  11.998  13.665   3.852
36132SOL     OW10169   7.147   8.227   4.907
36132SOL    HW110170   7.166   8.317   4.879
36132SOL    HW210171   7.126   8.235   5.000
36133SOL     OW10172   6.397  14.461   5.518
36133SOL    HW110173   6.464  14.425   5.460
36133SOL    HW210174   6.430  14.444   5.606
36134SOL     OW10175   1.514   0.608   8.473
36134SOL    HW110176   1.565   0.687   8.491
36134SOL    HW210177   1.458   0.597   8.549
36135SOL     OW10178   4.088  13.803   9.216
36135SOL    HW110179   4.086  13.840   9.128
36135SOL    HW210180   4.002  13.822   9.253
36136SOL     OW10181   4.135   9.527   9.070
36136SOL    HW110182   4.191   9.556   8.997
36136SOL    HW210183   4.165   9.438   9.089
36137SOL     OW10184  12.614  12.948   1.724
36137SOL    HW110185  12.576  12.883   1.783
36137SOL    HW210186  12.581  12.924   1.638
36138SOL     OW10187   6.117   7.371  11.216
36138SOL    HW110188   6.197   7.365  11.163
36138SOL    HW210189   6.075   7.286  11.206
36139SOL     OW10190  13.806   7.360   3.291
36139SOL    HW110191  13.850   7.415   3.226
36139SOL    HW210192  13.819   7.271   3.258
36140SOL     OW10193   8.661  11.630   2.307
36140SOL    HW110194   8.591  11.695   2.300
36140SOL    HW210195   8.643  11.568   2.237
36141SOL     OW10196   8.183  10.717   3.878
36141SOL    HW110197   8.203  10.700   3.785
36141SOL    HW210198   8.101  10.669   3.893
36142SOL     OW10199   4.688  11.175   2.146
36142SOL    HW110200   4.715  11.182   2.055
36142SOL    HW210201   4.627  11.101   2.147
36143SOL     OW10202   2.428  13.277  12.065
36143SOL    HW110203   2.450  13.302  11.975
36143SOL    HW210204   2.509  13.294  12.114
36144SOL     OW10205   7.006  12.938   8.833
36144SOL    HW110206   7.097  12.951   8.859
36144SOL    HW210207   6.967  12.889   8.904
36145SOL     OW10208  11.886  11.830  10.313
36145SOL    HW110209  11.940  11.872  10.246
36145SOL    HW210210  11.948  11.779  10.365
36146SOL     OW10211   9.499  13.567  13.404
36146SOL    HW110212   9.579  13.600  13.445
36146SOL    HW210213   9.530  13.511  13.333
36147SOL     OW10214   9.134   9.226   0.732
36147SOL    HW110215   9.172   9.222   0.820
36147SOL    HW210216   9.110   9.318   0.720
36148SOL     OW10217  10.069   5.776  12.569
36148SOL    HW110218  10.062   5.757  12.663
36148SOL    HW210219  10.065   5.690  12.527
36149SOL     OW10220   3.080   2.765   4.254
36149SOL    HW110221   3.012   2.833   4.256
36149SOL    HW210222   3.033   2.686   4.226
36150SOL     OW10223  13.224   7.674   3.835
36150SOL    HW110224  13.295   7.639   3.887
36150SOL    HW210225  13.169   7.598   3.814
36151SOL     OW10226  10.443   8.744  12.265
36151SOL    HW110227  10.498   8.712  12.337
36151SOL    HW210228  10.417   8.832  12.292
36152SOL     OW10229   3.787  13.972  12.606
36152SOL    HW110230   3.803  14.056  12.562
36152SOL    HW210231   3.856  13.915  12.573
36153SOL     OW10232   3.634   4.281  11.204
36153SOL    HW110233   3.685   4.219  11.256
36153SOL    HW210234   3.699   4.343  11.170
36154SOL     OW10235   0.848   5.644  11.879
36154SOL    HW110236   0.923   5.586  11.891
36154SOL    HW210237   0.884   5.732  11.887
36155SOL     OW10238   2.050   9.077   6.898
36155SOL    HW110239   2.085   9.127   6.971
36155SOL    HW210240   1.956   9.073   6.914
36156SOL     OW10241  14.133   3.919   7.837
36156SOL    HW110242  14.056   3.951   7.790
36156SOL    HW210243  14.132   3.824   7.823
36157SOL     OW10244   2.650   5.867  10.427
36157SOL    HW110245   2.717   5.886  10.492
36157SOL    HW210246   2.580   5.825  10.476
36158SOL     OW10247  13.281  14.525   7.099
36158SOL    HW110248  13.188  14.539   7.083
36158SOL    HW210249  13.300  14.440   7.061
36159SOL     OW10250   4.266   7.728  10.733
36159SOL    HW110251   4.315   7.777  10.799
36159SOL    HW210252   4.227   7.794  10.677
36160SOL     OW10253   3.341   0.673   2.393
36160SOL    HW110254   3.299   0.685   2.478
36160SOL    HW210255   3.277   0.624   2.341
36161SOL     OW10256   3.108   6.804  14.441
36161SOL    HW110257   3.151   6.841  14.364
36161SOL    HW210258   3.015   6.824  14.429
36162SOL     OW10259   5.324   9.066   3.450
36162SOL    HW110260   5.256   9.081   3.385
36162SOL    HW210261   5.388   9.011   3.406
36163SOL     OW10262   2.581   1.942   0.815
36163SOL    HW110263   2.675   1.929   0.810
36163SOL    HW210264   2.557   1.912   0.903
36164SOL     OW10265   1.357   4.403   7.450
36164SOL    HW110266   1.446   4.413   7.416
36164SOL    HW210267   1.320   4.332   7.398
36165SOL     OW10268  13.763   0.276  14.150
36165SOL    HW110269  13.718   0.192  14.159
36165SOL    HW210270  13.814   0.268  14.070
36166SOL     OW10271  11.709   3.758   4.327
36166SOL    HW110272  11.738   3.839   4.369
36166SOL    HW210273  11.614   3.758   4.339
36167SOL     OW10274   5.986  11.568   5.417
36167SOL    HW110275   5.975  11.600   5.506
36167SOL    HW210276   6.060  11.619   5.382
36168SOL     OW10277  11.799   4.314  10.517
36168SOL    HW110278  11.798   4.402  10.556
36168SOL    HW210279  11.860   4.321  10.444
36169SOL     OW10280   0.627   4.730  14.321
36169SOL    HW110281   0.622   4.635  14.315
36169SOL    HW210282   0.654   4.747  14.411
36170SOL     OW10283   6.751  13.865   8.016
36170SOL    HW110284   6.680  13.801   8.011
36170SOL    HW210285   6.823  13.825   7.967
36171SOL     OW10286   9.475   3.769  10.454
36171SOL    HW110287   9.462   3.677  10.430
36171SOL    HW210288   9.424   3.818  10.389
36172SOL     OW10289   9.547   2.809   2.276
36172SOL    HW110290   9.529   2.889   2.324
36172SOL    HW210291   9.643   2.802   2.276
36173SOL     OW10292   4.905   0.368   4.786
36173SOL    HW110293   4.883   0.444   4.733
36173SOL    HW210294   4.874   0.293   4.735
36174SOL     OW10295   3.516  12.848   4.839
36174SOL    HW110296   3.455  12.773   4.842
36174SOL    HW210297   3.481  12.909   4.904
36175SOL     OW10298   7.095   6.552  13.494
36175SOL    HW110299   7.095   6.575  13.587
36175SOL    HW210300   7.064   6.461  13.491
36176SOL     OW10301   3.241  11.162   2.419
36176SOL    HW110302   3.271  11.251   2.441
36176SOL    HW210303   3.251  11.156   2.324
36177SOL     OW10304   6.199  12.418   6.691
36177SOL    HW110305   6.208  12.508   6.722
36177SOL    HW210306   6.288  12.383   6.692
36178SOL     OW10307   7.919   9.609   3.916
36178SOL    HW110308   7.958   9.634   3.832
36178SOL    HW210309   7.988   9.560   3.961
36179SOL     OW10310   9.299  13.734   9.852
36179SOL    HW110311   9.250  13.807   9.888
36179SOL    HW210312   9.389  13.767   9.844
36180SOL     OW10313   0.276   4.753   8.116
36180SOL    HW110314   0.316   4.720   8.198
36180SOL    HW210315   0.351   4.765   8.057
36181SOL     OW10316  13.429  13.423  13.057
36181SOL    HW110317  13.383  13.402  12.976
36181SOL    HW210318  13.364  13.406  13.126
36182SOL     OW10319   9.747   7.631   5.498
36182SOL    HW110320   9.747   7.714   5.545
36182SOL    HW210321   9.838   7.617   5.473
36183SOL     OW10322   7.889   7.403  10.619
36183SOL    HW110323   7.980   7.385  10.593
36183SOL    HW210324   7.848   7.439  10.540
36184SOL     OW10325   9.121  10.294   9.205
36184SOL    HW110326   9.150  10.239   9.133
36184SOL    HW210327   9.053  10.242   9.248
36185SOL     OW10328   0.228  10.440   7.696
36185SOL    HW110329   0.267  10.475   7.776
36185SOL    HW210330   0.208  10.517   7.643
36186SOL     OW10331   7.251   3.270   1.534
36186SOL    HW110332   7.288   3.267   1.446
36186SOL    HW210333   7.212   3.357   1.540
36187SOL     OW10334   4.024   7.496   2.824
36187SOL    HW110335   3.951   7.434   2.822
36187SOL    HW210336   4.022   7.539   2.739
36188SOL     OW10337  11.361  10.923  14.391
36188SOL    HW110338  11.418  10.938  14.316
36188SOL    HW210339  11.337  11.011  14.421
36189SOL     OW10340  13.359  12.083   7.957
36189SOL    HW110341  13.427  12.147   7.937
36189SOL    HW210342  13.374  12.011   7.896
36190SOL     OW10343   6.331   9.265   2.642
36190SOL    HW110344   6.421   9.275   2.613
36190SOL    HW210345   6.314   9.171   2.635
36191SOL     OW10346   5.762   0.669   1.460
36191SOL    HW110347   5.767   0.656   1.366
36191SOL    HW210348   5.750   0.581   1.496
36192SOL     OW10349  11.440  13.281   8.773
36192SOL    HW110350  11.389  13.360   8.758
36192SOL    HW210351  11.377  13.218   8.810
36193SOL     OW10352   4.951  12.942   3.115
36193SOL    HW110353   4.899  12.923   3.193
36193SOL    HW210354   4.912  13.022   3.079
36194SOL     OW10355  14.160   2.996   2.039
36194SOL    HW110356  14.223   3.061   2.070
36194SOL    HW210357  14.108   3.042   1.974
36195SOL     OW10358  14.496  13.926   5.643
36195SOL    HW110359  14.483  13.921   5.548
36195SOL    HW210360  14.588  13.904   5.655
36196SOL     OW10361   6.569   0.969  10.533
36196SOL    HW110362   6.564   0.926  10.618
36196SOL    HW210363   6.564   0.896  10.470
36197SOL     OW10364  10.845   5.953   1.317
36197SOL    HW110365  10.796   5.981   1.239
36197SOL    HW210366  10.911   5.893   1.283
36198SOL     OW10367   3.670  14.083   4.507
36198SOL    HW110368   3.642  14.001   4.547
36198SOL    HW210369   3.611  14.149   4.545
36199SOL     OW10370   2.557   3.861   4.406
36199SOL    HW110371   2.640   3.820   4.382
36199SOL    HW210372   2.492   3.791   4.397
36200SOL     OW10373   0.848  11.211  12.364
36200SOL    HW110374   0.754  11.224  12.374
36200SOL    HW210375   0.857  11.125  12.323
36201SOL     OW10376   4.964   2.241  11.412
36201SOL    HW110377   5.056   2.219  11.429
36201SOL    HW210378   4.940   2.187  11.337
36202SOL     OW10379  12.077   3.260  11.590
36202SOL    HW110380  12.029   3.216  11.520
36202SOL    HW210381  12.169   3.246  11.569
36203SOL     OW10382  13.744  14.561   7.285
36203SOL    HW110383  13.703  14.583   7.369
36203SOL    HW210384  13.708  14.625   7.223
36204SOL     OW10385   7.284   7.755   1.609
36204SOL    HW110386   7.225   7.700   1.557
36204SOL    HW210387   7.288   7.711   1.694
36205SOL     OW10388   0.397   1.922   9.471
36205SOL    HW110389   0.372   1.861   9.540
36205SOL    HW210390   0.399   2.007   9.514
36206SOL     OW10391  10.587   0.724   0.569
36206SOL    HW110392  10.643   0.784   0.519
36206SOL    HW210393  10.600   0.639   0.528
36207SOL     OW10394  11.933   3.222   8.373
36207SOL    HW110395  11.852   3.173   8.359
36207SOL    HW210396  11.915   3.309   8.336
36208SOL     OW10397   6.779   5.314  13.364
36208SOL    HW110398   6.786   5.409  13.373
36208SOL    HW210399   6.770   5.300  13.270
36209SOL     OW10400  13.927   9.191  14.041
36209SOL    HW110401  13.939   9.230  13.954
36209SOL    HW210402  13.852   9.133  14.031
36210SOL     OW10403  13.559   6.421   5.044
36210SOL    HW110404  13.596   6.454   4.962
36210SOL    HW210405  13.474   6.463   5.051
36211SOL     OW10406   3.036   0.342   9.447
36211SOL    HW110407   3.007   0.351   9.356
36211SOL    HW210408   2.955   0.325   9.496
36212SOL     OW10409   6.556   1.430   6.383
36212SOL    HW110410   6.583   1.495   6.318
36212SOL    HW210411   6.492   1.375   6.337
36213SOL     OW10412  14.111   5.053  12.066
36213SOL    HW110413  14.021   5.060  12.098
36213SOL    HW210414  14.107   5.086  11.977
36214SOL     OW10415   4.019   6.792  12.525
36214SOL    HW110416   4.099   6.838  12.548
36214SOL    HW210417   3.974   6.777  12.609
36215SOL     OW10418   5.606   1.404   6.376
36215SOL    HW110419   5.672   1.400   6.446
36215SOL    HW210420   5.651   1.447   6.303
36216SOL     OW10421   2.475   9.751   7.687
36216SOL    HW110422   2.557   9.709   7.661
36216SOL    HW210423   2.449   9.707   7.767
36217SOL     OW10424   8.175  13.964   5.634
36217SOL    HW110425   8.113  13.891   5.621
36217SOL    HW210426   8.250  13.941   5.579
36218SOL     OW10427  14.362   0.371   6.971
36218SOL    HW110428  14.318   0.357   7.055
36218SOL    HW210429  14.383   0.283   6.941
36219SOL     OW10430   1.388  11.113   3.359
36219SOL    HW110431   1.434  11.033   3.335
36219SOL    HW210432   1.392  11.117   3.454
36220SOL     OW10433   0.480  14.361  13.902
36220SOL    HW110434   0.570  14.381  13.927
36220SOL    HW210435   0.429  14.435  13.933
36221SOL     OW10436   1.077   5.826   0.728
36221SOL    HW110437   1.038   5.811   0.814
36221SOL    HW210438   1.169   5.802   0.739
36222SOL     OW10439   6.787   4.844   1.355
36222SOL    HW110440   6.804   4.826   1.263
36222SOL    HW210441   6.849   4.914   1.379
36223SOL     OW10442  12.430   8.190   0.991
36223SOL    HW110443  12.466   8.134   0.921
36223SOL    HW210444  12.482   8.270   0.987
36224SOL     OW10445   8.212   0.929   3.242
36224SOL    HW110446   8.143   0.893   3.298
36224SOL    HW210447   8.234   1.013   3.284
36225SOL     OW10448   0.692   3.712   7.204
36225SOL    HW110449   0.743   3.633   7.220
36225SOL    HW210450   0.726   3.746   7.121
36226SOL     OW10451   2.190   1.259   0.931
36226SOL    HW110452   2.218   1.243   0.841
36226SOL    HW210453   2.231   1.189   0.982
36227SOL     OW10454  13.160   6.711   2.850
36227SOL    HW110455  13.153   6.794   2.803
36227SOL    HW210456  13.254   6.702   2.868
36228SOL     OW10457  13.769   3.169  11.756
36228SOL    HW110458  13.779   3.250  11.706
36228SOL    HW210459  13.755   3.101  11.690
36229SOL     OW10460   5.715   8.581  10.362
36229SOL    HW110461   5.733   8.500  10.314
36229SOL    HW210462   5.738   8.561  10.453
36230SOL     OW10463  12.506  11.666   9.360
36230SOL    HW110464  12.508  11.651   9.455
36230SOL    HW210465  12.455  11.747   9.351
36231SOL     OW10466   1.714   7.329   5.319
36231SOL    HW110467   1.705   7.244   5.362
36231SOL    HW210468   1.637   7.378   5.348
36232SOL     OW10469  10.887   2.747   6.231
36232SOL    HW110470  10.922   2.689   6.163
36232SOL    HW210471  10.942   2.730   6.307
36233SOL     OW10472   1.559   9.729   1.518
36233SOL    HW110473   1.633   9.708   1.575
36233SOL    HW210474   1.482   9.710   1.572
36234SOL     OW10475   0.281  12.259   7.102
36234SOL    HW110476   0.228  12.183   7.126
36234SOL    HW210477   0.349  12.224   7.044
36235SOL     OW10478   9.427   0.873   1.948
36235SOL    HW110479   9.382   0.809   2.004
36235SOL    HW210480   9.439   0.827   1.865
36236SOL     OW10481  11.610   3.326   5.843
36236SOL    HW110482  11.590   3.357   5.931
36236SOL    HW210483  11.567   3.241   5.837
36237SOL     OW10484   8.076   0.602   0.264
36237SOL    HW110485   8.163   0.566   0.244
36237SOL    HW210486   8.091   0.696   0.272
36238SOL     OW10487   6.984   5.068   8.546
36238SOL    HW110488   6.921   5.124   8.501
36238SOL    HW210489   6.947   4.980   8.538
36239SOL     OW10490  10.319  14.780  10.032
36239SOL    HW110491  10.274  14.850  10.079
36239SOL    HW210492  10.296  14.700  10.081
36240SOL     OW10493  11.642   1.118  13.929
36240SOL    HW110494  11.567   1.091  13.983
36240SOL    HW210495  11.663   1.206  13.960
36241SOL     OW10496   5.364   4.786   4.964
36241SOL    HW110497   5.398   4.785   4.875
36241SOL    HW210498   5.276   4.750   4.957
36242SOL     OW10499   4.379   4.987  14.160
36242SOL    HW110500   4.373   4.921  14.090
36242SOL    HW210501   4.441   4.950  14.222
36243SOL     OW10502   2.361   8.137  11.261
36243SOL    HW110503   2.287   8.120  11.204
36243SOL    HW210504   2.372   8.056  11.311
36244SOL     OW10505   6.748   4.089   6.113
36244SOL    HW110506   6.779   4.179   6.125
36244SOL    HW210507   6.801   4.055   6.040
36245SOL     OW10508   9.997   0.898   4.382
36245SOL    HW110509  10.038   0.820   4.344
36245SOL    HW210510   9.907   0.896   4.348
36246SOL     OW10511  14.433   2.718  13.156
36246SOL    HW110512  14.394   2.635  13.129
36246SOL    HW210513  14.446   2.709  13.250
36247SOL     OW10514  14.247   2.260  14.044
36247SOL    HW110515  14.305   2.323  14.002
36247SOL    HW210516  14.305   2.191  14.077
36248SOL     OW10517  11.492  12.080   1.594
36248SOL    HW110518  11.548  12.008   1.624
36248SOL    HW210519  11.462  12.054   1.507
36249SOL     OW10520   0.104   5.691   2.712
36249SOL    HW110521   0.176   5.702   2.650
36249SOL    HW210522   0.042   5.634   2.667
36250SOL     OW10523   0.685  10.848   0.294
36250SOL    HW110524   0.747  10.888   0.355
36250SOL    HW210525   0.612  10.821   0.349
36251SOL     OW10526  10.535   2.038   6.437
36251SOL    HW110527  10.613   1.982   6.437
36251SOL    HW210528  10.550   2.100   6.365
36252SOL     OW10529  10.086   7.395   9.754
36252SOL    HW110530  10.128   7.481   9.748
36252SOL    HW210531  10.130   7.343   9.687
36253SOL     OW10532   6.967  13.367  12.240
36253SOL    HW110533   7.051  13.381  12.195
36253SOL    HW210534   6.987  13.381  12.332
36254SOL     OW10535   1.276  13.842  14.128
36254SOL    HW110536   1.337  13.884  14.067
36254SOL    HW210537   1.278  13.749  14.103
36255SOL     OW10538  13.794  14.123   6.846
36255SOL    HW110539  13.886  14.148   6.839
36255SOL    HW210540  13.782  14.057   6.778
36256SOL     OW10541   0.530   0.103   5.885
36256SOL    HW110542   0.438   0.079   5.874
36256SOL    HW210543   0.555   0.143   5.801
36257SOL     OW10544   3.689  10.570   0.286
36257SOL    HW110545   3.742  10.598   0.361
36257SOL    HW210546   3.716  10.480   0.270
36258SOL     OW10547  10.183   7.382   5.184
36258SOL    HW110548  10.199   7.453   5.246
36258SOL    HW210549  10.216   7.416   5.100
36259SOL     OW10550  10.823   7.174  11.063
36259SOL    HW110551  10.754   7.162  10.997
36259SOL    HW210552  10.778   7.216  11.137
36260SOL     OW10553  11.187   9.298  12.046
36260SOL    HW110554  11.119   9.302  11.978
36260SOL    HW210555  11.264   9.264  12.000
36261SOL     OW10556   2.059  14.579   3.523
36261SOL    HW110557   2.028  14.662   3.560
36261SOL    HW210558   2.035  14.513   3.587
36262SOL     OW10559   5.623   4.594   4.838
36262SOL    HW110560   5.711   4.630   4.826
36262SOL    HW210561   5.567   4.649   4.783
36263SOL     OW10562   6.130  10.780   4.472
36263SOL    HW110563   6.192  10.707   4.468
36263SOL    HW210564   6.183  10.857   4.452
36264SOL     OW10565  12.820   0.216   4.889
36264SOL    HW110566  12.889   0.260   4.839
36264SOL    HW210567  12.761   0.181   4.822
36265SOL     OW10568   8.186  10.795  14.676
36265SOL    HW110569   8.263  10.739  14.683
36265SOL    HW210570   8.118  10.749  14.726
36266SOL     OW10571   1.353   3.987  10.944
36266SOL    HW110572   1.284   3.981  10.878
36266SOL    HW210573   1.386   4.077  10.936
36267SOL     OW10574  10.883   8.929  13.940
36267SOL    HW110575  10.848   8.851  13.896
36267SOL    HW210576  10.972   8.903  13.965
36268SOL     OW10577   6.486   9.539   4.794
36268SOL    HW110578   6.424   9.567   4.862
36268SOL    HW210579   6.455   9.581   4.714
36269SOL     OW10580   5.196   4.445   5.294
36269SOL    HW110581   5.142   4.500   5.351
36269SOL    HW210582   5.182   4.479   5.206
36270SOL     OW10583  11.399   1.751   0.671
36270SOL    HW110584  11.402   1.818   0.739
36270SOL    HW210585  11.367   1.798   0.593
36271SOL     OW10586   9.634  14.638   8.361
36271SOL    HW110587   9.590  14.684   8.433
36271SOL    HW210588   9.568  14.578   8.327
36272SOL     OW10589   3.874   9.895   8.423
36272SOL    HW110590   3.784   9.904   8.455
36272SOL    HW210591   3.867   9.840   8.346
36273SOL     OW10592   3.670   4.023  11.436
36273SOL    HW110593   3.585   4.063  11.457
36273SOL    HW210594   3.731   4.066  11.496
36274SOL     OW10595   2.256   6.897   4.908
36274SOL    HW110596   2.322   6.902   4.840
36274SOL    HW210597   2.255   6.984   4.948
36275SOL     OW10598   1.878   7.544   2.705
36275SOL    HW110599   1.860   7.637   2.706
36275SOL    HW210600   1.914   7.525   2.792
36276SOL     OW10601   3.306  14.755  12.489
36276SOL    HW110602   3.376  14.716  12.542
36276SOL    HW210603   3.342  14.759  12.401
36277SOL     OW10604  11.147   7.568   9.628
36277SOL    HW110605  11.215   7.617   9.581
36277SOL    HW210606  11.066   7.618   9.613
36278SOL     OW10607   5.326   9.447  11.513
36278SOL    HW110608   5.342   9.417  11.423
36278SOL    HW210609   5.234   9.474  11.513
36279SOL     OW10610  13.496   1.432   2.421
36279SOL    HW110611  13.537   1.436   2.335
36279SOL    HW210612  13.406   1.461   2.406
36280SOL     OW10613   6.427   2.319   7.983
36280SOL    HW110614   6.455   2.240   8.030
36280SOL    HW210615   6.333   2.325   8.002
36281SOL     OW10616   6.304   8.980   3.632
36281SOL    HW110617   6.254   8.937   3.702
36281SOL    HW210618   6.274   8.937   3.552
36282SOL     OW10619   6.668   6.449  11.155
36282SOL    HW110620   6.633   6.363  11.131
36282SOL    HW210621   6.762   6.442  11.139
36283SOL     OW10622   2.467  11.158   6.730
36283SOL    HW110623   2.416  11.131   6.654
36283SOL    HW210624   2.432  11.106   6.802
36284SOL     OW10625   4.501   4.662   7.317
36284SOL    HW110626   4.549   4.743   7.295
36284SOL    HW210627   4.499   4.661   7.412
36285SOL     OW10628   7.106  12.578   2.213
36285SOL    HW110629   7.200  12.558   2.214
36285SOL    HW210630   7.069  12.521   2.281
36286SOL     OW10631   3.407   4.334   9.297
36286SOL    HW110632   3.498   4.335   9.329
36286SOL    HW210633   3.395   4.422   9.260
36287SOL     OW10634   7.499  11.596   0.911
36287SOL    HW110635   7.588  11.561   0.918
36287SOL    HW210636   7.495  11.665   0.978
36288SOL     OW10637   8.694   0.865   3.421
36288SOL    HW110638   8.644   0.822   3.490
36288SOL    HW210639   8.696   0.802   3.350
36289SOL     OW10640  10.136   1.649  11.735
36289SOL    HW110641  10.121   1.637  11.641
36289SOL    HW210642  10.079   1.722  11.760
36290SOL     OW10643   1.768  11.933  14.262
36290SOL    HW110644   1.746  12.018  14.223
36290SOL    HW210645   1.729  11.936  14.350
36291SOL     OW10646   5.942   8.302  10.874
36291SOL    HW110647   6.016   8.247  10.848
36291SOL    HW210648   5.982   8.383  10.905
36292SOL     OW10649  13.493   5.971   9.330
36292SOL    HW110650  13.466   5.885   9.363
36292SOL    HW210651  13.477   5.966   9.236
36293SOL     OW10652   0.346  13.767   8.286
36293SOL    HW110653   0.358  13.854   8.248
36293SOL    HW210654   0.428  13.748   8.330
36294SOL     OW10655   4.284   0.798   4.848
36294SOL    HW110656   4.282   0.861   4.776
36294SOL    HW210657   4.250   0.717   4.809
36295SOL     OW10658   5.963   8.209   6.302
36295SOL    HW110659   5.896   8.240   6.242
36295SOL    HW210660   5.990   8.124   6.266
36296SOL     OW10661   2.226   7.861   5.512
36296SOL    HW110662   2.269   7.837   5.430
36296SOL    HW210663   2.145   7.904   5.486
36297SOL     OW10664   9.932   1.292   2.883
36297SOL    HW110665  10.011   1.265   2.929
36297SOL    HW210666   9.934   1.388   2.885
36298SOL     OW10667   5.245  13.033  10.930
36298SOL    HW110668   5.265  13.022  11.023
36298SOL    HW210669   5.163  13.082  10.929
36299SOL     OW10670  11.500   1.469   9.928
36299SOL    HW110671  11.521   1.419  10.007
36299SOL    HW210672  11.585   1.488   9.889
36300SOL     OW10673   5.941   7.059   3.544
36300SOL    HW110674   6.002   6.986   3.540
36300SOL    HW210675   5.862   7.026   3.500
36301SOL     OW10676   7.130  14.172   0.958
36301SOL    HW110677   7.126  14.245   0.896
36301SOL    HW210678   7.221  14.143   0.954
36302SOL     OW10679   0.012   6.427   1.420
36302SOL    HW110680   0.095   6.405   1.379
36302SOL    HW210681   0.037   6.470   1.502
36303SOL     OW10682   8.756   2.400  12.848
36303SOL    HW110683   8.831   2.387  12.790
36303SOL    HW210684   8.765   2.332  12.915
36304SOL     OW10685   9.701  11.357   7.073
36304SOL    HW110686   9.634  11.334   7.136
36304SOL    HW210687   9.758  11.280   7.069
36305SOL     OW10688   3.849   2.259   8.435
36305SOL    HW110689   3.812   2.264   8.523
36305SOL    HW210690   3.879   2.348   8.416
36306SOL     OW10691  13.631   9.383   8.539
36306SOL    HW110692  13.592   9.421   8.461
36306SOL    HW210693  13.693   9.449   8.570
36307SOL     OW10694   5.376  14.176   8.057
36307SOL    HW110695   5.459  14.136   8.031
36307SOL    HW210696   5.397  14.225   8.137
36308SOL     OW10697   0.307   7.830   9.090
36308SOL    HW110698   0.276   7.886   9.018
36308SOL    HW210699   0.288   7.879   9.169
36309SOL     OW10700  14.590  14.113   1.767
36309SOL    HW110701  14.567  14.198   1.803
36309SOL    HW210702  14.681  14.123   1.738
36310SOL     OW10703   7.524  12.581   0.939
36310SOL    HW110704   7.597  12.616   0.888
36310SOL    HW210705   7.459  12.651   0.940
36311SOL     OW10706   2.396   0.221  13.907
36311SOL    HW110707   2.308   0.253  13.889
36311SOL    HW210708   2.437   0.212  13.820
36312SOL     OW10709  12.923   3.353   9.097
36312SOL    HW110710  12.852   3.292   9.076
36312SOL    HW210711  12.969   3.311   9.170
36313SOL     OW10712  12.985  11.732   4.406
36313SOL    HW110713  13.072  11.703   4.434
36313SOL    HW210714  12.931  11.653   4.412
36314SOL     OW10715  11.118   1.665   7.751
36314SOL    HW110716  11.067   1.583   7.747
36314SOL    HW210717  11.054   1.731   7.776
36315SOL     OW10718   7.591  14.442   7.762
36315SOL    HW110719   7.556  14.420   7.675
36315SOL    HW210720   7.530  14.400   7.823
36316SOL     OW10721   9.394   3.333  10.561
36316SOL    HW110722   9.394   3.283  10.480
36316SOL    HW210723   9.337   3.284  10.620
36317SOL     OW10724   2.450  12.014   8.708
36317SOL    HW110725   2.474  11.923   8.693
36317SOL    HW210726   2.534  12.058   8.726
36318SOL     OW10727   0.501  12.140   4.493
36318SOL    HW110728   0.556  12.203   4.540
36318SOL    HW210729   0.426  12.191   4.462
36319SOL     OW10730   9.618   9.718  10.373
36319SOL    HW110731   9.668   9.735  10.293
36319SOL    HW210732   9.526   9.723  10.346
36320SOL     OW10733   3.025   5.360   6.863
36320SOL    HW110734   3.025   5.424   6.792
36320SOL    HW210735   3.113   5.362   6.899
36321SOL     OW10736  14.519   9.664   1.474
36321SOL    HW110737  14.504   9.713   1.393
36321SOL    HW210738  14.516   9.572   1.448
36322SOL     OW10739   8.925  14.682  12.345
36322SOL    HW110740   8.987  14.642  12.407
36322SOL    HW210741   8.958  14.657  12.259
36323SOL     OW10742   1.982  12.032   4.974
36323SOL    HW110743   1.984  12.091   5.050
36323SOL    HW210744   1.932  12.081   4.908
36324SOL     OW10745  14.327  13.760  13.188
36324SOL    HW110746  14.263  13.727  13.252
36324SOL    HW210747  14.298  13.849  13.168
36325SOL     OW10748  10.592  12.252   6.076
36325SOL    HW110749  10.669  12.302   6.103
36325SOL    HW210750  10.571  12.285   5.988
36326SOL     OW10751  10.292  13.348  11.224
36326SOL    HW110752  10.362  13.384  11.279
36326SOL    HW210753  10.339  13.312  11.148
36327SOL     OW10754   8.463   8.920   4.685
36327SOL    HW110755   8.411   9.000   4.675
36327SOL    HW210756   8.505   8.908   4.599
36328SOL     OW10757   5.140   0.713  13.147
36328SOL    HW110758   5.217   0.711  13.090
36328SOL    HW210759   5.176   0.717  13.235
36329SOL     OW10760   6.311  10.384   5.773
36329SOL    HW110761   6.388  10.328   5.767
36329SOL    HW210762   6.282  10.395   5.682
36330SOL     OW10763  10.695   2.784  11.719
36330SOL    HW110764  10.743   2.828  11.649
36330SOL    HW210765  10.661   2.704  11.678
36331SOL     OW10766   5.554  12.575   6.682
36331SOL    HW110767   5.572  12.629   6.605
36331SOL    HW210768   5.628  12.589   6.740
36332SOL     OW10769   6.336   8.067   6.178
36332SOL    HW110770   6.347   8.085   6.272
36332SOL    HW210771   6.244   8.040   6.170
36333SOL     OW10772   3.507   1.216   9.253
36333SOL    HW110773   3.597   1.237   9.232
36333SOL    HW210774   3.470   1.298   9.288
36334SOL     OW10775   5.560  13.484   1.486
36334SOL    HW110776   5.644  13.476   1.440
36334SOL    HW210777   5.557  13.408   1.544
36335SOL     OW10778  14.664   2.095   0.442
36335SOL    HW110779  14.746   2.107   0.395
36335SOL    HW210780  14.650   2.179   0.487
36336SOL     OW10781   6.815  13.970   8.494
36336SOL    HW110782   6.741  13.925   8.535
36336SOL    HW210783   6.837  14.040   8.556
36337SOL     OW10784   1.865   9.745   8.408
36337SOL    HW110785   1.814   9.666   8.424
36337SOL    HW210786   1.908   9.763   8.492
36338SOL     OW10787   1.788  13.154  11.021
36338SOL    HW110788   1.862  13.214  11.021
36338SOL    HW210789   1.790  13.114  10.934
36339SOL     OW10790   9.003   9.688   3.500
36339SOL    HW110791   9.043   9.728   3.423
36339SOL    HW210792   9.002   9.594   3.481
36340SOL     OW10793   8.462   9.366  11.753
36340SOL    HW110794   8.444   9.443  11.699
36340SOL    HW210795   8.481   9.296  11.691
36341SOL     OW10796   7.001   8.546  13.657
36341SOL    HW110797   6.926   8.596  13.690
36341SOL    HW210798   6.962   8.469  13.617
36342SOL     OW10799   1.473   6.273   0.933
36342SOL    HW110800   1.428   6.194   0.902
36342SOL    HW210801   1.470   6.333   0.859
36343SOL     OW10802   9.646   3.600   0.315
36343SOL    HW110803   9.697   3.523   0.290
36343SOL    HW210804   9.675   3.620   0.404
36344SOL     OW10805   1.802  13.499   3.459
36344SOL    HW110806   1.714  13.520   3.489
36344SOL    HW210807   1.799  13.513   3.364
36345SOL     OW10808   8.381   3.355   8.570
36345SOL    HW110809   8.464   3.310   8.585
36345SOL    HW210810   8.319   3.284   8.549
36346SOL     OW10811   9.921  12.625   9.429
36346SOL    HW110812   9.912  12.619   9.524
36346SOL    HW210813   9.894  12.540   9.397
36347SOL     OW10814   5.922  10.444  12.636
36347SOL    HW110815   5.856  10.396  12.585
36347SOL    HW210816   5.918  10.404  12.723
36348SOL     OW10817   9.606  11.074   9.043
36348SOL    HW110818   9.633  11.055   9.133
36348SOL    HW210819   9.594  11.169   9.041
36349SOL     OW10820  12.697   3.216   1.201
36349SOL    HW110821  12.706   3.293   1.257
36349SOL    HW210822  12.605   3.193   1.206
36350SOL     OW10823  13.101  10.753   2.070
36350SOL    HW110824  13.095  10.668   2.025
36350SOL    HW210825  13.110  10.817   1.999
36351SOL     OW10826   6.031  12.104   3.159
36351SOL    HW110827   6.023  12.107   3.254
36351SOL    HW210828   6.036  12.195   3.132
36352SOL     OW10829   0.684  11.554   8.702
36352SOL    HW110830   0.669  11.462   8.725
36352SOL    HW210831   0.607  11.580   8.651
36353SOL     OW10832   0.308   8.123  14.643
36353SOL    HW110833   0.267   8.063  14.705
36353SOL    HW210834   0.334   8.067  14.570
36354SOL     OW10835   2.287   6.223  10.935
36354SOL    HW110836   2.244   6.297  10.976
36354SOL    HW210837   2.369   6.259  10.900
36355SOL     OW10838   4.310  13.990  10.255
36355SOL    HW110839   4.269  14.071  10.227
36355SOL    HW210840   4.266  13.967  10.337
36356SOL     OW10841   5.174  13.409   4.418
36356SOL    HW110842   5.185  13.490   4.468
36356SOL    HW210843   5.079  13.395   4.415
36357SOL     OW10844   4.787  13.858   7.457
36357SOL    HW110845   4.779  13.765   7.437
36357SOL    HW210846   4.872  13.884   7.420
36358SOL     OW10847   2.886  12.080   6.307
36358SOL    HW110848   2.915  12.009   6.365
36358SOL    HW210849   2.886  12.158   6.362
36359SOL     OW10850   1.697  11.511   4.213
36359SOL    HW110851   1.671  11.591   4.258
36359SOL    HW210852   1.625  11.450   4.232
36360SOL     OW10853   1.928  13.430   6.296
36360SOL    HW110854   2.007  13.387   6.330
36360SOL    HW210855   1.961  13.499   6.238
36361SOL     OW10856   8.183  11.542  13.928
36361SOL    HW110857   8.238  11.518  13.853
36361SOL    HW210858   8.144  11.626  13.903
36362SOL     OW10859  13.918  10.596   6.180
36362SOL    HW110860  13.968  10.662   6.131
36362SOL    HW210861  13.870  10.548   6.113
36363SOL     OW10862  12.374   9.656   1.285
36363SOL    HW110863  12.340   9.647   1.374
36363SOL    HW210864  12.428   9.735   1.288
36364SOL     OW10865   0.174   4.658  11.607
36364SOL    HW110866   0.131   4.591  11.553
36364SOL    HW210867   0.158   4.740  11.562
36365SOL     OW10868  10.203   8.229   7.434
36365SOL    HW110869  10.267   8.220   7.363
36365SOL    HW210870  10.175   8.139   7.452
36366SOL     OW10871  13.441   8.928  14.718
36366SOL    HW110872  13.371   8.904  14.657
36366SOL    HW210873  13.516   8.949  14.662
36367SOL     OW10874   5.822   9.758   9.872
36367SOL    HW110875   5.821   9.678   9.818
36367SOL    HW210876   5.913   9.768   9.899
36368SOL     OW10877   2.299   1.571   3.590
36368SOL    HW110878   2.342   1.593   3.507
36368SOL    HW210879   2.249   1.650   3.613
36369SOL     OW10880   3.451   4.015   9.449
36369SOL    HW110881   3.399   4.033   9.371
36369SOL    HW210882   3.388   4.012   9.521
36370SOL     OW10883   2.221  10.048   7.372
36370SOL    HW110884   2.178  10.025   7.454
36370SOL    HW210885   2.296  10.102   7.399
36371SOL     OW10886   5.967   8.026   8.952
36371SOL    HW110887   5.983   8.119   8.938
36371SOL    HW210888   5.881   8.010   8.915
36372SOL     OW10889   1.707   4.498   7.505
36372SOL    HW110890   1.677   4.520   7.593
36372SOL    HW210891   1.792   4.456   7.518
36373SOL     OW10892  10.386  10.850   9.217
36373SOL    HW110893  10.313  10.865   9.276
36373SOL    HW210894  10.452  10.805   9.271
36374SOL     OW10895   5.450  13.889   9.331
36374SOL    HW110896   5.453  13.983   9.344
36374SOL    HW210897   5.507  13.853   9.399
36375SOL     OW10898   2.310  11.807   6.241
36375SOL    HW110899   2.258  11.877   6.281
36375SOL    HW210900   2.396  11.813   6.283
36376SOL     OW10901  11.561   9.569   7.390
36376SOL    HW110902  11.597   9.486   7.422
36376SOL    HW210903  11.600   9.580   7.303
36377SOL     OW10904  12.009   4.607   3.441
36377SOL    HW110905  12.029   4.695   3.410
36377SOL    HW210906  11.975   4.562   3.363
36378SOL     OW10907   0.955  10.509   8.774
36378SOL    HW110908   0.899  10.446   8.820
36378SOL    HW210909   0.900  10.586   8.763
36379SOL     OW10910   2.821   6.393   5.649
36379SOL    HW110911   2.790   6.476   5.615
36379SOL    HW210912   2.779   6.327   5.593
36380SOL     OW10913   8.750   8.356   0.214
36380SOL    HW110914   8.731   8.352   0.308
36380SOL    HW210915   8.837   8.396   0.209
36381SOL     OW10916   2.919   2.066   5.605
36381SOL    HW110917   3.007   2.063   5.568
36381SOL    HW210918   2.866   2.015   5.544
36382SOL     OW10919   1.545  14.031   5.695
36382SOL    HW110920   1.485  14.047   5.622
36382SOL    HW210921   1.502  13.964   5.747
36383SOL     OW10922   5.969   5.566   0.026
36383SOL    HW110923   5.993   5.658   0.038
36383SOL    HW210924   5.876   5.563   0.046
36384SOL     OW10925   9.330   1.969   2.094
36384SOL    HW110926   9.332   2.047   2.149
36384SOL    HW210927   9.402   1.915   2.126
36385SOL     OW10928   7.019  12.379   9.853
36385SOL    HW110929   7.028  12.344   9.764
36385SOL    HW210930   7.053  12.468   9.848
36386SOL     OW10931  13.017   5.977   8.112
36386SOL    HW110932  13.037   5.904   8.171
36386SOL    HW210933  13.034   5.943   8.024
36387SOL     OW10934  10.871   2.230   8.741
36387SOL    HW110935  10.914   2.220   8.825
36387SOL    HW210936  10.782   2.196   8.755
36388SOL     OW10937   8.474  14.537   1.962
36388SOL    HW110938   8.428  14.586   2.030
36388SOL    HW210939   8.503  14.457   2.005
36389SOL     OW10940  11.331  13.325   8.452
36389SOL    HW110941  11.263  13.354   8.391
36389SOL    HW210942  11.283  13.300   8.532
36390SOL     OW10943   3.823   0.205   2.014
36390SOL    HW110944   3.878   0.135   2.050
36390SOL    HW210945   3.829   0.275   2.079
36391SOL     OW10946   7.537   9.837   2.831
36391SOL    HW110947   7.495   9.763   2.876
36391SOL    HW210948   7.597   9.796   2.768
36392SOL     OW10949   9.214  11.702   4.659
36392SOL    HW110950   9.141  11.647   4.689
36392SOL    HW210951   9.182  11.742   4.578
36393SOL     OW10952   7.705  12.898  11.147
36393SOL    HW110953   7.690  12.938  11.232
36393SOL    HW210954   7.788  12.850  11.157
36394SOL     OW10955   3.031  12.272   1.452
36394SOL    HW110956   3.041  12.352   1.502
36394SOL    HW210957   2.949  12.234   1.484
36395SOL     OW10958   2.000   7.769   5.214
36395SOL    HW110959   1.976   7.710   5.143
36395SOL    HW210960   2.079   7.731   5.252
36396SOL     OW10961   2.664  13.535  11.895
36396SOL    HW110962   2.649  13.555  11.803
36396SOL    HW210963   2.724  13.461  11.894
36397SOL     OW10964   0.541   1.131  14.012
36397SOL    HW110965   0.465   1.078  13.990
36397SOL    HW210966   0.612   1.093  13.960
36398SOL     OW10967   9.499   1.616   0.012
36398SOL    HW110968   9.542   1.545   0.060
36398SOL    HW210969   9.420   1.635   0.063
36399SOL     OW10970  10.212   7.667  11.588
36399SOL    HW110971  10.190   7.622  11.669
36399SOL    HW210972  10.304   7.645  11.573
36400SOL     OW10973   8.912   9.085   5.171
36400SOL    HW110974   8.939   9.072   5.262
36400SOL    HW210975   8.984   9.048   5.120
36401SOL     OW10976  11.332  11.411  13.239
36401SOL    HW110977  11.305  11.327  13.202
36401SOL    HW210978  11.419  11.395  13.274
36402SOL     OW10979   9.446   8.381   5.350
36402SOL    HW110980   9.361   8.365   5.311
36402SOL    HW210981   9.429   8.444   5.420
36403SOL     OW10982   2.956   9.466  12.857
36403SOL    HW110983   2.885   9.507  12.807
36403SOL    HW210984   2.911   9.418  12.926
36404SOL     OW10985   8.334   5.631  13.035
36404SOL    HW110986   8.265   5.667  12.979
36404SOL    HW210987   8.415   5.668  13.000
36405SOL     OW10988   8.932  10.897   6.439
36405SOL    HW110989   8.962  10.942   6.518
36405SOL    HW210990   9.010  10.852   6.406
36406SOL     OW10991  11.984  11.544   9.459
36406SOL    HW110992  12.059  11.563   9.515
36406SOL    HW210993  12.023  11.531   9.372
36407SOL     OW10994  14.664  10.436  10.412
36407SOL    HW110995  14.673  10.503  10.480
36407SOL    HW210996  14.747  10.437  10.365
36408SOL     OW10997   8.392  10.277  13.403
36408SOL    HW110998   8.468  10.266  13.461
36408SOL    HW210999   8.317  10.260  13.459
36409SOL     OW11000  10.583   3.884   6.334
36409SOL    HW111001  10.506   3.922   6.376
36409SOL    HW211002  10.548   3.830   6.263
36410SOL     OW11003  13.098  11.339   0.046
36410SOL    HW111004  13.050  11.372   0.122
36410SOL    HW211005  13.104  11.414  14.864
36411SOL     OW11006   7.320  13.480   1.783
36411SOL    HW111007   7.307  13.461   1.690
36411SOL    HW211008   7.414  13.468   1.797
36412SOL     OW11009  13.542  12.323  11.076
36412SOL    HW111010  13.453  12.357  11.067
36412SOL    HW211011  13.574  12.315  10.986
36413SOL     OW11012   1.737   4.206   8.510
36413SOL    HW111013   1.657   4.258   8.507
36413SOL    HW211014   1.807   4.270   8.520
36414SOL     OW11015  12.178   7.467  14.874
36414SOL    HW111016  12.202   7.400   0.061
36414SOL    HW211017  12.172   7.419  14.791
36415SOL     OW11018  12.293   9.355  11.909
36415SOL    HW111019  12.375   9.404  11.900
36415SOL    HW211020  12.283   9.342  12.003
36416SOL     OW11021   7.647   6.417   2.684
36416SOL    HW111022   7.608   6.454   2.762
36416SOL    HW211023   7.738   6.399   2.708
36417SOL     OW11024   4.794   2.145   7.661
36417SOL    HW111025   4.744   2.073   7.699
36417SOL    HW211026   4.833   2.190   7.736
36418SOL     OW11027   9.562   0.030   8.538
36418SOL    HW111028   9.471   0.048   8.562
36418SOL    HW211029   9.587  14.834   8.593
36419SOL     OW11030   6.844   4.594   0.455
36419SOL    HW111031   6.919   4.594   0.395
36419SOL    HW211032   6.883   4.594   0.543
36420SOL     OW11033   6.392  12.058   9.985
36420SOL    HW111034   6.354  12.031  10.068
36420SOL    HW211035   6.481  12.087  10.007
36421SOL     OW11036  11.607  11.969   9.928
36421SOL    HW111037  11.624  11.960   9.834
36421SOL    HW211038  11.649  11.893   9.968
36422SOL     OW11039   3.376   5.944   1.419
36422SOL    HW111040   3.434   5.951   1.343
36422SOL    HW211041   3.428   5.896   1.484
36423SOL     OW11042   4.968  12.387   4.329
36423SOL    HW111043   4.975  12.390   4.234
36423SOL    HW211044   5.006  12.302   4.353
36424SOL     OW11045  13.089   3.710   9.815
36424SOL    HW111046  13.127   3.765   9.747
36424SOL    HW211047  13.164   3.672   9.860
36425SOL     OW11048   9.399   1.366   9.423
36425SOL    HW111049   9.492   1.362   9.401
36425SOL    HW211050   9.378   1.277   9.454
36426SOL     OW11051  14.225   1.618   5.679
36426SOL    HW111052  14.291   1.568   5.726
36426SOL    HW211053  14.251   1.611   5.587
36427SOL     OW11054  13.794  10.908  10.123
36427SOL    HW111055  13.854  10.957  10.068
36427SOL    HW211056  13.804  10.947  10.210
36428SOL     OW11057   4.712  14.586   0.552
36428SOL    HW111058   4.754  14.661   0.510
36428SOL    HW211059   4.623  14.585   0.515
36429SOL     OW11060   7.515  13.657  11.971
36429SOL    HW111061   7.595  13.677  12.021
36429SOL    HW211062   7.469  13.740  11.965
36430SOL     OW11063   4.642   0.145   2.555
36430SOL    HW111064   4.626   0.164   2.462
36430SOL    HW211065   4.642   0.230   2.598
36431SOL     OW11066  12.939   0.477   0.599
36431SOL    HW111067  12.978   0.442   0.519
36431SOL    HW211068  12.845   0.474   0.584
36432SOL     OW11069   8.071   7.573   8.966
36432SOL    HW111070   8.067   7.615   9.052
36432SOL    HW211071   8.143   7.618   8.921
36433SOL     OW11072   1.357  13.325  10.783
36433SOL    HW111073   1.316  13.264  10.722
36433SOL    HW211074   1.299  13.326  10.859
36434SOL     OW11075   1.676   9.697   7.990
36434SOL    HW111076   1.627   9.770   8.030
36434SOL    HW211077   1.616   9.662   7.924
36435SOL     OW11078   1.810   9.945  13.489
36435SOL    HW111079   1.817   9.866  13.541
36435SOL    HW211080   1.855   9.925  13.407
36436SOL     OW11081   5.889   4.221  14.610
36436SOL    HW111082   5.835   4.216  14.531
36436SOL    HW211083   5.868   4.141  14.658
36437SOL     OW11084   7.777   2.433  12.501
36437SOL    HW111085   7.799   2.470  12.586
36437SOL    HW211086   7.856   2.388  12.473
36438SOL     OW11087   9.284  11.784  13.781
36438SOL    HW111088   9.272  11.725  13.707
36438SOL    HW211089   9.329  11.731  13.847
36439SOL     OW11090  11.759   4.153  10.244
36439SOL    HW111091  11.747   4.244  10.219
36439SOL    HW211092  11.692   4.137  10.312
36440SOL     OW11093   1.400   2.684  11.675
36440SOL    HW111094   1.345   2.704  11.599
36440SOL    HW211095   1.442   2.767  11.697
36441SOL     OW11096  12.218  13.935   9.787
36441SOL    HW111097  12.148  13.957   9.725
36441SOL    HW211098  12.174  13.881   9.853
36442SOL     OW11099   4.410   0.298   5.771
36442SOL    HW111100   4.474   0.292   5.701
36442SOL    HW211101   4.429   0.223   5.828
36443SOL     OW11102  10.068   8.431   1.869
36443SOL    HW111103  10.095   8.516   1.836
36443SOL    HW211104  10.104   8.368   1.806
36444SOL     OW11105   0.628   3.500   3.754
36444SOL    HW111106   0.715   3.541   3.749
36444SOL    HW211107   0.594   3.507   3.665
36445SOL     OW11108   2.804   7.673  14.359
36445SOL    HW111109   2.828   7.686  14.450
36445SOL    HW211110   2.823   7.580  14.342
36446SOL     OW11111   8.960  10.376  12.134
36446SOL    HW111112   8.987  10.340  12.219
36446SOL    HW211113   8.874  10.414  12.150
36447SOL     OW11114   8.217   3.424   3.003
36447SOL    HW111115   8.198   3.393   3.092
36447SOL    HW211116   8.313   3.433   3.001
36448SOL     OW11117   4.792  12.932   3.422
36448SOL    HW111118   4.779  13.026   3.433
36448SOL    HW211119   4.838  12.904   3.501
36449SOL     OW11120  11.994  10.154  14.326
36449SOL    HW111121  11.969  10.236  14.370
36449SOL    HW211122  12.006  10.092  14.398
36450SOL     OW11123   9.142   6.461   5.346
36450SOL    HW111124   9.064   6.454   5.400
36450SOL    HW211125   9.184   6.375   5.352
36451SOL     OW11126   9.330   6.725  13.417
36451SOL    HW111127   9.353   6.636  13.394
36451SOL    HW211128   9.336   6.774  13.335
36452SOL     OW11129  14.425  10.448   7.293
36452SOL    HW111130  14.499  10.402   7.333
36452SOL    HW211131  14.383  10.494   7.366
36453SOL     OW11132   3.942  13.256   9.016
36453SOL    HW111133   3.996  13.335   9.013
36453SOL    HW211134   3.970  13.204   8.941
36454SOL     OW11135  11.236  10.876   0.561
36454SOL    HW111136  11.260  10.826   0.639
36454SOL    HW211137  11.282  10.832   0.489
36455SOL     OW11138  11.925   6.808   1.094
36455SOL    HW111139  11.892   6.744   1.032
36455SOL    HW211140  11.906   6.770   1.180
36456SOL     OW11141  10.949  10.275  12.170
36456SOL    HW111142  11.027  10.327  12.151
36456SOL    HW211143  10.983  10.188  12.190
36457SOL     OW11144   4.261   0.449  12.288
36457SOL    HW111145   4.257   0.455  12.192
36457SOL    HW211146   4.262   0.355  12.306
36458SOL     OW11147   6.079  13.690   9.096
36458SOL    HW111148   6.022  13.763   9.121
36458SOL    HW211149   6.145  13.687   9.165
36459SOL     OW11150   5.968   8.392   9.512
36459SOL    HW111151   6.055   8.352   9.512
36459SOL    HW211152   5.956   8.423   9.602
36460SOL     OW11153   7.429  13.033   7.040
36460SOL    HW111154   7.382  13.061   6.961
36460SOL    HW211155   7.393  12.947   7.061
36461SOL     OW11156   0.516  14.707   5.308
36461SOL    HW111157   0.446  14.666   5.358
36461SOL    HW211158   0.479  14.789   5.277
36462SOL     OW11159   1.254  12.747  12.281
36462SOL    HW111160   1.225  12.731  12.370
36462SOL    HW211161   1.180  12.720  12.226
36463SOL     OW11162   6.999  12.270  13.590
36463SOL    HW111163   7.013  12.327  13.515
36463SOL    HW211164   6.906  12.246  13.586
36464SOL     OW11165   3.612   4.893   6.747
36464SOL    HW111166   3.523   4.910   6.777
36464SOL    HW211167   3.610   4.803   6.716
36465SOL     OW11168   0.622  12.913   0.679
36465SOL    HW111169   0.658  12.911   0.590
36465SOL    HW211170   0.539  12.867   0.672
36466SOL     OW11171   3.416  10.869  13.898
36466SOL    HW111172   3.338  10.815  13.909
36466SOL    HW211173   3.383  10.958  13.890
36467SOL     OW11174  10.738   5.794   8.293
36467SOL    HW111175  10.805   5.739   8.333
36467SOL    HW211176  10.775   5.819   8.208
36468SOL     OW11177   1.044  13.217  13.447
36468SOL    HW111178   0.983  13.144  13.449
36468SOL    HW211179   1.063  13.229  13.353
36469SOL     OW11180   0.251   3.723   4.724
36469SOL    HW111181   0.294   3.667   4.789
36469SOL    HW211182   0.308   3.800   4.719
36470SOL     OW11183   6.208   5.032   9.820
36470SOL    HW111184   6.254   5.071   9.746
36470SOL    HW211185   6.188   4.942   9.792
36471SOL     OW11186  14.856  14.853   9.257
36471SOL    HW111187   0.016  14.852   9.169
36471SOL    HW211188   0.047   0.014   9.312
36472SOL     OW11189   6.627  11.899   3.149
36472SOL    HW111190   6.708  11.948   3.167
36472SOL    HW211191   6.577  11.907   3.230
36473SOL     OW11192   1.303   2.495   2.741
36473SOL    HW111193   1.291   2.410   2.698
36473SOL    HW211194   1.311   2.558   2.670
36474SOL     OW11195  11.861   4.829   5.543
36474SOL    HW111196  11.798   4.771   5.586
36474SOL    HW211197  11.807   4.888   5.490
36475SOL     OW11198   7.607  10.803  10.596
36475SOL    HW111199   7.537  10.750  10.558
36475SOL    HW211200   7.642  10.854  10.522
36476SOL     OW11201   4.568  11.976  11.442
36476SOL    HW111202   4.654  11.942  11.416
36476SOL    HW211203   4.586  12.031  11.519
36477SOL     OW11204   8.114  10.414   3.063
36477SOL    HW111205   8.127  10.401   2.969
36477SOL    HW211206   8.019  10.406   3.075
36478SOL     OW11207  13.723   5.543   4.045
36478SOL    HW111208  13.692   5.485   3.975
36478SOL    HW211209  13.784   5.489   4.095
36479SOL     OW11210   2.005   3.894   3.588
36479SOL    HW111211   2.026   3.845   3.668
36479SOL    HW211212   2.007   3.986   3.615
36480SOL     OW11213   0.995  11.989   5.689
36480SOL    HW111214   0.905  12.014   5.667
36480SOL    HW211215   0.991  11.894   5.702
36481SOL     OW11216  14.471   3.752   9.250
36481SOL    HW111217  14.499   3.772   9.161
36481SOL    HW211218  14.428   3.667   9.243
36482SOL     OW11219   0.042   2.060   5.647
36482SOL    HW111220   0.024   2.138   5.594
36482SOL    HW211221  14.837   2.042   5.692
36483SOL     OW11222   3.485   8.917   7.397
36483SOL    HW111223   3.435   8.994   7.426
36483SOL    HW211224   3.564   8.918   7.451
36484SOL     OW11225   9.283  13.491   1.880
36484SOL    HW111226   9.323  13.578   1.890
36484SOL    HW211227   9.198  13.498   1.923
36485SOL     OW11228   5.338   1.385   0.877
36485SOL    HW111229   5.247   1.401   0.854
36485SOL    HW211230   5.357   1.298   0.842
36486SOL     OW11231   1.064  11.032  10.707
36486SOL    HW111232   0.995  10.978  10.668
36486SOL    HW211233   1.069  11.003  10.798
36487SOL     OW11234   4.511   3.894   2.481
36487SOL    HW111235   4.526   3.987   2.499
36487SOL    HW211236   4.491   3.891   2.388
36488SOL     OW11237   2.156   6.162   9.498
36488SOL    HW111238   2.221   6.103   9.536
36488SOL    HW211239   2.208   6.236   9.465
36489SOL     OW11240  14.764   7.449   7.806
36489SOL    HW111241  14.853   7.421   7.785
36489SOL    HW211242  14.740   7.400   7.885
36490SOL     OW11243  12.567  11.886   8.963
36490SOL    HW111244  12.611  11.836   9.033
36490SOL    HW211245  12.638  11.933   8.920
36491SOL     OW11246   3.452   2.423   9.956
36491SOL    HW111247   3.409   2.461   9.880
36491SOL    HW211248   3.518   2.364   9.918
36492SOL     OW11249  13.317   5.257   6.975
36492SOL    HW111250  13.338   5.320   7.044
36492SOL    HW211251  13.320   5.172   7.019
36493SOL     OW11252  13.814   2.569   3.938
36493SOL    HW111253  13.829   2.626   4.014
36493SOL    HW211254  13.814   2.628   3.863
36494SOL     OW11255  14.672   9.296   6.240
36494SOL    HW111256  14.577   9.295   6.225
36494SOL    HW211257  14.688   9.216   6.290
36495SOL     OW11258   7.217  14.378   9.144
36495SOL    HW111259   7.150  14.438   9.112
36495SOL    HW211260   7.297  14.430   9.145
36496SOL     OW11261  10.156   7.295  10.986
36496SOL    HW111262  10.085   7.310  11.048
36496SOL    HW211263  10.166   7.379  10.940
36497SOL     OW11264  13.208   5.723   4.488
36497SOL    HW111265  13.218   5.629   4.476
36497SOL    HW211266  13.123   5.734   4.530
36498SOL     OW11267   5.188   2.863  12.603
36498SOL    HW111268   5.160   2.849  12.693
36498SOL    HW211269   5.284   2.853  12.605
36499SOL     OW11270  11.577   2.405  10.561
36499SOL    HW111271  11.594   2.320  10.602
36499SOL    HW211272  11.567   2.385  10.467
36500SOL     OW11273  13.076  10.133   7.712
36500SOL    HW111274  13.065  10.159   7.803
36500SOL    HW211275  13.134  10.056   7.716
36501SOL     OW11276   4.899   2.452   8.574
36501SOL    HW111277   4.803   2.454   8.572
36501SOL    HW211278   4.922   2.493   8.657
36502SOL     OW11279  14.552   1.252  13.484
36502SOL    HW111280  14.530   1.316  13.417
36502SOL    HW211281  14.639   1.220  13.459
36503SOL     OW11282   7.139  14.321  13.092
36503SOL    HW111283   7.167  14.391  13.151
36503SOL    HW211284   7.139  14.242  13.146
36504SOL     OW11285  14.829   7.732  10.145
36504SOL    HW111286  14.872   7.647  10.153
36504SOL    HW211287  14.742   7.712  10.110
36505SOL     OW11288  10.609  13.154  13.906
36505SOL    HW111289  10.576  13.102  13.833
36505SOL    HW211290  10.535  13.210  13.931
36506SOL     OW11291   8.863   3.267   3.308
36506SOL    HW111292   8.780   3.256   3.261
36506SOL    HW211293   8.869   3.189   3.363
36507SOL     OW11294  14.180   3.339   7.293
36507SOL    HW111295  14.263   3.384   7.278
36507SOL    HW211296  14.158   3.300   7.208
36508SOL     OW11297  10.827   4.372  12.235
36508SOL    HW111298  10.921   4.363  12.222
36508SOL    HW211299  10.801   4.290  12.277
36509SOL     OW11300  12.038  12.716   8.778
36509SOL    HW111301  12.091  12.746   8.703
36509SOL    HW211302  12.099  12.712   8.851
36510SOL     OW11303  10.561   2.958  12.518
36510SOL    HW111304  10.607   2.929  12.439
36510SOL    HW211305  10.585   3.050  12.527
36511SOL     OW11306   7.821   5.881   0.413
36511SOL    HW111307   7.747   5.942   0.408
36511SOL    HW211308   7.799   5.810   0.353
36512SOL     OW11309   3.229   4.194   0.747
36512SOL    HW111310   3.317   4.158   0.757
36512SOL    HW211311   3.228   4.229   0.658
36513SOL     OW11312  11.379   7.269   2.057
36513SOL    HW111313  11.399   7.316   1.976
36513SOL    HW211314  11.449   7.294   2.117
36514SOL     OW11315   2.633   5.406   4.034
36514SOL    HW111316   2.726   5.386   4.019
36514SOL    HW211317   2.606   5.346   4.103
36515SOL     OW11318   4.639   5.011   1.763
36515SOL    HW111319   4.569   4.973   1.816
36515SOL    HW211320   4.636   5.104   1.782
36516SOL     OW11321  10.505   3.923   4.630
36516SOL    HW111322  10.449   3.845   4.636
36516SOL    HW211323  10.477   3.966   4.549
36517SOL     OW11324   1.511   9.100   6.197
36517SOL    HW111325   1.607   9.100   6.193
36517SOL    HW211326   1.489   9.009   6.219
36518SOL     OW11327  10.584   1.314   3.146
36518SOL    HW111328  10.492   1.329   3.168
36518SOL    HW211329  10.587   1.222   3.117
36519SOL     OW11330  14.193   3.806  10.353
36519SOL    HW111331  14.145   3.884  10.327
36519SOL    HW211332  14.125   3.740  10.369
36520SOL     OW11333  12.308   9.733  14.769
36520SOL    HW111334  12.226   9.691  14.795
36520SOL    HW211335  12.339   9.775  14.849
36521SOL     OW11336   3.927   4.146  14.584
36521SOL    HW111337   3.981   4.126  14.661
36521SOL    HW211338   3.900   4.236  14.597
36522SOL     OW11339  12.817   6.160   8.530
36522SOL    HW111340  12.729   6.129   8.551
36522SOL    HW211341  12.832   6.233   8.591
36523SOL     OW11342   9.851   9.279  10.613
36523SOL    HW111343   9.780   9.237  10.565
36523SOL    HW211344   9.860   9.228  10.693
36524SOL     OW11345   7.307   4.075   3.767
36524SOL    HW111346   7.305   3.988   3.728
36524SOL    HW211347   7.392   4.111   3.740
36525SOL     OW11348   5.884  12.115  11.916
36525SOL    HW111349   5.941  12.101  11.992
36525SOL    HW211350   5.822  12.182  11.945
36526SOL     OW11351   3.235  11.833   0.543
36526SOL    HW111352   3.313  11.785   0.516
36526SOL    HW211353   3.255  11.863   0.632
36527SOL     OW11354  13.227  14.644  11.873
36527SOL    HW111355  13.285  14.718  11.887
36527SOL    HW211356  13.257  14.604  11.791
36528SOL     OW11357   1.133   7.855  12.910
36528SOL    HW111358   1.208   7.816  12.866
36528SOL    HW211359   1.107   7.928  12.853
36529SOL     OW11360  14.876   8.494  10.012
36529SOL    HW111361   0.085   8.459   9.992
36529SOL    HW211362   0.014   8.585  10.035
36530SOL     OW11363   4.254  12.098   3.295
36530SOL    HW111364   4.278  12.026   3.238
36530SOL    HW211365   4.182  12.142   3.250
36531SOL     OW11366   6.112   0.526  13.503
36531SOL    HW111367   6.106   0.620  13.519
36531SOL    HW211368   6.137   0.489  13.588
36532SOL     OW11369  13.047  13.579   5.676
36532SOL    HW111370  13.086  13.657   5.716
36532SOL    HW211371  12.953  13.591   5.690
36533SOL     OW11372   8.688  12.167   1.127
36533SOL    HW111373   8.732  12.249   1.106
36533SOL    HW211374   8.730  12.136   1.207
36534SOL     OW11375   9.984  11.008   4.834
36534SOL    HW111376   9.957  10.993   4.743
36534SOL    HW211377   9.907  11.046   4.876
36535SOL     OW11378  10.863   0.273  10.234
36535SOL    HW111379  10.808   0.209  10.188
36535SOL    HW211380  10.898   0.224  10.308
36536SOL     OW11381  13.449  13.042   5.688
36536SOL    HW111382  13.433  13.059   5.595
36536SOL    HW211383  13.418  13.120   5.733
36537SOL     OW11384   4.705  14.845   7.270
36537SOL    HW111385   4.614  14.820   7.287
36537SOL    HW211386   4.736  14.781   7.206
36538SOL     OW11387   6.441  14.396   6.339
36538SOL    HW111388   6.392  14.320   6.310
36538SOL    HW211389   6.478  14.434   6.259
36539SOL     OW11390  14.725   5.958  11.051
36539SOL    HW111391  14.814   5.993  11.042
36539SOL    HW211392  14.711   5.906  10.971
36540SOL     OW11393  11.277  13.760   6.150
36540SOL    HW111394  11.304  13.823   6.084
36540SOL    HW211395  11.248  13.684   6.100
36541SOL     OW11396   0.773   0.088  13.312
36541SOL    HW111397   0.850   0.037  13.286
36541SOL    HW211398   0.733   0.037  13.383
36542SOL     OW11399  10.151   9.409   8.287
36542SOL    HW111400  10.121   9.322   8.316
36542SOL    HW211401  10.090   9.433   8.218
36543SOL     OW11402  11.118  12.680  11.230
36543SOL    HW111403  11.124  12.767  11.191
36543SOL    HW211404  11.203  12.640  11.213
36544SOL     OW11405  10.033  13.900   7.693
36544SOL    HW111406  10.060  13.857   7.774
36544SOL    HW211407  10.075  13.986   7.696
36545SOL     OW11408   0.423   2.888   6.269
36545SOL    HW111409   0.369   2.810   6.253
36545SOL    HW211410   0.363   2.952   6.306
36546SOL     OW11411   1.559   6.991  14.235
36546SOL    HW111412   1.477   6.956  14.270
36546SOL    HW211413   1.620   6.918  14.237
36547SOL     OW11414  11.232   3.966   5.283
36547SOL    HW111415  11.298   3.946   5.349
36547SOL    HW211416  11.206   3.881   5.248
36548SOL     OW11417   4.516   5.027   6.005
36548SOL    HW111418   4.463   4.988   5.935
36548SOL    HW211419   4.538   4.954   6.062
36549SOL     OW11420  14.783   3.133   6.159
36549SOL    HW111421  14.839   3.085   6.098
36549SOL    HW211422  14.769   3.218   6.117
36550SOL     OW11423   7.775   2.722   6.166
36550SOL    HW111424   7.815   2.640   6.197
36550SOL    HW211425   7.741   2.701   6.079
36551SOL     OW11426   5.281   0.018  14.771
36551SOL    HW111427   5.237  14.839  14.836
36551SOL    HW211428   5.302  14.836  14.699
36552SOL     OW11429   1.700  10.797  12.511
36552SOL    HW111430   1.770  10.737  12.487
36552SOL    HW211431   1.745  10.873  12.547
36553SOL     OW11432   5.813   5.296  14.625
36553SOL    HW111433   5.774   5.240  14.691
36553SOL    HW211434   5.875   5.351  14.673
36554SOL     OW11435  13.542   0.229   3.459
36554SOL    HW111436  13.598   0.157   3.431
36554SOL    HW211437  13.525   0.278   3.378
36555SOL     OW11438   8.932  13.898   3.696
36555SOL    HW111439   8.860  13.846   3.660
36555SOL    HW211440   8.962  13.848   3.772
36556SOL     OW11441   4.884   0.612  13.227
36556SOL    HW111442   4.932   0.624  13.145
36556SOL    HW211443   4.796   0.587  13.200
36557SOL     OW11444   6.030   7.277   5.450
36557SOL    HW111445   5.962   7.243   5.392
36557SOL    HW211446   6.044   7.208   5.514
36558SOL     OW11447  14.033  13.501   0.689
36558SOL    HW111448  14.124  13.475   0.705
36558SOL    HW211449  14.002  13.438   0.623
36559SOL     OW11450   0.556  10.243   2.512
36559SOL    HW111451   0.552  10.337   2.529
36559SOL    HW211452   0.616  10.235   2.438
36560SOL     OW11453  12.253   4.897  13.822
36560SOL    HW111454  12.288   4.931  13.904
36560SOL    HW211455  12.164   4.933  13.817
36561SOL     OW11456   8.140  11.813   9.330
36561SOL    HW111457   8.128  11.898   9.288
36561SOL    HW211458   8.054  11.792   9.367
36562SOL     OW11459   7.956   7.697  14.596
36562SOL    HW111460   7.986   7.675  14.507
36562SOL    HW211461   8.027   7.750  14.632
36563SOL     OW11462   8.543  11.220  14.761
36563SOL    HW111463   8.621  11.269  14.736
36563SOL    HW211464   8.577  11.140  14.801
36564SOL     OW11465   7.537   2.142  14.811
36564SOL    HW111466   7.506   2.215  14.757
36564SOL    HW211467   7.458   2.098  14.840
36565SOL     OW11468  12.259  14.625   1.000
36565SOL    HW111469  12.310  14.545   0.988
36565SOL    HW211470  12.210  14.611   1.081
36566SOL     OW11471   3.930   3.197  11.102
36566SOL    HW111472   3.975   3.113  11.103
36566SOL    HW211473   3.914   3.215  11.009
36567SOL     OW11474  14.822  10.434   0.526
36567SOL    HW111475   0.018  10.392   0.570
36567SOL    HW211476  14.746  10.382   0.550
36568SOL     OW11477   9.397   4.043  14.448
36568SOL    HW111478   9.383   3.969  14.507
36568SOL    HW211479   9.426   4.003  14.366
36569SOL     OW11480   1.840  12.864  10.115
36569SOL    HW111481   1.769  12.839  10.056
36569SOL    HW211482   1.833  12.804  10.189
36570SOL     OW11483  10.740   7.227   2.978
36570SOL    HW111484  10.667   7.205   2.920
36570SOL    HW211485  10.788   7.295   2.930
36571SOL     OW11486   4.310   8.873  13.276
36571SOL    HW111487   4.363   8.908  13.347
36571SOL    HW211488   4.368   8.813  13.229
36572SOL     OW11489   0.596   9.648  13.117
36572SOL    HW111490   0.595   9.660  13.212
36572SOL    HW211491   0.646   9.567  13.104
36573SOL     OW11492  12.248   6.351   0.377
36573SOL    HW111493  12.329   6.337   0.328
36573SOL    HW211494  12.180   6.308   0.325
36574SOL     OW11495   4.716   5.688   0.006
36574SOL    HW111496   4.786   5.624  14.871
36574SOL    HW211497   4.666   5.684  14.802
36575SOL     OW11498  13.053  13.633   8.667
36575SOL    HW111499  12.970  13.663   8.704
36575SOL    HW211500  13.060  13.541   8.695
36576SOL     OW11501   0.808  13.863   8.529
36576SOL    HW111502   0.829  13.774   8.557
36576SOL    HW211503   0.865  13.919   8.582
36577SOL     OW11504  10.114   4.577   4.308
36577SOL    HW111505  10.110   4.482   4.322
36577SOL    HW211506  10.144   4.613   4.391
36578SOL     OW11507   4.306  12.206   1.504
36578SOL    HW111508   4.330  12.252   1.585
36578SOL    HW211509   4.333  12.115   1.519
36579SOL     OW11510   9.473   9.128  14.700
36579SOL    HW111511   9.527   9.052  14.679
36579SOL    HW211512   9.395   9.092  14.742
36580SOL     OW11513   4.415  13.898   0.248
36580SOL    HW111514   4.327  13.886   0.282
36580SOL    HW211515   4.470  13.906   0.326
36581SOL     OW11516   8.069   2.260  11.081
36581SOL    HW111517   8.014   2.338  11.076
36581SOL    HW211518   8.036   2.204  11.010
36582SOL     OW11519  10.271  11.632  14.819
36582SOL    HW111520  10.179  11.656  14.831
36582SOL    HW211521  10.311  11.648   0.027
36583SOL     OW11522  12.180   3.600  11.877
36583SOL    HW111523  12.119   3.546  11.827
36583SOL    HW211524  12.125   3.653  11.934
36584SOL     OW11525  14.858   4.890   6.381
36584SOL    HW111526   0.002   4.936   6.300
36584SOL    HW211527  14.830   4.960   6.441
36585SOL     OW11528   9.569   8.352   4.196
36585SOL    HW111529   9.511   8.309   4.134
36585SOL    HW211530   9.524   8.432   4.220
36586SOL     OW11531   1.861   2.158  13.731
36586SOL    HW111532   1.880   2.188  13.642
36586SOL    HW211533   1.880   2.064  13.728
36587SOL     OW11534  10.239   1.167  14.667
36587SOL    HW111535  10.249   1.130  14.579
36587SOL    HW211536  10.317   1.139  14.714
36588SOL     OW11537   2.202   3.736  11.192
36588SOL    HW111538   2.263   3.678  11.147
36588SOL    HW211539   2.195   3.699  11.281
36589SOL     OW11540  13.601   9.142   8.304
36589SOL    HW111541  13.518   9.184   8.328
36589SOL    HW211542  13.660   9.215   8.285
36590SOL     OW11543   8.646   3.421  14.541
36590SOL    HW111544   8.725   3.416  14.487
36590SOL    HW211545   8.576   3.391  14.483
36591SOL     OW11546   2.305   3.558  10.796
36591SOL    HW111547   2.255   3.502  10.855
36591SOL    HW211548   2.307   3.643  10.840
36592SOL     OW11549   9.097  13.408   8.811
36592SOL    HW111550   9.131  13.480   8.759
36592SOL    HW211551   9.007  13.433   8.832
36593SOL     OW11552   5.113   5.876  10.154
36593SOL    HW111553   5.078   5.815  10.090
36593SOL    HW211554   5.205   5.851  10.165
36594SOL     OW11555   5.485   5.535  10.309
36594SOL    HW111556   5.542   5.468  10.270
36594SOL    HW211557   5.476   5.508  10.400
36595SOL     OW11558   4.744  10.944   0.345
36595SOL    HW111559   4.775  10.917   0.432
36595SOL    HW211560   4.803  11.015   0.320
36596SOL     OW11561   6.743   5.793   1.582
36596SOL    HW111562   6.753   5.701   1.607
36596SOL    HW211563   6.822   5.836   1.615
36597SOL     OW11564   5.799   5.655   8.866
36597SOL    HW111565   5.723   5.668   8.922
36597SOL    HW211566   5.853   5.733   8.881
36598SOL     OW11567   3.592   1.538  11.883
36598SOL    HW111568   3.596   1.557  11.790
36598SOL    HW211569   3.515   1.585  11.915
36599SOL     OW11570   8.848  13.933   8.164
36599SOL    HW111571   8.809  13.949   8.249
36599SOL    HW211572   8.836  13.840   8.149
36600SOL     OW11573   6.599   7.020   3.199
36600SOL    HW111574   6.588   7.057   3.286
36600SOL    HW211575   6.661   6.948   3.211
36601SOL     OW11576  12.457   3.047  11.879
36601SOL    HW111577  12.434   3.003  11.961
36601SOL    HW211578  12.548   3.022  11.864
36602SOL     OW11579   5.356  11.749  14.228
36602SOL    HW111580   5.408  11.742  14.149
36602SOL    HW211581   5.330  11.841  14.233
36603SOL     OW11582   0.718  13.375  13.649
36603SOL    HW111583   0.682  13.307  13.592
36603SOL    HW211584   0.646  13.400  13.706
36604SOL     OW11585   9.058  10.685  13.984
36604SOL    HW111586   8.970  10.704  13.952
36604SOL    HW211587   9.085  10.607  13.936
36605SOL     OW11588   4.604   6.201   0.629
36605SOL    HW111589   4.624   6.115   0.591
36605SOL    HW211590   4.509   6.200   0.642
36606SOL     OW11591  14.000   6.235   9.594
36606SOL    HW111592  13.927   6.296   9.599
36606SOL    HW211593  14.033   6.244   9.505
36607SOL     OW11594  12.313   1.304   7.301
36607SOL    HW111595  12.340   1.234   7.360
36607SOL    HW211596  12.232   1.338   7.340
36608SOL     OW11597   7.067  10.872   9.431
36608SOL    HW111598   7.109  10.958   9.432
36608SOL    HW211599   7.009  10.873   9.507
36609SOL     OW11600   9.154   4.280   2.650
36609SOL    HW111601   9.205   4.321   2.720
36609SOL    HW211602   9.219   4.251   2.586
36610SOL     OW11603   9.859   4.251   1.312
36610SOL    HW111604   9.901   4.309   1.375
36610SOL    HW211605   9.931   4.201   1.274
36611SOL     OW11606   0.654  14.344  11.683
36611SOL    HW111607   0.643  14.371  11.592
36611SOL    HW211608   0.674  14.251  11.679
36612SOL     OW11609   9.125   5.061   9.483
36612SOL    HW111610   9.204   5.013   9.507
36612SOL    HW211611   9.114   5.127   9.552
36613SOL     OW11612  13.700  13.757   0.130
36613SOL    HW111613  13.677  13.850   0.136
36613SOL    HW211614  13.793  13.756   0.110
36614SOL     OW11615  14.164  12.709   0.141
36614SOL    HW111616  14.176  12.797   0.176
36614SOL    HW211617  14.148  12.654   0.218
36615SOL     OW11618   8.731  12.446   0.870
36615SOL    HW111619   8.650  12.462   0.919
36615SOL    HW211620   8.758  12.532   0.840
36616SOL     OW11621   2.079   0.620   3.057
36616SOL    HW111622   2.093   0.533   3.094
36616SOL    HW211623   2.167   0.657   3.049
36617SOL     OW11624   4.488   1.017  12.435
36617SOL    HW111625   4.536   0.974  12.363
36617SOL    HW211626   4.545   1.007  12.511
36618SOL     OW11627  13.798   8.812   8.622
36618SOL    HW111628  13.750   8.892   8.600
36618SOL    HW211629  13.881   8.820   8.576
36619SOL     OW11630   0.371  13.708   1.009
36619SOL    HW111631   0.392  13.621   1.042
36619SOL    HW211632   0.377  13.766   1.085
36620SOL     OW11633  12.115  11.147  10.842
36620SOL    HW111634  12.078  11.077  10.897
36620SOL    HW211635  12.183  11.103  10.790
36621SOL     OW11636  10.072   6.816   2.822
36621SOL    HW111637  10.007   6.803   2.754
36621SOL    HW211638  10.121   6.893   2.794
36622SOL     OW11639  11.190   2.770   0.917
36622SOL    HW111640  11.216   2.685   0.881
36622SOL    HW211641  11.170   2.752   1.008
36623SOL     OW11642   8.032  13.909   6.874
36623SOL    HW111643   7.982  13.864   6.942
36623SOL    HW211644   7.968  13.932   6.807
36624SOL     OW11645  12.954  14.788  10.998
36624SOL    HW111646  12.975  14.812  11.088
36624SOL    HW211647  12.887  14.720  11.007
36625SOL     OW11648  10.984   1.086   2.232
36625SOL    HW111649  11.042   1.161   2.249
36625SOL    HW211650  11.043   1.016   2.205
36626SOL     OW11651  10.482  11.024   3.087
36626SOL    HW111652  10.452  11.040   3.176
36626SOL    HW211653  10.418  11.069   3.032
36627SOL     OW11654   9.808   1.415   7.631
36627SOL    HW111655   9.820   1.364   7.711
36627SOL    HW211656   9.854   1.497   7.649
36628SOL     OW11657   3.912   0.087  14.520
36628SOL    HW111658   3.917   0.067  14.614
36628SOL    HW211659   4.003   0.106  14.495
36629SOL     OW11660   2.641   6.837  12.741
36629SOL    HW111661   2.628   6.771  12.674
36629SOL    HW211662   2.553   6.869  12.761
36630SOL     OW11663   7.617  13.432   1.717
36630SOL    HW111664   7.653  13.481   1.643
36630SOL    HW211665   7.690  13.427   1.779
36631SOL     OW11666   0.587  11.028   6.353
36631SOL    HW111667   0.568  11.117   6.324
36631SOL    HW211668   0.558  10.972   6.281
36632SOL     OW11669  13.036   9.500  14.009
36632SOL    HW111670  13.038   9.455  13.925
36632SOL    HW211671  13.128   9.509  14.034
36633SOL     OW11672   9.288  11.739   2.527
36633SOL    HW111673   9.327  11.782   2.451
36633SOL    HW211674   9.198  11.772   2.529
36634SOL     OW11675   9.263   5.358   7.195
36634SOL    HW111676   9.228   5.359   7.284
36634SOL    HW211677   9.286   5.449   7.177
36635SOL     OW11678   6.714   5.506  13.869
36635SOL    HW111679   6.715   5.594  13.906
36635SOL    HW211680   6.623   5.493  13.842
36636SOL     OW11681   7.316   9.389  12.298
36636SOL    HW111682   7.337   9.446  12.372
36636SOL    HW211683   7.257   9.323  12.334
36637SOL     OW11684   9.921   9.621   4.164
36637SOL    HW111685   9.933   9.530   4.191
36637SOL    HW211686   9.877   9.616   4.080
36638SOL     OW11687   0.590  13.828  12.131
36638SOL    HW111688   0.500  13.795  12.122
36638SOL    HW211689   0.591  13.872  12.215
36639SOL     OW11690   3.605   2.349  14.342
36639SOL    HW111691   3.538   2.415  14.324
36639SOL    HW211692   3.578   2.272  14.293
36640SOL     OW11693   0.203   5.508   3.543
36640SOL    HW111694   0.265   5.450   3.499
36640SOL    HW211695   0.132   5.451   3.571
36641SOL     OW11696   3.393   3.362   0.712
36641SOL    HW111697   3.409   3.327   0.800
36641SOL    HW211698   3.298   3.371   0.707
36642SOL     OW11699  11.173   7.217   1.207
36642SOL    HW111700  11.190   7.163   1.284
36642SOL    HW211701  11.119   7.162   1.151
36643SOL     OW11702  10.548  10.752   3.575
36643SOL    HW111703  10.621  10.799   3.614
36643SOL    HW211704  10.571  10.660   3.583
36644SOL     OW11705   6.601   6.449  10.846
36644SOL    HW111706   6.524   6.451  10.902
36644SOL    HW211707   6.643   6.534  10.861
36645SOL     OW11708   9.197  12.905   0.773
36645SOL    HW111709   9.103  12.904   0.758
36645SOL    HW211710   9.235  12.931   0.689
36646SOL     OW11711   9.936  13.172  11.492
36646SOL    HW111712   9.957  13.215  11.409
36646SOL    HW211713   9.874  13.103  11.468
36647SOL     OW11714   6.956  10.488   7.678
36647SOL    HW111715   6.873  10.479   7.726
36647SOL    HW211716   6.949  10.423   7.608
36648SOL     OW11717   1.644   0.640   4.910
36648SOL    HW111718   1.567   0.584   4.923
36648SOL    HW211719   1.612   0.729   4.926
36649SOL     OW11720  10.362   1.466  14.121
36649SOL    HW111721  10.386   1.492  14.032
36649SOL    HW211722  10.266   1.464  14.120
36650SOL     OW11723   2.594   8.927   1.205
36650SOL    HW111724   2.504   8.952   1.188
36650SOL    HW211725   2.606   8.845   1.157
36651SOL     OW11726  13.187  10.914   9.356
36651SOL    HW111727  13.121  10.846   9.342
36651SOL    HW211728  13.176  10.941   9.447
36652SOL     OW11729   1.883  11.963   8.636
36652SOL    HW111730   1.789  11.951   8.621
36652SOL    HW211731   1.890  11.980   8.730
36653SOL     OW11732  13.550  13.008  12.327
36653SOL    HW111733  13.467  13.041  12.363
36653SOL    HW211734  13.605  13.085  12.321
36654SOL     OW11735   2.870  11.167   1.077
36654SOL    HW111736   2.928  11.094   1.100
36654SOL    HW211737   2.872  11.225   1.153
36655SOL     OW11738   3.241  12.247   5.631
36655SOL    HW111739   3.176  12.317   5.636
36655SOL    HW211740   3.265  12.230   5.722
36656SOL     OW11741   1.803   7.265  10.751
36656SOL    HW111742   1.728   7.264  10.692
36656SOL    HW211743   1.877   7.240  10.697
36657SOL     OW11744   3.371   2.323  12.247
36657SOL    HW111745   3.305   2.278  12.195
36657SOL    HW211746   3.345   2.307  12.338
36658SOL     OW11747   0.606  13.317   6.762
36658SOL    HW111748   0.683  13.343   6.813
36658SOL    HW211749   0.548  13.275   6.825
36659SOL     OW11750   5.051   1.793   4.552
36659SOL    HW111751   5.137   1.806   4.593
36659SOL    HW211752   5.069   1.738   4.476
36660SOL     OW11753   2.008   4.555   7.251
36660SOL    HW111754   2.098   4.534   7.227
36660SOL    HW211755   1.979   4.616   7.182
36661SOL     OW11756  11.354  12.497   4.557
36661SOL    HW111757  11.423  12.529   4.499
36661SOL    HW211758  11.386  12.412   4.587
36662SOL     OW11759  12.716   9.573   8.249
36662SOL    HW111760  12.682   9.646   8.199
36662SOL    HW211761  12.811   9.582   8.245
36663SOL     OW11762   1.130   3.164   3.934
36663SOL    HW111763   1.075   3.136   3.861
36663SOL    HW211764   1.094   3.117   4.010
36664SOL     OW11765   0.667  14.389  13.183
36664SOL    HW111766   0.646  14.413  13.093
36664SOL    HW211767   0.593  14.335  13.212
36665SOL     OW11768  12.136  11.150   1.908
36665SOL    HW111769  12.055  11.196   1.926
36665SOL    HW211770  12.200  11.189   1.968
36666SOL     OW11771  10.440   0.331   9.457
36666SOL    HW111772  10.497   0.335   9.533
36666SOL    HW211773  10.360   0.289   9.488
36667SOL     OW11774   1.066   7.925  11.240
36667SOL    HW111775   1.121   8.004  11.249
36667SOL    HW211776   1.129   7.854  11.227
36668SOL     OW11777   6.110   1.341   3.646
36668SOL    HW111778   6.205   1.336   3.648
36668SOL    HW211779   6.090   1.400   3.573
36669SOL     OW11780   5.191   4.032   2.491
36669SOL    HW111781   5.267   4.085   2.512
36669SOL    HW211782   5.218   3.980   2.415
36670SOL     OW11783  13.985  12.780   9.899
36670SOL    HW111784  14.007  12.870   9.873
36670SOL    HW211785  13.996  12.780   9.994
36671SOL     OW11786  14.732  10.785   9.754
36671SOL    HW111787  14.659  10.846   9.758
36671SOL    HW211788  14.696  10.702   9.784
36672SOL     OW11789   7.318   1.328   0.125
36672SOL    HW111790   7.255   1.303   0.056
36672SOL    HW211791   7.391   1.268   0.114
36673SOL     OW11792  11.754   7.446   7.729
36673SOL    HW111793  11.669   7.477   7.696
36673SOL    HW211794  11.783   7.514   7.789
36674SOL     OW11795   5.389   9.323  12.459
36674SOL    HW111796   5.443   9.310  12.381
36674SOL    HW211797   5.381   9.418  12.467
36675SOL     OW11798   5.550   7.475   0.921
36675SOL    HW111799   5.464   7.480   0.962
36675SOL    HW211800   5.609   7.519   0.982
36676SOL     OW11801   7.508   1.684   8.264
36676SOL    HW111802   7.527   1.590   8.268
36676SOL    HW211803   7.462   1.703   8.346
36677SOL     OW11804   1.959   5.254   2.336
36677SOL    HW111805   1.993   5.325   2.391
36677SOL    HW211806   1.871   5.282   2.313
36678SOL     OW11807   8.930  14.148   8.416
36678SOL    HW111808   8.936  14.165   8.510
36678SOL    HW211809   9.008  14.095   8.397
36679SOL     OW11810   6.593   9.811   8.229
36679SOL    HW111811   6.523   9.746   8.231
36679SOL    HW211812   6.577   9.867   8.304
36680SOL     OW11813   1.620   5.459   6.607
36680SOL    HW111814   1.524   5.461   6.599
36680SOL    HW211815   1.641   5.541   6.654
36681SOL     OW11816   6.132  13.101   7.061
36681SOL    HW111817   6.052  13.086   7.010
36681SOL    HW211818   6.104  13.094   7.152
36682SOL     OW11819   3.795   4.077   2.634
36682SOL    HW111820   3.801   4.093   2.728
36682SOL    HW211821   3.724   4.133   2.604
36683SOL     OW11822  12.250  13.440   1.729
36683SOL    HW111823  12.241  13.345   1.736
36683SOL    HW211824  12.255  13.471   1.820
36684SOL     OW11825   7.431  10.862   6.966
36684SOL    HW111826   7.385  10.867   7.049
36684SOL    HW211827   7.522  10.841   6.990
36685SOL     OW11828   4.292  11.085   2.220
36685SOL    HW111829   4.205  11.066   2.254
36685SOL    HW211830   4.353  11.042   2.280
36686SOL     OW11831  11.039   6.181   5.566
36686SOL    HW111832  11.085   6.101   5.590
36686SOL    HW211833  11.104   6.233   5.520
36687SOL     OW11834   0.978  10.923   2.679
36687SOL    HW111835   1.068  10.953   2.692
36687SOL    HW211836   0.971  10.908   2.584
36688SOL     OW11837   3.067   9.023   4.061
36688SOL    HW111838   3.051   8.960   3.990
36688SOL    HW211839   3.084   8.968   4.138
36689SOL     OW11840   1.296   7.223   2.405
36689SOL    HW111841   1.377   7.175   2.424
36689SOL    HW211842   1.228   7.155   2.402
36690SOL     OW11843   4.302  13.059  12.464
36690SOL    HW111844   4.287  13.002  12.539
36690SOL    HW211845   4.257  13.140  12.486
36691SOL     OW11846  11.945   1.227   1.288
36691SOL    HW111847  11.965   1.280   1.365
36691SOL    HW211848  12.028   1.184   1.266
36692SOL     OW11849   4.648  10.983  14.356
36692SOL    HW111850   4.588  11.010  14.287
36692SOL    HW211851   4.593  10.976  14.434
36693SOL     OW11852   7.682  11.029  11.039
36693SOL    HW111853   7.709  10.938  11.049
36693SOL    HW211854   7.673  11.041  10.944
36694SOL     OW11855  13.443  14.576  10.962
36694SOL    HW111856  13.389  14.576  10.883
36694SOL    HW211857  13.504  14.503  10.948
36695SOL     OW11858   0.122  11.851   1.238
36695SOL    HW111859   0.033  11.863   1.204
36695SOL    HW211860   0.122  11.763   1.275
36696SOL     OW11861  14.433   2.994  13.386
36696SOL    HW111862  14.413   2.920  13.443
36696SOL    HW211863  14.371   2.987  13.314
36697SOL     OW11864  10.251   7.154  14.532
36697SOL    HW111865  10.223   7.139  14.442
36697SOL    HW211866  10.229   7.245  14.549
36698SOL     OW11867   4.932   6.571   9.005
36698SOL    HW111868   4.986   6.548   8.929
36698SOL    HW211869   4.942   6.497   9.065
36699SOL     OW11870  11.230   4.150   1.762
36699SOL    HW111871  11.185   4.080   1.714
36699SOL    HW211872  11.321   4.144   1.734
36700SOL     OW11873   4.583   7.978   3.890
36700SOL    HW111874   4.586   7.974   3.985
36700SOL    HW211875   4.490   7.963   3.869
36701SOL     OW11876  12.062   1.429   8.006
36701SOL    HW111877  12.030   1.353   8.053
36701SOL    HW211878  12.126   1.469   8.065
36702SOL     OW11879   8.958   2.297  12.213
36702SOL    HW111880   8.876   2.275  12.170
36702SOL    HW211881   9.026   2.255  12.160
36703SOL     OW11882   4.306   7.111   5.090
36703SOL    HW111883   4.222   7.121   5.135
36703SOL    HW211884   4.323   7.197   5.052
36704SOL     OW11885  13.205   9.465   1.298
36704SOL    HW111886  13.233   9.555   1.316
36704SOL    HW211887  13.111   9.466   1.317
36705SOL     OW11888   5.877   9.538   5.672
36705SOL    HW111889   5.866   9.543   5.767
36705SOL    HW211890   5.926   9.457   5.658
36706SOL     OW11891   9.031   0.075   8.747
36706SOL    HW111892   9.041   0.097   8.654
36706SOL    HW211893   9.010   0.158   8.789
36707SOL     OW11894   2.110  13.177   7.746
36707SOL    HW111895   2.051  13.151   7.675
36707SOL    HW211896   2.175  13.233   7.703
36708SOL     OW11897   0.461  12.466  12.724
36708SOL    HW111898   0.454  12.501  12.635
36708SOL    HW211899   0.477  12.543  12.779
36709SOL     OW11900   1.064  10.668   3.881
36709SOL    HW111901   1.036  10.645   3.970
36709SOL    HW211902   1.116  10.747   3.893
36710SOL     OW11903   6.875   5.749  14.285
36710SOL    HW111904   6.790   5.788  14.265
36710SOL    HW211905   6.892   5.773  14.376
36711SOL     OW11906  10.576   8.594  13.193
36711SOL    HW111907  10.490   8.553  13.194
36711SOL    HW211908  10.594   8.610  13.100
36712SOL     OW11909   7.480  10.009   5.883
36712SOL    HW111910   7.416   9.939   5.893
36712SOL    HW211911   7.528   9.988   5.803
36713SOL     OW11912   7.963   4.442   1.635
36713SOL    HW111913   7.948   4.502   1.708
36713SOL    HW211914   8.058   4.435   1.629
36714SOL     OW11915   4.656   2.180  12.347
36714SOL    HW111916   4.609   2.128  12.282
36714SOL    HW211917   4.588   2.224  12.397
36715SOL     OW11918   5.397  10.317  11.855
36715SOL    HW111919   5.344  10.240  11.877
36715SOL    HW211920   5.401  10.367  11.936
36716SOL     OW11921  11.541   9.068   9.321
36716SOL    HW111922  11.487   9.094   9.247
36716SOL    HW211923  11.497   9.105   9.398
36717SOL     OW11924  14.294  12.076   1.551
36717SOL    HW111925  14.324  12.012   1.486
36717SOL    HW211926  14.367  12.082   1.614
36718SOL     OW11927  12.769   8.796   7.096
36718SOL    HW111928  12.797   8.884   7.121
36718SOL    HW211929  12.838   8.738   7.129
36719SOL     OW11930  12.185  11.591  12.201
36719SOL    HW111931  12.200  11.686  12.194
36719SOL    HW211932  12.150  11.579  12.289
36720SOL     OW11933   6.957   3.635  11.093
36720SOL    HW111934   6.892   3.703  11.080
36720SOL    HW211935   7.033   3.663  11.041
36721SOL     OW11936   4.931   4.602  14.668
36721SOL    HW111937   4.857   4.548  14.641
36721SOL    HW211938   4.900   4.692  14.658
36722SOL     OW11939   6.661   6.797   1.681
36722SOL    HW111940   6.620   6.769   1.599
36722SOL    HW211941   6.743   6.838   1.655
36723SOL     OW11942   8.528   3.929  13.578
36723SOL    HW111943   8.505   3.845  13.619
36723SOL    HW211944   8.450   3.955  13.530
36724SOL     OW11945   0.791  10.620   3.255
36724SOL    HW111946   0.741  10.540   3.272
36724SOL    HW211947   0.767  10.679   3.327
36725SOL     OW11948   7.789  12.938   5.724
36725SOL    HW111949   7.742  12.863   5.760
36725SOL    HW211950   7.868  12.945   5.778
36726SOL     OW11951   4.058  14.663  10.182
36726SOL    HW111952   4.117  14.698  10.248
36726SOL    HW211953   4.007  14.597  10.228
36727SOL     OW11954  10.462  13.700   6.369
36727SOL    HW111955  10.489  13.740   6.286
36727SOL    HW211956  10.544  13.691   6.418
36728SOL     OW11957   7.090   0.522  14.322
36728SOL    HW111958   7.100   0.520  14.417
36728SOL    HW211959   7.114   0.611  14.297
36729SOL     OW11960  11.050   5.800  12.112
36729SOL    HW111961  11.127   5.749  12.138
36729SOL    HW211962  11.002   5.814  12.194
36730SOL     OW11963   8.413   6.114   2.590
36730SOL    HW111964   8.499   6.156   2.589
36730SOL    HW211965   8.431   6.023   2.564
36731SOL     OW11966  12.602   2.737   4.764
36731SOL    HW111967  12.651   2.745   4.682
36731SOL    HW211968  12.522   2.691   4.739
36732SOL     OW11969  12.142   4.736   9.436
36732SOL    HW111970  12.225   4.758   9.394
36732SOL    HW211971  12.120   4.650   9.401
36733SOL     OW11972  10.490   9.239  13.708
36733SOL    HW111973  10.569   9.294  13.715
36733SOL    HW211974  10.490   9.187  13.788
36734SOL     OW11975  10.236   8.920   8.810
36734SOL    HW111976  10.199   8.998   8.851
36734SOL    HW211977  10.325   8.914   8.844
36735SOL     OW11978  14.326   0.233  10.438
36735SOL    HW111979  14.264   0.239  10.366
36735SOL    HW211980  14.297   0.299  10.501
36736SOL     OW11981  12.747   4.274  12.147
36736SOL    HW111982  12.692   4.301  12.073
36736SOL    HW211983  12.704   4.196  12.181
36737SOL     OW11984  14.725   5.211  14.365
36737SOL    HW111985  14.811   5.174  14.381
36737SOL    HW211986  14.728   5.298  14.405
36738SOL     OW11987   1.273   6.745  14.180
36738SOL    HW111988   1.316   6.665  14.149
36738SOL    HW211989   1.198   6.713  14.230
36739SOL     OW11990  12.142   7.164   1.191
36739SOL    HW111991  12.177   7.080   1.222
36739SOL    HW211992  12.216   7.224   1.200
36740SOL     OW11993   7.849   9.836   1.963
36740SOL    HW111994   7.896   9.863   2.042
36740SOL    HW211995   7.757   9.855   1.983
36741SOL     OW11996  13.161   3.753  13.597
36741SOL    HW111997  13.203   3.695  13.533
36741SOL    HW211998  13.204   3.837  13.585
36742SOL     OW11999   3.211   4.395   1.055
36742SOL    HW112000   3.258   4.316   1.028
36742SOL    HW212001   3.260   4.467   1.015
36743SOL     OW12002   4.371  10.184  14.499
36743SOL    HW112003   4.346  10.096  14.530
36743SOL    HW212004   4.405  10.170  14.411
36744SOL     OW12005   4.178   7.159  12.148
36744SOL    HW112006   4.211   7.188  12.063
36744SOL    HW212007   4.212   7.070  12.158
36745SOL     OW12008  12.121   0.980   7.451
36745SOL    HW112009  12.162   0.958   7.368
36745SOL    HW212010  12.192   0.977   7.515
36746SOL     OW12011  12.136   3.579  14.834
36746SOL    HW112012  12.087   3.573   0.039
36746SOL    HW212013  12.077   3.625  14.775
36747SOL     OW12014   2.760   8.414  11.971
36747SOL    HW112015   2.844   8.406  12.018
36747SOL    HW212016   2.783   8.455  11.888
36748SOL     OW12017   8.882  12.011  10.750
36748SOL    HW112018   8.805  11.976  10.705
36748SOL    HW212019   8.931  12.057  10.683
36749SOL     OW12020   6.096   5.182   1.757
36749SOL    HW112021   6.119   5.240   1.830
36749SOL    HW212022   6.047   5.111   1.798
36750SOL     OW12023   6.890   7.275   1.395
36750SOL    HW112024   6.866   7.358   1.355
36750SOL    HW212025   6.855   7.208   1.336
36751SOL     OW12026   6.186   5.724   0.669
36751SOL    HW112027   6.276   5.742   0.642
36751SOL    HW212028   6.174   5.631   0.651
36752SOL     OW12029   7.150   7.110   6.332
36752SOL    HW112030   7.241   7.125   6.356
36752SOL    HW212031   7.123   7.035   6.385
36753SOL     OW12032  13.624   2.179   2.572
36753SOL    HW112033  13.570   2.175   2.493
36753SOL    HW212034  13.573   2.232   2.634
36754SOL     OW12035  10.524   4.769  10.439
36754SOL    HW112036  10.498   4.836  10.376
36754SOL    HW212037  10.590   4.812  10.493
36755SOL     OW12038   1.758   1.487   5.430
36755SOL    HW112039   1.671   1.515   5.460
36755SOL    HW212040   1.807   1.569   5.421
36756SOL     OW12041   2.740  10.324   8.217
36756SOL    HW112042   2.699  10.388   8.159
36756SOL    HW212043   2.828  10.358   8.233
36757SOL     OW12044   7.508   4.580  11.040
36757SOL    HW112045   7.497   4.590  10.946
36757SOL    HW212046   7.429   4.534  11.069
36758SOL     OW12047   5.066  13.893   7.415
36758SOL    HW112048   5.106  13.809   7.440
36758SOL    HW212049   5.128  13.931   7.353
36759SOL     OW12050   8.709   0.817  10.338
36759SOL    HW112051   8.750   0.735  10.313
36759SOL    HW212052   8.653   0.840  10.264
36760SOL     OW12053   5.963   9.010  13.338
36760SOL    HW112054   5.986   9.066  13.412
36760SOL    HW212055   5.868   9.010  13.336
36761SOL     OW12056   1.148   2.745   6.957
36761SOL    HW112057   1.204   2.673   6.986
36761SOL    HW212058   1.059   2.708   6.959
36762SOL     OW12059   0.617  13.436   3.059
36762SOL    HW112060   0.655  13.445   2.972
36762SOL    HW212061   0.533  13.391   3.044
36763SOL     OW12062   4.882   0.019   7.736
36763SOL    HW112063   4.826   0.039   7.811
36763SOL    HW212064   4.969   0.005   7.774
36764SOL     OW12065  12.935   4.213  10.251
36764SOL    HW112066  12.950   4.231  10.344
36764SOL    HW212067  12.840   4.223  10.239
36765SOL     OW12068   9.876   2.258   2.253
36765SOL    HW112069   9.835   2.175   2.227
36765SOL    HW212070   9.817   2.295   2.318
36766SOL     OW12071   3.999   6.130   9.815
36766SOL    HW112072   4.088   6.101   9.836
36766SOL    HW212073   3.951   6.050   9.797
36767SOL     OW12074   8.548   3.205  13.365
36767SOL    HW112075   8.629   3.157  13.384
36767SOL    HW212076   8.576   3.296  13.358
36768SOL     OW12077  10.234   1.012   8.069
36768SOL    HW112078  10.273   1.075   8.008
36768SOL    HW212079  10.150   0.990   8.029
36769SOL     OW12080  10.555   7.850  11.826
36769SOL    HW112081  10.523   7.765  11.798
36769SOL    HW212082  10.525   7.858  11.917
36770SOL     OW12083   5.223   0.559  11.368
36770SOL    HW112084   5.167   0.510  11.428
36770SOL    HW212085   5.164   0.588  11.298
36771SOL     OW12086   5.965  12.488   4.390
36771SOL    HW112087   5.917  12.536   4.322
36771SOL    HW212088   5.962  12.545   4.467
36772SOL     OW12089   5.376   0.100  14.107
36772SOL    HW112090   5.421   0.146  14.035
36772SOL    HW212091   5.375   0.008  14.080
36773SOL     OW12092  13.031  11.725   7.184
36773SOL    HW112093  12.951  11.673   7.173
36773SOL    HW212094  13.084  11.673   7.244
36774SOL     OW12095  10.952   0.951   0.992
36774SOL    HW112096  10.873   0.994   1.026
36774SOL    HW212097  10.967   0.992   0.907
36775SOL     OW12098   6.585  12.601   7.953
36775SOL    HW112099   6.513  12.538   7.950
36775SOL    HW212100   6.658  12.557   7.910
36776SOL     OW12101   9.718  12.531   0.842
36776SOL    HW112102   9.779  12.484   0.785
36776SOL    HW212103   9.664  12.582   0.782
36777SOL     OW12104   0.366  12.355   4.911
36777SOL    HW112105   0.383  12.448   4.924
36777SOL    HW212106   0.414  12.311   4.981
36778SOL     OW12107   9.009   9.472   3.869
36778SOL    HW112108   9.009   9.567   3.856
36778SOL    HW212109   9.085   9.441   3.820
36779SOL     OW12110   8.726  12.072  14.195
36779SOL    HW112111   8.818  12.082  14.174
36779SOL    HW212112   8.725  12.029  14.280
36780SOL     OW12113  13.953   9.400  10.185
36780SOL    HW112114  13.983   9.360  10.267
36780SOL    HW212115  13.892   9.337  10.149
36781SOL     OW12116   5.873   3.531   6.270
36781SOL    HW112117   5.919   3.539   6.353
36781SOL    HW212118   5.821   3.611   6.263
36782SOL     OW12119  12.534  12.139   3.017
36782SOL    HW112120  12.516  12.232   3.029
36782SOL    HW212121  12.460  12.106   2.966
36783SOL     OW12122  12.407   7.822  10.727
36783SOL    HW112123  12.402   7.906  10.773
36783SOL    HW212124  12.428   7.846  10.637
36784SOL     OW12125   3.071   0.266   1.332
36784SOL    HW112126   3.138   0.313   1.382
36784SOL    HW212127   2.989   0.287   1.377
36785SOL     OW12128  14.470   4.438  12.285
36785SOL    HW112129  14.398   4.376  12.281
36785SOL    HW212130  14.434   4.520  12.250
36786SOL     OW12131   5.953   0.926   2.341
36786SOL    HW112132   6.032   0.923   2.287
36786SOL    HW212133   5.892   0.867   2.298
36787SOL     OW12134   1.140   2.003   0.146
36787SOL    HW112135   1.057   1.986   0.190
36787SOL    HW212136   1.149   2.099   0.148
36788SOL     OW12137   9.452   4.808  12.799
36788SOL    HW112138   9.416   4.896  12.797
36788SOL    HW212139   9.388   4.755  12.751
36789SOL     OW12140  10.046  13.994   8.766
36789SOL    HW112141   9.955  14.002   8.794
36789SOL    HW212142  10.074  13.908   8.799
36790SOL     OW12143  12.506   9.793   4.406
36790SOL    HW112144  12.580   9.816   4.463
36790SOL    HW212145  12.450   9.738   4.460
36791SOL     OW12146   4.087   5.848   7.892
36791SOL    HW112147   4.145   5.782   7.932
36791SOL    HW212148   4.005   5.801   7.876
36792SOL     OW12149   4.757  14.746  14.127
36792SOL    HW112150   4.797  14.659  14.135
36792SOL    HW212151   4.684  14.744  14.189
36793SOL     OW12152   8.309   0.185   0.468
36793SOL    HW112153   8.395   0.210   0.435
36793SOL    HW212154   8.287   0.105   0.419
36794SOL     OW12155   3.872  12.093   3.019
36794SOL    HW112156   3.850  12.017   3.073
36794SOL    HW212157   3.803  12.096   2.953
36795SOL     OW12158  12.816   0.761  11.507
36795SOL    HW112159  12.762   0.835  11.534
36795SOL    HW212160  12.828   0.709  11.587
36796SOL     OW12161   6.884  12.967   6.689
36796SOL    HW112162   6.961  13.014   6.655
36796SOL    HW212163   6.897  12.876   6.662
36797SOL     OW12164  12.161   1.340   6.059
36797SOL    HW112165  12.194   1.423   6.025
36797SOL    HW212166  12.164   1.350   6.154
36798SOL     OW12167   1.228   9.045   7.390
36798SOL    HW112168   1.302   9.031   7.449
36798SOL    HW212169   1.167   9.099   7.441
36799SOL     OW12170   5.917   2.857  12.408
36799SOL    HW112171   5.935   2.908  12.329
36799SOL    HW212172   5.821   2.856  12.415
36800SOL     OW12173  14.506  10.608   7.668
36800SOL    HW112174  14.540  10.694   7.691
36800SOL    HW212175  14.422  10.625   7.626
36801SOL     OW12176   7.189   0.301  14.610
36801SOL    HW112177   7.183   0.391  14.641
36801SOL    HW212178   7.254   0.304  14.540
36802SOL     OW12179  10.530  11.616   4.374
36802SOL    HW112180  10.435  11.625   4.378
36802SOL    HW212181  10.554  11.661   4.293
36803SOL     OW12182  14.030   4.111   6.570
36803SOL    HW112183  13.967   4.096   6.639
36803SOL    HW212184  14.001   4.193   6.528
36804SOL     OW12185   7.527   2.197   6.788
36804SOL    HW112186   7.608   2.220   6.834
36804SOL    HW212187   7.557   2.150   6.710
36805SOL     OW12188   3.721  10.029  11.607
36805SOL    HW112189   3.784  10.101  11.615
36805SOL    HW212190   3.712  10.015  11.513
36806SOL     OW12191  12.630   8.030  14.069
36806SOL    HW112192  12.624   8.123  14.091
36806SOL    HW212193  12.594   7.985  14.145
36807SOL     OW12194  13.715   0.564   6.640
36807SOL    HW112195  13.700   0.490   6.581
36807SOL    HW212196  13.657   0.547   6.714
36808SOL     OW12197   9.819   4.574  11.536
36808SOL    HW112198   9.790   4.646  11.480
36808SOL    HW212199   9.779   4.496  11.497
36809SOL     OW12200   2.161   4.224   7.874
36809SOL    HW112201   2.165   4.135   7.839
36809SOL    HW212202   2.089   4.266   7.827
36810SOL     OW12203   4.385   1.339   7.835
36810SOL    HW112204   4.428   1.299   7.911
36810SOL    HW212205   4.405   1.432   7.842
36811SOL     OW12206  14.013   5.251   0.105
36811SOL    HW112207  13.999   5.324   0.045
36811SOL    HW212208  14.002   5.289   0.192
36812SOL     OW12209   3.827  12.545   8.264
36812SOL    HW112210   3.737  12.520   8.284
36812SOL    HW212211   3.845  12.620   8.321
36813SOL     OW12212   7.121   2.757   4.549
36813SOL    HW112213   7.059   2.829   4.537
36813SOL    HW212214   7.158   2.772   4.636
36814SOL     OW12215   8.923   5.968   0.426
36814SOL    HW112216   8.986   5.998   0.491
36814SOL    HW212217   8.937   5.874   0.420
36815SOL     OW12218   3.164   9.308   4.493
36815SOL    HW112219   3.231   9.258   4.539
36815SOL    HW212220   3.161   9.270   4.406
36816SOL     OW12221   3.537   7.880   4.429
36816SOL    HW112222   3.445   7.901   4.411
36816SOL    HW212223   3.586   7.955   4.395
36817SOL     OW12224   5.549   1.435   7.665
36817SOL    HW112225   5.519   1.393   7.746
36817SOL    HW212226   5.547   1.366   7.600
36818SOL     OW12227   8.550   9.291  11.373
36818SOL    HW112228   8.596   9.368  11.342
36818SOL    HW212229   8.459   9.319  11.382
36819SOL     OW12230   9.442   6.766  14.820
36819SOL    HW112231   9.531   6.745  14.793
36819SOL    HW212232   9.421   6.846  14.771
36820SOL     OW12233  11.388   3.293   1.149
36820SOL    HW112234  11.337   3.332   1.078
36820SOL    HW212235  11.464   3.255   1.107
36821SOL     OW12236  10.533   8.683   1.076
36821SOL    HW112237  10.575   8.706   0.994
36821SOL    HW212238  10.584   8.609   1.109
36822SOL     OW12239   0.757   4.348  14.054
36822SOL    HW112240   0.727   4.373  14.141
36822SOL    HW212241   0.846   4.383  14.048
36823SOL     OW12242  14.334   7.462  12.719
36823SOL    HW112243  14.273   7.503  12.779
36823SOL    HW212244  14.323   7.368  12.735
36824SOL     OW12245   7.071   6.137   9.107
36824SOL    HW112246   7.089   6.046   9.082
36824SOL    HW212247   6.976   6.139   9.123
36825SOL     OW12248   3.841  11.214   8.610
36825SOL    HW112249   3.835  11.175   8.698
36825SOL    HW212250   3.919  11.174   8.572
36826SOL     OW12251   0.871   4.983   5.134
36826SOL    HW112252   0.866   4.892   5.162
36826SOL    HW212253   0.936   4.983   5.064
36827SOL     OW12254   7.390   4.007  13.404
36827SOL    HW112255   7.306   3.961  13.395
36827SOL    HW212256   7.402   4.050  13.320
36828SOL     OW12257   7.336   6.855  11.148
36828SOL    HW112258   7.322   6.924  11.084
36828SOL    HW212259   7.348   6.776  11.095
36829SOL     OW12260   8.517  11.413  12.741
36829SOL    HW112261   8.479  11.358  12.673
36829SOL    HW212262   8.596  11.367  12.768
36830SOL     OW12263   5.534  14.779   3.999
36830SOL    HW112264   5.549  14.685   4.008
36830SOL    HW212265   5.461  14.785   3.937
36831SOL     OW12266   5.832   9.675  13.299
36831SOL    HW112267   5.805   9.767  13.300
36831SOL    HW212268   5.813   9.646  13.210
36832SOL     OW12269  11.392   2.943  13.904
36832SOL    HW112270  11.438   3.026  13.897
36832SOL    HW212271  11.343   2.935  13.822
36833SOL     OW12272   3.941   4.986   4.725
36833SOL    HW112273   3.873   4.940   4.675
36833SOL    HW212274   3.998   5.023   4.658
36834SOL     OW12275   9.367  10.607  14.089
36834SOL    HW112276   9.412  10.642  14.013
36834SOL    HW212277   9.289  10.564  14.054
36835SOL     OW12278  12.563  11.621   8.538
36835SOL    HW112279  12.624  11.625   8.464
36835SOL    HW212280  12.552  11.528   8.555
36836SOL     OW12281   1.868  13.914   7.546
36836SOL    HW112282   1.947  13.923   7.492
36836SOL    HW212283   1.900  13.918   7.636
36837SOL     OW12284   8.720   5.172   1.314
36837SOL    HW112285   8.705   5.239   1.381
36837SOL    HW212286   8.756   5.098   1.363
36838SOL     OW12287   0.704   7.211  13.737
36838SOL    HW112288   0.775   7.197  13.799
36838SOL    HW212289   0.745   7.199  13.651
36839SOL     OW12290   2.413  12.097   0.382
36839SOL    HW112291   2.386  12.189   0.381
36839SOL    HW212292   2.508  12.099   0.374
36840SOL     OW12293   2.287   7.534  11.399
36840SOL    HW112294   2.258   7.474  11.331
36840SOL    HW212295   2.224   7.521  11.470
36841SOL     OW12296   8.641   7.958  13.380
36841SOL    HW112297   8.554   7.923  13.362
36841SOL    HW212298   8.695   7.926  13.308
36842SOL     OW12299  12.200  11.890   6.186
36842SOL    HW112300  12.285  11.923   6.213
36842SOL    HW212301  12.208  11.795   6.195
36843SOL     OW12302   4.393  11.169  11.096
36843SOL    HW112303   4.326  11.133  11.038
36843SOL    HW212304   4.344  11.215  11.164
36844SOL     OW12305  12.798   0.337   1.930
36844SOL    HW112306  12.705   0.351   1.914
36844SOL    HW212307  12.836   0.425   1.932
36845SOL     OW12308   2.726   8.044   4.134
36845SOL    HW112309   2.796   8.093   4.091
36845SOL    HW212310   2.709   7.969   4.076
36846SOL     OW12311   7.877  14.331   3.633
36846SOL    HW112312   7.972  14.331   3.617
36846SOL    HW212313   7.860  14.416   3.673
36847SOL     OW12314  14.764   7.535   6.654
36847SOL    HW112315  14.693   7.472   6.642
36847SOL    HW212316  14.749   7.573   6.741
36848SOL     OW12317   8.067   8.115  11.281
36848SOL    HW112318   7.993   8.162  11.317
36848SOL    HW212319   8.108   8.073  11.356
36849SOL     OW12320   3.482   9.477   0.951
36849SOL    HW112321   3.533   9.409   0.908
36849SOL    HW212322   3.526   9.559   0.927
36850SOL     OW12323   2.066   2.406  11.890
36850SOL    HW112324   2.021   2.393  11.974
36850SOL    HW212325   1.997   2.405  11.825
36851SOL     OW12326   2.695   0.710   1.221
36851SOL    HW112327   2.618   0.672   1.178
36851SOL    HW212328   2.677   0.699   1.315
36852SOL     OW12329   7.926   3.612  11.413
36852SOL    HW112330   7.854   3.592  11.354
36852SOL    HW212331   7.883   3.653  11.489
36853SOL     OW12332   9.709  12.385   6.557
36853SOL    HW112333   9.788  12.339   6.527
36853SOL    HW212334   9.732  12.478   6.554
36854SOL     OW12335  11.271   8.776   5.241
36854SOL    HW112336  11.231   8.809   5.161
36854SOL    HW212337  11.339   8.839   5.262
36855SOL     OW12338  11.579   9.632   8.966
36855SOL    HW112339  11.527   9.635   8.885
36855SOL    HW212340  11.523   9.588   9.029
36856SOL     OW12341  10.700   5.550  13.153
36856SOL    HW112342  10.743   5.634  13.135
36856SOL    HW212343  10.771   5.488  13.165
36857SOL     OW12344  14.101   8.120  10.640
36857SOL    HW112345  14.125   8.111  10.548
36857SOL    HW212346  14.185   8.115  10.687
36858SOL     OW12347   1.719   4.319   9.460
36858SOL    HW112348   1.632   4.355   9.471
36858SOL    HW212349   1.777   4.380   9.507
36859SOL     OW12350   4.956  12.375  12.547
36859SOL    HW112351   4.928  12.327  12.470
36859SOL    HW212352   4.893  12.351  12.615
36860SOL     OW12353   6.060   2.619  10.762
36860SOL    HW112354   6.014   2.540  10.734
36860SOL    HW212355   6.080   2.666  10.681
36861SOL     OW12356   1.948   2.150  11.694
36861SOL    HW112357   1.968   2.110  11.779
36861SOL    HW212358   1.913   2.237  11.716
36862SOL     OW12359   5.492  10.206   1.696
36862SOL    HW112360   5.520  10.274   1.757
36862SOL    HW212361   5.569  10.190   1.641
36863SOL     OW12362   4.562   0.240   3.501
36863SOL    HW112363   4.616   0.163   3.515
36863SOL    HW212364   4.482   0.223   3.551
36864SOL     OW12365  13.043  13.906   1.099
36864SOL    HW112366  13.051  13.954   1.017
36864SOL    HW212367  13.133  13.888   1.126
36865SOL     OW12368   3.338   6.259   3.714
36865SOL    HW112369   3.430   6.272   3.691
36865SOL    HW212370   3.326   6.309   3.795
36866SOL     OW12371   7.133   5.061   7.963
36866SOL    HW112372   7.049   5.057   7.917
36866SOL    HW212373   7.110   5.079   8.054
36867SOL     OW12374  14.742   6.022   3.791
36867SOL    HW112375  14.822   6.075   3.792
36867SOL    HW212376  14.769   5.937   3.825
36868SOL     OW12377  14.851   3.090  14.539
36868SOL    HW112378  14.842   3.130  14.625
36868SOL    HW212379   0.005   3.001  14.556
36869SOL     OW12380   7.928   6.684   2.368
36869SOL    HW112381   7.970   6.726   2.293
36869SOL    HW212382   7.865   6.749   2.399
36870SOL     OW12383  13.622  12.843   6.929
36870SOL    HW112384  13.554  12.776   6.940
36870SOL    HW212385  13.581  12.923   6.961
36871SOL     OW12386  11.754   6.650  11.705
36871SOL    HW112387  11.728   6.740  11.724
36871SOL    HW212388  11.848   6.654  11.691
36872SOL     OW12389  14.724  10.209   9.518
36872SOL    HW112390  14.786  10.137   9.512
36872SOL    HW212391  14.709  10.220   9.612
36873SOL     OW12392   2.148  10.802   3.688
36873SOL    HW112393   2.150  10.898   3.695
36873SOL    HW212394   2.086  10.774   3.756
36874SOL     OW12395   4.323   1.577   2.433
36874SOL    HW112396   4.243   1.573   2.381
36874SOL    HW212397   4.312   1.655   2.487
36875SOL     OW12398  14.377   0.665  10.992
36875SOL    HW112399  14.310   0.716  11.039
36875SOL    HW212400  14.346   0.662  10.902
36876SOL     OW12401   4.970   8.458   7.403
36876SOL    HW112402   4.927   8.543   7.413
36876SOL    HW212403   4.903   8.402   7.362
36877SOL     OW12404   2.175   5.389   1.882
36877SOL    HW112405   2.127   5.332   1.822
36877SOL    HW212406   2.244   5.333   1.918
36878SOL     OW12407   2.464   8.207   6.273
36878SOL    HW112408   2.456   8.171   6.185
36878SOL    HW212409   2.512   8.289   6.261
36879SOL     OW12410   0.478   6.361   3.446
36879SOL    HW112411   0.525   6.303   3.387
36879SOL    HW212412   0.545   6.397   3.504
36880SOL     OW12413  13.548   1.460   2.137
36880SOL    HW112414  13.519   1.552   2.136
36880SOL    HW212415  13.467   1.409   2.135
36881SOL     OW12416  10.554   5.545   0.668
36881SOL    HW112417  10.573   5.582   0.582
36881SOL    HW212418  10.461   5.564   0.682
36882SOL     OW12419   6.970  11.974  13.704
36882SOL    HW112420   6.940  12.063  13.687
36882SOL    HW212421   6.972  11.932  13.618
36883SOL     OW12422   8.259  14.234   2.155
36883SOL    HW112423   8.279  14.174   2.227
36883SOL    HW212424   8.241  14.177   2.081
36884SOL     OW12425   3.329   3.567  14.861
36884SOL    HW112426   3.239   3.563   0.016
36884SOL    HW212427   3.336   3.652  14.818
36885SOL     OW12428  11.581  12.266   4.038
36885SOL    HW112429  11.584  12.277   4.133
36885SOL    HW212430  11.541  12.180   4.025
36886SOL     OW12431   3.989   6.553  14.614
36886SOL    HW112432   4.027   6.625  14.662
36886SOL    HW212433   3.915   6.524  14.668
36887SOL     OW12434   4.825   7.206  10.870
36887SOL    HW112435   4.775   7.188  10.950
36887SOL    HW212436   4.887   7.133  10.864
36888SOL     OW12437   3.500   6.441   8.119
36888SOL    HW112438   3.561   6.368   8.127
36888SOL    HW212439   3.474   6.462   8.209
36889SOL     OW12440   9.402   9.517   1.097
36889SOL    HW112441   9.450   9.437   1.118
36889SOL    HW212442   9.468   9.574   1.056
36890SOL     OW12443  11.777   3.087   2.239
36890SOL    HW112444  11.865   3.077   2.203
36890SOL    HW212445  11.725   3.021   2.194
36891SOL     OW12446  13.640   1.646   5.581
36891SOL    HW112447  13.636   1.593   5.501
36891SOL    HW212448  13.714   1.705   5.566
36892SOL     OW12449   4.728   3.015   5.478
36892SOL    HW112450   4.738   2.926   5.512
36892SOL    HW212451   4.728   3.071   5.555
36893SOL     OW12452  10.628  10.627   5.439
36893SOL    HW112453  10.642  10.721   5.447
36893SOL    HW212454  10.533  10.616   5.443
36894SOL     OW12455  13.788  14.446   8.734
36894SOL    HW112456  13.768  14.387   8.661
36894SOL    HW212457  13.868  14.490   8.708
36895SOL     OW12458  13.420   4.213  12.271
36895SOL    HW112459  13.474   4.290  12.289
36895SOL    HW212460  13.481   4.148  12.236
36896SOL     OW12461  12.633   5.912   5.606
36896SOL    HW112462  12.654   5.984   5.547
36896SOL    HW212463  12.626   5.835   5.549
36897SOL     OW12464   7.179   7.902   1.299
36897SOL    HW112465   7.270   7.931   1.292
36897SOL    HW212466   7.169   7.875   1.390
36898SOL     OW12467  11.565  11.117   3.294
36898SOL    HW112468  11.474  11.085   3.294
36898SOL    HW212469  11.583  11.139   3.203
36899SOL     OW12470  13.716   3.505   0.255
36899SOL    HW112471  13.651   3.442   0.224
36899SOL    HW212472  13.672   3.590   0.253
36900SOL     OW12473   9.469  12.643   0.701
36900SOL    HW112474   9.433  12.555   0.709
36900SOL    HW212475   9.407  12.698   0.748
36901SOL     OW12476   6.024   3.545  10.071
36901SOL    HW112477   6.074   3.478  10.118
36901SOL    HW212478   5.939   3.505  10.055
36902SOL     OW12479   7.317   8.381  10.172
36902SOL    HW112480   7.392   8.421  10.128
36902SOL    HW212481   7.304   8.435  10.250
36903SOL     OW12482   0.713  10.752   4.457
36903SOL    HW112483   0.717  10.761   4.362
36903SOL    HW212484   0.794  10.792   4.489
36904SOL     OW12485   6.145  10.146   3.974
36904SOL    HW112486   6.136  10.098   4.056
36904SOL    HW212487   6.060  10.137   3.932
36905SOL     OW12488   6.273   5.105   6.481
36905SOL    HW112489   6.282   5.014   6.453
36905SOL    HW212490   6.227   5.148   6.409
36906SOL     OW12491   8.024   9.349   2.958
36906SOL    HW112492   8.086   9.302   3.014
36906SOL    HW212493   8.078   9.397   2.896
36907SOL     OW12494  13.942   6.188   2.585
36907SOL    HW112495  13.955   6.282   2.601
36907SOL    HW212496  13.861   6.183   2.535
36908SOL     OW12497   2.393   0.427  13.550
36908SOL    HW112498   2.472   0.420  13.496
36908SOL    HW212499   2.328   0.468  13.493
36909SOL     OW12500   9.452   1.352   5.267
36909SOL    HW112501   9.529   1.309   5.304
36909SOL    HW212502   9.419   1.290   5.202
36910SOL     OW12503   6.809   7.412   3.403
36910SOL    HW112504   6.864   7.384   3.476
36910SOL    HW212505   6.870   7.450   3.339
36911SOL     OW12506  13.414  11.493   3.200
36911SOL    HW112507  13.363  11.492   3.119
36911SOL    HW212508  13.393  11.577   3.241
36912SOL     OW12509   1.662  14.602  13.336
36912SOL    HW112510   1.685  14.531  13.275
36912SOL    HW212511   1.568  14.612  13.326
36913SOL     OW12512   8.950  11.290   3.736
36913SOL    HW112513   8.939  11.359   3.671
36913SOL    HW212514   8.883  11.225   3.714
36914SOL     OW12515   8.832  12.420   1.223
36914SOL    HW112516   8.920  12.384   1.229
36914SOL    HW212517   8.842  12.502   1.174
36915SOL     OW12518   8.244   4.989  11.164
36915SOL    HW112519   8.226   4.954  11.077
36915SOL    HW212520   8.255   5.083  11.151
36916SOL     OW12521   1.522  11.513   9.359
36916SOL    HW112522   1.435  11.545   9.333
36916SOL    HW212523   1.505  11.449   9.428
36917SOL     OW12524   7.561   6.239   5.940
36917SOL    HW112525   7.558   6.157   5.890
36917SOL    HW212526   7.639   6.231   5.995
36918SOL     OW12527  11.981   3.359   2.276
36918SOL    HW112528  11.895   3.376   2.239
36918SOL    HW212529  11.965   3.298   2.348
36919SOL     OW12530   6.779   1.248  13.273
36919SOL    HW112531   6.746   1.227  13.361
36919SOL    HW212532   6.833   1.173  13.249
36920SOL     OW12533  12.595  10.618   8.398
36920SOL    HW112534  12.547  10.630   8.316
36920SOL    HW212535  12.640  10.534   8.387
36921SOL     OW12536   7.340  14.284   9.826
36921SOL    HW112537   7.427  14.313   9.800
36921SOL    HW212538   7.343  14.189   9.816
36922SOL     OW12539   0.769  11.584   1.561
36922SOL    HW112540   0.761  11.547   1.473
36922SOL    HW212541   0.833  11.528   1.605
36923SOL     OW12542   0.242   1.565   7.993
36923SOL    HW112543   0.259   1.511   8.070
36923SOL    HW212544   0.146   1.568   7.988
36924SOL     OW12545   6.776  12.620   2.659
36924SOL    HW112546   6.688  12.635   2.693
36924SOL    HW212547   6.785  12.525   2.654
36925SOL     OW12548   3.406   9.179   9.554
36925SOL    HW112549   3.316   9.201   9.528
36925SOL    HW212550   3.438   9.122   9.485
36926SOL     OW12551  13.028   4.263   0.860
36926SOL    HW112552  13.099   4.301   0.912
36926SOL    HW212553  12.968   4.336   0.845
36927SOL     OW12554  10.139   3.443  12.667
36927SOL    HW112555  10.139   3.415  12.759
36927SOL    HW212556  10.054   3.417  12.634
36928SOL     OW12557  13.395   3.894   5.417
36928SOL    HW112558  13.331   3.924   5.353
36928SOL    HW212559  13.380   3.800   5.423
36929SOL     OW12560  12.534  13.981   5.332
36929SOL    HW112561  12.466  14.012   5.272
36929SOL    HW212562  12.583  14.061   5.355
36930SOL     OW12563   7.444   1.469   5.136
36930SOL    HW112564   7.351   1.448   5.150
36930SOL    HW212565   7.460   1.447   5.044
36931SOL     OW12566   8.177   9.023  13.487
36931SOL    HW112567   8.197   9.106  13.530
36931SOL    HW212568   8.217   9.030  13.401
36932SOL     OW12569   1.794   6.589   8.542
36932SOL    HW112570   1.799   6.514   8.483
36932SOL    HW212571   1.875   6.637   8.527
36933SOL     OW12572   3.791   6.038   9.083
36933SOL    HW112573   3.788   6.083   8.999
36933SOL    HW212574   3.881   6.004   9.088
36934SOL     OW12575   4.633   4.679   2.405
36934SOL    HW112576   4.698   4.747   2.388
36934SOL    HW212577   4.677   4.619   2.466
36935SOL     OW12578   2.022  14.004   6.494
36935SOL    HW112579   1.968  14.042   6.425
36935SOL    HW212580   2.073  14.078   6.527
36936SOL     OW12581   6.337  10.131  11.540
36936SOL    HW112582   6.293  10.053  11.505
36936SOL    HW212583   6.308  10.136  11.631
36937SOL     OW12584   7.615   9.310   8.852
36937SOL    HW112585   7.647   9.297   8.941
36937SOL    HW212586   7.521   9.319   8.861
36938SOL     OW12587  11.834   7.820   3.906
36938SOL    HW112588  11.875   7.904   3.885
36938SOL    HW212589  11.856   7.805   3.998
36939SOL     OW12590   8.845  14.489   1.399
36939SOL    HW112591   8.832  14.410   1.453
36939SOL    HW212592   8.758  14.529   1.396
36940SOL     OW12593   0.828   2.109   4.599
36940SOL    HW112594   0.750   2.110   4.655
36940SOL    HW212595   0.798   2.072   4.516
36941SOL     OW12596  10.722  14.554   6.452
36941SOL    HW112597  10.743  14.461   6.441
36941SOL    HW212598  10.769  14.580   6.531
36942SOL     OW12599  14.678  12.474  14.704
36942SOL    HW112600  14.650  12.485  14.613
36942SOL    HW212601  14.609  12.516  14.755
36943SOL     OW12602   5.922   9.420  13.181
36943SOL    HW112603   5.977   9.357  13.135
36943SOL    HW212604   5.916   9.494  13.121
36944SOL     OW12605   8.115   6.608  11.150
36944SOL    HW112606   8.049   6.635  11.086
36944SOL    HW212607   8.094   6.517  11.170
36945SOL     OW12608   3.765   7.384   8.108
36945SOL    HW112609   3.853   7.407   8.138
36945SOL    HW212610   3.779   7.334   8.027
36946SOL     OW12611   5.167   5.575   4.163
36946SOL    HW112612   5.161   5.527   4.080
36946SOL    HW212613   5.209   5.658   4.140
36947SOL     OW12614   0.082   7.983  12.963
36947SOL    HW112615  14.873   7.987  12.922
36947SOL    HW212616   0.063   7.971  13.056
36948SOL     OW12617   9.944   9.997  11.979
36948SOL    HW112618   9.855  10.029  11.961
36948SOL    HW212619   9.936   9.952  12.063
36949SOL     OW12620   8.018   0.470   3.009
36949SOL    HW112621   8.105   0.487   2.973
36949SOL    HW212622   7.965   0.545   2.981
36950SOL     OW12623   1.334   2.530  11.128
36950SOL    HW112624   1.318   2.625  11.126
36950SOL    HW212625   1.289   2.497  11.050
36951SOL     OW12626   0.225   3.036   7.688
36951SOL    HW112627   0.163   3.091   7.736
36951SOL    HW212628   0.281   2.998   7.755
36952SOL     OW12629  12.694  13.160   9.586
36952SOL    HW112630  12.782  13.132   9.559
36952SOL    HW212631  12.662  13.212   9.512
36953SOL     OW12632   3.143  14.851   0.456
36953SOL    HW112633   3.191  14.810   0.383
36953SOL    HW212634   3.077   0.027   0.413
36954SOL     OW12635  11.849  10.803   5.062
36954SOL    HW112636  11.904  10.742   5.012
36954SOL    HW212637  11.909  10.868   5.097
36955SOL     OW12638   0.881   5.378  14.005
36955SOL    HW112639   0.841   5.300  14.043
36955SOL    HW212640   0.811   5.419  13.954
36956SOL     OW12641   9.047   4.050  12.254
36956SOL    HW112642   8.977   4.114  12.239
36956SOL    HW212643   9.095   4.047  12.171
36957SOL     OW12644   9.061   5.679   3.617
36957SOL    HW112645   9.017   5.651   3.536
36957SOL    HW212646   9.128   5.741   3.587
36958SOL     OW12647   2.592   7.440   0.659
36958SOL    HW112648   2.508   7.486   0.664
36958SOL    HW212649   2.657   7.509   0.664
36959SOL     OW12650   7.638  14.710   4.407
36959SOL    HW112651   7.673  14.634   4.361
36959SOL    HW212652   7.543  14.696   4.406
36960SOL     OW12653   2.544   1.321   7.214
36960SOL    HW112654   2.462   1.334   7.259
36960SOL    HW212655   2.594   1.401   7.229
36961SOL     OW12656   3.869   7.286  12.586
36961SOL    HW112657   3.936   7.286  12.517
36961SOL    HW212658   3.868   7.377  12.617
36962SOL     OW12659  13.988  11.389  11.262
36962SOL    HW112660  13.960  11.329  11.193
36962SOL    HW212661  13.921  11.381  11.330
36963SOL     OW12662   0.812   7.862   5.952
36963SOL    HW112663   0.872   7.787   5.943
36963SOL    HW212664   0.725   7.824   5.940
36964SOL     OW12665  12.076   4.740   7.186
36964SOL    HW112666  12.165   4.768   7.208
36964SOL    HW212667  12.069   4.652   7.222
36965SOL     OW12668   4.017   7.732   3.989
36965SOL    HW112669   4.056   7.654   4.028
36965SOL    HW212670   3.944   7.754   4.047
36966SOL     OW12671   1.670  14.162   0.657
36966SOL    HW112672   1.728  14.195   0.726
36966SOL    HW212673   1.688  14.217   0.581
36967SOL     OW12674   5.036  11.196   0.692
36967SOL    HW112675   5.088  11.267   0.730
36967SOL    HW212676   5.014  11.228   0.604
36968SOL     OW12677   2.269   3.391  14.247
36968SOL    HW112678   2.233   3.309  14.214
36968SOL    HW212679   2.310   3.366  14.330
36969SOL     OW12680   7.775   0.267   0.554
36969SOL    HW112681   7.817   0.332   0.497
36969SOL    HW212682   7.761   0.313   0.637
36970SOL     OW12683  12.674   4.565  13.821
36970SOL    HW112684  12.724   4.554  13.740
36970SOL    HW212685  12.605   4.628  13.797
36971SOL     OW12686  14.873   7.477   9.092
36971SOL    HW112687   0.058   7.520   9.151
36971SOL    HW212688  14.863   7.389   9.128
36972SOL     OW12689   3.179  13.633   8.748
36972SOL    HW112690   3.186  13.605   8.839
36972SOL    HW212691   3.146  13.556   8.702
36973SOL     OW12692   0.658   0.266  12.839
36973SOL    HW112693   0.690   0.309  12.760
36973SOL    HW212694   0.688   0.322  12.910
36974SOL     OW12695   9.114   6.752   3.912
36974SOL    HW112696   9.101   6.690   3.840
36974SOL    HW212697   9.207   6.772   3.910
36975SOL     OW12698   9.309   0.691   6.001
36975SOL    HW112699   9.240   0.678   6.066
36975SOL    HW212700   9.387   0.654   6.041
36976SOL     OW12701   6.383   1.616   2.075
36976SOL    HW112702   6.461   1.575   2.037
36976SOL    HW212703   6.323   1.626   2.000
36977SOL     OW12704   6.528  12.598   3.785
36977SOL    HW112705   6.605  12.565   3.738
36977SOL    HW212706   6.556  12.683   3.819
36978SOL     OW12707   4.535  12.623   5.576
36978SOL    HW112708   4.539  12.558   5.645
36978SOL    HW212709   4.460  12.598   5.522
36979SOL     OW12710   9.182   7.871   7.371
36979SOL    HW112711   9.094   7.904   7.355
36979SOL    HW212712   9.173   7.817   7.450
36980SOL     OW12713   7.914   6.518   9.457
36980SOL    HW112714   7.902   6.510   9.362
36980SOL    HW212715   7.868   6.599   9.480
36981SOL     OW12716   6.389   7.516  13.106
36981SOL    HW112717   6.301   7.511  13.143
36981SOL    HW212718   6.433   7.583  13.157
36982SOL     OW12719   8.446   5.517   0.028
36982SOL    HW112720   8.425   5.579   0.098
36982SOL    HW212721   8.402   5.553  14.829
36983SOL     OW12722  10.069   1.203   5.432
36983SOL    HW112723  10.026   1.263   5.494
36983SOL    HW212724  10.099   1.260   5.361
36984SOL     OW12725  11.804   5.279   3.941
36984SOL    HW112726  11.798   5.363   3.894
36984SOL    HW212727  11.887   5.283   3.988
36985SOL     OW12728  12.215   5.747   3.548
36985SOL    HW112729  12.258   5.822   3.588
36985SOL    HW212730  12.232   5.757   3.454
36986SOL     OW12731   8.125  13.415   3.672
36986SOL    HW112732   8.167  13.429   3.587
36986SOL    HW212733   8.102  13.503   3.702
36987SOL     OW12734   1.141   1.591   6.734
36987SOL    HW112735   1.073   1.560   6.674
36987SOL    HW212736   1.125   1.685   6.743
36988SOL     OW12737  11.895   9.297   5.234
36988SOL    HW112738  11.986   9.269   5.242
36988SOL    HW212739  11.897   9.369   5.171
36989SOL     OW12740   1.521  14.646  14.290
36989SOL    HW112741   1.493  14.653  14.199
36989SOL    HW212742   1.550  14.555  14.300
36990SOL     OW12743   3.727   0.111  12.777
36990SOL    HW112744   3.814   0.146  12.755
36990SOL    HW212745   3.683   0.101  12.693
36991SOL     OW12746  13.483   1.503  13.853
36991SOL    HW112747  13.421   1.510  13.926
36991SOL    HW212748  13.569   1.499  13.894
36992SOL     OW12749   2.185   2.599   1.672
36992SOL    HW112750   2.163   2.677   1.621
36992SOL    HW212751   2.184   2.629   1.763
36993SOL     OW12752   6.363   2.980   8.495
36993SOL    HW112753   6.268   2.992   8.491
36993SOL    HW212754   6.375   2.914   8.564
36994SOL     OW12755  11.849  14.110  11.231
36994SOL    HW112756  11.943  14.090  11.225
36994SOL    HW212757  11.845  14.191  11.280
36995SOL     OW12758  12.572   1.941   7.684
36995SOL    HW112759  12.594   2.003   7.614
36995SOL    HW212760  12.522   1.993   7.747
36996SOL     OW12761   0.290   3.683  10.616
36996SOL    HW112762   0.368   3.630  10.630
36996SOL    HW212763   0.308   3.765  10.662
36997SOL     OW12764  11.819   5.740   9.568
36997SOL    HW112765  11.812   5.832   9.545
36997SOL    HW212766  11.854   5.697   9.490
36998SOL     OW12767  10.457   8.397   6.735
36998SOL    HW112768  10.499   8.427   6.815
36998SOL    HW212769  10.378   8.451   6.728
36999SOL     OW12770  13.825  12.256   0.595
36999SOL    HW112771  13.783  12.173   0.618
36999SOL    HW212772  13.784  12.321   0.652
37000SOL     OW12773   7.713   7.719   1.861
37000SOL    HW112774   7.691   7.648   1.921
37000SOL    HW212775   7.732   7.675   1.777
37001SOL     OW12776   1.397   5.480   3.219
37001SOL    HW112777   1.349   5.419   3.163
37001SOL    HW212778   1.459   5.425   3.266
37002SOL     OW12779  12.115   5.348   7.981
37002SOL    HW112780  12.040   5.312   8.028
37002SOL    HW212781  12.189   5.337   8.040
37003SOL     OW12782  13.779   1.327   6.244
37003SOL    HW112783  13.808   1.390   6.310
37003SOL    HW212784  13.695   1.362   6.213
37004SOL     OW12785   7.683   1.229  11.965
37004SOL    HW112786   7.696   1.275  11.882
37004SOL    HW212787   7.760   1.172  11.972
37005SOL     OW12788   6.684  10.055   7.676
37005SOL    HW112789   6.675  10.122   7.608
37005SOL    HW212790   6.611  10.070   7.735
37006SOL     OW12791   1.848   2.393   7.265
37006SOL    HW112792   1.917   2.386   7.331
37006SOL    HW212793   1.781   2.332   7.294
37007SOL     OW12794   5.771   4.831   4.316
37007SOL    HW112795   5.742   4.845   4.226
37007SOL    HW212796   5.803   4.741   4.317
37008SOL     OW12797   7.467  12.525  14.492
37008SOL    HW112798   7.559  12.517  14.516
37008SOL    HW212799   7.455  12.460  14.422
37009SOL     OW12800   3.012  10.155   7.530
37009SOL    HW112801   3.084  10.196   7.482
37009SOL    HW212802   3.046  10.147   7.620
37010SOL     OW12803   2.034  11.211   1.153
37010SOL    HW112804   2.030  11.226   1.247
37010SOL    HW212805   2.126  11.191   1.136
37011SOL     OW12806  13.429  13.657   4.749
37011SOL    HW112807  13.482  13.724   4.706
37011SOL    HW212808  13.338  13.684   4.731
37012SOL     OW12809   3.714   6.202  12.538
37012SOL    HW112810   3.717   6.119  12.584
37012SOL    HW212811   3.624   6.233  12.549
37013SOL     OW12812   8.034  10.850   7.666
37013SOL    HW112813   8.128  10.868   7.655
37013SOL    HW212814   8.028  10.800   7.747
37014SOL     OW12815   4.078   6.166   1.718
37014SOL    HW112816   4.071   6.135   1.628
37014SOL    HW212817   4.036   6.098   1.770
37015SOL     OW12818   8.845   7.201   9.413
37015SOL    HW112819   8.866   7.289   9.445
37015SOL    HW212820   8.929   7.162   9.393
37016SOL     OW12821   1.332  12.440   0.404
37016SOL    HW112822   1.324  12.349   0.378
37016SOL    HW212823   1.379  12.438   0.487
37017SOL     OW12824  12.098   5.349   1.865
37017SOL    HW112825  12.084   5.441   1.842
37017SOL    HW212826  12.012   5.318   1.893
37018SOL     OW12827   0.051   7.748   2.672
37018SOL    HW112828   0.113   7.767   2.743
37018SOL    HW212829  14.853   7.805   2.691
37019SOL     OW12830  14.598  10.588  12.951
37019SOL    HW112831  14.570  10.606  12.861
37019SOL    HW212832  14.570  10.664  13.001
37020SOL     OW12833   9.800  11.382  11.795
37020SOL    HW112834   9.736  11.311  11.796
37020SOL    HW212835   9.747  11.462  11.785
37021SOL     OW12836   1.015   2.276  14.003
37021SOL    HW112837   1.053   2.273  13.915
37021SOL    HW212838   0.937   2.221  13.997
37022SOL     OW12839  10.394   0.446   0.691
37022SOL    HW112840  10.304   0.429   0.661
37022SOL    HW212841  10.388   0.526   0.742
37023SOL     OW12842   4.382   5.808   6.862
37023SOL    HW112843   4.397   5.772   6.949
37023SOL    HW212844   4.323   5.882   6.876
37024SOL     OW12845   0.205   1.468   6.959
37024SOL    HW112846   0.173   1.524   6.888
37024SOL    HW212847   0.151   1.493   7.035
37025SOL     OW12848   4.585   9.979   6.285
37025SOL    HW112849   4.653  10.016   6.342
37025SOL    HW212850   4.517   9.949   6.346
37026SOL     OW12851  11.577   8.231   5.652
37026SOL    HW112852  11.584   8.158   5.590
37026SOL    HW212853  11.565   8.189   5.737
37027SOL     OW12854   8.114  10.416   6.196
37027SOL    HW112855   8.205  10.445   6.208
37027SOL    HW212856   8.108  10.396   6.102
37028SOL     OW12857  11.057   7.694   1.247
37028SOL    HW112858  11.115   7.621   1.267
37028SOL    HW212859  10.988   7.656   1.192
37029SOL     OW12860  10.094   8.389   9.944
37029SOL    HW112861  10.049   8.469   9.973
37029SOL    HW212862  10.157   8.420   9.879
37030SOL     OW12863   2.731  12.744   8.964
37030SOL    HW112864   2.794  12.688   8.919
37030SOL    HW212865   2.649  12.734   8.915
37031SOL     OW12866   3.536   1.578   6.774
37031SOL    HW112867   3.492   1.637   6.836
37031SOL    HW212868   3.473   1.566   6.704
37032SOL     OW12869  14.018   7.236  11.736
37032SOL    HW112870  13.993   7.324  11.708
37032SOL    HW212871  13.936   7.193  11.759
37033SOL     OW12872   4.215   3.269   3.155
37033SOL    HW112873   4.155   3.194   3.154
37033SOL    HW212874   4.250   3.270   3.244
37034SOL     OW12875  14.476   4.602   0.581
37034SOL    HW112876  14.428   4.675   0.542
37034SOL    HW212877  14.427   4.524   0.556
37035SOL     OW12878  13.160   6.106  10.344
37035SOL    HW112879  13.076   6.062  10.336
37035SOL    HW212880  13.222   6.049  10.299
37036SOL     OW12881   1.592   7.789   9.155
37036SOL    HW112882   1.620   7.707   9.113
37036SOL    HW212883   1.531   7.828   9.092
37037SOL     OW12884  13.621  11.185  13.494
37037SOL    HW112885  13.527  11.179  13.508
37037SOL    HW212886  13.659  11.181  13.582
37038SOL     OW12887   0.605   6.372   9.724
37038SOL    HW112888   0.581   6.289   9.764
37038SOL    HW212889   0.691   6.393   9.760
37039SOL     OW12890   1.446   7.233  11.749
37039SOL    HW112891   1.528   7.264  11.788
37039SOL    HW212892   1.447   7.139  11.762
37040SOL     OW12893  13.239  11.773  14.166
37040SOL    HW112894  13.210  11.830  14.237
37040SOL    HW212895  13.221  11.821  14.086
37041SOL     OW12896   4.330   1.708  14.266
37041SOL    HW112897   4.315   1.615  14.249
37041SOL    HW212898   4.325   1.716  14.361
37042SOL     OW12899   6.571   8.894  14.037
37042SOL    HW112900   6.574   8.877  14.131
37042SOL    HW212901   6.588   8.809  13.997
37043SOL     OW12902   7.977  12.196   6.312
37043SOL    HW112903   8.062  12.208   6.355
37043SOL    HW212904   7.991  12.227   6.223
37044SOL     OW12905   7.380  10.575   9.960
37044SOL    HW112906   7.342  10.519  10.027
37044SOL    HW212907   7.394  10.659  10.003
37045SOL     OW12908   3.085  10.560   9.225
37045SOL    HW112909   3.124  10.504   9.291
37045SOL    HW212910   3.000  10.585   9.261
37046SOL     OW12911   9.617   0.954   4.981
37046SOL    HW112912   9.632   0.872   5.027
37046SOL    HW212913   9.687   1.012   5.010
37047SOL     OW12914   7.286   0.445   2.441
37047SOL    HW112915   7.235   0.480   2.513
37047SOL    HW212916   7.271   0.506   2.368
37048SOL     OW12917   3.646  14.852   6.485
37048SOL    HW112918   3.616  14.828   6.573
37048SOL    HW212919   3.585  14.806   6.426
37049SOL     OW12920  11.600   6.917  12.021
37049SOL    HW112921  11.589   6.942  12.113
37049SOL    HW212922  11.656   6.840  12.024
37050SOL     OW12923  11.237  14.381   8.187
37050SOL    HW112924  11.292  14.377   8.265
37050SOL    HW212925  11.251  14.470   8.153
37051SOL     OW12926   5.078  10.561   8.608
37051SOL    HW112927   5.075  10.561   8.704
37051SOL    HW212928   5.117  10.646   8.586
37052SOL     OW12929  10.847  10.881   6.577
37052SOL    HW112930  10.801  10.962   6.559
37052SOL    HW212931  10.914  10.905   6.641
37053SOL     OW12932   9.143  13.177   7.268
37053SOL    HW112933   9.083  13.199   7.197
37053SOL    HW212934   9.208  13.247   7.268
37054SOL     OW12935   1.654  14.658   7.709
37054SOL    HW112936   1.626  14.701   7.789
37054SOL    HW212937   1.730  14.709   7.680
37055SOL     OW12938   8.692  13.306  10.153
37055SOL    HW112939   8.722  13.230  10.103
37055SOL    HW212940   8.772  13.346  10.187
37056SOL     OW12941   7.189  12.386  13.974
37056SOL    HW112942   7.257  12.408  13.910
37056SOL    HW212943   7.107  12.409  13.931
37057SOL     OW12944  12.060  12.843   0.635
37057SOL    HW112945  11.974  12.822   0.671
37057SOL    HW212946  12.091  12.916   0.689
37058SOL     OW12947   1.912  13.702  11.824
37058SOL    HW112948   1.918  13.721  11.730
37058SOL    HW212949   1.996  13.661  11.845
37059SOL     OW12950   8.935   3.142  13.118
37059SOL    HW112951   8.881   3.066  13.140
37059SOL    HW212952   8.983   3.115  13.040
37060SOL     OW12953   1.164   4.998  14.694
37060SOL    HW112954   1.211   5.060  14.750
37060SOL    HW212955   1.216   4.918  14.700
37061SOL     OW12956   8.931   8.140   1.980
37061SOL    HW112957   8.937   8.230   1.946
37061SOL    HW212958   8.984   8.088   1.919
37062SOL     OW12959   2.440   1.308   2.291
37062SOL    HW112960   2.516   1.367   2.285
37062SOL    HW212961   2.477   1.220   2.286
37063SOL     OW12962   2.662   4.368   5.426
37063SOL    HW112963   2.756   4.379   5.411
37063SOL    HW212964   2.645   4.275   5.412
37064SOL     OW12965   6.486   5.262  11.916
37064SOL    HW112966   6.534   5.321  11.974
37064SOL    HW212967   6.519   5.282  11.828
37065SOL     OW12968   4.551  13.659   6.156
37065SOL    HW112969   4.480  13.627   6.101
37065SOL    HW212970   4.542  13.754   6.155
37066SOL     OW12971   5.374  11.101   6.757
37066SOL    HW112972   5.398  11.159   6.685
37066SOL    HW212973   5.416  11.139   6.834
37067SOL     OW12974   0.642   2.816   2.826
37067SOL    HW112975   0.646   2.737   2.879
37067SOL    HW212976   0.733   2.843   2.815
37068SOL     OW12977  12.426   5.568   6.821
37068SOL    HW112978  12.335   5.558   6.795
37068SOL    HW212979  12.473   5.505   6.765
37069SOL     OW12980  13.655  10.027   2.030
37069SOL    HW112981  13.631   9.939   2.001
37069SOL    HW212982  13.571  10.072   2.041
37070SOL     OW12983  11.011  10.483   4.282
37070SOL    HW112984  11.082  10.442   4.331
37070SOL    HW212985  10.985  10.417   4.217
37071SOL     OW12986   8.581  12.785  14.196
37071SOL    HW112987   8.490  12.764  14.213
37071SOL    HW212988   8.620  12.795  14.283
37072SOL     OW12989   0.697   9.350  10.692
37072SOL    HW112990   0.720   9.365  10.600
37072SOL    HW212991   0.775   9.309  10.729
37073SOL     OW12992   2.483   8.449   5.881
37073SOL    HW112993   2.428   8.486   5.950
37073SOL    HW212994   2.490   8.519   5.816
37074SOL     OW12995  12.439   3.489  13.698
37074SOL    HW112996  12.395   3.432  13.635
37074SOL    HW212997  12.527   3.500  13.664
37075SOL     OW12998   6.914  11.990   3.200
37075SOL    HW112999   6.965  12.023   3.274
37075SOL    HW213000   6.970  11.923   3.160
37076SOL     OW13001  11.467  12.139   3.733
37076SOL    HW113002  11.496  12.147   3.642
37076SOL    HW213003  11.403  12.209   3.745
37077SOL     OW13004  11.974   9.830  11.907
37077SOL    HW113005  12.060   9.790  11.915
37077SOL    HW213006  11.950   9.854  11.997
37078SOL     OW13007  11.059   6.961   3.965
37078SOL    HW113008  11.128   6.971   4.030
37078SOL    HW213009  10.977   6.975   4.014
37079SOL     OW13010  13.402  10.447   2.077
37079SOL    HW113011  13.415  10.541   2.088
37079SOL    HW213012  13.487  10.414   2.047
37080SOL     OW13013   7.080   6.976   9.726
37080SOL    HW113014   7.026   7.054   9.734
37080SOL    HW213015   7.161   6.998   9.773
37081SOL     OW13016   9.436   8.169   8.224
37081SOL    HW113017   9.489   8.195   8.299
37081SOL    HW213018   9.430   8.074   8.231
37082SOL     OW13019   3.417   2.268   8.782
37082SOL    HW113020   3.323   2.252   8.770
37082SOL    HW213021   3.424   2.363   8.795
37083SOL     OW13022   9.432   0.349  11.591
37083SOL    HW113023   9.426   0.361  11.686
37083SOL    HW213024   9.350   0.385  11.557
37084SOL     OW13025   2.570   3.816  13.169
37084SOL    HW113026   2.615   3.805  13.253
37084SOL    HW213027   2.490   3.765  13.177
37085SOL     OW13028   6.245  10.405  14.069
37085SOL    HW113029   6.335  10.393  14.102
37085SOL    HW213030   6.245  10.493  14.031
37086SOL     OW13031   2.852   4.107   0.720
37086SOL    HW113032   2.932   4.101   0.669
37086SOL    HW213033   2.863   4.043   0.790
37087SOL     OW13034   6.532   3.701  13.789
37087SOL    HW113035   6.523   3.629  13.726
37087SOL    HW213036   6.575   3.771  13.740
37088SOL     OW13037  14.209   6.912   7.782
37088SOL    HW113038  14.117   6.893   7.763
37088SOL    HW213039  14.210   6.935   7.874
37089SOL     OW13040   5.565   8.888   9.207
37089SOL    HW113041   5.543   8.952   9.275
37089SOL    HW213042   5.482   8.870   9.164
37090SOL     OW13043  12.546   9.957   7.239
37090SOL    HW113044  12.459   9.927   7.268
37090SOL    HW213045  12.582   9.882   7.192
37091SOL     OW13046  10.931   3.531   6.962
37091SOL    HW113047  10.915   3.464   6.896
37091SOL    HW213048  10.844   3.560   6.988
37092SOL     OW13049   1.537   8.336  11.874
37092SOL    HW113050   1.553   8.269  11.808
37092SOL    HW213051   1.442   8.346  11.876
37093SOL     OW13052   4.348   3.494  10.267
37093SOL    HW113053   4.275   3.432  10.264
37093SOL    HW213054   4.333   3.552  10.192
37094SOL     OW13055   7.124   1.483  11.058
37094SOL    HW113056   7.097   1.562  11.012
37094SOL    HW213057   7.214   1.501  11.086
37095SOL     OW13058   1.703   2.517  12.414
37095SOL    HW113059   1.718   2.602  12.371
37095SOL    HW213060   1.610   2.517  12.434
37096SOL     OW13061   8.119   0.229  11.575
37096SOL    HW113062   8.146   0.272  11.494
37096SOL    HW213063   8.197   0.183  11.605
37097SOL     OW13064  14.364  13.160  10.044
37097SOL    HW113065  14.440  13.128  10.093
37097SOL    HW213066  14.308  13.084  10.034
37098SOL     OW13067   6.319   0.758   9.794
37098SOL    HW113068   6.242   0.810   9.819
37098SOL    HW213069   6.393   0.818   9.804
37099SOL     OW13070  14.582  13.552   6.210
37099SOL    HW113071  14.595  13.581   6.119
37099SOL    HW213072  14.521  13.616   6.247
37100SOL     OW13073   5.446   9.082   9.389
37100SOL    HW113074   5.380   9.060   9.454
37100SOL    HW213075   5.489   9.161   9.424
37101SOL     OW13076   8.046  14.796   2.247
37101SOL    HW113077   8.137  14.785   2.219
37101SOL    HW213078   8.015  14.872   2.198
37102SOL     OW13079   2.217   3.917   6.306
37102SOL    HW113080   2.180   3.844   6.256
37102SOL    HW213081   2.147   3.945   6.365
37103SOL     OW13082   7.210  12.477   5.128
37103SOL    HW113083   7.247  12.531   5.058
37103SOL    HW213084   7.285  12.433   5.167
37104SOL     OW13085   9.816   6.281  10.893
37104SOL    HW113086   9.811   6.187  10.913
37104SOL    HW213087   9.896   6.290  10.841
37105SOL     OW13088   8.725   3.917   8.811
37105SOL    HW113089   8.699   3.825   8.805
37105SOL    HW213090   8.666   3.954   8.877
37106SOL     OW13091  10.251   0.740   1.367
37106SOL    HW113092  10.263   0.644   1.367
37106SOL    HW213093  10.273   0.767   1.278
37107SOL     OW13094  13.370   6.275   8.322
37107SOL    HW113095  13.364   6.371   8.320
37107SOL    HW213096  13.305   6.246   8.258
37108SOL     OW13097   9.342   8.096   7.392
37108SOL    HW113098   9.282   8.021   7.398
37108SOL    HW213099   9.313   8.156   7.461
37109SOL     OW13100   8.128   3.763  14.578
37109SOL    HW113101   8.108   3.846  14.534
37109SOL    HW213102   8.090   3.772  14.665
37110SOL     OW13103   6.184  13.675  12.504
37110SOL    HW113104   6.274  13.703  12.488
37110SOL    HW213105   6.160  13.627  12.425
37111SOL     OW13106   9.331   9.519  13.935
37111SOL    HW113107   9.293   9.468  14.006
37111SOL    HW213108   9.398   9.462  13.897
37112SOL     OW13109  10.768   6.499  13.663
37112SOL    HW113110  10.797   6.453  13.742
37112SOL    HW213111  10.795   6.590  13.678
37113SOL     OW13112   3.317   0.194  14.100
37113SOL    HW113113   3.282   0.231  14.181
37113SOL    HW213114   3.271   0.111  14.089
37114SOL     OW13115  14.680  11.143   5.263
37114SOL    HW113116  14.635  11.225   5.286
37114SOL    HW213117  14.772  11.159   5.283
37115SOL     OW13118   3.552  12.373  13.558
37115SOL    HW113119   3.505  12.452  13.584
37115SOL    HW213120   3.578  12.388  13.467
37116SOL     OW13121  13.037   7.123   4.410
37116SOL    HW113122  13.075   7.179   4.342
37116SOL    HW213123  12.954   7.094   4.373
37117SOL     OW13124  11.747  11.627   0.502
37117SOL    HW113125  11.821  11.626   0.563
37117SOL    HW213126  11.788  11.629   0.415
37118SOL     OW13127   1.803  12.724  14.525
37118SOL    HW113128   1.833  12.696  14.439
37118SOL    HW213129   1.789  12.643  14.573
37119SOL     OW13130   0.547   5.547  11.106
37119SOL    HW113131   0.493   5.616  11.067
37119SOL    HW213132   0.493   5.511  11.176
37120SOL     OW13133   3.830   4.492  13.864
37120SOL    HW113134   3.778   4.517  13.787
37120SOL    HW213135   3.880   4.416  13.835
37121SOL     OW13136   3.367   3.413  10.506
37121SOL    HW113137   3.358   3.478  10.436
37121SOL    HW213138   3.429   3.453  10.566
37122SOL     OW13139  13.021   4.315   8.464
37122SOL    HW113140  12.960   4.241   8.468
37122SOL    HW213141  12.968   4.389   8.435
37123SOL     OW13142   4.098   8.702   0.159
37123SOL    HW113143   4.148   8.620   0.150
37123SOL    HW213144   4.150   8.755   0.220
37124SOL     OW13145  12.723   7.474  12.977
37124SOL    HW113146  12.699   7.552  12.927
37124SOL    HW213147  12.702   7.401  12.920
37125SOL     OW13148  12.510  10.623   8.661
37125SOL    HW113149  12.518  10.715   8.685
37125SOL    HW213150  12.534  10.621   8.568
37126SOL     OW13151   1.544  13.438   4.995
37126SOL    HW113152   1.618  13.441   5.057
37126SOL    HW213153   1.582  13.464   4.911
37127SOL     OW13154   5.681  11.811   6.843
37127SOL    HW113155   5.760  11.846   6.885
37127SOL    HW213156   5.651  11.742   6.903
37128SOL     OW13157   9.596   0.161  11.952
37128SOL    HW113158   9.536   0.087  11.938
37128SOL    HW213159   9.561   0.231  11.898
37129SOL     OW13160   6.371  10.642  13.985
37129SOL    HW113161   6.312  10.700  13.937
37129SOL    HW213162   6.448  10.695  14.004
37130SOL     OW13163   4.505   7.996   8.827
37130SOL    HW113164   4.455   7.927   8.870
37130SOL    HW213165   4.453   8.075   8.842
37131SOL     OW13166   5.835   3.913   0.834
37131SOL    HW113167   5.785   3.832   0.837
37131SOL    HW213168   5.925   3.887   0.852
37132SOL     OW13169  10.034   8.309  14.016
37132SOL    HW113170  10.001   8.252  13.947
37132SOL    HW213171  10.107   8.356  13.975
37133SOL     OW13172  12.192   5.209   9.946
37133SOL    HW113173  12.238   5.195  10.028
37133SOL    HW213174  12.123   5.271   9.967
37134SOL     OW13175   7.718  11.108   4.057
37134SOL    HW113176   7.670  11.025   4.063
37134SOL    HW213177   7.807  11.086   4.085
37135SOL     OW13178   7.072  13.297   1.991
37135SOL    HW113179   7.099  13.350   2.066
37135SOL    HW213180   7.155  13.275   1.947
37136SOL     OW13181   1.513   9.458  10.342
37136SOL    HW113182   1.545   9.435  10.429
37136SOL    HW213183   1.590   9.491  10.296
37137SOL     OW13184   1.248   3.842   9.899
37137SOL    HW113185   1.242   3.794   9.982
37137SOL    HW213186   1.301   3.785   9.843
37138SOL     OW13187   9.479   7.279   3.448
37138SOL    HW113188   9.570   7.298   3.422
37138SOL    HW213189   9.426   7.315   3.378
37139SOL     OW13190  12.310  10.717   7.292
37139SOL    HW113191  12.268  10.787   7.342
37139SOL    HW213192  12.296  10.638   7.343
37140SOL     OW13193  12.567   6.616   8.833
37140SOL    HW113194  12.529   6.531   8.856
37140SOL    HW213195  12.646   6.623   8.886
37141SOL     OW13196  13.724   2.442   1.196
37141SOL    HW113197  13.772   2.364   1.167
37141SOL    HW213198  13.634   2.426   1.166
37142SOL     OW13199   0.005  14.471   6.345
37142SOL    HW113200   0.008  14.454   6.251
37142SOL    HW213201  14.843  14.558   6.352
37143SOL     OW13202   2.308   1.714   6.244
37143SOL    HW113203   2.399   1.685   6.251
37143SOL    HW213204   2.304   1.761   6.161
37144SOL     OW13205   6.991   5.205   5.055
37144SOL    HW113206   7.007   5.120   5.014
37144SOL    HW213207   6.896   5.219   5.045
37145SOL     OW13208   6.987   7.335  13.621
37145SOL    HW113209   6.984   7.249  13.663
37145SOL    HW213210   7.002   7.396  13.693
37146SOL     OW13211  12.760  12.928   4.287
37146SOL    HW113212  12.733  12.955   4.199
37146SOL    HW213213  12.852  12.955   4.292
37147SOL     OW13214   5.885   3.781  14.573
37147SOL    HW113215   5.944   3.707  14.563
37147SOL    HW213216   5.868   3.810  14.484
37148SOL     OW13217   6.745  14.090  11.514
37148SOL    HW113218   6.830  14.047  11.509
37148SOL    HW213219   6.733  14.131  11.428
37149SOL     OW13220   2.063   9.156   3.459
37149SOL    HW113221   2.026   9.079   3.416
37149SOL    HW213222   2.114   9.122   3.532
37150SOL     OW13223   6.983   6.323  11.761
37150SOL    HW113224   7.001   6.282  11.676
37150SOL    HW213225   6.990   6.417  11.744
37151SOL     OW13226  14.870  11.368  10.309
37151SOL    HW113227  14.822  11.285  10.306
37151SOL    HW213228  14.811  11.428  10.355
37152SOL     OW13229  14.300   2.413   6.693
37152SOL    HW113230  14.294   2.507   6.677
37152SOL    HW213231  14.305   2.405   6.788
37153SOL     OW13232   5.306   3.285   9.027
37153SOL    HW113233   5.265   3.208   9.066
37153SOL    HW213234   5.234   3.346   9.013
37154SOL     OW13235   1.049   0.057   3.843
37154SOL    HW113236   1.073   0.004   3.767
37154SOL    HW213237   1.035   0.145   3.807
37155SOL     OW13238  13.224   9.805   3.633
37155SOL    HW113239  13.226   9.795   3.728
37155SOL    HW213240  13.135   9.780   3.608
37156SOL     OW13241   6.570   0.811   1.643
37156SOL    HW113242   6.593   0.800   1.735
37156SOL    HW213243   6.512   0.888   1.641
37157SOL     OW13244  11.148  11.356  13.527
37157SOL    HW113245  11.195  11.435  13.554
37157SOL    HW213246  11.101  11.328  13.605
37158SOL     OW13247   8.347   6.682  13.424
37158SOL    HW113248   8.416   6.636  13.472
37158SOL    HW213249   8.314   6.747  13.486
37159SOL     OW13250   1.604   3.601   7.675
37159SOL    HW113251   1.589   3.575   7.584
37159SOL    HW213252   1.606   3.697   7.673
37160SOL     OW13253   4.347  10.978   8.575
37160SOL    HW113254   4.253  10.994   8.585
37160SOL    HW213255   4.389  11.057   8.608
37161SOL     OW13256   4.512  11.411  13.240
37161SOL    HW113257   4.600  11.386  13.269
37161SOL    HW213258   4.469  11.444  13.319
37162SOL     OW13259  10.147  14.863  10.438
37162SOL    HW113260  10.067  14.828  10.476
37162SOL    HW213261  10.215  14.842  10.502
37163SOL     OW13262   4.575  11.669  12.328
37163SOL    HW113263   4.604  11.714  12.408
37163SOL    HW213264   4.656  11.646  12.283
37164SOL     OW13265   9.058   9.731   7.074
37164SOL    HW113266   9.132   9.671   7.065
37164SOL    HW213267   8.985   9.675   7.101
37165SOL     OW13268   2.249  12.246  11.665
37165SOL    HW113269   2.254  12.331  11.709
37165SOL    HW213270   2.199  12.191  11.725
37166SOL     OW13271   9.518  11.308   2.730
37166SOL    HW113272   9.455  11.358   2.678
37166SOL    HW213273   9.554  11.371   2.792
37167SOL     OW13274   1.178  14.462  11.922
37167SOL    HW113275   1.253  14.517  11.944
37167SOL    HW213276   1.102  14.518  11.938
37168SOL     OW13277  13.036   7.823   1.002
37168SOL    HW113278  13.033   7.788   1.091
37168SOL    HW213279  13.117   7.873   0.997
37169SOL     OW13280   8.946   4.399   5.064
37169SOL    HW113281   9.024   4.344   5.070
37169SOL    HW213282   8.878   4.341   5.029
37170SOL     OW13283   0.606  13.032   0.205
37170SOL    HW113284   0.535  13.044   0.268
37170SOL    HW213285   0.603  13.110   0.150
37171SOL     OW13286   0.092  10.292   1.060
37171SOL    HW113287   0.044  10.373   1.079
37171SOL    HW213288   0.024  10.228   1.040
37172SOL     OW13289   7.168   6.141  11.012
37172SOL    HW113290   7.173   6.128  10.918
37172SOL    HW213291   7.255   6.116  11.044
37173SOL     OW13292   7.315   5.675  13.112
37173SOL    HW113293   7.251   5.687  13.042
37173SOL    HW213294   7.263   5.643  13.186
37174SOL     OW13295   5.334   0.796   0.859
37174SOL    HW113296   5.381   0.853   0.919
37174SOL    HW213297   5.361   0.824   0.772
37175SOL     OW13298   9.804   3.728   0.079
37175SOL    HW113299   9.869   3.756   0.015
37175SOL    HW213300   9.822   3.781   0.157
37176SOL     OW13301   5.033  10.497  10.945
37176SOL    HW113302   5.097  10.568  10.935
37176SOL    HW213303   4.950  10.542  10.960
37177SOL     OW13304   8.175   4.731  13.346
37177SOL    HW113305   8.130   4.657  13.387
37177SOL    HW213306   8.133   4.740  13.260
37178SOL     OW13307   8.570  14.283   3.043
37178SOL    HW113308   8.591  14.303   2.951
37178SOL    HW213309   8.483  14.319   3.057
37179SOL     OW13310   4.060   1.735   1.994
37179SOL    HW113311   4.011   1.814   1.971
37179SOL    HW213312   4.046   1.676   1.920
37180SOL     OW13313   8.262  11.570   9.045
37180SOL    HW113314   8.266  11.666   9.037
37180SOL    HW213315   8.270  11.554   9.139
37181SOL     OW13316   3.927  11.236   8.025
37181SOL    HW113317   3.929  11.328   7.999
37181SOL    HW213318   3.914  11.238   8.120
37182SOL     OW13319   1.643  14.130  11.132
37182SOL    HW113320   1.690  14.085  11.202
37182SOL    HW213321   1.709  14.186  11.091
37183SOL     OW13322   6.327  12.598   9.712
37183SOL    HW113323   6.383  12.650   9.655
37183SOL    HW213324   6.252  12.655   9.730
37184SOL     OW13325   0.503  14.658   8.617
37184SOL    HW113326   0.541  14.645   8.530
37184SOL    HW213327   0.559  14.724   8.658
37185SOL     OW13328   2.428   2.354   8.651
37185SOL    HW113329   2.434   2.319   8.562
37185SOL    HW213330   2.518   2.354   8.683
37186SOL     OW13331   7.498   1.317  10.763
37186SOL    HW113332   7.408   1.284  10.761
37186SOL    HW213333   7.521   1.320  10.856
37187SOL     OW13334   0.955   2.524   5.244
37187SOL    HW113335   1.037   2.487   5.210
37187SOL    HW213336   0.897   2.528   5.167
37188SOL     OW13337  12.687   8.839   6.413
37188SOL    HW113338  12.742   8.761   6.407
37188SOL    HW213339  12.743   8.903   6.459
37189SOL     OW13340   9.622  12.780   6.275
37189SOL    HW113341   9.704  12.823   6.253
37189SOL    HW213342   9.604  12.723   6.200
37190SOL     OW13343   1.588  14.528  12.491
37190SOL    HW113344   1.595  14.433  12.480
37190SOL    HW213345   1.566  14.540  12.583
37191SOL     OW13346  10.760   0.802   0.778
37191SOL    HW113347  10.694   0.757   0.725
37191SOL    HW213348  10.802   0.732   0.829
37192SOL     OW13349  13.777   1.675   9.157
37192SOL    HW113350  13.796   1.671   9.063
37192SOL    HW213351  13.788   1.585   9.187
37193SOL     OW13352  13.262  10.814   6.327
37193SOL    HW113353  13.331  10.879   6.325
37193SOL    HW213354  13.183  10.863   6.352
37194SOL     OW13355   6.101   0.668   4.386
37194SOL    HW113356   6.128   0.666   4.294
37194SOL    HW213357   6.179   0.695   4.434
37195SOL     OW13358   9.725  10.589  11.840
37195SOL    HW113359   9.805  10.536  11.840
37195SOL    HW213360   9.656  10.528  11.811
37196SOL     OW13361   1.687   8.012   7.316
37196SOL    HW113362   1.627   8.037   7.386
37196SOL    HW213363   1.708   7.920   7.335
37197SOL     OW13364   4.771   5.147  11.198
37197SOL    HW113365   4.714   5.198  11.256
37197SOL    HW213366   4.806   5.077  11.254
37198SOL     OW13367  14.235  14.416  13.214
37198SOL    HW113368  14.211  14.454  13.129
37198SOL    HW213369  14.274  14.489  13.262
37199SOL     OW13370   7.995   3.073   8.961
37199SOL    HW113371   8.090   3.074   8.971
37199SOL    HW213372   7.971   3.165   8.948
37200SOL     OW13373   8.082   7.416  10.911
37200SOL    HW113374   8.117   7.477  10.846
37200SOL    HW213375   8.025   7.470  10.966
37201SOL     OW13376  11.747  11.108   3.897
37201SOL    HW113377  11.671  11.161   3.875
37201SOL    HW213378  11.743  11.097   3.992
37202SOL     OW13379   9.421   4.705  13.325
37202SOL    HW113380   9.331   4.726  13.346
37202SOL    HW213381   9.447   4.640  13.390
37203SOL     OW13382   6.912   3.494   8.156
37203SOL    HW113383   6.891   3.513   8.247
37203SOL    HW213384   6.966   3.415   8.159
37204SOL     OW13385   8.603  13.145   0.551
37204SOL    HW113386   8.531  13.209   0.555
37204SOL    HW213387   8.682  13.199   0.549
37205SOL     OW13388   6.475  10.860   0.090
37205SOL    HW113389   6.543  10.905   0.040
37205SOL    HW213390   6.522  10.818   0.162
37206SOL     OW13391   1.346  10.769  14.513
37206SOL    HW113392   1.358  10.726  14.429
37206SOL    HW213393   1.432  10.765  14.555
37207SOL     OW13394  11.247  12.795   7.165
37207SOL    HW113395  11.178  12.844   7.119
37207SOL    HW213396  11.199  12.729   7.216
37208SOL     OW13397   5.999  14.406  14.339
37208SOL    HW113398   5.918  14.457  14.343
37208SOL    HW213399   6.057  14.458  14.283
37209SOL     OW13400   6.419  14.760  10.905
37209SOL    HW113401   6.353  14.829  10.895
37209SOL    HW213402   6.435  14.755  11.000
37210SOL     OW13403   8.818   1.191  12.772
37210SOL    HW113404   8.841   1.282  12.754
37210SOL    HW213405   8.900   1.143  12.761
37211SOL     OW13406   8.772  13.431   1.928
37211SOL    HW113407   8.718  13.467   2.000
37211SOL    HW213408   8.759  13.337   1.933
37212SOL     OW13409   3.968   8.280  13.899
37212SOL    HW113410   4.032   8.227  13.945
37212SOL    HW213411   4.019   8.329  13.835
37213SOL     OW13412  12.422   0.435   8.629
37213SOL    HW113413  12.432   0.503   8.695
37213SOL    HW213414  12.328   0.436   8.608
37214SOL     OW13415   2.241  11.479   8.420
37214SOL    HW113416   2.172  11.413   8.432
37214SOL    HW213417   2.231  11.538   8.495
37215SOL     OW13418  11.110  10.727   8.149
37215SOL    HW113419  11.108  10.722   8.054
37215SOL    HW213420  11.076  10.814   8.169
37216SOL     OW13421   6.268   7.400  10.167
37216SOL    HW113422   6.295   7.363  10.251
37216SOL    HW213423   6.174   7.413  10.175
37217SOL     OW13424   8.126   3.446   5.893
37217SOL    HW113425   8.110   3.532   5.857
37217SOL    HW213426   8.204   3.457   5.949
37218SOL     OW13427   6.574   1.688   1.697
37218SOL    HW113428   6.631   1.673   1.621
37218SOL    HW213429   6.485   1.689   1.660
37219SOL     OW13430   4.926   4.950  10.432
37219SOL    HW113431   4.878   5.012  10.377
37219SOL    HW213432   4.859   4.899  10.476
37220SOL     OW13433   1.710   7.073   5.065
37220SOL    HW113434   1.668   7.011   5.005
37220SOL    HW213435   1.655   7.151   5.060
37221SOL     OW13436   5.252   9.163   8.965
37221SOL    HW113437   5.332   9.197   8.925
37221SOL    HW213438   5.194   9.144   8.891
37222SOL     OW13439  10.215   6.957   8.730
37222SOL    HW113440  10.181   7.010   8.658
37222SOL    HW213441  10.293   7.005   8.760
37223SOL     OW13442  14.691  12.320  12.407
37223SOL    HW113443  14.744  12.380  12.354
37223SOL    HW213444  14.671  12.370  12.486
37224SOL     OW13445   8.969   8.329   4.722
37224SOL    HW113446   8.926   8.258   4.770
37224SOL    HW213447   9.036   8.284   4.669
37225SOL     OW13448   5.836   6.828  14.119
37225SOL    HW113449   5.780   6.883  14.174
37225SOL    HW213450   5.865   6.758  14.178
37226SOL     OW13451  10.303   3.732   4.669
37226SOL    HW113452  10.293   3.742   4.763
37226SOL    HW213453  10.237   3.668   4.643
37227SOL     OW13454  13.125  14.478   1.173
37227SOL    HW113455  13.061  14.526   1.120
37227SOL    HW213456  13.176  14.428   1.110
37228SOL     OW13457   9.647   3.038   1.509
37228SOL    HW113458   9.634   3.132   1.497
37228SOL    HW213459   9.568   3.008   1.554
37229SOL     OW13460   6.497   7.200  12.228
37229SOL    HW113461   6.428   7.186  12.293
37229SOL    HW213462   6.476   7.286  12.190
37230SOL     OW13463  12.105  12.480   3.943
37230SOL    HW113464  12.118  12.411   4.009
37230SOL    HW213465  12.121  12.436   3.860
37231SOL     OW13466   4.324   4.566  14.138
37231SOL    HW113467   4.280   4.535  14.217
37231SOL    HW213468   4.344   4.487  14.088
37232SOL     OW13469   1.973   3.935   9.185
37232SOL    HW113470   1.988   3.900   9.098
37232SOL    HW213471   1.978   3.859   9.243
37233SOL     OW13472   2.299   3.808   8.640
37233SOL    HW113473   2.245   3.824   8.562
37233SOL    HW213474   2.332   3.894   8.665
37234SOL     OW13475   6.528  13.627   1.669
37234SOL    HW113476   6.520  13.561   1.738
37234SOL    HW213477   6.613  13.609   1.628
37235SOL     OW13478  14.864  14.554   5.377
37235SOL    HW113479  14.771  14.534   5.368
37235SOL    HW213480   0.006  14.609   5.301
37236SOL     OW13481  13.577  11.650   4.481
37236SOL    HW113482  13.536  11.706   4.416
37236SOL    HW213483  13.618  11.710   4.543
37237SOL     OW13484  13.468  12.360   8.409
37237SOL    HW113485  13.392  12.362   8.466
37237SOL    HW213486  13.432  12.346   8.321
37238SOL     OW13487   5.531  12.551  14.766
37238SOL    HW113488   5.568  12.510  14.689
37238SOL    HW213489   5.601  12.608  14.799
37239SOL     OW13490   7.049   5.491   9.902
37239SOL    HW113491   7.027   5.482   9.810
37239SOL    HW213492   7.062   5.401   9.933
37240SOL     OW13493   9.166   2.247  12.762
37240SOL    HW113494   9.087   2.289  12.728
37240SOL    HW213495   9.229   2.252  12.690
37241SOL     OW13496   7.523   1.327   5.804
37241SOL    HW113497   7.452   1.343   5.866
37241SOL    HW213498   7.520   1.232   5.788
37242SOL     OW13499  10.009   5.898   0.557
37242SOL    HW113500   9.951   5.891   0.633
37242SOL    HW213501  10.063   5.819   0.561
37243SOL     OW13502   4.231   6.964   0.355
37243SOL    HW113503   4.252   6.886   0.303
37243SOL    HW213504   4.249   6.938   0.445
37244SOL     OW13505  14.839   3.174   3.220
37244SOL    HW113506  14.748   3.189   3.196
37244SOL    HW213507   0.002   3.261   3.214
37245SOL     OW13508   6.126   2.999   2.886
37245SOL    HW113509   6.119   3.068   2.952
37245SOL    HW213510   6.128   2.918   2.937
37246SOL     OW13511  14.465   5.935   8.008
37246SOL    HW113512  14.405   5.986   7.955
37246SOL    HW213513  14.492   5.995   8.078
37247SOL     OW13514  10.133   0.680  10.517
37247SOL    HW113515  10.098   0.594  10.493
37247SOL    HW213516  10.227   0.673  10.501
37248SOL     OW13517   5.440   7.022  14.525
37248SOL    HW113518   5.500   7.014  14.451
37248SOL    HW213519   5.367   7.074  14.490
37249SOL     OW13520   0.484  14.149  10.883
37249SOL    HW113521   0.458  14.224  10.937
37249SOL    HW213522   0.574  14.131  10.909
37250SOL     OW13523   7.966  13.968   2.338
37250SOL    HW113524   7.901  13.910   2.378
37250SOL    HW213525   7.915  14.040   2.301
37251SOL     OW13526   7.705  14.097   0.433
37251SOL    HW113527   7.786  14.080   0.481
37251SOL    HW213528   7.729  14.088   0.341
37252SOL     OW13529  10.048  14.213   3.470
37252SOL    HW113530  10.073  14.304   3.452
37252SOL    HW213531  10.002  14.217   3.554
37253SOL     OW13532  10.798   1.959   9.925
37253SOL    HW113533  10.794   1.964  10.020
37253SOL    HW213534  10.711   1.929   9.898
37254SOL     OW13535  14.869  11.661  11.706
37254SOL    HW113536  14.865  11.753  11.679
37254SOL    HW213537   0.076  11.630  11.673
37255SOL     OW13538   3.013   3.255  14.348
37255SOL    HW113539   2.977   3.318  14.411
37255SOL    HW213540   3.083   3.210  14.396
37256SOL     OW13541   2.073   2.603   1.160
37256SOL    HW113542   1.997   2.609   1.103
37256SOL    HW213543   2.143   2.571   1.103
37257SOL     OW13544   0.993  11.632   2.794
37257SOL    HW113545   1.074  11.664   2.756
37257SOL    HW213546   0.978  11.548   2.751
37258SOL     OW13547   8.166   6.893   4.506
37258SOL    HW113548   8.207   6.920   4.424
37258SOL    HW213549   8.240   6.869   4.563
37259SOL     OW13550   6.703  10.688   8.383
37259SOL    HW113551   6.717  10.653   8.295
37259SOL    HW213552   6.620  10.649   8.412
37260SOL     OW13553  11.819   6.639   0.424
37260SOL    HW113554  11.750   6.693   0.462
37260SOL    HW213555  11.784   6.614   0.338
37261SOL     OW13556  12.153   5.304   0.483
37261SOL    HW113557  12.155   5.208   0.485
37261SOL    HW213558  12.231   5.331   0.531
37262SOL     OW13559   7.963   5.333   0.944
37262SOL    HW113560   7.986   5.243   0.967
37262SOL    HW213561   8.046   5.381   0.948
37263SOL     OW13562   1.332   9.857   7.065
37263SOL    HW113563   1.299   9.927   7.121
37263SOL    HW213564   1.391   9.807   7.122
37264SOL     OW13565  10.563  12.492  13.330
37264SOL    HW113566  10.484  12.445  13.302
37264SOL    HW213567  10.558  12.493  13.425
37265SOL     OW13568   8.979  11.938   5.189
37265SOL    HW113569   8.950  11.979   5.108
37265SOL    HW213570   8.922  11.975   5.257
37266SOL     OW13571   5.997  14.470   4.830
37266SOL    HW113572   6.082  14.458   4.787
37266SOL    HW213573   5.972  14.382   4.859
37267SOL     OW13574  14.574  14.071   1.283
37267SOL    HW113575  14.626  13.991   1.293
37267SOL    HW213576  14.586  14.096   1.192
37268SOL     OW13577  10.875  13.726   3.778
37268SOL    HW113578  10.876  13.790   3.707
37268SOL    HW213579  10.828  13.651   3.741
37269SOL     OW13580  14.128   1.366   4.941
37269SOL    HW113581  14.166   1.447   4.974
37269SOL    HW213582  14.079   1.331   5.015
37270SOL     OW13583   1.469  11.011   4.796
37270SOL    HW113584   1.378  11.012   4.823
37270SOL    HW213585   1.469  11.051   4.709
37271SOL     OW13586   4.520   3.490  11.705
37271SOL    HW113587   4.510   3.526  11.617
37271SOL    HW213588   4.544   3.399  11.691
37272SOL     OW13589   9.773  12.226   9.572
37272SOL    HW113590   9.708  12.295   9.581
37272SOL    HW213591   9.736  12.151   9.618
37273SOL     OW13592  14.168   9.287  13.142
37273SOL    HW113593  14.178   9.332  13.227
37273SOL    HW213594  14.083   9.317  13.109
37274SOL     OW13595  12.459   7.684  13.319
37274SOL    HW113596  12.389   7.726  13.269
37274SOL    HW213597  12.515   7.645  13.253
37275SOL     OW13598   0.135  12.371   9.007
37275SOL    HW113599   0.116  12.459   9.039
37275SOL    HW213600   0.054  12.322   9.020
37276SOL     OW13601   7.711   9.777   3.923
37276SOL    HW113602   7.786   9.720   3.942
37276SOL    HW213603   7.719   9.797   3.830
37277SOL     OW13604  11.901   5.716  12.067
37277SOL    HW113605  11.821   5.754  12.102
37277SOL    HW213606  11.943   5.787  12.019
37278SOL     OW13607  13.791   2.342   9.738
37278SOL    HW113608  13.796   2.378   9.827
37278SOL    HW213609  13.748   2.257   9.748
37279SOL     OW13610   3.740  11.921  12.909
37279SOL    HW113611   3.650  11.902  12.935
37279SOL    HW213612   3.769  11.841  12.864
37280SOL     OW13613  14.761   0.025   7.769
37280SOL    HW113614  14.804  14.877   7.851
37280SOL    HW213615  14.671   0.045   7.795
37281SOL     OW13616  13.844   8.905   8.326
37281SOL    HW113617  13.783   8.951   8.268
37281SOL    HW213618  13.799   8.824   8.348
37282SOL     OW13619   1.920   0.188  14.455
37282SOL    HW113620   2.004   0.183  14.500
37282SOL    HW213621   1.897   0.098  14.435
37283SOL     OW13622  11.817   4.817   7.242
37283SOL    HW113623  11.903   4.776   7.240
37283SOL    HW213624  11.789   4.818   7.150
37284SOL     OW13625   3.460   0.964  13.201
37284SOL    HW113626   3.457   1.053  13.166
37284SOL    HW213627   3.520   0.970  13.275
37285SOL     OW13628   9.115  11.011   6.164
37285SOL    HW113629   9.181  10.979   6.226
37285SOL    HW213630   9.164  11.030   6.085
37286SOL     OW13631  13.859   7.524   8.090
37286SOL    HW113632  13.804   7.481   8.025
37286SOL    HW213633  13.908   7.453   8.131
37287SOL     OW13634   3.495  11.939   2.588
37287SOL    HW113635   3.447  12.022   2.580
37287SOL    HW213636   3.585  11.965   2.606
37288SOL     OW13637   4.982  11.110   7.409
37288SOL    HW113638   5.012  11.021   7.427
37288SOL    HW213639   5.031  11.137   7.331
37289SOL     OW13640  10.863   6.837   9.362
37289SOL    HW113641  10.894   6.838   9.452
37289SOL    HW213642  10.913   6.905   9.318
37290SOL     OW13643  14.269   0.663  10.752
37290SOL    HW113644  14.191   0.711  10.725
37290SOL    HW213645  14.302   0.623  10.672
37291SOL     OW13646   6.806  14.051   7.794
37291SOL    HW113647   6.767  13.998   7.864
37291SOL    HW213648   6.822  14.136   7.834
37292SOL     OW13649   5.090   1.055   1.792
37292SOL    HW113650   5.123   1.144   1.781
37292SOL    HW213651   5.085   1.020   1.703
37293SOL     OW13652  10.497  12.420  14.791
37293SOL    HW113653  10.579  12.408  14.838
37293SOL    HW213654  10.456  12.496  14.833
37294SOL     OW13655  12.145   7.018   8.662
37294SOL    HW113656  12.095   7.037   8.742
37294SOL    HW213657  12.234   7.000   8.694
37295SOL     OW13658  14.722   1.352   6.140
37295SOL    HW113659  14.724   1.447   6.153
37295SOL    HW213660  14.629   1.329   6.143
37296SOL     OW13661  12.376   1.001   3.023
37296SOL    HW113662  12.357   1.038   3.109
37296SOL    HW213663  12.304   0.940   3.007
37297SOL     OW13664   8.877   9.769  10.517
37297SOL    HW113665   8.901   9.718  10.594
37297SOL    HW213666   8.785   9.746  10.501
37298SOL     OW13667  14.822   0.500   6.912
37298SOL    HW113668  14.738   0.506   6.956
37298SOL    HW213669   0.007   0.537   6.975
37299SOL     OW13670   6.722  13.182   2.594
37299SOL    HW113671   6.747  13.170   2.686
37299SOL    HW213672   6.688  13.096   2.567
37300SOL     OW13673  12.004   4.296   8.857
37300SOL    HW113674  12.002   4.380   8.811
37300SOL    HW213675  12.078   4.249   8.818
37301SOL     OW13676   3.236   0.056  11.568
37301SOL    HW113677   3.266   0.049  11.477
37301SOL    HW213678   3.315   0.045  11.621
37302SOL     OW13679   0.548  13.823   8.480
37302SOL    HW113680   0.513  13.767   8.549
37302SOL    HW213681   0.643  13.822   8.494
37303SOL     OW13682   3.968   9.041   2.162
37303SOL    HW113683   3.925   9.065   2.080
37303SOL    HW213684   3.897   9.038   2.226
37304SOL     OW13685   8.111  11.483   5.733
37304SOL    HW113686   8.143  11.394   5.717
37304SOL    HW213687   8.083  11.481   5.825
37305SOL     OW13688   5.794   7.036   1.577
37305SOL    HW113689   5.730   7.007   1.641
37305SOL    HW213690   5.786   7.131   1.576
37306SOL     OW13691  12.055  14.629  13.788
37306SOL    HW113692  12.087  14.539  13.776
37306SOL    HW213693  12.120  14.671  13.845
37307SOL     OW13694   8.913  14.138   1.865
37307SOL    HW113695   8.824  14.174   1.867
37307SOL    HW213696   8.902  14.045   1.884
37308SOL     OW13697   2.683  13.062   6.898
37308SOL    HW113698   2.735  13.022   6.967
37308SOL    HW213699   2.740  13.061   6.821
37309SOL     OW13700   7.536   9.157   2.370
37309SOL    HW113701   7.630   9.150   2.390
37309SOL    HW213702   7.529   9.234   2.314
37310SOL     OW13703   8.047   5.979  10.600
37310SOL    HW113704   8.023   5.898  10.645
37310SOL    HW213705   8.048   5.956  10.507
37311SOL     OW13706   2.207   8.120   8.165
37311SOL    HW113707   2.218   8.046   8.107
37311SOL    HW213708   2.283   8.117   8.224
37312SOL     OW13709   9.438   9.598  13.273
37312SOL    HW113710   9.359   9.652  13.272
37312SOL    HW213711   9.469   9.600  13.182
37313SOL     OW13712  14.191   0.934   0.484
37313SOL    HW113713  14.254   0.946   0.554
37313SOL    HW213714  14.204   0.843   0.455
37314SOL     OW13715   7.577  12.641   5.962
37314SOL    HW113716   7.585  12.697   5.885
37314SOL    HW213717   7.502  12.676   6.010
37315SOL     OW13718  12.845  11.259  13.136
37315SOL    HW113719  12.766  11.221  13.175
37315SOL    HW213720  12.856  11.213  13.054
37316SOL     OW13721   2.838  11.160   8.972
37316SOL    HW113722   2.768  11.096   8.963
37316SOL    HW213723   2.859  11.159   9.065
37317SOL     OW13724  14.786   7.903   9.171
37317SOL    HW113725  14.802   7.867   9.083
37317SOL    HW213726  14.798   7.998   9.160
37318SOL     OW13727   1.806   3.876   9.626
37318SOL    HW113728   1.742   3.925   9.575
37318SOL    HW213729   1.884   3.932   9.625
37319SOL     OW13730  12.412   9.294   8.341
37319SOL    HW113731  12.362   9.298   8.260
37319SOL    HW213732  12.370   9.357   8.399
37320SOL     OW13733  10.319   5.139   4.751
37320SOL    HW113734  10.407   5.110   4.724
37320SOL    HW213735  10.334   5.221   4.797
37321SOL     OW13736   7.410  12.052  12.072
37321SOL    HW113737   7.343  11.984  12.074
37321SOL    HW213738   7.458  12.037  11.991
37322SOL     OW13739   3.998   4.340  12.602
37322SOL    HW113740   4.059   4.275  12.568
37322SOL    HW213741   4.023   4.422  12.559
37323SOL     OW13742   5.429  14.514  11.694
37323SOL    HW113743   5.341  14.481  11.678
37323SOL    HW213744   5.487  14.442  11.667
37324SOL     OW13745   8.977  10.041  14.700
37324SOL    HW113746   8.949  10.011  14.614
37324SOL    HW213747   9.066  10.073  14.687
37325SOL     OW13748  14.180   0.768   1.543
37325SOL    HW113749  14.148   0.856   1.524
37325SOL    HW213750  14.107   0.710   1.520
37326SOL     OW13751  13.664   2.199   8.436
37326SOL    HW113752  13.742   2.227   8.388
37326SOL    HW213753  13.684   2.110   8.465
37327SOL     OW13754   3.378   6.265  13.906
37327SOL    HW113755   3.351   6.322  13.979
37327SOL    HW213756   3.441   6.318  13.857
37328SOL     OW13757  10.567   2.698  13.591
37328SOL    HW113758  10.565   2.602  13.581
37328SOL    HW213759  10.549   2.713  13.684
37329SOL     OW13760  12.998   6.943  14.343
37329SOL    HW113761  13.065   6.886  14.382
37329SOL    HW213762  13.024   7.032  14.369
37330SOL     OW13763  14.556   5.969  12.074
37330SOL    HW113764  14.569   6.058  12.041
37330SOL    HW213765  14.639   5.946  12.116
37331SOL     OW13766   1.303  10.329   1.694
37331SOL    HW113767   1.332  10.410   1.653
37331SOL    HW213768   1.340  10.332   1.782
37332SOL     OW13769   6.350   4.620  11.237
37332SOL    HW113770   6.278   4.681  11.219
37332SOL    HW213771   6.355   4.616  11.332
37333SOL     OW13772  14.116   0.901   5.846
37333SOL    HW113773  14.144   0.825   5.794
37333SOL    HW213774  14.180   0.906   5.917
37334SOL     OW13775  12.501   4.522   0.601
37334SOL    HW113776  12.413   4.558   0.602
37334SOL    HW213777  12.507   4.475   0.518
37335SOL     OW13778   2.013  11.484   9.347
37335SOL    HW113779   2.085  11.474   9.410
37335SOL    HW213780   1.941  11.521   9.399
37336SOL     OW13781  12.787   6.919   0.249
37336SOL    HW113782  12.777   6.955   0.338
37336SOL    HW213783  12.757   6.989   0.192
37337SOL     OW13784  13.197  14.635  10.060
37337SOL    HW113785  13.218  14.659  10.150
37337SOL    HW213786  13.246  14.554  10.044
37338SOL     OW13787  11.578   6.270   5.915
37338SOL    HW113788  11.597   6.285   6.007
37338SOL    HW213789  11.621   6.342   5.869
37339SOL     OW13790   6.768   5.824   3.110
37339SOL    HW113791   6.854   5.785   3.126
37339SOL    HW213792   6.759   5.822   3.015
37340SOL     OW13793   9.274   7.694  12.049
37340SOL    HW113794   9.323   7.775  12.036
37340SOL    HW213795   9.197   7.720  12.099
37341SOL     OW13796   0.367   5.122  10.534
37341SOL    HW113797   0.436   5.056  10.528
37341SOL    HW213798   0.308   5.101  10.461
37342SOL     OW13799   2.756   3.815   7.790
37342SOL    HW113800   2.779   3.829   7.882
37342SOL    HW213801   2.734   3.722   7.785
37343SOL     OW13802  11.506   1.095   8.988
37343SOL    HW113803  11.477   1.095   9.080
37343SOL    HW213804  11.430   1.062   8.940
37344SOL     OW13805  13.913   1.077   2.089
37344SOL    HW113806  14.005   1.066   2.112
37344SOL    HW213807  13.877   0.988   2.091
37345SOL     OW13808   7.140   8.995  10.874
37345SOL    HW113809   7.192   8.916  10.858
37345SOL    HW213810   7.204   9.066  10.872
37346SOL     OW13811  13.435   0.764   0.672
37346SOL    HW113812  13.465   0.833   0.731
37346SOL    HW213813  13.391   0.701   0.729
37347SOL     OW13814  12.054   8.546   9.671
37347SOL    HW113815  12.034   8.631   9.712
37347SOL    HW213816  12.114   8.504   9.733
37348SOL     OW13817  12.384  10.329   5.169
37348SOL    HW113818  12.357  10.237   5.174
37348SOL    HW213819  12.303  10.377   5.154
37349SOL     OW13820   0.713   1.290  11.330
37349SOL    HW113821   0.779   1.226  11.305
37349SOL    HW213822   0.668   1.311  11.248
37350SOL     OW13823   5.682   2.292  14.864
37350SOL    HW113824   5.662   2.267   0.076
37350SOL    HW213825   5.674   2.210  14.814
37351SOL     OW13826   9.199   6.786   4.260
37351SOL    HW113827   9.276   6.843   4.270
37351SOL    HW213828   9.234   6.704   4.226
37352SOL     OW13829  12.888   5.522   9.095
37352SOL    HW113830  12.812   5.497   9.043
37352SOL    HW213831  12.929   5.592   9.045
37353SOL     OW13832   6.707  12.552   0.858
37353SOL    HW113833   6.780  12.493   0.839
37353SOL    HW213834   6.724  12.629   0.804
37354SOL     OW13835  14.625  10.899  14.797
37354SOL    HW113836  14.683  10.967  14.761
37354SOL    HW213837  14.661  10.817  14.764
37355SOL     OW13838   1.433   5.222   7.799
37355SOL    HW113839   1.463   5.304   7.838
37355SOL    HW213840   1.342   5.213   7.828
37356SOL     OW13841   5.547   4.677  11.709
37356SOL    HW113842   5.585   4.589  11.702
37356SOL    HW213843   5.591   4.716  11.785
37357SOL     OW13844   3.642  11.769   0.732
37357SOL    HW113845   3.611  11.795   0.819
37357SOL    HW213846   3.680  11.849   0.696
37358SOL     OW13847  12.568   6.714   0.276
37358SOL    HW113848  12.577   6.703   0.370
37358SOL    HW213849  12.626   6.788   0.255
37359SOL     OW13850  10.101  10.772   9.829
37359SOL    HW113851  10.048  10.785   9.907
37359SOL    HW213852  10.175  10.832   9.839
37360SOL     OW13853   1.552   1.441  10.612
37360SOL    HW113854   1.642   1.425  10.586
37360SOL    HW213855   1.553   1.528  10.651
37361SOL     OW13856   3.661   8.592   4.165
37361SOL    HW113857   3.612   8.624   4.241
37361SOL    HW213858   3.710   8.668   4.134
37362SOL     OW13859  14.816  12.614  10.677
37362SOL    HW113860   0.010  12.676  10.691
37362SOL    HW213861  14.789  12.629  10.586
37363SOL     OW13862   0.616  14.595   4.409
37363SOL    HW113863   0.567  14.643   4.476
37363SOL    HW213864   0.630  14.659   4.340
37364SOL     OW13865   7.096  13.324  14.289
37364SOL    HW113866   7.022  13.373  14.253
37364SOL    HW213867   7.131  13.381  14.357
37365SOL     OW13868   6.358  11.706   5.574
37365SOL    HW113869   6.442  11.672   5.544
37365SOL    HW213870   6.313  11.733   5.495
37366SOL     OW13871   0.407   0.422   0.471
37366SOL    HW113872   0.347   0.407   0.544
37366SOL    HW213873   0.467   0.490   0.503
37367SOL     OW13874  13.117   4.395   6.183
37367SOL    HW113875  13.194   4.402   6.125
37367SOL    HW213876  13.054   4.457   6.147
37368SOL     OW13877   8.074  12.339   3.589
37368SOL    HW113878   8.056  12.410   3.527
37368SOL    HW213879   8.060  12.378   3.675
37369SOL     OW13880   7.647   3.827   4.982
37369SOL    HW113881   7.637   3.846   4.889
37369SOL    HW213882   7.566   3.783   5.006
37370SOL     OW13883  11.819  14.107   0.440
37370SOL    HW113884  11.760  14.061   0.381
37370SOL    HW213885  11.902  14.110   0.392
37371SOL     OW13886   2.726   7.572   3.442
37371SOL    HW113887   2.705   7.665   3.432
37371SOL    HW213888   2.788   7.554   3.371
37372SOL     OW13889   3.555  11.563  10.072
37372SOL    HW113890   3.508  11.495  10.024
37372SOL    HW213891   3.638  11.572  10.026
37373SOL     OW13892   0.420  14.431   0.944
37373SOL    HW113893   0.443  14.394   1.029
37373SOL    HW213894   0.453  14.368   0.880
37374SOL     OW13895   0.550   0.302  13.932
37374SOL    HW113896   0.588   0.254  13.858
37374SOL    HW213897   0.608   0.377  13.944
37375SOL     OW13898   3.558   6.484  10.587
37375SOL    HW113899   3.489   6.431  10.546
37375SOL    HW213900   3.622   6.420  10.617
37376SOL     OW13901   7.901   2.040   9.004
37376SOL    HW113902   7.979   2.017   8.953
37376SOL    HW213903   7.919   2.129   9.035
37377SOL     OW13904   5.435   3.691   1.905
37377SOL    HW113905   5.464   3.725   1.990
37377SOL    HW213906   5.407   3.601   1.923
37378SOL     OW13907   2.249   1.920  14.649
37378SOL    HW113908   2.248   2.010  14.618
37378SOL    HW213909   2.163   1.885  14.626
37379SOL     OW13910  10.464   7.573   5.909
37379SOL    HW113911  10.518   7.610   5.839
37379SOL    HW213912  10.526   7.552   5.979
37380SOL     OW13913  14.325   5.451   4.518
37380SOL    HW113914  14.356   5.492   4.599
37380SOL    HW213915  14.250   5.398   4.544
37381SOL     OW13916   5.748   2.671   7.768
37381SOL    HW113917   5.740   2.576   7.773
37381SOL    HW213918   5.680   2.697   7.705
37382SOL     OW13919   9.873   8.422   1.517
37382SOL    HW113920   9.859   8.348   1.576
37382SOL    HW213921   9.785   8.451   1.494
37383SOL     OW13922   0.997   4.928  14.424
37383SOL    HW113923   1.066   4.983  14.387
37383SOL    HW213924   1.043   4.869  14.484
37384SOL     OW13925  10.026   2.207   6.534
37384SOL    HW113926  10.049   2.201   6.442
37384SOL    HW213927   9.952   2.267   6.537
37385SOL     OW13928  11.665  13.920   7.691
37385SOL    HW113929  11.666  13.935   7.597
37385SOL    HW213930  11.573  13.921   7.715
37386SOL     OW13931   2.464  11.981   5.048
37386SOL    HW113932   2.508  12.059   5.083
37386SOL    HW213933   2.464  11.919   5.121
37387SOL     OW13934   1.418  13.750   7.333
37387SOL    HW113935   1.418  13.819   7.267
37387SOL    HW213936   1.480  13.780   7.399
37388SOL     OW13937   9.873   9.047  12.905
37388SOL    HW113938   9.926   9.056  12.826
37388SOL    HW213939   9.782   9.049  12.874
37389SOL     OW13940   0.010   6.217   0.531
37389SOL    HW113941   0.065   6.234   0.455
37389SOL    HW213942   0.051   6.142   0.574
37390SOL     OW13943  11.200   4.474   2.493
37390SOL    HW113944  11.284   4.458   2.534
37390SOL    HW213945  11.145   4.509   2.563
37391SOL     OW13946  13.092  11.788   2.507
37391SOL    HW113947  13.128  11.875   2.488
37391SOL    HW213948  13.168  11.736   2.535
37392SOL     OW13949  14.089   1.560   0.827
37392SOL    HW113950  14.054   1.604   0.904
37392SOL    HW213951  14.152   1.497   0.862
37393SOL     OW13952   7.292   3.435   9.764
37393SOL    HW113953   7.234   3.360   9.775
37393SOL    HW213954   7.241   3.497   9.712
37394SOL     OW13955   6.767  14.814   7.240
37394SOL    HW113956   6.678  14.814   7.205
37394SOL    HW213957   6.759  14.853   7.327
37395SOL     OW13958   0.663   4.647  10.096
37395SOL    HW113959   0.569   4.638  10.115
37395SOL    HW213960   0.668   4.717  10.032
37396SOL     OW13961   3.036  12.563  12.212
37396SOL    HW113962   3.090  12.516  12.275
37396SOL    HW213963   2.978  12.617  12.265
37397SOL     OW13964   5.004   1.882   3.776
37397SOL    HW113965   4.957   1.960   3.805
37397SOL    HW213966   5.074   1.870   3.842
37398SOL     OW13967   0.118   0.821   4.970
37398SOL    HW113968   0.210   0.828   4.994
37398SOL    HW213969   0.085   0.911   4.972
37399SOL     OW13970   3.893   3.836   2.265
37399SOL    HW113971   3.933   3.785   2.335
37399SOL    HW213972   3.954   3.907   2.249
37400SOL     OW13973   6.780   9.699  11.069
37400SOL    HW113974   6.801   9.631  11.133
37400SOL    HW213975   6.702   9.741  11.104
37401SOL     OW13976   7.776   1.177   9.007
37401SOL    HW113977   7.827   1.236   9.063
37401SOL    HW213978   7.770   1.223   8.923
37402SOL     OW13979  10.766   0.795   0.044
37402SOL    HW113980  10.698   0.787  14.854
37402SOL    HW213981  10.846   0.815  14.873
37403SOL     OW13982  14.259   1.200   2.914
37403SOL    HW113983  14.329   1.146   2.877
37403SOL    HW213984  14.180   1.170   2.869
37404SOL     OW13985  13.386   5.960  14.854
37404SOL    HW113986  13.371   6.050  14.826
37404SOL    HW213987  13.382   5.963   0.072
37405SOL     OW13988  10.276   3.463   3.138
37405SOL    HW113989  10.267   3.372   3.111
37405SOL    HW213990  10.352   3.495   3.090
37406SOL     OW13991  12.960   0.369   3.873
37406SOL    HW113992  12.956   0.423   3.793
37406SOL    HW213993  12.907   0.417   3.936
37407SOL     OW13994  13.483   3.042  14.813
37407SOL    HW113995  13.538   3.037   0.014
37407SOL    HW213996  13.403   3.086  14.842
37408SOL     OW13997   8.119   3.426   5.514
37408SOL    HW113998   8.066   3.505   5.523
37408SOL    HW213999   8.083   3.382   5.437
37409SOL     OW14000  14.586  10.391  11.926
37409SOL    HW114001  14.632  10.315  11.892
37409SOL    HW214002  14.656  10.452  11.950
37410SOL     OW14003   7.737   0.911  12.752
37410SOL    HW114004   7.648   0.891  12.779
37410SOL    HW214005   7.776   0.954  12.829
37411SOL     OW14006   0.161   6.303  11.150
37411SOL    HW114007   0.165   6.336  11.060
37411SOL    HW214008   0.070   6.316  11.177
37412SOL     OW14009  11.785   6.375  13.016
37412SOL    HW114010  11.696   6.383  12.981
37412SOL    HW214011  11.821   6.463  13.008
37413SOL     OW14012   2.151   8.299  14.432
37413SOL    HW114013   2.164   8.381  14.384
37413SOL    HW214014   2.072   8.313  14.483
37414SOL     OW14015  12.437  13.545  11.290
37414SOL    HW114016  12.449  13.554  11.384
37414SOL    HW214017  12.526  13.547  11.255
37415SOL     OW14018   3.249   5.224  13.009
37415SOL    HW114019   3.297   5.161  12.956
37415SOL    HW214020   3.233   5.179  13.092
37416SOL     OW14021   1.187   0.170   5.818
37416SOL    HW114022   1.268   0.195   5.773
37416SOL    HW214023   1.130   0.137   5.749
37417SOL     OW14024   5.510   2.381   8.520
37417SOL    HW114025   5.542   2.468   8.543
37417SOL    HW214026   5.467   2.350   8.599
37418SOL     OW14027   3.361  11.344  10.734
37418SOL    HW114028   3.271  11.354  10.703
37418SOL    HW214029   3.410  11.315  10.657
37419SOL     OW14030   6.881   0.389  14.197
37419SOL    HW114031   6.865   0.302  14.232
37419SOL    HW214032   6.951   0.424  14.252
37420SOL     OW14033   9.314   4.100   1.757
37420SOL    HW114034   9.277   4.118   1.671
37420SOL    HW214035   9.367   4.021   1.745
37421SOL     OW14036   0.543   8.566  12.863
37421SOL    HW114037   0.612   8.626  12.891
37421SOL    HW214038   0.473   8.624  12.831
37422SOL     OW14039   6.376   8.916   1.399
37422SOL    HW114040   6.334   8.997   1.371
37422SOL    HW214041   6.326   8.889   1.477
37423SOL     OW14042  12.842   3.389  12.580
37423SOL    HW114043  12.913   3.366  12.521
37423SOL    HW214044  12.831   3.312  12.636
37424SOL     OW14045   0.006  10.146   5.245
37424SOL    HW114046  14.855  10.148   5.336
37424SOL    HW214047   0.101  10.158   5.250
37425SOL     OW14048  10.303   0.323   7.057
37425SOL    HW114049  10.338   0.390   6.997
37425SOL    HW214050  10.223   0.292   7.014
37426SOL     OW14051   4.828   9.361   2.072
37426SOL    HW114052   4.751   9.390   2.121
37426SOL    HW214053   4.892   9.339   2.139
37427SOL     OW14054   7.974   0.047   1.375
37427SOL    HW114055   7.936   0.086   1.296
37427SOL    HW214056   7.926  14.842   1.386
37428SOL     OW14057  12.813   9.551   9.612
37428SOL    HW114058  12.836   9.459   9.622
37428SOL    HW214059  12.718   9.553   9.619
37429SOL     OW14060   7.296  11.489  10.950
37429SOL    HW114061   7.293  11.555  11.019
37429SOL    HW214062   7.237  11.420  10.980
37430SOL     OW14063   2.880  14.424  10.933
37430SOL    HW114064   2.971  14.449  10.946
37430SOL    HW214065   2.833  14.463  11.007
37431SOL     OW14066  10.218  11.708  13.751
37431SOL    HW114067  10.246  11.799  13.736
37431SOL    HW214068  10.278  11.676  13.818
37432SOL     OW14069   7.206   0.757  13.762
37432SOL    HW114070   7.289   0.803  13.752
37432SOL    HW214071   7.161   0.770  13.679
37433SOL     OW14072  10.656  10.015  11.549
37433SOL    HW114073  10.657   9.920  11.533
37433SOL    HW214074  10.734  10.048  11.504
37434SOL     OW14075   5.670   2.951   3.695
37434SOL    HW114076   5.590   2.990   3.659
37434SOL    HW214077   5.714   2.913   3.620
37435SOL     OW14078   7.617   4.835   6.529
37435SOL    HW114079   7.542   4.837   6.470
37435SOL    HW214080   7.682   4.783   6.483
37436SOL     OW14081   9.786  11.587  12.935
37436SOL    HW114082   9.752  11.563  13.021
37436SOL    HW214083   9.756  11.518  12.877
37437SOL     OW14084  11.007  10.649  14.408
37437SOL    HW114085  10.936  10.588  14.427
37437SOL    HW214086  11.024  10.694  14.490
37438SOL     OW14087   0.373   8.306  10.519
37438SOL    HW114088   0.320   8.234  10.552
37438SOL    HW214089   0.437   8.264  10.461
37439SOL     OW14090  14.090  10.024  14.746
37439SOL    HW114091  14.152  10.072  14.692
37439SOL    HW214092  14.119  10.040  14.836
37440SOL     OW14093   5.463   6.033  14.442
37440SOL    HW114094   5.446   6.062  14.531
37440SOL    HW214095   5.523   5.960  14.450
37441SOL     OW14096   7.927   5.670   1.773
37441SOL    HW114097   7.952   5.638   1.860
37441SOL    HW214098   8.005   5.656   1.719
37442SOL     OW14099   3.597   1.284   3.831
37442SOL    HW114100   3.671   1.312   3.886
37442SOL    HW214101   3.536   1.244   3.893
37443SOL     OW14102   1.180   7.279   0.770
37443SOL    HW114103   1.222   7.193   0.776
37443SOL    HW214104   1.242   7.338   0.814
37444SOL     OW14105  11.692  12.622  13.534
37444SOL    HW114106  11.606  12.661  13.549
37444SOL    HW214107  11.742  12.643  13.613
37445SOL     OW14108  10.413   3.150  13.251
37445SOL    HW114109  10.444   3.166  13.340
37445SOL    HW214110  10.446   3.063  13.229
37446SOL     OW14111   1.733  11.459   0.507
37446SOL    HW114112   1.796  11.491   0.571
37446SOL    HW214113   1.695  11.538   0.469
37447SOL     OW14114  12.010   1.970  14.327
37447SOL    HW114115  11.991   1.917  14.250
37447SOL    HW214116  11.960   1.929  14.397
37448SOL     OW14117   7.175   5.859  10.046
37448SOL    HW114118   7.263   5.891  10.067
37448SOL    HW214119   7.162   5.881   9.954
37449SOL     OW14120   2.715   4.224   3.220
37449SOL    HW114121   2.675   4.292   3.275
37449SOL    HW214122   2.667   4.228   3.138
37450SOL     OW14123  14.651  13.602  12.324
37450SOL    HW114124  14.595  13.542  12.273
37450SOL    HW214125  14.663  13.558  12.408
37451SOL     OW14126   1.303   4.089  12.354
37451SOL    HW114127   1.285   4.177  12.387
37451SOL    HW214128   1.333   4.103  12.264
37452SOL     OW14129   9.689  11.410   6.403
37452SOL    HW114130   9.755  11.412   6.472
37452SOL    HW214131   9.610  11.377   6.446
37453SOL     OW14132   6.249  10.066   8.055
37453SOL    HW114133   6.192  10.077   7.980
37453SOL    HW214134   6.195  10.021   8.120
37454SOL     OW14135  11.765   0.130   1.802
37454SOL    HW114136  11.695   0.170   1.853
37454SOL    HW214137  11.723   0.108   1.719
37455SOL     OW14138   6.887   3.854  13.652
37455SOL    HW114139   6.836   3.924  13.609
37455SOL    HW214140   6.878   3.872  13.745
37456SOL     OW14141   9.218   6.615   0.825
37456SOL    HW114142   9.273   6.615   0.747
37456SOL    HW214143   9.232   6.702   0.863
37457SOL     OW14144  10.198   8.143   7.003
37457SOL    HW114145  10.257   8.164   7.075
37457SOL    HW214146  10.232   8.060   6.969
37458SOL     OW14147   6.933   4.775  11.988
37458SOL    HW114148   6.953   4.685  11.962
37458SOL    HW214149   6.917   4.821  11.905
37459SOL     OW14150  13.059   0.152   9.085
37459SOL    HW114151  13.061   0.195   8.999
37459SOL    HW214152  13.112   0.073   9.073
37460SOL     OW14153  13.555  10.490   7.359
37460SOL    HW114154  13.599  10.416   7.316
37460SOL    HW214155  13.527  10.546   7.288
37461SOL     OW14156   0.563   9.563   8.864
37461SOL    HW114157   0.519   9.611   8.933
37461SOL    HW214158   0.516   9.479   8.860
37462SOL     OW14159   6.143   2.585   7.971
37462SOL    HW114160   6.055   2.615   7.991
37462SOL    HW214161   6.155   2.606   7.878
37463SOL     OW14162   5.195  12.065  10.663
37463SOL    HW114163   5.162  12.153  10.681
37463SOL    HW214164   5.204  12.025  10.750
37464SOL     OW14165   7.901  11.179   6.115
37464SOL    HW114166   7.854  11.137   6.043
37464SOL    HW214167   7.855  11.152   6.194
37465SOL     OW14168  10.083   6.270   9.081
37465SOL    HW114169  10.166   6.302   9.043
37465SOL    HW214170  10.039   6.227   9.008
37466SOL     OW14171  14.164  13.925   2.477
37466SOL    HW114172  14.146  13.925   2.383
37466SOL    HW214173  14.078  13.931   2.519
37467SOL     OW14174   3.724   9.961   6.900
37467SOL    HW114175   3.781   9.923   6.833
37467SOL    HW214176   3.781   9.977   6.975
37468SOL     OW14177   5.187   4.436   1.255
37468SOL    HW114178   5.238   4.481   1.189
37468SOL    HW214179   5.096   4.463   1.239
37469SOL     OW14180   0.703   3.156   1.587
37469SOL    HW114181   0.618   3.117   1.609
37469SOL    HW214182   0.752   3.084   1.548
37470SOL     OW14183   0.044  12.689   0.529
37470SOL    HW114184   0.069  12.654   0.615
37470SOL    HW214185  14.829  12.710   0.538
37471SOL     OW14186   7.641  12.012   5.489
37471SOL    HW114187   7.623  12.025   5.582
37471SOL    HW214188   7.653  11.918   5.479
37472SOL     OW14189   3.753  11.258   3.673
37472SOL    HW114190   3.691  11.246   3.602
37472SOL    HW214191   3.699  11.255   3.752
37473SOL     OW14192   7.723  13.225   0.032
37473SOL    HW114193   7.651  13.186   0.082
37473SOL    HW214194   7.709  13.194  14.820
37474SOL     OW14195   1.027   5.423   9.791
37474SOL    HW114196   1.065   5.490   9.736
37474SOL    HW214197   1.083   5.420   9.869
37475SOL     OW14198  11.090  13.708   9.655
37475SOL    HW114199  11.114  13.725   9.746
37475SOL    HW214200  11.095  13.613   9.646
37476SOL     OW14201  13.516  11.569   3.729
37476SOL    HW114202  13.423  11.550   3.716
37476SOL    HW214203  13.562  11.511   3.669
37477SOL     OW14204  12.709   8.514   2.036
37477SOL    HW114205  12.719   8.455   2.111
37477SOL    HW214206  12.788   8.568   2.038
37478SOL     OW14207  13.193   8.245  11.299
37478SOL    HW114208  13.117   8.206  11.255
37478SOL    HW214209  13.179   8.226  11.392
37479SOL     OW14210   7.592   1.802  14.639
37479SOL    HW114211   7.636   1.744  14.701
37479SOL    HW214212   7.641   1.884  14.643
37480SOL     OW14213  10.029   6.208   9.369
37480SOL    HW114214  10.110   6.257   9.380
37480SOL    HW214215   9.999   6.230   9.281
37481SOL     OW14216  13.690   0.581  12.976
37481SOL    HW114217  13.657   0.668  12.999
37481SOL    HW214218  13.785   0.590  12.976
37482SOL     OW14219   1.043   8.267   0.362
37482SOL    HW114220   0.989   8.210   0.417
37482SOL    HW214221   1.132   8.257   0.397
37483SOL     OW14222  13.813   6.784   9.303
37483SOL    HW114223  13.779   6.873   9.302
37483SOL    HW214224  13.902   6.791   9.267
37484SOL     OW14225  14.312   7.799  10.338
37484SOL    HW114226  14.271   7.756  10.262
37484SOL    HW214227  14.397   7.828  10.306
37485SOL     OW14228   0.031   1.562   3.160
37485SOL    HW114229   0.015   1.558   3.255
37485SOL    HW214230   0.095   1.633   3.150
37486SOL     OW14231   1.623   4.275   7.794
37486SOL    HW114232   1.560   4.232   7.737
37486SOL    HW214233   1.695   4.212   7.803
37487SOL     OW14234  12.096   1.162   4.869
37487SOL    HW114235  12.004   1.146   4.893
37487SOL    HW214236  12.105   1.124   4.782
37488SOL     OW14237   2.459   4.257  11.653
37488SOL    HW114238   2.485   4.171  11.621
37488SOL    HW214239   2.468   4.315  11.577
37489SOL     OW14240   7.138   9.868   8.359
37489SOL    HW114241   7.135   9.919   8.278
37489SOL    HW214242   7.071   9.907   8.415
37490SOL     OW14243   3.316   5.979  13.165
37490SOL    HW114244   3.347   6.069  13.150
37490SOL    HW214245   3.269   5.984  13.248
37491SOL     OW14246   3.153   5.782   8.181
37491SOL    HW114247   3.166   5.720   8.254
37491SOL    HW214248   3.240   5.788   8.140
37492SOL     OW14249   2.539   1.831   0.220
37492SOL    HW114250   2.516   1.752   0.172
37492SOL    HW214251   2.627   1.815   0.252
37493SOL     OW14252  12.712   7.508   9.256
37493SOL    HW114253  12.739   7.584   9.307
37493SOL    HW214254  12.624   7.488   9.288
37494SOL     OW14255   7.687   5.608  12.896
37494SOL    HW114256   7.648   5.558  12.968
37494SOL    HW214257   7.731   5.681  12.939
37495SOL     OW14258  13.908   5.268  12.765
37495SOL    HW114259  13.934   5.356  12.793
37495SOL    HW214260  13.988   5.231  12.728
37496SOL     OW14261   8.910   8.180   3.238
37496SOL    HW114262   8.850   8.126   3.289
37496SOL    HW214263   8.997   8.156   3.270
37497SOL     OW14264   4.960   3.828   2.083
37497SOL    HW114265   4.977   3.777   2.162
37497SOL    HW214266   5.040   3.821   2.032
37498SOL     OW14267   6.053  12.979  10.370
37498SOL    HW114268   5.995  12.903  10.359
37498SOL    HW214269   6.037  13.033  10.293
37499SOL     OW14270   9.846  14.215  13.874
37499SOL    HW114271   9.939  14.204  13.895
37499SOL    HW214272   9.845  14.258  13.789
37500SOL     OW14273   6.798   9.567   5.821
37500SOL    HW114274   6.703   9.573   5.818
37500SOL    HW214275   6.828   9.636   5.761
37501SOL     OW14276  11.613   1.507   7.231
37501SOL    HW114277  11.684   1.443   7.224
37501SOL    HW214278  11.640   1.579   7.174
37502SOL     OW14279  10.953   0.357   4.641
37502SOL    HW114280  10.893   0.353   4.716
37502SOL    HW214281  10.898   0.337   4.565
37503SOL     OW14282  13.412  14.727   2.036
37503SOL    HW114283  13.467  14.770   1.971
37503SOL    HW214284  13.458  14.739   2.119
37504SOL     OW14285  12.924   6.017  11.893
37504SOL    HW114286  13.013   6.023  11.930
37504SOL    HW214287  12.898   6.108  11.879
37505SOL     OW14288   4.051   1.272   8.743
37505SOL    HW114289   4.065   1.183   8.777
37505SOL    HW214290   4.087   1.329   8.811
37506SOL     OW14291  10.859  12.676   1.745
37506SOL    HW114292  10.893  12.756   1.786
37506SOL    HW214293  10.783  12.705   1.695
37507SOL     OW14294   5.411   0.113   7.971
37507SOL    HW114295   5.433   0.059   8.047
37507SOL    HW214296   5.489   0.165   7.954
37508SOL     OW14297   4.135   6.216  14.615
37508SOL    HW114298   4.208   6.211  14.677
37508SOL    HW214299   4.173   6.258  14.538
37509SOL     OW14300   5.515   5.293   8.292
37509SOL    HW114301   5.432   5.245   8.284
37509SOL    HW214302   5.581   5.225   8.299
37510SOL     OW14303   5.642   3.750   9.102
37510SOL    HW114304   5.642   3.656   9.120
37510SOL    HW214305   5.644   3.792   9.188
37511SOL     OW14306  13.902   9.391   3.848
37511SOL    HW114307  13.993   9.419   3.847
37511SOL    HW214308  13.897   9.325   3.779
37512SOL     OW14309   0.421   7.128   5.640
37512SOL    HW114310   0.459   7.049   5.600
37512SOL    HW214311   0.479   7.199   5.613
37513SOL     OW14312   0.899   3.311   6.972
37513SOL    HW114313   0.941   3.381   7.021
37513SOL    HW214314   0.814   3.300   7.014
37514SOL     OW14315   1.421  12.855   5.486
37514SOL    HW114316   1.359  12.807   5.542
37514SOL    HW214317   1.438  12.796   5.413
37515SOL     OW14318  11.797   8.692   2.845
37515SOL    HW114319  11.766   8.762   2.902
37515SOL    HW214320  11.723   8.632   2.837
37516SOL     OW14321   7.455  12.985   3.477
37516SOL    HW114322   7.400  12.996   3.555
37516SOL    HW214323   7.489  13.072   3.459
37517SOL     OW14324   0.271   6.326   7.768
37517SOL    HW114325   0.280   6.248   7.823
37517SOL    HW214326   0.288   6.399   7.827
37518SOL     OW14327  14.793   4.618  10.603
37518SOL    HW114328  14.722   4.599  10.664
37518SOL    HW214329  14.749   4.638  10.520
37519SOL     OW14330   5.219  12.827   6.025
37519SOL    HW114331   5.132  12.827   5.984
37519SOL    HW214332   5.267  12.897   5.980
37520SOL     OW14333  12.290   8.652   6.783
37520SOL    HW114334  12.375   8.694   6.770
37520SOL    HW214335  12.256   8.637   6.695
37521SOL     OW14336   8.798   5.296   7.930
37521SOL    HW114337   8.851   5.250   7.995
37521SOL    HW214338   8.795   5.387   7.962
37522SOL     OW14339  13.777   3.142   6.267
37522SOL    HW114340  13.835   3.217   6.254
37522SOL    HW214341  13.756   3.112   6.179
37523SOL     OW14342  11.961   9.827  11.084
37523SOL    HW114343  11.879   9.779  11.073
37523SOL    HW214344  11.976   9.869  10.999
37524SOL     OW14345  13.042   1.875   4.959
37524SOL    HW114346  13.087   1.880   5.043
37524SOL    HW214347  12.950   1.859   4.982
37525SOL     OW14348   6.873   8.473  11.590
37525SOL    HW114349   6.943   8.441  11.648
37525SOL    HW214350   6.905   8.558  11.559
37526SOL     OW14351   6.418   3.539  11.396
37526SOL    HW114352   6.491   3.530  11.457
37526SOL    HW214353   6.347   3.486  11.434
37527SOL     OW14354  10.884   0.960   7.285
37527SOL    HW114355  10.790   0.967   7.298
37527SOL    HW214356  10.894   0.945   7.191
37528SOL     OW14357   2.804  13.995  13.337
37528SOL    HW114358   2.710  13.981  13.326
37528SOL    HW214359   2.812  14.085  13.368
37529SOL     OW14360   1.086   2.980   2.982
37529SOL    HW114361   1.060   2.915   3.048
37529SOL    HW214362   1.175   2.954   2.956
37530SOL     OW14363   5.952   3.941  13.559
37530SOL    HW114364   6.005   3.899  13.626
37530SOL    HW214365   5.880   3.983  13.607
37531SOL     OW14366   9.181  13.645  13.781
37531SOL    HW114367   9.177  13.552  13.761
37531SOL    HW214368   9.144  13.653  13.869
37532SOL     OW14369   0.333   0.061  13.982
37532SOL    HW114370   0.424   0.043  14.006
37532SOL    HW214371   0.309   0.138  14.034
37533SOL     OW14372   1.538   2.924   0.317
37533SOL    HW114373   1.508   2.897   0.231
37533SOL    HW214374   1.462   2.966   0.357
37534SOL     OW14375   3.999   8.777  10.080
37534SOL    HW114376   4.035   8.847  10.134
37534SOL    HW214377   3.907   8.801  10.067
37535SOL     OW14378   7.250   5.526  12.422
37535SOL    HW114379   7.302   5.505  12.345
37535SOL    HW214380   7.242   5.621  12.422
37536SOL     OW14381   0.139  13.264   7.701
37536SOL    HW114382   0.129  13.308   7.617
37536SOL    HW214383   0.102  13.326   7.765
37537SOL     OW14384  13.018  11.066  13.489
37537SOL    HW114385  13.046  11.027  13.406
37537SOL    HW214386  13.020  11.160  13.473
37538SOL     OW14387   9.887   9.869   3.938
37538SOL    HW114388   9.965   9.813   3.934
37538SOL    HW214389   9.823   9.825   3.881
37539SOL     OW14390   7.554  13.553   7.566
37539SOL    HW114391   7.520  13.616   7.629
37539SOL    HW214392   7.555  13.599   7.483
37540SOL     OW14393   8.900   3.872  12.037
37540SOL    HW114394   8.990   3.876  12.070
37540SOL    HW214395   8.910   3.848  11.945
37541SOL     OW14396  10.008   3.143  14.723
37541SOL    HW114397   9.982   3.171  14.811
37541SOL    HW214398   9.929   3.103  14.687
37542SOL     OW14399  11.774   8.263   8.021
37542SOL    HW114400  11.851   8.311   7.994
37542SOL    HW214401  11.788   8.244   8.114
37543SOL     OW14402  12.857   0.115   3.571
37543SOL    HW114403  12.772   0.096   3.611
37543SOL    HW214404  12.917   0.119   3.646
37544SOL     OW14405   4.655   0.910   0.319
37544SOL    HW114406   4.602   0.989   0.304
37544SOL    HW214407   4.733   0.923   0.265
37545SOL     OW14408   2.767  12.766   1.513
37545SOL    HW114409   2.672  12.769   1.499
37545SOL    HW214410   2.804  12.780   1.426
37546SOL     OW14411   9.838   2.301   4.216
37546SOL    HW114412   9.846   2.284   4.310
37546SOL    HW214413   9.758   2.353   4.208
37547SOL     OW14414   9.143   6.493   3.210
37547SOL    HW114415   9.238   6.495   3.208
37547SOL    HW214416   9.116   6.542   3.131
37548SOL     OW14417   3.397   1.960   3.199
37548SOL    HW114418   3.372   2.027   3.136
37548SOL    HW214419   3.442   1.893   3.147
37549SOL     OW14420   3.282  11.899   0.813
37549SOL    HW114421   3.355  11.920   0.871
37549SOL    HW214422   3.266  11.806   0.826
37550SOL     OW14423   8.123  10.075   3.013
37550SOL    HW114424   8.075  10.051   2.934
37550SOL    HW214425   8.215  10.063   2.989
37551SOL     OW14426   9.445   4.451   3.721
37551SOL    HW114427   9.363   4.490   3.750
37551SOL    HW214428   9.493   4.523   3.680
37552SOL     OW14429  11.844  12.548   9.586
37552SOL    HW114430  11.866  12.620   9.526
37552SOL    HW214431  11.928  12.505   9.603
37553SOL     OW14432   2.106   3.602  12.389
37553SOL    HW114433   2.023   3.619  12.345
37553SOL    HW214434   2.085   3.542  12.461
37554SOL     OW14435   5.483   1.403  11.930
37554SOL    HW114436   5.418   1.472  11.946
37554SOL    HW214437   5.567   1.446  11.945
37555SOL     OW14438   1.250   9.058   2.281
37555SOL    HW114439   1.299   9.033   2.202
37555SOL    HW214440   1.201   9.136   2.255
37556SOL     OW14441   2.904   1.988   9.026
37556SOL    HW114442   2.981   1.954   8.981
37556SOL    HW214443   2.864   1.911   9.066
37557SOL     OW14444   2.821  12.254   6.042
37557SOL    HW114445   2.906  12.245   6.085
37557SOL    HW214446   2.831  12.206   5.959
37558SOL     OW14447   7.672  13.785  10.963
37558SOL    HW114448   7.739  13.834  10.916
37558SOL    HW214449   7.672  13.822  11.052
37559SOL     OW14450   3.352   7.440  13.406
37559SOL    HW114451   3.285   7.410  13.344
37559SOL    HW214452   3.332   7.532  13.421
37560SOL     OW14453   7.236   7.048  10.343
37560SOL    HW114454   7.244   6.988  10.417
37560SOL    HW214455   7.308   7.024  10.284
37561SOL     OW14456   6.352   7.886   9.186
37561SOL    HW114457   6.344   7.795   9.160
37561SOL    HW214458   6.293   7.934   9.127
37562SOL     OW14459   3.967   7.693  11.816
37562SOL    HW114460   4.045   7.682  11.871
37562SOL    HW214461   3.900   7.725  11.876
37563SOL     OW14462   3.055  10.554  10.822
37563SOL    HW114463   3.002  10.629  10.796
37563SOL    HW214464   3.142  10.590  10.838
37564SOL     OW14465   3.532  12.503   6.848
37564SOL    HW114466   3.548  12.473   6.938
37564SOL    HW214467   3.467  12.573   6.856
37565SOL     OW14468   0.864  13.976   0.719
37565SOL    HW114469   0.849  14.011   0.807
37565SOL    HW214470   0.848  14.050   0.661
37566SOL     OW14471  10.854  12.426   1.904
37566SOL    HW114472  10.850  12.508   1.856
37566SOL    HW214473  10.888  12.362   1.841
37567SOL     OW14474  11.781  12.159  14.730
37567SOL    HW114475  11.870  12.137  14.701
37567SOL    HW214476  11.760  12.093  14.796
37568SOL     OW14477   2.517  12.428  13.538
37568SOL    HW114478   2.515  12.344  13.583
37568SOL    HW214479   2.467  12.413  13.457
37569SOL     OW14480   4.640   3.368   5.394
37569SOL    HW114481   4.548   3.387   5.380
37569SOL    HW214482   4.665   3.315   5.318
37570SOL     OW14483   5.722   0.164   1.580
37570SOL    HW114484   5.753   0.078   1.552
37570SOL    HW214485   5.648   0.183   1.522
37571SOL     OW14486  13.525   1.780   9.225
37571SOL    HW114487  13.550   1.872   9.221
37571SOL    HW214488  13.605   1.733   9.199
37572SOL     OW14489   8.184  11.663   7.548
37572SOL    HW114490   8.229  11.643   7.630
37572SOL    HW214491   8.101  11.615   7.554
37573SOL     OW14492   6.036   2.675  10.169
37573SOL    HW114493   5.969   2.741  10.188
37573SOL    HW214494   6.092   2.716  10.103
37574SOL     OW14495  12.609   4.996   6.799
37574SOL    HW114496  12.628   5.008   6.892
37574SOL    HW214497  12.617   4.902   6.783
37575SOL     OW14498   0.316   4.562   4.626
37575SOL    HW114499   0.276   4.515   4.553
37575SOL    HW214500   0.374   4.625   4.585
37576SOL     OW14501  10.036  14.861   1.562
37576SOL    HW114502  10.036  14.832   1.654
37576SOL    HW214503  10.026  14.780   1.512
37577SOL     OW14504   2.708   8.301  14.583
37577SOL    HW114505   2.712   8.257  14.668
37577SOL    HW214506   2.723   8.232  14.519
37578SOL     OW14507  12.645  13.587  14.460
37578SOL    HW114508  12.610  13.505  14.493
37578SOL    HW214509  12.671  13.636  14.538
37579SOL     OW14510  14.200  11.019  13.320
37579SOL    HW114511  14.204  11.011  13.225
37579SOL    HW214512  14.269  10.961  13.352
37580SOL     OW14513   0.706   5.296   7.660
37580SOL    HW114514   0.625   5.332   7.625
37580SOL    HW214515   0.679   5.247   7.738
37581SOL     OW14516  14.592  13.807   1.618
37581SOL    HW114517  14.676  13.844   1.644
37581SOL    HW214518  14.546  13.880   1.576
37582SOL     OW14519   6.722  14.366   7.140
37582SOL    HW114520   6.776  14.437   7.104
37582SOL    HW214521   6.632  14.395   7.128
37583SOL     OW14522  12.182  12.100   7.106
37583SOL    HW114523  12.106  12.070   7.156
37583SOL    HW214524  12.160  12.079   7.015
37584SOL     OW14525   0.943   8.623   5.862
37584SOL    HW114526   1.027   8.583   5.882
37584SOL    HW214527   0.964   8.698   5.807
37585SOL     OW14528   9.182   7.374  14.166
37585SOL    HW114529   9.196   7.457  14.119
37585SOL    HW214530   9.261   7.363  14.218
37586SOL     OW14531   4.794   8.154   9.379
37586SOL    HW114532   4.804   8.226   9.441
37586SOL    HW214533   4.863   8.092   9.402
37587SOL     OW14534   4.721   0.455   0.858
37587SOL    HW114535   4.694   0.370   0.823
37587SOL    HW214536   4.668   0.519   0.810
37588SOL     OW14537  11.561   2.026  11.212
37588SOL    HW114538  11.585   2.002  11.123
37588SOL    HW214539  11.508   1.953  11.243
37589SOL     OW14540   0.741  13.336   0.546
37589SOL    HW114541   0.817  13.278   0.550
37589SOL    HW214542   0.723  13.348   0.453
37590SOL     OW14543   4.881  10.700  14.152
37590SOL    HW114544   4.906  10.711  14.060
37590SOL    HW214545   4.786  10.689  14.150
37591SOL     OW14546   6.528   7.427   9.535
37591SOL    HW114547   6.533   7.489   9.608
37591SOL    HW214548   6.577   7.469   9.464
37592SOL     OW14549  14.186   4.349   0.715
37592SOL    HW114550  14.160   4.258   0.708
37592SOL    HW214551  14.252   4.351   0.784
37593SOL     OW14552  12.513  13.859   3.218
37593SOL    HW114553  12.483  13.950   3.220
37593SOL    HW214554  12.462  13.815   3.285
37594SOL     OW14555   8.084  13.158   5.953
37594SOL    HW114556   8.059  13.231   5.897
37594SOL    HW214557   8.093  13.196   6.040
37595SOL     OW14558  13.968   7.018   3.814
37595SOL    HW114559  13.892   6.969   3.783
37595SOL    HW214560  14.043   6.966   3.786
37596SOL     OW14561   1.100   3.574  11.398
37596SOL    HW114562   1.143   3.547  11.317
37596SOL    HW214563   1.123   3.667  11.406
37597SOL     OW14564   6.179   8.355   1.069
37597SOL    HW114565   6.201   8.448   1.063
37597SOL    HW214566   6.178   8.324   0.979
37598SOL     OW14567   1.211   2.863   9.074
37598SOL    HW114568   1.244   2.778   9.102
37598SOL    HW214569   1.140   2.843   9.014
37599SOL     OW14570   7.111   3.426   5.280
37599SOL    HW114571   7.093   3.509   5.323
37599SOL    HW214572   7.143   3.450   5.193
37600SOL     OW14573   5.521   2.411   3.529
37600SOL    HW114574   5.499   2.325   3.567
37600SOL    HW214575   5.605   2.397   3.487
37601SOL     OW14576   6.082  12.825  13.201
37601SOL    HW114577   6.143  12.753  13.184
37601SOL    HW214578   6.093  12.844  13.295
37602SOL     OW14579  14.812   9.599   1.645
37602SOL    HW114580  14.865   9.568   1.718
37602SOL    HW214581  14.827   9.535   1.576
37603SOL     OW14582   0.948  13.471   4.239
37603SOL    HW114583   0.965  13.555   4.282
37603SOL    HW214584   0.880  13.491   4.174
37604SOL     OW14585   1.404  14.761   6.223
37604SOL    HW114586   1.473  14.780   6.287
37604SOL    HW214587   1.375  14.673   6.244
37605SOL     OW14588   0.538   3.656   8.769
37605SOL    HW114589   0.596   3.727   8.796
37605SOL    HW214590   0.594   3.578   8.771
37606SOL     OW14591   8.885   0.451   2.157
37606SOL    HW114592   8.905   0.535   2.116
37606SOL    HW214593   8.836   0.402   2.091
37607SOL     OW14594   6.465  11.291  13.059
37607SOL    HW114595   6.535  11.270  12.998
37607SOL    HW214596   6.392  11.319  13.004
37608SOL     OW14597   4.557  12.977   7.109
37608SOL    HW114598   4.635  12.922   7.100
37608SOL    HW214599   4.486  12.916   7.128
37609SOL     OW14600   1.530   3.268   0.271
37609SOL    HW114601   1.442   3.243   0.299
37609SOL    HW214602   1.578   3.282   0.352
37610SOL     OW14603  13.045   2.024  13.060
37610SOL    HW114604  13.129   2.051  13.024
37610SOL    HW214605  13.058   1.932  13.083
37611SOL     OW14606   0.875   0.158  12.449
37611SOL    HW114607   0.825   0.224  12.498
37611SOL    HW214608   0.809   0.094  12.422
37612SOL     OW14609   5.636   5.924  13.495
37612SOL    HW114610   5.644   5.991  13.427
37612SOL    HW214611   5.650   5.973  13.577
37613SOL     OW14612   7.745  14.340   4.669
37613SOL    HW114613   7.726  14.250   4.698
37613SOL    HW214614   7.799  14.376   4.739
37614SOL     OW14615   4.187   8.401   9.823
37614SOL    HW114616   4.109   8.408   9.878
37614SOL    HW214617   4.162   8.341   9.753
37615SOL     OW14618   2.508   5.564  12.195
37615SOL    HW114619   2.443   5.574  12.265
37615SOL    HW214620   2.499   5.644  12.143
37616SOL     OW14621   3.025  12.235   4.385
37616SOL    HW114622   3.080  12.184   4.326
37616SOL    HW214623   3.083  12.258   4.458
37617SOL     OW14624   3.637   4.222   9.431
37617SOL    HW114625   3.568   4.157   9.440
37617SOL    HW214626   3.716   4.178   9.463
37618SOL     OW14627   6.988  10.902   8.220
37618SOL    HW114628   6.943  10.843   8.280
37618SOL    HW214629   6.922  10.968   8.197
37619SOL     OW14630  12.007   4.229  10.763
37619SOL    HW114631  11.992   4.134  10.754
37619SOL    HW214632  11.936   4.269  10.713
37620SOL     OW14633   7.717   8.260  13.813
37620SOL    HW114634   7.764   8.273  13.896
37620SOL    HW214635   7.716   8.347  13.773
37621SOL     OW14636  14.758   8.469   0.485
37621SOL    HW114637  14.755   8.496   0.577
37621SOL    HW214638  14.685   8.409   0.475
37622SOL     OW14639   4.372  10.552  13.918
37622SOL    HW114640   4.416  10.635  13.936
37622SOL    HW214641   4.299  10.576  13.861
37623SOL     OW14642   3.754   8.456   9.372
37623SOL    HW114643   3.839   8.417   9.390
37623SOL    HW214644   3.691   8.400   9.416
37624SOL     OW14645   2.924   4.429   2.172
37624SOL    HW114646   2.988   4.404   2.239
37624SOL    HW214647   2.975   4.480   2.109
37625SOL     OW14648   0.918   9.634   0.186
37625SOL    HW114649   0.864   9.580   0.244
37625SOL    HW214650   0.871   9.633   0.103
37626SOL     OW14651   7.377   5.152   7.408
37626SOL    HW114652   7.333   5.236   7.420
37626SOL    HW214653   7.445   5.170   7.342
37627SOL     OW14654  10.079   0.777   9.489
37627SOL    HW114655  10.087   0.831   9.411
37627SOL    HW214656  10.162   0.730   9.495
37628SOL     OW14657   4.950  14.850   5.591
37628SOL    HW114658   4.860  14.818   5.590
37628SOL    HW214659   4.944   0.058   5.633
37629SOL     OW14660   1.857  10.688   8.558
37629SOL    HW114661   1.849  10.669   8.464
37629SOL    HW214662   1.941  10.651   8.583
37630SOL     OW14663   9.205  13.980  11.095
37630SOL    HW114664   9.208  14.028  11.177
37630SOL    HW214665   9.265  13.906  11.108
37631SOL     OW14666  12.062   2.160   4.388
37631SOL    HW114667  12.026   2.121   4.308
37631SOL    HW214668  12.152   2.182   4.365
37632SOL     OW14669   0.489  13.908   5.742
37632SOL    HW114670   0.557  13.974   5.752
37632SOL    HW214671   0.536  13.827   5.726
37633SOL     OW14672   8.644   5.717   6.127
37633SOL    HW114673   8.733   5.745   6.107
37633SOL    HW214674   8.603   5.793   6.169
37634SOL     OW14675   3.106  13.705   5.787
37634SOL    HW114676   3.066  13.655   5.716
37634SOL    HW214677   3.189  13.662   5.804
37635SOL     OW14678   0.989  11.589   7.731
37635SOL    HW114679   0.915  11.574   7.673
37635SOL    HW214680   1.014  11.502   7.762
37636SOL     OW14681  13.031   4.764   0.082
37636SOL    HW114682  12.992   4.832   0.028
37636SOL    HW214683  13.082   4.710   0.022
37637SOL     OW14684   1.896   5.030   0.590
37637SOL    HW114685   1.905   4.941   0.625
37637SOL    HW214686   1.840   5.020   0.513
37638SOL     OW14687   6.876   6.016   3.454
37638SOL    HW114688   6.931   5.959   3.402
37638SOL    HW214689   6.919   6.020   3.540
37639SOL     OW14690   9.672   4.766   6.828
37639SOL    HW114691   9.641   4.811   6.750
37639SOL    HW214692   9.764   4.744   6.809
37640SOL     OW14693  14.602   0.597   5.560
37640SOL    HW114694  14.585   0.556   5.645
37640SOL    HW214695  14.584   0.528   5.496
37641SOL     OW14696   6.145   6.359   8.378
37641SOL    HW114697   6.152   6.442   8.427
37641SOL    HW214698   6.056   6.329   8.397
37642SOL     OW14699   9.154  11.877   8.213
37642SOL    HW114700   9.237  11.858   8.170
37642SOL    HW214701   9.171  11.865   8.307
37643SOL     OW14702   4.711   3.172  12.482
37643SOL    HW114703   4.658   3.217  12.416
37643SOL    HW214704   4.800   3.176  12.448
37644SOL     OW14705  12.022  13.003  10.495
37644SOL    HW114706  11.986  12.915  10.485
37644SOL    HW214707  12.012  13.042  10.407
37645SOL     OW14708   4.994  10.345  10.431
37645SOL    HW114709   4.931  10.273  10.428
37645SOL    HW214710   5.010  10.359  10.524
37646SOL     OW14711   2.409   3.595   6.805
37646SOL    HW114712   2.391   3.523   6.866
37646SOL    HW214713   2.504   3.601   6.802
37647SOL     OW14714   8.714  13.758  11.513
37647SOL    HW114715   8.773  13.767  11.438
37647SOL    HW214716   8.748  13.682  11.561
37648SOL     OW14717   0.771   9.737  10.382
37648SOL    HW114718   0.751   9.806  10.445
37648SOL    HW214719   0.851   9.766  10.339
37649SOL     OW14720   7.951   8.365  12.394
37649SOL    HW114721   7.883   8.337  12.455
37649SOL    HW214722   7.989   8.283  12.363
37650SOL     OW14723  12.347   3.715  12.667
37650SOL    HW114724  12.423   3.736  12.612
37650SOL    HW214725  12.337   3.792  12.723
37651SOL     OW14726   0.193  13.561  10.306
37651SOL    HW114727   0.261  13.493  10.298
37651SOL    HW214728   0.131  13.541  10.237
37652SOL     OW14729   4.928   0.790   5.778
37652SOL    HW114730   4.955   0.702   5.805
37652SOL    HW214731   4.987   0.812   5.707
37653SOL     OW14732  11.083  10.496   8.625
37653SOL    HW114733  11.146  10.518   8.694
37653SOL    HW214734  11.006  10.464   8.671
37654SOL     OW14735   3.398   1.799   0.480
37654SOL    HW114736   3.346   1.877   0.459
37654SOL    HW214737   3.443   1.777   0.399
37655SOL     OW14738   6.824  11.756   6.902
37655SOL    HW114739   6.811  11.764   6.997
37655SOL    HW214740   6.797  11.667   6.881
37656SOL     OW14741   2.662   6.053   0.914
37656SOL    HW114742   2.597   5.992   0.880
37656SOL    HW214743   2.735   6.046   0.853
37657SOL     OW14744   4.778   7.589  10.897
37657SOL    HW114745   4.752   7.653  10.963
37657SOL    HW214746   4.702   7.531  10.888
37658SOL     OW14747  13.507   6.028  13.433
37658SOL    HW114748  13.454   5.972  13.490
37658SOL    HW214749  13.590   5.982  13.425
37659SOL     OW14750   9.427  13.063  10.499
37659SOL    HW114751   9.431  13.158  10.516
37659SOL    HW214752   9.509  13.044  10.454
37660SOL     OW14753   0.662  13.867  10.739
37660SOL    HW114754   0.683  13.912  10.656
37660SOL    HW214755   0.672  13.934  10.806
37661SOL     OW14756  12.160   1.034  13.162
37661SOL    HW114757  12.089   1.097  13.172
37661SOL    HW214758  12.157   1.008  13.070
37662SOL     OW14759  14.201  13.546  13.060
37662SOL    HW114760  14.245  13.629  13.078
37662SOL    HW214761  14.130  13.568  12.999
37663SOL     OW14762  12.558   9.277  10.762
37663SOL    HW114763  12.498   9.249  10.694
37663SOL    HW214764  12.611   9.346  10.721
37664SOL     OW14765  11.198   2.944  10.468
37664SOL    HW114766  11.168   2.867  10.420
37664SOL    HW214767  11.167   3.018  10.415
37665SOL     OW14768   5.385   9.753  14.851
37665SOL    HW114769   5.381   9.661   0.001
37665SOL    HW214770   5.447   9.754  14.779
37666SOL     OW14771  10.721  12.031   9.139
37666SOL    HW114772  10.778  12.068   9.207
37666SOL    HW214773  10.764  11.950   9.114
37667SOL     OW14774  12.368  12.854   8.187
37667SOL    HW114775  12.337  12.777   8.235
37667SOL    HW214776  12.350  12.834   8.096
37668SOL     OW14777   6.134   8.969   9.432
37668SOL    HW114778   6.227   8.986   9.422
37668SOL    HW214779   6.130   8.879   9.465
37669SOL     OW14780   9.189   9.712   8.512
37669SOL    HW114781   9.133   9.750   8.580
37669SOL    HW214782   9.206   9.623   8.542
37670SOL     OW14783  10.780   1.088   2.402
37670SOL    HW114784  10.857   1.104   2.347
37670SOL    HW214785  10.717   1.155   2.374
37671SOL     OW14786   2.280   7.749  11.196
37671SOL    HW114787   2.290   7.671  11.251
37671SOL    HW214788   2.266   7.820  11.258
37672SOL     OW14789   7.530  12.947  13.017
37672SOL    HW114790   7.580  12.995  12.951
37672SOL    HW214791   7.464  12.899  12.966
37673SOL     OW14792   3.385   4.010  11.543
37673SOL    HW114793   3.390   4.106  11.538
37673SOL    HW214794   3.337   3.993  11.624
37674SOL     OW14795   8.898   3.750  14.030
37674SOL    HW114796   8.907   3.739  14.124
37674SOL    HW214797   8.932   3.838  14.013
37675SOL     OW14798  10.428   1.655   9.422
37675SOL    HW114799  10.488   1.682   9.492
37675SOL    HW214800  10.370   1.591   9.463
37676SOL     OW14801   7.665   7.716  13.631
37676SOL    HW114802   7.661   7.783  13.562
37676SOL    HW214803   7.576   7.712  13.665
37677SOL     OW14804   6.591   6.858   8.776
37677SOL    HW114805   6.506   6.897   8.756
37677SOL    HW214806   6.645   6.933   8.802
37678SOL     OW14807  14.032   1.834  12.275
37678SOL    HW114808  14.104   1.844  12.212
37678SOL    HW214809  14.065   1.770  12.338
37679SOL     OW14810  14.837  10.422  13.511
37679SOL    HW114811  14.751  10.461  13.528
37679SOL    HW214812  14.827  10.377  13.428
37680SOL     OW14813   5.032   8.295   8.706
37680SOL    HW114814   5.116   8.260   8.735
37680SOL    HW214815   4.991   8.222   8.659
37681SOL     OW14816   3.090  14.216   7.417
37681SOL    HW114817   3.102  14.311   7.407
37681SOL    HW214818   3.085  14.183   7.328
37682SOL     OW14819  14.794   0.619  13.833
37682SOL    HW114820  14.863   0.606  13.897
37682SOL    HW214821  14.772   0.712  13.839
37683SOL     OW14822   2.028   2.758   5.645
37683SOL    HW114823   2.060   2.845   5.669
37683SOL    HW214824   2.108   2.707   5.630
37684SOL     OW14825   7.882  13.293   3.934
37684SOL    HW114826   7.879  13.212   3.883
37684SOL    HW214827   7.974  13.304   3.956
37685SOL     OW14828   8.072  10.714  11.304
37685SOL    HW114829   8.121  10.736  11.383
37685SOL    HW214830   8.097  10.781  11.240
37686SOL     OW14831  12.077  13.503   3.176
37686SOL    HW114832  12.152  13.553   3.143
37686SOL    HW214833  12.014  13.505   3.104
37687SOL     OW14834   9.089  12.216   8.905
37687SOL    HW114835   9.139  12.189   8.828
37687SOL    HW214836   9.046  12.297   8.878
37688SOL     OW14837   8.099  14.671  13.604
37688SOL    HW114838   8.153  14.744  13.574
37688SOL    HW214839   8.092  14.614  13.527
37689SOL     OW14840   5.993   3.790  12.277
37689SOL    HW114841   6.044   3.866  12.250
37689SOL    HW214842   5.947   3.763  12.198
37690SOL     OW14843   8.932   3.112   2.543
37690SOL    HW114844   8.890   3.142   2.462
37690SOL    HW214845   8.912   3.181   2.607
37691SOL     OW14846  11.603   7.453   6.164
37691SOL    HW114847  11.615   7.394   6.090
37691SOL    HW214848  11.548   7.523   6.130
37692SOL     OW14849   1.723  12.538   3.214
37692SOL    HW114850   1.677  12.511   3.294
37692SOL    HW214851   1.699  12.472   3.150
37693SOL     OW14852  13.932  10.168  13.247
37693SOL    HW114853  14.022  10.137  13.253
37693SOL    HW214854  13.922  10.229  13.320
37694SOL     OW14855  14.816  13.177   8.151
37694SOL    HW114856   0.028  13.188   8.120
37694SOL    HW214857  14.763  13.172   8.072
37695SOL     OW14858  10.022   2.940   0.673
37695SOL    HW114859  10.020   2.890   0.591
37695SOL    HW214860  10.115   2.958   0.687
37696SOL     OW14861   6.188   4.937   2.792
37696SOL    HW114862   6.124   4.995   2.752
37696SOL    HW214863   6.249   4.995   2.837
37697SOL     OW14864   8.606   0.365   0.964
37697SOL    HW114865   8.552   0.432   0.922
37697SOL    HW214866   8.642   0.314   0.892
37698SOL     OW14867   2.985   0.845  12.673
37698SOL    HW114868   3.002   0.824  12.764
37698SOL    HW214869   2.905   0.798  12.651
37699SOL     OW14870   5.777   8.334   6.480
37699SOL    HW114871   5.692   8.300   6.508
37699SOL    HW214872   5.813   8.265   6.423
37700SOL     OW14873   0.513  12.777   6.161
37700SOL    HW114874   0.535  12.711   6.095
37700SOL    HW214875   0.424  12.803   6.140
37701SOL     OW14876  12.550   2.402   9.129
37701SOL    HW114877  12.525   2.411   9.037
37701SOL    HW214878  12.625   2.342   9.129
37702SOL     OW14879  11.291   9.429   2.447
37702SOL    HW114880  11.253   9.379   2.375
37702SOL    HW214881  11.218   9.478   2.484
37703SOL     OW14882   1.464   4.792   5.785
37703SOL    HW114883   1.511   4.751   5.858
37703SOL    HW214884   1.438   4.719   5.729
37704SOL     OW14885  13.243  14.629   5.601
37704SOL    HW114886  13.205  14.548   5.635
37704SOL    HW214887  13.298  14.662   5.672
37705SOL     OW14888   7.751   2.022  11.085
37705SOL    HW114889   7.676   1.991  11.035
37705SOL    HW214890   7.801   2.076  11.024
37706SOL     OW14891   6.288   7.221  13.727
37706SOL    HW114892   6.338   7.186  13.652
37706SOL    HW214893   6.241   7.296  13.691
37707SOL     OW14894   8.630   9.216  14.010
37707SOL    HW114895   8.640   9.262  14.093
37707SOL    HW214896   8.658   9.127  14.028
37708SOL     OW14897   8.805   2.483  13.216
37708SOL    HW114898   8.810   2.577  13.233
37708SOL    HW214899   8.719   2.457  13.251
37709SOL     OW14900  11.315   4.278   3.904
37709SOL    HW114901  11.324   4.253   3.813
37709SOL    HW214902  11.364   4.212   3.953
37710SOL     OW14903  13.297   7.984   1.542
37710SOL    HW114904  13.239   8.052   1.576
37710SOL    HW214905  13.272   7.976   1.449
37711SOL     OW14906   2.085   8.745   1.103
37711SOL    HW114907   2.072   8.682   1.033
37711SOL    HW214908   2.157   8.710   1.155
37712SOL     OW14909   9.195   8.315   1.533
37712SOL    HW114910   9.113   8.278   1.566
37712SOL    HW214911   9.232   8.363   1.607
37713SOL     OW14912   5.898   3.118   9.323
37713SOL    HW114913   5.983   3.084   9.351
37713SOL    HW214914   5.903   3.120   9.228
37714SOL     OW14915  10.416   8.734   1.320
37714SOL    HW114916  10.337   8.788   1.320
37714SOL    HW214917  10.435   8.718   1.228
37715SOL     OW14918   7.296   5.489   0.229
37715SOL    HW114919   7.318   5.397   0.218
37715SOL    HW214920   7.224   5.504   0.167
37716SOL     OW14921   2.458   2.674   0.514
37716SOL    HW114922   2.457   2.768   0.530
37716SOL    HW214923   2.422   2.663   0.426
37717SOL     OW14924   1.271  11.835  11.001
37717SOL    HW114925   1.327  11.757  11.008
37717SOL    HW214926   1.187  11.802  10.970
37718SOL     OW14927   6.861   5.921   5.069
37718SOL    HW114928   6.775   5.939   5.033
37718SOL    HW214929   6.895   5.849   5.016
37719SOL     OW14930   4.756   4.658   5.671
37719SOL    HW114931   4.732   4.566   5.684
37719SOL    HW214932   4.752   4.697   5.758
37720SOL     OW14933   5.425  13.301  13.502
37720SOL    HW114934   5.349  13.350  13.471
37720SOL    HW214935   5.482  13.296  13.425
37721SOL     OW14936   7.276   8.599  10.361
37721SOL    HW114937   7.252   8.630  10.448
37721SOL    HW214938   7.269   8.677  10.306
37722SOL     OW14939  11.979   5.581   6.216
37722SOL    HW114940  11.910   5.618   6.272
37722SOL    HW214941  12.029   5.524   6.275
37723SOL     OW14942  13.682   7.154  12.827
37723SOL    HW114943  13.675   7.197  12.913
37723SOL    HW214944  13.759   7.194  12.787
37724SOL     OW14945   5.820  11.852   6.321
37724SOL    HW114946   5.777  11.938   6.324
37724SOL    HW214947   5.862  11.849   6.235
37725SOL     OW14948   7.747   9.135   6.076
37725SOL    HW114949   7.673   9.183   6.113
37725SOL    HW214950   7.715   9.101   5.992
37726SOL     OW14951  10.015   4.729   5.166
37726SOL    HW114952  10.098   4.775   5.179
37726SOL    HW214953   9.961   4.790   5.115
37727SOL     OW14954   7.936   4.171  10.274
37727SOL    HW114955   8.009   4.112  10.256
37727SOL    HW214956   7.954   4.249  10.221
37728SOL     OW14957   4.434   6.937   4.922
37728SOL    HW114958   4.395   6.985   4.995
37728SOL    HW214959   4.509   6.991   4.895
37729SOL     OW14960   1.092   7.388   7.227
37729SOL    HW114961   1.149   7.422   7.157
37729SOL    HW214962   1.017   7.447   7.228
37730SOL     OW14963  13.929   5.270  11.224
37730SOL    HW114964  13.933   5.257  11.318
37730SOL    HW214965  13.971   5.354  11.209
37731SOL     OW14966   7.320  10.648   3.975
37731SOL    HW114967   7.320  10.658   3.879
37731SOL    HW214968   7.247  10.588   3.993
37732SOL     OW14969  10.219  12.992  10.466
37732SOL    HW114970  10.303  13.033  10.446
37732SOL    HW214971  10.230  12.901  10.439
37733SOL     OW14972   9.460   0.427  11.898
37733SOL    HW114973   9.472   0.510  11.853
37733SOL    HW214974   9.463   0.449  11.991
37734SOL     OW14975  12.295   9.995   1.379
37734SOL    HW114976  12.219   9.939   1.398
37734SOL    HW214977  12.346   9.945   1.315
37735SOL     OW14978   4.975   8.939   5.236
37735SOL    HW114979   4.885   8.914   5.216
37735SOL    HW214980   4.968   9.027   5.272
37736SOL     OW14981   4.281  12.438   7.033
37736SOL    HW114982   4.244  12.522   7.005
37736SOL    HW214983   4.205  12.386   7.059
37737SOL     OW14984  10.448   8.739   4.126
37737SOL    HW114985  10.524   8.681   4.134
37737SOL    HW214986  10.373   8.681   4.118
37738SOL     OW14987  11.498   6.370   8.894
37738SOL    HW114988  11.511   6.463   8.914
37738SOL    HW214989  11.547   6.356   8.814
37739SOL     OW14990   7.659   8.098   0.489
37739SOL    HW114991   7.651   8.189   0.458
37739SOL    HW214992   7.660   8.046   0.408
37740SOL     OW14993  12.004   5.554   3.647
37740SOL    HW114994  11.972   5.497   3.577
37740SOL    HW214995  12.099   5.554   3.635
37741SOL     OW14996   5.056  12.916  12.769
37741SOL    HW114997   4.981  12.895  12.714
37741SOL    HW214998   5.130  12.869  12.729
37742SOL     OW14999   5.635   0.543  12.008
37742SOL    HW115000   5.716   0.551  11.958
37742SOL    HW215001   5.566   0.560  11.943
37743SOL     OW15002  13.228   4.363   0.261
37743SOL    HW115003  13.243   4.454   0.238
37743SOL    HW215004  13.133   4.358   0.277
37744SOL     OW15005   7.968   5.293  12.514
37744SOL    HW115006   7.986   5.227  12.581
37744SOL    HW215007   7.959   5.374  12.563
37745SOL     OW15008   1.745   0.990   6.541
37745SOL    HW115009   1.750   1.036   6.457
37745SOL    HW215010   1.776   1.054   6.605
37746SOL     OW15011  14.777   6.512   5.177
37746SOL    HW115012  14.759   6.542   5.266
37746SOL    HW215013  14.697   6.530   5.128
37747SOL     OW15014  11.431  12.811   1.214
37747SOL    HW115015  11.464  12.737   1.266
37747SOL    HW215016  11.471  12.888   1.254
37748SOL     OW15017  11.467   5.883  12.123
37748SOL    HW115018  11.477   5.811  12.062
37748SOL    HW215019  11.401   5.853  12.186
37749SOL     OW15020   2.183  11.920   5.613
37749SOL    HW115021   2.246  11.977   5.658
37749SOL    HW215022   2.206  11.831   5.643
37750SOL     OW15023   1.792   9.029  13.631
37750SOL    HW115024   1.781   9.124  13.635
37750SOL    HW215025   1.833   9.013  13.546
37751SOL     OW15026   6.922   7.161   5.877
37751SOL    HW115027   6.979   7.147   5.952
37751SOL    HW215028   6.860   7.089   5.879
37752SOL     OW15029   3.052  11.938   1.408
37752SOL    HW115030   3.045  12.032   1.426
37752SOL    HW215031   3.056  11.932   1.313
37753SOL     OW15032   6.400   3.301   7.552
37753SOL    HW115033   6.448   3.382   7.568
37753SOL    HW215034   6.464   3.243   7.509
37754SOL     OW15035   4.209   1.061  10.585
37754SOL    HW115036   4.238   1.121  10.517
37754SOL    HW215037   4.226   0.974  10.549
37755SOL     OW15038  13.151   2.913  11.028
37755SOL    HW115039  13.168   2.828  10.987
37755SOL    HW215040  13.155   2.976  10.956
37756SOL     OW15041   4.103   4.651   2.532
37756SOL    HW115042   4.083   4.588   2.462
37756SOL    HW215043   4.189   4.624   2.564
37757SOL     OW15044   1.591   9.698  14.136
37757SOL    HW115045   1.525   9.647  14.183
37757SOL    HW215046   1.563   9.694  14.045
37758SOL     OW15047   2.266  12.060   9.571
37758SOL    HW115048   2.261  12.019   9.658
37758SOL    HW215049   2.299  12.148   9.588
37759SOL     OW15050   2.909  11.394   7.268
37759SOL    HW115051   2.828  11.418   7.313
37759SOL    HW215052   2.921  11.302   7.288
37760SOL     OW15053   5.571   5.692  11.564
37760SOL    HW115054   5.548   5.782  11.589
37760SOL    HW215055   5.492   5.657  11.523
37761SOL     OW15056   3.753  14.094   8.275
37761SOL    HW115057   3.760  14.074   8.181
37761SOL    HW215058   3.842  14.090   8.307
37762SOL     OW15059   3.863   7.329  10.344
37762SOL    HW115060   3.834   7.246  10.305
37762SOL    HW215061   3.952   7.341  10.310
37763SOL     OW15062   5.262  10.368   4.434
37763SOL    HW115063   5.248  10.456   4.468
37763SOL    HW215064   5.207  10.312   4.489
37764SOL     OW15065   2.906  14.199   5.117
37764SOL    HW115066   2.853  14.159   5.186
37764SOL    HW215067   2.850  14.269   5.082
37765SOL     OW15068  14.711  14.245   6.923
37765SOL    HW115069  14.747  14.199   6.999
37765SOL    HW215070  14.617  14.230   6.928
37766SOL     OW15071  13.593   6.093  12.147
37766SOL    HW115072  13.603   6.188  12.149
37766SOL    HW215073  13.516   6.076  12.201
37767SOL     OW15074   0.461   0.220  13.451
37767SOL    HW115075   0.428   0.293  13.398
37767SOL    HW215076   0.468   0.147  13.390
37768SOL     OW15077   8.539  11.499   1.417
37768SOL    HW115078   8.585  11.568   1.370
37768SOL    HW215079   8.608  11.452   1.465
37769SOL     OW15080   5.798   5.884  13.082
37769SOL    HW115081   5.746   5.826  13.027
37769SOL    HW215082   5.861   5.923  13.022
37770SOL     OW15083   3.099   9.594  13.348
37770SOL    HW115084   3.085   9.562  13.259
37770SOL    HW215085   3.171   9.657  13.340
37771SOL     OW15086   9.509   2.113   4.165
37771SOL    HW115087   9.525   2.031   4.118
37771SOL    HW215088   9.554   2.102   4.249
37772SOL     OW15089   6.502   3.177   6.564
37772SOL    HW115090   6.529   3.259   6.524
37772SOL    HW215091   6.511   3.112   6.494
37773SOL     OW15092  10.518   1.542  10.558
37773SOL    HW115093  10.607   1.561  10.588
37773SOL    HW215094  10.529   1.471  10.495
37774SOL     OW15095   1.479   0.746  11.838
37774SOL    HW115096   1.472   0.692  11.916
37774SOL    HW215097   1.434   0.828  11.860
37775SOL     OW15098   3.329   4.011   2.614
37775SOL    HW115099   3.347   4.048   2.700
37775SOL    HW215100   3.248   3.960   2.626
37776SOL     OW15101   5.921   4.699  13.462
37776SOL    HW115102   5.869   4.778  13.477
37776SOL    HW215103   6.012   4.729  13.469
37777SOL     OW15104   4.247   4.716   3.411
37777SOL    HW115105   4.216   4.753   3.328
37777SOL    HW215106   4.335   4.685   3.391
37778SOL     OW15107  14.050   7.339  10.673
37778SOL    HW115108  14.080   7.422  10.638
37778SOL    HW215109  14.113   7.317  10.742
37779SOL     OW15110  13.723   1.134   4.669
37779SOL    HW115111  13.813   1.157   4.692
37779SOL    HW215112  13.702   1.188   4.593
37780SOL     OW15113   1.160   2.032   2.030
37780SOL    HW115114   1.216   2.047   2.106
37780SOL    HW215115   1.220   2.002   1.962
37781SOL     OW15116   9.008   9.626  11.938
37781SOL    HW115117   9.059   9.619  11.858
37781SOL    HW215118   9.017   9.718  11.964
37782SOL     OW15119   6.801  10.193   5.720
37782SOL    HW115120   6.858  10.266   5.744
37782SOL    HW215121   6.727  10.234   5.676
37783SOL     OW15122   1.345   6.385   8.943
37783SOL    HW115123   1.408   6.391   9.014
37783SOL    HW215124   1.263   6.419   8.980
37784SOL     OW15125  10.118  12.561   5.000
37784SOL    HW115126  10.204  12.602   5.011
37784SOL    HW215127  10.115  12.538   4.907
37785SOL     OW15128   8.362   2.569   2.825
37785SOL    HW115129   8.455   2.588   2.834
37785SOL    HW215130   8.320   2.618   2.896
37786SOL     OW15131   6.794   6.596   9.206
37786SOL    HW115132   6.802   6.521   9.265
37786SOL    HW215133   6.848   6.664   9.245
37787SOL     OW15134  12.080  11.996  10.137
37787SOL    HW115135  12.081  12.090  10.154
37787SOL    HW215136  12.057  11.988  10.045
37788SOL     OW15137   3.786   6.419  13.759
37788SOL    HW115138   3.867   6.458  13.725
37788SOL    HW215139   3.815   6.356  13.824
37789SOL     OW15140   0.960   2.306   3.085
37789SOL    HW115141   1.042   2.306   3.136
37789SOL    HW215142   0.893   2.283   3.149
37790SOL     OW15143  11.075   6.675  12.770
37790SOL    HW115144  11.032   6.589  12.763
37790SOL    HW215145  11.157   6.657  12.816
37791SOL     OW15146  10.948  14.184   4.946
37791SOL    HW115147  10.863  14.179   4.988
37791SOL    HW215148  10.953  14.273   4.911
37792SOL     OW15149  10.472  10.751  10.444
37792SOL    HW115150  10.469  10.743  10.540
37792SOL    HW215151  10.482  10.661  10.413
37793SOL     OW15152   0.126   6.476   3.634
37793SOL    HW115153   0.076   6.439   3.561
37793SOL    HW215154   0.216   6.478   3.603
37794SOL     OW15155   7.771   0.040   8.334
37794SOL    HW115156   7.765   0.117   8.277
37794SOL    HW215157   7.779   0.076   8.422
37795SOL     OW15158   7.571   9.479   4.352
37795SOL    HW115159   7.626   9.402   4.367
37795SOL    HW215160   7.625   9.553   4.382
37796SOL     OW15161   9.330   8.928   4.282
37796SOL    HW115162   9.251   8.875   4.267
37796SOL    HW215163   9.395   8.892   4.222
37797SOL     OW15164   9.423  14.728  14.435
37797SOL    HW115165   9.374  14.799  14.393
37797SOL    HW215166   9.515  14.747  14.417
37798SOL     OW15167   0.425   4.395  10.619
37798SOL    HW115168   0.372   4.366  10.693
37798SOL    HW215169   0.411   4.328  10.552
37799SOL     OW15170   2.798   2.207  10.259
37799SOL    HW115171   2.729   2.153  10.221
37799SOL    HW215172   2.756   2.292  10.275
37800SOL     OW15173   4.482  11.825  13.793
37800SOL    HW115174   4.531  11.801  13.872
37800SOL    HW215175   4.391  11.808  13.816
37801SOL     OW15176  13.094  14.646   4.955
37801SOL    HW115177  13.028  14.630   4.887
37801SOL    HW215178  13.051  14.705   5.017
37802SOL     OW15179  13.857  10.278   4.965
37802SOL    HW115180  13.949  10.262   4.983
37802SOL    HW215181  13.847  10.259   4.871
37803SOL     OW15182   1.269  10.597   1.315
37803SOL    HW115183   1.214  10.601   1.237
37803SOL    HW215184   1.357  10.613   1.283
37804SOL     OW15185   6.841   7.765   1.636
37804SOL    HW115186   6.841   7.687   1.691
37804SOL    HW215187   6.762   7.812   1.661
37805SOL     OW15188   5.155   9.754   3.306
37805SOL    HW115189   5.127   9.745   3.215
37805SOL    HW215190   5.197   9.671   3.326
37806SOL     OW15191   0.622   2.650   1.600
37806SOL    HW115192   0.631   2.632   1.694
37806SOL    HW215193   0.700   2.702   1.578
37807SOL     OW15194   8.491   4.319   9.930
37807SOL    HW115195   8.583   4.331   9.957
37807SOL    HW215196   8.482   4.375   9.853
37808SOL     OW15197   0.950  13.342   1.047
37808SOL    HW115198   0.959  13.369   0.956
37808SOL    HW215199   0.953  13.424   1.097
37809SOL     OW15200   8.061   2.069   1.954
37809SOL    HW115201   8.127   2.133   1.929
37809SOL    HW215202   8.109   1.987   1.965
37810SOL     OW15203   3.499   4.840   0.812
37810SOL    HW115204   3.507   4.849   0.717
37810SOL    HW215205   3.486   4.929   0.844
37811SOL     OW15206   2.495   0.587   4.818
37811SOL    HW115207   2.509   0.572   4.725
37811SOL    HW215208   2.471   0.501   4.853
37812SOL     OW15209  11.935  11.383  12.559
37812SOL    HW115210  11.921  11.330  12.481
37812SOL    HW215211  11.851  11.426  12.575
37813SOL     OW15212   2.067   9.390   5.333
37813SOL    HW115213   2.036   9.427   5.416
37813SOL    HW215214   2.147   9.342   5.357
37814SOL     OW15215   7.818   8.412  14.271
37814SOL    HW115216   7.740   8.357  14.277
37814SOL    HW215217   7.831   8.426  14.178
37815SOL     OW15218  12.457  14.790   5.516
37815SOL    HW115219  12.519  14.745   5.459
37815SOL    HW215220  12.512  14.834   5.581
37816SOL     OW15221  10.570   7.883   1.784
37816SOL    HW115222  10.590   7.801   1.828
37816SOL    HW215223  10.627   7.885   1.708
37817SOL     OW15224  10.709   7.193  13.043
37817SOL    HW115225  10.654   7.159  12.973
37817SOL    HW215226  10.666   7.274  13.070
37818SOL     OW15227   2.593  14.182   1.855
37818SOL    HW115228   2.512  14.191   1.904
37818SOL    HW215229   2.653  14.136   1.915
37819SOL     OW15230   3.854   5.775  14.255
37819SOL    HW115231   3.767   5.783  14.293
37819SOL    HW215232   3.841   5.790  14.161
37820SOL     OW15233   0.571   9.200   1.476
37820SOL    HW115234   0.560   9.170   1.386
37820SOL    HW215235   0.540   9.290   1.475
37821SOL     OW15236   4.026   1.072   8.937
37821SOL    HW115237   4.029   1.022   9.019
37821SOL    HW215238   3.935   1.101   8.929
37822SOL     OW15239   6.523  12.101   7.320
37822SOL    HW115240   6.544  12.046   7.245
37822SOL    HW215241   6.501  12.186   7.282
37823SOL     OW15242  11.857  12.555   6.766
37823SOL    HW115243  11.917  12.486   6.740
37823SOL    HW215244  11.784  12.549   6.704
37824SOL     OW15245   3.888  11.699   4.457
37824SOL    HW115246   3.810  11.751   4.473
37824SOL    HW215247   3.856  11.609   4.447
37825SOL     OW15248   1.615   0.085  13.299
37825SOL    HW115249   1.683   0.017  13.300
37825SOL    HW215250   1.588   0.091  13.208
37826SOL     OW15251   4.176  13.204   3.636
37826SOL    HW115252   4.173  13.272   3.703
37826SOL    HW215253   4.117  13.234   3.568
37827SOL     OW15254  10.658   4.574   8.733
37827SOL    HW115255  10.688   4.653   8.686
37827SOL    HW215256  10.730   4.512   8.722
37828SOL     OW15257   6.406   0.395   9.127
37828SOL    HW115258   6.441   0.358   9.046
37828SOL    HW215259   6.471   0.373   9.194
37829SOL     OW15260   7.595  14.260  10.298
37829SOL    HW115261   7.641  14.287  10.377
37829SOL    HW215262   7.505  14.244  10.328
37830SOL     OW15263  11.070   6.339   0.625
37830SOL    HW115264  11.097   6.250   0.602
37830SOL    HW215265  10.976   6.340   0.610
37831SOL     OW15266   6.985  13.533   1.703
37831SOL    HW115267   6.928  13.610   1.699
37831SOL    HW215268   7.017  13.532   1.793
37832SOL     OW15269  10.676   4.892  12.291
37832SOL    HW115270  10.743   4.961  12.292
37832SOL    HW215271  10.725   4.812  12.274
37833SOL     OW15272   6.561   8.214   4.590
37833SOL    HW115273   6.587   8.124   4.572
37833SOL    HW215274   6.528   8.247   4.506
37834SOL     OW15275   5.211   2.133   6.164
37834SOL    HW115276   5.188   2.098   6.078
37834SOL    HW215277   5.151   2.208   6.176
37835SOL     OW15278   2.077   2.922   7.610
37835SOL    HW115279   2.068   2.984   7.682
37835SOL    HW215280   2.020   2.956   7.541
37836SOL     OW15281   2.739  11.122   0.841
37836SOL    HW115282   2.780  11.143   0.926
37836SOL    HW215283   2.663  11.181   0.837
37837SOL     OW15284   7.842   4.600  12.939
37837SOL    HW115285   7.804   4.549  13.010
37837SOL    HW215286   7.903   4.541  12.896
37838SOL     OW15287   5.144   4.230   9.399
37838SOL    HW115288   5.170   4.139   9.384
37838SOL    HW215289   5.089   4.227   9.477
37839SOL     OW15290   1.188   6.143   2.240
37839SOL    HW115291   1.100   6.139   2.201
37839SOL    HW215292   1.222   6.054   2.230
37840SOL     OW15293   9.478  13.231   1.369
37840SOL    HW115294   9.540  13.304   1.367
37840SOL    HW215295   9.422  13.244   1.292
37841SOL     OW15296   6.895   6.851   9.923
37841SOL    HW115297   6.919   6.941   9.901
37841SOL    HW215298   6.870   6.811   9.840
37842SOL     OW15299  12.714  10.433   3.141
37842SOL    HW115300  12.684  10.344   3.159
37842SOL    HW215301  12.635  10.481   3.116
37843SOL     OW15302  13.411   7.889   4.900
37843SOL    HW115303  13.454   7.911   4.818
37843SOL    HW215304  13.429   7.796   4.913
37844SOL     OW15305   5.229  14.653   1.612
37844SOL    HW115306   5.234  14.669   1.518
37844SOL    HW215307   5.136  14.636   1.629
37845SOL     OW15308   3.640   2.595  10.107
37845SOL    HW115309   3.606   2.573  10.020
37845SOL    HW215310   3.562   2.600  10.163
37846SOL     OW15311   9.383  11.911   9.417
37846SOL    HW115312   9.403  11.929   9.508
37846SOL    HW215313   9.318  11.841   9.419
37847SOL     OW15314   8.082   1.621   2.183
37847SOL    HW115315   8.138   1.636   2.259
37847SOL    HW215316   8.101   1.530   2.157
37848SOL     OW15317   1.762   1.088   3.699
37848SOL    HW115318   1.855   1.067   3.699
37848SOL    HW215319   1.736   1.082   3.791
37849SOL     OW15320   6.283   2.176  10.928
37849SOL    HW115321   6.279   2.272  10.928
37849SOL    HW215322   6.349   2.155  10.862
37850SOL     OW15323   6.343   7.129  13.337
37850SOL    HW115324   6.406   7.116  13.266
37850SOL    HW215325   6.387   7.095  13.415
37851SOL     OW15326   3.900  13.812   1.076
37851SOL    HW115327   3.815  13.857   1.070
37851SOL    HW215328   3.949  13.845   1.001
37852SOL     OW15329   3.109  12.882   3.788
37852SOL    HW115330   3.202  12.864   3.805
37852SOL    HW215331   3.095  12.969   3.826
37853SOL     OW15332   2.305   0.607   2.474
37853SOL    HW115333   2.337   0.686   2.516
37853SOL    HW215334   2.363   0.596   2.398
37854SOL     OW15335   3.917   6.321  11.936
37854SOL    HW115336   3.961   6.406  11.942
37854SOL    HW215337   3.942   6.276  12.017
37855SOL     OW15338   8.231   0.724  11.334
37855SOL    HW115339   8.145   0.758  11.357
37855SOL    HW215340   8.244   0.751  11.243
37856SOL     OW15341   9.370  11.403   9.548
37856SOL    HW115342   9.287  11.448   9.533
37856SOL    HW215343   9.354  11.347   9.624
37857SOL     OW15344   6.300  11.986  13.752
37857SOL    HW115345   6.224  11.938  13.784
37857SOL    HW215346   6.273  12.078  13.753
37858SOL     OW15347  14.647   9.399  12.483
37858SOL    HW115348  14.614   9.463  12.546
37858SOL    HW215349  14.707   9.344  12.534
37859SOL     OW15350   4.255   9.547  14.540
37859SOL    HW115351   4.287   9.541  14.630
37859SOL    HW215352   4.333   9.558  14.487
37860SOL     OW15353   2.148   2.268  10.066
37860SOL    HW115354   2.241   2.291  10.076
37860SOL    HW215355   2.125   2.226  10.148
37861SOL     OW15356   1.846   8.198   4.083
37861SOL    HW115357   1.899   8.128   4.122
37861SOL    HW215358   1.907   8.271   4.072
37862SOL     OW15359  10.842  13.428   8.149
37862SOL    HW115360  10.854  13.456   8.059
37862SOL    HW215361  10.787  13.349   8.143
37863SOL     OW15362  11.481  11.268   2.441
37863SOL    HW115363  11.520  11.193   2.486
37863SOL    HW215364  11.411  11.230   2.389
37864SOL     OW15365   1.724   9.975   7.174
37864SOL    HW115366   1.776  10.036   7.121
37864SOL    HW215367   1.742  10.002   7.264
37865SOL     OW15368  11.479   1.743  12.322
37865SOL    HW115369  11.395   1.701  12.306
37865SOL    HW215370  11.528   1.679  12.374
37866SOL     OW15371  12.609   1.195  12.868
37866SOL    HW115372  12.583   1.116  12.819
37866SOL    HW215373  12.627   1.260  12.800
37867SOL     OW15374   3.965  14.631   9.481
37867SOL    HW115375   3.959  14.535   9.474
37867SOL    HW215376   3.988  14.646   9.573
37868SOL     OW15377   1.971  10.144   3.060
37868SOL    HW115378   1.950  10.216   3.120
37868SOL    HW215379   1.944  10.065   3.107
37869SOL     OW15380  12.774  12.285   1.446
37869SOL    HW115381  12.785  12.281   1.541
37869SOL    HW215382  12.836  12.221   1.412
37870SOL     OW15383   0.873   1.290  13.032
37870SOL    HW115384   0.914   1.215  13.075
37870SOL    HW215385   0.873   1.358  13.100
37871SOL     OW15386   6.341   5.205  11.557
37871SOL    HW115387   6.315   5.292  11.526
37871SOL    HW215388   6.435   5.212  11.571
37872SOL     OW15389   0.354  13.443  13.496
37872SOL    HW115390   0.433  13.474  13.451
37872SOL    HW215391   0.361  13.479  13.584
37873SOL     OW15392   8.507   4.105   2.627
37873SOL    HW115393   8.588   4.154   2.643
37873SOL    HW215394   8.505   4.093   2.532
37874SOL     OW15395  13.128  12.934  10.357
37874SOL    HW115396  13.091  13.014  10.321
37874SOL    HW215397  13.103  12.865  10.295
37875SOL     OW15398   5.670  13.164   7.829
37875SOL    HW115399   5.733  13.125   7.890
37875SOL    HW215400   5.590  13.113   7.841
37876SOL     OW15401   8.404   3.599   0.330
37876SOL    HW115402   8.320   3.618   0.287
37876SOL    HW215403   8.383   3.596   0.424
37877SOL     OW15404   2.845  14.041   0.860
37877SOL    HW115405   2.814  14.130   0.875
37877SOL    HW215406   2.765  13.991   0.841
37878SOL     OW15407   8.428  13.062  14.486
37878SOL    HW115408   8.416  13.103  14.401
37878SOL    HW215409   8.339  13.048  14.518
37879SOL     OW15410   4.958   0.764   7.780
37879SOL    HW115411   4.870   0.783   7.749
37879SOL    HW215412   4.981   0.839   7.834
37880SOL     OW15413   0.756   5.783  11.347
37880SOL    HW115414   0.668   5.812  11.372
37880SOL    HW215415   0.782   5.723  11.417
37881SOL     OW15416   2.020   6.861   4.771
37881SOL    HW115417   2.094   6.886   4.827
37881SOL    HW215418   2.059   6.845   4.685
37882SOL     OW15419   0.310   2.665   9.032
37882SOL    HW115420   0.264   2.742   9.064
37882SOL    HW215421   0.323   2.682   8.939
37883SOL     OW15422   5.914   0.043   2.320
37883SOL    HW115423   5.874   0.129   2.310
37883SOL    HW215424   5.842  14.863   2.346
37884SOL     OW15425   1.544   6.314  10.087
37884SOL    HW115426   1.449   6.316  10.086
37884SOL    HW215427   1.571   6.403  10.111
37885SOL     OW15428   3.780   0.158  10.739
37885SOL    HW115429   3.846   0.093  10.714
37885SOL    HW215430   3.822   0.210  10.807
37886SOL     OW15431   2.155   7.481   1.868
37886SOL    HW115432   2.221   7.440   1.925
37886SOL    HW215433   2.196   7.480   1.781
37887SOL     OW15434   1.899   0.663   1.568
37887SOL    HW115435   1.822   0.673   1.625
37887SOL    HW215436   1.877   0.591   1.510
37888SOL     OW15437   3.535   0.515  14.541
37888SOL    HW115438   3.536   0.475  14.454
37888SOL    HW215439   3.626   0.543  14.554
37889SOL     OW15440   7.750  12.940   8.671
37889SOL    HW115441   7.833  12.987   8.665
37889SOL    HW215442   7.685  13.004   8.643
37890SOL     OW15443  13.920   7.677   4.351
37890SOL    HW115444  13.933   7.587   4.383
37890SOL    HW215445  13.880   7.666   4.265
37891SOL     OW15446   5.176   8.135  12.338
37891SOL    HW115447   5.218   8.066  12.389
37891SOL    HW215448   5.209   8.217  12.377
37892SOL     OW15449  12.835  14.463   6.074
37892SOL    HW115450  12.851  14.400   6.145
37892SOL    HW215451  12.744  14.447   6.049
37893SOL     OW15452  13.602   9.197   5.655
37893SOL    HW115453  13.631   9.130   5.717
37893SOL    HW215454  13.567   9.146   5.581
37894SOL     OW15455  12.747   1.133  11.151
37894SOL    HW115456  12.680   1.064  11.152
37894SOL    HW215457  12.827   1.089  11.181
37895SOL     OW15458  11.625   4.664  10.889
37895SOL    HW115459  11.648   4.750  10.853
37895SOL    HW215460  11.691   4.648  10.957
37896SOL     OW15461   8.615   2.415   4.169
37896SOL    HW115462   8.688   2.422   4.108
37896SOL    HW215463   8.656   2.389   4.252
37897SOL     OW15464  13.977   1.128   1.814
37897SOL    HW115465  14.015   1.104   1.899
37897SOL    HW215466  13.910   1.193   1.835
37898SOL     OW15467  10.628  11.065   7.676
37898SOL    HW115468  10.557  11.003   7.691
37898SOL    HW215469  10.597  11.123   7.607
37899SOL     OW15470  13.612   2.439   8.271
37899SOL    HW115471  13.582   2.384   8.343
37899SOL    HW215472  13.587   2.528   8.297
37900SOL     OW15473   3.648  14.364  12.924
37900SOL    HW115474   3.628  14.276  12.891
37900SOL    HW215475   3.568  14.390  12.971
37901SOL     OW15476  13.234   9.754   7.527
37901SOL    HW115477  13.296   9.725   7.461
37901SOL    HW215478  13.149   9.723   7.496
37902SOL     OW15479   9.066   9.662   7.447
37902SOL    HW115480   9.018   9.725   7.394
37902SOL    HW215481   9.002   9.631   7.511
37903SOL     OW15482   1.458   8.994   1.112
37903SOL    HW115483   1.452   8.947   1.028
37903SOL    HW215484   1.533   9.052   1.102
37904SOL     OW15485   4.880  12.375   6.629
37904SOL    HW115486   4.792  12.370   6.666
37904SOL    HW215487   4.899  12.286   6.599
37905SOL     OW15488   1.876   8.319   9.065
37905SOL    HW115489   1.811   8.339   9.132
37905SOL    HW215490   1.861   8.384   8.997
37906SOL     OW15491  13.510   1.623   4.178
37906SOL    HW115492  13.469   1.567   4.243
37906SOL    HW215493  13.537   1.563   4.108
37907SOL     OW15494  14.271   4.965   1.023
37907SOL    HW115495  14.247   4.981   1.115
37907SOL    HW215496  14.340   5.029   1.005
37908SOL     OW15497   6.266  14.827  13.327
37908SOL    HW115498   6.342  14.769  13.338
37908SOL    HW215499   6.285  14.877  13.248
37909SOL     OW15500   2.789  13.443   8.301
37909SOL    HW115501   2.827  13.513   8.353
37909SOL    HW215502   2.820  13.362   8.342
37910SOL     OW15503   3.032   2.717  10.439
37910SOL    HW115504   3.088   2.767  10.498
37910SOL    HW215505   3.079   2.635  10.424
37911SOL     OW15506   7.964   2.180  13.855
37911SOL    HW115507   8.058   2.194  13.847
37911SOL    HW215508   7.926   2.239  13.789
37912SOL     OW15509   6.744   1.443  13.832
37912SOL    HW115510   6.705   1.465  13.916
37912SOL    HW215511   6.732   1.522  13.779
37913SOL     OW15512   2.586   4.853   7.449
37913SOL    HW115513   2.678   4.826   7.453
37913SOL    HW215514   2.562   4.840   7.357
37914SOL     OW15515   1.098   1.956   8.275
37914SOL    HW115516   1.130   1.917   8.194
37914SOL    HW215517   1.177   1.993   8.316
37915SOL     OW15518   4.152   8.349  13.670
37915SOL    HW115519   4.129   8.365  13.578
37915SOL    HW215520   4.170   8.255  13.674
37916SOL     OW15521  10.607   2.547  11.961
37916SOL    HW115522  10.588   2.639  11.944
37916SOL    HW215523  10.655   2.518  11.884
37917SOL     OW15524  14.185   7.974  11.386
37917SOL    HW115525  14.193   7.982  11.481
37917SOL    HW215526  14.182   7.880  11.370
37918SOL     OW15527   0.940  13.516  11.938
37918SOL    HW115528   0.960  13.457  11.865
37918SOL    HW215529   0.997  13.486  12.009
37919SOL     OW15530  12.745   3.349   6.972
37919SOL    HW115531  12.839   3.369   6.977
37919SOL    HW215532  12.724   3.311   7.057
37920SOL     OW15533  11.249   4.612  11.833
37920SOL    HW115534  11.285   4.654  11.755
37920SOL    HW215535  11.164   4.654  11.846
37921SOL     OW15536  14.676   8.181  11.166
37921SOL    HW115537  14.768   8.203  11.174
37921SOL    HW215538  14.645   8.237  11.094
37922SOL     OW15539  13.206  13.573  12.338
37922SOL    HW115540  13.300  13.564  12.352
37922SOL    HW215541  13.183  13.500  12.281
37923SOL     OW15542   3.110   6.649   1.644
37923SOL    HW115543   3.112   6.611   1.731
37923SOL    HW215544   3.159   6.587   1.589
37924SOL     OW15545   9.151  13.098   8.352
37924SOL    HW115546   9.095  13.036   8.305
37924SOL    HW215547   9.140  13.076   8.444
37925SOL     OW15548   4.949   6.241   9.041
37925SOL    HW115549   5.016   6.174   9.054
37925SOL    HW215550   4.948   6.291   9.123
37926SOL     OW15551   9.273   1.991  13.615
37926SOL    HW115552   9.195   1.945  13.646
37926SOL    HW215553   9.256   2.083  13.634
37927SOL     OW15554  13.123  13.163  13.664
37927SOL    HW115555  13.134  13.077  13.622
37927SOL    HW215556  13.050  13.203  13.618
37928SOL     OW15557   3.846  10.107  14.727
37928SOL    HW115558   3.773  10.078  14.782
37928SOL    HW215559   3.836  10.202  14.721
37929SOL     OW15560  13.862   2.946  14.013
37929SOL    HW115561  13.914   3.026  14.004
37929SOL    HW215562  13.914   2.878  13.970
37930SOL     OW15563  11.801   5.701  12.674
37930SOL    HW115564  11.764   5.741  12.752
37930SOL    HW215565  11.841   5.773  12.626
37931SOL     OW15566   7.322  14.227  13.686
37931SOL    HW115567   7.307  14.182  13.769
37931SOL    HW215568   7.238  14.224  13.641
37932SOL     OW15569   5.799   6.291   4.075
37932SOL    HW115570   5.717   6.241   4.070
37932SOL    HW215571   5.770   6.382   4.082
37933SOL     OW15572  11.194   7.213   7.754
37933SOL    HW115573  11.099   7.220   7.743
37933SOL    HW215574  11.211   7.119   7.755
37934SOL     OW15575  10.634   0.581  10.256
37934SOL    HW115576  10.678   0.663  10.278
37934SOL    HW215577  10.704   0.516  10.250
37935SOL     OW15578   6.274  12.676   6.707
37935SOL    HW115579   6.325  12.632   6.639
37935SOL    HW215580   6.257  12.764   6.672
37936SOL     OW15581  13.060   9.869   8.506
37936SOL    HW115582  13.048   9.786   8.460
37936SOL    HW215583  13.016   9.856   8.590
37937SOL     OW15584  11.542  13.491   5.617
37937SOL    HW115585  11.607  13.530   5.559
37937SOL    HW215586  11.534  13.401   5.587
37938SOL     OW15587   6.705   2.266  11.609
37938SOL    HW115588   6.701   2.176  11.641
37938SOL    HW215589   6.632   2.272  11.547
37939SOL     OW15590   3.979   2.400   6.171
37939SOL    HW115591   3.982   2.370   6.080
37939SOL    HW215592   3.982   2.496   6.165
37940SOL     OW15593  11.444  13.625   9.359
37940SOL    HW115594  11.514  13.668   9.409
37940SOL    HW215595  11.487  13.598   9.278
37941SOL     OW15596  13.340   8.251  12.920
37941SOL    HW115597  13.423   8.236  12.965
37941SOL    HW215598  13.280   8.189  12.960
37942SOL     OW15599   7.303  11.516  10.044
37942SOL    HW115600   7.357  11.509  10.123
37942SOL    HW215601   7.353  11.471   9.977
37943SOL     OW15602   0.615  12.817   9.060
37943SOL    HW115603   0.543  12.755   9.052
37943SOL    HW215604   0.579  12.901   9.031
37944SOL     OW15605   6.839   9.066   5.871
37944SOL    HW115606   6.792   9.077   5.788
37944SOL    HW215607   6.902   9.138   5.872
37945SOL     OW15608   1.526   0.594   3.538
37945SOL    HW115609   1.610   0.618   3.578
37945SOL    HW215610   1.549   0.561   3.451
37946SOL     OW15611   5.414   8.176   9.569
37946SOL    HW115612   5.431   8.188   9.662
37946SOL    HW215613   5.319   8.180   9.561
37947SOL     OW15614   1.970  13.109   7.497
37947SOL    HW115615   1.995  13.132   7.408
37947SOL    HW215616   1.881  13.142   7.506
37948SOL     OW15617  12.160   9.775   9.003
37948SOL    HW115618  12.210   9.851   8.973
37948SOL    HW215619  12.183   9.706   8.940
37949SOL     OW15620  10.212   2.042   7.006
37949SOL    HW115621  10.265   2.107   7.052
37949SOL    HW215622  10.195   1.974   7.071
37950SOL     OW15623   0.036  13.510  10.089
37950SOL    HW115624  14.829  13.517  10.044
37950SOL    HW215625   0.071  13.425  10.062
37951SOL     OW15626  10.815  10.352  14.157
37951SOL    HW115627  10.822  10.320  14.067
37951SOL    HW215628  10.731  10.318  14.188
37952SOL     OW15629  14.139   9.269   9.694
37952SOL    HW115630  14.225   9.310   9.697
37952SOL    HW215631  14.153   9.188   9.644
37953SOL     OW15632   6.544   0.955  11.241
37953SOL    HW115633   6.530   1.002  11.159
37953SOL    HW215634   6.537   1.023  11.309
37954SOL     OW15635   3.080  10.176   9.783
37954SOL    HW115636   3.140  10.223   9.841
37954SOL    HW215637   3.068  10.091   9.825
37955SOL     OW15638  13.006   2.766  11.638
37955SOL    HW115639  13.006   2.729  11.727
37955SOL    HW215640  12.998   2.861  11.652
37956SOL     OW15641  10.166   7.980  14.242
37956SOL    HW115642  10.216   8.023  14.173
37956SOL    HW215643  10.226   7.977  14.317
37957SOL     OW15644   6.344   9.188   9.870
37957SOL    HW115645   6.302   9.151   9.793
37957SOL    HW215646   6.428   9.221   9.839
37958SOL     OW15647   0.722   1.365  14.478
37958SOL    HW115648   0.744   1.403  14.393
37958SOL    HW215649   0.803   1.320  14.505
37959SOL     OW15650   1.587   2.557   1.142
37959SOL    HW115651   1.550   2.536   1.056
37959SOL    HW215652   1.511   2.557   1.201
37960SOL     OW15653   3.113   5.687  12.936
37960SOL    HW115654   3.125   5.646  12.851
37960SOL    HW215655   3.025   5.662  12.963
37961SOL     OW15656   8.613  14.194   0.580
37961SOL    HW115657   8.604  14.199   0.675
37961SOL    HW215658   8.537  14.144   0.551
37962SOL     OW15659   6.793   6.640   4.456
37962SOL    HW115660   6.820   6.614   4.368
37962SOL    HW215661   6.769   6.558   4.499
37963SOL     OW15662   4.898   4.110   3.597
37963SOL    HW115663   4.953   4.185   3.621
37963SOL    HW215664   4.923   4.090   3.506
37964SOL     OW15665   2.033  13.120   8.887
37964SOL    HW115666   1.950  13.072   8.895
37964SOL    HW215667   2.031  13.182   8.960
37965SOL     OW15668   1.165   9.692   2.093
37965SOL    HW115669   1.247   9.740   2.085
37965SOL    HW215670   1.190   9.600   2.086
37966SOL     OW15671  11.199   3.817   3.529
37966SOL    HW115672  11.259   3.867   3.474
37966SOL    HW215673  11.241   3.732   3.539
37967SOL     OW15674   6.526  11.972  11.569
37967SOL    HW115675   6.551  11.882  11.588
37967SOL    HW215676   6.586  12.000  11.501
37968SOL     OW15677   4.115   6.874   8.571
37968SOL    HW115678   4.110   6.781   8.549
37968SOL    HW215679   4.087   6.879   8.662
37969SOL     OW15680   3.020   5.481  14.724
37969SOL    HW115681   3.031   5.484  14.629
37969SOL    HW215682   2.977   5.564  14.746
37970SOL     OW15683   5.601   5.742   1.621
37970SOL    HW115684   5.604   5.711   1.712
37970SOL    HW215685   5.639   5.830   1.624
37971SOL     OW15686   8.782   0.043   9.876
37971SOL    HW115687   8.777   0.135   9.849
37971SOL    HW215688   8.837   0.002   9.809
37972SOL     OW15689   6.109  11.835  13.873
37972SOL    HW115690   6.152  11.772  13.931
37972SOL    HW215691   6.030  11.790  13.843
37973SOL     OW15692   9.860   8.929   2.739
37973SOL    HW115693   9.865   8.962   2.649
37973SOL    HW215694   9.853   9.008   2.792
37974SOL     OW15695   6.282   5.819   0.929
37974SOL    HW115696   6.236   5.783   0.852
37974SOL    HW215697   6.339   5.748   0.958
37975SOL     OW15698  11.150   0.665   4.933
37975SOL    HW115699  11.218   0.598   4.936
37975SOL    HW215700  11.191   0.743   4.970
37976SOL     OW15701  12.435   6.349  11.671
37976SOL    HW115702  12.377   6.362  11.596
37976SOL    HW215703  12.494   6.279  11.644
37977SOL     OW15704   2.936   9.624  11.240
37977SOL    HW115705   2.865   9.682  11.212
37977SOL    HW215706   2.994   9.679  11.292
37978SOL     OW15707   4.386   9.685   0.286
37978SOL    HW115708   4.345   9.672   0.201
37978SOL    HW215709   4.324   9.738   0.335
37979SOL     OW15710   1.088   7.907  10.058
37979SOL    HW115711   1.158   7.972  10.067
37979SOL    HW215712   1.059   7.915   9.967
37980SOL     OW15713  13.726   0.269  10.027
37980SOL    HW115714  13.819   0.290  10.021
37980SOL    HW215715  13.723   0.180  10.062
37981SOL     OW15716   7.528   3.892   2.343
37981SOL    HW115717   7.596   3.958   2.336
37981SOL    HW215718   7.466   3.927   2.407
37982SOL     OW15719  14.081  11.724   1.604
37982SOL    HW115720  14.102  11.707   1.512
37982SOL    HW215721  14.162  11.758   1.642
37983SOL     OW15722   8.618  10.528   9.238
37983SOL    HW115723   8.692  10.512   9.180
37983SOL    HW215724   8.656  10.529   9.326
37984SOL     OW15725   7.523   5.871  11.444
37984SOL    HW115726   7.582   5.824  11.502
37984SOL    HW215727   7.521   5.819  11.364
37985SOL     OW15728   3.396   6.256   1.123
37985SOL    HW115729   3.489   6.276   1.121
37985SOL    HW215730   3.387   6.176   1.071
37986SOL     OW15731   0.263   3.442   2.089
37986SOL    HW115732   0.322   3.507   2.052
37986SOL    HW215733   0.317   3.391   2.149
37987SOL     OW15734   2.193   6.481   4.156
37987SOL    HW115735   2.197   6.552   4.221
37987SOL    HW215736   2.174   6.403   4.207
37988SOL     OW15737   8.242   6.991  12.722
37988SOL    HW115738   8.243   7.083  12.745
37988SOL    HW215739   8.312   6.982  12.657
37989SOL     OW15740   6.499   1.597   3.856
37989SOL    HW115741   6.434   1.531   3.879
37989SOL    HW215742   6.517   1.643   3.938
37990SOL     OW15743   5.272   9.169   1.506
37990SOL    HW115744   5.254   9.224   1.582
37990SOL    HW215745   5.256   9.080   1.536
37991SOL     OW15746   1.452  12.049   9.468
37991SOL    HW115747   1.414  12.137   9.474
37991SOL    HW215748   1.526  12.051   9.529
37992SOL     OW15749   1.363  10.006   0.910
37992SOL    HW115750   1.397  10.029   0.996
37992SOL    HW215751   1.406   9.923   0.888
37993SOL     OW15752   8.557   4.029   4.131
37993SOL    HW115753   8.599   3.947   4.105
37993SOL    HW215754   8.464   4.008   4.135
37994SOL     OW15755   2.528   0.898  14.737
37994SOL    HW115756   2.510   0.905  14.644
37994SOL    HW215757   2.544   0.989  14.765
37995SOL     OW15758   7.525   6.567  13.729
37995SOL    HW115759   7.515   6.531  13.641
37995SOL    HW215760   7.539   6.661  13.715
37996SOL     OW15761   9.449   8.045   6.134
37996SOL    HW115762   9.442   8.038   6.038
37996SOL    HW215763   9.474   7.956   6.162
37997SOL     OW15764   9.000  14.557   1.749
37997SOL    HW115765   9.081  14.528   1.706
37997SOL    HW215766   8.968  14.629   1.693
37998SOL     OW15767   1.870  10.885   5.336
37998SOL    HW115768   1.892  10.829   5.262
37998SOL    HW215769   1.952  10.892   5.386
37999SOL     OW15770  11.773  11.529   3.792
37999SOL    HW115771  11.769  11.618   3.826
37999SOL    HW215772  11.862  11.500   3.811
38000SOL     OW15773   4.187  14.386   7.929
38000SOL    HW115774   4.152  14.305   7.890
38000SOL    HW215775   4.112  14.423   7.976
38001SOL     OW15776  11.159   9.367  13.138
38001SOL    HW115777  11.118   9.309  13.074
38001SOL    HW215778  11.102   9.363  13.215
38002SOL     OW15779   4.303  13.725  12.980
38002SOL    HW115780   4.255  13.773  13.048
38002SOL    HW215781   4.294  13.633  13.004
38003SOL     OW15782   3.550   7.687   5.405
38003SOL    HW115783   3.639   7.682   5.441
38003SOL    HW215784   3.551   7.766   5.352
38004SOL     OW15785   1.777   4.543   4.453
38004SOL    HW115786   1.751   4.631   4.480
38004SOL    HW215787   1.862   4.528   4.496
38005SOL     OW15788   1.623   1.961  13.258
38005SOL    HW115789   1.654   2.030  13.200
38005SOL    HW215790   1.631   1.998  13.346
38006SOL     OW15791   0.430  14.003  13.055
38006SOL    HW115792   0.460  14.092  13.037
38006SOL    HW215793   0.433  13.996  13.151
38007SOL     OW15794  10.015  12.113  12.236
38007SOL    HW115795   9.978  12.197  12.264
38007SOL    HW215796  10.044  12.128  12.147
38008SOL     OW15797   7.040   1.185   4.319
38008SOL    HW115798   7.067   1.231   4.239
38008SOL    HW215799   6.962   1.233   4.348
38009SOL     OW15800  11.472  11.913   6.455
38009SOL    HW115801  11.507  11.945   6.538
38009SOL    HW215802  11.509  11.972   6.389
38010SOL     OW15803   5.480  12.858   2.083
38010SOL    HW115804   5.511  12.940   2.122
38010SOL    HW215805   5.553  12.827   2.030
38011SOL     OW15806  10.786  13.598   6.159
38011SOL    HW115807  10.753  13.687   6.153
38011SOL    HW215808  10.790  13.567   6.068
38012SOL     OW15809   6.968  11.620  14.381
38012SOL    HW115810   7.019  11.583  14.309
38012SOL    HW215811   7.033  11.654  14.442
38013SOL     OW15812   2.487   5.177   7.270
38013SOL    HW115813   2.434   5.201   7.194
38013SOL    HW215814   2.573   5.157   7.234
38014SOL     OW15815   9.088  10.694  14.511
38014SOL    HW115816   9.104  10.732  14.597
38014SOL    HW215817   9.134  10.753  14.450
38015SOL     OW15818  14.432   0.612  13.964
38015SOL    HW115819  14.454   0.524  13.932
38015SOL    HW215820  14.427   0.665  13.885
38016SOL     OW15821   7.886  14.252  12.276
38016SOL    HW115822   7.918  14.329  12.228
38016SOL    HW215823   7.795  14.242  12.247
38017SOL     OW15824  13.860  13.351  13.264
38017SOL    HW115825  13.807  13.398  13.200
38017SOL    HW215826  13.939  13.405  13.275
38018SOL     OW15827   0.734   9.333   7.138
38018SOL    HW115828   0.737   9.281   7.058
38018SOL    HW215829   0.650   9.312   7.178
38019SOL     OW15830  10.162   2.450  10.732
38019SOL    HW115831  10.082   2.412  10.697
38019SOL    HW215832  10.232   2.409  10.682
38020SOL     OW15833  11.929   3.764   7.346
38020SOL    HW115834  11.877   3.830   7.300
38020SOL    HW215835  12.020   3.790   7.330
38021SOL     OW15836   9.014  13.905   5.014
38021SOL    HW115837   9.007  13.983   5.069
38021SOL    HW215838   8.964  13.838   5.061
38022SOL     OW15839  11.558  12.502   5.267
38022SOL    HW115840  11.649  12.474   5.263
38022SOL    HW215841  11.513  12.430   5.311
38023SOL     OW15842   1.964   2.543   6.761
38023SOL    HW115843   1.908   2.467   6.770
38023SOL    HW215844   1.913   2.605   6.709
38024SOL     OW15845  11.378   8.671   4.384
38024SOL    HW115846  11.464   8.713   4.389
38024SOL    HW215847  11.395   8.586   4.342
38025SOL     OW15848  11.336  10.449   1.226
38025SOL    HW115849  11.328  10.397   1.146
38025SOL    HW215850  11.254  10.435   1.272
38026SOL     OW15851  12.887  10.170   9.829
38026SOL    HW115852  12.924  10.219   9.755
38026SOL    HW215853  12.907  10.079   9.809
38027SOL     OW15854   2.860  10.786   7.326
38027SOL    HW115855   2.810  10.730   7.266
38027SOL    HW215856   2.925  10.829   7.270
38028SOL     OW15857   8.133   7.978   2.668
38028SOL    HW115858   8.089   7.951   2.588
38028SOL    HW215859   8.088   8.059   2.694
38029SOL     OW15860   0.369  10.550   5.640
38029SOL    HW115861   0.411  10.601   5.710
38029SOL    HW215862   0.347  10.615   5.573
38030SOL     OW15863   9.993   0.997   5.595
38030SOL    HW115864  10.000   1.065   5.529
38030SOL    HW215865  10.072   1.007   5.648
38031SOL     OW15866   0.258   5.086  13.605
38031SOL    HW115867   0.330   5.053  13.658
38031SOL    HW215868   0.260   5.180  13.617
38032SOL     OW15869   2.559  11.498   8.741
38032SOL    HW115870   2.577  11.482   8.649
38032SOL    HW215871   2.508  11.422   8.769
38033SOL     OW15872   3.622   9.672   6.960
38033SOL    HW115873   3.676   9.661   6.881
38033SOL    HW215874   3.631   9.765   6.982
38034SOL     OW15875  11.137   2.223  11.263
38034SOL    HW115876  11.140   2.188  11.352
38034SOL    HW215877  11.228   2.250  11.246
38035SOL     OW15878   5.392   9.427  13.092
38035SOL    HW115879   5.435   9.495  13.144
38035SOL    HW215880   5.458   9.359  13.083
38036SOL     OW15881   1.058   6.018   4.446
38036SOL    HW115882   1.095   6.106   4.445
38036SOL    HW215883   1.087   5.982   4.530
38037SOL     OW15884   6.287   1.658   0.171
38037SOL    HW115885   6.281   1.747   0.136
38037SOL    HW215886   6.210   1.649   0.228
38038SOL     OW15887  12.234   6.760  13.115
38038SOL    HW115888  12.207   6.834  13.170
38038SOL    HW215889  12.281   6.801  13.042
38039SOL     OW15890   6.354   8.120   5.237
38039SOL    HW115891   6.397   8.035   5.248
38039SOL    HW215892   6.366   8.163   5.322
38040SOL     OW15893  14.795  11.279   5.545
38040SOL    HW115894  14.775  11.352   5.486
38040SOL    HW215895  14.833  11.212   5.488
38041SOL     OW15896   8.121  10.731   0.861
38041SOL    HW115897   8.026  10.741   0.849
38041SOL    HW215898   8.142  10.650   0.815
38042SOL     OW15899   8.937   2.796   4.775
38042SOL    HW115900   8.845   2.792   4.803
38042SOL    HW215901   8.943   2.877   4.724
38043SOL     OW15902  10.753   3.137  11.316
38043SOL    HW115903  10.750   3.100  11.227
38043SOL    HW215904  10.737   3.230  11.303
38044SOL     OW15905  12.898  14.811   9.244
38044SOL    HW115906  12.942   0.012   9.210
38044SOL    HW215907  12.890  14.827   9.338
38045SOL     OW15908   2.417   7.602  14.644
38045SOL    HW115909   2.377   7.607  14.731
38045SOL    HW215910   2.476   7.527  14.648
38046SOL     OW15911   1.568   9.227   1.019
38046SOL    HW115912   1.570   9.311   1.065
38046SOL    HW215913   1.649   9.225   0.969
38047SOL     OW15914   6.214   1.462   6.975
38047SOL    HW115915   6.287   1.511   7.013
38047SOL    HW215916   6.256   1.390   6.928
38048SOL     OW15917   7.718   1.240   6.415
38048SOL    HW115918   7.644   1.247   6.475
38048SOL    HW215919   7.766   1.162   6.444
38049SOL     OW15920   2.751   8.957   2.642
38049SOL    HW115921   2.794   8.958   2.728
38049SOL    HW215922   2.662   8.987   2.660
38050SOL     OW15923   1.900   1.536   3.665
38050SOL    HW115924   1.850   1.544   3.745
38050SOL    HW215925   1.837   1.508   3.599
38051SOL     OW15926   7.552   0.986   7.869
38051SOL    HW115927   7.641   1.018   7.860
38051SOL    HW215928   7.498   1.066   7.872
38052SOL     OW15929   9.049   6.587   5.583
38052SOL    HW115930   9.104   6.555   5.511
38052SOL    HW215931   9.059   6.521   5.652
38053SOL     OW15932   9.977   0.650   2.568
38053SOL    HW115933   9.906   0.607   2.615
38053SOL    HW215934  10.025   0.698   2.635
38054SOL     OW15935   7.221   6.545   3.898
38054SOL    HW115936   7.249   6.539   3.807
38054SOL    HW215937   7.126   6.551   3.894
38055SOL     OW15938   6.968   9.755  13.590
38055SOL    HW115939   6.926   9.733  13.507
38055SOL    HW215940   6.975   9.851  13.589
38056SOL     OW15941  12.077   4.659   1.249
38056SOL    HW115942  12.012   4.589   1.246
38056SOL    HW215943  12.027   4.737   1.272
38057SOL     OW15944   1.617  11.938   0.337
38057SOL    HW115945   1.683  11.902   0.278
38057SOL    HW215946   1.563  11.994   0.282
38058SOL     OW15947   3.694   9.227  13.346
38058SOL    HW115948   3.628   9.191  13.287
38058SOL    HW215949   3.645   9.289  13.400
38059SOL     OW15950   0.067   0.271   3.355
38059SOL    HW115951   0.015   0.346   3.385
38059SOL    HW215952   0.108   0.302   3.275
38060SOL     OW15953   9.465   5.178   6.243
38060SOL    HW115954   9.547   5.138   6.271
38060SOL    HW215955   9.489   5.265   6.213
38061SOL     OW15956   7.551   5.517   9.637
38061SOL    HW115957   7.494   5.520   9.714
38061SOL    HW215958   7.596   5.434   9.644
38062SOL     OW15959   7.862   5.053  12.408
38062SOL    HW115960   7.896   5.121  12.466
38062SOL    HW215961   7.893   4.971  12.445
38063SOL     OW15962   9.914   1.726   7.756
38063SOL    HW115963   9.957   1.696   7.836
38063SOL    HW215964   9.828   1.757   7.785
38064SOL     OW15965   8.542   9.969   3.545
38064SOL    HW115966   8.614   9.908   3.559
38064SOL    HW215967   8.581  10.042   3.497
38065SOL     OW15968   9.951  12.756  11.778
38065SOL    HW115969   9.997  12.676  11.804
38065SOL    HW215970  10.004  12.827  11.815
38066SOL     OW15971   5.640  14.393   3.388
38066SOL    HW115972   5.612  14.331   3.320
38066SOL    HW215973   5.617  14.479   3.352
38067SOL     OW15974   2.027   4.274   5.034
38067SOL    HW115975   2.065   4.245   4.951
38067SOL    HW215976   2.051   4.366   5.041
38068SOL     OW15977  14.104  12.161   0.072
38068SOL    HW115978  14.185  12.180   0.119
38068SOL    HW215979  14.035  12.172   0.138
38069SOL     OW15980  13.659  13.104   9.682
38069SOL    HW115981  13.694  13.117   9.770
38069SOL    HW215982  13.614  13.186   9.662
38070SOL     OW15983  10.419   9.018  13.076
38070SOL    HW115984  10.492   9.040  13.134
38070SOL    HW215985  10.452   8.948  13.021
38071SOL     OW15986  12.153   3.409   9.802
38071SOL    HW115987  12.204   3.438   9.727
38071SOL    HW215988  12.071   3.459   9.797
38072SOL     OW15989   3.507   4.302   8.722
38072SOL    HW115990   3.543   4.214   8.730
38072SOL    HW215991   3.418   4.295   8.757
38073SOL     OW15992  13.260  13.589   4.028
38073SOL    HW115993  13.186  13.632   4.070
38073SOL    HW215994  13.260  13.624   3.938
38074SOL     OW15995   9.676   9.373  14.195
38074SOL    HW115996   9.611   9.368  14.265
38074SOL    HW215997   9.760   9.372  14.240
38075SOL     OW15998   2.230   8.295   2.041
38075SOL    HW115999   2.197   8.308   2.130
38075SOL    HW216000   2.320   8.265   2.053
38076SOL     OW16001   8.519   7.042   4.180
38076SOL    HW116002   8.612   7.051   4.198
38076SOL    HW216003   8.475   7.079   4.256
38077SOL     OW16004   5.419   7.274  13.332
38077SOL    HW116005   5.515   7.274  13.329
38077SOL    HW216006   5.395   7.182  13.346
38078SOL     OW16007   6.798   4.398   9.286
38078SOL    HW116008   6.737   4.421   9.356
38078SOL    HW216009   6.885   4.406   9.327
38079SOL     OW16010  12.057   8.934   4.031
38079SOL    HW116011  11.971   8.966   4.056
38079SOL    HW216012  12.040   8.861   3.971
38080SOL     OW16013   7.549   6.685   9.276
38080SOL    HW116014   7.503   6.745   9.334
38080SOL    HW216015   7.642   6.697   9.298
38081SOL     OW16016  13.834  14.155  12.374
38081SOL    HW116017  13.918  14.175  12.334
38081SOL    HW216018  13.769  14.184  12.309
38082SOL     OW16019   2.575   5.816  14.125
38082SOL    HW116020   2.527   5.826  14.042
38082SOL    HW216021   2.590   5.906  14.155
38083SOL     OW16022   7.170   8.217   8.164
38083SOL    HW116023   7.223   8.138   8.159
38083SOL    HW216024   7.196   8.258   8.246
38084SOL     OW16025   7.856  10.027   5.009
38084SOL    HW116026   7.916  10.021   4.935
38084SOL    HW216027   7.908  10.000   5.085
38085SOL     OW16028   1.358  12.617   2.643
38085SOL    HW116029   1.398  12.530   2.649
38085SOL    HW216030   1.428  12.673   2.610
38086SOL     OW16031   3.175   8.512   0.347
38086SOL    HW116032   3.214   8.597   0.365
38086SOL    HW216033   3.085   8.532   0.320
38087SOL     OW16034   2.067  10.191   4.412
38087SOL    HW116035   2.097  10.121   4.469
38087SOL    HW216036   1.990  10.228   4.456
38088SOL     OW16037   6.107   1.034  11.309
38088SOL    HW116038   6.165   1.093  11.357
38088SOL    HW216039   6.027   1.085  11.294
38089SOL     OW16040  12.830   7.830  14.325
38089SOL    HW116041  12.738   7.835  14.353
38089SOL    HW216042  12.880   7.843  14.405
38090SOL     OW16043   1.125   7.092   6.842
38090SOL    HW116044   1.105   7.008   6.801
38090SOL    HW216045   1.154   7.069   6.930
38091SOL     OW16046  13.689   3.955  10.427
38091SOL    HW116047  13.697   4.049  10.446
38091SOL    HW216048  13.612   3.949  10.371
38092SOL     OW16049  14.544  10.605   5.072
38092SOL    HW116050  14.567  10.515   5.046
38092SOL    HW216051  14.459  10.597   5.113
38093SOL     OW16052   1.215   5.400   3.471
38093SOL    HW116053   1.242   5.467   3.408
38093SOL    HW216054   1.271   5.325   3.453
38094SOL     OW16055  10.599   2.949   7.491
38094SOL    HW116056  10.598   2.981   7.581
38094SOL    HW216057  10.681   2.901   7.484
38095SOL     OW16058   5.837   6.554   0.253
38095SOL    HW116059   5.742   6.552   0.239
38095SOL    HW216060   5.847   6.570   0.346
38096SOL     OW16061   7.727   6.676  13.131
38096SOL    HW116062   7.822   6.664  13.129
38096SOL    HW216063   7.703   6.697  13.041
38097SOL     OW16064   1.405   6.220   7.535
38097SOL    HW116065   1.330   6.188   7.484
38097SOL    HW216066   1.421   6.151   7.599
38098SOL     OW16067   0.805   8.675   7.245
38098SOL    HW116068   0.793   8.754   7.299
38098SOL    HW216069   0.774   8.603   7.300
38099SOL     OW16070   4.209  14.379   4.100
38099SOL    HW116071   4.162  14.425   4.031
38099SOL    HW216072   4.274  14.442   4.131
38100SOL     OW16073   6.719   4.568   5.899
38100SOL    HW116074   6.654   4.595   5.963
38100SOL    HW216075   6.744   4.648   5.853
38101SOL     OW16076   4.733   0.899   6.971
38101SOL    HW116077   4.638   0.898   6.956
38101SOL    HW216078   4.745   0.846   7.050
38102SOL     OW16079  11.517   1.904  11.695
38102SOL    HW116080  11.580   1.975  11.685
38102SOL    HW216081  11.567   1.832  11.734
38103SOL     OW16082  13.467   6.769   8.867
38103SOL    HW116083  13.482   6.677   8.892
38103SOL    HW216084  13.464   6.767   8.771
38104SOL     OW16085   2.995   2.819   2.844
38104SOL    HW116086   2.991   2.887   2.776
38104SOL    HW216087   3.082   2.830   2.883
38105SOL     OW16088   0.472   5.300  11.958
38105SOL    HW116089   0.415   5.228  11.929
38105SOL    HW216090   0.479   5.288  12.053
38106SOL     OW16091   6.823   7.804  10.682
38106SOL    HW116092   6.757   7.848  10.736
38106SOL    HW216093   6.773   7.738  10.634
38107SOL     OW16094   3.354   6.086  10.603
38107SOL    HW116095   3.320   5.999  10.624
38107SOL    HW216096   3.280   6.145  10.617
38108SOL     OW16097   6.899   1.128   3.585
38108SOL    HW116098   6.856   1.084   3.658
38108SOL    HW216099   6.947   1.059   3.540
38109SOL     OW16100  12.561  14.687   3.563
38109SOL    HW116101  12.508  14.758   3.529
38109SOL    HW216102  12.650  14.707   3.534
38110SOL     OW16103   2.874  14.863   8.685
38110SOL    HW116104   2.873  14.776   8.644
38110SOL    HW216105   2.828  14.851   8.768
38111SOL     OW16106  12.422   6.573   4.223
38111SOL    HW116107  12.482   6.498   4.221
38111SOL    HW216108  12.336   6.535   4.203
38112SOL     OW16109   3.382  13.586   6.736
38112SOL    HW116110   3.432  13.509   6.710
38112SOL    HW216111   3.404  13.652   6.670
38113SOL     OW16112   8.874   8.173   9.087
38113SOL    HW116113   8.916   8.231   9.151
38113SOL    HW216114   8.939   8.104   9.070
38114SOL     OW16115   0.136   4.403   9.652
38114SOL    HW116116   0.167   4.458   9.723
38114SOL    HW216117   0.215   4.381   9.602
38115SOL     OW16118   0.437   7.167   0.940
38115SOL    HW116119   0.528   7.194   0.942
38115SOL    HW216120   0.388   7.249   0.936
38116SOL     OW16121   6.148   0.211  14.438
38116SOL    HW116122   6.133   0.299  14.473
38116SOL    HW216123   6.060   0.175  14.426
38117SOL     OW16124   9.151  13.333   0.117
38117SOL    HW116125   9.146  13.349   0.023
38117SOL    HW216126   9.200  13.252   0.124
38118SOL     OW16127   3.255  13.321  11.302
38118SOL    HW116128   3.169  13.356  11.282
38118SOL    HW216129   3.311  13.398  11.311
38119SOL     OW16130  14.360  10.504   7.862
38119SOL    HW116131  14.442  10.497   7.813
38119SOL    HW216132  14.324  10.415   7.864
38120SOL     OW16133  14.369  14.437   2.590
38120SOL    HW116134  14.304  14.503   2.567
38120SOL    HW216135  14.388  14.392   2.507
38121SOL     OW16136   4.602  10.042   7.784
38121SOL    HW116137   4.644   9.994   7.855
38121SOL    HW216138   4.581   9.976   7.719
38122SOL     OW16139  12.363   8.074   3.772
38122SOL    HW116140  12.390   8.160   3.740
38122SOL    HW216141  12.444   8.026   3.784
38123SOL     OW16142   3.982  14.348   9.442
38123SOL    HW116143   4.068  14.336   9.403
38123SOL    HW216144   3.982  14.291   9.519
38124SOL     OW16145   6.556   8.012   0.543
38124SOL    HW116146   6.523   7.926   0.517
38124SOL    HW216147   6.478   8.067   0.546
38125SOL     OW16148   4.181   6.422   9.210
38125SOL    HW116149   4.178   6.405   9.116
38125SOL    HW216150   4.091   6.415   9.239
38126SOL     OW16151   6.905   2.926  14.338
38126SOL    HW116152   6.953   2.862  14.389
38126SOL    HW216153   6.856   2.874  14.274
38127SOL     OW16154   8.199  11.582   1.378
38127SOL    HW116155   8.186  11.519   1.308
38127SOL    HW216156   8.117  11.632   1.381
38128SOL     OW16157   2.227  14.081   9.345
38128SOL    HW116158   2.278  14.058   9.423
38128SOL    HW216159   2.230  14.176   9.341
38129SOL     OW16160   5.114   1.712   4.974
38129SOL    HW116161   5.094   1.805   4.967
38129SOL    HW216162   5.158   1.703   5.059
38130SOL     OW16163  11.699   6.183  10.185
38130SOL    HW116164  11.617   6.215  10.148
38130SOL    HW216165  11.726   6.251  10.247
38131SOL     OW16166   1.172   8.758   4.305
38131SOL    HW116167   1.190   8.852   4.314
38131SOL    HW216168   1.240   8.726   4.246
38132SOL     OW16169   0.145   2.678   2.064
38132SOL    HW116170   0.126   2.680   2.157
38132SOL    HW216171   0.075   2.626   2.025
38133SOL     OW16172   6.149   7.824   6.619
38133SOL    HW116173   6.230   7.774   6.623
38133SOL    HW216174   6.170   7.908   6.660
38134SOL     OW16175  12.952  14.744   0.720
38134SOL    HW116176  12.979  14.688   0.647
38134SOL    HW216177  13.033  14.786   0.749
38135SOL     OW16178   9.001   1.182  13.603
38135SOL    HW116179   8.984   1.116  13.669
38135SOL    HW216180   9.063   1.242  13.644
38136SOL     OW16181  10.396  13.911   2.412
38136SOL    HW116182  10.467  13.854   2.385
38136SOL    HW216183  10.354  13.937   2.330
38137SOL     OW16184   1.668  13.368  13.304
38137SOL    HW116185   1.730  13.427  13.261
38137SOL    HW216186   1.716  13.332  13.379
38138SOL     OW16187   0.614  13.157   5.265
38138SOL    HW116188   0.601  13.168   5.359
38138SOL    HW216189   0.635  13.245   5.233
38139SOL     OW16190   0.953   5.302  11.537
38139SOL    HW116191   0.871   5.338  11.505
38139SOL    HW216192   0.945   5.208  11.525
38140SOL     OW16193   8.703   3.756   7.450
38140SOL    HW116194   8.691   3.719   7.537
38140SOL    HW216195   8.649   3.701   7.393
38141SOL     OW16196   5.276   2.901   6.874
38141SOL    HW116197   5.350   2.961   6.885
38141SOL    HW216198   5.242   2.887   6.962
38142SOL     OW16199   0.998   7.948   0.222
38142SOL    HW116200   1.050   7.982   0.295
38142SOL    HW216201   0.907   7.952   0.254
38143SOL     OW16202   1.336   7.709  10.108
38143SOL    HW116203   1.256   7.737  10.154
38143SOL    HW216204   1.303   7.662  10.031
38144SOL     OW16205   3.426  11.992   8.366
38144SOL    HW116206   3.365  11.938   8.417
38144SOL    HW216207   3.412  12.081   8.398
38145SOL     OW16208  11.968   9.025  13.050
38145SOL    HW116209  12.020   8.949  13.023
38145SOL    HW216210  12.030   9.098  13.052
38146SOL     OW16211   8.035   9.653   5.581
38146SOL    HW116212   7.941   9.651   5.563
38146SOL    HW216213   8.054   9.746   5.595
38147SOL     OW16214   1.390   8.698   6.730
38147SOL    HW116215   1.397   8.794   6.724
38147SOL    HW216216   1.365   8.681   6.821
38148SOL     OW16217  10.887  14.146   2.863
38148SOL    HW116218  10.880  14.235   2.826
38148SOL    HW216219  10.975  14.143   2.900
38149SOL     OW16220   6.829   9.798   1.812
38149SOL    HW116221   6.761   9.844   1.860
38149SOL    HW216222   6.825   9.835   1.724
38150SOL     OW16223   2.136  11.145   2.875
38150SOL    HW116224   2.061  11.205   2.871
38150SOL    HW216225   2.212  11.201   2.863
38151SOL     OW16226   6.383   6.774   7.637
38151SOL    HW116227   6.356   6.731   7.719
38151SOL    HW216228   6.305   6.772   7.582
38152SOL     OW16229  11.248   0.697   8.030
38152SOL    HW116230  11.290   0.729   8.110
38152SOL    HW216231  11.257   0.602   8.035
38153SOL     OW16232   6.625   0.395   3.413
38153SOL    HW116233   6.608   0.320   3.471
38153SOL    HW216234   6.576   0.467   3.452
38154SOL     OW16235  12.821   6.723  14.364
38154SOL    HW116236  12.813   6.663  14.290
38154SOL    HW216237  12.876   6.794  14.332
38155SOL     OW16238   8.722  12.191  10.434
38155SOL    HW116239   8.762  12.277  10.447
38155SOL    HW216240   8.794  12.135  10.406
38156SOL     OW16241   9.139   3.272   5.899
38156SOL    HW116242   9.102   3.199   5.948
38156SOL    HW216243   9.233   3.267   5.917
38157SOL     OW16244  11.301   9.599   7.521
38157SOL    HW116245  11.281   9.692   7.529
38157SOL    HW216246  11.389   9.596   7.482
38158SOL     OW16247   3.128   3.362   4.601
38158SOL    HW116248   3.131   3.438   4.542
38158SOL    HW216249   3.176   3.391   4.679
38159SOL     OW16250   3.251   0.333   4.063
38159SOL    HW116251   3.178   0.385   4.029
38159SOL    HW216252   3.328   0.387   4.049
38160SOL     OW16253  12.671  11.775   4.687
38160SOL    HW116254  12.678  11.697   4.743
38160SOL    HW216255  12.624  11.839   4.741
38161SOL     OW16256   1.848  14.477   9.684
38161SOL    HW116257   1.794  14.500   9.608
38161SOL    HW216258   1.814  14.392   9.712
38162SOL     OW16259  12.882   4.813  11.532
38162SOL    HW116260  12.869   4.899  11.572
38162SOL    HW216261  12.855   4.751  11.600
38163SOL     OW16262   5.105  13.945  10.710
38163SOL    HW116263   5.081  13.853  10.704
38163SOL    HW216264   5.067  13.985  10.631
38164SOL     OW16265   7.406   5.253  13.060
38164SOL    HW116266   7.345   5.256  12.986
38164SOL    HW216267   7.366   5.192  13.122
38165SOL     OW16268   0.292   3.601   4.230
38165SOL    HW116269   0.283   3.516   4.273
38165SOL    HW216270   0.328   3.581   4.144
38166SOL     OW16271   8.544   2.939  12.373
38166SOL    HW116272   8.489   2.941  12.294
38166SOL    HW216273   8.525   3.023  12.416
38167SOL     OW16274   6.330  13.657   4.617
38167SOL    HW116275   6.250  13.710   4.616
38167SOL    HW216276   6.348  13.640   4.524
38168SOL     OW16277  13.069   4.349   3.655
38168SOL    HW116278  13.014   4.349   3.734
38168SOL    HW216279  13.127   4.274   3.666
38169SOL     OW16280   2.418   5.754   3.990
38169SOL    HW116281   2.381   5.822   3.934
38169SOL    HW216282   2.351   5.686   3.993
38170SOL     OW16283   2.209   4.941  12.360
38170SOL    HW116284   2.209   5.005  12.432
38170SOL    HW216285   2.121   4.905  12.360
38171SOL     OW16286   6.432  12.910  11.124
38171SOL    HW116287   6.411  12.818  11.139
38171SOL    HW216288   6.444  12.917  11.029
38172SOL     OW16289  14.698   4.783   1.840
38172SOL    HW116290  14.731   4.729   1.912
38172SOL    HW216291  14.777   4.819   1.800
38173SOL     OW16292   9.780  13.240   7.961
38173SOL    HW116293   9.766  13.331   7.935
38173SOL    HW216294   9.754  13.188   7.884
38174SOL     OW16295   4.145   7.553  14.734
38174SOL    HW116296   4.143   7.462  14.704
38174SOL    HW216297   4.057   7.570  14.767
38175SOL     OW16298  13.028   3.040   0.809
38175SOL    HW116299  13.053   3.106   0.744
38175SOL    HW216300  12.990   3.090   0.881
38176SOL     OW16301  12.088   3.202   0.881
38176SOL    HW116302  12.081   3.139   0.809
38176SOL    HW216303  12.108   3.149   0.958
38177SOL     OW16304   9.708  13.391  14.823
38177SOL    HW116305   9.708  13.409  14.729
38177SOL    HW216306   9.628  13.433  14.855
38178SOL     OW16307  13.274   7.800   8.820
38178SOL    HW116308  13.328   7.738   8.772
38178SOL    HW216309  13.311   7.886   8.799
38179SOL     OW16310   0.896  12.659   8.308
38179SOL    HW116311   0.926  12.578   8.267
38179SOL    HW216312   0.899  12.642   8.402
38180SOL     OW16313   0.326   6.491  10.255
38180SOL    HW116314   0.393   6.426  10.233
38180SOL    HW216315   0.289   6.517  10.171
38181SOL     OW16316  14.823   7.709   5.365
38181SOL    HW116317  14.858   7.795   5.387
38181SOL    HW216318   0.013   7.669   5.309
38182SOL     OW16319   0.900   1.597   6.884
38182SOL    HW116320   0.858   1.564   6.964
38182SOL    HW216321   0.902   1.521   6.825
38183SOL     OW16322   5.925   1.700   5.255
38183SOL    HW116323   5.928   1.708   5.160
38183SOL    HW216324   5.908   1.789   5.286
38184SOL     OW16325  13.703  12.011   9.980
38184SOL    HW116326  13.767  12.004  10.051
38184SOL    HW216327  13.753  12.041   9.905
38185SOL     OW16328   5.679   8.581   3.290
38185SOL    HW116329   5.757   8.619   3.250
38185SOL    HW216330   5.710   8.500   3.331
38186SOL     OW16331  12.334  11.151   3.297
38186SOL    HW116332  12.241  11.127   3.301
38186SOL    HW216333  12.379  11.078   3.339
38187SOL     OW16334  14.454   4.034   4.177
38187SOL    HW116335  14.526   4.065   4.232
38187SOL    HW216336  14.375   4.065   4.221
38188SOL     OW16337  11.781  11.002   7.984
38188SOL    HW116338  11.785  10.932   8.049
38188SOL    HW216339  11.855  11.059   8.006
38189SOL     OW16340  14.009   0.728  10.698
38189SOL    HW116341  13.954   0.726  10.776
38189SOL    HW216342  13.959   0.780  10.635
38190SOL     OW16343   4.593   4.730   3.553
38190SOL    HW116344   4.653   4.784   3.502
38190SOL    HW216345   4.548   4.677   3.487
38191SOL     OW16346   9.054   2.973   3.359
38191SOL    HW116347   9.006   3.025   3.423
38191SOL    HW216348   9.089   2.899   3.409
38192SOL     OW16349   2.844   2.623   4.896
38192SOL    HW116350   2.802   2.537   4.886
38192SOL    HW216351   2.896   2.633   4.816
38193SOL     OW16352  11.605   4.393   9.561
38193SOL    HW116353  11.599   4.327   9.630
38193SOL    HW216354  11.520   4.390   9.518
38194SOL     OW16355   2.541   3.791  10.318
38194SOL    HW116356   2.549   3.774  10.412
38194SOL    HW216357   2.522   3.884  10.312
38195SOL     OW16358   5.692   5.712   0.620
38195SOL    HW116359   5.635   5.677   0.688
38195SOL    HW216360   5.691   5.646   0.551
38196SOL     OW16361   5.961  11.495  14.828
38196SOL    HW116362   6.023  11.462   0.016
38196SOL    HW216363   5.895  11.426  14.820
38197SOL     OW16364  11.022  10.504  13.877
38197SOL    HW116365  10.994  10.527  13.966
38197SOL    HW216366  10.958  10.439  13.848
38198SOL     OW16367  11.651   0.486   2.137
38198SOL    HW116368  11.572   0.538   2.146
38198SOL    HW216369  11.663   0.477   2.042
38199SOL     OW16370   7.008   5.504  10.424
38199SOL    HW116371   7.073   5.456  10.373
38199SOL    HW216372   7.055   5.533  10.502
38200SOL     OW16373  11.809   8.315   2.166
38200SOL    HW116374  11.809   8.254   2.092
38200SOL    HW216375  11.864   8.387   2.137
38201SOL     OW16376   6.320  11.204   1.990
38201SOL    HW116377   6.315  11.281   2.048
38201SOL    HW216378   6.254  11.144   2.025
38202SOL     OW16379   3.671  13.052   1.898
38202SOL    HW116380   3.759  13.025   1.925
38202SOL    HW216381   3.658  13.013   1.812
38203SOL     OW16382   5.432  14.053   3.459
38203SOL    HW116383   5.354  14.108   3.472
38203SOL    HW216384   5.403  13.984   3.399
38204SOL     OW16385   6.582  10.288   8.789
38204SOL    HW116386   6.578  10.368   8.841
38204SOL    HW216387   6.510  10.233   8.822
38205SOL     OW16388   1.125   3.521  13.999
38205SOL    HW116389   1.151   3.433  13.970
38205SOL    HW216390   1.201   3.576  13.978
38206SOL     OW16391   2.158   9.666   2.297
38206SOL    HW116392   2.067   9.679   2.269
38206SOL    HW216393   2.159   9.578   2.334
38207SOL     OW16394   5.065   3.474   8.180
38207SOL    HW116395   4.973   3.447   8.178
38207SOL    HW216396   5.105   3.428   8.106
38208SOL     OW16397   4.434  10.580   0.688
38208SOL    HW116398   4.411  10.488   0.704
38208SOL    HW216399   4.529  10.582   0.698
38209SOL     OW16400  13.617   4.207  14.680
38209SOL    HW116401  13.696   4.153  14.671
38209SOL    HW216402  13.599   4.238  14.592
38210SOL     OW16403   0.836   2.548  11.550
38210SOL    HW116404   0.813   2.495  11.474
38210SOL    HW216405   0.869   2.484  11.614
38211SOL     OW16406   6.154   0.301   0.931
38211SOL    HW116407   6.147   0.307   0.836
38211SOL    HW216408   6.087   0.361   0.964
38212SOL     OW16409   8.757   2.925   5.362
38212SOL    HW116410   8.749   2.842   5.315
38212SOL    HW216411   8.826   2.909   5.427
38213SOL     OW16412  10.579   2.315  10.545
38213SOL    HW116413  10.655   2.258  10.555
38213SOL    HW216414  10.524   2.270  10.481
38214SOL     OW16415   0.146   2.126   9.709
38214SOL    HW116416   0.131   2.046   9.659
38214SOL    HW216417   0.183   2.095   9.792
38215SOL     OW16418   2.591  12.169   0.112
38215SOL    HW116419   2.593  12.116   0.032
38215SOL    HW216420   2.575  12.105   0.182
38216SOL     OW16421   2.502   0.712   6.757
38216SOL    HW116422   2.508   0.626   6.799
38216SOL    HW216423   2.408   0.728   6.750
38217SOL     OW16424   9.770   1.508   4.442
38217SOL    HW116425   9.696   1.550   4.398
38217SOL    HW216426   9.845   1.525   4.385
38218SOL     OW16427  12.293   4.973  11.142
38218SOL    HW116428  12.283   5.046  11.082
38218SOL    HW216429  12.289   4.895  11.086
38219SOL     OW16430   3.253   8.107   3.416
38219SOL    HW116431   3.344   8.104   3.447
38219SOL    HW216432   3.200   8.114   3.495
38220SOL     OW16433   8.238   4.604   7.091
38220SOL    HW116434   8.269   4.517   7.115
38220SOL    HW216435   8.143   4.596   7.088
38221SOL     OW16436   1.647   6.073  10.412
38221SOL    HW116437   1.577   6.108  10.357
38221SOL    HW216438   1.724   6.073  10.355
38222SOL     OW16439   2.556   4.913   1.382
38222SOL    HW116440   2.504   4.857   1.439
38222SOL    HW216441   2.601   4.973   1.442
38223SOL     OW16442  11.120   3.770  14.493
38223SOL    HW116443  11.118   3.760  14.588
38223SOL    HW216444  11.028   3.769  14.466
38224SOL     OW16445   4.883   1.889   9.562
38224SOL    HW116446   4.806   1.871   9.616
38224SOL    HW216447   4.860   1.969   9.515
38225SOL     OW16448   8.783  11.434   5.908
38225SOL    HW116449   8.858  11.416   5.851
38225SOL    HW216450   8.717  11.470   5.849
38226SOL     OW16451   2.679   1.601  14.759
38226SOL    HW116452   2.607   1.561  14.810
38226SOL    HW216453   2.708   1.674  14.813
38227SOL     OW16454   6.420  12.712   9.422
38227SOL    HW116455   6.512  12.699   9.447
38227SOL    HW216456   6.420  12.702   9.327
38228SOL     OW16457  10.414   9.804  14.279
38228SOL    HW116458  10.467   9.802  14.199
38228SOL    HW216459  10.370   9.719  14.281
38229SOL     OW16460  10.463  12.633   1.654
38229SOL    HW116461  10.472  12.573   1.579
38229SOL    HW216462  10.435  12.577   1.726
38230SOL     OW16463   4.317  12.161   9.512
38230SOL    HW116464   4.383  12.124   9.454
38230SOL    HW216465   4.235  12.119   9.485
38231SOL     OW16466  11.080   4.739   7.490
38231SOL    HW116467  11.061   4.818   7.439
38231SOL    HW216468  11.135   4.687   7.432
38232SOL     OW16469   2.668   4.984   4.734
38232SOL    HW116470   2.687   5.051   4.799
38232SOL    HW216471   2.572   4.986   4.725
38233SOL     OW16472   7.228   0.752   4.770
38233SOL    HW116473   7.234   0.699   4.691
38233SOL    HW216474   7.270   0.698   4.838
38234SOL     OW16475   2.680   0.390  13.691
38234SOL    HW116476   2.614   0.458  13.707
38234SOL    HW216477   2.764   0.433  13.710
38235SOL     OW16478   4.254   0.370   7.230
38235SOL    HW116479   4.348   0.355   7.239
38235SOL    HW216480   4.241   0.384   7.137
38236SOL     OW16481  10.986  10.968   9.274
38236SOL    HW116482  10.972  11.037   9.338
38236SOL    HW216483  10.904  10.963   9.225
38237SOL     OW16484  12.867   3.217   7.300
38237SOL    HW116485  12.831   3.232   7.387
38237SOL    HW216486  12.791   3.197   7.246
38238SOL     OW16487   3.152   5.335   1.795
38238SOL    HW116488   3.138   5.427   1.774
38238SOL    HW216489   3.067   5.293   1.782
38239SOL     OW16490   7.514  10.907  14.560
38239SOL    HW116491   7.548  10.911  14.471
38239SOL    HW216492   7.570  10.844  14.606
38240SOL     OW16493   3.294  11.888   6.457
38240SOL    HW116494   3.323  11.798   6.445
38240SOL    HW216495   3.374  11.940   6.450
38241SOL     OW16496  13.930   7.385  12.430
38241SOL    HW116497  14.007   7.431  12.464
38241SOL    HW216498  13.938   7.391  12.335
38242SOL     OW16499   9.578  10.815   7.978
38242SOL    HW116500   9.570  10.724   8.009
38242SOL    HW216501   9.488  10.846   7.969
38243SOL     OW16502   9.321   2.550   3.149
38243SOL    HW116503   9.257   2.570   3.217
38243SOL    HW216504   9.324   2.454   3.146
38244SOL     OW16505   5.842  11.041  10.725
38244SOL    HW116506   5.807  11.130  10.730
38244SOL    HW216507   5.871  11.022  10.814
38245SOL     OW16508   4.909   3.064  14.184
38245SOL    HW116509   4.878   3.003  14.251
38245SOL    HW216510   4.847   3.137  14.188
38246SOL     OW16511  13.421   1.416  13.161
38246SOL    HW116512  13.514   1.402  13.143
38246SOL    HW216513  13.378   1.337  13.128
38247SOL     OW16514   8.353  13.088   9.875
38247SOL    HW116515   8.401  13.142   9.812
38247SOL    HW216516   8.395  13.002   9.869
38248SOL     OW16517   3.298  10.167  10.290
38248SOL    HW116518   3.374  10.196  10.240
38248SOL    HW216519   3.293  10.229  10.364
38249SOL     OW16520   2.861  14.610   7.136
38249SOL    HW116521   2.881  14.517   7.122
38249SOL    HW216522   2.772  14.620   7.103
38250SOL     OW16523  12.329   2.029  14.532
38250SOL    HW116524  12.395   2.062  14.592
38250SOL    HW216525  12.266   1.984  14.589
38251SOL     OW16526   2.465   2.554   3.022
38251SOL    HW116527   2.371   2.576   3.024
38251SOL    HW216528   2.508   2.633   3.056
38252SOL     OW16529   1.361   6.994  14.439
38252SOL    HW116530   1.306   7.071  14.451
38252SOL    HW216531   1.313   6.923  14.481
38253SOL     OW16532  10.025   3.425  12.071
38253SOL    HW116533  10.104   3.478  12.081
38253SOL    HW216534   9.983   3.459  11.991
38254SOL     OW16535   6.584   1.016   7.319
38254SOL    HW116536   6.627   0.931   7.330
38254SOL    HW216537   6.653   1.073   7.285
38255SOL     OW16538   7.537   8.068  13.946
38255SOL    HW116539   7.495   8.050  13.862
38255SOL    HW216540   7.594   8.143  13.928
38256SOL     OW16541   0.245   7.154   8.013
38256SOL    HW116542   0.165   7.194   8.048
38256SOL    HW216543   0.309   7.161   8.084
38257SOL     OW16544   0.261   8.471   0.790
38257SOL    HW116545   0.254   8.544   0.853
38257SOL    HW216546   0.250   8.513   0.705
38258SOL     OW16547   0.666  14.488   8.066
38258SOL    HW116548   0.733  14.448   8.122
38258SOL    HW216549   0.591  14.502   8.124
38259SOL     OW16550   2.715   1.825   2.573
38259SOL    HW116551   2.632   1.798   2.613
38259SOL    HW216552   2.714   1.784   2.486
38260SOL     OW16553  14.137   2.622   4.773
38260SOL    HW116554  14.156   2.713   4.750
38260SOL    HW216555  14.222   2.584   4.795
38261SOL     OW16556  14.180   9.426   1.205
38261SOL    HW116557  14.249   9.360   1.216
38261SOL    HW216558  14.126   9.394   1.133
38262SOL     OW16559  10.844  13.859   3.119
38262SOL    HW116560  10.861  13.776   3.164
38262SOL    HW216561  10.930  13.901   3.112
38263SOL     OW16562  10.356  12.971   5.913
38263SOL    HW116563  10.394  12.900   5.863
38263SOL    HW216564  10.400  12.967   5.998
38264SOL     OW16565  10.322  11.551  13.021
38264SOL    HW116566  10.227  11.541  13.016
38264SOL    HW216567  10.335  11.633  13.068
38265SOL     OW16568   3.908   7.930   7.758
38265SOL    HW116569   3.919   7.935   7.853
38265SOL    HW216570   3.908   8.022   7.729
38266SOL     OW16571  14.031   0.050  11.397
38266SOL    HW116572  14.115   0.084  11.367
38266SOL    HW216573  14.010   0.103  11.474
38267SOL     OW16574   4.478   1.876   6.744
38267SOL    HW116575   4.516   1.796   6.781
38267SOL    HW216576   4.549   1.914   6.691
38268SOL     OW16577   2.723   4.172   9.123
38268SOL    HW116578   2.671   4.095   9.098
38268SOL    HW216579   2.776   4.191   9.046
38269SOL     OW16580   2.394  12.623   9.614
38269SOL    HW116581   2.323  12.648   9.555
38269SOL    HW216582   2.454  12.697   9.613
38270SOL     OW16583   1.659   7.412  12.938
38270SOL    HW116584   1.703   7.437  12.856
38270SOL    HW216585   1.695   7.326  12.959
38271SOL     OW16586   9.021   7.993   7.651
38271SOL    HW116587   8.936   8.026   7.621
38271SOL    HW216588   8.999   7.936   7.725
38272SOL     OW16589   8.195   2.564   6.700
38272SOL    HW116590   8.148   2.645   6.683
38272SOL    HW216591   8.283   2.579   6.665
38273SOL     OW16592   1.928   1.576   1.045
38273SOL    HW116593   1.855   1.617   0.998
38273SOL    HW216594   1.932   1.487   1.010
38274SOL     OW16595   3.754   3.943  10.462
38274SOL    HW116596   3.704   3.901  10.392
38274SOL    HW216597   3.734   3.892  10.540
38275SOL     OW16598   6.004  10.046  10.106
38275SOL    HW116599   6.092  10.036  10.142
38275SOL    HW216600   6.008  10.128  10.057
38276SOL     OW16601   2.590   6.726  11.445
38276SOL    HW116602   2.626   6.691  11.527
38276SOL    HW216603   2.643   6.686  11.376
38277SOL     OW16604   9.265   6.145   2.001
38277SOL    HW116605   9.275   6.199   1.923
38277SOL    HW216606   9.179   6.169   2.036
38278SOL     OW16607  14.177  14.477  10.536
38278SOL    HW116608  14.230  14.403  10.506
38278SOL    HW216609  14.205  14.491  10.627
38279SOL     OW16610   4.314  13.130   3.891
38279SOL    HW116611   4.360  13.078   3.825
38279SOL    HW216612   4.230  13.152   3.850
38280SOL     OW16613   7.660   7.222   4.958
38280SOL    HW116614   7.624   7.304   4.925
38280SOL    HW216615   7.754   7.235   4.959
38281SOL     OW16616   1.914   9.248   2.250
38281SOL    HW116617   1.843   9.302   2.215
38281SOL    HW216618   1.869   9.181   2.302
38282SOL     OW16619  11.585  12.768   4.740
38282SOL    HW116620  11.555  12.805   4.657
38282SOL    HW216621  11.515  12.707   4.766
38283SOL     OW16622   9.258   5.838   0.312
38283SOL    HW116623   9.315   5.761   0.305
38283SOL    HW216624   9.287   5.895   0.240
38284SOL     OW16625   8.388  10.800   9.510
38284SOL    HW116626   8.447  10.873   9.495
38284SOL    HW216627   8.370  10.764   9.423
38285SOL     OW16628   2.115   0.358   7.330
38285SOL    HW116629   2.051   0.291   7.355
38285SOL    HW216630   2.198   0.311   7.322
38286SOL     OW16631  14.792   9.070   2.192
38286SOL    HW116632  14.765   9.006   2.125
38286SOL    HW216633   0.002   9.043   2.217
38287SOL     OW16634   9.499   2.296  12.900
38287SOL    HW116635   9.468   2.246  12.976
38287SOL    HW216636   9.554   2.234  12.852
38288SOL     OW16637   6.376   4.208  13.963
38288SOL    HW116638   6.286   4.178  13.976
38288SOL    HW216639   6.368   4.294  13.922
38289SOL     OW16640   8.275  11.880   8.254
38289SOL    HW116641   8.230  11.964   8.250
38289SOL    HW216642   8.356  11.894   8.205
38290SOL     OW16643   9.798   9.376   4.954
38290SOL    HW116644   9.737   9.418   5.015
38290SOL    HW216645   9.816   9.442   4.888
38291SOL     OW16646   7.297  11.934   1.784
38291SOL    HW116647   7.324  11.842   1.788
38291SOL    HW216648   7.362  11.976   1.729
38292SOL     OW16649   2.303  14.646   5.839
38292SOL    HW116650   2.296  14.591   5.762
38292SOL    HW216651   2.260  14.728   5.814
38293SOL     OW16652  13.869   8.439  12.219
38293SOL    HW116653  13.870   8.520  12.169
38293SOL    HW216654  13.791   8.393  12.190
38294SOL     OW16655   4.180   5.187   0.426
38294SOL    HW116656   4.246   5.167   0.360
38294SOL    HW216657   4.096   5.169   0.384
38295SOL     OW16658   8.424  14.563   7.246
38295SOL    HW116659   8.382  14.629   7.192
38295SOL    HW216660   8.518  14.575   7.230
38296SOL     OW16661  11.471   5.052   2.542
38296SOL    HW116662  11.545   5.073   2.599
38296SOL    HW216663  11.451   5.134   2.497
38297SOL     OW16664  13.503   0.799  10.868
38297SOL    HW116665  13.447   0.731  10.906
38297SOL    HW216666  13.470   0.880  10.906
38298SOL     OW16667  12.204   1.563  13.599
38298SOL    HW116668  12.174   1.629  13.661
38298SOL    HW216669  12.247   1.496  13.653
38299SOL     OW16670   2.765   1.640  11.000
38299SOL    HW116671   2.739   1.600  11.083
38299SOL    HW216672   2.783   1.566  10.943
38300SOL     OW16673   9.764   2.344   4.726
38300SOL    HW116674   9.689   2.306   4.771
38300SOL    HW216675   9.747   2.438   4.726
38301SOL     OW16676   0.733   3.614   6.770
38301SOL    HW116677   0.650   3.647   6.734
38301SOL    HW216678   0.733   3.521   6.748
38302SOL     OW16679  12.977   1.063  10.113
38302SOL    HW116680  13.044   1.000  10.086
38302SOL    HW216681  12.918   1.069  10.037
38303SOL     OW16682   2.042   7.200   8.017
38303SOL    HW116683   2.133   7.216   7.994
38303SOL    HW216684   2.043   7.185   8.112
38304SOL     OW16685   6.417  12.694  11.410
38304SOL    HW116686   6.426  12.785  11.383
38304SOL    HW216687   6.471  12.645  11.349
38305SOL     OW16688  11.943   7.362  11.666
38305SOL    HW116689  11.860   7.409  11.676
38305SOL    HW216690  11.972   7.385  11.577
38306SOL     OW16691   0.386   1.296  13.833
38306SOL    HW116692   0.337   1.377  13.843
38306SOL    HW216693   0.439   1.290  13.913
38307SOL     OW16694   2.594   2.711  14.270
38307SOL    HW116695   2.529   2.675  14.331
38307SOL    HW216696   2.678   2.695  14.311
38308SOL     OW16697  10.121  11.825  13.388
38308SOL    HW116698  10.104  11.752  13.328
38308SOL    HW216699  10.055  11.817  13.456
38309SOL     OW16700   9.633   5.161   5.967
38309SOL    HW116701   9.573   5.177   5.895
38309SOL    HW216702   9.622   5.067   5.987
38310SOL     OW16703   7.876   2.507  12.791
38310SOL    HW116704   7.900   2.555  12.871
38310SOL    HW216705   7.822   2.434  12.823
38311SOL     OW16706  12.321  12.513   2.840
38311SOL    HW116707  12.372  12.446   2.883
38311SOL    HW216708  12.336  12.592   2.892
38312SOL     OW16709  14.183   8.222  12.580
38312SOL    HW116710  14.134   8.296  12.617
38312SOL    HW216711  14.151   8.214  12.490
38313SOL     OW16712   1.240   8.366   3.692
38313SOL    HW116713   1.254   8.440   3.750
38313SOL    HW216714   1.315   8.367   3.633
38314SOL     OW16715  12.924  12.913  13.540
38314SOL    HW116716  12.852  12.973  13.563
38314SOL    HW216717  12.886  12.856  13.473
38315SOL     OW16718   1.109  12.779   3.366
38315SOL    HW116719   1.100  12.829   3.286
38315SOL    HW216720   1.084  12.839   3.436
38316SOL     OW16721   6.273   8.657  14.341
38316SOL    HW116722   6.204   8.601  14.376
38316SOL    HW216723   6.227   8.735  14.311
38317SOL     OW16724   6.893   6.040   9.468
38317SOL    HW116725   6.988   6.035   9.454
38317SOL    HW216726   6.857   5.978   9.405
38318SOL     OW16727  14.655   3.716   5.828
38318SOL    HW116728  14.621   3.768   5.901
38318SOL    HW216729  14.750   3.724   5.837
38319SOL     OW16730  11.941  14.423   9.591
38319SOL    HW116731  11.864  14.384   9.632
38319SOL    HW216732  11.913  14.511   9.566
38320SOL     OW16733   3.929  11.768  11.339
38320SOL    HW116734   3.971  11.683  11.355
38320SOL    HW216735   4.002  11.830  11.331
38321SOL     OW16736   8.762   4.377   9.992
38321SOL    HW116737   8.811   4.433   9.932
38321SOL    HW216738   8.794   4.288   9.973
38322SOL     OW16739   4.767   6.774  12.339
38322SOL    HW116740   4.791   6.863  12.367
38322SOL    HW216741   4.751   6.727  12.421
38323SOL     OW16742   4.819  10.440   2.044
38323SOL    HW116743   4.912  10.421   2.055
38323SOL    HW216744   4.787  10.455   2.133
38324SOL     OW16745   0.750   7.677  11.636
38324SOL    HW116746   0.710   7.627  11.565
38324SOL    HW216747   0.769   7.611  11.703
38325SOL     OW16748  12.510   3.148   6.693
38325SOL    HW116749  12.481   3.077   6.635
38325SOL    HW216750  12.590   3.114   6.734
38326SOL     OW16751   6.791   2.714  12.859
38326SOL    HW116752   6.709   2.730  12.904
38326SOL    HW216753   6.816   2.625  12.886
38327SOL     OW16754   2.399   4.892   2.060
38327SOL    HW116755   2.361   4.946   1.991
38327SOL    HW216756   2.359   4.806   2.047
38328SOL     OW16757  14.611   4.706   3.706
38328SOL    HW116758  14.594   4.787   3.656
38328SOL    HW216759  14.666   4.654   3.647
38329SOL     OW16760  12.111   7.544   8.171
38329SOL    HW116761  12.049   7.473   8.152
38329SOL    HW216762  12.144   7.524   8.259
38330SOL     OW16763  10.787   9.375  14.636
38330SOL    HW116764  10.875   9.350  14.607
38330SOL    HW216765  10.756   9.302  14.688
38331SOL     OW16766   0.806  11.570   8.329
38331SOL    HW116767   0.726  11.617   8.307
38331SOL    HW216768   0.837  11.610   8.410
38332SOL     OW16769   4.099  13.062  14.076
38332SOL    HW116770   4.120  13.156  14.081
38332SOL    HW216771   4.024  13.057  14.016
38333SOL     OW16772  12.048   1.291   3.018
38333SOL    HW116773  12.039   1.200   3.046
38333SOL    HW216774  12.030   1.289   2.924
38334SOL     OW16775   4.184   4.228   5.376
38334SOL    HW116776   4.240   4.150   5.377
38334SOL    HW216777   4.181   4.255   5.285
38335SOL     OW16778   5.581  10.012   5.158
38335SOL    HW116779   5.560   9.953   5.087
38335SOL    HW216780   5.572   9.959   5.238
38336SOL     OW16781   9.508  10.695   3.419
38336SOL    HW116782   9.565  10.754   3.469
38336SOL    HW216783   9.477  10.749   3.346
38337SOL     OW16784   9.245  12.948   9.508
38337SOL    HW116785   9.330  12.978   9.477
38337SOL    HW216786   9.264  12.890   9.581
38338SOL     OW16787  10.460   4.084   9.414
38338SOL    HW116788  10.484   4.077   9.506
38338SOL    HW216789  10.393   4.017   9.400
38339SOL     OW16790  11.591   0.973   4.422
38339SOL    HW116791  11.567   1.024   4.499
38339SOL    HW216792  11.531   0.898   4.423
38340SOL     OW16793   0.497   0.551   8.784
38340SOL    HW116794   0.562   0.549   8.854
38340SOL    HW216795   0.444   0.472   8.798
38341SOL     OW16796   9.302   2.667  12.263
38341SOL    HW116797   9.339   2.679  12.175
38341SOL    HW216798   9.314   2.574  12.281
38342SOL     OW16799  11.508   8.194   4.109
38342SOL    HW116800  11.600   8.193   4.085
38342SOL    HW216801  11.508   8.200   4.205
38343SOL     OW16802   0.107   8.924   1.727
38343SOL    HW116803   0.095   8.900   1.635
38343SOL    HW216804   0.036   8.985   1.747
38344SOL     OW16805  10.774  13.075   5.544
38344SOL    HW116806  10.681  13.093   5.557
38344SOL    HW216807  10.809  13.155   5.506
38345SOL     OW16808   7.579  13.223  11.940
38345SOL    HW116809   7.584  13.298  11.999
38345SOL    HW216810   7.549  13.150  11.996
38346SOL     OW16811   4.501  12.076   3.773
38346SOL    HW116812   4.522  12.144   3.710
38346SOL    HW216813   4.435  12.022   3.729
38347SOL     OW16814   0.489  14.327   1.202
38347SOL    HW116815   0.575  14.366   1.216
38347SOL    HW216816   0.440  14.349   1.282
38348SOL     OW16817  12.239  13.798   7.717
38348SOL    HW116818  12.254  13.792   7.811
38348SOL    HW216819  12.310  13.747   7.678
38349SOL     OW16820   0.470  10.120  12.969
38349SOL    HW116821   0.411  10.119  12.895
38349SOL    HW216822   0.420  10.161  13.040
38350SOL     OW16823   9.554  13.910   7.985
38350SOL    HW116824   9.640  13.928   7.947
38350SOL    HW216825   9.496  13.974   7.944
38351SOL     OW16826  14.427   8.559   9.830
38351SOL    HW116827  14.490   8.602   9.888
38351SOL    HW216828  14.343   8.600   9.851
38352SOL     OW16829   2.068   0.721  13.676
38352SOL    HW116830   2.031   0.768  13.601
38352SOL    HW216831   2.163   0.729  13.664
38353SOL     OW16832   0.707   5.336   6.043
38353SOL    HW116833   0.766   5.359   5.971
38353SOL    HW216834   0.620   5.343   6.005
38354SOL     OW16835   2.837   1.409  11.894
38354SOL    HW116836   2.909   1.448  11.844
38354SOL    HW216837   2.828   1.321  11.858
38355SOL     OW16838   9.164   1.301   1.088
38355SOL    HW116839   9.239   1.326   1.142
38355SOL    HW216840   9.141   1.382   1.041
38356SOL     OW16841   1.079  12.415   1.127
38356SOL    HW116842   0.991  12.434   1.095
38356SOL    HW216843   1.134  12.483   1.089
38357SOL     OW16844   3.363   4.334   6.953
38357SOL    HW116845   3.299   4.266   6.973
38357SOL    HW216846   3.316   4.416   6.967
38358SOL     OW16847  14.751  12.498   1.040
38358SOL    HW116848  14.814  12.446   1.091
38358SOL    HW216849  14.714  12.559   1.103
38359SOL     OW16850  13.675  10.306  14.282
38359SOL    HW116851  13.627  10.328  14.202
38359SOL    HW216852  13.606  10.293  14.348
38360SOL     OW16853  12.455  11.637   8.250
38360SOL    HW116854  12.540  11.677   8.270
38360SOL    HW216855  12.391  11.696   8.288
38361SOL     OW16856   2.208   4.166  11.682
38361SOL    HW116857   2.280   4.226  11.666
38361SOL    HW216858   2.219   4.097  11.616
38362SOL     OW16859  14.753   0.143   3.088
38362SOL    HW116860  14.827   0.095   3.125
38362SOL    HW216861  14.694   0.155   3.161
38363SOL     OW16862   8.353  11.991   8.544
38363SOL    HW116863   8.430  12.045   8.559
38363SOL    HW216864   8.332  12.004   8.452
38364SOL     OW16865   5.786  14.648   9.675
38364SOL    HW116866   5.832  14.671   9.756
38364SOL    HW216867   5.694  14.664   9.694
38365SOL     OW16868   8.372   6.419   8.871
38365SOL    HW116869   8.419   6.497   8.844
38365SOL    HW216870   8.438   6.363   8.912
38366SOL     OW16871   0.367  13.169   5.823
38366SOL    HW116872   0.450  13.189   5.866
38366SOL    HW216873   0.388  13.098   5.762
38367SOL     OW16874   6.348   4.627   5.972
38367SOL    HW116875   6.330   4.553   6.030
38367SOL    HW216876   6.281   4.620   5.904
38368SOL     OW16877   2.045   1.117   6.205
38368SOL    HW116878   2.057   1.054   6.276
38368SOL    HW216879   2.066   1.202   6.245
38369SOL     OW16880   0.669   5.045   3.509
38369SOL    HW116881   0.642   4.998   3.588
38369SOL    HW216882   0.670   5.137   3.536
38370SOL     OW16883  10.811   6.982   5.194
38370SOL    HW116884  10.775   6.948   5.276
38370SOL    HW216885  10.877   6.919   5.168
38371SOL     OW16886  13.066  13.342   5.562
38371SOL    HW116887  13.056  13.435   5.585
38371SOL    HW216888  12.978  13.305   5.573
38372SOL     OW16889  12.561   8.917   3.555
38372SOL    HW116890  12.649   8.895   3.586
38372SOL    HW216891  12.533   8.990   3.611
38373SOL     OW16892  10.396   0.937   7.014
38373SOL    HW116893  10.488   0.939   6.988
38373SOL    HW216894  10.355   1.005   6.960
38374SOL     OW16895   9.157   3.496   9.564
38374SOL    HW116896   9.070   3.533   9.572
38374SOL    HW216897   9.155   3.418   9.620
38375SOL     OW16898   8.834   8.525   7.629
38375SOL    HW116899   8.920   8.535   7.669
38375SOL    HW216900   8.846   8.553   7.538
38376SOL     OW16901  11.782   0.427   6.040
38376SOL    HW116902  11.688   0.432   6.058
38376SOL    HW216903  11.810   0.346   6.083
38377SOL     OW16904   7.890  10.506   7.558
38377SOL    HW116905   7.888  10.475   7.467
38377SOL    HW216906   7.982  10.503   7.582
38378SOL     OW16907   9.049   7.152  12.521
38378SOL    HW116908   9.036   7.059  12.542
38378SOL    HW216909   9.049   7.155  12.425
38379SOL     OW16910  10.681  13.519  11.028
38379SOL    HW116911  10.658  13.428  11.013
38379SOL    HW216912  10.776  13.520  11.031
38380SOL     OW16913  14.830  12.681  12.746
38380SOL    HW116914  14.871  12.604  12.783
38380SOL    HW216915  14.833  12.746  12.817
38381SOL     OW16916  13.314  13.549  14.064
38381SOL    HW116917  13.336  13.468  14.111
38381SOL    HW216918  13.399  13.582  14.034
38382SOL     OW16919   5.588   5.842   6.777
38382SOL    HW116920   5.569   5.749   6.761
38382SOL    HW216921   5.642   5.868   6.703
38383SOL     OW16922   8.835  14.764  12.791
38383SOL    HW116923   8.814  14.835  12.851
38383SOL    HW216924   8.764  14.765  12.726
38384SOL     OW16925   9.919   6.524   4.109
38384SOL    HW116926   9.885   6.472   4.037
38384SOL    HW216927   9.892   6.477   4.188
38385SOL     OW16928   6.786  13.845   3.393
38385SOL    HW116929   6.818  13.934   3.403
38385SOL    HW216930   6.814  13.800   3.472
38386SOL     OW16931   1.297  14.790   8.283
38386SOL    HW116932   1.305  14.757   8.193
38386SOL    HW216933   1.271  14.714   8.334
38387SOL     OW16934   7.373   7.622   8.185
38387SOL    HW116935   7.346   7.535   8.154
38387SOL    HW216936   7.460   7.635   8.147
38388SOL     OW16937   0.928   1.516   5.552
38388SOL    HW116938   0.928   1.569   5.631
38388SOL    HW216939   0.955   1.575   5.482
38389SOL     OW16940  13.696   0.283   7.292
38389SOL    HW116941  13.604   0.271   7.315
38389SOL    HW216942  13.697   0.361   7.236
38390SOL     OW16943   1.009   4.112   2.702
38390SOL    HW116944   0.956   4.081   2.775
38390SOL    HW216945   0.962   4.189   2.669
38391SOL     OW16946  13.984  10.240   6.773
38391SOL    HW116947  13.894  10.213   6.791
38391SOL    HW216948  14.001  10.309   6.837
38392SOL     OW16949   1.326   0.440   5.084
38392SOL    HW116950   1.286   0.467   5.001
38392SOL    HW216951   1.401   0.388   5.059
38393SOL     OW16952   5.588   2.949  11.359
38393SOL    HW116953   5.536   3.011  11.308
38393SOL    HW216954   5.628   3.002  11.428
38394SOL     OW16955   8.134  10.590   5.567
38394SOL    HW116956   8.151  10.682   5.547
38394SOL    HW216957   8.051  10.590   5.613
38395SOL     OW16958   2.915   7.466   4.927
38395SOL    HW116959   3.007   7.453   4.903
38395SOL    HW216960   2.918   7.501   5.016
38396SOL     OW16961   0.345  12.968   7.256
38396SOL    HW116962   0.435  12.983   7.285
38396SOL    HW216963   0.335  12.873   7.256
38397SOL     OW16964   1.178   0.871  11.618
38397SOL    HW116965   1.112   0.836  11.559
38397SOL    HW216966   1.239   0.799  11.631
38398SOL     OW16967   3.707   1.143   8.360
38398SOL    HW116968   3.644   1.166   8.429
38398SOL    HW216969   3.787   1.121   8.408
38399SOL     OW16970  13.351   5.163   1.652
38399SOL    HW116971  13.307   5.248   1.642
38399SOL    HW216972  13.281   5.099   1.637
38400SOL     OW16973   8.305  14.461  13.258
38400SOL    HW116974   8.349  14.457  13.343
38400SOL    HW216975   8.353  14.529  13.210
38401SOL     OW16976   4.930  14.088   2.568
38401SOL    HW116977   4.985  14.123   2.498
38401SOL    HW216978   4.992  14.048   2.630
38402SOL     OW16979  13.988   5.819   9.076
38402SOL    HW116980  13.911   5.867   9.107
38402SOL    HW216981  14.052   5.828   9.146
38403SOL     OW16982  11.996   8.227  13.583
38403SOL    HW116983  11.903   8.209  13.573
38403SOL    HW216984  12.020   8.278  13.505
38404SOL     OW16985   0.300   1.071   5.715
38404SOL    HW116986   0.262   1.005   5.773
38404SOL    HW216987   0.252   1.151   5.735
38405SOL     OW16988  12.304   0.909  13.915
38405SOL    HW116989  12.230   0.951  13.871
38405SOL    HW216990  12.276   0.819  13.929
38406SOL     OW16991  10.014  12.150   0.797
38406SOL    HW116992  10.012  12.213   0.868
38406SOL    HW216993  10.097  12.103   0.808
38407SOL     OW16994   5.167  10.044  13.424
38407SOL    HW116995   5.112  10.050  13.503
38407SOL    HW216996   5.171  10.134  13.391
38408SOL     OW16997   2.283  12.086   0.732
38408SOL    HW116998   2.303  12.003   0.688
38408SOL    HW216999   2.208  12.065   0.788
38409SOL     OW17000   8.926   4.459   8.444
38409SOL    HW117001   9.001   4.506   8.480
38409SOL    HW217002   8.948   4.367   8.456
38410SOL     OW17003   0.560   6.295  13.972
38410SOL    HW117004   0.611   6.284  13.892
38410SOL    HW217005   0.499   6.221  13.971
38411SOL     OW17006   6.488   5.054   1.914
38411SOL    HW117007   6.486   5.144   1.881
38411SOL    HW217008   6.541   5.006   1.851
38412SOL     OW17009  13.634   1.205   2.789
38412SOL    HW117010  13.601   1.166   2.709
38412SOL    HW217011  13.727   1.221   2.771
38413SOL     OW17012  12.825  14.391  11.033
38413SOL    HW117013  12.910  14.382  10.989
38413SOL    HW217014  12.842  14.365  11.123
38414SOL     OW17015   9.966   3.923   1.232
38414SOL    HW117016   9.966   3.835   1.192
38414SOL    HW217017   9.944   3.982   1.160
38415SOL     OW17018   9.292   5.965   4.611
38415SOL    HW117019   9.315   6.030   4.678
38415SOL    HW217020   9.211   5.925   4.643
38416SOL     OW17021   3.156   6.882   1.981
38416SOL    HW117022   3.158   6.787   1.990
38416SOL    HW217023   3.231   6.913   2.033
38417SOL     OW17024  13.497   8.811   9.382
38417SOL    HW117025  13.550   8.859   9.446
38417SOL    HW217026  13.411   8.852   9.386
38418SOL     OW17027   3.712  11.525   3.654
38418SOL    HW117028   3.620  11.533   3.677
38418SOL    HW217029   3.734  11.434   3.674
38419SOL     OW17030   0.659   2.862   2.365
38419SOL    HW117031   0.737   2.914   2.344
38419SOL    HW217032   0.679   2.823   2.451
38420SOL     OW17033   0.891   0.181   8.769
38420SOL    HW117034   0.890   0.267   8.728
38420SOL    HW217035   0.967   0.137   8.731
38421SOL     OW17036   4.260  11.261   6.274
38421SOL    HW117037   4.224  11.181   6.311
38421SOL    HW217038   4.192  11.291   6.213
38422SOL     OW17039  12.561  13.611   4.104
38422SOL    HW117040  12.511  13.679   4.149
38422SOL    HW217041  12.503  13.579   4.035
38423SOL     OW17042   1.700  11.938   2.165
38423SOL    HW117043   1.648  12.003   2.119
38423SOL    HW217044   1.772  11.918   2.105
38424SOL     OW17045   6.280   9.132   1.151
38424SOL    HW117046   6.211   9.182   1.195
38424SOL    HW217047   6.359   9.185   1.161
38425SOL     OW17048  12.571   7.138  13.240
38425SOL    HW117049  12.531   7.164  13.157
38425SOL    HW217050  12.565   7.217  13.295
38426SOL     OW17051   5.332   0.686   4.679
38426SOL    HW117052   5.296   0.603   4.708
38426SOL    HW217053   5.336   0.679   4.584
38427SOL     OW17054  14.145   4.762   0.569
38427SOL    HW117055  14.185   4.786   0.653
38427SOL    HW217056  14.082   4.832   0.552
38428SOL     OW17057  12.790   3.129   6.276
38428SOL    HW117058  12.742   3.158   6.354
38428SOL    HW217059  12.771   3.194   6.210
38429SOL     OW17060   0.709  12.765   7.600
38429SOL    HW117061   0.717  12.670   7.592
38429SOL    HW217062   0.798  12.797   7.587
38430SOL     OW17063   1.047   5.145   2.948
38430SOL    HW117064   0.964   5.100   2.967
38430SOL    HW217065   1.043   5.164   2.855
38431SOL     OW17066   6.549   3.195   9.604
38431SOL    HW117067   6.622   3.244   9.567
38431SOL    HW217068   6.535   3.122   9.543
38432SOL     OW17069  11.482   6.325   9.471
38432SOL    HW117070  11.489   6.378   9.392
38432SOL    HW217071  11.400   6.353   9.511
38433SOL     OW17072   1.829   1.930   5.612
38433SOL    HW117073   1.780   2.001   5.653
38433SOL    HW217074   1.921   1.955   5.622
38434SOL     OW17075  11.662   9.588   2.461
38434SOL    HW117076  11.622   9.503   2.481
38434SOL    HW217077  11.737   9.568   2.406
38435SOL     OW17078   6.037  12.398  10.781
38435SOL    HW117079   6.002  12.487  10.771
38435SOL    HW217080   6.054  12.369  10.691
38436SOL     OW17081   0.505   7.087  13.006
38436SOL    HW117082   0.495   7.087  12.911
38436SOL    HW217083   0.568   7.018  13.024
38437SOL     OW17084   0.272  13.342  10.452
38437SOL    HW117085   0.301  13.260  10.492
38437SOL    HW217086   0.335  13.407  10.483
38438SOL     OW17087   0.518   6.700   8.075
38438SOL    HW117088   0.509   6.795   8.075
38438SOL    HW217089   0.520   6.676   8.168
38439SOL     OW17090  14.648   0.423  12.193
38439SOL    HW117091  14.728   0.476  12.200
38439SOL    HW217092  14.652   0.363  12.268
38440SOL     OW17093   1.832   6.655   4.622
38440SOL    HW117094   1.842   6.713   4.699
38440SOL    HW217095   1.739   6.660   4.601
38441SOL     OW17096   2.371  10.257   8.502
38441SOL    HW117097   2.465  10.241   8.515
38441SOL    HW217098   2.337  10.271   8.590
38442SOL     OW17099   9.072  12.770   4.747
38442SOL    HW117100   8.994  12.774   4.691
38442SOL    HW217101   9.063  12.845   4.806
38443SOL     OW17102   4.685   1.206   3.753
38443SOL    HW117103   4.776   1.223   3.729
38443SOL    HW217104   4.635   1.226   3.674
38444SOL     OW17105   3.913   0.812   8.347
38444SOL    HW117106   3.891   0.870   8.421
38444SOL    HW217107   4.005   0.831   8.328
38445SOL     OW17108  11.137   5.838   2.888
38445SOL    HW117109  11.187   5.864   2.811
38445SOL    HW217110  11.198   5.850   2.961
38446SOL     OW17111  11.122   7.276   6.379
38446SOL    HW117112  11.048   7.293   6.321
38446SOL    HW217113  11.198   7.279   6.322
38447SOL     OW17114   9.982   3.026  12.715
38447SOL    HW117115   9.901   2.999  12.756
38447SOL    HW217116   9.983   2.981  12.630
38448SOL     OW17117  12.244   4.291   9.923
38448SOL    HW117118  12.335   4.270   9.900
38448SOL    HW217119  12.192   4.247   9.856
38449SOL     OW17120   3.605   5.951  13.077
38449SOL    HW117121   3.526   5.995  13.107
38449SOL    HW217122   3.602   5.865  13.119
38450SOL     OW17123   6.926  10.323  14.012
38450SOL    HW117124   6.883  10.260  13.954
38450SOL    HW217125   6.933  10.403  13.960
38451SOL     OW17126   5.541  12.974   1.273
38451SOL    HW117127   5.578  12.989   1.186
38451SOL    HW217128   5.616  12.979   1.332
38452SOL     OW17129   3.004   6.227   4.739
38452SOL    HW117130   2.912   6.230   4.765
38452SOL    HW217131   3.028   6.319   4.725
38453SOL     OW17132   6.902   8.431   8.774
38453SOL    HW117133   6.974   8.494   8.774
38453SOL    HW217134   6.885   8.413   8.866
38454SOL     OW17135   1.573   8.486   6.678
38454SOL    HW117136   1.635   8.513   6.610
38454SOL    HW217137   1.527   8.566   6.702
38455SOL     OW17138   0.135   3.216   2.380
38455SOL    HW117139   0.089   3.298   2.362
38455SOL    HW217140   0.099   3.154   2.317
38456SOL     OW17141   6.826   6.153  14.187
38456SOL    HW117142   6.776   6.223  14.144
38456SOL    HW217143   6.896   6.132  14.125
38457SOL     OW17144  12.398  13.932   7.301
38457SOL    HW117145  12.384  13.954   7.209
38457SOL    HW217146  12.337  13.860   7.318
38458SOL     OW17147   3.181  14.765   4.266
38458SOL    HW117148   3.269  14.756   4.303
38458SOL    HW217149   3.181  14.852   4.226
38459SOL     OW17150   1.345   9.811  14.521
38459SOL    HW117151   1.389   9.895  14.532
38459SOL    HW217152   1.254   9.828  14.545
38460SOL     OW17153   5.950  12.984   0.894
38460SOL    HW117154   5.981  12.897   0.871
38460SOL    HW217155   5.970  12.993   0.987
38461SOL     OW17156   2.538   9.694   0.774
38461SOL    HW117157   2.578   9.772   0.735
38461SOL    HW217158   2.549   9.706   0.868
38462SOL     OW17159  12.511  14.381   1.404
38462SOL    HW117160  12.599  14.362   1.372
38462SOL    HW217161  12.461  14.302   1.386
38463SOL     OW17162   6.443   1.024   1.923
38463SOL    HW117163   6.386   0.970   1.868
38463SOL    HW217164   6.409   1.113   1.912
38464SOL     OW17165   2.313   6.487   1.393
38464SOL    HW117166   2.260   6.525   1.463
38464SOL    HW217167   2.308   6.551   1.322
38465SOL     OW17168   4.907   1.384  11.593
38465SOL    HW117169   4.885   1.473  11.566
38465SOL    HW217170   4.831   1.332  11.566
38466SOL     OW17171  12.578   2.679   6.935
38466SOL    HW117172  12.542   2.765   6.958
38466SOL    HW217173  12.640   2.660   7.004
38467SOL     OW17174  13.162   3.454   9.612
38467SOL    HW117175  13.176   3.548   9.618
38467SOL    HW217176  13.185   3.432   9.522
38468SOL     OW17177   4.608   2.799   3.488
38468SOL    HW117178   4.545   2.739   3.527
38468SOL    HW217179   4.692   2.755   3.499
38469SOL     OW17180   2.870   6.401   6.539
38469SOL    HW117181   2.876   6.320   6.488
38469SOL    HW217182   2.816   6.377   6.614
38470SOL     OW17183  10.888   8.150   5.896
38470SOL    HW117184  10.854   8.061   5.889
38470SOL    HW217185  10.917   8.172   5.807
38471SOL     OW17186   5.564  13.286   8.890
38471SOL    HW117187   5.628  13.284   8.960
38471SOL    HW217188   5.562  13.377   8.861
38472SOL     OW17189   1.328   8.596   3.292
38472SOL    HW117190   1.372   8.680   3.275
38472SOL    HW217191   1.349   8.577   3.383
38473SOL     OW17192   6.293  14.721   0.846
38473SOL    HW117193   6.361  14.767   0.896
38473SOL    HW217194   6.211  14.762   0.874
38474SOL     OW17195   2.790   8.600   1.431
38474SOL    HW117196   2.698   8.573   1.427
38474SOL    HW217197   2.823   8.561   1.512
38475SOL     OW17198  11.468   4.039   1.398
38475SOL    HW117199  11.502   4.047   1.487
38475SOL    HW217200  11.381   4.078   1.402
38476SOL     OW17201   9.581  11.588  11.724
38476SOL    HW117202   9.497  11.545  11.739
38476SOL    HW217203   9.562  11.682  11.736
38477SOL     OW17204   0.611   7.557   2.923
38477SOL    HW117205   0.672   7.485   2.909
38477SOL    HW217206   0.558   7.530   2.998
38478SOL     OW17207   1.460  14.550   8.740
38478SOL    HW117208   1.509  14.502   8.807
38478SOL    HW217209   1.451  14.488   8.668
38479SOL     OW17210  14.158  10.816  10.021
38479SOL    HW117211  14.155  10.755  10.095
38479SOL    HW217212  14.067  10.843  10.008
38480SOL     OW17213   8.340  13.244  13.675
38480SOL    HW117214   8.432  13.269  13.687
38480SOL    HW217215   8.301  13.317  13.629
38481SOL     OW17216  13.261   5.056  11.595
38481SOL    HW117217  13.175   5.040  11.634
38481SOL    HW217218  13.249   5.132  11.539
38482SOL     OW17219   0.322  10.849   9.760
38482SOL    HW117220   0.410  10.831   9.727
38482SOL    HW217221   0.309  10.786   9.831
38483SOL     OW17222   4.919   4.561   7.789
38483SOL    HW117223   4.879   4.544   7.703
38483SOL    HW217224   4.857   4.619   7.833
38484SOL     OW17225   6.809  11.128   2.859
38484SOL    HW117226   6.808  11.063   2.930
38484SOL    HW217227   6.727  11.113   2.812
38485SOL     OW17228   3.072  10.531   7.415
38485SOL    HW117229   3.121  10.609   7.439
38485SOL    HW217230   3.065  10.535   7.320
38486SOL     OW17231   3.212   8.921   5.884
38486SOL    HW117232   3.152   8.872   5.940
38486SOL    HW217233   3.268   8.854   5.845
38487SOL     OW17234   8.889   7.166   1.026
38487SOL    HW117235   8.918   7.257   1.033
38487SOL    HW217236   8.971   7.116   1.018
38488SOL     OW17237   5.539   4.269   2.778
38488SOL    HW117238   5.604   4.251   2.847
38488SOL    HW217239   5.466   4.211   2.799
38489SOL     OW17240  14.532  10.477  13.545
38489SOL    HW117241  14.450  10.466  13.496
38489SOL    HW217242  14.557  10.569  13.530
38490SOL     OW17243   4.667  12.438   6.301
38490SOL    HW117244   4.678  12.525   6.340
38490SOL    HW217245   4.658  12.379   6.376
38491SOL     OW17246   7.197   5.732  11.316
38491SOL    HW117247   7.108   5.706  11.292
38491SOL    HW217248   7.204   5.711  11.410
38492SOL     OW17249   3.390   4.671   8.708
38492SOL    HW117250   3.321   4.730   8.679
38492SOL    HW217251   3.472   4.715   8.683
38493SOL     OW17252  13.514   8.734   5.035
38493SOL    HW117253  13.446   8.693   5.089
38493SOL    HW217254  13.596   8.716   5.081
38494SOL     OW17255   7.658   8.665   5.663
38494SOL    HW117256   7.717   8.681   5.589
38494SOL    HW217257   7.641   8.571   5.660
38495SOL     OW17258  12.849   2.214  14.702
38495SOL    HW117259  12.828   2.301  14.737
38495SOL    HW217260  12.787   2.155  14.745
38496SOL     OW17261   0.318   5.745  11.611
38496SOL    HW117262   0.258   5.710  11.677
38496SOL    HW217263   0.379   5.800  11.661
38497SOL     OW17264  13.676  11.570   6.451
38497SOL    HW117265  13.744  11.629   6.485
38497SOL    HW217266  13.684  11.577   6.356
38498SOL     OW17267   7.947   0.242   5.473
38498SOL    HW117268   7.960   0.154   5.437
38498SOL    HW217269   7.936   0.227   5.567
38499SOL     OW17270   1.161  12.877   9.459
38499SOL    HW117271   1.254  12.858   9.453
38499SOL    HW217272   1.155  12.954   9.515
38500SOL     OW17273   3.682   8.568  14.349
38500SOL    HW117274   3.623   8.506  14.305
38500SOL    HW217275   3.703   8.526  14.432
38501SOL     OW17276   8.424  10.600   5.242
38501SOL    HW117277   8.385  10.516   5.216
38501SOL    HW217278   8.453  10.639   5.159
38502SOL     OW17279   8.141  13.982   7.694
38502SOL    HW117280   8.194  13.934   7.631
38502SOL    HW217281   8.155  14.074   7.673
38503SOL     OW17282   1.836   6.226   8.425
38503SOL    HW117283   1.752   6.213   8.468
38503SOL    HW217284   1.818   6.287   8.354
38504SOL     OW17285   6.036   7.569   9.192
38504SOL    HW117286   5.990   7.615   9.122
38504SOL    HW217287   6.074   7.638   9.246
38505SOL     OW17288   3.595   6.162  13.274
38505SOL    HW117289   3.647   6.192  13.199
38505SOL    HW217290   3.611   6.228  13.342
38506SOL     OW17291   2.623  12.645   2.139
38506SOL    HW117292   2.594  12.577   2.200
38506SOL    HW217293   2.622  12.725   2.191
38507SOL     OW17294   2.284   9.711   3.416
38507SOL    HW117295   2.243   9.765   3.483
38507SOL    HW217296   2.217   9.647   3.392
38508SOL     OW17297  12.391   5.069   5.238
38508SOL    HW117298  12.355   5.015   5.167
38508SOL    HW217299  12.375   5.159   5.210
38509SOL     OW17300   5.637  12.627   4.571
38509SOL    HW117301   5.576  12.686   4.615
38509SOL    HW217302   5.693  12.593   4.641
38510SOL     OW17303   9.889   2.543   2.030
38510SOL    HW117304   9.960   2.479   2.039
38510SOL    HW217305   9.842   2.517   1.951
38511SOL     OW17306  13.230   4.385  12.688
38511SOL    HW117307  13.174   4.443  12.636
38511SOL    HW217308  13.255   4.438  12.764
38512SOL     OW17309   2.143   9.115   5.590
38512SOL    HW117310   2.204   9.096   5.519
38512SOL    HW217311   2.068   9.058   5.573
38513SOL     OW17312   0.830   2.819   8.130
38513SOL    HW117313   0.925   2.821   8.143
38513SOL    HW217314   0.808   2.908   8.104
38514SOL     OW17315  13.035   9.774   0.666
38514SOL    HW117316  13.010   9.827   0.591
38514SOL    HW217317  13.087   9.703   0.629
38515SOL     OW17318   1.151  12.429   4.960
38515SOL    HW117319   1.217  12.457   5.023
38515SOL    HW217320   1.185  12.458   4.875
38516SOL     OW17321  12.701   0.156   1.599
38516SOL    HW117322  12.681   0.062   1.591
38516SOL    HW217323  12.693   0.190   1.510
38517SOL     OW17324   2.618   5.625   8.138
38517SOL    HW117325   2.689   5.651   8.197
38517SOL    HW217326   2.538   5.643   8.188
38518SOL     OW17327  14.471   4.084   5.269
38518SOL    HW117328  14.527   4.074   5.192
38518SOL    HW217329  14.383   4.094   5.233
38519SOL     OW17330  11.913  11.794   3.665
38519SOL    HW117331  11.979  11.817   3.600
38519SOL    HW217332  11.869  11.876   3.685
38520SOL     OW17333  12.315  12.747  10.066
38520SOL    HW117334  12.253  12.675  10.058
38520SOL    HW217335  12.303  12.779  10.156
38521SOL     OW17336   5.595   7.773   4.818
38521SOL    HW117337   5.638   7.842   4.769
38521SOL    HW217338   5.597   7.802   4.909
38522SOL     OW17339  10.907   6.591  10.114
38522SOL    HW117340  10.823   6.547  10.129
38522SOL    HW217341  10.886   6.664  10.057
38523SOL     OW17342   9.597   1.677   3.568
38523SOL    HW117343   9.652   1.718   3.635
38523SOL    HW217344   9.642   1.596   3.546
38524SOL     OW17345   5.634   2.434   3.941
38524SOL    HW117346   5.658   2.501   3.877
38524SOL    HW217347   5.613   2.357   3.888
38525SOL     OW17348   2.629   7.853   6.847
38525SOL    HW117349   2.613   7.780   6.907
38525SOL    HW217350   2.542   7.883   6.823
38526SOL     OW17351   2.451   4.074   4.185
38526SOL    HW117352   2.455   4.009   4.255
38526SOL    HW217353   2.398   4.145   4.222
38527SOL     OW17354  12.635   9.203   7.008
38527SOL    HW117355  12.611   9.164   7.092
38527SOL    HW217356  12.697   9.273   7.030
38528SOL     OW17357   8.860  11.778  10.907
38528SOL    HW117358   8.877  11.867  10.877
38528SOL    HW217359   8.936  11.756  10.961
38529SOL     OW17360   1.089   7.962   3.992
38529SOL    HW117361   1.020   8.028   3.991
38529SOL    HW217362   1.149   7.987   3.922
38530SOL     OW17363   6.391   0.932  14.110
38530SOL    HW117364   6.355   0.984  14.183
38530SOL    HW217365   6.432   0.857  14.153
38531SOL     OW17366   1.025   0.636  14.326
38531SOL    HW117367   1.086   0.671  14.391
38531SOL    HW217368   0.962   0.706  14.311
38532SOL     OW17369   8.527   3.897  10.832
38532SOL    HW117370   8.439   3.858  10.838
38532SOL    HW217371   8.540   3.940  10.916
38533SOL     OW17372   4.180   7.669  11.971
38533SOL    HW117373   4.137   7.652  12.055
38533SOL    HW217374   4.268   7.697  11.994
38534SOL     OW17375   0.431  10.355   1.595
38534SOL    HW117376   0.499  10.421   1.607
38534SOL    HW217377   0.459  10.282   1.649
38535SOL     OW17378   3.340   1.602   1.498
38535SOL    HW117379   3.382   1.669   1.444
38535SOL    HW217380   3.282   1.556   1.437
38536SOL     OW17381  12.182   2.682   0.044
38536SOL    HW117382  12.199   2.673  14.828
38536SOL    HW217383  12.241   2.620   0.085
38537SOL     OW17384   1.015  12.555   0.056
38537SOL    HW117385   0.967  12.474   0.039
38537SOL    HW217386   1.005  12.569   0.150
38538SOL     OW17387   9.784  13.087  13.928
38538SOL    HW117388   9.747  13.078  14.016
38538SOL    HW217389   9.876  13.064  13.938
38539SOL     OW17390   1.791   7.199   6.647
38539SOL    HW117391   1.779   7.211   6.553
38539SOL    HW217392   1.833   7.280   6.676
38540SOL     OW17393  14.400   8.277   8.554
38540SOL    HW117394  14.358   8.274   8.640
38540SOL    HW217395  14.333   8.313   8.496
38541SOL     OW17396   8.907   7.710   7.685
38541SOL    HW117397   8.815   7.730   7.704
38541SOL    HW217398   8.951   7.716   7.770
38542SOL     OW17399   8.506   4.986   7.121
38542SOL    HW117400   8.417   4.951   7.124
38542SOL    HW217401   8.535   4.987   7.212
38543SOL     OW17402   4.207  11.343   7.411
38543SOL    HW117403   4.270  11.290   7.460
38543SOL    HW217404   4.201  11.299   7.326
38544SOL     OW17405   7.527   2.643  13.302
38544SOL    HW117406   7.483   2.590  13.369
38544SOL    HW217407   7.588   2.583  13.260
38545SOL     OW17408  13.440  13.504   7.255
38545SOL    HW117409  13.406  13.457   7.332
38545SOL    HW217410  13.497  13.571   7.293
38546SOL     OW17411  12.281   2.902   2.207
38546SOL    HW117412  12.306   2.905   2.115
38546SOL    HW217413  12.341   2.839   2.246
38547SOL     OW17414   4.543  11.650   8.694
38547SOL    HW117415   4.497  11.716   8.641
38547SOL    HW217416   4.621  11.629   8.643
38548SOL     OW17417   0.332   1.791  14.831
38548SOL    HW117418   0.419   1.817  14.800
38548SOL    HW217419   0.281   1.872  14.828
38549SOL     OW17420   9.821   2.936  10.429
38549SOL    HW117421   9.798   3.003  10.365
38549SOL    HW217422   9.917   2.943  10.437
38550SOL     OW17423   2.904   7.095   6.470
38550SOL    HW117424   2.855   7.166   6.511
38550SOL    HW217425   2.846   7.062   6.401
38551SOL     OW17426   7.923   1.079   4.165
38551SOL    HW117427   7.939   1.011   4.229
38551SOL    HW217428   7.864   1.039   4.100
38552SOL     OW17429   2.144   3.128  11.661
38552SOL    HW117430   2.137   3.109  11.755
38552SOL    HW217431   2.075   3.192  11.644
38553SOL     OW17432   7.104   3.547   0.947
38553SOL    HW117433   7.169   3.568   1.015
38553SOL    HW217434   7.152   3.554   0.865
38554SOL     OW17435  14.175  10.639   5.716
38554SOL    HW117436  14.183  10.720   5.667
38554SOL    HW217437  14.262  10.600   5.713
38555SOL     OW17438  14.224   4.197   7.879
38555SOL    HW117439  14.159   4.149   7.828
38555SOL    HW217440  14.208   4.169   7.969
38556SOL     OW17441   2.982   8.836   0.506
38556SOL    HW117442   2.956   8.884   0.428
38556SOL    HW217443   2.919   8.765   0.513
38557SOL     OW17444  10.926   2.532  10.560
38557SOL    HW117445  10.847   2.478  10.564
38557SOL    HW217446  10.990   2.479  10.513
38558SOL     OW17447   1.090   7.459   5.598
38558SOL    HW117448   1.128   7.545   5.615
38558SOL    HW217449   1.161   7.408   5.559
38559SOL     OW17450   1.214   0.251   8.479
38559SOL    HW117451   1.207   0.320   8.414
38559SOL    HW217452   1.132   0.254   8.527
38560SOL     OW17453  11.744   5.428  11.372
38560SOL    HW117454  11.831   5.393  11.351
38560SOL    HW217455  11.749   5.520  11.349
38561SOL     OW17456   9.287   2.418   4.031
38561SOL    HW117457   9.254   2.415   4.121
38561SOL    HW217458   9.228   2.360   3.983
38562SOL     OW17459   0.869   9.305   2.367
38562SOL    HW117460   0.779   9.279   2.349
38562SOL    HW217461   0.871   9.399   2.352
38563SOL     OW17462  12.098   1.981  11.631
38563SOL    HW117463  12.100   2.065  11.584
38563SOL    HW217464  12.189   1.952  11.633
38564SOL     OW17465   9.769   9.619   0.564
38564SOL    HW117466   9.811   9.699   0.595
38564SOL    HW217467   9.676   9.641   0.556
38565SOL     OW17468  13.560   9.197  13.803
38565SOL    HW117469  13.542   9.201  13.709
38565SOL    HW217470  13.580   9.105  13.820
38566SOL     OW17471  13.768  11.982   8.614
38566SOL    HW117472  13.787  12.054   8.675
38566SOL    HW217473  13.854  11.948   8.591
38567SOL     OW17474  10.976   5.392   8.329
38567SOL    HW117475  10.954   5.480   8.359
38567SOL    HW217476  10.906   5.369   8.267
38568SOL     OW17477   2.289   6.904   8.682
38568SOL    HW117478   2.212   6.932   8.632
38568SOL    HW217479   2.325   6.984   8.719
38569SOL     OW17480  12.242   1.047   1.938
38569SOL    HW117481  12.180   0.983   1.971
38569SOL    HW217482  12.269   1.096   2.016
38570SOL     OW17483   8.432  12.929   5.768
38570SOL    HW117484   8.483  12.987   5.825
38570SOL    HW217485   8.498  12.880   5.718
38571SOL     OW17486   5.132  11.331   2.753
38571SOL    HW117487   5.051  11.290   2.723
38571SOL    HW217488   5.198  11.303   2.688
38572SOL     OW17489   9.430   1.084  13.867
38572SOL    HW117490   9.493   1.103  13.936
38572SOL    HW217491   9.463   1.131  13.790
38573SOL     OW17492   9.279   7.285  11.080
38573SOL    HW117493   9.290   7.190  11.069
38573SOL    HW217494   9.333   7.306  11.156
38574SOL     OW17495   9.886   8.269   1.188
38574SOL    HW117496   9.869   8.363   1.196
38574SOL    HW217497   9.808   8.227   1.224
38575SOL     OW17498   3.902  13.010   8.077
38575SOL    HW117499   3.850  13.090   8.079
38575SOL    HW217500   3.970  13.028   8.012
38576SOL     OW17501   5.504   6.854   7.340
38576SOL    HW117502   5.548   6.901   7.270
38576SOL    HW217503   5.569   6.791   7.372
38577SOL     OW17504   2.864  10.861  14.075
38577SOL    HW117505   2.874  10.902  14.161
38577SOL    HW217506   2.908  10.777  14.082
38578SOL     OW17507   9.184   7.668   9.936
38578SOL    HW117508   9.209   7.694  10.025
38578SOL    HW217509   9.258   7.695   9.882
38579SOL     OW17510   8.833  14.573  11.101
38579SOL    HW117511   8.804  14.500  11.155
38579SOL    HW217512   8.759  14.634  11.102
38580SOL     OW17513   8.209   1.982  10.190
38580SOL    HW117514   8.265   1.927  10.135
38580SOL    HW217515   8.121   1.972  10.153
38581SOL     OW17516   8.151   4.861   2.779
38581SOL    HW117517   8.181   4.915   2.852
38581SOL    HW217518   8.160   4.771   2.810
38582SOL     OW17519   1.919   3.529   9.651
38582SOL    HW117520   1.891   3.506   9.740
38582SOL    HW217521   1.838   3.530   9.600
38583SOL     OW17522   8.291   6.125   2.857
38583SOL    HW117523   8.226   6.174   2.806
38583SOL    HW217524   8.375   6.152   2.819
38584SOL     OW17525  11.353   9.152   9.128
38584SOL    HW117526  11.288   9.190   9.188
38584SOL    HW217527  11.303   9.128   9.051
38585SOL     OW17528  13.903   5.359  13.741
38585SOL    HW117529  13.831   5.402  13.695
38585SOL    HW217530  13.883   5.266  13.734
38586SOL     OW17531   7.189  11.004   4.505
38586SOL    HW117532   7.219  10.958   4.583
38586SOL    HW217533   7.261  10.993   4.442
38587SOL     OW17534   4.166   4.027  10.454
38587SOL    HW117535   4.077   4.045  10.484
38587SOL    HW217536   4.181   4.091  10.385
38588SOL     OW17537   2.278  11.268   5.472
38588SOL    HW117538   2.373  11.251   5.475
38588SOL    HW217539   2.271  11.363   5.475
38589SOL     OW17540   8.584   5.942  11.604
38589SOL    HW117541   8.528   5.939  11.682
38589SOL    HW217542   8.662   5.894  11.628
38590SOL     OW17543   4.931   2.797  10.994
38590SOL    HW117544   4.922   2.891  11.010
38590SOL    HW217545   4.973   2.763  11.073
38591SOL     OW17546  10.334  13.026   5.175
38591SOL    HW117547  10.429  13.033   5.165
38591SOL    HW217548  10.298  13.056   5.092
38592SOL     OW17549  11.902   2.200   3.933
38592SOL    HW117550  11.933   2.289   3.921
38592SOL    HW217551  11.812   2.209   3.965
38593SOL     OW17552   1.019   0.511   1.380
38593SOL    HW117553   0.941   0.520   1.325
38593SOL    HW217554   0.992   0.449   1.449
38594SOL     OW17555   4.804   4.903  11.424
38594SOL    HW117556   4.806   4.968  11.493
38594SOL    HW217557   4.891   4.862  11.427
38595SOL     OW17558  10.516   6.170  14.506
38595SOL    HW117559  10.447   6.125  14.458
38595SOL    HW217560  10.588   6.108  14.510
38596SOL     OW17561  12.757   5.364   9.903
38596SOL    HW117562  12.749   5.384   9.809
38596SOL    HW217563  12.791   5.444   9.942
38597SOL     OW17564   0.223  14.453  12.045
38597SOL    HW117565   0.175  14.481  12.123
38597SOL    HW217566   0.275  14.377  12.075
38598SOL     OW17567   6.655  12.575   6.305
38598SOL    HW117568   6.741  12.535   6.321
38598SOL    HW217569   6.612  12.514   6.245
38599SOL     OW17570  13.614   2.028  10.848
38599SOL    HW117571  13.570   2.076  10.918
38599SOL    HW217572  13.544   1.975  10.808
38600SOL     OW17573  12.519  12.874   0.673
38600SOL    HW117574  12.495  12.955   0.628
38600SOL    HW217575  12.471  12.877   0.756
38601SOL     OW17576  13.297   1.284   7.716
38601SOL    HW117577  13.262   1.210   7.766
38601SOL    HW217578  13.392   1.279   7.730
38602SOL     OW17579  12.727   7.553   3.358
38602SOL    HW117580  12.664   7.482   3.350
38602SOL    HW217581  12.674   7.628   3.387
38603SOL     OW17582   5.031   6.707  12.211
38603SOL    HW117583   4.973   6.714  12.287
38603SOL    HW217584   5.018   6.618  12.179
38604SOL     OW17585   9.870  10.372   3.828
38604SOL    HW117586   9.934  10.429   3.871
38604SOL    HW217587   9.786  10.413   3.847
38605SOL     OW17588  13.113   7.481   2.712
38605SOL    HW117589  13.030   7.505   2.753
38605SOL    HW217590  13.120   7.539   2.636
38606SOL     OW17591  11.039   7.526   6.642
38606SOL    HW117592  11.126   7.491   6.664
38606SOL    HW217593  11.031   7.511   6.548
38607SOL     OW17594  13.951  12.384  11.816
38607SOL    HW117595  13.969  12.369  11.909
38607SOL    HW217596  13.997  12.314  11.771
38608SOL     OW17597  11.935   5.901   7.772
38608SOL    HW117598  11.952   5.959   7.847
38608SOL    HW217599  11.877   5.833   7.807
38609SOL     OW17600   3.420  13.001  12.551
38609SOL    HW117601   3.335  13.034  12.520
38609SOL    HW217602   3.455  13.073  12.604
38610SOL     OW17603   4.773   8.662   7.322
38610SOL    HW117604   4.860   8.696   7.299
38610SOL    HW217605   4.712   8.716   7.272
38611SOL     OW17606   3.357   9.155   7.491
38611SOL    HW117607   3.342   9.166   7.585
38611SOL    HW217608   3.422   9.221   7.469
38612SOL     OW17609  11.337   9.360   3.031
38612SOL    HW117610  11.284   9.423   2.983
38612SOL    HW217611  11.424   9.400   3.035
38613SOL     OW17612   6.470  10.648  10.425
38613SOL    HW117613   6.520  10.723  10.393
38613SOL    HW217614   6.455  10.595  10.346
38614SOL     OW17615  13.790  10.368   0.777
38614SOL    HW117616  13.798  10.396   0.868
38614SOL    HW217617  13.766  10.448   0.730
38615SOL     OW17618   8.606   4.012   9.037
38615SOL    HW117619   8.638   4.087   9.087
38615SOL    HW217620   8.517   3.998   9.068
38616SOL     OW17621   8.051   8.014   3.766
38616SOL    HW117622   8.009   8.020   3.853
38616SOL    HW217623   8.039   7.922   3.741
38617SOL     OW17624   0.660   3.740  13.807
38617SOL    HW117625   0.754   3.735  13.789
38617SOL    HW217626   0.625   3.795  13.737
38618SOL     OW17627   1.086  12.054  14.126
38618SOL    HW117628   1.150  11.984  14.114
38618SOL    HW217629   1.033  12.025  14.201
38619SOL     OW17630  12.473  10.141  11.993
38619SOL    HW117631  12.421  10.061  11.990
38619SOL    HW217632  12.505  10.152  11.903
38620SOL     OW17633  14.288   3.457  10.896
38620SOL    HW117634  14.260   3.498  10.978
38620SOL    HW217635  14.269   3.364  10.908
38621SOL     OW17636   1.973  13.104  10.444
38621SOL    HW117637   1.915  13.169  10.485
38621SOL    HW217638   1.954  13.109  10.351
38622SOL     OW17639   4.867   8.420  14.419
38622SOL    HW117640   4.849   8.430  14.325
38622SOL    HW217641   4.959   8.443  14.428
38623SOL     OW17642   5.632   1.842   1.361
38623SOL    HW117643   5.677   1.870   1.440
38623SOL    HW217644   5.569   1.776   1.390
38624SOL     OW17645   1.196  10.225   6.649
38624SOL    HW117646   1.216  10.214   6.742
38624SOL    HW217647   1.155  10.311   6.643
38625SOL     OW17648   0.320  14.612   0.073
38625SOL    HW117649   0.395  14.670   0.090
38625SOL    HW217650   0.338  14.576  14.864
38626SOL     OW17651   9.724  14.604  10.325
38626SOL    HW117652   9.641  14.573  10.289
38626SOL    HW217653   9.715  14.699  10.326
38627SOL     OW17654   7.984  14.851  12.469
38627SOL    HW117655   8.071   0.011  12.477
38627SOL    HW217656   7.998  14.758  12.455
38628SOL     OW17657  14.474   2.046   6.954
38628SOL    HW117658  14.475   2.141   6.946
38628SOL    HW217659  14.531   2.027   7.028
38629SOL     OW17660   7.589   6.970   0.312
38629SOL    HW117661   7.590   6.930   0.226
38629SOL    HW217662   7.681   6.978   0.337
38630SOL     OW17663   7.903  11.071   0.182
38630SOL    HW117664   7.911  11.118   0.099
38630SOL    HW217665   7.934  11.132   0.248
38631SOL     OW17666   7.353   6.834   6.311
38631SOL    HW117667   7.264   6.862   6.331
38631SOL    HW217668   7.403   6.858   6.389
38632SOL     OW17669  12.753   1.057  13.054
38632SOL    HW117670  12.694   1.023  13.121
38632SOL    HW217671  12.697   1.107  12.995
38633SOL     OW17672  11.143   9.292  11.582
38633SOL    HW117673  11.222   9.338  11.608
38633SOL    HW217674  11.079   9.361  11.564
38634SOL     OW17675   8.185   4.667   0.999
38634SOL    HW117676   8.110   4.661   0.940
38634SOL    HW217677   8.158   4.730   1.066
38635SOL     OW17678  10.119   8.401   6.955
38635SOL    HW117679  10.190   8.459   6.983
38635SOL    HW217680  10.161   8.315   6.944
38636SOL     OW17681  11.932  10.884  14.243
38636SOL    HW117682  11.876  10.961  14.229
38636SOL    HW217683  12.020  10.920  14.252
38637SOL     OW17684   9.456  13.907  14.322
38637SOL    HW117685   9.480  13.955  14.243
38637SOL    HW217686   9.475  13.815  14.301
38638SOL     OW17687  10.288   5.194  11.327
38638SOL    HW117688  10.220   5.231  11.384
38638SOL    HW217689  10.283   5.099  11.342
38639SOL     OW17690   7.095   5.503   3.865
38639SOL    HW117691   7.105   5.494   3.771
38639SOL    HW217692   7.124   5.420   3.901
38640SOL     OW17693   7.997   8.771   8.223
38640SOL    HW117694   8.000   8.692   8.169
38640SOL    HW217695   7.942   8.747   8.298
38641SOL     OW17696   4.468   3.682  11.485
38641SOL    HW117697   4.555   3.677  11.444
38641SOL    HW217698   4.461   3.773  11.514
38642SOL     OW17699   6.139   3.543   9.302
38642SOL    HW117700   6.081   3.535   9.226
38642SOL    HW217701   6.199   3.614   9.279
38643SOL     OW17702  12.953  12.251   9.052
38643SOL    HW117703  13.036  12.278   9.090
38643SOL    HW217704  12.963  12.266   8.958
38644SOL     OW17705   1.518   7.664   7.756
38644SOL    HW117706   1.459   7.737   7.775
38644SOL    HW217707   1.465   7.586   7.772
38645SOL     OW17708   4.298   4.928  13.365
38645SOL    HW117709   4.215   4.976  13.362
38645SOL    HW217710   4.356   4.976  13.305
38646SOL     OW17711  12.761  12.298   1.955
38646SOL    HW117712  12.822  12.367   1.982
38646SOL    HW217713  12.675  12.329   1.984
38647SOL     OW17714   5.026   2.610  12.235
38647SOL    HW117715   4.968   2.608  12.159
38647SOL    HW217716   4.993   2.540  12.292
38648SOL     OW17717   2.607   9.285   3.299
38648SOL    HW117718   2.596   9.281   3.204
38648SOL    HW217719   2.519   9.298   3.333
38649SOL     OW17720   5.067   1.911   4.174
38649SOL    HW117721   5.046   1.992   4.128
38649SOL    HW217722   5.001   1.903   4.242
38650SOL     OW17723   6.541  13.825   0.404
38650SOL    HW117724   6.609  13.891   0.413
38650SOL    HW217725   6.459  13.874   0.407
38651SOL     OW17726  10.879   0.656   7.362
38651SOL    HW117727  10.862   0.750   7.366
38651SOL    HW217728  10.973   0.648   7.373
38652SOL     OW17729   1.699   9.213  11.719
38652SOL    HW117730   1.632   9.268  11.678
38652SOL    HW217731   1.755   9.275  11.766
38653SOL     OW17732   2.588  11.033   4.012
38653SOL    HW117733   2.593  11.064   3.922
38653SOL    HW217734   2.677  11.005   4.033
38654SOL     OW17735   8.069   0.468  11.701
38654SOL    HW117736   8.154   0.505  11.722
38654SOL    HW217737   8.087   0.375  11.685
38655SOL     OW17738  10.415   8.487   4.394
38655SOL    HW117739  10.420   8.543   4.472
38655SOL    HW217740  10.488   8.426   4.404
38656SOL     OW17741   7.631  12.178  14.592
38656SOL    HW117742   7.591  12.160  14.507
38656SOL    HW217743   7.565  12.153  14.656
38657SOL     OW17744   3.118  14.548  12.472
38657SOL    HW117745   3.133  14.536  12.378
38657SOL    HW217746   3.175  14.622  12.495
38658SOL     OW17747   2.429  11.415  13.278
38658SOL    HW117748   2.351  11.442  13.231
38658SOL    HW217749   2.402  11.335  13.325
38659SOL     OW17750  11.192  14.826   7.644
38659SOL    HW117751  11.238  14.864   7.718
38659SOL    HW217752  11.129   0.016   7.617
38660SOL     OW17753   5.577  12.326  14.595
38660SOL    HW117754   5.587  12.242  14.551
38660SOL    HW217755   5.493  12.320  14.640
38661SOL     OW17756  13.889  14.581   1.361
38661SOL    HW117757  13.895  14.622   1.275
38661SOL    HW217758  13.805  14.609   1.396
38662SOL     OW17759   0.360  12.758   0.357
38662SOL    HW117760   0.328  12.840   0.395
38662SOL    HW217761   0.291  12.731   0.297
38663SOL     OW17762   0.640  13.737   9.239
38663SOL    HW117763   0.619  13.815   9.292
38663SOL    HW217764   0.696  13.770   9.169
38664SOL     OW17765   2.500   2.220   5.870
38664SOL    HW117766   2.476   2.298   5.820
38664SOL    HW217767   2.454   2.231   5.954
38665SOL     OW17768   3.355   3.755   6.357
38665SOL    HW117769   3.435   3.726   6.314
38665SOL    HW217770   3.285   3.715   6.305
38666SOL     OW17771  12.044  10.313  13.361
38666SOL    HW117772  12.040  10.408  13.375
38666SOL    HW217773  12.138  10.293  13.370
38667SOL     OW17774  11.587   9.468  10.460
38667SOL    HW117775  11.544   9.441  10.379
38667SOL    HW217776  11.594   9.563  10.454
38668SOL     OW17777  14.704   9.682   0.807
38668SOL    HW117778  14.756   9.609   0.841
38668SOL    HW217779  14.725   9.684   0.713
38669SOL     OW17780   1.192  11.297   2.977
38669SOL    HW117781   1.137  11.300   3.056
38669SOL    HW217782   1.129  11.294   2.905
38670SOL     OW17783   0.725  10.244   2.298
38670SOL    HW117784   0.809  10.284   2.277
38670SOL    HW217785   0.704  10.190   2.222
38671SOL     OW17786  14.777   6.603   3.249
38671SOL    HW117787  14.853   6.660   3.262
38671SOL    HW217788  14.734   6.638   3.171
38672SOL     OW17789   5.808   5.054  12.731
38672SOL    HW117790   5.768   5.021  12.812
38672SOL    HW217791   5.901   5.036  12.741
38673SOL     OW17792   1.175   7.609  10.837
38673SOL    HW117793   1.219   7.546  10.779
38673SOL    HW217794   1.243   7.675  10.855
38674SOL     OW17795   3.789   2.370   0.279
38674SOL    HW117796   3.851   2.400   0.212
38674SOL    HW217797   3.703   2.386   0.240
38675SOL     OW17798   3.682  14.553  11.810
38675SOL    HW117799   3.730  14.495  11.751
38675SOL    HW217800   3.603  14.504  11.833
38676SOL     OW17801   4.631  10.835   4.781
38676SOL    HW117802   4.709  10.798   4.823
38676SOL    HW217803   4.657  10.853   4.691
38677SOL     OW17804   9.362   1.476  14.068
38677SOL    HW117805   9.343   1.515  14.153
38677SOL    HW217806   9.410   1.544  14.020
38678SOL     OW17807   9.138   0.851  14.075
38678SOL    HW117808   9.135   0.763  14.038
38678SOL    HW217809   9.231   0.871  14.082
38679SOL     OW17810   2.375   5.827   4.835
38679SOL    HW117811   2.351   5.901   4.892
38679SOL    HW217812   2.372   5.751   4.893
38680SOL     OW17813   3.317   4.312   4.332
38680SOL    HW117814   3.284   4.294   4.244
38680SOL    HW217815   3.273   4.393   4.358
38681SOL     OW17816   6.180   0.112   9.081
38681SOL    HW117817   6.096   0.099   9.126
38681SOL    HW217818   6.217   0.024   9.074
38682SOL     OW17819  11.986  13.532   5.911
38682SOL    HW117820  11.927  13.462   5.940
38682SOL    HW217821  11.947  13.564   5.830
38683SOL     OW17822   5.185   3.533   3.869
38683SOL    HW117823   5.223   3.538   3.956
38683SOL    HW217824   5.094   3.563   3.880
38684SOL     OW17825  12.691  10.268  10.350
38684SOL    HW117826  12.787  10.266  10.346
38684SOL    HW217827  12.667  10.183  10.387
38685SOL     OW17828  11.072   8.864   8.203
38685SOL    HW117829  11.006   8.813   8.157
38685SOL    HW217830  11.025   8.903   8.277
38686SOL     OW17831  14.203  10.242   2.209
38686SOL    HW117832  14.155  10.160   2.195
38686SOL    HW217833  14.238  10.233   2.298
38687SOL     OW17834   3.255   4.732   7.542
38687SOL    HW117835   3.225   4.818   7.572
38687SOL    HW217836   3.319   4.705   7.608
38688SOL     OW17837  10.991   5.421   1.912
38688SOL    HW117838  11.068   5.392   1.962
38688SOL    HW217839  10.920   5.422   1.976
38689SOL     OW17840   4.623   6.036   9.940
38689SOL    HW117841   4.666   6.026   9.855
38689SOL    HW217842   4.564   6.111   9.928
38690SOL     OW17843  13.622   3.803   5.864
38690SOL    HW117844  13.711   3.770   5.852
38690SOL    HW217845  13.572   3.726   5.890
38691SOL     OW17846  11.458   9.281  14.091
38691SOL    HW117847  11.502   9.305  14.172
38691SOL    HW217848  11.417   9.196  14.109
38692SOL     OW17849  14.769   7.898  10.568
38692SOL    HW117850  14.693   7.856  10.528
38692SOL    HW217851  14.836   7.895  10.500
38693SOL     OW17852   0.004   6.608  10.140
38693SOL    HW117853   0.003   6.571  10.228
38693SOL    HW217854  14.792   6.641  10.127
38694SOL     OW17855   7.914  12.970   9.485
38694SOL    HW117856   7.969  12.892   9.475
38694SOL    HW217857   7.972  13.036   9.522
38695SOL     OW17858   2.597   3.956  11.566
38695SOL    HW117859   2.572   3.951  11.474
38695SOL    HW217860   2.542   3.890  11.610
38696SOL     OW17861  11.192  11.924   9.480
38696SOL    HW117862  11.237  11.979   9.415
38696SOL    HW217863  11.111  11.897   9.437
38697SOL     OW17864   8.577   3.123   5.742
38697SOL    HW117865   8.488   3.145   5.772
38697SOL    HW217866   8.613   3.206   5.710
38698SOL     OW17867   2.623  10.629   7.852
38698SOL    HW117868   2.664  10.675   7.778
38698SOL    HW217869   2.529  10.636   7.834
38699SOL     OW17870  14.691   2.350   0.088
38699SOL    HW117871  14.600   2.368   0.110
38699SOL    HW217872  14.688   2.309   0.002
38700SOL     OW17873  12.480  11.314   4.645
38700SOL    HW117874  12.505  11.222   4.640
38700SOL    HW217875  12.556  11.362   4.614
38701SOL     OW17876  10.475   4.627   0.651
38701SOL    HW117877  10.421   4.706   0.647
38701SOL    HW217878  10.551   4.647   0.596
38702SOL     OW17879   7.434  14.388  13.498
38702SOL    HW117880   7.517  14.428  13.525
38702SOL    HW217881   7.403  14.343  13.577
38703SOL     OW17882  13.092   2.092   8.294
38703SOL    HW117883  13.180   2.129   8.297
38703SOL    HW217884  13.045   2.135   8.365
38704SOL     OW17885   6.550   7.105  11.328
38704SOL    HW117886   6.581   7.023  11.369
38704SOL    HW217887   6.464   7.083  11.292
38705SOL     OW17888   2.817   3.549   0.857
38705SOL    HW117889   2.835   3.594   0.940
38705SOL    HW217890   2.871   3.596   0.794
38706SOL     OW17891   9.412   0.375  14.210
38706SOL    HW117892   9.414   0.330  14.295
38706SOL    HW217893   9.364   0.316  14.153
38707SOL     OW17894   2.042   0.882   8.312
38707SOL    HW117895   2.034   0.925   8.226
38707SOL    HW217896   2.136   0.865   8.321
38708SOL     OW17897   3.802   8.982   6.927
38708SOL    HW117898   3.824   8.896   6.963
38708SOL    HW217899   3.709   8.993   6.947
38709SOL     OW17900   1.474   9.481  12.844
38709SOL    HW117901   1.470   9.511  12.934
38709SOL    HW217902   1.385   9.490  12.811
38710SOL     OW17903   7.335   3.876   2.556
38710SOL    HW117904   7.367   3.908   2.640
38710SOL    HW217905   7.245   3.908   2.551
38711SOL     OW17906   2.283   6.474  10.758
38711SOL    HW117907   2.369   6.441  10.783
38711SOL    HW217908   2.238   6.398  10.722
38712SOL     OW17909   0.628   2.302   3.145
38712SOL    HW117910   0.687   2.234   3.112
38712SOL    HW217911   0.626   2.288   3.239
38713SOL     OW17912  10.733   6.415   4.586
38713SOL    HW117913  10.708   6.479   4.652
38713SOL    HW217914  10.658   6.408   4.528
38714SOL     OW17915   4.327   9.832   8.051
38714SOL    HW117916   4.381   9.776   7.994
38714SOL    HW217917   4.329   9.788   8.136
38715SOL     OW17918  12.045   4.977   7.692
38715SOL    HW117919  12.028   4.920   7.616
38715SOL    HW217920  12.020   5.064   7.663
38716SOL     OW17921  11.427   7.502  10.861
38716SOL    HW117922  11.516   7.484  10.832
38716SOL    HW217923  11.372   7.485  10.785
38717SOL     OW17924  12.862   4.362   8.736
38717SOL    HW117925  12.838   4.303   8.665
38717SOL    HW217926  12.821   4.445   8.713
38718SOL     OW17927   5.852   9.304   4.298
38718SOL    HW117928   5.938   9.266   4.283
38718SOL    HW217929   5.869   9.397   4.311
38719SOL     OW17930   0.528   4.426   5.399
38719SOL    HW117931   0.615   4.400   5.371
38719SOL    HW217932   0.519   4.516   5.369
38720SOL     OW17933   2.421  11.243   8.708
38720SOL    HW117934   2.397  11.202   8.625
38720SOL    HW217935   2.465  11.173   8.758
38721SOL     OW17936   6.174   2.998   9.404
38721SOL    HW117937   6.132   2.955   9.478
38721SOL    HW217938   6.178   3.091   9.428
38722SOL     OW17939  10.002   0.944   8.321
38722SOL    HW117940  10.074   0.994   8.359
38722SOL    HW217941  10.010   0.857   8.359
38723SOL     OW17942   3.938   4.428   7.545
38723SOL    HW117943   3.955   4.429   7.451
38723SOL    HW217944   3.868   4.492   7.558
38724SOL     OW17945   8.233   6.491   0.403
38724SOL    HW117946   8.171   6.419   0.411
38724SOL    HW217947   8.177   6.569   0.395
38725SOL     OW17948   1.062   3.130   6.066
38725SOL    HW117949   1.134   3.094   6.119
38725SOL    HW217950   1.019   3.192   6.125
38726SOL     OW17951  12.766  14.411  12.924
38726SOL    HW117952  12.751  14.350  12.997
38726SOL    HW217953  12.862  14.419  12.919
38727SOL     OW17954  13.337  11.806   0.279
38727SOL    HW117955  13.354  11.855   0.198
38727SOL    HW217956  13.290  11.868   0.335
38728SOL     OW17957   4.715   1.052  14.313
38728SOL    HW117958   4.792   1.104  14.335
38728SOL    HW217959   4.748   0.963  14.302
38729SOL     OW17960  14.443   2.591  14.193
38729SOL    HW117961  14.520   2.538  14.213
38729SOL    HW217962  14.478   2.668  14.148
38730SOL     OW17963  11.027  13.519  13.582
38730SOL    HW117964  10.933  13.520  13.596
38730SOL    HW217965  11.040  13.462  13.506
38731SOL     OW17966   9.038   3.601  13.647
38731SOL    HW117967   8.955   3.623  13.691
38731SOL    HW217968   9.013   3.539  13.579
38732SOL     OW17969  14.699   6.005   3.512
38732SOL    HW117970  14.783   5.970   3.483
38732SOL    HW217971  14.701   5.996   3.607
38733SOL     OW17972   4.392   3.189  11.245
38733SOL    HW117973   4.320   3.238  11.286
38733SOL    HW217974   4.362   3.172  11.156
38734SOL     OW17975   9.043  10.617   9.224
38734SOL    HW117976   8.987  10.549   9.187
38734SOL    HW217977   9.076  10.665   9.148
38735SOL     OW17978   7.157  10.574   7.875
38735SOL    HW117979   7.234  10.612   7.832
38735SOL    HW217980   7.097  10.553   7.804
38736SOL     OW17981   6.077  12.773   6.938
38736SOL    HW117982   6.135  12.749   6.866
38736SOL    HW217983   6.119  12.850   6.977
38737SOL     OW17984   3.252   1.683   5.333
38737SOL    HW117985   3.236   1.769   5.372
38737SOL    HW217986   3.181   1.628   5.365
38738SOL     OW17987   9.155   3.360  10.366
38738SOL    HW117988   9.106   3.319  10.437
38738SOL    HW217989   9.095   3.359  10.291
38739SOL     OW17990   2.289   8.592  12.851
38739SOL    HW117991   2.239   8.512  12.868
38739SOL    HW217992   2.231   8.663  12.878
38740SOL     OW17993  14.072   0.568  13.901
38740SOL    HW117994  14.088   0.495  13.843
38740SOL    HW217995  14.156   0.613  13.909
38741SOL     OW17996   2.448   6.623   0.234
38741SOL    HW117997   2.460   6.711   0.272
38741SOL    HW217998   2.366   6.592   0.272
38742SOL     OW17999   6.363  11.852   5.157
38742SOL    HW118000   6.427  11.919   5.182
38742SOL    HW218001   6.327  11.884   5.074
38743SOL     OW18002   8.719   5.049   4.146
38743SOL    HW118003   8.805   5.021   4.177
38743SOL    HW218004   8.738   5.119   4.083
38744SOL     OW18005   6.235   8.137  10.447
38744SOL    HW118006   6.176   8.068  10.478
38744SOL    HW218007   6.235   8.201  10.518
38745SOL     OW18008   4.115   8.033  11.521
38745SOL    HW118009   4.044   8.095  11.536
38745SOL    HW218010   4.152   8.017  11.608
38746SOL     OW18011   9.379   8.700   1.772
38746SOL    HW118012   9.467   8.671   1.794
38746SOL    HW218013   9.375   8.791   1.802
38747SOL     OW18014   4.467  11.087   7.934
38747SOL    HW118015   4.410  11.089   8.012
38747SOL    HW218016   4.450  11.171   7.891
38748SOL     OW18017   6.429   1.133  10.963
38748SOL    HW118018   6.359   1.195  10.942
38748SOL    HW218019   6.498   1.151  10.899
38749SOL     OW18020   1.405  14.401   9.990
38749SOL    HW118021   1.444  14.466  10.049
38749SOL    HW218022   1.479  14.345   9.966
38750SOL     OW18023   4.002  12.876  14.270
38750SOL    HW118024   4.020  12.789  14.234
38750SOL    HW218025   4.009  12.935  14.195
38751SOL     OW18026  14.433   0.240  12.831
38751SOL    HW118027  14.368   0.199  12.773
38751SOL    HW218028  14.447   0.176  12.901
38752SOL     OW18029   5.243   0.821  11.182
38752SOL    HW118030   5.334   0.829  11.153
38752SOL    HW218031   5.195   0.797  11.102
38753SOL     OW18032  14.316   8.448   0.689
38753SOL    HW118033  14.382   8.429   0.623
38753SOL    HW218034  14.237   8.405   0.657
38754SOL     OW18035  12.816   2.308   3.800
38754SOL    HW118036  12.859   2.291   3.884
38754SOL    HW218037  12.726   2.331   3.823
38755SOL     OW18038  11.546  14.507   4.874
38755SOL    HW118039  11.549  14.423   4.920
38755SOL    HW218040  11.561  14.485   4.782
38756SOL     OW18041   2.488   4.653   1.819
38756SOL    HW118042   2.416   4.644   1.882
38756SOL    HW218043   2.560   4.603   1.858
38757SOL     OW18044   4.937   0.566   1.893
38757SOL    HW118045   4.922   0.479   1.857
38757SOL    HW218046   5.022   0.593   1.858
38758SOL     OW18047   3.074  13.250  11.639
38758SOL    HW118048   3.006  13.270  11.575
38758SOL    HW218049   3.076  13.154  11.644
38759SOL     OW18050   3.982   6.096   5.577
38759SOL    HW118051   3.938   6.094   5.492
38759SOL    HW218052   3.983   6.189   5.601
38760SOL     OW18053   0.064  10.025   9.578
38760SOL    HW118054   0.015  10.027   9.660
38760SOL    HW218055   0.065   9.933   9.553
38761SOL     OW18056   6.361  13.047   4.958
38761SOL    HW118057   6.346  13.140   4.939
38761SOL    HW218058   6.282  13.004   4.928
38762SOL     OW18059   9.986   0.479   8.884
38762SOL    HW118060  10.027   0.412   8.828
38762SOL    HW218061  10.042   0.556   8.875
38763SOL     OW18062   7.906   3.989   2.404
38763SOL    HW118063   7.833   4.038   2.366
38763SOL    HW218064   7.984   4.029   2.366
38764SOL     OW18065   8.441   5.556  11.740
38764SOL    HW118066   8.531   5.540  11.769
38764SOL    HW218067   8.407   5.469  11.719
38765SOL     OW18068  10.603   3.606   2.006
38765SOL    HW118069  10.605   3.615   2.101
38765SOL    HW218070  10.546   3.676   1.977
38766SOL     OW18071   7.987   6.178  11.509
38766SOL    HW118072   8.020   6.212  11.426
38766SOL    HW218073   7.938   6.099  11.485
38767SOL     OW18074  13.384   6.962  10.223
38767SOL    HW118075  13.458   7.006  10.266
38767SOL    HW218076  13.424   6.898  10.165
38768SOL     OW18077  10.969   8.567  12.902
38768SOL    HW118078  11.064   8.577  12.888
38768SOL    HW218079  10.957   8.581  12.996
38769SOL     OW18080   9.136   9.293   1.523
38769SOL    HW118081   9.111   9.312   1.433
38769SOL    HW218082   9.168   9.203   1.520
38770SOL     OW18083   5.360  11.660   0.252
38770SOL    HW118084   5.330  11.598   0.318
38770SOL    HW218085   5.432  11.615   0.208
38771SOL     OW18086   8.728   7.189  11.882
38771SOL    HW118087   8.800   7.249  11.865
38771SOL    HW218088   8.666   7.203  11.811
38772SOL     OW18089  14.165   6.688   1.865
38772SOL    HW118090  14.179   6.748   1.938
38772SOL    HW218091  14.071   6.671   1.864
38773SOL     OW18092   3.936   8.073   2.502
38773SOL    HW118093   3.886   8.048   2.424
38773SOL    HW218094   3.881   8.138   2.546
38774SOL     OW18095   8.397  12.558   0.300
38774SOL    HW118096   8.383  12.605   0.218
38774SOL    HW218097   8.420  12.469   0.273
38775SOL     OW18098   8.134   0.758   8.174
38775SOL    HW118099   8.170   0.833   8.220
38775SOL    HW218100   8.043   0.782   8.155
38776SOL     OW18101  11.178   6.707   5.915
38776SOL    HW118102  11.196   6.681   5.825
38776SOL    HW218103  11.083   6.713   5.920
38777SOL     OW18104   4.992   2.713   8.117
38777SOL    HW118105   4.969   2.805   8.123
38777SOL    HW218106   5.008   2.685   8.207
38778SOL     OW18107   9.966   0.970   2.005
38778SOL    HW118108   9.960   0.993   2.098
38778SOL    HW218109   9.956   0.874   2.004
38779SOL     OW18110   3.465   4.469   4.874
38779SOL    HW118111   3.556   4.496   4.859
38779SOL    HW218112   3.424   4.473   4.788
38780SOL     OW18113   4.996   2.579   2.051
38780SOL    HW118114   4.987   2.638   2.126
38780SOL    HW218115   4.909   2.540   2.041
38781SOL     OW18116  13.573   9.224   3.388
38781SOL    HW118117  13.480   9.210   3.373
38781SOL    HW218118  13.589   9.186   3.475
38782SOL     OW18119  13.820   5.501   7.215
38782SOL    HW118120  13.884   5.570   7.195
38782SOL    HW218121  13.746   5.521   7.157
38783SOL     OW18122   1.126   9.347   9.964
38783SOL    HW118123   1.124   9.416   9.898
38783SOL    HW218124   1.192   9.375  10.027
38784SOL     OW18125   7.787   1.208   5.216
38784SOL    HW118126   7.775   1.137   5.152
38784SOL    HW218127   7.881   1.226   5.213
38785SOL     OW18128   1.436  11.951  10.198
38785SOL    HW118129   1.355  11.965  10.247
38785SOL    HW218130   1.502  11.935  10.266
38786SOL     OW18131   4.185   7.010   9.540
38786SOL    HW118132   4.125   7.083   9.531
38786SOL    HW218133   4.219   6.996   9.451
38787SOL     OW18134   9.635  14.458  12.091
38787SOL    HW118135   9.664  14.428  12.005
38787SOL    HW218136   9.701  14.424  12.151
38788SOL     OW18137   0.624   2.244   6.568
38788SOL    HW118138   0.689   2.228   6.636
38788SOL    HW218139   0.665   2.214   6.487
38789SOL     OW18140   3.413  14.859  13.281
38789SOL    HW118141   3.353   0.051  13.308
38789SOL    HW218142   3.436   0.004  13.190
38790SOL     OW18143  14.691  13.806  10.369
38790SOL    HW118144  14.699  13.811  10.465
38790SOL    HW218145  14.678  13.713  10.351
38791SOL     OW18146   2.677   1.089   2.536
38791SOL    HW118147   2.712   1.066   2.622
38791SOL    HW218148   2.642   1.177   2.547
38792SOL     OW18149   7.589   6.983   7.453
38792SOL    HW118150   7.567   6.890   7.447
38792SOL    HW218151   7.679   6.985   7.485
38793SOL     OW18152  10.349   3.316  14.534
38793SOL    HW118153  10.305   3.332  14.617
38793SOL    HW218154  10.441   3.305  14.557
38794SOL     OW18155  10.236  11.793   0.676
38794SOL    HW118156  10.289  11.854   0.727
38794SOL    HW218157  10.191  11.740   0.742
38795SOL     OW18158   7.469  10.873   5.523
38795SOL    HW118159   7.482  10.870   5.618
38795SOL    HW218160   7.405  10.804   5.505
38796SOL     OW18161   2.839  11.683  12.677
38796SOL    HW118162   2.902  11.755  12.685
38796SOL    HW218163   2.793  11.683  12.761
38797SOL     OW18164   1.608   4.225  13.217
38797SOL    HW118165   1.577   4.135  13.207
38797SOL    HW218166   1.622   4.235  13.311
38798SOL     OW18167  13.696   3.279   5.652
38798SOL    HW118168  13.789   3.278   5.677
38798SOL    HW218169  13.697   3.272   5.557
38799SOL     OW18170   4.887  10.125  14.152
38799SOL    HW118171   4.811  10.113  14.209
38799SOL    HW218172   4.913  10.216  14.165
38800SOL     OW18173   6.392   4.218  13.505
38800SOL    HW118174   6.335   4.195  13.432
38800SOL    HW218175   6.356   4.169  13.579
38801SOL     OW18176   5.683   4.066   8.705
38801SOL    HW118177   5.605   4.019   8.733
38801SOL    HW218178   5.684   4.146   8.758
38802SOL     OW18179   0.123   6.118  14.422
38802SOL    HW118180   0.118   6.028  14.454
38802SOL    HW218181   0.031   6.143  14.409
38803SOL     OW18182   1.315   7.873   8.710
38803SOL    HW118183   1.270   7.951   8.679
38803SOL    HW218184   1.308   7.811   8.638
38804SOL     OW18185   7.664  13.926   5.756
38804SOL    HW118186   7.616  13.935   5.838
38804SOL    HW218187   7.597  13.932   5.688
38805SOL     OW18188   4.819   8.082   6.534
38805SOL    HW118189   4.725   8.094   6.544
38805SOL    HW218190   4.839   8.003   6.584
38806SOL     OW18191   8.729   9.286   1.400
38806SOL    HW118192   8.707   9.194   1.418
38806SOL    HW218193   8.811   9.281   1.351
38807SOL     OW18194   3.144   3.120   7.447
38807SOL    HW118195   3.095   3.083   7.374
38807SOL    HW218196   3.162   3.045   7.504
38808SOL     OW18197  11.726   1.948  13.077
38808SOL    HW118198  11.663   2.004  13.031
38808SOL    HW218199  11.673   1.877  13.114
38809SOL     OW18200   4.927  13.735  11.547
38809SOL    HW118201   4.885  13.687  11.476
38809SOL    HW218202   4.859  13.744  11.613
38810SOL     OW18203  11.336   5.938   3.070
38810SOL    HW118204  11.402   6.003   3.045
38810SOL    HW218205  11.374   5.854   3.044
38811SOL     OW18206  13.424   6.221   9.994
38811SOL    HW118207  13.329   6.238   9.994
38811SOL    HW218208  13.435   6.148   9.933
38812SOL     OW18209   2.999  14.403   5.986
38812SOL    HW118210   3.038  14.381   6.071
38812SOL    HW218211   3.069  14.391   5.923
38813SOL     OW18212   7.733   1.583  11.185
38813SOL    HW118213   7.711   1.541  11.269
38813SOL    HW218214   7.670   1.655  11.177
38814SOL     OW18215   2.538   9.932   1.893
38814SOL    HW118216   2.458   9.984   1.885
38814SOL    HW218217   2.604   9.982   1.847
38815SOL     OW18218  12.366   8.245  10.494
38815SOL    HW118219  12.339   8.202  10.412
38815SOL    HW218220  12.295   8.306  10.514
38816SOL     OW18221  11.503  14.422   1.193
38816SOL    HW118222  11.463  14.442   1.278
38816SOL    HW218223  11.595  14.447   1.203
38817SOL     OW18224   4.634   4.878   6.725
38817SOL    HW118225   4.563   4.889   6.788
38817SOL    HW218226   4.691   4.953   6.740
38818SOL     OW18227   2.828   8.613   4.602
38818SOL    HW118228   2.811   8.529   4.646
38818SOL    HW218229   2.781   8.606   4.519
38819SOL     OW18230  11.361   0.623   2.480
38819SOL    HW118231  11.415   0.574   2.543
38819SOL    HW218232  11.271   0.595   2.499
38820SOL     OW18233   0.068   7.513  12.595
38820SOL    HW118234   0.010   7.554  12.531
38820SOL    HW218235   0.141   7.575  12.604
38821SOL     OW18236   3.826   4.974   5.711
38821SOL    HW118237   3.738   5.004   5.733
38821SOL    HW218238   3.884   5.045   5.739
38822SOL     OW18239   3.787   9.083   1.945
38822SOL    HW118240   3.702   9.113   1.978
38822SOL    HW218241   3.767   9.037   1.864
38823SOL     OW18242   7.526   7.907   5.544
38823SOL    HW118243   7.607   7.885   5.498
38823SOL    HW218244   7.458   7.858   5.498
38824SOL     OW18245  10.645  13.472   8.917
38824SOL    HW118246  10.615  13.506   8.832
38824SOL    HW218247  10.668  13.550   8.967
38825SOL     OW18248   7.327   5.458   7.391
38825SOL    HW118249   7.300   5.528   7.332
38825SOL    HW218250   7.418   5.439   7.367
38826SOL     OW18251   5.391   3.953  13.888
38826SOL    HW118252   5.459   3.905  13.936
38826SOL    HW218253   5.439   4.010  13.828
38827SOL     OW18254  13.849  12.024   3.633
38827SOL    HW118255  13.877  12.069   3.553
38827SOL    HW218256  13.914  12.050   3.698
38828SOL     OW18257   2.757   0.799   5.150
38828SOL    HW118258   2.680   0.742   5.150
38828SOL    HW218259   2.825   0.747   5.193
38829SOL     OW18260   3.099  14.682   2.848
38829SOL    HW118261   3.067  14.626   2.919
38829SOL    HW218262   3.055  14.766   2.862
38830SOL     OW18263   8.611   9.313   0.448
38830SOL    HW118264   8.618   9.286   0.540
38830SOL    HW218265   8.517   9.316   0.432
38831SOL     OW18266   0.859   0.791   7.406
38831SOL    HW118267   0.819   0.711   7.442
38831SOL    HW218268   0.926   0.759   7.345
38832SOL     OW18269  10.887   3.666   7.957
38832SOL    HW118270  10.846   3.726   8.019
38832SOL    HW218271  10.820   3.651   7.890
38833SOL     OW18272  13.062   4.684   5.599
38833SOL    HW118273  13.022   4.768   5.577
38833SOL    HW218274  13.126   4.706   5.667
38834SOL     OW18275   3.112   5.683   2.349
38834SOL    HW118276   3.078   5.595   2.333
38834SOL    HW218277   3.144   5.712   2.263
38835SOL     OW18278   8.687  12.484  14.606
38835SOL    HW118279   8.694  12.412  14.669
38835SOL    HW218280   8.629  12.449  14.538
38836SOL     OW18281   8.567   5.355   6.958
38836SOL    HW118282   8.494   5.391   6.908
38836SOL    HW218283   8.645   5.387   6.913
38837SOL     OW18284   7.179  10.654   3.439
38837SOL    HW118285   7.115  10.593   3.403
38837SOL    HW218286   7.207  10.707   3.365
38838SOL     OW18287   3.112   6.706   0.824
38838SOL    HW118288   3.095   6.793   0.787
38838SOL    HW218289   3.072   6.709   0.910
38839SOL     OW18290   8.883  10.703  14.821
38839SOL    HW118291   8.914  10.615  14.843
38839SOL    HW218292   8.962  10.752  14.798
38840SOL     OW18293  10.301   6.048   4.550
38840SOL    HW118294  10.354   6.078   4.624
38840SOL    HW218295  10.216   6.028   4.589
38841SOL     OW18296   9.054   5.360   2.640
38841SOL    HW118297   9.090   5.446   2.664
38841SOL    HW218298   9.032   5.320   2.724
38842SOL     OW18299   2.140  10.218  10.912
38842SOL    HW118300   2.169  10.251  10.996
38842SOL    HW218301   2.135  10.295  10.856
38843SOL     OW18302  13.507  12.203   8.791
38843SOL    HW118303  13.580  12.166   8.841
38843SOL    HW218304  13.465  12.263   8.852
38844SOL     OW18305   2.194   8.708   2.085
38844SOL    HW118306   2.247   8.728   2.162
38844SOL    HW218307   2.122   8.772   2.088
38845SOL     OW18308   4.248  14.669   8.906
38845SOL    HW118309   4.224  14.621   8.826
38845SOL    HW218310   4.249  14.761   8.878
38846SOL     OW18311  10.287  13.616  12.478
38846SOL    HW118312  10.294  13.578  12.391
38846SOL    HW218313  10.294  13.710  12.464
38847SOL     OW18314   8.096   1.512   8.700
38847SOL    HW118315   8.108   1.418   8.712
38847SOL    HW218316   8.003   1.522   8.679
38848SOL     OW18317   7.418   8.408  13.835
38848SOL    HW118318   7.332   8.450  13.846
38848SOL    HW218319   7.462   8.422  13.919
38849SOL     OW18320   9.845   3.565  12.356
38849SOL    HW118321   9.929   3.610  12.346
38849SOL    HW218322   9.780   3.634  12.356
38850SOL     OW18323   9.631   4.979   1.615
38850SOL    HW118324   9.547   4.948   1.646
38850SOL    HW218325   9.694   4.947   1.679
38851SOL     OW18326  11.686   8.713   7.232
38851SOL    HW118327  11.776   8.744   7.237
38851SOL    HW218328  11.638   8.784   7.190
38852SOL     OW18329   1.668  13.389   8.115
38852SOL    HW118330   1.663  13.366   8.022
38852SOL    HW218331   1.645  13.308   8.161
38853SOL     OW18332  14.535   9.953   4.155
38853SOL    HW118333  14.614   9.970   4.206
38853SOL    HW218334  14.475  10.025   4.179
38854SOL     OW18335   7.542   3.461   9.606
38854SOL    HW118336   7.557   3.417   9.690
38854SOL    HW218337   7.448   3.454   9.591
38855SOL     OW18338   2.047   4.358   8.802
38855SOL    HW118339   2.135   4.367   8.764
38855SOL    HW218340   2.063   4.331   8.892
38856SOL     OW18341   9.042   2.573   1.708
38856SOL    HW118342   8.981   2.620   1.765
38856SOL    HW218343   9.072   2.499   1.762
38857SOL     OW18344   2.432   2.283  12.051
38857SOL    HW118345   2.409   2.374  12.034
38857SOL    HW218346   2.524   2.286  12.078
38858SOL     OW18347  14.754  10.389   2.171
38858SOL    HW118348  14.680  10.449   2.180
38858SOL    HW218349  14.818  10.421   2.234
38859SOL     OW18350  10.060  11.738   4.591
38859SOL    HW118351  10.031  11.803   4.656
38859SOL    HW218352  10.000  11.752   4.517
38860SOL     OW18353   8.712   3.854  11.230
38860SOL    HW118354   8.624   3.843  11.264
38860SOL    HW218355   8.702   3.911  11.154
38861SOL     OW18356   4.407   6.045  13.463
38861SOL    HW118357   4.477   6.101  13.497
38861SOL    HW218358   4.390   6.078  13.375
38862SOL     OW18359   1.857   7.600  10.977
38862SOL    HW118360   1.912   7.547  11.034
38862SOL    HW218361   1.823   7.669  11.033
38863SOL     OW18362   6.219   2.906  13.717
38863SOL    HW118363   6.217   2.948  13.803
38863SOL    HW218364   6.127   2.890  13.696
38864SOL     OW18365   2.158  10.465   3.815
38864SOL    HW118366   2.244  10.471   3.857
38864SOL    HW218367   2.104  10.529   3.862
38865SOL     OW18368   4.774   8.972   3.814
38865SOL    HW118369   4.821   8.966   3.897
38865SOL    HW218370   4.836   9.013   3.754
38866SOL     OW18371   4.570   6.760  11.049
38866SOL    HW118372   4.655   6.770  11.008
38866SOL    HW218373   4.579   6.682  11.105
38867SOL     OW18374   1.271   5.338   7.301
38867SOL    HW118375   1.258   5.431   7.317
38867SOL    HW218376   1.310   5.305   7.383
38868SOL     OW18377   2.406   8.237   8.504
38868SOL    HW118378   2.429   8.236   8.597
38868SOL    HW218379   2.312   8.256   8.503
38869SOL     OW18380   2.025   1.330   3.794
38869SOL    HW118381   2.118   1.315   3.784
38869SOL    HW218382   2.012   1.421   3.767
38870SOL     OW18383   0.753   4.745   2.616
38870SOL    HW118384   0.807   4.775   2.542
38870SOL    HW218385   0.817   4.726   2.685
38871SOL     OW18386   8.823   5.935   4.157
38871SOL    HW118387   8.835   5.985   4.238
38871SOL    HW218388   8.734   5.901   4.163
38872SOL     OW18389   5.355   4.124   2.963
38872SOL    HW118390   5.377   4.100   3.053
38872SOL    HW218391   5.270   4.083   2.948
38873SOL     OW18392   4.257   8.610   6.074
38873SOL    HW118393   4.303   8.568   6.001
38873SOL    HW218394   4.310   8.589   6.151
38874SOL     OW18395   9.837  12.681   3.766
38874SOL    HW118396   9.868  12.660   3.678
38874SOL    HW218397   9.744  12.660   3.765
38875SOL     OW18398   4.368   8.615   7.013
38875SOL    HW118399   4.314   8.624   7.092
38875SOL    HW218400   4.304   8.615   6.941
38876SOL     OW18401   6.580   5.969   7.743
38876SOL    HW118402   6.553   5.909   7.674
38876SOL    HW218403   6.676   5.968   7.740
38877SOL     OW18404   8.786   4.859  10.692
38877SOL    HW118405   8.703   4.827  10.657
38877SOL    HW218406   8.853   4.820  10.635
38878SOL     OW18407   1.605   4.529   6.206
38878SOL    HW118408   1.660   4.543   6.283
38878SOL    HW218409   1.560   4.446   6.223
38879SOL     OW18410   2.781   0.632  10.646
38879SOL    HW118411   2.785   0.727  10.639
38879SOL    HW218412   2.803   0.601  10.558
38880SOL     OW18413  13.586   2.215   3.785
38880SOL    HW118414  13.670   2.231   3.743
38880SOL    HW218415  13.521   2.249   3.723
38881SOL     OW18416   2.135   5.845  14.282
38881SOL    HW118417   2.182   5.805  14.356
38881SOL    HW218418   2.061   5.786  14.267
38882SOL     OW18419   8.450   7.302   6.826
38882SOL    HW118420   8.527   7.334   6.779
38882SOL    HW218421   8.477   7.219   6.863
38883SOL     OW18422   9.024  13.464  12.642
38883SOL    HW118423   9.047  13.555  12.662
38883SOL    HW218424   8.950  13.445  12.700
38884SOL     OW18425   6.424   2.540   3.489
38884SOL    HW118426   6.496   2.537   3.426
38884SOL    HW218427   6.467   2.555   3.573
38885SOL     OW18428  14.767   4.121   0.041
38885SOL    HW118429  14.719   4.176   0.103
38885SOL    HW218430  14.701   4.095  14.854
38886SOL     OW18431  14.164   7.775   8.887
38886SOL    HW118432  14.122   7.780   8.801
38886SOL    HW218433  14.221   7.852   8.891
38887SOL     OW18434   7.521  10.550  14.765
38887SOL    HW118435   7.440  10.562  14.715
38887SOL    HW218436   7.583  10.513  14.702
38888SOL     OW18437   3.099   7.791   5.745
38888SOL    HW118438   3.106   7.882   5.719
38888SOL    HW218439   3.184   7.753   5.723
38889SOL     OW18440   4.417   3.783   9.373
38889SOL    HW118441   4.440   3.753   9.285
38889SOL    HW218442   4.327   3.814   9.365
38890SOL     OW18443  13.646   3.128  14.430
38890SOL    HW118444  13.730   3.114  14.387
38890SOL    HW218445  13.609   3.040  14.439
38891SOL     OW18446   0.726   7.556   8.328
38891SOL    HW118447   0.720   7.468   8.366
38891SOL    HW218448   0.662   7.608   8.376
38892SOL     OW18449   7.410  10.646   7.728
38892SOL    HW118450   7.496  10.686   7.740
38892SOL    HW218451   7.427  10.552   7.735
38893SOL     OW18452   8.392   4.001   0.476
38893SOL    HW118453   8.416   4.075   0.533
38893SOL    HW218454   8.475   3.958   0.457
38894SOL     OW18455  13.401   2.377   2.134
38894SOL    HW118456  13.339   2.311   2.103
38894SOL    HW218457  13.452   2.400   2.057
38895SOL     OW18458   4.268  11.181   3.522
38895SOL    HW118459   4.257  11.086   3.522
38895SOL    HW218460   4.356  11.195   3.489
38896SOL     OW18461  10.727   7.807   6.567
38896SOL    HW118462  10.804   7.797   6.622
38896SOL    HW218463  10.751   7.875   6.504
38897SOL     OW18464   7.593   9.652  11.153
38897SOL    HW118465   7.567   9.743  11.166
38897SOL    HW218466   7.536   9.602  11.211
38898SOL     OW18467   5.521   3.519  14.329
38898SOL    HW118468   5.572   3.478  14.398
38898SOL    HW218469   5.580   3.583  14.289
38899SOL     OW18470   6.924  13.380   8.186
38899SOL    HW118471   6.946  13.306   8.242
38899SOL    HW218472   6.967  13.455   8.226
38900SOL     OW18473   5.706   2.024   8.334
38900SOL    HW118474   5.653   2.079   8.276
38900SOL    HW218475   5.653   2.015   8.413
38901SOL     OW18476   0.426  12.864   5.389
38901SOL    HW118477   0.413  12.896   5.299
38901SOL    HW218478   0.386  12.932   5.444
38902SOL     OW18479   3.463  13.855   7.211
38902SOL    HW118480   3.487  13.943   7.238
38902SOL    HW218481   3.374  13.864   7.176
38903SOL     OW18482  10.887  10.195   2.591
38903SOL    HW118483  10.881  10.101   2.606
38903SOL    HW218484  10.963  10.223   2.642
38904SOL     OW18485  10.467  12.155   7.239
38904SOL    HW118486  10.387  12.113   7.206
38904SOL    HW218487  10.448  12.249   7.236
38905SOL     OW18488   3.535   6.198  12.783
38905SOL    HW118489   3.553   6.212  12.876
38905SOL    HW218490   3.515   6.284  12.748
38906SOL     OW18491   6.825   1.073  11.932
38906SOL    HW118492   6.894   1.070  11.998
38906SOL    HW218493   6.841   0.996  11.878
38907SOL     OW18494   8.981  13.186   5.936
38907SOL    HW118495   8.940  13.130   6.003
38907SOL    HW218496   9.075  13.170   5.948
38908SOL     OW18497  13.523  13.668  10.521
38908SOL    HW118498  13.509  13.665  10.615
38908SOL    HW218499  13.439  13.701  10.486
38909SOL     OW18500   0.925   5.897   3.256
38909SOL    HW118501   0.936   5.845   3.176
38909SOL    HW218502   1.009   5.889   3.302
38910SOL     OW18503   2.697   8.139  11.714
38910SOL    HW118504   2.629   8.138  11.782
38910SOL    HW218505   2.776   8.112  11.760
38911SOL     OW18506  11.078   6.417   8.030
38911SOL    HW118507  11.073   6.476   7.955
38911SOL    HW218508  10.988   6.389   8.045
38912SOL     OW18509   2.356   0.775  11.377
38912SOL    HW118510   2.309   0.784  11.460
38912SOL    HW218511   2.363   0.680  11.364
38913SOL     OW18512  13.018   2.780   0.391
38913SOL    HW118513  12.984   2.743   0.472
38913SOL    HW218514  13.083   2.717   0.360
38914SOL     OW18515   1.200   0.406   9.239
38914SOL    HW118516   1.107   0.423   9.253
38914SOL    HW218517   1.204   0.358   9.156
38915SOL     OW18518   4.771   9.717  14.493
38915SOL    HW118519   4.776   9.734  14.588
38915SOL    HW218520   4.850   9.757  14.458
38916SOL     OW18521   7.797   4.828  13.079
38916SOL    HW118522   7.719   4.844  13.026
38916SOL    HW218523   7.841   4.756  13.036
38917SOL     OW18524   5.972   9.277   7.472
38917SOL    HW118525   5.979   9.188   7.438
38917SOL    HW218526   6.045   9.286   7.533
38918SOL     OW18527   9.010   1.315   7.240
38918SOL    HW118528   8.981   1.398   7.278
38918SOL    HW218529   8.929   1.267   7.222
38919SOL     OW18530  12.119   9.621   3.719
38919SOL    HW118531  12.076   9.552   3.669
38919SOL    HW218532  12.158   9.576   3.794
38920SOL     OW18533   8.191   1.689   7.886
38920SOL    HW118534   8.139   1.695   7.966
38920SOL    HW218535   8.277   1.660   7.916
38921SOL     OW18536  10.193   9.373  11.339
38921SOL    HW118537  10.147   9.334  11.413
38921SOL    HW218538  10.127   9.379  11.270
38922SOL     OW18539  14.861  14.177   9.207
38922SOL    HW118540   0.053  14.231   9.244
38922SOL    HW218541   0.002  14.175   9.113
38923SOL     OW18542   6.557  13.337  13.811
38923SOL    HW118543   6.516  13.398  13.873
38923SOL    HW218544   6.484  13.283  13.780
38924SOL     OW18545   8.694   7.667   3.056
38924SOL    HW118546   8.653   7.581   3.064
38924SOL    HW218547   8.692   7.703   3.144
38925SOL     OW18548   4.939   7.742  13.779
38925SOL    HW118549   4.910   7.755  13.870
38925SOL    HW218550   4.860   7.759  13.727
38926SOL     OW18551  11.641   7.221   2.464
38926SOL    HW118552  11.669   7.245   2.376
38926SOL    HW218553  11.546   7.212   2.457
38927SOL     OW18554   2.951  10.944   3.737
38927SOL    HW118555   2.906  10.970   3.818
38927SOL    HW218556   3.040  10.922   3.765
38928SOL     OW18557   2.320  14.546   2.300
38928SOL    HW118558   2.313  14.640   2.316
38928SOL    HW218559   2.254  14.507   2.356
38929SOL     OW18560   4.969   9.998   8.356
38929SOL    HW118561   4.901  10.064   8.366
38929SOL    HW218562   4.995  10.004   8.264
38930SOL     OW18563  14.749   3.520  11.029
38930SOL    HW118564  14.787   3.607  11.017
38930SOL    HW218565  14.674   3.535  11.086
38931SOL     OW18566   1.979   5.658   9.753
38931SOL    HW118567   2.002   5.749   9.767
38931SOL    HW218568   2.024   5.635   9.671
38932SOL     OW18569  13.001   0.475   7.434
38932SOL    HW118570  13.049   0.509   7.509
38932SOL    HW218571  12.978   0.385   7.458
38933SOL     OW18572  14.021   9.988   5.471
38933SOL    HW118573  14.000  10.040   5.393
38933SOL    HW218574  14.077   9.918   5.438
38934SOL     OW18575  14.502   2.006  13.748
38934SOL    HW118576  14.410   2.027  13.733
38934SOL    HW218577  14.500   1.918  13.787
38935SOL     OW18578   9.102   5.213   9.693
38935SOL    HW118579   9.014   5.248   9.681
38935SOL    HW218580   9.148   5.280   9.744
38936SOL     OW18581   0.199   9.213   6.512
38936SOL    HW118582   0.141   9.174   6.447
38936SOL    HW218583   0.155   9.197   6.596
38937SOL     OW18584   8.582   3.287   3.855
38937SOL    HW118585   8.557   3.247   3.938
38937SOL    HW218586   8.678   3.284   3.854
38938SOL     OW18587  10.725  12.777  13.471
38938SOL    HW118588  10.763  12.817  13.550
38938SOL    HW218589  10.754  12.686  13.474
38939SOL     OW18590   5.999  13.146   2.251
38939SOL    HW118591   5.998  13.185   2.163
38939SOL    HW218592   5.972  13.218   2.309
38940SOL     OW18593  13.648  13.863   0.666
38940SOL    HW118594  13.718  13.890   0.726
38940SOL    HW218595  13.643  13.768   0.676
38941SOL     OW18596  12.397  14.331   7.298
38941SOL    HW118597  12.458  14.366   7.234
38941SOL    HW218598  12.326  14.294   7.245
38942SOL     OW18599   8.148  14.303  12.893
38942SOL    HW118600   8.198  14.374  12.853
38942SOL    HW218601   8.078  14.285  12.830
38943SOL     OW18602   4.493   6.765   0.848
38943SOL    HW118603   4.400   6.762   0.870
38943SOL    HW218604   4.531   6.823   0.915
38944SOL     OW18605  12.444   2.895   0.323
38944SOL    HW118606  12.393   2.973   0.345
38944SOL    HW218607  12.468   2.906   0.231
38945SOL     OW18608   8.925   4.367   5.819
38945SOL    HW118609   8.992   4.351   5.886
38945SOL    HW218610   8.858   4.300   5.837
38946SOL     OW18611   9.313   2.630  10.558
38946SOL    HW118612   9.394   2.646  10.607
38946SOL    HW218613   9.245   2.628  10.626
38947SOL     OW18614   8.888   6.336   1.328
38947SOL    HW118615   8.846   6.252   1.307
38947SOL    HW218616   8.842   6.399   1.272
38948SOL     OW18617  13.376   1.004   2.894
38948SOL    HW118618  13.444   1.039   2.952
38948SOL    HW218619  13.423   0.973   2.817
38949SOL     OW18620  13.908   7.023   4.622
38949SOL    HW118621  13.985   7.080   4.623
38949SOL    HW218622  13.885   7.012   4.714
38950SOL     OW18623   0.607   6.917   9.073
38950SOL    HW118624   0.679   6.860   9.099
38950SOL    HW218625   0.540   6.903   9.140
38951SOL     OW18626   4.428   7.493   3.267
38951SOL    HW118627   4.484   7.539   3.204
38951SOL    HW218628   4.371   7.561   3.302
38952SOL     OW18629   4.405   0.349   0.361
38952SOL    HW118630   4.359   0.272   0.394
38952SOL    HW218631   4.339   0.418   0.360
38953SOL     OW18632   5.827  10.825   1.603
38953SOL    HW118633   5.778  10.787   1.677
38953SOL    HW218634   5.861  10.907   1.637
38954SOL     OW18635   4.239   9.363   6.739
38954SOL    HW118636   4.329   9.378   6.709
38954SOL    HW218637   4.196   9.318   6.666
38955SOL     OW18638  11.094   4.125  10.566
38955SOL    HW118639  11.078   4.143  10.659
38955SOL    HW218640  11.037   4.050  10.547
38956SOL     OW18641   7.598   7.117   1.873
38956SOL    HW118642   7.653   7.173   1.928
38956SOL    HW218643   7.532   7.176   1.838
38957SOL     OW18644   2.571   8.325  10.106
38957SOL    HW118645   2.479   8.350  10.098
38957SOL    HW218646   2.575   8.274  10.186
38958SOL     OW18647   7.135   6.433   4.957
38958SOL    HW118648   7.085   6.352   4.946
38958SOL    HW218649   7.225   6.409   4.937
38959SOL     OW18650   3.274   9.470  11.531
38959SOL    HW118651   3.261   9.501  11.620
38959SOL    HW218652   3.255   9.376  11.535
38960SOL     OW18653   6.375  12.851   1.304
38960SOL    HW118654   6.389  12.799   1.224
38960SOL    HW218655   6.353  12.939   1.272
38961SOL     OW18656  11.016  12.712   7.761
38961SOL    HW118657  11.014  12.624   7.723
38961SOL    HW218658  11.064  12.765   7.698
38962SOL     OW18659   7.661   4.137   6.674
38962SOL    HW118660   7.727   4.160   6.608
38962SOL    HW218661   7.651   4.042   6.666
38963SOL     OW18662   5.963   2.102  11.215
38963SOL    HW118663   5.984   2.168  11.149
38963SOL    HW218664   5.947   2.022  11.166
38964SOL     OW18665   3.840  10.657  10.141
38964SOL    HW118666   3.920  10.700  10.173
38964SOL    HW218667   3.794  10.630  10.220
38965SOL     OW18668   9.964   3.954   4.636
38965SOL    HW118669   9.871   3.976   4.630
38965SOL    HW218670   9.971   3.901   4.716
38966SOL     OW18671   2.112   9.071  10.480
38966SOL    HW118672   2.086   9.079  10.388
38966SOL    HW218673   2.185   9.009  10.478
38967SOL     OW18674  14.662   4.143   4.326
38967SOL    HW118675  14.645   4.226   4.282
38967SOL    HW218676  14.757   4.131   4.318
38968SOL     OW18677   2.105   5.145  10.296
38968SOL    HW118678   2.058   5.065  10.319
38968SOL    HW218679   2.037   5.209  10.278
38969SOL     OW18680   4.024  10.833  10.271
38969SOL    HW118681   4.086  10.880  10.215
38969SOL    HW218682   3.987  10.902  10.327
38970SOL     OW18683  11.954   8.022   8.421
38970SOL    HW118684  11.974   7.932   8.394
38970SOL    HW218685  12.039   8.065   8.427
38971SOL     OW18686   2.460   5.574   7.021
38971SOL    HW118687   2.404   5.640   6.979
38971SOL    HW218688   2.538   5.570   6.965
38972SOL     OW18689   1.616  11.255   9.124
38972SOL    HW118690   1.683  11.304   9.172
38972SOL    HW218691   1.547  11.319   9.107
38973SOL     OW18692   5.235  12.887   5.030
38973SOL    HW118693   5.303  12.840   4.981
38973SOL    HW218694   5.280  12.919   5.109
38974SOL     OW18695  13.969   8.899   6.627
38974SOL    HW118696  14.007   8.931   6.545
38974SOL    HW218697  13.942   8.978   6.674
38975SOL     OW18698   3.463   0.342   3.571
38975SOL    HW118699   3.507   0.424   3.593
38975SOL    HW218700   3.491   0.323   3.481
38976SOL     OW18701   8.606   4.046  14.429
38976SOL    HW118702   8.560   4.053  14.513
38976SOL    HW218703   8.674   4.113  14.433
38977SOL     OW18704   3.753   8.842   6.014
38977SOL    HW118705   3.776   8.755   6.045
38977SOL    HW218706   3.659   8.838   5.999
38978SOL     OW18707   3.809  10.710   8.291
38978SOL    HW118708   3.812  10.806   8.287
38978SOL    HW218709   3.900  10.683   8.294
38979SOL     OW18710   3.182   6.982   5.355
38979SOL    HW118711   3.209   6.898   5.391
38979SOL    HW218712   3.086   6.982   5.362
38980SOL     OW18713   8.331  12.487   0.606
38980SOL    HW118714   8.419  12.462   0.580
38980SOL    HW218715   8.284  12.500   0.524
38981SOL     OW18716   5.234  10.114   7.713
38981SOL    HW118717   5.202  10.191   7.665
38981SOL    HW218718   5.246  10.144   7.803
38982SOL     OW18719   7.651   1.059  13.178
38982SOL    HW118720   7.702   1.030  13.254
38982SOL    HW218721   7.687   1.146  13.157
38983SOL     OW18722  11.031  14.067   4.228
38983SOL    HW118723  11.093  14.110   4.170
38983SOL    HW218724  10.968  14.025   4.170
38984SOL     OW18725  10.849   7.426  10.339
38984SOL    HW118726  10.883   7.392  10.256
38984SOL    HW218727  10.776   7.483  10.313
38985SOL     OW18728  14.255   1.488   8.235
38985SOL    HW118729  14.321   1.422   8.257
38985SOL    HW218730  14.180   1.466   8.289
38986SOL     OW18731   0.790   2.444   2.805
38986SOL    HW118732   0.822   2.531   2.784
38986SOL    HW218733   0.859   2.405   2.859
38987SOL     OW18734  11.872   7.356   2.164
38987SOL    HW118735  11.867   7.408   2.244
38987SOL    HW218736  11.820   7.278   2.182
38988SOL     OW18737   6.203   7.544  10.952
38988SOL    HW118738   6.254   7.504  10.882
38988SOL    HW218739   6.113   7.542  10.920
38989SOL     OW18740   8.787   0.564   8.470
38989SOL    HW118741   8.852   0.501   8.441
38989SOL    HW218742   8.810   0.645   8.424
38990SOL     OW18743   6.398  14.812  10.238
38990SOL    HW118744   6.405  14.771  10.152
38990SOL    HW218745   6.344   0.013  10.223
38991SOL     OW18746   7.800  13.549  11.611
38991SOL    HW118747   7.846  13.630  11.632
38991SOL    HW218748   7.711  13.578  11.589
38992SOL     OW18749   7.713   5.527   3.414
38992SOL    HW118750   7.692   5.517   3.506
38992SOL    HW218751   7.694   5.619   3.395
38993SOL     OW18752   4.866   4.106   3.024
38993SOL    HW118753   4.937   4.169   3.010
38993SOL    HW218754   4.827   4.132   3.107
38994SOL     OW18755  14.241   5.785   5.047
38994SOL    HW118756  14.251   5.869   5.091
38994SOL    HW218757  14.160   5.795   4.997
38995SOL     OW18758   3.751  12.271  10.189
38995SOL    HW118759   3.716  12.183  10.196
38995SOL    HW218760   3.812  12.280  10.263
38996SOL     OW18761  13.691   7.908  10.349
38996SOL    HW118762  13.781   7.928  10.375
38996SOL    HW218763  13.672   7.823  10.389
38997SOL     OW18764   4.208   9.032   7.628
38997SOL    HW118765   4.164   8.994   7.704
38997SOL    HW218766   4.200   9.126   7.639
38998SOL     OW18767   1.593   6.595  14.648
38998SOL    HW118768   1.528   6.632  14.587
38998SOL    HW218769   1.566   6.503  14.657
38999SOL     OW18770   7.422   6.737   1.840
38999SOL    HW118771   7.494   6.765   1.897
38999SOL    HW218772   7.377   6.670   1.890
39000SOL     OW18773   9.382   5.941   0.073
39000SOL    HW118774   9.338   5.860   0.046
39000SOL    HW218775   9.462   5.944   0.020
39001SOL     OW18776  11.300   0.864   5.232
39001SOL    HW118777  11.240   0.863   5.307
39001SOL    HW218778  11.286   0.949   5.191
39002SOL     OW18779   4.587   4.882  11.281
39002SOL    HW118780   4.540   4.939  11.343
39002SOL    HW218781   4.672   4.866  11.323
39003SOL     OW18782   5.730   3.639   6.587
39003SOL    HW118783   5.652   3.603   6.546
39003SOL    HW218784   5.710   3.639   6.681
39004SOL     OW18785   5.646   3.952   6.810
39004SOL    HW118786   5.611   3.863   6.812
39004SOL    HW218787   5.709   3.952   6.739
39005SOL     OW18788  13.165  14.636   6.373
39005SOL    HW118789  13.081  14.638   6.326
39005SOL    HW218790  13.142  14.604   6.460
39006SOL     OW18791  12.527  11.900   7.357
39006SOL    HW118792  12.450  11.849   7.334
39006SOL    HW218793  12.496  11.990   7.365
39007SOL     OW18794  14.876  12.726   6.575
39007SOL    HW118795  14.847  12.659   6.638
39007SOL    HW218796  14.809  12.793   6.579
39008SOL     OW18797  10.569   5.611  11.366
39008SOL    HW118798  10.651   5.581  11.327
39008SOL    HW218799  10.530   5.533  11.405
39009SOL     OW18800   2.827   9.202  12.723
39009SOL    HW118801   2.915   9.179  12.692
39009SOL    HW218802   2.836   9.206  12.818
39010SOL     OW18803   8.698   3.307   5.550
39010SOL    HW118804   8.633   3.332   5.484
39010SOL    HW218805   8.768   3.371   5.540
39011SOL     OW18806  14.829   4.038   4.897
39011SOL    HW118807   0.024   4.041   4.835
39011SOL    HW218808  14.870   4.048   4.982
39012SOL     OW18809   8.201   8.510  11.728
39012SOL    HW118810   8.135   8.453  11.688
39012SOL    HW218811   8.216   8.578  11.663
39013SOL     OW18812  12.979   2.063  14.494
39013SOL    HW118813  12.954   2.095  14.407
39013SOL    HW218814  12.937   2.124  14.555
39014SOL     OW18815  12.087   0.790   6.976
39014SOL    HW118816  12.158   0.844   6.940
39014SOL    HW218817  12.017   0.796   6.911
39015SOL     OW18818   9.657  13.503   6.793
39015SOL    HW118819   9.707  13.472   6.718
39015SOL    HW218820   9.612  13.582   6.762
39016SOL     OW18821   7.910   1.147   5.643
39016SOL    HW118822   7.847   1.094   5.594
39016SOL    HW218823   7.912   1.107   5.730
39017SOL     OW18824  13.064   4.025   7.610
39017SOL    HW118825  13.026   4.067   7.688
39017SOL    HW218826  12.990   3.979   7.570
39018SOL     OW18827   5.097   5.481   1.969
39018SOL    HW118828   5.105   5.391   1.937
39018SOL    HW218829   5.166   5.529   1.924
39019SOL     OW18830   4.697  12.311   1.397
39019SOL    HW118831   4.641  12.239   1.426
39019SOL    HW218832   4.762  12.321   1.467
39020SOL     OW18833   0.551   5.055   9.059
39020SOL    HW118834   0.497   5.092   9.129
39020SOL    HW218835   0.502   4.980   9.028
39021SOL     OW18836   9.768   5.401   0.292
39021SOL    HW118837   9.802   5.483   0.327
39021SOL    HW218838   9.778   5.338   0.364
39022SOL     OW18839  10.372  14.007   1.835
39022SOL    HW118840  10.305  14.014   1.767
39022SOL    HW218841  10.445  14.058   1.802
39023SOL     OW18842   4.760   0.699   4.429
39023SOL    HW118843   4.739   0.684   4.521
39023SOL    HW218844   4.696   0.647   4.381
39024SOL     OW18845   9.163  12.530  11.707
39024SOL    HW118846   9.185  12.518  11.614
39024SOL    HW218847   9.069  12.544  11.708
39025SOL     OW18848   3.007  13.582  14.439
39025SOL    HW118849   3.005  13.651  14.373
39025SOL    HW218850   3.006  13.500  14.389
39026SOL     OW18851  14.301   9.834   0.719
39026SOL    HW118852  14.334   9.912   0.763
39026SOL    HW218853  14.230   9.803   0.774
39027SOL     OW18854  12.022   5.228   1.158
39027SOL    HW118855  11.992   5.291   1.092
39027SOL    HW218856  12.103   5.192   1.121
39028SOL     OW18857  12.601   5.573  13.560
39028SOL    HW118858  12.583   5.578  13.654
39028SOL    HW218859  12.540   5.507  13.528
39029SOL     OW18860   6.021   1.844  11.636
39029SOL    HW118861   5.976   1.869  11.555
39029SOL    HW218862   6.099   1.899  11.638
39030SOL     OW18863  12.463  11.621  10.679
39030SOL    HW118864  12.368  11.616  10.685
39030SOL    HW218865  12.481  11.662  10.595
39031SOL     OW18866   0.607   8.735  14.697
39031SOL    HW118867   0.665   8.669  14.659
39031SOL    HW218868   0.540   8.749  14.631
39032SOL     OW18869  11.030  13.929   6.317
39032SOL    HW118870  11.004  13.939   6.226
39032SOL    HW218871  11.121  13.897   6.313
39033SOL     OW18872  13.788   4.096   4.294
39033SOL    HW118873  13.802   4.023   4.354
39033SOL    HW218874  13.862   4.155   4.308
39034SOL     OW18875   9.655   7.144   6.747
39034SOL    HW118876   9.641   7.083   6.820
39034SOL    HW218877   9.604   7.221   6.770
39035SOL     OW18878  11.587  11.810   4.976
39035SOL    HW118879  11.663  11.856   4.938
39035SOL    HW218880  11.516  11.873   4.971
39036SOL     OW18881   6.947   8.038   4.770
39036SOL    HW118882   6.960   8.030   4.676
39036SOL    HW218883   6.939   8.132   4.786
39037SOL     OW18884   7.566   8.912  10.723
39037SOL    HW118885   7.637   8.902  10.660
39037SOL    HW218886   7.500   8.963  10.677
39038SOL     OW18887   5.159  13.358   3.749
39038SOL    HW118888   5.171  13.270   3.713
39038SOL    HW218889   5.235  13.407   3.718
39039SOL     OW18890   7.399  14.130  11.958
39039SOL    HW118891   7.476  14.149  11.903
39039SOL    HW218892   7.400  14.199  12.025
39040SOL     OW18893   1.757   7.010   7.612
39040SOL    HW118894   1.676   6.981   7.654
39040SOL    HW218895   1.826   6.984   7.672
39041SOL     OW18896   4.693   6.117   4.954
39041SOL    HW118897   4.752   6.082   4.887
39041SOL    HW218898   4.750   6.138   5.028
39042SOL     OW18899  12.359  14.250   3.672
39042SOL    HW118900  12.368  14.160   3.640
39042SOL    HW218901  12.310  14.296   3.604
39043SOL     OW18902  10.905   0.735   9.132
39043SOL    HW118903  10.890   0.784   9.213
39043SOL    HW218904  10.984   0.685   9.149
39044SOL     OW18905   3.743   8.527  12.273
39044SOL    HW118906   3.780   8.489  12.193
39044SOL    HW218907   3.690   8.457  12.311
39045SOL     OW18908   3.191   4.441  10.066
39045SOL    HW118909   3.247   4.432   9.989
39045SOL    HW218910   3.123   4.374  10.055
39046SOL     OW18911  11.580  11.381   9.755
39046SOL    HW118912  11.594  11.413   9.845
39046SOL    HW218913  11.491  11.409   9.734
39047SOL     OW18914  13.616  10.332   1.962
39047SOL    HW118915  13.708  10.305   1.969
39047SOL    HW218916  13.583  10.283   1.887
39048SOL     OW18917   2.396   6.414   2.226
39048SOL    HW118918   2.406   6.509   2.221
39048SOL    HW218919   2.312   6.401   2.271
39049SOL     OW18920  11.147   9.237   5.413
39049SOL    HW118921  11.179   9.189   5.489
39049SOL    HW218922  11.080   9.180   5.375
39050SOL     OW18923   6.596   9.673   0.266
39050SOL    HW118924   6.676   9.691   0.216
39050SOL    HW218925   6.526   9.673   0.200
39051SOL     OW18926   0.675   6.353   2.594
39051SOL    HW118927   0.626   6.294   2.650
39051SOL    HW218928   0.754   6.304   2.570
39052SOL     OW18929  10.805   1.358   8.517
39052SOL    HW118930  10.804   1.425   8.449
39052SOL    HW218931  10.741   1.293   8.487
39053SOL     OW18932   0.870   0.695   9.022
39053SOL    HW118933   0.942   0.664   9.076
39053SOL    HW218934   0.830   0.615   8.987
39054SOL     OW18935   6.591   8.530   7.997
39054SOL    HW118936   6.559   8.558   7.911
39054SOL    HW218937   6.661   8.468   7.978
39055SOL     OW18938   1.445   1.849   0.358
39055SOL    HW118939   1.504   1.868   0.432
39055SOL    HW218940   1.418   1.935   0.327
39056SOL     OW18941  11.823   3.941  11.151
39056SOL    HW118942  11.858   3.980  11.231
39056SOL    HW218943  11.729   3.938  11.164
39057SOL     OW18944   4.108   1.072  13.101
39057SOL    HW118945   4.016   1.053  13.088
39057SOL    HW218946   4.109   1.154  13.152
39058SOL     OW18947   6.740  14.685  14.364
39058SOL    HW118948   6.825  14.705  14.402
39058SOL    HW218949   6.677  14.718  14.427
39059SOL     OW18950   0.661   0.045   9.150
39059SOL    HW118951   0.650   0.092   9.232
39059SOL    HW218952   0.578  14.876   9.138
39060SOL     OW18953  13.303   2.809   5.395
39060SOL    HW118954  13.326   2.867   5.322
39060SOL    HW218955  13.211   2.787   5.380
39061SOL     OW18956   8.806  11.648   4.133
39061SOL    HW118957   8.868  11.718   4.113
39061SOL    HW218958   8.823  11.581   4.067
39062SOL     OW18959   4.833  10.202   5.262
39062SOL    HW118960   4.811  10.169   5.349
39062SOL    HW218961   4.835  10.297   5.272
39063SOL     OW18962  14.048   4.540   3.611
39063SOL    HW118963  14.020   4.562   3.700
39063SOL    HW218964  13.972   4.559   3.556
39064SOL     OW18965   2.599   6.719  12.354
39064SOL    HW118966   2.681   6.769  12.347
39064SOL    HW218967   2.588   6.705  12.447
39065SOL     OW18968   0.578   2.231   5.791
39065SOL    HW118969   0.597   2.316   5.752
39065SOL    HW218970   0.605   2.168   5.724
39066SOL     OW18971   2.931  14.608   8.992
39066SOL    HW118972   2.948  14.701   8.974
39066SOL    HW218973   2.866  14.583   8.926
39067SOL     OW18974   2.597  12.397   4.483
39067SOL    HW118975   2.545  12.472   4.453
39067SOL    HW218976   2.541  12.321   4.469
39068SOL     OW18977   6.202   1.648   0.887
39068SOL    HW118978   6.121   1.606   0.857
39068SOL    HW218979   6.272   1.594   0.851
39069SOL     OW18980   1.271  11.846  14.015
39069SOL    HW118981   1.224  11.774  14.057
39069SOL    HW218982   1.356  11.848  14.059
39070SOL     OW18983   8.104   8.990   3.884
39070SOL    HW118984   8.086   8.951   3.970
39070SOL    HW218985   8.132   9.079   3.904
39071SOL     OW18986  13.574  13.934   1.008
39071SOL    HW118987  13.553  13.893   1.092
39071SOL    HW218988  13.560  13.864   0.944
39072SOL     OW18989   7.757  13.779   2.427
39072SOL    HW118990   7.823  13.723   2.468
39072SOL    HW218991   7.716  13.825   2.500
39073SOL     OW18992  13.672  11.828   9.700
39073SOL    HW118993  13.645  11.873   9.780
39073SOL    HW218994  13.683  11.898   9.635
39074SOL     OW18995   7.267   8.303   4.458
39074SOL    HW118996   7.278   8.249   4.536
39074SOL    HW218997   7.177   8.286   4.430
39075SOL     OW18998   0.577   7.324   8.803
39075SOL    HW118999   0.510   7.257   8.820
39075SOL    HW219000   0.646   7.277   8.757
39076SOL     OW19001   6.822   3.373   5.564
39076SOL    HW119002   6.847   3.283   5.586
39076SOL    HW219003   6.750   3.364   5.502
39077SOL     OW19004   6.397   4.070   2.863
39077SOL    HW119005   6.411   4.017   2.785
39077SOL    HW219006   6.392   4.006   2.934
39078SOL     OW19007   7.269   2.452   6.249
39078SOL    HW119008   7.252   2.364   6.281
39078SOL    HW219009   7.299   2.500   6.327
39079SOL     OW19010   5.452   9.790  12.174
39079SOL    HW119011   5.540   9.786  12.139
39079SOL    HW219012   5.407   9.853  12.119
39080SOL     OW19013   8.579   0.909   4.046
39080SOL    HW119014   8.525   0.893   4.123
39080SOL    HW219015   8.520   0.900   3.972
39081SOL     OW19016   1.756   7.538   2.102
39081SOL    HW119017   1.755   7.477   2.028
39081SOL    HW219018   1.707   7.493   2.171
39082SOL     OW19019   8.849  12.495   7.552
39082SOL    HW119020   8.877  12.552   7.480
39082SOL    HW219021   8.793  12.430   7.510
39083SOL     OW19022  10.700   5.664  14.053
39083SOL    HW119023  10.733   5.736  14.000
39083SOL    HW219024  10.763   5.593  14.038
39084SOL     OW19025  12.949   2.814   1.540
39084SOL    HW119026  12.958   2.848   1.628
39084SOL    HW219027  12.903   2.731   1.551
39085SOL     OW19028  13.256  12.161   0.347
39085SOL    HW119029  13.216  12.240   0.309
39085SOL    HW219030  13.349  12.170   0.328
39086SOL     OW19031  11.120   4.464   8.122
39086SOL    HW119032  11.119   4.371   8.146
39086SOL    HW219033  11.059   4.470   8.049
39087SOL     OW19034  10.628  12.529  12.885
39087SOL    HW119035  10.544  12.545  12.842
39087SOL    HW219036  10.638  12.601  12.947
39088SOL     OW19037  10.437  14.539   9.220
39088SOL    HW119038  10.466  14.450   9.238
39088SOL    HW219039  10.389  14.565   9.299
39089SOL     OW19040   4.044   9.042  11.649
39089SOL    HW119041   4.128   9.053  11.693
39089SOL    HW219042   4.068   9.022  11.558
39090SOL     OW19043  12.351  13.878   3.828
39090SOL    HW119044  12.288  13.853   3.895
39090SOL    HW219045  12.366  13.971   3.842
39091SOL     OW19046  12.265  13.027   1.957
39091SOL    HW119047  12.171  13.013   1.960
39091SOL    HW219048  12.294  13.015   2.047
39092SOL     OW19049   2.881   0.888   3.915
39092SOL    HW119050   2.934   0.820   3.872
39092SOL    HW219051   2.872   0.956   3.848
39093SOL     OW19052  12.679   1.268  10.280
39093SOL    HW119053  12.643   1.186  10.248
39093SOL    HW219054  12.736   1.243  10.353
39094SOL     OW19055   4.223   5.945   2.647
39094SOL    HW119056   4.206   6.039   2.641
39094SOL    HW219057   4.313   5.938   2.677
39095SOL     OW19058   4.279   6.439   8.562
39095SOL    HW119059   4.312   6.431   8.472
39095SOL    HW219060   4.202   6.495   8.554
39096SOL     OW19061   2.188   5.057   2.647
39096SOL    HW119062   2.235   5.017   2.573
39096SOL    HW219063   2.244   5.129   2.675
39097SOL     OW19064  13.855   4.470   4.525
39097SOL    HW119065  13.834   4.429   4.609
39097SOL    HW219066  13.885   4.398   4.470
39098SOL     OW19067  12.945   5.989   6.200
39098SOL    HW119068  12.873   6.002   6.261
39098SOL    HW219069  13.024   5.996   6.254
39099SOL     OW19070   1.745  13.352  11.545
39099SOL    HW119071   1.748  13.406  11.623
39099SOL    HW219072   1.693  13.275  11.571
39100SOL     OW19073  13.506   9.746   9.802
39100SOL    HW119074  13.542   9.834   9.803
39100SOL    HW219075  13.525   9.711   9.889
39101SOL     OW19076   2.187   9.224   7.106
39101SOL    HW119077   2.183   9.314   7.138
39101SOL    HW219078   2.179   9.170   7.184
39102SOL     OW19079   1.749   2.372   0.221
39102SOL    HW119080   1.734   2.291   0.172
39102SOL    HW219081   1.825   2.352   0.277
39103SOL     OW19082  13.155   4.331   5.644
39103SOL    HW119083  13.068   4.317   5.608
39103SOL    HW219084  13.174   4.251   5.693
39104SOL     OW19085   0.936  11.176   3.674
39104SOL    HW119086   0.993  11.194   3.599
39104SOL    HW219087   0.953  11.247   3.735
39105SOL     OW19088   2.360  13.775   1.429
39105SOL    HW119089   2.376  13.756   1.521
39105SOL    HW219090   2.390  13.697   1.383
39106SOL     OW19091  13.142   8.297  10.298
39106SOL    HW119092  13.215   8.343  10.257
39106SOL    HW219093  13.065   8.349  10.275
39107SOL     OW19094  14.408  14.264   0.363
39107SOL    HW119095  14.500  14.266   0.337
39107SOL    HW219096  14.359  14.259   0.281
39108SOL     OW19097  13.314  10.352  12.857
39108SOL    HW119098  13.390  10.341  12.913
39108SOL    HW219099  13.323  10.284  12.790
39109SOL     OW19100   5.173   6.922  12.582
39109SOL    HW119101   5.231   6.994  12.606
39109SOL    HW219102   5.197   6.901  12.492
39110SOL     OW19103  14.465   7.102   5.795
39110SOL    HW119104  14.507   7.081   5.712
39110SOL    HW219105  14.442   7.195   5.787
39111SOL     OW19106  11.064   1.468  14.759
39111SOL    HW119107  11.001   1.442  14.826
39111SOL    HW219108  11.025   1.547  14.720
39112SOL     OW19109  12.248   9.669  10.436
39112SOL    HW119110  12.233   9.623  10.519
39112SOL    HW219111  12.161   9.703  10.412
39113SOL     OW19112   3.675   9.605   2.704
39113SOL    HW119113   3.685   9.568   2.616
39113SOL    HW219114   3.645   9.695   2.688
39114SOL     OW19115  14.274  11.803   6.092
39114SOL    HW119116  14.231  11.801   6.178
39114SOL    HW219117  14.326  11.723   6.090
39115SOL     OW19118   2.316   8.939   9.040
39115SOL    HW119119   2.225   8.918   9.020
39115SOL    HW219120   2.358   8.948   8.954
39116SOL     OW19121   1.158  12.570  13.459
39116SOL    HW119122   1.187  12.489  13.500
39116SOL    HW219123   1.091  12.543  13.396
39117SOL     OW19124   1.388   3.572   7.905
39117SOL    HW119125   1.381   3.481   7.934
39117SOL    HW219126   1.407   3.565   7.812
39118SOL     OW19127   5.554   5.156   0.546
39118SOL    HW119128   5.534   5.247   0.568
39118SOL    HW219129   5.619   5.163   0.476
39119SOL     OW19130   7.305   1.517   3.270
39119SOL    HW119131   7.383   1.461   3.265
39119SOL    HW219132   7.232   1.456   3.271
39120SOL     OW19133   7.021  14.290   0.449
39120SOL    HW119134   6.930  14.268   0.428
39120SOL    HW219135   7.072  14.220   0.408
39121SOL     OW19136  14.336   1.749  14.828
39121SOL    HW119137  14.348   1.816   0.018
39121SOL    HW219138  14.273   1.788  14.767
39122SOL     OW19139   8.499   0.574  10.270
39122SOL    HW119140   8.524   0.579  10.178
39122SOL    HW219141   8.457   0.658  10.288
39123SOL     OW19142  11.464   4.956   9.136
39123SOL    HW119143  11.500   5.041   9.160
39123SOL    HW219144  11.467   4.904   9.217
39124SOL     OW19145   8.308  13.028   6.032
39124SOL    HW119146   8.384  12.998   5.983
39124SOL    HW219147   8.249  13.064   5.966
39125SOL     OW19148   6.346   8.945   7.427
39125SOL    HW119149   6.315   8.856   7.418
39125SOL    HW219150   6.437   8.936   7.455
39126SOL     OW19151   4.550  13.616   0.306
39126SOL    HW119152   4.495  13.568   0.369
39126SOL    HW219153   4.559  13.703   0.345
39127SOL     OW19154  12.978   6.862   0.721
39127SOL    HW119155  13.029   6.926   0.671
39127SOL    HW219156  12.925   6.816   0.655
39128SOL     OW19157   2.597   7.179  13.752
39128SOL    HW119158   2.521   7.236  13.739
39128SOL    HW219159   2.559   7.094  13.776
39129SOL     OW19160   3.873  10.603   6.548
39129SOL    HW119161   3.780  10.619   6.565
39129SOL    HW219162   3.907  10.572   6.632
39130SOL     OW19163   2.984   0.588   8.320
39130SOL    HW119164   3.068   0.630   8.342
39130SOL    HW219165   3.003   0.538   8.240
39131SOL     OW19166   0.423   2.100   4.172
39131SOL    HW119167   0.482   2.133   4.103
39131SOL    HW219168   0.475   2.105   4.252
39132SOL     OW19169   3.603   1.512   1.464
39132SOL    HW119170   3.513   1.540   1.479
39132SOL    HW219171   3.596   1.423   1.432
39133SOL     OW19172   7.664   5.463   3.684
39133SOL    HW119173   7.582   5.412   3.684
39133SOL    HW219174   7.649   5.533   3.747
39134SOL     OW19175  14.158   6.388   5.552
39134SOL    HW119176  14.071   6.386   5.592
39134SOL    HW219177  14.147   6.339   5.470
39135SOL     OW19178   3.485   0.554  11.296
39135SOL    HW119179   3.436   0.596  11.225
39135SOL    HW219180   3.554   0.617  11.318
39136SOL     OW19181   7.018  13.610   4.961
39136SOL    HW119182   7.042  13.560   5.039
39136SOL    HW219183   6.929  13.641   4.979
39137SOL     OW19184   7.101   4.800   0.881
39137SOL    HW119185   7.134   4.729   0.938
39137SOL    HW219186   7.179   4.836   0.841
39138SOL     OW19187   8.893   2.311   3.659
39138SOL    HW119188   8.812   2.268   3.631
39138SOL    HW219189   8.864   2.398   3.690
39139SOL     OW19190   9.690   1.731  13.000
39139SOL    HW119191   9.600   1.731  12.966
39139SOL    HW219192   9.718   1.822  12.992
39140SOL     OW19193   2.303   7.523  13.441
39140SOL    HW119194   2.230   7.549  13.385
39140SOL    HW219195   2.379   7.569  13.405
39141SOL     OW19196   5.567   0.177  13.892
39141SOL    HW119197   5.564   0.268  13.921
39141SOL    HW219198   5.586   0.182  13.798
39142SOL     OW19199   9.203   5.888  12.296
39142SOL    HW119200   9.153   5.933  12.227
39142SOL    HW219201   9.289   5.930  12.293
39143SOL     OW19202   2.853   7.659   3.705
39143SOL    HW119203   2.826   7.578   3.663
39143SOL    HW219204   2.896   7.709   3.635
39144SOL     OW19205  12.310  12.809  11.543
39144SOL    HW119206  12.252  12.872  11.586
39144SOL    HW219207  12.361  12.771  11.614
39145SOL     OW19208  13.080   4.658  14.523
39145SOL    HW119209  13.154   4.617  14.478
39145SOL    HW219210  13.079   4.617  14.609
39146SOL     OW19211   6.481   7.946   9.656
39146SOL    HW119212   6.562   7.993   9.675
39146SOL    HW219213   6.415   7.989   9.711
39147SOL     OW19214  13.613   7.483  10.196
39147SOL    HW119215  13.627   7.530  10.113
39147SOL    HW219216  13.693   7.501  10.247
39148SOL     OW19217  13.030   0.428   6.251
39148SOL    HW119218  13.055   0.471   6.169
39148SOL    HW219219  12.937   0.407   6.241
39149SOL     OW19220  13.727   7.929   7.853
39149SOL    HW119221  13.778   7.868   7.907
39149SOL    HW219222  13.696   7.876   7.779
39150SOL     OW19223   5.118   3.801  10.548
39150SOL    HW119224   5.099   3.749  10.470
39150SOL    HW219225   5.060   3.765  10.615
39151SOL     OW19226   0.404   9.468   2.336
39151SOL    HW119227   0.424   9.553   2.375
39151SOL    HW219228   0.309   9.459   2.345
39152SOL     OW19229  14.594   7.383  11.106
39152SOL    HW119230  14.611   7.474  11.081
39152SOL    HW219231  14.502   7.369  11.084
39153SOL     OW19232   7.481  10.354   8.068
39153SOL    HW119233   7.538  10.279   8.082
39153SOL    HW219234   7.427  10.358   8.147
39154SOL     OW19235  11.720   0.713   0.788
39154SOL    HW119236  11.797   0.762   0.759
39154SOL    HW219237  11.648   0.775   0.779
39155SOL     OW19238  11.926  14.369   4.280
39155SOL    HW119239  11.916  14.347   4.187
39155SOL    HW219240  11.949  14.462   4.280
39156SOL     OW19241   1.351  13.339   7.589
39156SOL    HW119242   1.265  13.381   7.596
39156SOL    HW219243   1.408  13.406   7.551
39157SOL     OW19244   4.681   9.743   4.438
39157SOL    HW119245   4.717   9.818   4.391
39157SOL    HW219246   4.623   9.781   4.504
39158SOL     OW19247   5.445   2.227   1.669
39158SOL    HW119248   5.451   2.305   1.614
39158SOL    HW219249   5.447   2.261   1.759
39159SOL     OW19250   9.265  11.055   5.920
39159SOL    HW119251   9.318  11.088   5.848
39159SOL    HW219252   9.315  10.981   5.954
39160SOL     OW19253   5.407   7.924  10.146
39160SOL    HW119254   5.405   7.838  10.105
39160SOL    HW219255   5.334   7.972  10.105
39161SOL     OW19256  10.195  10.097   8.480
39161SOL    HW119257  10.261  10.138   8.535
39161SOL    HW219258  10.245  10.052   8.412
39162SOL     OW19259   8.423   4.149   1.934
39162SOL    HW119260   8.417   4.227   1.880
39162SOL    HW219261   8.495   4.098   1.896
39163SOL     OW19262   7.498  11.077   6.626
39163SOL    HW119263   7.511  11.126   6.707
39163SOL    HW219264   7.563  11.007   6.628
39164SOL     OW19265   3.595   0.669   8.184
39164SOL    HW119266   3.544   0.678   8.104
39164SOL    HW219267   3.564   0.740   8.241
39165SOL     OW19268  11.180   1.943   3.024
39165SOL    HW119269  11.237   1.892   3.082
39165SOL    HW219270  11.240   1.997   2.973
39166SOL     OW19271  10.542  14.251  10.478
39166SOL    HW119272  10.447  14.264  10.483
39166SOL    HW219273  10.572  14.263  10.568
39167SOL     OW19274   2.984  12.006   4.123
39167SOL    HW119275   2.958  12.016   4.031
39167SOL    HW219276   3.055  12.069   4.135
39168SOL     OW19277  10.072   5.715   6.545
39168SOL    HW119278  10.023   5.794   6.523
39168SOL    HW219279  10.139   5.708   6.477
39169SOL     OW19280  13.310   1.059   0.685
39169SOL    HW119281  13.391   1.026   0.725
39169SOL    HW219282  13.242   1.040   0.749
39170SOL     OW19283   6.806   3.619  10.791
39170SOL    HW119284   6.783   3.699  10.743
39170SOL    HW219285   6.883   3.643  10.843
39171SOL     OW19286  14.688   1.401  14.082
39171SOL    HW119287  14.735   1.330  14.124
39171SOL    HW219288  14.739   1.421  14.004
39172SOL     OW19289   7.443   4.873   7.998
39172SOL    HW119290   7.424   4.956   7.953
39172SOL    HW219291   7.384   4.873   8.073
39173SOL     OW19292  13.701   1.684   4.765
39173SOL    HW119293  13.693   1.635   4.683
39173SOL    HW219294  13.786   1.656   4.802
39174SOL     OW19295  11.764   8.217   5.316
39174SOL    HW119296  11.758   8.310   5.292
39174SOL    HW219297  11.681   8.180   5.286
39175SOL     OW19298   9.375   9.058   3.249
39175SOL    HW119299   9.431   8.985   3.272
39175SOL    HW219300   9.286   9.025   3.262
39176SOL     OW19301   6.880  12.260  11.438
39176SOL    HW119302   6.958  12.296  11.396
39176SOL    HW219303   6.808  12.313  11.404
39177SOL     OW19304   0.087   2.795  12.673
39177SOL    HW119305   0.013   2.739  12.649
39177SOL    HW219306   0.139   2.743  12.734
39178SOL     OW19307   3.363  10.300  14.372
39178SOL    HW119308   3.437  10.359  14.359
39178SOL    HW219309   3.392  10.240  14.441
39179SOL     OW19310  14.247   5.432   1.853
39179SOL    HW119311  14.286   5.346   1.867
39179SOL    HW219312  14.307   5.493   1.896
39180SOL     OW19313   9.484   5.467  14.145
39180SOL    HW119314   9.540   5.452  14.221
39180SOL    HW219315   9.395   5.455  14.178
39181SOL     OW19316   4.392   6.666   6.709
39181SOL    HW119317   4.459   6.715   6.755
39181SOL    HW219318   4.354   6.730   6.647
39182SOL     OW19319   9.945  13.340   7.565
39182SOL    HW119320   9.900  13.337   7.481
39182SOL    HW219321   9.960  13.249   7.588
39183SOL     OW19322   8.153   7.704   3.965
39183SOL    HW119323   8.192   7.618   3.951
39183SOL    HW219324   8.217   7.751   4.019
39184SOL     OW19325  14.338   5.549   5.666
39184SOL    HW119326  14.343   5.540   5.761
39184SOL    HW219327  14.300   5.466   5.636
39185SOL     OW19328   9.510   4.521  14.109
39185SOL    HW119329   9.598   4.504  14.074
39185SOL    HW219330   9.484   4.603  14.069
39186SOL     OW19331   5.166   3.510   4.809
39186SOL    HW119332   5.118   3.560   4.742
39186SOL    HW219333   5.175   3.423   4.771
39187SOL     OW19334   8.851   5.977  13.132
39187SOL    HW119335   8.865   6.024  13.214
39187SOL    HW219336   8.934   5.983  13.086
39188SOL     OW19337   8.551   7.058   0.406
39188SOL    HW119338   8.554   7.102   0.321
39188SOL    HW219339   8.634   7.079   0.447
39189SOL     OW19340   0.778  10.128   1.562
39189SOL    HW119341   0.759  10.073   1.487
39189SOL    HW219342   0.872  10.145   1.557
39190SOL     OW19343   3.922   3.819  13.014
39190SOL    HW119344   3.862   3.760  13.060
39190SOL    HW219345   3.881   3.905  13.022
39191SOL     OW19346   6.205   9.904   0.490
39191SOL    HW119347   6.211   9.815   0.455
39191SOL    HW219348   6.230   9.960   0.417
39192SOL     OW19349  13.766  14.846   1.999
39192SOL    HW119350  13.854  14.863   1.966
39192SOL    HW219351  13.758  14.750   1.997
39193SOL     OW19352  12.799  12.799   0.455
39193SOL    HW119353  12.883  12.818   0.413
39193SOL    HW219354  12.734  12.824   0.389
39194SOL     OW19355   5.650   8.963   6.342
39194SOL    HW119356   5.688   8.914   6.269
39194SOL    HW219357   5.557   8.939   6.341
39195SOL     OW19358   5.798   2.271   9.914
39195SOL    HW119359   5.883   2.313   9.900
39195SOL    HW219360   5.800   2.193   9.859
39196SOL     OW19361  10.446   7.111   8.833
39196SOL    HW119362  10.447   7.207   8.830
39196SOL    HW219363  10.518   7.085   8.775
39197SOL     OW19364   1.318   1.073  11.512
39197SOL    HW119365   1.247   1.133  11.536
39197SOL    HW219366   1.280   0.986  11.523
39198SOL     OW19367   7.721  12.378  14.835
39198SOL    HW119368   7.796  12.340   0.004
39198SOL    HW219369   7.688  12.306  14.781
39199SOL     OW19370   1.619  13.957   0.255
39199SOL    HW119371   1.663  14.029   0.210
39199SOL    HW219372   1.574  13.910   0.186
39200SOL     OW19373  13.214   2.338   7.985
39200SOL    HW119374  13.257   2.255   7.963
39200SOL    HW219375  13.152   2.353   7.914
39201SOL     OW19376  13.514   6.809  10.039
39201SOL    HW119377  13.569   6.804   9.961
39201SOL    HW219378  13.572   6.784  10.111
39202SOL     OW19379   9.992  11.910  14.517
39202SOL    HW119380  10.063  11.851  14.543
39202SOL    HW219381   9.972  11.960  14.596
39203SOL     OW19382  10.528   9.657   3.261
39203SOL    HW119383  10.523   9.700   3.346
39203SOL    HW219384  10.467   9.584   3.268
39204SOL     OW19385  14.841   8.551   6.761
39204SOL    HW119386  14.777   8.609   6.720
39204SOL    HW219387  14.807   8.536   6.849
39205SOL     OW19388   9.377   6.017   5.192
39205SOL    HW119389   9.326   5.943   5.159
39205SOL    HW219390   9.442   6.034   5.124
39206SOL     OW19391  14.282   6.694  13.443
39206SOL    HW119392  14.373   6.712  13.467
39206SOL    HW219393  14.285   6.609  13.399
39207SOL     OW19394  14.302   1.966   5.160
39207SOL    HW119395  14.396   1.951   5.151
39207SOL    HW219396  14.276   1.907   5.231
39208SOL     OW19397   2.114   0.401  12.999
39208SOL    HW119398   2.156   0.315  12.998
39208SOL    HW219399   2.170   0.455  13.054
39209SOL     OW19400  13.227   7.220   7.707
39209SOL    HW119401  13.146   7.243   7.752
39209SOL    HW219402  13.206   7.141   7.658
39210SOL     OW19403   0.922   7.586  14.535
39210SOL    HW119404   0.956   7.674  14.550
39210SOL    HW219405   0.969   7.532  14.598
39211SOL     OW19406   5.772  14.399  13.211
39211SOL    HW119407   5.711  14.419  13.139
39211SOL    HW219408   5.858  14.421  13.175
39212SOL     OW19409   7.400  12.595   4.828
39212SOL    HW119410   7.430  12.507   4.806
39212SOL    HW219411   7.353  12.625   4.750
39213SOL     OW19412   3.158  11.380  13.372
39213SOL    HW119413   3.097  11.444  13.336
39213SOL    HW219414   3.184  11.417  13.456
39214SOL     OW19415   9.369  14.062   6.242
39214SOL    HW119416   9.298  14.004   6.268
39214SOL    HW219417   9.371  14.057   6.147
39215SOL     OW19418   7.516   6.535   8.841
39215SOL    HW119419   7.590   6.558   8.785
39215SOL    HW219420   7.501   6.613   8.895
39216SOL     OW19421   2.790  10.398   5.710
39216SOL    HW119422   2.845  10.446   5.772
39216SOL    HW219423   2.800  10.445   5.627
39217SOL     OW19424  13.411  14.077  10.950
39217SOL    HW119425  13.359  14.116  10.881
39217SOL    HW219426  13.410  13.983  10.931
39218SOL     OW19427  10.529   0.165  12.352
39218SOL    HW119428  10.507   0.202  12.437
39218SOL    HW219429  10.541   0.072  12.368
39219SOL     OW19430   0.575   7.162   7.614
39219SOL    HW119431   0.666   7.132   7.602
39219SOL    HW219432   0.552   7.133   7.702
39220SOL     OW19433   0.310   0.126  10.242
39220SOL    HW119434   0.295   0.099  10.332
39220SOL    HW219435   0.304   0.222  10.244
39221SOL     OW19436   6.699   7.616  11.807
39221SOL    HW119437   6.650   7.602  11.726
39221SOL    HW219438   6.682   7.707  11.830
39222SOL     OW19439   7.703  11.297   6.540
39222SOL    HW119440   7.779  11.330   6.587
39222SOL    HW219441   7.648  11.257   6.608
39223SOL     OW19442   0.931   4.040   5.408
39223SOL    HW119443   0.887   3.965   5.448
39223SOL    HW219444   0.869   4.112   5.417
39224SOL     OW19445   2.663  12.068  14.465
39224SOL    HW119446   2.631  11.979  14.448
39224SOL    HW219447   2.589  12.114  14.503
39225SOL     OW19448  11.689  14.564  10.883
39225SOL    HW119449  11.608  14.519  10.906
39225SOL    HW219450  11.738  14.501  10.831
39226SOL     OW19451  14.130  11.773  11.498
39226SOL    HW119452  14.165  11.693  11.458
39226SOL    HW219453  14.167  11.844  11.445
39227SOL     OW19454   3.986  14.107   7.084
39227SOL    HW119455   4.000  14.119   6.990
39227SOL    HW219456   4.004  14.194   7.121
39228SOL     OW19457   8.313   3.875   6.487
39228SOL    HW119458   8.291   3.781   6.488
39228SOL    HW219459   8.327   3.896   6.579
39229SOL     OW19460   1.252  10.010   2.477
39229SOL    HW119461   1.179   9.992   2.418
39229SOL    HW219462   1.281  10.098   2.455
39230SOL     OW19463   1.689   2.640  14.616
39230SOL    HW119464   1.644   2.704  14.670
39230SOL    HW219465   1.727   2.577  14.678
39231SOL     OW19466   4.931  12.508   3.231
39231SOL    HW119467   4.876  12.579   3.199
39231SOL    HW219468   4.869  12.441   3.261
39232SOL     OW19469   4.690   7.736   8.374
39232SOL    HW119470   4.748   7.661   8.360
39232SOL    HW219471   4.680   7.775   8.287
39233SOL     OW19472   7.643   3.822   1.751
39233SOL    HW119473   7.663   3.871   1.672
39233SOL    HW219474   7.560   3.778   1.733
39234SOL     OW19475   5.181   8.150   1.831
39234SOL    HW119476   5.129   8.076   1.863
39234SOL    HW219477   5.258   8.151   1.887
39235SOL     OW19478   0.900   0.313   5.503
39235SOL    HW119479   0.971   0.261   5.466
39235SOL    HW219480   0.933   0.403   5.502
39236SOL     OW19481   9.579   0.088   3.906
39236SOL    HW119482   9.643   0.140   3.954
39236SOL    HW219483   9.630   0.040   3.841
39237SOL     OW19484   7.073  13.997   7.723
39237SOL    HW119485   6.979  13.988   7.734
39237SOL    HW219486   7.089  13.974   7.631
39238SOL     OW19487   1.611   4.851   4.799
39238SOL    HW119488   1.584   4.934   4.838
39238SOL    HW219489   1.618   4.791   4.873
39239SOL     OW19490   1.703   8.322   4.888
39239SOL    HW119491   1.633   8.257   4.889
39239SOL    HW219492   1.759   8.298   4.961
39240SOL     OW19493  11.309   5.847  10.449
39240SOL    HW119494  11.239   5.826  10.387
39240SOL    HW219495  11.389   5.841  10.397
39241SOL     OW19496   5.613   6.926   9.304
39241SOL    HW119497   5.602   6.943   9.397
39241SOL    HW219498   5.559   6.993   9.261
39242SOL     OW19499   5.638   5.239  12.476
39242SOL    HW119500   5.574   5.265  12.542
39242SOL    HW219501   5.635   5.143  12.476
39243SOL     OW19502   3.726  13.204   1.229
39243SOL    HW119503   3.658  13.208   1.297
39243SOL    HW219504   3.702  13.273   1.167
39244SOL     OW19505  13.401   8.211   6.796
39244SOL    HW119506  13.470   8.264   6.757
39244SOL    HW219507  13.420   8.122   6.766
39245SOL     OW19508   6.285   3.948   8.575
39245SOL    HW119509   6.273   4.029   8.626
39245SOL    HW219510   6.219   3.953   8.506
39246SOL     OW19511  10.048   5.030  12.770
39246SOL    HW119512   9.956   5.050  12.785
39246SOL    HW219513  10.050   4.978  12.690
39247SOL     OW19514   1.798   9.498   7.811
39247SOL    HW119515   1.780   9.540   7.895
39247SOL    HW219516   1.893   9.500   7.804
39248SOL     OW19517   8.910  12.364   3.960
39248SOL    HW119518   8.888  12.280   4.000
39248SOL    HW219519   8.952  12.414   4.030
39249SOL     OW19520  10.895   0.597   4.893
39249SOL    HW119521  10.897   0.515   4.941
39249SOL    HW219522  10.985   0.629   4.893
39250SOL     OW19523   5.394   9.867   9.109
39250SOL    HW119524   5.431   9.955   9.104
39250SOL    HW219525   5.457   9.818   9.163
39251SOL     OW19526  11.210   0.191  11.025
39251SOL    HW119527  11.241   0.101  11.038
39251SOL    HW219528  11.286   0.239  10.993
39252SOL     OW19529   0.140  12.093   3.622
39252SOL    HW119530   0.183  12.038   3.688
39252SOL    HW219531   0.088  12.032   3.570
39253SOL     OW19532   1.512   4.793   9.103
39253SOL    HW119533   1.560   4.719   9.139
39253SOL    HW219534   1.491   4.848   9.179
39254SOL     OW19535   7.316   7.104   6.660
39254SOL    HW119536   7.335   7.170   6.593
39254SOL    HW219537   7.373   7.127   6.733
39255SOL     OW19538   4.616  12.986   1.143
39255SOL    HW119539   4.674  12.909   1.142
39255SOL    HW219540   4.577  12.986   1.230
39256SOL     OW19541   8.948   8.077   0.397
39256SOL    HW119542   8.904   8.109   0.476
39256SOL    HW219543   9.041   8.092   0.413
39257SOL     OW19544   1.734   3.380  13.019
39257SOL    HW119545   1.724   3.400  12.926
39257SOL    HW219546   1.791   3.449  13.053
39258SOL     OW19547   3.563   0.377   0.702
39258SOL    HW119548   3.575   0.304   0.763
39258SOL    HW219549   3.473   0.405   0.716
39259SOL     OW19550   5.993   6.402   1.024
39259SOL    HW119551   5.992   6.435   1.113
39259SOL    HW219552   5.931   6.458   0.976
39260SOL     OW19553   8.897   3.506   5.422
39260SOL    HW119554   8.913   3.521   5.328
39260SOL    HW219555   8.979   3.471   5.454
39261SOL     OW19556   3.576   8.490   5.839
39261SOL    HW119557   3.615   8.416   5.791
39261SOL    HW219558   3.505   8.451   5.890
39262SOL     OW19559   8.460  13.591   2.812
39262SOL    HW119560   8.366  13.601   2.794
39262SOL    HW219561   8.485  13.513   2.763
39263SOL     OW19562  11.453  11.126  11.201
39263SOL    HW119563  11.358  11.135  11.197
39263SOL    HW219564  11.480  11.114  11.110
39264SOL     OW19565   7.597   8.209   7.329
39264SOL    HW119566   7.638   8.127   7.304
39264SOL    HW219567   7.504   8.198   7.306
39265SOL     OW19568   8.210   8.414   2.970
39265SOL    HW119569   8.254   8.330   2.975
39265SOL    HW219570   8.128   8.402   3.017
39266SOL     OW19571  10.288   3.686   8.727
39266SOL    HW119572  10.327   3.749   8.667
39266SOL    HW219573  10.261   3.612   8.671
39267SOL     OW19574   4.859  13.756  13.624
39267SOL    HW119575   4.946  13.783  13.652
39267SOL    HW219576   4.875  13.703  13.545
39268SOL     OW19577   0.438  14.352   6.244
39268SOL    HW119578   0.377  14.280   6.227
39268SOL    HW219579   0.525  14.314   6.229
39269SOL     OW19580   6.906  11.058   7.700
39269SOL    HW119581   6.936  11.133   7.649
39269SOL    HW219582   6.986  11.025   7.742
39270SOL     OW19583   6.209   7.844   8.728
39270SOL    HW119584   6.222   7.900   8.804
39270SOL    HW219585   6.229   7.900   8.653
39271SOL     OW19586  12.541   6.302   7.928
39271SOL    HW119587  12.606   6.367   7.902
39271SOL    HW219588  12.518   6.258   7.846
39272SOL     OW19589   4.719  11.987   1.186
39272SOL    HW119590   4.625  12.006   1.185
39272SOL    HW219591   4.737  11.952   1.099
39273SOL     OW19592   4.897  10.917   6.661
39273SOL    HW119593   4.916  10.949   6.749
39273SOL    HW219594   4.982  10.921   6.616
39274SOL     OW19595   1.892  10.636   3.368
39274SOL    HW119596   1.967  10.625   3.426
39274SOL    HW219597   1.887  10.730   3.352
39275SOL     OW19598   3.172  12.621   3.647
39275SOL    HW119599   3.184  12.613   3.742
39275SOL    HW219600   3.152  12.714   3.634
39276SOL     OW19601  13.317  14.423  10.599
39276SOL    HW119602  13.243  14.476  10.628
39276SOL    HW219603  13.392  14.480  10.607
39277SOL     OW19604   8.366   6.937   2.959
39277SOL    HW119605   8.360   6.847   2.926
39277SOL    HW219606   8.316   6.989   2.896
39278SOL     OW19607   1.207  12.094   0.108
39278SOL    HW119608   1.219  12.001   0.124
39278SOL    HW219609   1.113  12.109   0.117
39279SOL     OW19610  12.862  11.459  14.175
39279SOL    HW119611  12.954  11.433  14.171
39279SOL    HW219612  12.862  11.552  14.154
39280SOL     OW19613   3.313   6.432  10.023
39280SOL    HW119614   3.346   6.349   9.988
39280SOL    HW219615   3.229   6.410  10.062
39281SOL     OW19616  14.088   8.198  12.020
39281SOL    HW119617  14.087   8.103  12.017
39281SOL    HW219618  14.057   8.220  12.108
39282SOL     OW19619   0.960   1.594   7.213
39282SOL    HW119620   0.885   1.540   7.188
39282SOL    HW219621   0.969   1.580   7.308
39283SOL     OW19622  10.976   8.829  10.256
39283SOL    HW119623  10.946   8.809  10.167
39283SOL    HW219624  10.980   8.743  10.299
39284SOL     OW19625   6.715  13.634  10.162
39284SOL    HW119626   6.647  13.572  10.138
39284SOL    HW219627   6.750  13.599  10.244
39285SOL     OW19628  13.983   1.190   4.716
39285SOL    HW119629  14.027   1.109   4.689
39285SOL    HW219630  14.040   1.227   4.784
39286SOL     OW19631   3.009   9.927   9.928
39286SOL    HW119632   2.964   9.901   9.847
39286SOL    HW219633   3.041   9.845   9.965
39287SOL     OW19634  13.729   5.845   9.677
39287SOL    HW119635  13.732   5.802   9.592
39287SOL    HW219636  13.681   5.784   9.733
39288SOL     OW19637   1.917   2.333   2.976
39288SOL    HW119638   1.861   2.264   3.011
39288SOL    HW219639   1.880   2.353   2.890
39289SOL     OW19640   4.186   5.810   3.496
39289SOL    HW119641   4.169   5.829   3.404
39289SOL    HW219642   4.260   5.865   3.520
39290SOL     OW19643   5.290  11.688   1.449
39290SOL    HW119644   5.236  11.616   1.481
39290SOL    HW219645   5.377  11.649   1.436
39291SOL     OW19646   8.204   0.653   3.881
39291SOL    HW119647   8.131   0.695   3.928
39291SOL    HW219648   8.162   0.586   3.826
39292SOL     OW19649  12.273   3.934  11.114
39292SOL    HW119650  12.230   3.944  11.030
39292SOL    HW219651  12.230   3.998  11.171
39293SOL     OW19652   0.013   5.509   5.340
39293SOL    HW119653  14.827   5.523   5.269
39293SOL    HW219654   0.059   5.593   5.348
39294SOL     OW19655   9.027   7.901  13.995
39294SOL    HW119656   9.108   7.938  13.961
39294SOL    HW219657   9.054   7.850  14.071
39295SOL     OW19658   3.536   7.593  13.708
39295SOL    HW119659   3.484   7.582  13.788
39295SOL    HW219660   3.544   7.687  13.698
39296SOL     OW19661   3.128   0.867   9.629
39296SOL    HW119662   3.150   0.818   9.550
39296SOL    HW219663   3.037   0.894   9.616
39297SOL     OW19664   3.461   5.920   0.437
39297SOL    HW119665   3.440   6.010   0.461
39297SOL    HW219666   3.437   5.869   0.514
39298SOL     OW19667   7.120   1.089   5.905
39298SOL    HW119668   7.051   1.142   5.865
39298SOL    HW219669   7.136   1.131   5.990
39299SOL     OW19670  12.324   6.346   3.849
39299SOL    HW119671  12.326   6.352   3.945
39299SOL    HW219672  12.235   6.320   3.828
39300SOL     OW19673   4.455   6.388   8.338
39300SOL    HW119674   4.491   6.476   8.345
39300SOL    HW219675   4.421   6.383   8.248
39301SOL     OW19676   7.025   0.001  12.424
39301SOL    HW119677   7.067   0.084  12.401
39301SOL    HW219678   7.058  14.858  12.512
39302SOL     OW19679   2.909   8.841   1.715
39302SOL    HW119680   2.889   8.933   1.734
39302SOL    HW219681   2.825   8.802   1.691
39303SOL     OW19682  11.036   6.148  12.146
39303SOL    HW119683  11.035   6.243  12.134
39303SOL    HW219684  11.124   6.129  12.180
39304SOL     OW19685   4.735   7.948   8.701
39304SOL    HW119686   4.788   7.938   8.780
39304SOL    HW219687   4.649   7.976   8.733
39305SOL     OW19688  11.968   0.652   5.981
39305SOL    HW119689  11.979   0.678   6.072
39305SOL    HW219690  11.880   0.614   5.976
39306SOL     OW19691   4.757   9.895   1.882
39306SOL    HW119692   4.847   9.904   1.915
39306SOL    HW219693   4.743   9.801   1.877
39307SOL     OW19694   7.595   7.669   5.846
39307SOL    HW119695   7.561   7.758   5.849
39307SOL    HW219696   7.680   7.675   5.889
39308SOL     OW19697   6.762   2.759   8.124
39308SOL    HW119698   6.712   2.685   8.089
39308SOL    HW219699   6.846   2.721   8.149
39309SOL     OW19700   3.350   1.618  11.983
39309SOL    HW119701   3.332   1.666  12.064
39309SOL    HW219702   3.287   1.654  11.921
39310SOL     OW19703   7.059   7.925  11.152
39310SOL    HW119704   7.009   7.906  11.073
39310SOL    HW219705   7.079   7.839  11.189
39311SOL     OW19706   7.033  14.120  11.903
39311SOL    HW119707   7.058  14.160  11.820
39311SOL    HW219708   7.019  14.194  11.962
39312SOL     OW19709   5.461  10.730  10.076
39312SOL    HW119710   5.374  10.767  10.091
39312SOL    HW219711   5.475  10.740   9.981
39313SOL     OW19712   7.183   0.595   1.803
39313SOL    HW119713   7.180   0.661   1.733
39313SOL    HW219714   7.155   0.514   1.761
39314SOL     OW19715   7.293   4.760  11.598
39314SOL    HW119716   7.346   4.706  11.657
39314SOL    HW219717   7.285   4.844  11.642
39315SOL     OW19718   9.309   4.055  12.597
39315SOL    HW119719   9.287   4.069  12.505
39315SOL    HW219720   9.382   4.115  12.613
39316SOL     OW19721  10.195   8.670   6.425
39316SOL    HW119722  10.209   8.757   6.388
39316SOL    HW219723  10.162   8.618   6.352
39317SOL     OW19724   4.887   9.596  11.278
39317SOL    HW119725   4.838   9.639  11.348
39317SOL    HW219726   4.855   9.635  11.197
39318SOL     OW19727   6.863   0.801   1.241
39318SOL    HW119728   6.796   0.772   1.178
39318SOL    HW219729   6.936   0.828   1.186
39319SOL     OW19730   6.862  10.271  10.879
39319SOL    HW119731   6.855  10.183  10.843
39319SOL    HW219732   6.854  10.259  10.974
39320SOL     OW19733   5.045   6.301   9.579
39320SOL    HW119734   5.043   6.346   9.664
39320SOL    HW219735   5.138   6.296   9.557
39321SOL     OW19736  14.441   8.388  11.559
39321SOL    HW119737  14.489   8.427  11.486
39321SOL    HW219738  14.350   8.383  11.528
39322SOL     OW19739  12.515   8.285  13.968
39322SOL    HW119740  12.518   8.310  13.876
39322SOL    HW219741  12.434   8.234  13.976
39323SOL     OW19742   1.141   6.869   5.532
39323SOL    HW119743   1.079   6.915   5.589
39323SOL    HW219744   1.155   6.785   5.576
39324SOL     OW19745  11.685   6.929   5.793
39324SOL    HW119746  11.718   6.899   5.878
39324SOL    HW219747  11.742   6.887   5.729
39325SOL     OW19748  13.421   6.997   9.251
39325SOL    HW119749  13.488   7.051   9.210
39325SOL    HW219750  13.366   7.058   9.298
39326SOL     OW19751   0.700   1.151   2.102
39326SOL    HW119752   0.701   1.152   2.007
39326SOL    HW219753   0.730   1.239   2.128
39327SOL     OW19754  13.671   1.191  10.681
39327SOL    HW119755  13.623   1.120  10.724
39327SOL    HW219756  13.710   1.151  10.604
39328SOL     OW19757   4.221   0.820   2.179
39328SOL    HW119758   4.295   0.814   2.118
39328SOL    HW219759   4.214   0.732   2.216
39329SOL     OW19760  11.341   7.718   1.874
39329SOL    HW119761  11.322   7.725   1.781
39329SOL    HW219762  11.257   7.695   1.914
39330SOL     OW19763  13.909   4.561   2.290
39330SOL    HW119764  13.886   4.484   2.239
39330SOL    HW219765  13.996   4.540   2.326
39331SOL     OW19766   3.044   2.752  12.689
39331SOL    HW119767   3.042   2.658  12.671
39331SOL    HW219768   3.055   2.793  12.603
39332SOL     OW19769  11.828   5.735  13.492
39332SOL    HW119770  11.778   5.696  13.420
39332SOL    HW219771  11.817   5.673  13.564
39333SOL     OW19772   5.912   8.473   9.096
39333SOL    HW119773   5.922   8.534   9.169
39333SOL    HW219774   5.832   8.425   9.116
39334SOL     OW19775  11.524   3.350   6.712
39334SOL    HW119776  11.601   3.372   6.763
39334SOL    HW219777  11.549   3.272   6.662
39335SOL     OW19778   2.207   9.102   1.010
39335SOL    HW119779   2.126   9.064   1.046
39335SOL    HW219780   2.258   9.124   1.088
39336SOL     OW19781   8.022   2.461   9.613
39336SOL    HW119782   8.011   2.531   9.677
39336SOL    HW219783   8.112   2.431   9.625
39337SOL     OW19784  12.446   1.691   0.642
39337SOL    HW119785  12.368   1.648   0.676
39337SOL    HW219786  12.442   1.676   0.547
39338SOL     OW19787   6.271  12.632  13.236
39338SOL    HW119788   6.354  12.677  13.223
39338SOL    HW219789   6.244  12.657  13.324
39339SOL     OW19790  13.833   7.527  11.267
39339SOL    HW119791  13.862   7.445  11.307
39339SOL    HW219792  13.738   7.526  11.277
39340SOL     OW19793  13.663  13.211   2.063
39340SOL    HW119794  13.686  13.286   2.117
39340SOL    HW219795  13.681  13.135   2.119
39341SOL     OW19796  11.579  12.002   6.675
39341SOL    HW119797  11.650  11.945   6.704
39341SOL    HW219798  11.515  12.000   6.746
39342SOL     OW19799  14.360   3.048   2.586
39342SOL    HW119800  14.314   2.969   2.614
39342SOL    HW219801  14.436   3.053   2.645
39343SOL     OW19802   4.381  13.686   9.497
39343SOL    HW119803   4.343  13.680   9.585
39343SOL    HW219804   4.476  13.685   9.512
39344SOL     OW19805   7.609  13.014  14.327
39344SOL    HW119806   7.531  13.065  14.350
39344SOL    HW219807   7.679  13.078  14.322
39345SOL     OW19808   2.673  14.623   0.372
39345SOL    HW119809   2.581  14.647   0.363
39345SOL    HW219810   2.716  14.663   0.296
39346SOL     OW19811   2.393   2.417   4.055
39346SOL    HW119812   2.453   2.484   4.023
39346SOL    HW219813   2.403   2.345   3.992
39347SOL     OW19814   2.169   3.632   9.547
39347SOL    HW119815   2.094   3.593   9.592
39347SOL    HW219816   2.233   3.562   9.542
39348SOL     OW19817   5.745   0.994  10.912
39348SOL    HW119818   5.764   0.991  10.818
39348SOL    HW219819   5.695   0.914  10.928
39349SOL     OW19820  14.312   2.355   1.339
39349SOL    HW119821  14.314   2.443   1.377
39349SOL    HW219822  14.342   2.298   1.410
39350SOL     OW19823  12.121   7.565   0.398
39350SOL    HW119824  12.027   7.555   0.380
39350SOL    HW219825  12.130   7.540   0.490
39351SOL     OW19826   0.026  13.259  11.581
39351SOL    HW119827   0.000  13.168  11.571
39351SOL    HW219828   0.121  13.259  11.574
39352SOL     OW19829   6.359   4.908  13.330
39352SOL    HW119830   6.376   4.991  13.285
39352SOL    HW219831   6.323   4.850  13.262
39353SOL     OW19832   9.308   0.143   2.048
39353SOL    HW119833   9.240   0.204   2.022
39353SOL    HW219834   9.287   0.062   2.002
39354SOL     OW19835   2.669  13.411   4.479
39354SOL    HW119836   2.696  13.475   4.413
39354SOL    HW219837   2.667  13.327   4.432
39355SOL     OW19838   2.688   6.273   7.957
39355SOL    HW119839   2.692   6.366   7.982
39355SOL    HW219840   2.769   6.235   7.991
39356SOL     OW19841  13.555   8.162  10.415
39356SOL    HW119842  13.520   8.221  10.348
39356SOL    HW219843  13.581   8.083  10.366
39357SOL     OW19844  13.535   8.539   7.482
39357SOL    HW119845  13.510   8.464   7.427
39357SOL    HW219846  13.527   8.506   7.572
39358SOL     OW19847   1.321  13.882   5.792
39358SOL    HW119848   1.238  13.844   5.820
39358SOL    HW219849   1.310  13.901   5.699
39359SOL     OW19850   6.998  10.572   2.151
39359SOL    HW119851   7.014  10.499   2.091
39359SOL    HW219852   6.903  10.587   2.145
39360SOL     OW19853   9.633   1.291   1.259
39360SOL    HW119854   9.615   1.198   1.241
39360SOL    HW219855   9.657   1.292   1.352
39361SOL     OW19856  14.739  14.171   5.947
39361SOL    HW119857  14.828  14.145   5.926
39361SOL    HW219858  14.721  14.130   6.032
39362SOL     OW19859  14.644   9.557   9.938
39362SOL    HW119860  14.554   9.587   9.929
39362SOL    HW219861  14.666   9.572  10.030
39363SOL     OW19862   3.147  14.070   6.090
39363SOL    HW119863   3.096  14.051   6.011
39363SOL    HW219864   3.148  14.166   6.095
39364SOL     OW19865  10.599   3.827   2.757
39364SOL    HW119866  10.613   3.855   2.847
39364SOL    HW219867  10.508   3.850   2.739
39365SOL     OW19868  13.030   5.275   9.603
39365SOL    HW119869  13.071   5.267   9.516
39365SOL    HW219870  12.974   5.352   9.596
39366SOL     OW19871  10.000  10.295   1.254
39366SOL    HW119872   9.971  10.376   1.296
39366SOL    HW219873  10.079  10.270   1.302
39367SOL     OW19874   3.176  10.351  14.175
39367SOL    HW119875   3.251  10.358  14.117
39367SOL    HW219876   3.213  10.329  14.261
39368SOL     OW19877   9.584  10.518   6.503
39368SOL    HW119878   9.577  10.599   6.554
39368SOL    HW219879   9.677  10.495   6.509
39369SOL     OW19880   2.858  12.473   8.111
39369SOL    HW119881   2.897  12.530   8.178
39369SOL    HW219882   2.857  12.386   8.151
39370SOL     OW19883   9.402   9.913  10.016
39370SOL    HW119884   9.420  10.003   9.990
39370SOL    HW219885   9.338   9.921  10.087
39371SOL     OW19886  10.739   4.261   0.172
39371SOL    HW119887  10.716   4.203   0.245
39371SOL    HW219888  10.792   4.206   0.114
39372SOL     OW19889   8.710   2.117   0.021
39372SOL    HW119890   8.789   2.166  14.877
39372SOL    HW219891   8.706   2.120   0.117
39373SOL     OW19892  11.304   1.520   6.797
39373SOL    HW119893  11.301   1.604   6.843
39373SOL    HW219894  11.261   1.537   6.713
39374SOL     OW19895   6.626   6.388   3.349
39374SOL    HW119896   6.704   6.350   3.388
39374SOL    HW219897   6.553   6.348   3.397
39375SOL     OW19898  14.574  11.991   4.778
39375SOL    HW119899  14.587  11.896   4.783
39375SOL    HW219900  14.533  12.014   4.862
39376SOL     OW19901  12.323  11.659  14.496
39376SOL    HW119902  12.354  11.599  14.429
39376SOL    HW219903  12.238  11.689  14.464
39377SOL     OW19904  10.546   9.082   5.335
39377SOL    HW119905  10.629   9.064   5.292
39377SOL    HW219906  10.570   9.125   5.417
39378SOL     OW19907  10.201  14.582   8.439
39378SOL    HW119908  10.275  14.541   8.396
39378SOL    HW219909  10.222  14.578   8.533
39379SOL     OW19910   9.686   4.672   4.127
39379SOL    HW119911   9.637   4.674   4.209
39379SOL    HW219912   9.745   4.596   4.136
39380SOL     OW19913   7.045  12.610   3.167
39380SOL    HW119914   7.091  12.692   3.147
39380SOL    HW219915   7.019  12.576   3.081
39381SOL     OW19916  12.052   7.557   9.293
39381SOL    HW119917  12.069   7.463   9.304
39381SOL    HW219918  11.978   7.575   9.352
39382SOL     OW19919  11.111  11.061  10.192
39382SOL    HW119920  11.044  11.038  10.257
39382SOL    HW219921  11.115  11.157  10.195
39383SOL     OW19922   3.556  11.842  12.392
39383SOL    HW119923   3.589  11.923  12.352
39383SOL    HW219924   3.538  11.784  12.317
39384SOL     OW19925   7.985   2.582   8.185
39384SOL    HW119926   7.970   2.675   8.169
39384SOL    HW219927   7.939   2.538   8.113
39385SOL     OW19928  12.119   4.976  11.692
39385SOL    HW119929  12.039   5.028  11.689
39385SOL    HW219930  12.160   4.989  11.607
39386SOL     OW19931   8.813   4.239  11.943
39386SOL    HW119932   8.888   4.189  11.975
39386SOL    HW219933   8.847   4.327  11.928
39387SOL     OW19934  13.706  10.456  10.946
39387SOL    HW119935  13.729  10.444  10.854
39387SOL    HW219936  13.620  10.414  10.955
39388SOL     OW19937   8.900   2.740   1.862
39388SOL    HW119938   8.829   2.794   1.827
39388SOL    HW219939   8.860   2.693   1.935
39389SOL     OW19940   9.842   2.843   8.378
39389SOL    HW119941   9.847   2.922   8.325
39389SOL    HW219942   9.858   2.873   8.468
39390SOL     OW19943   0.775   7.435  14.070
39390SOL    HW119944   0.854   7.424  14.123
39390SOL    HW219945   0.750   7.346  14.047
39391SOL     OW19946   9.890  14.525   4.886
39391SOL    HW119947   9.906  14.526   4.792
39391SOL    HW219948   9.975  14.542   4.926
39392SOL     OW19949  13.067   9.628   1.573
39392SOL    HW119950  12.980   9.592   1.559
39392SOL    HW219951  13.125   9.552   1.580
39393SOL     OW19952   4.335   1.991   0.272
39393SOL    HW119953   4.380   2.000   0.356
39393SOL    HW219954   4.288   1.907   0.279
39394SOL     OW19955   9.662   2.947   8.986
39394SOL    HW119956   9.594   2.971   9.050
39394SOL    HW219957   9.621   2.878   8.933
39395SOL     OW19958   7.365  14.607  13.062
39395SOL    HW119959   7.432  14.575  13.123
39395SOL    HW219960   7.380  14.557  12.982
39396SOL     OW19961  12.070  13.404  13.881
39396SOL    HW119962  12.098  13.313  13.882
39396SOL    HW219963  12.149  13.453  13.858
39397SOL     OW19964   0.108  12.725  13.126
39397SOL    HW119965   0.135  12.814  13.106
39397SOL    HW219966   0.040  12.735  13.193
39398SOL     OW19967   8.932   1.729   2.446
39398SOL    HW119968   9.024   1.752   2.434
39398SOL    HW219969   8.916   1.740   2.539
39399SOL     OW19970  11.589   6.483  13.815
39399SOL    HW119971  11.667   6.428  13.823
39399SOL    HW219972  11.621   6.572  13.828
39400SOL     OW19973  11.787  12.106  11.200
39400SOL    HW119974  11.790  12.190  11.156
39400SOL    HW219975  11.726  12.120  11.273
39401SOL     OW19976   5.142   0.605  12.679
39401SOL    HW119977   5.087   0.545  12.729
39401SOL    HW219978   5.138   0.688  12.727
39402SOL     OW19979   6.856  10.528   6.196
39402SOL    HW119980   6.769  10.536   6.237
39402SOL    HW219981   6.907  10.600   6.233
39403SOL     OW19982   7.517   0.210   5.150
39403SOL    HW119983   7.510   0.174   5.238
39403SOL    HW219984   7.553   0.298   5.163
39404SOL     OW19985  13.274   4.427   8.304
39404SOL    HW119986  13.230   4.424   8.389
39404SOL    HW219987  13.236   4.353   8.256
39405SOL     OW19988   1.840   8.416  14.315
39405SOL    HW119989   1.786   8.339  14.300
39405SOL    HW219990   1.815   8.477  14.245
39406SOL     OW19991   3.112   3.086   8.296
39406SOL    HW119992   3.119   3.047   8.383
39406SOL    HW219993   3.202   3.110   8.273
39407SOL     OW19994  11.691  13.947   6.161
39407SOL    HW119995  11.659  14.023   6.111
39407SOL    HW219996  11.623  13.932   6.227
39408SOL     OW19997  14.606   8.849   9.097
39408SOL    HW119998  14.672   8.787   9.129
39408SOL    HW219999  14.617   8.848   9.002
39409SOL     OW20000   4.850  13.842   3.805
39409SOL    HW120001   4.850  13.771   3.869
39409SOL    HW220002   4.943  13.863   3.794
39410SOL     OW20003  12.868   4.431   9.173
39410SOL    HW120004  12.786   4.420   9.124
39410SOL    HW220005  12.852   4.509   9.226
39411SOL     OW20006  14.826   9.588   1.327
39411SOL    HW120007  14.732   9.594   1.311
39411SOL    HW220008  14.863   9.559   1.244
39412SOL     OW20009  14.800   7.137   0.418
39412SOL    HW120010  14.788   7.055   0.465
39412SOL    HW220011  14.745   7.200   0.465
39413SOL     OW20012   3.239   2.679   2.353
39413SOL    HW120013   3.287   2.671   2.436
39413SOL    HW220014   3.272   2.761   2.315
39414SOL     OW20015  12.943   0.567   1.947
39414SOL    HW120016  12.900   0.628   2.006
39414SOL    HW220017  12.923   0.600   1.859
39415SOL     OW20018   1.488  14.397   3.327
39415SOL    HW120019   1.547  14.348   3.385
39415SOL    HW220020   1.412  14.417   3.382
39416SOL     OW20021  13.833   3.585  14.831
39416SOL    HW120022  13.819   3.540   0.037
39416SOL    HW220023  13.810   3.520  14.765
39417SOL     OW20024  10.907   6.528   6.651
39417SOL    HW120025  10.820   6.488   6.651
39417SOL    HW220026  10.949   6.495   6.572
39418SOL     OW20027   7.025  11.752   8.682
39418SOL    HW120028   6.994  11.742   8.772
39418SOL    HW220029   7.120  11.744   8.688
39419SOL     OW20030   5.656  10.444   8.505
39419SOL    HW120031   5.575  10.441   8.455
39419SOL    HW220032   5.640  10.511   8.572
39420SOL     OW20033   3.169   0.489  13.516
39420SOL    HW120034   3.199   0.499  13.426
39420SOL    HW220035   3.232   0.429  13.556
39421SOL     OW20036  11.310  13.580  10.742
39421SOL    HW120037  11.378  13.641  10.713
39421SOL    HW220038  11.234  13.635  10.759
39422SOL     OW20039   6.489  14.205   4.193
39422SOL    HW120040   6.492  14.139   4.262
39422SOL    HW220041   6.433  14.274   4.227
39423SOL     OW20042   2.972  14.019  12.681
39423SOL    HW120043   2.963  14.103  12.727
39423SOL    HW220044   3.026  13.966  12.739
39424SOL     OW20045   6.382  12.425   6.292
39424SOL    HW120046   6.327  12.349   6.273
39424SOL    HW220047   6.402  12.462   6.206
39425SOL     OW20048  13.612   6.118  13.944
39425SOL    HW120049  13.670   6.133  14.019
39425SOL    HW220050  13.643   6.035  13.907
39426SOL     OW20051   9.288  14.348  10.639
39426SOL    HW120052   9.343  14.361  10.716
39426SOL    HW220053   9.314  14.417  10.579
39427SOL     OW20054   2.908  12.198  13.457
39427SOL    HW120055   2.924  12.280  13.411
39427SOL    HW220056   2.989  12.182  13.507
39428SOL     OW20057  13.382   1.308   7.361
39428SOL    HW120058  13.293   1.274   7.354
39428SOL    HW220059  13.434   1.234   7.394
39429SOL     OW20060   0.307   5.171   0.026
39429SOL    HW120061   0.316   5.174  14.808
39429SOL    HW220062   0.275   5.082   0.044
39430SOL     OW20063   8.539   6.641   3.205
39430SOL    HW120064   8.463   6.618   3.152
39430SOL    HW220065   8.567   6.558   3.243
39431SOL     OW20066   2.090   4.387   4.766
39431SOL    HW120067   2.067   4.456   4.703
39431SOL    HW220068   2.044   4.310   4.733
39432SOL     OW20069   8.990   6.081  10.371
39432SOL    HW120070   8.988   5.989  10.397
39432SOL    HW220071   8.907   6.095  10.326
39433SOL     OW20072   3.643   3.390  11.487
39433SOL    HW120073   3.588   3.408  11.563
39433SOL    HW220074   3.580   3.374  11.416
39434SOL     OW20075   1.482   8.107   1.459
39434SOL    HW120076   1.511   8.136   1.545
39434SOL    HW220077   1.389   8.090   1.470
39435SOL     OW20078   6.722   6.996  10.300
39435SOL    HW120079   6.749   6.909  10.270
39435SOL    HW220080   6.782   7.056  10.255
39436SOL     OW20081  12.923   2.445   6.217
39436SOL    HW120082  12.850   2.476   6.271
39436SOL    HW220083  12.983   2.404   6.278
39437SOL     OW20084  10.263   7.653  13.629
39437SOL    HW120085  10.359   7.643  13.628
39437SOL    HW220086  10.247   7.725  13.690
39438SOL     OW20087  12.684   3.558   6.065
39438SOL    HW120088  12.764   3.602   6.035
39438SOL    HW220089  12.616   3.590   6.004
39439SOL     OW20090   8.519   1.792   4.260
39439SOL    HW120091   8.525   1.698   4.278
39439SOL    HW220092   8.606   1.826   4.279
39440SOL     OW20093  13.191   0.485   8.236
39440SOL    HW120094  13.186   0.413   8.173
39440SOL    HW220095  13.113   0.475   8.290
39441SOL     OW20096   2.585  12.037   5.915
39441SOL    HW120097   2.555  12.049   6.005
39441SOL    HW220098   2.652  12.105   5.903
39442SOL     OW20099   5.669   0.277   0.997
39442SOL    HW120100   5.665   0.223   0.918
39442SOL    HW220101   5.578   0.285   1.025
39443SOL     OW20102  10.128   9.374   3.953
39443SOL    HW120103  10.163   9.289   3.980
39443SOL    HW220104  10.051   9.387   4.008
39444SOL     OW20105   8.878  13.114   3.596
39444SOL    HW120106   8.966  13.149   3.582
39444SOL    HW220107   8.888  13.020   3.586
39445SOL     OW20108  10.944   3.500   0.619
39445SOL    HW120109  11.039   3.499   0.609
39445SOL    HW220110  10.911   3.522   0.532
39446SOL     OW20111  14.586  12.656   8.038
39446SOL    HW120112  14.521  12.649   7.969
39446SOL    HW220113  14.589  12.569   8.078
39447SOL     OW20114  10.015   3.448  10.972
39447SOL    HW120115  10.093   3.399  10.948
39447SOL    HW220116   9.987   3.491  10.891
39448SOL     OW20117   2.507   3.260  11.127
39448SOL    HW120118   2.431   3.203  11.141
39448SOL    HW220119   2.579   3.200  11.107
39449SOL     OW20120   3.583   9.892   5.676
39449SOL    HW120121   3.524   9.947   5.625
39449SOL    HW220122   3.615   9.827   5.614
39450SOL     OW20123   1.918   0.814   6.734
39450SOL    HW120124   1.913   0.783   6.824
39450SOL    HW220125   1.859   0.889   6.731
39451SOL     OW20126  13.045   8.075   3.494
39451SOL    HW120127  13.076   8.008   3.432
39451SOL    HW220128  12.999   8.138   3.439
39452SOL     OW20129   6.719   8.438  13.445
39452SOL    HW120130   6.672   8.361  13.477
39452SOL    HW220131   6.778   8.404  13.377
39453SOL     OW20132  12.368   4.196  11.786
39453SOL    HW120133  12.302   4.261  11.811
39453SOL    HW220134  12.370   4.135  11.860
39454SOL     OW20135  12.662   1.084  10.675
39454SOL    HW120136  12.663   1.122  10.763
39454SOL    HW220137  12.581   1.117  10.636
39455SOL     OW20138   2.509   9.719  13.421
39455SOL    HW120139   2.512   9.783  13.351
39455SOL    HW220140   2.509   9.634  13.376
39456SOL     OW20141  10.694   9.679   8.890
39456SOL    HW120142  10.639   9.606   8.860
39456SOL    HW220143  10.776   9.667   8.842
39457SOL     OW20144  13.725   1.036   9.689
39457SOL    HW120145  13.647   0.996   9.651
39457SOL    HW220146  13.797   0.976   9.668
39458SOL     OW20147   5.801   3.400  10.035
39458SOL    HW120148   5.773   3.340   9.967
39458SOL    HW220149   5.759   3.367  10.115
39459SOL     OW20150  10.493  10.281   9.710
39459SOL    HW120151  10.420  10.245   9.658
39459SOL    HW220152  10.450  10.326   9.783
39460SOL     OW20153  12.826   7.023  12.677
39460SOL    HW120154  12.881   6.965  12.730
39460SOL    HW220155  12.816   6.978  12.594
39461SOL     OW20156   7.743   3.360   9.876
39461SOL    HW120157   7.764   3.429   9.939
39461SOL    HW220158   7.795   3.381   9.799
39462SOL     OW20159   8.336   5.129   1.242
39462SOL    HW120160   8.387   5.168   1.171
39462SOL    HW220161   8.387   5.052   1.269
39463SOL     OW20162  13.602  12.960  11.851
39463SOL    HW120163  13.615  12.875  11.809
39463SOL    HW220164  13.636  12.949  11.940
39464SOL     OW20165   3.291  12.472   4.181
39464SOL    HW120166   3.219  12.508   4.233
39464SOL    HW220167   3.360  12.455   4.244
39465SOL     OW20168   9.450  12.685   2.527
39465SOL    HW120169   9.445  12.601   2.572
39465SOL    HW220170   9.468  12.749   2.596
39466SOL     OW20171  14.397   1.515   0.027
39466SOL    HW120172  14.399   1.461  14.825
39466SOL    HW220173  14.352   1.595  14.877
39467SOL     OW20174  10.876   2.446   8.373
39467SOL    HW120175  10.833   2.513   8.320
39467SOL    HW220176  10.809   2.380   8.388
39468SOL     OW20177   3.828  10.104  10.036
39468SOL    HW120178   3.817  10.198  10.029
39468SOL    HW220179   3.835  10.074   9.946
39469SOL     OW20180   4.057   4.241  14.340
39469SOL    HW120181   4.019   4.211  14.422
39469SOL    HW220182   4.021   4.181  14.274
39470SOL     OW20183  14.066  11.781  10.843
39470SOL    HW120184  14.112  11.740  10.917
39470SOL    HW220185  14.134  11.794  10.777
39471SOL     OW20186  13.172   2.142  10.876
39471SOL    HW120187  13.189   2.235  10.868
39471SOL    HW220188  13.230   2.101  10.812
39472SOL     OW20189   0.478   6.126   4.014
39472SOL    HW120190   0.533   6.187   3.965
39472SOL    HW220191   0.524   6.043   4.011
39473SOL     OW20192   1.958   5.092  14.450
39473SOL    HW120193   2.002   5.142  14.382
39473SOL    HW220194   2.025   5.030  14.481
39474SOL     OW20195   2.014   8.020  12.822
39474SOL    HW120196   2.036   8.111  12.840
39474SOL    HW220197   1.946   8.024  12.755
39475SOL     OW20198   5.069   0.090   6.012
39475SOL    HW120199   5.076   0.138   5.929
39475SOL    HW220200   5.035   0.004   5.986
39476SOL     OW20201   2.281   0.934  14.112
39476SOL    HW120202   2.275   0.914  14.205
39476SOL    HW220203   2.373   0.954  14.098
39477SOL     OW20204   7.604  11.176   4.391
39477SOL    HW120205   7.697  11.195   4.382
39477SOL    HW220206   7.565  11.261   4.413
39478SOL     OW20207   5.243   9.756   0.422
39478SOL    HW120208   5.331   9.791   0.437
39478SOL    HW220209   5.236   9.748   0.326
39479SOL     OW20210  10.219  10.356  13.688
39479SOL    HW120211  10.176  10.435  13.721
39479SOL    HW220212  10.168  10.283  13.724
39480SOL     OW20213  13.490   1.122   5.030
39480SOL    HW120214  13.412   1.076   4.998
39480SOL    HW220215  13.456   1.188   5.090
39481SOL     OW20216   6.173   0.730   4.767
39481SOL    HW120217   6.165   0.733   4.862
39481SOL    HW220218   6.118   0.657   4.740
39482SOL     OW20219   1.729   5.827   1.709
39482SOL    HW120220   1.775   5.893   1.761
39482SOL    HW220221   1.719   5.868   1.623
39483SOL     OW20222   6.471   5.676   6.413
39483SOL    HW120223   6.486   5.678   6.507
39483SOL    HW220224   6.399   5.614   6.401
39484SOL     OW20225  10.305   1.136   0.960
39484SOL    HW120226  10.287   1.057   1.012
39484SOL    HW220227  10.387   1.170   0.997
39485SOL     OW20228  14.789   4.052   5.800
39485SOL    HW120229  14.830   3.971   5.769
39485SOL    HW220230  14.813   4.057   5.892
39486SOL     OW20231   9.050   4.470  13.872
39486SOL    HW120232   8.976   4.504  13.923
39486SOL    HW220233   9.053   4.377  13.893
39487SOL     OW20234  13.788  13.699   4.239
39487SOL    HW120235  13.739  13.781   4.250
39487SOL    HW220236  13.814  13.675   4.328
39488SOL     OW20237  10.612   1.808   8.279
39488SOL    HW120238  10.552   1.785   8.208
39488SOL    HW220239  10.693   1.832   8.235
39489SOL     OW20240   9.091  14.460  11.482
39489SOL    HW120241   9.001  14.464  11.514
39489SOL    HW220242   9.124  14.375  11.513
39490SOL     OW20243   8.814   0.572   1.389
39490SOL    HW120244   8.769   0.656   1.395
39490SOL    HW220245   8.827   0.557   1.295
39491SOL     OW20246  14.427   3.814   2.690
39491SOL    HW120247  14.357   3.756   2.659
39491SOL    HW220248  14.437   3.791   2.783
39492SOL     OW20249   3.543  13.709   6.269
39492SOL    HW120250   3.457  13.707   6.228
39492SOL    HW220251   3.597  13.760   6.209
39493SOL     OW20252   9.107  10.877  14.227
39493SOL    HW120253   9.103  10.973  14.230
39493SOL    HW220254   9.088  10.855  14.136
39494SOL     OW20255   5.516   7.333   8.546
39494SOL    HW120256   5.572   7.338   8.623
39494SOL    HW220257   5.427   7.348   8.580
39495SOL     OW20258   6.308   1.784   6.671
39495SOL    HW120259   6.250   1.851   6.709
39495SOL    HW220260   6.251   1.733   6.614
39496SOL     OW20261   0.708  12.257   5.264
39496SOL    HW120262   0.659  12.249   5.345
39496SOL    HW220263   0.761  12.177   5.260
39497SOL     OW20264   5.295   0.114   9.783
39497SOL    HW120265   5.321   0.190   9.834
39497SOL    HW220266   5.266   0.150   9.699
39498SOL     OW20267  10.245  10.964   4.300
39498SOL    HW120268  10.194  10.893   4.340
39498SOL    HW220269  10.335  10.946   4.327
39499SOL     OW20270   2.711   4.448  12.277
39499SOL    HW120271   2.623   4.430  12.312
39499SOL    HW220272   2.695   4.489  12.192
39500SOL     OW20273  10.514  13.892  14.436
39500SOL    HW120274  10.490  13.871  14.527
39500SOL    HW220275  10.432  13.885  14.388
39501SOL     OW20276   5.290   5.803   2.322
39501SOL    HW120277   5.275   5.709   2.312
39501SOL    HW220278   5.357   5.810   2.390
39502SOL     OW20279   4.085   5.570  13.895
39502SOL    HW120280   4.041   5.535  13.817
39502SOL    HW220281   4.038   5.532  13.969
39503SOL     OW20282   6.218  12.833   0.023
39503SOL    HW120283   6.267  12.826   0.105
39503SOL    HW220284   6.284  12.856  14.835
39504SOL     OW20285   7.655  12.584   7.817
39504SOL    HW120286   7.612  12.545   7.742
39504SOL    HW220287   7.686  12.510   7.869
39505SOL     OW20288   7.386   9.621   6.987
39505SOL    HW120289   7.429   9.641   6.904
39505SOL    HW220290   7.412   9.692   7.045
39506SOL     OW20291  14.080   1.503   2.476
39506SOL    HW120292  14.073   1.441   2.403
39506SOL    HW220293  14.136   1.458   2.539
39507SOL     OW20294  11.156   7.841  11.192
39507SOL    HW120295  11.194   7.927  11.173
39507SOL    HW220296  11.173   7.790  11.113
39508SOL     OW20297   2.476  12.505   2.375
39508SOL    HW120298   2.455  12.488   2.467
39508SOL    HW220299   2.443  12.429   2.328
39509SOL     OW20300   2.382   2.864   9.840
39509SOL    HW120301   2.468   2.822   9.838
39509SOL    HW220302   2.320   2.792   9.851
39510SOL     OW20303  12.912   7.829   6.878
39510SOL    HW120304  12.961   7.783   6.946
39510SOL    HW220305  12.865   7.898   6.924
39511SOL     OW20306   8.570   0.794   0.365
39511SOL    HW120307   8.546   0.704   0.390
39511SOL    HW220308   8.664   0.790   0.351
39512SOL     OW20309   3.248  10.088   3.762
39512SOL    HW120310   3.324  10.115   3.710
39512SOL    HW220311   3.283  10.024   3.825
39513SOL     OW20312   7.339  13.147  14.429
39513SOL    HW120313   7.293  13.221  14.390
39513SOL    HW220314   7.393  13.186  14.498
39514SOL     OW20315   5.233   1.646   8.803
39514SOL    HW120316   5.258   1.739   8.804
39514SOL    HW220317   5.213   1.628   8.711
39515SOL     OW20318   0.892   2.862   7.572
39515SOL    HW120319   0.836   2.937   7.551
39515SOL    HW220320   0.845   2.787   7.537
39516SOL     OW20321   1.296  10.174  14.333
39516SOL    HW120322   1.346  10.255  14.324
39516SOL    HW220323   1.358  10.105  14.310
39517SOL     OW20324   9.366   8.604   4.586
39517SOL    HW120325   9.372   8.550   4.664
39517SOL    HW220326   9.403   8.689   4.613
39518SOL     OW20327  10.258  10.347  10.397
39518SOL    HW120328  10.202  10.283  10.352
39518SOL    HW220329  10.213  10.431  10.385
39519SOL     OW20330   2.382  13.509   4.285
39519SOL    HW120331   2.358  13.590   4.240
39519SOL    HW220332   2.451  13.472   4.231
39520SOL     OW20333   1.230   5.268   1.830
39520SOL    HW120334   1.303   5.267   1.769
39520SOL    HW220335   1.189   5.354   1.818
39521SOL     OW20336   2.026   7.076  14.643
39521SOL    HW120337   2.019   7.171  14.636
39521SOL    HW220338   1.983   7.043  14.564
39522SOL     OW20339   5.829  12.409  13.944
39522SOL    HW120340   5.767  12.337  13.949
39522SOL    HW220341   5.774  12.487  13.927
39523SOL     OW20342   9.911  10.669  10.792
39523SOL    HW120343   9.895  10.577  10.772
39523SOL    HW220344   9.919  10.672  10.888
39524SOL     OW20345   1.120   6.357   9.378
39524SOL    HW120346   1.183   6.336   9.448
39524SOL    HW220347   1.084   6.442   9.403
39525SOL     OW20348   0.182   5.094   2.319
39525SOL    HW120349   0.210   5.183   2.341
39525SOL    HW220350   0.217   5.040   2.390
39526SOL     OW20351   9.642   3.505  14.827
39526SOL    HW120352   9.670   3.474   0.036
39526SOL    HW220353   9.711   3.476  14.767
39527SOL     OW20354   9.355   7.567  10.265
39527SOL    HW120355   9.303   7.645  10.242
39527SOL    HW220356   9.379   7.529  10.180
39528SOL     OW20357  13.145   4.882   6.118
39528SOL    HW120358  13.142   4.977   6.109
39528SOL    HW220359  13.180   4.867   6.206
39529SOL     OW20360   1.622   4.289  12.599
39529SOL    HW120361   1.622   4.216  12.660
39529SOL    HW220362   1.701   4.338  12.621
39530SOL     OW20363   7.742   8.522  10.188
39530SOL    HW120364   7.773   8.441  10.229
39530SOL    HW220365   7.759   8.589  10.254
39531SOL     OW20366   2.938   1.178   1.462
39531SOL    HW120367   2.956   1.132   1.380
39531SOL    HW220368   2.930   1.107   1.527
39532SOL     OW20369   5.178  14.692   7.597
39532SOL    HW120370   5.198  14.783   7.575
39532SOL    HW220371   5.263  14.651   7.611
39533SOL     OW20372   5.085   3.153   1.117
39533SOL    HW120373   5.026   3.147   1.041
39533SOL    HW220374   5.032   3.195   1.185
39534SOL     OW20375  14.094   8.092   8.541
39534SOL    HW120376  14.010   8.126   8.510
39534SOL    HW220377  14.139   8.168   8.577
39535SOL     OW20378  13.323  12.982   9.465
39535SOL    HW120379  13.397  12.935   9.426
39535SOL    HW220380  13.251  12.918   9.463
39536SOL     OW20381   1.959   6.023   6.926
39536SOL    HW120382   2.046   6.059   6.910
39536SOL    HW220383   1.975   5.941   6.974
39537SOL     OW20384   6.706   2.175   9.961
39537SOL    HW120385   6.678   2.221   9.882
39537SOL    HW220386   6.801   2.188   9.964
39538SOL     OW20387   1.019  14.820  13.171
39538SOL    HW120388   0.962  14.761  13.121
39538SOL    HW220389   1.107  14.800  13.139
39539SOL     OW20390   6.999   9.275  11.334
39539SOL    HW120391   7.037   9.198  11.291
39539SOL    HW220392   7.071   9.313  11.384
39540SOL     OW20393   2.934   8.324   9.950
39540SOL    HW120394   3.001   8.284  10.005
39540SOL    HW220395   2.977   8.401   9.912
39541SOL     OW20396  13.181   4.119   1.073
39541SOL    HW120397  13.154   4.103   0.983
39541SOL    HW220398  13.099   4.133   1.120
39542SOL     OW20399   9.574  14.369  13.826
39542SOL    HW120400   9.665  14.365  13.796
39542SOL    HW220401   9.522  14.336  13.752
39543SOL     OW20402   7.815  12.667   5.794
39543SOL    HW120403   7.749  12.601   5.819
39543SOL    HW220404   7.879  12.663   5.865
39544SOL     OW20405   1.708  12.136   0.822
39544SOL    HW120406   1.687  12.117   0.913
39544SOL    HW220407   1.636  12.100   0.771
39545SOL     OW20408   9.570   5.075   8.520
39545SOL    HW120409   9.479   5.075   8.547
39545SOL    HW220410   9.586   4.986   8.488
39546SOL     OW20411   3.500  10.553   9.064
39546SOL    HW120412   3.489  10.588   8.976
39546SOL    HW220413   3.573  10.601   9.101
39547SOL     OW20414   7.980   6.799   5.001
39547SOL    HW120415   7.975   6.731   4.934
39547SOL    HW220416   7.891   6.804   5.037
39548SOL     OW20417   0.833   6.032  13.787
39548SOL    HW120418   0.830   6.128  13.793
39548SOL    HW220419   0.893   6.014  13.715
39549SOL     OW20420   6.615  12.650   7.285
39549SOL    HW120421   6.616  12.730   7.338
39549SOL    HW220422   6.522  12.631   7.272
39550SOL     OW20423   4.131   5.036  14.308
39550SOL    HW120424   4.127   4.956  14.360
39550SOL    HW220425   4.199   5.019  14.243
39551SOL     OW20426   6.848  11.193   5.816
39551SOL    HW120427   6.886  11.252   5.881
39551SOL    HW220428   6.762  11.171   5.851
39552SOL     OW20429  12.780   8.637   3.445
39552SOL    HW120430  12.783   8.716   3.499
39552SOL    HW220431  12.820   8.569   3.500
39553SOL     OW20432   6.673   5.909  12.541
39553SOL    HW120433   6.709   5.994  12.566
39553SOL    HW220434   6.687   5.853  12.618
39554SOL     OW20435   5.973   5.842  11.542
39554SOL    HW120436   5.878   5.839  11.553
39554SOL    HW220437   6.007   5.781  11.608
39555SOL     OW20438   2.499   3.080   3.742
39555SOL    HW120439   2.574   3.029   3.774
39555SOL    HW220440   2.422   3.034   3.776
39556SOL     OW20441   2.513   1.125  12.115
39556SOL    HW120442   2.506   1.217  12.089
39556SOL    HW220443   2.490   1.076  12.036
39557SOL     OW20444  12.586   6.509   8.416
39557SOL    HW120445  12.557   6.584   8.468
39557SOL    HW220446  12.681   6.505   8.431
39558SOL     OW20447  13.047   2.365  12.607
39558SOL    HW120448  13.024   2.279  12.571
39558SOL    HW220449  13.085   2.346  12.692
39559SOL     OW20450   7.400   2.498  11.553
39559SOL    HW120451   7.359   2.578  11.522
39559SOL    HW220452   7.460   2.473  11.482
39560SOL     OW20453   5.098   9.820  10.707
39560SOL    HW120454   5.149   9.846  10.784
39560SOL    HW220455   5.140   9.865  10.634
39561SOL     OW20456   9.804  13.101   1.009
39561SOL    HW120457   9.724  13.150   1.028
39561SOL    HW220458   9.782  13.010   1.029
39562SOL     OW20459   4.989   9.549   6.954
39562SOL    HW120460   5.025   9.534   7.042
39562SOL    HW220461   5.033   9.484   6.899
39563SOL     OW20462  10.637   1.282  13.143
39563SOL    HW120463  10.653   1.301  13.235
39563SOL    HW220464  10.724   1.280  13.103
39564SOL     OW20465   0.162   7.196  10.905
39564SOL    HW120466   0.236   7.135  10.906
39564SOL    HW220467   0.139   7.205  10.812
39565SOL     OW20468  13.925   9.962   4.298
39565SOL    HW120469  14.008  10.000   4.325
39565SOL    HW220470  13.935   9.868   4.313
39566SOL     OW20471   6.624  12.661  12.915
39566SOL    HW120472   6.683  12.603  12.868
39566SOL    HW220473   6.561  12.690  12.848
39567SOL     OW20474  14.462  10.239   2.719
39567SOL    HW120475  14.401  10.165   2.725
39567SOL    HW220476  14.511  10.236   2.802
39568SOL     OW20477   6.446   5.689  12.928
39568SOL    HW120478   6.489   5.618  12.976
39568SOL    HW220479   6.380   5.723  12.988
39569SOL     OW20480   9.831  13.769   5.350
39569SOL    HW120481   9.822  13.766   5.445
39569SOL    HW220482   9.808  13.681   5.321
39570SOL     OW20483   9.329   6.871   5.617
39570SOL    HW120484   9.234   6.866   5.606
39570SOL    HW220485   9.345   6.959   5.650
39571SOL     OW20486   6.668  12.828  12.615
39571SOL    HW120487   6.674  12.907  12.562
39571SOL    HW220488   6.679  12.756  12.553
39572SOL     OW20489   7.138   0.572   3.416
39572SOL    HW120490   7.183   0.516   3.353
39572SOL    HW220491   7.168   0.660   3.397
39573SOL     OW20492   0.097   4.024  10.838
39573SOL    HW120493   0.079   4.109  10.799
39573SOL    HW220494   0.073   3.961  10.770
39574SOL     OW20495   5.636  13.368  12.707
39574SOL    HW120496   5.731  13.368  12.712
39574SOL    HW220497   5.613  13.458  12.681
39575SOL     OW20498  11.223   3.400   8.787
39575SOL    HW120499  11.249   3.450   8.709
39575SOL    HW220500  11.232   3.463   8.859
39576SOL     OW20501   9.820  14.385  12.555
39576SOL    HW120502   9.907  14.419  12.537
39576SOL    HW220503   9.760  14.449  12.517
39577SOL     OW20504   7.534   4.362   0.494
39577SOL    HW120505   7.454   4.330   0.453
39577SOL    HW220506   7.506   4.440   0.542
39578SOL     OW20507   2.100   5.717   2.576
39578SOL    HW120508   2.126   5.636   2.621
39578SOL    HW220509   2.172   5.736   2.517
39579SOL     OW20510   8.135   5.714   8.960
39579SOL    HW120511   8.091   5.692   8.878
39579SOL    HW220512   8.087   5.789   8.993
39580SOL     OW20513   1.356  10.411   4.637
39580SOL    HW120514   1.441  10.446   4.609
39580SOL    HW220515   1.377  10.327   4.677
39581SOL     OW20516   6.464  12.270  13.256
39581SOL    HW120517   6.507  12.320  13.325
39581SOL    HW220518   6.371  12.291  13.265
39582SOL     OW20519   5.538  10.839   6.288
39582SOL    HW120520   5.563  10.887   6.209
39582SOL    HW220521   5.503  10.906   6.346
39583SOL     OW20522  12.390   0.040  10.418
39583SOL    HW120523  12.361  14.829  10.395
39583SOL    HW220524  12.358   0.094  10.346
39584SOL     OW20525   4.079  10.814   8.574
39584SOL    HW120526   4.078  10.909   8.578
39584SOL    HW220527   4.033  10.786   8.653
39585SOL     OW20528   2.733  13.696   9.496
39585SOL    HW120529   2.762  13.619   9.545
39585SOL    HW220530   2.728  13.666   9.405
39586SOL     OW20531   4.523   8.132   4.685
39586SOL    HW120532   4.611   8.131   4.722
39586SOL    HW220533   4.464   8.133   4.761
39587SOL     OW20534   6.797   9.626   0.058
39587SOL    HW120535   6.882   9.615   0.101
39587SOL    HW220536   6.810   9.591  14.847
39588SOL     OW20537   2.664  11.678   0.190
39588SOL    HW120538   2.719  11.756   0.187
39588SOL    HW220539   2.724  11.606   0.172
39589SOL     OW20540   4.850   9.137   2.568
39589SOL    HW120541   4.933   9.119   2.524
39589SOL    HW220542   4.791   9.069   2.536
39590SOL     OW20543   4.223  14.311   3.227
39590SOL    HW120544   4.262  14.367   3.160
39590SOL    HW220545   4.170  14.370   3.280
39591SOL     OW20546   7.032  10.341   1.990
39591SOL    HW120547   6.990  10.339   1.904
39591SOL    HW220548   7.113  10.290   1.978
39592SOL     OW20549  11.934   7.277  13.088
39592SOL    HW120550  11.908   7.284  12.997
39592SOL    HW220551  11.984   7.357  13.106
39593SOL     OW20552   0.429   9.319   5.546
39593SOL    HW120553   0.385   9.394   5.506
39593SOL    HW220554   0.463   9.354   5.629
39594SOL     OW20555   8.383   1.386  10.881
39594SOL    HW120556   8.366   1.480  10.893
39594SOL    HW220557   8.444   1.363  10.950
39595SOL     OW20558   8.794   7.740   4.193
39595SOL    HW120559   8.725   7.689   4.235
39595SOL    HW220560   8.804   7.701   4.106
39596SOL     OW20561   0.398   5.715   5.800
39596SOL    HW120562   0.357   5.801   5.796
39596SOL    HW220563   0.457   5.721   5.876
39597SOL     OW20564   3.747   9.166   1.355
39597SOL    HW120565   3.701   9.216   1.288
39597SOL    HW220566   3.680   9.145   1.420
39598SOL     OW20567   3.273   6.131  12.000
39598SOL    HW120568   3.185   6.093  11.997
39598SOL    HW220569   3.315   6.089  12.075
39599SOL     OW20570   9.922   6.128   6.252
39599SOL    HW120571   9.967   6.187   6.313
39599SOL    HW220572   9.954   6.041   6.277
39600SOL     OW20573   6.579   8.945   9.132
39600SOL    HW120574   6.672   8.929   9.150
39600SOL    HW220575   6.579   9.005   9.058
39601SOL     OW20576  12.630   3.480   3.777
39601SOL    HW120577  12.706   3.462   3.722
39601SOL    HW220578  12.621   3.575   3.775
39602SOL     OW20579  13.552   2.168   6.426
39602SOL    HW120580  13.582   2.259   6.436
39602SOL    HW220581  13.457   2.174   6.421
39603SOL     OW20582   7.092   2.853   7.931
39603SOL    HW120583   7.042   2.931   7.907
39603SOL    HW220584   7.184   2.881   7.927
39604SOL     OW20585  11.642   2.335   7.668
39604SOL    HW120586  11.647   2.246   7.701
39604SOL    HW220587  11.713   2.341   7.604
39605SOL     OW20588   8.861   4.823   5.506
39605SOL    HW120589   8.871   4.857   5.595
39605SOL    HW220590   8.896   4.735   5.510
39606SOL     OW20591   5.969   8.664   9.405
39606SOL    HW120592   5.957   8.572   9.432
39606SOL    HW220593   6.061   8.682   9.423
39607SOL     OW20594   1.182   6.678   1.375
39607SOL    HW120595   1.267   6.633   1.379
39607SOL    HW220596   1.156   6.674   1.283
39608SOL     OW20597   5.583   3.452   1.543
39608SOL    HW120598   5.662   3.397   1.551
39608SOL    HW220599   5.512   3.395   1.572
39609SOL     OW20600   8.308   2.207  13.509
39609SOL    HW120601   8.230   2.153  13.499
39609SOL    HW220602   8.364   2.182  13.435
39610SOL     OW20603  12.901   3.983   0.125
39610SOL    HW120604  12.982   4.022   0.090
39610SOL    HW220605  12.925   3.953   0.213
39611SOL     OW20606   3.199   5.571  11.445
39611SOL    HW120607   3.135   5.638  11.420
39611SOL    HW220608   3.196   5.507  11.374
39612SOL     OW20609   1.741   9.673  11.301
39612SOL    HW120610   1.658   9.674  11.253
39612SOL    HW220611   1.796   9.613  11.252
39613SOL     OW20612   3.152  11.415   7.164
39613SOL    HW120613   3.138  11.506   7.136
39613SOL    HW220614   3.068  11.387   7.200
39614SOL     OW20615   4.060   7.199   3.317
39614SOL    HW120616   4.025   7.232   3.234
39614SOL    HW220617   4.145   7.243   3.327
39615SOL     OW20618   8.332   8.066   1.565
39615SOL    HW120619   8.360   8.032   1.650
39615SOL    HW220620   8.257   8.013   1.541
39616SOL     OW20621  13.457   0.450  11.182
39616SOL    HW120622  13.441   0.447  11.088
39616SOL    HW220623  13.524   0.382  11.197
39617SOL     OW20624   7.447   0.811   2.113
39617SOL    HW120625   7.502   0.776   2.043
39617SOL    HW220626   7.506   0.867   2.164
39618SOL     OW20627   0.273   9.054   0.434
39618SOL    HW120628   0.249   9.119   0.367
39618SOL    HW220629   0.328   8.991   0.387
39619SOL     OW20630  13.191   6.898  14.548
39619SOL    HW120631  13.147   6.961  14.606
39619SOL    HW220632  13.242   6.843  14.606
39620SOL     OW20633   9.975  11.219   8.600
39620SOL    HW120634  10.068  11.232   8.584
39620SOL    HW220635   9.960  11.127   8.579
39621SOL     OW20636   0.290  12.155   9.205
39621SOL    HW120637   0.351  12.225   9.183
39621SOL    HW220638   0.218  12.164   9.143
39622SOL     OW20639   0.667  13.684   7.645
39622SOL    HW120640   0.720  13.678   7.566
39622SOL    HW220641   0.711  13.748   7.700
39623SOL     OW20642  11.830  12.215  13.805
39623SOL    HW120643  11.908  12.256  13.842
39623SOL    HW220644  11.850  12.203  13.712
39624SOL     OW20645   2.420   4.398  10.395
39624SOL    HW120646   2.359   4.332  10.364
39624SOL    HW220647   2.377   4.438  10.471
39625SOL     OW20648  13.798  12.474  10.124
39625SOL    HW120649  13.813  12.403  10.187
39625SOL    HW220650  13.843  12.549  10.162
39626SOL     OW20651   3.712   8.327   6.731
39626SOL    HW120652   3.705   8.359   6.821
39626SOL    HW220653   3.680   8.399   6.677
39627SOL     OW20654   8.170   1.702   9.326
39627SOL    HW120655   8.117   1.687   9.248
39627SOL    HW220656   8.139   1.637   9.389
39628SOL     OW20657   2.012   7.520   5.047
39628SOL    HW120658   2.083   7.479   5.097
39628SOL    HW220659   1.932   7.481   5.082
39629SOL     OW20660   0.023  11.112   6.769
39629SOL    HW120661   0.051  11.102   6.860
39629SOL    HW220662   0.075  11.048   6.720
39630SOL     OW20663  10.717  13.443   9.329
39630SOL    HW120664  10.646  13.410   9.273
39630SOL    HW220665  10.690  13.420   9.418
39631SOL     OW20666  14.642   7.834   7.034
39631SOL    HW120667  14.619   7.915   6.989
39631SOL    HW220668  14.687   7.862   7.114
39632SOL     OW20669  10.710   2.938   9.240
39632SOL    HW120670  10.798   2.963   9.269
39632SOL    HW220671  10.653   2.965   9.312
39633SOL     OW20672   8.731  10.588   8.435
39633SOL    HW120673   8.824  10.579   8.457
39633SOL    HW220674   8.712  10.514   8.377
39634SOL     OW20675  11.421   0.658   2.215
39634SOL    HW120676  11.345   0.658   2.157
39634SOL    HW220677  11.384   0.655   2.303
39635SOL     OW20678   6.899   6.446  10.488
39635SOL    HW120679   6.813   6.413  10.512
39635SOL    HW220680   6.892   6.541  10.498
39636SOL     OW20681  12.843  13.943   2.192
39636SOL    HW120682  12.763  13.916   2.237
39636SOL    HW220683  12.827  14.033   2.166
39637SOL     OW20684  14.694   3.216   8.456
39637SOL    HW120685  14.602   3.236   8.438
39637SOL    HW220686  14.696   3.190   8.549
39638SOL     OW20687   7.309   5.094   5.072
39638SOL    HW120688   7.333   5.181   5.038
39638SOL    HW220689   7.296   5.109   5.166
39639SOL     OW20690  11.876   3.358   1.983
39639SOL    HW120691  11.917   3.445   1.982
39639SOL    HW220692  11.815   3.362   2.057
39640SOL     OW20693  14.363   5.740  12.557
39640SOL    HW120694  14.445   5.710  12.518
39640SOL    HW220695  14.381   5.830  12.583
39641SOL     OW20696  14.510   8.397  10.173
39641SOL    HW120697  14.537   8.479  10.214
39641SOL    HW220698  14.440   8.422  10.113
39642SOL     OW20699   1.409  11.704  10.068
39642SOL    HW120700   1.482  11.657  10.029
39642SOL    HW220701   1.449  11.777  10.115
39643SOL     OW20702   8.582  12.773   9.695
39643SOL    HW120703   8.535  12.787   9.777
39643SOL    HW220704   8.521  12.804   9.628
39644SOL     OW20705  14.322   4.892   0.015
39644SOL    HW120706  14.407   4.870  14.854
39644SOL    HW220707  14.339   4.967   0.071
39645SOL     OW20708   2.689   0.125  13.651
39645SOL    HW120709   2.595   0.111  13.647
39645SOL    HW220710   2.700   0.220  13.652
39646SOL     OW20711   1.531   1.198   2.589
39646SOL    HW120712   1.572   1.283   2.580
39646SOL    HW220713   1.460   1.213   2.652
39647SOL     OW20714   4.787   8.469  11.327
39647SOL    HW120715   4.700   8.498  11.299
39647SOL    HW220716   4.815   8.408  11.259
39648SOL     OW20717   6.094   8.274   1.708
39648SOL    HW120718   6.060   8.221   1.636
39648SOL    HW220719   6.017   8.320   1.742
39649SOL     OW20720   2.846  12.480  10.213
39649SOL    HW120721   2.814  12.466  10.302
39649SOL    HW220722   2.878  12.570  10.212
39650SOL     OW20723   6.248  12.387   3.384
39650SOL    HW120724   6.293  12.456   3.433
39650SOL    HW220725   6.228  12.427   3.299
39651SOL     OW20726  10.587  11.305   8.801
39651SOL    HW120727  10.564  11.229   8.853
39651SOL    HW220728  10.681  11.317   8.814
39652SOL     OW20729  13.218  11.122   4.417
39652SOL    HW120730  13.276  11.134   4.492
39652SOL    HW220731  13.134  11.097   4.455
39653SOL     OW20732  11.984   4.133  13.702
39653SOL    HW120733  11.943   4.192  13.639
39653SOL    HW220734  11.934   4.051  13.693
39654SOL     OW20735   2.712   2.704  14.545
39654SOL    HW120736   2.739   2.743  14.628
39654SOL    HW220737   2.715   2.610  14.560
39655SOL     OW20738  10.596   1.949   8.579
39655SOL    HW120739  10.612   1.859   8.549
39655SOL    HW220740  10.512   1.945   8.625
39656SOL     OW20741   3.460   1.833   4.433
39656SOL    HW120742   3.532   1.894   4.451
39656SOL    HW220743   3.503   1.756   4.395
39657SOL     OW20744  13.696   6.173   8.132
39657SOL    HW120745  13.682   6.225   8.211
39657SOL    HW220746  13.761   6.223   8.082
39658SOL     OW20747   0.074   6.053  11.321
39658SOL    HW120748   0.144   6.088  11.268
39658SOL    HW220749   0.063   6.116  11.392
39659SOL     OW20750   2.990  12.268   9.866
39659SOL    HW120751   3.010  12.362   9.862
39659SOL    HW220752   2.897  12.264   9.890
39660SOL     OW20753   2.205  14.370   9.368
39660SOL    HW120754   2.156  14.363   9.450
39660SOL    HW220755   2.225  14.463   9.359
39661SOL     OW20756   3.669   2.242   7.593
39661SOL    HW120757   3.611   2.185   7.542
39661SOL    HW220758   3.666   2.326   7.548
39662SOL     OW20759   8.190  14.845   5.268
39662SOL    HW120760   8.239   0.042   5.305
39662SOL    HW220761   8.181  14.867   5.175
39663SOL     OW20762  13.026  14.329  14.830
39663SOL    HW120763  12.969  14.261  14.794
39663SOL    HW220764  13.083  14.284   0.014
39664SOL     OW20765   0.325   4.506  13.081
39664SOL    HW120766   0.417   4.483  13.095
39664SOL    HW220767   0.277   4.426  13.102
39665SOL     OW20768   2.088   8.629   5.582
39665SOL    HW120769   1.995   8.639   5.560
39665SOL    HW220770   2.090   8.621   5.677
39666SOL     OW20771   4.472  13.815  14.830
39666SOL    HW120772   4.486  13.893   0.007
39666SOL    HW220773   4.485  13.847  14.740
39667SOL     OW20774  13.608   3.228   2.355
39667SOL    HW120775  13.666   3.152   2.360
39667SOL    HW220776  13.650   3.295   2.409
39668SOL     OW20777   9.722   0.312  10.881
39668SOL    HW120778   9.631   0.297  10.906
39668SOL    HW220779   9.771   0.245  10.928
39669SOL     OW20780   0.935   5.148  14.867
39669SOL    HW120781   0.925   5.222  14.806
39669SOL    HW220782   1.021   5.111  14.846
39670SOL     OW20783  13.233   2.436   3.100
39670SOL    HW120784  13.187   2.452   3.018
39670SOL    HW220785  13.171   2.384   3.152
39671SOL     OW20786  10.908   7.664   5.066
39671SOL    HW120787  10.958   7.585   5.086
39671SOL    HW220788  10.965   7.713   5.006
39672SOL     OW20789  11.275   7.599  10.562
39672SOL    HW120790  11.298   7.637  10.477
39672SOL    HW220791  11.314   7.511  10.559
39673SOL     OW20792   3.366   9.512  10.291
39673SOL    HW120793   3.293   9.565  10.322
39673SOL    HW220794   3.344   9.491  10.200
39674SOL     OW20795   0.396   2.125   2.653
39674SOL    HW120796   0.476   2.155   2.694
39674SOL    HW220797   0.362   2.201   2.606
39675SOL     OW20798   4.516   9.412   5.728
39675SOL    HW120799   4.518   9.488   5.669
39675SOL    HW220800   4.511   9.450   5.816
39676SOL     OW20801   2.404  10.196  12.288
39676SOL    HW120802   2.497  10.174  12.281
39676SOL    HW220803   2.399  10.288  12.261
39677SOL     OW20804   8.011   0.794   9.141
39677SOL    HW120805   8.005   0.883   9.174
39677SOL    HW220806   7.924   0.776   9.105
39678SOL     OW20807  13.707   9.038   1.334
39678SOL    HW120808  13.786   9.070   1.378
39678SOL    HW220809  13.643   9.107   1.348
39679SOL     OW20810   3.487   3.845   1.692
39679SOL    HW120811   3.532   3.761   1.705
39679SOL    HW220812   3.529   3.883   1.615
39680SOL     OW20813   3.912   9.633   0.514
39680SOL    HW120814   3.819   9.657   0.508
39680SOL    HW220815   3.947   9.689   0.582
39681SOL     OW20816   9.433   2.064   7.003
39681SOL    HW120817   9.482   2.137   7.042
39681SOL    HW220818   9.479   2.046   6.921
39682SOL     OW20819  11.386   3.266   2.547
39682SOL    HW120820  11.313   3.213   2.514
39682SOL    HW220821  11.463   3.232   2.502
39683SOL     OW20822   0.265   9.585   4.247
39683SOL    HW120823   0.320   9.511   4.272
39683SOL    HW220824   0.265   9.584   4.151
39684SOL     OW20825  11.908  13.996   0.105
39684SOL    HW120826  12.002  13.987   0.115
39684SOL    HW220827  11.894  14.006   0.011
39685SOL     OW20828  13.372   7.649  14.617
39685SOL    HW120829  13.338   7.738  14.611
39685SOL    HW220830  13.336   7.614  14.698
39686SOL     OW20831  12.899   2.816   4.100
39686SOL    HW120832  12.885   2.772   4.016
39686SOL    HW220833  12.899   2.745   4.165
39687SOL     OW20834   2.168  12.134   4.513
39687SOL    HW120835   2.183  12.113   4.605
39687SOL    HW220836   2.100  12.202   4.515
39688SOL     OW20837  14.394  14.538   9.928
39688SOL    HW120838  14.430  14.545   9.840
39688SOL    HW220839  14.373  14.445   9.937
39689SOL     OW20840  11.874  11.526   7.528
39689SOL    HW120841  11.882  11.445   7.477
39689SOL    HW220842  11.795  11.514   7.581
39690SOL     OW20843   6.248   5.784  14.453
39690SOL    HW120844   6.171   5.770  14.508
39690SOL    HW220845   6.298   5.851  14.498
39691SOL     OW20846  13.212   7.030   0.691
39691SOL    HW120847  13.251   7.001   0.608
39691SOL    HW220848  13.254   6.976   0.758
39692SOL     OW20849  11.744   9.556  12.397
39692SOL    HW120850  11.764   9.467  12.426
39692SOL    HW220851  11.817   9.580  12.340
39693SOL     OW20852   9.399   1.542   4.828
39693SOL    HW120853   9.475   1.512   4.878
39693SOL    HW220854   9.323   1.505   4.874
39694SOL     OW20855  14.749   5.674  14.624
39694SOL    HW120856  14.781   5.744  14.680
39694SOL    HW220857  14.666   5.707  14.589
39695SOL     OW20858   0.165   8.235  12.253
39695SOL    HW120859   0.074   8.227  12.279
39695SOL    HW220860   0.164   8.234  12.158
39696SOL     OW20861   6.323  11.376   0.666
39696SOL    HW120862   6.395  11.423   0.708
39696SOL    HW220863   6.295  11.434   0.595
39697SOL     OW20864   4.148   5.877   3.217
39697SOL    HW120865   4.176   5.856   3.128
39697SOL    HW220866   4.053   5.889   3.211
39698SOL     OW20867   5.926  12.809   6.597
39698SOL    HW120868   5.889  12.826   6.683
39698SOL    HW220869   6.010  12.856   6.597
39699SOL     OW20870   3.923  13.326  14.534
39699SOL    HW120871   3.865  13.396  14.564
39699SOL    HW220872   3.883  13.245  14.568
39700SOL     OW20873   3.242   2.776   0.963
39700SOL    HW120874   3.247   2.843   0.895
39700SOL    HW220875   3.167   2.722   0.939
39701SOL     OW20876   0.969   6.771  14.613
39701SOL    HW120877   1.009   6.764  14.700
39701SOL    HW220878   0.961   6.865  14.598
39702SOL     OW20879   4.062  10.685  12.002
39702SOL    HW120880   4.085  10.742  11.928
39702SOL    HW220881   4.119  10.713  12.073
39703SOL     OW20882  11.638   2.288   0.608
39703SOL    HW120883  11.630   2.377   0.574
39703SOL    HW220884  11.634   2.298   0.703
39704SOL     OW20885  14.392   4.259   3.227
39704SOL    HW120886  14.343   4.329   3.270
39704SOL    HW220887  14.326   4.211   3.178
39705SOL     OW20888   4.907   6.005   6.661
39705SOL    HW120889   4.855   5.977   6.585
39705SOL    HW220890   4.956   6.081   6.629
39706SOL     OW20891   7.729  11.281  11.404
39706SOL    HW120892   7.742  11.186  11.403
39706SOL    HW220893   7.698  11.300  11.492
39707SOL     OW20894  13.409   5.082   2.810
39707SOL    HW120895  13.414   5.017   2.879
39707SOL    HW220896  13.335   5.138   2.835
39708SOL     OW20897  11.224   8.136  13.520
39708SOL    HW120898  11.181   8.076  13.582
39708SOL    HW220899  11.310   8.153  13.558
39709SOL     OW20900  12.677  11.997   3.203
39709SOL    HW120901  12.761  12.007   3.158
39709SOL    HW220902  12.617  12.053   3.154
39710SOL     OW20903   5.264   5.337  12.056
39710SOL    HW120904   5.305   5.385  11.985
39710SOL    HW220905   5.187   5.389  12.079
39711SOL     OW20906   8.612   4.330   5.030
39711SOL    HW120907   8.522   4.301   5.037
39711SOL    HW220908   8.609   4.424   5.045
39712SOL     OW20909  13.232  10.411   1.254
39712SOL    HW120910  13.141  10.394   1.278
39712SOL    HW220911  13.281  10.341   1.296
39713SOL     OW20912  13.820   9.414   4.446
39713SOL    HW120913  13.893   9.406   4.384
39713SOL    HW220914  13.847   9.484   4.505
39714SOL     OW20915   2.344  10.756  11.924
39714SOL    HW120916   2.387  10.683  11.971
39714SOL    HW220917   2.258  10.721  11.900
39715SOL     OW20918   0.859   8.031   0.685
39715SOL    HW120919   0.832   8.104   0.629
39715SOL    HW220920   0.820   7.954   0.644
39716SOL     OW20921   1.655  13.679  12.906
39716SOL    HW120922   1.623  13.591  12.927
39716SOL    HW220923   1.634  13.732  12.982
39717SOL     OW20924  13.309  10.717   4.030
39717SOL    HW120925  13.399  10.734   4.002
39717SOL    HW220926  13.291  10.784   4.096
39718SOL     OW20927   9.973   4.694   0.066
39718SOL    HW120928  10.052   4.745   0.082
39718SOL    HW220929   9.969   4.685  14.848
39719SOL     OW20930  14.863   7.086   2.764
39719SOL    HW120931  14.853   7.143   2.841
39719SOL    HW220932  14.779   7.092   2.719
39720SOL     OW20933   9.246   7.795  10.177
39720SOL    HW120934   9.321   7.828  10.128
39720SOL    HW220935   9.231   7.860  10.246
39721SOL     OW20936  13.424   0.685  11.609
39721SOL    HW120937  13.345   0.630  11.613
39721SOL    HW220938  13.497   0.623  11.616
39722SOL     OW20939   7.387  10.325   9.833
39722SOL    HW120940   7.462  10.273   9.859
39722SOL    HW220941   7.383  10.396   9.898
39723SOL     OW20942  12.517   3.614   6.713
39723SOL    HW120943  12.483   3.550   6.775
39723SOL    HW220944  12.566   3.676   6.767
39724SOL     OW20945   7.498  13.298   3.643
39724SOL    HW120946   7.430  13.242   3.681
39724SOL    HW220947   7.452  13.349   3.576
39725SOL     OW20948   3.050   7.196   0.382
39725SOL    HW120949   2.979   7.242   0.428
39725SOL    HW220950   3.125   7.255   0.387
39726SOL     OW20951   9.381   8.637   2.093
39726SOL    HW120952   9.371   8.731   2.077
39726SOL    HW220953   9.474   8.625   2.112
39727SOL     OW20954  14.389   7.371   9.636
39727SOL    HW120955  14.399   7.378   9.541
39727SOL    HW220956  14.298   7.347   9.650
39728SOL     OW20957   2.573   9.954   7.233
39728SOL    HW120958   2.601   9.886   7.294
39728SOL    HW220959   2.557   9.907   7.151
39729SOL     OW20960   6.893   5.027   8.097
39729SOL    HW120961   6.940   4.965   8.041
39729SOL    HW220962   6.853   4.973   8.165
39730SOL     OW20963   0.892   0.639   1.598
39730SOL    HW120964   0.919   0.567   1.541
39730SOL    HW220965   0.812   0.674   1.558
39731SOL     OW20966   6.851  13.448  14.241
39731SOL    HW120967   6.885  13.523  14.289
39731SOL    HW220968   6.809  13.485  14.163
39732SOL     OW20969  14.436  11.949  13.053
39732SOL    HW120970  14.529  11.926  13.047
39732SOL    HW220971  14.400  11.890  13.119
39733SOL     OW20972  14.376   4.421   3.604
39733SOL    HW120973  14.345   4.476   3.532
39733SOL    HW220974  14.359   4.472   3.683
39734SOL     OW20975   5.583  12.631   3.339
39734SOL    HW120976   5.657  12.570   3.336
39734SOL    HW220977   5.506  12.576   3.323
39735SOL     OW20978   4.703   5.636   8.310
39735SOL    HW120979   4.751   5.568   8.262
39735SOL    HW220980   4.768   5.705   8.325
39736SOL     OW20981  12.220   7.403   0.861
39736SOL    HW120982  12.258   7.364   0.940
39736SOL    HW220983  12.267   7.362   0.789
39737SOL     OW20984   8.425  12.611  11.287
39737SOL    HW120985   8.381  12.586  11.206
39737SOL    HW220986   8.365  12.670  11.330
39738SOL     OW20987   1.336   7.519  10.643
39738SOL    HW120988   1.352   7.611  10.622
39738SOL    HW220989   1.306   7.481  10.560
39739SOL     OW20990   2.947   0.107  13.964
39739SOL    HW120991   3.012   0.088  13.896
39739SOL    HW220992   2.944   0.027  14.017
39740SOL     OW20993   9.755  10.605   1.601
39740SOL    HW120994   9.813  10.669   1.642
39740SOL    HW220995   9.672  10.614   1.649
39741SOL     OW20996  13.427   0.276   7.325
39741SOL    HW120997  13.360   0.227   7.278
39741SOL    HW220998  13.415   0.251   7.417
39742SOL     OW20999  11.626   6.201   2.612
39742SOL    HW121000  11.714   6.188   2.577
39742SOL    HW221001  11.607   6.120   2.660
39743SOL     OW21002   0.031   2.860   9.656
39743SOL    HW121003   0.042   2.921   9.583
39743SOL    HW221004   0.018   2.775   9.615
39744SOL     OW21005   7.905  13.239   3.301
39744SOL    HW121006   7.894  13.331   3.326
39744SOL    HW221007   7.893  13.190   3.383
39745SOL     OW21008  10.258   3.905   9.399
39745SOL    HW121009  10.263   3.811   9.380
39745SOL    HW221010  10.185   3.913   9.460
39746SOL     OW21011  13.409   7.954  12.788
39746SOL    HW121012  13.503   7.962  12.807
39746SOL    HW221013  13.406   7.933  12.694
39747SOL     OW21014   5.773  14.117  10.190
39747SOL    HW121015   5.760  14.180  10.261
39747SOL    HW221016   5.868  14.103  10.188
39748SOL     OW21017   1.130   8.655  11.011
39748SOL    HW121018   1.046   8.610  11.017
39748SOL    HW221019   1.116   8.725  10.947
39749SOL     OW21020   0.614  13.437  10.164
39749SOL    HW121021   0.638  13.517  10.211
39749SOL    HW221022   0.526  13.456  10.129
39750SOL     OW21023   1.861  10.389   3.141
39750SOL    HW121024   1.795  10.449   3.175
39750SOL    HW221025   1.943  10.417   3.183
39751SOL     OW21026  14.006  14.095   3.594
39751SOL    HW121027  13.998  14.147   3.674
39751SOL    HW221028  13.933  14.033   3.598
39752SOL     OW21029  12.453   7.312   8.803
39752SOL    HW121030  12.472   7.322   8.897
39752SOL    HW221031  12.380   7.371   8.786
39753SOL     OW21032   6.457  14.678  12.880
39753SOL    HW121033   6.417  14.598  12.845
39753SOL    HW221034   6.391  14.746  12.864
39754SOL     OW21035   0.544  10.742   0.894
39754SOL    HW121036   0.602  10.716   0.965
39754SOL    HW221037   0.545  10.838   0.896
39755SOL     OW21038   9.994   6.472   6.662
39755SOL    HW121039   9.970   6.381   6.643
39755SOL    HW221040   9.992   6.478   6.757
39756SOL     OW21041  13.548  12.765   3.494
39756SOL    HW121042  13.616  12.798   3.434
39756SOL    HW221043  13.597  12.723   3.564
39757SOL     OW21044  11.681  11.613   5.851
39757SOL    HW121045  11.687  11.594   5.757
39757SOL    HW221046  11.702  11.530   5.894
39758SOL     OW21047   8.312   1.873   7.706
39758SOL    HW121048   8.276   1.785   7.722
39758SOL    HW221049   8.273   1.927   7.775
39759SOL     OW21050  10.673  10.829  10.927
39759SOL    HW121051  10.637  10.901  10.979
39759SOL    HW221052  10.757  10.862  10.895
39760SOL     OW21053   2.545   8.291   5.520
39760SOL    HW121054   2.486   8.360   5.550
39760SOL    HW221055   2.488   8.229   5.475
39761SOL     OW21056   8.353   3.994   5.948
39761SOL    HW121057   8.448   3.981   5.950
39761SOL    HW221058   8.328   3.977   5.857
39762SOL     OW21059   7.603  10.985   7.635
39762SOL    HW121060   7.677  10.947   7.589
39762SOL    HW221061   7.630  11.076   7.652
39763SOL     OW21062  10.927   6.828  13.196
39763SOL    HW121063  10.914   6.846  13.290
39763SOL    HW221064  10.839   6.812  13.163
39764SOL     OW21065   7.490  10.770   0.262
39764SOL    HW121066   7.576  10.755   0.301
39764SOL    HW221067   7.509  10.790   0.170
39765SOL     OW21068   0.066   4.360  14.105
39765SOL    HW121069   0.121   4.357  14.027
39765SOL    HW221070  14.854   4.351  14.072
39766SOL     OW21071  11.808   7.718   6.311
39766SOL    HW121072  11.795   7.681   6.223
39766SOL    HW221073  11.744   7.672   6.366
39767SOL     OW21074   0.532  10.479  14.164
39767SOL    HW121075   0.614  10.517  14.197
39767SOL    HW221076   0.463  10.528  14.208
39768SOL     OW21077  11.828   3.974  12.307
39768SOL    HW121078  11.797   4.014  12.388
39768SOL    HW221079  11.783   3.890  12.302
39769SOL     OW21080   6.351   3.880  12.852
39769SOL    HW121081   6.261   3.894  12.882
39769SOL    HW221082   6.346   3.806  12.792
39770SOL     OW21083   3.395  14.421  14.311
39770SOL    HW121084   3.446  14.502  14.303
39770SOL    HW221085   3.460  14.351  14.303
39771SOL     OW21086  14.352   9.347  12.178
39771SOL    HW121087  14.328   9.313  12.092
39771SOL    HW221088  14.330   9.440  12.174
39772SOL     OW21089   4.001   5.800   1.079
39772SOL    HW121090   4.012   5.890   1.111
39772SOL    HW221091   4.056   5.747   1.136
39773SOL     OW21092   0.710  12.089   1.994
39773SOL    HW121093   0.762  12.119   2.069
39773SOL    HW221094   0.768  12.029   1.947
39774SOL     OW21095  10.592  10.467   0.279
39774SOL    HW121096  10.598  10.379   0.242
39774SOL    HW221097  10.674  10.478   0.327
39775SOL     OW21098   4.926  13.276   4.322
39775SOL    HW121099   4.917  13.356   4.271
39775SOL    HW221100   4.956  13.210   4.260
39776SOL     OW21101   4.888   9.834   8.865
39776SOL    HW121102   4.817   9.897   8.882
39776SOL    HW221103   4.915   9.853   8.775
39777SOL     OW21104   6.056  10.808   4.944
39777SOL    HW121105   6.108  10.778   4.870
39777SOL    HW221106   6.001  10.877   4.907
39778SOL     OW21107  13.822   6.936  12.514
39778SOL    HW121108  13.803   6.865  12.575
39778SOL    HW221109  13.837   6.893  12.430
39779SOL     OW21110  11.952   3.374   0.072
39779SOL    HW121111  11.959   3.315  14.874
39779SOL    HW221112  11.883   3.335   0.126
39780SOL     OW21113   4.545   9.634   3.001
39780SOL    HW121114   4.558   9.625   2.906
39780SOL    HW221115   4.467   9.582   3.019
39781SOL     OW21116   2.988   8.596   8.028
39781SOL    HW121117   3.064   8.538   8.032
39781SOL    HW221118   3.025   8.684   8.017
39782SOL     OW21119   8.087  14.200   3.328
39782SOL    HW121120   8.162  14.216   3.386
39782SOL    HW221121   8.096  14.108   3.303
39783SOL     OW21122  11.363   5.415   8.087
39783SOL    HW121123  11.280   5.450   8.054
39783SOL    HW221124  11.339   5.368   8.167
39784SOL     OW21125  11.255   2.810  12.269
39784SOL    HW121126  11.248   2.902  12.296
39784SOL    HW221127  11.192   2.765  12.325
39785SOL     OW21128   5.074  14.072  14.671
39785SOL    HW121129   5.066  13.990  14.621
39785SOL    HW221130   5.043  14.140  14.612
39786SOL     OW21131   7.009   7.792  10.901
39786SOL    HW121132   6.994   7.698  10.912
39786SOL    HW221133   6.952   7.817  10.828
39787SOL     OW21134   2.369   8.419  11.198
39787SOL    HW121135   2.448   8.390  11.151
39787SOL    HW221136   2.344   8.344  11.252
39788SOL     OW21137   6.929  13.426  11.046
39788SOL    HW121138   6.837  13.453  11.055
39788SOL    HW221139   6.940  13.409  10.953
39789SOL     OW21140   8.581   5.864   7.407
39789SOL    HW121141   8.629   5.828   7.482
39789SOL    HW221142   8.646   5.918   7.361
39790SOL     OW21143   5.757   3.533   4.526
39790SOL    HW121144   5.673   3.488   4.533
39790SOL    HW221145   5.749   3.587   4.447
39791SOL     OW21146   3.773   4.550   8.627
39791SOL    HW121147   3.829   4.580   8.555
39791SOL    HW221148   3.708   4.620   8.637
39792SOL     OW21149   9.820   6.687   3.349
39792SOL    HW121150   9.732   6.717   3.326
39792SOL    HW221151   9.839   6.727   3.433
39793SOL     OW21152   3.298   0.065  11.309
39793SOL    HW121153   3.320   0.034  11.222
39793SOL    HW221154   3.251   0.148  11.294
39794SOL     OW21155   5.196   6.556   2.265
39794SOL    HW121156   5.275   6.557   2.212
39794SOL    HW221157   5.126   6.530   2.204
39795SOL     OW21158   4.823   2.416   4.002
39795SOL    HW121159   4.781   2.375   4.077
39795SOL    HW221160   4.912   2.435   4.032
39796SOL     OW21161  11.670  13.959  10.489
39796SOL    HW121162  11.618  14.035  10.463
39796SOL    HW221163  11.606  13.899  10.527
39797SOL     OW21164  12.884   3.801   8.730
39797SOL    HW121165  12.935   3.872   8.771
39797SOL    HW221166  12.925   3.790   8.644
39798SOL     OW21167   9.272   2.959  14.873
39798SOL    HW121168   9.301   2.906   0.070
39798SOL    HW221169   9.287   2.903  14.797
39799SOL     OW21170   2.920   5.084   5.079
39799SOL    HW121171   2.979   5.010   5.092
39799SOL    HW221172   2.835   5.053   5.111
39800SOL     OW21173  12.467  12.805   7.429
39800SOL    HW121174  12.390  12.753   7.450
39800SOL    HW221175  12.433  12.890   7.402
39801SOL     OW21176  10.960   1.185   5.197
39801SOL    HW121177  10.869   1.193   5.226
39801SOL    HW221178  11.008   1.246   5.253
39802SOL     OW21179  11.868   7.727   7.176
39802SOL    HW121180  11.863   7.809   7.225
39802SOL    HW221181  11.880   7.754   7.085
39803SOL     OW21182   2.789  11.129   3.160
39803SOL    HW121183   2.760  11.039   3.141
39803SOL    HW221184   2.753  11.182   3.089
39804SOL     OW21185   9.260   8.076  13.315
39804SOL    HW121186   9.230   8.153  13.364
39804SOL    HW221187   9.288   8.014  13.382
39805SOL     OW21188   8.936  14.623   7.874
39805SOL    HW121189   8.990  14.578   7.810
39805SOL    HW221190   8.861  14.565   7.888
39806SOL     OW21191   2.901   1.667   2.283
39806SOL    HW121192   2.892   1.634   2.372
39806SOL    HW221193   2.996   1.675   2.270
39807SOL     OW21194   7.181   5.808  10.307
39807SOL    HW121195   7.113   5.861  10.347
39807SOL    HW221196   7.174   5.825  10.214
39808SOL     OW21197   0.239  11.834   9.821
39808SOL    HW121198   0.234  11.761   9.759
39808SOL    HW221199   0.193  11.906   9.778
39809SOL     OW21200   7.807   4.552   8.836
39809SOL    HW121201   7.867   4.602   8.891
39809SOL    HW221202   7.812   4.595   8.750
39810SOL     OW21203  13.650  13.438  10.461
39810SOL    HW121204  13.622  13.526  10.436
39810SOL    HW221205  13.674  13.396  10.379
39811SOL     OW21206  13.887  13.960  14.071
39811SOL    HW121207  13.869  14.041  14.024
39811SOL    HW221208  13.981  13.945  14.059
39812SOL     OW21209   8.327  14.318  10.713
39812SOL    HW121210   8.247  14.267  10.698
39812SOL    HW221211   8.356  14.291  10.800
39813SOL     OW21212   6.822  11.882   5.836
39813SOL    HW121213   6.778  11.966   5.847
39813SOL    HW221214   6.784  11.845   5.756
39814SOL     OW21215  13.370  13.046   4.460
39814SOL    HW121216  13.284  13.059   4.501
39814SOL    HW221217  13.433  13.077   4.525
39815SOL     OW21218   6.170   2.138   4.473
39815SOL    HW121219   6.087   2.094   4.492
39815SOL    HW221220   6.154   2.184   4.391
39816SOL     OW21221  10.118   2.323   9.348
39816SOL    HW121222  10.073   2.400   9.315
39816SOL    HW221223  10.140   2.272   9.270
39817SOL     OW21224   6.278   7.201  12.633
39817SOL    HW121225   6.353   7.259  12.644
39817SOL    HW221226   6.202   7.259  12.645
39818SOL     OW21227   1.328   9.000  12.092
39818SOL    HW121228   1.361   8.913  12.115
39818SOL    HW221229   1.295   9.036  12.174
39819SOL     OW21230  11.613   9.752   4.468
39819SOL    HW121231  11.688   9.726   4.521
39819SOL    HW221232  11.600   9.845   4.488
39820SOL     OW21233   3.144   5.127   2.179
39820SOL    HW121234   3.122   5.059   2.242
39820SOL    HW221235   3.133   5.085   2.093
39821SOL     OW21236   9.086  10.630  10.579
39821SOL    HW121237   9.075  10.576  10.501
39821SOL    HW221238   9.012  10.607  10.635
39822SOL     OW21239   5.327  10.236   5.128
39822SOL    HW121240   5.398  10.292   5.158
39822SOL    HW221241   5.275  10.218   5.206
39823SOL     OW21242  11.914   3.528   3.658
39823SOL    HW121243  11.935   3.579   3.580
39823SOL    HW221244  11.895   3.593   3.725
39824SOL     OW21245   2.308   0.157   0.570
39824SOL    HW121246   2.358   0.233   0.543
39824SOL    HW221247   2.364   0.113   0.634
39825SOL     OW21248  10.833  12.763  10.824
39825SOL    HW121249  10.893  12.698  10.789
39825SOL    HW221250  10.843  12.757  10.919
39826SOL     OW21251   6.981  10.492   4.203
39826SOL    HW121252   6.920  10.566   4.206
39826SOL    HW221253   7.048  10.514   4.268
39827SOL     OW21254   0.517   5.876  11.399
39827SOL    HW121255   0.521   5.966  11.432
39827SOL    HW221256   0.444   5.837  11.446
39828SOL     OW21257  11.627   6.879   7.813
39828SOL    HW121258  11.650   6.801   7.863
39828SOL    HW221259  11.578   6.933   7.874
39829SOL     OW21260  10.790   9.016  10.295
39829SOL    HW121261  10.786   9.057  10.209
39829SOL    HW221262  10.850   8.943  10.284
39830SOL     OW21263   1.990  10.718  14.099
39830SOL    HW121264   2.038  10.742  14.178
39830SOL    HW221265   2.032  10.769  14.029
39831SOL     OW21266   2.924   4.481   8.055
39831SOL    HW121267   2.983   4.413   8.087
39831SOL    HW221268   2.836   4.448   8.072
39832SOL     OW21269   9.131  11.001   9.366
39832SOL    HW121270   9.046  11.036   9.340
39832SOL    HW221271   9.195  11.054   9.318
39833SOL     OW21272   7.242   8.599   3.439
39833SOL    HW121273   7.166   8.628   3.389
39833SOL    HW221274   7.240   8.651   3.519
39834SOL     OW21275   6.722   0.087   2.390
39834SOL    HW121276   6.784   0.138   2.441
39834SOL    HW221277   6.775   0.046   2.321
39835SOL     OW21278  13.958  12.966  14.870
39835SOL    HW121279  13.866  12.948   0.012
39835SOL    HW221280  13.977  13.047   0.040
39836SOL     OW21281  10.427   6.905  13.353
39836SOL    HW121282  10.407   6.857  13.434
39836SOL    HW221283  10.517   6.934  13.364
39837SOL     OW21284   5.333   7.220   7.136
39837SOL    HW121285   5.269   7.152   7.119
39837SOL    HW221286   5.418   7.178   7.121
39838SOL     OW21287  13.419   9.010   8.662
39838SOL    HW121288  13.398   9.097   8.628
39838SOL    HW221289  13.368   9.002   8.743
39839SOL     OW21290  11.706  14.061   2.784
39839SOL    HW121291  11.713  14.103   2.697
39839SOL    HW221292  11.621  14.089   2.817
39840SOL     OW21293   4.699  13.632   0.811
39840SOL    HW121294   4.701  13.564   0.744
39840SOL    HW221295   4.631  13.605   0.872
39841SOL     OW21296   5.523  11.296  13.516
39841SOL    HW121297   5.485  11.384  13.513
39841SOL    HW221298   5.612  11.310  13.549
39842SOL     OW21299   0.505  11.749   2.567
39842SOL    HW121300   0.555  11.787   2.495
39842SOL    HW221301   0.413  11.768   2.545
39843SOL     OW21302   4.648   2.290  13.331
39843SOL    HW121303   4.579   2.344  13.369
39843SOL    HW221304   4.602   2.229  13.273
39844SOL     OW21305   4.502  14.383  14.633
39844SOL    HW121306   4.548  14.328  14.570
39844SOL    HW221307   4.536  14.471  14.617
39845SOL     OW21308   0.149  12.935   0.393
39845SOL    HW121309   0.126  12.861   0.449
39845SOL    HW221310   0.092  13.006   0.422
39846SOL     OW21311  13.323  14.827   4.853
39846SOL    HW121312  13.237  14.793   4.877
39846SOL    HW221313  13.371  14.831   4.936
39847SOL     OW21314  10.452  12.299   4.804
39847SOL    HW121315  10.444  12.209   4.835
39847SOL    HW221316  10.467  12.350   4.884
39848SOL     OW21317  12.545   1.613  11.645
39848SOL    HW121318  12.492   1.619  11.725
39848SOL    HW221319  12.602   1.690  11.648
39849SOL     OW21320  11.025  13.590  11.833
39849SOL    HW121321  10.946  13.564  11.880
39849SOL    HW221322  11.062  13.508  11.801
39850SOL     OW21323  10.978   2.524  14.416
39850SOL    HW121324  11.013   2.443  14.379
39850SOL    HW221325  10.884   2.521  14.395
39851SOL     OW21326  12.219   9.847  13.679
39851SOL    HW121327  12.148   9.782  13.685
39851SOL    HW221328  12.264   9.842  13.763
39852SOL     OW21329  13.168  10.963  12.555
39852SOL    HW121330  13.258  10.992  12.542
39852SOL    HW221331  13.150  10.978  12.647
39853SOL     OW21332   0.981   0.633  13.418
39853SOL    HW121333   0.937   0.718  13.412
39853SOL    HW221334   0.929   0.583  13.480
39854SOL     OW21335   4.541   3.045   4.955
39854SOL    HW121336   4.457   3.080   4.927
39854SOL    HW221337   4.537   2.952   4.932
39855SOL     OW21338   2.054   8.833   9.509
39855SOL    HW121339   2.139   8.820   9.551
39855SOL    HW221340   2.013   8.747   9.512
39856SOL     OW21341   6.245  13.853  12.991
39856SOL    HW121342   6.173  13.869  12.929
39856SOL    HW221343   6.203  13.809  13.065
39857SOL     OW21344  13.632  13.123   8.323
39857SOL    HW121345  13.550  13.074   8.335
39857SOL    HW221346  13.604  13.215   8.325
39858SOL     OW21347   8.425  14.577  14.303
39858SOL    HW121348   8.451  14.666  14.278
39858SOL    HW221349   8.333  14.584  14.327
39859SOL     OW21350   9.051  14.377   6.610
39859SOL    HW121351   9.145  14.365   6.592
39859SOL    HW221352   9.011  14.389   6.524
39860SOL     OW21353  11.166   6.896   5.471
39860SOL    HW121354  11.226   6.891   5.396
39860SOL    HW221355  11.112   6.973   5.453
39861SOL     OW21356   7.846  11.585   4.239
39861SOL    HW121357   7.808  11.604   4.324
39861SOL    HW221358   7.792  11.514   4.204
39862SOL     OW21359   7.618   6.040   3.650
39862SOL    HW121360   7.526   6.048   3.677
39862SOL    HW221361   7.660   6.119   3.684
39863SOL     OW21362   1.270   3.204   7.491
39863SOL    HW121363   1.356   3.213   7.450
39863SOL    HW221364   1.260   3.110   7.506
39864SOL     OW21365  10.197  11.326   1.949
39864SOL    HW121366  10.108  11.344   1.917
39864SOL    HW221367  10.201  11.231   1.955
39865SOL     OW21368   5.722   9.320  10.641
39865SOL    HW121369   5.812   9.297  10.664
39865SOL    HW221370   5.688   9.244  10.595
39866SOL     OW21371  11.846  11.047  12.419
39866SOL    HW121372  11.802  10.962  12.413
39866SOL    HW221373  11.841  11.070  12.512
39867SOL     OW21374   6.197   1.997   2.350
39867SOL    HW121375   6.179   1.905   2.367
39867SOL    HW221376   6.229   2.031   2.434
39868SOL     OW21377  11.117  11.130   0.696
39868SOL    HW121378  11.202  11.171   0.711
39868SOL    HW221379  11.138  11.038   0.678
39869SOL     OW21380   0.183   8.949  13.300
39869SOL    HW121381   0.200   9.040  13.277
39869SOL    HW221382   0.107   8.952  13.358
39870SOL     OW21383   4.011  13.937   9.665
39870SOL    HW121384   3.979  13.847   9.670
39870SOL    HW221385   4.054  13.943   9.580
39871SOL     OW21386   4.105   2.136   9.180
39871SOL    HW121387   4.147   2.222   9.171
39871SOL    HW221388   4.054   2.143   9.260
39872SOL     OW21389   4.197   1.347   2.865
39872SOL    HW121390   4.201   1.252   2.877
39872SOL    HW221391   4.134   1.377   2.931
39873SOL     OW21392   3.927   9.842  13.262
39873SOL    HW121393   3.852   9.797  13.223
39873SOL    HW221394   3.998   9.778  13.259
39874SOL     OW21395   2.697   3.090  12.711
39874SOL    HW121396   2.701   3.037  12.790
39874SOL    HW221397   2.696   3.027  12.639
39875SOL     OW21398  14.284  10.704  10.417
39875SOL    HW121399  14.341  10.673  10.487
39875SOL    HW221400  14.222  10.633  10.403
39876SOL     OW21401   0.614   3.840  12.184
39876SOL    HW121402   0.579   3.926  12.208
39876SOL    HW221403   0.664   3.856  12.104
39877SOL     OW21404  12.714   4.247   5.771
39877SOL    HW121405  12.634   4.257   5.822
39877SOL    HW221406  12.781   4.228   5.837
39878SOL     OW21407   9.453   0.876   7.415
39878SOL    HW121408   9.427   0.932   7.343
39878SOL    HW221409   9.517   0.816   7.377
39879SOL     OW21410   5.981   6.558  10.510
39879SOL    HW121411   5.982   6.642  10.556
39879SOL    HW221412   6.042   6.569  10.437
39880SOL     OW21413  10.884   4.046   3.013
39880SOL    HW121414  10.862   4.131   2.976
39880SOL    HW221415  10.961   4.063   3.067
39881SOL     OW21416   8.205   6.154   3.278
39881SOL    HW121417   8.298   6.133   3.268
39881SOL    HW221418   8.167   6.134   3.192
39882SOL     OW21419   3.932  10.879   6.442
39882SOL    HW121420   3.846  10.901   6.407
39882SOL    HW221421   3.930  10.783   6.453
39883SOL     OW21422  13.395  11.355  12.578
39883SOL    HW121423  13.415  11.283  12.638
39883SOL    HW221424  13.471  11.360  12.520
39884SOL     OW21425  12.467   7.918   6.850
39884SOL    HW121426  12.445   7.828   6.872
39884SOL    HW221427  12.503   7.954   6.932
39885SOL     OW21428   9.560   0.846  13.060
39885SOL    HW121429   9.561   0.811  13.149
39885SOL    HW221430   9.627   0.915  13.061
39886SOL     OW21431   3.979   7.096  11.412
39886SOL    HW121432   4.011   7.184  11.392
39886SOL    HW221433   4.057   7.041  11.408
39887SOL     OW21434   3.365  13.001   0.840
39887SOL    HW121435   3.337  12.964   0.924
39887SOL    HW221436   3.397  13.088   0.862
39888SOL     OW21437   8.296   1.847   7.112
39888SOL    HW121438   8.332   1.762   7.089
39888SOL    HW221439   8.372   1.906   7.110
39889SOL     OW21440  12.603   2.917   1.154
39889SOL    HW121441  12.675   2.882   1.101
39889SOL    HW221442  12.646   2.968   1.223
39890SOL     OW21443   8.368  11.019   1.753
39890SOL    HW121444   8.278  11.011   1.783
39890SOL    HW221445   8.419  10.967   1.815
39891SOL     OW21446   5.147   0.646  11.783
39891SOL    HW121447   5.111   0.607  11.703
39891SOL    HW221448   5.089   0.721  11.801
39892SOL     OW21449   7.267   1.389  14.224
39892SOL    HW121450   7.246   1.385  14.131
39892SOL    HW221451   7.193   1.347  14.268
39893SOL     OW21452   9.893   5.984  10.529
39893SOL    HW121453   9.942   6.048  10.477
39893SOL    HW221454   9.921   6.000  10.619
39894SOL     OW21455  14.211   3.226  11.236
39894SOL    HW121456  14.247   3.315  11.245
39894SOL    HW221457  14.242   3.196  11.151
39895SOL     OW21458  13.808   3.742  11.037
39895SOL    HW121459  13.850   3.820  11.002
39895SOL    HW221460  13.732   3.775  11.085
39896SOL     OW21461  10.038  13.684  10.220
39896SOL    HW121462  10.075  13.756  10.168
39896SOL    HW221463   9.960  13.722  10.260
39897SOL     OW21464   1.714   3.383   5.579
39897SOL    HW121465   1.663   3.459   5.550
39897SOL    HW221466   1.666   3.349   5.654
39898SOL     OW21467  13.445   2.510   3.262
39898SOL    HW121468  13.387   2.486   3.190
39898SOL    HW221469  13.488   2.427   3.286
39899SOL     OW21470  11.896   3.273  13.923
39899SOL    HW121471  11.846   3.196  13.948
39899SOL    HW221472  11.982   3.260  13.964
39900SOL     OW21473  12.500   0.430  14.665
39900SOL    HW121474  12.550   0.510  14.649
39900SOL    HW221475  12.484   0.429  14.759
39901SOL     OW21476  10.105   3.009   1.487
39901SOL    HW121477  10.063   2.941   1.435
39901SOL    HW221478  10.184   2.968   1.522
39902SOL     OW21479   1.632  14.141   4.263
39902SOL    HW121480   1.605  14.049   4.274
39902SOL    HW221481   1.723  14.135   4.232
39903SOL     OW21482   0.028   8.723  13.546
39903SOL    HW121483  14.861   8.698  13.627
39903SOL    HW221484   0.021   8.646  13.489
39904SOL     OW21485   2.130  10.567   2.725
39904SOL    HW121486   2.037  10.580   2.705
39904SOL    HW221487   2.138  10.593   2.817
39905SOL     OW21488   4.514   6.326   2.001
39905SOL    HW121489   4.423   6.353   1.987
39905SOL    HW221490   4.517   6.235   1.971
39906SOL     OW21491   5.080  11.848  10.511
39906SOL    HW121492   5.116  11.931  10.539
39906SOL    HW221493   5.118  11.783  10.570
39907SOL     OW21494   2.571   0.938   9.188
39907SOL    HW121495   2.563   0.944   9.093
39907SOL    HW221496   2.602   1.024   9.215
39908SOL     OW21497   9.985   1.857  11.876
39908SOL    HW121498   9.983   1.843  11.970
39908SOL    HW221499   9.902   1.901  11.856
39909SOL     OW21500   8.681   8.358   0.461
39909SOL    HW121501   8.692   8.294   0.532
39909SOL    HW221502   8.670   8.442   0.505
39910SOL     OW21503   0.111   3.804   4.160
39910SOL    HW121504   0.137   3.744   4.090
39910SOL    HW221505   0.190   3.816   4.213
39911SOL     OW21506  10.971   9.545   9.879
39911SOL    HW121507  11.031   9.598   9.932
39911SOL    HW221508  10.929   9.608   9.821
39912SOL     OW21509   4.848   5.486  13.949
39912SOL    HW121510   4.767   5.434  13.950
39912SOL    HW221511   4.913   5.428  13.910
39913SOL     OW21512   4.936   0.167  13.597
39913SOL    HW121513   4.871   0.231  13.567
39913SOL    HW221514   5.001   0.163  13.526
39914SOL     OW21515   9.469  11.865   0.829
39914SOL    HW121516   9.449  11.931   0.762
39914SOL    HW221517   9.501  11.790   0.780
39915SOL     OW21518  12.257   4.252  13.536
39915SOL    HW121519  12.321   4.218  13.474
39915SOL    HW221520  12.172   4.238  13.493
39916SOL     OW21521  10.625   4.201  14.724
39916SOL    HW121522  10.718   4.215  14.738
39916SOL    HW221523  10.582   4.273  14.769
39917SOL     OW21524   6.015   3.166   4.668
39917SOL    HW121525   6.104   3.134   4.684
39917SOL    HW221526   6.020   3.209   4.583
39918SOL     OW21527   9.622  10.451   9.229
39918SOL    HW121528   9.529  10.457   9.253
39918SOL    HW221529   9.636  10.524   9.170
39919SOL     OW21530   4.576   4.789   0.390
39919SOL    HW121531   4.659   4.802   0.436
39919SOL    HW221532   4.574   4.859   0.324
39920SOL     OW21533   9.256   2.739   1.601
39920SOL    HW121534   9.302   2.691   1.532
39920SOL    HW221535   9.190   2.678   1.633
39921SOL     OW21536   8.102   1.379   2.087
39921SOL    HW121537   8.042   1.324   2.037
39921SOL    HW221538   8.166   1.410   2.023
39922SOL     OW21539  11.608   5.237   4.146
39922SOL    HW121540  11.658   5.217   4.067
39922SOL    HW221541  11.527   5.186   4.136
39923SOL     OW21542  11.409   7.016   7.954
39923SOL    HW121543  11.338   6.998   7.892
39923SOL    HW221544  11.366   7.022   8.039
39924SOL     OW21545   1.493   0.223   0.119
39924SOL    HW121546   1.477   0.229   0.024
39924SOL    HW221547   1.558   0.291   0.136
39925SOL     OW21548   7.364  12.200   3.739
39925SOL    HW121549   7.399  12.167   3.821
39925SOL    HW221550   7.424  12.169   3.672
39926SOL     OW21551   7.347   9.508  14.200
39926SOL    HW121552   7.413   9.576  14.206
39926SOL    HW221553   7.271   9.551  14.162
39927SOL     OW21554   6.979   7.639   8.633
39927SOL    HW121555   7.033   7.706   8.674
39927SOL    HW221556   7.031   7.560   8.636
39928SOL     OW21557  14.446   1.032   4.095
39928SOL    HW121558  14.532   1.050   4.135
39928SOL    HW221559  14.402   0.974   4.157
39929SOL     OW21560   7.833  11.415   3.104
39929SOL    HW121561   7.893  11.445   3.035
39929SOL    HW221562   7.801  11.495   3.144
39930SOL     OW21563  14.837  12.244   0.326
39930SOL    HW121564  14.768  12.293   0.280
39930SOL    HW221565   0.030  12.307   0.338
39931SOL     OW21566  12.685  13.134   6.492
39931SOL    HW121567  12.747  13.187   6.542
39931SOL    HW221568  12.604  13.186   6.492
39932SOL     OW21569   0.830  12.271   1.077
39932SOL    HW121570   0.743  12.233   1.072
39932SOL    HW221571   0.815  12.366   1.067
39933SOL     OW21572  12.798   8.105  10.188
39933SOL    HW121573  12.777   8.021  10.229
39933SOL    HW221574  12.752   8.170  10.242
39934SOL     OW21575   9.656   4.829   8.418
39934SOL    HW121576   9.748   4.844   8.442
39934SOL    HW221577   9.660   4.767   8.345
39935SOL     OW21578  12.881  14.733   7.711
39935SOL    HW121579  12.949  14.689   7.660
39935SOL    HW221580  12.918  14.819   7.730
39936SOL     OW21581   5.532   3.135  10.367
39936SOL    HW121582   5.439   3.113  10.373
39936SOL    HW221583   5.567   3.114  10.453
39937SOL     OW21584  10.138  12.013   1.099
39937SOL    HW121585  10.099  11.928   1.118
39937SOL    HW221586  10.064  12.070   1.080
39938SOL     OW21587  10.613   2.059  13.330
39938SOL    HW121588  10.540   2.081  13.272
39938SOL    HW221589  10.620   2.135  13.389
39939SOL     OW21590  10.915  12.845  11.675
39939SOL    HW121591  10.872  12.817  11.756
39939SOL    HW221592  11.005  12.814  11.684
39940SOL     OW21593   7.954   7.440  13.556
39940SOL    HW121594   8.020   7.411  13.618
39940SOL    HW221595   7.949   7.535  13.568
39941SOL     OW21596   7.768   5.641  13.914
39941SOL    HW121597   7.824   5.587  13.858
39941SOL    HW221598   7.791   5.614  14.003
39942SOL     OW21599   7.260   5.293   4.759
39942SOL    HW121600   7.299   5.319   4.843
39942SOL    HW221601   7.270   5.198   4.757
39943SOL     OW21602  14.512   3.694  12.031
39943SOL    HW121603  14.555   3.681  12.116
39943SOL    HW221604  14.428   3.735  12.051
39944SOL     OW21605  14.003   6.996  14.478
39944SOL    HW121606  13.939   6.951  14.423
39944SOL    HW221607  14.033   6.928  14.540
39945SOL     OW21608  13.924   7.937   1.951
39945SOL    HW121609  13.968   8.022   1.960
39945SOL    HW221610  13.938   7.912   1.860
39946SOL     OW21611   4.959   1.579  12.647
39946SOL    HW121612   5.051   1.571  12.620
39946SOL    HW221613   4.964   1.622  12.733
39947SOL     OW21614   2.265   0.762   6.391
39947SOL    HW121615   2.360   0.750   6.393
39947SOL    HW221616   2.230   0.687   6.439
39948SOL     OW21617   6.116  11.248   9.391
39948SOL    HW121618   6.037  11.263   9.338
39948SOL    HW221619   6.124  11.152   9.395
39949SOL     OW21620   0.045  11.811  11.197
39949SOL    HW121621   0.047  11.807  11.101
39949SOL    HW221622   0.136  11.802  11.223
39950SOL     OW21623   3.613   7.894   6.613
39950SOL    HW121624   3.610   7.973   6.559
39950SOL    HW221625   3.653   7.922   6.695
39951SOL     OW21626   0.479   3.215  13.032
39951SOL    HW121627   0.466   3.139  12.975
39951SOL    HW221628   0.488   3.178  13.120
39952SOL     OW21629   9.341   6.704   7.419
39952SOL    HW121630   9.391   6.622   7.417
39952SOL    HW221631   9.286   6.697   7.496
39953SOL     OW21632   6.095  12.543   0.260
39953SOL    HW121633   6.042  12.619   0.236
39953SOL    HW221634   6.111  12.553   0.354
39954SOL     OW21635   5.793   3.814   5.561
39954SOL    HW121636   5.788   3.738   5.504
39954SOL    HW221637   5.831   3.883   5.506
39955SOL     OW21638   1.905   4.380   1.607
39955SOL    HW121639   1.965   4.430   1.551
39955SOL    HW221640   1.931   4.404   1.697
39956SOL     OW21641   3.261   0.911   1.552
39956SOL    HW121642   3.259   0.835   1.610
39956SOL    HW221643   3.301   0.879   1.471
39957SOL     OW21644  14.435   8.582   3.710
39957SOL    HW121645  14.413   8.628   3.791
39957SOL    HW221646  14.477   8.501   3.739
39958SOL     OW21647   0.648   8.519   2.516
39958SOL    HW121648   0.700   8.473   2.450
39958SOL    HW221649   0.576   8.558   2.467
39959SOL     OW21650   9.170  13.119  13.272
39959SOL    HW121651   9.191  13.162  13.355
39959SOL    HW221652   9.074  13.114  13.272
39960SOL     OW21653  14.665   0.519   4.045
39960SOL    HW121654  14.635   0.468   3.970
39960SOL    HW221655  14.752   0.484   4.066
39961SOL     OW21656   0.449  13.199  13.216
39961SOL    HW121657   0.438  13.139  13.143
39961SOL    HW221658   0.537  13.234  13.206
39962SOL     OW21659   8.881  12.442   0.534
39962SOL    HW121660   8.905  12.411   0.621
39962SOL    HW221661   8.786  12.457   0.538
39963SOL     OW21662  12.791   9.048  12.429
39963SOL    HW121663  12.718   8.986  12.417
39963SOL    HW221664  12.868   8.992  12.435
39964SOL     OW21665   3.271   2.710   5.768
39964SOL    HW121666   3.266   2.647   5.839
39964SOL    HW221667   3.183   2.710   5.730
39965SOL     OW21668  12.571   7.945   7.786
39965SOL    HW121669  12.661   7.926   7.760
39965SOL    HW221670  12.579   8.020   7.845
39966SOL     OW21671   0.668  10.135   7.981
39966SOL    HW121672   0.611  10.201   8.022
39966SOL    HW221673   0.738  10.187   7.941
39967SOL     OW21674  13.547   3.295   6.417
39967SOL    HW121675  13.543   3.271   6.510
39967SOL    HW221676  13.598   3.225   6.377
39968SOL     OW21677   1.255   4.562   9.101
39968SOL    HW121678   1.185   4.627   9.106
39968SOL    HW221679   1.309   4.590   9.027
39969SOL     OW21680  11.405   1.849   1.080
39969SOL    HW121681  11.415   1.757   1.104
39969SOL    HW221682  11.313   1.868   1.095
39970SOL     OW21683  13.507   4.107   2.109
39970SOL    HW121684  13.464   4.186   2.075
39970SOL    HW221685  13.484   4.104   2.201
39971SOL     OW21686   5.380  13.849   6.316
39971SOL    HW121687   5.381  13.861   6.411
39971SOL    HW221688   5.314  13.910   6.285
39972SOL     OW21689   0.360   6.732  11.744
39972SOL    HW121690   0.294   6.715  11.678
39972SOL    HW221691   0.339   6.672  11.815
39973SOL     OW21692   4.541  14.421   9.563
39973SOL    HW121693   4.630  14.389   9.547
39973SOL    HW221694   4.520  14.474   9.486
39974SOL     OW21695  10.279   1.131   9.651
39974SOL    HW121696  10.361   1.174   9.626
39974SOL    HW221697  10.267   1.155   9.743
39975SOL     OW21698  11.434   4.672   0.741
39975SOL    HW121699  11.362   4.722   0.703
39975SOL    HW221700  11.442   4.706   0.830
39976SOL     OW21701   6.022   6.336   5.310
39976SOL    HW121702   6.068   6.281   5.247
39976SOL    HW221703   5.973   6.275   5.365
39977SOL     OW21704   3.196   9.178   9.163
39977SOL    HW121705   3.247   9.112   9.211
39977SOL    HW221706   3.145   9.128   9.100
39978SOL     OW21707   0.230   7.856   0.650
39978SOL    HW121708   0.144   7.887   0.623
39978SOL    HW221709   0.291   7.920   0.613
39979SOL     OW21710  10.610  14.289   8.347
39979SOL    HW121711  10.540  14.341   8.308
39979SOL    HW221712  10.690  14.338   8.328
39980SOL     OW21713  13.795   4.558  12.515
39980SOL    HW121714  13.890   4.547  12.511
39980SOL    HW221715  13.781   4.617  12.589
39981SOL     OW21716   8.055  11.278  12.770
39981SOL    HW121717   8.062  11.373  12.775
39981SOL    HW221718   8.129  11.245  12.820
39982SOL     OW21719  12.154  14.071   3.026
39982SOL    HW121720  12.091  14.038   2.962
39982SOL    HW221721  12.148  14.009   3.099
39983SOL     OW21722   8.465  14.548   4.922
39983SOL    HW121723   8.469  14.453   4.923
39983SOL    HW221724   8.389  14.569   4.868
39984SOL     OW21725   1.793  11.963  11.048
39984SOL    HW121726   1.723  12.008  11.001
39984SOL    HW221727   1.849  12.034  11.081
39985SOL     OW21728  13.618   8.639   0.309
39985SOL    HW121729  13.536   8.687   0.315
39985SOL    HW221730  13.593   8.547   0.320
39986SOL     OW21731  11.345  14.608   2.945
39986SOL    HW121732  11.278  14.559   2.994
39986SOL    HW221733  11.338  14.575   2.856
39987SOL     OW21734  13.741   1.179  13.938
39987SOL    HW121735  13.724   1.149  13.849
39987SOL    HW221736  13.767   1.100  13.985
39988SOL     OW21737   2.938   8.823   3.901
39988SOL    HW121738   2.978   8.739   3.880
39988SOL    HW221739   2.847   8.815   3.872
39989SOL     OW21740   9.554  14.478   1.197
39989SOL    HW121741   9.619  14.460   1.129
39989SOL    HW221742   9.590  14.552   1.246
39990SOL     OW21743   6.298   2.020   9.760
39990SOL    HW121744   6.234   1.982   9.820
39990SOL    HW221745   6.377   1.968   9.772
39991SOL     OW21746   1.495  12.254   5.291
39991SOL    HW121747   1.542  12.337   5.289
39991SOL    HW221748   1.553  12.192   5.248
39992SOL     OW21749   5.642   5.383   5.620
39992SOL    HW121750   5.577   5.413   5.684
39992SOL    HW221751   5.628   5.439   5.544
39993SOL     OW21752   9.246  11.520  13.228
39993SOL    HW121753   9.297  11.572  13.167
39993SOL    HW221754   9.307  11.498  13.299
39994SOL     OW21755   0.305   1.041  10.563
39994SOL    HW121756   0.279   0.951  10.583
39994SOL    HW221757   0.400   1.039  10.562
39995SOL     OW21758  13.105   8.850  13.885
39995SOL    HW121759  13.159   8.782  13.925
39995SOL    HW221760  13.150   8.932  13.905
39996SOL     OW21761   9.183  14.260   7.988
39996SOL    HW121762   9.164  14.177   8.032
39996SOL    HW221763   9.097  14.294   7.962
39997SOL     OW21764  14.749  14.194   8.413
39997SOL    HW121765  14.667  14.237   8.438
39997SOL    HW221766  14.727  14.144   8.335
39998SOL     OW21767  13.595   5.593   7.083
39998SOL    HW121768  13.575   5.589   6.990
39998SOL    HW221769  13.509   5.600   7.125
39999SOL     OW21770   3.371  11.310   3.051
39999SOL    HW121771   3.374  11.326   3.145
39999SOL    HW221772   3.296  11.251   3.039
40000SOL     OW21773   2.491  11.730  12.902
40000SOL    HW121774   2.586  11.733  12.912
40000SOL    HW221775   2.467  11.817  12.872
40001SOL     OW21776   0.546   3.257   0.148
40001SOL    HW121777   0.453   3.266   0.168
40001SOL    HW221778   0.551   3.269   0.053
40002SOL     OW21779   5.331   5.580  13.740
40002SOL    HW121780   5.308   5.666  13.707
40002SOL    HW221781   5.292   5.519  13.678
40003SOL     OW21782  13.838   0.110  12.119
40003SOL    HW121783  13.795   0.058  12.050
40003SOL    HW221784  13.832   0.055  12.197
40004SOL     OW21785  13.602   7.668  10.427
40004SOL    HW121786  13.546   7.626  10.362
40004SOL    HW221787  13.542   7.688  10.500
40005SOL     OW21788  14.606  11.165   4.900
40005SOL    HW121789  14.510  11.171   4.898
40005SOL    HW221790  14.635  11.254   4.921
40006SOL     OW21791   5.305   0.440   5.107
40006SOL    HW121792   5.271   0.404   5.189
40006SOL    HW221793   5.322   0.362   5.053
40007SOL     OW21794   9.248   8.887   5.992
40007SOL    HW121795   9.281   8.893   5.903
40007SOL    HW221796   9.170   8.943   5.993
40008SOL     OW21797  10.240   5.853  12.341
40008SOL    HW121798  10.165   5.862  12.399
40008SOL    HW221799  10.227   5.768  12.297
40009SOL     OW21800   5.999   3.008  11.915
40009SOL    HW121801   5.994   3.101  11.891
40009SOL    HW221802   5.911   2.975  11.900
40010SOL     OW21803  12.021  13.517   1.533
40010SOL    HW121804  12.106  13.503   1.574
40010SOL    HW221805  11.981  13.588   1.584
40011SOL     OW21806   2.960   6.336  12.623
40011SOL    HW121807   3.037   6.391  12.641
40011SOL    HW221808   2.986   6.283  12.548
40012SOL     OW21809  12.147   9.373   6.086
40012SOL    HW121810  12.131   9.444   6.024
40012SOL    HW221811  12.181   9.301   6.032
40013SOL     OW21812  10.658  13.744  12.337
40013SOL    HW121813  10.591  13.678  12.322
40013SOL    HW221814  10.737  13.708  12.296
40014SOL     OW21815   7.882   2.198  14.128
40014SOL    HW121816   7.914   2.185  14.038
40014SOL    HW221817   7.922   2.127  14.178
40015SOL     OW21818   9.258   4.565   5.201
40015SOL    HW121819   9.260   4.561   5.105
40015SOL    HW221820   9.308   4.643   5.223
40016SOL     OW21821   9.155   7.169  11.788
40016SOL    HW121822   9.158   7.216  11.872
40016SOL    HW221823   9.225   7.105  11.794
40017SOL     OW21824   1.011  10.032  11.539
40017SOL    HW121825   0.923   9.995  11.550
40017SOL    HW221826   1.003  10.122  11.570
40018SOL     OW21827  13.642  14.043   3.870
40018SOL    HW121828  13.659  14.037   3.964
40018SOL    HW221829  13.622  14.136   3.856
40019SOL     OW21830   4.051   8.325   8.555
40019SOL    HW121831   4.028   8.417   8.569
40019SOL    HW221832   4.128   8.311   8.609
40020SOL     OW21833   7.967   6.819  12.588
40020SOL    HW121834   8.044   6.763  12.584
40020SOL    HW221835   7.989   6.886  12.652
40021SOL     OW21836  14.803  12.289   3.671
40021SOL    HW121837  14.776  12.270   3.581
40021SOL    HW221838  14.856  12.213   3.697
40022SOL     OW21839  11.842   9.569  10.847
40022SOL    HW121840  11.788   9.578  10.925
40022SOL    HW221841  11.864   9.475  10.844
40023SOL     OW21842   7.160   5.192  14.506
40023SOL    HW121843   7.162   5.232  14.419
40023SOL    HW221844   7.114   5.109  14.493
40024SOL     OW21845   8.404  13.732   5.411
40024SOL    HW121846   8.485  13.726   5.361
40024SOL    HW221847   8.341  13.680   5.360
40025SOL     OW21848  10.640   9.357   6.281
40025SOL    HW121849  10.660   9.324   6.193
40025SOL    HW221850  10.721   9.399   6.310
40026SOL     OW21851   6.300   7.614   1.736
40026SOL    HW121852   6.204   7.614   1.734
40026SOL    HW221853   6.323   7.705   1.755
40027SOL     OW21854   9.215   5.285  10.110
40027SOL    HW121855   9.286   5.259  10.170
40027SOL    HW221856   9.226   5.379  10.100
40028SOL     OW21857   6.367   6.829   4.113
40028SOL    HW121858   6.333   6.769   4.047
40028SOL    HW221859   6.336   6.792   4.196
40029SOL     OW21860   7.398   1.828   9.547
40029SOL    HW121861   7.459   1.874   9.489
40029SOL    HW221862   7.379   1.890   9.617
40030SOL     OW21863  10.988   9.833   7.409
40030SOL    HW121864  10.993   9.737   7.406
40030SOL    HW221865  11.060   9.859   7.467
40031SOL     OW21866   0.921   3.115   0.854
40031SOL    HW121867   0.967   3.164   0.785
40031SOL    HW221868   0.857   3.062   0.806
40032SOL     OW21869   2.603   9.443   1.333
40032SOL    HW121870   2.633   9.533   1.327
40032SOL    HW221871   2.604   9.410   1.243
40033SOL     OW21872   5.531  14.479   8.944
40033SOL    HW121873   5.525  14.437   8.858
40033SOL    HW221874   5.530  14.405   9.006
40034SOL     OW21875  11.640  10.483   8.850
40034SOL    HW121876  11.735  10.473   8.857
40034SOL    HW221877  11.605  10.399   8.878
40035SOL     OW21878  10.892   6.206   8.141
40035SOL    HW121879  10.879   6.184   8.234
40035SOL    HW221880  10.863   6.128   8.094
40036SOL     OW21881  14.657  12.753   1.126
40036SOL    HW121882  14.743  12.794   1.135
40036SOL    HW221883  14.598  12.811   1.173
40037SOL     OW21884   5.364  11.725   9.968
40037SOL    HW121885   5.286  11.781   9.977
40037SOL    HW221886   5.413  11.738  10.049
40038SOL     OW21887   6.035   3.711   6.112
40038SOL    HW121888   5.975   3.667   6.052
40038SOL    HW221889   5.989   3.710   6.196
40039SOL     OW21890   9.884  11.814   8.673
40039SOL    HW121891   9.909  11.770   8.592
40039SOL    HW221892   9.825  11.884   8.645
40040SOL     OW21893  14.146   2.020   5.931
40040SOL    HW121894  14.074   2.049   5.987
40040SOL    HW221895  14.205   2.096   5.926
40041SOL     OW21896   0.668   0.933   1.826
40041SOL    HW121897   0.692   0.947   1.735
40041SOL    HW221898   0.642   1.019   1.858
40042SOL     OW21899   6.761  12.896  11.226
40042SOL    HW121900   6.837  12.861  11.179
40042SOL    HW221901   6.698  12.823  11.225
40043SOL     OW21902   3.744  13.811   4.226
40043SOL    HW121903   3.805  13.815   4.300
40043SOL    HW221904   3.699  13.727   4.236
40044SOL     OW21905  12.193  12.273   0.265
40044SOL    HW121906  12.282  12.304   0.285
40044SOL    HW221907  12.136  12.344   0.294
40045SOL     OW21908   8.812  14.211   5.426
40045SOL    HW121909   8.820  14.116   5.430
40045SOL    HW221910   8.867  14.243   5.498
40046SOL     OW21911  12.936   5.647   2.855
40046SOL    HW121912  12.959   5.597   2.777
40046SOL    HW221913  12.911   5.580   2.919
40047SOL     OW21914  10.698  12.827   9.300
40047SOL    HW121915  10.695  12.919   9.275
40047SOL    HW221916  10.791  12.804   9.293
40048SOL     OW21917  11.943   1.291   8.612
40048SOL    HW121918  11.890   1.212   8.604
40048SOL    HW221919  11.961   1.317   8.522
40049SOL     OW21920   0.827   5.889   0.240
40049SOL    HW121921   0.845   5.837   0.318
40049SOL    HW221922   0.735   5.914   0.248
40050SOL     OW21923   3.682   4.492  10.582
40050SOL    HW121924   3.640   4.407  10.571
40050SOL    HW221925   3.674   4.533  10.496
40051SOL     OW21926   8.021  14.782  10.632
40051SOL    HW121927   8.070  14.706  10.601
40051SOL    HW221928   7.945  14.787  10.574
40052SOL     OW21929   1.372   3.823   6.271
40052SOL    HW121930   1.338   3.741   6.307
40052SOL    HW221931   1.333   3.829   6.184
40053SOL     OW21932   4.259   1.540   9.399
40053SOL    HW121933   4.318   1.586   9.339
40053SOL    HW221934   4.310   1.465   9.429
40054SOL     OW21935   6.228  11.857   8.904
40054SOL    HW121936   6.255  11.948   8.892
40054SOL    HW221937   6.221  11.846   8.999
40055SOL     OW21938   8.059   0.965   0.984
40055SOL    HW121939   8.036   0.982   1.075
40055SOL    HW221940   8.045   0.871   0.973
40056SOL     OW21941  10.751   2.130  13.715
40056SOL    HW121942  10.703   2.052  13.743
40056SOL    HW221943  10.780   2.172  13.796
40057SOL     OW21944   6.112   6.084   9.028
40057SOL    HW121945   6.106   6.178   9.014
40057SOL    HW221946   6.200   6.061   8.999
40058SOL     OW21947  13.754  13.375   7.350
40058SOL    HW121948  13.766  13.395   7.443
40058SOL    HW221949  13.840  13.346   7.320
40059SOL     OW21950   8.999  14.834   6.311
40059SOL    HW121951   9.022  14.741   6.307
40059SOL    HW221952   8.968  14.855   6.224
40060SOL     OW21953  10.675   6.878  10.344
40060SOL    HW121954  10.697   6.964  10.378
40060SOL    HW221955  10.734   6.818  10.391
40061SOL     OW21956   3.229  11.498   3.877
40061SOL    HW121957   3.244  11.408   3.848
40061SOL    HW221958   3.293  11.511   3.947
40062SOL     OW21959  14.619   8.607  14.269
40062SOL    HW121960  14.548   8.565  14.319
40062SOL    HW221961  14.665   8.660  14.334
40063SOL     OW21962  14.683   5.492   7.223
40063SOL    HW121963  14.685   5.580   7.261
40063SOL    HW221964  14.592   5.465   7.230
40064SOL     OW21965   9.967   3.393   9.206
40064SOL    HW121966   9.896   3.430   9.258
40064SOL    HW221967  10.041   3.388   9.266
40065SOL     OW21968   3.368  12.158   0.238
40065SOL    HW121969   3.323  12.183   0.319
40065SOL    HW221970   3.355  12.063   0.232
40066SOL     OW21971  14.143  10.519   9.846
40066SOL    HW121972  14.225  10.554   9.881
40066SOL    HW221973  14.145  10.543   9.753
40067SOL     OW21974   7.125  11.675   5.700
40067SOL    HW121975   7.220  11.669   5.715
40067SOL    HW221976   7.089  11.704   5.783
40068SOL     OW21977   9.295   3.289   4.145
40068SOL    HW121978   9.376   3.336   4.161
40068SOL    HW221979   9.272   3.252   4.230
40069SOL     OW21980   6.024  11.672   7.634
40069SOL    HW121981   5.990  11.646   7.720
40069SOL    HW221982   6.082  11.600   7.609
40070SOL     OW21983   6.735   2.749   4.038
40070SOL    HW121984   6.767   2.660   4.026
40070SOL    HW221985   6.776   2.799   3.967
40071SOL     OW21986  10.168  10.111   2.648
40071SOL    HW121987  10.182  10.035   2.704
40071SOL    HW221988  10.182  10.078   2.559
40072SOL     OW21989   7.814   5.467   4.773
40072SOL    HW121990   7.855   5.527   4.711
40072SOL    HW221991   7.887   5.423   4.817
40073SOL     OW21992   0.300   2.811   0.760
40073SOL    HW121993   0.362   2.782   0.694
40073SOL    HW221994   0.259   2.730   0.792
40074SOL     OW21995   9.315  12.469   8.901
40074SOL    HW121996   9.388  12.409   8.919
40074SOL    HW221997   9.330  12.500   8.812
40075SOL     OW21998   0.569   5.736   5.269
40075SOL    HW121999   0.609   5.720   5.184
40075SOL    HW222000   0.474   5.735   5.252
40076SOL     OW22001  10.633   6.690  12.077
40076SOL    HW122002  10.559   6.669  12.134
40076SOL    HW222003  10.688   6.612  12.080
40077SOL     OW22004   9.229   2.167  10.394
40077SOL    HW122005   9.246   2.134  10.306
40077SOL    HW222006   9.136   2.151  10.408
40078SOL     OW22007   8.586   8.041  10.811
40078SOL    HW122008   8.511   8.090  10.843
40078SOL    HW222009   8.551   7.983  10.744
40079SOL     OW22010  14.830   5.900   2.581
40079SOL    HW122011  14.751   5.935   2.622
40079SOL    HW222012  14.867   5.840   2.646
40080SOL     OW22013  10.648   1.777   4.572
40080SOL    HW122014  10.561   1.807   4.546
40080SOL    HW222015  10.689   1.854   4.610
40081SOL     OW22016   6.456   1.885   7.716
40081SOL    HW122017   6.380   1.897   7.660
40081SOL    HW222018   6.495   1.972   7.723
40082SOL     OW22019   6.384   6.942   0.919
40082SOL    HW122020   6.398   6.946   0.824
40082SOL    HW222021   6.437   7.013   0.954
40083SOL     OW22022   0.351  11.860   8.873
40083SOL    HW122023   0.425  11.886   8.816
40083SOL    HW222024   0.362  11.914   8.951
40084SOL     OW22025  11.732   1.867  12.643
40084SOL    HW122026  11.804   1.927  12.665
40084SOL    HW222027  11.653   1.911  12.674
40085SOL     OW22028   0.230  13.943   3.859
40085SOL    HW122029   0.273  14.004   3.799
40085SOL    HW222030   0.164  13.899   3.805
40086SOL     OW22031   6.533  12.445   1.922
40086SOL    HW122032   6.588  12.377   1.884
40086SOL    HW222033   6.580  12.526   1.904
40087SOL     OW22034  10.566   4.833   3.379
40087SOL    HW122035  10.586   4.925   3.395
40087SOL    HW222036  10.640   4.801   3.328
40088SOL     OW22037  10.163  13.061  11.103
40088SOL    HW122038  10.087  13.040  11.049
40088SOL    HW222039  10.228  13.094  11.041
40089SOL     OW22040   6.478   1.538   9.514
40089SOL    HW122041   6.537   1.600   9.472
40089SOL    HW222042   6.501   1.544   9.607
40090SOL     OW22043  10.082   0.660   4.302
40090SOL    HW122044   9.997   0.624   4.274
40090SOL    HW222045  10.110   0.601   4.372
40091SOL     OW22046  10.176   6.940   9.504
40091SOL    HW122047  10.252   6.987   9.471
40091SOL    HW222048  10.112   6.944   9.433
40092SOL     OW22049   1.731  14.742   3.725
40092SOL    HW122050   1.813  14.764   3.680
40092SOL    HW222051   1.663  14.757   3.659
40093SOL     OW22052   1.323   9.967   8.644
40093SOL    HW122053   1.279   9.917   8.713
40093SOL    HW222054   1.405   9.920   8.629
40094SOL     OW22055   9.025   2.568  12.878
40094SOL    HW122056   9.118   2.547  12.892
40094SOL    HW222057   8.993   2.498  12.821
40095SOL     OW22058   2.149   3.184   7.238
40095SOL    HW122059   2.207   3.153   7.307
40095SOL    HW222060   2.145   3.279   7.252
40096SOL     OW22061   1.318   9.820  13.011
40096SOL    HW122062   1.286   9.864  12.932
40096SOL    HW222063   1.408   9.852  13.021
40097SOL     OW22064   2.069   4.736   3.698
40097SOL    HW122065   2.109   4.651   3.714
40097SOL    HW222066   2.139   4.789   3.660
40098SOL     OW22067   9.467   3.301   2.003
40098SOL    HW122068   9.545   3.268   2.047
40098SOL    HW222069   9.402   3.231   2.014
40099SOL     OW22070   7.726  11.352   7.305
40099SOL    HW122071   7.821  11.348   7.297
40099SOL    HW222072   7.711  11.365   7.399
40100SOL     OW22073   6.074   7.349   0.342
40100SOL    HW122074   6.109   7.410   0.277
40100SOL    HW222075   5.981   7.371   0.347
40101SOL     OW22076   9.368   1.383   5.551
40101SOL    HW122077   9.337   1.369   5.462
40101SOL    HW222078   9.410   1.469   5.549
40102SOL     OW22079   5.646   9.892   2.988
40102SOL    HW122080   5.676   9.981   2.971
40102SOL    HW222081   5.598   9.898   3.071
40103SOL     OW22082  14.590   6.421   4.684
40103SOL    HW122083  14.551   6.370   4.613
40103SOL    HW222084  14.516   6.456   4.733
40104SOL     OW22085   7.177  11.995   2.489
40104SOL    HW122086   7.153  11.903   2.499
40104SOL    HW222087   7.118  12.043   2.547
40105SOL     OW22088  11.950   3.784  11.549
40105SOL    HW122089  11.964   3.860  11.492
40105SOL    HW222090  11.963   3.818  11.637
40106SOL     OW22091   9.420   3.762  12.993
40106SOL    HW122092   9.415   3.846  12.947
40106SOL    HW222093   9.395   3.698  12.927
40107SOL     OW22094   3.566   6.603   7.715
40107SOL    HW122095   3.617   6.680   7.689
40107SOL    HW222096   3.508   6.635   7.784
40108SOL     OW22097  13.845  13.107   9.917
40108SOL    HW122098  13.907  13.065   9.857
40108SOL    HW222099  13.892  13.184   9.949
40109SOL     OW22100   5.149  13.485   5.967
40109SOL    HW122101   5.186  13.572   5.953
40109SOL    HW222102   5.219  13.425   5.943
40110SOL     OW22103   5.441   7.907   8.531
40110SOL    HW122104   5.497   7.965   8.480
40110SOL    HW222105   5.500   7.839   8.564
40111SOL     OW22106  11.804   0.560   0.441
40111SOL    HW122107  11.730   0.537   0.497
40111SOL    HW222108  11.766   0.577   0.355
40112SOL     OW22109   0.894   1.259  12.462
40112SOL    HW122110   0.870   1.217  12.544
40112SOL    HW222111   0.947   1.335  12.488
40113SOL     OW22112  14.805  11.508   7.431
40113SOL    HW122113   0.012  11.550   7.414
40113SOL    HW222114  14.821  11.451   7.507
40114SOL     OW22115   4.949  14.472   4.037
40114SOL    HW122116   5.010  14.527   3.988
40114SOL    HW222117   4.973  14.484   4.128
40115SOL     OW22118  13.642   0.004   3.327
40115SOL    HW122119  13.547   0.000   3.322
40115SOL    HW222120  13.670   0.027   3.238
40116SOL     OW22121  12.808   4.121   9.797
40116SOL    HW122122  12.824   4.207   9.836
40116SOL    HW222123  12.836   4.059   9.865
40117SOL     OW22124   5.402   3.944   3.237
40117SOL    HW122125   5.345   3.909   3.170
40117SOL    HW222126   5.357   3.925   3.319
40118SOL     OW22127   3.937   2.923   5.131
40118SOL    HW122128   4.007   2.897   5.071
40118SOL    HW222129   3.966   3.007   5.167
40119SOL     OW22130   9.186  12.396   8.188
40119SOL    HW122131   9.099  12.362   8.168
40119SOL    HW222132   9.196  12.380   8.282
40120SOL     OW22133   6.046  14.442   2.048
40120SOL    HW122134   6.004  14.407   1.969
40120SOL    HW222135   5.990  14.514   2.075
40121SOL     OW22136   8.197  14.289  11.657
40121SOL    HW122137   8.228  14.240  11.580
40121SOL    HW222138   8.272  14.290  11.717
40122SOL     OW22139   7.292   5.105  13.881
40122SOL    HW122140   7.260   5.137  13.965
40122SOL    HW222141   7.314   5.183  13.831
40123SOL     OW22142  13.495   2.201  10.072
40123SOL    HW122143  13.508   2.268  10.004
40123SOL    HW222144  13.448   2.130  10.028
40124SOL     OW22145   2.660   6.381   0.815
40124SOL    HW122146   2.633   6.311   0.755
40124SOL    HW222147   2.579   6.410   0.856
40125SOL     OW22148   8.852   1.513   2.304
40125SOL    HW122149   8.946   1.528   2.290
40125SOL    HW222150   8.820   1.594   2.343
40126SOL     OW22151   7.977   4.199   5.241
40126SOL    HW122152   7.939   4.287   5.236
40126SOL    HW222153   7.913   4.143   5.197
40127SOL     OW22154  10.738   6.670   1.681
40127SOL    HW122155  10.776   6.649   1.595
40127SOL    HW222156  10.646   6.645   1.673
40128SOL     OW22157   6.311   8.216   3.173
40128SOL    HW122158   6.373   8.273   3.128
40128SOL    HW222159   6.229   8.227   3.124
40129SOL     OW22160   8.776   0.531   0.467
40129SOL    HW122161   8.696   0.507   0.515
40129SOL    HW222162   8.817   0.447   0.446
40130SOL     OW22163   2.898  10.704  11.089
40130SOL    HW122164   2.894  10.702  10.994
40130SOL    HW222165   2.806  10.710  11.117
40131SOL     OW22166  10.327   8.113  11.104
40131SOL    HW122167  10.302   8.069  11.185
40131SOL    HW222168  10.245   8.151  11.071
40132SOL     OW22169  14.661   4.441  12.104
40132SOL    HW122170  14.603   4.418  12.177
40132SOL    HW222171  14.644   4.374  12.038
40133SOL     OW22172   0.946   9.423   8.568
40133SOL    HW122173   1.019   9.476   8.601
40133SOL    HW222174   0.907   9.477   8.500
40134SOL     OW22175  10.591   8.680  12.058
40134SOL    HW122176  10.535   8.703  12.132
40134SOL    HW222177  10.548   8.720  11.982
40135SOL     OW22178   2.523   7.446   1.802
40135SOL    HW122179   2.591   7.503   1.766
40135SOL    HW222180   2.552   7.358   1.780
40136SOL     OW22181   8.226   4.078   2.640
40136SOL    HW122182   8.308   4.126   2.631
40136SOL    HW222183   8.220   4.024   2.561
40137SOL     OW22184   0.693  11.058   5.334
40137SOL    HW122185   0.634  11.073   5.260
40137SOL    HW222186   0.777  11.039   5.293
40138SOL     OW22187  11.848   8.680   6.030
40138SOL    HW122188  11.824   8.608   6.089
40138SOL    HW222189  11.903   8.639   5.963
40139SOL     OW22190   0.226   5.606   2.234
40139SOL    HW122191   0.217   5.616   2.139
40139SOL    HW222192   0.136   5.590   2.264
40140SOL     OW22193  13.104   8.059  13.023
40140SOL    HW122194  13.028   8.022  12.979
40140SOL    HW222195  13.110   8.149  12.991
40141SOL     OW22196   5.683   4.970  12.993
40141SOL    HW122197   5.715   4.893  13.041
40141SOL    HW222198   5.604   4.939  12.948
40142SOL     OW22199   3.205  14.155   9.085
40142SOL    HW122200   3.220  14.242   9.048
40142SOL    HW222201   3.232  14.163   9.176
40143SOL     OW22202   7.454  10.580   5.012
40143SOL    HW122203   7.373  10.534   4.991
40143SOL    HW222204   7.428  10.644   5.078
40144SOL     OW22205  10.246   4.601   1.550
40144SOL    HW122206  10.239   4.601   1.455
40144SOL    HW222207  10.338   4.619   1.567
40145SOL     OW22208   0.463   7.497   6.801
40145SOL    HW122209   0.384   7.552   6.798
40145SOL    HW222210   0.535   7.560   6.812
40146SOL     OW22211   1.481  11.618   0.957
40146SOL    HW122212   1.415  11.685   0.974
40146SOL    HW222213   1.561  11.667   0.938
40147SOL     OW22214   9.161  12.219   7.130
40147SOL    HW122215   9.220  12.289   7.104
40147SOL    HW222216   9.211  12.167   7.193
40148SOL     OW22217   8.293   3.781  13.820
40148SOL    HW122218   8.348   3.747  13.750
40148SOL    HW222219   8.283   3.708  13.881
40149SOL     OW22220   9.801   7.420   4.054
40149SOL    HW122221   9.784   7.360   4.127
40149SOL    HW222222   9.743   7.390   3.984
40150SOL     OW22223  12.677   2.500   6.369
40150SOL    HW122224  12.619   2.491   6.445
40150SOL    HW222225  12.619   2.498   6.294
40151SOL     OW22226   9.481   5.066   0.085
40151SOL    HW122227   9.551   5.063   0.150
40151SOL    HW222228   9.466   4.975   0.061
40152SOL     OW22229   7.514   6.485  13.155
40152SOL    HW122230   7.531   6.510  13.246
40152SOL    HW222231   7.577   6.537  13.104
40153SOL     OW22232   9.611   1.297   2.631
40153SOL    HW122233   9.607   1.364   2.699
40153SOL    HW222234   9.704   1.284   2.616
40154SOL     OW22235   9.565   2.281   4.917
40154SOL    HW122236   9.618   2.322   4.985
40154SOL    HW222237   9.483   2.257   4.962
40155SOL     OW22238  10.404   3.029   8.739
40155SOL    HW122239  10.454   2.961   8.693
40155SOL    HW222240  10.340   3.060   8.674
40156SOL     OW22241   1.513   1.990   3.522
40156SOL    HW122242   1.558   2.035   3.593
40156SOL    HW222243   1.426   2.029   3.521
40157SOL     OW22244  13.723   2.117  10.229
40157SOL    HW122245  13.646   2.110  10.172
40157SOL    HW222246  13.693   2.171  10.303
40158SOL     OW22247  12.185   0.904  14.677
40158SOL    HW122248  12.116   0.837  14.677
40158SOL    HW222249  12.256   0.865  14.728
40159SOL     OW22250   2.281   4.591   9.861
40159SOL    HW122251   2.261   4.498   9.851
40159SOL    HW222252   2.336   4.612   9.786
40160SOL     OW22253   0.333   0.974   6.035
40160SOL    HW122254   0.351   0.948   6.125
40160SOL    HW222255   0.412   0.948   5.987
40161SOL     OW22256  11.891   5.215   9.860
40161SOL    HW122257  11.876   5.137   9.807
40161SOL    HW222258  11.880   5.288   9.799
40162SOL     OW22259   3.908  10.113   9.376
40162SOL    HW122260   3.855  10.044   9.414
40162SOL    HW222261   3.995  10.075   9.367
40163SOL     OW22262  12.580   7.802   8.125
40163SOL    HW122263  12.528   7.882   8.115
40163SOL    HW222264  12.535   7.737   8.072
40164SOL     OW22265   5.414   4.823   8.567
40164SOL    HW122266   5.351   4.787   8.504
40164SOL    HW222267   5.493   4.771   8.554
40165SOL     OW22268   5.092  11.996   8.225
40165SOL    HW122269   5.182  11.971   8.246
40165SOL    HW222270   5.095  12.017   8.131
40166SOL     OW22271   2.279  10.077   3.372
40166SOL    HW122272   2.251  10.096   3.461
40166SOL    HW222273   2.268  10.159   3.325
40167SOL     OW22274   5.074   4.604  11.820
40167SOL    HW122275   5.119   4.682  11.788
40167SOL    HW222276   5.081   4.541  11.748
40168SOL     OW22277   0.755   4.792   6.275
40168SOL    HW122278   0.753   4.881   6.309
40168SOL    HW222279   0.695   4.793   6.201
40169SOL     OW22280   5.853   3.992   5.382
40169SOL    HW122281   5.906   4.037   5.317
40169SOL    HW222282   5.773   3.969   5.337
40170SOL     OW22283  10.601   6.332   2.727
40170SOL    HW122284  10.636   6.249   2.757
40170SOL    HW222285  10.666   6.397   2.753
40171SOL     OW22286   9.243   4.486   8.287
40171SOL    HW122287   9.326   4.459   8.248
40171SOL    HW222288   9.177   4.433   8.241
40172SOL     OW22289   1.143  10.734  12.480
40172SOL    HW122290   1.235  10.761  12.484
40172SOL    HW222291   1.128  10.712  12.388
40173SOL     OW22292   8.778   0.138  11.391
40173SOL    HW122293   8.851   0.105  11.445
40173SOL    HW222294   8.749   0.217  11.437
40174SOL     OW22295  13.459  10.972   0.607
40174SOL    HW122296  13.549  10.986   0.579
40174SOL    HW222297  13.406  10.997   0.530
40175SOL     OW22298   2.448   1.298   0.637
40175SOL    HW122299   2.449   1.274   0.544
40175SOL    HW222300   2.444   1.394   0.637
40176SOL     OW22301   2.386  14.446  10.389
40176SOL    HW122302   2.471  14.473  10.353
40176SOL    HW222303   2.402  14.439  10.484
40177SOL     OW22304   0.291  14.167  12.132
40177SOL    HW122305   0.221  14.113  12.167
40177SOL    HW222306   0.317  14.123  12.051
40178SOL     OW22307   4.971  13.594  11.263
40178SOL    HW122308   4.988  13.532  11.193
40178SOL    HW222309   4.923  13.666  11.221
40179SOL     OW22310   4.745   7.061  13.966
40179SOL    HW122311   4.830   7.052  14.010
40179SOL    HW222312   4.698   6.981  13.989
40180SOL     OW22313   1.425   7.046   6.415
40180SOL    HW122314   1.415   7.027   6.322
40180SOL    HW222315   1.474   6.972   6.450
40181SOL     OW22316  13.929   2.339   3.977
40181SOL    HW122317  14.021   2.361   3.992
40181SOL    HW222318  13.893   2.418   3.935
40182SOL     OW22319  12.789   9.646   4.171
40182SOL    HW122320  12.774   9.584   4.243
40182SOL    HW222321  12.850   9.600   4.113
40183SOL     OW22322  12.677   8.953   2.671
40183SOL    HW122323  12.647   9.023   2.728
40183SOL    HW222324  12.657   8.872   2.719
40184SOL     OW22325   5.614   1.679   4.581
40184SOL    HW122326   5.659   1.631   4.650
40184SOL    HW222327   5.617   1.770   4.608
40185SOL     OW22328   3.555   3.201   2.389
40185SOL    HW122329   3.619   3.138   2.422
40185SOL    HW222330   3.604   3.254   2.326
40186SOL     OW22331   1.073   4.520  12.805
40186SOL    HW122332   0.984   4.486  12.814
40186SOL    HW222333   1.090   4.515  12.711
40187SOL     OW22334  11.124  11.626   1.340
40187SOL    HW122335  11.078  11.701   1.378
40187SOL    HW222336  11.061  11.554   1.346
40188SOL     OW22337  13.473   2.905   2.005
40188SOL    HW122338  13.477   2.982   2.061
40188SOL    HW222339  13.439   2.836   2.062
40189SOL     OW22340   3.912  10.272  12.127
40189SOL    HW122341   3.925  10.184  12.164
40189SOL    HW222342   4.000  10.310  12.126
40190SOL     OW22343   7.015   6.435   2.684
40190SOL    HW122344   7.058   6.435   2.599
40190SOL    HW222345   6.930   6.477   2.667
40191SOL     OW22346  13.780   7.318  10.634
40191SOL    HW122347  13.725   7.307  10.711
40191SOL    HW222348  13.869   7.319  10.667
40192SOL     OW22349   4.726   1.885  13.971
40192SOL    HW122350   4.691   1.951  14.032
40192SOL    HW222351   4.820   1.899  13.971
40193SOL     OW22352  10.785   5.397   9.706
40193SOL    HW122353  10.838   5.343   9.647
40193SOL    HW222354  10.697   5.362   9.699
40194SOL     OW22355   3.949   5.039  11.767
40194SOL    HW122356   3.948   5.101  11.694
40194SOL    HW222357   3.947   4.953  11.725
40195SOL     OW22358  13.035  12.555   0.958
40195SOL    HW122359  12.976  12.483   0.940
40195SOL    HW222360  13.108  12.542   0.898
40196SOL     OW22361   2.385   3.345   2.726
40196SOL    HW122362   2.426   3.368   2.642
40196SOL    HW222363   2.407   3.253   2.739
40197SOL     OW22364   9.866   7.199  13.993
40197SOL    HW122365   9.912   7.267  13.944
40197SOL    HW222366   9.868   7.123  13.935
40198SOL     OW22367  11.126   8.194   6.004
40198SOL    HW122368  11.163   8.110   6.029
40198SOL    HW222369  11.042   8.172   5.962
40199SOL     OW22370   7.247   5.798   7.145
40199SOL    HW122371   7.280   5.708   7.138
40199SOL    HW222372   7.249   5.817   7.238
40200SOL     OW22373  12.482  10.246  14.400
40200SOL    HW122374  12.402  10.226  14.353
40200SOL    HW222375  12.541  10.173  14.379
40201SOL     OW22376   5.889   1.986   6.058
40201SOL    HW122377   5.809   1.934   6.063
40201SOL    HW222378   5.959   1.921   6.046
40202SOL     OW22379   6.198  13.899  12.085
40202SOL    HW122380   6.290  13.921  12.070
40202SOL    HW222381   6.192  13.805  12.063
40203SOL     OW22382   1.611   4.875  13.360
40203SOL    HW122383   1.691   4.863  13.411
40203SOL    HW222384   1.550   4.810  13.394
40204SOL     OW22385   2.569  11.572   1.547
40204SOL    HW122386   2.645  11.626   1.526
40204SOL    HW222387   2.605  11.483   1.556
40205SOL     OW22388   8.290   4.785   2.330
40205SOL    HW122389   8.383   4.767   2.315
40205SOL    HW222390   8.265   4.846   2.260
40206SOL     OW22391  11.953  13.225   0.840
40206SOL    HW122392  11.878  13.210   0.782
40206SOL    HW222393  11.943  13.316   0.868
40207SOL     OW22394   6.403   9.220   3.157
40207SOL    HW122395   6.375   9.311   3.147
40207SOL    HW222396   6.331   9.169   3.119
40208SOL     OW22397   8.768   8.928   2.954
40208SOL    HW122398   8.772   8.930   2.858
40208SOL    HW222399   8.787   8.836   2.976
40209SOL     OW22400   0.015   4.877   7.794
40209SOL    HW122401   0.021   4.952   7.735
40209SOL    HW222402   0.013   4.914   7.882
40210SOL     OW22403   7.274  12.249   2.338
40210SOL    HW122404   7.277  12.169   2.390
40210SOL    HW222405   7.181  12.264   2.321
40211SOL     OW22406   7.022   6.413  13.874
40211SOL    HW122407   7.018   6.330  13.921
40211SOL    HW222408   6.956   6.405  13.805
40212SOL     OW22409  13.900  10.978  12.178
40212SOL    HW122410  13.978  10.938  12.217
40212SOL    HW222411  13.856  11.022  12.251
40213SOL     OW22412   5.689   2.915   3.977
40213SOL    HW122413   5.713   2.874   3.894
40213SOL    HW222414   5.620   2.977   3.953
40214SOL     OW22415   6.006  13.095   1.402
40214SOL    HW122416   5.929  13.048   1.372
40214SOL    HW222417   6.048  13.034   1.463
40215SOL     OW22418   4.961   4.000   9.817
40215SOL    HW122419   5.032   3.940   9.794
40215SOL    HW222420   4.930   3.969   9.902
40216SOL     OW22421   1.714   9.948  11.446
40216SOL    HW122422   1.773   9.977  11.377
40216SOL    HW222423   1.725   9.853  11.448
40217SOL     OW22424   5.449   2.937   3.483
40217SOL    HW122425   5.423   2.997   3.413
40217SOL    HW222426   5.470   2.855   3.438
40218SOL     OW22427   4.448   9.232   6.360
40218SOL    HW122428   4.514   9.164   6.373
40218SOL    HW222429   4.486   9.291   6.295
40219SOL     OW22430   0.069   6.039  12.337
40219SOL    HW122431   0.032   6.122  12.307
40219SOL    HW222432   0.162   6.057  12.350
40220SOL     OW22433   1.642   4.149  11.988
40220SOL    HW122434   1.731   4.184  11.987
40220SOL    HW222435   1.651   4.062  12.027
40221SOL     OW22436  11.749   9.989  10.989
40221SOL    HW122437  11.768  10.066  10.936
40221SOL    HW222438  11.791  10.007  11.074
40222SOL     OW22439  14.334  11.789   2.082
40222SOL    HW122440  14.306  11.698   2.071
40222SOL    HW222441  14.422  11.783   2.120
40223SOL     OW22442   8.139   4.942  10.528
40223SOL    HW122443   8.158   4.852  10.500
40223SOL    HW222444   8.086   4.978  10.457
40224SOL     OW22445   9.854   5.467  11.419
40224SOL    HW122446   9.932   5.505  11.378
40224SOL    HW222447   9.821   5.536  11.477
40225SOL     OW22448   7.977   9.770   7.030
40225SOL    HW122449   8.022   9.758   6.946
40225SOL    HW222450   7.910   9.702   7.031
40226SOL     OW22451  13.546   4.246   4.326
40226SOL    HW122452  13.549   4.286   4.239
40226SOL    HW222453  13.613   4.178   4.324
40227SOL     OW22454   9.764  14.408   4.131
40227SOL    HW122455   9.674  14.421   4.161
40227SOL    HW222456   9.814  14.398   4.212
40228SOL     OW22457   2.590   2.069   7.019
40228SOL    HW122458   2.660   2.048   6.956
40228SOL    HW222459   2.615   2.155   7.054
40229SOL     OW22460  12.228   9.836   4.307
40229SOL    HW122461  12.176   9.848   4.386
40229SOL    HW222462  12.319   9.835   4.338
40230SOL     OW22463   0.890  12.287  14.432
40230SOL    HW122464   0.872  12.301  14.339
40230SOL    HW222465   0.870  12.195  14.447
40231SOL     OW22466  12.045   6.786  12.535
40231SOL    HW122467  12.090   6.710  12.498
40231SOL    HW222468  12.074   6.859  12.481
40232SOL     OW22469   6.577  12.001   0.297
40232SOL    HW122470   6.633  11.949   0.355
40232SOL    HW222471   6.632  12.018   0.220
40233SOL     OW22472   7.008   5.949   2.299
40233SOL    HW122473   7.060   5.883   2.252
40233SOL    HW222474   7.071   6.018   2.320
40234SOL     OW22475  12.480  13.852   5.577
40234SOL    HW122476  12.500  13.904   5.499
40234SOL    HW222477  12.394  13.815   5.560
40235SOL     OW22478   1.442   7.226  10.286
40235SOL    HW122479   1.387   7.263  10.216
40235SOL    HW222480   1.522   7.280  10.285
40236SOL     OW22481  11.080  12.268   6.187
40236SOL    HW122482  11.171  12.248   6.208
40236SOL    HW222483  11.059  12.344   6.243
40237SOL     OW22484   1.926   6.539   3.579
40237SOL    HW122485   1.861   6.526   3.648
40237SOL    HW222486   1.877   6.524   3.498
40238SOL     OW22487   8.529   9.995  14.332
40238SOL    HW122488   8.450   9.995  14.277
40238SOL    HW222489   8.521   9.917  14.386
40239SOL     OW22490   2.173  12.713   6.369
40239SOL    HW122491   2.154  12.793   6.321
40239SOL    HW222492   2.269  12.713   6.378
40240SOL     OW22493  11.037   7.480   5.788
40240SOL    HW122494  10.994   7.440   5.863
40240SOL    HW222495  10.966   7.526   5.742
40241SOL     OW22496  13.322  10.892   5.362
40241SOL    HW122497  13.418  10.892   5.356
40241SOL    HW222498  13.303  10.944   5.440
40242SOL     OW22499   4.252   4.095   1.492
40242SOL    HW122500   4.199   4.083   1.571
40242SOL    HW222501   4.337   4.125   1.524
40243SOL     OW22502  12.783   8.284   8.146
40243SOL    HW122503  12.695   8.321   8.135
40243SOL    HW222504  12.773   8.192   8.124
40244SOL     OW22505   6.354   3.266  14.578
40244SOL    HW122506   6.385   3.176  14.572
40244SOL    HW222507   6.398   3.312  14.506
40245SOL     OW22508  12.686   3.974  11.785
40245SOL    HW122509  12.658   3.891  11.825
40245SOL    HW222510  12.707   3.951  11.694
40246SOL     OW22511   5.931   0.209   9.664
40246SOL    HW122512   5.953   0.201   9.571
40246SOL    HW222513   5.997   0.269   9.699
40247SOL     OW22514   6.123   1.395  10.154
40247SOL    HW122515   6.185   1.355  10.216
40247SOL    HW222516   6.176   1.414  10.076
40248SOL     OW22517  13.244  12.568   3.441
40248SOL    HW122518  13.264  12.657   3.411
40248SOL    HW222519  13.302  12.512   3.391
40249SOL     OW22520  11.936   3.028  11.059
40249SOL    HW122521  12.020   2.999  11.095
40249SOL    HW222522  11.913   3.106  11.109
40250SOL     OW22523  11.991   1.148   3.945
40250SOL    HW122524  11.914   1.188   3.904
40250SOL    HW222525  12.057   1.217   3.944
40251SOL     OW22526   5.392   0.745   1.662
40251SOL    HW122527   5.365   0.692   1.586
40251SOL    HW222528   5.438   0.820   1.623
40252SOL     OW22529  10.662   0.186   2.711
40252SOL    HW122530  10.690   0.200   2.620
40252SOL    HW222531  10.741   0.154   2.755
40253SOL     OW22532  10.501   5.066  12.634
40253SOL    HW122533  10.436   5.066  12.704
40253SOL    HW222534  10.476   4.994  12.577
40254SOL     OW22535  12.994   3.139   2.758
40254SOL    HW122536  12.917   3.113   2.808
40254SOL    HW222537  12.989   3.088   2.678
40255SOL     OW22538   4.750   3.249  11.361
40255SOL    HW122539   4.765   3.156  11.376
40255SOL    HW222540   4.669   3.269  11.408
40256SOL     OW22541   1.169  14.358   0.822
40256SOL    HW122542   1.215  14.303   0.758
40256SOL    HW222543   1.126  14.425   0.770
40257SOL     OW22544   7.800   9.568   9.899
40257SOL    HW122545   7.753   9.486   9.915
40257SOL    HW222546   7.732   9.629   9.870
40258SOL     OW22547   3.827   9.765  10.448
40258SOL    HW122548   3.766   9.692  10.461
40258SOL    HW222549   3.800   9.804  10.365
40259SOL     OW22550   7.293  12.141   1.008
40259SOL    HW122551   7.384  12.163   1.028
40259SOL    HW222552   7.244  12.221   1.028
40260SOL     OW22553   7.698   5.829  10.364
40260SOL    HW122554   7.630   5.891  10.387
40260SOL    HW222555   7.677   5.801  10.275
40261SOL     OW22556  10.989   0.380   6.242
40261SOL    HW122557  11.058   0.375   6.176
40261SOL    HW222558  10.916   0.330   6.204
40262SOL     OW22559   6.790  14.105   0.993
40262SOL    HW122560   6.822  14.017   0.974
40262SOL    HW222561   6.836  14.161   0.930
40263SOL     OW22562   2.459  11.276  13.790
40263SOL    HW122563   2.376  11.287  13.742
40263SOL    HW222564   2.525  11.269  13.721
40264SOL     OW22565   4.929  14.465   2.451
40264SOL    HW122566   4.898  14.441   2.539
40264SOL    HW222567   4.864  14.528   2.419
40265SOL     OW22568   9.035   6.532  13.062
40265SOL    HW122569   9.001   6.518  13.151
40265SOL    HW222570   9.090   6.456  13.045
40266SOL     OW22571   7.308   5.878   4.271
40266SOL    HW122572   7.290   5.798   4.320
40266SOL    HW222573   7.403   5.877   4.258
40267SOL     OW22574   9.151  13.039  14.547
40267SOL    HW122575   9.087  13.034  14.475
40267SOL    HW222576   9.102  13.011  14.624
40268SOL     OW22577  13.238   3.528  10.289
40268SOL    HW122578  13.154   3.557  10.326
40268SOL    HW222579  13.268   3.604  10.237
40269SOL     OW22580   4.519  14.051  13.215
40269SOL    HW122581   4.558  13.965  13.199
40269SOL    HW222582   4.450  14.034  13.279
40270SOL     OW22583   3.018   3.360  11.778
40270SOL    HW122584   3.003   3.266  11.787
40270SOL    HW222585   2.945   3.401  11.824
40271SOL     OW22586   7.357   7.428  12.037
40271SOL    HW122587   7.429   7.387  11.988
40271SOL    HW222588   7.279   7.408  11.986
40272SOL     OW22589   7.253   1.625   4.856
40272SOL    HW122590   7.166   1.586   4.849
40272SOL    HW222591   7.254   1.667   4.942
40273SOL     OW22592  10.070   2.045   0.060
40273SOL    HW122593  10.154   2.086   0.040
40273SOL    HW222594  10.006   2.115   0.048
40274SOL     OW22595   0.371   0.353   7.363
40274SOL    HW122596   0.279   0.354   7.335
40274SOL    HW222597   0.407   0.434   7.329
40275SOL     OW22598   3.377   6.276   2.593
40275SOL    HW122599   3.379   6.198   2.537
40275SOL    HW222600   3.407   6.246   2.678
40276SOL     OW22601   0.217  12.273   1.195
40276SOL    HW122602   0.227  12.259   1.289
40276SOL    HW222603   0.123  12.264   1.179
40277SOL     OW22604   4.360   1.578  12.911
40277SOL    HW122605   4.295   1.543  12.972
40277SOL    HW222606   4.444   1.548  12.947
40278SOL     OW22607  11.746   1.017   8.891
40278SOL    HW122608  11.656   1.035   8.919
40278SOL    HW222609  11.741   0.930   8.851
40279SOL     OW22610   9.550  12.388   0.320
40279SOL    HW122611   9.601  12.332   0.378
40279SOL    HW222612   9.512  12.454   0.379
40280SOL     OW22613   9.847  12.817   6.067
40280SOL    HW122614   9.883  12.906   6.068
40280SOL    HW222615   9.907  12.767   6.123
40281SOL     OW22616   2.799  13.773  14.660
40281SOL    HW122617   2.888  13.741  14.642
40281SOL    HW222618   2.803  13.866  14.639
40282SOL     OW22619   0.690   3.183   2.974
40282SOL    HW122620   0.598   3.209   2.986
40282SOL    HW222621   0.688   3.122   2.900
40283SOL     OW22622  14.128   9.315   5.370
40283SOL    HW122623  14.204   9.341   5.421
40283SOL    HW222624  14.084   9.397   5.348
40284SOL     OW22625   6.541   5.611  12.516
40284SOL    HW122626   6.448   5.590  12.513
40284SOL    HW222627   6.550   5.667  12.594
40285SOL     OW22628  10.491   1.999   0.422
40285SOL    HW122629  10.414   2.006   0.365
40285SOL    HW222630  10.462   1.944   0.495
40286SOL     OW22631  13.828   3.386   5.955
40286SOL    HW122632  13.866   3.399   6.042
40286SOL    HW222633  13.776   3.306   5.964
40287SOL     OW22634   4.513   1.489   4.110
40287SOL    HW122635   4.495   1.405   4.067
40287SOL    HW222636   4.566   1.465   4.186
40288SOL     OW22637  10.066  12.413   9.235
40288SOL    HW122638  10.000  12.476   9.207
40288SOL    HW222639  10.116  12.394   9.155
40289SOL     OW22640  10.795   1.675   2.009
40289SOL    HW122641  10.865   1.613   1.989
40289SOL    HW222642  10.826   1.722   2.087
40290SOL     OW22643   3.996  12.254  14.110
40290SOL    HW122644   3.986  12.238  14.016
40290SOL    HW222645   3.922  12.312  14.131
40291SOL     OW22646   8.530  10.464   3.046
40291SOL    HW122647   8.506  10.481   2.955
40291SOL    HW222648   8.447  10.464   3.094
40292SOL     OW22649   4.943   7.554   1.066
40292SOL    HW122650   4.891   7.519   1.138
40292SOL    HW222651   4.932   7.491   0.995
40293SOL     OW22652   2.676  11.349   6.655
40293SOL    HW122653   2.753  11.342   6.712
40293SOL    HW222654   2.616  11.282   6.688
40294SOL     OW22655   3.879   1.537   6.022
40294SOL    HW122656   3.829   1.461   5.991
40294SOL    HW222657   3.852   1.608   5.963
40295SOL     OW22658  11.246   1.175   7.235
40295SOL    HW122659  11.214   1.264   7.246
40295SOL    HW222660  11.182   1.120   7.282
40296SOL     OW22661   3.356   0.127   7.516
40296SOL    HW122662   3.400   0.094   7.437
40296SOL    HW222663   3.397   0.211   7.534
40297SOL     OW22664  12.785   3.428  10.320
40297SOL    HW122665  12.805   3.358  10.258
40297SOL    HW222666  12.713   3.477  10.280
40298SOL     OW22667   1.913   4.758   7.064
40298SOL    HW122668   1.873   4.816   7.000
40298SOL    HW222669   1.936   4.679   7.015
40299SOL     OW22670  11.664  10.777  12.854
40299SOL    HW122671  11.641  10.695  12.897
40299SOL    HW222672  11.736  10.754  12.794
40300SOL     OW22673   3.300   6.742  13.017
40300SOL    HW122674   3.376   6.791  13.047
40300SOL    HW222675   3.336   6.672  12.962
40301SOL     OW22676   1.042   3.085  12.511
40301SOL    HW122677   1.053   3.177  12.535
40301SOL    HW222678   1.104   3.038  12.567
40302SOL     OW22679  13.182   7.273  11.627
40302SOL    HW122680  13.236   7.330  11.682
40302SOL    HW222681  13.213   7.290  11.538
40303SOL     OW22682   2.226  12.763   7.452
40303SOL    HW122683   2.226  12.670   7.430
40303SOL    HW222684   2.152  12.773   7.512
40304SOL     OW22685   8.530   6.993   5.958
40304SOL    HW122686   8.445   6.980   5.915
40304SOL    HW222687   8.592   6.945   5.904
40305SOL     OW22688  12.828   8.911   3.914
40305SOL    HW122689  12.838   8.999   3.877
40305SOL    HW222690  12.738   8.908   3.945
40306SOL     OW22691  12.397   0.968  11.499
40306SOL    HW122692  12.477   1.018  11.479
40306SOL    HW222693  12.375   0.992  11.588
40307SOL     OW22694  12.948   6.247   9.702
40307SOL    HW122695  12.862   6.244   9.743
40307SOL    HW222696  12.975   6.339   9.707
40308SOL     OW22697  12.766   8.606   9.838
40308SOL    HW122698  12.742   8.652   9.918
40308SOL    HW222699  12.853   8.570   9.856
40309SOL     OW22700   2.496   7.362  11.509
40309SOL    HW122701   2.422   7.418  11.483
40309SOL    HW222702   2.500   7.295  11.441
40310SOL     OW22703  14.038   2.887   3.335
40310SOL    HW122704  13.990   2.966   3.309
40310SOL    HW222705  13.979   2.815   3.312
40311SOL     OW22706   3.167   1.625   1.904
40311SOL    HW122707   3.085   1.675   1.906
40311SOL    HW222708   3.223   1.667   1.969
40312SOL     OW22709  10.607   2.249  13.524
40312SOL    HW122710  10.570   2.312  13.585
40312SOL    HW222711  10.678   2.207  13.573
40313SOL     OW22712   9.471  11.784   2.243
40313SOL    HW122713   9.402  11.718   2.246
40313SOL    HW222714   9.430  11.863   2.280
40314SOL     OW22715  11.591   2.054   1.479
40314SOL    HW122716  11.633   2.112   1.416
40314SOL    HW222717  11.560   1.980   1.426
40315SOL     OW22718  12.839   8.947  13.847
40315SOL    HW122719  12.766   8.895  13.880
40315SOL    HW222720  12.917   8.900  13.878
40316SOL     OW22721   8.346  10.013   7.362
40316SOL    HW122722   8.296   9.946   7.315
40316SOL    HW222723   8.306  10.096   7.336
40317SOL     OW22724  14.694  14.279   5.539
40317SOL    HW122725  14.631  14.311   5.603
40317SOL    HW222726  14.700  14.350   5.474
40318SOL     OW22727   4.049   9.606   5.684
40318SOL    HW122728   3.970   9.562   5.652
40318SOL    HW222729   4.110   9.535   5.701
40319SOL     OW22730   8.721  13.636   1.711
40319SOL    HW122731   8.715  13.586   1.792
40319SOL    HW222732   8.690  13.724   1.735
40320SOL     OW22733   0.418  13.833   5.289
40320SOL    HW122734   0.404  13.926   5.307
40320SOL    HW222735   0.349  13.788   5.338
40321SOL     OW22736   0.970   1.742   8.489
40321SOL    HW122737   0.926   1.826   8.502
40321SOL    HW222738   1.029   1.734   8.565
40322SOL     OW22739   6.010  14.333   6.136
40322SOL    HW122740   5.924  14.310   6.171
40322SOL    HW222741   6.064  14.255   6.152
40323SOL     OW22742   9.179   6.885  12.799
40323SOL    HW122743   9.249   6.833  12.840
40323SOL    HW222744   9.206   6.893  12.707
40324SOL     OW22745   3.527   9.391   4.051
40324SOL    HW122746   3.554   9.348   4.132
40324SOL    HW222747   3.441   9.352   4.032
40325SOL     OW22748   9.673   9.231   6.692
40325SOL    HW122749   9.758   9.224   6.650
40325SOL    HW222750   9.629   9.148   6.674
40326SOL     OW22751   9.544   5.400   8.490
40326SOL    HW122752   9.631   5.385   8.455
40326SOL    HW222753   9.558   5.428   8.580
40327SOL     OW22754  10.840   4.584   1.029
40327SOL    HW122755  10.879   4.512   0.980
40327SOL    HW222756  10.754   4.596   0.988
40328SOL     OW22757  10.483  10.753   7.411
40328SOL    HW122758  10.540  10.735   7.336
40328SOL    HW222759  10.453  10.843   7.397
40329SOL     OW22760   0.840   3.752  13.069
40329SOL    HW122761   0.863   3.836  13.030
40329SOL    HW222762   0.785   3.775  13.144
40330SOL     OW22763  13.744   5.409  13.515
40330SOL    HW122764  13.708   5.497  13.513
40330SOL    HW222765  13.823   5.414  13.461
40331SOL     OW22766  11.860   8.007   2.162
40331SOL    HW122767  11.928   8.058   2.205
40331SOL    HW222768  11.860   8.039   2.071
40332SOL     OW22769  13.806   9.263   9.424
40332SOL    HW122770  13.730   9.239   9.371
40332SOL    HW222771  13.786   9.350   9.458
40333SOL     OW22772  13.098   3.521   2.511
40333SOL    HW122773  13.003   3.510   2.507
40333SOL    HW222774  13.121   3.500   2.602
40334SOL     OW22775   5.569   4.771   8.842
40334SOL    HW122776   5.540   4.762   8.933
40334SOL    HW222777   5.489   4.774   8.791
40335SOL     OW22778   0.339   8.653   4.628
40335SOL    HW122779   0.373   8.740   4.650
40335SOL    HW222780   0.244   8.665   4.627
40336SOL     OW22781  13.495   3.220  12.400
40336SOL    HW122782  13.556   3.154  12.367
40336SOL    HW222783  13.498   3.291  12.336
40337SOL     OW22784   9.076   9.343  12.601
40337SOL    HW122785   8.997   9.318  12.648
40337SOL    HW222786   9.065   9.436  12.582
40338SOL     OW22787   4.152   4.832   3.158
40338SOL    HW122788   4.202   4.799   3.083
40338SOL    HW222789   4.166   4.926   3.157
40339SOL     OW22790  11.362  11.242   0.736
40339SOL    HW122791  11.378  11.334   0.713
40339SOL    HW222792  11.432  11.194   0.690
40340SOL     OW22793   4.123   5.926   8.748
40340SOL    HW122794   4.174   5.847   8.766
40340SOL    HW222795   4.175   5.975   8.686
40341SOL     OW22796  10.467   7.621  11.726
40341SOL    HW122797  10.487   7.580  11.642
40341SOL    HW222798  10.397   7.567  11.763
40342SOL     OW22799   6.185   5.231   0.679
40342SOL    HW122800   6.257   5.170   0.697
40342SOL    HW222801   6.106   5.180   0.697
40343SOL     OW22802  10.388  14.760   0.592
40343SOL    HW122803  10.297  14.783   0.574
40343SOL    HW222804  10.436  14.841   0.579
40344SOL     OW22805  14.533   9.530   5.206
40344SOL    HW122806  14.491   9.444   5.211
40344SOL    HW222807  14.492   9.581   5.276
40345SOL     OW22808   5.369   8.402   0.535
40345SOL    HW122809   5.336   8.453   0.461
40345SOL    HW222810   5.431   8.461   0.579
40346SOL     OW22811  14.228   0.739  14.553
40346SOL    HW122812  14.301   0.789  14.589
40346SOL    HW222813  14.222   0.661  14.609
40347SOL     OW22814   5.132   5.350   9.221
40347SOL    HW122815   5.163   5.302   9.144
40347SOL    HW222816   5.048   5.309   9.242
40348SOL     OW22817   0.138   6.447  10.925
40348SOL    HW122818   0.081   6.410  10.859
40348SOL    HW222819   0.197   6.506  10.877
40349SOL     OW22820  13.072   7.156  10.709
40349SOL    HW122821  12.994   7.198  10.673
40349SOL    HW222822  13.038   7.085  10.764
40350SOL     OW22823  11.885   3.308  13.628
40350SOL    HW122824  11.843   3.394  13.634
40350SOL    HW222825  11.905   3.284  13.718
40351SOL     OW22826   7.166   7.903   8.926
40351SOL    HW122827   7.142   7.962   8.855
40351SOL    HW222828   7.252   7.934   8.955
40352SOL     OW22829   0.138   7.368   5.676
40352SOL    HW122830   0.066   7.427   5.653
40352SOL    HW222831   0.212   7.426   5.691
40353SOL     OW22832   8.310   0.585   6.516
40353SOL    HW122833   8.367   0.600   6.442
40353SOL    HW222834   8.240   0.650   6.507
40354SOL     OW22835  13.166   7.757  11.705
40354SOL    HW122836  13.098   7.815  11.671
40354SOL    HW222837  13.246   7.809  11.703
40355SOL     OW22838  12.849   7.580   0.006
40355SOL    HW122839  12.889   7.503  14.843
40355SOL    HW222840  12.779   7.544   0.061
40356SOL     OW22841   2.568  13.636   2.307
40356SOL    HW122842   2.643  13.620   2.364
40356SOL    HW222843   2.532  13.549   2.290
40357SOL     OW22844   9.401   4.926   4.369
40357SOL    HW122845   9.494   4.924   4.347
40357SOL    HW222846   9.366   5.001   4.320
40358SOL     OW22847  12.019  10.246  14.758
40358SOL    HW122848  12.040  10.153  14.751
40358SOL    HW222849  11.924  10.251  14.747
40359SOL     OW22850  13.185   5.115   5.972
40359SOL    HW122851  13.102   5.098   5.927
40359SOL    HW222852  13.172   5.199   6.016
40360SOL     OW22853  13.154  11.000  12.810
40360SOL    HW122854  13.088  11.045  12.863
40360SOL    HW222855  13.160  10.912  12.848
40361SOL     OW22856   7.595   2.403   3.550
40361SOL    HW122857   7.646   2.432   3.474
40361SOL    HW222858   7.556   2.320   3.522
40362SOL     OW22859   0.182  10.574  13.534
40362SOL    HW122860   0.111  10.510  13.527
40362SOL    HW222861   0.207  10.572  13.626
40363SOL     OW22862   3.041   3.825  11.531
40363SOL    HW122863   3.088   3.752  11.571
40363SOL    HW222864   3.001   3.871  11.605
40364SOL     OW22865   8.955   0.639  10.629
40364SOL    HW122866   8.914   0.722  10.604
40364SOL    HW222867   9.029   0.629  10.569
40365SOL     OW22868   7.009   7.861   2.470
40365SOL    HW122869   6.979   7.935   2.416
40365SOL    HW222870   7.099   7.884   2.492
40366SOL     OW22871   9.543  13.313   5.207
40366SOL    HW122872   9.519  13.225   5.236
40366SOL    HW222873   9.465  13.366   5.226
40367SOL     OW22874  11.122  10.757   4.390
40367SOL    HW122875  11.102  10.690   4.456
40367SOL    HW222876  11.138  10.708   4.310
40368SOL     OW22877   9.750   6.409   3.916
40368SOL    HW122878   9.763   6.411   3.822
40368SOL    HW222879   9.777   6.320   3.942
40369SOL     OW22880   4.012   2.895   6.317
40369SOL    HW122881   4.096   2.900   6.273
40369SOL    HW222882   3.996   2.984   6.350
40370SOL     OW22883   9.941   8.861   2.289
40370SOL    HW122884   9.903   8.847   2.202
40370SOL    HW222885  10.029   8.824   2.283
40371SOL     OW22886   6.133   1.539   3.432
40371SOL    HW122887   6.203   1.581   3.382
40371SOL    HW222888   6.088   1.484   3.368
40372SOL     OW22889  10.931  13.957   9.603
40372SOL    HW122890  10.967  13.871   9.627
40372SOL    HW222891  10.928  14.005   9.686
40373SOL     OW22892  11.568  14.166  12.481
40373SOL    HW122893  11.540  14.255  12.504
40373SOL    HW222894  11.535  14.153  12.392
40374SOL     OW22895  13.053  10.692   9.656
40374SOL    HW122896  12.999  10.692   9.735
40374SOL    HW222897  13.128  10.748   9.677
40375SOL     OW22898   9.808   2.477  13.949
40375SOL    HW122899   9.875   2.421  13.909
40375SOL    HW222900   9.725   2.438  13.920
40376SOL     OW22901   3.055   6.379   5.949
40376SOL    HW122902   2.989   6.363   5.882
40376SOL    HW222903   3.033   6.465   5.984
40377SOL     OW22904  11.709   5.838   4.521
40377SOL    HW122905  11.684   5.928   4.542
40377SOL    HW222906  11.693   5.831   4.427
40378SOL     OW22907   9.889  10.483   0.440
40378SOL    HW122908   9.833  10.425   0.388
40378SOL    HW222909   9.880  10.568   0.399
40379SOL     OW22910   2.777   0.753   6.795
40379SOL    HW122911   2.682   0.745   6.795
40379SOL    HW222912   2.795   0.826   6.853
40380SOL     OW22913  13.711   5.273  12.955
40380SOL    HW122914  13.778   5.281  12.887
40380SOL    HW222915  13.629   5.285  12.908
40381SOL     OW22916   9.554   8.689  12.909
40381SOL    HW122917   9.543   8.736  12.991
40381SOL    HW222918   9.488   8.725  12.850
40382SOL     OW22919  14.701   6.564   7.228
40382SOL    HW122920  14.688   6.546   7.135
40382SOL    HW222921  14.656   6.647   7.243
40383SOL     OW22922  11.531   4.812   3.154
40383SOL    HW122923  11.530   4.785   3.246
40383SOL    HW222924  11.619   4.847   3.140
40384SOL     OW22925   0.093   9.084  12.918
40384SOL    HW122926   0.058   8.995  12.926
40384SOL    HW222927   0.016   9.140  12.916
40385SOL     OW22928  10.745   6.422  12.051
40385SOL    HW122929  10.826   6.433  12.001
40385SOL    HW222930  10.725   6.329  12.043
40386SOL     OW22931   1.222   6.892  13.930
40386SOL    HW122932   1.260   6.856  14.010
40386SOL    HW222933   1.140   6.845  13.918
40387SOL     OW22934  13.591   0.086  14.187
40387SOL    HW122935  13.519   0.061  14.130
40387SOL    HW222936  13.550   0.135  14.259
40388SOL     OW22937   2.712   3.918  14.839
40388SOL    HW122938   2.679   3.855   0.025
40388SOL    HW222939   2.654   3.908  14.763
40389SOL     OW22940  11.903  14.256   5.000
40389SOL    HW122941  11.995  14.267   4.979
40389SOL    HW222942  11.856  14.272   4.918
40390SOL     OW22943   0.303  10.314   9.788
40390SOL    HW122944   0.210  10.333   9.776
40390SOL    HW222945   0.317  10.322   9.883
40391SOL     OW22946   3.320   8.085   1.248
40391SOL    HW122947   3.322   8.133   1.165
40391SOL    HW222948   3.322   7.993   1.222
40392SOL     OW22949   4.480  11.113   1.831
40392SOL    HW122950   4.453  11.204   1.814
40392SOL    HW222951   4.572  11.120   1.857
40393SOL     OW22952   5.133   1.215  14.679
40393SOL    HW122953   5.072   1.224  14.606
40393SOL    HW222954   5.115   1.290  14.735
40394SOL     OW22955   8.583   0.034   5.372
40394SOL    HW122956   8.558  14.850   5.303
40394SOL    HW222957   8.664   0.074   5.340
40395SOL     OW22958   5.656  10.729   3.101
40395SOL    HW122959   5.606  10.768   3.028
40395SOL    HW222960   5.747  10.739   3.075
40396SOL     OW22961   0.705   7.328   5.023
40396SOL    HW122962   0.734   7.325   5.114
40396SOL    HW222963   0.768   7.271   4.976
40397SOL     OW22964   3.841   5.242  12.643
40397SOL    HW122965   3.899   5.174  12.678
40397SOL    HW222966   3.853   5.237  12.548
40398SOL     OW22967  12.498   9.654   6.980
40398SOL    HW122968  12.426   9.713   7.001
40398SOL    HW222969  12.566   9.674   7.045
40399SOL     OW22970   2.043   2.680   9.628
40399SOL    HW122971   1.963   2.717   9.591
40399SOL    HW222972   2.018   2.652   9.717
40400SOL     OW22973   2.288  12.325   2.546
40400SOL    HW122974   2.230  12.400   2.561
40400SOL    HW222975   2.257  12.288   2.463
40401SOL     OW22976   4.216   7.974  10.592
40401SOL    HW122977   4.135   7.964  10.641
40401SOL    HW222978   4.257   8.053  10.627
40402SOL     OW22979  12.204  10.950   9.727
40402SOL    HW122980  12.205  10.889   9.653
40402SOL    HW222981  12.294  10.949   9.760
40403SOL     OW22982  12.226  12.532   1.669
40403SOL    HW122983  12.229  12.533   1.765
40403SOL    HW222984  12.316  12.516   1.642
40404SOL     OW22985   2.916   2.128  13.063
40404SOL    HW122986   2.832   2.165  13.037
40404SOL    HW222987   2.924   2.048  13.011
40405SOL     OW22988   5.223  13.834  13.431
40405SOL    HW122989   5.197  13.799  13.346
40405SOL    HW222990   5.257  13.922  13.412
40406SOL     OW22991   4.665  14.193   4.915
40406SOL    HW122992   4.593  14.247   4.946
40406SOL    HW222993   4.674  14.123   4.980
40407SOL     OW22994   4.205   0.735  14.180
40407SOL    HW122995   4.291   0.715  14.216
40407SOL    HW222996   4.220   0.810  14.122
40408SOL     OW22997   6.219   0.554   8.925
40408SOL    HW122998   6.183   0.481   8.976
40408SOL    HW222999   6.143   0.607   8.903
40409SOL     OW23000   1.580   3.520  12.213
40409SOL    HW123001   1.572   3.425  12.224
40409SOL    HW223002   1.492   3.548  12.188
40410SOL     OW23003   9.496   0.021  10.810
40410SOL    HW123004   9.480   0.069  10.891
40410SOL    HW223005   9.451   0.071  10.742
40411SOL     OW23006   9.797   7.828   6.601
40411SOL    HW123007   9.718   7.810   6.551
40411SOL    HW223008   9.766   7.861   6.685
40412SOL     OW23009  11.417   5.708  13.067
40412SOL    HW123010  11.490   5.746  13.018
40412SOL    HW223011  11.410   5.618  13.034
40413SOL     OW23012  13.311   0.547   9.467
40413SOL    HW123013  13.363   0.489   9.522
40413SOL    HW223014  13.235   0.568   9.521
40414SOL     OW23015   4.769  13.691   8.896
40414SOL    HW123016   4.768  13.736   8.980
40414SOL    HW223017   4.740  13.757   8.833
40415SOL     OW23018  12.863  14.039   6.926
40415SOL    HW123019  12.820  14.061   7.008
40415SOL    HW223020  12.793  14.044   6.860
40416SOL     OW23021   7.348   1.763   6.020
40416SOL    HW123022   7.394   1.828   6.073
40416SOL    HW223023   7.413   1.695   6.002
40417SOL     OW23024   7.861  13.378  11.369
40417SOL    HW123025   7.818  13.412  11.447
40417SOL    HW223026   7.829  13.433  11.298
40418SOL     OW23027   4.746   9.713  11.479
40418SOL    HW123028   4.786   9.798  11.458
40418SOL    HW223029   4.787   9.687  11.562
40419SOL     OW23030   6.077  11.927   8.579
40419SOL    HW123031   6.029  11.916   8.661
40419SOL    HW223032   6.169  11.914   8.602
40420SOL     OW23033   6.731   7.029  14.712
40420SOL    HW123034   6.807   7.081  14.735
40420SOL    HW223035   6.716   7.048  14.619
40421SOL     OW23036  11.098  12.741  14.545
40421SOL    HW123037  11.038  12.763  14.617
40421SOL    HW223038  11.146  12.821  14.528
40422SOL     OW23039   3.788   8.273   8.084
40422SOL    HW123040   3.733   8.302   8.157
40422SOL    HW223041   3.782   8.178   8.085
40423SOL     OW23042   7.612  14.528   2.595
40423SOL    HW123043   7.563  14.605   2.625
40423SOL    HW223044   7.545  14.460   2.586
40424SOL     OW23045   5.081   9.848   0.667
40424SOL    HW123046   5.132   9.823   0.590
40424SOL    HW223047   5.131   9.919   0.707
40425SOL     OW23048   2.004   1.377   7.191
40425SOL    HW123049   1.947   1.410   7.121
40425SOL    HW223050   1.944   1.364   7.265
40426SOL     OW23051   0.150   4.511   7.957
40426SOL    HW123052   0.144   4.597   7.999
40426SOL    HW223053   0.061   4.476   7.963
40427SOL     OW23054   3.905   5.745   4.683
40427SOL    HW123055   3.916   5.674   4.746
40427SOL    HW223056   3.922   5.825   4.732
40428SOL     OW23057   5.763   5.452   7.064
40428SOL    HW123058   5.767   5.456   7.160
40428SOL    HW223059   5.822   5.521   7.035
40429SOL     OW23060   5.225   6.374   2.522
40429SOL    HW123061   5.231   6.448   2.582
40429SOL    HW223062   5.300   6.384   2.463
40430SOL     OW23063   8.155   3.823   2.119
40430SOL    HW123064   8.159   3.891   2.051
40430SOL    HW223065   8.062   3.799   2.124
40431SOL     OW23066   2.617  13.994  11.582
40431SOL    HW123067   2.554  13.922  11.573
40431SOL    HW223068   2.672  13.968  11.656
40432SOL     OW23069   5.056   8.677   5.408
40432SOL    HW123070   5.005   8.600   5.431
40432SOL    HW223071   5.018   8.708   5.325
40433SOL     OW23072   7.104   7.099   1.255
40433SOL    HW123073   7.135   7.032   1.194
40433SOL    HW223074   7.070   7.169   1.198
40434SOL     OW23075   2.043   9.987  12.766
40434SOL    HW123076   1.992   9.912  12.736
40434SOL    HW223077   2.111   9.950  12.823
40435SOL     OW23078   3.688   0.076  11.794
40435SOL    HW123079   3.709   0.168  11.809
40435SOL    HW223080   3.774   0.033  11.786
40436SOL     OW23081  12.210  13.068  13.186
40436SOL    HW123082  12.288  13.042  13.137
40436SOL    HW223083  12.137  13.050  13.127
40437SOL     OW23084  10.265  13.169  14.214
40437SOL    HW123085  10.309  13.088  14.240
40437SOL    HW223086  10.214  13.194  14.291
40438SOL     OW23087   2.241   6.876   1.009
40438SOL    HW123088   2.236   6.953   1.066
40438SOL    HW223089   2.202   6.906   0.926
40439SOL     OW23090  12.611   5.716  11.921
40439SOL    HW123091  12.568   5.794  11.957
40439SOL    HW223092  12.699   5.718  11.960
40440SOL     OW23093  12.884  12.398   2.726
40440SOL    HW123094  12.910  12.482   2.688
40440SOL    HW223095  12.947  12.335   2.692
40441SOL     OW23096  14.090   3.756   0.437
40441SOL    HW123097  14.100   3.840   0.482
40441SOL    HW223098  14.024   3.772   0.370
40442SOL     OW23099  12.714  12.860   3.111
40442SOL    HW123100  12.705  12.913   3.032
40442SOL    HW223101  12.715  12.924   3.183
40443SOL     OW23102   2.116  11.351   1.417
40443SOL    HW123103   2.123  11.304   1.499
40443SOL    HW223104   2.201  11.394   1.407
40444SOL     OW23105   8.178   2.081   2.290
40444SOL    HW123106   8.128   2.056   2.213
40444SOL    HW223107   8.248   2.016   2.296
40445SOL     OW23108  14.874  11.407   2.474
40445SOL    HW123109   0.008  11.427   2.381
40445SOL    HW223110  14.840  11.318   2.476
40446SOL     OW23111  13.874  13.719  13.043
40446SOL    HW123112  13.841  13.649  13.099
40446SOL    HW223113  13.807  13.787  13.048
40447SOL     OW23114   4.358   6.577  10.289
40447SOL    HW123115   4.430   6.640  10.281
40447SOL    HW223116   4.280   6.631  10.303
40448SOL     OW23117  12.090  14.394   8.122
40448SOL    HW123118  12.022  14.340   8.082
40448SOL    HW223119  12.054  14.483   8.120
40449SOL     OW23120   7.171   7.595  14.783
40449SOL    HW123121   7.136   7.526  14.839
40449SOL    HW223122   7.172   7.673  14.839
40450SOL     OW23123   3.044   4.340  11.948
40450SOL    HW123124   2.965   4.332  11.894
40450SOL    HW223125   3.041   4.430  11.980
40451SOL     OW23126   3.297   8.472   0.621
40451SOL    HW123127   3.262   8.537   0.682
40451SOL    HW223128   3.239   8.476   0.545
40452SOL     OW23129   9.000  14.209   9.950
40452SOL    HW123130   9.080  14.194   9.899
40452SOL    HW223131   8.930  14.203   9.886
40453SOL     OW23132   2.990   0.140  12.135
40453SOL    HW123133   3.064   0.174  12.084
40453SOL    HW223134   2.915   0.149  12.076
40454SOL     OW23135   2.411  11.190   6.095
40454SOL    HW123136   2.387  11.279   6.122
40454SOL    HW223137   2.404  11.138   6.175
40455SOL     OW23138   2.872   7.904   8.707
40455SOL    HW123139   2.854   7.987   8.662
40455SOL    HW223140   2.943   7.924   8.768
40456SOL     OW23141  13.079   7.231  12.728
40456SOL    HW123142  13.101   7.156  12.673
40456SOL    HW223143  13.036   7.192  12.805
40457SOL     OW23144   4.422  11.048   3.249
40457SOL    HW123145   4.427  11.100   3.169
40457SOL    HW223146   4.512  11.047   3.282
40458SOL     OW23147   9.824   5.806   3.844
40458SOL    HW123148   9.905   5.763   3.819
40458SOL    HW223149   9.792   5.755   3.919
40459SOL     OW23150   5.120   1.014   4.464
40459SOL    HW123151   5.162   1.054   4.388
40459SOL    HW223152   5.112   0.921   4.440
40460SOL     OW23153  10.607  11.716   3.685
40460SOL    HW123154  10.662  11.711   3.607
40460SOL    HW223155  10.646  11.788   3.736
40461SOL     OW23156   0.414   3.230   5.316
40461SOL    HW123157   0.397   3.136   5.320
40461SOL    HW223158   0.509   3.238   5.327
40462SOL     OW23159   3.897   6.960   6.076
40462SOL    HW123160   3.934   6.906   6.146
40462SOL    HW223161   3.972   7.003   6.036
40463SOL     OW23162  11.024  11.868   1.414
40463SOL    HW123163  10.941  11.855   1.459
40463SOL    HW223164  11.000  11.901   1.328
40464SOL     OW23165   8.589  12.783   7.867
40464SOL    HW123166   8.584  12.738   7.783
40464SOL    HW223167   8.606  12.874   7.844
40465SOL     OW23168   0.805  13.920  10.111
40465SOL    HW123169   0.739  13.911  10.043
40465SOL    HW223170   0.817  14.014  10.120
40466SOL     OW23171   3.350   7.103   6.346
40466SOL    HW123172   3.275   7.088   6.403
40466SOL    HW223173   3.399   7.020   6.349
40467SOL     OW23174   0.250  10.030   7.238
40467SOL    HW123175   0.310  10.008   7.167
40467SOL    HW223176   0.293  10.101   7.286
40468SOL     OW23177  10.991   6.254   2.123
40468SOL    HW123178  11.001   6.347   2.144
40468SOL    HW223179  11.005   6.209   2.206
40469SOL     OW23180  10.987  10.428   3.381
40469SOL    HW123181  10.945  10.345   3.355
40469SOL    HW223182  10.948  10.449   3.465
40470SOL     OW23183   2.130  10.125   2.060
40470SOL    HW123184   2.046  10.170   2.066
40470SOL    HW223185   2.108  10.036   2.030
40471SOL     OW23186   2.653   7.915   8.006
40471SOL    HW123187   2.611   7.939   7.923
40471SOL    HW223188   2.592   7.854   8.047
40472SOL     OW23189   5.999   0.218  10.181
40472SOL    HW123190   5.926   0.162  10.211
40472SOL    HW223191   5.958   0.282  10.123
40473SOL     OW23192   1.491   0.192  12.687
40473SOL    HW123193   1.515   0.283  12.670
40473SOL    HW223194   1.481   0.153  12.600
40474SOL     OW23195   9.606   9.612  13.729
40474SOL    HW123196   9.592   9.691  13.782
40474SOL    HW223197   9.610   9.541  13.794
40475SOL     OW23198  11.482   1.322  13.353
40475SOL    HW123199  11.458   1.264  13.426
40475SOL    HW223200  11.567   1.290  13.324
40476SOL     OW23201  10.258   5.268   4.048
40476SOL    HW123202  10.179   5.243   3.999
40476SOL    HW223203  10.236   5.252   4.140
40477SOL     OW23204   2.610   5.665   4.175
40477SOL    HW123205   2.632   5.576   4.151
40477SOL    HW223206   2.531   5.685   4.125
40478SOL     OW23207  10.689   5.261  11.567
40478SOL    HW123208  10.649   5.299  11.489
40478SOL    HW223209  10.779   5.240  11.541
40479SOL     OW23210  11.351   7.164  12.087
40479SOL    HW123211  11.298   7.235  12.051
40479SOL    HW223212  11.434   7.206  12.112
40480SOL     OW23213   4.231   5.952  12.128
40480SOL    HW123214   4.144   5.915  12.117
40480SOL    HW223215   4.272   5.942  12.042
40481SOL     OW23216   7.585   9.039   3.700
40481SOL    HW123217   7.586   9.002   3.612
40481SOL    HW223218   7.672   9.019   3.735
40482SOL     OW23219   7.902   2.818  13.750
40482SOL    HW123220   7.866   2.750  13.693
40482SOL    HW223221   7.829   2.843  13.807
40483SOL     OW23222   3.011   3.611  11.901
40483SOL    HW123223   3.007   3.597  11.807
40483SOL    HW223224   3.103   3.630  11.919
40484SOL     OW23225   0.276   2.272  11.085
40484SOL    HW123226   0.299   2.229  11.002
40484SOL    HW223227   0.181   2.264  11.090
40485SOL     OW23228   2.126   7.842  10.528
40485SOL    HW123229   2.124   7.938  10.521
40485SOL    HW223230   2.110   7.825  10.621
40486SOL     OW23231   6.504   9.866   1.014
40486SOL    HW123232   6.533   9.864   0.923
40486SOL    HW223233   6.456   9.784   1.026
40487SOL     OW23234   5.529  12.428   4.415
40487SOL    HW123235   5.440  12.450   4.440
40487SOL    HW223236   5.584  12.469   4.483
40488SOL     OW23237   3.850   3.383   3.871
40488SOL    HW123238   3.892   3.310   3.825
40488SOL    HW223239   3.895   3.461   3.840
40489SOL     OW23240  11.430   8.485  10.753
40489SOL    HW123241  11.381   8.441  10.683
40489SOL    HW223242  11.455   8.414  10.812
40490SOL     OW23243   4.106   5.585   3.360
40490SOL    HW123244   4.185   5.586   3.304
40490SOL    HW223245   4.111   5.666   3.410
40491SOL     OW23246  10.644   4.247   9.930
40491SOL    HW123247  10.569   4.299   9.959
40491SOL    HW223248  10.715   4.311   9.920
40492SOL     OW23249  13.195   7.795  12.251
40492SOL    HW123250  13.259   7.745  12.301
40492SOL    HW223251  13.124   7.733  12.234
40493SOL     OW23252  10.584   3.152   5.522
40493SOL    HW123253  10.675   3.183   5.516
40493SOL    HW223254  10.552   3.154   5.432
40494SOL     OW23255  12.517   2.892   8.274
40494SOL    HW123256  12.468   2.819   8.236
40494SOL    HW223257  12.556   2.856   8.353
40495SOL     OW23258   9.353   3.548  10.350
40495SOL    HW123259   9.330   3.558  10.258
40495SOL    HW223260   9.285   3.490  10.386
40496SOL     OW23261   6.887   6.741   8.965
40496SOL    HW123262   6.855   6.718   9.052
40496SOL    HW223263   6.847   6.676   8.907
40497SOL     OW23264   6.293   1.071   5.346
40497SOL    HW123265   6.303   1.122   5.427
40497SOL    HW223266   6.233   1.000   5.370
40498SOL     OW23267   5.718   6.869   7.800
40498SOL    HW123268   5.722   6.855   7.706
40498SOL    HW223269   5.761   6.954   7.814
40499SOL     OW23270   3.541   5.685  10.963
40499SOL    HW123271   3.512   5.705  10.874
40499SOL    HW223272   3.462   5.655  11.008
40500SOL     OW23273   0.535  12.120  13.093
40500SOL    HW123274   0.506  12.210  13.110
40500SOL    HW223275   0.565  12.121  13.002
40501SOL     OW23276   1.820  14.381   3.179
40501SOL    HW123277   1.892  14.396   3.240
40501SOL    HW223278   1.746  14.428   3.217
40502SOL     OW23279   4.117   2.394  11.038
40502SOL    HW123280   4.162   2.409  10.954
40502SOL    HW223281   4.040   2.341  11.015
40503SOL     OW23282   8.889   0.648   5.354
40503SOL    HW123283   8.849   0.614   5.434
40503SOL    HW223284   8.959   0.705   5.385
40504SOL     OW23285  13.115  13.997   6.111
40504SOL    HW123286  13.029  14.023   6.078
40504SOL    HW223287  13.134  13.914   6.069
40505SOL     OW23288   4.816   8.606   4.537
40505SOL    HW123289   4.904   8.623   4.570
40505SOL    HW223290   4.829   8.577   4.447
40506SOL     OW23291   4.381   8.568  13.207
40506SOL    HW123292   4.473   8.549  13.187
40506SOL    HW223293   4.332   8.501  13.159
40507SOL     OW23294   9.535   2.112   5.420
40507SOL    HW123295   9.621   2.071   5.423
40507SOL    HW223296   9.553   2.205   5.416
40508SOL     OW23297  14.220   4.415   4.794
40508SOL    HW123298  14.252   4.473   4.862
40508SOL    HW223299  14.228   4.466   4.713
40509SOL     OW23300   1.344   2.141   8.912
40509SOL    HW123301   1.266   2.101   8.874
40509SOL    HW223302   1.379   2.196   8.842
40510SOL     OW23303  10.272   3.788   5.454
40510SOL    HW123304  10.299   3.857   5.394
40510SOL    HW223305  10.291   3.707   5.408
40511SOL     OW23306   7.205   3.447  14.798
40511SOL    HW123307   7.234   3.368  14.843
40511SOL    HW223308   7.286   3.497  14.784
40512SOL     OW23309   5.746  14.394  10.797
40512SOL    HW123310   5.727  14.317  10.850
40512SOL    HW223311   5.716  14.468  10.849
40513SOL     OW23312   2.127   3.512   1.676
40513SOL    HW123313   2.211   3.500   1.719
40513SOL    HW223314   2.138   3.591   1.623
40514SOL     OW23315  12.585  13.667   3.045
40514SOL    HW123316  12.574  13.739   3.107
40514SOL    HW223317  12.677  13.673   3.017
40515SOL     OW23318  12.186  13.491   3.632
40515SOL    HW123319  12.217  13.411   3.674
40515SOL    HW223320  12.147  13.461   3.550
40516SOL     OW23321   4.260   6.789   4.066
40516SOL    HW123322   4.186   6.748   4.021
40516SOL    HW223323   4.307   6.837   3.998
40517SOL     OW23324   4.020  14.169   7.808
40517SOL    HW123325   3.949  14.129   7.757
40517SOL    HW223326   4.031  14.256   7.771
40518SOL     OW23327  10.645  11.081   9.501
40518SOL    HW123328  10.654  11.043   9.413
40518SOL    HW223329  10.723  11.135   9.511
40519SOL     OW23330  14.707   4.581   7.110
40519SOL    HW123331  14.717   4.673   7.134
40519SOL    HW223332  14.681   4.538   7.192
40520SOL     OW23333   4.836  14.427  13.329
40520SOL    HW123334   4.894  14.357  13.360
40520SOL    HW223335   4.786  14.452  13.407
40521SOL     OW23336  14.351  12.954  11.392
40521SOL    HW123337  14.443  12.962  11.365
40521SOL    HW223338  14.314  12.889  11.332
40522SOL     OW23339   2.261   8.497  12.034
40522SOL    HW123340   2.324   8.467  11.968
40522SOL    HW223341   2.178   8.458  12.007
40523SOL     OW23342   2.405   8.572   9.747
40523SOL    HW123343   2.356   8.603   9.671
40523SOL    HW223344   2.441   8.652   9.788
40524SOL     OW23345  10.883   8.274   6.972
40524SOL    HW123346  10.841   8.213   6.911
40524SOL    HW223347  10.911   8.347   6.917
40525SOL     OW23348   9.451   5.482   2.921
40525SOL    HW123349   9.394   5.406   2.938
40525SOL    HW223350   9.447   5.533   3.002
40526SOL     OW23351  11.150   2.169   8.893
40526SOL    HW123352  11.137   2.074   8.889
40526SOL    HW223353  11.069   2.203   8.930
40527SOL     OW23354   8.033   5.317   3.291
40527SOL    HW123355   8.066   5.406   3.276
40527SOL    HW223356   7.980   5.325   3.371
40528SOL     OW23357   3.926  13.668   3.584
40528SOL    HW123358   3.845  13.627   3.615
40528SOL    HW223359   3.927  13.651   3.490
40529SOL     OW23360   5.650   6.023   1.478
40529SOL    HW123361   5.656   6.020   1.383
40529SOL    HW223362   5.560   6.052   1.495
40530SOL     OW23363  14.068   0.913  10.366
40530SOL    HW123364  13.985   0.887  10.405
40530SOL    HW223365  14.059   0.892  10.273
40531SOL     OW23366  13.818   3.223   1.882
40531SOL    HW123367  13.775   3.137   1.881
40531SOL    HW223368  13.909   3.204   1.861
40532SOL     OW23369  10.827   4.957   8.820
40532SOL    HW123370  10.794   4.890   8.880
40532SOL    HW223371  10.883   4.909   8.759
40533SOL     OW23372   5.237  12.406   8.230
40533SOL    HW123373   5.179  12.476   8.199
40533SOL    HW223374   5.179  12.346   8.275
40534SOL     OW23375   5.371  13.654   0.322
40534SOL    HW123376   5.436  13.587   0.345
40534SOL    HW223377   5.303  13.605   0.276
40535SOL     OW23378  11.617  11.828  12.232
40535SOL    HW123379  11.705  11.821  12.194
40535SOL    HW223380  11.614  11.758  12.298
40536SOL     OW23381   8.739   8.294   6.590
40536SOL    HW123382   8.792   8.372   6.606
40536SOL    HW223383   8.784   8.224   6.637
40537SOL     OW23384   8.601   1.851   8.475
40537SOL    HW123385   8.637   1.804   8.400
40537SOL    HW223386   8.631   1.941   8.465
40538SOL     OW23387  10.402   7.511   7.262
40538SOL    HW123388  10.384   7.420   7.285
40538SOL    HW223389  10.382   7.561   7.341
40539SOL     OW23390   5.858   8.327   5.620
40539SOL    HW123391   5.868   8.409   5.571
40539SOL    HW223392   5.798   8.348   5.691
40540SOL     OW23393  14.278   3.074   8.182
40540SOL    HW123394  14.248   3.069   8.091
40540SOL    HW223395  14.208   3.032   8.233
40541SOL     OW23396  12.905   1.514   5.968
40541SOL    HW123397  12.900   1.588   6.028
40541SOL    HW223398  12.814   1.493   5.948
40542SOL     OW23399   7.006  14.667  14.457
40542SOL    HW123400   7.097  14.667  14.427
40542SOL    HW223401   7.010  14.631  14.545
40543SOL     OW23402   2.438   9.061   0.566
40543SOL    HW123403   2.529   9.072   0.593
40543SOL    HW223404   2.393   9.032   0.646
40544SOL     OW23405   2.875   3.233  12.522
40544SOL    HW123406   2.898   3.309  12.468
40544SOL    HW223407   2.781   3.221  12.509
40545SOL     OW23408  12.240   6.939  10.436
40545SOL    HW123409  12.247   6.966  10.527
40545SOL    HW223410  12.151   6.908  10.426
40546SOL     OW23411   6.564  12.399   7.487
40546SOL    HW123412   6.536  12.454   7.560
40546SOL    HW223413   6.492  12.403   7.424
40547SOL     OW23414  12.221  13.367  10.857
40547SOL    HW123415  12.159  13.439  10.851
40547SOL    HW223416  12.304  13.405  10.827
40548SOL     OW23417   9.421   6.933   4.295
40548SOL    HW123418   9.503   6.891   4.270
40548SOL    HW223419   9.447   7.022   4.320
40549SOL     OW23420   1.363   5.695  13.848
40549SOL    HW123421   1.453   5.665  13.835
40549SOL    HW223422   1.315   5.616  13.871
40550SOL     OW23423  10.952   1.434   2.007
40550SOL    HW123424  10.905   1.382   2.072
40550SOL    HW223425  10.914   1.407   1.923
40551SOL     OW23426   7.507   1.414   4.573
40551SOL    HW123427   7.559   1.492   4.591
40551SOL    HW223428   7.435   1.445   4.518
40552SOL     OW23429   4.784  12.887  12.622
40552SOL    HW123430   4.842  12.857  12.552
40552SOL    HW223431   4.757  12.806  12.666
40553SOL     OW23432   5.257   7.117   2.153
40553SOL    HW123433   5.237   7.156   2.068
40553SOL    HW223434   5.193   7.156   2.213
40554SOL     OW23435  14.539   0.164  13.487
40554SOL    HW123436  14.557   0.197  13.575
40554SOL    HW223437  14.622   0.175  13.440
40555SOL     OW23438  12.912   7.701   2.245
40555SOL    HW123439  12.873   7.686   2.331
40555SOL    HW223440  12.945   7.614   2.219
40556SOL     OW23441   9.170  10.679   3.851
40556SOL    HW123442   9.096  10.738   3.870
40556SOL    HW223443   9.202  10.709   3.766
40557SOL     OW23444   5.190   8.807   0.539
40557SOL    HW123445   5.247   8.730   0.540
40557SOL    HW223446   5.149   8.809   0.625
40558SOL     OW23447   7.571   4.923   1.282
40558SOL    HW123448   7.537   5.012   1.282
40558SOL    HW223449   7.496   4.869   1.258
40559SOL     OW23450   1.008  12.056  14.759
40559SOL    HW123451   0.966  12.133  14.797
40559SOL    HW223452   0.936  12.001  14.730
40560SOL     OW23453   9.802   0.652   5.836
40560SOL    HW123454   9.848   0.692   5.910
40560SOL    HW223455   9.872   0.633   5.773
40561SOL     OW23456  13.398  12.082  14.148
40561SOL    HW123457  13.399  11.997  14.104
40561SOL    HW223458  13.439  12.066  14.232
40562SOL     OW23459   3.407   3.877  13.421
40562SOL    HW123460   3.388   3.783  13.419
40562SOL    HW223461   3.460   3.892  13.343
40563SOL     OW23462   8.910  12.733   8.757
40563SOL    HW123463   8.891  12.801   8.821
40563SOL    HW223464   8.906  12.778   8.672
40564SOL     OW23465   2.922   7.310   5.960
40564SOL    HW123466   2.924   7.400   5.928
40564SOL    HW223467   2.924   7.319   6.055
40565SOL     OW23468   3.616   4.652   1.535
40565SOL    HW123469   3.698   4.605   1.529
40565SOL    HW223470   3.641   4.745   1.538
40566SOL     OW23471  14.758   2.751  13.843
40566SOL    HW123472  14.805   2.833  13.858
40566SOL    HW223473  14.803   2.686  13.897
40567SOL     OW23474   4.662   0.741  10.148
40567SOL    HW123475   4.653   0.736  10.243
40567SOL    HW223476   4.644   0.833  10.127
40568SOL     OW23477   1.699   8.221  11.415
40568SOL    HW123478   1.654   8.139  11.433
40568SOL    HW223479   1.766   8.227  11.483
40569SOL     OW23480   0.330   3.258  12.645
40569SOL    HW123481   0.269   3.185  12.655
40569SOL    HW223482   0.276   3.336  12.655
40570SOL     OW23483  13.344   9.006   7.378
40570SOL    HW123484  13.417   8.972   7.429
40570SOL    HW223485  13.324   9.090   7.419
40571SOL     OW23486   4.957   5.490  10.929
40571SOL    HW123487   4.971   5.566  10.873
40571SOL    HW223488   4.906   5.523  11.003
40572SOL     OW23489   2.074   6.887   8.880
40572SOL    HW123490   2.135   6.918   8.813
40572SOL    HW223491   2.030   6.812   8.839
40573SOL     OW23492  13.585  10.214   7.071
40573SOL    HW123493  13.568  10.152   7.142
40573SOL    HW223494  13.499  10.239   7.039
40574SOL     OW23495   6.536   5.299   7.155
40574SOL    HW123496   6.488   5.218   7.137
40574SOL    HW223497   6.615   5.270   7.200
40575SOL     OW23498   6.957   3.643   1.235
40575SOL    HW123499   6.962   3.631   1.140
40575SOL    HW223500   7.038   3.688   1.258
40576SOL     OW23501   7.355   3.868   4.756
40576SOL    HW123502   7.267   3.903   4.768
40576SOL    HW223503   7.370   3.815   4.834
40577SOL     OW23504   7.078   2.328   1.253
40577SOL    HW123505   7.013   2.269   1.292
40577SOL    HW223506   7.032   2.412   1.246
40578SOL     OW23507  13.528   3.201   4.237
40578SOL    HW123508  13.595   3.269   4.226
40578SOL    HW223509  13.550   3.157   4.319
40579SOL     OW23510   1.033   4.894   3.346
40579SOL    HW123511   1.024   4.990   3.348
40579SOL    HW223512   1.121   4.880   3.310
40580SOL     OW23513   9.643   8.910   7.911
40580SOL    HW123514   9.576   8.939   7.849
40580SOL    HW223515   9.715   8.880   7.856
40581SOL     OW23516   4.950   9.316   0.654
40581SOL    HW123517   4.884   9.287   0.718
40581SOL    HW223518   4.964   9.409   0.675
40582SOL     OW23519   5.363  13.064  11.538
40582SOL    HW123520   5.377  12.978  11.498
40582SOL    HW223521   5.315  13.047  11.618
40583SOL     OW23522   1.053  12.056   9.695
40583SOL    HW123523   1.008  12.107   9.762
40583SOL    HW223524   1.072  12.119   9.626
40584SOL     OW23525   7.998   7.847   4.524
40584SOL    HW123526   7.908   7.858   4.493
40584SOL    HW223527   8.040   7.932   4.510
40585SOL     OW23528   3.096   2.481   8.127
40585SOL    HW123529   3.185   2.447   8.134
40585SOL    HW223530   3.064   2.445   8.043
40586SOL     OW23531   5.977  10.847   6.941
40586SOL    HW123532   5.959  10.899   6.862
40586SOL    HW223533   6.063  10.808   6.926
40587SOL     OW23534   1.164  12.940   1.392
40587SOL    HW123535   1.216  12.960   1.314
40587SOL    HW223536   1.228  12.904   1.454
40588SOL     OW23537   0.985   7.285   2.380
40588SOL    HW123538   0.924   7.226   2.335
40588SOL    HW223539   1.000   7.356   2.318
40589SOL     OW23540   5.963   0.807   0.891
40589SOL    HW123541   5.993   0.758   0.968
40589SOL    HW223542   5.985   0.898   0.911
40590SOL     OW23543   3.395  11.470  12.918
40590SOL    HW123544   3.359  11.531  12.854
40590SOL    HW223545   3.320  11.421  12.950
40591SOL     OW23546   9.445   8.511   6.171
40591SOL    HW123547   9.414   8.420   6.166
40591SOL    HW223548   9.402   8.547   6.248
40592SOL     OW23549  13.467   1.490   1.636
40592SOL    HW123550  13.533   1.448   1.690
40592SOL    HW223551  13.497   1.581   1.628
40593SOL     OW23552  14.004   7.726  11.338
40593SOL    HW123553  13.993   7.793  11.270
40593SOL    HW223554  13.948   7.654  11.311
40594SOL     OW23555   4.488   4.631  10.469
40594SOL    HW123556   4.531   4.562  10.519
40594SOL    HW223557   4.506   4.610  10.378
40595SOL     OW23558  14.140   6.760  13.985
40595SOL    HW123559  14.218   6.752  14.040
40595SOL    HW223560  14.127   6.855  13.976
40596SOL     OW23561   5.156   6.989  11.085
40596SOL    HW123562   5.109   7.036  11.154
40596SOL    HW223563   5.094   6.981  11.013
40597SOL     OW23564   9.352  13.341   4.148
40597SOL    HW123565   9.421  13.327   4.213
40597SOL    HW223566   9.272  13.310   4.191
40598SOL     OW23567  14.658   5.295   8.516
40598SOL    HW123568  14.751   5.304   8.494
40598SOL    HW223569  14.624   5.232   8.454
40599SOL     OW23570   9.050  10.011  13.268
40599SOL    HW123571   8.961   9.984  13.245
40599SOL    HW223572   9.054  10.104  13.246
40600SOL     OW23573  12.332  14.330  13.405
40600SOL    HW123574  12.292  14.277  13.337
40600SOL    HW223575  12.417  14.357  13.368
40601SOL     OW23576   1.317  14.343   0.017
40601SOL    HW123577   1.309  14.325  14.800
40601SOL    HW223578   1.304  14.259   0.059
40602SOL     OW23579   1.964  14.160   7.265
40602SOL    HW123580   1.947  14.065   7.268
40602SOL    HW223581   1.896  14.198   7.320
40603SOL     OW23582  13.219  13.534  10.251
40603SOL    HW123583  13.242  13.458  10.197
40603SOL    HW223584  13.125  13.526  10.264
40604SOL     OW23585   2.883   0.389   2.736
40604SOL    HW123586   2.863   0.309   2.687
40604SOL    HW223587   2.970   0.414   2.706
40605SOL     OW23588   8.558   8.495   0.065
40605SOL    HW123589   8.613   8.446   0.126
40605SOL    HW223590   8.469   8.484   0.099
40606SOL     OW23591   2.977  13.312   8.958
40606SOL    HW123592   2.989  13.336   8.866
40606SOL    HW223593   2.886  13.334   8.977
40607SOL     OW23594  14.578   0.543   7.026
40607SOL    HW123595  14.522   0.621   7.025
40607SOL    HW223596  14.517   0.470   7.018
40608SOL     OW23597   8.736  12.804   4.330
40608SOL    HW123598   8.754  12.806   4.236
40608SOL    HW223599   8.715  12.713   4.349
40609SOL     OW23600   0.393   1.717   6.087
40609SOL    HW123601   0.353   1.684   6.007
40609SOL    HW223602   0.395   1.812   6.076
40610SOL     OW23603  12.867   3.710  11.309
40610SOL    HW123604  12.920   3.647  11.358
40610SOL    HW223605  12.784   3.665  11.294
40611SOL     OW23606   4.987  13.660   2.560
40611SOL    HW123607   4.927  13.697   2.624
40611SOL    HW223608   4.951  13.686   2.475
40612SOL     OW23609   1.815  14.440  14.469
40612SOL    HW123610   1.875  14.405  14.403
40612SOL    HW223611   1.861  14.516  14.505
40613SOL     OW23612  14.657   4.092  10.785
40613SOL    HW123613  14.657   4.135  10.871
40613SOL    HW223614  14.681   4.161  10.723
40614SOL     OW23615   6.592  10.266   0.443
40614SOL    HW123616   6.618  10.294   0.531
40614SOL    HW223617   6.672  10.271   0.391
40615SOL     OW23618   4.280   0.606   2.358
40615SOL    HW123619   4.215   0.631   2.425
40615SOL    HW223620   4.363   0.602   2.406
40616SOL     OW23621  11.611   2.555   0.565
40616SOL    HW123622  11.548   2.559   0.493
40616SOL    HW223623  11.605   2.642   0.606
40617SOL     OW23624   4.152   2.085  13.077
40617SOL    HW123625   4.243   2.089  13.047
40617SOL    HW223626   4.111   2.163  13.039
40618SOL     OW23627   4.261   2.341   3.325
40618SOL    HW123628   4.245   2.248   3.337
40618SOL    HW223629   4.356   2.351   3.327
40619SOL     OW23630  14.054   4.668   4.581
40619SOL    HW123631  14.054   4.681   4.676
40619SOL    HW223632  13.992   4.596   4.567
40620SOL     OW23633  10.622   7.697   0.962
40620SOL    HW123634  10.675   7.733   1.033
40620SOL    HW223635  10.645   7.750   0.886
40621SOL     OW23636  13.245   5.250   3.750
40621SOL    HW123637  13.230   5.155   3.757
40621SOL    HW223638  13.298   5.271   3.826
40622SOL     OW23639  10.077  13.056   6.976
40622SOL    HW123640  10.128  12.998   6.919
40622SOL    HW223641  10.054  13.130   6.920
40623SOL     OW23642   8.422  11.940   9.913
40623SOL    HW123643   8.465  11.987   9.841
40623SOL    HW223644   8.468  11.970   9.992
40624SOL     OW23645   6.674   9.445   8.377
40624SOL    HW123646   6.761   9.481   8.360
40624SOL    HW223647   6.635   9.504   8.443
40625SOL     OW23648  11.794   1.211   0.751
40625SOL    HW123649  11.795   1.240   0.843
40625SOL    HW223650  11.856   1.269   0.707
40626SOL     OW23651   2.038   8.619  14.141
40626SOL    HW123652   1.954   8.666  14.143
40626SOL    HW223653   2.018   8.537  14.096
40627SOL     OW23654   4.077  11.954   5.510
40627SOL    HW123655   4.052  11.952   5.418
40627SOL    HW223656   4.043  11.872   5.546
40628SOL     OW23657   9.452  14.754   0.319
40628SOL    HW123658   9.439  14.688   0.387
40628SOL    HW223659   9.486  14.706   0.244
40629SOL     OW23660   5.950  10.107  12.452
40629SOL    HW123661   6.003  10.133  12.527
40629SOL    HW223662   5.867  10.155  12.464
40630SOL     OW23663   2.495   0.240   6.978
40630SOL    HW123664   2.402   0.218   6.981
40630SOL    HW223665   2.539   0.158   6.957
40631SOL     OW23666   2.206  12.678  13.522
40631SOL    HW123667   2.165  12.592  13.530
40631SOL    HW223668   2.133  12.740  13.527
40632SOL     OW23669   0.451  12.571   6.940
40632SOL    HW123670   0.523  12.625   6.907
40632SOL    HW223671   0.492  12.510   7.000
40633SOL     OW23672   0.913  12.481  12.035
40633SOL    HW123673   0.819  12.484  12.051
40633SOL    HW223674   0.935  12.568  12.002
40634SOL     OW23675   7.114   7.003   3.366
40634SOL    HW123676   7.028   7.042   3.380
40634SOL    HW223677   7.130   7.013   3.272
40635SOL     OW23678   1.024   1.540  10.413
40635SOL    HW123679   1.118   1.549  10.401
40635SOL    HW223680   1.011   1.548  10.508
40636SOL     OW23681   7.694   5.534   6.415
40636SOL    HW123682   7.600   5.539   6.397
40636SOL    HW223683   7.711   5.442   6.435
40637SOL     OW23684  10.113   0.465   6.306
40637SOL    HW123685  10.098   0.558   6.287
40637SOL    HW223686  10.204   0.460   6.333
40638SOL     OW23687   4.892   6.915   4.591
40638SOL    HW123688   4.863   6.979   4.655
40638SOL    HW223689   4.967   6.871   4.633
40639SOL     OW23690  13.081  12.083   1.103
40639SOL    HW123691  13.017  12.012   1.104
40639SOL    HW223692  13.028  12.163   1.103
40640SOL     OW23693   4.861   3.359  11.697
40640SOL    HW123694   4.884   3.423  11.764
40640SOL    HW223695   4.795   3.403  11.643
40641SOL     OW23696   4.553  13.214   0.476
40641SOL    HW123697   4.592  13.136   0.516
40641SOL    HW223698   4.552  13.195   0.382
40642SOL     OW23699   0.430   6.761   3.312
40642SOL    HW123700   0.451   6.722   3.227
40642SOL    HW223701   0.462   6.851   3.306
40643SOL     OW23702   7.885   5.842   3.106
40643SOL    HW123703   7.928   5.791   3.037
40643SOL    HW223704   7.932   5.925   3.108
40644SOL     OW23705  12.946  10.316   0.940
40644SOL    HW123706  13.003  10.314   1.017
40644SOL    HW223707  12.896  10.398   0.949
40645SOL     OW23708   6.289   5.479   4.496
40645SOL    HW123709   6.335   5.474   4.580
40645SOL    HW223710   6.358   5.468   4.430
40646SOL     OW23711  13.611  13.338   4.493
40646SOL    HW123712  13.565  13.284   4.557
40646SOL    HW223713  13.542  13.379   4.441
40647SOL     OW23714   6.633   1.777   0.996
40647SOL    HW123715   6.720   1.777   1.035
40647SOL    HW223716   6.634   1.852   0.936
40648SOL     OW23717   0.407   1.438   1.704
40648SOL    HW123718   0.455   1.369   1.656
40648SOL    HW223719   0.417   1.414   1.796
40649SOL     OW23720   8.247  13.305   2.886
40649SOL    HW123721   8.318  13.248   2.914
40649SOL    HW223722   8.169  13.267   2.927
40650SOL     OW23723   7.576   1.341   7.319
40650SOL    HW123724   7.573   1.434   7.343
40650SOL    HW223725   7.506   1.330   7.255
40651SOL     OW23726   3.958   7.205   8.741
40651SOL    HW123727   4.037   7.231   8.694
40651SOL    HW223728   3.962   7.109   8.743
40652SOL     OW23729   8.636   8.048   7.103
40652SOL    HW123730   8.718   8.070   7.147
40652SOL    HW223731   8.631   7.953   7.108
40653SOL     OW23732   9.180  10.734   5.086
40653SOL    HW123733   9.114  10.669   5.109
40653SOL    HW223734   9.167  10.805   5.148
40654SOL     OW23735  13.755   3.918   9.151
40654SOL    HW123736  13.660   3.914   9.149
40654SOL    HW223737  13.783   3.832   9.121
40655SOL     OW23738  10.460   5.697  14.150
40655SOL    HW123739  10.553   5.689  14.131
40655SOL    HW223740  10.416   5.643  14.084
40656SOL     OW23741  11.836   8.247   7.491
40656SOL    HW123742  11.754   8.239   7.441
40656SOL    HW223743  11.824   8.189   7.566
40657SOL     OW23744  10.199   9.220   5.804
40657SOL    HW123745  10.259   9.250   5.873
40657SOL    HW223746  10.241   9.141   5.769
40658SOL     OW23747   6.438   3.794   7.967
40658SOL    HW123748   6.524   3.820   8.001
40658SOL    HW223749   6.384   3.872   7.975
40659SOL     OW23750   9.653   8.433   0.794
40659SOL    HW123751   9.726   8.372   0.790
40659SOL    HW223752   9.614   8.419   0.881
40660SOL     OW23753   0.547   9.829  12.265
40660SOL    HW123754   0.641   9.843  12.273
40660SOL    HW223755   0.520   9.793  12.350
40661SOL     OW23756   2.511   2.609   9.200
40661SOL    HW123757   2.497   2.701   9.180
40661SOL    HW223758   2.546   2.572   9.119
40662SOL     OW23759   6.277   5.800   0.297
40662SOL    HW123760   6.329   5.728   0.330
40662SOL    HW223761   6.206   5.810   0.361
40663SOL     OW23762   5.572   4.202   4.374
40663SOL    HW123763   5.525   4.161   4.301
40663SOL    HW223764   5.661   4.214   4.342
40664SOL     OW23765   8.597   6.875   8.037
40664SOL    HW123766   8.655   6.858   8.111
40664SOL    HW223767   8.651   6.923   7.974
40665SOL     OW23768   5.135  12.248   8.874
40665SOL    HW123769   5.046  12.271   8.899
40665SOL    HW223770   5.156  12.171   8.927
40666SOL     OW23771   7.149  11.940  10.469
40666SOL    HW123772   7.163  11.847  10.450
40666SOL    HW223773   7.098  11.972  10.394
40667SOL     OW23774  10.195   3.716   1.552
40667SOL    HW123775  10.201   3.691   1.460
40667SOL    HW223776  10.103   3.700   1.575
40668SOL     OW23777   6.503  14.027   7.438
40668SOL    HW123778   6.574  13.964   7.456
40668SOL    HW223779   6.518  14.054   7.347
40669SOL     OW23780  10.766   0.143  13.292
40669SOL    HW123781  10.854   0.115  13.317
40669SOL    HW223782  10.710   0.071  13.318
40670SOL     OW23783  14.101  12.747   3.339
40670SOL    HW123784  14.123  12.654   3.330
40670SOL    HW223785  14.058  12.753   3.425
40671SOL     OW23786   2.939  12.692   1.704
40671SOL    HW123787   2.864  12.719   1.651
40671SOL    HW223788   2.958  12.769   1.758
40672SOL     OW23789   3.527  13.806   8.351
40672SOL    HW123790   3.597  13.752   8.386
40672SOL    HW223791   3.450  13.782   8.401
40673SOL     OW23792   3.237   8.001   9.548
40673SOL    HW123793   3.154   7.990   9.594
40673SOL    HW223794   3.213   8.008   9.456
40674SOL     OW23795  13.665   2.953   3.823
40674SOL    HW123796  13.730   2.907   3.770
40674SOL    HW223797  13.665   3.043   3.791
40675SOL     OW23798   8.799  14.040   0.764
40675SOL    HW123799   8.856  14.027   0.840
40675SOL    HW223800   8.782  13.952   0.731
40676SOL     OW23801   1.712   8.598   4.881
40676SOL    HW123802   1.722   8.503   4.866
40676SOL    HW223803   1.760   8.638   4.809
40677SOL     OW23804   9.144   4.927  12.988
40677SOL    HW123805   9.151   4.834  13.010
40677SOL    HW223806   9.119   4.969  13.070
40678SOL     OW23807   0.192   3.580   2.736
40678SOL    HW123808   0.259   3.570   2.803
40678SOL    HW223809   0.227   3.535   2.659
40679SOL     OW23810   8.989   3.445   4.466
40679SOL    HW123811   8.942   3.526   4.485
40679SOL    HW223812   9.081   3.465   4.482
40680SOL     OW23813   0.398   0.868   8.662
40680SOL    HW123814   0.378   0.957   8.632
40680SOL    HW223815   0.398   0.875   8.758
40681SOL     OW23816   5.404   0.200   5.007
40681SOL    HW123817   5.471   0.212   4.940
40681SOL    HW223818   5.438   0.131   5.064
40682SOL     OW23819   1.466   5.432   2.582
40682SOL    HW123820   1.476   5.400   2.493
40682SOL    HW223821   1.530   5.503   2.589
40683SOL     OW23822   8.803  12.174   3.525
40683SOL    HW123823   8.784  12.130   3.441
40683SOL    HW223824   8.898  12.166   3.535
40684SOL     OW23825   1.437  11.912   9.228
40684SOL    HW123826   1.522  11.868   9.218
40684SOL    HW223827   1.445  11.959   9.311
40685SOL     OW23828   1.445  13.958  13.643
40685SOL    HW123829   1.470  14.049  13.661
40685SOL    HW223830   1.374  13.965  13.579
40686SOL     OW23831  11.902   0.425  13.941
40686SOL    HW123832  11.978   0.455  13.892
40686SOL    HW223833  11.864   0.357  13.886
40687SOL     OW23834  11.335  10.426  13.904
40687SOL    HW123835  11.260  10.476  13.937
40687SOL    HW223836  11.386  10.490  13.854
40688SOL     OW23837   8.090  12.196   7.483
40688SOL    HW123838   8.110  12.103   7.472
40688SOL    HW223839   8.046  12.202   7.567
40689SOL     OW23840   8.752   0.984  11.681
40689SOL    HW123841   8.805   0.932  11.621
40689SOL    HW223842   8.783   1.074  11.668
40690SOL     OW23843   1.961   8.213   8.220
40690SOL    HW123844   1.955   8.305   8.193
40690SOL    HW223845   2.053   8.191   8.211
40691SOL     OW23846  10.994   9.569   2.002
40691SOL    HW123847  10.924   9.628   2.026
40691SOL    HW223848  11.051   9.621   1.945
40692SOL     OW23849   6.142   7.115  10.907
40692SOL    HW123850   6.233   7.143  10.914
40692SOL    HW223851   6.136   7.037  10.962
40693SOL     OW23852   9.960   5.024   3.224
40693SOL    HW123853   9.878   5.011   3.177
40693SOL    HW223854   9.936   5.020   3.316
40694SOL     OW23855  12.054   1.451   6.988
40694SOL    HW123856  12.020   1.503   6.916
40694SOL    HW223857  12.133   1.410   6.953
40695SOL     OW23858  10.503  12.122   3.358
40695SOL    HW123859  10.544  12.161   3.435
40695SOL    HW223860  10.425  12.078   3.392
40696SOL     OW23861   8.644  10.259   4.853
40696SOL    HW123862   8.682  10.181   4.892
40696SOL    HW223863   8.719  10.309   4.820
40697SOL     OW23864   6.833  14.436   6.788
40697SOL    HW123865   6.786  14.477   6.715
40697SOL    HW223866   6.844  14.507   6.851
40698SOL     OW23867   1.215  13.817  10.202
40698SOL    HW123868   1.144  13.799  10.140
40698SOL    HW223869   1.295  13.813  10.148
40699SOL     OW23870   8.059   5.295   7.783
40699SOL    HW123871   8.104   5.221   7.823
40699SOL    HW223872   8.053   5.360   7.852
40700SOL     OW23873  12.155  12.138   5.419
40700SOL    HW123874  12.200  12.219   5.443
40700SOL    HW223875  12.221  12.070   5.433
40701SOL     OW23876   6.314  14.629   3.481
40701SOL    HW123877   6.223  14.626   3.513
40701SOL    HW223878   6.357  14.557   3.527
40702SOL     OW23879   0.583  10.470  10.679
40702SOL    HW123880   0.637  10.505  10.750
40702SOL    HW223881   0.577  10.376  10.696
40703SOL     OW23882   3.947   5.043   0.029
40703SOL    HW123883   3.866   5.014   0.073
40703SOL    HW223884   4.002   4.965   0.028
40704SOL     OW23885   8.775   9.022   3.973
40704SOL    HW123886   8.690   9.064   3.967
40704SOL    HW223887   8.763   8.936   3.932
40705SOL     OW23888   0.747   1.226   2.702
40705SOL    HW123889   0.829   1.193   2.740
40705SOL    HW223890   0.682   1.159   2.724
40706SOL     OW23891  13.927   9.896   9.652
40706SOL    HW123892  13.883   9.811   9.659
40706SOL    HW223893  13.860   9.955   9.618
40707SOL     OW23894   2.924  10.639  13.922
40707SOL    HW123895   2.842  10.681  13.896
40707SOL    HW223896   2.898  10.553  13.955
40708SOL     OW23897  11.095   8.529   8.946
40708SOL    HW123898  11.036   8.462   8.980
40708SOL    HW223899  11.170   8.527   9.006
40709SOL     OW23900   3.334   7.072   4.513
40709SOL    HW123901   3.243   7.043   4.504
40709SOL    HW223902   3.328   7.166   4.530
40710SOL     OW23903  11.072  14.815  10.874
40710SOL    HW123904  11.159  14.803  10.914
40710SOL    HW223905  11.040  14.726  10.860
40711SOL     OW23906  13.020   0.449   1.128
40711SOL    HW123907  13.024   0.376   1.067
40711SOL    HW223908  12.981   0.520   1.078
40712SOL     OW23909   2.644   1.747   3.194
40712SOL    HW123910   2.655   1.799   3.115
40712SOL    HW223911   2.569   1.690   3.176
40713SOL     OW23912   1.288   2.037   5.251
40713SOL    HW123913   1.255   1.961   5.299
40713SOL    HW223914   1.209   2.083   5.222
40714SOL     OW23915   5.405   1.279   7.273
40714SOL    HW123916   5.479   1.333   7.300
40714SOL    HW223917   5.382   1.311   7.187
40715SOL     OW23918   6.469  14.624   8.848
40715SOL    HW123919   6.436  14.562   8.783
40715SOL    HW223920   6.444  14.710   8.814
40716SOL     OW23921   5.499   0.125   7.282
40716SOL    HW123922   5.542   0.190   7.226
40716SOL    HW223923   5.459   0.064   7.221
40717SOL     OW23924   4.318  10.205  13.620
40717SOL    HW123925   4.311  10.181  13.528
40717SOL    HW223926   4.388  10.271  13.622
40718SOL     OW23927   4.501   3.803  10.487
40718SOL    HW123928   4.492   3.888  10.529
40718SOL    HW223929   4.537   3.746  10.556
40719SOL     OW23930   6.755  12.155   0.961
40719SOL    HW123931   6.799  12.233   0.927
40719SOL    HW223932   6.739  12.175   1.053
40720SOL     OW23933   6.868   1.779  13.152
40720SOL    HW123934   6.880   1.685  13.163
40720SOL    HW223935   6.892   1.816  13.237
40721SOL     OW23936   8.778  14.237   2.445
40721SOL    HW123937   8.833  14.179   2.497
40721SOL    HW223938   8.838  14.303   2.410
40722SOL     OW23939   1.867  13.214   5.828
40722SOL    HW123940   1.817  13.165   5.893
40722SOL    HW223941   1.906  13.286   5.877
40723SOL     OW23942   0.409   7.237   8.255
40723SOL    HW123943   0.441   7.324   8.232
40723SOL    HW223944   0.426   7.229   8.349
40724SOL     OW23945   4.570   6.678   1.426
40724SOL    HW123946   4.599   6.754   1.476
40724SOL    HW223947   4.613   6.603   1.468
40725SOL     OW23948   7.920  14.115  10.605
40725SOL    HW123949   7.941  14.059  10.531
40725SOL    HW223950   7.872  14.058  10.666
40726SOL     OW23951  10.509   3.353  14.010
40726SOL    HW123952  10.595   3.387  13.986
40726SOL    HW223953  10.453   3.376  13.937
40727SOL     OW23954   2.226   2.816  12.099
40727SOL    HW123955   2.216   2.721  12.092
40727SOL    HW223956   2.183   2.838  12.182
40728SOL     OW23957  10.944   7.794   0.843
40728SOL    HW123958  10.946   7.865   0.908
40728SOL    HW223959  10.859   7.803   0.801
40729SOL     OW23960   1.548  12.719   5.813
40729SOL    HW123961   1.625  12.769   5.787
40729SOL    HW223962   1.541  12.649   5.749
40730SOL     OW23963  10.532   9.345   0.625
40730SOL    HW123964  10.462   9.409   0.616
40730SOL    HW223965  10.491   9.261   0.603
40731SOL     OW23966   5.841   6.547   2.772
40731SOL    HW123967   5.803   6.467   2.735
40731SOL    HW223968   5.797   6.558   2.856
40732SOL     OW23969   3.590   1.612   4.321
40732SOL    HW123970   3.582   1.583   4.231
40732SOL    HW223971   3.676   1.580   4.349
40733SOL     OW23972  14.234   0.899   6.387
40733SOL    HW123973  14.296   0.834   6.420
40733SOL    HW223974  14.164   0.847   6.347
40734SOL     OW23975   7.600  11.241  10.532
40734SOL    HW123976   7.585  11.216  10.623
40734SOL    HW223977   7.516  11.279  10.503
40735SOL     OW23978   3.724   4.756   7.386
40735SOL    HW123979   3.774   4.830   7.420
40735SOL    HW223980   3.755   4.746   7.296
40736SOL     OW23981   2.270   8.006   5.735
40736SOL    HW123982   2.249   7.946   5.664
40736SOL    HW223983   2.271   8.093   5.694
40737SOL     OW23984   1.204   7.714   4.908
40737SOL    HW123985   1.247   7.690   4.826
40737SOL    HW223986   1.259   7.783   4.944
40738SOL     OW23987   7.107   8.316   9.000
40738SOL    HW123988   7.149   8.284   9.079
40738SOL    HW223989   7.017   8.283   9.005
40739SOL     OW23990   1.660   6.471   0.400
40739SOL    HW123991   1.642   6.478   0.306
40739SOL    HW223992   1.645   6.560   0.434
40740SOL     OW23993   8.431  13.470   8.557
40740SOL    HW123994   8.476  13.410   8.497
40740SOL    HW223995   8.435  13.426   8.642
40741SOL     OW23996   9.842   2.766   4.484
40741SOL    HW123997   9.760   2.812   4.466
40741SOL    HW223998   9.876   2.744   4.398
40742SOL     OW23999   6.979   8.571   7.086
40742SOL    HW124000   7.006   8.486   7.120
40742SOL    HW224001   6.937   8.552   7.002
40743SOL     OW24002  13.548   6.903   6.138
40743SOL    HW124003  13.586   6.816   6.145
40743SOL    HW224004  13.454   6.887   6.124
40744SOL     OW24005   1.915   2.175   6.441
40744SOL    HW124006   1.873   2.101   6.397
40744SOL    HW224007   1.997   2.187   6.394
40745SOL     OW24008   3.190   5.639   9.286
40745SOL    HW124009   3.213   5.731   9.274
40745SOL    HW224010   3.100   5.641   9.319
40746SOL     OW24011  12.246   7.902   8.544
40746SOL    HW124012  12.296   7.924   8.465
40746SOL    HW224013  12.219   7.986   8.580
40747SOL     OW24014   9.209  10.632   1.656
40747SOL    HW124015   9.253  10.668   1.578
40747SOL    HW224016   9.127  10.681   1.661
40748SOL     OW24017   6.520  12.618   9.174
40748SOL    HW124018   6.537  12.664   9.092
40748SOL    HW224019   6.454  12.552   9.150
40749SOL     OW24020  14.308  13.417  14.023
40749SOL    HW124021  14.319  13.330  14.062
40749SOL    HW224022  14.324  13.404  13.930
40750SOL     OW24023   1.861   5.594   3.630
40750SOL    HW124024   1.886   5.532   3.561
40750SOL    HW224025   1.766   5.585   3.637
40751SOL     OW24026   3.760   4.640   0.570
40751SOL    HW124027   3.672   4.632   0.533
40751SOL    HW224028   3.809   4.567   0.533
40752SOL     OW24029   4.813   4.909   5.280
40752SOL    HW124030   4.815   4.820   5.315
40752SOL    HW224031   4.776   4.899   5.192
40753SOL     OW24032   8.165  11.148  14.635
40753SOL    HW124033   8.157  11.185  14.547
40753SOL    HW224034   8.164  11.053  14.621
40754SOL     OW24035   6.813   9.180  10.996
40754SOL    HW124036   6.830   9.092  11.030
40754SOL    HW224037   6.896   9.226  11.004
40755SOL     OW24038   1.061   9.411   2.633
40755SOL    HW124039   1.137   9.353   2.631
40755SOL    HW224040   0.995   9.365   2.580
40756SOL     OW24041  11.078   5.187   3.815
40756SOL    HW124042  11.030   5.105   3.799
40756SOL    HW224043  11.167   5.169   3.784
40757SOL     OW24044  10.688   9.316   5.143
40757SOL    HW124045  10.659   9.256   5.074
40757SOL    HW224046  10.765   9.360   5.106
40758SOL     OW24047  13.197   0.918   4.121
40758SOL    HW124048  13.187   1.011   4.143
40758SOL    HW224049  13.291   0.902   4.127
40759SOL     OW24050   3.166  14.333   3.147
40759SOL    HW124051   3.098  14.397   3.169
40759SOL    HW224052   3.168  14.332   3.051
40760SOL     OW24053   4.896   1.208   6.681
40760SOL    HW124054   4.883   1.189   6.774
40760SOL    HW224055   4.964   1.147   6.653
40761SOL     OW24056   4.070  12.575   5.173
40761SOL    HW124057   4.009  12.566   5.100
40761SOL    HW224058   4.155  12.590   5.131
40762SOL     OW24059  11.890  12.573  12.417
40762SOL    HW124060  11.927  12.490  12.387
40762SOL    HW224061  11.830  12.599  12.347
40763SOL     OW24062  14.191   3.591   6.866
40763SOL    HW124063  14.191   3.498   6.843
40763SOL    HW224064  14.115   3.627   6.819
40764SOL     OW24065  12.585  10.805  10.969
40764SOL    HW124066  12.632  10.868  10.914
40764SOL    HW224067  12.545  10.858  11.038
40765SOL     OW24068   9.321   5.654  14.813
40765SOL    HW124069   9.382   5.593  14.770
40765SOL    HW224070   9.263   5.683  14.742
40766SOL     OW24071   4.138  14.397   8.474
40766SOL    HW124072   4.108  14.430   8.559
40766SOL    HW224073   4.067  14.420   8.414
40767SOL     OW24074   7.733   2.603   9.565
40767SOL    HW124075   7.786   2.682   9.553
40767SOL    HW224076   7.732   2.589   9.659
40768SOL     OW24077   7.799   9.924   1.704
40768SOL    HW124078   7.885   9.959   1.681
40768SOL    HW224079   7.811   9.885   1.790
40769SOL     OW24080   9.125   5.411  13.280
40769SOL    HW124081   9.119   5.483  13.342
40769SOL    HW224082   9.190   5.352  13.319
40770SOL     OW24083  10.849  14.532  12.894
40770SOL    HW124084  10.782  14.552  12.959
40770SOL    HW224085  10.848  14.437  12.885
40771SOL     OW24086   0.965   1.888   3.237
40771SOL    HW124087   0.889   1.839   3.205
40771SOL    HW224088   0.943   1.910   3.327
40772SOL     OW24089   7.898   2.163   6.422
40772SOL    HW124090   7.991   2.148   6.438
40772SOL    HW224091   7.890   2.164   6.327
40773SOL     OW24092   7.804   2.517   4.106
40773SOL    HW124093   7.877   2.484   4.053
40773SOL    HW224094   7.820   2.611   4.112
40774SOL     OW24095  14.231   9.005  12.782
40774SOL    HW124096  14.183   8.970  12.707
40774SOL    HW224097  14.276   8.930  12.819
40775SOL     OW24098  11.200  11.261  10.880
40775SOL    HW124099  11.283  11.306  10.898
40775SOL    HW224100  11.151  11.266  10.961
40776SOL     OW24101   3.483   0.306   7.689
40776SOL    HW124102   3.450   0.389   7.655
40776SOL    HW224103   3.578   0.317   7.692
40777SOL     OW24104   8.249   7.186  11.804
40777SOL    HW124105   8.280   7.265  11.846
40777SOL    HW224106   8.218   7.130  11.875
40778SOL     OW24107   2.847   1.530   6.981
40778SOL    HW124108   2.929   1.549   6.936
40778SOL    HW224109   2.873   1.511   7.071
40779SOL     OW24110  10.606   6.102   3.677
40779SOL    HW124111  10.631   6.019   3.717
40779SOL    HW224112  10.684   6.157   3.685
40780SOL     OW24113   9.643   4.666  12.946
40780SOL    HW124114   9.573   4.696  12.889
40780SOL    HW224115   9.719   4.660  12.889
40781SOL     OW24116  11.738   2.277  10.754
40781SOL    HW124117  11.820   2.230  10.771
40781SOL    HW224118  11.766   2.366  10.732
40782SOL     OW24119  14.035   8.577   2.937
40782SOL    HW124120  14.131   8.579   2.939
40782SOL    HW224121  14.012   8.499   2.987
40783SOL     OW24122  11.097   5.945   9.603
40783SOL    HW124123  11.048   5.909   9.676
40783SOL    HW224124  11.139   5.869   9.563
40784SOL     OW24125   7.959  11.303  13.152
40784SOL    HW124126   7.948  11.394  13.179
40784SOL    HW224127   7.888  11.256  13.195
40785SOL     OW24128  13.408   7.334   4.580
40785SOL    HW124129  13.437   7.246   4.558
40785SOL    HW224130  13.313   7.329   4.578
40786SOL     OW24131   6.762  11.044   8.978
40786SOL    HW124132   6.733  11.001   8.898
40786SOL    HW224133   6.842  11.090   8.953
40787SOL     OW24134  11.504  12.147  10.633
40787SOL    HW124135  11.444  12.072  10.635
40787SOL    HW224136  11.579  12.119  10.684
40788SOL     OW24137  14.469   4.392   6.411
40788SOL    HW124138  14.443   4.318   6.466
40788SOL    HW224139  14.564   4.393   6.416
40789SOL     OW24140  14.709  12.123  10.591
40789SOL    HW124141  14.714  12.109  10.496
40789SOL    HW224142  14.798  12.143  10.617
40790SOL     OW24143  14.080   4.765   7.546
40790SOL    HW124144  14.136   4.807   7.611
40790SOL    HW224145  14.140   4.745   7.473
40791SOL     OW24146   7.016   5.029  14.733
40791SOL    HW124147   6.966   5.085  14.672
40791SOL    HW224148   6.950   4.972  14.772
40792SOL     OW24149   7.050   2.077  11.173
40792SOL    HW124150   7.086   2.142  11.114
40792SOL    HW224151   7.067   2.112  11.261
40793SOL     OW24152  12.349   0.940   8.895
40793SOL    HW124153  12.405   0.951   8.818
40793SOL    HW224154  12.410   0.942   8.969
40794SOL     OW24155   0.673   3.828  14.848
40794SOL    HW124156   0.631   3.754  14.805
40794SOL    HW224157   0.764   3.823  14.819
40795SOL     OW24158  12.164   5.593  13.761
40795SOL    HW124159  12.212   5.595  13.844
40795SOL    HW224160  12.201   5.665  13.710
40796SOL     OW24161   5.012  14.478   1.168
40796SOL    HW124162   4.923  14.510   1.157
40796SOL    HW224163   5.052  14.487   1.082
40797SOL     OW24164   2.805   4.782  11.056
40797SOL    HW124165   2.859   4.722  11.005
40797SOL    HW224166   2.867   4.838  11.103
40798SOL     OW24167   8.350   0.948  13.559
40798SOL    HW124168   8.387   1.035  13.543
40798SOL    HW224169   8.270   0.965  13.610
40799SOL     OW24170  11.273   4.011   2.160
40799SOL    HW124171  11.223   4.052   2.231
40799SOL    HW224172  11.312   3.933   2.199
40800SOL     OW24173   7.731   3.860  14.806
40800SOL    HW124174   7.825   3.852  14.818
40800SOL    HW224175   7.694   3.788  14.857
40801SOL     OW24176   3.422   8.588  12.377
40801SOL    HW124177   3.517   8.575  12.376
40801SOL    HW224178   3.388   8.510  12.422
40802SOL     OW24179   4.461  11.672   2.132
40802SOL    HW124180   4.501  11.620   2.062
40802SOL    HW224181   4.405  11.734   2.086
40803SOL     OW24182  10.762   7.379   0.209
40803SOL    HW124183  10.701   7.441   0.169
40803SOL    HW224184  10.774   7.311   0.143
40804SOL     OW24185  13.936   9.292   5.903
40804SOL    HW124186  13.973   9.207   5.882
40804SOL    HW224187  13.896   9.322   5.822
40805SOL     OW24188   5.593   9.264   0.074
40805SOL    HW124189   5.654   9.288   0.144
40805SOL    HW224190   5.645   9.270  14.871
40806SOL     OW24191   8.034   7.416   1.536
40806SOL    HW124192   7.955   7.434   1.485
40806SOL    HW224193   8.004   7.364   1.610
40807SOL     OW24194  10.459  12.708   1.337
40807SOL    HW124195  10.530  12.675   1.283
40807SOL    HW224196  10.440  12.637   1.399
40808SOL     OW24197   9.566   9.203  13.651
40808SOL    HW124198   9.632   9.158  13.599
40808SOL    HW224199   9.568   9.294  13.619
40809SOL     OW24200   3.707   3.339  12.332
40809SOL    HW124201   3.788   3.390  12.343
40809SOL    HW224202   3.737   3.249  12.323
40810SOL     OW24203   9.731  13.369   8.214
40810SOL    HW124204   9.733  13.314   8.292
40810SOL    HW224205   9.759  13.311   8.143
40811SOL     OW24206   3.976  14.177   0.147
40811SOL    HW124207   3.937  14.243   0.090
40811SOL    HW224208   3.941  14.197   0.234
40812SOL     OW24209   2.968  10.477   5.506
40812SOL    HW124210   2.913  10.454   5.431
40812SOL    HW224211   3.038  10.531   5.469
40813SOL     OW24212   3.166   2.204  11.920
40813SOL    HW124213   3.149   2.228  12.011
40813SOL    HW224214   3.081   2.173  11.888
40814SOL     OW24215   2.063   0.678   0.649
40814SOL    HW124216   2.044   0.669   0.556
40814SOL    HW224217   1.976   0.687   0.690
40815SOL     OW24218   5.410   1.886   2.751
40815SOL    HW124219   5.426   1.797   2.721
40815SOL    HW224220   5.492   1.912   2.793
40816SOL     OW24221  11.546   9.916  13.896
40816SOL    HW124222  11.472   9.960  13.852
40816SOL    HW224223  11.601   9.886  13.824
40817SOL     OW24224   9.918   5.128   8.407
40817SOL    HW124225   9.833   5.161   8.375
40817SOL    HW224226   9.903   5.035   8.423
40818SOL     OW24227  10.089  13.504  11.861
40818SOL    HW124228  10.019  13.439  11.861
40818SOL    HW224229  10.064  13.566  11.793
40819SOL     OW24230   6.631   3.978   9.632
40819SOL    HW124231   6.624   3.977   9.728
40819SOL    HW224232   6.714   3.935   9.613
40820SOL     OW24233   1.034   2.574   4.565
40820SOL    HW124234   1.090   2.604   4.637
40820SOL    HW224235   0.961   2.530   4.609
40821SOL     OW24236  13.794   2.380   3.683
40821SOL    HW124237  13.870   2.325   3.663
40821SOL    HW224238  13.816   2.422   3.766
40822SOL     OW24239  10.065   5.664  12.815
40822SOL    HW124240  10.126   5.595  12.843
40822SOL    HW224241   9.979   5.623  12.822
40823SOL     OW24242   8.204   0.176   3.928
40823SOL    HW124243   8.270   0.231   3.886
40823SOL    HW224244   8.255   0.110   3.975
40824SOL     OW24245   1.655   3.471   4.022
40824SOL    HW124246   1.690   3.431   4.102
40824SOL    HW224247   1.731   3.506   3.978
40825SOL     OW24248   3.776   0.795  14.727
40825SOL    HW124249   3.699   0.788  14.783
40825SOL    HW224250   3.850   0.788  14.787
40826SOL     OW24251   9.499   7.984   7.863
40826SOL    HW124252   9.434   8.053   7.850
40826SOL    HW224253   9.451   7.903   7.846
40827SOL     OW24254  10.185  10.713   9.484
40827SOL    HW124255  10.234  10.794   9.502
40827SOL    HW224256  10.222  10.649   9.545
40828SOL     OW24257   8.875   6.077  11.335
40828SOL    HW124258   8.790   6.093  11.294
40828SOL    HW224259   8.890   6.154  11.390
40829SOL     OW24260   0.688  11.555  12.368
40829SOL    HW124261   0.675  11.465  12.398
40829SOL    HW224262   0.603  11.597  12.380
40830SOL     OW24263   0.502   0.867   3.455
40830SOL    HW124264   0.530   0.921   3.529
40830SOL    HW224265   0.545   0.906   3.379
40831SOL     OW24266   5.708   8.215  11.732
40831SOL    HW124267   5.795   8.230  11.696
40831SOL    HW224268   5.724   8.187  11.822
40832SOL     OW24269   9.661   5.585  13.697
40832SOL    HW124270   9.586   5.533  13.666
40832SOL    HW224271   9.687   5.542  13.778
40833SOL     OW24272   3.056   2.656  10.809
40833SOL    HW124273   3.128   2.655  10.747
40833SOL    HW224274   3.063   2.740  10.854
40834SOL     OW24275   5.872  11.597   4.753
40834SOL    HW124276   5.804  11.592   4.820
40834SOL    HW224277   5.845  11.670   4.697
40835SOL     OW24278   3.407  10.128   9.305
40835SOL    HW124279   3.433  10.173   9.224
40835SOL    HW224280   3.470  10.159   9.370
40836SOL     OW24281   2.837   5.251  10.783
40836SOL    HW124282   2.745   5.229  10.789
40836SOL    HW224283   2.876   5.180  10.731
40837SOL     OW24284   8.352  10.107   1.751
40837SOL    HW124285   8.446  10.124   1.753
40837SOL    HW224286   8.313  10.184   1.791
40838SOL     OW24287   4.109  13.681  10.047
40838SOL    HW124288   4.025  13.727  10.039
40838SOL    HW224289   4.124  13.675  10.141
40839SOL     OW24290   2.071   0.267   6.282
40839SOL    HW124291   2.113   0.247   6.366
40839SOL    HW224292   2.017   0.190   6.263
40840SOL     OW24293  13.075  10.130   0.233
40840SOL    HW124294  13.019  10.078   0.174
40840SOL    HW224295  13.154  10.077   0.243
40841SOL     OW24296  14.042   1.015   1.538
40841SOL    HW124297  13.988   1.018   1.617
40841SOL    HW224298  14.085   1.101   1.536
40842SOL     OW24299  10.547   8.378   7.884
40842SOL    HW124300  10.567   8.470   7.862
40842SOL    HW224301  10.513   8.341   7.803
40843SOL     OW24302   8.913   2.489  14.696
40843SOL    HW124303   8.860   2.485  14.776
40843SOL    HW224304   8.981   2.423  14.711
40844SOL     OW24305   3.624   8.088  13.422
40844SOL    HW124306   3.687   8.128  13.483
40844SOL    HW224307   3.559   8.157  13.406
40845SOL     OW24308  11.032   5.070  13.727
40845SOL    HW124309  11.071   5.026  13.801
40845SOL    HW224310  10.944   5.033  13.721
40846SOL     OW24311  12.971  12.322  13.461
40846SOL    HW124312  12.989  12.404  13.506
40846SOL    HW224313  13.056  12.289  13.433
40847SOL     OW24314   9.458  12.497  12.906
40847SOL    HW124315   9.477  12.490  13.000
40847SOL    HW224316   9.415  12.582  12.897
40848SOL     OW24317   7.341   9.280  13.257
40848SOL    HW124318   7.436   9.267  13.258
40848SOL    HW224319   7.329   9.374  13.273
40849SOL     OW24320   8.795  12.462  10.544
40849SOL    HW124321   8.780  12.555  10.561
40849SOL    HW224322   8.872  12.440  10.596
40850SOL     OW24323   2.837   2.974   3.576
40850SOL    HW124324   2.849   2.882   3.598
40850SOL    HW224325   2.849   2.978   3.481
40851SOL     OW24326   7.474  14.569   4.146
40851SOL    HW124327   7.484  14.480   4.180
40851SOL    HW224328   7.438  14.620   4.218
40852SOL     OW24329   5.969   4.811   3.308
40852SOL    HW124330   6.001   4.845   3.225
40852SOL    HW224331   6.024   4.852   3.374
40853SOL     OW24332  11.818   2.742   8.791
40853SOL    HW124333  11.816   2.717   8.883
40853SOL    HW224334  11.728   2.770   8.772
40854SOL     OW24335   1.908   5.553   0.399
40854SOL    HW124336   1.989   5.582   0.442
40854SOL    HW224337   1.935   5.477   0.347
40855SOL     OW24338  11.281   4.872   4.807
40855SOL    HW124339  11.282   4.866   4.903
40855SOL    HW224340  11.213   4.936   4.788
40856SOL     OW24341   2.454   4.278  13.723
40856SOL    HW124342   2.431   4.230  13.644
40856SOL    HW224343   2.389   4.251  13.788
40857SOL     OW24344   3.910   9.455   0.170
40857SOL    HW124345   3.933   9.436   0.079
40857SOL    HW224346   3.922   9.549   0.179
40858SOL     OW24347  13.780   9.960   3.461
40858SOL    HW124348  13.868   9.987   3.488
40858SOL    HW224349  13.744   9.916   3.538
40859SOL     OW24350   1.525   8.811  10.034
40859SOL    HW124351   1.490   8.807  10.123
40859SOL    HW224352   1.513   8.902  10.008
40860SOL     OW24353   6.719  11.026   8.129
40860SOL    HW124354   6.684  10.986   8.049
40860SOL    HW224355   6.653  11.005   8.196
40861SOL     OW24356   7.633   6.348   3.506
40861SOL    HW124357   7.611   6.430   3.550
40861SOL    HW224358   7.548   6.304   3.495
40862SOL     OW24359  10.957   4.868   9.145
40862SOL    HW124360  10.933   4.789   9.098
40862SOL    HW224361  10.873   4.910   9.166
40863SOL     OW24362   8.931  11.369   5.409
40863SOL    HW124363   8.854  11.410   5.448
40863SOL    HW224364   9.005  11.412   5.452
40864SOL     OW24365   9.557   5.608  10.400
40864SOL    HW124366   9.622   5.547  10.434
40864SOL    HW224367   9.582   5.620  10.308
40865SOL     OW24368   8.274   1.117  14.568
40865SOL    HW124369   8.367   1.119  14.589
40865SOL    HW224370   8.251   1.209  14.551
40866SOL     OW24371   8.839  11.069   9.300
40866SOL    HW124372   8.824  11.038   9.211
40866SOL    HW224373   8.836  10.989   9.354
40867SOL     OW24374   2.232   6.745  14.638
40867SOL    HW124375   2.229   6.650  14.649
40867SOL    HW224376   2.170   6.779  14.702
40868SOL     OW24377   3.447   4.360   6.289
40868SOL    HW124378   3.529   4.335   6.333
40868SOL    HW224379   3.475   4.421   6.221
40869SOL     OW24380   0.786   1.854   1.155
40869SOL    HW124381   0.714   1.915   1.136
40869SOL    HW224382   0.865   1.908   1.147
40870SOL     OW24383   1.205  12.697   9.238
40870SOL    HW124384   1.145  12.757   9.283
40870SOL    HW224385   1.203  12.726   9.147
40871SOL     OW24386   1.286   2.284   9.138
40871SOL    HW124387   1.319   2.233   9.213
40871SOL    HW224388   1.301   2.228   9.062
40872SOL     OW24389   5.985   5.260   2.190
40872SOL    HW124390   6.040   5.338   2.199
40872SOL    HW224391   6.044   5.187   2.208
40873SOL     OW24392  12.548   3.700   3.420
40873SOL    HW124393  12.625   3.695   3.477
40873SOL    HW224394  12.584   3.711   3.332
40874SOL     OW24395   4.466   7.501   6.943
40874SOL    HW124396   4.532   7.431   6.949
40874SOL    HW224397   4.494   7.567   7.005
40875SOL     OW24398  14.254   5.863  13.784
40875SOL    HW124399  14.327   5.808  13.756
40875SOL    HW224400  14.187   5.802  13.813
40876SOL     OW24401  10.095   0.198   7.654
40876SOL    HW124402  10.001   0.209   7.669
40876SOL    HW224403  10.122   0.134   7.719
40877SOL     OW24404   8.004  10.784   1.613
40877SOL    HW124405   8.023  10.711   1.554
40877SOL    HW224406   7.925  10.824   1.577
40878SOL     OW24407   2.278   8.133   7.316
40878SOL    HW124408   2.195   8.087   7.322
40878SOL    HW224409   2.266   8.213   7.367
40879SOL     OW24410   4.943   3.431   9.856
40879SOL    HW124411   4.850   3.436   9.832
40879SOL    HW224412   4.946   3.367   9.927
40880SOL     OW24413   8.799  11.749   9.832
40880SOL    HW124414   8.720  11.708   9.797
40880SOL    HW224415   8.825  11.693   9.904
40881SOL     OW24416   7.224   0.262   1.466
40881SOL    HW124417   7.279   0.249   1.389
40881SOL    HW224418   7.169   0.184   1.470
40882SOL     OW24419  13.480   2.928   7.237
40882SOL    HW124420  13.393   2.891   7.223
40882SOL    HW224421  13.539   2.852   7.232
40883SOL     OW24422   5.655  12.097   9.871
40883SOL    HW124423   5.630  12.183   9.904
40883SOL    HW224424   5.740  12.079   9.913
40884SOL     OW24425   8.931   5.078  10.182
40884SOL    HW124426   8.856   5.022  10.163
40884SOL    HW224427   9.007   5.021  10.176
40885SOL     OW24428   6.138   2.069   5.383
40885SOL    HW124429   6.160   2.154   5.422
40885SOL    HW224430   6.222   2.024   5.374
40886SOL     OW24431   1.637  13.135  12.747
40886SOL    HW124432   1.624  13.119  12.840
40886SOL    HW224433   1.731  13.132  12.734
40887SOL     OW24434   5.525   3.616  13.066
40887SOL    HW124435   5.472   3.538  13.050
40887SOL    HW224436   5.615   3.589  13.048
40888SOL     OW24437   0.151  14.702   7.687
40888SOL    HW124438   0.120  14.780   7.733
40888SOL    HW224439   0.180  14.735   7.602
40889SOL     OW24440  11.535  14.140   2.243
40889SOL    HW124441  11.588  14.094   2.308
40889SOL    HW224442  11.513  14.223   2.286
40890SOL     OW24443   9.416  11.070   6.944
40890SOL    HW124444   9.489  11.095   6.887
40890SOL    HW224445   9.455  11.014   7.011
40891SOL     OW24446   8.446   8.093  10.038
40891SOL    HW124447   8.394   8.014  10.026
40891SOL    HW224448   8.511   8.090   9.969
40892SOL     OW24449   3.232   0.824   0.628
40892SOL    HW124450   3.289   0.781   0.692
40892SOL    HW224451   3.176   0.753   0.595
40893SOL     OW24452  14.175   1.319   0.030
40893SOL    HW124453  14.091   1.293  14.870
40893SOL    HW224454  14.160   1.407   0.063
40894SOL     OW24455   2.150   2.286   5.772
40894SOL    HW124456   2.220   2.267   5.709
40894SOL    HW224457   2.109   2.366   5.739
40895SOL     OW24458  14.832   2.445   5.948
40895SOL    HW124459  14.780   2.479   6.020
40895SOL    HW224460  14.781   2.464   5.870
40896SOL     OW24461   0.163   6.974  11.491
40896SOL    HW124462   0.201   7.061  11.497
40896SOL    HW224463   0.158   6.957  11.397
40897SOL     OW24464   4.648  10.291  11.658
40897SOL    HW124465   4.673  10.295  11.750
40897SOL    HW224466   4.673  10.375  11.621
40898SOL     OW24467  10.414  10.970   8.251
40898SOL    HW124468  10.374  11.006   8.171
40898SOL    HW224469  10.475  11.038   8.279
40899SOL     OW24470   9.854  14.383  10.198
40899SOL    HW124471   9.804  14.445  10.251
40899SOL    HW224472   9.790  14.349  10.135
40900SOL     OW24473   8.865  13.646   8.084
40900SOL    HW124474   8.917  13.583   8.033
40900SOL    HW224475   8.896  13.635   8.174
40901SOL     OW24476   4.091   1.172  13.646
40901SOL    HW124477   4.121   1.180  13.555
40901SOL    HW224478   4.170   1.178  13.698
40902SOL     OW24479   7.052   0.054   1.587
40902SOL    HW124480   7.132   0.001   1.586
40902SOL    HW224481   7.031   0.064   1.680
40903SOL     OW24482   7.916   5.618   4.539
40903SOL    HW124483   7.868   5.631   4.457
40903SOL    HW224484   7.992   5.566   4.514
40904SOL     OW24485   9.327   4.854  13.705
40904SOL    HW124486   9.421   4.865  13.688
40904SOL    HW224487   9.320   4.765  13.740
40905SOL     OW24488   1.708   4.486   0.258
40905SOL    HW124489   1.626   4.439   0.247
40905SOL    HW224490   1.688   4.576   0.232
40906SOL     OW24491   6.383  10.641   4.999
40906SOL    HW124492   6.335  10.695   4.936
40906SOL    HW224493   6.367  10.551   4.972
40907SOL     OW24494  11.145   7.607   0.794
40907SOL    HW124495  11.230   7.649   0.810
40907SOL    HW224496  11.081   7.670   0.824
40908SOL     OW24497   6.946   1.050  10.454
40908SOL    HW124498   6.995   1.084  10.379
40908SOL    HW224499   6.854   1.070  10.434
40909SOL     OW24500   4.263  14.309  14.749
40909SOL    HW124501   4.252  14.214  14.740
40909SOL    HW224502   4.350  14.326  14.711
40910SOL     OW24503  14.411  10.727   6.445
40910SOL    HW124504  14.404  10.730   6.349
40910SOL    HW224505  14.339  10.783   6.475
40911SOL     OW24506   1.502   1.026   3.958
40911SOL    HW124507   1.460   0.958   4.011
40911SOL    HW224508   1.554   1.077   4.021
40912SOL     OW24509  12.939   4.260   2.653
40912SOL    HW124510  12.994   4.338   2.655
40912SOL    HW224511  12.883   4.272   2.577
40913SOL     OW24512   8.391  13.785   8.632
40913SOL    HW124513   8.371  13.786   8.725
40913SOL    HW224514   8.464  13.725   8.623
40914SOL     OW24515  12.580  14.748   8.597
40914SOL    HW124516  12.505  14.808   8.589
40914SOL    HW224517  12.653  14.804   8.624
40915SOL     OW24518  10.343   8.481   4.138
40915SOL    HW124519  10.381   8.483   4.226
40915SOL    HW224520  10.395   8.416   4.091
40916SOL     OW24521   1.069   0.138  12.093
40916SOL    HW124522   1.077   0.132  11.997
40916SOL    HW224523   0.980   0.168  12.107
40917SOL     OW24524   3.673   8.459   8.534
40917SOL    HW124525   3.743   8.500   8.585
40917SOL    HW224526   3.593   8.478   8.584
40918SOL     OW24527   0.644   8.105   4.838
40918SOL    HW124528   0.686   8.030   4.880
40918SOL    HW224529   0.626   8.076   4.749
40919SOL     OW24530   5.639   9.474   6.250
40919SOL    HW124531   5.713   9.429   6.210
40919SOL    HW224532   5.647   9.564   6.219
40920SOL     OW24533   3.387   3.147  10.741
40920SOL    HW124534   3.321   3.216  10.751
40920SOL    HW224535   3.338   3.066  10.746
40921SOL     OW24536  13.398   7.176   1.146
40921SOL    HW124537  13.415   7.201   1.055
40921SOL    HW224538  13.354   7.252   1.184
40922SOL     OW24539  13.942  10.773   7.912
40922SOL    HW124540  13.957  10.751   7.820
40922SOL    HW224541  13.978  10.699   7.961
40923SOL     OW24542   1.511   1.490  13.012
40923SOL    HW124543   1.563   1.560  12.973
40923SOL    HW224544   1.573   1.443  13.068
40924SOL     OW24545   0.356   4.625   8.353
40924SOL    HW124546   0.348   4.533   8.331
40924SOL    HW224547   0.306   4.635   8.434
40925SOL     OW24548   5.137   2.558   7.070
40925SOL    HW124549   5.112   2.595   7.155
40925SOL    HW224550   5.231   2.577   7.063
40926SOL     OW24551  11.423   6.931   7.359
40926SOL    HW124552  11.446   7.021   7.381
40926SOL    HW224553  11.349   6.910   7.416
40927SOL     OW24554  11.711   3.573   2.345
40927SOL    HW124555  11.748   3.538   2.426
40927SOL    HW224556  11.688   3.496   2.294
40928SOL     OW24557   1.149  10.052  12.855
40928SOL    HW124558   1.153  10.139  12.895
40928SOL    HW224559   1.236  10.040  12.816
40929SOL     OW24560  10.096  13.538   7.400
40929SOL    HW124561  10.150  13.592   7.458
40929SOL    HW224562  10.073  13.461   7.452
40930SOL     OW24563   9.582  13.764   1.086
40930SOL    HW124564   9.670  13.767   1.123
40930SOL    HW224565   9.525  13.790   1.158
40931SOL     OW24566   6.270  13.117   5.229
40931SOL    HW124567   6.237  13.033   5.197
40931SOL    HW224568   6.314  13.155   5.153
40932SOL     OW24569   7.680   2.293   7.726
40932SOL    HW124570   7.640   2.210   7.755
40932SOL    HW224571   7.774   2.275   7.727
40933SOL     OW24572   9.644   3.828  10.683
40933SOL    HW124573   9.609   3.833  10.594
40933SOL    HW224574   9.670   3.918  10.704
40934SOL     OW24575  11.291  12.338   3.790
40934SOL    HW124576  11.306  12.433   3.797
40934SOL    HW224577  11.268  12.311   3.878
40935SOL     OW24578   6.672  12.915   1.114
40935SOL    HW124579   6.696  12.916   1.206
40935SOL    HW224580   6.594  12.860   1.110
40936SOL     OW24581   5.607   4.741   8.164
40936SOL    HW124582   5.523   4.700   8.183
40936SOL    HW224583   5.666   4.667   8.148
40937SOL     OW24584   8.826   6.070   6.786
40937SOL    HW124585   8.920   6.083   6.796
40937SOL    HW224586   8.787   6.152   6.819
40938SOL     OW24587  11.857   3.255  14.683
40938SOL    HW124588  11.913   3.213  14.618
40938SOL    HW224589  11.805   3.318  14.634
40939SOL     OW24590   6.759   9.668   9.396
40939SOL    HW124591   6.746   9.582   9.436
40939SOL    HW224592   6.788   9.648   9.307
40940SOL     OW24593   7.750   1.658   4.373
40940SOL    HW124594   7.834   1.697   4.347
40940SOL    HW224595   7.751   1.661   4.468
40941SOL     OW24596   8.912   1.903  11.371
40941SOL    HW124597   8.824   1.869  11.354
40941SOL    HW224598   8.951   1.913  11.283
40942SOL     OW24599  11.653  11.971  13.768
40942SOL    HW124600  11.676  12.019  13.848
40942SOL    HW224601  11.580  11.915  13.793
40943SOL     OW24602  10.726   0.745   2.150
40943SOL    HW124603  10.668   0.774   2.221
40943SOL    HW224604  10.674   0.681   2.101
40944SOL     OW24605   5.326   9.886  11.460
40944SOL    HW124606   5.292   9.897  11.371
40944SOL    HW224607   5.401   9.946  11.464
40945SOL     OW24608   8.798   9.059   8.383
40945SOL    HW124609   8.708   9.067   8.415
40945SOL    HW224610   8.793   9.082   8.290
40946SOL     OW24611  10.329  11.043  11.782
40946SOL    HW124612  10.249  11.077  11.823
40946SOL    HW224613  10.302  10.961  11.741
40947SOL     OW24614   1.650  11.581   1.918
40947SOL    HW124615   1.728  11.548   1.964
40947SOL    HW224616   1.669  11.674   1.903
40948SOL     OW24617   0.242  11.923   5.046
40948SOL    HW124618   0.265  11.991   4.982
40948SOL    HW224619   0.156  11.891   5.016
40949SOL     OW24620   5.048   0.526  11.133
40949SOL    HW124621   4.955   0.543  11.119
40949SOL    HW224622   5.085   0.522  11.045
40950SOL     OW24623  10.577   9.210  10.659
40950SOL    HW124624  10.606   9.296  10.690
40950SOL    HW224625  10.516   9.181  10.726
40951SOL     OW24626  10.655  13.310  13.472
40951SOL    HW124627  10.598  13.237  13.496
40951SOL    HW224628  10.606  13.356  13.404
40952SOL     OW24629   7.775  13.666   4.668
40952SOL    HW124630   7.802  13.581   4.703
40952SOL    HW224631   7.694  13.648   4.621
40953SOL     OW24632   2.682  13.210   5.186
40953SOL    HW124633   2.704  13.117   5.187
40953SOL    HW224634   2.761  13.254   5.217
40954SOL     OW24635   6.940   7.487   2.112
40954SOL    HW124636   6.974   7.575   2.127
40954SOL    HW224637   6.889   7.495   2.032
40955SOL     OW24638   4.752   3.236  12.947
40955SOL    HW124639   4.808   3.184  12.890
40955SOL    HW224640   4.773   3.327  12.926
40956SOL     OW24641  10.396   1.877   2.913
40956SOL    HW124642  10.374   1.795   2.868
40956SOL    HW224643  10.316   1.930   2.906
40957SOL     OW24644  14.226   6.658   1.304
40957SOL    HW124645  14.241   6.566   1.285
40957SOL    HW224646  14.174   6.658   1.384
40958SOL     OW24647  13.606   7.163   4.782
40958SOL    HW124648  13.616   7.073   4.753
40958SOL    HW224649  13.544   7.202   4.721
40959SOL     OW24650   7.279  13.401   6.290
40959SOL    HW124651   7.209  13.340   6.315
40959SOL    HW224652   7.359  13.350   6.303
40960SOL     OW24653   4.021   5.744   3.701
40960SOL    HW124654   4.077   5.686   3.753
40960SOL    HW224655   4.079   5.782   3.636
40961SOL     OW24656   1.295  11.469   5.628
40961SOL    HW124657   1.376  11.418   5.630
40961SOL    HW224658   1.295  11.517   5.711
40962SOL     OW24659   1.922   5.051   5.561
40962SOL    HW124660   1.918   5.116   5.631
40962SOL    HW224661   1.874   4.976   5.596
40963SOL     OW24662   7.509   2.012   3.001
40963SOL    HW124663   7.596   2.032   2.965
40963SOL    HW224664   7.456   2.088   2.979
40964SOL     OW24665   8.953   6.911  12.096
40964SOL    HW124666   9.037   6.937  12.059
40964SOL    HW224667   8.964   6.819  12.119
40965SOL     OW24668   7.976  13.403   8.599
40965SOL    HW124669   8.041  13.332   8.600
40965SOL    HW224670   7.894  13.359   8.575
40966SOL     OW24671   6.723  10.790   7.967
40966SOL    HW124672   6.796  10.851   7.980
40966SOL    HW224673   6.739  10.719   8.029
40967SOL     OW24674   4.480  14.762   0.383
40967SOL    HW124675   4.485  14.825   0.455
40967SOL    HW224676   4.549  14.789   0.323
40968SOL     OW24677  13.518   7.257  14.148
40968SOL    HW124678  13.530   7.331  14.088
40968SOL    HW224679  13.440   7.280  14.198
40969SOL     OW24680   9.966   0.281   5.266
40969SOL    HW124681   9.886   0.229   5.265
40969SOL    HW224682   9.950   0.347   5.333
40970SOL     OW24683   3.321   5.451  13.600
40970SOL    HW124684   3.297   5.543  13.592
40970SOL    HW224685   3.260   5.416  13.666
40971SOL     OW24686   9.554   1.579   8.323
40971SOL    HW124687   9.588   1.562   8.411
40971SOL    HW224688   9.631   1.603   8.272
40972SOL     OW24689  14.535   1.295   6.840
40972SOL    HW124690  14.460   1.284   6.781
40972SOL    HW224691  14.497   1.316   6.924
40973SOL     OW24692  11.201  11.323  10.127
40973SOL    HW124693  11.281  11.344  10.175
40973SOL    HW224694  11.203  11.380  10.051
40974SOL     OW24695   4.694   6.934  11.591
40974SOL    HW124696   4.766   6.957  11.532
40974SOL    HW224697   4.727   6.860  11.641
40975SOL     OW24698   2.179   6.665  10.918
40975SOL    HW124699   2.087   6.692  10.916
40975SOL    HW224700   2.193   6.622  10.833
40976SOL     OW24701   7.341   4.166   6.608
40976SOL    HW124702   7.432   4.155   6.635
40976SOL    HW224703   7.321   4.257   6.627
40977SOL     OW24704   0.335   1.902   8.777
40977SOL    HW124705   0.427   1.909   8.803
40977SOL    HW224706   0.333   1.830   8.715
40978SOL     OW24707   7.764  14.168   2.277
40978SOL    HW124708   7.831  14.227   2.311
40978SOL    HW224709   7.752  14.194   2.186
40979SOL     OW24710  13.059   3.999   2.556
40979SOL    HW124711  12.970   3.964   2.557
40979SOL    HW224712  13.049   4.092   2.577
40980SOL     OW24713   3.382   9.717   3.266
40980SOL    HW124714   3.469   9.679   3.274
40980SOL    HW224715   3.397   9.807   3.238
40981SOL     OW24716  11.103   3.930   8.073
40981SOL    HW124717  11.043   3.971   8.010
40981SOL    HW224718  11.123   3.845   8.034
40982SOL     OW24719   1.696   3.581  12.506
40982SOL    HW124720   1.663   3.646  12.567
40982SOL    HW224721   1.619   3.554  12.455
40983SOL     OW24722   1.388   4.625   6.587
40983SOL    HW124723   1.429   4.539   6.591
40983SOL    HW224724   1.315   4.614   6.526
40984SOL     OW24725   6.615   0.456  10.951
40984SOL    HW124726   6.650   0.516  11.018
40984SOL    HW224727   6.689   0.399  10.930
40985SOL     OW24728   8.784   9.860   2.108
40985SOL    HW124729   8.731   9.782   2.088
40985SOL    HW224730   8.725   9.934   2.089
40986SOL     OW24731  11.184  10.196   9.854
40986SOL    HW124732  11.229  10.263   9.905
40986SOL    HW224733  11.091  10.213   9.867
40987SOL     OW24734  14.414  13.401   7.028
40987SOL    HW124735  14.443  13.422   6.939
40987SOL    HW224736  14.406  13.305   7.029
40988SOL     OW24737   1.186   0.789  14.022
40988SOL    HW124738   1.259   0.779  13.962
40988SOL    HW224739   1.124   0.720  13.997
40989SOL     OW24740   0.319   6.592  13.958
40989SOL    HW124741   0.407   6.589  13.921
40989SOL    HW224742   0.261   6.587  13.882
40990SOL     OW24743  11.119   9.722  10.035
40990SOL    HW124744  11.113   9.779  10.111
40990SOL    HW224745  11.191   9.758   9.984
40991SOL     OW24746  14.115   5.364   3.459
40991SOL    HW124747  14.038   5.313   3.483
40991SOL    HW224748  14.081   5.451   3.439
40992SOL     OW24749   7.079   2.170   6.023
40992SOL    HW124750   7.148   2.209   5.969
40992SOL    HW224751   7.124   2.141   6.102
40993SOL     OW24752   8.985   7.859  12.221
40993SOL    HW124753   8.976   7.768  12.195
40993SOL    HW224754   8.925   7.869  12.295
40994SOL     OW24755   1.041   2.376   9.054
40994SOL    HW124756   1.132   2.346   9.060
40994SOL    HW224757   1.047   2.464   9.018
40995SOL     OW24758   0.080   0.927   0.619
40995SOL    HW124759   0.143   0.964   0.558
40995SOL    HW224760   0.133   0.900   0.694
40996SOL     OW24761  12.922  13.494  14.587
40996SOL    HW124762  12.994  13.557  14.585
40996SOL    HW224763  12.966  13.410  14.603
40997SOL     OW24764   9.254   5.384  14.301
40997SOL    HW124765   9.262   5.359  14.393
40997SOL    HW224766   9.217   5.306  14.258
40998SOL     OW24767   9.726   4.301  10.814
40998SOL    HW124768   9.724   4.366  10.745
40998SOL    HW224769   9.722   4.352  10.895
40999SOL     OW24770   4.917   7.545   2.897
40999SOL    HW124771   4.986   7.493   2.855
40999SOL    HW224772   4.845   7.484   2.911
41000SOL     OW24773  13.465   4.959   0.864
41000SOL    HW124774  13.517   4.881   0.883
41000SOL    HW224775  13.385   4.926   0.823
41001SOL     OW24776   0.709   3.313   2.435
41001SOL    HW124777   0.772   3.380   2.460
41001SOL    HW224778   0.693   3.264   2.516
41002SOL     OW24779  13.579   1.161   2.530
41002SOL    HW124780  13.519   1.229   2.498
41002SOL    HW224781  13.658   1.172   2.476
41003SOL     OW24782   4.681   7.649   6.254
41003SOL    HW124783   4.604   7.620   6.205
41003SOL    HW224784   4.748   7.664   6.187
41004SOL     OW24785   1.804   3.370  11.013
41004SOL    HW124786   1.746   3.384  11.088
41004SOL    HW224787   1.838   3.281  11.026
41005SOL     OW24788  11.637   6.474  11.092
41005SOL    HW124789  11.651   6.394  11.040
41005SOL    HW224790  11.570   6.522  11.043
41006SOL     OW24791  10.767   9.671   1.792
41006SOL    HW124792  10.687   9.716   1.765
41006SOL    HW224793  10.791   9.617   1.717
41007SOL     OW24794   7.073   9.912  11.533
41007SOL    HW124795   6.997   9.933  11.479
41007SOL    HW224796   7.056   9.824  11.567
41008SOL     OW24797  10.575  11.473   8.575
41008SOL    HW124798  10.660  11.447   8.540
41008SOL    HW224799  10.567  11.424   8.657
41009SOL     OW24800  13.931   7.304  11.411
41009SOL    HW124801  13.852   7.254  11.389
41009SOL    HW224802  14.003   7.249  11.380
41010SOL     OW24803   7.559   1.337  11.377
41010SOL    HW124804   7.489   1.401  11.369
41010SOL    HW224805   7.561   1.292  11.292
41011SOL     OW24806   3.128   5.314  13.400
41011SOL    HW124807   3.200   5.303  13.462
41011SOL    HW224808   3.145   5.399  13.359
41012SOL     OW24809   8.832  12.255   2.140
41012SOL    HW124810   8.865  12.342   2.117
41012SOL    HW224811   8.866  12.197   2.071
41013SOL     OW24812  10.534   4.751  11.164
41013SOL    HW124813  10.604   4.688  11.179
41013SOL    HW224814  10.574   4.836  11.184
41014SOL     OW24815   7.146   6.617  11.884
41014SOL    HW124816   7.223   6.562  11.867
41014SOL    HW224817   7.094   6.567  11.947
41015SOL     OW24818  11.185   7.477   1.317
41015SOL    HW124819  11.177   7.399   1.261
41015SOL    HW224820  11.265   7.462   1.367
41016SOL     OW24821   4.092  10.570   6.408
41016SOL    HW124822   4.148  10.606   6.477
41016SOL    HW224823   4.005  10.567   6.447
41017SOL     OW24824   7.549   8.258   3.037
41017SOL    HW124825   7.580   8.267   3.127
41017SOL    HW224826   7.626   8.276   2.983
41018SOL     OW24827  10.512  11.466   0.952
41018SOL    HW124828  10.528  11.554   0.918
41018SOL    HW224829  10.417  11.455   0.946
41019SOL     OW24830   7.476   9.034  10.042
41019SOL    HW124831   7.502   8.967   9.978
41019SOL    HW224832   7.386   9.011  10.065
41020SOL     OW24833   3.857   5.161   8.226
41020SOL    HW124834   3.771   5.160   8.184
41020SOL    HW224835   3.908   5.095   8.179
41021SOL     OW24836   1.597   9.932   3.925
41021SOL    HW124837   1.620  10.023   3.943
41021SOL    HW224838   1.643   9.910   3.844
41022SOL     OW24839  13.042  12.047   2.401
41022SOL    HW124840  13.104  12.059   2.329
41022SOL    HW224841  12.965  12.009   2.360
41023SOL     OW24842   1.451   0.877   3.739
41023SOL    HW124843   1.481   0.947   3.798
41023SOL    HW224844   1.418   0.809   3.798
41024SOL     OW24845   8.522   4.530  14.325
41024SOL    HW124846   8.504   4.439  14.349
41024SOL    HW224847   8.585   4.560  14.392
41025SOL     OW24848  11.242  12.630   2.689
41025SOL    HW124849  11.292  12.657   2.612
41025SOL    HW224850  11.268  12.540   2.704
41026SOL     OW24851  12.613  10.156   0.865
41026SOL    HW124852  12.529  10.120   0.836
41026SOL    HW224853  12.620  10.240   0.820
41027SOL     OW24854   3.924   4.906  10.622
41027SOL    HW124855   3.931   4.935  10.713
41027SOL    HW224856   3.830   4.903  10.605
41028SOL     OW24857   0.952   9.564  11.599
41028SOL    HW124858   1.038   9.590  11.632
41028SOL    HW224859   0.903   9.540  11.677
41029SOL     OW24860   3.805  12.465  12.538
41029SOL    HW124861   3.757  12.382  12.543
41029SOL    HW224862   3.846  12.474  12.623
41030SOL     OW24863   3.418   6.796  12.681
41030SOL    HW124864   3.388   6.742  12.754
41030SOL    HW224865   3.489   6.746  12.641
41031SOL     OW24866   1.074   2.027  11.917
41031SOL    HW124867   1.069   2.029  11.821
41031SOL    HW224868   1.151   2.082  11.937
41032SOL     OW24869  13.252  14.523   2.288
41032SOL    HW124870  13.287  14.573   2.214
41032SOL    HW224871  13.219  14.590   2.348
41033SOL     OW24872   0.662   6.659   3.417
41033SOL    HW124873   0.573   6.685   3.394
41033SOL    HW224874   0.652   6.603   3.494
41034SOL     OW24875  13.583   8.808   1.265
41034SOL    HW124876  13.650   8.762   1.215
41034SOL    HW224877  13.630   8.882   1.305
41035SOL     OW24878  10.067   8.170  11.292
41035SOL    HW124879  10.157   8.137  11.299
41035SOL    HW224880  10.068   8.251  11.344
41036SOL     OW24881   1.480   3.675   9.854
41036SOL    HW124882   1.509   3.609   9.791
41036SOL    HW224883   1.551   3.738   9.858
41037SOL     OW24884  14.492   1.424  11.714
41037SOL    HW124885  14.527   1.381  11.636
41037SOL    HW224886  14.567   1.433  11.773
41038SOL     OW24887   4.880   5.450  12.401
41038SOL    HW124888   4.897   5.366  12.359
41038SOL    HW224889   4.808   5.488  12.352
41039SOL     OW24890   9.191  11.055   5.101
41039SOL    HW124891   9.251  11.127   5.119
41039SOL    HW224892   9.155  11.074   5.015
41040SOL     OW24893   5.704   5.327   4.077
41040SOL    HW124894   5.656   5.260   4.125
41040SOL    HW224895   5.681   5.409   4.121
41041SOL     OW24896   5.722   1.129   7.164
41041SOL    HW124897   5.721   1.108   7.257
41041SOL    HW224898   5.813   1.154   7.147
41042SOL     OW24899   2.637   2.366   7.601
41042SOL    HW124900   2.606   2.373   7.691
41042SOL    HW224901   2.720   2.318   7.608
41043SOL     OW24902   8.050  11.534   0.175
41043SOL    HW124903   8.072  11.575   0.258
41043SOL    HW224904   8.126  11.479   0.154
41044SOL     OW24905   4.137  10.921  13.152
41044SOL    HW124906   4.202  10.991  13.155
41044SOL    HW224907   4.188  10.841  13.155
41045SOL     OW24908   8.852  10.684   6.981
41045SOL    HW124909   8.813  10.710   6.897
41045SOL    HW224910   8.895  10.764   7.012
41046SOL     OW24911  13.596  10.796   6.118
41046SOL    HW124912  13.671  10.854   6.106
41046SOL    HW224913  13.625  10.733   6.183
41047SOL     OW24914  13.323   6.474   0.585
41047SOL    HW124915  13.279   6.502   0.505
41047SOL    HW224916  13.271   6.399   0.616
41048SOL     OW24917   4.526   0.444  10.397
41048SOL    HW124918   4.495   0.516  10.342
41048SOL    HW224919   4.566   0.382  10.335
41049SOL     OW24920  13.645   2.416   6.535
41049SOL    HW124921  13.655   2.391   6.627
41049SOL    HW224922  13.593   2.496   6.538
41050SOL     OW24923   7.515   8.946  10.416
41050SOL    HW124924   7.494   9.016  10.477
41050SOL    HW224925   7.599   8.972  10.378
41051SOL     OW24926   8.727   0.480   4.589
41051SOL    HW124927   8.704   0.448   4.502
41051SOL    HW224928   8.689   0.416   4.649
41052SOL     OW24929   9.844   7.547   3.772
41052SOL    HW124930   9.806   7.578   3.855
41052SOL    HW224931   9.770   7.544   3.712
41053SOL     OW24932   4.115   7.521   5.655
41053SOL    HW124933   4.110   7.606   5.699
41053SOL    HW224934   4.192   7.528   5.598
41054SOL     OW24935   0.254   6.808  14.109
41054SOL    HW124936   0.292   6.732  14.063
41054SOL    HW224937   0.164   6.781  14.128
41055SOL     OW24938   7.922   3.108  10.248
41055SOL    HW124939   7.885   3.194  10.269
41055SOL    HW224940   7.847   3.048  10.254
41056SOL     OW24941   5.972   0.640   5.275
41056SOL    HW124942   5.881   0.649   5.246
41056SOL    HW224943   6.012   0.582   5.211
41057SOL     OW24944   0.088  10.683   8.527
41057SOL    HW124945   0.160  10.653   8.583
41057SOL    HW224946   0.010  10.643   8.565
41058SOL     OW24947  14.163   7.518  12.520
41058SOL    HW124948  14.222   7.484  12.587
41058SOL    HW224949  14.182   7.612  12.518
41059SOL     OW24950   7.538   2.458   0.866
41059SOL    HW124951   7.550   2.455   0.771
41059SOL    HW224952   7.487   2.379   0.886
41060SOL     OW24953   0.014   6.820   6.242
41060SOL    HW124954   0.080   6.865   6.189
41060SOL    HW224955   0.062   6.785   6.316
41061SOL     OW24956   3.379   7.385  13.004
41061SOL    HW124957   3.414   7.395  12.916
41061SOL    HW224958   3.372   7.474  13.039
41062SOL     OW24959   7.893   9.073  14.635
41062SOL    HW124960   7.838   9.020  14.577
41062SOL    HW224961   7.860   9.162  14.624
41063SOL     OW24962   3.708   5.450   9.666
41063SOL    HW124963   3.760   5.398   9.604
41063SOL    HW224964   3.725   5.409   9.751
41064SOL     OW24965   7.163   5.272   3.962
41064SOL    HW124966   7.178   5.225   4.044
41064SOL    HW224967   7.137   5.203   3.900
41065SOL     OW24968   2.249  10.480  12.255
41065SOL    HW124969   2.193  10.461  12.179
41065SOL    HW224970   2.262  10.575  12.252
41066SOL     OW24971  11.630  13.464  11.267
41066SOL    HW124972  11.562  13.411  11.226
41066SOL    HW224973  11.610  13.554  11.240
41067SOL     OW24974  10.883   6.487  12.942
41067SOL    HW124975  10.861   6.397  12.919
41067SOL    HW224976  10.942   6.479  13.017
41068SOL     OW24977  10.039   8.107   5.772
41068SOL    HW124978  10.092   8.079   5.846
41068SOL    HW224979  10.050   8.202   5.769
41069SOL     OW24980  14.273   3.730   3.708
41069SOL    HW124981  14.266   3.675   3.785
41069SOL    HW224982  14.219   3.807   3.728
41070SOL     OW24983   2.449   4.246   8.205
41070SOL    HW124984   2.359   4.279   8.205
41070SOL    HW224985   2.441   4.154   8.230
41071SOL     OW24986   3.873  10.390   5.061
41071SOL    HW124987   3.838  10.332   5.129
41071SOL    HW224988   3.813  10.381   4.988
41072SOL     OW24989   5.043   6.093   5.525
41072SOL    HW124990   5.095   6.158   5.572
41072SOL    HW224991   4.965   6.141   5.498
41073SOL     OW24992  14.692   6.662   9.587
41073SOL    HW124993  14.610   6.620   9.615
41073SOL    HW224994  14.742   6.671   9.668
41074SOL     OW24995   4.301   3.984   8.074
41074SOL    HW124996   4.271   3.892   8.071
41074SOL    HW224997   4.396   3.978   8.079
41075SOL     OW24998   7.130   6.717   9.953
41075SOL    HW124999   7.042   6.756   9.949
41075SOL    HW225000   7.177   6.758   9.881
41076SOL     OW25001  11.633   4.039   0.092
41076SOL    HW125002  11.680   4.096   0.031
41076SOL    HW225003  11.662   3.951   0.069
41077SOL     OW25004   6.519  13.444   5.876
41077SOL    HW125005   6.448  13.474   5.820
41077SOL    HW225006   6.503  13.486   5.960
41078SOL     OW25007   6.557   6.081   5.996
41078SOL    HW125008   6.490   6.014   5.982
41078SOL    HW225009   6.521   6.138   6.064
41079SOL     OW25010  11.518   2.949   3.182
41079SOL    HW125011  11.513   2.884   3.112
41079SOL    HW225012  11.433   2.944   3.226
41080SOL     OW25013   8.039   0.319   4.180
41080SOL    HW125014   8.070   0.285   4.096
41080SOL    HW225015   8.085   0.402   4.191
41081SOL     OW25016  10.775   5.511   6.825
41081SOL    HW125017  10.757   5.580   6.761
41081SOL    HW225018  10.692   5.502   6.873
41082SOL     OW25019   4.211  11.119   8.898
41082SOL    HW125020   4.267  11.189   8.929
41082SOL    HW225021   4.209  11.056   8.970
41083SOL     OW25022  12.520  11.007   0.875
41083SOL    HW125023  12.458  11.070   0.913
41083SOL    HW225024  12.464  10.940   0.836
41084SOL     OW25025   8.055   6.106  11.964
41084SOL    HW125026   8.130   6.127  11.909
41084SOL    HW225027   8.081   6.133  12.052
41085SOL     OW25028  12.193   0.250  14.044
41085SOL    HW125029  12.182   0.203  14.126
41085SOL    HW225030  12.127   0.213  13.985
41086SOL     OW25031   7.574   0.841   3.168
41086SOL    HW125032   7.512   0.848   3.096
41086SOL    HW225033   7.640   0.908   3.149
41087SOL     OW25034  12.411   0.384  13.432
41087SOL    HW125035  12.406   0.458  13.372
41087SOL    HW225036  12.453   0.419  13.511
41088SOL     OW25037   6.493  13.035  11.857
41088SOL    HW125038   6.513  13.005  11.769
41088SOL    HW225039   6.397  13.039  11.860
41089SOL     OW25040   7.751   9.946   7.487
41089SOL    HW125041   7.745   9.972   7.579
41089SOL    HW225042   7.698   9.866   7.481
41090SOL     OW25043  10.661   8.801  13.608
41090SOL    HW125044  10.708   8.746  13.669
41090SOL    HW225045  10.682   8.891  13.634
41091SOL     OW25046   8.606   6.985   4.755
41091SOL    HW125047   8.629   6.940   4.674
41091SOL    HW225048   8.628   7.077   4.738
41092SOL     OW25049   2.507   2.451   5.256
41092SOL    HW125050   2.535   2.371   5.302
41092SOL    HW225051   2.493   2.423   5.166
41093SOL     OW25052  14.365  10.919  14.692
41093SOL    HW125053  14.440  10.937  14.750
41093SOL    HW225054  14.387  10.835  14.650
41094SOL     OW25055   4.198   9.236   6.477
41094SOL    HW125056   4.282   9.264   6.441
41094SOL    HW225057   4.133   9.274   6.417
41095SOL     OW25058   2.250  10.118   9.168
41095SOL    HW125059   2.321  10.124   9.104
41095SOL    HW225060   2.284  10.162   9.245
41096SOL     OW25061   3.154   4.573  11.334
41096SOL    HW125062   3.197   4.539  11.256
41096SOL    HW225063   3.163   4.504  11.399
41097SOL     OW25064   0.052   7.217   1.715
41097SOL    HW125065  14.877   7.227   1.635
41097SOL    HW225066   0.110   7.293   1.716
41098SOL     OW25067   1.782   5.640   2.249
41098SOL    HW125068   1.767   5.719   2.195
41098SOL    HW225069   1.876   5.641   2.266
41099SOL     OW25070   9.983   3.141   5.183
41099SOL    HW125071   9.973   3.085   5.260
41099SOL    HW225072   9.907   3.120   5.129
41100SOL     OW25073  11.795  11.183  10.529
41100SOL    HW125074  11.765  11.108  10.580
41100SOL    HW225075  11.753  11.173  10.444
41101SOL     OW25076   8.748  10.167   8.433
41101SOL    HW125077   8.656  10.141   8.440
41101SOL    HW225078   8.748  10.235   8.365
41102SOL     OW25079   1.561   9.725  10.987
41102SOL    HW125080   1.575   9.660  10.918
41102SOL    HW225081   1.501   9.683  11.048
41103SOL     OW25082   4.597   9.466   4.344
41103SOL    HW125083   4.641   9.548   4.322
41103SOL    HW225084   4.623   9.447   4.434
41104SOL     OW25085  13.406   8.007   5.489
41104SOL    HW125086  13.318   7.985   5.521
41104SOL    HW225087  13.394   8.025   5.396
41105SOL     OW25088   6.403   3.419  10.074
41105SOL    HW125089   6.477   3.480  10.075
41105SOL    HW225090   6.403   3.382   9.986
41106SOL     OW25091   2.495   0.358   0.470
41106SOL    HW125092   2.487   0.446   0.434
41106SOL    HW225093   2.587   0.335   0.456
41107SOL     OW25094   7.899  13.005   2.918
41107SOL    HW125095   7.885  13.099   2.912
41107SOL    HW225096   7.898  12.987   3.012
41108SOL     OW25097   2.356   6.662  10.576
41108SOL    HW125098   2.332   6.592  10.638
41108SOL    HW225099   2.399   6.616  10.504
41109SOL     OW25100   8.281   6.877   4.242
41109SOL    HW125101   8.364   6.856   4.198
41109SOL    HW225102   8.234   6.932   4.180
41110SOL     OW25103   5.149   6.004  12.645
41110SOL    HW125104   5.243   5.993  12.657
41110SOL    HW225105   5.112   5.917  12.664
41111SOL     OW25106   0.643   2.732   6.393
41111SOL    HW125107   0.560   2.760   6.355
41111SOL    HW225108   0.672   2.807   6.445
41112SOL     OW25109  11.039   9.237   8.206
41112SOL    HW125110  10.969   9.183   8.244
41112SOL    HW225111  10.993   9.300   8.151
41113SOL     OW25112   0.635   0.241   9.776
41113SOL    HW125113   0.570   0.311   9.760
41113SOL    HW225114   0.583   0.161   9.779
41114SOL     OW25115  10.031   6.606   4.644
41114SOL    HW125116  10.009   6.669   4.713
41114SOL    HW225117   9.947   6.572   4.614
41115SOL     OW25118   1.476  10.070   1.155
41115SOL    HW125119   1.495  10.110   1.240
41115SOL    HW225120   1.445   9.982   1.177
41116SOL     OW25121   7.921   8.067  11.553
41116SOL    HW125122   7.945   7.974  11.556
41116SOL    HW225123   7.826   8.067  11.546
41117SOL     OW25124   8.566   2.452  11.335
41117SOL    HW125125   8.612   2.522  11.290
41117SOL    HW225126   8.481   2.447  11.292
41118SOL     OW25127  12.364  14.824  14.147
41118SOL    HW125128  12.279  14.869  14.152
41118SOL    HW225129  12.411  14.855  14.225
41119SOL     OW25130   6.299  13.005  11.529
41119SOL    HW125131   6.280  12.925  11.577
41119SOL    HW225132   6.388  12.992  11.495
41120SOL     OW25133  11.702   9.594  14.198
41120SOL    HW125134  11.657   9.678  14.192
41120SOL    HW225135  11.716   9.568  14.107
41121SOL     OW25136   7.020   9.284  13.025
41121SOL    HW125137   6.926   9.273  13.011
41121SOL    HW225138   7.051   9.196  13.050
41122SOL     OW25139  13.411   4.180  12.590
41122SOL    HW125140  13.441   4.204  12.503
41122SOL    HW225141  13.372   4.260  12.625
41123SOL     OW25142   5.586   5.323   6.059
41123SOL    HW125143   5.541   5.307   6.142
41123SOL    HW225144   5.548   5.260   5.998
41124SOL     OW25145  10.994   6.956  10.803
41124SOL    HW125146  10.899   6.952  10.814
41124SOL    HW225147  11.020   7.038  10.845
41125SOL     OW25148   8.319   1.302   7.870
41125SOL    HW125149   8.253   1.353   7.917
41125SOL    HW225150   8.270   1.256   7.802
41126SOL     OW25151   7.664   4.289   6.897
41126SOL    HW125152   7.734   4.354   6.902
41126SOL    HW225153   7.686   4.235   6.821
41127SOL     OW25154   9.850   0.808   7.261
41127SOL    HW125155   9.757   0.793   7.281
41127SOL    HW225156   9.884   0.721   7.243
41128SOL     OW25157   2.511  11.390  10.179
41128SOL    HW125158   2.498  11.429  10.092
41128SOL    HW225159   2.501  11.296  10.165
41129SOL     OW25160   1.091  14.206  10.754
41129SOL    HW125161   1.154  14.204  10.682
41129SOL    HW225162   1.006  14.213  10.710
41130SOL     OW25163  11.292   4.808   1.752
41130SOL    HW125164  11.270   4.725   1.794
41130SOL    HW225165  11.265   4.875   1.815
41131SOL     OW25166   1.561   1.986  14.503
41131SOL    HW125167   1.629   1.919  14.507
41131SOL    HW225168   1.592   2.055  14.561
41132SOL     OW25169  13.722   8.015   0.307
41132SOL    HW125170  13.781   8.089   0.292
41132SOL    HW225171  13.669   8.009   0.227
41133SOL     OW25172  10.435  12.108  13.286
41133SOL    HW125173  10.477  12.051  13.221
41133SOL    HW225174  10.412  12.187  13.238
41134SOL     OW25175   8.319   5.946   8.235
41134SOL    HW125176   8.281   6.034   8.247
41134SOL    HW225177   8.411   5.962   8.213
41135SOL     OW25178   1.514  10.777  11.638
41135SOL    HW125179   1.474  10.703  11.683
41135SOL    HW225180   1.444  10.841  11.629
41136SOL     OW25181  10.051   5.471   9.531
41136SOL    HW125182  10.029   5.432   9.616
41136SOL    HW225183  10.063   5.564   9.549
41137SOL     OW25184   0.029   0.915  11.542
41137SOL    HW125185  14.856   0.996  11.533
41137SOL    HW225186   0.010   0.885  11.631
41138SOL     OW25187   5.173   1.506   1.523
41138SOL    HW125188   5.191   1.484   1.431
41138SOL    HW225189   5.122   1.587   1.519
41139SOL     OW25190   1.615   9.112   5.633
41139SOL    HW125191   1.660   9.073   5.708
41139SOL    HW225192   1.622   9.046   5.564
41140SOL     OW25193   9.885   5.372   4.417
41140SOL    HW125194   9.972   5.406   4.396
41140SOL    HW225195   9.860   5.418   4.497
41141SOL     OW25196   3.388   6.417   7.069
41141SOL    HW125197   3.342   6.443   6.989
41141SOL    HW225198   3.342   6.338   7.099
41142SOL     OW25199   0.172  14.783   8.535
41142SOL    HW125200   0.213  14.860   8.495
41142SOL    HW225201   0.082  14.811   8.554
41143SOL     OW25202   3.346  14.382   8.821
41143SOL    HW125203   3.290  14.395   8.898
41143SOL    HW225204   3.435  14.387   8.855
41144SOL     OW25205  14.301   4.436  14.519
41144SOL    HW125206  14.303   4.477  14.605
41144SOL    HW225207  14.346   4.499  14.462
41145SOL     OW25208   0.029   1.233   4.330
41145SOL    HW125209   0.107   1.179   4.318
41145SOL    HW225210   0.004   1.219   4.421
41146SOL     OW25211  10.660   1.085   8.518
41146SOL    HW125212  10.735   1.052   8.567
41146SOL    HW225213  10.607   1.007   8.500
41147SOL     OW25214   5.946   1.862  14.822
41147SOL    HW125215   5.907   1.863   0.032
41147SOL    HW225216   5.976   1.952  14.808
41148SOL     OW25217   2.295   5.218   2.249
41148SOL    HW125218   2.257   5.273   2.318
41148SOL    HW225219   2.366   5.271   2.212
41149SOL     OW25220   3.185  14.517  11.064
41149SOL    HW125221   3.201  14.443  11.005
41149SOL    HW225222   3.259  14.515  11.125
41150SOL     OW25223   5.251   1.477   8.263
41150SOL    HW125224   5.284   1.565   8.247
41150SOL    HW225225   5.201   1.455   8.184
41151SOL     OW25226   7.134   9.233   1.275
41151SOL    HW125227   7.088   9.200   1.352
41151SOL    HW225228   7.078   9.301   1.240
41152SOL     OW25229   5.527   1.172   6.960
41152SOL    HW125230   5.468   1.234   7.003
41152SOL    HW225231   5.589   1.147   7.028
41153SOL     OW25232   5.450  14.641   0.454
41153SOL    HW125233   5.449  14.566   0.395
41153SOL    HW225234   5.543  14.659   0.468
41154SOL     OW25235   5.048   1.209   8.837
41154SOL    HW125236   4.993   1.131   8.847
41154SOL    HW225237   5.138   1.175   8.842
41155SOL     OW25238   7.743  13.702   3.212
41155SOL    HW125239   7.826  13.720   3.258
41155SOL    HW225240   7.716  13.788   3.179
41156SOL     OW25241   1.494  11.821   1.368
41156SOL    HW125242   1.429  11.843   1.301
41156SOL    HW225243   1.577  11.818   1.321
41157SOL     OW25244  10.960  12.517   8.514
41157SOL    HW125245  10.875  12.522   8.558
41157SOL    HW225246  10.954  12.579   8.442
41158SOL     OW25247   5.052   0.459   8.869
41158SOL    HW125248   5.066   0.478   8.776
41158SOL    HW225249   4.980   0.516   8.894
41159SOL     OW25250   2.596   4.628   1.046
41159SOL    HW125251   2.577   4.572   0.971
41159SOL    HW225252   2.692   4.626   1.053
41160SOL     OW25253   9.124  14.435   4.811
41160SOL    HW125254   9.038  14.397   4.828
41160SOL    HW225255   9.171  14.368   4.762
41161SOL     OW25256  14.622   6.160   9.868
41161SOL    HW125257  14.630   6.065   9.882
41161SOL    HW225258  14.667   6.198   9.944
41162SOL     OW25259   6.792   2.922   0.968
41162SOL    HW125260   6.708   2.877   0.976
41162SOL    HW225261   6.852   2.855   0.935
41163SOL     OW25262  10.956   7.728   5.988
41163SOL    HW125263  10.977   7.653   6.044
41163SOL    HW225264  10.881   7.769   6.031
41164SOL     OW25265  13.285   7.803  13.008
41164SOL    HW125266  13.241   7.873  12.961
41164SOL    HW225267  13.367   7.790  12.962
41165SOL     OW25268   0.084  11.495   3.788
41165SOL    HW125269  14.873  11.492   3.825
41165SOL    HW225270   0.109  11.403   3.779
41166SOL     OW25271  12.015  12.333   4.635
41166SOL    HW125272  11.988  12.378   4.555
41166SOL    HW225273  11.956  12.259   4.643
41167SOL     OW25274   3.366  14.201   1.722
41167SOL    HW125275   3.293  14.141   1.703
41167SOL    HW225276   3.430  14.184   1.653
41168SOL     OW25277  10.837   7.324   3.982
41168SOL    HW125278  10.922   7.345   3.942
41168SOL    HW225279  10.777   7.318   3.908
41169SOL     OW25280   4.131  13.819   5.105
41169SOL    HW125281   4.185  13.896   5.089
41169SOL    HW225282   4.166  13.753   5.045
41170SOL     OW25283   0.659   7.046   5.464
41170SOL    HW125284   0.749   7.018   5.479
41170SOL    HW225285   0.637   7.013   5.378
41171SOL     OW25286   0.158   7.213  11.700
41171SOL    HW125287   0.129   7.264  11.624
41171SOL    HW225288   0.076   7.191  11.745
41172SOL     OW25289  10.209  13.458  10.209
41172SOL    HW125290  10.135  13.519  10.211
41172SOL    HW225291  10.285  13.511  10.234
41173SOL     OW25292  10.855  13.404  11.569
41173SOL    HW125293  10.949  13.400  11.587
41173SOL    HW225294  10.824  13.315  11.583
41174SOL     OW25295   5.301  14.160   5.872
41174SOL    HW125296   5.332  14.250   5.883
41174SOL    HW225297   5.269  14.156   5.782
41175SOL     OW25298   5.096   0.104   3.667
41175SOL    HW125299   5.117   0.122   3.758
41175SOL    HW225300   5.158   0.157   3.617
41176SOL     OW25301  10.306   3.897   9.937
41176SOL    HW125302  10.351   3.979   9.952
41176SOL    HW225303  10.368   3.844   9.886
41177SOL     OW25304   7.659   4.403   8.063
41177SOL    HW125305   7.714   4.334   8.027
41177SOL    HW225306   7.653   4.469   7.993
41178SOL     OW25307  14.272   0.683   0.371
41178SOL    HW125308  14.325   0.672   0.293
41178SOL    HW225309  14.291   0.605   0.424
41179SOL     OW25310   1.564   6.061   2.328
41179SOL    HW125311   1.538   6.082   2.418
41179SOL    HW225312   1.660   6.066   2.329
41180SOL     OW25313   4.915  11.599   5.403
41180SOL    HW125314   4.992  11.602   5.348
41180SOL    HW225315   4.946  11.560   5.485
41181SOL     OW25316   8.709   4.069  13.032
41181SOL    HW125317   8.664   3.984  13.030
41181SOL    HW225318   8.791   4.052  13.078
41182SOL     OW25319   5.518  10.815  10.535
41182SOL    HW125320   5.520  10.832  10.630
41182SOL    HW225321   5.606  10.782  10.515
41183SOL     OW25322   1.317   6.110   9.139
41183SOL    HW125323   1.291   6.086   9.228
41183SOL    HW225324   1.407   6.143   9.149
41184SOL     OW25325  13.810   3.001   7.012
41184SOL    HW125326  13.881   2.938   7.002
41184SOL    HW225327  13.830   3.048   7.092
41185SOL     OW25328   0.801   3.247  14.061
41185SOL    HW125329   0.864   3.310  14.096
41185SOL    HW225330   0.855   3.177  14.024
41186SOL     OW25331  12.615   4.269   6.449
41186SOL    HW125332  12.639   4.182   6.481
41186SOL    HW225333  12.520   4.267   6.443
41187SOL     OW25334   8.564  13.711  10.499
41187SOL    HW125335   8.601  13.690  10.413
41187SOL    HW225336   8.634  13.691  10.561
41188SOL     OW25337   5.078   7.205   5.411
41188SOL    HW125338   5.022   7.268   5.366
41188SOL    HW225339   5.128   7.259   5.473
41189SOL     OW25340  10.844  12.335   3.571
41189SOL    HW125341  10.910  12.285   3.619
41189SOL    HW225342  10.842  12.420   3.616
41190SOL     OW25343   8.889  11.822   8.974
41190SOL    HW125344   8.916  11.911   9.000
41190SOL    HW225345   8.952  11.797   8.906
41191SOL     OW25346   2.356   0.526  10.685
41191SOL    HW125347   2.424   0.476  10.731
41191SOL    HW225348   2.400   0.607  10.659
41192SOL     OW25349   4.208  11.329  12.614
41192SOL    HW125350   4.248  11.265  12.554
41192SOL    HW225351   4.141  11.279  12.661
41193SOL     OW25352   2.240   7.053   9.252
41193SOL    HW125353   2.303   7.095   9.194
41193SOL    HW225354   2.177   7.122   9.274
41194SOL     OW25355   2.098  12.801   8.671
41194SOL    HW125356   2.178  12.775   8.625
41194SOL    HW225357   2.076  12.726   8.726
41195SOL     OW25358  13.457  11.791  11.787
41195SOL    HW125359  13.372  11.777  11.829
41195SOL    HW225360  13.453  11.740  11.706
41196SOL     OW25361   3.148   8.501   4.067
41196SOL    HW125362   3.134   8.527   4.158
41196SOL    HW225363   3.234   8.538   4.045
41197SOL     OW25364   0.947   2.267   8.763
41197SOL    HW125365   0.951   2.275   8.858
41197SOL    HW225366   0.861   2.302   8.740
41198SOL     OW25367   9.988   4.355   0.096
41198SOL    HW125368   9.938   4.389   0.021
41198SOL    HW225369  10.074   4.334   0.059
41199SOL     OW25370  11.764   1.614  13.525
41199SOL    HW125371  11.751   1.587  13.616
41199SOL    HW225372  11.798   1.703  13.531
41200SOL     OW25373  10.136   9.784   5.405
41200SOL    HW125374  10.090   9.774   5.488
41200SOL    HW225375  10.228   9.787   5.429
41201SOL     OW25376  12.394   9.514   6.539
41201SOL    HW125377  12.342   9.480   6.466
41201SOL    HW225378  12.352   9.477   6.617
41202SOL     OW25379  13.924  13.329   9.474
41202SOL    HW125380  13.914  13.248   9.523
41202SOL    HW225381  13.948  13.394   9.540
41203SOL     OW25382   3.400   5.619   8.668
41203SOL    HW125383   3.346   5.674   8.724
41203SOL    HW225384   3.440   5.556   8.728
41204SOL     OW25385   9.374   1.563   1.576
41204SOL    HW125386   9.413   1.640   1.617
41204SOL    HW225387   9.282   1.567   1.601
41205SOL     OW25388  12.920  14.726   5.474
41205SOL    HW125389  12.922  14.807   5.423
41205SOL    HW225390  12.962  14.661   5.419
41206SOL     OW25391   7.995  12.692  14.582
41206SOL    HW125392   8.061  12.693  14.513
41206SOL    HW225393   8.039  12.654  14.658
41207SOL     OW25394   8.105   4.538  13.789
41207SOL    HW125395   8.015   4.533  13.754
41207SOL    HW225396   8.156   4.481  13.731
41208SOL     OW25397   5.616   9.170   8.206
41208SOL    HW125398   5.553   9.101   8.186
41208SOL    HW225399   5.669   9.178   8.126
41209SOL     OW25400   7.090  11.407   5.613
41209SOL    HW125401   7.089  11.485   5.669
41209SOL    HW225402   7.149  11.347   5.658
41210SOL     OW25403   3.257  13.262   3.370
41210SOL    HW125404   3.334  13.275   3.315
41210SOL    HW225405   3.198  13.334   3.346
41211SOL     OW25406   6.565  14.440  14.318
41211SOL    HW125407   6.508  14.505  14.360
41211SOL    HW225408   6.646  14.486  14.300
41212SOL     OW25409  14.847   4.261  11.762
41212SOL    HW125410  14.771   4.267  11.821
41212SOL    HW225411   0.045   4.282  11.818
41213SOL     OW25412   9.580   3.230   5.356
41213SOL    HW125413   9.487   3.254   5.358
41213SOL    HW225414   9.587   3.158   5.418
41214SOL     OW25415   1.534   4.046   2.498
41214SOL    HW125416   1.455   4.072   2.544
41214SOL    HW225417   1.603   4.101   2.535
41215SOL     OW25418   4.168   6.176   8.588
41215SOL    HW125419   4.196   6.266   8.569
41215SOL    HW225420   4.113   6.151   8.514
41216SOL     OW25421   7.965   7.755   3.780
41216SOL    HW125422   8.002   7.732   3.695
41216SOL    HW225423   8.030   7.723   3.843
41217SOL     OW25424  13.979   6.378   1.773
41217SOL    HW125425  13.932   6.461   1.778
41217SOL    HW225426  14.071   6.402   1.786
41218SOL     OW25427   0.720   3.420  13.834
41218SOL    HW125428   0.647   3.482  13.842
41218SOL    HW225429   0.727   3.379  13.920
41219SOL     OW25430   8.361   1.506   5.324
41219SOL    HW125431   8.443   1.480   5.365
41219SOL    HW225432   8.353   1.450   5.247
41220SOL     OW25433  14.188   6.372   4.016
41220SOL    HW125434  14.230   6.351   3.933
41220SOL    HW225435  14.095   6.368   3.998
41221SOL     OW25436   5.592  11.946   5.974
41221SOL    HW125437   5.624  11.919   5.889
41221SOL    HW225438   5.671  11.964   6.025
41222SOL     OW25439   4.082  12.342   7.287
41222SOL    HW125440   4.027  12.269   7.257
41222SOL    HW225441   4.045  12.367   7.371
41223SOL     OW25442   3.952   8.856   6.486
41223SOL    HW125443   3.999   8.787   6.532
41223SOL    HW225444   3.925   8.917   6.555
41224SOL     OW25445  13.302  11.365   8.110
41224SOL    HW125446  13.237  11.382   8.041
41224SOL    HW225447  13.259  11.391   8.191
41225SOL     OW25448   3.087  11.075  14.043
41225SOL    HW125449   3.035  11.012  14.094
41225SOL    HW225450   3.084  11.041  13.954
41226SOL     OW25451   0.108   2.238   6.715
41226SOL    HW125452   0.013   2.249   6.710
41226SOL    HW225453   0.121   2.143   6.710
41227SOL     OW25454   7.962  13.111  11.884
41227SOL    HW125455   8.042  13.161  11.899
41227SOL    HW225456   7.898  13.175  11.853
41228SOL     OW25457   8.709   1.982   8.732
41228SOL    HW125458   8.618   1.994   8.704
41228SOL    HW225459   8.752   1.941   8.657
41229SOL     OW25460  12.587   9.546   8.997
41229SOL    HW125461  12.505   9.504   9.024
41229SOL    HW225462  12.611   9.603   9.069
41230SOL     OW25463   9.538  14.052  12.960
41230SOL    HW125464   9.467  14.108  12.990
41230SOL    HW225465   9.529  13.972  13.011
41231SOL     OW25466   0.335   0.475   5.544
41231SOL    HW125467   0.269   0.424   5.591
41231SOL    HW225468   0.293   0.559   5.526
41232SOL     OW25469   4.581   0.110  12.425
41232SOL    HW125470   4.529   0.034  12.453
41232SOL    HW225471   4.656   0.111  12.485
41233SOL     OW25472  11.542   2.773   4.454
41233SOL    HW125473  11.466   2.763   4.512
41233SOL    HW225474  11.603   2.705   4.482
41234SOL     OW25475   4.060   1.733   8.949
41234SOL    HW125476   3.992   1.687   8.899
41234SOL    HW225477   4.142   1.702   8.910
41235SOL     OW25478  11.103  11.098   2.144
41235SOL    HW125479  11.064  11.182   2.120
41235SOL    HW225480  11.071  11.036   2.078
41236SOL     OW25481   8.835   3.644   9.766
41236SOL    HW125482   8.880   3.598   9.696
41236SOL    HW225483   8.858   3.594   9.845
41237SOL     OW25484   7.809  11.771  14.165
41237SOL    HW125485   7.725  11.726  14.150
41237SOL    HW225486   7.815  11.778  14.260
41238SOL     OW25487  14.012  11.914  11.172
41238SOL    HW125488  14.064  11.940  11.248
41238SOL    HW225489  14.071  11.862  11.119
41239SOL     OW25490   6.343   5.606   1.754
41239SOL    HW125491   6.259   5.644   1.728
41239SOL    HW225492   6.398   5.681   1.775
41240SOL     OW25493   2.299   4.984   1.788
41240SOL    HW125494   2.213   4.993   1.830
41240SOL    HW225495   2.284   4.921   1.718
41241SOL     OW25496  10.254   8.204   2.960
41241SOL    HW125497  10.288   8.281   3.006
41241SOL    HW225498  10.172   8.183   3.007
41242SOL     OW25499   5.239   8.097   6.425
41242SOL    HW125500   5.260   8.166   6.362
41242SOL    HW225501   5.250   8.139   6.511
41243SOL     OW25502  11.880   0.377  14.221
41243SOL    HW125503  11.786   0.385  14.202
41243SOL    HW225504  11.923   0.392  14.137
41244SOL     OW25505   9.966   8.737  12.315
41244SOL    HW125506  10.034   8.698  12.260
41244SOL    HW225507   9.895   8.673  12.315
41245SOL     OW25508   0.651   1.041   6.611
41245SOL    HW125509   0.616   1.117   6.657
41245SOL    HW225510   0.701   1.077   6.538
41246SOL     OW25511   2.479   4.222   3.069
41246SOL    HW125512   2.487   4.128   3.052
41246SOL    HW225513   2.449   4.259   2.986
41247SOL     OW25514   9.192   2.011   4.770
41247SOL    HW125515   9.265   1.949   4.779
41247SOL    HW225516   9.199   2.067   4.847
41248SOL     OW25517   1.392   7.801   4.351
41248SOL    HW125518   1.436   7.833   4.272
41248SOL    HW225519   1.342   7.724   4.322
41249SOL     OW25520  12.195   4.849   9.692
41249SOL    HW125521  12.113   4.807   9.715
41249SOL    HW225522  12.191   4.861   9.597
41250SOL     OW25523   2.926   2.981  10.665
41250SOL    HW125524   2.885   2.958  10.748
41250SOL    HW225525   2.875   2.934  10.599
41251SOL     OW25526   2.736   8.257   2.207
41251SOL    HW125527   2.828   8.279   2.189
41251SOL    HW225528   2.686   8.312   2.145
41252SOL     OW25529   7.344  13.911   2.981
41252SOL    HW125530   7.435  13.885   2.992
41252SOL    HW225531   7.324  13.892   2.889
41253SOL     OW25532  14.582  10.258   8.954
41253SOL    HW125533  14.638  10.316   8.904
41253SOL    HW225534  14.575  10.299   9.040
41254SOL     OW25535   1.295  11.301  13.872
41254SOL    HW125536   1.279  11.393  13.849
41254SOL    HW225537   1.390  11.291  13.867
41255SOL     OW25538   5.998  13.099   2.735
41255SOL    HW125539   5.983  13.180   2.686
41255SOL    HW225540   5.989  13.125   2.827
41256SOL     OW25541   5.940   5.920   1.297
41256SOL    HW125542   5.848   5.922   1.271
41256SOL    HW225543   5.981   5.859   1.235
41257SOL     OW25544   9.457  11.738  14.532
41257SOL    HW125545   9.542  11.781  14.531
41257SOL    HW225546   9.477  11.645  14.528
41258SOL     OW25547   9.580  12.038  12.854
41258SOL    HW125548   9.622  11.951  12.852
41258SOL    HW225549   9.570  12.061  12.762
41259SOL     OW25550   8.882   3.015   6.023
41259SOL    HW125551   8.843   3.086   6.074
41259SOL    HW225552   8.870   3.042   5.932
41260SOL     OW25553  12.437   8.828  14.185
41260SOL    HW125554  12.400   8.773  14.117
41260SOL    HW225555  12.406   8.916  14.165
41261SOL     OW25556  13.572   4.412  12.393
41261SOL    HW125557  13.497   4.472  12.391
41261SOL    HW225558  13.636   4.456  12.448
41262SOL     OW25559   8.013   9.669   1.493
41262SOL    HW125560   7.959   9.728   1.442
41262SOL    HW225561   8.036   9.718   1.572
41263SOL     OW25562  11.002   3.585   3.647
41263SOL    HW125563  10.981   3.640   3.723
41263SOL    HW225564  10.981   3.640   3.571
41264SOL     OW25565   5.660   9.657  10.315
41264SOL    HW125566   5.679   9.637  10.407
41264SOL    HW225567   5.706   9.739  10.298
41265SOL     OW25568   5.199  14.707   8.062
41265SOL    HW125569   5.208  14.623   8.107
41265SOL    HW225570   5.267  14.762   8.101
41266SOL     OW25571  13.011   4.826  13.764
41266SOL    HW125572  12.963   4.750  13.730
41266SOL    HW225573  12.952   4.864  13.829
41267SOL     OW25574  14.551  12.507  11.085
41267SOL    HW125575  14.598  12.536  11.006
41267SOL    HW225576  14.604  12.541  11.157
41268SOL     OW25577   9.576   2.792   4.965
41268SOL    HW125578   9.637   2.835   4.905
41268SOL    HW225579   9.614   2.807   5.052
41269SOL     OW25580   1.888   3.228   8.294
41269SOL    HW125581   1.801   3.195   8.270
41269SOL    HW225582   1.873   3.273   8.377
41270SOL     OW25583  12.849  13.315   6.607
41270SOL    HW125584  12.906  13.360   6.544
41270SOL    HW225585  12.903  13.305   6.685
41271SOL     OW25586   5.221   3.364  12.077
41271SOL    HW125587   5.157   3.303  12.042
41271SOL    HW225588   5.245   3.419  12.002
41272SOL     OW25589  10.492  14.734   3.886
41272SOL    HW125590  10.432  14.809   3.893
41272SOL    HW225591  10.437  14.658   3.906
41273SOL     OW25592   7.976   8.921   8.879
41273SOL    HW125593   8.039   8.885   8.941
41273SOL    HW225594   8.029   8.971   8.817
41274SOL     OW25595   1.893   3.900   4.724
41274SOL    HW125596   1.922   3.809   4.732
41274SOL    HW225597   1.863   3.923   4.812
41275SOL     OW25598   6.445  10.781   6.418
41275SOL    HW125599   6.478  10.829   6.342
41275SOL    HW225600   6.464  10.838   6.492
41276SOL     OW25601   8.372   6.570   8.313
41276SOL    HW125602   8.316   6.493   8.304
41276SOL    HW225603   8.314   6.643   8.292
41277SOL     OW25604  12.396   4.259  10.251
41277SOL    HW125605  12.327   4.198  10.227
41277SOL    HW225606  12.383   4.334  10.193
41278SOL     OW25607   7.589   4.588  10.778
41278SOL    HW125608   7.594   4.646  10.703
41278SOL    HW225609   7.662   4.527  10.766
41279SOL     OW25610   2.273   6.577  14.287
41279SOL    HW125611   2.364   6.602  14.298
41279SOL    HW225612   2.224   6.658  14.299
41280SOL     OW25613   3.822   9.835   2.508
41280SOL    HW125614   3.900   9.885   2.483
41280SOL    HW225615   3.821   9.838   2.604
41281SOL     OW25616   7.247   7.076   7.080
41281SOL    HW125617   7.302   7.089   7.158
41281SOL    HW225618   7.160   7.058   7.116
41282SOL     OW25619  11.311  11.094  11.943
41282SOL    HW125620  11.406  11.086  11.934
41282SOL    HW225621  11.290  11.038  12.018
41283SOL     OW25622   6.570  13.114   1.381
41283SOL    HW125623   6.610  13.028   1.392
41283SOL    HW225624   6.632  13.175   1.423
41284SOL     OW25625  10.617   9.139   1.836
41284SOL    HW125626  10.683   9.176   1.778
41284SOL    HW225627  10.537   9.188   1.816
41285SOL     OW25628   7.487   2.346   8.875
41285SOL    HW125629   7.570   2.353   8.826
41285SOL    HW225630   7.435   2.284   8.824
41286SOL     OW25631   1.632   6.973  10.574
41286SOL    HW125632   1.690   6.977  10.499
41286SOL    HW225633   1.634   7.062  10.611
41287SOL     OW25634   4.214   2.508   0.263
41287SOL    HW125635   4.139   2.559   0.233
41287SOL    HW225636   4.207   2.425   0.216
41288SOL     OW25637   4.652  14.837  13.531
41288SOL    HW125638   4.684  14.769  13.590
41288SOL    HW225639   4.649  14.796  13.445
41289SOL     OW25640  14.018   7.854   6.207
41289SOL    HW125641  14.025   7.873   6.113
41289SOL    HW225642  13.935   7.807   6.215
41290SOL     OW25643   1.587  10.640   0.586
41290SOL    HW125644   1.540  10.649   0.669
41290SOL    HW225645   1.526  10.673   0.520
41291SOL     OW25646   1.791  13.462   6.885
41291SOL    HW125647   1.795  13.511   6.803
41291SOL    HW225648   1.785  13.371   6.858
41292SOL     OW25649   2.164  12.793   4.034
41292SOL    HW125650   2.087  12.790   3.978
41292SOL    HW225651   2.131  12.772   4.121
41293SOL     OW25652   4.183  11.494   2.870
41293SOL    HW125653   4.209  11.576   2.827
41293SOL    HW225654   4.094  11.478   2.838
41294SOL     OW25655   8.484   5.210   9.530
41294SOL    HW125656   8.428   5.173   9.599
41294SOL    HW225657   8.450   5.171   9.449
41295SOL     OW25658   5.495   5.989   4.261
41295SOL    HW125659   5.570   5.934   4.281
41295SOL    HW225660   5.457   5.951   4.181
41296SOL     OW25661   3.390  12.099   9.853
41296SOL    HW125662   3.442  12.038   9.905
41296SOL    HW225663   3.393  12.181   9.903
41297SOL     OW25664   5.014   7.837  14.076
41297SOL    HW125665   4.983   7.788  14.152
41297SOL    HW225666   4.951   7.908  14.065
41298SOL     OW25667   5.356   4.564  14.135
41298SOL    HW125668   5.315   4.647  14.109
41298SOL    HW225669   5.449   4.576  14.114
41299SOL     OW25670   1.236   3.171  10.209
41299SOL    HW125671   1.331   3.179  10.201
41299SOL    HW225672   1.214   3.095  10.155
41300SOL     OW25673  13.624   0.868   9.129
41300SOL    HW125674  13.605   0.930   9.059
41300SOL    HW225675  13.539   0.845   9.166
41301SOL     OW25676   3.712   5.164  10.802
41301SOL    HW125677   3.768   5.205  10.737
41301SOL    HW225678   3.655   5.234  10.833
41302SOL     OW25679   9.164  13.442   7.801
41302SOL    HW125680   9.175  13.348   7.793
41302SOL    HW225681   9.081  13.453   7.848
41303SOL     OW25682   4.143   4.722   7.544
41303SOL    HW125683   4.063   4.701   7.592
41303SOL    HW225684   4.168   4.809   7.576
41304SOL     OW25685  13.284  10.214   0.856
41304SOL    HW125686  13.250  10.298   0.825
41304SOL    HW225687  13.379  10.225   0.857
41305SOL     OW25688   0.836   9.161   4.966
41305SOL    HW125689   0.882   9.142   4.884
41305SOL    HW225690   0.840   9.256   4.975
41306SOL     OW25691   8.909   6.237  13.950
41306SOL    HW125692   8.924   6.298  13.877
41306SOL    HW225693   8.908   6.151  13.909
41307SOL     OW25694  10.896   3.717   6.649
41307SOL    HW125695  10.909   3.778   6.722
41307SOL    HW225696  10.984   3.698   6.617
41308SOL     OW25697   7.896   3.776   7.916
41308SOL    HW125698   7.984   3.740   7.931
41308SOL    HW225699   7.911   3.865   7.886
41309SOL     OW25700  13.175   6.260   6.036
41309SOL    HW125701  13.107   6.315   6.074
41309SOL    HW225702  13.202   6.202   6.107
41310SOL     OW25703   2.251   2.621   0.187
41310SOL    HW125704   2.268   2.712   0.211
41310SOL    HW225705   2.179   2.594   0.244
41311SOL     OW25706  10.734   9.491  11.082
41311SOL    HW125707  10.665   9.461  11.022
41311SOL    HW225708  10.687   9.538  11.151
41312SOL     OW25709   6.658   0.434   2.080
41312SOL    HW125710   6.676   0.467   2.168
41312SOL    HW225711   6.725   0.368   2.065
41313SOL     OW25712   0.716   5.978  14.727
41313SOL    HW125713   0.788   5.988  14.789
41313SOL    HW225714   0.756   5.993  14.641
41314SOL     OW25715   3.021   1.489   6.468
41314SOL    HW125716   3.083   1.415   6.467
41314SOL    HW225717   3.029   1.528   6.382
41315SOL     OW25718   7.026  10.837   9.764
41315SOL    HW125719   7.055  10.750   9.791
41315SOL    HW225720   7.105  10.879   9.731
41316SOL     OW25721   4.726  12.451  14.632
41316SOL    HW125722   4.697  12.462  14.541
41316SOL    HW225723   4.803  12.507  14.639
41317SOL     OW25724   7.799   1.051  13.440
41317SOL    HW125725   7.719   1.014  13.477
41317SOL    HW225726   7.868   0.990  13.466
41318SOL     OW25727   4.159   4.896   7.790
41318SOL    HW125728   4.136   4.973   7.842
41318SOL    HW225729   4.254   4.903   7.777
41319SOL     OW25730  10.690   5.962   8.931
41319SOL    HW125731  10.770   6.005   8.960
41319SOL    HW225732  10.721   5.886   8.882
41320SOL     OW25733  14.611   5.698   3.696
41320SOL    HW125734  14.557   5.619   3.701
41320SOL    HW225735  14.600   5.740   3.782
41321SOL     OW25736   4.782   0.940   1.341
41321SOL    HW125737   4.776   0.867   1.279
41321SOL    HW225738   4.695   0.979   1.341
41322SOL     OW25739   7.961   5.406   1.627
41322SOL    HW125740   8.051   5.418   1.656
41322SOL    HW225741   7.909   5.413   1.707
41323SOL     OW25742   8.781   4.284  10.896
41323SOL    HW125743   8.707   4.241  10.854
41323SOL    HW225744   8.756   4.376  10.901
41324SOL     OW25745  12.246   9.325   4.311
41324SOL    HW125746  12.341   9.320   4.312
41324SOL    HW225747  12.226   9.402   4.257
41325SOL     OW25748   3.527   3.861  13.112
41325SOL    HW125749   3.583   3.921  13.162
41325SOL    HW225750   3.566   3.775  13.125
41326SOL     OW25751   7.453  14.377   3.622
41326SOL    HW125752   7.438  14.422   3.705
41326SOL    HW225753   7.453  14.446   3.556
41327SOL     OW25754  13.228   2.430  11.670
41327SOL    HW125755  13.255   2.496  11.606
41327SOL    HW225756  13.146   2.395  11.635
41328SOL     OW25757   8.744  14.124   3.922
41328SOL    HW125758   8.755  14.071   3.843
41328SOL    HW225759   8.765  14.213   3.895
41329SOL     OW25760   0.795   9.502   8.328
41329SOL    HW125761   0.738   9.447   8.275
41329SOL    HW225762   0.884   9.481   8.298
41330SOL     OW25763   6.350   9.932   7.052
41330SOL    HW125764   6.306   9.956   7.133
41330SOL    HW225765   6.419   9.998   7.042
41331SOL     OW25766   5.768   4.460   0.859
41331SOL    HW125767   5.779   4.432   0.950
41331SOL    HW225768   5.830   4.532   0.848
41332SOL     OW25769   6.891   7.276   1.664
41332SOL    HW125770   6.963   7.219   1.689
41332SOL    HW225771   6.877   7.258   1.571
41333SOL     OW25772  13.466   2.415   4.306
41333SOL    HW125773  13.529   2.344   4.305
41333SOL    HW225774  13.421   2.406   4.389
41334SOL     OW25775  14.758   8.220   0.756
41334SOL    HW125776  14.695   8.292   0.758
41334SOL    HW225777  14.814   8.240   0.681
41335SOL     OW25778  14.603   4.804  10.353
41335SOL    HW125779  14.621   4.710  10.350
41335SOL    HW225780  14.620   4.834  10.264
41336SOL     OW25781   0.780  14.534  12.467
41336SOL    HW125782   0.720  14.476  12.514
41336SOL    HW225783   0.729  14.613  12.449
41337SOL     OW25784  10.686   9.023   0.426
41337SOL    HW125785  10.753   9.076   0.382
41337SOL    HW225786  10.604   9.048   0.383
41338SOL     OW25787   5.154  14.303  13.990
41338SOL    HW125788   5.194  14.305  13.903
41338SOL    HW225789   5.081  14.242  13.981
41339SOL     OW25790  12.880   3.958  12.223
41339SOL    HW125791  12.926   3.883  12.185
41339SOL    HW225792  12.915   4.034  12.176
41340SOL     OW25793  13.302  10.587   3.414
41340SOL    HW125794  13.239  10.525   3.451
41340SOL    HW225795  13.342  10.541   3.341
41341SOL     OW25796  11.585   1.293   3.481
41341SOL    HW125797  11.668   1.280   3.527
41341SOL    HW225798  11.566   1.208   3.440
41342SOL     OW25799   6.933   5.518   9.236
41342SOL    HW125800   6.952   5.546   9.146
41342SOL    HW225801   6.839   5.535   9.247
41343SOL     OW25802  13.457   3.248   8.735
41343SOL    HW125803  13.406   3.307   8.790
41343SOL    HW225804  13.419   3.258   8.647
41344SOL     OW25805  14.632  13.307   6.070
41344SOL    HW125806  14.562  13.263   6.118
41344SOL    HW225807  14.664  13.374   6.131
41345SOL     OW25808   4.065   8.096   8.275
41345SOL    HW125809   4.088   8.160   8.208
41345SOL    HW225810   4.118   8.120   8.351
41346SOL     OW25811  11.512   2.021   6.308
41346SOL    HW125812  11.515   2.080   6.233
41346SOL    HW225813  11.450   1.953   6.283
41347SOL     OW25814  12.125   7.693  11.004
41347SOL    HW125815  12.217   7.671  10.992
41347SOL    HW225816  12.094   7.633  11.071
41348SOL     OW25817  14.781  11.593   6.851
41348SOL    HW125818  14.739  11.557   6.929
41348SOL    HW225819  14.844  11.526   6.825
41349SOL     OW25820  12.490   9.345   2.861
41349SOL    HW125821  12.545   9.422   2.846
41349SOL    HW225822  12.464   9.317   2.773
41350SOL     OW25823   3.905  10.636  11.443
41350SOL    HW125824   3.842  10.612  11.510
41350SOL    HW225825   3.851  10.676  11.374
41351SOL     OW25826   8.718   8.556   5.835
41351SOL    HW125827   8.789   8.525   5.891
41351SOL    HW225828   8.763   8.596   5.760
41352SOL     OW25829   7.079  10.480  10.397
41352SOL    HW125830   7.084  10.394  10.439
41352SOL    HW225831   7.069  10.542  10.470
41353SOL     OW25832   4.532   8.548   4.591
41353SOL    HW125833   4.547   8.481   4.525
41353SOL    HW225834   4.601   8.612   4.577
41354SOL     OW25835   8.219   1.614  11.042
41354SOL    HW125836   8.265   1.697  11.037
41354SOL    HW225837   8.127   1.638  11.058
41355SOL     OW25838   5.942   7.352   4.905
41355SOL    HW125839   5.856   7.378   4.872
41355SOL    HW225840   5.970   7.426   4.959
41356SOL     OW25841   4.850  10.700   4.846
41356SOL    HW125842   4.934  10.697   4.800
41356SOL    HW225843   4.813  10.613   4.834
41357SOL     OW25844  11.236   4.498  12.659
41357SOL    HW125845  11.168   4.440  12.692
41357SOL    HW225846  11.223   4.498  12.564
41358SOL     OW25847   7.699   4.511  13.168
41358SOL    HW125848   7.696   4.426  13.212
41358SOL    HW225849   7.660   4.572  13.231
41359SOL     OW25850   4.865  11.662  13.137
41359SOL    HW125851   4.791  11.631  13.085
41359SOL    HW225852   4.904  11.583  13.174
41360SOL     OW25853  10.278   4.812   0.640
41360SOL    HW125854  10.211   4.747   0.622
41360SOL    HW225855  10.238   4.872   0.704
41361SOL     OW25856  11.302   8.483  13.163
41361SOL    HW125857  11.252   8.559  13.132
41361SOL    HW225858  11.364   8.466  13.092
41362SOL     OW25859  12.992   8.977   3.481
41362SOL    HW125860  13.069   9.011   3.437
41362SOL    HW225861  12.918   9.011   3.429
41363SOL     OW25862   5.675  10.345   5.714
41363SOL    HW125863   5.625  10.272   5.750
41363SOL    HW225864   5.752  10.351   5.771
41364SOL     OW25865  14.378  10.173   4.195
41364SOL    HW125866  14.360  10.246   4.254
41364SOL    HW225867  14.440  10.208   4.131
41365SOL     OW25868   3.329   6.946   0.708
41365SOL    HW125869   3.350   6.875   0.647
41365SOL    HW225870   3.233   6.954   0.704
41366SOL     OW25871  13.903   1.742  14.838
41366SOL    HW125872  13.979   1.772  14.789
41366SOL    HW225873  13.828   1.755  14.779
41367SOL     OW25874   8.533   1.112   8.860
41367SOL    HW125875   8.583   1.037   8.892
41367SOL    HW225876   8.589   1.188   8.878
41368SOL     OW25877  12.411   5.890  12.011
41368SOL    HW125878  12.364   5.908  11.929
41368SOL    HW225879  12.345   5.850  12.068
41369SOL     OW25880  13.347   8.754   9.118
41369SOL    HW125881  13.295   8.677   9.142
41369SOL    HW225882  13.317   8.822   9.179
41370SOL     OW25883  12.064   0.868  11.858
41370SOL    HW125884  12.157   0.886  11.842
41370SOL    HW225885  12.039   0.928  11.928
41371SOL     OW25886   6.207   7.661  11.192
41371SOL    HW125887   6.204   7.608  11.272
41371SOL    HW225888   6.198   7.597  11.121
41372SOL     OW25889   7.467  12.551  11.214
41372SOL    HW125890   7.389  12.526  11.165
41372SOL    HW225891   7.509  12.618  11.160
41373SOL     OW25892   6.160  12.625  13.497
41373SOL    HW125893   6.069  12.620  13.466
41373SOL    HW225894   6.155  12.676  13.578
41374SOL     OW25895   8.053   5.804   7.360
41374SOL    HW125896   8.042   5.741   7.288
41374SOL    HW225897   8.136   5.847   7.342
41375SOL     OW25898   0.279   7.203   6.690
41375SOL    HW125899   0.267   7.298   6.696
41375SOL    HW225900   0.298   7.186   6.598
41376SOL     OW25901  14.124   2.199   4.772
41376SOL    HW125902  14.039   2.242   4.767
41376SOL    HW225903  14.125   2.157   4.858
41377SOL     OW25904   7.124  12.750  11.107
41377SOL    HW125905   7.044  12.789  11.073
41377SOL    HW225906   7.194  12.792  11.057
41378SOL     OW25907   2.209  13.398  11.317
41378SOL    HW125908   2.148  13.379  11.388
41378SOL    HW225909   2.284  13.340  11.334
41379SOL     OW25910   1.279   7.334   5.455
41379SOL    HW125911   1.357   7.279   5.462
41379SOL    HW225912   1.206   7.273   5.451
41380SOL     OW25913   1.863   5.056  13.878
41380SOL    HW125914   1.944   5.006  13.884
41380SOL    HW225915   1.877   5.116  13.805
41381SOL     OW25916   8.066  11.202   1.914
41381SOL    HW125917   8.048  11.189   2.007
41381SOL    HW225918   8.091  11.115   1.882
41382SOL     OW25919  11.141   2.337   9.572
41382SOL    HW125920  11.121   2.245   9.590
41382SOL    HW225921  11.057   2.374   9.541
41383SOL     OW25922   9.691   3.599   1.224
41383SOL    HW125923   9.661   3.663   1.160
41383SOL    HW225924   9.784   3.589   1.207
41384SOL     OW25925  14.065  10.683  13.980
41384SOL    HW125926  14.112  10.701  13.899
41384SOL    HW225927  13.980  10.727  13.970
41385SOL     OW25928   6.511   0.666   5.715
41385SOL    HW125929   6.606   0.665   5.708
41385SOL    HW225930   6.482   0.735   5.656
41386SOL     OW25931   1.583  14.480   1.673
41386SOL    HW125932   1.667  14.463   1.716
41386SOL    HW225933   1.521  14.491   1.745
41387SOL     OW25934  14.668   9.859   9.237
41387SOL    HW125935  14.677   9.922   9.165
41387SOL    HW225936  14.659   9.912   9.315
41388SOL     OW25937   3.498  11.775   3.353
41388SOL    HW125938   3.515  11.849   3.411
41388SOL    HW225939   3.435  11.808   3.289
41389SOL     OW25940   3.624   2.008  10.522
41389SOL    HW125941   3.583   1.941  10.468
41389SOL    HW225942   3.696   2.042  10.468
41390SOL     OW25943   6.806  12.817   0.331
41390SOL    HW125944   6.776  12.863   0.254
41390SOL    HW225945   6.901  12.819   0.325
41391SOL     OW25946   1.207   5.426   5.867
41391SOL    HW125947   1.216   5.415   5.772
41391SOL    HW225948   1.188   5.520   5.878
41392SOL     OW25949   2.279   7.855  14.153
41392SOL    HW125950   2.255   7.941  14.189
41392SOL    HW225951   2.351   7.825  14.209
41393SOL     OW25952   2.309  11.375   2.878
41393SOL    HW125953   2.354  11.421   2.807
41393SOL    HW225954   2.243  11.436   2.908
41394SOL     OW25955   2.826   8.007   9.480
41394SOL    HW125956   2.839   8.064   9.404
41394SOL    HW225957   2.832   8.065   9.556
41395SOL     OW25958   1.557  10.798  13.280
41395SOL    HW125959   1.521  10.733  13.219
41395SOL    HW225960   1.640  10.760  13.309
41396SOL     OW25961   3.431  13.266  11.589
41396SOL    HW125962   3.372  13.313  11.530
41396SOL    HW225963   3.378  13.196  11.626
41397SOL     OW25964   8.244   4.415  14.503
41397SOL    HW125965   8.311   4.397  14.436
41397SOL    HW225966   8.215   4.328  14.531
41398SOL     OW25967   9.810   3.794  13.050
41398SOL    HW125968   9.877   3.860  13.067
41398SOL    HW225969   9.848   3.712  13.081
41399SOL     OW25970   4.836   0.667   5.350
41399SOL    HW125971   4.799   0.708   5.272
41399SOL    HW225972   4.930   0.675   5.339
41400SOL     OW25973  12.328  12.344   5.792
41400SOL    HW125974  12.402  12.349   5.853
41400SOL    HW225975  12.300  12.253   5.795
41401SOL     OW25976  10.682   1.311   7.506
41401SOL    HW125977  10.610   1.278   7.453
41401SOL    HW225978  10.759   1.302   7.449
41402SOL     OW25979   1.656   0.046  11.023
41402SOL    HW125980   1.680   0.052  10.930
41402SOL    HW225981   1.562   0.027  11.022
41403SOL     OW25982  14.819  11.765  10.957
41403SOL    HW125983  14.761  11.808  10.893
41403SOL    HW225984  14.842  11.681  10.916
41404SOL     OW25985   3.219   7.200   1.676
41404SOL    HW125986   3.214   7.235   1.765
41404SOL    HW225987   3.184   7.112   1.683
41405SOL     OW25988  14.216   7.868   3.282
41405SOL    HW125989  14.275   7.939   3.261
41405SOL    HW225990  14.227   7.805   3.210
41406SOL     OW25991   2.922   7.340   6.219
41406SOL    HW125992   2.989   7.328   6.286
41406SOL    HW225993   2.841   7.308   6.260
41407SOL     OW25994   2.299   5.770   5.278
41407SOL    HW125995   2.338   5.856   5.294
41407SOL    HW225996   2.345   5.712   5.338
41408SOL     OW25997   6.443  10.065   7.871
41408SOL    HW125998   6.442  10.078   7.965
41408SOL    HW225999   6.397   9.982   7.857
41409SOL     OW26000   0.586   3.979   0.634
41409SOL    HW126001   0.546   3.977   0.547
41409SOL    HW226002   0.514   3.999   0.693
41410SOL     OW26003   5.300   1.010   9.131
41410SOL    HW126004   5.239   0.971   9.069
41410SOL    HW226005   5.368   0.943   9.144
41411SOL     OW26006   5.557   3.325   9.089
41411SOL    HW126007   5.466   3.296   9.094
41411SOL    HW226008   5.554   3.403   9.032
41412SOL     OW26009  11.289   3.132  11.484
41412SOL    HW126010  11.284   3.037  11.491
41412SOL    HW226011  11.210   3.157  11.437
41413SOL     OW26012   7.826  11.484   0.408
41413SOL    HW126013   7.886  11.410   0.420
41413SOL    HW226014   7.827  11.499   0.313
41414SOL     OW26015   2.280   4.129   0.842
41414SOL    HW126016   2.269   4.219   0.813
41414SOL    HW226017   2.295   4.079   0.762
41415SOL     OW26018   2.114   3.184   1.468
41415SOL    HW126019   2.142   3.100   1.433
41415SOL    HW226020   2.020   3.174   1.484
41416SOL     OW26021   9.047   2.447  10.031
41416SOL    HW126022   9.076   2.382   9.967
41416SOL    HW226023   8.980   2.402  10.083
41417SOL     OW26024   6.746  14.073  11.957
41417SOL    HW126025   6.816  14.066  11.892
41417SOL    HW226026   6.670  14.103  11.908
41418SOL     OW26027   0.769   4.797  11.639
41418SOL    HW126028   0.684   4.840  11.631
41418SOL    HW226029   0.748   4.703  11.641
41419SOL     OW26030   7.547   2.917  11.366
41419SOL    HW126031   7.608   2.988  11.384
41419SOL    HW226032   7.464   2.946  11.404
41420SOL     OW26033   9.976   5.060   5.289
41420SOL    HW126034  10.070   5.062   5.276
41420SOL    HW226035   9.940   5.043   5.202
41421SOL     OW26036  14.110   4.236  14.400
41421SOL    HW126037  14.137   4.168  14.338
41421SOL    HW226038  14.192   4.266  14.439
41422SOL     OW26039   2.032   6.795   1.771
41422SOL    HW126040   2.085   6.821   1.846
41422SOL    HW226041   1.968   6.865   1.760
41423SOL     OW26042   9.123   2.265   2.103
41423SOL    HW126043   9.215   2.247   2.119
41423SOL    HW226044   9.114   2.360   2.114
41424SOL     OW26045   3.057   2.876  14.494
41424SOL    HW126046   3.090   2.965  14.482
41424SOL    HW226047   2.965   2.882  14.469
41425SOL     OW26048   5.345   1.755  11.469
41425SOL    HW126049   5.351   1.731  11.562
41425SOL    HW226050   5.406   1.829  11.460
41426SOL     OW26051   8.940   2.465   4.717
41426SOL    HW126052   8.910   2.538   4.771
41426SOL    HW226053   8.997   2.414   4.775
41427SOL     OW26054   4.577   6.792  13.015
41427SOL    HW126055   4.548   6.825  12.930
41427SOL    HW226056   4.655   6.844  13.036
41428SOL     OW26057  14.714   5.571   8.379
41428SOL    HW126058  14.626   5.537   8.394
41428SOL    HW226059  14.755   5.507   8.321
41429SOL     OW26060   1.837   6.596   6.689
41429SOL    HW126061   1.745   6.621   6.690
41429SOL    HW226062   1.839   6.512   6.644
41430SOL     OW26063  10.699  13.094   9.242
41430SOL    HW126064  10.664  13.118   9.328
41430SOL    HW226065  10.664  13.160   9.183
41431SOL     OW26066   2.205  11.789  13.813
41431SOL    HW126067   2.263  11.714  13.821
41431SOL    HW226068   2.255  11.854  13.764
41432SOL     OW26069   9.536  11.629   5.626
41432SOL    HW126070   9.484  11.676   5.691
41432SOL    HW226071   9.487  11.639   5.545
41433SOL     OW26072   9.755  12.454   4.946
41433SOL    HW126073   9.810  12.411   4.881
41433SOL    HW226074   9.667  12.450   4.908
41434SOL     OW26075   3.002   1.173  14.225
41434SOL    HW126076   2.967   1.254  14.263
41434SOL    HW226077   3.094   1.173  14.249
41435SOL     OW26078   7.692   2.677  14.372
41435SOL    HW126079   7.704   2.599  14.426
41435SOL    HW226080   7.626   2.652  14.307
41436SOL     OW26081  10.566  14.809  13.313
41436SOL    HW126082  10.638  14.746  13.312
41436SOL    HW226083  10.500  14.770  13.256
41437SOL     OW26084  14.844   9.221   3.140
41437SOL    HW126085   0.042   9.250   3.191
41437SOL    HW226086  14.867   9.132   3.113
41438SOL     OW26087   0.452   9.820   9.375
41438SOL    HW126088   0.440   9.803   9.469
41438SOL    HW226089   0.500   9.903   9.372
41439SOL     OW26090   0.279   4.904   2.525
41439SOL    HW126091   0.324   4.821   2.510
41439SOL    HW226092   0.305   4.929   2.614
41440SOL     OW26093   3.368  12.551   8.485
41440SOL    HW126094   3.345  12.628   8.432
41440SOL    HW226095   3.293  12.537   8.542
41441SOL     OW26096  10.055   6.144  12.007
41441SOL    HW126097  10.082   6.214  11.947
41441SOL    HW226098   9.966   6.122  11.978
41442SOL     OW26099   4.683  12.489  14.063
41442SOL    HW126100   4.674  12.447  13.978
41442SOL    HW226101   4.615  12.557  14.063
41443SOL     OW26102  10.707  12.175   5.722
41443SOL    HW126103  10.647  12.175   5.648
41443SOL    HW226104  10.780  12.230   5.695
41444SOL     OW26105   5.883   9.595   2.400
41444SOL    HW126106   5.917   9.669   2.450
41444SOL    HW226107   5.792   9.619   2.382
41445SOL     OW26108   4.058   0.967   2.827
41445SOL    HW126109   3.989   0.998   2.769
41445SOL    HW226110   4.138   1.007   2.793
41446SOL     OW26111  13.331  11.899  13.934
41446SOL    HW126112  13.286  11.977  13.904
41446SOL    HW226113  13.358  11.854  13.855
41447SOL     OW26114   8.298   0.217   6.014
41447SOL    HW126115   8.276   0.289   5.955
41447SOL    HW226116   8.345   0.154   5.959
41448SOL     OW26117   2.869   5.298   0.674
41448SOL    HW126118   2.958   5.315   0.643
41448SOL    HW226119   2.842   5.380   0.716
41449SOL     OW26120  14.358  12.717   6.983
41449SOL    HW126121  14.327  12.649   7.042
41449SOL    HW226122  14.425  12.674   6.930
41450SOL     OW26123   8.586  12.885   7.503
41450SOL    HW126124   8.537  12.806   7.526
41450SOL    HW226125   8.646  12.857   7.433
41451SOL     OW26126   3.691   8.062   8.882
41451SOL    HW126127   3.650   8.136   8.927
41451SOL    HW226128   3.783   8.087   8.873
41452SOL     OW26129  13.324   7.325  13.094
41452SOL    HW126130  13.330   7.255  13.159
41452SOL    HW226131  13.368   7.290  13.017
41453SOL     OW26132   0.261  13.476  14.866
41453SOL    HW126133   0.320  13.466   0.063
41453SOL    HW226134   0.205  13.550   0.012
41454SOL     OW26135   8.866   0.939   2.246
41454SOL    HW126136   8.905   1.004   2.304
41454SOL    HW226137   8.802   0.989   2.194
41455SOL     OW26138   5.968  11.935   8.145
41455SOL    HW126139   6.025  12.007   8.121
41455SOL    HW226140   6.020  11.856   8.128
41456SOL     OW26141   8.113  11.882  10.191
41456SOL    HW126142   8.167  11.859  10.266
41456SOL    HW226143   8.152  11.963  10.157
41457SOL     OW26144   5.579  13.649  14.626
41457SOL    HW126145   5.501  13.690  14.588
41457SOL    HW226146   5.563  13.651  14.720
41458SOL     OW26147   3.515  10.505   3.835
41458SOL    HW126148   3.438  10.532   3.784
41458SOL    HW226149   3.571  10.461   3.772
41459SOL     OW26150  12.592   3.224   1.669
41459SOL    HW126151  12.523   3.213   1.603
41459SOL    HW226152  12.647   3.295   1.635
41460SOL     OW26153   5.730   5.671   4.705
41460SOL    HW126154   5.678   5.732   4.758
41460SOL    HW226155   5.671   5.642   4.636
41461SOL     OW26156  12.070   9.642   0.011
41461SOL    HW126157  11.975   9.633   0.021
41461SOL    HW226158  12.106   9.618   0.097
41462SOL     OW26159   4.444  11.959   8.948
41462SOL    HW126160   4.527  11.975   8.902
41462SOL    HW226161   4.387  11.921   8.882
41463SOL     OW26162   2.955  13.853   2.290
41463SOL    HW126163   2.932  13.846   2.383
41463SOL    HW226164   3.018  13.925   2.287
41464SOL     OW26165  10.117  12.113   1.711
41464SOL    HW126166  10.133  12.055   1.785
41464SOL    HW226167  10.142  12.062   1.634
41465SOL     OW26168  12.195   5.819  12.153
41465SOL    HW126169  12.125   5.851  12.096
41465SOL    HW226170  12.150   5.797  12.235
41466SOL     OW26171  12.230   5.322   2.681
41466SOL    HW126172  12.214   5.286   2.769
41466SOL    HW226173  12.171   5.273   2.624
41467SOL     OW26174   0.652   4.311  12.383
41467SOL    HW126175   0.671   4.388  12.330
41467SOL    HW226176   0.738   4.282  12.416
41468SOL     OW26177   8.793   3.285   4.791
41468SOL    HW126178   8.839   3.351   4.739
41468SOL    HW226179   8.724   3.333   4.836
41469SOL     OW26180   9.869  11.215   9.147
41469SOL    HW126181   9.873  11.238   9.054
41469SOL    HW226182   9.844  11.122   9.147
41470SOL     OW26183   7.528   4.785   8.535
41470SOL    HW126184   7.447   4.752   8.574
41470SOL    HW226185   7.508   4.875   8.510
41471SOL     OW26186  11.503  12.355   6.845
41471SOL    HW126187  11.524  12.433   6.794
41471SOL    HW226188  11.581  12.300   6.836
41472SOL     OW26189   3.315  13.384   8.193
41472SOL    HW126190   3.344  13.293   8.183
41472SOL    HW226191   3.312  13.398   8.287
41473SOL     OW26192  12.982  12.744   6.489
41473SOL    HW126193  13.027  12.827   6.506
41473SOL    HW226194  12.890  12.769   6.478
41474SOL     OW26195   2.584   3.840   0.706
41474SOL    HW126196   2.505   3.795   0.678
41474SOL    HW226197   2.655   3.778   0.688
41475SOL     OW26198   6.643   7.040   4.494
41475SOL    HW126199   6.566   7.061   4.441
41475SOL    HW226200   6.712   7.022   4.430
41476SOL     OW26201   0.656   0.404  12.019
41476SOL    HW126202   0.730   0.397  12.080
41476SOL    HW226203   0.627   0.495  12.026
41477SOL     OW26204   2.240   7.127   2.500
41477SOL    HW126205   2.299   7.056   2.475
41477SOL    HW226206   2.231   7.180   2.420
41478SOL     OW26207  13.677   1.555   7.779
41478SOL    HW126208  13.772   1.569   7.775
41478SOL    HW226209  13.653   1.574   7.870
41479SOL     OW26210   9.428   6.273   3.705
41479SOL    HW126211   9.485   6.292   3.630
41479SOL    HW226212   9.444   6.181   3.725
41480SOL     OW26213  13.965   1.949   3.581
41480SOL    HW126214  14.057   1.924   3.571
41480SOL    HW226215  13.921   1.867   3.605
41481SOL     OW26216   6.410   4.556  14.408
41481SOL    HW126217   6.318   4.576  14.422
41481SOL    HW226218   6.448   4.555  14.496
41482SOL     OW26219   3.207   4.816   3.626
41482SOL    HW126220   3.176   4.803   3.536
41482SOL    HW226221   3.130   4.847   3.674
41483SOL     OW26222   5.899   3.360  13.124
41483SOL    HW126223   5.905   3.278  13.075
41483SOL    HW226224   5.971   3.356  13.187
41484SOL     OW26225  13.189  10.379   0.120
41484SOL    HW126226  13.115  10.357   0.064
41484SOL    HW226227  13.185  10.316   0.192
41485SOL     OW26228   4.830   6.686   4.844
41485SOL    HW126229   4.807   6.600   4.879
41485SOL    HW226230   4.918   6.702   4.877
41486SOL     OW26231   9.863   4.927   8.161
41486SOL    HW126232   9.882   4.835   8.178
41486SOL    HW226233   9.768   4.930   8.150
41487SOL     OW26234   3.079   4.116   1.436
41487SOL    HW126235   2.995   4.139   1.475
41487SOL    HW226236   3.142   4.171   1.483
41488SOL     OW26237   2.812   2.837   8.679
41488SOL    HW126238   2.807   2.786   8.760
41488SOL    HW226239   2.722   2.862   8.661
41489SOL     OW26240   2.584  13.336   3.117
41489SOL    HW126241   2.617  13.293   3.196
41489SOL    HW226242   2.601  13.273   3.047
41490SOL     OW26243   5.301   9.122   4.007
41490SOL    HW126244   5.369   9.178   4.045
41490SOL    HW226245   5.332   9.101   3.919
41491SOL     OW26246   3.209   6.340   5.700
41491SOL    HW126247   3.201   6.326   5.794
41491SOL    HW226248   3.283   6.400   5.691
41492SOL     OW26249  11.791   8.859   7.619
41492SOL    HW126250  11.759   8.819   7.700
41492SOL    HW226251  11.711   8.890   7.575
41493SOL     OW26252   6.192   0.674   7.654
41493SOL    HW126253   6.165   0.618   7.582
41493SOL    HW226254   6.188   0.619   7.732
41494SOL     OW26255  13.471  11.192   3.779
41494SOL    HW126256  13.491  11.152   3.695
41494SOL    HW226257  13.377  11.178   3.791
41495SOL     OW26258  14.258  14.452   7.198
41495SOL    HW126259  14.282  14.476   7.287
41495SOL    HW226260  14.163  14.463   7.195
41496SOL     OW26261   8.290  12.321   8.119
41496SOL    HW126262   8.210  12.276   8.090
41496SOL    HW226263   8.259  12.394   8.172
41497SOL     OW26264   8.305   7.827   5.141
41497SOL    HW126265   8.318   7.775   5.062
41497SOL    HW226266   8.216   7.806   5.170
41498SOL     OW26267   3.482  14.357  11.823
41498SOL    HW126268   3.528  14.315  11.896
41498SOL    HW226269   3.461  14.285  11.763
41499SOL     OW26270  11.308   1.567   3.973
41499SOL    HW126271  11.256   1.617   4.037
41499SOL    HW226272  11.311   1.478   4.009
41500SOL     OW26273  13.225  13.057  11.041
41500SOL    HW126274  13.166  13.055  11.117
41500SOL    HW226275  13.222  13.148  11.011
41501SOL     OW26276   3.941   4.166   0.170
41501SOL    HW126277   3.920   4.126   0.254
41501SOL    HW226278   3.908   4.256   0.177
41502SOL     OW26279   0.592   6.755   6.738
41502SOL    HW126280   0.513   6.730   6.786
41502SOL    HW226281   0.563   6.824   6.679
41503SOL     OW26282   6.136   5.826   2.323
41503SOL    HW126283   6.227   5.856   2.316
41503SOL    HW226284   6.121   5.816   2.417
41504SOL     OW26285   6.019   2.906   8.116
41504SOL    HW126286   6.053   2.945   8.036
41504SOL    HW226287   5.995   2.817   8.092
41505SOL     OW26288  11.480  14.111  11.867
41505SOL    HW126289  11.395  14.067  11.879
41505SOL    HW226290  11.507  14.087  11.778
41506SOL     OW26291  11.165   9.826   8.127
41506SOL    HW126292  11.243   9.810   8.072
41506SOL    HW226293  11.200   9.832   8.216
41507SOL     OW26294   2.116  11.441  11.237
41507SOL    HW126295   2.037  11.392  11.259
41507SOL    HW226296   2.084  11.516  11.186
41508SOL     OW26297   9.389  14.362  12.151
41508SOL    HW126298   9.433  14.301  12.211
41508SOL    HW226299   9.457  14.424  12.126
41509SOL     OW26300   6.101   1.048   6.266
41509SOL    HW126301   6.072   1.126   6.219
41509SOL    HW226302   6.036   1.036   6.335
41510SOL     OW26303   1.545  11.069   8.121
41510SOL    HW126304   1.629  11.053   8.078
41510SOL    HW226305   1.485  11.005   8.081
41511SOL     OW26306  10.761   2.242   4.537
41511SOL    HW126307  10.756   2.250   4.442
41511SOL    HW226308  10.745   2.331   4.569
41512SOL     OW26309   5.183  10.996   0.564
41512SOL    HW126310   5.237  11.072   0.543
41512SOL    HW226311   5.095  11.032   0.577
41513SOL     OW26312  11.919   9.675   7.891
41513SOL    HW126313  11.983   9.605   7.904
41513SOL    HW226314  11.909   9.681   7.796
41514SOL     OW26315   0.254  12.823  12.229
41514SOL    HW126316   0.303  12.746  12.201
41514SOL    HW226317   0.175  12.823  12.175
41515SOL     OW26318   2.661   3.530  10.758
41515SOL    HW126319   2.645   3.455  10.701
41515SOL    HW226320   2.754   3.522  10.781
41516SOL     OW26321   8.582   5.029   5.118
41516SOL    HW126322   8.633   5.004   5.041
41516SOL    HW226323   8.627   4.987   5.191
41517SOL     OW26324  13.164  14.552  14.734
41517SOL    HW126325  13.125  14.481  14.787
41517SOL    HW226326  13.142  14.529  14.644
41518SOL     OW26327  14.802   9.206   4.188
41518SOL    HW126328  14.810   9.302   4.188
41518SOL    HW226329  14.707   9.190   4.195
41519SOL     OW26330   3.194   3.792   2.640
41519SOL    HW126331   3.244   3.711   2.641
41519SOL    HW226332   3.155   3.797   2.727
41520SOL     OW26333   3.917  14.876   3.869
41520SOL    HW126334   3.842   0.041   3.911
41520SOL    HW226335   3.951  14.816   3.935
41521SOL     OW26336   3.298   5.371   6.944
41521SOL    HW126337   3.356   5.347   6.872
41521SOL    HW226338   3.311   5.301   7.009
41522SOL     OW26339   0.443  13.105  12.768
41522SOL    HW126340   0.518  13.153  12.803
41522SOL    HW226341   0.403  13.166  12.706
41523SOL     OW26342   6.458   5.822   0.100
41523SOL    HW126343   6.388   5.840   0.163
41523SOL    HW226344   6.492   5.908   0.077
41524SOL     OW26345   5.331   2.372  14.431
41524SOL    HW126346   5.273   2.347  14.503
41524SOL    HW226347   5.415   2.392  14.473
41525SOL     OW26348  10.305   9.194  14.089
41525SOL    HW126349  10.396   9.222  14.086
41525SOL    HW226350  10.303   9.113  14.036
41526SOL     OW26351   0.599   0.809   9.907
41526SOL    HW126352   0.578   0.883   9.964
41526SOL    HW226353   0.539   0.819   9.833
41527SOL     OW26354  12.473   9.903   1.205
41527SOL    HW126355  12.443   9.927   1.117
41527SOL    HW226356  12.568   9.916   1.202
41528SOL     OW26357   8.365   3.004   0.358
41528SOL    HW126358   8.286   3.011   0.412
41528SOL    HW226359   8.421   2.943   0.404
41529SOL     OW26360  11.060  13.098  13.904
41529SOL    HW126361  10.986  13.153  13.878
41529SOL    HW226362  11.021  13.032  13.962
41530SOL     OW26363   5.706   9.790  14.060
41530SOL    HW126364   5.615   9.766  14.042
41530SOL    HW226365   5.757   9.739  13.998
41531SOL     OW26366  14.031   5.991   4.072
41531SOL    HW126367  14.025   5.896   4.082
41531SOL    HW226368  14.099   6.018   4.133
41532SOL     OW26369   8.917   2.563   0.644
41532SOL    HW126370   8.881   2.476   0.658
41532SOL    HW226371   8.937   2.596   0.731
41533SOL     OW26372   6.775   6.883  13.858
41533SOL    HW126373   6.800   6.838  13.778
41533SOL    HW226374   6.848   6.943  13.875
41534SOL     OW26375  14.660   6.072   8.900
41534SOL    HW126376  14.700   6.080   8.987
41534SOL    HW226377  14.732   6.044   8.843
41535SOL     OW26378  11.676   1.025   8.123
41535SOL    HW126379  11.605   0.994   8.067
41535SOL    HW226380  11.699   0.950   8.177
41536SOL     OW26381  13.362   6.878   0.923
41536SOL    HW126382  13.370   6.784   0.903
41536SOL    HW226383  13.446   6.916   0.896
41537SOL     OW26384  14.446   5.781   1.302
41537SOL    HW126385  14.446   5.732   1.385
41537SOL    HW226386  14.365   5.831   1.303
41538SOL     OW26387  13.619   2.569   3.622
41538SOL    HW126388  13.676   2.631   3.577
41538SOL    HW226389  13.661   2.484   3.612
41539SOL     OW26390   1.899   7.369   7.369
41539SOL    HW126391   1.941   7.443   7.412
41539SOL    HW226392   1.829   7.408   7.317
41540SOL     OW26393   3.444  11.270   5.921
41540SOL    HW126394   3.410  11.183   5.896
41540SOL    HW226395   3.449  11.267   6.016
41541SOL     OW26396   2.308   9.607   5.344
41541SOL    HW126397   2.354   9.689   5.324
41541SOL    HW226398   2.224   9.615   5.300
41542SOL     OW26399  10.667  13.174   9.546
41542SOL    HW126400  10.661  13.149   9.638
41542SOL    HW226401  10.637  13.265   9.544
41543SOL     OW26402   6.707   6.012   8.011
41543SOL    HW126403   6.632   6.016   7.951
41543SOL    HW226404   6.668   6.028   8.097
41544SOL     OW26405   4.375   8.781   2.984
41544SOL    HW126406   4.319   8.736   3.048
41544SOL    HW226407   4.314   8.833   2.931
41545SOL     OW26408   8.903  10.516  11.832
41545SOL    HW126409   8.954  10.516  11.751
41545SOL    HW226410   8.937  10.443  11.882
41546SOL     OW26411   9.943   6.650  14.851
41546SOL    HW126412   9.997   6.636  14.773
41546SOL    HW226413   9.978   6.730   0.013
41547SOL     OW26414   4.290  11.202   0.080
41547SOL    HW126415   4.215  11.218   0.023
41547SOL    HW226416   4.363  11.189   0.020
41548SOL     OW26417  12.198   7.081   6.552
41548SOL    HW126418  12.220   7.114   6.639
41548SOL    HW226419  12.104   7.098   6.543
41549SOL     OW26420  12.045   2.445   8.984
41549SOL    HW126421  11.998   2.384   8.928
41549SOL    HW226422  12.121   2.395   9.015
41550SOL     OW26423   0.363   0.708  13.507
41550SOL    HW126424   0.412   0.738  13.431
41550SOL    HW226425   0.428   0.699  13.576
41551SOL     OW26426   4.780  10.498   5.134
41551SOL    HW126427   4.850  10.563   5.132
41551SOL    HW226428   4.721  10.524   5.064
41552SOL     OW26429  10.575   4.594   7.357
41552SOL    HW126430  10.560   4.541   7.279
41552SOL    HW226431  10.513   4.560   7.421
41553SOL     OW26432   7.869   2.661  12.338
41553SOL    HW126433   7.950   2.659  12.286
41553SOL    HW226434   7.842   2.570  12.344
41554SOL     OW26435   0.848  10.692   2.809
41554SOL    HW126436   0.886  10.767   2.763
41554SOL    HW226437   0.922  10.653   2.856
41555SOL     OW26438   5.337   2.184  13.178
41555SOL    HW126439   5.257   2.195  13.126
41555SOL    HW226440   5.407   2.212  13.120
41556SOL     OW26441  11.972   1.708   5.624
41556SOL    HW126442  11.900   1.732   5.565
41556SOL    HW226443  11.957   1.761   5.703
41557SOL     OW26444  11.562  14.588  12.053
41557SOL    HW126445  11.649  14.566  12.021
41557SOL    HW226446  11.505  14.521  12.017
41558SOL     OW26447   0.635  14.323  12.101
41558SOL    HW126448   0.639  14.242  12.049
41558SOL    HW226449   0.725  14.338  12.129
41559SOL     OW26450   7.695   3.070  12.647
41559SOL    HW126451   7.624   3.085  12.585
41559SOL    HW226452   7.688   3.143  12.709
41560SOL     OW26453   7.905   4.293   7.366
41560SOL    HW126454   7.869   4.205   7.384
41560SOL    HW226455   7.881   4.344   7.444
41561SOL     OW26456   8.436  11.387   9.344
41561SOL    HW126457   8.486  11.401   9.264
41561SOL    HW226458   8.364  11.450   9.340
41562SOL     OW26459  10.636   5.900   1.945
41562SOL    HW126460  10.581   5.900   2.023
41562SOL    HW226461  10.699   5.971   1.961
41563SOL     OW26462  13.738  13.294   3.742
41563SOL    HW126463  13.775  13.257   3.822
41563SOL    HW226464  13.758  13.388   3.747
41564SOL     OW26465   8.685  12.630   4.991
41564SOL    HW126466   8.642  12.656   5.072
41564SOL    HW226467   8.699  12.536   5.000
41565SOL     OW26468  10.531  10.649   0.757
41565SOL    HW126469  10.556  10.576   0.700
41565SOL    HW226470  10.438  10.664   0.737
41566SOL     OW26471  13.300  14.630   7.984
41566SOL    HW126472  13.286  14.546   8.028
41566SOL    HW226473  13.266  14.695   8.045
41567SOL     OW26474   6.112  12.682   1.842
41567SOL    HW126475   6.155  12.601   1.813
41567SOL    HW226476   6.046  12.699   1.774
41568SOL     OW26477   1.307   0.131   6.252
41568SOL    HW126478   1.332   0.039   6.242
41568SOL    HW226479   1.227   0.128   6.305
41569SOL     OW26480   9.790  14.318   9.870
41569SOL    HW126481   9.733  14.333   9.794
41569SOL    HW226482   9.755  14.376   9.938
41570SOL     OW26483  11.891  13.998   7.284
41570SOL    HW126484  11.896  13.999   7.189
41570SOL    HW226485  11.951  13.927   7.310
41571SOL     OW26486   8.544   8.588  10.609
41571SOL    HW126487   8.471   8.644  10.635
41571SOL    HW226488   8.599   8.583  10.688
41572SOL     OW26489  11.846   8.959   2.531
41572SOL    HW126490  11.910   8.897   2.566
41572SOL    HW226491  11.786   8.974   2.604
41573SOL     OW26492  10.387   0.106   6.484
41573SOL    HW126493  10.439   0.037   6.442
41573SOL    HW226494  10.439   0.132   6.561
41574SOL     OW26495  14.686   7.668   1.515
41574SOL    HW126496  14.626   7.628   1.578
41574SOL    HW226497  14.631   7.722   1.459
41575SOL     OW26498   8.091   5.136  12.249
41575SOL    HW126499   8.012   5.095  12.283
41575SOL    HW226500   8.061   5.189  12.175
41576SOL     OW26501   2.518  11.436   3.083
41576SOL    HW126502   2.435  11.407   3.044
41576SOL    HW226503   2.507  11.531   3.093
41577SOL     OW26504  13.359   1.040   5.681
41577SOL    HW126505  13.311   1.042   5.764
41577SOL    HW226506  13.415   1.117   5.683
41578SOL     OW26507   7.229  11.301   4.388
41578SOL    HW126508   7.288  11.346   4.328
41578SOL    HW226509   7.273  11.218   4.408
41579SOL     OW26510   2.849   6.850   5.759
41579SOL    HW126511   2.804   6.932   5.737
41579SOL    HW226512   2.858   6.853   5.855
41580SOL     OW26513  12.362  10.837   0.739
41580SOL    HW126514  12.377  10.885   0.658
41580SOL    HW226515  12.281  10.875   0.774
41581SOL     OW26516  14.359   6.362   0.448
41581SOL    HW126517  14.329   6.424   0.383
41581SOL    HW226518  14.385   6.415   0.523
41582SOL     OW26519   9.114  12.697   0.227
41582SOL    HW126520   9.074  12.671   0.144
41582SOL    HW226521   9.150  12.616   0.263
41583SOL     OW26522   1.344   3.493   3.101
41583SOL    HW126523   1.431   3.461   3.078
41583SOL    HW226524   1.322   3.555   3.032
41584SOL     OW26525  12.230   3.860   2.949
41584SOL    HW126526  12.286   3.794   2.992
41584SOL    HW226527  12.186   3.812   2.879
41585SOL     OW26528  11.224   3.865   5.996
41585SOL    HW126529  11.277   3.785   5.998
41585SOL    HW226530  11.139   3.837   5.962
41586SOL     OW26531   5.404   3.850   7.120
41586SOL    HW126532   5.339   3.802   7.069
41586SOL    HW226533   5.406   3.937   7.081
41587SOL     OW26534  11.122   5.279   3.425
41587SOL    HW126535  11.096   5.187   3.430
41587SOL    HW226536  11.040   5.326   3.415
41588SOL     OW26537  12.289   6.577  11.781
41588SOL    HW126538  12.348   6.511  11.745
41588SOL    HW226539  12.346   6.639  11.826
41589SOL     OW26540   1.027  11.070   7.670
41589SOL    HW126541   0.980  11.085   7.587
41589SOL    HW226542   1.072  11.153   7.687
41590SOL     OW26543   6.828   5.485   0.024
41590SOL    HW126544   6.798   5.576   0.022
41590SOL    HW226545   6.804   5.451  14.815
41591SOL     OW26546  11.794   9.282  12.427
41591SOL    HW126547  11.808   9.268  12.333
41591SOL    HW226548  11.868   9.238  12.469
41592SOL     OW26549   2.576   0.835   7.318
41592SOL    HW126550   2.570   0.845   7.413
41592SOL    HW226551   2.509   0.893   7.283
41593SOL     OW26552   2.497   8.805  10.363
41593SOL    HW126553   2.525   8.720  10.331
41593SOL    HW226554   2.560   8.828  10.431
41594SOL     OW26555  13.949   0.936   9.564
41594SOL    HW126556  13.985   0.863   9.514
41594SOL    HW226557  13.932   1.004   9.500
41595SOL     OW26558   5.840  11.163   3.506
41595SOL    HW126559   5.803  11.076   3.519
41595SOL    HW226560   5.853  11.196   3.595
41596SOL     OW26561  13.097   7.858   9.027
41596SOL    HW126562  13.148   7.826   8.952
41596SOL    HW226563  13.021   7.800   9.031
41597SOL     OW26564   6.869   3.906  12.192
41597SOL    HW126565   6.949   3.866  12.158
41597SOL    HW226566   6.801   3.880  12.130
41598SOL     OW26567  13.874  11.141  14.700
41598SOL    HW126568  13.881  11.229  14.664
41598SOL    HW226569  13.953  11.130  14.754
41599SOL     OW26570   8.590   1.631   0.785
41599SOL    HW126571   8.510   1.675   0.812
41599SOL    HW226572   8.565   1.539   0.772
41600SOL     OW26573  11.286   6.316  11.180
41600SOL    HW126574  11.294   6.392  11.237
41600SOL    HW226575  11.276   6.242  11.240
41601SOL     OW26576  14.299   3.639   3.979
41601SOL    HW126577  14.297   3.730   4.010
41601SOL    HW226578  14.362   3.595   4.037
41602SOL     OW26579   7.742  10.250  11.992
41602SOL    HW126580   7.754  10.192  12.067
41602SOL    HW226581   7.815  10.312  11.997
41603SOL     OW26582   5.690  11.113   6.856
41603SOL    HW126583   5.728  11.116   6.945
41603SOL    HW226584   5.671  11.204   6.836
41604SOL     OW26585   4.405   6.551  14.484
41604SOL    HW126586   4.399   6.456  14.474
41604SOL    HW226587   4.342   6.585  14.421
41605SOL     OW26588  11.549  14.133   6.012
41605SOL    HW126589  11.494  14.093   5.944
41605SOL    HW226590  11.583  14.212   5.972
41606SOL     OW26591  10.337   1.686   3.486
41606SOL    HW126592  10.326   1.700   3.392
41606SOL    HW226593  10.282   1.610   3.506
41607SOL     OW26594   9.565   1.991   3.706
41607SOL    HW126595   9.610   1.910   3.729
41607SOL    HW226596   9.625   2.061   3.734
41608SOL     OW26597   8.605  14.617   6.396
41608SOL    HW126598   8.599  14.711   6.411
41608SOL    HW226599   8.516  14.591   6.371
41609SOL     OW26600   6.864   0.135  11.324
41609SOL    HW126601   6.791   0.089  11.366
41609SOL    HW226602   6.907   0.181  11.396
41610SOL     OW26603   0.255   9.407  14.728
41610SOL    HW126604   0.348   9.397  14.748
41610SOL    HW226605   0.226   9.481  14.781
41611SOL     OW26606   2.971   6.667   8.700
41611SOL    HW126607   2.962   6.596   8.637
41611SOL    HW226608   3.012   6.738   8.651
41612SOL     OW26609   1.106   9.189   1.083
41612SOL    HW126610   1.014   9.164   1.096
41612SOL    HW226611   1.148   9.169   1.167
41613SOL     OW26612   9.503  13.811   8.235
41613SOL    HW126613   9.531  13.867   8.163
41613SOL    HW226614   9.529  13.723   8.209
41614SOL     OW26615   6.267  14.710   7.200
41614SOL    HW126616   6.306  14.759   7.128
41614SOL    HW226617   6.174  14.703   7.179
41615SOL     OW26618   5.381   6.044  13.191
41615SOL    HW126619   5.473   6.066  13.205
41615SOL    HW226620   5.372   6.042  13.095
41616SOL     OW26621   2.841   2.414  14.131
41616SOL    HW126622   2.838   2.507  14.153
41616SOL    HW226623   2.783   2.372  14.195
41617SOL     OW26624  12.939   8.842  10.587
41617SOL    HW126625  12.886   8.921  10.578
41617SOL    HW226626  12.892   8.775  10.538
41618SOL     OW26627  10.627   3.234  12.211
41618SOL    HW126628  10.708   3.183  12.217
41618SOL    HW226629  10.598   3.221  12.121
41619SOL     OW26630   9.799   6.002  14.359
41619SOL    HW126631   9.772   5.958  14.279
41619SOL    HW226632   9.740   5.968  14.426
41620SOL     OW26633   6.786  10.890   6.693
41620SOL    HW126634   6.812  10.942   6.769
41620SOL    HW226635   6.707  10.933   6.660
41621SOL     OW26636  11.779   7.231   4.231
41621SOL    HW126637  11.689   7.243   4.202
41621SOL    HW226638  11.773   7.216   4.325
41622SOL     OW26639  11.903   2.862   9.144
41622SOL    HW126640  11.839   2.882   9.212
41622SOL    HW226641  11.938   2.776   9.168
41623SOL     OW26642   3.824   3.842   0.349
41623SOL    HW126643   3.851   3.932   0.369
41623SOL    HW226644   3.906   3.796   0.331
41624SOL     OW26645  13.716   5.382  10.059
41624SOL    HW126646  13.722   5.462  10.112
41624SOL    HW226647  13.774   5.320  10.103
41625SOL     OW26648  10.543  11.138   3.672
41625SOL    HW126649  10.606  11.117   3.604
41625SOL    HW226650  10.548  11.233   3.681
41626SOL     OW26651  13.029   9.788  13.079
41626SOL    HW126652  12.991   9.743  13.003
41626SOL    HW226653  13.090   9.724  13.116
41627SOL     OW26654  12.337   5.335   0.702
41627SOL    HW126655  12.406   5.272   0.681
41627SOL    HW226656  12.364   5.416   0.658
41628SOL     OW26657  10.039   7.630   6.859
41628SOL    HW126658  10.132   7.616   6.841
41628SOL    HW226659   9.995   7.557   6.816
41629SOL     OW26660   7.708   6.331   1.983
41629SOL    HW126661   7.613   6.346   1.987
41629SOL    HW226662   7.746   6.416   2.004
41630SOL     OW26663   2.391  13.149  14.042
41630SOL    HW126664   2.486  13.154  14.029
41630SOL    HW226665   2.375  13.202  14.120
41631SOL     OW26666   7.881  12.026  12.608
41631SOL    HW126667   7.852  12.116  12.599
41631SOL    HW226668   7.827  11.989  12.677
41632SOL     OW26669  13.161  13.389  12.135
41632SOL    HW126670  13.108  13.344  12.069
41632SOL    HW226671  13.234  13.329  12.152
41633SOL     OW26672   3.428  14.330   2.788
41633SOL    HW126673   3.426  14.333   2.883
41633SOL    HW226674   3.404  14.419   2.761
41634SOL     OW26675   9.139   0.663  13.882
41634SOL    HW126676   9.179   0.585  13.844
41634SOL    HW226677   9.154   0.731  13.816
41635SOL     OW26678   4.395   9.199   3.951
41635SOL    HW126679   4.432   9.273   3.999
41635SOL    HW226680   4.470   9.160   3.906
41636SOL     OW26681  11.336   8.661  14.056
41636SOL    HW126682  11.418   8.629  14.095
41636SOL    HW226683  11.293   8.582  14.023
41637SOL     OW26684   6.333   1.881   0.833
41637SOL    HW126685   6.319   1.904   0.741
41637SOL    HW226686   6.299   1.792   0.841
41638SOL     OW26687   0.278  11.594  10.388
41638SOL    HW126688   0.189  11.566  10.365
41638SOL    HW226689   0.272  11.625  10.478
41639SOL     OW26690   5.314   0.501   6.871
41639SOL    HW126691   5.369   0.543   6.804
41639SOL    HW226692   5.265   0.573   6.911
41640SOL     OW26693   2.797   4.825  12.620
41640SOL    HW126694   2.834   4.892  12.677
41640SOL    HW226695   2.817   4.743  12.664
41641SOL     OW26696   7.352  13.754  14.838
41641SOL    HW126697   7.359  13.843  14.871
41641SOL    HW226698   7.417  13.748  14.768
41642SOL     OW26699   4.227  10.358  14.645
41642SOL    HW126700   4.273  10.283  14.608
41642SOL    HW226701   4.179  10.323  14.720
41643SOL     OW26702   7.784  11.992   6.867
41643SOL    HW126703   7.736  12.019   6.945
41643SOL    HW226704   7.776  12.065   6.806
41644SOL     OW26705   1.004   5.724   5.099
41644SOL    HW126706   0.954   5.799   5.065
41644SOL    HW226707   1.013   5.665   5.024
41645SOL     OW26708   5.085  13.782   2.931
41645SOL    HW126709   5.026  13.828   2.872
41645SOL    HW226710   5.097  13.842   3.005
41646SOL     OW26711  12.156   5.423  11.809
41646SOL    HW126712  12.189   5.416  11.898
41646SOL    HW226713  12.232   5.404  11.754
41647SOL     OW26714  11.454   4.259   3.365
41647SOL    HW126715  11.438   4.273   3.458
41647SOL    HW226716  11.529   4.315   3.345
41648SOL     OW26717   4.993  10.515   1.485
41648SOL    HW126718   4.911  10.559   1.509
41648SOL    HW226719   5.023  10.475   1.567
41649SOL     OW26720  14.215   2.975  12.736
41649SOL    HW126721  14.202   3.060  12.778
41649SOL    HW226722  14.126   2.939  12.727
41650SOL     OW26723  12.513   2.242   9.714
41650SOL    HW126724  12.454   2.179   9.757
41650SOL    HW226725  12.459   2.321   9.704
41651SOL     OW26726   9.868   3.011  14.038
41651SOL    HW126727   9.917   2.929  14.048
41651SOL    HW226728   9.884   3.058  14.120
41652SOL     OW26729  10.668   1.851   0.276
41652SOL    HW126730  10.623   1.911   0.336
41652SOL    HW226731  10.742   1.902   0.244
41653SOL     OW26732   6.198   1.830   8.729
41653SOL    HW126733   6.276   1.885   8.730
41653SOL    HW226734   6.196   1.793   8.640
41654SOL     OW26735  14.506   5.930   3.207
41654SOL    HW126736  14.506   6.002   3.270
41654SOL    HW226737  14.598   5.917   3.185
41655SOL     OW26738  10.677  11.084   3.443
41655SOL    HW126739  10.726  11.020   3.393
41655SOL    HW226740  10.723  11.167   3.429
41656SOL     OW26741   7.004   2.032  10.633
41656SOL    HW126742   7.068   2.010  10.700
41656SOL    HW226743   7.014   2.126  10.621
41657SOL     OW26744   5.230  12.621   4.372
41657SOL    HW126745   5.161  12.656   4.428
41657SOL    HW226746   5.293  12.693   4.364
41658SOL     OW26747   2.607   5.208   4.894
41658SOL    HW126748   2.526   5.204   4.843
41658SOL    HW226749   2.583   5.258   4.972
41659SOL     OW26750  11.186   4.600   5.569
41659SOL    HW126751  11.216   4.512   5.543
41659SOL    HW226752  11.144   4.587   5.654
41660SOL     OW26753  10.379   3.266   9.438
41660SOL    HW126754  10.284   3.253   9.450
41660SOL    HW226755  10.398   3.227   9.353
41661SOL     OW26756  12.458   2.012   2.622
41661SOL    HW126757  12.439   2.104   2.602
41661SOL    HW226758  12.544   1.997   2.583
41662SOL     OW26759  12.464  12.178  12.681
41662SOL    HW126760  12.531  12.110  12.680
41662SOL    HW226761  12.459  12.208  12.590
41663SOL     OW26762   5.648   8.242  13.026
41663SOL    HW126763   5.655   8.155  13.066
41663SOL    HW226764   5.555   8.253  13.008
41664SOL     OW26765  13.599  14.118  14.750
41664SOL    HW126766  13.637  14.160  14.827
41664SOL    HW226767  13.537  14.054  14.785
41665SOL     OW26768   8.543   2.181   2.025
41665SOL    HW126769   8.496   2.108   2.066
41665SOL    HW226770   8.635   2.157   2.031
41666SOL     OW26771   0.839   4.855  13.052
41666SOL    HW126772   0.874   4.858  12.963
41666SOL    HW226773   0.912   4.823  13.105
41667SOL     OW26774   4.023  11.001  13.388
41667SOL    HW126775   4.055  10.929  13.443
41667SOL    HW226776   4.039  10.971  13.298
41668SOL     OW26777   6.925   7.945   6.808
41668SOL    HW126778   6.973   7.996   6.874
41668SOL    HW226779   6.993   7.904   6.756
41669SOL     OW26780  13.691  12.683  11.793
41669SOL    HW126781  13.786  12.691  11.798
41669SOL    HW226782  13.673  12.596  11.829
41670SOL     OW26783   8.378  12.727   8.302
41670SOL    HW126784   8.404  12.689   8.218
41670SOL    HW226785   8.288  12.758   8.288
41671SOL     OW26786  12.862   6.590  13.928
41671SOL    HW126787  12.819   6.662  13.881
41671SOL    HW226788  12.946   6.627  13.955
41672SOL     OW26789   6.734   2.712  11.180
41672SOL    HW126790   6.640   2.719  11.194
41672SOL    HW226791   6.759   2.630  11.223
41673SOL     OW26792   4.385   1.702   4.714
41673SOL    HW126793   4.462   1.724   4.767
41673SOL    HW226794   4.319   1.677   4.778
41674SOL     OW26795   6.987   0.959   9.217
41674SOL    HW126796   7.064   1.014   9.204
41674SOL    HW226797   7.009   0.876   9.176
41675SOL     OW26798  12.365  12.688   5.084
41675SOL    HW126799  12.323  12.766   5.120
41675SOL    HW226800  12.294  12.623   5.081
41676SOL     OW26801   6.132   8.110  10.784
41676SOL    HW126802   6.096   8.072  10.703
41676SOL    HW226803   6.223   8.081  10.786
41677SOL     OW26804  14.716  13.333   7.120
41677SOL    HW126805  14.710  13.428   7.111
41677SOL    HW226806  14.760  13.304   7.040
41678SOL     OW26807   3.512  10.459   9.768
41678SOL    HW126808   3.562  10.540   9.781
41678SOL    HW226809   3.423  10.481   9.793
41679SOL     OW26810   2.470   0.510   8.759
41679SOL    HW126811   2.466   0.495   8.665
41679SOL    HW226812   2.379   0.507   8.788
41680SOL     OW26813   4.695   3.669  11.347
41680SOL    HW126814   4.673   3.730  11.277
41680SOL    HW226815   4.737   3.596  11.302
41681SOL     OW26816   6.754   9.435   8.693
41681SOL    HW126817   6.665   9.450   8.663
41681SOL    HW226818   6.789   9.370   8.631
41682SOL     OW26819  14.459   0.239   1.051
41682SOL    HW126820  14.407   0.210   1.125
41682SOL    HW226821  14.541   0.192   1.059
41683SOL     OW26822   0.747   9.042   2.916
41683SOL    HW126823   0.787   9.098   2.983
41683SOL    HW226824   0.725   8.962   2.963
41684SOL     OW26825   8.085  12.457  14.410
41684SOL    HW126826   8.136  12.419  14.338
41684SOL    HW226827   8.040  12.531  14.370
41685SOL     OW26828  11.379  13.651   7.768
41685SOL    HW126829  11.320  13.581   7.794
41685SOL    HW226830  11.459  13.606   7.741
41686SOL     OW26831  12.072   9.262   0.565
41686SOL    HW126832  12.116   9.347   0.563
41686SOL    HW226833  12.055   9.245   0.658
41687SOL     OW26834   5.200   0.587   1.765
41687SOL    HW126835   5.250   0.514   1.802
41687SOL    HW226836   5.266   0.650   1.737
41688SOL     OW26837   4.764   4.054   0.615
41688SOL    HW126838   4.754   4.077   0.708
41688SOL    HW226839   4.677   4.069   0.578
41689SOL     OW26840   7.227   4.790   2.909
41689SOL    HW126841   7.204   4.778   2.817
41689SOL    HW226842   7.284   4.717   2.930
41690SOL     OW26843   2.813   4.493   1.641
41690SOL    HW126844   2.816   4.533   1.727
41690SOL    HW226845   2.722   4.469   1.628
41691SOL     OW26846   7.529   5.097   0.416
41691SOL    HW126847   7.441   5.123   0.389
41691SOL    HW226848   7.583   5.109   0.338
41692SOL     OW26849  13.443  11.392   3.946
41692SOL    HW126850  13.516  11.445   3.914
41692SOL    HW226851  13.437  11.319   3.885
41693SOL     OW26852   1.410   3.912   3.137
41693SOL    HW126853   1.317   3.902   3.158
41693SOL    HW226854   1.416   3.892   3.044
41694SOL     OW26855  14.191   4.896   7.796
41694SOL    HW126856  14.188   4.989   7.817
41694SOL    HW226857  14.162   4.852   7.877
41695SOL     OW26858  11.823   6.318  14.083
41695SOL    HW126859  11.813   6.311  14.178
41695SOL    HW226860  11.844   6.229  14.054
41696SOL     OW26861   3.519   2.408  10.355
41696SOL    HW126862   3.526   2.498  10.387
41696SOL    HW226863   3.525   2.354  10.434
41697SOL     OW26864  11.416  10.498  12.790
41697SOL    HW126865  11.472  10.478  12.866
41697SOL    HW226866  11.467  10.468  12.715
41698SOL     OW26867   8.515  12.500  12.565
41698SOL    HW126868   8.485  12.410  12.549
41698SOL    HW226869   8.494  12.516  12.657
41699SOL     OW26870   3.475  10.033   9.679
41699SOL    HW126871   3.439  10.117   9.652
41699SOL    HW226872   3.448   9.972   9.610
41700SOL     OW26873   5.535   7.255   4.762
41700SOL    HW126874   5.574   7.343   4.759
41700SOL    HW226875   5.512   7.236   4.672
41701SOL     OW26876   6.784  13.120   3.243
41701SOL    HW126877   6.827  13.051   3.193
41701SOL    HW226878   6.718  13.155   3.184
41702SOL     OW26879  13.845  13.628   3.132
41702SOL    HW126880  13.914  13.654   3.072
41702SOL    HW226881  13.814  13.544   3.099
41703SOL     OW26882   2.063  13.833  11.111
41703SOL    HW126883   1.968  13.822  11.105
41703SOL    HW226884   2.095  13.747  11.139
41704SOL     OW26885   8.887   4.849   4.732
41704SOL    HW126886   8.979   4.825   4.721
41704SOL    HW226887   8.839   4.771   4.704
41705SOL     OW26888   8.562  12.156   6.819
41705SOL    HW126889   8.535  12.122   6.904
41705SOL    HW226890   8.536  12.248   6.820
41706SOL     OW26891  11.327   6.903  11.968
41706SOL    HW126892  11.328   6.989  12.011
41706SOL    HW226893  11.420   6.885  11.951
41707SOL     OW26894  14.777  14.515  11.230
41707SOL    HW126895  14.863  14.544  11.260
41707SOL    HW226896  14.722  14.593  11.237
41708SOL     OW26897   0.908   3.636   0.644
41708SOL    HW126898   0.921   3.630   0.738
41708SOL    HW226899   0.877   3.726   0.629
41709SOL     OW26900   9.391  11.810   6.534
41709SOL    HW126901   9.329  11.882   6.544
41709SOL    HW226902   9.470  11.840   6.578
41710SOL     OW26903   6.122   1.676   7.391
41710SOL    HW126904   6.198   1.619   7.399
41710SOL    HW226905   6.061   1.627   7.335
41711SOL     OW26906   3.183  11.822   5.445
41711SOL    HW126907   3.217  11.738   5.476
41711SOL    HW226908   3.253  11.859   5.391
41712SOL     OW26909  14.150   8.357  11.007
41712SOL    HW126910  14.082   8.348  10.940
41712SOL    HW226911  14.142   8.278  11.060
41713SOL     OW26912  10.482   4.676  13.777
41713SOL    HW126913  10.440   4.762  13.780
41713SOL    HW226914  10.409   4.614  13.777
41714SOL     OW26915  13.967  14.188   8.133
41714SOL    HW126916  13.950  14.139   8.213
41714SOL    HW226917  14.037  14.140   8.089
41715SOL     OW26918   2.142   3.902   7.364
41715SOL    HW126919   2.090   3.979   7.338
41715SOL    HW226920   2.179   3.926   7.449
41716SOL     OW26921   8.597  13.023   6.209
41716SOL    HW126922   8.608  12.928   6.210
41716SOL    HW226923   8.502  13.036   6.209
41717SOL     OW26924   2.481   9.656   1.610
41717SOL    HW126925   2.557   9.618   1.655
41717SOL    HW226926   2.452   9.587   1.550
41718SOL     OW26927   0.472   8.713   0.581
41718SOL    HW126928   0.551   8.756   0.614
41718SOL    HW226929   0.497   8.620   0.574
41719SOL     OW26930   0.244  11.139   0.140
41719SOL    HW126931   0.195  11.080   0.082
41719SOL    HW226932   0.196  11.137   0.223
41720SOL     OW26933   4.178  14.138   6.885
41720SOL    HW126934   4.170  14.181   6.800
41720SOL    HW226935   4.271  14.145   6.908
41721SOL     OW26936   8.903   0.640   6.337
41721SOL    HW126937   8.850   0.654   6.259
41721SOL    HW226938   8.904   0.724   6.382
41722SOL     OW26939   7.148   8.191   8.456
41722SOL    HW126940   7.117   8.269   8.502
41722SOL    HW226941   7.238   8.213   8.431
41723SOL     OW26942   6.605   0.282  13.463
41723SOL    HW126943   6.699   0.297  13.462
41723SOL    HW226944   6.569   0.362  13.503
41724SOL     OW26945   6.261   9.487  13.099
41724SOL    HW126946   6.343   9.535  13.090
41724SOL    HW226947   6.221   9.524  13.178
41725SOL     OW26948  10.361   5.237   2.780
41725SOL    HW126949  10.438   5.222   2.725
41725SOL    HW226950  10.294   5.266   2.718
41726SOL     OW26951  11.422  13.818  12.414
41726SOL    HW126952  11.347  13.873  12.438
41726SOL    HW226953  11.434  13.832  12.320
41727SOL     OW26954  11.403   9.498   3.364
41727SOL    HW126955  11.369   9.558   3.430
41727SOL    HW226956  11.371   9.533   3.281
41728SOL     OW26957  10.780   3.676   4.698
41728SOL    HW126958  10.818   3.723   4.772
41728SOL    HW226959  10.805   3.585   4.712
41729SOL     OW26960   2.142   1.635   9.640
41729SOL    HW126961   2.234   1.636   9.667
41729SOL    HW226962   2.127   1.721   9.601
41730SOL     OW26963   9.332  13.533   0.192
41730SOL    HW126964   9.413  13.482   0.184
41730SOL    HW226965   9.264  13.468   0.208
41731SOL     OW26966   8.944   5.715   9.030
41731SOL    HW126967   9.031   5.707   9.068
41731SOL    HW226968   8.942   5.651   8.959
41732SOL     OW26969   6.375   6.771   3.506
41732SOL    HW126970   6.434   6.770   3.581
41732SOL    HW226971   6.423   6.725   3.437
41733SOL     OW26972   4.699   9.475  13.466
41733SOL    HW126973   4.753   9.395  13.465
41733SOL    HW226974   4.711   9.510  13.554
41734SOL     OW26975  13.149  14.303  10.113
41734SOL    HW126976  13.169  14.213  10.136
41734SOL    HW226977  13.182  14.355  10.186
41735SOL     OW26978   6.057   4.712   6.186
41735SOL    HW126979   6.029   4.800   6.208
41735SOL    HW226980   6.140   4.701   6.232
41736SOL     OW26981   1.982  11.083   6.348
41736SOL    HW126982   2.032  11.002   6.360
41736SOL    HW226983   2.043  11.152   6.374
41737SOL     OW26984   3.594  12.026  10.225
41737SOL    HW126985   3.615  11.978  10.145
41737SOL    HW226986   3.605  11.962  10.295
41738SOL     OW26987   2.817   1.049  10.932
41738SOL    HW126988   2.887   1.094  10.884
41738SOL    HW226989   2.863   1.007  11.005
41739SOL     OW26990   5.275  10.708  11.290
41739SOL    HW126991   5.240  10.660  11.365
41739SOL    HW226992   5.200  10.753  11.253
41740SOL     OW26993   0.933  13.243   8.594
41740SOL    HW126994   0.862  13.232   8.530
41740SOL    HW226995   1.001  13.291   8.546
41741SOL     OW26996  12.397  14.742   9.346
41741SOL    HW126997  12.417  14.650   9.361
41741SOL    HW226998  12.319  14.741   9.291
41742SOL     OW26999   6.232   2.821  10.040
41742SOL    HW127000   6.215   2.803   9.948
41742SOL    HW227001   6.311   2.771  10.060
41743SOL     OW27002   9.989   7.155  10.129
41743SOL    HW127003   9.977   7.083  10.067
41743SOL    HW227004  10.061   7.206  10.092
41744SOL     OW27005  12.452  12.726   2.448
41744SOL    HW127006  12.504  12.689   2.519
41744SOL    HW227007  12.439  12.817   2.474
41745SOL     OW27008  13.792   3.658   9.703
41745SOL    HW127009  13.877   3.613   9.700
41745SOL    HW227010  13.812   3.743   9.744
41746SOL     OW27011   9.639  12.141  13.298
41746SOL    HW127012   9.592  12.082  13.357
41746SOL    HW227013   9.713  12.089  13.267
41747SOL     OW27014   0.726   4.373   5.686
41747SOL    HW127015   0.791   4.304   5.697
41747SOL    HW227016   0.748   4.414   5.602
41748SOL     OW27017   8.076   7.920  11.790
41748SOL    HW127018   8.032   7.874  11.718
41748SOL    HW227019   8.057   7.868  11.868
41749SOL     OW27020   6.696   0.282  13.118
41749SOL    HW127021   6.663   0.296  13.030
41749SOL    HW227022   6.625   0.311  13.176
41750SOL     OW27023   6.543  13.205   6.927
41750SOL    HW127024   6.467  13.250   6.964
41750SOL    HW227025   6.612  13.271   6.925
41751SOL     OW27026   2.838   2.574   7.689
41751SOL    HW127027   2.806   2.514   7.621
41751SOL    HW227028   2.897   2.633   7.642
41752SOL     OW27029   9.158   9.516  14.691
41752SOL    HW127030   9.181   9.458  14.764
41752SOL    HW227031   9.210   9.595  14.706
41753SOL     OW27032  13.083  13.172   7.553
41753SOL    HW127033  13.106  13.085   7.585
41753SOL    HW227034  13.068  13.224   7.633
41754SOL     OW27035  10.500   2.786   8.630
41754SOL    HW127036  10.570   2.774   8.567
41754SOL    HW227037  10.519   2.723   8.700
41755SOL     OW27038  14.105  11.297   5.743
41755SOL    HW127039  14.055  11.227   5.700
41755SOL    HW227040  14.038  11.352   5.784
41756SOL     OW27041   9.743  13.298  11.226
41756SOL    HW127042   9.837  13.282  11.240
41756SOL    HW227043   9.728  13.384  11.266
41757SOL     OW27044   7.457   9.418  13.745
41757SOL    HW127045   7.385   9.481  13.745
41757SOL    HW227046   7.416   9.335  13.718
41758SOL     OW27047  12.551   4.611  14.272
41758SOL    HW127048  12.537   4.561  14.353
41758SOL    HW227049  12.470   4.598  14.222
41759SOL     OW27050   9.604  11.061   2.596
41759SOL    HW127051   9.669  11.106   2.542
41759SOL    HW227052   9.568  11.130   2.652
41760SOL     OW27053   8.744   7.602   0.019
41760SOL    HW127054   8.703   7.688   0.018
41760SOL    HW227055   8.750   7.580   0.112
41761SOL     OW27056   0.778   6.043   3.092
41761SOL    HW127057   0.713   5.972   3.087
41761SOL    HW227058   0.862   5.998   3.101
41762SOL     OW27059   3.253  12.816  13.269
41762SOL    HW127060   3.332  12.787  13.315
41762SOL    HW227061   3.279  12.820  13.177
41763SOL     OW27062  13.752   1.089  11.335
41763SOL    HW127063  13.787   1.154  11.397
41763SOL    HW227064  13.661   1.078  11.361
41764SOL     OW27065   4.828   7.671   1.860
41764SOL    HW127066   4.792   7.592   1.820
41764SOL    HW227067   4.805   7.664   1.952
41765SOL     OW27068   6.111  13.462   5.091
41765SOL    HW127069   6.114  13.524   5.018
41765SOL    HW227070   6.115  13.517   5.169
41766SOL     OW27071  12.264   5.819   3.014
41766SOL    HW127072  12.251   5.902   3.060
41766SOL    HW227073  12.197   5.818   2.946
41767SOL     OW27074   5.705  10.220  11.041
41767SOL    HW127075   5.672  10.256  11.123
41767SOL    HW227076   5.712  10.126  11.057
41768SOL     OW27077  11.179   0.505   2.661
41768SOL    HW127078  11.093   0.474   2.632
41768SOL    HW227079  11.162   0.588   2.704
41769SOL     OW27080   9.456  10.479  12.627
41769SOL    HW127081   9.544  10.450  12.602
41769SOL    HW227082   9.400  10.442  12.559
41770SOL     OW27083   2.039  11.099  13.673
41770SOL    HW127084   2.094  11.031  13.635
41770SOL    HW227085   1.962  11.051  13.705
41771SOL     OW27086   7.159   2.259   0.983
41771SOL    HW127087   7.149   2.279   1.076
41771SOL    HW227088   7.254   2.262   0.968
41772SOL     OW27089   8.576   6.496   4.522
41772SOL    HW127090   8.636   6.454   4.460
41772SOL    HW227091   8.563   6.584   4.488
41773SOL     OW27092  13.377  13.439   3.514
41773SOL    HW127093  13.414  13.381   3.580
41773SOL    HW227094  13.446  13.501   3.494
41774SOL     OW27095   0.705   9.888   0.704
41774SOL    HW127096   0.610   9.886   0.713
41774SOL    HW227097   0.737   9.817   0.760
41775SOL     OW27098   1.900  13.002  14.384
41775SOL    HW127099   1.829  12.977  14.442
41775SOL    HW227100   1.973  12.945  14.409
41776SOL     OW27101  13.963   1.272   0.820
41776SOL    HW127102  13.951   1.219   0.899
41776SOL    HW227103  14.051   1.309   0.829
41777SOL     OW27104   2.337  12.046   7.958
41777SOL    HW127105   2.272  11.994   7.910
41777SOL    HW227106   2.290  12.078   8.035
41778SOL     OW27107   4.358  11.533   2.361
41778SOL    HW127108   4.312  11.617   2.362
41778SOL    HW227109   4.399  11.529   2.274
41779SOL     OW27110   0.455  14.391   5.076
41779SOL    HW127111   0.505  14.468   5.047
41779SOL    HW227112   0.364  14.420   5.073
41780SOL     OW27113  10.301  10.293  14.363
41780SOL    HW127114  10.326  10.203  14.339
41780SOL    HW227115  10.367  10.320  14.427
41781SOL     OW27116   9.196  10.548   6.558
41781SOL    HW127117   9.263  10.480   6.547
41781SOL    HW227118   9.131  10.508   6.616
41782SOL     OW27119   5.943  14.748  12.605
41782SOL    HW127120   5.879  14.814  12.579
41782SOL    HW227121   5.976  14.713  12.522
41783SOL     OW27122  13.082   9.459  10.510
41783SOL    HW127123  13.144   9.473  10.582
41783SOL    HW227124  13.095   9.368  10.485
41784SOL     OW27125  11.268   8.452   0.026
41784SOL    HW127126  11.186   8.493   0.054
41784SOL    HW227127  11.327   8.462   0.101
41785SOL     OW27128   7.542   5.762   4.422
41785SOL    HW127129   7.596   5.826   4.469
41785SOL    HW227130   7.503   5.709   4.491
41786SOL     OW27131   7.598   6.980   9.671
41786SOL    HW127132   7.576   6.974   9.578
41786SOL    HW227133   7.599   6.889   9.702
41787SOL     OW27134   2.161  11.469   0.956
41787SOL    HW127135   2.175  11.512   0.872
41787SOL    HW227136   2.066  11.473   0.970
41788SOL     OW27137   0.035   4.390   0.066
41788SOL    HW127138   0.056   4.431   0.150
41788SOL    HW227139  14.877   4.304   0.089
41789SOL     OW27140   0.227  13.033   3.053
41789SOL    HW127141   0.167  13.075   3.115
41789SOL    HW227142   0.244  12.947   3.092
41790SOL     OW27143   6.983   1.600  13.773
41790SOL    HW127144   7.010   1.525  13.719
41790SOL    HW227145   6.928   1.561  13.841
41791SOL     OW27146  11.064   1.645   3.703
41791SOL    HW127147  10.987   1.623   3.652
41791SOL    HW227148  11.113   1.706   3.647
41792SOL     OW27149   7.268   0.040   7.103
41792SOL    HW127150   7.281   0.133   7.123
41792SOL    HW227151   7.257  14.876   7.188
41793SOL     OW27152  12.179   8.174   5.554
41793SOL    HW127153  12.225   8.201   5.474
41793SOL    HW227154  12.236   8.108   5.593
41794SOL     OW27155   3.466   8.272  11.445
41794SOL    HW127156   3.389   8.327  11.461
41794SOL    HW227157   3.440   8.185  11.477
41795SOL     OW27158   5.286   2.511   2.964
41795SOL    HW127159   5.293   2.440   2.900
41795SOL    HW227160   5.192   2.517   2.983
41796SOL     OW27161  12.478  14.652  13.239
41796SOL    HW127162  12.546  14.664  13.172
41796SOL    HW227163  12.507  14.575  13.289
41797SOL     OW27164  14.571   8.125  10.834
41797SOL    HW127165  14.574   8.207  10.884
41797SOL    HW227166  14.618   8.145  10.753
41798SOL     OW27167   4.359  10.086   8.140
41798SOL    HW127168   4.395  10.062   8.225
41798SOL    HW227169   4.352  10.004   8.092
41799SOL     OW27170  14.130  12.590   1.036
41799SOL    HW127171  14.209  12.586   1.090
41799SOL    HW227172  14.066  12.536   1.083
41800SOL     OW27173   6.625   2.212   1.482
41800SOL    HW127174   6.550   2.158   1.507
41800SOL    HW227175   6.613   2.229   1.389
41801SOL     OW27176   1.071   2.819  14.419
41801SOL    HW127177   1.136   2.814  14.349
41801SOL    HW227178   0.992   2.853  14.377
41802SOL     OW27179  11.128   1.348  14.003
41802SOL    HW127180  11.151   1.261  13.971
41802SOL    HW227181  11.209   1.399  13.995
41803SOL     OW27182   0.186   4.597   5.462
41803SOL    HW127183   0.230   4.555   5.388
41803SOL    HW227184   0.204   4.690   5.452
41804SOL     OW27185   1.837   0.167   6.909
41804SOL    HW127186   1.872   0.212   6.832
41804SOL    HW227187   1.905   0.105   6.933
41805SOL     OW27188   6.873   9.395   8.944
41805SOL    HW127189   6.963   9.363   8.932
41805SOL    HW227190   6.840   9.407   8.855
41806SOL     OW27191  11.525  13.452  13.594
41806SOL    HW127192  11.557  13.432  13.507
41806SOL    HW227193  11.449  13.509  13.580
41807SOL     OW27194  12.927  13.224   9.107
41807SOL    HW127195  12.897  13.135   9.087
41807SOL    HW227196  13.018  13.213   9.135
41808SOL     OW27197   4.943  11.543   2.279
41808SOL    HW127198   4.996  11.548   2.199
41808SOL    HW227199   4.866  11.595   2.259
41809SOL     OW27200   0.246  13.644   0.776
41809SOL    HW127201   0.295  13.657   0.857
41809SOL    HW227202   0.311  13.613   0.714
41810SOL     OW27203   5.717   7.825  11.153
41810SOL    HW127204   5.804   7.787  11.146
41810SOL    HW227205   5.730   7.904  11.206
41811SOL     OW27206   4.666   4.849   4.535
41811SOL    HW127207   4.689   4.918   4.473
41811SOL    HW227208   4.662   4.769   4.481
41812SOL     OW27209   1.994  10.554   1.392
41812SOL    HW127210   1.927  10.516   1.335
41812SOL    HW227211   2.040  10.616   1.335
41813SOL     OW27212   5.750   9.014   3.505
41813SOL    HW127213   5.724   9.026   3.597
41813SOL    HW227214   5.814   8.943   3.508
41814SOL     OW27215  13.808  13.410   2.981
41814SOL    HW127216  13.768  13.430   2.896
41814SOL    HW227217  13.766  13.328   3.009
41815SOL     OW27218   2.974   1.686   3.659
41815SOL    HW127219   2.947   1.766   3.612
41815SOL    HW227220   3.028   1.639   3.595
41816SOL     OW27221   7.103   6.784   6.098
41816SOL    HW127222   7.155   6.727   6.042
41816SOL    HW227223   7.028   6.731   6.124
41817SOL     OW27224  11.726   1.276   3.197
41817SOL    HW127225  11.808   1.232   3.172
41817SOL    HW227226  11.701   1.235   3.280
41818SOL     OW27227  12.037   6.204   0.288
41818SOL    HW127228  11.962   6.199   0.347
41818SOL    HW227229  12.052   6.114   0.260
41819SOL     OW27230   0.819  13.405   4.547
41819SOL    HW127231   0.749  13.341   4.534
41819SOL    HW227232   0.802  13.473   4.482
41820SOL     OW27233   6.714   3.309   0.287
41820SOL    HW127234   6.808   3.292   0.298
41820SOL    HW227235   6.691   3.367   0.360
41821SOL     OW27236  11.374   9.745   0.797
41821SOL    HW127237  11.462   9.710   0.808
41821SOL    HW227238  11.357   9.739   0.703
41822SOL     OW27239   1.944   1.847   0.183
41822SOL    HW127240   2.028   1.865   0.224
41822SOL    HW227241   1.890   1.923   0.205
41823SOL     OW27242   8.878   3.419  13.193
41823SOL    HW127243   8.955   3.436  13.138
41823SOL    HW227244   8.869   3.324  13.193
41824SOL     OW27245  14.396  10.353   0.474
41824SOL    HW127246  14.421  10.444   0.455
41824SOL    HW227247  14.479  10.306   0.477
41825SOL     OW27248   7.979  14.122  14.244
41825SOL    HW127249   8.042  14.194  14.250
41825SOL    HW227250   8.006  14.074  14.165
41826SOL     OW27251   3.869   9.793   7.743
41826SOL    HW127252   3.857   9.866   7.681
41826SOL    HW227253   3.962   9.796   7.765
41827SOL     OW27254   2.408   2.224   3.024
41827SOL    HW127255   2.335   2.263   2.975
41827SOL    HW227256   2.402   2.263   3.111
41828SOL     OW27257   0.733   9.410  13.512
41828SOL    HW127258   0.708   9.410  13.605
41828SOL    HW227259   0.823   9.444  13.511
41829SOL     OW27260   9.571   4.470   6.928
41829SOL    HW127261   9.636   4.460   6.998
41829SOL    HW227262   9.584   4.393   6.873
41830SOL     OW27263   3.097   1.065  10.246
41830SOL    HW127264   3.181   1.079  10.202
41830SOL    HW227265   3.041   1.134  10.212
41831SOL     OW27266   9.478   5.491  14.653
41831SOL    HW127267   9.415   5.419  14.662
41831SOL    HW227268   9.554   5.450  14.611
41832SOL     OW27269   3.625   1.498  10.295
41832SOL    HW127270   3.684   1.574  10.293
41832SOL    HW227271   3.639   1.458  10.381
41833SOL     OW27272   7.367   5.309   4.476
41833SOL    HW127273   7.303   5.322   4.546
41833SOL    HW227274   7.446   5.352   4.509
41834SOL     OW27275   2.375   1.719   3.157
41834SOL    HW127276   2.362   1.683   3.069
41834SOL    HW227277   2.335   1.654   3.215
41835SOL     OW27278  10.590   1.534   2.996
41835SOL    HW127279  10.621   1.474   3.064
41835SOL    HW227280  10.650   1.608   3.000
41836SOL     OW27281  14.833   1.293  12.766
41836SOL    HW127282   0.036   1.335  12.734
41836SOL    HW227283  14.846   1.200  12.748
41837SOL     OW27284   3.625  14.670   4.163
41837SOL    HW127285   3.713  14.650   4.131
41837SOL    HW227286   3.635  14.751   4.212
41838SOL     OW27287   6.018   5.394   3.522
41838SOL    HW127288   6.108   5.409   3.550
41838SOL    HW227289   6.016   5.422   3.430
41839SOL     OW27290  13.874   0.168   1.336
41839SOL    HW127291  13.889   0.222   1.413
41839SOL    HW227292  13.953   0.115   1.328
41840SOL     OW27293  10.268   8.128   1.143
41840SOL    HW127294  10.214   8.063   1.098
41840SOL    HW227295  10.286   8.194   1.077
41841SOL     OW27296   7.245   2.260   0.589
41841SOL    HW127297   7.311   2.194   0.568
41841SOL    HW227298   7.252   2.324   0.519
41842SOL     OW27299   3.635   3.822   7.872
41842SOL    HW127300   3.604   3.759   7.807
41842SOL    HW227301   3.586   3.902   7.853
41843SOL     OW27302   6.855   8.860   4.284
41843SOL    HW127303   6.834   8.908   4.364
41843SOL    HW227304   6.771   8.853   4.238
41844SOL     OW27305  11.985   5.502   4.246
41844SOL    HW127306  12.078   5.484   4.229
41844SOL    HW227307  11.972   5.474   4.336
41845SOL     OW27308   0.761   8.693  11.601
41845SOL    HW127309   0.719   8.617  11.642
41845SOL    HW227310   0.760   8.761  11.668
41846SOL     OW27311   9.725  14.149  12.478
41846SOL    HW127312   9.745  14.243  12.483
41846SOL    HW227313   9.713  14.122  12.569
41847SOL     OW27314  10.794   7.354   8.399
41847SOL    HW127315  10.736   7.412   8.448
41847SOL    HW227316  10.736   7.298   8.348
41848SOL     OW27317  11.756  10.917  10.989
41848SOL    HW127318  11.753  10.913  11.084
41848SOL    HW227319  11.847  10.940  10.969
41849SOL     OW27320   7.138   6.731   7.011
41849SOL    HW127321   7.205   6.780   6.963
41849SOL    HW227322   7.185   6.688   7.082
41850SOL     OW27323  13.634  14.188   8.523
41850SOL    HW127324  13.550  14.154   8.554
41850SOL    HW227325  13.611  14.265   8.471
41851SOL     OW27326   2.319  13.589   5.532
41851SOL    HW127327   2.320  13.590   5.437
41851SOL    HW227328   2.332  13.497   5.556
41852SOL     OW27329   4.989   0.964   0.365
41852SOL    HW127330   5.075   1.002   0.385
41852SOL    HW227331   4.981   0.971   0.270
41853SOL     OW27332   9.825   9.646   7.642
41853SOL    HW127333   9.871   9.666   7.561
41853SOL    HW227334   9.735   9.629   7.615
41854SOL     OW27335   8.887   0.704   0.701
41854SOL    HW127336   8.861   0.622   0.658
41854SOL    HW227337   8.962   0.680   0.755
41855SOL     OW27338  11.836   8.314   9.879
41855SOL    HW127339  11.786   8.243   9.840
41855SOL    HW227340  11.821   8.304   9.973
41856SOL     OW27341   0.494   8.907  12.656
41856SOL    HW127342   0.532   8.951  12.580
41856SOL    HW227343   0.414   8.956  12.674
41857SOL     OW27344   0.683  11.529   0.841
41857SOL    HW127345   0.616  11.554   0.777
41857SOL    HW227346   0.759  11.580   0.816
41858SOL     OW27347  12.012  14.076   8.438
41858SOL    HW127348  12.019  13.984   8.460
41858SOL    HW227349  11.975  14.077   8.349
41859SOL     OW27350   8.986   1.405   5.811
41859SOL    HW127351   9.059   1.345   5.799
41859SOL    HW227352   9.010   1.482   5.760
41860SOL     OW27353  11.356  11.563   1.195
41860SOL    HW127354  11.391  11.491   1.248
41860SOL    HW227355  11.275  11.588   1.239
41861SOL     OW27356  13.752   4.697  13.294
41861SOL    HW127357  13.681   4.760  13.281
41861SOL    HW227358  13.739   4.664  13.383
41862SOL     OW27359   5.670   0.328   3.328
41862SOL    HW127360   5.583   0.329   3.289
41862SOL    HW227361   5.713   0.405   3.292
41863SOL     OW27362   9.894  14.818  12.228
41863SOL    HW127363   9.812  14.863  12.250
41863SOL    HW227364   9.913  14.847  12.139
41864SOL     OW27365  10.620  12.727   5.109
41864SOL    HW127366  10.628  12.636   5.078
41864SOL    HW227367  10.696  12.772   5.071
41865SOL     OW27368  11.278  14.569   6.607
41865SOL    HW127369  11.191  14.535   6.586
41865SOL    HW227370  11.263  14.630   6.679
41866SOL     OW27371   9.758  13.074  13.639
41866SOL    HW127372   9.671  13.066  13.599
41866SOL    HW227373   9.741  13.077  13.733
41867SOL     OW27374   1.411  10.440   1.932
41867SOL    HW127375   1.491  10.483   1.901
41867SOL    HW227376   1.370  10.503   1.991
41868SOL     OW27377   5.856   8.519   1.096
41868SOL    HW127378   5.851   8.571   1.015
41868SOL    HW227379   5.892   8.579   1.161
41869SOL     OW27380   5.641   6.404  10.234
41869SOL    HW127381   5.732   6.387  10.210
41869SOL    HW227382   5.596   6.321  10.215
41870SOL     OW27383   4.957   4.384  14.039
41870SOL    HW127384   5.018   4.446  14.000
41870SOL    HW227385   5.007   4.304  14.050
41871SOL     OW27386  11.388   2.879  13.210
41871SOL    HW127387  11.334   2.880  13.132
41871SOL    HW227388  11.477   2.865  13.178
41872SOL     OW27389  14.467   3.964  13.848
41872SOL    HW127390  14.507   3.880  13.872
41872SOL    HW227391  14.524   4.000  13.780
41873SOL     OW27392  11.696   5.838  14.643
41873SOL    HW127393  11.714   5.777  14.571
41873SOL    HW227394  11.607   5.868  14.626
41874SOL     OW27395  14.704   5.846   1.480
41874SOL    HW127396  14.776   5.843   1.417
41874SOL    HW227397  14.625   5.835   1.427
41875SOL     OW27398   2.656  10.404  13.287
41875SOL    HW127399   2.615  10.345  13.350
41875SOL    HW227400   2.582  10.438  13.235
41876SOL     OW27401  11.135   0.305  14.784
41876SOL    HW127402  11.117   0.288  14.877
41876SOL    HW227403  11.119   0.222  14.740
41877SOL     OW27404   3.760   3.563   0.746
41877SOL    HW127405   3.689   3.607   0.793
41877SOL    HW227406   3.795   3.630   0.688
41878SOL     OW27407  11.510   3.334   8.448
41878SOL    HW127408  11.594   3.348   8.403
41878SOL    HW227409  11.534   3.315   8.538
41879SOL     OW27410   6.909   2.670   2.961
41879SOL    HW127411   6.933   2.703   2.874
41879SOL    HW227412   6.957   2.588   2.969
41880SOL     OW27413   7.761  12.849  10.853
41880SOL    HW127414   7.807  12.768  10.833
41880SOL    HW227415   7.722  12.834  10.940
41881SOL     OW27416   6.545  13.666  12.777
41881SOL    HW127417   6.602  13.729  12.821
41881SOL    HW227418   6.605  13.609  12.729
41882SOL     OW27419   4.194   4.043   0.611
41882SOL    HW127420   4.121   4.105   0.620
41882SOL    HW227421   4.228   4.058   0.523
41883SOL     OW27422  14.679   3.120   2.567
41883SOL    HW127423  14.728   3.158   2.640
41883SOL    HW227424  14.672   3.192   2.503
41884SOL     OW27425  14.666   0.991  11.778
41884SOL    HW127426  14.607   0.999  11.853
41884SOL    HW227427  14.732   0.928  11.807
41885SOL     OW27428   6.154   9.133  14.208
41885SOL    HW127429   6.246   9.107  14.215
41885SOL    HW227430   6.134   9.126  14.115
41886SOL     OW27431   2.041  11.227  13.153
41886SOL    HW127432   1.955  11.187  13.144
41886SOL    HW227433   2.024  11.311  13.196
41887SOL     OW27434   0.596   7.658  13.090
41887SOL    HW127435   0.510   7.654  13.049
41887SOL    HW227436   0.599   7.581  13.148
41888SOL     OW27437  11.631  12.865   8.046
41888SOL    HW127438  11.679  12.814   7.980
41888SOL    HW227439  11.569  12.917   7.995
41889SOL     OW27440  11.575  13.063   9.347
41889SOL    HW127441  11.670  13.074   9.356
41889SOL    HW227442  11.538  13.120   9.414
41890SOL     OW27443   1.885   8.186   1.377
41890SOL    HW127444   1.917   8.267   1.417
41890SOL    HW227445   1.863   8.130   1.452
41891SOL     OW27446   4.127   0.274  11.589
41891SOL    HW127447   4.220   0.270  11.612
41891SOL    HW227448   4.126   0.305  11.499
41892SOL     OW27449   4.647   3.990   4.579
41892SOL    HW127450   4.618   3.902   4.600
41892SOL    HW227451   4.636   3.997   4.484
41893SOL     OW27452   2.605   1.012   3.429
41893SOL    HW127453   2.661   0.955   3.378
41893SOL    HW227454   2.539   0.953   3.467
41894SOL     OW27455   9.043  14.399   4.070
41894SOL    HW127456   9.093  14.475   4.101
41894SOL    HW227457   9.039  14.340   4.145
41895SOL     OW27458  14.208  10.593   3.964
41895SOL    HW127459  14.114  10.577   3.968
41895SOL    HW227460  14.225  10.614   3.872
41896SOL     OW27461   1.498   9.965  14.252
41896SOL    HW127462   1.519   9.872  14.256
41896SOL    HW227463   1.573  10.005  14.207
41897SOL     OW27464  12.412   2.720  12.689
41897SOL    HW127465  12.487   2.753  12.640
41897SOL    HW227466  12.417   2.767  12.773
41898SOL     OW27467   4.850   3.649  12.219
41898SOL    HW127468   4.945   3.637  12.229
41898SOL    HW227469   4.841   3.738  12.184
41899SOL     OW27470  14.403  11.023   7.669
41899SOL    HW127471  14.442  10.936   7.674
41899SOL    HW227472  14.354  11.032   7.751
41900SOL     OW27473  14.364   1.403   8.567
41900SOL    HW127474  14.381   1.373   8.657
41900SOL    HW227475  14.341   1.323   8.520
41901SOL     OW27476   6.772  14.807   2.161
41901SOL    HW127477   6.757  14.746   2.233
41901SOL    HW227478   6.824  14.757   2.098
41902SOL     OW27479   4.914   0.662   7.480
41902SOL    HW127480   4.838   0.715   7.458
41902SOL    HW227481   4.968   0.717   7.537
41903SOL     OW27482   8.051   4.020   3.830
41903SOL    HW127483   8.036   4.113   3.817
41903SOL    HW227484   7.999   3.998   3.907
41904SOL     OW27485  12.795   1.333   5.455
41904SOL    HW127486  12.876   1.371   5.421
41904SOL    HW227487  12.800   1.240   5.432
41905SOL     OW27488  12.561  10.777   4.703
41905SOL    HW127489  12.510  10.787   4.783
41905SOL    HW227490  12.495  10.773   4.633
41906SOL     OW27491   2.765   7.035   4.086
41906SOL    HW127492   2.754   7.125   4.117
41906SOL    HW227493   2.742   7.038   3.993
41907SOL     OW27494   6.576   2.579  14.589
41907SOL    HW127495   6.639   2.508  14.575
41907SOL    HW227496   6.532   2.556  14.672
41908SOL     OW27497   7.310   0.644   0.383
41908SOL    HW127498   7.336   0.596   0.461
41908SOL    HW227499   7.245   0.587   0.341
41909SOL     OW27500   5.499   1.199   9.088
41909SOL    HW127501   5.417   1.166   9.050
41909SOL    HW227502   5.480   1.290   9.111
41910SOL     OW27503  10.927   3.618   2.395
41910SOL    HW127504  10.937   3.551   2.462
41910SOL    HW227505  10.967   3.580   2.317
41911SOL     OW27506   0.722   3.405   4.616
41911SOL    HW127507   0.753   3.490   4.647
41911SOL    HW227508   0.628   3.405   4.634
41912SOL     OW27509   8.769  14.117   1.189
41912SOL    HW127510   8.807  14.107   1.276
41912SOL    HW227511   8.778  14.211   1.170
41913SOL     OW27512   4.899  10.197   1.613
41913SOL    HW127513   4.841  10.152   1.675
41913SOL    HW227514   4.914  10.283   1.651
41914SOL     OW27515   1.743   8.860   9.617
41914SOL    HW127516   1.770   8.769   9.621
41914SOL    HW227517   1.753   8.885   9.525
41915SOL     OW27518   5.223   0.415  13.040
41915SOL    HW127519   5.211   0.492  13.095
41915SOL    HW227520   5.316   0.395  13.047
41916SOL     OW27521  10.610   4.589   9.336
41916SOL    HW127522  10.568   4.504   9.347
41916SOL    HW227523  10.597   4.611   9.244
41917SOL     OW27524  12.816  12.245  13.918
41917SOL    HW127525  12.860  12.237  14.003
41917SOL    HW227526  12.724  12.230  13.937
41918SOL     OW27527   3.937   8.808  12.852
41918SOL    HW127528   3.851   8.766  12.864
41918SOL    HW227529   3.993   8.768  12.918
41919SOL     OW27530   7.766   6.548  11.168
41919SOL    HW127531   7.725   6.596  11.096
41919SOL    HW227532   7.768   6.611  11.240
41920SOL     OW27533   0.515   9.411  13.703
41920SOL    HW127534   0.500   9.367  13.787
41920SOL    HW227535   0.466   9.359  13.639
41921SOL     OW27536  13.927  14.340   3.321
41921SOL    HW127537  13.838  14.332   3.356
41921SOL    HW227538  13.921  14.409   3.255
41922SOL     OW27539  13.802  10.438   5.946
41922SOL    HW127540  13.791  10.488   5.865
41922SOL    HW227541  13.883  10.389   5.933
41923SOL     OW27542  14.740   0.196   4.896
41923SOL    HW127543  14.806   0.259   4.925
41923SOL    HW227544  14.721   0.220   4.806
41924SOL     OW27545  14.190   7.128  14.256
41924SOL    HW127546  14.165   7.083  14.337
41924SOL    HW227547  14.212   7.217  14.284
41925SOL     OW27548   0.974  14.379   3.770
41925SOL    HW127549   1.056  14.415   3.803
41925SOL    HW227550   0.957  14.427   3.690
41926SOL     OW27551   7.321   5.956  13.337
41926SOL    HW127552   7.374   5.939  13.259
41926SOL    HW227553   7.373   5.921  13.410
41927SOL     OW27554   8.310   2.414   9.376
41927SOL    HW127555   8.290   2.340   9.319
41927SOL    HW227556   8.350   2.479   9.318
41928SOL     OW27557  14.428   3.533  13.337
41928SOL    HW127558  14.335   3.547  13.324
41928SOL    HW227559  14.452   3.467  13.272
41929SOL     OW27560  10.079  13.792  12.961
41929SOL    HW127561  10.158  13.754  12.921
41929SOL    HW227562  10.008  13.733  12.934
41930SOL     OW27563  11.355   0.846   1.696
41930SOL    HW127564  11.415   0.909   1.654
41930SOL    HW227565  11.362   0.864   1.789
41931SOL     OW27566   0.256  14.129  13.488
41931SOL    HW127567   0.340  14.089  13.464
41931SOL    HW227568   0.192  14.058  13.481
41932SOL     OW27569  10.392   1.356   3.370
41932SOL    HW127570  10.315   1.387   3.417
41932SOL    HW227571  10.466   1.386   3.422
41933SOL     OW27572   8.831   9.292  10.488
41933SOL    HW127573   8.829   9.352  10.413
41933SOL    HW227574   8.807   9.347  10.563
41934SOL     OW27575   8.207   5.545  13.288
41934SOL    HW127576   8.230   5.458  13.318
41934SOL    HW227577   8.259   5.558  13.209
41935SOL     OW27578   3.439   1.476   8.433
41935SOL    HW127579   3.513   1.533   8.456
41935SOL    HW227580   3.367   1.508   8.487
41936SOL     OW27581   8.338  12.137  14.488
41936SOL    HW127582   8.410  12.075  14.494
41936SOL    HW227583   8.308  12.131  14.397
41937SOL     OW27584   7.478   8.370  12.016
41937SOL    HW127585   7.477   8.286  11.970
41937SOL    HW227586   7.502   8.347  12.106
41938SOL     OW27587   5.616   0.805  11.635
41938SOL    HW127588   5.560   0.761  11.572
41938SOL    HW227589   5.684   0.846  11.582
41939SOL     OW27590  11.818   4.696   1.475
41939SOL    HW127591  11.834   4.772   1.531
41939SOL    HW227592  11.723   4.685   1.476
41940SOL     OW27593  13.311  13.908  10.660
41940SOL    HW127594  13.266  13.859  10.591
41940SOL    HW227595  13.385  13.950  10.615
41941SOL     OW27596   1.450  13.752   6.023
41941SOL    HW127597   1.506  13.810   6.076
41941SOL    HW227598   1.431  13.803   5.944
41942SOL     OW27599  13.074  11.230   1.594
41942SOL    HW127600  13.047  11.263   1.679
41942SOL    HW227601  12.992  11.219   1.545
41943SOL     OW27602   0.678   4.018   5.653
41943SOL    HW127603   0.601   4.062   5.689
41943SOL    HW227604   0.750   4.079   5.667
41944SOL     OW27605   1.852  11.950   9.379
41944SOL    HW127606   1.900  11.908   9.450
41944SOL    HW227607   1.790  11.884   9.349
41945SOL     OW27608  13.364   9.261   6.582
41945SOL    HW127609  13.305   9.334   6.601
41945SOL    HW227610  13.433   9.299   6.528
41946SOL     OW27611   3.700   2.888   1.004
41946SOL    HW127612   3.645   2.812   1.024
41946SOL    HW227613   3.657   2.961   1.048
41947SOL     OW27614   1.445   3.537   5.080
41947SOL    HW127615   1.489   3.548   5.164
41947SOL    HW227616   1.381   3.608   5.077
41948SOL     OW27617   3.783   5.242   6.907
41948SOL    HW127618   3.729   5.166   6.929
41948SOL    HW227619   3.754   5.310   6.967
41949SOL     OW27620  13.089   2.167   4.946
41949SOL    HW127621  13.115   2.122   4.866
41949SOL    HW227622  12.993   2.164   4.946
41950SOL     OW27623   7.131   3.929   3.027
41950SOL    HW127624   7.062   3.876   3.066
41950SOL    HW227625   7.204   3.922   3.088
41951SOL     OW27626   5.250  14.636   6.163
41951SOL    HW127627   5.308  14.663   6.092
41951SOL    HW227628   5.284  14.684   6.240
41952SOL     OW27629   1.226  11.691   7.979
41952SOL    HW127630   1.164  11.648   8.039
41952SOL    HW227631   1.192  11.779   7.968
41953SOL     OW27632   0.178  14.451   7.577
41953SOL    HW127633   0.088  14.419   7.580
41953SOL    HW227634   0.175  14.535   7.622
41954SOL     OW27635  12.130   6.722  10.889
41954SOL    HW127636  12.111   6.798  10.944
41954SOL    HW227637  12.055   6.716  10.830
41955SOL     OW27638   0.118  12.129   8.628
41955SOL    HW127639   0.098  12.213   8.586
41955SOL    HW227640   0.207  12.108   8.598
41956SOL     OW27641   2.795   1.734   7.996
41956SOL    HW127642   2.760   1.648   7.974
41956SOL    HW227643   2.728   1.775   8.050
41957SOL     OW27644  13.537   7.335  12.221
41957SOL    HW127645  13.542   7.278  12.298
41957SOL    HW227646  13.445   7.359  12.215
41958SOL     OW27647   4.111   8.674   9.562
41958SOL    HW127648   4.098   8.579   9.565
41958SOL    HW227649   4.122   8.700   9.653
41959SOL     OW27650   1.218   4.366   4.913
41959SOL    HW127651   1.144   4.411   4.955
41959SOL    HW227652   1.293   4.389   4.968
41960SOL     OW27653   7.924  14.699   9.597
41960SOL    HW127654   8.004  14.721   9.548
41960SOL    HW227655   7.906  14.777   9.650
41961SOL     OW27656   9.700   1.834  14.825
41961SOL    HW127657   9.606   1.821  14.839
41961SOL    HW227658   9.736   1.745  14.819
41962SOL     OW27659   0.122   9.603   4.653
41962SOL    HW127660   0.068   9.540   4.606
41962SOL    HW227661   0.067   9.632   4.726
41963SOL     OW27662  13.897   0.483   8.800
41963SOL    HW127663  13.859   0.563   8.766
41963SOL    HW227664  13.833   0.450   8.862
41964SOL     OW27665   4.821   2.145   2.661
41964SOL    HW127666   4.734   2.133   2.622
41964SOL    HW227667   4.828   2.240   2.674
41965SOL     OW27668  14.390   3.932  12.843
41965SOL    HW127669  14.436   4.011  12.873
41965SOL    HW227670  14.399   3.934  12.748
41966SOL     OW27671   9.717   9.768   3.178
41966SOL    HW127672   9.672   9.827   3.117
41966SOL    HW227673   9.751   9.698   3.122
41967SOL     OW27674   7.152  13.910   4.062
41967SOL    HW127675   7.211  13.975   4.023
41967SOL    HW227676   7.197  13.826   4.048
41968SOL     OW27677   5.752   6.000   3.639
41968SOL    HW127678   5.689   6.071   3.624
41968SOL    HW227679   5.836   6.044   3.648
41969SOL     OW27680   5.105   3.603  12.193
41969SOL    HW127681   5.159   3.526  12.180
41969SOL    HW227682   5.142   3.669  12.135
41970SOL     OW27683   9.651   3.874   1.105
41970SOL    HW127684   9.616   3.835   1.025
41970SOL    HW227685   9.724   3.929   1.075
41971SOL     OW27686   6.894   1.625   8.173
41971SOL    HW127687   6.835   1.616   8.248
41971SOL    HW227688   6.836   1.638   8.099
41972SOL     OW27689   3.234   0.175   0.616
41972SOL    HW127690   3.206   0.241   0.552
41972SOL    HW227691   3.194   0.094   0.586
41973SOL     OW27692   2.616   5.528   7.839
41973SOL    HW127693   2.640   5.455   7.896
41973SOL    HW227694   2.546   5.573   7.886
41974SOL     OW27695  13.642  10.028   4.333
41974SOL    HW127696  13.625  10.102   4.276
41974SOL    HW227697  13.736  10.011   4.323
41975SOL     OW27698   5.688   8.333   9.185
41975SOL    HW127699   5.739   8.254   9.201
41975SOL    HW227700   5.631   8.341   9.261
41976SOL     OW27701  11.219   3.582  14.712
41976SOL    HW127702  11.306   3.541  14.709
41976SOL    HW227703  11.165   3.526  14.656
41977SOL     OW27704   5.508   6.066   2.820
41977SOL    HW127705   5.426   6.020   2.840
41977SOL    HW227706   5.493   6.103   2.732
41978SOL     OW27707   5.473  10.730   0.618
41978SOL    HW127708   5.444  10.685   0.538
41978SOL    HW227709   5.442  10.675   0.689
41979SOL     OW27710   5.871  12.360   3.715
41979SOL    HW127711   5.940  12.294   3.722
41979SOL    HW227712   5.915  12.443   3.735
41980SOL     OW27713  13.491   9.243  14.060
41980SOL    HW127714  13.502   9.216  13.969
41980SOL    HW227715  13.575   9.281  14.084
41981SOL     OW27716   2.022   8.950   0.755
41981SOL    HW127717   2.016   9.039   0.790
41981SOL    HW227718   1.933   8.928   0.728
41982SOL     OW27719   2.848   6.893   7.123
41982SOL    HW127720   2.796   6.954   7.069
41982SOL    HW227721   2.811   6.807   7.104
41983SOL     OW27722   4.616   5.143   0.417
41983SOL    HW127723   4.596   5.131   0.510
41983SOL    HW227724   4.691   5.203   0.416
41984SOL     OW27725   9.515   2.647   3.940
41984SOL    HW127726   9.487   2.582   3.876
41984SOL    HW227727   9.564   2.712   3.889
41985SOL     OW27728   5.567  12.826   3.141
41985SOL    HW127729   5.571  12.913   3.181
41985SOL    HW227730   5.592  12.767   3.212
41986SOL     OW27731  12.093   5.366   8.489
41986SOL    HW127732  12.120   5.400   8.403
41986SOL    HW227733  12.174   5.365   8.541
41987SOL     OW27734   3.154  14.475   2.178
41987SOL    HW127735   3.238  14.507   2.145
41987SOL    HW227736   3.101  14.461   2.099
41988SOL     OW27737  11.147   7.462   9.304
41988SOL    HW127738  11.108   7.381   9.271
41988SOL    HW227739  11.210   7.433   9.369
41989SOL     OW27740   8.746   5.999  12.466
41989SOL    HW127741   8.733   5.991  12.560
41989SOL    HW227742   8.744   5.909  12.434
41990SOL     OW27743  13.099   9.745   6.274
41990SOL    HW127744  13.060   9.661   6.298
41990SOL    HW227745  13.191   9.725   6.257
41991SOL     OW27746   3.025   4.422  13.826
41991SOL    HW127747   3.113   4.458  13.815
41991SOL    HW227748   3.002   4.387  13.740
41992SOL     OW27749   9.626   0.246  12.739
41992SOL    HW127750   9.674   0.282  12.665
41992SOL    HW227751   9.534   0.251  12.713
41993SOL     OW27752  14.044  12.494   7.452
41993SOL    HW127753  14.012  12.531   7.369
41993SOL    HW227754  14.108  12.558   7.483
41994SOL     OW27755  13.078   9.388   7.850
41994SOL    HW127756  13.169   9.392   7.879
41994SOL    HW227757  13.081   9.342   7.767
41995SOL     OW27758  13.467  13.858   3.728
41995SOL    HW127759  13.386  13.908   3.738
41995SOL    HW227760  13.529  13.901   3.787
41996SOL     OW27761   2.085   3.110   2.898
41996SOL    HW127762   2.099   3.157   2.815
41996SOL    HW227763   2.133   3.028   2.887
41997SOL     OW27764   1.999   1.901  14.572
41997SOL    HW127765   1.964   1.833  14.629
41997SOL    HW227766   1.974   1.983  14.613
41998SOL     OW27767   2.689   3.921  11.113
41998SOL    HW127768   2.726   4.009  11.121
41998SOL    HW227769   2.655   3.917  11.024
41999SOL     OW27770   3.533  11.225   0.231
41999SOL    HW127771   3.478  11.174   0.291
41999SOL    HW227772   3.575  11.159   0.176
42000SOL     OW27773  12.062   8.263  13.066
42000SOL    HW127774  12.145   8.287  13.024
42000SOL    HW227775  12.086   8.191  13.125
42001SOL     OW27776   7.881   1.915   6.663
42001SOL    HW127777   7.936   1.983   6.701
42001SOL    HW227778   7.931   1.834   6.674
42002SOL     OW27779   6.800  14.448   5.049
42002SOL    HW127780   6.894  14.461   5.033
42002SOL    HW227781   6.788  14.353   5.043
42003SOL     OW27782   2.101   0.445   2.461
42003SOL    HW127783   2.167   0.514   2.462
42003SOL    HW227784   2.029   0.480   2.409
42004SOL     OW27785  14.570  12.128   4.372
42004SOL    HW127786  14.597  12.037   4.386
42004SOL    HW227787  14.575  12.168   4.458
42005SOL     OW27788  11.133  11.564   9.967
42005SOL    HW127789  11.042  11.569   9.935
42005SOL    HW227790  11.134  11.622  10.044
42006SOL     OW27791   2.422   8.718   6.708
42006SOL    HW127792   2.461   8.763   6.634
42006SOL    HW227793   2.381   8.788   6.759
42007SOL     OW27794   9.663  12.589   9.826
42007SOL    HW127795   9.573  12.576   9.855
42007SOL    HW227796   9.708  12.626   9.903
42008SOL     OW27797   3.443  13.605   9.314
42008SOL    HW127798   3.437  13.691   9.271
42008SOL    HW227799   3.515  13.561   9.269
42009SOL     OW27800   3.582   1.765   1.818
42009SOL    HW127801   3.606   1.843   1.868
42009SOL    HW227802   3.641   1.697   1.851
42010SOL     OW27803  13.904   7.540  10.998
42010SOL    HW127804  13.887   7.554  11.091
42010SOL    HW227805  13.948   7.455  10.994
42011SOL     OW27806   1.063  11.288   2.709
42011SOL    HW127807   1.062  11.328   2.622
42011SOL    HW227808   1.096  11.199   2.693
42012SOL     OW27809  11.097  11.399   5.661
42012SOL    HW127810  11.162  11.460   5.695
42012SOL    HW227811  11.064  11.354   5.739
42013SOL     OW27812   7.506   7.052  12.182
42013SOL    HW127813   7.455   7.037  12.262
42013SOL    HW227814   7.469   6.991  12.119
42014SOL     OW27815   9.685   3.148   5.110
42014SOL    HW127816   9.655   3.180   5.195
42014SOL    HW227817   9.674   3.053   5.114
42015SOL     OW27818  14.240   3.995  14.270
42015SOL    HW127819  14.250   4.022  14.179
42015SOL    HW227820  14.218   3.902  14.265
42016SOL     OW27821   5.304  13.542   6.772
42016SOL    HW127822   5.332  13.630   6.796
42016SOL    HW227823   5.357  13.520   6.696
42017SOL     OW27824   0.367   5.164  14.082
42017SOL    HW127825   0.436   5.230  14.074
42017SOL    HW227826   0.304   5.202  14.142
42018SOL     OW27827  12.309  11.343   5.352
42018SOL    HW127828  12.215  11.343   5.368
42018SOL    HW227829  12.323  11.276   5.285
42019SOL     OW27830   9.199  14.422  13.665
42019SOL    HW127831   9.134  14.377  13.611
42019SOL    HW227832   9.282  14.380  13.643
42020SOL     OW27833   9.291  12.790   4.574
42020SOL    HW127834   9.227  12.780   4.645
42020SOL    HW227835   9.376  12.788   4.619
42021SOL     OW27836  11.823   7.966  13.935
42021SOL    HW127837  11.811   7.918  14.017
42021SOL    HW227838  11.898   8.023  13.952
42022SOL     OW27839   5.624  12.886   5.745
42022SOL    HW127840   5.597  12.808   5.793
42022SOL    HW227841   5.687  12.930   5.803
42023SOL     OW27842  14.747   1.063   1.165
42023SOL    HW127843  14.825   1.062   1.110
42023SOL    HW227844  14.765   1.001   1.235
42024SOL     OW27845  13.855   7.912  11.463
42024SOL    HW127846  13.867   7.996  11.419
42024SOL    HW227847  13.903   7.849  11.409
42025SOL     OW27848   2.905  13.840   2.565
42025SOL    HW127849   2.906  13.749   2.594
42025SOL    HW227850   2.817  13.871   2.586
42026SOL     OW27851  14.472   4.760   8.452
42026SOL    HW127852  14.492   4.704   8.378
42026SOL    HW227853  14.377   4.772   8.449
42027SOL     OW27854   3.030   5.125   1.017
42027SOL    HW127855   2.948   5.080   0.997
42027SOL    HW227856   3.091   5.094   0.950
42028SOL     OW27857  12.132   4.762   4.769
42028SOL    HW127858  12.077   4.840   4.774
42028SOL    HW227859  12.220   4.796   4.752
42029SOL     OW27860   2.330   4.687  14.711
42029SOL    HW127861   2.397   4.635  14.756
42029SOL    HW227862   2.376   4.725  14.636
42030SOL     OW27863   8.660   3.729   6.662
42030SOL    HW127864   8.734   3.787   6.643
42030SOL    HW227865   8.625   3.761   6.745
42031SOL     OW27866  13.904  11.468  12.357
42031SOL    HW127867  13.990  11.451  12.395
42031SOL    HW227868  13.845  11.408  12.402
42032SOL     OW27869  14.636   5.270   2.780
42032SOL    HW127870  14.589   5.196   2.817
42032SOL    HW227871  14.665   5.240   2.694
42033SOL     OW27872  14.794   2.124   9.844
42033SOL    HW127873  14.853   2.156   9.777
42033SOL    HW227874  14.846   2.061   9.894
42034SOL     OW27875  10.079   1.636  14.100
42034SOL    HW127876  10.113   1.658  14.186
42034SOL    HW227877  10.127   1.693  14.040
42035SOL     OW27878   8.576   8.813   0.915
42035SOL    HW127879   8.664   8.792   0.947
42035SOL    HW227880   8.540   8.872   0.981
42036SOL     OW27881  12.647   2.873   3.527
42036SOL    HW127882  12.595   2.880   3.607
42036SOL    HW227883  12.590   2.905   3.457
42037SOL     OW27884  10.352   8.134  12.552
42037SOL    HW127885  10.298   8.081  12.611
42037SOL    HW227886  10.330   8.102  12.464
42038SOL     OW27887   9.313   8.303   1.096
42038SOL    HW127888   9.299   8.355   1.176
42038SOL    HW227889   9.318   8.213   1.127
42039SOL     OW27890  10.765  14.123  11.869
42039SOL    HW127891  10.852  14.090  11.845
42039SOL    HW227892  10.777  14.163  11.955
42040SOL     OW27893  14.169   3.710  13.628
42040SOL    HW127894  14.176   3.650  13.554
42040SOL    HW227895  14.187   3.656  13.705
42041SOL     OW27896   1.122   6.141   3.394
42041SOL    HW127897   1.130   6.046   3.390
42041SOL    HW227898   1.109   6.168   3.303
42042SOL     OW27899   7.373   3.260  11.228
42042SOL    HW127900   7.455   3.271  11.179
42042SOL    HW227901   7.371   3.166  11.249
42043SOL     OW27902  11.798  10.048   3.796
42043SOL    HW127903  11.769   9.959   3.815
42043SOL    HW227904  11.894  10.042   3.795
42044SOL     OW27905  12.970   3.612   7.599
42044SOL    HW127906  12.959   3.654   7.513
42044SOL    HW227907  13.060   3.580   7.599
42045SOL     OW27908  14.749   1.523   4.511
42045SOL    HW127909  14.665   1.570   4.519
42045SOL    HW227910  14.759   1.477   4.595
42046SOL     OW27911   8.299  12.958   4.530
42046SOL    HW127912   8.295  12.924   4.620
42046SOL    HW227913   8.388  12.938   4.502
42047SOL     OW27914   0.839   8.788   5.545
42047SOL    HW127915   0.759   8.739   5.563
42047SOL    HW227916   0.874   8.747   5.466
42048SOL     OW27917   9.368  12.318   2.092
42048SOL    HW127918   9.387  12.332   2.185
42048SOL    HW227919   9.452  12.292   2.054
42049SOL     OW27920   0.240   8.774  11.046
42049SOL    HW127921   0.205   8.732  10.968
42049SOL    HW227922   0.216   8.716  11.118
42050SOL     OW27923  10.750   0.526   5.925
42050SOL    HW127924  10.677   0.495   5.872
42050SOL    HW227925  10.793   0.593   5.871
42051SOL     OW27926  11.223  11.827   8.164
42051SOL    HW127927  11.205  11.736   8.140
42051SOL    HW227928  11.210  11.876   8.083
42052SOL     OW27929   1.454   3.812   4.317
42052SOL    HW127930   1.499   3.817   4.233
42052SOL    HW227931   1.510   3.860   4.378
42053SOL     OW27932  10.966   8.227   0.132
42053SOL    HW127933  10.963   8.323   0.128
42053SOL    HW227934  11.059   8.206   0.138
42054SOL     OW27935   8.807   9.587   1.189
42054SOL    HW127936   8.881   9.589   1.249
42054SOL    HW227937   8.846   9.573   1.102
42055SOL     OW27938  10.691  14.510  11.823
42055SOL    HW127939  10.702  14.573  11.752
42055SOL    HW227940  10.653  14.433  11.780
42056SOL     OW27941  10.263   4.392   2.490
42056SOL    HW127942  10.358   4.390   2.503
42056SOL    HW227943  10.243   4.482   2.468
42057SOL     OW27944   3.174  13.999   0.826
42057SOL    HW127945   3.259  13.956   0.819
42057SOL    HW227946   3.195  14.090   0.850
42058SOL     OW27947   5.234   4.407   9.114
42058SOL    HW127948   5.303   4.393   9.178
42058SOL    HW227949   5.162   4.352   9.145
42059SOL     OW27950   1.725   3.075  11.306
42059SOL    HW127951   1.769   2.993  11.327
42059SOL    HW227952   1.632   3.051  11.298
42060SOL     OW27953   1.910   0.460   9.808
42060SOL    HW127954   1.945   0.548   9.800
42060SOL    HW227955   1.962   0.420   9.878
42061SOL     OW27956   3.486  11.504  12.587
42061SOL    HW127957   3.440  11.569  12.640
42061SOL    HW227958   3.559  11.553  12.548
42062SOL     OW27959   6.767   4.648   0.876
42062SOL    HW127960   6.747   4.699   0.797
42062SOL    HW227961   6.842   4.595   0.851
42063SOL     OW27962   7.490   3.695   8.473
42063SOL    HW127963   7.538   3.778   8.482
42063SOL    HW227964   7.407   3.720   8.432
42064SOL     OW27965  11.735   9.015   2.251
42064SOL    HW127966  11.827   9.008   2.227
42064SOL    HW227967  11.731   9.092   2.308
42065SOL     OW27968   3.889  10.346   9.054
42065SOL    HW127969   3.967  10.292   9.070
42065SOL    HW227970   3.824  10.284   9.020
42066SOL     OW27971   4.316  14.015   4.189
42066SOL    HW127972   4.228  14.050   4.206
42066SOL    HW227973   4.349  14.066   4.115
42067SOL     OW27974   9.103   5.178   8.335
42067SOL    HW127975   9.186   5.207   8.374
42067SOL    HW227976   9.051   5.149   8.410
42068SOL     OW27977   1.470   4.015   5.412
42068SOL    HW127978   1.428   4.100   5.426
42068SOL    HW227979   1.504   4.018   5.323
42069SOL     OW27980  12.751  12.215   3.692
42069SOL    HW127981  12.835  12.223   3.739
42069SOL    HW227982  12.714  12.132   3.724
42070SOL     OW27983   2.271   5.132   8.548
42070SOL    HW127984   2.287   5.167   8.635
42070SOL    HW227985   2.338   5.171   8.493
42071SOL     OW27986  12.882   5.936   8.387
42071SOL    HW127987  12.878   6.009   8.449
42071SOL    HW227988  12.843   5.971   8.307
42072SOL     OW27989   9.967  13.051  10.556
42072SOL    HW127990   9.932  12.964  10.577
42072SOL    HW227991  10.062  13.038  10.551
42073SOL     OW27992   2.517   4.056   2.055
42073SOL    HW127993   2.608   4.084   2.064
42073SOL    HW227994   2.523   3.965   2.027
42074SOL     OW27995   1.200   9.791   8.844
42074SOL    HW127996   1.184   9.852   8.917
42074SOL    HW227997   1.113   9.778   8.805
42075SOL     OW27998   5.439   2.038  14.569
42075SOL    HW127999   5.369   2.008  14.627
42075SOL    HW228000   5.394   2.072  14.492
42076SOL     OW28001   4.040   8.197  10.257
42076SOL    HW128002   3.960   8.180  10.208
42076SOL    HW228003   4.050   8.122  10.315
42077SOL     OW28004   6.421   7.751   6.554
42077SOL    HW128005   6.508   7.754   6.514
42077SOL    HW228006   6.377   7.679   6.508
42078SOL     OW28007  13.815   3.742   6.138
42078SOL    HW128008  13.908   3.723   6.142
42078SOL    HW228009  13.786   3.704   6.055
42079SOL     OW28010  14.795   2.864   6.689
42079SOL    HW128011  14.877   2.866   6.641
42079SOL    HW228012  14.794   2.779   6.732
42080SOL     OW28013   3.489   6.980   7.557
42080SOL    HW128014   3.394   6.978   7.543
42080SOL    HW228015   3.523   6.907   7.506
42081SOL     OW28016   4.953   4.119  14.230
42081SOL    HW128017   4.860   4.139  14.227
42081SOL    HW228018   4.979   4.113  14.138
42082SOL     OW28019   1.754   2.130   2.864
42082SOL    HW128020   1.670   2.138   2.909
42082SOL    HW228021   1.731   2.096   2.777
42083SOL     OW28022  10.120   0.189   6.253
42083SOL    HW128023  10.120   0.278   6.218
42083SOL    HW228024  10.032   0.177   6.288
42084SOL     OW28025   0.072  12.461   7.141
42084SOL    HW128026   0.020  12.413   7.077
42084SOL    HW228027   0.156  12.415   7.145
42085SOL     OW28028  14.264   1.434   1.209
42085SOL    HW128029  14.347   1.398   1.237
42085SOL    HW228030  14.286   1.492   1.136
42086SOL     OW28031   1.859   6.958  10.775
42086SOL    HW128032   1.766   6.973  10.759
42086SOL    HW228033   1.899   6.954  10.688
42087SOL     OW28034   2.318   5.758   6.863
42087SOL    HW128035   2.231   5.724   6.841
42087SOL    HW228036   2.360   5.774   6.779
42088SOL     OW28037  14.588   3.170  10.489
42088SOL    HW128038  14.589   3.209  10.576
42088SOL    HW228039  14.679   3.172  10.461
42089SOL     OW28040  14.264   5.572   7.253
42089SOL    HW128041  14.279   5.582   7.347
42089SOL    HW228042  14.180   5.617   7.237
42090SOL     OW28043   1.743   2.562   7.693
42090SOL    HW128044   1.735   2.480   7.644
42090SOL    HW228045   1.663   2.610   7.674
42091SOL     OW28046   9.430   0.607   2.464
42091SOL    HW128047   9.350   0.601   2.412
42091SOL    HW228048   9.468   0.692   2.440
42092SOL     OW28049   5.222  13.526   7.072
42092SOL    HW128050   5.254  13.437   7.060
42092SOL    HW228051   5.270  13.560   7.147
42093SOL     OW28052   6.245   5.474  13.498
42093SOL    HW128053   6.169   5.416  13.493
42093SOL    HW228054   6.275   5.481  13.407
42094SOL     OW28055  12.289  10.646  10.183
42094SOL    HW128056  12.276  10.642  10.088
42094SOL    HW228057  12.333  10.729  10.198
42095SOL     OW28058   8.158  11.693   2.678
42095SOL    HW128059   8.080  11.745   2.663
42095SOL    HW228060   8.214  11.712   2.602
42096SOL     OW28061   4.228   0.279   8.636
42096SOL    HW128062   4.317   0.315   8.636
42096SOL    HW228063   4.174   0.350   8.671
42097SOL     OW28064   1.529  11.211   6.264
42097SOL    HW128065   1.477  11.153   6.319
42097SOL    HW228066   1.505  11.299   6.292
42098SOL     OW28067  12.462   7.199  13.737
42098SOL    HW128068  12.509   7.279  13.711
42098SOL    HW228069  12.520   7.128  13.711
42099SOL     OW28070   1.394   4.012   6.568
42099SOL    HW128071   1.313   3.963   6.587
42099SOL    HW228072   1.378   4.052   6.483
42100SOL     OW28073   3.339   2.511  10.912
42100SOL    HW128074   3.342   2.576  10.842
42100SOL    HW228075   3.387   2.552  10.984
42101SOL     OW28076   3.772   5.841  10.895
42101SOL    HW128077   3.693   5.791  10.874
42101SOL    HW228078   3.748   5.891  10.974
42102SOL     OW28079   2.744   8.170   7.212
42102SOL    HW128080   2.669   8.110   7.219
42102SOL    HW228081   2.707   8.256   7.230
42103SOL     OW28082   6.442  12.633  13.944
42103SOL    HW128083   6.441  12.688  13.866
42103SOL    HW228084   6.520  12.579  13.935
42104SOL     OW28085   6.372   0.726   2.738
42104SOL    HW128086   6.301   0.767   2.787
42104SOL    HW228087   6.427   0.685   2.805
42105SOL     OW28088   7.657   4.354   6.303
42105SOL    HW128089   7.578   4.390   6.262
42105SOL    HW228090   7.679   4.417   6.371
42106SOL     OW28091   7.335   8.152  10.981
42106SOL    HW128092   7.245   8.183  10.992
42106SOL    HW228093   7.328   8.075  10.924
42107SOL     OW28094   1.421   4.515  11.848
42107SOL    HW128095   1.431   4.466  11.930
42107SOL    HW228096   1.410   4.606  11.876
42108SOL     OW28097  14.706  10.923   6.934
42108SOL    HW128098  14.706  10.836   6.892
42108SOL    HW228099  14.675  10.982   6.865
42109SOL     OW28100  12.924   4.948   2.306
42109SOL    HW128101  12.954   4.866   2.268
42109SOL    HW228102  12.996   4.976   2.363
42110SOL     OW28103   8.509  12.107   1.516
42110SOL    HW128104   8.550  12.095   1.601
42110SOL    HW228105   8.468  12.023   1.495
42111SOL     OW28106  11.888  12.184   5.487
42111SOL    HW128107  11.914  12.275   5.503
42111SOL    HW228108  11.950  12.152   5.421
42112SOL     OW28109   4.457  13.352   6.867
42112SOL    HW128110   4.504  13.312   6.794
42112SOL    HW228111   4.515  13.341   6.942
42113SOL     OW28112   0.826   4.988  13.357
42113SOL    HW128113   0.866   5.020  13.275
42113SOL    HW228114   0.732   4.987  13.339
42114SOL     OW28115  14.505   9.396   1.374
42114SOL    HW128116  14.485   9.411   1.282
42114SOL    HW228117  14.570   9.326   1.374
42115SOL     OW28118  14.526   4.384   6.048
42115SOL    HW128119  14.564   4.393   6.135
42115SOL    HW228120  14.496   4.293   6.044
42116SOL     OW28121  12.973   0.594   9.052
42116SOL    HW128122  12.992   0.535   8.979
42116SOL    HW228123  13.046   0.657   9.051
42117SOL     OW28124  12.307  13.076  13.699
42117SOL    HW128125  12.275  13.002  13.647
42117SOL    HW228126  12.305  13.150  13.638
42118SOL     OW28127   0.353  12.039  13.903
42118SOL    HW128128   0.292  12.041  13.830
42118SOL    HW228129   0.417  11.971  13.881
42119SOL     OW28130   7.400   6.875  12.012
42119SOL    HW128131   7.454   6.806  11.974
42119SOL    HW228132   7.357   6.917  11.938
42120SOL     OW28133  11.386   2.383  12.004
42120SOL    HW128134  11.466   2.332  12.004
42120SOL    HW228135  11.414   2.473  11.989
42121SOL     OW28136   1.921   0.769   9.383
42121SOL    HW128137   1.837   0.790   9.425
42121SOL    HW228138   1.914   0.807   9.296
42122SOL     OW28139   3.202   2.003   7.343
42122SOL    HW128140   3.120   2.034   7.305
42122SOL    HW228141   3.185   2.001   7.437
42123SOL     OW28142   8.601   6.025  13.867
42123SOL    HW128143   8.544   5.948  13.863
42123SOL    HW228144   8.553   6.088  13.920
42124SOL     OW28145  12.723   5.950  11.393
42124SOL    HW128146  12.772   5.875  11.357
42124SOL    HW228147  12.648   5.910  11.436
42125SOL     OW28148   5.472  12.554   8.290
42125SOL    HW128149   5.450  12.642   8.320
42125SOL    HW228150   5.389  12.508   8.285
42126SOL     OW28151  10.912  13.518  12.316
42126SOL    HW128152  10.922  13.496  12.223
42126SOL    HW228153  10.855  13.450  12.350
42127SOL     OW28154   4.892   1.458   2.421
42127SOL    HW128155   4.801   1.467   2.450
42127SOL    HW228156   4.904   1.528   2.356
42128SOL     OW28157   1.562  12.067   1.975
42128SOL    HW128158   1.542  12.160   1.990
42128SOL    HW228159   1.491  12.037   1.918
42129SOL     OW28160   7.653   1.525  13.250
42129SOL    HW128161   7.700   1.501  13.170
42129SOL    HW228162   7.570   1.477  13.244
42130SOL     OW28163   9.203  14.314   2.312
42130SOL    HW128164   9.211  14.219   2.311
42130SOL    HW228165   9.268  14.343   2.376
42131SOL     OW28166   0.492   3.591  11.479
42131SOL    HW128167   0.402   3.587  11.446
42131SOL    HW228168   0.494   3.668  11.534
42132SOL     OW28169  12.024   2.867  12.641
42132SOL    HW128170  11.968   2.815  12.698
42132SOL    HW228171  12.039   2.812  12.564
42133SOL     OW28172  12.574   5.813  12.648
42133SOL    HW128173  12.652   5.784  12.601
42133SOL    HW228174  12.509   5.745  12.632
42134SOL     OW28175   9.192   5.700  14.580
42134SOL    HW128176   9.227   5.698  14.491
42134SOL    HW228177   9.108   5.655  14.574
42135SOL     OW28178   7.891   9.973  10.031
42135SOL    HW128179   7.865  10.012   9.947
42135SOL    HW228180   7.866  10.038  10.097
42136SOL     OW28181   5.071  11.842  11.096
42136SOL    HW128182   5.025  11.794  11.166
42136SOL    HW228183   5.126  11.776  11.054
42137SOL     OW28184   1.648   1.999  11.644
42137SOL    HW128185   1.726   1.955  11.679
42137SOL    HW228186   1.674   2.029  11.557
42138SOL     OW28187  11.878   2.125   1.352
42138SOL    HW128188  11.904   2.216   1.335
42138SOL    HW228189  11.864   2.122   1.446
42139SOL     OW28190   7.637   5.003  13.361
42139SOL    HW128191   7.652   5.062  13.288
42139SOL    HW228192   7.579   4.935  13.325
42140SOL     OW28193  14.149   4.987   4.696
42140SOL    HW128194  14.203   4.925   4.745
42140SOL    HW228195  14.060   4.970   4.725
42141SOL     OW28196   1.489   7.683   0.975
42141SOL    HW128197   1.484   7.768   0.932
42141SOL    HW228198   1.444   7.696   1.058
42142SOL     OW28199   9.927   3.158   4.759
42142SOL    HW128200   9.939   3.241   4.806
42142SOL    HW228201  10.015   3.121   4.752
42143SOL     OW28202   3.852   2.831  11.895
42143SOL    HW128203   3.874   2.760  11.955
42143SOL    HW228204   3.761   2.853  11.915
42144SOL     OW28205   0.450  12.224   7.939
42144SOL    HW128206   0.379  12.289   7.936
42144SOL    HW228207   0.470  12.205   7.848
42145SOL     OW28208   2.127   0.517   5.065
42145SOL    HW128209   2.188   0.555   5.129
42145SOL    HW228210   2.114   0.427   5.095
42146SOL     OW28211   1.064   1.043   8.047
42146SOL    HW128212   1.105   1.070   8.129
42146SOL    HW228213   0.976   1.080   8.051
42147SOL     OW28214   6.077   7.991  11.804
42147SOL    HW128215   6.128   8.054  11.753
42147SOL    HW228216   6.142   7.938  11.850
42148SOL     OW28217   9.138   6.594  12.685
42148SOL    HW128218   9.096   6.513  12.713
42148SOL    HW228219   9.226   6.568  12.659
42149SOL     OW28220   3.449   5.090   2.214
42149SOL    HW128221   3.509   5.136   2.273
42149SOL    HW228222   3.365   5.090   2.260
42150SOL     OW28223  12.501   9.692   7.345
42150SOL    HW128224  12.523   9.632   7.417
42150SOL    HW228225  12.583   9.700   7.295
42151SOL     OW28226   2.290  11.188   9.345
42151SOL    HW128227   2.309  11.245   9.271
42151SOL    HW228228   2.225  11.126   9.311
42152SOL     OW28229   6.034  14.612   6.259
42152SOL    HW128230   5.971  14.552   6.299
42152SOL    HW228231   6.082  14.559   6.196
42153SOL     OW28232   1.743  12.196  11.302
42153SOL    HW128233   1.655  12.192  11.266
42153SOL    HW228234   1.731  12.192  11.396
42154SOL     OW28235   5.112   6.260  12.338
42154SOL    HW128236   5.100   6.165  12.338
42154SOL    HW228237   5.107   6.285  12.246
42155SOL     OW28238   6.594   0.206   6.506
42155SOL    HW128239   6.571   0.295   6.534
42155SOL    HW228240   6.569   0.151   6.580
42156SOL     OW28241  13.122   0.344   5.003
42156SOL    HW128242  13.089   0.344   4.914
42156SOL    HW228243  13.137   0.252   5.024
42157SOL     OW28244   2.116   5.425   8.922
42157SOL    HW128245   2.158   5.504   8.887
42157SOL    HW228246   2.023   5.438   8.906
42158SOL     OW28247   2.396   0.418  12.253
42158SOL    HW128248   2.416   0.496  12.305
42158SOL    HW228249   2.481   0.393  12.215
42159SOL     OW28250   9.723   1.336   1.534
42159SOL    HW128251   9.796   1.275   1.550
42159SOL    HW228252   9.764   1.423   1.536
42160SOL     OW28253   1.484   1.618  11.689
42160SOL    HW128254   1.428   1.561  11.636
42160SOL    HW228255   1.570   1.577  11.685
42161SOL     OW28256   0.752   4.881  10.921
42161SOL    HW128257   0.787   4.959  10.964
42161SOL    HW228258   0.828   4.842  10.877
42162SOL     OW28259   1.465   9.642   5.834
42162SOL    HW128260   1.371   9.646   5.852
42162SOL    HW228261   1.471   9.599   5.749
42163SOL     OW28262   5.571  10.867  13.557
42163SOL    HW128263   5.618  10.816  13.623
42163SOL    HW228264   5.483  10.829  13.555
42164SOL     OW28265   3.533   7.332   9.017
42164SOL    HW128266   3.583   7.405   8.982
42164SOL    HW228267   3.575   7.254   8.978
42165SOL     OW28268   3.603   5.976   7.034
42165SOL    HW128269   3.542   5.928   7.091
42165SOL    HW228270   3.671   6.006   7.094
42166SOL     OW28271   3.893   9.752   3.698
42166SOL    HW128272   3.931   9.666   3.716
42166SOL    HW228273   3.833   9.767   3.771
42167SOL     OW28274   2.067   5.576  10.711
42167SOL    HW128275   2.014   5.501  10.684
42167SOL    HW228276   2.045   5.645  10.648
42168SOL     OW28277   0.270   2.046  12.030
42168SOL    HW128278   0.355   2.085  12.012
42168SOL    HW228279   0.283   1.996  12.112
42169SOL     OW28280   5.227   5.674   8.752
42169SOL    HW128281   5.217   5.765   8.777
42169SOL    HW228282   5.262   5.631   8.830
42170SOL     OW28283  11.374  10.112   8.464
42170SOL    HW128284  11.290  10.079   8.496
42170SOL    HW228285  11.356  10.203   8.440
42171SOL     OW28286  12.992   0.222  14.863
42171SOL    HW128287  13.057   0.283  14.826
42171SOL    HW228288  12.912   0.274  14.868
42172SOL     OW28289   5.229   4.976   3.127
42172SOL    HW128290   5.310   4.925   3.116
42172SOL    HW228291   5.160   4.910   3.135
42173SOL     OW28292   1.040   8.284  11.540
42173SOL    HW128293   0.986   8.207  11.559
42173SOL    HW228294   1.122   8.268  11.586
42174SOL     OW28295  10.404   1.158   2.102
42174SOL    HW128296  10.495   1.179   2.081
42174SOL    HW228297  10.353   1.212   2.042
42175SOL     OW28298   6.502  11.193  10.757
42175SOL    HW128299   6.483  11.272  10.706
42175SOL    HW228300   6.532  11.226  10.842
42176SOL     OW28301   8.478  14.354   9.106
42176SOL    HW128302   8.461  14.446   9.088
42176SOL    HW228303   8.402  14.308   9.070
42177SOL     OW28304   5.103  11.014  14.022
42177SOL    HW128305   5.102  11.102  13.983
42177SOL    HW228306   5.028  10.970  13.982
42178SOL     OW28307   0.556   4.031  14.378
42178SOL    HW128308   0.522   4.029  14.467
42178SOL    HW228309   0.567   3.939  14.354
42179SOL     OW28310   7.963   7.656   8.327
42179SOL    HW128311   7.890   7.716   8.341
42179SOL    HW228312   8.000   7.642   8.414
42180SOL     OW28313   8.464  14.726   5.743
42180SOL    HW128314   8.533  14.790   5.724
42180SOL    HW228315   8.385  14.764   5.705
42181SOL     OW28316   0.179   2.476   9.835
42181SOL    HW128317   0.155   2.428   9.755
42181SOL    HW228318   0.106   2.459   9.895
42182SOL     OW28319   5.302  10.689   6.919
42182SOL    HW128320   5.332  10.680   6.828
42182SOL    HW228321   5.339  10.613   6.964
42183SOL     OW28322  13.821   2.809   6.662
42183SOL    HW128323  13.908   2.836   6.692
42183SOL    HW228324  13.838   2.748   6.591
42184SOL     OW28325   5.227  12.685   0.633
42184SOL    HW128326   5.310  12.732   0.628
42184SOL    HW228327   5.176  12.732   0.699
42185SOL     OW28328  13.716   8.069  12.493
42185SOL    HW128329  13.651   8.134  12.469
42185SOL    HW228330  13.677   8.021  12.566
42186SOL     OW28331   6.261   9.408   4.411
42186SOL    HW128332   6.184   9.410   4.354
42186SOL    HW228333   6.298   9.321   4.399
42187SOL     OW28334   2.780  13.963   9.470
42187SOL    HW128335   2.823  13.983   9.386
42187SOL    HW228336   2.774  13.868   9.472
42188SOL     OW28337   3.991   9.849  13.987
42188SOL    HW128338   4.084   9.867  14.004
42188SOL    HW228339   3.991   9.798  13.906
42189SOL     OW28340   4.472   6.561  12.425
42189SOL    HW128341   4.464   6.572  12.520
42189SOL    HW228342   4.550   6.506  12.414
42190SOL     OW28343   1.119   6.986  10.645
42190SOL    HW128344   1.087   6.943  10.725
42190SOL    HW228345   1.176   7.055  10.676
42191SOL     OW28346  12.318   2.233   4.241
42191SOL    HW128347  12.273   2.312   4.211
42191SOL    HW228348  12.356   2.257   4.325
42192SOL     OW28349   7.706   4.435   2.416
42192SOL    HW128350   7.791   4.469   2.444
42192SOL    HW228351   7.651   4.443   2.494
42193SOL     OW28352   5.806   5.458   5.105
42193SOL    HW128353   5.740   5.506   5.153
42193SOL    HW228354   5.830   5.386   5.163
42194SOL     OW28355   4.645   9.087   6.678
42194SOL    HW128356   4.683   9.055   6.760
42194SOL    HW228357   4.615   9.176   6.699
42195SOL     OW28358   1.206   6.043  10.359
42195SOL    HW128359   1.292   6.054  10.318
42195SOL    HW228360   1.216   6.080  10.446
42196SOL     OW28361   3.572  10.513   1.394
42196SOL    HW128362   3.478  10.503   1.375
42196SOL    HW228363   3.586  10.465   1.475
42197SOL     OW28364  14.322  14.400   2.094
42197SOL    HW128365  14.361  14.322   2.133
42197SOL    HW228366  14.295  14.372   2.006
42198SOL     OW28367   8.856   6.728   3.292
42198SOL    HW128368   8.790   6.794   3.313
42198SOL    HW228369   8.932   6.753   3.344
42199SOL     OW28370  11.893  10.254   7.286
42199SOL    HW128371  11.983  10.246   7.254
42199SOL    HW228372  11.902  10.300   7.370
42200SOL     OW28373   3.310  13.560   8.004
42200SOL    HW128374   3.401  13.589   7.994
42200SOL    HW228375   3.314  13.490   8.068
42201SOL     OW28376   1.588   0.939   6.960
42201SOL    HW128377   1.683   0.932   6.944
42201SOL    HW228378   1.579   0.926   7.054
42202SOL     OW28379   4.308  11.131   4.568
42202SOL    HW128380   4.291  11.158   4.658
42202SOL    HW228381   4.316  11.035   4.573
42203SOL     OW28382   2.373   0.878  13.258
42203SOL    HW128383   2.290   0.906  13.220
42203SOL    HW228384   2.351   0.848  13.346
42204SOL     OW28385   6.932   6.503   3.845
42204SOL    HW128386   6.868   6.515   3.776
42204SOL    HW228387   6.916   6.574   3.907
42205SOL     OW28388   4.157   8.314   8.995
42205SOL    HW128389   4.173   8.267   9.077
42205SOL    HW228390   4.191   8.402   9.011
42206SOL     OW28391   4.530   4.397   0.879
42206SOL    HW128392   4.582   4.394   0.799
42206SOL    HW228393   4.440   4.415   0.849
42207SOL     OW28394   1.260  10.497   1.001
42207SOL    HW128395   1.234  10.411   1.034
42207SOL    HW228396   1.294  10.479   0.913
42208SOL     OW28397   8.819   1.870   3.353
42208SOL    HW128398   8.849   1.954   3.319
42208SOL    HW228399   8.841   1.873   3.446
42209SOL     OW28400   8.368   3.430  11.110
42209SOL    HW128401   8.397   3.358  11.167
42209SOL    HW228402   8.282   3.402  11.078
42210SOL     OW28403  12.647  10.520  13.395
42210SOL    HW128404  12.567  10.559  13.431
42210SOL    HW228405  12.708  10.518  13.469
42211SOL     OW28406   0.925  13.763  14.009
42211SOL    HW128407   1.006  13.780  13.959
42211SOL    HW228408   0.860  13.822  13.969
42212SOL     OW28409   1.764   5.924  13.702
42212SOL    HW128410   1.770   5.979  13.780
42212SOL    HW228411   1.713   5.976  13.640
42213SOL     OW28412   8.609  11.407   0.519
42213SOL    HW128413   8.555  11.334   0.488
42213SOL    HW228414   8.566  11.436   0.600
42214SOL     OW28415   0.268  12.248   5.525
42214SOL    HW128416   0.208  12.246   5.599
42214SOL    HW228417   0.331  12.317   5.547
42215SOL     OW28418   9.788  12.590  11.516
42215SOL    HW128419   9.858  12.652  11.534
42215SOL    HW228420   9.799  12.566  11.424
42216SOL     OW28421  13.616   7.617   0.728
42216SOL    HW128422  13.528   7.630   0.691
42216SOL    HW228423  13.625   7.687   0.792
42217SOL     OW28424   2.012  13.163   5.575
42217SOL    HW128425   2.013  13.259   5.571
42217SOL    HW228426   1.941  13.143   5.635
42218SOL     OW28427   9.186  11.567   1.288
42218SOL    HW128428   9.130  11.561   1.365
42218SOL    HW228429   9.150  11.639   1.237
42219SOL     OW28430   3.576   8.017   0.631
42219SOL    HW128431   3.516   7.964   0.578
42219SOL    HW228432   3.529   8.100   0.643
42220SOL     OW28433   2.233  14.136   2.426
42220SOL    HW128434   2.173  14.104   2.494
42220SOL    HW228435   2.191  14.110   2.343
42221SOL     OW28436   5.918   8.449   3.466
42221SOL    HW128437   5.963   8.523   3.426
42221SOL    HW228438   5.864   8.489   3.535
42222SOL     OW28439  11.618  12.332  14.230
42222SOL    HW128440  11.687  12.384  14.189
42222SOL    HW228441  11.539  12.386  14.222
42223SOL     OW28442  10.629   6.866  13.610
42223SOL    HW128443  10.609   6.934  13.674
42223SOL    HW228444  10.691   6.809  13.656
42224SOL     OW28445   8.647   5.659  10.962
42224SOL    HW128446   8.713   5.590  10.965
42224SOL    HW228447   8.628   5.671  10.869
42225SOL     OW28448   2.570   1.134   8.738
42225SOL    HW128449   2.666   1.127   8.734
42225SOL    HW228450   2.538   1.060   8.688
42226SOL     OW28451  13.137  12.406   9.886
42226SOL    HW128452  13.107  12.325   9.927
42226SOL    HW228453  13.067  12.468   9.903
42227SOL     OW28454   5.893  12.799   8.520
42227SOL    HW128455   5.812  12.829   8.562
42227SOL    HW228456   5.890  12.836   8.432
42228SOL     OW28457   1.204  11.187   5.904
42228SOL    HW128458   1.295  11.166   5.923
42228SOL    HW228459   1.194  11.278   5.932
42229SOL     OW28460   3.421   7.288   9.865
42229SOL    HW128461   3.374   7.209   9.834
42229SOL    HW228462   3.403   7.291   9.959
42230SOL     OW28463   7.185  14.631   4.558
42230SOL    HW128464   7.134  14.675   4.490
42230SOL    HW228465   7.170  14.683   4.637
42231SOL     OW28466   8.059  14.205   5.638
42231SOL    HW128467   8.110  14.124   5.626
42231SOL    HW228468   8.124  14.270   5.665
42232SOL     OW28469   3.305   5.639   6.986
42232SOL    HW128470   3.301   5.546   6.965
42232SOL    HW228471   3.398   5.658   6.998
42233SOL     OW28472  13.444   3.745   3.628
42233SOL    HW128473  13.408   3.690   3.697
42233SOL    HW228474  13.447   3.688   3.551
42234SOL     OW28475  13.247   6.951   4.208
42234SOL    HW128476  13.240   6.934   4.302
42234SOL    HW228477  13.157   6.955   4.177
42235SOL     OW28478  11.354   1.470  13.927
42235SOL    HW128479  11.385   1.401  13.869
42235SOL    HW228480  11.380   1.551  13.884
42236SOL     OW28481   1.447  12.158   1.495
42236SOL    HW128482   1.491  12.089   1.546
42236SOL    HW228483   1.489  12.239   1.522
42237SOL     OW28484   4.163   2.141  13.865
42237SOL    HW128485   4.193   2.226  13.833
42237SOL    HW228486   4.227   2.115  13.930
42238SOL     OW28487   7.118   5.018   3.756
42238SOL    HW128488   7.190   4.994   3.814
42238SOL    HW228489   7.161   5.053   3.678
42239SOL     OW28490   0.049   0.210  10.949
42239SOL    HW128491   0.092   0.267  10.885
42239SOL    HW228492  14.871   0.268  11.000
42240SOL     OW28493  10.967   4.808   0.863
42240SOL    HW128494  10.968   4.783   0.955
42240SOL    HW228495  10.875   4.803   0.837
42241SOL     OW28496  10.384   8.754  14.083
42241SOL    HW128497  10.411   8.838  14.120
42241SOL    HW228498  10.402   8.761  13.990
42242SOL     OW28499   8.638  14.395  12.117
42242SOL    HW128500   8.720  14.404  12.069
42242SOL    HW228501   8.571  14.422  12.054
42243SOL     OW28502  14.291  14.769   3.536
42243SOL    HW128503  14.278  14.767   3.631
42243SOL    HW228504  14.372  14.719   3.522
42244SOL     OW28505   7.002   6.844  12.757
42244SOL    HW128506   7.070   6.908  12.776
42244SOL    HW228507   7.004   6.835  12.662
42245SOL     OW28508   8.496  10.894   6.476
42245SOL    HW128509   8.415  10.925   6.437
42245SOL    HW228510   8.565  10.944   6.431
42246SOL     OW28511   2.144   1.987   5.053
42246SOL    HW128512   2.075   2.053   5.060
42246SOL    HW228513   2.147   1.945   5.139
42247SOL     OW28514   7.521  14.577   8.200
42247SOL    HW128515   7.485  14.559   8.287
42247SOL    HW228516   7.517  14.492   8.155
42248SOL     OW28517   4.294   8.349  10.335
42248SOL    HW128518   4.332   8.366  10.248
42248SOL    HW228519   4.200   8.340  10.318
42249SOL     OW28520  11.712   4.375   5.659
42249SOL    HW128521  11.656   4.329   5.597
42249SOL    HW228522  11.663   4.373   5.742
42250SOL     OW28523   8.633   9.552  10.610
42250SOL    HW128524   8.697   9.546  10.680
42250SOL    HW228525   8.580   9.472  10.618
42251SOL     OW28526  13.159   7.677   7.753
42251SOL    HW128527  13.199   7.729   7.822
42251SOL    HW228528  13.092   7.625   7.797
42252SOL     OW28529   1.813   2.298   5.909
42252SOL    HW128530   1.820   2.381   5.861
42252SOL    HW228531   1.797   2.233   5.840
42253SOL     OW28532   0.526   1.645  10.710
42253SOL    HW128533   0.484   1.564  10.682
42253SOL    HW228534   0.558   1.628  10.798
42254SOL     OW28535  12.065   6.601  14.084
42254SOL    HW128536  12.054   6.640  14.170
42254SOL    HW228537  11.976   6.594  14.050
42255SOL     OW28538   3.644   6.083   1.654
42255SOL    HW128539   3.726   6.058   1.697
42255SOL    HW228540   3.577   6.027   1.695
42256SOL     OW28541  10.987  14.389  13.165
42256SOL    HW128542  11.007  14.439  13.244
42256SOL    HW228543  10.999  14.298  13.189
42257SOL     OW28544  14.723  13.439  10.939
42257SOL    HW128545  14.803  13.409  10.982
42257SOL    HW228546  14.665  13.463  11.012
42258SOL     OW28547   0.241   5.354   5.309
42258SOL    HW128548   0.155   5.396   5.316
42258SOL    HW228549   0.280   5.392   5.231
42259SOL     OW28550   4.874   0.919   2.063
42259SOL    HW128551   4.830   0.837   2.086
42259SOL    HW228552   4.962   0.892   2.038
42260SOL     OW28553  11.782  11.802   1.923
42260SOL    HW128554  11.757  11.889   1.893
42260SOL    HW228555  11.719  11.783   1.993
42261SOL     OW28556  11.135  10.299  11.405
42261SOL    HW128557  11.109  10.386  11.373
42261SOL    HW228558  11.181  10.260  11.331
42262SOL     OW28559   4.879  14.875  14.497
42262SOL    HW128560   4.925   0.037  14.423
42262SOL    HW228561   4.897  14.781  14.490
42263SOL     OW28562   3.312   4.580   3.574
42263SOL    HW128563   3.296   4.662   3.620
42263SOL    HW228564   3.397   4.592   3.531
42264SOL     OW28565  13.056   7.624   4.698
42264SOL    HW128566  13.151   7.619   4.684
42264SOL    HW228567  13.046   7.614   4.792
42265SOL     OW28568   6.972   3.644   9.023
42265SOL    HW128569   6.894   3.659   8.970
42265SOL    HW228570   7.045   3.649   8.961
42266SOL     OW28571   6.336   9.225   7.369
42266SOL    HW128572   6.361   9.132   7.364
42266SOL    HW228573   6.286   9.232   7.450
42267SOL     OW28574   9.354   4.954   9.234
42267SOL    HW128575   9.411   5.024   9.264
42267SOL    HW228576   9.285   4.998   9.185
42268SOL     OW28577   4.761   7.432  11.444
42268SOL    HW128578   4.789   7.485  11.370
42268SOL    HW228579   4.725   7.353  11.404
42269SOL     OW28580  10.361   6.779   1.820
42269SOL    HW128581  10.399   6.762   1.906
42269SOL    HW228582  10.391   6.706   1.766
42270SOL     OW28583   7.626  12.140  12.296
42270SOL    HW128584   7.533  12.150  12.274
42270SOL    HW228585   7.668  12.216  12.258
42271SOL     OW28586   1.195  10.143   0.250
42271SOL    HW128587   1.127  10.076   0.256
42271SOL    HW228588   1.265  10.101   0.200
42272SOL     OW28589   6.793   2.623   4.831
42272SOL    HW128590   6.832   2.580   4.908
42272SOL    HW228591   6.699   2.619   4.846
42273SOL     OW28592  14.824   4.640   8.253
42273SOL    HW128593   0.021   4.687   8.291
42273SOL    HW228594  14.834   4.652   8.159
42274SOL     OW28595   9.110   1.460  11.403
42274SOL    HW128596   9.029   1.508  11.385
42274SOL    HW228597   9.171   1.527  11.434
42275SOL     OW28598   0.665   3.067  11.435
42275SOL    HW128599   0.750   3.102  11.408
42275SOL    HW228600   0.671   2.973  11.418
42276SOL     OW28601   5.373   0.795   2.378
42276SOL    HW128602   5.431   0.791   2.453
42276SOL    HW228603   5.399   0.722   2.322
42277SOL     OW28604  11.555  12.626   4.402
42277SOL    HW128605  11.487  12.613   4.336
42277SOL    HW228606  11.579  12.718   4.395
42278SOL     OW28607   3.966  12.538   8.932
42278SOL    HW128608   3.960  12.614   8.874
42278SOL    HW228609   4.052  12.547   8.974
42279SOL     OW28610   1.002  10.978   2.420
42279SOL    HW128611   0.958  10.923   2.355
42279SOL    HW228612   1.060  11.034   2.369
42280SOL     OW28613   6.144  13.424  11.305
42280SOL    HW128614   6.141  13.499  11.364
42280SOL    HW228615   6.232  13.387  11.317
42281SOL     OW28616   1.965  12.830   0.127
42281SOL    HW128617   1.948  12.887   0.052
42281SOL    HW228618   2.021  12.882   0.185
42282SOL     OW28619   0.608   9.302   2.351
42282SOL    HW128620   0.584   9.234   2.415
42282SOL    HW228621   0.529   9.354   2.340
42283SOL     OW28622   1.058  14.308   8.251
42283SOL    HW128623   1.078  14.316   8.158
42283SOL    HW228624   1.115  14.238   8.282
42284SOL     OW28625   0.448   8.373   9.005
42284SOL    HW128626   0.478   8.459   9.034
42284SOL    HW228627   0.444   8.321   9.086
42285SOL     OW28628   9.347   1.906   7.242
42285SOL    HW128629   9.434   1.907   7.283
42285SOL    HW228630   9.360   1.949   7.158
42286SOL     OW28631   9.608   1.611  10.746
42286SOL    HW128632   9.579   1.523  10.721
42286SOL    HW228633   9.647   1.647  10.667
42287SOL     OW28634  12.187  11.524   7.125
42287SOL    HW128635  12.181  11.619   7.135
42287SOL    HW228636  12.183  11.509   7.031
42288SOL     OW28637   6.112   3.428   2.823
42288SOL    HW128638   6.164   3.373   2.881
42288SOL    HW228639   6.162   3.430   2.741
42289SOL     OW28640   4.755  13.576   3.929
42289SOL    HW128641   4.810  13.536   3.996
42289SOL    HW228642   4.781  13.533   3.848
42290SOL     OW28643   4.301  14.860   9.867
42290SOL    HW128644   4.250  14.876   9.788
42290SOL    HW228645   4.237  14.841   9.935
42291SOL     OW28646  12.257   4.389  13.238
42291SOL    HW128647  12.322   4.342  13.186
42291SOL    HW228648  12.227   4.460  13.181
42292SOL     OW28649   7.596   7.905   0.302
42292SOL    HW128650   7.519   7.863   0.340
42292SOL    HW228651   7.646   7.833   0.263
42293SOL     OW28652   8.780   7.512   4.604
42293SOL    HW128653   8.736   7.593   4.629
42293SOL    HW228654   8.764   7.453   4.678
42294SOL     OW28655   4.947   1.363   1.028
42294SOL    HW128656   4.896   1.397   1.101
42294SOL    HW228657   5.038   1.382   1.051
42295SOL     OW28658   3.139   1.334   2.309
42295SOL    HW128659   3.104   1.419   2.284
42295SOL    HW228660   3.090   1.310   2.388
42296SOL     OW28661  10.951   3.258   3.257
42296SOL    HW128662  10.916   3.304   3.333
42296SOL    HW228663  10.901   3.176   3.253
42297SOL     OW28664   0.019   9.086  11.780
42297SOL    HW128665   0.070   9.073  11.861
42297SOL    HW228666  14.822   9.139  11.807
42298SOL     OW28667  10.322   8.197   9.185
42298SOL    HW128668  10.243   8.146   9.199
42298SOL    HW228669  10.295   8.288   9.199
42299SOL     OW28670   3.880   8.393   0.863
42299SOL    HW128671   3.858   8.386   0.770
42299SOL    HW228672   3.810   8.448   0.900
42300SOL     OW28673  13.777   0.048   0.311
42300SOL    HW128674  13.744   0.113   0.373
42300SOL    HW228675  13.843   0.095   0.260
42301SOL     OW28676   7.786   1.890   2.848
42301SOL    HW128677   7.877   1.862   2.853
42301SOL    HW228678   7.736   1.809   2.860
42302SOL     OW28679   9.068   4.310   8.167
42302SOL    HW128680   9.094   4.247   8.099
42302SOL    HW228681   9.018   4.258   8.229
42303SOL     OW28682   4.339   3.678   2.568
42303SOL    HW128683   4.307   3.726   2.644
42303SOL    HW228684   4.396   3.741   2.522
42304SOL     OW28685  14.704  13.844  12.944
42304SOL    HW128686  14.644  13.781  12.984
42304SOL    HW228687  14.777  13.791  12.912
42305SOL     OW28688   4.133   6.513  12.047
42305SOL    HW128689   4.171   6.492  12.132
42305SOL    HW228690   4.207   6.504  11.986
42306SOL     OW28691   7.254   3.576   0.723
42306SOL    HW128692   7.292   3.504   0.673
42306SOL    HW228693   7.325   3.639   0.733
42307SOL     OW28694  14.400   4.015   2.231
42307SOL    HW128695  14.476   3.995   2.176
42307SOL    HW228696  14.427   4.090   2.284
42308SOL     OW28697  11.287   6.803   4.806
42308SOL    HW128698  11.354   6.830   4.868
42308SOL    HW228699  11.236   6.882   4.789
42309SOL     OW28700   7.524  10.203  13.670
42309SOL    HW128701   7.445  10.241  13.707
42309SOL    HW228702   7.573  10.277  13.634
42310SOL     OW28703   1.648   8.535  12.592
42310SOL    HW128704   1.577   8.544  12.654
42310SOL    HW228705   1.677   8.625  12.576
42311SOL     OW28706  14.626  12.386  14.415
42311SOL    HW128707  14.672  12.456  14.369
42311SOL    HW228708  14.654  12.305  14.372
42312SOL     OW28709   6.776   8.632   2.811
42312SOL    HW128710   6.807   8.718   2.841
42312SOL    HW228711   6.805   8.627   2.720
42313SOL     OW28712  11.264   3.162   8.649
42313SOL    HW128713  11.266   3.203   8.562
42313SOL    HW228714  11.269   3.236   8.710
42314SOL     OW28715   8.141  10.857   5.361
42314SOL    HW128716   8.103  10.813   5.285
42314SOL    HW228717   8.181  10.936   5.326
42315SOL     OW28718  13.145   3.294   7.833
42315SOL    HW128719  13.165   3.246   7.913
42315SOL    HW228720  13.104   3.230   7.776
42316SOL     OW28721  14.554  12.723   3.106
42316SOL    HW128722  14.559  12.634   3.142
42316SOL    HW228723  14.487  12.766   3.159
42317SOL     OW28724   6.853  11.374  14.373
42317SOL    HW128725   6.894  11.337  14.295
42317SOL    HW228726   6.862  11.469  14.361
42318SOL     OW28727   1.538   5.710   6.740
42318SOL    HW128728   1.601   5.729   6.810
42318SOL    HW228729   1.487   5.790   6.731
42319SOL     OW28730  13.525  11.692   8.089
42319SOL    HW128731  13.566  11.763   8.139
42319SOL    HW228732  13.434  11.693   8.118
42320SOL     OW28733   0.255   5.073   6.887
42320SOL    HW128734   0.284   4.987   6.858
42320SOL    HW228735   0.226   5.059   6.977
42321SOL     OW28736   1.553   4.455   6.913
42321SOL    HW128737   1.552   4.398   6.989
42321SOL    HW228738   1.618   4.416   6.854
42322SOL     OW28739   2.388   4.526   1.253
42322SOL    HW128740   2.350   4.440   1.270
42322SOL    HW228741   2.482   4.514   1.267
42323SOL     OW28742   0.888   1.979   0.267
42323SOL    HW128743   0.898   1.915   0.338
42323SOL    HW228744   0.813   1.948   0.217
42324SOL     OW28745  13.546   6.895   4.671
42324SOL    HW128746  13.592   6.823   4.628
42324SOL    HW228747  13.518   6.859   4.755
42325SOL     OW28748   7.505   5.074   0.739
42325SOL    HW128749   7.554   4.992   0.733
42325SOL    HW228750   7.475   5.091   0.649
42326SOL     OW28751   6.767  12.409   9.713
42326SOL    HW128752   6.795  12.355   9.787
42326SOL    HW228753   6.707  12.473   9.752
42327SOL     OW28754   3.930   6.612   2.532
42327SOL    HW128755   4.015   6.585   2.567
42327SOL    HW228756   3.932   6.707   2.533
42328SOL     OW28757  12.938   5.248   6.131
42328SOL    HW128758  12.884   5.318   6.167
42328SOL    HW228759  12.895   5.226   6.048
42329SOL     OW28760   5.786   9.325   5.394
42329SOL    HW128761   5.792   9.242   5.346
42329SOL    HW228762   5.870   9.369   5.377
42330SOL     OW28763   4.723   6.590   8.176
42330SOL    HW128764   4.649   6.586   8.237
42330SOL    HW228765   4.754   6.681   8.182
42331SOL     OW28766   2.823   9.152   9.049
42331SOL    HW128767   2.865   9.112   9.125
42331SOL    HW228768   2.729   9.135   9.062
42332SOL     OW28769  14.808   0.649   1.632
42332SOL    HW128770  14.765   0.618   1.712
42332SOL    HW228771  14.870   0.715   1.662
42333SOL     OW28772   3.028   1.011  11.160
42333SOL    HW128773   2.947   0.982  11.201
42333SOL    HW228774   3.071   0.929  11.134
42334SOL     OW28775   1.275  14.740   3.470
42334SOL    HW128776   1.278  14.688   3.390
42334SOL    HW228777   1.186  14.729   3.503
42335SOL     OW28778  11.733   9.695   0.750
42335SOL    HW128779  11.771   9.748   0.820
42335SOL    HW228780  11.678   9.755   0.700
42336SOL     OW28781  10.831  10.579  10.236
42336SOL    HW128782  10.905  10.571  10.175
42336SOL    HW228783  10.767  10.516  10.203
42337SOL     OW28784   8.685  11.698   7.994
42337SOL    HW128785   8.720  11.643   8.065
42337SOL    HW228786   8.650  11.775   8.038
42338SOL     OW28787  11.143  11.809   5.261
42338SOL    HW128788  11.226  11.768   5.286
42338SOL    HW228789  11.114  11.853   5.341
42339SOL     OW28790  12.079   4.359   8.014
42339SOL    HW128791  12.051   4.445   8.047
42339SOL    HW228792  12.032   4.296   8.069
42340SOL     OW28793   8.642  12.978   9.141
42340SOL    HW128794   8.623  13.023   9.223
42340SOL    HW228795   8.608  13.037   9.073
42341SOL     OW28796   9.782   6.125  12.777
42341SOL    HW128797   9.686   6.130  12.776
42341SOL    HW228798   9.806   6.108  12.686
42342SOL     OW28799   0.153   0.537  11.482
42342SOL    HW128800   0.210   0.606  11.516
42342SOL    HW228801   0.204   0.497  11.412
42343SOL     OW28802   2.062   4.233  14.837
42343SOL    HW128803   1.987   4.236   0.020
42343SOL    HW228804   2.027   4.264  14.754
42344SOL     OW28805   3.617   8.917  13.001
42344SOL    HW128806   3.634   8.849  12.935
42344SOL    HW228807   3.606   8.868  13.083
42345SOL     OW28808   6.400   0.849  12.465
42345SOL    HW128809   6.365   0.877  12.381
42345SOL    HW228810   6.487   0.814  12.444
42346SOL     OW28811   4.372   0.390   0.694
42346SOL    HW128812   4.307   0.423   0.757
42346SOL    HW228813   4.362   0.295   0.698
42347SOL     OW28814  11.204   2.709  10.300
42347SOL    HW128815  11.260   2.762  10.244
42347SOL    HW228816  11.221   2.619  10.272
42348SOL     OW28817   0.395  12.752  12.761
42348SOL    HW128818   0.335  12.747  12.687
42348SOL    HW228819   0.443  12.834  12.748
42349SOL     OW28820   0.782   7.538   1.320
42349SOL    HW128821   0.722   7.500   1.255
42349SOL    HW228822   0.835   7.464   1.349
42350SOL     OW28823   3.853   3.915  14.340
42350SOL    HW128824   3.895   3.873  14.415
42350SOL    HW228825   3.783   3.968  14.378
42351SOL     OW28826  13.821   0.234   5.102
42351SOL    HW128827  13.895   0.199   5.052
42351SOL    HW228828  13.743   0.206   5.053
42352SOL     OW28829  13.402  14.448   6.635
42352SOL    HW128830  13.456  14.527   6.634
42352SOL    HW228831  13.459  14.380   6.672
42353SOL     OW28832  12.459  10.442  14.716
42353SOL    HW128833  12.451  10.351  14.687
42353SOL    HW228834  12.518  10.483  14.654
42354SOL     OW28835   7.635   6.630   3.557
42354SOL    HW128836   7.665   6.712   3.595
42354SOL    HW228837   7.561   6.655   3.502
42355SOL     OW28838   8.527  14.423   2.765
42355SOL    HW128839   8.525  14.349   2.704
42355SOL    HW228840   8.525  14.500   2.709
42356SOL     OW28841  12.807   1.106   3.037
42356SOL    HW128842  12.739   1.038   3.031
42356SOL    HW228843  12.881   1.063   3.079
42357SOL     OW28844  13.174   2.521   2.001
42357SOL    HW128845  13.141   2.597   2.050
42357SOL    HW228846  13.254   2.495   2.046
42358SOL     OW28847   4.526   6.279  14.407
42358SOL    HW128848   4.446   6.281  14.354
42358SOL    HW228849   4.570   6.198  14.381
42359SOL     OW28850  12.149   9.443   9.881
42359SOL    HW128851  12.074   9.412   9.830
42359SOL    HW228852  12.115   9.452   9.970
42360SOL     OW28853   8.314  13.246   4.431
42360SOL    HW128854   8.285  13.232   4.521
42360SOL    HW228855   8.409  13.230   4.433
42361SOL     OW28856   8.658  10.034   0.856
42361SOL    HW128857   8.657  10.012   0.762
42361SOL    HW228858   8.575   9.999   0.889
42362SOL     OW28859   9.670   4.884   4.329
42362SOL    HW128860   9.756   4.848   4.351
42362SOL    HW228861   9.661   4.869   4.235
42363SOL     OW28862  13.108  13.598   0.319
42363SOL    HW128863  13.033  13.634   0.366
42363SOL    HW228864  13.156  13.674   0.287
42364SOL     OW28865  14.578  13.508   0.478
42364SOL    HW128866  14.511  13.537   0.416
42364SOL    HW228867  14.599  13.586   0.530
42365SOL     OW28868   7.950   6.160   4.606
42365SOL    HW128869   7.950   6.123   4.518
42365SOL    HW228870   7.948   6.084   4.664
42366SOL     OW28871  12.276   1.890   5.822
42366SOL    HW128872  12.221   1.909   5.746
42366SOL    HW228873  12.219   1.907   5.897
42367SOL     OW28874   2.425   8.593   5.141
42367SOL    HW128875   2.485   8.536   5.188
42367SOL    HW228876   2.442   8.680   5.177
42368SOL     OW28877  11.557   9.704  13.648
42368SOL    HW128878  11.463   9.694  13.663
42368SOL    HW228879  11.567   9.794  13.616
42369SOL     OW28880   1.897  12.755   8.906
42369SOL    HW128881   1.919  12.717   8.992
42369SOL    HW228882   1.848  12.686   8.861
42370SOL     OW28883  13.565  12.234  11.501
42370SOL    HW128884  13.568  12.323  11.536
42370SOL    HW228885  13.503  12.189  11.558
42371SOL     OW28886  12.786   3.107   0.229
42371SOL    HW128887  12.695   3.116   0.258
42371SOL    HW228888  12.826   3.192   0.247
42372SOL     OW28889   6.291   9.003   2.662
42372SOL    HW128890   6.235   8.945   2.714
42372SOL    HW228891   6.377   8.961   2.663
42373SOL     OW28892   7.543   6.274   8.888
42373SOL    HW128893   7.536   6.366   8.864
42373SOL    HW228894   7.454   6.241   8.883
42374SOL     OW28895   8.728   8.032   9.276
42374SOL    HW128896   8.737   8.078   9.192
42374SOL    HW228897   8.696   8.099   9.336
42375SOL     OW28898   7.611   5.576  10.777
42375SOL    HW128899   7.585   5.629  10.701
42375SOL    HW228900   7.530   5.562  10.825
42376SOL     OW28901   4.367   0.717   4.178
42376SOL    HW128902   4.362   0.625   4.201
42376SOL    HW228903   4.326   0.723   4.092
42377SOL     OW28904   5.355   7.486   1.758
42377SOL    HW128905   5.397   7.548   1.698
42377SOL    HW228906   5.419   7.475   1.829
42378SOL     OW28907   5.975  10.502   0.065
42378SOL    HW128908   6.049  10.486   0.007
42378SOL    HW228909   5.980  10.596   0.084
42379SOL     OW28910   9.537   0.018   8.252
42379SOL    HW128911   9.581   0.023   8.337
42379SOL    HW228912   9.574   0.091   8.202
42380SOL     OW28913   8.749  14.681   2.834
42380SOL    HW128914   8.797  14.697   2.753
42380SOL    HW228915   8.691  14.608   2.814
42381SOL     OW28916   5.817  13.742   5.991
42381SOL    HW128917   5.885  13.778   5.935
42381SOL    HW228918   5.773  13.819   6.028
42382SOL     OW28919   1.301   3.901   0.080
42382SOL    HW128920   1.242   3.827   0.064
42382SOL    HW228921   1.332   3.886   0.170
42383SOL     OW28922  11.541   4.702   1.416
42383SOL    HW128923  11.483   4.646   1.468
42383SOL    HW228924  11.483   4.767   1.376
42384SOL     OW28925   9.682   7.802  12.398
42384SOL    HW128926   9.630   7.735  12.353
42384SOL    HW228927   9.766   7.760  12.414
42385SOL     OW28928  10.203  12.361  10.469
42385SOL    HW128929  10.282  12.407  10.441
42385SOL    HW228930  10.233  12.272  10.488
42386SOL     OW28931  11.082  13.423   6.505
42386SOL    HW128932  11.111  13.498   6.453
42386SOL    HW228933  11.052  13.359   6.440
42387SOL     OW28934   5.486   1.033   2.252
42387SOL    HW128935   5.465   0.945   2.283
42387SOL    HW228936   5.471   1.030   2.158
42388SOL     OW28937   8.770   2.201  12.052
42388SOL    HW128938   8.675   2.186  12.048
42388SOL    HW228939   8.789   2.257  11.977
42389SOL     OW28940  14.454   0.109   7.576
42389SOL    HW128941  14.477   0.123   7.668
42389SOL    HW228942  14.501   0.177   7.529
42390SOL     OW28943  14.785   2.252  14.715
42390SOL    HW128944   0.002   2.249  14.731
42390SOL    HW228945  14.768   2.175  14.661
42391SOL     OW28946   1.947   1.146   7.816
42391SOL    HW128947   1.882   1.214   7.832
42391SOL    HW228948   1.924   1.111   7.730
42392SOL     OW28949  10.667  13.105   5.160
42392SOL    HW128950  10.661  13.198   5.185
42392SOL    HW228951  10.755  13.079   5.187
42393SOL     OW28952   2.237   9.938   3.117
42393SOL    HW128953   2.248   9.958   3.210
42393SOL    HW228954   2.160   9.881   3.114
42394SOL     OW28955   5.155   1.608  14.662
42394SOL    HW128956   5.142   1.553  14.584
42394SOL    HW228957   5.239   1.651  14.646
42395SOL     OW28958   0.992   3.159  13.631
42395SOL    HW128959   1.048   3.228  13.595
42395SOL    HW228960   1.026   3.078  13.593
42396SOL     OW28961   3.486   7.855  12.854
42396SOL    HW128962   3.398   7.885  12.834
42396SOL    HW228963   3.543   7.925  12.822
42397SOL     OW28964  10.591   8.309   3.154
42397SOL    HW128965  10.546   8.387   3.121
42397SOL    HW228966  10.566   8.304   3.246
42398SOL     OW28967  13.145   3.797   2.251
42398SOL    HW128968  13.143   3.779   2.346
42398SOL    HW228969  13.171   3.889   2.245
42399SOL     OW28970  10.488   3.087   3.967
42399SOL    HW128971  10.465   3.057   4.055
42399SOL    HW228972  10.474   3.182   3.969
42400SOL     OW28973   8.719   3.051  12.731
42400SOL    HW128974   8.732   2.959  12.756
42400SOL    HW228975   8.632   3.053  12.691
42401SOL     OW28976  13.116   9.201  10.156
42401SOL    HW128977  13.198   9.251  10.156
42401SOL    HW228978  13.084   9.208  10.246
42402SOL     OW28979  13.406   2.124   8.115
42402SOL    HW128980  13.379   2.137   8.206
42402SOL    HW228981  13.458   2.043   8.118
42403SOL     OW28982   2.046  11.413   8.145
42403SOL    HW128983   1.964  11.372   8.118
42403SOL    HW228984   2.089  11.348   8.199
42404SOL     OW28985  11.526   9.578   5.807
42404SOL    HW128986  11.560   9.515   5.744
42404SOL    HW228987  11.487   9.524   5.876
42405SOL     OW28988   8.756   2.418   2.543
42405SOL    HW128989   8.841   2.417   2.585
42405SOL    HW228990   8.710   2.342   2.579
42406SOL     OW28991  11.812   1.196   7.808
42406SOL    HW128992  11.770   1.246   7.737
42406SOL    HW228993  11.871   1.136   7.763
42407SOL     OW28994   1.782   0.409   0.773
42407SOL    HW128995   1.729   0.476   0.730
42407SOL    HW228996   1.801   0.446   0.859
42408SOL     OW28997  14.507   0.676  12.986
42408SOL    HW128998  14.466   0.757  12.954
42408SOL    HW228999  14.528   0.694  13.077
42409SOL     OW29000   8.633   7.312   7.851
42409SOL    HW129001   8.668   7.383   7.904
42409SOL    HW229002   8.644   7.342   7.760
42410SOL     OW29003   0.430  12.947   9.825
42410SOL    HW129004   0.521  12.955   9.854
42410SOL    HW229005   0.420  12.855   9.802
42411SOL     OW29006   8.363   2.666   0.623
42411SOL    HW129007   8.422   2.741   0.620
42411SOL    HW229008   8.402   2.607   0.688
42412SOL     OW29009   1.681   9.788   6.207
42412SOL    HW129010   1.765   9.816   6.170
42412SOL    HW229011   1.633   9.870   6.220
42413SOL     OW29012   9.276  13.205   5.892
42413SOL    HW129013   9.307  13.199   5.802
42413SOL    HW229014   9.295  13.295   5.918
42414SOL     OW29015   8.437   7.657  11.646
42414SOL    HW129016   8.408   7.594  11.580
42414SOL    HW229017   8.456   7.604  11.723
42415SOL     OW29018  14.875   4.803   6.823
42415SOL    HW129019  14.788   4.801   6.784
42415SOL    HW229020   0.032   4.889   6.800
42416SOL     OW29021   9.095   5.326   6.679
42416SOL    HW129022   9.141   5.359   6.603
42416SOL    HW229023   9.082   5.402   6.736
42417SOL     OW29024  10.910   2.392   9.442
42417SOL    HW129025  10.829   2.345   9.423
42417SOL    HW229026  10.895   2.481   9.409
42418SOL     OW29027   6.300  13.940  13.734
42418SOL    HW129028   6.314  14.032  13.711
42418SOL    HW229029   6.309  13.893  13.651
42419SOL     OW29030   3.457  14.077   6.491
42419SOL    HW129031   3.430  14.082   6.399
42419SOL    HW229032   3.539  14.126   6.494
42420SOL     OW29033   7.272   6.821   5.315
42420SOL    HW129034   7.303   6.783   5.233
42420SOL    HW229035   7.207   6.886   5.288
42421SOL     OW29036   5.780   8.326  11.139
42421SOL    HW129037   5.820   8.346  11.054
42421SOL    HW229038   5.779   8.409  11.185
42422SOL     OW29039   0.830  10.870  13.432
42422SOL    HW129040   0.865  10.901  13.348
42422SOL    HW229041   0.908  10.853  13.485
42423SOL     OW29042   4.224   8.097   3.721
42423SOL    HW129043   4.305   8.146   3.709
42423SOL    HW229044   4.155   8.163   3.725
42424SOL     OW29045   4.338   9.288  11.555
42424SOL    HW129046   4.271   9.328  11.610
42424SOL    HW229047   4.288   9.244  11.486
42425SOL     OW29048   1.613   0.279   9.851
42425SOL    HW129049   1.563   0.345   9.804
42425SOL    HW229050   1.655   0.327   9.923
42426SOL     OW29051   1.417  10.786  12.437
42426SOL    HW129052   1.392  10.878  12.422
42426SOL    HW229053   1.513  10.788  12.438
42427SOL     OW29054   5.408   7.713   1.145
42427SOL    HW129055   5.364   7.735   1.227
42427SOL    HW229056   5.342   7.665   1.095
42428SOL     OW29057   5.627   2.064   8.597
42428SOL    HW129058   5.655   2.052   8.688
42428SOL    HW229059   5.651   2.154   8.575
42429SOL     OW29060   6.775   2.392  14.678
42429SOL    HW129061   6.745   2.321  14.735
42429SOL    HW229062   6.832   2.445  14.733
42430SOL     OW29063   7.769   3.080   4.612
42430SOL    HW129064   7.859   3.093   4.640
42430SOL    HW229065   7.774   3.009   4.548
42431SOL     OW29066  11.917   6.752  11.207
42431SOL    HW129067  11.844   6.746  11.145
42431SOL    HW229068  11.894   6.693  11.278
42432SOL     OW29069   7.496   2.707  12.713
42432SOL    HW129070   7.465   2.746  12.632
42432SOL    HW229071   7.590   2.696  12.701
42433SOL     OW29072   1.026   7.663   0.744
42433SOL    HW129073   1.089   7.720   0.788
42433SOL    HW229074   1.072   7.579   0.736
42434SOL     OW29075  13.846  12.505   0.480
42434SOL    HW129076  13.933  12.502   0.518
42434SOL    HW229077  13.815  12.414   0.483
42435SOL     OW29078  13.776   3.821  10.056
42435SOL    HW129079  13.744   3.731  10.059
42435SOL    HW229080  13.861   3.815  10.011
42436SOL     OW29081   5.471   0.538   7.771
42436SOL    HW129082   5.526   0.486   7.713
42436SOL    HW229083   5.397   0.565   7.716
42437SOL     OW29084  13.320  10.137  14.789
42437SOL    HW129085  13.412  10.133  14.817
42437SOL    HW229086  13.279  10.063  14.835
42438SOL     OW29087   2.512   0.287  10.790
42438SOL    HW129088   2.597   0.330  10.789
42438SOL    HW229089   2.529   0.198  10.761
42439SOL     OW29090   9.302   2.666   6.987
42439SOL    HW129091   9.282   2.735   6.923
42439SOL    HW229092   9.289   2.708   7.072
42440SOL     OW29093  11.138   4.723  14.790
42440SOL    HW129094  11.110   4.797  14.736
42440SOL    HW229095  11.231   4.741  14.807
42441SOL     OW29096   3.750   8.428  10.089
42441SOL    HW129097   3.793   8.342  10.087
42441SOL    HW229098   3.668   8.412  10.136
42442SOL     OW29099   3.792   8.820   3.839
42442SOL    HW129100   3.722   8.780   3.787
42442SOL    HW229101   3.865   8.830   3.778
42443SOL     OW29102   9.812  13.631   6.495
42443SOL    HW129103   9.808  13.667   6.584
42443SOL    HW229104   9.879  13.683   6.451
42444SOL     OW29105   9.111  12.399   5.643
42444SOL    HW129106   9.024  12.430   5.667
42444SOL    HW229107   9.171  12.466   5.676
42445SOL     OW29108   9.302   7.238   4.915
42445SOL    HW129109   9.375   7.261   4.973
42445SOL    HW229110   9.339   7.244   4.826
42446SOL     OW29111  11.813  12.182  14.400
42446SOL    HW129112  11.725  12.219  14.394
42446SOL    HW229113  11.856  12.235  14.467
42447SOL     OW29114  10.753  13.403   5.255
42447SOL    HW129115  10.841  13.426   5.226
42447SOL    HW229116  10.699  13.407   5.176
42448SOL     OW29117  13.315   2.466   2.366
42448SOL    HW129118  13.332   2.560   2.362
42448SOL    HW229119  13.359   2.430   2.288
42449SOL     OW29120   5.098   6.038   4.350
42449SOL    HW129121   5.127   5.971   4.413
42449SOL    HW229122   5.089   6.117   4.402
42450SOL     OW29123  14.335   1.274   9.749
42450SOL    HW129124  14.359   1.195   9.700
42450SOL    HW229125  14.240   1.274   9.749
42451SOL     OW29126  10.618  13.453  11.702
42451SOL    HW129127  10.635  13.488  11.789
42451SOL    HW229128  10.705  13.439  11.664
42452SOL     OW29129  10.058   2.146   4.862
42452SOL    HW129130  10.054   2.052   4.878
42452SOL    HW229131   9.980   2.181   4.904
42453SOL     OW29132   4.916   3.638   7.299
42453SOL    HW129133   4.954   3.715   7.342
42453SOL    HW229134   4.868   3.674   7.224
42454SOL     OW29135   3.955  13.055   4.808
42454SOL    HW129136   3.983  13.065   4.717
42454SOL    HW229137   3.998  12.974   4.837
42455SOL     OW29138   5.751  11.240  12.373
42455SOL    HW129139   5.824  11.215  12.317
42455SOL    HW229140   5.782  11.318  12.419
42456SOL     OW29141  11.656   0.691   0.206
42456SOL    HW129142  11.592   0.660   0.142
42456SOL    HW229143  11.615   0.769   0.244
42457SOL     OW29144  12.302   5.092  12.420
42457SOL    HW129145  12.365   5.039  12.469
42457SOL    HW229146  12.218   5.047  12.431
42458SOL     OW29147  14.770  10.596  11.921
42458SOL    HW129148  14.719  10.675  11.903
42458SOL    HW229149  14.858  10.629  11.941
42459SOL     OW29150  14.653  13.370   4.031
42459SOL    HW129151  14.734  13.399   4.073
42459SOL    HW229152  14.604  13.451   4.013
42460SOL     OW29153   7.387   0.838  11.778
42460SOL    HW129154   7.434   0.771  11.728
42460SOL    HW229155   7.452   0.871  11.840
42461SOL     OW29156   8.930   7.171   7.221
42461SOL    HW129157   8.903   7.221   7.297
42461SOL    HW229158   8.998   7.111   7.253
42462SOL     OW29159   2.253   1.725   2.032
42462SOL    HW129160   2.250   1.636   2.068
42462SOL    HW229161   2.281   1.713   1.941
42463SOL     OW29162   8.898   1.609  11.338
42463SOL    HW129163   8.883   1.699  11.367
42463SOL    HW229164   8.819   1.585  11.290
42464SOL     OW29165  10.353   6.224  14.726
42464SOL    HW129166  10.393   6.191  14.645
42464SOL    HW229167  10.259   6.215  14.711
42465SOL     OW29168   5.878   6.846   6.990
42465SOL    HW129169   5.821   6.909   7.034
42465SOL    HW229170   5.819   6.780   6.955
42466SOL     OW29171   2.134  10.463   4.637
42466SOL    HW129172   2.183  10.433   4.713
42466SOL    HW229173   2.080  10.535   4.670
42467SOL     OW29174  11.789   2.892   4.456
42467SOL    HW129175  11.851   2.876   4.386
42467SOL    HW229176  11.711   2.843   4.431
42468SOL     OW29177   2.229   9.272   5.031
42468SOL    HW129178   2.192   9.295   5.116
42468SOL    HW229179   2.292   9.202   5.050
42469SOL     OW29180   7.966   0.140   6.179
42469SOL    HW129181   8.018   0.219   6.162
42469SOL    HW229182   7.876   0.172   6.186
42470SOL     OW29183   4.327   3.131  11.969
42470SOL    HW129184   4.354   3.046  12.003
42470SOL    HW229185   4.325   3.119  11.874
42471SOL     OW29186   7.533  12.294   3.206
42471SOL    HW129187   7.545  12.206   3.171
42471SOL    HW229188   7.447  12.321   3.176
42472SOL     OW29189  12.179   0.857   8.442
42472SOL    HW129190  12.135   0.806   8.510
42472SOL    HW229191  12.188   0.945   8.479
42473SOL     OW29192  14.384   4.259  10.663
42473SOL    HW129193  14.476   4.236  10.654
42473SOL    HW229194  14.356   4.216  10.744
42474SOL     OW29195  12.812   5.228   5.467
42474SOL    HW129196  12.888   5.273   5.432
42474SOL    HW229197  12.745   5.238   5.399
42475SOL     OW29198   1.464  10.592   5.086
42475SOL    HW129199   1.418  10.512   5.063
42475SOL    HW229200   1.530  10.603   5.019
42476SOL     OW29201  13.598   5.828   2.356
42476SOL    HW129202  13.599   5.826   2.451
42476SOL    HW229203  13.584   5.920   2.334
42477SOL     OW29204   3.562   9.526   7.668
42477SOL    HW129205   3.576   9.616   7.641
42477SOL    HW229206   3.578   9.526   7.762
42478SOL     OW29207  14.876   6.981   9.989
42478SOL    HW129208  14.797   6.945   9.949
42478SOL    HW229209   0.065   6.913   9.977
42479SOL     OW29210   7.236   3.680  13.019
42479SOL    HW129211   7.160   3.729  12.988
42479SOL    HW229212   7.302   3.747  13.037
42480SOL     OW29213   7.469   7.643  11.613
42480SOL    HW129214   7.540   7.678  11.558
42480SOL    HW229215   7.476   7.692  11.695
42481SOL     OW29216  14.398   5.762  11.874
42481SOL    HW129217  14.438   5.816  11.806
42481SOL    HW229218  14.384   5.822  11.948
42482SOL     OW29219   8.627   8.706   1.209
42482SOL    HW129220   8.540   8.741   1.231
42482SOL    HW229221   8.608   8.623   1.167
42483SOL     OW29222   0.026   7.339  12.971
42483SOL    HW129223   0.063   7.294  12.895
42483SOL    HW229224   0.009   7.428  12.940
42484SOL     OW29225   3.035   5.513  14.252
42484SOL    HW129226   3.015   5.592  14.202
42484SOL    HW229227   3.131   5.506  14.248
42485SOL     OW29228   0.946  11.894   6.700
42485SOL    HW129229   0.859  11.896   6.740
42485SOL    HW229230   1.001  11.945   6.759
42486SOL     OW29231   8.701   2.548   7.577
42486SOL    HW129232   8.674   2.571   7.665
42486SOL    HW229233   8.779   2.494   7.588
42487SOL     OW29234   8.518  12.903   0.454
42487SOL    HW129235   8.479  12.875   0.537
42487SOL    HW229236   8.577  12.974   0.478
42488SOL     OW29237   1.231  14.321   6.927
42488SOL    HW129238   1.188  14.248   6.882
42488SOL    HW229239   1.317  14.286   6.952
42489SOL     OW29240   0.976   4.681   5.782
42489SOL    HW129241   1.039   4.743   5.746
42489SOL    HW229242   0.913   4.735   5.830
42490SOL     OW29243  10.933  10.746   0.227
42490SOL    HW129244  10.856  10.793   0.258
42490SOL    HW229245  10.972  10.805   0.162
42491SOL     OW29246  10.659   4.737   5.782
42491SOL    HW129247  10.636   4.811   5.837
42491SOL    HW229248  10.682   4.667   5.843
42492SOL     OW29249  11.660   9.917   5.432
42492SOL    HW129250  11.722   9.889   5.499
42492SOL    HW229251  11.586   9.858   5.441
42493SOL     OW29252  10.803   2.873  13.976
42493SOL    HW129253  10.712   2.900  13.987
42493SOL    HW229254  10.807   2.784  14.010
42494SOL     OW29255  10.388  11.151  14.562
42494SOL    HW129256  10.359  11.240  14.583
42494SOL    HW229257  10.409  11.112  14.647
42495SOL     OW29258   4.295  11.892   1.985
42495SOL    HW129259   4.252  11.811   1.956
42495SOL    HW229260   4.265  11.958   1.922
42496SOL     OW29261   6.359  14.718   6.150
42496SOL    HW129262   6.452  14.727   6.173
42496SOL    HW229263   6.314  14.780   6.206
42497SOL     OW29264  14.554  14.580   7.793
42497SOL    HW129265  14.599  14.548   7.871
42497SOL    HW229266  14.539  14.501   7.741
42498SOL     OW29267  14.565   4.971  14.174
42498SOL    HW129268  14.513   4.955  14.253
42498SOL    HW229269  14.503   5.012  14.113
42499SOL     OW29270  11.556   4.530  10.646
42499SOL    HW129271  11.594   4.607  10.688
42499SOL    HW229272  11.482   4.507  10.702
42500SOL     OW29273  10.403   8.003   4.321
42500SOL    HW129274  10.435   7.917   4.349
42500SOL    HW229275  10.347   8.032   4.394
42501SOL     OW29276   0.105   5.173   5.905
42501SOL    HW129277   0.050   5.124   5.843
42501SOL    HW229278   0.183   5.195   5.854
42502SOL     OW29279   0.988   2.348   5.623
42502SOL    HW129280   1.081   2.372   5.623
42502SOL    HW229281   0.942   2.430   5.640
42503SOL     OW29282   0.911   1.710   4.398
42503SOL    HW129283   0.926   1.622   4.432
42503SOL    HW229284   0.996   1.738   4.366
42504SOL     OW29285   1.143   1.249   5.881
42504SOL    HW129286   1.188   1.173   5.917
42504SOL    HW229287   1.058   1.250   5.924
42505SOL     OW29288   8.950   3.082   4.687
42505SOL    HW129289   8.888   3.145   4.723
42505SOL    HW229290   8.927   3.076   4.594
42506SOL     OW29291  11.529   2.751   2.611
42506SOL    HW129292  11.612   2.712   2.583
42506SOL    HW229293  11.477   2.677   2.642
42507SOL     OW29294   7.704   8.693  12.877
42507SOL    HW129295   7.776   8.749  12.907
42507SOL    HW229296   7.679   8.730  12.792
42508SOL     OW29297   4.682  13.354   1.726
42508SOL    HW129298   4.718  13.268   1.704
42508SOL    HW229299   4.611  13.367   1.663
42509SOL     OW29300  11.843   6.925  14.526
42509SOL    HW129301  11.931   6.952  14.501
42509SOL    HW229302  11.854   6.835  14.559
42510SOL     OW29303  12.339   5.601  11.505
42510SOL    HW129304  12.253   5.598  11.463
42510SOL    HW229305  12.396   5.555  11.445
42511SOL     OW29306   4.849   4.307   4.974
42511SOL    HW129307   4.873   4.219   4.946
42511SOL    HW229308   4.861   4.307   5.069
42512SOL     OW29309  10.295   5.190   9.977
42512SOL    HW129310  10.305   5.142  10.059
42512SOL    HW229311  10.266   5.277  10.004
42513SOL     OW29312  12.126   5.432   8.778
42513SOL    HW129313  12.159   5.368   8.841
42513SOL    HW229314  12.199   5.444   8.716
42514SOL     OW29315   5.589   5.130   7.619
42514SOL    HW129316   5.630   5.070   7.681
42514SOL    HW229317   5.557   5.074   7.549
42515SOL     OW29318   0.077   4.332   7.108
42515SOL    HW129319   0.072   4.418   7.068
42515SOL    HW229320  14.864   4.300   7.109
42516SOL     OW29321   5.814  12.608   6.849
42516SOL    HW129322   5.820  12.518   6.881
42516SOL    HW229323   5.879  12.612   6.778
42517SOL     OW29324   6.702   0.629   5.423
42517SOL    HW129325   6.727   0.690   5.353
42517SOL    HW229326   6.715   0.678   5.504
42518SOL     OW29327  10.566   9.088  12.144
42518SOL    HW129328  10.527   9.038  12.216
42518SOL    HW229329  10.571   9.026  12.071
42519SOL     OW29330   7.568   1.338  11.049
42519SOL    HW129331   7.529   1.251  11.043
42519SOL    HW229332   7.661   1.321  11.063
42520SOL     OW29333  13.329  11.903  11.034
42520SOL    HW129334  13.360  11.829  10.982
42520SOL    HW229335  13.405  11.930  11.086
42521SOL     OW29336   2.386  11.691   4.288
42521SOL    HW129337   2.461  11.741   4.258
42521SOL    HW229338   2.324  11.758   4.320
42522SOL     OW29339  12.317   1.117  10.885
42522SOL    HW129340  12.258   1.159  10.822
42522SOL    HW229341  12.293   1.025  10.882
42523SOL     OW29342   9.494   7.633   2.770
42523SOL    HW129343   9.418   7.653   2.714
42523SOL    HW229344   9.567   7.628   2.709
42524SOL     OW29345   1.411   3.111   9.992
42524SOL    HW129346   1.473   3.157   9.936
42524SOL    HW229347   1.407   3.022   9.956
42525SOL     OW29348   7.672  10.428  14.609
42525SOL    HW129349   7.606  10.362  14.591
42525SOL    HW229350   7.726  10.430  14.530
42526SOL     OW29351   6.180   6.368   2.285
42526SOL    HW129352   6.149   6.421   2.212
42526SOL    HW229353   6.105   6.312   2.308
42527SOL     OW29354  14.261   8.059   3.941
42527SOL    HW129355  14.199   8.061   3.868
42527SOL    HW229356  14.313   7.981   3.927
42528SOL     OW29357  12.910  14.695   6.198
42528SOL    HW129358  12.953  14.758   6.141
42528SOL    HW229359  12.895  14.619   6.142
42529SOL     OW29360  14.008   8.553   3.493
42529SOL    HW129361  14.083   8.514   3.536
42529SOL    HW229362  13.985   8.492   3.423
42530SOL     OW29363  14.412   9.456   5.837
42530SOL    HW129364  14.490   9.480   5.786
42530SOL    HW229365  14.427   9.494   5.924
42531SOL     OW29366  11.398   3.961   3.385
42531SOL    HW129367  11.375   3.914   3.305
42531SOL    HW229368  11.416   4.050   3.355
42532SOL     OW29369   9.454   4.355  13.740
42532SOL    HW129370   9.549   4.353  13.746
42532SOL    HW229371   9.426   4.264  13.750
42533SOL     OW29372   3.182   3.622  13.706
42533SOL    HW129373   3.110   3.609  13.644
42533SOL    HW229374   3.261   3.603  13.656
42534SOL     OW29375   9.113   3.525  14.402
42534SOL    HW129376   9.184   3.490  14.456
42534SOL    HW229377   9.152   3.537  14.316
42535SOL     OW29378   6.471   5.857   7.278
42535SOL    HW129379   6.524   5.790   7.235
42535SOL    HW229380   6.470   5.930   7.217
42536SOL     OW29381   5.965  10.943   2.687
42536SOL    HW129382   5.887  10.988   2.718
42536SOL    HW229383   6.035  11.007   2.695
42537SOL     OW29384   5.883  12.262  13.655
42537SOL    HW129385   5.837  12.345  13.645
42537SOL    HW229386   5.813  12.197  13.669
42538SOL     OW29387   9.142   4.357   1.692
42538SOL    HW129388   9.121   4.306   1.614
42538SOL    HW229389   9.232   4.387   1.678
42539SOL     OW29390   4.931   7.269   8.348
42539SOL    HW129391   4.920   7.214   8.270
42539SOL    HW229392   4.960   7.209   8.416
42540SOL     OW29393   1.797  14.064  13.479
42540SOL    HW129394   1.763  14.141  13.435
42540SOL    HW229395   1.841  14.014  13.410
42541SOL     OW29396   8.618  11.268   8.962
42541SOL    HW129397   8.523  11.274   8.968
42541SOL    HW229398   8.636  11.254   8.870
42542SOL     OW29399   6.116  10.042   2.618
42542SOL    HW129400   6.152   9.975   2.677
42542SOL    HW229401   6.164  10.029   2.536
42543SOL     OW29402   7.178  10.133   7.545
42543SOL    HW129403   7.183  10.037   7.552
42543SOL    HW229404   7.200  10.164   7.633
42544SOL     OW29405   8.724  14.459  12.510
42544SOL    HW129406   8.692  14.544  12.540
42544SOL    HW229407   8.651  14.399  12.527
42545SOL     OW29408  10.055   5.713  14.518
42545SOL    HW129409  10.038   5.807  14.519
42545SOL    HW229410  10.122   5.701  14.451
42546SOL     OW29411   9.745  11.325   9.378
42546SOL    HW129412   9.788  11.302   9.295
42546SOL    HW229413   9.674  11.383   9.352
42547SOL     OW29414   9.997   6.149  14.212
42547SOL    HW129415   9.928   6.212  14.189
42547SOL    HW229416   9.949   6.074  14.248
42548SOL     OW29417  11.989   9.066   3.096
42548SOL    HW129418  12.048   9.010   3.046
42548SOL    HW229419  12.047   9.121   3.149
42549SOL     OW29420   9.657  14.188   3.108
42549SOL    HW129421   9.565  14.210   3.124
42549SOL    HW229422   9.706  14.237   3.174
42550SOL     OW29423   4.558  14.222  10.469
42550SOL    HW129424   4.588  14.284  10.403
42550SOL    HW229425   4.639  14.186  10.507
42551SOL     OW29426   9.334  11.476   2.591
42551SOL    HW129427   9.324  11.568   2.565
42551SOL    HW229428   9.336  11.428   2.508
42552SOL     OW29429  14.688  14.152  14.157
42552SOL    HW129430  14.748  14.077  14.160
42552SOL    HW229431  14.722  14.206  14.086
42553SOL     OW29432   2.056  10.506  12.756
42553SOL    HW129433   2.107  10.587  12.765
42553SOL    HW229434   2.076  10.474  12.668
42554SOL     OW29435  12.147   6.765   1.687
42554SOL    HW129436  12.242   6.750   1.687
42554SOL    HW229437  12.112   6.703   1.623
42555SOL     OW29438  10.664   4.884   5.386
42555SOL    HW129439  10.740   4.891   5.328
42555SOL    HW229440  10.682   4.806   5.440
42556SOL     OW29441   8.001   7.845   2.465
42556SOL    HW129442   8.056   7.794   2.406
42556SOL    HW229443   7.912   7.815   2.448
42557SOL     OW29444   9.064   1.293   6.704
42557SOL    HW129445   8.995   1.232   6.730
42557SOL    HW229446   9.081   1.345   6.782
42558SOL     OW29447   7.959   0.657   5.025
42558SOL    HW129448   7.898   0.730   5.016
42558SOL    HW229449   8.010   0.678   5.103
42559SOL     OW29450   0.654   3.539   2.902
42559SOL    HW129451   0.676   3.577   2.817
42559SOL    HW229452   0.734   3.493   2.928
42560SOL     OW29453  10.812   1.348  14.860
42560SOL    HW129454  10.775   1.287   0.046
42560SOL    HW229455  10.751   1.422  14.858
42561SOL     OW29456  11.070  11.968   0.685
42561SOL    HW129457  11.129  11.893   0.692
42561SOL    HW229458  11.012  11.960   0.761
42562SOL     OW29459   2.166   2.537   2.487
42562SOL    HW129460   2.247   2.587   2.499
42562SOL    HW229461   2.194   2.445   2.488
42563SOL     OW29462  10.885   9.209   0.414
42563SOL    HW129463  10.805   9.258   0.435
42563SOL    HW229464  10.946   9.276   0.384
42564SOL     OW29465  13.341  11.536  14.464
42564SOL    HW129466  13.307  11.470  14.525
42564SOL    HW229467  13.371  11.607  14.521
42565SOL     OW29468   9.036   9.957  10.868
42565SOL    HW129469   9.129   9.979  10.868
42565SOL    HW229470   8.997  10.021  10.928
42566SOL     OW29471  13.364  12.636  14.513
42566SOL    HW129472  13.338  12.686  14.436
42566SOL    HW229473  13.360  12.544  14.486
42567SOL     OW29474   6.929   7.770   9.007
42567SOL    HW129475   7.011   7.811   8.978
42567SOL    HW229476   6.871   7.844   9.024
42568SOL     OW29477   5.894  14.275   6.835
42568SOL    HW129478   5.934  14.348   6.787
42568SOL    HW229479   5.957  14.204   6.826
42569SOL     OW29480   3.202  11.674   7.043
42569SOL    HW129481   3.238  11.684   6.955
42569SOL    HW229482   3.135  11.742   7.049
42570SOL     OW29483   3.412   3.041  12.200
42570SOL    HW129484   3.328   3.080  12.222
42570SOL    HW229485   3.441   2.997  12.280
42571SOL     OW29486   9.632   7.251  10.496
42571SOL    HW129487   9.540   7.231  10.510
42571SOL    HW229488   9.654   7.207  10.414
42572SOL     OW29489   7.294   5.628   9.142
42572SOL    HW129490   7.296   5.605   9.049
42572SOL    HW229491   7.387   5.635   9.167
42573SOL     OW29492  11.122   1.374   9.447
42573SOL    HW129493  11.176   1.295   9.450
42573SOL    HW229494  11.155   1.423   9.372
42574SOL     OW29495  10.400  14.589   3.313
42574SOL    HW129496  10.356  14.598   3.397
42574SOL    HW229497  10.491  14.614   3.331
42575SOL     OW29498   5.525   6.241   4.101
42575SOL    HW129499   5.463   6.257   4.030
42575SOL    HW229500   5.502   6.154   4.133
42576SOL     OW29501  10.593  10.684   9.286
42576SOL    HW129502  10.543  10.607   9.316
42576SOL    HW229503  10.676  10.679   9.334
42577SOL     OW29504  12.667  10.035   6.127
42577SOL    HW129505  12.652  10.044   6.033
42577SOL    HW229506  12.662   9.941   6.144
42578SOL     OW29507  13.034   9.842   2.786
42578SOL    HW129508  13.117   9.875   2.821
42578SOL    HW229509  13.009   9.905   2.719
42579SOL     OW29510   1.921   5.018   6.735
42579SOL    HW129511   2.004   5.019   6.781
42579SOL    HW229512   1.912   5.106   6.698
42580SOL     OW29513   5.764  13.942   0.942
42580SOL    HW129514   5.855  13.950   0.913
42580SOL    HW229515   5.727  14.029   0.928
42581SOL     OW29516   1.294  10.527   6.482
42581SOL    HW129517   1.299  10.466   6.408
42581SOL    HW229518   1.341  10.605   6.452
42582SOL     OW29519  13.190   0.107  12.199
42582SOL    HW129520  13.200   0.039  12.265
42582SOL    HW229521  13.280   0.125  12.170
42583SOL     OW29522   1.466   6.918   0.717
42583SOL    HW129523   1.495   6.938   0.806
42583SOL    HW229524   1.546   6.919   0.664
42584SOL     OW29525   1.515   2.049  10.000
42584SOL    HW129526   1.528   2.057   9.906
42584SOL    HW229527   1.597   2.079  10.039
42585SOL     OW29528   7.575   3.257  10.089
42585SOL    HW129529   7.589   3.302  10.006
42585SOL    HW229530   7.565   3.328  10.153
42586SOL     OW29531   5.897   2.684   9.679
42586SOL    HW129532   5.912   2.593   9.653
42586SOL    HW229533   5.829   2.715   9.619
42587SOL     OW29534   5.311   4.435   7.942
42587SOL    HW129535   5.217   4.434   7.959
42587SOL    HW229536   5.332   4.528   7.935
42588SOL     OW29537  13.795  12.445   7.860
42588SOL    HW129538  13.776  12.471   7.950
42588SOL    HW229539  13.730  12.491   7.807
42589SOL     OW29540   2.592   6.905  11.984
42589SOL    HW129541   2.509   6.860  12.003
42589SOL    HW229542   2.596   6.976  12.048
42590SOL     OW29543   6.749  12.654  10.535
42590SOL    HW129544   6.665  12.611  10.522
42590SOL    HW229545   6.754  12.721  10.466
42591SOL     OW29546  10.257   1.853   2.525
42591SOL    HW129547  10.319   1.914   2.485
42591SOL    HW229548  10.304   1.816   2.599
42592SOL     OW29549  12.806  13.217   5.538
42592SOL    HW129550  12.854  13.170   5.470
42592SOL    HW229551  12.803  13.156   5.612
42593SOL     OW29552   4.356   7.810   8.974
42593SOL    HW129553   4.296   7.774   8.909
42593SOL    HW229554   4.299   7.856   9.036
42594SOL     OW29555  12.221   7.414   8.386
42594SOL    HW129556  12.147   7.395   8.443
42594SOL    HW229557  12.215   7.347   8.317
42595SOL     OW29558   8.564  13.923   1.110
42595SOL    HW129559   8.623  13.993   1.137
42595SOL    HW229560   8.596  13.845   1.156
42596SOL     OW29561   6.346  10.688  11.812
42596SOL    HW129562   6.301  10.705  11.729
42596SOL    HW229563   6.370  10.595  11.807
42597SOL     OW29564  10.253   5.320   8.508
42597SOL    HW129565  10.188   5.386   8.534
42597SOL    HW229566  10.326   5.371   8.474
42598SOL     OW29567   3.016  10.738  10.263
42598SOL    HW129568   3.014  10.755  10.169
42598SOL    HW229569   3.077  10.665  10.273
42599SOL     OW29570   8.121   1.362  10.383
42599SOL    HW129571   8.103   1.408  10.301
42599SOL    HW229572   8.080   1.276  10.372
42600SOL     OW29573   5.102  14.853   7.297
42600SOL    HW129574   5.018  14.816   7.327
42600SOL    HW229575   5.139   0.016   7.375
42601SOL     OW29576  10.549  13.373  10.232
42601SOL    HW129577  10.526  13.288  10.271
42601SOL    HW229578  10.480  13.432  10.262
42602SOL     OW29579  12.429   2.469   4.940
42602SOL    HW129580  12.480   2.434   4.866
42602SOL    HW229581  12.486   2.457   5.015
42603SOL     OW29582   2.700  10.486  10.619
42603SOL    HW129583   2.685  10.527  10.533
42603SOL    HW229584   2.795  10.486  10.630
42604SOL     OW29585  11.748  11.791   2.464
42604SOL    HW129586  11.670  11.755   2.506
42604SOL    HW229587  11.787  11.717   2.419
42605SOL     OW29588   9.879   0.781   2.344
42605SOL    HW129589   9.925   0.741   2.418
42605SOL    HW229590   9.789   0.791   2.375
42606SOL     OW29591  13.174  12.317   1.349
42606SOL    HW129592  13.181  12.362   1.265
42606SOL    HW229593  13.102  12.255   1.337
42607SOL     OW29594   6.948   8.783  13.045
42607SOL    HW129595   6.960   8.689  13.031
42607SOL    HW229596   6.879   8.789  13.110
42608SOL     OW29597   8.064   9.755   4.228
42608SOL    HW129598   8.067   9.839   4.182
42608SOL    HW229599   8.118   9.697   4.175
42609SOL     OW29600  13.993  11.823   3.237
42609SOL    HW129601  14.037  11.806   3.320
42609SOL    HW229602  14.064  11.839   3.175
42610SOL     OW29603   6.053   1.218   4.290
42610SOL    HW129604   5.966   1.254   4.273
42610SOL    HW229605   6.113   1.273   4.240
42611SOL     OW29606   1.568  14.078   9.372
42611SOL    HW129607   1.601  13.988   9.372
42611SOL    HW229608   1.485  14.073   9.418
42612SOL     OW29609   2.386  14.357   6.488
42612SOL    HW129610   2.430  14.276   6.512
42612SOL    HW229611   2.454  14.424   6.493
42613SOL     OW29612  14.474  11.416   4.396
42613SOL    HW129613  14.541  11.382   4.455
42613SOL    HW229614  14.506  11.393   4.308
42614SOL     OW29615   9.140   7.076   3.777
42614SOL    HW129616   9.127   7.079   3.682
42614SOL    HW229617   9.051   7.073   3.812
42615SOL     OW29618   8.024   5.647   1.124
42615SOL    HW129619   8.037   5.618   1.034
42615SOL    HW229620   8.112   5.663   1.158
42616SOL     OW29621   5.439   8.744   9.988
42616SOL    HW129622   5.424   8.668  10.045
42616SOL    HW229623   5.355   8.759   9.946
42617SOL     OW29624   1.635  10.913   5.488
42617SOL    HW129625   1.684  10.962   5.554
42617SOL    HW229626   1.700  10.883   5.425
42618SOL     OW29627  10.967   0.941  14.697
42618SOL    HW129628  10.995   0.854  14.726
42618SOL    HW229629  11.004   1.001  14.761
42619SOL     OW29630  10.098   9.520   7.680
42619SOL    HW129631  10.015   9.564   7.660
42619SOL    HW229632  10.147   9.583   7.733
42620SOL     OW29633   7.680   3.386   1.418
42620SOL    HW129634   7.745   3.445   1.457
42620SOL    HW229635   7.615   3.374   1.488
42621SOL     OW29636   8.612   1.835   2.863
42621SOL    HW129637   8.611   1.780   2.941
42621SOL    HW229638   8.521   1.863   2.851
42622SOL     OW29639  12.748   3.943  13.837
42622SOL    HW129640  12.706   3.858  13.856
42622SOL    HW229641  12.677   4.006  13.845
42623SOL     OW29642  14.868   0.247   5.394
42623SOL    HW129643   0.059   0.293   5.346
42623SOL    HW229644  14.808   0.215   5.327
42624SOL     OW29645   7.526   2.529   6.968
42624SOL    HW129646   7.541   2.567   7.055
42624SOL    HW229647   7.611   2.530   6.926
42625SOL     OW29648  14.411   6.105  10.362
42625SOL    HW129649  14.477   6.172  10.346
42625SOL    HW229650  14.453   6.044  10.423
42626SOL     OW29651  10.525   2.152   5.551
42626SOL    HW129652  10.558   2.226   5.501
42626SOL    HW229653  10.596   2.087   5.549
42627SOL     OW29654   2.162   1.306   9.987
42627SOL    HW129655   2.088   1.264  10.030
42627SOL    HW229656   2.135   1.315   9.895
42628SOL     OW29657  13.747   5.333  10.702
42628SOL    HW129658  13.720   5.241  10.698
42628SOL    HW229659  13.667   5.382  10.685
42629SOL     OW29660   6.937   1.258   1.953
42629SOL    HW129661   6.968   1.296   2.035
42629SOL    HW229662   6.845   1.237   1.970
42630SOL     OW29663  10.379   1.102  11.226
42630SOL    HW129664  10.385   1.195  11.249
42630SOL    HW229665  10.421   1.096  11.141
42631SOL     OW29666  12.945   3.580   1.654
42631SOL    HW129667  12.970   3.500   1.700
42631SOL    HW229668  12.955   3.650   1.719
42632SOL     OW29669   6.722   4.344   1.309
42632SOL    HW129670   6.720   4.371   1.401
42632SOL    HW229671   6.637   4.302   1.294
42633SOL     OW29672   6.742  14.170   1.700
42633SOL    HW129673   6.704  14.084   1.684
42633SOL    HW229674   6.709  14.194   1.787
42634SOL     OW29675   0.742  11.236   7.098
42634SOL    HW129676   0.763  11.264   7.009
42634SOL    HW229677   0.715  11.145   7.089
42635SOL     OW29678  10.282   2.326  13.686
42635SOL    HW129679  10.295   2.417  13.712
42635SOL    HW229680  10.315   2.275  13.760
42636SOL     OW29681  14.738   8.242   6.670
42636SOL    HW129682  14.768   8.330   6.693
42636SOL    HW229683  14.747   8.192   6.751
42637SOL     OW29684  10.820   4.559   1.891
42637SOL    HW129685  10.900   4.509   1.908
42637SOL    HW229686  10.837   4.645   1.929
42638SOL     OW29687   2.286  14.029   8.481
42638SOL    HW129688   2.346  14.100   8.503
42638SOL    HW229689   2.205  14.073   8.456
42639SOL     OW29690   8.951  10.954   7.017
42639SOL    HW129691   9.040  10.948   6.981
42639SOL    HW229692   8.918  11.038   6.984
42640SOL     OW29693  10.342  11.878  10.688
42640SOL    HW129694  10.254  11.879  10.650
42640SOL    HW229695  10.382  11.798  10.655
42641SOL     OW29696  14.730   4.282  13.272
42641SOL    HW129697  14.651   4.280  13.326
42641SOL    HW229698  14.715   4.354  13.211
42642SOL     OW29699   6.933   5.262   1.097
42642SOL    HW129700   6.856   5.205   1.109
42642SOL    HW229701   6.937   5.313   1.178
42643SOL     OW29702  12.202   5.927   0.922
42643SOL    HW129703  12.226   5.884   0.840
42643SOL    HW229704  12.109   5.906   0.933
42644SOL     OW29705   5.682  13.138  12.012
42644SOL    HW129706   5.663  13.060  12.064
42644SOL    HW229707   5.675  13.107  11.921
42645SOL     OW29708   2.259   4.643  13.506
42645SOL    HW129709   2.303   4.652  13.591
42645SOL    HW229710   2.215   4.559  13.511
42646SOL     OW29711  12.632  12.654  10.073
42646SOL    HW129712  12.584  12.620  10.148
42646SOL    HW229713  12.621  12.749  10.078
42647SOL     OW29714   2.167   3.150   3.935
42647SOL    HW129715   2.225   3.101   3.994
42647SOL    HW229716   2.087   3.165   3.987
42648SOL     OW29717   5.044   4.245   8.685
42648SOL    HW129718   4.974   4.267   8.624
42648SOL    HW229719   5.123   4.245   8.631
42649SOL     OW29720   7.970   9.754   8.703
42649SOL    HW129721   7.970   9.770   8.798
42649SOL    HW229722   7.988   9.661   8.694
42650SOL     OW29723   3.807  12.840   9.460
42650SOL    HW129724   3.878  12.901   9.439
42650SOL    HW229725   3.745  12.851   9.388
42651SOL     OW29726   4.795   7.715  11.832
42651SOL    HW129727   4.780   7.736  11.924
42651SOL    HW229728   4.843   7.632  11.834
42652SOL     OW29729   6.470   8.057  11.733
42652SOL    HW129730   6.507   8.089  11.651
42652SOL    HW229731   6.421   7.978  11.708
42653SOL     OW29732   2.622  11.472  14.786
42653SOL    HW129733   2.689  11.536  14.809
42653SOL    HW229734   2.648  11.440  14.700
42654SOL     OW29735   6.877  12.669   1.718
42654SOL    HW129736   6.808  12.662   1.784
42654SOL    HW229737   6.933  12.593   1.733
42655SOL     OW29738  13.363  12.631   7.252
42655SOL    HW129739  13.394  12.614   7.341
42655SOL    HW229740  13.345  12.725   7.250
42656SOL     OW29741   8.106   6.488   3.831
42656SOL    HW129742   8.023   6.498   3.785
42656SOL    HW229743   8.107   6.560   3.895
42657SOL     OW29744  14.780  13.497   8.952
42657SOL    HW129745  14.819  13.442   8.885
42657SOL    HW229746  14.698  13.528   8.913
42658SOL     OW29747  13.964   3.576  10.613
42658SOL    HW129748  14.000   3.606  10.696
42658SOL    HW229749  13.896   3.640  10.592
42659SOL     OW29750  12.354  12.787  13.118
42659SOL    HW129751  12.447  12.800  13.132
42659SOL    HW229752  12.321  12.757  13.203
42660SOL     OW29753   6.602   7.924  12.188
42660SOL    HW129754   6.686   7.947  12.148
42660SOL    HW229755   6.539   7.985  12.148
42661SOL     OW29756  14.056   7.051  11.337
42661SOL    HW129757  14.150   7.044  11.324
42661SOL    HW229758  14.019   6.978  11.288
42662SOL     OW29759   1.971   7.028  14.380
42662SOL    HW129760   1.902   6.962  14.370
42662SOL    HW229761   1.940   7.103  14.329
42663SOL     OW29762   7.891   9.404  12.088
42663SOL    HW129763   7.923   9.375  12.174
42663SOL    HW229764   7.939   9.485  12.071
42664SOL     OW29765   2.771  13.698   5.709
42664SOL    HW129766   2.757  13.661   5.621
42664SOL    HW229767   2.840  13.763   5.696
42665SOL     OW29768   9.449  11.493  12.531
42665SOL    HW129769   9.465  11.444  12.450
42665SOL    HW229770   9.521  11.555  12.536
42666SOL     OW29771   6.136   4.355   8.142
42666SOL    HW129772   6.114   4.426   8.203
42666SOL    HW229773   6.226   4.332   8.164
42667SOL     OW29774  11.544  13.073   3.479
42667SOL    HW129775  11.594  12.993   3.460
42667SOL    HW229776  11.452  13.046   3.473
42668SOL     OW29777   3.249   9.836  11.695
42668SOL    HW129778   3.185   9.907  11.690
42668SOL    HW229779   3.310   9.855  11.623
42669SOL     OW29780   9.069   4.655   2.754
42669SOL    HW129781   9.123   4.622   2.683
42669SOL    HW229782   9.093   4.602   2.830
42670SOL     OW29783  12.652   6.575   7.610
42670SOL    HW129784  12.691   6.522   7.541
42670SOL    HW229785  12.564   6.595   7.577
42671SOL     OW29786   1.382   2.747   2.450
42671SOL    HW129787   1.344   2.688   2.385
42671SOL    HW229788   1.389   2.831   2.406
42672SOL     OW29789   0.055  11.880   7.707
42672SOL    HW129790   0.059  11.894   7.613
42672SOL    HW229791   0.030  11.964   7.744
42673SOL     OW29792  10.954  12.209   9.305
42673SOL    HW129793  10.877  12.264   9.293
42673SOL    HW229794  10.921  12.130   9.347
42674SOL     OW29795  14.031  10.685   3.469
42674SOL    HW129796  14.014  10.626   3.396
42674SOL    HW229797  14.119  10.718   3.453
42675SOL     OW29798  12.564  11.419   1.072
42675SOL    HW129799  12.640  11.475   1.055
42675SOL    HW229800  12.597  11.352   1.132
42676SOL     OW29801  11.350   6.184   1.012
42676SOL    HW129802  11.362   6.216   0.922
42676SOL    HW229803  11.279   6.121   1.005
42677SOL     OW29804   8.592   7.597   4.284
42677SOL    HW129805   8.549   7.512   4.278
42677SOL    HW229806   8.534   7.650   4.339
42678SOL     OW29807   4.216  10.653   5.219
42678SOL    HW129808   4.182  10.621   5.135
42678SOL    HW229809   4.144  10.638   5.281
42679SOL     OW29810  11.037   1.923  10.442
42679SOL    HW129811  11.055   1.992  10.378
42679SOL    HW229812  11.069   1.959  10.525
42680SOL     OW29813   8.897  14.762   7.274
42680SOL    HW129814   8.872  14.852   7.254
42680SOL    HW229815   8.900  14.759   7.370
42681SOL     OW29816  14.704   6.350   3.841
42681SOL    HW129817  14.762   6.280   3.809
42681SOL    HW229818  14.636   6.358   3.774
42682SOL     OW29819   5.811   3.333   4.781
42682SOL    HW129820   5.867   3.261   4.750
42682SOL    HW229821   5.838   3.348   4.871
42683SOL     OW29822   2.298   0.807   4.296
42683SOL    HW129823   2.272   0.898   4.282
42683SOL    HW229824   2.270   0.787   4.386
42684SOL     OW29825  12.638   8.379  12.289
42684SOL    HW129826  12.621   8.333  12.371
42684SOL    HW229827  12.639   8.311  12.222
42685SOL     OW29828   6.981   0.776   6.723
42685SOL    HW129829   7.006   0.867   6.740
42685SOL    HW229830   7.064   0.729   6.719
42686SOL     OW29831  10.792  10.474   5.616
42686SOL    HW129832  10.743  10.533   5.558
42686SOL    HW229833  10.884  10.494   5.599
42687SOL     OW29834   5.536   2.405   6.046
42687SOL    HW129835   5.589   2.471   6.001
42687SOL    HW229836   5.548   2.325   5.994
42688SOL     OW29837   6.431   8.076   1.331
42688SOL    HW129838   6.352   8.130   1.329
42688SOL    HW229839   6.502   8.139   1.342
42689SOL     OW29840  13.503  13.325   3.080
42689SOL    HW129841  13.579  13.285   3.124
42689SOL    HW229842  13.477  13.260   3.014
42690SOL     OW29843   1.957   7.810   7.500
42690SOL    HW129844   1.981   7.903   7.501
42690SOL    HW229845   1.912   7.796   7.583
42691SOL     OW29846   3.116   3.767   7.331
42691SOL    HW129847   3.125   3.690   7.276
42691SOL    HW229848   3.184   3.827   7.299
42692SOL     OW29849  10.131   5.513  14.148
42692SOL    HW129850  10.077   5.547  14.076
42692SOL    HW229851  10.208   5.475  14.104
42693SOL     OW29852  11.810   2.794   7.851
42693SOL    HW129853  11.895   2.773   7.891
42693SOL    HW229854  11.779   2.710   7.815
42694SOL     OW29855   0.331  12.591  12.105
42694SOL    HW129856   0.283  12.512  12.132
42694SOL    HW229857   0.358  12.573  12.015
42695SOL     OW29858   7.115   4.820   8.779
42695SOL    HW129859   7.085   4.758   8.844
42695SOL    HW229860   7.089   4.906   8.813
42696SOL     OW29861   3.704   4.550   9.089
42696SOL    HW129862   3.619   4.553   9.047
42696SOL    HW229863   3.766   4.541   9.017
42697SOL     OW29864  12.995   7.954  13.442
42697SOL    HW129865  12.909   7.973  13.403
42697SOL    HW229866  13.045   7.914  13.372
42698SOL     OW29867   0.340   2.155   3.282
42698SOL    HW129868   0.264   2.199   3.322
42698SOL    HW229869   0.309   2.127   3.197
42699SOL     OW29870   9.119   3.259  14.116
42699SOL    HW129871   9.184   3.202  14.073
42699SOL    HW229872   9.122   3.233  14.208
42700SOL     OW29873   6.563   3.698   7.148
42700SOL    HW129874   6.658   3.704   7.146
42700SOL    HW229875   6.540   3.648   7.070
42701SOL     OW29876  13.624   6.867  11.798
42701SOL    HW129877  13.637   6.781  11.755
42701SOL    HW229878  13.637   6.930  11.727
42702SOL     OW29879   3.293  11.810   8.563
42702SOL    HW129880   3.342  11.759   8.628
42702SOL    HW229881   3.209  11.764   8.555
42703SOL     OW29882   2.812   6.550   9.174
42703SOL    HW129883   2.753   6.485   9.135
42703SOL    HW229884   2.843   6.509   9.254
42704SOL     OW29885  14.410  11.229   8.170
42704SOL    HW129886  14.392  11.321   8.148
42704SOL    HW229887  14.428  11.188   8.086
42705SOL     OW29888   6.471   1.619   5.788
42705SOL    HW129889   6.472   1.525   5.806
42705SOL    HW229890   6.463   1.660   5.874
42706SOL     OW29891   0.372  11.588  12.945
42706SOL    HW129892   0.282  11.558  12.929
42706SOL    HW229893   0.420  11.565  12.866
42707SOL     OW29894  12.969   9.986  10.595
42707SOL    HW129895  13.053   9.944  10.576
42707SOL    HW229896  12.936   9.939  10.672
42708SOL     OW29897   1.691  14.240   6.047
42708SOL    HW129898   1.769  14.258   6.099
42708SOL    HW229899   1.633  14.314   6.065
42709SOL     OW29900  11.197  11.111   1.868
42709SOL    HW129901  11.223  11.127   1.778
42709SOL    HW229902  11.105  11.135   1.872
42710SOL     OW29903   9.163   4.175  12.006
42710SOL    HW129904   9.250   4.157  12.040
42710SOL    HW229905   9.146   4.103  11.945
42711SOL     OW29906   5.613  12.480   1.587
42711SOL    HW129907   5.616  12.546   1.656
42711SOL    HW229908   5.578  12.526   1.511
42712SOL     OW29909  10.328  12.799   7.404
42712SOL    HW129910  10.344  12.771   7.314
42712SOL    HW229911  10.409  12.777   7.451
42713SOL     OW29912  13.731  13.682   6.147
42713SOL    HW129913  13.819  13.658   6.176
42713SOL    HW229914  13.744  13.720   6.060
42714SOL     OW29915  10.727   7.168  10.085
42714SOL    HW129916  10.739   7.143  10.176
42714SOL    HW229917  10.799   7.228  10.066
42715SOL     OW29918   8.234  11.139   1.162
42715SOL    HW129919   8.297  11.201   1.199
42715SOL    HW229920   8.188  11.104   1.238
42716SOL     OW29921   2.843   8.704  12.908
42716SOL    HW129922   2.850   8.611  12.886
42716SOL    HW229923   2.758   8.731  12.873
42717SOL     OW29924  13.275   3.291   4.152
42717SOL    HW129925  13.365   3.262   4.165
42717SOL    HW229926  13.221   3.223   4.195
42718SOL     OW29927  12.020  12.285   1.615
42718SOL    HW129928  12.037  12.310   1.524
42718SOL    HW229929  12.102  12.306   1.661
42719SOL     OW29930   3.923  11.480  11.825
42719SOL    HW129931   3.891  11.570  11.824
42719SOL    HW229932   3.936  11.459  11.917
42720SOL     OW29933   7.043   3.249  14.446
42720SOL    HW129934   6.977   3.286  14.504
42720SOL    HW229935   6.994   3.223  14.368
42721SOL     OW29936   8.537   2.695   3.144
42721SOL    HW129937   8.557   2.785   3.168
42721SOL    HW229938   8.572   2.684   3.056
42722SOL     OW29939   4.736   4.761   9.693
42722SOL    HW129940   4.762   4.851   9.673
42722SOL    HW229941   4.807   4.707   9.657
42723SOL     OW29942   0.122  14.210   0.056
42723SOL    HW129943   0.210  14.248   0.058
42723SOL    HW229944   0.120  14.157  14.854
42724SOL     OW29945   4.202   9.348   6.159
42724SOL    HW129946   4.283   9.301   6.182
42724SOL    HW229947   4.185   9.321   6.069
42725SOL     OW29948   9.234   1.894   9.336
42725SOL    HW129949   9.238   1.833   9.409
42725SOL    HW229950   9.153   1.871   9.290
42726SOL     OW29951   5.386   6.385   3.189
42726SOL    HW129952   5.472   6.383   3.230
42726SOL    HW229953   5.402   6.358   3.098
42727SOL     OW29954   7.195  12.932  14.529
42727SOL    HW129955   7.206  12.997  14.460
42727SOL    HW229956   7.173  12.851  14.483
42728SOL     OW29957   3.797  11.596   1.471
42728SOL    HW129958   3.862  11.623   1.536
42728SOL    HW229959   3.805  11.660   1.400
42729SOL     OW29960   1.063   3.061   2.518
42729SOL    HW129961   1.064   3.134   2.580
42729SOL    HW229962   1.134   3.080   2.457
42730SOL     OW29963  13.778   2.442   2.825
42730SOL    HW129964  13.826   2.525   2.812
42730SOL    HW229965  13.710   2.464   2.889
42731SOL     OW29966   9.152   5.053  11.342
42731SOL    HW129967   9.083   5.106  11.300
42731SOL    HW229968   9.233   5.097  11.319
42732SOL     OW29969   1.622   5.179  10.767
42732SOL    HW129970   1.560   5.124  10.815
42732SOL    HW229971   1.638   5.131  10.686
42733SOL     OW29972   1.694  10.116   8.701
42733SOL    HW129973   1.787  10.129   8.720
42733SOL    HW229974   1.649  10.139   8.782
42734SOL     OW29975   6.100   8.271   8.624
42734SOL    HW129976   6.017   8.317   8.634
42734SOL    HW229977   6.078   8.192   8.575
42735SOL     OW29978  10.095   9.088  11.289
42735SOL    HW129979  10.031   9.148  11.251
42735SOL    HW229980  10.089   9.102  11.383
42736SOL     OW29981   4.540  10.153  12.454
42736SOL    HW129982   4.591  10.224  12.416
42736SOL    HW229983   4.540  10.170  12.548
42737SOL     OW29984   2.917   7.827   3.278
42737SOL    HW129985   2.838   7.807   3.228
42737SOL    HW229986   2.956   7.902   3.233
42738SOL     OW29987  10.287   7.494   8.139
42738SOL    HW129988  10.332   7.475   8.056
42738SOL    HW229989  10.355   7.484   8.205
42739SOL     OW29990   8.942   7.181   6.581
42739SOL    HW129991   8.950   7.147   6.492
42739SOL    HW229992   8.928   7.103   6.635
42740SOL     OW29993   1.007   1.489   8.905
42740SOL    HW129994   0.998   1.457   8.815
42740SOL    HW229995   0.922   1.528   8.925
42741SOL     OW29996   4.448   8.541   2.847
42741SOL    HW129997   4.405   8.469   2.893
42741SOL    HW229998   4.430   8.618   2.901
42742SOL     OW29999   0.722   8.536   8.530
42742SOL    HW130000   0.758   8.611   8.579
42742SOL    HW230001   0.793   8.472   8.530
42743SOL     OW30002   9.639  12.337   5.179
42743SOL    HW130003   9.693  12.409   5.147
42743SOL    HW230004   9.632  12.352   5.273
42744SOL     OW30005   0.833   2.002   1.730
42744SOL    HW130006   0.902   2.063   1.704
42744SOL    HW230007   0.775   2.053   1.787
42745SOL     OW30008   0.514   2.656   8.521
42745SOL    HW130009   0.532   2.569   8.484
42745SOL    HW230010   0.531   2.716   8.449
42746SOL     OW30011   7.102  10.119  10.013
42746SOL    HW130012   7.033  10.055  10.032
42746SOL    HW230013   7.177  10.067   9.986
42747SOL     OW30014   3.891   3.765   9.475
42747SOL    HW130015   3.835   3.828   9.429
42747SOL    HW230016   3.838   3.686   9.482
42748SOL     OW30017  11.834   9.670   7.635
42748SOL    HW130018  11.843   9.736   7.566
42748SOL    HW230019  11.740   9.659   7.646
42749SOL     OW30020   6.678   5.021   7.464
42749SOL    HW130021   6.587   5.011   7.437
42749SOL    HW230022   6.679   4.994   7.556
42750SOL     OW30023  14.638   1.838   0.510
42750SOL    HW130024  14.549   1.807   0.496
42750SOL    HW230025  14.635   1.932   0.491
42751SOL     OW30026   6.591   4.810   2.721
42751SOL    HW130027   6.549   4.733   2.759
42751SOL    HW230028   6.628   4.778   2.638
42752SOL     OW30029   6.947   0.184  14.855
42752SOL    HW130030   6.867   0.152   0.018
42752SOL    HW230031   7.015   0.123   0.006
42753SOL     OW30032  14.383   3.789   2.358
42753SOL    HW130033  14.400   3.880   2.333
42753SOL    HW230034  14.327   3.796   2.436
42754SOL     OW30035   0.050  14.088   0.885
42754SOL    HW130036   0.054  14.178   0.853
42754SOL    HW230037   0.135  14.050   0.862
42755SOL     OW30038   1.745  13.297  12.167
42755SOL    HW130039   1.670  13.318  12.223
42755SOL    HW230040   1.760  13.376  12.116
42756SOL     OW30041   4.017   0.245  13.102
42756SOL    HW130042   4.046   0.188  13.030
42756SOL    HW230043   3.982   0.186  13.168
42757SOL     OW30044  10.617  11.437  10.049
42757SOL    HW130045  10.543  11.496  10.042
42757SOL    HW230046  10.613  11.403  10.138
42758SOL     OW30047   3.645   7.141  11.748
42758SOL    HW130048   3.651   7.216  11.689
42758SOL    HW230049   3.563   7.098  11.724
42759SOL     OW30050   3.088   7.848  14.854
42759SOL    HW130051   3.066   7.783   0.043
42759SOL    HW230052   3.130   7.798  14.784
42760SOL     OW30053  13.338  12.438   4.693
42760SOL    HW130054  13.261  12.453   4.638
42760SOL    HW230055  13.350  12.343   4.693
42761SOL     OW30056   8.221   7.392   4.780
42761SOL    HW130057   8.147   7.406   4.721
42761SOL    HW230058   8.180   7.381   4.866
42762SOL     OW30059   6.633  11.462  12.308
42762SOL    HW130060   6.650  11.467  12.214
42762SOL    HW230061   6.710  11.417  12.344
42763SOL     OW30062   5.183   5.860   5.488
42763SOL    HW130063   5.202   5.836   5.579
42763SOL    HW230064   5.130   5.939   5.495
42764SOL     OW30065   4.778  10.276  11.908
42764SOL    HW130066   4.841  10.210  11.877
42764SOL    HW230067   4.707  10.226  11.946
42765SOL     OW30068  10.337   2.517   3.590
42765SOL    HW130069  10.397   2.592   3.587
42765SOL    HW230070  10.255   2.554   3.620
42766SOL     OW30071   5.272   5.775   3.120
42766SOL    HW130072   5.178   5.768   3.105
42766SOL    HW230073   5.294   5.864   3.093
42767SOL     OW30074   4.935   6.685   6.882
42767SOL    HW130075   4.869   6.754   6.879
42767SOL    HW230076   4.987   6.699   6.803
42768SOL     OW30077  12.630   3.042  12.167
42768SOL    HW130078  12.543   3.044  12.207
42768SOL    HW230079  12.678   3.114  12.208
42769SOL     OW30080   8.032   7.470  11.261
42769SOL    HW130081   8.078   7.547  11.297
42769SOL    HW230082   7.952   7.464  11.313
42770SOL     OW30083   6.734   2.521   2.665
42770SOL    HW130084   6.723   2.426   2.668
42770SOL    HW230085   6.812   2.534   2.611
42771SOL     OW30086   1.853   7.203  10.070
42771SOL    HW130087   1.816   7.219   9.983
42771SOL    HW230088   1.871   7.109  10.071
42772SOL     OW30089   1.122   9.367   5.981
42772SOL    HW130090   1.123   9.426   6.057
42772SOL    HW230091   1.200   9.314   5.991
42773SOL     OW30092   6.189   2.004   9.459
42773SOL    HW130093   6.139   1.984   9.380
42773SOL    HW230094   6.270   2.045   9.427
42774SOL     OW30095  12.259  11.691   3.627
42774SOL    HW130096  12.335  11.663   3.576
42774SOL    HW230097  12.217  11.758   3.573
42775SOL     OW30098  10.948  10.154  14.765
42775SOL    HW130099  10.961  10.083  14.828
42775SOL    HW230100  11.011  10.221  14.790
42776SOL     OW30101   6.371  11.933   7.616
42776SOL    HW130102   6.343  11.901   7.702
42776SOL    HW230103   6.431  12.005   7.635
42777SOL     OW30104   1.039   0.703  11.982
42777SOL    HW130105   0.949   0.670  11.979
42777SOL    HW230106   1.083   0.648  12.047
42778SOL     OW30107   3.238   8.453  10.371
42778SOL    HW130108   3.265   8.387  10.435
42778SOL    HW230109   3.318   8.473  10.322
42779SOL     OW30110  11.791   1.496  12.385
42779SOL    HW130111  11.702   1.510  12.416
42779SOL    HW230112  11.839   1.467  12.463
42780SOL     OW30113  10.125  11.086   2.201
42780SOL    HW130114  10.082  11.101   2.117
42780SOL    HW230115  10.053  11.080   2.264
42781SOL     OW30116  13.260  13.345   4.661
42781SOL    HW130117  13.230  13.398   4.735
42781SOL    HW230118  13.218  13.385   4.584
42782SOL     OW30119   4.627  14.044   6.485
42782SOL    HW130120   4.709  14.053   6.534
42782SOL    HW230121   4.621  13.951   6.465
42783SOL     OW30122   8.858  13.781   7.702
42783SOL    HW130123   8.780  13.787   7.756
42783SOL    HW230124   8.895  13.869   7.703
42784SOL     OW30125   8.597   6.286  10.845
42784SOL    HW130126   8.505   6.276  10.868
42784SOL    HW230127   8.644   6.263  10.925
42785SOL     OW30128  13.549  10.469   0.684
42785SOL    HW130129  13.597  10.436   0.608
42785SOL    HW230130  13.457  10.465   0.658
42786SOL     OW30131  10.730   6.451   0.099
42786SOL    HW130132  10.636   6.432   0.110
42786SOL    HW230133  10.745   6.439   0.005
42787SOL     OW30134   9.797   9.539  13.351
42787SOL    HW130135   9.881   9.579  13.330
42787SOL    HW230136   9.743   9.612  13.382
42788SOL     OW30137   9.088   1.734  12.054
42788SOL    HW130138   9.173   1.777  12.060
42788SOL    HW230139   9.092   1.663  12.118
42789SOL     OW30140  12.023  12.067  10.450
42789SOL    HW130141  12.028  11.979  10.413
42789SOL    HW230142  11.930  12.087  10.453
42790SOL     OW30143   8.314  12.686   0.068
42790SOL    HW130144   8.238  12.740   0.087
42790SOL    HW230145   8.296  12.648  14.859
42791SOL     OW30146  13.048   8.785   6.018
42791SOL    HW130147  13.105   8.777   5.941
42791SOL    HW230148  13.055   8.700   6.062
42792SOL     OW30149  11.465   6.074  14.157
42792SOL    HW130150  11.458   6.018  14.080
42792SOL    HW230151  11.559   6.083  14.172
42793SOL     OW30152   6.998  11.774   6.699
42793SOL    HW130153   6.937  11.773   6.773
42793SOL    HW230154   7.070  11.829   6.728
42794SOL     OW30155   0.953   5.782   3.619
42794SOL    HW130156   0.872   5.832   3.625
42794SOL    HW230157   0.937   5.719   3.548
42795SOL     OW30158  10.335   8.990   5.187
42795SOL    HW130159  10.405   9.034   5.234
42795SOL    HW230160  10.317   9.048   5.112
42796SOL     OW30161  10.801   8.538  14.436
42796SOL    HW130162  10.767   8.453  14.463
42796SOL    HW230163  10.726   8.597  14.443
42797SOL     OW30164  13.518  11.783   0.513
42797SOL    HW130165  13.489  11.799   0.423
42797SOL    HW230166  13.459  11.715   0.545
42798SOL     OW30167   1.084   1.477   4.677
42798SOL    HW130168   1.094   1.562   4.719
42798SOL    HW230169   1.089   1.414   4.748
42799SOL     OW30170   2.895  10.405   9.097
42799SOL    HW130171   2.904  10.451   9.014
42799SOL    HW230172   2.942  10.458   9.160
42800SOL     OW30173   4.720   8.745  13.225
42800SOL    HW130174   4.644   8.791  13.259
42800SOL    HW230175   4.712   8.752  13.130
42801SOL     OW30176   1.471   4.919   9.355
42801SOL    HW130177   1.519   5.002   9.360
42801SOL    HW230178   1.527   4.856   9.399
42802SOL     OW30179  14.543   1.008   7.071
42802SOL    HW130180  14.475   1.072   7.050
42802SOL    HW230181  14.610   1.022   7.003
42803SOL     OW30182   1.943   0.882   3.745
42803SOL    HW130183   2.003   0.864   3.817
42803SOL    HW230184   1.998   0.877   3.666
42804SOL     OW30185  14.374  12.654   6.238
42804SOL    HW130186  14.347  12.646   6.146
42804SOL    HW230187  14.294  12.638   6.288
42805SOL     OW30188  12.831   5.166  10.494
42805SOL    HW130189  12.843   5.199  10.582
42805SOL    HW230190  12.748   5.204  10.464
42806SOL     OW30191   7.843  11.692  11.067
42806SOL    HW130192   7.750  11.685  11.046
42806SOL    HW230193   7.853  11.779  11.106
42807SOL     OW30194   4.747   7.662   8.756
42807SOL    HW130195   4.771   7.744   8.712
42807SOL    HW230196   4.772   7.674   8.847
42808SOL     OW30197  13.488   4.406   4.543
42808SOL    HW130198  13.543   4.363   4.608
42808SOL    HW230199  13.503   4.357   4.462
42809SOL     OW30200   8.833  13.708  13.470
42809SOL    HW130201   8.777  13.635  13.498
42809SOL    HW230202   8.922  13.672  13.476
42810SOL     OW30203   3.347  13.743   3.237
42810SOL    HW130204   3.306  13.715   3.155
42810SOL    HW230205   3.284  13.719   3.305
42811SOL     OW30206  13.271   9.554   6.514
42811SOL    HW130207  13.215   9.552   6.591
42811SOL    HW230208  13.292   9.647   6.502
42812SOL     OW30209  12.348   4.414   9.170
42812SOL    HW130210  12.391   4.338   9.209
42812SOL    HW230211  12.270   4.378   9.128
42813SOL     OW30212   5.254   5.240   0.363
42813SOL    HW130213   5.311   5.218   0.290
42813SOL    HW230214   5.176   5.278   0.322
42814SOL     OW30215   0.263  14.153   3.421
42814SOL    HW130216   0.175  14.172   3.390
42814SOL    HW230217   0.268  14.057   3.423
42815SOL     OW30218  10.602   9.543   6.017
42815SOL    HW130219  10.537   9.517   6.082
42815SOL    HW230220  10.566   9.622   5.978
42816SOL     OW30221   9.924   5.377  14.297
42816SOL    HW130222   9.966   5.408  14.378
42816SOL    HW230223   9.970   5.422  14.227
42817SOL     OW30224   7.680   7.061   8.876
42817SOL    HW130225   7.624   7.106   8.939
42817SOL    HW230226   7.742   7.012   8.930
42818SOL     OW30227  13.156  11.923  11.710
42818SOL    HW130228  13.108  12.000  11.681
42818SOL    HW230229  13.211  11.900  11.635
42819SOL     OW30230  13.676   8.916   9.165
42819SOL    HW130231  13.620   8.881   9.234
42819SOL    HW230232  13.641   8.878   9.084
42820SOL     OW30233   5.330   5.521   3.414
42820SOL    HW130234   5.353   5.469   3.491
42820SOL    HW230235   5.242   5.492   3.390
42821SOL     OW30236   3.118   5.008   1.940
42821SOL    HW130237   3.164   5.091   1.942
42821SOL    HW230238   3.166   4.956   1.875
42822SOL     OW30239   9.793   0.903   3.599
42822SOL    HW130240   9.729   0.867   3.660
42822SOL    HW230241   9.863   0.937   3.655
42823SOL     OW30242   6.694  12.181  13.781
42823SOL    HW130243   6.621  12.243  13.774
42823SOL    HW230244   6.728  12.175  13.692
42824SOL     OW30245   4.276   5.259  13.394
42824SOL    HW130246   4.330   5.268  13.316
42824SOL    HW230247   4.332   5.213  13.457
42825SOL     OW30248   3.181  10.371   3.470
42825SOL    HW130249   3.236  10.312   3.522
42825SOL    HW230250   3.095  10.329   3.470
42826SOL     OW30251   4.785  14.310   8.920
42826SOL    HW130252   4.852  14.374   8.897
42826SOL    HW230253   4.703  14.351   8.892
42827SOL     OW30254  10.216  10.476  10.670
42827SOL    HW130255  10.232  10.529  10.592
42827SOL    HW230256  10.283  10.408  10.668
42828SOL     OW30257   5.641   8.140  14.476
42828SOL    HW130258   5.679   8.069  14.528
42828SOL    HW230259   5.564   8.101  14.433
42829SOL     OW30260   2.933   5.310  12.685
42829SOL    HW130261   2.919   5.227  12.639
42829SOL    HW230262   2.848   5.355  12.680
42830SOL     OW30263   0.481  13.662   2.154
42830SOL    HW130264   0.434  13.617   2.084
42830SOL    HW230265   0.567  13.680   2.116
42831SOL     OW30266  10.388  10.168   8.669
42831SOL    HW130267  10.345  10.249   8.698
42831SOL    HW230268  10.479  10.193   8.656
42832SOL     OW30269   5.282   1.027  13.134
42832SOL    HW130270   5.328   1.068  13.206
42832SOL    HW230271   5.208   0.982  13.175
42833SOL     OW30272  12.996   6.897   8.692
42833SOL    HW130273  12.933   6.946   8.639
42833SOL    HW230274  13.042   6.842   8.629
42834SOL     OW30275   4.883  11.012   0.804
42834SOL    HW130276   4.938  11.074   0.758
42834SOL    HW230277   4.936  10.984   0.879
42835SOL     OW30278   2.610   7.739  10.596
42835SOL    HW130279   2.547   7.690  10.544
42835SOL    HW230280   2.559   7.773  10.670
42836SOL     OW30281  14.466  10.781  13.984
42836SOL    HW130282  14.460  10.861  13.932
42836SOL    HW230283  14.447  10.711  13.922
42837SOL     OW30284   4.168   2.970   9.495
42837SOL    HW130285   4.157   2.890   9.443
42837SOL    HW230286   4.209   3.032   9.435
42838SOL     OW30287   0.502   6.817   0.526
42838SOL    HW130288   0.492   6.884   0.592
42838SOL    HW230289   0.444   6.746   0.553
42839SOL     OW30290   1.102   5.316   4.479
42839SOL    HW130291   1.025   5.358   4.441
42839SOL    HW230292   1.138   5.381   4.539
42840SOL     OW30293   5.519  11.459   3.144
42840SOL    HW130294   5.576  11.481   3.070
42840SOL    HW230295   5.567  11.490   3.221
42841SOL     OW30296   1.883   6.898   0.975
42841SOL    HW130297   1.926   6.899   0.889
42841SOL    HW230298   1.899   6.985   1.011
42842SOL     OW30299   5.836   6.025   6.173
42842SOL    HW130300   5.750   6.062   6.152
42842SOL    HW230301   5.897   6.097   6.159
42843SOL     OW30302   6.422   0.638   8.277
42843SOL    HW130303   6.445   0.703   8.210
42843SOL    HW230304   6.342   0.597   8.245
42844SOL     OW30305   4.588   3.061   9.418
42844SOL    HW130306   4.517   3.121   9.440
42844SOL    HW230307   4.579   2.989   9.481
42845SOL     OW30308  11.945  12.772   3.389
42845SOL    HW130309  11.905  12.851   3.425
42845SOL    HW230310  11.900  12.700   3.433
42846SOL     OW30311   4.057   3.718   2.455
42846SOL    HW130312   4.062   3.625   2.432
42846SOL    HW230313   3.986   3.723   2.518
42847SOL     OW30314   1.594  11.732  14.180
42847SOL    HW130315   1.671  11.785  14.200
42847SOL    HW230316   1.590  11.731  14.084
42848SOL     OW30317   8.429  11.604   1.096
42848SOL    HW130318   8.479  11.549   1.156
42848SOL    HW230319   8.453  11.694   1.121
42849SOL     OW30320   8.800   4.677   4.296
42849SOL    HW130321   8.802   4.741   4.224
42849SOL    HW230322   8.767   4.597   4.255
42850SOL     OW30323   2.861   1.514  12.974
42850SOL    HW130324   2.915   1.591  12.988
42850SOL    HW230325   2.831   1.490  13.062
42851SOL     OW30326  11.333   3.797  11.379
42851SOL    HW130327  11.318   3.883  11.338
42851SOL    HW230328  11.256   3.746  11.354
42852SOL     OW30329  13.736  14.126   7.696
42852SOL    HW130330  13.767  14.052   7.644
42852SOL    HW230331  13.813  14.181   7.709
42853SOL     OW30332   1.231   2.988   6.863
42853SOL    HW130333   1.227   2.892   6.871
42853SOL    HW230334   1.189   3.020   6.943
42854SOL     OW30335   6.071  13.715  13.190
42854SOL    HW130336   6.064  13.672  13.275
42854SOL    HW230337   6.039  13.650  13.127
42855SOL     OW30338  14.367   9.933   9.900
42855SOL    HW130339  14.423  10.010   9.897
42855SOL    HW230340  14.278   9.968   9.893
42856SOL     OW30341   0.957  12.843   6.680
42856SOL    HW130342   0.962  12.755   6.643
42856SOL    HW230343   0.906  12.892   6.616
42857SOL     OW30344   0.928   7.193  13.902
42857SOL    HW130345   0.963   7.225  13.985
42857SOL    HW230346   0.965   7.104  13.894
42858SOL     OW30347  12.078  10.082   3.572
42858SOL    HW130348  12.151  10.038   3.527
42858SOL    HW230349  11.999  10.042   3.536
42859SOL     OW30350   1.158   1.728   8.718
42859SOL    HW130351   1.128   1.775   8.796
42859SOL    HW230352   1.207   1.654   8.752
42860SOL     OW30353  10.344   9.103   2.948
42860SOL    HW130354  10.286   9.042   2.904
42860SOL    HW230355  10.289   9.146   3.014
42861SOL     OW30356   8.432  14.654   9.299
42861SOL    HW130357   8.386  14.570   9.295
42861SOL    HW230358   8.442  14.681   9.208
42862SOL     OW30359   8.233  13.833  11.809
42862SOL    HW130360   8.178  13.908  11.835
42862SOL    HW230361   8.242  13.842  11.714
42863SOL     OW30362   7.436   0.268   1.285
42863SOL    HW130363   7.450   0.182   1.247
42863SOL    HW230364   7.462   0.329   1.216
42864SOL     OW30365   4.116  11.349   8.616
42864SOL    HW130366   4.209  11.369   8.623
42864SOL    HW230367   4.082  11.414   8.555
42865SOL     OW30368   6.269   4.214   8.723
42865SOL    HW130369   6.309   4.300   8.731
42865SOL    HW230370   6.205   4.210   8.793
42866SOL     OW30371   4.788   9.881  13.473
42866SOL    HW130372   4.698   9.862  13.497
42866SOL    HW230373   4.796   9.976  13.482
42867SOL     OW30374   0.392  14.078   1.058
42867SOL    HW130375   0.453  14.004   1.048
42867SOL    HW230376   0.418  14.119   1.141
42868SOL     OW30377   1.225   5.375   5.603
42868SOL    HW130378   1.145   5.345   5.560
42868SOL    HW230379   1.273   5.421   5.534
42869SOL     OW30380   4.475  12.887   2.448
42869SOL    HW130381   4.517  12.809   2.485
42869SOL    HW230382   4.537  12.958   2.467
42870SOL     OW30383   9.025   9.206  11.127
42870SOL    HW130384   9.081   9.149  11.180
42870SOL    HW230385   8.990   9.270  11.189
42871SOL     OW30386  14.354  14.844   6.687
42871SOL    HW130387  14.377  14.757   6.718
42871SOL    HW230388  14.383   0.025   6.757
42872SOL     OW30389   2.666  14.056   0.446
42872SOL    HW130390   2.699  14.100   0.525
42872SOL    HW230391   2.628  14.126   0.394
42873SOL     OW30392  10.106  12.456   5.588
42873SOL    HW130393  10.164  12.485   5.518
42873SOL    HW230394  10.104  12.529   5.650
42874SOL     OW30395   6.056   5.976   4.129
42874SOL    HW130396   6.092   5.939   4.209
42874SOL    HW230397   6.112   6.052   4.110
42875SOL     OW30398   5.384   6.972   6.093
42875SOL    HW130399   5.291   6.985   6.077
42875SOL    HW230400   5.391   6.957   6.187
42876SOL     OW30401   8.313   5.199   1.570
42876SOL    HW130402   8.253   5.138   1.612
42876SOL    HW230403   8.374   5.144   1.521
42877SOL     OW30404   6.221   4.178  14.399
42877SOL    HW130405   6.211   4.091  14.438
42877SOL    HW230406   6.315   4.187  14.385
42878SOL     OW30407  13.375  10.265   1.458
42878SOL    HW130408  13.386  10.182   1.505
42878SOL    HW230409  13.324  10.319   1.517
42879SOL     OW30410   9.915   5.383  12.518
42879SOL    HW130411   9.845   5.444  12.544
42879SOL    HW230412   9.967   5.432  12.455
42880SOL     OW30413  10.696   7.236   4.737
42880SOL    HW130414  10.780   7.267   4.770
42880SOL    HW230415  10.678   7.156   4.786
42881SOL     OW30416   9.728   1.249  12.042
42881SOL    HW130417   9.726   1.240  11.947
42881SOL    HW230418   9.817   1.225  12.067
42882SOL     OW30419   6.418   4.468  13.398
42882SOL    HW130420   6.373   4.530  13.455
42882SOL    HW230421   6.408   4.384  13.442
42883SOL     OW30422   5.720   0.162   3.801
42883SOL    HW130423   5.640   0.191   3.845
42883SOL    HW230424   5.696   0.078   3.760
42884SOL     OW30425   6.845   5.170   9.171
42884SOL    HW130426   6.833   5.187   9.077
42884SOL    HW230427   6.763   5.200   9.211
42885SOL     OW30428  13.065   4.801  14.199
42885SOL    HW130429  13.053   4.708  14.217
42885SOL    HW230430  13.122   4.832  14.270
42886SOL     OW30431   9.837   3.858   3.799
42886SOL    HW130432   9.809   3.949   3.797
42886SOL    HW230433   9.780   3.816   3.864
42887SOL     OW30434   8.424  10.289   2.175
42887SOL    HW130435   8.347  10.332   2.212
42887SOL    HW230436   8.478  10.267   2.251
42888SOL     OW30437   1.551   9.921  12.178
42888SOL    HW130438   1.598   9.886  12.253
42888SOL    HW230439   1.600   9.890  12.102
42889SOL     OW30440   2.977  13.446  11.265
42889SOL    HW130441   2.892  13.405  11.283
42889SOL    HW230442   2.996  13.422  11.174
42890SOL     OW30443   2.119   5.785   5.751
42890SOL    HW130444   2.102   5.740   5.667
42890SOL    HW230445   2.133   5.876   5.727
42891SOL     OW30446   9.915  13.325   6.164
42891SOL    HW130447  10.003  13.322   6.202
42891SOL    HW230448   9.856  13.321   6.240
42892SOL     OW30449   8.775   8.839   7.995
42892SOL    HW130450   8.752   8.923   7.957
42892SOL    HW230451   8.850   8.858   8.052
42893SOL     OW30452   1.027   9.063  11.242
42893SOL    HW130453   1.038   8.969  11.249
42893SOL    HW230454   0.941   9.075  11.203
42894SOL     OW30455   3.849  11.005   0.999
42894SOL    HW130456   3.869  10.935   1.061
42894SOL    HW230457   3.934  11.039   0.972
42895SOL     OW30458  11.151   6.668   7.211
42895SOL    HW130459  11.149   6.699   7.120
42895SOL    HW230460  11.244   6.663   7.232
42896SOL     OW30461   9.174  14.039  14.232
42896SOL    HW130462   9.258  14.044  14.185
42896SOL    HW230463   9.191  14.084  14.315
42897SOL     OW30464   3.597   3.816   5.779
42897SOL    HW130465   3.564   3.887   5.835
42897SOL    HW230466   3.535   3.812   5.706
42898SOL     OW30467   6.017   5.529  11.655
42898SOL    HW130468   6.006   5.573  11.739
42898SOL    HW230469   5.948   5.566  11.600
42899SOL     OW30470   8.202  11.518   9.309
42899SOL    HW130471   8.167  11.607   9.313
42899SOL    HW230472   8.140  11.465   9.358
42900SOL     OW30473  13.157  13.891   9.841
42900SOL    HW130474  13.238  13.904   9.792
42900SOL    HW230475  13.118  13.812   9.804
42901SOL     OW30476  11.634   2.580   1.545
42901SOL    HW130477  11.724   2.558   1.521
42901SOL    HW230478  11.627   2.557   1.637
42902SOL     OW30479  14.092   3.377   8.127
42902SOL    HW130480  14.104   3.320   8.051
42902SOL    HW230481  14.002   3.358   8.156
42903SOL     OW30482  10.234   2.864   9.954
42903SOL    HW130483  10.299   2.865   9.884
42903SOL    HW230484  10.278   2.907  10.028
42904SOL     OW30485  13.237   9.037   9.886
42904SOL    HW130486  13.147   9.017   9.864
42904SOL    HW230487  13.238   9.132   9.902
42905SOL     OW30488   4.162   5.336   2.913
42905SOL    HW130489   4.139   5.329   3.006
42905SOL    HW230490   4.191   5.427   2.903
42906SOL     OW30491   4.682   1.785   2.845
42906SOL    HW130492   4.649   1.850   2.782
42906SOL    HW230493   4.771   1.767   2.816
42907SOL     OW30494   5.974  10.873   2.274
42907SOL    HW130495   5.908  10.910   2.331
42907SOL    HW230496   5.933  10.793   2.239
42908SOL     OW30497   1.986   9.035  13.138
42908SOL    HW130498   1.974   9.066  13.228
42908SOL    HW230499   2.069   8.987  13.140
42909SOL     OW30500   6.473  11.435  14.267
42909SOL    HW130501   6.520  11.510  14.232
42909SOL    HW230502   6.384  11.443  14.230
42910SOL     OW30503   8.056   8.436   6.518
42910SOL    HW130504   7.961   8.430   6.507
42910SOL    HW230505   8.090   8.434   6.429
42911SOL     OW30506   8.484   0.289   7.584
42911SOL    HW130507   8.490   0.350   7.657
42911SOL    HW230508   8.552   0.224   7.602
42912SOL     OW30509  14.016   7.513   2.753
42912SOL    HW130510  13.940   7.461   2.779
42912SOL    HW230511  13.982   7.602   2.743
42913SOL     OW30512   5.323   4.290   6.061
42913SOL    HW130513   5.341   4.382   6.079
42913SOL    HW230514   5.409   4.248   6.063
42914SOL     OW30515  10.419   9.828   8.521
42914SOL    HW130516  10.389   9.752   8.571
42914SOL    HW230517  10.343   9.854   8.468
42915SOL     OW30518   2.659   3.098  10.382
42915SOL    HW130519   2.749   3.075  10.361
42915SOL    HW230520   2.607   3.026  10.347
42916SOL     OW30521   8.678   6.071   0.097
42916SOL    HW130522   8.730   6.119   0.162
42916SOL    HW230523   8.599   6.044   0.144
42917SOL     OW30524   6.575  13.097   7.206
42917SOL    HW130525   6.554  13.112   7.114
42917SOL    HW230526   6.651  13.040   7.204
42918SOL     OW30527   3.760  10.198  11.894
42918SOL    HW130528   3.808  10.228  11.972
42918SOL    HW230529   3.719  10.116  11.922
42919SOL     OW30530   2.426   0.584   0.352
42919SOL    HW130531   2.419   0.591   0.256
42919SOL    HW230532   2.388   0.666   0.384
42920SOL     OW30533   8.696   7.250  13.400
42920SOL    HW130534   8.703   7.183  13.332
42920SOL    HW230535   8.728   7.207  13.480
42921SOL     OW30536   8.650   1.708   5.597
42921SOL    HW130537   8.658   1.613   5.587
42921SOL    HW230538   8.669   1.724   5.690
42922SOL     OW30539   1.960   2.085  13.192
42922SOL    HW130540   2.029   2.077  13.126
42922SOL    HW230541   1.879   2.071  13.144
42923SOL     OW30542  12.067  10.855   7.350
42923SOL    HW130543  12.049  10.797   7.424
42923SOL    HW230544  12.067  10.943   7.388
42924SOL     OW30545   7.016   2.662   9.600
42924SOL    HW130546   6.980   2.578   9.571
42924SOL    HW230547   6.951   2.727   9.573
42925SOL     OW30548  10.615  14.559   2.905
42925SOL    HW130549  10.550  14.605   2.958
42925SOL    HW230550  10.563  14.508   2.842
42926SOL     OW30551   4.291   8.387   1.317
42926SOL    HW130552   4.211   8.435   1.338
42926SOL    HW230553   4.276   8.352   1.229
42927SOL     OW30554  11.894   6.970  13.927
42927SOL    HW130555  11.937   7.052  13.905
42927SOL    HW230556  11.802   6.993  13.940
42928SOL     OW30557   2.441   7.927   1.042
42928SOL    HW130558   2.433   7.947   1.135
42928SOL    HW230559   2.507   7.988   1.009
42929SOL     OW30560   2.812   5.811   1.835
42929SOL    HW130561   2.858   5.875   1.780
42929SOL    HW230562   2.761   5.759   1.774
42930SOL     OW30563  12.929   7.485  10.360
42930SOL    HW130564  12.905   7.463  10.451
42930SOL    HW230565  12.849   7.524  10.324
42931SOL     OW30566   7.296   1.192  10.466
42931SOL    HW130567   7.337   1.106  10.454
42931SOL    HW230568   7.250   1.185  10.550
42932SOL     OW30569  12.005  14.870  14.644
42932SOL    HW130570  12.074   0.032  14.696
42932SOL    HW230571  12.024   0.020  14.554
42933SOL     OW30572  12.654  13.872   0.655
42933SOL    HW130573  12.581  13.934   0.645
42933SOL    HW230574  12.724  13.923   0.695
42934SOL     OW30575  13.224   9.144   5.335
42934SOL    HW130576  13.148   9.156   5.391
42934SOL    HW230577  13.196   9.176   5.249
42935SOL     OW30578   5.687  11.193   1.343
42935SOL    HW130579   5.663  11.102   1.359
42935SOL    HW230580   5.782  11.195   1.351
42936SOL     OW30581   2.297   0.277   9.105
42936SOL    HW130582   2.248   0.290   9.024
42936SOL    HW230583   2.276   0.187   9.131
42937SOL     OW30584   1.675  12.762   1.265
42937SOL    HW130585   1.762  12.787   1.235
42937SOL    HW230586   1.618  12.834   1.236
42938SOL     OW30587   3.340   5.610   5.823
42938SOL    HW130588   3.314   5.683   5.878
42938SOL    HW230589   3.421   5.577   5.863
42939SOL     OW30590   9.308   3.711   7.290
42939SOL    HW130591   9.357   3.640   7.247
42939SOL    HW230592   9.376   3.771   7.323
42940SOL     OW30593  11.108   1.784   7.487
42940SOL    HW130594  11.105   1.718   7.417
42940SOL    HW230595  11.108   1.733   7.568
42941SOL     OW30596   6.171   3.944   9.751
42941SOL    HW130597   6.247   3.906   9.707
42941SOL    HW230598   6.204   4.024   9.792
42942SOL     OW30599  12.941  11.689   8.661
42942SOL    HW130600  12.885  11.616   8.686
42942SOL    HW230601  13.003  11.652   8.598
42943SOL     OW30602   6.967   3.324  13.970
42943SOL    HW130603   7.017   3.328  13.888
42943SOL    HW230604   6.958   3.415  13.997
42944SOL     OW30605   1.683   6.638   7.285
42944SOL    HW130606   1.589   6.637   7.305
42944SOL    HW230607   1.707   6.731   7.283
42945SOL     OW30608  13.861  13.205  11.071
42945SOL    HW130609  13.922  13.278  11.080
42945SOL    HW230610  13.916  13.127  11.075
42946SOL     OW30611   1.587   7.718  13.947
42946SOL    HW130612   1.642   7.700  13.870
42946SOL    HW230613   1.572   7.633  13.987
42947SOL     OW30614  10.516   6.169  13.367
42947SOL    HW130615  10.475   6.169  13.453
42947SOL    HW230616  10.482   6.247  13.324
42948SOL     OW30617   3.467  11.984   9.010
42948SOL    HW130618   3.502  11.924   8.945
42948SOL    HW230619   3.532  12.054   9.017
42949SOL     OW30620   0.481   8.448   9.797
42949SOL    HW130621   0.468   8.425   9.889
42949SOL    HW230622   0.566   8.492   9.795
42950SOL     OW30623  10.554  11.573   0.601
42950SOL    HW130624  10.608  11.649   0.624
42950SOL    HW230625  10.607  11.497   0.625
42951SOL     OW30626   6.262   6.485   5.330
42951SOL    HW130627   6.281   6.394   5.350
42951SOL    HW230628   6.167   6.493   5.340
42952SOL     OW30629   0.634   1.331   7.980
42952SOL    HW130630   0.556   1.315   8.033
42952SOL    HW230631   0.626   1.423   7.953
42953SOL     OW30632  14.392  10.507  11.763
42953SOL    HW130633  14.321  10.498  11.827
42953SOL    HW230634  14.472  10.503  11.815
42954SOL     OW30635   7.657   7.728   0.987
42954SOL    HW130636   7.602   7.657   1.020
42954SOL    HW230637   7.744   7.690   0.982
42955SOL     OW30638   9.749   1.446   8.033
42955SOL    HW130639   9.768   1.429   8.126
42955SOL    HW230640   9.805   1.385   7.985
42956SOL     OW30641   5.957  12.646  12.792
42956SOL    HW130642   5.920  12.584  12.856
42956SOL    HW230643   5.882  12.699  12.764
42957SOL     OW30644   3.276  13.327   5.992
42957SOL    HW130645   3.347  13.286   6.040
42957SOL    HW230646   3.311  13.412   5.964
42958SOL     OW30647   5.046  10.529   8.871
42958SOL    HW130648   4.951  10.540   8.877
42958SOL    HW230649   5.061  10.438   8.897
42959SOL     OW30650   1.015   6.689  13.842
42959SOL    HW130651   1.059   6.657  13.763
42959SOL    HW230652   0.989   6.609  13.888
42960SOL     OW30653   1.012   2.225   7.099
42960SOL    HW130654   1.017   2.143   7.050
42960SOL    HW230655   0.929   2.219   7.147
42961SOL     OW30656   7.825   6.456   0.572
42961SOL    HW130657   7.736   6.482   0.550
42961SOL    HW230658   7.856   6.408   0.495
42962SOL     OW30659  12.063   4.211  13.997
42962SOL    HW130660  12.088   4.199  13.905
42962SOL    HW230661  12.016   4.295  13.998
42963SOL     OW30662   9.193   4.038   9.065
42963SOL    HW130663   9.137   4.103   9.106
42963SOL    HW230664   9.218   4.078   8.981
42964SOL     OW30665  13.905   9.243  14.595
42964SOL    HW130666  13.845   9.226  14.523
42964SOL    HW230667  13.869   9.320  14.639
42965SOL     OW30668   0.168  11.402  11.811
42965SOL    HW130669   0.153  11.433  11.722
42965SOL    HW230670   0.186  11.482  11.861
42966SOL     OW30671   4.588   9.696   9.332
42966SOL    HW130672   4.677   9.722   9.308
42966SOL    HW230673   4.532   9.743   9.271
42967SOL     OW30674   6.284  11.342   7.013
42967SOL    HW130675   6.247  11.368   7.098
42967SOL    HW230676   6.360  11.289   7.035
42968SOL     OW30677   6.863   0.671  12.562
42968SOL    HW130678   6.844   0.764  12.577
42968SOL    HW230679   6.892   0.639  12.648
42969SOL     OW30680   4.370  13.009   3.487
42969SOL    HW130681   4.325  13.093   3.483
42969SOL    HW230682   4.421  13.012   3.568
42970SOL     OW30683   5.596  11.123   4.845
42970SOL    HW130684   5.646  11.078   4.914
42970SOL    HW230685   5.646  11.107   4.765
42971SOL     OW30686   1.029   1.111   4.182
42971SOL    HW130687   1.072   1.049   4.124
42971SOL    HW230688   1.098   1.172   4.208
42972SOL     OW30689   4.401   1.945   6.472
42972SOL    HW130690   4.472   2.006   6.455
42972SOL    HW230691   4.418   1.914   6.561
42973SOL     OW30692   4.798   0.511   5.963
42973SOL    HW130693   4.890   0.528   5.943
42973SOL    HW230694   4.778   0.566   6.038
42974SOL     OW30695   3.315   8.296  12.529
42974SOL    HW130696   3.287   8.283  12.438
42974SOL    HW230697   3.243   8.344  12.570
42975SOL     OW30698   4.631   9.070   0.392
42975SOL    HW130699   4.588   9.119   0.322
42975SOL    HW230700   4.660   8.989   0.350
42976SOL     OW30701  10.813  14.787   1.147
42976SOL    HW130702  10.840  14.737   1.070
42976SOL    HW230703  10.764  14.861   1.112
42977SOL     OW30704   8.895  12.997   6.144
42977SOL    HW130705   8.978  13.008   6.190
42977SOL    HW230706   8.829  13.025   6.207
42978SOL     OW30707   0.374  14.698   0.852
42978SOL    HW130708   0.363  14.603   0.845
42978SOL    HW230709   0.407  14.725   0.766
42979SOL     OW30710   9.921  11.785   3.067
42979SOL    HW130711   9.831  11.817   3.077
42979SOL    HW230712   9.933  11.778   2.973
42980SOL     OW30713   0.195   4.151   3.754
42980SOL    HW130714   0.161   4.193   3.675
42980SOL    HW230715   0.153   4.199   3.826
42981SOL     OW30716  13.038  12.942   5.022
42981SOL    HW130717  13.032  12.917   4.930
42981SOL    HW230718  13.007  12.865   5.070
42982SOL     OW30719   6.248   9.273   6.417
42982SOL    HW130720   6.187   9.324   6.471
42982SOL    HW230721   6.256   9.190   6.463
42983SOL     OW30722   4.108   3.651   4.473
42983SOL    HW130723   4.111   3.568   4.520
42983SOL    HW230724   4.197   3.686   4.481
42984SOL     OW30725   7.287   7.902  14.155
42984SOL    HW130726   7.364   7.864  14.113
42984SOL    HW230727   7.298   7.997  14.143
42985SOL     OW30728   7.200   2.319   2.185
42985SOL    HW130729   7.208   2.324   2.280
42985SOL    HW230730   7.268   2.257   2.158
42986SOL     OW30731   8.269   8.679  12.941
42986SOL    HW130732   8.189   8.715  12.903
42986SOL    HW230733   8.259   8.584  12.935
42987SOL     OW30734   5.742   3.368   0.225
42987SOL    HW130735   5.690   3.290   0.212
42987SOL    HW230736   5.681   3.441   0.213
42988SOL     OW30737   5.668   4.149  13.216
42988SOL    HW130738   5.615   4.073  13.239
42988SOL    HW230739   5.758   4.123  13.235
42989SOL     OW30740   1.026   9.692  11.957
42989SOL    HW130741   1.087   9.757  11.921
42989SOL    HW230742   1.082   9.617  11.978
42990SOL     OW30743   8.560   7.682   1.824
42990SOL    HW130744   8.481   7.686   1.769
42990SOL    HW230745   8.564   7.767   1.867
42991SOL     OW30746   4.448   7.705  11.914
42991SOL    HW130747   4.496   7.629  11.947
42991SOL    HW230748   4.474   7.777  11.971
42992SOL     OW30749   4.498  13.158   9.111
42992SOL    HW130750   4.547  13.173   9.030
42992SOL    HW230751   4.565  13.153   9.179
42993SOL     OW30752  12.375   2.335   3.432
42993SOL    HW130753  12.301   2.275   3.442
42993SOL    HW230754  12.350   2.413   3.483
42994SOL     OW30755   5.766   1.634   7.951
42994SOL    HW130756   5.816   1.709   7.986
42994SOL    HW230757   5.707   1.609   8.022
42995SOL     OW30758   9.409   4.942  12.510
42995SOL    HW130759   9.502   4.950  12.492
42995SOL    HW230760   9.385   4.855  12.477
42996SOL     OW30761   6.816  13.010   8.293
42996SOL    HW130762   6.888  12.946   8.285
42996SOL    HW230763   6.770  13.004   8.209
42997SOL     OW30764  12.806   2.609   7.868
42997SOL    HW130765  12.810   2.652   7.782
42997SOL    HW230766  12.825   2.679   7.931
42998SOL     OW30767  14.510  10.035   1.732
42998SOL    HW130768  14.602  10.019   1.711
42998SOL    HW230769  14.476   9.950   1.761
42999SOL     OW30770   3.908  14.067   3.462
42999SOL    HW130771   3.992  14.023   3.449
42999SOL    HW230772   3.872  14.027   3.542
43000SOL     OW30773   8.828  11.770   1.552
43000SOL    HW130774   8.798  11.741   1.638
43000SOL    HW230775   8.771  11.843   1.530
43001SOL     OW30776   6.784   4.518  14.563
43001SOL    HW130777   6.731   4.594  14.588
43001SOL    HW230778   6.728   4.443  14.582
43002SOL     OW30779  14.142  11.661   0.498
43002SOL    HW130780  14.225  11.700   0.470
43002SOL    HW230781  14.155  11.642   0.591
43003SOL     OW30782   0.042   5.031  10.166
43003SOL    HW130783   0.087   5.083  10.100
43003SOL    HW230784  14.828   5.029  10.138
43004SOL     OW30785   9.941   9.147   3.353
43004SOL    HW130786   9.878   9.109   3.413
43004SOL    HW230787   9.986   9.072   3.314
43005SOL     OW30788   3.332  12.050  11.835
43005SOL    HW130789   3.420  12.017  11.855
43005SOL    HW230790   3.301  11.993  11.764
43006SOL     OW30791   7.996   7.976   0.483
43006SOL    HW130792   8.077   7.972   0.432
43006SOL    HW230793   7.962   7.887   0.480
43007SOL     OW30794  14.060  13.387   0.043
43007SOL    HW130795  14.133  13.334   0.011
43007SOL    HW230796  14.014  13.330   0.105
43008SOL     OW30797   0.747   1.402   3.354
43008SOL    HW130798   0.783   1.449   3.430
43008SOL    HW230799   0.660   1.439   3.342
43009SOL     OW30800   1.789   6.856   4.124
43009SOL    HW130801   1.822   6.904   4.047
43009SOL    HW230802   1.725   6.915   4.163
43010SOL     OW30803   9.275   0.024   7.264
43010SOL    HW130804   9.354  14.873   7.310
43010SOL    HW230805   9.307   0.051   7.178
43011SOL     OW30806   4.650   4.588   4.395
43011SOL    HW130807   4.669   4.517   4.456
43011SOL    HW230808   4.558   4.575   4.369
43012SOL     OW30809  12.034   5.143   4.284
43012SOL    HW130810  11.947   5.179   4.301
43012SOL    HW230811  12.035   5.060   4.331
43013SOL     OW30812   4.015  10.273  13.494
43013SOL    HW130813   3.945  10.284  13.558
43013SOL    HW230814   4.005  10.183  13.463
43014SOL     OW30815  13.435   7.283   9.605
43014SOL    HW130816  13.497   7.354   9.585
43014SOL    HW230817  13.396   7.309   9.689
43015SOL     OW30818   2.228  13.044   7.950
43015SOL    HW130819   2.274  12.974   7.904
43015SOL    HW230820   2.195  13.100   7.880
43016SOL     OW30821   5.239  10.608  11.898
43016SOL    HW130822   5.274  10.623  11.986
43016SOL    HW230823   5.169  10.544  11.911
43017SOL     OW30824  14.110  14.497   9.266
43017SOL    HW130825  14.167  14.448   9.207
43017SOL    HW230826  14.161  14.574   9.289
43018SOL     OW30827   8.366   1.551   8.596
43018SOL    HW130828   8.401   1.526   8.511
43018SOL    HW230829   8.273   1.526   8.592
43019SOL     OW30830   8.622   0.827   4.436
43019SOL    HW130831   8.641   0.902   4.380
43019SOL    HW230832   8.631   0.751   4.378
43020SOL     OW30833   5.392   9.601  13.796
43020SOL    HW130834   5.456   9.625  13.728
43020SOL    HW230835   5.317   9.657  13.778
43021SOL     OW30836   5.850   0.905  13.716
43021SOL    HW130837   5.925   0.957  13.688
43021SOL    HW230838   5.813   0.870  13.635
43022SOL     OW30839   5.267   8.575  11.848
43022SOL    HW130840   5.255   8.485  11.877
43022SOL    HW230841   5.241   8.574  11.756
43023SOL     OW30842   9.980   0.801   5.240
43023SOL    HW130843  10.064   0.775   5.278
43023SOL    HW230844   9.978   0.896   5.249
43024SOL     OW30845   4.689  12.670   6.438
43024SOL    HW130846   4.683  12.743   6.377
43024SOL    HW230847   4.649  12.703   6.519
43025SOL     OW30848   9.742   0.116   5.853
43025SOL    HW130849   9.762   0.070   5.772
43025SOL    HW230850   9.825   0.158   5.878
43026SOL     OW30851   2.997  13.853   7.415
43026SOL    HW130852   3.079  13.898   7.436
43026SOL    HW230853   2.947  13.857   7.496
43027SOL     OW30854   5.322  10.054   5.708
43027SOL    HW130855   5.275  10.125   5.753
43027SOL    HW230856   5.407  10.052   5.751
43028SOL     OW30857   1.815  12.762   3.062
43028SOL    HW130858   1.791  12.731   2.974
43028SOL    HW230859   1.778  12.696   3.121
43029SOL     OW30860   6.135   6.896   7.844
43029SOL    HW130861   6.197   6.969   7.844
43029SOL    HW230862   6.188   6.819   7.863
43030SOL     OW30863  14.837   2.948  10.569
43030SOL    HW130864  14.765   2.951  10.632
43030SOL    HW230865   0.024   3.010  10.603
43031SOL     OW30866   7.997   6.568  11.763
43031SOL    HW130867   7.976   6.529  11.678
43031SOL    HW230868   8.054   6.504  11.806
43032SOL     OW30869   4.458   8.462   2.397
43032SOL    HW130870   4.410   8.483   2.317
43032SOL    HW230871   4.400   8.491   2.468
43033SOL     OW30872   2.621   0.779  11.836
43033SOL    HW130873   2.619   0.791  11.930
43033SOL    HW230874   2.571   0.698  11.820
43034SOL     OW30875   2.421   1.485   3.330
43034SOL    HW130876   2.515   1.488   3.317
43034SOL    HW230877   2.402   1.392   3.345
43035SOL     OW30878  13.535   0.591   6.867
43035SOL    HW130879  13.474   0.556   6.933
43035SOL    HW230880  13.481   0.609   6.791
43036SOL     OW30881   7.651   6.357  12.378
43036SOL    HW130882   7.706   6.401  12.313
43036SOL    HW230883   7.687   6.384  12.462
43037SOL     OW30884  10.157  13.689   8.905
43037SOL    HW130885  10.085  13.690   8.968
43037SOL    HW230886  10.224  13.745   8.944
43038SOL     OW30887  12.994   7.102   8.213
43038SOL    HW130888  12.933   7.055   8.156
43038SOL    HW230889  12.943   7.119   8.293
43039SOL     OW30890   2.308  14.252  12.610
43039SOL    HW130891   2.396  14.253  12.647
43039SOL    HW230892   2.250  14.261  12.685
43040SOL     OW30893   9.987  11.997  12.526
43040SOL    HW130894  10.012  12.034  12.441
43040SOL    HW230895  10.000  12.068  12.588
43041SOL     OW30896   8.422   8.936   2.683
43041SOL    HW130897   8.373   9.013   2.712
43041SOL    HW230898   8.485   8.970   2.620
43042SOL     OW30899   7.712   4.527   9.433
43042SOL    HW130900   7.655   4.536   9.509
43042SOL    HW230901   7.748   4.615   9.419
43043SOL     OW30902   4.744  14.395   5.731
43043SOL    HW130903   4.757  14.301   5.714
43043SOL    HW230904   4.663  14.416   5.684
43044SOL     OW30905  12.966  12.815   8.304
43044SOL    HW130906  12.949  12.726   8.333
43044SOL    HW230907  12.881  12.845   8.270
43045SOL     OW30908   0.067   2.045  12.548
43045SOL    HW130909   0.143   1.993  12.521
43045SOL    HW230910   0.042   2.093  12.469
43046SOL     OW30911   3.613  11.206   3.415
43046SOL    HW130912   3.627  11.123   3.368
43046SOL    HW230913   3.669  11.269   3.370
43047SOL     OW30914  12.681  11.134   3.353
43047SOL    HW130915  12.641  11.076   3.289
43047SOL    HW230916  12.741  11.188   3.303
43048SOL     OW30917   9.445   4.084   8.223
43048SOL    HW130918   9.489   4.084   8.308
43048SOL    HW230919   9.358   4.048   8.241
43049SOL     OW30920  12.687   5.395  14.174
43049SOL    HW130921  12.774   5.359  14.160
43049SOL    HW230922  12.687   5.476  14.123
43050SOL     OW30923   9.677   7.172   1.662
43050SOL    HW130924   9.713   7.150   1.577
43050SOL    HW230925   9.583   7.163   1.652
43051SOL     OW30926  11.487   8.880   3.073
43051SOL    HW130927  11.555   8.911   3.013
43051SOL    HW230928  11.510   8.789   3.091
43052SOL     OW30929  14.689  12.133   9.873
43052SOL    HW130930  14.620  12.072   9.847
43052SOL    HW230931  14.701  12.189   9.797
43053SOL     OW30932   3.405  14.753   4.422
43053SOL    HW130933   3.433  14.666   4.396
43053SOL    HW230934   3.484  14.807   4.416
43054SOL     OW30935  12.932  12.749  14.507
43054SOL    HW130936  12.840  12.726  14.505
43054SOL    HW230937  12.937  12.826  14.563
43055SOL     OW30938  14.768  11.754   9.815
43055SOL    HW130939  14.796  11.677   9.864
43055SOL    HW230940  14.819  11.751   9.734
43056SOL     OW30941   9.481  10.698   5.179
43056SOL    HW130942   9.400  10.658   5.147
43056SOL    HW230943   9.472  10.791   5.157
43057SOL     OW30944   0.620  14.416  10.544
43057SOL    HW130945   0.655  14.464  10.469
43057SOL    HW230946   0.529  14.398  10.521
43058SOL     OW30947   2.245   7.227  14.096
43058SOL    HW130948   2.235   7.148  14.043
43058SOL    HW230949   2.332   7.260  14.073
43059SOL     OW30950  12.968  11.505  13.139
43059SOL    HW130951  12.964  11.485  13.045
43059SOL    HW230952  12.884  11.473  13.173
43060SOL     OW30953  13.991  14.211  14.835
43060SOL    HW130954  13.954  14.298  14.852
43060SOL    HW230955  14.071  14.228  14.786
43061SOL     OW30956  11.508   4.115  11.969
43061SOL    HW130957  11.461   4.123  12.052
43061SOL    HW230958  11.511   4.204  11.935
43062SOL     OW30959   8.170   6.512   9.898
43062SOL    HW130960   8.158   6.418   9.887
43062SOL    HW230961   8.095   6.552   9.855
43063SOL     OW30962   5.740   7.913   6.499
43063SOL    HW130963   5.798   7.853   6.547
43063SOL    HW230964   5.706   7.972   6.567
43064SOL     OW30965   8.986   8.942  11.031
43064SOL    HW130966   8.981   8.971  10.940
43064SOL    HW230967   8.982   9.024  11.082
43065SOL     OW30968   2.093   3.148   4.677
43065SOL    HW130969   2.003   3.163   4.651
43065SOL    HW230970   2.087   3.108   4.764
43066SOL     OW30971   3.701   6.732   7.060
43066SOL    HW130972   3.766   6.796   7.088
43066SOL    HW230973   3.749   6.649   7.056
43067SOL     OW30974   3.705   9.889   3.167
43067SOL    HW130975   3.650   9.939   3.107
43067SOL    HW230976   3.643   9.831   3.212
43068SOL     OW30977  12.424   3.926   2.065
43068SOL    HW130978  12.508   3.955   2.029
43068SOL    HW230979  12.365   3.921   1.990
43069SOL     OW30980   5.094   8.280   0.115
43069SOL    HW130981   5.101   8.248   0.205
43069SOL    HW230982   5.180   8.317   0.096
43070SOL     OW30983  13.130   9.769  14.696
43070SOL    HW130984  13.182   9.785  14.774
43070SOL    HW230985  13.109   9.676  14.699
43071SOL     OW30986  11.693   7.124  13.676
43071SOL    HW130987  11.649   7.125  13.761
43071SOL    HW230988  11.713   7.216  13.657
43072SOL     OW30989   9.759   5.141  14.139
43072SOL    HW130990   9.692   5.079  14.169
43072SOL    HW230991   9.838   5.116  14.187
43073SOL     OW30992   2.735   7.651   2.624
43073SOL    HW130993   2.745   7.561   2.653
43073SOL    HW230994   2.791   7.701   2.684
43074SOL     OW30995  10.533   5.433  10.755
43074SOL    HW130996  10.547   5.369  10.685
43074SOL    HW230997  10.564   5.516  10.718
43075SOL     OW30998   0.136   1.652  13.846
43075SOL    HW130999   0.120   1.746  13.847
43075SOL    HW231000   0.070   1.615  13.905
43076SOL     OW31001  10.592   6.145  12.148
43076SOL    HW131002  10.610   6.064  12.099
43076SOL    HW231003  10.665   6.151  12.210
43077SOL     OW31004   0.061   1.864   4.131
43077SOL    HW131005   0.036   1.814   4.208
43077SOL    HW231006   0.070   1.954   4.162
43078SOL     OW31007   8.652   3.293   7.905
43078SOL    HW131008   8.659   3.375   7.954
43078SOL    HW231009   8.563   3.294   7.871
43079SOL     OW31010   7.315  10.019   9.881
43079SOL    HW131011   7.395  10.020   9.932
43079SOL    HW231012   7.323   9.943   9.823
43080SOL     OW31013  14.064  13.309   8.036
43080SOL    HW131014  14.146  13.344   8.001
43080SOL    HW231015  14.079  13.215   8.043
43081SOL     OW31016   9.351   2.253   3.173
43081SOL    HW131017   9.433   2.204   3.184
43081SOL    HW231018   9.283   2.190   3.196
43082SOL     OW31019   1.175   3.247   8.829
43082SOL    HW131020   1.233   3.248   8.752
43082SOL    HW231021   1.107   3.311   8.808
43083SOL     OW31022   6.991   6.075  13.959
43083SOL    HW131023   6.921   6.040  13.905
43083SOL    HW231024   7.038   5.998  13.990
43084SOL     OW31025   6.793   3.549  14.501
43084SOL    HW131026   6.842   3.631  14.507
43084SOL    HW231027   6.734   3.550  14.576
43085SOL     OW31028   7.239   8.793   1.042
43085SOL    HW131029   7.246   8.766   1.133
43085SOL    HW231030   7.280   8.880   1.039
43086SOL     OW31031   3.275  14.733   5.821
43086SOL    HW131032   3.357  14.747   5.774
43086SOL    HW231033   3.299  14.735   5.913
43087SOL     OW31034   8.222   2.043   7.911
43087SOL    HW131035   8.155   2.108   7.932
43087SOL    HW231036   8.234   1.995   7.993
43088SOL     OW31037  10.064  10.878   5.774
43088SOL    HW131038  10.119  10.799   5.774
43088SOL    HW231039   9.980  10.848   5.741
43089SOL     OW31040   9.359  10.886   0.446
43089SOL    HW131041   9.286  10.826   0.461
43089SOL    HW231042   9.340  10.961   0.502
43090SOL     OW31043   5.133  11.761  11.822
43090SOL    HW131044   5.085  11.780  11.742
43090SOL    HW231045   5.195  11.692  11.797
43091SOL     OW31046   1.571  11.395   6.907
43091SOL    HW131047   1.521  11.391   6.825
43091SOL    HW231048   1.523  11.458   6.961
43092SOL     OW31049  14.564  10.995  11.602
43092SOL    HW131050  14.594  10.962  11.517
43092SOL    HW231051  14.557  11.090  11.589
43093SOL     OW31052  13.108  13.665   1.451
43093SOL    HW131053  13.035  13.708   1.494
43093SOL    HW231054  13.160  13.628   1.524
43094SOL     OW31055   6.098  14.828  11.977
43094SOL    HW131056   6.043  14.755  12.007
43094SOL    HW231057   6.184  14.810  12.014
43095SOL     OW31058  14.251   7.003  13.538
43095SOL    HW131059  14.174   6.947  13.531
43095SOL    HW231060  14.297   6.972  13.616
43096SOL     OW31061   6.554   7.450   6.648
43096SOL    HW131062   6.641   7.450   6.609
43096SOL    HW231063   6.557   7.382   6.715
43097SOL     OW31064   8.118   1.308  10.974
43097SOL    HW131065   8.126   1.310  11.070
43097SOL    HW231066   8.191   1.361  10.943
43098SOL     OW31067   0.886   3.414  11.485
43098SOL    HW131068   0.964   3.462  11.457
43098SOL    HW231069   0.876   3.434  11.578
43099SOL     OW31070  14.475   7.866   3.994
43099SOL    HW131071  14.516   7.815   3.924
43099SOL    HW231072  14.512   7.830   4.074
43100SOL     OW31073   7.089   5.270   6.077
43100SOL    HW131074   7.154   5.314   6.021
43100SOL    HW231075   7.006   5.310   6.052
43101SOL     OW31076   0.935   8.182  10.036
43101SOL    HW131077   0.977   8.097  10.018
43101SOL    HW231078   0.989   8.246   9.990
43102SOL     OW31079   9.940   2.473   0.419
43102SOL    HW131080   9.952   2.380   0.440
43102SOL    HW231081   9.967   2.519   0.498
43103SOL     OW31082   6.466   4.416   9.766
43103SOL    HW131083   6.445   4.416   9.672
43103SOL    HW231084   6.430   4.498   9.799
43104SOL     OW31085  12.552   7.960   9.611
43104SOL    HW131086  12.527   7.941   9.521
43104SOL    HW231087  12.470   7.978   9.656
43105SOL     OW31088  13.126   1.123  14.064
43105SOL    HW131089  13.076   1.194  14.023
43105SOL    HW231090  13.089   1.043  14.028
43106SOL     OW31091   5.789  12.980   2.318
43106SOL    HW131092   5.875  13.005   2.283
43106SOL    HW231093   5.776  12.891   2.285
43107SOL     OW31094   0.785   2.068  12.281
43107SOL    HW131095   0.751   1.980  12.266
43107SOL    HW231096   0.724   2.107  12.343
43108SOL     OW31097  14.607  14.250   2.626
43108SOL    HW131098  14.521  14.224   2.592
43108SOL    HW231099  14.598  14.345   2.641
43109SOL     OW31100   3.959   2.536   8.415
43109SOL    HW131101   3.973   2.619   8.370
43109SOL    HW231102   4.046   2.509   8.444
43110SOL     OW31103  14.598   6.438  11.860
43110SOL    HW131104  14.637   6.464  11.776
43110SOL    HW231105  14.606   6.516  11.915
43111SOL     OW31106  13.305   5.028  11.272
43111SOL    HW131107  13.235   5.065  11.325
43111SOL    HW231108  13.266   5.017  11.185
43112SOL     OW31109   3.057   8.347   8.420
43112SOL    HW131110   3.033   8.266   8.375
43112SOL    HW231111   3.133   8.380   8.371
43113SOL     OW31112   7.188   0.221  13.770
43113SOL    HW131113   7.265   0.277  13.779
43113SOL    HW231114   7.130   0.249  13.841
43114SOL     OW31115  12.707  13.731  10.195
43114SOL    HW131116  12.687  13.727  10.288
43114SOL    HW231117  12.776  13.797  10.188
43115SOL     OW31118   5.841   5.270   7.488
43115SOL    HW131119   5.904   5.301   7.554
43115SOL    HW231120   5.766   5.241   7.539
43116SOL     OW31121   6.242   3.469   0.228
43116SOL    HW131122   6.320   3.521   0.212
43116SOL    HW231123   6.172   3.516   0.181
43117SOL     OW31124   2.157   8.420   1.339
43117SOL    HW131125   2.072   8.451   1.371
43117SOL    HW231126   2.181   8.483   1.271
43118SOL     OW31127   2.184   5.618  14.674
43118SOL    HW131128   2.175   5.524  14.691
43118SOL    HW231129   2.180   5.658  14.761
43119SOL     OW31130   5.813   7.074  12.234
43119SOL    HW131131   5.906   7.051  12.241
43119SOL    HW231132   5.772   6.997  12.196
43120SOL     OW31133   7.045   7.648   1.497
43120SOL    HW131134   6.999   7.616   1.419
43120SOL    HW231135   6.976   7.682   1.554
43121SOL     OW31136   0.743  10.160  12.947
43121SOL    HW131137   0.652  10.149  12.919
43121SOL    HW231138   0.765  10.250  12.923
43122SOL     OW31139  13.095  10.526   8.259
43122SOL    HW131140  13.118  10.486   8.176
43122SOL    HW231141  13.133  10.468   8.325
43123SOL     OW31142   9.397  13.570  10.889
43123SOL    HW131143   9.414  13.517  10.967
43123SOL    HW231144   9.418  13.660  10.916
43124SOL     OW31145  10.275  14.767   7.886
43124SOL    HW131146  10.284  14.855   7.925
43124SOL    HW231147  10.182  14.758   7.868
43125SOL     OW31148   7.385   3.994  13.945
43125SOL    HW131149   7.359   3.903  13.935
43125SOL    HW231150   7.481   3.991  13.953
43126SOL     OW31151  12.120  10.937  13.624
43126SOL    HW131152  12.138  10.947  13.718
43126SOL    HW231153  12.129  11.025  13.588
43127SOL     OW31154  13.031   2.175   5.535
43127SOL    HW131155  12.995   2.137   5.615
43127SOL    HW231156  13.075   2.101   5.492
43128SOL     OW31157  12.954   0.478  12.059
43128SOL    HW131158  13.032   0.501  12.110
43128SOL    HW231159  12.888   0.457  12.125
43129SOL     OW31160  13.850  13.248   2.666
43129SOL    HW131161  13.863  13.220   2.576
43129SOL    HW231162  13.870  13.342   2.666
43130SOL     OW31163  11.050   9.734   8.599
43130SOL    HW131164  10.995   9.696   8.667
43130SOL    HW231165  11.030   9.827   8.601
43131SOL     OW31166   7.411  13.095   9.897
43131SOL    HW131167   7.319  13.122   9.886
43131SOL    HW231168   7.434  13.056   9.813
43132SOL     OW31169   9.109   4.441  11.635
43132SOL    HW131170   9.109   4.367  11.575
43132SOL    HW231171   9.097   4.517  11.579
43133SOL     OW31172  14.479   0.377  10.933
43133SOL    HW131173  14.479   0.362  11.028
43133SOL    HW231174  14.462   0.471  10.924
43134SOL     OW31175   2.257  14.353   0.241
43134SOL    HW131176   2.342  14.313   0.225
43134SOL    HW231177   2.203  14.327   0.166
43135SOL     OW31178   4.985   7.085   0.919
43135SOL    HW131179   5.025   7.046   0.997
43135SOL    HW231180   4.959   7.011   0.865
43136SOL     OW31181  11.411   1.874   1.404
43136SOL    HW131182  11.367   1.938   1.347
43136SOL    HW231183  11.344   1.808   1.421
43137SOL     OW31184   3.035   9.568  10.278
43137SOL    HW131185   3.087   9.626  10.223
43137SOL    HW231186   3.032   9.485  10.230
43138SOL     OW31187   6.079   0.872   0.614
43138SOL    HW131188   6.066   0.834   0.700
43138SOL    HW231189   6.058   0.964   0.625
43139SOL     OW31190   1.831  12.735   8.461
43139SOL    HW131191   1.750  12.706   8.420
43139SOL    HW231192   1.819  12.829   8.474
43140SOL     OW31193   8.600   3.763  13.049
43140SOL    HW131194   8.514   3.803  13.057
43140SOL    HW231195   8.612   3.750  12.955
43141SOL     OW31196  13.741   0.375   4.224
43141SOL    HW131197  13.750   0.282   4.201
43141SOL    HW231198  13.785   0.382   4.309
43142SOL     OW31199   5.573   4.264  13.480
43142SOL    HW131200   5.612   4.248  13.394
43142SOL    HW231201   5.648   4.283  13.537
43143SOL     OW31202   8.832  11.018   4.981
43143SOL    HW131203   8.885  11.065   5.045
43143SOL    HW231204   8.895  10.971   4.927
43144SOL     OW31205   6.447  10.919   6.102
43144SOL    HW131206   6.360  10.916   6.063
43144SOL    HW231207   6.475  11.010   6.092
43145SOL     OW31208   0.244  10.026   6.426
43145SOL    HW131209   0.320  10.075   6.394
43145SOL    HW231210   0.280   9.959   6.484
43146SOL     OW31211   7.026  10.965   9.191
43146SOL    HW131212   7.006  11.059   9.194
43146SOL    HW231213   7.030  10.938   9.283
43147SOL     OW31214   5.225   6.295   9.280
43147SOL    HW131215   5.302   6.316   9.227
43147SOL    HW231216   5.260   6.284   9.369
43148SOL     OW31217   4.721  12.627   8.210
43148SOL    HW131218   4.732  12.690   8.139
43148SOL    HW231219   4.642  12.578   8.187
43149SOL     OW31220   9.684   5.625  14.499
43149SOL    HW131221   9.649   5.565  14.434
43149SOL    HW231222   9.760   5.580  14.535
43150SOL     OW31223   0.683   0.772   8.796
43150SOL    HW131224   0.614   0.713   8.763
43150SOL    HW231225   0.636   0.839   8.846
43151SOL     OW31226  14.755   8.091   3.764
43151SOL    HW131227  14.799   8.170   3.735
43151SOL    HW231228  14.662   8.108   3.749
43152SOL     OW31229  14.396   1.823  10.685
43152SOL    HW131230  14.394   1.728  10.674
43152SOL    HW231231  14.304   1.849  10.677
43153SOL     OW31232  13.123   9.507   8.655
43153SOL    HW131233  13.187   9.566   8.616
43153SOL    HW231234  13.155   9.492   8.744
43154SOL     OW31235   5.979   1.798  14.345
43154SOL    HW131236   5.962   1.823  14.254
43154SOL    HW231237   5.943   1.709  14.352
43155SOL     OW31238   0.194   0.597   2.165
43155SOL    HW131239   0.283   0.566   2.149
43155SOL    HW231240   0.167   0.637   2.082
43156SOL     OW31241  12.089   5.283   4.052
43156SOL    HW131242  12.102   5.371   4.087
43156SOL    HW231243  12.094   5.226   4.129
43157SOL     OW31244  13.722   3.829   9.467
43157SOL    HW131245  13.695   3.811   9.377
43157SOL    HW231246  13.698   3.750   9.516
43158SOL     OW31247   9.535  11.612   3.305
43158SOL    HW131248   9.469  11.546   3.328
43158SOL    HW231249   9.602  11.603   3.372
43159SOL     OW31250  11.022   3.389   9.494
43159SOL    HW131251  11.055   3.390   9.584
43159SOL    HW231252  11.068   3.316   9.452
43160SOL     OW31253   9.296   6.272   2.811
43160SOL    HW131254   9.362   6.205   2.830
43160SOL    HW231255   9.319   6.344   2.870
43161SOL     OW31256   0.359  13.866   9.573
43161SOL    HW131257   0.361  13.884   9.479
43161SOL    HW231258   0.295  13.928   9.607
43162SOL     OW31259  12.915  11.165  11.630
43162SOL    HW131260  12.842  11.119  11.672
43162SOL    HW231261  12.892  11.169  11.538
43163SOL     OW31262   7.721   6.196   7.268
43163SOL    HW131263   7.767   6.120   7.301
43163SOL    HW231264   7.790   6.260   7.248
43164SOL     OW31265   8.341   8.144   8.915
43164SOL    HW131266   8.324   8.235   8.891
43164SOL    HW231267   8.430   8.127   8.885
43165SOL     OW31268  12.672  13.128  13.377
43165SOL    HW131269  12.622  13.053  13.408
43165SOL    HW231270  12.702  13.102  13.290
43166SOL     OW31271   5.221   4.896   7.494
43166SOL    HW131272   5.225   4.813   7.543
43166SOL    HW231273   5.217   4.964   7.561
43167SOL     OW31274   7.601  13.297  12.781
43167SOL    HW131275   7.675  13.245  12.749
43167SOL    HW231276   7.599  13.374  12.724
43168SOL     OW31277  11.735   7.886   7.360
43168SOL    HW131278  11.716   7.870   7.453
43168SOL    HW231279  11.662   7.941   7.331
43169SOL     OW31280   3.967  13.692  14.159
43169SOL    HW131281   4.016  13.684  14.241
43169SOL    HW231282   3.907  13.765  14.174
43170SOL     OW31283  12.778  12.691   0.088
43170SOL    HW131284  12.873  12.697   0.080
43170SOL    HW231285  12.762  12.683   0.182
43171SOL     OW31286   9.250   8.082  14.322
43171SOL    HW131287   9.212   7.995  14.329
43171SOL    HW231288   9.184   8.141  14.359
43172SOL     OW31289   3.641  13.671   9.989
43172SOL    HW131290   3.640  13.672   9.893
43172SOL    HW231291   3.693  13.747  10.013
43173SOL     OW31292  13.982   3.750  12.074
43173SOL    HW131293  14.029   3.707  12.145
43173SOL    HW231294  14.048   3.804  12.030
43174SOL     OW31295   0.257  11.037   6.469
43174SOL    HW131296   0.243  11.000   6.556
43174SOL    HW231297   0.176  11.086   6.450
43175SOL     OW31298   4.573  12.609   9.550
43175SOL    HW131299   4.504  12.542   9.547
43175SOL    HW231300   4.547  12.665   9.623
43176SOL     OW31301  10.816   7.566   7.314
43176SOL    HW131302  10.912   7.571   7.316
43176SOL    HW231303  10.797   7.473   7.306
43177SOL     OW31304   8.730  12.796   3.850
43177SOL    HW131305   8.704  12.704   3.847
43177SOL    HW231306   8.785  12.803   3.929
43178SOL     OW31307   7.483   2.701   2.937
43178SOL    HW131308   7.427   2.624   2.939
43178SOL    HW231309   7.572   2.667   2.952
43179SOL     OW31310  14.475  12.137   4.103
43179SOL    HW131311  14.505  12.153   4.193
43179SOL    HW231312  14.452  12.044   4.102
43180SOL     OW31313   6.063   7.450   2.498
43180SOL    HW131314   6.032   7.458   2.588
43180SOL    HW231315   6.027   7.367   2.467
43181SOL     OW31316   2.132   3.361   5.281
43181SOL    HW131317   2.078   3.347   5.358
43181SOL    HW231318   2.221   3.344   5.311
43182SOL     OW31319  13.439   4.336  11.400
43182SOL    HW131320  13.504   4.377  11.342
43182SOL    HW231321  13.487   4.268  11.446
43183SOL     OW31322  12.718  10.984   2.443
43183SOL    HW131323  12.722  10.931   2.523
43183SOL    HW231324  12.716  10.921   2.372
43184SOL     OW31325  13.996   6.717  13.118
43184SOL    HW131326  14.056   6.767  13.173
43184SOL    HW231327  14.028   6.730  13.029
43185SOL     OW31328   1.539   6.565   8.660
43185SOL    HW131329   1.622   6.569   8.612
43185SOL    HW231330   1.497   6.485   8.628
43186SOL     OW31331   5.583   4.784  14.791
43186SOL    HW131332   5.551   4.698  14.821
43186SOL    HW231333   5.677   4.782  14.809
43187SOL     OW31334   3.960   1.509   3.487
43187SOL    HW131335   3.987   1.444   3.422
43187SOL    HW231336   3.870   1.530   3.465
43188SOL     OW31337  13.076   2.854   9.976
43188SOL    HW131338  13.111   2.903   9.902
43188SOL    HW231339  13.146   2.795  10.003
43189SOL     OW31340   8.881  13.583  13.947
43189SOL    HW131341   8.964  13.538  13.963
43189SOL    HW231342   8.831  13.523  13.891
43190SOL     OW31343   1.218   2.655  10.656
43190SOL    HW131344   1.190   2.715  10.587
43190SOL    HW231345   1.300   2.618  10.623
43191SOL     OW31346  10.046   9.593   2.572
43191SOL    HW131347  10.093   9.527   2.520
43191SOL    HW231348  10.113   9.659   2.592
43192SOL     OW31349   2.610   9.011  11.937
43192SOL    HW131350   2.521   9.021  11.970
43192SOL    HW231351   2.665   9.050  12.006
43193SOL     OW31352  12.427   2.581  10.311
43193SOL    HW131353  12.395   2.550  10.226
43193SOL    HW231354  12.415   2.506  10.370
43194SOL     OW31355   0.576  12.242   9.116
43194SOL    HW131356   0.588  12.316   9.176
43194SOL    HW231357   0.589  12.279   9.029
43195SOL     OW31358   1.686   3.116   0.829
43195SOL    HW131359   1.761   3.157   0.787
43195SOL    HW231360   1.637   3.075   0.758
43196SOL     OW31361  11.682   5.088  13.779
43196SOL    HW131362  11.586   5.091  13.781
43196SOL    HW231363  11.703   5.005  13.736
43197SOL     OW31364   1.266  14.348   1.427
43197SOL    HW131365   1.268  14.438   1.395
43197SOL    HW231366   1.338  14.305   1.381
43198SOL     OW31367   9.467   4.893   4.998
43198SOL    HW131368   9.378   4.882   4.966
43198SOL    HW231369   9.507   4.807   4.988
43199SOL     OW31370  11.212   5.101  13.527
43199SOL    HW131371  11.138   5.082  13.585
43199SOL    HW231372  11.183   5.072  13.441
43200SOL     OW31373   2.578   1.450   2.848
43200SOL    HW131374   2.639   1.522   2.831
43200SOL    HW231375   2.563   1.410   2.762
43201SOL     OW31376   8.204   4.899   5.343
43201SOL    HW131377   8.255   4.979   5.338
43201SOL    HW231378   8.120   4.927   5.380
43202SOL     OW31379   9.168   8.131   7.109
43202SOL    HW131380   9.232   8.075   7.151
43202SOL    HW231381   9.188   8.219   7.140
43203SOL     OW31382   8.222   6.000   6.131
43203SOL    HW131383   8.166   6.047   6.192
43203SOL    HW231384   8.292   6.062   6.111
43204SOL     OW31385   0.330   1.662  11.613
43204SOL    HW131386   0.407   1.667  11.670
43204SOL    HW231387   0.366   1.667  11.524
43205SOL     OW31388   2.417   5.568   5.914
43205SOL    HW131389   2.415   5.565   6.010
43205SOL    HW231390   2.325   5.554   5.888
43206SOL     OW31391  12.907  13.461  12.328
43206SOL    HW131392  12.927  13.398  12.259
43206SOL    HW231393  12.990  13.504  12.347
43207SOL     OW31394  11.005   0.755  11.305
43207SOL    HW131395  10.993   0.732  11.397
43207SOL    HW231396  10.995   0.673  11.258
43208SOL     OW31397   7.067  12.054  10.746
43208SOL    HW131398   7.111  12.074  10.829
43208SOL    HW231399   7.138  12.038  10.684
43209SOL     OW31400  12.591   1.217  14.303
43209SOL    HW131401  12.637   1.238  14.385
43209SOL    HW231402  12.646   1.254  14.235
43210SOL     OW31403   8.816  14.845   5.188
43210SOL    HW131404   8.806  14.770   5.246
43210SOL    HW231405   8.905  14.876   5.202
43211SOL     OW31406   0.217   0.382   5.286
43211SOL    HW131407   0.249   0.434   5.360
43211SOL    HW231408   0.205   0.446   5.216
43212SOL     OW31409   8.800   3.510  14.761
43212SOL    HW131410   8.753   3.464  14.691
43212SOL    HW231411   8.752   3.488  14.841
43213SOL     OW31412   1.897   8.963   1.649
43213SOL    HW131413   1.846   9.035   1.612
43213SOL    HW231414   1.855   8.884   1.614
43214SOL     OW31415   2.871  14.114   4.355
43214SOL    HW131416   2.796  14.157   4.396
43214SOL    HW231417   2.896  14.173   4.284
43215SOL     OW31418   8.752  14.240  12.324
43215SOL    HW131419   8.755  14.307  12.392
43215SOL    HW231420   8.733  14.288  12.244
43216SOL     OW31421   1.012   3.741   2.550
43216SOL    HW131422   1.041   3.829   2.523
43216SOL    HW231423   1.090   3.686   2.540
43217SOL     OW31424   1.116  11.011  13.466
43217SOL    HW131425   1.208  11.001  13.443
43217SOL    HW231426   1.077  11.056  13.390
43218SOL     OW31427   1.925   5.028   7.345
43218SOL    HW131428   1.987   5.016   7.273
43218SOL    HW231429   1.899   4.939   7.370
43219SOL     OW31430  12.451  10.076   5.749
43219SOL    HW131431  12.360  10.057   5.727
43219SOL    HW231432  12.492   9.990   5.761
43220SOL     OW31433  14.072   1.704   9.375
43220SOL    HW131434  14.117   1.649   9.439
43220SOL    HW231435  14.123   1.784   9.372
43221SOL     OW31436   2.120  11.475  10.099
43221SOL    HW131437   2.081  11.557  10.070
43221SOL    HW231438   2.182  11.500  10.167
43222SOL     OW31439   6.187   8.693  11.109
43222SOL    HW131440   6.247   8.627  11.074
43222SOL    HW231441   6.241   8.772  11.118
43223SOL     OW31442  10.925  10.363   4.020
43223SOL    HW131443  10.986  10.315   3.963
43223SOL    HW231444  10.899  10.439   3.969
43224SOL     OW31445   1.286  11.380   3.938
43224SOL    HW131446   1.259  11.455   3.886
43224SOL    HW231447   1.380  11.371   3.920
43225SOL     OW31448   8.132  13.606   6.881
43225SOL    HW131449   8.084  13.677   6.924
43225SOL    HW231450   8.200  13.582   6.944
43226SOL     OW31451  11.426  13.526  10.989
43226SOL    HW131452  11.495  13.584  10.956
43226SOL    HW231453  11.356  13.533  10.925
43227SOL     OW31454   9.830   7.653  14.361
43227SOL    HW131455   9.833   7.730  14.304
43227SOL    HW231456   9.868   7.683  14.444
43228SOL     OW31457   3.598  11.670   8.564
43228SOL    HW131458   3.546  11.663   8.484
43228SOL    HW231459   3.668  11.606   8.551
43229SOL     OW31460   3.752  14.178   9.416
43229SOL    HW131461   3.782  14.252   9.364
43229SOL    HW231462   3.771  14.101   9.362
43230SOL     OW31463   5.674   0.032  11.658
43230SOL    HW131464   5.656   0.116  11.701
43230SOL    HW231465   5.769   0.025  11.658
43231SOL     OW31466  10.198   3.406   5.492
43231SOL    HW131467  10.125   3.398   5.553
43231SOL    HW231468  10.274   3.424   5.548
43232SOL     OW31469  11.490  14.661  11.612
43232SOL    HW131470  11.395  14.672  11.618
43232SOL    HW231471  11.525  14.750  11.610
43233SOL     OW31472   1.993   6.715   2.102
43233SOL    HW131473   1.952   6.778   2.043
43233SOL    HW231474   1.924   6.652   2.122
43234SOL     OW31475  14.875   3.849   0.044
43234SOL    HW131476  14.829   3.932   0.032
43234SOL    HW231477  14.840   3.814   0.126
43235SOL     OW31478  11.309   6.747   8.810
43235SOL    HW131479  11.250   6.672   8.810
43235SOL    HW231480  11.253   6.822   8.788
43236SOL     OW31481  10.054  10.559  13.727
43236SOL    HW131482  10.080  10.613  13.802
43236SOL    HW231483  10.016  10.621  13.665
43237SOL     OW31484   0.243   7.227   3.194
43237SOL    HW131485   0.157   7.237   3.235
43237SOL    HW231486   0.248   7.134   3.171
43238SOL     OW31487   9.533   4.215  12.289
43238SOL    HW131488   9.509   4.274  12.217
43238SOL    HW231489   9.459   4.155  12.297
43239SOL     OW31490  14.547  13.500   7.262
43239SOL    HW131491  14.546  13.589   7.225
43239SOL    HW231492  14.539  13.443   7.185
43240SOL     OW31493   0.633  13.418   5.158
43240SOL    HW131494   0.609  13.509   5.141
43240SOL    HW231495   0.726  13.413   5.136
43241SOL     OW31496   0.793  10.490  14.165
43241SOL    HW131497   0.815  10.482  14.072
43241SOL    HW231498   0.818  10.405  14.203
43242SOL     OW31499   3.911   0.526   6.823
43242SOL    HW131500   3.924   0.611   6.866
43242SOL    HW231501   3.957   0.535   6.739
43243SOL     OW31502   0.467   5.807   0.499
43243SOL    HW131503   0.554   5.847   0.499
43243SOL    HW231504   0.410   5.874   0.462
43244SOL     OW31505   0.388   1.207   0.206
43244SOL    HW131506   0.396   1.118   0.170
43244SOL    HW231507   0.310   1.202   0.261
43245SOL     OW31508   9.358   1.991   9.097
43245SOL    HW131509   9.311   1.972   9.179
43245SOL    HW231510   9.326   1.925   9.036
43246SOL     OW31511  12.163   6.779   9.642
43246SOL    HW131512  12.231   6.789   9.709
43246SOL    HW231513  12.155   6.684   9.630
43247SOL     OW31514  13.151  10.142  11.492
43247SOL    HW131515  13.205  10.216  11.464
43247SOL    HW231516  13.061  10.177  11.489
43248SOL     OW31517  13.593   8.638  13.869
43248SOL    HW131518  13.515   8.630  13.814
43248SOL    HW231519  13.567   8.603  13.954
43249SOL     OW31520  12.290   7.725   5.900
43249SOL    HW131521  12.253   7.666   5.966
43249SOL    HW231522  12.297   7.810   5.944
43250SOL     OW31523  14.364  11.222   5.899
43250SOL    HW131524  14.351  11.171   5.819
43250SOL    HW231525  14.356  11.313   5.872
43251SOL     OW31526   7.708   1.919   0.905
43251SOL    HW131527   7.646   1.941   0.836
43251SOL    HW231528   7.781   1.980   0.891
43252SOL     OW31529   6.869   1.911  12.676
43252SOL    HW131530   6.948   1.902  12.623
43252SOL    HW231531   6.854   2.005  12.682
43253SOL     OW31532   8.263   5.745  11.857
43253SOL    HW131533   8.297   5.668  11.811
43253SOL    HW231534   8.250   5.810  11.788
43254SOL     OW31535  12.755  12.413  11.211
43254SOL    HW131536  12.745  12.323  11.179
43254SOL    HW231537  12.828  12.407  11.273
43255SOL     OW31538   4.488  12.050  12.667
43255SOL    HW131539   4.574  12.092  12.657
43255SOL    HW231540   4.468  12.015  12.580
43256SOL     OW31541   9.080   0.496  10.255
43256SOL    HW131542   9.138   0.474  10.183
43256SOL    HW231543   9.126   0.564  10.304
43257SOL     OW31544   0.416   7.894  11.694
43257SOL    HW131545   0.389   7.806  11.720
43257SOL    HW231546   0.446   7.934  11.775
43258SOL     OW31547   2.485  12.634   8.347
43258SOL    HW131548   2.514  12.555   8.393
43258SOL    HW231549   2.511  12.619   8.256
43259SOL     OW31550   6.519  10.121  11.133
43259SOL    HW131551   6.485  10.085  11.215
43259SOL    HW231552   6.530  10.214  11.151
43260SOL     OW31553   7.327   5.869   0.404
43260SOL    HW131554   7.353   5.779   0.422
43260SOL    HW231555   7.264   5.862   0.332
43261SOL     OW31556  13.011   9.053  11.766
43261SOL    HW131557  12.998   9.046  11.860
43261SOL    HW231558  12.926   9.028  11.729
43262SOL     OW31559   9.563   9.771   2.126
43262SOL    HW131560   9.558   9.722   2.044
43262SOL    HW231561   9.623   9.844   2.107
43263SOL     OW31562   2.507   6.992   4.287
43263SOL    HW131563   2.443   6.928   4.257
43263SOL    HW231564   2.475   7.076   4.256
43264SOL     OW31565   3.779   6.494   2.204
43264SOL    HW131566   3.754   6.415   2.254
43264SOL    HW231567   3.751   6.475   2.115
43265SOL     OW31568   8.971  10.786   7.731
43265SOL    HW131569   8.916  10.798   7.809
43265SOL    HW231570   8.956  10.695   7.705
43266SOL     OW31571   4.794   9.950   4.273
43266SOL    HW131572   4.816   9.967   4.181
43266SOL    HW231573   4.750  10.030   4.302
43267SOL     OW31574   6.131  10.208  13.719
43267SOL    HW131575   6.078  10.235  13.793
43267SOL    HW231576   6.127  10.113  13.719
43268SOL     OW31577  12.290   1.758   2.261
43268SOL    HW131578  12.378   1.795   2.249
43268SOL    HW231579  12.231   1.821   2.220
43269SOL     OW31580  13.569   7.301  11.618
43269SOL    HW131581  13.497   7.286  11.679
43269SOL    HW231582  13.555   7.390  11.585
43270SOL     OW31583   0.109   1.166   2.389
43270SOL    HW131584   0.025   1.211   2.400
43270SOL    HW231585   0.086   1.081   2.351
43271SOL     OW31586   3.412   0.781   1.349
43271SOL    HW131587   3.384   0.742   1.266
43271SOL    HW231588   3.491   0.830   1.327
43272SOL     OW31589   2.128   2.103   9.231
43272SOL    HW131590   2.101   2.011   9.231
43272SOL    HW231591   2.079   2.143   9.160
43273SOL     OW31592  11.479   7.677   8.486
43273SOL    HW131593  11.447   7.763   8.461
43273SOL    HW231594  11.461   7.672   8.580
43274SOL     OW31595   4.434   3.098   0.524
43274SOL    HW131596   4.503   3.031   0.528
43274SOL    HW231597   4.363   3.061   0.576
43275SOL     OW31598   8.263  14.583   2.807
43275SOL    HW131599   8.343  14.535   2.829
43275SOL    HW231600   8.268  14.663   2.859
43276SOL     OW31601   4.700  13.925   5.701
43276SOL    HW131602   4.609  13.894   5.698
43276SOL    HW231603   4.730  13.900   5.788
43277SOL     OW31604  14.628   9.318   3.932
43277SOL    HW131605  14.647   9.233   3.892
43277SOL    HW231606  14.588   9.297   4.016
43278SOL     OW31607   0.450   2.123   9.646
43278SOL    HW131608   0.544   2.117   9.665
43278SOL    HW231609   0.432   2.217   9.647
43279SOL     OW31610   9.224  13.302   2.481
43279SOL    HW131611   9.155  13.296   2.548
43279SOL    HW231612   9.256  13.212   2.472
43280SOL     OW31613   1.718   3.167  14.022
43280SOL    HW131614   1.662   3.243  14.037
43280SOL    HW231615   1.662   3.092  14.041
43281SOL     OW31616   8.993   1.231   6.371
43281SOL    HW131617   8.986   1.140   6.342
43281SOL    HW231618   9.085   1.253   6.356
43282SOL     OW31619  14.159   9.217   8.060
43282SOL    HW131620  14.126   9.304   8.036
43282SOL    HW231621  14.246   9.234   8.094
43283SOL     OW31622   9.972  14.292  11.799
43283SOL    HW131623   9.956  14.383  11.776
43283SOL    HW231624  10.060  14.273  11.766
43284SOL     OW31625  13.782   5.932  14.440
43284SOL    HW131626  13.712   5.892  14.492
43284SOL    HW231627  13.860   5.882  14.465
43285SOL     OW31628   5.986  12.005  11.240
43285SOL    HW131629   5.982  12.023  11.146
43285SOL    HW231630   6.064  11.950  11.251
43286SOL     OW31631   2.760   9.108  10.474
43286SOL    HW131632   2.680   9.063  10.499
43286SOL    HW231633   2.829   9.043  10.484
43287SOL     OW31634   5.133   0.239  14.591
43287SOL    HW131635   5.193   0.304  14.629
43287SOL    HW231636   5.187   0.191  14.528
43288SOL     OW31637   2.754   7.997  13.322
43288SOL    HW131638   2.805   7.971  13.398
43288SOL    HW231639   2.723   7.915  13.284
43289SOL     OW31640   0.908   0.734   2.011
43289SOL    HW131641   0.898   0.825   1.984
43289SOL    HW231642   0.966   0.696   1.945
43290SOL     OW31643   3.333   4.873  11.974
43290SOL    HW131644   3.297   4.793  11.935
43290SOL    HW231645   3.259   4.912  12.021
43291SOL     OW31646   8.815  13.435   2.973
43291SOL    HW131647   8.758  13.503   3.009
43291SOL    HW231648   8.894  13.440   3.026
43292SOL     OW31649  12.639  11.078  12.523
43292SOL    HW131650  12.563  11.055  12.577
43292SOL    HW231651  12.698  11.003  12.532
43293SOL     OW31652   0.817  11.123   3.948
43293SOL    HW131653   0.843  11.090   3.862
43293SOL    HW231654   0.788  11.213   3.932
43294SOL     OW31655   8.164   1.124  12.170
43294SOL    HW131656   8.118   1.185  12.113
43294SOL    HW231657   8.188   1.050  12.113
43295SOL     OW31658  11.284  12.561   8.656
43295SOL    HW131659  11.213  12.550   8.593
43295SOL    HW231660  11.242  12.548   8.741
43296SOL     OW31661  11.718  10.804  14.043
43296SOL    HW131662  11.658  10.876  14.028
43296SOL    HW231663  11.762  10.826  14.126
43297SOL     OW31664  11.801   0.970  12.925
43297SOL    HW131665  11.749   0.971  12.844
43297SOL    HW231666  11.793   0.880  12.957
43298SOL     OW31667   8.392   9.558   2.963
43298SOL    HW131668   8.442   9.639   2.970
43298SOL    HW231669   8.448   9.491   3.003
43299SOL     OW31670   0.928   5.092  11.037
43299SOL    HW131671   0.951   5.168  11.092
43299SOL    HW231672   0.992   5.025  11.060
43300SOL     OW31673   6.362   9.839   2.021
43300SOL    HW131674   6.277   9.857   2.061
43300SOL    HW231675   6.362   9.745   2.005
43301SOL     OW31676   9.520   0.416   4.328
43301SOL    HW131677   9.537   0.322   4.330
43301SOL    HW231678   9.432   0.425   4.364
43302SOL     OW31679   2.505   6.067  10.199
43302SOL    HW131680   2.547   6.097  10.119
43302SOL    HW231681   2.560   5.995  10.230
43303SOL     OW31682   5.320  10.614   8.856
43303SOL    HW131683   5.226  10.622   8.871
43303SOL    HW231684   5.360  10.656   8.932
43304SOL     OW31685   5.803   3.082   2.204
43304SOL    HW131686   5.738   3.139   2.163
43304SOL    HW231687   5.887   3.124   2.186
43305SOL     OW31688   8.956   2.179   8.484
43305SOL    HW131689   8.892   2.243   8.516
43305SOL    HW231690   8.997   2.222   8.408
43306SOL     OW31691   2.446   1.919   6.058
43306SOL    HW131692   2.411   1.918   5.969
43306SOL    HW231693   2.529   1.871   6.052
43307SOL     OW31694  13.823   6.199  14.861
43307SOL    HW131695  13.765   6.124  14.849
43307SOL    HW231696  13.874   6.179   0.062
43308SOL     OW31697  11.789  11.919  14.851
43308SOL    HW131698  11.703  11.877  14.855
43308SOL    HW231699  11.850  11.849  14.874
43309SOL     OW31700   8.526  12.435   6.795
43309SOL    HW131701   8.549  12.526   6.813
43309SOL    HW231702   8.430  12.435   6.789
43310SOL     OW31703  13.732   9.855   6.111
43310SOL    HW131704  13.809   9.866   6.054
43310SOL    HW231705  13.665   9.820   6.053
43311SOL     OW31706   4.223  12.804   3.397
43311SOL    HW131707   4.280  12.855   3.455
43311SOL    HW231708   4.217  12.718   3.438
43312SOL     OW31709   6.479   1.863   8.004
43312SOL    HW131710   6.475   1.911   7.921
43312SOL    HW231711   6.482   1.930   8.071
43313SOL     OW31712   9.287  10.083  10.195
43313SOL    HW131713   9.360  10.136  10.226
43313SOL    HW231714   9.211  10.116  10.244
43314SOL     OW31715   7.878  14.670  11.915
43314SOL    HW131716   7.888  14.737  11.983
43314SOL    HW231717   7.915  14.709  11.836
43315SOL     OW31718   0.230   4.910   5.010
43315SOL    HW131719   0.284   4.832   5.023
43315SOL    HW231720   0.241   4.960   5.091
43316SOL     OW31721   5.059  13.475   4.779
43316SOL    HW131722   4.981  13.529   4.785
43316SOL    HW231723   5.115  13.522   4.717
43317SOL     OW31724   2.221   0.350  10.151
43317SOL    HW131725   2.201   0.437  10.116
43317SOL    HW231726   2.246   0.298  10.074
43318SOL     OW31727   2.360   6.409   9.806
43318SOL    HW131728   2.449   6.440   9.826
43318SOL    HW231729   2.334   6.361   9.885
43319SOL     OW31730  10.007  11.536   3.979
43319SOL    HW131731  10.031  11.576   3.895
43319SOL    HW231732  10.068  11.574   4.042
43320SOL     OW31733   3.589   2.294  11.331
43320SOL    HW131734   3.497   2.316  11.348
43320SOL    HW231735   3.639   2.364  11.373
43321SOL     OW31736   4.825   3.520   4.980
43321SOL    HW131737   4.870   3.476   5.053
43321SOL    HW231738   4.787   3.448   4.929
43322SOL     OW31739  14.702  13.790   7.860
43322SOL    HW131740  14.782  13.790   7.808
43322SOL    HW231741  14.668  13.879   7.852
43323SOL     OW31742   5.079  14.028   9.389
43323SOL    HW131743   4.985  14.036   9.375
43323SOL    HW231744   5.089  13.948   9.440
43324SOL     OW31745  12.188   2.579  11.732
43324SOL    HW131746  12.102   2.576  11.690
43324SOL    HW231747  12.215   2.671  11.726
43325SOL     OW31748   6.111   3.759   0.319
43325SOL    HW131749   6.091   3.852   0.333
43325SOL    HW231750   6.194   3.745   0.366
43326SOL     OW31751   4.825   6.285   5.499
43326SOL    HW131752   4.873   6.355   5.544
43326SOL    HW231753   4.757   6.260   5.561
43327SOL     OW31754  10.034   0.085   8.067
43327SOL    HW131755  10.035   0.101   8.162
43327SOL    HW231756   9.991  14.877   8.058
43328SOL     OW31757  12.636   5.782   7.757
43328SOL    HW131758  12.625   5.723   7.831
43328SOL    HW231759  12.548   5.817   7.741
43329SOL     OW31760  11.218   8.225   0.448
43329SOL    HW131761  11.212   8.244   0.354
43329SOL    HW231762  11.310   8.239   0.470
43330SOL     OW31763   9.715   1.256   8.592
43330SOL    HW131764   9.718   1.179   8.535
43330SOL    HW231765   9.631   1.297   8.571
43331SOL     OW31766   2.126   1.763   4.894
43331SOL    HW131767   2.110   1.696   4.959
43331SOL    HW231768   2.136   1.844   4.945
43332SOL     OW31769   8.545   8.515  13.024
43332SOL    HW131770   8.479   8.566  12.977
43332SOL    HW231771   8.619   8.510  12.964
43333SOL     OW31772  14.792  11.614   5.947
43333SOL    HW131773  14.853  11.569   6.005
43333SOL    HW231774  14.771  11.550   5.879
43334SOL     OW31775   1.788   8.297  12.613
43334SOL    HW131776   1.762   8.389  12.608
43334SOL    HW231777   1.804   8.282  12.706
43335SOL     OW31778   8.382   2.407   8.130
43335SOL    HW131779   8.372   2.354   8.051
43335SOL    HW231780   8.346   2.492   8.106
43336SOL     OW31781   1.414  11.803   8.176
43336SOL    HW131782   1.372  11.720   8.153
43336SOL    HW231783   1.413  11.854   8.095
43337SOL     OW31784   4.762  10.254   9.572
43337SOL    HW131785   4.670  10.252   9.598
43337SOL    HW231786   4.783  10.347   9.564
43338SOL     OW31787  12.849   9.372  12.619
43338SOL    HW131788  12.829   9.436  12.550
43338SOL    HW231789  12.917   9.316  12.581
43339SOL     OW31790   1.220   8.239   9.382
43339SOL    HW131791   1.153   8.194   9.331
43339SOL    HW231792   1.265   8.295   9.318
43340SOL     OW31793   4.817   5.028   1.167
43340SOL    HW131794   4.796   5.090   1.237
43340SOL    HW231795   4.732   4.997   1.136
43341SOL     OW31796   3.204  13.547   3.696
43341SOL    HW131797   3.272  13.585   3.753
43341SOL    HW231798   3.124  13.595   3.719
43342SOL     OW31799  11.301   7.742   4.152
43342SOL    HW131800  11.263   7.820   4.192
43342SOL    HW231801  11.314   7.681   4.225
43343SOL     OW31802   3.218   5.450   9.080
43343SOL    HW131803   3.299   5.481   9.040
43343SOL    HW231804   3.183   5.526   9.127
43344SOL     OW31805   2.490   8.378  13.207
43344SOL    HW131806   2.479   8.296  13.255
43344SOL    HW231807   2.407   8.390  13.161
43345SOL     OW31808  14.165   3.950   8.900
43345SOL    HW131809  14.195   3.985   8.985
43345SOL    HW231810  14.172   4.025   8.841
43346SOL     OW31811  13.198   6.491   0.348
43346SOL    HW131812  13.247   6.483   0.266
43346SOL    HW231813  13.106   6.478   0.322
43347SOL     OW31814   5.953  13.515   6.901
43347SOL    HW131815   5.891  13.477   6.963
43347SOL    HW231816   5.980  13.598   6.941
43348SOL     OW31817  12.769   0.092   0.357
43348SOL    HW131818  12.841   0.075   0.296
43348SOL    HW231819  12.767   0.015   0.414
43349SOL     OW31820  14.117   5.636  13.784
43349SOL    HW131821  14.025   5.640  13.812
43349SOL    HW231822  14.162   5.592  13.856
43350SOL     OW31823   7.741   4.127   9.860
43350SOL    HW131824   7.730   4.045   9.811
43350SOL    HW231825   7.731   4.195   9.794
43351SOL     OW31826  12.550  14.116  14.470
43351SOL    HW131827  12.604  14.171  14.527
43351SOL    HW231828  12.548  14.031  14.514
43352SOL     OW31829  13.632   6.388  10.088
43352SOL    HW131830  13.723   6.385  10.058
43352SOL    HW231831  13.583   6.340  10.021
43353SOL     OW31832   6.568   0.414   6.055
43353SOL    HW131833   6.542   0.333   6.097
43353SOL    HW231834   6.601   0.469   6.126
43354SOL     OW31835  11.428   4.088   6.769
43354SOL    HW131836  11.392   4.014   6.721
43354SOL    HW231837  11.354   4.149   6.778
43355SOL     OW31838   4.115  14.257   0.450
43355SOL    HW131839   4.206  14.265   0.419
43355SOL    HW231840   4.066  14.318   0.395
43356SOL     OW31841   0.201  11.501   2.651
43356SOL    HW131842   0.209  11.434   2.719
43356SOL    HW231843   0.133  11.468   2.593
43357SOL     OW31844   8.384   0.266   1.786
43357SOL    HW131845   8.472   0.234   1.803
43357SOL    HW231846   8.396   0.355   1.754
43358SOL     OW31847   8.059   2.910  14.309
43358SOL    HW131848   8.038   2.886  14.400
43358SOL    HW231849   8.147   2.945  14.314
43359SOL     OW31850   0.624   6.191   3.263
43359SOL    HW131851   0.618   6.099   3.291
43359SOL    HW231852   0.706   6.196   3.213
43360SOL     OW31853  10.312   9.443   7.497
43360SOL    HW131854  10.314   9.496   7.576
43360SOL    HW231855  10.293   9.354   7.527
43361SOL     OW31856   4.804   9.773   3.731
43361SOL    HW131857   4.738   9.841   3.747
43361SOL    HW231858   4.887   9.813   3.758
43362SOL     OW31859   0.678   3.561   5.539
43362SOL    HW131860   0.663   3.521   5.453
43362SOL    HW231861   0.608   3.626   5.547
43363SOL     OW31862   3.763  13.039  11.748
43363SOL    HW131863   3.826  13.109  11.768
43363SOL    HW231864   3.711  13.031  11.828
43364SOL     OW31865  12.168  10.678   0.873
43364SOL    HW131866  12.237  10.649   0.933
43364SOL    HW231867  12.169  10.774   0.881
43365SOL     OW31868  13.708  12.728   3.057
43365SOL    HW131869  13.709  12.743   2.962
43365SOL    HW231870  13.753  12.644   3.068
43366SOL     OW31871   9.930   6.229  10.397
43366SOL    HW131872  10.006   6.230  10.455
43366SOL    HW231873   9.967   6.227  10.309
43367SOL     OW31874   4.254   4.087  10.012
43367SOL    HW131875   4.208   4.150  10.069
43367SOL    HW231876   4.184   4.034   9.974
43368SOL     OW31877   7.091  11.359   8.731
43368SOL    HW131878   7.167  11.411   8.758
43368SOL    HW231879   7.097  11.279   8.784
43369SOL     OW31880  13.932   7.602   5.963
43369SOL    HW131881  13.910   7.512   5.987
43369SOL    HW231882  13.849   7.641   5.936
43370SOL     OW31883  13.600   7.338   3.036
43370SOL    HW131884  13.692   7.357   3.054
43370SOL    HW231885  13.555   7.421   3.054
43371SOL     OW31886   5.005  11.880   1.169
43371SOL    HW131887   5.083  11.935   1.171
43371SOL    HW231888   4.932  11.942   1.166
43372SOL     OW31889   5.290   0.964   0.562
43372SOL    HW131890   5.285   1.006   0.476
43372SOL    HW231891   5.299   1.036   0.624
43373SOL     OW31892   8.116   0.922  12.519
43373SOL    HW131893   8.083   0.957  12.603
43373SOL    HW231894   8.137   1.000  12.468
43374SOL     OW31895  13.830   8.418   6.123
43374SOL    HW131896  13.828   8.370   6.206
43374SOL    HW231897  13.894   8.372   6.070
43375SOL     OW31898   4.980   5.630   8.131
43375SOL    HW131899   5.034   5.702   8.165
43375SOL    HW231900   5.027   5.598   8.054
43376SOL     OW31901   6.711  13.880   2.258
43376SOL    HW131902   6.797  13.838   2.252
43376SOL    HW231903   6.654  13.825   2.204
43377SOL     OW31904  12.264  10.658  13.733
43377SOL    HW131905  12.207  10.735  13.726
43377SOL    HW231906  12.204  10.583  13.733
43378SOL     OW31907  13.147   3.387   2.746
43378SOL    HW131908  13.072   3.327   2.741
43378SOL    HW231909  13.163   3.399   2.839
43379SOL     OW31910   5.624   3.662   6.874
43379SOL    HW131911   5.638   3.664   6.969
43379SOL    HW231912   5.584   3.576   6.858
43380SOL     OW31913   0.001  13.080   4.852
43380SOL    HW131914  14.849  13.081   4.944
43380SOL    HW231915   0.021  13.171   4.832
43381SOL     OW31916   1.391  10.707  11.027
43381SOL    HW131917   1.439  10.751  11.097
43381SOL    HW231918   1.430  10.742  10.946
43382SOL     OW31919   1.344   8.884   3.057
43382SOL    HW131920   1.338   8.911   2.965
43382SOL    HW231921   1.299   8.954   3.105
43383SOL     OW31922   3.059   1.477   5.384
43383SOL    HW131923   2.978   1.503   5.340
43383SOL    HW231924   3.035   1.472   5.477
43384SOL     OW31925   0.942  14.215  14.102
43384SOL    HW131926   1.003  14.153  14.142
43384SOL    HW231927   0.878  14.160  14.057
43385SOL     OW31928   0.031  13.185  13.908
43385SOL    HW131929   0.031  13.275  13.942
43385SOL    HW231930  14.838  13.185  13.842
43386SOL     OW31931   0.479   0.754  14.375
43386SOL    HW131932   0.501   0.826  14.316
43386SOL    HW231933   0.562   0.732  14.418
43387SOL     OW31934   3.333   5.094   4.829
43387SOL    HW131935   3.316   5.148   4.906
43387SOL    HW231936   3.348   5.157   4.759
43388SOL     OW31937  13.256  13.776   4.367
43388SOL    HW131938  13.276  13.812   4.280
43388SOL    HW231939  13.259  13.851   4.426
43389SOL     OW31940   4.772   1.607  13.858
43389SOL    HW131941   4.743   1.604  13.767
43389SOL    HW231942   4.777   1.700  13.879
43390SOL     OW31943   6.915   5.852   8.699
43390SOL    HW131944   6.853   5.803   8.754
43390SOL    HW231945   6.860   5.904   8.641
43391SOL     OW31946   1.197   9.160  11.909
43391SOL    HW131947   1.247   9.124  11.836
43391SOL    HW231948   1.246   9.134  11.987
43392SOL     OW31949  13.325   2.963  10.119
43392SOL    HW131950  13.400   2.987  10.065
43392SOL    HW231951  13.332   2.868  10.130
43393SOL     OW31952  14.260   7.827   6.358
43393SOL    HW131953  14.192   7.846   6.294
43393SOL    HW231954  14.214   7.791   6.433
43394SOL     OW31955  11.563   3.058   9.032
43394SOL    HW131956  11.491   3.038   8.971
43394SOL    HW231957  11.573   3.153   9.028
43395SOL     OW31958   8.328   1.218  13.834
43395SOL    HW131959   8.241   1.251  13.855
43395SOL    HW231960   8.335   1.135  13.881
43396SOL     OW31961   7.373   3.180  13.576
43396SOL    HW131962   7.396   3.188  13.668
43396SOL    HW231963   7.382   3.269  13.541
43397SOL     OW31964  12.562   0.917   0.981
43397SOL    HW131965  12.583   0.997   1.029
43397SOL    HW231966  12.571   0.847   1.046
43398SOL     OW31967   2.557   6.149   4.234
43398SOL    HW131968   2.557   6.166   4.139
43398SOL    HW231969   2.646   6.120   4.253
43399SOL     OW31970  13.850   5.407   8.453
43399SOL    HW131971  13.928   5.356   8.428
43399SOL    HW231972  13.803   5.350   8.514
43400SOL     OW31973  13.219   9.761  13.943
43400SOL    HW131974  13.262   9.687  13.900
43400SOL    HW231975  13.214   9.735  14.035
43401SOL     OW31976   1.348   5.776  10.708
43401SOL    HW131977   1.334   5.853  10.762
43401SOL    HW231978   1.394   5.809  10.631
43402SOL     OW31979  10.794   0.780  10.833
43402SOL    HW131980  10.879   0.808  10.799
43402SOL    HW231981  10.810   0.766  10.927
43403SOL     OW31982   9.904   0.006   3.923
43403SOL    HW131983   9.885   0.074   3.987
43403SOL    HW231984   9.873   0.042   3.840
43404SOL     OW31985   0.744  14.222   4.359
43404SOL    HW131986   0.653  14.213   4.329
43404SOL    HW231987   0.775  14.303   4.319
43405SOL     OW31988  10.263  12.050   7.113
43405SOL    HW131989  10.170  12.057   7.134
43405SOL    HW231990  10.269  11.977   7.051
43406SOL     OW31991   5.313   9.585   0.692
43406SOL    HW131992   5.300   9.490   0.690
43406SOL    HW231993   5.256   9.619   0.623
43407SOL     OW31994   2.802   2.452   2.578
43407SOL    HW131995   2.824   2.460   2.671
43407SOL    HW231996   2.876   2.493   2.533
43408SOL     OW31997   5.087  10.215   2.734
43408SOL    HW131998   5.127  10.242   2.651
43408SOL    HW231999   5.096  10.291   2.791
43409SOL     OW32000   7.588   8.720  14.386
43409SOL    HW132001   7.648   8.741  14.315
43409SOL    HW232002   7.529   8.655  14.348
43410SOL     OW32003  12.842   2.460   3.293
43410SOL    HW132004  12.812   2.399   3.226
43410SOL    HW232005  12.873   2.405   3.365
43411SOL     OW32006   9.905  12.725   8.117
43411SOL    HW132007   9.832  12.783   8.100
43411SOL    HW232008   9.933  12.695   8.030
43412SOL     OW32009  11.063  13.480  14.007
43412SOL    HW132010  11.138  13.536  13.987
43412SOL    HW232011  11.076  13.402  13.953
43413SOL     OW32012  12.572  11.868   2.058
43413SOL    HW132013  12.614  11.818   1.988
43413SOL    HW232014  12.604  11.828   2.139
43414SOL     OW32015  11.672   9.312   2.794
43414SOL    HW132016  11.597   9.341   2.743
43414SOL    HW232017  11.697   9.228   2.754
43415SOL     OW32018  10.209   0.434   0.047
43415SOL    HW132019  10.273   0.501   0.070
43415SOL    HW232020  10.233   0.358   0.100
43416SOL     OW32021   3.887  12.466   1.760
43416SOL    HW132022   3.939  12.534   1.718
43416SOL    HW232023   3.944  12.431   1.829
43417SOL     OW32024   5.623   7.606   6.575
43417SOL    HW132025   5.703   7.558   6.597
43417SOL    HW232026   5.555   7.563   6.627
43418SOL     OW32027   7.546  14.595   9.300
43418SOL    HW132028   7.506  14.681   9.311
43418SOL    HW232029   7.586  14.576   9.384
43419SOL     OW32030   7.329   0.345   4.017
43419SOL    HW132031   7.383   0.422   4.032
43419SOL    HW232032   7.338   0.293   4.097
43420SOL     OW32033   5.082   8.678  10.927
43420SOL    HW132034   5.089   8.616  10.854
43420SOL    HW232035   4.992   8.710  10.921
43421SOL     OW32036  14.393   6.518   9.156
43421SOL    HW132037  14.463   6.552   9.211
43421SOL    HW232038  14.434   6.447   9.106
43422SOL     OW32039   0.693   0.248   5.697
43422SOL    HW132040   0.648   0.302   5.632
43422SOL    HW232041   0.778   0.228   5.658
43423SOL     OW32042  12.213  14.039   0.448
43423SOL    HW132043  12.158  13.961   0.444
43423SOL    HW232044  12.175  14.097   0.382
43424SOL     OW32045  12.830   7.304   6.596
43424SOL    HW132046  12.736   7.322   6.604
43424SOL    HW232047  12.864   7.376   6.544
43425SOL     OW32048   9.930   4.448   8.485
43425SOL    HW132049  10.015   4.469   8.446
43425SOL    HW232050   9.930   4.491   8.570
43426SOL     OW32051   8.832   6.936   0.554
43426SOL    HW132052   8.772   6.864   0.538
43426SOL    HW232053   8.818   6.960   0.646
43427SOL     OW32054   9.880   3.787  10.877
43427SOL    HW132055   9.879   3.882  10.869
43427SOL    HW232056   9.932   3.770  10.955
43428SOL     OW32057   2.309   6.079   9.191
43428SOL    HW132058   2.297   6.147   9.125
43428SOL    HW232059   2.364   6.120   9.258
43429SOL     OW32060   8.881   8.639   8.971
43429SOL    HW132061   8.817   8.574   9.001
43429SOL    HW232062   8.863   8.716   9.024
43430SOL     OW32063  10.824   6.030  12.006
43430SOL    HW132064  10.893   6.068  12.061
43430SOL    HW232065  10.826   5.936  12.026
43431SOL     OW32066   6.022   6.840   4.023
43431SOL    HW132067   6.013   6.932   4.046
43431SOL    HW232068   6.055   6.840   3.933
43432SOL     OW32069   2.354   3.148   7.453
43432SOL    HW132070   2.342   3.174   7.544
43432SOL    HW232071   2.424   3.205   7.421
43433SOL     OW32072   1.394   2.688  13.501
43433SOL    HW132073   1.333   2.680  13.427
43433SOL    HW232074   1.422   2.598  13.517
43434SOL     OW32075  13.704   7.072   0.385
43434SOL    HW132076  13.781   7.016   0.375
43434SOL    HW232077  13.669   7.049   0.472
43435SOL     OW32078   5.551   7.929   4.528
43435SOL    HW132079   5.484   7.926   4.460
43435SOL    HW232080   5.515   7.878   4.600
43436SOL     OW32081  11.568  13.615   9.099
43436SOL    HW132082  11.509  13.670   9.047
43436SOL    HW232083  11.566  13.530   9.056
43437SOL     OW32084   9.361  14.408   8.132
43437SOL    HW132085   9.298  14.357   8.082
43437SOL    HW232086   9.313  14.486   8.161
43438SOL     OW32087   8.074   4.286   3.425
43438SOL    HW132088   8.088   4.273   3.519
43438SOL    HW232089   8.144   4.236   3.383
43439SOL     OW32090  11.260   6.847   8.367
43439SOL    HW132091  11.172   6.820   8.342
43439SOL    HW232092  11.290   6.902   8.296
43440SOL     OW32093   9.182  13.653   3.583
43440SOL    HW132094   9.122  13.588   3.618
43440SOL    HW232095   9.224  13.691   3.660
43441SOL     OW32096   8.618   4.422  13.932
43441SOL    HW132097   8.577   4.346  13.973
43441SOL    HW232098   8.673   4.386  13.863
43442SOL     OW32099  12.915   9.203   1.708
43442SOL    HW132100  12.897   9.155   1.789
43442SOL    HW232101  12.841   9.182   1.652
43443SOL     OW32102   3.249  10.703   4.096
43443SOL    HW132103   3.194  10.630   4.067
43443SOL    HW232104   3.313  10.713   4.026
43444SOL     OW32105   6.908   2.977   5.360
43444SOL    HW132106   6.976   2.911   5.347
43444SOL    HW232107   6.878   2.963   5.450
43445SOL     OW32108   0.393   3.000  14.834
43445SOL    HW132109   0.484   3.028  14.821
43445SOL    HW232110   0.375   2.941  14.761
43446SOL     OW32111   8.963   1.581   6.936
43446SOL    HW132112   9.041   1.530   6.916
43446SOL    HW232113   8.993   1.646   7.000
43447SOL     OW32114  11.196  14.087   4.832
43447SOL    HW132115  11.117  14.088   4.886
43447SOL    HW232116  11.228  14.177   4.835
43448SOL     OW32117  12.836   4.057   2.098
43448SOL    HW132118  12.835   4.116   2.022
43448SOL    HW232119  12.847   4.116   2.173
43449SOL     OW32120   0.104   7.075   0.008
43449SOL    HW132121   0.045   7.117   0.070
43449SOL    HW232122   0.168   7.143  14.863
43450SOL     OW32123   7.374  11.539  12.462
43450SOL    HW132124   7.368  11.635  12.459
43450SOL    HW232125   7.435  11.522  12.534
43451SOL     OW32126  13.838  12.056   6.459
43451SOL    HW132127  13.796  12.013   6.533
43451SOL    HW232128  13.786  12.135   6.445
43452SOL     OW32129   6.679   3.818   5.996
43452SOL    HW132130   6.771   3.834   6.015
43452SOL    HW232131   6.633   3.892   6.034
43453SOL     OW32132  13.814   4.617   9.030
43453SOL    HW132133  13.829   4.680   9.101
43453SOL    HW232134  13.838   4.532   9.068
43454SOL     OW32135   4.987   7.198   7.386
43454SOL    HW132136   4.947   7.253   7.319
43454SOL    HW232137   4.942   7.114   7.378
43455SOL     OW32138   5.002   4.214  12.747
43455SOL    HW132139   5.032   4.170  12.827
43455SOL    HW232140   4.920   4.170  12.725
43456SOL     OW32141  14.554  13.149   6.299
43456SOL    HW132142  14.607  13.071   6.287
43456SOL    HW232143  14.481  13.121   6.353
43457SOL     OW32144  13.838   0.440  13.187
43457SOL    HW132145  13.746   0.425  13.166
43457SOL    HW232146  13.874   0.483  13.110
43458SOL     OW32147   3.797   8.860   4.680
43458SOL    HW132148   3.850   8.780   4.682
43458SOL    HW232149   3.860   8.930   4.662
43459SOL     OW32150   9.405  10.634   3.965
43459SOL    HW132151   9.326  10.634   3.910
43459SOL    HW232152   9.408  10.721   4.003
43460SOL     OW32153  13.470  13.874  12.464
43460SOL    HW132154  13.526  13.796  12.467
43460SOL    HW232155  13.415  13.867  12.542
43461SOL     OW32156  10.228   0.453   7.579
43461SOL    HW132157  10.215   0.459   7.484
43461SOL    HW232158  10.191   0.368   7.603
43462SOL     OW32159   3.319   9.440  11.138
43462SOL    HW132160   3.350   9.419  11.226
43462SOL    HW232161   3.320   9.536  11.135
43463SOL     OW32162   6.661  13.311  11.573
43463SOL    HW132163   6.719  13.313  11.497
43463SOL    HW232164   6.715  13.340  11.646
43464SOL     OW32165  14.314   4.609  11.040
43464SOL    HW132166  14.399   4.565  11.034
43464SOL    HW232167  14.250   4.538  11.036
43465SOL     OW32168   2.790  14.700   2.191
43465SOL    HW132169   2.802  14.739   2.104
43465SOL    HW232170   2.710  14.741   2.224
43466SOL     OW32171  13.374   6.262   0.843
43466SOL    HW132172  13.295   6.313   0.863
43466SOL    HW232173  13.362   6.232   0.753
43467SOL     OW32174   8.391   0.160   5.501
43467SOL    HW132175   8.420   0.240   5.458
43467SOL    HW232176   8.467   0.102   5.496
43468SOL     OW32177   4.816   2.565   0.583
43468SOL    HW132178   4.745   2.565   0.519
43468SOL    HW232179   4.820   2.656   0.613
43469SOL     OW32180  13.130   1.948   4.695
43469SOL    HW132181  13.077   1.941   4.774
43469SOL    HW232182  13.176   1.864   4.689
43470SOL     OW32183   5.584  14.364   1.820
43470SOL    HW132184   5.540  14.287   1.855
43470SOL    HW232185   5.643  14.329   1.753
43471SOL     OW32186  12.646  14.727   9.740
43471SOL    HW132187  12.628  14.691   9.827
43471SOL    HW232188  12.702  14.661   9.699
43472SOL     OW32189   1.595   5.620  11.460
43472SOL    HW132190   1.563   5.548  11.405
43472SOL    HW232191   1.614   5.690  11.399
43473SOL     OW32192   7.022   4.560   1.867
43473SOL    HW132193   6.928   4.561   1.882
43473SOL    HW232194   7.061   4.562   1.955
43474SOL     OW32195   2.782  13.180   4.369
43474SOL    HW132196   2.826  13.251   4.322
43474SOL    HW232197   2.833  13.102   4.348
43475SOL     OW32198  14.497   0.484   7.963
43475SOL    HW132199  14.517   0.408   8.018
43475SOL    HW232200  14.417   0.520   7.999
43476SOL     OW32201   4.907  14.165   4.778
43476SOL    HW132202   4.835  14.195   4.833
43476SOL    HW232203   4.964  14.117   4.837
43477SOL     OW32204  14.856  14.232   7.232
43477SOL    HW132205  14.851  14.167   7.302
43477SOL    HW232206   0.071  14.255   7.226
43478SOL     OW32207   0.208  11.546   0.390
43478SOL    HW132208   0.160  11.627   0.380
43478SOL    HW232209   0.142  11.481   0.416
43479SOL     OW32210   5.416  12.951   9.795
43479SOL    HW132211   5.503  12.954   9.756
43479SOL    HW232212   5.414  12.867   9.842
43480SOL     OW32213   6.012  13.604   8.410
43480SOL    HW132214   6.085  13.636   8.358
43480SOL    HW232215   6.026  13.510   8.417
43481SOL     OW32216   0.770   5.020   2.997
43481SOL    HW132217   0.750   5.058   3.083
43481SOL    HW232218   0.753   4.927   3.007
43482SOL     OW32219  12.593  12.199  14.061
43482SOL    HW132220  12.500  12.186  14.081
43482SOL    HW232221  12.635  12.211  14.146
43483SOL     OW32222   1.690  14.412   4.027
43483SOL    HW132223   1.750  14.447   4.093
43483SOL    HW232224   1.646  14.489   3.992
43484SOL     OW32225  10.064   1.613   6.049
43484SOL    HW132226  10.090   1.538   6.103
43484SOL    HW232227  10.091   1.590   5.961
43485SOL     OW32228   3.616  11.872  10.438
43485SOL    HW132229   3.629  11.942  10.503
43485SOL    HW232230   3.689  11.812  10.454
43486SOL     OW32231  14.553   6.317   6.639
43486SOL    HW132232  14.534   6.372   6.563
43486SOL    HW232233  14.613   6.250   6.606
43487SOL     OW32234   0.185  13.700   8.988
43487SOL    HW132235   0.164  13.648   9.065
43487SOL    HW232236   0.270  13.739   9.007
43488SOL     OW32237   3.448   0.375   6.671
43488SOL    HW132238   3.443   0.285   6.641
43488SOL    HW232239   3.424   0.372   6.763
43489SOL     OW32240   6.622   2.384  11.863
43489SOL    HW132241   6.678   2.327  11.916
43489SOL    HW232242   6.585   2.326  11.796
43490SOL     OW32243   4.697  10.993  11.708
43490SOL    HW132244   4.726  11.007  11.798
43490SOL    HW232245   4.661  10.905  11.708
43491SOL     OW32246   4.632   9.659   0.143
43491SOL    HW132247   4.557   9.665   0.203
43491SOL    HW232248   4.706   9.688   0.196
43492SOL     OW32249   2.202   2.670   9.901
43492SOL    HW132250   2.272   2.610   9.875
43492SOL    HW232251   2.123   2.634   9.861
43493SOL     OW32252  13.419  10.019  11.075
43493SOL    HW132253  13.448  10.060  11.157
43493SOL    HW232254  13.416   9.925  11.095
43494SOL     OW32255   4.713  13.730  11.374
43494SOL    HW132256   4.662  13.656  11.340
43494SOL    HW232257   4.702  13.799  11.309
43495SOL     OW32258  14.067  10.975   6.227
43495SOL    HW132259  14.119  11.041   6.182
43495SOL    HW232260  14.130  10.910   6.256
43496SOL     OW32261   6.408  12.582   4.696
43496SOL    HW132262   6.447  12.566   4.781
43496SOL    HW232263   6.450  12.519   4.638
43497SOL     OW32264   1.409   9.956   4.660
43497SOL    HW132265   1.332   9.908   4.690
43497SOL    HW232266   1.394  10.046   4.689
43498SOL     OW32267  14.286   9.154  11.953
43498SOL    HW132268  14.204   9.137  11.999
43498SOL    HW232269  14.287   9.090  11.881
43499SOL     OW32270  10.940   7.171  11.978
43499SOL    HW132271  10.917   7.176  11.885
43499SOL    HW232272  10.984   7.086  11.987
43500SOL     OW32273  13.367   1.710   0.155
43500SOL    HW132274  13.461   1.709   0.138
43500SOL    HW232275  13.356   1.663   0.237
43501SOL     OW32276  14.221   1.124   6.527
43501SOL    HW132277  14.147   1.142   6.468
43501SOL    HW232278  14.266   1.050   6.486
43502SOL     OW32279  14.425   0.595  12.294
43502SOL    HW132280  14.509   0.550  12.286
43502SOL    HW232281  14.359   0.529  12.270
43503SOL     OW32282  13.931  10.321   9.488
43503SOL    HW132283  13.890  10.403   9.513
43503SOL    HW232284  13.995  10.304   9.558
43504SOL     OW32285   8.038  12.288   4.869
43504SOL    HW132286   8.088  12.224   4.818
43504SOL    HW232287   7.954  12.296   4.822
43505SOL     OW32288  10.388  13.903   0.676
43505SOL    HW132289  10.292  13.900   0.676
43505SOL    HW232290  10.414  13.825   0.725
43506SOL     OW32291   2.462  14.289   6.128
43506SOL    HW132292   2.404  14.318   6.058
43506SOL    HW232293   2.523  14.228   6.086
43507SOL     OW32294   0.538   9.582  11.750
43507SOL    HW132295   0.592   9.613  11.822
43507SOL    HW232296   0.530   9.488  11.765
43508SOL     OW32297   0.501   2.629  14.871
43508SOL    HW132298   0.439   2.649   0.064
43508SOL    HW232299   0.519   2.713  14.830
43509SOL     OW32300   2.847   0.915   7.811
43509SOL    HW132301   2.897   0.835   7.831
43509SOL    HW232302   2.797   0.932   7.890
43510SOL     OW32303   0.613  14.669  12.170
43510SOL    HW132304   0.526  14.708  12.160
43510SOL    HW232305   0.636  14.637  12.082
43511SOL     OW32306   1.365  10.012   0.501
43511SOL    HW132307   1.439   9.985   0.446
43511SOL    HW232308   1.307  10.059   0.442
43512SOL     OW32309   3.402   6.914   2.110
43512SOL    HW132310   3.401   6.819   2.103
43512SOL    HW232311   3.488   6.940   2.078
43513SOL     OW32312   8.755   0.387   5.162
43513SOL    HW132313   8.725   0.470   5.124
43513SOL    HW232314   8.692   0.322   5.132
43514SOL     OW32315   9.424   4.887  12.162
43514SOL    HW132316   9.352   4.826  12.181
43514SOL    HW232317   9.503   4.838  12.183
43515SOL     OW32318   2.216  13.092   4.880
43515SOL    HW132319   2.288  13.130   4.830
43515SOL    HW232320   2.253  13.012   4.917
43516SOL     OW32321  11.442   8.342  13.413
43516SOL    HW132322  11.407   8.306  13.331
43516SOL    HW232323  11.482   8.425  13.388
43517SOL     OW32324   0.257  10.347   2.482
43517SOL    HW132325   0.278  10.371   2.572
43517SOL    HW232326   0.311  10.270   2.464
43518SOL     OW32327   0.425   2.726   8.058
43518SOL    HW132328   0.401   2.697   8.146
43518SOL    HW232329   0.515   2.757   8.067
43519SOL     OW32330   1.299   1.620  14.809
43519SOL    HW132331   1.350   1.556  14.858
43519SOL    HW232332   1.299   1.699  14.863
43520SOL     OW32333  10.859   0.397   0.350
43520SOL    HW132334  10.821   0.396   0.261
43520SOL    HW232335  10.783   0.398   0.408
43521SOL     OW32336   2.907  14.816   0.761
43521SOL    HW132337   2.891  14.835   0.669
43521SOL    HW232338   2.918   0.025   0.801
43522SOL     OW32339   6.402   5.243   5.166
43522SOL    HW132340   6.414   5.238   5.071
43522SOL    HW232341   6.322   5.293   5.178
43523SOL     OW32342   1.042  12.023   8.571
43523SOL    HW132343   1.002  12.047   8.655
43523SOL    HW232344   1.000  12.080   8.507
43524SOL     OW32345   4.070   4.661   7.914
43524SOL    HW132346   4.108   4.746   7.894
43524SOL    HW232347   4.119   4.630   7.991
43525SOL     OW32348  12.412   8.971   1.528
43525SOL    HW132349  12.437   9.048   1.580
43525SOL    HW232350  12.417   8.898   1.590
43526SOL     OW32351  14.476   1.133   4.470
43526SOL    HW132352  14.559   1.087   4.460
43526SOL    HW232353  14.477   1.200   4.401
43527SOL     OW32354  10.774   5.444   1.415
43527SOL    HW132355  10.715   5.519   1.430
43527SOL    HW232356  10.808   5.423   1.502
43528SOL     OW32357   7.665   5.837  14.271
43528SOL    HW132358   7.602   5.901  14.302
43528SOL    HW232359   7.653   5.761  14.329
43529SOL     OW32360  13.926  12.922   1.533
43529SOL    HW132361  13.867  12.933   1.608
43529SOL    HW232362  13.883  12.971   1.463
43530SOL     OW32363   2.068   7.559  13.262
43530SOL    HW132364   2.050   7.619  13.189
43530SOL    HW232365   1.986   7.554  13.310
43531SOL     OW32366   8.520   8.457  11.106
43531SOL    HW132367   8.599   8.408  11.128
43531SOL    HW232368   8.448   8.398  11.126
43532SOL     OW32369  12.563   7.339  11.800
43532SOL    HW132370  12.654   7.313  11.808
43532SOL    HW232371  12.540   7.374  11.887
43533SOL     OW32372   8.668   9.454   0.099
43533SOL    HW132373   8.601   9.517   0.127
43533SOL    HW232374   8.712   9.498   0.026
43534SOL     OW32375  12.786   5.132   1.403
43534SOL    HW132376  12.879   5.156   1.404
43534SOL    HW232377  12.769   5.102   1.314
43535SOL     OW32378   0.322  10.847   5.679
43535SOL    HW132379   0.250  10.877   5.624
43535SOL    HW232380   0.279  10.812   5.757
43536SOL     OW32381   9.815   5.888   4.574
43536SOL    HW132382   9.738   5.938   4.546
43536SOL    HW232383   9.782   5.830   4.643
43537SOL     OW32384  12.711   8.328   7.396
43537SOL    HW132385  12.756   8.312   7.478
43537SOL    HW232386  12.753   8.406   7.360
43538SOL     OW32387   2.075   3.878   9.992
43538SOL    HW132388   2.066   3.817   9.919
43538SOL    HW232389   2.137   3.836  10.051
43539SOL     OW32390   0.200   9.640   9.996
43539SOL    HW132391   0.185   9.694  10.074
43539SOL    HW232392   0.200   9.550  10.030
43540SOL     OW32393  14.201  12.376  10.411
43540SOL    HW132394  14.274  12.314  10.409
43540SOL    HW232395  14.207  12.418  10.497
43541SOL     OW32396  14.168   3.448  10.472
43541SOL    HW132397  14.136   3.396  10.398
43541SOL    HW232398  14.089   3.486  10.510
43542SOL     OW32399  14.044  14.743  14.731
43542SOL    HW132400  14.068  14.659  14.692
43542SOL    HW232401  13.957  14.760  14.697
43543SOL     OW32402   2.440   7.299  14.823
43543SOL    HW132403   2.351   7.266  14.838
43543SOL    HW232404   2.456   7.359   0.018
43544SOL     OW32405   5.243   1.864  13.094
43544SOL    HW132406   5.290   1.937  13.136
43544SOL    HW232407   5.233   1.892  13.003
43545SOL     OW32408   4.272  13.639   1.451
43545SOL    HW132409   4.204  13.641   1.518
43545SOL    HW232410   4.352  13.662   1.496
43546SOL     OW32411   1.338   4.986   2.084
43546SOL    HW132412   1.301   4.947   2.005
43546SOL    HW232413   1.389   4.915   2.124
43547SOL     OW32414  12.126   2.185  10.322
43547SOL    HW132415  12.064   2.253  10.349
43547SOL    HW232416  12.074   2.126  10.268
43548SOL     OW32417   1.320   4.184   4.704
43548SOL    HW132418   1.307   4.256   4.765
43548SOL    HW232419   1.333   4.107   4.760
43549SOL     OW32420   1.818   3.343   4.198
43549SOL    HW132421   1.870   3.267   4.173
43549SOL    HW232422   1.877   3.396   4.252
43550SOL     OW32423   8.924   6.919   4.975
43550SOL    HW132424   8.920   6.881   4.887
43550SOL    HW232425   8.967   6.852   5.027
43551SOL     OW32426   9.566  13.102   7.791
43551SOL    HW132427   9.620  13.028   7.816
43551SOL    HW232428   9.572  13.105   7.695
43552SOL     OW32429  12.044   9.225  10.600
43552SOL    HW132430  12.113   9.180  10.552
43552SOL    HW232431  11.967   9.170  10.588
43553SOL     OW32432   1.570  10.629   9.616
43553SOL    HW132433   1.592  10.609   9.525
43553SOL    HW232434   1.586  10.723   9.624
43554SOL     OW32435   3.226   5.746  13.635
43554SOL    HW132436   3.250   5.838  13.631
43554SOL    HW232437   3.171   5.732  13.557
43555SOL     OW32438  12.723   9.601  10.981
43555SOL    HW132439  12.642   9.565  11.019
43555SOL    HW232440  12.772   9.634  11.056
43556SOL     OW32441   1.020   8.659  11.911
43556SOL    HW132442   0.965   8.730  11.879
43556SOL    HW232443   1.068   8.628  11.834
43557SOL     OW32444   5.027   2.650   5.619
43557SOL    HW132445   4.995   2.738   5.600
43557SOL    HW232446   5.122   2.657   5.611
43558SOL     OW32447   9.007  12.224   6.344
43558SOL    HW132448   9.000  12.312   6.305
43558SOL    HW232449   8.926  12.181   6.318
43559SOL     OW32450  14.087   9.585  11.724
43559SOL    HW132451  14.064   9.610  11.635
43559SOL    HW232452  14.162   9.525  11.714
43560SOL     OW32453  14.801   8.859   3.992
43560SOL    HW132454  14.791   8.768   4.018
43560SOL    HW232455  14.870   8.893   4.049
43561SOL     OW32456   7.457   3.344   8.610
43561SOL    HW132457   7.391   3.349   8.541
43561SOL    HW232458   7.536   3.380   8.570
43562SOL     OW32459   6.189  13.733   0.387
43562SOL    HW132460   6.217  13.824   0.382
43562SOL    HW232461   6.237  13.689   0.317
43563SOL     OW32462   8.295   9.006   0.804
43563SOL    HW132463   8.264   8.916   0.814
43563SOL    HW232464   8.308   9.016   0.709
43564SOL     OW32465  11.711  12.005   7.038
43564SOL    HW132466  11.766  12.080   7.013
43564SOL    HW232467  11.640  12.044   7.089
43565SOL     OW32468  10.564   4.631   9.816
43565SOL    HW132469  10.568   4.726   9.812
43565SOL    HW232470  10.655   4.602   9.816
43566SOL     OW32471   9.140   0.762  12.045
43566SOL    HW132472   9.068   0.818  12.074
43566SOL    HW232473   9.211   0.780  12.106
43567SOL     OW32474   5.246   8.692   9.652
43567SOL    HW132475   5.161   8.648   9.657
43567SOL    HW232476   5.241   8.760   9.719
43568SOL     OW32477   3.694   8.899  13.618
43568SOL    HW132478   3.735   8.889  13.704
43568SOL    HW232479   3.758   8.948  13.567
43569SOL     OW32480   2.003   9.388  12.274
43569SOL    HW132481   1.960   9.382  12.188
43569SOL    HW232482   1.969   9.312  12.322
43570SOL     OW32483   9.729   7.707   7.099
43570SOL    HW132484   9.809   7.746   7.067
43570SOL    HW232485   9.683   7.778   7.143
43571SOL     OW32486   5.192   4.718   9.519
43571SOL    HW132487   5.181   4.651   9.586
43571SOL    HW232488   5.202   4.800   9.568
43572SOL     OW32489  12.152  10.496   7.805
43572SOL    HW132490  12.201  10.467   7.728
43572SOL    HW232491  12.127  10.586   7.785
43573SOL     OW32492   5.124  10.304   6.746
43573SOL    HW132493   5.087  10.346   6.668
43573SOL    HW232494   5.113  10.210   6.729
43574SOL     OW32495   5.825  10.489  12.237
43574SOL    HW132496   5.892  10.536  12.189
43574SOL    HW232497   5.762  10.557  12.262
43575SOL     OW32498   7.892   9.295  13.427
43575SOL    HW132499   7.832   9.364  13.454
43575SOL    HW232500   7.891   9.232  13.499
43576SOL     OW32501   3.588  10.942  11.269
43576SOL    HW132502   3.638  10.997  11.209
43576SOL    HW232503   3.506  10.925  11.223
43577SOL     OW32504  14.398   6.301  12.181
43577SOL    HW132505  14.472   6.258  12.137
43577SOL    HW232506  14.322   6.277  12.128
43578SOL     OW32507   6.521   0.827   8.096
43578SOL    HW132508   6.617   0.834   8.100
43578SOL    HW232509   6.504   0.784   8.013
43579SOL     OW32510   6.795   3.051  13.626
43579SOL    HW132511   6.721   3.024  13.681
43579SOL    HW232512   6.861   2.983  13.642
43580SOL     OW32513   2.846   9.450  10.031
43580SOL    HW132514   2.916   9.501   9.991
43580SOL    HW232515   2.889   9.371  10.064
43581SOL     OW32516   5.289   3.643   3.351
43581SOL    HW132517   5.244   3.692   3.421
43581SOL    HW232518   5.380   3.671   3.358
43582SOL     OW32519   6.316   3.993   3.917
43582SOL    HW132520   6.363   4.012   3.998
43582SOL    HW232521   6.226   4.020   3.934
43583SOL     OW32522   2.492   7.696   8.079
43583SOL    HW132523   2.417   7.638   8.069
43583SOL    HW232524   2.542   7.659   8.151
43584SOL     OW32525   6.876   1.297   7.687
43584SOL    HW132526   6.972   1.299   7.692
43584SOL    HW232527   6.855   1.204   7.678
43585SOL     OW32528  12.655   4.304   4.075
43585SOL    HW132529  12.705   4.363   4.133
43585SOL    HW232530  12.565   4.313   4.105
43586SOL     OW32531   8.666   2.969   3.253
43586SOL    HW132532   8.727   2.988   3.182
43586SOL    HW232533   8.603   3.040   3.250
43587SOL     OW32534   0.698  12.866  11.385
43587SOL    HW132535   0.721  12.855  11.477
43587SOL    HW232536   0.782  12.878  11.341
43588SOL     OW32537   6.173  14.448   0.843
43588SOL    HW132538   6.165  14.363   0.887
43588SOL    HW232539   6.260  14.480   0.868
43589SOL     OW32540   7.956   5.311  12.079
43589SOL    HW132541   7.878   5.273  12.121
43589SOL    HW232542   7.921   5.362  12.006
43590SOL     OW32543  13.683   6.191  11.746
43590SOL    HW132544  13.598   6.219  11.781
43590SOL    HW232545  13.729   6.273  11.728
43591SOL     OW32546  13.105  13.293   3.748
43591SOL    HW132547  13.185  13.246   3.771
43591SOL    HW232548  13.073  13.249   3.669
43592SOL     OW32549  10.746   3.865   1.081
43592SOL    HW132550  10.710   3.846   1.168
43592SOL    HW232551  10.670   3.886   1.027
43593SOL     OW32552   7.048   0.818   1.045
43593SOL    HW132553   7.136   0.781   1.048
43593SOL    HW232554   7.015   0.794   0.958
43594SOL     OW32555   8.175   7.337   0.463
43594SOL    HW132556   8.233   7.267   0.491
43594SOL    HW232557   8.109   7.294   0.408
43595SOL     OW32558  13.748   8.422   3.103
43595SOL    HW132559  13.674   8.412   3.043
43595SOL    HW232560  13.821   8.379   3.058
43596SOL     OW32561  14.202  12.940   7.092
43596SOL    HW132562  14.214  12.943   7.187
43596SOL    HW232563  14.261  12.871   7.063
43597SOL     OW32564  14.031   5.267  13.082
43597SOL    HW132565  13.944   5.306  13.070
43597SOL    HW232566  14.017   5.173  13.073
43598SOL     OW32567   6.827   7.894  10.088
43598SOL    HW132568   6.882   7.817  10.101
43598SOL    HW232569   6.873   7.946  10.023
43599SOL     OW32570  12.614  14.411   3.656
43599SOL    HW132571  12.585  14.498   3.629
43599SOL    HW232572  12.534  14.367   3.685
43600SOL     OW32573  12.118   8.394   0.722
43600SOL    HW132574  12.197   8.441   0.693
43600SOL    HW232575  12.077   8.363   0.641
43601SOL     OW32576   6.050   2.961   9.630
43601SOL    HW132577   6.117   2.999   9.687
43601SOL    HW232578   6.006   2.895   9.685
43602SOL     OW32579  14.449   2.891   2.198
43602SOL    HW132580  14.459   2.983   2.219
43602SOL    HW232581  14.422   2.850   2.280
43603SOL     OW32582   5.398   0.580   9.605
43603SOL    HW132583   5.457   0.527   9.659
43603SOL    HW232584   5.389   0.662   9.654
43604SOL     OW32585   6.722  11.710   3.005
43604SOL    HW132586   6.683  11.778   3.059
43604SOL    HW232587   6.797  11.679   3.056
43605SOL     OW32588   9.848   5.619   6.638
43605SOL    HW132589   9.937   5.644   6.612
43605SOL    HW232590   9.859   5.570   6.719
43606SOL     OW32591   2.979   0.172  14.338
43606SOL    HW132592   2.960   0.263  14.317
43606SOL    HW232593   3.075   0.167  14.338
43607SOL     OW32594   6.179  11.971  11.037
43607SOL    HW132595   6.230  11.896  11.006
43607SOL    HW232596   6.241  12.044  11.035
43608SOL     OW32597   0.533   6.447  10.915
43608SOL    HW132598   0.598   6.516  10.931
43608SOL    HW232599   0.579   6.381  10.864
43609SOL     OW32600  11.442   6.615  13.188
43609SOL    HW132601  11.457   6.521  13.192
43609SOL    HW232602  11.416   6.639  13.277
43610SOL     OW32603   3.159  13.595  10.288
43610SOL    HW132604   3.222  13.608  10.217
43610SOL    HW232605   3.084  13.648  10.263
43611SOL     OW32606   2.926  11.058   6.688
43611SOL    HW132607   2.996  11.100   6.639
43611SOL    HW232608   2.894  11.126   6.748
43612SOL     OW32609  13.147  11.146   7.105
43612SOL    HW132610  13.100  11.223   7.137
43612SOL    HW232611  13.095  11.072   7.133
43613SOL     OW32612  13.718  12.829   1.941
43613SOL    HW132613  13.698  12.789   1.856
43613SOL    HW232614  13.637  12.824   1.990
43614SOL     OW32615   2.243   8.444   3.886
43614SOL    HW132616   2.193   8.372   3.849
43614SOL    HW232617   2.187   8.521   3.875
43615SOL     OW32618   2.644   9.636  10.882
43615SOL    HW132619   2.693   9.565  10.840
43615SOL    HW232620   2.698   9.714  10.869
43616SOL     OW32621   4.317   8.850  11.545
43616SOL    HW132622   4.336   8.759  11.568
43616SOL    HW232623   4.320   8.898  11.627
43617SOL     OW32624  11.594  14.577   4.162
43617SOL    HW132625  11.543  14.649   4.124
43617SOL    HW232626  11.652  14.549   4.092
43618SOL     OW32627  14.034  12.842   0.757
43618SOL    HW132628  13.969  12.867   0.690
43618SOL    HW232629  13.981  12.821   0.834
43619SOL     OW32630   6.332  14.125   4.618
43619SOL    HW132631   6.357  14.093   4.531
43619SOL    HW232632   6.376  14.210   4.625
43620SOL     OW32633   4.257   9.278  12.909
43620SOL    HW132634   4.191   9.214  12.883
43620SOL    HW232635   4.208   9.360  12.920
43621SOL     OW32636   8.224   3.861   0.114
43621SOL    HW132637   8.200   3.911   0.192
43621SOL    HW232638   8.193   3.914   0.041
43622SOL     OW32639   4.458   5.130   8.108
43622SOL    HW132640   4.376   5.142   8.061
43622SOL    HW232641   4.490   5.219   8.126
43623SOL     OW32642   5.644   8.865  10.256
43623SOL    HW132643   5.665   8.772  10.247
43623SOL    HW232644   5.551   8.871  10.234
43624SOL     OW32645   3.906   4.702   9.419
43624SOL    HW132646   3.986   4.709   9.366
43624SOL    HW232647   3.885   4.608   9.418
43625SOL     OW32648  13.926   6.026   3.294
43625SOL    HW132649  13.874   5.972   3.354
43625SOL    HW232650  14.005   5.975   3.277
43626SOL     OW32651  12.064  14.258  10.999
43626SOL    HW132652  12.155  14.233  11.017
43626SOL    HW232653  12.032  14.296  11.081
43627SOL     OW32654  14.409  11.796   2.698
43627SOL    HW132655  14.405  11.795   2.603
43627SOL    HW232656  14.371  11.712   2.725
43628SOL     OW32657  12.241   8.614   8.088
43628SOL    HW132658  12.158   8.646   8.054
43628SOL    HW232659  12.297   8.692   8.092
43629SOL     OW32660   5.920   0.065   6.733
43629SOL    HW132661   5.987   0.061   6.664
43629SOL    HW232662   5.837   0.057   6.686
43630SOL     OW32663  13.270   4.185   4.855
43630SOL    HW132664  13.358   4.220   4.866
43630SOL    HW232665  13.259   4.177   4.760
43631SOL     OW32666   6.579   0.720  12.820
43631SOL    HW132667   6.666   0.679  12.814
43631SOL    HW232668   6.589   0.788  12.887
43632SOL     OW32669   1.930   4.862   1.448
43632SOL    HW132670   1.864   4.917   1.405
43632SOL    HW232671   1.888   4.777   1.455
43633SOL     OW32672   2.755   7.371  13.823
43633SOL    HW132673   2.695   7.417  13.764
43633SOL    HW232674   2.742   7.278  13.804
43634SOL     OW32675   5.613   4.099  12.167
43634SOL    HW132676   5.557   4.062  12.098
43634SOL    HW232677   5.637   4.023  12.221
43635SOL     OW32678   0.636   6.411  10.214
43635SOL    HW132679   0.693   6.486  10.232
43635SOL    HW232680   0.694   6.347  10.172
43636SOL     OW32681   8.148  12.555  13.014
43636SOL    HW132682   8.171  12.589  12.928
43636SOL    HW232683   8.056  12.531  13.006
43637SOL     OW32684   2.831   6.403   0.226
43637SOL    HW132685   2.817   6.490   0.189
43637SOL    HW232686   2.920   6.380   0.199
43638SOL     OW32687   4.022   6.531  13.684
43638SOL    HW132688   4.064   6.605  13.641
43638SOL    HW232689   4.066   6.454  13.648
43639SOL     OW32690   3.323   8.467   4.350
43639SOL    HW132691   3.233   8.497   4.362
43639SOL    HW232692   3.330   8.388   4.404
43640SOL     OW32693  11.700   2.253  13.956
43640SOL    HW132694  11.623   2.227  13.906
43640SOL    HW232695  11.706   2.189  14.027
43641SOL     OW32696   5.295   2.062  12.888
43641SOL    HW132697   5.307   2.088  12.797
43641SOL    HW232698   5.224   2.119  12.920
43642SOL     OW32699   1.289   6.426   7.903
43642SOL    HW132700   1.265   6.335   7.884
43642SOL    HW232701   1.210   6.464   7.942
43643SOL     OW32702   3.580  12.286   9.109
43643SOL    HW132703   3.671  12.286   9.081
43643SOL    HW232704   3.569  12.368   9.157
43644SOL     OW32705   6.312   6.087   0.629
43644SOL    HW132706   6.294   6.166   0.680
43644SOL    HW232707   6.232   6.072   0.579
43645SOL     OW32708  13.911  12.840   3.973
43645SOL    HW132709  13.925  12.747   3.955
43645SOL    HW232710  13.874  12.875   3.892
43646SOL     OW32711  12.645   2.238   0.110
43646SOL    HW132712  12.569   2.221   0.164
43646SOL    HW232713  12.716   2.189   0.151
43647SOL     OW32714   7.394   8.277   8.407
43647SOL    HW132715   7.440   8.310   8.484
43647SOL    HW232716   7.461   8.228   8.359
43648SOL     OW32717  13.572  14.260   4.739
43648SOL    HW132718  13.501  14.324   4.741
43648SOL    HW232719  13.555  14.202   4.814
43649SOL     OW32720   9.412  10.843  11.403
43649SOL    HW132721   9.462  10.896  11.341
43649SOL    HW232722   9.380  10.769  11.351
43650SOL     OW32723   8.047   1.910  11.944
43650SOL    HW132724   7.981   1.935  11.880
43650SOL    HW232725   7.999   1.855  12.007
43651SOL     OW32726   5.983   5.296   4.090
43651SOL    HW132727   5.888   5.312   4.083
43651SOL    HW232728   6.020   5.382   4.111
43652SOL     OW32729  14.422   0.003  11.800
43652SOL    HW132730  14.510   0.027  11.829
43652SOL    HW232731  14.417  14.785  11.814
43653SOL     OW32732   9.757   4.823   1.420
43653SOL    HW132733   9.790   4.766   1.489
43653SOL    HW232734   9.702   4.887   1.466
43654SOL     OW32735   2.075   5.525  11.275
43654SOL    HW132736   2.019   5.475  11.216
43654SOL    HW232737   2.145   5.558  11.220
43655SOL     OW32738   3.902  13.392   6.871
43655SOL    HW132739   3.875  13.308   6.908
43655SOL    HW232740   3.997  13.392   6.879
43656SOL     OW32741   3.298   4.381   3.800
43656SOL    HW132742   3.320   4.403   3.710
43656SOL    HW232743   3.210   4.345   3.796
43657SOL     OW32744   5.857   2.111  13.875
43657SOL    HW132745   5.830   2.200  13.900
43657SOL    HW232746   5.776   2.062  13.870
43658SOL     OW32747  12.342   8.144   9.313
43658SOL    HW132748  12.286   8.178   9.382
43658SOL    HW232749  12.286   8.083   9.265
43659SOL     OW32750   2.590   4.924  13.761
43659SOL    HW132751   2.591   5.019  13.771
43659SOL    HW232752   2.550   4.910  13.675
43660SOL     OW32753   5.564   1.171   4.916
43660SOL    HW132754   5.553   1.262   4.889
43660SOL    HW232755   5.594   1.176   5.007
43661SOL     OW32756  11.482  12.449   1.923
43661SOL    HW132757  11.495  12.360   1.890
43661SOL    HW232758  11.486  12.440   2.018
43662SOL     OW32759   3.434  11.987   4.701
43662SOL    HW132760   3.365  11.928   4.732
43662SOL    HW232761   3.445  12.051   4.771
43663SOL     OW32762   0.207   2.116   1.485
43663SOL    HW132763   0.235   2.025   1.495
43663SOL    HW232764   0.288   2.167   1.495
43664SOL     OW32765   0.867   7.047   8.429
43664SOL    HW132766   0.917   7.002   8.361
43664SOL    HW232767   0.810   6.980   8.466
43665SOL     OW32768   2.382   3.376  14.678
43665SOL    HW132769   2.329   3.376  14.758
43665SOL    HW232770   2.324   3.339  14.611
43666SOL     OW32771  12.978   5.884   7.327
43666SOL    HW132772  13.061   5.925   7.352
43666SOL    HW232773  12.914   5.917   7.391
43667SOL     OW32774  13.185  14.009  14.152
43667SOL    HW132775  13.129  13.939  14.184
43667SOL    HW232776  13.270  13.994  14.194
43668SOL     OW32777   0.492   2.293   0.422
43668SOL    HW132778   0.577   2.261   0.391
43668SOL    HW232779   0.514   2.363   0.484
43669SOL     OW32780  14.847   3.463   8.859
43669SOL    HW132781  14.800   3.459   8.943
43669SOL    HW232782  14.868   3.371   8.840
43670SOL     OW32783  12.656   8.157  12.071
43670SOL    HW132784  12.669   8.110  11.988
43670SOL    HW232785  12.562   8.154  12.085
43671SOL     OW32786  12.518   6.301   2.540
43671SOL    HW132787  12.542   6.293   2.447
43671SOL    HW232788  12.547   6.388   2.565
43672SOL     OW32789   4.698   0.439   5.401
43672SOL    HW132790   4.672   0.474   5.486
43672SOL    HW232791   4.741   0.513   5.357
43673SOL     OW32792   9.403  13.941  10.384
43673SOL    HW132793   9.361  13.892  10.454
43673SOL    HW232794   9.416  14.029  10.420
43674SOL     OW32795   0.969   7.968  14.043
43674SOL    HW132796   0.891   7.981  13.990
43674SOL    HW232797   1.042   7.973  13.981
43675SOL     OW32798  10.737  14.003  13.574
43675SOL    HW132799  10.734  14.024  13.668
43675SOL    HW232800  10.673  14.063  13.535
43676SOL     OW32801   4.496  12.046   9.345
43676SOL    HW132802   4.570  11.986   9.351
43676SOL    HW232803   4.529  12.120   9.294
43677SOL     OW32804   8.654   8.972  12.736
43677SOL    HW132805   8.567   9.011  12.734
43677SOL    HW232806   8.657   8.924  12.818
43678SOL     OW32807   6.114   9.903   9.425
43678SOL    HW132808   6.080   9.990   9.449
43678SOL    HW232809   6.075   9.886   9.339
43679SOL     OW32810   1.545   5.528  13.407
43679SOL    HW132811   1.562   5.613  13.446
43679SOL    HW232812   1.589   5.530  13.322
43680SOL     OW32813   4.129   3.669   2.098
43680SOL    HW132814   4.141   3.755   2.057
43680SOL    HW232815   4.211   3.655   2.147
43681SOL     OW32816   7.674  10.655   1.514
43681SOL    HW132817   7.754  10.700   1.488
43681SOL    HW232818   7.605  10.695   1.460
43682SOL     OW32819  12.958   5.007   8.543
43682SOL    HW132820  13.043   5.035   8.577
43682SOL    HW232821  12.943   4.922   8.584
43683SOL     OW32822  11.265  11.296   4.824
43683SOL    HW132823  11.293  11.223   4.769
43683SOL    HW232824  11.320  11.370   4.795
43684SOL     OW32825   8.969   2.408  10.976
43684SOL    HW132826   8.961   2.415  11.071
43684SOL    HW232827   8.904   2.469  10.942
43685SOL     OW32828  11.587   4.549  10.385
43685SOL    HW132829  11.580   4.643  10.375
43685SOL    HW232830  11.593   4.535  10.480
43686SOL     OW32831   5.799   1.649   6.857
43686SOL    HW132832   5.750   1.590   6.914
43686SOL    HW232833   5.817   1.598   6.778
43687SOL     OW32834   5.597   6.318  11.324
43687SOL    HW132835   5.570   6.271  11.245
43687SOL    HW232836   5.568   6.263  11.396
43688SOL     OW32837   8.001  13.997  13.979
43688SOL    HW132838   7.929  13.937  13.997
43688SOL    HW232839   8.070  13.942  13.942
43689SOL     OW32840   9.686  13.486   8.647
43689SOL    HW132841   9.737  13.547   8.594
43689SOL    HW232842   9.667  13.413   8.589
43690SOL     OW32843   2.829   0.921  10.052
43690SOL    HW132844   2.853   0.850   9.991
43690SOL    HW232845   2.898   0.987  10.039
43691SOL     OW32846   4.193  13.633   4.874
43691SOL    HW132847   4.275  13.619   4.921
43691SOL    HW232848   4.219  13.643   4.782
43692SOL     OW32849   0.347   2.783  14.303
43692SOL    HW132850   0.264   2.805  14.344
43692SOL    HW232851   0.391   2.868  14.290
43693SOL     OW32852   4.239   0.634   1.670
43693SOL    HW132853   4.184   0.693   1.721
43693SOL    HW232854   4.200   0.635   1.582
43694SOL     OW32855   7.320  13.602   2.934
43694SOL    HW132856   7.274  13.686   2.935
43694SOL    HW232857   7.412  13.625   2.921
43695SOL     OW32858  11.875  14.661   9.463
43695SOL    HW132859  11.835  14.645   9.377
43695SOL    HW232860  11.827  14.736   9.498
43696SOL     OW32861   2.253  12.520   6.984
43696SOL    HW132862   2.243  12.590   7.048
43696SOL    HW232863   2.229  12.440   7.031
43697SOL     OW32864  11.104  14.287  14.281
43697SOL    HW132865  11.012  14.300  14.305
43697SOL    HW232866  11.132  14.211  14.333
43698SOL     OW32867  13.175   8.797   6.456
43698SOL    HW132868  13.099   8.840   6.496
43698SOL    HW232869  13.237   8.787   6.529
43699SOL     OW32870   2.722   3.219   5.748
43699SOL    HW132871   2.720   3.130   5.714
43699SOL    HW232872   2.807   3.253   5.720
43700SOL     OW32873   4.451   0.987   9.777
43700SOL    HW132874   4.399   0.907   9.784
43700SOL    HW232875   4.461   1.002   9.683
43701SOL     OW32876   5.109   3.836   5.532
43701SOL    HW132877   5.175   3.877   5.588
43701SOL    HW232878   5.159   3.783   5.470
43702SOL     OW32879   8.006   7.787   0.015
43702SOL    HW132880   7.988   7.881   0.016
43702SOL    HW232881   8.091   7.778  14.851
43703SOL     OW32882  13.224   7.842   3.588
43703SOL    HW132883  13.231   7.930   3.623
43703SOL    HW232884  13.224   7.785   3.665
43704SOL     OW32885   5.654  13.748   0.447
43704SOL    HW132886   5.570  13.746   0.493
43704SOL    HW232887   5.719  13.752   0.517
43705SOL     OW32888   6.748  12.558   3.248
43705SOL    HW132889   6.691  12.484   3.229
43705SOL    HW232890   6.829  12.519   3.280
43706SOL     OW32891   4.732   0.223  14.864
43706SOL    HW132892   4.743   0.318  14.868
43706SOL    HW232893   4.806   0.192  14.813
43707SOL     OW32894   3.462   2.368  13.101
43707SOL    HW132895   3.395   2.391  13.037
43707SOL    HW232896   3.438   2.280  13.130
43708SOL     OW32897  11.960   1.052  14.675
43708SOL    HW132898  12.041   1.019  14.636
43708SOL    HW232899  11.988   1.090  14.758
43709SOL     OW32900   7.459  12.067   7.240
43709SOL    HW132901   7.419  12.127   7.178
43709SOL    HW232902   7.399  11.993   7.246
43710SOL     OW32903   9.101   9.620  11.704
43710SOL    HW132904   9.114   9.536  11.660
43710SOL    HW232905   9.189   9.650  11.726
43711SOL     OW32906  14.267   5.331   5.511
43711SOL    HW132907  14.340   5.302   5.456
43711SOL    HW232908  14.215   5.252   5.525
43712SOL     OW32909   1.065   5.443  14.516
43712SOL    HW132910   1.065   5.420  14.423
43712SOL    HW232911   0.993   5.392  14.553
43713SOL     OW32912   5.263   4.009   0.089
43713SOL    HW132913   5.221   3.923   0.085
43713SOL    HW232914   5.260   4.033   0.181
43714SOL     OW32915  11.890   5.709   5.993
43714SOL    HW132916  11.926   5.660   6.068
43714SOL    HW232917  11.796   5.708   6.007
43715SOL     OW32918  11.073   3.421   2.945
43715SOL    HW132919  11.080   3.489   2.879
43715SOL    HW232920  11.106   3.462   3.025
43716SOL     OW32921   8.392   4.414   9.367
43716SOL    HW132922   8.375   4.489   9.423
43716SOL    HW232923   8.319   4.411   9.306
43717SOL     OW32924   1.672   0.576  13.961
43717SOL    HW132925   1.693   0.629  14.038
43717SOL    HW232926   1.728   0.610  13.892
43718SOL     OW32927   0.953  14.640  14.540
43718SOL    HW132928   1.027  14.645  14.478
43718SOL    HW232929   0.908  14.723  14.530
43719SOL     OW32930  14.425   9.617   7.916
43719SOL    HW132931  14.402   9.675   7.845
43719SOL    HW232932  14.480   9.670   7.975
43720SOL     OW32933   4.652  10.745   9.773
43720SOL    HW132934   4.698  10.757   9.856
43720SOL    HW232935   4.614  10.657   9.779
43721SOL     OW32936   6.230   5.766  14.790
43721SOL    HW132937   6.180   5.847  14.800
43721SOL    HW232938   6.273   5.754  14.875
43722SOL     OW32939  11.055   3.187  11.327
43722SOL    HW132940  11.042   3.270  11.282
43722SOL    HW232941  11.023   3.121  11.267
43723SOL     OW32942  11.247   4.137  12.868
43723SOL    HW132943  11.206   4.051  12.876
43723SOL    HW232944  11.341   4.119  12.860
43724SOL     OW32945   6.012  11.546  11.883
43724SOL    HW132946   6.028  11.595  11.964
43724SOL    HW232947   5.952  11.602  11.833
43725SOL     OW32948  11.834   8.883   4.640
43725SOL    HW132949  11.877   8.903   4.723
43725SOL    HW232950  11.811   8.969   4.604
43726SOL     OW32951   5.385  14.300  10.368
43726SOL    HW132952   5.398  14.324  10.460
43726SOL    HW232953   5.329  14.369  10.333
43727SOL     OW32954  13.421   3.252   0.995
43727SOL    HW132955  13.396   3.203   0.917
43727SOL    HW232956  13.513   3.276   0.980
43728SOL     OW32957   0.636  14.842   2.602
43728SOL    HW132958   0.664   0.035   2.544
43728SOL    HW232959   0.614   0.009   2.684
43729SOL     OW32960   7.924   5.178   1.416
43729SOL    HW132961   7.968   5.260   1.438
43729SOL    HW232962   7.848   5.175   1.474
43730SOL     OW32963  14.817   8.164   0.164
43730SOL    HW132964   0.004   8.099   0.192
43730SOL    HW232965  14.857   8.206   0.088
43731SOL     OW32966   4.016   2.008   7.700
43731SOL    HW132967   4.001   2.094   7.739
43731SOL    HW232968   4.001   2.021   7.606
43732SOL     OW32969  13.471   9.698   8.845
43732SOL    HW132970  13.425   9.644   8.910
43732SOL    HW232971  13.453   9.788   8.874
43733SOL     OW32972  11.669   7.415   1.759
43733SOL    HW132973  11.655   7.347   1.693
43733SOL    HW232974  11.754   7.394   1.797
43734SOL     OW32975  14.026  10.784   7.040
43734SOL    HW132976  14.015  10.879   7.031
43734SOL    HW232977  13.968  10.760   7.113
43735SOL     OW32978  12.596   5.465  10.618
43735SOL    HW132979  12.656   5.537  10.640
43735SOL    HW232980  12.534   5.462  10.691
43736SOL     OW32981   2.506  10.379   7.683
43736SOL    HW132982   2.542  10.294   7.657
43736SOL    HW232983   2.546  10.396   7.768
43737SOL     OW32984  13.991   4.765   2.140
43737SOL    HW132985  13.948   4.688   2.178
43737SOL    HW232986  13.933   4.838   2.160
43738SOL     OW32987   8.208   4.836  12.662
43738SOL    HW132988   8.276   4.820  12.727
43738SOL    HW232989   8.253   4.832  12.578
43739SOL     OW32990   8.485   7.470  14.140
43739SOL    HW132991   8.402   7.424  14.127
43739SOL    HW232992   8.501   7.466  14.234
43740SOL     OW32993   6.594  13.407   7.968
43740SOL    HW132994   6.573  13.321   8.004
43740SOL    HW232995   6.557  13.405   7.879
43741SOL     OW32996   3.397   6.186   9.008
43741SOL    HW132997   3.334   6.143   9.065
43741SOL    HW232998   3.388   6.279   9.028
43742SOL     OW32999  13.993  11.119  10.640
43742SOL    HW133000  14.018  11.027  10.646
43742SOL    HW233001  14.075  11.167  10.648
43743SOL     OW33002   2.505   0.217   6.390
43743SOL    HW133003   2.427   0.167   6.415
43743SOL    HW233004   2.547   0.164   6.323
43744SOL     OW33005   6.376   3.257   8.426
43744SOL    HW133006   6.291   3.241   8.386
43744SOL    HW233007   6.408   3.170   8.450
43745SOL     OW33008  10.660   7.489  10.007
43745SOL    HW133009  10.727   7.556   9.998
43745SOL    HW233010  10.654   7.449   9.920
43746SOL     OW33011   8.349   1.871   9.831
43746SOL    HW133012   8.398   1.801   9.788
43746SOL    HW233013   8.294   1.827   9.895
43747SOL     OW33014   9.567  11.318  14.337
43747SOL    HW133015   9.491  11.267  14.363
43747SOL    HW233016   9.619  11.258  14.283
43748SOL     OW33017   3.676   3.954   0.910
43748SOL    HW133018   3.705   4.045   0.918
43748SOL    HW233019   3.719   3.909   0.983
43749SOL     OW33020  13.616  10.689   4.810
43749SOL    HW133021  13.543  10.740   4.773
43749SOL    HW233022  13.677  10.755   4.843
43750SOL     OW33023  13.005   1.452  11.587
43750SOL    HW133024  12.928   1.502  11.614
43750SOL    HW233025  13.079   1.502  11.621
43751SOL     OW33026  14.171   3.099   2.976
43751SOL    HW133027  14.165   3.005   2.960
43751SOL    HW233028  14.199   3.106   3.067
43752SOL     OW33029  11.659   0.955   7.845
43752SOL    HW133030  11.640   1.019   7.777
43752SOL    HW233031  11.734   0.992   7.892
43753SOL     OW33032   4.093   4.506   1.053
43753SOL    HW133033   4.163   4.547   1.104
43753SOL    HW233034   4.069   4.571   0.987
43754SOL     OW33035   8.048  10.425  14.628
43754SOL    HW133036   8.133  10.467  14.613
43754SOL    HW233037   8.039  10.362  14.557
43755SOL     OW33038   2.588  10.565   9.726
43755SOL    HW133039   2.556  10.476   9.706
43755SOL    HW233040   2.509  10.613   9.751
43756SOL     OW33041   3.676   9.472   1.897
43756SOL    HW133042   3.603   9.532   1.881
43756SOL    HW233043   3.696   9.436   1.810
43757SOL     OW33044   5.444  13.858   3.843
43757SOL    HW133045   5.477  13.787   3.897
43757SOL    HW233046   5.467  13.833   3.753
43758SOL     OW33047   8.412   8.096   5.531
43758SOL    HW133048   8.326   8.130   5.507
43758SOL    HW233049   8.419   8.013   5.484
43759SOL     OW33050   4.730   7.163   8.664
43759SOL    HW133051   4.775   7.235   8.708
43759SOL    HW233052   4.667   7.207   8.606
43760SOL     OW33053   2.872  12.041  12.260
43760SOL    HW133054   2.878  11.962  12.314
43760SOL    HW233055   2.796  12.088  12.296
43761SOL     OW33056  10.051   6.099  10.758
43761SOL    HW133057  10.133   6.144  10.736
43761SOL    HW233058  10.062   6.075  10.850
43762SOL     OW33059  13.487  11.247  14.413
43762SOL    HW133060  13.395  11.222  14.421
43762SOL    HW233061  13.513  11.271  14.502
43763SOL     OW33062  11.666  14.207   6.443
43763SOL    HW133063  11.607  14.138   6.476
43763SOL    HW233064  11.620  14.243   6.368
43764SOL     OW33065   6.353  14.480  14.809
43764SOL    HW133066   6.374  14.437  14.726
43764SOL    HW233067   6.344  14.572  14.787
43765SOL     OW33068  13.192  14.192   4.934
43765SOL    HW133069  13.235  14.213   5.017
43765SOL    HW233070  13.141  14.271   4.913
43766SOL     OW33071  10.887  12.157   8.814
43766SOL    HW133072  10.932  12.174   8.732
43766SOL    HW233073  10.880  12.061   8.818
43767SOL     OW33074   5.646   1.158   2.443
43767SOL    HW133075   5.735   1.174   2.410
43767SOL    HW233076   5.609   1.095   2.381
43768SOL     OW33077  14.767   4.600   0.651
43768SOL    HW133078  14.687   4.595   0.600
43768SOL    HW233079  14.822   4.663   0.604
43769SOL     OW33080  10.750   7.085   6.390
43769SOL    HW133081  10.724   7.052   6.304
43769SOL    HW233082  10.668   7.092   6.439
43770SOL     OW33083  11.548  13.672   6.373
43770SOL    HW133084  11.513  13.585   6.353
43770SOL    HW233085  11.563  13.671   6.467
43771SOL     OW33086  10.041   1.839   2.690
43771SOL    HW133087  10.070   1.865   2.777
43771SOL    HW233088  10.120   1.845   2.635
43772SOL     OW33089   0.130  13.747   8.714
43772SOL    HW133090   0.084  13.674   8.671
43772SOL    HW233091   0.130  13.724   8.807
43773SOL     OW33092   9.378  11.971   4.339
43773SOL    HW133093   9.448  11.953   4.276
43773SOL    HW233094   9.424  11.995   4.420
43774SOL     OW33095   0.116   8.899  13.893
43774SOL    HW133096   0.045   8.842  13.865
43774SOL    HW233097   0.193   8.842  13.894
43775SOL     OW33098   5.049  11.017   5.942
43775SOL    HW133099   4.968  10.966   5.938
43775SOL    HW233100   5.101  10.973   6.010
43776SOL     OW33101   4.382   7.858  10.942
43776SOL    HW133102   4.300   7.889  10.983
43776SOL    HW233103   4.427   7.811  11.012
43777SOL     OW33104  12.415  14.205   4.808
43777SOL    HW133105  12.434  14.297   4.829
43777SOL    HW233106  12.498  14.160   4.819
43778SOL     OW33107  12.084   2.707  12.440
43778SOL    HW133108  12.123   2.620  12.437
43778SOL    HW233109  12.067   2.728  12.348
43779SOL     OW33110  12.866   0.508   4.114
43779SOL    HW133111  12.902   0.463   4.190
43779SOL    HW233112  12.880   0.601   4.132
43780SOL     OW33113   5.391   4.218   1.982
43780SOL    HW133114   5.460   4.221   2.049
43780SOL    HW233115   5.396   4.302   1.938
43781SOL     OW33116  12.799  10.883  11.313
43781SOL    HW133117  12.820  10.834  11.393
43781SOL    HW233118  12.836  10.970  11.328
43782SOL     OW33119  11.233  10.422   9.386
43782SOL    HW133120  11.257  10.372   9.465
43782SOL    HW233121  11.236  10.514   9.414
43783SOL     OW33122   4.946   8.056   0.554
43783SOL    HW133123   5.029   8.014   0.574
43783SOL    HW233124   4.885   8.023   0.620
43784SOL     OW33125   5.929   0.177  13.874
43784SOL    HW133126   5.949   0.101  13.819
43784SOL    HW233127   6.011   0.198  13.918
43785SOL     OW33128   5.972  10.472   5.804
43785SOL    HW133129   5.968  10.401   5.740
43785SOL    HW233130   6.037  10.533   5.768
43786SOL     OW33131   5.415   6.061   4.523
43786SOL    HW133132   5.430   6.042   4.430
43786SOL    HW233133   5.479   6.129   4.544
43787SOL     OW33134   8.613   3.543   9.552
43787SOL    HW133135   8.518   3.539   9.539
43787SOL    HW233136   8.634   3.637   9.548
43788SOL     OW33137   9.574  13.561   5.487
43788SOL    HW133138   9.559  13.509   5.566
43788SOL    HW233139   9.640  13.625   5.513
43789SOL     OW33140  13.375  10.011   2.336
43789SOL    HW133141  13.381  10.067   2.259
43789SOL    HW233142  13.378   9.922   2.301
43790SOL     OW33143  10.966   6.639   2.425
43790SOL    HW133144  10.898   6.640   2.493
43790SOL    HW233145  10.996   6.729   2.420
43791SOL     OW33146   6.282  14.627  10.429
43791SOL    HW133147   6.306  14.543  10.391
43791SOL    HW233148   6.332  14.692  10.379
43792SOL     OW33149  14.502  13.289   2.060
43792SOL    HW133150  14.472  13.349   2.128
43792SOL    HW233151  14.479  13.333   1.978
43793SOL     OW33152   8.104   9.207   7.440
43793SOL    HW133153   8.144   9.156   7.510
43793SOL    HW233154   8.013   9.219   7.469
43794SOL     OW33155   1.353  10.309   2.729
43794SOL    HW133156   1.436  10.320   2.776
43794SOL    HW233157   1.287  10.306   2.798
43795SOL     OW33158  11.475   8.195   0.225
43795SOL    HW133159  11.466   8.271   0.168
43795SOL    HW233160  11.503   8.232   0.309
43796SOL     OW33161  12.096   1.446   7.440
43796SOL    HW133162  12.017   1.393   7.432
43796SOL    HW233163  12.121   1.439   7.532
43797SOL     OW33164  11.315   6.365  10.902
43797SOL    HW133165  11.250   6.326  10.842
43797SOL    HW233166  11.309   6.311  10.981
43798SOL     OW33167  14.817   8.619   3.245
43798SOL    HW133168  14.722   8.621   3.259
43798SOL    HW233169  14.849   8.555   3.309
43799SOL     OW33170  13.651   1.587   0.154
43799SOL    HW133171  13.618   1.512   0.204
43799SOL    HW233172  13.732   1.611   0.199
43800SOL     OW33173   7.895  12.226  10.859
43800SOL    HW133174   7.890  12.236  10.764
43800SOL    HW233175   7.980  12.185  10.875
43801SOL     OW33176  10.298   9.460   5.551
43801SOL    HW133177  10.341   9.403   5.486
43801SOL    HW233178  10.370   9.488   5.608
43802SOL     OW33179  11.714   8.314   6.016
43802SOL    HW133180  11.784   8.249   6.013
43802SOL    HW233181  11.679   8.308   6.105
43803SOL     OW33182  12.922   6.696   0.502
43803SOL    HW133183  12.827   6.698   0.516
43803SOL    HW233184  12.938   6.612   0.459
43804SOL     OW33185  13.480  13.337  11.235
43804SOL    HW133186  13.406  13.280  11.251
43804SOL    HW233187  13.557  13.283  11.253
43805SOL     OW33188  13.660   5.657   9.430
43805SOL    HW133189  13.571   5.640   9.462
43805SOL    HW233190  13.647   5.706   9.349
43806SOL     OW33191   5.971   6.032   2.251
43806SOL    HW133192   6.020   6.042   2.333
43806SOL    HW233193   5.999   5.947   2.217
43807SOL     OW33194   6.438   3.036   7.119
43807SOL    HW133195   6.420   2.947   7.148
43807SOL    HW233196   6.370   3.056   7.055
43808SOL     OW33197   4.183   2.794   1.166
43808SOL    HW133198   4.271   2.778   1.131
43808SOL    HW233199   4.151   2.869   1.117
43809SOL     OW33200   6.720   4.315  10.568
43809SOL    HW133201   6.719   4.322  10.664
43809SOL    HW233202   6.749   4.401  10.538
43810SOL     OW33203   1.118   7.711   5.189
43810SOL    HW133204   1.207   7.710   5.223
43810SOL    HW233205   1.128   7.724   5.095
43811SOL     OW33206  12.773   1.641  13.073
43811SOL    HW133207  12.707   1.582  13.108
43811SOL    HW233208  12.730   1.727  13.073
43812SOL     OW33209   1.247   6.350   8.322
43812SOL    HW133210   1.227   6.434   8.362
43812SOL    HW233211   1.169   6.326   8.273
43813SOL     OW33212  11.142  12.218  12.528
43813SOL    HW133213  11.151  12.254  12.616
43813SOL    HW233214  11.187  12.133  12.532
43814SOL     OW33215  11.754   9.668   6.770
43814SOL    HW133216  11.726   9.724   6.698
43814SOL    HW233217  11.720   9.712   6.848
43815SOL     OW33218   6.156   3.411   0.467
43815SOL    HW133219   6.139   3.320   0.440
43815SOL    HW233220   6.197   3.451   0.391
43816SOL     OW33221  10.386   0.157   8.678
43816SOL    HW133222  10.397   0.179   8.771
43816SOL    HW233223  10.306   0.105   8.675
43817SOL     OW33224   9.509   7.894  10.936
43817SOL    HW133225   9.583   7.881  10.995
43817SOL    HW233226   9.541   7.955  10.870
43818SOL     OW33227  10.834  10.696   4.701
43818SOL    HW133228  10.801  10.749   4.628
43818SOL    HW233229  10.924  10.675   4.676
43819SOL     OW33230   4.961  11.688  14.740
43819SOL    HW133231   4.956  11.593  14.747
43819SOL    HW233232   5.029  11.714  14.802
43820SOL     OW33233   0.016  12.703   2.486
43820SOL    HW133234   0.105  12.710   2.520
43820SOL    HW233235   0.013  12.766   2.414
43821SOL     OW33236  12.774  13.462   4.231
43821SOL    HW133237  12.849  13.446   4.174
43821SOL    HW233238  12.710  13.506   4.174
43822SOL     OW33239   1.135   6.086   0.604
43822SOL    HW133240   1.096   6.009   0.645
43822SOL    HW233241   1.176   6.054   0.524
43823SOL     OW33242   9.955   0.197  10.074
43823SOL    HW133243   9.881   0.254  10.096
43823SOL    HW233244  10.015   0.254  10.025
43824SOL     OW33245   1.059   2.688  13.001
43824SOL    HW133246   1.138   2.731  12.967
43824SOL    HW233247   1.013   2.756  13.049
43825SOL     OW33248   0.609   9.596   0.146
43825SOL    HW133249   0.572   9.684   0.144
43825SOL    HW233250   0.641   9.585   0.235
43826SOL     OW33251   3.089  11.584   9.596
43826SOL    HW133252   3.033  11.604   9.671
43826SOL    HW233253   3.156  11.525   9.631
43827SOL     OW33254  14.506  12.834  14.855
43827SOL    HW133255  14.536  12.889  14.783
43827SOL    HW233256  14.453  12.893   0.032
43828SOL     OW33257   3.578   1.527   5.758
43828SOL    HW133258   3.557   1.596   5.821
43828SOL    HW233259   3.627   1.462   5.809
43829SOL     OW33260   7.675   8.740   2.937
43829SOL    HW133261   7.764   8.772   2.948
43829SOL    HW233262   7.620   8.816   2.956
43830SOL     OW33263  13.662   9.428   6.254
43830SOL    HW133264  13.742   9.458   6.211
43830SOL    HW233265  13.641   9.345   6.212
43831SOL     OW33266   6.050   3.500   4.565
43831SOL    HW133267   5.964   3.509   4.524
43831SOL    HW233268   6.088   3.421   4.526
43832SOL     OW33269   9.828   4.974  10.985
43832SOL    HW133270   9.822   5.045  10.921
43832SOL    HW233271   9.896   5.002  11.046
43833SOL     OW33272   9.889   9.543   2.125
43833SOL    HW133273   9.861   9.514   2.211
43833SOL    HW233274   9.910   9.636   2.136
43834SOL     OW33275   8.399  13.335   0.230
43834SOL    HW133276   8.427  13.392   0.302
43834SOL    HW233277   8.440  13.251   0.249
43835SOL     OW33278   5.094  10.286  11.704
43835SOL    HW133279   5.062  10.273  11.614
43835SOL    HW233280   5.156  10.215  11.718
43836SOL     OW33281   6.165   1.564   8.574
43836SOL    HW133282   6.198   1.474   8.575
43836SOL    HW233283   6.072   1.555   8.594
43837SOL     OW33284   2.955   5.557  11.044
43837SOL    HW133285   2.960   5.547  10.949
43837SOL    HW233286   2.870   5.520  11.068
43838SOL     OW33287  13.555   1.939   5.853
43838SOL    HW133288  13.600   1.975   5.776
43838SOL    HW233289  13.515   1.858   5.821
43839SOL     OW33290   9.616   2.417   3.617
43839SOL    HW133291   9.670   2.340   3.636
43839SOL    HW233292   9.638   2.440   3.526
43840SOL     OW33293   9.839   3.607   7.732
43840SOL    HW133294   9.764   3.583   7.786
43840SOL    HW233295   9.874   3.523   7.701
43841SOL     OW33296  12.965  14.554   0.100
43841SOL    HW133297  12.992  14.489   0.035
43841SOL    HW233298  13.028  14.625   0.090
43842SOL     OW33299   4.734   2.426   6.370
43842SOL    HW133300   4.821   2.430   6.409
43842SOL    HW233301   4.676   2.463   6.436
43843SOL     OW33302   0.736   5.932   1.905
43843SOL    HW133303   0.702   5.958   1.819
43843SOL    HW233304   0.828   5.912   1.889
43844SOL     OW33305   3.926   5.024  10.109
43844SOL    HW133306   3.981   5.028  10.187
43844SOL    HW233307   3.884   4.938  10.113
43845SOL     OW33308   5.966   3.661  12.641
43845SOL    HW133309   6.059   3.675  12.623
43845SOL    HW233310   5.960   3.660  12.737
43846SOL     OW33311   4.311  14.424   4.561
43846SOL    HW133312   4.251  14.432   4.487
43846SOL    HW233313   4.260  14.453   4.637
43847SOL     OW33314   6.935   2.022   4.609
43847SOL    HW133315   6.894   1.960   4.669
43847SOL    HW233316   6.932   2.106   4.654
43848SOL     OW33317  14.635  13.494   5.167
43848SOL    HW133318  14.721  13.482   5.126
43848SOL    HW233319  14.593  13.408   5.159
43849SOL     OW33320   1.608  10.150  10.979
43849SOL    HW133321   1.582  10.128  10.889
43849SOL    HW233322   1.598  10.068  11.027
43850SOL     OW33323   6.685   6.310   4.037
43850SOL    HW133324   6.624   6.361   4.089
43850SOL    HW233325   6.771   6.330   4.074
43851SOL     OW33326   1.058   4.834  13.786
43851SOL    HW133327   1.117   4.909  13.791
43851SOL    HW233328   1.026   4.834  13.695
43852SOL     OW33329   8.135   8.091  13.079
43852SOL    HW133330   8.081   8.170  13.084
43852SOL    HW233331   8.205   8.106  13.143
43853SOL     OW33332  11.159   2.491   3.576
43853SOL    HW133333  11.080   2.459   3.533
43853SOL    HW233334  11.130   2.523   3.661
43854SOL     OW33335   5.246  14.120  13.392
43854SOL    HW133336   5.249  14.204  13.438
43854SOL    HW233337   5.332  14.111  13.352
43855SOL     OW33338   6.357   2.616  12.871
43855SOL    HW133339   6.300   2.693  12.878
43855SOL    HW233340   6.443   2.652  12.848
43856SOL     OW33341   8.483  10.260   9.170
43856SOL    HW133342   8.484  10.206   9.249
43856SOL    HW233343   8.540  10.334   9.191
43857SOL     OW33344   5.057   0.669  12.423
43857SOL    HW133345   5.133   0.685  12.367
43857SOL    HW233346   5.093   0.631  12.503
43858SOL     OW33347   0.581   6.675   1.694
43858SOL    HW133348   0.622   6.593   1.722
43858SOL    HW233349   0.580   6.670   1.598
43859SOL     OW33350  13.362   9.784   0.005
43859SOL    HW133351  13.327   9.800   0.093
43859SOL    HW233352  13.452   9.816   0.010
43860SOL     OW33353   8.187   1.822   1.992
43860SOL    HW133354   8.168   1.737   2.033
43860SOL    HW233355   8.278   1.815   1.964
43861SOL     OW33356   9.438  12.150   9.879
43861SOL    HW133357   9.360  12.205   9.873
43861SOL    HW233358   9.443  12.125   9.971
43862SOL     OW33359   9.687   8.685   3.598
43862SOL    HW133360   9.661   8.596   3.620
43862SOL    HW233361   9.713   8.681   3.507
43863SOL     OW33362   6.177   6.167   6.662
43863SOL    HW133363   6.225   6.167   6.745
43863SOL    HW233364   6.095   6.211   6.683
43864SOL     OW33365   0.462   0.548   2.250
43864SOL    HW133366   0.446   0.482   2.317
43864SOL    HW233367   0.517   0.613   2.293
43865SOL     OW33368   0.984   8.604  14.451
43865SOL    HW133369   1.063   8.565  14.488
43865SOL    HW233370   0.992   8.588  14.357
43866SOL     OW33371   3.594   1.169   6.099
43866SOL    HW133372   3.640   1.177   6.183
43866SOL    HW233373   3.517   1.225   6.108
43867SOL     OW33374   8.293   6.170   6.676
43867SOL    HW133375   8.242   6.247   6.698
43867SOL    HW233376   8.231   6.097   6.687
43868SOL     OW33377   9.314  11.629   0.051
43868SOL    HW133378   9.233  11.617   0.101
43868SOL    HW233379   9.294  11.702  14.869
43869SOL     OW33380   3.756   8.358   1.434
43869SOL    HW133381   3.695   8.346   1.360
43869SOL    HW233382   3.838   8.385   1.393
43870SOL     OW33383   1.122   4.185  10.127
43870SOL    HW133384   1.112   4.095  10.159
43870SOL    HW233385   1.173   4.176  10.047
43871SOL     OW33386   0.034  12.503   6.393
43871SOL    HW133387  14.866  12.434   6.442
43871SOL    HW233388   0.030  12.580   6.450
43872SOL     OW33389   1.005  13.487   0.704
43872SOL    HW133390   0.911  13.491   0.724
43872SOL    HW233391   1.020  13.561   0.645
43873SOL     OW33392  13.336  13.491  14.764
43873SOL    HW133393  13.430  13.512  14.766
43873SOL    HW233394  13.303  13.537  14.687
43874SOL     OW33395   1.261   6.299  14.804
43874SOL    HW133396   1.348   6.265  14.783
43874SOL    HW233397   1.202   6.225  14.788
43875SOL     OW33398   1.612   0.816   7.559
43875SOL    HW133399   1.558   0.844   7.485
43875SOL    HW233400   1.559   0.751   7.605
43876SOL     OW33401   4.823   7.572  10.621
43876SOL    HW133402   4.866   7.487  10.627
43876SOL    HW233403   4.805   7.597  10.711
43877SOL     OW33404   5.585  11.755   6.168
43877SOL    HW133405   5.576  11.834   6.114
43877SOL    HW233406   5.637  11.783   6.243
43878SOL     OW33407   4.301   8.830   7.245
43878SOL    HW133408   4.269   8.857   7.159
43878SOL    HW233409   4.221   8.809   7.294
43879SOL     OW33410   7.064  10.091  11.761
43879SOL    HW133411   7.076  10.102  11.666
43879SOL    HW233412   7.011  10.012  11.769
43880SOL     OW33413   5.234   9.612   2.971
43880SOL    HW133414   5.308   9.658   3.011
43880SOL    HW233415   5.232   9.527   3.016
43881SOL     OW33416  14.060   9.581   5.477
43881SOL    HW133417  14.105   9.625   5.549
43881SOL    HW233418  14.085   9.630   5.398
43882SOL     OW33419   6.556   0.149   8.188
43882SOL    HW133420   6.636   0.177   8.144
43882SOL    HW233421   6.575   0.060   8.219
43883SOL     OW33422   0.073  12.152   7.717
43883SOL    HW133423  14.869  12.198   7.735
43883SOL    HW233424   0.122  12.211   7.658
43884SOL     OW33425   3.559   9.130  14.501
43884SOL    HW133426   3.646   9.162  14.524
43884SOL    HW233427   3.501   9.170  14.566
43885SOL     OW33428   2.435   1.697   3.890
43885SOL    HW133429   2.363   1.759   3.879
43885SOL    HW233430   2.514   1.748   3.875
43886SOL     OW33431   7.754   8.206   9.822
43886SOL    HW133432   7.712   8.174   9.902
43886SOL    HW233433   7.837   8.243   9.852
43887SOL     OW33434   8.333  14.837   6.573
43887SOL    HW133435   8.366  14.828   6.662
43887SOL    HW233436   8.377  14.769   6.524
43888SOL     OW33437   0.361   3.283   4.861
43888SOL    HW133438   0.387   3.191   4.850
43888SOL    HW233439   0.395   3.327   4.784
43889SOL     OW33440  11.132   3.892   7.505
43889SOL    HW133441  11.111   3.929   7.591
43889SOL    HW233442  11.131   3.797   7.519
43890SOL     OW33443   0.768  14.298   5.746
43890SOL    HW133444   0.863  14.290   5.750
43890SOL    HW233445   0.737  14.207   5.749
43891SOL     OW33446   5.843   0.366   5.598
43891SOL    HW133447   5.858   0.414   5.679
43891SOL    HW233448   5.926   0.319   5.582
43892SOL     OW33449  10.994   7.406   9.796
43892SOL    HW133450  11.048   7.481   9.770
43892SOL    HW233451  10.957   7.374   9.714
43893SOL     OW33452   8.499   3.668  13.685
43893SOL    HW133453   8.590   3.652  13.663
43893SOL    HW233454   8.468   3.585  13.720
43894SOL     OW33455   3.348   3.762   4.698
43894SOL    HW133456   3.287   3.803   4.636
43894SOL    HW233457   3.299   3.758   4.780
43895SOL     OW33458   4.738   7.798  12.710
43895SOL    HW133459   4.750   7.790  12.804
43895SOL    HW233460   4.816   7.845  12.680
43896SOL     OW33461  12.958  12.955   3.987
43896SOL    HW133462  12.909  12.873   3.986
43896SOL    HW233463  12.985  12.968   3.896
43897SOL     OW33464   7.043   9.353   6.105
43897SOL    HW133465   7.015   9.437   6.070
43897SOL    HW233466   6.979   9.332   6.173
43898SOL     OW33467  13.300  12.588   2.120
43898SOL    HW133468  13.284  12.520   2.055
43898SOL    HW233469  13.219  12.639   2.123
43899SOL     OW33470  11.114   5.183   6.065
43899SOL    HW133471  11.116   5.108   6.125
43899SOL    HW233472  11.087   5.146   5.981
43900SOL     OW33473  10.867   5.307  13.088
43900SOL    HW133474  10.939   5.332  13.030
43900SOL    HW233475  10.881   5.214  13.106
43901SOL     OW33476  14.007  12.790  10.154
43901SOL    HW133477  13.923  12.757  10.186
43901SOL    HW233478  14.070  12.766  10.223
43902SOL     OW33479   8.910  12.187   1.898
43902SOL    HW133480   8.945  12.143   1.821
43902SOL    HW233481   8.899  12.278   1.870
43903SOL     OW33482   5.417  12.749  12.282
43903SOL    HW133483   5.376  12.819  12.232
43903SOL    HW233484   5.509  12.774  12.288
43904SOL     OW33485  14.361  10.678   0.677
43904SOL    HW133486  14.445  10.721   0.694
43904SOL    HW233487  14.361  10.661   0.583
43905SOL     OW33488   5.229   2.270  14.660
43905SOL    HW133489   5.254   2.187  14.701
43905SOL    HW233490   5.245   2.336  14.727
43906SOL     OW33491   3.567   6.410   3.674
43906SOL    HW133492   3.634   6.347   3.701
43906SOL    HW233493   3.617   6.489   3.650
43907SOL     OW33494  14.481   7.527   4.463
43907SOL    HW133495  14.525   7.454   4.506
43907SOL    HW233496  14.507   7.604   4.513
43908SOL     OW33497  10.755   1.253   4.269
43908SOL    HW133498  10.789   1.248   4.358
43908SOL    HW233499  10.792   1.334   4.234
43909SOL     OW33500  13.761   7.775   5.878
43909SOL    HW133501  13.676   7.816   5.894
43909SOL    HW233502  13.797   7.823   5.803
43910SOL     OW33503   0.018   6.642   8.480
43910SOL    HW133504   0.089   6.579   8.463
43910SOL    HW233505   0.044   6.685   8.562
43911SOL     OW33506   5.523   1.048   5.535
43911SOL    HW133507   5.536   1.080   5.624
43911SOL    HW233508   5.602   0.997   5.516
43912SOL     OW33509   9.839   9.368   7.366
43912SOL    HW133510   9.813   9.309   7.295
43912SOL    HW233511   9.866   9.449   7.321
43913SOL     OW33512   9.579   0.613   7.776
43913SOL    HW133513   9.651   0.676   7.776
43913SOL    HW233514   9.508   0.657   7.730
43914SOL     OW33515  13.693   5.616   7.480
43914SOL    HW133516  13.776   5.570   7.478
43914SOL    HW233517  13.628   5.551   7.455
43915SOL     OW33518  13.201   5.394   5.064
43915SOL    HW133519  13.191   5.440   5.148
43915SOL    HW233520  13.120   5.344   5.054
43916SOL     OW33521   7.339  14.855   0.871
43916SOL    HW133522   7.421  14.816   0.901
43916SOL    HW233523   7.364   0.028   0.793
43917SOL     OW33524   8.739  12.536   8.146
43917SOL    HW133525   8.649  12.558   8.120
43917SOL    HW233526   8.774  12.617   8.183
43918SOL     OW33527   5.006   7.890   0.323
43918SOL    HW133528   4.965   7.911   0.406
43918SOL    HW233529   4.932   7.871   0.264
43919SOL     OW33530  11.556   4.489   4.384
43919SOL    HW133531  11.460   4.498   4.380
43919SOL    HW233532  11.573   4.454   4.471
43920SOL     OW33533  13.058   5.693   8.919
43920SOL    HW133534  13.127   5.751   8.887
43920SOL    HW233535  13.105   5.622   8.963
43921SOL     OW33536   3.809  11.623   5.786
43921SOL    HW133537   3.798  11.544   5.733
43921SOL    HW233538   3.784  11.595   5.874
43922SOL     OW33539   5.788  10.329   5.961
43922SOL    HW133540   5.801  10.424   5.964
43922SOL    HW233541   5.875  10.293   5.943
43923SOL     OW33542  11.834   6.552  10.323
43923SOL    HW133543  11.797   6.626  10.275
43923SOL    HW233544  11.781   6.546  10.402
43924SOL     OW33545   2.033  13.374  11.996
43924SOL    HW133546   1.950  13.419  12.009
43924SOL    HW233547   2.016  13.314  11.924
43925SOL     OW33548   1.888   2.034   1.307
43925SOL    HW133549   1.856   2.040   1.397
43925SOL    HW233550   1.809   2.033   1.254
43926SOL     OW33551  11.688   6.058   0.006
43926SOL    HW133552  11.640   6.039  14.803
43926SOL    HW233553  11.769   6.007  14.876
43927SOL     OW33554   2.099   5.346  12.279
43927SOL    HW133555   2.114   5.305  12.194
43927SOL    HW233556   2.143   5.431  12.273
43928SOL     OW33557   6.851   7.764   3.026
43928SOL    HW133558   6.783   7.828   3.004
43928SOL    HW233559   6.884   7.735   2.940
43929SOL     OW33560  13.805   3.038   1.038
43929SOL    HW133561  13.881   2.981   1.026
43929SOL    HW233562  13.733   2.989   0.999
43930SOL     OW33563  10.307  13.528  14.220
43930SOL    HW133564  10.392  13.514  14.178
43930SOL    HW233565  10.316  13.489  14.307
43931SOL     OW33566   2.700   5.498  14.699
43931SOL    HW133567   2.778   5.484  14.646
43931SOL    HW233568   2.627   5.484  14.639
43932SOL     OW33569   3.582   0.276  10.043
43932SOL    HW133570   3.671   0.307  10.062
43932SOL    HW233571   3.530   0.356  10.032
43933SOL     OW33572   5.887   2.942   6.830
43933SOL    HW133573   5.905   2.900   6.914
43933SOL    HW233574   5.863   2.870   6.772
43934SOL     OW33575   1.053   3.754   4.869
43934SOL    HW133576   1.035   3.742   4.776
43934SOL    HW233577   1.019   3.841   4.890
43935SOL     OW33578   1.583   4.477   7.254
43935SOL    HW133579   1.630   4.490   7.336
43935SOL    HW233580   1.580   4.564   7.214
43936SOL     OW33581   8.891  12.614  10.795
43936SOL    HW133582   8.957  12.681  10.774
43936SOL    HW233583   8.816  12.636  10.738
43937SOL     OW33584  10.363   6.690  14.541
43937SOL    HW133585  10.349   6.780  14.571
43937SOL    HW233586  10.437   6.696  14.480
43938SOL     OW33587   0.337   9.316   9.009
43938SOL    HW133588   0.417   9.288   8.965
43938SOL    HW233589   0.338   9.412   9.002
43939SOL     OW33590   9.380   0.750   7.646
43939SOL    HW133591   9.317   0.684   7.617
43939SOL    HW233592   9.406   0.795   7.565
43940SOL     OW33593   2.587  12.025  12.034
43940SOL    HW133594   2.561  11.954  11.975
43940SOL    HW233595   2.656  12.071  11.986
43941SOL     OW33596  14.247   4.449   6.243
43941SOL    HW133597  14.291   4.404   6.315
43941SOL    HW233598  14.235   4.382   6.176
43942SOL     OW33599   7.116   4.480   3.872
43942SOL    HW133600   7.202   4.436   3.871
43942SOL    HW233601   7.128   4.556   3.928
43943SOL     OW33602   4.255  10.164   9.192
43943SOL    HW133603   4.229  10.251   9.163
43943SOL    HW233604   4.253  10.111   9.112
43944SOL     OW33605   6.031  13.175   1.114
43944SOL    HW133606   6.025  13.256   1.063
43944SOL    HW233607   6.013  13.203   1.204
43945SOL     OW33608   8.647   2.111   0.828
43945SOL    HW133609   8.700   2.032   0.840
43945SOL    HW233610   8.669   2.165   0.904
43946SOL     OW33611   9.983   6.920  11.626
43946SOL    HW133612  10.018   6.982  11.562
43946SOL    HW233613  10.060   6.875  11.660
43947SOL     OW33614   7.680   6.138   8.060
43947SOL    HW133615   7.750   6.089   8.017
43947SOL    HW233616   7.692   6.121   8.154
43948SOL     OW33617   8.405  13.382  12.486
43948SOL    HW133618   8.450  13.463  12.462
43948SOL    HW233619   8.462  13.341  12.550
43949SOL     OW33620   9.190   5.068   9.918
43949SOL    HW133621   9.214   5.150   9.962
43949SOL    HW233622   9.143   5.096   9.840
43950SOL     OW33623   8.622   5.274   6.278
43950SOL    HW133624   8.691   5.209   6.291
43950SOL    HW233625   8.651   5.349   6.330
43951SOL     OW33626  13.055  11.143   2.502
43951SOL    HW133627  13.029  11.174   2.589
43951SOL    HW233628  13.001  11.064   2.488
43952SOL     OW33629  11.322   8.019   8.724
43952SOL    HW133630  11.295   7.929   8.740
43952SOL    HW233631  11.300   8.035   8.632
43953SOL     OW33632   8.095  11.908   2.262
43953SOL    HW133633   8.159  11.840   2.242
43953SOL    HW233634   8.127  11.949   2.342
43954SOL     OW33635  13.029   8.011   4.831
43954SOL    HW133636  13.059   8.097   4.804
43954SOL    HW233637  12.939   8.006   4.801
43955SOL     OW33638   6.628   1.992  14.204
43955SOL    HW133639   6.556   2.035  14.159
43955SOL    HW233640   6.704   2.049  14.190
43956SOL     OW33641  11.597  11.662  10.578
43956SOL    HW133642  11.621  11.752  10.557
43956SOL    HW233643  11.674  11.611  10.553
43957SOL     OW33644   5.158   8.766   4.878
43957SOL    HW133645   5.236   8.789   4.829
43957SOL    HW233646   5.164   8.816   4.960
43958SOL     OW33647  11.314   2.861  10.062
43958SOL    HW133648  11.361   2.787  10.022
43958SOL    HW233649  11.378   2.932  10.064
43959SOL     OW33650  10.751   9.736   2.731
43959SOL    HW133651  10.679   9.799   2.740
43959SOL    HW233652  10.790   9.755   2.646
43960SOL     OW33653   0.337  10.169  12.738
43960SOL    HW133654   0.320  10.117  12.659
43960SOL    HW233655   0.410  10.225  12.714
43961SOL     OW33656  10.524   6.063   7.429
43961SOL    HW133657  10.451   6.100   7.479
43961SOL    HW233658  10.599   6.069   7.488
43962SOL     OW33659   5.985   5.356   5.334
43962SOL    HW133660   5.940   5.278   5.364
43962SOL    HW233661   6.067   5.357   5.382
43963SOL     OW33662   1.058  14.014  14.220
43963SOL    HW133663   1.075  13.928  14.182
43963SOL    HW233664   1.065  14.001  14.314
43964SOL     OW33665   6.602  14.794  11.767
43964SOL    HW133666   6.511  14.764  11.761
43964SOL    HW233667   6.618  14.803  11.861
43965SOL     OW33668  10.028  13.334  13.068
43965SOL    HW133669  10.058  13.248  13.097
43965SOL    HW233670  10.084  13.355  12.993
43966SOL     OW33671   6.060   1.284   5.119
43966SOL    HW133672   6.153   1.285   5.140
43966SOL    HW233673   6.054   1.228   5.041
43967SOL     OW33674   9.216   1.396  13.025
43967SOL    HW133675   9.271   1.474  13.033
43967SOL    HW233676   9.273   1.324  13.049
43968SOL     OW33677  14.339   5.201   9.525
43968SOL    HW133678  14.252   5.203   9.484
43968SOL    HW233679  14.396   5.245   9.462
43969SOL     OW33680   8.469   4.051   5.201
43969SOL    HW133681   8.384   4.037   5.244
43969SOL    HW233682   8.451   4.114   5.131
43970SOL     OW33683   1.157   9.645  10.978
43970SOL    HW133684   1.094   9.618  10.911
43970SOL    HW233685   1.140   9.588  11.053
43971SOL     OW33686   3.340   5.527   4.259
43971SOL    HW133687   3.287   5.571   4.325
43971SOL    HW233688   3.313   5.566   4.176
43972SOL     OW33689   0.227   6.289   9.876
43972SOL    HW133690   0.140   6.323   9.897
43972SOL    HW233691   0.278   6.301   9.956
43973SOL     OW33692  13.576  10.391  13.026
43973SOL    HW133693  13.600  10.303  13.055
43973SOL    HW233694  13.651  10.421  12.976
43974SOL     OW33695   6.559   9.390   8.968
43974SOL    HW133696   6.515   9.365   9.049
43974SOL    HW233697   6.639   9.433   8.997
43975SOL     OW33698   9.718  11.494   5.040
43975SOL    HW133699   9.684  11.514   5.127
43975SOL    HW233700   9.646  11.514   4.980
43976SOL     OW33701   4.089  11.328   0.802
43976SOL    HW133702   4.114  11.321   0.710
43976SOL    HW233703   4.109  11.242   0.839
43977SOL     OW33704  14.710  13.144   8.405
43977SOL    HW133705  14.750  13.161   8.320
43977SOL    HW233706  14.642  13.212   8.414
43978SOL     OW33707   7.302   8.029  12.960
43978SOL    HW133708   7.364   8.064  12.896
43978SOL    HW233709   7.336   8.059  13.045
43979SOL     OW33710   1.098   2.267   0.915
43979SOL    HW133711   1.156   2.262   0.839
43979SOL    HW233712   1.150   2.234   0.988
43980SOL     OW33713   6.691   4.948  13.639
43980SOL    HW133714   6.765   4.903  13.680
43980SOL    HW233715   6.679   5.027  13.692
43981SOL     OW33716   6.353   4.512   8.515
43981SOL    HW133717   6.362   4.582   8.580
43981SOL    HW233718   6.401   4.544   8.439
43982SOL     OW33719  11.322   1.159   5.149
43982SOL    HW133720  11.269   1.238   5.159
43982SOL    HW233721  11.379   1.158   5.226
43983SOL     OW33722   2.632   7.443   0.957
43983SOL    HW133723   2.637   7.446   0.861
43983SOL    HW233724   2.670   7.526   0.985
43984SOL     OW33725   8.316   9.605  11.603
43984SOL    HW133726   8.282   9.594  11.692
43984SOL    HW233727   8.288   9.692  11.577
43985SOL     OW33728   5.146   5.450  14.711
43985SOL    HW133729   5.202   5.372  14.707
43985SOL    HW233730   5.154   5.488  14.623
43986SOL     OW33731   3.592  13.620  14.015
43986SOL    HW133732   3.572  13.536  13.973
43986SOL    HW233733   3.612  13.597  14.106
43987SOL     OW33734   1.279  12.959  14.439
43987SOL    HW133735   1.226  12.912  14.375
43987SOL    HW233736   1.357  12.905  14.450
43988SOL     OW33737   8.460   3.689   6.969
43988SOL    HW133738   8.388   3.672   6.908
43988SOL    HW233739   8.530   3.630   6.942
43989SOL     OW33740  11.087   0.807   4.198
43989SOL    HW133741  11.094   0.733   4.257
43989SOL    HW233742  11.103   0.771   4.111
43990SOL     OW33743  13.189   2.565  12.481
43990SOL    HW133744  13.147   2.498  12.535
43990SOL    HW233745  13.132   2.574  12.405
43991SOL     OW33746   4.023   6.265   6.661
43991SOL    HW133747   3.940   6.217   6.651
43991SOL    HW233748   4.079   6.230   6.591
43992SOL     OW33749   1.357   2.643   7.765
43992SOL    HW133750   1.382   2.733   7.742
43992SOL    HW233751   1.327   2.605   7.682
43993SOL     OW33752   8.114   1.017   8.539
43993SOL    HW133753   8.204   1.001   8.567
43993SOL    HW233754   8.090   1.100   8.582
43994SOL     OW33755  11.098   4.929   4.514
43994SOL    HW133756  11.092   5.019   4.483
43994SOL    HW233757  11.025   4.920   4.575
43995SOL     OW33758  13.118   7.653   1.304
43995SOL    HW133759  13.122   7.746   1.326
43995SOL    HW233760  13.070   7.613   1.376
43996SOL     OW33761   6.968   1.172  13.032
43996SOL    HW133762   7.020   1.253  13.031
43996SOL    HW233763   6.979   1.135  12.945
43997SOL     OW33764  12.636  10.646  10.166
43997SOL    HW133765  12.587  10.567  10.143
43997SOL    HW233766  12.646  10.641  10.261
43998SOL     OW33767  10.613   9.129   9.505
43998SOL    HW133768  10.530   9.162   9.538
43998SOL    HW233769  10.645   9.198   9.447
43999SOL     OW33770   6.289  14.160  14.454
43999SOL    HW133771   6.285  14.205  14.369
43999SOL    HW233772   6.203  14.119  14.463
44000SOL     OW33773  12.640   9.331  11.546
44000SOL    HW133774  12.721   9.357  11.503
44000SOL    HW233775  12.637   9.236  11.536
44001SOL     OW33776   2.900   8.299  10.464
44001SOL    HW133777   2.824   8.270  10.513
44001SOL    HW233778   2.949   8.355  10.525
44002SOL     OW33779   0.468   9.704   0.982
44002SOL    HW133780   0.560   9.678   0.986
44002SOL    HW233781   0.461   9.780   1.039
44003SOL     OW33782  10.216   6.130  10.439
44003SOL    HW133783  10.246   6.080  10.515
44003SOL    HW233784  10.296   6.146  10.388
44004SOL     OW33785  11.947   0.100   9.241
44004SOL    HW133786  11.871   0.070   9.291
44004SOL    HW233787  11.915   0.107   9.151
44005SOL     OW33788   8.652   7.593  12.732
44005SOL    HW133789   8.692   7.630  12.811
44005SOL    HW233790   8.726   7.576  12.674
44006SOL     OW33791   3.603  12.988   4.001
44006SOL    HW133792   3.656  13.054   3.956
44006SOL    HW233793   3.577  13.030   4.083
44007SOL     OW33794   7.739   3.303   1.909
44007SOL    HW133795   7.753   3.261   1.994
44007SOL    HW233796   7.721   3.231   1.850
44008SOL     OW33797   4.249  12.858  12.149
44008SOL    HW133798   4.265  12.813  12.066
44008SOL    HW233799   4.154  12.853  12.161
44009SOL     OW33800   0.449  12.418   5.612
44009SOL    HW133801   0.533  12.398   5.654
44009SOL    HW233802   0.431  12.508   5.639
44010SOL     OW33803   5.421   5.349   9.743
44010SOL    HW133804   5.473   5.312   9.672
44010SOL    HW233805   5.330   5.341   9.714
44011SOL     OW33806   5.454  10.108   7.342
44011SOL    HW133807   5.457  10.120   7.247
44011SOL    HW233808   5.527  10.160   7.375
44012SOL     OW33809   3.243   6.747   8.314
44012SOL    HW133810   3.201   6.783   8.392
44012SOL    HW233811   3.336   6.764   8.327
44013SOL     OW33812   0.864  13.030  12.910
44013SOL    HW133813   0.959  13.028  12.912
44013SOL    HW233814   0.839  12.940  12.889
44014SOL     OW33815   9.953   7.691   4.885
44014SOL    HW133816   9.959   7.702   4.980
44014SOL    HW233817   9.879   7.747   4.859
44015SOL     OW33818  10.513   1.921  14.424
44015SOL    HW133819  10.426   1.906  14.461
44015SOL    HW233820  10.558   1.837  14.434
44016SOL     OW33821   9.267   2.728   5.923
44016SOL    HW133822   9.354   2.751   5.953
44016SOL    HW233823   9.208   2.786   5.972
44017SOL     OW33824   2.704   9.275   9.872
44017SOL    HW133825   2.773   9.336   9.898
44017SOL    HW233826   2.660   9.317   9.798
44018SOL     OW33827  12.671  14.696   8.287
44018SOL    HW133828  12.664  14.731   8.376
44018SOL    HW233829  12.580  14.686   8.259
44019SOL     OW33830  11.402   6.811  14.021
44019SOL    HW133831  11.452   6.801  14.102
44019SOL    HW233832  11.461   6.856  13.961
44020SOL     OW33833   5.137   7.644   1.923
44020SOL    HW133834   5.063   7.599   1.884
44020SOL    HW233835   5.213   7.616   1.872
44021SOL     OW33836  11.711   3.458   0.998
44021SOL    HW133837  11.805   3.470   0.981
44021SOL    HW233838  11.692   3.520   1.069
44022SOL     OW33839   6.578  10.442  11.002
44022SOL    HW133840   6.611  10.404  11.083
44022SOL    HW233841   6.651  10.437  10.941
44023SOL     OW33842   0.732   8.270   8.268
44023SOL    HW133843   0.786   8.340   8.230
44023SOL    HW233844   0.642   8.300   8.256
44024SOL     OW33845   5.813   2.758   4.669
44024SOL    HW133846   5.833   2.835   4.616
44024SOL    HW233847   5.722   2.772   4.696
44025SOL     OW33848  12.657  10.296   5.979
44025SOL    HW133849  12.746  10.264   5.959
44025SOL    HW233850  12.666  10.341   6.063
44026SOL     OW33851   7.552   8.900   6.933
44026SOL    HW133852   7.573   8.824   6.879
44026SOL    HW233853   7.472   8.936   6.894
44027SOL     OW33854  10.876  11.038   6.000
44027SOL    HW133855  10.794  11.085   6.018
44027SOL    HW233856  10.937  11.072   6.065
44028SOL     OW33857  10.398  14.160   5.145
44028SOL    HW133858  10.374  14.082   5.194
44028SOL    HW233859  10.447  14.214   5.207
44029SOL     OW33860   7.959   0.509   8.328
44029SOL    HW133861   8.011   0.518   8.408
44029SOL    HW233862   7.984   0.584   8.275
44030SOL     OW33863   8.624  14.668  13.378
44030SOL    HW133864   8.588  14.709  13.299
44030SOL    HW233865   8.694  14.612  13.346
44031SOL     OW33866   0.055  12.406  12.821
44031SOL    HW133867   0.056  12.390  12.916
44031SOL    HW233868   0.138  12.371  12.790
44032SOL     OW33869   0.811   7.349   7.844
44032SOL    HW133870   0.762   7.368   7.764
44032SOL    HW233871   0.870   7.423   7.854
44033SOL     OW33872   7.832   6.368   8.562
44033SOL    HW133873   7.881   6.310   8.620
44033SOL    HW233874   7.776   6.419   8.621
44034SOL     OW33875   0.824  12.532   1.062
44034SOL    HW133876   0.774  12.577   0.994
44034SOL    HW233877   0.812  12.586   1.141
44035SOL     OW33878   2.859  14.873   7.044
44035SOL    HW133879   2.865  14.787   7.087
44035SOL    HW233880   2.767   0.021   7.053
44036SOL     OW33881   1.727   3.443   7.899
44036SOL    HW133882   1.680   3.501   7.839
44036SOL    HW233883   1.727   3.358   7.855
44037SOL     OW33884  13.064   0.634   3.782
44037SOL    HW133885  13.146   0.680   3.759
44037SOL    HW233886  13.076   0.609   3.873
44038SOL     OW33887  10.847   0.227   0.085
44038SOL    HW133888  10.938   0.251   0.100
44038SOL    HW233889  10.826   0.169   0.158
44039SOL     OW33890  11.108  13.552   4.440
44039SOL    HW133891  11.071  13.582   4.357
44039SOL    HW233892  11.172  13.620   4.463
44040SOL     OW33893   2.472   8.704   4.868
44040SOL    HW133894   2.474   8.642   4.941
44040SOL    HW233895   2.379   8.715   4.848
44041SOL     OW33896   7.455   5.185   2.814
44041SOL    HW133897   7.540   5.164   2.776
44041SOL    HW233898   7.468   5.177   2.908
44042SOL     OW33899   3.802  13.670  12.849
44042SOL    HW133900   3.749  13.749  12.856
44042SOL    HW233901   3.800  13.632  12.937
44043SOL     OW33902  11.998   4.450   5.837
44043SOL    HW133903  11.927   4.505   5.870
44043SOL    HW233904  12.077   4.504   5.846
44044SOL     OW33905   1.427   5.382  12.615
44044SOL    HW133906   1.407   5.419  12.530
44044SOL    HW233907   1.366   5.425  12.675
44045SOL     OW33908  13.852  12.872   5.114
44045SOL    HW133909  13.858  12.925   5.193
44045SOL    HW233910  13.758  12.864   5.097
44046SOL     OW33911   4.979   8.675  13.218
44046SOL    HW133912   4.975   8.581  13.200
44046SOL    HW233913   4.893   8.708  13.190
44047SOL     OW33914   8.571   4.093   3.786
44047SOL    HW133915   8.540   4.176   3.822
44047SOL    HW233916   8.504   4.030   3.811
44048SOL     OW33917   3.700   6.750  14.557
44048SOL    HW133918   3.680   6.686  14.626
44048SOL    HW233919   3.731   6.827  14.604
44049SOL     OW33920  13.926   0.813   5.025
44049SOL    HW133921  13.980   0.881   5.066
44049SOL    HW233922  13.843   0.857   5.006
44050SOL     OW33923  11.649  14.461  12.730
44050SOL    HW133924  11.602  14.481  12.649
44050SOL    HW233925  11.636  14.538  12.785
44051SOL     OW33926   4.436  10.604   2.297
44051SOL    HW133927   4.382  10.551   2.239
44051SOL    HW233928   4.423  10.566   2.384
44052SOL     OW33929   8.322  14.841  13.241
44052SOL    HW133930   8.362   0.050  13.226
44052SOL    HW233931   8.292  14.844  13.332
44053SOL     OW33932  10.378   8.857   6.669
44053SOL    HW133933  10.431   8.928   6.704
44053SOL    HW233934  10.295   8.863   6.717
44054SOL     OW33935  13.216  13.916  13.865
44054SOL    HW133936  13.298  13.964  13.871
44054SOL    HW233937  13.219  13.853  13.936
44055SOL     OW33938   7.798   0.068   8.677
44055SOL    HW133939   7.864   0.137   8.668
44055SOL    HW233940   7.846  14.871   8.713
44056SOL     OW33941   6.107   6.239  10.495
44056SOL    HW133942   6.037   6.205  10.440
44056SOL    HW233943   6.178   6.259  10.434
44057SOL     OW33944  12.004   2.430   2.355
44057SOL    HW133945  11.993   2.387   2.440
44057SOL    HW233946  11.920   2.474   2.340
44058SOL     OW33947   4.527  10.941  13.058
44058SOL    HW133948   4.452  10.985  13.097
44058SOL    HW233949   4.491  10.894  12.983
44059SOL     OW33950   3.704   4.468   1.324
44059SOL    HW133951   3.755   4.548   1.341
44059SOL    HW233952   3.701   4.424   1.409
44060SOL     OW33953   7.346   4.645   0.898
44060SOL    HW133954   7.372   4.566   0.945
44060SOL    HW233955   7.309   4.612   0.816
44061SOL     OW33956   5.915   1.310  13.150
44061SOL    HW133957   5.846   1.300  13.215
44061SOL    HW233958   5.991   1.267  13.189
44062SOL     OW33959  10.909   6.108   4.845
44062SOL    HW133960  10.912   6.111   4.749
44062SOL    HW233961  10.999   6.088   4.871
44063SOL     OW33962  14.333  13.348   1.666
44063SOL    HW133963  14.278  13.271   1.654
44063SOL    HW233964  14.420  13.312   1.685
44064SOL     OW33965   7.344   6.165   5.032
44064SOL    HW133966   7.379   6.076   5.033
44064SOL    HW233967   7.273   6.162   5.097
44065SOL     OW33968  14.301   2.727   6.656
44065SOL    HW133969  14.235   2.764   6.714
44065SOL    HW233970  14.378   2.783   6.668
44066SOL     OW33971   9.732   0.891   4.292
44066SOL    HW133972   9.700   0.904   4.202
44066SOL    HW233973   9.678   0.819   4.326
44067SOL     OW33974   8.172   2.127   3.616
44067SOL    HW133975   8.097   2.069   3.633
44067SOL    HW233976   8.132   2.207   3.583
44068SOL     OW33977   5.770  12.414  10.361
44068SOL    HW133978   5.716  12.414  10.440
44068SOL    HW233979   5.784  12.322  10.341
44069SOL     OW33980  12.261   1.097  14.506
44069SOL    HW133981  12.302   1.053  14.431
44069SOL    HW233982  12.222   1.026  14.557
44070SOL     OW33983  11.438   5.172  12.962
44070SOL    HW133984  11.483   5.189  12.879
44070SOL    HW233985  11.384   5.095  12.944
44071SOL     OW33986  12.933   9.868   3.412
44071SOL    HW133987  12.941   9.962   3.427
44071SOL    HW233988  12.917   9.831   3.499
44072SOL     OW33989   6.299   0.844   0.464
44072SOL    HW133990   6.214   0.870   0.499
44072SOL    HW233991   6.359   0.849   0.538
44073SOL     OW33992   4.851   1.995   2.989
44073SOL    HW133993   4.855   2.035   2.902
44073SOL    HW233994   4.784   2.044   3.035
44074SOL     OW33995   7.989  13.906   2.806
44074SOL    HW133996   7.961  13.993   2.778
44074SOL    HW233997   7.981  13.852   2.728
44075SOL     OW33998  13.653   8.926  12.758
44075SOL    HW133999  13.575   8.888  12.718
44075SOL    HW234000  13.723   8.863  12.741
44076SOL     OW34001  13.367   3.893  11.884
44076SOL    HW134002  13.424   3.962  11.851
44076SOL    HW234003  13.318   3.935  11.955
44077SOL     OW34004  13.622   2.997   0.187
44077SOL    HW134005  13.643   2.905   0.175
44077SOL    HW234006  13.699   3.035   0.228
44078SOL     OW34007  11.229   2.449  12.521
44078SOL    HW134008  11.136   2.471  12.517
44078SOL    HW234009  11.250   2.417  12.433
44079SOL     OW34010  10.400   0.701  10.220
44079SOL    HW134011  10.467   0.636  10.239
44079SOL    HW234012  10.421   0.775  10.277
44080SOL     OW34013   5.852   5.334   2.617
44080SOL    HW134014   5.833   5.347   2.525
44080SOL    HW234015   5.798   5.399   2.662
44081SOL     OW34016   2.182  13.756   4.127
44081SOL    HW134017   2.169  13.833   4.183
44081SOL    HW234018   2.242  13.786   4.059
44082SOL     OW34019   6.478   2.235  11.171
44082SOL    HW134020   6.417   2.219  11.099
44082SOL    HW234021   6.565   2.226  11.132
44083SOL     OW34022  14.481   2.167   6.374
44083SOL    HW134023  14.499   2.174   6.468
44083SOL    HW234024  14.568   2.154   6.335
44084SOL     OW34025  14.016   8.729  13.807
44084SOL    HW134026  14.065   8.690  13.879
44084SOL    HW234027  14.076   8.728  13.733
44085SOL     OW34028  12.562   4.080  11.528
44085SOL    HW134029  12.543   4.147  11.463
44085SOL    HW234030  12.540   4.122  11.612
44086SOL     OW34031  13.395   0.341  11.991
44086SOL    HW134032  13.404   0.365  11.898
44086SOL    HW234033  13.309   0.300  11.997
44087SOL     OW34034   3.049   6.490   5.545
44087SOL    HW134035   2.988   6.462   5.613
44087SOL    HW234036   3.127   6.437   5.559
44088SOL     OW34037   3.258  14.411  11.978
44088SOL    HW134038   3.185  14.411  11.915
44088SOL    HW234039   3.334  14.437  11.926
44089SOL     OW34040   4.795   6.734   9.716
44089SOL    HW134041   4.739   6.657   9.710
44089SOL    HW234042   4.740   6.807   9.687
44090SOL     OW34043   2.973   8.694  11.283
44090SOL    HW134044   2.960   8.702  11.377
44090SOL    HW234045   3.066   8.712  11.270
44091SOL     OW34046   5.176  12.074   1.052
44091SOL    HW134047   5.246  12.110   1.108
44091SOL    HW234048   5.217  12.066   0.966
44092SOL     OW34049   3.457   2.980   6.994
44092SOL    HW134050   3.366   2.966   7.021
44092SOL    HW234051   3.501   3.015   7.071
44093SOL     OW34052   8.415   2.208   0.688
44093SOL    HW134053   8.491   2.155   0.713
44093SOL    HW234054   8.360   2.210   0.766
44094SOL     OW34055  13.278   5.821  11.870
44094SOL    HW134056  13.227   5.842  11.791
44094SOL    HW234057  13.356   5.877  11.864
44095SOL     OW34058   3.967  12.049  10.323
44095SOL    HW134059   4.057  12.070  10.347
44095SOL    HW234060   3.966  12.055  10.227
44096SOL     OW34061   5.949  13.120  14.784
44096SOL    HW134062   5.969  13.189  14.721
44096SOL    HW234063   5.929  13.043  14.730
44097SOL     OW34064  11.096   0.860  13.861
44097SOL    HW134065  11.095   0.777  13.815
44097SOL    HW234066  11.004   0.888  13.863
44098SOL     OW34067  11.460  14.766   4.713
44098SOL    HW134068  11.511  14.772   4.794
44098SOL    HW234069  11.488  14.841   4.661
44099SOL     OW34070  12.848   7.987   6.372
44099SOL    HW134071  12.862   8.003   6.466
44099SOL    HW234072  12.887   8.063   6.329
44100SOL     OW34073   8.353  11.031   5.703
44100SOL    HW134074   8.290  10.974   5.660
44100SOL    HW234075   8.409  10.972   5.753
44101SOL     OW34076   5.227   2.634  10.313
44101SOL    HW134077   5.186   2.705  10.264
44101SOL    HW234078   5.183   2.635  10.398
44102SOL     OW34079   8.431   3.002   9.774
44102SOL    HW134080   8.355   2.963   9.730
44102SOL    HW234081   8.444   3.086   9.730
44103SOL     OW34082   9.712  14.053   9.842
44103SOL    HW134083   9.751  14.140   9.854
44103SOL    HW234084   9.769  14.010   9.779
44104SOL     OW34085  11.674   4.415  10.172
44104SOL    HW134086  11.645   4.441  10.260
44104SOL    HW234087  11.643   4.486  10.115
44105SOL     OW34088  11.547   4.108   3.950
44105SOL    HW134089  11.642   4.118   3.939
44105SOL    HW234090  11.533   4.118   4.044
44106SOL     OW34091  11.728  14.495  14.634
44106SOL    HW134092  11.717  14.456  14.720
44106SOL    HW234093  11.823  14.502  14.623
44107SOL     OW34094   9.817   0.966  12.958
44107SOL    HW134095   9.823   1.061  12.972
44107SOL    HW234096   9.861   0.951  12.875
44108SOL     OW34097   3.442   4.235   9.803
44108SOL    HW134098   3.385   4.311   9.817
44108SOL    HW234099   3.521   4.271   9.764
44109SOL     OW34100   4.947   4.723  11.150
44109SOL    HW134101   4.871   4.776  11.174
44109SOL    HW234102   4.970   4.752  11.062
44110SOL     OW34103   3.449   9.072   8.802
44110SOL    HW134104   3.487   9.074   8.714
44110SOL    HW234105   3.356   9.089   8.788
44111SOL     OW34106   8.722  13.018   5.733
44111SOL    HW134107   8.807  13.001   5.774
44111SOL    HW234108   8.681  13.084   5.789
44112SOL     OW34109   4.768  11.717   8.927
44112SOL    HW134110   4.714  11.765   8.864
44112SOL    HW234111   4.758  11.765   9.009
44113SOL     OW34112  12.668   5.772   6.287
44113SOL    HW134113  12.627   5.842   6.337
44113SOL    HW234114  12.752   5.756   6.331
44114SOL     OW34115  14.721   9.444   3.191
44114SOL    HW134116  14.671   9.409   3.265
44114SOL    HW234117  14.765   9.368   3.154
44115SOL     OW34118  14.327   5.554   4.777
44115SOL    HW134119  14.284   5.620   4.722
44115SOL    HW234120  14.261   5.531   4.842
44116SOL     OW34121   3.876   3.368   4.724
44116SOL    HW134122   3.876   3.342   4.816
44116SOL    HW234123   3.788   3.404   4.709
44117SOL     OW34124   6.129  14.828   4.846
44117SOL    HW134125   6.065  14.778   4.896
44117SOL    HW234126   6.200  14.766   4.828
44118SOL     OW34127   7.070   8.918  14.808
44118SOL    HW134128   7.020   8.934  14.728
44118SOL    HW234129   7.008   8.937   0.001
44119SOL     OW34130   0.081   8.722   8.434
44119SOL    HW134131   0.059   8.742   8.343
44119SOL    HW234132   0.159   8.666   8.429
44120SOL     OW34133   3.138   3.469  12.616
44120SOL    HW134134   3.114   3.408  12.686
44120SOL    HW234135   3.146   3.554  12.661
44121SOL     OW34136   6.335  12.277   9.480
44121SOL    HW134137   6.301  12.324   9.403
44121SOL    HW234138   6.287  12.315   9.554
44122SOL     OW34139  14.069   1.671  10.353
44122SOL    HW134140  14.093   1.756  10.390
44122SOL    HW234141  14.020   1.628  10.423
44123SOL     OW34142   7.731   6.276   6.179
44123SOL    HW134143   7.822   6.305   6.182
44123SOL    HW234144   7.735   6.183   6.203
44124SOL     OW34145   8.549   3.286   6.998
44124SOL    HW134146   8.549   3.219   6.929
44124SOL    HW234147   8.591   3.362   6.956
44125SOL     OW34148  12.960   3.540   8.519
44125SOL    HW134149  13.025   3.610   8.525
44125SOL    HW234150  12.995   3.481   8.452
44126SOL     OW34151   4.642  12.273   4.825
44126SOL    HW134152   4.722  12.302   4.782
44126SOL    HW234153   4.631  12.182   4.797
44127SOL     OW34154  14.283  12.278   5.875
44127SOL    HW134155  14.301  12.237   5.960
44127SOL    HW234156  14.240  12.360   5.897
44128SOL     OW34157   7.559  11.637  14.164
44128SOL    HW134158   7.468  11.655  14.186
44128SOL    HW234159   7.578  11.554  14.208
44129SOL     OW34160  14.653  14.087  12.826
44129SOL    HW134161  14.625  14.006  12.869
44129SOL    HW234162  14.664  14.149  12.897
44130SOL     OW34163  14.566   3.950   5.509
44130SOL    HW134164  14.531   3.997   5.434
44130SOL    HW234165  14.493   3.896   5.540
44131SOL     OW34166   8.407  13.636   3.586
44131SOL    HW134167   8.443  13.571   3.527
44131SOL    HW234168   8.449  13.619   3.671
44132SOL     OW34169   6.826   6.365  13.666
44132SOL    HW134170   6.763   6.415  13.614
44132SOL    HW234171   6.898   6.348  13.605
44133SOL     OW34172   8.018   6.570  14.305
44133SOL    HW134173   7.933   6.551  14.266
44133SOL    HW234174   8.000   6.582  14.399
44134SOL     OW34175   1.303   8.472  12.481
44134SOL    HW134176   1.326   8.416  12.554
44134SOL    HW234177   1.318   8.418  12.403
44135SOL     OW34178   0.590  14.151  11.222
44135SOL    HW134179   0.517  14.208  11.244
44135SOL    HW234180   0.550  14.065  11.207
44136SOL     OW34181   3.133  14.018   1.558
44136SOL    HW134182   3.219  13.981   1.573
44136SOL    HW234183   3.107  13.987   1.471
44137SOL     OW34184  10.346   6.941  11.662
44137SOL    HW134185  10.320   6.913  11.750
44137SOL    HW234186  10.323   7.034  11.659
44138SOL     OW34187   8.537   8.346   6.067
44138SOL    HW134188   8.591   8.418   6.101
44138SOL    HW234189   8.517   8.293   6.145
44139SOL     OW34190   9.891   5.409   3.152
44139SOL    HW134191   9.864   5.435   3.064
44139SOL    HW234192   9.932   5.487   3.189
44140SOL     OW34193   3.013   5.363   2.365
44140SOL    HW134194   2.983   5.280   2.326
44140SOL    HW234195   3.108   5.358   2.360
44141SOL     OW34196   3.061  13.283   5.151
44141SOL    HW134197   3.027  13.221   5.087
44141SOL    HW234198   3.081  13.361   5.101
44142SOL     OW34199  13.532  14.304   5.555
44142SOL    HW134200  13.587  14.226   5.568
44142SOL    HW234201  13.531  14.348   5.640
44143SOL     OW34202  11.416  13.938   7.805
44143SOL    HW134203  11.371  13.965   7.885
44143SOL    HW234204  11.421  13.843   7.811
44144SOL     OW34205   3.712   4.603   4.862
44144SOL    HW134206   3.773   4.656   4.913
44144SOL    HW234207   3.766   4.534   4.824
44145SOL     OW34208   4.301  14.699   8.539
44145SOL    HW134209   4.259  14.745   8.467
44145SOL    HW234210   4.229  14.672   8.596
44146SOL     OW34211   6.062   1.289   8.754
44146SOL    HW134212   6.149   1.325   8.773
44146SOL    HW234213   6.005   1.326   8.822
44147SOL     OW34214   7.244   4.726   4.187
44147SOL    HW134215   7.182   4.654   4.204
44147SOL    HW234216   7.319   4.706   4.242
44148SOL     OW34217   7.401  12.967   4.447
44148SOL    HW134218   7.477  12.967   4.505
44148SOL    HW234219   7.437  12.956   4.359
44149SOL     OW34220  13.325   4.469   2.402
44149SOL    HW134221  13.307   4.542   2.343
44149SOL    HW234222  13.347   4.510   2.486
44150SOL     OW34223   2.170  14.026  13.649
44150SOL    HW134224   2.184  13.931  13.656
44150SOL    HW234225   2.251  14.064  13.681
44151SOL     OW34226  12.468   1.795  10.355
44151SOL    HW134227  12.445   1.880  10.393
44151SOL    HW234228  12.537   1.814  10.292
44152SOL     OW34229   2.970   8.300   8.851
44152SOL    HW134230   2.997   8.228   8.794
44152SOL    HW234231   2.879   8.281   8.874
44153SOL     OW34232   2.483  10.540  13.150
44153SOL    HW134233   2.420  10.609  13.169
44153SOL    HW234234   2.442  10.488  13.082
44154SOL     OW34235  13.432   1.272  13.741
44154SOL    HW134236  13.412   1.231  13.825
44154SOL    HW234237  13.455   1.362  13.763
44155SOL     OW34238  11.334  14.206  13.232
44155SOL    HW134239  11.400  14.233  13.168
44155SOL    HW234240  11.380  14.146  13.290
44156SOL     OW34241   4.721  12.198   8.718
44156SOL    HW134242   4.734  12.152   8.634
44156SOL    HW234243   4.629  12.222   8.718
44157SOL     OW34244  12.264   0.178   5.302
44157SOL    HW134245  12.306   0.138   5.378
44157SOL    HW234246  12.237   0.264   5.333
44158SOL     OW34247   5.389   8.245   0.881
44158SOL    HW134248   5.439   8.315   0.924
44158SOL    HW234249   5.431   8.164   0.910
44159SOL     OW34250   8.641   5.416   2.327
44159SOL    HW134251   8.667   5.377   2.410
44159SOL    HW234252   8.616   5.505   2.349
44160SOL     OW34253  13.442  10.767   2.054
44160SOL    HW134254  13.368  10.758   1.994
44160SOL    HW234255  13.460  10.861   2.056
44161SOL     OW34256   1.820   8.145   5.806
44161SOL    HW134257   1.724   8.136   5.803
44161SOL    HW234258   1.844   8.108   5.891
44162SOL     OW34259   1.791  11.508   9.882
44162SOL    HW134260   1.855  11.506   9.811
44162SOL    HW234261   1.803  11.593   9.923
44163SOL     OW34262   7.403   7.162   0.320
44163SOL    HW134263   7.481   7.107   0.326
44163SOL    HW234264   7.394   7.181   0.227
44164SOL     OW34265  10.942   0.929   7.975
44164SOL    HW134266  10.875   0.987   7.941
44164SOL    HW234267  11.001   0.913   7.901
44165SOL     OW34268   7.570   5.376   9.383
44165SOL    HW134269   7.484   5.342   9.405
44165SOL    HW234270   7.564   5.470   9.400
44166SOL     OW34271   8.956  12.769  13.257
44166SOL    HW134272   9.025  12.704  13.241
44166SOL    HW234273   8.959  12.784  13.352
44167SOL     OW34274   8.775   5.645   4.721
44167SOL    HW134275   8.770   5.608   4.633
44167SOL    HW234276   8.710   5.716   4.720
44168SOL     OW34277   9.396   2.527   5.041
44168SOL    HW134278   9.335   2.531   5.115
44168SOL    HW234279   9.385   2.611   4.996
44169SOL     OW34280  13.463   4.016   6.800
44169SOL    HW134281  13.503   4.040   6.717
44169SOL    HW234282  13.532   3.972   6.849
44170SOL     OW34283   3.489   6.096   4.816
44170SOL    HW134284   3.412   6.113   4.871
44170SOL    HW234285   3.551   6.165   4.839
44171SOL     OW34286   6.546  13.810   3.334
44171SOL    HW134287   6.632  13.805   3.375
44171SOL    HW234288   6.509  13.722   3.348
44172SOL     OW34289  10.725   8.575   3.435
44172SOL    HW134290  10.757   8.653   3.391
44172SOL    HW234291  10.643   8.554   3.391
44173SOL     OW34292   3.432  10.594  13.164
44173SOL    HW134293   3.492  10.620  13.234
44173SOL    HW234294   3.355  10.559  13.209
44174SOL     OW34295  14.511  12.094   9.453
44174SOL    HW134296  14.455  12.071   9.527
44174SOL    HW234297  14.554  12.012   9.428
44175SOL     OW34298   5.889  10.918  13.773
44175SOL    HW134299   5.840  10.841  13.742
44175SOL    HW234300   5.906  10.969  13.694
44176SOL     OW34301   3.646   9.464   4.629
44176SOL    HW134302   3.568   9.477   4.683
44176SOL    HW234303   3.678   9.553   4.612
44177SOL     OW34304   5.183   1.508   4.799
44177SOL    HW134305   5.244   1.543   4.734
44177SOL    HW234306   5.166   1.581   4.858
44178SOL     OW34307  10.159  14.590   0.835
44178SOL    HW134308  10.064  14.592   0.825
44178SOL    HW234309  10.186  14.682   0.827
44179SOL     OW34310  12.623   0.213  10.040
44179SOL    HW134311  12.602   0.156  10.114
44179SOL    HW234312  12.713   0.241  10.056
44180SOL     OW34313   0.051   4.069   1.810
44180SOL    HW134314   0.024   3.978   1.804
44180SOL    HW234315   0.073   4.094   1.720
44181SOL     OW34316  12.967   1.965  10.304
44181SOL    HW134317  12.913   2.028  10.352
44181SOL    HW234318  13.057   1.989  10.326
44182SOL     OW34319   0.232   2.573   3.546
44182SOL    HW134320   0.233   2.564   3.641
44182SOL    HW234321   0.159   2.633   3.529
44183SOL     OW34322  13.141   9.630  11.201
44183SOL    HW134323  13.123   9.608  11.292
44183SOL    HW234324  13.064   9.678  11.171
44184SOL     OW34325   3.674   0.898   6.005
44184SOL    HW134326   3.653   0.991   6.015
44184SOL    HW234327   3.717   0.892   5.920
44185SOL     OW34328  11.794   5.165   0.848
44185SOL    HW134329  11.710   5.170   0.802
44185SOL    HW234330  11.773   5.123   0.931
44186SOL     OW34331   6.848   6.215  11.084
44186SOL    HW134332   6.929   6.167  11.068
44186SOL    HW234333   6.805   6.168  11.155
44187SOL     OW34334  13.634   0.461  14.826
44187SOL    HW134335  13.689   0.537  14.810
44187SOL    HW234336  13.695   0.388  14.835
44188SOL     OW34337  12.594  13.362  13.889
44188SOL    HW134338  12.575  13.416  13.966
44188SOL    HW234339  12.653  13.416  13.837
44189SOL     OW34340   8.990   1.260   2.829
44189SOL    HW134341   8.976   1.339   2.776
44189SOL    HW234342   8.903   1.238   2.863
44190SOL     OW34343   7.382  13.779  14.393
44190SOL    HW134344   7.297  13.802  14.355
44190SOL    HW234345   7.415  13.709  14.337
44191SOL     OW34346   1.995   2.678  11.213
44191SOL    HW134347   2.082   2.719  11.209
44191SOL    HW234348   1.943   2.737  11.268
44192SOL     OW34349  13.416   2.255   0.848
44192SOL    HW134350  13.387   2.319   0.783
44192SOL    HW234351  13.367   2.175   0.826
44193SOL     OW34352   2.713   6.300   3.036
44193SOL    HW134353   2.710   6.247   3.115
44193SOL    HW234354   2.662   6.378   3.058
44194SOL     OW34355  13.505  11.400   2.874
44194SOL    HW134356  13.473  11.478   2.829
44194SOL    HW234357  13.538  11.344   2.803
44195SOL     OW34358   0.903   6.342   4.128
44195SOL    HW134359   0.864   6.428   4.112
44195SOL    HW234360   0.868   6.316   4.214
44196SOL     OW34361  12.705  12.072   5.231
44196SOL    HW134362  12.735  11.996   5.281
44196SOL    HW234363  12.782  12.100   5.182
44197SOL     OW34364  13.211   6.631  10.658
44197SOL    HW134365  13.307   6.634  10.660
44197SOL    HW234366  13.189   6.641  10.565
44198SOL     OW34367   8.849   8.545   2.776
44198SOL    HW134368   8.848   8.538   2.872
44198SOL    HW234369   8.928   8.500   2.750
44199SOL     OW34370  10.756  14.040   6.736
44199SOL    HW134371  10.745  14.134   6.751
44199SOL    HW234372  10.790  14.033   6.648
44200SOL     OW34373   0.371   1.603   5.171
44200SOL    HW134374   0.398   1.590   5.080
44200SOL    HW234375   0.432   1.669   5.205
44201SOL     OW34376   8.356   3.389   4.856
44201SOL    HW134377   8.285   3.430   4.905
44201SOL    HW234378   8.405   3.340   4.921
44202SOL     OW34379  14.371  11.634   3.904
44202SOL    HW134380  14.290  11.583   3.902
44202SOL    HW234381  14.441  11.568   3.897
44203SOL     OW34382   2.158  12.012   7.180
44203SOL    HW134383   2.175  11.920   7.200
44203SOL    HW234384   2.175  12.020   7.086
44204SOL     OW34385   7.969   2.439   9.322
44204SOL    HW134386   7.887   2.390   9.313
44204SOL    HW234387   7.999   2.421   9.411
44205SOL     OW34388  14.553   3.572   2.292
44205SOL    HW134389  14.523   3.641   2.350
44205SOL    HW234390  14.648   3.587   2.284
44206SOL     OW34391   6.381  11.572  11.047
44206SOL    HW134392   6.409  11.662  11.031
44206SOL    HW234393   6.326  11.578  11.126
44207SOL     OW34394   4.665   1.438   4.869
44207SOL    HW134395   4.646   1.445   4.962
44207SOL    HW234396   4.754   1.473   4.860
44208SOL     OW34397  10.873  14.074  12.301
44208SOL    HW134398  10.952  14.054  12.351
44208SOL    HW234399  10.833  13.989  12.284
44209SOL     OW34400   2.371  13.096  10.575
44209SOL    HW134401   2.446  13.045  10.608
44209SOL    HW234402   2.382  13.095  10.480
44210SOL     OW34403   8.732  13.367   0.825
44210SOL    HW134404   8.792  13.311   0.776
44210SOL    HW234405   8.785  13.401   0.897
44211SOL     OW34406   2.230   2.601   8.128
44211SOL    HW134407   2.247   2.629   8.038
44211SOL    HW234408   2.162   2.661   8.160
44212SOL     OW34409   5.813   2.160   5.599
44212SOL    HW134410   5.890   2.212   5.574
44212SOL    HW234411   5.848   2.075   5.624
44213SOL     OW34412   4.930  13.167   7.956
44213SOL    HW134413   4.852  13.197   8.002
44213SOL    HW234414   4.999  13.168   8.021
44214SOL     OW34415   2.240   6.175   3.842
44214SOL    HW134416   2.229   6.268   3.861
44214SOL    HW234417   2.285   6.172   3.757
44215SOL     OW34418  11.234  13.179   1.991
44215SOL    HW134419  11.270  13.221   1.913
44215SOL    HW234420  11.275  13.093   1.992
44216SOL     OW34421   5.623   7.020  14.726
44216SOL    HW134422   5.685   6.967  14.676
44216SOL    HW234423   5.545   7.025  14.670
44217SOL     OW34424   6.539   0.356   7.501
44217SOL    HW134425   6.521   0.263   7.501
44217SOL    HW234426   6.538   0.381   7.408
44218SOL     OW34427   3.652   2.406  12.703
44218SOL    HW134428   3.687   2.468  12.768
44218SOL    HW234429   3.668   2.449  12.619
44219SOL     OW34430  10.479   9.396   1.960
44219SOL    HW134431  10.436   9.428   1.880
44219SOL    HW234432  10.410   9.396   2.026
44220SOL     OW34433  10.925   5.453  12.478
44220SOL    HW134434  10.888   5.395  12.544
44220SOL    HW234435  10.959   5.527  12.527
44221SOL     OW34436   6.149  14.474  11.131
44221SOL    HW134437   6.069  14.514  11.163
44221SOL    HW234438   6.141  14.475  11.036
44222SOL     OW34439  14.400  13.098  13.653
44222SOL    HW134440  14.422  13.005  13.654
44222SOL    HW234441  14.358  13.111  13.568
44223SOL     OW34442   4.653   5.022   3.783
44223SOL    HW134443   4.580   5.083   3.794
44223SOL    HW234444   4.616   4.937   3.808
44224SOL     OW34445  11.960  14.392   4.008
44224SOL    HW134446  11.933  14.483   4.021
44224SOL    HW234447  11.892  14.355   3.953
44225SOL     OW34448   2.597   4.090  13.078
44225SOL    HW134449   2.588   4.000  13.111
44225SOL    HW234450   2.679   4.090  13.030
44226SOL     OW34451   2.990   1.431   8.428
44226SOL    HW134452   2.895   1.425   8.428
44226SOL    HW234453   3.021   1.341   8.421
44227SOL     OW34454   6.979   0.674   4.511
44227SOL    HW134455   7.011   0.763   4.524
44227SOL    HW234456   6.936   0.651   4.593
44228SOL     OW34457   6.530   7.772   4.191
44228SOL    HW134458   6.532   7.689   4.142
44228SOL    HW234459   6.519   7.745   4.282
44229SOL     OW34460   7.565   4.283   2.834
44229SOL    HW134461   7.485   4.238   2.805
44229SOL    HW234462   7.554   4.294   2.928
44230SOL     OW34463   5.874  13.939   3.278
44230SOL    HW134464   5.885  14.007   3.344
44230SOL    HW234465   5.897  13.981   3.195
44231SOL     OW34466  14.481   8.812  14.755
44231SOL    HW134467  14.420   8.751  14.714
44231SOL    HW234468  14.474   8.795  14.849
44232SOL     OW34469  11.929  11.417   2.476
44232SOL    HW134470  11.963  11.334   2.442
44232SOL    HW234471  11.836  11.414   2.458
44233SOL     OW34472  10.218   9.920  12.787
44233SOL    HW134473  10.165   9.922  12.708
44233SOL    HW234474  10.307   9.938  12.758
44234SOL     OW34475   4.742  11.433   3.373
44234SOL    HW134476   4.740  11.471   3.460
44234SOL    HW234477   4.834  11.414   3.357
44235SOL     OW34478   4.081   9.081   8.734
44235SOL    HW134479   4.123   9.089   8.649
44235SOL    HW234480   4.082   8.987   8.752
44236SOL     OW34481   6.115   7.097  11.501
44236SOL    HW134482   6.205   7.130  11.497
44236SOL    HW234483   6.122   7.004  11.478
44237SOL     OW34484  13.047   4.288   4.265
44237SOL    HW134485  12.980   4.242   4.315
44237SOL    HW234486  13.130   4.259   4.304
44238SOL     OW34487  12.053   4.609   3.042
44238SOL    HW134488  12.041   4.558   2.962
44238SOL    HW234489  12.058   4.544   3.112
44239SOL     OW34490   8.489  12.936   8.062
44239SOL    HW134491   8.457  12.903   8.146
44239SOL    HW234492   8.518  12.859   8.014
44240SOL     OW34493  10.709   5.500   0.915
44240SOL    HW134494  10.798   5.503   0.878
44240SOL    HW234495  10.652   5.499   0.838
44241SOL     OW34496   4.620   9.209   1.742
44241SOL    HW134497   4.556   9.151   1.699
44241SOL    HW234498   4.615   9.185   1.834
44242SOL     OW34499   1.851   8.308   4.624
44242SOL    HW134500   1.791   8.237   4.604
44242SOL    HW234501   1.832   8.331   4.715
44243SOL     OW34502   5.633  13.882  10.205
44243SOL    HW134503   5.561  13.940  10.181
44243SOL    HW234504   5.691  13.935  10.259
44244SOL     OW34505  10.131   9.285  12.149
44244SOL    HW134506  10.170   9.371  12.131
44244SOL    HW234507  10.138   9.275  12.244
44245SOL     OW34508   1.108  14.105   9.091
44245SOL    HW134509   1.135  14.128   9.180
44245SOL    HW234510   1.156  14.165   9.034
44246SOL     OW34511   6.250  10.459   7.872
44246SOL    HW134512   6.196  10.533   7.844
44246SOL    HW234513   6.294  10.490   7.952
44247SOL     OW34514   8.596   5.283   0.087
44247SOL    HW134515   8.526   5.348   0.088
44247SOL    HW234516   8.640   5.296   0.003
44248SOL     OW34517  14.480   6.592   5.119
44248SOL    HW134518  14.507   6.560   5.205
44248SOL    HW234519  14.387   6.569   5.113
44249SOL     OW34520   4.456   5.533   0.418
44249SOL    HW134521   4.492   5.447   0.441
44249SOL    HW234522   4.434   5.526   0.325
44250SOL     OW34523   3.571   0.352   8.835
44250SOL    HW134524   3.566   0.257   8.822
44250SOL    HW234525   3.663   0.373   8.817
44251SOL     OW34526   1.630   4.880  11.046
44251SOL    HW134527   1.678   4.841  11.119
44251SOL    HW234528   1.575   4.948  11.087
44252SOL     OW34529   8.906  10.016   3.459
44252SOL    HW134530   8.901  10.037   3.552
44252SOL    HW234531   8.834   9.955   3.443
44253SOL     OW34532   2.551  12.908   0.610
44253SOL    HW134533   2.539  13.001   0.628
44253SOL    HW234534   2.610  12.905   0.535
44254SOL     OW34535   0.750   6.174   6.788
44254SOL    HW134536   0.797   6.092   6.805
44254SOL    HW234537   0.689   6.182   6.862
44255SOL     OW34538   1.299   3.435   0.330
44255SOL    HW134539   1.213   3.462   0.361
44255SOL    HW234540   1.304   3.467   0.240
44256SOL     OW34541  13.866  14.310   9.986
44256SOL    HW134542  13.838  14.384  10.040
44256SOL    HW234543  13.939  14.344   9.934
44257SOL     OW34544   4.054   6.056   8.995
44257SOL    HW134545   4.085   6.010   8.917
44257SOL    HW234546   3.994   6.123   8.961
44258SOL     OW34547   3.068   2.306   3.709
44258SOL    HW134548   3.091   2.218   3.680
44258SOL    HW234549   3.118   2.365   3.651
44259SOL     OW34550  13.597   7.973   0.061
44259SOL    HW134551  13.533   8.039   0.034
44259SOL    HW234552  13.590   7.904  14.873
44260SOL     OW34553   2.555   5.715   9.300
44260SOL    HW134554   2.490   5.783   9.281
44260SOL    HW234555   2.511   5.657   9.362
44261SOL     OW34556   2.130  13.075   6.708
44261SOL    HW134557   2.113  13.166   6.733
44261SOL    HW234558   2.068  13.057   6.638
44262SOL     OW34559   8.908   9.889   1.042
44262SOL    HW134560   8.909   9.797   1.015
44262SOL    HW234561   8.969   9.932   0.981
44263SOL     OW34562   0.103  12.619   1.260
44263SOL    HW134563   0.174  12.636   1.321
44263SOL    HW234564   0.093  12.701   1.211
44264SOL     OW34565  14.234   7.507   4.625
44264SOL    HW134566  14.298   7.478   4.560
44264SOL    HW234567  14.286   7.543   4.696
44265SOL     OW34568   4.163   5.342   3.848
44265SOL    HW134569   4.141   5.387   3.766
44265SOL    HW234570   4.081   5.301   3.876
44266SOL     OW34571  12.696   1.893   3.993
44266SOL    HW134572  12.749   1.959   4.039
44266SOL    HW234573  12.627   1.870   4.056
44267SOL     OW34574  14.230   4.237  10.439
44267SOL    HW134575  14.306   4.242  10.497
44267SOL    HW234576  14.261   4.190  10.362
44268SOL     OW34577  10.235  10.072   3.184
44268SOL    HW134578  10.274  10.160   3.176
44268SOL    HW234579  10.150  10.080   3.141
44269SOL     OW34580   7.422   9.064   0.313
44269SOL    HW134581   7.350   9.040   0.254
44269SOL    HW234582   7.389   9.140   0.361
44270SOL     OW34583   4.438   9.420   8.371
44270SOL    HW134584   4.374   9.414   8.442
44270SOL    HW234585   4.473   9.331   8.362
44271SOL     OW34586   6.185   9.000   0.614
44271SOL    HW134587   6.139   8.977   0.534
44271SOL    HW234588   6.165   9.093   0.627
44272SOL     OW34589   7.014  10.490   0.346
44272SOL    HW134590   6.979  10.406   0.316
44272SOL    HW234591   7.010  10.485   0.442
44273SOL     OW34592   3.667   9.412   8.215
44273SOL    HW134593   3.674   9.319   8.235
44273SOL    HW234594   3.605   9.446   8.281
44274SOL     OW34595   2.588   6.370  10.402
44274SOL    HW134596   2.676   6.389  10.371
44274SOL    HW234597   2.538   6.449  10.383
44275SOL     OW34598  11.491   5.969   4.744
44275SOL    HW134599  11.492   6.060   4.716
44275SOL    HW234600  11.582   5.949   4.765
44276SOL     OW34601   9.736  10.240  14.829
44276SOL    HW134602   9.684  10.216   0.028
44276SOL    HW234603   9.763  10.157  14.791
44277SOL     OW34604   3.276  13.762  14.462
44277SOL    HW134605   3.255  13.672  14.437
44277SOL    HW234606   3.198  13.792  14.509
44278SOL     OW34607   4.141   3.296   7.007
44278SOL    HW134608   4.230   3.262   7.010
44278SOL    HW234609   4.086   3.218   7.019
44279SOL     OW34610   1.551   6.623   6.702
44279SOL    HW134611   1.462   6.627   6.667
44279SOL    HW234612   1.541   6.635   6.796
44280SOL     OW34613   9.477   7.309  12.944
44280SOL    HW134614   9.518   7.325  12.859
44280SOL    HW234615   9.478   7.214  12.954
44281SOL     OW34616  14.327   6.017   8.321
44281SOL    HW134617  14.365   5.929   8.321
44281SOL    HW234618  14.270   6.018   8.397
44282SOL     OW34619   9.577   2.337   9.712
44282SOL    HW134620   9.529   2.350   9.793
44282SOL    HW234621   9.518   2.367   9.643
44283SOL     OW34622   7.996   1.574   1.806
44283SOL    HW134623   8.082   1.546   1.775
44283SOL    HW234624   8.011   1.660   1.845
44284SOL     OW34625   5.440  14.440  14.610
44284SOL    HW134626   5.494  14.509  14.649
44284SOL    HW234627   5.363  14.435  14.666
44285SOL     OW34628   0.478   6.970  14.102
44285SOL    HW134629   0.405   6.930  14.149
44285SOL    HW234630   0.473   6.933  14.014
44286SOL     OW34631   6.297   6.377   4.601
44286SOL    HW134632   6.304   6.380   4.697
44286SOL    HW234633   6.214   6.332   4.585
44287SOL     OW34634   3.418  11.897  12.919
44287SOL    HW134635   3.367  11.891  13.000
44287SOL    HW234636   3.468  11.815  12.917
44288SOL     OW34637   3.112  10.409   2.216
44288SOL    HW134638   3.127  10.362   2.134
44288SOL    HW234639   3.170  10.366   2.279
44289SOL     OW34640   6.443  11.821   9.843
44289SOL    HW134641   6.380  11.893   9.849
44289SOL    HW234642   6.402  11.750   9.893
44290SOL     OW34643   8.455  12.427  10.531
44290SOL    HW134644   8.482  12.358  10.591
44290SOL    HW234645   8.497  12.506  10.565
44291SOL     OW34646   1.459   8.977   7.520
44291SOL    HW134647   1.538   9.004   7.566
44291SOL    HW234648   1.478   8.889   7.489
44292SOL     OW34649  12.603   3.306   4.625
44292SOL    HW134650  12.588   3.332   4.716
44292SOL    HW234651  12.643   3.384   4.585
44293SOL     OW34652   5.909  14.782   4.562
44293SOL    HW134653   5.915  14.844   4.634
44293SOL    HW234654   5.908  14.837   4.483
44294SOL     OW34655   5.554   1.867   5.965
44294SOL    HW134656   5.596   1.813   6.031
44294SOL    HW234657   5.625   1.893   5.906
44295SOL     OW34658  12.242  11.724   0.463
44295SOL    HW134659  12.274  11.635   0.481
44295SOL    HW234660  12.221  11.759   0.550
44296SOL     OW34661  14.380   4.694  12.708
44296SOL    HW134662  14.414   4.608  12.684
44296SOL    HW234663  14.409   4.707  12.798
44297SOL     OW34664   4.379  13.604   3.808
44297SOL    HW134665   4.438  13.665   3.852
44297SOL    HW234666   4.392  13.521   3.854
44298SOL     OW34667  10.351   2.490  11.919
44298SOL    HW134668  10.446   2.498  11.928
44298SOL    HW234669  10.338   2.444  11.836
44299SOL     OW34670   9.950  14.368   1.133
44299SOL    HW134671   9.938  14.280   1.168
44299SOL    HW234672  10.024  14.359   1.073
44300SOL     OW34673   0.585   9.661  13.869
44300SOL    HW134674   0.635   9.588  13.834
44300SOL    HW234675   0.497   9.649  13.834
44301SOL     OW34676   4.958   5.552   1.742
44301SOL    HW134677   5.051   5.566   1.763
44301SOL    HW234678   4.913   5.559   1.826
44302SOL     OW34679   8.842   4.934   4.400
44302SOL    HW134680   8.797   4.850   4.409
44302SOL    HW234681   8.777   5.000   4.426
44303SOL     OW34682   4.253   0.761  11.299
44303SOL    HW134683   4.254   0.699  11.372
44303SOL    HW234684   4.261   0.847  11.340
44304SOL     OW34685   0.530   0.020  12.984
44304SOL    HW134686   0.535   0.116  12.976
44304SOL    HW234687   0.614  14.867  12.947
44305SOL     OW34688   9.191   2.323   4.289
44305SOL    HW134689   9.246   2.347   4.363
44305SOL    HW234690   9.109   2.294   4.329
44306SOL     OW34691   7.385   3.264   5.480
44306SOL    HW134692   7.454   3.329   5.490
44306SOL    HW234693   7.389   3.213   5.562
44307SOL     OW34694  10.927  14.160  13.461
44307SOL    HW134695  10.971  14.120  13.386
44307SOL    HW234696  10.886  14.087  13.507
44308SOL     OW34697   3.249   6.716   5.229
44308SOL    HW134698   3.190   6.641   5.235
44308SOL    HW234699   3.212   6.770   5.158
44309SOL     OW34700   4.011   8.079   0.662
44309SOL    HW134701   3.984   8.148   0.602
44309SOL    HW234702   4.012   8.000   0.608
44310SOL     OW34703   3.829   9.437  10.255
44310SOL    HW134704   3.866   9.443  10.344
44310SOL    HW234705   3.903   9.412  10.200
44311SOL     OW34706   6.874   7.471   3.819
44311SOL    HW134707   6.936   7.545   3.819
44311SOL    HW234708   6.869   7.444   3.728
44312SOL     OW34709  13.127   5.824   6.435
44312SOL    HW134710  13.155   5.850   6.522
44312SOL    HW234711  13.209   5.818   6.385
44313SOL     OW34712   6.038  13.589   2.267
44313SOL    HW134713   6.131  13.590   2.244
44313SOL    HW234714   6.012  13.681   2.264
44314SOL     OW34715  11.706   1.865   2.408
44314SOL    HW134716  11.698   1.829   2.496
44314SOL    HW234717  11.616   1.875   2.377
44315SOL     OW34718   1.830   0.400  10.112
44315SOL    HW134719   1.782   0.376  10.192
44315SOL    HW234720   1.856   0.316  10.074
44316SOL     OW34721   6.408   2.995   0.409
44316SOL    HW134722   6.388   3.014   0.318
44316SOL    HW234723   6.431   3.080   0.447
44317SOL     OW34724   2.114   2.102  10.300
44317SOL    HW134725   2.060   2.066  10.371
44317SOL    HW234726   2.124   2.029  10.239
44318SOL     OW34727  10.645   8.701  10.178
44318SOL    HW134728  10.687   8.770  10.127
44318SOL    HW234729  10.561   8.686  10.133
44319SOL     OW34730   5.307   9.127   9.678
44319SOL    HW134731   5.391   9.091   9.704
44319SOL    HW234732   5.317   9.222   9.687
44320SOL     OW34733   1.289  11.887   5.820
44320SOL    HW134734   1.315  11.934   5.741
44320SOL    HW234735   1.358  11.906   5.884
44321SOL     OW34736  11.955  11.768   2.269
44321SOL    HW134737  12.002  11.759   2.186
44321SOL    HW234738  11.872  11.723   2.254
44322SOL     OW34739   8.294   4.850   5.108
44322SOL    HW134740   8.266   4.877   5.195
44322SOL    HW234741   8.213   4.833   5.060
44323SOL     OW34742   0.569  14.347   9.948
44323SOL    HW134743   0.589  14.301  10.029
44323SOL    HW234744   0.653  14.384   9.920
44324SOL     OW34745  10.142   8.850  12.603
44324SOL    HW134746  10.113   8.940  12.593
44324SOL    HW234747  10.094   8.802  12.536
44325SOL     OW34748   0.302  11.464   1.686
44325SOL    HW134749   0.242  11.423   1.749
44325SOL    HW234750   0.282  11.422   1.603
44326SOL     OW34751   4.520   7.251   4.594
44326SOL    HW134752   4.608   7.236   4.560
44326SOL    HW234753   4.534   7.294   4.678
44327SOL     OW34754   9.375   6.769   6.321
44327SOL    HW134755   9.466   6.749   6.343
44327SOL    HW234756   9.345   6.826   6.391
44328SOL     OW34757  12.568  10.043   9.100
44328SOL    HW134758  12.585  10.115   9.162
44328SOL    HW234759  12.655  10.013   9.074
44329SOL     OW34760  11.166  11.796   1.030
44329SOL    HW134761  11.239  11.827   0.976
44329SOL    HW234762  11.205  11.731   1.089
44330SOL     OW34763   5.434   9.645  14.107
44330SOL    HW134764   5.473   9.559  14.125
44330SOL    HW234765   5.425   9.646  14.011
44331SOL     OW34766   2.518   8.560   1.440
44331SOL    HW134767   2.458   8.496   1.478
44331SOL    HW234768   2.463   8.634   1.416
44332SOL     OW34769  12.319  11.960   2.131
44332SOL    HW134770  12.331  11.909   2.211
44332SOL    HW234771  12.406  11.965   2.092
44333SOL     OW34772   5.917   2.007   4.033
44333SOL    HW134773   5.935   1.958   4.113
44333SOL    HW234774   5.865   1.947   3.979
44334SOL     OW34775   5.353   4.940  12.655
44334SOL    HW134776   5.315   4.876  12.595
44334SOL    HW234777   5.436   4.966  12.613
44335SOL     OW34778   2.450  11.703   4.708
44335SOL    HW134779   2.532  11.682   4.663
44335SOL    HW234780   2.449  11.798   4.712
44336SOL     OW34781   5.926  10.401   0.586
44336SOL    HW134782   5.960  10.473   0.534
44336SOL    HW234783   5.927  10.325   0.527
44337SOL     OW34784   9.986   2.036   8.613
44337SOL    HW134785   9.980   2.036   8.517
44337SOL    HW234786  10.031   1.955   8.634
44338SOL     OW34787   3.793   5.319   9.885
44338SOL    HW134788   3.834   5.317   9.972
44338SOL    HW234789   3.726   5.250   9.888
44339SOL     OW34790   4.170  13.054   0.776
44339SOL    HW134791   4.249  13.000   0.775
44339SOL    HW234792   4.197  13.136   0.818
44340SOL     OW34793  13.886   6.072   0.772
44340SOL    HW134794  13.829   6.050   0.846
44340SOL    HW234795  13.889   6.167   0.772
44341SOL     OW34796   2.557   0.390   1.758
44341SOL    HW134797   2.532   0.323   1.694
44341SOL    HW234798   2.508   0.468   1.732
44342SOL     OW34799   5.299   6.467   5.327
44342SOL    HW134800   5.387   6.454   5.362
44342SOL    HW234801   5.304   6.434   5.238
44343SOL     OW34802   0.494   4.072  11.185
44343SOL    HW134803   0.566   4.017  11.154
44343SOL    HW234804   0.418   4.044  11.134
44344SOL     OW34805  10.918   9.013   1.624
44344SOL    HW134806  10.887   8.932   1.663
44344SOL    HW234807  10.937   9.070   1.699
44345SOL     OW34808   0.005  14.089   5.642
44345SOL    HW134809  14.819  14.157   5.618
44345SOL    HW234810  14.837  14.007   5.625
44346SOL     OW34811   7.096   1.548  13.235
44346SOL    HW134812   7.153   1.565  13.160
44346SOL    HW234813   7.016   1.513  13.198
44347SOL     OW34814   9.919   6.882   0.406
44347SOL    HW134815   9.836   6.870   0.453
44347SOL    HW234816   9.892   6.890   0.314
44348SOL     OW34817  11.346   2.210   3.714
44348SOL    HW134818  11.388   2.291   3.685
44348SOL    HW234819  11.313   2.230   3.801
44349SOL     OW34820   8.902  14.378   8.173
44349SOL    HW134821   8.908  14.367   8.078
44349SOL    HW234822   8.892  14.290   8.207
44350SOL     OW34823   2.481   1.364  11.753
44350SOL    HW134824   2.536   1.438  11.727
44350SOL    HW234825   2.512   1.291  11.698
44351SOL     OW34826   3.389   1.978   2.159
44351SOL    HW134827   3.309   1.985   2.107
44351SOL    HW234828   3.457   1.957   2.094
44352SOL     OW34829   3.979   3.156   8.260
44352SOL    HW134830   3.977   3.156   8.356
44352SOL    HW234831   4.009   3.243   8.236
44353SOL     OW34832  10.831   1.952   7.549
44353SOL    HW134833  10.882   1.925   7.472
44353SOL    HW234834  10.748   1.904   7.541
44354SOL     OW34835  13.320   6.786   6.379
44354SOL    HW134836  13.391   6.790   6.443
44354SOL    HW234837  13.279   6.701   6.394
44355SOL     OW34838   1.783   8.738   2.756
44355SOL    HW134839   1.725   8.780   2.818
44355SOL    HW234840   1.787   8.799   2.682
44356SOL     OW34841  12.310   4.147   5.362
44356SOL    HW134842  12.346   4.070   5.316
44356SOL    HW234843  12.369   4.160   5.436
44357SOL     OW34844   6.453   7.115   0.460
44357SOL    HW134845   6.374   7.153   0.497
44357SOL    HW234846   6.456   7.147   0.370
44358SOL     OW34847   4.548  12.693   1.219
44358SOL    HW134848   4.642  12.673   1.224
44358SOL    HW234849   4.507  12.632   1.281
44359SOL     OW34850   0.127   1.788   5.749
44359SOL    HW134851   0.036   1.760   5.753
44359SOL    HW234852   0.123   1.882   5.729
44360SOL     OW34853   5.234   5.701   9.684
44360SOL    HW134854   5.284   5.655   9.751
44360SOL    HW234855   5.176   5.760   9.734
44361SOL     OW34856  14.124   3.025   9.615
44361SOL    HW134857  14.058   3.093   9.630
44361SOL    HW234858  14.198   3.052   9.670
44362SOL     OW34859   1.323   3.774   5.697
44362SOL    HW134860   1.328   3.737   5.785
44362SOL    HW234861   1.408   3.816   5.683
44363SOL     OW34862   9.626   2.941   0.541
44363SOL    HW134863   9.647   2.944   0.635
44363SOL    HW234864   9.535   2.911   0.538
44364SOL     OW34865   1.128  13.274   3.948
44364SOL    HW134866   1.144  13.308   4.036
44364SOL    HW234867   1.122  13.179   3.960
44365SOL     OW34868   3.765   7.597   7.314
44365SOL    HW134869   3.699   7.619   7.248
44365SOL    HW234870   3.766   7.672   7.372
44366SOL     OW34871   4.701   6.646   2.172
44366SOL    HW134872   4.729   6.556   2.160
44366SOL    HW234873   4.675   6.675   2.084
44367SOL     OW34874   0.720   4.532  12.893
44367SOL    HW134875   0.662   4.606  12.875
44367SOL    HW234876   0.730   4.531  12.988
44368SOL     OW34877   6.090  11.154   6.932
44368SOL    HW134878   6.112  11.072   6.975
44368SOL    HW234879   6.172  11.204   6.934
44369SOL     OW34880  11.589   3.073  10.419
44369SOL    HW134881  11.585   3.097  10.327
44369SOL    HW234882  11.676   3.101  10.447
44370SOL     OW34883   8.087  10.623   0.239
44370SOL    HW134884   8.131  10.574   0.170
44370SOL    HW234885   8.059  10.704   0.197
44371SOL     OW34886  14.863   0.142   7.358
44371SOL    HW134887  14.770   0.141   7.336
44371SOL    HW234888   0.019   0.221   7.316
44372SOL     OW34889   0.426  14.758  11.581
44372SOL    HW134890   0.452  14.673  11.543
44372SOL    HW234891   0.420  14.817  11.506
44373SOL     OW34892   9.510   9.122  11.215
44373SOL    HW134893   9.603   9.134  11.196
44373SOL    HW234894   9.482   9.054  11.153
44374SOL     OW34895   4.129   2.677   1.994
44374SOL    HW134896   4.194   2.732   1.951
44374SOL    HW234897   4.124   2.598   1.939
44375SOL     OW34898   7.116   6.222   2.067
44375SOL    HW134899   7.089   6.215   2.158
44375SOL    HW234900   7.034   6.232   2.018
44376SOL     OW34901  14.441  12.418   4.327
44376SOL    HW134902  14.442  12.504   4.369
44376SOL    HW234903  14.369  12.372   4.369
44377SOL     OW34904   8.503   9.193   6.656
44377SOL    HW134905   8.549   9.252   6.597
44377SOL    HW234906   8.436   9.152   6.602
44378SOL     OW34907   4.753   3.463   0.313
44378SOL    HW134908   4.679   3.523   0.322
44378SOL    HW234909   4.816   3.491   0.380
44379SOL     OW34910   2.312  12.823   0.434
44379SOL    HW134911   2.394  12.774   0.429
44379SOL    HW234912   2.317  12.871   0.517
44380SOL     OW34913   6.091   4.604   7.408
44380SOL    HW134914   6.025   4.671   7.427
44380SOL    HW234915   6.138   4.639   7.332
44381SOL     OW34916  14.282   6.664   5.367
44381SOL    HW134917  14.275   6.612   5.446
44381SOL    HW234918  14.374   6.656   5.341
44382SOL     OW34919   3.776   5.506   2.016
44382SOL    HW134920   3.728   5.433   2.056
44382SOL    HW234921   3.868   5.481   2.024
44383SOL     OW34922  12.541   4.167  13.817
44383SOL    HW134923  12.530   4.245  13.872
44383SOL    HW234924  12.504   4.096  13.869
44384SOL     OW34925  10.936  13.256   5.415
44384SOL    HW134926  11.018  13.228   5.373
44384SOL    HW234927  10.884  13.293   5.344
44385SOL     OW34928   3.222   4.754   0.341
44385SOL    HW134929   3.136   4.774   0.305
44385SOL    HW234930   3.208   4.677   0.396
44386SOL     OW34931  10.099   3.787   1.934
44386SOL    HW134932  10.079   3.877   1.909
44386SOL    HW234933  10.046   3.771   2.012
44387SOL     OW34934   6.465   4.512   9.297
44387SOL    HW134935   6.419   4.450   9.241
44387SOL    HW234936   6.449   4.597   9.257
44388SOL     OW34937   7.146   7.937   4.967
44388SOL    HW134938   7.226   7.988   4.974
44388SOL    HW234939   7.096   7.981   4.898
44389SOL     OW34940   5.511   4.821   0.751
44389SOL    HW134941   5.528   4.832   0.845
44389SOL    HW234942   5.418   4.842   0.742
44390SOL     OW34943  12.560   8.746   5.248
44390SOL    HW134944  12.523   8.780   5.330
44390SOL    HW234945  12.519   8.661   5.236
44391SOL     OW34946   0.987   9.164   7.490
44391SOL    HW134947   0.897   9.147   7.459
44391SOL    HW234948   0.993   9.259   7.496
44392SOL     OW34949   3.234  12.954   8.503
44392SOL    HW134950   3.319  12.928   8.467
44392SOL    HW234951   3.189  12.995   8.429
44393SOL     OW34952   9.321   8.022   0.230
44393SOL    HW134953   9.389   8.023   0.163
44393SOL    HW234954   9.241   8.045   0.183
44394SOL     OW34955  13.575   2.423  14.745
44394SOL    HW134956  13.548   2.407  14.836
44394SOL    HW234957  13.530   2.356  14.694
44395SOL     OW34958   9.234   3.706   1.840
44395SOL    HW134959   9.291   3.650   1.892
44395SOL    HW234960   9.184   3.757   1.904
44396SOL     OW34961   5.123   2.826   7.065
44396SOL    HW134962   5.034   2.792   7.052
44396SOL    HW234963   5.136   2.821   7.160
44397SOL     OW34964  10.427   5.046   0.892
44397SOL    HW134965  10.346   5.097   0.885
44397SOL    HW234966  10.397   4.958   0.916
44398SOL     OW34967   7.119   6.628   4.758
44398SOL    HW134968   7.050   6.580   4.803
44398SOL    HW234969   7.137   6.576   4.680
44399SOL     OW34970  11.410   6.553   5.811
44399SOL    HW134971  11.385   6.616   5.743
44399SOL    HW234972  11.351   6.479   5.798
44400SOL     OW34973  13.509  13.182   4.675
44400SOL    HW134974  13.510  13.116   4.745
44400SOL    HW234975  13.429  13.232   4.690
44401SOL     OW34976   6.631  10.061   5.969
44401SOL    HW134977   6.536  10.066   5.960
44401SOL    HW234978   6.665  10.121   5.903
44402SOL     OW34979  11.834   1.427   8.820
44402SOL    HW134980  11.862   1.380   8.742
44402SOL    HW234981  11.842   1.363   8.891
44403SOL     OW34982   3.450  13.614   0.296
44403SOL    HW134983   3.522  13.580   0.350
44403SOL    HW234984   3.374  13.612   0.355
44404SOL     OW34985  12.860   3.908  11.515
44404SOL    HW134986  12.855   3.835  11.454
44404SOL    HW234987  12.813   3.979  11.472
44405SOL     OW34988  11.900   5.569   7.574
44405SOL    HW134989  11.911   5.474   7.575
44405SOL    HW234990  11.934   5.598   7.659
44406SOL     OW34991   3.550   0.440  14.289
44406SOL    HW134992   3.612   0.375  14.256
44406SOL    HW234993   3.496   0.463  14.214
44407SOL     OW34994  14.070   6.640   8.794
44407SOL    HW134995  14.039   6.565   8.846
44407SOL    HW234996  14.152   6.665   8.835
44408SOL     OW34997   9.881  10.085   1.517
44408SOL    HW134998   9.796  10.057   1.551
44408SOL    HW234999   9.863  10.112   1.427
44409SOL     OW35000   7.649  10.661   8.452
44409SOL    HW135001   7.645  10.612   8.369
44409SOL    HW235002   7.619  10.598   8.518
44410SOL     OW35003   1.637   6.377   5.537
44410SOL    HW135004   1.664   6.442   5.601
44410SOL    HW235005   1.659   6.293   5.577
44411SOL     OW35006   3.317   5.389   8.029
44411SOL    HW135007   3.349   5.305   8.062
44411SOL    HW235008   3.232   5.401   8.071
44412SOL     OW35009  13.503   7.020   7.543
44412SOL    HW135010  13.443   7.059   7.606
44412SOL    HW235011  13.577   6.990   7.596
44413SOL     OW35012  11.078  10.080   2.756
44413SOL    HW135013  11.133  10.114   2.826
44413SOL    HW235014  11.138  10.061   2.685
44414SOL     OW35015   3.215   3.260  13.893
44414SOL    HW135016   3.309   3.248  13.880
44414SOL    HW235017   3.177   3.245  13.807
44415SOL     OW35018   1.554   2.831   8.185
44415SOL    HW135019   1.550   2.891   8.111
44415SOL    HW235020   1.645   2.803   8.188
44416SOL     OW35021   1.291   1.980   6.367
44416SOL    HW135022   1.340   2.009   6.290
44416SOL    HW235023   1.352   1.923   6.414
44417SOL     OW35024   4.266   5.612   1.519
44417SOL    HW135025   4.309   5.573   1.443
44417SOL    HW235026   4.177   5.631   1.488
44418SOL     OW35027   3.939   1.551   4.186
44418SOL    HW135028   3.900   1.638   4.175
44418SOL    HW235029   4.033   1.567   4.185
44419SOL     OW35030   4.869  12.109   6.575
44419SOL    HW135031   4.874  12.126   6.481
44419SOL    HW235032   4.800  12.044   6.584
44420SOL     OW35033   9.686   2.799   6.267
44420SOL    HW135034   9.654   2.722   6.316
44420SOL    HW235035   9.758   2.832   6.320
44421SOL     OW35036  12.677  14.790   2.503
44421SOL    HW135037  12.625  14.846   2.446
44421SOL    HW235038  12.700  14.715   2.449
44422SOL     OW35039  11.171  12.172   2.137
44422SOL    HW135040  11.163  12.267   2.128
44422SOL    HW235041  11.089  12.138   2.101
44423SOL     OW35042   7.978   5.596   0.855
44423SOL    HW135043   7.935   5.635   0.778
44423SOL    HW235044   7.938   5.509   0.862
44424SOL     OW35045   2.663   8.218   0.220
44424SOL    HW135046   2.675   8.228   0.126
44424SOL    HW235047   2.574   8.184   0.229
44425SOL     OW35048  10.998   7.551   6.185
44425SOL    HW135049  10.934   7.494   6.227
44425SOL    HW235050  11.034   7.604   6.256
44426SOL     OW35051   0.972   3.936  11.800
44426SOL    HW135052   0.952   3.880  11.725
44426SOL    HW235053   0.914   4.012  11.788
44427SOL     OW35054   4.285   2.423  12.907
44427SOL    HW135055   4.368   2.438  12.953
44427SOL    HW235056   4.280   2.328  12.898
44428SOL     OW35057  14.031   8.231   0.920
44428SOL    HW135058  14.092   8.291   0.963
44428SOL    HW235059  14.084   8.186   0.854
44429SOL     OW35060   0.395   4.721  12.519
44429SOL    HW135061   0.380   4.627  12.515
44429SOL    HW235062   0.343   4.751  12.594
44430SOL     OW35063   5.859  13.249   8.979
44430SOL    HW135064   5.887  13.337   8.954
44430SOL    HW235065   5.867  13.248   9.074
44431SOL     OW35066   6.920  12.239  10.082
44431SOL    HW135067   6.868  12.168  10.045
44431SOL    HW235068   6.962  12.281  10.006
44432SOL     OW35069  14.733   9.639  13.495
44432SOL    HW135070  14.678   9.712  13.525
44432SOL    HW235071  14.768   9.600  13.575
44433SOL     OW35072  12.032   3.898   6.063
44433SOL    HW135073  11.971   3.969   6.043
44433SOL    HW235074  12.090   3.934   6.131
44434SOL     OW35075  13.241   7.141   1.651
44434SOL    HW135076  13.218   7.234   1.645
44434SOL    HW235077  13.309   7.129   1.585
44435SOL     OW35078   6.220   5.026  11.708
44435SOL    HW135079   6.162   5.095  11.740
44435SOL    HW235080   6.292   5.073  11.665
44436SOL     OW35081  14.548   3.545   2.637
44436SOL    HW135082  14.631   3.567   2.680
44436SOL    HW235083  14.572   3.532   2.545
44437SOL     OW35084   2.186   0.593  13.380
44437SOL    HW135085   2.236   0.528  13.332
44437SOL    HW235086   2.112   0.545  13.417
44438SOL     OW35087   6.804   7.495   1.269
44438SOL    HW135088   6.712   7.472   1.282
44438SOL    HW235089   6.801   7.579   1.223
44439SOL     OW35090   1.116   7.300  10.295
44439SOL    HW135091   1.166   7.373  10.330
44439SOL    HW235092   1.153   7.285  10.208
44440SOL     OW35093   1.004   7.412   3.810
44440SOL    HW135094   0.997   7.452   3.723
44440SOL    HW235095   0.913   7.404   3.839
44441SOL     OW35096  11.974  11.760   3.157
44441SOL    HW135097  11.902  11.727   3.104
44441SOL    HW235098  12.039  11.788   3.093
44442SOL     OW35099   2.043  11.168   0.147
44442SOL    HW135100   2.030  11.241   0.208
44442SOL    HW235101   2.092  11.206   0.074
44443SOL     OW35102  13.024  12.094   1.441
44443SOL    HW135103  13.029  12.054   1.527
44443SOL    HW235104  13.048  12.024   1.380
44444SOL     OW35105   2.698  11.824  10.412
44444SOL    HW135106   2.709  11.890  10.344
44444SOL    HW235107   2.735  11.864  10.491
44445SOL     OW35108   8.721   6.419   5.450
44445SOL    HW135109   8.810   6.384   5.456
44445SOL    HW235110   8.668   6.345   5.421
44446SOL     OW35111   1.181   8.048   9.094
44446SOL    HW135112   1.130   7.973   9.063
44446SOL    HW235113   1.183   8.108   9.019
44447SOL     OW35114  14.493   9.084   3.542
44447SOL    HW135115  14.505   9.066   3.449
44447SOL    HW235116  14.452   9.006   3.577
44448SOL     OW35117  11.652   1.980  13.457
44448SOL    HW135118  11.600   2.036  13.399
44448SOL    HW235119  11.588   1.923  13.499
44449SOL     OW35120   8.955   4.590   5.280
44449SOL    HW135121   9.039   4.564   5.316
44449SOL    HW235122   8.948   4.541   5.198
44450SOL     OW35123   7.121  11.015   5.489
44450SOL    HW135124   7.042  11.035   5.538
44450SOL    HW235125   7.192  11.051   5.542
44451SOL     OW35126   3.504  12.776  14.707
44451SOL    HW135127   3.488  12.771  14.801
44451SOL    HW235128   3.417  12.776  14.667
44452SOL     OW35129   6.448   0.867   0.713
44452SOL    HW135130   6.370   0.896   0.761
44452SOL    HW235131   6.518   0.923   0.745
44453SOL     OW35132   1.083  12.501   3.101
44453SOL    HW135133   1.070  12.406   3.102
44453SOL    HW235134   1.116  12.519   3.013
44454SOL     OW35135   9.690  10.219   3.151
44454SOL    HW135136   9.704  10.182   3.064
44454SOL    HW235137   9.669  10.311   3.136
44455SOL     OW35138  10.831  11.383   7.621
44455SOL    HW135139  10.776  11.429   7.684
44455SOL    HW235140  10.771  11.354   7.552
44456SOL     OW35141  12.247  14.768  11.945
44456SOL    HW135142  12.175  14.805  11.894
44456SOL    HW235143  12.274  14.838  12.004
44457SOL     OW35144  10.855  14.431   9.971
44457SOL    HW135145  10.900  14.508  10.005
44457SOL    HW235146  10.922  14.381   9.925
44458SOL     OW35147  12.999   3.729  14.577
44458SOL    HW135148  12.909   3.699  14.575
44458SOL    HW235149  13.016   3.761  14.488
44459SOL     OW35150   6.287  13.981  11.459
44459SOL    HW135151   6.272  13.891  11.428
44459SOL    HW235152   6.337  14.022  11.389
44460SOL     OW35153  12.950  13.498  13.916
44460SOL    HW135154  13.038  13.460  13.924
44460SOL    HW235155  12.923  13.514  14.007
44461SOL     OW35156   5.449   5.992   9.583
44461SOL    HW135157   5.488   5.944   9.509
44461SOL    HW235158   5.355   5.990   9.567
44462SOL     OW35159  10.531   8.651   7.789
44462SOL    HW135160  10.469   8.698   7.845
44462SOL    HW235161  10.484   8.640   7.706
44463SOL     OW35162  12.100   6.768   8.962
44463SOL    HW135163  12.036   6.700   8.985
44463SOL    HW235164  12.174   6.719   8.926
44464SOL     OW35165   0.518   9.286  11.466
44464SOL    HW135166   0.466   9.237  11.530
44464SOL    HW235167   0.601   9.301  11.510
44465SOL     OW35168   8.667   2.231   4.367
44465SOL    HW135169   8.680   2.154   4.312
44465SOL    HW235170   8.572   2.236   4.379
44466SOL     OW35171   0.265  11.268   9.602
44466SOL    HW135172   0.333  11.211   9.566
44466SOL    HW235173   0.226  11.217   9.673
44467SOL     OW35174  10.388   0.837  13.817
44467SOL    HW135175  10.446   0.826  13.892
44467SOL    HW235176  10.357   0.927  13.823
44468SOL     OW35177  14.449  12.827   6.485
44468SOL    HW135178  14.355  12.827   6.502
44468SOL    HW235179  14.459  12.778   6.404
44469SOL     OW35180   5.245   3.065  10.952
44469SOL    HW135181   5.280   3.145  10.914
44469SOL    HW235182   5.295   3.053  11.033
44470SOL     OW35183   9.921   5.091   4.180
44470SOL    HW135184   9.935   5.025   4.112
44470SOL    HW235185   9.868   5.047   4.246
44471SOL     OW35186   4.446   7.025   0.050
44471SOL    HW135187   4.468   7.110   0.088
44471SOL    HW235188   4.444   6.965   0.125
44472SOL     OW35189  12.631   2.639   2.787
44472SOL    HW135190  12.708   2.667   2.736
44472SOL    HW235191  12.660   2.647   2.879
44473SOL     OW35192   6.247   8.645  14.733
44473SOL    HW135193   6.176   8.657  14.796
44473SOL    HW235194   6.210   8.670  14.649
44474SOL     OW35195   5.313   4.580   8.927
44474SOL    HW135196   5.245   4.584   8.861
44474SOL    HW235197   5.281   4.517   8.992
44475SOL     OW35198  14.742   7.237   9.539
44475SOL    HW135199  14.798   7.311   9.565
44475SOL    HW235200  14.685   7.222   9.614
44476SOL     OW35201   2.924   7.139   1.676
44476SOL    HW135202   2.866   7.149   1.601
44476SOL    HW235203   2.969   7.056   1.660
44477SOL     OW35204   5.839   1.442   3.533
44477SOL    HW135205   5.899   1.470   3.464
44477SOL    HW235206   5.830   1.347   3.520
44478SOL     OW35207   1.206   4.143   1.067
44478SOL    HW135208   1.229   4.198   0.992
44478SOL    HW235209   1.208   4.203   1.142
44479SOL     OW35210   9.071   3.886  12.626
44479SOL    HW135211   9.138   3.819  12.614
44479SOL    HW235212   9.118   3.969  12.612
44480SOL     OW35213   1.372   2.040  12.554
44480SOL    HW135214   1.431   2.091  12.500
44480SOL    HW235215   1.339   1.971  12.496
44481SOL     OW35216   6.297  10.959   8.270
44481SOL    HW135217   6.276  10.908   8.348
44481SOL    HW235218   6.370  10.912   8.229
44482SOL     OW35219   3.482   5.809  14.462
44482SOL    HW135220   3.482   5.828  14.368
44482SOL    HW235221   3.551   5.744  14.473
44483SOL     OW35222   2.064  13.323   6.781
44483SOL    HW135223   2.077  13.401   6.727
44483SOL    HW235224   2.111  13.341   6.862
44484SOL     OW35225  10.988   4.780   2.368
44484SOL    HW135226  11.081   4.791   2.346
44484SOL    HW235227  10.986   4.773   2.463
44485SOL     OW35228   1.262   7.247  14.125
44485SOL    HW135229   1.349   7.246  14.164
44485SOL    HW235230   1.220   7.168  14.159
44486SOL     OW35231   9.467   0.308  13.368
44486SOL    HW135232   9.544   0.253  13.357
44486SOL    HW235233   9.501   0.397  13.368
44487SOL     OW35234  13.160   3.862   5.209
44487SOL    HW135235  13.110   3.797   5.260
44487SOL    HW235236  13.103   3.938   5.204
44488SOL     OW35237   7.675   5.958   2.662
44488SOL    HW135238   7.674   5.982   2.755
44488SOL    HW235239   7.588   5.981   2.631
44489SOL     OW35240   8.596   8.705   8.192
44489SOL    HW135241   8.652   8.757   8.134
44489SOL    HW235242   8.611   8.615   8.166
44490SOL     OW35243   7.279   5.471  14.391
44490SOL    HW135244   7.345   5.430  14.336
44490SOL    HW235245   7.214   5.505  14.330
44491SOL     OW35246   9.320  14.850  12.558
44491SOL    HW135247   9.316   0.024  12.639
44491SOL    HW235248   9.410  14.819  12.553
44492SOL     OW35249   3.439   3.319  10.992
44492SOL    HW135250   3.479   3.405  10.983
44492SOL    HW235251   3.510   3.262  11.022
44493SOL     OW35252   8.830  13.850  13.136
44493SOL    HW135253   8.796  13.767  13.168
44493SOL    HW235254   8.924  13.846  13.153
44494SOL     OW35255   2.046  12.014  11.793
44494SOL    HW135256   2.023  11.930  11.832
44494SOL    HW235257   1.994  12.017  11.712
44495SOL     OW35258   4.726   3.341   1.454
44495SOL    HW135259   4.639   3.334   1.492
44495SOL    HW235260   4.776   3.393   1.517
44496SOL     OW35261   6.331   9.785   7.905
44496SOL    HW135262   6.257   9.759   7.959
44496SOL    HW235263   6.407   9.780   7.964
44497SOL     OW35264  11.791   1.781   4.073
44497SOL    HW135265  11.824   1.819   3.993
44497SOL    HW235266  11.795   1.686   4.059
44498SOL     OW35267  10.845   7.929   7.268
44498SOL    HW135268  10.763   7.925   7.318
44498SOL    HW235269  10.825   7.884   7.186
44499SOL     OW35270  12.163  10.174   7.213
44499SOL    HW135271  12.186  10.155   7.304
44499SOL    HW235272  12.155  10.088   7.172
44500SOL     OW35273  12.473  11.395  13.496
44500SOL    HW135274  12.425  11.364  13.419
44500SOL    HW235275  12.409  11.447  13.544
44501SOL     OW35276  11.881  10.172  14.067
44501SOL    HW135277  11.900  10.098  14.009
44501SOL    HW235278  11.891  10.137  14.155
44502SOL     OW35279   6.363   4.873  14.437
44502SOL    HW135280   6.379   4.786  14.399
44502SOL    HW235281   6.289   4.907  14.386
44503SOL     OW35282  10.095   8.648   8.016
44503SOL    HW135283  10.114   8.575   8.075
44503SOL    HW235284  10.011   8.625   7.977
44504SOL     OW35285   0.064   3.457  11.499
44504SOL    HW135286   0.058   3.552  11.495
44504SOL    HW235287  14.851   3.427  11.505
44505SOL     OW35288   7.689  14.096  10.858
44505SOL    HW135289   7.717  14.159  10.924
44505SOL    HW235290   7.768  14.045  10.839
44506SOL     OW35291   7.722  10.073  14.631
44506SOL    HW135292   7.628  10.076  14.651
44506SOL    HW235293   7.762  10.035  14.710
44507SOL     OW35294   7.687   0.977  10.232
44507SOL    HW135295   7.750   0.913  10.264
44507SOL    HW235296   7.640   0.933  10.161
44508SOL     OW35297   4.392   5.051   9.344
44508SOL    HW135298   4.423   5.004   9.267
44508SOL    HW235299   4.337   4.988   9.390
44509SOL     OW35300  12.549   5.983   3.164
44509SOL    HW135301  12.597   6.059   3.198
44509SOL    HW235302  12.464   6.019   3.138
44510SOL     OW35303   8.826   3.857  13.541
44510SOL    HW135304   8.749   3.906  13.570
44510SOL    HW235305   8.898   3.889  13.596
44511SOL     OW35306  14.176   9.374  13.401
44511SOL    HW135307  14.255   9.375  13.456
44511SOL    HW235308  14.115   9.432  13.445
44512SOL     OW35309   1.613  11.825   2.751
44512SOL    HW135310   1.642  11.903   2.799
44512SOL    HW235311   1.689  11.767   2.750
44513SOL     OW35312   1.195  12.520   2.842
44513SOL    HW135313   1.246  12.564   2.775
44513SOL    HW235314   1.169  12.437   2.803
44514SOL     OW35315   6.339  11.610  10.294
44514SOL    HW135316   6.426  11.572  10.306
44514SOL    HW235317   6.354  11.691  10.246
44515SOL     OW35318   3.183   7.421  11.824
44515SOL    HW135319   3.157   7.339  11.782
44515SOL    HW235320   3.272   7.436  11.792
44516SOL     OW35321   6.255   6.785   1.295
44516SOL    HW135322   6.288   6.711   1.245
44516SOL    HW235323   6.182   6.819   1.243
44517SOL     OW35324  14.536  10.657  12.679
44517SOL    HW135325  14.463  10.718  12.667
44517SOL    HW235326  14.614  10.708  12.657
44518SOL     OW35327   2.801  12.170   6.884
44518SOL    HW135328   2.892  12.195   6.864
44518SOL    HW235329   2.761  12.154   6.799
44519SOL     OW35330   2.353   1.697   4.264
44519SOL    HW135331   2.317   1.687   4.176
44519SOL    HW235332   2.440   1.735   4.249
44520SOL     OW35333   6.478  13.342   2.601
44520SOL    HW135334   6.478  13.438   2.601
44520SOL    HW235335   6.560  13.318   2.557
44521SOL     OW35336   7.530   9.360   2.199
44521SOL    HW135337   7.460   9.403   2.150
44521SOL    HW235338   7.610   9.388   2.154
44522SOL     OW35339   6.187  12.091  12.969
44522SOL    HW135340   6.213  11.999  12.973
44522SOL    HW235341   6.151  12.102  12.881
44523SOL     OW35342   2.672  11.648   2.891
44523SOL    HW135343   2.620  11.719   2.852
44523SOL    HW235344   2.735  11.625   2.822
44524SOL     OW35345   5.679  12.874   8.706
44524SOL    HW135346   5.651  12.964   8.693
44524SOL    HW235347   5.759  12.880   8.758
44525SOL     OW35348  12.084  10.761   4.650
44525SOL    HW135349  12.019  10.823   4.615
44525SOL    HW235350  12.096  10.697   4.580
44526SOL     OW35351  10.037   9.688   8.656
44526SOL    HW135352   9.971   9.619   8.655
44526SOL    HW235353  10.000   9.756   8.713
44527SOL     OW35354   5.299   9.095   3.728
44527SOL    HW135355   5.312   9.186   3.701
44527SOL    HW235356   5.310   9.044   3.647
44528SOL     OW35357   0.440  12.077  11.208
44528SOL    HW135358   0.528  12.102  11.235
44528SOL    HW235359   0.452  12.002  11.150
44529SOL     OW35360  12.756   3.950   7.588
44529SOL    HW135361  12.695   4.023   7.599
44529SOL    HW235362  12.769   3.943   7.494
44530SOL     OW35363   4.637   6.130  12.141
44530SOL    HW135364   4.549   6.155  12.112
44530SOL    HW235365   4.639   6.035  12.135
44531SOL     OW35366   8.962  14.125   6.119
44531SOL    HW135367   8.945  14.114   6.213
44531SOL    HW235368   8.907  14.058   6.077
44532SOL     OW35369  10.154  13.385  14.783
44532SOL    HW135370  10.185  13.301  14.815
44532SOL    HW235371  10.138  13.437  14.862
44533SOL     OW35372   5.155  13.040   4.444
44533SOL    HW135373   5.131  13.074   4.530
44533SOL    HW235374   5.217  13.104   4.409
44534SOL     OW35375  14.796   1.550   8.472
44534SOL    HW135376  14.706   1.538   8.443
44534SOL    HW235377  14.834   1.611   8.409
44535SOL     OW35378   8.978  11.030  12.263
44535SOL    HW135379   9.063  10.994  12.236
44535SOL    HW235380   8.925  11.028  12.183
44536SOL     OW35381  10.371   3.996   6.488
44536SOL    HW135382  10.293   3.970   6.536
44536SOL    HW235383  10.425   4.041   6.552
44537SOL     OW35384   8.022   7.692   7.960
44537SOL    HW135385   7.954   7.633   7.991
44537SOL    HW235386   7.976   7.751   7.900
44538SOL     OW35387  12.374  10.318  11.066
44538SOL    HW135388  12.417  10.235  11.043
44538SOL    HW235389  12.291  10.315  11.019
44539SOL     OW35390  10.982   8.500   2.447
44539SOL    HW135391  10.965   8.594   2.459
44539SOL    HW235392  10.962   8.483   2.355
44540SOL     OW35393   3.525   9.101   1.518
44540SOL    HW135394   3.529   9.005   1.525
44540SOL    HW235395   3.461   9.116   1.448
44541SOL     OW35396   0.123   0.297  13.214
44541SOL    HW135397   0.139   0.203  13.201
44541SOL    HW235398   0.201   0.328  13.260
44542SOL     OW35399   7.698  10.093  13.168
44542SOL    HW135400   7.705  10.142  13.086
44542SOL    HW235401   7.674  10.159  13.234
44543SOL     OW35402   3.477  13.342   8.970
44543SOL    HW135403   3.449  13.424   8.930
44543SOL    HW235404   3.564  13.362   9.006
44544SOL     OW35405  10.774   3.140   5.087
44544SOL    HW135406  10.739   3.210   5.142
44544SOL    HW235407  10.779   3.064   5.145
44545SOL     OW35408   5.681   2.431   9.413
44545SOL    HW135409   5.727   2.354   9.447
44545SOL    HW235410   5.748   2.499   9.409
44546SOL     OW35411  12.444   2.916  11.199
44546SOL    HW135412  12.514   2.938  11.138
44546SOL    HW235413  12.472   2.833  11.239
44547SOL     OW35414   3.586  10.715   3.551
44547SOL    HW135415   3.544  10.782   3.497
44547SOL    HW235416   3.520  10.694   3.618
44548SOL     OW35417   0.944   6.099  14.216
44548SOL    HW135418   0.873   6.157  14.191
44548SOL    HW235419   1.020   6.156  14.226
44549SOL     OW35420  13.631   9.065   4.602
44549SOL    HW135421  13.558   9.003   4.592
44549SOL    HW235422  13.676   9.062   4.517
44550SOL     OW35423   7.373   4.347   7.257
44550SOL    HW135424   7.381   4.373   7.165
44550SOL    HW235425   7.453   4.296   7.274
44551SOL     OW35426  13.190   1.915  14.418
44551SOL    HW135427  13.187   1.953  14.330
44551SOL    HW235428  13.118   1.956  14.465
44552SOL     OW35429   9.155   2.364   1.497
44552SOL    HW135430   9.108   2.392   1.575
44552SOL    HW235431   9.207   2.289   1.525
44553SOL     OW35432   4.865   7.912   7.328
44553SOL    HW135433   4.946   7.864   7.310
44553SOL    HW235434   4.816   7.909   7.246
44554SOL     OW35435   2.637   2.168  14.707
44554SOL    HW135436   2.605   2.081  14.733
44554SOL    HW235437   2.696   2.193  14.778
44555SOL     OW35438  10.754   9.189  10.893
44555SOL    HW135439  10.698   9.171  10.818
44555SOL    HW235440  10.694   9.205  10.965
44556SOL     OW35441  11.990  12.523   2.302
44556SOL    HW135442  11.956  12.443   2.261
44556SOL    HW235443  11.959  12.594   2.246
44557SOL     OW35444   7.041   3.073  11.948
44557SOL    HW135445   7.101   3.137  11.987
44557SOL    HW235446   7.027   3.104  11.858
44558SOL     OW35447   3.243   7.121   9.234
44558SOL    HW135448   3.209   7.203   9.271
44558SOL    HW235449   3.196   7.052   9.281
44559SOL     OW35450  13.068   7.492   3.764
44559SOL    HW135451  13.022   7.482   3.847
44559SOL    HW235452  13.000   7.482   3.697
44560SOL     OW35453   3.099  10.527   3.107
44560SOL    HW135454   3.128  10.440   3.079
44560SOL    HW235455   3.081  10.574   3.026
44561SOL     OW35456   5.562   7.012  10.032
44561SOL    HW135457   5.529   7.049   9.950
44561SOL    HW235458   5.656   7.030  10.030
44562SOL     OW35459   8.413  12.857   5.402
44562SOL    HW135460   8.437  12.949   5.410
44562SOL    HW235461   8.472  12.811   5.461
44563SOL     OW35462   5.290   1.224  12.182
44563SOL    HW135463   5.315   1.163  12.112
44563SOL    HW235464   5.373   1.265  12.208
44564SOL     OW35465  12.193   1.533   5.547
44564SOL    HW135466  12.114   1.577   5.580
44564SOL    HW235467  12.210   1.573   5.462
44565SOL     OW35468   5.677  12.483   9.042
44565SOL    HW135469   5.736  12.473   9.117
44565SOL    HW235470   5.719  12.552   8.989
44566SOL     OW35471  11.666   3.164   3.044
44566SOL    HW135472  11.611   3.100   3.089
44566SOL    HW235473  11.700   3.118   2.968
44567SOL     OW35474   4.291  11.371   6.862
44567SOL    HW135475   4.236  11.404   6.933
44567SOL    HW235476   4.238  11.381   6.783
44568SOL     OW35477   2.780   2.654   8.905
44568SOL    HW135478   2.702   2.657   8.961
44568SOL    HW235479   2.766   2.578   8.848
44569SOL     OW35480   6.040   9.685  14.727
44569SOL    HW135481   6.122   9.688  14.678
44569SOL    HW235482   5.980   9.741  14.678
44570SOL     OW35483   0.605   3.810  10.831
44570SOL    HW135484   0.560   3.729  10.809
44570SOL    HW235485   0.630   3.847  10.747
44571SOL     OW35486  11.196  14.238   1.858
44571SOL    HW135487  11.214  14.328   1.883
44571SOL    HW235488  11.243  14.185   1.922
44572SOL     OW35489   4.973   7.479  10.352
44572SOL    HW135490   4.970   7.499  10.445
44572SOL    HW235491   5.007   7.389  10.348
44573SOL     OW35492  11.375   1.798   9.977
44573SOL    HW135493  11.283   1.775   9.973
44573SOL    HW235494  11.389   1.856   9.903
44574SOL     OW35495   9.877   5.523   5.278
44574SOL    HW135496   9.964   5.541   5.313
44574SOL    HW235497   9.850   5.443   5.323
44575SOL     OW35498   3.125  13.448   0.077
44575SOL    HW135499   3.037  13.440   0.112
44575SOL    HW235500   3.113  13.483  14.866
44576SOL     OW35501  10.142  12.294  14.039
44576SOL    HW135502  10.175  12.204  14.040
44576SOL    HW235503  10.154  12.323  13.949
44577SOL     OW35504  10.502  14.390   2.714
44577SOL    HW135505  10.464  14.303   2.703
44577SOL    HW235506  10.564  14.399   2.641
44578SOL     OW35507  14.743  14.035   8.146
44578SOL    HW135508  14.821  13.987   8.117
44578SOL    HW235509  14.698  14.058   8.064
44579SOL     OW35510   4.950   8.430  11.943
44579SOL    HW135511   5.031   8.381  11.929
44579SOL    HW235512   4.896   8.372  11.997
44580SOL     OW35513   9.084   4.526   1.390
44580SOL    HW135514   9.095   4.455   1.327
44580SOL    HW235515   9.001   4.567   1.366
44581SOL     OW35516   1.125  11.018  10.308
44581SOL    HW135517   1.053  11.026  10.245
44581SOL    HW235518   1.096  10.951  10.370
44582SOL     OW35519   5.386   5.974  12.354
44582SOL    HW135520   5.393   5.903  12.418
44582SOL    HW235521   5.393   5.930  12.270
44583SOL     OW35522   7.242   6.574   8.158
44583SOL    HW135523   7.247   6.479   8.169
44583SOL    HW235524   7.154   6.597   8.187
44584SOL     OW35525   3.129   0.681  13.877
44584SOL    HW135526   3.043   0.676  13.834
44584SOL    HW235527   3.139   0.773  13.900
44585SOL     OW35528   2.507  14.259   1.531
44585SOL    HW135529   2.489  14.277   1.623
44585SOL    HW235530   2.467  14.174   1.514
44586SOL     OW35531   3.024   0.326   5.149
44586SOL    HW135532   3.055   0.239   5.173
44586SOL    HW235533   2.940   0.335   5.194
44587SOL     OW35534   1.461  10.161  13.462
44587SOL    HW135535   1.385  10.139  13.515
44587SOL    HW235536   1.493  10.244  13.498
44588SOL     OW35537   0.643   2.136  13.743
44588SOL    HW135538   0.548   2.132  13.732
44588SOL    HW235539   0.673   2.192  13.671
44589SOL     OW35540   8.639   2.878  14.221
44589SOL    HW135541   8.570   2.813  14.236
44589SOL    HW235542   8.683   2.886  14.305
44590SOL     OW35543   6.890  11.887   3.618
44590SOL    HW135544   6.971  11.878   3.668
44590SOL    HW235545   6.902  11.969   3.569
44591SOL     OW35546   2.332   6.052   4.983
44591SOL    HW135547   2.332   6.144   4.954
44591SOL    HW235548   2.319   6.057   5.077
44592SOL     OW35549   5.866   9.394   6.546
44592SOL    HW135550   5.845   9.328   6.480
44592SOL    HW235551   5.918   9.348   6.611
44593SOL     OW35552   1.177   0.639  14.764
44593SOL    HW135553   1.137   0.703  14.823
44593SOL    HW235554   1.104   0.608  14.710
44594SOL     OW35555   9.978  14.260   1.610
44594SOL    HW135556   9.982  14.190   1.544
44594SOL    HW235557   9.972  14.214   1.693
44595SOL     OW35558   2.400  10.410   3.969
44595SOL    HW135559   2.478  10.444   3.925
44595SOL    HW235560   2.418  10.422   4.062
44596SOL     OW35561  12.380  11.503   7.327
44596SOL    HW135562  12.329  11.515   7.247
44596SOL    HW235563  12.317  11.517   7.398
44597SOL     OW35564   8.185   2.580  13.027
44597SOL    HW135565   8.225   2.581  12.940
44597SOL    HW235566   8.210   2.663  13.067
44598SOL     OW35567   0.545  10.767   5.300
44598SOL    HW135568   0.593  10.820   5.364
44598SOL    HW235569   0.463  10.746   5.345
44599SOL     OW35570   2.718   0.496   8.353
44599SOL    HW135571   2.805   0.535   8.360
44599SOL    HW235572   2.690   0.517   8.264
44600SOL     OW35573  10.357   4.456   3.845
44600SOL    HW135574  10.410   4.377   3.833
44600SOL    HW235575  10.270   4.423   3.868
44601SOL     OW35576   9.647  11.313   6.806
44601SOL    HW135577   9.688  11.227   6.798
44601SOL    HW235578   9.644  11.328   6.901
44602SOL     OW35579  11.588   7.691  12.972
44602SOL    HW135580  11.589   7.596  12.969
44602SOL    HW235581  11.613   7.719  12.884
44603SOL     OW35582   5.048  10.704   2.236
44603SOL    HW135583   5.023  10.784   2.191
44603SOL    HW235584   5.135  10.683   2.202
44604SOL     OW35585  13.232   9.574  13.421
44604SOL    HW135586  13.292   9.621  13.362
44604SOL    HW235587  13.148   9.617  13.409
44605SOL     OW35588   0.803  10.573  11.402
44605SOL    HW135589   0.853  10.641  11.356
44605SOL    HW235590   0.742  10.621  11.458
44606SOL     OW35591   0.007  10.278   1.734
44606SOL    HW135592   0.060  10.239   1.665
44606SOL    HW235593  14.845  10.355   1.694
44607SOL     OW35594   9.907  14.256   2.591
44607SOL    HW135595   9.942  14.175   2.554
44607SOL    HW235596   9.944  14.260   2.679
44608SOL     OW35597   9.247   8.963   6.919
44608SOL    HW135598   9.247   9.003   6.832
44608SOL    HW235599   9.220   9.034   6.978
44609SOL     OW35600  14.319   2.710   5.887
44609SOL    HW135601  14.362   2.728   5.971
44609SOL    HW235602  14.391   2.703   5.825
44610SOL     OW35603   5.588   6.969   8.388
44610SOL    HW135604   5.589   7.041   8.325
44610SOL    HW235605   5.514   6.989   8.445
44611SOL     OW35606   6.984   0.999  10.925
44611SOL    HW135607   6.959   0.992  11.017
44611SOL    HW235608   6.913   1.048  10.884
44612SOL     OW35609   8.689   0.931  11.198
44612SOL    HW135610   8.621   0.997  11.204
44612SOL    HW235611   8.662   0.875  11.125
44613SOL     OW35612   9.646   9.797   5.490
44613SOL    HW135613   9.726   9.776   5.441
44613SOL    HW235614   9.599   9.858   5.434
44614SOL     OW35615   9.344   5.017   0.764
44614SOL    HW135616   9.369   5.014   0.856
44614SOL    HW235617   9.273   4.954   0.756
44615SOL     OW35618   0.373  12.802   4.355
44615SOL    HW135619   0.364  12.873   4.419
44615SOL    HW235620   0.314  12.825   4.284
44616SOL     OW35621   5.561   1.219  11.717
44616SOL    HW135622   5.544   1.268  11.797
44616SOL    HW235623   5.653   1.240  11.696
44617SOL     OW35624   7.572  10.139   9.049
44617SOL    HW135625   7.570  10.225   9.005
44617SOL    HW235626   7.665  10.119   9.058
44618SOL     OW35627  14.584   4.792   5.286
44618SOL    HW135628  14.505   4.831   5.324
44618SOL    HW235629  14.655   4.851   5.313
44619SOL     OW35630  10.025  12.130   4.366
44619SOL    HW135631  10.032  12.223   4.346
44619SOL    HW235632   9.959  12.097   4.305
44620SOL     OW35633   8.573   2.562   5.609
44620SOL    HW135634   8.607   2.545   5.521
44620SOL    HW235635   8.634   2.627   5.646
44621SOL     OW35636   3.003   7.954   3.757
44621SOL    HW135637   3.073   7.895   3.786
44621SOL    HW235638   2.990   7.930   3.665
44622SOL     OW35639  13.887   5.510   2.267
44622SOL    HW135640  13.964   5.553   2.303
44622SOL    HW235641  13.920   5.461   2.192
44623SOL     OW35642   0.575   4.911   7.035
44623SOL    HW135643   0.574   4.840   6.971
44623SOL    HW235644   0.505   4.889   7.096
44624SOL     OW35645  10.296   3.189   1.039
44624SOL    HW135646  10.260   3.211   1.125
44624SOL    HW235647  10.239   3.236   0.977
44625SOL     OW35648   9.695  14.876   2.340
44625SOL    HW135649   9.644  14.795   2.342
44625SOL    HW235650   9.783  14.848   2.312
44626SOL     OW35651  13.787  14.284   5.017
44626SOL    HW135652  13.740  14.264   5.098
44626SOL    HW235653  13.787  14.202   4.968
44627SOL     OW35654  12.336   3.873   2.501
44627SOL    HW135655  12.392   3.810   2.457
44627SOL    HW235656  12.374   3.882   2.588
44628SOL     OW35657  13.579   2.068   6.091
44628SOL    HW135658  13.552   2.027   6.009
44628SOL    HW235659  13.666   2.032   6.109
44629SOL     OW35660   6.973  11.193   8.308
44629SOL    HW135661   6.982  11.222   8.217
44629SOL    HW235662   7.045  11.130   8.321
44630SOL     OW35663   5.975   3.238   0.300
44630SOL    HW135664   5.909   3.307   0.290
44630SOL    HW235665   5.973   3.191   0.217
44631SOL     OW35666  14.364   8.241   5.782
44631SOL    HW135667  14.454   8.209   5.791
44631SOL    HW235668  14.346   8.285   5.866
44632SOL     OW35669  11.572   3.528   5.185
44632SOL    HW135670  11.592   3.482   5.103
44632SOL    HW235671  11.609   3.616   5.172
44633SOL     OW35672   9.527   3.260   7.066
44633SOL    HW135673   9.544   3.247   6.973
44633SOL    HW235674   9.613   3.256   7.108
44634SOL     OW35675   6.954   1.544   9.352
44634SOL    HW135676   6.895   1.610   9.317
44634SOL    HW235677   6.946   1.469   9.293
44635SOL     OW35678  14.485  12.216  13.493
44635SOL    HW135679  14.440  12.191  13.412
44635SOL    HW235680  14.476  12.311  13.497
44636SOL     OW35681   6.677   9.212   3.117
44636SOL    HW135682   6.709   9.265   3.045
44636SOL    HW235683   6.582   9.226   3.117
44637SOL     OW35684   9.956  12.322   9.796
44637SOL    HW135685  10.031  12.307   9.853
44637SOL    HW235686   9.905  12.241   9.800
44638SOL     OW35687  11.391   0.289   8.258
44638SOL    HW135688  11.390   0.249   8.345
44638SOL    HW235689  11.446   0.231   8.205
44639SOL     OW35690   2.252  10.812   2.364
44639SOL    HW135691   2.339  10.774   2.375
44639SOL    HW235692   2.267  10.906   2.362
44640SOL     OW35693   8.106  10.578  11.924
44640SOL    HW135694   8.108  10.652  11.864
44640SOL    HW235695   8.196  10.544  11.923
44641SOL     OW35696   9.535  14.642  13.744
44641SOL    HW135697   9.613  14.622  13.692
44641SOL    HW235698   9.516  14.561  13.792
44642SOL     OW35699   4.406   9.598  12.310
44642SOL    HW135700   4.423   9.649  12.389
44642SOL    HW235701   4.432   9.655  12.238
44643SOL     OW35702  13.747  13.265   5.703
44643SOL    HW135703  13.724  13.302   5.788
44643SOL    HW235704  13.841  13.278   5.696
44644SOL     OW35705   3.687   6.431  14.100
44644SOL    HW135706   3.629   6.419  14.175
44644SOL    HW235707   3.736   6.349  14.093
44645SOL     OW35708   5.349  11.985   7.256
44645SOL    HW135709   5.361  11.910   7.197
44645SOL    HW235710   5.429  12.037   7.244
44646SOL     OW35711  12.282   3.391   8.550
44646SOL    HW135712  12.354   3.409   8.489
44646SOL    HW235713  12.206   3.374   8.494
44647SOL     OW35714   3.267  13.991  10.393
44647SOL    HW135715   3.309  13.924  10.339
44647SOL    HW235716   3.174  13.967  10.393
44648SOL     OW35717  13.234  12.215   6.636
44648SOL    HW135718  13.253  12.132   6.591
44648SOL    HW235719  13.296  12.217   6.709
44649SOL     OW35720  14.334   6.918  12.989
44649SOL    HW135721  14.253   6.949  12.949
44649SOL    HW235722  14.403   6.964  12.941
44650SOL     OW35723   8.382  14.286   3.439
44650SOL    HW135724   8.415  14.345   3.507
44650SOL    HW235725   8.460  14.252   3.397
44651SOL     OW35726   8.672  11.095   1.126
44651SOL    HW135727   8.667  11.191   1.124
44651SOL    HW235728   8.753  11.075   1.080
44652SOL     OW35729   3.894   5.248  14.733
44652SOL    HW135730   3.831   5.181  14.704
44652SOL    HW235731   3.964   5.198  14.775
44653SOL     OW35732  11.663   5.350  11.130
44653SOL    HW135733  11.612   5.270  11.141
44653SOL    HW235734  11.683   5.378  11.220
44654SOL     OW35735  12.581  12.958   7.025
44654SOL    HW135736  12.665  12.929   7.059
44654SOL    HW235737  12.541  12.879   6.988
44655SOL     OW35738   0.957  14.843   2.294
44655SOL    HW135739   0.909  14.800   2.224
44655SOL    HW235740   1.049  14.839   2.266
44656SOL     OW35741   0.643   9.700   8.453
44656SOL    HW135742   0.572   9.683   8.390
44656SOL    HW235743   0.718   9.654   8.417
44657SOL     OW35744   2.635   5.427   5.845
44657SOL    HW135745   2.561   5.476   5.880
44657SOL    HW235746   2.605   5.336   5.845
44658SOL     OW35747   3.749   2.601  11.201
44658SOL    HW135748   3.830   2.597  11.151
44658SOL    HW235749   3.772   2.567  11.288
44659SOL     OW35750  14.680   9.093  11.498
44659SOL    HW135751  14.712   9.007  11.470
44659SOL    HW235752  14.751   9.153  11.475
44660SOL     OW35753   6.648  14.521   9.519
44660SOL    HW135754   6.729  14.486   9.556
44660SOL    HW235755   6.668  14.538   9.427
44661SOL     OW35756   2.665   7.052  11.772
44661SOL    HW135757   2.632   7.038  11.683
44661SOL    HW235758   2.639   6.974  11.820
44662SOL     OW35759   8.073  11.937   3.889
44662SOL    HW135760   8.164  11.937   3.858
44662SOL    HW235761   8.023  11.977   3.817
44663SOL     OW35762   1.423   7.899   2.534
44663SOL    HW135763   1.419   7.963   2.463
44663SOL    HW235764   1.332   7.885   2.559
44664SOL     OW35765   8.405   1.037  13.996
44664SOL    HW135766   8.383   1.032  14.089
44664SOL    HW235767   8.497   1.064  13.994
44665SOL     OW35768  12.364   8.872   7.081
44665SOL    HW135769  12.386   8.935   7.149
44665SOL    HW235770  12.398   8.912   7.000
44666SOL     OW35771   7.639   0.395  13.587
44666SOL    HW135772   7.685   0.379  13.669
44666SOL    HW235773   7.595   0.479  13.599
44667SOL     OW35774   5.900   6.229   4.355
44667SOL    HW135775   5.933   6.140   4.347
44667SOL    HW235776   5.845   6.242   4.278
44668SOL     OW35777  14.118  13.955   2.187
44668SOL    HW135778  14.161  13.954   2.101
44668SOL    HW235779  14.030  13.922   2.170
44669SOL     OW35780   8.375   4.178   3.295
44669SOL    HW135781   8.455   4.130   3.316
44669SOL    HW235782   8.392   4.267   3.325
44670SOL     OW35783   5.076   0.766   1.336
44670SOL    HW135784   5.053   0.713   1.412
44670SOL    HW235785   5.130   0.707   1.282
44671SOL     OW35786  12.372  13.301   9.607
44671SOL    HW135787  12.308  13.370   9.625
44671SOL    HW235788  12.410  13.281   9.693
44672SOL     OW35789   4.838   7.762   1.595
44672SOL    HW135790   4.743   7.769   1.601
44672SOL    HW235791   4.865   7.726   1.680
44673SOL     OW35792   3.397  14.327   2.306
44673SOL    HW135793   3.307  14.355   2.289
44673SOL    HW235794   3.431  14.303   2.220
44674SOL     OW35795   1.256   8.878   4.788
44674SOL    HW135796   1.231   8.946   4.725
44674SOL    HW235797   1.304   8.925   4.856
44675SOL     OW35798  12.466   7.865   7.419
44675SOL    HW135799  12.467   7.805   7.493
44675SOL    HW235800  12.533   7.930   7.440
44676SOL     OW35801   8.459  10.338   0.192
44676SOL    HW135802   8.501  10.369   0.112
44676SOL    HW235803   8.496  10.393   0.261
44677SOL     OW35804   1.910  14.096  13.717
44677SOL    HW135805   1.989  14.044  13.703
44677SOL    HW235806   1.858  14.082  13.637
44678SOL     OW35807   6.395  12.192  10.484
44678SOL    HW135808   6.413  12.112  10.434
44678SOL    HW235809   6.302  12.209  10.470
44679SOL     OW35810   4.519  11.281   4.500
44679SOL    HW135811   4.514  11.332   4.420
44679SOL    HW235812   4.434  11.238   4.507
44680SOL     OW35813   5.168   2.171   7.942
44680SOL    HW135814   5.128   2.235   7.883
44680SOL    HW235815   5.094   2.120   7.976
44681SOL     OW35816   2.952   4.782   8.342
44681SOL    HW135817   2.994   4.765   8.258
44681SOL    HW235818   2.995   4.722   8.403
44682SOL     OW35819   2.146   2.550  14.105
44682SOL    HW135820   2.157   2.603  14.184
44682SOL    HW235821   2.082   2.483  14.130
44683SOL     OW35822   6.316   6.285  10.324
44683SOL    HW135823   6.338   6.369  10.285
44683SOL    HW235824   6.303   6.225  10.250
44684SOL     OW35825   6.629   1.834   8.821
44684SOL    HW135826   6.720   1.833   8.852
44684SOL    HW235827   6.588   1.762   8.867
44685SOL     OW35828   6.043  12.303   9.973
44685SOL    HW135829   6.029  12.289  10.066
44685SOL    HW235830   6.039  12.216   9.934
44686SOL     OW35831   4.890  12.722   7.406
44686SOL    HW135832   4.961  12.667   7.371
44686SOL    HW235833   4.810  12.677   7.380
44687SOL     OW35834   7.963  11.426   3.980
44687SOL    HW135835   8.023  11.482   4.031
44687SOL    HW235836   8.017  11.395   3.907
44688SOL     OW35837   3.144   2.339   1.481
44688SOL    HW135838   3.121   2.249   1.506
44688SOL    HW235839   3.232   2.331   1.444
44689SOL     OW35840   6.105   4.276   4.398
44689SOL    HW135841   6.108   4.276   4.302
44689SOL    HW235842   6.153   4.197   4.424
44690SOL     OW35843   0.857   7.066   1.294
44690SOL    HW135844   0.833   7.044   1.203
44690SOL    HW235845   0.884   6.982   1.332
44691SOL     OW35846   4.263   4.886  13.090
44691SOL    HW135847   4.210   4.964  13.073
44691SOL    HW235848   4.290   4.857  13.003
44692SOL     OW35849   3.969  13.078   2.919
44692SOL    HW135850   3.907  13.083   2.992
44692SOL    HW235851   3.917  13.104   2.842
44693SOL     OW35852   8.949   7.785  12.569
44693SOL    HW135853   8.974   7.699  12.536
44693SOL    HW235854   8.968   7.780  12.663
44694SOL     OW35855   2.638   5.220  12.445
44694SOL    HW135856   2.686   5.294  12.483
44694SOL    HW235857   2.546   5.244  12.453
44695SOL     OW35858   8.100  13.110   9.736
44695SOL    HW135859   8.184  13.080   9.772
44695SOL    HW235860   8.124  13.165   9.662
44696SOL     OW35861   3.483  11.002  13.475
44696SOL    HW135862   3.458  11.086  13.514
44696SOL    HW235863   3.573  10.988  13.506
44697SOL     OW35864   3.286   0.845   9.212
44697SOL    HW135865   3.290   0.885   9.299
44697SOL    HW235866   3.296   0.751   9.229
44698SOL     OW35867   9.247   8.556  13.991
44698SOL    HW135868   9.223   8.517  13.907
44698SOL    HW235869   9.279   8.483  14.044
44699SOL     OW35870   8.898   3.148   7.116
44699SOL    HW135871   8.872   3.124   7.027
44699SOL    HW235872   8.852   3.231   7.133
44700SOL     OW35873   3.729   8.512  14.802
44700SOL    HW135874   3.694   8.425  14.786
44700SOL    HW235875   3.667   8.552  14.863
44701SOL     OW35876   5.876   0.850  14.418
44701SOL    HW135877   5.909   0.843  14.508
44701SOL    HW235878   5.916   0.930  14.384
44702SOL     OW35879   7.061   2.432   3.704
44702SOL    HW135880   7.072   2.482   3.624
44702SOL    HW235881   7.019   2.493   3.765
44703SOL     OW35882   7.991  12.926   5.915
44703SOL    HW135883   7.946  12.900   5.995
44703SOL    HW235884   8.020  13.016   5.932
44704SOL     OW35885  10.691  11.249   6.072
44704SOL    HW135886  10.610  11.225   6.027
44704SOL    HW235887  10.662  11.280   6.158
44705SOL     OW35888   6.484   3.656   6.848
44705SOL    HW135889   6.490   3.746   6.816
44705SOL    HW235890   6.549   3.608   6.797
44706SOL     OW35891   4.944  10.772   7.807
44706SOL    HW135892   4.882  10.783   7.735
44706SOL    HW235893   4.951  10.678   7.819
44707SOL     OW35894  13.634  10.691   7.721
44707SOL    HW135895  13.640  10.755   7.792
44707SOL    HW235896  13.720  10.691   7.680
44708SOL     OW35897  11.901   4.907   2.148
44708SOL    HW135898  11.962   4.942   2.212
44708SOL    HW235899  11.816   4.943   2.175
44709SOL     OW35900   0.376   5.427  11.309
44709SOL    HW135901   0.356   5.334  11.322
44709SOL    HW235902   0.295   5.465  11.275
44710SOL     OW35903   0.640   3.010   5.155
44710SOL    HW135904   0.575   2.970   5.098
44710SOL    HW235905   0.693   2.937   5.186
44711SOL     OW35906  12.686   8.693  10.082
44711SOL    HW135907  12.628   8.761  10.047
44711SOL    HW235908  12.769   8.738  10.098
44712SOL     OW35909   4.219  10.440   8.614
44712SOL    HW135910   4.142  10.411   8.664
44712SOL    HW235911   4.198  10.418   8.524
44713SOL     OW35912  14.367   1.927   6.067
44713SOL    HW135913  14.280   1.925   6.029
44713SOL    HW235914  14.411   1.851   6.031
44714SOL     OW35915  13.185   6.691   0.054
44714SOL    HW135916  13.143   6.754   0.112
44714SOL    HW235917  13.113   6.655   0.002
44715SOL     OW35918   9.448   8.168  10.530
44715SOL    HW135919   9.387   8.137  10.597
44715SOL    HW235920   9.435   8.263  10.528
44716SOL     OW35921   2.899   8.846  11.528
44716SOL    HW135922   2.841   8.909  11.488
44716SOL    HW235923   2.846   8.766  11.538
44717SOL     OW35924  13.302   1.813   6.428
44717SOL    HW135925  13.311   1.771   6.514
44717SOL    HW235926  13.364   1.767   6.372
44718SOL     OW35927   9.128  10.468   3.253
44718SOL    HW135928   9.194  10.401   3.234
44718SOL    HW235929   9.055  10.448   3.195
44719SOL     OW35930   5.233  11.423  14.641
44719SOL    HW135931   5.265  11.468  14.563
44719SOL    HW235932   5.256  11.481  14.714
44720SOL     OW35933   4.962   6.674   1.094
44720SOL    HW135934   4.918   6.666   1.179
44720SOL    HW235935   4.895   6.655   1.029
44721SOL     OW35936   8.949   8.898   3.330
44721SOL    HW135937   9.011   8.889   3.257
44721SOL    HW235938   8.999   8.944   3.397
44722SOL     OW35939   0.218   5.398  10.686
44722SOL    HW135940   0.309   5.428  10.697
44722SOL    HW235941   0.219   5.349  10.604
44723SOL     OW35942  10.538  14.415   1.333
44723SOL    HW135943  10.569  14.426   1.243
44723SOL    HW235944  10.443  14.424   1.327
44724SOL     OW35945   2.821   5.087   0.237
44724SOL    HW135946   2.835   5.066   0.145
44724SOL    HW235947   2.727   5.102   0.244
44725SOL     OW35948  13.880   9.767   5.224
44725SOL    HW135949  13.815   9.714   5.177
44725SOL    HW235950  13.828   9.830   5.274
44726SOL     OW35951   8.753  11.904  13.773
44726SOL    HW135952   8.826  11.894  13.712
44726SOL    HW235953   8.722  11.815  13.788
44727SOL     OW35954  11.713   3.572  12.647
44727SOL    HW135955  11.663   3.640  12.693
44727SOL    HW235956  11.650   3.533  12.587
44728SOL     OW35957  10.517  11.762   9.787
44728SOL    HW135958  10.464  11.737   9.711
44728SOL    HW235959  10.606  11.733   9.765
44729SOL     OW35960   6.886   6.133   6.126
44729SOL    HW135961   6.960   6.074   6.113
44729SOL    HW235962   6.842   6.134   6.041
44730SOL     OW35963  14.285   1.675   6.745
44730SOL    HW135964  14.295   1.741   6.814
44730SOL    HW235965  14.320   1.594   6.783
44731SOL     OW35966   5.900   5.726   7.517
44731SOL    HW135967   5.810   5.694   7.511
44731SOL    HW235968   5.891   5.819   7.537
44732SOL     OW35969   6.414   3.141  13.654
44732SOL    HW135970   6.403   3.214  13.715
44732SOL    HW235971   6.459   3.074  13.706
44733SOL     OW35972   5.070  13.245   4.939
44733SOL    HW135973   5.075  13.333   4.902
44733SOL    HW235974   5.136  13.245   5.009
44734SOL     OW35975   0.195   5.379   4.860
44734SOL    HW135976   0.146   5.308   4.902
44734SOL    HW235977   0.254   5.335   4.799
44735SOL     OW35978   0.014   7.736   6.952
44735SOL    HW135979  14.865   7.708   7.040
44735SOL    HW235980  14.857   7.825   6.945
44736SOL     OW35981   6.185   0.962   2.171
44736SOL    HW135982   6.182   0.882   2.120
44736SOL    HW235983   6.156   1.031   2.111
44737SOL     OW35984  12.892   2.965  11.090
44737SOL    HW135985  12.987   2.956  11.083
44737SOL    HW235986  12.863   2.886  11.135
44738SOL     OW35987  10.971   2.898   2.762
44738SOL    HW135988  11.055   2.912   2.806
44738SOL    HW235989  10.943   2.986   2.735
44739SOL     OW35990   1.638   2.888  11.957
44739SOL    HW135991   1.544   2.874  11.963
44739SOL    HW235992   1.649   2.982  11.965
44740SOL     OW35993  10.986   6.394  14.625
44740SOL    HW135994  11.008   6.318  14.572
44740SOL    HW235995  10.890   6.392  14.633
44741SOL     OW35996   6.521   4.878   2.299
44741SOL    HW135997   6.599   4.929   2.321
44741SOL    HW235998   6.541   4.837   2.215
44742SOL     OW35999   3.402   4.032   2.348
44742SOL    HW136000   3.496   4.050   2.349
44742SOL    HW236001   3.380   4.011   2.438
44743SOL     OW36002  10.402  12.354   0.346
44743SOL    HW136003  10.313  12.341   0.315
44743SOL    HW236004  10.396  12.426   0.408
44744SOL     OW36005   4.509   6.704   5.051
44744SOL    HW136006   4.443   6.636   5.039
44744SOL    HW236007   4.497   6.763   4.977
44745SOL     OW36008   9.581   6.723   3.854
44745SOL    HW136009   9.586   6.659   3.783
44745SOL    HW236010   9.495   6.764   3.844
44746SOL     OW36011  14.216   7.884  13.958
44746SOL    HW136012  14.203   7.868  13.865
44746SOL    HW236013  14.261   7.806  13.990
44747SOL     OW36014   5.677  12.486  13.653
44747SOL    HW136015   5.588  12.454  13.668
44747SOL    HW236016   5.697  12.536  13.733
44748SOL     OW36017   1.244   8.043  11.003
44748SOL    HW136018   1.162   8.084  10.976
44748SOL    HW236019   1.267   8.087  11.085
44749SOL     OW36020  12.901  14.667  13.464
44749SOL    HW136021  12.988  14.692  13.432
44749SOL    HW236022  12.918  14.608  13.538
44750SOL     OW36023   5.707  10.273  11.671
44750SOL    HW136024   5.765  10.341  11.635
44750SOL    HW236025   5.625  10.319  11.690
44751SOL     OW36026   1.133   1.626  11.896
44751SOL    HW136027   1.096   1.538  11.900
44751SOL    HW236028   1.110   1.665  11.981
44752SOL     OW36029   6.159   4.626   3.956
44752SOL    HW136030   6.252   4.642   3.938
44752SOL    HW236031   6.144   4.670   4.040
44753SOL     OW36032   6.613  11.390   6.582
44753SOL    HW136033   6.707  11.377   6.596
44753SOL    HW236034   6.605  11.483   6.560
44754SOL     OW36035  12.705   8.001   2.750
44754SOL    HW136036  12.743   8.089   2.747
44754SOL    HW236037  12.711   7.976   2.842
44755SOL     OW36038   1.536  13.844   2.164
44755SOL    HW136039   1.557  13.780   2.095
44755SOL    HW236040   1.466  13.802   2.214
44756SOL     OW36041   5.737  12.013   3.441
44756SOL    HW136042   5.752  11.999   3.534
44756SOL    HW236043   5.711  12.105   3.434
44757SOL     OW36044   4.228   6.198   3.439
44757SOL    HW136045   4.263   6.272   3.388
44757SOL    HW236046   4.299   6.134   3.439
44758SOL     OW36047  10.454  11.461   4.752
44758SOL    HW136048  10.543  11.484   4.728
44758SOL    HW236049  10.408  11.545   4.761
44759SOL     OW36050   0.523  10.454  12.444
44759SOL    HW136051   0.520  10.549  12.441
44759SOL    HW236052   0.582  10.434  12.517
44760SOL     OW36053  11.977  14.212  10.033
44760SOL    HW136054  11.956  14.296  10.072
44760SOL    HW236055  11.903  14.193   9.975
44761SOL     OW36056   9.625  13.999  12.030
44761SOL    HW136057   9.556  14.063  12.013
44761SOL    HW236058   9.706  14.049  12.022
44762SOL     OW36059  14.754  10.629   6.870
44762SOL    HW136060  14.758  10.574   6.792
44762SOL    HW236061  14.845  10.648   6.891
44763SOL     OW36062   3.416  12.413   2.146
44763SOL    HW136063   3.501  12.455   2.160
44763SOL    HW236064   3.427  12.364   2.064
44764SOL     OW36065  14.566   2.982   5.115
44764SOL    HW136066  14.521   2.972   5.198
44764SOL    HW236067  14.607   3.069   5.120
44765SOL     OW36068   3.927   9.457  10.506
44765SOL    HW136069   3.866   9.423  10.572
44765SOL    HW236070   3.965   9.535  10.547
44766SOL     OW36071   2.801   1.334   9.766
44766SOL    HW136072   2.773   1.242   9.764
44766SOL    HW236073   2.721   1.383   9.747
44767SOL     OW36074   4.471   0.926   6.912
44767SOL    HW136075   4.395   0.951   6.965
44767SOL    HW236076   4.445   0.944   6.822
44768SOL     OW36077   9.508  10.202   0.541
44768SOL    HW136078   9.565  10.132   0.507
44768SOL    HW236079   9.425  10.188   0.496
44769SOL     OW36080   1.436   2.068   4.150
44769SOL    HW136081   1.443   2.007   4.077
44769SOL    HW236082   1.522   2.065   4.192
44770SOL     OW36083   8.110  13.887   1.240
44770SOL    HW136084   8.181  13.896   1.304
44770SOL    HW236085   8.061  13.810   1.269
44771SOL     OW36086   2.006   6.289   4.945
44771SOL    HW136087   1.920   6.268   4.980
44771SOL    HW236088   2.019   6.381   4.964
44772SOL     OW36089  12.243  11.693   2.639
44772SOL    HW136090  12.225  11.645   2.558
44772SOL    HW236091  12.320  11.651   2.676
44773SOL     OW36092   8.771   9.917  13.198
44773SOL    HW136093   8.719   9.916  13.279
44773SOL    HW236094   8.827   9.840  13.205
44774SOL     OW36095   5.398  12.765  14.469
44774SOL    HW136096   5.434  12.815  14.395
44774SOL    HW236097   5.460  12.693  14.481
44775SOL     OW36098   8.348   4.136  11.485
44775SOL    HW136099   8.293   4.197  11.434
44775SOL    HW236100   8.437   4.168  11.473
44776SOL     OW36101   0.427  11.668  11.541
44776SOL    HW136102   0.472  11.586  11.560
44776SOL    HW236103   0.497  11.728  11.514
44777SOL     OW36104   5.177  13.480   7.726
44777SOL    HW136105   5.189  13.397   7.681
44777SOL    HW236106   5.105  13.465   7.787
44778SOL     OW36107   7.384  12.862  14.721
44778SOL    HW136108   7.352  12.773  14.706
44778SOL    HW236109   7.327  12.917  14.667
44779SOL     OW36110   6.498   6.028   2.666
44779SOL    HW136111   6.478   5.958   2.729
44779SOL    HW236112   6.565   6.081   2.709
44780SOL     OW36113   5.959   0.854  11.029
44780SOL    HW136114   5.903   0.880  10.956
44780SOL    HW236115   6.045   0.889  11.007
44781SOL     OW36116  13.226   3.574   3.335
44781SOL    HW136117  13.285   3.505   3.365
44781SOL    HW236118  13.141   3.550   3.371
44782SOL     OW36119  14.158   5.736   4.602
44782SOL    HW136120  14.113   5.713   4.683
44782SOL    HW236121  14.096   5.713   4.533
44783SOL     OW36122  12.330   9.202  13.688
44783SOL    HW136123  12.251   9.248  13.716
44783SOL    HW236124  12.361   9.158  13.767
44784SOL     OW36125  13.012  10.038   9.431
44784SOL    HW136126  13.102  10.036   9.465
44784SOL    HW236127  12.990   9.947   9.416
44785SOL     OW36128  11.113  11.843   4.381
44785SOL    HW136129  11.122  11.932   4.347
44785SOL    HW236130  11.142  11.849   4.472
44786SOL     OW36131   7.252   6.013   9.296
44786SOL    HW136132   7.198   5.934   9.298
44786SOL    HW236133   7.209   6.070   9.232
44787SOL     OW36134   6.538  12.369   0.382
44787SOL    HW136135   6.465  12.321   0.419
44787SOL    HW236136   6.615  12.334   0.427
44788SOL     OW36137  10.691  14.379   2.483
44788SOL    HW136138  10.635  14.355   2.409
44788SOL    HW236139  10.729  14.296   2.512
44789SOL     OW36140  11.818   6.747   8.422
44789SOL    HW136141  11.858   6.735   8.508
44789SOL    HW236142  11.811   6.659   8.385
44790SOL     OW36143   6.157   9.115   2.393
44790SOL    HW136144   6.069   9.090   2.421
44790SOL    HW236145   6.212   9.097   2.469
44791SOL     OW36146  14.170  13.923   8.258
44791SOL    HW136147  14.252  13.935   8.305
44791SOL    HW236148  14.102  13.928   8.325
44792SOL     OW36149   4.973   7.999   6.300
44792SOL    HW136150   4.947   8.061   6.368
44792SOL    HW236151   5.063   8.024   6.279
44793SOL     OW36152   1.749   0.409   1.446
44793SOL    HW136153   1.765   0.404   1.352
44793SOL    HW236154   1.804   0.340   1.484
44794SOL     OW36155  12.185   4.436  10.161
44794SOL    HW136156  12.205   4.398  10.075
44794SOL    HW236157  12.203   4.529  10.151
44795SOL     OW36158  13.996   1.885   1.754
44795SOL    HW136159  13.967   1.962   1.803
44795SOL    HW236160  14.046   1.834   1.818
44796SOL     OW36161   0.088   5.140  13.199
44796SOL    HW136162   0.047   5.111  13.280
44796SOL    HW236163   0.175   5.100  13.200
44797SOL     OW36164   6.834  10.049   5.193
44797SOL    HW136165   6.927  10.044   5.169
44797SOL    HW236166   6.787  10.032   5.112
44798SOL     OW36167   4.136  11.011   1.562
44798SOL    HW136168   4.128  11.102   1.533
44798SOL    HW236169   4.227  10.988   1.545
44799SOL     OW36170   3.416   2.402   6.705
44799SOL    HW136171   3.398   2.326   6.648
44799SOL    HW236172   3.340   2.459   6.692
44800SOL     OW36173   1.760   8.601   1.160
44800SOL    HW136174   1.778   8.644   1.077
44800SOL    HW236175   1.665   8.591   1.163
44801SOL     OW36176   1.288  14.396   3.537
44801SOL    HW136177   1.284  14.409   3.632
44801SOL    HW236178   1.215  14.336   3.518
44802SOL     OW36179  10.975   1.253   7.792
44802SOL    HW136180  10.909   1.196   7.752
44802SOL    HW236181  11.011   1.303   7.718
44803SOL     OW36182   9.330   5.061   8.634
44803SOL    HW136183   9.270   4.990   8.615
44803SOL    HW236184   9.290   5.108   8.707
44804SOL     OW36185  11.723  11.770   3.906
44804SOL    HW136186  11.740  11.852   3.859
44804SOL    HW236187  11.649  11.791   3.964
44805SOL     OW36188   8.795  13.821   4.793
44805SOL    HW136189   8.766  13.772   4.870
44805SOL    HW236190   8.766  13.910   4.810
44806SOL     OW36191   1.121   9.068  10.036
44806SOL    HW136192   1.106   9.014   9.958
44806SOL    HW236193   1.138   9.156  10.002
44807SOL     OW36194  11.218  11.239   9.056
44807SOL    HW136195  11.292  11.180   9.039
44807SOL    HW236196  11.148  11.182   9.086
44808SOL     OW36197  10.507   8.522   3.314
44808SOL    HW136198  10.507   8.603   3.263
44808SOL    HW236199  10.414   8.498   3.320
44809SOL     OW36200  10.664  13.009  12.380
44809SOL    HW136201  10.589  13.068  12.385
44809SOL    HW236202  10.638  12.932  12.431
44810SOL     OW36203  14.650   1.808   2.654
44810SOL    HW136204  14.693   1.868   2.716
44810SOL    HW236205  14.670   1.721   2.687
44811SOL     OW36206   7.157   3.884   0.122
44811SOL    HW136207   7.170   3.807   0.065
44811SOL    HW236208   7.200   3.955   0.075
44812SOL     OW36209   4.339  13.035  10.052
44812SOL    HW136210   4.283  13.062  10.124
44812SOL    HW236211   4.280  12.992   9.990
44813SOL     OW36212  14.363   7.984   1.557
44813SOL    HW136213  14.379   7.910   1.498
44813SOL    HW236214  14.277   8.018   1.531
44814SOL     OW36215   0.054   4.637   7.660
44814SOL    HW136216  14.846   4.595   7.670
44814SOL    HW236217   0.052   4.710   7.722
44815SOL     OW36218   7.389   0.414  13.821
44815SOL    HW136219   7.423   0.484  13.766
44815SOL    HW236220   7.467   0.365  13.849
44816SOL     OW36221   3.421  13.849  14.065
44816SOL    HW136222   3.342  13.825  14.016
44816SOL    HW236223   3.477  13.771  14.060
44817SOL     OW36224  10.120  13.122   3.581
44817SOL    HW136225  10.161  13.192   3.530
44817SOL    HW236226  10.191  13.088   3.635
44818SOL     OW36227  13.638   2.349   1.609
44818SOL    HW136228  13.728   2.379   1.594
44818SOL    HW236229  13.597   2.349   1.523
44819SOL     OW36230   7.691  13.715   0.452
44819SOL    HW136231   7.664  13.755   0.369
44819SOL    HW236232   7.767  13.766   0.480
44820SOL     OW36233   3.641   0.994   0.583
44820SOL    HW136234   3.702   1.051   0.537
44820SOL    HW236235   3.630   1.035   0.669
44821SOL     OW36236   4.140  12.881   2.949
44821SOL    HW136237   4.065  12.931   2.917
44821SOL    HW236238   4.112  12.847   3.034
44822SOL     OW36239   0.115  14.782   4.228
44822SOL    HW136240   0.180  14.740   4.284
44822SOL    HW236241   0.138  14.875   4.229
44823SOL     OW36242  11.318   4.291  10.827
44823SOL    HW136243  11.236   4.258  10.865
44823SOL    HW236244  11.381   4.221  10.843
44824SOL     OW36245  10.611  13.276   2.673
44824SOL    HW136246  10.643  13.229   2.596
44824SOL    HW236247  10.670  13.250   2.743
44825SOL     OW36248   3.358  12.689   9.738
44825SOL    HW136249   3.384  12.729   9.656
44825SOL    HW236250   3.316  12.606   9.713
44826SOL     OW36251   0.053  13.986  12.845
44826SOL    HW136252   0.093  14.029  12.920
44826SOL    HW236253  14.846  13.955  12.877
44827SOL     OW36254  11.599   9.084   6.167
44827SOL    HW136255  11.596   8.995   6.134
44827SOL    HW236256  11.688   9.114   6.146
44828SOL     OW36257  12.887  14.034   3.387
44828SOL    HW136258  12.870  14.120   3.427
44828SOL    HW236259  12.969  14.005   3.427
44829SOL     OW36260   6.211   9.387   7.178
44829SOL    HW136261   6.262   9.367   7.099
44829SOL    HW236262   6.262   9.350   7.249
44830SOL     OW36263   5.346   1.389   8.827
44830SOL    HW136264   5.293   1.467   8.816
44830SOL    HW236265   5.385   1.374   8.740
44831SOL     OW36266  12.161   8.690  10.403
44831SOL    HW136267  12.079   8.708  10.449
44831SOL    HW236268  12.135   8.678  10.312
44832SOL     OW36269  12.281   0.242   0.058
44832SOL    HW136270  12.309   0.326   0.096
44832SOL    HW236271  12.339   0.177   0.097
44833SOL     OW36272   4.731   3.467  14.724
44833SOL    HW136273   4.667   3.537  14.736
44833SOL    HW236274   4.706   3.424  14.643
44834SOL     OW36275   3.662   7.411   3.039
44834SOL    HW136276   3.725   7.359   2.990
44834SOL    HW236277   3.629   7.351   3.107
44835SOL     OW36278  13.658   2.557  10.051
44835SOL    HW136279  13.650   2.488  10.116
44835SOL    HW236280  13.599   2.530   9.980
44836SOL     OW36281   6.722   2.277  14.434
44836SOL    HW136282   6.745   2.318  14.517
44836SOL    HW236283   6.796   2.220  14.413
44837SOL     OW36284   1.332   1.054   5.982
44837SOL    HW136285   1.425   1.034   5.995
44837SOL    HW236286   1.288   0.969   5.986
44838SOL     OW36287   0.237   5.546   1.935
44838SOL    HW136288   0.215   5.459   1.967
44838SOL    HW236289   0.226   5.539   1.840
44839SOL     OW36290   8.200   2.223  14.247
44839SOL    HW136291   8.273   2.190  14.194
44839SOL    HW236292   8.140   2.148  14.253
44840SOL     OW36293  13.897   8.359   6.755
44840SOL    HW136294  13.872   8.425   6.690
44840SOL    HW236295  13.955   8.405   6.815
44841SOL     OW36296   5.853   6.805   3.744
44841SOL    HW136297   5.813   6.873   3.797
44841SOL    HW236298   5.947   6.820   3.752
44842SOL     OW36299  11.974   6.571   3.985
44842SOL    HW136300  11.948   6.525   3.906
44842SOL    HW236301  11.931   6.523   4.056
44843SOL     OW36302  12.651  14.078   4.854
44843SOL    HW136303  12.738  14.108   4.880
44843SOL    HW236304  12.659  13.982   4.852
44844SOL     OW36305   7.168  10.098  10.321
44844SOL    HW136306   7.096  10.035  10.311
44844SOL    HW236307   7.159  10.130  10.411
44845SOL     OW36308  11.117  14.310   7.046
44845SOL    HW136309  11.135  14.381   7.108
44845SOL    HW236310  11.158  14.233   7.086
44846SOL     OW36311  10.083  14.449  10.000
44846SOL    HW136312  10.013  14.427  10.062
44846SOL    HW236313  10.066  14.540   9.976
44847SOL     OW36314   3.912   8.317   1.804
44847SOL    HW136315   3.945   8.379   1.738
44847SOL    HW236316   3.829   8.354   1.832
44848SOL     OW36317  13.315  13.300   8.244
44848SOL    HW136318  13.339  13.339   8.328
44848SOL    HW236319  13.229  13.338   8.223
44849SOL     OW36320  12.986   4.065  13.837
44849SOL    HW136321  12.917   4.003  13.858
44849SOL    HW236322  12.950   4.118  13.766
44850SOL     OW36323  10.721  12.364   7.708
44850SOL    HW136324  10.740  12.315   7.788
44850SOL    HW236325  10.631  12.393   7.718
44851SOL     OW36326   8.644  12.882   4.564
44851SOL    HW136327   8.605  12.821   4.627
44851SOL    HW236328   8.667  12.828   4.489
44852SOL     OW36329  10.831  14.694  13.359
44852SOL    HW136330  10.857  14.758  13.426
44852SOL    HW236331  10.861  14.610  13.393
44853SOL     OW36332  12.822  10.849   5.434
44853SOL    HW136333  12.838  10.787   5.506
44853SOL    HW236334  12.774  10.797   5.369
44854SOL     OW36335   2.319  10.679   9.873
44854SOL    HW136336   2.261  10.701   9.801
44854SOL    HW236337   2.276  10.606   9.918
44855SOL     OW36338  11.816   4.966   9.743
44855SOL    HW136339  11.894   4.930   9.786
44855SOL    HW236340  11.817   4.928   9.655
44856SOL     OW36341   2.075  10.117   6.386
44856SOL    HW136342   2.066  10.024   6.368
44856SOL    HW236343   2.169  10.130   6.399
44857SOL     OW36344   0.335  10.434  11.015
44857SOL    HW136345   0.320  10.433  10.920
44857SOL    HW236346   0.417  10.387  11.028
44858SOL     OW36347   1.898  10.943   4.050
44858SOL    HW136348   1.832  10.874   4.050
44858SOL    HW236349   1.980  10.898   4.066
44859SOL     OW36350   1.702   6.008   3.117
44859SOL    HW136351   1.696   5.942   3.048
44859SOL    HW236352   1.733   5.961   3.194
44860SOL     OW36353  10.376   9.081   2.537
44860SOL    HW136354  10.467   9.110   2.530
44860SOL    HW236355  10.327   9.158   2.566
44861SOL     OW36356  10.996  12.339  14.447
44861SOL    HW136357  11.065  12.386  14.399
44861SOL    HW236358  10.991  12.384  14.531
44862SOL     OW36359   8.315   6.786   6.942
44862SOL    HW136360   8.405   6.765   6.918
44862SOL    HW236361   8.296   6.729   7.017
44863SOL     OW36362   2.589  13.801   4.641
44863SOL    HW136363   2.642  13.779   4.717
44863SOL    HW236364   2.565  13.717   4.603
44864SOL     OW36365   1.484   0.446  13.375
44864SOL    HW136366   1.557   0.459  13.436
44864SOL    HW236367   1.430   0.524  13.386
44865SOL     OW36368   4.917   8.355   2.139
44865SOL    HW136369   5.010   8.343   2.157
44865SOL    HW236370   4.892   8.276   2.091
44866SOL     OW36371   4.250   1.614   3.719
44866SOL    HW136372   4.224   1.670   3.792
44866SOL    HW236373   4.187   1.542   3.719
44867SOL     OW36374   6.149   9.232  11.386
44867SOL    HW136375   6.098   9.299  11.431
44867SOL    HW236376   6.125   9.150  11.430
44868SOL     OW36377   8.761   0.259   6.752
44868SOL    HW136378   8.701   0.189   6.775
44868SOL    HW236379   8.806   0.228   6.674
44869SOL     OW36380   2.893  11.932   8.627
44869SOL    HW136381   2.970  11.876   8.616
44869SOL    HW236382   2.919  11.996   8.693
44870SOL     OW36383  12.661   3.566  11.224
44870SOL    HW136384  12.612   3.497  11.268
44870SOL    HW236385  12.598   3.638  11.214
44871SOL     OW36386   8.229  14.764  14.600
44871SOL    HW136387   8.176  14.728  14.671
44871SOL    HW236388   8.212  14.858  14.603
44872SOL     OW36389   1.125   5.846  13.026
44872SOL    HW136390   1.047   5.792  13.032
44872SOL    HW236391   1.161   5.828  12.939
44873SOL     OW36392   5.837   4.202   4.313
44873SOL    HW136393   5.896   4.277   4.309
44873SOL    HW236394   5.835   4.178   4.406
44874SOL     OW36395   2.538   4.529  13.319
44874SOL    HW136396   2.445   4.525  13.296
44874SOL    HW236397   2.565   4.438  13.326
44875SOL     OW36398   4.533  12.595   5.980
44875SOL    HW136399   4.443  12.616   5.953
44875SOL    HW236400   4.534  12.500   5.986
44876SOL     OW36401  10.596   3.540   4.239
44876SOL    HW136402  10.539   3.614   4.263
44876SOL    HW236403  10.626   3.561   4.151
44877SOL     OW36404   4.847  11.449   8.912
44877SOL    HW136405   4.838  11.544   8.919
44877SOL    HW236406   4.819  11.429   8.823
44878SOL     OW36407  10.383   8.155   6.198
44878SOL    HW136408  10.473   8.187   6.193
44878SOL    HW236409  10.360   8.162   6.290
44879SOL     OW36410   6.409   1.335   6.000
44879SOL    HW136411   6.504   1.338   6.009
44879SOL    HW236412   6.384   1.249   6.033
44880SOL     OW36413  14.862  13.109   0.148
44880SOL    HW136414  14.872  13.116   0.243
44880SOL    HW236415   0.074  13.120   0.114
44881SOL     OW36416  11.882   5.091   0.535
44881SOL    HW136417  11.868   5.139   0.617
44881SOL    HW236418  11.796   5.057   0.511
44882SOL     OW36419   8.000  14.131   7.418
44882SOL    HW136420   8.003  14.194   7.491
44882SOL    HW236421   8.061  14.166   7.354
44883SOL     OW36422   6.003  12.770  11.534
44883SOL    HW136423   6.001  12.858  11.572
44883SOL    HW236424   6.002  12.784  11.439
44884SOL     OW36425   6.310   5.646   8.043
44884SOL    HW136426   6.252   5.618   8.113
44884SOL    HW236427   6.289   5.588   7.969
44885SOL     OW36428   6.094  11.823   2.040
44885SOL    HW136429   6.001  11.838   2.021
44885SOL    HW236430   6.098  11.732   2.069
44886SOL     OW36431   1.925  11.468   7.197
44886SOL    HW136432   1.907  11.402   7.264
44886SOL    HW236433   1.995  11.429   7.144
44887SOL     OW36434   0.200  12.711  11.680
44887SOL    HW136435   0.239  12.703  11.593
44887SOL    HW236436   0.107  12.700  11.665
44888SOL     OW36437   8.016   3.421   1.030
44888SOL    HW136438   8.069   3.484   0.982
44888SOL    HW236439   7.984   3.360   0.963
44889SOL     OW36440  11.075   7.151  11.372
44889SOL    HW136441  10.982   7.151  11.392
44889SOL    HW236442  11.118   7.158  11.457
44890SOL     OW36443   2.155   0.553   4.274
44890SOL    HW136444   2.088   0.620   4.290
44890SOL    HW236445   2.236   0.603   4.263
44891SOL     OW36446  11.014   0.592   7.871
44891SOL    HW136447  11.030   0.625   7.782
44891SOL    HW236448  11.079   0.637   7.925
44892SOL     OW36449   0.274   2.981  13.399
44892SOL    HW136450   0.182   3.002  13.409
44892SOL    HW236451   0.299   2.939  13.480
44893SOL     OW36452  13.160   8.601   4.622
44893SOL    HW136453  13.229   8.631   4.563
44893SOL    HW236454  13.146   8.509   4.597
44894SOL     OW36455  14.781   3.111   6.452
44894SOL    HW136456  14.739   3.026   6.439
44894SOL    HW236457  14.765   3.159   6.371
44895SOL     OW36458  14.628  14.525   5.996
44895SOL    HW136459  14.706  14.506   5.945
44895SOL    HW236460  14.558  14.477   5.951
44896SOL     OW36461   7.464  14.160   3.423
44896SOL    HW136462   7.453  14.226   3.491
44896SOL    HW236463   7.559  14.149   3.415
44897SOL     OW36464  11.926   4.550   9.200
44897SOL    HW136465  11.893   4.629   9.157
44897SOL    HW236466  11.884   4.478   9.152
44898SOL     OW36467  13.510  14.555  12.778
44898SOL    HW136468  13.503  14.650  12.787
44898SOL    HW236469  13.593  14.541  12.732
44899SOL     OW36470   3.170   9.857  14.273
44899SOL    HW136471   3.251   9.808  14.291
44899SOL    HW236472   3.146   9.894  14.358
44900SOL     OW36473   1.042  14.425  13.494
44900SOL    HW136474   0.973  14.473  13.447
44900SOL    HW236475   1.037  14.458  13.584
44901SOL     OW36476  14.104   9.640   8.296
44901SOL    HW136477  14.088   9.715   8.353
44901SOL    HW236478  14.070   9.565   8.344
44902SOL     OW36479  13.256   9.941   4.090
44902SOL    HW136480  13.194   9.994   4.140
44902SOL    HW236481  13.230   9.953   3.999
44903SOL     OW36482   1.915   7.604  10.519
44903SOL    HW136483   1.955   7.691  10.513
44903SOL    HW236484   1.916   7.584  10.612
44904SOL     OW36485   7.905   0.051  11.247
44904SOL    HW136486   7.849   0.058  11.325
44904SOL    HW236487   7.877   0.123  11.191
44905SOL     OW36488   9.381   1.779  10.835
44905SOL    HW136489   9.448   1.723  10.794
44905SOL    HW236490   9.430   1.854  10.868
44906SOL     OW36491  10.507   7.769   4.421
44906SOL    HW136492  10.480   7.689   4.375
44906SOL    HW236493  10.589   7.746   4.464
44907SOL     OW36494   2.299   1.090   1.356
44907SOL    HW136495   2.258   1.139   1.426
44907SOL    HW236496   2.281   0.998   1.377
44908SOL     OW36497   3.660   1.054   7.696
44908SOL    HW136498   3.599   1.077   7.625
44908SOL    HW236499   3.647   1.122   7.762
44909SOL     OW36500   3.741   9.148   6.531
44909SOL    HW136501   3.650   9.141   6.559
44909SOL    HW236502   3.741   9.110   6.442
44910SOL     OW36503   5.133   7.122   3.287
44910SOL    HW136504   5.184   7.085   3.215
44910SOL    HW236505   5.043   7.093   3.269
44911SOL     OW36506   9.435   4.065   3.765
44911SOL    HW136507   9.450   4.021   3.681
44911SOL    HW236508   9.510   4.123   3.776
44912SOL     OW36509   9.458  14.088   3.444
44912SOL    HW136510   9.416  14.003   3.430
44912SOL    HW236511   9.551  14.071   3.428
44913SOL     OW36512  11.512  10.190   3.840
44913SOL    HW136513  11.499  10.096   3.828
44913SOL    HW236514  11.596  10.197   3.886
44914SOL     OW36515   0.408   5.097  12.818
44914SOL    HW136516   0.364   5.063  12.896
44914SOL    HW236517   0.336   5.114  12.756
44915SOL     OW36518   6.118   8.143   2.474
44915SOL    HW136519   6.211   8.150   2.452
44915SOL    HW236520   6.093   8.055   2.444
44916SOL     OW36521   1.672   5.244  13.475
44916SOL    HW136522   1.760   5.231  13.440
44916SOL    HW236523   1.655   5.338  13.466
44917SOL     OW36524   2.262   5.819  12.217
44917SOL    HW136525   2.209   5.756  12.266
44917SOL    HW236526   2.213   5.900  12.219
44918SOL     OW36527  12.137   1.962   2.140
44918SOL    HW136528  12.134   2.055   2.162
44918SOL    HW236529  12.047   1.939   2.118
44919SOL     OW36530   4.645  13.177   4.106
44919SOL    HW136531   4.616  13.087   4.091
44919SOL    HW236532   4.575  13.231   4.068
44920SOL     OW36533   2.859   8.005   6.817
44920SOL    HW136534   2.859   8.039   6.907
44920SOL    HW236535   2.788   7.941   6.815
44921SOL     OW36536   5.338   3.838   0.960
44921SOL    HW136537   5.383   3.922   0.953
44921SOL    HW236538   5.342   3.801   0.871
44922SOL     OW36539   1.696   9.056   3.358
44922SOL    HW136540   1.760   9.029   3.293
44922SOL    HW236541   1.706   9.151   3.364
44923SOL     OW36542   4.054   6.645   2.965
44923SOL    HW136543   3.999   6.573   2.996
44923SOL    HW236544   4.108   6.607   2.896
44924SOL     OW36545  10.001  10.704   1.303
44924SOL    HW136546   9.983  10.613   1.326
44924SOL    HW236547   9.918  10.737   1.267
44925SOL     OW36548  12.149  11.988   6.857
44925SOL    HW136549  12.105  12.064   6.819
44925SOL    HW236550  12.155  11.926   6.784
44926SOL     OW36551   8.235  10.344   1.022
44926SOL    HW136552   8.317  10.300   1.041
44926SOL    HW236553   8.260  10.434   1.001
44927SOL     OW36554  10.121   5.282  12.187
44927SOL    HW136555  10.099   5.351  12.125
44927SOL    HW236556  10.215   5.294  12.204
44928SOL     OW36557  10.338   3.695  12.834
44928SOL    HW136558  10.340   3.761  12.765
44928SOL    HW236559  10.257   3.646  12.818
44929SOL     OW36560  14.268  14.718   2.832
44929SOL    HW136561  14.191  14.667   2.804
44929SOL    HW236562  14.273  14.705   2.926
44930SOL     OW36563  13.407  13.369   7.707
44930SOL    HW136564  13.428  13.291   7.758
44930SOL    HW236565  13.319  13.394   7.736
44931SOL     OW36566   1.666   6.835  12.636
44931SOL    HW136567   1.702   6.886  12.563
44931SOL    HW236568   1.665   6.745  12.604
44932SOL     OW36569   6.332   2.321   0.951
44932SOL    HW136570   6.386   2.245   0.972
44932SOL    HW236571   6.294   2.300   0.865
44933SOL     OW36572   8.307   2.994  13.425
44933SOL    HW136573   8.342   2.912  13.391
44933SOL    HW236574   8.243   2.968  13.491
44934SOL     OW36575   6.883   5.223   2.147
44934SOL    HW136576   6.865   5.284   2.219
44934SOL    HW236577   6.979   5.221   2.141
44935SOL     OW36578   6.805   8.010  11.986
44935SOL    HW136579   6.900   8.016  11.997
44935SOL    HW236580   6.782   8.088  11.934
44936SOL     OW36581  11.971  13.721   1.710
44936SOL    HW136582  12.023  13.801   1.716
44936SOL    HW236583  11.993  13.672   1.790
44937SOL     OW36584  10.459   2.338   3.758
44937SOL    HW136585  10.417   2.404   3.702
44937SOL    HW236586  10.388   2.303   3.811
44938SOL     OW36587   5.378   9.501   0.048
44938SOL    HW136588   5.463   9.462   0.066
44938SOL    HW236589   5.328   9.487   0.128
44939SOL     OW36590   9.885  13.868  14.634
44939SOL    HW136591   9.790  13.863  14.622
44939SOL    HW236592   9.899  13.952  14.677
44940SOL     OW36593  13.560  12.461   9.991
44940SOL    HW136594  13.560  12.551   9.958
44940SOL    HW236595  13.638  12.456  10.047
44941SOL     OW36596   5.176  10.908   6.621
44941SOL    HW136597   5.161  10.818   6.651
44941SOL    HW236598   5.270  10.914   6.610
44942SOL     OW36599   2.520   0.674  12.899
44942SOL    HW136600   2.471   0.665  12.817
44942SOL    HW236601   2.535   0.768  12.908
44943SOL     OW36602  14.560  12.213  11.309
44943SOL    HW136603  14.590  12.175  11.392
44943SOL    HW236604  14.594  12.155  11.242
44944SOL     OW36605   5.524   0.928  11.174
44944SOL    HW136606   5.513   1.018  11.143
44944SOL    HW236607   5.504   0.932  11.267
44945SOL     OW36608   0.094  12.865   7.407
44945SOL    HW136609   0.179  12.827   7.383
44945SOL    HW236610   0.115  12.930   7.474
44946SOL     OW36611  11.978  14.384   2.317
44946SOL    HW136612  11.906  14.345   2.267
44946SOL    HW236613  11.938  14.410   2.400
44947SOL     OW36614   2.592   3.844  14.604
44947SOL    HW136615   2.603   3.914  14.539
44947SOL    HW236616   2.610   3.763  14.555
44948SOL     OW36617  14.140  14.852   8.474
44948SOL    HW136618  14.144   0.070   8.477
44948SOL    HW236619  14.154  14.830   8.382
44949SOL     OW36620   4.807  12.369   2.463
44949SOL    HW136621   4.883  12.353   2.407
44949SOL    HW236622   4.734  12.380   2.402
44950SOL     OW36623  11.937   7.180   6.560
44950SOL    HW136624  11.894   7.097   6.543
44950SOL    HW236625  11.914   7.235   6.485
44951SOL     OW36626   9.768   6.249   9.706
44951SOL    HW136627   9.700   6.182   9.695
44951SOL    HW236628   9.764   6.300   9.626
44952SOL     OW36629  12.372   4.207   5.805
44952SOL    HW136630  12.325   4.125   5.814
44952SOL    HW236631  12.352   4.255   5.885
44953SOL     OW36632   1.701   6.783  11.493
44953SOL    HW136633   1.766   6.720  11.525
44953SOL    HW236634   1.637   6.730  11.447
44954SOL     OW36635   7.811   4.191  13.681
44954SOL    HW136636   7.733   4.191  13.627
44954SOL    HW236637   7.883   4.203  13.620
44955SOL     OW36638   1.634  12.523   9.175
44955SOL    HW136639   1.570  12.489   9.112
44955SOL    HW236640   1.697  12.571   9.121
44956SOL     OW36641   5.658  11.621   9.473
44956SOL    HW136642   5.602  11.643   9.398
44956SOL    HW236643   5.597  11.593   9.541
44957SOL     OW36644   2.719   6.769  14.680
44957SOL    HW136645   2.700   6.817  14.761
44957SOL    HW236646   2.650   6.704  14.673
44958SOL     OW36647   6.544   1.922  10.653
44958SOL    HW136648   6.528   1.924  10.559
44958SOL    HW236649   6.635   1.893  10.662
44959SOL     OW36650  14.126  13.403  13.262
44959SOL    HW136651  14.124  13.494  13.292
44959SOL    HW236652  14.159  13.408  13.173
44960SOL     OW36653  13.516  12.421   5.441
44960SOL    HW136654  13.528  12.407   5.535
44960SOL    HW236655  13.489  12.335   5.407
44961SOL     OW36656   8.320   2.038   0.498
44961SOL    HW136657   8.274   2.105   0.447
44961SOL    HW236658   8.346   2.084   0.578
44962SOL     OW36659   9.764  11.626   8.914
44962SOL    HW136660   9.840  11.681   8.898
44962SOL    HW236661   9.749  11.631   9.009
44963SOL     OW36662   7.264   6.058   9.705
44963SOL    HW136663   7.253   5.965   9.724
44963SOL    HW236664   7.184   6.099   9.738
44964SOL     OW36665   5.443  11.811   3.559
44964SOL    HW136666   5.429  11.891   3.507
44964SOL    HW236667   5.359  11.796   3.602
44965SOL     OW36668   1.297   4.079  13.428
44965SOL    HW136669   1.298   4.152  13.490
44965SOL    HW236670   1.311   4.001  13.483
44966SOL     OW36671   0.192   9.988   8.614
44966SOL    HW136672   0.219   9.977   8.523
44966SOL    HW236673   0.255  10.048   8.651
44967SOL     OW36674   4.558   8.088  11.593
44967SOL    HW136675   4.526   8.147  11.525
44967SOL    HW236676   4.501   8.011  11.586
44968SOL     OW36677   8.533   7.474   0.187
44968SOL    HW136678   8.469   7.524   0.235
44968SOL    HW236679   8.618   7.501   0.223
44969SOL     OW36680  10.876   2.672   9.422
44969SOL    HW136681  10.956   2.681   9.370
44969SOL    HW236682  10.806   2.700   9.364
44970SOL     OW36683  11.964   5.109   1.965
44970SOL    HW136684  11.949   5.023   2.004
44970SOL    HW236685  12.013   5.090   1.885
44971SOL     OW36686   1.628  13.778   6.962
44971SOL    HW136687   1.656  13.766   7.053
44971SOL    HW236688   1.610  13.689   6.931
44972SOL     OW36689   0.638  13.974   3.764
44972SOL    HW136690   0.596  13.987   3.849
44972SOL    HW236691   0.730  13.996   3.780
44973SOL     OW36692   2.463   9.483  10.968
44973SOL    HW136693   2.524   9.554  10.950
44973SOL    HW236694   2.380   9.526  10.988
44974SOL     OW36695  11.487   7.493  13.621
44974SOL    HW136696  11.414   7.553  13.612
44974SOL    HW236697  11.489   7.445  13.538
44975SOL     OW36698  13.798  11.824  11.010
44975SOL    HW136699  13.889  11.849  11.028
44975SOL    HW236700  13.769  11.886  10.944
44976SOL     OW36701   9.607  14.800  13.256
44976SOL    HW136702   9.599  14.833  13.166
44976SOL    HW236703   9.518  14.774  13.279
44977SOL     OW36704   7.790   0.834  11.676
44977SOL    HW136705   7.820   0.764  11.734
44977SOL    HW236706   7.732   0.790  11.614
44978SOL     OW36707   6.721   6.015   8.545
44978SOL    HW136708   6.631   5.989   8.526
44978SOL    HW236709   6.713   6.090   8.604
44979SOL     OW36710   3.974   2.889   7.967
44979SOL    HW136711   4.040   2.830   8.006
44979SOL    HW236712   3.908   2.830   7.930
44980SOL     OW36713   0.605   0.626   0.478
44980SOL    HW136714   0.698   0.623   0.501
44980SOL    HW236715   0.603   0.611   0.383
44981SOL     OW36716   8.552   9.510   5.311
44981SOL    HW136717   8.471   9.479   5.352
44981SOL    HW236718   8.596   9.562   5.379
44982SOL     OW36719   8.168   4.449  12.543
44982SOL    HW136720   8.264   4.443  12.543
44982SOL    HW236721   8.150   4.536  12.508
44983SOL     OW36722  14.063   0.166   2.917
44983SOL    HW136723  14.115   0.102   2.868
44983SOL    HW236724  14.048   0.125   3.003
44984SOL     OW36725  12.370   5.216   4.588
44984SOL    HW136726  12.309   5.170   4.646
44984SOL    HW236727  12.415   5.146   4.541
44985SOL     OW36728   3.351   1.697   6.940
44985SOL    HW136729   3.289   1.713   7.012
44985SOL    HW236730   3.353   1.780   6.892
44986SOL     OW36731   7.309   7.328   6.977
44986SOL    HW136732   7.214   7.333   6.989
44986SOL    HW236733   7.328   7.235   6.968
44987SOL     OW36734  12.429  14.485   9.290
44987SOL    HW136735  12.503  14.438   9.327
44987SOL    HW236736  12.404  14.434   9.213
44988SOL     OW36737   8.273   9.172   9.004
44988SOL    HW136738   8.318   9.251   8.972
44988SOL    HW236739   8.222   9.142   8.929
44989SOL     OW36740  13.023  12.371   0.373
44989SOL    HW136741  12.977  12.407   0.448
44989SOL    HW236742  13.080  12.442   0.343
44990SOL     OW36743  10.981  14.654  10.076
44990SOL    HW136744  11.040  14.600  10.129
44990SOL    HW236745  11.039  14.714  10.030
44991SOL     OW36746   1.355   3.633   1.411
44991SOL    HW136747   1.415   3.620   1.484
44991SOL    HW236748   1.286   3.568   1.425
44992SOL     OW36749   8.480   1.256  10.041
44992SOL    HW136750   8.492   1.275   9.948
44992SOL    HW236751   8.385   1.255  10.053
44993SOL     OW36752   4.518   0.937   8.053
44993SOL    HW136753   4.524   0.932   7.958
44993SOL    HW236754   4.597   0.893   8.085
44994SOL     OW36755   8.214   2.588  13.739
44994SOL    HW136756   8.309   2.597  13.748
44994SOL    HW236757   8.198   2.494  13.750
44995SOL     OW36758   3.816   6.152   1.380
44995SOL    HW136759   3.788   6.133   1.469
44995SOL    HW236760   3.893   6.208   1.390
44996SOL     OW36761  10.809   7.063  11.424
44996SOL    HW136762  10.751   7.118  11.372
44996SOL    HW236763  10.764   6.979  11.428
44997SOL     OW36764   5.167  12.251   2.802
44997SOL    HW136765   5.132  12.167   2.832
44997SOL    HW236766   5.235  12.228   2.739
44998SOL     OW36767   0.371   6.455  10.624
44998SOL    HW136768   0.404   6.414  10.543
44998SOL    HW236769   0.450   6.490  10.666
44999SOL     OW36770   6.244  14.687   5.914
44999SOL    HW136771   6.261  14.770   5.868
44999SOL    HW236772   6.286  14.698   5.999
45000SOL     OW36773   7.295   5.416   2.750
45000SOL    HW136774   7.296   5.419   2.654
45000SOL    HW236775   7.351   5.341   2.771
45001SOL     OW36776  12.280  10.240   6.366
45001SOL    HW136777  12.258  10.257   6.274
45001SOL    HW236778  12.370  10.209   6.364
45002SOL     OW36779   2.942   7.477   4.025
45002SOL    HW136780   3.012   7.491   3.961
45002SOL    HW236781   2.951   7.550   4.086
45003SOL     OW36782   3.832   2.932   9.905
45003SOL    HW136783   3.869   2.961   9.989
45003SOL    HW236784   3.907   2.930   9.846
45004SOL     OW36785   3.109   6.391  12.851
45004SOL    HW136786   3.054   6.320  12.884
45004SOL    HW236787   3.068   6.471  12.887
45005SOL     OW36788  13.209   3.340   1.805
45005SOL    HW136789  13.232   3.432   1.790
45005SOL    HW236790  13.114   3.338   1.795
45006SOL     OW36791   4.518   0.707   0.462
45006SOL    HW136792   4.531   0.627   0.411
45006SOL    HW236793   4.573   0.773   0.419
45007SOL     OW36794   8.087  12.597   6.000
45007SOL    HW136795   8.108  12.504   5.989
45007SOL    HW236796   8.001  12.597   6.042
45008SOL     OW36797   4.537   4.035   4.088
45008SOL    HW136798   4.612   4.094   4.080
45008SOL    HW236799   4.493   4.040   4.003
45009SOL     OW36800   5.539   0.093  14.806
45009SOL    HW136801   5.445   0.076  14.800
45009SOL    HW236802   5.567   0.104  14.715
45010SOL     OW36803  12.340  12.829   9.317
45010SOL    HW136804  12.273  12.762   9.335
45010SOL    HW236805  12.419  12.794   9.357
45011SOL     OW36806   0.734  12.899   8.362
45011SOL    HW136807   0.706  12.891   8.453
45011SOL    HW236808   0.782  12.818   8.345
45012SOL     OW36809  13.173   4.523  10.829
45012SOL    HW136810  13.205   4.610  10.851
45012SOL    HW236811  13.113   4.538  10.755
45013SOL     OW36812   2.690   4.696   6.097
45013SOL    HW136813   2.718   4.772   6.148
45013SOL    HW236814   2.692   4.725   6.006
45014SOL     OW36815   8.142  14.241   9.713
45014SOL    HW136816   8.185  14.275   9.791
45014SOL    HW236817   8.102  14.159   9.742
45015SOL     OW36818  12.441   5.957  13.649
45015SOL    HW136819  12.347   5.954  13.667
45015SOL    HW236820  12.466   5.866  13.636
45016SOL     OW36821  14.874   4.060   2.722
45016SOL    HW136822   0.088   4.050   2.694
45016SOL    HW236823  14.831   3.980   2.691
45017SOL     OW36824  10.616   2.480  10.873
45017SOL    HW136825  10.683   2.418  10.902
45017SOL    HW236826  10.535   2.447  10.912
45018SOL     OW36827   3.546  12.561   3.483
45018SOL    HW136828   3.514  12.645   3.514
45018SOL    HW236829   3.625  12.582   3.433
45019SOL     OW36830  14.783   7.689  12.438
45019SOL    HW136831  14.829   7.763  12.477
45019SOL    HW236832  14.733   7.728  12.366
45020SOL     OW36833   9.292  13.627   6.583
45020SOL    HW136834   9.279  13.568   6.657
45020SOL    HW236835   9.258  13.577   6.508
45021SOL     OW36836   1.732  10.317  13.146
45021SOL    HW136837   1.795  10.379  13.111
45021SOL    HW236838   1.780  10.235  13.153
45022SOL     OW36839   1.639   6.422  13.730
45022SOL    HW136840   1.563   6.371  13.761
45022SOL    HW236841   1.666   6.474  13.806
45023SOL     OW36842   5.878   6.922   0.316
45023SOL    HW136843   5.824   6.854   0.275
45023SOL    HW236844   5.920   6.967   0.243
45024SOL     OW36845   6.678  10.321   8.543
45024SOL    HW136846   6.624  10.312   8.621
45024SOL    HW236847   6.746  10.384   8.566
45025SOL     OW36848   9.661   0.591  12.390
45025SOL    HW136849   9.726   0.627  12.331
45025SOL    HW236850   9.662   0.650  12.466
45026SOL     OW36851  10.046   7.101   1.653
45026SOL    HW136852  10.133   7.087   1.616
45026SOL    HW236853   9.989   7.114   1.578
45027SOL     OW36854   8.713   1.092   4.683
45027SOL    HW136855   8.742   1.007   4.651
45027SOL    HW236856   8.625   1.077   4.717
45028SOL     OW36857   2.530  12.719   4.842
45028SOL    HW136858   2.523  12.689   4.933
45028SOL    HW236859   2.509  12.813   4.846
45029SOL     OW36860  14.023  12.148   8.244
45029SOL    HW136861  14.052  12.229   8.286
45029SOL    HW236862  13.982  12.177   8.162
45030SOL     OW36863   0.704  13.585   1.299
45030SOL    HW136864   0.608  13.583   1.301
45030SOL    HW236865   0.726  13.592   1.206
45031SOL     OW36866   0.696   6.952   4.312
45031SOL    HW136867   0.735   6.865   4.306
45031SOL    HW236868   0.636   6.956   4.238
45032SOL     OW36869   5.344   8.872   7.643
45032SOL    HW136870   5.315   8.940   7.703
45032SOL    HW236871   5.287   8.798   7.662
45033SOL     OW36872   7.363   4.760   1.167
45033SOL    HW136873   7.327   4.677   1.197
45033SOL    HW236874   7.373   4.749   1.072
45034SOL     OW36875  14.315  12.956   2.378
45034SOL    HW136876  14.397  12.974   2.332
45034SOL    HW236877  14.252  13.018   2.340
45035SOL     OW36878  12.650   4.629   5.456
45035SOL    HW136879  12.686   4.653   5.370
45035SOL    HW236880  12.725   4.595   5.505
45036SOL     OW36881   0.766  11.844   0.366
45036SOL    HW136882   0.703  11.782   0.328
45036SOL    HW236883   0.791  11.900   0.293
45037SOL     OW36884   7.470   7.409  10.712
45037SOL    HW136885   7.487   7.462  10.634
45037SOL    HW236886   7.556   7.395  10.752
45038SOL     OW36887   2.275   1.164   8.587
45038SOL    HW136888   2.188   1.180   8.549
45038SOL    HW236889   2.284   1.232   8.655
45039SOL     OW36890   0.941   1.140  11.316
45039SOL    HW136891   1.013   1.200  11.337
45039SOL    HW236892   0.975   1.054  11.339
45040SOL     OW36893   5.330   4.092  10.955
45040SOL    HW136894   5.383   4.141  10.893
45040SOL    HW236895   5.242   4.092  10.918
45041SOL     OW36896  13.633   2.441   8.981
45041SOL    HW136897  13.693   2.372   8.952
45041SOL    HW236898  13.684   2.491   9.045
45042SOL     OW36899   2.079   6.531   5.943
45042SOL    HW136900   2.034   6.449   5.922
45042SOL    HW236901   2.163   6.504   5.980
45043SOL     OW36902  14.242  14.347   8.545
45043SOL    HW136903  14.304  14.280   8.515
45043SOL    HW236904  14.269  14.427   8.500
45044SOL     OW36905   8.501   8.004   3.315
45044SOL    HW136906   8.420   8.021   3.363
45044SOL    HW236907   8.551   8.085   3.321
45045SOL     OW36908  12.416   9.213  10.532
45045SOL    HW136909  12.349   9.271  10.569
45045SOL    HW236910  12.377   9.126  10.538
45046SOL     OW36911  10.438  10.953  12.419
45046SOL    HW136912  10.446  11.018  12.489
45046SOL    HW236913  10.528  10.941  12.387
45047SOL     OW36914   9.798   4.818  10.674
45047SOL    HW136915   9.742   4.871  10.618
45047SOL    HW236916   9.794   4.861  10.760
45048SOL     OW36917   5.068   5.269  11.148
45048SOL    HW136918   4.973   5.259  11.138
45048SOL    HW236919   5.102   5.267  11.058
45049SOL     OW36920  10.331   8.277   3.362
45049SOL    HW136921  10.260   8.234   3.409
45049SOL    HW236922  10.405   8.217   3.370
45050SOL     OW36923   2.300  10.846   1.406
45050SOL    HW136924   2.206  10.833   1.391
45050SOL    HW236925   2.342  10.796   1.336
45051SOL     OW36926  10.672  10.468   8.586
45051SOL    HW136927  10.620  10.472   8.506
45051SOL    HW236928  10.674  10.375   8.608
45052SOL     OW36929  13.020   9.164   3.754
45052SOL    HW136930  13.029   9.104   3.680
45052SOL    HW236931  12.927   9.162   3.775
45053SOL     OW36932   4.296   6.635   0.438
45053SOL    HW136933   4.387   6.651   0.465
45053SOL    HW236934   4.291   6.673   0.351
45054SOL     OW36935   3.320  13.351   4.043
45054SOL    HW136936   3.240  13.403   4.033
45054SOL    HW236937   3.368  13.395   4.113
45055SOL     OW36938   1.793   0.130  12.649
45055SOL    HW136939   1.714   0.154  12.699
45055SOL    HW236940   1.861   0.121  12.716
45056SOL     OW36941  11.686  11.943   9.623
45056SOL    HW136942  11.755  11.881   9.602
45056SOL    HW236943  11.605  11.896   9.603
45057SOL     OW36944   1.543  10.336   2.929
45057SOL    HW136945   1.614  10.393   2.900
45057SOL    HW236946   1.587  10.258   2.963
45058SOL     OW36947  12.551  14.122   0.886
45058SOL    HW136948  12.620  14.118   0.952
45058SOL    HW236949  12.577  14.194   0.828
45059SOL     OW36950   7.196  10.526  13.256
45059SOL    HW136951   7.283  10.567  13.264
45059SOL    HW236952   7.207  10.462  13.186
45060SOL     OW36953   4.824  13.262   0.816
45060SOL    HW136954   4.763  13.188   0.816
45060SOL    HW236955   4.801  13.312   0.894
45061SOL     OW36956   3.617  12.376   4.030
45061SOL    HW136957   3.576  12.291   4.041
45061SOL    HW236958   3.691  12.360   3.971
45062SOL     OW36959   3.353   5.873   3.934
45062SOL    HW136960   3.445   5.860   3.909
45062SOL    HW236961   3.318   5.932   3.868
45063SOL     OW36962  12.369  10.955   0.508
45063SOL    HW136963  12.290  10.901   0.507
45063SOL    HW236964  12.411  10.938   0.424
45064SOL     OW36965  12.135   2.673   5.360
45064SOL    HW136966  12.220   2.631   5.349
45064SOL    HW236967  12.155   2.754   5.408
45065SOL     OW36968  11.735   3.650  10.873
45065SOL    HW136969  11.726   3.576  10.814
45065SOL    HW236970  11.787   3.616  10.946
45066SOL     OW36971  11.037   0.018   1.677
45066SOL    HW136972  11.051  14.836   1.604
45066SOL    HW236973  10.942   0.028   1.682
45067SOL     OW36974  10.222   1.614   1.248
45067SOL    HW136975  10.242   1.682   1.183
45067SOL    HW236976  10.251   1.652   1.331
45068SOL     OW36977   6.409  10.176   6.310
45068SOL    HW136978   6.344  10.185   6.241
45068SOL    HW236979   6.492  10.165   6.264
45069SOL     OW36980   9.112   2.903  10.979
45069SOL    HW136981   9.145   2.961  11.048
45069SOL    HW236982   9.175   2.913  10.907
45070SOL     OW36983   9.341  10.459   9.243
45070SOL    HW136984   9.265  10.402   9.229
45070SOL    HW236985   9.310  10.526   9.304
45071SOL     OW36986   8.802   1.218   5.508
45071SOL    HW136987   8.875   1.274   5.483
45071SOL    HW236988   8.771   1.181   5.425
45072SOL     OW36989   1.799   5.822   7.252
45072SOL    HW136990   1.878   5.812   7.304
45072SOL    HW236991   1.781   5.916   7.253
45073SOL     OW36992   9.977   9.614   9.098
45073SOL    HW136993  10.033   9.691   9.106
45073SOL    HW236994  10.033   9.548   9.059
45074SOL     OW36995   7.444  11.321   0.614
45074SOL    HW136996   7.522  11.266   0.624
45074SOL    HW236997   7.452  11.360   0.527
45075SOL     OW36998  11.565   7.414   6.784
45075SOL    HW136999  11.614   7.428   6.864
45075SOL    HW237000  11.622   7.449   6.715
45076SOL     OW37001   5.343   1.490   6.429
45076SOL    HW137002   5.342   1.510   6.523
45076SOL    HW237003   5.434   1.470   6.409
45077SOL     OW37004  11.395   4.801  14.778
45077SOL    HW137005  11.416   4.891  14.804
45077SOL    HW237006  11.424   4.748  14.853
45078SOL     OW37007  14.798   2.719   7.324
45078SOL    HW137008  14.768   2.647   7.379
45078SOL    HW237009   0.008   2.691   7.294
45079SOL     OW37010  12.081   2.683   1.929
45079SOL    HW137011  12.158   2.662   1.875
45079SOL    HW237012  12.099   2.642   2.013
45080SOL     OW37013   3.713  11.215   4.961
45080SOL    HW137014   3.621  11.189   4.965
45080SOL    HW237015   3.747  11.171   4.883
45081SOL     OW37016  10.494  14.296   0.443
45081SOL    HW137017  10.428  14.227   0.446
45081SOL    HW237018  10.455  14.369   0.490
45082SOL     OW37019   6.885  11.182  14.579
45082SOL    HW137020   6.903  11.250  14.514
45082SOL    HW237021   6.825  11.121  14.535
45083SOL     OW37022  11.395   5.715  10.724
45083SOL    HW137023  11.308   5.753  10.738
45083SOL    HW237024  11.389   5.673  10.639
45084SOL     OW37025   3.808   6.342   4.505
45084SOL    HW137026   3.831   6.411   4.443
45084SOL    HW237027   3.736   6.294   4.463
45085SOL     OW37028  14.414   7.157   7.186
45085SOL    HW137029  14.438   7.231   7.241
45085SOL    HW237030  14.490   7.143   7.129
45086SOL     OW37031   3.316   8.207   0.985
45086SOL    HW137032   3.301   8.295   1.021
45086SOL    HW237033   3.385   8.219   0.921
45087SOL     OW37034   8.375  13.050   7.599
45087SOL    HW137035   8.424  13.128   7.623
45087SOL    HW237036   8.441  12.989   7.567
45088SOL     OW37037  13.728   6.531   1.223
45088SOL    HW137038  13.782   6.546   1.145
45088SOL    HW237039  13.767   6.587   1.290
45089SOL     OW37040   5.471   5.595  12.814
45089SOL    HW137041   5.469   5.685  12.782
45089SOL    HW237042   5.448   5.542  12.737
45090SOL     OW37043  10.184   4.824  14.767
45090SOL    HW137044  10.142   4.904  14.797
45090SOL    HW237045  10.192   4.836  14.672
45091SOL     OW37046   4.665  13.420   0.647
45091SOL    HW137047   4.589  13.372   0.614
45091SOL    HW237048   4.718  13.353   0.692
45092SOL     OW37049   0.397  14.137   3.704
45092SOL    HW137050   0.492  14.128   3.700
45092SOL    HW237051   0.369  14.139   3.612
45093SOL     OW37052  13.624  13.146   6.045
45093SOL    HW137053  13.538  13.167   6.083
45093SOL    HW237054  13.664  13.231   6.028
45094SOL     OW37055  14.036   1.329  14.131
45094SOL    HW137056  14.073   1.359  14.049
45094SOL    HW237057  14.090   1.254  14.157
45095SOL     OW37058  12.876   8.055  14.592
45095SOL    HW137059  12.796   8.028  14.638
45095SOL    HW237060  12.935   7.980  14.600
45096SOL     OW37061   5.646   8.768  10.853
45096SOL    HW137062   5.569   8.755  10.908
45096SOL    HW237063   5.648   8.862  10.836
45097SOL     OW37064  13.721  10.959  10.903
45097SOL    HW137065  13.813  10.971  10.928
45097SOL    HW237066  13.693  10.883  10.954
45098SOL     OW37067   8.013  12.876   2.328
45098SOL    HW137068   8.082  12.864   2.393
45098SOL    HW237069   7.937  12.906   2.379
45099SOL     OW37070  12.125   6.595   0.199
45099SOL    HW137071  12.063   6.523   0.188
45099SOL    HW237072  12.132   6.605   0.294
45100SOL     OW37073   3.553   8.088   8.037
45100SOL    HW137074   3.469   8.043   8.029
45100SOL    HW237075   3.581   8.069   8.127
45101SOL     OW37076   6.006   6.293   3.712
45101SOL    HW137077   6.010   6.199   3.695
45101SOL    HW237078   6.030   6.301   3.804
45102SOL     OW37079  13.872  12.824   7.803
45102SOL    HW137080  13.883  12.800   7.895
45102SOL    HW237081  13.811  12.899   7.805
45103SOL     OW37082   1.403   3.224   4.650
45103SOL    HW137083   1.308   3.228   4.644
45103SOL    HW237084   1.433   3.233   4.560
45104SOL     OW37085   9.487   7.781  14.022
45104SOL    HW137086   9.419   7.789  13.955
45104SOL    HW237087   9.525   7.869  14.029
45105SOL     OW37088  10.552   0.295  13.951
45105SOL    HW137089  10.588   0.382  13.969
45105SOL    HW237090  10.625   0.236  13.965
45106SOL     OW37091  10.829   1.883   2.811
45106SOL    HW137092  10.750   1.896   2.863
45106SOL    HW237093  10.874   1.967   2.814
45107SOL     OW37094   5.913   4.599  12.517
45107SOL    HW137095   5.977   4.547  12.468
45107SOL    HW237096   5.962   4.630  12.593
45108SOL     OW37097   3.584  12.540   4.598
45108SOL    HW137098   3.518  12.589   4.646
45108SOL    HW237099   3.626  12.485   4.664
45109SOL     OW37100   2.065   5.120  14.733
45109SOL    HW137101   1.988   5.118  14.790
45109SOL    HW237102   2.104   5.034  14.742
45110SOL     OW37103  11.308  12.287   3.328
45110SOL    HW137104  11.226  12.249   3.296
45110SOL    HW237105  11.359  12.306   3.249
45111SOL     OW37106   3.430   2.176  11.864
45111SOL    HW137107   3.451   2.268  11.849
45111SOL    HW237108   3.350   2.178  11.916
45112SOL     OW37109   5.992   9.471  11.465
45112SOL    HW137110   5.908   9.481  11.420
45112SOL    HW237111   5.970   9.477  11.558
45113SOL     OW37112  13.906   3.119  12.503
45113SOL    HW137113  13.858   3.070  12.570
45113SOL    HW237114  13.981   3.064  12.482
45114SOL     OW37115   7.692  13.949   9.146
45114SOL    HW137116   7.782  13.978   9.128
45114SOL    HW237117   7.638  14.027   9.133
45115SOL     OW37118  12.247   0.446   1.537
45115SOL    HW137119  12.228   0.397   1.617
45115SOL    HW237120  12.251   0.380   1.468
45116SOL     OW37121   4.483   3.901   4.321
45116SOL    HW137122   4.495   3.913   4.227
45116SOL    HW237123   4.389   3.914   4.335
45117SOL     OW37124   4.752   3.175   4.645
45117SOL    HW137125   4.829   3.185   4.589
45117SOL    HW237126   4.759   3.085   4.678
45118SOL     OW37127   2.442  12.839   7.056
45118SOL    HW137128   2.408  12.920   7.019
45118SOL    HW237129   2.367  12.799   7.100
45119SOL     OW37130   3.454   5.887  11.550
45119SOL    HW137131   3.491   5.972  11.529
45119SOL    HW237132   3.463   5.836  11.469
45120SOL     OW37133   7.609   9.100   5.082
45120SOL    HW137134   7.577   9.084   5.171
45120SOL    HW237135   7.556   9.174   5.051
45121SOL     OW37136   2.222   0.617  14.222
45121SOL    HW137137   2.177   0.680  14.278
45121SOL    HW237138   2.292   0.582  14.277
45122SOL     OW37139  11.083   7.130   5.720
45122SOL    HW137140  11.086   7.037   5.741
45122SOL    HW237141  11.074   7.132   5.625
45123SOL     OW37142   3.733  12.820   9.704
45123SOL    HW137143   3.740  12.846   9.612
45123SOL    HW237144   3.706  12.900   9.749
45124SOL     OW37145   6.981   5.194   3.529
45124SOL    HW137146   6.890   5.170   3.510
45124SOL    HW237147   7.033   5.124   3.488
45125SOL     OW37148  10.329   1.675  10.740
45125SOL    HW137149  10.246   1.660  10.695
45125SOL    HW237150  10.396   1.655  10.674
45126SOL     OW37151   3.232  12.206   8.213
45126SOL    HW137152   3.325  12.222   8.225
45126SOL    HW237153   3.190  12.265   8.276
45127SOL     OW37154   0.868   3.186   5.290
45127SOL    HW137155   0.853   3.280   5.301
45127SOL    HW237156   0.787   3.153   5.252
45128SOL     OW37157   7.292   3.909  10.703
45128SOL    HW137158   7.380   3.935  10.676
45128SOL    HW237159   7.270   3.969  10.774
45129SOL     OW37160  12.406   0.073   8.545
45129SOL    HW137161  12.314   0.099   8.552
45129SOL    HW237162  12.438   0.117   8.466
45130SOL     OW37163   6.496  10.760   3.838
45130SOL    HW137164   6.563  10.745   3.771
45130SOL    HW237165   6.483  10.674   3.879
45131SOL     OW37166   2.241   0.388   8.854
45131SOL    HW137167   2.260   0.311   8.800
45131SOL    HW237168   2.149   0.407   8.838
45132SOL     OW37169   4.295   8.576   9.054
45132SOL    HW137170   4.252   8.660   9.069
45132SOL    HW237171   4.386   8.590   9.081
45133SOL     OW37172   7.608   8.402   0.480
45133SOL    HW137173   7.523   8.440   0.457
45133SOL    HW237174   7.670   8.449   0.425
45134SOL     OW37175  13.367   5.960   0.258
45134SOL    HW137176  13.399   5.902   0.328
45134SOL    HW237177  13.400   6.047   0.282
45135SOL     OW37178   0.669  13.921  14.662
45135SOL    HW137179   0.742  13.871  14.626
45135SOL    HW237180   0.623  13.955  14.586
45136SOL     OW37181   6.282   4.836  10.809
45136SOL    HW137182   6.195   4.838  10.769
45136SOL    HW237183   6.268   4.871  10.898
45137SOL     OW37184   5.687   1.671   8.952
45137SOL    HW137185   5.645   1.616   8.886
45137SOL    HW237186   5.723   1.608   9.015
45138SOL     OW37187   7.989   8.781   3.234
45138SOL    HW137188   8.048   8.719   3.277
45138SOL    HW237189   8.001   8.765   3.140
45139SOL     OW37190   3.405  12.051   5.516
45139SOL    HW137191   3.369  12.136   5.542
45139SOL    HW237192   3.403  11.998   5.596
45140SOL     OW37193  13.308   5.412   1.848
45140SOL    HW137194  13.226   5.363   1.853
45140SOL    HW237195  13.282   5.503   1.860
45141SOL     OW37196   2.973  11.725  10.558
45141SOL    HW137197   2.893  11.772  10.582
45141SOL    HW237198   3.030  11.792  10.521
45142SOL     OW37199   4.418   0.260  14.542
45142SOL    HW137200   4.494   0.204  14.529
45142SOL    HW237201   4.384   0.236  14.629
45143SOL     OW37202   1.258  11.244   6.546
45143SOL    HW137203   1.353  11.230   6.543
45143SOL    HW237204   1.223  11.186   6.478
45144SOL     OW37205   6.640   2.367   2.208
45144SOL    HW137206   6.599   2.323   2.282
45144SOL    HW237207   6.732   2.344   2.214
45145SOL     OW37208   8.660   2.881   6.751
45145SOL    HW137209   8.751   2.875   6.724
45145SOL    HW237210   8.663   2.894   6.845
45146SOL     OW37211   7.944   3.898   6.485
45146SOL    HW137212   7.929   3.992   6.485
45146SOL    HW237213   8.039   3.889   6.479
45147SOL     OW37214   9.619  12.001   8.520
45147SOL    HW137215   9.632  11.974   8.429
45147SOL    HW237216   9.593  12.093   8.513
45148SOL     OW37217   9.158  10.726  12.827
45148SOL    HW137218   9.069  10.748  12.853
45148SOL    HW237219   9.200  10.696  12.907
45149SOL     OW37220  12.975   6.848  13.620
45149SOL    HW137221  13.047   6.792  13.650
45149SOL    HW237222  12.985   6.850  13.525
45150SOL     OW37223   7.698   7.234   3.592
45150SOL    HW137224   7.781   7.206   3.555
45150SOL    HW237225   7.691   7.187   3.675
45151SOL     OW37226   1.052   0.378   0.993
45151SOL    HW137227   0.974   0.328   1.019
45151SOL    HW237228   1.109   0.375   1.070
45152SOL     OW37229  14.534  12.155   6.945
45152SOL    HW137230  14.516  12.188   6.857
45152SOL    HW237231  14.455  12.174   6.995
45153SOL     OW37232  11.750  10.607   6.898
45153SOL    HW137233  11.821  10.671   6.905
45153SOL    HW237234  11.795  10.523   6.885
45154SOL     OW37235   7.602   9.525  12.097
45154SOL    HW137236   7.540   9.461  12.063
45154SOL    HW237237   7.678   9.473  12.123
45155SOL     OW37238  12.238   0.773   6.679
45155SOL    HW137239  12.160   0.798   6.629
45155SOL    HW237240  12.295   0.850   6.675
45156SOL     OW37241  14.438   2.532   2.274
45156SOL    HW137242  14.411   2.609   2.322
45156SOL    HW237243  14.506   2.492   2.328
45157SOL     OW37244   8.583  10.456  11.384
45157SOL    HW137245   8.633  10.413  11.314
45157SOL    HW237246   8.613  10.546  11.383
45158SOL     OW37247   8.534   4.893   1.199
45158SOL    HW137248   8.552   4.972   1.148
45158SOL    HW237249   8.497   4.832   1.135
45159SOL     OW37250   4.802  10.205   2.950
45159SOL    HW137251   4.856  10.282   2.931
45159SOL    HW237252   4.743  10.199   2.875
45160SOL     OW37253   6.815  10.128   8.400
45160SOL    HW137254   6.825  10.058   8.464
45160SOL    HW237255   6.735  10.174   8.426
45161SOL     OW37256   1.635  12.048  13.886
45161SOL    HW137257   1.719  12.035  13.929
45161SOL    HW237258   1.643  12.132  13.841
45162SOL     OW37259   4.272  11.308   1.191
45162SOL    HW137260   4.279  11.246   1.119
45162SOL    HW237261   4.278  11.394   1.150
45163SOL     OW37262  13.128   2.913   2.558
45163SOL    HW137263  13.209   2.964   2.555
45163SOL    HW237264  13.147   2.841   2.619
45164SOL     OW37265   1.351   7.858  14.063
45164SOL    HW137266   1.302   7.798  14.120
45164SOL    HW237267   1.435   7.815  14.049
45165SOL     OW37268  12.559  14.624  10.701
45165SOL    HW137269  12.503  14.621  10.624
45165SOL    HW237270  12.526  14.554  10.758
45166SOL     OW37271  10.479   0.572  12.703
45166SOL    HW137272  10.537   0.497  12.715
45166SOL    HW237273  10.425   0.547  12.628
45167SOL     OW37274   8.572  13.483  12.983
45167SOL    HW137275   8.517  13.427  13.037
45167SOL    HW237276   8.513  13.519  12.917
45168SOL     OW37277   1.202   7.832   1.469
45168SOL    HW137278   1.218   7.903   1.530
45168SOL    HW237279   1.117   7.797   1.495
45169SOL     OW37280  14.731  12.641  10.432
45169SOL    HW137281  14.642  12.609  10.421
45169SOL    HW237282  14.743  12.702  10.359
45170SOL     OW37283  13.584   0.790   6.470
45170SOL    HW137284  13.663   0.736   6.475
45170SOL    HW237285  13.561   0.806   6.561
45171SOL     OW37286  10.103  14.724   5.389
45171SOL    HW137287  10.176  14.731   5.451
45171SOL    HW237288  10.068  14.813   5.384
45172SOL     OW37289   6.359   5.516  13.253
45172SOL    HW137290   6.428   5.581  13.266
45172SOL    HW237291   6.400   5.448  13.200
45173SOL     OW37292  12.841   0.880  13.347
45173SOL    HW137293  12.752   0.905  13.325
45173SOL    HW237294  12.890   0.962  13.348
45174SOL     OW37295   8.244  10.853   4.595
45174SOL    HW137296   8.229  10.819   4.683
45174SOL    HW237297   8.339  10.858   4.586
45175SOL     OW37298   3.489   0.087  11.068
45175SOL    HW137299   3.577   0.053  11.051
45175SOL    HW237300   3.439   0.067  10.989
45176SOL     OW37301  12.662   6.080   4.821
45176SOL    HW137302  12.602   6.140   4.865
45176SOL    HW237303  12.748   6.098   4.860
45177SOL     OW37304   0.483   6.783   7.419
45177SOL    HW137305   0.507   6.691   7.424
45177SOL    HW237306   0.483   6.813   7.510
45178SOL     OW37307  10.689   3.924   3.703
45178SOL    HW137308  10.649   3.957   3.623
45178SOL    HW237309  10.676   3.993   3.768
45179SOL     OW37310  14.192  13.763   2.703
45179SOL    HW137311  14.182  13.857   2.687
45179SOL    HW237312  14.270  13.738   2.653
45180SOL     OW37313   5.167   7.382   9.496
45180SOL    HW137314   5.076   7.410   9.485
45180SOL    HW237315   5.178   7.371   9.590
45181SOL     OW37316  12.282   8.245  11.495
45181SOL    HW137317  12.231   8.208  11.423
45181SOL    HW237318  12.275   8.339  11.483
45182SOL     OW37319   2.633   5.708   9.986
45182SOL    HW137320   2.586   5.626   9.967
45182SOL    HW237321   2.710   5.681  10.036
45183SOL     OW37322  13.048  13.414  11.273
45183SOL    HW137323  12.990  13.376  11.207
45183SOL    HW237324  13.115  13.461  11.222
45184SOL     OW37325  10.203   6.551  12.632
45184SOL    HW137326  10.195   6.507  12.547
45184SOL    HW237327  10.143   6.504  12.689
45185SOL     OW37328   0.486   8.842  10.934
45185SOL    HW137329   0.520   8.756  10.908
45185SOL    HW237330   0.406   8.822  10.983
45186SOL     OW37331   9.634  14.720   1.349
45186SOL    HW137332   9.559  14.736   1.405
45186SOL    HW237333   9.708  14.713   1.408
45187SOL     OW37334   9.970  14.873   6.069
45187SOL    HW137335  10.062  14.876   6.097
45187SOL    HW237336   9.923   0.041   6.139
45188SOL     OW37337   6.099   0.468  14.516
45188SOL    HW137338   6.129   0.520  14.590
45188SOL    HW237339   6.008   0.446  14.538
45189SOL     OW37340  11.405   8.210   7.412
45189SOL    HW137341  11.485   8.227   7.363
45189SOL    HW237342  11.412   8.265   7.489
45190SOL     OW37343   7.082   5.562  14.228
45190SOL    HW137344   7.028   5.641  14.237
45190SOL    HW237345   7.131   5.576  14.147
45191SOL     OW37346   5.120  11.622   9.139
45191SOL    HW137347   5.074  11.651   9.218
45191SOL    HW237348   5.075  11.666   9.067
45192SOL     OW37349   3.845   4.223   3.319
45192SOL    HW137350   3.852   4.139   3.274
45192SOL    HW237351   3.877   4.206   3.408
45193SOL     OW37352   0.759  11.187  11.719
45193SOL    HW137353   0.730  11.124  11.784
45193SOL    HW237354   0.708  11.167  11.641
45194SOL     OW37355   5.271   1.128   0.792
45194SOL    HW137356   5.325   1.080   0.855
45194SOL    HW237357   5.181   1.105   0.814
45195SOL     OW37358   2.896   3.723   2.560
45195SOL    HW137359   2.910   3.779   2.483
45195SOL    HW237360   2.956   3.649   2.547
45196SOL     OW37361   7.927   3.409   2.847
45196SOL    HW137362   8.014   3.371   2.843
45196SOL    HW237363   7.892   3.399   2.759
45197SOL     OW37364   8.437  13.497  14.320
45197SOL    HW137365   8.431  13.407  14.289
45197SOL    HW237366   8.530  13.519  14.314
45198SOL     OW37367   3.069   1.638   6.865
45198SOL    HW137368   3.026   1.699   6.805
45198SOL    HW237369   3.161   1.641   6.839
45199SOL     OW37370   8.148  14.543  11.908
45199SOL    HW137371   8.071  14.598  11.925
45199SOL    HW237372   8.131  14.462  11.956
45200SOL     OW37373   6.531   1.742  14.212
45200SOL    HW137374   6.576   1.826  14.219
45200SOL    HW237375   6.438   1.765  14.206
45201SOL     OW37376   0.164   8.879   2.405
45201SOL    HW137377   0.201   8.880   2.316
45201SOL    HW237378   0.138   8.970   2.420
45202SOL     OW37379   5.166   0.284   3.151
45202SOL    HW137380   5.260   0.266   3.148
45202SOL    HW237381   5.161   0.375   3.180
45203SOL     OW37382   5.832  12.523   7.768
45203SOL    HW137383   5.886  12.588   7.723
45203SOL    HW237384   5.745  12.534   7.731
45204SOL     OW37385  10.124   0.464  12.627
45204SOL    HW137386  10.188   0.510  12.573
45204SOL    HW237387  10.101   0.527  12.695
45205SOL     OW37388   8.021   4.759  11.503
45205SOL    HW137389   8.036   4.674  11.543
45205SOL    HW237390   8.108   4.790  11.477
45206SOL     OW37391   5.058   2.789  11.879
45206SOL    HW137392   5.150   2.771  11.896
45206SOL    HW237393   5.047   2.773  11.785
45207SOL     OW37394  10.600   0.466   1.458
45207SOL    HW137395  10.504   0.458   1.461
45207SOL    HW237396  10.629   0.385   1.417
45208SOL     OW37397   8.888   8.474   6.029
45208SOL    HW137398   8.965   8.527   6.008
45208SOL    HW237399   8.860   8.505   6.115
45209SOL     OW37400   0.488   9.627  10.601
45209SOL    HW137401   0.498   9.587  10.515
45209SOL    HW237402   0.572   9.613  10.645
45210SOL     OW37403   5.339   3.917   5.716
45210SOL    HW137404   5.279   3.984   5.750
45210SOL    HW237405   5.426   3.946   5.744
45211SOL     OW37406   4.963  11.153   5.595
45211SOL    HW137407   4.967  11.058   5.604
45211SOL    HW237408   4.888  11.169   5.537
45212SOL     OW37409   6.368   6.095   4.866
45212SOL    HW137410   6.305   6.023   4.874
45212SOL    HW237411   6.391   6.096   4.773
45213SOL     OW37412   8.630   0.416   9.186
45213SOL    HW137413   8.666   0.340   9.141
45213SOL    HW237414   8.535   0.409   9.173
45214SOL     OW37415   3.423   5.441   2.051
45214SOL    HW137416   3.403   5.492   2.130
45214SOL    HW237417   3.382   5.491   1.980
45215SOL     OW37418  13.978   5.396  14.008
45215SOL    HW137419  13.945   5.401  13.919
45215SOL    HW237420  13.935   5.468  14.054
45216SOL     OW37421  10.022   4.007  12.196
45216SOL    HW137422  10.029   4.038  12.106
45216SOL    HW237423   9.928   4.007  12.214
45217SOL     OW37424   2.230  14.865   4.052
45217SOL    HW137425   2.136   0.006   4.062
45217SOL    HW237426   2.273   0.059   4.098
45218SOL     OW37427   2.339   2.026  14.874
45218SOL    HW137428   2.300   1.998  14.791
45218SOL    HW237429   2.430   1.996  14.869
45219SOL     OW37430  13.267  14.847   9.416
45219SOL    HW137431  13.246  14.754   9.415
45219SOL    HW237432  13.187   0.012   9.446
45220SOL     OW37433   6.837   9.657  13.991
45220SOL    HW137434   6.758   9.605  14.006
45220SOL    HW237435   6.809   9.730  13.936
45221SOL     OW37436   9.403   7.367  14.319
45221SOL    HW137437   9.452   7.337  14.395
45221SOL    HW237438   9.440   7.453  14.299
45222SOL     OW37439  10.183   4.832   6.480
45222SOL    HW137440  10.245   4.831   6.406
45222SOL    HW237441  10.239   4.836   6.557
45223SOL     OW37442   5.004   8.222   7.572
45223SOL    HW137443   5.005   8.278   7.495
45223SOL    HW237444   5.084   8.170   7.564
45224SOL     OW37445  13.784  12.566   1.814
45224SOL    HW137446  13.715  12.543   1.751
45224SOL    HW237447  13.744  12.551   1.900
45225SOL     OW37448   2.148   0.818   3.923
45225SOL    HW137449   2.141   0.885   3.991
45225SOL    HW237450   2.236   0.829   3.887
45226SOL     OW37451   0.285  12.581  13.884
45226SOL    HW137452   0.316  12.636  13.956
45226SOL    HW237453   0.230  12.514  13.926
45227SOL     OW37454  10.237   1.579   3.187
45227SOL    HW137455  10.248   1.538   3.101
45227SOL    HW237456  10.282   1.663   3.179
45228SOL     OW37457   3.812   3.638   3.430
45228SOL    HW137458   3.905   3.619   3.444
45228SOL    HW237459   3.801   3.634   3.335
45229SOL     OW37460   0.515   6.538   0.720
45229SOL    HW137461   0.453   6.610   0.728
45229SOL    HW237462   0.601   6.581   0.720
45230SOL     OW37463   2.059   5.958   4.896
45230SOL    HW137464   2.148   5.972   4.929
45230SOL    HW237465   2.065   5.982   4.803
45231SOL     OW37466   7.190   2.352   4.119
45231SOL    HW137467   7.183   2.381   4.210
45231SOL    HW237468   7.227   2.264   4.125
45232SOL     OW37469  14.353   6.801   4.769
45232SOL    HW137470  14.345   6.753   4.687
45232SOL    HW237471  14.325   6.890   4.748
45233SOL     OW37472  12.955   2.635   4.609
45233SOL    HW137473  13.027   2.662   4.666
45233SOL    HW237474  12.903   2.574   4.662
45234SOL     OW37475   5.802  12.835   9.567
45234SOL    HW137476   5.716  12.827   9.525
45234SOL    HW237477   5.795  12.913   9.622
45235SOL     OW37478  12.952  11.878  14.001
45235SOL    HW137479  13.002  11.798  14.016
45235SOL    HW237480  12.861  11.852  14.014
45236SOL     OW37481  10.589   7.232   8.279
45236SOL    HW137482  10.606   7.143   8.248
45236SOL    HW237483  10.499   7.229   8.310
45237SOL     OW37484   9.654   7.307   9.304
45237SOL    HW137485   9.628   7.279   9.217
45237SOL    HW237486   9.662   7.402   9.297
45238SOL     OW37487   1.456   4.135  11.790
45238SOL    HW137488   1.513   4.153  11.865
45238SOL    HW237489   1.502   4.067  11.742
45239SOL     OW37490   1.310  13.001   7.517
45239SOL    HW137491   1.368  13.050   7.458
45239SOL    HW237492   1.281  12.926   7.465
45240SOL     OW37493   4.491   5.122   3.320
45240SOL    HW137494   4.416   5.082   3.277
45240SOL    HW237495   4.496   5.077   3.405
45241SOL     OW37496   5.662   1.549   5.194
45241SOL    HW137497   5.743   1.574   5.237
45241SOL    HW237498   5.636   1.626   5.144
45242SOL     OW37499   1.125   8.512   2.567
45242SOL    HW137500   1.157   8.570   2.636
45242SOL    HW237501   1.030   8.517   2.573
45243SOL     OW37502   4.851   6.738   3.013
45243SOL    HW137503   4.903   6.787   3.076
45243SOL    HW237504   4.884   6.648   3.019
45244SOL     OW37505   7.788   7.942   6.715
45244SOL    HW137506   7.776   7.892   6.795
45244SOL    HW237507   7.882   7.954   6.707
45245SOL     OW37508   3.007   6.054   9.713
45245SOL    HW137509   3.011   5.996   9.637
45245SOL    HW237510   3.096   6.051   9.749
45246SOL     OW37511   9.416   5.710   5.864
45246SOL    HW137512   9.338   5.676   5.910
45246SOL    HW237513   9.408   5.673   5.776
45247SOL     OW37514   3.469  12.101   1.544
45247SOL    HW137515   3.506  12.186   1.568
45247SOL    HW237516   3.430  12.115   1.458
45248SOL     OW37517  13.972   7.996   5.341
45248SOL    HW137518  14.063   8.004   5.370
45248SOL    HW237519  13.947   7.907   5.364
45249SOL     OW37520   3.049   2.988   8.577
45249SOL    HW137521   3.120   2.926   8.593
45249SOL    HW237522   2.972   2.949   8.618
45250SOL     OW37523   7.793  14.219   8.894
45250SOL    HW137524   7.855  14.221   8.822
45250SOL    HW237525   7.822  14.146   8.948
45251SOL     OW37526   2.798   4.716   0.012
45251SOL    HW137527   2.839   4.636   0.047
45251SOL    HW237528   2.765   4.689  14.803
45252SOL     OW37529   1.015   1.455   9.715
45252SOL    HW137530   0.940   1.475   9.771
45252SOL    HW237531   1.018   1.359   9.712
45253SOL     OW37532   9.064   6.352  13.482
45253SOL    HW137533   9.092   6.442  13.465
45253SOL    HW237534   9.019   6.326  13.402
45254SOL     OW37535   8.387   8.620   7.812
45254SOL    HW137536   8.483   8.619   7.809
45254SOL    HW237537   8.360   8.588   7.725
45255SOL     OW37538   5.830   6.246   4.974
45255SOL    HW137539   5.794   6.256   4.886
45255SOL    HW237540   5.802   6.324   5.020
45256SOL     OW37541   7.995   6.815  11.297
45256SOL    HW137542   8.041   6.755  11.239
45256SOL    HW237543   7.975   6.763  11.374
45257SOL     OW37544  10.948   1.838   0.632
45257SOL    HW137545  10.881   1.770   0.644
45257SOL    HW237546  10.917   1.889   0.557
45258SOL     OW37547   3.877  11.267   7.672
45258SOL    HW137548   3.919  11.181   7.664
45258SOL    HW237549   3.931  11.315   7.735
45259SOL     OW37550  12.080  10.836  10.388
45259SOL    HW137551  12.087  10.932  10.388
45259SOL    HW237552  12.084  10.812  10.295
45260SOL     OW37553   1.405   0.061  11.963
45260SOL    HW137554   1.322   0.014  11.965
45260SOL    HW237555   1.442   0.042  11.877
45261SOL     OW37556   7.151   9.612   2.371
45261SOL    HW137557   7.107   9.640   2.291
45261SOL    HW237558   7.200   9.534   2.346
45262SOL     OW37559   8.344   7.802   0.569
45262SOL    HW137560   8.299   7.729   0.611
45262SOL    HW237561   8.431   7.767   0.547
45263SOL     OW37562  13.158  13.416   7.763
45263SOL    HW137563  13.126  13.496   7.805
45263SOL    HW237564  13.092  13.350   7.786
45264SOL     OW37565   9.818   2.643   3.469
45264SOL    HW137566   9.912   2.651   3.457
45264SOL    HW237567   9.798   2.552   3.448
45265SOL     OW37568  11.278   2.543   1.828
45265SOL    HW137569  11.311   2.475   1.769
45265SOL    HW237570  11.352   2.564   1.885
45266SOL     OW37571   2.685   7.222   1.826
45266SOL    HW137572   2.729   7.177   1.754
45266SOL    HW237573   2.750   7.224   1.897
45267SOL     OW37574  11.279   9.940   5.564
45267SOL    HW137575  11.296   9.880   5.491
45267SOL    HW237576  11.316   9.895   5.640
45268SOL     OW37577  12.704  10.915  13.329
45268SOL    HW137578  12.746  10.890  13.411
45268SOL    HW237579  12.641  10.844  13.313
45269SOL     OW37580   9.911   8.629  10.395
45269SOL    HW137581   9.971   8.608  10.466
45269SOL    HW237582   9.967   8.640  10.318
45270SOL     OW37583  11.321   9.027  14.159
45270SOL    HW137584  11.399   8.977  14.134
45270SOL    HW237585  11.273   8.969  14.218
45271SOL     OW37586   2.551   7.420   8.667
45271SOL    HW137587   2.581   7.493   8.613
45271SOL    HW237588   2.487   7.374   8.613
45272SOL     OW37589  14.033   5.372   5.110
45272SOL    HW137590  13.992   5.414   5.185
45272SOL    HW237591  13.981   5.293   5.095
45273SOL     OW37592  10.336  14.579  13.822
45273SOL    HW137593  10.262  14.603  13.766
45273SOL    HW237594  10.381  14.510  13.773
45274SOL     OW37595  12.342   9.598   8.219
45274SOL    HW137596  12.410   9.652   8.180
45274SOL    HW237597  12.271   9.659   8.238
45275SOL     OW37598   1.275   5.661   2.411
45275SOL    HW137599   1.339   5.627   2.348
45275SOL    HW237600   1.191   5.649   2.368
45276SOL     OW37601   9.081   7.111   9.771
45276SOL    HW137602   9.139   7.095   9.697
45276SOL    HW237603   9.076   7.207   9.777
45277SOL     OW37604   0.308   9.805   5.657
45277SOL    HW137605   0.398   9.819   5.627
45277SOL    HW237606   0.318   9.787   5.751
45278SOL     OW37607   6.926   2.804   7.107
45278SOL    HW137608   7.006   2.772   7.148
45278SOL    HW237609   6.856   2.749   7.142
45279SOL     OW37610  11.800  10.072   4.296
45279SOL    HW137611  11.713  10.043   4.269
45279SOL    HW237612  11.855  10.055   4.220
45280SOL     OW37613  12.285   6.707   6.823
45280SOL    HW137614  12.221   6.722   6.893
45280SOL    HW237615  12.316   6.617   6.837
45281SOL     OW37616   2.692   3.431   4.135
45281SOL    HW137617   2.770   3.379   4.154
45281SOL    HW237618   2.700   3.452   4.042
45282SOL     OW37619   1.600  13.656   4.132
45282SOL    HW137620   1.564  13.745   4.135
45282SOL    HW237621   1.664  13.653   4.204
45283SOL     OW37622  14.702  12.248   3.436
45283SOL    HW137623  14.748  12.222   3.357
45283SOL    HW237624  14.634  12.181   3.448
45284SOL     OW37625   4.250  12.296  13.886
45284SOL    HW137626   4.219  12.217  13.842
45284SOL    HW237627   4.303  12.264  13.958
45285SOL     OW37628   8.073   8.282   8.252
45285SOL    HW137629   8.110   8.199   8.223
45285SOL    HW237630   8.142   8.347   8.236
45286SOL     OW37631   2.132   0.261  11.789
45286SOL    HW137632   2.123   0.275  11.695
45286SOL    HW237633   2.073   0.189  11.809
45287SOL     OW37634   0.528   5.971   0.204
45287SOL    HW137635   0.437   5.994   0.227
45287SOL    HW237636   0.520   5.902   0.139
45288SOL     OW37637  12.705   1.675   2.972
45288SOL    HW137638  12.671   1.687   3.061
45288SOL    HW237639  12.729   1.582   2.968
45289SOL     OW37640   9.590  14.074  13.371
45289SOL    HW137641   9.615  14.031  13.453
45289SOL    HW237642   9.673  14.095  13.329
45290SOL     OW37643  12.932   3.938   7.084
45290SOL    HW137644  12.897   4.007   7.028
45290SOL    HW237645  12.919   3.857   7.034
45291SOL     OW37646   7.973   2.287   9.079
45291SOL    HW137647   7.996   2.356   9.141
45291SOL    HW237648   7.961   2.332   8.996
45292SOL     OW37649   2.385   0.846   3.791
45292SOL    HW137650   2.359   0.762   3.753
45292SOL    HW237651   2.443   0.822   3.864
45293SOL     OW37652   5.586   8.419  12.502
45293SOL    HW137653   5.627   8.473  12.434
45293SOL    HW237654   5.651   8.416  12.572
45294SOL     OW37655   6.950  10.748   8.550
45294SOL    HW137656   6.861  10.712   8.548
45294SOL    HW237657   6.986  10.727   8.464
45295SOL     OW37658   3.641   1.865  12.098
45295SOL    HW137659   3.568   1.871  12.036
45295SOL    HW237660   3.600   1.879  12.184
45296SOL     OW37661  14.194   1.416  11.076
45296SOL    HW137662  14.215   1.371  10.993
45296SOL    HW237663  14.176   1.506  11.050
45297SOL     OW37664  14.800   4.157   8.684
45297SOL    HW137665  14.747   4.104   8.743
45297SOL    HW237666  14.796   4.110   8.600
45298SOL     OW37667   8.695  14.802   4.118
45298SOL    HW137668   8.755  14.855   4.169
45298SOL    HW237669   8.748  14.765   4.048
45299SOL     OW37670   4.926   7.312  12.202
45299SOL    HW137671   5.014   7.278  12.186
45299SOL    HW237672   4.911   7.374  12.130
45300SOL     OW37673   3.308   0.384  10.539
45300SOL    HW137674   3.390   0.340  10.562
45300SOL    HW237675   3.302   0.456  10.602
45301SOL     OW37676   3.660   5.432   7.657
45301SOL    HW137677   3.662   5.526   7.673
45301SOL    HW237678   3.714   5.420   7.579
45302SOL     OW37679   8.757   2.404   0.383
45302SOL    HW137680   8.727   2.469   0.447
45302SOL    HW237681   8.842   2.438   0.353
45303SOL     OW37682  13.833   9.872  14.843
45303SOL    HW137683  13.883   9.798   0.002
45303SOL    HW237684  13.893   9.947  14.850
45304SOL     OW37685   9.487   3.148   7.737
45304SOL    HW137686   9.510   3.224   7.789
45304SOL    HW237687   9.427   3.181   7.670
45305SOL     OW37688   4.419   0.437  13.763
45305SOL    HW137689   4.416   0.343  13.751
45305SOL    HW237690   4.379   0.452  13.849
45306SOL     OW37691   5.156   3.109   7.710
45306SOL    HW137692   5.165   3.113   7.614
45306SOL    HW237693   5.225   3.048   7.737
45307SOL     OW37694   0.504   3.561  13.936
45307SOL    HW137695   0.424   3.610  13.954
45307SOL    HW237696   0.574   3.625  13.949
45308SOL     OW37697   0.239   4.422  10.823
45308SOL    HW137698   0.191   4.457  10.898
45308SOL    HW237699   0.294   4.353  10.861
45309SOL     OW37700   7.819   8.346   7.894
45309SOL    HW137701   7.860   8.419   7.940
45309SOL    HW237702   7.736   8.333   7.940
45310SOL     OW37703  14.551   7.072   2.582
45310SOL    HW137704  14.632   7.070   2.531
45310SOL    HW237705  14.494   7.132   2.533
45311SOL     OW37706   5.467   5.986   1.753
45311SOL    HW137707   5.529   6.043   1.798
45311SOL    HW237708   5.474   5.902   1.797
45312SOL     OW37709   3.023  11.545  11.312
45312SOL    HW137710   3.020  11.548  11.407
45312SOL    HW237711   2.948  11.598  11.284
45313SOL     OW37712   3.313   7.301   1.439
45313SOL    HW137713   3.398   7.259   1.431
45313SOL    HW237714   3.282   7.277   1.527
45314SOL     OW37715  12.926  13.822   6.275
45314SOL    HW137716  13.008  13.781   6.250
45314SOL    HW237717  12.941  13.854   6.365
45315SOL     OW37718  12.102  13.125   0.314
45315SOL    HW137719  12.075  13.206   0.272
45315SOL    HW237720  12.094  13.143   0.408
45316SOL     OW37721  10.175  11.295   5.055
45316SOL    HW137722  10.240  11.334   5.113
45316SOL    HW237723  10.096  11.348   5.070
45317SOL     OW37724   2.580   2.461  12.766
45317SOL    HW137725   2.519   2.530  12.793
45317SOL    HW237726   2.587   2.471  12.671
45318SOL     OW37727  10.923   9.955   4.307
45318SOL    HW137728  10.904  10.030   4.364
45318SOL    HW237729  11.018   9.949   4.305
45319SOL     OW37730  11.345  10.679   3.927
45319SOL    HW137731  11.349  10.584   3.915
45319SOL    HW237732  11.363  10.692   4.020
45320SOL     OW37733  13.997   7.270   2.939
45320SOL    HW137734  13.967   7.339   2.880
45320SOL    HW237735  13.924   7.209   2.945
45321SOL     OW37736  12.949   1.476   1.603
45321SOL    HW137737  12.896   1.554   1.618
45321SOL    HW237738  12.955   1.433   1.688
45322SOL     OW37739   3.113   8.461   8.996
45322SOL    HW137740   3.202   8.426   8.994
45322SOL    HW237741   3.061   8.399   8.945
45323SOL     OW37742   1.768   2.582   6.115
45323SOL    HW137743   1.823   2.525   6.170
45323SOL    HW237744   1.729   2.523   6.051
45324SOL     OW37745   2.573   4.204   1.072
45324SOL    HW137746   2.542   4.117   1.048
45324SOL    HW237747   2.658   4.189   1.113
45325SOL     OW37748  12.226   0.651  13.946
45325SOL    HW137749  12.178   0.607  13.876
45325SOL    HW237750  12.174   0.635  14.025
45326SOL     OW37751   3.497   8.088   6.048
45326SOL    HW137752   3.526   8.034   5.975
45326SOL    HW237753   3.458   8.027   6.110
45327SOL     OW37754   6.152  10.210   5.882
45327SOL    HW137755   6.197  10.258   5.812
45327SOL    HW237756   6.072  10.178   5.842
45328SOL     OW37757  11.249   0.506  12.351
45328SOL    HW137758  11.300   0.484  12.429
45328SOL    HW237759  11.219   0.596  12.367
45329SOL     OW37760   7.546  10.422   3.110
45329SOL    HW137761   7.633  10.432   3.069
45329SOL    HW237762   7.550  10.338   3.154
45330SOL     OW37763   5.728  13.077   9.619
45330SOL    HW137764   5.663  13.143   9.645
45330SOL    HW237765   5.802  13.128   9.586
45331SOL     OW37766   2.942   4.054  14.815
45331SOL    HW137767   2.850   4.040  14.837
45331SOL    HW237768   2.950   4.149  14.803
45332SOL     OW37769  10.581   4.930  10.240
45332SOL    HW137770  10.530   4.893  10.168
45332SOL    HW237771  10.672   4.907  10.220
45333SOL     OW37772   6.425   2.520  14.817
45333SOL    HW137773   6.452   2.461   0.010
45333SOL    HW237774   6.409   2.604  14.860
45334SOL     OW37775   4.002   7.893  10.715
45334SOL    HW137776   3.994   7.906  10.809
45334SOL    HW237777   3.917   7.921  10.679
45335SOL     OW37778   9.851   1.519   9.025
45335SOL    HW137779   9.786   1.448   9.026
45335SOL    HW237780   9.828   1.573   9.101
45336SOL     OW37781  11.729  10.064  10.564
45336SOL    HW137782  11.754  10.138  10.508
45336SOL    HW237783  11.725  10.101  10.652
45337SOL     OW37784   4.175   1.115   5.309
45337SOL    HW137785   4.210   1.081   5.391
45337SOL    HW237786   4.171   1.210   5.321
45338SOL     OW37787  12.152   4.621  13.104
45338SOL    HW137788  12.095   4.544  13.094
45338SOL    HW237789  12.098   4.686  13.149
45339SOL     OW37790   7.036   7.968   2.869
45339SOL    HW137791   7.022   8.040   2.931
45339SOL    HW237792   7.120   7.988   2.828
45340SOL     OW37793   0.549  13.964  12.419
45340SOL    HW137794   0.477  13.904  12.400
45340SOL    HW237795   0.506  14.046  12.444
45341SOL     OW37796   4.885   0.849  10.521
45341SOL    HW137797   4.890   0.933  10.476
45341SOL    HW237798   4.950   0.855  10.590
45342SOL     OW37799   4.765   0.179   5.394
45342SOL    HW137800   4.794   0.169   5.484
45342SOL    HW237801   4.727   0.267   5.390
45343SOL     OW37802   0.178   9.474   8.006
45343SOL    HW137803   0.198   9.386   8.040
45343SOL    HW237804   0.106   9.459   7.945
45344SOL     OW37805   6.146   7.553  14.303
45344SOL    HW137806   6.212   7.522  14.240
45344SOL    HW237807   6.173   7.516  14.387
45345SOL     OW37808   5.478  12.423   5.804
45345SOL    HW137809   5.454  12.388   5.889
45345SOL    HW237810   5.480  12.518   5.816
45346SOL     OW37811  14.695  11.682  14.854
45346SOL    HW137812  14.625  11.632  14.813
45346SOL    HW237813  14.671  11.773  14.840
45347SOL     OW37814   3.645  10.401   8.110
45347SOL    HW137815   3.565  10.362   8.074
45347SOL    HW237816   3.686  10.443   8.035
45348SOL     OW37817   5.027   0.193   4.018
45348SOL    HW137818   5.051   0.241   3.939
45348SOL    HW237819   5.097   0.129   4.030
45349SOL     OW37820  10.319   2.034   5.810
45349SOL    HW137821  10.357   2.059   5.726
45349SOL    HW237822  10.281   2.115   5.844
45350SOL     OW37823   2.190  12.842   6.821
45350SOL    HW137824   2.174  12.919   6.766
45350SOL    HW237825   2.284  12.827   6.813
45351SOL     OW37826  13.752  14.309   8.979
45351SOL    HW137827  13.834  14.260   8.976
45351SOL    HW237828  13.757  14.371   8.906
45352SOL     OW37829   6.096   1.423  13.381
45352SOL    HW137830   6.140   1.406  13.465
45352SOL    HW237831   6.015   1.373  13.386
45353SOL     OW37832   5.077   6.812   2.143
45353SOL    HW137833   5.085   6.836   2.235
45353SOL    HW237834   5.070   6.717   2.144
45354SOL     OW37835   4.613   9.589   6.933
45354SOL    HW137836   4.653   9.556   7.014
45354SOL    HW237837   4.687   9.617   6.880
45355SOL     OW37838   8.066  14.447   0.233
45355SOL    HW137839   8.086  14.360   0.199
45355SOL    HW237840   8.078  14.438   0.328
45356SOL     OW37841   0.470   2.759   5.213
45356SOL    HW137842   0.564   2.740   5.209
45356SOL    HW237843   0.455   2.781   5.305
45357SOL     OW37844  11.798   0.176   7.922
45357SOL    HW137845  11.889   0.194   7.898
45357SOL    HW237846  11.750   0.181   7.839
45358SOL     OW37847  11.164   1.014   0.049
45358SOL    HW137848  11.108   0.959   0.104
45358SOL    HW237849  11.253   0.990   0.074
45359SOL     OW37850  10.043  13.146   0.912
45359SOL    HW137851  10.105  13.128   0.983
45359SOL    HW237852   9.957  13.143   0.954
45360SOL     OW37853  10.982  14.682  14.072
45360SOL    HW137854  10.992  14.774  14.096
45360SOL    HW237855  11.052  14.666  14.008
45361SOL     OW37856   0.404   0.545   9.339
45361SOL    HW137857   0.418   0.510   9.251
45361SOL    HW237858   0.492   0.564   9.372
45362SOL     OW37859  13.185   5.493  12.818
45362SOL    HW137860  13.222   5.445  12.893
45362SOL    HW237861  13.258   5.546  12.786
45363SOL     OW37862   2.177  10.791  10.331
45363SOL    HW137863   2.188  10.851  10.405
45363SOL    HW237864   2.262  10.748  10.323
45364SOL     OW37865  13.480   7.295   0.683
45364SOL    HW137866  13.452   7.309   0.773
45364SOL    HW237867  13.573   7.319   0.683
45365SOL     OW37868  14.019   4.625   0.346
45365SOL    HW137869  14.056   4.694   0.402
45365SOL    HW237870  13.928   4.651   0.333
45366SOL     OW37871   4.822   7.772   9.705
45366SOL    HW137872   4.853   7.862   9.708
45366SOL    HW237873   4.802   7.750   9.796
45367SOL     OW37874  11.917   5.354  10.980
45367SOL    HW137875  11.914   5.405  10.899
45367SOL    HW237876  11.826   5.339  11.003
45368SOL     OW37877  13.208  13.715   6.303
45368SOL    HW137878  13.303  13.699   6.295
45368SOL    HW237879  13.199  13.768   6.382
45369SOL     OW37880   0.755   4.701  14.851
45369SOL    HW137881   0.848   4.682  14.838
45369SOL    HW237882   0.754   4.779   0.029
45370SOL     OW37883  10.226   8.594   0.400
45370SOL    HW137884  10.204   8.649   0.325
45370SOL    HW237885  10.207   8.647   0.477
45371SOL     OW37886  10.307   8.272   0.912
45371SOL    HW137887  10.347   8.340   0.858
45371SOL    HW237888  10.321   8.191   0.861
45372SOL     OW37889   3.477  12.940   5.525
45372SOL    HW137890   3.529  13.019   5.535
45372SOL    HW237891   3.388  12.971   5.507
45373SOL     OW37892  12.902  13.369   5.884
45373SOL    HW137893  12.810  13.348   5.901
45373SOL    HW237894  12.900  13.459   5.852
45374SOL     OW37895  12.099   6.970  14.462
45374SOL    HW137896  12.111   7.055  14.421
45374SOL    HW237897  12.171   6.963  14.525
45375SOL     OW37898   6.354  14.541   7.408
45375SOL    HW137899   6.341  14.582   7.323
45375SOL    HW237900   6.354  14.447   7.390
45376SOL     OW37901   0.590   7.773   2.474
45376SOL    HW137902   0.563   7.774   2.382
45376SOL    HW237903   0.617   7.864   2.491
45377SOL     OW37904  13.407   4.191   0.149
45377SOL    HW137905  13.481   4.252   0.152
45377SOL    HW237906  13.337   4.236   0.194
45378SOL     OW37907   7.149  12.891   7.567
45378SOL    HW137908   7.111  12.823   7.512
45378SOL    HW237909   7.244  12.878   7.559
45379SOL     OW37910  10.886  13.617  10.541
45379SOL    HW137911  10.945  13.610  10.466
45379SOL    HW237912  10.830  13.692  10.521
45380SOL     OW37913   6.688   4.582   2.295
45380SOL    HW137914   6.680   4.498   2.250
45380SOL    HW237915   6.709   4.645   2.226
45381SOL     OW37916  13.847   9.651  10.181
45381SOL    HW137917  13.846   9.699  10.263
45381SOL    HW237918  13.854   9.559  10.207
45382SOL     OW37919   3.396  11.272   7.228
45382SOL    HW137920   3.471  11.325   7.254
45382SOL    HW237921   3.321  11.330   7.235
45383SOL     OW37922   9.828   0.321  13.279
45383SOL    HW137923   9.905   0.275  13.245
45383SOL    HW237924   9.781   0.254  13.329
45384SOL     OW37925   4.683   4.702   9.951
45384SOL    HW137926   4.687   4.729   9.859
45384SOL    HW237927   4.751   4.753   9.994
45385SOL     OW37928  11.792  10.316   0.650
45385SOL    HW137929  11.880  10.349   0.634
45385SOL    HW237930  11.805  10.228   0.685
45386SOL     OW37931   5.968   7.430  10.616
45386SOL    HW137932   5.936   7.426  10.706
45386SOL    HW237933   5.903   7.381  10.565
45387SOL     OW37934   8.078   9.808   3.532
45387SOL    HW137935   8.094   9.733   3.588
45387SOL    HW237936   8.123   9.881   3.575
45388SOL     OW37937   5.009   9.576   9.770
45388SOL    HW137938   5.075   9.586   9.701
45388SOL    HW237939   5.018   9.485   9.799
45389SOL     OW37940   0.681   8.477   5.381
45389SOL    HW137941   0.657   8.544   5.446
45389SOL    HW237942   0.727   8.410   5.432
45390SOL     OW37943  10.740   7.386  13.435
45390SOL    HW137944  10.727   7.353  13.524
45390SOL    HW237945  10.768   7.309  13.386
45391SOL     OW37946  13.511   7.643   8.045
45391SOL    HW137947  13.596   7.677   8.074
45391SOL    HW237948  13.491   7.692   7.966
45392SOL     OW37949  10.339   2.403   5.534
45392SOL    HW137950  10.246   2.414   5.553
45392SOL    HW237951  10.352   2.308   5.531
45393SOL     OW37952  10.935   9.585  14.509
45393SOL    HW137953  10.891   9.553  14.588
45393SOL    HW237954  11.024   9.605  14.539
45394SOL     OW37955  13.668  11.102   4.464
45394SOL    HW137956  13.684  11.197   4.468
45394SOL    HW237957  13.711  11.067   4.542
45395SOL     OW37958  13.174  11.210   5.365
45395SOL    HW137959  13.093  11.160   5.358
45395SOL    HW237960  13.164  11.261   5.445
45396SOL     OW37961  10.274  10.907   4.844
45396SOL    HW137962  10.199  10.910   4.785
45396SOL    HW237963  10.322  10.988   4.827
45397SOL     OW37964  14.135  10.759   2.494
45397SOL    HW137965  14.231  10.756   2.490
45397SOL    HW237966  14.107  10.672   2.467
45398SOL     OW37967  13.233   8.982   9.256
45398SOL    HW137968  13.253   9.067   9.217
45398SOL    HW237969  13.235   8.998   9.351
45399SOL     OW37970  11.796   8.705   1.843
45399SOL    HW137971  11.793   8.667   1.755
45399SOL    HW237972  11.840   8.789   1.831
45400SOL     OW37973   6.855   7.955   6.348
45400SOL    HW137974   6.773   7.950   6.397
45400SOL    HW237975   6.838   7.907   6.267
45401SOL     OW37976   7.872  11.137   8.004
45401SOL    HW137977   7.955  11.135   8.050
45401SOL    HW237978   7.895  11.122   7.912
45402SOL     OW37979   6.919   1.904   9.397
45402SOL    HW137980   6.825   1.894   9.415
45402SOL    HW237981   6.922   1.950   9.313
45403SOL     OW37982  10.281   8.903  11.388
45403SOL    HW137983  10.301   8.825  11.337
45403SOL    HW237984  10.206   8.943  11.344
45404SOL     OW37985   9.540  11.515  12.849
45404SOL    HW137986   9.517  11.430  12.888
45404SOL    HW237987   9.474  11.528  12.780
45405SOL     OW37988   1.780  14.324   1.912
45405SOL    HW137989   1.799  14.237   1.876
45405SOL    HW237990   1.718  14.307   1.983
45406SOL     OW37991  13.205   0.819  11.340
45406SOL    HW137992  13.139   0.880  11.307
45406SOL    HW237993  13.170   0.789  11.424
45407SOL     OW37994  13.489  13.865   8.844
45407SOL    HW137995  13.414  13.831   8.795
45407SOL    HW237996  13.473  13.959   8.850
45408SOL     OW37997   1.925   4.732   6.248
45408SOL    HW137998   2.009   4.715   6.289
45408SOL    HW237999   1.906   4.652   6.198
45409SOL     OW38000   9.499   3.526   4.339
45409SOL    HW138001   9.521   3.585   4.266
45409SOL    HW238002   9.546   3.562   4.414
45410SOL     OW38003  14.121  10.754   1.217
45410SOL    HW138004  14.028  10.751   1.196
45410SOL    HW238005  14.126  10.803   1.299
45411SOL     OW38006  12.392   3.893   3.503
45411SOL    HW138007  12.446   3.822   3.470
45411SOL    HW238008  12.334   3.915   3.430
45412SOL     OW38009   5.026  12.300  10.324
45412SOL    HW138010   5.074  12.354  10.386
45412SOL    HW238011   4.943  12.279  10.368
45413SOL     OW38012   6.737   8.749   5.265
45413SOL    HW138013   6.680   8.673   5.255
45413SOL    HW238014   6.684   8.823   5.236
45414SOL     OW38015   8.203  12.294   0.368
45414SOL    HW138016   8.277  12.291   0.307
45414SOL    HW238017   8.172  12.384   0.364
45415SOL     OW38018   0.733   4.871   8.397
45415SOL    HW138019   0.661   4.917   8.353
45415SOL    HW238020   0.796   4.853   8.327
45416SOL     OW38021   4.205   2.860   0.838
45416SOL    HW138022   4.204   2.896   0.750
45416SOL    HW238023   4.259   2.781   0.831
45417SOL     OW38024  12.536   6.934  13.401
45417SOL    HW138025  12.559   6.853  13.355
45417SOL    HW238026  12.564   7.004  13.341
45418SOL     OW38027   3.713  12.353   4.311
45418SOL    HW138028   3.701  12.370   4.218
45418SOL    HW238029   3.786  12.408   4.337
45419SOL     OW38030   4.793  11.652  14.315
45419SOL    HW138031   4.699  11.670  14.309
45419SOL    HW238032   4.824  11.656  14.224
45420SOL     OW38033  11.072   3.206   5.218
45420SOL    HW138034  11.075   3.117   5.255
45420SOL    HW238035  11.163   3.227   5.197
45421SOL     OW38036   0.861   0.218   1.375
45421SOL    HW138037   0.936   0.243   1.428
45421SOL    HW238038   0.874   0.125   1.356
45422SOL     OW38039   5.895  14.141   7.285
45422SOL    HW138040   5.815  14.194   7.292
45422SOL    HW238041   5.912  14.112   7.374
45423SOL     OW38042   0.883  11.881   9.922
45423SOL    HW138043   0.960  11.854   9.872
45423SOL    HW238044   0.863  11.969   9.888
45424SOL     OW38045  12.905   9.771   6.004
45424SOL    HW138046  12.948   9.837   6.058
45424SOL    HW238047  12.841   9.820   5.953
45425SOL     OW38048   1.565   9.599   1.997
45425SOL    HW138049   1.561   9.505   1.982
45425SOL    HW238050   1.655   9.623   1.977
45426SOL     OW38051  14.130   4.068   0.703
45426SOL    HW138052  14.226   4.071   0.703
45426SOL    HW238053  14.108   4.011   0.776
45427SOL     OW38054   2.540   5.712   1.937
45427SOL    HW138055   2.546   5.788   1.879
45427SOL    HW238056   2.526   5.638   1.878
45428SOL     OW38057   1.947   1.587   2.209
45428SOL    HW138058   1.889   1.513   2.186
45428SOL    HW238059   2.030   1.566   2.165
45429SOL     OW38060  12.594  11.921  14.264
45429SOL    HW138061  12.632  12.008  14.274
45429SOL    HW238062  12.557  11.901  14.349
45430SOL     OW38063  12.236   2.006   7.536
45430SOL    HW138064  12.195   1.932   7.492
45430SOL    HW238065  12.279   1.967   7.612
45431SOL     OW38066  14.172  12.139   1.228
45431SOL    HW138067  14.212  12.055   1.250
45431SOL    HW238068  14.093  12.116   1.178
45432SOL     OW38069   2.067   2.185   1.172
45432SOL    HW138070   2.090   2.236   1.249
45432SOL    HW238071   1.986   2.140   1.197
45433SOL     OW38072  14.403   4.796   0.331
45433SOL    HW138073  14.448   4.879   0.347
45433SOL    HW238074  14.312   4.820   0.319
45434SOL     OW38075  13.049   2.284   0.553
45434SOL    HW138076  12.955   2.301   0.548
45434SOL    HW238077  13.073   2.254   0.465
45435SOL     OW38078   4.670   4.281   4.082
45435SOL    HW138079   4.715   4.245   4.159
45435SOL    HW238080   4.721   4.358   4.057
45436SOL     OW38081   3.515   7.975  12.505
45436SOL    HW138082   3.582   7.910  12.481
45436SOL    HW238083   3.463   7.986  12.425
45437SOL     OW38084  14.228   7.323   3.787
45437SOL    HW138085  14.177   7.300   3.709
45437SOL    HW238086  14.300   7.376   3.754
45438SOL     OW38087  11.699   4.639   4.925
45438SOL    HW138088  11.683   4.679   5.010
45438SOL    HW238089  11.662   4.551   4.933
45439SOL     OW38090  12.692   6.432   3.461
45439SOL    HW138091  12.707   6.387   3.378
45439SOL    HW238092  12.655   6.364   3.518
45440SOL     OW38093   8.422   5.655   8.557
45440SOL    HW138094   8.405   5.743   8.592
45440SOL    HW238095   8.448   5.604   8.633
45441SOL     OW38096   6.336   5.697   5.187
45441SOL    HW138097   6.288   5.700   5.270
45441SOL    HW238098   6.308   5.615   5.146
45442SOL     OW38099  10.375   0.831   5.159
45442SOL    HW138100  10.445   0.766   5.161
45442SOL    HW238101  10.318   0.806   5.232
45443SOL     OW38102   2.730  10.845   3.136
45443SOL    HW138103   2.671  10.832   3.062
45443SOL    HW238104   2.772  10.760   3.150
45444SOL     OW38105  11.525  11.979  11.097
45444SOL    HW138106  11.551  11.905  11.151
45444SOL    HW238107  11.605  12.030  11.086
45445SOL     OW38108   5.622  10.511  14.730
45445SOL    HW138109   5.639  10.523  14.824
45445SOL    HW238110   5.709  10.506  14.691
45446SOL     OW38111  12.654  11.969  12.668
45446SOL    HW138112  12.661  11.879  12.701
45446SOL    HW238113  12.636  11.959  12.575
45447SOL     OW38114   5.653  10.274  10.234
45447SOL    HW138115   5.741  10.273  10.272
45447SOL    HW238116   5.622  10.364  10.249
45448SOL     OW38117  13.302   9.380   5.735
45448SOL    HW138118  13.322   9.286   5.741
45448SOL    HW238119  13.240   9.395   5.806
45449SOL     OW38120   0.279   9.622   6.740
45449SOL    HW138121   0.322   9.605   6.657
45449SOL    HW238122   0.187   9.601   6.725
45450SOL     OW38123   1.185   4.104  11.534
45450SOL    HW138124   1.233   4.055  11.467
45450SOL    HW238125   1.097   4.114  11.498
45451SOL     OW38126   0.065  14.354   6.809
45451SOL    HW138127   0.137  14.308   6.852
45451SOL    HW238128  14.867  14.338   6.866
45452SOL     OW38129   3.044   8.929  14.850
45452SOL    HW138130   3.045   8.854  14.790
45452SOL    HW238131   3.010   9.001  14.796
45453SOL     OW38132   8.795   7.093   0.780
45453SOL    HW138133   8.828   7.128   0.863
45453SOL    HW238134   8.705   7.066   0.799
45454SOL     OW38135   7.745   8.621   1.425
45454SOL    HW138136   7.786   8.645   1.342
45454SOL    HW238137   7.795   8.669   1.492
45455SOL     OW38138  13.397  11.427   4.414
45455SOL    HW138139  13.428  11.358   4.356
45455SOL    HW238140  13.472  11.486   4.424
45456SOL     OW38141   5.617   6.234   9.878
45456SOL    HW138142   5.599   6.328   9.886
45456SOL    HW238143   5.628   6.219   9.784
45457SOL     OW38144   4.569   8.905   5.330
45457SOL    HW138145   4.637   8.885   5.266
45457SOL    HW238146   4.614   8.956   5.397
45458SOL     OW38147  14.657   5.520  14.095
45458SOL    HW138148  14.687   5.597  14.144
45458SOL    HW238149  14.735   5.467  14.084
45459SOL     OW38150   1.989   0.414   4.691
45459SOL    HW138151   1.954   0.450   4.773
45459SOL    HW238152   2.080   0.442   4.689
45460SOL     OW38153  13.930   9.563   6.337
45460SOL    HW138154  13.913   9.533   6.247
45460SOL    HW238155  13.884   9.646   6.343
45461SOL     OW38156   2.739   9.820   2.522
45461SOL    HW138157   2.675   9.758   2.487
45461SOL    HW238158   2.733   9.896   2.463
45462SOL     OW38159   4.961   5.803   0.660
45462SOL    HW138160   5.011   5.848   0.593
45462SOL    HW238161   4.892   5.757   0.612
45463SOL     OW38162   3.887   5.666   1.767
45463SOL    HW138163   3.814   5.675   1.829
45463SOL    HW238164   3.965   5.670   1.822
45464SOL     OW38165   8.072  13.727   6.095
45464SOL    HW138166   8.065  13.796   6.028
45464SOL    HW238167   8.139  13.668   6.061
45465SOL     OW38168   5.972  11.865  12.948
45465SOL    HW138169   5.993  11.778  12.913
45465SOL    HW238170   5.966  11.852  13.043
45466SOL     OW38171   1.103   8.223   5.614
45466SOL    HW138172   1.170   8.157   5.598
45466SOL    HW238173   1.077   8.210   5.704
45467SOL     OW38174   2.681   5.597   2.234
45467SOL    HW138175   2.694   5.671   2.175
45467SOL    HW238176   2.597   5.614   2.276
45468SOL     OW38177  14.698   1.612   5.483
45468SOL    HW138178  14.753   1.573   5.550
45468SOL    HW238179  14.627   1.548   5.471
45469SOL     OW38180  13.889   8.280  13.079
45469SOL    HW138181  13.944   8.294  13.156
45469SOL    HW238182  13.826   8.213  13.107
45470SOL     OW38183  12.730  10.843   2.678
45470SOL    HW138184  12.682  10.792   2.744
45470SOL    HW238185  12.799  10.784   2.648
45471SOL     OW38186  11.873  14.177   1.789
45471SOL    HW138187  11.846  14.265   1.766
45471SOL    HW238188  11.895  14.182   1.883
45472SOL     OW38189  12.415  11.552   2.803
45472SOL    HW138190  12.350  11.499   2.848
45472SOL    HW238191  12.499  11.508   2.820
45473SOL     OW38192   0.997   9.527  10.773
45473SOL    HW138193   0.967   9.443  10.807
45473SOL    HW238194   0.922   9.561  10.724
45474SOL     OW38195   8.949  11.788   5.908
45474SOL    HW138196   9.025  11.810   5.962
45474SOL    HW238197   8.884  11.854   5.931
45475SOL     OW38198  12.565   4.725  12.969
45475SOL    HW138199  12.566   4.802  13.025
45475SOL    HW238200  12.602   4.755  12.886
45476SOL     OW38201   8.821   4.319   2.314
45476SOL    HW138202   8.849   4.376   2.243
45476SOL    HW238203   8.819   4.375   2.391
45477SOL     OW38204   7.322  10.627   2.450
45477SOL    HW138205   7.323  10.642   2.544
45477SOL    HW238206   7.248  10.568   2.436
45478SOL     OW38207   5.303  14.287  12.728
45478SOL    HW138208   5.294  14.382  12.735
45478SOL    HW238209   5.372  14.274  12.664
45479SOL     OW38210   9.125   9.740   9.684
45479SOL    HW138211   9.068   9.693   9.744
45479SOL    HW238212   9.096   9.712   9.597
45480SOL     OW38213   1.952   4.433   6.545
45480SOL    HW138214   1.995   4.511   6.579
45480SOL    HW238215   2.005   4.407   6.470
45481SOL     OW38216   4.021   2.162   1.285
45481SOL    HW138217   3.994   2.071   1.283
45481SOL    HW238218   3.963   2.203   1.350
45482SOL     OW38219  13.582  13.949  14.494
45482SOL    HW138220  13.541  14.014  14.550
45482SOL    HW238221  13.671  13.980  14.482
45483SOL     OW38222   8.083   0.165   8.430
45483SOL    HW138223   8.136   0.215   8.367
45483SOL    HW238224   8.085   0.076   8.396
45484SOL     OW38225  11.667   8.805  13.471
45484SOL    HW138226  11.687   8.899  13.465
45484SOL    HW238227  11.717   8.774  13.546
45485SOL     OW38228   8.292   5.345   5.126
45485SOL    HW138229   8.372   5.388   5.098
45485SOL    HW238230   8.224   5.412   5.119
45486SOL     OW38231   6.675   9.734   2.198
45486SOL    HW138232   6.589   9.705   2.166
45486SOL    HW238233   6.686   9.821   2.161
45487SOL     OW38234  12.221   4.087   6.611
45487SOL    HW138235  12.177   4.003   6.602
45487SOL    HW238236  12.263   4.101   6.526
45488SOL     OW38237   9.183   9.149  12.863
45488SOL    HW138238   9.267   9.188  12.840
45488SOL    HW238239   9.121   9.222  12.861
45489SOL     OW38240   7.189   3.483  14.478
45489SOL    HW138241   7.140   3.401  14.473
45489SOL    HW238242   7.280   3.455  14.488
45490SOL     OW38243   2.049  11.280   3.221
45490SOL    HW138244   2.122  11.331   3.187
45490SOL    HW238245   1.971  11.320   3.184
45491SOL     OW38246   1.554  13.294   9.352
45491SOL    HW138247   1.528  13.260   9.266
45491SOL    HW238248   1.521  13.229   9.414
45492SOL     OW38249  14.463   0.347   8.355
45492SOL    HW138250  14.512   0.393   8.423
45492SOL    HW238251  14.400   0.412   8.324
45493SOL     OW38252  12.653   2.183   1.722
45493SOL    HW138253  12.738   2.225   1.709
45493SOL    HW238254  12.596   2.223   1.656
45494SOL     OW38255   4.872   2.073  13.812
45494SOL    HW138256   4.857   2.166  13.792
45494SOL    HW238257   4.960   2.055  13.778
45495SOL     OW38258   5.362   7.983   3.923
45495SOL    HW138259   5.382   7.906   3.976
45495SOL    HW238260   5.415   8.053   3.961
45496SOL     OW38261   2.266   8.814  12.527
45496SOL    HW138262   2.180   8.779  12.504
45496SOL    HW238263   2.254   8.851  12.614
45497SOL     OW38264   4.600   4.382  10.476
45497SOL    HW138265   4.663   4.372  10.547
45497SOL    HW238266   4.655   4.390  10.397
45498SOL     OW38267   7.078  13.266   3.792
45498SOL    HW138268   7.006  13.326   3.813
45498SOL    HW238269   7.087  13.273   3.697
45499SOL     OW38270   7.246   4.007  14.528
45499SOL    HW138271   7.299   4.009  14.448
45499SOL    HW238272   7.263   3.921  14.565
45500SOL     OW38273  13.805   7.149  13.363
45500SOL    HW138274  13.887   7.197  13.352
45500SOL    HW238275  13.826   7.059  13.339
45501SOL     OW38276   2.972   4.484   0.082
45501SOL    HW138277   3.029   4.551   0.045
45501SOL    HW238278   2.956   4.423   0.010
45502SOL     OW38279   1.174  13.396  10.997
45502SOL    HW138280   1.127  13.332  11.051
45502SOL    HW238281   1.163  13.479  11.043
45503SOL     OW38282   0.297  10.207  10.773
45503SOL    HW138283   0.216  10.167  10.741
45503SOL    HW238284   0.306  10.173  10.862
45504SOL     OW38285   9.609   2.316   2.052
45504SOL    HW138286   9.693   2.272   2.037
45504SOL    HW238287   9.629   2.409   2.042
45505SOL     OW38288   2.028   8.463  11.875
45505SOL    HW138289   2.020   8.507  11.790
45505SOL    HW238290   1.938   8.450  11.904
45506SOL     OW38291   7.870   5.994   7.376
45506SOL    HW138292   7.940   6.050   7.407
45506SOL    HW238293   7.914   5.914   7.346
45507SOL     OW38294  13.904  12.033   5.601
45507SOL    HW138295  13.937  12.099   5.540
45507SOL    HW238296  13.811  12.028   5.582
45508SOL     OW38297   2.776   7.373   6.526
45508SOL    HW138298   2.856   7.423   6.512
45508SOL    HW238299   2.711   7.416   6.470
45509SOL     OW38300  14.803   8.785   7.969
45509SOL    HW138301  14.861   8.824   8.035
45509SOL    HW238302  14.781   8.699   8.004
45510SOL     OW38303   2.322   3.117   4.552
45510SOL    HW138304   2.391   3.163   4.600
45510SOL    HW238305   2.245   3.125   4.608
45511SOL     OW38306   9.533   1.535  14.629
45511SOL    HW138307   9.453   1.544  14.578
45511SOL    HW238308   9.516   1.585  14.709
45512SOL     OW38309  13.617   0.511  12.382
45512SOL    HW138310  13.539   0.486  12.431
45512SOL    HW238311  13.649   0.430  12.344
45513SOL     OW38312  12.011   5.340   3.160
45513SOL    HW138313  11.964   5.270   3.115
45513SOL    HW238314  11.972   5.345   3.246
45514SOL     OW38315   2.808  13.005   8.609
45514SOL    HW138316   2.725  13.017   8.655
45514SOL    HW238317   2.866  12.964   8.674
45515SOL     OW38318   4.115   1.383   7.762
45515SOL    HW138319   4.158   1.414   7.683
45515SOL    HW238320   4.186   1.369   7.824
45516SOL     OW38321   8.395   1.427   8.313
45516SOL    HW138322   8.453   1.418   8.238
45516SOL    HW238323   8.410   1.347   8.364
45517SOL     OW38324   5.100   9.047   2.460
45517SOL    HW138325   5.151   9.030   2.380
45517SOL    HW238326   5.139   8.989   2.525
45518SOL     OW38327   6.947   7.591  12.073
45518SOL    HW138328   6.965   7.592  11.979
45518SOL    HW238329   6.968   7.680  12.101
45519SOL     OW38330  11.326  10.868  10.431
45519SOL    HW138331  11.323  10.782  10.472
45519SOL    HW238332  11.372  10.854  10.349
45520SOL     OW38333   5.417   3.357   7.085
45520SOL    HW138334   5.368   3.433   7.117
45520SOL    HW238335   5.499   3.394   7.051
45521SOL     OW38336  12.211  14.869   8.001
45521SOL    HW138337  12.258  14.803   7.949
45521SOL    HW238338  12.187   0.060   7.938
45522SOL     OW38339  14.019  12.613   5.595
45522SOL    HW138340  14.024  12.675   5.667
45522SOL    HW238341  14.098  12.559   5.604
45523SOL     OW38342  14.575  12.774   5.980
45523SOL    HW138343  14.626  12.713   6.034
45523SOL    HW238344  14.641  12.829   5.937
45524SOL     OW38345   2.347   7.578  10.457
45524SOL    HW138346   2.305   7.613  10.379
45524SOL    HW238347   2.395   7.501  10.426
45525SOL     OW38348   7.739   5.993   9.802
45525SOL    HW138349   7.748   5.917   9.744
45525SOL    HW238350   7.652   5.984   9.840
45526SOL     OW38351   3.729   5.248   2.839
45526SOL    HW138352   3.699   5.306   2.908
45526SOL    HW238353   3.672   5.268   2.764
45527SOL     OW38354   0.937   1.245  10.431
45527SOL    HW138355   0.853   1.286  10.450
45527SOL    HW238356   0.976   1.228  10.517
45528SOL     OW38357  10.422   1.802   7.344
45528SOL    HW138358  10.497   1.826   7.399
45528SOL    HW238359  10.392   1.719   7.381
45529SOL     OW38360   3.595  12.755   7.070
45529SOL    HW138361   3.654  12.820   7.031
45529SOL    HW238362   3.512  12.766   7.024
45530SOL     OW38363   7.929   4.814   6.882
45530SOL    HW138364   7.862   4.850   6.940
45530SOL    HW238365   7.962   4.737   6.929
45531SOL     OW38366   9.758   1.128   7.426
45531SOL    HW138367   9.693   1.194   7.451
45531SOL    HW238368   9.815   1.173   7.364
45532SOL     OW38369   1.754   5.124  11.654
45532SOL    HW138370   1.764   5.067  11.577
45532SOL    HW238371   1.660   5.141  11.659
45533SOL     OW38372   6.026   9.899   4.481
45533SOL    HW138373   6.023   9.926   4.573
45533SOL    HW238374   5.936   9.910   4.450
45534SOL     OW38375  12.858   0.999   4.298
45534SOL    HW138376  12.838   0.957   4.381
45534SOL    HW238377  12.800   1.075   4.295
45535SOL     OW38378   2.090  12.515   2.375
45535SOL    HW138379   2.005  12.488   2.411
45535SOL    HW238380   2.081  12.502   2.280
45536SOL     OW38381  13.472   8.380   3.898
45536SOL    HW138382  13.547   8.336   3.857
45536SOL    HW238383  13.454   8.454   3.840
45537SOL     OW38384  12.386  10.746   4.490
45537SOL    HW138385  12.367  10.652   4.494
45537SOL    HW238386  12.380  10.768   4.398
45538SOL     OW38387  14.495   2.800   7.026
45538SOL    HW138388  14.503   2.861   7.099
45538SOL    HW238389  14.494   2.855   6.948
45539SOL     OW38390   1.867   7.429   0.391
45539SOL    HW138391   1.879   7.339   0.420
45539SOL    HW238392   1.777   7.431   0.357
45540SOL     OW38393   6.199   0.284   3.781
45540SOL    HW138394   6.113   0.320   3.802
45540SOL    HW238395   6.191   0.190   3.797
45541SOL     OW38396   7.988   7.039  10.045
45541SOL    HW138397   8.007   7.007   9.957
45541SOL    HW238398   8.071   7.031  10.092
45542SOL     OW38399   9.301  11.157  12.418
45542SOL    HW138400   9.373  11.094  12.414
45542SOL    HW238401   9.316  11.215  12.343
45543SOL     OW38402   0.502   4.427   2.534
45543SOL    HW138403   0.564   4.499   2.544
45543SOL    HW238404   0.509   4.401   2.442
45544SOL     OW38405   4.550  12.067   8.076
45544SOL    HW138406   4.625  12.010   8.060
45544SOL    HW238407   4.475  12.017   8.044
45545SOL     OW38408   3.397   7.695  11.684
45545SOL    HW138409   3.397   7.651  11.599
45545SOL    HW238410   3.367   7.784  11.665
45546SOL     OW38411  10.082   3.162  13.343
45546SOL    HW138412  10.007   3.145  13.400
45546SOL    HW238413  10.063   3.112  13.263
45547SOL     OW38414  11.498   1.881   0.002
45547SOL    HW138415  11.522   1.972   0.022
45547SOL    HW238416  11.403   1.879   0.007
45548SOL     OW38417   5.541   8.814  14.264
45548SOL    HW138418   5.491   8.734  14.276
45548SOL    HW238419   5.489   8.882  14.307
45549SOL     OW38420   1.961   1.368   0.853
45549SOL    HW138421   1.980   1.355   0.760
45549SOL    HW238422   2.044   1.350   0.897
45550SOL     OW38423  13.316  12.308   8.155
45550SOL    HW138424  13.304  12.403   8.150
45550SOL    HW238425  13.299  12.277   8.066
45551SOL     OW38426  14.189  11.718  11.092
45551SOL    HW138427  14.254  11.784  11.116
45551SOL    HW238428  14.236  11.635  11.092
45552SOL     OW38429  10.621  11.845   0.307
45552SOL    HW138430  10.656  11.872   0.392
45552SOL    HW238431  10.661  11.759   0.291
45553SOL     OW38432   5.204   7.690   3.638
45553SOL    HW138433   5.141   7.641   3.585
45553SOL    HW238434   5.213   7.640   3.718
45554SOL     OW38435   4.240  10.369   6.298
45554SOL    HW138436   4.198  10.450   6.330
45554SOL    HW238437   4.192  10.348   6.218
45555SOL     OW38438   7.828   2.175   2.429
45555SOL    HW138439   7.797   2.256   2.388
45555SOL    HW238440   7.869   2.125   2.358
45556SOL     OW38441   4.366  12.790   0.282
45556SOL    HW138442   4.351  12.696   0.287
45556SOL    HW238443   4.363  12.811   0.189
45557SOL     OW38444   3.910  12.539   5.640
45557SOL    HW138445   4.004  12.544   5.655
45557SOL    HW238446   3.896  12.452   5.603
45558SOL     OW38447   3.459   0.239   6.314
45558SOL    HW138448   3.554   0.253   6.317
45558SOL    HW238449   3.422   0.325   6.332
45559SOL     OW38450   8.479  11.847  10.749
45559SOL    HW138451   8.547  11.786  10.722
45559SOL    HW238452   8.526  11.919  10.791
45560SOL     OW38453   9.980   9.086  13.968
45560SOL    HW138454   9.958   9.104  13.877
45560SOL    HW238455   9.896   9.073  14.012
45561SOL     OW38456   7.293  14.685   2.650
45561SOL    HW138457   7.324  14.749   2.586
45561SOL    HW238458   7.278  14.605   2.599
45562SOL     OW38459   7.397   0.997   2.492
45562SOL    HW138460   7.458   0.924   2.500
45562SOL    HW238461   7.410   1.030   2.403
45563SOL     OW38462   5.916   6.857   2.436
45563SOL    HW138463   5.982   6.849   2.367
45563SOL    HW238464   5.907   6.768   2.471
45564SOL     OW38465   1.419   0.149  10.790
45564SOL    HW138466   1.503   0.162  10.746
45564SOL    HW238467   1.417   0.215  10.859
45565SOL     OW38468  12.374   8.578   1.190
45565SOL    HW138469  12.286   8.564   1.154
45565SOL    HW238470  12.428   8.511   1.148
45566SOL     OW38471   8.637  10.450   5.094
45566SOL    HW138472   8.583  10.384   5.051
45566SOL    HW238473   8.651  10.415   5.182
45567SOL     OW38474   3.293   5.573   1.234
45567SOL    HW138475   3.216   5.550   1.286
45567SOL    HW238476   3.259   5.591   1.146
45568SOL     OW38477   7.721   7.043  13.061
45568SOL    HW138478   7.770   7.101  13.003
45568SOL    HW238479   7.786   6.983  13.096
45569SOL     OW38480   7.105   2.884  13.296
45569SOL    HW138481   7.198   2.901  13.307
45569SOL    HW238482   7.062   2.949  13.352
45570SOL     OW38483   3.373   8.341   5.983
45570SOL    HW138484   3.413   8.261   5.948
45570SOL    HW238485   3.327   8.312   6.062
45571SOL     OW38486  12.758  12.458   4.986
45571SOL    HW138487  12.752  12.545   5.026
45571SOL    HW238488  12.745  12.474   4.892
45572SOL     OW38489  11.805  12.873  10.841
45572SOL    HW138490  11.900  12.885  10.848
45572SOL    HW238491  11.790  12.783  10.870
45573SOL     OW38492   7.776   2.124  13.546
45573SOL    HW138493   7.830   2.089  13.475
45573SOL    HW238494   7.830   2.192  13.586
45574SOL     OW38495  12.706   8.887  14.675
45574SOL    HW138496  12.732   8.851  14.759
45574SOL    HW238497  12.723   8.981  14.683
45575SOL     OW38498   4.643   6.381   8.988
45575SOL    HW138499   4.637   6.286   8.995
45575SOL    HW238500   4.737   6.399   8.993
45576SOL     OW38501   8.819   5.078   6.312
45576SOL    HW138502   8.880   5.009   6.339
45576SOL    HW238503   8.775   5.041   6.235
45577SOL     OW38504   0.857   3.909   6.002
45577SOL    HW138505   0.817   3.846   5.941
45577SOL    HW238506   0.845   3.994   5.960
45578SOL     OW38507   1.144   9.392  13.386
45578SOL    HW138508   1.176   9.329  13.451
45578SOL    HW238509   1.092   9.455  13.437
45579SOL     OW38510  13.840  10.702   7.231
45579SOL    HW138511  13.840  10.613   7.266
45579SOL    HW238512  13.751  10.735   7.249
45580SOL     OW38513   8.989   3.483   2.354
45580SOL    HW138514   8.944   3.498   2.270
45580SOL    HW238515   9.035   3.566   2.371
45581SOL     OW38516   1.048   8.911   3.772
45581SOL    HW138517   1.120   8.959   3.813
45581SOL    HW238518   1.052   8.824   3.811
45582SOL     OW38519  14.615  13.902  10.794
45582SOL    HW138520  14.626  13.807  10.795
45582SOL    HW238521  14.680  13.934  10.857
45583SOL     OW38522  10.239  10.741  13.956
45583SOL    HW138523  10.297  10.769  14.026
45583SOL    HW238524  10.285  10.763  13.875
45584SOL     OW38525   6.207  13.863   0.095
45584SOL    HW138526   6.264  13.918   0.041
45584SOL    HW238527   6.187  13.788   0.040
45585SOL     OW38528   4.453   0.756  12.602
45585SOL    HW138529   4.536   0.804  12.602
45585SOL    HW238530   4.427   0.754  12.510
45586SOL     OW38531  13.072   5.318   8.893
45586SOL    HW138532  13.132   5.391   8.875
45586SOL    HW238533  13.034   5.296   8.807
45587SOL     OW38534   7.213  14.217   7.797
45587SOL    HW138535   7.270  14.185   7.868
45587SOL    HW238536   7.165  14.139   7.769
45588SOL     OW38537   2.499  13.739   3.510
45588SOL    HW138538   2.492  13.662   3.453
45588SOL    HW238539   2.505  13.703   3.599
45589SOL     OW38540  10.541  14.287   5.348
45589SOL    HW138541  10.594  14.216   5.384
45589SOL    HW238542  10.519  14.342   5.423
45590SOL     OW38543  11.776   4.482   0.997
45590SOL    HW138544  11.811   4.435   1.072
45590SOL    HW238545  11.692   4.439   0.979
45591SOL     OW38546   5.760   7.993  10.424
45591SOL    HW138547   5.721   7.977  10.339
45591SOL    HW238548   5.691   7.973  10.487
45592SOL     OW38549   6.563   9.346   9.769
45592SOL    HW138550   6.598   9.424   9.811
45592SOL    HW238551   6.640   9.295   9.743
45593SOL     OW38552   0.417   7.331  10.246
45593SOL    HW138553   0.358   7.258  10.267
45593SOL    HW238554   0.360   7.408  10.243
45594SOL     OW38555   8.086   8.519  12.024
45594SOL    HW138556   8.167   8.565  12.004
45594SOL    HW238557   8.021   8.558  11.966
45595SOL     OW38558   2.913   1.584   4.583
45595SOL    HW138559   2.947   1.572   4.494
45595SOL    HW238560   2.835   1.639   4.572
45596SOL     OW38561   6.761   4.068  13.535
45596SOL    HW138562   6.724   4.154  13.515
45596SOL    HW238563   6.691   4.021  13.579
45597SOL     OW38564   8.808  11.531   8.791
45597SOL    HW138565   8.813  11.508   8.698
45597SOL    HW238566   8.715  11.527   8.812
45598SOL     OW38567   0.562  14.700   5.703
45598SOL    HW138568   0.648  14.739   5.723
45598SOL    HW238569   0.580  14.607   5.689
45599SOL     OW38570   9.592   4.561   1.397
45599SOL    HW138571   9.633   4.545   1.311
45599SOL    HW238572   9.630   4.645   1.426
45600SOL     OW38573   3.069   4.582   8.829
45600SOL    HW138574   3.044   4.522   8.759
45600SOL    HW238575   3.087   4.526   8.904
45601SOL     OW38576   6.635   7.840  13.527
45601SOL    HW138577   6.702   7.791  13.574
45601SOL    HW238578   6.568   7.858  13.592
45602SOL     OW38579   6.254  11.265   1.718
45602SOL    HW138580   6.269  11.258   1.813
45602SOL    HW238581   6.342  11.271   1.680
45603SOL     OW38582   5.315   2.395   4.834
45603SOL    HW138583   5.344   2.382   4.925
45603SOL    HW238584   5.373   2.338   4.782
45604SOL     OW38585   8.673  13.077   3.792
45604SOL    HW138586   8.732  13.110   3.724
45604SOL    HW238587   8.697  12.985   3.802
45605SOL     OW38588   7.234   4.463   0.696
45605SOL    HW138589   7.300   4.497   0.636
45605SOL    HW238590   7.239   4.368   0.687
45606SOL     OW38591  11.004   6.917  11.916
45606SOL    HW138592  11.076   6.855  11.927
45606SOL    HW238593  10.947   6.876  11.851
45607SOL     OW38594   0.801  13.695   3.932
45607SOL    HW138595   0.822  13.772   3.984
45607SOL    HW238596   0.756  13.636   3.992
45608SOL     OW38597   8.228   0.095   2.506
45608SOL    HW138598   8.239   0.119   2.414
45608SOL    HW238599   8.164   0.023   2.504
45609SOL     OW38600   8.251  10.467   3.656
45609SOL    HW138601   8.306  10.477   3.735
45609SOL    HW238602   8.240  10.372   3.648
45610SOL     OW38603   4.085  12.784  10.762
45610SOL    HW138604   3.990  12.791  10.776
45610SOL    HW238605   4.118  12.747  10.844
45611SOL     OW38606  11.519   1.436  12.200
45611SOL    HW138607  11.595   1.481  12.162
45611SOL    HW238608  11.538   1.432  12.294
45612SOL     OW38609   5.529   1.350   7.905
45612SOL    HW138610   5.603   1.291   7.915
45612SOL    HW238611   5.531   1.405   7.983
45613SOL     OW38612  12.925   2.967   2.405
45613SOL    HW138613  12.997   2.920   2.448
45613SOL    HW238614  12.941   3.059   2.426
45614SOL     OW38615   7.592  11.216  12.943
45614SOL    HW138616   7.681  11.208  12.909
45614SOL    HW238617   7.580  11.139  12.999
45615SOL     OW38618   6.843   1.214   6.731
45615SOL    HW138619   6.900   1.242   6.660
45615SOL    HW238620   6.781   1.285   6.741
45616SOL     OW38621   1.025   8.050   2.125
45616SOL    HW138622   0.939   8.035   2.163
45616SOL    HW238623   1.082   7.985   2.167
45617SOL     OW38624   8.617   0.101   4.581
45617SOL    HW138625   8.587   0.158   4.652
45617SOL    HW238626   8.658   0.027   4.626
45618SOL     OW38627  12.177   9.880  12.271
45618SOL    HW138628  12.211   9.827  12.199
45618SOL    HW238629  12.223   9.964  12.264
45619SOL     OW38630   7.200   7.468   1.698
45619SOL    HW138631   7.144   7.521   1.641
45619SOL    HW238632   7.183   7.501   1.786
45620SOL     OW38633  10.071  11.996   3.032
45620SOL    HW138634  10.073  11.912   3.076
45620SOL    HW238635   9.978  12.015   3.019
45621SOL     OW38636   5.980   7.243  11.675
45621SOL    HW138637   6.021   7.197  11.601
45621SOL    HW238638   6.045   7.237  11.745
45622SOL     OW38639  13.678  14.304   2.469
45622SOL    HW138640  13.596  14.279   2.425
45622SOL    HW238641  13.682  14.246   2.545
45623SOL     OW38642   3.915  10.783   1.196
45623SOL    HW138643   3.982  10.760   1.261
45623SOL    HW238644   3.834  10.788   1.245
45624SOL     OW38645  12.137  14.365  13.705
45624SOL    HW138646  12.194  14.295  13.736
45624SOL    HW238647  12.083  14.324  13.637
45625SOL     OW38648   6.996  10.446   8.075
45625SOL    HW138649   7.043  10.488   8.003
45625SOL    HW238650   7.046  10.366   8.093
45626SOL     OW38651   1.545   5.111   0.003
45626SOL    HW138652   1.492   5.143  14.807
45626SOL    HW238653   1.633   5.142  14.862
45627SOL     OW38654  12.131   1.972   3.684
45627SOL    HW138655  12.139   2.061   3.649
45627SOL    HW238656  12.215   1.931   3.663
45628SOL     OW38657  12.322  13.897   0.687
45628SOL    HW138658  12.391  13.844   0.725
45628SOL    HW238659  12.349  13.912   0.596
45629SOL     OW38660  13.836  11.664   1.276
45629SOL    HW138661  13.770  11.652   1.208
45629SOL    HW238662  13.860  11.756   1.270
45630SOL     OW38663   1.994   1.850   6.467
45630SOL    HW138664   2.022   1.886   6.383
45630SOL    HW238665   2.057   1.884   6.530
45631SOL     OW38666   8.889   9.907   0.265
45631SOL    HW138667   8.812   9.850   0.257
45631SOL    HW238668   8.955   9.866   0.210
45632SOL     OW38669  11.367   2.225   0.556
45632SOL    HW138670  11.331   2.173   0.628
45632SOL    HW238671  11.460   2.234   0.576
45633SOL     OW38672  10.125  12.821   5.159
45633SOL    HW138673  10.189  12.873   5.207
45633SOL    HW238674  10.149  12.834   5.067
45634SOL     OW38675   3.847  13.659  10.803
45634SOL    HW138676   3.762  13.618  10.789
45634SOL    HW238677   3.884  13.669  10.715
45635SOL     OW38678  13.040  11.374  11.074
45635SOL    HW138679  13.123  11.369  11.028
45635SOL    HW238680  13.007  11.284  11.075
45636SOL     OW38681   7.212   4.122  14.811
45636SOL    HW138682   7.269   4.198  14.811
45636SOL    HW238683   7.224   4.083  14.724
45637SOL     OW38684  10.446   4.230  14.357
45637SOL    HW138685  10.361   4.244  14.315
45637SOL    HW238686  10.437   4.272  14.443
45638SOL     OW38687   4.095  12.534   6.201
45638SOL    HW138688   4.140  12.538   6.117
45638SOL    HW238689   4.069  12.624   6.219
45639SOL     OW38690   5.107   1.121   3.437
45639SOL    HW138691   5.105   1.031   3.468
45639SOL    HW238692   5.066   1.118   3.351
45640SOL     OW38693   9.934   0.521   5.493
45640SOL    HW138694   9.977   0.576   5.558
45640SOL    HW238695   9.896   0.583   5.430
45641SOL     OW38696   2.785   0.771   9.784
45641SOL    HW138697   2.762   0.757   9.692
45641SOL    HW238698   2.713   0.734   9.833
45642SOL     OW38699   8.508  14.183   2.617
45642SOL    HW138700   8.555  14.156   2.538
45642SOL    HW238701   8.570  14.169   2.688
45643SOL     OW38702   2.730  12.170  13.030
45643SOL    HW138703   2.700  12.260  13.045
45643SOL    HW238704   2.754  12.168  12.937
45644SOL     OW38705   8.604   4.272   8.555
45644SOL    HW138706   8.661   4.349   8.559
45644SOL    HW238707   8.634   4.216   8.626
45645SOL     OW38708  11.626   2.874   8.002
45645SOL    HW138709  11.578   2.798   8.035
45645SOL    HW238710  11.693   2.837   7.945
45646SOL     OW38711  11.807   4.252  14.835
45646SOL    HW138712  11.873   4.270   0.024
45646SOL    HW238713  11.857   4.230  14.757
45647SOL     OW38714   2.901   4.866   8.773
45647SOL    HW138715   2.853   4.858   8.855
45647SOL    HW238716   2.941   4.780   8.760
45648SOL     OW38717   2.999  10.173   0.626
45648SOL    HW138718   2.952  10.090   0.631
45648SOL    HW238719   3.044  10.170   0.541
45649SOL     OW38720  12.741  10.593  13.055
45649SOL    HW138721  12.819  10.625  13.010
45649SOL    HW238722  12.775  10.543  13.129
45650SOL     OW38723   0.710   5.258   0.980
45650SOL    HW138724   0.695   5.164   0.995
45650SOL    HW238725   0.730   5.293   1.067
45651SOL     OW38726   4.530   8.146  13.535
45651SOL    HW138727   4.482   8.225  13.509
45651SOL    HW238728   4.555   8.105  13.453
45652SOL     OW38729   0.199  14.557  10.660
45652SOL    HW138730   0.270  14.545  10.723
45652SOL    HW238731   0.119  14.554  10.713
45653SOL     OW38732   5.664   6.062  13.255
45653SOL    HW138733   5.732   6.121  13.287
45653SOL    HW238734   5.711   5.997  13.202
45654SOL     OW38735  12.021  13.807   8.463
45654SOL    HW138736  11.985  13.781   8.548
45654SOL    HW238737  11.984  13.745   8.401
45655SOL     OW38738  11.778  14.836   2.874
45655SOL    HW138739  11.697  14.853   2.827
45655SOL    HW238740  11.787   0.033   2.934
45656SOL     OW38741   1.550   2.532  13.785
45656SOL    HW138742   1.620   2.524  13.720
45656SOL    HW238743   1.581   2.600  13.845
45657SOL     OW38744   0.488   5.273   9.976
45657SOL    HW138745   0.455   5.350   9.930
45657SOL    HW238746   0.507   5.304  10.065
45658SOL     OW38747  11.471   1.353   6.944
45658SOL    HW138748  11.414   1.410   6.893
45658SOL    HW238749  11.551   1.403   6.956
45659SOL     OW38750   8.781   3.783   9.211
45659SOL    HW138751   8.839   3.813   9.140
45659SOL    HW238752   8.822   3.703   9.243
45660SOL     OW38753   9.703  10.609   5.053
45660SOL    HW138754   9.695  10.524   5.012
45660SOL    HW238755   9.631  10.612   5.116
45661SOL     OW38756  13.364   7.596   6.236
45661SOL    HW138757  13.400   7.580   6.323
45661SOL    HW238758  13.293   7.532   6.227
45662SOL     OW38759   8.673   2.622   4.574
45662SOL    HW138760   8.591   2.572   4.571
45662SOL    HW238761   8.741   2.559   4.550
45663SOL     OW38762   8.852   8.243   4.412
45663SOL    HW138763   8.863   8.157   4.452
45663SOL    HW238764   8.940   8.267   4.384
45664SOL     OW38765   4.846   4.698   0.955
45664SOL    HW138766   4.825   4.611   0.989
45664SOL    HW238767   4.871   4.749   1.032
45665SOL     OW38768  12.089   7.704   7.952
45665SOL    HW138769  12.104   7.637   8.018
45665SOL    HW238770  12.136   7.781   7.984
45666SOL     OW38771   8.795  12.657  12.769
45666SOL    HW138772   8.867  12.670  12.708
45666SOL    HW238773   8.818  12.711  12.845
45667SOL     OW38774   0.829  14.105   9.783
45667SOL    HW138775   0.744  14.090   9.742
45667SOL    HW238776   0.813  14.094   9.877
45668SOL     OW38777   0.943   2.205  13.172
45668SOL    HW138778   0.941   2.300  13.164
45668SOL    HW238779   1.036   2.182  13.166
45669SOL     OW38780  11.447   3.075  13.399
45669SOL    HW138781  11.436   3.002  13.339
45669SOL    HW238782  11.538   3.070  13.428
45670SOL     OW38783   6.261   2.468  10.901
45670SOL    HW138784   6.205   2.518  10.841
45670SOL    HW238785   6.347   2.508  10.891
45671SOL     OW38786   6.021   9.605   6.487
45671SOL    HW138787   6.100   9.588   6.538
45671SOL    HW238788   5.953   9.552   6.529
45672SOL     OW38789  11.322  12.987   4.479
45672SOL    HW138790  11.332  13.047   4.553
45672SOL    HW238791  11.235  12.949   4.490
45673SOL     OW38792  11.626   8.763  14.368
45673SOL    HW138793  11.565   8.691  14.384
45673SOL    HW238794  11.692   8.755  14.437
45674SOL     OW38795   9.937   8.528   7.102
45674SOL    HW138796  10.003   8.481   7.049
45674SOL    HW238797   9.886   8.459   7.143
45675SOL     OW38798  14.492  10.193  13.831
45675SOL    HW138799  14.474  10.118  13.887
45675SOL    HW238800  14.563  10.240  13.876
45676SOL     OW38801  11.872   5.597   2.549
45676SOL    HW138802  11.881   5.690   2.532
45676SOL    HW238803  11.919   5.554   2.477
45677SOL     OW38804   0.343   7.764  10.275
45677SOL    HW138805   0.345   7.724  10.188
45677SOL    HW238806   0.376   7.696  10.334
45678SOL     OW38807   6.590  11.410   2.165
45678SOL    HW138808   6.573  11.495   2.205
45678SOL    HW238809   6.683  11.411   2.144
45679SOL     OW38810   7.634   0.297   8.682
45679SOL    HW138811   7.702   0.231   8.675
45679SOL    HW238812   7.638   0.345   8.599
45680SOL     OW38813   9.508  14.794   9.827
45680SOL    HW138814   9.585  14.739   9.811
45680SOL    HW238815   9.434  14.733   9.830
45681SOL     OW38816   4.693   5.951   1.136
45681SOL    HW138817   4.665   5.860   1.145
45681SOL    HW238818   4.662   5.977   1.049
45682SOL     OW38819   5.681  10.197   3.547
45682SOL    HW138820   5.772  10.201   3.516
45682SOL    HW238821   5.669  10.278   3.597
45683SOL     OW38822   2.019   8.841  10.608
45683SOL    HW138823   2.055   8.921  10.570
45683SOL    HW238824   1.940   8.824  10.556
45684SOL     OW38825   6.077   1.898   7.712
45684SOL    HW138826   5.994   1.944   7.700
45684SOL    HW238827   6.058   1.826   7.772
45685SOL     OW38828   1.934   2.800  11.864
45685SOL    HW138829   1.915   2.731  11.928
45685SOL    HW238830   1.849   2.825  11.829
45686SOL     OW38831   5.717   7.692   2.650
45686SOL    HW138832   5.745   7.777   2.684
45686SOL    HW238833   5.719   7.701   2.555
45687SOL     OW38834  10.526  12.363  14.509
45687SOL    HW138835  10.501  12.400  14.594
45687SOL    HW238836  10.583  12.430  14.470
45688SOL     OW38837   1.775   8.339   8.454
45688SOL    HW138838   1.723   8.396   8.398
45688SOL    HW238839   1.855   8.321   8.404
45689SOL     OW38840   1.922  14.294  10.500
45689SOL    HW138841   2.003  14.341  10.481
45689SOL    HW238842   1.879  14.347  10.568
45690SOL     OW38843  13.941   0.666  11.219
45690SOL    HW138844  13.854   0.703  11.234
45690SOL    HW238845  13.986   0.676  11.302
45691SOL     OW38846  10.489   0.872  10.397
45691SOL    HW138847  10.556   0.848  10.461
45691SOL    HW238848  10.409   0.885  10.449
45692SOL     OW38849  14.082   0.098   3.686
45692SOL    HW138850  14.095   0.012   3.726
45692SOL    HW238851  14.144   0.101   3.613
45693SOL     OW38852  12.420   3.542  14.478
45693SOL    HW138853  12.423   3.539  14.382
45693SOL    HW238854  12.487   3.606  14.502
45694SOL     OW38855  13.068   9.912   2.165
45694SOL    HW138856  13.097  10.003   2.177
45694SOL    HW238857  13.140   9.860   2.200
45695SOL     OW38858  13.974   4.120  11.429
45695SOL    HW138859  14.043   4.055  11.420
45695SOL    HW238860  13.946   4.114  11.521
45696SOL     OW38861  11.181   7.891   9.210
45696SOL    HW138862  11.143   7.961   9.157
45696SOL    HW238863  11.139   7.901   9.295
45697SOL     OW38864  10.634  14.313   7.218
45697SOL    HW138865  10.596  14.226   7.202
45697SOL    HW238866  10.692  14.299   7.294
45698SOL     OW38867   5.812   3.356   9.476
45698SOL    HW138868   5.876   3.408   9.523
45698SOL    HW238869   5.863   3.289   9.432
45699SOL     OW38870   4.006   4.219   4.497
45699SOL    HW138871   3.992   4.161   4.572
45699SOL    HW238872   3.938   4.195   4.434
45700SOL     OW38873  14.618   0.565  10.206
45700SOL    HW138874  14.600   0.525  10.291
45700SOL    HW238875  14.673   0.640  10.227
45701SOL     OW38876   6.059   4.805   4.506
45701SOL    HW138877   6.101   4.755   4.436
45701SOL    HW238878   5.977   4.758   4.522
45702SOL     OW38879  10.871   7.783  12.450
45702SOL    HW138880  10.794   7.726  12.451
45702SOL    HW238881  10.836   7.871  12.438
45703SOL     OW38882   3.848  13.079  12.459
45703SOL    HW138883   3.821  13.047  12.545
45703SOL    HW238884   3.838  13.174  12.465
45704SOL     OW38885   6.746  14.734   1.051
45704SOL    HW138886   6.776  14.817   1.087
45704SOL    HW238887   6.757  14.671   1.122
45705SOL     OW38888   0.043   7.031   7.737
45705SOL    HW138889   0.008   7.006   7.651
45705SOL    HW238890  14.850   7.081   7.778
45706SOL     OW38891   1.292   4.504   9.671
45706SOL    HW138892   1.350   4.569   9.630
45706SOL    HW238893   1.223   4.556   9.711
45707SOL     OW38894   9.429   3.646   7.682
45707SOL    HW138895   9.440   3.736   7.650
45707SOL    HW238896   9.470   3.592   7.614
45708SOL     OW38897   3.153  11.415   6.878
45708SOL    HW138898   3.190  11.503   6.871
45708SOL    HW238899   3.182  11.383   6.962
45709SOL     OW38900  13.279   5.136   0.926
45709SOL    HW138901  13.192   5.100   0.910
45709SOL    HW238902  13.339   5.066   0.900
45710SOL     OW38903   5.680   3.397   4.171
45710SOL    HW138904   5.643   3.319   4.214
45710SOL    HW238905   5.623   3.469   4.199
45711SOL     OW38906  13.447   7.737   9.659
45711SOL    HW138907  13.522   7.783   9.697
45711SOL    HW238908  13.476   7.646   9.652
45712SOL     OW38909   1.676   3.706   3.732
45712SOL    HW138910   1.684   3.767   3.659
45712SOL    HW238911   1.583   3.684   3.734
45713SOL     OW38912  14.721  13.175  14.271
45713SOL    HW138913  14.665  13.221  14.333
45713SOL    HW238914  14.677  13.185  14.187
45714SOL     OW38915   2.495  10.664   2.432
45714SOL    HW138916   2.507  10.589   2.491
45714SOL    HW238917   2.503  10.740   2.489
45715SOL     OW38918   5.961   9.488   0.894
45715SOL    HW138919   5.924   9.567   0.856
45715SOL    HW238920   6.045   9.516   0.931
45716SOL     OW38921   2.362  11.590   2.075
45716SOL    HW138922   2.323  11.521   2.021
45716SOL    HW238923   2.403  11.649   2.013
45717SOL     OW38924   8.784  12.987   7.048
45717SOL    HW138925   8.760  12.972   6.956
45717SOL    HW238926   8.701  13.007   7.091
45718SOL     OW38927  11.682   9.295   8.183
45718SOL    HW138928  11.719   9.382   8.199
45718SOL    HW238929  11.635   9.273   8.263
45719SOL     OW38930  13.690  12.371   8.588
45719SOL    HW138931  13.687  12.309   8.660
45719SOL    HW238932  13.615  12.348   8.533
45720SOL     OW38933  10.336   2.178   8.873
45720SOL    HW138934  10.259   2.227   8.846
45720SOL    HW238935  10.351   2.204   8.964
45721SOL     OW38936   0.746   6.621  14.621
45721SOL    HW138937   0.833   6.660  14.628
45721SOL    HW238938   0.696   6.661  14.693
45722SOL     OW38939   6.492   1.892   4.328
45722SOL    HW138940   6.554   1.964   4.321
45722SOL    HW238941   6.459   1.897   4.418
45723SOL     OW38942   9.797   5.805   6.445
45723SOL    HW138943   9.855   5.882   6.453
45723SOL    HW238944   9.813   5.755   6.525
45724SOL     OW38945   9.992   5.054  14.564
45724SOL    HW138946   9.914   5.027  14.612
45724SOL    HW238947  10.004   5.146  14.588
45725SOL     OW38948   1.735   8.983   2.030
45725SOL    HW138949   1.683   8.972   2.109
45725SOL    HW238950   1.721   9.075   2.005
45726SOL     OW38951   0.860   8.844  12.280
45726SOL    HW138952   0.812   8.775  12.235
45726SOL    HW238953   0.921   8.878  12.214
45727SOL     OW38954   6.822   1.372   4.063
45727SOL    HW138955   6.915   1.353   4.068
45727SOL    HW238956   6.802   1.375   3.969
45728SOL     OW38957   2.015  13.037   0.926
45728SOL    HW138958   2.100  13.053   0.967
45728SOL    HW238959   2.032  13.041   0.832
45729SOL     OW38960   1.124   0.046   0.361
45729SOL    HW138961   1.042   0.070   0.403
45729SOL    HW238962   1.192   0.075   0.423
45730SOL     OW38963   8.142  11.193   0.916
45730SOL    HW138964   8.218  11.205   0.860
45730SOL    HW238965   8.178  11.175   1.003
45731SOL     OW38966   5.851  10.604  11.399
45731SOL    HW138967   5.773  10.657  11.381
45731SOL    HW238968   5.918  10.640  11.341
45732SOL     OW38969   2.098   2.764   4.328
45732SOL    HW138970   2.072   2.687   4.378
45732SOL    HW238971   2.162   2.730   4.264
45733SOL     OW38972   4.138   5.327   7.125
45733SOL    HW138973   4.125   5.371   7.041
45733SOL    HW238974   4.130   5.234   7.105
45734SOL     OW38975   9.265  11.560   6.478
45734SOL    HW138976   9.316  11.480   6.469
45734SOL    HW238977   9.330  11.630   6.472
45735SOL     OW38978  14.483   0.369   4.983
45735SOL    HW138979  14.429   0.290   4.987
45735SOL    HW238980  14.545   0.352   4.913
45736SOL     OW38981  13.833   8.701  14.094
45736SOL    HW138982  13.910   8.717  14.148
45736SOL    HW238983  13.857   8.629  14.036
45737SOL     OW38984  12.274  12.123   8.130
45737SOL    HW138985  12.327  12.164   8.198
45737SOL    HW238986  12.189  12.106   8.173
45738SOL     OW38987   2.682   3.236   0.506
45738SOL    HW138988   2.643   3.213   0.422
45738SOL    HW238989   2.726   3.155   0.535
45739SOL     OW38990   1.609   9.782   0.982
45739SOL    HW138991   1.694   9.819   0.959
45739SOL    HW238992   1.616   9.761   1.075
45740SOL     OW38993   3.819   5.872   3.839
45740SOL    HW138994   3.892   5.826   3.797
45740SOL    HW238995   3.856   5.955   3.867
45741SOL     OW38996  11.811  14.538   7.250
45741SOL    HW138997  11.851  14.527   7.163
45741SOL    HW238998  11.851  14.470   7.304
45742SOL     OW38999   9.759   7.256  13.336
45742SOL    HW139000   9.682   7.301  13.371
45742SOL    HW239001   9.810   7.325  13.293
45743SOL     OW39002   4.470   6.808   5.814
45743SOL    HW139003   4.467   6.722   5.771
45743SOL    HW239004   4.506   6.866   5.747
45744SOL     OW39005  10.936  11.153   9.925
45744SOL    HW139006  10.844  11.130   9.912
45744SOL    HW239007  10.943  11.244   9.895
45745SOL     OW39008   9.247   7.489  13.760
45745SOL    HW139009   9.175   7.448  13.711
45745SOL    HW239010   9.317   7.424  13.759
45746SOL     OW39011   2.701   5.236   4.446
45746SOL    HW139012   2.742   5.323   4.448
45746SOL    HW239013   2.774   5.175   4.455
45747SOL     OW39014   5.641   9.769   6.244
45747SOL    HW139015   5.713   9.756   6.306
45747SOL    HW239016   5.658   9.856   6.207
45748SOL     OW39017   6.451   2.738  13.712
45748SOL    HW139018   6.503   2.720  13.634
45748SOL    HW239019   6.387   2.804  13.684
45749SOL     OW39020  14.508  11.328  10.199
45749SOL    HW139021  14.421  11.367  10.197
45749SOL    HW239022  14.508  11.275  10.279
45750SOL     OW39023  11.550  12.938  11.761
45750SOL    HW139024  11.512  12.942  11.849
45750SOL    HW239025  11.612  12.866  11.765
45751SOL     OW39026   2.135  10.849   0.745
45751SOL    HW139027   2.053  10.802   0.758
45751SOL    HW239028   2.142  10.860   0.650
45752SOL     OW39029   7.829   2.305   4.257
45752SOL    HW139030   7.865   2.268   4.176
45752SOL    HW239031   7.801   2.393   4.232
45753SOL     OW39032   9.719   2.359   2.475
45753SOL    HW139033   9.780   2.402   2.534
45753SOL    HW239034   9.646   2.332   2.531
45754SOL     OW39035   3.939  12.557  10.534
45754SOL    HW139036   3.993  12.581  10.610
45754SOL    HW239037   3.989  12.487  10.491
45755SOL     OW39038   2.919   7.129   7.368
45755SOL    HW139039   2.826   7.146   7.352
45755SOL    HW239040   2.954   7.214   7.395
45756SOL     OW39041   0.712   4.583   2.351
45756SOL    HW139042   0.705   4.665   2.302
45756SOL    HW239043   0.670   4.518   2.294
45757SOL     OW39044  11.276   2.260  13.581
45757SOL    HW139045  11.280   2.342  13.630
45757SOL    HW239046  11.311   2.195  13.641
45758SOL     OW39047   4.378  11.977   0.168
45758SOL    HW139048   4.409  11.888   0.187
45758SOL    HW239049   4.353  12.013   0.253
45759SOL     OW39050   1.730   3.562   1.070
45759SOL    HW139051   1.682   3.482   1.048
45759SOL    HW239052   1.694   3.590   1.154
45760SOL     OW39053   2.054   1.788  12.183
45760SOL    HW139054   2.115   1.859  12.166
45760SOL    HW239055   1.967   1.826  12.168
45761SOL     OW39056   5.771   7.584  10.394
45761SOL    HW139057   5.679   7.607  10.396
45761SOL    HW239058   5.778   7.504  10.446
45762SOL     OW39059  13.003  12.842   4.770
45762SOL    HW139060  13.008  12.749   4.792
45762SOL    HW239061  12.991  12.844   4.675
45763SOL     OW39062   4.436   0.869   5.876
45763SOL    HW139063   4.436   0.909   5.964
45763SOL    HW239064   4.507   0.806   5.879
45764SOL     OW39065   8.321   0.144   1.202
45764SOL    HW139066   8.235   0.112   1.174
45764SOL    HW239067   8.340   0.218   1.145
45765SOL     OW39068  11.410   0.409  11.864
45765SOL    HW139069  11.324   0.391  11.903
45765SOL    HW239070  11.398   0.494  11.820
45766SOL     OW39071  11.028   0.126  12.822
45766SOL    HW139072  11.119   0.098  12.830
45766SOL    HW239073  11.009   0.120  12.728
45767SOL     OW39074   8.932   4.157  12.731
45767SOL    HW139075   8.985   4.176  12.653
45767SOL    HW239076   8.983   4.192  12.804
45768SOL     OW39077  12.608   3.767   8.815
45768SOL    HW139078  12.690   3.788   8.771
45768SOL    HW239079  12.596   3.838   8.878
45769SOL     OW39080  12.241   5.260   3.778
45769SOL    HW139081  12.214   5.268   3.870
45769SOL    HW239082  12.250   5.351   3.748
45770SOL     OW39083   0.191   9.281   3.299
45770SOL    HW139084   0.229   9.369   3.303
45770SOL    HW239085   0.227   9.236   3.375
45771SOL     OW39086   0.949   2.576   3.102
45771SOL    HW139087   1.027   2.607   3.054
45771SOL    HW239088   0.956   2.481   3.098
45772SOL     OW39089   1.850   9.882   2.454
45772SOL    HW139090   1.755   9.878   2.444
45772SOL    HW239091   1.873   9.972   2.432
45773SOL     OW39092  11.995   7.194  13.820
45773SOL    HW139093  11.970   7.284  13.800
45773SOL    HW239094  12.073   7.178  13.766
45774SOL     OW39095  12.084  12.414   6.061
45774SOL    HW139096  12.118  12.401   5.972
45774SOL    HW239097  12.121  12.498   6.088
45775SOL     OW39098   2.602   5.681   8.515
45775SOL    HW139099   2.631   5.699   8.604
45775SOL    HW239100   2.564   5.593   8.519
45776SOL     OW39101   0.871  11.396   5.624
45776SOL    HW139102   0.865  11.465   5.558
45776SOL    HW239103   0.964  11.373   5.626
45777SOL     OW39104   9.188  14.821   1.904
45777SOL    HW139105   9.214  14.765   1.831
45777SOL    HW239106   9.094  14.803   1.916
45778SOL     OW39107   4.523   1.319   7.276
45778SOL    HW139108   4.468   1.244   7.297
45778SOL    HW239109   4.604   1.281   7.243
45779SOL     OW39110   4.652  12.153   2.570
45779SOL    HW139111   4.605  12.142   2.488
45779SOL    HW239112   4.739  12.184   2.544
45780SOL     OW39113  10.188   5.175   6.221
45780SOL    HW139114  10.183   5.270   6.231
45780SOL    HW239115  10.177   5.160   6.127
45781SOL     OW39116  12.524  10.685   7.132
45781SOL    HW139117  12.500  10.597   7.104
45781SOL    HW239118  12.457  10.709   7.197
45782SOL     OW39119  13.097   6.754   2.013
45782SOL    HW139120  13.048   6.715   1.941
45782SOL    HW239121  13.145   6.680   2.051
45783SOL     OW39122  14.072  12.995  12.454
45783SOL    HW139123  14.135  12.977  12.522
45783SOL    HW239124  14.055  12.911  12.413
45784SOL     OW39125  14.356   3.969   9.836
45784SOL    HW139126  14.399   3.975   9.751
45784SOL    HW239127  14.290   3.900   9.825
45785SOL     OW39128   2.333   7.103  11.046
45785SOL    HW139129   2.379   7.019  11.045
45785SOL    HW239130   2.240   7.079  11.046
45786SOL     OW39131   9.811  10.016  10.393
45786SOL    HW139132   9.731  10.068  10.399
45786SOL    HW239133   9.825   9.984  10.482
45787SOL     OW39134   7.196   4.523  12.499
45787SOL    HW139135   7.284   4.548  12.528
45787SOL    HW239136   7.200   4.428  12.487
45788SOL     OW39137   1.466   7.193   0.228
45788SOL    HW139138   1.396   7.252   0.200
45788SOL    HW239139   1.483   7.218   0.319
45789SOL     OW39140   0.344  12.742  13.376
45789SOL    HW139141   0.426  12.698  13.350
45789SOL    HW239142   0.275  12.680  13.351
45790SOL     OW39143   8.654   1.444   9.698
45790SOL    HW139144   8.709   1.425   9.774
45790SOL    HW239145   8.586   1.377   9.699
45791SOL     OW39146   0.692   8.739  13.848
45791SOL    HW139147   0.742   8.818  13.868
45791SOL    HW239148   0.669   8.702  13.934
45792SOL     OW39149   4.697   7.002  13.273
45792SOL    HW139150   4.604   7.020  13.257
45792SOL    HW239151   4.739   7.014  13.189
45793SOL     OW39152   4.308   2.576   4.130
45793SOL    HW139153   4.277   2.635   4.061
45793SOL    HW239154   4.384   2.621   4.167
45794SOL     OW39155   0.766   5.977  11.587
45794SOL    HW139156   0.777   5.884  11.567
45794SOL    HW239157   0.744   6.016  11.502
45795SOL     OW39158   7.843   2.478  11.162
45795SOL    HW139159   7.876   2.560  11.199
45795SOL    HW239160   7.750   2.494  11.148
45796SOL     OW39161  13.216  11.981   5.072
45796SOL    HW139162  13.145  11.917   5.078
45796SOL    HW239163  13.178  12.062   5.108
45797SOL     OW39164   8.608   6.895   3.296
45797SOL    HW139165   8.597   6.805   3.267
45797SOL    HW239166   8.573   6.897   3.385
45798SOL     OW39167   7.940   8.104   0.932
45798SOL    HW139168   8.003   8.168   0.964
45798SOL    HW239169   7.929   8.124   0.840
45799SOL     OW39170   6.687   8.499   6.973
45799SOL    HW139171   6.723   8.580   6.936
45799SOL    HW239172   6.632   8.464   6.903
45800SOL     OW39173   4.602  13.243   7.083
45800SOL    HW139174   4.582  13.164   7.133
45800SOL    HW239175   4.682  13.222   7.034
45801SOL     OW39176   1.230   6.504   1.634
45801SOL    HW139177   1.178   6.435   1.593
45801SOL    HW239178   1.318   6.468   1.638
45802SOL     OW39179   2.911   9.104  13.877
45802SOL    HW139180   2.823   9.121  13.910
45802SOL    HW239181   2.898   9.058  13.795
45803SOL     OW39182  12.221  10.118   5.244
45803SOL    HW139183  12.164  10.094   5.318
45803SOL    HW239184  12.165  10.107   5.167
45804SOL     OW39185   9.428   7.874   0.450
45804SOL    HW139186   9.383   7.792   0.430
45804SOL    HW239187   9.412   7.930   0.374
45805SOL     OW39188   5.012  14.544   6.178
45805SOL    HW139189   4.973  14.542   6.091
45805SOL    HW239190   5.101  14.578   6.164
45806SOL     OW39191  13.529   8.405   2.482
45806SOL    HW139192  13.528   8.499   2.463
45806SOL    HW239193  13.525   8.362   2.397
45807SOL     OW39194   2.339  12.340  14.416
45807SOL    HW139195   2.397  12.409  14.447
45807SOL    HW239196   2.381  12.305  14.338
45808SOL     OW39197   6.080  10.090   8.628
45808SOL    HW139198   6.020  10.153   8.670
45808SOL    HW239199   6.099  10.026   8.697
45809SOL     OW39200  12.550   6.555   5.770
45809SOL    HW139201  12.457   6.555   5.794
45809SOL    HW239202  12.587   6.480   5.817
45810SOL     OW39203   6.081   4.473   8.479
45810SOL    HW139204   6.018   4.541   8.501
45810SOL    HW239205   6.150   4.482   8.545
45811SOL     OW39206   5.584  14.467   3.953
45811SOL    HW139207   5.656  14.419   3.995
45811SOL    HW239208   5.612  14.475   3.862
45812SOL     OW39209  11.888   6.067   5.125
45812SOL    HW139210  11.805   6.055   5.171
45812SOL    HW239211  11.926   5.980   5.120
45813SOL     OW39212  11.858   3.421   9.165
45813SOL    HW139213  11.885   3.427   9.073
45813SOL    HW239214  11.921   3.361   9.204
45814SOL     OW39215   9.345   4.473   4.585
45814SOL    HW139216   9.316   4.420   4.660
45814SOL    HW239217   9.348   4.563   4.619
45815SOL     OW39218  14.031   5.568   1.290
45815SOL    HW139219  14.092   5.518   1.344
45815SOL    HW239220  14.074   5.573   1.204
45816SOL     OW39221   7.342   5.045  14.218
45816SOL    HW139222   7.351   5.140  14.227
45816SOL    HW239223   7.397   5.023  14.142
45817SOL     OW39224   3.729   0.275   9.146
45817SOL    HW139225   3.673   0.273   9.223
45817SOL    HW239226   3.716   0.363   9.109
45818SOL     OW39227   8.053   2.224   4.412
45818SOL    HW139228   7.988   2.278   4.367
45818SOL    HW239229   8.063   2.147   4.357
45819SOL     OW39230   8.697   4.577  10.236
45819SOL    HW139231   8.617   4.598  10.285
45819SOL    HW239232   8.688   4.484  10.216
45820SOL     OW39233   6.575   2.032   1.215
45820SOL    HW139234   6.549   2.085   1.140
45820SOL    HW239235   6.496   1.985   1.241
45821SOL     OW39236  14.043   8.537   6.958
45821SOL    HW139237  14.054   8.578   6.873
45821SOL    HW239238  14.050   8.609   7.021
45822SOL     OW39239   7.738  11.390   9.527
45822SOL    HW139240   7.706  11.399   9.617
45822SOL    HW239241   7.807  11.456   9.520
45823SOL     OW39242   5.478  14.710  10.982
45823SOL    HW139243   5.506  14.750  11.064
45823SOL    HW239244   5.531  14.631  10.975
45824SOL     OW39245  10.278   1.875  10.197
45824SOL    HW139246  10.313   1.797  10.240
45824SOL    HW239247  10.347   1.901  10.136
45825SOL     OW39248   0.105   2.347  14.242
45825SOL    HW139249   0.059   2.382  14.318
45825SOL    HW239250   0.158   2.420  14.210
45826SOL     OW39251  11.776   7.419   1.273
45826SOL    HW139252  11.742   7.335   1.244
45826SOL    HW239253  11.810   7.403   1.361
45827SOL     OW39254   8.247   2.780   1.234
45827SOL    HW139255   8.199   2.714   1.284
45827SOL    HW239256   8.196   2.861   1.247
45828SOL     OW39257  11.177   7.944  13.744
45828SOL    HW139258  11.222   7.868  13.709
45828SOL    HW239259  11.247   8.001  13.776
45829SOL     OW39260  10.369  12.934   4.804
45829SOL    HW139261  10.446  12.973   4.846
45829SOL    HW239262  10.384  12.945   4.710
45830SOL     OW39263   0.044   0.546   9.554
45830SOL    HW139264   0.112   0.510   9.497
45830SOL    HW239265   0.010   0.470   9.602
45831SOL     OW39266  13.611  10.487  12.652
45831SOL    HW139267  13.601  10.488  12.556
45831SOL    HW239268  13.610  10.394  12.675
45832SOL     OW39269  12.527   6.593  13.619
45832SOL    HW139270  12.529   6.671  13.673
45832SOL    HW239271  12.470   6.532  13.667
45833SOL     OW39272  13.734   6.815   1.704
45833SOL    HW139273  13.732   6.910   1.698
45833SOL    HW239274  13.660   6.786   1.652
45834SOL     OW39275   7.097   9.210  10.279
45834SOL    HW139276   7.010   9.231  10.245
45834SOL    HW239277   7.129   9.140  10.222
45835SOL     OW39278   7.948   5.339   4.363
45835SOL    HW139279   7.861   5.307   4.391
45835SOL    HW239280   7.959   5.305   4.275
45836SOL     OW39281  11.472   7.674   2.361
45836SOL    HW139282  11.386   7.662   2.321
45836SOL    HW239283  11.495   7.765   2.344
45837SOL     OW39284  10.562  12.603   4.743
45837SOL    HW139285  10.617  12.670   4.783
45837SOL    HW239286  10.536  12.546   4.816
45838SOL     OW39287  12.018  10.808   1.269
45838SOL    HW139288  12.008  10.884   1.326
45838SOL    HW239289  12.111  10.804   1.250
45839SOL     OW39290  10.025  12.764  11.153
45839SOL    HW139291  10.090  12.694  11.139
45839SOL    HW239292  10.050  12.833  11.092
45840SOL     OW39293   7.064  12.755   4.100
45840SOL    HW139294   7.021  12.736   4.016
45840SOL    HW239295   7.133  12.817   4.077
45841SOL     OW39296   6.880   2.069  14.659
45841SOL    HW139297   6.857   2.025  14.577
45841SOL    HW239298   6.801   2.118  14.682
45842SOL     OW39299  10.481  14.052  12.954
45842SOL    HW139300  10.497  13.975  13.008
45842SOL    HW239301  10.426  14.021  12.883
45843SOL     OW39302  13.274  10.146   6.399
45843SOL    HW139303  13.368  10.162   6.384
45843SOL    HW239304  13.235  10.233   6.403
45844SOL     OW39305  11.294  13.920  11.769
45844SOL    HW139306  11.381  13.888  11.790
45844SOL    HW239307  11.262  13.861  11.700
45845SOL     OW39308   2.618   5.985  12.915
45845SOL    HW139309   2.637   6.046  12.843
45845SOL    HW239310   2.531   6.010  12.946
45846SOL     OW39311  11.704  11.017  10.043
45846SOL    HW139312  11.632  11.034   9.982
45846SOL    HW239313  11.779  11.000   9.987
45847SOL     OW39314   7.116   9.387  13.343
45847SOL    HW139315   7.151   9.309  13.300
45847SOL    HW239316   7.100   9.359  13.433
45848SOL     OW39317   9.295   3.758   6.401
45848SOL    HW139318   9.360   3.752   6.331
45848SOL    HW239319   9.231   3.822   6.368
45849SOL     OW39320  11.759   4.653  12.754
45849SOL    HW139321  11.738   4.711  12.828
45849SOL    HW239322  11.840   4.609  12.781
45850SOL     OW39323   7.043   7.765   2.186
45850SOL    HW139324   7.041   7.829   2.257
45850SOL    HW239325   7.016   7.815   2.109
45851SOL     OW39326   3.452  10.341  12.318
45851SOL    HW139327   3.476  10.417  12.264
45851SOL    HW239328   3.535  10.300  12.341
45852SOL     OW39329   9.567   3.097   3.119
45852SOL    HW139330   9.473   3.101   3.137
45852SOL    HW239331   9.575   3.111   3.025
45853SOL     OW39332   2.767   3.117   2.037
45853SOL    HW139333   2.768   3.207   2.005
45853SOL    HW239334   2.814   3.068   1.970
45854SOL     OW39335  13.795  13.655  11.895
45854SOL    HW139336  13.884  13.691  11.903
45854SOL    HW239337  13.808  13.568  11.857
45855SOL     OW39338  10.110  12.208  13.197
45855SOL    HW139339  10.194  12.252  13.209
45855SOL    HW239340  10.133  12.115  13.190
45856SOL     OW39341   9.294  10.043  10.894
45856SOL    HW139342   9.351   9.967  10.886
45856SOL    HW239343   9.325  10.089  10.972
45857SOL     OW39344   4.555   9.325  14.454
45857SOL    HW139345   4.475   9.298  14.498
45857SOL    HW239346   4.539   9.416  14.427
45858SOL     OW39347  13.194   9.626   8.061
45858SOL    HW139348  13.203   9.645   7.968
45858SOL    HW239349  13.265   9.565   8.080
45859SOL     OW39350  12.921   1.356  13.699
45859SOL    HW139351  12.895   1.431  13.646
45859SOL    HW239352  13.012   1.339  13.676
45860SOL     OW39353  10.766  10.593   2.125
45860SOL    HW139354  10.829  10.543   2.176
45860SOL    HW239355  10.818  10.655   2.074
45861SOL     OW39356  14.194   4.280   1.818
45861SOL    HW139357  14.123   4.268   1.755
45861SOL    HW239358  14.242   4.198   1.816
45862SOL     OW39359   5.423   7.762   0.104
45862SOL    HW139360   5.396   7.686   0.051
45862SOL    HW239361   5.429   7.834   0.042
45863SOL     OW39362   2.850   8.796   9.184
45863SOL    HW139363   2.788   8.778   9.255
45863SOL    HW239364   2.795   8.817   9.109
45864SOL     OW39365   4.064  10.654   8.340
45864SOL    HW139366   4.081  10.563   8.364
45864SOL    HW239367   4.085  10.704   8.420
45865SOL     OW39368   3.338   5.216   4.551
45865SOL    HW139369   3.253   5.226   4.593
45865SOL    HW239370   3.324   5.148   4.485
45866SOL     OW39371   2.750   3.377   0.209
45866SOL    HW139372   2.712   3.446   0.264
45866SOL    HW239373   2.840   3.369   0.239
45867SOL     OW39374  13.688   8.663   4.098
45867SOL    HW139375  13.683   8.759   4.103
45867SOL    HW239376  13.775   8.643   4.132
45868SOL     OW39377   1.441  14.562   0.260
45868SOL    HW139378   1.401  14.532   0.341
45868SOL    HW239379   1.368  14.592   0.206
45869SOL     OW39380  12.372  13.240   1.252
45869SOL    HW139381  12.319  13.318   1.265
45869SOL    HW239382  12.458  13.264   1.285
45870SOL     OW39383   0.626  10.764  12.630
45870SOL    HW139384   0.708  10.746  12.677
45870SOL    HW239385   0.573  10.812  12.693
45871SOL     OW39386   3.185   8.298   0.079
45871SOL    HW139387   3.208   8.231   0.015
45871SOL    HW239388   3.090   8.306   0.074
45872SOL     OW39389  13.504  11.953   5.102
45872SOL    HW139390  13.410  11.964   5.086
45872SOL    HW239391  13.539  11.928   5.016
45873SOL     OW39392   5.044   2.457   5.374
45873SOL    HW139393   4.967   2.510   5.396
45873SOL    HW239394   5.069   2.417   5.457
45874SOL     OW39395   1.790   1.666   9.552
45874SOL    HW139396   1.808   1.604   9.482
45874SOL    HW239397   1.752   1.612   9.622
45875SOL     OW39398   4.641  10.889   2.775
45875SOL    HW139399   4.624  10.915   2.866
45875SOL    HW239400   4.628  10.794   2.774
45876SOL     OW39401   2.966   3.765  13.610
45876SOL    HW139402   3.029   3.837  13.616
45876SOL    HW239403   2.916   3.772  13.692
45877SOL     OW39404   6.721  10.754   3.672
45877SOL    HW139405   6.777  10.829   3.693
45877SOL    HW239406   6.768  10.678   3.707
45878SOL     OW39407   9.614   3.957   9.208
45878SOL    HW139408   9.533   3.996   9.240
45878SOL    HW239409   9.591   3.866   9.190
45879SOL     OW39410   6.446   8.372   6.650
45879SOL    HW139411   6.357   8.406   6.651
45879SOL    HW239412   6.501   8.447   6.674
45880SOL     OW39413  11.743  12.916   7.207
45880SOL    HW139414  11.837  12.932   7.215
45880SOL    HW239415  11.728  12.834   7.253
45881SOL     OW39416  12.798  14.230   8.624
45881SOL    HW139417  12.857  14.168   8.582
45881SOL    HW239418  12.748  14.178   8.686
45882SOL     OW39419  13.381   0.534   4.418
45882SOL    HW139420  13.371   0.599   4.348
45882SOL    HW239421  13.307   0.474   4.405
45883SOL     OW39422  12.474  14.647  14.750
45883SOL    HW139423  12.475  14.635  14.655
45883SOL    HW239424  12.382  14.639  14.774
45884SOL     OW39425   9.111  13.020   1.391
45884SOL    HW139426   9.045  12.959   1.425
45884SOL    HW239427   9.178  12.963   1.351
45885SOL     OW39428  13.592  10.144   6.012
45885SOL    HW139429  13.596  10.156   5.918
45885SOL    HW239430  13.627  10.225   6.049
45886SOL     OW39431   0.171  13.564   1.758
45886SOL    HW139432   0.176  13.628   1.687
45886SOL    HW239433   0.237  13.593   1.821
45887SOL     OW39434  11.941   2.480   3.905
45887SOL    HW139435  11.976   2.569   3.917
45887SOL    HW239436  11.870   2.491   3.842
45888SOL     OW39437   3.217   7.267   7.186
45888SOL    HW139438   3.208   7.196   7.122
45888SOL    HW239439   3.302   7.252   7.226
45889SOL     OW39440   0.245   1.278   7.231
45889SOL    HW139441   0.167   1.296   7.179
45889SOL    HW239442   0.227   1.314   7.317
45890SOL     OW39443  13.872  11.413  13.181
45890SOL    HW139444  13.804  11.404  13.248
45890SOL    HW239445  13.936  11.345  13.203
45891SOL     OW39446  13.511   8.285   2.234
45891SOL    HW139447  13.598   8.293   2.196
45891SOL    HW239448  13.453   8.271   2.158
45892SOL     OW39449   6.528   6.086  11.119
45892SOL    HW139450   6.588   6.077  11.045
45892SOL    HW239451   6.505   5.996  11.141
45893SOL     OW39452   2.769   3.335  13.748
45893SOL    HW139453   2.777   3.244  13.776
45893SOL    HW239454   2.817   3.385  13.814
45894SOL     OW39455   6.457   1.104   4.691
45894SOL    HW139456   6.365   1.122   4.709
45894SOL    HW239457   6.485   1.049   4.764
45895SOL     OW39458   3.669   0.794   4.793
45895SOL    HW139459   3.651   0.888   4.799
45895SOL    HW239460   3.763   0.787   4.812
45896SOL     OW39461  11.286   9.491   4.696
45896SOL    HW139462  11.213   9.550   4.713
45896SOL    HW239463  11.253   9.432   4.628
45897SOL     OW39464   2.851   0.978   4.938
45897SOL    HW139465   2.787   1.018   4.998
45897SOL    HW239466   2.901   0.918   4.993
45898SOL     OW39467   1.421   2.899  10.917
45898SOL    HW139468   1.417   2.980  10.968
45898SOL    HW239469   1.366   2.916  10.841
45899SOL     OW39470   4.939  12.779  10.796
45899SOL    HW139471   4.897  12.706  10.750
45899SOL    HW239472   5.031  12.774  10.770
45900SOL     OW39473   4.940  13.139   4.023
45900SOL    HW139474   4.850  13.174   4.026
45900SOL    HW239475   4.932  13.051   4.059
45901SOL     OW39476  12.328  11.920   2.441
45901SOL    HW139477  12.295  11.864   2.511
45901SOL    HW239478  12.254  11.976   2.417
45902SOL     OW39479  10.526   4.367   1.559
45902SOL    HW139480  10.547   4.282   1.598
45902SOL    HW239481  10.611   4.410   1.547
45903SOL     OW39482   3.490   6.856   8.240
45903SOL    HW139483   3.408   6.879   8.195
45903SOL    HW239484   3.552   6.842   8.169
45904SOL     OW39485   9.667  12.079  14.404
45904SOL    HW139486   9.635  11.996  14.439
45904SOL    HW239487   9.639  12.080  14.313
45905SOL     OW39488   4.919   1.276   3.631
45905SOL    HW139489   4.981   1.348   3.640
45905SOL    HW239490   4.973   1.198   3.628
45906SOL     OW39491   7.518   6.438   7.778
45906SOL    HW139492   7.463   6.368   7.814
45906SOL    HW239493   7.552   6.483   7.855
45907SOL     OW39494   3.903   8.181   2.983
45907SOL    HW139495   3.897   8.131   2.902
45907SOL    HW239496   3.942   8.121   3.046
45908SOL     OW39497  12.612   5.254   9.645
45908SOL    HW139498  12.526   5.294   9.658
45908SOL    HW239499  12.650   5.305   9.573
45909SOL     OW39500   1.907   2.123   7.760
45909SOL    HW139501   1.985   2.145   7.810
45909SOL    HW239502   1.834   2.155   7.812
45910SOL     OW39503   9.338  14.384   3.104
45910SOL    HW139504   9.392  14.412   3.030
45910SOL    HW239505   9.283  14.314   3.069
45911SOL     OW39506   1.701  11.062   7.499
45911SOL    HW139507   1.716  11.125   7.429
45911SOL    HW239508   1.663  10.986   7.454
45912SOL     OW39509  14.617   8.310   1.637
45912SOL    HW139510  14.578   8.278   1.719
45912SOL    HW239511  14.598   8.404   1.637
45913SOL     OW39512  13.656   1.930   6.515
45913SOL    HW139513  13.598   1.999   6.482
45913SOL    HW239514  13.596   1.866   6.554
45914SOL     OW39515   6.455   9.551   6.273
45914SOL    HW139516   6.507   9.619   6.317
45914SOL    HW239517   6.514   9.517   6.205
45915SOL     OW39518  12.557  11.959   1.208
45915SOL    HW139519  12.570  12.010   1.288
45915SOL    HW239520  12.519  12.021   1.146
45916SOL     OW39521  11.290  12.061   1.823
45916SOL    HW139522  11.210  12.049   1.772
45916SOL    HW239523  11.360  12.039   1.763
45917SOL     OW39524   5.356  12.245   6.815
45917SOL    HW139525   5.308  12.225   6.734
45917SOL    HW239526   5.384  12.160   6.848
45918SOL     OW39527   2.848   0.981  13.788
45918SOL    HW139528   2.799   1.035  13.726
45918SOL    HW239529   2.895   1.044  13.843
45919SOL     OW39530   0.127   7.291  11.140
45919SOL    HW139531   0.119   7.241  11.058
45919SOL    HW239532   0.175   7.370  11.114
45920SOL     OW39533  13.964   3.919   9.423
45920SOL    HW139534  13.874   3.891   9.441
45920SOL    HW239535  13.973   3.909   9.328
45921SOL     OW39536  12.879  10.738  11.558
45921SOL    HW139537  12.870  10.781  11.643
45921SOL    HW239538  12.973  10.733  11.542
45922SOL     OW39539   7.705   7.367   0.584
45922SOL    HW139540   7.762   7.436   0.550
45922SOL    HW239541   7.630   7.366   0.525
45923SOL     OW39542  13.142   5.061   5.365
45923SOL    HW139543  13.056   5.029   5.337
45923SOL    HW239544  13.130   5.086   5.456
45924SOL     OW39545   7.145  10.569   9.767
45924SOL    HW139546   7.219  10.590   9.710
45924SOL    HW239547   7.185  10.554   9.853
45925SOL     OW39548   7.876   7.282  14.519
45925SOL    HW139549   7.865   7.345  14.590
45925SOL    HW239550   7.908   7.334  14.446
45926SOL     OW39551   2.869   6.132  13.225
45926SOL    HW139552   2.893   6.189  13.152
45926SOL    HW239553   2.809   6.185  13.277
45927SOL     OW39554   0.262  10.203  13.511
45927SOL    HW139555   0.181  10.175  13.470
45927SOL    HW239556   0.320  10.224  13.438
45928SOL     OW39557   7.243   8.188   8.733
45928SOL    HW139558   7.239   8.210   8.826
45928SOL    HW239559   7.242   8.272   8.688
45929SOL     OW39560   3.582   6.726   7.425
45929SOL    HW139561   3.549   6.777   7.352
45929SOL    HW239562   3.528   6.646   7.424
45930SOL     OW39563  13.645   9.937  11.801
45930SOL    HW139564  13.734   9.926  11.768
45930SOL    HW239565  13.652  10.004  11.869
45931SOL     OW39566   0.954   6.896   6.762
45931SOL    HW139567   0.910   6.811   6.771
45931SOL    HW239568   0.913   6.951   6.829
45932SOL     OW39569  10.803   3.760   4.963
45932SOL    HW139570  10.747   3.837   4.964
45932SOL    HW239571  10.884   3.789   5.006
45933SOL     OW39572   0.685   0.606   9.420
45933SOL    HW139573   0.659   0.556   9.498
45933SOL    HW239574   0.771   0.573   9.398
45934SOL     OW39575   1.854   7.205   1.063
45934SOL    HW139576   1.803   7.171   0.990
45934SOL    HW239577   1.893   7.286   1.030
45935SOL     OW39578  14.518  14.144  13.295
45935SOL    HW139579  14.490  14.187  13.215
45935SOL    HW239580  14.449  14.163  13.359
45936SOL     OW39581   8.706   2.219   5.681
45936SOL    HW139582   8.654   2.216   5.600
45936SOL    HW239583   8.797   2.221   5.651
45937SOL     OW39584   1.610   5.323   5.353
45937SOL    HW139585   1.634   5.385   5.284
45937SOL    HW239586   1.547   5.264   5.311
45938SOL     OW39587   4.345   0.576   8.864
45938SOL    HW139588   4.341   0.550   8.956
45938SOL    HW239589   4.386   0.663   8.865
45939SOL     OW39590  12.202   6.437  13.908
45939SOL    HW139591  12.174   6.511  13.963
45939SOL    HW239592  12.144   6.441  13.832
45940SOL     OW39593   3.923  12.636   4.447
45940SOL    HW139594   3.940  12.667   4.358
45940SOL    HW239595   3.827  12.640   4.456
45941SOL     OW39596  11.910   5.503   1.239
45941SOL    HW139597  11.996   5.462   1.234
45941SOL    HW239598  11.872   5.469   1.320
45942SOL     OW39599   1.651   8.412  10.993
45942SOL    HW139600   1.559   8.396  10.972
45942SOL    HW239601   1.699   8.345  10.945
45943SOL     OW39602  13.358   4.624   7.646
45943SOL    HW139603  13.370   4.532   7.625
45943SOL    HW239604  13.431   4.668   7.603
45944SOL     OW39605  10.591  10.668   5.091
45944SOL    HW139606  10.671  10.706   5.129
45944SOL    HW239607  10.622  10.620   5.014
45945SOL     OW39608   1.985  13.747  14.088
45945SOL    HW139609   2.079  13.766  14.097
45945SOL    HW239610   1.979  13.652  14.095
45946SOL     OW39611   2.215   6.237   7.111
45946SOL    HW139612   2.174   6.179   7.175
45946SOL    HW239613   2.187   6.325   7.137
45947SOL     OW39614  13.586   9.723  11.467
45947SOL    HW139615  13.635   9.679  11.536
45947SOL    HW239616  13.643   9.794  11.438
45948SOL     OW39617  12.089   4.942   5.627
45948SOL    HW139618  12.020   4.882   5.600
45948SOL    HW239619  12.169   4.907   5.587
45949SOL     OW39620   7.160   4.726  14.829
45949SOL    HW139621   7.163   4.659   0.020
45949SOL    HW239622   7.084   4.702  14.776
45950SOL     OW39623   2.936  14.262  13.642
45950SOL    HW139624   2.940  14.342  13.589
45950SOL    HW239625   2.867  14.279  13.706
45951SOL     OW39626   5.368  13.840   2.835
45951SOL    HW139627   5.276  13.828   2.860
45951SOL    HW239628   5.392  13.758   2.792
45952SOL     OW39629   2.314   7.947  10.099
45952SOL    HW139630   2.255   7.909  10.033
45952SOL    HW239631   2.310   8.041  10.084
45953SOL     OW39632   9.539   0.354   0.566
45953SOL    HW139633   9.469   0.414   0.539
45953SOL    HW239634   9.547   0.293   0.492
45954SOL     OW39635  10.271   4.782  10.592
45954SOL    HW139636  10.300   4.721  10.524
45954SOL    HW239637  10.178   4.797  10.574
45955SOL     OW39638  11.506   3.896   3.793
45955SOL    HW139639  11.528   3.972   3.847
45955SOL    HW239640  11.549   3.913   3.709
45956SOL     OW39641  14.041   8.824  13.536
45956SOL    HW139642  14.129   8.784  13.535
45956SOL    HW239643  14.057   8.915  13.561
45957SOL     OW39644   9.710   8.648   4.024
45957SOL    HW139645   9.774   8.715   4.001
45957SOL    HW239646   9.761   8.581   4.071
45958SOL     OW39647  11.204  14.577   8.790
45958SOL    HW139648  11.190  14.608   8.701
45958SOL    HW239649  11.127  14.608   8.839
45959SOL     OW39650   3.376   1.972   3.713
45959SOL    HW139651   3.343   1.990   3.801
45959SOL    HW239652   3.439   1.900   3.725
45960SOL     OW39653   1.003   9.070   6.241
45960SOL    HW139654   1.051   8.988   6.253
45960SOL    HW239655   1.003   9.085   6.147
45961SOL     OW39656   5.472  13.275   7.229
45961SOL    HW139657   5.507  13.227   7.304
45961SOL    HW239658   5.460  13.208   7.161
45962SOL     OW39659  11.103   2.172   0.082
45962SOL    HW139660  11.064   2.103   0.029
45962SOL    HW239661  11.129   2.129   0.164
45963SOL     OW39662   4.659   3.369   4.294
45963SOL    HW139663   4.711   3.290   4.280
45963SOL    HW239664   4.705   3.437   4.245
45964SOL     OW39665   2.398  10.049   0.974
45964SOL    HW139666   2.460  10.116   1.004
45964SOL    HW239667   2.326  10.053   1.037
45965SOL     OW39668   1.779   6.212   3.260
45965SOL    HW139669   1.820   6.289   3.220
45965SOL    HW239670   1.763   6.153   3.187
45966SOL     OW39671   2.374   4.292   9.554
45966SOL    HW139672   2.439   4.237   9.511
45966SOL    HW239673   2.322   4.231   9.606
45967SOL     OW39674  11.297   4.830  12.616
45967SOL    HW139675  11.204   4.829  12.638
45967SOL    HW239676  11.301   4.805  12.523
45968SOL     OW39677   0.334   1.766   8.304
45968SOL    HW139678   0.326   1.853   8.343
45968SOL    HW239679   0.393   1.718   8.363
45969SOL     OW39680   9.398   3.606  12.776
45969SOL    HW139681   9.331   3.588  12.711
45969SOL    HW239682   9.478   3.565  12.740
45970SOL     OW39683   2.302   5.158   7.458
45970SOL    HW139684   2.374   5.168   7.396
45970SOL    HW239685   2.335   5.095   7.523
45971SOL     OW39686   9.644  12.424  10.146
45971SOL    HW139687   9.594  12.454  10.222
45971SOL    HW239688   9.641  12.328  10.152
45972SOL     OW39689  14.379   2.138  12.165
45972SOL    HW139690  14.394   2.070  12.099
45972SOL    HW239691  14.339   2.210  12.115
45973SOL     OW39692   8.901   4.493   2.505
45973SOL    HW139693   8.814   4.504   2.542
45973SOL    HW239694   8.949   4.570   2.533
45974SOL     OW39695   3.688   3.236   1.989
45974SOL    HW139696   3.681   3.172   2.060
45974SOL    HW239697   3.718   3.316   2.032
45975SOL     OW39698  11.696   5.062  10.772
45975SOL    HW139699  11.658   5.093  10.854
45975SOL    HW239700  11.745   4.983  10.797
45976SOL     OW39701   3.560   6.084   2.493
45976SOL    HW139702   3.655   6.080   2.509
45976SOL    HW239703   3.523   6.018   2.551
45977SOL     OW39704   3.079   3.462   8.286
45977SOL    HW139705   3.021   3.388   8.265
45977SOL    HW239706   3.020   3.536   8.299
45978SOL     OW39707  12.630  10.664   1.380
45978SOL    HW139708  12.576  10.597   1.338
45978SOL    HW239709  12.605  10.746   1.337
45979SOL     OW39710   3.058   6.559  13.488
45979SOL    HW139711   3.146   6.557  13.525
45979SOL    HW239712   3.061   6.630  13.423
45980SOL     OW39713   3.691   0.050  13.976
45980SOL    HW139714   3.645   0.008  14.048
45980SOL    HW239715   3.769  14.875  13.963
45981SOL     OW39716   9.965   8.070   7.887
45981SOL    HW139717   9.994   8.148   7.840
45981SOL    HW239718   9.891   8.037   7.836
45982SOL     OW39719  12.620  13.840   8.942
45982SOL    HW139720  12.639  13.918   8.994
45982SOL    HW239721  12.571  13.783   9.002
45983SOL     OW39722  11.981   1.771  13.006
45983SOL    HW139723  11.909   1.831  13.023
45983SOL    HW239724  12.047   1.825  12.962
45984SOL     OW39725  14.035  13.582   0.408
45984SOL    HW139726  14.015  13.668   0.371
45984SOL    HW239727  14.005  13.588   0.499
45985SOL     OW39728  11.127   8.307  12.954
45985SOL    HW139729  11.120   8.315  13.049
45985SOL    HW239730  11.099   8.217  12.935
45986SOL     OW39731  14.180   1.770   1.365
45986SOL    HW139732  14.184   1.856   1.407
45986SOL    HW239733  14.143   1.788   1.279
45987SOL     OW39734   4.336   1.945   9.112
45987SOL    HW139735   4.290   2.016   9.158
45987SOL    HW239736   4.400   1.913   9.176
45988SOL     OW39737   6.404   6.055   4.587
45988SOL    HW139738   6.316   6.065   4.553
45988SOL    HW239739   6.461   6.092   4.519
45989SOL     OW39740   9.347   0.833  12.871
45989SOL    HW139741   9.405   0.826  12.946
45989SOL    HW239742   9.394   0.791  12.799
45990SOL     OW39743   2.223   0.398   3.480
45990SOL    HW139744   2.211   0.426   3.389
45990SOL    HW239745   2.317   0.407   3.495
45991SOL     OW39746   4.183   9.397  10.363
45991SOL    HW139747   4.093   9.407  10.393
45991SOL    HW239748   4.228   9.474  10.399
45992SOL     OW39749   5.123   9.684   8.291
45992SOL    HW139750   5.111   9.727   8.376
45992SOL    HW239751   5.145   9.756   8.231
45993SOL     OW39752   1.642  11.785   3.072
45993SOL    HW139753   1.702  11.855   3.097
45993SOL    HW239754   1.555  11.822   3.087
45994SOL     OW39755   6.437   0.063  14.169
45994SOL    HW139756   6.506  14.877  14.151
45994SOL    HW239757   6.473   0.146  14.137
45995SOL     OW39758   7.053   1.497   9.012
45995SOL    HW139759   7.073   1.522   8.922
45995SOL    HW239760   7.138   1.481   9.053
45996SOL     OW39761   2.884  11.336   1.282
45996SOL    HW139762   2.898  11.430   1.298
45996SOL    HW239763   2.952  11.292   1.332
45997SOL     OW39764   1.766   3.268   9.704
45997SOL    HW139765   1.817   3.292   9.782
45997SOL    HW239766   1.755   3.173   9.711
45998SOL     OW39767   8.713  11.659   5.361
45998SOL    HW139768   8.676  11.684   5.276
45998SOL    HW239769   8.805  11.686   5.355
45999SOL     OW39770  14.097   3.305   6.406
45999SOL    HW139771  14.151   3.360   6.463
45999SOL    HW239772  14.159   3.250   6.360
46000SOL     OW39773  12.544   2.575   8.522
46000SOL    HW139774  12.632   2.537   8.515
46000SOL    HW239775  12.496   2.513   8.577
46001SOL     OW39776   6.434   5.227   8.640
46001SOL    HW139777   6.426   5.152   8.581
46001SOL    HW239778   6.506   5.278   8.605
46002SOL     OW39779   1.496   8.020   3.755
46002SOL    HW139780   1.473   7.929   3.776
46002SOL    HW239781   1.541   8.052   3.834
46003SOL     OW39782  13.295  13.709  13.371
46003SOL    HW139783  13.278  13.735  13.462
46003SOL    HW239784  13.274  13.787  13.320
46004SOL     OW39785   9.600   1.892  11.442
46004SOL    HW139786   9.616   1.810  11.396
46004SOL    HW239787   9.585   1.956  11.372
46005SOL     OW39788   4.852   6.077   6.236
46005SOL    HW139789   4.872   6.166   6.208
46005SOL    HW239790   4.845   6.084   6.332
46006SOL     OW39791  13.223  10.687  13.708
46006SOL    HW139792  13.276  10.697  13.787
46006SOL    HW239793  13.205  10.593  13.703
46007SOL     OW39794   6.687   5.473   5.760
46007SOL    HW139795   6.745   5.534   5.716
46007SOL    HW239796   6.685   5.396   5.703
46008SOL     OW39797   4.988  10.522   2.425
46008SOL    HW139798   5.009  10.602   2.376
46008SOL    HW239799   4.964  10.459   2.358
46009SOL     OW39800   0.503   9.105   6.984
46009SOL    HW139801   0.517   9.062   6.900
46009SOL    HW239802   0.494   9.198   6.962
46010SOL     OW39803  12.333  14.673   8.979
46010SOL    HW139804  12.282  14.689   9.059
46010SOL    HW239805  12.317  14.750   8.925
46011SOL     OW39806  13.310   7.386   9.830
46011SOL    HW139807  13.323   7.418   9.919
46011SOL    HW239808  13.215   7.375   9.822
46012SOL     OW39809  10.483   3.714   7.961
46012SOL    HW139810  10.419   3.696   7.893
46012SOL    HW239811  10.547   3.643   7.953
46013SOL     OW39812  11.698   3.798  12.816
46013SOL    HW139813  11.696   3.836  12.729
46013SOL    HW239814  11.791   3.794  12.839
46014SOL     OW39815   7.129  12.285   8.136
46014SOL    HW139816   7.036  12.270   8.154
46014SOL    HW239817   7.129  12.355   8.071
46015SOL     OW39818   1.196   6.600  12.500
46015SOL    HW139819   1.214   6.546  12.423
46015SOL    HW239820   1.162   6.538  12.565
46016SOL     OW39821  13.783   0.110   4.252
46016SOL    HW139822  13.825   0.024   4.247
46016SOL    HW239823  13.791   0.135   4.344
46017SOL     OW39824  14.093  11.367   9.658
46017SOL    HW139825  14.041  11.364   9.578
46017SOL    HW239826  14.170  11.314   9.639
46018SOL     OW39827   5.191   2.260   5.214
46018SOL    HW139828   5.161   2.322   5.280
46018SOL    HW239829   5.177   2.174   5.253
46019SOL     OW39830   9.418  14.280  14.876
46019SOL    HW139831   9.511  14.297  14.865
46019SOL    HW239832   9.414  14.208   0.063
46020SOL     OW39833   6.687   9.811   5.324
46020SOL    HW139834   6.677   9.716   5.316
46020SOL    HW239835   6.683   9.828   5.418
46021SOL     OW39836  13.717   0.274   8.624
46021SOL    HW139837  13.800   0.226   8.614
46021SOL    HW239838  13.743   0.359   8.658
46022SOL     OW39839   4.263   6.571   2.778
46022SOL    HW139840   4.334   6.557   2.840
46022SOL    HW239841   4.285   6.515   2.703
46023SOL     OW39842  10.186   6.105   7.057
46023SOL    HW139843  10.259   6.054   7.024
46023SOL    HW239844  10.135   6.043   7.110
46024SOL     OW39845   7.039   4.375  10.485
46024SOL    HW139846   7.040   4.358  10.579
46024SOL    HW239847   7.056   4.289  10.445
46025SOL     OW39848   4.551  12.720  13.441
46025SOL    HW139849   4.552  12.626  13.458
46025SOL    HW239850   4.595  12.759  13.518
46026SOL     OW39851  13.414   9.046   0.756
46026SOL    HW139852  13.391   9.137   0.774
46026SOL    HW239853  13.479   9.051   0.687
46027SOL     OW39854  12.077  12.617  14.434
46027SOL    HW139855  12.166  12.626  14.400
46027SOL    HW239856  12.025  12.678  14.383
46028SOL     OW39857   1.813   8.574  12.328
46028SOL    HW139858   1.769   8.509  12.273
46028SOL    HW239859   1.742   8.631  12.359
46029SOL     OW39860   7.437  14.076   6.841
46029SOL    HW139861   7.501  14.062   6.911
46029SOL    HW239862   7.355  14.093   6.888
46030SOL     OW39863  11.715  11.273  11.977
46030SOL    HW139864  11.659  11.204  12.012
46030SOL    HW239865  11.794  11.269  12.030
46031SOL     OW39866  12.727   2.858   7.235
46031SOL    HW139867  12.692   2.776   7.271
46031SOL    HW239868  12.764   2.832   7.150
46032SOL     OW39869   8.977   6.335   6.838
46032SOL    HW139870   9.043   6.404   6.831
46032SOL    HW239871   9.027   6.254   6.825
46033SOL     OW39872  12.449   3.456   9.882
46033SOL    HW139873  12.369   3.405   9.893
46033SOL    HW239874  12.430   3.515   9.808
46034SOL     OW39875   4.590  10.977   5.286
46034SOL    HW139876   4.501  11.006   5.266
46034SOL    HW239877   4.605  10.904   5.226
46035SOL     OW39878   1.842   7.061  13.506
46035SOL    HW139879   1.926   7.016  13.497
46035SOL    HW239880   1.805   7.027  13.587
46036SOL     OW39881  11.386   0.297   7.801
46036SOL    HW139882  11.403   0.322   7.892
46036SOL    HW239883  11.375   0.379   7.755
46037SOL     OW39884   5.588   5.685   2.775
46037SOL    HW139885   5.654   5.722   2.834
46037SOL    HW239886   5.593   5.590   2.790
46038SOL     OW39887   5.787  14.298   2.523
46038SOL    HW139888   5.729  14.374   2.520
46038SOL    HW239889   5.849  14.319   2.593
46039SOL     OW39890  13.429  14.612  14.571
46039SOL    HW139891  13.362  14.601  14.638
46039SOL    HW239892  13.464  14.699  14.585
46040SOL     OW39893   1.538   4.744   0.409
46040SOL    HW139894   1.612   4.749   0.469
46040SOL    HW239895   1.548   4.821   0.352
46041SOL     OW39896   3.325   8.855  14.775
46041SOL    HW139897   3.416   8.885  14.776
46041SOL    HW239898   3.273   8.936  14.772
46042SOL     OW39899   6.167   9.019   9.729
46042SOL    HW139900   6.111   9.090   9.761
46042SOL    HW239901   6.116   8.939   9.745
46043SOL     OW39902  10.231   3.547  11.173
46043SOL    HW139903  10.237   3.519  11.264
46043SOL    HW239904  10.164   3.616  11.173
46044SOL     OW39905   4.311   8.002   6.009
46044SOL    HW139906   4.354   8.066   6.066
46044SOL    HW239907   4.236   7.971   6.060
46045SOL     OW39908   5.948   9.439  14.767
46045SOL    HW139909   6.024   9.401  14.811
46045SOL    HW239910   5.971   9.531  14.754
46046SOL     OW39911   3.021   7.673  12.996
46046SOL    HW139912   3.003   7.592  12.948
46046SOL    HW239913   3.117   7.675  13.005
46047SOL     OW39914  12.242   9.794  11.701
46047SOL    HW139915  12.247   9.841  11.617
46047SOL    HW239916  12.332   9.792  11.733
46048SOL     OW39917   5.326  10.425  13.857
46048SOL    HW139918   5.351  10.505  13.811
46048SOL    HW239919   5.269  10.378  13.796
46049SOL     OW39920   7.900   0.730   7.586
46049SOL    HW139921   7.880   0.820   7.560
46049SOL    HW239922   7.815   0.692   7.608
46050SOL     OW39923  11.420   4.724   5.701
46050SOL    HW139924  11.360   4.653   5.722
46050SOL    HW239925  11.365   4.802   5.695
46051SOL     OW39926  11.979   8.343   0.477
46051SOL    HW139927  12.000   8.255   0.446
46051SOL    HW239928  11.886   8.354   0.458
46052SOL     OW39929   1.907   5.243   9.771
46052SOL    HW139930   1.880   5.308   9.836
46052SOL    HW239931   1.874   5.160   9.805
46053SOL     OW39932  10.415  12.373   8.328
46053SOL    HW139933  10.399  12.281   8.350
46053SOL    HW239934  10.334  12.418   8.354
46054SOL     OW39935  14.380  11.515   1.728
46054SOL    HW139936  14.358  11.519   1.821
46054SOL    HW239937  14.377  11.422   1.706
46055SOL     OW39938   2.159   8.496   1.690
46055SOL    HW139939   2.100   8.571   1.682
46055SOL    HW239940   2.108   8.429   1.735
46056SOL     OW39941   2.054   4.532   0.619
46056SOL    HW139942   2.141   4.493   0.623
46056SOL    HW239943   1.997   4.461   0.591
46057SOL     OW39944   1.237   4.663  14.854
46057SOL    HW139945   1.294   4.714  14.797
46057SOL    HW239946   1.269   4.573  14.847
46058SOL     OW39947  11.106   5.777   0.832
46058SOL    HW139948  11.060   5.708   0.881
46058SOL    HW239949  11.178   5.732   0.789
46059SOL     OW39950  14.642   8.511   8.645
46059SOL    HW139951  14.657   8.429   8.597
46059SOL    HW239952  14.658   8.580   8.580
46060SOL     OW39953   4.166   2.086   6.348
46060SOL    HW139954   4.233   2.054   6.409
46060SOL    HW239955   4.135   2.008   6.302
46061SOL     OW39956   9.450  12.558   7.646
46061SOL    HW139957   9.400  12.522   7.719
46061SOL    HW239958   9.534  12.583   7.684
46062SOL     OW39959   0.070   0.024   1.244
46062SOL    HW139960   0.113   0.109   1.229
46062SOL    HW239961   0.118  14.841   1.187
46063SOL     OW39962   9.791   3.290   2.518
46063SOL    HW139963   9.838   3.244   2.588
46063SOL    HW239964   9.774   3.377   2.555
46064SOL     OW39965   2.458   0.075   3.270
46064SOL    HW139966   2.479   0.009   3.336
46064SOL    HW239967   2.542   0.110   3.243
46065SOL     OW39968  10.013   7.919   4.071
46065SOL    HW139969  10.028   7.914   4.166
46065SOL    HW239970   9.968   7.837   4.050
46066SOL     OW39971  14.854  13.607   3.850
46066SOL    HW139972  14.869  13.554   3.928
46066SOL    HW239973   0.006  13.552   3.778
46067SOL     OW39974  12.458   7.366   9.103
46067SOL    HW139975  12.445   7.376   9.197
46067SOL    HW239976  12.383   7.312   9.074
46068SOL     OW39977  14.152   9.566  10.331
46068SOL    HW139978  14.078   9.619  10.360
46068SOL    HW239979  14.153   9.577  10.236
46069SOL     OW39980   9.421   5.521   2.128
46069SOL    HW139981   9.449   5.568   2.206
46069SOL    HW239982   9.325   5.529   2.128
46070SOL     OW39983  14.671   7.966   3.167
46070SOL    HW139984  14.713   8.032   3.111
46070SOL    HW239985  14.724   7.888   3.156
46071SOL     OW39986   5.672   2.022   9.766
46071SOL    HW139987   5.652   2.039   9.858
46071SOL    HW239988   5.710   1.935   9.765
46072SOL     OW39989   7.564   9.218   0.022
46072SOL    HW139990   7.607   9.258  14.824
46072SOL    HW239991   7.476   9.255   0.021
46073SOL     OW39992   4.814   5.296   0.473
46073SOL    HW139993   4.756   5.308   0.548
46073SOL    HW239994   4.895   5.342   0.497
46074SOL     OW39995   1.312  11.443   4.654
46074SOL    HW139996   1.353  11.520   4.614
46074SOL    HW239997   1.270  11.477   4.733
46075SOL     OW39998   9.268   9.154   2.434
46075SOL    HW139999   9.252   9.068   2.395
46075SOL    HW240000   9.303   9.207   2.362
46076SOL     OW40001   7.472  13.083   8.167
46076SOL    HW140002   7.512  13.070   8.081
46076SOL    HW240003   7.378  13.077   8.151
46077SOL     OW40004  14.276   7.547   8.126
46077SOL    HW140005  14.250   7.459   8.151
46077SOL    HW240006  14.359   7.562   8.171
46078SOL     OW40007   7.841   9.695   6.734
46078SOL    HW140008   7.921   9.674   6.784
46078SOL    HW240009   7.845   9.790   6.721
46079SOL     OW40010   4.464  12.729   7.977
46079SOL    HW140011   4.535  12.788   8.004
46079SOL    HW240012   4.470  12.655   8.038
46080SOL     OW40013   0.863  14.067   7.361
46080SOL    HW140014   0.779  14.023   7.353
46080SOL    HW240015   0.918  14.005   7.409
46081SOL     OW40016   6.602   9.198  10.463
46081SOL    HW140017   6.518   9.194  10.509
46081SOL    HW240018   6.588   9.144  10.384
46082SOL     OW40019   2.839   6.799  10.227
46082SOL    HW140020   2.925   6.834  10.205
46082SOL    HW240021   2.804   6.860  10.292
46083SOL     OW40022   2.334   2.972   2.256
46083SOL    HW140023   2.327   3.008   2.168
46083SOL    HW240024   2.427   2.952   2.266
46084SOL     OW40025   9.757  13.555   4.045
46084SOL    HW140026   9.711  13.609   4.109
46084SOL    HW240027   9.842  13.536   4.086
46085SOL     OW40028   1.528  10.055   1.929
46085SOL    HW140029   1.476  10.112   1.985
46085SOL    HW240030   1.588  10.114   1.883
46086SOL     OW40031   2.447  13.339  10.114
46086SOL    HW140032   2.539  13.338  10.138
46086SOL    HW240033   2.403  13.292  10.185
46087SOL     OW40034   5.384   0.276  12.682
46087SOL    HW140035   5.314   0.236  12.734
46087SOL    HW240036   5.338   0.321  12.611
46088SOL     OW40037   7.956  10.659  14.293
46088SOL    HW140038   7.953  10.686  14.201
46088SOL    HW240039   8.045  10.626  14.304
46089SOL     OW40040   6.599   2.091  13.048
46089SOL    HW140041   6.596   1.997  13.063
46089SOL    HW240042   6.525   2.108  12.990
46090SOL     OW40043   1.281   2.213   0.704
46090SOL    HW140044   1.365   2.193   0.744
46090SOL    HW240045   1.268   2.145   0.638
46091SOL     OW40046   5.669   9.848  12.940
46091SOL    HW140047   5.620   9.868  13.020
46091SOL    HW240048   5.606   9.860  12.869
46092SOL     OW40049   4.163   0.886   8.308
46092SOL    HW140050   4.181   0.893   8.215
46092SOL    HW240051   4.232   0.829   8.342
46093SOL     OW40052   6.658  12.683   1.923
46093SOL    HW140053   6.574  12.718   1.955
46093SOL    HW240054   6.698  12.643   2.000
46094SOL     OW40055  10.424   9.165  10.403
46094SOL    HW140056  10.445   9.077  10.371
46094SOL    HW240057  10.495   9.185  10.465
46095SOL     OW40058   9.217   5.525   8.441
46095SOL    HW140059   9.270   5.446   8.432
46095SOL    HW240060   9.275   5.597   8.415
46096SOL     OW40061   1.214   5.881   1.619
46096SOL    HW140062   1.275   5.915   1.553
46096SOL    HW240063   1.248   5.916   1.702
46097SOL     OW40064   2.140   8.219   9.496
46097SOL    HW140065   2.093   8.183   9.422
46097SOL    HW240066   2.231   8.226   9.466
46098SOL     OW40067   9.999   5.639   3.275
46098SOL    HW140068  10.056   5.645   3.353
46098SOL    HW240069   9.915   5.672   3.305
46099SOL     OW40070   6.257  12.417   9.270
46099SOL    HW140071   6.256  12.432   9.175
46099SOL    HW240072   6.231  12.501   9.308
46100SOL     OW40073  14.586   8.609  10.917
46100SOL    HW140074  14.637   8.654  10.984
46100SOL    HW240075  14.573   8.675  10.849
46101SOL     OW40076  10.828   4.425   4.271
46101SOL    HW140077  10.783   4.395   4.193
46101SOL    HW240078  10.896   4.360   4.287
46102SOL     OW40079   9.185  11.104   5.439
46102SOL    HW140080   9.194  11.189   5.482
46102SOL    HW240081   9.203  11.121   5.347
46103SOL     OW40082   0.618   6.785   3.807
46103SOL    HW140083   0.551   6.734   3.761
46103SOL    HW240084   0.696   6.730   3.806
46104SOL     OW40085   1.581   2.384   5.421
46104SOL    HW140086   1.594   2.369   5.327
46104SOL    HW240087   1.534   2.306   5.451
46105SOL     OW40088   4.404  11.951  14.415
46105SOL    HW140089   4.466  12.010  14.373
46105SOL    HW240090   4.357  12.005  14.478
46106SOL     OW40091   0.142   7.457   5.396
46106SOL    HW140092   0.209   7.517   5.364
46106SOL    HW240093   0.192   7.388   5.441
46107SOL     OW40094  10.852   0.806   3.885
46107SOL    HW140095  10.933   0.820   3.836
46107SOL    HW240096  10.810   0.732   3.841
46108SOL     OW40097   2.734  12.496  11.280
46108SOL    HW140098   2.644  12.526  11.272
46108SOL    HW240099   2.777  12.529  11.202
46109SOL     OW40100   2.909   8.136  13.108
46109SOL    HW140101   2.901   8.231  13.117
46109SOL    HW240102   2.858   8.101  13.181
46110SOL     OW40103   0.947  14.141   2.212
46110SOL    HW140104   0.964  14.223   2.258
46110SOL    HW240105   0.858  14.116   2.238
46111SOL     OW40106   8.305   3.029   3.741
46111SOL    HW140107   8.400   3.033   3.747
46111SOL    HW240108   8.275   3.102   3.795
46112SOL     OW40109   3.281   2.692  14.482
46112SOL    HW140110   3.232   2.609  14.484
46112SOL    HW240111   3.218   2.758  14.512
46113SOL     OW40112   7.140   9.641  14.649
46113SOL    HW140113   7.088   9.562  14.669
46113SOL    HW240114   7.076   9.712  14.649
46114SOL     OW40115   0.750   9.181   9.217
46114SOL    HW140116   0.679   9.204   9.277
46114SOL    HW240117   0.801   9.115   9.265
46115SOL     OW40118  10.458   6.638   2.054
46115SOL    HW140119  10.511   6.674   2.125
46115SOL    HW240120  10.383   6.598   2.098
46116SOL     OW40121  13.805   7.084   2.902
46116SOL    HW140122  13.716   7.103   2.872
46116SOL    HW240123  13.797   7.004   2.953
46117SOL     OW40124  13.895   7.567   7.329
46117SOL    HW140125  13.855   7.485   7.299
46117SOL    HW240126  13.958   7.540   7.395
46118SOL     OW40127   2.186   2.186   2.679
46118SOL    HW140128   2.196   2.091   2.684
46118SOL    HW240129   2.097   2.199   2.648
46119SOL     OW40130   0.389   5.849  11.143
46119SOL    HW140131   0.389   5.937  11.103
46119SOL    HW240132   0.457   5.854  11.211
46120SOL     OW40133   7.503   8.219  10.715
46120SOL    HW140134   7.509   8.314  10.726
46120SOL    HW240135   7.446   8.191  10.787
46121SOL     OW40136  10.859   1.200  13.764
46121SOL    HW140137  10.903   1.172  13.684
46121SOL    HW240138  10.851   1.121  13.817
46122SOL     OW40139   3.642   0.757  13.133
46122SOL    HW140140   3.689   0.758  13.050
46122SOL    HW240141   3.590   0.837  13.132
46123SOL     OW40142   5.326   7.489   2.695
46123SOL    HW140143   5.255   7.463   2.752
46123SOL    HW240144   5.288   7.556   2.637
46124SOL     OW40145  14.371   1.608   1.018
46124SOL    HW140146  14.398   1.645   0.934
46124SOL    HW240147  14.427   1.650   1.083
46125SOL     OW40148   0.211   7.296   7.010
46125SOL    HW140149   0.218   7.386   7.042
46125SOL    HW240150   0.301   7.272   6.988
46126SOL     OW40151   5.048   0.944   1.121
46126SOL    HW140152   5.046   0.900   1.206
46126SOL    HW240153   4.971   0.911   1.075
46127SOL     OW40154   1.782   2.570   1.754
46127SOL    HW140155   1.820   2.502   1.809
46127SOL    HW240156   1.816   2.554   1.667
46128SOL     OW40157   7.087  14.858  10.710
46128SOL    HW140158   7.104   0.074  10.696
46128SOL    HW240159   7.000  14.844  10.673
46129SOL     OW40160   3.954   1.398   0.464
46129SOL    HW140161   4.001   1.409   0.546
46129SOL    HW240162   4.021   1.369   0.402
46130SOL     OW40163   9.845   2.971   8.629
46130SOL    HW140164   9.813   2.893   8.673
46130SOL    HW240165   9.812   3.044   8.682
46131SOL     OW40166   7.360  14.700   4.349
46131SOL    HW140167   7.304  14.748   4.288
46131SOL    HW240168   7.322  14.719   4.435
46132SOL     OW40169   8.174   3.457  12.066
46132SOL    HW140170   8.212   3.457  11.979
46132SOL    HW240171   8.242   3.422  12.123
46133SOL     OW40172   1.542   8.540   2.907
46133SOL    HW140173   1.467   8.489   2.938
46133SOL    HW240174   1.586   8.483   2.844
46134SOL     OW40175   9.459  12.661  11.613
46134SOL    HW140176   9.432  12.588  11.669
46134SOL    HW240177   9.483  12.619  11.530
46135SOL     OW40178  13.650  13.790   9.713
46135SOL    HW140179  13.614  13.734   9.781
46135SOL    HW240180  13.663  13.733   9.637
46136SOL     OW40181   2.533   3.188  13.004
46136SOL    HW140182   2.470   3.128  12.964
46136SOL    HW240183   2.568   3.140  13.079
46137SOL     OW40184   4.761   6.209   7.283
46137SOL    HW140185   4.687   6.255   7.323
46137SOL    HW240186   4.744   6.116   7.300
46138SOL     OW40187   6.092   7.166  10.008
46138SOL    HW140188   6.073   7.228  10.079
46138SOL    HW240189   6.069   7.212   9.928
46139SOL     OW40190  14.055   5.862   1.384
46139SOL    HW140191  14.058   5.771   1.354
46139SOL    HW240192  14.090   5.860   1.473
46140SOL     OW40193   1.750  12.558   6.191
46140SOL    HW140194   1.705  12.641   6.181
46140SOL    HW240195   1.828  12.567   6.136
46141SOL     OW40196   2.180   4.231   7.424
46141SOL    HW140197   2.206   4.206   7.335
46141SOL    HW240198   2.235   4.176   7.480
46142SOL     OW40199   3.366  13.700  11.511
46142SOL    HW140200   3.336  13.789  11.530
46142SOL    HW240201   3.404  13.669  11.594
46143SOL     OW40202   8.140   3.354  12.815
46143SOL    HW140203   8.207   3.310  12.763
46143SOL    HW240204   8.071   3.377  12.752
46144SOL     OW40205  13.903  12.311  13.331
46144SOL    HW140206  13.952  12.261  13.266
46144SOL    HW240207  13.828  12.256  13.353
46145SOL     OW40208   5.671  14.586   2.332
46145SOL    HW140209   5.628  14.664   2.366
46145SOL    HW240210   5.712  14.614   2.249
46146SOL     OW40211   2.257   6.732   1.970
46146SOL    HW140212   2.250   6.641   1.942
46146SOL    HW240213   2.222   6.732   2.060
46147SOL     OW40214  12.027  10.521   1.744
46147SOL    HW140215  11.946  10.550   1.703
46147SOL    HW240216  12.033  10.428   1.724
46148SOL     OW40217  13.366  13.172   6.136
46148SOL    HW140218  13.287  13.135   6.177
46148SOL    HW240219  13.352  13.267   6.139
46149SOL     OW40220   4.583  13.173   6.159
46149SOL    HW140221   4.675  13.172   6.135
46149SOL    HW240222   4.569  13.260   6.197
46150SOL     OW40223   5.710   9.120   8.461
46150SOL    HW140224   5.631   9.123   8.515
46150SOL    HW240225   5.678   9.128   8.371
46151SOL     OW40226   2.850  14.019   6.768
46151SOL    HW140227   2.936  14.002   6.807
46151SOL    HW240228   2.831  13.942   6.715
46152SOL     OW40229   8.552  14.791   9.963
46152SOL    HW140230   8.631  14.829   9.924
46152SOL    HW240231   8.582  14.752  10.045
46153SOL     OW40232   7.196   5.728  13.698
46153SOL    HW140233   7.103   5.744  13.685
46153SOL    HW240234   7.201   5.635  13.721
46154SOL     OW40235  12.182  14.383   9.761
46154SOL    HW140236  12.250  14.334   9.717
46154SOL    HW240237  12.101  14.361   9.715
46155SOL     OW40238   6.224  13.997   7.359
46155SOL    HW140239   6.287  13.930   7.383
46155SOL    HW240240   6.200  14.038   7.442
46156SOL     OW40241   7.837  10.721   5.260
46156SOL    HW140242   7.805  10.790   5.203
46156SOL    HW240243   7.904  10.676   5.209
46157SOL     OW40244   7.234   3.330   0.513
46157SOL    HW140245   7.274   3.352   0.429
46157SOL    HW240246   7.274   3.247   0.538
46158SOL     OW40247  12.715  10.171   7.200
46158SOL    HW140248  12.693  10.236   7.267
46158SOL    HW240249  12.650  10.101   7.213
46159SOL     OW40250   5.097   3.031   8.089
46159SOL    HW140251   5.113   3.106   8.031
46159SOL    HW240252   5.049   3.067   8.163
46160SOL     OW40253   0.716   0.626   3.388
46160SOL    HW140254   0.736   0.669   3.305
46160SOL    HW240255   0.761   0.679   3.454
46161SOL     OW40256   8.551  12.412  11.470
46161SOL    HW140257   8.526  12.329  11.430
46161SOL    HW240258   8.522  12.478  11.407
46162SOL     OW40259   5.000   5.982   0.447
46162SOL    HW140260   5.014   6.047   0.516
46162SOL    HW240261   5.072   5.997   0.385
46163SOL     OW40262  13.692   9.604   3.439
46163SOL    HW140263  13.709   9.583   3.347
46163SOL    HW240264  13.776   9.590   3.482
46164SOL     OW40265   8.551  14.088   9.195
46164SOL    HW140266   8.500  14.065   9.117
46164SOL    HW240267   8.555  14.184   9.193
46165SOL     OW40268   2.333   1.387   1.687
46165SOL    HW140269   2.340   1.397   1.782
46165SOL    HW240270   2.395   1.318   1.666
46166SOL     OW40271   6.836   5.042   9.868
46166SOL    HW140272   6.779   5.118   9.873
46166SOL    HW240273   6.799   4.988   9.798
46167SOL     OW40274   5.392  11.464   5.638
46167SOL    HW140275   5.479  11.504   5.630
46167SOL    HW240276   5.394  11.419   5.722
46168SOL     OW40277  11.606   6.771   4.676
46168SOL    HW140278  11.536   6.731   4.727
46168SOL    HW240279  11.686   6.728   4.706
46169SOL     OW40280  11.365  13.686   2.724
46169SOL    HW140281  11.395  13.614   2.779
46169SOL    HW240282  11.308  13.645   2.659
46170SOL     OW40283  10.498   5.513   9.301
46170SOL    HW140284  10.517   5.577   9.232
46170SOL    HW240285  10.452   5.563   9.369
46171SOL     OW40286   6.384   2.686   1.605
46171SOL    HW140287   6.380   2.777   1.633
46171SOL    HW240288   6.419   2.690   1.516
46172SOL     OW40289   9.262  13.778   4.929
46172SOL    HW140290   9.208  13.765   4.851
46172SOL    HW240291   9.214  13.843   4.981
46173SOL     OW40292   6.331   8.792   9.083
46173SOL    HW140293   6.392   8.841   9.029
46173SOL    HW240294   6.258   8.771   9.024
46174SOL     OW40295   2.404   1.387   1.966
46174SOL    HW140296   2.391   1.313   2.025
46174SOL    HW240297   2.487   1.425   1.994
46175SOL     OW40298  10.251   4.719   3.727
46175SOL    HW140299  10.239   4.663   3.804
46175SOL    HW240300  10.346   4.727   3.719
46176SOL     OW40301  12.100   3.326   5.201
46176SOL    HW140302  12.195   3.317   5.214
46176SOL    HW240303  12.082   3.271   5.125
46177SOL     OW40304   3.472   6.796   7.910
46177SOL    HW140305   3.393   6.758   7.872
46177SOL    HW240306   3.475   6.885   7.876
46178SOL     OW40307   9.536   7.520   7.092
46178SOL    HW140308   9.472   7.547   7.159
46178SOL    HW240309   9.592   7.596   7.081
46179SOL     OW40310   0.432   2.464  13.716
46179SOL    HW140311   0.338   2.452  13.726
46179SOL    HW240312   0.444   2.485  13.623
46180SOL     OW40313   7.459   5.354  14.218
46180SOL    HW140314   7.400   5.377  14.147
46180SOL    HW240315   7.523   5.295  14.178
46181SOL     OW40316  13.462  11.490  11.728
46181SOL    HW140317  13.435  11.399  11.721
46181SOL    HW240318  13.382  11.538  11.749
46182SOL     OW40319   2.005   9.766   5.815
46182SOL    HW140320   2.097   9.793   5.808
46182SOL    HW240321   2.007   9.689   5.871
46183SOL     OW40322   2.107   5.572   5.497
46183SOL    HW140323   2.192   5.617   5.496
46183SOL    HW240324   2.043   5.642   5.479
46184SOL     OW40325  13.075   2.607   5.419
46184SOL    HW140326  13.032   2.533   5.377
46184SOL    HW240327  13.127   2.568   5.489
46185SOL     OW40328   2.317   4.370   0.699
46185SOL    HW140329   2.364   4.409   0.773
46185SOL    HW240330   2.384   4.353   0.634
46186SOL     OW40331   2.848  11.387   8.367
46186SOL    HW140332   2.912  11.398   8.437
46186SOL    HW240333   2.881  11.441   8.296
46187SOL     OW40334   0.359   4.972   1.479
46187SOL    HW140335   0.449   4.942   1.490
46187SOL    HW240336   0.314   4.898   1.438
46188SOL     OW40337   3.331   7.588   0.627
46188SOL    HW140338   3.273   7.585   0.550
46188SOL    HW240339   3.373   7.502   0.628
46189SOL     OW40340  10.133   8.780   4.326
46189SOL    HW140341  10.040   8.776   4.351
46189SOL    HW240342  10.140   8.719   4.253
46190SOL     OW40343   6.226   1.564  12.884
46190SOL    HW140344   6.241   1.658  12.877
46190SOL    HW240345   6.174   1.553  12.963
46191SOL     OW40346  10.423   6.216   0.380
46191SOL    HW140347  10.328   6.229   0.380
46191SOL    HW240348  10.458   6.304   0.394
46192SOL     OW40349   4.638  12.861   3.071
46192SOL    HW140350   4.543  12.865   3.062
46192SOL    HW240351   4.670  12.938   3.025
46193SOL     OW40352   2.651   9.131   2.303
46193SOL    HW140353   2.666   9.226   2.293
46193SOL    HW240354   2.558   9.120   2.288
46194SOL     OW40355  12.803   1.395   4.682
46194SOL    HW140356  12.873   1.449   4.718
46194SOL    HW240357  12.849   1.317   4.650
46195SOL     OW40358  13.476   7.797   4.562
46195SOL    HW140359  13.540   7.868   4.551
46195SOL    HW240360  13.401   7.838   4.604
46196SOL     OW40361  13.657  10.306   9.728
46196SOL    HW140362  13.637  10.384   9.781
46196SOL    HW240363  13.750  10.289   9.744
46197SOL     OW40364   1.621  11.612   7.586
46197SOL    HW140365   1.628  11.707   7.593
46197SOL    HW240366   1.710  11.582   7.566
46198SOL     OW40367  11.403   5.809   5.383
46198SOL    HW140368  11.343   5.807   5.458
46198SOL    HW240369  11.480   5.761   5.413
46199SOL     OW40370   6.747   1.351   2.830
46199SOL    HW140371   6.703   1.266   2.829
46199SOL    HW240372   6.676   1.415   2.835
46200SOL     OW40373   3.274   0.518   9.851
46200SOL    HW140374   3.247   0.597   9.898
46200SOL    HW240375   3.235   0.528   9.764
46201SOL     OW40376  13.213  14.808   3.529
46201SOL    HW140377  13.243   0.002   3.586
46201SOL    HW240378  13.210  14.731   3.586
46202SOL     OW40379   6.575   7.947   6.191
46202SOL    HW140380   6.483   7.971   6.176
46202SOL    HW240381   6.572   7.852   6.206
46203SOL     OW40382   3.523   8.676  14.065
46203SOL    HW140383   3.614   8.655  14.045
46203SOL    HW240384   3.524   8.770  14.086
46204SOL     OW40385  11.903   8.448  11.981
46204SOL    HW140386  11.977   8.502  11.954
46204SOL    HW240387  11.846   8.508  12.029
46205SOL     OW40388   4.437   0.232   6.349
46205SOL    HW140389   4.495   0.174   6.398
46205SOL    HW240390   4.495   0.301   6.315
46206SOL     OW40391   1.416   9.616   5.526
46206SOL    HW140392   1.378   9.634   5.440
46206SOL    HW240393   1.376   9.533   5.553
46207SOL     OW40394   7.112   3.236   5.488
46207SOL    HW140395   7.202   3.207   5.476
46207SOL    HW240396   7.099   3.303   5.421
46208SOL     OW40397   8.404   6.892  14.689
46208SOL    HW140398   8.332   6.854  14.638
46208SOL    HW240399   8.361   6.936  14.762
46209SOL     OW40400  12.308   6.730  12.192
46209SOL    HW140401  12.260   6.675  12.254
46209SOL    HW240402  12.400   6.713  12.211
46210SOL     OW40403  14.215   1.074   2.633
46210SOL    HW140404  14.299   1.070   2.679
46210SOL    HW240405  14.210   0.993   2.582
46211SOL     OW40406   1.881  11.162  13.418
46211SOL    HW140407   1.953  11.183  13.477
46211SOL    HW240408   1.907  11.082  13.374
46212SOL     OW40409   0.787   0.408  12.998
46212SOL    HW140410   0.827   0.490  12.969
46212SOL    HW240411   0.845   0.377  13.068
46213SOL     OW40412   3.936   9.383   9.852
46213SOL    HW140413   4.004   9.334   9.806
46213SOL    HW240414   3.899   9.320   9.914
46214SOL     OW40415   8.730   4.568   5.975
46214SOL    HW140416   8.796   4.635   5.992
46214SOL    HW240417   8.752   4.535   5.888
46215SOL     OW40418   5.424   4.839   1.448
46215SOL    HW140419   5.436   4.922   1.401
46215SOL    HW240420   5.351   4.856   1.507
46216SOL     OW40421  13.782  12.148   4.629
46216SOL    HW140422  13.838  12.174   4.702
46216SOL    HW240423  13.731  12.226   4.609
46217SOL     OW40424   8.309  11.515   2.398
46217SOL    HW140425   8.376  11.457   2.434
46217SOL    HW240426   8.274  11.468   2.324
46218SOL     OW40427  12.798   8.438   4.004
46218SOL    HW140428  12.819   8.393   4.086
46218SOL    HW240429  12.709   8.471   4.016
46219SOL     OW40430  12.498  12.450   4.956
46219SOL    HW140431  12.583  12.429   4.995
46219SOL    HW240432  12.499  12.545   4.948
46220SOL     OW40433   5.645   9.117  10.495
46220SOL    HW140434   5.617   9.192  10.443
46220SOL    HW240435   5.655   9.046  10.430
46221SOL     OW40436  14.757  13.412   3.467
46221SOL    HW140437  14.682  13.459   3.503
46221SOL    HW240438  14.725  13.323   3.451
46222SOL     OW40439  14.303   9.772   3.472
46222SOL    HW140440  14.397   9.789   3.479
46222SOL    HW240441  14.282   9.785   3.380
46223SOL     OW40442   9.130   3.339   9.926
46223SOL    HW140443   9.144   3.324   9.833
46223SOL    HW240444   9.164   3.260   9.968
46224SOL     OW40445   1.153   6.616   3.895
46224SOL    HW140446   1.171   6.532   3.852
46224SOL    HW240447   1.168   6.599   3.988
46225SOL     OW40448  10.768  12.762   2.054
46225SOL    HW140449  10.863  12.760   2.044
46225SOL    HW240450  10.754  12.779   2.147
46226SOL     OW40451  12.720   1.026  11.830
46226SOL    HW140452  12.659   1.032  11.904
46226SOL    HW240453  12.795   1.080  11.857
46227SOL     OW40454   9.378  10.654  12.158
46227SOL    HW140455   9.324  10.688  12.229
46227SOL    HW240456   9.395  10.730  12.102
46228SOL     OW40457   8.023   8.472  10.538
46228SOL    HW140458   7.998   8.519  10.459
46228SOL    HW240459   7.947   8.417  10.558
46229SOL     OW40460  12.208   3.035  10.664
46229SOL    HW140461  12.215   3.031  10.760
46229SOL    HW240462  12.294   3.069  10.636
46230SOL     OW40463   4.230  11.252  11.306
46230SOL    HW140464   4.180  11.190  11.358
46230SOL    HW240465   4.310  11.267  11.356
46231SOL     OW40466   7.654  11.636   0.110
46231SOL    HW140467   7.742  11.666   0.134
46231SOL    HW240468   7.659  11.621   0.016
46232SOL     OW40469  12.699   6.960   9.998
46232SOL    HW140470  12.707   6.953   9.903
46232SOL    HW240471  12.786   6.985  10.028
46233SOL     OW40472   2.513   5.505   5.598
46233SOL    HW140473   2.540   5.515   5.690
46233SOL    HW240474   2.503   5.410   5.586
46234SOL     OW40475  10.875   6.176   8.906
46234SOL    HW140476  10.834   6.254   8.943
46234SOL    HW240477  10.867   6.187   8.811
46235SOL     OW40478   6.799   0.477   9.044
46235SOL    HW140479   6.787   0.402   9.103
46235SOL    HW240480   6.736   0.462   8.973
46236SOL     OW40481   3.163   0.340   0.400
46236SOL    HW140482   3.118   0.386   0.329
46236SOL    HW240483   3.237   0.296   0.357
46237SOL     OW40484   5.751   8.625   7.544
46237SOL    HW140485   5.665   8.661   7.521
46237SOL    HW240486   5.731   8.548   7.597
46238SOL     OW40487   2.735   3.451  12.392
46238SOL    HW140488   2.728   3.545  12.409
46238SOL    HW240489   2.813   3.443  12.337
46239SOL     OW40490   9.115  13.697   9.620
46239SOL    HW140491   9.132  13.615   9.574
46239SOL    HW240492   9.176  13.697   9.694
46240SOL     OW40493   4.724   3.945   1.946
46240SOL    HW140494   4.792   3.892   1.988
46240SOL    HW240495   4.772   4.007   1.892
46241SOL     OW40496  10.863  11.482  14.244
46241SOL    HW140497  10.793  11.448  14.188
46241SOL    HW240498  10.819  11.504  14.326
46242SOL     OW40499  13.841  14.039   4.894
46242SOL    HW140500  13.923  14.062   4.851
46242SOL    HW240501  13.784  14.008   4.824
46243SOL     OW40502   1.810   8.919   4.470
46243SOL    HW140503   1.848   8.978   4.404
46243SOL    HW240504   1.853   8.945   4.551
46244SOL     OW40505   2.153  13.365   2.392
46244SOL    HW140506   2.091  13.297   2.364
46244SOL    HW240507   2.100  13.445   2.395
46245SOL     OW40508   0.381   9.891  10.292
46245SOL    HW140509   0.297   9.846  10.294
46245SOL    HW240510   0.359   9.983  10.303
46246SOL     OW40511   5.270   5.065   0.953
46246SOL    HW140512   5.329   5.018   1.012
46246SOL    HW240513   5.240   4.999   0.891
46247SOL     OW40514   1.109  13.283   8.386
46247SOL    HW140515   1.114  13.198   8.342
46247SOL    HW240516   1.197  13.298   8.420
46248SOL     OW40517   7.406   8.777   7.936
46248SOL    HW140518   7.358   8.715   7.882
46248SOL    HW240519   7.415   8.734   8.021
46249SOL     OW40520   9.107   8.651   5.957
46249SOL    HW140521   9.159   8.727   5.985
46249SOL    HW240522   9.122   8.646   5.862
46250SOL     OW40523  10.216   1.042  14.427
46250SOL    HW140524  10.251   1.114  14.374
46250SOL    HW240525  10.289   0.981  14.436
46251SOL     OW40526  10.115  10.165   0.583
46251SOL    HW140527  10.061  10.220   0.640
46251SOL    HW240528  10.197  10.154   0.630
46252SOL     OW40529   7.206  13.115   4.015
46252SOL    HW140530   7.150  13.150   3.946
46252SOL    HW240531   7.146  13.088   4.083
46253SOL     OW40532   6.713   2.189  11.037
46253SOL    HW140533   6.800   2.154  11.022
46253SOL    HW240534   6.706   2.263  10.977
46254SOL     OW40535   6.256  10.465   5.502
46254SOL    HW140536   6.309  10.529   5.454
46254SOL    HW240537   6.167  10.477   5.469
46255SOL     OW40538   5.581   0.608   2.332
46255SOL    HW140539   5.589   0.557   2.252
46255SOL    HW240540   5.569   0.542   2.401
46256SOL     OW40541   5.630   8.754  14.837
46256SOL    HW140542   5.611   8.662  14.857
46256SOL    HW240543   5.601   8.802   0.037
46257SOL     OW40544   3.090  14.627  11.691
46257SOL    HW140545   3.010  14.671  11.718
46257SOL    HW240546   3.098  14.647  11.597
46258SOL     OW40547   2.234   5.815  11.547
46258SOL    HW140548   2.162   5.829  11.609
46258SOL    HW240549   2.262   5.902  11.521
46259SOL     OW40550   0.785   8.342   6.681
46259SOL    HW140551   0.778   8.359   6.774
46259SOL    HW240552   0.873   8.308   6.668
46260SOL     OW40553  11.818   4.126   6.351
46260SOL    HW140554  11.844   4.218   6.351
46260SOL    HW240555  11.753   4.119   6.280
46261SOL     OW40556   6.084   8.098   7.361
46261SOL    HW140557   6.086   8.106   7.456
46261SOL    HW240558   6.102   8.186   7.329
46262SOL     OW40559   4.661  10.086   9.914
46262SOL    HW140560   4.571  10.062   9.933
46262SOL    HW240561   4.659  10.120   9.824
46263SOL     OW40562   5.314   4.728  13.242
46263SOL    HW140563   5.289   4.741  13.150
46263SOL    HW240564   5.232   4.710  13.287
46264SOL     OW40565  13.681   4.373   2.614
46264SOL    HW140566  13.633   4.295   2.642
46264SOL    HW240567  13.646   4.443   2.668
46265SOL     OW40568  10.872   0.311  11.268
46265SOL    HW140569  10.945   0.362  11.234
46265SOL    HW240570  10.911   0.256  11.336
46266SOL     OW40571   8.027   6.626  13.066
46266SOL    HW140572   8.040   6.680  12.988
46266SOL    HW240573   8.014   6.537  13.033
46267SOL     OW40574   0.799   8.986  10.668
46267SOL    HW140575   0.824   9.073  10.637
46267SOL    HW240576   0.829   8.927  10.599
46268SOL     OW40577   5.631   2.870  12.442
46268SOL    HW140578   5.547   2.834  12.472
46268SOL    HW240579   5.626   2.963  12.462
46269SOL     OW40580   1.497  14.868   9.487
46269SOL    HW140581   1.509  14.835   9.576
46269SOL    HW240582   1.578   0.038   9.468
46270SOL     OW40583   0.497   9.137  13.397
46270SOL    HW140584   0.483   9.087  13.316
46270SOL    HW240585   0.580   9.182  13.383
46271SOL     OW40586  14.373   3.760  12.480
46271SOL    HW140587  14.281   3.739  12.469
46271SOL    HW240588  14.419   3.695  12.426
46272SOL     OW40589   9.649  11.598   4.562
46272SOL    HW140590   9.594  11.625   4.488
46272SOL    HW240591   9.600  11.625   4.640
46273SOL     OW40592   6.632   3.080   3.187
46273SOL    HW140593   6.717   3.056   3.150
46273SOL    HW240594   6.647   3.163   3.232
46274SOL     OW40595  10.731   6.420   8.119
46274SOL    HW140596  10.778   6.340   8.095
46274SOL    HW240597  10.717   6.465   8.036
46275SOL     OW40598  10.309  13.420  13.487
46275SOL    HW140599  10.275  13.331  13.494
46275SOL    HW240600  10.248  13.473  13.537
46276SOL     OW40601   6.894   1.688   6.993
46276SOL    HW140602   6.914   1.699   6.900
46276SOL    HW240603   6.933   1.765   7.035
46277SOL     OW40604   4.224   7.949  10.318
46277SOL    HW140605   4.288   7.878  10.321
46277SOL    HW240606   4.226   7.987  10.406
46278SOL     OW40607   4.258  13.330   2.334
46278SOL    HW140608   4.267  13.277   2.255
46278SOL    HW240609   4.259  13.266   2.405
46279SOL     OW40610   5.922   4.952   1.075
46279SOL    HW140611   6.001   4.932   1.025
46279SOL    HW240612   5.948   5.023   1.133
46280SOL     OW40613  11.050   2.353   8.576
46280SOL    HW140614  10.992   2.319   8.644
46280SOL    HW240615  10.992   2.380   8.505
46281SOL     OW40616   1.862   0.596   8.367
46281SOL    HW140617   1.871   0.503   8.346
46281SOL    HW240618   1.951   0.629   8.368
46282SOL     OW40619  13.606   4.379   8.265
46282SOL    HW140620  13.544   4.442   8.226
46282SOL    HW240621  13.670   4.434   8.310
46283SOL     OW40622   7.861   5.731  13.272
46283SOL    HW140623   7.766   5.721  13.276
46283SOL    HW240624   7.876   5.825  13.283
46284SOL     OW40625   7.572  13.516  11.413
46284SOL    HW140626   7.561  13.500  11.319
46284SOL    HW240627   7.561  13.430  11.454
46285SOL     OW40628   2.774   3.001   8.404
46285SOL    HW140629   2.813   3.083   8.435
46285SOL    HW240630   2.831   2.932   8.440
46286SOL     OW40631   1.422   0.772   2.405
46286SOL    HW140632   1.411   0.866   2.417
46286SOL    HW240633   1.423   0.760   2.310
46287SOL     OW40634   3.665  11.637   6.374
46287SOL    HW140635   3.733  11.633   6.442
46287SOL    HW240636   3.713  11.620   6.293
46288SOL     OW40637   1.601  11.038   8.383
46288SOL    HW140638   1.566  11.043   8.294
46288SOL    HW240639   1.591  11.127   8.418
46289SOL     OW40640   7.392   0.233   8.352
46289SOL    HW140641   7.409   0.140   8.333
46289SOL    HW240642   7.299   0.236   8.374
46290SOL     OW40643  13.624   4.011  12.886
46290SOL    HW140644  13.605   3.961  12.807
46290SOL    HW240645  13.562   4.084  12.884
46291SOL     OW40646   5.620   9.997   5.798
46291SOL    HW140647   5.627   9.910   5.759
46291SOL    HW240648   5.636   9.983   5.891
46292SOL     OW40649   7.347   5.378  11.389
46292SOL    HW140650   7.269   5.353  11.439
46292SOL    HW240651   7.392   5.442  11.445
46293SOL     OW40652   1.625   8.713  11.727
46293SOL    HW140653   1.715   8.724  11.757
46293SOL    HW240654   1.629   8.735  11.634
46294SOL     OW40655  14.717   6.863  11.968
46294SOL    HW140656  14.719   6.958  11.976
46294SOL    HW240657  14.805   6.839  11.940
46295SOL     OW40658   4.255   5.419   7.598
46295SOL    HW140659   4.273   5.499   7.647
46295SOL    HW240660   4.339   5.395   7.558
46296SOL     OW40661   4.141   1.113   9.910
46296SOL    HW140662   4.101   1.145   9.829
46296SOL    HW240663   4.215   1.060   9.881
46297SOL     OW40664  12.325   8.709   3.127
46297SOL    HW140665  12.379   8.773   3.173
46297SOL    HW240666  12.388   8.654   3.081
46298SOL     OW40667   7.634  14.154   6.640
46298SOL    HW140668   7.566  14.155   6.708
46298SOL    HW240669   7.588  14.177   6.559
46299SOL     OW40670  13.212  10.327   5.453
46299SOL    HW140671  13.267  10.252   5.474
46299SOL    HW240672  13.195  10.318   5.359
46300SOL     OW40673   0.837   4.895  12.665
46300SOL    HW140674   0.788   4.835  12.610
46300SOL    HW240675   0.777   4.968  12.680
46301SOL     OW40676   5.219   2.785   9.705
46301SOL    HW140677   5.310   2.815   9.713
46301SOL    HW240678   5.222   2.716   9.639
46302SOL     OW40679   1.018   4.721   3.806
46302SOL    HW140680   0.963   4.781   3.756
46302SOL    HW240681   0.976   4.636   3.795
46303SOL     OW40682  12.563  11.373  10.652
46303SOL    HW140683  12.544  11.466  10.665
46303SOL    HW240684  12.538  11.332  10.735
46304SOL     OW40685  12.703  11.166   2.937
46304SOL    HW140686  12.686  11.255   2.906
46304SOL    HW240687  12.758  11.127   2.869
46305SOL     OW40688   8.210  14.643   0.991
46305SOL    HW140689   8.282  14.648   1.054
46305SOL    HW240690   8.252  14.640   0.906
46306SOL     OW40691  12.584  13.715   4.611
46306SOL    HW140692  12.544  13.722   4.698
46306SOL    HW240693  12.544  13.636   4.573
46307SOL     OW40694   5.708   1.641   7.474
46307SOL    HW140695   5.714   1.685   7.559
46307SOL    HW240696   5.794   1.603   7.461
46308SOL     OW40697   6.648   7.259  10.086
46308SOL    HW140698   6.571   7.227  10.039
46308SOL    HW240699   6.650   7.353  10.068
46309SOL     OW40700   8.253   1.337   3.955
46309SOL    HW140701   8.321   1.271   3.959
46309SOL    HW240702   8.298   1.420   3.970
46310SOL     OW40703   8.923  14.009  10.399
46310SOL    HW140704   8.873  14.049  10.328
46310SOL    HW240705   9.014  14.027  10.378
46311SOL     OW40706  11.920  11.160   7.163
46311SOL    HW140707  12.012  11.183   7.170
46311SOL    HW240708  11.879  11.202   7.239
46312SOL     OW40709   9.670  10.630   9.566
46312SOL    HW140710   9.651  10.724   9.571
46312SOL    HW240711   9.741  10.617   9.628
46313SOL     OW40712   8.420   1.858  11.644
46313SOL    HW140713   8.455   1.905  11.720
46313SOL    HW240714   8.461   1.901  11.568
46314SOL     OW40715   5.556   2.677   9.185
46314SOL    HW140716   5.542   2.662   9.278
46314SOL    HW240717   5.544   2.772   9.174
46315SOL     OW40718   4.569   0.973  10.695
46315SOL    HW140719   4.483   0.932  10.702
46315SOL    HW240720   4.549   1.066  10.684
46316SOL     OW40721   4.613   4.164  12.816
46316SOL    HW140722   4.672   4.133  12.747
46316SOL    HW240723   4.563   4.234  12.775
46317SOL     OW40724   9.990  13.030   6.102
46317SOL    HW140725  10.051  13.031   6.176
46317SOL    HW240726   9.968  13.122   6.089
46318SOL     OW40727   9.452   8.060   6.912
46318SOL    HW140728   9.451   8.098   7.000
46318SOL    HW240729   9.416   8.129   6.856
46319SOL     OW40730   0.650   6.007  14.068
46319SOL    HW140731   0.640   5.947  13.994
46319SOL    HW240732   0.561   6.030  14.093
46320SOL     OW40733   6.103   9.691  13.282
46320SOL    HW140734   6.008   9.697  13.289
46320SOL    HW240735   6.128   9.770  13.234
46321SOL     OW40736  12.693  11.575   4.939
46321SOL    HW140737  12.770  11.620   4.904
46321SOL    HW240738  12.668  11.627   5.015
46322SOL     OW40739  11.623   4.983   0.463
46322SOL    HW140740  11.613   4.898   0.504
46322SOL    HW240741  11.585   4.973   0.376
46323SOL     OW40742   6.117  10.124  11.173
46323SOL    HW140743   6.027  10.105  11.146
46323SOL    HW240744   6.128  10.075  11.254
46324SOL     OW40745  12.986   4.370   7.795
46324SOL    HW140746  12.949   4.315   7.725
46324SOL    HW240747  12.930   4.447   7.797
46325SOL     OW40748   3.302   2.326  10.219
46325SOL    HW140749   3.330   2.321  10.128
46325SOL    HW240750   3.380   2.356  10.266
46326SOL     OW40751  12.262   4.286   0.593
46326SOL    HW140752  12.243   4.363   0.540
46326SOL    HW240753  12.230   4.308   0.680
46327SOL     OW40754   7.985   0.807  11.395
46327SOL    HW140755   7.954   0.787  11.483
46327SOL    HW240756   7.906   0.804  11.341
46328SOL     OW40757  11.314  14.437   9.993
46328SOL    HW140758  11.266  14.453  10.074
46328SOL    HW240759  11.384  14.503   9.993
46329SOL     OW40760   7.316   6.109   8.834
46329SOL    HW140761   7.269   6.046   8.888
46329SOL    HW240762   7.309   6.074   8.745
46330SOL     OW40763   4.795   9.520  13.975
46330SOL    HW140764   4.850   9.491  14.048
46330SOL    HW240765   4.706   9.502  14.004
46331SOL     OW40766   6.102   7.272   7.792
46331SOL    HW140767   6.198   7.275   7.786
46331SOL    HW240768   6.072   7.315   7.712
46332SOL     OW40769  11.983   1.783  14.678
46332SOL    HW140770  11.950   1.739  14.757
46332SOL    HW240771  12.014   1.868  14.710
46333SOL     OW40772   9.057   1.794   3.917
46333SOL    HW140773   9.066   1.727   3.849
46333SOL    HW240774   8.996   1.756   3.980
46334SOL     OW40775   1.399   5.898   4.791
46334SOL    HW140776   1.473   5.904   4.730
46334SOL    HW240777   1.383   5.988   4.819
46335SOL     OW40778   7.574  12.359   9.534
46335SOL    HW140779   7.596  12.320   9.450
46335SOL    HW240780   7.657  12.391   9.568
46336SOL     OW40781   2.288   7.436  12.225
46336SOL    HW140782   2.317   7.375  12.293
46336SOL    HW240783   2.359   7.436  12.161
46337SOL     OW40784   3.961  13.946   5.786
46337SOL    HW140785   3.957  13.911   5.697
46337SOL    HW240786   3.971  13.869   5.842
46338SOL     OW40787   0.137   9.466   5.837
46338SOL    HW140788   0.209   9.405   5.859
46338SOL    HW240789   0.154   9.543   5.891
46339SOL     OW40790  14.587   1.313  11.479
46339SOL    HW140791  14.513   1.313  11.418
46339SOL    HW240792  14.664   1.306  11.422
46340SOL     OW40793  11.471   0.722  13.810
46340SOL    HW140794  11.483   0.651  13.747
46340SOL    HW240795  11.500   0.685  13.893
46341SOL     OW40796   2.449   9.509   7.376
46341SOL    HW140797   2.498   9.555   7.445
46341SOL    HW240798   2.389   9.451   7.424
46342SOL     OW40799   8.828   1.672   9.631
46342SOL    HW140800   8.817   1.689   9.725
46342SOL    HW240801   8.780   1.591   9.615
46343SOL     OW40802  11.567   6.161  10.535
46343SOL    HW140803  11.539   6.117  10.615
46343SOL    HW240804  11.494   6.218  10.512
46344SOL     OW40805  11.918   0.854   5.381
46344SOL    HW140806  11.900   0.869   5.473
46344SOL    HW240807  12.013   0.859   5.374
46345SOL     OW40808   8.383   1.842   5.687
46345SOL    HW140809   8.464   1.799   5.658
46345SOL    HW240810   8.398   1.860   5.780
46346SOL     OW40811   5.349   2.066   0.988
46346SOL    HW140812   5.264   2.026   0.970
46346SOL    HW240813   5.373   2.032   1.075
46347SOL     OW40814   3.449  14.257   3.044
46347SOL    HW140815   3.438  14.307   3.125
46347SOL    HW240816   3.396  14.178   3.057
46348SOL     OW40817   7.721   7.506   8.542
46348SOL    HW140818   7.713   7.489   8.636
46348SOL    HW240819   7.801   7.558   8.534
46349SOL     OW40820  13.858   9.259   1.121
46349SOL    HW140821  13.801   9.188   1.093
46349SOL    HW240822  13.926   9.263   1.054
46350SOL     OW40823   0.329  14.337  10.499
46350SOL    HW140824   0.287  14.276  10.439
46350SOL    HW240825   0.258  14.396  10.526
46351SOL     OW40826   4.048   6.406   8.176
46351SOL    HW140827   3.990   6.407   8.099
46351SOL    HW240828   4.023   6.484   8.226
46352SOL     OW40829   4.949   4.786   2.042
46352SOL    HW140830   4.858   4.799   2.068
46352SOL    HW240831   4.951   4.809   1.949
46353SOL     OW40832   4.760   0.363  13.728
46353SOL    HW140833   4.748   0.381  13.635
46353SOL    HW240834   4.733   0.272  13.738
46354SOL     OW40835   6.558  10.848   6.890
46354SOL    HW140836   6.645  10.819   6.918
46354SOL    HW240837   6.508  10.767   6.882
46355SOL     OW40838   4.939   2.316  13.539
46355SOL    HW140839   4.945   2.264  13.459
46355SOL    HW240840   4.931   2.407  13.509
46356SOL     OW40841   0.671   2.331   8.002
46356SOL    HW140842   0.735   2.300   7.938
46356SOL    HW240843   0.683   2.275   8.078
46357SOL     OW40844  12.670   0.494   6.134
46357SOL    HW140845  12.679   0.401   6.158
46357SOL    HW240846  12.642   0.493   6.043
46358SOL     OW40847   8.282   2.091   5.032
46358SOL    HW140848   8.196   2.104   5.073
46358SOL    HW240849   8.262   2.078   4.939
46359SOL     OW40850   6.053  14.044   7.103
46359SOL    HW140851   5.997  14.088   7.166
46359SOL    HW240852   6.135  14.026   7.151
46360SOL     OW40853   6.593  10.804  12.977
46360SOL    HW140854   6.596  10.722  12.928
46360SOL    HW240855   6.519  10.851  12.940
46361SOL     OW40856  10.472  13.113  13.472
46361SOL    HW140857  10.500  13.085  13.385
46361SOL    HW240858  10.389  13.159  13.457
46362SOL     OW40859   6.315   6.717   6.838
46362SOL    HW140860   6.316   6.807   6.804
46362SOL    HW240861   6.237   6.714   6.894
46363SOL     OW40862  11.378   9.873   8.364
46363SOL    HW140863  11.405   9.965   8.366
46363SOL    HW240864  11.357   9.853   8.456
46364SOL     OW40865  14.433   5.259   3.433
46364SOL    HW140866  14.380   5.278   3.356
46364SOL    HW240867  14.522   5.280   3.407
46365SOL     OW40868   3.126   6.913  12.947
46365SOL    HW140869   3.201   6.857  12.967
46365SOL    HW240870   3.158   7.002  12.960
46366SOL     OW40871   4.750   9.303   4.181
46366SOL    HW140872   4.707   9.222   4.155
46366SOL    HW240873   4.678   9.361   4.207
46367SOL     OW40874   0.776   0.980   1.569
46367SOL    HW140875   0.731   0.921   1.509
46367SOL    HW240876   0.803   1.053   1.514
46368SOL     OW40877   0.102   6.941   5.206
46368SOL    HW140878   0.018   6.986   5.201
46368SOL    HW240879   0.159   6.989   5.146
46369SOL     OW40880  14.640   2.792   9.307
46369SOL    HW140881  14.610   2.716   9.358
46369SOL    HW240882  14.590   2.866   9.343
46370SOL     OW40883   4.790   8.716  10.917
46370SOL    HW140884   4.700   8.717  10.952
46370SOL    HW240885   4.807   8.623  10.899
46371SOL     OW40886   4.268   7.364   3.632
46371SOL    HW140887   4.206   7.302   3.593
46371SOL    HW240888   4.219   7.446   3.639
46372SOL     OW40889   0.964   2.060   6.231
46372SOL    HW140890   0.873   2.033   6.243
46372SOL    HW240891   1.014   1.978   6.235
46373SOL     OW40892   3.766   9.298  14.620
46373SOL    HW140893   3.803   9.348  14.547
46373SOL    HW240894   3.826   9.314  14.693
46374SOL     OW40895   6.848   3.498  11.968
46374SOL    HW140896   6.940   3.489  11.992
46374SOL    HW240897   6.801   3.487  12.051
46375SOL     OW40898   5.254   1.518   3.169
46375SOL    HW140899   5.268   1.448   3.232
46375SOL    HW240900   5.262   1.599   3.220
46376SOL     OW40901  12.603   7.899   5.318
46376SOL    HW140902  12.560   7.822   5.281
46376SOL    HW240903  12.656   7.934   5.247
46377SOL     OW40904   6.020   6.845   2.161
46377SOL    HW140905   6.088   6.909   2.178
46377SOL    HW240906   6.011   6.844   2.065
46378SOL     OW40907   8.620   5.760  14.322
46378SOL    HW140908   8.667   5.782  14.241
46378SOL    HW240909   8.599   5.667  14.312
46379SOL     OW40910  13.194   0.211   8.849
46379SOL    HW140911  13.286   0.233   8.836
46379SOL    HW240912  13.181   0.132   8.796
46380SOL     OW40913  14.005  11.389  11.855
46380SOL    HW140914  13.924  11.421  11.815
46380SOL    HW240915  14.002  11.421  11.945
46381SOL     OW40916   2.719  12.318  10.012
46381SOL    HW140917   2.632  12.294  10.047
46381SOL    HW240918   2.747  12.391  10.066
46382SOL     OW40919   8.426  11.008   6.937
46382SOL    HW140920   8.478  10.978   7.011
46382SOL    HW240921   8.458  11.095   6.917
46383SOL     OW40922   9.520   7.513   5.453
46383SOL    HW140923   9.547   7.437   5.503
46383SOL    HW240924   9.594   7.574   5.459
46384SOL     OW40925   4.248   5.348  13.731
46384SOL    HW140926   4.192   5.401  13.674
46384SOL    HW240927   4.337   5.378  13.713
46385SOL     OW40928   3.866  13.387   7.719
46385SOL    HW140929   3.914  13.435   7.786
46385SOL    HW240930   3.903  13.419   7.636
46386SOL     OW40931   4.837  11.516  12.622
46386SOL    HW140932   4.747  11.501  12.594
46386SOL    HW240933   4.890  11.490  12.546
46387SOL     OW40934   3.180  12.742  12.032
46387SOL    HW140935   3.174  12.697  12.116
46387SOL    HW240936   3.104  12.711  11.983
46388SOL     OW40937   3.459  11.082   8.306
46388SOL    HW140938   3.384  11.104   8.361
46388SOL    HW240939   3.422  11.069   8.219
46389SOL     OW40940   8.025   0.565   0.743
46389SOL    HW140941   8.052   0.648   0.704
46389SOL    HW240942   8.077   0.499   0.697
46390SOL     OW40943   8.897   1.342   9.055
46390SOL    HW140944   8.915   1.346   9.149
46390SOL    HW240945   8.836   1.414   9.040
46391SOL     OW40946  14.613  10.105   6.782
46391SOL    HW140947  14.557  10.170   6.827
46391SOL    HW240948  14.699  10.146   6.781
46392SOL     OW40949   4.444  13.330   1.108
46392SOL    HW140950   4.404  13.335   1.195
46392SOL    HW240951   4.537  13.349   1.123
46393SOL     OW40952   7.893   3.678   2.192
46393SOL    HW140953   7.957   3.609   2.209
46393SOL    HW240954   7.840   3.681   2.272
46394SOL     OW40955   2.639  11.434  14.522
46394SOL    HW140956   2.550  11.452  14.490
46394SOL    HW240957   2.683  11.392  14.449
46395SOL     OW40958  14.847   2.523  10.031
46395SOL    HW140959  14.764   2.489   9.996
46395SOL    HW240960  14.843   2.505  10.125
46396SOL     OW40961   9.222   1.539   0.526
46396SOL    HW140962   9.312   1.567   0.542
46396SOL    HW240963   9.219   1.448   0.557
46397SOL     OW40964  11.079   1.363   5.034
46397SOL    HW140965  11.094   1.429   5.101
46397SOL    HW240966  11.054   1.284   5.082
46398SOL     OW40967  11.137   7.702   2.040
46398SOL    HW140968  11.056   7.654   2.020
46398SOL    HW240969  11.108   7.790   2.063
46399SOL     OW40970   8.840   0.821   5.144
46399SOL    HW140971   8.747   0.805   5.125
46399SOL    HW240972   8.862   0.755   5.210
46400SOL     OW40973   6.591   8.847   1.257
46400SOL    HW140974   6.508   8.873   1.296
46400SOL    HW240975   6.577   8.856   1.163
46401SOL     OW40976  10.487   5.422  12.699
46401SOL    HW140977  10.495   5.491  12.765
46401SOL    HW240978  10.547   5.354  12.728
46402SOL     OW40979   3.021  13.890  12.277
46402SOL    HW140980   3.051  13.899  12.186
46402SOL    HW240981   3.048  13.971  12.319
46403SOL     OW40982   6.712  14.502   9.253
46403SOL    HW140983   6.627  14.538   9.226
46403SOL    HW240984   6.753  14.474   9.171
46404SOL     OW40985   9.716  14.287  13.120
46404SOL    HW140986   9.720  14.288  13.024
46404SOL    HW240987   9.751  14.201  13.144
46405SOL     OW40988  10.116   1.473  10.746
46405SOL    HW140989  10.026   1.478  10.715
46405SOL    HW240990  10.108   1.452  10.839
46406SOL     OW40991   0.766   5.648   9.046
46406SOL    HW140992   0.765   5.742   9.063
46406SOL    HW240993   0.721   5.638   8.962
46407SOL     OW40994   6.755   2.049   8.596
46407SOL    HW140995   6.713   1.979   8.646
46407SOL    HW240996   6.802   2.004   8.526
46408SOL     OW40997   9.563   5.582   4.189
46408SOL    HW140998   9.503   5.521   4.231
46408SOL    HW240999   9.550   5.665   4.235
46409SOL     OW41000   3.932  14.791   8.173
46409SOL    HW141001   3.886  14.816   8.093
46409SOL    HW241002   3.901  14.854   8.239
46410SOL     OW41003   6.994  12.508   1.923
46410SOL    HW141004   7.086  12.501   1.898
46410SOL    HW241005   6.978  12.433   1.980
46411SOL     OW41006   7.661   8.135  13.293
46411SOL    HW141007   7.662   8.220  13.337
46411SOL    HW241008   7.741   8.092  13.324
46412SOL     OW41009   4.395   4.497   7.674
46412SOL    HW141010   4.312   4.455   7.697
46412SOL    HW241011   4.432   4.440   7.606
46413SOL     OW41012   2.414   6.515   6.365
46413SOL    HW141013   2.478   6.506   6.436
46413SOL    HW241014   2.387   6.426   6.344
46414SOL     OW41015   7.562   1.054   9.706
46414SOL    HW141016   7.499   1.046   9.777
46414SOL    HW241017   7.547   0.977   9.651
46415SOL     OW41018   1.114   1.716   7.040
46415SOL    HW141019   1.104   1.675   6.954
46415SOL    HW241020   1.058   1.665   7.098
46416SOL     OW41021  13.107   4.137   0.047
46416SOL    HW141022  13.135   4.122  14.834
46416SOL    HW241023  13.189   4.138   0.097
46417SOL     OW41024   2.557   7.849  11.360
46417SOL    HW141025   2.601   7.924  11.398
46417SOL    HW241026   2.626   7.797  11.320
46418SOL     OW41027  14.071  10.519   0.843
46418SOL    HW141028  14.128  10.481   0.776
46418SOL    HW241029  13.997  10.553   0.793
46419SOL     OW41030   4.614   6.782  13.457
46419SOL    HW141031   4.706   6.760  13.445
46419SOL    HW241032   4.610   6.877  13.439
46420SOL     OW41033  14.058   1.062   7.578
46420SOL    HW141034  14.126   1.118   7.541
46420SOL    HW241035  13.987   1.066   7.514
46421SOL     OW41036   5.922  12.957   5.519
46421SOL    HW141037   5.868  12.887   5.554
46421SOL    HW241038   5.859  13.025   5.494
46422SOL     OW41039   4.608   1.751   4.895
46422SOL    HW141040   4.664   1.761   4.818
46422SOL    HW241041   4.668   1.729   4.966
46423SOL     OW41042  12.776   0.470  14.842
46423SOL    HW141043  12.785   0.457  14.747
46423SOL    HW241044  12.839   0.539  14.862
46424SOL     OW41045  13.397   7.666  12.686
46424SOL    HW141046  13.359   7.706  12.765
46424SOL    HW241047  13.335   7.597  12.662
46425SOL     OW41048   6.651   3.088   8.435
46425SOL    HW141049   6.673   3.022   8.500
46425SOL    HW241050   6.720   3.081   8.369
46426SOL     OW41051   1.911   1.083  12.570
46426SOL    HW141052   1.843   1.095  12.637
46426SOL    HW241053   1.865   1.040  12.497
46427SOL     OW41054  11.373   8.042   9.537
46427SOL    HW141055  11.422   8.105   9.590
46427SOL    HW241056  11.319   8.097   9.479
46428SOL     OW41057   7.838   6.267   9.466
46428SOL    HW141058   7.869   6.358   9.462
46428SOL    HW241059   7.747   6.272   9.438
46429SOL     OW41060   5.602   0.440   7.579
46429SOL    HW141061   5.693   0.455   7.604
46429SOL    HW241062   5.604   0.434   7.483
46430SOL     OW41063   4.849  13.584   0.346
46430SOL    HW141064   4.763  13.622   0.365
46430SOL    HW241065   4.838  13.491   0.366
46431SOL     OW41066   6.511   7.904  13.764
46431SOL    HW141067   6.456   7.983  13.768
46431SOL    HW241068   6.457   7.840  13.719
46432SOL     OW41069  14.225   3.863   8.352
46432SOL    HW141070  14.181   3.779   8.363
46432SOL    HW241071  14.185   3.902   8.275
46433SOL     OW41072   2.939   1.259  10.188
46433SOL    HW141073   2.851   1.222  10.178
46433SOL    HW241074   2.927   1.353  10.171
46434SOL     OW41075   0.585   0.135   2.837
46434SOL    HW141076   0.658   0.197   2.846
46434SOL    HW241077   0.578   0.094   2.923
46435SOL     OW41078   6.512   3.834   7.382
46435SOL    HW141079   6.417   3.834   7.395
46435SOL    HW241080   6.525   3.789   7.299
46436SOL     OW41081   6.794  13.670   4.664
46436SOL    HW141082   6.726  13.610   4.694
46436SOL    HW241083   6.836  13.702   4.744
46437SOL     OW41084   9.453   7.113  10.246
46437SOL    HW141085   9.395   7.048  10.206
46437SOL    HW241086   9.405   7.146  10.322
46438SOL     OW41087   4.050  14.436  13.616
46438SOL    HW141088   4.095  14.437  13.532
46438SOL    HW241089   3.958  14.418  13.593
46439SOL     OW41090   2.453  10.463   4.249
46439SOL    HW141091   2.452  10.554   4.277
46439SOL    HW241092   2.395  10.418   4.310
46440SOL     OW41093   3.208   5.938   6.055
46440SOL    HW141094   3.198   5.956   5.961
46440SOL    HW241095   3.280   5.874   6.059
46441SOL     OW41096  12.667  10.621   5.368
46441SOL    HW141097  12.663  10.537   5.323
46441SOL    HW241098  12.737  10.612   5.432
46442SOL     OW41099  14.838  12.797   4.361
46442SOL    HW141100   0.029  12.742   4.399
46442SOL    HW241101  14.850  12.882   4.403
46443SOL     OW41102   2.187  13.841   7.032
46443SOL    HW141103   2.219  13.913   6.977
46443SOL    HW241104   2.221  13.762   6.990
46444SOL     OW41105   1.745  12.229  13.615
46444SOL    HW141106   1.759  12.183  13.532
46444SOL    HW241107   1.826  12.215  13.665
46445SOL     OW41108   4.795   1.971  10.195
46445SOL    HW141109   4.761   1.998  10.109
46445SOL    HW241110   4.869   2.030  10.210
46446SOL     OW41111   8.183   4.005   1.399
46446SOL    HW141112   8.253   4.071   1.394
46446SOL    HW241113   8.102   4.056   1.400
46447SOL     OW41114   8.219   7.461  12.471
46447SOL    HW141115   8.303   7.468  12.427
46447SOL    HW241116   8.201   7.550  12.502
46448SOL     OW41117   2.090  13.033   0.676
46448SOL    HW141118   2.107  13.087   0.599
46448SOL    HW241119   2.009  12.987   0.656
46449SOL     OW41120  10.319   3.328  11.902
46449SOL    HW141121  10.306   3.402  11.961
46449SOL    HW241122  10.413   3.311  11.905
46450SOL     OW41123   2.848   2.504   2.863
46450SOL    HW141124   2.840   2.439   2.934
46450SOL    HW241125   2.942   2.524   2.860
46451SOL     OW41126   9.491   6.012   3.741
46451SOL    HW141127   9.568   6.004   3.685
46451SOL    HW241128   9.508   5.952   3.813
46452SOL     OW41129   5.830   4.026   4.116
46452SOL    HW141130   5.846   4.082   4.191
46452SOL    HW241131   5.740   3.994   4.129
46453SOL     OW41132   1.920  11.741   3.575
46453SOL    HW141133   1.980  11.679   3.618
46453SOL    HW241134   1.833  11.715   3.604
46454SOL     OW41135   7.404   7.550   5.692
46454SOL    HW141136   7.472   7.601   5.735
46454SOL    HW241137   7.451   7.473   5.658
46455SOL     OW41138   8.091   6.144   0.493
46455SOL    HW141139   8.055   6.161   0.579
46455SOL    HW241140   8.186   6.147   0.505
46456SOL     OW41141  14.109  13.622   1.334
46456SOL    HW141142  14.169  13.548   1.341
46456SOL    HW241143  14.159  13.697   1.369
46457SOL     OW41144   4.420   1.850   7.134
46457SOL    HW141145   4.489   1.842   7.200
46457SOL    HW241146   4.379   1.763   7.131
46458SOL     OW41147   4.156   1.814  11.479
46458SOL    HW141148   4.065   1.836  11.500
46458SOL    HW241149   4.153   1.722  11.452
46459SOL     OW41150   7.239   5.212  12.445
46459SOL    HW141151   7.211   5.303  12.435
46459SOL    HW241152   7.295   5.196  12.368
46460SOL     OW41153  14.376  10.539   0.200
46460SOL    HW141154  14.463  10.505   0.177
46460SOL    HW241155  14.349  10.590   0.124
46461SOL     OW41156  13.309   9.089   4.730
46461SOL    HW141157  13.366   9.154   4.771
46461SOL    HW241158  13.246   9.065   4.798
46462SOL     OW41159  12.511   4.953   1.016
46462SOL    HW141160  12.603   4.963   0.993
46462SOL    HW241161  12.467   4.936   0.932
46463SOL     OW41162  14.264   0.601  13.143
46463SOL    HW141163  14.226   0.664  13.204
46463SOL    HW241164  14.303   0.656  13.074
46464SOL     OW41165   6.556   0.405  12.226
46464SOL    HW141166   6.591   0.372  12.143
46464SOL    HW241167   6.604   0.487  12.241
46465SOL     OW41168   7.335   6.137   1.928
46465SOL    HW141169   7.395   6.115   1.999
46465SOL    HW241170   7.256   6.170   1.973
46466SOL     OW41171   2.699   9.523  10.426
46466SOL    HW141172   2.758   9.574  10.483
46466SOL    HW241173   2.661   9.457  10.484
46467SOL     OW41174  10.702   6.826   9.981
46467SOL    HW141175  10.796   6.840   9.973
46467SOL    HW241176  10.663   6.887   9.918
46468SOL     OW41177   6.950  11.901   6.325
46468SOL    HW141178   7.022  11.843   6.349
46468SOL    HW241179   6.897  11.849   6.263
46469SOL     OW41180   4.143   6.405  12.593
46469SOL    HW141181   4.106   6.345  12.659
46469SOL    HW241182   4.092   6.389  12.514
46470SOL     OW41183   8.577  13.762   5.732
46470SOL    HW141184   8.578  13.855   5.712
46470SOL    HW241185   8.536  13.756   5.818
46471SOL     OW41186   6.200   2.737   3.008
46471SOL    HW141187   6.229   2.656   2.966
46471SOL    HW241188   6.269   2.757   3.071
46472SOL     OW41189   1.874  13.644   5.424
46472SOL    HW141190   1.855  13.580   5.356
46472SOL    HW241191   1.874  13.728   5.378
46473SOL     OW41192  11.875   9.179  12.158
46473SOL    HW141193  11.906   9.182  12.068
46473SOL    HW241194  11.952   9.203  12.211
46474SOL     OW41195   3.576  13.802  10.608
46474SOL    HW141196   3.501  13.857  10.632
46474SOL    HW241197   3.636  13.810  10.682
46475SOL     OW41198  10.794   0.814   4.478
46475SOL    HW141199  10.845   0.759   4.537
46475SOL    HW241200  10.797   0.769   4.394
46476SOL     OW41201   7.139   6.610  13.083
46476SOL    HW141202   7.139   6.706  13.091
46476SOL    HW241203   7.082   6.592  13.009
46477SOL     OW41204   4.750   7.712   9.960
46477SOL    HW141205   4.799   7.692  10.040
46477SOL    HW241206   4.659   7.718   9.989
46478SOL     OW41207  13.964   9.359   6.644
46478SOL    HW141208  13.935   9.450   6.637
46478SOL    HW241209  14.059   9.365   6.656
46479SOL     OW41210  14.150  10.141   4.647
46479SOL    HW141211  14.215  10.204   4.616
46479SOL    HW241212  14.194  10.056   4.639
46480SOL     OW41213   5.464   8.661   7.474
46480SOL    HW141214   5.407   8.731   7.441
46480SOL    HW241215   5.457   8.668   7.569
46481SOL     OW41216  11.302   6.959   0.780
46481SOL    HW141217  11.223   6.997   0.743
46481SOL    HW241218  11.308   6.997   0.868
46482SOL     OW41219  11.276   6.697   3.135
46482SOL    HW141220  11.219   6.760   3.091
46482SOL    HW241221  11.278   6.726   3.226
46483SOL     OW41222  11.633   5.505   0.477
46483SOL    HW141223  11.624   5.430   0.419
46483SOL    HW241224  11.544   5.542   0.483
46484SOL     OW41225   2.734   1.274  10.496
46484SOL    HW141226   2.701   1.359  10.527
46484SOL    HW241227   2.715   1.214  10.568
46485SOL     OW41228  12.800  11.580   9.389
46485SOL    HW141229  12.895  11.580   9.377
46485SOL    HW241230  12.781  11.662   9.435
46486SOL     OW41231  11.122   2.626   7.594
46486SOL    HW141232  11.075   2.645   7.513
46486SOL    HW241233  11.079   2.681   7.660
46487SOL     OW41234   0.651  14.277   2.025
46487SOL    HW141235   0.721  14.336   1.994
46487SOL    HW241236   0.698  14.202   2.060
46488SOL     OW41237  13.254   8.006   0.032
46488SOL    HW141238  13.247   8.080   0.092
46488SOL    HW241239  13.186   7.945   0.059
46489SOL     OW41240   5.744   1.413   6.975
46489SOL    HW141241   5.676   1.350   6.950
46489SOL    HW241242   5.816   1.359   7.008
46490SOL     OW41243   0.980  11.152   8.080
46490SOL    HW141244   1.038  11.153   8.156
46490SOL    HW241245   1.024  11.206   8.015
46491SOL     OW41246   8.888  10.224  13.819
46491SOL    HW141247   8.874  10.157  13.751
46491SOL    HW241248   8.975  10.205  13.854
46492SOL     OW41249   1.846   9.100  10.115
46492SOL    HW141250   1.818   9.008  10.117
46492SOL    HW241251   1.766   9.150  10.129
46493SOL     OW41252   2.323  11.403   6.222
46493SOL    HW141253   2.255  11.444   6.168
46493SOL    HW241254   2.360  11.476   6.272
46494SOL     OW41255  11.018   0.319   9.389
46494SOL    HW141256  10.957   0.392   9.396
46494SOL    HW241257  10.962   0.241   9.398
46495SOL     OW41258   0.866   2.318   9.269
46495SOL    HW141259   0.917   2.335   9.189
46495SOL    HW241260   0.826   2.232   9.253
46496SOL     OW41261   9.710   6.402   9.468
46496SOL    HW141262   9.736   6.372   9.381
46496SOL    HW241263   9.637   6.462   9.451
46497SOL     OW41264   8.514   5.515   9.257
46497SOL    HW141265   8.558   5.600   9.256
46497SOL    HW241266   8.567   5.460   9.198
46498SOL     OW41267   3.621  11.376   9.146
46498SOL    HW141268   3.712  11.350   9.161
46498SOL    HW241269   3.620  11.470   9.163
46499SOL     OW41270   5.341   2.998   0.339
46499SOL    HW141271   5.359   2.974   0.430
46499SOL    HW241272   5.272   3.064   0.345
46500SOL     OW41273   6.195   9.435   0.010
46500SOL    HW141274   6.244   9.517   0.011
46500SOL    HW241275   6.253   9.371   0.052
46501SOL     OW41276   9.571   6.518   2.609
46501SOL    HW141277   9.560   6.423   2.607
46501SOL    HW241278   9.485   6.551   2.636
46502SOL     OW41279   1.795   7.202  14.857
46502SOL    HW141280   1.852   7.268  14.819
46502SOL    HW241281   1.763   7.151  14.783
46503SOL     OW41282   4.627   1.491  12.975
46503SOL    HW141283   4.622   1.421  13.040
46503SOL    HW241284   4.706   1.472  12.925
46504SOL     OW41285   7.666   8.958  11.626
46504SOL    HW141286   7.629   8.876  11.659
46504SOL    HW241287   7.746   8.932  11.582
46505SOL     OW41288  10.612  12.571   8.978
46505SOL    HW141289  10.693  12.621   8.970
46505SOL    HW241290  10.639  12.480   8.969
46506SOL     OW41291  13.512   0.595  11.979
46506SOL    HW141292  13.476   0.519  12.024
46506SOL    HW241293  13.438   0.655  11.969
46507SOL     OW41294   6.478   6.863  12.420
46507SOL    HW141295   6.545   6.911  12.371
46507SOL    HW241296   6.524   6.826  12.494
46508SOL     OW41297  13.239   0.264   3.342
46508SOL    HW141298  13.253   0.171   3.324
46508SOL    HW241299  13.277   0.277   3.429
46509SOL     OW41300   8.827   7.089  13.598
46509SOL    HW141301   8.875   7.168  13.625
46509SOL    HW241302   8.883   7.016  13.625
46510SOL     OW41303  13.419   6.810   3.381
46510SOL    HW141304  13.383   6.896   3.404
46510SOL    HW241305  13.478   6.789   3.453
46511SOL     OW41306   3.634   7.392   8.412
46511SOL    HW141307   3.716   7.362   8.372
46511SOL    HW241308   3.599   7.314   8.455
46512SOL     OW41309   6.259  13.740   5.031
46512SOL    HW141310   6.214  13.687   4.964
46512SOL    HW241311   6.284  13.820   4.984
46513SOL     OW41312   7.735   2.015   4.131
46513SOL    HW141313   7.663   1.955   4.148
46513SOL    HW241314   7.780   2.023   4.215
46514SOL     OW41315  13.715   5.883   3.091
46514SOL    HW141316  13.774   5.933   3.147
46514SOL    HW241317  13.772   5.835   3.031
46515SOL     OW41318   5.479   3.393   6.165
46515SOL    HW141319   5.429   3.475   6.173
46515SOL    HW241320   5.418   3.325   6.193
46516SOL     OW41321   3.609  14.434  12.632
46516SOL    HW141322   3.635  14.433  12.724
46516SOL    HW241323   3.680  14.481  12.588
46517SOL     OW41324   2.403   1.531   5.233
46517SOL    HW141325   2.387   1.476   5.156
46517SOL    HW241326   2.322   1.527   5.283
46518SOL     OW41327   4.682   0.564   1.385
46518SOL    HW141328   4.625   0.641   1.381
46518SOL    HW241329   4.655   0.511   1.310
46519SOL     OW41330   9.524   8.364  12.224
46519SOL    HW141331   9.462   8.361  12.151
46519SOL    HW241332   9.576   8.442  12.208
46520SOL     OW41333   5.595  13.189  14.727
46520SOL    HW141334   5.524  13.245  14.755
46520SOL    HW241335   5.602  13.122  14.795
46521SOL     OW41336   6.263  11.880   0.418
46521SOL    HW141337   6.175  11.871   0.381
46521SOL    HW241338   6.320  11.840   0.353
46522SOL     OW41339   6.718   8.204  11.850
46522SOL    HW141340   6.713   8.299  11.833
46522SOL    HW241341   6.640   8.168  11.808
46523SOL     OW41342  14.541   4.980   8.615
46523SOL    HW141343  14.525   4.887   8.595
46523SOL    HW241344  14.626   4.999   8.575
46524SOL     OW41345   7.871   8.732   7.774
46524SOL    HW141346   7.933   8.696   7.711
46524SOL    HW241347   7.789   8.686   7.756
46525SOL     OW41348   5.185   6.209   4.593
46525SOL    HW141349   5.232   6.278   4.639
46525SOL    HW241350   5.250   6.140   4.580
46526SOL     OW41351   5.693   1.199   0.997
46526SOL    HW141352   5.641   1.268   1.038
46526SOL    HW241353   5.768   1.188   1.055
46527SOL     OW41354  12.681  13.174  11.873
46527SOL    HW141355  12.650  13.133  11.953
46527SOL    HW241356  12.639  13.126  11.802
46528SOL     OW41357   7.303  11.748   8.678
46528SOL    HW141358   7.339  11.665   8.647
46528SOL    HW241359   7.378  11.795   8.714
46529SOL     OW41360   0.683   4.200   5.182
46529SOL    HW141361   0.736   4.261   5.232
46529SOL    HW241362   0.653   4.136   5.245
46530SOL     OW41363  10.449   2.649   9.549
46530SOL    HW141364  10.470   2.640   9.642
46530SOL    HW241365  10.424   2.560   9.521
46531SOL     OW41366  13.213   6.307  13.290
46531SOL    HW141367  13.143   6.350  13.240
46531SOL    HW241368  13.167   6.252  13.353
46532SOL     OW41369   6.560   7.504   0.359
46532SOL    HW141370   6.655   7.497   0.368
46532SOL    HW241371   6.528   7.515   0.449
46533SOL     OW41372   2.606   3.509   9.245
46533SOL    HW141373   2.549   3.571   9.291
46533SOL    HW241374   2.639   3.559   9.170
46534SOL     OW41375  14.338   8.324   2.893
46534SOL    HW141376  14.289   8.269   2.955
46534SOL    HW241377  14.425   8.285   2.891
46535SOL     OW41378   5.282   9.828   4.590
46535SOL    HW141379   5.266   9.808   4.683
46535SOL    HW241380   5.331   9.752   4.558
46536SOL     OW41381  12.346  14.022  13.004
46536SOL    HW141382  12.317  13.941  12.961
46536SOL    HW241383  12.381  14.076  12.933
46537SOL     OW41384   1.262   4.085  12.027
46537SOL    HW141385   1.170   4.113  12.026
46537SOL    HW241386   1.269   4.025  11.953
46538SOL     OW41387   3.325  11.044   5.857
46538SOL    HW141388   3.267  10.969   5.874
46538SOL    HW241389   3.397  11.006   5.806
46539SOL     OW41390   6.803  12.244  12.220
46539SOL    HW141391   6.878  12.267  12.165
46539SOL    HW241392   6.841  12.212  12.301
46540SOL     OW41393   5.991   9.897   0.657
46540SOL    HW141394   5.917   9.935   0.609
46540SOL    HW241395   6.067   9.917   0.603
46541SOL     OW41396   4.330   6.916  12.154
46541SOL    HW141397   4.392   6.864  12.103
46541SOL    HW241398   4.295   6.855  12.219
46542SOL     OW41399   3.070   7.543  10.476
46542SOL    HW141400   3.070   7.633  10.443
46542SOL    HW241401   3.162   7.526  10.499
46543SOL     OW41402  14.839   1.809   6.921
46543SOL    HW141403   0.021   1.880   6.948
46543SOL    HW241404  14.800   1.840   6.839
46544SOL     OW41405  14.274   4.456   5.293
46544SOL    HW141406  14.357   4.425   5.330
46544SOL    HW241407  14.227   4.493   5.367
46545SOL     OW41408   3.632   2.060  14.852
46545SOL    HW141409   3.705   2.009  14.818
46545SOL    HW241410   3.601   2.111  14.777
46546SOL     OW41411   1.331  11.159  13.276
46546SOL    HW141412   1.243  11.174  13.242
46546SOL    HW241413   1.388  11.205  13.214
46547SOL     OW41414   3.836   7.790  14.051
46547SOL    HW141415   3.784   7.709  14.054
46547SOL    HW241416   3.832   7.818  13.960
46548SOL     OW41417   6.562   4.496  10.316
46548SOL    HW141418   6.652   4.517  10.341
46548SOL    HW241419   6.572   4.432  10.245
46549SOL     OW41420   1.569   8.537   4.555
46549SOL    HW141421   1.532   8.623   4.575
46549SOL    HW241422   1.664   8.549   4.564
46550SOL     OW41423   5.720   6.309   5.673
46550SOL    HW141424   5.757   6.275   5.754
46550SOL    HW241425   5.682   6.393   5.697
46551SOL     OW41426  10.733   1.022  14.530
46551SOL    HW141427  10.821   1.008  14.566
46551SOL    HW241428  10.690   1.079  14.594
46552SOL     OW41429   3.768   0.109   7.384
46552SOL    HW141430   3.774   0.049   7.309
46552SOL    HW241431   3.721   0.185   7.350
46553SOL     OW41432   6.282   9.807  14.640
46553SOL    HW141433   6.319   9.843  14.720
46553SOL    HW241434   6.345   9.740  14.612
46554SOL     OW41435   0.823   8.763   4.956
46554SOL    HW141436   0.767   8.749   4.880
46554SOL    HW241437   0.907   8.725   4.932
46555SOL     OW41438   6.301   5.553   2.706
46555SOL    HW141439   6.331   5.582   2.620
46555SOL    HW241440   6.220   5.505   2.688
46556SOL     OW41441   2.296  12.803  14.831
46556SOL    HW141442   2.210  12.764  14.816
46556SOL    HW241443   2.345  12.735   0.001
46557SOL     OW41444   7.946   3.535   7.114
46557SOL    HW141445   8.008   3.535   7.042
46557SOL    HW241446   7.974   3.462   7.170
46558SOL     OW41447  12.581  12.318   6.999
46558SOL    HW141448  12.537  12.332   7.083
46558SOL    HW241449  12.649  12.385   6.996
46559SOL     OW41450   7.599   0.008  12.978
46559SOL    HW141451   7.691  14.858  12.978
46559SOL    HW241452   7.587   0.051  13.063
46560SOL     OW41453   0.286  11.734   6.866
46560SOL    HW141454   0.205  11.772   6.832
46560SOL    HW241455   0.355  11.775   6.813
46561SOL     OW41456  13.090  14.370   4.213
46561SOL    HW141457  13.172  14.399   4.252
46561SOL    HW241458  13.062  14.442   4.157
46562SOL     OW41459  13.402   1.373   1.007
46562SOL    HW141460  13.452   1.299   1.042
46562SOL    HW241461  13.454   1.450   1.031
46563SOL     OW41462  13.227   7.624  13.766
46563SOL    HW141463  13.153   7.578  13.807
46563SOL    HW241464  13.293   7.556  13.753
46564SOL     OW41465   4.744   6.456  13.064
46564SOL    HW141466   4.785   6.532  13.107
46564SOL    HW241467   4.791   6.447  12.981
46565SOL     OW41468  10.459   4.051  12.785
46565SOL    HW141469  10.392   4.029  12.720
46565SOL    HW241470  10.508   3.970  12.797
46566SOL     OW41471   6.495   1.000   5.831
46566SOL    HW141472   6.482   1.095   5.828
46566SOL    HW241473   6.589   0.990   5.847
46567SOL     OW41474   6.864   2.455   4.176
46567SOL    HW141475   6.924   2.501   4.234
46567SOL    HW241476   6.779   2.458   4.222
46568SOL     OW41477   8.157  13.304  11.878
46568SOL    HW141478   8.134  13.395  11.897
46568SOL    HW241479   8.247  13.295  11.911
46569SOL     OW41480   1.014   0.967   0.259
46569SOL    HW141481   1.039   0.991   0.348
46569SOL    HW241482   0.965   1.043   0.227
46570SOL     OW41483   7.384   6.814   7.242
46570SOL    HW141484   7.348   6.831   7.329
46570SOL    HW241485   7.400   6.901   7.205
46571SOL     OW41486   9.263   6.909   1.666
46571SOL    HW141487   9.253   6.819   1.696
46571SOL    HW241488   9.179   6.950   1.684
46572SOL     OW41489  14.265   1.957   7.536
46572SOL    HW141490  14.182   1.995   7.566
46572SOL    HW241491  14.324   1.964   7.611
46573SOL     OW41492  14.236   0.200   5.501
46573SOL    HW141493  14.321   0.168   5.533
46573SOL    HW241494  14.258   0.249   5.422
46574SOL     OW41495   7.415   8.143  13.707
46574SOL    HW141496   7.368   8.224  13.684
46574SOL    HW241497   7.499   8.151  13.662
46575SOL     OW41498  11.411   2.749   7.735
46575SOL    HW141499  11.415   2.827   7.791
46575SOL    HW241500  11.498   2.710   7.743
46576SOL     OW41501   3.737   7.699  13.360
46576SOL    HW141502   3.649   7.718  13.393
46576SOL    HW241503   3.740   7.603  13.356
46577SOL     OW41504  11.493   9.086   1.771
46577SOL    HW141505  11.421   9.146   1.750
46577SOL    HW241506  11.486   9.072   1.865
46578SOL     OW41507   0.149  14.227  10.923
46578SOL    HW141508   0.224  14.179  10.959
46578SOL    HW241509   0.183  14.316  10.909
46579SOL     OW41510   6.237   6.217  13.555
46579SOL    HW141511   6.151   6.230  13.594
46579SOL    HW241512   6.268   6.305  13.533
46580SOL     OW41513  10.669   9.276   8.030
46580SOL    HW141514  10.606   9.290   7.959
46580SOL    HW241515  10.640   9.195   8.072
46581SOL     OW41516   7.760   6.043   4.957
46581SOL    HW141517   7.837   5.990   4.939
46581SOL    HW241518   7.761   6.057   5.051
46582SOL     OW41519   9.683   0.973  11.832
46582SOL    HW141520   9.714   0.920  11.759
46582SOL    HW241521   9.751   0.964  11.899
46583SOL     OW41522  11.007  12.473  14.689
46583SOL    HW141523  11.007  12.396  14.746
46583SOL    HW241524  11.030  12.546  14.747
46584SOL     OW41525   9.678   1.869   8.010
46584SOL    HW141526   9.642   1.799   7.956
46584SOL    HW241527   9.675   1.946   7.954
46585SOL     OW41528   4.710   8.988   4.889
46585SOL    HW141529   4.777   9.045   4.852
46585SOL    HW241530   4.681   8.933   4.816
46586SOL     OW41531   1.751   8.941  13.074
46586SOL    HW141532   1.693   8.998  13.125
46586SOL    HW241533   1.839   8.961  13.106
46587SOL     OW41534   7.801  11.668   9.986
46587SOL    HW141535   7.766  11.714  10.062
46587SOL    HW241536   7.733  11.675   9.919
46588SOL     OW41537  10.673  10.586  12.980
46588SOL    HW141538  10.737  10.604  12.911
46588SOL    HW241539  10.594  10.561  12.933
46589SOL     OW41540   0.985   4.408   3.116
46589SOL    HW141541   0.906   4.440   3.161
46589SOL    HW241542   1.040   4.486   3.106
46590SOL     OW41543  10.709   6.189  10.558
46590SOL    HW141544  10.760   6.108  10.561
46590SOL    HW241545  10.721   6.228  10.644
46591SOL     OW41546  10.800   6.468  13.936
46591SOL    HW141547  10.879   6.469  13.990
46591SOL    HW241548  10.741   6.531  13.978
46592SOL     OW41549   7.706  12.060  10.353
46592SOL    HW141550   7.682  12.047  10.261
46592SOL    HW241551   7.631  12.024  10.402
46593SOL     OW41552  12.821   2.034   9.314
46593SOL    HW141553  12.781   1.947   9.311
46593SOL    HW241554  12.789   2.072   9.395
46594SOL     OW41555   4.964   0.288   8.334
46594SOL    HW141556   4.952   0.198   8.366
46594SOL    HW241557   5.059   0.298   8.328
46595SOL     OW41558   2.174   0.906   9.567
46595SOL    HW141559   2.152   0.933   9.478
46595SOL    HW241560   2.240   0.838   9.555
46596SOL     OW41561   1.038  12.963  10.506
46596SOL    HW141562   1.115  13.018  10.521
46596SOL    HW241563   0.964  13.017  10.532
46597SOL     OW41564  11.038   2.496   7.924
46597SOL    HW141565  11.029   2.424   7.986
46597SOL    HW241566  11.056   2.453   7.840
46598SOL     OW41567   1.799  10.250   0.118
46598SOL    HW141568   1.789  10.173   0.063
46598SOL    HW241569   1.710  10.269   0.150
46599SOL     OW41570  11.803  10.879   3.791
46599SOL    HW141571  11.730  10.817   3.789
46599SOL    HW241572  11.775  10.946   3.853
46600SOL     OW41573   1.464   3.798   7.026
46600SOL    HW141574   1.524   3.804   7.100
46600SOL    HW241575   1.453   3.889   6.998
46601SOL     OW41576   7.314   6.525   7.156
46601SOL    HW141577   7.251   6.491   7.220
46601SOL    HW241578   7.361   6.594   7.202
46602SOL     OW41579  11.383   7.280   3.473
46602SOL    HW141580  11.354   7.338   3.543
46602SOL    HW241581  11.452   7.227   3.513
46603SOL     OW41582   9.994   1.392  11.813
46603SOL    HW141583  10.013   1.379  11.905
46603SOL    HW241584  10.030   1.479  11.793
46604SOL     OW41585  11.335   4.269   9.512
46604SOL    HW141586  11.359   4.238   9.600
46604SOL    HW241587  11.266   4.332   9.528
46605SOL     OW41588   3.835   2.413   0.580
46605SOL    HW141589   3.797   2.497   0.607
46605SOL    HW241590   3.788   2.390   0.500
46606SOL     OW41591   7.897   3.768   9.216
46606SOL    HW141592   7.962   3.785   9.148
46606SOL    HW241593   7.847   3.849   9.223
46607SOL     OW41594  11.695   9.315   9.533
46607SOL    HW141595  11.690   9.393   9.589
46607SOL    HW241596  11.640   9.250   9.578
46608SOL     OW41597   1.799   0.595   5.835
46608SOL    HW141598   1.807   0.631   5.924
46608SOL    HW241599   1.722   0.539   5.838
46609SOL     OW41600   5.300  11.627  12.504
46609SOL    HW141601   5.205  11.624  12.491
46609SOL    HW241602   5.314  11.593  12.592
46610SOL     OW41603   1.102  14.262   2.948
46610SOL    HW141604   1.092  14.329   2.879
46610SOL    HW241605   1.013  14.248   2.981
46611SOL     OW41606  10.597   6.508   2.437
46611SOL    HW141607  10.637   6.502   2.524
46611SOL    HW241608  10.627   6.592   2.403
46612SOL     OW41609   3.158  12.690   7.209
46612SOL    HW141610   3.092  12.622   7.196
46612SOL    HW241611   3.148  12.715   7.301
46613SOL     OW41612   5.015  10.473   9.430
46613SOL    HW141613   4.945  10.493   9.492
46613SOL    HW241614   4.985  10.512   9.347
46614SOL     OW41615   2.511  13.930   5.192
46614SOL    HW141616   2.456  13.949   5.115
46614SOL    HW241617   2.449  13.922   5.264
46615SOL     OW41618  10.859   6.780  12.523
46615SOL    HW141619  10.832   6.711  12.462
46615SOL    HW241620  10.858   6.860  12.471
46616SOL     OW41621   0.439   9.936   0.701
46616SOL    HW141622   0.383   9.977   0.635
46616SOL    HW241623   0.398   9.957   0.784
46617SOL     OW41624   7.481   8.659   1.537
46617SOL    HW141625   7.559   8.648   1.482
46617SOL    HW241626   7.415   8.696   1.478
46618SOL     OW41627   2.351   9.802   8.576
46618SOL    HW141628   2.393   9.874   8.528
46618SOL    HW241629   2.311   9.748   8.507
46619SOL     OW41630  10.199   5.400   5.177
46619SOL    HW141631  10.185   5.490   5.146
46619SOL    HW241632  10.285   5.403   5.219
46620SOL     OW41633   3.594   8.046   8.299
46620SOL    HW141634   3.674   7.993   8.303
46620SOL    HW241635   3.610   8.118   8.360
46621SOL     OW41636  11.050  11.027  14.454
46621SOL    HW141637  11.059  10.965  14.527
46621SOL    HW241638  11.085  10.979  14.378
46622SOL     OW41639  14.794   8.143  12.296
46622SOL    HW141640  14.767   8.193  12.218
46622SOL    HW241641  14.797   8.052  12.267
46623SOL     OW41642   5.427   0.648  11.846
46623SOL    HW141643   5.431   0.736  11.883
46623SOL    HW241644   5.351   0.648  11.789
46624SOL     OW41645  12.200   9.159  10.913
46624SOL    HW141646  12.122   9.212  10.895
46624SOL    HW241647  12.166   9.072  10.931
46625SOL     OW41648   8.821  11.434  11.123
46625SOL    HW141649   8.734  11.467  11.147
46625SOL    HW241650   8.879  11.509  11.132
46626SOL     OW41651   9.884  10.540   9.294
46626SOL    HW141652   9.795  10.531   9.330
46626SOL    HW241653   9.879  10.498   9.208
46627SOL     OW41654   6.009   8.124  11.154
46627SOL    HW141655   5.925   8.167  11.171
46627SOL    HW241656   6.013   8.053  11.217
46628SOL     OW41657   3.724  13.597   1.451
46628SOL    HW141658   3.632  13.605   1.477
46628SOL    HW241659   3.720  13.555   1.365
46629SOL     OW41660   3.756   5.568   5.302
46629SOL    HW141661   3.722   5.481   5.281
46629SOL    HW241662   3.741   5.619   5.223
46630SOL     OW41663  11.412   8.294  11.174
46630SOL    HW141664  11.454   8.303  11.260
46630SOL    HW241665  11.406   8.384  11.141
46631SOL     OW41666  11.949   6.401   0.141
46631SOL    HW141667  11.857   6.377   0.137
46631SOL    HW241668  11.991   6.327   0.184
46632SOL     OW41669   3.649   8.247   5.763
46632SOL    HW141670   3.684   8.158   5.757
46632SOL    HW241671   3.563   8.242   5.722
46633SOL     OW41672   9.736   5.548   1.140
46633SOL    HW141673   9.649   5.552   1.180
46633SOL    HW241674   9.795   5.588   1.204
46634SOL     OW41675   1.923  14.200   2.693
46634SOL    HW141676   1.862  14.258   2.647
46634SOL    HW241677   1.988  14.259   2.731
46635SOL     OW41678   2.435   2.255   0.332
46635SOL    HW141679   2.433   2.288   0.242
46635SOL    HW241680   2.516   2.203   0.336
46636SOL     OW41681   9.932  14.790   3.470
46636SOL    HW141682  10.022  14.801   3.501
46636SOL    HW241683   9.916  14.867   3.415
46637SOL     OW41684   4.737   0.678   6.142
46637SOL    HW141685   4.826   0.712   6.155
46637SOL    HW241686   4.681   0.756   6.147
46638SOL     OW41687   3.170   7.116   6.003
46638SOL    HW141688   3.153   7.048   6.068
46638SOL    HW241689   3.093   7.173   6.007
46639SOL     OW41690  14.044   9.140   4.349
46639SOL    HW141691  13.975   9.093   4.302
46639SOL    HW241692  14.103   9.070   4.380
46640SOL     OW41693   4.245   6.632   4.316
46640SOL    HW141694   4.193   6.666   4.244
46640SOL    HW241695   4.299   6.563   4.277
46641SOL     OW41696   4.868   6.457   3.294
46641SOL    HW141697   4.865   6.371   3.336
46641SOL    HW241698   4.961   6.480   3.292
46642SOL     OW41699   6.515  10.440   6.130
46642SOL    HW141700   6.551  10.489   6.056
46642SOL    HW241701   6.554  10.482   6.207
46643SOL     OW41702   9.594  13.879   6.436
46643SOL    HW141703   9.551  13.811   6.488
46643SOL    HW241704   9.623  13.833   6.357
46644SOL     OW41705   1.359  11.539  13.753
46644SOL    HW141706   1.398  11.484  13.685
46644SOL    HW241707   1.408  11.621  13.750
46645SOL     OW41708   4.064   9.925   9.882
46645SOL    HW141709   4.033   9.835   9.885
46645SOL    HW241710   4.095   9.936   9.792
46646SOL     OW41711  12.601  14.181   8.359
46646SOL    HW141712  12.683  14.196   8.405
46646SOL    HW241713  12.601  14.247   8.289
46647SOL     OW41714  12.053   9.720  14.388
46647SOL    HW141715  12.033   9.650  14.451
46647SOL    HW241716  12.041   9.801  14.438
46648SOL     OW41717  12.497  10.602   3.105
46648SOL    HW141718  12.460  10.650   3.179
46648SOL    HW241719  12.421  10.574   3.055
46649SOL     OW41720   5.917  12.311   9.285
46649SOL    HW141721   5.971  12.233   9.278
46649SOL    HW241722   5.917  12.332   9.379
46650SOL     OW41723   1.768   4.034   3.077
46650SOL    HW141724   1.757   4.129   3.073
46650SOL    HW241725   1.769   4.014   3.171
46651SOL     OW41726   4.113   9.559  13.225
46651SOL    HW141727   4.021   9.534  13.214
46651SOL    HW241728   4.146   9.501  13.294
46652SOL     OW41729   6.049   0.147   8.283
46652SOL    HW141730   6.043   0.051   8.289
46652SOL    HW241731   6.011   0.178   8.366
46653SOL     OW41732   8.907  10.206  10.965
46653SOL    HW141733   8.888  10.189  11.057
46653SOL    HW241734   8.958  10.287  10.965
46654SOL     OW41735   1.828  14.354   0.768
46654SOL    HW141736   1.851  14.380   0.857
46654SOL    HW241737   1.756  14.411   0.744
46655SOL     OW41738   4.691   0.753   1.153
46655SOL    HW141739   4.755   0.700   1.201
46655SOL    HW241740   4.737   0.781   1.074
46656SOL     OW41741   2.981   2.962  13.314
46656SOL    HW141742   2.920   3.025  13.354
46656SOL    HW241743   2.924   2.898  13.271
46657SOL     OW41744   8.098  12.578  11.013
46657SOL    HW141745   8.087  12.509  11.078
46657SOL    HW241746   8.183  12.559  10.973
46658SOL     OW41747  12.928   5.088   5.887
46658SOL    HW141748  12.883   5.018   5.934
46658SOL    HW241749  12.867   5.114   5.818
46659SOL     OW41750   8.156  10.656   7.177
46659SOL    HW141751   8.219  10.683   7.243
46659SOL    HW241752   8.161  10.723   7.109
46660SOL     OW41753  13.111   0.145   7.361
46660SOL    HW141754  13.041   0.187   7.411
46660SOL    HW241755  13.124   0.201   7.284
46661SOL     OW41756   5.998  12.564  14.319
46661SOL    HW141757   6.004  12.473  14.289
46661SOL    HW241758   6.089  12.593  14.325
46662SOL     OW41759  14.371  14.069  12.881
46662SOL    HW141760  14.322  14.152  12.878
46662SOL    HW241761  14.451  14.087  12.832
46663SOL     OW41762  12.117   9.099   2.589
46663SOL    HW141763  12.168   9.037   2.640
46663SOL    HW241764  12.029   9.093   2.625
46664SOL     OW41765  13.759   8.196  14.324
46664SOL    HW141766  13.736   8.108  14.294
46664SOL    HW241767  13.846   8.212  14.288
46665SOL     OW41768   1.244   3.066   6.335
46665SOL    HW141769   1.335   3.094   6.344
46665SOL    HW241770   1.232   3.000   6.403
46666SOL     OW41771   0.177   4.007   2.987
46666SOL    HW141772   0.189   3.979   3.078
46666SOL    HW241773   0.189   4.102   2.989
46667SOL     OW41774   7.337  13.013   0.050
46667SOL    HW141775   7.267  13.055  14.877
46667SOL    HW241776   7.373  12.947  14.868
46668SOL     OW41777   7.348   5.538   7.088
46668SOL    HW141778   7.269   5.492   7.115
46668SOL    HW241779   7.408   5.468   7.061
46669SOL     OW41780   5.177   9.895   8.125
46669SOL    HW141781   5.217   9.878   8.040
46669SOL    HW241782   5.099   9.948   8.104
46670SOL     OW41783  13.271  14.469   8.281
46670SOL    HW141784  13.318  14.506   8.356
46670SOL    HW241785  13.333  14.410   8.239
46671SOL     OW41786   7.886  12.993  10.349
46671SOL    HW141787   7.795  13.024  10.351
46671SOL    HW241788   7.881  12.900  10.373
46672SOL     OW41789   0.855  12.655  13.498
46672SOL    HW141790   0.896  12.598  13.432
46672SOL    HW241791   0.787  12.600  13.537
46673SOL     OW41792  10.835   7.350   9.555
46673SOL    HW141793  10.798   7.388   9.474
46673SOL    HW241794  10.876   7.269   9.527
46674SOL     OW41795   9.590   8.542   5.049
46674SOL    HW141796   9.595   8.459   5.097
46674SOL    HW241797   9.666   8.592   5.080
46675SOL     OW41798   0.422  11.058   4.127
46675SOL    HW141799   0.457  11.119   4.193
46675SOL    HW241800   0.377  11.115   4.064
46676SOL     OW41801  12.868   0.803  10.832
46676SOL    HW141802  12.932   0.857  10.786
46676SOL    HW241803  12.893   0.809  10.924
46677SOL     OW41804  12.779   7.742   4.410
46677SOL    HW141805  12.756   7.800   4.338
46677SOL    HW241806  12.709   7.754   4.475
46678SOL     OW41807   2.217  11.737   8.952
46678SOL    HW141808   2.222  11.830   8.973
46678SOL    HW241809   2.123  11.718   8.949
46679SOL     OW41810  10.294   5.406   8.865
46679SOL    HW141811  10.286   5.501   8.857
46679SOL    HW241812  10.386   5.388   8.844
46680SOL     OW41813   0.608   7.199  12.377
46680SOL    HW141814   0.608   7.240  12.463
46680SOL    HW241815   0.529   7.146  12.374
46681SOL     OW41816   0.223   4.573  13.803
46681SOL    HW141817   0.141   4.620  13.819
46681SOL    HW241818   0.276   4.590  13.880
46682SOL     OW41819   8.057  10.709   4.763
46682SOL    HW141820   7.990  10.696   4.696
46682SOL    HW241821   8.018  10.769   4.825
46683SOL     OW41822   0.127   6.893  10.574
46683SOL    HW141823   0.060   6.932  10.631
46683SOL    HW241824   0.175   6.834  10.632
46684SOL     OW41825  13.538   8.479   5.557
46684SOL    HW141826  13.623   8.436   5.562
46684SOL    HW241827  13.489   8.444   5.632
46685SOL     OW41828   1.656   9.557   4.148
46685SOL    HW141829   1.747   9.553   4.178
46685SOL    HW241830   1.606   9.580   4.227
46686SOL     OW41831   9.270   6.486  10.913
46686SOL    HW141832   9.331   6.455  10.846
46686SOL    HW241833   9.227   6.562  10.874
46687SOL     OW41834  13.377  14.278   5.144
46687SOL    HW141835  13.367  14.337   5.218
46687SOL    HW241836  13.385  14.336   5.068
46688SOL     OW41837   0.399   8.461   5.243
46688SOL    HW141838   0.479   8.409   5.246
46688SOL    HW241839   0.403   8.506   5.158
46689SOL     OW41840  12.191   0.461   0.591
46689SOL    HW141841  12.138   0.528   0.549
46689SOL    HW241842  12.159   0.379   0.553
46690SOL     OW41843  14.401  14.410  13.561
46690SOL    HW141844  14.485  14.427  13.517
46690SOL    HW241845  14.360  14.496  13.568
46691SOL     OW41846   0.501  11.904   0.477
46691SOL    HW141847   0.483  11.830   0.418
46691SOL    HW241848   0.576  11.876   0.529
46692SOL     OW41849   6.173   3.670   9.891
46692SOL    HW141850   6.134   3.753   9.863
46692SOL    HW241851   6.113   3.637   9.957
46693SOL     OW41852   7.649   2.782   7.459
46693SOL    HW141853   7.603   2.784   7.375
46693SOL    HW241854   7.739   2.809   7.438
46694SOL     OW41855   4.153   4.072  12.859
46694SOL    HW141856   4.110   4.011  12.918
46694SOL    HW241857   4.180   4.018  12.784
46695SOL     OW41858   9.683   0.137  13.413
46695SOL    HW141859   9.675   0.110  13.505
46695SOL    HW241860   9.675   0.056  13.363
46696SOL     OW41861   6.855  13.915   3.969
46696SOL    HW141862   6.822  13.992   4.016
46696SOL    HW241863   6.933  13.889   4.018
46697SOL     OW41864  11.085   8.026   5.684
46697SOL    HW141865  11.161   8.003   5.738
46697SOL    HW241866  11.119   8.088   5.619
46698SOL     OW41867   5.410  11.918   6.405
46698SOL    HW141868   5.332  11.918   6.461
46698SOL    HW241869   5.483  11.914   6.465
46699SOL     OW41870   3.611  13.726   7.411
46699SOL    HW141871   3.705  13.747   7.414
46699SOL    HW241872   3.575  13.792   7.352
46700SOL     OW41873  13.670   8.984   0.326
46700SOL    HW141874  13.674   8.940   0.241
46700SOL    HW241875  13.702   8.918   0.388
46701SOL     OW41876   6.222  13.116   9.635
46701SOL    HW141877   6.275  13.140   9.559
46701SOL    HW241878   6.214  13.021   9.629
46702SOL     OW41879   1.638   8.217   0.410
46702SOL    HW141880   1.696   8.264   0.351
46702SOL    HW241881   1.683   8.220   0.495
46703SOL     OW41882   9.887  14.454  11.072
46703SOL    HW141883   9.878  14.549  11.075
46703SOL    HW241884   9.981  14.439  11.084
46704SOL     OW41885  11.013   0.414  10.678
46704SOL    HW141886  11.070   0.424  10.602
46704SOL    HW241887  11.072   0.421  10.753
46705SOL     OW41888  11.926   0.708   0.098
46705SOL    HW141889  11.844   0.678   0.137
46705SOL    HW241890  11.959   0.774   0.159
46706SOL     OW41891   5.733  13.118  14.510
46706SOL    HW141892   5.696  13.164  14.585
46706SOL    HW241893   5.775  13.040  14.548
46707SOL     OW41894  11.152  10.467  12.174
46707SOL    HW141895  11.174  10.509  12.091
46707SOL    HW241896  11.236  10.438  12.210
46708SOL     OW41897   0.531  10.804   7.836
46708SOL    HW141898   0.470  10.863   7.881
46708SOL    HW241899   0.591  10.863   7.790
46709SOL     OW41900   9.775   1.554   1.716
46709SOL    HW141901   9.845   1.511   1.765
46709SOL    HW241902   9.696   1.506   1.741
46710SOL     OW41903   3.672  12.444  13.017
46710SOL    HW141904   3.624  12.361  13.027
46710SOL    HW241905   3.608  12.505  12.981
46711SOL     OW41906  11.189  12.279  11.118
46711SOL    HW141907  11.189  12.214  11.188
46711SOL    HW241908  11.247  12.242  11.051
46712SOL     OW41909   2.627   8.818   9.685
46712SOL    HW141910   2.698   8.761   9.713
46712SOL    HW241911   2.653   8.905   9.714
46713SOL     OW41912  11.780  13.164   2.789
46713SOL    HW141913  11.834  13.196   2.717
46713SOL    HW241914  11.842  13.124   2.850
46714SOL     OW41915  13.664  11.156   6.222
46714SOL    HW141916  13.728  11.101   6.176
46714SOL    HW241917  13.701  11.244   6.218
46715SOL     OW41918   9.353   2.753  11.382
46715SOL    HW141919   9.275   2.801  11.355
46715SOL    HW241920   9.333   2.722  11.470
46716SOL     OW41921   6.167   7.449  13.255
46716SOL    HW141922   6.088   7.496  13.282
46716SOL    HW241923   6.187   7.392  13.329
46717SOL     OW41924  14.528  10.175   9.907
46717SOL    HW141925  14.451  10.226   9.882
46717SOL    HW241926  14.549  10.205   9.995
46718SOL     OW41927  10.936   5.704   1.614
46718SOL    HW141928  10.952   5.612   1.597
46718SOL    HW241929  10.986   5.750   1.547
46719SOL     OW41930   4.065  11.859   4.667
46719SOL    HW141931   3.979  11.845   4.628
46719SOL    HW241932   4.080  11.953   4.660
46720SOL     OW41933   1.652   5.342   1.058
46720SOL    HW141934   1.741   5.356   1.089
46720SOL    HW241935   1.649   5.385   0.972
46721SOL     OW41936   1.560  14.819   5.100
46721SOL    HW141937   1.562   0.029   5.062
46721SOL    HW241938   1.606  14.765   5.036
46722SOL     OW41939   2.691  13.169  10.275
46722SOL    HW141940   2.779  13.173  10.236
46722SOL    HW241941   2.688  13.245  10.333
46723SOL     OW41942   7.100   4.006  13.090
46723SOL    HW141943   7.047   3.926  13.099
46723SOL    HW241944   7.120   4.011  12.997
46724SOL     OW41945   8.123   5.308   0.562
46724SOL    HW141946   8.037   5.349   0.551
46724SOL    HW241947   8.151   5.287   0.473
46725SOL     OW41948   6.134  10.949   9.415
46725SOL    HW141949   6.205  10.963   9.477
46725SOL    HW241950   6.122  10.854   9.413
46726SOL     OW41951   2.118   6.119   7.342
46726SOL    HW141952   2.064   6.040   7.336
46726SOL    HW241953   2.063   6.183   7.386
46727SOL     OW41954   2.864   7.040   4.554
46727SOL    HW141955   2.877   7.037   4.459
46727SOL    HW241956   2.771   7.059   4.565
46728SOL     OW41957  11.470   9.638   8.701
46728SOL    HW141958  11.443   9.562   8.649
46728SOL    HW241959  11.406   9.706   8.681
46729SOL     OW41960   0.823   8.823  11.045
46729SOL    HW141961   0.784   8.755  10.990
46729SOL    HW241962   0.751   8.853  11.101
46730SOL     OW41963   8.956   2.909   9.460
46730SOL    HW141964   8.952   2.848   9.386
46730SOL    HW241965   8.947   2.853   9.538
46731SOL     OW41966   7.171  11.489   4.609
46731SOL    HW141967   7.092  11.523   4.653
46731SOL    HW241968   7.141  11.411   4.563
46732SOL     OW41969   8.029   7.707  12.035
46732SOL    HW141970   8.092   7.656  11.982
46732SOL    HW241971   8.018   7.655  12.115
46733SOL     OW41972   5.201   4.374   6.427
46733SOL    HW141973   5.125   4.429   6.444
46733SOL    HW241974   5.189   4.344   6.337
46734SOL     OW41975   6.977   4.772   9.966
46734SOL    HW141976   7.005   4.754  10.055
46734SOL    HW241977   6.953   4.865   9.966
46735SOL     OW41978   2.656  13.862   5.949
46735SOL    HW141979   2.592  13.797   5.920
46735SOL    HW241980   2.741  13.821   5.933
46736SOL     OW41981   2.772  13.704  13.076
46736SOL    HW141982   2.719  13.657  13.139
46736SOL    HW241983   2.832  13.756  13.129
46737SOL     OW41984   4.260   6.278   5.360
46737SOL    HW141985   4.261   6.238   5.273
46737SOL    HW241986   4.168   6.304   5.374
46738SOL     OW41987   8.181  11.220   4.134
46738SOL    HW141988   8.203  11.136   4.174
46738SOL    HW241989   8.096  11.243   4.172
46739SOL     OW41990   1.343  11.742   0.408
46739SOL    HW141991   1.318  11.704   0.492
46739SOL    HW241992   1.325  11.836   0.419
46740SOL     OW41993   9.735   8.786  13.310
46740SOL    HW141994   9.656   8.808  13.261
46740SOL    HW241995   9.704   8.774  13.400
46741SOL     OW41996   1.087   0.781   8.818
46741SOL    HW141997   1.140   0.754   8.892
46741SOL    HW241998   1.010   0.723   8.821
46742SOL     OW41999   9.558   4.276   3.449
46742SOL    HW142000   9.476   4.266   3.498
46742SOL    HW242001   9.551   4.363   3.408
46743SOL     OW42002  14.780   8.645  11.127
46743SOL    HW142003  14.790   8.740  11.138
46743SOL    HW242004  14.865   8.610  11.150
46744SOL     OW42005   1.311   1.434   0.501
46744SOL    HW142006   1.220   1.418   0.526
46744SOL    HW242007   1.330   1.367   0.436
46745SOL     OW42008   8.646  10.226   1.660
46745SOL    HW142009   8.696  10.243   1.739
46745SOL    HW242010   8.668  10.136   1.636
46746SOL     OW42011  11.538   8.737  10.770
46746SOL    HW142012  11.475   8.665  10.779
46746SOL    HW242013  11.581   8.742  10.855
46747SOL     OW42014   0.518  14.525   3.657
46747SOL    HW142015   0.576  14.488   3.590
46747SOL    HW242016   0.560  14.607   3.683
46748SOL     OW42017  14.374   9.990   2.816
46748SOL    HW142018  14.448   9.957   2.766
46748SOL    HW242019  14.324   9.912   2.840
46749SOL     OW42020   5.116  12.733  11.041
46749SOL    HW142021   5.191  12.787  11.065
46749SOL    HW242022   5.126  12.717  10.947
46750SOL     OW42023   1.202  10.054  12.418
46750SOL    HW142024   1.262  10.129  12.410
46750SOL    HW242025   1.246   9.994  12.478
46751SOL     OW42026  14.507   3.295   4.718
46751SOL    HW142027  14.481   3.283   4.809
46751SOL    HW242028  14.541   3.385   4.714
46752SOL     OW42029   7.229  14.133   6.011
46752SOL    HW142030   7.273  14.211   6.044
46752SOL    HW242031   7.209  14.081   6.088
46753SOL     OW42032   0.112  10.445   3.820
46753SOL    HW142033   0.147  10.481   3.739
46753SOL    HW242034   0.074  10.361   3.795
46754SOL     OW42035  11.514   4.045   9.445
46754SOL    HW142036  11.516   4.136   9.475
46754SOL    HW242037  11.588   4.038   9.384
46755SOL     OW42038  14.563   5.890   8.637
46755SOL    HW142039  14.635   5.877   8.699
46755SOL    HW242040  14.515   5.964   8.672
46756SOL     OW42041   3.278  11.167  13.251
46756SOL    HW142042   3.229  11.238  13.295
46756SOL    HW242043   3.365  11.203  13.238
46757SOL     OW42044   4.967   2.113   3.940
46757SOL    HW142045   4.927   2.199   3.951
46757SOL    HW242046   5.061   2.131   3.935
46758SOL     OW42047  12.045   7.790   8.291
46758SOL    HW142048  12.044   7.708   8.241
46758SOL    HW242049  12.093   7.852   8.235
46759SOL     OW42050   5.378  11.168  14.468
46759SOL    HW142051   5.303  11.110  14.458
46759SOL    HW242052   5.413  11.146  14.555
46760SOL     OW42053   2.846  14.390  12.152
46760SOL    HW142054   2.942  14.391  12.160
46760SOL    HW242055   2.816  14.459  12.212
46761SOL     OW42056  11.356   6.915  13.008
46761SOL    HW142057  11.322   6.993  12.965
46761SOL    HW242058  11.381   6.945  13.096
46762SOL     OW42059   7.154  10.341   1.435
46762SOL    HW142060   7.203  10.398   1.375
46762SOL    HW242061   7.069  10.328   1.392
46763SOL     OW42062   7.024   2.020   7.785
46763SOL    HW142063   6.977   1.939   7.770
46763SOL    HW242064   7.004   2.074   7.708
46764SOL     OW42065   9.911   9.791   2.222
46764SOL    HW142066   9.879   9.882   2.220
46764SOL    HW242067  10.002   9.799   2.250
46765SOL     OW42068   6.018   3.764   6.891
46765SOL    HW142069   6.043   3.854   6.872
46765SOL    HW242070   6.083   3.735   6.956
46766SOL     OW42071  12.668   6.959   7.035
46766SOL    HW142072  12.729   6.891   7.008
46766SOL    HW242073  12.694   7.037   6.985
46767SOL     OW42074   0.408   2.765   7.737
46767SOL    HW142075   0.450   2.798   7.816
46767SOL    HW242076   0.318   2.747   7.763
46768SOL     OW42077   7.801   3.820  12.408
46768SOL    HW142078   7.843   3.845  12.327
46768SOL    HW242079   7.753   3.739  12.387
46769SOL     OW42080   8.688  11.664  10.731
46769SOL    HW142081   8.724  11.598  10.672
46769SOL    HW242082   8.763  11.694  10.782
46770SOL     OW42083   5.381  11.165   2.998
46770SOL    HW142084   5.365  11.242   2.945
46770SOL    HW242085   5.297  11.118   3.000
46771SOL     OW42086   4.800   8.202  10.523
46771SOL    HW142087   4.837   8.144  10.457
46771SOL    HW242088   4.714   8.226  10.489
46772SOL     OW42089  14.653  14.698   7.577
46772SOL    HW142090  14.612  14.658   7.653
46772SOL    HW242091  14.741  14.722   7.607
46773SOL     OW42092   0.964   8.672   3.218
46773SOL    HW142093   0.976   8.586   3.258
46773SOL    HW242094   0.963   8.655   3.124
46774SOL     OW42095   8.301   4.289  11.735
46774SOL    HW142096   8.314   4.206  11.689
46774SOL    HW242097   8.367   4.347  11.697
46775SOL     OW42098   1.081   5.321   7.981
46775SOL    HW142099   1.039   5.376   7.914
46775SOL    HW242100   1.008   5.279   8.026
46776SOL     OW42101   4.086   1.082   6.819
46776SOL    HW142102   4.052   1.131   6.894
46776SOL    HW242103   4.032   1.111   6.745
46777SOL     OW42104  13.632  12.078   5.477
46777SOL    HW142105  13.574  12.101   5.405
46777SOL    HW242106  13.581  12.096   5.556
46778SOL     OW42107   2.849  14.527  14.294
46778SOL    HW142108   2.931  14.482  14.275
46778SOL    HW242109   2.831  14.505  14.386
46779SOL     OW42110  14.316   1.548  12.307
46779SOL    HW142111  14.370   1.626  12.322
46779SOL    HW242112  14.229   1.571  12.340
46780SOL     OW42113   0.373  10.949  14.173
46780SOL    HW142114   0.286  10.976  14.142
46780SOL    HW242115   0.422  10.933  14.093
46781SOL     OW42116   4.220  11.298  10.883
46781SOL    HW142117   4.222  11.342  10.798
46781SOL    HW242118   4.290  11.340  10.933
46782SOL     OW42119   1.005   6.220   6.694
46782SOL    HW142120   0.928   6.239   6.749
46782SOL    HW242121   1.027   6.304   6.654
46783SOL     OW42122   4.160   9.455  11.745
46783SOL    HW142123   4.200   9.408  11.818
46783SOL    HW242124   4.158   9.547  11.774
46784SOL     OW42125   5.234  12.682   8.100
46784SOL    HW142126   5.169  12.732   8.050
46784SOL    HW242127   5.192  12.666   8.184
46785SOL     OW42128  13.216   7.990   6.965
46785SOL    HW142129  13.263   7.987   6.882
46785SOL    HW242130  13.124   8.003   6.940
46786SOL     OW42131   5.248   9.639   7.633
46786SOL    HW142132   5.220   9.702   7.698
46786SOL    HW242133   5.328   9.676   7.596
46787SOL     OW42134  12.308   3.563  11.008
46787SOL    HW142135  12.400   3.567  10.983
46787SOL    HW242136  12.308   3.513  11.090
46788SOL     OW42137   8.587   1.546   4.776
46788SOL    HW142138   8.649   1.474   4.768
46788SOL    HW242139   8.622   1.615   4.721
46789SOL     OW42140  13.696  11.617  12.680
46789SOL    HW142141  13.772  11.616  12.737
46789SOL    HW242142  13.698  11.703  12.639
46790SOL     OW42143   0.992  11.455   3.761
46790SOL    HW142144   1.073  11.507   3.763
46790SOL    HW242145   0.976  11.440   3.668
46791SOL     OW42146   1.581   5.194   5.937
46791SOL    HW142147   1.652   5.132   5.922
46791SOL    HW242148   1.521   5.180   5.864
46792SOL     OW42149   4.880   0.421   7.134
46792SOL    HW142150   4.800   0.401   7.086
46792SOL    HW242151   4.941   0.351   7.110
46793SOL     OW42152   5.744   0.376   1.349
46793SOL    HW142153   5.691   0.301   1.322
46793SOL    HW242154   5.833   0.342   1.352
46794SOL     OW42155   4.155   7.088   2.034
46794SOL    HW142156   4.224   7.047   1.981
46794SOL    HW242157   4.097   7.129   1.971
46795SOL     OW42158   7.091   5.774   1.059
46795SOL    HW142159   7.044   5.823   1.126
46795SOL    HW242160   7.184   5.792   1.078
46796SOL     OW42161   9.091   5.776   5.350
46796SOL    HW142162   9.044   5.702   5.387
46796SOL    HW242163   9.156   5.798   5.417
46797SOL     OW42164   7.049   1.578   5.939
46797SOL    HW142165   7.002   1.649   5.982
46797SOL    HW242166   6.987   1.505   5.937
46798SOL     OW42167  12.779   6.737   3.151
46798SOL    HW142168  12.741   6.699   3.072
46798SOL    HW242169  12.874   6.729   3.138
46799SOL     OW42170   0.963   3.442  10.489
46799SOL    HW142171   0.918   3.522  10.517
46799SOL    HW242172   0.913   3.412  10.413
46800SOL     OW42173   9.486   5.884  12.845
46800SOL    HW142174   9.548   5.902  12.916
46800SOL    HW242175   9.440   5.967  12.832
46801SOL     OW42176  14.429   5.437  10.280
46801SOL    HW142177  14.371   5.395  10.344
46801SOL    HW242178  14.388   5.419  10.196
46802SOL     OW42179  14.136   3.097   7.937
46802SOL    HW142180  14.050   3.107   7.897
46802SOL    HW242181  14.187   3.170   7.903
46803SOL     OW42182   5.939   6.801  11.142
46803SOL    HW142183   6.029   6.793  11.109
46803SOL    HW242184   5.884   6.792  11.064
46804SOL     OW42185   3.682  14.692   3.283
46804SOL    HW142186   3.613  14.709   3.347
46804SOL    HW242187   3.702  14.599   3.293
46805SOL     OW42188   9.642  12.418  14.794
46805SOL    HW142189   9.613  12.349  14.735
46805SOL    HW242190   9.704  12.469  14.743
46806SOL     OW42191  13.705   4.079   2.749
46806SOL    HW142192  13.746   4.070   2.835
46806SOL    HW242193  13.773   4.115   2.693
46807SOL     OW42194   4.946  14.257   6.874
46807SOL    HW142195   4.884  14.187   6.854
46807SOL    HW242196   4.972  14.243   6.965
46808SOL     OW42197   7.881  12.278  13.931
46808SOL    HW142198   7.834  12.300  13.850
46808SOL    HW242199   7.945  12.349  13.941
46809SOL     OW42200   4.740  13.999  11.937
46809SOL    HW142201   4.645  13.999  11.925
46809SOL    HW242202   4.754  13.948  12.017
46810SOL     OW42203   8.666   8.399  13.882
46810SOL    HW142204   8.573   8.398  13.907
46810SOL    HW242205   8.684   8.309  13.855
46811SOL     OW42206   0.894  10.504   2.222
46811SOL    HW142207   0.813  10.548   2.246
46811SOL    HW242208   0.881  10.477   2.131
46812SOL     OW42209  11.188   9.730   6.594
46812SOL    HW142210  11.117   9.685   6.640
46812SOL    HW242211  11.264   9.717   6.650
46813SOL     OW42212   4.202  10.816  14.599
46813SOL    HW142213   4.257  10.741  14.579
46813SOL    HW242214   4.134  10.782  14.657
46814SOL     OW42215   3.250  10.781   7.477
46814SOL    HW142216   3.293  10.704   7.439
46814SOL    HW242217   3.314  10.851   7.470
46815SOL     OW42218  14.680   5.219   9.684
46815SOL    HW142219  14.772   5.221   9.658
46815SOL    HW242220  14.640   5.288   9.631
46816SOL     OW42221  11.695   6.298   7.215
46816SOL    HW142222  11.677   6.205   7.229
46816SOL    HW242223  11.636   6.343   7.276
46817SOL     OW42224   2.364   7.256   1.443
46817SOL    HW142225   2.348   7.328   1.503
46817SOL    HW242226   2.282   7.249   1.393
46818SOL     OW42227  13.769   5.057   1.377
46818SOL    HW142228  13.828   5.053   1.452
46818SOL    HW242229  13.785   4.975   1.330
46819SOL     OW42230   1.573   3.898   7.666
46819SOL    HW142231   1.487   3.857   7.657
46819SOL    HW242232   1.572   3.937   7.753
46820SOL     OW42233   0.995   6.449  12.163
46820SOL    HW142234   0.951   6.503  12.229
46820SOL    HW242235   0.947   6.366  12.164
46821SOL     OW42236  11.251   5.802   3.902
46821SOL    HW142237  11.342   5.832   3.909
46821SOL    HW242238  11.210   5.831   3.983
46822SOL     OW42239   8.535   2.587   2.092
46822SOL    HW142240   8.513   2.661   2.149
46822SOL    HW242241   8.464   2.524   2.106
46823SOL     OW42242   9.861  12.128   1.858
46823SOL    HW142243   9.935  12.174   1.820
46823SOL    HW242244   9.786  12.184   1.840
46824SOL     OW42245   4.901  12.162  14.774
46824SOL    HW142246   4.877  12.204  14.692
46824SOL    HW242247   4.866  12.220  14.842
46825SOL     OW42248  10.086   8.409   3.313
46825SOL    HW142249  10.174   8.383   3.285
46825SOL    HW242250  10.100   8.484   3.370
46826SOL     OW42251   6.906   9.146   9.870
46826SOL    HW142252   6.970   9.079   9.842
46826SOL    HW242253   6.843   9.150   9.798
46827SOL     OW42254  10.943   8.772   9.694
46827SOL    HW142255  10.862   8.741   9.735
46827SOL    HW242256  10.959   8.857   9.735
46828SOL     OW42257   9.318   4.492  10.160
46828SOL    HW142258   9.359   4.420  10.207
46828SOL    HW242259   9.390   4.554  10.143
46829SOL     OW42260   7.445   1.804   6.361
46829SOL    HW142261   7.402   1.725   6.395
46829SOL    HW242262   7.520   1.817   6.420
46830SOL     OW42263   8.152   7.263  14.826
46830SOL    HW142264   8.130   7.346  14.867
46830SOL    HW242265   8.069   7.215  14.822
46831SOL     OW42266   3.042   3.367  11.166
46831SOL    HW142267   3.055   3.461  11.162
46831SOL    HW242268   3.079   3.334  11.084
46832SOL     OW42269  11.887  14.462   7.004
46832SOL    HW142270  11.948  14.528   6.969
46832SOL    HW242271  11.822  14.450   6.935
46833SOL     OW42272  12.405   9.531   5.443
46833SOL    HW142273  12.493   9.561   5.466
46833SOL    HW242274  12.416   9.438   5.424
46834SOL     OW42275   5.771   8.296   0.738
46834SOL    HW142276   5.729   8.341   0.811
46834SOL    HW242277   5.753   8.203   0.753
46835SOL     OW42278   7.766   5.149  14.724
46835SOL    HW142279   7.691   5.090  14.712
46835SOL    HW242280   7.754   5.216  14.657
46836SOL     OW42281   9.914  11.129  11.031
46836SOL    HW142282   9.959  11.158  11.110
46836SOL    HW242283   9.973  11.065  10.992
46837SOL     OW42284  13.133   1.100   1.213
46837SOL    HW142285  13.039   1.085   1.219
46837SOL    HW242286  13.143   1.164   1.143
46838SOL     OW42287  13.410   8.625   8.117
46838SOL    HW142288  13.319   8.654   8.122
46838SOL    HW242289  13.432   8.634   8.024
46839SOL     OW42290   2.584   7.905   0.450
46839SOL    HW142291   2.493   7.884   0.426
46839SOL    HW242292   2.636   7.875   0.375
46840SOL     OW42293   4.276   6.445  12.271
46840SOL    HW142294   4.342   6.479  12.332
46840SOL    HW242295   4.250   6.361  12.309
46841SOL     OW42296   5.515   5.226   2.445
46841SOL    HW142297   5.549   5.310   2.413
46841SOL    HW242298   5.450   5.250   2.511
46842SOL     OW42299  12.392  14.204  11.381
46842SOL    HW142300  12.456  14.139  11.350
46842SOL    HW242301  12.392  14.193  11.476
46843SOL     OW42302   6.359   5.106  13.541
46843SOL    HW142303   6.419   5.051  13.592
46843SOL    HW242304   6.415   5.172  13.501
46844SOL     OW42305   0.445   4.194   2.668
46844SOL    HW142306   0.384   4.148   2.610
46844SOL    HW242307   0.469   4.273   2.620
46845SOL     OW42308  10.788   1.665  10.334
46845SOL    HW142309  10.723   1.721  10.292
46845SOL    HW242310  10.794   1.588  10.277
46846SOL     OW42311   0.812   8.418   4.529
46846SOL    HW142312   0.731   8.430   4.578
46846SOL    HW242313   0.855   8.344   4.572
46847SOL     OW42314   4.607  14.225   7.124
46847SOL    HW142315   4.583  14.135   7.143
46847SOL    HW242316   4.681  14.243   7.181
46848SOL     OW42317   5.633   2.098  11.211
46848SOL    HW142318   5.604   2.168  11.151
46848SOL    HW242319   5.695   2.141  11.270
46849SOL     OW42320   6.755   4.264   2.570
46849SOL    HW142321   6.683   4.274   2.631
46849SOL    HW242322   6.834   4.272   2.623
46850SOL     OW42323  12.265   5.747   4.266
46850SOL    HW142324  12.285   5.782   4.353
46850SOL    HW242325  12.342   5.769   4.214
46851SOL     OW42326   0.916  14.581  13.043
46851SOL    HW142327   0.844  14.550  12.989
46851SOL    HW242328   0.982  14.609  12.980
46852SOL     OW42329   1.028  12.412   5.378
46852SOL    HW142330   0.966  12.441   5.311
46852SOL    HW242331   1.096  12.366   5.330
46853SOL     OW42332   1.622   6.436   1.948
46853SOL    HW142333   1.703   6.478   1.921
46853SOL    HW242334   1.650   6.367   2.008
46854SOL     OW42335   9.611  12.696   6.739
46854SOL    HW142336   9.629  12.702   6.833
46854SOL    HW242337   9.683  12.743   6.697
46855SOL     OW42338  14.176  10.987   2.637
46855SOL    HW142339  14.128  11.039   2.573
46855SOL    HW242340  14.167  10.897   2.606
46856SOL     OW42341  11.828   1.500   5.216
46856SOL    HW142342  11.880   1.423   5.238
46856SOL    HW242343  11.755   1.498   5.279
46857SOL     OW42344  10.809  11.981  14.465
46857SOL    HW142345  10.770  12.045  14.524
46857SOL    HW242346  10.904  11.989  14.480
46858SOL     OW42347   2.414   1.627   9.666
46858SOL    HW142348   2.462   1.679   9.601
46858SOL    HW242349   2.464   1.638   9.747
46859SOL     OW42350   6.056   2.334  10.414
46859SOL    HW142351   6.047   2.335  10.319
46859SOL    HW242352   6.035   2.243  10.439
46860SOL     OW42353  11.845   6.447  10.033
46860SOL    HW142354  11.898   6.510  10.083
46860SOL    HW242355  11.760   6.490  10.025
46861SOL     OW42356   1.258  10.440  12.195
46861SOL    HW142357   1.295  10.392  12.269
46861SOL    HW242358   1.329  10.495  12.164
46862SOL     OW42359   9.549  10.026   6.407
46862SOL    HW142360   9.527   9.932   6.405
46862SOL    HW242361   9.497  10.061   6.479
46863SOL     OW42362   8.802   2.384  11.830
46863SOL    HW142363   8.786   2.380  11.736
46863SOL    HW242364   8.870   2.452  11.840
46864SOL     OW42365   1.005   0.942   1.205
46864SOL    HW142366   0.914   0.971   1.209
46864SOL    HW242367   1.002   0.861   1.154
46865SOL     OW42368  11.742   0.517  12.342
46865SOL    HW142369  11.836   0.534  12.351
46865SOL    HW242370  11.700   0.598  12.372
46866SOL     OW42371  11.678   2.791   0.863
46866SOL    HW142372  11.663   2.852   0.936
46866SOL    HW242373  11.773   2.786   0.856
46867SOL     OW42374  12.910   9.116   8.906
46867SOL    HW142375  12.908   9.053   8.834
46867SOL    HW242376  12.820   9.121   8.938
46868SOL     OW42377  13.606   1.236   4.437
46868SOL    HW142378  13.683   1.236   4.381
46868SOL    HW242379  13.579   1.144   4.440
46869SOL     OW42380   4.327   3.846   8.389
46869SOL    HW142381   4.299   3.935   8.367
46869SOL    HW242382   4.260   3.790   8.351
46870SOL     OW42383   3.956   1.258  10.846
46870SOL    HW142384   4.024   1.320  10.819
46870SOL    HW242385   3.929   1.216  10.764
46871SOL     OW42386  10.424   7.998   1.973
46871SOL    HW142387  10.496   7.966   1.919
46871SOL    HW242388  10.441   7.962   2.060
46872SOL     OW42389   0.093  10.576   8.997
46872SOL    HW142390   0.156  10.546   9.062
46872SOL    HW242391   0.043  10.645   9.041
46873SOL     OW42392   9.971   3.058   5.852
46873SOL    HW142393   9.927   2.999   5.912
46873SOL    HW242394  10.060   3.066   5.887
46874SOL     OW42395   5.247   0.071  11.442
46874SOL    HW142396   5.162   0.062  11.483
46874SOL    HW242397   5.246   0.008  11.370
46875SOL     OW42398  10.559   4.684   6.152
46875SOL    HW142399  10.472   4.647   6.138
46875SOL    HW242400  10.543   4.762   6.205
46876SOL     OW42401   8.884   7.071   0.303
46876SOL    HW142402   8.874   7.002   0.369
46876SOL    HW242403   8.836   7.145   0.339
46877SOL     OW42404  12.521   2.896  11.533
46877SOL    HW142405  12.426   2.889  11.538
46877SOL    HW242406  12.538   2.986  11.507
46878SOL     OW42407   9.752   2.591  13.628
46878SOL    HW142408   9.739   2.520  13.565
46878SOL    HW242409   9.736   2.551  13.713
46879SOL     OW42410  13.727   7.369   0.620
46879SOL    HW142411  13.771   7.363   0.536
46879SOL    HW242412  13.709   7.462   0.631
46880SOL     OW42413  10.006   6.251  11.145
46880SOL    HW142414   9.996   6.174  11.089
46880SOL    HW242415   9.961   6.321  11.098
46881SOL     OW42416   9.750  11.255   5.268
46881SOL    HW142417   9.718  11.166   5.253
46881SOL    HW242418   9.832  11.259   5.217
46882SOL     OW42419  14.195   7.618  11.007
46882SOL    HW142420  14.171   7.708  10.984
46882SOL    HW242421  14.120   7.565  10.979
46883SOL     OW42422  13.781   7.351  13.059
46883SOL    HW142423  13.791   7.437  13.018
46883SOL    HW242424  13.734   7.369  13.140
46884SOL     OW42425   4.742  10.645   9.338
46884SOL    HW142426   4.806  10.664   9.269
46884SOL    HW242427   4.673  10.596   9.293
46885SOL     OW42428   9.395   2.341   1.854
46885SOL    HW142429   9.396   2.267   1.915
46885SOL    HW242430   9.441   2.411   1.901
46886SOL     OW42431  10.868   3.272   0.310
46886SOL    HW142432  10.848   3.241   0.398
46886SOL    HW242433  10.854   3.195   0.254
46887SOL     OW42434  10.061   4.348   1.911
46887SOL    HW142435  10.017   4.429   1.886
46887SOL    HW242436  10.149   4.356   1.872
46888SOL     OW42437   4.901  13.255   7.299
46888SOL    HW142438   4.931  13.346   7.298
46888SOL    HW242439   4.899  13.229   7.207
46889SOL     OW42440   5.270   1.893   5.876
46889SOL    HW142441   5.226   1.823   5.924
46889SOL    HW242442   5.360   1.892   5.910
46890SOL     OW42443  13.438   0.136  11.474
46890SOL    HW142444  13.387   0.066  11.516
46890SOL    HW242445  13.501   0.089  11.419
46891SOL     OW42446   9.120   8.257   6.618
46891SOL    HW142447   9.077   8.302   6.545
46891SOL    HW242448   9.120   8.165   6.593
46892SOL     OW42449   3.528   5.020   1.968
46892SOL    HW142450   3.491   5.021   2.056
46892SOL    HW242451   3.485   5.092   1.922
46893SOL     OW42452   5.559   7.307   5.245
46893SOL    HW142453   5.562   7.300   5.340
46893SOL    HW242454   5.562   7.216   5.214
46894SOL     OW42455   6.821   3.282   9.496
46894SOL    HW142456   6.914   3.300   9.482
46894SOL    HW242457   6.779   3.310   9.414
46895SOL     OW42458   5.519  12.026  12.014
46895SOL    HW142459   5.533  12.052  12.105
46895SOL    HW242460   5.561  11.940  12.008
46896SOL     OW42461   6.317   3.127   4.081
46896SOL    HW142462   6.302   3.161   4.169
46896SOL    HW242463   6.409   3.102   4.080
46897SOL     OW42464  13.674   5.439  13.973
46897SOL    HW142465  13.649   5.356  13.934
46897SOL    HW242466  13.599   5.497  13.956
46898SOL     OW42467   7.269   5.195   0.499
46898SOL    HW142468   7.185   5.223   0.461
46898SOL    HW242469   7.281   5.251   0.576
46899SOL     OW42470   6.503   0.663   3.220
46899SOL    HW142471   6.537   0.748   3.249
46899SOL    HW242472   6.510   0.607   3.297
46900SOL     OW42473   6.465  13.901   2.926
46900SOL    HW142474   6.523  13.847   2.980
46900SOL    HW242475   6.377  13.875   2.952
46901SOL     OW42476   0.217   9.655  14.439
46901SOL    HW142477   0.284   9.606  14.391
46901SOL    HW242478   0.164   9.588  14.481
46902SOL     OW42479  10.179   0.437   0.519
46902SOL    HW142480  10.170   0.349   0.483
46902SOL    HW242481  10.165   0.495   0.445
46903SOL     OW42482  14.458   8.091   9.978
46903SOL    HW142483  14.544   8.130   9.995
46903SOL    HW242484  14.475   8.021   9.916
46904SOL     OW42485   8.308   6.155   7.879
46904SOL    HW142486   8.238   6.091   7.895
46904SOL    HW242487   8.266   6.224   7.828
46905SOL     OW42488   3.541  13.666   2.437
46905SOL    HW142489   3.447  13.671   2.455
46905SOL    HW242490   3.581  13.655   2.523
46906SOL     OW42491   1.191   5.679  12.184
46906SOL    HW142492   1.108   5.651  12.223
46906SOL    HW242493   1.177   5.668  12.089
46907SOL     OW42494   3.128   3.170   3.320
46907SOL    HW142495   3.105   3.222   3.242
46907SOL    HW242496   3.116   3.230   3.393
46908SOL     OW42497   8.205   3.561   3.366
46908SOL    HW142498   8.129   3.559   3.424
46908SOL    HW242499   8.261   3.490   3.396
46909SOL     OW42500   1.076   7.299  10.970
46909SOL    HW142501   1.045   7.349  11.046
46909SOL    HW242502   1.136   7.235  11.007
46910SOL     OW42503  10.237  11.351  11.207
46910SOL    HW142504  10.317  11.383  11.166
46910SOL    HW242505  10.262  11.328  11.296
46911SOL     OW42506   9.716  13.410   2.064
46911SOL    HW142507   9.630  13.369   2.057
46911SOL    HW242508   9.776  13.349   2.021
46912SOL     OW42509   5.047  13.847   9.571
46912SOL    HW142510   4.974  13.794   9.537
46912SOL    HW242511   5.053  13.822   9.663
46913SOL     OW42512   0.010   0.540   8.877
46913SOL    HW142513  14.874   0.633   8.857
46913SOL    HW242514  14.843   0.494   8.806
46914SOL     OW42515   2.476   5.175   3.713
46914SOL    HW142516   2.425   5.256   3.722
46914SOL    HW242517   2.563   5.197   3.747
46915SOL     OW42518   3.692   9.769   3.882
46915SOL    HW142519   3.680   9.735   3.971
46915SOL    HW242520   3.651   9.704   3.825
46916SOL     OW42521   5.837   0.598   8.999
46916SOL    HW142522   5.784   0.634   8.927
46916SOL    HW242523   5.921   0.576   8.958
46917SOL     OW42524  12.571   2.154   3.354
46917SOL    HW142525  12.510   2.222   3.384
46917SOL    HW242526  12.655   2.179   3.394
46918SOL     OW42527  14.074   0.133  10.485
46918SOL    HW142528  14.071   0.059  10.424
46918SOL    HW242529  14.117   0.203  10.436
46919SOL     OW42530  13.874  14.605   6.949
46919SOL    HW142531  13.877  14.698   6.924
46919SOL    HW242532  13.787  14.594   6.989
46920SOL     OW42533   6.981  10.361   6.499
46920SOL    HW142534   6.962  10.280   6.451
46920SOL    HW242535   7.043  10.335   6.567
46921SOL     OW42536  13.857   5.715  13.744
46921SOL    HW142537  13.925   5.738  13.681
46921SOL    HW242538  13.788   5.673  13.692
46922SOL     OW42539   4.521   2.575  12.136
46922SOL    HW142540   4.602   2.615  12.169
46922SOL    HW242541   4.551   2.511  12.072
46923SOL     OW42542  12.417   5.505   0.524
46923SOL    HW142543  12.510   5.489   0.512
46923SOL    HW242544  12.399   5.583   0.471
46924SOL     OW42545   5.189   3.165  13.155
46924SOL    HW142546   5.119   3.202  13.208
46924SOL    HW242547   5.144   3.114  13.088
46925SOL     OW42548  11.655   7.772  12.736
46925SOL    HW142549  11.601   7.809  12.666
46925SOL    HW242550  11.745   7.788  12.708
46926SOL     OW42551  12.622   3.255   6.468
46926SOL    HW142552  12.543   3.272   6.417
46926SOL    HW242553  12.593   3.198   6.539
46927SOL     OW42554   3.625   5.355  11.340
46927SOL    HW142555   3.571   5.402  11.403
46927SOL    HW242556   3.680   5.422  11.300
46928SOL     OW42557   9.791   2.471   0.777
46928SOL    HW142558   9.712   2.440   0.823
46928SOL    HW242559   9.846   2.507   0.846
46929SOL     OW42560   5.821  12.977   1.946
46929SOL    HW142561   5.833  13.008   1.856
46929SOL    HW242562   5.808  13.057   1.997
46930SOL     OW42563   3.283   0.174   7.099
46930SOL    HW142564   3.244   0.153   7.014
46930SOL    HW242565   3.246   0.259   7.121
46931SOL     OW42566   2.666   3.193   7.075
46931SOL    HW142567   2.585   3.143   7.079
46931SOL    HW242568   2.699   3.194   7.164
46932SOL     OW42569   4.583   3.905   7.936
46932SOL    HW142570   4.653   3.877   7.877
46932SOL    HW242571   4.522   3.831   7.937
46933SOL     OW42572  12.103  10.027   3.858
46933SOL    HW142573  12.196  10.007   3.866
46933SOL    HW242574  12.088  10.037   3.764
46934SOL     OW42575   7.043   6.680   8.318
46934SOL    HW142576   6.969   6.620   8.320
46934SOL    HW242577   7.010   6.761   8.358
46935SOL     OW42578   2.238   5.767  13.178
46935SOL    HW142579   2.275   5.847  13.141
46935SOL    HW242580   2.166   5.744  13.119
46936SOL     OW42581  11.640   7.939   1.757
46936SOL    HW142582  11.642   7.849   1.789
46936SOL    HW242583  11.568   7.980   1.806
46937SOL     OW42584   3.796  12.607   7.992
46937SOL    HW142585   3.799  12.520   7.951
46937SOL    HW242586   3.835  12.594   8.078
46938SOL     OW42587   8.510   6.316   3.737
46938SOL    HW142588   8.596   6.320   3.779
46938SOL    HW242589   8.482   6.225   3.749
46939SOL     OW42590   3.560  12.365   5.026
46939SOL    HW142591   3.644  12.366   5.072
46939SOL    HW242592   3.496  12.390   5.092
46940SOL     OW42593   0.399   8.766  14.537
46940SOL    HW142594   0.333   8.697  14.535
46940SOL    HW242595   0.355   8.843  14.499
46941SOL     OW42596  12.199   2.250   0.967
46941SOL    HW142597  12.153   2.218   1.044
46941SOL    HW242598  12.237   2.171   0.928
46942SOL     OW42599  11.556   7.333   0.311
46942SOL    HW142600  11.481   7.384   0.281
46942SOL    HW242601  11.539   7.316   0.403
46943SOL     OW42602   5.256  14.664   4.432
46943SOL    HW142603   5.267  14.682   4.526
46943SOL    HW242604   5.345  14.667   4.397
46944SOL     OW42605   2.402   2.272   7.533
46944SOL    HW142606   2.394   2.281   7.438
46944SOL    HW242607   2.488   2.308   7.553
46945SOL     OW42608   5.063  13.117  14.604
46945SOL    HW142609   5.005  13.087  14.674
46945SOL    HW242610   5.151  13.108  14.641
46946SOL     OW42611  12.329   0.711   5.154
46946SOL    HW142612  12.310   0.787   5.209
46946SOL    HW242613  12.245   0.664   5.150
46947SOL     OW42614   6.294  12.165   0.171
46947SOL    HW142615   6.338  12.247   0.146
46947SOL    HW242616   6.357  12.120   0.227
46948SOL     OW42617  10.822   9.944  10.180
46948SOL    HW142618  10.911   9.974  10.162
46948SOL    HW242619  10.782  10.016  10.229
46949SOL     OW42620  13.383   5.067   3.275
46949SOL    HW142621  13.314   5.118   3.233
46949SOL    HW242622  13.340   5.025   3.350
46950SOL     OW42623  10.991   4.693  10.052
46950SOL    HW142624  11.064   4.743  10.015
46950SOL    HW242625  11.033   4.623  10.103
46951SOL     OW42626   5.032  13.680  10.646
46951SOL    HW142627   5.030  13.612  10.579
46951SOL    HW242628   5.096  13.648  10.710
46952SOL     OW42629   4.048  12.760   7.601
46952SOL    HW142630   4.011  12.848   7.600
46952SOL    HW242631   4.023  12.724   7.686
46953SOL     OW42632   2.942  11.381  14.771
46953SOL    HW142633   2.997  11.449  14.731
46953SOL    HW242634   2.881  11.357  14.702
46954SOL     OW42635   3.974   1.208   4.206
46954SOL    HW142636   3.956   1.272   4.275
46954SOL    HW242637   4.016   1.259   4.136
46955SOL     OW42638   4.143   6.972   7.008
46955SOL    HW142639   4.166   7.017   6.927
46955SOL    HW242640   4.171   6.882   6.993
46956SOL     OW42641   4.457   7.003  13.752
46956SOL    HW142642   4.416   6.920  13.778
46956SOL    HW242643   4.532   6.977  13.699
46957SOL     OW42644   6.480   2.229   4.946
46957SOL    HW142645   6.417   2.302   4.946
46957SOL    HW242646   6.536   2.247   4.871
46958SOL     OW42647  12.820   0.395   9.519
46958SOL    HW142648  12.859   0.370   9.435
46958SOL    HW242649  12.734   0.353   9.518
46959SOL     OW42650   7.062   3.381   9.464
46959SOL    HW142651   7.072   3.420   9.378
46959SOL    HW242652   7.058   3.456   9.524
46960SOL     OW42653   1.272   6.386  12.090
46960SOL    HW142654   1.310   6.301  12.107
46960SOL    HW242655   1.178   6.374  12.107
46961SOL     OW42656   6.486  13.134   2.174
46961SOL    HW142657   6.560  13.088   2.213
46961SOL    HW242658   6.506  13.226   2.187
46962SOL     OW42659  14.863  10.662  11.369
46962SOL    HW142660  14.861  10.639  11.462
46962SOL    HW242661  14.867  10.577  11.324
46963SOL     OW42662   8.940   4.149   2.507
46963SOL    HW142663   8.887   4.190   2.438
46963SOL    HW242664   8.998   4.219   2.538
46964SOL     OW42665  13.026  14.791   5.793
46964SOL    HW142666  13.059  14.845   5.721
46964SOL    HW242667  12.960  14.735   5.753
46965SOL     OW42668   6.518   9.554   7.896
46965SOL    HW142669   6.536   9.518   7.983
46965SOL    HW242670   6.552   9.643   7.900
46966SOL     OW42671   3.952   1.146   6.571
46966SOL    HW142672   4.027   1.158   6.512
46966SOL    HW242673   3.886   1.208   6.539
46967SOL     OW42674  13.636   3.044   9.656
46967SOL    HW142675  13.589   3.095   9.590
46967SOL    HW242676  13.570   2.986   9.693
46968SOL     OW42677  14.566   6.418   1.725
46968SOL    HW142678  14.535   6.369   1.801
46968SOL    HW242679  14.618   6.490   1.762
46969SOL     OW42680  10.445  14.777  11.733
46969SOL    HW142681  10.527  14.795  11.688
46969SOL    HW242682  10.418  14.691  11.701
46970SOL     OW42683   5.131   6.059   9.138
46970SOL    HW142684   5.176   6.127   9.187
46970SOL    HW242685   5.057   6.033   9.193
46971SOL     OW42686   8.229  11.700   2.126
46971SOL    HW142687   8.293  11.744   2.183
46971SOL    HW242688   8.245  11.738   2.039
46972SOL     OW42689   6.618   7.910   8.800
46972SOL    HW142690   6.657   7.911   8.887
46972SOL    HW242691   6.691   7.888   8.741
46973SOL     OW42692  13.257  13.017  13.104
46973SOL    HW142693  13.310  12.937  13.110
46973SOL    HW242694  13.169  12.985  13.081
46974SOL     OW42695   9.906   5.071   0.945
46974SOL    HW142696   9.856   5.150   0.967
46974SOL    HW242697   9.876   5.005   1.007
46975SOL     OW42698   2.314   5.551  12.389
46975SOL    HW142699   2.321   5.466  12.431
46975SOL    HW242700   2.291   5.611  12.460
46976SOL     OW42701  13.915   5.727   0.421
46976SOL    HW142702  13.918   5.815   0.460
46976SOL    HW242703  14.004   5.712   0.389
46977SOL     OW42704  11.096   9.500   4.293
46977SOL    HW142705  11.151   9.553   4.235
46977SOL    HW242706  11.037   9.563   4.335
46978SOL     OW42707  14.429  14.398   3.109
46978SOL    HW142708  14.389  14.312   3.125
46978SOL    HW242709  14.398  14.423   3.023
46979SOL     OW42710   8.249   3.096   4.861
46979SOL    HW142711   8.331   3.144   4.864
46979SOL    HW242712   8.223   3.086   4.953
46980SOL     OW42713   6.337   6.278   1.810
46980SOL    HW142714   6.256   6.254   1.766
46980SOL    HW242715   6.313   6.351   1.867
46981SOL     OW42716   0.452   1.626   6.325
46981SOL    HW142717   0.433   1.657   6.236
46981SOL    HW242718   0.546   1.606   6.323
46982SOL     OW42719   5.576  13.139   4.201
46982SOL    HW142720   5.569  13.062   4.146
46982SOL    HW242721   5.485  13.169   4.212
46983SOL     OW42722   7.872  13.054   6.590
46983SOL    HW142723   7.864  13.149   6.583
46983SOL    HW242724   7.829  13.033   6.673
46984SOL     OW42725  11.662   5.526  10.049
46984SOL    HW142726  11.753   5.520  10.079
46984SOL    HW242727  11.668   5.565   9.961
46985SOL     OW42728   1.673   3.669   3.020
46985SOL    HW142729   1.608   3.718   2.969
46985SOL    HW242730   1.754   3.678   2.971
46986SOL     OW42731  11.333  10.001   1.345
46986SOL    HW142732  11.259   9.964   1.297
46986SOL    HW242733  11.298  10.021   1.432
46987SOL     OW42734   6.260   7.836  13.168
46987SOL    HW142735   6.210   7.873  13.241
46987SOL    HW242736   6.337   7.796  13.209
46988SOL     OW42737   5.496   6.603  12.410
46988SOL    HW142738   5.403   6.588  12.392
46988SOL    HW242739   5.502   6.606  12.506
46989SOL     OW42740   0.712   0.261  10.059
46989SOL    HW142741   0.628   0.307  10.065
46989SOL    HW242742   0.730   0.255   9.965
46990SOL     OW42743  13.896  11.652   1.777
46990SOL    HW142744  13.859  11.572   1.740
46990SOL    HW242745  13.954  11.686   1.709
46991SOL     OW42746   7.331  10.518  14.546
46991SOL    HW142747   7.392  10.554  14.482
46991SOL    HW242748   7.340  10.423  14.537
46992SOL     OW42749  10.411  11.440  14.428
46992SOL    HW142750  10.394  11.362  14.376
46992SOL    HW242751  10.475  11.489  14.378
46993SOL     OW42752  11.628   9.079   5.533
46993SOL    HW142753  11.619   9.157   5.588
46993SOL    HW242754  11.616   9.112   5.444
46994SOL     OW42755   9.627   4.005  13.975
46994SOL    HW142756   9.700   3.983  14.033
46994SOL    HW242757   9.582   3.921  13.960
46995SOL     OW42758  10.736   5.678   3.545
46995SOL    HW142759  10.642   5.660   3.555
46995SOL    HW242760  10.774   5.656   3.630
46996SOL     OW42761   9.910   4.860   8.458
46996SOL    HW142762   9.923   4.816   8.542
46996SOL    HW242763   9.997   4.863   8.419
46997SOL     OW42764   4.488   7.511   6.115
46997SOL    HW142765   4.395   7.523   6.096
46997SOL    HW242766   4.493   7.428   6.162
46998SOL     OW42767   1.742   5.742   6.231
46998SOL    HW142768   1.710   5.679   6.166
46998SOL    HW242769   1.663   5.788   6.260
46999SOL     OW42770  11.151  13.955  12.372
46999SOL    HW142771  11.138  13.941  12.465
46999SOL    HW242772  11.108  13.880  12.330
47000SOL     OW42773  14.016   9.540  14.687
47000SOL    HW142774  13.955   9.577  14.750
47000SOL    HW242775  14.064   9.474  14.736
47001SOL     OW42776   4.639   8.319  14.532
47001SOL    HW142777   4.711   8.377  14.507
47001SOL    HW242778   4.677   8.231  14.528
47002SOL     OW42779  14.359   5.976   1.473
47002SOL    HW142780  14.426   5.995   1.407
47002SOL    HW242781  14.290   6.040   1.456
47003SOL     OW42782  11.118   2.453   0.039
47003SOL    HW142783  11.109   2.507  14.837
47003SOL    HW242784  11.045   2.391   0.034
47004SOL     OW42785  10.338  10.637  12.206
47004SOL    HW142786  10.355  10.581  12.130
47004SOL    HW242787  10.420  10.633  12.256
47005SOL     OW42788  10.165   9.893   7.763
47005SOL    HW142789  10.186   9.851   7.846
47005SOL    HW242790  10.071   9.911   7.769
47006SOL     OW42791  11.002   9.834  10.452
47006SOL    HW142792  11.064   9.764  10.472
47006SOL    HW242793  10.916   9.797  10.470
47007SOL     OW42794   0.635   7.458  12.259
47007SOL    HW142795   0.555   7.484  12.213
47007SOL    HW242796   0.616   7.370  12.291
47008SOL     OW42797   9.330   2.270   2.889
47008SOL    HW142798   9.390   2.267   2.963
47008SOL    HW242799   9.280   2.189   2.895
47009SOL     OW42800   2.707   2.983   0.773
47009SOL    HW142801   2.709   2.964   0.679
47009SOL    HW242802   2.723   3.078   0.778
47010SOL     OW42803  12.449   1.929   0.407
47010SOL    HW142804  12.518   1.895   0.464
47010SOL    HW242805  12.461   2.023   0.408
47011SOL     OW42806  10.388   8.549  10.549
47011SOL    HW142807  10.466   8.565  10.601
47011SOL    HW242808  10.421   8.508  10.469
47012SOL     OW42809   4.771   2.739   5.870
47012SOL    HW142810   4.684   2.749   5.909
47012SOL    HW242811   4.828   2.719   5.945
47013SOL     OW42812   9.468   3.442   9.370
47013SOL    HW142813   9.392   3.493   9.343
47013SOL    HW242814   9.485   3.469   9.460
47014SOL     OW42815   4.936  11.454   6.805
47014SOL    HW142816   4.956  11.360   6.809
47014SOL    HW242817   4.926  11.472   6.712
47015SOL     OW42818   8.238   9.232  11.869
47015SOL    HW142819   8.320   9.280  11.864
47015SOL    HW242820   8.258   9.154  11.920
47016SOL     OW42821   2.507  11.043   4.393
47016SOL    HW142822   2.455  10.977   4.437
47016SOL    HW242823   2.591  11.042   4.438
47017SOL     OW42824   4.780  10.100   0.124
47017SOL    HW142825   4.839  10.174   0.134
47017SOL    HW242826   4.693  10.134   0.146
47018SOL     OW42827  11.122   6.854  13.733
47018SOL    HW142828  11.127   6.930  13.792
47018SOL    HW242829  11.141   6.889  13.647
47019SOL     OW42830  13.612   8.994  11.149
47019SOL    HW142831  13.667   8.988  11.227
47019SOL    HW242832  13.640   9.074  11.105
47020SOL     OW42833   5.645   0.449   8.753
47020SOL    HW142834   5.641   0.535   8.796
47020SOL    HW242835   5.709   0.460   8.683
47021SOL     OW42836  13.922  12.962  11.330
47021SOL    HW142837  13.840  13.011  11.332
47021SOL    HW242838  13.938  12.937  11.421
47022SOL     OW42839   4.669   1.110  11.589
47022SOL    HW142840   4.591   1.055  11.600
47022SOL    HW242841   4.731   1.054  11.542
47023SOL     OW42842  10.609   0.813   3.148
47023SOL    HW142843  10.617   0.793   3.241
47023SOL    HW242844  10.552   0.745   3.113
47024SOL     OW42845  13.576   4.789  11.408
47024SOL    HW142846  13.636   4.743  11.349
47024SOL    HW242847  13.542   4.862  11.356
47025SOL     OW42848   9.172  12.090   2.558
47025SOL    HW142849   9.112  12.122   2.490
47025SOL    HW242850   9.168  12.157   2.626
47026SOL     OW42851   9.478   1.768  13.281
47026SOL    HW142852   9.408   1.776  13.346
47026SOL    HW242853   9.558   1.793  13.327
47027SOL     OW42854   0.220   7.519  10.230
47027SOL    HW142855   0.162   7.532  10.155
47027SOL    HW242856   0.164   7.480  10.296
47028SOL     OW42857   1.849   3.657   8.955
47028SOL    HW142858   1.772   3.625   8.908
47028SOL    HW242859   1.822   3.657   9.047
47029SOL     OW42860   8.064   6.688   0.365
47029SOL    HW142861   8.097   6.772   0.397
47029SOL    HW242862   7.970   6.690   0.384
47030SOL     OW42863   6.352  10.316  13.075
47030SOL    HW142864   6.258  10.320  13.092
47030SOL    HW242865   6.382  10.242  13.127
47031SOL     OW42866  13.765   4.377   6.491
47031SOL    HW142867  13.768   4.293   6.446
47031SOL    HW242868  13.683   4.375   6.541
47032SOL     OW42869   8.481  13.311   2.641
47032SOL    HW142870   8.407  13.327   2.584
47032SOL    HW242871   8.457  13.234   2.692
47033SOL     OW42872   1.379   5.843   6.026
47033SOL    HW142873   1.366   5.938   6.031
47033SOL    HW242874   1.473   5.831   6.035
47034SOL     OW42875   8.932   7.576   7.236
47034SOL    HW142876   8.996   7.543   7.172
47034SOL    HW242877   8.958   7.534   7.318
47035SOL     OW42878   2.659  10.289   8.602
47035SOL    HW142879   2.674  10.296   8.696
47035SOL    HW242880   2.724  10.347   8.562
47036SOL     OW42881   2.633   9.320   0.451
47036SOL    HW142882   2.545   9.302   0.417
47036SOL    HW242883   2.660   9.238   0.492
47037SOL     OW42884   1.797   1.013   7.204
47037SOL    HW142885   1.805   1.030   7.110
47037SOL    HW242886   1.747   0.931   7.210
47038SOL     OW42887   8.800  14.493  11.936
47038SOL    HW142888   8.881  14.490  11.885
47038SOL    HW242889   8.731  14.509  11.872
47039SOL     OW42890   2.470   4.151   3.723
47039SOL    HW142891   2.420   4.073   3.744
47039SOL    HW242892   2.406   4.212   3.687
47040SOL     OW42893  10.684   5.500   5.705
47040SOL    HW142894  10.745   5.509   5.632
47040SOL    HW242895  10.611   5.449   5.670
47041SOL     OW42896   3.596  10.746  10.061
47041SOL    HW142897   3.681  10.704  10.074
47041SOL    HW242898   3.614  10.818  10.000
47042SOL     OW42899   9.716   7.875  11.089
47042SOL    HW142900   9.772   7.857  11.013
47042SOL    HW242901   9.777   7.884  11.162
47043SOL     OW42902   2.428   6.766   7.251
47043SOL    HW142903   2.476   6.843   7.221
47043SOL    HW242904   2.493   6.696   7.254
47044SOL     OW42905  11.160   4.184  12.187
47044SOL    HW142906  11.143   4.274  12.161
47044SOL    HW242907  11.118   4.131  12.119
47045SOL     OW42908   2.828   9.441  14.355
47045SOL    HW142909   2.905   9.393  14.386
47045SOL    HW242910   2.852   9.471  14.268
47046SOL     OW42911   8.659   4.598   2.894
47046SOL    HW142912   8.648   4.681   2.849
47046SOL    HW242913   8.570   4.566   2.908
47047SOL     OW42914   7.184   0.555   9.285
47047SOL    HW142915   7.205   0.463   9.271
47047SOL    HW242916   7.210   0.598   9.203
47048SOL     OW42917   8.825   9.623   5.113
47048SOL    HW142918   8.875   9.643   5.035
47048SOL    HW242919   8.760   9.693   5.119
47049SOL     OW42920   3.063   9.920   4.904
47049SOL    HW142921   2.968   9.914   4.910
47049SOL    HW242922   3.094   9.833   4.931
47050SOL     OW42923   7.396   1.126   8.185
47050SOL    HW142924   7.448   1.061   8.232
47050SOL    HW242925   7.458   1.168   8.126
47051SOL     OW42926   1.426   4.306   6.243
47051SOL    HW142927   1.395   4.362   6.314
47051SOL    HW242928   1.382   4.222   6.259
47052SOL     OW42929  11.388   3.361  11.642
47052SOL    HW142930  11.335   3.428  11.685
47052SOL    HW242931  11.325   3.304  11.599
47053SOL     OW42932   5.159   9.716  14.631
47053SOL    HW142933   5.106   9.755  14.562
47053SOL    HW242934   5.217   9.786  14.660
47054SOL     OW42935  14.021   7.066   9.527
47054SOL    HW142936  13.944   7.010   9.529
47054SOL    HW242937  14.031   7.090   9.435
47055SOL     OW42938  13.573   7.075   5.630
47055SOL    HW142939  13.590   7.040   5.718
47055SOL    HW242940  13.621   7.017   5.571
47056SOL     OW42941   6.861   7.931  13.846
47056SOL    HW142942   6.931   7.888  13.895
47056SOL    HW242943   6.794   7.949  13.912
47057SOL     OW42944   6.383   5.545   0.904
47057SOL    HW142945   6.445   5.473   0.908
47057SOL    HW242946   6.364   5.556   0.811
47058SOL     OW42947  14.140   2.484   0.635
47058SOL    HW142948  14.186   2.401   0.648
47058SOL    HW242949  14.073   2.485   0.703
47059SOL     OW42950  10.588  10.514   3.700
47059SOL    HW142951  10.586  10.579   3.769
47059SOL    HW242952  10.510  10.460   3.715
47060SOL     OW42953  12.038   1.029  14.183
47060SOL    HW142954  12.025   0.972  14.107
47060SOL    HW242955  12.006   0.978  14.257
47061SOL     OW42956   6.237   1.939   0.033
47061SOL    HW142957   6.188   1.964   0.111
47061SOL    HW242958   6.180   1.964  14.837
47062SOL     OW42959   0.343  10.808   2.019
47062SOL    HW142960   0.394  10.760   1.954
47062SOL    HW242961   0.408  10.850   2.075
47063SOL     OW42962   4.279   6.487   2.076
47063SOL    HW142963   4.196   6.465   2.034
47063SOL    HW242964   4.316   6.557   2.021
47064SOL     OW42965  11.325   0.118  14.349
47064SOL    HW142966  11.278   0.072  14.419
47064SOL    HW242967  11.417   0.102  14.367
47065SOL     OW42968   4.305  14.286  12.915
47065SOL    HW142969   4.251  14.352  12.957
47065SOL    HW242970   4.263  14.203  12.935
47066SOL     OW42971   7.361   1.721   9.964
47066SOL    HW142972   7.420   1.796   9.960
47066SOL    HW242973   7.380   1.679  10.048
47067SOL     OW42974  13.273   6.873   5.608
47067SOL    HW142975  13.234   6.956   5.635
47067SOL    HW242976  13.310   6.891   5.521
47068SOL     OW42977   3.459   9.270   8.978
47068SOL    HW142978   3.499   9.339   8.924
47068SOL    HW242979   3.464   9.191   8.924
47069SOL     OW42980   8.404   4.545  12.333
47069SOL    HW142981   8.383   4.452  12.336
47069SOL    HW242982   8.319   4.588  12.320
47070SOL     OW42983  14.422  11.079   8.625
47070SOL    HW142984  14.439  11.144   8.694
47070SOL    HW242985  14.506  11.035   8.612
47071SOL     OW42986   9.888   6.955  13.897
47071SOL    HW142987   9.834   6.892  13.850
47071SOL    HW242988   9.969   6.960  13.846
47072SOL     OW42989   3.862  12.715  11.959
47072SOL    HW142990   3.912  12.761  12.026
47072SOL    HW242991   3.907  12.735  11.877
47073SOL     OW42992   3.285   8.974   4.763
47073SOL    HW142993   3.252   8.886   4.776
47073SOL    HW242994   3.259   9.022   4.842
47074SOL     OW42995  13.373   0.522  10.774
47074SOL    HW142996  13.331   0.606  10.795
47074SOL    HW242997  13.301   0.459  10.772
47075SOL     OW42998   8.205   7.511   6.284
47075SOL    HW142999   8.226   7.551   6.199
47075SOL    HW243000   8.232   7.420   6.274
47076SOL     OW43001   0.808   8.148   1.443
47076SOL    HW143002   0.861   8.131   1.521
47076SOL    HW243003   0.802   8.063   1.399
47077SOL     OW43004   2.936   2.505  13.285
47077SOL    HW143005   2.986   2.504  13.203
47077SOL    HW243006   2.853   2.464  13.264
47078SOL     OW43007  11.531   4.403   9.260
47078SOL    HW143008  11.441   4.372   9.268
47078SOL    HW243009  11.524   4.482   9.207
47079SOL     OW43010   0.965  14.200  11.757
47079SOL    HW143011   0.988  14.206  11.849
47079SOL    HW243012   1.042  14.234  11.711
47080SOL     OW43013  14.814   0.411  11.118
47080SOL    HW143014  14.860   0.466  11.181
47080SOL    HW243015  14.793   0.470  11.046
47081SOL     OW43016   7.150   0.262   2.292
47081SOL    HW143017   7.152   0.312   2.210
47081SOL    HW243018   7.202   0.313   2.353
47082SOL     OW43019   7.724   3.619   9.482
47082SOL    HW143020   7.655   3.570   9.527
47082SOL    HW243021   7.775   3.552   9.436
47083SOL     OW43022   7.473   2.942  14.341
47083SOL    HW143023   7.414   3.011  14.313
47083SOL    HW243024   7.426   2.897  14.412
47084SOL     OW43025   6.362   0.189  13.853
47084SOL    HW143026   6.398   0.126  13.790
47084SOL    HW243027   6.429   0.257  13.860
47085SOL     OW43028  11.641  14.144  14.838
47085SOL    HW143029  11.733  14.118  14.829
47085SOL    HW243030  11.624  14.200  14.762
47086SOL     OW43031  11.320   6.038   0.055
47086SOL    HW143032  11.371   5.957   0.058
47086SOL    HW243033  11.374   6.102   0.101
47087SOL     OW43034   3.030   2.545   5.424
47087SOL    HW143035   3.028   2.538   5.328
47087SOL    HW243036   3.122   2.530   5.446
47088SOL     OW43037   5.229   8.939   7.032
47088SOL    HW143038   5.290   8.898   7.095
47088SOL    HW243039   5.193   9.014   7.079
47089SOL     OW43040   4.420   2.359   3.834
47089SOL    HW143041   4.397   2.306   3.911
47089SOL    HW243042   4.492   2.311   3.793
47090SOL     OW43043   9.010   0.901  10.219
47090SOL    HW143044   9.006   0.848  10.139
47090SOL    HW243045   8.919   0.924  10.237
47091SOL     OW43046   7.503  13.611   5.954
47091SOL    HW143047   7.410  13.598   5.973
47091SOL    HW243048   7.521  13.550   5.883
47092SOL     OW43049  11.897   6.378  14.615
47092SOL    HW143050  11.814   6.356  14.657
47092SOL    HW243051  11.926   6.296  14.575
47093SOL     OW43052   3.211   0.678   7.690
47093SOL    HW143053   3.121   0.651   7.705
47093SOL    HW243054   3.233   0.732   7.765
47094SOL     OW43055  10.956   3.773  11.105
47094SOL    HW143056  11.019   3.821  11.051
47094SOL    HW243057  10.941   3.692  11.057
47095SOL     OW43058   3.113   4.427   3.470
47095SOL    HW143059   3.186   4.471   3.513
47095SOL    HW243060   3.153   4.356   3.420
47096SOL     OW43061   8.837   6.793   6.004
47096SOL    HW143062   8.856   6.795   5.911
47096SOL    HW243063   8.812   6.703   6.023
47097SOL     OW43064   0.834   8.043  10.386
47097SOL    HW143065   0.887   8.078  10.457
47097SOL    HW243066   0.893   8.041  10.311
47098SOL     OW43067   0.994  12.641   2.368
47098SOL    HW143068   1.066  12.683   2.415
47098SOL    HW243069   0.949  12.712   2.323
47099SOL     OW43070   4.840   9.314   6.074
47099SOL    HW143071   4.833   9.226   6.112
47099SOL    HW243072   4.916   9.352   6.118
47100SOL     OW43073   2.094   8.075  12.393
47100SOL    HW143074   2.039   8.017  12.445
47100SOL    HW243075   2.046   8.157  12.390
47101SOL     OW43076   7.426   7.689   4.382
47101SOL    HW143077   7.402   7.603   4.347
47101SOL    HW243078   7.515   7.678   4.414
47102SOL     OW43079   9.640  11.778   7.847
47102SOL    HW143080   9.669  11.868   7.861
47102SOL    HW243081   9.585  11.783   7.769
47103SOL     OW43082  13.577   9.136   3.632
47103SOL    HW143083  13.487   9.166   3.648
47103SOL    HW243084  13.621   9.145   3.717
47104SOL     OW43085  11.536   5.931   2.717
47104SOL    HW143086  11.482   5.943   2.795
47104SOL    HW243087  11.613   5.883   2.748
47105SOL     OW43088   5.779   9.716   0.982
47105SOL    HW143089   5.768   9.714   0.887
47105SOL    HW243090   5.694   9.689   1.017
47106SOL     OW43091   8.501   7.581  13.655
47106SOL    HW143092   8.522   7.522  13.728
47106SOL    HW243093   8.515   7.668  13.691
47107SOL     OW43094   5.363  10.711   9.105
47107SOL    HW143095   5.291  10.770   9.128
47107SOL    HW243096   5.370  10.652   9.179
47108SOL     OW43097   7.561   4.598  14.594
47108SOL    HW143098   7.611   4.529  14.637
47108SOL    HW243099   7.471   4.566  14.594
47109SOL     OW43100  14.825   1.845   8.771
47109SOL    HW143101  14.831   1.928   8.724
47109SOL    HW243102  14.772   1.865   8.848
47110SOL     OW43103  10.461  12.818  11.957
47110SOL    HW143104  10.510  12.753  11.907
47110SOL    HW243105  10.376  12.823  11.914
47111SOL     OW43106   6.281  11.856  13.122
47111SOL    HW143107   6.367  11.861  13.163
47111SOL    HW243108   6.222  11.898  13.185
47112SOL     OW43109   1.094   2.853  12.002
47112SOL    HW143110   1.058   2.765  12.015
47112SOL    HW243111   1.018   2.911  12.002
47113SOL     OW43112   3.475   7.686   4.060
47113SOL    HW143113   3.381   7.701   4.067
47113SOL    HW243114   3.495   7.699   3.967
47114SOL     OW43115  11.903   2.216   6.345
47114SOL    HW143116  11.929   2.284   6.408
47114SOL    HW243117  11.826   2.175   6.385
47115SOL     OW43118  11.565   8.204   9.343
47115SOL    HW143119  11.659   8.194   9.330
47115SOL    HW243120  11.534   8.249   9.265
47116SOL     OW43121  12.185   4.697   9.029
47116SOL    HW143122  12.248   4.662   9.092
47116SOL    HW243123  12.145   4.772   9.074
47117SOL     OW43124   3.509   8.482   3.168
47117SOL    HW143125   3.526   8.576   3.170
47117SOL    HW243126   3.593   8.443   3.145
47118SOL     OW43127   0.516   5.615   1.991
47118SOL    HW143128   0.426   5.584   1.982
47118SOL    HW243129   0.508   5.697   2.040
47119SOL     OW43130  13.513   8.455  13.370
47119SOL    HW143131  13.479   8.366  13.366
47119SOL    HW243132  13.608   8.444  13.360
47120SOL     OW43133   7.232   7.430   0.590
47120SOL    HW143134   7.201   7.343   0.617
47120SOL    HW243135   7.308   7.446   0.646
47121SOL     OW43136   1.162   2.287   9.424
47121SOL    HW143137   1.235   2.227   9.434
47121SOL    HW243138   1.116   2.257   9.346
47122SOL     OW43139  11.497  13.438   1.084
47122SOL    HW143140  11.505  13.523   1.127
47122SOL    HW243141  11.441  13.387   1.142
47123SOL     OW43142   5.138   3.206   6.589
47123SOL    HW143143   5.114   3.255   6.510
47123SOL    HW243144   5.233   3.194   6.582
47124SOL     OW43145   5.788   7.831   1.899
47124SOL    HW143146   5.862   7.818   1.959
47124SOL    HW243147   5.827   7.824   1.812
47125SOL     OW43148   0.843   7.421  10.029
47125SOL    HW143149   0.810   7.482   9.962
47125SOL    HW243150   0.789   7.440  10.106
47126SOL     OW43151  10.136  14.467   6.718
47126SOL    HW143152  10.099  14.491   6.803
47126SOL    HW243153  10.086  14.390   6.691
47127SOL     OW43154   0.750   5.015  14.400
47127SOL    HW143155   0.706   4.944  14.446
47127SOL    HW243156   0.843   4.993  14.405
47128SOL     OW43157   7.940   9.912  12.101
47128SOL    HW143158   7.944   9.961  12.018
47128SOL    HW243159   7.911   9.825  12.075
47129SOL     OW43160   7.025  12.809   2.023
47129SOL    HW143161   6.997  12.745   1.958
47129SOL    HW243162   7.038  12.759   2.103
47130SOL     OW43163   3.391   9.215  13.705
47130SOL    HW143164   3.308   9.252  13.674
47130SOL    HW243165   3.409   9.142  13.646
47131SOL     OW43166  11.153  10.799  10.154
47131SOL    HW143167  11.148  10.890  10.185
47131SOL    HW243168  11.101  10.799  10.073
47132SOL     OW43169   1.947  13.191   2.107
47132SOL    HW143170   1.928  13.279   2.139
47132SOL    HW243171   2.038  13.175   2.131
47133SOL     OW43172   4.456   5.098   9.778
47133SOL    HW143173   4.522   5.086   9.710
47133SOL    HW243174   4.454   5.013   9.824
47134SOL     OW43175  11.141  12.486  10.931
47134SOL    HW143176  11.166  12.420  10.996
47134SOL    HW243177  11.071  12.444  10.881
47135SOL     OW43178  14.748  13.641  12.041
47135SOL    HW143179  14.776  13.704  11.974
47135SOL    HW243180  14.696  13.693  12.102
47136SOL     OW43181  11.233  12.236  12.829
47136SOL    HW143182  11.312  12.183  12.828
47136SOL    HW243183  11.241  12.288  12.909
47137SOL     OW43184  11.928   9.228   7.805
47137SOL    HW143185  11.972   9.144   7.800
47137SOL    HW243186  11.998   9.293   7.796
47138SOL     OW43187   3.898   7.374   1.940
47138SOL    HW143188   3.898   7.294   1.887
47138SOL    HW243189   3.990   7.387   1.962
47139SOL     OW43190   1.742   2.853   4.820
47139SOL    HW143191   1.749   2.916   4.748
47139SOL    HW243192   1.771   2.902   4.897
47140SOL     OW43193   8.198  11.913  12.307
47140SOL    HW143194   8.156  11.958  12.234
47140SOL    HW243195   8.258  11.850  12.266
47141SOL     OW43196  12.140   5.292   6.844
47141SOL    HW143197  12.145   5.335   6.759
47141SOL    HW243198  12.176   5.356   6.905
47142SOL     OW43199  10.978   6.480  13.181
47142SOL    HW143200  10.895   6.447  13.214
47142SOL    HW243201  10.974   6.575  13.196
47143SOL     OW43202   9.207   1.686   9.511
47143SOL    HW143203   9.169   1.599   9.517
47143SOL    HW243204   9.132   1.746   9.512
47144SOL     OW43205   8.242   8.096   3.416
47144SOL    HW143206   8.217   8.144   3.495
47144SOL    HW243207   8.184   8.020   3.415
47145SOL     OW43208   3.931   0.794   4.855
47145SOL    HW143209   3.975   0.762   4.777
47145SOL    HW243210   3.979   0.874   4.879
47146SOL     OW43211  11.979   1.342  11.769
47146SOL    HW143212  12.051   1.331  11.831
47146SOL    HW243213  12.011   1.408  11.707
47147SOL     OW43214  13.824   7.619   3.706
47147SOL    HW143215  13.866   7.564   3.772
47147SOL    HW243216  13.795   7.558   3.639
47148SOL     OW43217   1.304  11.054  12.379
47148SOL    HW143218   1.228  11.086  12.330
47148SOL    HW243219   1.379  11.096  12.337
47149SOL     OW43220  11.869   4.827   9.121
47149SOL    HW143221  11.923   4.895   9.081
47149SOL    HW243222  11.798   4.813   9.059
47150SOL     OW43223   0.368  11.313  10.663
47150SOL    HW143224   0.384  11.401  10.696
47150SOL    HW243225   0.294  11.281  10.714
47151SOL     OW43226   3.256   6.972  10.764
47151SOL    HW143227   3.350   6.978  10.745
47151SOL    HW243228   3.234   6.880  10.749
47152SOL     OW43229  14.813   4.679   5.750
47152SOL    HW143230  14.754   4.604   5.752
47152SOL    HW243231   0.020   4.641   5.725
47153SOL     OW43232  10.029   4.454  11.331
47153SOL    HW143233   9.975   4.532  11.344
47153SOL    HW243234  10.056   4.429  11.419
47154SOL     OW43235   5.285  14.230  11.527
47154SOL    HW143236   5.197  14.236  11.488
47154SOL    HW243237   5.334  14.301  11.487
47155SOL     OW43238  12.125  12.272   8.851
47155SOL    HW143239  12.046  12.278   8.905
47155SOL    HW243240  12.178  12.204   8.893
47156SOL     OW43241   7.369   4.502   5.654
47156SOL    HW143242   7.344   4.568   5.589
47156SOL    HW243243   7.442   4.455   5.613
47157SOL     OW43244   3.715   9.815   0.973
47157SOL    HW143245   3.779   9.755   1.012
47157SOL    HW243246   3.691   9.875   1.044
47158SOL     OW43247   1.637   3.245  14.743
47158SOL    HW143248   1.586   3.172  14.709
47158SOL    HW243249   1.574   3.295  14.796
47159SOL     OW43250   2.944   6.744   5.171
47159SOL    HW143251   2.913   6.834   5.168
47159SOL    HW243252   2.886   6.701   5.234
47160SOL     OW43253   0.704   9.561   5.268
47160SOL    HW143254   0.711   9.522   5.355
47160SOL    HW243255   0.658   9.496   5.216
47161SOL     OW43256  14.681   0.424   6.511
47161SOL    HW143257  14.625   0.348   6.526
47161SOL    HW243258  14.740   0.396   6.441
47162SOL     OW43259   4.005   7.624  12.853
47162SOL    HW143260   3.981   7.662  12.938
47162SOL    HW243261   4.099   7.643  12.845
47163SOL     OW43262   3.930   0.498  12.948
47163SOL    HW143263   4.001   0.480  12.886
47163SOL    HW243264   3.946   0.437  13.020
47164SOL     OW43265   7.890  10.353   5.110
47164SOL    HW143266   7.967  10.410   5.105
47164SOL    HW243267   7.916  10.284   5.171
47165SOL     OW43268   3.847  13.848  10.093
47165SOL    HW143269   3.901  13.919  10.128
47165SOL    HW243270   3.793  13.891  10.026
47166SOL     OW43271   2.194   1.452   1.480
47166SOL    HW143272   2.230   1.535   1.447
47166SOL    HW243273   2.248   1.432   1.556
47167SOL     OW43274   9.143   2.165  11.421
47167SOL    HW143275   9.061   2.172  11.469
47167SOL    HW243276   9.199   2.233  11.459
47168SOL     OW43277   1.637   6.110  10.743
47168SOL    HW143278   1.616   6.102  10.836
47168SOL    HW243279   1.706   6.177  10.740
47169SOL     OW43280  10.652   5.664  10.494
47169SOL    HW143281  10.697   5.660  10.578
47169SOL    HW243282  10.638   5.572  10.470
47170SOL     OW43283   3.822   1.343  12.216
47170SOL    HW143284   3.738   1.387  12.205
47170SOL    HW243285   3.845   1.358  12.308
47171SOL     OW43286   0.043   0.619   1.369
47171SOL    HW143287   0.005   0.538   1.334
47171SOL    HW243288   0.054   0.601   1.463
47172SOL     OW43289   6.897   8.874  10.986
47172SOL    HW143290   6.814   8.874  10.938
47172SOL    HW243291   6.964   8.879  10.919
47173SOL     OW43292   8.717   4.992   0.032
47173SOL    HW143293   8.721   4.914  14.855
47173SOL    HW243294   8.806   5.002   0.066
47174SOL     OW43295   0.310   3.417   6.570
47174SOL    HW143296   0.380   3.393   6.509
47174SOL    HW243297   0.356   3.450   6.647
47175SOL     OW43298   6.335   0.939  12.924
47175SOL    HW143299   6.291   0.887  12.856
47175SOL    HW243300   6.385   0.874  12.974
47176SOL     OW43301   2.061   9.996  10.533
47176SOL    HW143302   2.136  10.000  10.593
47176SOL    HW243303   2.035   9.904  10.534
47177SOL     OW43304   4.120   7.835   0.220
47177SOL    HW143305   4.126   7.774   0.145
47177SOL    HW243306   4.182   7.904   0.198
47178SOL     OW43307   6.428   6.460   7.999
47178SOL    HW143308   6.501   6.430   7.945
47178SOL    HW243309   6.388   6.380   8.033
47179SOL     OW43310   9.843  14.225   9.352
47179SOL    HW143311   9.855  14.311   9.392
47179SOL    HW243312   9.873  14.163   9.419
47180SOL     OW43313   1.264   6.865   6.084
47180SOL    HW143314   1.349   6.903   6.064
47180SOL    HW243315   1.201   6.934   6.065
47181SOL     OW43316  12.988   8.534   2.782
47181SOL    HW143317  12.995   8.439   2.798
47181SOL    HW243318  13.032   8.573   2.858
47182SOL     OW43319  12.953   6.478   0.236
47182SOL    HW143320  12.858   6.466   0.233
47182SOL    HW243321  12.974   6.527   0.156
47183SOL     OW43322  10.067   2.080   4.561
47183SOL    HW143323  10.074   2.142   4.633
47183SOL    HW243324   9.983   2.037   4.574
47184SOL     OW43325   1.257   2.782  13.279
47184SOL    HW143326   1.234   2.850  13.216
47184SOL    HW243327   1.184   2.720  13.275
47185SOL     OW43328   0.753   4.324   6.066
47185SOL    HW143329   0.698   4.247   6.055
47185SOL    HW243330   0.842   4.289   6.071
47186SOL     OW43331  10.057   0.948   6.385
47186SOL    HW143332  10.150   0.944   6.363
47186SOL    HW243333  10.038   1.041   6.397
47187SOL     OW43334  12.366   9.919   3.903
47187SOL    HW143335  12.384   9.852   3.969
47187SOL    HW243336  12.427   9.990   3.925
47188SOL     OW43337   7.916  12.255   9.143
47188SOL    HW143338   7.900  12.188   9.077
47188SOL    HW243339   7.955  12.328   9.095
47189SOL     OW43340   6.653   3.057  12.154
47189SOL    HW143341   6.593   3.040  12.227
47189SOL    HW243342   6.721   3.112  12.192
47190SOL     OW43343   6.656  13.252  14.713
47190SOL    HW143344   6.679  13.312  14.784
47190SOL    HW243345   6.684  13.297  14.633
47191SOL     OW43346   0.097   1.683   5.102
47191SOL    HW143347   0.102   1.777   5.120
47191SOL    HW243348   0.188   1.654   5.102
47192SOL     OW43349   2.361   3.527  12.013
47192SOL    HW143350   2.449   3.546  12.045
47192SOL    HW243351   2.347   3.434  12.032
47193SOL     OW43352   0.215   4.312   7.702
47193SOL    HW143353   0.137   4.337   7.752
47193SOL    HW243354   0.192   4.330   7.611
47194SOL     OW43355   5.331   8.205  11.618
47194SOL    HW143356   5.245   8.201  11.659
47194SOL    HW243357   5.341   8.296  11.591
47195SOL     OW43358   1.174   3.447   8.296
47195SOL    HW143359   1.114   3.520   8.284
47195SOL    HW243360   1.125   3.370   8.268
47196SOL     OW43361   3.770  12.169   6.037
47196SOL    HW143362   3.717  12.193   6.113
47196SOL    HW243363   3.845  12.228   6.041
47197SOL     OW43364  12.011   3.964  11.772
47197SOL    HW143365  12.093   3.991  11.729
47197SOL    HW243366  11.955   4.042  11.767
47198SOL     OW43367  13.687   9.452   8.930
47198SOL    HW143368  13.701   9.498   8.847
47198SOL    HW243369  13.764   9.472   8.982
47199SOL     OW43370   0.331  13.185   8.301
47199SOL    HW143371   0.378  13.267   8.319
47199SOL    HW243372   0.349  13.168   8.209
47200SOL     OW43373   7.949  11.972   7.709
47200SOL    HW143374   7.870  11.924   7.735
47200SOL    HW243375   7.982  11.924   7.633
47201SOL     OW43376   9.714  12.730   7.035
47201SOL    HW143377   9.744  12.820   7.025
47201SOL    HW243378   9.671  12.728   7.120
47202SOL     OW43379   8.322   6.070   9.711
47202SOL    HW143380   8.287   6.002   9.769
47202SOL    HW243381   8.255   6.139   9.713
47203SOL     OW43382  11.135   8.371  13.390
47203SOL    HW143383  11.216   8.381  13.339
47203SOL    HW243384  11.154   8.301  13.453
47204SOL     OW43385   0.457   3.057   9.116
47204SOL    HW143386   0.525   3.086   9.176
47204SOL    HW243387   0.497   3.061   9.029
47205SOL     OW43388  10.857   8.057   1.052
47205SOL    HW143389  10.933   8.002   1.070
47205SOL    HW243390  10.785   8.015   1.100
47206SOL     OW43391   5.708  13.868  12.041
47206SOL    HW143392   5.680  13.947  11.995
47206SOL    HW243393   5.801  13.880  12.056
47207SOL     OW43394  11.309   4.279  14.591
47207SOL    HW143395  11.326   4.304  14.681
47207SOL    HW243396  11.396   4.276  14.551
47208SOL     OW43397   1.468   7.166   7.419
47208SOL    HW143398   1.480   7.115   7.499
47208SOL    HW243399   1.546   7.148   7.366
47209SOL     OW43400  12.060   4.022   4.997
47209SOL    HW143401  12.145   4.033   4.953
47209SOL    HW243402  12.080   3.967   5.073
47210SOL     OW43403   7.558   8.804   9.910
47210SOL    HW143404   7.579   8.788   9.818
47210SOL    HW243405   7.643   8.811   9.953
47211SOL     OW43406  12.937  13.834  12.924
47211SOL    HW143407  13.016  13.788  12.897
47211SOL    HW243408  12.969  13.907  12.978
47212SOL     OW43409   9.532   0.095   6.419
47212SOL    HW143410   9.591   0.049   6.479
47212SOL    HW243411   9.444   0.075   6.453
47213SOL     OW43412   5.752   2.380   8.328
47213SOL    HW143413   5.781   2.354   8.416
47213SOL    HW243414   5.656   2.378   8.334
47214SOL     OW43415  12.893   9.072   4.704
47214SOL    HW143416  12.921   9.038   4.619
47214SOL    HW243417  12.946   9.024   4.767
47215SOL     OW43418   1.480   0.717  10.071
47215SOL    HW143419   1.430   0.728  10.152
47215SOL    HW243420   1.416   0.689  10.006
47216SOL     OW43421   4.135  10.881   2.386
47216SOL    HW143422   4.086  10.881   2.468
47216SOL    HW243423   4.225  10.860   2.411
47217SOL     OW43424   2.587  10.103  13.910
47217SOL    HW143425   2.630  10.082  13.993
47217SOL    HW243426   2.656  10.093  13.844
47218SOL     OW43427   3.924  11.875  11.074
47218SOL    HW143428   3.887  11.808  11.132
47218SOL    HW243429   4.018  11.869  11.089
47219SOL     OW43430  11.788   2.011   7.463
47219SOL    HW143431  11.786   2.107   7.463
47219SOL    HW243432  11.751   1.986   7.378
47220SOL     OW43433   8.682  10.128   4.481
47220SOL    HW143434   8.596  10.117   4.440
47220SOL    HW243435   8.675  10.210   4.529
47221SOL     OW43436   8.281   1.141  11.577
47221SOL    HW143437   8.279   1.216  11.636
47221SOL    HW243438   8.191   1.133  11.545
47222SOL     OW43439  13.855   1.499   0.520
47222SOL    HW143440  13.942   1.460   0.514
47222SOL    HW243441  13.854   1.546   0.603
47223SOL     OW43442  11.613   5.891   7.252
47223SOL    HW143443  11.653   5.804   7.263
47223SOL    HW243444  11.519   5.873   7.244
47224SOL     OW43445  12.312   3.701   1.201
47224SOL    HW143446  12.334   3.680   1.111
47224SOL    HW243447  12.382   3.759   1.230
47225SOL     OW43448   2.589   5.015   3.340
47225SOL    HW143449   2.590   4.920   3.355
47225SOL    HW243450   2.676   5.044   3.366
47226SOL     OW43451  12.699  11.151   4.040
47226SOL    HW143452  12.670  11.060   4.050
47226SOL    HW243453  12.713  11.161   3.946
47227SOL     OW43454   1.135   4.187   3.127
47227SOL    HW143455   1.089   4.264   3.094
47227SOL    HW243456   1.157   4.209   3.218
47228SOL     OW43457   9.454   8.477  11.295
47228SOL    HW143458   9.448   8.426  11.376
47228SOL    HW243459   9.538   8.451  11.256
47229SOL     OW43460   4.726   0.306   2.052
47229SOL    HW143461   4.799   0.289   1.993
47229SOL    HW243462   4.653   0.327   1.994
47230SOL     OW43463   7.801  13.194  10.552
47230SOL    HW143464   7.840  13.234  10.630
47230SOL    HW243465   7.761  13.113  10.585
47231SOL     OW43466   8.451   8.695   1.539
47231SOL    HW143467   8.434   8.787   1.554
47231SOL    HW243468   8.380   8.666   1.481
47232SOL     OW43469   0.639   7.167  14.761
47232SOL    HW143470   0.580   7.128  14.825
47232SOL    HW243471   0.618   7.260  14.762
47233SOL     OW43472  12.483   8.941  14.511
47233SOL    HW143473  12.524   9.018  14.472
47233SOL    HW243474  12.554   8.895  14.555
47234SOL     OW43475   2.461   8.090   8.292
47234SOL    HW143476   2.519   8.017   8.314
47234SOL    HW243477   2.452   8.139   8.374
47235SOL     OW43478   7.370   5.007   4.164
47235SOL    HW143479   7.313   4.936   4.194
47235SOL    HW243480   7.324   5.087   4.189
47236SOL     OW43481   5.558  10.239  14.206
47236SOL    HW143482   5.491  10.306  14.190
47236SOL    HW243483   5.514  10.174  14.261
47237SOL     OW43484   7.259   8.104  11.248
47237SOL    HW143485   7.301   8.097  11.162
47237SOL    HW243486   7.190   8.037  11.245
47238SOL     OW43487   9.638   7.197   1.036
47238SOL    HW143488   9.549   7.190   1.000
47238SOL    HW243489   9.694   7.206   0.959
47239SOL     OW43490   3.184   5.702   1.016
47239SOL    HW143491   3.233   5.785   1.016
47239SOL    HW243492   3.105   5.721   0.965
47240SOL     OW43493   8.717   8.097  14.423
47240SOL    HW143494   8.660   8.020  14.423
47240SOL    HW243495   8.679   8.155  14.357
47241SOL     OW43496   1.488   9.577   7.846
47241SOL    HW143497   1.549   9.541   7.781
47241SOL    HW243498   1.411   9.602   7.795
47242SOL     OW43499  12.315   2.528  10.685
47242SOL    HW143500  12.319   2.622  10.667
47242SOL    HW243501  12.228   2.514  10.721
47243SOL     OW43502   6.895   8.906   6.612
47243SOL    HW143503   6.973   8.886   6.664
47243SOL    HW243504   6.844   8.965   6.666
47244SOL     OW43505   5.298   8.000   0.278
47244SOL    HW143506   5.229   7.991   0.213
47244SOL    HW243507   5.354   7.923   0.265
47245SOL     OW43508   7.921  10.915   6.258
47245SOL    HW143509   7.937  10.992   6.313
47245SOL    HW243510   8.002  10.865   6.263
47246SOL     OW43511   8.818   5.839   3.592
47246SOL    HW143512   8.896   5.800   3.632
47246SOL    HW243513   8.848   5.922   3.557
47247SOL     OW43514  13.398   1.535   7.523
47247SOL    HW143515  13.361   1.509   7.607
47247SOL    HW243516  13.370   1.466   7.462
47248SOL     OW43517  11.767  12.389   7.810
47248SOL    HW143518  11.832  12.320   7.823
47248SOL    HW243519  11.706  12.378   7.883
47249SOL     OW43520   1.709   6.777   1.487
47249SOL    HW143521   1.724   6.781   1.393
47249SOL    HW243522   1.656   6.698   1.500
47250SOL     OW43523  11.420   5.353   2.449
47250SOL    HW143524  11.507   5.383   2.422
47250SOL    HW243525  11.394   5.415   2.518
47251SOL     OW43526   8.848   4.930   1.334
47251SOL    HW143527   8.831   4.837   1.314
47251SOL    HW243528   8.942   4.935   1.347
47252SOL     OW43529   9.870  13.241   5.127
47252SOL    HW143530   9.860  13.171   5.191
47252SOL    HW243531   9.878  13.197   5.043
47253SOL     OW43532   2.675   7.456  14.594
47253SOL    HW143533   2.607   7.423  14.536
47253SOL    HW243534   2.756   7.450  14.542
47254SOL     OW43535  11.486   7.995   1.297
47254SOL    HW143536  11.545   8.011   1.370
47254SOL    HW243537  11.508   7.907   1.268
47255SOL     OW43538   8.384   6.246  14.233
47255SOL    HW143539   8.435   6.226  14.312
47255SOL    HW243540   8.316   6.306  14.263
47256SOL     OW43541   8.789   3.247  11.173
47256SOL    HW143542   8.715   3.225  11.230
47256SOL    HW243543   8.865   3.246  11.231
47257SOL     OW43544   2.197   2.845  10.696
47257SOL    HW143545   2.108   2.813  10.706
47257SOL    HW243546   2.190   2.940  10.703
47258SOL     OW43547  12.653   7.040   4.193
47258SOL    HW143548  12.558   7.049   4.197
47258SOL    HW243549  12.684   7.128   4.172
47259SOL     OW43550   4.858   9.337   9.889
47259SOL    HW143551   4.773   9.362   9.852
47259SOL    HW243552   4.840   9.321   9.981
47260SOL     OW43553  13.364   1.030  11.364
47260SOL    HW143554  13.312   0.955  11.339
47260SOL    HW243555  13.389   1.012  11.455
47261SOL     OW43556   1.594   7.216   8.953
47261SOL    HW143557   1.558   7.297   8.917
47261SOL    HW243558   1.520   7.176   8.999
47262SOL     OW43559   7.549  10.588   2.284
47262SOL    HW143560   7.486  10.599   2.356
47262SOL    HW243561   7.580  10.498   2.293
47263SOL     OW43562  11.377   2.053  14.511
47263SOL    HW143563  11.392   2.137  14.468
47263SOL    HW243564  11.346   2.076  14.598
47264SOL     OW43565  10.128   4.635   2.392
47264SOL    HW143566  10.083   4.693   2.454
47264SOL    HW243567  10.215   4.673   2.382
47265SOL     OW43568   0.494  11.778  13.776
47265SOL    HW143569   0.536  11.692  13.783
47265SOL    HW243570   0.567  11.840  13.771
47266SOL     OW43571   4.342   9.473   2.998
47266SOL    HW143572   4.258   9.448   3.037
47266SOL    HW243573   4.344   9.428   2.914
47267SOL     OW43574  12.164   0.184   8.578
47267SOL    HW143575  12.102   0.164   8.508
47267SOL    HW243576  12.108   0.202   8.654
47268SOL     OW43577  13.986   8.122   3.440
47268SOL    HW143578  14.076   8.151   3.423
47268SOL    HW243579  13.971   8.052   3.376
47269SOL     OW43580   9.038   0.856   1.142
47269SOL    HW143581   9.000   0.918   1.204
47269SOL    HW243582   9.114   0.820   1.188
47270SOL     OW43583   8.444   4.752   3.655
47270SOL    HW143584   8.369   4.807   3.678
47270SOL    HW243585   8.514   4.781   3.714
47271SOL     OW43586  14.657   9.693   0.525
47271SOL    HW143587  14.725   9.737   0.474
47271SOL    HW243588  14.628   9.620   0.470
47272SOL     OW43589  10.829   8.658   2.145
47272SOL    HW143590  10.772   8.653   2.068
47272SOL    HW243591  10.883   8.579   2.140
47273SOL     OW43592  13.151   6.146   6.328
47273SOL    HW143593  13.133   6.131   6.421
47273SOL    HW243594  13.247   6.144   6.322
47274SOL     OW43595   5.202   7.306  12.151
47274SOL    HW143596   5.226   7.357  12.073
47274SOL    HW243597   5.187   7.372  12.219
47275SOL     OW43598   2.199   8.070   1.716
47275SOL    HW143599   2.151   8.152   1.709
47275SOL    HW243600   2.219   8.062   1.809
47276SOL     OW43601  11.915   9.159   9.497
47276SOL    HW143602  11.870   9.076   9.482
47276SOL    HW243603  11.845   9.222   9.511
47277SOL     OW43604   4.960   4.027   7.101
47277SOL    HW143605   4.958   3.996   7.011
47277SOL    HW243606   4.871   4.057   7.119
47278SOL     OW43607  13.191   5.239  14.580
47278SOL    HW143608  13.105   5.279  14.568
47278SOL    HW243609  13.173   5.152  14.617
47279SOL     OW43610  10.968   6.267   6.557
47279SOL    HW143611  10.961   6.237   6.647
47279SOL    HW243612  11.061   6.261   6.537
47280SOL     OW43613  12.971   9.874  11.540
47280SOL    HW143614  13.053   9.860  11.492
47280SOL    HW243615  12.929   9.947  11.493
47281SOL     OW43616   2.719  12.991  12.127
47281SOL    HW143617   2.730  12.898  12.146
47281SOL    HW243618   2.630  13.011  12.153
47282SOL     OW43619  14.286  12.642  13.635
47282SOL    HW143620  14.335  12.714  13.594
47282SOL    HW243621  14.325  12.632  13.722
47283SOL     OW43622   5.972   4.852   7.594
47283SOL    HW143623   6.065   4.833   7.605
47283SOL    HW243624   5.964   4.879   7.503
47284SOL     OW43625  12.765  11.946   4.030
47284SOL    HW143626  12.853  11.962   3.995
47284SOL    HW243627  12.711  12.014   3.989
47285SOL     OW43628   9.182   4.719   9.565
47285SOL    HW143629   9.186   4.716   9.661
47285SOL    HW243630   9.102   4.670   9.543
47286SOL     OW43631   4.509   9.611  14.433
47286SOL    HW143632   4.463   9.681  14.386
47286SOL    HW243633   4.589   9.653  14.465
47287SOL     OW43634   2.773   1.602  14.488
47287SOL    HW143635   2.780   1.695  14.465
47287SOL    HW243636   2.716   1.601  14.565
47288SOL     OW43637  14.728   4.801   4.664
47288SOL    HW143638  14.676   4.720   4.660
47288SOL    HW243639  14.750   4.811   4.756
47289SOL     OW43640   0.464   2.826   5.494
47289SOL    HW143641   0.491   2.741   5.529
47289SOL    HW243642   0.531   2.887   5.525
47290SOL     OW43643  11.029   2.110  12.585
47290SOL    HW143644  10.991   2.054  12.653
47290SOL    HW243645  11.110   2.142  12.623
47291SOL     OW43646   6.241   5.717  11.327
47291SOL    HW143647   6.249   5.769  11.406
47291SOL    HW243648   6.146   5.709  11.313
47292SOL     OW43649   0.169   0.052  12.462
47292SOL    HW143650   0.157   0.143  12.491
47292SOL    HW243651   0.080   0.018  12.457
47293SOL     OW43652   9.842   1.302  10.444
47293SOL    HW143653   9.850   1.388  10.403
47293SOL    HW243654   9.923   1.256  10.423
47294SOL     OW43655  14.333   2.191   4.152
47294SOL    HW143656  14.401   2.124   4.158
47294SOL    HW243657  14.330   2.231   4.239
47295SOL     OW43658  12.908   0.661  14.685
47295SOL    HW143659  12.828   0.632  14.643
47295SOL    HW243660  12.886   0.747  14.722
47296SOL     OW43661  11.312  10.266  14.498
47296SOL    HW143662  11.235  10.313  14.467
47296SOL    HW243663  11.381  10.289  14.436
47297SOL     OW43664   7.418   4.315  10.677
47297SOL    HW143665   7.355   4.270  10.734
47297SOL    HW243666   7.393   4.407  10.683
47298SOL     OW43667   2.032   0.536  14.048
47298SOL    HW143668   1.980   0.494  14.117
47298SOL    HW243669   2.110   0.569  14.092
47299SOL     OW43670   3.489  12.415   0.264
47299SOL    HW143671   3.580  12.431   0.240
47299SOL    HW243672   3.475  12.323   0.243
47300SOL     OW43673  10.409   9.501   4.709
47300SOL    HW143674  10.364   9.558   4.647
47300SOL    HW243675  10.344   9.480   4.776
47301SOL     OW43676  10.883  11.329   8.109
47301SOL    HW143677  10.931  11.328   8.192
47301SOL    HW243678  10.946  11.362   8.045
47302SOL     OW43679   7.718   8.763   5.911
47302SOL    HW143680   7.803   8.720   5.902
47302SOL    HW243681   7.673   8.744   5.829
47303SOL     OW43682   8.655   7.692   7.781
47303SOL    HW143683   8.653   7.612   7.834
47303SOL    HW243684   8.563   7.713   7.766
47304SOL     OW43685   4.717   2.578   2.466
47304SOL    HW143686   4.621   2.575   2.470
47304SOL    HW243687   4.746   2.523   2.539
47305SOL     OW43688  14.162   8.475   4.887
47305SOL    HW143689  14.250   8.495   4.920
47305SOL    HW243690  14.176   8.445   4.798
47306SOL     OW43691  11.105   4.074   0.156
47306SOL    HW143692  11.173   4.010   0.133
47306SOL    HW243693  11.147   4.131   0.221
47307SOL     OW43694   1.572   9.751   7.183
47307SOL    HW143695   1.618   9.834   7.197
47307SOL    HW243696   1.626   9.703   7.120
47308SOL     OW43697  13.910   7.459  11.642
47308SOL    HW143698  13.874   7.544  11.617
47308SOL    HW243699  13.920   7.412  11.560
47309SOL     OW43700   9.026   5.707   4.382
47309SOL    HW143701   9.001   5.735   4.294
47309SOL    HW243702   9.118   5.681   4.373
47310SOL     OW43703  12.185   1.023   4.385
47310SOL    HW143704  12.216   0.988   4.302
47310SOL    HW243705  12.168   1.116   4.367
47311SOL     OW43706   8.145  13.235   9.429
47311SOL    HW143707   8.231  13.265   9.459
47311SOL    HW243708   8.165  13.170   9.362
47312SOL     OW43709   0.426  14.184  12.519
47312SOL    HW143710   0.337  14.183  12.553
47312SOL    HW243711   0.424  14.250  12.449
47313SOL     OW43712   4.424  11.712   9.696
47313SOL    HW143713   4.430  11.690   9.789
47313SOL    HW243714   4.364  11.787   9.693
47314SOL     OW43715   6.005   3.571   8.256
47314SOL    HW143716   6.023   3.650   8.307
47314SOL    HW243717   6.028   3.595   8.166
47315SOL     OW43718  13.327   9.976   7.678
47315SOL    HW143719  13.311   9.906   7.615
47315SOL    HW243720  13.365  10.047   7.626
47316SOL     OW43721   3.373  11.329   3.357
47316SOL    HW143722   3.287  11.287   3.355
47316SOL    HW243723   3.430  11.265   3.400
47317SOL     OW43724  14.100   6.906   5.498
47317SOL    HW143725  14.138   6.876   5.580
47317SOL    HW243726  14.134   6.846   5.432
47318SOL     OW43727   0.836  12.699   3.693
47318SOL    HW143728   0.923  12.686   3.656
47318SOL    HW243729   0.848  12.693   3.788
47319SOL     OW43730   9.367  11.969  11.237
47319SOL    HW143731   9.462  11.964  11.237
47319SOL    HW243732   9.348  12.058  11.205
47320SOL     OW43733   6.253   6.357   1.013
47320SOL    HW143734   6.158   6.357   1.012
47320SOL    HW243735   6.278   6.297   0.942
47321SOL     OW43736   3.701  11.288   5.871
47321SOL    HW143737   3.606  11.285   5.865
47321SOL    HW243738   3.724  11.214   5.927
47322SOL     OW43739  12.209  10.845  14.407
47322SOL    HW143740  12.170  10.798  14.481
47322SOL    HW243741  12.211  10.780  14.336
47323SOL     OW43742   9.625  10.606   6.032
47323SOL    HW143743   9.636  10.619   5.938
47323SOL    HW243744   9.674  10.526   6.051
47324SOL     OW43745  14.852  11.178  12.831
47324SOL    HW143746  14.795  11.254  12.842
47324SOL    HW243747   0.041  11.187  12.900
47325SOL     OW43748   1.062   6.294  10.850
47325SOL    HW143749   1.096   6.229  10.910
47325SOL    HW243750   0.989   6.335  10.897
47326SOL     OW43751   2.487   9.450   8.633
47326SOL    HW143752   2.395   9.477   8.629
47326SOL    HW243753   2.516   9.479   8.719
47327SOL     OW43754   3.936  13.478   7.449
47327SOL    HW143755   4.021  13.522   7.453
47327SOL    HW243756   3.946  13.412   7.380
47328SOL     OW43757  13.997   2.303   1.211
47328SOL    HW143758  14.032   2.343   1.291
47328SOL    HW243759  14.033   2.356   1.140
47329SOL     OW43760   2.164  13.554   8.208
47329SOL    HW143761   2.201  13.468   8.226
47329SOL    HW243762   2.221  13.615   8.254
47330SOL     OW43763   2.257   7.702   7.325
47330SOL    HW143764   2.351   7.711   7.311
47330SOL    HW243765   2.224   7.668   7.242
47331SOL     OW43766   3.757   7.892  10.163
47331SOL    HW143767   3.814   7.826  10.202
47331SOL    HW243768   3.691   7.842  10.115
47332SOL     OW43769   5.151   5.377   8.462
47332SOL    HW143770   5.191   5.397   8.378
47332SOL    HW243771   5.225   5.368   8.522
47333SOL     OW43772   2.500   3.662  13.685
47333SOL    HW143773   2.531   3.752  13.668
47333SOL    HW243774   2.563   3.607  13.639
47334SOL     OW43775   4.288   7.718   0.016
47334SOL    HW143776   4.246   7.658  14.833
47334SOL    HW243777   4.370   7.675   0.040
47335SOL     OW43778   8.254  12.371  13.871
47335SOL    HW143779   8.289  12.441  13.817
47335SOL    HW243780   8.238  12.299  13.810
47336SOL     OW43781  14.802  10.072  14.491
47336SOL    HW143782  14.849  10.045  14.570
47336SOL    HW243783  14.776  10.162  14.509
47337SOL     OW43784  12.060   5.722   7.058
47337SOL    HW143785  12.024   5.700   7.144
47337SOL    HW243786  11.987   5.760   7.010
47338SOL     OW43787  12.483   0.416   8.990
47338SOL    HW143788  12.481   0.511   8.977
47338SOL    HW243789  12.452   0.404   9.080
47339SOL     OW43790   9.796   0.730  14.032
47339SOL    HW143791   9.738   0.656  14.015
47339SOL    HW243792   9.850   0.736  13.954
47340SOL     OW43793  12.928   2.181   8.513
47340SOL    HW143794  12.917   2.171   8.608
47340SOL    HW243795  12.846   2.151   8.475
47341SOL     OW43796   7.194  14.759  12.922
47341SOL    HW143797   7.109  14.750  12.965
47341SOL    HW243798   7.258  14.738  12.991
47342SOL     OW43799  10.680   4.081   9.241
47342SOL    HW143800  10.610   4.094   9.305
47342SOL    HW243801  10.734   4.011   9.278
47343SOL     OW43802   5.318   9.628   2.674
47343SOL    HW143803   5.272   9.585   2.746
47343SOL    HW243804   5.381   9.562   2.643
47344SOL     OW43805   9.667  10.208   4.020
47344SOL    HW143806   9.665  10.155   3.940
47344SOL    HW243807   9.635  10.293   3.993
47345SOL     OW43808   2.600   7.340  12.567
47345SOL    HW143809   2.604   7.406  12.636
47345SOL    HW243810   2.691   7.317  12.549
47346SOL     OW43811   9.111  12.911   6.642
47346SOL    HW143812   9.113  12.975   6.713
47346SOL    HW243813   9.196  12.868   6.647
47347SOL     OW43814   2.704   7.308   9.535
47347SOL    HW143815   2.752   7.376   9.488
47347SOL    HW243816   2.755   7.294   9.614
47348SOL     OW43817   5.208  13.874   2.139
47348SOL    HW143818   5.292  13.905   2.173
47348SOL    HW243819   5.220  13.868   2.045
47349SOL     OW43820   0.861   3.531   5.742
47349SOL    HW143821   0.790   3.558   5.684
47349SOL    HW243822   0.926   3.492   5.683
47350SOL     OW43823   7.942   9.683   0.612
47350SOL    HW143824   7.932   9.614   0.677
47350SOL    HW243825   7.879   9.660   0.543
47351SOL     OW43826   5.481   1.628   4.904
47351SOL    HW143827   5.494   1.701   4.965
47351SOL    HW243828   5.470   1.669   4.818
47352SOL     OW43829   7.401   8.007   9.015
47352SOL    HW143830   7.457   7.936   8.984
47352SOL    HW243831   7.425   8.019   9.107
47353SOL     OW43832  12.536   0.440   3.673
47353SOL    HW143833  12.569   0.363   3.719
47353SOL    HW243834  12.555   0.513   3.733
47354SOL     OW43835   0.815  14.811   3.936
47354SOL    HW143836   0.864   0.009   3.969
47354SOL    HW243837   0.858  14.735   3.975
47355SOL     OW43838   4.590   5.465  10.713
47355SOL    HW143839   4.562   5.489  10.625
47355SOL    HW243840   4.615   5.548  10.754
47356SOL     OW43841   3.963  10.878   4.056
47356SOL    HW143842   3.934  10.853   3.969
47356SOL    HW243843   3.906  10.828   4.115
47357SOL     OW43844   5.410   5.739  13.173
47357SOL    HW143845   5.354   5.710  13.246
47357SOL    HW243846   5.415   5.834  13.182
47358SOL     OW43847   3.208   8.170   2.363
47358SOL    HW143848   3.235   8.262   2.375
47358SOL    HW243849   3.267   8.136   2.297
47359SOL     OW43850   3.240  14.328   6.152
47359SOL    HW143851   3.249  14.330   6.248
47359SOL    HW243852   3.330  14.318   6.121
47360SOL     OW43853   2.732  12.871   8.355
47360SOL    HW143854   2.712  12.871   8.448
47360SOL    HW243855   2.707  12.958   8.325
47361SOL     OW43856  13.431   7.214  11.124
47361SOL    HW143857  13.407   7.306  11.113
47361SOL    HW243858  13.373   7.168  11.063
47362SOL     OW43859   5.719  12.592  12.424
47362SOL    HW143860   5.794  12.536  12.405
47362SOL    HW243861   5.679  12.554  12.502
47363SOL     OW43862  13.838  10.428   7.284
47363SOL    HW143863  13.810  10.357   7.227
47363SOL    HW243864  13.882  10.384   7.357
47364SOL     OW43865  10.449   9.725  13.838
47364SOL    HW143866  10.424   9.742  13.748
47364SOL    HW243867  10.366   9.707  13.883
47365SOL     OW43868   0.380   1.153   0.846
47365SOL    HW143869   0.466   1.110   0.849
47365SOL    HW243870   0.341   1.124   0.764
47366SOL     OW43871   6.827  11.305   0.987
47366SOL    HW143872   6.915  11.279   1.016
47366SOL    HW243873   6.790  11.352   1.062
47367SOL     OW43874   4.354   1.747  13.632
47367SOL    HW143875   4.265   1.782  13.640
47367SOL    HW243876   4.395   1.766  13.716
47368SOL     OW43877   6.369  11.714   9.598
47368SOL    HW143878   6.406  11.736   9.684
47368SOL    HW243879   6.276  11.736   9.607
47369SOL     OW43880  10.866   3.178  12.795
47369SOL    HW143881  10.879   3.094  12.750
47369SOL    HW243882  10.780   3.170  12.835
47370SOL     OW43883   6.643   8.197   0.970
47370SOL    HW143884   6.705   8.131   0.941
47370SOL    HW243885   6.558   8.153   0.966
47371SOL     OW43886  14.600   2.358  11.635
47371SOL    HW143887  14.508   2.376  11.654
47371SOL    HW243888  14.597   2.308  11.553
47372SOL     OW43889   8.291  14.540  10.254
47372SOL    HW143890   8.335  14.610  10.302
47372SOL    HW243891   8.274  14.473  10.320
47373SOL     OW43892   9.665   7.708   3.292
47373SOL    HW143893   9.705   7.720   3.205
47373SOL    HW243894   9.571   7.706   3.274
47374SOL     OW43895   6.158   4.255   5.440
47374SOL    HW143896   6.113   4.271   5.523
47374SOL    HW243897   6.251   4.256   5.463
47375SOL     OW43898  10.559   0.037   1.510
47375SOL    HW143899  10.484   0.093   1.489
47375SOL    HW243900  10.565   0.040   1.605
47376SOL     OW43901   4.452   5.373   7.838
47376SOL    HW143902   4.443   5.379   7.933
47376SOL    HW243903   4.394   5.441   7.803
47377SOL     OW43904   0.262   1.700  11.012
47377SOL    HW143905   0.319   1.761  11.060
47377SOL    HW243906   0.177   1.708  11.055
47378SOL     OW43907   1.642   4.163   6.599
47378SOL    HW143908   1.554   4.130   6.580
47378SOL    HW243909   1.691   4.087   6.628
47379SOL     OW43910  14.121   8.724  12.220
47379SOL    HW143911  14.190   8.697  12.160
47379SOL    HW243912  14.163   8.789  12.276
47380SOL     OW43913   6.336   8.969  12.327
47380SOL    HW143914   6.273   8.991  12.396
47380SOL    HW243915   6.405   9.034  12.337
47381SOL     OW43916   7.584  14.862   6.198
47381SOL    HW143917   7.557  14.816   6.118
47381SOL    HW243918   7.587   0.077   6.173
47382SOL     OW43919   0.592   1.090   5.759
47382SOL    HW143920   0.506   1.132   5.766
47382SOL    HW243921   0.593   1.025   5.829
47383SOL     OW43922   8.598  13.149   5.951
47383SOL    HW143923   8.611  13.094   6.028
47383SOL    HW243924   8.592  13.238   5.986
47384SOL     OW43925  14.729   5.615   0.792
47384SOL    HW143926  14.789   5.644   0.860
47384SOL    HW243927  14.777   5.629   0.710
47385SOL     OW43928  11.785   6.088   7.593
47385SOL    HW143929  11.778   6.094   7.688
47385SOL    HW243930  11.859   6.030   7.578
47386SOL     OW43931  11.085   7.823   9.474
47386SOL    HW143932  11.044   7.788   9.395
47386SOL    HW243933  11.164   7.771   9.486
47387SOL     OW43934  13.483  11.097   0.356
47387SOL    HW143935  13.428  11.148   0.297
47387SOL    HW243936  13.500  11.157   0.430
47388SOL     OW43937   5.275   6.434   2.814
47388SOL    HW143938   5.351   6.378   2.829
47388SOL    HW243939   5.312   6.519   2.791
47389SOL     OW43940   1.813   2.518  13.629
47389SOL    HW143941   1.907   2.507  13.647
47389SOL    HW243942   1.797   2.460  13.555
47390SOL     OW43943   4.041  12.630  14.154
47390SOL    HW143944   4.083  12.593  14.077
47390SOL    HW243945   4.090  12.594  14.228
47391SOL     OW43946   5.606   1.426  12.454
47391SOL    HW143947   5.682   1.484  12.464
47391SOL    HW243948   5.609   1.368  12.530
47392SOL     OW43949  13.217   7.533   7.499
47392SOL    HW143950  13.175   7.557   7.581
47392SOL    HW243951  13.147   7.539   7.434
47393SOL     OW43952   0.456  11.694  14.588
47393SOL    HW143953   0.411  11.611  14.603
47393SOL    HW243954   0.527  11.695  14.652
47394SOL     OW43955   6.296   1.616   5.058
47394SOL    HW143956   6.346   1.536   5.069
47394SOL    HW243957   6.343   1.664   4.990
47395SOL     OW43958   9.828   2.893   0.356
47395SOL    HW143959   9.759   2.882   0.422
47395SOL    HW243960   9.793   2.850   0.278
47396SOL     OW43961  13.491   8.325  10.223
47396SOL    HW143962  13.481   8.316  10.129
47396SOL    HW243963  13.552   8.399  10.233
47397SOL     OW43964   0.703  14.055  10.518
47397SOL    HW143965   0.612  14.058  10.492
47397SOL    HW243966   0.745  13.999  10.453
47398SOL     OW43967  11.142  10.003   0.527
47398SOL    HW143968  11.115  10.046   0.608
47398SOL    HW243969  11.080   9.932   0.515
47399SOL     OW43970   1.837   8.701   7.964
47399SOL    HW143971   1.770   8.762   7.931
47399SOL    HW243972   1.903   8.699   7.895
47400SOL     OW43973   3.665   2.927   0.268
47400SOL    HW143974   3.634   2.898   0.354
47400SOL    HW243975   3.590   2.910   0.210
47401SOL     OW43976  12.682  13.812   1.684
47401SOL    HW143977  12.763  13.786   1.729
47401SOL    HW243978  12.635  13.730   1.671
47402SOL     OW43979   6.173  12.711   3.160
47402SOL    HW143980   6.098  12.735   3.215
47402SOL    HW243981   6.197  12.792   3.115
47403SOL     OW43982   2.912   4.888  12.230
47403SOL    HW143983   2.967   4.820  12.268
47403SOL    HW243984   2.823   4.855  12.241
47404SOL     OW43985  14.412   2.731  13.458
47404SOL    HW143986  14.497   2.708  13.495
47404SOL    HW243987  14.349   2.681  13.509
47405SOL     OW43988  13.727   8.880  11.772
47405SOL    HW143989  13.642   8.910  11.804
47405SOL    HW243990  13.719   8.785  11.766
47406SOL     OW43991   6.010   5.848   7.783
47406SOL    HW143992   6.025   5.919   7.721
47406SOL    HW243993   6.009   5.769   7.730
47407SOL     OW43994  14.706   8.909   9.956
47407SOL    HW143995  14.785   8.892  10.007
47407SOL    HW243996  14.657   8.827   9.960
47408SOL     OW43997   9.198   3.232   0.067
47408SOL    HW143998   9.224   3.148   0.029
47408SOL    HW243999   9.138   3.269   0.002
47409SOL     OW44000  13.915  10.630   7.654
47409SOL    HW144001  13.945  10.539   7.662
47409SOL    HW244002  13.976  10.670   7.592
47410SOL     OW44003   5.885   5.858   4.512
47410SOL    HW144004   5.961   5.813   4.475
47410SOL    HW244005   5.886   5.835   4.605
47411SOL     OW44006   3.071   6.485   4.723
47411SOL    HW144007   3.122   6.520   4.796
47411SOL    HW244008   3.010   6.555   4.701
47412SOL     OW44009   4.109  14.549   8.710
47412SOL    HW144010   4.124  14.479   8.774
47412SOL    HW244011   4.033  14.597   8.744
47413SOL     OW44012  14.581   3.980   4.554
47413SOL    HW144013  14.579   4.018   4.466
47413SOL    HW244014  14.569   4.054   4.612
47414SOL     OW44015   1.216  12.775   8.973
47414SOL    HW144016   1.233  12.849   8.915
47414SOL    HW244017   1.287  12.713   8.954
47415SOL     OW44018   8.308   0.403   8.564
47415SOL    HW144019   8.369   0.470   8.595
47415SOL    HW244020   8.347   0.370   8.483
47416SOL     OW44021   1.214   7.030   8.933
47416SOL    HW144022   1.260   7.069   9.007
47416SOL    HW244023   1.281   6.984   8.884
47417SOL     OW44024  12.006   1.296   5.205
47417SOL    HW144025  11.970   1.224   5.153
47417SOL    HW244026  12.010   1.261   5.294
47418SOL     OW44027   7.868   8.333   3.896
47418SOL    HW144028   7.823   8.364   3.974
47418SOL    HW244029   7.799   8.322   3.831
47419SOL     OW44030   9.208   5.285  11.586
47419SOL    HW144031   9.286   5.339  11.602
47419SOL    HW244032   9.166   5.327  11.511
47420SOL     OW44033  12.939   0.691   3.534
47420SOL    HW144034  12.935   0.671   3.627
47420SOL    HW244035  13.032   0.679   3.511
47421SOL     OW44036   9.220  11.766   7.263
47421SOL    HW144037   9.135  11.723   7.274
47421SOL    HW244038   9.268  11.708   7.204
47422SOL     OW44039  13.067   5.729   9.906
47422SOL    HW144040  13.106   5.815   9.920
47422SOL    HW244041  13.122   5.669   9.955
47423SOL     OW44042   0.852  12.264   1.725
47423SOL    HW144043   0.857  12.346   1.676
47423SOL    HW244044   0.847  12.196   1.657
47424SOL     OW44045  12.488  11.807   2.852
47424SOL    HW144046  12.581  11.787   2.861
47424SOL    HW244047  12.447  11.722   2.836
47425SOL     OW44048  12.494   5.884   2.653
47425SOL    HW144049  12.590   5.884   2.662
47425SOL    HW244050  12.479   5.851   2.564
47426SOL     OW44051   3.172  10.268   3.190
47426SOL    HW144052   3.114  10.199   3.222
47426SOL    HW244053   3.200  10.314   3.269
47427SOL     OW44054   4.888   5.340   1.250
47427SOL    HW144055   4.880   5.435   1.259
47427SOL    HW244056   4.889   5.308   1.341
47428SOL     OW44057  14.559   5.813  14.012
47428SOL    HW144058  14.519   5.794  13.928
47428SOL    HW244059  14.560   5.729  14.058
47429SOL     OW44060   9.423  14.263  13.606
47429SOL    HW144061   9.488  14.285  13.539
47429SOL    HW244062   9.451  14.178  13.640
47430SOL     OW44063   7.147   2.552  13.001
47430SOL    HW144064   7.129   2.639  12.964
47430SOL    HW244065   7.241   2.540  12.992
47431SOL     OW44066  13.590   3.558  11.224
47431SOL    HW144067  13.580   3.616  11.148
47431SOL    HW244068  13.540   3.601  11.293
47432SOL     OW44069  13.583  10.812   9.745
47432SOL    HW144070  13.611  10.892   9.700
47432SOL    HW244071  13.547  10.756   9.677
47433SOL     OW44072   6.734   9.035  11.754
47433SOL    HW144073   6.741   9.130  11.762
47433SOL    HW244074   6.737   9.018  11.659
47434SOL     OW44075   7.197  11.842   5.257
47434SOL    HW144076   7.137  11.862   5.329
47434SOL    HW244077   7.279  11.885   5.281
47435SOL     OW44078   3.257   1.439  10.425
47435SOL    HW144079   3.321   1.425  10.495
47435SOL    HW244080   3.231   1.350  10.399
47436SOL     OW44081   9.973   1.749   4.443
47436SOL    HW144082  10.058   1.757   4.488
47436SOL    HW244083   9.985   1.797   4.361
47437SOL     OW44084  13.653   4.946  11.944
47437SOL    HW144085  13.590   5.017  11.942
47437SOL    HW244086  13.600   4.866  11.947
47438SOL     OW44087  11.139   9.813  11.064
47438SOL    HW144088  11.224   9.783  11.096
47438SOL    HW244089  11.160   9.864  10.986
47439SOL     OW44090   5.552  11.817   3.807
47439SOL    HW144091   5.606  11.860   3.741
47439SOL    HW244092   5.475  11.786   3.759
47440SOL     OW44093  11.847   9.759  10.661
47440SOL    HW144094  11.853   9.696  10.733
47440SOL    HW244095  11.759   9.797  10.670
47441SOL     OW44096  14.864   8.800  14.166
47441SOL    HW144097  14.774   8.796  14.137
47441SOL    HW244098   0.003   8.892  14.184
47442SOL     OW44099   5.182  13.311  11.967
47442SOL    HW144100   5.129  13.234  11.985
47442SOL    HW244101   5.259  13.278  11.922
47443SOL     OW44102   6.847   5.264  12.540
47443SOL    HW144103   6.825   5.255  12.633
47443SOL    HW244104   6.774   5.314  12.503
47444SOL     OW44105   2.724   6.599   6.179
47444SOL    HW144106   2.676   6.641   6.108
47444SOL    HW244107   2.706   6.506   6.169
47445SOL     OW44108  14.222   8.877   5.532
47445SOL    HW144109  14.152   8.844   5.588
47445SOL    HW244110  14.295   8.816   5.547
47446SOL     OW44111  13.764  11.813   2.368
47446SOL    HW144112  13.713  11.892   2.348
47446SOL    HW244113  13.701  11.741   2.364
47447SOL     OW44114   5.415   5.409   3.684
47447SOL    HW144115   5.371   5.440   3.763
47447SOL    HW244116   5.496   5.369   3.715
47448SOL     OW44117   1.094   5.379   5.051
47448SOL    HW144118   1.021   5.439   5.035
47448SOL    HW244119   1.136   5.412   5.130
47449SOL     OW44120   3.393   6.724  13.740
47449SOL    HW144121   3.438   6.795  13.694
47449SOL    HW244122   3.300   6.740  13.722
47450SOL     OW44123   4.926   3.203  10.043
47450SOL    HW144124   4.897   3.112  10.038
47450SOL    HW244125   5.022   3.197  10.036
47451SOL     OW44126   5.127   6.708   1.527
47451SOL    HW144127   5.182   6.728   1.602
47451SOL    HW244128   5.171   6.636   1.482
47452SOL     OW44129   5.739   6.743   2.197
47452SOL    HW144130   5.824   6.786   2.202
47452SOL    HW244131   5.738   6.702   2.110
47453SOL     OW44132   2.399   7.953   1.538
47453SOL    HW144133   2.357   7.867   1.535
47453SOL    HW244134   2.337   8.009   1.584
47454SOL     OW44135  11.159  10.842   2.770
47454SOL    HW144136  11.224  10.775   2.749
47454SOL    HW244137  11.191  10.921   2.726
47455SOL     OW44138   7.592   2.901   5.191
47455SOL    HW144139   7.602   2.887   5.285
47455SOL    HW244140   7.531   2.975   5.184
47456SOL     OW44141   6.250   0.952   0.886
47456SOL    HW144142   6.263   0.905   0.968
47456SOL    HW244143   6.166   0.997   0.896
47457SOL     OW44144   5.273   5.541  13.993
47457SOL    HW144145   5.282   5.630  14.026
47457SOL    HW244146   5.262   5.552  13.898
47458SOL     OW44147   0.662   7.642  14.494
47458SOL    HW144148   0.756   7.643  14.509
47458SOL    HW244149   0.653   7.642  14.399
47459SOL     OW44150   0.509   7.349  14.166
47459SOL    HW144151   0.588   7.325  14.214
47459SOL    HW244152   0.530   7.330  14.075
47460SOL     OW44153   6.387   6.907   2.408
47460SOL    HW144154   6.396   6.828   2.461
47460SOL    HW244155   6.439   6.973   2.454
47461SOL     OW44156   8.628   6.848  12.863
47461SOL    HW144157   8.709   6.823  12.907
47461SOL    HW244158   8.587   6.765  12.839
47462SOL     OW44159  10.676   9.330  13.179
47462SOL    HW144160  10.647   9.239  13.183
47462SOL    HW244161  10.609   9.378  13.226
47463SOL     OW44162  13.040  10.565   0.577
47463SOL    HW144163  13.027  10.658   0.592
47463SOL    HW244164  12.956  10.533   0.543
47464SOL     OW44165  14.190  11.627   6.899
47464SOL    HW144166  14.151  11.673   6.973
47464SOL    HW244167  14.267  11.584   6.937
47465SOL     OW44168  11.409   1.718  13.835
47465SOL    HW144169  11.341   1.746  13.774
47465SOL    HW244170  11.475   1.787  13.831
47466SOL     OW44171   2.964   2.249   3.115
47466SOL    HW144172   2.967   2.172   3.172
47466SOL    HW244173   3.029   2.231   3.047
47467SOL     OW44174  13.496   7.367   8.103
47467SOL    HW144175  13.485   7.321   8.020
47467SOL    HW244176  13.496   7.460   8.079
47468SOL     OW44177  14.152   3.865   0.915
47468SOL    HW144178  14.068   3.863   0.960
47468SOL    HW244179  14.212   3.817   0.972
47469SOL     OW44180  14.108   8.895  10.562
47469SOL    HW144181  14.151   8.831  10.619
47469SOL    HW244182  14.064   8.842  10.495
47470SOL     OW44183  14.681   8.318   8.859
47470SOL    HW144184  14.654   8.364   8.780
47470SOL    HW244185  14.742   8.378   8.902
47471SOL     OW44186   1.791   3.972   8.752
47471SOL    HW144187   1.802   4.060   8.715
47471SOL    HW244188   1.710   3.940   8.712
47472SOL     OW44189   5.440   0.392   1.720
47472SOL    HW144190   5.512   0.439   1.761
47472SOL    HW244191   5.461   0.393   1.626
47473SOL     OW44192   5.271   0.387   8.603
47473SOL    HW144193   5.305   0.298   8.618
47473SOL    HW244194   5.245   0.386   8.511
47474SOL     OW44195  13.648   9.720  14.297
47474SOL    HW144196  13.660   9.795  14.355
47474SOL    HW244197  13.631   9.647  14.356
47475SOL     OW44198   5.456   4.226   8.281
47475SOL    HW144199   5.512   4.232   8.204
47475SOL    HW244200   5.493   4.154   8.332
47476SOL     OW44201  12.229   3.874   3.730
47476SOL    HW144202  12.220   3.781   3.753
47476SOL    HW244203  12.311   3.878   3.682
47477SOL     OW44204   6.368   1.645   7.126
47477SOL    HW144205   6.346   1.739   7.127
47477SOL    HW244206   6.459   1.642   7.096
47478SOL     OW44207  12.815  10.856  13.598
47478SOL    HW144208  12.795  10.844  13.691
47478SOL    HW244209  12.879  10.927  13.595
47479SOL     OW44210  13.999   0.106   0.003
47479SOL    HW144211  13.909   0.137   0.006
47479SOL    HW244212  13.994   0.020  14.838
47480SOL     OW44213   8.822   3.191   2.098
47480SOL    HW144214   8.915   3.198   2.119
47480SOL    HW244215   8.816   3.221   2.007
47481SOL     OW44216   1.125  13.433   2.379
47481SOL    HW144217   1.196  13.381   2.342
47481SOL    HW244218   1.066  13.450   2.305
47482SOL     OW44219  10.335   0.492  12.998
47482SOL    HW144220  10.262   0.544  13.030
47482SOL    HW244221  10.381   0.550  12.938
47483SOL     OW44222   5.136   3.021  11.596
47483SOL    HW144223   5.083   3.089  11.553
47483SOL    HW244224   5.072   2.958  11.629
47484SOL     OW44225  10.721  10.831  13.139
47484SOL    HW144226  10.662  10.764  13.104
47484SOL    HW244227  10.708  10.907  13.081
47485SOL     OW44228   1.669  13.547  11.744
47485SOL    HW144229   1.738  13.587  11.691
47485SOL    HW244230   1.595  13.608  11.736
47486SOL     OW44231   5.742   7.949   6.234
47486SOL    HW144232   5.749   7.929   6.327
47486SOL    HW244233   5.833   7.956   6.204
47487SOL     OW44234  14.855  13.866   1.703
47487SOL    HW144235   0.045  13.823   1.651
47487SOL    HW244236   0.024  13.899   1.780
47488SOL     OW44237   5.673   7.028   3.840
47488SOL    HW144238   5.620   7.010   3.763
47488SOL    HW244239   5.712   7.114   3.823
47489SOL     OW44240  12.380   1.354   4.646
47489SOL    HW144241  12.331   1.424   4.603
47489SOL    HW244242  12.449   1.331   4.584
47490SOL     OW44243   3.151  10.820   7.728
47490SOL    HW144244   3.199  10.818   7.645
47490SOL    HW244245   3.074  10.875   7.709
47491SOL     OW44246   5.562  10.009  10.225
47491SOL    HW144247   5.537   9.985  10.135
47491SOL    HW244248   5.599  10.097  10.217
47492SOL     OW44249   9.272  12.469   8.634
47492SOL    HW144250   9.336  12.496   8.569
47492SOL    HW244251   9.214  12.409   8.587
47493SOL     OW44252   2.733  13.030   8.919
47493SOL    HW144253   2.644  13.023   8.952
47493SOL    HW244254   2.744  13.123   8.898
47494SOL     OW44255   7.857  10.980  11.312
47494SOL    HW144256   7.801  10.903  11.320
47494SOL    HW244257   7.913  10.978  11.390
47495SOL     OW44258   9.439   8.337   7.827
47495SOL    HW144259   9.364   8.295   7.785
47495SOL    HW244260   9.418   8.335   7.920
47496SOL     OW44261  14.710  10.406   7.410
47496SOL    HW144262  14.716  10.375   7.500
47496SOL    HW244263  14.801  10.416   7.382
47497SOL     OW44264   6.773   1.482   5.826
47497SOL    HW144265   6.785   1.575   5.847
47497SOL    HW244266   6.700   1.481   5.765
47498SOL     OW44267   7.715   3.437   5.513
47498SOL    HW144268   7.640   3.480   5.554
47498SOL    HW244269   7.791   3.487   5.543
47499SOL     OW44270  14.067   5.433  14.753
47499SOL    HW144271  13.983   5.470  14.728
47499SOL    HW244272  14.084   5.366  14.687
47500SOL     OW44273   6.558  13.501   4.752
47500SOL    HW144274   6.605  13.417   4.741
47500SOL    HW244275   6.467  13.480   4.734
47501SOL     OW44276   1.387  12.751   1.520
47501SOL    HW144277   1.441  12.773   1.444
47501SOL    HW244278   1.329  12.682   1.489
47502SOL     OW44279   2.030   3.487  14.512
47502SOL    HW144280   2.015   3.549  14.584
47502SOL    HW244281   2.093   3.425  14.546
47503SOL     OW44282   9.020   5.709   0.362
47503SOL    HW144283   9.060   5.668   0.286
47503SOL    HW244284   9.093   5.739   0.416
47504SOL     OW44285   0.495  10.743   0.482
47504SOL    HW144286   0.409  10.729   0.521
47504SOL    HW244287   0.540  10.659   0.493
47505SOL     OW44288  12.324   6.535   6.366
47505SOL    HW144289  12.278   6.452   6.351
47505SOL    HW244290  12.290   6.567   6.449
47506SOL     OW44291   4.629  12.670   8.776
47506SOL    HW144292   4.604  12.744   8.831
47506SOL    HW244293   4.547  12.625   8.756
47507SOL     OW44294   5.300   0.504   6.263
47507SOL    HW144295   5.363   0.434   6.251
47507SOL    HW244296   5.219   0.471   6.223
47508SOL     OW44297   8.084   7.731   9.185
47508SOL    HW144298   8.149   7.751   9.253
47508SOL    HW244299   8.083   7.809   9.130
47509SOL     OW44300   4.675   0.429  11.580
47509SOL    HW144301   4.592   0.384  11.564
47509SOL    HW244302   4.687   0.485  11.504
47510SOL     OW44303   4.322   7.449   8.784
47510SOL    HW144304   4.342   7.418   8.873
47510SOL    HW244305   4.406   7.447   8.739
47511SOL     OW44306  10.180   0.623   8.298
47511SOL    HW144307  10.178   0.528   8.292
47511SOL    HW244308  10.108   0.645   8.357
47512SOL     OW44309   9.933   9.462   5.237
47512SOL    HW144310   9.848   9.479   5.195
47512SOL    HW244311   9.957   9.374   5.206
47513SOL     OW44312  14.168   7.057   4.159
47513SOL    HW144313  14.078   7.042   4.130
47513SOL    HW244314  14.171   7.021   4.247
47514SOL     OW44315  14.599   3.515  11.361
47514SOL    HW144316  14.615   3.598  11.317
47514SOL    HW244317  14.604   3.535  11.455
47515SOL     OW44318   3.597   5.810   3.325
47515SOL    HW144319   3.565   5.804   3.235
47515SOL    HW244320   3.592   5.903   3.346
47516SOL     OW44321   9.185   5.259   4.791
47516SOL    HW144322   9.131   5.338   4.799
47516SOL    HW244323   9.139   5.206   4.725
47517SOL     OW44324   5.742   6.770   7.523
47517SOL    HW144325   5.736   6.865   7.527
47517SOL    HW244326   5.752   6.750   7.430
47518SOL     OW44327   8.188   1.572  14.773
47518SOL    HW144328   8.237   1.558  14.854
47518SOL    HW244329   8.118   1.506  14.776
47519SOL     OW44330   1.336  13.342   5.272
47519SOL    HW144331   1.343  13.269   5.209
47519SOL    HW244332   1.328  13.299   5.357
47520SOL     OW44333   5.832   0.846  10.179
47520SOL    HW144334   5.928   0.854  10.183
47520SOL    HW244335   5.800   0.924  10.225
47521SOL     OW44336   0.000   2.198  12.336
47521SOL    HW144337   0.063   2.215  12.266
47521SOL    HW244338  14.792   2.202  12.294
47522SOL     OW44339  10.594  10.556  10.770
47522SOL    HW144340  10.526  10.491  10.752
47522SOL    HW244341  10.548  10.640  10.766
47523SOL     OW44342   0.094   1.054   0.995
47523SOL    HW144343   0.120   1.131   0.945
47523SOL    HW244344   0.111   0.980   0.936
47524SOL     OW44345   2.725   7.363   7.448
47524SOL    HW144346   2.820   7.355   7.448
47524SOL    HW244347   2.699   7.353   7.540
47525SOL     OW44348   9.708  14.131   2.856
47525SOL    HW144349   9.803  14.132   2.840
47525SOL    HW244350   9.700  14.150   2.949
47526SOL     OW44351   7.757  13.842   3.791
47526SOL    HW144352   7.778  13.861   3.700
47526SOL    HW244353   7.843  13.830   3.833
47527SOL     OW44354  10.160   4.192   1.329
47527SOL    HW144355  10.162   4.198   1.425
47527SOL    HW244356  10.175   4.099   1.311
47528SOL     OW44357  13.969   8.867  12.721
47528SOL    HW144358  13.969   8.827  12.634
47528SOL    HW244359  13.942   8.957  12.706
47529SOL     OW44360   3.936   2.921   2.297
47529SOL    HW144361   3.956   2.997   2.351
47529SOL    HW244362   3.985   2.934   2.216
47530SOL     OW44363   8.933  12.613   6.196
47530SOL    HW144364   8.995  12.547   6.166
47530SOL    HW244365   8.910  12.585   6.285
47531SOL     OW44366   0.087  10.864  12.686
47531SOL    HW144367  14.871  10.841  12.689
47531SOL    HW244368   0.121  10.835  12.771
47532SOL     OW44369  10.400   4.310   0.070
47532SOL    HW144370  10.379   4.225   0.032
47532SOL    HW244371  10.437   4.290   0.156
47533SOL     OW44372  14.479   4.103   6.049
47533SOL    HW144373  14.390   4.131   6.070
47533SOL    HW244374  14.474   4.068   5.960
47534SOL     OW44375   8.078  14.404   4.924
47534SOL    HW144376   8.073  14.372   4.834
47534SOL    HW244377   8.132  14.484   4.918
47535SOL     OW44378  11.025   9.323  14.024
47535SOL    HW144379  11.019   9.387  14.095
47535SOL    HW244380  11.090   9.359  13.965
47536SOL     OW44381  14.052   6.473   4.797
47536SOL    HW144382  13.987   6.543   4.787
47536SOL    HW244383  14.050   6.426   4.714
47537SOL     OW44384   7.069   0.355  14.003
47537SOL    HW144385   7.143   0.415  14.010
47537SOL    HW244386   7.000   0.395  14.057
47538SOL     OW44387   9.257   0.671   1.188
47538SOL    HW144388   9.219   0.583   1.184
47538SOL    HW244389   9.351   0.657   1.194
47539SOL     OW44390   3.129   0.818   4.904
47539SOL    HW144391   3.088   0.872   4.837
47539SOL    HW244392   3.186   0.758   4.855
47540SOL     OW44393   6.098  14.316  10.485
47540SOL    HW144394   6.110  14.226  10.515
47540SOL    HW244395   6.163  14.327  10.416
47541SOL     OW44396   5.979   1.054   2.580
47541SOL    HW144397   5.969   1.014   2.493
47541SOL    HW244398   6.008   1.143   2.561
47542SOL     OW44399   8.032   8.901   1.175
47542SOL    HW144400   8.058   8.811   1.159
47542SOL    HW244401   7.937   8.901   1.164
47543SOL     OW44402   8.472  10.922  11.267
47543SOL    HW144403   8.528  10.870  11.209
47543SOL    HW244404   8.389  10.874  11.269
47544SOL     OW44405   3.657  14.690  14.806
47544SOL    HW144406   3.683  14.750  14.736
47544SOL    HW244407   3.674  14.603  14.770
47545SOL     OW44408   8.323   9.703  11.143
47545SOL    HW144409   8.367   9.766  11.086
47545SOL    HW244410   8.308   9.751  11.224
47546SOL     OW44411   0.893   4.063   8.195
47546SOL    HW144412   0.930   4.111   8.121
47546SOL    HW244413   0.826   4.006   8.156
47547SOL     OW44414  13.332  13.425   5.674
47547SOL    HW144415  13.382  13.485   5.618
47547SOL    HW244416  13.254  13.403   5.622
47548SOL     OW44417   9.394   6.271   6.396
47548SOL    HW144418   9.430   6.267   6.307
47548SOL    HW244419   9.454   6.217   6.448
47549SOL     OW44420   6.875  11.232   3.734
47549SOL    HW144421   6.957  11.260   3.694
47549SOL    HW244422   6.888  11.244   3.828
47550SOL     OW44423   4.739   9.833   7.945
47550SOL    HW144424   4.802   9.791   7.886
47550SOL    HW244425   4.748   9.786   8.028
47551SOL     OW44426   1.662  13.425   7.454
47551SOL    HW144427   1.597  13.448   7.388
47551SOL    HW244428   1.743  13.467   7.424
47552SOL     OW44429   0.391   7.635  12.933
47552SOL    HW144430   0.339   7.695  12.880
47552SOL    HW244431   0.342   7.627  13.015
47553SOL     OW44432   9.646  10.181   0.775
47553SOL    HW144433   9.567  10.177   0.829
47553SOL    HW244434   9.615  10.200   0.687
47554SOL     OW44435   6.774   5.192  13.130
47554SOL    HW144436   6.858   5.156  13.160
47554SOL    HW244437   6.794   5.230  13.044
47555SOL     OW44438  10.984   9.532  10.796
47555SOL    HW144439  10.948   9.444  10.799
47555SOL    HW244440  10.926   9.584  10.852
47556SOL     OW44441   9.394   7.759   0.040
47556SOL    HW144442   9.330   7.710   0.091
47556SOL    HW244443   9.405   7.708  14.837
47557SOL     OW44444  12.736   0.752   5.579
47557SOL    HW144445  12.728   0.794   5.493
47557SOL    HW244446  12.717   0.660   5.562
47558SOL     OW44447   1.988   1.357   6.808
47558SOL    HW144448   1.965   1.449   6.795
47558SOL    HW244449   2.083   1.358   6.818
47559SOL     OW44450   8.556   9.844  10.931
47559SOL    HW144451   8.622   9.858  10.998
47559SOL    HW244452   8.570   9.914  10.868
47560SOL     OW44453   1.462   4.454  11.162
47560SOL    HW144454   1.507   4.490  11.238
47560SOL    HW244455   1.434   4.531  11.112
47561SOL     OW44456  12.991  12.392   3.161
47561SOL    HW144457  13.020  12.308   3.197
47561SOL    HW244458  12.909  12.372   3.115
47562SOL     OW44459  11.159   1.986  13.855
47562SOL    HW144460  11.125   1.953  13.772
47562SOL    HW244461  11.125   1.925  13.921
47563SOL     OW44462   9.283   1.617   5.960
47563SOL    HW144463   9.289   1.667   6.041
47563SOL    HW244464   9.342   1.542   5.974
47564SOL     OW44465  13.552   6.019  10.435
47564SOL    HW144466  13.565   6.107  10.401
47564SOL    HW244467  13.641   5.988  10.456
47565SOL     OW44468   0.992   9.122   5.936
47565SOL    HW144469   1.019   9.213   5.951
47565SOL    HW244470   1.060   9.086   5.879
47566SOL     OW44471   7.643   6.758   7.269
47566SOL    HW144472   7.674   6.740   7.180
47566SOL    HW244473   7.548   6.761   7.260
47567SOL     OW44474   2.341  10.251   8.791
47567SOL    HW144475   2.327  10.303   8.870
47567SOL    HW244476   2.326  10.160   8.818
47568SOL     OW44477  11.057   3.737   8.636
47568SOL    HW144478  11.133   3.718   8.581
47568SOL    HW244479  11.019   3.650   8.654
47569SOL     OW44480   3.268  12.635   6.409
47569SOL    HW144481   3.255  12.552   6.454
47569SOL    HW244482   3.304  12.693   6.476
47570SOL     OW44483   2.877  10.822   6.822
47570SOL    HW144484   2.903  10.893   6.764
47570SOL    HW244485   2.910  10.743   6.780
47571SOL     OW44486   7.837  13.926   3.542
47571SOL    HW144487   7.819  13.982   3.467
47571SOL    HW244488   7.849  13.839   3.505
47572SOL     OW44489  14.673  10.924   3.176
47572SOL    HW144490  14.640  11.010   3.151
47572SOL    HW244491  14.665  10.871   3.097
47573SOL     OW44492  13.540   0.962   8.468
47573SOL    HW144493  13.498   1.024   8.409
47573SOL    HW244494  13.617   0.932   8.421
47574SOL     OW44495   0.858   0.862  13.708
47574SOL    HW144496   0.820   0.775  13.711
47574SOL    HW244497   0.947   0.849  13.674
47575SOL     OW44498   8.664   7.378   4.818
47575SOL    HW144499   8.724   7.314   4.855
47575SOL    HW244500   8.598   7.391   4.886
47576SOL     OW44501  14.730   0.870   7.282
47576SOL    HW144502  14.769   0.942   7.231
47576SOL    HW244503  14.721   0.799   7.219
47577SOL     OW44504   1.882   1.951   8.763
47577SOL    HW144505   1.796   1.976   8.797
47577SOL    HW244506   1.882   1.855   8.765
47578SOL     OW44507   7.049   9.305   7.936
47578SOL    HW144508   7.017   9.215   7.928
47578SOL    HW244509   6.970   9.357   7.946
47579SOL     OW44510  13.063  13.688   9.694
47579SOL    HW144511  12.985  13.656   9.648
47579SOL    HW244512  13.136  13.665   9.636
47580SOL     OW44513   2.438   0.696  12.356
47580SOL    HW144514   2.490   0.768  12.392
47580SOL    HW244515   2.430   0.716  12.263
47581SOL     OW44516   0.393   5.771  10.048
47581SOL    HW144517   0.437   5.793   9.966
47581SOL    HW244518   0.461   5.728  10.101
47582SOL     OW44519   3.377  11.406   4.099
47582SOL    HW144520   3.348  11.317   4.121
47582SOL    HW244521   3.471  11.397   4.084
47583SOL     OW44522   1.110  13.052   9.685
47583SOL    HW144523   1.079  12.999   9.759
47583SOL    HW244524   1.201  13.071   9.706
47584SOL     OW44525  14.155   3.896  14.570
47584SOL    HW144526  14.240   3.854  14.560
47584SOL    HW244527  14.175   3.983  14.605
47585SOL     OW44528  14.756   8.438  12.908
47585SOL    HW144529  14.762   8.385  12.988
47585SOL    HW244530  14.719   8.377  12.843
47586SOL     OW44531   0.693   8.552  13.280
47586SOL    HW144532   0.645   8.581  13.358
47586SOL    HW244533   0.695   8.457  13.287
47587SOL     OW44534   8.706  12.600   9.942
47587SOL    HW144535   8.614  12.574   9.947
47587SOL    HW244536   8.704  12.695   9.930
47588SOL     OW44537   7.599   2.692   8.631
47588SOL    HW144538   7.676   2.636   8.629
47588SOL    HW244539   7.603   2.736   8.716
47589SOL     OW44540  11.719   8.409   8.492
47589SOL    HW144541  11.802   8.389   8.535
47589SOL    HW244542  11.652   8.392   8.559
47590SOL     OW44543   2.441   6.836   3.889
47590SOL    HW144544   2.351   6.867   3.905
47590SOL    HW244545   2.451   6.842   3.794
47591SOL     OW44546  10.333   8.024   0.750
47591SOL    HW144547  10.393   8.075   0.697
47591SOL    HW244548  10.258   8.008   0.693
47592SOL     OW44549   4.747   4.323   5.424
47592SOL    HW144550   4.801   4.365   5.491
47592SOL    HW244551   4.806   4.315   5.348
47593SOL     OW44552   4.183   5.771   6.248
47593SOL    HW144553   4.211   5.772   6.339
47593SOL    HW244554   4.155   5.861   6.230
47594SOL     OW44555   0.409  12.060   3.040
47594SOL    HW144556   0.354  12.000   2.989
47594SOL    HW244557   0.407  12.025   3.129
47595SOL     OW44558   7.737   1.179   7.015
47595SOL    HW144559   7.819   1.130   7.026
47595SOL    HW244560   7.724   1.183   6.920
47596SOL     OW44561  14.223   2.612  14.015
47596SOL    HW144562  14.158   2.632  14.083
47596SOL    HW244563  14.304   2.597  14.064
47597SOL     OW44564  12.379   4.606   6.427
47597SOL    HW144565  12.379   4.526   6.479
47597SOL    HW244566  12.291   4.611   6.390
47598SOL     OW44567   1.073   6.981   0.379
47598SOL    HW144568   1.134   6.995   0.451
47598SOL    HW244569   1.126   6.939   0.311
47599SOL     OW44570   8.902   2.337   8.046
47599SOL    HW144571   8.879   2.260   7.993
47599SOL    HW244572   8.939   2.399   7.983
47600SOL     OW44573  13.974   3.533  11.916
47600SOL    HW144574  13.915   3.486  11.975
47600SOL    HW244575  13.959   3.625  11.935
47601SOL     OW44576   6.395  12.581  13.599
47601SOL    HW144577   6.438  12.659  13.634
47601SOL    HW244578   6.317  12.614  13.555
47602SOL     OW44579  12.242  14.310   4.275
47602SOL    HW144580  12.241  14.404   4.256
47602SOL    HW244581  12.314  14.298   4.336
47603SOL     OW44582  11.645  10.404  12.624
47603SOL    HW144583  11.724  10.379  12.671
47603SOL    HW244584  11.674  10.420  12.534
47604SOL     OW44585   9.563   4.247   9.794
47604SOL    HW144586   9.477   4.269   9.759
47604SOL    HW244587   9.604   4.331   9.812
47605SOL     OW44588  11.516  14.317   4.231
47605SOL    HW144589  11.555  14.255   4.170
47605SOL    HW244590  11.547  14.403   4.201
47606SOL     OW44591   2.137   1.889  12.821
47606SOL    HW144592   2.170   1.842  12.745
47606SOL    HW244593   2.053   1.924  12.793
47607SOL     OW44594  10.119   2.552   9.588
47607SOL    HW144595  10.180   2.486   9.556
47607SOL    HW244596  10.093   2.522   9.674
47608SOL     OW44597   2.676  10.134  14.150
47608SOL    HW144598   2.666  10.222  14.187
47608SOL    HW244599   2.733  10.089  14.212
47609SOL     OW44600   7.251   6.386  14.509
47609SOL    HW144601   7.278   6.302  14.547
47609SOL    HW244602   7.192   6.424  14.574
47610SOL     OW44603  11.510  10.553   0.007
47610SOL    HW144604  11.456  10.629   0.029
47610SOL    HW244605  11.495  10.538  14.791
47611SOL     OW44606   9.081  10.532  12.665
47611SOL    HW144607   9.038  10.493  12.741
47611SOL    HW244608   9.132  10.605  12.701
47612SOL     OW44609   3.015  11.288  13.845
47612SOL    HW144610   2.970  11.216  13.799
47612SOL    HW244611   2.951  11.318  13.909
47613SOL     OW44612  10.202   6.557   2.437
47613SOL    HW144613  10.198   6.650   2.416
47613SOL    HW244614  10.206   6.554   2.533
47614SOL     OW44615   9.193  10.379   0.747
47614SOL    HW144616   9.245  10.302   0.772
47614SOL    HW244617   9.258  10.446   0.725
47615SOL     OW44618  14.588  10.965  13.693
47615SOL    HW144619  14.574  11.012  13.611
47615SOL    HW244620  14.547  11.020  13.760
47616SOL     OW44621   7.169  13.799  14.259
47616SOL    HW144622   7.137  13.712  14.236
47616SOL    HW244623   7.109  13.859  14.214
47617SOL     OW44624   7.972   0.225  12.377
47617SOL    HW144625   7.978   0.132  12.398
47617SOL    HW244626   7.880   0.238  12.354
47618SOL     OW44627   4.071  14.148   2.278
47618SOL    HW144628   4.164  14.129   2.293
47618SOL    HW244629   4.025  14.083   2.331
47619SOL     OW44630   9.823   8.956   5.355
47619SOL    HW144631   9.786   9.029   5.306
47619SOL    HW244632   9.917   8.960   5.336
47620SOL     OW44633   3.162   8.001  10.178
47620SOL    HW144634   3.115   8.081  10.203
47620SOL    HW244635   3.253   8.017  10.205
47621SOL     OW44636   8.160   0.362  10.346
47621SOL    HW144637   8.128   0.358  10.436
47621SOL    HW244638   8.170   0.270  10.320
47622SOL     OW44639   6.481   5.601  14.460
47622SOL    HW144640   6.435   5.523  14.429
47622SOL    HW244641   6.411   5.663  14.483
47623SOL     OW44642   5.996   6.081   7.088
47623SOL    HW144643   6.064   6.131   7.133
47623SOL    HW244644   5.932   6.147   7.060
47624SOL     OW44645   7.050  14.334  10.593
47624SOL    HW144646   7.012  14.247  10.578
47624SOL    HW244647   6.984  14.381  10.644
47625SOL     OW44648   8.833   8.911  10.775
47625SOL    HW144649   8.792   8.859  10.844
47625SOL    HW244650   8.796   8.999  10.786
47626SOL     OW44651  11.918  11.541   1.282
47626SOL    HW144652  11.980  11.468   1.285
47626SOL    HW244653  11.847  11.515   1.341
47627SOL     OW44654   6.396  11.280   3.951
47627SOL    HW144655   6.368  11.229   3.875
47627SOL    HW244656   6.413  11.215   4.019
47628SOL     OW44657  11.405   2.085   4.848
47628SOL    HW144658  11.425   2.151   4.915
47628SOL    HW244659  11.312   2.095   4.831
47629SOL     OW44660  12.156   9.015   8.134
47629SOL    HW144661  12.076   9.050   8.094
47629SOL    HW244662  12.126   8.970   8.213
47630SOL     OW44663   7.076  12.937  11.551
47630SOL    HW144664   7.058  12.866  11.490
47630SOL    HW244665   7.118  13.005  11.498
47631SOL     OW44666   4.525  12.726   8.422
47631SOL    HW144667   4.604  12.709   8.371
47631SOL    HW244668   4.525  12.820   8.438
47632SOL     OW44669   8.647   3.717   4.017
47632SOL    HW144670   8.741   3.700   4.027
47632SOL    HW244671   8.634   3.728   3.923
47633SOL     OW44672   1.914   5.974  10.070
47633SOL    HW144673   1.975   5.903  10.050
47633SOL    HW244674   1.952   6.016  10.147
47634SOL     OW44675   0.217  10.453  12.643
47634SOL    HW144676   0.246  10.535  12.681
47634SOL    HW244677   0.216  10.391  12.716
47635SOL     OW44678   9.156   1.050   2.881
47635SOL    HW144679   9.158   0.991   2.806
47635SOL    HW244680   9.106   1.126   2.850
47636SOL     OW44681  10.958   5.475   4.368
47636SOL    HW144682  10.958   5.487   4.274
47636SOL    HW244683  11.041   5.514   4.397
47637SOL     OW44684  10.113   3.675   8.234
47637SOL    HW144685  10.140   3.766   8.224
47637SOL    HW244686  10.043   3.664   8.169
47638SOL     OW44687   6.887   9.328   8.235
47638SOL    HW144688   6.815   9.303   8.177
47638SOL    HW244689   6.925   9.405   8.193
47639SOL     OW44690   9.169   5.179  14.138
47639SOL    HW144691   9.117   5.113  14.184
47639SOL    HW244692   9.176   5.147  14.048
47640SOL     OW44693   5.129  12.512  12.944
47640SOL    HW144694   5.198  12.446  12.952
47640SOL    HW244695   5.088  12.514  13.030
47641SOL     OW44696  11.891  10.291   1.384
47641SOL    HW144697  11.883  10.290   1.289
47641SOL    HW244698  11.899  10.199   1.409
47642SOL     OW44699   4.855   1.220   9.548
47642SOL    HW144700   4.858   1.315   9.558
47642SOL    HW244701   4.813   1.188   9.628
47643SOL     OW44702   2.555  12.852   8.098
47643SOL    HW144703   2.588  12.785   8.159
47643SOL    HW244704   2.469  12.876   8.134
47644SOL     OW44705   3.208  10.139   4.611
47644SOL    HW144706   3.291  10.093   4.626
47644SOL    HW244707   3.164  10.088   4.544
47645SOL     OW44708   6.644   4.178   5.272
47645SOL    HW144709   6.629   4.167   5.178
47645SOL    HW244710   6.577   4.125   5.315
47646SOL     OW44711   0.232   0.675   0.345
47646SOL    HW144712   0.158   0.707   0.396
47646SOL    HW244713   0.254   0.591   0.386
47647SOL     OW44714   4.184   8.537  14.210
47647SOL    HW144715   4.166   8.546  14.117
47647SOL    HW244716   4.109   8.489  14.245
47648SOL     OW44717  11.191   9.548   2.904
47648SOL    HW144718  11.147   9.624   2.943
47648SOL    HW244719  11.171   9.553   2.811
47649SOL     OW44720  12.004  14.684  12.119
47649SOL    HW144721  12.088  14.648  12.145
47649SOL    HW244722  11.962  14.614  12.069
47650SOL     OW44723   3.891  12.399  13.645
47650SOL    HW144724   3.876  12.484  13.687
47650SOL    HW244725   3.948  12.418  13.570
47651SOL     OW44726   5.818   8.034   7.344
47651SOL    HW144727   5.765   8.085   7.405
47651SOL    HW244728   5.901   8.082   7.340
47652SOL     OW44729  10.012   0.730   5.653
47652SOL    HW144730   9.979   0.820   5.650
47652SOL    HW244731  10.108   0.740   5.652
47653SOL     OW44732  10.317   4.259  11.530
47653SOL    HW144733  10.285   4.243  11.441
47653SOL    HW244734  10.378   4.186  11.547
47654SOL     OW44735  11.806   6.623   8.891
47654SOL    HW144736  11.733   6.685   8.902
47654SOL    HW244737  11.807   6.573   8.973
47655SOL     OW44738   3.558   8.954   9.671
47655SOL    HW144739   3.617   8.992   9.606
47655SOL    HW244740   3.476   9.002   9.660
47656SOL     OW44741  13.916  10.869   6.480
47656SOL    HW144742  13.950  10.934   6.419
47656SOL    HW244743  13.982  10.800   6.480
47657SOL     OW44744   3.309   8.496   6.274
47657SOL    HW144745   3.231   8.444   6.252
47657SOL    HW244746   3.308   8.568   6.212
47658SOL     OW44747  14.019   2.068   6.915
47658SOL    HW144748  13.996   2.161   6.918
47658SOL    HW244749  13.950   2.025   6.965
47659SOL     OW44750   7.845  11.435  10.948
47659SOL    HW144751   7.784  11.383  11.000
47659SOL    HW244752   7.841  11.522  10.987
47660SOL     OW44753   4.401   0.715  13.942
47660SOL    HW144754   4.455   0.716  14.020
47660SOL    HW244755   4.327   0.657  13.964
47661SOL     OW44756  10.358   0.988   4.624
47661SOL    HW144757  10.267   0.977   4.654
47661SOL    HW244758  10.398   0.902   4.639
47662SOL     OW44759   4.532   2.159   2.528
47662SOL    HW144760   4.467   2.227   2.511
47662SOL    HW244761   4.580   2.151   2.445
47663SOL     OW44762   1.918  13.947   5.564
47663SOL    HW144763   1.849  13.973   5.504
47663SOL    HW244764   1.996  13.939   5.510
47664SOL     OW44765   6.751  11.878   6.534
47664SOL    HW144766   6.805  11.938   6.585
47664SOL    HW244767   6.779  11.890   6.444
47665SOL     OW44768   2.777   7.999  14.510
47665SOL    HW144769   2.835   8.052  14.455
47665SOL    HW244770   2.832   7.972  14.584
47666SOL     OW44771   0.417   8.301  12.040
47666SOL    HW144772   0.354   8.232  12.018
47666SOL    HW244773   0.449   8.278  12.128
47667SOL     OW44774   2.413   4.316   2.810
47667SOL    HW144775   2.374   4.403   2.819
47667SOL    HW244776   2.452   4.316   2.722
47668SOL     OW44777  14.598  10.834   7.991
47668SOL    HW144778  14.669  10.769   7.994
47668SOL    HW244779  14.607  10.882   8.074
47669SOL     OW44780   0.771  10.826   9.828
47669SOL    HW144781   0.839  10.885   9.794
47669SOL    HW244782   0.816  10.742   9.837
47670SOL     OW44783   7.344   5.824   1.102
47670SOL    HW144784   7.414   5.855   1.044
47670SOL    HW244785   7.390   5.783   1.175
47671SOL     OW44786  11.734  14.272   2.968
47671SOL    HW144787  11.770  14.224   2.893
47671SOL    HW244788  11.721  14.361   2.936
47672SOL     OW44789   0.461   9.704   9.634
47672SOL    HW144790   0.387   9.736   9.686
47672SOL    HW244791   0.431   9.621   9.599
47673SOL     OW44792   2.736   1.669   0.584
47673SOL    HW144793   2.649   1.697   0.555
47673SOL    HW244794   2.754   1.724   0.660
47674SOL     OW44795   0.222   1.710   1.857
47674SOL    HW144796   0.195   1.679   1.771
47674SOL    HW244797   0.281   1.642   1.889
47675SOL     OW44798  12.476   6.194   0.792
47675SOL    HW144799  12.438   6.121   0.841
47675SOL    HW244800  12.479   6.163   0.701
47676SOL     OW44801   5.682  13.665   8.657
47676SOL    HW144802   5.646  13.696   8.573
47676SOL    HW244803   5.738  13.592   8.633
47677SOL     OW44804   1.397   0.261   5.674
47677SOL    HW144805   1.417   0.310   5.594
47677SOL    HW244806   1.460   0.295   5.738
47678SOL     OW44807  12.760   2.166  10.201
47678SOL    HW144808  12.769   2.165  10.296
47678SOL    HW244809  12.673   2.130  10.184
47679SOL     OW44810  12.788  10.154   2.335
47679SOL    HW144811  12.803  10.245   2.362
47679SOL    HW244812  12.867  10.130   2.287
47680SOL     OW44813   4.752   2.948   8.064
47680SOL    HW144814   4.827   2.991   8.023
47680SOL    HW244815   4.681   2.958   8.000
47681SOL     OW44816   2.078  13.405   0.783
47681SOL    HW144817   2.087  13.495   0.752
47681SOL    HW244818   2.142  13.355   0.732
47682SOL     OW44819   1.419   0.582  12.048
47682SOL    HW144820   1.439   0.498  12.005
47682SOL    HW244821   1.335   0.567  12.091
47683SOL     OW44822   9.595   5.470   1.745
47683SOL    HW144823   9.666   5.405   1.740
47683SOL    HW244824   9.592   5.510   1.658
47684SOL     OW44825   8.307   3.602   6.008
47684SOL    HW144826   8.374   3.603   6.077
47684SOL    HW244827   8.251   3.677   6.029
47685SOL     OW44828  13.555   3.390  13.994
47685SOL    HW144829  13.615   3.439  14.051
47685SOL    HW244830  13.540   3.308  14.040
47686SOL     OW44831   3.513   0.896   8.259
47686SOL    HW144832   3.443   0.960   8.246
47686SOL    HW244833   3.574   0.940   8.317
47687SOL     OW44834  14.282   8.585   2.338
47687SOL    HW144835  14.293   8.622   2.425
47687SOL    HW244836  14.368   8.594   2.297
47688SOL     OW44837  14.847   7.325   2.985
47688SOL    HW144838  14.825   7.418   2.988
47688SOL    HW244839   0.055   7.321   2.942
47689SOL     OW44840  12.733   4.603   8.717
47689SOL    HW144841  12.713   4.685   8.763
47689SOL    HW244842  12.662   4.593   8.654
47690SOL     OW44843   2.944   0.796   2.192
47690SOL    HW144844   2.940   0.803   2.287
47690SOL    HW244845   2.916   0.881   2.160
47691SOL     OW44846  11.978  13.967   2.814
47691SOL    HW144847  11.888  13.978   2.782
47691SOL    HW244848  12.031  13.963   2.735
47692SOL     OW44849  12.448   8.242   2.045
47692SOL    HW144850  12.432   8.156   2.007
47692SOL    HW244851  12.361   8.277   2.063
47693SOL     OW44852  13.120   2.699   5.147
47693SOL    HW144853  13.096   2.682   5.238
47693SOL    HW244854  13.044   2.743   5.110
47694SOL     OW44855  14.709   5.168   5.553
47694SOL    HW144856  14.733   5.113   5.627
47694SOL    HW244857  14.763   5.247   5.564
47695SOL     OW44858  10.776   0.199   5.883
47695SOL    HW144859  10.770   0.180   5.977
47695SOL    HW244860  10.693   0.240   5.861
47696SOL     OW44861  12.836  11.250  10.129
47696SOL    HW144862  12.772  11.215  10.191
47696SOL    HW244863  12.882  11.173  10.096
47697SOL     OW44864   5.758   1.963   4.835
47697SOL    HW144865   5.824   1.906   4.797
47697SOL    HW244866   5.804   2.046   4.850
47698SOL     OW44867  10.789  13.020   2.207
47698SOL    HW144868  10.854  13.074   2.252
47698SOL    HW244869  10.766  13.071   2.129
47699SOL     OW44870   5.368   7.771   9.014
47699SOL    HW144871   5.453   7.810   9.036
47699SOL    HW244872   5.387   7.708   8.945
47700SOL     OW44873  12.423   8.827  13.193
47700SOL    HW144874  12.410   8.857  13.283
47700SOL    HW244875  12.454   8.737  13.201
47701SOL     OW44876  12.652   9.108  13.050
47701SOL    HW144877  12.670   9.109  13.145
47701SOL    HW244878  12.706   9.179  13.015
47702SOL     OW44879   9.995  10.794   8.275
47702SOL    HW144880  10.064  10.742   8.234
47702SOL    HW244881  10.016  10.885   8.254
47703SOL     OW44882   8.543   5.948  12.195
47703SOL    HW144883   8.455   5.932  12.163
47703SOL    HW244884   8.592   5.869  12.171
47704SOL     OW44885   2.919   7.506   9.380
47704SOL    HW144886   2.902   7.594   9.415
47704SOL    HW244887   2.841   7.485   9.329
47705SOL     OW44888   8.704   8.132   0.619
47705SOL    HW144889   8.648   8.077   0.564
47705SOL    HW244890   8.681   8.108   0.709
47706SOL     OW44891   3.131   4.220   6.995
47706SOL    HW144892   3.095   4.133   7.015
47706SOL    HW244893   3.087   4.279   7.055
47707SOL     OW44894  11.331   8.583   2.867
47707SOL    HW144895  11.364   8.602   2.955
47707SOL    HW244896  11.237   8.601   2.873
47708SOL     OW44897   7.315   1.404   5.941
47708SOL    HW144898   7.301   1.413   6.035
47708SOL    HW244899   7.245   1.456   5.901
47709SOL     OW44900  10.691   0.553   3.842
47709SOL    HW144901  10.604   0.567   3.804
47709SOL    HW244902  10.674   0.498   3.919
47710SOL     OW44903   1.217   7.890  13.184
47710SOL    HW144904   1.197   7.798  13.204
47710SOL    HW244905   1.217   7.894  13.088
47711SOL     OW44906   8.198   2.304   8.691
47711SOL    HW144907   8.274   2.347   8.652
47711SOL    HW244908   8.223   2.212   8.697
47712SOL     OW44909   6.887   7.154   5.578
47712SOL    HW144910   6.901   7.115   5.665
47712SOL    HW244911   6.970   7.196   5.557
47713SOL     OW44912   0.319  14.627  14.160
47713SOL    HW144913   0.409  14.644  14.188
47713SOL    HW244914   0.326  14.606  14.067
47714SOL     OW44915  13.233   3.593   6.196
47714SOL    HW144916  13.220   3.518   6.254
47714SOL    HW244917  13.275   3.556   6.118
47715SOL     OW44918   3.329   4.518   9.808
47715SOL    HW144919   3.370   4.545   9.725
47715SOL    HW244920   3.245   4.481   9.781
47716SOL     OW44921   5.704  11.586  10.649
47716SOL    HW144922   5.616  11.548  10.652
47716SOL    HW244923   5.757  11.520  10.604
47717SOL     OW44924  11.143  12.305  10.655
47717SOL    HW144925  11.228  12.271  10.686
47717SOL    HW244926  11.081  12.277  10.722
47718SOL     OW44927   9.660   3.565   5.757
47718SOL    HW144928   9.689   3.483   5.716
47718SOL    HW244929   9.725   3.582   5.825
47719SOL     OW44930  14.332   7.544   6.760
47719SOL    HW144931  14.252   7.497   6.782
47719SOL    HW244932  14.334   7.544   6.664
47720SOL     OW44933  13.850   1.138   7.416
47720SOL    HW144934  13.823   1.224   7.446
47720SOL    HW244935  13.794   1.119   7.341
47721SOL     OW44936   6.372   4.203   3.198
47721SOL    HW144937   6.452   4.252   3.216
47721SOL    HW244938   6.320   4.211   3.278
47722SOL     OW44939   1.777  10.968   8.011
47722SOL    HW144940   1.835  10.947   8.084
47722SOL    HW244941   1.793  10.898   7.946
47723SOL     OW44942  11.500  11.092   6.135
47723SOL    HW144943  11.563  11.087   6.064
47723SOL    HW244944  11.416  11.106   6.091
47724SOL     OW44945   4.972   3.037   4.520
47724SOL    HW144946   4.980   3.009   4.429
47724SOL    HW244947   5.022   2.972   4.569
47725SOL     OW44948  14.413   0.771   1.204
47725SOL    HW144949  14.492   0.800   1.249
47725SOL    HW244950  14.399   0.682   1.235
47726SOL     OW44951   7.022  13.905   5.929
47726SOL    HW144952   7.022  13.995   5.895
47726SOL    HW244953   7.086  13.907   6.001
47727SOL     OW44954   7.349   8.320   4.204
47727SOL    HW144955   7.276   8.281   4.155
47727SOL    HW244956   7.334   8.295   4.295
47728SOL     OW44957  12.346   5.953   5.879
47728SOL    HW144958  12.289   5.898   5.826
47728SOL    HW244959  12.350   5.910   5.964
47729SOL     OW44960   4.558   8.912  13.447
47729SOL    HW144961   4.634   8.866  13.483
47729SOL    HW244962   4.549   8.990  13.502
47730SOL     OW44963   9.933   4.481   5.308
47730SOL    HW144964   9.850   4.452   5.272
47730SOL    HW244965   9.962   4.552   5.250
47731SOL     OW44966   6.777   0.963   4.521
47731SOL    HW144967   6.705   1.024   4.538
47731SOL    HW244968   6.737   0.876   4.532
47732SOL     OW44969   1.597   1.350  12.113
47732SOL    HW144970   1.595   1.255  12.095
47732SOL    HW244971   1.618   1.356  12.206
47733SOL     OW44972   4.271  13.650   5.460
47733SOL    HW144973   4.203  13.618   5.400
47733SOL    HW244974   4.352  13.609   5.429
47734SOL     OW44975   6.236   1.792   5.280
47734SOL    HW144976   6.266   1.741   5.205
47734SOL    HW244977   6.285   1.874   5.274
47735SOL     OW44978   0.289   8.159   7.763
47735SOL    HW144979   0.320   8.141   7.852
47735SOL    HW244980   0.224   8.091   7.747
47736SOL     OW44981  11.635  10.670  11.011
47736SOL    HW144982  11.707  10.633  11.063
47736SOL    HW244983  11.653  10.764  11.007
47737SOL     OW44984  14.234   8.040  10.421
47737SOL    HW144985  14.264   7.949  10.414
47737SOL    HW244986  14.268   8.083  10.342
47738SOL     OW44987   5.303  10.655  12.146
47738SOL    HW144988   5.215  10.671  12.180
47738SOL    HW244989   5.355  10.728  12.180
47739SOL     OW44990   8.507  12.623   8.072
47739SOL    HW144991   8.573  12.664   8.016
47739SOL    HW244992   8.437  12.598   8.013
47740SOL     OW44993  13.330   1.432   7.125
47740SOL    HW144994  13.396   1.500   7.108
47740SOL    HW244995  13.347   1.405   7.215
47741SOL     OW44996   1.965   7.604   5.610
47741SOL    HW144997   1.909   7.542   5.656
47741SOL    HW244998   2.011   7.651   5.680
47742SOL     OW44999   2.127   3.265   9.426
47742SOL    HW145000   2.037   3.245   9.451
47742SOL    HW245001   2.156   3.188   9.377
47743SOL     OW45002   1.395   3.520  11.810
47743SOL    HW145003   1.328   3.451  11.806
47743SOL    HW245004   1.461   3.493  11.747
47744SOL     OW45005  12.029   7.617  11.755
47744SOL    HW145006  12.011   7.641  11.664
47744SOL    HW245007  12.122   7.635  11.767
47745SOL     OW45008  12.952   2.947   6.175
47745SOL    HW145009  12.899   3.017   6.214
47745SOL    HW245010  12.909   2.929   6.091
47746SOL     OW45011   0.860   5.991   5.167
47746SOL    HW145012   0.861   6.086   5.180
47746SOL    HW245013   0.804   5.978   5.091
47747SOL     OW45014   0.182   5.159   9.977
47747SOL    HW145015   0.132   5.207   9.913
47747SOL    HW245016   0.237   5.099   9.926
47748SOL     OW45017   4.775   5.117   4.028
47748SOL    HW145018   4.724   5.044   4.064
47748SOL    HW245019   4.785   5.096   3.935
47749SOL     OW45020  10.901   9.383   7.984
47749SOL    HW145021  10.879   9.453   7.922
47749SOL    HW245022  10.821   9.332   7.992
47750SOL     OW45023   7.669  13.869   5.180
47750SOL    HW145024   7.651  13.961   5.201
47750SOL    HW245025   7.747  13.847   5.230
47751SOL     OW45026   1.085   2.426   2.017
47751SOL    HW145027   1.006   2.459   1.975
47751SOL    HW245028   1.060   2.410   2.108
47752SOL     OW45029   6.505   5.300  13.427
47752SOL    HW145030   6.446   5.368  13.458
47752SOL    HW245031   6.593   5.335  13.444
47753SOL     OW45032  10.975   9.945  14.471
47753SOL    HW145033  11.069   9.937  14.482
47753SOL    HW245034  10.958   9.914  14.382
47754SOL     OW45035   9.733   0.995   7.737
47754SOL    HW145036   9.658   1.042   7.774
47754SOL    HW245037   9.731   1.015   7.644
47755SOL     OW45038   2.664   3.242  12.103
47755SOL    HW145039   2.726   3.306  12.139
47755SOL    HW245040   2.678   3.246  12.008
47756SOL     OW45041   8.725  11.924   8.210
47756SOL    HW145042   8.639  11.958   8.184
47756SOL    HW245043   8.707  11.835   8.239
47757SOL     OW45044   8.537   6.130   3.217
47757SOL    HW145045   8.581   6.197   3.165
47757SOL    HW245046   8.521   6.172   3.301
47758SOL     OW45047  14.176  13.409   2.143
47758SOL    HW145048  14.126  13.471   2.088
47758SOL    HW245049  14.267  13.437   2.133
47759SOL     OW45050   9.729  12.335   6.029
47759SOL    HW145051   9.664  12.266   6.037
47759SOL    HW245052   9.790  12.303   5.962
47760SOL     OW45053   6.882   2.275   0.439
47760SOL    HW145054   6.928   2.258   0.357
47760SOL    HW245055   6.875   2.370   0.444
47761SOL     OW45056   1.332  11.450  14.467
47761SOL    HW145057   1.331  11.386  14.396
47761SOL    HW245058   1.245  11.489  14.466
47762SOL     OW45059   6.741  13.318   1.970
47762SOL    HW145060   6.801  13.334   2.042
47762SOL    HW245061   6.738  13.222   1.962
47763SOL     OW45062  13.343  11.252   6.908
47763SOL    HW145063  13.270  11.218   6.961
47763SOL    HW245064  13.334  11.209   6.824
47764SOL     OW45065   9.873  12.821   4.402
47764SOL    HW145066   9.794  12.786   4.360
47764SOL    HW245067   9.926  12.854   4.330
47765SOL     OW45068  12.182   2.649   8.429
47765SOL    HW145069  12.102   2.675   8.475
47765SOL    HW245070  12.201   2.561   8.462
47766SOL     OW45071   0.000   8.469  10.352
47766SOL    HW145072   0.031   8.382  10.325
47766SOL    HW245073   0.043   8.529  10.291
47767SOL     OW45074  11.475   5.195  11.695
47767SOL    HW145075  11.483   5.277  11.646
47767SOL    HW245076  11.384   5.193  11.724
47768SOL     OW45077  12.222   6.776   7.555
47768SOL    HW145078  12.152   6.821   7.603
47768SOL    HW245079  12.241   6.834   7.482
47769SOL     OW45080   8.831   5.697  13.775
47769SOL    HW145081   8.872   5.710  13.690
47769SOL    HW245082   8.775   5.621  13.764
47770SOL     OW45083  10.606  12.298   0.570
47770SOL    HW145084  10.570  12.214   0.542
47770SOL    HW245085  10.685  12.275   0.619
47771SOL     OW45086  12.504   8.758  12.658
47771SOL    HW145087  12.494   8.664  12.668
47771SOL    HW245088  12.528   8.790  12.745
47772SOL     OW45089   0.227   1.886   6.829
47772SOL    HW145090   0.265   1.805   6.796
47772SOL    HW245091   0.144   1.895   6.781
47773SOL     OW45092  12.119   9.434   1.690
47773SOL    HW145093  12.041   9.434   1.745
47773SOL    HW245094  12.180   9.376   1.736
47774SOL     OW45095   5.824   0.721   5.741
47774SOL    HW145096   5.903   0.735   5.793
47774SOL    HW245097   5.755   0.704   5.806
47775SOL     OW45098   6.221   8.443   5.312
47775SOL    HW145099   6.190   8.358   5.346
47775SOL    HW245100   6.191   8.506   5.377
47776SOL     OW45101   7.288  14.642   1.953
47776SOL    HW145102   7.383  14.649   1.944
47776SOL    HW245103   7.273  14.647   2.047
47777SOL     OW45104   0.025  10.123   2.542
47777SOL    HW145105  14.877  10.093   2.455
47777SOL    HW245106   0.116  10.151   2.532
47778SOL     OW45107   6.137   6.229   3.300
47778SOL    HW145108   6.098   6.250   3.385
47778SOL    HW245109   6.222   6.192   3.322
47779SOL     OW45110  10.709   0.373   7.610
47779SOL    HW145111  10.694   0.320   7.531
47779SOL    HW245112  10.631   0.428   7.616
47780SOL     OW45113   0.292   4.173   0.442
47780SOL    HW145114   0.337   4.103   0.489
47780SOL    HW245115   0.337   4.253   0.468
47781SOL     OW45116   6.422   7.387   5.801
47781SOL    HW145117   6.393   7.409   5.890
47781SOL    HW245118   6.500   7.442   5.788
47782SOL     OW45119  12.291   0.859   4.574
47782SOL    HW145120  12.330   0.783   4.532
47782SOL    HW245121  12.238   0.900   4.505
47783SOL     OW45122   1.993   5.773  12.302
47783SOL    HW145123   2.005   5.701  12.364
47783SOL    HW245124   1.939   5.735  12.233
47784SOL     OW45125   7.485  10.959  14.001
47784SOL    HW145126   7.569  10.962  13.955
47784SOL    HW245127   7.422  10.935  13.933
47785SOL     OW45128  11.799   8.193  13.049
47785SOL    HW145129  11.895   8.199  13.050
47785SOL    HW245130  11.769   8.281  13.069
47786SOL     OW45131   6.426   0.764   6.239
47786SOL    HW145132   6.408   0.736   6.149
47786SOL    HW245133   6.483   0.840   6.230
47787SOL     OW45134   0.772   8.542  14.623
47787SOL    HW145135   0.802   8.524  14.712
47787SOL    HW245136   0.851   8.542  14.570
47788SOL     OW45137   5.631   0.153   8.355
47788SOL    HW145138   5.598   0.241   8.339
47788SOL    HW245139   5.636   0.146   8.450
47789SOL     OW45140  11.701  14.368  10.684
47789SOL    HW145141  11.618  14.326  10.703
47789SOL    HW245142  11.764  14.296  10.677
47790SOL     OW45143   2.449  14.380  14.464
47790SOL    HW145144   2.453  14.473  14.488
47790SOL    HW245145   2.396  14.378  14.384
47791SOL     OW45146   8.943   3.288   8.863
47791SOL    HW145147   8.999   3.366   8.865
47791SOL    HW245148   8.948   3.253   8.952
47792SOL     OW45149  14.242   3.969  13.530
47792SOL    HW145150  14.206   3.881  13.534
47792SOL    HW245151  14.336   3.957  13.520
47793SOL     OW45152  10.105   8.014  14.654
47793SOL    HW145153  10.020   8.028  14.612
47793SOL    HW245154  10.085   8.011  14.747
47794SOL     OW45155   3.866  13.935   2.368
47794SOL    HW145156   3.905  13.848   2.378
47794SOL    HW245157   3.772  13.917   2.356
47795SOL     OW45158   2.697  14.349   6.617
47795SOL    HW145159   2.662  14.349   6.528
47795SOL    HW245160   2.622  14.326   6.672
47796SOL     OW45161   4.601  14.623  11.790
47796SOL    HW145162   4.543  14.671  11.849
47796SOL    HW245163   4.547  14.554  11.753
47797SOL     OW45164   7.636   9.518  14.330
47797SOL    HW145165   7.631   9.578  14.405
47797SOL    HW245166   7.562   9.458  14.342
47798SOL     OW45167  14.595  10.023   6.490
47798SOL    HW145168  14.643   9.941   6.483
47798SOL    HW245169  14.581  10.035   6.584
47799SOL     OW45170  13.640  11.643   7.610
47799SOL    HW145171  13.693  11.604   7.541
47799SOL    HW245172  13.639  11.737   7.590
47800SOL     OW45173   5.305  14.750  14.506
47800SOL    HW145174   5.277  14.823  14.450
47800SOL    HW245175   5.352  14.692  14.446
47801SOL     OW45176   9.968   7.145   3.737
47801SOL    HW145177   9.939   7.114   3.823
47801SOL    HW245178  10.044   7.091   3.717
47802SOL     OW45179  11.980   3.547   0.481
47802SOL    HW145180  11.946   3.593   0.558
47802SOL    HW245181  12.029   3.474   0.517
47803SOL     OW45182   2.050  11.270   8.496
47803SOL    HW145183   2.008  11.185   8.505
47803SOL    HW245184   1.994  11.319   8.436
47804SOL     OW45185  11.056   0.895  12.179
47804SOL    HW145186  11.151   0.899  12.186
47804SOL    HW245187  11.039   0.895  12.084
47805SOL     OW45188   0.438   2.389   9.739
47805SOL    HW145189   0.369   2.423   9.796
47805SOL    HW245190   0.517   2.392   9.793
47806SOL     OW45191   6.583   3.803   6.359
47806SOL    HW145192   6.538   3.738   6.306
47806SOL    HW245193   6.525   3.819   6.433
47807SOL     OW45194   3.845   4.404   0.184
47807SOL    HW145195   3.874   4.457   0.110
47807SOL    HW245196   3.755   4.431   0.199
47808SOL     OW45197   6.447  14.793   3.319
47808SOL    HW145198   6.406  14.739   3.387
47808SOL    HW245199   6.537  14.804   3.349
47809SOL     OW45200   4.893   4.441   1.148
47809SOL    HW145201   4.921   4.391   1.071
47809SOL    HW245202   4.798   4.435   1.147
47810SOL     OW45203   2.302   2.779   9.495
47810SOL    HW145204   2.300   2.715   9.424
47810SOL    HW245205   2.265   2.732   9.570
47811SOL     OW45206   6.029   2.502   5.764
47811SOL    HW145207   6.009   2.434   5.828
47811SOL    HW245208   6.015   2.584   5.810
47812SOL     OW45209   9.218   9.334   3.477
47812SOL    HW145210   9.300   9.362   3.436
47812SOL    HW245211   9.151   9.391   3.439
47813SOL     OW45212   8.647   4.993   3.194
47813SOL    HW145213   8.695   4.960   3.270
47813SOL    HW245214   8.612   5.077   3.223
47814SOL     OW45215   5.900   9.619   0.457
47814SOL    HW145216   5.903   9.524   0.446
47814SOL    HW245217   5.991   9.647   0.447
47815SOL     OW45218   5.640  10.779   9.427
47815SOL    HW145219   5.693  10.838   9.372
47815SOL    HW245220   5.668  10.799   9.516
47816SOL     OW45221   4.821   7.861   6.684
47816SOL    HW145222   4.916   7.855   6.693
47816SOL    HW245223   4.787   7.787   6.734
47817SOL     OW45224  12.630   5.686   6.025
47817SOL    HW145225  12.677   5.757   5.981
47817SOL    HW245226  12.644   5.703   6.118
47818SOL     OW45227   0.008   8.993   5.530
47818SOL    HW145228  14.839   8.984   5.447
47818SOL    HW245229   0.094   8.953   5.514
47819SOL     OW45230  10.821   4.690   8.985
47819SOL    HW145231  10.823   4.647   8.900
47819SOL    HW245232  10.729   4.683   9.013
47820SOL     OW45233   5.113  12.234   5.050
47820SOL    HW145234   5.140  12.142   5.044
47820SOL    HW245235   5.121  12.255   5.143
47821SOL     OW45236   0.768   1.895  12.588
47821SOL    HW145237   0.801   1.887  12.498
47821SOL    HW245238   0.840   1.863  12.643
47822SOL     OW45239   9.815  12.443   4.010
47822SOL    HW145240   9.727  12.405   4.011
47822SOL    HW245241   9.861  12.394   3.942
47823SOL     OW45242  12.382   8.043   0.392
47823SOL    HW145243  12.386   7.951   0.365
47823SOL    HW245244  12.408   8.093   0.315
47824SOL     OW45245   9.152   4.937  10.182
47824SOL    HW145246   9.208   4.908  10.254
47824SOL    HW245247   9.205   4.999  10.133
47825SOL     OW45248   0.309  13.514   2.936
47825SOL    HW145249   0.362  13.528   2.858
47825SOL    HW245250   0.311  13.420   2.951
47826SOL     OW45251   4.586   8.486   6.943
47826SOL    HW145252   4.604   8.567   6.895
47826SOL    HW245253   4.510   8.508   6.997
47827SOL     OW45254   3.977   1.798   0.272
47827SOL    HW145255   3.950   1.887   0.251
47827SOL    HW245256   3.895   1.748   0.270
47828SOL     OW45257   3.937   8.096   8.638
47828SOL    HW145258   3.980   8.177   8.614
47828SOL    HW245259   3.999   8.027   8.614
47829SOL     OW45260   2.620   0.664  14.086
47829SOL    HW145261   2.577   0.599  14.030
47829SOL    HW245262   2.609   0.747  14.040
47830SOL     OW45263  11.774   7.232  10.000
47830SOL    HW145264  11.770   7.300   9.932
47830SOL    HW245265  11.798   7.152   9.952
47831SOL     OW45266   0.683   4.367   7.238
47831SOL    HW145267   0.653   4.393   7.325
47831SOL    HW245268   0.623   4.411   7.178
47832SOL     OW45269   5.724  11.559  11.511
47832SOL    HW145270   5.718  11.467  11.538
47832SOL    HW245271   5.750  11.606  11.590
47833SOL     OW45272  10.787  11.399   8.431
47833SOL    HW145273  10.757  11.432   8.346
47833SOL    HW245274  10.842  11.469   8.466
47834SOL     OW45275  11.953   1.879   3.493
47834SOL    HW145276  11.878   1.838   3.537
47834SOL    HW245277  12.012   1.902   3.565
47835SOL     OW45278   9.012  10.569   8.539
47835SOL    HW145279   9.098  10.609   8.548
47835SOL    HW245280   8.998  10.524   8.623
47836SOL     OW45281   9.616   6.905  13.465
47836SOL    HW145282   9.707   6.932  13.473
47836SOL    HW245283   9.612   6.820  13.509
47837SOL     OW45284  10.064  11.549  11.246
47837SOL    HW145285  10.066  11.560  11.341
47837SOL    HW245286  10.112  11.468  11.230
47838SOL     OW45287   1.166   9.541   5.113
47838SOL    HW145288   1.089   9.594   5.135
47838SOL    HW245289   1.236   9.577   5.168
47839SOL     OW45290   0.631   6.875  10.207
47839SOL    HW145291   0.633   6.971  10.203
47839SOL    HW245292   0.719   6.850  10.234
47840SOL     OW45293   1.829   0.263   2.945
47840SOL    HW145294   1.904   0.274   2.886
47840SOL    HW245295   1.791   0.179   2.919
47841SOL     OW45296   1.350   7.769   3.832
47841SOL    HW145297   1.324   7.682   3.863
47841SOL    HW245298   1.317   7.773   3.742
47842SOL     OW45299  13.972   6.411   8.909
47842SOL    HW145300  13.980   6.316   8.895
47842SOL    HW245301  13.929   6.419   8.994
47843SOL     OW45302   1.678   8.927  10.878
47843SOL    HW145303   1.672   8.839  10.913
47843SOL    HW245304   1.772   8.947  10.878
47844SOL     OW45305   2.393  12.930  14.222
47844SOL    HW145306   2.397  12.989  14.146
47844SOL    HW245307   2.300  12.927  14.245
47845SOL     OW45308  14.870   0.562   2.592
47845SOL    HW145309   0.061   0.540   2.529
47845SOL    HW245310  14.816   0.484   2.596
47846SOL     OW45311  14.348  14.188   3.325
47846SOL    HW145312  14.357  14.148   3.238
47846SOL    HW245313  14.373  14.279   3.311
47847SOL     OW45314   5.351   6.121   9.928
47847SOL    HW145315   5.405   6.042   9.938
47847SOL    HW245316   5.411   6.193   9.946
47848SOL     OW45317   9.639  11.729   3.089
47848SOL    HW145318   9.618  11.690   3.174
47848SOL    HW245319   9.638  11.655   3.028
47849SOL     OW45320   2.215   1.163  11.605
47849SOL    HW145321   2.216   1.069  11.586
47849SOL    HW245322   2.306   1.191  11.593
47850SOL     OW45323   7.218   7.114   5.489
47850SOL    HW145324   7.171   7.040   5.525
47850SOL    HW245325   7.311   7.093   5.501
47851SOL     OW45326   7.733   6.979   2.403
47851SOL    HW145327   7.645   6.956   2.432
47851SOL    HW245328   7.745   6.930   2.321
47852SOL     OW45329  11.448   5.706   8.103
47852SOL    HW145330  11.425   5.727   8.013
47852SOL    HW245331  11.404   5.622   8.120
47853SOL     OW45332   1.053  13.885   1.211
47853SOL    HW145333   1.038  13.871   1.305
47853SOL    HW245334   1.138  13.930   1.208
47854SOL     OW45335  13.159   4.020   6.739
47854SOL    HW145336  13.237   4.036   6.793
47854SOL    HW245337  13.159   3.926   6.724
47855SOL     OW45338   5.344   5.817   2.801
47855SOL    HW145339   5.364   5.834   2.709
47855SOL    HW245340   5.425   5.783   2.837
47856SOL     OW45341  13.665   1.005  11.655
47856SOL    HW145342  13.694   1.095  11.670
47856SOL    HW245343  13.744   0.960  11.623
47857SOL     OW45344  14.776  14.823   8.391
47857SOL    HW145345  14.747  14.834   8.482
47857SOL    HW245346  14.785  14.729   8.380
47858SOL     OW45347  13.614  11.708   9.309
47858SOL    HW145348  13.622  11.678   9.400
47858SOL    HW245349  13.611  11.627   9.258
47859SOL     OW45350   2.312  12.782   2.201
47859SOL    HW145351   2.357  12.852   2.155
47859SOL    HW245352   2.337  12.702   2.153
47860SOL     OW45353   3.692  14.616   5.535
47860SOL    HW145354   3.659  14.609   5.625
47860SOL    HW245355   3.786  14.600   5.542
47861SOL     OW45356  10.773   6.336   9.130
47861SOL    HW145357  10.868   6.327   9.126
47861SOL    HW245358  10.747   6.288   9.209
47862SOL     OW45359   2.254  12.970   6.272
47862SOL    HW145360   2.240  13.060   6.301
47862SOL    HW245361   2.329  12.976   6.213
47863SOL     OW45362   2.595   2.414   7.879
47863SOL    HW145363   2.503   2.391   7.877
47863SOL    HW245364   2.609   2.454   7.965
47864SOL     OW45365   7.050   7.971   4.495
47864SOL    HW145366   7.146   7.980   4.495
47864SOL    HW245367   7.034   7.897   4.436
47865SOL     OW45368  10.881  14.270   9.165
47865SOL    HW145369  10.805  14.315   9.126
47865SOL    HW245370  10.848  14.184   9.189
47866SOL     OW45371   0.999  13.503  12.506
47866SOL    HW145372   0.965  13.536  12.423
47866SOL    HW245373   1.037  13.580  12.549
47867SOL     OW45374  11.553   4.830   9.892
47867SOL    HW145375  11.629   4.866   9.846
47867SOL    HW245376  11.483   4.893   9.876
47868SOL     OW45377   4.923   9.121   9.373
47868SOL    HW145378   4.882   9.152   9.453
47868SOL    HW245379   4.853   9.125   9.307
47869SOL     OW45380   3.714   1.042  11.476
47869SOL    HW145381   3.759   1.082  11.550
47869SOL    HW245382   3.643   0.992  11.516
47870SOL     OW45383   9.677   6.406   6.500
47870SOL    HW145384   9.597   6.371   6.460
47870SOL    HW245385   9.663   6.396   6.594
47871SOL     OW45386   8.908   7.016  10.451
47871SOL    HW145387   8.892   7.043  10.542
47871SOL    HW245388   8.906   7.098  10.402
47872SOL     OW45389   9.049   0.531  14.392
47872SOL    HW145390   9.118   0.570  14.339
47872SOL    HW245391   9.066   0.436  14.388
47873SOL     OW45392   3.669  12.499   2.210
47873SOL    HW145393   3.692  12.556   2.284
47873SOL    HW245394   3.753  12.466   2.179
47874SOL     OW45395   3.452   6.530   5.615
47874SOL    HW145396   3.377   6.588   5.600
47874SOL    HW245397   3.523   6.588   5.640
47875SOL     OW45398   2.651   9.714   4.132
47875SOL    HW145399   2.606   9.797   4.151
47875SOL    HW245400   2.738   9.724   4.171
47876SOL     OW45401  10.479   7.013  12.816
47876SOL    HW145402  10.549   6.950  12.830
47876SOL    HW245403  10.437   6.985  12.734
47877SOL     OW45404  14.509  10.425  14.841
47877SOL    HW145405  14.457  10.345  14.840
47877SOL    HW245406  14.596  10.397  14.872
47878SOL     OW45407   3.391   1.181   0.361
47878SOL    HW145408   3.342   1.125   0.421
47878SOL    HW245409   3.425   1.122   0.295
47879SOL     OW45410   0.264   7.662   6.817
47879SOL    HW145411   0.178   7.698   6.795
47879SOL    HW245412   0.267   7.662   6.912
47880SOL     OW45413   4.085  14.618  11.294
47880SOL    HW145414   4.165  14.592  11.340
47880SOL    HW245415   4.113  14.633  11.204
47881SOL     OW45416   6.852   7.342   6.769
47881SOL    HW145417   6.857   7.253   6.805
47881SOL    HW245418   6.939   7.378   6.783
47882SOL     OW45419   9.760   1.368  14.642
47882SOL    HW145420   9.675   1.413  14.639
47882SOL    HW245421   9.753   1.300  14.575
47883SOL     OW45422   2.735  13.292  11.289
47883SOL    HW145423   2.734  13.196  11.290
47883SOL    HW245424   2.679  13.315  11.215
47884SOL     OW45425  12.803   3.122  10.650
47884SOL    HW145426  12.773   3.066  10.722
47884SOL    HW245427  12.872   3.071  10.607
47885SOL     OW45428   8.040   1.723   8.919
47885SOL    HW145429   8.066   1.790   8.857
47885SOL    HW245430   8.046   1.641   8.870
47886SOL     OW45431   8.112   8.433  12.648
47886SOL    HW145432   8.073   8.497  12.707
47886SOL    HW245433   8.040   8.405  12.592
47887SOL     OW45434   5.542   9.859   7.440
47887SOL    HW145435   5.615   9.916   7.415
47887SOL    HW245436   5.503   9.831   7.358
47888SOL     OW45437   6.830   3.206   5.921
47888SOL    HW145438   6.829   3.115   5.950
47888SOL    HW245439   6.830   3.200   5.826
47889SOL     OW45440   4.946   2.900   1.002
47889SOL    HW145441   4.927   2.898   1.096
47889SOL    HW245442   4.945   2.808   0.975
47890SOL     OW45443  10.821   2.218  12.446
47890SOL    HW145444  10.826   2.189  12.355
47890SOL    HW245445  10.900   2.183  12.486
47891SOL     OW45446   9.226   2.574   5.246
47891SOL    HW145447   9.203   2.666   5.256
47891SOL    HW245448   9.187   2.531   5.322
47892SOL     OW45449   5.047   9.928  13.205
47892SOL    HW145450   5.105   9.952  13.277
47892SOL    HW245451   4.983   9.999  13.200
47893SOL     OW45452   7.586   9.461   3.161
47893SOL    HW145453   7.635   9.391   3.204
47893SOL    HW245454   7.509   9.473   3.217
47894SOL     OW45455  11.164   1.706   0.487
47894SOL    HW145456  11.099   1.746   0.545
47894SOL    HW245457  11.141   1.613   0.486
47895SOL     OW45458  12.860  12.872  14.237
47895SOL    HW145459  12.830  12.785  14.264
47895SOL    HW245460  12.779  12.923  14.227
47896SOL     OW45461   5.024   1.864   0.167
47896SOL    HW145462   5.015   1.779   0.209
47896SOL    HW245463   5.012   1.846   0.074
47897SOL     OW45464   3.041   2.422   1.121
47897SOL    HW145465   2.957   2.432   1.166
47897SOL    HW245466   3.067   2.332   1.138
47898SOL     OW45467   0.434  13.700   7.377
47898SOL    HW145468   0.489  13.763   7.330
47898SOL    HW245469   0.452  13.617   7.334
47899SOL     OW45470   0.962   9.893  13.710
47899SOL    HW145471   1.055   9.873  13.698
47899SOL    HW245472   0.919   9.858  13.632
47900SOL     OW45473  14.317  10.195  11.152
47900SOL    HW145474  14.392  10.213  11.209
47900SOL    HW245475  14.325  10.102  11.131
47901SOL     OW45476   3.330  13.715   6.098
47901SOL    HW145477   3.273  13.659   6.150
47901SOL    HW245478   3.296  13.803   6.111
47902SOL     OW45479   2.888   6.676   4.630
47902SOL    HW145480   2.816   6.697   4.570
47902SOL    HW245481   2.912   6.760   4.669
47903SOL     OW45482   7.169   2.427  12.347
47903SOL    HW145483   7.097   2.439  12.408
47903SOL    HW245484   7.206   2.515  12.335
47904SOL     OW45485  12.803  13.587  12.983
47904SOL    HW145486  12.853  13.667  12.970
47904SOL    HW245487  12.867  13.517  12.975
47905SOL     OW45488   7.201  13.116   6.810
47905SOL    HW145489   7.124  13.144   6.861
47905SOL    HW245490   7.168  13.104   6.721
47906SOL     OW45491   3.572   3.509  14.679
47906SOL    HW145492   3.586   3.495  14.585
47906SOL    HW245493   3.613   3.433  14.721
47907SOL     OW45494   4.471   2.900  14.680
47907SOL    HW145495   4.543   2.876  14.738
47907SOL    HW245496   4.406   2.941  14.737
47908SOL     OW45497  11.155  13.854  14.560
47908SOL    HW145498  11.061  13.859  14.575
47908SOL    HW245499  11.194  13.874  14.645
47909SOL     OW45500   2.689   6.858   3.035
47909SOL    HW145501   2.767   6.812   3.067
47909SOL    HW245502   2.669   6.816   2.952
47910SOL     OW45503  12.313   9.508  11.234
47910SOL    HW145504  12.264   9.582  11.269
47910SOL    HW245505  12.247   9.441  11.216
47911SOL     OW45506   6.194   5.368   9.891
47911SOL    HW145507   6.201   5.273   9.878
47911SOL    HW245508   6.113   5.379   9.939
47912SOL     OW45509   5.523  12.785  10.374
47912SOL    HW145510   5.534  12.880  10.366
47912SOL    HW245511   5.572  12.749  10.299
47913SOL     OW45512   9.800   1.673   8.463
47913SOL    HW145513   9.856   1.651   8.538
47913SOL    HW245514   9.743   1.743   8.495
47914SOL     OW45515  13.385   5.369   6.323
47914SOL    HW145516  13.448   5.299   6.332
47914SOL    HW245517  13.337   5.349   6.242
47915SOL     OW45518   1.175  12.618   9.690
47915SOL    HW145519   1.093  12.667   9.683
47915SOL    HW245520   1.174  12.558   9.616
47916SOL     OW45521   7.478   4.840  13.201
47916SOL    HW145522   7.418   4.914  13.187
47916SOL    HW245523   7.425   4.763  13.183
47917SOL     OW45524  14.393   7.142   8.758
47917SOL    HW145525  14.488   7.133   8.768
47917SOL    HW245526  14.371   7.218   8.812
47918SOL     OW45527   5.027   0.086  14.279
47918SOL    HW145528   5.047   0.022  14.210
47918SOL    HW245529   5.113   0.119  14.306
47919SOL     OW45530   4.835   7.022   1.690
47919SOL    HW145531   4.899   7.061   1.632
47919SOL    HW245532   4.884   7.002   1.770
47920SOL     OW45533  11.408   3.195   5.971
47920SOL    HW145534  11.324   3.242   5.971
47920SOL    HW245535  11.385   3.103   5.975
47921SOL     OW45536   7.816   1.012   2.140
47921SOL    HW145537   7.768   1.042   2.063
47921SOL    HW245538   7.874   1.085   2.163
47922SOL     OW45539  11.163   3.815  12.152
47922SOL    HW145540  11.244   3.802  12.103
47922SOL    HW245541  11.177   3.766  12.233
47923SOL     OW45542   6.899   2.036   5.213
47923SOL    HW145543   6.865   2.099   5.276
47923SOL    HW245544   6.957   2.087   5.157
47924SOL     OW45545  11.593   8.348   7.829
47924SOL    HW145546  11.545   8.409   7.886
47924SOL    HW245547  11.668   8.320   7.882
47925SOL     OW45548  10.346  10.409   3.743
47925SOL    HW145549  10.362  10.352   3.818
47925SOL    HW245550  10.261  10.380   3.709
47926SOL     OW45551   5.524  12.941   7.711
47926SOL    HW145552   5.586  12.926   7.782
47926SOL    HW245553   5.580  12.953   7.633
47927SOL     OW45554  14.504   0.771   6.168
47927SOL    HW145555  14.413   0.752   6.191
47927SOL    HW245556  14.545   0.685   6.158
47928SOL     OW45557  14.441   4.931  11.440
47928SOL    HW145558  14.422   4.909  11.349
47928SOL    HW245559  14.440   4.847  11.486
47929SOL     OW45560   9.970   6.899  14.508
47929SOL    HW145561   9.981   6.882  14.414
47929SOL    HW245562  10.059   6.898  14.543
47930SOL     OW45563  12.311   9.484   7.675
47930SOL    HW145564  12.335   9.567   7.715
47930SOL    HW245565  12.235   9.505   7.620
47931SOL     OW45566   6.450  14.337  14.568
47931SOL    HW145567   6.498  14.361  14.488
47931SOL    HW245568   6.397  14.263  14.542
47932SOL     OW45569   1.530   1.701   7.432
47932SOL    HW145570   1.447   1.657   7.450
47932SOL    HW245571   1.595   1.650   7.481
47933SOL     OW45572   0.886   2.598  11.100
47933SOL    HW145573   0.966   2.650  11.091
47933SOL    HW245574   0.817   2.653  11.063
47934SOL     OW45575   2.449   8.437  14.175
47934SOL    HW145576   2.455   8.374  14.246
47934SOL    HW245577   2.515   8.503  14.196
47935SOL     OW45578   3.644   3.685  14.861
47935SOL    HW145579   3.618   3.623  14.792
47935SOL    HW245580   3.572   3.747  14.865
47936SOL     OW45581   4.808   2.403  14.451
47936SOL    HW145582   4.852   2.330  14.407
47936SOL    HW245583   4.834   2.394  14.543
47937SOL     OW45584   4.390   4.095   2.036
47937SOL    HW145585   4.423   4.023   2.089
47937SOL    HW245586   4.457   4.163   2.043
47938SOL     OW45587  12.163   8.600  12.019
47938SOL    HW145588  12.195   8.632  12.103
47938SOL    HW245589  12.236   8.551  11.982
47939SOL     OW45590   2.396  12.104   9.320
47939SOL    HW145591   2.489  12.085   9.306
47939SOL    HW245592   2.381  12.080   9.412
47940SOL     OW45593   1.469  13.093  10.229
47940SOL    HW145594   1.502  13.090  10.139
47940SOL    HW245595   1.542  13.124  10.282
47941SOL     OW45596   6.278   4.386   0.503
47941SOL    HW145597   6.351   4.395   0.442
47941SOL    HW245598   6.266   4.291   0.512
47942SOL     OW45599   3.310  14.319   0.511
47942SOL    HW145600   3.263  14.257   0.455
47942SOL    HW245601   3.242  14.363   0.561
47943SOL     OW45602   2.628   0.534   2.552
47943SOL    HW145603   2.649   0.627   2.564
47943SOL    HW245604   2.591   0.529   2.464
47944SOL     OW45605   1.750   0.244  13.678
47944SOL    HW145606   1.707   0.159  13.689
47944SOL    HW245607   1.840   0.230  13.708
47945SOL     OW45608   6.972   4.931   5.687
47945SOL    HW145609   6.907   5.000   5.698
47945SOL    HW245610   6.987   4.927   5.593
47946SOL     OW45611   2.878  13.192  10.812
47946SOL    HW145612   2.826  13.128  10.859
47946SOL    HW245613   2.815  13.238  10.756
47947SOL     OW45614  14.551   8.041   3.456
47947SOL    HW145615  14.519   8.012   3.370
47947SOL    HW245616  14.644   8.019   3.455
47948SOL     OW45617   7.787   5.917   2.362
47948SOL    HW145618   7.874   5.899   2.327
47948SOL    HW245619   7.800   5.991   2.422
47949SOL     OW45620   6.591  12.131  14.087
47949SOL    HW145621   6.651  12.077  14.034
47949SOL    HW245622   6.609  12.220  14.059
47950SOL     OW45623   0.891   8.027   3.263
47950SOL    HW145624   0.894   7.987   3.176
47950SOL    HW245625   0.870   8.119   3.247
47951SOL     OW45626   9.688  10.478  10.978
47951SOL    HW145627   9.594  10.478  10.959
47951SOL    HW245628   9.724  10.409  10.922
47952SOL     OW45629   5.622   2.204   3.797
47952SOL    HW145630   5.695   2.202   3.735
47952SOL    HW245631   5.545   2.185   3.744
47953SOL     OW45632   1.016   7.034   7.086
47953SOL    HW145633   1.069   7.078   7.152
47953SOL    HW245634   0.927   7.069   7.099
47954SOL     OW45635  10.614   8.965   0.034
47954SOL    HW145636  10.551   8.957  14.840
47954SOL    HW245637  10.573   9.024   0.096
47955SOL     OW45638   9.646  14.821   9.447
47955SOL    HW145639   9.703  14.759   9.402
47955SOL    HW245640   9.591  14.767   9.504
47956SOL     OW45641   0.306  13.768  11.434
47956SOL    HW145642   0.210  13.773  11.436
47956SOL    HW245643   0.326  13.691  11.487
47957SOL     OW45644   2.336  14.746  10.321
47957SOL    HW145645   2.342  14.733  10.416
47957SOL    HW245646   2.295  14.832  10.311
47958SOL     OW45647   0.354   8.946   4.398
47958SOL    HW145648   0.395   9.026   4.433
47958SOL    HW245649   0.285   8.925   4.461
47959SOL     OW45650   7.467   6.275  14.187
47959SOL    HW145651   7.493   6.246  14.100
47959SOL    HW245652   7.371   6.276  14.185
47960SOL     OW45653   6.173  12.609  14.735
47960SOL    HW145654   6.237  12.572  14.675
47960SOL    HW245655   6.224  12.666  14.793
47961SOL     OW45656   8.571   9.118   2.509
47961SOL    HW145657   8.575   9.189   2.573
47961SOL    HW245658   8.654   9.124   2.462
47962SOL     OW45659   2.337  14.563   9.702
47962SOL    HW145660   2.367  14.641   9.750
47962SOL    HW245661   2.247  14.585   9.675
47963SOL     OW45662   1.458   2.368   0.387
47963SOL    HW145663   1.541   2.400   0.352
47963SOL    HW245664   1.425   2.440   0.440
47964SOL     OW45665  14.312   4.386   0.473
47964SOL    HW145666  14.257   4.408   0.398
47964SOL    HW245667  14.253   4.388   0.548
47965SOL     OW45668   9.898   1.603   4.180
47965SOL    HW145669   9.954   1.678   4.160
47965SOL    HW245670   9.809   1.636   4.173
47966SOL     OW45671   8.313  12.203   6.196
47966SOL    HW145672   8.333  12.204   6.290
47966SOL    HW245673   8.398  12.209   6.153
47967SOL     OW45674  10.757   0.285  11.686
47967SOL    HW145675  10.672   0.308  11.723
47967SOL    HW245676  10.737   0.255  11.597
47968SOL     OW45677   8.452  10.511   2.778
47968SOL    HW145678   8.423  10.600   2.757
47968SOL    HW245679   8.543  10.509   2.750
47969SOL     OW45680   5.874  13.734   7.902
47969SOL    HW145681   5.813  13.770   7.838
47969SOL    HW245682   5.913  13.658   7.858
47970SOL     OW45683   9.305   3.034   3.228
47970SOL    HW145684   9.223   3.050   3.274
47970SOL    HW245685   9.366   3.005   3.295
47971SOL     OW45686   7.980   6.240   8.754
47971SOL    HW145687   7.931   6.240   8.836
47971SOL    HW245688   8.053   6.300   8.769
47972SOL     OW45689   2.618   9.135   6.567
47972SOL    HW145690   2.693   9.097   6.613
47972SOL    HW245691   2.614   9.086   6.484
47973SOL     OW45692   8.770   0.346   0.029
47973SOL    HW145693   8.780   0.265   0.079
47973SOL    HW245694   8.822   0.333  14.828
47974SOL     OW45695   2.728  10.013   8.874
47974SOL    HW145696   2.811  10.057   8.858
47974SOL    HW245697   2.733   9.933   8.820
47975SOL     OW45698   9.429  12.140   7.907
47975SOL    HW145699   9.344  12.111   7.940
47975SOL    HW245700   9.485  12.142   7.985
47976SOL     OW45701   9.524   6.373   6.034
47976SOL    HW145702   9.557   6.409   5.951
47976SOL    HW245703   9.442   6.419   6.048
47977SOL     OW45704   7.756   8.981   3.342
47977SOL    HW145705   7.703   8.925   3.285
47977SOL    HW245706   7.836   8.930   3.357
47978SOL     OW45707   0.767   5.193   0.332
47978SOL    HW145708   0.682   5.210   0.291
47978SOL    HW245709   0.776   5.263   0.397
47979SOL     OW45710  14.317   2.313  10.748
47979SOL    HW145711  14.283   2.399  10.771
47979SOL    HW245712  14.243   2.270  10.704
47980SOL     OW45713   8.561   9.267   5.713
47980SOL    HW145714   8.510   9.327   5.766
47980SOL    HW245715   8.507   9.250   5.636
47981SOL     OW45716   5.024  10.342  13.440
47981SOL    HW145717   5.108  10.347  13.395
47981SOL    HW245718   5.019  10.422  13.492
47982SOL     OW45719   9.393   0.934   8.896
47982SOL    HW145720   9.337   0.883   8.955
47982SOL    HW245721   9.337   0.956   8.822
47983SOL     OW45722   8.367  11.685   8.469
47983SOL    HW145723   8.344  11.755   8.407
47983SOL    HW245724   8.284  11.660   8.508
47984SOL     OW45725  10.878   8.440   8.272
47984SOL    HW145726  10.962   8.422   8.231
47984SOL    HW245727  10.861   8.533   8.254
47985SOL     OW45728   1.777   2.781   6.751
47985SOL    HW145729   1.708   2.847   6.760
47985SOL    HW245730   1.796   2.754   6.841
47986SOL     OW45731  13.422   8.688   4.195
47986SOL    HW145732  13.362   8.636   4.141
47986SOL    HW245733  13.509   8.665   4.162
47987SOL     OW45734   8.184  10.372  10.084
47987SOL    HW145735   8.171  10.328  10.168
47987SOL    HW245736   8.279  10.378  10.074
47988SOL     OW45737   5.963  14.524   9.524
47988SOL    HW145738   5.888  14.542   9.581
47988SOL    HW245739   5.964  14.597   9.462
47989SOL     OW45740   9.037  10.214   2.212
47989SOL    HW145741   9.054  10.193   2.304
47989SOL    HW245742   9.050  10.308   2.206
47990SOL     OW45743   2.337  11.675  11.721
47990SOL    HW145744   2.379  11.753  11.756
47990SOL    HW245745   2.262  11.708  11.671
47991SOL     OW45746   5.985   9.340   4.930
47991SOL    HW145747   5.946   9.303   4.852
47991SOL    HW245748   5.922   9.405   4.960
47992SOL     OW45749  13.741   2.054   8.999
47992SOL    HW145750  13.761   2.063   9.092
47992SOL    HW245751  13.820   2.014   8.962
47993SOL     OW45752   5.235   4.769   1.234
47993SOL    HW145753   5.299   4.794   1.301
47993SOL    HW245754   5.288   4.752   1.155
47994SOL     OW45755  11.959  13.210   6.211
47994SOL    HW145756  11.914  13.150   6.270
47994SOL    HW245757  11.887  13.257   6.168
47995SOL     OW45758  14.743   8.959  12.106
47995SOL    HW145759  14.809   8.895  12.130
47995SOL    HW245760  14.687   8.913  12.043
47996SOL     OW45761   3.180  13.514   4.500
47996SOL    HW145762   3.102  13.485   4.547
47996SOL    HW245763   3.172  13.609   4.496
47997SOL     OW45764   8.332   5.272   7.074
47997SOL    HW145765   8.425   5.287   7.054
47997SOL    HW245766   8.328   5.270   7.170
47998SOL     OW45767   1.254  12.749  12.588
47998SOL    HW145768   1.248  12.843  12.606
47998SOL    HW245769   1.169  12.715  12.613
47999SOL     OW45770   7.005   6.802   2.439
47999SOL    HW145771   6.918   6.799   2.400
47999SOL    HW245772   7.014   6.892   2.472
48000SOL     OW45773   7.322   4.014  12.432
48000SOL    HW145774   7.268   3.934  12.433
48000SOL    HW245775   7.409   3.984  12.459
48001SOL     OW45776  14.517  11.780   1.204
48001SOL    HW145777  14.553  11.850   1.258
48001SOL    HW245778  14.481  11.825   1.127
48002SOL     OW45779   4.378   7.171   8.413
48002SOL    HW145780   4.333   7.170   8.497
48002SOL    HW245781   4.365   7.083   8.377
48003SOL     OW45782   5.031   4.681   0.723
48003SOL    HW145783   5.097   4.614   0.738
48003SOL    HW245784   4.980   4.685   0.804
48004SOL     OW45785  12.367   2.539   6.838
48004SOL    HW145786  12.337   2.624   6.806
48004SOL    HW245787  12.438   2.560   6.898
48005SOL     OW45788   9.857   9.418   2.726
48005SOL    HW145789   9.919   9.442   2.658
48005SOL    HW245790   9.772   9.415   2.682
48006SOL     OW45791   4.742   8.499   5.080
48006SOL    HW145792   4.804   8.426   5.082
48006SOL    HW245793   4.789   8.569   5.034
48007SOL     OW45794   2.710  12.005  11.436
48007SOL    HW145795   2.688  12.011  11.343
48007SOL    HW245796   2.695  12.093  11.470
48008SOL     OW45797  12.543   9.713   0.897
48008SOL    HW145798  12.486   9.773   0.945
48008SOL    HW245799  12.627   9.718   0.943
48009SOL     OW45800  13.967   9.821  14.559
48009SOL    HW145801  13.963   9.859  14.647
48009SOL    HW245802  14.049   9.771  14.558
48010SOL     OW45803   1.657  10.526   1.841
48010SOL    HW145804   1.721  10.531   1.770
48010SOL    HW245805   1.640  10.617   1.864
48011SOL     OW45806  13.206   2.544   6.716
48011SOL    HW145807  13.208   2.559   6.621
48011SOL    HW245808  13.223   2.630   6.754
48012SOL     OW45809   2.422   3.079   2.775
48012SOL    HW145810   2.441   3.047   2.687
48012SOL    HW245811   2.491   3.041   2.830
48013SOL     OW45812   9.774   2.346   8.532
48013SOL    HW145813   9.837   2.321   8.464
48013SOL    HW245814   9.711   2.402   8.486
48014SOL     OW45815  13.843   3.392   6.560
48014SOL    HW145816  13.918   3.371   6.504
48014SOL    HW245817  13.835   3.316   6.619
48015SOL     OW45818   3.072   3.355   7.252
48015SOL    HW145819   3.117   3.271   7.259
48015SOL    HW245820   3.136   3.413   7.211
48016SOL     OW45821   5.897   5.625   5.674
48016SOL    HW145822   5.887   5.622   5.579
48016SOL    HW245823   5.987   5.599   5.690
48017SOL     OW45824  13.807  14.358   5.988
48017SOL    HW145825  13.854  14.371   5.905
48017SOL    HW245826  13.715  14.368   5.965
48018SOL     OW45827  14.230   4.303   1.145
48018SOL    HW145828  14.145   4.339   1.171
48018SOL    HW245829  14.283   4.380   1.123
48019SOL     OW45830   8.675  11.007  14.855
48019SOL    HW145831   8.744  11.034  14.794
48019SOL    HW245832   8.722  10.961   0.047
48020SOL     OW45833   4.319   1.668   8.554
48020SOL    HW145834   4.355   1.707   8.475
48020SOL    HW245835   4.224   1.670   8.540
48021SOL     OW45836   8.819  14.837  12.055
48021SOL    HW145837   8.856  14.843  11.967
48021SOL    HW245838   8.847  14.752  12.088
48022SOL     OW45839   9.943  14.001   0.931
48022SOL    HW145840   9.903  14.042   0.854
48022SOL    HW245841   9.950  13.908   0.907
48023SOL     OW45842  12.873   2.303  10.013
48023SOL    HW145843  12.932   2.251   9.958
48023SOL    HW245844  12.841   2.242  10.079
48024SOL     OW45845   3.078  13.998   6.896
48024SOL    HW145846   3.066  13.925   6.956
48024SOL    HW245847   3.143  13.967   6.833
48025SOL     OW45848   4.979   4.222   7.377
48025SOL    HW145849   4.935   4.284   7.435
48025SOL    HW245850   4.907   4.175   7.334
48026SOL     OW45851   1.128   4.835  12.356
48026SOL    HW145852   1.109   4.912  12.410
48026SOL    HW245853   1.099   4.859  12.268
48027SOL     OW45854  13.359   8.224   1.049
48027SOL    HW145855  13.272   8.249   1.019
48027SOL    HW245856  13.366   8.265   1.136
48028SOL     OW45857   6.378  12.313  10.170
48028SOL    HW145858   6.463  12.305  10.214
48028SOL    HW245859   6.397  12.360  10.089
48029SOL     OW45860   0.474  13.635  11.150
48029SOL    HW145861   0.439  13.712  11.196
48029SOL    HW245862   0.435  13.639  11.063
48030SOL     OW45863  13.680  11.719   2.073
48030SOL    HW145864  13.691  11.625   2.056
48030SOL    HW245865  13.768  11.755   2.062
48031SOL     OW45866   1.328  11.171   7.891
48031SOL    HW145867   1.370  11.165   7.805
48031SOL    HW245868   1.341  11.084   7.930
48032SOL     OW45869  10.116   2.876  14.407
48032SOL    HW145870  10.110   2.970  14.390
48032SOL    HW245871  10.159   2.869  14.493
48033SOL     OW45872   7.006   8.407   3.961
48033SOL    HW145873   7.095   8.414   3.925
48033SOL    HW245874   7.005   8.469   4.034
48034SOL     OW45875   9.752   7.093   5.168
48034SOL    HW145876   9.825   7.035   5.186
48034SOL    HW245877   9.779   7.178   5.202
48035SOL     OW45878   7.236   4.014   9.296
48035SOL    HW145879   7.259   3.921   9.288
48035SOL    HW245880   7.198   4.036   9.210
48036SOL     OW45881   2.192   4.252   5.489
48036SOL    HW145882   2.127   4.269   5.557
48036SOL    HW245883   2.275   4.245   5.535
48037SOL     OW45884  14.705   3.848   2.598
48037SOL    HW145885  14.733   3.798   2.675
48037SOL    HW245886  14.617   3.877   2.619
48038SOL     OW45887   2.089   9.091   4.183
48038SOL    HW145888   2.182   9.098   4.161
48038SOL    HW245889   2.082   9.132   4.269
48039SOL     OW45890   3.949   9.652  12.067
48039SOL    HW145891   3.879   9.703  12.107
48039SOL    HW245892   4.002   9.622  12.141
48040SOL     OW45893  11.306  10.827   8.892
48040SOL    HW145894  11.398  10.816   8.869
48040SOL    HW245895  11.307  10.858   8.983
48041SOL     OW45896   4.157   4.898   3.569
48041SOL    HW145897   4.200   4.827   3.521
48041SOL    HW245898   4.120   4.953   3.500
48042SOL     OW45899   4.238   8.403  11.801
48042SOL    HW145900   4.269   8.378  11.887
48042SOL    HW245901   4.316   8.433  11.754
48043SOL     OW45902   8.651   7.561   1.495
48043SOL    HW145903   8.697   7.579   1.413
48043SOL    HW245904   8.562   7.539   1.469
48044SOL     OW45905   4.506  11.631   4.559
48044SOL    HW145906   4.546  11.574   4.494
48044SOL    HW245907   4.417  11.644   4.528
48045SOL     OW45908  12.300   5.301   1.700
48045SOL    HW145909  12.353   5.233   1.741
48045SOL    HW245910  12.240   5.330   1.768
48046SOL     OW45911   4.104  12.037  10.075
48046SOL    HW145912   4.115  12.130  10.091
48046SOL    HW245913   4.186  11.997  10.105
48047SOL     OW45914   4.735   6.124  11.846
48047SOL    HW145915   4.758   6.032  11.861
48047SOL    HW245916   4.726   6.161  11.933
48048SOL     OW45917  13.377   1.346  14.291
48048SOL    HW145918  13.439   1.393  14.234
48048SOL    HW245919  13.427   1.323  14.368
48049SOL     OW45920  12.435   2.353   8.629
48049SOL    HW145921  12.431   2.291   8.556
48049SOL    HW245922  12.350   2.344   8.672
48050SOL     OW45923  12.017  14.586   8.911
48050SOL    HW145924  12.076  14.622   8.977
48050SOL    HW245925  12.010  14.655   8.845
48051SOL     OW45926   3.408   5.797   0.656
48051SOL    HW145927   3.367   5.842   0.730
48051SOL    HW245928   3.337   5.745   0.618
48052SOL     OW45929  13.507  12.139   2.154
48052SOL    HW145930  13.534  12.052   2.183
48052SOL    HW245931  13.588  12.184   2.131
48053SOL     OW45932  14.413   2.231  11.098
48053SOL    HW145933  14.480   2.294  11.073
48053SOL    HW245934  14.383   2.193  11.015
48054SOL     OW45935   0.577   2.422   8.404
48054SOL    HW145936   0.517   2.366   8.354
48054SOL    HW245937   0.646   2.444   8.342
48055SOL     OW45938   6.108  14.218   8.372
48055SOL    HW145939   6.051  14.198   8.446
48055SOL    HW245940   6.193  14.184   8.397
48056SOL     OW45941  12.342   2.502  12.339
48056SOL    HW145942  12.313   2.509  12.248
48056SOL    HW245943  12.363   2.592  12.365
48057SOL     OW45944   0.342  12.409   7.638
48057SOL    HW145945   0.262  12.402   7.588
48057SOL    HW245946   0.314  12.406   7.730
48058SOL     OW45947   1.947  13.964  14.320
48058SOL    HW145948   1.994  14.046  14.306
48058SOL    HW245949   1.932  13.930  14.232
48059SOL     OW45950   6.338   2.706  10.663
48059SOL    HW145951   6.381   2.773  10.609
48059SOL    HW245952   6.276   2.664  10.604
48060SOL     OW45953   0.984   5.744  10.047
48060SOL    HW145954   0.896   5.710  10.027
48060SOL    HW245955   1.042   5.670  10.033
48061SOL     OW45956   0.819   6.498   8.148
48061SOL    HW145957   0.799   6.582   8.187
48061SOL    HW245958   0.775   6.434   8.204
48062SOL     OW45959  14.801   1.293  10.121
48062SOL    HW145960  14.770   1.379  10.094
48062SOL    HW245961   0.016   1.306  10.140
48063SOL     OW45962   6.427   2.724   4.234
48063SOL    HW145963   6.405   2.685   4.149
48063SOL    HW245964   6.473   2.805   4.211
48064SOL     OW45965   7.169   1.074   0.768
48064SOL    HW145966   7.124   1.081   0.684
48064SOL    HW245967   7.223   0.996   0.759
48065SOL     OW45968  14.159  13.083  11.525
48065SOL    HW145969  14.226  13.029  11.484
48065SOL    HW245970  14.107  13.022  11.576
48066SOL     OW45971  11.282   8.347  14.191
48066SOL    HW145972  11.369   8.343  14.150
48066SOL    HW245973  11.228   8.289  14.139
48067SOL     OW45974  14.635   7.002  12.911
48067SOL    HW145975  14.668   7.008  13.001
48067SOL    HW245976  14.629   7.093  12.882
48068SOL     OW45977   2.391   0.715   0.696
48068SOL    HW145978   2.403   0.792   0.641
48068SOL    HW245979   2.302   0.686   0.678
48069SOL     OW45980   4.056  14.092   4.509
48069SOL    HW145981   4.064  14.095   4.413
48069SOL    HW245982   4.142  14.121   4.541
48070SOL     OW45983  13.333   6.704  12.629
48070SOL    HW145984  13.362   6.657  12.550
48070SOL    HW245985  13.293   6.636  12.683
48071SOL     OW45986   9.509   6.405   0.359
48071SOL    HW145987   9.516   6.461   0.282
48071SOL    HW245988   9.558   6.326   0.336
48072SOL     OW45989   9.981   3.976  13.135
48072SOL    HW145990  10.066   3.978  13.179
48072SOL    HW245991   9.992   4.034  13.059
48073SOL     OW45992   5.570   6.234   3.556
48073SOL    HW145993   5.488   6.201   3.519
48073SOL    HW245994   5.546   6.312   3.605
48074SOL     OW45995   0.697   5.318   3.538
48074SOL    HW145996   0.716   5.386   3.602
48074SOL    HW245997   0.650   5.363   3.468
48075SOL     OW45998  12.904   4.343   5.188
48075SOL    HW145999  12.919   4.414   5.125
48075SOL    HW246000  12.919   4.383   5.273
48076SOL     OW46001   7.859  13.078   1.069
48076SOL    HW146002   7.878  13.001   1.124
48076SOL    HW246003   7.771  13.062   1.035
48077SOL     OW46004  12.035   1.782   6.920
48077SOL    HW146005  12.121   1.765   6.882
48077SOL    HW246006  12.047   1.766   7.014
48078SOL     OW46007   4.571   1.985   5.835
48078SOL    HW146008   4.521   1.921   5.784
48078SOL    HW246009   4.655   1.991   5.790
48079SOL     OW46010   3.333   3.424   8.075
48079SOL    HW146011   3.290   3.456   8.154
48079SOL    HW246012   3.271   3.443   8.004
48080SOL     OW46013   0.819   9.894  12.243
48080SOL    HW146014   0.913   9.901  12.257
48080SOL    HW246015   0.783   9.977  12.274
48081SOL     OW46016   5.255   5.046   7.775
48081SOL    HW146017   5.289   5.113   7.716
48081SOL    HW246018   5.315   5.048   7.850
48082SOL     OW46019   8.159   6.674   8.139
48082SOL    HW146020   8.113   6.750   8.173
48082SOL    HW246021   8.102   6.640   8.070
48083SOL     OW46022  10.280  10.342  13.980
48083SOL    HW146023  10.289  10.366  13.888
48083SOL    HW246024  10.224  10.411  14.017
48084SOL     OW46025  13.100   6.519   8.862
48084SOL    HW146026  13.141   6.488   8.943
48084SOL    HW246027  13.020   6.564   8.891
48085SOL     OW46028  13.225  13.134   5.027
48085SOL    HW146029  13.161  13.064   5.022
48085SOL    HW246030  13.223  13.162   5.119
48086SOL     OW46031   0.458  13.608   8.093
48086SOL    HW146032   0.490  13.664   8.022
48086SOL    HW246033   0.403  13.666   8.146
48087SOL     OW46034  12.920   1.546   7.766
48087SOL    HW146035  12.914   1.510   7.854
48087SOL    HW246036  12.988   1.493   7.723
48088SOL     OW46037   2.792   1.338   5.437
48088SOL    HW146038   2.838   1.392   5.372
48088SOL    HW246039   2.859   1.319   5.503
48089SOL     OW46040   6.706   1.981  13.802
48089SOL    HW146041   6.695   2.066  13.759
48089SOL    HW246042   6.617   1.956  13.829
48090SOL     OW46043   0.577   7.480   1.521
48090SOL    HW146044   0.596   7.531   1.443
48090SOL    HW246045   0.606   7.391   1.499
48091SOL     OW46046   1.532  10.661   4.193
48091SOL    HW146047   1.565  10.587   4.243
48091SOL    HW246048   1.462  10.625   4.139
48092SOL     OW46049   4.059  12.823  13.008
48092SOL    HW146050   4.037  12.832  12.915
48092SOL    HW246051   4.132  12.762  13.009
48093SOL     OW46052   0.295   5.668   6.754
48093SOL    HW146053   0.238   5.745   6.757
48093SOL    HW246054   0.254   5.605   6.814
48094SOL     OW46055   5.443  13.782  10.414
48094SOL    HW146056   5.503  13.832  10.359
48094SOL    HW246057   5.365  13.836  10.419
48095SOL     OW46058  10.917   5.967   6.104
48095SOL    HW146059  10.989   5.916   6.067
48095SOL    HW246060  10.949   5.998   6.188
48096SOL     OW46061  11.155   9.663  10.606
48096SOL    HW146062  11.100   9.624  10.674
48096SOL    HW246063  11.207   9.590  10.573
48097SOL     OW46064  11.509   0.123   8.105
48097SOL    HW146065  11.533   0.055   8.168
48097SOL    HW246066  11.591   0.167   8.086
48098SOL     OW46067   1.012  10.083  14.342
48098SOL    HW146068   1.103  10.092  14.368
48098SOL    HW246069   1.002   9.990  14.322
48099SOL     OW46070  10.145   7.865   2.175
48099SOL    HW146071  10.188   7.829   2.253
48099SOL    HW246072  10.193   7.827   2.102
48100SOL     OW46073   3.634  11.292   2.171
48100SOL    HW146074   3.700  11.236   2.132
48100SOL    HW246075   3.591  11.237   2.237
48101SOL     OW46076  14.566   8.792   5.126
48101SOL    HW146077  14.579   8.720   5.063
48101SOL    HW246078  14.482   8.830   5.100
48102SOL     OW46079  12.615   4.557   6.314
48102SOL    HW146080  12.568   4.608   6.249
48102SOL    HW246081  12.556   4.554   6.389
48103SOL     OW46082   9.353   3.122  12.807
48103SOL    HW146083   9.343   3.162  12.894
48103SOL    HW246084   9.446   3.131  12.787
48104SOL     OW46085   1.342   7.151   9.142
48104SOL    HW146086   1.270   7.162   9.204
48104SOL    HW246087   1.403   7.092   9.186
48105SOL     OW46088   5.980  12.747   8.097
48105SOL    HW146089   5.909  12.693   8.064
48105SOL    HW246090   6.035  12.765   8.021
48106SOL     OW46091   6.216   6.568  13.719
48106SOL    HW146092   6.241   6.489  13.767
48106SOL    HW246093   6.209   6.636  13.786
48107SOL     OW46094  11.143   8.745   3.432
48107SOL    HW146095  11.080   8.690   3.478
48107SOL    HW246096  11.225   8.735   3.482
48108SOL     OW46097  14.365   2.102   8.698
48108SOL    HW146098  14.317   2.089   8.779
48108SOL    HW246099  14.298   2.132   8.636
48109SOL     OW46100   3.835   4.425   9.453
48109SOL    HW146101   3.855   4.389   9.539
48109SOL    HW246102   3.766   4.369   9.419
48110SOL     OW46103   2.829   9.987   5.578
48110SOL    HW146104   2.860  10.031   5.657
48110SOL    HW246105   2.747  10.031   5.556
48111SOL     OW46106   3.777  10.637   2.732
48111SOL    HW146107   3.857  10.625   2.782
48111SOL    HW246108   3.752  10.728   2.748
48112SOL     OW46109   0.590  13.936  11.495
48112SOL    HW146110   0.574  13.857  11.547
48112SOL    HW246111   0.666  13.978  11.537
48113SOL     OW46112   5.812  13.002   9.956
48113SOL    HW146113   5.826  13.088   9.916
48113SOL    HW246114   5.860  12.942   9.900
48114SOL     OW46115  10.208   3.300   9.973
48114SOL    HW146116  10.165   3.369   9.922
48114SOL    HW246117  10.274   3.265   9.914
48115SOL     OW46118   4.610  12.128  14.613
48115SOL    HW146119   4.578  12.132  14.522
48115SOL    HW246120   4.623  12.035  14.629
48116SOL     OW46121   7.685   0.229   6.476
48116SOL    HW146122   7.590   0.231   6.459
48116SOL    HW246123   7.703   0.138   6.500
48117SOL     OW46124   5.273   2.152  12.607
48117SOL    HW146125   5.321   2.115  12.532
48117SOL    HW246126   5.186   2.112  12.601
48118SOL     OW46127   9.977  13.659   3.578
48118SOL    HW146128   9.907  13.638   3.640
48118SOL    HW246129   9.934  13.711   3.510
48119SOL     OW46130  12.010   8.317  14.348
48119SOL    HW146131  11.974   8.235  14.382
48119SOL    HW246132  11.990   8.315  14.255
48120SOL     OW46133  13.987   0.165   8.638
48120SOL    HW146134  13.976   0.077   8.599
48120SOL    HW246135  13.979   0.150   8.732
48121SOL     OW46136   7.919  11.778   0.141
48121SOL    HW146137   7.966  11.695   0.139
48121SOL    HW246138   7.976  11.837   0.191
48122SOL     OW46139  10.076  14.767   4.258
48122SOL    HW146140  10.116  14.680   4.262
48122SOL    HW246141  10.133  14.818   4.201
48123SOL     OW46142  10.197   0.414  13.716
48123SOL    HW146143  10.130   0.357  13.754
48123SOL    HW246144  10.199   0.391  13.623
48124SOL     OW46145   2.889  11.608   1.989
48124SOL    HW146146   2.964  11.583   1.935
48124SOL    HW246147   2.919  11.686   2.037
48125SOL     OW46148   4.570   7.384   4.838
48125SOL    HW146149   4.492   7.365   4.890
48125SOL    HW246150   4.630   7.429   4.899
48126SOL     OW46151   1.025  11.798   7.503
48126SOL    HW146152   1.094  11.760   7.557
48126SOL    HW246153   1.064  11.810   7.417
48127SOL     OW46154   7.739   2.620   6.502
48127SOL    HW146155   7.748   2.551   6.436
48127SOL    HW246156   7.803   2.686   6.476
48128SOL     OW46157   3.326  12.088  14.656
48128SOL    HW146158   3.274  12.150  14.705
48128SOL    HW246159   3.412  12.130  14.647
48129SOL     OW46160   9.901   4.723  10.999
48129SOL    HW146161   9.854   4.806  11.007
48129SOL    HW246162   9.967   4.739  10.932
48130SOL     OW46163   6.032   2.074   1.997
48130SOL    HW146164   6.013   2.008   1.930
48130SOL    HW246165   5.969   2.055   2.067
48131SOL     OW46166   4.271  10.670  12.194
48131SOL    HW146167   4.310  10.592  12.233
48131SOL    HW246168   4.292  10.740  12.255
48132SOL     OW46169  14.521   4.077  11.171
48132SOL    HW146170  14.443   4.123  11.140
48132SOL    HW246171  14.594   4.120  11.125
48133SOL     OW46172   7.081   0.814   8.158
48133SOL    HW146173   7.142   0.744   8.135
48133SOL    HW246174   7.125   0.894   8.129
48134SOL     OW46175  12.608  12.242   3.403
48134SOL    HW146176  12.699  12.228   3.431
48134SOL    HW246177  12.570  12.155   3.400
48135SOL     OW46178  13.640   6.491   4.807
48135SOL    HW146179  13.675   6.403   4.823
48135SOL    HW246180  13.699   6.528   4.741
48136SOL     OW46181   3.783   7.091   5.824
48136SOL    HW146182   3.864   7.064   5.780
48136SOL    HW246183   3.789   7.186   5.829
48137SOL     OW46184  10.684   9.932  11.238
48137SOL    HW146185  10.668  10.025  11.254
48137SOL    HW246186  10.777   9.920  11.257
48138SOL     OW46187   0.708   2.644  10.103
48138SOL    HW146188   0.703   2.571  10.041
48138SOL    HW246189   0.618   2.659  10.130
48139SOL     OW46190   6.282   0.958  10.375
48139SOL    HW146191   6.227   0.880  10.365
48139SOL    HW246192   6.342   0.936  10.445
48140SOL     OW46193   0.397  13.995   4.907
48140SOL    HW146194   0.343  14.045   4.968
48140SOL    HW246195   0.387  13.904   4.934
48141SOL     OW46196  14.491   0.305  13.748
48141SOL    HW146197  14.454   0.261  13.825
48141SOL    HW246198  14.574   0.341  13.779
48142SOL     OW46199  13.947   3.137   3.293
48142SOL    HW146200  13.874   3.174   3.243
48142SOL    HW246201  13.983   3.211   3.342
48143SOL     OW46202   4.950   0.565   1.511
48143SOL    HW146203   4.969   0.476   1.539
48143SOL    HW246204   4.858   0.563   1.485
48144SOL     OW46205   5.677  10.368   9.520
48144SOL    HW146206   5.732  10.311   9.573
48144SOL    HW246207   5.650  10.437   9.580
48145SOL     OW46208  10.924   2.115   5.482
48145SOL    HW146209  10.873   2.119   5.401
48145SOL    HW246210  10.923   2.205   5.516
48146SOL     OW46211  11.059  10.203   2.159
48146SOL    HW146212  11.064  10.174   2.068
48146SOL    HW246213  11.037  10.124   2.208
48147SOL     OW46214   6.370  13.758   5.270
48147SOL    HW146215   6.323  13.756   5.187
48147SOL    HW246216   6.455  13.798   5.248
48148SOL     OW46217   2.830   5.581   3.203
48148SOL    HW146218   2.751   5.540   3.238
48148SOL    HW246219   2.870   5.513   3.150
48149SOL     OW46220   5.823   6.920   9.099
48149SOL    HW146221   5.918   6.929   9.109
48149SOL    HW246222   5.790   6.927   9.189
48150SOL     OW46223  10.157   4.987  11.057
48150SOL    HW146224  10.183   4.900  11.087
48150SOL    HW246225  10.093   5.016  11.122
48151SOL     OW46226   1.993  14.752   1.637
48151SOL    HW146227   1.945  14.728   1.716
48151SOL    HW246228   2.048  14.676   1.619
48152SOL     OW46229   3.391   6.562  10.281
48152SOL    HW146230   3.389   6.485  10.338
48152SOL    HW246231   3.437   6.533  10.202
48153SOL     OW46232   1.170   6.639   2.901
48153SOL    HW146233   1.153   6.570   2.964
48153SOL    HW246234   1.119   6.714   2.933
48154SOL     OW46235  11.042   3.237  14.434
48154SOL    HW146236  11.085   3.152  14.434
48154SOL    HW246237  11.028   3.258  14.342
48155SOL     OW46238   7.071  14.229  11.207
48155SOL    HW146239   7.068  14.319  11.239
48155SOL    HW246240   6.981  14.198  11.215
48156SOL     OW46241   9.585   3.774   8.464
48156SOL    HW146242   9.547   3.861   8.472
48156SOL    HW246243   9.617   3.753   8.553
48157SOL     OW46244   0.059  11.858   5.982
48157SOL    HW146245  14.868  11.806   5.939
48157SOL    HW246246   0.140  11.834   5.935
48158SOL     OW46247   9.176  10.540   3.499
48158SOL    HW146248   9.160  10.506   3.411
48158SOL    HW246249   9.167  10.635   3.491
48159SOL     OW46250  12.864   9.307  11.412
48159SOL    HW146251  12.921   9.243  11.456
48159SOL    HW246252  12.883   9.295  11.319
48160SOL     OW46253  12.868   2.690  13.492
48160SOL    HW146254  12.808   2.683  13.418
48160SOL    HW246255  12.955   2.688  13.452
48161SOL     OW46256  10.805   1.678   0.965
48161SOL    HW146257  10.795   1.754   1.021
48161SOL    HW246258  10.730   1.622   0.985
48162SOL     OW46259   2.484  11.102   2.674
48162SOL    HW146260   2.547  11.138   2.737
48162SOL    HW246261   2.500  11.008   2.676
48163SOL     OW46262   9.763   5.293  14.684
48163SOL    HW146263   9.809   5.368  14.648
48163SOL    HW246264   9.796   5.285  14.774
48164SOL     OW46265   0.630  10.442   4.301
48164SOL    HW146266   0.642  10.536   4.293
48164SOL    HW246267   0.590  10.429   4.387
48165SOL     OW46268   2.258  13.450  10.429
48165SOL    HW146269   2.220  13.529  10.392
48165SOL    HW246270   2.235  13.381  10.367
48166SOL     OW46271   1.099   9.283   8.350
48166SOL    HW146272   1.072   9.351   8.287
48166SOL    HW246273   1.051   9.305   8.430
48167SOL     OW46274  10.877   9.390  11.564
48167SOL    HW146275  10.795   9.352  11.596
48167SOL    HW246276  10.890   9.468  11.618
48168SOL     OW46277   8.018  10.453   6.596
48168SOL    HW146278   8.031  10.548   6.601
48168SOL    HW246279   8.102  10.416   6.623
48169SOL     OW46280   2.931  10.840  10.488
48169SOL    HW146281   2.990  10.810  10.419
48169SOL    HW246282   2.959  10.931  10.505
48170SOL     OW46283   9.669   6.464   4.288
48170SOL    HW146284   9.643   6.373   4.300
48170SOL    HW246285   9.649   6.483   4.196
48171SOL     OW46286  10.457  13.574  12.228
48171SOL    HW146287  10.388  13.604  12.169
48171SOL    HW246288  10.464  13.480  12.211
48172SOL     OW46289   1.980   3.233   6.422
48172SOL    HW146290   1.997   3.237   6.328
48172SOL    HW246291   1.962   3.324   6.447
48173SOL     OW46292   8.346  11.316   8.952
48173SOL    HW146293   8.265  11.272   8.980
48173SOL    HW246294   8.339  11.405   8.987
48174SOL     OW46295   0.364   7.846  13.590
48174SOL    HW146296   0.448   7.872  13.552
48174SOL    HW246297   0.386   7.823  13.681
48175SOL     OW46298   3.195  14.592   6.262
48175SOL    HW146299   3.237  14.548   6.188
48175SOL    HW246300   3.173  14.522   6.323
48176SOL     OW46301   7.019  14.800   3.348
48176SOL    HW146302   6.977  14.875   3.388
48176SOL    HW246303   6.957  14.769   3.281
48177SOL     OW46304   5.616  12.412  12.604
48177SOL    HW146305   5.581  12.481  12.660
48177SOL    HW246306   5.539  12.363  12.575
48178SOL     OW46307  11.687  14.066   8.543
48178SOL    HW146308  11.769  14.089   8.584
48178SOL    HW246309  11.619  14.096   8.604
48179SOL     OW46310   5.051  10.081   8.735
48179SOL    HW146311   4.968  10.054   8.697
48179SOL    HW246312   5.067  10.168   8.698
48180SOL     OW46313   1.640   1.919   9.762
48180SOL    HW146314   1.571   1.981   9.737
48180SOL    HW246315   1.714   1.941   9.705
48181SOL     OW46316  13.361   8.467  12.174
48181SOL    HW146317  13.365   8.392  12.115
48181SOL    HW246318  13.290   8.446  12.234
48182SOL     OW46319   0.039   3.506  14.029
48182SOL    HW146320   0.080   3.541  14.107
48182SOL    HW246321   0.014   3.416  14.053
48183SOL     OW46322  14.234  13.087   8.039
48183SOL    HW146323  14.321  13.062   8.071
48183SOL    HW246324  14.196  13.004   8.008
48184SOL     OW46325   8.630   3.136   1.475
48184SOL    HW146326   8.537   3.114   1.474
48184SOL    HW246327   8.663   3.102   1.392
48185SOL     OW46328   5.082  11.741   0.222
48185SOL    HW146329   5.149  11.697   0.274
48185SOL    HW246330   5.128  11.768   0.142
48186SOL     OW46331  13.232   1.950  10.331
48186SOL    HW146332  13.308   1.972  10.385
48186SOL    HW246333  13.257   1.868  10.288
48187SOL     OW46334   0.826   9.299   9.497
48187SOL    HW146335   0.918   9.292   9.472
48187SOL    HW246336   0.801   9.210   9.522
48188SOL     OW46337   1.035   4.283  10.622
48188SOL    HW146338   1.103   4.241  10.569
48188SOL    HW246339   0.968   4.310  10.559
48189SOL     OW46340  11.791   6.392   4.089
48189SOL    HW146341  11.787   6.351   4.175
48189SOL    HW246342  11.699   6.397   4.061
48190SOL     OW46343  10.461  13.791   9.365
48190SOL    HW146344  10.523  13.824   9.430
48190SOL    HW246345  10.446  13.865   9.306
48191SOL     OW46346   0.679  12.819  14.808
48191SOL    HW146347   0.726  12.758  14.752
48191SOL    HW246348   0.598  12.774  14.831
48192SOL     OW46349   1.736  13.795  13.966
48192SOL    HW146350   1.684  13.714  13.970
48192SOL    HW246351   1.822  13.769  13.999
48193SOL     OW46352  10.201   7.067   3.628
48193SOL    HW146353  10.189   7.017   3.547
48193SOL    HW246354  10.250   7.145   3.601
48194SOL     OW46355   1.573   3.557   7.387
48194SOL    HW146356   1.606   3.636   7.343
48194SOL    HW246357   1.579   3.489   7.321
48195SOL     OW46358  10.455   1.988  12.477
48195SOL    HW146359  10.535   2.022  12.517
48195SOL    HW246360  10.415   2.065  12.437
48196SOL     OW46361   4.622  11.990  10.756
48196SOL    HW146362   4.676  11.916  10.728
48196SOL    HW246363   4.669  12.067  10.724
48197SOL     OW46364  12.137   8.132   8.676
48197SOL    HW146365  12.090   8.060   8.716
48197SOL    HW246366  12.175   8.180   8.750
48198SOL     OW46367   9.266   2.122   1.590
48198SOL    HW146368   9.226   2.038   1.611
48198SOL    HW246369   9.319   2.104   1.512
48199SOL     OW46370  13.042   0.975  12.230
48199SOL    HW146371  13.030   0.983  12.136
48199SOL    HW246372  13.127   1.017  12.247
48200SOL     OW46373  13.119   8.668  12.049
48200SOL    HW146374  13.035   8.686  12.090
48200SOL    HW246375  13.103   8.593  11.992
48201SOL     OW46376   4.424  14.433   8.410
48201SOL    HW146377   4.388  14.501   8.467
48201SOL    HW246378   4.348  14.383   8.380
48202SOL     OW46379   4.595  14.495   8.054
48202SOL    HW146380   4.688  14.477   8.066
48202SOL    HW246381   4.584  14.504   7.960
48203SOL     OW46382   7.949  12.311   0.097
48203SOL    HW146383   7.952  12.367   0.174
48203SOL    HW246384   8.031  12.261   0.100
48204SOL     OW46385  10.955  12.131   1.959
48204SOL    HW146386  10.906  12.054   1.929
48204SOL    HW246387  10.888  12.196   1.979
48205SOL     OW46388   6.782   7.421  14.535
48205SOL    HW146389   6.692   7.442  14.562
48205SOL    HW246390   6.837   7.448  14.608
48206SOL     OW46391   6.581   4.490   5.663
48206SOL    HW146392   6.650   4.507   5.726
48206SOL    HW246393   6.514   4.442   5.713
48207SOL     OW46394   0.098   2.382   0.862
48207SOL    HW146395   0.056   2.307   0.904
48207SOL    HW246396   0.048   2.458   0.895
48208SOL     OW46397   7.372   3.341   4.580
48208SOL    HW146398   7.343   3.251   4.593
48208SOL    HW246399   7.445   3.334   4.518
48209SOL     OW46400   4.782  12.260   0.782
48209SOL    HW146401   4.802  12.305   0.864
48209SOL    HW246402   4.867  12.228   0.750
48210SOL     OW46403   2.751  11.009  12.722
48210SOL    HW146404   2.714  11.097  12.714
48210SOL    HW246405   2.789  10.990  12.636
48211SOL     OW46406   8.488   0.177   7.216
48211SOL    HW146407   8.486   0.141   7.127
48211SOL    HW246408   8.566   0.232   7.218
48212SOL     OW46409  12.876  12.310   0.963
48212SOL    HW146410  12.922  12.241   0.916
48212SOL    HW246411  12.888  12.288   1.056
48213SOL     OW46412   3.368   7.028   3.204
48213SOL    HW146413   3.330   6.984   3.128
48213SOL    HW246414   3.356   7.121   3.187
48214SOL     OW46415   9.330  12.893   4.278
48214SOL    HW146416   9.425  12.885   4.280
48214SOL    HW246417   9.299  12.832   4.345
48215SOL     OW46418   7.090  12.380   6.618
48215SOL    HW146419   7.077  12.413   6.529
48215SOL    HW246420   7.106  12.458   6.671
48216SOL     OW46421  10.396  13.835  13.719
48216SOL    HW146422  10.359  13.860  13.634
48216SOL    HW246423  10.415  13.918  13.762
48217SOL     OW46424   0.500   4.454  13.552
48217SOL    HW146425   0.555   4.471  13.629
48217SOL    HW246426   0.561   4.417  13.488
48218SOL     OW46427   7.106   5.854   4.102
48218SOL    HW146428   7.153   5.792   4.047
48218SOL    HW246429   7.151   5.851   4.187
48219SOL     OW46430  13.931   2.294  13.758
48219SOL    HW146431  13.946   2.223  13.696
48219SOL    HW246432  13.929   2.252  13.844
48220SOL     OW46433   2.651   8.168  14.826
48220SOL    HW146434   2.589   8.097  14.843
48220SOL    HW246435   2.736   8.125  14.818
48221SOL     OW46436   3.250  11.750  13.176
48221SOL    HW146437   3.244  11.721  13.267
48221SOL    HW246438   3.249  11.845  13.182
48222SOL     OW46439  14.748  12.000  13.036
48222SOL    HW146440  14.836  12.003  12.999
48222SOL    HW246441  14.749  12.069  13.103
48223SOL     OW46442  12.840  12.455  11.666
48223SOL    HW146443  12.874  12.457  11.576
48223SOL    HW246444  12.914  12.425  11.719
48224SOL     OW46445  12.025  14.375  12.940
48224SOL    HW146446  12.117  14.399  12.931
48224SOL    HW246447  11.978  14.448  12.900
48225SOL     OW46448   6.122  14.511   8.284
48225SOL    HW146449   6.050  14.544   8.230
48225SOL    HW246450   6.112  14.415   8.280
48226SOL     OW46451   8.948  10.802   4.793
48226SOL    HW146452   8.911  10.722   4.831
48226SOL    HW246453   8.925  10.797   4.700
48227SOL     OW46454   7.800   2.790   3.813
48227SOL    HW146455   7.793   2.874   3.857
48227SOL    HW246456   7.858   2.807   3.738
48228SOL     OW46457   1.966   4.111   9.581
48228SOL    HW146458   1.979   4.202   9.607
48228SOL    HW246459   2.013   4.103   9.498
48229SOL     OW46460   9.810   9.323   9.023
48229SOL    HW146461   9.849   9.236   9.028
48229SOL    HW246462   9.786   9.344   9.113
48230SOL     OW46463   6.759   0.618  14.230
48230SOL    HW146464   6.804   0.534  14.236
48230SOL    HW246465   6.808   0.675  14.290
48231SOL     OW46466   8.786  13.090   4.354
48231SOL    HW146467   8.740  13.018   4.399
48231SOL    HW246468   8.773  13.072   4.261
48232SOL     OW46469  10.094   7.057  10.896
48232SOL    HW146470  10.111   7.054  10.802
48232SOL    HW246471  10.115   7.147  10.921
48233SOL     OW46472  11.759   7.362   0.703
48233SOL    HW146473  11.771   7.368   0.798
48233SOL    HW246474  11.847   7.348   0.669
48234SOL     OW46475  12.959   3.991  14.664
48234SOL    HW146476  13.008   4.032  14.593
48234SOL    HW246477  12.984   3.898  14.660
48235SOL     OW46478   5.417   5.294   4.042
48235SOL    HW146479   5.431   5.211   3.998
48235SOL    HW246480   5.332   5.285   4.084
48236SOL     OW46481   2.095   7.772   0.547
48236SOL    HW146482   2.113   7.679   0.553
48236SOL    HW246483   2.008   7.783   0.586
48237SOL     OW46484   8.906   0.210   4.802
48237SOL    HW146485   8.955   0.277   4.755
48237SOL    HW246486   8.923   0.129   4.753
48238SOL     OW46487  14.736   8.835   2.898
48238SOL    HW146488  14.812   8.887   2.925
48238SOL    HW246489  14.710   8.873   2.814
48239SOL     OW46490   6.865   9.905   0.457
48239SOL    HW146491   6.802   9.894   0.385
48239SOL    HW246492   6.897   9.817   0.475
48240SOL     OW46493   4.132  11.622   6.365
48240SOL    HW146494   4.153  11.563   6.293
48240SOL    HW246495   4.120  11.707   6.323
48241SOL     OW46496   6.753   1.759  10.926
48241SOL    HW146497   6.793   1.812  10.857
48241SOL    HW246498   6.718   1.683  10.881
48242SOL     OW46499   2.830   8.997   0.336
48242SOL    HW146500   2.863   9.056   0.268
48242SOL    HW246501   2.745   8.967   0.303
48243SOL     OW46502   0.927   1.828  13.516
48243SOL    HW146503   0.906   1.907  13.467
48243SOL    HW246504   0.892   1.844  13.604
48244SOL     OW46505   5.697  12.391  11.883
48244SOL    HW146506   5.648  12.392  11.965
48244SOL    HW246507   5.661  12.318  11.833
48245SOL     OW46508   5.403  10.165  13.556
48245SOL    HW146509   5.460  10.108  13.608
48245SOL    HW246510   5.320  10.166  13.604
48246SOL     OW46511   4.993   1.338  13.946
48246SOL    HW146512   5.039   1.317  13.864
48246SOL    HW246513   5.029   1.423  13.972
48247SOL     OW46514   4.598   3.216  11.873
48247SOL    HW146515   4.675   3.257  11.912
48247SOL    HW246516   4.531   3.222  11.941
48248SOL     OW46517  13.546   3.810   0.231
48248SOL    HW146518  13.630   3.800   0.185
48248SOL    HW246519  13.538   3.904   0.248
48249SOL     OW46520   7.281  12.565   9.473
48249SOL    HW146521   7.287  12.623   9.549
48249SOL    HW246522   7.216  12.606   9.416
48250SOL     OW46523   0.750   3.664   4.637
48250SOL    HW146524   0.708   3.690   4.719
48250SOL    HW246525   0.832   3.712   4.635
48251SOL     OW46526   0.859   2.551   6.645
48251SOL    HW146527   0.857   2.638   6.686
48251SOL    HW246528   0.854   2.568   6.551
48252SOL     OW46529  13.914   3.349   7.565
48252SOL    HW146530  13.837   3.406   7.566
48252SOL    HW246531  13.985   3.405   7.536
48253SOL     OW46532  14.392  14.343   0.857
48253SOL    HW146533  14.463  14.359   0.919
48253SOL    HW246534  14.437  14.329   0.773
48254SOL     OW46535  13.944   6.782  14.687
48254SOL    HW146536  13.879   6.740  14.632
48254SOL    HW246537  13.896   6.809  14.765
48255SOL     OW46538  12.767   2.754  13.030
48255SOL    HW146539  12.727   2.814  13.093
48255SOL    HW246540  12.697   2.692  13.008
48256SOL     OW46541   8.632   4.228   9.226
48256SOL    HW146542   8.672   4.167   9.287
48256SOL    HW246543   8.554   4.260   9.271
48257SOL     OW46544   4.773   0.448  13.462
48257SOL    HW146545   4.810   0.478  13.379
48257SOL    HW246546   4.678   0.445  13.446
48258SOL     OW46547   1.430  10.688   0.369
48258SOL    HW146548   1.339  10.658   0.376
48258SOL    HW246549   1.423  10.779   0.340
48259SOL     OW46550   5.352   0.887  14.414
48259SOL    HW146551   5.260   0.864  14.426
48259SOL    HW246552   5.400   0.830  14.475
48260SOL     OW46553  12.341   5.867  10.772
48260SOL    HW146554  12.428   5.889  10.804
48260SOL    HW246555  12.297   5.951  10.760
48261SOL     OW46556  11.778   5.161  10.109
48261SOL    HW146557  11.811   5.194  10.026
48261SOL    HW246558  11.831   5.206  10.175
48262SOL     OW46559   4.586  10.107  12.018
48262SOL    HW146560   4.582  10.034  11.955
48262SOL    HW246561   4.610  10.066  12.101
48263SOL     OW46562   1.594  13.659   5.525
48263SOL    HW146563   1.643  13.654   5.607
48263SOL    HW246564   1.613  13.746   5.490
48264SOL     OW46565   9.816   5.143  11.961
48264SOL    HW146566   9.894   5.196  11.981
48264SOL    HW246567   9.842   5.053  11.979
48265SOL     OW46568   7.010   9.534   4.799
48265SOL    HW146569   7.068   9.523   4.724
48265SOL    HW246570   6.930   9.571   4.762
48266SOL     OW46571   1.831   1.444  14.487
48266SOL    HW146572   1.922   1.456  14.460
48266SOL    HW246573   1.797   1.533  14.499
48267SOL     OW46574   2.624   1.087   4.068
48267SOL    HW146575   2.698   1.142   4.044
48267SOL    HW246576   2.578   1.072   3.985
48268SOL     OW46577   1.856   6.755   7.811
48268SOL    HW146578   1.808   6.688   7.860
48268SOL    HW246579   1.866   6.827   7.873
48269SOL     OW46580   8.712  10.283  10.794
48269SOL    HW146581   8.659  10.204  10.784
48269SOL    HW246582   8.776  10.260  10.862
48270SOL     OW46583   9.336   4.914   8.143
48270SOL    HW146584   9.293   4.830   8.123
48270SOL    HW246585   9.288   4.978   8.091
48271SOL     OW46586  11.547   4.967   0.204
48271SOL    HW146587  11.500   5.025   0.143
48271SOL    HW246588  11.613   4.924   0.150
48272SOL     OW46589   8.011   9.671  10.712
48272SOL    HW146590   8.046   9.650  10.799
48272SOL    HW246591   7.953   9.598  10.691
48273SOL     OW46592   9.065  10.603  14.249
48273SOL    HW146593   9.066  10.694  14.280
48273SOL    HW246594   9.024  10.608  14.163
48274SOL     OW46595   1.235   8.622   8.995
48274SOL    HW146596   1.279   8.702   8.965
48274SOL    HW246597   1.235   8.565   8.918
48275SOL     OW46598   1.004  14.671  12.555
48275SOL    HW146599   1.012  14.743  12.492
48275SOL    HW246600   0.931  14.619  12.521
48276SOL     OW46601   8.546  13.218   6.455
48276SOL    HW146602   8.492  13.176   6.388
48276SOL    HW246603   8.486  13.278   6.500
48277SOL     OW46604  13.283  14.219  10.383
48277SOL    HW146605  13.357  14.228  10.322
48277SOL    HW246606  13.290  14.297  10.439
48278SOL     OW46607   7.439   9.731   2.241
48278SOL    HW146608   7.414   9.811   2.289
48278SOL    HW246609   7.530   9.716   2.266
48279SOL     OW46610  10.864  12.111  12.041
48279SOL    HW146611  10.799  12.107  12.111
48279SOL    HW246612  10.909  12.195  12.055
48280SOL     OW46613   3.084  14.044   4.501
48280SOL    HW146614   3.009  14.086   4.459
48280SOL    HW246615   3.160  14.084   4.459
48281SOL     OW46616   3.045   0.828  11.430
48281SOL    HW146617   2.956   0.847  11.400
48281SOL    HW246618   3.070   0.905  11.481
48282SOL     OW46619   9.535   9.889  10.826
48282SOL    HW146620   9.501   9.799  10.831
48282SOL    HW246621   9.628   9.880  10.848
48283SOL     OW46622   2.324  13.376   7.048
48283SOL    HW146623   2.404  13.330   7.024
48283SOL    HW246624   2.309  13.352   7.139
48284SOL     OW46625   4.992   3.727  14.781
48284SOL    HW146626   5.087   3.730  14.782
48284SOL    HW246627   4.970   3.640  14.813
48285SOL     OW46628   9.673   5.281   4.270
48285SOL    HW146629   9.748   5.313   4.320
48285SOL    HW246630   9.597   5.324   4.308
48286SOL     OW46631  12.993   0.442   8.834
48286SOL    HW146632  12.959   0.463   8.747
48286SOL    HW246633  13.069   0.386   8.816
48287SOL     OW46634  12.691   6.933   4.908
48287SOL    HW146635  12.623   6.919   4.842
48287SOL    HW246636  12.686   6.856   4.964
48288SOL     OW46637  11.051   3.386  14.645
48288SOL    HW146638  10.972   3.437  14.624
48288SOL    HW246639  11.066   3.333  14.566
48289SOL     OW46640   6.888   6.698   8.662
48289SOL    HW146641   6.847   6.652   8.735
48289SOL    HW246642   6.965   6.644   8.640
48290SOL     OW46643   5.687  10.386   5.451
48290SOL    HW146644   5.631  10.318   5.414
48290SOL    HW246645   5.694  10.364   5.544
48291SOL     OW46646   7.792  10.774  12.340
48291SOL    HW146647   7.736  10.830  12.286
48291SOL    HW246648   7.848  10.727  12.278
48292SOL     OW46649   3.526  10.591   0.671
48292SOL    HW146650   3.520  10.622   0.581
48292SOL    HW246651   3.598  10.641   0.709
48293SOL     OW46652   7.527  12.315  13.388
48293SOL    HW146653   7.589  12.387  13.380
48293SOL    HW246654   7.515  12.303  13.482
48294SOL     OW46655   8.444   3.758   3.493
48294SOL    HW146656   8.377   3.692   3.475
48294SOL    HW246657   8.396   3.840   3.499
48295SOL     OW46658   2.223   2.327  12.968
48295SOL    HW146659   2.273   2.361  13.042
48295SOL    HW246660   2.224   2.232  12.980
48296SOL     OW46661  13.171  14.540  10.345
48296SOL    HW146662  13.155  14.626  10.385
48296SOL    HW246663  13.093  14.489  10.368
48297SOL     OW46664  12.273  13.196  10.285
48297SOL    HW146665  12.352  13.151  10.317
48297SOL    HW246666  12.232  13.230  10.365
48298SOL     OW46667   7.079  14.103   5.195
48298SOL    HW146668   7.022  14.060   5.131
48298SOL    HW246669   7.069  14.052   5.275
48299SOL     OW46670   8.781   8.686   8.697
48299SOL    HW146671   8.757   8.604   8.741
48299SOL    HW246672   8.798   8.747   8.769
48300SOL     OW46673   1.323   0.007   8.915
48300SOL    HW146674   1.290  14.809   8.866
48300SOL    HW246675   1.404   0.032   8.870
48301SOL     OW46676  12.937   2.636  12.848
48301SOL    HW146677  12.876   2.678  12.909
48301SOL    HW246678  12.983   2.571  12.901
48302SOL     OW46679   6.218  13.533   7.142
48302SOL    HW146680   6.214  13.524   7.237
48302SOL    HW246681   6.157  13.604   7.123
48303SOL     OW46682   0.118  14.338   0.813
48303SOL    HW146683   0.133  14.387   0.894
48303SOL    HW246684   0.136  14.400   0.743
48304SOL     OW46685   5.756   5.585   9.696
48304SOL    HW146686   5.686   5.584   9.761
48304SOL    HW246687   5.769   5.678   9.676
48305SOL     OW46688   0.175   7.836   4.282
48305SOL    HW146689   0.236   7.841   4.356
48305SOL    HW246690   0.089   7.826   4.324
48306SOL     OW46691  13.799  14.216  13.995
48306SOL    HW146692  13.779  14.290  13.938
48306SOL    HW246693  13.753  14.235  14.077
48307SOL     OW46694  13.519  13.642  14.579
48307SOL    HW146695  13.567  13.625  14.660
48307SOL    HW246696  13.584  13.678  14.520
48308SOL     OW46697   8.741  12.838   1.634
48308SOL    HW146698   8.653  12.801   1.628
48308SOL    HW246699   8.728  12.933   1.631
48309SOL     OW46700  14.035   6.872   6.217
48309SOL    HW146701  14.095   6.832   6.280
48309SOL    HW246702  14.028   6.807   6.146
48310SOL     OW46703  10.776   1.100   7.720
48310SOL    HW146704  10.689   1.132   7.743
48310SOL    HW246705  10.759   1.034   7.652
48311SOL     OW46706   0.383  10.212   5.980
48311SOL    HW146707   0.433  10.251   6.052
48311SOL    HW246708   0.335  10.286   5.942
48312SOL     OW46709  12.527  11.828   0.510
48312SOL    HW146710  12.576  11.813   0.429
48312SOL    HW246711  12.435  11.832   0.482
48313SOL     OW46712  14.039   5.152  11.814
48313SOL    HW146713  14.045   5.063  11.782
48313SOL    HW246714  13.945   5.170  11.817
48314SOL     OW46715   6.195  14.223  13.441
48314SOL    HW146716   6.192  14.296  13.380
48314SOL    HW246717   6.180  14.146  13.387
48315SOL     OW46718   5.266   4.769   5.322
48315SOL    HW146719   5.198   4.740   5.382
48315SOL    HW246720   5.220   4.785   5.239
48316SOL     OW46721   8.101   4.556  10.942
48316SOL    HW146722   8.015   4.557  10.984
48316SOL    HW246723   8.089   4.500  10.865
48317SOL     OW46724   5.283   0.630  14.140
48317SOL    HW146725   5.261   0.566  14.072
48317SOL    HW246726   5.340   0.693  14.095
48318SOL     OW46727   4.082   9.728   2.857
48318SOL    HW146728   4.004   9.687   2.894
48318SOL    HW246729   4.070   9.822   2.873
48319SOL     OW46730  13.972   5.612   6.232
48319SOL    HW146731  13.916   5.644   6.162
48319SOL    HW246732  13.917   5.616   6.310
48320SOL     OW46733  10.668   9.673   9.555
48320SOL    HW146734  10.587   9.719   9.533
48320SOL    HW246735  10.733   9.742   9.565
48321SOL     OW46736   8.098   3.740   0.533
48321SOL    HW146737   8.090   3.808   0.465
48321SOL    HW246738   8.085   3.658   0.486
48322SOL     OW46739  14.439   1.409   7.506
48322SOL    HW146740  14.420   1.466   7.431
48322SOL    HW246741  14.393   1.450   7.579
48323SOL     OW46742   1.405  14.217   7.681
48323SOL    HW146743   1.498  14.211   7.703
48323SOL    HW246744   1.399  14.287   7.617
48324SOL     OW46745   0.582   4.470  13.153
48324SOL    HW146746   0.630   4.546  13.185
48324SOL    HW246747   0.603   4.400  13.215
48325SOL     OW46748  12.043  11.333   0.569
48325SOL    HW146749  12.034  11.413   0.519
48325SOL    HW246750  11.972  11.277   0.538
48326SOL     OW46751  13.893   9.766   1.080
48326SOL    HW146752  13.855   9.704   1.017
48326SOL    HW246753  13.928   9.837   1.026
48327SOL     OW46754  10.400   9.785   7.085
48327SOL    HW146755  10.390   9.878   7.105
48327SOL    HW246756  10.397   9.742   7.171
48328SOL     OW46757  14.708   8.323   4.960
48328SOL    HW146758  14.750   8.262   5.019
48328SOL    HW246759  14.656   8.380   5.017
48329SOL     OW46760  10.027   6.045   9.884
48329SOL    HW146761  10.046   6.084   9.799
48329SOL    HW246762   9.952   5.987   9.868
48330SOL     OW46763  14.669  14.653   6.530
48330SOL    HW146764  14.579  14.663   6.562
48330SOL    HW246765  14.660  14.612   6.444
48331SOL     OW46766  11.577  14.263   9.993
48331SOL    HW146767  11.638  14.336   9.983
48331SOL    HW246768  11.491  14.303  10.002
48332SOL     OW46769  10.090   1.739   0.802
48332SOL    HW146770  10.010   1.790   0.791
48332SOL    HW246771  10.062   1.648   0.797
48333SOL     OW46772   2.749   4.773  11.653
48333SOL    HW146773   2.804   4.761  11.576
48333SOL    HW246774   2.710   4.687  11.670
48334SOL     OW46775  13.992  11.836   4.394
48334SOL    HW146776  13.914  11.876   4.356
48334SOL    HW246777  14.063  11.860   4.334
48335SOL     OW46778  14.340   8.432   1.982
48335SOL    HW146779  14.291   8.404   2.060
48335SOL    HW246780  14.274   8.470   1.924
48336SOL     OW46781  11.576  11.694   9.250
48336SOL    HW146782  11.496  11.647   9.225
48336SOL    HW246783  11.592  11.666   9.341
48337SOL     OW46784  12.724   0.074  13.365
48337SOL    HW146785  12.671   0.099  13.440
48337SOL    HW246786  12.781   0.149  13.349
48338SOL     OW46787  14.876  11.824  12.507
48338SOL    HW146788   0.002  11.919  12.503
48338SOL    HW246789  14.871  11.803  12.600
48339SOL     OW46790  10.832   7.905  11.855
48339SOL    HW146791  10.824   8.000  11.856
48339SOL    HW246792  10.743   7.873  11.837
48340SOL     OW46793  10.241   2.557  11.588
48340SOL    HW146794  10.278   2.625  11.643
48340SOL    HW246795  10.275   2.475  11.624
48341SOL     OW46796  11.001   0.919   1.902
48341SOL    HW146797  11.045   0.875   1.829
48341SOL    HW246798  10.911   0.929   1.873
48342SOL     OW46799   0.590  12.797  13.746
48342SOL    HW146800   0.553  12.709  13.749
48342SOL    HW246801   0.544  12.839  13.673
48343SOL     OW46802  11.651   6.382   2.835
48343SOL    HW146803  11.565   6.347   2.812
48343SOL    HW246804  11.708   6.306   2.836
48344SOL     OW46805   1.107   7.124   9.645
48344SOL    HW146806   1.038   7.130   9.579
48344SOL    HW246807   1.069   7.165   9.723
48345SOL     OW46808  12.441   8.277   0.535
48345SOL    HW146809  12.371   8.341   0.518
48345SOL    HW246810  12.413   8.199   0.488
48346SOL     OW46811   3.308  13.253   2.169
48346SOL    HW146812   3.309  13.210   2.084
48346SOL    HW246813   3.320  13.346   2.149
48347SOL     OW46814  11.527  11.084  10.936
48347SOL    HW146815  11.503  11.058  10.847
48347SOL    HW246816  11.610  11.041  10.952
48348SOL     OW46817  14.362   6.102   6.599
48348SOL    HW146818  14.431   6.168   6.594
48348SOL    HW246819  14.407   6.019   6.583
48349SOL     OW46820  12.684  14.788  12.949
48349SOL    HW146821  12.685  14.853  13.020
48349SOL    HW246822  12.689  14.840  12.869
48350SOL     OW46823   4.228  10.611   4.032
48350SOL    HW146824   4.161  10.590   3.967
48350SOL    HW246825   4.310  10.581   3.993
48351SOL     OW46826   2.713   5.945  14.514
48351SOL    HW146827   2.799   5.941  14.471
48351SOL    HW246828   2.732   5.972  14.603
48352SOL     OW46829   1.348   5.404   1.254
48352SOL    HW146830   1.324   5.347   1.182
48352SOL    HW246831   1.344   5.492   1.217
48353SOL     OW46832   0.722  11.741   2.133
48353SOL    HW146833   0.681  11.814   2.179
48353SOL    HW246834   0.678  11.740   2.048
48354SOL     OW46835   6.761  11.181  10.483
48354SOL    HW146836   6.675  11.141  10.473
48354SOL    HW246837   6.804  11.128  10.550
48355SOL     OW46838  11.720   0.802   2.863
48355SOL    HW146839  11.747   0.846   2.783
48355SOL    HW246840  11.792   0.742   2.883
48356SOL     OW46841   7.767  12.658  12.189
48356SOL    HW146842   7.699  12.687  12.249
48356SOL    HW246843   7.822  12.735  12.175
48357SOL     OW46844  10.292   7.774   8.037
48357SOL    HW146845  10.218   7.834   8.052
48357SOL    HW246846  10.276   7.701   8.096
48358SOL     OW46847   2.247   3.057   6.435
48358SOL    HW146848   2.299   3.084   6.360
48358SOL    HW246849   2.163   3.101   6.423
48359SOL     OW46850  12.372   2.940   5.907
48359SOL    HW146851  12.379   3.030   5.874
48359SOL    HW246852  12.279   2.930   5.928
48360SOL     OW46853   3.614   2.567  12.989
48360SOL    HW146854   3.568   2.484  12.988
48360SOL    HW246855   3.702   2.547  12.956
48361SOL     OW46856   2.993   1.768  11.488
48361SOL    HW146857   2.909   1.750  11.447
48361SOL    HW246858   3.056   1.715  11.439
48362SOL     OW46859   1.586   3.253   3.357
48362SOL    HW146860   1.588   3.327   3.298
48362SOL    HW246861   1.629   3.182   3.309
48363SOL     OW46862   7.840   4.811  10.105
48363SOL    HW146863   7.836   4.841  10.014
48363SOL    HW246864   7.759   4.843  10.144
48364SOL     OW46865  13.718   7.041   5.979
48364SOL    HW146866  13.775   6.976   5.937
48364SOL    HW246867  13.667   6.991   6.042
48365SOL     OW46868   1.616  10.560   0.212
48365SOL    HW146869   1.587  10.469   0.208
48365SOL    HW246870   1.554  10.601   0.274
48366SOL     OW46871   9.121   0.813   3.617
48366SOL    HW146872   9.153   0.760   3.689
48366SOL    HW246873   9.199   0.858   3.584
48367SOL     OW46874   4.772   9.380  11.818
48367SOL    HW146875   4.846   9.338  11.777
48367SOL    HW246876   4.704   9.381  11.751
48368SOL     OW46877   3.853  11.241  13.731
48368SOL    HW146878   3.896  11.160  13.759
48368SOL    HW246879   3.794  11.263  13.803
48369SOL     OW46880   0.858  14.876   9.324
48369SOL    HW146881   0.923   0.067   9.309
48369SOL    HW246882   0.806  14.874   9.244
48370SOL     OW46883   4.764   5.620   3.221
48370SOL    HW146884   4.807   5.572   3.151
48370SOL    HW246885   4.834   5.673   3.260
48371SOL     OW46886   5.029   8.952  13.791
48371SOL    HW146887   5.103   8.901  13.825
48371SOL    HW246888   5.058   9.043  13.798
48372SOL     OW46889   0.673   5.947   4.950
48372SOL    HW146890   0.688   5.864   4.904
48372SOL    HW246891   0.613   5.995   4.893
48373SOL     OW46892   6.410   8.603   5.983
48373SOL    HW146893   6.418   8.697   5.966
48373SOL    HW246894   6.394   8.598   6.077
48374SOL     OW46895  10.197  14.183   3.061
48374SOL    HW146896  10.258  14.116   3.030
48374SOL    HW246897  10.190  14.166   3.155
48375SOL     OW46898   3.817  13.605  12.342
48375SOL    HW146899   3.798  13.517  12.374
48375SOL    HW246900   3.853  13.592  12.254
48376SOL     OW46901   9.172   9.184   7.080
48376SOL    HW146902   9.191   9.243   7.007
48376SOL    HW246903   9.077   9.169   7.073
48377SOL     OW46904   8.186   7.663  11.406
48377SOL    HW146905   8.235   7.602  11.462
48377SOL    HW246906   8.252   7.721  11.371
48378SOL     OW46907   3.808  12.074   8.122
48378SOL    HW146908   3.827  12.011   8.191
48378SOL    HW246909   3.782  12.021   8.046
48379SOL     OW46910   0.096   4.816   2.336
48379SOL    HW146911   0.157   4.837   2.407
48379SOL    HW246912   0.023   4.772   2.380
48380SOL     OW46913   4.406   5.359   9.888
48380SOL    HW146914   4.325   5.386   9.931
48380SOL    HW246915   4.385   5.275   9.849
48381SOL     OW46916   3.034   9.800   2.598
48381SOL    HW146917   3.044   9.706   2.615
48381SOL    HW246918   2.939   9.811   2.586
48382SOL     OW46919   4.771   6.435   4.935
48382SOL    HW146920   4.724   6.394   4.861
48382SOL    HW246921   4.706   6.436   5.006
48383SOL     OW46922   2.300   4.106  14.706
48383SOL    HW146923   2.224   4.121  14.763
48383SOL    HW246924   2.302   4.011  14.693
48384SOL     OW46925   4.826  13.517  10.060
48384SOL    HW146926   4.803  13.531   9.968
48384SOL    HW246927   4.884  13.442  10.059
48385SOL     OW46928   2.640   7.491  10.920
48385SOL    HW146929   2.594   7.575  10.912
48385SOL    HW246930   2.631   7.451  10.833
48386SOL     OW46931   4.833  12.662   6.851
48386SOL    HW146932   4.904  12.692   6.794
48386SOL    HW246933   4.754  12.670   6.798
48387SOL     OW46934   6.294   5.701  10.152
48387SOL    HW146935   6.272   5.729  10.241
48387SOL    HW246936   6.236   5.752  10.096
48388SOL     OW46937   0.145   1.105  14.441
48388SOL    HW146938   0.116   1.022  14.403
48388SOL    HW246939   0.077   1.128  14.505
48389SOL     OW46940   5.471   5.010   7.382
48389SOL    HW146941   5.408   4.945   7.412
48389SOL    HW246942   5.420   5.069   7.327
48390SOL     OW46943   6.042   1.613   2.732
48390SOL    HW146944   6.003   1.692   2.770
48390SOL    HW246945   6.120   1.644   2.687
48391SOL     OW46946   7.694   2.536   7.272
48391SOL    HW146947   7.764   2.545   7.337
48391SOL    HW246948   7.739   2.512   7.191
48392SOL     OW46949   9.873   9.446  10.093
48392SOL    HW146950   9.879   9.539  10.114
48392SOL    HW246951   9.957   9.424  10.054
48393SOL     OW46952  13.354  12.454  11.660
48393SOL    HW146953  13.322  12.480  11.746
48393SOL    HW246954  13.277  12.460  11.603
48394SOL     OW46955   6.285   3.504   3.663
48394SOL    HW146956   6.265   3.425   3.713
48394SOL    HW246957   6.315   3.567   3.729
48395SOL     OW46958   1.938   0.627   3.958
48395SOL    HW146959   1.901   0.711   3.982
48395SOL    HW246960   2.033   0.642   3.957
48396SOL     OW46961   9.798   4.211   8.720
48396SOL    HW146962   9.733   4.272   8.686
48396SOL    HW246963   9.771   4.195   8.810
48397SOL     OW46964   9.204  13.226   6.545
48397SOL    HW146965   9.288  13.181   6.542
48397SOL    HW246966   9.150  13.181   6.481
48398SOL     OW46967   4.567  12.940  11.415
48398SOL    HW146968   4.574  12.846  11.431
48398SOL    HW246969   4.641  12.978  11.464
48399SOL     OW46970   8.816  13.163   5.330
48399SOL    HW146971   8.878  13.125   5.393
48399SOL    HW246972   8.800  13.092   5.268
48400SOL     OW46973  11.328  13.241   0.784
48400SOL    HW146974  11.361  13.328   0.803
48400SOL    HW246975  11.281  13.215   0.863
48401SOL     OW46976   4.757   3.921   8.469
48401SOL    HW146977   4.794   3.839   8.437
48401SOL    HW246978   4.734   3.970   8.390
48402SOL     OW46979   2.156   9.293   8.350
48402SOL    HW146980   2.123   9.256   8.268
48402SOL    HW246981   2.078   9.302   8.405
48403SOL     OW46982  14.619  11.857  13.364
48403SOL    HW146983  14.525  11.875  13.372
48403SOL    HW246984  14.624  11.790  13.296
48404SOL     OW46985  14.215   3.064   1.032
48404SOL    HW146986  14.302   3.027   1.020
48404SOL    HW246987  14.170   3.048   0.949
48405SOL     OW46988   6.584  11.601   5.463
48405SOL    HW146989   6.602  11.528   5.521
48405SOL    HW246990   6.660  11.605   5.404
48406SOL     OW46991   6.147   6.530   3.674
48406SOL    HW146992   6.125   6.438   3.685
48406SOL    HW246993   6.079   6.565   3.616
48407SOL     OW46994   9.627   8.286   5.144
48407SOL    HW146995   9.563   8.315   5.209
48407SOL    HW246996   9.702   8.257   5.195
48408SOL     OW46997   5.804  14.089  14.517
48408SOL    HW146998   5.749  14.094  14.438
48408SOL    HW246999   5.804  13.996  14.539
48409SOL     OW47000   9.958   9.322   2.437
48409SOL    HW147001   9.964   9.227   2.451
48409SOL    HW247002  10.046   9.348   2.411
48410SOL     OW47003  11.193  11.922  12.908
48410SOL    HW147004  11.130  11.881  12.968
48410SOL    HW247005  11.153  11.915  12.822
48411SOL     OW47006  12.368   6.121   4.380
48411SOL    HW147007  12.445   6.065   4.391
48411SOL    HW247008  12.336   6.100   4.292
48412SOL     OW47009  11.878   2.379  10.403
48412SOL    HW147010  11.912   2.437  10.335
48412SOL    HW247011  11.887   2.429  10.485
48413SOL     OW47012   3.067   1.206   4.342
48413SOL    HW147013   3.141   1.206   4.281
48413SOL    HW247014   3.053   1.113   4.361
48414SOL     OW47015   0.942   6.637   1.831
48414SOL    HW147016   0.995   6.671   1.903
48414SOL    HW247017   0.963   6.694   1.757
48415SOL     OW47018   8.234   5.875   8.718
48415SOL    HW147019   8.277   5.956   8.689
48415SOL    HW247020   8.144   5.901   8.735
48416SOL     OW47021   9.594  14.335   6.956
48416SOL    HW147022   9.499  14.325   6.948
48416SOL    HW247023   9.616  14.406   6.895
48417SOL     OW47024  11.163   8.873   2.930
48417SOL    HW147025  11.137   8.834   3.014
48417SOL    HW247026  11.221   8.945   2.955
48418SOL     OW47027   9.480   3.437   4.952
48418SOL    HW147028   9.522   3.459   5.035
48418SOL    HW247029   9.542   3.377   4.910
48419SOL     OW47030  10.368  10.114   6.989
48419SOL    HW147031  10.409  10.186   7.037
48419SOL    HW247032  10.286  10.151   6.957
48420SOL     OW47033   8.969   8.872   8.489
48420SOL    HW147034   8.916   8.946   8.460
48420SOL    HW247035   8.910   8.820   8.545
48421SOL     OW47036   5.123   4.007  13.979
48421SOL    HW147037   5.089   4.047  13.899
48421SOL    HW247038   5.217   3.997  13.963
48422SOL     OW47039  13.956  11.955  11.791
48422SOL    HW147040  14.049  11.969  11.775
48422SOL    HW247041  13.912  12.026  11.743
48423SOL     OW47042   4.755   9.315  14.638
48423SOL    HW147043   4.813   9.350  14.571
48423SOL    HW247044   4.676   9.290  14.589
48424SOL     OW47045  10.003   1.071   1.050
48424SOL    HW147046   9.999   1.152   1.102
48424SOL    HW247047   9.975   1.098   0.962
48425SOL     OW47048  10.845   0.885   9.343
48425SOL    HW147049  10.809   0.962   9.300
48425SOL    HW247050  10.900   0.919   9.412
48426SOL     OW47051   3.371   4.598   6.444
48426SOL    HW147052   3.278   4.614   6.456
48426SOL    HW247053   3.376   4.511   6.404
48427SOL     OW47054   8.354  12.372   7.098
48427SOL    HW147055   8.394  12.297   7.054
48427SOL    HW247056   8.318  12.424   7.027
48428SOL     OW47057  12.742  11.545   0.417
48428SOL    HW147058  12.726  11.604   0.344
48428SOL    HW247059  12.655  11.518   0.446
48429SOL     OW47060   0.202  10.729   1.060
48429SOL    HW147061   0.154  10.648   1.078
48429SOL    HW247062   0.293  10.709   1.084
48430SOL     OW47063   5.387  13.091  10.043
48430SOL    HW147064   5.379  13.060   9.953
48430SOL    HW247065   5.320  13.043  10.091
48431SOL     OW47066  13.817  12.281   9.650
48431SOL    HW147067  13.891  12.340   9.636
48431SOL    HW247068  13.758  12.297   9.576
48432SOL     OW47069   4.034   8.321   6.424
48432SOL    HW147070   3.956   8.376   6.412
48432SOL    HW247071   4.016   8.271   6.503
48433SOL     OW47072   4.731   2.817   8.667
48433SOL    HW147073   4.746   2.763   8.589
48433SOL    HW247074   4.650   2.783   8.706
48434SOL     OW47075  10.926   3.626  10.406
48434SOL    HW147076  10.898   3.597  10.493
48434SOL    HW247077  10.892   3.559  10.346
48435SOL     OW47078  13.515   7.204  10.032
48435SOL    HW147079  13.537   7.297  10.027
48435SOL    HW247080  13.598   7.161  10.055
48436SOL     OW47081   0.587  12.164   1.096
48436SOL    HW147082   0.529  12.122   1.160
48436SOL    HW247083   0.532  12.230   1.054
48437SOL     OW47084   6.286   8.740  12.161
48437SOL    HW147085   6.271   8.762  12.069
48437SOL    HW247086   6.296   8.824  12.205
48438SOL     OW47087  14.270   2.464   9.393
48438SOL    HW147088  14.257   2.371   9.373
48438SOL    HW247089  14.193   2.507   9.356
48439SOL     OW47090   6.766  12.457   6.590
48439SOL    HW147091   6.722  12.375   6.569
48439SOL    HW247092   6.759  12.463   6.686
48440SOL     OW47093   1.134  11.874   6.181
48440SOL    HW147094   1.098  11.962   6.169
48440SOL    HW247095   1.196  11.863   6.109
48441SOL     OW47096   5.564  12.850  13.771
48441SOL    HW147097   5.505  12.921  13.795
48441SOL    HW247098   5.573  12.858  13.676
48442SOL     OW47099   2.688   5.283  14.871
48442SOL    HW147100   2.716   5.304   0.083
48442SOL    HW247101   2.693   5.367  14.825
48443SOL     OW47102   4.040   9.857  14.347
48443SOL    HW147103   3.987   9.858  14.427
48443SOL    HW247104   4.026   9.943  14.308
48444SOL     OW47105   4.729  12.504   9.820
48444SOL    HW147106   4.789  12.436   9.789
48444SOL    HW247107   4.642  12.470   9.801
48445SOL     OW47108   7.843   3.855   3.470
48445SOL    HW147109   7.794   3.788   3.423
48445SOL    HW247110   7.906   3.888   3.405
48446SOL     OW47111   8.397   7.141   4.429
48446SOL    HW147112   8.448   7.187   4.496
48446SOL    HW247113   8.307   7.144   4.462
48447SOL     OW47114  14.411  12.976   1.759
48447SOL    HW147115  14.353  12.900   1.767
48447SOL    HW247116  14.466  12.972   1.837
48448SOL     OW47117   1.926   7.938  11.605
48448SOL    HW147118   1.875   7.861  11.581
48448SOL    HW247119   1.997   7.905  11.660
48449SOL     OW47120  13.405   5.900   1.667
48449SOL    HW147121  13.407   5.991   1.697
48449SOL    HW247122  13.364   5.905   1.580
48450SOL     OW47123  11.342  14.741   0.843
48450SOL    HW147124  11.251  14.770   0.834
48450SOL    HW247125  11.336  14.654   0.881
48451SOL     OW47126  10.937  13.532   2.288
48451SOL    HW147127  10.998  13.533   2.214
48451SOL    HW247128  10.851  13.527   2.247
48452SOL     OW47129  11.153  11.750   4.053
48452SOL    HW147130  11.240  11.770   4.086
48452SOL    HW247131  11.104  11.719   4.129
48453SOL     OW47132   8.727   0.416   8.829
48453SOL    HW147133   8.728   0.327   8.793
48453SOL    HW247134   8.818   0.434   8.852
48454SOL     OW47135   0.354  11.446  13.948
48454SOL    HW147136   0.404  11.497  14.011
48454SOL    HW247137   0.322  11.510  13.885
48455SOL     OW47138   2.610   0.636   8.977
48455SOL    HW147139   2.549   0.580   9.025
48455SOL    HW247140   2.600   0.609   8.885
48456SOL     OW47141   4.471   1.509   1.833
48456SOL    HW147142   4.514   1.591   1.856
48456SOL    HW247143   4.520   1.442   1.882
48457SOL     OW47144   6.721  12.998  13.126
48457SOL    HW147145   6.699  13.081  13.168
48457SOL    HW247146   6.689  12.931  13.186
48458SOL     OW47147   3.191   7.733   1.567
48458SOL    HW147148   3.128   7.759   1.500
48458SOL    HW247149   3.139   7.730   1.648
48459SOL     OW47150  11.580   9.880  10.723
48459SOL    HW147151  11.505   9.923  10.766
48459SOL    HW247152  11.616   9.948  10.666
48460SOL     OW47153   7.356  14.206  10.418
48460SOL    HW147154   7.260  14.201  10.425
48460SOL    HW247155   7.384  14.116  10.402
48461SOL     OW47156   3.738   8.347   3.709
48461SOL    HW147157   3.712   8.364   3.800
48461SOL    HW247158   3.679   8.400   3.656
48462SOL     OW47159   4.572   8.825   1.484
48462SOL    HW147160   4.558   8.745   1.433
48462SOL    HW247161   4.519   8.812   1.563
48463SOL     OW47162   2.825   8.332  11.543
48463SOL    HW147163   2.775   8.265  11.590
48463SOL    HW247164   2.854   8.392  11.612
48464SOL     OW47165   8.436   6.812  12.021
48464SOL    HW147166   8.525   6.846  12.018
48464SOL    HW247167   8.416   6.789  11.930
48465SOL     OW47168  14.494   9.544   6.345
48465SOL    HW147169  14.506   9.572   6.435
48465SOL    HW247170  14.534   9.614   6.293
48466SOL     OW47171  14.123  12.210   2.048
48466SOL    HW147172  14.111  12.179   1.958
48466SOL    HW247173  14.195  12.157   2.082
48467SOL     OW47174  13.680  14.297   3.427
48467SOL    HW147175  13.592  14.319   3.396
48467SOL    HW247176  13.689  14.203   3.411
48468SOL     OW47177   8.175   9.794   3.860
48468SOL    HW147178   8.265   9.775   3.833
48468SOL    HW247179   8.184   9.848   3.938
48469SOL     OW47180   3.178  14.027   3.864
48469SOL    HW147181   3.135  14.111   3.851
48469SOL    HW247182   3.265  14.038   3.825
48470SOL     OW47183   9.952   5.815  11.804
48470SOL    HW147184   9.910   5.880  11.860
48470SOL    HW247185   9.985   5.866  11.729
48471SOL     OW47186   1.377   5.054   2.527
48471SOL    HW147187   1.430   5.127   2.494
48471SOL    HW247188   1.335   5.089   2.605
48472SOL     OW47189   7.087  11.727   4.237
48472SOL    HW147190   7.127  11.780   4.307
48472SOL    HW247191   7.071  11.642   4.277
48473SOL     OW47192   0.726  11.933  13.796
48473SOL    HW147193   0.777  11.895  13.725
48473SOL    HW247194   0.742  12.027  13.790
48474SOL     OW47195  14.200  13.174   0.417
48474SOL    HW147196  14.122  13.196   0.467
48474SOL    HW247197  14.253  13.253   0.419
48475SOL     OW47198  11.151  13.304   8.663
48475SOL    HW147199  11.169  13.211   8.655
48475SOL    HW247200  11.064  13.309   8.701
48476SOL     OW47201   1.680   7.598   8.992
48476SOL    HW147202   1.612   7.552   8.943
48476SOL    HW247203   1.747   7.531   9.007
48477SOL     OW47204   0.185   8.114  10.545
48477SOL    HW147205   0.159   8.033  10.501
48477SOL    HW247206   0.172   8.097  10.638
48478SOL     OW47207   6.703   0.548  14.548
48478SOL    HW147208   6.652   0.528  14.469
48478SOL    HW247209   6.654   0.509  14.620
48479SOL     OW47210   9.112   1.607   9.011
48479SOL    HW147211   9.125   1.691   9.054
48479SOL    HW247212   9.147   1.543   9.072
48480SOL     OW47213  12.135  13.741   3.759
48480SOL    HW147214  12.160  13.661   3.713
48480SOL    HW247215  12.215  13.794   3.759
48481SOL     OW47216   1.963  14.853  14.016
48481SOL    HW147217   2.014  14.854  13.935
48481SOL    HW247218   1.939   0.067  14.030
48482SOL     OW47219  13.337   1.976  13.658
48482SOL    HW147220  13.367   1.886  13.670
48482SOL    HW247221  13.244   1.967  13.637
48483SOL     OW47222   3.179   4.983   5.684
48483SOL    HW147223   3.232   5.027   5.618
48483SOL    HW247224   3.094   4.970   5.643
48484SOL     OW47225   0.244  13.838   3.424
48484SOL    HW147226   0.290  13.795   3.496
48484SOL    HW247227   0.204  13.766   3.375
48485SOL     OW47228   4.374  12.370   0.639
48485SOL    HW147229   4.417  12.338   0.559
48485SOL    HW247230   4.435  12.434   0.675
48486SOL     OW47231   2.966   1.162  13.942
48486SOL    HW147232   2.960   1.127  14.031
48486SOL    HW247233   3.045   1.216  13.942
48487SOL     OW47234  13.178  13.258   5.332
48487SOL    HW147235  13.124  13.304   5.268
48487SOL    HW247236  13.144  13.286   5.417
48488SOL     OW47237   6.270   6.538  10.089
48488SOL    HW147238   6.208   6.500  10.027
48488SOL    HW247239   6.355   6.533  10.046
48489SOL     OW47240  10.741  12.346   4.792
48489SOL    HW147241  10.792  12.420   4.759
48489SOL    HW247242  10.661  12.347   4.740
48490SOL     OW47243   3.570   9.731   1.731
48490SOL    HW147244   3.552   9.801   1.668
48490SOL    HW247245   3.511   9.660   1.705
48491SOL     OW47246   9.889   0.784  13.166
48491SOL    HW147247   9.882   0.824  13.253
48491SOL    HW247248   9.876   0.858  13.105
48492SOL     OW47249   4.338   8.759   4.519
48492SOL    HW147250   4.402   8.814   4.473
48492SOL    HW247251   4.254   8.785   4.482
48493SOL     OW47252   0.668   2.782  10.383
48493SOL    HW147253   0.700   2.809  10.469
48493SOL    HW247254   0.673   2.862  10.330
48494SOL     OW47255   8.591  11.155  11.334
48494SOL    HW147256   8.537  11.076  11.327
48494SOL    HW247257   8.644  11.155  11.255
48495SOL     OW47258   8.994   5.365  13.668
48495SOL    HW147259   9.070   5.419  13.686
48495SOL    HW247260   8.932   5.423  13.625
48496SOL     OW47261  13.011  14.522   7.109
48496SOL    HW147262  12.938  14.525   7.047
48496SOL    HW247263  12.992  14.449   7.167
48497SOL     OW47264   6.015   6.688   9.617
48497SOL    HW147265   6.051   6.727   9.697
48497SOL    HW247266   6.025   6.757   9.551
48498SOL     OW47267  14.398   5.561   2.146
48498SOL    HW147268  14.390   5.641   2.094
48498SOL    HW247269  14.430   5.495   2.084
48499SOL     OW47270   3.127   2.474  13.091
48499SOL    HW147271   3.181   2.421  13.150
48499SOL    HW247272   3.114   2.418  13.015
48500SOL     OW47273   8.247   2.061   4.049
48500SOL    HW147274   8.301   2.133   4.081
48500SOL    HW247275   8.307   1.986   4.044
48501SOL     OW47276   6.109   4.019   0.314
48501SOL    HW147277   6.024   4.061   0.304
48501SOL    HW247278   6.172   4.084   0.284
48502SOL     OW47279  11.659  14.827  13.456
48502SOL    HW147280  11.625  14.738  13.452
48502SOL    HW247281  11.623  14.870  13.378
48503SOL     OW47282   3.637   5.290   2.145
48503SOL    HW147283   3.620   5.200   2.119
48503SOL    HW247284   3.556   5.337   2.123
48504SOL     OW47285  12.532   1.888   4.279
48504SOL    HW147286  12.469   1.888   4.351
48504SOL    HW247287  12.487   1.934   4.208
48505SOL     OW47288   6.101   1.184   6.799
48505SOL    HW147289   6.158   1.125   6.749
48505SOL    HW247290   6.106   1.267   6.752
48506SOL     OW47291   1.181   9.031   3.239
48506SOL    HW147292   1.162   9.121   3.212
48506SOL    HW247293   1.266   9.037   3.283
48507SOL     OW47294  11.127  13.409  11.060
48507SOL    HW147295  11.120  13.335  11.120
48507SOL    HW247296  11.218  13.437  11.068
48508SOL     OW47297  13.350   6.715  14.338
48508SOL    HW147298  13.342   6.710  14.243
48508SOL    HW247299  13.270   6.676  14.371
48509SOL     OW47300   6.554   7.593   9.756
48509SOL    HW147301   6.623   7.646   9.794
48509SOL    HW247302   6.474   7.643   9.769
48510SOL     OW47303   5.571  12.351   9.989
48510SOL    HW147304   5.526  12.381  10.069
48510SOL    HW247305   5.574  12.428   9.933
48511SOL     OW47306   6.898   2.527   5.068
48511SOL    HW147307   6.949   2.588   5.015
48511SOL    HW247308   6.912   2.556   5.158
48512SOL     OW47309   6.397   0.690   2.482
48512SOL    HW147310   6.336   0.620   2.456
48512SOL    HW247311   6.404   0.682   2.577
48513SOL     OW47312  14.865   6.772  14.172
48513SOL    HW147313  14.830   6.762  14.084
48513SOL    HW247314  14.788   6.769  14.229
48514SOL     OW47315  11.903   7.803  14.435
48514SOL    HW147316  11.846   7.739  14.478
48514SOL    HW247317  11.987   7.759  14.428
48515SOL     OW47318   2.405   5.553   9.474
48515SOL    HW147319   2.319   5.535   9.436
48515SOL    HW247320   2.451   5.470   9.470
48516SOL     OW47321  12.625  11.254  12.811
48516SOL    HW147322  12.649  11.164  12.788
48516SOL    HW247323  12.628  11.302  12.729
48517SOL     OW47324  12.049  10.540  10.924
48517SOL    HW147325  12.100  10.557  10.844
48517SOL    HW247326  12.083  10.604  10.987
48518SOL     OW47327   8.123   8.650   4.256
48518SOL    HW147328   8.147   8.682   4.343
48518SOL    HW247329   8.045   8.596   4.271
48519SOL     OW47330  14.865   4.784  13.278
48519SOL    HW147331  14.826   4.708  13.321
48519SOL    HW247332   0.050   4.818  13.342
48520SOL     OW47333   2.038   5.658  14.051
48520SOL    HW147334   2.035   5.747  14.016
48520SOL    HW247335   1.948   5.626  14.042
48521SOL     OW47336   7.646   7.491  13.791
48521SOL    HW147337   7.667   7.550  13.719
48521SOL    HW247338   7.713   7.509  13.857
48522SOL     OW47339  12.978  13.940   7.216
48522SOL    HW147340  12.907  13.999   7.193
48522SOL    HW247341  12.980  13.941   7.312
48523SOL     OW47342   9.674  14.631  12.645
48523SOL    HW147343   9.625  14.683  12.582
48523SOL    HW247344   9.639  14.657  12.730
48524SOL     OW47345   5.826   1.037  13.177
48524SOL    HW147346   5.897   1.094  13.207
48524SOL    HW247347   5.859   0.998  13.096
48525SOL     OW47348   2.665   3.279   0.895
48525SOL    HW147349   2.616   3.227   0.957
48525SOL    HW247350   2.651   3.370   0.923
48526SOL     OW47351   5.253   8.220   5.899
48526SOL    HW147352   5.158   8.231   5.888
48526SOL    HW247353   5.261   8.143   5.954
48527SOL     OW47354   3.506  10.111   6.052
48527SOL    HW147355   3.567  10.133   5.982
48527SOL    HW247356   3.520  10.018   6.068
48528SOL     OW47357   1.512   6.731   9.087
48528SOL    HW147358   1.608   6.734   9.097
48528SOL    HW247359   1.497   6.751   8.995
48529SOL     OW47360   3.417   0.900   8.795
48529SOL    HW147361   3.456   0.832   8.849
48529SOL    HW247362   3.352   0.942   8.852
48530SOL     OW47363  11.144   1.796   5.218
48530SOL    HW147364  11.169   1.825   5.305
48530SOL    HW247365  11.150   1.875   5.164
48531SOL     OW47366   1.530   0.357   0.631
48531SOL    HW147367   1.553   0.445   0.660
48531SOL    HW247368   1.590   0.338   0.560
48532SOL     OW47369  12.963   7.357   9.294
48532SOL    HW147370  12.988   7.310   9.215
48532SOL    HW247371  12.898   7.421   9.265
48533SOL     OW47372   5.673   9.983   1.200
48533SOL    HW147373   5.654  10.076   1.184
48533SOL    HW247374   5.620   9.936   1.136
48534SOL     OW47375   8.410   9.698  10.438
48534SOL    HW147376   8.341   9.652  10.487
48534SOL    HW247377   8.431   9.638  10.365
48535SOL     OW47378   6.726  11.586   8.980
48535SOL    HW147379   6.716  11.623   9.067
48535SOL    HW247380   6.642  11.600   8.937
48536SOL     OW47381   1.814   1.720   8.172
48536SOL    HW147382   1.816   1.722   8.077
48536SOL    HW247383   1.723   1.735   8.196
48537SOL     OW47384  13.141  10.527   2.624
48537SOL    HW147385  13.066  10.552   2.679
48537SOL    HW247386  13.192  10.607   2.615
48538SOL     OW47387   5.603  14.781   0.128
48538SOL    HW147388   5.558  14.839   0.067
48538SOL    HW247389   5.686  14.825   0.146
48539SOL     OW47390   9.457  12.342   5.622
48539SOL    HW147391   9.429  12.252   5.642
48539SOL    HW247392   9.375  12.391   5.618
48540SOL     OW47393   8.305  13.878   7.488
48540SOL    HW147394   8.396  13.880   7.516
48540SOL    HW247395   8.306  13.912   7.399
48541SOL     OW47396   5.715   7.586   0.569
48541SOL    HW147397   5.789   7.531   0.595
48541SOL    HW247398   5.681   7.543   0.491
48542SOL     OW47399   2.659   5.248  10.197
48542SOL    HW147400   2.656   5.310  10.270
48542SOL    HW247401   2.634   5.164  10.235
48543SOL     OW47402   0.636  14.408   9.411
48543SOL    HW147403   0.625  14.501   9.432
48543SOL    HW247404   0.713  14.381   9.460
48544SOL     OW47405   7.142   1.266  14.808
48544SOL    HW147406   7.056   1.293  14.776
48544SOL    HW247407   7.139   1.171  14.808
48545SOL     OW47408   2.593  11.465  12.346
48545SOL    HW147409   2.682  11.441  12.372
48545SOL    HW247410   2.601  11.487  12.254
48546SOL     OW47411  13.166  12.078   5.792
48546SOL    HW147412  13.175  12.070   5.887
48546SOL    HW247413  13.241  12.132   5.766
48547SOL     OW47414   1.843   8.702   3.391
48547SOL    HW147415   1.886   8.751   3.321
48547SOL    HW247416   1.830   8.766   3.461
48548SOL     OW47417  10.990  10.913  10.941
48548SOL    HW147418  11.061  10.956  10.988
48548SOL    HW247419  11.006  10.935  10.849
48549SOL     OW47420   5.144  14.487  11.749
48549SOL    HW147421   5.071  14.434  11.716
48549SOL    HW247422   5.110  14.528  11.829
48550SOL     OW47423  11.917   1.055   3.138
48550SOL    HW147424  11.961   1.004   3.206
48550SOL    HW247425  11.833   1.011   3.125
48551SOL     OW47426   4.198  13.387  14.134
48551SOL    HW147427   4.230  13.467  14.091
48551SOL    HW247428   4.269  13.360  14.192
48552SOL     OW47429   1.624   2.479   3.537
48552SOL    HW147430   1.568   2.488   3.459
48552SOL    HW247431   1.706   2.522   3.512
48553SOL     OW47432   8.698  11.178  12.338
48553SOL    HW147433   8.711  11.248  12.273
48553SOL    HW247434   8.717  11.097  12.290
48554SOL     OW47435   3.626   3.820   4.714
48554SOL    HW147436   3.646   3.787   4.802
48554SOL    HW247437   3.533   3.803   4.703
48555SOL     OW47438   8.819  11.563   3.188
48555SOL    HW147439   8.825  11.476   3.225
48555SOL    HW247440   8.909  11.588   3.167
48556SOL     OW47441  13.720   2.283   0.308
48556SOL    HW147442  13.808   2.315   0.329
48556SOL    HW247443  13.712   2.201   0.356
48557SOL     OW47444   1.311  13.666  13.144
48557SOL    HW147445   1.288  13.616  13.066
48557SOL    HW247446   1.366  13.607  13.195
48558SOL     OW47447  11.701  12.289  11.523
48558SOL    HW147448  11.638  12.231  11.479
48558SOL    HW247449  11.671  12.377  11.502
48559SOL     OW47450   9.647   4.151  13.737
48559SOL    HW147451   9.741   4.169  13.737
48559SOL    HW247452   9.628   4.123  13.827
48560SOL     OW47453   8.775   7.120   9.135
48560SOL    HW147454   8.774   7.128   9.230
48560SOL    HW247455   8.830   7.044   9.117
48561SOL     OW47456   0.795   4.784   7.357
48561SOL    HW147457   0.852   4.860   7.344
48561SOL    HW247458   0.707   4.821   7.360
48562SOL     OW47459  13.778  13.352   1.612
48562SOL    HW147460  13.682  13.353   1.618
48562SOL    HW247461  13.805  13.279   1.667
48563SOL     OW47462   5.670   7.882   2.162
48563SOL    HW147463   5.708   7.857   2.077
48563SOL    HW247464   5.718   7.961   2.187
48564SOL     OW47465  13.002   8.070   3.080
48564SOL    HW147466  12.924   8.077   3.135
48564SOL    HW247467  13.051   7.996   3.117
48565SOL     OW47468   5.542   6.439  10.622
48565SOL    HW147469   5.606   6.384  10.576
48565SOL    HW247470   5.578   6.527  10.615
48566SOL     OW47471  12.969  12.242   3.866
48566SOL    HW147472  12.992  12.269   3.955
48566SOL    HW247473  13.004  12.153   3.858
48567SOL     OW47474  13.813   0.061  10.903
48567SOL    HW147475  13.821   0.156  10.903
48567SOL    HW247476  13.837   0.034  10.991
48568SOL     OW47477   8.605   0.503   9.994
48568SOL    HW147478   8.580   0.580   9.943
48568SOL    HW247479   8.607   0.431   9.930
48569SOL     OW47480   1.737   1.371   2.943
48569SOL    HW147481   1.664   1.318   2.974
48569SOL    HW247482   1.778   1.406   3.023
48570SOL     OW47483   5.097   8.271   3.285
48570SOL    HW147484   5.033   8.271   3.356
48570SOL    HW247485   5.169   8.324   3.318
48571SOL     OW47486   8.935   6.985   2.658
48571SOL    HW147487   8.899   7.067   2.624
48571SOL    HW247488   8.863   6.922   2.647
48572SOL     OW47489  11.354   9.122   5.899
48572SOL    HW147490  11.291   9.068   5.852
48572SOL    HW247491  11.394   9.064   5.963
48573SOL     OW47492  13.121   3.239   6.526
48573SOL    HW147493  13.206   3.281   6.511
48573SOL    HW247494  13.107   3.184   6.448
48574SOL     OW47495  14.563   0.799   3.785
48574SOL    HW147496  14.605   0.869   3.834
48574SOL    HW247497  14.482   0.781   3.833
48575SOL     OW47498   5.972   1.236  12.860
48575SOL    HW147499   6.032   1.307  12.836
48575SOL    HW247500   5.963   1.244  12.955
48576SOL     OW47501   2.404   0.297   7.329
48576SOL    HW147502   2.421   0.351   7.406
48576SOL    HW247503   2.466   0.329   7.263
48577SOL     OW47504   9.917   1.162   1.576
48577SOL    HW147505   9.959   1.180   1.660
48577SOL    HW247506   9.985   1.180   1.511
48578SOL     OW47507  13.601   8.066  11.923
48578SOL    HW147508  13.647   7.996  11.970
48578SOL    HW247509  13.665   8.098  11.859
48579SOL     OW47510   4.117  11.818   3.015
48579SOL    HW147511   4.043  11.763   3.036
48579SOL    HW247512   4.188  11.787   3.072
48580SOL     OW47513   6.406  11.107   7.267
48580SOL    HW147514   6.380  11.104   7.359
48580SOL    HW247515   6.488  11.156   7.267
48581SOL     OW47516  14.663  14.276   0.278
48581SOL    HW147517  14.701  14.342   0.219
48581SOL    HW247518  14.734  14.213   0.291
48582SOL     OW47519  10.429   5.299   0.334
48582SOL    HW147520  10.431   5.347   0.251
48582SOL    HW247521  10.511   5.251   0.336
48583SOL     OW47522  12.639   0.682   0.580
48583SOL    HW147523  12.578   0.753   0.560
48583SOL    HW247524  12.588   0.620   0.633
48584SOL     OW47525   7.807   1.898   7.290
48584SOL    HW147526   7.743   1.894   7.219
48584SOL    HW247527   7.891   1.878   7.249
48585SOL     OW47528   9.953   0.739   9.198
48585SOL    HW147529   9.972   0.648   9.175
48585SOL    HW247530  10.028   0.788   9.164
48586SOL     OW47531   1.117  12.834   0.426
48586SOL    HW147532   1.036  12.878   0.451
48586SOL    HW247533   1.164  12.897   0.372
48587SOL     OW47534   1.623   1.302   8.944
48587SOL    HW147535   1.537   1.280   8.907
48587SOL    HW247536   1.616   1.393   8.972
48588SOL     OW47537  11.331   6.449  11.941
48588SOL    HW147538  11.425   6.460  11.959
48588SOL    HW247539  11.312   6.359  11.967
48589SOL     OW47540   8.704   7.857   3.765
48589SOL    HW147541   8.764   7.796   3.808
48589SOL    HW247542   8.620   7.845   3.810
48590SOL     OW47543   7.824  13.102   1.424
48590SOL    HW147544   7.761  13.070   1.360
48590SOL    HW247545   7.882  13.160   1.373
48591SOL     OW47546   8.158  10.831  13.247
48591SOL    HW147547   8.093  10.874  13.191
48591SOL    HW247548   8.112  10.815  13.329
48592SOL     OW47549   0.942   3.566   9.760
48592SOL    HW147550   0.868   3.579   9.701
48592SOL    HW247551   1.019   3.566   9.703
48593SOL     OW47552   5.827   6.633   8.948
48593SOL    HW147553   5.881   6.659   8.873
48593SOL    HW247554   5.756   6.698   8.950
48594SOL     OW47555  14.427   8.696   3.944
48594SOL    HW147556  14.442   8.772   4.001
48594SOL    HW247557  14.499   8.637   3.965
48595SOL     OW47558   1.024   5.069   4.907
48595SOL    HW147559   1.087   5.128   4.866
48595SOL    HW247560   0.939   5.110   4.892
48596SOL     OW47561   8.305   1.965  12.193
48596SOL    HW147562   8.237   1.982  12.258
48596SOL    HW247563   8.380   1.935  12.244
48597SOL     OW47564  11.201   9.895   0.272
48597SOL    HW147565  11.159   9.934   0.350
48597SOL    HW247566  11.245   9.969   0.230
48598SOL     OW47567  10.058  13.574   8.619
48598SOL    HW147568  10.059  13.481   8.643
48598SOL    HW247569  10.089  13.619   8.697
48599SOL     OW47570  14.781  13.365  11.986
48599SOL    HW147571  14.764  13.459  11.993
48599SOL    HW247572  14.723  13.326  12.052
48600SOL     OW47573  14.047   8.069   3.768
48600SOL    HW147574  14.004   7.985   3.784
48600SOL    HW247575  14.036   8.084   3.674
48601SOL     OW47576  10.619  13.158   7.566
48601SOL    HW147577  10.705  13.117   7.576
48601SOL    HW247578  10.587  13.169   7.656
48602SOL     OW47579   4.520   0.631  10.693
48602SOL    HW147580   4.615   0.645  10.704
48602SOL    HW247581   4.510   0.536  10.691
48603SOL     OW47582   5.033   4.548  10.880
48603SOL    HW147583   4.941   4.566  10.901
48603SOL    HW247584   5.069   4.632  10.853
48604SOL     OW47585   9.400   1.048   8.521
48604SOL    HW147586   9.478   0.994   8.521
48604SOL    HW247587   9.338   1.001   8.577
48605SOL     OW47588   7.238   2.412   0.009
48605SOL    HW147589   7.270   2.481   0.067
48605SOL    HW247590   7.237   2.333   0.064
48606SOL     OW47591  12.739   1.893   8.238
48606SOL    HW147592  12.704   1.940   8.314
48606SOL    HW247593  12.786   1.960   8.188
48607SOL     OW47594   2.946  12.765  10.844
48607SOL    HW147595   2.972  12.703  10.777
48607SOL    HW247596   2.967  12.851  10.808
48608SOL     OW47597  12.375  12.831   2.789
48608SOL    HW147598  12.434  12.780   2.732
48608SOL    HW247599  12.393  12.799   2.877
48609SOL     OW47600   8.354  11.619   8.146
48609SOL    HW147601   8.433  11.599   8.196
48609SOL    HW247602   8.314  11.692   8.193
48610SOL     OW47603   1.823   8.139  12.004
48610SOL    HW147604   1.898   8.118  12.061
48610SOL    HW247605   1.843   8.094  11.921
48611SOL     OW47606   8.717   1.229  13.587
48611SOL    HW147607   8.721   1.150  13.641
48611SOL    HW247608   8.808   1.244  13.560
48612SOL     OW47609   1.242   2.315  12.248
48612SOL    HW147610   1.172   2.277  12.302
48612SOL    HW247611   1.196   2.356  12.175
48613SOL     OW47612   8.229   4.436   1.566
48613SOL    HW147613   8.230   4.531   1.554
48613SOL    HW247614   8.308   4.417   1.616
48614SOL     OW47615  10.632  10.208  11.229
48614SOL    HW147616  10.538  10.209  11.209
48614SOL    HW247617  10.667  10.284  11.182
48615SOL     OW47618   5.163  12.998  11.802
48615SOL    HW147619   5.242  12.998  11.856
48615SOL    HW247620   5.092  13.021  11.862
48616SOL     OW47621   0.571  12.644   4.724
48616SOL    HW147622   0.639  12.708   4.703
48616SOL    HW247623   0.614  12.559   4.715
48617SOL     OW47624   7.310   8.464   6.934
48617SOL    HW147625   7.266   8.392   6.888
48617SOL    HW247626   7.329   8.428   7.021
48618SOL     OW47627   3.071   6.510   5.256
48618SOL    HW147628   2.991   6.536   5.211
48618SOL    HW247629   3.048   6.513   5.349
48619SOL     OW47630  13.987   7.249   6.256
48619SOL    HW147631  13.928   7.324   6.244
48619SOL    HW247632  14.015   7.227   6.168
48620SOL     OW47633   2.886   8.634   7.631
48620SOL    HW147634   2.922   8.722   7.626
48620SOL    HW247635   2.885   8.603   7.541
48621SOL     OW47636   5.120   0.283  12.350
48621SOL    HW147637   5.150   0.249  12.434
48621SOL    HW247638   5.167   0.366  12.340
48622SOL     OW47639   4.850   9.974  12.887
48622SOL    HW147640   4.792   9.905  12.919
48622SOL    HW247641   4.843  10.043  12.952
48623SOL     OW47642   8.528  12.218   4.250
48623SOL    HW147643   8.519  12.280   4.177
48623SOL    HW247644   8.496  12.135   4.215
48624SOL     OW47645  12.859   3.174  12.746
48624SOL    HW147646  12.855   3.168  12.841
48624SOL    HW247647  12.944   3.138  12.723
48625SOL     OW47648  13.059   1.011   0.774
48625SOL    HW147649  12.998   0.960   0.827
48625SOL    HW247650  13.002   1.065   0.719
48626SOL     OW47651   2.589   7.382   8.947
48626SOL    HW147652   2.517   7.365   8.887
48626SOL    HW247653   2.667   7.350   8.902
48627SOL     OW47654  13.865   3.942   5.771
48627SOL    HW147655  13.816   3.943   5.689
48627SOL    HW247656  13.919   3.863   5.766
48628SOL     OW47657  10.175  14.369   0.995
48628SOL    HW147658  10.217  14.308   0.934
48628SOL    HW247659  10.169  14.451   0.946
48629SOL     OW47660  11.333   3.355   7.603
48629SOL    HW147661  11.388   3.292   7.557
48629SOL    HW247662  11.343   3.334   7.695
48630SOL     OW47663   1.533   1.620  11.373
48630SOL    HW147664   1.505   1.711  11.363
48630SOL    HW247665   1.621   1.618  11.336
48631SOL     OW47666  12.536   3.769   4.576
48631SOL    HW147667  12.443   3.791   4.585
48631SOL    HW247668  12.574   3.790   4.662
48632SOL     OW47669  11.416   3.904   7.692
48632SOL    HW147670  11.394   3.990   7.727
48632SOL    HW247671  11.394   3.843   7.763
48633SOL     OW47672   1.495   8.406  11.407
48633SOL    HW147673   1.528   8.471  11.346
48633SOL    HW247674   1.559   8.334  11.404
48634SOL     OW47675  13.281   9.974   0.695
48634SOL    HW147676  13.305  10.021   0.775
48634SOL    HW247677  13.203  10.020   0.662
48635SOL     OW47678   6.652   1.246   2.077
48635SOL    HW147679   6.611   1.304   2.014
48635SOL    HW247680   6.663   1.300   2.156
48636SOL     OW47681   0.829   2.154  11.105
48636SOL    HW147682   0.769   2.216  11.147
48636SOL    HW247683   0.877   2.206  11.041
48637SOL     OW47684   8.337   2.129   0.219
48637SOL    HW147685   8.397   2.203   0.208
48637SOL    HW247686   8.342   2.081   0.136
48638SOL     OW47687  11.423   2.862   7.026
48638SOL    HW147688  11.379   2.907   6.955
48638SOL    HW247689  11.399   2.770   7.015
48639SOL     OW47690   9.451   1.476  12.796
48639SOL    HW147691   9.385   1.465  12.728
48639SOL    HW247692   9.461   1.571  12.803
48640SOL     OW47693   9.948   3.595   8.045
48640SOL    HW147694   9.958   3.569   7.954
48640SOL    HW247695   9.949   3.513   8.095
48641SOL     OW47696   6.984  13.998   4.266
48641SOL    HW147697   7.044  13.960   4.202
48641SOL    HW247698   6.954  13.924   4.318
48642SOL     OW47699  14.171  14.860  12.372
48642SOL    HW147700  14.191   0.069  12.407
48642SOL    HW247701  14.221  14.855  12.290
48643SOL     OW47702  11.658   2.248   3.673
48643SOL    HW147703  11.627   2.265   3.762
48643SOL    HW247704  11.754   2.250   3.680
48644SOL     OW47705  13.669   8.702   8.332
48644SOL    HW147706  13.684   8.659   8.416
48644SOL    HW247707  13.621   8.637   8.280
48645SOL     OW47708   6.392   0.229   1.070
48645SOL    HW147709   6.325   0.266   1.013
48645SOL    HW247710   6.427   0.305   1.118
48646SOL     OW47711   1.634   2.725   9.281
48646SOL    HW147712   1.548   2.685   9.292
48646SOL    HW247713   1.620   2.818   9.302
48647SOL     OW47714   8.201   2.836   2.090
48647SOL    HW147715   8.140   2.774   2.128
48647SOL    HW247716   8.241   2.880   2.165
48648SOL     OW47717   1.233  14.717  10.218
48648SOL    HW147718   1.291  14.648  10.187
48648SOL    HW247719   1.269  14.797  10.182
48649SOL     OW47720   5.048  11.053   4.530
48649SOL    HW147721   4.962  11.090   4.511
48649SOL    HW247722   5.037  11.007   4.613
48650SOL     OW47723   3.949   5.750   0.606
48650SOL    HW147724   3.953   5.720   0.697
48650SOL    HW247725   3.876   5.702   0.568
48651SOL     OW47726   0.691  13.579   9.732
48651SOL    HW147727   0.602  13.615   9.729
48651SOL    HW247728   0.685  13.506   9.793
48652SOL     OW47729  13.399   3.817  13.770
48652SOL    HW147730  13.405   3.772  13.854
48652SOL    HW247731  13.439   3.903  13.786
48653SOL     OW47732   0.117   0.083   0.655
48653SOL    HW147733   0.102   0.135   0.575
48653SOL    HW247734   0.141  14.874   0.623
48654SOL     OW47735   4.962   8.259   5.921
48654SOL    HW147736   4.895   8.325   5.904
48654SOL    HW247737   4.913   8.178   5.935
48655SOL     OW47738   6.391  10.887   4.253
48655SOL    HW147739   6.420  10.796   4.257
48655SOL    HW247740   6.434  10.923   4.175
48656SOL     OW47741  14.023  10.142  11.104
48656SOL    HW147742  13.949  10.194  11.137
48656SOL    HW247743  14.098  10.175  11.154
48657SOL     OW47744   0.618   9.914   7.520
48657SOL    HW147745   0.540   9.867   7.550
48657SOL    HW247746   0.642   9.872   7.438
48658SOL     OW47747  10.839   0.044   7.699
48658SOL    HW147748  10.749   0.028   7.726
48658SOL    HW247749  10.865   0.123   7.746
48659SOL     OW47750  13.688  13.560   1.341
48659SOL    HW147751  13.674  13.467   1.323
48659SOL    HW247752  13.760  13.585   1.282
48660SOL     OW47753  14.549   0.099   3.756
48660SOL    HW147754  14.492   0.055   3.819
48660SOL    HW247755  14.628   0.045   3.753
48661SOL     OW47756   4.649   1.980  12.764
48661SOL    HW147757   4.582   1.915  12.741
48661SOL    HW247758   4.693   1.999  12.681
48662SOL     OW47759  10.234   3.309   5.900
48662SOL    HW147760  10.203   3.399   5.903
48662SOL    HW247761  10.300   3.309   5.830
48663SOL     OW47762   6.020   4.886   8.144
48663SOL    HW147763   6.100   4.841   8.172
48663SOL    HW247764   5.990   4.835   8.068
48664SOL     OW47765   6.861   1.074   8.441
48664SOL    HW147766   6.777   1.042   8.408
48664SOL    HW247767   6.890   1.006   8.502
48665SOL     OW47768  12.345   3.379   0.723
48665SOL    HW147769  12.352   3.451   0.785
48665SOL    HW247770  12.368   3.301   0.775
48666SOL     OW47771  10.827   2.431  12.839
48666SOL    HW147772  10.743   2.475  12.829
48666SOL    HW247773  10.814   2.370  12.911
48667SOL     OW47774  11.525   1.518  12.495
48667SOL    HW147775  11.543   1.529  12.589
48667SOL    HW247776  11.432   1.495  12.491
48668SOL     OW47777   0.455  13.036  10.894
48668SOL    HW147778   0.481  12.977  10.965
48668SOL    HW247779   0.360  13.031  10.892
48669SOL     OW47780  10.265   9.813  11.861
48669SOL    HW147781  10.269   9.880  11.930
48669SOL    HW247782  10.356   9.789  11.845
48670SOL     OW47783   7.367   6.148  11.289
48670SOL    HW147784   7.373   6.122  11.381
48670SOL    HW247785   7.276   6.174  11.277
48671SOL     OW47786   8.181   3.036   8.008
48671SOL    HW147787   8.138   3.016   7.924
48671SOL    HW247788   8.266   2.992   8.002
48672SOL     OW47789   5.953   3.536  12.915
48672SOL    HW147790   5.946   3.483  12.995
48672SOL    HW247791   5.995   3.617  12.944
48673SOL     OW47792  11.457  10.610  14.219
48673SOL    HW147793  11.453  10.636  14.311
48673SOL    HW247794  11.376  10.562  14.204
48674SOL     OW47795   6.499  12.765  13.158
48674SOL    HW147796   6.562  12.738  13.225
48674SOL    HW247797   6.524  12.715  13.080
48675SOL     OW47798  13.206   2.588   1.157
48675SOL    HW147799  13.285   2.628   1.194
48675SOL    HW247800  13.134   2.626   1.207
48676SOL     OW47801  11.657  11.938   2.927
48676SOL    HW147802  11.647  11.934   3.022
48676SOL    HW247803  11.612  12.019   2.902
48677SOL     OW47804  10.228   5.950   1.828
48677SOL    HW147805  10.170   5.974   1.900
48677SOL    HW247806  10.169   5.932   1.755
48678SOL     OW47807  10.084   1.154   4.143
48678SOL    HW147808  10.118   1.101   4.215
48678SOL    HW247809  10.051   1.234   4.186
48679SOL     OW47810   0.620   7.635  14.166
48679SOL    HW147811   0.546   7.578  14.190
48679SOL    HW247812   0.684   7.575  14.128
48680SOL     OW47813   5.500  14.493   1.596
48680SOL    HW147814   5.424  14.545   1.619
48680SOL    HW247815   5.515  14.437   1.672
48681SOL     OW47816  12.123   3.214  12.678
48681SOL    HW147817  12.191   3.152  12.651
48681SOL    HW247818  12.042   3.180  12.639
48682SOL     OW47819   3.740   8.497   8.791
48682SOL    HW147820   3.781   8.413   8.811
48682SOL    HW247821   3.757   8.551   8.868
48683SOL     OW47822   0.984   4.290   8.038
48683SOL    HW147823   1.054   4.297   8.103
48683SOL    HW247824   0.971   4.379   8.007
48684SOL     OW47825  11.455   8.456  12.932
48684SOL    HW147826  11.491   8.526  12.876
48684SOL    HW247827  11.378   8.425  12.885
48685SOL     OW47828  12.837   9.893   5.129
48685SOL    HW147829  12.794   9.816   5.166
48685SOL    HW247830  12.902   9.858   5.068
48686SOL     OW47831   3.179   2.568   8.637
48686SOL    HW147832   3.146   2.496   8.584
48686SOL    HW247833   3.187   2.532   8.725
48687SOL     OW47834   1.826  13.357   8.417
48687SOL    HW147835   1.889  13.314   8.359
48687SOL    HW247836   1.868  13.360   8.502
48688SOL     OW47837   8.240  10.726   2.310
48688SOL    HW147838   8.226  10.807   2.359
48688SOL    HW247839   8.170  10.667   2.339
48689SOL     OW47840   4.568  13.789   6.488
48689SOL    HW147841   4.551  13.702   6.524
48689SOL    HW247842   4.514  13.793   6.409
48690SOL     OW47843  12.035   1.752  13.282
48690SOL    HW147844  12.029   1.722  13.191
48690SOL    HW247845  12.068   1.842  13.276
48691SOL     OW47846   3.067   1.939  14.857
48691SOL    HW147847   3.050   2.023   0.022
48691SOL    HW247848   3.155   1.949  14.820
48692SOL     OW47849   5.347   3.907   6.055
48692SOL    HW147850   5.405   3.983   6.055
48692SOL    HW247851   5.274   3.932   5.998
48693SOL     OW47852   1.518   4.946   4.267
48693SOL    HW147853   1.553   4.857   4.258
48693SOL    HW247854   1.424   4.936   4.254
48694SOL     OW47855   8.155   9.632  14.718
48694SOL    HW147856   8.168   9.676  14.634
48694SOL    HW247857   8.067   9.596  14.712
48695SOL     OW47858   9.686   8.807   1.697
48695SOL    HW147859   9.742   8.754   1.753
48695SOL    HW247860   9.736   8.817   1.616
48696SOL     OW47861   1.960  12.887   2.791
48696SOL    HW147862   1.944  12.814   2.731
48696SOL    HW247863   2.015  12.851   2.860
48697SOL     OW47864   1.050  14.283   1.915
48697SOL    HW147865   1.120  14.327   1.868
48697SOL    HW247866   1.085  14.197   1.936
48698SOL     OW47867   2.309  14.825  11.678
48698SOL    HW147868   2.390  14.851  11.722
48698SOL    HW247869   2.305   0.004  11.600
48699SOL     OW47870   5.825   9.871   0.380
48699SOL    HW147871   5.861   9.847   0.294
48699SOL    HW247872   5.819   9.788   0.428
48700SOL     OW47873  11.352   4.559   8.872
48700SOL    HW147874  11.349   4.647   8.834
48700SOL    HW247875  11.260   4.530   8.872
48701SOL     OW47876   1.207   6.542  14.660
48701SOL    HW147877   1.111   6.534  14.664
48701SOL    HW247878   1.240   6.459  14.694
48702SOL     OW47879   0.971   5.692   2.461
48702SOL    HW147880   1.025   5.727   2.390
48702SOL    HW247881   0.939   5.608   2.428
48703SOL     OW47882  12.679  11.042   4.901
48703SOL    HW147883  12.660  10.951   4.926
48703SOL    HW247884  12.750  11.068   4.959
48704SOL     OW47885   3.467   2.479   9.683
48704SOL    HW147886   3.399   2.491   9.617
48704SOL    HW247887   3.539   2.535   9.653
48705SOL     OW47888   3.547   5.129  12.024
48705SOL    HW147889   3.512   5.090  12.104
48705SOL    HW247890   3.612   5.067  11.993
48706SOL     OW47891   4.951  14.362  12.632
48706SOL    HW147892   5.023  14.346  12.571
48706SOL    HW247893   4.979  14.322  12.714
48707SOL     OW47894   4.500  10.027  11.307
48707SOL    HW147895   4.529   9.996  11.392
48707SOL    HW247896   4.572  10.082  11.275
48708SOL     OW47897  10.811   3.965   4.135
48708SOL    HW147898  10.893   3.920   4.113
48708SOL    HW247899  10.836   4.024   4.207
48709SOL     OW47900   1.913   5.371   6.465
48709SOL    HW147901   1.915   5.276   6.459
48709SOL    HW247902   1.893   5.389   6.557
48710SOL     OW47903   3.571   3.624  14.356
48710SOL    HW147904   3.573   3.574  14.275
48710SOL    HW247905   3.658   3.612  14.393
48711SOL     OW47906  12.098   2.993   8.530
48711SOL    HW147907  12.033   3.062   8.543
48711SOL    HW247908  12.155   2.999   8.607
48712SOL     OW47909  13.304  13.434  11.845
48712SOL    HW147910  13.373  13.406  11.786
48712SOL    HW247911  13.271  13.515  11.807
48713SOL     OW47912   8.023   8.377   7.229
48713SOL    HW147913   8.009   8.454   7.284
48713SOL    HW247914   8.117   8.363   7.231
48714SOL     OW47915   6.185   0.348   2.944
48714SOL    HW147916   6.139   0.265   2.936
48714SOL    HW247917   6.275   0.324   2.966
48715SOL     OW47918   8.018   7.433   2.434
48715SOL    HW147919   8.058   7.458   2.517
48715SOL    HW247920   7.957   7.363   2.457
48716SOL     OW47921  10.160  12.348   5.217
48716SOL    HW147922  10.108  12.405   5.160
48716SOL    HW247923  10.219  12.408   5.262
48717SOL     OW47924   1.178   4.880   5.745
48717SOL    HW147925   1.249   4.834   5.789
48717SOL    HW247926   1.159   4.955   5.801
48718SOL     OW47927   7.759   0.209  10.670
48718SOL    HW147928   7.760   0.296  10.631
48718SOL    HW247929   7.730   0.152  10.599
48719SOL     OW47930   1.896   6.888  11.201
48719SOL    HW147931   1.949   6.815  11.233
48719SOL    HW247932   1.809   6.852  11.189
48720SOL     OW47933  11.445   8.239   3.059
48720SOL    HW147934  11.377   8.291   3.017
48720SOL    HW247935  11.525   8.258   3.010
48721SOL     OW47936  11.154   1.531  11.248
48721SOL    HW147937  11.145   1.461  11.312
48721SOL    HW247938  11.247   1.555  11.252
48722SOL     OW47939  13.475  11.521  10.341
48722SOL    HW147940  13.454  11.592  10.280
48722SOL    HW247941  13.567  11.534  10.364
48723SOL     OW47942  12.231  11.607   9.574
48723SOL    HW147943  12.254  11.691   9.535
48723SOL    HW247944  12.294  11.545   9.536
48724SOL     OW47945  10.618   6.602   5.725
48724SOL    HW147946  10.709   6.606   5.756
48724SOL    HW247947  10.600   6.509   5.717
48725SOL     OW47948   9.667  10.866   8.628
48725SOL    HW147949   9.632  10.779   8.647
48725SOL    HW247950   9.592  10.916   8.598
48726SOL     OW47951   3.072   9.002  14.379
48726SOL    HW147952   3.114   8.939  14.322
48726SOL    HW247953   3.061   9.080  14.324
48727SOL     OW47954  12.817   1.528  12.409
48727SOL    HW147955  12.868   1.571  12.340
48727SOL    HW247956  12.868   1.541  12.489
48728SOL     OW47957  13.619   5.749   1.250
48728SOL    HW147958  13.677   5.673   1.248
48728SOL    HW247959  13.671   5.819   1.289
48729SOL     OW47960   6.849  11.599  10.441
48729SOL    HW147961   6.882  11.511  10.424
48729SOL    HW247962   6.927  11.650  10.465
48730SOL     OW47963   8.237  10.915   2.527
48730SOL    HW147964   8.174  10.952   2.588
48730SOL    HW247965   8.294  10.989   2.504
48731SOL     OW47966   4.569   9.157   3.724
48731SOL    HW147967   4.612   9.086   3.772
48731SOL    HW247968   4.613   9.158   3.639
48732SOL     OW47969   6.602  14.384  11.803
48732SOL    HW147970   6.572  14.293  11.800
48732SOL    HW247971   6.592  14.410  11.894
48733SOL     OW47972   5.586   8.377  14.307
48733SOL    HW147973   5.621   8.322  14.377
48733SOL    HW247974   5.565   8.316  14.237
48734SOL     OW47975   2.544  12.969   4.183
48734SOL    HW147976   2.579  13.050   4.143
48734SOL    HW247977   2.450  12.984   4.187
48735SOL     OW47978  12.493   9.045   8.502
48735SOL    HW147979  12.545   9.086   8.572
48735SOL    HW247980  12.431   9.113   8.475
48736SOL     OW47981   7.676  10.771   2.982
48736SOL    HW147982   7.639  10.756   2.895
48736SOL    HW247983   7.740  10.841   2.969
48737SOL     OW47984  10.919   4.926   1.334
48737SOL    HW147985  10.895   4.858   1.396
48737SOL    HW247986  10.926   5.006   1.387
48738SOL     OW47987   7.127  10.133  11.117
48738SOL    HW147988   7.063  10.071  11.082
48738SOL    HW247989   7.186  10.080  11.171
48739SOL     OW47990   9.331  12.871   0.303
48739SOL    HW147991   9.414  12.825   0.317
48739SOL    HW247992   9.265  12.801   0.298
48740SOL     OW47993   7.274  12.439  11.020
48740SOL    HW147994   7.210  12.374  11.048
48740SOL    HW247995   7.252  12.458  10.929
48741SOL     OW47996   4.876   2.703  11.349
48741SOL    HW147997   4.921   2.628  11.311
48741SOL    HW247998   4.799   2.666  11.392
48742SOL     OW47999   2.491  11.942   6.432
48742SOL    HW148000   2.431  12.014   6.414
48742SOL    HW248001   2.486  11.929   6.527
48743SOL     OW48002  11.620   1.811   9.354
48743SOL    HW148003  11.614   1.811   9.449
48743SOL    HW248004  11.566   1.885   9.327
48744SOL     OW48005  11.507   4.726   3.457
48744SOL    HW148006  11.444   4.681   3.512
48744SOL    HW248007  11.569   4.766   3.518
48745SOL     OW48008   6.082   8.513  12.642
48745SOL    HW148009   5.996   8.553  12.655
48745SOL    HW248010   6.126   8.571  12.581
48746SOL     OW48011  10.124   8.791   1.862
48746SOL    HW148012  10.100   8.882   1.846
48746SOL    HW248013  10.214   8.784   1.830
48747SOL     OW48014   8.859  10.148   0.041
48747SOL    HW148015   8.768  10.122   0.056
48747SOL    HW248016   8.888  10.092  14.846
48748SOL     OW48017  11.847   4.903   2.640
48748SOL    HW148018  11.894   4.863   2.566
48748SOL    HW248019  11.819   4.828   2.693
48749SOL     OW48020  12.148   7.972  10.492
48749SOL    HW148021  12.206   8.011  10.427
48749SOL    HW248022  12.156   8.029  10.569
48750SOL     OW48023   0.350   6.456  14.677
48750SOL    HW148024   0.403   6.376  14.675
48750SOL    HW248025   0.369   6.494  14.763
48751SOL     OW48026  14.494  13.030   2.006
48751SOL    HW148027  14.469  13.122   2.005
48751SOL    HW248028  14.516  13.011   2.097
48752SOL     OW48029   1.105   7.248   3.316
48752SOL    HW148030   1.091   7.236   3.410
48752SOL    HW248031   1.156   7.171   3.290
48753SOL     OW48032   8.953   9.443   4.157
48753SOL    HW148033   8.982   9.401   4.076
48753SOL    HW248034   9.023   9.504   4.179
48754SOL     OW48035   6.671  13.876  12.426
48754SOL    HW148036   6.678  13.899  12.334
48754SOL    HW248037   6.758  13.845  12.450
48755SOL     OW48038   9.853  14.709   6.402
48755SOL    HW148039   9.892  14.622   6.412
48755SOL    HW248040   9.803  14.723   6.483
48756SOL     OW48041   0.617   5.368   0.725
48756SOL    HW148042   0.552   5.327   0.668
48756SOL    HW248043   0.626   5.309   0.799
48757SOL     OW48044   7.438   4.664   0.238
48757SOL    HW148045   7.347   4.691   0.252
48757SOL    HW248046   7.448   4.659   0.143
48758SOL     OW48047  12.840   2.698  10.748
48758SOL    HW148048  12.916   2.672  10.694
48758SOL    HW248049  12.774   2.631  10.729
48759SOL     OW48050   3.030  11.081  11.911
48759SOL    HW148051   3.094  11.136  11.955
48759SOL    HW248052   2.963  11.064  11.977
48760SOL     OW48053  11.467   5.950   1.464
48760SOL    HW148054  11.392   5.922   1.411
48760SOL    HW248055  11.444   5.923   1.553
48761SOL     OW48056  13.095  11.722   7.843
48761SOL    HW148057  13.002  11.734   7.858
48761SOL    HW248058  13.113  11.633   7.872
48762SOL     OW48059   9.498  11.135   3.581
48762SOL    HW148060   9.409  11.128   3.614
48762SOL    HW248061   9.512  11.055   3.531
48763SOL     OW48062   5.795  10.273   8.838
48763SOL    HW148063   5.838  10.297   8.756
48763SOL    HW248064   5.732  10.344   8.852
48764SOL     OW48065  12.628   3.431   0.431
48764SOL    HW148066  12.705   3.396   0.476
48764SOL    HW248067  12.612   3.516   0.473
48765SOL     OW48068   8.641   6.233   6.269
48765SOL    HW148069   8.699   6.253   6.343
48765SOL    HW248070   8.554   6.224   6.308
48766SOL     OW48071   4.966  13.356   3.243
48766SOL    HW148072   4.882  13.397   3.264
48766SOL    HW248073   4.948  13.303   3.165
48767SOL     OW48074   5.054   9.428   2.789
48767SOL    HW148075   5.052   9.437   2.885
48767SOL    HW248076   5.079   9.336   2.775
48768SOL     OW48077   7.070  10.694  10.586
48768SOL    HW148078   7.043  10.781  10.616
48768SOL    HW248079   7.165  10.700  10.579
48769SOL     OW48080   9.000   6.309   4.457
48769SOL    HW148081   9.074   6.273   4.409
48769SOL    HW248082   9.018   6.287   4.549
48770SOL     OW48083   9.871  11.700  11.431
48770SOL    HW148084   9.947  11.654  11.465
48770SOL    HW248085   9.799  11.638  11.438
48771SOL     OW48086  12.762   5.939   9.254
48771SOL    HW148087  12.854   5.922   9.232
48771SOL    HW248088  12.764   5.964   9.347
48772SOL     OW48089  11.149   6.709  11.957
48772SOL    HW148090  11.225   6.767  11.964
48772SOL    HW248091  11.151   6.656  12.036
48773SOL     OW48092   6.143   5.836   4.344
48773SOL    HW148093   6.131   5.746   4.313
48773SOL    HW248094   6.236   5.854   4.327
48774SOL     OW48095  14.539   6.167   0.332
48774SOL    HW148096  14.618   6.215   0.307
48774SOL    HW248097  14.487   6.230   0.382
48775SOL     OW48098  12.611  11.670   2.595
48775SOL    HW148099  12.516  11.685   2.594
48775SOL    HW248100  12.642  11.721   2.670
48776SOL     OW48101   4.309   9.665   5.273
48776SOL    HW148102   4.239   9.619   5.319
48776SOL    HW248103   4.338   9.604   5.205
48777SOL     OW48104   5.966  12.495  12.069
48777SOL    HW148105   5.977  12.400  12.066
48777SOL    HW248106   5.979  12.518  12.161
48778SOL     OW48107  11.288  11.621  13.031
48778SOL    HW148108  11.292  11.703  13.081
48778SOL    HW248109  11.283  11.553  13.097
48779SOL     OW48110   2.460   9.220  13.486
48779SOL    HW148111   2.530   9.163  13.455
48779SOL    HW248112   2.495   9.308  13.476
48780SOL     OW48113   9.054   4.972   4.227
48780SOL    HW148114   8.986   4.963   4.294
48780SOL    HW248115   9.127   5.014   4.272
48781SOL     OW48116   9.950   9.293  11.163
48781SOL    HW148117   9.892   9.367  11.147
48781SOL    HW248118   9.927   9.229  11.095
48782SOL     OW48119   2.898  11.148  11.652
48782SOL    HW148120   2.947  11.151  11.734
48782SOL    HW248121   2.809  11.171  11.677
48783SOL     OW48122  11.154   3.775  11.824
48783SOL    HW148123  11.067   3.735  11.823
48783SOL    HW248124  11.137   3.869  11.821
48784SOL     OW48125   5.858  14.803   1.538
48784SOL    HW148126   5.929  14.759   1.490
48784SOL    HW248127   5.778  14.775   1.494
48785SOL     OW48128  13.959  13.536   7.512
48785SOL    HW148129  13.971  13.580   7.596
48785SOL    HW248130  14.003  13.452   7.522
48786SOL     OW48131  12.017   2.054   0.260
48786SOL    HW148132  11.952   2.060   0.190
48786SOL    HW248133  12.097   2.091   0.222
48787SOL     OW48134   6.288   7.354   3.799
48787SOL    HW148135   6.313   7.446   3.794
48787SOL    HW248136   6.223   7.343   3.730
48788SOL     OW48137   4.441   5.211  12.618
48788SOL    HW148138   4.429   5.133  12.564
48788SOL    HW248139   4.535   5.212  12.637
48789SOL     OW48140   6.437   5.025   1.033
48789SOL    HW148141   6.392   5.001   1.114
48789SOL    HW248142   6.430   4.947   0.977
48790SOL     OW48143   9.959  13.155   9.462
48790SOL    HW148144   9.990  13.193   9.544
48790SOL    HW248145  10.002  13.206   9.394
48791SOL     OW48146   7.796   1.641  12.437
48791SOL    HW148147   7.728   1.696  12.397
48791SOL    HW248148   7.752   1.600  12.512
48792SOL     OW48149   7.239   5.878   5.173
48792SOL    HW148150   7.148   5.886   5.202
48792SOL    HW248151   7.286   5.845   5.250
48793SOL     OW48152   7.662   6.772   2.595
48793SOL    HW148153   7.705   6.713   2.656
48793SOL    HW248154   7.630   6.715   2.525
48794SOL     OW48155   0.294   1.435   8.304
48794SOL    HW148156   0.278   1.422   8.397
48794SOL    HW248157   0.389   1.446   8.297
48795SOL     OW48158   5.082   8.687  10.192
48795SOL    HW148159   5.143   8.619  10.163
48795SOL    HW248160   5.039   8.649  10.269
48796SOL     OW48161  10.956   7.496   5.399
48796SOL    HW148162  10.938   7.558   5.469
48796SOL    HW248163  11.002   7.423   5.441
48797SOL     OW48164   6.135   1.620   6.541
48797SOL    HW148165   6.040   1.624   6.552
48797SOL    HW248166   6.148   1.613   6.446
48798SOL     OW48167  10.552   8.546  11.695
48798SOL    HW148168  10.524   8.563  11.605
48798SOL    HW248169  10.471   8.553  11.746
48799SOL     OW48170   4.643  14.292  11.172
48799SOL    HW148171   4.717  14.315  11.229
48799SOL    HW248172   4.683  14.262  11.090
48800SOL     OW48173   7.006   4.640   5.327
48800SOL    HW148174   6.961   4.640   5.243
48800SOL    HW248175   7.093   4.674   5.308
48801SOL     OW48176   7.732   9.924   4.455
48801SOL    HW148177   7.682   9.910   4.535
48801SOL    HW248178   7.707  10.012   4.426
48802SOL     OW48179  11.690   5.959   5.948
48802SOL    HW148180  11.665   6.051   5.938
48802SOL    HW248181  11.614   5.917   5.989
48803SOL     OW48182  12.776   0.035   8.675
48803SOL    HW148183  12.849  14.856   8.702
48803SOL    HW248184  12.749   0.079   8.756
48804SOL     OW48185   4.812   5.335  13.725
48804SOL    HW148186   4.815   5.255  13.776
48804SOL    HW248187   4.720   5.345  13.701
48805SOL     OW48188   9.742   4.726   7.745
48805SOL    HW148189   9.759   4.641   7.788
48805SOL    HW248190   9.650   4.744   7.764
48806SOL     OW48191   1.826  10.302  10.833
48806SOL    HW148192   1.789  10.239  10.894
48806SOL    HW248193   1.836  10.253  10.751
48807SOL     OW48194   4.873   7.422   9.208
48807SOL    HW148195   4.939   7.463   9.152
48807SOL    HW248196   4.899   7.447   9.297
48808SOL     OW48197   9.810   9.312   3.097
48808SOL    HW148198   9.716   9.319   3.108
48808SOL    HW248199   9.842   9.274   3.179
48809SOL     OW48200   2.599  13.438   4.126
48809SOL    HW148201   2.623  13.481   4.043
48809SOL    HW248202   2.619  13.345   4.111
48810SOL     OW48203   9.678  10.818   6.229
48810SOL    HW148204   9.654  10.889   6.169
48810SOL    HW248205   9.695  10.743   6.172
48811SOL     OW48206  10.006   4.283  11.634
48811SOL    HW148207  10.087   4.307  11.680
48811SOL    HW248208  10.021   4.194  11.604
48812SOL     OW48209   9.900   7.956   4.877
48812SOL    HW148210   9.954   7.954   4.956
48812SOL    HW248211   9.861   8.043   4.877
48813SOL     OW48212   5.744  12.172  10.189
48813SOL    HW148213   5.725  12.198  10.098
48813SOL    HW248214   5.664  12.129  10.219
48814SOL     OW48215   1.926   9.424  10.076
48814SOL    HW148216   1.885   9.338  10.067
48814SOL    HW248217   1.969   9.420  10.162
48815SOL     OW48218   8.810   2.860   0.236
48815SOL    HW148219   8.818   2.779   0.186
48815SOL    HW248220   8.838   2.835   0.325
48816SOL     OW48221   9.537   2.729   7.522
48816SOL    HW148222   9.509   2.813   7.486
48816SOL    HW248223   9.462   2.697   7.572
48817SOL     OW48224  11.425  11.245   6.943
48817SOL    HW148225  11.431  11.339   6.922
48817SOL    HW248226  11.489  11.232   7.013
48818SOL     OW48227  11.830  12.980   0.288
48818SOL    HW148228  11.842  12.982   0.193
48818SOL    HW248229  11.915  13.006   0.323
48819SOL     OW48230   8.518  11.420  13.987
48819SOL    HW148231   8.502  11.350  14.051
48819SOL    HW248232   8.612  11.415  13.969
48820SOL     OW48233  11.349   2.969   8.266
48820SOL    HW148234  11.377   2.896   8.321
48820SOL    HW248235  11.278   2.933   8.212
48821SOL     OW48236  12.087  13.627  11.522
48821SOL    HW148237  12.045  13.563  11.579
48821SOL    HW248238  12.053  13.608  11.434
48822SOL     OW48239  11.106  12.074  13.305
48822SOL    HW148240  11.129  12.052  13.395
48822SOL    HW248241  11.190  12.076  13.258
48823SOL     OW48242  14.037   0.955  12.596
48823SOL    HW148243  14.081   0.949  12.511
48823SOL    HW248244  13.947   0.929  12.578
48824SOL     OW48245   9.573   7.210   0.404
48824SOL    HW148246   9.655   7.232   0.359
48824SOL    HW248247   9.506   7.212   0.336
48825SOL     OW48248   4.603   7.549   0.221
48825SOL    HW148249   4.575   7.569   0.311
48825SOL    HW248250   4.679   7.605   0.207
48826SOL     OW48251  11.701   1.466  10.425
48826SOL    HW148252  11.773   1.512  10.382
48826SOL    HW248253  11.733   1.377  10.438
48827SOL     OW48254   1.159   6.070  11.650
48827SOL    HW148255   1.157   5.974  11.642
48827SOL    HW248256   1.142   6.086  11.743
48828SOL     OW48257   3.716  14.244   1.157
48828SOL    HW148258   3.765  14.263   1.076
48828SOL    HW248259   3.784  14.232   1.223
48829SOL     OW48260  14.038  11.549   7.779
48829SOL    HW148261  14.059  11.591   7.696
48829SOL    HW248262  14.100  11.586   7.842
48830SOL     OW48263   1.392  10.454  11.206
48830SOL    HW148264   1.388  10.520  11.137
48830SOL    HW248265   1.436  10.497  11.279
48831SOL     OW48266   9.774  12.943   4.013
48831SOL    HW148267   9.732  13.023   4.047
48831SOL    HW248268   9.733  12.929   3.928
48832SOL     OW48269   1.378  10.373   8.779
48832SOL    HW148270   1.307  10.313   8.757
48832SOL    HW248271   1.451  10.316   8.805
48833SOL     OW48272   0.294  12.227   4.302
48833SOL    HW148273   0.268  12.191   4.218
48833SOL    HW248274   0.212  12.238   4.350
48834SOL     OW48275   5.877   8.315  10.103
48834SOL    HW148276   5.884   8.281  10.193
48834SOL    HW248277   5.900   8.407  10.110
48835SOL     OW48278   3.427  10.224   3.595
48835SOL    HW148279   3.500  10.284   3.608
48835SOL    HW248280   3.461  10.158   3.534
48836SOL     OW48281   5.526   1.416   8.591
48836SOL    HW148282   5.500   1.375   8.508
48836SOL    HW248283   5.549   1.506   8.567
48837SOL     OW48284   5.924   0.609   3.538
48837SOL    HW148285   6.009   0.587   3.500
48837SOL    HW248286   5.876   0.652   3.467
48838SOL     OW48287   9.961   3.359   7.856
48838SOL    HW148288  10.049   3.340   7.888
48838SOL    HW248289   9.969   3.360   7.761
48839SOL     OW48290   3.644   3.449   3.500
48839SOL    HW148291   3.563   3.469   3.451
48839SOL    HW248292   3.699   3.526   3.486
48840SOL     OW48293  14.126   9.438   9.292
48840SOL    HW148294  14.205   9.489   9.271
48840SOL    HW248295  14.155   9.347   9.284
48841SOL     OW48296   3.577   8.587   1.267
48841SOL    HW148297   3.500   8.635   1.237
48841SOL    HW248298   3.551   8.495   1.263
48842SOL     OW48299   2.501   4.789   5.586
48842SOL    HW148300   2.448   4.727   5.537
48842SOL    HW248301   2.441   4.829   5.649
48843SOL     OW48302  10.326   3.343  11.630
48843SOL    HW148303  10.394   3.281  11.605
48843SOL    HW248304  10.328   3.344  11.726
48844SOL     OW48305   1.862   8.149  13.925
48844SOL    HW148306   1.771   8.162  13.950
48844SOL    HW248307   1.864   8.165  13.831
48845SOL     OW48308   9.391   6.489   4.758
48845SOL    HW148309   9.355   6.527   4.678
48845SOL    HW248310   9.481   6.464   4.734
48846SOL     OW48311  10.799   8.093   5.383
48846SOL    HW148312  10.751   8.032   5.328
48846SOL    HW248313  10.840   8.153   5.321
48847SOL     OW48314   7.756  14.252  11.064
48847SOL    HW148315   7.833  14.291  11.106
48847SOL    HW248316   7.683  14.308  11.092
48848SOL     OW48317   7.411   7.261  10.037
48848SOL    HW148318   7.480   7.200  10.009
48848SOL    HW248319   7.429   7.278  10.129
48849SOL     OW48320   4.399  14.523   6.233
48849SOL    HW148321   4.367  14.445   6.187
48849SOL    HW248322   4.459  14.488   6.300
48850SOL     OW48323   8.975   3.241  11.872
48850SOL    HW148324   8.885   3.235  11.838
48850SOL    HW248325   8.969   3.301  11.946
48851SOL     OW48326   2.881   2.255   0.544
48851SOL    HW148327   2.929   2.242   0.626
48851SOL    HW248328   2.828   2.333   0.559
48852SOL     OW48329   7.552  11.521   3.986
48852SOL    HW148330   7.629  11.494   4.037
48852SOL    HW248331   7.541  11.452   3.921
48853SOL     OW48332   9.896   9.170   1.852
48853SOL    HW148333   9.922   9.228   1.924
48853SOL    HW248334   9.933   9.211   1.774
48854SOL     OW48335   7.424   7.119  10.758
48854SOL    HW148336   7.434   7.212  10.739
48854SOL    HW248337   7.511   7.082  10.746
48855SOL     OW48338  11.588   8.525   2.739
48855SOL    HW148339  11.498   8.501   2.761
48855SOL    HW248340  11.580   8.575   2.657
48856SOL     OW48341  14.699   3.136   7.464
48856SOL    HW148342  14.770   3.190   7.500
48856SOL    HW248343  14.686   3.067   7.529
48857SOL     OW48344   5.120  12.608   1.881
48857SOL    HW148345   5.130  12.601   1.786
48857SOL    HW248346   5.030  12.582   1.898
48858SOL     OW48347   5.228   0.314   3.859
48858SOL    HW148348   5.298   0.286   3.917
48858SOL    HW248349   5.273   0.355   3.785
48859SOL     OW48350  14.605   6.964   3.044
48859SOL    HW148351  14.546   6.964   3.120
48859SOL    HW248352  14.551   6.996   2.972
48860SOL     OW48353   8.074   9.929   5.582
48860SOL    HW148354   8.124   9.979   5.648
48860SOL    HW248355   8.063   9.991   5.510
48861SOL     OW48356   2.560  14.214   8.280
48861SOL    HW148357   2.567  14.241   8.372
48861SOL    HW248358   2.475  14.248   8.252
48862SOL     OW48359   9.714  10.264   0.296
48862SOL    HW148360   9.651  10.220   0.239
48862SOL    HW248361   9.734  10.200   0.364
48863SOL     OW48362   9.337  14.245   3.615
48863SOL    HW148363   9.248  14.210   3.614
48863SOL    HW248364   9.385  14.194   3.550
48864SOL     OW48365   5.841  13.660   0.983
48864SOL    HW148366   5.808  13.749   0.974
48864SOL    HW248367   5.895  13.661   1.062
48865SOL     OW48368  10.527   5.262   9.619
48865SOL    HW148369  10.433   5.278   9.625
48865SOL    HW248370  10.542   5.234   9.529
48866SOL     OW48371  12.908   2.508  13.922
48866SOL    HW148372  12.859   2.531  13.842
48866SOL    HW248373  12.996   2.543  13.907
48867SOL     OW48374   4.574   9.134  10.187
48867SOL    HW148375   4.583   9.183  10.269
48867SOL    HW248376   4.622   9.186  10.123
48868SOL     OW48377  12.651  11.456   2.961
48868SOL    HW148378  12.730  11.507   2.978
48868SOL    HW248379  12.627  11.420   3.047
48869SOL     OW48380   0.433   3.648  14.717
48869SOL    HW148381   0.391   3.635  14.632
48869SOL    HW248382   0.389   3.725  14.754
48870SOL     OW48383   7.159   3.977   6.876
48870SOL    HW148384   7.187   3.953   6.788
48870SOL    HW248385   7.241   4.000   6.921
48871SOL     OW48386  10.164   7.061   0.465
48871SOL    HW148387  10.098   6.998   0.435
48871SOL    HW248388  10.239   7.046   0.407
48872SOL     OW48389   7.212   7.527  13.512
48872SOL    HW148390   7.232   7.573  13.594
48872SOL    HW248391   7.263   7.447  13.515
48873SOL     OW48392   9.508  13.484   6.044
48873SOL    HW148393   9.523  13.536   5.965
48873SOL    HW248394   9.570  13.412   6.039
48874SOL     OW48395   5.733  14.258   7.043
48874SOL    HW148396   5.650  14.220   7.016
48874SOL    HW248397   5.793  14.239   6.972
48875SOL     OW48398   1.487   7.431  13.938
48875SOL    HW148399   1.542   7.361  13.972
48875SOL    HW248400   1.412   7.386  13.898
48876SOL     OW48401  13.994   6.615  13.776
48876SOL    HW148402  14.025   6.672  13.846
48876SOL    HW248403  14.029   6.529  13.798
48877SOL     OW48404  11.836   9.060   4.182
48877SOL    HW148405  11.862   9.141   4.226
48877SOL    HW248406  11.868   8.990   4.239
48878SOL     OW48407   6.314   2.328  14.041
48878SOL    HW148408   6.261   2.351  13.964
48878SOL    HW248409   6.399   2.368  14.024
48879SOL     OW48410  13.709  12.054   4.895
48879SOL    HW148411  13.738  11.994   4.964
48879SOL    HW248412  13.735  12.012   4.813
48880SOL     OW48413  10.596   0.915   7.277
48880SOL    HW148414  10.504   0.896   7.295
48880SOL    HW248415  10.598   0.938   7.184
48881SOL     OW48416  13.640  14.112  10.815
48881SOL    HW148417  13.577  14.085  10.882
48881SOL    HW248418  13.724  14.077  10.845
48882SOL     OW48419  11.837   4.828  12.340
48882SOL    HW148420  11.904   4.760  12.353
48882SOL    HW248421  11.800   4.808  12.254
48883SOL     OW48422   7.910   8.288  14.003
48883SOL    HW148423   7.933   8.252  14.089
48883SOL    HW248424   7.953   8.229  13.941
48884SOL     OW48425   1.685   7.754  13.284
48884SOL    HW148426   1.594   7.731  13.302
48884SOL    HW248427   1.710   7.698  13.211
48885SOL     OW48428   2.910  10.437  14.784
48885SOL    HW148429   2.852  10.507  14.755
48885SOL    HW248430   2.981  10.437  14.720
48886SOL     OW48431   4.663  14.351   4.693
48886SOL    HW148432   4.678  14.284   4.759
48886SOL    HW248433   4.599  14.312   4.634
48887SOL     OW48434   2.983  13.355   4.281
48887SOL    HW148435   2.944  13.441   4.301
48887SOL    HW248436   3.055  13.374   4.222
48888SOL     OW48437   8.865   9.043   4.632
48888SOL    HW148438   8.936   9.047   4.696
48888SOL    HW248439   8.800   9.106   4.664
48889SOL     OW48440   5.138   2.642   1.321
48889SOL    HW148441   5.222   2.651   1.277
48889SOL    HW248442   5.092   2.572   1.275
48890SOL     OW48443   9.515  14.007   3.884
48890SOL    HW148444   9.422  13.986   3.892
48890SOL    HW248445   9.517  14.094   3.844
48891SOL     OW48446   9.766   6.820   3.073
48891SOL    HW148447   9.848   6.826   3.122
48891SOL    HW248448   9.700   6.804   3.140
48892SOL     OW48449   5.426   1.614   0.450
48892SOL    HW148450   5.440   1.646   0.361
48892SOL    HW248451   5.418   1.693   0.503
48893SOL     OW48452   6.037   4.443   6.259
48893SOL    HW148453   6.016   4.524   6.212
48893SOL    HW248454   6.032   4.375   6.192
48894SOL     OW48455   1.034   6.162  13.016
48894SOL    HW148456   1.111   6.105  13.024
48894SOL    HW248457   0.990   6.133  12.936
48895SOL     OW48458   1.430   4.965  14.489
48895SOL    HW148459   1.341   4.986  14.460
48895SOL    HW248460   1.484   5.034  14.450
48896SOL     OW48461  14.186   4.037   4.632
48896SOL    HW148462  14.153   4.068   4.716
48896SOL    HW248463  14.141   3.955   4.616
48897SOL     OW48464  14.746  14.819   5.017
48897SOL    HW148465  14.722   0.028   4.984
48897SOL    HW248466  14.757  14.765   4.939
48898SOL     OW48467   6.565   0.721   7.191
48898SOL    HW148468   6.497   0.731   7.125
48898SOL    HW248469   6.521   0.734   7.274
48899SOL     OW48470  13.703  12.847  10.773
48899SOL    HW148471  13.747  12.930  10.788
48899SOL    HW248472  13.639  12.866  10.704
48900SOL     OW48473  11.041   0.091   6.820
48900SOL    HW148474  11.075   0.178   6.799
48900SOL    HW248475  11.053   0.082   6.914
48901SOL     OW48476  14.477  11.004  12.537
48901SOL    HW148477  14.508  10.994  12.447
48901SOL    HW248478  14.488  11.097  12.555
48902SOL     OW48479   9.522   8.546   2.445
48902SOL    HW148480   9.612   8.574   2.463
48902SOL    HW248481   9.471   8.627   2.445
48903SOL     OW48482   1.118   1.718  13.349
48903SOL    HW148483   1.181   1.790  13.356
48903SOL    HW248484   1.048   1.742  13.409
48904SOL     OW48485  12.240   4.937   9.976
48904SOL    HW148486  12.236   4.904   9.886
48904SOL    HW248487  12.210   5.028   9.970
48905SOL     OW48488  14.522   6.157  11.629
48905SOL    HW148489  14.524   6.062  11.625
48905SOL    HW248490  14.455   6.177  11.694
48906SOL     OW48491  13.225   0.728   9.103
48906SOL    HW148492  13.281   0.698   9.175
48906SOL    HW248493  13.286   0.756   9.036
48907SOL     OW48494   4.741   3.882   7.498
48907SOL    HW148495   4.687   3.842   7.429
48907SOL    HW248496   4.827   3.891   7.458
48908SOL     OW48497   1.243  11.121   4.067
48908SOL    HW148498   1.282  11.147   4.150
48908SOL    HW248499   1.223  11.204   4.023
48909SOL     OW48500   5.806   1.194   1.470
48909SOL    HW148501   5.770   1.170   1.555
48909SOL    HW248502   5.795   1.116   1.416
48910SOL     OW48503   8.116  12.614   8.557
48910SOL    HW148504   8.025  12.636   8.577
48910SOL    HW248505   8.151  12.692   8.514
48911SOL     OW48506   7.289   4.622  13.641
48911SOL    HW148507   7.236   4.691  13.681
48911SOL    HW248508   7.246   4.541  13.668
48912SOL     OW48509   3.570  11.517  11.985
48912SOL    HW148510   3.498  11.481  11.933
48912SOL    HW248511   3.642  11.455  11.973
48913SOL     OW48512   0.563  10.954   4.763
48913SOL    HW148513   0.626  11.024   4.748
48913SOL    HW248514   0.477  10.996   4.751
48914SOL     OW48515   3.080  12.540   0.252
48914SOL    HW148516   2.984  12.546   0.251
48914SOL    HW248517   3.100  12.483   0.325
48915SOL     OW48518   6.852   2.879   9.413
48915SOL    HW148519   6.868   2.852   9.322
48915SOL    HW248520   6.917   2.948   9.428
48916SOL     OW48521   3.361   4.038   4.277
48916SOL    HW148522   3.348   4.077   4.190
48916SOL    HW248523   3.364   4.112   4.337
48917SOL     OW48524   6.804   8.267  13.220
48917SOL    HW148525   6.867   8.268  13.148
48917SOL    HW248526   6.831   8.194  13.275
48918SOL     OW48527   0.339   9.165  14.047
48918SOL    HW148528   0.316   9.208  13.965
48918SOL    HW248529   0.369   9.235  14.104
48919SOL     OW48530   2.700   9.777   7.399
48919SOL    HW148531   2.782   9.824   7.416
48919SOL    HW248532   2.684   9.726   7.478
48920SOL     OW48533   2.526  14.324   5.263
48920SOL    HW148534   2.519  14.354   5.354
48920SOL    HW248535   2.440  14.343   5.225
48921SOL     OW48536  14.332   6.243   4.902
48921SOL    HW148537  14.260   6.248   4.839
48921SOL    HW248538  14.380   6.325   4.891
48922SOL     OW48539   2.340   2.026   4.086
48922SOL    HW148540   2.268   1.965   4.098
48922SOL    HW248541   2.409   1.994   4.144
48923SOL     OW48542   9.828   4.852   1.161
48923SOL    HW148543   9.799   4.837   1.251
48923SOL    HW248544   9.854   4.765   1.130
48924SOL     OW48545  10.999   3.945   0.563
48924SOL    HW148546  11.093   3.961   0.560
48924SOL    HW248547  10.969   3.959   0.474
48925SOL     OW48548  10.946  10.221   5.754
48925SOL    HW148549  10.991  10.268   5.684
48925SOL    HW248550  10.945  10.130   5.726
48926SOL     OW48551   1.318   8.374   2.969
48926SOL    HW148552   1.269   8.456   2.963
48926SOL    HW248553   1.256   8.311   3.005
48927SOL     OW48554   5.253  12.062   2.411
48927SOL    HW148555   5.298  12.058   2.495
48927SOL    HW248556   5.160  12.054   2.434
48928SOL     OW48557   9.217   0.950   8.695
48928SOL    HW148558   9.158   0.877   8.717
48928SOL    HW248559   9.163   1.028   8.706
48929SOL     OW48560   0.387   5.086   2.079
48929SOL    HW148561   0.310   5.034   2.101
48929SOL    HW248562   0.433   5.035   2.012
48930SOL     OW48563  13.645   0.552  10.696
48930SOL    HW148564  13.700   0.605  10.754
48930SOL    HW248565  13.560   0.549  10.740
48931SOL     OW48566   6.072  12.141   4.306
48931SOL    HW148567   6.123  12.211   4.347
48931SOL    HW248568   6.126  12.111   4.233
48932SOL     OW48569   5.182   1.954   9.703
48932SOL    HW148570   5.251   1.889   9.711
48932SOL    HW248571   5.137   1.932   9.622
48933SOL     OW48572   4.438  14.750  14.054
48933SOL    HW148573   4.396  14.819  14.003
48933SOL    HW248574   4.375  14.678  14.054
48934SOL     OW48575  11.382   0.981  13.665
48934SOL    HW148576  11.307   0.946  13.618
48934SOL    HW248577  11.404   0.914  13.730
48935SOL     OW48578   1.101   0.033   5.584
48935SOL    HW148579   1.182  14.861   5.570
48935SOL    HW248580   1.034  14.860   5.536
48936SOL     OW48581   7.059  12.844   9.560
48936SOL    HW148582   7.051  12.753   9.531
48936SOL    HW248583   7.142  12.846   9.609
48937SOL     OW48584  12.427   9.214  11.016
48937SOL    HW148585  12.339   9.195  10.983
48937SOL    HW248586  12.484   9.202  10.939
48938SOL     OW48587  10.459   1.224   0.194
48938SOL    HW148588  10.388   1.283   0.166
48938SOL    HW248589  10.462   1.233   0.289
48939SOL     OW48590   1.950   4.200   6.339
48939SOL    HW148591   1.999   4.211   6.258
48939SOL    HW248592   2.017   4.183   6.406
48940SOL     OW48593   7.730   1.796  12.804
48940SOL    HW148594   7.652   1.801  12.858
48940SOL    HW248595   7.803   1.802  12.866
48941SOL     OW48596   9.440  13.999  13.687
48941SOL    HW148597   9.491  13.939  13.742
48941SOL    HW248598   9.385  13.941  13.634
48942SOL     OW48599   1.068  11.681   3.073
48942SOL    HW148600   1.038  11.675   2.983
48942SOL    HW248601   1.082  11.591   3.101
48943SOL     OW48602   7.588   7.235   8.089
48943SOL    HW148603   7.609   7.259   7.999
48943SOL    HW248604   7.649   7.287   8.143
48944SOL     OW48605   5.801   9.143   8.010
48944SOL    HW148606   5.851   9.223   7.991
48944SOL    HW248607   5.801   9.095   7.928
48945SOL     OW48608   8.087   1.876   3.269
48945SOL    HW148609   8.090   1.830   3.185
48945SOL    HW248610   8.133   1.819   3.330
48946SOL     OW48611  11.634   1.816   7.743
48946SOL    HW148612  11.646   1.792   7.651
48946SOL    HW248613  11.562   1.761   7.773
48947SOL     OW48614   0.369   0.137   6.417
48947SOL    HW148615   0.434   0.200   6.449
48947SOL    HW248616   0.368   0.150   6.322
48948SOL     OW48617  12.343   6.241  12.665
48948SOL    HW148618  12.389   6.309  12.616
48948SOL    HW248619  12.374   6.159  12.628
48949SOL     OW48620  14.864   9.494   7.495
48949SOL    HW148621   0.022   9.532   7.414
48949SOL    HW248622  14.871   9.399   7.482
48950SOL     OW48623  12.612   2.308  10.428
48950SOL    HW148624  12.621   2.278  10.338
48950SOL    HW248625  12.520   2.335  10.436
48951SOL     OW48626  11.774   2.805   1.349
48951SOL    HW148627  11.708   2.808   1.279
48951SOL    HW248628  11.746   2.874   1.410
48952SOL     OW48629   7.519   9.079   4.358
48952SOL    HW148630   7.492   9.137   4.428
48952SOL    HW248631   7.590   9.126   4.314
48953SOL     OW48632   0.937   1.061   6.192
48953SOL    HW148633   0.943   1.137   6.135
48953SOL    HW248634   1.023   1.056   6.234
48954SOL     OW48635   6.922   9.947   4.141
48954SOL    HW148636   6.967  10.016   4.093
48954SOL    HW248637   6.987   9.877   4.150
48955SOL     OW48638  11.131  10.892  12.667
48955SOL    HW148639  11.171  10.807  12.685
48955SOL    HW248640  11.122  10.933  12.753
48956SOL     OW48641   6.332   9.479  11.768
48956SOL    HW148642   6.397   9.525  11.715
48956SOL    HW248643   6.338   9.388  11.738
48957SOL     OW48644   6.725   1.013   9.705
48957SOL    HW148645   6.786   0.985   9.637
48957SOL    HW248646   6.773   1.077   9.756
48958SOL     OW48647  13.865   7.738  14.442
48958SOL    HW148648  13.802   7.809  14.452
48958SOL    HW248649  13.816   7.668  14.398
48959SOL     OW48650   9.607   4.963   0.325
48959SOL    HW148651   9.573   4.875   0.343
48959SOL    HW248652   9.619   5.002   0.411
48960SOL     OW48653   8.062   5.079  12.673
48960SOL    HW148654   8.096   5.096  12.761
48960SOL    HW248655   8.077   4.986  12.660
48961SOL     OW48656   2.399   1.530  11.458
48961SOL    HW148657   2.322   1.475  11.469
48961SOL    HW248658   2.367   1.619  11.471
48962SOL     OW48659  11.130  13.760   3.136
48962SOL    HW148660  11.207  13.703   3.142
48962SOL    HW248661  11.059  13.709   3.175
48963SOL     OW48662   3.908   3.627  14.289
48963SOL    HW148663   3.870   3.699  14.237
48963SOL    HW248664   4.000   3.651  14.299
48964SOL     OW48665  12.450   6.345  13.912
48964SOL    HW148666  12.443   6.251  13.927
48964SOL    HW248667  12.360   6.376  13.907
48965SOL     OW48668  13.881   6.180   3.591
48965SOL    HW148669  13.785   6.175   3.585
48965SOL    HW248670  13.902   6.131   3.671
48966SOL     OW48671  11.123   2.880   3.496
48966SOL    HW148672  11.196   2.827   3.463
48966SOL    HW248673  11.159   2.968   3.504
48967SOL     OW48674   1.105   4.037   6.534
48967SOL    HW148675   1.062   4.097   6.595
48967SOL    HW248676   1.036   3.976   6.508
48968SOL     OW48677   1.332  12.489  12.070
48968SOL    HW148678   1.264  12.469  12.134
48968SOL    HW248679   1.409  12.441  12.101
48969SOL     OW48680   0.472  11.448   2.706
48969SOL    HW148681   0.399  11.466   2.646
48969SOL    HW248682   0.470  11.519   2.770
48970SOL     OW48683   2.877  14.572   2.490
48970SOL    HW148684   2.929  14.651   2.472
48970SOL    HW248685   2.787  14.600   2.477
48971SOL     OW48686   6.774   8.316  12.475
48971SOL    HW148687   6.807   8.301  12.387
48971SOL    HW248688   6.680   8.306  12.468
48972SOL     OW48689   1.746  13.311   8.760
48972SOL    HW148690   1.729  13.219   8.779
48972SOL    HW248691   1.840  13.315   8.742
48973SOL     OW48692   8.365  12.144  10.340
48973SOL    HW148693   8.301  12.207  10.307
48973SOL    HW248694   8.370  12.162  10.434
48974SOL     OW48695  12.879   2.107   8.777
48974SOL    HW148696  12.803   2.063   8.815
48974SOL    HW248697  12.918   2.155   8.850
48975SOL     OW48698   8.196   6.913   3.843
48975SOL    HW148699   8.197   7.008   3.858
48975SOL    HW248700   8.267   6.879   3.897
48976SOL     OW48701   3.807   5.802  13.377
48976SOL    HW148702   3.719   5.793  13.413
48976SOL    HW248703   3.804   5.753  13.295
48977SOL     OW48704   8.765   6.402   2.135
48977SOL    HW148705   8.718   6.471   2.182
48977SOL    HW248706   8.841   6.446   2.097
48978SOL     OW48707   1.607  12.654  10.439
48978SOL    HW148708   1.539  12.708  10.398
48978SOL    HW248709   1.681  12.659  10.379
48979SOL     OW48710  14.090   4.001   7.082
48979SOL    HW148711  14.100   4.048   7.165
48979SOL    HW248712  14.166   4.027   7.030
48980SOL     OW48713   7.921   4.215   0.047
48980SOL    HW148714   7.834   4.242   0.017
48980SOL    HW248715   7.980   4.282   0.013
48981SOL     OW48716  11.194   6.973   8.631
48981SOL    HW148717  11.107   6.953   8.666
48981SOL    HW248718  11.198   6.927   8.547
48982SOL     OW48719   9.053   2.766   1.372
48982SOL    HW148720   9.103   2.685   1.380
48982SOL    HW248721   8.972   2.740   1.328
48983SOL     OW48722  14.168   6.043  14.466
48983SOL    HW148723  14.106   6.093  14.518
48983SOL    HW248724  14.156   6.075  14.376
48984SOL     OW48725  10.654   3.861  11.914
48984SOL    HW148726  10.572   3.855  11.864
48984SOL    HW248727  10.631   3.911  11.992
48985SOL     OW48728   5.429   7.017  11.073
48985SOL    HW148729   5.463   6.959  11.141
48985SOL    HW248730   5.336   6.993  11.065
48986SOL     OW48731  11.673  14.086   7.405
48986SOL    HW148732  11.643  14.161   7.353
48986SOL    HW248733  11.751  14.054   7.359
48987SOL     OW48734  12.489   6.163   5.779
48987SOL    HW148735  12.439   6.092   5.820
48987SOL    HW248736  12.580   6.145   5.802
48988SOL     OW48737   2.872   5.899  13.875
48988SOL    HW148738   2.855   5.811  13.841
48988SOL    HW248739   2.804   5.954  13.836
48989SOL     OW48740  14.702   1.372  14.732
48989SOL    HW148741  14.722   1.310  14.662
48989SOL    HW248742  14.612   1.353  14.757
48990SOL     OW48743   9.280   1.735   3.006
48990SOL    HW148744   9.338   1.688   3.067
48990SOL    HW248745   9.230   1.794   3.062
48991SOL     OW48746   2.441   0.961   1.626
48991SOL    HW148747   2.367   0.993   1.678
48991SOL    HW248748   2.441   0.866   1.641
48992SOL     OW48749   8.445   2.421   5.308
48992SOL    HW148750   8.416   2.465   5.228
48992SOL    HW248751   8.367   2.418   5.363
48993SOL     OW48752   0.774   5.683   2.039
48993SOL    HW148753   0.754   5.775   2.019
48993SOL    HW248754   0.695   5.635   2.014
48994SOL     OW48755  13.638  13.581   2.537
48994SOL    HW148756  13.604  13.491   2.545
48994SOL    HW248757  13.658  13.606   2.627
48995SOL     OW48758  14.363   1.035  13.486
48995SOL    HW148759  14.340   1.083  13.406
48995SOL    HW248760  14.420   1.094  13.534
48996SOL     OW48761   4.965  14.184   1.898
48996SOL    HW148762   4.919  14.230   1.969
48996SOL    HW248763   5.057  14.189   1.922
48997SOL     OW48764   6.959   3.334   1.592
48997SOL    HW148765   6.873   3.326   1.634
48997SOL    HW248766   7.005   3.253   1.615
48998SOL     OW48767   6.678  12.887   8.927
48998SOL    HW148768   6.663  12.981   8.914
48998SOL    HW248769   6.738  12.882   9.001
48999SOL     OW48770  14.433   4.989  12.046
48999SOL    HW148771  14.400   5.054  12.108
48999SOL    HW248772  14.354   4.944  12.015
49000SOL     OW48773   1.588   6.259  12.806
49000SOL    HW148774   1.672   6.229  12.770
49000SOL    HW248775   1.559   6.327  12.747
49001SOL     OW48776   9.073  12.184  11.469
49001SOL    HW148777   9.008  12.223  11.411
49001SOL    HW248778   9.135  12.141  11.410
49002SOL     OW48779   4.138  14.614   8.220
49002SOL    HW148780   4.086  14.538   8.246
49002SOL    HW248781   4.073  14.681   8.198
49003SOL     OW48782  10.134   3.898   5.088
49003SOL    HW148783  10.227   3.875   5.081
49003SOL    HW248784  10.132   3.971   5.149
49004SOL     OW48785   6.177  10.495  11.316
49004SOL    HW148786   6.250  10.556  11.323
49004SOL    HW248787   6.175  10.471  11.223
49005SOL     OW48788   6.376   8.527   0.060
49005SOL    HW148789   6.297   8.479   0.084
49005SOL    HW248790   6.352   8.576  14.859
49006SOL     OW48791  11.921   9.017   6.438
49006SOL    HW148792  11.964   9.087   6.487
49006SOL    HW248793  11.969   9.013   6.355
49007SOL     OW48794  10.335  10.163   5.588
49007SOL    HW148795  10.417  10.203   5.560
49007SOL    HW248796  10.267  10.207   5.537
49008SOL     OW48797  11.786  12.148   5.955
49008SOL    HW148798  11.824  12.060   5.948
49008SOL    HW248799  11.691  12.134   5.953
49009SOL     OW48800  11.454   6.130   9.272
49009SOL    HW148801  11.515   6.154   9.203
49009SOL    HW248802  11.474   6.191   9.344
49010SOL     OW48803   4.800  11.254  13.977
49010SOL    HW148804   4.813  11.303  13.895
49010SOL    HW248805   4.880  11.269  14.027
49011SOL     OW48806   8.218   9.483   3.725
49011SOL    HW148807   8.135   9.500   3.680
49011SOL    HW248808   8.200   9.498   3.817
49012SOL     OW48809   9.541  13.706  14.782
49012SOL    HW148810   9.623  13.708  14.833
49012SOL    HW248811   9.569  13.691  14.692
49013SOL     OW48812   0.576   8.777   7.128
49013SOL    HW148813   0.519   8.701   7.119
49013SOL    HW248814   0.663   8.739   7.141
49014SOL     OW48815   9.151   0.254   7.391
49014SOL    HW148816   9.171   0.185   7.327
49014SOL    HW248817   9.189   0.333   7.354
49015SOL     OW48818  10.329  10.345  12.297
49015SOL    HW148819  10.271  10.345  12.221
49015SOL    HW248820  10.388  10.272  12.282
49016SOL     OW48821   3.947   2.334   3.784
49016SOL    HW148822   3.899   2.369   3.709
49016SOL    HW248823   3.879   2.312   3.848
49017SOL     OW48824  13.752   8.714   5.180
49017SOL    HW148825  13.739   8.638   5.236
49017SOL    HW248826  13.847   8.727   5.178
49018SOL     OW48827   8.256   1.498  11.949
49018SOL    HW148828   8.199   1.511  11.873
49018SOL    HW248829   8.293   1.585  11.966
49019SOL     OW48830  14.320   6.013   7.177
49019SOL    HW148831  14.406   5.971   7.176
49019SOL    HW248832  14.292   6.010   7.085
49020SOL     OW48833  10.858   6.059  10.995
49020SOL    HW148834  10.885   6.134  11.047
49020SOL    HW248835  10.839   5.991  11.059
49021SOL     OW48836   6.513  10.633   4.281
49021SOL    HW148837   6.526  10.541   4.304
49021SOL    HW248838   6.571  10.681   4.339
49022SOL     OW48839  12.903   4.203   2.295
49022SOL    HW148840  12.865   4.274   2.347
49022SOL    HW248841  12.998   4.210   2.311
49023SOL     OW48842   0.140   2.679  10.949
49023SOL    HW148843   0.204   2.710  10.885
49023SOL    HW248844   0.062   2.660  10.897
49024SOL     OW48845   5.676   4.337   6.534
49024SOL    HW148846   5.729   4.416   6.532
49024SOL    HW248847   5.585   4.369   6.534
49025SOL     OW48848   3.110   2.852  12.064
49025SOL    HW148849   3.080   2.823  11.978
49025SOL    HW248850   3.189   2.800  12.080
49026SOL     OW48851  12.782   9.315  12.903
49026SOL    HW148852  12.833   9.379  12.954
49026SOL    HW248853  12.822   9.317  12.816
49027SOL     OW48854   7.727   2.662  10.271
49027SOL    HW148855   7.740   2.570  10.293
49027SOL    HW248856   7.673   2.660  10.192
49028SOL     OW48857   5.972  14.449   6.649
49028SOL    HW148858   5.917  14.442   6.570
49028SOL    HW248859   6.051  14.495   6.619
49029SOL     OW48860   5.189   8.753   8.324
49029SOL    HW148861   5.116   8.717   8.276
49029SOL    HW248862   5.191   8.704   8.406
49030SOL     OW48863  12.439   7.232   8.049
49030SOL    HW148864  12.426   7.190   7.965
49030SOL    HW248865  12.520   7.281   8.039
49031SOL     OW48866   1.676   3.010   3.235
49031SOL    HW148867   1.649   2.976   3.149
49031SOL    HW248868   1.770   3.028   3.224
49032SOL     OW48869   1.631   7.056   5.357
49032SOL    HW148870   1.615   6.994   5.287
49032SOL    HW248871   1.556   7.045   5.416
49033SOL     OW48872  14.083  12.532   5.032
49033SOL    HW148873  14.004  12.530   4.978
49033SOL    HW248874  14.150  12.569   4.974
49034SOL     OW48875   1.825   5.026   4.238
49034SOL    HW148876   1.843   5.115   4.208
49034SOL    HW248877   1.771   4.987   4.170
49035SOL     OW48878  10.497   1.190   3.756
49035SOL    HW148879  10.419   1.157   3.802
49035SOL    HW248880  10.566   1.189   3.822
49036SOL     OW48881   2.003   6.066  11.189
49036SOL    HW148882   2.006   6.095  11.280
49036SOL    HW248883   1.971   6.141  11.140
49037SOL     OW48884  13.155  14.853   1.203
49037SOL    HW148885  13.235  14.830   1.250
49037SOL    HW248886  13.094   0.004   1.272
49038SOL     OW48887   7.226   2.261  11.063
49038SOL    HW148888   7.276   2.182  11.086
49038SOL    HW248889   7.203   2.300  11.148
49039SOL     OW48890   8.214  12.391  14.137
49039SOL    HW148891   8.226  12.401  14.042
49039SOL    HW248892   8.197  12.298  14.149
49040SOL     OW48893   8.749   0.630   3.234
49040SOL    HW148894   8.733   0.667   3.147
49040SOL    HW248895   8.695   0.551   3.237
49041SOL     OW48896   4.029   7.147   3.588
49041SOL    HW148897   4.035   7.159   3.494
49041SOL    HW248898   3.970   7.072   3.599
49042SOL     OW48899   3.285   2.944   3.381
49042SOL    HW148900   3.235   3.026   3.381
49042SOL    HW248901   3.218   2.876   3.381
49043SOL     OW48902   8.473   9.446  12.002
49043SOL    HW148903   8.491   9.375  12.063
49043SOL    HW248904   8.470   9.404  11.916
49044SOL     OW48905  13.051   2.555   2.877
49044SOL    HW148906  13.007   2.579   2.959
49044SOL    HW248907  13.024   2.464   2.862
49045SOL     OW48908   9.057   6.419   3.852
49045SOL    HW148909   8.968   6.441   3.877
49045SOL    HW248910   9.066   6.453   3.763
49046SOL     OW48911   0.759   7.151   4.494
49046SOL    HW148912   0.720   7.093   4.429
49046SOL    HW248913   0.735   7.114   4.578
49047SOL     OW48914   0.712   5.096   5.405
49047SOL    HW148915   0.640   5.158   5.409
49047SOL    HW248916   0.782   5.142   5.360
49048SOL     OW48917   3.508   3.141   7.228
49048SOL    HW148918   3.449   3.201   7.274
49048SOL    HW248919   3.524   3.071   7.291
49049SOL     OW48920   8.550  13.150   9.670
49049SOL    HW148921   8.641  13.131   9.691
49049SOL    HW248922   8.541  13.124   9.578
49050SOL     OW48923   4.601   6.714   2.916
49050SOL    HW148924   4.552   6.795   2.935
49050SOL    HW248925   4.685   6.726   2.959
49051SOL     OW48926   3.408  10.798   7.803
49051SOL    HW148927   3.496  10.824   7.773
49051SOL    HW248928   3.383  10.727   7.744
49052SOL     OW48929   0.514   1.202   7.605
49052SOL    HW148930   0.460   1.273   7.641
49052SOL    HW248931   0.561   1.243   7.532
49053SOL     OW48932   8.220   1.841  14.650
49053SOL    HW148933   8.163   1.838  14.573
49053SOL    HW248934   8.220   1.752  14.684
49054SOL     OW48935  10.556   7.214   5.385
49054SOL    HW148936  10.593   7.140   5.337
49054SOL    HW248937  10.461   7.198   5.384
49055SOL     OW48938   3.354   9.257   2.044
49055SOL    HW148939   3.378   9.242   1.953
49055SOL    HW248940   3.353   9.170   2.084
49056SOL     OW48941   3.931  10.972  10.799
49056SOL    HW148942   3.943  10.926  10.716
49056SOL    HW248943   3.864  11.038  10.781
49057SOL     OW48944  13.314   4.534   5.990
49057SOL    HW148945  13.225   4.521   5.958
49057SOL    HW248946  13.363   4.567   5.915
49058SOL     OW48947  11.396   6.719   7.966
49058SOL    HW148948  11.421   6.810   7.948
49058SOL    HW248949  11.316   6.706   7.915
49059SOL     OW48950  14.062  13.861   9.544
49059SOL    HW148951  14.043  13.867   9.450
49059SOL    HW248952  13.997  13.917   9.586
49060SOL     OW48953  14.738   4.605   3.179
49060SOL    HW148954  14.653   4.632   3.212
49060SOL    HW248955  14.727   4.602   3.084
49061SOL     OW48956   4.603   5.061   9.556
49061SOL    HW148957   4.551   5.070   9.476
49061SOL    HW248958   4.681   5.114   9.540
49062SOL     OW48959   7.684   1.276   7.843
49062SOL    HW148960   7.778   1.294   7.840
49062SOL    HW248961   7.646   1.342   7.785
49063SOL     OW48962   5.818  11.607   5.925
49063SOL    HW148963   5.878  11.579   5.856
49063SOL    HW248964   5.771  11.682   5.886
49064SOL     OW48965   3.249   6.388   6.821
49064SOL    HW148966   3.167   6.433   6.802
49064SOL    HW248967   3.294   6.385   6.736
49065SOL     OW48968  14.542  12.231   4.608
49065SOL    HW148969  14.521  12.166   4.675
49065SOL    HW248970  14.468  12.292   4.609
49066SOL     OW48971  11.307   4.093   8.170
49066SOL    HW148972  11.295   4.185   8.148
49066SOL    HW248973  11.226   4.051   8.143
49067SOL     OW48974   2.392   1.713   5.661
49067SOL    HW148975   2.338   1.717   5.740
49067SOL    HW248976   2.339   1.754   5.593
49068SOL     OW48977  11.231  12.675  10.763
49068SOL    HW148978  11.193  12.621  10.832
49068SOL    HW248979  11.161  12.685  10.698
49069SOL     OW48980   8.952  10.505   7.654
49069SOL    HW148981   8.867  10.462   7.664
49069SOL    HW248982   9.013  10.449   7.702
49070SOL     OW48983   4.980  10.892   5.604
49070SOL    HW148984   5.021  10.824   5.550
49070SOL    HW248985   4.923  10.844   5.664
49071SOL     OW48986   3.834   1.915  14.783
49071SOL    HW148987   3.822   1.824  14.757
49071SOL    HW248988   3.867   1.959  14.704
49072SOL     OW48989  11.141  14.336   0.735
49072SOL    HW148990  11.232  14.352   0.760
49072SOL    HW248991  11.124  14.245   0.761
49073SOL     OW48992   1.925   4.934  10.282
49073SOL    HW148993   1.849   4.913  10.228
49073SOL    HW248994   1.959   4.850  10.311
49074SOL     OW48995  11.361   2.304   6.139
49074SOL    HW148996  11.323   2.217   6.129
49074SOL    HW248997  11.412   2.299   6.220
49075SOL     OW48998   5.324  13.854   1.604
49075SOL    HW148999   5.263  13.903   1.549
49075SOL    HW249000   5.328  13.767   1.564
49076SOL     OW49001   8.714  10.484   2.748
49076SOL    HW149002   8.782  10.519   2.805
49076SOL    HW249003   8.722  10.389   2.757
49077SOL     OW49004  11.228   9.339  14.339
49077SOL    HW149005  11.154   9.305  14.289
49077SOL    HW249006  11.222   9.297  14.424
49078SOL     OW49007  10.157   3.960   5.660
49078SOL    HW149008  10.175   3.906   5.583
49078SOL    HW249009  10.104   3.903   5.716
49079SOL     OW49010   5.404  13.448  10.360
49079SOL    HW149011   5.443  13.414  10.280
49079SOL    HW249012   5.415  13.543  10.353
49080SOL     OW49013   1.026   3.714  13.499
49080SOL    HW149014   1.036   3.640  13.439
49080SOL    HW249015   1.062   3.684  13.582
49081SOL     OW49016  14.191   4.662   0.021
49081SOL    HW149017  14.132   4.631   0.090
49081SOL    HW249018  14.214   4.751   0.047
49082SOL     OW49019  13.743   4.306  11.643
49082SOL    HW149020  13.700   4.256  11.574
49082SOL    HW249021  13.717   4.397  11.626
49083SOL     OW49022  14.570   4.427   8.933
49083SOL    HW149023  14.653   4.473   8.921
49083SOL    HW249024  14.507   4.476   8.879
49084SOL     OW49025   8.128   8.164  10.850
49084SOL    HW149026   8.065   8.106  10.892
49084SOL    HW249027   8.113   8.249  10.890
49085SOL     OW49028   0.785  12.699   5.883
49085SOL    HW149029   0.755  12.787   5.906
49085SOL    HW249030   0.811  12.705   5.792
49086SOL     OW49031   6.038   7.617   1.661
49086SOL    HW149032   6.047   7.577   1.574
49086SOL    HW249033   5.996   7.701   1.644
49087SOL     OW49034   6.140   5.661  13.193
49087SOL    HW149035   6.220   5.609  13.202
49087SOL    HW249036   6.163   5.731  13.132
49088SOL     OW49037   4.722   2.156   9.736
49088SOL    HW149038   4.752   2.129   9.649
49088SOL    HW249039   4.768   2.239   9.752
49089SOL     OW49040   4.101  13.048  10.187
49089SOL    HW149041   4.084  13.100  10.265
49089SOL    HW249042   4.029  13.069  10.127
49090SOL     OW49043  11.417   0.315   0.366
49090SOL    HW149044  11.463   0.296   0.284
49090SOL    HW249045  11.487   0.329   0.430
49091SOL     OW49046  14.791   9.932   3.574
49091SOL    HW149047  14.864   9.933   3.512
49091SOL    HW249048  14.829   9.901   3.656
49092SOL     OW49049  10.006   8.817  10.848
49092SOL    HW149050  10.093   8.779  10.853
49092SOL    HW249051   9.990   8.829  10.754
49093SOL     OW49052   6.670   5.686  11.024
49093SOL    HW149053   6.603   5.747  11.055
49093SOL    HW249054   6.644   5.601  11.060
49094SOL     OW49055   2.588  14.008   0.815
49094SOL    HW149056   2.526  14.034   0.747
49094SOL    HW249057   2.554  13.924   0.847
49095SOL     OW49058   5.603   7.074   6.635
49095SOL    HW149059   5.602   7.153   6.689
49095SOL    HW249060   5.673   7.089   6.572
49096SOL     OW49061   5.619   8.774   3.656
49096SOL    HW149062   5.594   8.862   3.629
49096SOL    HW249063   5.536   8.726   3.663
49097SOL     OW49064   7.162   0.697  12.754
49097SOL    HW149065   7.257   0.694  12.746
49097SOL    HW249066   7.142   0.647  12.833
49098SOL     OW49067  13.104   9.079   2.119
49098SOL    HW149068  13.148   9.132   2.185
49098SOL    HW249069  13.015   9.114   2.115
49099SOL     OW49070   3.673  13.349   3.799
49099SOL    HW149071   3.715  13.315   3.878
49099SOL    HW249072   3.579  13.334   3.813
49100SOL     OW49073   3.823  11.497   8.550
49100SOL    HW149074   3.833  11.404   8.573
49100SOL    HW249075   3.892  11.513   8.486
49101SOL     OW49076   6.778   2.731   0.611
49101SOL    HW149077   6.684   2.741   0.596
49101SOL    HW249078   6.816   2.813   0.582
49102SOL     OW49079   6.840   1.651  10.416
49102SOL    HW149080   6.861   1.611  10.332
49102SOL    HW249081   6.797   1.582  10.466
49103SOL     OW49082   7.707   3.338   4.765
49103SOL    HW149083   7.765   3.336   4.841
49103SOL    HW249084   7.719   3.253   4.723
49104SOL     OW49085   5.688   1.374   3.235
49104SOL    HW149086   5.622   1.347   3.299
49104SOL    HW249087   5.663   1.330   3.154
49105SOL     OW49088   7.054   5.723   1.853
49105SOL    HW149089   7.139   5.722   1.810
49105SOL    HW249090   7.060   5.655   1.920
49106SOL     OW49091   5.038   7.522   4.098
49106SOL    HW149092   4.970   7.513   4.031
49106SOL    HW249093   5.010   7.598   4.149
49107SOL     OW49094   7.614  13.164  13.579
49107SOL    HW149095   7.611  13.127  13.491
49107SOL    HW249096   7.707  13.160  13.603
49108SOL     OW49097  11.680   5.404   1.068
49108SOL    HW149098  11.711   5.411   0.977
49108SOL    HW249099  11.747   5.448   1.120
49109SOL     OW49100   9.653  10.897   3.539
49109SOL    HW149101   9.606  10.869   3.618
49109SOL    HW249102   9.740  10.921   3.570
49110SOL     OW49103   1.694   8.083  13.550
49110SOL    HW149104   1.785   8.111  13.550
49110SOL    HW249105   1.650   8.141  13.612
49111SOL     OW49106  13.968  13.566  13.622
49111SOL    HW149107  14.051  13.611  13.606
49111SOL    HW249108  13.924  13.619  13.689
49112SOL     OW49109  12.574   1.149   3.967
49112SOL    HW149110  12.545   1.238   3.990
49112SOL    HW249111  12.668   1.150   3.979
49113SOL     OW49112   6.457   5.219   9.146
49113SOL    HW149113   6.500   5.302   9.125
49113SOL    HW249114   6.398   5.203   9.072
49114SOL     OW49115  10.979   4.970   0.451
49114SOL    HW149116  10.953   5.061   0.459
49114SOL    HW249117  10.911   4.930   0.397
49115SOL     OW49118   8.439   9.458   4.911
49115SOL    HW149119   8.392   9.382   4.946
49115SOL    HW249120   8.410   9.532   4.965
49116SOL     OW49121   9.603   1.946  13.450
49116SOL    HW149122   9.683   1.991  13.425
49116SOL    HW249123   9.557   2.007  13.507
49117SOL     OW49124   3.405   1.717  12.685
49117SOL    HW149125   3.442   1.643  12.638
49117SOL    HW249126   3.312   1.715  12.664
49118SOL     OW49127   5.423   1.671  13.226
49118SOL    HW149128   5.353   1.735  13.212
49118SOL    HW249129   5.443   1.637  13.139
49119SOL     OW49130   1.798   9.518   0.611
49119SOL    HW149131   1.744   9.580   0.561
49119SOL    HW249132   1.775   9.432   0.575
49120SOL     OW49133  13.958   7.365  12.146
49120SOL    HW149134  13.990   7.441  12.097
49120SOL    HW249135  13.914   7.311  12.080
49121SOL     OW49136   3.341   3.633   5.195
49121SOL    HW149137   3.267   3.693   5.188
49121SOL    HW249138   3.308   3.558   5.245
49122SOL     OW49139   5.255  14.409  13.464
49122SOL    HW149140   5.285  14.499  13.451
49122SOL    HW249141   5.191  14.393  13.394
49123SOL     OW49142   3.185  11.954   4.893
49123SOL    HW149143   3.175  11.960   4.988
49123SOL    HW249144   3.095  11.957   4.859
49124SOL     OW49145   6.243   5.874   1.827
49124SOL    HW149146   6.208   5.937   1.890
49124SOL    HW249147   6.235   5.918   1.742
49125SOL     OW49148  14.273   1.857  11.254
49125SOL    HW149149  14.303   1.919  11.187
49125SOL    HW249150  14.330   1.781  11.244
49126SOL     OW49151   5.901   7.575  13.294
49126SOL    HW149152   5.846   7.577  13.372
49126SOL    HW249153   5.840   7.585  13.221
49127SOL     OW49154   2.675  10.028   2.347
49127SOL    HW149155   2.708  10.099   2.293
49127SOL    HW249156   2.580  10.041   2.349
49128SOL     OW49157  14.323  12.316  11.575
49128SOL    HW149158  14.374  12.284  11.650
49128SOL    HW249159  14.388  12.358  11.518
49129SOL     OW49160  12.338  12.789   7.866
49129SOL    HW149161  12.351  12.696   7.846
49129SOL    HW249162  12.254  12.792   7.913
49130SOL     OW49163   5.391   4.342   9.329
49130SOL    HW149164   5.458   4.326   9.396
49130SOL    HW249165   5.308   4.319   9.372
49131SOL     OW49166   8.385   2.309  10.559
49131SOL    HW149167   8.318   2.275  10.500
49131SOL    HW249168   8.425   2.231  10.598
49132SOL     OW49169  12.057   8.362   3.327
49132SOL    HW149170  12.031   8.291   3.269
49132SOL    HW249171  12.151   8.370   3.313
49133SOL     OW49172  11.818   2.620  11.310
49133SOL    HW149173  11.861   2.549  11.357
49133SOL    HW249174  11.731   2.626  11.350
49134SOL     OW49175  10.946   7.790   7.063
49134SOL    HW149176  10.950   7.736   7.142
49134SOL    HW249177  10.940   7.727   6.991
49135SOL     OW49178  10.281   0.176   7.428
49135SOL    HW149179  10.365   0.190   7.472
49135SOL    HW249180  10.220   0.156   7.499
49136SOL     OW49181   0.146  12.072   0.989
49136SOL    HW149182   0.217  12.057   1.051
49136SOL    HW249183   0.096  12.145   1.027
49137SOL     OW49184   5.736   5.254   8.964
49137SOL    HW149185   5.724   5.337   9.010
49137SOL    HW249186   5.683   5.191   9.012
49138SOL     OW49187   5.008   0.546   4.499
49138SOL    HW149188   5.025   0.602   4.575
49138SOL    HW249189   4.918   0.568   4.473
49139SOL     OW49190   8.694   1.516  11.134
49139SOL    HW149191   8.718   1.432  11.096
49139SOL    HW249192   8.685   1.575  11.059
49140SOL     OW49193  13.524   8.746   6.417
49140SOL    HW149194  13.564   8.811   6.358
49140SOL    HW249195  13.519   8.790   6.502
49141SOL     OW49196   2.945   4.307   1.011
49141SOL    HW149197   2.899   4.387   1.037
49141SOL    HW249198   3.038   4.331   1.012
49142SOL     OW49199  12.804   1.277   2.518
49142SOL    HW149200  12.811   1.267   2.613
49142SOL    HW249201  12.727   1.333   2.506
49143SOL     OW49202   7.965   4.457   7.966
49143SOL    HW149203   7.926   4.536   7.928
49143SOL    HW249204   7.911   4.385   7.933
49144SOL     OW49205   5.583  14.834   2.454
49144SOL    HW149206   5.643  14.861   2.523
49144SOL    HW249207   5.503  14.807   2.500
49145SOL     OW49208   1.525   0.635   0.132
49145SOL    HW149209   1.463   0.581   0.083
49145SOL    HW249210   1.496   0.626   0.223
49146SOL     OW49211   4.213  13.658  14.731
49146SOL    HW149212   4.203  13.739  14.782
49146SOL    HW249213   4.307  13.639  14.735
49147SOL     OW49214   5.929   7.083   0.528
49147SOL    HW149215   5.880   7.166   0.529
49147SOL    HW249216   5.901   7.040   0.447
49148SOL     OW49217  11.941   7.752   7.543
49148SOL    HW149218  11.904   7.815   7.481
49148SOL    HW249219  12.001   7.804   7.596
49149SOL     OW49220  13.800   2.386   6.088
49149SOL    HW149221  13.839   2.458   6.137
49149SOL    HW249222  13.719   2.366   6.135
49150SOL     OW49223  12.304  13.804  10.367
49150SOL    HW149224  12.308  13.895  10.339
49150SOL    HW249225  12.321  13.753  10.288
49151SOL     OW49226  10.263   5.686  14.318
49151SOL    HW149227  10.211   5.628  14.261
49151SOL    HW249228  10.344   5.700  14.269
49152SOL     OW49229   9.903   5.464   3.849
49152SOL    HW149230   9.816   5.471   3.886
49152SOL    HW249231   9.942   5.551   3.863
49153SOL     OW49232   7.266   1.090   3.534
49153SOL    HW149233   7.323   1.035   3.481
49153SOL    HW249234   7.202   1.030   3.573
49154SOL     OW49235   6.331   3.388   8.768
49154SOL    HW149236   6.385   3.467   8.768
49154SOL    HW249237   6.296   3.382   8.857
49155SOL     OW49238  14.377   9.039   3.871
49155SOL    HW149239  14.413   8.992   3.946
49155SOL    HW249240  14.365   9.129   3.903
49156SOL     OW49241   6.089   7.142   2.917
49156SOL    HW149242   6.127   7.225   2.946
49156SOL    HW249243   5.995   7.156   2.918
49157SOL     OW49244   7.829  14.835   4.933
49157SOL    HW149245   7.737  14.861   4.926
49157SOL    HW249246   7.878   0.040   4.925
49158SOL     OW49247  11.595   5.505  12.691
49158SOL    HW149248  11.613   5.535  12.601
49158SOL    HW249249  11.664   5.545  12.743
49159SOL     OW49250  12.249   6.399  14.601
49159SOL    HW149251  12.159   6.372  14.619
49159SOL    HW249252  12.274   6.451  14.677
49160SOL     OW49253  11.024   6.808  12.227
49160SOL    HW149254  11.096   6.861  12.193
49160SOL    HW249255  11.056   6.718  12.221
49161SOL     OW49256   8.735   3.057  10.958
49161SOL    HW149257   8.754   3.148  10.979
49161SOL    HW249258   8.747   3.051  10.864
49162SOL     OW49259  12.970   5.213   4.086
49162SOL    HW149260  12.974   5.303   4.054
49162SOL    HW249261  12.892   5.177   4.044
49163SOL     OW49262   4.608   9.009  14.834
49163SOL    HW149263   4.574   9.047  14.753
49163SOL    HW249264   4.644   9.084   0.005
49164SOL     OW49265  11.189  12.931   0.789
49164SOL    HW149266  11.237  12.977   0.721
49164SOL    HW249267  11.113  12.894   0.744
49165SOL     OW49268   2.057  13.756   0.070
49165SOL    HW149269   1.961  13.753   0.065
49165SOL    HW249270   2.083  13.664   0.072
49166SOL     OW49271  13.484  12.598   6.936
49166SOL    HW149272  13.466  12.565   7.024
49166SOL    HW249273  13.398  12.604   6.895
49167SOL     OW49274  12.044   1.532  12.848
49167SOL    HW149275  11.969   1.580  12.883
49167SOL    HW249276  12.100   1.516  12.924
49168SOL     OW49277   6.455   0.538  11.702
49168SOL    HW149278   6.370   0.504  11.731
49168SOL    HW249279   6.434   0.595  11.628
49169SOL     OW49280  14.186   2.693   0.954
49169SOL    HW149281  14.281   2.707   0.959
49169SOL    HW249282  14.158   2.747   0.880
49170SOL     OW49283   0.970   3.336   3.653
49170SOL    HW149284   0.911   3.363   3.582
49170SOL    HW249285   0.967   3.410   3.714
49171SOL     OW49286  10.758   1.742   1.585
49171SOL    HW149287  10.715   1.771   1.666
49171SOL    HW249288  10.844   1.711   1.613
49172SOL     OW49289   6.468   3.236   0.510
49172SOL    HW149290   6.477   3.317   0.560
49172SOL    HW249291   6.555   3.196   0.512
49173SOL     OW49292   6.032   2.549   6.582
49173SOL    HW149293   6.068   2.576   6.666
49173SOL    HW249294   6.064   2.459   6.570
49174SOL     OW49295  11.254   9.066   8.126
49174SOL    HW149296  11.175   9.120   8.131
49174SOL    HW249297  11.223   8.977   8.143
49175SOL     OW49298  13.976   3.435  11.629
49175SOL    HW149299  13.885   3.412  11.611
49175SOL    HW249300  13.976   3.463  11.721
49176SOL     OW49301   5.050   2.008   2.643
49176SOL    HW149302   4.973   2.065   2.647
49176SOL    HW249303   5.014   1.921   2.621
49177SOL     OW49304   2.629   6.316  14.414
49177SOL    HW149305   2.575   6.281  14.344
49177SOL    HW249306   2.588   6.284  14.494
49178SOL     OW49307   5.604  14.114  12.918
49178SOL    HW149308   5.669  14.115  12.847
49178SOL    HW249309   5.656  14.100  12.997
49179SOL     OW49310  14.078   4.907  11.464
49179SOL    HW149311  14.087   4.819  11.428
49179SOL    HW249312  14.023   4.953  11.402
49180SOL     OW49313   5.792   6.431   9.458
49180SOL    HW149314   5.821   6.341   9.439
49180SOL    HW249315   5.829   6.484   9.388
49181SOL     OW49316  12.976   7.122   9.751
49181SOL    HW149317  12.965   7.188   9.682
49181SOL    HW249318  13.006   7.171   9.827
49182SOL     OW49319   5.996   1.934   7.363
49182SOL    HW149320   5.912   1.888   7.352
49182SOL    HW249321   6.051   1.871   7.409
49183SOL     OW49322  10.086  13.930   7.278
49183SOL    HW149323  10.030  14.002   7.251
49183SOL    HW249324  10.044  13.896   7.358
49184SOL     OW49325  13.902   1.756  13.703
49184SOL    HW149326  13.888   1.759  13.798
49184SOL    HW249327  13.931   1.844  13.680
49185SOL     OW49328   2.558  13.365   5.988
49185SOL    HW149329   2.570  13.310   5.911
49185SOL    HW249330   2.645  13.369   6.028
49186SOL     OW49331  13.514   3.240   9.527
49186SOL    HW149332  13.532   3.333   9.539
49186SOL    HW249333  13.519   3.226   9.433
49187SOL     OW49334  13.557   9.719   6.711
49187SOL    HW149335  13.476   9.760   6.681
49187SOL    HW249336  13.596   9.682   6.631
49188SOL     OW49337   4.888  10.512  14.441
49188SOL    HW149338   4.893  10.502  14.536
49188SOL    HW249339   4.858  10.427  14.409
49189SOL     OW49340   2.208  12.156  11.958
49189SOL    HW149341   2.205  12.126  12.048
49189SOL    HW249342   2.174  12.083  11.907
49190SOL     OW49343   0.511   6.366   0.969
49190SOL    HW149344   0.434   6.309   0.966
49190SOL    HW249345   0.475   6.454   0.970
49191SOL     OW49346  14.489   8.406   8.191
49191SOL    HW149347  14.459   8.394   8.101
49191SOL    HW249348  14.493   8.501   8.203
49192SOL     OW49349   3.680   4.803   4.657
49192SOL    HW149350   3.689   4.766   4.745
49192SOL    HW249351   3.588   4.827   4.651
49193SOL     OW49352   7.489  14.457   0.399
49193SOL    HW149353   7.400  14.463   0.432
49193SOL    HW249354   7.499  14.365   0.373
49194SOL     OW49355  13.037   4.545   7.311
49194SOL    HW149356  12.989   4.599   7.374
49194SOL    HW249357  13.015   4.455   7.335
49195SOL     OW49358  11.950   9.121   8.389
49195SOL    HW149359  12.027   9.072   8.418
49195SOL    HW249360  11.985   9.202   8.354
49196SOL     OW49361   4.552   2.925  11.564
49196SOL    HW149362   4.511   2.840  11.574
49196SOL    HW249363   4.591   2.943  11.650
49197SOL     OW49364   4.681   7.210  14.207
49197SOL    HW149365   4.736   7.249  14.275
49197SOL    HW249366   4.742   7.190  14.135
49198SOL     OW49367   2.275  10.412   5.240
49198SOL    HW149368   2.357  10.365   5.226
49198SOL    HW249369   2.244  10.434   5.153
49199SOL     OW49370   8.565   7.566  11.386
49199SOL    HW149371   8.620   7.506  11.435
49199SOL    HW249372   8.623   7.641  11.368
49200SOL     OW49373  12.246   7.249   5.191
49200SOL    HW149374  12.260   7.230   5.098
49200SOL    HW249375  12.154   7.275   5.196
49201SOL     OW49376   9.492   9.074   0.330
49201SOL    HW149377   9.508   9.027   0.412
49201SOL    HW249378   9.518   9.014   0.261
49202SOL     OW49379  14.165   6.608   7.560
49202SOL    HW149380  14.180   6.690   7.514
49202SOL    HW249381  14.091   6.625   7.618
49203SOL     OW49382   7.815  14.063   7.972
49203SOL    HW149383   7.877  14.048   8.042
49203SOL    HW249384   7.850  14.013   7.898
49204SOL     OW49385   4.950   0.557   7.932
49204SOL    HW149386   5.002   0.488   7.890
49204SOL    HW249387   4.967   0.635   7.880
49205SOL     OW49388   2.299   4.689   7.674
49205SOL    HW149389   2.207   4.672   7.690
49205SOL    HW249390   2.326   4.621   7.612
49206SOL     OW49391   0.890  10.046  14.835
49206SOL    HW149392   0.922  10.027  14.747
49206SOL    HW249393   0.931   9.980   0.013
49207SOL     OW49394   0.790  13.598   8.630
49207SOL    HW149395   0.745  13.541   8.568
49207SOL    HW249396   0.773  13.559   8.716
49208SOL     OW49397  11.927  13.170  13.730
49208SOL    HW149398  11.995  13.137  13.790
49208SOL    HW249399  11.974  13.189  13.649
49209SOL     OW49400  13.970  10.219  12.407
49209SOL    HW149401  13.980  10.299  12.459
49209SOL    HW249402  14.036  10.226  12.339
49210SOL     OW49403   3.047   5.169  11.049
49210SOL    HW149404   3.050   5.195  11.141
49210SOL    HW249405   2.955   5.173  11.025
49211SOL     OW49406  14.519   1.183   9.088
49211SOL    HW149407  14.492   1.272   9.066
49211SOL    HW249408  14.441   1.142   9.126
49212SOL     OW49409   6.025   9.055   6.115
49212SOL    HW149410   6.098   9.116   6.110
49212SOL    HW249411   6.064   8.969   6.107
49213SOL     OW49412  11.562   2.084  10.742
49213SOL    HW149413  11.623   2.158  10.737
49213SOL    HW249414  11.547   2.059  10.651
49214SOL     OW49415   7.849   1.078  12.978
49214SOL    HW149416   7.863   0.996  13.025
49214SOL    HW249417   7.873   1.146  13.041
49215SOL     OW49418   5.272  12.432   7.360
49215SOL    HW149419   5.326  12.401   7.432
49215SOL    HW249420   5.250  12.353   7.310
49216SOL     OW49421  12.306   4.147   7.769
49216SOL    HW149422  12.214   4.123   7.780
49216SOL    HW249423  12.332   4.181   7.855
49217SOL     OW49424  11.788  12.122   2.049
49217SOL    HW149425  11.833  12.120   1.965
49217SOL    HW249426  11.695  12.127   2.027
49218SOL     OW49427  13.355   3.743   7.391
49218SOL    HW149428  13.270   3.763   7.351
49218SOL    HW249429  13.333   3.711   7.479
49219SOL     OW49430  14.749   8.078   7.203
49219SOL    HW149431  14.794   8.144   7.256
49219SOL    HW249432  14.777   7.994   7.240
49220SOL     OW49433  14.300   3.756   5.262
49220SOL    HW149434  14.285   3.850   5.278
49220SOL    HW249435  14.378   3.736   5.313
49221SOL     OW49436  14.270   0.191  13.389
49221SOL    HW149437  14.209   0.123  13.416
49221SOL    HW249438  14.350   0.174  13.440
49222SOL     OW49439  14.667   1.056  11.492
49222SOL    HW149440  14.657   1.041  11.586
49222SOL    HW249441  14.617   1.136  11.475
49223SOL     OW49442   1.912   6.543   2.538
49223SOL    HW149443   1.967   6.619   2.557
49223SOL    HW249444   1.827   6.565   2.577
49224SOL     OW49445   1.557   5.789   3.649
49224SOL    HW149446   1.559   5.694   3.642
49224SOL    HW249447   1.543   5.819   3.559
49225SOL     OW49448   9.047   3.173  14.410
49225SOL    HW149449   9.019   3.098  14.463
49225SOL    HW249450   9.004   3.248  14.452
49226SOL     OW49451  12.519   5.961   9.124
49226SOL    HW149452  12.497   5.910   9.047
49226SOL    HW249453  12.609   5.937   9.145
49227SOL     OW49454  11.912   7.355   5.856
49227SOL    HW149455  11.862   7.362   5.775
49227SOL    HW249456  11.990   7.408   5.841
49228SOL     OW49457   1.729   3.053  10.367
49228SOL    HW149458   1.792   3.026  10.433
49228SOL    HW249459   1.741   3.148  10.360
49229SOL     OW49460   2.712   9.497   0.966
49229SOL    HW149461   2.688   9.442   0.892
49229SOL    HW249462   2.641   9.483   1.029
49230SOL     OW49463  13.103   9.159   7.639
49230SOL    HW149464  13.116   9.218   7.565
49230SOL    HW249465  13.186   9.112   7.647
49231SOL     OW49466   6.300   1.560  11.315
49231SOL    HW149467   6.378   1.515  11.283
49231SOL    HW249468   6.316   1.573  11.408
49232SOL     OW49469   5.457   7.065  11.640
49232SOL    HW149470   5.462   7.124  11.564
49232SOL    HW249471   5.491   6.982  11.608
49233SOL     OW49472   1.860  10.694   2.432
49233SOL    HW149473   1.948  10.732   2.425
49233SOL    HW249474   1.874  10.600   2.419
49234SOL     OW49475   4.200   0.276   1.965
49234SOL    HW149476   4.186   0.346   2.029
49234SOL    HW249477   4.132   0.290   1.899
49235SOL     OW49478   0.675  14.160   0.168
49235SOL    HW149479   0.740  14.227   0.189
49235SOL    HW249480   0.725  14.093   0.121
49236SOL     OW49481   0.266   5.307   1.181
49236SOL    HW149482   0.208   5.334   1.252
49236SOL    HW249483   0.330   5.249   1.222
49237SOL     OW49484  11.975   1.637   8.247
49237SOL    HW149485  12.024   1.711   8.211
49237SOL    HW249486  11.900   1.627   8.189
49238SOL     OW49487  10.387   2.863   4.275
49238SOL    HW149488  10.362   2.814   4.353
49238SOL    HW249489  10.452   2.926   4.307
49239SOL     OW49490   7.878   8.167   7.560
49239SOL    HW149491   7.838   8.248   7.528
49239SOL    HW249492   7.871   8.172   7.655
49240SOL     OW49493   3.694   7.494   0.858
49240SOL    HW149494   3.735   7.410   0.841
49240SOL    HW249495   3.724   7.519   0.946
49241SOL     OW49496   4.826   0.093   4.992
49241SOL    HW149497   4.826   0.005   5.030
49241SOL    HW249498   4.780   0.083   4.908
49242SOL     OW49499   7.739  12.623   2.988
49242SOL    HW149500   7.712  12.709   2.957
49242SOL    HW249501   7.673  12.563   2.953
49243SOL     OW49502   2.107  10.111  11.602
49243SOL    HW149503   2.201  10.130  11.595
49243SOL    HW249504   2.066  10.174  11.542
49244SOL     OW49505   4.338  12.029   4.956
49244SOL    HW149506   4.243  12.016   4.958
49244SOL    HW249507   4.374  11.945   4.983
49245SOL     OW49508   2.766   3.017   9.281
49245SOL    HW149509   2.690   2.967   9.310
49245SOL    HW249510   2.750   3.033   9.188
49246SOL     OW49511   5.393   5.277   4.578
49246SOL    HW149512   5.431   5.308   4.661
49246SOL    HW249513   5.438   5.327   4.511
49247SOL     OW49514   7.653   6.696   3.089
49247SOL    HW149515   7.682   6.639   3.160
49247SOL    HW249516   7.576   6.653   3.053
49248SOL     OW49517   0.252   4.919   4.661
49248SOL    HW149518   0.172   4.960   4.630
49248SOL    HW249519   0.228   4.827   4.675
49249SOL     OW49520   1.966   3.916  13.329
49249SOL    HW149521   1.999   4.000  13.360
49249SOL    HW249522   2.045   3.867  13.306
49250SOL     OW49523  12.725   2.582   0.656
49250SOL    HW149524  12.685   2.630   0.584
49250SOL    HW249525  12.777   2.648   0.703
49251SOL     OW49526  13.888   6.353  10.399
49251SOL    HW149527  13.805   6.306  10.408
49251SOL    HW249528  13.929   6.313  10.322
49252SOL     OW49529   5.678   3.695   0.826
49252SOL    HW149530   5.731   3.615   0.830
49252SOL    HW249531   5.611   3.683   0.893
49253SOL     OW49532  11.096   1.758   5.634
49253SOL    HW149533  11.103   1.822   5.563
49253SOL    HW249534  11.143   1.798   5.707
49254SOL     OW49535   6.824   4.888  14.851
49254SOL    HW149536   6.763   4.842  14.793
49254SOL    HW249537   6.863   4.820   0.028
49255SOL     OW49538   2.310   9.732   1.853
49255SOL    HW149539   2.352   9.706   1.771
49255SOL    HW249540   2.382   9.763   1.908
49256SOL     OW49541   3.364   8.532   5.652
49256SOL    HW149542   3.300   8.550   5.721
49256SOL    HW249543   3.446   8.566   5.687
49257SOL     OW49544   5.595  14.703   8.829
49257SOL    HW149545   5.548  14.622   8.848
49257SOL    HW249546   5.601  14.748   8.913
49258SOL     OW49547   8.174   1.761  13.513
49258SOL    HW149548   8.264   1.730  13.503
49258SOL    HW249549   8.139   1.712  13.587
49259SOL     OW49550   5.630  11.711  14.428
49259SOL    HW149551   5.551  11.688  14.379
49259SOL    HW249552   5.669  11.782  14.377
49260SOL     OW49553   6.457   5.521   8.379
49260SOL    HW149554   6.539   5.524   8.329
49260SOL    HW249555   6.395   5.572   8.327
49261SOL     OW49556   5.151   9.669  13.446
49261SOL    HW149557   5.077   9.653  13.388
49261SOL    HW249558   5.165   9.586  13.491
49262SOL     OW49559   8.455  11.831   4.456
49262SOL    HW149560   8.498  11.915   4.442
49262SOL    HW249561   8.491  11.799   4.539
49263SOL     OW49562   0.585   8.831   1.414
49263SOL    HW149563   0.611   8.752   1.367
49263SOL    HW249564   0.652   8.895   1.392
49264SOL     OW49565   5.063   2.976  13.606
49264SOL    HW149566   5.147   2.954  13.647
49264SOL    HW249567   5.030   2.892  13.574
49265SOL     OW49568  13.654   7.445   3.935
49265SOL    HW149569  13.692   7.403   3.858
49265SOL    HW249570  13.623   7.373   3.990
49266SOL     OW49571  13.748   6.548   5.717
49266SOL    HW149572  13.691   6.476   5.691
49266SOL    HW249573  13.718   6.622   5.665
49267SOL     OW49574   3.789  12.551   5.291
49267SOL    HW149575   3.769  12.487   5.359
49267SOL    HW249576   3.831  12.624   5.337
49268SOL     OW49577  10.885   2.770   0.861
49268SOL    HW149578  10.925   2.777   0.774
49268SOL    HW249579  10.944   2.711   0.908
49269SOL     OW49580   6.799   0.153   5.426
49269SOL    HW149581   6.751   0.113   5.354
49269SOL    HW249582   6.857   0.085   5.459
49270SOL     OW49583   7.972  13.375  10.793
49270SOL    HW149584   7.998  13.442  10.730
49270SOL    HW249585   8.000  13.409  10.878
49271SOL     OW49586   5.049   6.804   8.267
49271SOL    HW149587   5.136   6.800   8.228
49271SOL    HW249588   4.989   6.792   8.194
49272SOL     OW49589   6.036   9.451   9.018
49272SOL    HW149590   5.961   9.419   8.968
49272SOL    HW249591   6.111   9.405   8.981
49273SOL     OW49592   1.354  10.439   0.770
49273SOL    HW149593   1.414  10.513   0.763
49273SOL    HW249594   1.398  10.368   0.722
49274SOL     OW49595   9.949   4.368   2.372
49274SOL    HW149596   9.958   4.304   2.303
49274SOL    HW249597  10.033   4.414   2.374
49275SOL     OW49598  10.972   0.412   9.115
49275SOL    HW149599  11.021   0.378   9.190
49275SOL    HW249600  10.919   0.338   9.086
49276SOL     OW49601   2.387  11.052   6.985
49276SOL    HW149602   2.367  11.080   7.074
49276SOL    HW249603   2.450  10.981   6.996
49277SOL     OW49604   2.597  14.591   2.449
49277SOL    HW149605   2.579  14.497   2.448
49277SOL    HW249606   2.521  14.631   2.408
49278SOL     OW49607   5.145  12.502  10.458
49278SOL    HW149608   5.224  12.555  10.459
49278SOL    HW249609   5.075  12.563  10.435
49279SOL     OW49610   8.029  12.617  12.769
49279SOL    HW149611   8.086  12.669  12.712
49279SOL    HW249612   7.971  12.681  12.810
49280SOL     OW49613   5.065   1.235  12.563
49280SOL    HW149614   4.974   1.208  12.551
49280SOL    HW249615   5.079   1.303  12.496
49281SOL     OW49616  11.369   5.954   4.282
49281SOL    HW149617  11.351   5.991   4.369
49281SOL    HW249618  11.463   5.937   4.282
49282SOL     OW49619   2.097  13.125  14.575
49282SOL    HW149620   2.114  13.043  14.529
49282SOL    HW249621   2.025  13.165  14.527
49283SOL     OW49622   5.517  11.132   8.655
49283SOL    HW149623   5.521  11.048   8.702
49283SOL    HW249624   5.536  11.197   8.723
49284SOL     OW49625  12.442  14.073   6.048
49284SOL    HW149626  12.400  14.158   6.032
49284SOL    HW249627  12.457  14.037   5.961
49285SOL     OW49628  14.521   7.176  11.577
49285SOL    HW149629  14.543   7.172  11.484
49285SOL    HW249630  14.445   7.234  11.581
49286SOL     OW49631   3.507  13.107   8.772
49286SOL    HW149632   3.487  13.126   8.681
49286SOL    HW249633   3.510  13.193   8.814
49287SOL     OW49634   6.263  11.027   0.967
49287SOL    HW149635   6.200  10.958   0.946
49287SOL    HW249636   6.348  10.991   0.942
49288SOL     OW49637  13.595  12.477   8.164
49288SOL    HW149638  13.520  12.434   8.124
49288SOL    HW249639  13.575  12.478   8.258
49289SOL     OW49640   3.391   8.197  10.842
49289SOL    HW149641   3.448   8.266  10.808
49289SOL    HW249642   3.414   8.189  10.934
49290SOL     OW49643  11.356   2.438   3.211
49290SOL    HW149644  11.284   2.375   3.215
49290SOL    HW249645  11.409   2.409   3.137
49291SOL     OW49646   8.331   1.684  13.053
49291SOL    HW149647   8.251   1.692  13.105
49291SOL    HW249648   8.384   1.759  13.079
49292SOL     OW49649  11.051  13.856   8.654
49292SOL    HW149650  11.054  13.939   8.701
49292SOL    HW249651  11.130  13.856   8.600
49293SOL     OW49652   3.555   8.905   0.848
49293SOL    HW149653   3.556   8.809   0.840
49293SOL    HW249654   3.489   8.933   0.785
49294SOL     OW49655   1.949  14.517   1.838
49294SOL    HW149656   1.890  14.443   1.848
49294SOL    HW249657   2.028  14.479   1.799
49295SOL     OW49658   6.311   8.084  13.693
49295SOL    HW149659   6.245   8.153  13.694
49295SOL    HW249660   6.264   8.005  13.719
49296SOL     OW49661   3.254   6.187   8.747
49296SOL    HW149662   3.323   6.214   8.807
49296SOL    HW249663   3.195   6.135   8.801
49297SOL     OW49664   0.698  14.284  12.766
49297SOL    HW149665   0.774  14.262  12.713
49297SOL    HW249666   0.645  14.204  12.767
49298SOL     OW49667   0.012  14.492   1.070
49298SOL    HW149668   0.063  14.573   1.077
49298SOL    HW249669   0.043  14.438   1.143
49299SOL     OW49670  14.402   9.012  13.295
49299SOL    HW149671  14.403   9.001  13.390
49299SOL    HW249672  14.468   9.079  13.278
49300SOL     OW49673   0.935   2.213  13.714
49300SOL    HW149674   0.879   2.146  13.752
49300SOL    HW249675   0.986   2.167  13.647
49301SOL     OW49676   1.113   7.370   5.005
49301SOL    HW149677   1.194   7.356   5.053
49301SOL    HW249678   1.122   7.456   4.965
49302SOL     OW49679  10.982   6.472  10.569
49302SOL    HW149680  11.003   6.416  10.494
49302SOL    HW249681  11.065   6.511  10.594
49303SOL     OW49682   8.974   2.555   5.474
49303SOL    HW149683   8.978   2.482   5.536
49303SOL    HW249684   8.882   2.558   5.446
49304SOL     OW49685  12.191  12.574   0.876
49304SOL    HW149686  12.198  12.488   0.834
49304SOL    HW249687  12.107  12.608   0.846
49305SOL     OW49688  12.668   6.700   3.403
49305SOL    HW149689  12.672   6.610   3.436
49305SOL    HW249690  12.695   6.692   3.311
49306SOL     OW49691  12.465  12.377   0.373
49306SOL    HW149692  12.491  12.442   0.437
49306SOL    HW249693  12.489  12.415   0.288
49307SOL     OW49694   1.044  11.194  13.250
49307SOL    HW149695   1.041  11.288  13.232
49307SOL    HW249696   0.964  11.159  13.209
49308SOL     OW49697   6.108  12.075   1.989
49308SOL    HW149698   6.022  12.110   2.012
49308SOL    HW249699   6.108  11.985   2.023
49309SOL     OW49700  13.653   9.906   1.644
49309SOL    HW149701  13.731   9.934   1.596
49309SOL    HW249702  13.684   9.838   1.703
49310SOL     OW49703   3.806   2.816  10.452
49310SOL    HW149704   3.848   2.746  10.403
49310SOL    HW249705   3.820   2.895  10.399
49311SOL     OW49706  14.584   1.923   4.689
49311SOL    HW149707  14.522   1.922   4.762
49311SOL    HW249708  14.640   1.847   4.704
49312SOL     OW49709   1.289  14.041  11.291
49312SOL    HW149710   1.261  13.961  11.335
49312SOL    HW249711   1.332  14.011  11.211
49313SOL     OW49712  13.274  14.483   9.658
49313SOL    HW149713  13.262  14.404   9.711
49313SOL    HW249714  13.186  14.521   9.651
49314SOL     OW49715   7.034   7.017   7.316
49314SOL    HW149716   7.027   7.074   7.393
49314SOL    HW249717   7.063   6.933   7.352
49315SOL     OW49718   8.889   9.484  10.723
49315SOL    HW149719   8.955   9.548  10.750
49315SOL    HW249720   8.887   9.420  10.795
49316SOL     OW49721   8.299   8.830   3.752
49316SOL    HW149722   8.360   8.854   3.822
49316SOL    HW249723   8.224   8.888   3.764
49317SOL     OW49724  14.738  12.429   4.584
49317SOL    HW149725  14.658  12.383   4.607
49317SOL    HW249726  14.730  12.446   4.490
49318SOL     OW49727  12.745  12.495   4.088
49318SOL    HW149728  12.703  12.527   4.009
49318SOL    HW249729  12.827  12.544   4.094
49319SOL     OW49730   1.723   3.198   7.758
49319SOL    HW149731   1.629   3.187   7.746
49319SOL    HW249732   1.754   3.230   7.674
49320SOL     OW49733   1.347   5.057   1.266
49320SOL    HW149734   1.277   5.092   1.321
49320SOL    HW249735   1.353   4.964   1.291
49321SOL     OW49736  12.895   5.011   1.753
49321SOL    HW149737  12.950   4.997   1.830
49321SOL    HW249738  12.912   4.935   1.698
49322SOL     OW49739   4.442  13.574  11.309
49322SOL    HW149740   4.513  13.511  11.320
49322SOL    HW249741   4.371  13.541  11.365
49323SOL     OW49742   1.225  10.801  14.758
49323SOL    HW149743   1.249  10.784  14.667
49323SOL    HW249744   1.306  10.786  14.807
49324SOL     OW49745   6.480  11.396   3.462
49324SOL    HW149746   6.394  11.368   3.494
49324SOL    HW249747   6.537  11.389   3.538
49325SOL     OW49748  11.235  10.564   1.609
49325SOL    HW149749  11.313  10.611   1.581
49325SOL    HW249750  11.266  10.505   1.678
49326SOL     OW49751  12.304  10.072  13.118
49326SOL    HW149752  12.245  10.125  13.172
49326SOL    HW249753  12.376  10.050  13.177
49327SOL     OW49754  12.151  14.169   6.269
49327SOL    HW149755  12.143  14.214   6.185
49327SOL    HW249756  12.062  14.163   6.302
49328SOL     OW49757   0.325   8.748  13.624
49328SOL    HW149758   0.252   8.778  13.569
49328SOL    HW249759   0.315   8.653  13.628
49329SOL     OW49760   9.011  12.170   2.351
49329SOL    HW149761   9.070  12.158   2.277
49329SOL    HW249762   8.931  12.206   2.312
49330SOL     OW49763   2.826  13.558   7.623
49330SOL    HW149764   2.842  13.640   7.671
49330SOL    HW249765   2.761  13.582   7.557
49331SOL     OW49766   1.190  12.044   8.889
49331SOL    HW149767   1.166  12.035   8.981
49331SOL    HW249768   1.173  11.958   8.851
49332SOL     OW49769   5.548   4.546   2.855
49332SOL    HW149770   5.550   4.458   2.817
49332SOL    HW249771   5.463   4.552   2.897
49333SOL     OW49772   6.171   9.540   5.925
49333SOL    HW149773   6.152   9.518   6.016
49333SOL    HW249774   6.204   9.459   5.887
49334SOL     OW49775   9.238   4.754   8.818
49334SOL    HW149776   9.205   4.780   8.732
49334SOL    HW249777   9.277   4.834   8.853
49335SOL     OW49778   7.440  10.240  10.563
49335SOL    HW149779   7.514  10.183  10.584
49335SOL    HW249780   7.437  10.242  10.468
49336SOL     OW49781   2.947   4.698  10.655
49336SOL    HW149782   2.884   4.765  10.682
49336SOL    HW249783   2.909   4.659  10.576
49337SOL     OW49784   5.989   3.542  11.326
49337SOL    HW149785   5.978   3.571  11.235
49337SOL    HW249786   6.011   3.622  11.373
49338SOL     OW49787   1.507  12.248  10.183
49338SOL    HW149788   1.457  12.304  10.124
49338SOL    HW249789   1.493  12.160  10.151
49339SOL     OW49790  12.168   7.351   6.308
49339SOL    HW149791  12.105   7.357   6.236
49339SOL    HW249792  12.131   7.407   6.377
49340SOL     OW49793  10.945   4.726   8.677
49340SOL    HW149794  10.953   4.707   8.584
49340SOL    HW249795  11.021   4.684   8.717
49341SOL     OW49796   6.824   9.504   1.898
49341SOL    HW149797   6.849   9.559   1.972
49341SOL    HW249798   6.823   9.565   1.823
49342SOL     OW49799   0.425   7.325  11.716
49342SOL    HW149800   0.342   7.280  11.730
49342SOL    HW249801   0.463   7.282  11.639
49343SOL     OW49802   1.040   1.299   3.808
49343SOL    HW149803   1.052   1.343   3.724
49343SOL    HW249804   1.128   1.291   3.844
49344SOL     OW49805  11.266  10.763  13.477
49344SOL    HW149806  11.179  10.735  13.505
49344SOL    HW249807  11.317  10.770  13.558
49345SOL     OW49808   8.547   3.417   9.989
49345SOL    HW149809   8.612   3.402   9.920
49345SOL    HW249810   8.568   3.352  10.056
49346SOL     OW49811  10.021   9.190  14.225
49346SOL    HW149812  10.017   9.161  14.134
49346SOL    HW249813  10.097   9.145  14.262
49347SOL     OW49814   5.925   4.771   3.951
49347SOL    HW149815   5.998   4.712   3.931
49347SOL    HW249816   5.851   4.713   3.967
49348SOL     OW49817  13.518  10.861  12.405
49348SOL    HW149818  13.560  10.843  12.488
49348SOL    HW249819  13.543  10.951  12.384
49349SOL     OW49820   5.669   6.701   4.981
49349SOL    HW149821   5.757   6.701   4.944
49349SOL    HW249822   5.612   6.725   4.908
49350SOL     OW49823   0.303  10.278   2.745
49350SOL    HW149824   0.376  10.218   2.729
49350SOL    HW249825   0.234  10.222   2.781
49351SOL     OW49826   9.645  12.440  10.462
49351SOL    HW149827   9.599  12.508  10.511
49351SOL    HW249828   9.735  12.473  10.455
49352SOL     OW49829   2.099   6.280   1.507
49352SOL    HW149830   2.107   6.352   1.445
49352SOL    HW249831   2.177   6.288   1.563
49353SOL     OW49832  13.695   7.881   7.547
49353SOL    HW149833  13.779   7.924   7.563
49353SOL    HW249834  13.696   7.803   7.604
49354SOL     OW49835   7.023  14.857  11.704
49354SOL    HW149836   7.095   0.004  11.645
49354SOL    HW249837   7.054  14.778  11.747
49355SOL     OW49838  10.187   2.833   3.010
49355SOL    HW149839  10.212   2.896   2.943
49355SOL    HW249840  10.216   2.748   2.975
49356SOL     OW49841   2.788   3.750  13.885
49356SOL    HW149842   2.764   3.667  13.926
49356SOL    HW249843   2.845   3.793  13.949
49357SOL     OW49844   2.902   9.528   9.536
49357SOL    HW149845   2.878   9.534   9.444
49357SOL    HW249846   2.921   9.435   9.550
49358SOL     OW49847   5.514   5.514   2.454
49358SOL    HW149848   5.462   5.527   2.533
49358SOL    HW249849   5.596   5.560   2.471
49359SOL     OW49850   2.298  13.568   6.322
49359SOL    HW149851   2.241  13.631   6.278
49359SOL    HW249852   2.264  13.483   6.296
49360SOL     OW49853   8.006   7.320   1.800
49360SOL    HW149854   8.017   7.410   1.831
49360SOL    HW249855   7.971   7.272   1.876
49361SOL     OW49856   8.700   3.423   8.887
49361SOL    HW149857   8.691   3.498   8.827
49361SOL    HW249858   8.791   3.395   8.876
49362SOL     OW49859  11.815   9.464   5.470
49362SOL    HW149860  11.842   9.398   5.406
49362SOL    HW249861  11.789   9.539   5.417
49363SOL     OW49862   6.141  10.703   7.788
49363SOL    HW149863   6.065  10.721   7.732
49363SOL    HW249864   6.212  10.684   7.727
49364SOL     OW49865   2.325   3.191  13.381
49364SOL    HW149866   2.394   3.165  13.442
49364SOL    HW249867   2.272   3.254  13.430
49365SOL     OW49868   3.998  10.729  12.443
49365SOL    HW149869   4.075  10.675  12.459
49365SOL    HW249870   4.032  10.819  12.443
49366SOL     OW49871  11.949  13.443   2.167
49366SOL    HW149872  12.015  13.451   2.235
49366SOL    HW249873  11.905  13.528   2.165
49367SOL     OW49874   8.629   1.487   8.797
49367SOL    HW149875   8.687   1.499   8.872
49367SOL    HW249876   8.595   1.574   8.778
49368SOL     OW49877   9.225  14.307   8.903
49368SOL    HW149878   9.220  14.402   8.894
49368SOL    HW249879   9.134  14.278   8.898
49369SOL     OW49880   2.209   6.480   8.662
49369SOL    HW149881   2.138   6.415   8.659
49369SOL    HW249882   2.259   6.464   8.582
49370SOL     OW49883   3.485  12.287   2.990
49370SOL    HW149884   3.409  12.250   3.037
49370SOL    HW249885   3.451  12.312   2.904
49371SOL     OW49886  13.296   9.482  14.161
49371SOL    HW149887  13.359   9.434  14.106
49371SOL    HW249888  13.281   9.423  14.235
49372SOL     OW49889   9.562  13.260  14.564
49372SOL    HW149890   9.612  13.179  14.577
49372SOL    HW249891   9.627  13.330  14.571
49373SOL     OW49892  12.444   4.646   8.875
49373SOL    HW149893  12.378   4.705   8.913
49373SOL    HW249894  12.412   4.630   8.786
49374SOL     OW49895   3.875   2.831   7.414
49374SOL    HW149896   3.862   2.917   7.374
49374SOL    HW249897   3.873   2.769   7.341
49375SOL     OW49898   1.450  11.488   6.361
49375SOL    HW149899   1.483  11.578   6.358
49375SOL    HW249900   1.387  11.483   6.288
49376SOL     OW49901  13.161   5.752   3.503
49376SOL    HW149902  13.201   5.666   3.515
49376SOL    HW249903  13.111   5.745   3.422
49377SOL     OW49904   8.674  13.578   9.792
49377SOL    HW149905   8.736  13.580   9.865
49377SOL    HW249906   8.722  13.615   9.719
49378SOL     OW49907  11.074   2.294   3.897
49378SOL    HW149908  11.076   2.388   3.914
49378SOL    HW249909  11.077   2.254   3.984
49379SOL     OW49910   9.225   5.210   5.241
49379SOL    HW149911   9.245   5.200   5.148
49379SOL    HW249912   9.182   5.128   5.266
49380SOL     OW49913   2.951   0.787   6.597
49380SOL    HW149914   2.889   0.757   6.663
49380SOL    HW249915   3.008   0.711   6.581
49381SOL     OW49916   3.190  11.683   3.477
49381SOL    HW149917   3.176  11.666   3.384
49381SOL    HW249918   3.173  11.599   3.519
49382SOL     OW49919   2.757   5.816  11.331
49382SOL    HW149920   2.730   5.724  11.326
49382SOL    HW249921   2.741   5.841  11.422
49383SOL     OW49922   8.420   3.715  12.545
49383SOL    HW149923   8.427   3.797  12.593
49383SOL    HW249924   8.331   3.684  12.564
49384SOL     OW49925   4.710   5.254   2.575
49384SOL    HW149926   4.728   5.165   2.543
49384SOL    HW249927   4.632   5.244   2.630
49385SOL     OW49928  13.930  11.409   6.350
49385SOL    HW149929  14.017  11.412   6.391
49385SOL    HW249930  13.869  11.429   6.421
49386SOL     OW49931  11.921   3.781   3.502
49386SOL    HW149932  11.968   3.803   3.421
49386SOL    HW249933  11.867   3.858   3.520
49387SOL     OW49934   2.242   0.848  11.800
49387SOL    HW149935   2.187   0.860  11.723
49387SOL    HW249936   2.235   0.931  11.848
49388SOL     OW49937   3.422   6.691  11.262
49388SOL    HW149938   3.476   6.626  11.216
49388SOL    HW249939   3.355   6.640  11.306
49389SOL     OW49940   5.263   7.685   7.101
49389SOL    HW149941   5.189   7.626   7.089
49389SOL    HW249942   5.248   7.726   7.187
49390SOL     OW49943  10.430   9.555  10.643
49390SOL    HW149944  10.429   9.617  10.570
49390SOL    HW249945  10.392   9.475  10.607
49391SOL     OW49946   0.050  13.796   9.799
49391SOL    HW149947   0.040  13.807   9.893
49391SOL    HW249948  14.857  13.736   9.774
49392SOL     OW49949   6.051   6.403   7.693
49392SOL    HW149950   6.126   6.358   7.732
49392SOL    HW249951   6.051   6.490   7.734
49393SOL     OW49952  10.574   3.906  12.204
49393SOL    HW149953  10.568   3.819  12.243
49393SOL    HW249954  10.483   3.935  12.196
49394SOL     OW49955   3.869   2.872   0.798
49394SOL    HW149956   3.813   2.900   0.870
49394SOL    HW249957   3.951   2.918   0.812
49395SOL     OW49958   5.663   0.958   4.264
49395SOL    HW149959   5.738   0.900   4.253
49395SOL    HW249960   5.613   0.919   4.335
49396SOL     OW49961   2.448   0.664   8.270
49396SOL    HW149962   2.362   0.684   8.233
49396SOL    HW249963   2.490   0.608   8.205
49397SOL     OW49964   2.364   9.361   1.855
49397SOL    HW149965   2.293   9.383   1.795
49397SOL    HW249966   2.344   9.272   1.883
49398SOL     OW49967   8.715   5.194   6.668
49398SOL    HW149968   8.685   5.167   6.754
49398SOL    HW249969   8.660   5.144   6.607
49399SOL     OW49970   4.774   2.903  14.361
49399SOL    HW149971   4.712   2.962  14.405
49399SOL    HW249972   4.849   2.899  14.420
49400SOL     OW49973  12.709  11.272   8.611
49400SOL    HW149974  12.695  11.185   8.647
49400SOL    HW249975  12.631  11.290   8.558
49401SOL     OW49976   0.418   6.890   1.578
49401SOL    HW149977   0.483   6.830   1.542
49401SOL    HW249978   0.464   6.937   1.647
49402SOL     OW49979  11.558   9.429  11.294
49402SOL    HW149980  11.505   9.367  11.243
49402SOL    HW249981  11.505   9.509  11.298
49403SOL     OW49982  11.246  14.027   0.170
49403SOL    HW149983  11.188  14.093   0.208
49403SOL    HW249984  11.334  14.057   0.192
49404SOL     OW49985  11.313   1.426   4.867
49404SOL    HW149986  11.379   1.478   4.912
49404SOL    HW249987  11.239   1.423   4.928
49405SOL     OW49988   2.636   2.789   9.886
49405SOL    HW149989   2.714   2.845   9.885
49405SOL    HW249990   2.646   2.736   9.965
49406SOL     OW49991  12.563   0.320   1.766
49406SOL    HW149992  12.487   0.267   1.791
49406SOL    HW249993  12.619   0.259   1.718
49407SOL     OW49994   0.162  14.373   1.927
49407SOL    HW149995   0.160  14.462   1.892
49407SOL    HW249996   0.187  14.318   1.853
49408SOL     OW49997  11.867   3.325  10.495
49408SOL    HW149998  11.880   3.363  10.408
49408SOL    HW249999  11.794   3.375  10.532
49409SOL     OW50000   9.711   1.257   5.361
49409SOL    HW150001   9.749   1.329   5.309
49409SOL    HW250002   9.763   1.180   5.337
49410SOL     OW50003  12.131   2.703   8.895
49410SOL    HW150004  12.123   2.610   8.915
49410SOL    HW250005  12.041   2.735   8.893
49411SOL     OW50006   2.335   0.197   9.901
49411SOL    HW150007   2.383   0.268   9.859
49411SOL    HW250008   2.383   0.118   9.879
49412SOL     OW50009   1.964  10.229   8.547
49412SOL    HW150010   1.897  10.294   8.526
49412SOL    HW250011   1.958  10.218   8.642
49413SOL     OW50012   1.988   0.888   1.442
49413SOL    HW150013   2.014   0.935   1.521
49413SOL    HW250014   1.982   0.796   1.469
49414SOL     OW50015   6.519   1.954   0.048
49414SOL    HW150016   6.427   1.942   0.025
49414SOL    HW250017   6.559   1.869   0.030
49415SOL     OW50018   8.760   5.724   3.234
49415SOL    HW150019   8.823   5.773   3.287
49415SOL    HW250020   8.762   5.636   3.271
49416SOL     OW50021  13.999  14.000   5.686
49416SOL    HW150022  14.033  13.913   5.665
49416SOL    HW250023  13.972  13.994   5.777
49417SOL     OW50024   1.614   7.784  14.315
49417SOL    HW150025   1.540   7.724  14.325
49417SOL    HW250026   1.684   7.729  14.280
49418SOL     OW50027   5.503  10.217   4.408
49418SOL    HW150028   5.426  10.274   4.401
49418SOL    HW250029   5.571  10.262   4.357
49419SOL     OW50030   3.589   8.366  12.438
49419SOL    HW150031   3.644   8.367  12.517
49419SOL    HW250032   3.501   8.346  12.471
49420SOL     OW50033   1.023   5.179   9.166
49420SOL    HW150034   1.088   5.112   9.186
49420SOL    HW250035   0.939   5.133   9.172
49421SOL     OW50036  11.698  12.270   2.499
49421SOL    HW150037  11.778  12.297   2.454
49421SOL    HW250038  11.681  12.182   2.466
49422SOL     OW50039  10.097   5.608   5.416
49422SOL    HW150040  10.070   5.600   5.508
49422SOL    HW250041  10.186   5.573   5.414
49423SOL     OW50042  13.165  10.045   3.867
49423SOL    HW150043  13.126  10.119   3.913
49423SOL    HW250044  13.166  10.070   3.775
49424SOL     OW50045   8.048   6.211  13.948
49424SOL    HW150046   7.989   6.220  14.024
49424SOL    HW250047   8.098   6.293  13.947
49425SOL     OW50048   2.664  12.091  14.188
49425SOL    HW150049   2.728  12.151  14.148
49425SOL    HW250050   2.645  12.130  14.273
49426SOL     OW50051   0.695  12.576   0.428
49426SOL    HW150052   0.613  12.550   0.385
49426SOL    HW250053   0.692  12.671   0.430
49427SOL     OW50054   7.501  10.042   0.738
49427SOL    HW150055   7.437   9.978   0.769
49427SOL    HW250056   7.449  10.112   0.699
49428SOL     OW50057   8.840  13.172   2.329
49428SOL    HW150058   8.785  13.246   2.355
49428SOL    HW250059   8.905  13.209   2.270
49429SOL     OW50060   0.212   3.317   3.910
49429SOL    HW150061   0.277   3.380   3.940
49429SOL    HW250062   0.139   3.372   3.879
49430SOL     OW50063   4.603   5.929   3.266
49430SOL    HW150064   4.667   5.964   3.328
49430SOL    HW250065   4.653   5.865   3.215
49431SOL     OW50066   3.787   8.051   2.290
49431SOL    HW150067   3.796   7.988   2.218
49431SOL    HW250068   3.723   8.115   2.258
49432SOL     OW50069   1.934  13.710  12.970
49432SOL    HW150070   1.969  13.799  12.977
49432SOL    HW250071   1.862  13.717  12.907
49433SOL     OW50072   7.369   6.628  10.572
49433SOL    HW150073   7.363   6.591  10.659
49433SOL    HW250074   7.291   6.598  10.526
49434SOL     OW50075   2.899   8.410   9.648
49434SOL    HW150076   2.940   8.497   9.656
49434SOL    HW250077   2.815   8.428   9.605
49435SOL     OW50078  11.066   3.553   7.346
49435SOL    HW150079  11.072   3.559   7.441
49435SOL    HW250080  11.144   3.503   7.320
49436SOL     OW50081   9.697   0.885   2.690
49436SOL    HW150082   9.743   0.952   2.639
49436SOL    HW250083   9.627   0.933   2.735
49437SOL     OW50084   0.286  12.478   2.359
49437SOL    HW150085   0.265  12.502   2.449
49437SOL    HW250086   0.206  12.434   2.327
49438SOL     OW50087  10.530  11.822  14.551
49438SOL    HW150088  10.549  11.752  14.614
49438SOL    HW250089  10.615  11.857  14.527
49439SOL     OW50090  10.713   8.750  12.458
49439SOL    HW150091  10.693   8.802  12.536
49439SOL    HW250092  10.662   8.670  12.469
49440SOL     OW50093   5.569  13.626   3.172
49440SOL    HW150094   5.642  13.677   3.207
49440SOL    HW250095   5.493  13.683   3.181
49441SOL     OW50096  10.464  14.226   4.405
49441SOL    HW150097  10.559  14.221   4.398
49441SOL    HW250098  10.444  14.177   4.485
49442SOL     OW50099   4.874   0.055   0.685
49442SOL    HW150100   4.887   0.150   0.679
49442SOL    HW250101   4.782   0.045   0.712
49443SOL     OW50102  11.980   5.420   4.522
49443SOL    HW150103  12.050   5.483   4.535
49443SOL    HW250104  12.025   5.339   4.497
49444SOL     OW50105  13.510   7.948  12.236
49444SOL    HW150106  13.515   7.945  12.332
49444SOL    HW250107  13.597   7.920  12.207
49445SOL     OW50108  12.075  11.510   0.955
49445SOL    HW150109  12.108  11.451   1.023
49445SOL    HW250110  12.083  11.598   0.993
49446SOL     OW50111   4.139   5.221   8.222
49446SOL    HW150112   4.166   5.179   8.303
49446SOL    HW250113   4.076   5.287   8.249
49447SOL     OW50114  10.054   1.786   7.519
49447SOL    HW150115  10.075   1.879   7.523
49447SOL    HW250116  10.010   1.767   7.601
49448SOL     OW50117  14.246   6.950   3.592
49448SOL    HW150118  14.333   6.989   3.582
49448SOL    HW250119  14.263   6.860   3.619
49449SOL     OW50120  13.113  10.580  13.397
49449SOL    HW150121  13.208  10.565  13.398
49449SOL    HW250122  13.103  10.666  13.354
49450SOL     OW50123   6.744   8.845   7.785
49450SOL    HW150124   6.759   8.764   7.833
49450SOL    HW250125   6.755   8.821   7.693
49451SOL     OW50126   9.474   5.250   8.125
49451SOL    HW150127   9.490   5.334   8.082
49451SOL    HW250128   9.390   5.220   8.089
49452SOL     OW50129   6.350   9.231   0.098
49452SOL    HW150130   6.433   9.237   0.050
49452SOL    HW250131   6.357   9.148   0.146
49453SOL     OW50132   7.483   9.429   1.614
49453SOL    HW150133   7.484   9.509   1.668
49453SOL    HW250134   7.509   9.360   1.675
49454SOL     OW50135  13.579   8.152  13.007
49454SOL    HW150136  13.602   8.124  13.095
49454SOL    HW250137  13.628   8.093  12.949
49455SOL     OW50138   8.922   8.656   6.228
49455SOL    HW150139   8.989   8.712   6.189
49455SOL    HW250140   8.848   8.714   6.243
49456SOL     OW50141   3.122   2.373   3.963
49456SOL    HW150142   3.114   2.336   3.875
49456SOL    HW250143   3.209   2.412   3.965
49457SOL     OW50144  14.657   6.479  13.395
49457SOL    HW150145  14.694   6.527  13.321
49457SOL    HW250146  14.717   6.405  13.407
49458SOL     OW50147  11.321   1.359  10.319
49458SOL    HW150148  11.364   1.425  10.374
49458SOL    HW250149  11.394   1.312  10.278
49459SOL     OW50150   0.621  13.559   3.328
49459SOL    HW150151   0.650  13.527   3.242
49459SOL    HW250152   0.611  13.480   3.381
49460SOL     OW50153  11.928   5.234   7.020
49460SOL    HW150154  11.981   5.185   7.083
49460SOL    HW250155  11.991   5.271   6.959
49461SOL     OW50156   4.694   0.073   1.060
49461SOL    HW150157   4.723  14.860   1.068
49461SOL    HW250158   4.768   0.125   1.093
49462SOL     OW50159   1.604   3.919   4.506
49462SOL    HW150160   1.598   3.879   4.592
49462SOL    HW250161   1.639   4.006   4.522
49463SOL     OW50162  13.940   9.980   2.727
49463SOL    HW150163  13.950   9.945   2.815
49463SOL    HW250164  13.994  10.059   2.725
49464SOL     OW50165   6.907   3.849  14.517
49464SOL    HW150166   6.908   3.920  14.452
49464SOL    HW250167   6.977   3.873  14.579
49465SOL     OW50168   8.867   8.045   1.651
49465SOL    HW150169   8.951   8.003   1.668
49465SOL    HW250170   8.809   7.972   1.628
49466SOL     OW50171   1.963   3.078   6.175
49466SOL    HW150172   1.894   3.031   6.222
49466SOL    HW250173   1.916   3.132   6.112
49467SOL     OW50174   7.382   8.003   1.602
49467SOL    HW150175   7.333   7.921   1.611
49467SOL    HW250176   7.474   7.977   1.603
49468SOL     OW50177  11.805   6.866   1.725
49468SOL    HW150178  11.775   6.775   1.721
49468SOL    HW250179  11.880   6.864   1.784
49469SOL     OW50180   8.575   1.609  12.198
49469SOL    HW150181   8.616   1.563  12.270
49469SOL    HW250182   8.560   1.542  12.131
49470SOL     OW50183   3.270  11.380  11.284
49470SOL    HW150184   3.303  11.467  11.261
49470SOL    HW250185   3.175  11.390  11.281
49471SOL     OW50186   3.879   9.706   9.301
49471SOL    HW150187   3.857   9.799   9.312
49471SOL    HW250188   3.918   9.701   9.214
49472SOL     OW50189   3.680  11.656   6.803
49472SOL    HW150190   3.690  11.565   6.832
49472SOL    HW250191   3.764  11.679   6.765
49473SOL     OW50192  10.435   8.835   6.026
49473SOL    HW150193  10.528   8.830   6.002
49473SOL    HW250194  10.417   8.928   6.032
49474SOL     OW50195   7.255  13.374  11.380
49474SOL    HW150196   7.230  13.282  11.380
49474SOL    HW250197   7.332  13.377  11.437
49475SOL     OW50198   3.415   2.453  11.801
49475SOL    HW150199   3.324   2.477  11.821
49475SOL    HW250200   3.430   2.488  11.713
49476SOL     OW50201  13.816   7.993  14.610
49476SOL    HW150202  13.870   8.049  14.554
49476SOL    HW250203  13.818   8.035  14.696
49477SOL     OW50204   3.630   0.261  14.735
49477SOL    HW150205   3.682   0.303  14.666
49477SOL    HW250206   3.635   0.322  14.808
49478SOL     OW50207   7.903   5.493  10.262
49478SOL    HW150208   7.962   5.554  10.218
49478SOL    HW250209   7.834   5.477  10.197
49479SOL     OW50210   2.546   5.290   5.164
49479SOL    HW150211   2.598   5.354   5.210
49479SOL    HW250212   2.455   5.310   5.189
49480SOL     OW50213   4.055   6.028   6.191
49480SOL    HW150214   3.963   6.051   6.179
49480SOL    HW250215   4.093   6.035   6.104
49481SOL     OW50216  10.190   8.035  13.805
49481SOL    HW150217  10.253   8.091  13.850
49481SOL    HW250218  10.207   7.947  13.838
49482SOL     OW50219  10.541   9.050   6.753
49482SOL    HW150220  10.547   9.067   6.659
49482SOL    HW250221  10.496   9.127   6.788
49483SOL     OW50222   1.097   8.643   4.858
49483SOL    HW150223   1.120   8.723   4.811
49483SOL    HW250224   1.112   8.572   4.796
49484SOL     OW50225  13.668  10.543   9.869
49484SOL    HW150226  13.580  10.580   9.863
49484SOL    HW250227  13.726  10.620   9.871
49485SOL     OW50228   8.263   9.830   1.154
49485SOL    HW150229   8.319   9.764   1.195
49485SOL    HW250230   8.321   9.904   1.139
49486SOL     OW50231   2.259   3.878  12.100
49486SOL    HW150232   2.199   3.822  12.052
49486SOL    HW250233   2.284   3.827  12.177
49487SOL     OW50234  12.576   8.383  13.718
49487SOL    HW150235  12.654   8.430  13.690
49487SOL    HW250236  12.534   8.355  13.637
49488SOL     OW50237  11.620   4.286   1.922
49488SOL    HW150238  11.532   4.279   1.958
49488SOL    HW250239  11.615   4.243   1.837
49489SOL     OW50240   1.827   3.228   0.169
49489SOL    HW150241   1.732   3.224   0.181
49489SOL    HW250242   1.858   3.140   0.189
49490SOL     OW50243   2.275   1.128  13.520
49490SOL    HW150244   2.355   1.101  13.475
49490SOL    HW250245   2.214   1.055  13.507
49491SOL     OW50246   2.605  11.118   3.461
49491SOL    HW150247   2.585  11.046   3.401
49491SOL    HW250248   2.606  11.196   3.405
49492SOL     OW50249   0.126   4.285   1.977
49492SOL    HW150250   0.151   4.355   2.037
49492SOL    HW250251   0.187   4.293   1.904
49493SOL     OW50252  13.290  12.753   5.748
49493SOL    HW150253  13.207  12.741   5.703
49493SOL    HW250254  13.315  12.844   5.729
49494SOL     OW50255  13.982   4.449   1.595
49494SOL    HW150256  13.916   4.472   1.530
49494SOL    HW250257  13.991   4.354   1.587
49495SOL     OW50258   2.665   2.136   0.380
49495SOL    HW150259   2.697   2.053   0.345
49495SOL    HW250260   2.743   2.178   0.418
49496SOL     OW50261   6.061  11.539  10.157
49496SOL    HW150262   6.094  11.521  10.245
49496SOL    HW250263   6.057  11.454  10.114
49497SOL     OW50264   7.625   8.662   6.809
49497SOL    HW150265   7.710   8.631   6.837
49497SOL    HW250266   7.564   8.593   6.834
49498SOL     OW50267   4.838  11.247   7.878
49498SOL    HW150268   4.804  11.158   7.891
49498SOL    HW250269   4.875  11.247   7.790
49499SOL     OW50270   5.170   3.904   8.014
49499SOL    HW150271   5.159   3.860   8.098
49499SOL    HW250272   5.195   3.994   8.036
49500SOL     OW50273  13.686   7.665   7.729
49500SOL    HW150274  13.625   7.592   7.718
49500SOL    HW250275  13.768   7.624   7.754
49501SOL     OW50276  11.475   6.698   6.055
49501SOL    HW150277  11.397   6.689   6.110
49501SOL    HW250278  11.458   6.642   5.980
49502SOL     OW50279   7.977   9.972  14.521
49502SOL    HW150280   8.030  10.037  14.567
49502SOL    HW250281   7.887  10.004  14.531
49503SOL     OW50282   4.142   0.260   8.159
49503SOL    HW150283   4.213   0.253   8.095
49503SOL    HW250284   4.121   0.170   8.182
49504SOL     OW50285   5.891   8.810   8.932
49504SOL    HW150286   5.889   8.905   8.920
49504SOL    HW250287   5.878   8.798   9.026
49505SOL     OW50288   1.255   2.261   1.125
49505SOL    HW150289   1.315   2.202   1.171
49505SOL    HW250290   1.310   2.334   1.097
49506SOL     OW50291   8.834  10.852   7.276
49506SOL    HW150292   8.880  10.907   7.212
49506SOL    HW250293   8.829  10.906   7.354
49507SOL     OW50294  13.843  10.508   8.571
49507SOL    HW150295  13.827  10.417   8.598
49507SOL    HW250296  13.772  10.528   8.511
49508SOL     OW50297   4.023  10.005  13.483
49508SOL    HW150298   4.061   9.986  13.568
49508SOL    HW250299   4.063   9.941  13.424
49509SOL     OW50300   7.303   7.788   5.419
49509SOL    HW150301   7.355   7.730   5.363
49509SOL    HW250302   7.239   7.828   5.361
49510SOL     OW50303  12.679   8.021   1.756
49510SOL    HW150304  12.732   8.065   1.823
49510SOL    HW250305  12.691   7.928   1.773
49511SOL     OW50306   3.590   4.618   6.618
49511SOL    HW150307   3.545   4.603   6.535
49511SOL    HW250308   3.576   4.538   6.668
49512SOL     OW50309   6.769   2.797  14.136
49512SOL    HW150310   6.741   2.885  14.113
49512SOL    HW250311   6.781   2.753  14.051
49513SOL     OW50312   5.433   9.586   9.005
49513SOL    HW150313   5.395   9.522   8.945
49513SOL    HW250314   5.365   9.651   9.019
49514SOL     OW50315   7.737  10.481   3.858
49514SOL    HW150316   7.823  10.515   3.830
49514SOL    HW250317   7.755  10.392   3.886
49515SOL     OW50318  13.227   2.684  10.885
49515SOL    HW150319  13.182   2.606  10.852
49515SOL    HW250320  13.320   2.662  10.878
49516SOL     OW50321   4.366  13.574   5.945
49516SOL    HW150322   4.360  13.654   5.894
49516SOL    HW250323   4.428  13.518   5.897
49517SOL     OW50324   1.519   5.232   6.930
49517SOL    HW150325   1.478   5.317   6.912
49517SOL    HW250326   1.589   5.225   6.866
49518SOL     OW50327   3.185  12.882   9.805
49518SOL    HW150328   3.218  12.797   9.774
49518SOL    HW250329   3.202  12.881   9.899
49519SOL     OW50330   0.853   6.550  14.237
49519SOL    HW150331   0.780   6.611  14.235
49519SOL    HW250332   0.824   6.475  14.185
49520SOL     OW50333  13.620  14.726  11.094
49520SOL    HW150334  13.552  14.704  11.031
49520SOL    HW250335  13.696  14.675  11.066
49521SOL     OW50336   6.230   9.423  13.912
49521SOL    HW150337   6.184   9.477  13.976
49521SOL    HW250338   6.214   9.333  13.942
49522SOL     OW50339   7.747   7.748   2.573
49522SOL    HW150340   7.819   7.759   2.635
49522SOL    HW250341   7.686   7.689   2.618
49523SOL     OW50342  10.787   5.607   0.341
49523SOL    HW150343  10.834   5.676   0.294
49523SOL    HW250344  10.854   5.567   0.396
49524SOL     OW50345   3.116  11.100  14.456
49524SOL    HW150346   3.170  11.134  14.527
49524SOL    HW250347   3.129  11.005  14.459
49525SOL     OW50348  10.453   4.979   4.020
49525SOL    HW150349  10.533   4.928   4.028
49525SOL    HW250350  10.384   4.920   4.052
49526SOL     OW50351  14.294   9.056   9.558
49526SOL    HW150352  14.280   9.024   9.647
49526SOL    HW250353  14.376   9.015   9.531
49527SOL     OW50354  12.204   4.171  12.163
49527SOL    HW150355  12.175   4.092  12.208
49527SOL    HW250356  12.129   4.198  12.111
49528SOL     OW50357   6.383   9.218   3.803
49528SOL    HW150358   6.315   9.284   3.794
49528SOL    HW250359   6.362   9.153   3.736
49529SOL     OW50360   6.161   7.925   7.138
49529SOL    HW150361   6.253   7.907   7.154
49529SOL    HW250362   6.131   7.967   7.219
49530SOL     OW50363  10.894  14.434  13.506
49530SOL    HW150364  10.953  14.495  13.549
49530SOL    HW250365  10.919  14.348  13.539
49531SOL     OW50366   5.975   7.778  11.119
49531SOL    HW150367   6.055   7.733  11.146
49531SOL    HW250368   5.999   7.823  11.038
49532SOL     OW50369   1.221  10.063  10.734
49532SOL    HW150370   1.202  10.119  10.809
49532SOL    HW250371   1.266   9.987  10.771
49533SOL     OW50372   7.907   8.505   4.318
49533SOL    HW150373   7.849   8.487   4.392
49533SOL    HW250374   7.848   8.522   4.244
49534SOL     OW50375  13.986  11.072   7.077
49534SOL    HW150376  13.947  11.122   7.005
49534SOL    HW250377  14.066  11.118   7.098
49535SOL     OW50378   8.532   3.722   4.814
49535SOL    HW150379   8.548   3.709   4.720
49535SOL    HW250380   8.607   3.681   4.857
49536SOL     OW50381  10.002   5.788   8.890
49536SOL    HW150382  10.018   5.766   8.982
49536SOL    HW250383  10.000   5.703   8.845
49537SOL     OW50384   2.465   8.372  14.438
49537SOL    HW150385   2.545   8.343  14.482
49537SOL    HW250386   2.395   8.322  14.480
49538SOL     OW50387   1.981   1.588   9.877
49538SOL    HW150388   1.916   1.525   9.847
49538SOL    HW250389   2.046   1.590   9.807
49539SOL     OW50390   7.660   1.785  13.917
49539SOL    HW150391   7.609   1.798  13.836
49539SOL    HW250392   7.722   1.858  13.918
49540SOL     OW50393   6.923   7.284   6.334
49540SOL    HW150394   6.883   7.208   6.376
49540SOL    HW250395   7.017   7.266   6.335
49541SOL     OW50396  10.342   6.583  10.321
49541SOL    HW150397  10.271   6.610  10.263
49541SOL    HW250398  10.421   6.591  10.268
49542SOL     OW50399  12.203  11.373  10.724
49542SOL    HW150400  12.164  11.303  10.776
49542SOL    HW250401  12.285  11.393  10.769
49543SOL     OW50402  13.396  14.859   1.355
49543SOL    HW150403  13.395  14.822   1.444
49543SOL    HW250404  13.481   0.025   1.349
49544SOL     OW50405   2.809  14.841   9.552
49544SOL    HW150406   2.775  14.764   9.507
49544SOL    HW250407   2.899  14.819   9.573
49545SOL     OW50408   2.319  12.434   9.009
49545SOL    HW150409   2.338  12.515   8.961
49545SOL    HW250410   2.287  12.373   8.943
49546SOL     OW50411  10.253   4.231   5.900
49546SOL    HW150412  10.212   4.285   5.832
49546SOL    HW250413  10.341   4.212   5.865
49547SOL     OW50414   1.407   6.625   1.928
49547SOL    HW150415   1.491   6.581   1.941
49547SOL    HW250416   1.386   6.611   1.836
49548SOL     OW50417   4.141  10.907   8.168
49548SOL    HW150418   4.072  10.892   8.104
49548SOL    HW250419   4.147  10.825   8.218
49549SOL     OW50420  11.017   8.581   7.721
49549SOL    HW150421  10.979   8.522   7.656
49549SOL    HW250422  10.945   8.601   7.781
49550SOL     OW50423   1.001   2.370   3.456
49550SOL    HW150424   1.097   2.367   3.455
49550SOL    HW250425   0.980   2.450   3.504
49551SOL     OW50426   0.310   3.853  10.359
49551SOL    HW150427   0.310   3.783  10.424
49551SOL    HW250428   0.217   3.876  10.349
49552SOL     OW50429  14.394  12.299   9.006
49552SOL    HW150430  14.420  12.238   8.937
49552SOL    HW250431  14.335  12.362   8.962
49553SOL     OW50432   6.906  13.590   9.792
49553SOL    HW150433   6.912  13.535   9.870
49553SOL    HW250434   6.988  13.638   9.789
49554SOL     OW50435   9.537   3.541   7.441
49554SOL    HW150436   9.578   3.459   7.414
49554SOL    HW250437   9.469   3.557   7.376
49555SOL     OW50438  10.180   0.697   0.976
49555SOL    HW150439  10.242   0.679   0.906
49555SOL    HW250440  10.103   0.732   0.931
49556SOL     OW50441   7.385  13.215   8.512
49556SOL    HW150442   7.294  13.185   8.512
49556SOL    HW250443   7.432  13.149   8.459
49557SOL     OW50444   8.260  10.350   1.823
49557SOL    HW150445   8.206  10.401   1.763
49557SOL    HW250446   8.323  10.412   1.858
49558SOL     OW50447   6.554  10.204   1.427
49558SOL    HW150448   6.513  10.265   1.489
49558SOL    HW250449   6.497  10.205   1.350
49559SOL     OW50450  11.423   0.761   4.397
49559SOL    HW150451  11.332   0.757   4.368
49559SOL    HW250452  11.449   0.669   4.407
49560SOL     OW50453   6.089   4.782   9.789
49560SOL    HW150454   6.015   4.787   9.727
49560SOL    HW250455   6.102   4.688   9.801
49561SOL     OW50456   1.381   1.470   0.901
49561SOL    HW150457   1.298   1.519   0.902
49561SOL    HW250458   1.362   1.390   0.950
49562SOL     OW50459   1.012   1.246   2.351
49562SOL    HW150460   1.040   1.155   2.366
49562SOL    HW250461   1.061   1.273   2.273
49563SOL     OW50462  10.324  13.129   8.768
49563SOL    HW150463  10.418  13.145   8.763
49563SOL    HW250464  10.314  13.037   8.744
49564SOL     OW50465  13.292   4.442  13.141
49564SOL    HW150466  13.304   4.357  13.184
49564SOL    HW250467  13.360   4.498  13.177
49565SOL     OW50468   7.798   1.411   5.684
49565SOL    HW150469   7.850   1.337   5.651
49565SOL    HW250470   7.717   1.371   5.715
49566SOL     OW50471   9.232   0.495   1.839
49566SOL    HW150472   9.208   0.547   1.762
49566SOL    HW250473   9.324   0.473   1.826
49567SOL     OW50474  10.523   1.520  11.928
49567SOL    HW150475  10.521   1.425  11.917
49567SOL    HW250476  10.470   1.536  12.006
49568SOL     OW50477  10.844   1.755  12.241
49568SOL    HW150478  10.914   1.712  12.191
49568SOL    HW250479  10.886   1.832  12.279
49569SOL     OW50480   4.550  10.760  11.002
49569SOL    HW150481   4.577  10.834  11.057
49569SOL    HW250482   4.496  10.706  11.060
49570SOL     OW50483   2.239   6.338   1.056
49570SOL    HW150484   2.174   6.343   1.127
49570SOL    HW250485   2.195   6.289   0.987
49571SOL     OW50486   3.498   3.263  13.056
49571SOL    HW150487   3.498   3.221  13.142
49571SOL    HW250488   3.480   3.355  13.074
49572SOL     OW50489  14.778   2.122  13.742
49572SOL    HW150490  14.714   2.054  13.718
49572SOL    HW250491  14.820   2.089  13.821
49573SOL     OW50492  12.342  11.181   5.135
49573SOL    HW150493  12.376  11.222   5.055
49573SOL    HW250494  12.415  11.129   5.169
49574SOL     OW50495   6.649   6.699  11.241
49574SOL    HW150496   6.619   6.621  11.194
49574SOL    HW250497   6.691   6.753  11.173
49575SOL     OW50498  14.077   3.663   4.807
49575SOL    HW150499  14.168   3.637   4.818
49575SOL    HW250500  14.044   3.673   4.896
49576SOL     OW50501  13.931   1.451   9.722
49576SOL    HW150502  13.975   1.534   9.702
49576SOL    HW250503  13.979   1.386   9.669
49577SOL     OW50504   8.128  12.944   3.913
49577SOL    HW150505   8.105  12.992   3.993
49577SOL    HW250506   8.199  12.995   3.874
49578SOL     OW50507   5.278   3.534  14.639
49578SOL    HW150508   5.188   3.504  14.626
49578SOL    HW250509   5.289   3.606  14.577
49579SOL     OW50510   3.889   3.797   7.959
49579SOL    HW150511   3.869   3.727   8.021
49579SOL    HW250512   3.804   3.824   7.926
49580SOL     OW50513   5.487   1.094  11.444
49580SOL    HW150514   5.536   1.134  11.516
49580SOL    HW250515   5.429   1.164  11.413
49581SOL     OW50516   2.227  13.028  12.660
49581SOL    HW150517   2.303  13.087  12.654
49581SOL    HW250518   2.193  13.024  12.571
49582SOL     OW50519   4.424  10.805  13.582
49582SOL    HW150520   4.370  10.803  13.661
49582SOL    HW250521   4.416  10.718  13.545
49583SOL     OW50522  14.001  11.407   4.529
49583SOL    HW150523  13.909  11.395   4.505
49583SOL    HW250524  14.049  11.395   4.447
49584SOL     OW50525   3.786  13.595  14.427
49584SOL    HW150526   3.876  13.599  14.393
49584SOL    HW250527   3.776  13.676  14.477
49585SOL     OW50528  10.329  14.199   3.675
49585SOL    HW150529  10.311  14.261   3.746
49585SOL    HW250530  10.250  14.199   3.622
49586SOL     OW50531   4.680   2.493   2.035
49586SOL    HW150532   4.648   2.583   2.041
49586SOL    HW250533   4.615   2.442   2.083
49587SOL     OW50534   6.514   6.091  14.855
49587SOL    HW150535   6.545   6.088  14.765
49587SOL    HW250536   6.443   6.156  14.854
49588SOL     OW50537   7.140  12.122  13.992
49588SOL    HW150538   7.231  12.099  13.972
49588SOL    HW250539   7.131  12.213  13.965
49589SOL     OW50540  14.473   8.383  14.386
49589SOL    HW150541  14.496   8.305  14.436
49589SOL    HW250542  14.425   8.438  14.447
49590SOL     OW50543   3.229   4.997  14.226
49590SOL    HW150544   3.138   5.018  14.247
49590SOL    HW250545   3.278   5.020  14.304
49591SOL     OW50546   5.779   1.208   0.742
49591SOL    HW150547   5.726   1.285   0.718
49591SOL    HW250548   5.778   1.209   0.838
49592SOL     OW50549   9.093  13.191  12.513
49592SOL    HW150550   9.187  13.195  12.533
49592SOL    HW250551   9.069  13.281  12.495
49593SOL     OW50552   7.560   5.099   0.127
49593SOL    HW150553   7.603   5.043   0.062
49593SOL    HW250554   7.470   5.107   0.097
49594SOL     OW50555   0.072  12.457  13.086
49594SOL    HW150556   0.089  12.551  13.088
49594SOL    HW250557   0.111  12.423  13.166
49595SOL     OW50558  11.857  11.569   5.241
49595SOL    HW150559  11.949  11.587   5.227
49595SOL    HW250560  11.842  11.485   5.197
49596SOL     OW50561   2.662   8.568   3.314
49596SOL    HW150562   2.701   8.525   3.390
49596SOL    HW250563   2.569   8.577   3.337
49597SOL     OW50564   4.286   2.641   1.667
49597SOL    HW150565   4.297   2.564   1.612
49597SOL    HW250566   4.274   2.713   1.606
49598SOL     OW50567   0.952  12.098   0.525
49598SOL    HW150568   0.896  12.088   0.602
49598SOL    HW250569   0.994  12.183   0.537
49599SOL     OW50570   1.794   3.069   6.888
49599SOL    HW150571   1.825   3.098   6.803
49599SOL    HW250572   1.708   3.031   6.871
49600SOL     OW50573   2.907   4.808  14.477
49600SOL    HW150574   2.862   4.893  14.481
49600SOL    HW250575   2.860   4.759  14.409
49601SOL     OW50576  13.074   8.829   9.520
49601SOL    HW150577  13.032   8.801   9.438
49601SOL    HW250578  13.071   8.752   9.576
49602SOL     OW50579   7.458  11.233  14.336
49602SOL    HW150580   7.371  11.193  14.341
49602SOL    HW250581   7.519  11.160  14.352
49603SOL     OW50582   3.131   1.016   2.577
49603SOL    HW150583   3.224   1.037   2.563
49603SOL    HW250584   3.113   1.048   2.665
49604SOL     OW50585   5.829   8.824   9.190
49604SOL    HW150586   5.858   8.785   9.273
49604SOL    HW250587   5.742   8.859   9.210
49605SOL     OW50588   1.939   5.767   1.912
49605SOL    HW150589   1.890   5.686   1.897
49605SOL    HW250590   1.881   5.821   1.965
49606SOL     OW50591   2.458   2.039  14.262
49606SOL    HW150592   2.441   2.035  14.357
49606SOL    HW250593   2.381   1.998  14.223
49607SOL     OW50594   3.649   1.308   5.030
49607SOL    HW150595   3.672   1.282   5.120
49607SOL    HW250596   3.731   1.301   4.981
49608SOL     OW50597  14.285  10.031  10.796
49608SOL    HW150598  14.375  10.060  10.783
49608SOL    HW250599  14.257  10.002  10.710
49609SOL     OW50600   5.942   4.193   7.103
49609SOL    HW150601   5.890   4.273   7.099
49609SOL    HW250602   5.882   4.124   7.073
49610SOL     OW50603   5.945   8.579  14.842
49610SOL    HW150604   5.918   8.668  14.819
49610SOL    HW250605   5.922   8.526  14.765
49611SOL     OW50606   9.891   6.292  13.185
49611SOL    HW150607   9.871   6.259  13.273
49611SOL    HW250608   9.927   6.216  13.139
49612SOL     OW50609   7.834   8.319   8.364
49612SOL    HW150610   7.923   8.328   8.330
49612SOL    HW250611   7.833   8.371   8.444
49613SOL     OW50612   4.498   7.399  13.291
49613SOL    HW150613   4.574   7.396  13.234
49613SOL    HW250614   4.502   7.318  13.341
49614SOL     OW50615   3.551   8.914   1.885
49614SOL    HW150616   3.457   8.904   1.874
49614SOL    HW250617   3.589   8.865   1.812
49615SOL     OW50618   6.672   0.944   8.308
49615SOL    HW150619   6.600   0.965   8.248
49615SOL    HW250620   6.631   0.941   8.394
49616SOL     OW50621   6.692   5.111   0.067
49616SOL    HW150622   6.724   5.034   0.022
49616SOL    HW250623   6.767   5.170   0.071
49617SOL     OW50624   1.367   0.669   6.364
49617SOL    HW150625   1.425   0.709   6.429
49617SOL    HW250626   1.290   0.726   6.362
49618SOL     OW50627  11.293   7.082  10.354
49618SOL    HW150628  11.230   7.074  10.426
49618SOL    HW250629  11.376   7.101  10.398
49619SOL     OW50630  12.441  10.456   3.522
49619SOL    HW150631  12.365  10.451   3.580
49619SOL    HW250632  12.440  10.373   3.474
49620SOL     OW50633   2.333  12.387   0.733
49620SOL    HW150634   2.389  12.422   0.663
49620SOL    HW250635   2.336  12.292   0.721
49621SOL     OW50636   0.833   5.035   1.367
49621SOL    HW150637   0.766   4.967   1.366
49621SOL    HW250638   0.810   5.090   1.442
49622SOL     OW50639   3.558   3.176  12.797
49622SOL    HW150640   3.535   3.205  12.885
49622SOL    HW250641   3.595   3.089  12.809
49623SOL     OW50642  11.153  14.410  10.236
49623SOL    HW150643  11.113  14.323  10.240
49623SOL    HW250644  11.160  14.437  10.327
49624SOL     OW50645  14.194   4.990   6.739
49624SOL    HW150646  14.115   4.941   6.717
49624SOL    HW250647  14.194   4.993   6.835
49625SOL     OW50648  14.374   9.572   1.947
49625SOL    HW150649  14.287   9.580   1.909
49625SOL    HW250650  14.434   9.588   1.874
49626SOL     OW50651   4.270   4.882   8.528
49626SOL    HW150652   4.236   4.799   8.560
49626SOL    HW250653   4.242   4.885   8.436
49627SOL     OW50654  11.368   9.871   6.059
49627SOL    HW150655  11.409   9.957   6.059
49627SOL    HW250656  11.342   9.856   6.150
49628SOL     OW50657  10.327   0.072  11.005
49628SOL    HW150658  10.400   0.122  11.042
49628SOL    HW250659  10.249   0.105  11.050
49629SOL     OW50660   7.385  11.068   9.441
49629SOL    HW150661   7.436  11.144   9.414
49629SOL    HW250662   7.302  11.105   9.472
49630SOL     OW50663   1.491   6.688   6.964
49630SOL    HW150664   1.483   6.742   7.043
49630SOL    HW250665   1.400   6.674   6.936
49631SOL     OW50666   2.087   7.491  11.630
49631SOL    HW150667   2.101   7.417  11.571
49631SOL    HW250668   2.113   7.457  11.717
49632SOL     OW50669   8.586   8.761  14.870
49632SOL    HW150670   8.648   8.824   0.027
49632SOL    HW250671   8.622   8.675   0.015
49633SOL     OW50672   5.165  12.297  14.415
49633SOL    HW150673   5.090  12.245  14.446
49633SOL    HW250674   5.152  12.383  14.453
49634SOL     OW50675   7.109  13.145   8.436
49634SOL    HW150676   7.088  13.056   8.463
49634SOL    HW250677   7.061  13.201   8.496
49635SOL     OW50678  12.696   1.984   8.950
49635SOL    HW150679  12.681   1.908   9.006
49635SOL    HW250680  12.671   2.059   9.005
49636SOL     OW50681   1.706  12.866   4.204
49636SOL    HW150682   1.698  12.771   4.210
49636SOL    HW250683   1.706  12.883   4.110
49637SOL     OW50684   3.660   9.372   6.981
49637SOL    HW150685   3.616   9.457   6.976
49637SOL    HW250686   3.748   9.393   7.014
49638SOL     OW50687   0.532  11.696   0.316
49638SOL    HW150688   0.569  11.649   0.241
49638SOL    HW250689   0.489  11.627   0.367
49639SOL     OW50690  11.539   5.731   7.582
49639SOL    HW150691  11.579   5.669   7.520
49639SOL    HW250692  11.505   5.802   7.527
49640SOL     OW50693   5.804   8.000  12.292
49640SOL    HW150694   5.732   8.048  12.332
49640SOL    HW250695   5.853   8.066  12.243
49641SOL     OW50696   1.971  13.825  10.282
49641SOL    HW150697   1.974  13.921  10.285
49641SOL    HW250698   1.975  13.798  10.374
49642SOL     OW50699   4.307   7.279  11.884
49642SOL    HW150700   4.304   7.236  11.798
49642SOL    HW250701   4.223   7.322  11.892
49643SOL     OW50702   5.082  11.933  12.013
49643SOL    HW150703   5.114  11.865  11.953
49643SOL    HW250704   5.034  11.994  11.957
49644SOL     OW50705   6.052   6.195   2.572
49644SOL    HW150706   6.113   6.259   2.610
49644SOL    HW250707   6.063   6.117   2.625
49645SOL     OW50708  10.842  14.306  12.706
49645SOL    HW150709  10.749  14.330  12.700
49645SOL    HW250710  10.878  14.331  12.621
49646SOL     OW50711   3.636   9.528   2.158
49646SOL    HW150712   3.690   9.495   2.086
49646SOL    HW250713   3.567   9.579   2.115
49647SOL     OW50714   2.366   8.541   7.473
49647SOL    HW150715   2.329   8.574   7.390
49647SOL    HW250716   2.312   8.464   7.494
49648SOL     OW50717   0.968  12.726   7.979
49648SOL    HW150718   1.046  12.742   8.031
49648SOL    HW250719   1.002  12.693   7.895
49649SOL     OW50720   8.907   1.467  12.182
49649SOL    HW150721   8.923   1.460  12.088
49649SOL    HW250722   8.830   1.412  12.198
49650SOL     OW50723   6.793   3.777   6.558
49650SOL    HW150724   6.749   3.839   6.499
49650SOL    HW250725   6.856   3.732   6.501
49651SOL     OW50726   2.752   2.599  12.296
49651SOL    HW150727   2.684   2.619  12.232
49651SOL    HW250728   2.806   2.678  12.300
49652SOL     OW50729  14.239   7.481   2.321
49652SOL    HW150730  14.162   7.538   2.325
49652SOL    HW250731  14.306   7.534   2.279
49653SOL     OW50732   0.776   8.676   6.093
49653SOL    HW150733   0.760   8.593   6.137
49653SOL    HW250734   0.834   8.653   6.020
49654SOL     OW50735  14.232   3.536   4.555
49654SOL    HW150736  14.316   3.581   4.552
49654SOL    HW250737  14.191   3.556   4.471
49655SOL     OW50738   6.241   1.944  12.238
49655SOL    HW150739   6.330   1.932  12.205
49655SOL    HW250740   6.214   2.030  12.205
49656SOL     OW50741   4.057   8.950  13.133
49656SOL    HW150742   4.139   8.966  13.180
49656SOL    HW250743   4.053   8.855  13.123
49657SOL     OW50744   9.372   2.753   0.158
49657SOL    HW150745   9.325   2.752   0.241
49657SOL    HW250746   9.421   2.671   0.158
49658SOL     OW50747   8.766   1.362   4.762
49658SOL    HW150748   8.732   1.273   4.751
49658SOL    HW250749   8.856   1.358   4.730
49659SOL     OW50750   6.576   4.089  13.063
49659SOL    HW150751   6.654   4.043  13.096
49659SOL    HW250752   6.594   4.182  13.082
49660SOL     OW50753   3.165   7.227   7.721
49660SOL    HW150754   3.102   7.157   7.702
49660SOL    HW250755   3.225   7.188   7.785
49661SOL     OW50756   9.697  11.347   0.082
49661SOL    HW150757   9.711  11.353  14.865
49661SOL    HW250758   9.767  11.290   0.113
49662SOL     OW50759   6.530   0.839  13.214
49662SOL    HW150760   6.489   0.755  13.235
49662SOL    HW250761   6.477   0.904  13.260
49663SOL     OW50762   3.812   0.510   5.113
49663SOL    HW150763   3.866   0.471   5.044
49663SOL    HW250764   3.781   0.435   5.164
49664SOL     OW50765  10.549   6.082  14.836
49664SOL    HW150766  10.465   6.122  14.812
49664SOL    HW250767  10.608   6.106  14.765
49665SOL     OW50768   4.714   6.830   3.905
49665SOL    HW150769   4.719   6.776   3.825
49665SOL    HW250770   4.646   6.788   3.957
49666SOL     OW50771  12.581   1.633   5.173
49666SOL    HW150772  12.514   1.679   5.122
49666SOL    HW250773  12.536   1.559   5.211
49667SOL     OW50774   7.142   6.266   6.037
49667SOL    HW150775   7.052   6.231   6.034
49667SOL    HW250776   7.184   6.232   5.958
49668SOL     OW50777   7.929  10.214  13.057
49668SOL    HW150778   7.975  10.288  13.017
49668SOL    HW250779   7.946  10.141  12.997
49669SOL     OW50780   9.686   6.943   1.295
49669SOL    HW150781   9.619   7.008   1.275
49669SOL    HW250782   9.703   6.899   1.211
49670SOL     OW50783  13.297   1.414  10.286
49670SOL    HW150784  13.338   1.405  10.371
49670SOL    HW250785  13.212   1.370  10.295
49671SOL     OW50786  13.450   8.236   8.802
49671SOL    HW150787  13.368   8.231   8.753
49671SOL    HW250788  13.459   8.329   8.824
49672SOL     OW50789  13.134   1.300   1.000
49672SOL    HW150790  13.224   1.324   1.022
49672SOL    HW250791  13.119   1.339   0.914
49673SOL     OW50792   2.354  12.373  10.500
49673SOL    HW150793   2.328  12.465  10.499
49673SOL    HW250794   2.287  12.328  10.448
49674SOL     OW50795   2.378   3.745   8.992
49674SOL    HW150796   2.359   3.687   8.919
49674SOL    HW250797   2.309   3.726   9.056
49675SOL     OW50798   7.742   3.048   2.860
49675SOL    HW150799   7.777   3.116   2.918
49675SOL    HW250800   7.659   3.023   2.899
49676SOL     OW50801   6.170   9.415   3.824
49676SOL    HW150802   6.127   9.484   3.774
49676SOL    HW250803   6.099   9.354   3.846
49677SOL     OW50804   6.615   5.370  12.445
49677SOL    HW150805   6.560   5.346  12.371
49677SOL    HW250806   6.590   5.460  12.465
49678SOL     OW50807  11.126   3.195   9.330
49678SOL    HW150808  11.176   3.236   9.260
49678SOL    HW250809  11.190   3.142   9.377
49679SOL     OW50810   5.802   9.776   8.848
49679SOL    HW150811   5.707   9.765   8.853
49679SOL    HW250812   5.829   9.792   8.939
49680SOL     OW50813  10.956  12.783   8.004
49680SOL    HW150814  10.972  12.753   7.914
49680SOL    HW250815  10.862  12.775   8.016
49681SOL     OW50816   1.911   2.831   3.414
49681SOL    HW150817   1.912   2.841   3.318
49681SOL    HW250818   1.992   2.871   3.443
49682SOL     OW50819   2.696   6.789   8.740
49682SOL    HW150820   2.769   6.766   8.798
49682SOL    HW250821   2.661   6.871   8.776
49683SOL     OW50822   1.748   4.460   7.973
49683SOL    HW150823   1.808   4.434   8.043
49683SOL    HW250824   1.717   4.377   7.936
49684SOL     OW50825   8.182   1.066   9.241
49684SOL    HW150826   8.277   1.061   9.244
49684SOL    HW250827   8.162   1.096   9.152
49685SOL     OW50828   8.421   9.322   4.131
49685SOL    HW150829   8.419   9.386   4.203
49685SOL    HW250830   8.473   9.250   4.165
49686SOL     OW50831   8.712  11.093  13.577
49686SOL    HW150832   8.770  11.098  13.653
49686SOL    HW250833   8.677  11.004  13.579
49687SOL     OW50834   1.514   2.122   5.116
49687SOL    HW150835   1.478   2.123   5.027
49687SOL    HW250836   1.448   2.077   5.168
49688SOL     OW50837  13.141  13.639  12.885
49688SOL    HW150838  13.230  13.609  12.868
49688SOL    HW250839  13.097  13.564  12.924
49689SOL     OW50840   7.884  10.333   6.365
49689SOL    HW150841   7.922  10.375   6.442
49689SOL    HW250842   7.945  10.355   6.294
49690SOL     OW50843   0.427  12.784   8.804
49690SOL    HW150844   0.452  12.865   8.847
49690SOL    HW250845   0.352  12.752   8.855
49691SOL     OW50846   4.702   5.859   9.125
49691SOL    HW150847   4.635   5.825   9.065
49691SOL    HW250848   4.781   5.809   9.103
49692SOL     OW50849   3.877   2.876  10.727
49692SOL    HW150850   3.841   2.879  10.639
49692SOL    HW250851   3.864   2.786  10.756
49693SOL     OW50852  14.442   0.193   4.108
49693SOL    HW150853  14.516   0.195   4.169
49693SOL    HW250854  14.403   0.106   4.121
49694SOL     OW50855   3.152   1.626   9.023
49694SOL    HW150856   3.060   1.628   9.050
49694SOL    HW250857   3.200   1.643   9.104
49695SOL     OW50858   2.372  12.981   7.400
49695SOL    HW150859   2.319  12.905   7.422
49695SOL    HW250860   2.390  13.024   7.483
49696SOL     OW50861   0.443   6.413  12.089
49696SOL    HW150862   0.410   6.408  12.178
49696SOL    HW250863   0.373   6.454  12.039
49697SOL     OW50864   4.229  12.054  13.733
49697SOL    HW150865   4.142  12.032  13.699
49697SOL    HW250866   4.265  11.971  13.763
49698SOL     OW50867   5.176  11.441   6.530
49698SOL    HW150868   5.081  11.446   6.541
49698SOL    HW250869   5.210  11.514   6.582
49699SOL     OW50870  14.413   6.934  13.752
49699SOL    HW150871  14.401   6.945  13.847
49699SOL    HW250872  14.501   6.898  13.744
49700SOL     OW50873   7.700  12.501   1.227
49700SOL    HW150874   7.700  12.537   1.139
49700SOL    HW250875   7.628  12.546   1.271
49701SOL     OW50876  12.361   7.572  10.255
49701SOL    HW150877  12.425   7.569  10.326
49701SOL    HW250878  12.361   7.664  10.227
49702SOL     OW50879   8.322   2.529   5.510
49702SOL    HW150880   8.295   2.445   5.546
49702SOL    HW250881   8.387   2.562   5.572
49703SOL     OW50882  10.193  14.322   4.451
49703SOL    HW150883  10.262  14.259   4.431
49703SOL    HW250884  10.165  14.300   4.540
49704SOL     OW50885   2.738   3.928  10.722
49704SOL    HW150886   2.716   3.845  10.680
49704SOL    HW250887   2.802   3.968  10.663
49705SOL     OW50888   2.217  10.134   8.246
49705SOL    HW150889   2.249  10.185   8.321
49705SOL    HW250890   2.151  10.190   8.206
49706SOL     OW50891   1.004   9.043   9.317
49706SOL    HW150892   1.032   9.065   9.228
49706SOL    HW250893   1.086   9.031   9.365
49707SOL     OW50894   3.733  11.843  12.107
49707SOL    HW150895   3.761  11.757  12.140
49707SOL    HW250896   3.716  11.829  12.014
49708SOL     OW50897   8.290  13.297   0.862
49708SOL    HW150898   8.296  13.211   0.904
49708SOL    HW250899   8.204  13.329   0.887
49709SOL     OW50900   8.165   6.679   0.901
49709SOL    HW150901   8.115   6.608   0.861
49709SOL    HW250902   8.245   6.638   0.933
49710SOL     OW50903   1.226   4.307   4.474
49710SOL    HW150904   1.248   4.267   4.558
49710SOL    HW250905   1.161   4.248   4.436
49711SOL     OW50906  10.677  11.652   1.903
49711SOL    HW150907  10.729  11.648   1.983
49711SOL    HW250908  10.677  11.562   1.870
49712SOL     OW50909   6.777   7.505  11.155
49712SOL    HW150910   6.741   7.530  11.070
49712SOL    HW250911   6.851   7.565  11.167
49713SOL     OW50912  14.618  10.844   1.525
49713SOL    HW150913  14.531  10.810   1.546
49713SOL    HW250914  14.652  10.877   1.608
49714SOL     OW50915  11.763   0.694  13.982
49714SOL    HW150916  11.787   0.770  13.929
49714SOL    HW250917  11.797   0.619  13.934
49715SOL     OW50918   3.507  14.405   6.121
49715SOL    HW150919   3.573  14.410   6.190
49715SOL    HW250920   3.551  14.360   6.048
49716SOL     OW50921   3.149   7.507   8.165
49716SOL    HW150922   3.228   7.516   8.112
49716SOL    HW250923   3.180   7.471   8.248
49717SOL     OW50924   4.550   4.823  11.860
49717SOL    HW150925   4.524   4.839  11.950
49717SOL    HW250926   4.474   4.851  11.808
49718SOL     OW50927  12.310  14.314   1.649
49718SOL    HW150928  12.296  14.405   1.673
49718SOL    HW250929  12.376  14.282   1.711
49719SOL     OW50930   9.428   0.922   5.896
49719SOL    HW150931   9.357   0.859   5.909
49719SOL    HW250932   9.496   0.874   5.849
49720SOL     OW50933   4.046   1.664  12.544
49720SOL    HW150934   4.136   1.682  12.571
49720SOL    HW250935   3.992   1.696  12.616
49721SOL     OW50936   2.848   8.330   3.016
49721SOL    HW150937   2.907   8.282   2.957
49721SOL    HW250938   2.907   8.378   3.073
49722SOL     OW50939   6.726   3.248   1.699
49722SOL    HW150940   6.720   3.155   1.723
49722SOL    HW250941   6.638   3.270   1.668
49723SOL     OW50942   8.352  13.896   3.175
49723SOL    HW150943   8.398  13.976   3.149
49723SOL    HW250944   8.259  13.919   3.171
49724SOL     OW50945  12.970   4.080   4.763
49724SOL    HW150946  12.966   4.084   4.858
49724SOL    HW250947  12.969   4.172   4.735
49725SOL     OW50948  10.072   1.430  11.387
49725SOL    HW150949  10.079   1.425  11.292
49725SOL    HW250950  10.109   1.516  11.409
49726SOL     OW50951   7.474   4.840  11.120
49726SOL    HW150952   7.553   4.890  11.102
49726SOL    HW250953   7.490   4.755  11.079
49727SOL     OW50954   0.487  10.617   1.876
49727SOL    HW150955   0.578  10.642   1.895
49727SOL    HW250956   0.484  10.523   1.895
49728SOL     OW50957  11.204   1.943   9.241
49728SOL    HW150958  11.242   1.888   9.310
49728SOL    HW250959  11.135   1.992   9.285
49729SOL     OW50960   9.793  12.718   1.617
49729SOL    HW150961   9.850  12.717   1.541
49729SOL    HW250962   9.852  12.711   1.692
49730SOL     OW50963  14.765  14.496  13.183
49730SOL    HW150964  14.690  14.521  13.128
49730SOL    HW250965  14.840  14.540  13.144
49731SOL     OW50966   6.723  14.148  14.510
49731SOL    HW150967   6.781  14.077  14.537
49731SOL    HW250968   6.772  14.228  14.526
49732SOL     OW50969  13.686  13.661   1.023
49732SOL    HW150970  13.623  13.687   1.090
49732SOL    HW250971  13.772  13.672   1.064
49733SOL     OW50972   7.733   3.670   0.869
49733SOL    HW150973   7.759   3.644   0.957
49733SOL    HW250974   7.701   3.760   0.879
49734SOL     OW50975   4.861   3.728   5.542
49734SOL    HW150976   4.861   3.643   5.497
49734SOL    HW250977   4.948   3.764   5.526
49735SOL     OW50978   9.884   0.948  12.045
49735SOL    HW150979   9.910   1.032  12.083
49735SOL    HW250980   9.961   0.919  11.996
49736SOL     OW50981   6.283  13.722   2.038
49736SOL    HW150982   6.207  13.778   2.054
49736SOL    HW250983   6.247  13.639   2.010
49737SOL     OW50984   3.304   6.496  13.573
49737SOL    HW150985   3.372   6.550  13.532
49737SOL    HW250986   3.342   6.472  13.658
49738SOL     OW50987  10.331   1.354   6.168
49738SOL    HW150988  10.367   1.305   6.242
49738SOL    HW250989  10.244   1.382   6.198
49739SOL     OW50990   6.158   1.743   2.391
49739SOL    HW150991   6.074   1.697   2.393
49739SOL    HW250992   6.222   1.675   2.367
49740SOL     OW50993  12.593   2.633   3.819
49740SOL    HW150994  12.545   2.713   3.839
49740SOL    HW250995  12.539   2.588   3.755
49741SOL     OW50996   4.681   3.520   2.664
49741SOL    HW150997   4.595   3.521   2.705
49741SOL    HW250998   4.742   3.517   2.737
49742SOL     OW50999   8.744   4.431   6.275
49742SOL    HW151000   8.755   4.338   6.298
49742SOL    HW251001   8.784   4.439   6.189
49743SOL     OW51002   5.482   0.777   1.224
49743SOL    HW151003   5.394   0.744   1.240
49743SOL    HW251004   5.514   0.725   1.151
49744SOL     OW51005  12.851  14.603  12.642
49744SOL    HW151006  12.776  14.660  12.655
49744SOL    HW251007  12.815  14.514  12.648
49745SOL     OW51008  14.731  13.959  13.258
49745SOL    HW151009  14.682  14.039  13.276
49745SOL    HW251010  14.733  13.953  13.162
49746SOL     OW51011   4.694  10.272   3.361
49746SOL    HW151012   4.620  10.330   3.345
49746SOL    HW251013   4.766  10.332   3.383
49747SOL     OW51014   2.273  11.368  13.033
49747SOL    HW151015   2.190  11.321  13.042
49747SOL    HW251016   2.269  11.405  12.945
49748SOL     OW51017   5.808   9.848  11.381
49748SOL    HW151018   5.767   9.768  11.348
49748SOL    HW251019   5.826   9.828  11.473
49749SOL     OW51020  13.542   8.944   7.831
49749SOL    HW151021  13.591   8.970   7.909
49749SOL    HW251022  13.543   8.848   7.834
49750SOL     OW51023   4.277   3.600   3.137
49750SOL    HW151024   4.324   3.659   3.077
49750SOL    HW251025   4.298   3.512   3.105
49751SOL     OW51026   3.530  11.949   0.948
49751SOL    HW151027   3.505  12.041   0.955
49751SOL    HW251028   3.588  11.934   1.023
49752SOL     OW51029   3.034  10.504   0.853
49752SOL    HW151030   3.070  10.539   0.771
49752SOL    HW251031   2.982  10.576   0.888
49753SOL     OW51032  11.693  14.725  14.101
49753SOL    HW151033  11.729  14.811  14.080
49753SOL    HW251034  11.603  14.743  14.128
49754SOL     OW51035   5.963   4.345  10.495
49754SOL    HW151036   5.969   4.415  10.560
49754SOL    HW251037   5.973   4.390  10.411
49755SOL     OW51038   7.902   3.176  13.618
49755SOL    HW151039   7.959   3.132  13.555
49755SOL    HW251040   7.814   3.169  13.581
49756SOL     OW51041   2.342  10.196  14.546
49756SOL    HW151042   2.316  10.272  14.598
49756SOL    HW251043   2.260  10.162  14.510
49757SOL     OW51044  14.235  10.448   9.162
49757SOL    HW151045  14.155  10.499   9.173
49757SOL    HW251046  14.216  10.388   9.090
49758SOL     OW51047   4.150   9.199  14.226
49758SOL    HW151048   4.194   9.138  14.167
49758SOL    HW251049   4.111   9.143  14.293
49759SOL     OW51050   4.867   8.219   5.361
49759SOL    HW151051   4.825   8.222   5.446
49759SOL    HW251052   4.956   8.188   5.379
49760SOL     OW51053   9.974  14.812   5.792
49760SOL    HW151054   9.967  14.824   5.887
49760SOL    HW251055   9.956  14.719   5.778
49761SOL     OW51056   9.261  11.933  10.862
49761SOL    HW151057   9.287  12.021  10.836
49761SOL    HW251058   9.176  11.944  10.904
49762SOL     OW51059   9.829   1.540  14.429
49762SOL    HW151060   9.905   1.507  14.478
49762SOL    HW251061   9.805   1.468  14.371
49763SOL     OW51062  10.001   5.522  13.910
49763SOL    HW151063   9.975   5.606  13.947
49763SOL    HW251064   9.920   5.487  13.871
49764SOL     OW51065   8.011  14.004  11.116
49764SOL    HW151066   8.080  14.000  11.050
49764SOL    HW251067   7.993  14.097  11.126
49765SOL     OW51068   9.543   3.683   0.957
49765SOL    HW151069   9.485   3.650   1.026
49765SOL    HW251070   9.597   3.608   0.933
49766SOL     OW51071   2.288   3.312   9.950
49766SOL    HW151072   2.335   3.234   9.978
49766SOL    HW251073   2.274   3.299   9.856
49767SOL     OW51074  13.676  10.188  13.167
49767SOL    HW151075  13.763  10.193  13.206
49767SOL    HW251076  13.624  10.139  13.232
49768SOL     OW51077   3.138   7.337   4.148
49768SOL    HW151078   3.050   7.375   4.145
49768SOL    HW251079   3.172   7.364   4.234
49769SOL     OW51080  14.353   6.613  12.545
49769SOL    HW151081  14.437   6.658  12.531
49769SOL    HW251082  14.355   6.539  12.485
49770SOL     OW51083   8.949  10.788   9.782
49770SOL    HW151084   8.972  10.784   9.875
49770SOL    HW251085   8.969  10.701   9.749
49771SOL     OW51086   2.101  14.678   5.006
49771SOL    HW151087   2.142  14.691   5.092
49771SOL    HW251088   2.021  14.730   5.010
49772SOL     OW51089   0.459   8.483   8.510
49772SOL    HW151090   0.547   8.521   8.510
49772SOL    HW251091   0.441   8.466   8.603
49773SOL     OW51092  10.783   4.638  12.248
49773SOL    HW151093  10.804   4.546  12.239
49773SOL    HW251094  10.832   4.667  12.324
49774SOL     OW51095   4.320  12.244   2.198
49774SOL    HW151096   4.277  12.226   2.115
49774SOL    HW251097   4.258  12.215   2.265
49775SOL     OW51098   6.885   1.066  11.181
49775SOL    HW151099   6.812   1.104  11.230
49775SOL    HW251100   6.959   1.070  11.242
49776SOL     OW51101  11.234  13.400  12.162
49776SOL    HW151102  11.198  13.366  12.243
49776SOL    HW251103  11.188  13.351  12.093
49777SOL     OW51104  10.569  11.785   1.689
49777SOL    HW151105  10.561  11.871   1.731
49777SOL    HW251106  10.627  11.735   1.746
49778SOL     OW51107  10.626  10.354   2.673
49778SOL    HW151108  10.705  10.398   2.642
49778SOL    HW251109  10.658  10.280   2.724
49779SOL     OW51110  10.205   2.402   8.627
49779SOL    HW151111  10.237   2.441   8.709
49779SOL    HW251112  10.112   2.386   8.642
49780SOL     OW51113   4.968   6.676   3.962
49780SOL    HW151114   4.950   6.649   3.872
49780SOL    HW251115   4.885   6.662   4.008
49781SOL     OW51116   4.219   1.339   8.523
49781SOL    HW151117   4.208   1.327   8.617
49781SOL    HW251118   4.158   1.277   8.483
49782SOL     OW51119   4.031   4.832   4.047
49782SOL    HW151120   4.092   4.787   4.106
49782SOL    HW251121   3.963   4.867   4.105
49783SOL     OW51122   3.955   1.913   8.295
49783SOL    HW151123   3.961   1.987   8.235
49783SOL    HW251124   3.869   1.874   8.276
49784SOL     OW51125  12.495   6.603   8.075
49784SOL    HW151126  12.459   6.541   8.139
49784SOL    HW251127  12.548   6.549   8.016
49785SOL     OW51128  13.374  11.177   1.408
49785SOL    HW151129  13.369  11.138   1.321
49785SOL    HW251130  13.297  11.234   1.413
49786SOL     OW51131  14.331  13.994   6.257
49786SOL    HW151132  14.408  14.030   6.301
49786SOL    HW251133  14.278  14.070   6.235
49787SOL     OW51134  10.793   5.658   9.040
49787SOL    HW151135  10.710   5.703   9.052
49787SOL    HW251136  10.777   5.597   8.968
49788SOL     OW51137   3.033   2.423  13.532
49788SOL    HW151138   2.965   2.423  13.600
49788SOL    HW251139   2.988   2.456  13.454
49789SOL     OW51140  10.290   1.646   5.853
49789SOL    HW151141  10.242   1.724   5.827
49789SOL    HW251142  10.382   1.669   5.840
49790SOL     OW51143   4.305  11.530  14.217
49790SOL    HW151144   4.316  11.436  14.209
49790SOL    HW251145   4.217  11.547  14.183
49791SOL     OW51146   3.361   4.737  10.723
49791SOL    HW151147   3.453   4.711  10.727
49791SOL    HW251148   3.317   4.664  10.679
49792SOL     OW51149  11.176   0.838  13.547
49792SOL    HW151150  11.104   0.867  13.491
49792SOL    HW251151  11.147   0.754  13.583
49793SOL     OW51152  11.841  10.346   4.379
49793SOL    HW151153  11.861  10.255   4.357
49793SOL    HW251154  11.909  10.370   4.443
49794SOL     OW51155   8.711  11.235   2.607
49794SOL    HW151156   8.648  11.262   2.540
49794SOL    HW251157   8.757  11.315   2.631
49795SOL     OW51158   6.080   3.509   4.064
49795SOL    HW151159   6.073   3.476   3.974
49795SOL    HW251160   6.168   3.484   4.092
49796SOL     OW51161   4.109  10.068   0.934
49796SOL    HW151162   4.127  10.086   0.842
49796SOL    HW251163   4.162  10.132   0.982
49797SOL     OW51164   6.862   0.673   3.393
49797SOL    HW151165   6.829   0.675   3.483
49797SOL    HW251166   6.923   0.599   3.391
49798SOL     OW51167   7.607  12.283   4.551
49798SOL    HW151168   7.570  12.291   4.463
49798SOL    HW251169   7.532  12.289   4.610
49799SOL     OW51170   5.554  10.626  11.240
49799SOL    HW151171   5.467  10.665  11.246
49799SOL    HW251172   5.563  10.599  11.149
49800SOL     OW51173   5.765   1.821   7.276
49800SOL    HW151174   5.721   1.753   7.328
49800SOL    HW251175   5.699   1.888   7.262
49801SOL     OW51176  11.715   3.869   8.595
49801SOL    HW151177  11.620   3.861   8.587
49801SOL    HW251178  11.728   3.938   8.660
49802SOL     OW51179  11.076  10.753   5.300
49802SOL    HW151180  11.107  10.675   5.253
49802SOL    HW251181  10.983  10.737   5.314
49803SOL     OW51182   6.922   8.619   8.118
49803SOL    HW151183   6.955   8.537   8.156
49803SOL    HW251184   6.878   8.592   8.037
49804SOL     OW51185  10.926  14.274  11.161
49804SOL    HW151186  10.877  14.202  11.123
49804SOL    HW251187  10.961  14.240  11.243
49805SOL     OW51188   1.378   1.241  13.444
49805SOL    HW151189   1.285   1.246  13.423
49805SOL    HW251190   1.382   1.262  13.537
49806SOL     OW51191   8.386   8.431   0.295
49806SOL    HW151192   8.398   8.453   0.388
49806SOL    HW251193   8.292   8.443   0.280
49807SOL     OW51194   8.590   0.722  10.729
49807SOL    HW151195   8.640   0.716  10.648
49807SOL    HW251196   8.557   0.634  10.744
49808SOL     OW51197   1.650  14.249   9.983
49808SOL    HW151198   1.736  14.284  10.006
49808SOL    HW251199   1.624  14.197  10.058
49809SOL     OW51200   7.402   9.349   9.821
49809SOL    HW151201   7.376   9.441   9.811
49809SOL    HW251202   7.487   9.354   9.866
49810SOL     OW51203   7.581  10.847   3.979
49810SOL    HW151204   7.625  10.796   4.047
49810SOL    HW251205   7.491  10.812   3.977
49811SOL     OW51206   6.493   0.253   4.683
49811SOL    HW151207   6.401   0.233   4.663
49811SOL    HW251208   6.498   0.247   4.779
49812SOL     OW51209   1.448   0.455  10.174
49812SOL    HW151210   1.355   0.469  10.159
49812SOL    HW251211   1.489   0.538  10.149
49813SOL     OW51212   7.022   3.675   7.723
49813SOL    HW151213   6.940   3.723   7.734
49813SOL    HW251214   7.081   3.713   7.788
49814SOL     OW51215   9.464  13.336   7.056
49814SOL    HW151216   9.415  13.402   7.105
49814SOL    HW251217   9.404  13.308   6.987
49815SOL     OW51218   1.964   9.801   9.956
49815SOL    HW151219   2.013   9.793  10.038
49815SOL    HW251220   1.873   9.786   9.982
49816SOL     OW51221  10.991   9.129   2.957
49816SOL    HW151222  11.085   9.114   2.956
49816SOL    HW251223  10.967   9.120   3.049
49817SOL     OW51224   6.065   4.477  12.315
49817SOL    HW151225   6.144   4.508  12.271
49817SOL    HW251226   6.088   4.389  12.345
49818SOL     OW51227   5.365  13.076   0.018
49818SOL    HW151228   5.376  13.050  14.804
49818SOL    HW251229   5.369  13.172   0.016
49819SOL     OW51230   4.395   9.475   0.463
49819SOL    HW151231   4.476   9.433   0.434
49819SOL    HW251232   4.384   9.549   0.403
49820SOL     OW51233  10.284  11.711  11.208
49820SOL    HW151234  10.206  11.663  11.182
49820SOL    HW251235  10.260  11.755  11.289
49821SOL     OW51236   6.815   5.770   0.073
49821SOL    HW151237   6.741   5.821   0.105
49821SOL    HW251238   6.893   5.815   0.106
49822SOL     OW51239  10.580  13.146   8.617
49822SOL    HW151240  10.544  13.186   8.538
49822SOL    HW251241  10.582  13.052   8.597
49823SOL     OW51242   8.075   4.971   6.474
49823SOL    HW151243   8.000   4.924   6.437
49823SOL    HW251244   8.129   4.994   6.399
49824SOL     OW51245   1.427   6.408   0.710
49824SOL    HW151246   1.472   6.338   0.663
49824SOL    HW251247   1.335   6.383   0.709
49825SOL     OW51248   0.064   5.220   0.153
49825SOL    HW151249  14.873   5.162   0.119
49825SOL    HW251250   0.139   5.207   0.094
49826SOL     OW51251   5.253   7.742  12.229
49826SOL    HW151252   5.304   7.664  12.212
49826SOL    HW251253   5.200   7.754  12.149
49827SOL     OW51254   5.723   9.014   2.110
49827SOL    HW151255   5.697   9.081   2.046
49827SOL    HW251256   5.647   8.956   2.115
49828SOL     OW51257   9.457  10.795   9.265
49828SOL    HW151258   9.377  10.818   9.217
49828SOL    HW251259   9.427  10.742   9.339
49829SOL     OW51260   7.097   7.918   8.551
49829SOL    HW151261   7.074   7.885   8.463
49829SOL    HW251262   7.133   8.005   8.535
49830SOL     OW51263   5.209  12.991   6.863
49830SOL    HW151264   5.157  12.962   6.938
49830SOL    HW251265   5.147  13.038   6.807
49831SOL     OW51266   6.033  13.144   0.534
49831SOL    HW151267   6.061  13.235   0.547
49831SOL    HW251268   6.108  13.102   0.492
49832SOL     OW51269   9.831  13.932   4.914
49832SOL    HW151270   9.844  14.007   4.973
49832SOL    HW251271   9.783  13.868   4.967
49833SOL     OW51272   0.046   0.870  12.957
49833SOL    HW151273   0.067   0.914  13.039
49833SOL    HW251274  14.841   0.910  12.928
49834SOL     OW51275   2.656   8.232   9.270
49834SOL    HW151276   2.751   8.238   9.273
49834SOL    HW251277   2.633   8.256   9.180
49835SOL     OW51278   9.251   4.195  14.698
49835SOL    HW151279   9.215   4.145  14.771
49835SOL    HW251280   9.325   4.142  14.668
49836SOL     OW51281   6.980   9.891   2.829
49836SOL    HW151282   6.988   9.796   2.837
49836SOL    HW251283   7.069   9.923   2.843
49837SOL     OW51284   9.506   5.722   5.537
49837SOL    HW151285   9.576   5.688   5.592
49837SOL    HW251286   9.439   5.653   5.539
49838SOL     OW51287  10.797   7.144  13.293
49838SOL    HW151288  10.777   7.051  13.279
49838SOL    HW251289  10.791   7.182  13.205
49839SOL     OW51290   0.553  14.154   6.870
49839SOL    HW151291   0.556  14.073   6.921
49839SOL    HW251292   0.508  14.129   6.789
49840SOL     OW51293   2.985   0.540   6.141
49840SOL    HW151294   2.993   0.478   6.213
49840SOL    HW251295   2.936   0.614   6.178
49841SOL     OW51296   0.991   2.474   7.941
49841SOL    HW151297   0.978   2.383   7.914
49841SOL    HW251298   1.036   2.467   8.026
49842SOL     OW51299   0.311   8.665  12.727
49842SOL    HW151300   0.298   8.759  12.738
49842SOL    HW251301   0.228   8.626  12.754
49843SOL     OW51302   2.121   6.927  11.527
49843SOL    HW151303   2.079   6.986  11.465
49843SOL    HW251304   2.161   6.859  11.472
49844SOL     OW51305   8.294   2.861  12.959
49844SOL    HW151306   8.366   2.903  13.008
49844SOL    HW251307   8.216   2.909  12.987
49845SOL     OW51308   8.261   2.396   9.639
49845SOL    HW151309   8.282   2.407   9.546
49845SOL    HW251310   8.282   2.304   9.657
49846SOL     OW51311  12.256   1.075   8.598
49846SOL    HW151312  12.270   1.144   8.534
49846SOL    HW251313  12.329   1.015   8.585
49847SOL     OW51314  12.061  10.787   8.738
49847SOL    HW151315  12.068  10.855   8.671
49847SOL    HW251316  12.065  10.834   8.821
49848SOL     OW51317   2.101   8.861   1.441
49848SOL    HW151318   2.114   8.931   1.506
49848SOL    HW251319   2.008   8.866   1.418
49849SOL     OW51320   8.400   5.268   3.358
49849SOL    HW151321   8.471   5.318   3.398
49849SOL    HW251322   8.368   5.211   3.428
49850SOL     OW51323  12.484   8.988   6.338
49850SOL    HW151324  12.538   8.928   6.390
49850SOL    HW251325  12.546   9.034   6.282
49851SOL     OW51326   9.470   9.996   4.929
49851SOL    HW151327   9.443  10.032   5.014
49851SOL    HW251328   9.555   9.954   4.947
49852SOL     OW51329   7.091   1.984   2.331
49852SOL    HW151330   7.078   1.958   2.240
49852SOL    HW251331   7.168   2.041   2.330
49853SOL     OW51332   3.541   6.205   9.658
49853SOL    HW151333   3.504   6.119   9.680
49853SOL    HW251334   3.594   6.228   9.733
49854SOL     OW51335   4.480   9.817   6.090
49854SOL    HW151336   4.469   9.750   6.158
49854SOL    HW251337   4.529   9.887   6.134
49855SOL     OW51338   2.536   7.737  10.865
49855SOL    HW151339   2.459   7.703  10.819
49855SOL    HW251340   2.505   7.817  10.906
49856SOL     OW51341  11.952   6.642   2.972
49856SOL    HW151342  11.864   6.680   2.976
49856SOL    HW251343  11.968   6.608   3.059
49857SOL     OW51344  10.621   7.443  10.680
49857SOL    HW151345  10.701   7.473  10.724
49857SOL    HW251346  10.554   7.505  10.709
49858SOL     OW51347  14.380   0.285  14.000
49858SOL    HW151348  14.462   0.254  14.037
49858SOL    HW251349  14.316   0.218  14.024
49859SOL     OW51350  12.187   7.490   1.737
49859SOL    HW151351  12.196   7.507   1.830
49859SOL    HW251352  12.249   7.418   1.720
49860SOL     OW51353  10.674   4.972  11.231
49860SOL    HW151354  10.763   4.984  11.262
49860SOL    HW251355  10.620   4.971  11.310
49861SOL     OW51356   4.791   8.172   4.779
49861SOL    HW151357   4.806   8.266   4.781
49861SOL    HW251358   4.828   8.140   4.861
49862SOL     OW51359   4.886   8.324   6.768
49862SOL    HW151360   4.798   8.309   6.733
49862SOL    HW251361   4.942   8.323   6.691
49863SOL     OW51362   3.888   6.962   2.086
49863SOL    HW151363   3.979   6.990   2.090
49863SOL    HW251364   3.891   6.868   2.106
49864SOL     OW51365  11.448  12.444   2.193
49864SOL    HW151366  11.443  12.368   2.251
49864SOL    HW251367  11.360  12.452   2.157
49865SOL     OW51368   8.635   6.460   8.554
49865SOL    HW151369   8.619   6.366   8.569
49865SOL    HW251370   8.583   6.504   8.620
49866SOL     OW51371  12.631   6.990   8.111
49866SOL    HW151372  12.591   7.061   8.062
49866SOL    HW251373  12.613   7.011   8.203
49867SOL     OW51374  12.169  11.631   7.875
49867SOL    HW151375  12.086  11.631   7.829
49867SOL    HW251376  12.183  11.722   7.901
49868SOL     OW51377   0.064   8.638   6.519
49868SOL    HW151378   0.038   8.606   6.606
49868SOL    HW251379  14.859   8.658   6.475
49869SOL     OW51380   4.649   5.988   7.412
49869SOL    HW151381   4.558   6.004   7.385
49869SOL    HW251382   4.651   6.013   7.505
49870SOL     OW51383   3.036   8.586   1.317
49870SOL    HW151384   3.105   8.542   1.367
49870SOL    HW251385   2.968   8.606   1.381
49871SOL     OW51386   8.693  14.046  14.394
49871SOL    HW151387   8.770  14.087  14.432
49871SOL    HW251388   8.726  13.993  14.321
49872SOL     OW51389   8.578   9.266   7.442
49872SOL    HW151390   8.644   9.334   7.458
49872SOL    HW251391   8.504   9.291   7.498
49873SOL     OW51392   2.095   0.751   8.637
49873SOL    HW151393   2.103   0.690   8.563
49873SOL    HW251394   2.010   0.793   8.625
49874SOL     OW51395   3.489   9.082  13.233
49874SOL    HW151396   3.520   9.021  13.166
49874SOL    HW251397   3.424   9.136  13.187
49875SOL     OW51398   6.470   7.228   2.886
49875SOL    HW151399   6.469   7.316   2.923
49875SOL    HW251400   6.544   7.185   2.929
49876SOL     OW51401   8.696   8.386   4.573
49876SOL    HW151402   8.744   8.348   4.500
49876SOL    HW251403   8.764   8.424   4.629
49877SOL     OW51404   0.577   9.533   1.422
49877SOL    HW151405   0.646   9.551   1.487
49877SOL    HW251406   0.575   9.610   1.367
49878SOL     OW51407   5.937   5.976  12.838
49878SOL    HW151408   5.864   5.963  12.777
49878SOL    HW251409   5.960   6.068  12.829
49879SOL     OW51410   3.723  12.924   4.672
49879SOL    HW151411   3.803  12.952   4.717
49879SOL    HW251412   3.659  12.911   4.742
49880SOL     OW51413  10.879  12.575  10.346
49880SOL    HW151414  10.887  12.588  10.252
49880SOL    HW251415  10.906  12.485  10.361
49881SOL     OW51416   2.142   1.190   3.127
49881SOL    HW151417   2.161   1.143   3.209
49881SOL    HW251418   2.049   1.212   3.134
49882SOL     OW51419   5.898   9.808   8.563
49882SOL    HW151420   5.859   9.725   8.535
49882SOL    HW251421   5.882   9.811   8.657
49883SOL     OW51422   7.900   4.874   0.646
49883SOL    HW151423   7.863   4.933   0.580
49883SOL    HW251424   7.986   4.911   0.667
49884SOL     OW51425  14.534   2.595  12.788
49884SOL    HW151426  14.450   2.642  12.780
49884SOL    HW251427  14.548   2.555  12.702
49885SOL     OW51428   2.568   3.156   4.666
49885SOL    HW151429   2.610   3.112   4.593
49885SOL    HW251430   2.584   3.099   4.741
49886SOL     OW51431   9.067   6.117   0.211
49886SOL    HW151432   9.067   6.063   0.290
49886SOL    HW251433   9.113   6.197   0.236
49887SOL     OW51434   7.753   9.717   2.719
49887SOL    HW151435   7.818   9.738   2.652
49887SOL    HW251436   7.791   9.643   2.766
49888SOL     OW51437  11.127   5.685   8.132
49888SOL    HW151438  11.087   5.617   8.078
49888SOL    HW251439  11.138   5.759   8.072
49889SOL     OW51440   9.282   3.233  13.072
49889SOL    HW151441   9.247   3.210  13.158
49889SOL    HW251442   9.285   3.329  13.073
49890SOL     OW51443  12.432   7.097   1.979
49890SOL    HW151444  12.485   7.144   2.044
49890SOL    HW251445  12.353   7.072   2.025
49891SOL     OW51446   8.760  12.442   3.163
49891SOL    HW151447   8.749  12.502   3.238
49891SOL    HW251448   8.716  12.487   3.091
49892SOL     OW51449   5.211  11.085   7.714
49892SOL    HW151450   5.282  11.132   7.670
49892SOL    HW251451   5.233  10.993   7.705
49893SOL     OW51452   3.612   9.857  10.691
49893SOL    HW151453   3.670   9.892  10.759
49893SOL    HW251454   3.664   9.862  10.611
49894SOL     OW51455  10.127  12.480   1.298
49894SOL    HW151456  10.210  12.469   1.250
49894SOL    HW251457  10.076  12.402   1.275
49895SOL     OW51458   5.756   1.569   0.385
49895SOL    HW151459   5.778   1.522   0.304
49895SOL    HW251460   5.661   1.577   0.384
49896SOL     OW51461   1.334   6.053   5.347
49896SOL    HW151462   1.258   6.036   5.292
49896SOL    HW251463   1.398   5.987   5.321
49897SOL     OW51464   8.651   7.761   2.811
49897SOL    HW151465   8.718   7.828   2.824
49897SOL    HW251466   8.650   7.712   2.893
49898SOL     OW51467   8.922  12.962   1.017
49898SOL    HW151468   8.918  12.917   0.932
49898SOL    HW251469   8.986  12.912   1.067
49899SOL     OW51470   0.196   9.229  13.254
49899SOL    HW151471   0.253   9.271  13.318
49899SOL    HW251472   0.228   9.259  13.169
49900SOL     OW51473   2.457   5.411  12.747
49900SOL    HW151474   2.478   5.330  12.794
49900SOL    HW251475   2.362   5.420  12.757
49901SOL     OW51476   0.915   2.920  13.352
49901SOL    HW151477   0.832   2.948  13.388
49901SOL    HW251478   0.943   2.848  13.409
49902SOL     OW51479   2.078   3.810  14.658
49902SOL    HW151480   2.158   3.825  14.708
49902SOL    HW251481   2.032   3.741  14.706
49903SOL     OW51482   5.741   7.098   8.888
49903SOL    HW151483   5.759   7.024   8.946
49903SOL    HW251484   5.791   7.171   8.926
49904SOL     OW51485   5.073   2.551  14.858
49904SOL    HW151486   5.086   2.532   0.073
49904SOL    HW251487   5.076   2.646  14.852
49905SOL     OW51488   5.070  10.978   1.326
49905SOL    HW151489   5.019  10.931   1.392
49905SOL    HW251490   5.140  11.022   1.376
49906SOL     OW51491   8.175   8.204   3.642
49906SOL    HW151492   8.146   8.291   3.672
49906SOL    HW251493   8.124   8.143   3.695
49907SOL     OW51494   6.682   2.129  12.451
49907SOL    HW151495   6.715   2.158  12.536
49907SOL    HW251496   6.708   2.199  12.391
49908SOL     OW51497   8.067   3.728   9.699
49908SOL    HW151498   7.985   3.771   9.723
49908SOL    HW251499   8.055   3.700   9.609
49909SOL     OW51500   0.003   1.835  14.175
49909SOL    HW151501   0.055   1.909  14.205
49909SOL    HW251502   0.012   1.770  14.245
49910SOL     OW51503  14.404   6.751   8.173
49910SOL    HW151504  14.485   6.699   8.174
49910SOL    HW251505  14.385   6.767   8.265
49911SOL     OW51506   0.058  11.647   5.451
49911SOL    HW151507   0.152  11.636   5.437
49911SOL    HW251508   0.022  11.559   5.441
49912SOL     OW51509   8.845   6.414   0.126
49912SOL    HW151510   8.829   6.338   0.182
49912SOL    HW251511   8.901   6.471   0.179
49913SOL     OW51512   3.060   1.709   6.257
49913SOL    HW151513   3.066   1.738   6.166
49913SOL    HW251514   2.979   1.749   6.289
49914SOL     OW51515   2.344   2.650  12.748
49914SOL    HW151516   2.409   2.720  12.752
49914SOL    HW251517   2.264   2.694  12.720
49915SOL     OW51518   0.138  13.114  10.311
49915SOL    HW151519   0.190  13.174  10.364
49915SOL    HW251520   0.116  13.164  10.232
49916SOL     OW51521   5.866   6.214  12.474
49916SOL    HW151522   5.890   6.271  12.547
49916SOL    HW251523   5.948   6.202  12.426
49917SOL     OW51524  11.729   0.840  11.283
49917SOL    HW151525  11.710   0.769  11.345
49917SOL    HW251526  11.678   0.819  11.205
49918SOL     OW51527   0.114   2.347   5.179
49918SOL    HW151528   0.170   2.279   5.142
49918SOL    HW251529   0.026   2.325   5.148
49919SOL     OW51530  10.384  10.510  14.220
49919SOL    HW151531  10.374  10.417  14.239
49919SOL    HW251532  10.304  10.533  14.173
49920SOL     OW51533   9.573  12.701   4.788
49920SOL    HW151534   9.649  12.752   4.816
49920SOL    HW251535   9.512  12.708   4.862
49921SOL     OW51536   9.696   2.689  11.809
49921SOL    HW151537   9.762   2.758  11.806
49921SOL    HW251538   9.724   2.631  11.880
49922SOL     OW51539  12.697  11.983  13.270
49922SOL    HW151540  12.611  11.942  13.276
49922SOL    HW251541  12.748  11.942  13.340
49923SOL     OW51542  14.078  14.587   8.021
49923SOL    HW151543  14.050  14.606   7.932
49923SOL    HW251544  13.997  14.588   8.073
49924SOL     OW51545   5.750   7.349   1.248
49924SOL    HW151546   5.841   7.329   1.227
49924SOL    HW251547   5.740   7.442   1.225
49925SOL     OW51548   6.068   4.323  12.565
49925SOL    HW151549   6.153   4.358  12.590
49925SOL    HW251550   6.068   4.233  12.599
49926SOL     OW51551   5.470   7.064   8.785
49926SOL    HW151552   5.538   7.122   8.821
49926SOL    HW251553   5.399   7.068   8.849
49927SOL     OW51554   7.299   3.257  11.526
49927SOL    HW151555   7.318   3.163  11.531
49927SOL    HW251556   7.326   3.281  11.437
49928SOL     OW51557   6.380  11.826  10.852
49928SOL    HW151558   6.403  11.763  10.783
49928SOL    HW251559   6.341  11.900  10.805
49929SOL     OW51560   0.466   2.595  10.935
49929SOL    HW151561   0.461   2.558  11.023
49929SOL    HW251562   0.443   2.521  10.877
49930SOL     OW51563   7.661   9.701  14.542
49930SOL    HW151564   7.637   9.715  14.633
49930SOL    HW251565   7.608   9.763  14.492
49931SOL     OW51566   0.033   8.066   8.582
49931SOL    HW151567   0.072   7.979   8.572
49931SOL    HW251568  14.840   8.054   8.645
49932SOL     OW51569  10.699   6.750   4.533
49932SOL    HW151570  10.626   6.718   4.586
49932SOL    HW251571  10.694   6.845   4.540
49933SOL     OW51572   1.788   3.791  13.496
49933SOL    HW151573   1.712   3.849  13.507
49933SOL    HW251574   1.839   3.832  13.426
49934SOL     OW51575  11.416   3.576   8.224
49934SOL    HW151576  11.393   3.502   8.168
49934SOL    HW251577  11.510   3.564   8.242
49935SOL     OW51578   7.498   3.687  12.205
49935SOL    HW151579   7.501   3.698  12.110
49935SOL    HW251580   7.590   3.676  12.231
49936SOL     OW51581   3.542   1.471   5.306
49936SOL    HW151582   3.465   1.467   5.364
49936SOL    HW251583   3.505   1.470   5.218
49937SOL     OW51584   3.828   0.256   7.972
49937SOL    HW151585   3.744   0.213   7.990
49937SOL    HW251586   3.804   0.347   7.955
49938SOL     OW51587   9.151  12.506  13.514
49938SOL    HW151588   9.216  12.448  13.554
49938SOL    HW251589   9.097  12.449  13.460
49939SOL     OW51590  13.486   5.893   6.417
49939SOL    HW151591  13.573   5.878   6.455
49939SOL    HW251592  13.462   5.809   6.378
49940SOL     OW51593  14.701  13.529  10.306
49940SOL    HW151594  14.694  13.516  10.211
49940SOL    HW251595  14.734  13.446  10.339
49941SOL     OW51596  13.109  10.947  13.775
49941SOL    HW151597  13.107  10.854  13.754
49941SOL    HW251598  13.081  10.991  13.695
49942SOL     OW51599  10.963  12.223   8.532
49942SOL    HW151600  11.054  12.199   8.549
49942SOL    HW251601  10.962  12.318   8.532
49943SOL     OW51602   9.930  11.907  11.744
49943SOL    HW151603   9.854  11.892  11.688
49943SOL    HW251604   9.911  11.988  11.790
49944SOL     OW51605   7.206   4.444   8.566
49944SOL    HW151606   7.230   4.531   8.597
49944SOL    HW251607   7.177   4.397   8.645
49945SOL     OW51608   8.703   8.202  10.148
49945SOL    HW151609   8.756   8.171  10.075
49945SOL    HW251610   8.614   8.173  10.127
49946SOL     OW51611   4.221   0.627   4.481
49946SOL    HW151612   4.286   0.668   4.424
49946SOL    HW251613   4.222   0.534   4.456
49947SOL     OW51614  14.051  11.437   7.112
49947SOL    HW151615  14.015  11.406   7.029
49947SOL    HW251616  14.110  11.368   7.140
49948SOL     OW51617  12.181   6.453   1.888
49948SOL    HW151618  12.152   6.385   1.949
49948SOL    HW251619  12.230   6.514   1.942
49949SOL     OW51620   5.357  11.263   2.197
49949SOL    HW151621   5.426  11.226   2.142
49949SOL    HW251622   5.297  11.305   2.136
49950SOL     OW51623   9.642  14.446  11.570
49950SOL    HW151624   9.703  14.438  11.497
49950SOL    HW251625   9.660  14.533  11.606
49951SOL     OW51626  11.636  14.580   9.846
49951SOL    HW151627  11.585  14.643   9.897
49951SOL    HW251628  11.727  14.597   9.872
49952SOL     OW51629   4.041   3.752  10.252
49952SOL    HW151630   3.993   3.704  10.183
49952SOL    HW251631   3.972   3.790  10.306
49953SOL     OW51632  13.027  12.355  12.419
49953SOL    HW151633  13.077  12.369  12.339
49953SOL    HW251634  13.090  12.369  12.490
49954SOL     OW51635  14.692  13.197  13.741
49954SOL    HW151636  14.614  13.141  13.748
49954SOL    HW251637  14.659  13.280  13.707
49955SOL     OW51638   0.615   1.298   4.008
49955SOL    HW151639   0.608   1.385   3.969
49955SOL    HW251640   0.629   1.315   4.101
49956SOL     OW51641  14.249   8.101   6.700
49956SOL    HW151642  14.208   8.030   6.749
49956SOL    HW251643  14.326   8.059   6.659
49957SOL     OW51644   0.383  10.864   4.351
49957SOL    HW151645   0.376  10.779   4.309
49957SOL    HW251646   0.406  10.845   4.442
49958SOL     OW51647   6.519   1.863   5.187
49958SOL    HW151648   6.490   1.930   5.249
49958SOL    HW251649   6.598   1.827   5.226
49959SOL     OW51650   6.778  10.397   7.880
49959SOL    HW151651   6.757  10.309   7.912
49959SOL    HW251652   6.808  10.445   7.957
49960SOL     OW51653   8.609  14.603   2.587
49960SOL    HW151654   8.561  14.681   2.559
49960SOL    HW251655   8.701  14.627   2.582
49961SOL     OW51656  10.332  10.107   1.859
49961SOL    HW151657  10.319  10.146   1.773
49961SOL    HW251658  10.364  10.019   1.840
49962SOL     OW51659   3.870   0.687   3.737
49962SOL    HW151660   3.872   0.592   3.743
49962SOL    HW251661   3.809   0.714   3.806
49963SOL     OW51662   7.375  12.544   2.195
49963SOL    HW151663   7.468  12.567   2.196
49963SOL    HW251664   7.373  12.458   2.153
49964SOL     OW51665   5.430   2.519   1.547
49964SOL    HW151666   5.395   2.545   1.631
49964SOL    HW251667   5.353   2.501   1.493
49965SOL     OW51668   4.993   1.343   5.029
49965SOL    HW151669   4.977   1.372   4.939
49965SOL    HW251670   4.919   1.287   5.050
49966SOL     OW51671  11.635  10.789   9.890
49966SOL    HW151672  11.708  10.816   9.834
49966SOL    HW251673  11.565  10.850   9.868
49967SOL     OW51674   4.080   0.374   3.914
49967SOL    HW151675   4.089   0.469   3.915
49967SOL    HW251676   4.165   0.342   3.946
49968SOL     OW51677  13.167   0.371   4.364
49968SOL    HW151678  13.090   0.424   4.384
49968SOL    HW251679  13.148   0.332   4.278
49969SOL     OW51680   2.513   0.062  14.095
49969SOL    HW151681   2.446  14.872  14.087
49969SOL    HW251682   2.496   0.121  14.022
49970SOL     OW51683  11.348   7.345   7.939
49970SOL    HW151684  11.297   7.306   7.868
49970SOL    HW251685  11.290   7.340   8.015
49971SOL     OW51686   4.049   7.181   9.970
49971SOL    HW151687   4.046   7.252   9.905
49971SOL    HW251688   4.025   7.103   9.920
49972SOL     OW51689   6.354   5.593   9.818
49972SOL    HW151690   6.301   5.591   9.738
49972SOL    HW251691   6.304   5.540   9.881
49973SOL     OW51692   7.180  11.013   7.540
49973SOL    HW151693   7.130  10.933   7.521
49973SOL    HW251694   7.270  10.991   7.514
49974SOL     OW51695   3.845   2.755   9.014
49974SOL    HW151696   3.768   2.812   9.016
49974SOL    HW251697   3.818   2.676   9.061
49975SOL     OW51698  11.352   8.071   0.930
49975SOL    HW151699  11.391   8.101   1.013
49975SOL    HW251700  11.316   7.985   0.951
49976SOL     OW51701  14.116   3.700   7.339
49976SOL    HW151702  14.142   3.654   7.419
49976SOL    HW251703  14.099   3.790   7.367
49977SOL     OW51704   6.679  14.548   5.864
49977SOL    HW151705   6.661  14.613   5.796
49977SOL    HW251706   6.594  14.509   5.883
49978SOL     OW51707   3.807  14.383   0.015
49978SOL    HW151708   3.869  14.448  14.861
49978SOL    HW251709   3.747  14.431   0.071
49979SOL     OW51710   8.666   5.468   5.998
49979SOL    HW151711   8.629   5.540   6.048
49979SOL    HW251712   8.670   5.395   6.060
49980SOL     OW51713  13.067   4.733   2.150
49980SOL    HW151714  13.006   4.677   2.103
49980SOL    HW251715  13.131   4.672   2.187
49981SOL     OW51716   1.763   8.113   5.548
49981SOL    HW151717   1.750   8.183   5.484
49981SOL    HW251718   1.778   8.159   5.630
49982SOL     OW51719   6.724   2.030   0.809
49982SOL    HW151720   6.747   1.950   0.761
49982SOL    HW251721   6.785   2.096   0.776
49983SOL     OW51722   2.580   1.820   3.463
49983SOL    HW151723   2.615   1.800   3.376
49983SOL    HW251724   2.526   1.898   3.450
49984SOL     OW51725   4.940   3.858  13.218
49984SOL    HW151726   4.857   3.856  13.266
49984SOL    HW251727   4.950   3.769  13.184
49985SOL     OW51728   6.125   1.687  10.720
49985SOL    HW151729   6.204   1.737  10.739
49985SOL    HW251730   6.133   1.607  10.771
49986SOL     OW51731  12.704   5.794  10.435
49986SOL    HW151732  12.738   5.839  10.358
49986SOL    HW251733  12.609   5.793  10.422
49987SOL     OW51734   3.010   7.642   0.829
49987SOL    HW151735   3.044   7.723   0.791
49987SOL    HW251736   3.082   7.611   0.885
49988SOL     OW51737   7.645  10.328   6.520
49988SOL    HW151738   7.625  10.419   6.542
49988SOL    HW251739   7.693  10.334   6.437
49989SOL     OW51740  13.685   0.131   9.508
49989SOL    HW151741  13.718   0.042   9.516
49989SOL    HW251742  13.696   0.168   9.596
49990SOL     OW51743   5.859  11.000   4.901
49990SOL    HW151744   5.875  11.091   4.927
49990SOL    HW251745   5.834  11.005   4.809
49991SOL     OW51746  11.465   6.822   6.822
49991SOL    HW151747  11.423   6.815   6.737
49991SOL    HW251748  11.505   6.909   6.822
49992SOL     OW51749  10.114   9.643  12.805
49992SOL    HW151750  10.208   9.626  12.798
49992SOL    HW251751  10.107   9.738  12.808
49993SOL     OW51752   0.056   8.713   7.450
49993SOL    HW151753   0.055   8.709   7.545
49993SOL    HW251754  14.852   8.759   7.427
49994SOL     OW51755   5.342   1.772   3.149
49994SOL    HW151756   5.436   1.754   3.147
49994SOL    HW251757   5.317   1.777   3.057
49995SOL     OW51758   5.763  11.532   3.559
49995SOL    HW151759   5.805  11.456   3.520
49995SOL    HW251760   5.697  11.559   3.495
49996SOL     OW51761   1.320   8.189  13.053
49996SOL    HW151762   1.264   8.117  13.082
49996SOL    HW251763   1.407   8.150  13.046
49997SOL     OW51764   6.117   3.223  10.068
49997SOL    HW151765   6.143   3.269   9.988
49997SOL    HW251766   6.024   3.204  10.056
49998SOL     OW51767  12.324   1.828   2.740
49998SOL    HW151768  12.376   1.836   2.820
49998SOL    HW251769  12.341   1.909   2.692
49999SOL     OW51770   3.940   5.469  12.452
49999SOL    HW151771   4.013   5.422  12.492
49999SOL    HW251772   3.889   5.401  12.407
50000SOL     OW51773  13.244   5.960   9.922
50000SOL    HW151774  13.256   5.942  10.015
50000SOL    HW251775  13.217   6.052   9.919
50001SOL     OW51776   8.736   1.663   1.340
50001SOL    HW151777   8.826   1.647   1.313
50001SOL    HW251778   8.689   1.583   1.316
50002SOL     OW51779  10.813   9.146   5.303
50002SOL    HW151780  10.874   9.094   5.250
50002SOL    HW251781  10.766   9.199   5.238
50003SOL     OW51782   2.691   9.717  11.330
50003SOL    HW151783   2.679   9.623  11.333
50003SOL    HW251784   2.729   9.740  11.415
50004SOL     OW51785  11.366  11.978   4.969
50004SOL    HW151786  11.278  11.940   4.967
50004SOL    HW251787  11.375  12.011   5.058
50005SOL     OW51788  14.661  12.762   0.557
50005SOL    HW151789  14.618  12.803   0.631
50005SOL    HW251790  14.609  12.786   0.481
50006SOL     OW51791   2.412   4.009  12.369
50006SOL    HW151792   2.479   4.000  12.302
50006SOL    HW251793   2.342   3.949  12.341
50007SOL     OW51794   1.889   9.545   4.301
50007SOL    HW151795   1.897   9.640   4.287
50007SOL    HW251796   1.978   9.512   4.292
50008SOL     OW51797   7.232  12.953   7.824
50008SOL    HW151798   7.289  12.882   7.856
50008SOL    HW251799   7.183  12.913   7.752
50009SOL     OW51800   4.116  11.652  10.928
50009SOL    HW151801   4.024  11.638  10.950
50009SOL    HW251802   4.163  11.586  10.977
50010SOL     OW51803   7.515   7.805  11.860
50010SOL    HW151804   7.551   7.776  11.944
50010SOL    HW251805   7.582   7.863  11.824
50011SOL     OW51806   7.936   6.051   4.294
50011SOL    HW151807   7.872   6.002   4.244
50011SOL    HW251808   8.006   5.988   4.312
50012SOL     OW51809   3.096  10.218   0.893
50012SOL    HW151810   3.102  10.312   0.909
50012SOL    HW251811   3.047  10.210   0.812
50013SOL     OW51812  10.316   5.693   2.783
50013SOL    HW151813  10.238   5.653   2.744
50013SOL    HW251814  10.331   5.773   2.733
50014SOL     OW51815  13.975   2.231   3.504
50014SOL    HW151816  13.958   2.137   3.513
50014SOL    HW251817  14.056   2.236   3.453
50015SOL     OW51818   6.232  13.680   7.925
50015SOL    HW151819   6.282  13.761   7.934
50015SOL    HW251820   6.287  13.624   7.870
50016SOL     OW51821  10.467  11.161  12.992
50016SOL    HW151822  10.497  11.236  12.941
50016SOL    HW251823  10.413  11.198  13.062
50017SOL     OW51824   3.182   8.885  13.506
50017SOL    HW151825   3.088   8.894  13.495
50017SOL    HW251826   3.192   8.829  13.583
50018SOL     OW51827   2.286   7.271   4.884
50018SOL    HW151828   2.204   7.275   4.833
50018SOL    HW251829   2.355   7.285   4.819
50019SOL     OW51830   1.574   1.885   2.645
50019SOL    HW151831   1.601   1.796   2.666
50019SOL    HW251832   1.633   1.912   2.574
50020SOL     OW51833  10.827  13.594   7.839
50020SOL    HW151834  10.785  13.631   7.761
50020SOL    HW251835  10.895  13.658   7.862
50021SOL     OW51836   2.373   7.870   7.060
50021SOL    HW151837   2.300   7.920   7.096
50021SOL    HW251838   2.342   7.779   7.061
50022SOL     OW51839  14.102  12.585   9.751
50022SOL    HW151840  14.075  12.662   9.801
50022SOL    HW251841  14.180  12.613   9.703
50023SOL     OW51842   4.756   2.336   6.119
50023SOL    HW151843   4.686   2.290   6.072
50023SOL    HW251844   4.712   2.375   6.195
50024SOL     OW51845   8.935  14.775  14.779
50024SOL    HW151846   8.883  14.725  14.842
50024SOL    HW251847   8.900  14.748  14.694
50025SOL     OW51848  11.339   0.898  10.476
50025SOL    HW151849  11.390   0.937  10.547
50025SOL    HW251850  11.301   0.819  10.513
50026SOL     OW51851  12.505   9.122  13.486
50026SOL    HW151852  12.495   9.160  13.574
50026SOL    HW251853  12.416   9.114  13.453
50027SOL     OW51854  11.938   4.905  14.393
50027SOL    HW151855  11.863   4.845  14.393
50027SOL    HW251856  12.004   4.860  14.445
50028SOL     OW51857  10.736   4.354   9.075
50028SOL    HW151858  10.777   4.429   9.118
50028SOL    HW251859  10.719   4.293   9.147
50029SOL     OW51860  12.876   9.398   0.176
50029SOL    HW151861  12.962   9.439   0.165
50029SOL    HW251862  12.820   9.468   0.210
50030SOL     OW51863   0.014  11.636  10.543
50030SOL    HW151864  14.866  11.678  10.461
50030SOL    HW251865  14.809  11.626  10.592
50031SOL     OW51866  13.121  11.950   1.956
50031SOL    HW151867  13.056  11.886   1.984
50031SOL    HW251868  13.073  12.011   1.900
50032SOL     OW51869   4.713  13.773   9.440
50032SOL    HW151870   4.709  13.857   9.396
50032SOL    HW251871   4.671  13.788   9.525
50033SOL     OW51872  11.537  13.520   0.824
50033SOL    HW151873  11.631  13.539   0.831
50033SOL    HW251874  11.512  13.493   0.912
50034SOL     OW51875   8.798   2.700  13.003
50034SOL    HW151876   8.877   2.646  13.003
50034SOL    HW251877   8.779   2.714  12.910
50035SOL     OW51878   3.048   9.256   5.508
50035SOL    HW151879   3.029   9.331   5.564
50035SOL    HW251880   3.024   9.180   5.561
50036SOL     OW51881  11.498   3.123   0.478
50036SOL    HW151882  11.560   3.050   0.486
50036SOL    HW251883  11.480   3.129   0.384
50037SOL     OW51884  13.458  10.400   3.937
50037SOL    HW151885  13.373  10.398   3.893
50037SOL    HW251886  13.439  10.374   4.027
50038SOL     OW51887   9.071   2.514   6.122
50038SOL    HW151888   9.151   2.476   6.086
50038SOL    HW251889   9.095   2.604   6.144
50039SOL     OW51890  11.680   2.795  14.182
50039SOL    HW151891  11.599   2.795  14.234
50039SOL    HW251892  11.664   2.730  14.114
50040SOL     OW51893   5.197   8.664   3.130
50040SOL    HW151894   5.186   8.722   3.055
50040SOL    HW251895   5.190   8.576   3.092
50041SOL     OW51896   5.460   8.214   9.827
50041SOL    HW151897   5.488   8.298   9.793
50041SOL    HW251898   5.513   8.201   9.906
50042SOL     OW51899   4.394   6.506   7.198
50042SOL    HW151900   4.348   6.589   7.208
50042SOL    HW251901   4.330   6.447   7.161
50043SOL     OW51902  11.391  10.343   4.136
50043SOL    HW151903  11.339  10.352   4.215
50043SOL    HW251904  11.477  10.379   4.159
50044SOL     OW51905   0.087   6.229  14.004
50044SOL    HW151906   0.062   6.144  13.966
50044SOL    HW251907   0.027   6.291  13.964
50045SOL     OW51908   9.827   4.475   4.966
50045SOL    HW151909   9.860   4.449   4.880
50045SOL    HW251910   9.890   4.539   4.998
50046SOL     OW51911  12.567   8.883  10.631
50046SOL    HW151912  12.583   8.939  10.555
50046SOL    HW251913  12.474   8.896  10.651
50047SOL     OW51914   4.643  12.025  12.229
50047SOL    HW151915   4.660  12.088  12.300
50047SOL    HW251916   4.730  11.992  12.206
50048SOL     OW51917  10.692   2.571   5.181
50048SOL    HW151918  10.727   2.581   5.270
50048SOL    HW251919  10.682   2.661   5.150
50049SOL     OW51920   1.037   8.193  14.603
50049SOL    HW151921   0.975   8.150  14.545
50049SOL    HW251922   1.035   8.141  14.683
50050SOL     OW51923  10.150  10.263   5.437
50050SOL    HW151924  10.102  10.182   5.453
50050SOL    HW251925  10.090  10.315   5.382
50051SOL     OW51926  10.751  11.892  11.124
50051SOL    HW151927  10.746  11.797  11.130
50051SOL    HW251928  10.720  11.924  11.209
50052SOL     OW51929   5.701   4.547   9.093
50052SOL    HW151930   5.752   4.557   9.012
50052SOL    HW251931   5.683   4.637   9.121
50053SOL     OW51932   1.937  13.200  11.769
50053SOL    HW151933   1.853  13.156  11.758
50053SOL    HW251934   1.989  13.139  11.822
50054SOL     OW51935   3.486   6.612   3.117
50054SOL    HW151936   3.421   6.614   3.047
50054SOL    HW251937   3.444   6.563   3.187
50055SOL     OW51938  11.216   3.711  13.775
50055SOL    HW151939  11.138   3.697  13.721
50055SOL    HW251940  11.233   3.626  13.816
50056SOL     OW51941   6.576   0.847   3.527
50056SOL    HW151942   6.515   0.915   3.555
50056SOL    HW251943   6.633   0.891   3.463
50057SOL     OW51944   3.286   1.533  13.005
50057SOL    HW151945   3.249   1.448  13.030
50057SOL    HW251946   3.214   1.595  13.015
50058SOL     OW51947   0.415  11.716   9.151
50058SOL    HW151948   0.478  11.755   9.091
50058SOL    HW251949   0.466  11.699   9.231
50059SOL     OW51950   7.513   1.795   3.982
50059SOL    HW151951   7.544   1.800   4.072
50059SOL    HW251952   7.537   1.880   3.943
50060SOL     OW51953   6.547   0.789   4.038
50060SOL    HW151954   6.633   0.762   4.008
50060SOL    HW251955   6.564   0.859   4.101
50061SOL     OW51956   9.295   6.530   6.032
50061SOL    HW151957   9.234   6.532   6.105
50061SOL    HW251958   9.332   6.618   6.029
50062SOL     OW51959   6.764  12.150  13.520
50062SOL    HW151960   6.688  12.172  13.467
50062SOL    HW251961   6.786  12.060  13.494
50063SOL     OW51962   5.470   6.730  10.090
50063SOL    HW151963   5.492   6.822  10.070
50063SOL    HW251964   5.378   6.722  10.066
50064SOL     OW51965  14.381   1.286   7.050
50064SOL    HW151966  14.366   1.257   7.140
50064SOL    HW251967  14.320   1.359   7.038
50065SOL     OW51968   5.880   8.347  13.925
50065SOL    HW151969   5.960   8.330  13.976
50065SOL    HW251970   5.867   8.441  13.933
50066SOL     OW51971   8.435   7.566   1.313
50066SOL    HW151972   8.526   7.587   1.293
50066SOL    HW251973   8.408   7.508   1.241
50067SOL     OW51974  12.445  12.662  11.731
50067SOL    HW151975  12.463  12.569  11.723
50067SOL    HW251976  12.512  12.694  11.791
50068SOL     OW51977   8.477   0.818  11.438
50068SOL    HW151978   8.399   0.792  11.389
50068SOL    HW251979   8.507   0.738  11.480
50069SOL     OW51980  10.841  11.049   8.703
50069SOL    HW151981  10.904  10.977   8.712
50069SOL    HW251982  10.770  11.026   8.763
50070SOL     OW51983   9.019  14.513   3.015
50070SOL    HW151984   8.955  14.560   3.068
50070SOL    HW251985   9.065  14.581   2.966
50071SOL     OW51986   9.757   8.015   7.734
50071SOL    HW151987   9.674   7.983   7.769
50071SOL    HW251988   9.738   8.104   7.706
50072SOL     OW51989   7.654  14.018   4.614
50072SOL    HW151990   7.726  13.968   4.577
50072SOL    HW251991   7.651  13.991   4.706
50073SOL     OW51992   8.441   4.627   4.195
50073SOL    HW151993   8.453   4.721   4.181
50073SOL    HW251994   8.453   4.589   4.108
50074SOL     OW51995   8.633  10.705   4.376
50074SOL    HW151996   8.544  10.738   4.384
50074SOL    HW251997   8.652  10.666   4.461
50075SOL     OW51998   1.406   0.419   3.299
50075SOL    HW151999   1.495   0.450   3.316
50075SOL    HW252000   1.398   0.339   3.351
50076SOL     OW52001   0.966   0.045   4.734
50076SOL    HW152002   1.007   0.051   4.821
50076SOL    HW252003   0.971  14.830   4.711
50077SOL     OW52004   2.148   3.320   0.916
50077SOL    HW152005   2.097   3.239   0.919
50077SOL    HW252006   2.229   3.298   0.962
50078SOL     OW52007  13.497  14.533  11.415
50078SOL    HW152008  13.504  14.447  11.374
50078SOL    HW252009  13.553  14.590  11.361
50079SOL     OW52010   3.392   4.003   5.939
50079SOL    HW152011   3.357   3.982   6.026
50079SOL    HW252012   3.329   3.965   5.878
50080SOL     OW52013  11.259   2.573   8.340
50080SOL    HW152014  11.294   2.647   8.290
50080SOL    HW252015  11.217   2.518   8.274
50081SOL     OW52016   9.195   6.323   0.307
50081SOL    HW152017   9.208   6.418   0.305
50081SOL    HW252018   9.280   6.287   0.283
50082SOL     OW52019   0.502   9.669  14.628
50082SOL    HW152020   0.411   9.699  14.621
50082SOL    HW252021   0.501   9.607  14.700
50083SOL     OW52022   0.369   7.360   1.184
50083SOL    HW152023   0.351   7.452   1.165
50083SOL    HW252024   0.464   7.354   1.187
50084SOL     OW52025  10.607   1.388   3.549
50084SOL    HW152026  10.594   1.322   3.617
50084SOL    HW252027  10.665   1.347   3.486
50085SOL     OW52028   5.728  13.646  11.860
50085SOL    HW152029   5.675  13.684  11.790
50085SOL    HW252030   5.730  13.713  11.928
50086SOL     OW52031   3.261   4.083  14.401
50086SOL    HW152032   3.258   3.989  14.419
50086SOL    HW252033   3.295   4.089  14.312
50087SOL     OW52034   9.101   8.773   9.414
50087SOL    HW152035   9.024   8.723   9.440
50087SOL    HW252036   9.130   8.817   9.493
50088SOL     OW52037  14.093   2.526  12.166
50088SOL    HW152038  14.091   2.517  12.261
50088SOL    HW252039  14.063   2.615  12.149
50089SOL     OW52040   2.789  12.073   4.313
50089SOL    HW152041   2.856  12.038   4.254
50089SOL    HW252042   2.787  12.167   4.293
50090SOL     OW52043   9.405   0.898  14.132
50090SOL    HW152044   9.399   0.969  14.195
50090SOL    HW252045   9.462   0.931  14.062
50091SOL     OW52046   0.801  10.422  10.396
50091SOL    HW152047   0.864  10.353  10.418
50091SOL    HW252048   0.809  10.485  10.468
50092SOL     OW52049   6.058   7.695   2.849
50092SOL    HW152050   6.080   7.739   2.931
50092SOL    HW252051   6.142   7.670   2.811
50093SOL     OW52052   4.800   8.926  11.607
50093SOL    HW152053   4.720   8.946  11.655
50093SOL    HW252054   4.774   8.928  11.515
50094SOL     OW52055   2.729  13.300   0.547
50094SOL    HW152056   2.695  13.383   0.515
50094SOL    HW252057   2.817  13.294   0.509
50095SOL     OW52058   1.107  10.698   9.503
50095SOL    HW152059   1.082  10.608   9.484
50095SOL    HW252060   1.037  10.751   9.463
50096SOL     OW52061   9.541  10.772   3.740
50096SOL    HW152062   9.563  10.770   3.833
50096SOL    HW252063   9.490  10.692   3.726
50097SOL     OW52064   2.223   6.487   3.027
50097SOL    HW152065   2.205   6.394   3.011
50097SOL    HW252066   2.195   6.531   2.947
50098SOL     OW52067  14.870   1.715   4.346
50098SOL    HW152068  14.778   1.726   4.372
50098SOL    HW252069   0.017   1.629   4.379
50099SOL     OW52070   9.286  14.606   3.249
50099SOL    HW152071   9.300  14.591   3.342
50099SOL    HW252072   9.276  14.518   3.212
50100SOL     OW52073   1.357  12.809   9.671
50100SOL    HW152074   1.264  12.799   9.654
50100SOL    HW252075   1.387  12.720   9.690
50101SOL     OW52076   5.503   8.493  11.675
50101SOL    HW152077   5.539   8.406  11.696
50101SOL    HW252078   5.450   8.515  11.751
50102SOL     OW52079   1.519  11.342   0.872
50102SOL    HW152080   1.525  11.426   0.916
50102SOL    HW252081   1.453  11.293   0.921
50103SOL     OW52082   7.187   1.618   6.858
50103SOL    HW152083   7.146   1.581   6.937
50103SOL    HW252084   7.276   1.641   6.885
50104SOL     OW52085   6.204   6.538   9.243
50104SOL    HW152086   6.288   6.573   9.272
50104SOL    HW252087   6.182   6.590   9.165
50105SOL     OW52088  10.942   5.187   0.116
50105SOL    HW152089  10.880   5.253   0.148
50105SOL    HW252090  10.962   5.216   0.027
50106SOL     OW52091  12.814   8.812  13.124
50106SOL    HW152092  12.894   8.776  13.163
50106SOL    HW252093  12.815   8.904  13.152
50107SOL     OW52094  11.285   8.918   5.741
50107SOL    HW152095  11.303   8.958   5.656
50107SOL    HW252096  11.335   8.836   5.740
50108SOL     OW52097   2.526  11.768   7.951
50108SOL    HW152098   2.567  11.751   8.037
50108SOL    HW252099   2.505  11.861   7.953
50109SOL     OW52100  10.987   1.181   9.160
50109SOL    HW152101  10.906   1.176   9.210
50109SOL    HW252102  10.960   1.175   9.069
50110SOL     OW52103   2.934  10.416  12.047
50110SOL    HW152104   3.020  10.442  12.016
50110SOL    HW252105   2.903  10.353  11.982
50111SOL     OW52106   6.333  10.600   0.592
50111SOL    HW152107   6.334  10.527   0.531
50111SOL    HW252108   6.284  10.669   0.546
50112SOL     OW52109   2.761  12.850   2.317
50112SOL    HW152110   2.808  12.887   2.392
50112SOL    HW252111   2.829  12.807   2.265
50113SOL     OW52112   9.711   3.107  12.930
50113SOL    HW152113   9.663   3.090  12.849
50113SOL    HW252114   9.674   3.189  12.963
50114SOL     OW52115   3.947   0.474   7.337
50114SOL    HW152116   3.882   0.524   7.287
50114SOL    HW252117   3.975   0.405   7.278
50115SOL     OW52118   4.666   0.318   2.934
50115SOL    HW152119   4.657   0.337   3.027
50115SOL    HW252120   4.644   0.225   2.927
50116SOL     OW52121   5.222   9.937  11.207
50116SOL    HW152122   5.310   9.922  11.172
50116SOL    HW252123   5.167   9.873  11.162
50117SOL     OW52124  11.408   3.713   4.737
50117SOL    HW152125  11.498   3.730   4.710
50117SOL    HW252126  11.405   3.618   4.750
50118SOL     OW52127   5.722   8.987  11.393
50118SOL    HW152128   5.630   8.960  11.388
50118SOL    HW252129   5.751   8.958  11.479
50119SOL     OW52130   8.468   7.476   3.035
50119SOL    HW152131   8.511   7.444   2.956
50119SOL    HW252132   8.416   7.402   3.066
50120SOL     OW52133   2.664   8.505   9.627
50120SOL    HW152134   2.655   8.437   9.693
50120SOL    HW252135   2.585   8.559   9.638
50121SOL     OW52136   6.844  12.520   6.102
50121SOL    HW152137   6.841  12.426   6.119
50121SOL    HW252138   6.923  12.550   6.146
50122SOL     OW52139   8.425   3.254  13.057
50122SOL    HW152140   8.342   3.280  13.097
50122SOL    HW252141   8.480   3.332  13.062
50123SOL     OW52142   3.220   5.800   6.771
50123SOL    HW152143   3.271   5.755   6.838
50123SOL    HW252144   3.270   5.880   6.753
50124SOL     OW52145  12.517  11.096   6.662
50124SOL    HW152146  12.583  11.071   6.727
50124SOL    HW252147  12.561  11.157   6.604
50125SOL     OW52148   4.960   1.021  11.065
50125SOL    HW152149   4.923   0.940  11.100
50125SOL    HW252150   4.917   1.032  10.980
50126SOL     OW52151   2.379  10.776  13.217
50126SOL    HW152152   2.342  10.754  13.302
50126SOL    HW252153   2.426  10.858  13.232
50127SOL     OW52154   0.879  13.018   0.067
50127SOL    HW152155   0.801  12.966   0.086
50127SOL    HW252156   0.939  12.998   0.139
50128SOL     OW52157   3.701   6.373  11.431
50128SOL    HW152158   3.657   6.374  11.516
50128SOL    HW252159   3.758   6.450  11.433
50129SOL     OW52160  13.338   9.594  10.562
50129SOL    HW152161  13.385   9.517  10.528
50129SOL    HW252162  13.375   9.607  10.649
50130SOL     OW52163   5.180   6.121   2.067
50130SOL    HW152164   5.166   6.165   2.150
50130SOL    HW252165   5.149   6.183   2.001
50131SOL     OW52166   3.800   1.438   3.974
50131SOL    HW152167   3.856   1.461   4.049
50131SOL    HW252168   3.712   1.464   4.002
50132SOL     OW52169   0.170   8.967   7.512
50132SOL    HW152170   0.130   8.922   7.438
50132SOL    HW252171   0.263   8.944   7.507
50133SOL     OW52172   1.150   3.186  10.977
50133SOL    HW152173   1.246   3.182  10.974
50133SOL    HW252174   1.125   3.216  10.890
50134SOL     OW52175   5.526  10.590   2.015
50134SOL    HW152176   5.548  10.519   1.955
50134SOL    HW252177   5.560  10.561   2.100
50135SOL     OW52178  14.208   3.687   2.612
50135SOL    HW152179  14.171   3.621   2.671
50135SOL    HW252180  14.142   3.696   2.542
50136SOL     OW52181  12.901   5.329   4.733
50136SOL    HW152182  12.853   5.247   4.737
50136SOL    HW252183  12.867   5.373   4.655
50137SOL     OW52184   1.753  14.763   5.304
50137SOL    HW152185   1.744  14.673   5.333
50137SOL    HW252186   1.669  14.785   5.264
50138SOL     OW52187  13.577  14.724   4.815
50138SOL    HW152188  13.624  14.642   4.829
50138SOL    HW252189  13.488  14.697   4.792
50139SOL     OW52190  13.957   8.002  13.556
50139SOL    HW152191  13.942   8.095  13.570
50139SOL    HW252192  14.025   7.979  13.619
50140SOL     OW52193  10.428   4.293   1.276
50140SOL    HW152194  10.456   4.291   1.368
50140SOL    HW252195  10.332   4.293   1.281
50141SOL     OW52196  12.829   5.248  12.545
50141SOL    HW152197  12.883   5.298  12.483
50141SOL    HW252198  12.891   5.187  12.586
50142SOL     OW52199  12.637   1.480   3.719
50142SOL    HW152200  12.708   1.416   3.721
50142SOL    HW252201  12.682   1.565   3.714
50143SOL     OW52202   7.784  13.294   9.205
50143SOL    HW152203   7.770  13.246   9.123
50143SOL    HW252204   7.699  13.333   9.224
50144SOL     OW52205   7.125   0.549  12.976
50144SOL    HW152206   7.199   0.507  13.020
50144SOL    HW252207   7.056   0.482  12.976
50145SOL     OW52208   8.668  14.449   0.313
50145SOL    HW152209   8.719  14.484   0.239
50145SOL    HW252210   8.726  14.385   0.354
50146SOL     OW52211   6.006  10.009   9.794
50146SOL    HW152212   5.968  10.009   9.882
50146SOL    HW252213   6.010   9.917   9.770
50147SOL     OW52214   8.980   8.220   0.742
50147SOL    HW152215   8.996   8.310   0.711
50147SOL    HW252216   8.900   8.193   0.696
50148SOL     OW52217   9.091   1.412  13.318
50148SOL    HW152218   9.118   1.341  13.260
50148SOL    HW252219   8.997   1.420  13.303
50149SOL     OW52220  14.429  12.675   4.428
50149SOL    HW152221  14.354  12.726   4.459
50149SOL    HW252222  14.472  12.733   4.365
50150SOL     OW52223   9.780   6.988   4.451
50150SOL    HW152224   9.704   6.990   4.509
50150SOL    HW252225   9.753   6.932   4.378
50151SOL     OW52226   9.173   0.270   3.205
50151SOL    HW152227   9.095   0.324   3.194
50151SOL    HW252228   9.193   0.238   3.117
50152SOL     OW52229   7.913  12.296   5.942
50152SOL    HW152230   8.008  12.303   5.952
50152SOL    HW252231   7.900  12.270   5.851
50153SOL     OW52232  11.496   6.947   8.940
50153SOL    HW152233  11.467   6.871   8.889
50153SOL    HW252234  11.461   7.022   8.892
50154SOL     OW52235   4.549   3.879   2.159
50154SOL    HW152236   4.513   3.791   2.175
50154SOL    HW252237   4.624   3.864   2.101
50155SOL     OW52238   9.668   8.250   7.443
50155SOL    HW152239   9.692   8.271   7.533
50155SOL    HW252240   9.701   8.161   7.430
50156SOL     OW52241   3.135   9.728   8.253
50156SOL    HW152242   3.191   9.651   8.248
50156SOL    HW252243   3.048   9.693   8.271
50157SOL     OW52244   5.830   9.599   5.293
50157SOL    HW152245   5.821   9.678   5.346
50157SOL    HW252246   5.909   9.614   5.240
50158SOL     OW52247   1.667   5.636   0.542
50158SOL    HW152248   1.594   5.583   0.511
50158SOL    HW252249   1.738   5.618   0.480
50159SOL     OW52250  13.818  10.560  10.132
50159SOL    HW152251  13.830  10.651  10.108
50159SOL    HW252252  13.755  10.526  10.069
50160SOL     OW52253  14.020  12.427   9.551
50160SOL    HW152254  14.061  12.479   9.620
50160SOL    HW252255  14.092  12.402   9.493
50161SOL     OW52256   3.108   0.010   1.244
50161SOL    HW152257   3.026  14.847   1.272
50161SOL    HW252258   3.099   0.102   1.268
50162SOL     OW52259   8.545  11.137  10.166
50162SOL    HW152260   8.618  11.116  10.224
50162SOL    HW252261   8.560  11.228  10.141
50163SOL     OW52262  14.434   4.399   4.561
50163SOL    HW152263  14.385   4.464   4.510
50163SOL    HW252264  14.514   4.445   4.587
50164SOL     OW52265  13.405   5.372   2.158
50164SOL    HW152266  13.425   5.389   2.066
50164SOL    HW252267  13.452   5.440   2.206
50165SOL     OW52268   6.477  14.016   6.223
50165SOL    HW152269   6.517  13.963   6.153
50165SOL    HW252270   6.549  14.039   6.280
50166SOL     OW52271   6.472   6.692   5.467
50166SOL    HW152272   6.436   6.774   5.433
50166SOL    HW252273   6.539   6.668   5.402
50167SOL     OW52274  14.660  10.836  11.863
50167SOL    HW152275  14.656  10.896  11.788
50167SOL    HW252276  14.652  10.892  11.940
50168SOL     OW52277   0.821  14.791  10.476
50168SOL    HW152278   0.797  14.822  10.388
50168SOL    HW252279   0.832  14.871  10.527
50169SOL     OW52280   2.358   0.620   1.675
50169SOL    HW152281   2.325   0.625   1.765
50169SOL    HW252282   2.295   0.564   1.630
50170SOL     OW52283   1.021  11.418   6.885
50170SOL    HW152284   1.010  11.508   6.915
50170SOL    HW252285   1.079  11.378   6.950
50171SOL     OW52286   4.629  13.615   8.558
50171SOL    HW152287   4.719  13.593   8.582
50171SOL    HW252288   4.593  13.533   8.522
50172SOL     OW52289   9.526   1.456  13.374
50172SOL    HW152290   9.613   1.481  13.406
50172SOL    HW252291   9.515   1.505  13.293
50173SOL     OW52292   2.783   0.937   1.798
50173SOL    HW152293   2.769   0.941   1.703
50173SOL    HW252294   2.867   0.980   1.811
50174SOL     OW52295   1.223   9.879   7.489
50174SOL    HW152296   1.315   9.903   7.501
50174SOL    HW252297   1.226   9.804   7.429
50175SOL     OW52298   0.991   0.155   6.942
50175SOL    HW152299   1.020   0.102   7.015
50175SOL    HW252300   0.991   0.095   6.867
50176SOL     OW52301   2.653   9.335  12.542
50176SOL    HW152302   2.562   9.306  12.542
50176SOL    HW252303   2.694   9.288  12.615
50177SOL     OW52304  14.480   2.286   7.266
50177SOL    HW152305  14.512   2.197   7.249
50177SOL    HW252306  14.385   2.275   7.277
50178SOL     OW52307  11.123  12.385  11.769
50178SOL    HW152308  11.205  12.406  11.815
50178SOL    HW252309  11.149  12.324  11.700
50179SOL     OW52310  14.873  11.816   4.647
50179SOL    HW152311  14.877  11.868   4.567
50179SOL    HW252312  14.817  11.741   4.624
50180SOL     OW52313   4.231  11.723   9.433
50180SOL    HW152314   4.315  11.756   9.467
50180SOL    HW252315   4.256  11.666   9.361
50181SOL     OW52316  11.166   5.162  10.100
50181SOL    HW152317  11.125   5.173  10.014
50181SOL    HW252318  11.181   5.251  10.132
50182SOL     OW52319  14.107  12.954   5.257
50182SOL    HW152320  14.115  12.985   5.347
50182SOL    HW252321  14.052  12.876   5.263
50183SOL     OW52322   5.159  13.749  13.172
50183SOL    HW152323   5.080  13.711  13.132
50183SOL    HW252324   5.229  13.727  13.111
50184SOL     OW52325  10.698   7.830   6.045
50184SOL    HW152326  10.636   7.763   6.075
50184SOL    HW252327  10.689   7.830   5.950
50185SOL     OW52328   4.713  11.755   8.157
50185SOL    HW152329   4.736  11.790   8.070
50185SOL    HW252330   4.682  11.666   8.139
50186SOL     OW52331   2.535   9.466   9.291
50186SOL    HW152332   2.607   9.471   9.228
50186SOL    HW252333   2.526   9.373   9.310
50187SOL     OW52334   1.066   5.587   7.644
50187SOL    HW152335   1.097   5.535   7.570
50187SOL    HW252336   0.975   5.558   7.657
50188SOL     OW52337   3.540   3.553   9.270
50188SOL    HW152338   3.509   3.559   9.179
50188SOL    HW252339   3.519   3.638   9.308
50189SOL     OW52340   3.287  14.715   6.850
50189SOL    HW152341   3.213  14.775   6.844
50189SOL    HW252342   3.248  14.628   6.859
50190SOL     OW52343   3.793  13.267   2.784
50190SOL    HW152344   3.735  13.191   2.779
50190SOL    HW252345   3.734  13.342   2.797
50191SOL     OW52346   3.937   5.540   9.068
50191SOL    HW152347   4.019   5.588   9.082
50191SOL    HW252348   3.884   5.598   9.014
50192SOL     OW52349  13.701  11.819  13.626
50192SOL    HW152350  13.742  11.848  13.707
50192SOL    HW252351  13.737  11.732  13.610
50193SOL     OW52352   9.566   3.451  11.157
50193SOL    HW152353   9.653   3.416  11.179
50193SOL    HW252354   9.506   3.397  11.208
50194SOL     OW52355   7.754   7.823  14.728
50194SOL    HW152356   7.785   7.748  14.678
50194SOL    HW252357   7.831   7.878  14.742
50195SOL     OW52358  12.522   8.687   0.345
50195SOL    HW152359  12.614   8.696   0.318
50195SOL    HW252360  12.503   8.768   0.392
50196SOL     OW52361   3.368   2.103   9.860
50196SOL    HW152362   3.283   2.147   9.865
50196SOL    HW252363   3.432   2.174   9.863
50197SOL     OW52364   2.749   0.243   8.694
50197SOL    HW152365   2.792   0.272   8.614
50197SOL    HW252366   2.780   0.154   8.708
50198SOL     OW52367   2.045  14.247   0.610
50198SOL    HW152368   2.044  14.151   0.613
50198SOL    HW252369   1.967  14.273   0.658
50199SOL     OW52370   4.111   0.910   5.108
50199SOL    HW152371   4.186   0.897   5.050
50199SOL    HW252372   4.137   0.983   5.164
50200SOL     OW52373   1.250  10.566  10.489
50200SOL    HW152374   1.302  10.520  10.555
50200SOL    HW252375   1.259  10.513  10.410
50201SOL     OW52376   0.692   5.058   2.661
50201SOL    HW152377   0.698   4.966   2.636
50201SOL    HW252378   0.753   5.067   2.734
50202SOL     OW52379   4.824   3.559   1.665
50202SOL    HW152380   4.822   3.636   1.608
50202SOL    HW252381   4.910   3.563   1.707
50203SOL     OW52382   7.845  13.451   8.212
50203SOL    HW152383   7.910  13.389   8.179
50203SOL    HW252384   7.762  13.404   8.204
50204SOL     OW52385  11.192  11.829  14.439
50204SOL    HW152386  11.210  11.814  14.532
50204SOL    HW252387  11.170  11.922  14.434
50205SOL     OW52388  10.612  13.429   9.590
50205SOL    HW152389  10.560  13.499   9.630
50205SOL    HW252390  10.690  13.422   9.645
50206SOL     OW52391   2.192  13.163   8.500
50206SOL    HW152392   2.260  13.102   8.471
50206SOL    HW252393   2.118  13.107   8.523
50207SOL     OW52394  12.219   9.117   3.886
50207SOL    HW152395  12.201   9.088   3.796
50207SOL    HW252396  12.169   9.056   3.941
50208SOL     OW52397   0.802   5.116   2.191
50208SOL    HW152398   0.831   5.035   2.150
50208SOL    HW252399   0.878   5.174   2.185
50209SOL     OW52400   2.241  13.419   1.732
50209SOL    HW152401   2.329  13.394   1.702
50209SOL    HW252402   2.203  13.466   1.658
50210SOL     OW52403   2.506   2.351  13.472
50210SOL    HW152404   2.418   2.315  13.476
50210SOL    HW252405   2.493   2.446  13.478
50211SOL     OW52406   1.486  12.837   0.027
50211SOL    HW152407   1.502  12.784   0.104
50211SOL    HW252408   1.462  12.775  14.836
50212SOL     OW52409   3.033   4.608  14.172
50212SOL    HW152410   3.091   4.543  14.132
50212SOL    HW252411   3.092   4.675  14.207
50213SOL     OW52412   1.837  10.302  12.016
50213SOL    HW152413   1.752  10.273  12.048
50213SOL    HW252414   1.822  10.327  11.925
50214SOL     OW52415   6.584  13.690   1.346
50214SOL    HW152416   6.646  13.619   1.355
50214SOL    HW252417   6.529  13.665   1.271
50215SOL     OW52418   5.428   6.535   2.142
50215SOL    HW152419   5.462   6.624   2.143
50215SOL    HW252420   5.493   6.485   2.093
50216SOL     OW52421  13.505   6.933   4.273
50216SOL    HW152422  13.563   6.938   4.197
50216SOL    HW252423  13.421   6.965   4.242
50217SOL     OW52424   8.547   8.706  14.189
50217SOL    HW152425   8.461   8.665  14.182
50217SOL    HW252426   8.600   8.641  14.235
50218SOL     OW52427   3.249   2.561   3.123
50218SOL    HW152428   3.240   2.514   3.040
50218SOL    HW252429   3.320   2.623   3.108
50219SOL     OW52430  10.156   4.417  10.056
50219SOL    HW152431  10.162   4.401   9.962
50219SOL    HW252432  10.133   4.510  10.063
50220SOL     OW52433  13.685   5.130   7.072
50220SOL    HW152434  13.708   5.200   7.010
50220SOL    HW252435  13.613   5.084   7.030
50221SOL     OW52436   3.653   2.441   2.738
50221SOL    HW152437   3.653   2.366   2.679
50221SOL    HW252438   3.640   2.404   2.825
50222SOL     OW52439   3.969  12.309   8.255
50222SOL    HW152440   3.942  12.396   8.286
50222SOL    HW252441   3.888  12.259   8.251
50223SOL     OW52442   4.237   3.321  14.676
50223SOL    HW152443   4.331   3.312  14.692
50223SOL    HW252444   4.229   3.401  14.625
50224SOL     OW52445   1.015   9.136   4.256
50224SOL    HW152446   0.994   9.104   4.344
50224SOL    HW252447   1.107   9.160   4.260
50225SOL     OW52448   0.827  14.822  11.569
50225SOL    HW152449   0.770  14.808  11.493
50225SOL    HW252450   0.858  14.734  11.592
50226SOL     OW52451  14.039  13.206   6.851
50226SOL    HW152452  13.962  13.177   6.899
50226SOL    HW252453  14.065  13.288   6.893
50227SOL     OW52454   9.694  13.308   5.975
50227SOL    HW152455   9.771  13.305   6.032
50227SOL    HW252456   9.726  13.281   5.889
50228SOL     OW52457  13.610  13.485   4.870
50228SOL    HW152458  13.533  13.506   4.818
50228SOL    HW252459  13.622  13.560   4.928
50229SOL     OW52460  10.398   9.114   0.570
50229SOL    HW152461  10.311   9.075   0.575
50229SOL    HW252462  10.447   9.073   0.641
50230SOL     OW52463   4.198   9.921  12.112
50230SOL    HW152464   4.106   9.938  12.133
50230SOL    HW252465   4.233  10.007  12.088
50231SOL     OW52466   5.205  10.482   3.906
50231SOL    HW152467   5.210  10.463   4.000
50231SOL    HW252468   5.295  10.472   3.875
50232SOL     OW52469  14.012   4.895   7.235
50232SOL    HW152470  13.964   4.823   7.195
50232SOL    HW252471  13.946   4.948   7.280
50233SOL     OW52472   2.341   2.162   8.102
50233SOL    HW152473   2.352   2.210   8.184
50233SOL    HW252474   2.424   2.116   8.090
50234SOL     OW52475   7.648  14.749   4.683
50234SOL    HW152476   7.700  14.824   4.711
50234SOL    HW252477   7.689  14.720   4.602
50235SOL     OW52478   5.386   4.124  13.039
50235SOL    HW152479   5.413   4.202  13.087
50235SOL    HW252480   5.428   4.052  13.086
50236SOL     OW52481   9.591   4.987  13.007
50236SOL    HW152482   9.512   5.012  12.958
50236SOL    HW252483   9.572   4.898  13.038
50237SOL     OW52484  12.250  10.159  10.382
50237SOL    HW152485  12.307  10.227  10.419
50237SOL    HW252486  12.282  10.077  10.420
50238SOL     OW52487  10.634  12.224   3.907
50238SOL    HW152488  10.577  12.293   3.874
50238SOL    HW252489  10.640  12.161   3.835
50239SOL     OW52490  10.704   5.185   2.421
50239SOL    HW152491  10.785   5.235   2.407
50239SOL    HW252492  10.735   5.096   2.439
50240SOL     OW52493  13.427   6.688   8.615
50240SOL    HW152494  13.511   6.659   8.581
50240SOL    HW252495  13.392   6.747   8.548
50241SOL     OW52496   7.264   0.573   6.812
50241SOL    HW152497   7.199   0.533   6.869
50241SOL    HW252498   7.334   0.601   6.871
50242SOL     OW52499  11.466  14.545   1.863
50242SOL    HW152500  11.520  14.494   1.803
50242SOL    HW252501  11.521  14.619   1.889
50243SOL     OW52502   9.146  13.072  13.964
50243SOL    HW152503   9.111  12.996  14.009
50243SOL    HW252504   9.241  13.063  13.972
50244SOL     OW52505   2.425   9.100  13.098
50244SOL    HW152506   2.496   9.036  13.092
50244SOL    HW252507   2.366   9.063  13.164
50245SOL     OW52508   4.575   5.893  10.186
50245SOL    HW152509   4.526   5.815  10.160
50245SOL    HW252510   4.587   5.942  10.104
50246SOL     OW52511  12.029  14.635   6.852
50246SOL    HW152512  12.067  14.657   6.767
50246SOL    HW252513  12.105  14.621   6.909
50247SOL     OW52514  13.506  10.641   7.132
50247SOL    HW152515  13.569  10.635   7.060
50247SOL    HW252516  13.421  10.625   7.091
50248SOL     OW52517  14.716   6.400   0.700
50248SOL    HW152518  14.778   6.344   0.653
50248SOL    HW252519  14.673   6.341   0.762
50249SOL     OW52520   7.074   7.999  13.349
50249SOL    HW152521   7.162   7.974  13.374
50249SOL    HW252522   7.031   7.916  13.326
50250SOL     OW52523  10.673   4.587   2.712
50250SOL    HW152524  10.596   4.644   2.711
50250SOL    HW252525  10.710   4.599   2.799
50251SOL     OW52526  10.825   0.022   6.671
50251SOL    HW152527  10.898   0.042   6.729
50251SOL    HW252528  10.760  14.856   6.727
50252SOL     OW52529   6.382   7.625   4.489
50252SOL    HW152530   6.331   7.624   4.408
50252SOL    HW252531   6.372   7.713   4.523
50253SOL     OW52532   1.150  13.030   8.324
50253SOL    HW152533   1.216  13.004   8.260
50253SOL    HW252534   1.069  13.035   8.273
50254SOL     OW52535  13.604   7.618   0.311
50254SOL    HW152536  13.542   7.582   0.248
50254SOL    HW252537  13.560   7.611   0.395
50255SOL     OW52538  11.830   7.646   7.901
50255SOL    HW152539  11.802   7.737   7.904
50255SOL    HW252540  11.925   7.649   7.903
50256SOL     OW52541   8.798   0.941   8.011
50256SOL    HW152542   8.832   0.935   7.922
50256SOL    HW252543   8.709   0.975   7.999
50257SOL     OW52544  13.710  10.316  13.967
50257SOL    HW152545  13.798  10.349  13.947
50257SOL    HW252546  13.714  10.223  13.942
50258SOL     OW52547   1.967   0.244   9.281
50258SOL    HW152548   2.027   0.173   9.259
50258SOL    HW252549   1.974   0.306   9.208
50259SOL     OW52550   9.661   1.605  14.059
50259SOL    HW152551   9.685   1.535  14.120
50259SOL    HW252552   9.646   1.682  14.115
50260SOL     OW52553   3.396  11.907   5.201
50260SOL    HW152554   3.375  11.849   5.127
50260SOL    HW252555   3.451  11.853   5.258
50261SOL     OW52556  14.515   6.401   7.433
50261SOL    HW152557  14.503   6.393   7.528
50261SOL    HW252558  14.533   6.494   7.419
50262SOL     OW52559   0.582   4.221  11.969
50262SOL    HW152560   0.513   4.181  11.917
50262SOL    HW252561   0.555   4.206  12.060
50263SOL     OW52562  13.205   9.232   2.941
50263SOL    HW152563  13.132   9.206   2.886
50263SOL    HW252564  13.207   9.328   2.934
50264SOL     OW52565  10.810   0.789   4.167
50264SOL    HW152566  10.824   0.763   4.076
50264SOL    HW252567  10.898   0.812   4.198
50265SOL     OW52568   7.473   9.621  11.422
50265SOL    HW152569   7.442   9.698  11.470
50265SOL    HW252570   7.550   9.592  11.470
50266SOL     OW52571   9.048  10.878   1.512
50266SOL    HW152572   9.040  10.968   1.477
50266SOL    HW252573   9.132  10.847   1.479
50267SOL     OW52574  14.263   5.412  10.055
50267SOL    HW152575  14.174   5.421  10.021
50267SOL    HW252576  14.317   5.395   9.978
50268SOL     OW52577   9.363   6.951  14.643
50268SOL    HW152578   9.283   6.901  14.627
50268SOL    HW252579   9.352   7.030  14.590
50269SOL     OW52580  10.872   7.651   0.198
50269SOL    HW152581  10.828   7.639   0.283
50269SOL    HW252582  10.952   7.698   0.219
50270SOL     OW52583   3.636   6.791  11.561
50270SOL    HW152584   3.650   6.745  11.644
50270SOL    HW252585   3.576   6.862  11.583
50271SOL     OW52586  13.378   2.262  14.620
50271SOL    HW152587  13.337   2.243  14.535
50271SOL    HW252588  13.326   2.214  14.684
50272SOL     OW52589   2.299  13.226   4.300
50272SOL    HW152590   2.286  13.155   4.237
50272SOL    HW252591   2.327  13.301   4.248
50273SOL     OW52592   9.900   1.934   3.588
50273SOL    HW152593   9.906   1.989   3.666
50273SOL    HW252594   9.855   1.855   3.618
50274SOL     OW52595   9.320   0.427  10.572
50274SOL    HW152596   9.328   0.521  10.588
50274SOL    HW252597   9.349   0.416  10.481
50275SOL     OW52598   7.066  12.296   9.586
50275SOL    HW152599   7.027  12.290   9.499
50275SOL    HW252600   7.157  12.270   9.574
50276SOL     OW52601   7.528   0.238  11.531
50276SOL    HW152602   7.605   0.253  11.586
50276SOL    HW252603   7.475   0.176  11.581
50277SOL     OW52604  13.088   6.406   5.184
50277SOL    HW152605  13.085   6.311   5.195
50277SOL    HW252606  13.081   6.419   5.089
50278SOL     OW52607   1.197   7.216  13.087
50278SOL    HW152608   1.145   7.262  13.021
50278SOL    HW252609   1.285   7.212  13.049
50279SOL     OW52610   3.736  13.970  13.362
50279SOL    HW152611   3.814  13.996  13.411
50279SOL    HW252612   3.765  13.968  13.271
50280SOL     OW52613   0.733   9.205   0.706
50280SOL    HW152614   0.729   9.278   0.769
50280SOL    HW252615   0.745   9.248   0.621
50281SOL     OW52616   6.357   0.913  13.555
50281SOL    HW152617   6.305   0.907  13.635
50281SOL    HW252618   6.447   0.898  13.583
50282SOL     OW52619   1.189  10.407   0.237
50282SOL    HW152620   1.160  10.418   0.147
50282SOL    HW252621   1.178  10.313   0.255
50283SOL     OW52622   2.528   8.670  11.092
50283SOL    HW152623   2.447   8.632  11.123
50283SOL    HW252624   2.535   8.754  11.138
50284SOL     OW52625   7.627   4.587   4.500
50284SOL    HW152626   7.641   4.658   4.437
50284SOL    HW252627   7.714   4.569   4.536
50285SOL     OW52628  10.180   2.994   5.039
50285SOL    HW152629  10.201   2.925   5.102
50285SOL    HW252630  10.128   3.057   5.089
50286SOL     OW52631  12.020   3.471   0.963
50286SOL    HW152632  12.033   3.546   0.905
50286SOL    HW252633  12.010   3.396   0.904
50287SOL     OW52634   9.062   7.410  12.204
50287SOL    HW152635   9.061   7.426  12.110
50287SOL    HW252636   9.020   7.325  12.215
50288SOL     OW52637  10.979   9.926   2.188
50288SOL    HW152638  11.071   9.897   2.189
50288SOL    HW252639  10.949   9.910   2.099
50289SOL     OW52640   5.494   4.831   9.691
50289SOL    HW152641   5.544   4.854   9.769
50289SOL    HW252642   5.496   4.735   9.689
50290SOL     OW52643   3.057  10.927   3.120
50290SOL    HW152644   2.972  10.968   3.135
50290SOL    HW252645   3.116  11.000   3.102
50291SOL     OW52646   3.113   4.969   4.049
50291SOL    HW152647   3.202   4.994   4.073
50291SOL    HW252648   3.061   5.047   4.068
50292SOL     OW52649   4.604   0.042   1.898
50292SOL    HW152650   4.525  14.867   1.913
50292SOL    HW252651   4.572   0.121   1.855
50293SOL     OW52652   8.588  11.924  12.290
50293SOL    HW152653   8.548  11.951  12.373
50293SOL    HW252654   8.681  11.945  12.300
50294SOL     OW52655   8.792   8.325   6.962
50294SOL    HW152656   8.754   8.250   7.007
50294SOL    HW252657   8.869   8.290   6.916
50295SOL     OW52658  12.427   7.001   1.039
50295SOL    HW152659  12.472   6.919   1.018
50295SOL    HW252660  12.339   6.974   1.065
50296SOL     OW52661   6.660   6.928  13.485
50296SOL    HW152662   6.728   6.915  13.551
50296SOL    HW252663   6.705   6.971  13.412
50297SOL     OW52664  14.406  12.992   5.966
50297SOL    HW152665  14.436  12.901   5.965
50297SOL    HW252666  14.353  12.998   6.046
50298SOL     OW52667   5.336  13.015   8.585
50298SOL    HW152668   5.319  12.970   8.667
50298SOL    HW252669   5.429  13.039   8.590
50299SOL     OW52670   0.114   4.034   1.447
50299SOL    HW152671   0.197   3.988   1.448
50299SOL    HW252672   0.106   4.067   1.358
50300SOL     OW52673   6.664  13.444  14.876
50300SOL    HW152674   6.701  13.527   0.028
50300SOL    HW252675   6.594  13.469  14.816
50301SOL     OW52676   4.946  14.557   9.379
50301SOL    HW152677   4.956  14.642   9.422
50301SOL    HW252678   5.027  14.545   9.330
50302SOL     OW52679   0.346   0.424   0.196
50302SOL    HW152680   0.252   0.410   0.182
50302SOL    HW252681   0.359   0.401   0.288
50303SOL     OW52682  14.233   9.796  14.146
50303SOL    HW152683  14.226   9.767  14.237
50303SOL    HW252684  14.146   9.780  14.108
50304SOL     OW52685   2.101  10.151  13.660
50304SOL    HW152686   2.020  10.193  13.629
50304SOL    HW252687   2.157  10.223  13.687
50305SOL     OW52688   7.657   0.894  10.682
50305SOL    HW152689   7.613   0.882  10.766
50305SOL    HW252690   7.650   0.988  10.664
50306SOL     OW52691  14.793   8.659  12.231
50306SOL    HW152692  14.826   8.622  12.313
50306SOL    HW252693  14.703   8.686  12.251
50307SOL     OW52694   7.933   0.168   4.382
50307SOL    HW152695   7.953   0.206   4.297
50307SOL    HW252696   8.003   0.198   4.440
50308SOL     OW52697  14.760   6.176   2.060
50308SOL    HW152698  14.814   6.178   1.981
50308SOL    HW252699  14.777   6.260   2.104
50309SOL     OW52700  11.614   5.967   9.712
50309SOL    HW152701  11.581   6.040   9.765
50309SOL    HW252702  11.662   5.912   9.774
50310SOL     OW52703   2.381   1.913  13.269
50310SOL    HW152704   2.352   1.962  13.346
50310SOL    HW252705   2.310   1.851  13.252
50311SOL     OW52706   7.920   6.344  11.086
50311SOL    HW152707   7.920   6.376  10.996
50311SOL    HW252708   7.867   6.407  11.134
50312SOL     OW52709  12.923  14.290   7.781
50312SOL    HW152710  12.936  14.379   7.814
50312SOL    HW252711  12.930  14.235   7.859
50313SOL     OW52712   8.951   3.039  12.612
50313SOL    HW152713   8.922   2.968  12.556
50313SOL    HW252714   8.893   3.035  12.688
50314SOL     OW52715  13.156   5.459   4.425
50314SOL    HW152716  13.156   5.376   4.376
50314SOL    HW252717  13.179   5.433   4.514
50315SOL     OW52718   0.955   6.057   7.387
50315SOL    HW152719   0.988   6.119   7.452
50315SOL    HW252720   0.896   6.109   7.332
50316SOL     OW52721  10.280  13.337   1.058
50316SOL    HW152722  10.239  13.259   1.094
50316SOL    HW252723  10.259  13.335   0.964
50317SOL     OW52724   9.091  13.281   1.088
50317SOL    HW152725   9.020  13.254   1.148
50317SOL    HW252726   9.068  13.371   1.064
50318SOL     OW52727   3.564   2.225   6.296
50318SOL    HW152728   3.586   2.216   6.203
50318SOL    HW252729   3.629   2.170   6.341
50319SOL     OW52730   8.788  11.007   9.804
50319SOL    HW152731   8.866  11.058   9.783
50319SOL    HW252732   8.821  10.921   9.831
50320SOL     OW52733  10.083  12.968   7.934
50320SOL    HW152734  10.051  12.879   7.919
50320SOL    HW252735  10.076  12.981   8.028
50321SOL     OW52736   5.143  11.868  12.415
50321SOL    HW152737   5.101  11.808  12.476
50321SOL    HW252738   5.221  11.823  12.385
50322SOL     OW52739   6.025   0.546   4.630
50322SOL    HW152740   6.076   0.595   4.565
50322SOL    HW252741   5.944   0.522   4.584
50323SOL     OW52742   2.569   0.086   2.658
50323SOL    HW152743   2.584   0.043   2.742
50323SOL    HW252744   2.642   0.059   2.603
50324SOL     OW52745   0.021  14.248   0.587
50324SOL    HW152746   0.103  14.215   0.549
50324SOL    HW252747   0.042  14.266   0.679
50325SOL     OW52748   3.472   7.561   0.362
50325SOL    HW152749   3.499   7.472   0.387
50325SOL    HW252750   3.536   7.588   0.297
50326SOL     OW52751   0.583  10.682   2.877
50326SOL    HW152752   0.550  10.730   2.801
50326SOL    HW252753   0.676  10.706   2.882
50327SOL     OW52754   4.129   9.672   3.964
50327SOL    HW152755   4.218   9.637   3.962
50327SOL    HW252756   4.082   9.622   3.897
50328SOL     OW52757   9.856   4.248   9.809
50328SOL    HW152758   9.772   4.233   9.766
50328SOL    HW252759   9.886   4.161   9.834
50329SOL     OW52760  14.242  11.574   1.990
50329SOL    HW152761  14.266  11.490   2.029
50329SOL    HW252762  14.148  11.568   1.978
50330SOL     OW52763   5.885  10.568   3.463
50330SOL    HW152764   5.845  10.632   3.404
50330SOL    HW252765   5.940  10.621   3.522
50331SOL     OW52766   1.806   9.191  14.631
50331SOL    HW152767   1.896   9.173  14.603
50331SOL    HW252768   1.784   9.118  14.689
50332SOL     OW52769   4.228   5.488  11.130
50332SOL    HW152770   4.258   5.577  11.148
50332SOL    HW252771   4.295   5.452  11.072
50333SOL     OW52772   6.481   5.168   4.466
50333SOL    HW152773   6.501   5.165   4.372
50333SOL    HW252774   6.555   5.214   4.505
50334SOL     OW52775   3.061   8.543   7.039
50334SOL    HW152776   3.154   8.518   7.039
50334SOL    HW252777   3.018   8.476   7.092
50335SOL     OW52778   9.969  11.842   0.515
50335SOL    HW152779  10.033  11.828   0.584
50335SOL    HW252780   9.897  11.782   0.536
50336SOL     OW52781  10.643   4.891   7.269
50336SOL    HW152782  10.582   4.878   7.197
50336SOL    HW252783  10.693   4.809   7.273
50337SOL     OW52784   6.479   6.232  14.103
50337SOL    HW152785   6.427   6.198  14.030
50337SOL    HW252786   6.557   6.269  14.061
50338SOL     OW52787   6.271  12.063   6.826
50338SOL    HW152788   6.246  12.004   6.755
50338SOL    HW252789   6.364  12.045   6.841
50339SOL     OW52790   5.284   5.887   2.064
50339SOL    HW152791   5.250   5.977   2.067
50339SOL    HW252792   5.307   5.867   2.155
50340SOL     OW52793   1.837   1.368   8.439
50340SOL    HW152794   1.896   1.415   8.380
50340SOL    HW252795   1.780   1.317   8.381
50341SOL     OW52796   3.644   3.649   0.287
50341SOL    HW152797   3.697   3.727   0.302
50341SOL    HW252798   3.636   3.643   0.192
50342SOL     OW52799   9.094   0.775  12.912
50342SOL    HW152800   9.045   0.814  12.839
50342SOL    HW252801   9.183   0.808  12.902
50343SOL     OW52802   1.078   2.774  12.319
50343SOL    HW152803   1.033   2.740  12.397
50343SOL    HW252804   1.011   2.772  12.250
50344SOL     OW52805  14.164   2.090  11.622
50344SOL    HW152806  14.126   2.040  11.550
50344SOL    HW252807  14.258   2.086  11.607
50345SOL     OW52808  10.855   3.963  11.272
50345SOL    HW152809  10.886   3.893  11.215
50345SOL    HW252810  10.778   3.927  11.315
50346SOL     OW52811   7.976   4.423   1.352
50346SOL    HW152812   7.990   4.440   1.445
50346SOL    HW252813   7.971   4.328   1.346
50347SOL     OW52814  11.472  13.419  10.575
50347SOL    HW152815  11.426  13.439  10.494
50347SOL    HW252816  11.418  13.460  10.643
50348SOL     OW52817   8.977   2.774   4.179
50348SOL    HW152818   8.964   2.713   4.106
50348SOL    HW252819   8.994   2.858   4.138
50349SOL     OW52820  12.196   1.166   2.333
50349SOL    HW152821  12.202   1.071   2.332
50349SOL    HW252822  12.261   1.195   2.269
50350SOL     OW52823   5.303   1.128   8.859
50350SOL    HW152824   5.375   1.077   8.822
50350SOL    HW252825   5.333   1.219   8.854
50351SOL     OW52826   4.579   0.201   7.823
50351SOL    HW152827   4.627   0.144   7.883
50351SOL    HW252828   4.630   0.282   7.821
50352SOL     OW52829  11.257  11.882   6.190
50352SOL    HW152830  11.303  11.800   6.207
50352SOL    HW252831  11.172  11.872   6.234
50353SOL     OW52832   2.777   6.992   0.294
50353SOL    HW152833   2.771   6.981   0.389
50353SOL    HW252834   2.705   7.050   0.272
50354SOL     OW52835  12.890  14.481  11.827
50354SOL    HW152836  12.951  14.454  11.759
50354SOL    HW252837  12.937  14.469  11.909
50355SOL     OW52838  12.254   8.437   0.444
50355SOL    HW152839  12.256   8.522   0.487
50355SOL    HW252840  12.164   8.407   0.454
50356SOL     OW52841  11.354   8.359   4.936
50356SOL    HW152842  11.431   8.416   4.943
50356SOL    HW252843  11.316   8.380   4.851
50357SOL     OW52844   8.246   9.986  10.313
50357SOL    HW152845   8.195   9.908  10.333
50357SOL    HW252846   8.247   9.989  10.217
50358SOL     OW52847  10.865   9.721  10.970
50358SOL    HW152848  10.878   9.801  11.020
50358SOL    HW252849  10.832   9.658  11.033
50359SOL     OW52850  11.831   0.341  13.418
50359SOL    HW152851  11.837   0.274  13.350
50359SOL    HW252852  11.909   0.395  13.406
50360SOL     OW52853   3.757   0.017   2.533
50360SOL    HW152854   3.796  14.850   2.608
50360SOL    HW252855   3.669   0.040   2.563
50361SOL     OW52856   9.564   4.643   4.970
50361SOL    HW152857   9.513   4.572   5.008
50361SOL    HW252858   9.652   4.607   4.961
50362SOL     OW52859   9.507   8.138  11.470
50362SOL    HW152860   9.595   8.130  11.506
50362SOL    HW252861   9.458   8.186  11.536
50363SOL     OW52862  10.895  14.639   4.628
50363SOL    HW152863  10.985  14.648   4.658
50363SOL    HW252864  10.870  14.727   4.599
50364SOL     OW52865  11.086   1.378   3.809
50364SOL    HW152866  11.007   1.400   3.858
50364SOL    HW252867  11.129   1.463   3.795
50365SOL     OW52868   3.109  12.028  12.913
50365SOL    HW152869   3.176  12.008  12.979
50365SOL    HW252870   3.038  11.967  12.932
50366SOL     OW52871   8.341   8.376   6.416
50366SOL    HW152872   8.350   8.283   6.393
50366SOL    HW252873   8.284   8.376   6.493
50367SOL     OW52874  12.022   7.676   4.821
50367SOL    HW152875  11.940   7.714   4.788
50367SOL    HW252876  12.033   7.596   4.769
50368SOL     OW52877   8.218  13.454   9.959
50368SOL    HW152878   8.310  13.430   9.950
50368SOL    HW252879   8.184  13.452   9.870
50369SOL     OW52880   7.246   9.046   5.145
50369SOL    HW152881   7.305   9.040   5.221
50369SOL    HW252882   7.258   9.135   5.112
50370SOL     OW52883  10.447  14.126   2.742
50370SOL    HW152884  10.390  14.108   2.817
50370SOL    HW252885  10.461  14.041   2.702
50371SOL     OW52886  11.883  12.180   3.417
50371SOL    HW152887  11.910  12.089   3.406
50371SOL    HW252888  11.962  12.231   3.402
50372SOL     OW52889  14.836   3.022  13.836
50372SOL    HW152890   0.048   3.043  13.810
50372SOL    HW252891  14.782   3.049  13.761
50373SOL     OW52892  12.602   7.344  10.404
50373SOL    HW152893  12.563   7.425  10.436
50373SOL    HW252894  12.542   7.275  10.433
50374SOL     OW52895   2.536   6.789   5.182
50374SOL    HW152896   2.533   6.728   5.108
50374SOL    HW252897   2.528   6.876   5.143
50375SOL     OW52898   0.822   2.548   5.921
50375SOL    HW152899   0.830   2.597   6.003
50375SOL    HW252900   0.887   2.479   5.928
50376SOL     OW52901   3.570  11.933   7.771
50376SOL    HW152902   3.561  11.887   7.689
50376SOL    HW252903   3.498  11.997   7.771
50377SOL     OW52904   8.721  10.398   6.525
50377SOL    HW152905   8.701  10.486   6.494
50377SOL    HW252906   8.708  10.402   6.619
50378SOL     OW52907   6.498   2.258  10.484
50378SOL    HW152908   6.560   2.258  10.411
50378SOL    HW252909   6.440   2.184  10.467
50379SOL     OW52910  12.928  12.128  14.162
50379SOL    HW152911  13.000  12.192  14.157
50379SOL    HW252912  12.966  12.047  14.129
50380SOL     OW52913  14.620   3.333   4.314
50380SOL    HW152914  14.650   3.262   4.370
50380SOL    HW252915  14.632   3.412   4.367
50381SOL     OW52916  12.455  12.355  11.436
50381SOL    HW152917  12.479  12.340  11.345
50381SOL    HW252918  12.363  12.379  11.433
50382SOL     OW52919   4.950  12.217   4.817
50382SOL    HW152920   4.984  12.199   4.904
50382SOL    HW252921   4.886  12.147   4.801
50383SOL     OW52922   9.387  13.811   7.372
50383SOL    HW152923   9.366  13.756   7.447
50383SOL    HW252924   9.483  13.814   7.370
50384SOL     OW52925  14.383   0.214  14.330
50384SOL    HW152926  14.321   0.174  14.268
50384SOL    HW252927  14.344   0.298  14.351
50385SOL     OW52928   2.243   1.028  12.588
50385SOL    HW152929   2.177   0.997  12.526
50385SOL    HW252930   2.327   1.005  12.548
50386SOL     OW52931   8.141  10.966  13.629
50386SOL    HW152932   8.221  10.916  13.647
50386SOL    HW252933   8.150  11.045  13.682
50387SOL     OW52934  13.006  10.780   4.218
50387SOL    HW152935  13.080  10.727   4.248
50387SOL    HW252936  12.951  10.719   4.169
50388SOL     OW52937  14.722  10.870  10.737
50388SOL    HW152938  14.683  10.846  10.822
50388SOL    HW252939  14.782  10.941  10.757
50389SOL     OW52940   6.093   9.389   2.771
50389SOL    HW152941   6.122   9.298   2.763
50389SOL    HW252942   6.101   9.425   2.683
50390SOL     OW52943   4.567   3.783   8.688
50390SOL    HW152944   4.547   3.742   8.604
50390SOL    HW252945   4.617   3.861   8.665
50391SOL     OW52946  12.193  12.937   0.150
50391SOL    HW152947  12.156  13.004   0.207
50391SOL    HW252948  12.279  12.972   0.125
50392SOL     OW52949  13.836  11.547  11.078
50392SOL    HW152950  13.914  11.529  11.131
50392SOL    HW252951  13.843  11.639  11.054
50393SOL     OW52952   4.184   1.424  10.752
50393SOL    HW152953   4.207   1.351  10.695
50393SOL    HW252954   4.263   1.476  10.759
50394SOL     OW52955   2.426  12.470  11.274
50394SOL    HW152956   2.441  12.397  11.334
50394SOL    HW252957   2.350  12.444  11.223
50395SOL     OW52958   2.184   7.340   4.229
50395SOL    HW152959   2.122   7.281   4.186
50395SOL    HW252960   2.180   7.420   4.177
50396SOL     OW52961   3.545  10.313  12.764
50396SOL    HW152962   3.579  10.351  12.846
50396SOL    HW252963   3.478  10.376  12.736
50397SOL     OW52964   6.584   1.180  14.225
50397SOL    HW152965   6.625   1.094  14.229
50397SOL    HW252966   6.657   1.241  14.223
50398SOL     OW52967   3.755  12.166   8.400
50398SOL    HW152968   3.675  12.205   8.436
50398SOL    HW252969   3.726  12.084   8.360
50399SOL     OW52970   0.048  14.629   1.913
50399SOL    HW152971   0.051  14.629   2.009
50399SOL    HW252972  14.833  14.627   1.892
50400SOL     OW52973   9.463  13.995  11.337
50400SOL    HW152974   9.470  13.906  11.372
50400SOL    HW252975   9.383  14.031  11.376
50401SOL     OW52976  11.659   1.705   0.384
50401SOL    HW152977  11.649   1.699   0.289
50401SOL    HW252978  11.711   1.628   0.407
50402SOL     OW52979  14.837  13.321  12.732
50402SOL    HW152980  14.875  13.359  12.811
50402SOL    HW252981   0.031  13.270  12.694
50403SOL     OW52982  10.800   9.406   5.867
50403SOL    HW152983  10.736   9.335   5.869
50403SOL    HW252984  10.771   9.467   5.935
50404SOL     OW52985  14.502  12.465   1.974
50404SOL    HW152986  14.543  12.542   1.934
50404SOL    HW252987  14.530  12.468   2.065
50405SOL     OW52988  14.289   1.928  10.000
50405SOL    HW152989  14.226   1.948  10.069
50405SOL    HW252990  14.338   1.853  10.033
50406SOL     OW52991  11.724  11.501   5.562
50406SOL    HW152992  11.786  11.429   5.571
50406SOL    HW252993  11.763  11.559   5.496
50407SOL     OW52994  10.361  14.755   7.037
50407SOL    HW152995  10.319  14.670   7.020
50407SOL    HW252996  10.301  14.799   7.097
50408SOL     OW52997  12.631  11.855   6.420
50408SOL    HW152998  12.680  11.885   6.497
50408SOL    HW252999  12.688  11.789   6.379
50409SOL     OW53000   1.560  12.839  12.764
50409SOL    HW153001   1.582  12.929  12.741
50409SOL    HW253002   1.537  12.797  12.681
50410SOL     OW53003  13.305   1.594  12.960
50410SOL    HW153004  13.349   1.552  13.034
50410SOL    HW253005  13.213   1.596  12.985
50411SOL     OW53006   9.243   0.785   4.127
50411SOL    HW153007   9.252   0.799   4.221
50411SOL    HW253008   9.240   0.873   4.089
50412SOL     OW53009   5.228  14.748   3.189
50412SOL    HW153010   5.214  14.806   3.264
50412SOL    HW253011   5.272  14.803   3.124
50413SOL     OW53012   1.659   9.469   9.820
50413SOL    HW153013   1.710   9.390   9.799
50413SOL    HW253014   1.568   9.443   9.805
50414SOL     OW53015   1.829   8.838  14.076
50414SOL    HW153016   1.771   8.911  14.097
50414SOL    HW253017   1.813   8.820  13.984
50415SOL     OW53018  14.814   8.876  11.400
50415SOL    HW153019   0.031   8.875  11.417
50415SOL    HW253020  14.806   8.907  11.309
50416SOL     OW53021   5.748   4.103   6.372
50416SOL    HW153022   5.763   4.025   6.424
50416SOL    HW253023   5.730   4.172   6.436
50417SOL     OW53024   4.301  13.348  10.713
50417SOL    HW153025   4.355  13.426  10.701
50417SOL    HW253026   4.217  13.381  10.746
50418SOL     OW53027   3.966  14.336  13.271
50418SOL    HW153028   3.924  14.254  13.294
50418SOL    HW253029   4.043  14.309  13.221
50419SOL     OW53030   5.200  14.816  12.787
50419SOL    HW153031   5.260  14.768  12.843
50419SOL    HW253032   5.219   0.031  12.805
50420SOL     OW53033  13.197   1.021   4.958
50420SOL    HW153034  13.231   0.932   4.966
50420SOL    HW253035  13.193   1.052   5.049
50421SOL     OW53036   2.271  12.097  14.798
50421SOL    HW153037   2.223  12.100   0.003
50421SOL    HW253038   2.205  12.071  14.733
50422SOL     OW53039  13.777   6.009   0.206
50422SOL    HW153040  13.722   6.045   0.276
50422SOL    HW253041  13.717   5.954   0.155
50423SOL     OW53042   7.512   1.063   5.873
50423SOL    HW153043   7.450   0.991   5.863
50423SOL    HW253044   7.512   1.082   5.967
50424SOL     OW53045  13.965   5.679   5.068
50424SOL    HW153046  13.946   5.635   5.150
50424SOL    HW253047  13.896   5.745   5.059
50425SOL     OW53048  13.134   4.388   6.972
50425SOL    HW153049  13.084   4.316   7.011
50425SOL    HW253050  13.129   4.372   6.877
50426SOL     OW53051   6.474   2.410   0.165
50426SOL    HW153052   6.550   2.434   0.217
50426SOL    HW253053   6.448   2.325   0.200
50427SOL     OW53054  12.493   3.993   0.180
50427SOL    HW153055  12.573   3.945   0.200
50427SOL    HW253056  12.425   3.947   0.229
50428SOL     OW53057  10.034   4.172   3.633
50428SOL    HW153058  10.104   4.234   3.611
50428SOL    HW253059  10.054   4.144   3.722
50429SOL     OW53060   0.682   2.145   8.197
50429SOL    HW153061   0.661   2.052   8.193
50429SOL    HW253062   0.754   2.151   8.260
50430SOL     OW53063  14.468   2.099   2.897
50430SOL    HW153064  14.420   2.026   2.935
50430SOL    HW253065  14.434   2.107   2.808
50431SOL     OW53066   1.517  11.292   4.910
50431SOL    HW153067   1.431  11.263   4.882
50431SOL    HW253068   1.499  11.362   4.973
50432SOL     OW53069  11.409   7.728  11.547
50432SOL    HW153070  11.499   7.711  11.522
50432SOL    HW253071  11.402   7.697  11.637
50433SOL     OW53072   0.633   3.030   5.673
50433SOL    HW153073   0.563   3.092   5.694
50433SOL    HW253074   0.696   3.040   5.744
50434SOL     OW53075  11.943   7.711   5.083
50434SOL    HW153076  11.968   7.734   4.994
50434SOL    HW253077  11.921   7.618   5.078
50435SOL     OW53078   8.439   1.712   2.078
50435SOL    HW153079   8.447   1.631   2.128
50435SOL    HW253080   8.457   1.686   1.988
50436SOL     OW53081   6.907   9.424   1.238
50436SOL    HW153082   6.919   9.518   1.224
50436SOL    HW253083   6.836   9.400   1.178
50437SOL     OW53084   1.624   8.679  10.957
50437SOL    HW153085   1.622   8.584  10.940
50437SOL    HW253086   1.545   8.695  11.008
50438SOL     OW53087   0.428   2.757  11.495
50438SOL    HW153088   0.353   2.806  11.460
50438SOL    HW253089   0.496   2.765  11.428
50439SOL     OW53090  12.965  13.356  11.547
50439SOL    HW153091  13.011  13.386  11.468
50439SOL    HW253092  12.929  13.436  11.585
50440SOL     OW53093  10.175  10.636   3.713
50440SOL    HW153094  10.119  10.629   3.791
50440SOL    HW253095  10.236  10.563   3.721
50441SOL     OW53096   9.175  14.373   5.074
50441SOL    HW153097   9.239  14.321   5.124
50441SOL    HW253098   9.213  14.380   4.987
50442SOL     OW53099   6.421   3.408   0.915
50442SOL    HW153100   6.452   3.354   0.843
50442SOL    HW253101   6.406   3.346   0.987
50443SOL     OW53102  14.329  13.357  13.757
50443SOL    HW153103  14.411  13.363  13.707
50443SOL    HW253104  14.304  13.265  13.750
50444SOL     OW53105  12.883   6.026  10.265
50444SOL    HW153106  12.874   5.948  10.210
50444SOL    HW253107  12.906   6.096  10.205
50445SOL     OW53108   8.789   6.157   5.789
50445SOL    HW153109   8.833   6.212   5.724
50445SOL    HW253110   8.780   6.213   5.866
50446SOL     OW53111   5.655   3.399   6.977
50446SOL    HW153112   5.705   3.327   6.938
50446SOL    HW253113   5.722   3.452   7.021
50447SOL     OW53114   8.614   5.645  11.217
50447SOL    HW153115   8.606   5.645  11.122
50447SOL    HW253116   8.701   5.680  11.235
50448SOL     OW53117   3.779   2.788   6.173
50448SOL    HW153118   3.840   2.808   6.244
50448SOL    HW253119   3.693   2.807   6.210
50449SOL     OW53120   6.531   0.519  13.559
50449SOL    HW153121   6.596   0.589  13.561
50449SOL    HW253122   6.463   0.551  13.500
50450SOL     OW53123   8.074  14.256  11.968
50450SOL    HW153124   8.116  14.230  12.050
50450SOL    HW253125   8.096  14.185  11.907
50451SOL     OW53126   7.339   8.787   1.318
50451SOL    HW153127   7.347   8.852   1.387
50451SOL    HW253128   7.254   8.745   1.332
50452SOL     OW53129  11.289   7.385   6.658
50452SOL    HW153130  11.378   7.381   6.692
50452SOL    HW253131  11.299   7.377   6.564
50453SOL     OW53132  10.855  14.574   6.661
50453SOL    HW153133  10.909  14.545   6.734
50453SOL    HW253134  10.844  14.668   6.675
50454SOL     OW53135   0.505   4.893   8.240
50454SOL    HW153136   0.544   4.808   8.220
50454SOL    HW253137   0.501   4.938   8.156
50455SOL     OW53138  12.960   5.416   9.333
50455SOL    HW153139  13.036   5.464   9.367
50455SOL    HW253140  12.918   5.477   9.273
50456SOL     OW53141   6.591  10.945   5.827
50456SOL    HW153142   6.521  10.881   5.840
50456SOL    HW253143   6.671  10.892   5.824
50457SOL     OW53144   3.564   6.634  11.958
50457SOL    HW153145   3.521   6.587  12.030
50457SOL    HW253146   3.542   6.726  11.974
50458SOL     OW53147  10.986  11.200   4.812
50458SOL    HW153148  11.055  11.228   4.873
50458SOL    HW253149  10.916  11.168   4.869
50459SOL     OW53150   7.345   7.263   4.930
50459SOL    HW153151   7.374   7.226   5.014
50459SOL    HW253152   7.262   7.306   4.951
50460SOL     OW53153   9.939  14.147   7.217
50460SOL    HW153154   9.854  14.133   7.176
50460SOL    HW253155   9.950  14.242   7.219
50461SOL     OW53156   8.404   8.048   6.879
50461SOL    HW153157   8.480   8.057   6.938
50461SOL    HW253158   8.347   7.985   6.923
50462SOL     OW53159   3.981   9.925   6.705
50462SOL    HW153160   4.040   9.981   6.655
50462SOL    HW253161   4.039   9.864   6.751
50463SOL     OW53162   9.455   3.505   8.838
50463SOL    HW153163   9.394   3.563   8.793
50463SOL    HW253164   9.410   3.421   8.842
50464SOL     OW53165   5.685   7.221  13.572
50464SOL    HW153166   5.592   7.205  13.588
50464SOL    HW253167   5.713   7.275  13.647
50465SOL     OW53168  13.621   6.730   6.458
50465SOL    HW153169  13.598   6.637   6.462
50465SOL    HW253170  13.660   6.742   6.371
50466SOL     OW53171   1.440  12.542   1.160
50466SOL    HW153172   1.495  12.549   1.082
50466SOL    HW253173   1.491  12.586   1.229
50467SOL     OW53174  11.338  12.335  14.153
50467SOL    HW153175  11.286  12.401  14.199
50467SOL    HW253176  11.324  12.255  14.204
50468SOL     OW53177   4.792   2.725  13.929
50468SOL    HW153178   4.881   2.694  13.949
50468SOL    HW253179   4.780   2.802  13.984
50469SOL     OW53180   0.023   8.173  14.070
50469SOL    HW153181  14.844   8.250  14.062
50469SOL    HW253182   0.054   8.176  14.161
50470SOL     OW53183   6.212  12.679  11.162
50470SOL    HW153184   6.209  12.709  11.071
50470SOL    HW253185   6.142  12.727  11.206
50471SOL     OW53186   6.565   1.653   7.598
50471SOL    HW153187   6.616   1.618   7.671
50471SOL    HW253188   6.510   1.721   7.637
50472SOL     OW53189  12.471  14.267  10.060
50472SOL    HW153190  12.545  14.306  10.107
50472SOL    HW253191  12.502  14.257   9.970
50473SOL     OW53192  12.410   2.332  13.866
50473SOL    HW153193  12.479   2.298  13.810
50473SOL    HW253194  12.349   2.259  13.878
50474SOL     OW53195   7.116   1.528   2.862
50474SOL    HW153196   7.178   1.458   2.843
50474SOL    HW253197   7.085   1.557   2.775
50475SOL     OW53198   4.061  11.556  14.047
50475SOL    HW153199   4.052  11.635  13.993
50475SOL    HW253200   4.042  11.484  13.988
50476SOL     OW53201  14.645   9.348   5.434
50476SOL    HW153202  14.740   9.357   5.423
50476SOL    HW253203  14.609   9.356   5.346
50477SOL     OW53204   8.665  14.655   7.144
50477SOL    HW153205   8.677  14.703   7.062
50477SOL    HW253206   8.730  14.693   7.204
50478SOL     OW53207   6.759  12.940   7.058
50478SOL    HW153208   6.790  12.850   7.054
50478SOL    HW253209   6.694  12.946   6.989
50479SOL     OW53210   0.726  10.890   3.812
50479SOL    HW153211   0.799  10.845   3.855
50479SOL    HW253212   0.674  10.819   3.772
50480SOL     OW53213  11.033   7.730  12.241
50480SOL    HW153214  10.971   7.729  12.313
50480SOL    HW253215  11.047   7.637  12.219
50481SOL     OW53216   9.695  12.146  10.147
50481SOL    HW153217   9.770  12.129  10.090
50481SOL    HW253218   9.626  12.090  10.112
50482SOL     OW53219   8.411   6.699  11.762
50482SOL    HW153220   8.421   6.653  11.679
50482SOL    HW253221   8.475   6.658  11.820
50483SOL     OW53222   6.880   6.813   0.308
50483SOL    HW153223   6.893   6.718   0.309
50483SOL    HW253224   6.886   6.839   0.400
50484SOL     OW53225   1.437  11.648   4.522
50484SOL    HW153226   1.424  11.614   4.434
50484SOL    HW253227   1.532  11.659   4.530
50485SOL     OW53228   8.783   4.245  10.476
50485SOL    HW153229   8.844   4.303  10.521
50485SOL    HW253230   8.838   4.184  10.428
50486SOL     OW53231   2.572   9.937   3.738
50486SOL    HW153232   2.517   9.883   3.682
50486SOL    HW253233   2.512   9.974   3.803
50487SOL     OW53234  10.233  12.328  14.734
50487SOL    HW153235  10.211  12.246  14.778
50487SOL    HW253236  10.324  12.344  14.756
50488SOL     OW53237   0.960   9.924  10.502
50488SOL    HW153238   0.955   9.897  10.594
50488SOL    HW253239   1.052   9.948  10.490
50489SOL     OW53240  12.031   4.148  10.200
50489SOL    HW153241  12.044   4.110  10.287
50489SOL    HW253242  11.937   4.159  10.191
50490SOL     OW53243   7.169   5.349   9.024
50490SOL    HW153244   7.084   5.393   9.029
50490SOL    HW253245   7.225   5.411   8.978
50491SOL     OW53246  12.867  10.124  11.869
50491SOL    HW153247  12.909  10.055  11.920
50491SOL    HW253248  12.900  10.205  11.908
50492SOL     OW53249   2.335   7.337   8.191
50492SOL    HW153250   2.295   7.402   8.133
50492SOL    HW253251   2.326   7.254   8.144
50493SOL     OW53252  12.208   5.983   9.808
50493SOL    HW153253  12.260   5.903   9.804
50493SOL    HW253254  12.126   5.961   9.764
50494SOL     OW53255  10.188  13.216  10.110
50494SOL    HW153256  10.147  13.275  10.173
50494SOL    HW253257  10.280  13.243  10.108
50495SOL     OW53258  13.407   1.872   0.388
50495SOL    HW153259  13.322   1.845   0.355
50495SOL    HW253260  13.425   1.814   0.461
50496SOL     OW53261   9.386   3.068  14.589
50496SOL    HW153262   9.420   2.981  14.569
50496SOL    HW253263   9.459   3.111  14.634
50497SOL     OW53264   0.035  12.662   3.447
50497SOL    HW153265   0.031  12.625   3.536
50497SOL    HW253266  14.838  12.722   3.443
50498SOL     OW53267  13.875   8.516   2.211
50498SOL    HW153268  13.875   8.585   2.277
50498SOL    HW253269  13.962   8.476   2.219
50499SOL     OW53270   3.582  11.081  10.635
50499SOL    HW153271   3.589  11.176  10.633
50499SOL    HW253272   3.597  11.054  10.544
50500SOL     OW53273  13.588   7.825   3.122
50500SOL    HW153274  13.581   7.916   3.094
50500SOL    HW253275  13.556   7.825   3.212
50501SOL     OW53276   4.434   1.142  11.357
50501SOL    HW153277   4.369   1.207  11.331
50501SOL    HW253278   4.452   1.093  11.276
50502SOL     OW53279   9.516   9.799   9.047
50502SOL    HW153280   9.487   9.763   8.963
50502SOL    HW253281   9.566   9.729   9.088
50503SOL     OW53282   2.353   5.461   6.590
50503SOL    HW153283   2.398   5.542   6.567
50503SOL    HW253284   2.390   5.436   6.675
50504SOL     OW53285   6.748  11.594   0.216
50504SOL    HW153286   6.663  11.630   0.192
50504SOL    HW253287   6.798  11.593   0.134
50505SOL     OW53288   2.023  12.212   6.983
50505SOL    HW153289   1.971  12.291   6.996
50505SOL    HW253290   1.958  12.141   6.982
50506SOL     OW53291   2.451  11.402   0.533
50506SOL    HW153292   2.467  11.470   0.467
50506SOL    HW253293   2.396  11.337   0.487
50507SOL     OW53294  10.055  12.167  11.763
50507SOL    HW153295  10.100  12.170  11.847
50507SOL    HW253296  10.076  12.081  11.727
50508SOL     OW53297  10.825  11.852   2.993
50508SOL    HW153298  10.783  11.832   3.077
50508SOL    HW253299  10.836  11.947   2.993
50509SOL     OW53300   7.009   4.553   1.084
50509SOL    HW153301   7.071   4.538   1.155
50509SOL    HW253302   6.958   4.473   1.078
50510SOL     OW53303  12.059   1.641  12.529
50510SOL    HW153304  11.975   1.596  12.538
50510SOL    HW253305  12.124   1.573  12.549
50511SOL     OW53306   0.459  10.791  11.799
50511SOL    HW153307   0.384  10.802  11.741
50511SOL    HW253308   0.530  10.763  11.741
50512SOL     OW53309  11.745   8.675   6.890
50512SOL    HW153310  11.789   8.653   6.808
50512SOL    HW253311  11.725   8.590   6.930
50513SOL     OW53312   4.449  13.542  12.597
50513SOL    HW153313   4.425  13.451  12.614
50513SOL    HW253314   4.371  13.592  12.619
50514SOL     OW53315  13.522  12.173   5.997
50514SOL    HW153316  13.588  12.210   6.056
50514SOL    HW253317  13.448  12.151   6.054
50515SOL     OW53318   8.638  14.109   3.587
50515SOL    HW153319   8.724  14.100   3.546
50515SOL    HW253320   8.577  14.105   3.514
50516SOL     OW53321   4.494  10.996   9.622
50516SOL    HW153322   4.517  10.933   9.690
50516SOL    HW253323   4.553  10.976   9.550
50517SOL     OW53324   8.763   6.814   1.465
50517SOL    HW153325   8.851   6.779   1.480
50517SOL    HW253326   8.749   6.875   1.537
50518SOL     OW53327   4.934   2.834   2.764
50518SOL    HW153328   4.870   2.854   2.695
50518SOL    HW253329   4.949   2.918   2.807
50519SOL     OW53330  14.523  10.662   7.087
50519SOL    HW153331  14.579  10.628   7.157
50519SOL    HW253332  14.571  10.642   7.007
50520SOL     OW53333   2.530  10.858  12.254
50520SOL    HW153334   2.515  10.948  12.281
50520SOL    HW253335   2.569  10.816  12.331
50521SOL     OW53336   5.271   9.454  14.676
50521SOL    HW153337   5.314   9.474  14.759
50521SOL    HW253338   5.228   9.536  14.651
50522SOL     OW53339  13.913   8.705  12.043
50522SOL    HW153340  13.970   8.731  11.971
50522SOL    HW253341  13.969   8.709  12.121
50523SOL     OW53342   8.900   7.380  12.826
50523SOL    HW153343   8.884   7.361  12.918
50523SOL    HW253344   8.994   7.366  12.815
50524SOL     OW53345   1.682  14.058  12.034
50524SOL    HW153346   1.663  13.965  12.029
50524SOL    HW253347   1.777  14.065  12.027
50525SOL     OW53348   9.385   2.533   6.640
50525SOL    HW153349   9.440   2.600   6.599
50525SOL    HW253350   9.446   2.479   6.690
50526SOL     OW53351  10.706   8.557  11.169
50526SOL    HW153352  10.775   8.542  11.106
50526SOL    HW253353  10.644   8.614  11.124
50527SOL     OW53354   8.738   2.871  13.589
50527SOL    HW153355   8.696   2.947  13.631
50527SOL    HW253356   8.750   2.808  13.660
50528SOL     OW53357  12.847   9.617   8.523
50528SOL    HW153358  12.823   9.528   8.550
50528SOL    HW253359  12.897   9.652   8.597
50529SOL     OW53360  12.454   2.972   9.743
50529SOL    HW153361  12.500   3.051   9.772
50529SOL    HW253362  12.503   2.900   9.781
50530SOL     OW53363   9.876   2.182  13.657
50530SOL    HW153364   9.794   2.149  13.621
50530SOL    HW253365   9.921   2.222  13.583
50531SOL     OW53366   0.491  11.673   7.701
50531SOL    HW153367   0.520  11.644   7.615
50531SOL    HW253368   0.396  11.659   7.700
50532SOL     OW53369  11.341   9.467   8.439
50532SOL    HW153370  11.316   9.380   8.409
50532SOL    HW253371  11.269   9.524   8.412
50533SOL     OW53372   4.623  10.787   8.479
50533SOL    HW153373   4.534  10.754   8.492
50533SOL    HW253374   4.615  10.854   8.412
50534SOL     OW53375  13.140   3.843   0.383
50534SOL    HW153376  13.217   3.793   0.409
50534SOL    HW253377  13.147   3.849   0.287
50535SOL     OW53378   9.604  10.882  13.785
50535SOL    HW153379   9.522  10.930  13.800
50535SOL    HW253380   9.651  10.935  13.720
50536SOL     OW53381   9.695  10.215  12.444
50536SOL    HW153382   9.757  10.222  12.515
50536SOL    HW253383   9.667  10.305  12.426
50537SOL     OW53384   6.719   4.615   3.660
50537SOL    HW153385   6.809   4.629   3.689
50537SOL    HW253386   6.722   4.531   3.614
50538SOL     OW53387   8.721   9.236   2.922
50538SOL    HW153388   8.734   9.147   2.954
50538SOL    HW253389   8.802   9.281   2.945
50539SOL     OW53390  13.679  13.936  11.453
50539SOL    HW153391  13.664  13.919  11.360
50539SOL    HW253392  13.734  13.863  11.482
50540SOL     OW53393   1.068   8.595   8.447
50540SOL    HW153394   1.121   8.526   8.406
50540SOL    HW253395   1.009   8.548   8.506
50541SOL     OW53396  11.435  13.215   6.031
50541SOL    HW153397  11.431  13.236   5.938
50541SOL    HW253398  11.465  13.296   6.073
50542SOL     OW53399   1.987  14.327   2.953
50542SOL    HW153400   1.937  14.353   3.030
50542SOL    HW253401   2.013  14.410   2.912
50543SOL     OW53402  12.157   0.455  10.699
50543SOL    HW153403  12.134   0.450  10.606
50543SOL    HW253404  12.102   0.527  10.733
50544SOL     OW53405   4.133   6.785  14.742
50544SOL    HW153406   4.214   6.762  14.787
50544SOL    HW253407   4.155   6.863  14.691
50545SOL     OW53408   6.497   7.492  13.780
50545SOL    HW153409   6.591   7.504  13.764
50545SOL    HW253410   6.488   7.399  13.797
50546SOL     OW53411   0.903   7.053   3.973
50546SOL    HW153412   0.862   7.138   3.989
50546SOL    HW253413   0.929   7.022   4.060
50547SOL     OW53414  14.528  13.510  11.572
50547SOL    HW153415  14.516  13.426  11.527
50547SOL    HW253416  14.616  13.504  11.609
50548SOL     OW53417   4.969  13.159  11.630
50548SOL    HW153418   4.987  13.245  11.591
50548SOL    HW253419   5.015  13.161  11.714
50549SOL     OW53420   6.784   8.206   2.164
50549SOL    HW153421   6.800   8.186   2.072
50549SOL    HW253422   6.757   8.298   2.164
50550SOL     OW53423   2.817   4.801   7.603
50550SOL    HW153424   2.775   4.816   7.688
50550SOL    HW253425   2.827   4.706   7.598
50551SOL     OW53426   1.664   9.625   8.786
50551SOL    HW153427   1.723   9.674   8.843
50551SOL    HW253428   1.576   9.644   8.820
50552SOL     OW53429   2.294   6.170   6.861
50552SOL    HW153430   2.276   6.195   6.952
50552SOL    HW253431   2.388   6.152   6.859
50553SOL     OW53432  11.829   4.419   7.455
50553SOL    HW153433  11.836   4.496   7.511
50553SOL    HW253434  11.746   4.430   7.409
50554SOL     OW53435   7.224   9.448   7.121
50554SOL    HW153436   7.169   9.493   7.185
50554SOL    HW253437   7.282   9.517   7.086
50555SOL     OW53438   3.942   6.725   4.974
50555SOL    HW153439   4.035   6.710   4.955
50555SOL    HW253440   3.940   6.755   5.065
50556SOL     OW53441  12.172   0.779   3.786
50556SOL    HW153442  12.095   0.774   3.843
50556SOL    HW253443  12.233   0.837   3.832
50557SOL     OW53444   3.022  10.042   2.924
50557SOL    HW153445   2.996  10.094   2.847
50557SOL    HW253446   2.943  10.035   2.976
50558SOL     OW53447   2.989   7.521  14.648
50558SOL    HW153448   3.058   7.586  14.664
50558SOL    HW253449   2.961   7.494  14.736
50559SOL     OW53450   3.740  13.848  13.737
50559SOL    HW153451   3.751  13.939  13.764
50559SOL    HW253452   3.797  13.798  13.796
50560SOL     OW53453  13.298   0.558  12.755
50560SOL    HW153454  13.321   0.528  12.843
50560SOL    HW253455  13.203   0.547  12.751
50561SOL     OW53456   3.910   0.725  12.299
50561SOL    HW153457   3.844   0.728  12.368
50561SOL    HW253458   3.944   0.636  12.303
50562SOL     OW53459   2.240  11.892   2.910
50562SOL    HW153460   2.202  11.980   2.903
50562SOL    HW253461   2.333  11.905   2.896
50563SOL     OW53462   1.139   3.603  13.710
50563SOL    HW153463   1.083   3.611  13.787
50563SOL    HW253464   1.228   3.614  13.745
50564SOL     OW53465   4.220   3.626  12.412
50564SOL    HW153466   4.246   3.605  12.323
50564SOL    HW253467   4.166   3.705  12.403
50565SOL     OW53468   0.408   6.067   4.502
50565SOL    HW153469   0.334   6.098   4.555
50565SOL    HW253470   0.411   5.973   4.518
50566SOL     OW53471   7.875  13.934   1.634
50566SOL    HW153472   7.818  13.912   1.708
50566SOL    HW253473   7.819  13.986   1.576
50567SOL     OW53474  12.092  13.606   0.013
50567SOL    HW153475  12.143  13.620   0.093
50567SOL    HW253476  12.007  13.647   0.032
50568SOL     OW53477  14.685   8.152   4.041
50568SOL    HW153478  14.761   8.130   4.095
50568SOL    HW253479  14.707   8.118   3.954
50569SOL     OW53480   8.413   5.325   2.192
50569SOL    HW153481   8.489   5.366   2.231
50569SOL    HW253482   8.409   5.238   2.232
50570SOL     OW53483   7.670  10.182   5.139
50570SOL    HW153484   7.750  10.135   5.114
50570SOL    HW253485   7.612  10.172   5.064
50571SOL     OW53486  11.024   3.356   4.862
50571SOL    HW153487  10.936   3.324   4.883
50571SOL    HW253488  11.081   3.279   4.872
50572SOL     OW53489   3.644   8.470   6.464
50572SOL    HW153490   3.642   8.556   6.508
50572SOL    HW253491   3.684   8.488   6.379
50573SOL     OW53492   5.743   5.788   3.418
50573SOL    HW153493   5.739   5.813   3.326
50573SOL    HW253494   5.734   5.871   3.466
50574SOL     OW53495   3.949   5.502   2.652
50574SOL    HW153496   3.967   5.408   2.649
50574SOL    HW253497   3.892   5.518   2.576
50575SOL     OW53498   7.029  12.902   2.531
50575SOL    HW153499   7.020  12.919   2.625
50575SOL    HW253500   7.123  12.903   2.515
50576SOL     OW53501   7.264  13.054   6.308
50576SOL    HW153502   7.346  13.104   6.305
50576SOL    HW253503   7.222  13.072   6.223
50577SOL     OW53504   1.825   8.627  14.519
50577SOL    HW153505   1.864   8.582  14.594
50577SOL    HW253506   1.832   8.564  14.447
50578SOL     OW53507   9.745   8.611   1.082
50578SOL    HW153508   9.810   8.587   1.016
50578SOL    HW253509   9.682   8.539   1.082
50579SOL     OW53510   7.134   5.044  11.688
50579SOL    HW153511   7.065   5.000  11.738
50579SOL    HW253512   7.128   5.007  11.600
50580SOL     OW53513  14.397  13.810  13.638
50580SOL    HW153514  14.341  13.883  13.613
50580SOL    HW253515  14.475  13.820  13.583
50581SOL     OW53516   1.540   3.943   5.659
50581SOL    HW153517   1.633   3.965   5.657
50581SOL    HW253518   1.510   3.954   5.569
50582SOL     OW53519   2.700   5.791   3.633
50582SOL    HW153520   2.704   5.754   3.722
50582SOL    HW253521   2.672   5.881   3.646
50583SOL     OW53522   0.572  11.803  12.476
50583SOL    HW153523   0.648  11.796  12.534
50583SOL    HW253524   0.502  11.836  12.532
50584SOL     OW53525  12.376  11.010  12.720
50584SOL    HW153526  12.385  11.105  12.712
50584SOL    HW253527  12.407  10.991  12.809
50585SOL     OW53528  12.366  13.660  10.149
50585SOL    HW153529  12.410  13.669  10.065
50585SOL    HW253530  12.362  13.565  10.164
50586SOL     OW53531  12.852  10.826  10.756
50586SOL    HW153532  12.815  10.738  10.747
50586SOL    HW253533  12.787  10.874  10.807
50587SOL     OW53534   4.888   1.745   1.224
50587SOL    HW153535   4.803   1.767   1.187
50587SOL    HW253536   4.897   1.650   1.210
50588SOL     OW53537   6.717  11.239   8.413
50588SOL    HW153538   6.810  11.243   8.390
50588SOL    HW253539   6.701  11.147   8.433
50589SOL     OW53540   8.803   1.711   1.862
50589SOL    HW153541   8.763   1.797   1.875
50589SOL    HW253542   8.843   1.716   1.775
50590SOL     OW53543  12.377   3.757   9.802
50590SOL    HW153544  12.321   3.827   9.836
50590SOL    HW253545  12.464   3.797   9.797
50591SOL     OW53546   9.061   1.549  14.418
50591SOL    HW153547   9.014   1.466  14.409
50591SOL    HW253548   9.001   1.615  14.384
50592SOL     OW53549   3.903   4.705   6.910
50592SOL    HW153550   3.988   4.663   6.923
50592SOL    HW253551   3.923   4.786   6.862
50593SOL     OW53552  13.146   7.301   4.603
50593SOL    HW153553  13.130   7.232   4.538
50593SOL    HW253554  13.129   7.383   4.555
50594SOL     OW53555   5.655   2.641   3.757
50594SOL    HW153556   5.685   2.616   3.669
50594SOL    HW253557   5.632   2.733   3.749
50595SOL     OW53558   2.908   6.721   3.088
50595SOL    HW153559   2.992   6.730   3.132
50595SOL    HW253560   2.927   6.665   3.012
50596SOL     OW53561   2.889   4.768   3.583
50596SOL    HW153562   2.938   4.750   3.664
50596SOL    HW253563   2.831   4.693   3.572
50597SOL     OW53564   2.799   9.790  12.149
50597SOL    HW153565   2.712   9.760  12.175
50597SOL    HW253566   2.828   9.846  12.221
50598SOL     OW53567   1.888  12.076  10.511
50598SOL    HW153568   1.920  12.151  10.462
50598SOL    HW253569   1.795  12.069  10.486
50599SOL     OW53570   0.562   7.901   9.466
50599SOL    HW153571   0.630   7.953   9.510
50599SOL    HW253572   0.512   7.964   9.416
50600SOL     OW53573   6.190   8.136   5.022
50600SOL    HW153574   6.232   8.154   5.106
50600SOL    HW253575   6.111   8.088   5.044
50601SOL     OW53576   4.212  14.437   1.406
50601SOL    HW153577   4.277  14.391   1.459
50601SOL    HW253578   4.207  14.386   1.325
50602SOL     OW53579  11.033   2.909   7.128
50602SOL    HW153580  11.074   2.993   7.109
50602SOL    HW253581  11.022   2.908   7.223
50603SOL     OW53582  14.489   5.229  12.517
50603SOL    HW153583  14.482   5.270  12.431
50603SOL    HW253584  14.499   5.136  12.499
50604SOL     OW53585   0.653   0.132   7.162
50604SOL    HW153586   0.679   0.061   7.103
50604SOL    HW253587   0.588   0.093   7.220
50605SOL     OW53588   3.662   3.619  13.464
50605SOL    HW153589   3.596   3.630  13.533
50605SOL    HW253590   3.724   3.690  13.480
50606SOL     OW53591   9.076   7.550   2.224
50606SOL    HW153592   9.083   7.456   2.242
50606SOL    HW253593   9.070   7.591   2.310
50607SOL     OW53594   1.701  11.709   4.495
50607SOL    HW153595   1.742  11.796   4.495
50607SOL    HW253596   1.774  11.648   4.493
50608SOL     OW53597   9.554   1.694   6.146
50608SOL    HW153598   9.494   1.738   6.206
50608SOL    HW253599   9.637   1.688   6.194
50609SOL     OW53600   4.386   3.601   9.655
50609SOL    HW153601   4.394   3.537   9.584
50609SOL    HW253602   4.312   3.656   9.630
50610SOL     OW53603  13.126  10.786  12.144
50610SOL    HW153604  13.119  10.747  12.231
50610SOL    HW253605  13.211  10.831  12.144
50611SOL     OW53606   4.547   9.136   4.608
50611SOL    HW153607   4.487   9.100   4.543
50611SOL    HW253608   4.508   9.115   4.692
50612SOL     OW53609  11.725   2.107   6.544
50612SOL    HW153610  11.735   2.173   6.613
50612SOL    HW253611  11.639   2.069   6.560
50613SOL     OW53612  12.214  14.414  10.065
50613SOL    HW153613  12.288  14.356  10.081
50613SOL    HW253614  12.178  14.385   9.981
50614SOL     OW53615  13.581   4.676  12.092
50614SOL    HW153616  13.525   4.691  12.017
50614SOL    HW253617  13.612   4.586  12.082
50615SOL     OW53618   4.911   2.744   6.541
50615SOL    HW153619   4.943   2.827   6.576
50615SOL    HW253620   4.839   2.770   6.482
50616SOL     OW53621  13.852   0.381   0.373
50616SOL    HW153622  13.833   0.462   0.327
50616SOL    HW253623  13.766   0.340   0.386
50617SOL     OW53624   8.889   3.449   1.477
50617SOL    HW153625   8.954   3.385   1.449
50617SOL    HW253626   8.937   3.509   1.534
50618SOL     OW53627   1.792   2.651   7.326
50618SOL    HW153628   1.842   2.714   7.274
50618SOL    HW253629   1.805   2.567   7.282
50619SOL     OW53630  14.354  11.300   6.870
50619SOL    HW153631  14.444  11.270   6.885
50619SOL    HW253632  14.334  11.270   6.781
50620SOL     OW53633   7.740  14.170   3.420
50620SOL    HW153634   7.798  14.224   3.473
50620SOL    HW253635   7.767  14.188   3.330
50621SOL     OW53636  10.597   7.206   1.720
50621SOL    HW153637  10.645   7.239   1.645
50621SOL    HW253638  10.511   7.181   1.685
50622SOL     OW53639   6.209   6.423   0.302
50622SOL    HW153640   6.154   6.398   0.376
50622SOL    HW253641   6.247   6.340   0.271
50623SOL     OW53642   3.911   9.550  12.582
50623SOL    HW153643   3.915   9.642  12.608
50623SOL    HW253644   4.002   9.527  12.563
50624SOL     OW53645   5.197  13.927  12.473
50624SOL    HW153646   5.248  13.969  12.404
50624SOL    HW253647   5.106  13.942  12.447
50625SOL     OW53648   0.095   6.364   4.375
50625SOL    HW153649   0.187   6.388   4.381
50625SOL    HW253650   0.094   6.269   4.390
50626SOL     OW53651   9.126  13.037   6.895
50626SOL    HW153652   9.063  13.102   6.925
50626SOL    HW253653   9.096  12.955   6.933
50627SOL     OW53654   7.050  11.894  10.010
50627SOL    HW153655   6.996  11.906   9.932
50627SOL    HW253656   7.139  11.881   9.976
50628SOL     OW53657   5.755   0.610   5.035
50628SOL    HW153658   5.675   0.582   4.990
50628SOL    HW253659   5.822   0.549   5.004
50629SOL     OW53660  13.727  13.649   2.781
50629SOL    HW153661  13.776  13.725   2.814
50629SOL    HW253662  13.658  13.635   2.845
50630SOL     OW53663  13.425   2.136  10.602
50630SOL    HW153664  13.336   2.170  10.598
50630SOL    HW253665  13.416   2.050  10.643
50631SOL     OW53666  10.992   2.161   1.158
50631SOL    HW153667  10.967   2.240   1.109
50631SOL    HW253668  10.954   2.174   1.244
50632SOL     OW53669   6.853   1.006   4.245
50632SOL    HW153670   6.830   0.963   4.327
50632SOL    HW253671   6.918   1.071   4.268
50633SOL     OW53672   2.374  11.120  14.794
50633SOL    HW153673   2.436  11.142  14.724
50633SOL    HW253674   2.294  11.168  14.772
50634SOL     OW53675   4.809   4.535   2.575
50634SOL    HW153676   4.875   4.567   2.636
50634SOL    HW253677   4.855   4.468   2.523
50635SOL     OW53678  13.989   2.493  11.723
50635SOL    HW153679  13.930   2.422  11.747
50635SOL    HW253680  13.943   2.572  11.749
50636SOL     OW53681  14.089  10.902   9.170
50636SOL    HW153682  14.133  10.971   9.218
50636SOL    HW253683  14.129  10.903   9.083
50637SOL     OW53684   7.549   0.537   7.973
50637SOL    HW153685   7.644   0.525   7.968
50637SOL    HW253686   7.520   0.469   8.035
50638SOL     OW53687   3.177   7.807   8.780
50638SOL    HW153688   3.125   7.841   8.852
50638SOL    HW253689   3.263   7.848   8.792
50639SOL     OW53690  11.528   5.941   8.911
50639SOL    HW153691  11.578   6.001   8.966
50639SOL    HW253692  11.542   5.973   8.822
50640SOL     OW53693   0.759   1.073  13.505
50640SOL    HW153694   0.703   1.085  13.581
50640SOL    HW253695   0.829   1.138  13.516
50641SOL     OW53696  13.897  11.843   6.070
50641SOL    HW153697  13.943  11.918   6.108
50641SOL    HW253698  13.936  11.833   5.983
50642SOL     OW53699   8.507   8.343  14.436
50642SOL    HW153700   8.493   8.384  14.521
50642SOL    HW253701   8.568   8.401  14.391
50643SOL     OW53702   1.678  14.054  13.894
50643SOL    HW153703   1.762  14.074  13.853
50643SOL    HW253704   1.679  13.959  13.905
50644SOL     OW53705   9.139   7.359   7.122
50644SOL    HW153706   9.120   7.373   7.215
50644SOL    HW253707   9.102   7.273   7.103
50645SOL     OW53708   3.365   4.884   6.846
50645SOL    HW153709   3.276   4.871   6.813
50645SOL    HW253710   3.357   4.877   6.941
50646SOL     OW53711   8.332   0.825  10.245
50646SOL    HW153712   8.334   0.904  10.299
50646SOL    HW253713   8.396   0.842  10.175
50647SOL     OW53714   0.086   7.122   9.031
50647SOL    HW153715   0.115   7.033   9.054
50647SOL    HW253716   0.038   7.152   9.108
50648SOL     OW53717   7.051   2.693   5.817
50648SOL    HW153718   7.123   2.696   5.879
50648SOL    HW253719   7.050   2.602   5.786
50649SOL     OW53720   1.434   0.191   6.529
50649SOL    HW153721   1.356   0.155   6.573
50649SOL    HW253722   1.399   0.254   6.466
50650SOL     OW53723   7.533  11.296   8.848
50650SOL    HW153724   7.515  11.202   8.846
50650SOL    HW253725   7.453  11.335   8.883
50651SOL     OW53726   8.385   1.684  10.644
50651SOL    HW153727   8.305   1.720  10.605
50651SOL    HW253728   8.408   1.609  10.589
50652SOL     OW53729  13.677   9.958   5.372
50652SOL    HW153730  13.673  10.051   5.351
50652SOL    HW253731  13.597   9.941   5.423
50653SOL     OW53732   1.383  13.375  14.574
50653SOL    HW153733   1.309  13.435  14.584
50653SOL    HW253734   1.350  13.291  14.606
50654SOL     OW53735  13.731   2.685   9.120
50654SOL    HW153736  13.644   2.724   9.110
50654SOL    HW253737  13.727   2.639   9.204
50655SOL     OW53738   4.505   0.652   7.068
50655SOL    HW153739   4.479   0.695   7.149
50655SOL    HW253740   4.495   0.719   7.001
50656SOL     OW53741   8.999   1.412   5.436
50656SOL    HW153742   9.042   1.470   5.498
50656SOL    HW253743   8.995   1.462   5.355
50657SOL     OW53744  10.055  10.748  13.259
50657SOL    HW153745   9.962  10.762  13.276
50657SOL    HW253746  10.060  10.734  13.164
50658SOL     OW53747   7.391   0.902   8.914
50658SOL    HW153748   7.419   0.946   8.994
50658SOL    HW253749   7.469   0.856   8.883
50659SOL     OW53750  12.034  14.539   2.747
50659SOL    HW153751  12.071  14.462   2.791
50659SOL    HW253752  12.020  14.602   2.818
50660SOL     OW53753   2.121   7.872   4.549
50660SOL    HW153754   2.153   7.784   4.528
50660SOL    HW253755   2.050   7.886   4.487
50661SOL     OW53756   0.369  13.083  11.306
50661SOL    HW153757   0.446  13.037  11.340
50661SOL    HW253758   0.298  13.019  11.313
50662SOL     OW53759   3.009   9.911   9.416
50662SOL    HW153760   3.042   9.979   9.358
50662SOL    HW253761   3.046   9.830   9.381
50663SOL     OW53762   1.218   7.702  11.196
50663SOL    HW153763   1.198   7.616  11.160
50663SOL    HW253764   1.313   7.710  11.189
50664SOL     OW53765   0.634   2.222  11.329
50664SOL    HW153766   0.590   2.220  11.415
50664SOL    HW253767   0.674   2.309  11.325
50665SOL     OW53768  10.439  13.636  10.295
50665SOL    HW153769  10.443  13.730  10.312
50665SOL    HW253770  10.461  13.595  10.379
50666SOL     OW53771   9.791   5.864   5.104
50666SOL    HW153772   9.819   5.774   5.088
50666SOL    HW253773   9.784   5.870   5.200
50667SOL     OW53774  12.058  11.774  12.641
50667SOL    HW153775  12.030  11.849  12.589
50667SOL    HW253776  12.051  11.803  12.731
50668SOL     OW53777   7.116   9.011  10.092
50668SOL    HW153778   7.136   9.021   9.999
50668SOL    HW253779   7.057   8.936  10.095
50669SOL     OW53780  14.595   6.216   0.882
50669SOL    HW153781  14.582   6.284   0.948
50669SOL    HW253782  14.575   6.134   0.929
50670SOL     OW53783  13.104  10.559   7.621
50670SOL    HW153784  13.055  10.553   7.703
50670SOL    HW253785  13.192  10.527   7.643
50671SOL     OW53786  10.374   1.744  12.534
50671SOL    HW153787  10.314   1.745  12.460
50671SOL    HW253788  10.431   1.820  12.521
50672SOL     OW53789  11.741  10.660   7.299
50672SOL    HW153790  11.740  10.746   7.257
50672SOL    HW253791  11.670  10.611   7.255
50673SOL     OW53792  10.984   9.101   1.107
50673SOL    HW153793  11.032   9.105   1.190
50673SOL    HW253794  11.051   9.079   1.042
50674SOL     OW53795  13.197  12.557  13.168
50674SOL    HW153796  13.113  12.594  13.139
50674SOL    HW253797  13.172  12.493  13.234
50675SOL     OW53798   8.165   1.651   9.746
50675SOL    HW153799   8.249   1.648   9.701
50675SOL    HW253800   8.110   1.589   9.699
50676SOL     OW53801   1.617   8.757  11.466
50676SOL    HW153802   1.654   8.810  11.396
50676SOL    HW253803   1.523   8.758  11.449
50677SOL     OW53804  13.876   1.858  10.052
50677SOL    HW153805  13.835   1.904  10.125
50677SOL    HW253806  13.921   1.927  10.002
50678SOL     OW53807   3.920  13.556  12.074
50678SOL    HW153808   3.991  13.620  12.080
50678SOL    HW253809   3.867  13.586  12.001
50679SOL     OW53810   7.047   9.639   0.430
50679SOL    HW153811   7.068   9.546   0.436
50679SOL    HW253812   7.096   9.670   0.354
50680SOL     OW53813   9.317   4.087  13.710
50680SOL    HW153814   9.394   4.050  13.666
50680SOL    HW253815   9.242   4.047  13.666
50681SOL     OW53816   5.361  11.509   6.963
50681SOL    HW153817   5.414  11.495   7.042
50681SOL    HW253818   5.308  11.430   6.956
50682SOL     OW53819   2.968   3.518  12.867
50682SOL    HW153820   2.952   3.424  12.859
50682SOL    HW253821   2.886   3.559  12.842
50683SOL     OW53822   6.165  10.242   6.153
50683SOL    HW153823   6.163  10.225   6.059
50683SOL    HW253824   6.155  10.337   6.160
50684SOL     OW53825  10.799  13.948   2.329
50684SOL    HW153826  10.891  13.924   2.339
50684SOL    HW253827  10.757  13.918   2.409
50685SOL     OW53828  13.958   4.089   7.722
50685SOL    HW153829  13.869   4.055   7.729
50685SOL    HW253830  13.950   4.167   7.667
50686SOL     OW53831   6.343   7.441  14.176
50686SOL    HW153832   6.355   7.401  14.090
50686SOL    HW253833   6.431   7.441  14.215
50687SOL     OW53834   8.239   4.507   8.312
50687SOL    HW153835   8.315   4.519   8.255
50687SOL    HW253836   8.262   4.432   8.367
50688SOL     OW53837  14.156  11.478   3.918
50688SOL    HW153838  14.098  11.475   3.995
50688SOL    HW253839  14.097  11.491   3.844
50689SOL     OW53840  12.892  10.523   2.884
50689SOL    HW153841  12.830  10.516   2.956
50689SOL    HW253842  12.975  10.491   2.920
50690SOL     OW53843   3.982  13.108   7.015
50690SOL    HW153844   3.936  13.061   7.085
50690SOL    HW253845   4.070  13.122   7.050
50691SOL     OW53846   2.022  12.394   8.401
50691SOL    HW153847   1.994  12.303   8.407
50691SOL    HW253848   2.118  12.389   8.391
50692SOL     OW53849   4.519  12.156   1.808
50692SOL    HW153850   4.567  12.227   1.852
50692SOL    HW253851   4.437  12.150   1.857
50693SOL     OW53852   1.166   8.928  14.687
50693SOL    HW153853   1.154   8.954  14.595
50693SOL    HW253854   1.194   9.008  14.731
50694SOL     OW53855  12.933   0.282   2.793
50694SOL    HW153856  12.875   0.232   2.736
50694SOL    HW253857  12.894   0.274   2.880
50695SOL     OW53858   0.861   3.643   4.163
50695SOL    HW153859   0.810   3.587   4.221
50695SOL    HW253860   0.871   3.592   4.082
50696SOL     OW53861   1.735   4.037  13.768
50696SOL    HW153862   1.776   3.954  13.791
50696SOL    HW253863   1.785   4.103  13.817
50697SOL     OW53864   6.737   2.337   3.432
50697SOL    HW153865   6.792   2.262   3.412
50697SOL    HW253866   6.792   2.414   3.416
50698SOL     OW53867  14.599  12.656   8.808
50698SOL    HW153868  14.664  12.587   8.801
50698SOL    HW253869  14.646  12.736   8.782
50699SOL     OW53870  10.379  13.546   9.231
50699SOL    HW153871  10.427  13.617   9.275
50699SOL    HW253872  10.310  13.523   9.293
50700SOL     OW53873   2.078  12.461   5.229
50700SOL    HW153874   2.022  12.539   5.228
50700SOL    HW253875   2.129  12.468   5.148
50701SOL     OW53876   3.518   9.914   1.538
50701SOL    HW153877   3.469   9.884   1.462
50701SOL    HW253878   3.452   9.929   1.606
50702SOL     OW53879   9.137   5.312   2.354
50702SOL    HW153880   9.076   5.242   2.331
50702SOL    HW253881   9.127   5.324   2.448
50703SOL     OW53882  10.041   6.752   5.007
50703SOL    HW153883  10.050   6.770   5.100
50703SOL    HW253884  10.003   6.664   5.003
50704SOL     OW53885   0.455  11.900   5.237
50704SOL    HW153886   0.524  11.898   5.170
50704SOL    HW253887   0.373  11.894   5.187
50705SOL     OW53888   0.265  13.380   4.665
50705SOL    HW153889   0.218  13.459   4.638
50705SOL    HW253890   0.355  13.396   4.638
50706SOL     OW53891   8.888   9.927  10.272
50706SOL    HW153892   8.937   9.978  10.336
50706SOL    HW253893   8.847   9.857  10.322
50707SOL     OW53894  12.277   6.119   6.930
50707SOL    HW153895  12.301   6.028   6.914
50707SOL    HW253896  12.358   6.168   6.917
50708SOL     OW53897   4.774   3.270   5.169
50708SOL    HW153898   4.760   3.272   5.075
50708SOL    HW253899   4.775   3.177   5.192
50709SOL     OW53900   1.884   6.838   7.186
50709SOL    HW153901   1.961   6.795   7.149
50709SOL    HW253902   1.912   6.929   7.200
50710SOL     OW53903   7.303   2.133   3.782
50710SOL    HW153904   7.334   2.211   3.828
50710SOL    HW253905   7.381   2.078   3.772
50711SOL     OW53906   7.074   2.223   9.402
50711SOL    HW153907   7.046   2.166   9.330
50711SOL    HW253908   7.032   2.186   9.480
50712SOL     OW53909  12.356  13.373  12.256
50712SOL    HW153910  12.326  13.360  12.166
50712SOL    HW253911  12.450  13.386  12.249
50713SOL     OW53912   8.425   5.565   7.948
50713SOL    HW153913   8.447   5.489   7.894
50713SOL    HW253914   8.502   5.577   8.004
50714SOL     OW53915  12.794   8.957   9.401
50714SOL    HW153916  12.704   8.989   9.402
50714SOL    HW253917  12.791   8.874   9.449
50715SOL     OW53918   0.656   2.418   9.931
50715SOL    HW153919   0.644   2.323   9.939
50715SOL    HW253920   0.735   2.428   9.878
50716SOL     OW53921  14.844   6.963   1.784
50716SOL    HW153922  14.752   6.940   1.802
50716SOL    HW253923  14.847   7.058   1.791
50717SOL     OW53924   1.684  12.541   1.418
50717SOL    HW153925   1.695  12.616   1.359
50717SOL    HW253926   1.753  12.551   1.483
50718SOL     OW53927   0.681  10.837   5.886
50718SOL    HW153928   0.757  10.883   5.921
50718SOL    HW253929   0.712  10.747   5.873
50719SOL     OW53930  13.425   3.597   3.929
50719SOL    HW153931  13.403   3.512   3.891
50719SOL    HW253932  13.518   3.589   3.952
50720SOL     OW53933  12.331   5.034  12.829
50720SOL    HW153934  12.325   4.946  12.867
50720SOL    HW253935  12.386   5.023  12.752
50721SOL     OW53936   7.658  13.451   8.561
50721SOL    HW153937   7.712  13.506   8.618
50721SOL    HW253938   7.570  13.489   8.568
50722SOL     OW53939   0.267   2.067   4.489
50722SOL    HW153940   0.235   1.982   4.517
50722SOL    HW253941   0.274   2.060   4.393
50723SOL     OW53942   1.083   3.371   2.349
50723SOL    HW153943   1.139   3.448   2.356
50723SOL    HW253944   1.022   3.378   2.423
50724SOL     OW53945   9.278   3.850   1.419
50724SOL    HW153946   9.373   3.858   1.409
50724SOL    HW253947   9.242   3.921   1.366
50725SOL     OW53948   7.834  12.942   3.209
50725SOL    HW153949   7.766  12.901   3.263
50725SOL    HW253950   7.861  13.019   3.259
50726SOL     OW53951   9.566   8.444  13.390
50726SOL    HW153952   9.577   8.506  13.462
50726SOL    HW253953   9.499   8.483  13.334
50727SOL     OW53954   2.683  11.360  10.787
50727SOL    HW153955   2.760  11.325  10.831
50727SOL    HW253956   2.661  11.294  10.722
50728SOL     OW53957   2.188   7.313  12.491
50728SOL    HW153958   2.227   7.379  12.547
50728SOL    HW253959   2.122   7.271  12.546
50729SOL     OW53960  12.540   8.821   3.305
50729SOL    HW153961  12.611   8.759   3.288
50729SOL    HW253962  12.570   8.872   3.380
50730SOL     OW53963  11.731   4.857  13.621
50730SOL    HW153964  11.735   4.762  13.606
50730SOL    HW253965  11.674   4.889  13.551
50731SOL     OW53966   9.025  11.484   8.982
50731SOL    HW153967   8.947  11.490   8.926
50731SOL    HW253968   9.083  11.553   8.948
50732SOL     OW53969  12.396   7.285  11.190
50732SOL    HW153970  12.489   7.300  11.207
50732SOL    HW253971  12.354   7.295  11.275
50733SOL     OW53972   9.660   7.331  12.229
50733SOL    HW153973   9.665   7.239  12.202
50733SOL    HW253974   9.701   7.332  12.315
50734SOL     OW53975   0.366   8.036   7.313
50734SOL    HW153976   0.344   7.965   7.253
50734SOL    HW253977   0.393   8.108   7.257
50735SOL     OW53978   5.041   2.214  12.383
50735SOL    HW153979   4.986   2.216  12.461
50735SOL    HW253980   4.981   2.224  12.310
50736SOL     OW53981  11.084   0.590  10.074
50736SOL    HW153982  10.995   0.555  10.082
50736SOL    HW253983  11.084   0.668  10.129
50737SOL     OW53984   7.545   7.686   2.853
50737SOL    HW153985   7.455   7.715   2.868
50737SOL    HW253986   7.540   7.627   2.778
50738SOL     OW53987   4.857  12.707  11.712
50738SOL    HW153988   4.935  12.662  11.681
50738SOL    HW253989   4.885  12.750  11.793
50739SOL     OW53990   7.096  11.957  11.054
50739SOL    HW153991   7.102  11.871  11.012
50739SOL    HW253992   7.160  11.954  11.125
50740SOL     OW53993   2.867   5.620  13.046
50740SOL    HW153994   2.790   5.661  13.006
50740SOL    HW253995   2.832   5.545  13.094
50741SOL     OW53996  11.198   7.035   1.420
50741SOL    HW153997  11.180   7.015   1.512
50741SOL    HW253998  11.180   6.954   1.374
50742SOL     OW53999  11.578   9.881  13.261
50742SOL    HW154000  11.660   9.920  13.290
50742SOL    HW254001  11.585   9.879  13.166
50743SOL     OW54002   4.298   0.664   6.165
50743SOL    HW154003   4.348   0.664   6.247
50743SOL    HW254004   4.215   0.622   6.188
50744SOL     OW54005   8.277  11.116  12.885
50744SOL    HW154006   8.343  11.056  12.920
50744SOL    HW254007   8.309  11.140  12.798
50745SOL     OW54008   7.833   7.556   2.891
50745SOL    HW154009   7.766   7.551   2.959
50745SOL    HW254010   7.836   7.467   2.855
50746SOL     OW54011  12.839   0.258   6.018
50746SOL    HW154012  12.766   0.214   5.973
50746SOL    HW254013  12.912   0.196   6.011
50747SOL     OW54014   9.112   9.805   2.500
50747SOL    HW154015   9.162   9.839   2.575
50747SOL    HW254016   9.179   9.770   2.441
50748SOL     OW54017   8.771   6.737  10.106
50748SOL    HW154018   8.804   6.656  10.144
50748SOL    HW254019   8.832   6.757  10.035
50749SOL     OW54020   2.587   2.755  12.702
50749SOL    HW154021   2.584   2.795  12.615
50749SOL    HW254022   2.680   2.761  12.726
50750SOL     OW54023  12.377   8.795   2.632
50750SOL    HW154024  12.464   8.771   2.661
50750SOL    HW254025  12.358   8.878   2.676
50751SOL     OW54026   8.985  13.791  11.378
50751SOL    HW154027   9.004  13.750  11.462
50751SOL    HW254028   9.057  13.854  11.366
50752SOL     OW54029   2.363   2.247   7.248
50752SOL    HW154030   2.436   2.283   7.198
50752SOL    HW254031   2.366   2.153   7.232
50753SOL     OW54032  11.445   7.450   6.420
50753SOL    HW154033  11.364   7.457   6.370
50753SOL    HW254034  11.513   7.482   6.361
50754SOL     OW54035  10.115  12.597   5.325
50754SOL    HW154036  10.025  12.599   5.356
50754SOL    HW254037  10.123  12.675   5.269
50755SOL     OW54038   9.420   4.300   1.321
50755SOL    HW154039   9.500   4.264   1.358
50755SOL    HW254040   9.445   4.387   1.289
50756SOL     OW54041   4.491  12.633   3.242
50756SOL    HW154042   4.423  12.620   3.307
50756SOL    HW254043   4.452  12.693   3.178
50757SOL     OW54044   2.196   2.843   2.821
50757SOL    HW154045   2.240   2.873   2.741
50757SOL    HW254046   2.144   2.768   2.793
50758SOL     OW54047   7.443  14.637   8.601
50758SOL    HW154048   7.352  14.617   8.621
50758SOL    HW254049   7.448  14.732   8.601
50759SOL     OW54050   7.211  10.314   4.210
50759SOL    HW154051   7.175  10.242   4.263
50759SOL    HW254052   7.136  10.369   4.190
50760SOL     OW54053  10.312   0.575  14.633
50760SOL    HW154054  10.287   0.549  14.544
50760SOL    HW254055  10.335   0.493  14.676
50761SOL     OW54056  12.957  14.287  11.523
50761SOL    HW154057  12.907  14.262  11.600
50761SOL    HW254058  13.026  14.221  11.516
50762SOL     OW54059   4.775  13.144  13.399
50762SOL    HW154060   4.751  13.053  13.381
50762SOL    HW254061   4.844  13.164  13.335
50763SOL     OW54062   2.144   1.253   2.221
50763SOL    HW154063   2.192   1.335   2.214
50763SOL    HW254064   2.058   1.271   2.183
50764SOL     OW54065  11.669   1.709   7.488
50764SOL    HW154066  11.585   1.693   7.445
50764SOL    HW254067  11.714   1.625   7.486
50765SOL     OW54068   2.658  10.313   9.236
50765SOL    HW154069   2.677  10.271   9.320
50765SOL    HW254070   2.745  10.333   9.200
50766SOL     OW54071   7.572   9.655  10.352
50766SOL    HW154072   7.619   9.709  10.288
50766SOL    HW254073   7.487   9.637  10.311
50767SOL     OW54074   4.617  11.389  10.409
50767SOL    HW154075   4.669  11.408  10.331
50767SOL    HW254076   4.577  11.304  10.390
50768SOL     OW54077   3.550   4.877  12.344
50768SOL    HW154078   3.505   4.850  12.424
50768SOL    HW254079   3.510   4.961  12.321
50769SOL     OW54080   0.877   5.755   0.467
50769SOL    HW154081   0.846   5.708   0.545
50769SOL    HW254082   0.964   5.787   0.492
50770SOL     OW54083   3.676   0.740   8.485
50770SOL    HW154084   3.743   0.734   8.553
50770SOL    HW254085   3.724   0.731   8.403
50771SOL     OW54086  14.466   6.453   2.589
50771SOL    HW154087  14.395   6.497   2.635
50771SOL    HW254088  14.545   6.482   2.635
50772SOL     OW54089   7.854  14.602  13.719
50772SOL    HW154090   7.941  14.621  13.682
50772SOL    HW254091   7.872  14.556  13.801
50773SOL     OW54092   8.375   3.263  14.739
50773SOL    HW154093   8.310   3.193  14.738
50773SOL    HW254094   8.331   3.338  14.699
50774SOL     OW54095   8.578  10.539  14.582
50774SOL    HW154096   8.583  10.449  14.616
50774SOL    HW254097   8.669  10.565  14.571
50775SOL     OW54098   0.422   0.015   8.175
50775SOL    HW154099   0.419   0.077   8.102
50775SOL    HW254100   0.376   0.059   8.246
50776SOL     OW54101   2.972   9.532  14.117
50776SOL    HW154102   2.978   9.627  14.115
50776SOL    HW254103   3.031   9.503  14.048
50777SOL     OW54104   5.927   2.319   2.428
50777SOL    HW154105   6.004   2.375   2.419
50777SOL    HW254106   5.933   2.285   2.517
50778SOL     OW54107   6.492   3.749   7.699
50778SOL    HW154108   6.405   3.723   7.669
50778SOL    HW254109   6.485   3.753   7.794
50779SOL     OW54110  13.796   4.917   3.238
50779SOL    HW154111  13.890   4.937   3.234
50779SOL    HW254112  13.767   4.922   3.147
50780SOL     OW54113   9.328  10.671   3.185
50780SOL    HW154114   9.387  10.678   3.111
50780SOL    HW254115   9.260  10.609   3.157
50781SOL     OW54116   4.951   2.010   6.765
50781SOL    HW154117   4.944   2.033   6.858
50781SOL    HW254118   5.024   1.947   6.762
50782SOL     OW54119  13.167   6.282  12.947
50782SOL    HW154120  13.207   6.196  12.938
50782SOL    HW254121  13.080   6.264  12.982
50783SOL     OW54122   0.123  14.614   0.283
50783SOL    HW154123   0.202  14.606   0.229
50783SOL    HW254124   0.060  14.555   0.242
50784SOL     OW54125   2.915   8.137   9.718
50784SOL    HW154126   2.865   8.117   9.797
50784SOL    HW254127   2.904   8.231   9.706
50785SOL     OW54128   7.813   3.507  11.189
50785SOL    HW154129   7.835   3.541  11.102
50785SOL    HW254130   7.745   3.442  11.172
50786SOL     OW54131   3.755   3.099   2.591
50786SOL    HW154132   3.729   3.110   2.682
50786SOL    HW254133   3.843   3.135   2.586
50787SOL     OW54134   0.376   9.225  11.963
50787SOL    HW154135   0.348   9.306  12.007
50787SOL    HW254136   0.324   9.156  12.004
50788SOL     OW54137  12.417   3.608   2.443
50788SOL    HW154138  12.454   3.628   2.357
50788SOL    HW254139  12.332   3.569   2.423
50789SOL     OW54140  11.403   4.722   7.240
50789SOL    HW154141  11.333   4.658   7.257
50789SOL    HW254142  11.412   4.722   7.145
50790SOL     OW54143  14.083  11.890   5.405
50790SOL    HW154144  14.130  11.851   5.479
50790SOL    HW254145  14.020  11.950   5.445
50791SOL     OW54146  12.103   7.664   8.653
50791SOL    HW154147  12.012   7.692   8.664
50791SOL    HW254148  12.151   7.745   8.634
50792SOL     OW54149   0.050   2.158   3.549
50792SOL    HW154150   0.103   2.206   3.485
50792SOL    HW254151   0.003   2.093   3.497
50793SOL     OW54152   4.577  10.770   6.633
50793SOL    HW154153   4.607  10.790   6.544
50793SOL    HW254154   4.644  10.711   6.668
50794SOL     OW54155   1.893  12.087   7.668
50794SOL    HW154156   1.968  12.030   7.682
50794SOL    HW254157   1.928  12.162   7.620
50795SOL     OW54158   3.386  12.213   0.747
50795SOL    HW154159   3.462  12.260   0.712
50795SOL    HW254160   3.421  12.155   0.814
50796SOL     OW54161   0.059  13.384  11.075
50796SOL    HW154162   0.154  13.400  11.068
50796SOL    HW254163   0.048  13.347  11.163
50797SOL     OW54164   7.256   4.476   7.480
50797SOL    HW154165   7.311   4.432   7.415
50797SOL    HW254166   7.264   4.421   7.559
50798SOL     OW54167   2.205   1.542  10.529
50798SOL    HW154168   2.280   1.522  10.584
50798SOL    HW254169   2.162   1.457  10.516
50799SOL     OW54170  12.995   4.325  14.512
50799SOL    HW154171  12.961   4.284  14.433
50799SOL    HW254172  13.045   4.400  14.481
50800SOL     OW54173  10.981  13.596  10.107
50800SOL    HW154174  10.975  13.677  10.058
50800SOL    HW254175  11.064  13.557  10.079
50801SOL     OW54176   8.834  12.824  12.387
50801SOL    HW154177   8.917  12.798  12.428
50801SOL    HW254178   8.787  12.741  12.376
50802SOL     OW54179   2.860  12.704   3.469
50802SOL    HW154180   2.892  12.676   3.384
50802SOL    HW254181   2.804  12.779   3.451
50803SOL     OW54182   0.071   5.896   3.453
50803SOL    HW154183   0.112   5.905   3.367
50803SOL    HW254184   0.135   5.850   3.506
50804SOL     OW54185   3.021  12.920  12.719
50804SOL    HW154186   3.110  12.889  12.706
50804SOL    HW254187   3.028  13.015  12.717
50805SOL     OW54188   5.164   6.201   7.992
50805SOL    HW154189   5.121   6.130   8.041
50805SOL    HW254190   5.245   6.162   7.959
50806SOL     OW54191   7.754   0.571  11.505
50806SOL    HW154192   7.778   0.645  11.449
50806SOL    HW254193   7.796   0.495  11.463
50807SOL     OW54194  11.621   9.647   3.455
50807SOL    HW154195  11.620   9.624   3.548
50807SOL    HW254196  11.531   9.633   3.426
50808SOL     OW54197  14.154   3.230   8.701
50808SOL    HW154198  14.102   3.150   8.709
50808SOL    HW254199  14.117   3.275   8.625
50809SOL     OW54200   5.249   3.724  10.204
50809SOL    HW154201   5.301   3.647  10.181
50809SOL    HW254202   5.179   3.726  10.138
50810SOL     OW54203   2.657   5.809   6.357
50810SOL    HW154204   2.739   5.797   6.310
50810SOL    HW254205   2.647   5.904   6.366
50811SOL     OW54206   6.399   1.447   1.353
50811SOL    HW154207   6.464   1.376   1.350
50811SOL    HW254208   6.415   1.497   1.273
50812SOL     OW54209  12.449  13.944  12.217
50812SOL    HW154210  12.363  13.978  12.241
50812SOL    HW254211  12.465  13.873  12.279
50813SOL     OW54212  14.070   2.008   0.383
50813SOL    HW154213  14.095   1.938   0.443
50813SOL    HW254214  13.995   2.050   0.426
50814SOL     OW54215   9.124   8.754  12.600
50814SOL    HW154216   9.091   8.743  12.511
50814SOL    HW254217   9.070   8.824  12.638
50815SOL     OW54218   7.490   5.085  12.192
50815SOL    HW154219   7.402   5.107  12.163
50815SOL    HW254220   7.494   5.118  12.282
50816SOL     OW54221   3.373   6.446   8.658
50816SOL    HW154222   3.302   6.407   8.708
50816SOL    HW254223   3.378   6.536   8.690
50817SOL     OW54224   9.249   3.577  11.103
50817SOL    HW154225   9.294   3.651  11.061
50817SOL    HW254226   9.161   3.610  11.121
50818SOL     OW54227   6.313   0.892   6.442
50818SOL    HW154228   6.240   0.922   6.389
50818SOL    HW254229   6.361   0.831   6.385
50819SOL     OW54230   9.626  13.310   3.906
50819SOL    HW154231   9.673  13.393   3.907
50819SOL    HW254232   9.638  13.276   3.817
50820SOL     OW54233  12.411  14.611  14.499
50820SOL    HW154234  12.324  14.612  14.459
50820SOL    HW254235  12.471  14.605  14.425
50821SOL     OW54236  12.820  13.681   6.686
50821SOL    HW154237  12.812  13.667   6.781
50821SOL    HW254238  12.894  13.627   6.660
50822SOL     OW54239   5.023   0.677  13.875
50822SOL    HW154240   4.992   0.700  13.963
50822SOL    HW254241   5.119   0.678  13.883
50823SOL     OW54242   5.145   1.334   1.731
50823SOL    HW154243   5.183   1.379   1.807
50823SOL    HW254244   5.169   1.389   1.656
50824SOL     OW54245   9.782   0.338   6.383
50824SOL    HW154246   9.772   0.433   6.375
50824SOL    HW254247   9.869   0.326   6.422
50825SOL     OW54248  10.839  12.772  11.924
50825SOL    HW154249  10.873  12.801  12.009
50825SOL    HW254250  10.835  12.677  11.930
50826SOL     OW54251  10.611  11.969  10.440
50826SOL    HW154252  10.560  11.986  10.361
50826SOL    HW254253  10.673  11.901  10.415
50827SOL     OW54254   9.871  11.766   7.076
50827SOL    HW154255   9.798  11.704   7.081
50827SOL    HW254256   9.905  11.771   7.165
50828SOL     OW54257   2.298  11.710   9.512
50828SOL    HW154258   2.376  11.748   9.554
50828SOL    HW254259   2.304  11.740   9.421
50829SOL     OW54260   0.807   9.105  12.848
50829SOL    HW154261   0.793   9.059  12.931
50829SOL    HW254262   0.819   9.034  12.784
50830SOL     OW54263   8.263   6.287   4.874
50830SOL    HW154264   8.286   6.194   4.881
50830SOL    HW254265   8.342   6.333   4.903
50831SOL     OW54266   7.178   1.166  10.729
50831SOL    HW154267   7.139   1.251  10.711
50831SOL    HW254268   7.110   1.117  10.775
50832SOL     OW54269  12.222   5.205   8.931
50832SOL    HW154270  12.261   5.120   8.913
50832SOL    HW254271  12.281   5.245   8.995
50833SOL     OW54272  10.672   2.358   9.676
50833SOL    HW154273  10.684   2.350   9.581
50833SOL    HW254274  10.757   2.334   9.713
50834SOL     OW54275   1.166   8.489   5.521
50834SOL    HW154276   1.187   8.550   5.592
50834SOL    HW254277   1.111   8.422   5.562
50835SOL     OW54278   4.646   6.476   6.874
50835SOL    HW154279   4.577   6.534   6.906
50835SOL    HW254280   4.686   6.526   6.802
50836SOL     OW54281  11.103   6.043   9.904
50836SOL    HW154282  11.173   6.007   9.959
50836SOL    HW254283  11.052   5.966   9.877
50837SOL     OW54284  13.670   6.566  13.720
50837SOL    HW154285  13.692   6.472  13.716
50837SOL    HW254286  13.755   6.609  13.728
50838SOL     OW54287  14.587  13.447   8.204
50838SOL    HW154288  14.653  13.399   8.154
50838SOL    HW254289  14.625  13.535   8.215
50839SOL     OW54290   6.496  10.113   3.598
50839SOL    HW154291   6.566  10.104   3.663
50839SOL    HW254292   6.519  10.050   3.530
50840SOL     OW54293   3.421   1.855   1.623
50840SOL    HW154294   3.379   1.771   1.603
50840SOL    HW254295   3.481   1.835   1.695
50841SOL     OW54296   6.870   6.812  11.091
50841SOL    HW154297   6.906   6.726  11.111
50841SOL    HW254298   6.940   6.873  11.115
50842SOL     OW54299  13.655   3.466   1.233
50842SOL    HW154300  13.625   3.465   1.324
50842SOL    HW254301  13.616   3.545   1.196
50843SOL     OW54302  12.407   3.912   5.215
50843SOL    HW154303  12.449   3.874   5.138
50843SOL    HW254304  12.371   3.837   5.263
50844SOL     OW54305   3.978  14.215   5.758
50844SOL    HW154306   3.919  14.210   5.683
50844SOL    HW254307   3.999  14.123   5.778
50845SOL     OW54308  11.180  13.564   5.996
50845SOL    HW154309  11.126  13.621   5.940
50845SOL    HW254310  11.236  13.518   5.934
50846SOL     OW54311   9.616   4.869   5.821
50846SOL    HW154312   9.691   4.881   5.763
50846SOL    HW254313   9.645   4.903   5.906
50847SOL     OW54314   0.242  10.866   6.150
50847SOL    HW154315   0.337  10.862   6.140
50847SOL    HW254316   0.220  10.956   6.126
50848SOL     OW54317   4.392   7.309   5.605
50848SOL    HW154318   4.423   7.381   5.660
50848SOL    HW254319   4.457   7.303   5.535
50849SOL     OW54320  14.048  10.286  14.529
50849SOL    HW154321  14.143  10.294  14.539
50849SOL    HW254322  14.025  10.351  14.462
50850SOL     OW54323   4.637   5.360   0.719
50850SOL    HW154324   4.696   5.435   0.732
50850SOL    HW254325   4.595   5.348   0.804
50851SOL     OW54326   0.629  14.431  11.428
50851SOL    HW154327   0.677  14.391  11.355
50851SOL    HW254328   0.537  14.412  11.410
50852SOL     OW54329   7.638  13.228   8.692
50852SOL    HW154330   7.550  13.193   8.678
50852SOL    HW254331   7.645  13.300   8.630
50853SOL     OW54332   6.073   4.591   5.860
50853SOL    HW154333   6.008   4.657   5.837
50853SOL    HW254334   6.041   4.552   5.941
50854SOL     OW54335   9.994  11.449   0.509
50854SOL    HW154336   9.935  11.396   0.563
50854SOL    HW254337  10.010  11.396   0.431
50855SOL     OW54338  14.382   5.635   0.082
50855SOL    HW154339  14.344   5.669   0.001
50855SOL    HW254340  14.455   5.694   0.101
50856SOL     OW54341   3.703  14.028   5.773
50856SOL    HW154342   3.777  13.968   5.784
50856SOL    HW254343   3.740  14.104   5.729
50857SOL     OW54344   9.346  13.261   1.750
50857SOL    HW154345   9.301  13.336   1.788
50857SOL    HW254346   9.303  13.248   1.665
50858SOL     OW54347   5.351   9.579   4.563
50858SOL    HW154348   5.426   9.521   4.558
50858SOL    HW254349   5.282   9.526   4.603
50859SOL     OW54350   5.385   6.272   3.885
50859SOL    HW154351   5.328   6.336   3.843
50859SOL    HW254352   5.379   6.195   3.828
50860SOL     OW54353   6.463  11.891   1.837
50860SOL    HW154354   6.532  11.891   1.771
50860SOL    HW254355   6.486  11.819   1.896
50861SOL     OW54356   9.755  10.192   9.190
50861SOL    HW154357   9.846  10.178   9.164
50861SOL    HW254358   9.742  10.286   9.181
50862SOL     OW54359  13.421  12.532  13.420
50862SOL    HW154360  13.514  12.553  13.430
50862SOL    HW254361  13.375  12.609  13.456
50863SOL     OW54362   3.295  10.387   4.526
50863SOL    HW154363   3.383  10.395   4.562
50863SOL    HW254364   3.253  10.319   4.578
50864SOL     OW54365  12.621  10.343  11.542
50864SOL    HW154366  12.627  10.364  11.449
50864SOL    HW254367  12.706  10.305  11.564
50865SOL     OW54368   0.529   9.036  12.147
50865SOL    HW154369   0.455   9.094  12.127
50865SOL    HW254370   0.606   9.093  12.142
50866SOL     OW54371   5.291   5.255   1.450
50866SOL    HW154372   5.229   5.238   1.378
50866SOL    HW254373   5.241   5.236   1.529
50867SOL     OW54374   4.375   3.428   4.762
50867SOL    HW154375   4.408   3.515   4.782
50867SOL    HW254376   4.412   3.408   4.675
50868SOL     OW54377   2.763  10.023   6.814
50868SOL    HW154378   2.691  10.078   6.846
50868SOL    HW254379   2.737   9.999   6.725
50869SOL     OW54380   3.014   7.226   3.613
50869SOL    HW154381   2.936   7.281   3.606
50869SOL    HW254382   3.007   7.185   3.699
50870SOL     OW54383   9.900  12.387  13.313
50870SOL    HW154384   9.982  12.341  13.297
50870SOL    HW254385   9.917  12.440  13.390
50871SOL     OW54386   7.697   9.477   9.568
50871SOL    HW154387   7.677   9.538   9.638
50871SOL    HW254388   7.672   9.391   9.603
50872SOL     OW54389  13.135   4.747   0.350
50872SOL    HW154390  13.223   4.712   0.366
50872SOL    HW254391  13.117   4.727   0.258
50873SOL     OW54392  14.170   2.920   4.053
50873SOL    HW154393  14.132   2.980   3.989
50873SOL    HW254394  14.224   2.976   4.109
50874SOL     OW54395   6.296   8.877  11.501
50874SOL    HW154396   6.373   8.926  11.472
50874SOL    HW254397   6.227   8.943  11.508
50875SOL     OW54398   2.002   8.300  12.785
50875SOL    HW154399   2.066   8.291  12.715
50875SOL    HW254400   1.984   8.394  12.790
50876SOL     OW54401  13.045  11.723  10.304
50876SOL    HW154402  12.977  11.679  10.252
50876SOL    HW254403  13.111  11.749  10.240
50877SOL     OW54404  10.851   6.590  11.324
50877SOL    HW154405  10.939   6.562  11.351
50877SOL    HW254406  10.852   6.586  11.229
50878SOL     OW54407   7.278   9.770  10.932
50878SOL    HW154408   7.269   9.688  10.979
50878SOL    HW254409   7.341   9.821  10.982
50879SOL     OW54410  12.364  12.937   3.697
50879SOL    HW154411  12.398  12.907   3.613
50879SOL    HW254412  12.442  12.945   3.753
50880SOL     OW54413   7.866   0.415   5.226
50880SOL    HW154414   7.916   0.490   5.257
50880SOL    HW254415   7.884   0.346   5.290
50881SOL     OW54416   7.324   3.605   0.374
50881SOL    HW154417   7.354   3.519   0.344
50881SOL    HW254418   7.377   3.667   0.323
50882SOL     OW54419  12.202   2.115   6.198
50882SOL    HW154420  12.160   2.087   6.117
50882SOL    HW254421  12.149   2.189   6.228
50883SOL     OW54422   5.193   3.835   9.767
50883SOL    HW154423   5.169   3.771   9.834
50883SOL    HW254424   5.275   3.802   9.730
50884SOL     OW54425   5.488   7.010   8.118
50884SOL    HW154426   5.420   7.066   8.154
50884SOL    HW254427   5.502   7.041   8.029
50885SOL     OW54428  11.720   6.799  10.147
50885SOL    HW154429  11.661   6.842  10.209
50885SOL    HW254430  11.661   6.751  10.088
50886SOL     OW54431   7.314  10.215  13.880
50886SOL    HW154432   7.243  10.191  13.940
50886SOL    HW254433   7.380  10.256  13.935
50887SOL     OW54434  12.319   0.068   8.235
50887SOL    HW154435  12.333  14.852   8.249
50887SOL    HW254436  12.283   0.074   8.146
50888SOL     OW54437   2.610   7.923   4.528
50888SOL    HW154438   2.544   7.975   4.573
50888SOL    HW254439   2.586   7.928   4.435
50889SOL     OW54440   1.336  12.056  13.723
50889SOL    HW154441   1.429  12.035  13.733
50889SOL    HW254442   1.322  12.132  13.778
50890SOL     OW54443   9.604   3.251   6.063
50890SOL    HW154444   9.541   3.277   5.995
50890SOL    HW254445   9.660   3.328   6.074
50891SOL     OW54446   9.964  12.895   7.301
50891SOL    HW154447   9.935  12.952   7.230
50891SOL    HW254448  10.013  12.826   7.257
50892SOL     OW54449  13.497   2.649  10.874
50892SOL    HW154450  13.533   2.591  10.942
50892SOL    HW254451  13.545   2.731  10.884
50893SOL     OW54452  14.093  13.572  11.399
50893SOL    HW154453  14.024  13.633  11.426
50893SOL    HW254454  14.158  13.578  11.470
50894SOL     OW54455   5.965   4.721   2.851
50894SOL    HW154456   5.969   4.794   2.789
50894SOL    HW254457   6.040   4.667   2.828
50895SOL     OW54458   0.933  13.224  14.515
50895SOL    HW154459   0.945  13.138  14.556
50895SOL    HW254460   0.842  13.223  14.485
50896SOL     OW54461  11.850  11.404  13.619
50896SOL    HW154462  11.900  11.446  13.548
50896SOL    HW254463  11.826  11.318  13.583
50897SOL     OW54464   8.281  11.307   3.193
50897SOL    HW154465   8.263  11.398   3.166
50897SOL    HW254466   8.194  11.270   3.211
50898SOL     OW54467   0.175   0.362  10.286
50898SOL    HW154468   0.103   0.316  10.329
50898SOL    HW254469   0.156   0.353  10.192
50899SOL     OW54470   7.822  12.601   5.017
50899SOL    HW154471   7.782  12.579   5.100
50899SOL    HW254472   7.860  12.687   5.030
50900SOL     OW54473   8.763   4.281  11.204
50900SOL    HW154474   8.858   4.267  11.209
50900SOL    HW254475   8.750   4.329  11.122
50901SOL     OW54476   5.770   6.621   9.655
50901SOL    HW154477   5.762   6.554   9.587
50901SOL    HW254478   5.859   6.654   9.645
50902SOL     OW54479  14.244   5.677  10.974
50902SOL    HW154480  14.319   5.736  10.982
50902SOL    HW254481  14.167   5.735  10.979
50903SOL     OW54482   2.103   5.160   5.280
50903SOL    HW154483   2.129   5.212   5.205
50903SOL    HW254484   2.008   5.173   5.287
50904SOL     OW54485   1.419   9.952   5.842
50904SOL    HW154486   1.378   9.943   5.755
50904SOL    HW254487   1.460   9.867   5.858
50905SOL     OW54488  11.881   2.667   9.469
50905SOL    HW154489  11.844   2.649   9.556
50905SOL    HW254490  11.844   2.752   9.445
50906SOL     OW54491   7.736   6.109  13.939
50906SOL    HW154492   7.665   6.172  13.927
50906SOL    HW254493   7.795   6.151  14.002
50907SOL     OW54494   3.562   6.462   6.460
50907SOL    HW154495   3.637   6.508   6.499
50907SOL    HW254496   3.533   6.520   6.389
50908SOL     OW54497   8.989   3.822   0.079
50908SOL    HW154498   9.027   3.735   0.070
50908SOL    HW254499   8.923   3.827   0.011
50909SOL     OW54500   3.151   2.681   3.476
50909SOL    HW154501   3.061   2.663   3.450
50909SOL    HW254502   3.145   2.708   3.568
50910SOL     OW54503   6.465   3.843  12.400
50910SOL    HW154504   6.559   3.827  12.401
50910SOL    HW254505   6.457   3.939  12.404
50911SOL     OW54506   6.347  12.219  12.517
50911SOL    HW154507   6.379  12.260  12.437
50911SOL    HW254508   6.378  12.277  12.587
50912SOL     OW54509   7.425   8.248   1.515
50912SOL    HW154510   7.397   8.161   1.542
50912SOL    HW254511   7.439   8.242   1.421
50913SOL     OW54512   5.947   0.923   1.197
50913SOL    HW154513   5.903   0.990   1.145
50913SOL    HW254514   5.878   0.859   1.216
50914SOL     OW54515   9.257  11.711  12.340
50914SOL    HW154516   9.301  11.713  12.424
50914SOL    HW254517   9.170  11.676  12.359
50915SOL     OW54518   6.661   2.912   5.192
50915SOL    HW154519   6.732   2.887   5.251
50915SOL    HW254520   6.702   2.971   5.128
50916SOL     OW54521   7.388   6.344   2.490
50916SOL    HW154522   7.427   6.365   2.575
50916SOL    HW254523   7.297   6.372   2.498
50917SOL     OW54524  13.731   8.555  11.468
50917SOL    HW154525  13.701   8.570  11.378
50917SOL    HW254526  13.659   8.507  11.510
50918SOL     OW54527   4.659   3.445  12.113
50918SOL    HW154528   4.629   3.494  12.037
50918SOL    HW254529   4.737   3.493  12.143
50919SOL     OW54530  12.484   1.986  13.556
50919SOL    HW154531  12.481   2.042  13.478
50919SOL    HW254532  12.473   1.897  13.521
50920SOL     OW54533  11.627   9.978   5.718
50920SOL    HW154534  11.673   9.897   5.740
50920SOL    HW254535  11.550   9.978   5.776
50921SOL     OW54536   7.166   2.333   4.882
50921SOL    HW154537   7.241   2.372   4.928
50921SOL    HW254538   7.116   2.288   4.950
50922SOL     OW54539   6.622  12.065   6.220
50922SOL    HW154540   6.543  12.051   6.168
50922SOL    HW254541   6.671  11.984   6.211
50923SOL     OW54542   3.094   1.410   9.609
50923SOL    HW154543   3.164   1.384   9.550
50923SOL    HW254544   3.126   1.388   9.696
50924SOL     OW54545  10.485   4.652   1.894
50924SOL    HW154546  10.500   4.647   1.799
50924SOL    HW254547  10.500   4.744   1.916
50925SOL     OW54548   0.956   1.200   7.720
50925SOL    HW154549   1.020   1.173   7.787
50925SOL    HW254550   1.007   1.207   7.640
50926SOL     OW54551   9.667   0.341   1.404
50926SOL    HW154552   9.659   0.308   1.314
50926SOL    HW254553   9.731   0.412   1.398
50927SOL     OW54554  11.321   7.042   3.871
50927SOL    HW154555  11.334   7.136   3.879
50927SOL    HW254556  11.226   7.032   3.857
50928SOL     OW54557   8.372   2.984   1.486
50928SOL    HW154558   8.412   2.897   1.483
50928SOL    HW254559   8.282   2.969   1.455
50929SOL     OW54560  11.747   3.486   4.707
50929SOL    HW154561  11.707   3.467   4.622
50929SOL    HW254562  11.829   3.436   4.707
50930SOL     OW54563   3.027  10.953  11.178
50930SOL    HW154564   2.997  10.865  11.156
50930SOL    HW254565   2.964  10.984  11.243
50931SOL     OW54566  11.518   2.224   9.094
50931SOL    HW154567  11.532   2.302   9.040
50931SOL    HW254568  11.464   2.255   9.167
50932SOL     OW54569   0.343  10.888  10.086
50932SOL    HW154570   0.425  10.936  10.081
50932SOL    HW254571   0.288  10.939  10.144
50933SOL     OW54572   6.655   7.531  10.083
50933SOL    HW154573   6.729   7.587  10.058
50933SOL    HW254574   6.595   7.590  10.127
50934SOL     OW54575   3.736   0.567   3.262
50934SOL    HW154576   3.774   0.483   3.236
50934SOL    HW254577   3.754   0.574   3.356
50935SOL     OW54578   3.604   2.916  13.323
50935SOL    HW154579   3.560   2.877  13.247
50935SOL    HW254580   3.560   2.876  13.398
50936SOL     OW54581  11.313  12.349  13.085
50936SOL    HW154582  11.375  12.312  13.149
50936SOL    HW254583  11.355  12.428  13.053
50937SOL     OW54584  12.214  11.740  13.385
50937SOL    HW154585  12.282  11.806  13.392
50937SOL    HW254586  12.187  11.744  13.293
50938SOL     OW54587   9.919   6.296   7.129
50938SOL    HW154588   9.876   6.235   7.069
50938SOL    HW254589   9.910   6.256   7.215
50939SOL     OW54590   2.618   2.760  11.865
50939SOL    HW154591   2.557   2.803  11.925
50939SOL    HW254592   2.704   2.772  11.905
50940SOL     OW54593  11.982  11.538  13.054
50940SOL    HW154594  11.981  11.453  13.009
50940SOL    HW254595  11.910  11.587  13.016
50941SOL     OW54596   5.810   5.127   0.739
50941SOL    HW154597   5.759   5.128   0.659
50941SOL    HW254598   5.807   5.218   0.771
50942SOL     OW54599   4.882  14.725   4.580
50942SOL    HW154600   4.881  14.631   4.562
50942SOL    HW254601   4.971  14.753   4.558
50943SOL     OW54602   7.028  10.438  12.096
50943SOL    HW154603   7.082  10.385  12.154
50943SOL    HW254604   7.089  10.474  12.032
50944SOL     OW54605   2.738   9.583   4.897
50944SOL    HW154606   2.790   9.517   4.944
50944SOL    HW254607   2.731   9.550   4.808
50945SOL     OW54608  14.334   2.309   2.464
50945SOL    HW154609  14.248   2.350   2.456
50945SOL    HW254610  14.396   2.381   2.451
50946SOL     OW54611  14.675   0.183  11.547
50946SOL    HW154612  14.672   0.190  11.451
50946SOL    HW254613  14.754   0.231  11.571
50947SOL     OW54614   9.163  13.751   0.878
50947SOL    HW154615   9.251  13.769   0.844
50947SOL    HW254616   9.166  13.782   0.969
50948SOL     OW54617   1.219   1.864   3.123
50948SOL    HW154618   1.213   1.950   3.082
50948SOL    HW254619   1.130   1.846   3.155
50949SOL     OW54620  14.186   7.832   5.393
50949SOL    HW154621  14.240   7.849   5.470
50949SOL    HW254622  14.122   7.767   5.422
50950SOL     OW54623   0.087  11.207   7.133
50950SOL    HW154624   0.158  11.219   7.197
50950SOL    HW254625   0.108  11.124   7.090
50951SOL     OW54626   0.966   1.787   1.948
50951SOL    HW154627   1.028   1.857   1.928
50951SOL    HW254628   0.926   1.765   1.863
50952SOL     OW54629   2.075   0.084   7.152
50952SOL    HW154630   2.039  14.877   7.124
50952SOL    HW254631   2.022   0.109   7.227
50953SOL     OW54632   3.752   7.816   9.758
50953SOL    HW154633   3.691   7.794   9.687
50953SOL    HW254634   3.707   7.788   9.838
50954SOL     OW54635  14.868  10.051   1.396
50954SOL    HW154636  14.816  10.007   1.463
50954SOL    HW254637   0.074  10.003   1.395
50955SOL     OW54638  11.846  13.104  12.950
50955SOL    HW154639  11.844  13.189  12.993
50955SOL    HW254640  11.802  13.045  13.011
50956SOL     OW54641   0.541   0.345   8.337
50956SOL    HW154642   0.593   0.273   8.300
50956SOL    HW254643   0.600   0.388   8.398
50957SOL     OW54644   4.667   5.404   4.940
50957SOL    HW154645   4.613   5.383   5.016
50957SOL    HW254646   4.627   5.483   4.904
50958SOL     OW54647  10.745   5.043  13.115
50958SOL    HW154648  10.676   5.011  13.173
50958SOL    HW254649  10.705   5.116  13.068
50959SOL     OW54650   0.467   2.475   8.855
50959SOL    HW154651   0.432   2.551   8.809
50959SOL    HW254652   0.426   2.478   8.942
50960SOL     OW54653   3.722  13.881  14.472
50960SOL    HW154654   3.703  13.861  14.564
50960SOL    HW254655   3.639  13.912  14.436
50961SOL     OW54656  13.144   5.372   2.280
50961SOL    HW154657  13.083   5.308   2.244
50961SOL    HW254658  13.204   5.393   2.208
50962SOL     OW54659  11.206   2.881   9.609
50962SOL    HW154660  11.184   2.848   9.522
50962SOL    HW254661  11.215   2.976   9.597
50963SOL     OW54662   3.597   9.028  12.306
50963SOL    HW154663   3.619   8.969  12.235
50963SOL    HW254664   3.509   9.059  12.285
50964SOL     OW54665   0.656  14.759   9.954
50964SOL    HW154666   0.735  14.770  10.006
50964SOL    HW254667   0.584  14.789  10.010
50965SOL     OW54668   1.397  14.315   4.249
50965SOL    HW154669   1.475  14.263   4.228
50965SOL    HW254670   1.389  14.309   4.344
50966SOL     OW54671   5.150   0.039   7.814
50966SOL    HW154672   5.221   0.021   7.876
50966SOL    HW254673   5.193   0.047   7.729
50967SOL     OW54674   6.200  14.325   7.763
50967SOL    HW154675   6.226  14.258   7.700
50967SOL    HW254676   6.231  14.292   7.847
50968SOL     OW54677  10.826  11.804   4.361
50968SOL    HW154678  10.814  11.727   4.416
50968SOL    HW254679  10.919  11.805   4.340
50969SOL     OW54680   6.140   8.640   4.055
50969SOL    HW154681   6.153   8.614   3.963
50969SOL    HW254682   6.055   8.685   4.055
50970SOL     OW54683   5.642   1.066  14.480
50970SOL    HW154684   5.728   1.083  14.441
50970SOL    HW254685   5.626   1.140  14.538
50971SOL     OW54686   2.793  14.841  10.913
50971SOL    HW154687   2.770   0.031  10.850
50971SOL    HW254688   2.888  14.833  10.906
50972SOL     OW54689  14.400   9.690   2.219
50972SOL    HW154690  14.364   9.648   2.140
50972SOL    HW254691  14.431   9.617   2.272
50973SOL     OW54692   5.491   4.994  13.886
50973SOL    HW154693   5.499   5.071  13.942
50973SOL    HW254694   5.403   5.000  13.849
50974SOL     OW54695   2.098   7.570   0.245
50974SOL    HW154696   2.012   7.598   0.274
50974SOL    HW254697   2.144   7.546   0.325
50975SOL     OW54698   5.698   9.868   3.919
50975SOL    HW154699   5.662   9.907   3.839
50975SOL    HW254700   5.670   9.925   3.989
50976SOL     OW54701   2.157  11.001  10.839
50976SOL    HW154702   2.108  10.921  10.859
50976SOL    HW254703   2.139  11.059  10.912
50977SOL     OW54704   0.176   1.363   2.962
50977SOL    HW154705   0.249   1.412   2.924
50977SOL    HW254706   0.137   1.425   3.025
50978SOL     OW54707   2.676   6.779   4.363
50978SOL    HW154708   2.637   6.860   4.330
50978SOL    HW254709   2.629   6.709   4.318
50979SOL     OW54710  10.272   8.404   5.708
50979SOL    HW154711  10.340   8.464   5.740
50979SOL    HW254712  10.215   8.390   5.783
50980SOL     OW54713  14.264  14.539  10.797
50980SOL    HW154714  14.271  14.470  10.863
50980SOL    HW254715  14.208  14.605  10.838
50981SOL     OW54716   5.500   5.172  10.607
50981SOL    HW154717   5.421   5.219  10.579
50981SOL    HW254718   5.498   5.178  10.703
50982SOL     OW54719   8.317  12.294   2.757
50982SOL    HW154720   8.386  12.258   2.701
50982SOL    HW254721   8.282  12.219   2.805
50983SOL     OW54722  12.598   1.224  10.916
50983SOL    HW154723  12.642   1.168  10.980
50983SOL    HW254724  12.510   1.189  10.909
50984SOL     OW54725   6.208   5.194  13.101
50984SOL    HW154726   6.295   5.217  13.132
50984SOL    HW254727   6.222   5.125  13.036
50985SOL     OW54728   0.336   7.194   6.429
50985SOL    HW154729   0.254   7.209   6.382
50985SOL    HW254730   0.395   7.155   6.364
50986SOL     OW54731   0.599  12.375   8.190
50986SOL    HW154732   0.617  12.282   8.201
50986SOL    HW254733   0.515  12.377   8.143
50987SOL     OW54734   2.214   9.102  12.036
50987SOL    HW154735   2.257   9.167  12.093
50987SOL    HW254736   2.191   9.030  12.095
50988SOL     OW54737   7.337   5.269  10.809
50988SOL    HW154738   7.402   5.284  10.741
50988SOL    HW254739   7.332   5.352  10.856
50989SOL     OW54740   9.694   5.792   0.629
50989SOL    HW154741   9.678   5.758   0.717
50989SOL    HW254742   9.713   5.885   0.643
50990SOL     OW54743  13.303   4.686   7.889
50990SOL    HW154744  13.313   4.676   7.794
50990SOL    HW254745  13.279   4.599   7.920
50991SOL     OW54746   0.710   1.616   6.525
50991SOL    HW154747   0.637   1.664   6.564
50991SOL    HW254748   0.774   1.683   6.503
50992SOL     OW54749   8.730   0.140   7.610
50992SOL    HW154750   8.682   0.128   7.528
50992SOL    HW254751   8.820   0.158   7.582
50993SOL     OW54752   2.118  10.871   1.704
50993SOL    HW154753   2.044  10.841   1.757
50993SOL    HW254754   2.152  10.792   1.662
50994SOL     OW54755   2.963   0.063   2.805
50994SOL    HW154756   3.038   0.121   2.811
50994SOL    HW254757   2.904   0.092   2.875
50995SOL     OW54758   6.005  11.560  12.336
50995SOL    HW154759   6.034  11.579  12.248
50995SOL    HW254760   5.917  11.523  12.325
50996SOL     OW54761  13.822  12.120  11.562
50996SOL    HW154762  13.734  12.102  11.532
50996SOL    HW254763  13.832  12.215  11.553
50997SOL     OW54764   9.996   6.330  14.448
50997SOL    HW154765  10.074   6.274  14.447
50997SOL    HW254766   9.958   6.319  14.360
50998SOL     OW54767  11.770  10.216   3.461
50998SOL    HW154768  11.810  10.268   3.531
50998SOL    HW254769  11.843  10.195   3.403
50999SOL     OW54770  13.284   7.881   2.518
50999SOL    HW154771  13.320   7.827   2.588
50999SOL    HW254772  13.359   7.930   2.485
51000SOL     OW54773   9.906   7.861  13.365
51000SOL    HW154774   9.858   7.816  13.296
51000SOL    HW254775   9.918   7.950  13.332
51001SOL     OW54776   4.533   1.529   2.737
51001SOL    HW154777   4.571   1.583   2.806
51001SOL    HW254778   4.551   1.439   2.764
51002SOL     OW54779   7.129   3.437   3.291
51002SOL    HW154780   7.099   3.506   3.232
51002SOL    HW254781   7.224   3.448   3.294
51003SOL     OW54782   2.896   9.025   9.335
51003SOL    HW154783   2.823   8.963   9.344
51003SOL    HW254784   2.973   8.969   9.325
51004SOL     OW54785   3.234   6.419   7.730
51004SOL    HW154786   3.252   6.464   7.647
51004SOL    HW254787   3.161   6.469   7.768
51005SOL     OW54788  10.539   6.262   8.229
51005SOL    HW154789  10.591   6.335   8.195
51005SOL    HW254790  10.542   6.272   8.324
51006SOL     OW54791   6.098   7.292   6.421
51006SOL    HW154792   6.180   7.252   6.393
51006SOL    HW254793   6.064   7.335   6.343
51007SOL     OW54794   3.967   0.351   9.435
51007SOL    HW154795   3.932   0.431   9.474
51007SOL    HW254796   3.952   0.284   9.502
51008SOL     OW54797  14.043  13.714   2.938
51008SOL    HW154798  14.071  13.709   2.847
51008SOL    HW254799  14.095  13.648   2.983
51009SOL     OW54800   3.360   1.484   1.762
51009SOL    HW154801   3.298   1.526   1.822
51009SOL    HW254802   3.344   1.527   1.678
51010SOL     OW54803  13.031   6.851   9.757
51010SOL    HW154804  13.104   6.839   9.818
51010SOL    HW254805  13.021   6.946   9.750
51011SOL     OW54806   2.232   8.054  13.059
51011SOL    HW154807   2.175   8.129  13.078
51011SOL    HW254808   2.208   8.027  12.971
51012SOL     OW54809   2.041   8.812   9.914
51012SOL    HW154810   2.031   8.723   9.879
51012SOL    HW254811   1.973   8.819   9.981
51013SOL     OW54812   0.248  10.753   1.691
51013SOL    HW154813   0.249  10.668   1.647
51013SOL    HW254814   0.316  10.747   1.757
51014SOL     OW54815   1.575   0.157   1.928
51014SOL    HW154816   1.498   0.214   1.928
51014SOL    HW254817   1.585   0.130   1.837
51015SOL     OW54818   3.247   8.488  11.428
51015SOL    HW154819   3.268   8.471  11.336
51015SOL    HW254820   3.284   8.575  11.445
51016SOL     OW54821  11.936  13.709   9.792
51016SOL    HW154822  12.029  13.711   9.813
51016SOL    HW254823  11.922  13.788   9.740
51017SOL     OW54824   6.016   4.296   2.903
51017SOL    HW154825   6.011   4.329   2.993
51017SOL    HW254826   6.022   4.201   2.913
51018SOL     OW54827  13.862   7.825   6.609
51018SOL    HW154828  13.803   7.829   6.534
51018SOL    HW254829  13.811   7.861   6.682
51019SOL     OW54830   8.785  14.343  10.809
51019SOL    HW154831   8.876  14.366  10.827
51019SOL    HW254832   8.757  14.296  10.887
51020SOL     OW54833   2.726   8.628   3.806
51020SOL    HW154834   2.796   8.565   3.791
51020SOL    HW254835   2.646   8.582   3.778
51021SOL     OW54836   3.831   9.441  11.914
51021SOL    HW154837   3.859   9.504  11.980
51021SOL    HW254838   3.824   9.492  11.834
51022SOL     OW54839   0.198   4.549  14.275
51022SOL    HW154840   0.157   4.471  14.237
51022SOL    HW254841   0.220   4.524  14.364
51023SOL     OW54842   1.306   5.613   7.330
51023SOL    HW154843   1.313   5.677   7.258
51023SOL    HW254844   1.396   5.599   7.358
51024SOL     OW54845   0.823   9.627   4.077
51024SOL    HW154846   0.894   9.686   4.102
51024SOL    HW254847   0.754   9.684   4.044
51025SOL     OW54848  12.565   7.827  10.493
51025SOL    HW154849  12.650   7.867  10.508
51025SOL    HW254850  12.539   7.858  10.406
51026SOL     OW54851   5.483  11.698  10.198
51026SOL    HW154852   5.429  11.688  10.276
51026SOL    HW254853   5.502  11.609  10.170
51027SOL     OW54854   0.321  13.254   1.091
51027SOL    HW154855   0.281  13.191   1.030
51027SOL    HW254856   0.275  13.239   1.174
51028SOL     OW54857   4.061   9.548   4.800
51028SOL    HW154858   4.053   9.640   4.823
51028SOL    HW254859   3.972   9.514   4.803
51029SOL     OW54860   1.053  11.810   5.484
51029SOL    HW154861   1.064  11.898   5.521
51029SOL    HW254862   1.066  11.751   5.558
51030SOL     OW54863   2.358   6.049  12.969
51030SOL    HW154864   2.349   6.084  13.058
51030SOL    HW254865   2.270   6.019  12.946
51031SOL     OW54866   6.554   9.151  10.903
51031SOL    HW154867   6.513   9.237  10.917
51031SOL    HW254868   6.647   9.167  10.922
51032SOL     OW54869   9.177   2.161   8.726
51032SOL    HW154870   9.148   2.245   8.764
51032SOL    HW254871   9.272   2.167   8.725
51033SOL     OW54872   5.206   7.315   4.168
51033SOL    HW154873   5.137   7.382   4.160
51033SOL    HW254874   5.229   7.292   4.078
51034SOL     OW54875   1.227   4.040   2.059
51034SOL    HW154876   1.235   4.116   2.116
51034SOL    HW254877   1.134   4.036   2.036
51035SOL     OW54878   1.397  11.033  10.202
51035SOL    HW154879   1.317  11.000  10.242
51035SOL    HW254880   1.369  11.064  10.116
51036SOL     OW54881   9.723  11.208   9.658
51036SOL    HW154882   9.721  11.245   9.569
51036SOL    HW254883   9.807  11.236   9.694
51037SOL     OW54884  10.497   5.002   5.571
51037SOL    HW154885  10.540   4.959   5.497
51037SOL    HW254886  10.426   4.943   5.596
51038SOL     OW54887  14.287   7.658  13.378
51038SOL    HW154888  14.290   7.572  13.337
51038SOL    HW254889  14.281   7.641  13.472
51039SOL     OW54890  11.924  10.680  12.273
51039SOL    HW154891  11.993  10.652  12.333
51039SOL    HW254892  11.946  10.770  12.251
51040SOL     OW54893   9.901  10.440   5.446
51040SOL    HW154894   9.919  10.474   5.358
51040SOL    HW254895   9.853  10.511   5.490
51041SOL     OW54896   9.683  10.218  11.988
51041SOL    HW154897   9.597  10.258  12.001
51041SOL    HW254898   9.686  10.197  11.895
51042SOL     OW54899   9.299   1.939   8.542
51042SOL    HW154900   9.314   2.010   8.604
51042SOL    HW254901   9.298   1.981   8.456
51043SOL     OW54902   2.100   6.327   6.472
51043SOL    HW154903   2.082   6.297   6.561
51043SOL    HW254904   2.104   6.247   6.420
51044SOL     OW54905   5.597   4.264   9.499
51044SOL    HW154906   5.636   4.177   9.507
51044SOL    HW254907   5.562   4.283   9.586
51045SOL     OW54908   3.336  13.059  11.228
51045SOL    HW154909   3.288  13.141  11.238
51045SOL    HW254910   3.306  13.004  11.300
51046SOL     OW54911   7.286  13.317  14.790
51046SOL    HW154912   7.281  13.279  14.877
51046SOL    HW254913   7.217  13.273  14.740
51047SOL     OW54914   6.715  11.447   3.217
51047SOL    HW154915   6.773  11.437   3.141
51047SOL    HW254916   6.680  11.536   3.209
51048SOL     OW54917  10.831   1.382  12.975
51048SOL    HW154918  10.881   1.463  12.985
51048SOL    HW254919  10.746   1.410  12.941
51049SOL     OW54920  14.116   0.406   9.989
51049SOL    HW154921  14.125   0.312  10.004
51049SOL    HW254922  14.205   0.441  10.001
51050SOL     OW54923  13.205   4.421   6.435
51050SOL    HW154924  13.178   4.434   6.343
51050SOL    HW254925  13.234   4.330   6.439
51051SOL     OW54926   9.335   0.472   1.391
51051SOL    HW154927   9.256   0.460   1.444
51051SOL    HW254928   9.392   0.526   1.445
51052SOL     OW54929  12.150   7.500   5.420
51052SOL    HW154930  12.242   7.526   5.411
51052SOL    HW254931  12.102   7.583   5.418
51053SOL     OW54932   5.405   2.332   5.065
51053SOL    HW154933   5.444   2.246   5.078
51053SOL    HW254934   5.318   2.326   5.105
51054SOL     OW54935  14.549   5.230  12.973
51054SOL    HW154936  14.558   5.139  13.000
51054SOL    HW254937  14.631   5.271  13.001
51055SOL     OW54938  13.274   5.691   1.838
51055SOL    HW154939  13.294   5.755   1.905
51055SOL    HW254940  13.319   5.723   1.759
51056SOL     OW54941  11.164  10.473   9.115
51056SOL    HW154942  11.198  10.475   9.204
51056SOL    HW254943  11.219  10.410   9.069
51057SOL     OW54944   6.254   4.706   5.674
51057SOL    HW154945   6.182   4.651   5.705
51057SOL    HW254946   6.272   4.766   5.747
51058SOL     OW54947   5.198  14.302   6.716
51058SOL    HW154948   5.127  14.276   6.774
51058SOL    HW254949   5.183  14.395   6.699
51059SOL     OW54950   7.275   0.531  12.266
51059SOL    HW154951   7.227   0.586  12.204
51059SOL    HW254952   7.250   0.564  12.352
51060SOL     OW54953   3.075   5.594   3.430
51060SOL    HW154954   3.013   5.664   3.409
51060SOL    HW254955   3.117   5.624   3.511
51061SOL     OW54956   0.513  14.853   1.998
51061SOL    HW154957   0.531  14.802   2.077
51061SOL    HW254958   0.592  14.845   1.945
51062SOL     OW54959  14.529   7.708   6.353
51062SOL    HW154960  14.570   7.714   6.267
51062SOL    HW254961  14.442   7.745   6.341
51063SOL     OW54962   6.650  10.149   7.427
51063SOL    HW154963   6.659  10.243   7.443
51063SOL    HW254964   6.700  10.134   7.347
51064SOL     OW54965   5.142  11.919   9.434
51064SOL    HW154966   5.126  12.007   9.402
51064SOL    HW254967   5.135  11.925   9.529
51065SOL     OW54968  14.201  13.848   5.301
51065SOL    HW154969  14.278  13.904   5.318
51065SOL    HW254970  14.236  13.759   5.304
51066SOL     OW54971  11.159  13.472   2.100
51066SOL    HW154972  11.200  13.424   2.028
51066SOL    HW254973  11.192  13.431   2.179
51067SOL     OW54974  12.020   0.346  14.611
51067SOL    HW154975  12.093   0.286  14.629
51067SOL    HW254976  12.017   0.403  14.687
51068SOL     OW54977  10.840   9.106   4.642
51068SOL    HW154978  10.849   9.189   4.594
51068SOL    HW254979  10.748   9.083   4.633
51069SOL     OW54980   9.463   9.577   4.525
51069SOL    HW154981   9.452   9.654   4.580
51069SOL    HW254982   9.524   9.604   4.457
51070SOL     OW54983  11.239  12.813   8.761
51070SOL    HW154984  11.260  12.747   8.696
51070SOL    HW254985  11.317  12.820   8.816
51071SOL     OW54986   9.801  14.054   3.995
51071SOL    HW154987   9.842  14.061   3.909
51071SOL    HW254988   9.709  14.074   3.980
51072SOL     OW54989   9.625   9.744   4.825
51072SOL    HW154990   9.535   9.710   4.831
51072SOL    HW254991   9.680   9.667   4.815
51073SOL     OW54992  10.080   2.285  13.472
51073SOL    HW154993  10.146   2.233  13.426
51073SOL    HW254994  10.124   2.316  13.551
51074SOL     OW54995   4.270  13.284   7.589
51074SOL    HW154996   4.257  13.239   7.672
51074SOL    HW254997   4.284  13.215   7.525
51075SOL     OW54998   8.383   4.229  12.578
51075SOL    HW154999   8.391   4.231  12.482
51075SOL    HW255000   8.453   4.286  12.609
51076SOL     OW55001  11.653   6.052   9.455
51076SOL    HW155002  11.591   6.035   9.383
51076SOL    HW255003  11.606   6.026   9.534
51077SOL     OW55004   8.691  11.711  11.453
51077SOL    HW155005   8.762  11.688  11.393
51077SOL    HW255006   8.616  11.659  11.421
51078SOL     OW55007   1.463   9.767   9.129
51078SOL    HW155008   1.458   9.721   9.046
51078SOL    HW255009   1.394   9.834   9.125
51079SOL     OW55010   0.253   1.368  13.580
51079SOL    HW155011   0.180   1.426  13.559
51079SOL    HW255012   0.220   1.312  13.650
51080SOL     OW55013   8.994   6.875   4.430
51080SOL    HW155014   8.982   6.970   4.431
51080SOL    HW255015   9.085   6.862   4.402
51081SOL     OW55016  12.052  12.720   5.568
51081SOL    HW155017  12.088  12.677   5.490
51081SOL    HW255018  12.115  12.700   5.637
51082SOL     OW55019   4.973   2.280   4.347
51082SOL    HW155020   4.986   2.355   4.405
51082SOL    HW255021   4.981   2.204   4.404
51083SOL     OW55022   8.253  14.685   4.338
51083SOL    HW155023   8.240  14.592   4.356
51083SOL    HW255024   8.232  14.695   4.245
51084SOL     OW55025  13.973   3.539   3.683
51084SOL    HW155026  14.028   3.592   3.626
51084SOL    HW255027  14.004   3.449   3.670
51085SOL     OW55028   0.265   5.044   7.404
51085SOL    HW155029   0.178   5.083   7.392
51085SOL    HW255030   0.267   5.016   7.495
51086SOL     OW55031   5.063  11.178  13.122
51086SOL    HW155032   5.010  11.203  13.046
51086SOL    HW255033   5.148  11.155  13.085
51087SOL     OW55034  14.185   8.239   2.406
51087SOL    HW155035  14.215   8.294   2.478
51087SOL    HW255036  14.167   8.154   2.446
51088SOL     OW55037   8.885  12.990   7.866
51088SOL    HW155038   8.795  12.989   7.835
51088SOL    HW255039   8.936  13.015   7.788
51089SOL     OW55040  12.872   7.923   1.231
51089SOL    HW155041  12.884   7.905   1.138
51089SOL    HW255042  12.828   7.845   1.265
51090SOL     OW55043   3.424   1.467   5.054
51090SOL    HW155044   3.475   1.397   5.012
51090SOL    HW255045   3.334   1.450   5.028
51091SOL     OW55046   9.083   0.856   3.061
51091SOL    HW155047   9.105   0.923   2.996
51091SOL    HW255048   8.989   0.865   3.074
51092SOL     OW55049   5.521   3.159   5.593
51092SOL    HW155050   5.517   3.163   5.497
51092SOL    HW255051   5.463   3.230   5.622
51093SOL     OW55052   5.517   8.912   2.347
51093SOL    HW155053   5.579   8.876   2.410
51093SOL    HW255054   5.479   8.989   2.391
51094SOL     OW55055   9.771  12.097   7.860
51094SOL    HW155056   9.731  12.057   7.783
51094SOL    HW255057   9.858  12.125   7.831
51095SOL     OW55058   3.916   3.912   4.905
51095SOL    HW155059   3.929   3.916   5.000
51095SOL    HW255060   3.956   3.829   4.878
51096SOL     OW55061   0.445  14.180   6.609
51096SOL    HW155062   0.530  14.224   6.619
51096SOL    HW255063   0.417  14.201   6.520
51097SOL     OW55064   0.026   5.655   5.967
51097SOL    HW155065   0.064   5.725   6.020
51097SOL    HW255066  14.832   5.697   5.920
51098SOL     OW55067   8.330   5.117   3.586
51098SOL    HW155068   8.237   5.096   3.586
51098SOL    HW255069   8.342   5.180   3.656
51099SOL     OW55070   1.459   3.521   2.566
51099SOL    HW155071   1.522   3.454   2.591
51099SOL    HW255072   1.493   3.601   2.606
51100SOL     OW55073  10.173  13.090   1.151
51100SOL    HW155074  10.262  13.056   1.136
51100SOL    HW255075  10.125  13.016   1.188
51101SOL     OW55076  14.719  14.470   1.529
51101SOL    HW155077  14.809  14.502   1.524
51101SOL    HW255078  14.681  14.513   1.605
51102SOL     OW55079   2.234   4.172   1.119
51102SOL    HW155080   2.249   4.151   1.026
51102SOL    HW255081   2.239   4.087   1.163
51103SOL     OW55082  10.607  14.408   9.839
51103SOL    HW155083  10.675  14.417   9.906
51103SOL    HW255084  10.533  14.368   9.885
51104SOL     OW55085   9.157  11.156  13.587
51104SOL    HW155086   9.104  11.146  13.667
51104SOL    HW255087   9.247  11.143  13.617
51105SOL     OW55088  14.799   7.321  11.310
51105SOL    HW155089   0.000   7.302  11.258
51105SOL    HW255090  14.738   7.360  11.247
51106SOL     OW55091   5.690   2.421   6.269
51106SOL    HW155092   5.645   2.396   6.189
51106SOL    HW255093   5.715   2.338   6.310
51107SOL     OW55094   6.092   5.144   1.265
51107SOL    HW155095   6.111   5.176   1.353
51107SOL    HW255096   6.029   5.207   1.231
51108SOL     OW55097  12.238   1.875   1.387
51108SOL    HW155098  12.307   1.905   1.446
51108SOL    HW255099  12.251   1.926   1.307
51109SOL     OW55100  13.104  14.334   0.679
51109SOL    HW155101  13.123  14.294   0.594
51109SOL    HW255102  13.172  14.401   0.690
51110SOL     OW55103   4.410   3.782   6.700
51110SOL    HW155104   4.504   3.761   6.699
51110SOL    HW255105   4.377   3.736   6.777
51111SOL     OW55106   7.945   6.782   1.819
51111SOL    HW155107   8.018   6.722   1.835
51111SOL    HW255108   7.986   6.860   1.781
51112SOL     OW55109  11.394  12.573   6.096
51112SOL    HW155110  11.438  12.549   6.178
51112SOL    HW255111  11.387  12.490   6.048
51113SOL     OW55112  10.173  13.983   5.529
51113SOL    HW155113  10.104  13.966   5.593
51113SOL    HW255114  10.254  13.967   5.577
51114SOL     OW55115  10.189   7.179  13.158
51114SOL    HW155116  10.131   7.228  13.100
51114SOL    HW255117  10.131   7.119  13.204
51115SOL     OW55118   0.769   3.387  10.273
51115SOL    HW155119   0.835   3.340  10.222
51115SOL    HW255120   0.746   3.462  10.219
51116SOL     OW55121   9.513  10.285  13.377
51116SOL    HW155122   9.538  10.299  13.285
51116SOL    HW255123   9.590  10.311  13.427
51117SOL     OW55124  14.375   8.207   2.193
51117SOL    HW155125  14.315   8.143   2.156
51117SOL    HW255126  14.326   8.248   2.264
51118SOL     OW55127  14.003   4.969  13.591
51118SOL    HW155128  14.019   4.875  13.595
51118SOL    HW255129  13.985   4.987  13.499
51119SOL     OW55130  13.418   3.444   2.758
51119SOL    HW155131  13.327   3.417   2.742
51119SOL    HW255132  13.439   3.501   2.684
51120SOL     OW55133   5.171  11.312   1.996
51120SOL    HW155134   5.124  11.390   2.023
51120SOL    HW255135   5.103  11.246   1.984
51121SOL     OW55136   1.117   8.646   9.594
51121SOL    HW155137   1.080   8.618   9.510
51121SOL    HW255138   1.044   8.690   9.638
51122SOL     OW55139   9.476  11.812   5.959
51122SOL    HW155140   9.486  11.815   6.054
51122SOL    HW255141   9.518  11.893   5.928
51123SOL     OW55142   5.263   0.855   8.668
51123SOL    HW155143   5.283   0.762   8.682
51123SOL    HW255144   5.182   0.855   8.618
51124SOL     OW55145   2.717   2.090  11.464
51124SOL    HW155146   2.763   2.077  11.381
51124SOL    HW255147   2.747   2.175  11.495
51125SOL     OW55148  13.969   2.044   8.632
51125SOL    HW155149  13.924   2.107   8.688
51125SOL    HW255150  14.039   2.009   8.687
51126SOL     OW55151   6.598  13.693  12.206
51126SOL    HW155152   6.679  13.669  12.251
51126SOL    HW255153   6.621  13.695  12.114
51127SOL     OW55154  10.268  10.049   8.927
51127SOL    HW155155  10.307  10.062   8.841
51127SOL    HW255156  10.304  10.120   8.980
51128SOL     OW55157  12.079  13.493   7.627
51128SOL    HW155158  12.156  13.535   7.665
51128SOL    HW255159  12.108  13.464   7.540
51129SOL     OW55160   2.365   2.363   3.363
51129SOL    HW155161   2.309   2.363   3.441
51129SOL    HW255162   2.328   2.432   3.308
51130SOL     OW55163   9.152  13.722   5.998
51130SOL    HW155164   9.116  13.638   6.026
51130SOL    HW255165   9.140  13.779   6.074
51131SOL     OW55166   6.799   7.290   7.878
51131SOL    HW155167   6.848   7.211   7.859
51131SOL    HW255168   6.852   7.337   7.942
51132SOL     OW55169   8.555  12.272   4.691
51132SOL    HW155170   8.634  12.294   4.643
51132SOL    HW255171   8.514  12.357   4.710
51133SOL     OW55172  10.777  13.700   0.448
51133SOL    HW155173  10.724  13.766   0.491
51133SOL    HW255174  10.716  13.649   0.396
51134SOL     OW55175  11.533   7.596  10.204
51134SOL    HW155176  11.452   7.545  10.194
51134SOL    HW255177  11.599   7.532  10.229
51135SOL     OW55178   3.821  12.763   2.173
51135SOL    HW155179   3.785  12.695   2.116
51135SOL    HW255180   3.745  12.815   2.199
51136SOL     OW55181   2.426   0.430   1.291
51136SOL    HW155182   2.514   0.397   1.270
51136SOL    HW255183   2.368   0.355   1.277
51137SOL     OW55184   9.605   0.732   6.551
51137SOL    HW155185   9.655   0.701   6.475
51137SOL    HW255186   9.666   0.789   6.598
51138SOL     OW55187  11.132   1.629   2.699
51138SOL    HW155188  11.225   1.635   2.677
51138SOL    HW255189  11.121   1.689   2.772
51139SOL     OW55190  10.190   7.513   5.919
51139SOL    HW155191  10.277   7.542   5.948
51139SOL    HW255192  10.142   7.594   5.903
51140SOL     OW55193   2.574   8.943   4.886
51140SOL    HW155194   2.596   8.972   4.797
51140SOL    HW255195   2.536   8.856   4.875
51141SOL     OW55196   1.589  11.000   8.793
51141SOL    HW155197   1.531  11.008   8.869
51141SOL    HW255198   1.670  11.042   8.820
51142SOL     OW55199   2.548   2.100   5.626
51142SOL    HW155200   2.573   2.008   5.633
51142SOL    HW255201   2.512   2.122   5.711
51143SOL     OW55202  13.926   0.326  13.437
51143SOL    HW155203  13.830   0.324  13.440
51143SOL    HW255204  13.946   0.375  13.357
51144SOL     OW55205   5.039   7.830   4.626
51144SOL    HW155206   5.069   7.920   4.642
51144SOL    HW255207   4.971   7.839   4.559
51145SOL     OW55208   1.929   3.990   4.193
51145SOL    HW155209   1.916   3.928   4.265
51145SOL    HW255210   2.019   3.975   4.164
51146SOL     OW55211   9.159   7.403   3.001
51146SOL    HW155212   9.235   7.393   3.058
51146SOL    HW255213   9.172   7.338   2.931
51147SOL     OW55214   7.828   4.239   2.768
51147SOL    HW155215   7.742   4.269   2.799
51147SOL    HW255216   7.809   4.163   2.713
51148SOL     OW55217   1.038  14.487   6.419
51148SOL    HW155218   1.037  14.457   6.509
51148SOL    HW255219   0.952  14.528   6.406
51149SOL     OW55220   8.262   1.133   6.071
51149SOL    HW155221   8.347   1.161   6.105
51149SOL    HW255222   8.207   1.121   6.148
51150SOL     OW55223   6.271   0.153   0.519
51150SOL    HW155224   6.264   0.128   0.427
51150SOL    HW255225   6.287   0.071   0.566
51151SOL     OW55226  12.996   3.795  14.301
51151SOL    HW155227  12.941   3.859  14.255
51151SOL    HW255228  13.006   3.723  14.238
51152SOL     OW55229   1.569  12.898  14.079
51152SOL    HW155230   1.648  12.937  14.041
51152SOL    HW255231   1.538  12.836  14.013
51153SOL     OW55232   1.829  10.849   7.040
51153SOL    HW155233   1.918  10.884   7.037
51153SOL    HW255234   1.830  10.777   6.977
51154SOL     OW55235   8.544  14.687   6.000
51154SOL    HW155236   8.472  14.747   6.023
51154SOL    HW255237   8.549  14.690   5.905
51155SOL     OW55238   4.667   0.776  13.440
51155SOL    HW155239   4.610   0.742  13.510
51155SOL    HW255240   4.756   0.768  13.475
51156SOL     OW55241   7.472  14.447   7.278
51156SOL    HW155242   7.405  14.417   7.217
51156SOL    HW255243   7.444  14.535   7.302
51157SOL     OW55244   3.866  12.837  12.613
51157SOL    HW155245   3.939  12.787  12.648
51157SOL    HW255246   3.824  12.876  12.690
51158SOL     OW55247  11.207   9.631  14.621
51158SOL    HW155248  11.226   9.716  14.581
51158SOL    HW255249  11.291   9.585  14.619
51159SOL     OW55250  13.352   6.794  14.733
51159SOL    HW155251  13.312   6.754  14.810
51159SOL    HW255252  13.425   6.846  14.768
51160SOL     OW55253  13.677   4.768  11.151
51160SOL    HW155254  13.756   4.779  11.098
51160SOL    HW255255  13.643   4.682  11.126
51161SOL     OW55256  11.440   0.920  10.203
51161SOL    HW155257  11.427   0.901  10.296
51161SOL    HW255258  11.479   0.840  10.167
51162SOL     OW55259   5.534   6.366  14.412
51162SOL    HW155260   5.467   6.407  14.357
51162SOL    HW255261   5.535   6.274  14.384
51163SOL     OW55262   0.591  13.272   5.970
51163SOL    HW155263   0.634  13.213   6.032
51163SOL    HW255264   0.656  13.286   5.901
51164SOL     OW55265  14.640   0.797  14.376
51164SOL    HW155266  14.593   0.720  14.344
51164SOL    HW255267  14.580   0.870  14.363
51165SOL     OW55268   7.756  14.457   4.381
51165SOL    HW155269   7.773  14.473   4.474
51165SOL    HW255270   7.780  14.365   4.369
51166SOL     OW55271   6.775   6.935   8.214
51166SOL    HW155272   6.843   6.925   8.148
51166SOL    HW255273   6.818   6.916   8.297
51167SOL     OW55274   5.867  10.652  10.176
51167SOL    HW155275   5.860  10.618  10.087
51167SOL    HW255276   5.899  10.578  10.227
51168SOL     OW55277   7.618  12.503  14.006
51168SOL    HW155278   7.581  12.579  14.050
51168SOL    HW255279   7.708  12.528  13.985
51169SOL     OW55280   9.702   7.962   7.463
51169SOL    HW155281   9.756   7.972   7.541
51169SOL    HW255282   9.629   7.906   7.491
51170SOL     OW55283   4.133  11.484   7.047
51170SOL    HW155284   4.142  11.537   7.127
51170SOL    HW255285   4.065  11.421   7.069
51171SOL     OW55286   2.864   4.637  13.928
51171SOL    HW155287   2.932   4.642  13.996
51171SOL    HW255288   2.894   4.567  13.870
51172SOL     OW55289  13.741   3.832   1.318
51172SOL    HW155290  13.815   3.890   1.301
51172SOL    HW255291  13.748   3.812   1.411
51173SOL     OW55292   1.968  12.471   4.913
51173SOL    HW155293   1.971  12.563   4.887
51173SOL    HW255294   2.054  12.455   4.953
51174SOL     OW55295  10.288  12.728  10.889
51174SOL    HW155296  10.352  12.798  10.905
51174SOL    HW255297  10.219  12.770  10.838
51175SOL     OW55298   7.012  11.425   7.768
51175SOL    HW155299   7.017  11.358   7.699
51175SOL    HW255300   6.951  11.389   7.832
51176SOL     OW55301   1.208  11.283  14.652
51176SOL    HW155302   1.117  11.311  14.637
51176SOL    HW255303   1.261  11.344  14.601
51177SOL     OW55304   0.568   7.007  10.501
51177SOL    HW155305   0.549   6.936  10.439
51177SOL    HW255306   0.664   7.010  10.505
51178SOL     OW55307   2.186   8.665   8.085
51178SOL    HW155308   2.266   8.668   8.033
51178SOL    HW255309   2.181   8.753   8.124
51179SOL     OW55310  10.236   3.532   3.414
51179SOL    HW155311  10.223   3.441   3.441
51179SOL    HW255312  10.237   3.529   3.318
51180SOL     OW55313   3.317  10.563   3.669
51180SOL    HW155314   3.320  10.566   3.574
51180SOL    HW255315   3.224  10.558   3.690
51181SOL     OW55316  11.531   4.717   1.015
51181SOL    HW155317  11.627   4.718   1.014
51181SOL    HW255318  11.508   4.626   1.033
51182SOL     OW55319   9.943   8.774   0.652
51182SOL    HW155320   9.898   8.858   0.647
51182SOL    HW255321  10.003   8.783   0.726
51183SOL     OW55322   6.826  14.160   8.075
51183SOL    HW155323   6.884  14.207   8.015
51183SOL    HW255324   6.864  14.175   8.162
51184SOL     OW55325  13.145   3.086   5.810
51184SOL    HW155326  13.119   3.009   5.760
51184SOL    HW255327  13.203   3.052   5.879
51185SOL     OW55328   2.722   4.563   4.655
51185SOL    HW155329   2.741   4.501   4.725
51185SOL    HW255330   2.766   4.644   4.682
51186SOL     OW55331   6.031   5.311  14.834
51186SOL    HW155332   6.017   5.393   0.005
51186SOL    HW255333   6.012   5.242   0.020
51187SOL     OW55334   3.443   1.104   5.384
51187SOL    HW155335   3.533   1.111   5.417
51187SOL    HW255336   3.419   1.013   5.402
51188SOL     OW55337   7.269   4.488   4.299
51188SOL    HW155338   7.256   4.394   4.306
51188SOL    HW255339   7.354   4.498   4.255
51189SOL     OW55340   4.814   6.893   2.745
51189SOL    HW155341   4.896   6.847   2.764
51189SOL    HW255342   4.767   6.894   2.828
51190SOL     OW55343  11.688   0.398   9.473
51190SOL    HW155344  11.713   0.435   9.389
51190SOL    HW255345  11.603   0.438   9.493
51191SOL     OW55346   3.046   9.127  10.804
51191SOL    HW155347   3.071   9.154  10.892
51191SOL    HW255348   3.102   9.051  10.785
51192SOL     OW55349   3.624   3.007  14.383
51192SOL    HW155350   3.675   3.087  14.393
51192SOL    HW255351   3.676   2.940  14.428
51193SOL     OW55352   3.210   8.431  12.932
51193SOL    HW155353   3.262   8.366  12.885
51193SOL    HW255354   3.273   8.480  12.985
51194SOL     OW55355   9.929  12.029   4.110
51194SOL    HW155356   9.914  11.936   4.091
51194SOL    HW255357   9.960  12.065   4.027
51195SOL     OW55358   2.383  13.121  14.843
51195SOL    HW155359   2.381  13.025  14.849
51195SOL    HW255360   2.370  13.150   0.056
51196SOL     OW55361   0.177  12.682   0.156
51196SOL    HW155362   0.231  12.654   0.082
51196SOL    HW255363   0.131  12.760   0.123
51197SOL     OW55364   0.653  12.504   8.663
51197SOL    HW155365   0.584  12.516   8.728
51197SOL    HW255366   0.607  12.499   8.579
51198SOL     OW55367   7.272   2.557  14.087
51198SOL    HW155368   7.290   2.548  13.993
51198SOL    HW255369   7.242   2.648  14.096
51199SOL     OW55370   4.379  10.596   3.364
51199SOL    HW155371   4.400  10.614   3.456
51199SOL    HW255372   4.399  10.502   3.353
51200SOL     OW55373   3.865   6.217   2.543
51200SOL    HW155374   3.816   6.294   2.572
51200SOL    HW255375   3.841   6.207   2.451
51201SOL     OW55376   9.905   4.720   0.359
51201SOL    HW155377   9.914   4.712   0.264
51201SOL    HW255378   9.994   4.731   0.392
51202SOL     OW55379  14.703   5.109   5.128
51202SOL    HW155380  14.657   5.047   5.072
51202SOL    HW255381  14.639   5.178   5.145
51203SOL     OW55382   5.688   6.423   9.110
51203SOL    HW155383   5.611   6.469   9.077
51203SOL    HW255384   5.762   6.471   9.073
51204SOL     OW55385   5.636  11.447   3.818
51204SOL    HW155386   5.633  11.493   3.734
51204SOL    HW255387   5.544  11.433   3.841
51205SOL     OW55388   7.439   4.694  14.844
51205SOL    HW155389   7.466   4.645  14.766
51205SOL    HW255390   7.345   4.709  14.831
51206SOL     OW55391   8.097   3.277   0.581
51206SOL    HW155392   8.042   3.291   0.658
51206SOL    HW255393   8.185   3.263   0.617
51207SOL     OW55394   0.826   7.907   3.033
51207SOL    HW155395   0.831   7.814   3.053
51207SOL    HW255396   0.738   7.919   2.995
51208SOL     OW55397   4.332   9.458   3.535
51208SOL    HW155398   4.390   9.517   3.488
51208SOL    HW255399   4.384   9.427   3.609
51209SOL     OW55400   7.580  13.091  10.373
51209SOL    HW155401   7.604  13.131  10.456
51209SOL    HW255402   7.503  13.140  10.344
51210SOL     OW55403   5.810   5.972   5.045
51210SOL    HW155404   5.899   5.937   5.047
51210SOL    HW255405   5.822   6.067   5.037
51211SOL     OW55406   9.665   5.174   2.242
51211SOL    HW155407   9.678   5.246   2.180
51211SOL    HW255408   9.573   5.180   2.267
51212SOL     OW55409  10.545   3.704   3.748
51212SOL    HW155410  10.491   3.712   3.669
51212SOL    HW255411  10.590   3.788   3.754
51213SOL     OW55412  10.026   0.359   1.291
51213SOL    HW155413   9.981   0.358   1.207
51213SOL    HW255414  10.014   0.448   1.324
51214SOL     OW55415   3.873  11.643   7.078
51214SOL    HW155416   3.856  11.650   6.984
51214SOL    HW255417   3.895  11.551   7.092
51215SOL     OW55418   1.545   8.031  11.113
51215SOL    HW155419   1.548   8.013  11.019
51215SOL    HW255420   1.489   8.107  11.122
51216SOL     OW55421  14.357   4.043   7.012
51216SOL    HW155422  14.435   4.042   6.957
51216SOL    HW255423  14.375   3.977   7.079
51217SOL     OW55424   8.630  10.203   8.940
51217SOL    HW155425   8.571  10.127   8.939
51217SOL    HW255426   8.596  10.259   9.009
51218SOL     OW55427   1.053   6.559   7.947
51218SOL    HW155428   0.998   6.575   8.024
51218SOL    HW255429   1.006   6.603   7.876
51219SOL     OW55430  12.303   0.527   2.008
51219SOL    HW155431  12.261   0.473   1.941
51219SOL    HW255432  12.345   0.598   1.960
51220SOL     OW55433   0.149   2.444   9.093
51220SOL    HW155434   0.159   2.385   9.018
51220SOL    HW255435   0.180   2.529   9.060
51221SOL     OW55436   6.575   9.146  13.561
51221SOL    HW155437   6.534   9.061  13.577
51221SOL    HW255438   6.652   9.126  13.507
51222SOL     OW55439   1.138   2.304  11.356
51222SOL    HW155440   1.135   2.251  11.435
51222SOL    HW255441   1.193   2.379  11.379
51223SOL     OW55442  12.233  10.484  10.390
51223SOL    HW155443  12.309  10.426  10.396
51223SOL    HW255444  12.249  10.537  10.313
51224SOL     OW55445   1.766  11.206   5.029
51224SOL    HW155446   1.774  11.135   4.965
51224SOL    HW255447   1.678  11.242   5.014
51225SOL     OW55448   0.303  14.373  13.636
51225SOL    HW155449   0.339  14.355  13.723
51225SOL    HW255450   0.269  14.288  13.607
51226SOL     OW55451   2.263  11.402   1.871
51226SOL    HW155452   2.282  11.477   1.813
51226SOL    HW255453   2.190  11.357   1.828
51227SOL     OW55454   5.192  14.119   0.354
51227SOL    HW155455   5.276  14.078   0.378
51227SOL    HW255456   5.179  14.094   0.263
51228SOL     OW55457  11.441  14.739  13.914
51228SOL    HW155458  11.418  14.732  14.007
51228SOL    HW255459  11.494  14.661  13.897
51229SOL     OW55460  12.296  10.010   9.000
51229SOL    HW155461  12.385  10.003   9.034
51229SOL    HW255462  12.303  10.064   8.922
51230SOL     OW55463  12.355   4.875   6.434
51230SOL    HW155464  12.305   4.867   6.515
51230SOL    HW255465  12.375   4.785   6.409
51231SOL     OW55466   1.463   1.159   3.569
51231SOL    HW155467   1.431   1.201   3.489
51231SOL    HW255468   1.521   1.090   3.538
51232SOL     OW55469   6.827   8.750   5.009
51232SOL    HW155470   6.802   8.735   5.100
51232SOL    HW255471   6.894   8.818   5.014
51233SOL     OW55472   8.841   0.440   2.672
51233SOL    HW155473   8.936   0.447   2.679
51233SOL    HW255474   8.808   0.524   2.705
51234SOL     OW55475   9.459   8.696   0.025
51234SOL    HW155476   9.499   8.704   0.111
51234SOL    HW255477   9.391   8.764   0.024
51235SOL     OW55478  12.684   1.008   6.894
51235SOL    HW155479  12.660   1.081   6.837
51235SOL    HW255480  12.671   0.930   6.841
51236SOL     OW55481   8.561   8.436   7.565
51236SOL    HW155482   8.653   8.463   7.566
51236SOL    HW255483   8.564   8.340   7.561
51237SOL     OW55484   3.003   5.340  11.979
51237SOL    HW155485   2.960   5.257  11.959
51237SOL    HW255486   2.934   5.396  12.012
51238SOL     OW55487  13.081   3.777   0.986
51238SOL    HW155488  12.998   3.822   0.999
51238SOL    HW255489  13.132   3.798   1.064
51239SOL     OW55490   0.292   6.615   0.438
51239SOL    HW155491   0.310   6.666   0.359
51239SOL    HW255492   0.199   6.631   0.455
51240SOL     OW55493   0.668   9.421   1.971
51240SOL    HW155494   0.586   9.389   2.010
51240SOL    HW255495   0.692   9.496   2.025
51241SOL     OW55496   1.931   9.873   3.115
51241SOL    HW155497   1.945   9.791   3.068
51241SOL    HW255498   1.867   9.851   3.183
51242SOL     OW55499   4.206   7.063   1.656
51242SOL    HW155500   4.284   7.070   1.601
51242SOL    HW255501   4.231   7.003   1.726
51243SOL     OW55502  10.022   0.282  13.870
51243SOL    HW155503  10.060   0.196  13.882
51243SOL    HW255504   9.966   0.294  13.947
51244SOL     OW55505   0.836   0.838  14.282
51244SOL    HW155506   0.811   0.818  14.372
51244SOL    HW255507   0.864   0.929  14.285
51245SOL     OW55508  12.150  13.157   9.451
51245SOL    HW155509  12.228  13.201   9.484
51245SOL    HW255510  12.143  13.077   9.503
51246SOL     OW55511   2.714   2.609   6.588
51246SOL    HW155512   2.708   2.537   6.525
51246SOL    HW255513   2.623   2.632   6.607
51247SOL     OW55514   0.719   4.037   1.105
51247SOL    HW155515   0.755   4.117   1.066
51247SOL    HW255516   0.761   3.966   1.057
51248SOL     OW55517   9.391   7.109  12.389
51248SOL    HW155518   9.434   7.123  12.305
51248SOL    HW255519   9.366   7.196  12.419
51249SOL     OW55520   2.084   2.088   6.845
51249SOL    HW155521   2.073   2.021   6.913
51249SOL    HW255522   2.025   2.158   6.872
51250SOL     OW55523   0.905   1.308   1.773
51250SOL    HW155524   0.959   1.381   1.743
51250SOL    HW255525   0.940   1.232   1.727
51251SOL     OW55526   9.133   2.334  13.926
51251SOL    HW155527   9.176   2.407  13.971
51251SOL    HW255528   9.044   2.335  13.960
51252SOL     OW55529   1.248   8.502   8.702
51252SOL    HW155530   1.247   8.450   8.622
51252SOL    HW255531   1.268   8.591   8.673
51253SOL     OW55532   4.301  12.586   5.021
51253SOL    HW155533   4.342  12.500   5.006
51253SOL    HW255534   4.374  12.648   5.014
51254SOL     OW55535  13.569  12.548   4.861
51254SOL    HW155536  13.555  12.602   4.939
51254SOL    HW255537  13.481  12.535   4.825
51255SOL     OW55538   1.865   3.257  14.410
51255SOL    HW155539   1.922   3.327  14.379
51255SOL    HW255540   1.784   3.267  14.359
51256SOL     OW55541   5.504   6.970   9.579
51256SOL    HW155542   5.488   6.884   9.617
51256SOL    HW255543   5.420   7.015   9.584
51257SOL     OW55544  13.998   4.849  12.683
51257SOL    HW155545  14.047   4.872  12.762
51257SOL    HW255546  14.030   4.762  12.659
51258SOL     OW55547  10.956  11.184   1.894
51258SOL    HW155548  10.892  11.171   1.825
51258SOL    HW255549  10.908  11.235   1.961
51259SOL     OW55550   4.801   6.139   1.950
51259SOL    HW155551   4.853   6.136   1.869
51259SOL    HW255552   4.773   6.048   1.964
51260SOL     OW55553  14.784   5.811  11.658
51260SOL    HW155554  14.862   5.856  11.690
51260SOL    HW255555  14.818   5.748  11.593
51261SOL     OW55556  11.447   0.483  12.526
51261SOL    HW155557  11.485   0.537  12.595
51261SOL    HW255558  11.523   0.442  12.485
51262SOL     OW55559   6.321  10.205   2.778
51262SOL    HW155560   6.304  10.278   2.718
51262SOL    HW255561   6.366  10.140   2.723
51263SOL     OW55562   7.973   1.361  11.319
51263SOL    HW155563   7.992   1.453  11.299
51263SOL    HW255564   7.931   1.363  11.404
51264SOL     OW55565   8.807   0.597  10.215
51264SOL    HW155566   8.873   0.537  10.249
51264SOL    HW255567   8.746   0.541  10.166
51265SOL     OW55568  13.464   8.797  10.248
51265SOL    HW155569  13.459   8.803  10.152
51265SOL    HW255570  13.374   8.779  10.276
51266SOL     OW55571  14.838  13.583   8.535
51266SOL    HW155572   0.044  13.559   8.496
51266SOL    HW255573  14.816  13.510   8.594
51267SOL     OW55574   2.204   0.232   3.701
51267SOL    HW155575   2.191   0.300   3.635
51267SOL    HW255576   2.205   0.150   3.651
51268SOL     OW55577  11.270   4.748  10.574
51268SOL    HW155578  11.218   4.670  10.598
51268SOL    HW255579  11.293   4.734  10.483
51269SOL     OW55580   2.427  12.627  13.681
51269SOL    HW155581   2.350  12.643  13.628
51269SOL    HW255582   2.471  12.553  13.638
51270SOL     OW55583   8.602   8.235  11.696
51270SOL    HW155584   8.607   8.309  11.636
51270SOL    HW255585   8.531   8.181  11.663
51271SOL     OW55586   0.828   5.116  14.062
51271SOL    HW155587   0.752   5.064  14.088
51271SOL    HW255588   0.897   5.051  14.047
51272SOL     OW55589   5.468  11.756   2.447
51272SOL    HW155590   5.392  11.737   2.392
51272SOL    HW255591   5.511  11.671   2.458
51273SOL     OW55592   8.405  11.838   3.827
51273SOL    HW155593   8.408  11.916   3.772
51273SOL    HW255594   8.497  11.815   3.842
51274SOL     OW55595  12.505  10.317   5.418
51274SOL    HW155596  12.459  10.332   5.336
51274SOL    HW255597  12.438  10.283   5.477
51275SOL     OW55598   0.416   7.712   3.443
51275SOL    HW155599   0.489   7.725   3.383
51275SOL    HW255600   0.385   7.623   3.424
51276SOL     OW55601  13.025   2.748   3.717
51276SOL    HW155602  12.957   2.723   3.780
51276SOL    HW255603  13.097   2.689   3.736
51277SOL     OW55604  14.224  11.333  14.393
51277SOL    HW155605  14.253  11.383  14.469
51277SOL    HW255606  14.190  11.251  14.429
51278SOL     OW55607   0.039   6.141   1.543
51278SOL    HW155608   0.131   6.168   1.545
51278SOL    HW255609  14.876   6.199   1.478
51279SOL     OW55610   4.340   9.653   8.274
51279SOL    HW155611   4.349   9.665   8.368
51279SOL    HW255612   4.372   9.563   8.259
51280SOL     OW55613  13.289  14.150   7.481
51280SOL    HW155614  13.255  14.066   7.449
51280SOL    HW255615  13.214  14.209   7.480
51281SOL     OW55616   7.533  12.062   3.577
51281SOL    HW155617   7.604  12.048   3.514
51281SOL    HW255618   7.477  11.986   3.569
51282SOL     OW55619  14.601   2.201  12.546
51282SOL    HW155620  14.657   2.189  12.623
51282SOL    HW255621  14.512   2.190  12.579
51283SOL     OW55622  12.027   7.068   7.748
51283SOL    HW155623  12.075   6.993   7.785
51283SOL    HW255624  11.958   7.086   7.812
51284SOL     OW55625   7.265   2.091  13.943
51284SOL    HW155626   7.284   2.035  13.867
51284SOL    HW255627   7.182   2.133  13.922
51285SOL     OW55628  10.802   2.826   4.152
51285SOL    HW155629  10.812   2.894   4.219
51285SOL    HW255630  10.813   2.873   4.069
51286SOL     OW55631   2.347  11.135  14.180
51286SOL    HW155632   2.313  11.046  14.182
51286SOL    HW255633   2.293  11.183  14.242
51287SOL     OW55634  10.722   0.172   1.061
51287SOL    HW155635  10.660   0.230   1.017
51287SOL    HW255636  10.744   0.107   0.994
51288SOL     OW55637   7.999  10.456   0.428
51288SOL    HW155638   7.917  10.426   0.388
51288SOL    HW255639   8.029  10.527   0.371
51289SOL     OW55640   8.508   2.581  11.771
51289SOL    HW155641   8.508   2.486  11.783
51289SOL    HW255642   8.467   2.615  11.850
51290SOL     OW55643   2.962  11.459   6.173
51290SOL    HW155644   2.987  11.530   6.114
51290SOL    HW255645   2.887  11.417   6.131
51291SOL     OW55646   6.984  12.869   9.880
51291SOL    HW155647   7.000  12.834   9.792
51291SOL    HW255648   6.944  12.796   9.927
51292SOL     OW55649   5.514  11.495   9.709
51292SOL    HW155650   5.420  11.512   9.705
51292SOL    HW255651   5.521  11.413   9.758
51293SOL     OW55652   7.991   4.585   0.759
51293SOL    HW155653   8.032   4.622   0.681
51293SOL    HW255654   8.008   4.491   0.754
51294SOL     OW55655   1.776   7.267   9.801
51294SOL    HW155656   1.858   7.229   9.771
51294SOL    HW255657   1.711   7.238   9.737
51295SOL     OW55658  11.257  14.017   5.875
51295SOL    HW155659  11.271  14.111   5.885
51295SOL    HW255660  11.345  13.982   5.856
51296SOL     OW55661   0.608   4.937  14.157
51296SOL    HW155662   0.585   4.872  14.224
51296SOL    HW255663   0.524   4.963  14.119
51297SOL     OW55664   2.408  10.990   4.802
51297SOL    HW155665   2.401  10.937   4.881
51297SOL    HW255666   2.394  11.080   4.832
51298SOL     OW55667   9.516  12.174   6.514
51298SOL    HW155668   9.559  12.259   6.525
51298SOL    HW255669   9.583  12.110   6.538
51299SOL     OW55670   1.751  14.049   5.883
51299SOL    HW155671   1.737  14.119   5.947
51299SOL    HW255672   1.673  14.052   5.827
51300SOL     OW55673   3.430   3.804   5.570
51300SOL    HW155674   3.420   3.716   5.535
51300SOL    HW255675   3.350   3.850   5.545
51301SOL     OW55676   4.811   8.405  13.639
51301SOL    HW155677   4.889   8.453  13.666
51301SOL    HW255678   4.842   8.342  13.574
51302SOL     OW55679   2.812  14.254   5.881
51302SOL    HW155680   2.882  14.318   5.894
51302SOL    HW255681   2.828  14.187   5.947
51303SOL     OW55682   7.231   7.336   3.971
51303SOL    HW155683   7.318   7.297   3.980
51303SOL    HW255684   7.172   7.261   3.959
51304SOL     OW55685   6.237  13.000   8.419
51304SOL    HW155686   6.311  13.060   8.433
51304SOL    HW255687   6.168  13.034   8.476
51305SOL     OW55688  14.546  14.607   0.028
51305SOL    HW155689  14.483  14.539   0.048
51305SOL    HW255690  14.610  14.565  14.849
51306SOL     OW55691  13.250   4.255   2.696
51306SOL    HW155692  13.211   4.341   2.678
51306SOL    HW255693  13.215   4.230   2.781
51307SOL     OW55694  12.800  13.021   5.704
51307SOL    HW155695  12.879  12.970   5.719
51307SOL    HW255696  12.742  12.999   5.777
51308SOL     OW55697   2.136   2.410   7.185
51308SOL    HW155698   2.207   2.352   7.213
51308SOL    HW255699   2.133   2.478   7.252
51309SOL     OW55700  11.288   1.516  14.493
51309SOL    HW155701  11.347   1.525  14.567
51309SOL    HW255702  11.208   1.479  14.530
51310SOL     OW55703   7.360  11.010  13.685
51310SOL    HW155704   7.293  10.942  13.695
51310SOL    HW255705   7.426  10.969  13.629
51311SOL     OW55706   5.863   0.506   8.039
51311SOL    HW155707   5.931   0.440   8.053
51311SOL    HW255708   5.814   0.474   7.963
51312SOL     OW55709   0.271  12.028  10.149
51312SOL    HW155710   0.349  11.998  10.101
51312SOL    HW255711   0.207  11.957  10.137
51313SOL     OW55712   7.989   3.794   3.694
51313SOL    HW155713   8.035   3.860   3.745
51313SOL    HW255714   7.933   3.844   3.634
51314SOL     OW55715  10.047   9.499   4.480
51314SOL    HW155716  10.112   9.462   4.421
51314SOL    HW255717  10.024   9.426   4.538
51315SOL     OW55718   3.063   2.865   6.798
51315SOL    HW155719   3.146   2.818   6.789
51315SOL    HW255720   3.079   2.949   6.755
51316SOL     OW55721   4.484   5.478   6.508
51316SOL    HW155722   4.515   5.539   6.575
51316SOL    HW255723   4.544   5.492   6.434
51317SOL     OW55724   8.054  13.625  11.448
51317SOL    HW155725   7.968  13.592  11.424
51317SOL    HW255726   8.049  13.642  11.542
51318SOL     OW55727   8.074   4.738   7.693
51318SOL    HW155728   7.990   4.718   7.734
51318SOL    HW255729   8.113   4.652   7.677
51319SOL     OW55730   8.155  13.368  12.953
51319SOL    HW155731   8.234  13.333  12.910
51319SOL    HW255732   8.139  13.451  12.909
51320SOL     OW55733   4.283   0.284  14.294
51320SOL    HW155734   4.350   0.342  14.329
51320SOL    HW255735   4.266   0.221  14.364
51321SOL     OW55736   0.593  13.293   1.846
51321SOL    HW155737   0.520  13.277   1.905
51321SOL    HW255738   0.628  13.205   1.828
51322SOL     OW55739   8.568   2.026  11.825
51322SOL    HW155740   8.611   2.045  11.741
51322SOL    HW255741   8.607   1.943  11.854
51323SOL     OW55742   2.840   2.070   8.216
51323SOL    HW155743   2.908   2.005   8.198
51323SOL    HW255744   2.828   2.116   8.133
51324SOL     OW55745  14.598   5.202  10.677
51324SOL    HW155746  14.566   5.286  10.711
51324SOL    HW255747  14.521   5.162  10.635
51325SOL     OW55748   4.995   9.728  13.921
51325SOL    HW155749   4.912   9.686  13.900
51325SOL    HW255750   5.041   9.732  13.837
51326SOL     OW55751   3.667   7.124   3.470
51326SOL    HW155752   3.712   7.182   3.532
51326SOL    HW255753   3.717   7.043   3.472
51327SOL     OW55754   2.207  13.925   6.226
51327SOL    HW155755   2.258  13.998   6.262
51327SOL    HW255756   2.268  13.880   6.168
51328SOL     OW55757  12.502   9.997   5.084
51328SOL    HW155758  12.485   9.955   5.168
51328SOL    HW255759  12.543  10.081   5.107
51329SOL     OW55760  11.357  12.329  13.560
51329SOL    HW155761  11.442  12.287  13.569
51329SOL    HW255762  11.297  12.271  13.608
51330SOL     OW55763  12.381   8.622   3.873
51330SOL    HW155764  12.382   8.677   3.795
51330SOL    HW255765  12.318   8.664   3.932
51331SOL     OW55766   7.618   3.026   3.861
51331SOL    HW155767   7.573   2.973   3.927
51331SOL    HW255768   7.701   3.050   3.902
51332SOL     OW55769   0.246   3.228   9.437
51332SOL    HW155770   0.204   3.313   9.449
51332SOL    HW255771   0.331   3.237   9.479
51333SOL     OW55772  12.334   5.245   8.137
51333SOL    HW155773  12.355   5.222   8.046
51333SOL    HW255774  12.301   5.164   8.175
51334SOL     OW55775  10.257   8.941   5.701
51334SOL    HW155776  10.300   8.878   5.758
51334SOL    HW255777  10.167   8.908   5.692
51335SOL     OW55778  14.277   4.935  13.428
51335SOL    HW155779  14.203   4.877  13.409
51335SOL    HW255780  14.243   5.023  13.416
51336SOL     OW55781  12.763   5.476  11.069
51336SOL    HW155782  12.692   5.429  11.025
51336SOL    HW255783  12.832   5.411  11.080
51337SOL     OW55784   7.231   1.859  13.083
51337SOL    HW155785   7.200   1.769  13.070
51337SOL    HW255786   7.198   1.907  13.007
51338SOL     OW55787  12.422  13.748   1.082
51338SOL    HW155788  12.411  13.691   1.159
51338SOL    HW255789  12.468  13.825   1.116
51339SOL     OW55790   9.976  12.057   9.145
51339SOL    HW155791   9.930  12.075   9.227
51339SOL    HW255792   9.914  12.009   9.091
51340SOL     OW55793   5.995   8.811   9.757
51340SOL    HW155794   5.998   8.770   9.670
51340SOL    HW255795   5.903   8.808   9.781
51341SOL     OW55796  11.671  12.827   5.608
51341SOL    HW155797  11.713  12.766   5.547
51341SOL    HW255798  11.634  12.895   5.552
51342SOL     OW55799  10.708  10.302  10.440
51342SOL    HW155800  10.710  10.211  10.471
51342SOL    HW255801  10.798  10.320  10.413
51343SOL     OW55802   7.285   5.697   7.739
51343SOL    HW155803   7.330   5.633   7.794
51343SOL    HW255804   7.235   5.645   7.676
51344SOL     OW55805   0.738  13.448   8.868
51344SOL    HW155806   0.652  13.413   8.845
51344SOL    HW255807   0.730  13.474   8.960
51345SOL     OW55808  12.709   6.838  12.979
51345SOL    HW155809  12.732   6.892  13.054
51345SOL    HW255810  12.738   6.889  12.903
51346SOL     OW55811   3.425   6.005   5.522
51346SOL    HW155812   3.383   5.920   5.533
51346SOL    HW255813   3.501   6.002   5.579
51347SOL     OW55814   0.037   9.141   9.257
51347SOL    HW155815  14.819   9.133   9.249
51347SOL    HW255816   0.050   9.222   9.307
51348SOL     OW55817   1.687   3.423   2.255
51348SOL    HW155818   1.708   3.516   2.252
51348SOL    HW255819   1.714   3.395   2.343
51349SOL     OW55820   7.962  13.419   7.449
51349SOL    HW155821   7.943  13.505   7.485
51349SOL    HW255822   7.966  13.362   7.526
51350SOL     OW55823  10.674   3.100  13.742
51350SOL    HW155824  10.679   3.190  13.775
51350SOL    HW255825  10.755   3.059  13.772
51351SOL     OW55826   2.589  13.274   5.739
51351SOL    HW155827   2.560  13.285   5.648
51351SOL    HW255828   2.649  13.199   5.735
51352SOL     OW55829   7.989  14.574   3.291
51352SOL    HW155830   8.072  14.551   3.332
51352SOL    HW255831   8.000  14.546   3.200
51353SOL     OW55832   9.583   6.562  12.059
51353SOL    HW155833   9.647   6.514  12.006
51353SOL    HW255834   9.629   6.641  12.086
51354SOL     OW55835  10.552  10.975   6.854
51354SOL    HW155836  10.630  10.923   6.873
51354SOL    HW255837  10.549  11.039   6.925
51355SOL     OW55838   2.735   6.493   4.852
51355SOL    HW155839   2.803   6.557   4.831
51355SOL    HW255840   2.781   6.422   4.897
51356SOL     OW55841   7.884   5.027   1.851
51356SOL    HW155842   7.938   5.085   1.798
51356SOL    HW255843   7.893   4.941   1.809
51357SOL     OW55844  10.376   6.055   9.252
51357SOL    HW155845  10.335   6.141   9.257
51357SOL    HW255846  10.379   6.035   9.159
51358SOL     OW55847   0.518   3.575   7.976
51358SOL    HW155848   0.492   3.591   7.885
51358SOL    HW255849   0.448   3.614   8.028
51359SOL     OW55850   6.291   9.619   4.597
51359SOL    HW155851   6.292   9.538   4.546
51359SOL    HW255852   6.225   9.604   4.665
51360SOL     OW55853   2.218   2.903   8.996
51360SOL    HW155854   2.124   2.892   9.009
51360SOL    HW255855   2.227   2.985   8.948
51361SOL     OW55856  14.591  12.091   0.455
51361SOL    HW155857  14.663  12.152   0.438
51361SOL    HW255858  14.578  12.095   0.549
51362SOL     OW55859   1.272  13.298   8.819
51362SOL    HW155860   1.268  13.344   8.735
51362SOL    HW255861   1.324  13.355   8.875
51363SOL     OW55862   0.225   8.003  13.949
51363SOL    HW155863   0.152   8.061  13.971
51363SOL    HW255864   0.286   8.013  14.022
51364SOL     OW55865   2.843   7.191   1.140
51364SOL    HW155866   2.871   7.282   1.125
51364SOL    HW255867   2.807   7.192   1.228
51365SOL     OW55868   6.853  13.288   0.784
51365SOL    HW155869   6.817  13.334   0.708
51365SOL    HW255870   6.891  13.208   0.748
51366SOL     OW55871  13.811   1.069   9.175
51366SOL    HW155872  13.737   1.015   9.149
51366SOL    HW255873  13.874   1.060   9.104
51367SOL     OW55874   5.674   4.338   2.550
51367SOL    HW155875   5.742   4.400   2.577
51367SOL    HW255876   5.625   4.320   2.630
51368SOL     OW55877  13.089   1.240   5.368
51368SOL    HW155878  13.069   1.229   5.275
51368SOL    HW255879  13.148   1.167   5.389
51369SOL     OW55880   4.552   7.753   4.880
51369SOL    HW155881   4.602   7.774   4.801
51369SOL    HW255882   4.619   7.737   4.947
51370SOL     OW55883   0.699  10.134  12.332
51370SOL    HW155884   0.734  10.206  12.384
51370SOL    HW255885   0.630  10.174  12.278
51371SOL     OW55886  14.564   3.525   9.854
51371SOL    HW155887  14.588   3.444   9.898
51371SOL    HW255888  14.607   3.594   9.904
51372SOL     OW55889   1.987   4.482  12.764
51372SOL    HW155890   2.039   4.555  12.732
51372SOL    HW255891   1.897   4.515  12.764
51373SOL     OW55892   4.746   4.055   5.516
51373SOL    HW155893   4.761   4.131   5.459
51373SOL    HW255894   4.768   3.980   5.462
51374SOL     OW55895   3.469   9.578   9.177
51374SOL    HW155896   3.437   9.651   9.124
51374SOL    HW255897   3.390   9.533   9.207
51375SOL     OW55898   3.943   9.849  14.599
51375SOL    HW155899   3.923   9.942  14.606
51375SOL    HW255900   3.929   9.815  14.687
51376SOL     OW55901   5.695   7.226   5.656
51376SOL    HW155902   5.732   7.143   5.627
51376SOL    HW255903   5.695   7.221   5.752
51377SOL     OW55904   7.330  11.647   6.809
51377SOL    HW155905   7.347  11.739   6.827
51377SOL    HW255906   7.374  11.630   6.726
51378SOL     OW55907   6.865   0.055   1.231
51378SOL    HW155908   6.814   0.057   1.312
51378SOL    HW255909   6.954   0.077   1.257
51379SOL     OW55910   6.857   9.255   4.194
51379SOL    HW155911   6.943   9.270   4.234
51379SOL    HW255912   6.868   9.173   4.145
51380SOL     OW55913  14.165  12.949   7.388
51380SOL    HW155914  14.127  12.861   7.389
51380SOL    HW255915  14.160  12.979   7.478
51381SOL     OW55916   5.332   4.057   9.625
51381SOL    HW155917   5.353   4.144   9.660
51381SOL    HW255918   5.277   4.017   9.693
51382SOL     OW55919   8.301   8.441   8.200
51382SOL    HW155920   8.360   8.516   8.214
51382SOL    HW255921   8.349   8.383   8.141
51383SOL     OW55922   2.521   9.636   6.382
51383SOL    HW155923   2.494   9.606   6.469
51383SOL    HW255924   2.449   9.612   6.324
51384SOL     OW55925  10.761  13.250  10.980
51384SOL    HW155926  10.820  13.273  11.051
51384SOL    HW255927  10.817  13.246  10.902
51385SOL     OW55928  10.163  12.543   3.820
51385SOL    HW155929  10.092  12.600   3.850
51385SOL    HW255930  10.243  12.583   3.855
51386SOL     OW55931   0.465   4.506   7.992
51386SOL    HW155932   0.482   4.414   7.970
51386SOL    HW255933   0.371   4.516   7.983
51387SOL     OW55934   9.015   6.328  10.859
51387SOL    HW155935   9.110   6.333  10.871
51387SOL    HW255936   9.003   6.299  10.768
51388SOL     OW55937   8.632  10.154   1.114
51388SOL    HW155938   8.612  10.201   1.034
51388SOL    HW255939   8.643  10.222   1.181
51389SOL     OW55940  12.367   2.045  10.933
51389SOL    HW155941  12.368   2.114  10.867
51389SOL    HW255942  12.353   2.091  11.016
51390SOL     OW55943   7.148   3.027  10.715
51390SOL    HW155944   7.124   2.943  10.675
51390SOL    HW255945   7.091   3.091  10.672
51391SOL     OW55946   6.067  13.748   1.710
51391SOL    HW155947   6.033  13.787   1.790
51391SOL    HW255948   6.113  13.820   1.666
51392SOL     OW55949  12.524   9.943  13.658
51392SOL    HW155950  12.553   9.864  13.704
51392SOL    HW255951  12.434   9.923  13.631
51393SOL     OW55952   3.062   8.203   4.125
51393SOL    HW155953   3.040   8.285   4.081
51393SOL    HW255954   3.123   8.160   4.065
51394SOL     OW55955   0.441  11.242  11.924
51394SOL    HW155956   0.373  11.307  11.943
51394SOL    HW255957   0.520  11.276  11.966
51395SOL     OW55958   9.669   5.690   2.199
51395SOL    HW155959   9.634   5.721   2.116
51395SOL    HW255960   9.595   5.696   2.260
51396SOL     OW55961   7.286   8.079  14.479
51396SOL    HW155962   7.203   8.072  14.528
51396SOL    HW255963   7.299   7.991  14.444
51397SOL     OW55964   3.672   5.102  11.630
51397SOL    HW155965   3.629   5.181  11.661
51397SOL    HW255966   3.765   5.123  11.631
51398SOL     OW55967  10.031   1.246   9.604
51398SOL    HW155968  10.117   1.203   9.603
51398SOL    HW255969  10.052   1.339   9.613
51399SOL     OW55970   6.529   8.322  10.175
51399SOL    HW155971   6.467   8.306  10.104
51399SOL    HW255972   6.560   8.234  10.199
51400SOL     OW55973   5.947   3.639   7.351
51400SOL    HW155974   5.878   3.701   7.325
51400SOL    HW255975   5.991   3.616   7.269
51401SOL     OW55976   4.250   6.911  14.526
51401SOL    HW155977   4.314   6.972  14.489
51401SOL    HW255978   4.280   6.825  14.498
51402SOL     OW55979  11.271   1.982  11.710
51402SOL    HW155980  11.233   1.917  11.768
51402SOL    HW255981  11.362   1.955  11.700
51403SOL     OW55982  13.782   8.089   2.621
51403SOL    HW155983  13.771   8.181   2.645
51403SOL    HW255984  13.800   8.091   2.527
51404SOL     OW55985  10.906   0.980   8.672
51404SOL    HW155986  10.864   0.948   8.752
51404SOL    HW255987  10.963   0.907   8.645
51405SOL     OW55988   5.758  11.325  11.295
51405SOL    HW155989   5.742  11.363  11.381
51405SOL    HW255990   5.812  11.391  11.250
51406SOL     OW55991  12.343   7.905   0.131
51406SOL    HW155992  12.271   7.848   0.158
51406SOL    HW255993  12.301   7.973   0.078
51407SOL     OW55994   6.167  11.674   7.020
51407SOL    HW155995   6.179  11.677   7.115
51407SOL    HW255996   6.082  11.716   7.006
51408SOL     OW55997   0.726  12.329   4.290
51408SOL    HW155998   0.636  12.356   4.270
51408SOL    HW255999   0.755  12.284   4.211
51409SOL     OW56000   1.026  13.310  13.182
51409SOL    HW156001   0.988  13.296  13.096
51409SOL    HW256002   1.032  13.405  13.191
51410SOL     OW56003  10.024   1.191   1.829
51410SOL    HW156004  10.106   1.216   1.871
51410SOL    HW256005   9.998   1.110   1.873
51411SOL     OW56006   8.210   0.965   7.790
51411SOL    HW156007   8.173   0.877   7.789
51411SOL    HW256008   8.168   1.009   7.716
51412SOL     OW56009   1.512   3.956   8.628
51412SOL    HW156010   1.499   3.949   8.723
51412SOL    HW256011   1.444   4.017   8.599
51413SOL     OW56012   2.236  14.388   4.630
51413SOL    HW156013   2.282  14.324   4.684
51413SOL    HW256014   2.299  14.458   4.616
51414SOL     OW56015   8.681   7.920   2.392
51414SOL    HW156016   8.638   7.996   2.354
51414SOL    HW256017   8.768   7.919   2.353
51415SOL     OW56018   3.814   8.327  12.095
51415SOL    HW156019   3.890   8.289  12.051
51415SOL    HW256020   3.744   8.263  12.083
51416SOL     OW56021   3.514  14.603   2.894
51416SOL    HW156022   3.567  14.654   2.956
51416SOL    HW256023   3.427  14.602   2.933
51417SOL     OW56024   7.949   5.350  11.774
51417SOL    HW156025   8.031   5.303  11.791
51417SOL    HW256026   7.891   5.283  11.738
51418SOL     OW56027  11.469  11.006  11.435
51418SOL    HW156028  11.487  11.027  11.343
51418SOL    HW256029  11.546  11.037  11.483
51419SOL     OW56030   2.756  12.654   2.558
51419SOL    HW156031   2.681  12.640   2.500
51419SOL    HW256032   2.833  12.642   2.502
51420SOL     OW56033   2.138   4.227   8.412
51420SOL    HW156034   2.150   4.278   8.332
51420SOL    HW256035   2.060   4.265   8.453
51421SOL     OW56036  12.256   2.785   9.124
51421SOL    HW156037  12.207   2.767   9.045
51421SOL    HW256038  12.191   2.785   9.194
51422SOL     OW56039   3.957   1.793   3.198
51422SOL    HW156040   4.032   1.773   3.142
51422SOL    HW256041   3.992   1.786   3.287
51423SOL     OW56042   3.034  12.009   8.143
51423SOL    HW156043   3.102  12.071   8.170
51423SOL    HW256044   2.960  12.063   8.117
51424SOL     OW56045  11.793   2.920   4.764
51424SOL    HW156046  11.823   2.846   4.816
51424SOL    HW256047  11.803   2.892   4.673
51425SOL     OW56048   5.388   2.627   7.585
51425SOL    HW156049   5.329   2.602   7.656
51425SOL    HW256050   5.447   2.691   7.624
51426SOL     OW56051  13.396   2.328   3.620
51426SOL    HW156052  13.315   2.321   3.568
51426SOL    HW256053  13.392   2.415   3.660
51427SOL     OW56054   7.941   5.049   6.039
51427SOL    HW156055   7.958   4.986   5.968
51427SOL    HW256056   7.879   5.111   6.001
51428SOL     OW56057   0.030  10.729   3.475
51428SOL    HW156058  14.870  10.744   3.562
51428SOL    HW256059   0.020  10.813   3.430
51429SOL     OW56060  12.702   9.848  13.309
51429SOL    HW156061  12.777   9.839  13.251
51429SOL    HW256062  12.670   9.937  13.294
51430SOL     OW56063  13.734  10.614   3.225
51430SOL    HW156064  13.764  10.703   3.205
51430SOL    HW256065  13.700  10.620   3.314
51431SOL     OW56066   8.500   9.931  12.581
51431SOL    HW156067   8.426   9.989  12.564
51431SOL    HW256068   8.490   9.905  12.673
51432SOL     OW56069  12.908   3.893   8.421
51432SOL    HW156070  12.928   3.931   8.336
51432SOL    HW256071  12.991   3.858   8.452
51433SOL     OW56072   4.641   8.507   0.634
51433SOL    HW156073   4.696   8.433   0.605
51433SOL    HW256074   4.702   8.581   0.639
51434SOL     OW56075   8.994   0.324   8.860
51434SOL    HW156076   9.073   0.377   8.855
51434SOL    HW256077   8.966   0.330   8.952
51435SOL     OW56078  14.849   8.521  11.595
51435SOL    HW156079  14.829   8.493  11.685
51435SOL    HW256080  14.867   8.614  11.602
51436SOL     OW56081  11.799  13.579   2.897
51436SOL    HW156082  11.783  13.661   2.943
51436SOL    HW256083  11.890  13.583   2.870
51437SOL     OW56084   5.530   1.245  10.686
51437SOL    HW156085   5.502   1.217  10.599
51437SOL    HW256086   5.462   1.305  10.715
51438SOL     OW56087   4.281  10.463  12.842
51438SOL    HW156088   4.253  10.452  12.933
51438SOL    HW256089   4.374  10.443  12.842
51439SOL     OW56090   7.650   8.348   0.108
51439SOL    HW156091   7.722   8.403   0.139
51439SOL    HW256092   7.579   8.410   0.092
51440SOL     OW56093   7.775  11.371  12.674
51440SOL    HW156094   7.862  11.347  12.707
51440SOL    HW256095   7.768  11.327  12.590
51441SOL     OW56096   2.577   6.119  13.775
51441SOL    HW156097   2.529   6.081  13.848
51441SOL    HW256098   2.598   6.044  13.719
51442SOL     OW56099   2.425   0.822   2.618
51442SOL    HW156100   2.374   0.897   2.649
51442SOL    HW256101   2.511   0.834   2.657
51443SOL     OW56102  11.755   4.571  11.125
51443SOL    HW156103  11.745   4.661  11.157
51443SOL    HW256104  11.838   4.542  11.164
51444SOL     OW56105   5.312   7.103   3.510
51444SOL    HW156106   5.256   7.120   3.434
51444SOL    HW256107   5.354   7.187   3.527
51445SOL     OW56108  12.407   0.539  10.538
51445SOL    HW156109  12.329   0.551  10.593
51445SOL    HW256110  12.472   0.501  10.596
51446SOL     OW56111  14.476   1.500   9.788
51446SOL    HW156112  14.413   1.431   9.808
51446SOL    HW256113  14.473   1.508   9.693
51447SOL     OW56114  10.668   1.351  14.040
51447SOL    HW156115  10.585   1.381  14.003
51447SOL    HW256116  10.723   1.332  13.964
51448SOL     OW56117   7.491  14.476   1.379
51448SOL    HW156118   7.421  14.436   1.430
51448SOL    HW256119   7.454  14.488   1.292
51449SOL     OW56120   6.576   6.837   8.042
51449SOL    HW156121   6.634   6.815   8.114
51449SOL    HW256122   6.606   6.923   8.011
51450SOL     OW56123   5.030   0.732   4.708
51450SOL    HW156124   5.046   0.686   4.791
51450SOL    HW256125   5.040   0.824   4.729
51451SOL     OW56126   2.588  12.647   6.894
51451SOL    HW156127   2.618  12.587   6.962
51451SOL    HW256128   2.544  12.718   6.941
51452SOL     OW56129  14.446   6.210   9.510
51452SOL    HW156130  14.434   6.241   9.599
51452SOL    HW256131  14.359   6.212   9.471
51453SOL     OW56132  10.819   5.644   3.815
51453SOL    HW156133  10.770   5.619   3.894
51453SOL    HW256134  10.903   5.600   3.824
51454SOL     OW56135   7.995  13.131   4.883
51454SOL    HW156136   8.010  13.208   4.939
51454SOL    HW256137   7.918  13.153   4.831
51455SOL     OW56138  12.933   2.227   6.009
51455SOL    HW156139  12.902   2.304   6.057
51455SOL    HW256140  12.921   2.155   6.071
51456SOL     OW56141  14.001   8.976  14.675
51456SOL    HW156142  13.973   9.068  14.668
51456SOL    HW256143  14.037   8.956  14.589
51457SOL     OW56144  11.803  12.332  12.733
51457SOL    HW156145  11.728  12.392  12.729
51457SOL    HW256146  11.865  12.374  12.793
51458SOL     OW56147   9.985  13.631   2.610
51458SOL    HW156148   9.896  13.642   2.643
51458SOL    HW256149   9.983  13.669   2.522
51459SOL     OW56150   7.857  11.880   3.084
51459SOL    HW156151   7.945  11.890   3.120
51459SOL    HW256152   7.866  11.905   2.992
51460SOL     OW56153   4.084  10.789  12.873
51460SOL    HW156154   4.086  10.807  12.967
51460SOL    HW256155   4.082  10.694  12.867
51461SOL     OW56156   0.468   9.385  10.833
51461SOL    HW156157   0.455   9.480  10.828
51461SOL    HW256158   0.551   9.370  10.787
51462SOL     OW56159   5.531   8.056   6.996
51462SOL    HW156160   5.539   8.140   7.041
51462SOL    HW256161   5.558   7.992   7.062
51463SOL     OW56162  10.042   5.503  13.322
51463SOL    HW156163  10.098   5.566  13.277
51463SOL    HW256164   9.960   5.551  13.337
51464SOL     OW56165   6.442   4.944   6.227
51464SOL    HW156166   6.455   5.032   6.191
51464SOL    HW256167   6.445   4.886   6.150
51465SOL     OW56168  12.641  12.549   7.621
51465SOL    HW156169  12.704  12.577   7.555
51465SOL    HW256170  12.684  12.568   7.705
51466SOL     OW56171   6.767   3.661   0.062
51466SOL    HW156172   6.861   3.640   0.062
51466SOL    HW256173   6.756   3.715   0.140
51467SOL     OW56174   4.011   7.563   2.568
51467SOL    HW156175   4.021   7.657   2.554
51467SOL    HW256176   3.939   7.538   2.510
51468SOL     OW56177   6.216   0.081  12.867
51468SOL    HW156178   6.250   0.089  12.956
51468SOL    HW256179   6.184   0.168  12.845
51469SOL     OW56180   4.818  10.580  13.749
51469SOL    HW156181   4.785  10.669  13.742
51469SOL    HW256182   4.746  10.532  13.791
51470SOL     OW56183   0.915  12.693   6.132
51470SOL    HW156184   0.876  12.665   6.050
51470SOL    HW256185   0.847  12.674   6.198
51471SOL     OW56186   9.853  11.924   2.530
51471SOL    HW156187   9.873  11.870   2.453
51471SOL    HW256188   9.913  11.998   2.523
51472SOL     OW56189  13.864   7.711   2.498
51472SOL    HW156190  13.927   7.783   2.506
51472SOL    HW256191  13.803   7.725   2.571
51473SOL     OW56192   6.179  13.979  11.071
51473SOL    HW156193   6.094  14.021  11.059
51473SOL    HW256194   6.238  14.051  11.091
51474SOL     OW56195   5.673   9.685   4.981
51474SOL    HW156196   5.584   9.720   4.978
51474SOL    HW256197   5.669   9.613   5.043
51475SOL     OW56198   0.540   5.889  10.481
51475SOL    HW156199   0.562   5.798  10.500
51475SOL    HW256200   0.475   5.912  10.547
51476SOL     OW56201   2.568   8.231  11.962
51476SOL    HW156202   2.650   8.280  11.962
51476SOL    HW256203   2.503   8.293  11.928
51477SOL     OW56204  11.842   9.807   0.114
51477SOL    HW156205  11.781   9.867   0.158
51477SOL    HW256206  11.786   9.751   0.060
51478SOL     OW56207   3.154   1.532  11.411
51478SOL    HW156208   3.081   1.496  11.360
51478SOL    HW256209   3.197   1.456  11.449
51479SOL     OW56210   6.967  11.303   0.476
51479SOL    HW156211   7.040  11.306   0.414
51479SOL    HW256212   6.944  11.210   0.482
51480SOL     OW56213  12.036   3.801   8.616
51480SOL    HW156214  11.942   3.806   8.631
51480SOL    HW256215  12.046   3.743   8.540
51481SOL     OW56216  13.465   8.687  12.896
51481SOL    HW156217  13.541   8.659  12.846
51481SOL    HW256218  13.501   8.736  12.970
51482SOL     OW56219  14.417   1.116  11.074
51482SOL    HW156220  14.354   1.060  11.119
51482SOL    HW256221  14.373   1.141  10.993
51483SOL     OW56222  12.207   5.776   8.925
51483SOL    HW156223  12.171   5.750   9.010
51483SOL    HW256224  12.190   5.702   8.868
51484SOL     OW56225   4.476  10.830   7.569
51484SOL    HW156226   4.553  10.883   7.589
51484SOL    HW256227   4.497  10.743   7.604
51485SOL     OW56228   5.115   1.631   5.711
51485SOL    HW156229   5.079   1.665   5.793
51485SOL    HW256230   5.207   1.658   5.713
51486SOL     OW56231  12.466   7.661   3.516
51486SOL    HW156232  12.401   7.726   3.544
51486SOL    HW256233  12.465   7.667   3.420
51487SOL     OW56234   9.559  12.784   2.757
51487SOL    HW156235   9.565  12.803   2.851
51487SOL    HW256236   9.621  12.711   2.744
51488SOL     OW56237   7.802   5.170   7.974
51488SOL    HW156238   7.831   5.251   8.018
51488SOL    HW256239   7.742   5.201   7.906
51489SOL     OW56240  12.582  12.102  11.570
51489SOL    HW156241  12.645  12.067  11.507
51489SOL    HW256242  12.547  12.180  11.529
51490SOL     OW56243   4.300  11.937   4.042
51490SOL    HW156244   4.264  11.867   3.988
51490SOL    HW256245   4.378  11.967   3.996
51491SOL     OW56246  10.291   6.092   3.116
51491SOL    HW156247  10.202   6.119   3.094
51491SOL    HW256248  10.347   6.161   3.080
51492SOL     OW56249   2.196  12.058  11.281
51492SOL    HW156250   2.107  12.072  11.248
51492SOL    HW256251   2.252  12.071  11.204
51493SOL     OW56252   7.540  13.365  13.059
51493SOL    HW156253   7.467  13.427  13.061
51493SOL    HW256254   7.560  13.354  12.966
51494SOL     OW56255   3.432   2.127   7.527
51494SOL    HW156256   3.447   2.115   7.433
51494SOL    HW256257   3.401   2.217   7.535
51495SOL     OW56258  11.559  11.448  14.448
51495SOL    HW156259  11.530  11.370  14.496
51495SOL    HW256260  11.593  11.414  14.365
51496SOL     OW56261  13.439  11.764  13.688
51496SOL    HW156262  13.429  11.740  13.596
51496SOL    HW256263  13.528  11.799  13.695
51497SOL     OW56264  13.681   4.934  12.965
51497SOL    HW156265  13.749   4.929  13.033
51497SOL    HW256266  13.646   5.022  12.974
51498SOL     OW56267   5.670  12.059  14.469
51498SOL    HW156268   5.741  12.122  14.453
51498SOL    HW256269   5.680  11.994  14.400
51499SOL     OW56270  10.497  11.928   9.268
51499SOL    HW156271  10.425  11.902   9.210
51499SOL    HW256272  10.562  11.967   9.210
51500SOL     OW56273   0.640   6.772   2.493
51500SOL    HW156274   0.573   6.774   2.561
51500SOL    HW256275   0.712   6.723   2.533
51501SOL     OW56276   2.572   0.306  10.366
51501SOL    HW156277   2.553   0.263  10.283
51501SOL    HW256278   2.654   0.354  10.351
51502SOL     OW56279   5.832  12.259   0.901
51502SOL    HW156280   5.904  12.230   0.846
51502SOL    HW256281   5.857  12.347   0.930
51503SOL     OW56282   5.836   0.763   4.216
51503SOL    HW156283   5.881   0.752   4.133
51503SOL    HW256284   5.804   0.675   4.237
51504SOL     OW56285   1.543   7.417   9.373
51504SOL    HW156286   1.477   7.372   9.321
51504SOL    HW256287   1.511   7.507   9.379
51505SOL     OW56288   0.214   3.476  13.759
51505SOL    HW156289   0.289   3.517  13.715
51505SOL    HW256290   0.204   3.527  13.840
51506SOL     OW56291   8.716  12.782   0.303
51506SOL    HW156292   8.727  12.871   0.267
51506SOL    HW256293   8.622  12.774   0.319
51507SOL     OW56294  11.346  11.291   4.125
51507SOL    HW156295  11.260  11.277   4.085
51507SOL    HW256296  11.380  11.368   4.081
51508SOL     OW56297   3.979  13.003   3.688
51508SOL    HW156298   3.975  13.007   3.783
51508SOL    HW256299   4.038  13.074   3.663
51509SOL     OW56300  12.394   5.208   7.222
51509SOL    HW156301  12.333   5.142   7.254
51509SOL    HW256302  12.401   5.192   7.128
51510SOL     OW56303   1.162   0.998   5.567
51510SOL    HW156304   1.245   1.045   5.557
51510SOL    HW256305   1.187   0.915   5.609
51511SOL     OW56306   7.990  13.854   7.355
51511SOL    HW156307   8.055  13.859   7.285
51511SOL    HW256308   7.986  13.943   7.390
51512SOL     OW56309   6.231   2.879   3.974
51512SOL    HW156310   6.236   2.963   4.020
51512SOL    HW256311   6.138   2.865   3.958
51513SOL     OW56312   5.017  10.215   1.885
51513SOL    HW156313   4.986  10.269   1.958
51513SOL    HW256314   5.044  10.277   1.818
51514SOL     OW56315  12.494  14.264   1.841
51514SOL    HW156316  12.561  14.197   1.856
51514SOL    HW256317  12.416  14.229   1.884
51515SOL     OW56318   1.605   3.879  14.553
51515SOL    HW156319   1.692   3.909  14.578
51515SOL    HW256320   1.559   3.865  14.636
51516SOL     OW56321   7.393   3.393   8.893
51516SOL    HW156322   7.451   3.423   8.823
51516SOL    HW256323   7.450   3.387   8.970
51517SOL     OW56324   6.286   3.124   7.769
51517SOL    HW156325   6.364   3.149   7.720
51517SOL    HW256326   6.286   3.181   7.846
51518SOL     OW56327   1.540   8.563   7.643
51518SOL    HW156328   1.528   8.630   7.709
51518SOL    HW256329   1.630   8.533   7.655
51519SOL     OW56330  11.216   7.286   5.903
51519SOL    HW156331  11.200   7.205   5.854
51519SOL    HW256332  11.220   7.355   5.837
51520SOL     OW56333   3.514   6.768   0.570
51520SOL    HW156334   3.588   6.785   0.629
51520SOL    HW256335   3.518   6.673   0.555
51521SOL     OW56336   0.010  12.415   2.481
51521SOL    HW156337  14.818  12.393   2.544
51521SOL    HW256338  14.875  12.508   2.463
51522SOL     OW56339   8.989   2.772   3.833
51522SOL    HW156340   9.033   2.856   3.822
51522SOL    HW256341   9.057   2.714   3.868
51523SOL     OW56342   0.862   1.252  13.708
51523SOL    HW156343   0.867   1.214  13.795
51523SOL    HW256344   0.802   1.326  13.717
51524SOL     OW56345   0.805   8.467   2.081
51524SOL    HW156346   0.741   8.536   2.061
51524SOL    HW256347   0.830   8.432   1.996
51525SOL     OW56348  14.541   3.741   7.121
51525SOL    HW156349  14.571   3.686   7.048
51525SOL    HW256350  14.452   3.711   7.138
51526SOL     OW56351  11.051   4.627   4.769
51526SOL    HW156352  11.094   4.677   4.838
51526SOL    HW256353  11.102   4.547   4.762
51527SOL     OW56354  11.885   2.706   4.965
51527SOL    HW156355  11.963   2.671   5.009
51527SOL    HW256356  11.813   2.683   5.023
51528SOL     OW56357   0.125  12.573   0.781
51528SOL    HW156358   0.157  12.559   0.870
51528SOL    HW256359   0.102  12.486   0.749
51529SOL     OW56360   8.446   8.184   0.218
51529SOL    HW156361   8.517   8.142   0.266
51529SOL    HW256362   8.450   8.276   0.245
51530SOL     OW56363   3.693  12.987  12.027
51530SOL    HW156364   3.735  12.902  12.042
51530SOL    HW256365   3.723  13.041  12.100
51531SOL     OW56366  10.728   9.049  13.743
51531SOL    HW156367  10.736   9.141  13.722
51531SOL    HW256368  10.774   9.040  13.827
51532SOL     OW56369  14.767   0.873   2.251
51532SOL    HW156370  14.729   0.939   2.308
51532SOL    HW256371  14.716   0.794   2.268
51533SOL     OW56372   8.628  13.865   8.341
51533SOL    HW156373   8.640  13.794   8.278
51533SOL    HW256374   8.655  13.827   8.425
51534SOL     OW56375   0.176   6.072   5.432
51534SOL    HW156376   0.237   6.146   5.431
51534SOL    HW256377   0.130   6.081   5.515
51535SOL     OW56378   7.734   0.405  10.478
51535SOL    HW156379   7.723   0.387  10.385
51535SOL    HW256380   7.772   0.493  10.481
51536SOL     OW56381   1.598  13.424   0.165
51536SOL    HW156382   1.626  13.333   0.157
51536SOL    HW256383   1.624  13.450   0.253
51537SOL     OW56384   3.080   0.143  13.116
51537SOL    HW156385   3.113   0.065  13.071
51537SOL    HW256386   3.149   0.208  13.105
51538SOL     OW56387  11.832   6.594  14.810
51538SOL    HW156388  11.890   6.535  14.859
51538SOL    HW256389  11.890   6.636  14.746
51539SOL     OW56390   4.150   1.624   1.543
51539SOL    HW156391   4.108   1.575   1.472
51539SOL    HW256392   4.152   1.561   1.616
51540SOL     OW56393   3.960   0.033  11.358
51540SOL    HW156394   3.906   0.066  11.430
51540SOL    HW256395   3.939  14.817  11.354
51541SOL     OW56396   6.332  11.147   8.953
51541SOL    HW156397   6.425  11.170   8.949
51541SOL    HW256398   6.331  11.051   8.947
51542SOL     OW56399   5.428  12.929   3.881
51542SOL    HW156400   5.500  12.966   3.830
51542SOL    HW256401   5.351  12.937   3.824
51543SOL     OW56402  14.026   7.590   0.155
51543SOL    HW156403  14.120   7.607   0.161
51543SOL    HW256404  13.985   7.662   0.204
51544SOL     OW56405   6.083   8.260  12.507
51544SOL    HW156406   6.028   8.189  12.539
51544SOL    HW256407   6.069   8.331  12.570
51545SOL     OW56408  12.498  12.212   7.412
51545SOL    HW156409  12.447  12.228   7.332
51545SOL    HW256410  12.456  12.267   7.478
51546SOL     OW56411   5.475   8.206   4.693
51546SOL    HW156412   5.550   8.152   4.667
51546SOL    HW256413   5.430   8.225   4.611
51547SOL     OW56414   4.877   4.318   8.488
51547SOL    HW156415   4.935   4.303   8.413
51547SOL    HW256416   4.797   4.354   8.449
51548SOL     OW56417   1.545   2.731   7.467
51548SOL    HW156418   1.622   2.710   7.415
51548SOL    HW256419   1.473   2.688   7.422
51549SOL     OW56420   5.538  11.201  13.893
51549SOL    HW156421   5.583  11.116  13.895
51549SOL    HW256422   5.481  11.199  13.970
51550SOL     OW56423  10.127  13.543  12.155
51550SOL    HW156424  10.124  13.535  12.059
51550SOL    HW256425  10.078  13.623  12.173
51551SOL     OW56426   3.950   8.366   6.092
51551SOL    HW156427   3.978   8.421   6.019
51551SOL    HW256428   4.022   8.305   6.105
51552SOL     OW56429   5.861  12.534   8.540
51552SOL    HW156430   5.772  12.510   8.515
51552SOL    HW256431   5.872  12.623   8.506
51553SOL     OW56432  11.519   8.550   5.951
51553SOL    HW156433  11.611   8.524   5.960
51553SOL    HW256434  11.476   8.473   5.915
51554SOL     OW56435  12.121  11.880  14.555
51554SOL    HW156436  12.111  11.975  14.548
51554SOL    HW256437  12.138  11.852  14.465
51555SOL     OW56438   0.852   5.675   7.019
51555SOL    HW156439   0.943   5.649   7.001
51555SOL    HW256440   0.801   5.597   7.001
51556SOL     OW56441   8.754   8.679   4.346
51556SOL    HW156442   8.782   8.696   4.436
51556SOL    HW256443   8.800   8.745   4.293
51557SOL     OW56444  13.290  12.201  13.746
51557SOL    HW156445  13.220  12.151  13.790
51557SOL    HW256446  13.345  12.232  13.818
51558SOL     OW56447  11.668   1.581   3.398
51558SOL    HW156448  11.606   1.509   3.413
51558SOL    HW256449  11.741   1.562   3.456
51559SOL     OW56450   4.648   1.952   4.595
51559SOL    HW156451   4.567   1.940   4.545
51559SOL    HW256452   4.668   2.046   4.586
51560SOL     OW56453   2.818  12.536  13.904
51560SOL    HW156454   2.750  12.600  13.886
51560SOL    HW256455   2.834  12.493  13.820
51561SOL     OW56456   2.714  14.635   5.705
51561SOL    HW156457   2.726  14.546   5.672
51561SOL    HW256458   2.799  14.677   5.691
51562SOL     OW56459   0.494   7.717   3.737
51562SOL    HW156460   0.582   7.730   3.701
51562SOL    HW256461   0.440   7.698   3.661
51563SOL     OW56462   8.680   5.021   4.582
51563SOL    HW156463   8.622   4.952   4.549
51563SOL    HW256464   8.745   4.974   4.634
51564SOL     OW56465   9.441  12.792   5.953
51564SOL    HW156466   9.491  12.874   5.951
51564SOL    HW256467   9.504  12.727   5.983
51565SOL     OW56468   8.387   9.831  13.552
51565SOL    HW156469   8.391   9.736  13.569
51565SOL    HW256470   8.294   9.852  13.551
51566SOL     OW56471   8.794   0.324  14.183
51566SOL    HW156472   8.828   0.331  14.094
51566SOL    HW256473   8.865   0.282  14.232
51567SOL     OW56474   4.900   9.114   4.745
51567SOL    HW156475   4.989   9.124   4.778
51567SOL    HW256476   4.907   9.124   4.651
51568SOL     OW56477   0.699  11.101   7.416
51568SOL    HW156478   0.637  11.097   7.344
51568SOL    HW256479   0.777  11.055   7.384
51569SOL     OW56480  12.064   7.350   6.779
51569SOL    HW156481  12.016   7.300   6.845
51569SOL    HW256482  12.029   7.320   6.696
51570SOL     OW56483   1.550  14.641   3.917
51570SOL    HW156484   1.488  14.709   3.943
51570SOL    HW256485   1.612  14.685   3.859
51571SOL     OW56486   1.482   5.578  14.846
51571SOL    HW156487   1.494   5.671  14.865
51571SOL    HW256488   1.487   5.571  14.751
51572SOL     OW56489  10.768   7.293   5.531
51572SOL    HW156490  10.808   7.353   5.470
51572SOL    HW256491  10.684   7.269   5.491
51573SOL     OW56492   3.775  11.152   6.731
51573SOL    HW156493   3.800  11.061   6.748
51573SOL    HW256494   3.682  11.156   6.753
51574SOL     OW56495   6.169   4.023   6.926
51574SOL    HW156496   6.108   4.088   6.890
51574SOL    HW256497   6.140   4.010   7.016
51575SOL     OW56498   5.441   4.187   5.610
51575SOL    HW156499   5.498   4.119   5.647
51575SOL    HW256500   5.383   4.211   5.682
51576SOL     OW56501   0.227   0.624  12.638
51576SOL    HW156502   0.208   0.717  12.636
51576SOL    HW256503   0.164   0.587  12.699
51577SOL     OW56504   0.336  14.552   9.177
51577SOL    HW156505   0.317  14.464   9.209
51577SOL    HW256506   0.262  14.574   9.121
51578SOL     OW56507   1.430   7.327   6.004
51578SOL    HW156508   1.475   7.281   6.076
51578SOL    HW256509   1.457   7.279   5.925
51579SOL     OW56510   7.609   2.541   3.300
51579SOL    HW156511   7.621   2.462   3.247
51579SOL    HW256512   7.622   2.613   3.238
51580SOL     OW56513  14.842  12.659  11.572
51580SOL    HW156514  14.747  12.665  11.557
51580SOL    HW256515  14.877  12.626  11.489
51581SOL     OW56516  12.836   7.850   9.661
51581SOL    HW156517  12.753   7.895   9.676
51581SOL    HW256518  12.856   7.807   9.744
51582SOL     OW56519   2.168   5.435   8.166
51582SOL    HW156520   2.132   5.433   8.077
51582SOL    HW256521   2.091   5.423   8.223
51583SOL     OW56522   5.501   6.554   8.984
51583SOL    HW156523   5.552   6.634   8.973
51583SOL    HW256524   5.409   6.583   8.981
51584SOL     OW56525  14.501   1.441   2.602
51584SOL    HW156526  14.512   1.517   2.659
51584SOL    HW256527  14.435   1.388   2.646
51585SOL     OW56528  11.090   3.000   7.896
51585SOL    HW156529  11.074   2.978   7.805
51585SOL    HW256530  11.012   3.050   7.923
51586SOL     OW56531  14.803   7.432  14.591
51586SOL    HW156532  14.761   7.360  14.543
51586SOL    HW256533   0.019   7.413  14.585
51587SOL     OW56534  13.749   5.134  11.708
51587SOL    HW156535  13.708   5.088  11.781
51587SOL    HW256536  13.735   5.227  11.727
51588SOL     OW56537   8.473  10.945   6.141
51588SOL    HW156538   8.542  10.991   6.189
51588SOL    HW256539   8.392  10.975   6.181
51589SOL     OW56540   6.101  13.988  10.748
51589SOL    HW156541   6.087  13.986  10.653
51589SOL    HW256542   6.151  14.067  10.763
51590SOL     OW56543  12.316  12.001   5.043
51590SOL    HW156544  12.389  12.063   5.047
51590SOL    HW256545  12.239  12.056   5.031
51591SOL     OW56546   5.420  11.355  12.308
51591SOL    HW156547   5.442  11.446  12.329
51591SOL    HW256548   5.407  11.355  12.213
51592SOL     OW56549  12.826  14.380  13.903
51592SOL    HW156550  12.890  14.319  13.938
51592SOL    HW256551  12.800  14.433  13.979
51593SOL     OW56552  13.847  10.596   6.768
51593SOL    HW156553  13.876  10.566   6.681
51593SOL    HW256554  13.751  10.593   6.763
51594SOL     OW56555  13.156   0.148   4.585
51594SOL    HW156556  13.193   0.066   4.551
51594SOL    HW256557  13.183   0.215   4.522
51595SOL     OW56558   8.177   4.894   3.785
51595SOL    HW156559   8.196   4.862   3.873
51595SOL    HW256560   8.081   4.894   3.780
51596SOL     OW56561  11.931   3.072   1.287
51596SOL    HW156562  11.848   3.100   1.249
51596SOL    HW256563  11.906   3.002   1.349
51597SOL     OW56564  12.969  12.498   8.055
51597SOL    HW156565  13.040  12.506   7.991
51597SOL    HW256566  12.981  12.411   8.094
51598SOL     OW56567  12.893   0.831   7.852
51598SOL    HW156568  12.855   0.884   7.922
51598SOL    HW256569  12.858   0.869   7.772
51599SOL     OW56570   1.380   9.381  13.721
51599SOL    HW156571   1.431   9.437  13.663
51599SOL    HW256572   1.322   9.331  13.663
51600SOL     OW56573  10.438   9.780   3.002
51600SOL    HW156574  10.352   9.822   2.993
51600SOL    HW256575  10.418   9.690   3.027
51601SOL     OW56576  13.160  13.818   5.269
51601SOL    HW156577  13.109  13.842   5.192
51601SOL    HW256578  13.251  13.826   5.241
51602SOL     OW56579   2.916   2.532   3.445
51602SOL    HW156580   2.964   2.449   3.448
51602SOL    HW256581   2.930   2.564   3.356
51603SOL     OW56582  11.255  12.165   0.412
51603SOL    HW156583  11.306  12.246   0.400
51603SOL    HW256584  11.189  12.189   0.477
51604SOL     OW56585   0.018  13.120  12.216
51604SOL    HW156586  14.801  13.138  12.210
51604SOL    HW256587   0.049  13.124  12.126
51605SOL     OW56588  13.519  12.677   5.376
51605SOL    HW156589  13.494  12.584   5.380
51605SOL    HW256590  13.607  12.679   5.415
51606SOL     OW56591   5.788   0.051  10.217
51606SOL    HW156592   5.812   0.061  10.125
51606SOL    HW256593   5.725  14.857  10.219
51607SOL     OW56594   0.552   2.363  14.209
51607SOL    HW156595   0.634   2.314  14.205
51607SOL    HW256596   0.561   2.419  14.286
51608SOL     OW56597   8.441  12.231   8.595
51608SOL    HW156598   8.423  12.323   8.614
51608SOL    HW256599   8.520  12.233   8.540
51609SOL     OW56600   8.702   5.302   7.229
51609SOL    HW156601   8.707   5.352   7.148
51609SOL    HW256602   8.637   5.348   7.282
51610SOL     OW56603   2.671  10.183   6.320
51610SOL    HW156604   2.627  10.099   6.332
51610SOL    HW256605   2.764  10.161   6.310
51611SOL     OW56606   4.062   6.904   8.839
51611SOL    HW156607   4.158   6.905   8.845
51611SOL    HW256608   4.033   6.874   8.925
51612SOL     OW56609   1.679   2.777   6.508
51612SOL    HW156610   1.656   2.689   6.480
51612SOL    HW256611   1.730   2.764   6.588
51613SOL     OW56612  14.769   5.866  12.246
51613SOL    HW156613  14.725   5.850  12.329
51613SOL    HW256614  14.847   5.916  12.269
51614SOL     OW56615   2.760  12.741   7.250
51614SOL    HW156616   2.671  12.745   7.285
51614SOL    HW256617   2.809  12.690   7.315
51615SOL     OW56618   9.072  10.230   0.521
51615SOL    HW156619   9.077  10.324   0.539
51615SOL    HW256620   9.148  10.212   0.466
51616SOL     OW56621  11.394  10.863   8.050
51616SOL    HW156622  11.455  10.867   8.124
51616SOL    HW256623  11.444  10.822   7.980
51617SOL     OW56624  10.634   3.056   7.758
51617SOL    HW156625  10.651   3.133   7.813
51617SOL    HW256626  10.670   2.982   7.808
51618SOL     OW56627  13.820   5.590   1.453
51618SOL    HW156628  13.897   5.586   1.397
51618SOL    HW256629  13.805   5.500   1.481
51619SOL     OW56630   6.933   8.685   5.459
51619SOL    HW156631   6.997   8.756   5.465
51619SOL    HW256632   6.880   8.707   5.383
51620SOL     OW56633   9.691  11.135  11.774
51620SOL    HW156634   9.699  11.047  11.812
51620SOL    HW256635   9.700  11.121  11.680
51621SOL     OW56636   7.777   7.842  12.038
51621SOL    HW156637   7.747   7.794  12.116
51621SOL    HW256638   7.869   7.814  12.027
51622SOL     OW56639   7.622   3.996  12.528
51622SOL    HW156640   7.695   3.948  12.490
51622SOL    HW256641   7.598   3.946  12.606
51623SOL     OW56642  13.279   9.976   1.279
51623SOL    HW156643  13.237  10.001   1.197
51623SOL    HW256644  13.249  10.042   1.342
51624SOL     OW56645   9.919   9.059   9.024
51624SOL    HW156646   9.889   9.053   9.114
51624SOL    HW256647   9.882   8.982   8.981
51625SOL     OW56648   5.745  11.359   2.029
51625SOL    HW156649   5.827  11.408   2.035
51625SOL    HW256650   5.704  11.391   1.949
51626SOL     OW56651   3.847   2.620   4.924
51626SOL    HW156652   3.830   2.564   4.848
51626SOL    HW256653   3.851   2.708   4.887
51627SOL     OW56654  10.957  10.603  14.139
51627SOL    HW156655  10.882  10.548  14.164
51627SOL    HW256656  10.967  10.664  14.212
51628SOL     OW56657   6.934   8.291   9.283
51628SOL    HW156658   6.942   8.211   9.232
51628SOL    HW256659   7.024   8.317   9.303
51629SOL     OW56660   0.272   2.487   3.022
51629SOL    HW156661   0.337   2.483   3.091
51629SOL    HW256662   0.323   2.488   2.941
51630SOL     OW56663   9.025   8.272  13.783
51630SOL    HW156664   8.979   8.336  13.837
51630SOL    HW256665   8.994   8.290  13.694
51631SOL     OW56666   1.118   3.082  12.962
51631SOL    HW156667   1.146   3.004  12.915
51631SOL    HW256668   1.023   3.074  12.968
51632SOL     OW56669  14.180   0.600   6.439
51632SOL    HW156670  14.254   0.549   6.472
51632SOL    HW256671  14.121   0.608   6.514
51633SOL     OW56672  12.407   7.560   2.975
51633SOL    HW156673  12.428   7.475   2.935
51633SOL    HW256674  12.315   7.575   2.953
51634SOL     OW56675   8.362  13.466   9.158
51634SOL    HW156676   8.450  13.430   9.153
51634SOL    HW256677   8.341  13.465   9.252
51635SOL     OW56678   6.228   4.765   2.569
51635SOL    HW156679   6.224   4.819   2.647
51635SOL    HW256680   6.217   4.826   2.496
51636SOL     OW56681   6.965  13.896   9.720
51636SOL    HW156682   7.049  13.853   9.729
51636SOL    HW256683   6.925  13.890   9.807
51637SOL     OW56684   8.307   2.638   3.765
51637SOL    HW156685   8.314   2.703   3.835
51637SOL    HW256686   8.306   2.554   3.810
51638SOL     OW56687   1.888   1.522   2.758
51638SOL    HW156688   1.967   1.472   2.738
51638SOL    HW256689   1.838   1.465   2.817
51639SOL     OW56690   1.347   2.560   8.460
51639SOL    HW156691   1.381   2.612   8.533
51639SOL    HW256692   1.278   2.506   8.499
51640SOL     OW56693   8.143  13.207   8.542
51640SOL    HW156694   8.180  13.240   8.460
51640SOL    HW256695   8.062  13.163   8.517
51641SOL     OW56696   6.015   4.358   3.164
51641SOL    HW156697   5.947   4.418   3.195
51641SOL    HW256698   5.999   4.277   3.212
51642SOL     OW56699   8.807   7.536   9.847
51642SOL    HW156700   8.792   7.581   9.930
51642SOL    HW256701   8.739   7.569   9.789
51643SOL     OW56702  11.747  14.521   1.260
51643SOL    HW156703  11.801  14.460   1.210
51643SOL    HW256704  11.743  14.483   1.348
51644SOL     OW56705  12.146  14.864   6.324
51644SOL    HW156706  12.143   0.040   6.403
51644SOL    HW256707  12.146   0.049   6.252
51645SOL     OW56708   6.185   6.492  11.072
51645SOL    HW156709   6.162   6.499  11.164
51645SOL    HW256710   6.235   6.410  11.066
51646SOL     OW56711   7.512  12.003   9.545
51646SOL    HW156712   7.585  11.959   9.587
51646SOL    HW256713   7.509  11.967   9.457
51647SOL     OW56714   1.011   3.961   1.255
51647SOL    HW156715   1.064   4.038   1.237
51647SOL    HW256716   1.053   3.919   1.330
51648SOL     OW56717   3.773   7.781   0.970
51648SOL    HW156718   3.798   7.821   1.053
51648SOL    HW256719   3.743   7.854   0.916
51649SOL     OW56720   0.478  13.326   9.488
51649SOL    HW156721   0.458  13.234   9.505
51649SOL    HW256722   0.572  13.334   9.505
51650SOL     OW56723   7.330   7.205   3.121
51650SOL    HW156724   7.374   7.220   3.205
51650SOL    HW256725   7.243   7.243   3.133
51651SOL     OW56726   1.396   4.152   1.813
51651SOL    HW156727   1.397   4.098   1.892
51651SOL    HW256728   1.482   4.138   1.774
51652SOL     OW56729  12.396   7.441  14.558
51652SOL    HW156730  12.360   7.506  14.618
51652SOL    HW256731  12.482   7.420  14.595
51653SOL     OW56732   8.049   1.972   9.964
51653SOL    HW156733   7.955   1.977   9.945
51653SOL    HW256734   8.082   2.059   9.942
51654SOL     OW56735  12.015   0.405   3.716
51654SOL    HW156736  12.022   0.407   3.812
51654SOL    HW256737  12.041   0.316   3.692
51655SOL     OW56738  13.623   3.553  10.357
51655SOL    HW156739  13.690   3.590  10.414
51655SOL    HW256740  13.587   3.479  10.406
51656SOL     OW56741   7.736   8.167   5.163
51656SOL    HW156742   7.715   8.076   5.188
51656SOL    HW256743   7.657   8.216   5.187
51657SOL     OW56744   5.091   5.373  13.880
51657SOL    HW156745   5.152   5.318  13.831
51657SOL    HW256746   5.144   5.414  13.948
51658SOL     OW56747  10.482   7.985  11.582
51658SOL    HW156748  10.496   7.938  11.663
51658SOL    HW256749  10.556   7.960  11.526
51659SOL     OW56750   8.583   3.107   7.185
51659SOL    HW156751   8.560   3.180   7.127
51659SOL    HW256752   8.677   3.096   7.173
51660SOL     OW56753   4.898   2.687  10.049
51660SOL    HW156754   4.920   2.602  10.087
51660SOL    HW256755   4.908   2.675   9.955
51661SOL     OW56756  13.376   7.335   6.528
51661SOL    HW156757  13.282   7.346   6.512
51661SOL    HW256758  13.387   7.241   6.541
51662SOL     OW56759  11.435  11.718   7.047
51662SOL    HW156760  11.428  11.755   6.959
51662SOL    HW256761  11.524  11.739   7.074
51663SOL     OW56762  11.746   6.140  11.660
51663SOL    HW156763  11.761   6.220  11.608
51663SOL    HW256764  11.736   6.172  11.750
51664SOL     OW56765   3.248  11.465   8.492
51664SOL    HW156766   3.279  11.458   8.402
51664SOL    HW256767   3.318  11.425   8.545
51665SOL     OW56768  10.699   0.914   0.302
51665SOL    HW156769  10.722   0.872   0.219
51665SOL    HW256770  10.782   0.932   0.344
51666SOL     OW56771   0.913   7.593   7.287
51666SOL    HW156772   0.928   7.663   7.223
51666SOL    HW256773   0.823   7.605   7.315
51667SOL     OW56774   8.257  13.291  14.863
51667SOL    HW156775   8.313  13.330   0.053
51667SOL    HW256776   8.168  13.304   0.017
51668SOL     OW56777   8.916   6.394   4.845
51668SOL    HW156778   8.889   6.331   4.911
51668SOL    HW256779   8.891   6.479   4.881
51669SOL     OW56780   3.418  13.346   6.383
51669SOL    HW156781   3.479  13.332   6.310
51669SOL    HW256782   3.475  13.361   6.459
51670SOL     OW56783   0.371   2.294  14.411
51670SOL    HW156784   0.409   2.292  14.324
51670SOL    HW256785   0.333   2.207  14.423
51671SOL     OW56786  14.614   0.457   4.340
51671SOL    HW156787  14.649   0.525   4.398
51671SOL    HW256788  14.615   0.497   4.253
51672SOL     OW56789   1.428   4.457  14.795
51672SOL    HW156790   1.381   4.394  14.849
51672SOL    HW256791   1.461   4.522  14.857
51673SOL     OW56792   8.792   0.694   2.403
51673SOL    HW156793   8.807   0.749   2.326
51673SOL    HW256794   8.706   0.720   2.435
51674SOL     OW56795   1.634   3.339  12.681
51674SOL    HW156796   1.664   3.428  12.660
51674SOL    HW256797   1.700   3.282  12.641
51675SOL     OW56798  14.413   7.409   8.897
51675SOL    HW156799  14.465   7.393   8.818
51675SOL    HW256800  14.449   7.490   8.933
51676SOL     OW56801   0.441   2.493   5.816
51676SOL    HW156802   0.404   2.581   5.806
51676SOL    HW256803   0.503   2.485   5.743
51677SOL     OW56804  11.313   3.907  10.090
51677SOL    HW156805  11.397   3.896  10.135
51677SOL    HW256806  11.262   3.964  10.149
51678SOL     OW56807  10.252  11.801   5.825
51678SOL    HW156808  10.188  11.769   5.888
51678SOL    HW256809  10.200  11.834   5.751
51679SOL     OW56810   3.207   1.009   5.201
51679SOL    HW156811   3.148   1.084   5.199
51679SOL    HW256812   3.166   0.946   5.142
51680SOL     OW56813   8.112  13.177  13.138
51680SOL    HW156814   8.105  13.256  13.084
51680SOL    HW256815   8.027  13.169  13.180
51681SOL     OW56816   5.759   9.269  11.417
51681SOL    HW156817   5.744   9.184  11.377
51681SOL    HW256818   5.778   9.249  11.509
51682SOL     OW56819   2.101  12.845  14.464
51682SOL    HW156820   2.168  12.786  14.429
51682SOL    HW256821   2.053  12.791  14.527
51683SOL     OW56822   9.648  10.453   2.179
51683SOL    HW156823   9.684  10.534   2.214
51683SOL    HW256824   9.715  10.422   2.117
51684SOL     OW56825   0.337  13.073   4.443
51684SOL    HW156826   0.338  13.161   4.405
51684SOL    HW256827   0.246  13.060   4.471
51685SOL     OW56828  11.964   1.945   2.889
51685SOL    HW156829  11.963   1.893   2.970
51685SOL    HW256830  11.982   1.882   2.820
51686SOL     OW56831  12.006  12.729   5.092
51686SOL    HW156832  12.067  12.655   5.090
51686SOL    HW256833  11.925  12.694   5.053
51687SOL     OW56834   3.364  12.372   5.868
51687SOL    HW156835   3.376  12.467   5.867
51687SOL    HW256836   3.286  12.358   5.921
51688SOL     OW56837   7.372  12.150  14.685
51688SOL    HW156838   7.324  12.175  14.605
51688SOL    HW256839   7.319  12.079  14.722
51689SOL     OW56840   8.335   4.576   3.842
51689SOL    HW156841   8.285   4.637   3.896
51689SOL    HW256842   8.373   4.630   3.773
51690SOL     OW56843   4.495   9.506   9.484
51690SOL    HW156844   4.562   9.517   9.552
51690SOL    HW256845   4.512   9.576   9.421
51691SOL     OW56846  10.838   9.151  14.109
51691SOL    HW156847  10.863   9.069  14.068
51691SOL    HW256848  10.901   9.215  14.074
51692SOL     OW56849   5.125   8.194   0.366
51692SOL    HW156850   5.172   8.113   0.345
51692SOL    HW256851   5.061   8.168   0.432
51693SOL     OW56852   4.826   8.613   8.443
51693SOL    HW156853   4.839   8.639   8.534
51693SOL    HW256854   4.808   8.519   8.447
51694SOL     OW56855   4.205   0.190  12.300
51694SOL    HW156856   4.114   0.172  12.324
51694SOL    HW256857   4.222   0.132  12.226
51695SOL     OW56858  11.001   6.673   3.984
51695SOL    HW156859  10.929   6.715   3.938
51695SOL    HW256860  11.060   6.744   4.007
51696SOL     OW56861  11.819  13.782   7.487
51696SOL    HW156862  11.895  13.821   7.530
51696SOL    HW256863  11.849  13.694   7.462
51697SOL     OW56864   2.685  14.875  14.304
51697SOL    HW156865   2.764  14.835  14.267
51697SOL    HW256866   2.641   0.038  14.229
51698SOL     OW56867  11.668   7.137   2.176
51698SOL    HW156868  11.674   7.117   2.082
51698SOL    HW256869  11.617   7.064   2.212
51699SOL     OW56870   1.132  14.732   7.561
51699SOL    HW156871   1.145  14.820   7.527
51699SOL    HW256872   1.085  14.686   7.491
51700SOL     OW56873   6.540  12.605  11.184
51700SOL    HW156874   6.562  12.615  11.091
51700SOL    HW256875   6.497  12.520  11.189
51701SOL     OW56876  12.199   3.984   6.943
51701SOL    HW156877  12.249   3.930   7.004
51701SOL    HW256878  12.223   3.951   6.857
51702SOL     OW56879   7.801   4.354   0.573
51702SOL    HW156880   7.848   4.437   0.578
51702SOL    HW256881   7.711   4.378   0.550
51703SOL     OW56882   8.057  12.042   1.951
51703SOL    HW156883   8.110  12.098   2.009
51703SOL    HW256884   8.014  11.980   2.010
51704SOL     OW56885  14.645  14.048   7.138
51704SOL    HW156886  14.714  14.013   7.083
51704SOL    HW256887  14.571  14.060   7.078
51705SOL     OW56888   2.059   4.988  11.573
51705SOL    HW156889   2.030   4.897  11.573
51705SOL    HW256890   2.066   5.011  11.665
51706SOL     OW56891   8.949   1.146   3.195
51706SOL    HW156892   9.004   1.218   3.223
51706SOL    HW256893   8.984   1.069   3.241
51707SOL     OW56894  11.609   2.685  12.733
51707SOL    HW156895  11.544   2.732  12.680
51707SOL    HW256896  11.636   2.612  12.677
51708SOL     OW56897  11.331   8.526   6.220
51708SOL    HW156898  11.338   8.476   6.139
51708SOL    HW256899  11.263   8.591   6.203
51709SOL     OW56900  12.164   2.355   8.465
51709SOL    HW156901  12.187   2.283   8.524
51709SOL    HW256902  12.069   2.365   8.476
51710SOL     OW56903   5.788   8.811  14.131
51710SOL    HW156904   5.736   8.815  14.051
51710SOL    HW256905   5.724   8.818  14.202
51711SOL     OW56906   8.722  10.489   3.946
51711SOL    HW156907   8.802  10.487   3.998
51711SOL    HW256908   8.752  10.479   3.855
51712SOL     OW56909   4.511   3.827  14.345
51712SOL    HW156910   4.511   3.854  14.253
51712SOL    HW256911   4.502   3.909  14.394
51713SOL     OW56912   8.814   9.874   5.596
51713SOL    HW156913   8.859   9.832   5.522
51713SOL    HW256914   8.729   9.831   5.599
51714SOL     OW56915   1.649   4.769  10.788
51714SOL    HW156916   1.655   4.831  10.861
51714SOL    HW256917   1.589   4.701  10.819
51715SOL     OW56918  10.393  14.822   6.768
51715SOL    HW156919  10.483  14.818   6.737
51715SOL    HW256920  10.399  14.801   6.861
51716SOL     OW56921  14.173   9.521   8.072
51716SOL    HW156922  14.153   9.543   8.163
51716SOL    HW256923  14.255   9.566   8.053
51717SOL     OW56924   6.950   2.153   6.378
51717SOL    HW156925   7.037   2.167   6.340
51717SOL    HW256926   6.925   2.065   6.351
51718SOL     OW56927   9.606   7.927   7.216
51718SOL    HW156928   9.574   8.017   7.220
51718SOL    HW256929   9.674   7.923   7.283
51719SOL     OW56930   8.807   7.126   5.742
51719SOL    HW156931   8.818   7.221   5.745
51719SOL    HW256932   8.851   7.099   5.662
51720SOL     OW56933   2.598   5.084  14.701
51720SOL    HW156934   2.639   5.156  14.749
51720SOL    HW256935   2.666   5.053  14.641
51721SOL     OW56936   3.304  13.990  12.396
51721SOL    HW156937   3.271  14.002  12.307
51721SOL    HW256938   3.320  14.079  12.427
51722SOL     OW56939   6.608   9.115   8.941
51722SOL    HW156940   6.577   9.205   8.940
51722SOL    HW256941   6.646   9.102   8.854
51723SOL     OW56942   4.524  14.515   1.797
51723SOL    HW156943   4.589  14.456   1.835
51723SOL    HW256944   4.441  14.487   1.837
51724SOL     OW56945   8.752   7.002   1.668
51724SOL    HW156946   8.696   7.071   1.632
51724SOL    HW256947   8.700   6.964   1.740
51725SOL     OW56948   4.301   6.742   0.200
51725SOL    HW156949   4.392   6.735   0.172
51725SOL    HW256950   4.257   6.669   0.157
51726SOL     OW56951   4.044  13.801  10.929
51726SOL    HW156952   4.111  13.757  10.877
51726SOL    HW256953   3.963  13.753  10.912
51727SOL     OW56954   3.331  13.053  11.768
51727SOL    HW156955   3.245  13.062  11.810
51727SOL    HW256956   3.392  13.043  11.841
51728SOL     OW56957   1.631   5.205   8.954
51728SOL    HW156958   1.550   5.220   9.004
51728SOL    HW256959   1.656   5.115   8.977
51729SOL     OW56960   0.545   9.014   7.957
51729SOL    HW156961   0.582   8.955   7.891
51729SOL    HW256962   0.593   8.995   8.037
51730SOL     OW56963  13.752  10.601  14.798
51730SOL    HW156964  13.702  10.611  14.717
51730SOL    HW256965  13.783  10.510  14.796
51731SOL     OW56966  12.685   2.037   9.914
51731SOL    HW156967  12.777   2.027   9.939
51731SOL    HW256968  12.672   2.131   9.907
51732SOL     OW56969  13.137   5.593   7.088
51732SOL    HW156970  13.050   5.632   7.089
51732SOL    HW256971  13.140   5.539   7.167
51733SOL     OW56972   3.004   9.300   2.423
51733SOL    HW156973   2.908   9.304   2.421
51733SOL    HW256974   3.032   9.387   2.395
51734SOL     OW56975   0.714   4.005   9.010
51734SOL    HW156976   0.714   4.029   9.103
51734SOL    HW256977   0.634   4.045   8.975
51735SOL     OW56978   7.497   3.525   4.766
51735SOL    HW156979   7.579   3.476   4.774
51735SOL    HW256980   7.448   3.478   4.699
51736SOL     OW56981   5.651   0.609   0.641
51736SOL    HW156982   5.586   0.568   0.699
51736SOL    HW256983   5.600   0.669   0.587
51737SOL     OW56984   3.457   4.809  12.947
51737SOL    HW156985   3.502   4.827  13.029
51737SOL    HW256986   3.524   4.773  12.889
51738SOL     OW56987  11.058   4.892  12.101
51738SOL    HW156988  11.075   4.871  12.009
51738SOL    HW256989  10.971   4.931  12.101
51739SOL     OW56990  12.610   4.534  12.606
51739SOL    HW156991  12.660   4.470  12.657
51739SOL    HW256992  12.663   4.614  12.609
51740SOL     OW56993   3.869   2.456   0.943
51740SOL    HW156994   3.789   2.436   0.993
51740SOL    HW256995   3.940   2.425   0.999
51741SOL     OW56996   7.913   4.970  13.283
51741SOL    HW156997   7.835   4.977  13.338
51741SOL    HW256998   7.889   4.907  13.215
51742SOL     OW56999   3.516   1.203   1.451
51742SOL    HW157000   3.423   1.200   1.473
51742SOL    HW257001   3.523   1.149   1.372
51743SOL     OW57002   1.994   3.114   4.133
51743SOL    HW157003   2.042   3.100   4.214
51743SOL    HW257004   1.935   3.039   4.127
51744SOL     OW57005  14.823   7.532   5.584
51744SOL    HW157006  14.785   7.619   5.572
51744SOL    HW257007   0.020   7.530   5.524
51745SOL     OW57008   0.825   5.257   1.612
51745SOL    HW157009   0.783   5.285   1.693
51745SOL    HW257010   0.903   5.210   1.640
51746SOL     OW57011   6.626   9.792  11.557
51746SOL    HW157012   6.712   9.783  11.596
51746SOL    HW257013   6.619   9.718  11.497
51747SOL     OW57014   5.637   5.445  13.676
51747SOL    HW157015   5.661   5.537  13.667
51747SOL    HW257016   5.577   5.443  13.750
51748SOL     OW57017  14.074   4.296   5.130
51748SOL    HW157018  14.026   4.233   5.183
51748SOL    HW257019  14.143   4.328   5.188
51749SOL     OW57020  11.121   4.524   9.147
51749SOL    HW157021  11.192   4.461   9.162
51749SOL    HW257022  11.059   4.508   9.218
51750SOL     OW57023  12.501   6.828  10.380
51750SOL    HW157024  12.502   6.827  10.285
51750SOL    HW257025  12.417   6.868  10.403
51751SOL     OW57026   1.436  10.856  10.797
51751SOL    HW157027   1.522  10.898  10.796
51751SOL    HW257028   1.414  10.845  10.705
51752SOL     OW57029   7.785   2.224  10.697
51752SOL    HW157030   7.723   2.279  10.746
51752SOL    HW257031   7.835   2.285  10.644
51753SOL     OW57032   7.708  11.717  12.611
51753SOL    HW157033   7.766  11.665  12.667
51753SOL    HW257034   7.735  11.695  12.522
51754SOL     OW57035   2.146   1.610   3.288
51754SOL    HW157036   2.052   1.629   3.285
51754SOL    HW257037   2.154   1.522   3.252
51755SOL     OW57038   9.875  12.026   9.961
51755SOL    HW157039   9.943  11.961   9.944
51755SOL    HW257040   9.820  12.023   9.882
51756SOL     OW57041   8.784   9.680  14.778
51756SOL    HW157042   8.694   9.677  14.746
51756SOL    HW257043   8.838   9.657  14.702
51757SOL     OW57044   8.220  12.969   2.881
51757SOL    HW157045   8.179  12.927   2.957
51757SOL    HW257046   8.149  12.981   2.819
51758SOL     OW57047   4.898  13.725   4.754
51758SOL    HW157048   4.805  13.702   4.749
51758SOL    HW257049   4.905  13.806   4.704
51759SOL     OW57050   2.907   6.393   7.568
51759SOL    HW157051   2.813   6.391   7.586
51759SOL    HW257052   2.944   6.442   7.641
51760SOL     OW57053  10.256   2.031  12.194
51760SOL    HW157054  10.281   2.098  12.257
51760SOL    HW257055  10.295   2.059  12.112
51761SOL     OW57056   0.963  13.485   3.061
51761SOL    HW157057   0.959  13.460   3.153
51761SOL    HW257058   0.961  13.580   3.061
51762SOL     OW57059   0.640   1.911   0.742
51762SOL    HW157060   0.633   1.856   0.664
51762SOL    HW257061   0.579   1.870   0.805
51763SOL     OW57062  10.915   8.371  12.068
51763SOL    HW157063  10.890   8.462  12.050
51763SOL    HW257064  10.990   8.378  12.127
51764SOL     OW57065   6.714   3.341  14.314
51764SOL    HW157066   6.747   3.265  14.361
51764SOL    HW257067   6.742   3.416  14.367
51765SOL     OW57068  11.265   6.578  14.038
51765SOL    HW157069  11.311   6.535  13.966
51765SOL    HW257070  11.306   6.664  14.044
51766SOL     OW57071  10.074  12.643   8.609
51766SOL    HW157072  10.151  12.670   8.659
51766SOL    HW257073  10.025  12.723   8.594
51767SOL     OW57074  11.689   9.211  10.956
51767SOL    HW157075  11.598   9.242  10.954
51767SOL    HW257076  11.703   9.186  11.048
51768SOL     OW57077   6.360   2.360  14.322
51768SOL    HW157078   6.431   2.423  14.321
51768SOL    HW257079   6.342   2.342  14.229
51769SOL     OW57080  11.243   2.440   0.464
51769SOL    HW157081  11.298   2.373   0.505
51769SOL    HW257082  11.213   2.495   0.536
51770SOL     OW57083   0.724  11.365   4.234
51770SOL    HW157084   0.715  11.384   4.141
51770SOL    HW257085   0.795  11.301   4.239
51771SOL     OW57086   8.533   8.881  13.855
51771SOL    HW157087   8.484   8.818  13.802
51771SOL    HW257088   8.492   8.877  13.942
51772SOL     OW57089  12.175   2.989   6.999
51772SOL    HW157090  12.103   2.990   7.062
51772SOL    HW257091  12.136   3.024   6.918
51773SOL     OW57092   2.000   7.355   3.263
51773SOL    HW157093   2.053   7.300   3.205
51773SOL    HW257094   1.935   7.395   3.205
51774SOL     OW57095  11.079   5.672   4.770
51774SOL    HW157096  11.128   5.754   4.763
51774SOL    HW257097  10.987   5.699   4.775
51775SOL     OW57098  14.493   3.312   6.601
51775SOL    HW157099  14.445   3.241   6.559
51775SOL    HW257100  14.550   3.347   6.532
51776SOL     OW57101   6.819   3.865   6.272
51776SOL    HW157102   6.736   3.831   6.304
51776SOL    HW257103   6.795   3.945   6.225
51777SOL     OW57104   1.645   2.847   3.475
51777SOL    HW157105   1.614   2.924   3.427
51777SOL    HW257106   1.740   2.850   3.468
51778SOL     OW57107   7.316   8.002  13.464
51778SOL    HW157108   7.406   7.984  13.493
51778SOL    HW257109   7.261   7.970  13.535
51779SOL     OW57110   0.667  10.237   9.265
51779SOL    HW157111   0.763  10.228   9.262
51779SOL    HW257112   0.640  10.184   9.340
51780SOL     OW57113   0.473   7.432   6.346
51780SOL    HW157114   0.483   7.502   6.411
51780SOL    HW257115   0.418   7.367   6.389
51781SOL     OW57116  13.294   8.385  14.145
51781SOL    HW157117  13.267   8.339  14.225
51781SOL    HW257118  13.287   8.318  14.077
51782SOL     OW57119   6.104   0.356   4.315
51782SOL    HW157120   6.034   0.346   4.380
51782SOL    HW257121   6.185   0.340   4.364
51783SOL     OW57122   6.441   2.475   2.611
51783SOL    HW157123   6.533   2.496   2.623
51783SOL    HW257124   6.398   2.559   2.598
51784SOL     OW57125  11.966   2.688  11.594
51784SOL    HW157126  11.914   2.766  11.615
51784SOL    HW257127  11.904   2.615  11.602
51785SOL     OW57128  11.660  11.832   1.585
51785SOL    HW157129  11.747  11.797   1.605
51785SOL    HW257130  11.606  11.805   1.660
51786SOL     OW57131   8.323  11.065   7.658
51786SOL    HW157132   8.312  11.158   7.680
51786SOL    HW257133   8.356  11.066   7.568
51787SOL     OW57134   9.374   7.263   0.224
51787SOL    HW157135   9.395   7.267   0.130
51787SOL    HW257136   9.278   7.252   0.226
51788SOL     OW57137   0.410   8.049   5.558
51788SOL    HW157138   0.351   8.125   5.553
51788SOL    HW257139   0.480   8.078   5.617
51789SOL     OW57140  10.359   9.760  10.873
51789SOL    HW157141  10.356   9.705  10.952
51789SOL    HW257142  10.391   9.702  10.804
51790SOL     OW57143   1.365   4.555   7.676
51790SOL    HW157144   1.457   4.583   7.668
51790SOL    HW257145   1.360   4.475   7.624
51791SOL     OW57146   4.028   5.361   5.041
51791SOL    HW157147   4.111   5.331   5.078
51791SOL    HW257148   3.969   5.287   5.052
51792SOL     OW57149   2.201   4.603   4.886
51792SOL    HW157150   2.146   4.531   4.856
51792SOL    HW257151   2.161   4.632   4.968
51793SOL     OW57152   1.235   7.091  13.749
51793SOL    HW157153   1.184   7.055  13.676
51793SOL    HW257154   1.242   7.018  13.811
51794SOL     OW57155   2.726  14.277   0.648
51794SOL    HW157156   2.783  14.352   0.628
51794SOL    HW257157   2.641  14.302   0.614
51795SOL     OW57158   5.745  14.377   2.072
51795SOL    HW157159   5.705  14.374   1.986
51795SOL    HW257160   5.712  14.457   2.112
51796SOL     OW57161  13.241   2.209   7.458
51796SOL    HW157162  13.148   2.188   7.456
51796SOL    HW257163  13.285   2.125   7.452
51797SOL     OW57164   6.239   8.156   2.110
51797SOL    HW157165   6.249   8.154   2.015
51797SOL    HW257166   6.276   8.073   2.140
51798SOL     OW57167   2.181   9.082   9.387
51798SOL    HW157168   2.260   9.060   9.338
51798SOL    HW257169   2.116   9.019   9.357
51799SOL     OW57170   3.414   4.165   0.106
51799SOL    HW157171   3.423   4.234   0.041
51799SOL    HW257172   3.486   4.180   0.167
51800SOL     OW57173   8.073  11.598   3.319
51800SOL    HW157174   8.087  11.693   3.321
51800SOL    HW257175   8.131  11.567   3.249
51801SOL     OW57176  10.648   4.210   4.689
51801SOL    HW157177  10.673   4.119   4.672
51801SOL    HW257178  10.710   4.240   4.755
51802SOL     OW57179   3.706   3.312  14.802
51802SOL    HW157180   3.801   3.300  14.798
51802SOL    HW257181   3.671   3.227  14.778
51803SOL     OW57182   0.846  10.334   3.421
51803SOL    HW157183   0.913  10.296   3.478
51803SOL    HW257184   0.763  10.315   3.466
51804SOL     OW57185  14.152  11.449  12.484
51804SOL    HW157186  14.161  11.506  12.561
51804SOL    HW257187  14.215  11.485  12.421
51805SOL     OW57188  14.771  10.450   3.981
51805SOL    HW157189  14.847  10.442   3.924
51805SOL    HW257190  14.758  10.545   3.991
51806SOL     OW57191   5.224   0.579   0.291
51806SOL    HW157192   5.242   0.655   0.347
51806SOL    HW257193   5.301   0.523   0.304
51807SOL     OW57194   6.871   8.782   9.735
51807SOL    HW157195   6.778   8.797   9.753
51807SOL    HW257196   6.890   8.698   9.777
51808SOL     OW57197   1.269   1.443  11.545
51808SOL    HW157198   1.222   1.365  11.575
51808SOL    HW257199   1.355   1.411  11.519
51809SOL     OW57200   3.932   2.506   9.822
51809SOL    HW157201   3.893   2.437   9.876
51809SOL    HW257202   3.935   2.583   9.879
51810SOL     OW57203  14.656   0.580   0.599
51810SOL    HW157204  14.614   0.649   0.651
51810SOL    HW257205  14.619   0.499   0.632
51811SOL     OW57206   6.165   3.207   9.125
51811SOL    HW157207   6.231   3.179   9.188
51811SOL    HW257208   6.176   3.302   9.119
51812SOL     OW57209   8.077   0.195   9.535
51812SOL    HW157210   8.068   0.101   9.518
51812SOL    HW257211   8.077   0.202   9.630
51813SOL     OW57212  12.623   9.316   2.357
51813SOL    HW157213  12.596   9.254   2.425
51813SOL    HW257214  12.695   9.271   2.312
51814SOL     OW57215   8.668   6.857   8.913
51814SOL    HW157216   8.609   6.923   8.949
51814SOL    HW257217   8.719   6.827   8.989
51815SOL     OW57218  11.660   2.068  14.164
51815SOL    HW157219  11.620   2.122  14.232
51815SOL    HW257220  11.653   1.979  14.197
51816SOL     OW57221   0.972  13.286  12.668
51816SOL    HW157222   0.977  13.214  12.605
51816SOL    HW257223   0.981  13.365  12.614
51817SOL     OW57224   6.915  11.522   4.723
51817SOL    HW157225   6.863  11.456   4.769
51817SOL    HW257226   6.849  11.580   4.684
51818SOL     OW57227  13.285   8.982   7.769
51818SOL    HW157228  13.252   8.910   7.821
51818SOL    HW257229  13.380   8.977   7.778
51819SOL     OW57230   5.575   2.833   6.032
51819SOL    HW157231   5.532   2.875   5.958
51819SOL    HW257232   5.597   2.905   6.091
51820SOL     OW57233   5.620   9.800  14.634
51820SOL    HW157234   5.615   9.853  14.555
51820SOL    HW257235   5.650   9.714  14.603
51821SOL     OW57236   1.000   0.706   9.495
51821SOL    HW157237   1.048   0.725   9.576
51821SOL    HW257238   0.921   0.759   9.500
51822SOL     OW57239  12.829  10.754   9.862
51822SOL    HW157240  12.742  10.726   9.834
51822SOL    HW257241  12.858  10.686   9.923
51823SOL     OW57242   7.922   8.173   7.108
51823SOL    HW157243   7.975   8.250   7.129
51823SOL    HW257244   7.837   8.208   7.083
51824SOL     OW57245   2.368   3.059   9.625
51824SOL    HW157246   2.339   2.990   9.565
51824SOL    HW257247   2.343   3.028   9.712
51825SOL     OW57248   8.860   5.235   5.353
51825SOL    HW157249   8.805   5.172   5.400
51825SOL    HW257250   8.927   5.261   5.416
51826SOL     OW57251   4.371   0.133  14.788
51826SOL    HW157252   4.405   0.044  14.801
51826SOL    HW257253   4.322   0.152  14.867
51827SOL     OW57254   9.558   2.518   4.403
51827SOL    HW157255   9.530   2.466   4.328
51827SOL    HW257256   9.633   2.470   4.439
51828SOL     OW57257  14.669   1.539   9.970
51828SOL    HW157258  14.607   1.563  10.038
51828SOL    HW257259  14.615   1.507   9.898
51829SOL     OW57260  11.549   7.060  10.867
51829SOL    HW157261  11.509   7.012  10.940
51829SOL    HW257262  11.479   7.116  10.834
51830SOL     OW57263   0.102   3.882   7.078
51830SOL    HW157264   0.042   3.882   7.004
51830SOL    HW257265   0.153   3.962   7.068
51831SOL     OW57266   4.402   3.226   6.165
51831SOL    HW157267   4.436   3.302   6.118
51831SOL    HW257268   4.432   3.237   6.255
51832SOL     OW57269   1.742   7.509   9.915
51832SOL    HW157270   1.717   7.572   9.847
51832SOL    HW257271   1.759   7.428   9.867
51833SOL     OW57272   9.511   5.652  12.339
51833SOL    HW157273   9.497   5.622  12.249
51833SOL    HW257274   9.496   5.746  12.335
51834SOL     OW57275   7.336  10.175   8.776
51834SOL    HW157276   7.287  10.241   8.726
51834SOL    HW257277   7.331  10.205   8.867
51835SOL     OW57278  11.571  10.743   5.058
51835SOL    HW157279  11.575  10.787   4.973
51835SOL    HW257280  11.662  10.717   5.075
51836SOL     OW57281   4.693   3.033  12.216
51836SOL    HW157282   4.627   2.976  12.177
51836SOL    HW257283   4.647   3.115  12.235
51837SOL     OW57284   8.800   8.892   2.690
51837SOL    HW157285   8.807   8.877   2.595
51837SOL    HW257286   8.813   8.805   2.728
51838SOL     OW57287   2.768   7.754   5.748
51838SOL    HW157288   2.689   7.735   5.697
51838SOL    HW257289   2.828   7.683   5.727
51839SOL     OW57290  11.631   0.265   8.838
51839SOL    HW157291  11.542   0.258   8.874
51839SOL    HW257292  11.644   0.359   8.825
51840SOL     OW57293   6.248  11.824   4.659
51840SOL    HW157294   6.308  11.771   4.606
51840SOL    HW257295   6.181  11.853   4.598
51841SOL     OW57296   4.022   4.149   5.802
51841SOL    HW157297   4.074   4.072   5.823
51841SOL    HW257298   3.949   4.115   5.749
51842SOL     OW57299   6.934   1.980  14.111
51842SOL    HW157300   6.871   1.913  14.085
51842SOL    HW257301   6.907   2.058  14.063
51843SOL     OW57302  10.668   5.806   1.674
51843SOL    HW157303  10.665   5.838   1.764
51843SOL    HW257304  10.758   5.775   1.663
51844SOL     OW57305   1.061  10.938   7.918
51844SOL    HW157306   1.018  11.002   7.975
51844SOL    HW257307   1.046  10.972   7.829
51845SOL     OW57308   1.474   4.358   5.049
51845SOL    HW157309   1.548   4.339   5.107
51845SOL    HW257310   1.514   4.396   4.971
51846SOL     OW57311   0.838  11.109  13.025
51846SOL    HW157312   0.805  11.144  12.942
51846SOL    HW257313   0.761  11.107  13.082
51847SOL     OW57314   1.648   5.471   9.015
51847SOL    HW157315   1.669   5.388   8.973
51847SOL    HW257316   1.630   5.448   9.106
51848SOL     OW57317   5.378  10.517  14.834
51848SOL    HW157318   5.437  10.477   0.019
51848SOL    HW257319   5.423  10.511  14.750
51849SOL     OW57320  10.549   8.511  14.129
51849SOL    HW157321  10.548   8.497  14.224
51849SOL    HW257322  10.497   8.590  14.116
51850SOL     OW57323  13.023  13.168  12.795
51850SOL    HW157324  13.073  13.246  12.821
51850SOL    HW257325  13.081  13.122  12.734
51851SOL     OW57326  14.605  12.065   7.240
51851SOL    HW157327  14.546  12.139   7.254
51851SOL    HW257328  14.548  11.989   7.233
51852SOL     OW57329  10.057   4.200  10.709
51852SOL    HW157330  10.098   4.285  10.697
51852SOL    HW257331  10.008   4.185  10.629
51853SOL     OW57332  13.251  14.027   3.764
51853SOL    HW157333  13.178  14.022   3.826
51853SOL    HW257334  13.214  14.066   3.685
51854SOL     OW57335   6.616   7.837   9.925
51854SOL    HW157336   6.670   7.855  10.002
51854SOL    HW257337   6.660   7.882   9.853
51855SOL     OW57338   9.040   3.847  10.817
51855SOL    HW157339   9.136   3.852  10.822
51855SOL    HW257340   9.010   3.937  10.827
51856SOL     OW57341   6.406   1.461   2.538
51856SOL    HW157342   6.376   1.503   2.458
51856SOL    HW257343   6.415   1.369   2.515
51857SOL     OW57344  10.805   3.809  12.427
51857SOL    HW157345  10.894   3.782  12.451
51857SOL    HW257346  10.785   3.757  12.348
51858SOL     OW57347  10.380   4.391  13.141
51858SOL    HW157348  10.300   4.400  13.193
51858SOL    HW257349  10.444   4.447  13.184
51859SOL     OW57350  10.394  12.337   8.053
51859SOL    HW157351  10.416  12.258   8.004
51859SOL    HW257352  10.421  12.317   8.143
51860SOL     OW57353   2.174  12.826   1.250
51860SOL    HW157354   2.203  12.905   1.204
51860SOL    HW257355   2.171  12.851   1.342
51861SOL     OW57356   1.117   2.064   8.790
51861SOL    HW157357   1.057   2.128   8.754
51861SOL    HW257358   1.062   2.004   8.840
51862SOL     OW57359   0.358   5.874  10.688
51862SOL    HW157360   0.329   5.833  10.606
51862SOL    HW257361   0.361   5.802  10.750
51863SOL     OW57362  13.584   5.493   7.850
51863SOL    HW157363  13.647   5.439   7.803
51863SOL    HW257364  13.637   5.539   7.915
51864SOL     OW57365   3.652   5.927   6.229
51864SOL    HW157366   3.706   5.859   6.189
51864SOL    HW257367   3.672   6.006   6.179
51865SOL     OW57368   8.433   8.411  13.653
51865SOL    HW157369   8.447   8.322  13.619
51865SOL    HW257370   8.358   8.402  13.713
51866SOL     OW57371   2.059   8.635  11.287
51866SOL    HW157372   2.045   8.559  11.230
51866SOL    HW257373   1.988   8.630  11.350
51867SOL     OW57374   3.998   3.961   7.771
51867SOL    HW157375   3.967   3.934   7.685
51867SOL    HW257376   3.975   3.887   7.829
51868SOL     OW57377   9.884   1.562   0.885
51868SOL    HW157378   9.931   1.568   0.968
51868SOL    HW257379   9.867   1.469   0.873
51869SOL     OW57380   2.284   9.572  11.332
51869SOL    HW157381   2.238   9.587  11.249
51869SOL    HW257382   2.320   9.484  11.324
51870SOL     OW57383   0.996  10.570   7.212
51870SOL    HW157384   1.003  10.562   7.117
51870SOL    HW257385   1.028  10.658   7.231
51871SOL     OW57386  10.077  11.181  11.957
51871SOL    HW157387   9.983  11.170  11.940
51871SOL    HW257388  10.090  11.145  12.044
51872SOL     OW57389   3.672   5.635  11.484
51872SOL    HW157390   3.595   5.608  11.534
51872SOL    HW257391   3.638   5.698  11.420
51873SOL     OW57392  14.197   9.957  12.660
51873SOL    HW157393  14.282  10.002  12.654
51873SOL    HW257394  14.182   9.948  12.754
51874SOL     OW57395  11.997   8.758   3.844
51874SOL    HW157396  11.931   8.805   3.794
51874SOL    HW257397  12.020   8.683   3.789
51875SOL     OW57398  14.213  12.571   5.985
51875SOL    HW157399  14.140  12.633   5.984
51875SOL    HW257400  14.269  12.599   5.913
51876SOL     OW57401   2.145   7.707   6.776
51876SOL    HW157402   2.058   7.691   6.740
51876SOL    HW257403   2.149   7.801   6.790
51877SOL     OW57404  11.416   6.308  13.277
51877SOL    HW157405  11.377   6.262  13.352
51877SOL    HW257406  11.491   6.254  13.252
51878SOL     OW57407   2.753  10.681   2.888
51878SOL    HW157408   2.659  10.697   2.881
51878SOL    HW257409   2.762  10.586   2.874
51879SOL     OW57410   7.696   2.700  13.037
51879SOL    HW157411   7.676   2.608  13.054
51879SOL    HW257412   7.611   2.743  13.030
51880SOL     OW57413   8.182   5.999   3.859
51880SOL    HW157414   8.091   6.016   3.833
51880SOL    HW257415   8.207   5.921   3.810
51881SOL     OW57416   5.639   1.931  13.836
51881SOL    HW157417   5.562   1.879  13.861
51881SOL    HW257418   5.629   1.945  13.742
51882SOL     OW57419   3.643   1.061   3.646
51882SOL    HW157420   3.627   1.148   3.681
51882SOL    HW257421   3.556   1.030   3.619
51883SOL     OW57422   5.492  13.965  11.856
51883SOL    HW157423   5.570  14.020  11.852
51883SOL    HW257424   5.419  14.027  11.845
51884SOL     OW57425   2.588   4.719  11.904
51884SOL    HW157426   2.634   4.786  11.854
51884SOL    HW257427   2.518   4.767  11.949
51885SOL     OW57428  12.661   8.043  11.801
51885SOL    HW157429  12.719   8.098  11.749
51885SOL    HW257430  12.573   8.065  11.769
51886SOL     OW57431   3.319   9.908   8.324
51886SOL    HW157432   3.331   9.886   8.416
51886SOL    HW257433   3.255   9.844   8.293
51887SOL     OW57434   2.265  14.031   1.706
51887SOL    HW157435   2.347  13.981   1.710
51887SOL    HW257436   2.271  14.093   1.778
51888SOL     OW57437  14.105  12.112  14.575
51888SOL    HW157438  14.022  12.135  14.536
51888SOL    HW257439  14.089  12.029  14.620
51889SOL     OW57440   3.368  10.501   6.088
51889SOL    HW157441   3.412  10.435   6.141
51889SOL    HW257442   3.281  10.510   6.128
51890SOL     OW57443   3.406  11.435   0.103
51890SOL    HW157444   3.411  11.505   0.168
51890SOL    HW257445   3.446  11.359   0.147
51891SOL     OW57446   4.111   6.312  13.500
51891SOL    HW157447   4.198   6.281  13.523
51891SOL    HW257448   4.124   6.367  13.423
51892SOL     OW57449   1.862  13.550  13.194
51892SOL    HW157450   1.893  13.603  13.121
51892SOL    HW257451   1.862  13.609  13.269
51893SOL     OW57452   7.361   1.628  13.633
51893SOL    HW157453   7.298   1.652  13.565
51893SOL    HW257454   7.403   1.711  13.658
51894SOL     OW57455   2.222   9.498   8.662
51894SOL    HW157456   2.201   9.415   8.706
51894SOL    HW257457   2.157   9.560   8.697
51895SOL     OW57458   2.390  10.661   0.191
51895SOL    HW157459   2.406  10.704   0.275
51895SOL    HW257460   2.294  10.658   0.184
51896SOL     OW57461   2.557  14.851   5.612
51896SOL    HW157462   2.624  14.788   5.637
51896SOL    HW257463   2.604   0.037   5.557
51897SOL     OW57464   7.995   1.254  13.558
51897SOL    HW157465   7.909   1.213  13.556
51897SOL    HW257466   7.978   1.347  13.541
51898SOL     OW57467   8.550   3.275   1.702
51898SOL    HW157468   8.634   3.280   1.748
51898SOL    HW257469   8.573   3.251   1.613
51899SOL     OW57470  12.618   5.274  13.230
51899SOL    HW157471  12.586   5.355  13.190
51899SOL    HW257472  12.710   5.270  13.205
51900SOL     OW57473   5.567  11.901  14.818
51900SOL    HW157474   5.496  11.901  14.753
51900SOL    HW257475   5.543  11.971   0.002
51901SOL     OW57476  13.520   2.541  13.441
51901SOL    HW157477  13.479   2.483  13.505
51901SOL    HW257478  13.567   2.606  13.495
51902SOL     OW57479   3.192   1.212  14.539
51902SOL    HW157480   3.209   1.229  14.446
51902SOL    HW257481   3.279   1.202  14.578
51903SOL     OW57482  12.632   6.966  12.479
51903SOL    HW157483  12.573   6.891  12.475
51903SOL    HW257484  12.589   7.034  12.427
51904SOL     OW57485  10.135  13.320   9.255
51904SOL    HW157486  10.076  13.327   9.181
51904SOL    HW257487  10.214  13.279   9.220
51905SOL     OW57488   6.080   4.988   0.408
51905SOL    HW157489   6.106   5.039   0.331
51905SOL    HW257490   6.120   4.902   0.394
51906SOL     OW57491  12.030   0.595  12.424
51906SOL    HW157492  12.120   0.579  12.395
51906SOL    HW257493  12.000   0.669  12.371
51907SOL     OW57494   6.329   5.156  12.403
51907SOL    HW157495   6.401   5.105  12.366
51907SOL    HW257496   6.267   5.166  12.331
51908SOL     OW57497   8.393   2.834   5.247
51908SOL    HW157498   8.457   2.793   5.188
51908SOL    HW257499   8.438   2.837   5.332
51909SOL     OW57500   8.069   8.622   7.614
51909SOL    HW157501   8.022   8.621   7.531
51909SOL    HW257502   8.160   8.638   7.590
51910SOL     OW57503  14.682  12.418  11.656
51910SOL    HW157504  14.715  12.467  11.731
51910SOL    HW257505  14.631  12.483  11.606
51911SOL     OW57506  11.935   0.624  10.788
51911SOL    HW157507  11.872   0.695  10.798
51911SOL    HW257508  11.998   0.638  10.859
51912SOL     OW57509   0.079   8.769   5.253
51912SOL    HW157510   0.139   8.768   5.327
51912SOL    HW257511   0.090   8.683   5.211
51913SOL     OW57512   8.925   8.990   1.973
51913SOL    HW157513   8.939   8.979   1.879
51913SOL    HW257514   8.931   9.085   1.988
51914SOL     OW57515   0.938   2.299   3.775
51914SOL    HW157516   1.019   2.254   3.750
51914SOL    HW257517   0.967   2.381   3.815
51915SOL     OW57518   2.045  11.186   6.815
51915SOL    HW157519   2.102  11.141   6.753
51915SOL    HW257520   1.958  11.185   6.774
51916SOL     OW57521   9.578   4.542   3.432
51916SOL    HW157522   9.545   4.632   3.428
51916SOL    HW257523   9.666   4.551   3.469
51917SOL     OW57524   9.612  12.028   3.334
51917SOL    HW157525   9.560  12.063   3.262
51917SOL    HW257526   9.550  11.976   3.385
51918SOL     OW57527   5.208  11.346   0.855
51918SOL    HW157528   5.213  11.406   0.930
51918SOL    HW257529   5.239  11.399   0.781
51919SOL     OW57530  13.712  12.906  13.437
51919SOL    HW157531  13.722  12.999  13.454
51919SOL    HW257532  13.751  12.863  13.513
51920SOL     OW57533   2.040  12.390   7.907
51920SOL    HW157534   2.023  12.446   7.832
51920SOL    HW257535   2.127  12.354   7.891
51921SOL     OW57536   0.218  13.789  13.540
51921SOL    HW157537   0.191  13.843  13.615
51921SOL    HW257538   0.207  13.847  13.464
51922SOL     OW57539  10.348  11.082   7.994
51922SOL    HW157540  10.357  10.991   7.966
51922SOL    HW257541  10.434  11.120   7.979
51923SOL     OW57542  12.608  10.810   0.312
51923SOL    HW157543  12.672  10.806   0.241
51923SOL    HW257544  12.659  10.792   0.391
51924SOL     OW57545   3.950   7.825   6.349
51924SOL    HW157546   3.925   7.916   6.367
51924SOL    HW257547   3.867   7.778   6.346
51925SOL     OW57548   2.402   8.931   9.295
51925SOL    HW157549   2.491   8.896   9.302
51925SOL    HW257550   2.373   8.908   9.207
51926SOL     OW57551  14.588   2.734   3.316
51926SOL    HW157552  14.526   2.662   3.321
51926SOL    HW257553  14.665   2.703   3.362
51927SOL     OW57554   6.540  13.172   9.589
51927SOL    HW157555   6.463  13.175   9.533
51927SOL    HW257556   6.613  13.197   9.532
51928SOL     OW57557   7.700   7.429  12.110
51928SOL    HW157558   7.683   7.364  12.178
51928SOL    HW257559   7.777   7.397  12.064
51929SOL     OW57560   1.376   7.640   0.644
51929SOL    HW157561   1.319   7.625   0.568
51929SOL    HW257562   1.370   7.559   0.695
51930SOL     OW57563   1.032   5.497   6.172
51930SOL    HW157564   1.118   5.539   6.176
51930SOL    HW257565   1.016   5.467   6.261
51931SOL     OW57566  12.278  14.592   4.228
51931SOL    HW157567  12.257  14.570   4.137
51931SOL    HW257568  12.207  14.651   4.255
51932SOL     OW57569   5.753  10.162   3.059
51932SOL    HW157570   5.717  10.172   3.147
51932SOL    HW257571   5.723  10.239   3.011
51933SOL     OW57572   9.228   1.004   5.618
51933SOL    HW157573   9.312   1.003   5.573
51933SOL    HW257574   9.163   0.996   5.548
51934SOL     OW57575   3.664  10.206   5.821
51934SOL    HW157576   3.707  10.291   5.813
51934SOL    HW257577   3.718  10.146   5.769
51935SOL     OW57578   1.645   7.048  13.255
51935SOL    HW157579   1.735   7.015  13.250
51935SOL    HW257580   1.590   6.970  13.253
51936SOL     OW57581   4.569   3.471   0.806
51936SOL    HW157582   4.530   3.447   0.721
51936SOL    HW257583   4.525   3.415   0.869
51937SOL     OW57584  14.256   9.410   7.810
51937SOL    HW157585  14.320   9.476   7.835
51937SOL    HW257586  14.172   9.456   7.815
51938SOL     OW57587   9.437  10.491  10.132
51938SOL    HW157588   9.379  10.526  10.064
51938SOL    HW257589   9.512  10.550  10.131
51939SOL     OW57590   0.188   4.248   4.520
51939SOL    HW157591   0.096   4.275   4.513
51939SOL    HW257592   0.188   4.156   4.492
51940SOL     OW57593  11.671   2.918  13.227
51940SOL    HW157594  11.633   2.996  13.187
51940SOL    HW257595  11.762   2.943  13.245
51941SOL     OW57596  12.043   2.058   5.637
51941SOL    HW157597  12.045   2.137   5.691
51941SOL    HW257598  11.995   1.994   5.690
51942SOL     OW57599   4.344   0.066  12.685
51942SOL    HW157600   4.408   0.136  12.699
51942SOL    HW257601   4.391  14.863  12.706
51943SOL     OW57602  11.701   4.039   5.394
51943SOL    HW157603  11.735   4.024   5.482
51943SOL    HW257604  11.776   4.074   5.345
51944SOL     OW57605   9.132   9.660   2.204
51944SOL    HW157606   9.126   9.738   2.150
51944SOL    HW257607   9.225   9.638   2.205
51945SOL     OW57608   7.904   3.581  13.794
51945SOL    HW157609   7.860   3.502  13.827
51945SOL    HW257610   7.992   3.552  13.770
51946SOL     OW57611   8.008   7.282   8.888
51946SOL    HW157612   8.000   7.377   8.892
51946SOL    HW257613   7.958   7.258   8.809
51947SOL     OW57614  11.565   2.650   1.831
51947SOL    HW157615  11.574   2.744   1.816
51947SOL    HW257616  11.653   2.614   1.818
51948SOL     OW57617   2.892   6.571  13.696
51948SOL    HW157618   2.909   6.592  13.604
51948SOL    HW257619   2.960   6.509  13.720
51949SOL     OW57620  13.408   1.444  12.543
51949SOL    HW157621  13.378   1.535  12.539
51949SOL    HW257622  13.476   1.438  12.476
51950SOL     OW57623  10.009   6.071  13.619
51950SOL    HW157624  10.007   6.130  13.544
51950SOL    HW257625  10.088   6.019  13.607
51951SOL     OW57626   3.655  13.222  10.941
51951SOL    HW157627   3.617  13.267  11.016
51951SOL    HW257628   3.749  13.240  10.948
51952SOL     OW57629   6.843  13.393  11.381
51952SOL    HW157630   6.785  13.453  11.334
51952SOL    HW257631   6.930  13.431  11.372
51953SOL     OW57632   1.832   0.105   4.402
51953SOL    HW157633   1.905   0.062   4.447
51953SOL    HW257634   1.831   0.066   4.315
51954SOL     OW57635   4.330   0.868  11.922
51954SOL    HW157636   4.404   0.923  11.896
51954SOL    HW257637   4.295   0.911  12.000
51955SOL     OW57638  14.336   1.749   1.947
51955SOL    HW157639  14.409   1.687   1.958
51955SOL    HW257640  14.324   1.755   1.853
51956SOL     OW57641   8.839   9.375   6.996
51956SOL    HW157642   8.812   9.467   7.003
51956SOL    HW257643   8.758   9.327   6.982
51957SOL     OW57644  14.813   1.114   0.257
51957SOL    HW157645  14.827   1.067   0.175
51957SOL    HW257646  14.824   1.207   0.234
51958SOL     OW57647   8.677   1.083  13.937
51958SOL    HW157648   8.670   1.032  14.017
51958SOL    HW257649   8.730   1.159  13.961
51959SOL     OW57650   8.608   4.192  11.424
51959SOL    HW157651   8.655   4.217  11.344
51959SOL    HW257652   8.668   4.135  11.470
51960SOL     OW57653   2.749   2.325   4.226
51960SOL    HW157654   2.716   2.336   4.136
51960SOL    HW257655   2.756   2.230   4.236
51961SOL     OW57656   2.282   4.700  10.117
51961SOL    HW157657   2.277   4.675  10.025
51961SOL    HW257658   2.358   4.652  10.151
51962SOL     OW57659  12.966   6.373   1.459
51962SOL    HW157660  13.011   6.320   1.525
51962SOL    HW257661  12.873   6.364   1.481
51963SOL     OW57662   0.337   5.035  11.903
51963SOL    HW157663   0.255   4.993  11.928
51963SOL    HW257664   0.405   4.975  11.933
51964SOL     OW57665   7.069   0.510  11.659
51964SOL    HW157666   7.114   0.563  11.593
51964SOL    HW257667   7.114   0.426  11.658
51965SOL     OW57668   7.335   0.297  13.067
51965SOL    HW157669   7.336   0.271  13.160
51965SOL    HW257670   7.260   0.250  13.030
51966SOL     OW57671   4.266   4.379  10.419
51966SOL    HW157672   4.362   4.378  10.421
51966SOL    HW257673   4.244   4.465  10.385
51967SOL     OW57674   3.698   5.214   6.615
51967SOL    HW157675   3.778   5.204   6.565
51967SOL    HW257676   3.725   5.206   6.707
51968SOL     OW57677   5.325   5.436   5.122
51968SOL    HW157678   5.341   5.397   5.207
51968SOL    HW257679   5.260   5.379   5.081
51969SOL     OW57680   3.203   0.038   4.520
51969SOL    HW157681   3.171  14.859   4.450
51969SOL    HW257682   3.296   0.018   4.527
51970SOL     OW57683   3.182   2.461   4.727
51970SOL    HW157684   3.105   2.517   4.711
51970SOL    HW257685   3.254   2.507   4.683
51971SOL     OW57686   2.862  11.422  13.514
51971SOL    HW157687   2.945  11.396  13.554
51971SOL    HW257688   2.886  11.451  13.426
51972SOL     OW57689  12.960   0.718  10.541
51972SOL    HW157690  12.884   0.776  10.539
51972SOL    HW257691  12.948   0.659  10.466
51973SOL     OW57692  12.545  11.781  10.901
51973SOL    HW157693  12.522  11.867  10.867
51973SOL    HW257694  12.555  11.726  10.824
51974SOL     OW57695  14.197  13.968  13.553
51974SOL    HW157696  14.232  14.045  13.507
51974SOL    HW257697  14.104  13.967  13.529
51975SOL     OW57698   9.420   1.719  10.203
51975SOL    HW157699   9.388   1.770  10.129
51975SOL    HW257700   9.488   1.663  10.166
51976SOL     OW57701   7.295  13.585   2.558
51976SOL    HW157702   7.207  13.614   2.535
51976SOL    HW257703   7.349  13.610   2.483
51977SOL     OW57704   2.125   5.490   4.848
51977SOL    HW157705   2.177   5.435   4.789
51977SOL    HW257706   2.052   5.520   4.794
51978SOL     OW57707   8.087   7.662   1.161
51978SOL    HW157708   8.176   7.687   1.136
51978SOL    HW257709   8.060   7.730   1.222
51979SOL     OW57710   6.035   9.525   8.232
51979SOL    HW157711   5.977   9.449   8.240
51979SOL    HW257712   6.059   9.546   8.322
51980SOL     OW57713  12.528   7.981   1.503
51980SOL    HW157714  12.459   7.918   1.524
51980SOL    HW257715  12.581   7.987   1.582
51981SOL     OW57716   6.010  12.049   0.779
51981SOL    HW157717   5.945  11.979   0.771
51981SOL    HW257718   6.071  12.016   0.845
51982SOL     OW57719   9.189   8.839   3.541
51982SOL    HW157720   9.197   8.923   3.495
51982SOL    HW257721   9.111   8.847   3.595
51983SOL     OW57722   0.798  10.627  14.777
51983SOL    HW157723   0.771  10.549  14.729
51983SOL    HW257724   0.734  10.636  14.847
51984SOL     OW57725   4.445   7.071  13.213
51984SOL    HW157726   4.374   7.119  13.257
51984SOL    HW257727   4.424   6.979  13.229
51985SOL     OW57728   6.973  11.860   9.198
51985SOL    HW157729   6.929  11.777   9.177
51985SOL    HW257730   6.930  11.890   9.278
51986SOL     OW57731  12.002   5.026  13.736
51986SOL    HW157732  12.034   5.098  13.683
51986SOL    HW257733  12.016   5.055  13.827
51987SOL     OW57734   6.237   7.389  10.735
51987SOL    HW157735   6.184   7.416  10.660
51987SOL    HW257736   6.233   7.294  10.734
51988SOL     OW57737   2.078   9.082   9.901
51988SOL    HW157738   2.169   9.080   9.872
51988SOL    HW257739   2.059   8.993   9.931
51989SOL     OW57740  10.655   9.400   4.011
51989SOL    HW157741  10.633   9.362   3.926
51989SOL    HW257742  10.578   9.451   4.035
51990SOL     OW57743  11.253   1.614   9.676
51990SOL    HW157744  11.248   1.532   9.628
51990SOL    HW257745  11.244   1.588   9.768
51991SOL     OW57746   2.137  14.142   7.886
51991SOL    HW157747   2.191  14.214   7.854
51991SOL    HW257748   2.122  14.162   7.978
51992SOL     OW57749  12.556  11.912   8.403
51992SOL    HW157750  12.570  11.981   8.468
51992SOL    HW257751  12.620  11.845   8.425
51993SOL     OW57752   2.753   8.653  10.917
51993SOL    HW157753   2.668   8.668  10.958
51993SOL    HW257754   2.789   8.740  10.904
51994SOL     OW57755   8.840   7.818   4.890
51994SOL    HW157756   8.914   7.830   4.949
51994SOL    HW257757   8.823   7.723   4.892
51995SOL     OW57758   2.076   8.783   7.787
51995SOL    HW157759   2.098   8.869   7.824
51995SOL    HW257760   2.153   8.757   7.738
51996SOL     OW57761   9.470   2.453  12.122
51996SOL    HW157762   9.401   2.436  12.058
51996SOL    HW257763   9.497   2.543  12.105
51997SOL     OW57764   4.095   7.594   4.637
51997SOL    HW157765   4.182   7.558   4.625
51997SOL    HW257766   4.082   7.595   4.732
51998SOL     OW57767   7.414   7.058   7.651
51998SOL    HW157768   7.461   7.008   7.585
51998SOL    HW257769   7.358   6.995   7.696
51999SOL     OW57770  13.496   4.878   8.049
51999SOL    HW157771  13.577   4.855   8.002
51999SOL    HW257772  13.426   4.836   7.998
52000SOL     OW57773   3.535   1.304   6.371
52000SOL    HW157774   3.497   1.273   6.453
52000SOL    HW257775   3.628   1.282   6.377
52001SOL     OW57776   0.838   6.504   5.464
52001SOL    HW157777   0.777   6.479   5.394
52001SOL    HW257778   0.924   6.501   5.423
52002SOL     OW57779  10.148   9.092  14.521
52002SOL    HW157780  10.140   9.122  14.611
52002SOL    HW257781  10.210   9.154  14.481
52003SOL     OW57782  10.605   0.142   3.568
52003SOL    HW157783  10.696   0.146   3.537
52003SOL    HW257784  10.610   0.171   3.659
52004SOL     OW57785   3.133   5.934   5.787
52004SOL    HW157786   3.137   5.989   5.708
52004SOL    HW257787   3.049   5.889   5.780
52005SOL     OW57788   2.069  14.540   2.778
52005SOL    HW157789   2.164  14.531   2.766
52005SOL    HW257790   2.044  14.612   2.721
52006SOL     OW57791   7.249   9.903   5.817
52006SOL    HW157792   7.207   9.927   5.735
52006SOL    HW257793   7.205   9.957   5.883
52007SOL     OW57794   2.938  14.638  10.568
52007SOL    HW157795   2.967  14.726  10.546
52007SOL    HW257796   2.853  14.650  10.611
52008SOL     OW57797   5.721   4.909   9.866
52008SOL    HW157798   5.700   4.997   9.894
52008SOL    HW257799   5.786   4.878   9.929
52009SOL     OW57800   1.441  12.730  13.889
52009SOL    HW157801   1.484  12.645  13.897
52009SOL    HW257802   1.348  12.709  13.884
52010SOL     OW57803   3.538  14.078   7.318
52010SOL    HW157804   3.614  14.134   7.303
52010SOL    HW257805   3.543  14.054   7.410
52011SOL     OW57806  12.515   3.376  10.425
52011SOL    HW157807  12.420   3.388  10.431
52011SOL    HW257808  12.549   3.462  10.403
52012SOL     OW57809   7.440   7.462   1.346
52012SOL    HW157810   7.459   7.376   1.309
52012SOL    HW257811   7.513   7.518   1.316
52013SOL     OW57812   5.954  13.619   1.964
52013SOL    HW157813   5.987  13.667   2.040
52013SOL    HW257814   6.031  13.572   1.932
52014SOL     OW57815   5.576   6.133  11.556
52014SOL    HW157816   5.669   6.134  11.578
52014SOL    HW257817   5.548   6.044  11.577
52015SOL     OW57818   9.925   2.352   7.593
52015SOL    HW157819   9.961   2.411   7.527
52015SOL    HW257820   9.899   2.274   7.544
52016SOL     OW57821  10.897   9.499   2.588
52016SOL    HW157822  10.856   9.416   2.612
52016SOL    HW257823  10.849   9.565   2.638
52017SOL     OW57824   3.335  11.261   6.646
52017SOL    HW157825   3.315  11.353   6.632
52017SOL    HW257826   3.257  11.214   6.618
52018SOL     OW57827  13.230  13.942   4.609
52018SOL    HW157828  13.135  13.933   4.608
52018SOL    HW257829  13.255  13.926   4.700
52019SOL     OW57830   0.926   3.560   7.445
52019SOL    HW157831   0.992   3.501   7.409
52019SOL    HW257832   0.855   3.503   7.473
52020SOL     OW57833  13.440  13.164   8.936
52020SOL    HW157834  13.512  13.152   8.875
52020SOL    HW257835  13.441  13.085   8.991
52021SOL     OW57836  13.283   1.257   0.172
52021SOL    HW157837  13.322   1.171   0.183
52021SOL    HW257838  13.201   1.253   0.222
52022SOL     OW57839   9.480   9.651   1.898
52022SOL    HW157840   9.487   9.702   1.818
52022SOL    HW257841   9.410   9.588   1.880
52023SOL     OW57842   5.624   0.787   4.595
52023SOL    HW157843   5.649   0.852   4.661
52023SOL    HW257844   5.531   0.800   4.581
52024SOL     OW57845   6.341   3.431  12.063
52024SOL    HW157846   6.370   3.341  12.074
52024SOL    HW257847   6.407   3.470  12.006
52025SOL     OW57848   6.608   7.650   5.506
52025SOL    HW157849   6.653   7.608   5.579
52025SOL    HW257850   6.679   7.680   5.449
52026SOL     OW57851  14.339   7.434   3.135
52026SOL    HW157852  14.421   7.402   3.172
52026SOL    HW257853  14.354   7.436   3.040
52027SOL     OW57854   4.343   8.073   3.125
52027SOL    HW157855   4.286   8.013   3.077
52027SOL    HW257856   4.345   8.152   3.072
52028SOL     OW57857  12.320  10.316   3.884
52028SOL    HW157858  12.398  10.260   3.886
52028SOL    HW257859  12.267  10.287   3.957
52029SOL     OW57860  12.884  14.709   2.678
52029SOL    HW157861  12.837  14.718   2.594
52029SOL    HW257862  12.867  14.792   2.723
52030SOL     OW57863   6.040   2.313  14.086
52030SOL    HW157864   6.032   2.384  14.150
52030SOL    HW257865   6.128   2.278  14.100
52031SOL     OW57866  14.034   4.971   2.432
52031SOL    HW157867  14.072   4.997   2.516
52031SOL    HW257868  13.989   4.888   2.451
52032SOL     OW57869  12.209   4.537   5.343
52032SOL    HW157870  12.122   4.577   5.340
52032SOL    HW257871  12.226   4.525   5.436
52033SOL     OW57872  10.657  13.818   8.444
52033SOL    HW157873  10.653  13.913   8.452
52033SOL    HW257874  10.623  13.800   8.357
52034SOL     OW57875   4.377   6.902   0.587
52034SOL    HW157876   4.420   6.971   0.638
52034SOL    HW257877   4.441   6.831   0.583
52035SOL     OW57878  13.561   4.493  13.135
52035SOL    HW157879  13.547   4.569  13.078
52035SOL    HW257880  13.635   4.448  13.096
52036SOL     OW57881  10.719   4.429   3.336
52036SOL    HW157882  10.658   4.408   3.265
52036SOL    HW257883  10.662   4.452   3.410
52037SOL     OW57884  12.820   1.204  10.492
52037SOL    HW157885  12.777   1.173  10.572
52037SOL    HW257886  12.834   1.124  10.440
52038SOL     OW57887   3.356   4.810   8.104
52038SOL    HW157888   3.267   4.798   8.073
52038SOL    HW257889   3.412   4.777   8.034
52039SOL     OW57890   2.484  13.592   9.710
52039SOL    HW157891   2.556  13.622   9.654
52039SOL    HW257892   2.461  13.669   9.763
52040SOL     OW57893  13.923   9.852  11.762
52040SOL    HW157894  13.932   9.769  11.715
52040SOL    HW257895  13.940   9.830  11.853
52041SOL     OW57896   5.674   1.467  10.332
52041SOL    HW157897   5.735   1.433  10.267
52041SOL    HW257898   5.729   1.519  10.391
52042SOL     OW57899  10.532   7.715  13.662
52042SOL    HW157900  10.595   7.656  13.704
52042SOL    HW257901  10.585   7.788  13.630
52043SOL     OW57902   9.982  12.744   1.814
52043SOL    HW157903  10.074  12.771   1.816
52043SOL    HW257904   9.974  12.681   1.886
52044SOL     OW57905   1.442  11.313  10.430
52044SOL    HW157906   1.413  11.223  10.441
52044SOL    HW257907   1.372  11.366  10.468
52045SOL     OW57908   1.191  12.289  13.605
52045SOL    HW157909   1.197  12.269  13.698
52045SOL    HW257910   1.224  12.211  13.561
52046SOL     OW57911   9.358   7.808   1.871
52046SOL    HW157912   9.393   7.720   1.857
52046SOL    HW257913   9.364   7.822   1.965
52047SOL     OW57914  12.458   8.272   6.506
52047SOL    HW157915  12.423   8.254   6.593
52047SOL    HW257916  12.478   8.185   6.469
52048SOL     OW57917   5.203   4.884   8.109
52048SOL    HW157918   5.188   4.976   8.086
52048SOL    HW257919   5.118   4.842   8.097
52049SOL     OW57920   4.797  10.014   8.646
52049SOL    HW157921   4.772  10.034   8.737
52049SOL    HW257922   4.806  10.099   8.604
52050SOL     OW57923   7.467   1.422  10.486
52050SOL    HW157924   7.478   1.355  10.553
52050SOL    HW257925   7.507   1.385  10.408
52051SOL     OW57926   1.520  12.841   2.606
52051SOL    HW157927   1.569  12.919   2.581
52051SOL    HW257928   1.475  12.865   2.686
52052SOL     OW57929   8.686   3.061   2.696
52052SOL    HW157930   8.752   3.080   2.763
52052SOL    HW257931   8.737   3.048   2.616
52053SOL     OW57932   4.380  14.725  11.923
52053SOL    HW157933   4.398  14.688  12.009
52053SOL    HW257934   4.287  14.710  11.908
52054SOL     OW57935  13.036  10.046   2.621
52054SOL    HW157936  13.107   9.996   2.582
52054SOL    HW257937  13.075  10.131   2.643
52055SOL     OW57938  10.002  12.311   1.025
52055SOL    HW157939  10.012  12.404   1.043
52055SOL    HW257940   9.911  12.292   1.046
52056SOL     OW57941   0.867   4.321   0.244
52056SOL    HW157942   0.904   4.330   0.332
52056SOL    HW257943   0.943   4.326   0.186
52057SOL     OW57944   9.280   2.626   7.652
52057SOL    HW157945   9.316   2.571   7.722
52057SOL    HW257946   9.194   2.587   7.633
52058SOL     OW57947  10.488  14.462   4.246
52058SOL    HW157948  10.577  14.460   4.210
52058SOL    HW257949  10.482  14.383   4.299
52059SOL     OW57950  14.504   0.592  14.260
52059SOL    HW157951  14.426   0.541  14.281
52059SOL    HW257952  14.490   0.621  14.170
52060SOL     OW57953   2.024   0.386   5.789
52060SOL    HW157954   2.045   0.378   5.882
52060SOL    HW257955   1.971   0.465   5.783
52061SOL     OW57956   1.148   4.857   7.516
52061SOL    HW157957   1.090   4.922   7.477
52061SOL    HW257958   1.151   4.785   7.454
52062SOL     OW57959  13.378  10.998   3.243
52062SOL    HW157960  13.298  10.998   3.190
52062SOL    HW257961  13.349  10.978   3.331
52063SOL     OW57962   2.047  11.500   6.733
52063SOL    HW157963   2.033  11.451   6.653
52063SOL    HW257964   1.975  11.473   6.791
52064SOL     OW57965  10.175   0.073  10.177
52064SOL    HW157966  10.149   0.061  10.268
52064SOL    HW257967  10.097   0.107  10.133
52065SOL     OW57968  14.285  10.822   5.527
52065SOL    HW157969  14.354  10.835   5.462
52065SOL    HW257970  14.204  10.841   5.479
52066SOL     OW57971  11.506  11.729   0.011
52066SOL    HW157972  11.417  11.726   0.044
52066SOL    HW257973  11.504  11.678  14.807
52067SOL     OW57974   3.079   6.076   9.408
52067SOL    HW157975   2.990   6.096   9.380
52067SOL    HW257976   3.122   6.162   9.415
52068SOL     OW57977  10.331   3.087   8.019
52068SOL    HW157978  10.414   3.066   8.063
52068SOL    HW257979  10.351   3.080   7.926
52069SOL     OW57980   7.681  11.182  12.469
52069SOL    HW157981   7.596  11.189  12.512
52069SOL    HW257982   7.663  11.199  12.377
52070SOL     OW57983   7.368   6.758  11.611
52070SOL    HW157984   7.400   6.840  11.575
52070SOL    HW257985   7.419   6.746  11.691
52071SOL     OW57986  14.796  14.746  13.378
52071SOL    HW157987  14.766  14.796  13.302
52071SOL    HW257988  14.748  14.663  13.373
52072SOL     OW57989   8.499  13.284   3.771
52072SOL    HW157990   8.567  13.216   3.770
52072SOL    HW257991   8.486  13.303   3.864
52073SOL     OW57992   2.387   7.285   8.474
52073SOL    HW157993   2.358   7.208   8.425
52073SOL    HW257994   2.373   7.358   8.414
52074SOL     OW57995   3.948  10.608   5.669
52074SOL    HW157996   3.952  10.666   5.592
52074SOL    HW257997   4.039  10.578   5.680
52075SOL     OW57998   9.016  14.276   7.489
52075SOL    HW157999   8.933  14.307   7.452
52075SOL    HW258000   9.033  14.193   7.444
52076SOL     OW58001   3.158   9.290   7.755
52076SOL    HW158002   3.245   9.252   7.769
52076SOL    HW258003   3.158   9.369   7.808
52077SOL     OW58004   5.347   8.831   8.853
52077SOL    HW158005   5.344   8.857   8.944
52077SOL    HW258006   5.312   8.906   8.804
52078SOL     OW58007   5.753   1.190   8.531
52078SOL    HW158008   5.712   1.138   8.462
52078SOL    HW258009   5.734   1.281   8.507
52079SOL     OW58010   6.615   1.278   1.356
52079SOL    HW158011   6.687   1.340   1.364
52079SOL    HW258012   6.659   1.193   1.342
52080SOL     OW58013   4.358  10.857   6.266
52080SOL    HW158014   4.393  10.944   6.247
52080SOL    HW258015   4.414  10.797   6.215
52081SOL     OW58016   9.287  14.643   4.726
52081SOL    HW158017   9.254  14.557   4.755
52081SOL    HW258018   9.331  14.625   4.643
52082SOL     OW58019  13.689   0.839   4.699
52082SOL    HW158020  13.708   0.925   4.661
52082SOL    HW258021  13.594   0.831   4.695
52083SOL     OW58022   9.601   3.690  11.242
52083SOL    HW158023   9.590   3.596  11.224
52083SOL    HW258024   9.589   3.732  11.157
52084SOL     OW58025  13.092  10.312  12.530
52084SOL    HW158026  13.104  10.390  12.476
52084SOL    HW258027  13.049  10.344  12.609
52085SOL     OW58028  13.810   4.233   3.512
52085SOL    HW158029  13.825   4.185   3.593
52085SOL    HW258030  13.896   4.237   3.470
52086SOL     OW58031   1.694   6.369   3.461
52086SOL    HW158032   1.749   6.350   3.537
52086SOL    HW258033   1.712   6.298   3.399
52087SOL     OW58034   6.909  13.871  11.000
52087SOL    HW158035   6.934  13.952  10.956
52087SOL    HW258036   6.934  13.801  10.939
52088SOL     OW58037  13.399   6.156   0.573
52088SOL    HW158038  13.463   6.084   0.576
52088SOL    HW258039  13.389   6.175   0.480
52089SOL     OW58040   9.016  13.923   9.267
52089SOL    HW158041   9.080  13.989   9.242
52089SOL    HW258042   8.939  13.972   9.296
52090SOL     OW58043   3.457   3.854   7.368
52090SOL    HW158044   3.496   3.864   7.454
52090SOL    HW258045   3.435   3.943   7.340
52091SOL     OW58046  12.111   0.453   9.649
52091SOL    HW158047  12.201   0.485   9.648
52091SOL    HW258048  12.115   0.373   9.701
52092SOL     OW58049  13.487   1.987   0.605
52092SOL    HW158050  13.469   1.972   0.512
52092SOL    HW258051  13.401   1.991   0.646
52093SOL     OW58052   6.086   4.916   1.546
52093SOL    HW158053   6.044   4.876   1.470
52093SOL    HW258054   6.015   4.965   1.589
52094SOL     OW58055   9.648  11.852   7.362
52094SOL    HW158056   9.612  11.798   7.292
52094SOL    HW258057   9.743  11.837   7.356
52095SOL     OW58058   0.035   5.677   7.312
52095SOL    HW158059   0.073   5.727   7.239
52095SOL    HW258060   0.009   5.744   7.376
52096SOL     OW58061  12.242  11.947   8.574
52096SOL    HW158062  12.325  11.984   8.544
52096SOL    HW258063  12.266  11.888   8.646
52097SOL     OW58064  11.148   0.435  12.023
52097SOL    HW158065  11.073   0.431  11.963
52097SOL    HW258066  11.174   0.527  12.022
52098SOL     OW58067   1.620   7.887  14.574
52098SOL    HW158068   1.621   7.854  14.484
52098SOL    HW258069   1.666   7.971  14.568
52099SOL     OW58070   5.559  10.124  12.413
52099SOL    HW158071   5.517  10.038  12.405
52099SOL    HW258072   5.495  10.178  12.459
52100SOL     OW58073  13.009   3.701   1.936
52100SOL    HW158074  13.067   3.646   1.989
52100SOL    HW258075  12.949   3.740   2.000
52101SOL     OW58076   9.159   5.638   6.509
52101SOL    HW158077   9.180   5.548   6.484
52101SOL    HW258078   9.147   5.684   6.426
52102SOL     OW58079   7.019   0.388  12.721
52102SOL    HW158080   7.022   0.298  12.753
52102SOL    HW258081   7.082   0.390  12.649
52103SOL     OW58082  14.740   6.497  12.984
52103SOL    HW158083  14.807   6.563  12.967
52103SOL    HW258084  14.772   6.448  13.059
52104SOL     OW58085   7.524   5.663   9.410
52104SOL    HW158086   7.534   5.609   9.489
52104SOL    HW258087   7.590   5.731   9.418
52105SOL     OW58088   6.845   6.268   3.024
52105SOL    HW158089   6.930   6.234   2.995
52105SOL    HW258090   6.816   6.206   3.092
52106SOL     OW58091   2.676   1.075   5.138
52106SOL    HW158092   2.691   0.990   5.180
52106SOL    HW258093   2.599   1.110   5.183
52107SOL     OW58094   7.080   3.146  12.791
52107SOL    HW158095   7.000   3.094  12.791
52107SOL    HW258096   7.066   3.213  12.724
52108SOL     OW58097   1.955   8.445   2.299
52108SOL    HW158098   1.952   8.451   2.394
52108SOL    HW258099   1.869   8.409   2.275
52109SOL     OW58100   7.769   5.181  10.721
52109SOL    HW158101   7.774   5.097  10.766
52109SOL    HW258102   7.861   5.206  10.708
52110SOL     OW58103   6.763  10.025  12.233
52110SOL    HW158104   6.698  10.072  12.181
52110SOL    HW258105   6.750  10.056  12.323
52111SOL     OW58106   1.445   2.760   5.111
52111SOL    HW158107   1.514   2.744   5.175
52111SOL    HW258108   1.364   2.753   5.161
52112SOL     OW58109   5.507  11.504   8.945
52112SOL    HW158110   5.422  11.497   8.902
52112SOL    HW258111   5.535  11.414   8.958
52113SOL     OW58112  13.304   6.572   2.590
52113SOL    HW158113  13.292   6.615   2.674
52113SOL    HW258114  13.360   6.496   2.610
52114SOL     OW58115   1.190   5.871   1.033
52114SOL    HW158116   1.152   5.865   1.121
52114SOL    HW258117   1.136   5.938   0.990
52115SOL     OW58118  12.326  12.062   9.573
52115SOL    HW158119  12.249  12.062   9.630
52115SOL    HW258120  12.380  12.134   9.605
52116SOL     OW58121   7.416   0.100  12.086
52116SOL    HW158122   7.407   0.195  12.096
52116SOL    HW258123   7.332   0.065  12.115
52117SOL     OW58124  13.118   6.452   4.647
52117SOL    HW158125  13.193   6.459   4.706
52117SOL    HW258126  13.138   6.513   4.575
52118SOL     OW58127   9.978   5.506   8.800
52118SOL    HW158128   9.894   5.461   8.788
52118SOL    HW258129  10.019   5.462   8.874
52119SOL     OW58130   8.596  13.819   2.573
52119SOL    HW158131   8.563  13.758   2.639
52119SOL    HW258132   8.532  13.815   2.502
52120SOL     OW58133   1.829   8.303  10.487
52120SOL    HW158134   1.844   8.245  10.562
52120SOL    HW258135   1.846   8.248  10.410
52121SOL     OW58136   5.786   5.663   8.533
52121SOL    HW158137   5.856   5.602   8.508
52121SOL    HW258138   5.747   5.624   8.612
52122SOL     OW58139  14.198  12.768   8.183
52122SOL    HW158140  14.274  12.823   8.202
52122SOL    HW258141  14.173  12.732   8.268
52123SOL     OW58142   6.876  12.741  14.220
52123SOL    HW158143   6.807  12.769  14.160
52123SOL    HW258144   6.952  12.726  14.164
52124SOL     OW58145  11.608  12.082   3.242
52124SOL    HW158146  11.535  12.042   3.289
52124SOL    HW258147  11.567  12.136   3.175
52125SOL     OW58148   0.690  14.530   4.010
52125SOL    HW158149   0.653  14.446   3.985
52125SOL    HW258150   0.615  14.589   4.015
52126SOL     OW58151  12.597  12.038   5.681
52126SOL    HW158152  12.675  12.007   5.634
52126SOL    HW258153  12.619  12.128   5.707
52127SOL     OW58154   7.309   6.031  12.312
52127SOL    HW158155   7.403   6.041  12.327
52127SOL    HW258156   7.282   6.115  12.274
52128SOL     OW58157   4.019   9.773   9.039
52128SOL    HW158158   3.965   9.744   8.966
52128SOL    HW258159   4.081   9.702   9.053
52129SOL     OW58160   2.740  12.558   6.353
52129SOL    HW158161   2.745  12.477   6.404
52129SOL    HW258162   2.820  12.606   6.374
52130SOL     OW58163  10.495   6.564  12.309
52130SOL    HW158164  10.447   6.484  12.289
52130SOL    HW258165  10.541   6.544  12.391
52131SOL     OW58166   6.979   2.854  10.512
52131SOL    HW158167   6.961   2.810  10.595
52131SOL    HW258168   6.896   2.896  10.489
52132SOL     OW58169   5.952   7.279   5.841
52132SOL    HW158170   5.897   7.288   5.919
52132SOL    HW258171   6.041   7.286   5.875
52133SOL     OW58172   4.737  12.804  14.085
52133SOL    HW158173   4.666  12.763  14.135
52133SOL    HW258174   4.797  12.732  14.065
52134SOL     OW58175   5.849  14.619   7.565
52134SOL    HW158176   5.909  14.628   7.638
52134SOL    HW258177   5.831  14.709   7.537
52135SOL     OW58178   4.058   2.728   3.004
52135SOL    HW158179   3.984   2.758   2.952
52135SOL    HW258180   4.019   2.695   3.085
52136SOL     OW58181  13.644   1.272   9.757
52136SOL    HW158182  13.664   1.180   9.745
52136SOL    HW258183  13.642   1.284   9.852
52137SOL     OW58184  12.309   1.272  11.523
52137SOL    HW158185  12.396   1.281  11.485
52137SOL    HW258186  12.252   1.251  11.449
52138SOL     OW58187  10.616   7.648   7.163
52138SOL    HW158188  10.690   7.620   7.216
52138SOL    HW258189  10.539   7.627   7.215
52139SOL     OW58190   3.485   2.100   2.887
52139SOL    HW158191   3.461   2.089   2.795
52139SOL    HW258192   3.543   2.026   2.906
52140SOL     OW58193  11.976   9.743  11.512
52140SOL    HW158194  11.977   9.722  11.606
52140SOL    HW258195  12.017   9.829  11.506
52141SOL     OW58196   0.953   3.076  13.901
52141SOL    HW158197   0.932   3.088  13.808
52141SOL    HW258198   0.963   2.981  13.911
52142SOL     OW58199   5.029   2.068  11.830
52142SOL    HW158200   5.003   2.021  11.751
52142SOL    HW258201   5.002   2.158  11.814
52143SOL     OW58202   5.444   3.213  10.080
52143SOL    HW158203   5.474   3.193  10.169
52143SOL    HW258204   5.514   3.179  10.023
52144SOL     OW58205   2.073   3.975  11.122
52144SOL    HW158206   2.107   3.888  11.142
52144SOL    HW258207   2.149   4.023  11.088
52145SOL     OW58208  12.839   5.486  13.790
52145SOL    HW158209  12.753   5.478  13.749
52145SOL    HW258210  12.832   5.435  13.871
52146SOL     OW58211   8.038  14.704   3.719
52146SOL    HW158212   8.134  14.708   3.725
52146SOL    HW258213   8.018  14.744   3.635
52147SOL     OW58214  13.095   1.720   1.731
52147SOL    HW158215  13.133   1.637   1.704
52147SOL    HW258216  13.167   1.766   1.775
52148SOL     OW58217  12.788   3.091   2.927
52148SOL    HW158218  12.747   3.177   2.924
52148SOL    HW258219  12.740   3.039   2.862
52149SOL     OW58220  13.862   8.424   3.820
52149SOL    HW158221  13.839   8.513   3.844
52149SOL    HW258222  13.954   8.415   3.846
52150SOL     OW58223  11.551   3.790   4.973
52150SOL    HW158224  11.493   3.719   4.944
52150SOL    HW258225  11.538   3.795   5.068
52151SOL     OW58226   6.061   3.142   0.540
52151SOL    HW158227   6.009   3.066   0.566
52151SOL    HW258228   6.011   3.183   0.469
52152SOL     OW58229  11.847   7.838   3.380
52152SOL    HW158230  11.784   7.766   3.381
52152SOL    HW258231  11.894   7.830   3.463
52153SOL     OW58232  10.305   5.009   1.615
52153SOL    HW158233  10.276   5.043   1.530
52153SOL    HW258234  10.256   5.060   1.679
52154SOL     OW58235   8.050   1.300   5.968
52154SOL    HW158236   8.057   1.324   5.876
52154SOL    HW258237   8.130   1.252   5.987
52155SOL     OW58238  10.566   1.614   8.789
52155SOL    HW158239  10.562   1.653   8.702
52155SOL    HW258240  10.478   1.579   8.803
52156SOL     OW58241   5.047   9.397   6.221
52156SOL    HW158242   5.063   9.340   6.297
52156SOL    HW258243   5.065   9.486   6.254
52157SOL     OW58244  12.848  13.001   2.319
52157SOL    HW158245  12.833  12.919   2.364
52157SOL    HW258246  12.863  12.976   2.227
52158SOL     OW58247   3.693   6.164   3.716
52158SOL    HW158248   3.677   6.086   3.664
52158SOL    HW258249   3.788   6.170   3.723
52159SOL     OW58250   3.828   9.873   1.630
52159SOL    HW158251   3.742   9.836   1.645
52159SOL    HW258252   3.875   9.807   1.579
52160SOL     OW58253   8.506   9.104   8.744
52160SOL    HW158254   8.529   9.027   8.796
52160SOL    HW258255   8.586   9.156   8.741
52161SOL     OW58256  10.102   7.318   0.461
52161SOL    HW158257  10.191   7.349   0.477
52161SOL    HW258258  10.106   7.223   0.477
52162SOL     OW58259   4.434   7.240   2.834
52162SOL    HW158260   4.456   7.279   2.750
52162SOL    HW258261   4.351   7.283   2.859
52163SOL     OW58262  12.967   8.608   4.292
52163SOL    HW158263  13.043   8.614   4.233
52163SOL    HW258264  12.928   8.523   4.272
52164SOL     OW58265   1.607   0.079   2.413
52164SOL    HW158266   1.668   0.137   2.366
52164SOL    HW258267   1.561   0.137   2.473
52165SOL     OW58268  10.577   2.758   0.051
52165SOL    HW158269  10.625   2.731   0.129
52165SOL    HW258270  10.485   2.737   0.071
52166SOL     OW58271  11.293   0.738  13.240
52166SOL    HW158272  11.299   0.834  13.241
52166SOL    HW258273  11.383   0.709  13.225
52167SOL     OW58274   9.323   1.685   6.916
52167SOL    HW158275   9.390   1.720   6.975
52167SOL    HW258276   9.336   1.733   6.834
52168SOL     OW58277   5.716  13.583  13.368
52168SOL    HW158278   5.722  13.589  13.464
52168SOL    HW258279   5.653  13.651  13.344
52169SOL     OW58280   0.140  12.154   2.450
52169SOL    HW158281   0.085  12.233   2.454
52169SOL    HW258282   0.165  12.138   2.541
52170SOL     OW58283   6.008   4.162   5.218
52170SOL    HW158284   6.001   4.243   5.167
52170SOL    HW258285   6.045   4.190   5.302
52171SOL     OW58286  10.473   4.132   7.843
52171SOL    HW158287  10.394   4.094   7.881
52171SOL    HW258288  10.535   4.137   7.916
52172SOL     OW58289   5.461   3.030   3.922
52172SOL    HW158290   5.384   2.976   3.907
52172SOL    HW258291   5.444   3.110   3.872
52173SOL     OW58292   3.202  12.003   3.880
52173SOL    HW158293   3.198  12.000   3.784
52173SOL    HW258294   3.174  12.092   3.903
52174SOL     OW58295   7.574  12.046   6.295
52174SOL    HW158296   7.569  12.132   6.337
52174SOL    HW258297   7.636  12.060   6.222
52175SOL     OW58298   8.850   5.533   0.508
52175SOL    HW158299   8.892   5.590   0.443
52175SOL    HW258300   8.923   5.483   0.546
52176SOL     OW58301  10.283   9.062   7.138
52176SOL    HW158302  10.288   9.129   7.070
52176SOL    HW258303  10.193   9.030   7.134
52177SOL     OW58304  13.003   6.484  12.271
52177SOL    HW158305  13.050   6.431  12.336
52177SOL    HW258306  13.072   6.518  12.215
52178SOL     OW58307   6.613   5.459   6.748
52178SOL    HW158308   6.691   5.451   6.693
52178SOL    HW258309   6.546   5.408   6.702
52179SOL     OW58310   5.119  11.529   8.226
52179SOL    HW158311   5.034  11.488   8.210
52179SOL    HW258312   5.163  11.528   8.141
52180SOL     OW58313  10.522  10.722   3.902
52180SOL    HW158314  10.444  10.686   3.944
52180SOL    HW258315  10.512  10.817   3.910
52181SOL     OW58316   0.100  13.611  12.211
52181SOL    HW158317   0.088  13.596  12.305
52181SOL    HW258318   0.013  13.600  12.174
52182SOL     OW58319   0.622  10.784   8.227
52182SOL    HW158320   0.693  10.847   8.215
52182SOL    HW258321   0.548  10.822   8.180
52183SOL     OW58322   0.342   8.462   4.927
52183SOL    HW158323   0.372   8.552   4.940
52183SOL    HW258324   0.419   8.408   4.942
52184SOL     OW58325   5.783  11.028   5.264
52184SOL    HW158326   5.857  11.040   5.204
52184SOL    HW258327   5.822  11.034   5.351
52185SOL     OW58328   0.214   5.795   7.547
52185SOL    HW158329   0.196   5.828   7.459
52185SOL    HW258330   0.249   5.707   7.533
52186SOL     OW58331   7.759   7.988   7.300
52186SOL    HW158332   7.812   7.963   7.376
52186SOL    HW258333   7.823   8.010   7.233
52187SOL     OW58334   9.812   8.856  10.644
52187SOL    HW158335   9.757   8.813  10.710
52187SOL    HW258336   9.765   8.844  10.562
52188SOL     OW58337   6.596  11.997   4.880
52188SOL    HW158338   6.598  12.063   4.949
52188SOL    HW258339   6.649  11.925   4.914
52189SOL     OW58340   6.385   2.300   9.836
52189SOL    HW158341   6.354   2.210   9.827
52189SOL    HW258342   6.409   2.308   9.928
52190SOL     OW58343   9.989   5.895   9.509
52190SOL    HW158344   9.930   5.912   9.436
52190SOL    HW258345  10.016   5.982   9.539
52191SOL     OW58346   5.172   4.376  10.741
52191SOL    HW158347   5.131   4.447  10.791
52191SOL    HW258348   5.133   4.296  10.775
52192SOL     OW58349  10.285  11.410   1.545
52192SOL    HW158350  10.324  11.376   1.465
52192SOL    HW258351  10.317  11.500   1.552
52193SOL     OW58352  12.487   1.881   9.282
52193SOL    HW158353  12.482   1.976   9.278
52193SOL    HW258354  12.420   1.850   9.220
52194SOL     OW58355   0.083   1.764   9.332
52194SOL    HW158356   0.050   1.792   9.247
52194SOL    HW258357   0.122   1.678   9.315
52195SOL     OW58358   9.100   4.894   6.878
52195SOL    HW158359   9.097   4.925   6.787
52195SOL    HW258360   9.155   4.958   6.923
52196SOL     OW58361   6.068   1.282   1.600
52196SOL    HW158362   5.988   1.244   1.563
52196SOL    HW258363   6.083   1.361   1.550
52197SOL     OW58364   1.255   1.484   5.925
52197SOL    HW158365   1.213   1.523   5.848
52197SOL    HW258366   1.210   1.400   5.936
52198SOL     OW58367   0.499  11.098  10.301
52198SOL    HW158368   0.588  11.112  10.268
52198SOL    HW258369   0.451  11.176  10.273
52199SOL     OW58370  13.112   1.242   2.967
52199SOL    HW158371  13.198   1.284   2.973
52199SOL    HW258372  13.123   1.158   3.012
52200SOL     OW58373   9.562   1.241   4.872
52200SOL    HW158374   9.582   1.335   4.867
52200SOL    HW258375   9.618   1.209   4.943
52201SOL     OW58376   1.292   9.127   9.436
52201SOL    HW158377   1.327   9.200   9.383
52201SOL    HW258378   1.351   9.054   9.417
52202SOL     OW58379  14.535   1.473  13.305
52202SOL    HW158380  14.546   1.545  13.243
52202SOL    HW258381  14.462   1.501  13.361
52203SOL     OW58382  10.504  13.968  11.660
52203SOL    HW158383  10.492  13.886  11.707
52203SOL    HW258384  10.564  13.947  11.589
52204SOL     OW58385   0.831   8.211   7.686
52204SOL    HW158386   0.817   8.153   7.761
52204SOL    HW258387   0.746   8.214   7.641
52205SOL     OW58388   0.401  11.611  14.185
52205SOL    HW158389   0.414  11.555  14.261
52205SOL    HW258390   0.355  11.688  14.218
52206SOL     OW58391   0.072   9.798   9.040
52206SOL    HW158392   0.065   9.887   9.005
52206SOL    HW258393   0.087   9.810   9.133
52207SOL     OW58394  12.094  12.382   7.517
52207SOL    HW158395  12.151  12.389   7.593
52207SOL    HW258396  12.074  12.289   7.509
52208SOL     OW58397   3.797  11.913   4.881
52208SOL    HW158398   3.781  11.920   4.975
52208SOL    HW258399   3.729  11.853   4.850
52209SOL     OW58400   2.064   3.745  12.987
52209SOL    HW158401   2.093   3.833  13.011
52209SOL    HW258402   2.108   3.727  12.904
52210SOL     OW58403   2.190  12.535  12.287
52210SOL    HW158404   2.150  12.580  12.361
52210SOL    HW258405   2.190  12.600  12.217
52211SOL     OW58406   7.302  13.736   8.506
52211SOL    HW158407   7.381  13.785   8.484
52211SOL    HW258408   7.292  13.746   8.600
52212SOL     OW58409  11.623   2.737   7.245
52212SOL    HW158410  11.554   2.803   7.240
52212SOL    HW258411  11.673   2.747   7.165
52213SOL     OW58412   5.291   3.577   7.149
52213SOL    HW158413   5.284   3.542   7.238
52213SOL    HW258414   5.221   3.641   7.143
52214SOL     OW58415   7.806   1.544   9.470
52214SOL    HW158416   7.728   1.489   9.468
52214SOL    HW258417   7.789   1.613   9.406
52215SOL     OW58418   5.542   1.561  13.633
52215SOL    HW158419   5.514   1.546  13.723
52215SOL    HW258420   5.483   1.629  13.601
52216SOL     OW58421  10.481   8.988   0.794
52216SOL    HW158422  10.565   8.951   0.819
52216SOL    HW258423  10.421   8.964   0.865
52217SOL     OW58424   4.481   9.541   5.957
52217SOL    HW158425   4.438   9.606   6.012
52217SOL    HW258426   4.497   9.467   6.016
52218SOL     OW58427   0.686   6.940   5.706
52218SOL    HW158428   0.690   6.845   5.717
52218SOL    HW258429   0.651   6.952   5.618
52219SOL     OW58430   9.834   3.108   9.207
52219SOL    HW158431   9.745   3.144   9.202
52219SOL    HW258432   9.884   3.173   9.255
52220SOL     OW58433   0.200   2.312   2.304
52220SOL    HW158434   0.296   2.302   2.309
52220SOL    HW258435   0.186   2.407   2.296
52221SOL     OW58436  12.375  13.759   4.247
52221SOL    HW158437  12.340  13.707   4.320
52221SOL    HW258438  12.414  13.836   4.288
52222SOL     OW58439   0.015   7.037  13.425
52222SOL    HW158440  14.848   7.089  13.359
52222SOL    HW258441   0.073   7.100  13.470
52223SOL     OW58442  13.849   7.011  11.554
52223SOL    HW158443  13.934   7.029  11.515
52223SOL    HW258444  13.838   7.080  11.620
52224SOL     OW58445   1.474  12.380   4.218
52224SOL    HW158446   1.461  12.301   4.270
52224SOL    HW258447   1.392  12.429   4.227
52225SOL     OW58448   1.826   7.748  12.080
52225SOL    HW158449   1.901   7.689  12.082
52225SOL    HW258450   1.864   7.836  12.077
52226SOL     OW58451   6.957   1.532   3.476
52226SOL    HW158452   6.921   1.539   3.564
52226SOL    HW258453   7.008   1.450   3.477
52227SOL     OW58454   9.546   8.400   1.842
52227SOL    HW158455   9.628   8.439   1.874
52227SOL    HW258456   9.494   8.385   1.921
52228SOL     OW58457   7.588  13.994   1.070
52228SOL    HW158458   7.595  13.900   1.088
52228SOL    HW258459   7.678  14.026   1.075
52229SOL     OW58460  14.722   7.812   9.602
52229SOL    HW158461  14.791   7.868   9.637
52229SOL    HW258462  14.678   7.866   9.536
52230SOL     OW58463  12.593   1.913   0.652
52230SOL    HW158464  12.574   1.820   0.640
52230SOL    HW258465  12.640   1.918   0.735
52231SOL     OW58466   1.819   2.521  10.520
52231SOL    HW158467   1.739   2.510  10.469
52231SOL    HW258468   1.863   2.595  10.478
52232SOL     OW58469  11.755   2.296   4.470
52232SOL    HW158470  11.847   2.281   4.492
52232SOL    HW258471  11.712   2.212   4.489
52233SOL     OW58472   2.429   5.357  10.764
52233SOL    HW158473   2.470   5.357  10.851
52233SOL    HW258474   2.335   5.354  10.781
52234SOL     OW58475   5.207  13.602   9.639
52234SOL    HW158476   5.255  13.638   9.564
52234SOL    HW258477   5.116  13.603   9.612
52235SOL     OW58478  12.028   8.899  10.923
52235SOL    HW158479  12.045   8.845  11.000
52235SOL    HW258480  12.041   8.840  10.849
52236SOL     OW58481  13.364  11.635   2.911
52236SOL    HW158482  13.443  11.657   2.861
52236SOL    HW258483  13.327  11.720   2.937
52237SOL     OW58484   5.847   2.900   4.228
52237SOL    HW158485   5.790   2.902   4.151
52237SOL    HW258486   5.877   2.809   4.233
52238SOL     OW58487  12.996   7.645  12.793
52238SOL    HW158488  13.061   7.631  12.862
52238SOL    HW258489  12.968   7.557  12.768
52239SOL     OW58490   7.592   1.634   2.773
52239SOL    HW158491   7.573   1.578   2.697
52239SOL    HW258492   7.543   1.714   2.756
52240SOL     OW58493   9.350  14.750  12.213
52240SOL    HW158494   9.276  14.794  12.255
52240SOL    HW258495   9.348  14.661  12.248
52241SOL     OW58496   5.027  11.061  12.110
52241SOL    HW158497   5.094  11.122  12.140
52241SOL    HW258498   5.074  11.000  12.052
52242SOL     OW58499   8.516  10.915   4.611
52242SOL    HW158500   8.604  10.911   4.575
52242SOL    HW258501   8.523  10.975   4.685
52243SOL     OW58502   9.662   7.662   2.016
52243SOL    HW158503   9.655   7.752   2.047
52243SOL    HW258504   9.602   7.613   2.073
52244SOL     OW58505  13.067   8.167   9.819
52244SOL    HW158506  12.985   8.198   9.856
52244SOL    HW258507  13.096   8.097   9.878
52245SOL     OW58508  11.667  13.527   3.779
52245SOL    HW158509  11.664  13.433   3.759
52245SOL    HW258510  11.760  13.546   3.790
52246SOL     OW58511   1.380  14.303   8.066
52246SOL    HW158512   1.378  14.399   8.066
52246SOL    HW258513   1.438  14.280   8.139
52247SOL     OW58514  12.460   6.161  14.290
52247SOL    HW158515  12.469   6.170  14.195
52247SOL    HW258516  12.445   6.250  14.322
52248SOL     OW58517  13.456   7.634   5.923
52248SOL    HW158518  13.468   7.627   5.829
52248SOL    HW258519  13.541   7.610   5.960
52249SOL     OW58520   2.186   5.163  13.340
52249SOL    HW158521   2.232   5.219  13.278
52249SOL    HW258522   2.223   5.076  13.326
52250SOL     OW58523   4.510   5.978  14.654
52250SOL    HW158524   4.461   6.037  14.712
52250SOL    HW258525   4.443   5.923  14.613
52251SOL     OW58526   9.584  12.835   7.531
52251SOL    HW158527   9.624  12.771   7.589
52251SOL    HW258528   9.648  12.906   7.526
52252SOL     OW58529   7.113   8.529  14.083
52252SOL    HW158530   7.083   8.440  14.064
52252SOL    HW258531   7.153   8.559  14.001
52253SOL     OW58532  11.207  13.018   5.728
52253SOL    HW158533  11.137  12.966   5.689
52253SOL    HW258534  11.276  13.019   5.661
52254SOL     OW58535   2.871  14.097   3.319
52254SOL    HW158536   2.808  14.041   3.364
52254SOL    HW258537   2.845  14.186   3.343
52255SOL     OW58538   6.769  12.181   5.550
52255SOL    HW158539   6.712  12.149   5.620
52255SOL    HW258540   6.856  12.183   5.589
52256SOL     OW58541   6.407   7.361   9.897
52256SOL    HW158542   6.374   7.366   9.987
52256SOL    HW258543   6.426   7.452   9.874
52257SOL     OW58544   5.767   5.532   1.252
52257SOL    HW158545   5.700   5.601   1.252
52257SOL    HW258546   5.821   5.551   1.328
52258SOL     OW58547   9.171   8.760  11.116
52258SOL    HW158548   9.116   8.706  11.173
52258SOL    HW258549   9.111   8.825  11.080
52259SOL     OW58550   4.365   1.344   4.411
52259SOL    HW158551   4.453   1.380   4.417
52259SOL    HW258552   4.347   1.341   4.317
52260SOL     OW58553  10.373   5.984   5.198
52260SOL    HW158554  10.452   6.038   5.206
52260SOL    HW258555  10.301   6.046   5.211
52261SOL     OW58556   6.493  10.499   9.344
52261SOL    HW158557   6.436  10.550   9.287
52261SOL    HW258558   6.539  10.440   9.285
52262SOL     OW58559   3.113   5.283   0.534
52262SOL    HW158560   3.194   5.231   0.540
52262SOL    HW258561   3.057   5.233   0.475
52263SOL     OW58562  12.132   3.912  14.288
52263SOL    HW158563  12.105   3.823  14.313
52263SOL    HW258564  12.113   3.916  14.194
52264SOL     OW58565  12.969   5.472  14.782
52264SOL    HW158566  13.002   5.416  14.853
52264SOL    HW258567  12.893   5.425  14.748
52265SOL     OW58568   0.479  13.909   0.266
52265SOL    HW158569   0.540  13.854   0.316
52265SOL    HW258570   0.520  13.995   0.264
52266SOL     OW58571  14.643   5.204   1.071
52266SOL    HW158572  14.615   5.123   1.028
52266SOL    HW258573  14.723   5.230   1.024
52267SOL     OW58574  12.986  13.665   3.462
52267SOL    HW158575  12.981  13.680   3.556
52267SOL    HW258576  12.928  13.731   3.424
52268SOL     OW58577   6.005   9.215   0.978
52268SOL    HW158578   6.049   9.268   1.045
52268SOL    HW258579   5.985   9.276   0.908
52269SOL     OW58580  11.238   4.251  10.085
52269SOL    HW158581  11.306   4.229  10.021
52269SOL    HW258582  11.285   4.295  10.156
52270SOL     OW58583   5.890   2.602  13.771
52270SOL    HW158584   5.803   2.572  13.800
52270SOL    HW258585   5.950   2.571  13.839
52271SOL     OW58586  11.978  13.845   5.818
52271SOL    HW158587  12.066  13.882   5.823
52271SOL    HW258588  11.976  13.799   5.734
52272SOL     OW58589  10.972   6.874   8.779
52272SOL    HW158590  10.954   6.787   8.815
52272SOL    HW258591  10.918   6.933   8.830
52273SOL     OW58592  13.465  10.695   2.315
52273SOL    HW158593  13.479  10.601   2.323
52273SOL    HW258594  13.456  10.710   2.221
52274SOL     OW58595   1.316   9.224   0.917
52274SOL    HW158596   1.245   9.209   0.979
52274SOL    HW258597   1.395   9.221   0.971
52275SOL     OW58598   3.314   3.003   1.536
52275SOL    HW158599   3.381   2.957   1.484
52275SOL    HW258600   3.331   3.096   1.518
52276SOL     OW58601   7.265   3.968   8.405
52276SOL    HW158602   7.209   3.975   8.482
52276SOL    HW258603   7.223   4.025   8.340
52277SOL     OW58604   5.886   6.639  13.879
52277SOL    HW158605   5.967   6.679  13.909
52277SOL    HW258606   5.866   6.573  13.946
52278SOL     OW58607  11.538  12.157   2.795
52278SOL    HW158608  11.615  12.207   2.769
52278SOL    HW258609  11.505  12.120   2.713
52279SOL     OW58610   5.570  13.446  12.249
52279SOL    HW158611   5.592  13.538  12.262
52279SOL    HW258612   5.488  13.448  12.198
52280SOL     OW58613  11.723   8.931   9.101
52280SOL    HW158614  11.747   9.011   9.147
52280SOL    HW258615  11.779   8.863   9.139
52281SOL     OW58616  13.760   4.213   5.389
52281SOL    HW158617  13.720   4.287   5.344
52281SOL    HW258618  13.767   4.242   5.480
52282SOL     OW58619   2.144   7.149   7.572
52282SOL    HW158620   2.092   7.126   7.495
52282SOL    HW258621   2.195   7.070   7.591
52283SOL     OW58622   7.043  14.525  14.680
52283SOL    HW158623   7.068  14.606  14.725
52283SOL    HW258624   7.059  14.456  14.743
52284SOL     OW58625  11.409   5.809  12.681
52284SOL    HW158626  11.373   5.721  12.671
52284SOL    HW258627  11.348   5.853  12.740
52285SOL     OW58628   1.328  11.067  10.557
52285SOL    HW158629   1.340  10.972  10.550
52285SOL    HW258630   1.236  11.077  10.581
52286SOL     OW58631   8.229   6.964  13.730
52286SOL    HW158632   8.297   6.898  13.728
52286SOL    HW258633   8.237   7.009  13.646
52287SOL     OW58634   7.980  10.089  14.181
52287SOL    HW158635   7.917  10.115  14.248
52287SOL    HW258636   8.016  10.172  14.149
52288SOL     OW58637  14.242  12.176  13.334
52288SOL    HW158638  14.185  12.193  13.409
52288SOL    HW258639  14.200  12.222  13.261
52289SOL     OW58640  10.247   9.902  13.068
52289SOL    HW158641  10.298   9.982  13.085
52289SOL    HW258642  10.236   9.901  12.973
52290SOL     OW58643  14.667   9.987   0.744
52290SOL    HW158644  14.761  10.005   0.732
52290SOL    HW258645  14.663   9.893   0.762
52291SOL     OW58646  10.549  13.484   8.412
52291SOL    HW158647  10.503  13.443   8.339
52291SOL    HW258648  10.554  13.576   8.389
52292SOL     OW58649   0.183   5.966  12.619
52292SOL    HW158650   0.106   5.994  12.669
52292SOL    HW258651   0.148   5.919  12.544
52293SOL     OW58652   0.837  14.643   8.806
52293SOL    HW158653   0.881  14.582   8.865
52293SOL    HW258654   0.872  14.623   8.720
52294SOL     OW58655  14.266   8.637   5.708
52294SOL    HW158656  14.221   8.611   5.788
52294SOL    HW258657  14.266   8.559   5.654
52295SOL     OW58658   5.319   5.043   6.674
52295SOL    HW158659   5.410   5.013   6.683
52295SOL    HW258660   5.323   5.137   6.693
52296SOL     OW58661  11.342   6.787   2.540
52296SOL    HW158662  11.308   6.711   2.586
52296SOL    HW258663  11.290   6.861   2.572
52297SOL     OW58664   7.234   5.468   5.923
52297SOL    HW158665   7.185   5.536   5.969
52297SOL    HW258666   7.325   5.499   5.924
52298SOL     OW58667  13.708   9.593   8.685
52298SOL    HW158668  13.770   9.666   8.693
52298SOL    HW258669  13.626   9.628   8.718
52299SOL     OW58670   1.620  10.428   4.300
52299SOL    HW158671   1.595  10.337   4.314
52299SOL    HW258672   1.706  10.424   4.258
52300SOL     OW58673  12.660   1.739  13.577
52300SOL    HW158674  12.683   1.812  13.520
52300SOL    HW258675  12.572   1.714  13.549
52301SOL     OW58676   8.300  13.059  10.136
52301SOL    HW158677   8.305  13.097  10.048
52301SOL    HW258678   8.208  13.035  10.146
52302SOL     OW58679   0.166   9.783   2.353
52302SOL    HW158680   0.190   9.842   2.282
52302SOL    HW258681   0.232   9.799   2.420
52303SOL     OW58682   9.494  14.046  10.621
52303SOL    HW158683   9.576  14.063  10.667
52303SOL    HW258684   9.426  14.081  10.679
52304SOL     OW58685   1.187   0.293   3.495
52304SOL    HW158686   1.131   0.331   3.428
52304SOL    HW258687   1.227   0.367   3.540
52305SOL     OW58688  11.114   5.269   3.109
52305SOL    HW158689  11.178   5.240   3.044
52305SOL    HW258690  11.113   5.199   3.175
52306SOL     OW58691   3.074   1.856   6.013
52306SOL    HW158692   3.017   1.922   5.974
52306SOL    HW258693   3.144   1.843   5.948
52307SOL     OW58694   6.510   1.064   0.390
52307SOL    HW158695   6.491   1.130   0.323
52307SOL    HW258696   6.438   1.001   0.382
52308SOL     OW58697   8.154   7.423   9.420
52308SOL    HW158698   8.202   7.397   9.499
52308SOL    HW258699   8.221   7.455   9.360
52309SOL     OW58700  12.998   4.239  12.433
52309SOL    HW158701  12.914   4.266  12.398
52309SOL    HW258702  13.048   4.320  12.442
52310SOL     OW58703   6.964  12.732   4.941
52310SOL    HW158704   6.990  12.651   4.897
52310SOL    HW258705   6.913  12.780   4.876
52311SOL     OW58706   2.124   7.268   0.195
52311SOL    HW158707   2.097   7.360   0.200
52311SOL    HW258708   2.202   7.264   0.251
52312SOL     OW58709   7.139  11.109  10.472
52312SOL    HW158710   7.222  11.095  10.426
52312SOL    HW258711   7.150  11.065  10.556
52313SOL     OW58712   7.246   3.108   7.348
52313SOL    HW158713   7.208   3.183   7.394
52313SOL    HW258714   7.332   3.095   7.389
52314SOL     OW58715   9.008   9.428   0.552
52314SOL    HW158716   8.968   9.464   0.473
52314SOL    HW258717   8.935   9.414   0.612
52315SOL     OW58718   4.985   9.589   4.461
52315SOL    HW158719   5.009   9.680   4.479
52315SOL    HW258720   4.891   9.592   4.443
52316SOL     OW58721   8.513   9.792   8.326
52316SOL    HW158722   8.482   9.732   8.393
52316SOL    HW258723   8.455   9.777   8.251
52317SOL     OW58724  12.760   9.830   8.352
52317SOL    HW158725  12.777   9.742   8.385
52317SOL    HW258726  12.723   9.877   8.427
52318SOL     OW58727   3.838   7.010   0.504
52318SOL    HW158728   3.822   6.916   0.488
52318SOL    HW258729   3.897   7.012   0.579
52319SOL     OW58730  10.405   1.703   2.687
52319SOL    HW158731  10.369   1.618   2.663
52319SOL    HW258732  10.495   1.701   2.656
52320SOL     OW58733   0.306  12.700   7.336
52320SOL    HW158734   0.332  12.614   7.303
52320SOL    HW258735   0.344  12.704   7.423
52321SOL     OW58736   1.900   2.578   5.827
52321SOL    HW158737   1.965   2.647   5.836
52321SOL    HW258738   1.881   2.576   5.733
52322SOL     OW58739   3.966   7.173   1.326
52322SOL    HW158740   3.938   7.264   1.314
52322SOL    HW258741   3.889   7.131   1.365
52323SOL     OW58742   7.013  10.182   3.307
52323SOL    HW158743   6.957  10.133   3.368
52323SOL    HW258744   7.003  10.273   3.335
52324SOL     OW58745   7.092   5.528   2.059
52324SOL    HW158746   7.105   5.442   2.017
52324SOL    HW258747   7.099   5.510   2.153
52325SOL     OW58748  12.473   6.056  14.862
52325SOL    HW158749  12.439   5.979  14.817
52325SOL    HW258750  12.461   6.127  14.799
52326SOL     OW58751   4.716   8.001  11.066
52326SOL    HW158752   4.670   8.010  11.149
52326SOL    HW258753   4.688   8.076  11.014
52327SOL     OW58754   4.365   8.099  11.909
52327SOL    HW158755   4.424   8.175  11.911
52327SOL    HW258756   4.402   8.039  11.974
52328SOL     OW58757   4.670   4.143   2.519
52328SOL    HW158758   4.658   4.213   2.583
52328SOL    HW258759   4.759   4.111   2.535
52329SOL     OW58760   2.566   4.792   5.082
52329SOL    HW158761   2.589   4.869   5.134
52329SOL    HW258762   2.473   4.779   5.099
52330SOL     OW58763   8.661   5.824   7.829
52330SOL    HW158764   8.730   5.885   7.804
52330SOL    HW258765   8.694   5.779   7.907
52331SOL     OW58766  12.586   0.716  11.297
52331SOL    HW158767  12.624   0.632  11.271
52331SOL    HW258768  12.657   0.760  11.344
52332SOL     OW58769   7.083   9.007  12.640
52332SOL    HW158770   7.063   9.091  12.682
52332SOL    HW258771   7.043   9.014  12.553
52333SOL     OW58772   4.668  13.973   5.056
52333SOL    HW158773   4.589  13.943   5.012
52333SOL    HW258774   4.738  13.917   5.023
52334SOL     OW58775  12.709   2.039  14.054
52334SOL    HW158776  12.618   2.041  14.024
52334SOL    HW258777  12.761   2.040  13.974
52335SOL     OW58778   4.318   7.587  11.168
52335SOL    HW158779   4.252   7.545  11.112
52335SOL    HW258780   4.395   7.531  11.161
52336SOL     OW58781   2.924   7.963   6.458
52336SOL    HW158782   2.899   7.957   6.550
52336SOL    HW258783   3.000   7.906   6.450
52337SOL     OW58784   2.776   6.308  14.688
52337SOL    HW158785   2.815   6.295  14.602
52337SOL    HW258786   2.824   6.383  14.725
52338SOL     OW58787  10.017  13.418   7.125
52338SOL    HW158788  10.017  13.418   7.221
52338SOL    HW258789  10.098  13.372   7.101
52339SOL     OW58790  11.250  13.495   6.835
52339SOL    HW158791  11.291  13.482   6.749
52339SOL    HW258792  11.205  13.579   6.828
52340SOL     OW58793   7.119   0.907   8.825
52340SOL    HW158794   7.098   0.821   8.789
52340SOL    HW258795   7.212   0.903   8.846
52341SOL     OW58796   6.708   6.171  11.790
52341SOL    HW158797   6.647   6.241  11.768
52341SOL    HW258798   6.792   6.215  11.806
52342SOL     OW58799   7.214   0.433   9.912
52342SOL    HW158800   7.278   0.505   9.911
52342SOL    HW258801   7.154   0.456   9.984
52343SOL     OW58802   1.172   7.531   1.044
52343SOL    HW158803   1.236   7.528   1.116
52343SOL    HW258804   1.159   7.624   1.027
52344SOL     OW58805   9.926  14.797   8.744
52344SOL    HW158806   9.898  14.862   8.679
52344SOL    HW258807   9.852  14.737   8.751
52345SOL     OW58808   4.150  11.004   2.885
52345SOL    HW158809   4.199  10.971   2.810
52345SOL    HW258810   4.076  11.050   2.846
52346SOL     OW58811  14.507   3.732   8.360
52346SOL    HW158812  14.479   3.644   8.338
52346SOL    HW258813  14.427   3.776   8.388
52347SOL     OW58814   9.701   4.022  14.524
52347SOL    HW158815   9.635   4.059  14.582
52347SOL    HW258816   9.650   3.974  14.458
52348SOL     OW58817   5.730   0.792   5.500
52348SOL    HW158818   5.752   0.884   5.508
52348SOL    HW258819   5.768   0.751   5.578
52349SOL     OW58820   3.462   1.751  13.543
52349SOL    HW158821   3.489   1.841  13.530
52349SOL    HW258822   3.427   1.723  13.458
52350SOL     OW58823  13.818   5.053   6.098
52350SOL    HW158824  13.891   5.061   6.160
52350SOL    HW258825  13.856   5.078   6.014
52351SOL     OW58826   4.354   0.861  13.479
52351SOL    HW158827   4.358   0.803  13.403
52351SOL    HW258828   4.434   0.913  13.473
52352SOL     OW58829  11.637  10.682  10.400
52352SOL    HW158830  11.618  10.606  10.454
52352SOL    HW258831  11.653  10.753  10.462
52353SOL     OW58832   4.193   1.574   6.522
52353SOL    HW158833   4.243   1.609   6.449
52353SOL    HW258834   4.259   1.548   6.587
52354SOL     OW58835   9.011  12.923   7.272
52354SOL    HW158836   8.992  12.919   7.178
52354SOL    HW258837   9.019  13.017   7.291
52355SOL     OW58838   7.859   4.555  11.064
52355SOL    HW158839   7.788   4.536  11.004
52355SOL    HW258840   7.816   4.572  11.148
52356SOL     OW58841   4.030   3.750   1.298
52356SOL    HW158842   3.990   3.764   1.384
52356SOL    HW258843   4.124   3.746   1.315
52357SOL     OW58844   0.854   7.947   6.211
52357SOL    HW158845   0.827   7.955   6.120
52357SOL    HW258846   0.773   7.957   6.261
52358SOL     OW58847   6.777   7.545   4.820
52358SOL    HW158848   6.736   7.567   4.736
52358SOL    HW258849   6.759   7.622   4.876
52359SOL     OW58850   2.675  11.805  11.629
52359SOL    HW158851   2.693  11.867  11.559
52359SOL    HW258852   2.676  11.719  11.587
52360SOL     OW58853   5.049   1.977   1.118
52360SOL    HW158854   5.002   1.937   1.191
52360SOL    HW258855   5.114   2.035   1.160
52361SOL     OW58856   4.454  10.686   7.112
52361SOL    HW158857   4.377  10.629   7.105
52361SOL    HW258858   4.522  10.642   7.062
52362SOL     OW58859  11.470  11.479   8.105
52362SOL    HW158860  11.468  11.436   8.191
52362SOL    HW258861  11.544  11.438   8.060
52363SOL     OW58862   0.207   8.813   2.135
52363SOL    HW158863   0.124   8.808   2.087
52363SOL    HW258864   0.272   8.779   2.074
52364SOL     OW58865  10.756   5.610   4.101
52364SOL    HW158866  10.795   5.525   4.119
52364SOL    HW258867  10.820   5.673   4.135
52365SOL     OW58868   8.587   7.798  13.791
52365SOL    HW158869   8.662   7.846  13.756
52365SOL    HW258870   8.595   7.805  13.886
52366SOL     OW58871  13.971   4.788   6.679
52366SOL    HW158872  13.999   4.745   6.599
52366SOL    HW258873  13.877   4.773   6.682
52367SOL     OW58874   1.233   8.130   7.687
52367SOL    HW158875   1.184   8.085   7.618
52367SOL    HW258876   1.289   8.062   7.726
52368SOL     OW58877   7.909   3.370   0.771
52368SOL    HW158878   7.908   3.466   0.771
52368SOL    HW258879   7.848   3.346   0.842
52369SOL     OW58880   8.865   9.876   6.533
52369SOL    HW158881   8.909   9.806   6.581
52369SOL    HW258882   8.926   9.949   6.536
52370SOL     OW58883   7.590   4.371   0.235
52370SOL    HW158884   7.599   4.318   0.314
52370SOL    HW258885   7.511   4.423   0.250
52371SOL     OW58886   3.091   1.039  11.589
52371SOL    HW158887   3.168   1.050  11.644
52371SOL    HW258888   3.018   1.028  11.650
52372SOL     OW58889   3.466  14.116   9.701
52372SOL    HW158890   3.560  14.133   9.689
52372SOL    HW258891   3.423  14.169   9.635
52373SOL     OW58892   7.959   2.560   0.335
52373SOL    HW158893   7.920   2.523   0.256
52373SOL    HW258894   8.020   2.626   0.303
52374SOL     OW58895   7.515   6.435   1.557
52374SOL    HW158896   7.486   6.437   1.648
52374SOL    HW258897   7.536   6.526   1.537
52375SOL     OW58898   4.266   0.896   3.574
52375SOL    HW158899   4.174   0.877   3.558
52375SOL    HW258900   4.311   0.814   3.554
52376SOL     OW58901   6.030  10.191  13.450
52376SOL    HW158902   6.056  10.236  13.530
52376SOL    HW258903   6.081  10.110  13.451
52377SOL     OW58904  12.637  13.248   1.348
52377SOL    HW158905  12.638  13.279   1.439
52377SOL    HW258906  12.665  13.323   1.296
52378SOL     OW58907   9.833   3.683   9.605
52378SOL    HW158908   9.811   3.737   9.529
52378SOL    HW258909   9.920   3.647   9.585
52379SOL     OW58910   0.486   6.503   8.931
52379SOL    HW158911   0.566   6.545   8.901
52379SOL    HW258912   0.488   6.511   9.026
52380SOL     OW58913   8.596  14.070  10.865
52380SOL    HW158914   8.663  14.059  10.797
52380SOL    HW258915   8.644  14.063  10.948
52381SOL     OW58916  13.232   9.169   1.836
52381SOL    HW158917  13.261   9.111   1.906
52381SOL    HW258918  13.256   9.257   1.867
52382SOL     OW58919   7.305   2.987   6.008
52382SOL    HW158920   7.363   2.967   6.081
52382SOL    HW258921   7.221   2.949   6.033
52383SOL     OW58922   5.187  10.268   0.389
52383SOL    HW158923   5.120  10.257   0.321
52383SOL    HW258924   5.143  10.240   0.469
52384SOL     OW58925   0.042   4.526   0.929
52384SOL    HW158926  14.828   4.541   0.904
52384SOL    HW258927   0.089   4.521   0.846
52385SOL     OW58928   1.980   7.696   9.191
52385SOL    HW158929   1.895   7.716   9.152
52385SOL    HW258930   2.042   7.752   9.144
52386SOL     OW58931  14.108  11.652   1.338
52386SOL    HW158932  14.018  11.629   1.317
52386SOL    HW258933  14.158  11.627   1.261
52387SOL     OW58934   4.413   4.957   4.157
52387SOL    HW158935   4.361   4.883   4.189
52387SOL    HW258936   4.350   5.029   4.150
52388SOL     OW58937   3.797   3.702   8.905
52388SOL    HW158938   3.821   3.791   8.932
52388SOL    HW258939   3.726   3.715   8.842
52389SOL     OW58940   3.065  10.209   8.041
52389SOL    HW158941   3.028  10.291   8.007
52389SOL    HW258942   3.002  10.142   8.015
52390SOL     OW58943   3.795  10.212   3.386
52390SOL    HW158944   3.858  10.271   3.427
52390SOL    HW258945   3.732  10.269   3.344
52391SOL     OW58946   2.996   4.300   6.385
52391SOL    HW158947   3.062   4.306   6.454
52391SOL    HW258948   3.030   4.355   6.314
52392SOL     OW58949  13.962   3.843   4.141
52392SOL    HW158950  13.966   3.783   4.067
52392SOL    HW258951  13.879   3.889   4.131
52393SOL     OW58952   1.010  12.279   9.970
52393SOL    HW158953   0.924  12.241   9.955
52393SOL    HW258954   0.995  12.373   9.975
52394SOL     OW58955   0.423   5.965   2.511
52394SOL    HW158956   0.452   5.988   2.599
52394SOL    HW258957   0.347   6.022   2.495
52395SOL     OW58958   5.448   1.114  13.567
52395SOL    HW158959   5.419   1.148  13.483
52395SOL    HW258960   5.396   1.035  13.580
52396SOL     OW58961  11.991  13.514   4.569
52396SOL    HW158962  12.082  13.543   4.561
52396SOL    HW258963  11.947  13.585   4.615
52397SOL     OW58964   4.043   3.783   1.678
52397SOL    HW158965   4.064   3.691   1.696
52397SOL    HW258966   3.985   3.809   1.750
52398SOL     OW58967   7.820   0.334  13.804
52398SOL    HW158968   7.860   0.253  13.836
52398SOL    HW258969   7.891   0.381  13.762
52399SOL     OW58970   1.372   1.079   4.966
52399SOL    HW158971   1.409   1.149   5.020
52399SOL    HW258972   1.401   1.100   4.877
52400SOL     OW58973  10.022  11.226  13.968
52400SOL    HW158974  10.079  11.230  14.045
52400SOL    HW258975  10.075  11.185  13.900
52401SOL     OW58976   4.980  12.541  11.210
52401SOL    HW158977   4.931  12.589  11.276
52401SOL    HW258978   5.017  12.608  11.153
52402SOL     OW58979   1.104   3.637  11.845
52402SOL    HW158980   1.111   3.693  11.923
52402SOL    HW258981   1.015   3.602  11.850
52403SOL     OW58982   1.377   9.716   4.328
52403SOL    HW158983   1.339   9.786   4.275
52403SOL    HW258984   1.454   9.756   4.369
52404SOL     OW58985   9.090  11.103  12.910
52404SOL    HW158986   9.131  11.046  12.975
52404SOL    HW258987   9.118  11.067  12.825
52405SOL     OW58988  10.991  12.672   4.007
52405SOL    HW158989  11.014  12.713   3.923
52405SOL    HW258990  11.072  12.628   4.035
52406SOL     OW58991   9.042   7.697   0.867
52406SOL    HW158992   9.115   7.697   0.804
52406SOL    HW258993   9.050   7.612   0.911
52407SOL     OW58994   6.710   6.716  14.063
52407SOL    HW158995   6.690   6.755  13.978
52407SOL    HW258996   6.723   6.790  14.121
52408SOL     OW58997   9.724   4.270   6.568
52408SOL    HW158998   9.765   4.218   6.500
52408SOL    HW258999   9.777   4.350   6.573
52409SOL     OW59000   2.180   5.358  12.781
52409SOL    HW159001   2.183   5.285  12.843
52409SOL    HW259002   2.091   5.355  12.745
52410SOL     OW59003  10.366  12.452   1.167
52410SOL    HW159004  10.380  12.513   1.095
52410SOL    HW259005  10.452  12.416   1.186
52411SOL     OW59006  14.591   5.479   3.213
52411SOL    HW159007  14.552   5.525   3.287
52411SOL    HW259008  14.546   5.514   3.137
52412SOL     OW59009   1.333   2.383  12.646
52412SOL    HW159010   1.378   2.401  12.563
52412SOL    HW259011   1.260   2.445  12.648
52413SOL     OW59012   3.735  10.154   8.660
52413SOL    HW159013   3.667  10.209   8.622
52413SOL    HW259014   3.806  10.156   8.596
52414SOL     OW59015  10.792   1.657  11.574
52414SOL    HW159016  10.880   1.683  11.602
52414SOL    HW259017  10.734   1.689  11.643
52415SOL     OW59018  12.231  12.194  12.427
52415SOL    HW159019  12.318  12.230  12.412
52415SOL    HW259020  12.185  12.206  12.344
52416SOL     OW59021  11.505   8.295   9.596
52416SOL    HW159022  11.434   8.343   9.554
52416SOL    HW259023  11.554   8.256   9.524
52417SOL     OW59024  10.180  11.417   9.478
52417SOL    HW159025  10.254  11.463   9.520
52417SOL    HW259026  10.208  11.406   9.387
52418SOL     OW59027   3.009   3.882  11.038
52418SOL    HW159028   2.981   3.817  11.103
52418SOL    HW259029   2.932   3.894  10.981
52419SOL     OW59030  14.152   9.284   6.235
52419SOL    HW159031  14.057   9.297   6.244
52419SOL    HW259032  14.160   9.218   6.166
52420SOL     OW59033   5.838   6.752   4.256
52420SOL    HW159034   5.811   6.838   4.288
52420SOL    HW259035   5.898   6.771   4.184
52421SOL     OW59036   6.150   0.946   9.878
52421SOL    HW159037   6.102   1.018   9.836
52421SOL    HW259038   6.184   0.985   9.958
52422SOL     OW59039   2.180   3.580   0.679
52422SOL    HW159040   2.267   3.542   0.671
52422SOL    HW259041   2.175   3.613   0.769
52423SOL     OW59042   9.182   8.655  13.396
52423SOL    HW159043   9.198   8.686  13.307
52423SOL    HW259044   9.120   8.583  13.385
52424SOL     OW59045   8.508  12.774   3.362
52424SOL    HW159046   8.501  12.737   3.274
52424SOL    HW259047   8.544  12.702   3.415
52425SOL     OW59048   0.044   8.200  14.804
52425SOL    HW159049   0.137   8.219  14.789
52425SOL    HW259050   0.043   8.108  14.831
52426SOL     OW59051   3.811   3.617   5.455
52426SOL    HW159052   3.740   3.672   5.422
52426SOL    HW259053   3.855   3.585   5.377
52427SOL     OW59054  14.069   9.905  13.534
52427SOL    HW159055  14.145   9.846  13.530
52427SOL    HW259056  14.008   9.861  13.593
52428SOL     OW59057   1.076  11.378   1.411
52428SOL    HW159058   1.088  11.461   1.365
52428SOL    HW259059   1.154  11.370   1.467
52429SOL     OW59060   8.620   9.517  11.256
52429SOL    HW159061   8.668   9.552  11.182
52429SOL    HW259062   8.560   9.588  11.281
52430SOL     OW59063   0.447   0.975   6.282
52430SOL    HW159064   0.488   0.894   6.311
52430SOL    HW259065   0.521   1.031   6.258
52431SOL     OW59066   1.963  13.565   0.290
52431SOL    HW159067   1.958  13.523   0.204
52431SOL    HW259068   1.879  13.544   0.332
52432SOL     OW59069   5.074   4.853   8.729
52432SOL    HW159070   5.029   4.887   8.651
52432SOL    HW259071   5.080   4.759   8.715
52433SOL     OW59072   6.195   5.120  10.753
52433SOL    HW159073   6.191   5.148  10.845
52433SOL    HW259074   6.122   5.058  10.744
52434SOL     OW59075   8.880  14.686   2.593
52434SOL    HW159076   8.873  14.774   2.556
52434SOL    HW259077   8.965  14.655   2.562
52435SOL     OW59078  14.857   5.418   5.601
52435SOL    HW159079   0.046   5.456   5.658
52435SOL    HW259080  14.860   5.471   5.522
52436SOL     OW59081   3.955   1.921   9.116
52436SOL    HW159082   4.006   1.875   9.050
52436SOL    HW259083   4.016   1.987   9.151
52437SOL     OW59084  11.014  10.591   9.998
52437SOL    HW159085  11.016  10.564   9.906
52437SOL    HW259086  10.999  10.686   9.994
52438SOL     OW59087   2.962   2.784   8.139
52438SOL    HW159088   2.968   2.767   8.233
52438SOL    HW259089   2.887   2.733   8.110
52439SOL     OW59090  12.204  13.958   0.075
52439SOL    HW159091  12.256  13.919   0.145
52439SOL    HW259092  12.253  14.037   0.050
52440SOL     OW59093   7.370   3.182   3.573
52440SOL    HW159094   7.357   3.089   3.554
52440SOL    HW259095   7.464   3.196   3.561
52441SOL     OW59096  14.559   5.050   7.816
52441SOL    HW159097  14.549   5.051   7.911
52441SOL    HW259098  14.553   4.957   7.793
52442SOL     OW59099  14.625  14.485   2.817
52442SOL    HW159100  14.686  14.425   2.860
52442SOL    HW259101  14.539  14.444   2.828
52443SOL     OW59102   0.814   2.622   8.845
52443SOL    HW159103   0.776   2.595   8.928
52443SOL    HW259104   0.800   2.547   8.787
52444SOL     OW59105   5.994   7.320   1.145
52444SOL    HW159106   5.999   7.228   1.174
52444SOL    HW259107   6.069   7.331   1.087
52445SOL     OW59108   2.715  12.194   2.283
52445SOL    HW159109   2.792  12.140   2.303
52445SOL    HW259110   2.751  12.275   2.247
52446SOL     OW59111  13.726   0.752  13.236
52446SOL    HW159112  13.787   0.684  13.267
52446SOL    HW259113  13.773   0.834  13.249
52447SOL     OW59114  10.584   4.897   3.042
52447SOL    HW159115  10.649   4.833   3.013
52447SOL    HW259116  10.613   4.924   3.129
52448SOL     OW59117   3.361   9.570   8.195
52448SOL    HW159118   3.388   9.502   8.257
52448SOL    HW259119   3.424   9.641   8.209
52449SOL     OW59120  11.358   4.402  10.282
52449SOL    HW159121  11.423   4.464  10.316
52449SOL    HW259122  11.327   4.355  10.360
52450SOL     OW59123   6.326  12.890   2.228
52450SOL    HW159124   6.394  12.956   2.215
52450SOL    HW259125   6.309  12.855   2.140
52451SOL     OW59126   5.043   6.491   1.728
52451SOL    HW159127   4.961   6.531   1.757
52451SOL    HW259128   5.046   6.508   1.633
52452SOL     OW59129   9.300   9.120   6.692
52452SOL    HW159130   9.238   9.169   6.638
52452SOL    HW259131   9.363   9.084   6.630
52453SOL     OW59132  13.970   7.411   4.347
52453SOL    HW159133  13.942   7.347   4.412
52453SOL    HW259134  13.963   7.364   4.263
52454SOL     OW59135   1.180  14.693   4.802
52454SOL    HW159136   1.172  14.635   4.727
52454SOL    HW259137   1.262  14.740   4.788
52455SOL     OW59138   4.431   8.127  10.021
52455SOL    HW159139   4.487   8.110  10.097
52455SOL    HW259140   4.357   8.067  10.032
52456SOL     OW59141  11.460   7.054   3.631
52456SOL    HW159142  11.407   7.049   3.710
52456SOL    HW259143  11.469   6.963   3.602
52457SOL     OW59144   3.249   2.746   8.172
52457SOL    HW159145   3.158   2.772   8.188
52457SOL    HW259146   3.244   2.652   8.153
52458SOL     OW59147  11.361   5.587  13.576
52458SOL    HW159148  11.322   5.501  13.589
52458SOL    HW259149  11.286   5.646  13.569
52459SOL     OW59150   4.484   7.347  11.098
52459SOL    HW159151   4.407   7.294  11.080
52459SOL    HW259152   4.524   7.361  11.012
52460SOL     OW59153   9.578   1.818  10.513
52460SOL    HW159154   9.557   1.853  10.427
52460SOL    HW259155   9.547   1.727  10.510
52461SOL     OW59156   8.448  10.246   6.462
52461SOL    HW159157   8.543  10.257   6.468
52461SOL    HW259158   8.436  10.154   6.436
52462SOL     OW59159  11.111  14.283   9.031
52462SOL    HW159160  11.030  14.270   9.081
52462SOL    HW259161  11.106  14.374   9.001
52463SOL     OW59162   0.564   7.971  11.908
52463SOL    HW159163   0.542   7.978  12.000
52463SOL    HW259164   0.576   7.877  11.893
52464SOL     OW59165   1.144   6.443  10.656
52464SOL    HW159166   1.111   6.370  10.708
52464SOL    HW259167   1.141   6.518  10.715
52465SOL     OW59168   0.828  13.670   7.369
52465SOL    HW159169   0.749  13.616   7.374
52465SOL    HW259170   0.863  13.653   7.282
52466SOL     OW59171   4.217   5.170   0.710
52466SOL    HW159172   4.311   5.159   0.724
52466SOL    HW259173   4.208   5.180   0.615
52467SOL     OW59174  13.545   4.218   7.155
52467SOL    HW159175  13.547   4.127   7.185
52467SOL    HW259176  13.637   4.244   7.151
52468SOL     OW59177   7.783   2.739   9.849
52468SOL    HW159178   7.772   2.786   9.767
52468SOL    HW259179   7.789   2.808   9.915
52469SOL     OW59180  11.637  13.731  14.584
52469SOL    HW159181  11.617  13.699  14.496
52469SOL    HW259182  11.702  13.800  14.570
52470SOL     OW59183  12.387  13.613  12.900
52470SOL    HW159184  12.315  13.662  12.859
52470SOL    HW259185  12.444  13.591  12.826
52471SOL     OW59186  12.584   0.950  13.989
52471SOL    HW159187  12.498   0.945  13.949
52471SOL    HW259188  12.598   1.044  14.004
52472SOL     OW59189   0.373   5.518   8.726
52472SOL    HW159190   0.320   5.581   8.775
52472SOL    HW259191   0.375   5.552   8.637
52473SOL     OW59192   7.107   1.815   6.624
52473SOL    HW159193   7.134   1.796   6.714
52473SOL    HW259194   7.014   1.792   6.622
52474SOL     OW59195  12.956   6.237  10.100
52474SOL    HW159196  13.004   6.283  10.169
52474SOL    HW259197  12.891   6.300  10.070
52475SOL     OW59198   9.616   0.027  13.794
52475SOL    HW159199   9.671   0.013  13.871
52475SOL    HW259200   9.595  14.816  13.763
52476SOL     OW59201  13.344   5.131  10.298
52476SOL    HW159202  13.426   5.166  10.333
52476SOL    HW259203  13.371   5.068  10.232
52477SOL     OW59204   5.088   5.823   1.877
52477SOL    HW159205   5.158   5.845   1.939
52477SOL    HW259206   5.036   5.756   1.921
52478SOL     OW59207   5.454   1.210   1.790
52478SOL    HW159208   5.544   1.220   1.822
52478SOL    HW259209   5.461   1.224   1.695
52479SOL     OW59210   2.281   5.978  11.102
52479SOL    HW159211   2.317   6.050  11.052
52479SOL    HW259212   2.189   6.002  11.117
52480SOL     OW59213  13.754  12.490   3.467
52480SOL    HW159214  13.845  12.518   3.479
52480SOL    HW259215  13.761  12.399   3.438
52481SOL     OW59216   8.725   7.938   4.415
52481SOL    HW159217   8.795   7.977   4.467
52481SOL    HW259218   8.771   7.897   4.341
52482SOL     OW59219  12.218   9.404   2.112
52482SOL    HW159220  12.251   9.368   2.030
52482SOL    HW259221  12.155   9.340   2.144
52483SOL     OW59222   2.290   2.522  11.084
52483SOL    HW159223   2.196   2.521  11.101
52483SOL    HW259224   2.306   2.441  11.034
52484SOL     OW59225   5.155   1.144   6.669
52484SOL    HW159226   5.171   1.219   6.727
52484SOL    HW259227   5.216   1.077   6.699
52485SOL     OW59228   4.526   5.124   0.682
52485SOL    HW159229   4.537   5.216   0.708
52485SOL    HW259230   4.593   5.077   0.732
52486SOL     OW59231   4.013   7.286  13.917
52486SOL    HW159232   3.991   7.214  13.975
52486SOL    HW259233   4.091   7.326  13.955
52487SOL     OW59234  10.474  13.519   7.002
52487SOL    HW159235  10.508  13.609   7.002
52487SOL    HW259236  10.408  13.519   7.071
52488SOL     OW59237   5.111  14.667   1.362
52488SOL    HW159238   5.123  14.752   1.319
52488SOL    HW259239   5.078  14.610   1.293
52489SOL     OW59240   0.436   8.439  13.835
52489SOL    HW159241   0.368   8.378  13.804
52489SOL    HW259242   0.386   8.515  13.865
52490SOL     OW59243  11.852  10.571   3.842
52490SOL    HW159244  11.850  10.581   3.937
52490SOL    HW259245  11.838  10.660   3.808
52491SOL     OW59246   9.042   9.253  10.244
52491SOL    HW159247   9.089   9.192  10.186
52491SOL    HW259248   9.067   9.340  10.213
52492SOL     OW59249   1.490  13.680   7.678
52492SOL    HW159250   1.441  13.644   7.605
52492SOL    HW259251   1.449  13.765   7.694
52493SOL     OW59252   6.729  12.395  14.058
52493SOL    HW159253   6.817  12.400  14.097
52493SOL    HW259254   6.728  12.466  13.993
52494SOL     OW59255   7.393   3.592   6.487
52494SOL    HW159256   7.422   3.557   6.403
52494SOL    HW259257   7.343   3.670   6.465
52495SOL     OW59258  14.863   0.937   8.003
52495SOL    HW159259  14.817   1.000   7.947
52495SOL    HW259260   0.067   0.918   7.956
52496SOL     OW59261   8.430  11.668   9.939
52496SOL    HW159262   8.430  11.627  10.025
52496SOL    HW259263   8.419  11.762   9.957
52497SOL     OW59264   4.223   2.432  13.875
52497SOL    HW159265   4.319   2.431  13.868
52497SOL    HW259266   4.206   2.409  13.966
52498SOL     OW59267  11.363   1.759   7.554
52498SOL    HW159268  11.268   1.762   7.558
52498SOL    HW259269  11.389   1.849   7.533
52499SOL     OW59270  13.150   9.008   8.952
52499SOL    HW159271  13.183   9.083   9.000
52499SOL    HW259272  13.056   9.022   8.944
52500SOL     OW59273   9.701   5.311   5.058
52500SOL    HW159274   9.691   5.217   5.043
52500SOL    HW259275   9.644   5.330   5.133
52501SOL     OW59276   2.729   4.497  12.011
52501SOL    HW159277   2.694   4.575  11.969
52501SOL    HW259278   2.680   4.425  11.973
52502SOL     OW59279  13.578   5.320   9.458
52502SOL    HW159280  13.500   5.299   9.509
52502SOL    HW259281  13.647   5.334   9.524
52503SOL     OW59282   7.995   7.603   1.888
52503SOL    HW159283   7.930   7.617   1.957
52503SOL    HW259284   8.036   7.688   1.875
52504SOL     OW59285   9.695   4.723  12.190
52504SOL    HW159286   9.661   4.633  12.193
52504SOL    HW259287   9.764   4.725  12.256
52505SOL     OW59288   7.697  10.839   4.400
52505SOL    HW159289   7.694  10.751   4.437
52505SOL    HW259290   7.707  10.826   4.306
52506SOL     OW59291  13.948   1.873   0.908
52506SOL    HW159292  13.865   1.883   0.861
52506SOL    HW259293  13.934   1.798   0.966
52507SOL     OW59294   2.214  11.439   3.977
52507SOL    HW159295   2.172  11.377   3.917
52507SOL    HW259296   2.305  11.442   3.949
52508SOL     OW59297   6.460   9.264   7.795
52508SOL    HW159298   6.548   9.233   7.773
52508SOL    HW259299   6.468   9.359   7.796
52509SOL     OW59300  14.566   6.046   4.253
52509SOL    HW159301  14.509   6.118   4.280
52509SOL    HW259302  14.573   6.055   4.158
52510SOL     OW59303   7.644   6.141   7.630
52510SOL    HW159304   7.710   6.209   7.622
52510SOL    HW259305   7.590   6.169   7.705
52511SOL     OW59306  11.911   8.584  14.356
52511SOL    HW159307  11.879   8.495  14.344
52511SOL    HW259308  11.861   8.617  14.431
52512SOL     OW59309  13.365   5.744   2.753
52512SOL    HW159310  13.453   5.773   2.730
52512SOL    HW259311  13.316   5.826   2.769
52513SOL     OW59312   7.429   1.453  12.881
52513SOL    HW159313   7.410   1.413  12.797
52513SOL    HW259314   7.505   1.404  12.914
52514SOL     OW59315  14.643   5.348  13.448
52514SOL    HW159316  14.630   5.442  13.443
52514SOL    HW259317  14.576   5.317  13.509
52515SOL     OW59318   1.334   3.291   1.888
52515SOL    HW159319   1.354   3.249   1.972
52515SOL    HW259320   1.373   3.235   1.822
52516SOL     OW59321   8.921   1.894  11.071
52516SOL    HW159322   8.976   1.833  11.021
52516SOL    HW259323   8.832   1.871  11.045
52517SOL     OW59324   8.695   6.299   6.860
52517SOL    HW159325   8.665   6.365   6.922
52517SOL    HW259326   8.789   6.314   6.852
52518SOL     OW59327   4.875   3.744   3.823
52518SOL    HW159328   4.853   3.653   3.803
52518SOL    HW259329   4.813   3.769   3.891
52519SOL     OW59330   1.871  12.906   0.610
52519SOL    HW159331   1.801  12.925   0.548
52519SOL    HW259332   1.847  12.822   0.649
52520SOL     OW59333   8.909  10.230   8.123
52520SOL    HW159334   8.901  10.139   8.095
52520SOL    HW259335   9.000  10.238   8.152
52521SOL     OW59336   9.702  12.039   8.988
52521SOL    HW159337   9.783  12.082   8.962
52521SOL    HW259338   9.700  11.958   8.937
52522SOL     OW59339   9.980   0.401   6.575
52522SOL    HW159340  10.050   0.352   6.619
52522SOL    HW259341  10.024   0.441   6.500
52523SOL     OW59342   6.646   3.859  12.005
52523SOL    HW159343   6.601   3.793  12.059
52523SOL    HW259344   6.584   3.931  11.999
52524SOL     OW59345  13.723   6.454   0.253
52524SOL    HW159346  13.723   6.361   0.234
52524SOL    HW259347  13.720   6.460   0.348
52525SOL     OW59348   8.697   0.288  12.589
52525SOL    HW159349   8.753   0.212  12.578
52525SOL    HW259350   8.645   0.291  12.508
52526SOL     OW59351   2.549   1.974   1.244
52526SOL    HW159352   2.487   1.965   1.172
52526SOL    HW259353   2.497   2.011   1.316
52527SOL     OW59354   8.019   2.651   7.827
52527SOL    HW159355   8.033   2.739   7.795
52527SOL    HW259356   8.086   2.598   7.784
52528SOL     OW59357   8.517   7.258  11.666
52528SOL    HW159358   8.483   7.177  11.705
52528SOL    HW259359   8.479   7.260  11.578
52529SOL     OW59360   0.611   1.599   7.872
52529SOL    HW159361   0.535   1.570   7.822
52529SOL    HW259362   0.646   1.673   7.823
52530SOL     OW59363  13.049   2.482   7.824
52530SOL    HW159364  12.962   2.516   7.802
52530SOL    HW259365  13.104   2.509   7.750
52531SOL     OW59366  11.134  11.238   3.977
52531SOL    HW159367  11.044  11.242   3.943
52531SOL    HW259368  11.166  11.153   3.948
52532SOL     OW59369  11.435   1.878   2.332
52532SOL    HW159370  11.374   1.905   2.401
52532SOL    HW259371  11.378   1.853   2.259
52533SOL     OW59372   1.192  11.287   7.089
52533SOL    HW159373   1.199  11.326   7.176
52533SOL    HW259374   1.283  11.277   7.060
52534SOL     OW59375   8.315  12.772   0.900
52534SOL    HW159376   8.278  12.859   0.912
52534SOL    HW259377   8.377  12.762   0.973
52535SOL     OW59378  10.310   3.507   1.167
52535SOL    HW159379  10.271   3.422   1.188
52535SOL    HW259380  10.401   3.500   1.196
52536SOL     OW59381  11.860   9.373   9.817
52536SOL    HW159382  11.827   9.333   9.898
52536SOL    HW259383  11.890   9.299   9.765
52537SOL     OW59384   9.416   8.361   0.071
52537SOL    HW159385   9.454   8.306   0.002
52537SOL    HW259386   9.437   8.451   0.044
52538SOL     OW59387   3.607  13.405   1.067
52538SOL    HW159388   3.677  13.465   1.091
52538SOL    HW259389   3.528  13.459   1.070
52539SOL     OW59390   4.292   5.686  10.118
52539SOL    HW159391   4.277   5.612  10.059
52539SOL    HW259392   4.210   5.737  10.114
52540SOL     OW59393   4.647  12.845   0.286
52540SOL    HW159394   4.556  12.821   0.269
52540SOL    HW259395   4.694  12.822   0.206
52541SOL     OW59396   7.805   6.567   1.703
52541SOL    HW159397   7.750   6.571   1.624
52541SOL    HW259398   7.829   6.658   1.719
52542SOL     OW59399  14.341  12.410   3.765
52542SOL    HW159400  14.370  12.486   3.815
52542SOL    HW259401  14.415  12.389   3.709
52543SOL     OW59402  12.350  10.770   6.032
52543SOL    HW159403  12.268  10.755   5.986
52543SOL    HW259404  12.358  10.865   6.038
52544SOL     OW59405   9.742  14.157   8.253
52544SOL    HW159406   9.682  14.095   8.294
52544SOL    HW259407   9.688  14.206   8.191
52545SOL     OW59408   9.349   3.807  10.804
52545SOL    HW159409   9.352   3.715  10.776
52545SOL    HW259410   9.377   3.856  10.727
52546SOL     OW59411   2.770   6.667   0.149
52546SOL    HW159412   2.681   6.666   0.184
52546SOL    HW259413   2.781   6.756   0.114
52547SOL     OW59414   4.042   3.598   7.422
52547SOL    HW159415   3.989   3.525   7.390
52547SOL    HW259416   3.985   3.675   7.413
52548SOL     OW59417   5.895  13.640   3.937
52548SOL    HW159418   5.940  13.630   3.854
52548SOL    HW259419   5.906  13.733   3.959
52549SOL     OW59420   4.287   3.103   1.174
52549SOL    HW159421   4.369   3.088   1.128
52549SOL    HW259422   4.313   3.113   1.266
52550SOL     OW59423   8.761   2.130   7.418
52550SOL    HW159424   8.685   2.171   7.377
52550SOL    HW259425   8.829   2.133   7.351
52551SOL     OW59426   3.383  10.679   1.636
52551SOL    HW159427   3.300  10.659   1.681
52551SOL    HW259428   3.446  10.692   1.707
52552SOL     OW59429   4.189   9.262   9.440
52552SOL    HW159430   4.190   9.170   9.467
52552SOL    HW259431   4.182   9.311   9.522
52553SOL     OW59432  12.927   7.800  11.026
52553SOL    HW159433  12.906   7.864  10.958
52553SOL    HW259434  13.005   7.756  10.993
52554SOL     OW59435   3.247   5.003   2.440
52554SOL    HW159436   3.315   4.972   2.500
52554SOL    HW259437   3.180   5.040   2.497
52555SOL     OW59438   8.373   8.953   1.577
52555SOL    HW159439   8.386   8.964   1.672
52555SOL    HW259440   8.360   9.043   1.545
52556SOL     OW59441   7.386   9.375   4.707
52556SOL    HW159442   7.339   9.295   4.731
52556SOL    HW259443   7.420   9.409   4.790
52557SOL     OW59444   2.336  10.130   6.389
52557SOL    HW159445   2.354  10.224   6.379
52557SOL    HW259446   2.336  10.096   6.299
52558SOL     OW59447   0.947  11.747  12.388
52558SOL    HW159448   0.877  11.707  12.337
52558SOL    HW259449   0.904  11.777  12.469
52559SOL     OW59450   7.625   8.148   6.701
52559SOL    HW159451   7.683   8.072   6.700
52559SOL    HW259452   7.685   8.223   6.707
52560SOL     OW59453  14.024  13.169  13.746
52560SOL    HW159454  14.013  13.263  13.733
52560SOL    HW259455  13.939  13.131  13.723
52561SOL     OW59456   5.501  10.189   0.913
52561SOL    HW159457   5.513  10.283   0.903
52561SOL    HW259458   5.520  10.172   1.005
52562SOL     OW59459  11.630   9.001   9.655
52562SOL    HW159460  11.717   8.984   9.690
52562SOL    HW259461  11.627   8.951   9.574
52563SOL     OW59462   6.978  10.815  11.136
52563SOL    HW159463   6.937  10.896  11.167
52563SOL    HW259464   6.974  10.756  11.211
52564SOL     OW59465   9.277   6.685  12.389
52564SOL    HW159466   9.306   6.702  12.299
52564SOL    HW259467   9.183   6.701  12.388
52565SOL     OW59468   5.081   0.724   5.248
52565SOL    HW159469   5.173   0.708   5.267
52565SOL    HW259470   5.081   0.805   5.196
52566SOL     OW59471   6.516   5.666  12.200
52566SOL    HW159472   6.565   5.725  12.257
52566SOL    HW259473   6.425   5.676  12.229
52567SOL     OW59474  12.412  12.384   7.602
52567SOL    HW159475  12.377  12.365   7.689
52567SOL    HW259476  12.499  12.422   7.619
52568SOL     OW59477  14.417   7.295   1.186
52568SOL    HW159478  14.480   7.223   1.179
52568SOL    HW259479  14.360   7.285   1.110
52569SOL     OW59480   3.444   5.387  12.040
52569SOL    HW159481   3.491   5.303  12.044
52569SOL    HW259482   3.405   5.389  11.953
52570SOL     OW59483   7.435  10.951   5.151
52570SOL    HW159484   7.369  11.019   5.137
52570SOL    HW259485   7.389  10.869   5.136
52571SOL     OW59486   2.919   4.328  14.730
52571SOL    HW159487   2.981   4.298  14.663
52571SOL    HW259488   2.838   4.346  14.681
52572SOL     OW59489   5.847  12.379   0.572
52572SOL    HW159490   5.851  12.306   0.510
52572SOL    HW259491   5.937  12.386   0.605
52573SOL     OW59492   1.758   2.758   9.540
52573SOL    HW159493   1.682   2.729   9.592
52573SOL    HW259494   1.735   2.736   9.450
52574SOL     OW59495   3.607   5.703   4.822
52574SOL    HW159496   3.649   5.721   4.906
52574SOL    HW259497   3.647   5.765   4.761
52575SOL     OW59498  12.048   4.444  12.443
52575SOL    HW159499  12.044   4.525  12.493
52575SOL    HW259500  12.134   4.445  12.401
52576SOL     OW59501   5.958  11.167   9.625
52576SOL    HW159502   5.981  11.078   9.601
52576SOL    HW259503   5.879  11.186   9.573
52577SOL     OW59504   7.314  10.634   5.519
52577SOL    HW159505   7.238  10.580   5.539
52577SOL    HW259506   7.350  10.595   5.439
52578SOL     OW59507  10.982   4.954   9.662
52578SOL    HW159508  10.943   5.011   9.596
52578SOL    HW259509  10.991   5.008   9.740
52579SOL     OW59510   8.097   0.704   7.805
52579SOL    HW159511   8.068   0.626   7.852
52579SOL    HW259512   8.047   0.703   7.724
52580SOL     OW59513   1.259  13.365   6.206
52580SOL    HW159514   1.353  13.363   6.220
52580SOL    HW259515   1.233  13.273   6.204
52581SOL     OW59516   9.985  12.327  11.166
52581SOL    HW159517  10.028  12.313  11.081
52581SOL    HW259518  10.044  12.285  11.229
52582SOL     OW59519  11.297   2.656   2.185
52582SOL    HW159520  11.374   2.618   2.143
52582SOL    HW259521  11.329   2.734   2.229
52583SOL     OW59522   1.749   9.238   0.368
52583SOL    HW159523   1.717   9.247   0.458
52583SOL    HW259524   1.808   9.163   0.371
52584SOL     OW59525   0.069  14.258  13.290
52584SOL    HW159526   0.103  14.219  13.370
52584SOL    HW259527   0.089  14.351  13.299
52585SOL     OW59528  12.857   8.703  11.741
52585SOL    HW159529  12.903   8.708  11.658
52585SOL    HW259530  12.798   8.779  11.740
52586SOL     OW59531  10.974   2.647  12.372
52586SOL    HW159532  10.906   2.611  12.429
52586SOL    HW259533  11.003   2.573  12.318
52587SOL     OW59534   2.161  14.779  14.175
52587SOL    HW159535   2.216  14.723  14.120
52587SOL    HW259536   2.072  14.760  14.149
52588SOL     OW59537   9.965   9.125   0.775
52588SOL    HW159538  10.041   9.120   0.833
52588SOL    HW259539  10.002   9.144   0.688
52589SOL     OW59540   9.312  11.948  10.579
52589SOL    HW159541   9.392  11.916  10.537
52589SOL    HW259542   9.343  12.008  10.646
52590SOL     OW59543  14.818   9.454   4.512
52590SOL    HW159544  14.781   9.543   4.513
52590SOL    HW259545  14.755   9.403   4.462
52591SOL     OW59546   6.932   5.023  10.123
52591SOL    HW159547   6.889   5.050  10.042
52591SOL    HW259548   6.867   5.041  10.191
52592SOL     OW59549  11.389  13.792   8.977
52592SOL    HW159550  11.391  13.888   8.979
52592SOL    HW259551  11.298  13.770   8.999
52593SOL     OW59552  10.269   2.515   7.477
52593SOL    HW159553  10.254   2.421   7.473
52593SOL    HW259554  10.260   2.544   7.386
52594SOL     OW59555  12.268   7.188   6.800
52594SOL    HW159556  12.246   7.281   6.813
52594SOL    HW259557  12.342   7.173   6.859
52595SOL     OW59558  14.028   2.604   3.095
52595SOL    HW159559  13.978   2.630   3.017
52595SOL    HW259560  13.980   2.643   3.168
52596SOL     OW59561   4.690   7.883   7.831
52596SOL    HW159562   4.746   7.886   7.753
52596SOL    HW259563   4.637   7.805   7.818
52597SOL     OW59564   0.200   1.273  10.138
52597SOL    HW159565   0.217   1.269  10.232
52597SOL    HW259566   0.275   1.321  10.102
52598SOL     OW59567   2.957   3.255   6.507
52598SOL    HW159568   3.018   3.228   6.575
52598SOL    HW259569   2.930   3.343   6.533
52599SOL     OW59570   0.889   8.997   0.644
52599SOL    HW159571   0.923   9.021   0.557
52599SOL    HW259572   0.861   9.080   0.683
52600SOL     OW59573   5.422  11.636   2.701
52600SOL    HW159574   5.431  11.693   2.625
52600SOL    HW259575   5.490  11.569   2.688
52601SOL     OW59576   7.776  12.301   5.667
52601SOL    HW159577   7.729  12.225   5.701
52601SOL    HW259578   7.835  12.266   5.600
52602SOL     OW59579   5.902   8.180  11.516
52602SOL    HW159580   5.859   8.172  11.431
52602SOL    HW259581   5.920   8.090  11.542
52603SOL     OW59582  13.438   0.236   0.343
52603SOL    HW159583  13.357   0.187   0.332
52603SOL    HW259584  13.428   0.313   0.287
52604SOL     OW59585   6.140  14.862   3.810
52604SOL    HW159586   6.103  14.810   3.738
52604SOL    HW259587   6.234  14.848   3.803
52605SOL     OW59588   5.821   1.061   1.712
52605SOL    HW159589   5.871   0.979   1.702
52605SOL    HW259590   5.810   1.070   1.806
52606SOL     OW59591   2.885   7.806   7.448
52606SOL    HW159592   2.843   7.723   7.426
52606SOL    HW259593   2.933   7.787   7.529
52607SOL     OW59594   4.311   6.545  11.846
52607SOL    HW159595   4.352   6.499  11.772
52607SOL    HW259596   4.325   6.638  11.827
52608SOL     OW59597   2.181   0.485  11.932
52608SOL    HW159598   2.191   0.479  12.027
52608SOL    HW259599   2.160   0.396  11.903
52609SOL     OW59600   8.955  10.962  10.610
52609SOL    HW159601   8.867  10.926  10.625
52609SOL    HW259602   9.003  10.892  10.567
52610SOL     OW59603  14.575  13.664  13.120
52610SOL    HW159604  14.548  13.579  13.086
52610SOL    HW259605  14.494  13.712  13.135
52611SOL     OW59606   1.314   4.439   4.226
52611SOL    HW159607   1.408   4.427   4.213
52611SOL    HW259608   1.295   4.398   4.310
52612SOL     OW59609  14.340   1.263   8.844
52612SOL    HW159610  14.380   1.324   8.907
52612SOL    HW259611  14.247   1.288   8.843
52613SOL     OW59612  14.176   6.063  13.572
52613SOL    HW159613  14.088   6.071  13.534
52613SOL    HW259614  14.170   5.987  13.629
52614SOL     OW59615  11.841   8.840   1.158
52614SOL    HW159616  11.870   8.788   1.233
52614SOL    HW259617  11.795   8.778   1.102
52615SOL     OW59618  10.445  11.606   1.240
52615SOL    HW159619  10.503  11.660   1.294
52615SOL    HW259620  10.424  11.661   1.165
52616SOL     OW59621  12.254   0.327   2.820
52616SOL    HW159622  12.256   0.281   2.904
52616SOL    HW259623  12.180   0.289   2.774
52617SOL     OW59624   6.624  14.574   1.464
52617SOL    HW159625   6.595  14.640   1.527
52617SOL    HW259626   6.598  14.491   1.504
52618SOL     OW59627   0.579   7.728   5.389
52618SOL    HW159628   0.634   7.672   5.442
52618SOL    HW259629   0.637   7.761   5.320
52619SOL     OW59630   3.041   1.888   8.481
52619SOL    HW159631   3.035   1.793   8.482
52619SOL    HW259632   3.125   1.907   8.440
52620SOL     OW59633   3.619   5.007  12.682
52620SOL    HW159634   3.578   4.926  12.653
52620SOL    HW259635   3.598   5.070  12.613
52621SOL     OW59636   0.846   4.815  10.420
52621SOL    HW159637   0.832   4.738  10.365
52621SOL    HW259638   0.939   4.837  10.407
52622SOL     OW59639   1.765   1.640   5.825
52622SOL    HW159640   1.848   1.643   5.777
52622SOL    HW259641   1.790   1.659   5.915
52623SOL     OW59642   9.394   7.921   3.467
52623SOL    HW159643   9.424   7.866   3.540
52623SOL    HW259644   9.319   7.874   3.431
52624SOL     OW59645  11.824   7.996  13.667
52624SOL    HW159646  11.825   8.005  13.762
52624SOL    HW259647  11.871   7.914  13.650
52625SOL     OW59648   5.555  12.212   8.673
52625SOL    HW159649   5.583  12.182   8.760
52625SOL    HW259650   5.461  12.230   8.683
52626SOL     OW59651   3.150  10.516   6.235
52626SOL    HW159652   3.156  10.533   6.329
52626SOL    HW259653   3.077  10.454   6.226
52627SOL     OW59654   5.637   7.419  14.812
52627SOL    HW159655   5.697   7.357  14.853
52627SOL    HW259656   5.558   7.368  14.795
52628SOL     OW59657  12.058  11.192   9.785
52628SOL    HW159658  12.111  11.266   9.755
52628SOL    HW259659  12.100  11.115   9.746
52629SOL     OW59660   3.222   0.429   4.391
52629SOL    HW159661   3.254   0.342   4.370
52629SOL    HW259662   3.213   0.472   4.305
52630SOL     OW59663  13.797   6.871   7.091
52630SOL    HW159664  13.785   6.953   7.044
52630SOL    HW259665  13.709   6.846   7.119
52631SOL     OW59666  12.361   0.149  12.067
52631SOL    HW159667  12.373   0.243  12.079
52631SOL    HW259668  12.444   0.110  12.096
52632SOL     OW59669  14.555   2.070   2.304
52632SOL    HW159670  14.506   2.130   2.247
52632SOL    HW259671  14.515   1.985   2.288
52633SOL     OW59672   4.389   4.580   2.504
52633SOL    HW159673   4.448   4.648   2.470
52633SOL    HW259674   4.419   4.499   2.462
52634SOL     OW59675  12.854   5.325  14.464
52634SOL    HW159676  12.785   5.383  14.493
52634SOL    HW259677  12.860   5.258  14.532
52635SOL     OW59678   4.520  10.487   9.811
52635SOL    HW159679   4.511  10.484   9.906
52635SOL    HW259680   4.510  10.395   9.783
52636SOL     OW59681  10.497   1.174   7.944
52636SOL    HW159682  10.584   1.177   7.985
52636SOL    HW259683  10.499   1.096   7.890
52637SOL     OW59684   2.937  11.410  10.388
52637SOL    HW159685   2.879  11.483  10.367
52637SOL    HW259686   3.022  11.437  10.353
52638SOL     OW59687  12.237  10.584   8.684
52638SOL    HW159688  12.183  10.640   8.739
52638SOL    HW259689  12.314  10.638   8.664
52639SOL     OW59690  10.340  12.530   5.995
52639SOL    HW159691  10.280  12.459   6.016
52639SOL    HW259692  10.355  12.574   6.079
52640SOL     OW59693   9.705   3.741   2.380
52640SOL    HW159694   9.773   3.786   2.429
52640SOL    HW259695   9.645   3.810   2.352
52641SOL     OW59696  13.645   0.646  13.952
52641SOL    HW159697  13.583   0.718  13.941
52641SOL    HW259698  13.694   0.643  13.870
52642SOL     OW59699   7.191  12.022   6.516
52642SOL    HW159700   7.252  12.095   6.505
52642SOL    HW259701   7.191  11.977   6.431
52643SOL     OW59702   4.076   2.909   9.725
52643SOL    HW159703   4.138   2.851   9.769
52643SOL    HW259704   4.107   2.912   9.634
52644SOL     OW59705  14.139   5.303   8.113
52644SOL    HW159706  14.177   5.365   8.051
52644SOL    HW259707  14.045   5.322   8.112
52645SOL     OW59708   3.415  12.716   2.899
52645SOL    HW159709   3.485  12.651   2.896
52645SOL    HW259710   3.402  12.741   2.808
52646SOL     OW59711  14.740   8.502   7.364
52646SOL    HW159712  14.652   8.465   7.363
52646SOL    HW259713  14.735   8.573   7.428
52647SOL     OW59714   7.483   2.282   1.256
52647SOL    HW159715   7.411   2.314   1.311
52647SOL    HW259716   7.539   2.233   1.316
52648SOL     OW59717   6.441   2.143  12.852
52648SOL    HW159718   6.349   2.163  12.833
52648SOL    HW259719   6.473   2.102  12.772
52649SOL     OW59720  13.661   1.038  13.722
52649SOL    HW159721  13.635   1.099  13.653
52649SOL    HW259722  13.700   0.964  13.676
52650SOL     OW59723   7.082  13.138   7.582
52650SOL    HW159724   7.125  13.053   7.583
52650SOL    HW259725   7.130  13.190   7.646
52651SOL     OW59726   9.356   4.024   2.024
52651SOL    HW159727   9.448   3.998   2.017
52651SOL    HW259728   9.330   4.044   1.934
52652SOL     OW59729   6.411   0.119   1.403
52652SOL    HW159730   6.365   0.090   1.481
52652SOL    HW259731   6.447   0.205   1.425
52653SOL     OW59732   5.532  13.542   9.490
52653SOL    HW159733   5.582  13.489   9.428
52653SOL    HW259734   5.474  13.479   9.534
52654SOL     OW59735   4.254  13.036   4.179
52654SOL    HW159736   4.286  13.044   4.089
52654SOL    HW259737   4.212  12.949   4.182
52655SOL     OW59738  10.169  12.354   7.879
52655SOL    HW159739  10.198  12.265   7.861
52655SOL    HW259740  10.223  12.382   7.953
52656SOL     OW59741   5.080  12.823   9.413
52656SOL    HW159742   5.118  12.875   9.484
52656SOL    HW259743   5.156  12.796   9.360
52657SOL     OW59744  10.610   0.745  12.535
52657SOL    HW159745  10.640   0.711  12.451
52657SOL    HW259746  10.559   0.673  12.573
52658SOL     OW59747   2.046   8.749   2.783
52658SOL    HW159748   2.040   8.791   2.869
52658SOL    HW259749   1.958   8.713   2.768
52659SOL     OW59750   8.497  12.912   2.882
52659SOL    HW159751   8.546  12.937   2.960
52659SOL    HW259752   8.405  12.921   2.907
52660SOL     OW59753   9.452   5.187  13.549
52660SOL    HW159754   9.506   5.108  13.550
52660SOL    HW259755   9.430   5.200  13.457
52661SOL     OW59756   2.724   3.959   6.669
52661SOL    HW159757   2.716   3.950   6.764
52661SOL    HW259758   2.814   3.989   6.656
52662SOL     OW59759   0.198   8.446  11.479
52662SOL    HW159760   0.201   8.350  11.485
52662SOL    HW259761   0.117   8.470  11.523
52663SOL     OW59762  14.346   9.519   7.507
52663SOL    HW159763  14.357   9.567   7.589
52663SOL    HW259764  14.432   9.479   7.491
52664SOL     OW59765   8.224   5.456   7.652
52664SOL    HW159766   8.162   5.385   7.672
52664SOL    HW259767   8.308   5.425   7.687
52665SOL     OW59768   0.027   5.173   4.928
52665SOL    HW159769  14.823   5.206   4.966
52665SOL    HW259770   0.039   5.087   4.968
52666SOL     OW59771   1.379   0.983  11.916
52666SOL    HW159772   1.284   0.978  11.923
52666SOL    HW259773   1.397   1.072  11.885
52667SOL     OW59774  11.903   7.066  10.514
52667SOL    HW159775  11.956   6.987  10.506
52667SOL    HW259776  11.896   7.100  10.425
52668SOL     OW59777  12.413   6.866  12.931
52668SOL    HW159778  12.428   6.948  12.885
52668SOL    HW259779  12.501   6.833  12.950
52669SOL     OW59780  13.144   5.475  11.056
52669SOL    HW159781  13.083   5.526  11.110
52669SOL    HW259782  13.158   5.529  10.978
52670SOL     OW59783   6.362   5.259  10.387
52670SOL    HW159784   6.315   5.310  10.453
52670SOL    HW259785   6.395   5.325  10.326
52671SOL     OW59786   6.799   6.515  11.446
52671SOL    HW159787   6.779   6.553  11.361
52671SOL    HW259788   6.870   6.453  11.428
52672SOL     OW59789   3.765   6.265  14.673
52672SOL    HW159790   3.779   6.262  14.768
52672SOL    HW259791   3.674   6.238  14.662
52673SOL     OW59792  13.769   4.074  13.866
52673SOL    HW159793  13.820   4.007  13.821
52673SOL    HW259794  13.807   4.080  13.953
52674SOL     OW59795   4.829  10.066   5.510
52674SOL    HW159796   4.842  10.077   5.604
52674SOL    HW259797   4.866   9.979   5.491
52675SOL     OW59798   0.285   8.774  10.482
52675SOL    HW159799   0.289   8.679  10.497
52675SOL    HW259800   0.367   8.807  10.518
52676SOL     OW59801   0.399   9.334   4.801
52676SOL    HW159802   0.384   9.287   4.883
52676SOL    HW259803   0.451   9.274   4.748
52677SOL     OW59804  14.435   9.188  14.496
52677SOL    HW159805  14.342   9.194  14.516
52677SOL    HW259806  14.444   9.105  14.448
52678SOL     OW59807  10.283  10.051   9.945
52678SOL    HW159808  10.230  10.050   9.865
52678SOL    HW259809  10.364  10.007   9.920
52679SOL     OW59810  12.877   8.366   4.261
52679SOL    HW159811  12.807   8.326   4.312
52679SOL    HW259812  12.943   8.297   4.254
52680SOL     OW59813  11.949   9.972   5.981
52680SOL    HW159814  11.919  10.052   6.023
52680SOL    HW259815  11.874   9.913   5.985
52681SOL     OW59816   9.818   5.605   5.024
52681SOL    HW159817   9.827   5.544   5.098
52681SOL    HW259818   9.904   5.607   4.983
52682SOL     OW59819   4.839  14.363   2.704
52682SOL    HW159820   4.809  14.279   2.669
52682SOL    HW259821   4.820  14.358   2.798
52683SOL     OW59822  11.407  12.182  10.322
52683SOL    HW159823  11.323  12.226  10.336
52683SOL    HW259824  11.405  12.108  10.383
52684SOL     OW59825   7.092   1.095   7.794
52684SOL    HW159826   7.128   1.083   7.882
52684SOL    HW259827   7.169   1.107   7.738
52685SOL     OW59828   6.726   7.635   6.945
52685SOL    HW159829   6.804   7.604   6.991
52685SOL    HW259830   6.756   7.653   6.856
52686SOL     OW59831   1.198  10.069   3.512
52686SOL    HW159832   1.122  10.124   3.529
52686SOL    HW259833   1.183   9.990   3.564
52687SOL     OW59834  14.793   9.874  10.438
52687SOL    HW159835  14.767   9.952  10.488
52687SOL    HW259836  14.719   9.813  10.450
52688SOL     OW59837   9.023   9.248  13.926
52688SOL    HW159838   9.109   9.262  13.967
52688SOL    HW259839   9.008   9.154  13.934
52689SOL     OW59840  14.590  10.550   1.915
52689SOL    HW159841  14.658  10.565   1.848
52689SOL    HW259842  14.560  10.461   1.899
52690SOL     OW59843  12.004  11.852   9.839
52690SOL    HW159844  11.977  11.769   9.799
52690SOL    HW259845  12.035  11.905   9.765
52691SOL     OW59846  11.286   0.748   0.703
52691SOL    HW159847  11.336   0.763   0.783
52691SOL    HW259848  11.258   0.657   0.709
52692SOL     OW59849  12.608   1.845  10.097
52692SOL    HW159850  12.626   1.904  10.024
52692SOL    HW259851  12.636   1.759  10.065
52693SOL     OW59852   1.658   3.226   5.083
52693SOL    HW159853   1.618   3.270   5.009
52693SOL    HW259854   1.586   3.174   5.122
52694SOL     OW59855   7.157   8.683   3.843
52694SOL    HW159856   7.219   8.703   3.773
52694SOL    HW259857   7.072   8.683   3.801
52695SOL     OW59858   0.660   9.342   3.319
52695SOL    HW159859   0.693   9.251   3.321
52695SOL    HW259860   0.723   9.390   3.372
52696SOL     OW59861   6.696   4.355   4.314
52696SOL    HW159862   6.615   4.323   4.354
52696SOL    HW259863   6.675   4.444   4.285
52697SOL     OW59864  11.698  11.343   4.966
52697SOL    HW159865  11.792  11.325   4.963
52697SOL    HW259866  11.658  11.258   4.983
52698SOL     OW59867   5.975  14.038   0.044
52698SOL    HW159868   6.049  13.999  14.875
52698SOL    HW259869   5.947  13.971   0.106
52699SOL     OW59870  14.650  12.182  10.893
52699SOL    HW159871  14.656  12.216  10.804
52699SOL    HW259872  14.667  12.258  10.949
52700SOL     OW59873  11.312  13.047   2.682
52700SOL    HW159874  11.316  12.982   2.613
52700SOL    HW259875  11.258  13.008   2.750
52701SOL     OW59876  11.329   4.586  10.916
52701SOL    HW159877  11.305   4.496  10.895
52701SOL    HW259878  11.419   4.580  10.948
52702SOL     OW59879   8.972   5.453  12.182
52702SOL    HW159880   8.918   5.531  12.166
52702SOL    HW259881   9.055   5.487  12.215
52703SOL     OW59882  12.342   5.728  13.422
52703SOL    HW159883  12.333   5.635  13.399
52703SOL    HW259884  12.252   5.757  13.435
52704SOL     OW59885  13.361   1.066  10.845
52704SOL    HW159886  13.267   1.081  10.859
52704SOL    HW259887  13.403   1.124  10.908
52705SOL     OW59888  12.427   3.560   5.107
52705SOL    HW159889  12.505   3.584   5.057
52705SOL    HW259890  12.354   3.597   5.056
52706SOL     OW59891   1.660   4.845  11.871
52706SOL    HW159892   1.571   4.842  11.908
52706SOL    HW259893   1.708   4.777  11.918
52707SOL     OW59894  10.585  13.950   0.486
52707SOL    HW159895  10.671  13.977   0.520
52707SOL    HW259896  10.531  13.939   0.563
52708SOL     OW59897  11.020  12.813   0.597
52708SOL    HW159898  11.000  12.721   0.578
52708SOL    HW259899  10.976  12.862   0.528
52709SOL     OW59900   2.756   8.349   4.668
52709SOL    HW159901   2.818   8.280   4.688
52709SOL    HW259902   2.694   8.309   4.608
52710SOL     OW59903   0.685   4.740   0.404
52710SOL    HW159904   0.762   4.795   0.417
52710SOL    HW259905   0.708   4.681   0.332
52711SOL     OW59906   1.427  12.627  14.683
52711SOL    HW159907   1.468  12.566  14.621
52711SOL    HW259908   1.353  12.577  14.719
52712SOL     OW59909   7.355   3.026   0.431
52712SOL    HW159910   7.302   3.039   0.509
52712SOL    HW259911   7.423   2.964   0.457
52713SOL     OW59912   5.720   3.857   5.988
52713SOL    HW159913   5.703   3.845   6.081
52713SOL    HW259914   5.742   3.770   5.956
52714SOL     OW59915   8.715   7.471   7.576
52714SOL    HW159916   8.778   7.408   7.541
52714SOL    HW259917   8.769   7.538   7.617
52715SOL     OW59918  12.719   0.381  11.655
52715SOL    HW159919  12.692   0.368  11.564
52715SOL    HW259920  12.671   0.314  11.704
52716SOL     OW59921   1.130   2.032   0.542
52716SOL    HW159922   1.135   1.946   0.499
52716SOL    HW259923   1.046   2.031   0.588
52717SOL     OW59924  12.629   8.594   0.671
52717SOL    HW159925  12.648   8.656   0.741
52717SOL    HW259926  12.690   8.618   0.601
52718SOL     OW59927   1.425   0.422  12.382
52718SOL    HW159928   1.495   0.426  12.317
52718SOL    HW259929   1.365   0.354  12.349
52719SOL     OW59930   9.101  12.657  12.261
52719SOL    HW159931   9.148  12.592  12.208
52719SOL    HW259932   9.016  12.665  12.218
52720SOL     OW59933   4.961  10.949   6.320
52720SOL    HW159934   5.039  10.919   6.273
52720SOL    HW259935   4.991  11.026   6.369
52721SOL     OW59936   1.258   9.117   3.814
52721SOL    HW159937   1.223   9.198   3.852
52721SOL    HW259938   1.279   9.140   3.724
52722SOL     OW59939  10.571   7.502   3.563
52722SOL    HW159940  10.494   7.541   3.604
52722SOL    HW259941  10.604   7.570   3.505
52723SOL     OW59942   4.673   4.698   3.103
52723SOL    HW159943   4.747   4.641   3.126
52723SOL    HW259944   4.714   4.780   3.077
52724SOL     OW59945  12.347   2.689   9.537
52724SOL    HW159946  12.338   2.778   9.502
52724SOL    HW259947  12.427   2.655   9.495
52725SOL     OW59948   1.076   2.592   8.876
52725SOL    HW159949   1.116   2.619   8.793
52725SOL    HW259950   0.982   2.602   8.862
52726SOL     OW59951   1.731   0.362   5.157
52726SOL    HW159952   1.782   0.311   5.220
52726SOL    HW259953   1.743   0.453   5.185
52727SOL     OW59954   9.770  10.330   8.116
52727SOL    HW159955   9.724  10.258   8.158
52727SOL    HW259956   9.859  10.298   8.103
52728SOL     OW59957   2.162   9.827   2.593
52728SOL    HW159958   2.194   9.853   2.680
52728SOL    HW259959   2.067   9.822   2.602
52729SOL     OW59960   1.766   1.389   2.159
52729SOL    HW159961   1.756   1.306   2.205
52729SOL    HW259962   1.731   1.373   2.071
52730SOL     OW59963  14.679   0.954   0.934
52730SOL    HW159964  14.734   0.885   0.971
52730SOL    HW259965  14.666   1.016   1.006
52731SOL     OW59966   5.445   7.634  13.569
52731SOL    HW159967   5.435   7.648  13.663
52731SOL    HW259968   5.506   7.703  13.542
52732SOL     OW59969  11.506   5.788  11.236
52732SOL    HW159970  11.497   5.724  11.165
52732SOL    HW259971  11.418   5.822  11.249
52733SOL     OW59972   6.673   7.108  12.611
52733SOL    HW159973   6.755   7.116  12.563
52733SOL    HW259974   6.625   7.188  12.589
52734SOL     OW59975   0.137   0.161  11.808
52734SOL    HW159976   0.098   0.175  11.894
52734SOL    HW259977   0.204   0.094  11.823
52735SOL     OW59978  14.687   3.575   6.139
52735SOL    HW159979  14.774   3.597   6.105
52735SOL    HW259980  14.636   3.656   6.128
52736SOL     OW59981  11.352  13.546   3.110
52736SOL    HW159982  11.437  13.529   3.070
52736SOL    HW259983  11.320  13.459   3.136
52737SOL     OW59984  13.241   1.597   9.202
52737SOL    HW159985  13.229   1.620   9.294
52737SOL    HW259986  13.211   1.506   9.196
52738SOL     OW59987  12.183   6.446   4.558
52738SOL    HW159988  12.152   6.536   4.559
52738SOL    HW259989  12.271   6.450   4.595
52739SOL     OW59990   6.867   7.580  10.349
52739SOL    HW159991   6.834   7.509  10.294
52739SOL    HW259992   6.962   7.574  10.340
52740SOL     OW59993  14.804   0.264   6.744
52740SOL    HW159994  14.827   0.276   6.651
52740SOL    HW259995  14.811   0.351   6.782
52741SOL     OW59996   0.988  13.247   9.937
52741SOL    HW159997   0.987  13.247  10.033
52741SOL    HW259998   1.081  13.237   9.915
52742SOL     OW59999   5.930  11.042   3.929
52742SOL    HW160000   5.968  11.128   3.943
52742SOL    HW260001   5.988  10.982   3.975
52743SOL     OW60002  13.294   2.025   3.575
52743SOL    HW160003  13.277   2.112   3.538
52743SOL    HW260004  13.223   1.970   3.541
52744SOL     OW60005   3.730  14.095  10.962
52744SOL    HW160006   3.768  14.043  10.891
52744SOL    HW260007   3.701  14.031  11.026
52745SOL     OW60008   7.731  11.487  10.358
52745SOL    HW160009   7.704  11.417  10.417
52745SOL    HW260010   7.759  11.558  10.416
52746SOL     OW60011   3.654   9.167  11.267
52746SOL    HW160012   3.585   9.175  11.202
52746SOL    HW260013   3.735   9.180  11.217
52747SOL     OW60014   3.548   3.194  11.753
52747SOL    HW160015   3.642   3.179  11.754
52747SOL    HW260016   3.537   3.281  11.792
52748SOL     OW60017   7.506  10.157   4.117
52748SOL    HW160018   7.487  10.251   4.112
52748SOL    HW260019   7.498  10.126   4.027
52749SOL     OW60020   3.483   2.529   0.795
52749SOL    HW160021   3.414   2.574   0.748
52749SOL    HW260022   3.564   2.563   0.758
52750SOL     OW60023   7.204   4.081   3.426
52750SOL    HW160024   7.266   4.044   3.362
52750SOL    HW260025   7.244   4.063   3.511
52751SOL     OW60026   7.355   9.515   8.720
52751SOL    HW160027   7.338   9.586   8.658
52751SOL    HW260028   7.345   9.435   8.668
52752SOL     OW60029   3.348   9.801   9.072
52752SOL    HW160030   3.363   9.893   9.051
52752SOL    HW260031   3.271   9.801   9.129
52753SOL     OW60032  12.721   8.033  13.338
52753SOL    HW160033  12.744   8.004  13.250
52753SOL    HW260034  12.629   8.060  13.331
52754SOL     OW60035   1.701  12.109  13.054
52754SOL    HW160036   1.756  12.182  13.025
52754SOL    HW260037   1.612  12.142  13.048
52755SOL     OW60038  12.585  14.021  12.829
52755SOL    HW160039  12.660  13.969  12.799
52755SOL    HW260040  12.523  14.017  12.756
52756SOL     OW60041  12.798  12.698   9.591
52756SOL    HW160042  12.768  12.628   9.533
52756SOL    HW260043  12.728  12.709   9.654
52757SOL     OW60044   8.626  12.729  14.465
52757SOL    HW160045   8.640  12.643  14.505
52757SOL    HW260046   8.626  12.790  14.540
52758SOL     OW60047   5.513   0.769   2.621
52758SOL    HW160048   5.601   0.732   2.624
52758SOL    HW260049   5.523   0.858   2.656
52759SOL     OW60050   5.825  11.022   4.631
52759SOL    HW160051   5.804  10.969   4.554
52759SOL    HW260052   5.791  11.109   4.609
52760SOL     OW60053   2.235  10.478   7.361
52760SOL    HW160054   2.311  10.527   7.394
52760SOL    HW260055   2.203  10.429   7.436
52761SOL     OW60056   1.475  14.016   2.811
52761SOL    HW160057   1.451  14.021   2.718
52761SOL    HW260058   1.479  13.923   2.830
52762SOL     OW60059   3.896   5.994   7.123
52762SOL    HW160060   3.955   6.070   7.128
52762SOL    HW260061   3.906   5.963   7.033
52763SOL     OW60062   6.769   7.501   1.715
52763SOL    HW160063   6.692   7.507   1.659
52763SOL    HW260064   6.814   7.423   1.685
52764SOL     OW60065   7.668   2.434   0.088
52764SOL    HW160066   7.610   2.486   0.032
52764SOL    HW260067   7.687   2.356   0.037
52765SOL     OW60068   2.545  10.559   9.136
52765SOL    HW160069   2.542  10.579   9.230
52765SOL    HW260070   2.554  10.463   9.133
52766SOL     OW60071  12.093  13.772   0.783
52766SOL    HW160072  12.171  13.815   0.748
52766SOL    HW260073  12.072  13.704   0.719
52767SOL     OW60074  13.531  10.102   3.640
52767SOL    HW160075  13.601  10.037   3.650
52767SOL    HW260076  13.451  10.054   3.661
52768SOL     OW60077   7.001   9.685   7.619
52768SOL    HW160078   6.950   9.753   7.662
52768SOL    HW260079   7.078   9.672   7.674
52769SOL     OW60080  11.054   3.189  13.670
52769SOL    HW160081  11.013   3.103  13.682
52769SOL    HW260082  11.144   3.177  13.700
52770SOL     OW60083  10.484  14.120   8.950
52770SOL    HW160084  10.528  14.111   8.866
52770SOL    HW260085  10.408  14.175   8.932
52771SOL     OW60086   5.274   8.395   6.479
52771SOL    HW160087   5.336   8.421   6.410
52771SOL    HW260088   5.329   8.360   6.549
52772SOL     OW60089  14.553   2.726   1.884
52772SOL    HW160090  14.594   2.678   1.812
52772SOL    HW260091  14.547   2.816   1.852
52773SOL     OW60092   6.664   1.329   6.050
52773SOL    HW160093   6.703   1.385   5.983
52773SOL    HW260094   6.724   1.256   6.058
52774SOL     OW60095   2.695  10.845  10.364
52774SOL    HW160096   2.723  10.825  10.275
52774SOL    HW260097   2.775  10.839  10.416
52775SOL     OW60098   1.154  12.539  11.394
52775SOL    HW160099   1.185  12.466  11.447
52775SOL    HW260100   1.066  12.557  11.428
52776SOL     OW60101   8.112   7.628  10.661
52776SOL    HW160102   8.169   7.557  10.631
52776SOL    HW260103   8.164   7.675  10.726
52777SOL     OW60104   7.461   1.741   0.467
52777SOL    HW160105   7.553   1.746   0.442
52777SOL    HW260106   7.423   1.675   0.409
52778SOL     OW60107  13.075   9.134   8.666
52778SOL    HW160108  13.114   9.145   8.753
52778SOL    HW260109  13.102   9.046   8.639
52779SOL     OW60110   2.123  10.016  14.294
52779SOL    HW160111   2.099   9.936  14.248
52779SOL    HW260112   2.130   9.990  14.386
52780SOL     OW60113   2.375   5.422  13.529
52780SOL    HW160114   2.438   5.350  13.531
52780SOL    HW260115   2.336   5.417  13.442
52781SOL     OW60116   4.407   5.914  11.561
52781SOL    HW160117   4.366   5.961  11.634
52781SOL    HW260118   4.446   5.837  11.602
52782SOL     OW60119  14.776  12.943   5.833
52782SOL    HW160120  14.804  12.860   5.794
52782SOL    HW260121  14.813  13.010   5.775
52783SOL     OW60122  14.126   1.953   4.294
52783SOL    HW160123  14.126   1.948   4.198
52783SOL    HW260124  14.080   2.035   4.313
52784SOL     OW60125   2.511  10.609   5.158
52784SOL    HW160126   2.481  10.581   5.072
52784SOL    HW260127   2.438  10.661   5.193
52785SOL     OW60128  12.359   5.680   6.010
52785SOL    HW160129  12.454   5.668   6.006
52785SOL    HW260130  12.333   5.688   5.918
52786SOL     OW60131  12.160   9.263  11.544
52786SOL    HW160132  12.183   9.349  11.578
52786SOL    HW260133  12.072   9.246  11.577
52787SOL     OW60134   1.849   6.440  14.699
52787SOL    HW160135   1.879   6.500  14.630
52787SOL    HW260136   1.754   6.450  14.700
52788SOL     OW60137   7.968   6.893   1.497
52788SOL    HW160138   7.985   6.912   1.589
52788SOL    HW260139   7.873   6.897   1.489
52789SOL     OW60140   1.979   0.693   5.496
52789SOL    HW160141   1.954   0.716   5.406
52789SOL    HW260142   1.896   0.685   5.542
52790SOL     OW60143   9.744   5.750   3.077
52790SOL    HW160144   9.775   5.672   3.032
52790SOL    HW260145   9.785   5.747   3.163
52791SOL     OW60146  11.631   6.940   9.700
52791SOL    HW160147  11.698   6.901   9.756
52791SOL    HW260148  11.559   6.878   9.701
52792SOL     OW60149   1.420  10.131   8.337
52792SOL    HW160150   1.507  10.127   8.374
52792SOL    HW260151   1.381  10.209   8.375
52793SOL     OW60152  12.627   5.331   8.454
52793SOL    HW160153  12.580   5.263   8.503
52793SOL    HW260154  12.690   5.282   8.401
52794SOL     OW60155   4.934   2.154  10.887
52794SOL    HW160156   4.969   2.067  10.871
52794SOL    HW260157   4.984   2.212  10.830
52795SOL     OW60158   8.374   9.004   5.575
52795SOL    HW160159   8.343   9.044   5.656
52795SOL    HW260160   8.339   8.915   5.577
52796SOL     OW60161   8.112   9.678   6.778
52796SOL    HW160162   8.172   9.606   6.795
52796SOL    HW260163   8.162   9.741   6.727
52797SOL     OW60164   2.095   2.415   1.362
52797SOL    HW160165   2.098   2.481   1.292
52797SOL    HW260166   2.146   2.454   1.433
52798SOL     OW60167   6.092   8.198   8.014
52798SOL    HW160168   6.148   8.262   8.058
52798SOL    HW260169   6.082   8.127   8.077
52799SOL     OW60170   8.622  13.367   1.609
52799SOL    HW160171   8.627  13.367   1.514
52799SOL    HW260172   8.670  13.445   1.636
52800SOL     OW60173   4.278   9.034   4.197
52800SOL    HW160174   4.320   9.109   4.155
52800SOL    HW260175   4.245   9.068   4.280
52801SOL     OW60176  10.495   4.220   3.811
52801SOL    HW160177  10.454   4.166   3.744
52801SOL    HW260178  10.570   4.170   3.841
52802SOL     OW60179   4.889   5.246   9.180
52802SOL    HW160180   4.842   5.304   9.121
52802SOL    HW260181   4.857   5.158   9.158
52803SOL     OW60182   2.030  12.568   7.331
52803SOL    HW160183   2.019  12.477   7.302
52803SOL    HW260184   1.977  12.574   7.410
52804SOL     OW60185  10.017  14.369   9.009
52804SOL    HW160186  10.014  14.302   9.078
52804SOL    HW260187  10.077  14.332   8.943
52805SOL     OW60188   9.652   6.744  12.701
52805SOL    HW160189   9.609   6.659  12.715
52805SOL    HW260190   9.731   6.741  12.755
52806SOL     OW60191  10.120  10.619  11.698
52806SOL    HW160192  10.136  10.621  11.792
52806SOL    HW260193  10.139  10.707  11.667
52807SOL     OW60194   8.867   0.969   1.324
52807SOL    HW160195   8.830   1.055   1.304
52807SOL    HW260196   8.791   0.914   1.341
52808SOL     OW60197  14.634   1.115   9.926
52808SOL    HW160198  14.673   1.029   9.942
52808SOL    HW260199  14.675   1.173   9.990
52809SOL     OW60200   8.781  14.024  10.644
52809SOL    HW160201   8.855  14.065  10.599
52809SOL    HW260202   8.704  14.066  10.605
52810SOL     OW60203   9.644   5.112  13.845
52810SOL    HW160204   9.578   5.178  13.828
52810SOL    HW260205   9.694   5.145  13.920
52811SOL     OW60206  13.686   1.520  12.747
52811SOL    HW160207  13.722   1.436  12.719
52811SOL    HW260208  13.711   1.581  12.677
52812SOL     OW60209   0.292  14.837  10.480
52812SOL    HW160210   0.198  14.821  10.469
52812SOL    HW260211   0.312  14.804  10.567
52813SOL     OW60212   3.496  13.982   8.910
52813SOL    HW160213   3.491  13.963   9.004
52813SOL    HW260214   3.527  13.900   8.872
52814SOL     OW60215  10.748   3.419  14.528
52814SOL    HW160216  10.709   3.493  14.574
52814SOL    HW260217  10.713   3.424  14.440
52815SOL     OW60218  14.251   7.885   5.666
52815SOL    HW160219  14.226   7.794   5.683
52815SOL    HW260220  14.197   7.937   5.726
52816SOL     OW60221   2.972  10.829   2.060
52816SOL    HW160222   2.892  10.808   2.109
52816SOL    HW260223   2.951  10.808   1.969
52817SOL     OW60224  12.514  10.083   7.693
52817SOL    HW160225  12.439  10.059   7.747
52817SOL    HW260226  12.550  10.161   7.736
52818SOL     OW60227   9.770   0.972   5.415
52818SOL    HW160228   9.688   0.922   5.411
52818SOL    HW260229   9.824   0.922   5.476
52819SOL     OW60230   7.317  12.372  14.233
52819SOL    HW160231   7.258  12.351  14.161
52819SOL    HW260232   7.400  12.394  14.191
52820SOL     OW60233  10.364  11.078   2.318
52820SOL    HW160234  10.279  11.062   2.278
52820SOL    HW260235  10.405  11.144   2.263
52821SOL     OW60236   5.968  10.010   2.967
52821SOL    HW160237   5.950  10.079   2.903
52821SOL    HW260238   5.899  10.019   3.032
52822SOL     OW60239   1.361   4.172  14.377
52822SOL    HW160240   1.428   4.194  14.313
52822SOL    HW260241   1.281   4.213  14.343
52823SOL     OW60242  14.479   9.753   1.219
52823SOL    HW160243  14.411   9.819   1.207
52823SOL    HW260244  14.486   9.709   1.134
52824SOL     OW60245   2.011   2.219  10.686
52824SOL    HW160246   1.997   2.139  10.636
52824SOL    HW260247   2.103   2.242  10.672
52825SOL     OW60248   3.463   3.359   0.075
52825SOL    HW160249   3.532   3.340   0.012
52825SOL    HW260250   3.433   3.447   0.053
52826SOL     OW60251   0.625   2.896  11.808
52826SOL    HW160252   0.576   2.971  11.776
52826SOL    HW260253   0.563   2.823  11.804
52827SOL     OW60254  14.819   0.051   3.716
52827SOL    HW160255   0.011   0.116   3.706
52827SOL    HW260256  14.866  14.848   3.738
52828SOL     OW60257   9.996   7.919  11.235
52828SOL    HW160258  10.011   8.011  11.259
52828SOL    HW260259  10.082   7.877  11.248
52829SOL     OW60260  12.942   9.809  12.271
52829SOL    HW160261  12.939   9.839  12.362
52829SOL    HW260262  12.923   9.716  12.276
52830SOL     OW60263   7.366  11.968  10.829
52830SOL    HW160264   7.454  12.005  10.832
52830SOL    HW260265   7.346  11.945  10.920
52831SOL     OW60266   2.628   6.840   1.217
52831SOL    HW160267   2.706   6.893   1.235
52831SOL    HW260268   2.633   6.767   1.279
52832SOL     OW60269  11.862   1.302  11.165
52832SOL    HW160270  11.775   1.320  11.130
52832SOL    HW260271  11.846   1.257  11.247
52833SOL     OW60272   5.174   8.288   5.043
52833SOL    HW160273   5.171   8.340   4.963
52833SOL    HW260274   5.262   8.251   5.046
52834SOL     OW60275   8.000  12.448   0.660
52834SOL    HW160276   8.007  12.516   0.728
52834SOL    HW260277   8.060  12.476   0.591
52835SOL     OW60278   2.677   6.791   4.022
52835SOL    HW160279   2.730   6.860   4.061
52835SOL    HW260280   2.594   6.835   3.999
52836SOL     OW60281   6.369  14.731   5.461
52836SOL    HW160282   6.362  14.638   5.480
52836SOL    HW260283   6.456  14.756   5.491
52837SOL     OW60284   5.077  11.442   4.704
52837SOL    HW160285   5.043  11.370   4.652
52837SOL    HW260286   5.137  11.400   4.767
52838SOL     OW60287   1.037   4.851  12.854
52838SOL    HW160288   1.029   4.756  12.844
52838SOL    HW260289   1.026   4.885  12.765
52839SOL     OW60290   0.243  12.082  13.667
52839SOL    HW160291   0.174  12.137  13.628
52839SOL    HW260292   0.325  12.119  13.635
52840SOL     OW60293   0.234  11.948   8.443
52840SOL    HW160294   0.146  11.929   8.410
52840SOL    HW260295   0.287  11.962   8.365
52841SOL     OW60296  10.095   7.116  11.479
52841SOL    HW160297  10.147   7.192  11.505
52841SOL    HW260298  10.144   7.077  11.407
52842SOL     OW60299   7.596   1.271  13.846
52842SOL    HW160300   7.542   1.349  13.841
52842SOL    HW260301   7.638   1.276  13.932
52843SOL     OW60302  12.163   9.726   4.821
52843SOL    HW160303  12.240   9.687   4.863
52843SOL    HW260304  12.089   9.678   4.857
52844SOL     OW60305   1.817   4.861  13.582
52844SOL    HW160306   1.752   4.925  13.613
52844SOL    HW260307   1.899   4.911  13.577
52845SOL     OW60308   5.796   2.428   2.227
52845SOL    HW160309   5.816   2.388   2.312
52845SOL    HW260310   5.873   2.483   2.208
52846SOL     OW60311   3.107   8.844  10.738
52846SOL    HW160312   3.117   8.802  10.823
52846SOL    HW260313   3.122   8.773  10.675
52847SOL     OW60314  12.304   9.530  12.453
52847SOL    HW160315  12.261   9.612  12.476
52847SOL    HW260316  12.264   9.465  12.510
52848SOL     OW60317   6.780  13.391  13.663
52848SOL    HW160318   6.826  13.358  13.740
52848SOL    HW260319   6.699  13.428  13.698
52849SOL     OW60320  14.209   8.381   4.645
52849SOL    HW160321  14.239   8.290   4.652
52849SOL    HW260322  14.168   8.386   4.558
52850SOL     OW60323   4.507   7.929   1.145
52850SOL    HW160324   4.535   8.014   1.112
52850SOL    HW260325   4.530   7.868   1.075
52851SOL     OW60326  13.599  11.192   3.437
52851SOL    HW160327  13.572  11.191   3.345
52851SOL    HW260328  13.551  11.121   3.478
52852SOL     OW60329   0.666  12.732   7.116
52852SOL    HW160330   0.689  12.735   7.023
52852SOL    HW260331   0.649  12.823   7.139
52853SOL     OW60332  13.723  12.822  14.684
52853SOL    HW160333  13.755  12.818  14.774
52853SOL    HW260334  13.631  12.849  14.693
52854SOL     OW60335   0.813   4.472   2.880
52854SOL    HW160336   0.746   4.405   2.873
52854SOL    HW260337   0.872   4.441   2.948
52855SOL     OW60338  14.155   2.013   4.025
52855SOL    HW160339  14.096   2.040   3.954
52855SOL    HW260340  14.208   2.091   4.044
52856SOL     OW60341   4.706  13.670  10.898
52856SOL    HW160342   4.617  13.684  10.930
52856SOL    HW260343   4.715  13.575  10.895
52857SOL     OW60344   5.103   0.827  12.818
52857SOL    HW160345   5.169   0.889  12.849
52857SOL    HW260346   5.042   0.819  12.891
52858SOL     OW60347   5.426  13.937   0.417
52858SOL    HW160348   5.381  13.919   0.500
52858SOL    HW260349   5.419  13.854   0.369
52859SOL     OW60350   0.139   3.041   7.438
52859SOL    HW160351   0.170   3.064   7.526
52859SOL    HW260352   0.112   2.950   7.445
52860SOL     OW60353   1.555  13.504   9.715
52860SOL    HW160354   1.575  13.500   9.808
52860SOL    HW260355   1.484  13.441   9.703
52861SOL     OW60356   3.488   4.914   0.540
52861SOL    HW160357   3.405   4.962   0.539
52861SOL    HW260358   3.552   4.977   0.507
52862SOL     OW60359   5.772  11.076  11.714
52862SOL    HW160360   5.737  11.050  11.799
52862SOL    HW260361   5.836  11.144  11.735
52863SOL     OW60362   3.670   3.067   3.291
52863SOL    HW160363   3.635   3.021   3.367
52863SOL    HW260364   3.725   3.136   3.328
52864SOL     OW60365  10.119   0.591  10.182
52864SOL    HW160366  10.202   0.637  10.189
52864SOL    HW260367  10.054   0.660  10.168
52865SOL     OW60368   7.681   5.755   3.259
52865SOL    HW160369   7.609   5.785   3.203
52865SOL    HW260370   7.760   5.775   3.209
52866SOL     OW60371   7.348   6.854   4.519
52866SOL    HW160372   7.409   6.780   4.510
52866SOL    HW260373   7.380   6.903   4.594
52867SOL     OW60374   4.562  14.003  14.458
52867SOL    HW160375   4.630  14.068  14.474
52867SOL    HW260376   4.543  14.009  14.365
52868SOL     OW60377   2.069   6.011   1.070
52868SOL    HW160378   2.109   5.930   1.102
52868SOL    HW260379   2.094   6.015   0.977
52869SOL     OW60380   6.476   6.633   3.273
52869SOL    HW160381   6.398   6.593   3.234
52869SOL    HW260382   6.515   6.564   3.326
52870SOL     OW60383   7.551   1.924  10.931
52870SOL    HW160384   7.495   1.847  10.941
52870SOL    HW260385   7.560   1.936  10.837
52871SOL     OW60386   8.535   3.056   2.098
52871SOL    HW160387   8.552   3.150   2.093
52871SOL    HW260388   8.473   3.040   2.027
52872SOL     OW60389  13.782   7.386   2.768
52872SOL    HW160390  13.713   7.453   2.769
52872SOL    HW260391  13.767   7.339   2.686
52873SOL     OW60392   6.960  13.221   5.482
52873SOL    HW160393   6.872  13.254   5.464
52873SOL    HW260394   7.014  13.300   5.487
52874SOL     OW60395  14.116  12.279   4.442
52874SOL    HW160396  14.136  12.325   4.524
52874SOL    HW260397  14.076  12.197   4.470
52875SOL     OW60398  10.825  12.196   6.570
52875SOL    HW160399  10.778  12.225   6.492
52875SOL    HW260400  10.910  12.240   6.564
52876SOL     OW60401   3.089   0.766   5.497
52876SOL    HW160402   3.059   0.815   5.420
52876SOL    HW260403   3.054   0.814   5.572
52877SOL     OW60404   2.589   7.135   5.864
52877SOL    HW160405   2.520   7.184   5.909
52877SOL    HW260406   2.647   7.106   5.934
52878SOL     OW60407   7.227   5.131  12.129
52878SOL    HW160408   7.209   5.040  12.154
52878SOL    HW260409   7.142   5.169  12.111
52879SOL     OW60410   8.082   4.698   3.324
52879SOL    HW160411   8.076   4.793   3.336
52879SOL    HW260412   8.174   4.678   3.337
52880SOL     OW60413   1.118  14.698   9.059
52880SOL    HW160414   1.064  14.711   9.137
52880SOL    HW260415   1.186  14.764   9.066
52881SOL     OW60416   2.336  13.283  14.543
52881SOL    HW160417   2.373  13.340  14.611
52881SOL    HW260418   2.256  13.247  14.583
52882SOL     OW60419   3.927  13.682  11.560
52882SOL    HW160420   3.934  13.777  11.568
52882SOL    HW260421   4.004  13.656  11.510
52883SOL     OW60422   0.241  10.479   8.303
52883SOL    HW160423   0.254  10.426   8.382
52883SOL    HW260424   0.292  10.558   8.319
52884SOL     OW60425  13.184  10.690   6.022
52884SOL    HW160426  13.264  10.644   6.000
52884SOL    HW260427  13.202  10.730   6.107
52885SOL     OW60428  11.260   0.633  12.913
52885SOL    HW160429  11.166   0.640  12.894
52885SOL    HW260430  11.273   0.541  12.936
52886SOL     OW60431   4.131   3.175   9.817
52886SOL    HW160432   4.213   3.166   9.865
52886SOL    HW260433   4.117   3.089   9.777
52887SOL     OW60434   1.206   6.405   2.044
52887SOL    HW160435   1.238   6.346   2.112
52887SOL    HW260436   1.119   6.372   2.023
52888SOL     OW60437  12.422  11.720   4.562
52888SOL    HW160438  12.508  11.739   4.600
52888SOL    HW260439  12.438  11.708   4.469
52889SOL     OW60440   5.237  14.371  14.770
52889SOL    HW160441   5.232  14.306  14.840
52889SOL    HW260442   5.210  14.453  14.811
52890SOL     OW60443   4.358  13.235   4.840
52890SOL    HW160444   4.266  13.250   4.861
52890SOL    HW260445   4.360  13.225   4.745
52891SOL     OW60446   3.088   0.992   6.408
52891SOL    HW160447   3.146   0.925   6.371
52891SOL    HW260448   3.042   0.948   6.480
52892SOL     OW60449  11.204  11.553   3.453
52892SOL    HW160450  11.180  11.516   3.538
52892SOL    HW260451  11.290  11.594   3.467
52893SOL     OW60452   3.817  13.618  11.803
52893SOL    HW160453   3.868  13.646  11.727
52893SOL    HW260454   3.797  13.526  11.786
52894SOL     OW60455   2.286   3.641   0.932
52894SOL    HW160456   2.358   3.591   0.970
52894SOL    HW260457   2.221   3.647   1.002
52895SOL     OW60458   3.657   2.334  12.156
52895SOL    HW160459   3.650   2.394  12.082
52895SOL    HW260460   3.569   2.330  12.193
52896SOL     OW60461   0.783   1.053  13.890
52896SOL    HW160462   0.806   0.989  13.823
52896SOL    HW260463   0.837   1.028  13.966
52897SOL     OW60464   9.214   4.558   0.591
52897SOL    HW160465   9.303   4.586   0.571
52897SOL    HW260466   9.187   4.507   0.516
52898SOL     OW60467   3.992   9.199  10.707
52898SOL    HW160468   3.982   9.293  10.692
52898SOL    HW260469   3.915   9.175  10.759
52899SOL     OW60470   7.967  12.360   3.211
52899SOL    HW160471   7.964  12.383   3.118
52899SOL    HW260472   8.000  12.439   3.254
52900SOL     OW60473   8.964   6.384   9.614
52900SOL    HW160474   8.934   6.339   9.693
52900SOL    HW260475   8.937   6.475   9.627
52901SOL     OW60476  13.112   5.331   0.118
52901SOL    HW160477  13.196   5.346   0.074
52901SOL    HW260478  13.125   5.368   0.206
52902SOL     OW60479   2.380   6.330   0.011
52902SOL    HW160480   2.297   6.295   0.044
52902SOL    HW260481   2.440   6.327   0.085
52903SOL     OW60482  13.488   0.024   0.041
52903SOL    HW160483  13.508  14.833   0.105
52903SOL    HW260484  13.434   0.087   0.089
52904SOL     OW60485  14.022  10.897   8.411
52904SOL    HW160486  14.039  10.833   8.480
52904SOL    HW260487  14.094  10.884   8.349
52905SOL     OW60488   7.562   9.639   5.717
52905SOL    HW160489   7.582   9.733   5.712
52905SOL    HW260490   7.635   9.597   5.672
52906SOL     OW60491   7.077  10.193   5.471
52906SOL    HW160492   6.994  10.231   5.500
52906SOL    HW260493   7.142  10.233   5.529
52907SOL     OW60494   8.167  12.328   6.005
52907SOL    HW160495   8.215  12.284   5.935
52907SOL    HW260496   8.211  12.300   6.086
52908SOL     OW60497   0.731   7.036   2.433
52908SOL    HW160498   0.689   7.082   2.505
52908SOL    HW260499   0.692   6.948   2.434
52909SOL     OW60500  12.656   0.166   5.237
52909SOL    HW160501  12.683   0.257   5.221
52909SOL    HW260502  12.736   0.122   5.263
52910SOL     OW60503   4.642  14.163   4.393
52910SOL    HW160504   4.639  14.152   4.298
52910SOL    HW260505   4.704  14.235   4.407
52911SOL     OW60506   5.606  14.746   1.467
52911SOL    HW160507   5.568  14.699   1.541
52911SOL    HW260508   5.560  14.710   1.390
52912SOL     OW60509  11.365   8.116  11.602
52912SOL    HW160510  11.356   8.137  11.694
52912SOL    HW260511  11.277   8.093  11.573
52913SOL     OW60512  14.006   2.891   5.092
52913SOL    HW160513  14.029   2.799   5.079
52913SOL    HW260514  14.089   2.938   5.088
52914SOL     OW60515  12.169   6.052  11.226
52914SOL    HW160516  12.157   6.080  11.317
52914SOL    HW260517  12.104   5.983  11.214
52915SOL     OW60518   7.361   3.119   1.726
52915SOL    HW160519   7.333   3.158   1.808
52915SOL    HW260520   7.326   3.177   1.658
52916SOL     OW60521   8.720   5.488   1.068
52916SOL    HW160522   8.696   5.579   1.053
52916SOL    HW260523   8.711   5.446   0.982
52917SOL     OW60524   2.892   1.290  12.217
52917SOL    HW160525   2.900   1.305  12.123
52917SOL    HW260526   2.943   1.360  12.257
52918SOL     OW60527  10.007  13.081   7.693
52918SOL    HW160528  10.071  13.045   7.631
52918SOL    HW260529  10.051  13.078   7.777
52919SOL     OW60530   5.041   4.560   8.784
52919SOL    HW160531   4.996   4.494   8.731
52919SOL    HW260532   4.980   4.579   8.855
52920SOL     OW60533   1.007   9.905   7.675
52920SOL    HW160534   1.080   9.918   7.615
52920SOL    HW260535   0.953   9.984   7.666
52921SOL     OW60536   9.247   6.861   8.597
52921SOL    HW160537   9.299   6.797   8.645
52921SOL    HW260538   9.208   6.812   8.525
52922SOL     OW60539   8.572  12.092   3.887
52922SOL    HW160540   8.625  12.026   3.842
52922SOL    HW260541   8.542  12.150   3.817
52923SOL     OW60542  10.217  10.823  11.303
52923SOL    HW160543  10.192  10.745  11.354
52923SOL    HW260544  10.136  10.873  11.294
52924SOL     OW60545   8.739  10.703  11.384
52924SOL    HW160546   8.749  10.721  11.291
52924SOL    HW260547   8.828  10.683  11.414
52925SOL     OW60548   6.316   1.104   3.846
52925SOL    HW160549   6.370   1.182   3.853
52925SOL    HW260550   6.321   1.063   3.932
52926SOL     OW60551   3.275   7.878   6.077
52926SOL    HW160552   3.324   7.863   5.996
52926SOL    HW260553   3.339   7.861   6.146
52927SOL     OW60554   9.293   0.220  12.461
52927SOL    HW160555   9.211   0.237  12.413
52927SOL    HW260556   9.305   0.126  12.456
52928SOL     OW60557  13.384   1.170   8.032
52928SOL    HW160558  13.291   1.172   8.055
52928SOL    HW260559  13.402   1.078   8.012
52929SOL     OW60560   4.119   7.516  12.598
52929SOL    HW160561   4.100   7.560  12.681
52929SOL    HW260562   4.187   7.453  12.619
52930SOL     OW60563   9.043  14.493   8.407
52930SOL    HW160564   9.080  14.434   8.473
52930SOL    HW260565   8.995  14.435   8.347
52931SOL     OW60566   8.483  10.672   6.241
52931SOL    HW160567   8.467  10.766   6.230
52931SOL    HW260568   8.578  10.664   6.235
52932SOL     OW60569   2.962   6.039   5.521
52932SOL    HW160570   2.997   5.971   5.464
52932SOL    HW260571   2.937   5.992   5.601
52933SOL     OW60572   6.668  13.190  10.910
52933SOL    HW160573   6.671  13.273  10.862
52933SOL    HW260574   6.647  13.214  11.000
52934SOL     OW60575  11.398   5.117   1.840
52934SOL    HW160576  11.311   5.095   1.872
52934SOL    HW260577  11.431   5.035   1.803
52935SOL     OW60578  10.192  14.505   6.336
52935SOL    HW160579  10.259  14.571   6.318
52935SOL    HW260580  10.239  14.436   6.384
52936SOL     OW60581   8.428   5.877   4.794
52936SOL    HW160582   8.433   5.824   4.714
52936SOL    HW260583   8.517   5.912   4.804
52937SOL     OW60584  13.839   5.506   9.585
52937SOL    HW160585  13.930   5.516   9.557
52937SOL    HW260586  13.787   5.547   9.516
52938SOL     OW60587   3.799   0.303  14.337
52938SOL    HW160588   3.867   0.299  14.270
52938SOL    HW260589   3.816   0.228  14.394
52939SOL     OW60590   2.482   5.769  10.601
52939SOL    HW160591   2.453   5.794  10.688
52939SOL    HW260592   2.401   5.757  10.551
52940SOL     OW60593   4.293  13.831  11.584
52940SOL    HW160594   4.272  13.767  11.516
52940SOL    HW260595   4.311  13.912  11.536
52941SOL     OW60596   7.130   1.161   6.177
52941SOL    HW160597   7.214   1.139   6.217
52941SOL    HW260598   7.113   1.252   6.205
52942SOL     OW60599   4.016   6.852   3.317
52942SOL    HW160600   3.985   6.877   3.229
52942SOL    HW260601   4.102   6.893   3.325
52943SOL     OW60602   5.669  14.009   9.924
52943SOL    HW160603   5.678  14.041  10.013
52943SOL    HW260604   5.736  14.057   9.875
52944SOL     OW60605  11.785  13.721   1.236
52944SOL    HW160606  11.743  13.641   1.267
52944SOL    HW260607  11.819  13.763   1.315
52945SOL     OW60608   0.405   3.382  10.294
52945SOL    HW160609   0.418   3.415  10.205
52945SOL    HW260610   0.405   3.286  10.284
52946SOL     OW60611   6.337   9.086  14.594
52946SOL    HW160612   6.364   9.006  14.638
52946SOL    HW260613   6.241   9.085  14.599
52947SOL     OW60614   1.781   2.512  14.858
52947SOL    HW160615   1.855   2.452  14.864
52947SOL    HW260616   1.747   2.516   0.070
52948SOL     OW60617  14.066   3.795   4.589
52948SOL    HW160618  14.092   3.732   4.522
52948SOL    HW260619  14.077   3.748   4.672
52949SOL     OW60620  10.509  12.647  14.326
52949SOL    HW160621  10.462  12.633  14.244
52949SOL    HW260622  10.591  12.688  14.300
52950SOL     OW60623   0.308   7.170   1.942
52950SOL    HW160624   0.284   7.195   2.031
52950SOL    HW260625   0.268   7.237   1.887
52951SOL     OW60626  14.157   7.924   9.530
52951SOL    HW160627  14.232   7.879   9.491
52951SOL    HW260628  14.192   7.964   9.610
52952SOL     OW60629   7.051   1.678  10.879
52952SOL    HW160630   6.986   1.729  10.928
52952SOL    HW260631   7.111   1.743  10.844
52953SOL     OW60632   4.683  13.398  10.550
52953SOL    HW160633   4.708  13.338  10.479
52953SOL    HW260634   4.665  13.481  10.506
52954SOL     OW60635  12.949   2.381   1.923
52954SOL    HW160636  13.025   2.411   1.971
52954SOL    HW260637  12.982   2.359   1.836
52955SOL     OW60638  14.363  11.023  13.864
52955SOL    HW160639  14.348  11.105  13.816
52955SOL    HW260640  14.366  11.050  13.956
52956SOL     OW60641  11.688  13.148   7.835
52956SOL    HW160642  11.630  13.073   7.848
52956SOL    HW260643  11.776  13.113   7.848
52957SOL     OW60644   1.822   4.674  10.039
52957SOL    HW160645   1.848   4.723   9.960
52957SOL    HW260646   1.866   4.590  10.031
52958SOL     OW60647   5.041   2.660   8.385
52958SOL    HW160648   5.124   2.628   8.419
52958SOL    HW260649   4.975   2.622   8.443
52959SOL     OW60650   7.539   8.014   4.042
52959SOL    HW160651   7.450   7.978   4.046
52959SOL    HW260652   7.586   7.956   3.983
52960SOL     OW60653  14.382   0.636  11.717
52960SOL    HW160654  14.396   0.627  11.812
52960SOL    HW260655  14.407   0.551  11.681
52961SOL     OW60656   6.887   3.684   7.108
52961SOL    HW160657   6.969   3.711   7.151
52961SOL    HW260658   6.894   3.589   7.100
52962SOL     OW60659  13.835  10.769   1.214
52962SOL    HW160660  13.806  10.691   1.262
52962SOL    HW260661  13.768  10.783   1.148
52963SOL     OW60662  11.853   9.928   3.475
52963SOL    HW160663  11.821   9.965   3.393
52963SOL    HW260664  11.775   9.919   3.530
52964SOL     OW60665   5.528   6.340   1.378
52964SOL    HW160666   5.536   6.245   1.390
52964SOL    HW260667   5.612   6.375   1.407
52965SOL     OW60668   7.425   7.510   0.751
52965SOL    HW160669   7.490   7.578   0.728
52965SOL    HW260670   7.405   7.526   0.843
52966SOL     OW60671   5.028   7.330   0.121
52966SOL    HW160672   5.001   7.243   0.150
52966SOL    HW260673   5.074   7.368   0.195
52967SOL     OW60674   2.633   9.545   3.053
52967SOL    HW160675   2.629   9.618   2.990
52967SOL    HW260676   2.727   9.533   3.069
52968SOL     OW60677   3.963   0.165   6.868
52968SOL    HW160678   3.931   0.240   6.919
52968SOL    HW260679   4.058   0.180   6.860
52969SOL     OW60680   8.488   1.898   0.341
52969SOL    HW160681   8.432   1.946   0.402
52969SOL    HW260682   8.465   1.934   0.255
52970SOL     OW60683   0.679   2.108  11.710
52970SOL    HW160684   0.609   2.162  11.674
52970SOL    HW260685   0.652   2.018  11.691
52971SOL     OW60686  14.663   9.116   4.952
52971SOL    HW160687  14.628   9.058   4.884
52971SOL    HW260688  14.690   9.058   5.022
52972SOL     OW60689   5.116   6.229  12.062
52972SOL    HW160690   5.196   6.277  12.041
52972SOL    HW260691   5.046   6.294  12.055
52973SOL     OW60692   0.490   9.234   9.292
52973SOL    HW160693   0.422   9.180   9.252
52973SOL    HW260694   0.460   9.246   9.382
52974SOL     OW60695   3.810  12.150   4.720
52974SOL    HW160696   3.786  12.075   4.775
52974SOL    HW260697   3.874  12.114   4.658
52975SOL     OW60698   0.243   4.494   2.466
52975SOL    HW160699   0.329   4.478   2.503
52975SOL    HW260700   0.184   4.438   2.517
52976SOL     OW60701  14.015   0.321  14.024
52976SOL    HW160702  14.032   0.308  13.931
52976SOL    HW260703  14.020   0.415  14.037
52977SOL     OW60704   2.459  12.321   3.861
52977SOL    HW160705   2.528  12.387   3.862
52977SOL    HW260706   2.415  12.334   3.777
52978SOL     OW60707   8.500   3.988  13.884
52978SOL    HW160708   8.588   3.985  13.848
52978SOL    HW260709   8.471   3.896  13.884
52979SOL     OW60710   4.892   3.596  10.776
52979SOL    HW160711   4.809   3.572  10.817
52979SOL    HW260712   4.870   3.614  10.685
52980SOL     OW60713  13.871  12.536  14.600
52980SOL    HW160714  13.889  12.630  14.605
52980SOL    HW260715  13.938  12.496  14.656
52981SOL     OW60716   5.768   9.645   6.934
52981SOL    HW160717   5.857   9.663   6.903
52981SOL    HW260718   5.767   9.550   6.949
52982SOL     OW60719   4.919  14.759   3.666
52982SOL    HW160720   4.967  14.685   3.629
52982SOL    HW260721   4.971  14.836   3.641
52983SOL     OW60722   4.268  13.207   6.666
52983SOL    HW160723   4.226  13.268   6.727
52983SOL    HW260724   4.271  13.124   6.713
52984SOL     OW60725   8.407   6.032  13.485
52984SOL    HW160726   8.424   5.944  13.518
52984SOL    HW260727   8.410   6.022  13.390
52985SOL     OW60728  14.397   9.020  13.943
52985SOL    HW160729  14.303   9.010  13.958
52985SOL    HW260730  14.404   9.097  13.886
52986SOL     OW60731  12.369   3.860   7.122
52986SOL    HW160732  12.394   3.940   7.168
52986SOL    HW260733  12.351   3.796   7.191
52987SOL     OW60734   3.388   5.529   3.099
52987SOL    HW160735   3.301   5.552   3.065
52987SOL    HW260736   3.369   5.476   3.177
52988SOL     OW60737  12.602  11.474  14.056
52988SOL    HW160738  12.689  11.441  14.079
52988SOL    HW260739  12.564  11.406  14.000
52989SOL     OW60740  10.157  12.254   4.806
52989SOL    HW160741  10.172  12.182   4.744
52989SOL    HW260742  10.209  12.230   4.882
52990SOL     OW60743   3.912  11.719   9.557
52990SOL    HW160744   3.875  11.630   9.561
52990SOL    HW260745   3.903  11.744   9.465
52991SOL     OW60746   1.262   7.516  10.369
52991SOL    HW160747   1.210   7.585  10.328
52991SOL    HW260748   1.331   7.497  10.305
52992SOL     OW60749   2.508   2.607   4.862
52992SOL    HW160750   2.439   2.662   4.825
52992SOL    HW260751   2.485   2.599   4.955
52993SOL     OW60752   5.838   9.344  12.558
52993SOL    HW160753   5.858   9.275  12.495
52993SOL    HW260754   5.865   9.309  12.642
52994SOL     OW60755   9.369   8.115   1.329
52994SOL    HW160756   9.331   8.174   1.394
52994SOL    HW260757   9.313   8.037   1.333
52995SOL     OW60758  11.035   8.610  13.660
52995SOL    HW160759  10.943   8.602  13.686
52995SOL    HW260760  11.076   8.532  13.695
52996SOL     OW60761  11.439   3.158   5.527
52996SOL    HW160762  11.524   3.199   5.543
52996SOL    HW260763  11.456   3.064   5.537
52997SOL     OW60764  10.312  10.005  10.379
52997SOL    HW160765  10.230  10.052  10.363
52997SOL    HW260766  10.288   9.913  10.376
52998SOL     OW60767  12.847  14.688  10.345
52998SOL    HW160768  12.800  14.735  10.413
52998SOL    HW260769  12.855  14.599  10.378
52999SOL     OW60770   8.294   4.112  11.066
52999SOL    HW160771   8.248   4.139  10.986
52999SOL    HW260772   8.357   4.182  11.082
53000SOL     OW60773   4.143  13.699  11.363
53000SOL    HW160774   4.058  13.715  11.322
53000SOL    HW260775   4.206  13.707  11.291
53001SOL     OW60776  14.033   6.944  10.728
53001SOL    HW160777  14.016   6.850  10.723
53001SOL    HW260778  14.017   6.966  10.819
53002SOL     OW60779  10.161   5.444   6.204
53002SOL    HW160780  10.086   5.488   6.246
53002SOL    HW260781  10.223   5.514   6.185
53003SOL     OW60782   5.436   0.659   8.485
53003SOL    HW160783   5.440   0.663   8.581
53003SOL    HW260784   5.347   0.685   8.464
53004SOL     OW60785   0.136   7.334   7.728
53004SOL    HW160786   0.153   7.322   7.635
53004SOL    HW260787   0.144   7.247   7.766
53005SOL     OW60788  11.074   6.342  13.634
53005SOL    HW160789  11.110   6.430  13.642
53005SOL    HW260790  11.151   6.285  13.627
53006SOL     OW60791  11.394  11.434  13.706
53006SOL    HW160792  11.438  11.481  13.777
53006SOL    HW260793  11.331  11.497  13.670
53007SOL     OW60794   9.524   8.044   3.252
53007SOL    HW160795   9.480   7.997   3.323
53007SOL    HW260796   9.556   7.975   3.194
53008SOL     OW60797  13.243   6.509   7.866
53008SOL    HW160798  13.166   6.485   7.815
53008SOL    HW260799  13.256   6.602   7.846
53009SOL     OW60800   6.003  13.276  13.705
53009SOL    HW160801   6.027  13.282  13.797
53009SOL    HW260802   5.918  13.319  13.699
53010SOL     OW60803   4.095   6.555  14.144
53010SOL    HW160804   4.090   6.502  14.223
53010SOL    HW260805   4.007   6.592  14.134
53011SOL     OW60806   8.831   5.965   8.952
53011SOL    HW160807   8.909   5.961   8.897
53011SOL    HW260808   8.832   5.883   9.000
53012SOL     OW60809   6.152   4.066   8.042
53012SOL    HW160810   6.240   4.079   8.007
53012SOL    HW260811   6.098   4.133   8.000
53013SOL     OW60812   6.744   9.436   2.959
53013SOL    HW160813   6.810   9.433   2.889
53013SOL    HW260814   6.662   9.451   2.912
53014SOL     OW60815  11.420   3.803   4.348
53014SOL    HW160816  11.410   3.870   4.416
53014SOL    HW260817  11.402   3.721   4.393
53015SOL     OW60818   9.050  13.703  11.655
53015SOL    HW160819   9.013  13.750  11.730
53015SOL    HW260820   9.144  13.704  11.671
53016SOL     OW60821   1.848   0.391  13.086
53016SOL    HW160822   1.817   0.390  12.996
53016SOL    HW260823   1.944   0.384  13.079
53017SOL     OW60824   3.701   5.470  10.822
53017SOL    HW160825   3.659   5.535  10.765
53017SOL    HW260826   3.674   5.494  10.910
53018SOL     OW60827   1.213  11.514  13.052
53018SOL    HW160828   1.174  11.511  13.139
53018SOL    HW260829   1.263  11.433  13.046
53019SOL     OW60830   5.480   0.701   6.161
53019SOL    HW160831   5.457   0.729   6.072
53019SOL    HW260832   5.417   0.632   6.182
53020SOL     OW60833   4.030  12.825   0.256
53020SOL    HW160834   4.030  12.731   0.234
53020SOL    HW260835   4.114  12.840   0.298
53021SOL     OW60836  13.931   6.697   8.311
53021SOL    HW160837  13.861   6.759   8.290
53021SOL    HW260838  13.969   6.730   8.392
53022SOL     OW60839   8.495   8.079   4.334
53022SOL    HW160840   8.498   8.046   4.245
53022SOL    HW260841   8.562   8.029   4.381
53023SOL     OW60842   1.861   2.810   2.731
53023SOL    HW160843   1.774   2.771   2.733
53023SOL    HW260844   1.921   2.737   2.748
53024SOL     OW60845   8.626   6.781  14.813
53024SOL    HW160846   8.556   6.833  14.773
53024SOL    HW260847   8.609   6.785   0.030
53025SOL     OW60848   6.655   5.721   7.123
53025SOL    HW160849   6.699   5.667   7.188
53025SOL    HW260850   6.716   5.792   7.104
53026SOL     OW60851   3.863   8.680   9.233
53026SOL    HW160852   3.953   8.701   9.259
53026SOL    HW260853   3.828   8.630   9.306
53027SOL     OW60854   1.599   8.995  14.015
53027SOL    HW160855   1.527   9.024  13.960
53027SOL    HW260856   1.671   9.053  13.992
53028SOL     OW60857   8.949   7.855   3.162
53028SOL    HW160858   8.944   7.759   3.159
53028SOL    HW260859   8.973   7.880   3.072
53029SOL     OW60860   7.032   0.606   0.288
53029SOL    HW160861   7.037   0.523   0.240
53029SOL    HW260862   6.964   0.591   0.354
53030SOL     OW60863   6.144  14.631   6.529
53030SOL    HW160864   6.209  14.701   6.532
53030SOL    HW260865   6.130  14.615   6.435
53031SOL     OW60866   4.070   9.669  11.095
53031SOL    HW160867   4.033   9.718  11.168
53031SOL    HW260868   4.165   9.681  11.104
53032SOL     OW60869  11.089   5.768   6.017
53032SOL    HW160870  11.081   5.678   6.048
53032SOL    HW260871  11.183   5.780   6.003
53033SOL     OW60872   8.872   4.906   3.681
53033SOL    HW160873   8.781   4.933   3.676
53033SOL    HW260874   8.896   4.884   3.591
53034SOL     OW60875   5.113  13.915   6.931
53034SOL    HW160876   5.087  13.824   6.921
53034SOL    HW260877   5.084  13.958   6.850
53035SOL     OW60878   1.394   9.581   5.243
53035SOL    HW160879   1.454   9.645   5.204
53035SOL    HW260880   1.441   9.498   5.239
53036SOL     OW60881   8.449  13.457   0.997
53036SOL    HW160882   8.404  13.404   0.932
53036SOL    HW260883   8.380  13.506   1.042
53037SOL     OW60884   5.024   2.243   6.636
53037SOL    HW160885   5.014   2.316   6.697
53037SOL    HW260886   4.969   2.173   6.673
53038SOL     OW60887  14.832  10.230   5.733
53038SOL    HW160888  14.849  10.268   5.819
53038SOL    HW260889  14.836  10.135   5.747
53039SOL     OW60890  13.988   8.352   9.897
53039SOL    HW160891  14.027   8.328   9.814
53039SOL    HW260892  13.981   8.447   9.893
53040SOL     OW60893   4.934  10.484   4.616
53040SOL    HW160894   4.842  10.470   4.639
53040SOL    HW260895   4.975  10.398   4.629
53041SOL     OW60896   3.506   9.483   8.467
53041SOL    HW160897   3.558   9.415   8.509
53041SOL    HW260898   3.551   9.565   8.489
53042SOL     OW60899   9.506   7.006  12.710
53042SOL    HW160900   9.571   6.936  12.699
53042SOL    HW260901   9.430   6.976  12.661
53043SOL     OW60902   4.530  11.253   6.940
53043SOL    HW160903   4.567  11.224   6.857
53043SOL    HW260904   4.451  11.302   6.916
53044SOL     OW60905  10.393  11.356  12.802
53044SOL    HW160906  10.373  11.438  12.847
53044SOL    HW260907  10.307  11.313  12.792
53045SOL     OW60908  14.795   5.326   0.829
53045SOL    HW160909  14.763   5.413   0.853
53045SOL    HW260910  14.801   5.329   0.733
53046SOL     OW60911   1.946   8.477   3.482
53046SOL    HW160912   1.908   8.558   3.448
53046SOL    HW260913   1.884   8.447   3.549
53047SOL     OW60914  14.066   3.371   2.150
53047SOL    HW160915  14.089   3.280   2.135
53047SOL    HW260916  14.105   3.418   2.076
53048SOL     OW60917   5.142   5.934   1.344
53048SOL    HW160918   5.048   5.939   1.360
53048SOL    HW260919   5.175   5.878   1.415
53049SOL     OW60920   8.082  12.817   3.066
53049SOL    HW160921   7.996  12.830   3.106
53049SOL    HW260922   8.137  12.787   3.138
53050SOL     OW60923   3.354   9.884   8.599
53050SOL    HW160924   3.259   9.893   8.609
53050SOL    HW260925   3.380   9.822   8.667
53051SOL     OW60926   4.450   4.459   6.066
53051SOL    HW160927   4.356   4.473   6.076
53051SOL    HW260928   4.457   4.374   6.022
53052SOL     OW60929  10.834  12.021  13.625
53052SOL    HW160930  10.823  12.073  13.546
53052SOL    HW260931  10.750  11.978  13.638
53053SOL     OW60932   2.793  10.819   9.849
53053SOL    HW160933   2.814  10.885   9.783
53053SOL    HW260934   2.771  10.741   9.799
53054SOL     OW60935   8.046   3.257  13.841
53054SOL    HW160936   7.988   3.225  13.772
53054SOL    HW260937   8.105   3.184  13.859
53055SOL     OW60938  13.143  11.862   6.233
53055SOL    HW160939  13.150  11.811   6.313
53055SOL    HW260940  13.085  11.811   6.177
53056SOL     OW60941   7.029  12.683  13.034
53056SOL    HW160942   7.076  12.723  13.107
53056SOL    HW260943   6.976  12.753  12.998
53057SOL     OW60944   3.936   8.759   6.991
53057SOL    HW160945   3.932   8.808   7.073
53057SOL    HW260946   3.888   8.678   7.008
53058SOL     OW60947   7.873   6.230   0.323
53058SOL    HW160948   7.943   6.192   0.375
53058SOL    HW260949   7.834   6.156   0.277
53059SOL     OW60950   4.376   3.470  12.593
53059SOL    HW160951   4.466   3.503  12.585
53059SOL    HW260952   4.332   3.500  12.513
53060SOL     OW60953   3.247   1.808   9.875
53060SOL    HW160954   3.273   1.900   9.882
53060SOL    HW260955   3.214   1.800   9.785
53061SOL     OW60956   0.226   8.961  14.474
53061SOL    HW160957   0.241   9.051  14.502
53061SOL    HW260958   0.168   8.924  14.540
53062SOL     OW60959   6.119   6.658  13.482
53062SOL    HW160960   6.168   6.731  13.444
53062SOL    HW260961   6.166   6.637  13.563
53063SOL     OW60962   4.961   1.547   5.243
53063SOL    HW160963   4.961   1.456   5.215
53063SOL    HW260964   5.053   1.571   5.249
53064SOL     OW60965   6.268   0.539   6.085
53064SOL    HW160966   6.344   0.592   6.062
53064SOL    HW260967   6.245   0.494   6.004
53065SOL     OW60968   6.261  13.529  13.779
53065SOL    HW160969   6.179  13.578  13.784
53065SOL    HW260970   6.236  13.438  13.795
53066SOL     OW60971  10.253   5.149   1.375
53066SOL    HW160972  10.312   5.189   1.310
53066SOL    HW260973  10.184   5.108   1.323
53067SOL     OW60974  11.946   3.543   7.511
53067SOL    HW160975  11.930   3.610   7.444
53067SOL    HW260976  12.039   3.524   7.504
53068SOL     OW60977  13.510   0.850   4.103
53068SOL    HW160978  13.568   0.774   4.097
53068SOL    HW260979  13.569   0.925   4.101
53069SOL     OW60980   1.598  10.437  10.929
53069SOL    HW160981   1.575  10.398  11.014
53069SOL    HW260982   1.685  10.400  10.910
53070SOL     OW60983  12.929   1.537   2.648
53070SOL    HW160984  12.840   1.520   2.618
53070SOL    HW260985  12.948   1.466   2.709
53071SOL     OW60986   0.868   5.735  14.679
53071SOL    HW160987   0.954   5.760  14.711
53071SOL    HW260988   0.884   5.659  14.623
53072SOL     OW60989  10.203   3.936   3.549
53072SOL    HW160990  10.201   3.927   3.644
53072SOL    HW260991  10.136   4.000   3.529
53073SOL     OW60992   7.060   9.385   2.205
53073SOL    HW160993   6.982   9.439   2.191
53073SOL    HW260994   7.128   9.427   2.153
53074SOL     OW60995   9.101  10.411  14.522
53074SOL    HW160996   9.019  10.369  14.495
53074SOL    HW260997   9.082  10.505  14.517
53075SOL     OW60998   8.191   2.470   7.722
53075SOL    HW160999   8.212   2.436   7.635
53075SOL    HW261000   8.220   2.402   7.782
53076SOL     OW61001   8.492   2.904  14.480
53076SOL    HW161002   8.544   2.980  14.506
53076SOL    HW261003   8.529   2.831  14.530
53077SOL     OW61004   7.790  14.181   4.980
53077SOL    HW161005   7.876  14.152   5.010
53077SOL    HW261006   7.768  14.255   5.038
53078SOL     OW61007  13.475   5.396   5.372
53078SOL    HW161008  13.462   5.308   5.336
53078SOL    HW261009  13.562   5.394   5.412
53079SOL     OW61010   1.684   3.631  12.827
53079SOL    HW161011   1.646   3.639  12.915
53079SOL    HW261012   1.613   3.655  12.768
53080SOL     OW61013  10.180   0.008   0.893
53080SOL    HW161014  10.119   0.029   0.822
53080SOL    HW261015  10.125  14.858   0.966
53081SOL     OW61016   8.420   7.210  12.222
53081SOL    HW161017   8.488   7.212  12.289
53081SOL    HW261018   8.425   7.295  12.179
53082SOL     OW61019   3.729  13.478   5.398
53082SOL    HW161020   3.634  13.488   5.387
53082SOL    HW261021   3.748  13.390   5.365
53083SOL     OW61022   4.318  10.330   5.883
53083SOL    HW161023   4.315  10.422   5.912
53083SOL    HW261024   4.403  10.299   5.912
53084SOL     OW61025  11.731  13.880   7.962
53084SOL    HW161026  11.667  13.949   7.981
53084SOL    HW261027  11.743  13.885   7.867
53085SOL     OW61028   6.859  14.576   0.029
53085SOL    HW161029   6.849  14.658  14.858
53085SOL    HW261030   6.813  14.511  14.853
53086SOL     OW61031  14.028   3.635   6.439
53086SOL    HW161032  14.089   3.599   6.504
53086SOL    HW261033  14.062   3.605   6.355
53087SOL     OW61034  13.258  11.218  11.973
53087SOL    HW161035  13.172  11.234  11.933
53087SOL    HW261036  13.271  11.292  12.033
53088SOL     OW61037  11.395  10.575   0.541
53088SOL    HW161038  11.451  10.499   0.524
53088SOL    HW261039  11.438  10.647   0.495
53089SOL     OW61040   7.220   7.693  11.446
53089SOL    HW161041   7.291   7.646  11.490
53089SOL    HW261042   7.253   7.711  11.359
53090SOL     OW61043  10.479   2.408   3.255
53090SOL    HW161044  10.436   2.459   3.323
53090SOL    HW261045  10.534   2.346   3.303
53091SOL     OW61046   0.021   9.825   1.853
53091SOL    HW161047   0.088   9.891   1.870
53091SOL    HW261048   0.070   9.746   1.828
53092SOL     OW61049  10.445  12.337   7.705
53092SOL    HW161050  10.411  12.407   7.649
53092SOL    HW261051  10.397  12.259   7.678
53093SOL     OW61052  10.992   9.250  14.501
53093SOL    HW161053  11.065   9.188  14.512
53093SOL    HW261054  10.925   9.200  14.455
53094SOL     OW61055   5.724   7.609   5.996
53094SOL    HW161056   5.646   7.664   5.998
53094SOL    HW261057   5.692   7.520   5.982
53095SOL     OW61058   2.948   5.759  14.694
53095SOL    HW161059   2.955   5.784  14.602
53095SOL    HW261060   2.934   5.841  14.741
53096SOL     OW61061   1.864   8.059   6.058
53096SOL    HW161062   1.879   8.022   6.145
53096SOL    HW261063   1.947   8.048   6.013
53097SOL     OW61064  12.272   0.307   9.863
53097SOL    HW161065  12.333   0.263   9.803
53097SOL    HW261066  12.219   0.237   9.900
53098SOL     OW61067   3.546   8.196   7.231
53098SOL    HW161068   3.476   8.250   7.268
53098SOL    HW261069   3.508   8.156   7.154
53099SOL     OW61070   5.917  12.959  13.008
53099SOL    HW161071   5.976  12.907  13.063
53099SOL    HW261072   5.970  12.985  12.933
53100SOL     OW61073   3.456   1.994  11.593
53100SOL    HW161074   3.404   2.068  11.623
53100SOL    HW261075   3.536   2.034  11.558
53101SOL     OW61076   8.906   0.407   9.533
53101SOL    HW161077   8.931   0.473   9.597
53101SOL    HW261078   8.986   0.357   9.518
53102SOL     OW61079   0.285   7.476   0.288
53102SOL    HW161080   0.238   7.398   0.315
53102SOL    HW261081   0.262   7.542   0.353
53103SOL     OW61082  11.696  14.006  12.011
53103SOL    HW161083  11.788  14.021  11.991
53103SOL    HW261084  11.649  14.047  11.939
53104SOL     OW61085   4.382  10.213   2.536
53104SOL    HW161086   4.292  10.204   2.502
53104SOL    HW261087   4.403  10.306   2.524
53105SOL     OW61088   4.679   8.358   2.527
53105SOL    HW161089   4.603   8.397   2.483
53105SOL    HW261090   4.685   8.404   2.611
53106SOL     OW61091  13.037   6.586   3.055
53106SOL    HW161092  13.063   6.622   2.970
53106SOL    HW261093  13.120   6.559   3.095
53107SOL     OW61094   2.733   0.434  10.199
53107SOL    HW161095   2.823   0.427  10.166
53107SOL    HW261096   2.708   0.524  10.179
53108SOL     OW61097   7.115   9.699  14.368
53108SOL    HW161098   7.102   9.706  14.462
53108SOL    HW261099   7.210   9.705  14.356
53109SOL     OW61100  13.923  13.695   5.159
53109SOL    HW161101  13.968  13.615   5.185
53109SOL    HW261102  13.935  13.755   5.232
53110SOL     OW61103   3.456  14.382   1.164
53110SOL    HW161104   3.531  14.382   1.106
53110SOL    HW261105   3.447  14.291   1.192
53111SOL     OW61106   2.100   6.867   2.315
53111SOL    HW161107   2.056   6.808   2.254
53111SOL    HW261108   2.105   6.950   2.269
53112SOL     OW61109   3.639   0.824   3.503
53112SOL    HW161110   3.637   0.855   3.413
53112SOL    HW261111   3.670   0.900   3.554
53113SOL     OW61112   6.398  11.633   3.131
53113SOL    HW161113   6.328  11.691   3.161
53113SOL    HW261114   6.398  11.643   3.035
53114SOL     OW61115   9.902   0.639  11.758
53114SOL    HW161116   9.873   0.548  11.749
53114SOL    HW261117   9.890   0.659  11.850
53115SOL     OW61118   2.041   9.100   4.851
53115SOL    HW161119   2.067   9.181   4.894
53115SOL    HW261120   2.102   9.034   4.884
53116SOL     OW61121   0.956  12.128   0.259
53116SOL    HW161122   0.972  12.116   0.353
53116SOL    HW261123   0.939  12.222   0.250
53117SOL     OW61124   6.167   4.081   6.606
53117SOL    HW161125   6.128   4.110   6.524
53117SOL    HW261126   6.108   4.114   6.674
53118SOL     OW61127  11.038   3.280   4.251
53118SOL    HW161128  11.077   3.245   4.171
53118SOL    HW261129  11.007   3.367   4.227
53119SOL     OW61130  12.961   8.639   7.854
53119SOL    HW161131  12.963   8.555   7.901
53119SOL    HW261132  12.946   8.615   7.763
53120SOL     OW61133   7.266  10.005  13.679
53120SOL    HW161134   7.305  10.090  13.696
53120SOL    HW261135   7.177  10.025  13.650
53121SOL     OW61136   2.582   9.595  14.066
53121SOL    HW161137   2.638   9.671  14.057
53121SOL    HW261138   2.524   9.616  14.140
53122SOL     OW61139  13.761   1.274  13.551
53122SOL    HW161140  13.830   1.289  13.486
53122SOL    HW261141  13.680   1.276  13.500
53123SOL     OW61142   2.723   1.064   9.811
53123SOL    HW161143   2.796   1.057   9.873
53123SOL    HW261144   2.705   0.973   9.786
53124SOL     OW61145   6.090  11.576   2.372
53124SOL    HW161146   6.074  11.482   2.359
53124SOL    HW261147   6.015  11.619   2.331
53125SOL     OW61148  12.048  12.506   3.543
53125SOL    HW161149  11.973  12.564   3.537
53125SOL    HW261150  12.109  12.537   3.476
53126SOL     OW61151   7.549  10.228   0.290
53126SOL    HW161152   7.542  10.135   0.267
53126SOL    HW261153   7.488  10.272   0.230
53127SOL     OW61154   1.473   5.743  12.099
53127SOL    HW161155   1.447   5.775  12.185
53127SOL    HW261156   1.494   5.822  12.049
53128SOL     OW61157   0.581   3.125   9.419
53128SOL    HW161158   0.511   3.061   9.434
53128SOL    HW261159   0.658   3.072   9.397
53129SOL     OW61160   7.441   7.632   6.635
53129SOL    HW161161   7.466   7.661   6.723
53129SOL    HW261162   7.465   7.706   6.578
53130SOL     OW61163  13.434  13.377  14.448
53130SOL    HW161164  13.504  13.332  14.401
53130SOL    HW261165  13.465  13.466  14.459
53131SOL     OW61166  14.204   0.559   1.783
53131SOL    HW161167  14.162   0.645   1.780
53131SOL    HW261168  14.182   0.518   1.700
53132SOL     OW61169   0.944   9.202   8.851
53132SOL    HW161170   0.896   9.226   8.772
53132SOL    HW261171   0.916   9.266   8.916
53133SOL     OW61172   4.183   7.977  10.049
53133SOL    HW161173   4.100   8.012  10.016
53133SOL    HW261174   4.170   7.972  10.144
53134SOL     OW61175   4.013   4.765   4.937
53134SOL    HW161176   3.972   4.788   5.020
53134SOL    HW261177   4.002   4.843   4.883
53135SOL     OW61178   9.196   3.967   8.255
53135SOL    HW161179   9.192   3.887   8.309
53135SOL    HW261180   9.107   4.001   8.256
53136SOL     OW61181   9.545  13.449  14.047
53136SOL    HW161182   9.513  13.360  14.064
53136SOL    HW261183   9.598  13.440  13.968
53137SOL     OW61184   1.611   9.135   7.117
53137SOL    HW161185   1.579   9.048   7.141
53137SOL    HW261186   1.695   9.143   7.163
53138SOL     OW61187   8.326  10.512  11.299
53138SOL    HW161188   8.289  10.424  11.293
53138SOL    HW261189   8.417  10.499  11.324
53139SOL     OW61190   7.911   4.897   4.172
53139SOL    HW161191   7.899   4.802   4.163
53139SOL    HW261192   7.884   4.933   4.088
53140SOL     OW61193  10.413   0.676   2.936
53140SOL    HW161194  10.344   0.720   2.886
53140SOL    HW261195  10.366   0.614   2.992
53141SOL     OW61196   0.089   1.240   9.720
53141SOL    HW161197   0.120   1.233   9.630
53141SOL    HW261198  14.871   1.236   9.713
53142SOL     OW61199   0.964   8.443  10.411
53142SOL    HW161200   0.918   8.422  10.492
53142SOL    HW261201   0.973   8.359  10.366
53143SOL     OW61202   1.160   9.904   0.657
53143SOL    HW161203   1.245   9.925   0.620
53143SOL    HW261204   1.111   9.865   0.584
53144SOL     OW61205  12.480   4.289   1.449
53144SOL    HW161206  12.572   4.304   1.471
53144SOL    HW261207  12.448   4.375   1.422
53145SOL     OW61208  10.060   4.199   2.817
53145SOL    HW161209  10.090   4.168   2.732
53145SOL    HW261210   9.986   4.142   2.839
53146SOL     OW61211  13.977   1.868   2.127
53146SOL    HW161212  14.034   1.793   2.107
53146SOL    HW261213  13.973   1.870   2.222
53147SOL     OW61214   3.920   9.849   5.536
53147SOL    HW161215   3.933   9.813   5.624
53147SOL    HW261216   3.979   9.925   5.533
53148SOL     OW61217  14.662  14.330   2.328
53148SOL    HW161218  14.601  14.404   2.338
53148SOL    HW261219  14.607  14.255   2.308
53149SOL     OW61220  13.833  10.188   6.148
53149SOL    HW161221  13.752  10.138   6.151
53149SOL    HW261222  13.861  10.184   6.057
53150SOL     OW61223   0.432  14.121   2.175
53150SOL    HW161224   0.343  14.137   2.206
53150SOL    HW261225   0.472  14.208   2.171
53151SOL     OW61226   3.709  10.196   8.924
53151SOL    HW161227   3.738  10.106   8.942
53151SOL    HW261228   3.712  10.203   8.829
53152SOL     OW61229  14.198   8.370  10.095
53152SOL    HW161230  14.210   8.276  10.095
53152SOL    HW261231  14.149   8.388  10.015
53153SOL     OW61232   3.957   3.274  13.451
53153SOL    HW161233   3.920   3.192  13.417
53153SOL    HW261234   3.972   3.256  13.543
53154SOL     OW61235  12.612   2.116   1.092
53154SOL    HW161236  12.645   2.111   1.181
53154SOL    HW261237  12.644   2.199   1.058
53155SOL     OW61238   2.031   4.364   9.761
53155SOL    HW161239   2.052   4.434   9.699
53155SOL    HW261240   2.115   4.320   9.777
53156SOL     OW61241   9.486   8.204   7.192
53156SOL    HW161242   9.427   8.279   7.182
53156SOL    HW261243   9.451   8.156   7.267
53157SOL     OW61244   9.737   3.518   2.672
53157SOL    HW161245   9.782   3.576   2.611
53157SOL    HW261246   9.646   3.517   2.642
53158SOL     OW61247  14.757   6.920   8.408
53158SOL    HW161248  14.730   6.883   8.492
53158SOL    HW261249  14.816   6.854   8.371
53159SOL     OW61250   8.279  11.777   6.281
53159SOL    HW161251   8.280  11.837   6.206
53159SOL    HW261252   8.212  11.814   6.339
53160SOL     OW61253   4.052  10.975   4.696
53160SOL    HW161254   4.102  10.917   4.638
53160SOL    HW261255   4.107  10.984   4.774
53161SOL     OW61256   3.153  12.607   3.953
53161SOL    HW161257   3.103  12.534   3.914
53161SOL    HW261258   3.212  12.565   4.015
53162SOL     OW61259   2.127  12.159  13.233
53162SOL    HW161260   2.174  12.083  13.267
53162SOL    HW261261   2.129  12.147  13.138
53163SOL     OW61262   1.130  14.778  13.678
53163SOL    HW161263   1.048  14.800  13.722
53163SOL    HW261264   1.104  14.760  13.587
53164SOL     OW61265   8.982   6.902   8.259
53164SOL    HW161266   9.001   6.996   8.267
53164SOL    HW261267   9.066   6.862   8.237
53165SOL     OW61268   0.474   2.397  12.576
53165SOL    HW161269   0.393   2.447  12.564
53165SOL    HW261270   0.530   2.454  12.628
53166SOL     OW61271  11.405  10.111   6.701
53166SOL    HW161272  11.462  10.130   6.776
53166SOL    HW261273  11.457  10.052   6.646
53167SOL     OW61274  11.197   6.999   9.424
53167SOL    HW161275  11.231   6.998   9.334
53167SOL    HW261276  11.265   7.041   9.475
53168SOL     OW61277   9.000   5.337  10.264
53168SOL    HW161278   8.974   5.247  10.244
53168SOL    HW261279   9.081   5.349  10.214
53169SOL     OW61280  14.802   8.169   7.869
53169SOL    HW161281  14.793   8.160   7.774
53169SOL    HW261282  14.795   8.263   7.884
53170SOL     OW61283  13.176  14.469  13.909
53170SOL    HW161284  13.269  14.459  13.932
53170SOL    HW261285  13.141  14.526  13.977
53171SOL     OW61286  13.554  11.326   1.835
53171SOL    HW161287  13.475  11.274   1.847
53171SOL    HW261288  13.554  11.350   1.742
53172SOL     OW61289   0.361   6.275   6.392
53172SOL    HW161290   0.445   6.230   6.379
53172SOL    HW261291   0.316   6.221   6.457
53173SOL     OW61292   8.048   7.446   4.106
53173SOL    HW161293   8.073   7.494   4.184
53173SOL    HW261294   7.991   7.506   4.058
53174SOL     OW61295   9.364   8.265   6.774
53174SOL    HW161296   9.284   8.297   6.732
53174SOL    HW261297   9.435   8.306   6.724
53175SOL     OW61298   6.752   9.704   8.968
53175SOL    HW161299   6.715   9.790   8.988
53175SOL    HW261300   6.775   9.667   9.053
53176SOL     OW61301   1.519  11.104  14.621
53176SOL    HW161302   1.448  11.168  14.624
53176SOL    HW261303   1.539  11.086  14.713
53177SOL     OW61304   5.010   8.301   4.567
53177SOL    HW161305   4.948   8.287   4.495
53177SOL    HW261306   4.969   8.367   4.622
53178SOL     OW61307   2.670  14.181  12.142
53178SOL    HW161308   2.705  14.103  12.100
53178SOL    HW261309   2.734  14.250  12.123
53179SOL     OW61310   2.520   7.422   7.884
53179SOL    HW161311   2.570   7.403   7.963
53179SOL    HW261312   2.581   7.466   7.826
53180SOL     OW61313   8.567  11.385   2.415
53180SOL    HW161314   8.621  11.356   2.342
53180SOL    HW261315   8.586  11.478   2.424
53181SOL     OW61316  12.170   6.192   0.882
53181SOL    HW161317  12.173   6.210   0.789
53181SOL    HW261318  12.166   6.096   0.888
53182SOL     OW61319  13.291  12.211   5.415
53182SOL    HW161320  13.300  12.127   5.461
53182SOL    HW261321  13.317  12.192   5.325
53183SOL     OW61322   0.748  11.649   9.140
53183SOL    HW161323   0.782  11.708   9.207
53183SOL    HW261324   0.775  11.689   9.057
53184SOL     OW61325  12.617   0.621  13.385
53184SOL    HW161326  12.654   0.565  13.454
53184SOL    HW261327  12.527   0.637  13.412
53185SOL     OW61328   3.462   0.930   7.431
53185SOL    HW161329   3.437   0.970   7.514
53185SOL    HW261330   3.381   0.891   7.397
53186SOL     OW61331   7.309   3.999   7.226
53186SOL    HW161332   7.391   4.049   7.233
53186SOL    HW261333   7.322   3.923   7.282
53187SOL     OW61334  12.921   1.074   7.297
53187SOL    HW161335  12.840   1.029   7.323
53187SOL    HW261336  12.933   1.052   7.205
53188SOL     OW61337   5.319  13.843   2.483
53188SOL    HW161338   5.327  13.795   2.401
53188SOL    HW261339   5.289  13.930   2.458
53189SOL     OW61340  12.083  10.268   9.485
53189SOL    HW161341  12.040  10.337   9.435
53189SOL    HW261342  12.166  10.253   9.440
53190SOL     OW61343   7.839   5.778   6.416
53190SOL    HW161344   7.789   5.852   6.450
53190SOL    HW261345   7.773   5.709   6.403
53191SOL     OW61346   0.062   3.515   1.399
53191SOL    HW161347   0.032   3.426   1.382
53191SOL    HW261348   0.150   3.504   1.434
53192SOL     OW61349   5.136   6.487   3.243
53192SOL    HW161350   5.226   6.454   3.239
53192SOL    HW261351   5.125   6.537   3.162
53193SOL     OW61352   4.517  13.644   1.555
53193SOL    HW161353   4.570  13.662   1.633
53193SOL    HW261354   4.564  13.687   1.483
53194SOL     OW61355   6.595   1.688   4.572
53194SOL    HW161356   6.665   1.743   4.539
53194SOL    HW261357   6.542   1.668   4.495
53195SOL     OW61358   2.447   2.865   9.128
53195SOL    HW161359   2.361   2.868   9.085
53195SOL    HW261360   2.445   2.938   9.190
53196SOL     OW61361  14.581   1.065   5.511
53196SOL    HW161362  14.538   0.996   5.562
53196SOL    HW261363  14.671   1.067   5.544
53197SOL     OW61364   0.938  13.819  10.494
53197SOL    HW161365   1.022  13.840  10.452
53197SOL    HW261366   0.961  13.804  10.586
53198SOL     OW61367   8.590  12.470   0.475
53198SOL    HW161368   8.614  12.416   0.400
53198SOL    HW261369   8.536  12.540   0.438
53199SOL     OW61370   1.665   6.274  11.865
53199SOL    HW161371   1.711   6.218  11.801
53199SOL    HW261372   1.643   6.353  11.816
53200SOL     OW61373   0.700  14.811   7.717
53200SOL    HW161374   0.723  14.719   7.699
53200SOL    HW261375   0.631  14.805   7.783
53201SOL     OW61376  11.384   5.026   1.523
53201SOL    HW161377  11.388   5.121   1.526
53201SOL    HW261378  11.476   4.998   1.529
53202SOL     OW61379   3.154   2.596   7.292
53202SOL    HW161380   3.217   2.612   7.222
53202SOL    HW261381   3.122   2.507   7.275
53203SOL     OW61382   7.874   6.235   9.042
53203SOL    HW161383   7.834   6.148   9.042
53203SOL    HW261384   7.801   6.295   9.055
53204SOL     OW61385   7.339   4.264  10.113
53204SOL    HW161386   7.429   4.245  10.138
53204SOL    HW261387   7.305   4.317  10.185
53205SOL     OW61388   7.008   9.085   3.657
53205SOL    HW161389   7.034   9.107   3.746
53205SOL    HW261390   7.047   9.154   3.603
53206SOL     OW61391  14.574   7.151   7.607
53206SOL    HW161392  14.604   7.110   7.526
53206SOL    HW261393  14.482   7.124   7.615
53207SOL     OW61394  14.605   0.513   9.408
53207SOL    HW161395  14.598   0.504   9.503
53207SOL    HW261396  14.666   0.585   9.395
53208SOL     OW61397   0.673   7.230   0.429
53208SOL    HW161398   0.758   7.204   0.394
53208SOL    HW261399   0.620   7.150   0.426
53209SOL     OW61400  13.793  13.369  13.663
53209SOL    HW161401  13.858  13.436  13.642
53209SOL    HW261402  13.725  13.416  13.711
53210SOL     OW61403   2.871  10.712   6.111
53210SOL    HW161404   2.852  10.681   6.200
53210SOL    HW261405   2.956  10.755   6.118
53211SOL     OW61406   0.831  14.793   5.699
53211SOL    HW161407   0.877  14.876   5.683
53211SOL    HW261408   0.845  14.742   5.620
53212SOL     OW61409   4.635  12.031   6.863
53212SOL    HW161410   4.571  12.005   6.930
53212SOL    HW261411   4.718  11.995   6.894
53213SOL     OW61412  11.757   4.667  14.430
53213SOL    HW161413  11.732   4.646  14.340
53213SOL    HW261414  11.695   4.617  14.484
53214SOL     OW61415   1.169   8.838   8.506
53214SOL    HW161416   1.119   8.907   8.462
53214SOL    HW261417   1.114   8.760   8.500
53215SOL     OW61418   0.125  10.459   5.119
53215SOL    HW161419   0.058  10.506   5.169
53215SOL    HW261420   0.141  10.514   5.043
53216SOL     OW61421  11.568   3.600   4.122
53216SOL    HW161422  11.619   3.523   4.147
53216SOL    HW261423  11.604   3.671   4.176
53217SOL     OW61424  10.839   8.999   0.682
53217SOL    HW161425  10.782   9.019   0.607
53217SOL    HW261426  10.851   8.904   0.678
53218SOL     OW61427   6.451  11.654  12.592
53218SOL    HW161428   6.494  11.685  12.512
53218SOL    HW261429   6.358  11.652  12.571
53219SOL     OW61430   3.130   3.289   2.687
53219SOL    HW161431   3.176   3.278   2.603
53219SOL    HW261432   3.060   3.351   2.667
53220SOL     OW61433   8.879  12.000   8.013
53220SOL    HW161434   8.835  11.967   8.092
53220SOL    HW261435   8.886  11.923   7.957
53221SOL     OW61436  14.397   2.032  14.163
53221SOL    HW161437  14.381   1.947  14.121
53221SOL    HW261438  14.317   2.049  14.213
53222SOL     OW61439   8.407  14.462   6.728
53222SOL    HW161440   8.461  14.413   6.666
53222SOL    HW261441   8.372  14.396   6.788
53223SOL     OW61442   1.394   6.902   2.571
53223SOL    HW161443   1.375   6.872   2.660
53223SOL    HW261444   1.360   6.834   2.514
53224SOL     OW61445   1.623  13.099   4.322
53224SOL    HW161446   1.546  13.120   4.269
53224SOL    HW261447   1.673  13.036   4.269
53225SOL     OW61448  13.512  10.932   5.709
53225SOL    HW161449  13.511  10.979   5.793
53225SOL    HW261450  13.477  10.995   5.646
53226SOL     OW61451  10.274  13.325   7.021
53226SOL    HW161452  10.362  13.314   6.985
53226SOL    HW261453  10.267  13.257   7.089
53227SOL     OW61454  12.485   2.484   8.884
53227SOL    HW161455  12.497   2.577   8.904
53227SOL    HW261456  12.510   2.476   8.792
53228SOL     OW61457  13.161   4.747  11.474
53228SOL    HW161458  13.069   4.757  11.501
53228SOL    HW261459  13.207   4.818  11.519
53229SOL     OW61460   0.889   9.296  12.651
53229SOL    HW161461   0.880   9.374  12.706
53229SOL    HW261462   0.883   9.223  12.713
53230SOL     OW61463   3.202   6.824   4.916
53230SOL    HW161464   3.284   6.773   4.915
53230SOL    HW261465   3.227   6.910   4.881
53231SOL     OW61466  12.893   0.828   8.710
53231SOL    HW161467  12.922   0.914   8.740
53231SOL    HW261468  12.816   0.846   8.656
53232SOL     OW61469   2.847  14.318  13.348
53232SOL    HW161470   2.835  14.409  13.377
53232SOL    HW261471   2.942  14.305  13.353
53233SOL     OW61472   2.017   5.067   6.461
53233SOL    HW161473   2.095   5.088   6.409
53233SOL    HW261474   2.037   4.982   6.500
53234SOL     OW61475   6.327   8.440   7.215
53234SOL    HW161476   6.235   8.416   7.218
53234SOL    HW261477   6.364   8.387   7.145
53235SOL     OW61478   3.287   0.588  12.766
53235SOL    HW161479   3.331   0.512  12.729
53235SOL    HW261480   3.355   0.654  12.775
53236SOL     OW61481   7.926  10.548   3.295
53236SOL    HW161482   7.954  10.466   3.335
53236SOL    HW261483   7.839  10.530   3.261
53237SOL     OW61484  13.392  11.155  12.783
53237SOL    HW161485  13.367  11.205  12.861
53237SOL    HW261486  13.346  11.072  12.792
53238SOL     OW61487   0.941   5.458  13.676
53238SOL    HW161488   0.926   5.467  13.770
53238SOL    HW261489   0.977   5.543  13.649
53239SOL     OW61490   5.849   2.434   5.195
53239SOL    HW161491   5.776   2.466   5.141
53239SOL    HW261492   5.926   2.481   5.161
53240SOL     OW61493   7.757   6.108   5.223
53240SOL    HW161494   7.691   6.176   5.213
53240SOL    HW261495   7.813   6.139   5.294
53241SOL     OW61496  11.161   5.173   8.006
53241SOL    HW161497  11.177   5.079   8.014
53241SOL    HW261498  11.079   5.188   8.051
53242SOL     OW61499   7.519   4.406   7.665
53242SOL    HW161500   7.599   4.425   7.617
53242SOL    HW261501   7.524   4.459   7.744
53243SOL     OW61502  10.298   4.531   0.257
53243SOL    HW161503  10.272   4.557   0.168
53243SOL    HW261504  10.367   4.466   0.244
53244SOL     OW61505   8.281   8.844   9.441
53244SOL    HW161506   8.248   8.835   9.352
53244SOL    HW261507   8.361   8.896   9.432
53245SOL     OW61508   5.173  13.324   5.410
53245SOL    HW161509   5.208  13.235   5.420
53245SOL    HW261510   5.079  13.312   5.401
53246SOL     OW61511   6.258  14.555  13.692
53246SOL    HW161512   6.243  14.468  13.730
53246SOL    HW261513   6.208  14.615  13.747
53247SOL     OW61514  13.400  11.225  11.651
53247SOL    HW161515  13.337  11.154  11.651
53247SOL    HW261516  13.372  11.282  11.579
53248SOL     OW61517   5.744   3.503   9.179
53248SOL    HW161518   5.753   3.495   9.274
53248SOL    HW261519   5.685   3.432   9.155
53249SOL     OW61520   5.083   5.452   3.353
53249SOL    HW161521   5.008   5.511   3.340
53249SOL    HW261522   5.048   5.365   3.333
53250SOL     OW61523   6.302  11.616   9.984
53250SOL    HW161524   6.220  11.602  10.031
53250SOL    HW261525   6.333  11.528   9.965
53251SOL     OW61526  12.197   8.457   6.957
53251SOL    HW161527  12.258   8.498   6.895
53251SOL    HW261528  12.159   8.531   7.005
53252SOL     OW61529   4.150   1.390  11.874
53252SOL    HW161530   4.201   1.315  11.903
53252SOL    HW261531   4.090   1.408  11.946
53253SOL     OW61532   5.937  10.812   6.135
53253SOL    HW161533   6.027  10.843   6.145
53253SOL    HW261534   5.907  10.796   6.224
53254SOL     OW61535  12.869  14.522  10.671
53254SOL    HW161536  12.838  14.437  10.702
53254SOL    HW261537  12.825  14.585  10.727
53255SOL     OW61538   9.070   1.108   4.756
53255SOL    HW161539   9.166   1.113   4.757
53255SOL    HW261540   9.043   1.193   4.720
53256SOL     OW61541   9.698   6.937   4.033
53256SOL    HW161542   9.668   6.921   4.122
53256SOL    HW261543   9.667   6.861   3.983
53257SOL     OW61544   4.841   8.236   5.650
53257SOL    HW161545   4.756   8.270   5.675
53257SOL    HW261546   4.902   8.309   5.663
53258SOL     OW61547   7.884   0.794  13.065
53258SOL    HW161548   7.931   0.813  13.146
53258SOL    HW261549   7.810   0.740  13.094
53259SOL     OW61550  12.782  10.558   3.819
53259SOL    HW161551  12.696  10.580   3.784
53259SOL    HW261552  12.787  10.607   3.902
53260SOL     OW61553  12.742  14.550   3.874
53260SOL    HW161554  12.712  14.496   3.801
53260SOL    HW261555  12.762  14.486   3.943
53261SOL     OW61556   4.599   6.319   4.276
53261SOL    HW161557   4.579   6.228   4.252
53261SOL    HW261558   4.691   6.330   4.252
53262SOL     OW61559   8.963   9.357   3.073
53262SOL    HW161560   8.909   9.434   3.090
53262SOL    HW261561   9.036   9.365   3.134
53263SOL     OW61562   8.711   6.121   9.445
53263SOL    HW161563   8.732   6.040   9.491
53263SOL    HW261564   8.616   6.121   9.438
53264SOL     OW61565   7.364   9.064   6.745
53264SOL    HW161566   7.382   9.154   6.772
53264SOL    HW261567   7.276   9.046   6.780
53265SOL     OW61568   3.822  11.740  11.792
53265SOL    HW161569   3.778  11.690  11.724
53265SOL    HW261570   3.844  11.823  11.750
53266SOL     OW61571   4.671   0.226   6.883
53266SOL    HW161572   4.688   0.320   6.876
53266SOL    HW261573   4.588   0.220   6.930
53267SOL     OW61574  10.392   8.384  11.138
53267SOL    HW161575  10.392   8.427  11.053
53267SOL    HW261576  10.373   8.292  11.118
53268SOL     OW61577   6.296   3.125   2.650
53268SOL    HW161578   6.345   3.062   2.596
53268SOL    HW261579   6.266   3.073   2.724
53269SOL     OW61580   0.536   1.106  13.674
53269SOL    HW161581   0.535   1.033  13.736
53269SOL    HW261582   0.493   1.178  13.721
53270SOL     OW61583   8.750  10.230   1.908
53270SOL    HW161584   8.839  10.195   1.908
53270SOL    HW261585   8.704  10.175   1.972
53271SOL     OW61586   7.313   0.420  10.642
53271SOL    HW161587   7.336   0.482  10.572
53271SOL    HW261588   7.374   0.441  10.713
53272SOL     OW61589  11.534  11.667   8.770
53272SOL    HW161590  11.543  11.757   8.801
53272SOL    HW261591  11.624  11.639   8.751
53273SOL     OW61592  12.916   9.959   1.401
53273SOL    HW161593  12.861   9.899   1.452
53273SOL    HW261594  12.987   9.982   1.461
53274SOL     OW61595  14.280   1.395   5.501
53274SOL    HW161596  14.223   1.403   5.425
53274SOL    HW261597  14.223   1.365   5.571
53275SOL     OW61598   5.690   2.392  13.039
53275SOL    HW161599   5.706   2.330  13.111
53275SOL    HW261600   5.658   2.338  12.967
53276SOL     OW61601   1.602  13.022  13.500
53276SOL    HW161602   1.587  12.930  13.520
53276SOL    HW261603   1.695  13.035  13.516
53277SOL     OW61604   9.834  10.238  13.112
53277SOL    HW161605   9.906  10.235  13.049
53277SOL    HW261606   9.878  10.235  13.198
53278SOL     OW61607   5.655  12.290   6.643
53278SOL    HW161608   5.642  12.384   6.655
53278SOL    HW261609   5.590  12.249   6.700
53279SOL     OW61610   5.436   3.945   8.692
53279SOL    HW161611   5.398   3.900   8.617
53279SOL    HW261612   5.366   4.001   8.724
53280SOL     OW61613   8.829   4.750   7.818
53280SOL    HW161614   8.845   4.656   7.808
53280SOL    HW261615   8.912   4.786   7.848
53281SOL     OW61616   5.565   9.726  11.484
53281SOL    HW161617   5.472   9.717  11.466
53281SOL    HW261618   5.591   9.804  11.436
53282SOL     OW61619   4.082  13.696   3.923
53282SOL    HW161620   4.165  13.690   3.876
53282SOL    HW261621   4.067  13.607   3.956
53283SOL     OW61622  13.255  10.594  12.667
53283SOL    HW161623  13.283  10.517  12.715
53283SOL    HW261624  13.330  10.653  12.670
53284SOL     OW61625   7.490   5.382  11.864
53284SOL    HW161626   7.466   5.460  11.814
53284SOL    HW261627   7.542   5.416  11.937
53285SOL     OW61628   3.550  12.830  14.352
53285SOL    HW161629   3.578  12.854  14.441
53285SOL    HW261630   3.492  12.755  14.365
53286SOL     OW61631  10.470   0.926   8.433
53286SOL    HW161632  10.468   0.875   8.353
53286SOL    HW261633  10.417   1.004   8.414
53287SOL     OW61634   1.799  10.259   9.328
53287SOL    HW161635   1.764  10.330   9.274
53287SOL    HW261636   1.776  10.284   9.418
53288SOL     OW61637  12.502   9.519   5.867
53288SOL    HW161638  12.544   9.442   5.827
53288SOL    HW261639  12.523   9.512   5.960
53289SOL     OW61640   7.540   5.930   0.947
53289SOL    HW161641   7.594   5.997   0.990
53289SOL    HW261642   7.483   5.979   0.888
53290SOL     OW61643   2.140   3.771   6.069
53290SOL    HW161644   2.087   3.696   6.043
53290SOL    HW261645   2.092   3.847   6.038
53291SOL     OW61646   5.765   2.138   6.252
53291SOL    HW161647   5.673   2.125   6.229
53291SOL    HW261648   5.814   2.097   6.181
53292SOL     OW61649  13.891   2.376  11.168
53292SOL    HW161650  13.886   2.399  11.261
53292SOL    HW261651  13.842   2.295  11.161
53293SOL     OW61652  10.293   1.963   1.800
53293SOL    HW161653  10.316   1.989   1.889
53293SOL    HW261654  10.340   2.025   1.744
53294SOL     OW61655   1.527  10.269   2.293
53294SOL    HW161656   1.458  10.269   2.360
53294SOL    HW261657   1.483  10.239   2.214
53295SOL     OW61658  10.090   1.732  12.711
53295SOL    HW161659  10.134   1.782  12.780
53295SOL    HW261660  10.013   1.694  12.753
53296SOL     OW61661  11.587   8.621  11.694
53296SOL    HW161662  11.580   8.638  11.600
53296SOL    HW261663  11.635   8.538  11.700
53297SOL     OW61664  10.187   8.915  13.238
53297SOL    HW161665  10.230   8.969  13.171
53297SOL    HW261666  10.259   8.881  13.291
53298SOL     OW61667  11.393  10.810   1.444
53298SOL    HW161668  11.360  10.859   1.368
53298SOL    HW261669  11.433  10.732   1.406
53299SOL     OW61670   0.732  12.967  12.121
53299SOL    HW161671   0.655  13.010  12.158
53299SOL    HW261672   0.702  12.880  12.098
53300SOL     OW61673  11.925   0.825   2.224
53300SOL    HW161674  11.984   0.787   2.159
53300SOL    HW261675  11.948   0.918   2.227
53301SOL     OW61676   2.329   4.768   0.285
53301SOL    HW161677   2.384   4.800   0.214
53301SOL    HW261678   2.241   4.763   0.246
53302SOL     OW61679  14.854   0.559  10.907
53302SOL    HW161680   0.038   0.525  10.841
53302SOL    HW261681  14.823   0.642  10.870
53303SOL     OW61682   3.474   8.362  12.054
53303SOL    HW161683   3.394   8.376  12.104
53303SOL    HW261684   3.521   8.294  12.102
53304SOL     OW61685   9.259   5.748   2.975
53304SOL    HW161686   9.232   5.838   2.994
53304SOL    HW261687   9.340   5.737   3.024
53305SOL     OW61688  13.797   4.962   2.145
53305SOL    HW161689  13.770   4.919   2.226
53305SOL    HW261690  13.734   5.034   2.134
53306SOL     OW61691   7.024   5.213   6.885
53306SOL    HW161692   7.104   5.205   6.938
53306SOL    HW261693   6.958   5.246   6.946
53307SOL     OW61694  13.112   5.379   8.484
53307SOL    HW161695  13.103   5.360   8.391
53307SOL    HW261696  13.206   5.379   8.500
53308SOL     OW61697   7.549   1.059   5.425
53308SOL    HW161698   7.567   1.146   5.391
53308SOL    HW261699   7.559   1.001   5.350
53309SOL     OW61700   8.754  14.765  13.839
53309SOL    HW161701   8.735  14.857  13.857
53309SOL    HW261702   8.736  14.720  13.921
53310SOL     OW61703  14.029   3.569  12.283
53310SOL    HW161704  14.086   3.531  12.217
53310SOL    HW261705  14.000   3.494  12.336
53311SOL     OW61706  11.572  10.220   1.712
53311SOL    HW161707  11.476  10.217   1.712
53311SOL    HW261708  11.598  10.128   1.712
53312SOL     OW61709   7.126   6.618   5.158
53312SOL    HW161710   7.165   6.577   5.081
53312SOL    HW261711   7.080   6.695   5.123
53313SOL     OW61712  11.165   4.369  13.038
53313SOL    HW161713  11.252   4.384  13.076
53313SOL    HW261714  11.178   4.296  12.977
53314SOL     OW61715   4.859   9.545   2.389
53314SOL    HW161716   4.798   9.581   2.324
53314SOL    HW261717   4.877   9.618   2.448
53315SOL     OW61718   2.255   9.324   6.651
53315SOL    HW161719   2.250   9.240   6.605
53315SOL    HW261720   2.324   9.311   6.717
53316SOL     OW61721   3.534   9.972   5.342
53316SOL    HW161722   3.534   9.907   5.272
53316SOL    HW261723   3.452   9.955   5.390
53317SOL     OW61724   4.725   9.440   8.335
53317SOL    HW161725   4.773   9.475   8.410
53317SOL    HW261726   4.634   9.437   8.364
53318SOL     OW61727   4.062   4.082  14.801
53318SOL    HW161728   4.020   4.130  14.872
53318SOL    HW261729   4.082   3.996  14.838
53319SOL     OW61730  11.625   0.006   0.702
53319SOL    HW161731  11.549  14.865   0.647
53319SOL    HW261732  11.700  14.876   0.643
53320SOL     OW61733  12.241   8.384   7.767
53320SOL    HW161734  12.268   8.474   7.787
53320SOL    HW261735  12.231   8.382   7.672
53321SOL     OW61736   9.485   7.855   2.364
53321SOL    HW161737   9.523   7.939   2.338
53321SOL    HW261738   9.405   7.848   2.311
53322SOL     OW61739   3.196  14.229   1.356
53322SOL    HW161740   3.202  14.229   1.451
53322SOL    HW261741   3.284  14.204   1.326
53323SOL     OW61742   5.024   9.908   2.717
53323SOL    HW161743   5.046   9.998   2.741
53323SOL    HW261744   5.013   9.862   2.801
53324SOL     OW61745   8.404  13.489   6.544
53324SOL    HW161746   8.482  13.523   6.501
53324SOL    HW261747   8.340  13.560   6.538
53325SOL     OW61748  10.852   7.196   4.359
53325SOL    HW161749  10.861   7.273   4.303
53325SOL    HW261750  10.780   7.218   4.418
53326SOL     OW61751  13.042  10.869   2.511
53326SOL    HW161752  13.103  10.838   2.444
53326SOL    HW261753  13.092  10.864   2.593
53327SOL     OW61754   9.074  11.669   4.410
53327SOL    HW161755   9.105  11.581   4.429
53327SOL    HW261756   8.980  11.666   4.429
53328SOL     OW61757   4.650  10.645   3.142
53328SOL    HW161758   4.633  10.572   3.084
53328SOL    HW261759   4.700  10.607   3.215
53329SOL     OW61760   6.427   6.623   2.490
53329SOL    HW161761   6.519   6.647   2.479
53329SOL    HW261762   6.423   6.531   2.465
53330SOL     OW61763  13.596  14.780  12.130
53330SOL    HW161764  13.587  14.712  12.197
53330SOL    HW261765  13.566  14.860  12.174
53331SOL     OW61766   1.075   5.312   1.209
53331SOL    HW161767   1.075   5.225   1.248
53331SOL    HW261768   1.075   5.372   1.284
53332SOL     OW61769   9.136   3.178  12.152
53332SOL    HW161770   9.148   3.185  12.247
53332SOL    HW261771   9.221   3.203  12.115
53333SOL     OW61772   4.976   5.093   7.511
53333SOL    HW161773   4.938   5.028   7.571
53333SOL    HW261774   4.911   5.164   7.510
53334SOL     OW61775   3.780   0.832  10.176
53334SOL    HW161776   3.811   0.754  10.221
53334SOL    HW261777   3.823   0.905  10.222
53335SOL     OW61778   3.908   0.212   9.702
53335SOL    HW161779   3.917   0.117   9.690
53335SOL    HW261780   3.944   0.228   9.790
53336SOL     OW61781   7.936  13.049   6.917
53336SOL    HW161782   7.964  13.034   7.007
53336SOL    HW261783   7.925  13.144   6.911
53337SOL     OW61784   8.682   3.326  12.743
53337SOL    HW161785   8.705   3.233  12.751
53337SOL    HW261786   8.757   3.371  12.781
53338SOL     OW61787  10.000   4.939  11.721
53338SOL    HW161788   9.977   4.847  11.717
53338SOL    HW261789   9.967   4.969  11.806
53339SOL     OW61790   0.359   7.523   5.964
53339SOL    HW161791   0.410   7.542   6.042
53339SOL    HW261792   0.277   7.486   5.997
53340SOL     OW61793   4.376  14.146   1.319
53340SOL    HW161794   4.392  14.116   1.409
53340SOL    HW261795   4.286  14.119   1.300
53341SOL     OW61796   5.588   3.831  10.934
53341SOL    HW161797   5.547   3.773  10.870
53341SOL    HW261798   5.576   3.787  11.018
53342SOL     OW61799   5.891  12.876   6.192
53342SOL    HW161800   5.799  12.852   6.184
53342SOL    HW261801   5.902  12.948   6.130
53343SOL     OW61802  13.304   3.897  12.683
53343SOL    HW161803  13.363   3.971  12.666
53343SOL    HW261804  13.300   3.891  12.779
53344SOL     OW61805   5.393   1.560  14.502
53344SOL    HW161806   5.462   1.603  14.452
53344SOL    HW261807   5.314   1.574  14.452
53345SOL     OW61808  14.414   8.585   4.658
53345SOL    HW161809  14.379   8.497   4.648
53345SOL    HW261810  14.479   8.593   4.588
53346SOL     OW61811   6.346  10.705   5.253
53346SOL    HW161812   6.370  10.688   5.162
53346SOL    HW261813   6.260  10.748   5.246
53347SOL     OW61814  10.183   6.885   6.909
53347SOL    HW161815  10.224   6.898   6.994
53347SOL    HW261816  10.127   6.962   6.897
53348SOL     OW61817   5.569   7.555   7.034
53348SOL    HW161818   5.531   7.606   6.963
53348SOL    HW261819   5.493   7.518   7.080
53349SOL     OW61820  10.297   3.108  14.269
53349SOL    HW161821  10.292   3.189  14.217
53349SOL    HW261822  10.243   3.126  14.346
53350SOL     OW61823  14.862  10.059  12.118
53350SOL    HW161824  14.792  10.028  12.062
53350SOL    HW261825   0.054  10.084  12.058
53351SOL     OW61826   2.918  11.052   5.133
53351SOL    HW161827   2.848  11.012   5.184
53351SOL    HW261828   2.951  10.981   5.078
53352SOL     OW61829  13.526  13.892   6.124
53352SOL    HW161830  13.590  13.840   6.173
53352SOL    HW261831  13.447  13.838   6.125
53353SOL     OW61832   5.371   1.415   4.047
53353SOL    HW161833   5.420   1.493   4.074
53353SOL    HW261834   5.291   1.450   4.008
53354SOL     OW61835   0.038   0.408  12.226
53354SOL    HW161836   0.121   0.380  12.187
53354SOL    HW261837   0.044   0.381  12.318
53355SOL     OW61838   4.567   4.970   0.169
53355SOL    HW161839   4.566   5.043   0.231
53355SOL    HW261840   4.570   5.011   0.083
53356SOL     OW61841   9.585   1.563  10.425
53356SOL    HW161842   9.576   1.586  10.333
53356SOL    HW261843   9.515   1.499  10.440
53357SOL     OW61844   3.223   2.044   6.222
53357SOL    HW161845   3.303   1.993   6.232
53357SOL    HW261846   3.165   1.986   6.172
53358SOL     OW61847   2.939   0.808   0.824
53358SOL    HW161848   2.849   0.801   0.854
53358SOL    HW261849   2.985   0.848   0.899
53359SOL     OW61850  12.253   4.869   1.127
53359SOL    HW161851  12.345   4.846   1.117
53359SOL    HW261852  12.209   4.817   1.059
53360SOL     OW61853   8.512   1.094  14.683
53360SOL    HW161854   8.583   1.157  14.695
53360SOL    HW261855   8.490   1.065  14.771
53361SOL     OW61856   4.255   1.157  14.124
53361SOL    HW161857   4.213   1.089  14.071
53361SOL    HW261858   4.208   1.238  14.102
53362SOL     OW61859   3.981   6.778   9.069
53362SOL    HW161860   3.925   6.701   9.074
53362SOL    HW261861   4.068   6.744   9.050
53363SOL     OW61862   8.930  13.943   1.614
53363SOL    HW161863   8.948  13.855   1.581
53363SOL    HW261864   8.919  13.932   1.709
53364SOL     OW61865   4.430   7.841  11.578
53364SOL    HW161866   4.340   7.842  11.610
53364SOL    HW261867   4.467   7.760  11.611
53365SOL     OW61868   6.172   2.325  13.100
53365SOL    HW161869   6.169   2.419  13.118
53365SOL    HW261870   6.154   2.283  13.184
53366SOL     OW61871   1.814   4.175   3.395
53366SOL    HW161872   1.787   4.256   3.437
53366SOL    HW261873   1.741   4.115   3.409
53367SOL     OW61874   9.958  14.459   8.545
53367SOL    HW161875  10.043  14.473   8.502
53367SOL    HW261876   9.895  14.462   8.473
53368SOL     OW61877   3.320  12.922   7.249
53368SOL    HW161878   3.388  12.861   7.276
53368SOL    HW261879   3.241  12.868   7.243
53369SOL     OW61880   7.365   7.131   8.971
53369SOL    HW161881   7.289   7.095   8.926
53369SOL    HW261882   7.406   7.056   9.013
53370SOL     OW61883   0.529  10.351   6.483
53370SOL    HW161884   0.562  10.261   6.486
53370SOL    HW261885   0.605  10.403   6.456
53371SOL     OW61886  11.660   7.423  11.634
53371SOL    HW161887  11.640   7.387  11.721
53371SOL    HW261888  11.648   7.517  11.644
53372SOL     OW61889   0.642  12.184   0.388
53372SOL    HW161890   0.657  12.097   0.424
53372SOL    HW261891   0.705  12.240   0.433
53373SOL     OW61892   8.653   9.977   0.587
53373SOL    HW161893   8.578   9.934   0.546
53373SOL    HW261894   8.676  10.048   0.528
53374SOL     OW61895  12.504   4.161  13.341
53374SOL    HW161896  12.519   4.084  13.396
53374SOL    HW261897  12.542   4.234  13.390
53375SOL     OW61898   9.163   5.078  12.462
53375SOL    HW161899   9.193   5.164  12.492
53375SOL    HW261900   9.237   5.020  12.479
53376SOL     OW61901   4.002  10.240   4.126
53376SOL    HW161902   4.090  10.217   4.096
53376SOL    HW261903   4.017  10.295   4.203
53377SOL     OW61904  14.783   6.653   7.497
53377SOL    HW161905  14.807   6.592   7.427
53377SOL    HW261906  14.693   6.678   7.478
53378SOL     OW61907  10.929   5.870  10.818
53378SOL    HW161908  10.908   5.943  10.875
53378SOL    HW261909  10.974   5.807  10.874
53379SOL     OW61910  11.978   5.041   8.307
53379SOL    HW161911  11.899   4.994   8.282
53379SOL    HW261912  12.042   5.018   8.240
53380SOL     OW61913  10.209  11.020  12.895
53380SOL    HW161914  10.284  11.074  12.921
53380SOL    HW261915  10.240  10.930  12.905
53381SOL     OW61916   7.054   1.333   7.316
53381SOL    HW161917   7.045   1.238   7.329
53381SOL    HW261918   7.085   1.365   7.400
53382SOL     OW61919  14.458  12.235  14.642
53382SOL    HW161920  14.532  12.287  14.610
53382SOL    HW261921  14.439  12.174  14.571
53383SOL     OW61922  13.224   4.150   9.225
53383SOL    HW161923  13.131   4.149   9.206
53383SOL    HW261924  13.242   4.063   9.263
53384SOL     OW61925  12.212   4.147   1.217
53384SOL    HW161926  12.251   4.075   1.268
53384SOL    HW261927  12.239   4.226   1.263
53385SOL     OW61928  11.762   5.290   9.040
53385SOL    HW161929  11.771   5.244   8.957
53385SOL    HW261930  11.740   5.380   9.016
53386SOL     OW61931  14.382  10.415  10.936
53386SOL    HW161932  14.389  10.477  11.009
53386SOL    HW261933  14.337  10.339  10.973
53387SOL     OW61934   0.896   9.688  10.008
53387SOL    HW161935   0.924   9.665  10.097
53387SOL    HW261936   0.809   9.651  10.000
53388SOL     OW61937   0.904   8.470   1.228
53388SOL    HW161938   0.860   8.505   1.151
53388SOL    HW261939   0.938   8.385   1.200
53389SOL     OW61940   7.909  11.926   1.455
53389SOL    HW161941   7.974  11.995   1.471
53389SOL    HW261942   7.825  11.970   1.465
53390SOL     OW61943  13.741  10.170   6.842
53390SOL    HW161944  13.720  10.205   6.929
53390SOL    HW261945  13.722  10.077   6.849
53391SOL     OW61946   0.150  12.320   9.398
53391SOL    HW161947   0.054  12.314   9.391
53391SOL    HW261948   0.182  12.252   9.339
53392SOL     OW61949  13.911  14.381  12.503
53392SOL    HW161950  13.885  14.298  12.463
53392SOL    HW261951  14.003  14.391  12.481
53393SOL     OW61952   5.377  11.140   7.076
53393SOL    HW161953   5.377  11.048   7.103
53393SOL    HW261954   5.406  11.188   7.154
53394SOL     OW61955  11.227   1.437  13.340
53394SOL    HW161956  11.320   1.416  13.351
53394SOL    HW261957  11.188   1.415  13.425
53395SOL     OW61958   8.827   0.485  12.083
53395SOL    HW161959   8.849   0.410  12.029
53395SOL    HW261960   8.904   0.498  12.139
53396SOL     OW61961  10.735   5.372   3.949
53396SOL    HW161962  10.688   5.343   4.027
53396SOL    HW261963  10.694   5.324   3.877
53397SOL     OW61964  11.062   2.391   1.482
53397SOL    HW161965  11.151   2.388   1.446
53397SOL    HW261966  11.034   2.482   1.469
53398SOL     OW61967  13.871   3.153   4.830
53398SOL    HW161968  13.923   3.195   4.761
53398SOL    HW261969  13.842   3.225   4.885
53399SOL     OW61970   0.024  12.482   5.173
53399SOL    HW161971   0.018  12.516   5.262
53399SOL    HW261972   0.017  12.559   5.117
53400SOL     OW61973   4.502   7.675   7.755
53400SOL    HW161974   4.492   7.588   7.715
53400SOL    HW261975   4.438   7.676   7.827
53401SOL     OW61976   1.133   6.026   4.844
53401SOL    HW161977   1.136   5.967   4.769
53401SOL    HW261978   1.183   6.103   4.816
53402SOL     OW61979  11.078   5.117  14.160
53402SOL    HW161980  10.991   5.100  14.123
53402SOL    HW261981  11.120   5.175  14.097
53403SOL     OW61982   3.700   4.987  11.050
53403SOL    HW161983   3.741   5.071  11.072
53403SOL    HW261984   3.628   5.011  10.992
53404SOL     OW61985   4.693   8.603  12.792
53404SOL    HW161986   4.715   8.664  12.862
53404SOL    HW261987   4.604   8.627  12.765
53405SOL     OW61988   6.323   7.868   9.989
53405SOL    HW161989   6.313   7.939  10.053
53405SOL    HW261990   6.417   7.854   9.984
53406SOL     OW61991   5.943  10.881  13.051
53406SOL    HW161992   6.028  10.883  13.094
53406SOL    HW261993   5.882  10.915  13.117
53407SOL     OW61994  14.610   8.770  11.958
53407SOL    HW161995  14.639   8.679  11.953
53407SOL    HW261996  14.638   8.809  11.875
53408SOL     OW61997   9.436   3.470  13.477
53408SOL    HW161998   9.475   3.557  13.472
53408SOL    HW261999   9.510   3.410  13.467
53409SOL     OW62000   3.256  11.854  11.031
53409SOL    HW162001   3.201  11.836  11.107
53409SOL    HW262002   3.194  11.877  10.962
53410SOL     OW62003   6.406   0.767   5.201
53410SOL    HW162004   6.314   0.786   5.185
53410SOL    HW262005   6.422   0.684   5.155
53411SOL     OW62006  12.956   1.746  14.868
53411SOL    HW162007  12.960   1.732  14.773
53411SOL    HW262008  12.967   1.659   0.029
53412SOL     OW62009  10.117  13.326   8.763
53412SOL    HW162010  10.190  13.268   8.740
53412SOL    HW262011  10.149  13.378   8.837
53413SOL     OW62012  13.070   7.858   4.476
53413SOL    HW162013  13.068   7.791   4.544
53413SOL    HW262014  12.978   7.876   4.456
53414SOL     OW62015  13.149   9.630   3.869
53414SOL    HW162016  13.136   9.604   3.960
53414SOL    HW262017  13.111   9.559   3.817
53415SOL     OW62018  10.925   5.161   1.478
53415SOL    HW162019  10.975   5.216   1.417
53415SOL    HW262020  10.894   5.222   1.545
53416SOL     OW62021  12.813  14.724   3.134
53416SOL    HW162022  12.875  14.783   3.092
53416SOL    HW262023  12.831  14.638   3.095
53417SOL     OW62024   6.506   8.202   1.731
53417SOL    HW162025   6.442   8.267   1.702
53417SOL    HW262026   6.571   8.200   1.662
53418SOL     OW62027  11.156   5.925   5.627
53418SOL    HW162028  11.078   5.874   5.650
53418SOL    HW262029  11.226   5.860   5.622
53419SOL     OW62030  14.329   8.814   0.325
53419SOL    HW162031  14.281   8.897   0.317
53419SOL    HW262032  14.392   8.830   0.396
53420SOL     OW62033  10.276   1.186  12.084
53420SOL    HW162034  10.264   1.091  12.093
53420SOL    HW262035  10.340   1.208  12.151
53421SOL     OW62036   1.515   2.213   2.993
53421SOL    HW162037   1.484   2.126   2.968
53421SOL    HW262038   1.471   2.231   3.076
53422SOL     OW62039   1.810   4.832   9.356
53422SOL    HW162040   1.824   4.898   9.424
53422SOL    HW262041   1.799   4.882   9.276
53423SOL     OW62042   1.468  12.129  14.073
53423SOL    HW162043   1.388  12.159  14.030
53423SOL    HW262044   1.520  12.092  14.003
53424SOL     OW62045   4.430  11.980   6.680
53424SOL    HW162046   4.498  11.990   6.747
53424SOL    HW262047   4.478  11.954   6.601
53425SOL     OW62048  14.341   4.868   4.868
53425SOL    HW162049  14.425   4.884   4.912
53425SOL    HW262050  14.351   4.782   4.828
53426SOL     OW62051   4.665  10.547   0.145
53426SOL    HW162052   4.743  10.493   0.153
53426SOL    HW262053   4.697  10.633   0.117
53427SOL     OW62054   3.125   9.988   3.527
53427SOL    HW162055   3.156   9.903   3.496
53427SOL    HW262056   3.132   9.982   3.623
53428SOL     OW62057   9.241   0.528   8.672
53428SOL    HW162058   9.173   0.588   8.641
53428SOL    HW262059   9.210   0.499   8.758
53429SOL     OW62060  11.682  11.497  14.743
53429SOL    HW162061  11.635  11.529  14.666
53429SOL    HW262062  11.746  11.565  14.763
53430SOL     OW62063   1.770   5.610   5.695
53430SOL    HW162064   1.794   5.552   5.623
53430SOL    HW262065   1.751   5.552   5.768
53431SOL     OW62066  11.227   4.780   9.968
53431SOL    HW162067  11.251   4.723   9.895
53431SOL    HW262068  11.262   4.866   9.944
53432SOL     OW62069   1.833   5.305   2.853
53432SOL    HW162070   1.775   5.356   2.909
53432SOL    HW262071   1.918   5.308   2.897
53433SOL     OW62072   7.451   8.359   5.892
53433SOL    HW162073   7.380   8.303   5.862
53433SOL    HW262074   7.412   8.447   5.895
53434SOL     OW62075   0.299   0.531  10.481
53434SOL    HW162076   0.336   0.472  10.548
53434SOL    HW262077   0.267   0.472  10.413
53435SOL     OW62078  12.446  11.305  10.241
53435SOL    HW162079  12.378  11.308  10.174
53435SOL    HW262080  12.399  11.304  10.324
53436SOL     OW62081   8.324   3.585   0.616
53436SOL    HW162082   8.348   3.605   0.706
53436SOL    HW262083   8.275   3.662   0.587
53437SOL     OW62084  10.384  10.179   0.640
53437SOL    HW162085  10.402  10.132   0.722
53437SOL    HW262086  10.452  10.148   0.581
53438SOL     OW62087   8.708   2.037  11.586
53438SOL    HW162088   8.781   1.998  11.538
53438SOL    HW262089   8.659   2.086  11.520
53439SOL     OW62090  14.706   0.986   3.950
53439SOL    HW162091  14.698   1.053   4.018
53439SOL    HW262092  14.784   1.010   3.901
53440SOL     OW62093   4.829  13.352   1.090
53440SOL    HW162094   4.871  13.428   1.128
53440SOL    HW262095   4.814  13.293   1.164
53441SOL     OW62096  14.189  13.084   1.628
53441SOL    HW162097  14.269  13.069   1.678
53441SOL    HW262098  14.118  13.066   1.690
53442SOL     OW62099  13.107   5.119   4.654
53442SOL    HW162100  13.058   5.053   4.703
53442SOL    HW262101  13.137   5.180   4.721
53443SOL     OW62102   6.316   6.178  13.021
53443SOL    HW162103   6.270   6.215  12.945
53443SOL    HW262104   6.251   6.181  13.091
53444SOL     OW62105   1.089  14.058  12.876
53444SOL    HW162106   1.076  13.987  12.939
53444SOL    HW262107   1.029  14.038  12.804
53445SOL     OW62108  11.717   3.115   4.949
53445SOL    HW162109  11.745   3.061   4.875
53445SOL    HW262110  11.747   3.066   5.026
53446SOL     OW62111  11.715  10.798  12.427
53446SOL    HW162112  11.718  10.734  12.356
53446SOL    HW262113  11.622  10.801  12.452
53447SOL     OW62114   7.940   3.456   1.823
53447SOL    HW162115   7.906   3.545   1.834
53447SOL    HW262116   7.873   3.400   1.862
53448SOL     OW62117  10.620   9.617   1.479
53448SOL    HW162118  10.572   9.575   1.407
53448SOL    HW262119  10.688   9.669   1.436
53449SOL     OW62120   3.654  11.961   7.381
53449SOL    HW162121   3.694  11.877   7.403
53449SOL    HW262122   3.678  11.977   7.290
53450SOL     OW62123   0.168   1.690   1.258
53450SOL    HW162124   0.255   1.676   1.220
53450SOL    HW262125   0.171   1.644   1.342
53451SOL     OW62126  10.334   8.862  14.696
53451SOL    HW162127  10.245   8.888  14.720
53451SOL    HW262128  10.385   8.942  14.700
53452SOL     OW62129   8.388   6.788   5.373
53452SOL    HW162130   8.465   6.757   5.324
53452SOL    HW262131   8.314   6.770   5.315
53453SOL     OW62132   6.876   6.775  11.771
53453SOL    HW162133   6.870   6.687  11.808
53453SOL    HW262134   6.931   6.765  11.693
53454SOL     OW62135  14.209   9.484   6.715
53454SOL    HW162136  14.145   9.501   6.784
53454SOL    HW262137  14.286   9.536   6.739
53455SOL     OW62138  10.162   6.144   3.455
53455SOL    HW162139  10.153   6.148   3.550
53455SOL    HW262140  10.246   6.099   3.441
53456SOL     OW62141  11.004  10.039   6.416
53456SOL    HW162142  10.954   9.990   6.481
53456SOL    HW262143  11.089  10.056   6.458
53457SOL     OW62144  12.948   1.167   5.794
53457SOL    HW162145  12.996   1.171   5.877
53457SOL    HW262146  12.988   1.094   5.747
53458SOL     OW62147  11.251   2.766   1.683
53458SOL    HW162148  11.279   2.839   1.739
53458SOL    HW262149  11.277   2.688   1.732
53459SOL     OW62150   3.015   5.936   0.258
53459SOL    HW162151   3.094   5.990   0.247
53459SOL    HW262152   3.046   5.846   0.247
53460SOL     OW62153   8.556   0.034   3.663
53460SOL    HW162154   8.585   0.106   3.720
53460SOL    HW262155   8.584  14.832   3.708
53461SOL     OW62156  14.369  13.033  14.588
53461SOL    HW162157  14.361  12.938  14.599
53461SOL    HW262158  14.462  13.048  14.572
53462SOL     OW62159   3.402   9.321  14.651
53462SOL    HW162160   3.382   9.313  14.744
53462SOL    HW262161   3.319   9.304  14.606
53463SOL     OW62162   2.424   8.538   7.977
53463SOL    HW162163   2.458   8.473   7.916
53463SOL    HW262164   2.464   8.516   8.061
53464SOL     OW62165  10.666   6.378  14.316
53464SOL    HW162166  10.623   6.331  14.388
53464SOL    HW262167  10.756   6.346  14.316
53465SOL     OW62168   3.690   1.641   8.066
53465SOL    HW162169   3.763   1.636   8.003
53465SOL    HW262170   3.688   1.555   8.107
53466SOL     OW62171  12.580   5.467   2.868
53466SOL    HW162172  12.523   5.542   2.856
53466SOL    HW262173  12.543   5.420   2.943
53467SOL     OW62174   8.949  11.321   2.858
53467SOL    HW162175   8.932  11.393   2.798
53467SOL    HW262176   8.862  11.287   2.880
53468SOL     OW62177   4.131   8.153   9.688
53468SOL    HW162178   4.086   8.109   9.760
53468SOL    HW262179   4.224   8.137   9.704
53469SOL     OW62180   3.524   1.929  11.166
53469SOL    HW162181   3.460   1.897  11.229
53469SOL    HW262182   3.608   1.894  11.196
53470SOL     OW62183   7.967  13.904  13.305
53470SOL    HW162184   7.947  13.900  13.398
53470SOL    HW262185   7.935  13.989  13.276
53471SOL     OW62186   3.122   0.282   0.002
53471SOL    HW162187   3.090   0.347   0.064
53471SOL    HW262188   3.208   0.315  14.852
53472SOL     OW62189  12.631   7.440  13.220
53472SOL    HW162190  12.694   7.426  13.291
53472SOL    HW262191  12.685   7.464  13.144
53473SOL     OW62192   4.877   4.656   3.723
53473SOL    HW162193   4.808   4.616   3.669
53473SOL    HW262194   4.903   4.734   3.674
53474SOL     OW62195   0.911   6.457   7.369
53474SOL    HW162196   0.827   6.472   7.412
53474SOL    HW262197   0.976   6.475   7.437
53475SOL     OW62198   4.483   6.283  10.757
53475SOL    HW162199   4.521   6.340  10.825
53475SOL    HW262200   4.399   6.256  10.793
53476SOL     OW62201   1.227   1.322   8.663
53476SOL    HW162202   1.266   1.277   8.588
53476SOL    HW262203   1.220   1.254   8.731
53477SOL     OW62204   6.137   3.871  10.627
53477SOL    HW162205   6.154   3.785  10.589
53477SOL    HW262206   6.109   3.853  10.717
53478SOL     OW62207   1.879  10.484  14.216
53478SOL    HW162208   1.895  10.511  14.307
53478SOL    HW262209   1.906  10.559  14.164
53479SOL     OW62210   7.934   2.112   0.751
53479SOL    HW162211   7.956   2.192   0.800
53479SOL    HW262212   7.940   2.138   0.659
53480SOL     OW62213  13.150  11.083   4.861
53480SOL    HW162214  13.216  11.120   4.803
53480SOL    HW262215  13.201  11.044   4.933
53481SOL     OW62216   1.583   8.614  13.371
53481SOL    HW162217   1.594   8.525  13.338
53481SOL    HW262218   1.520   8.655  13.312
53482SOL     OW62219   7.633  14.762   0.624
53482SOL    HW162220   7.680  14.804   0.696
53482SOL    HW262221   7.698  14.705   0.583
53483SOL     OW62222  14.644   2.065   3.738
53483SOL    HW162223  14.728   2.108   3.724
53483SOL    HW262224  14.651   2.027   3.826
53484SOL     OW62225  11.333  12.413   0.409
53484SOL    HW162226  11.395  12.484   0.424
53484SOL    HW262227  11.254  12.440   0.454
53485SOL     OW62228   5.860   0.827   1.951
53485SOL    HW162229   5.825   0.803   2.037
53485SOL    HW262230   5.796   0.791   1.889
53486SOL     OW62231  11.976  12.785  11.367
53486SOL    HW162232  12.056  12.733  11.364
53486SOL    HW262233  11.990  12.854  11.302
53487SOL     OW62234  13.280  12.983  10.786
53487SOL    HW162235  13.231  13.050  10.739
53487SOL    HW262236  13.241  12.980  10.873
53488SOL     OW62237   7.474  11.550   5.344
53488SOL    HW162238   7.380  11.543   5.360
53488SOL    HW262239   7.496  11.471   5.294
53489SOL     OW62240  14.553   6.804   5.797
53489SOL    HW162241  14.546   6.894   5.764
53489SOL    HW262242  14.510   6.751   5.730
53490SOL     OW62243  14.628   9.868  11.701
53490SOL    HW162244  14.627   9.837  11.611
53490SOL    HW262245  14.631   9.789  11.754
53491SOL     OW62246   9.252  11.431  12.702
53491SOL    HW162247   9.168  11.397  12.670
53491SOL    HW262248   9.310  11.425  12.626
53492SOL     OW62249   5.508   0.369   2.753
53492SOL    HW162250   5.552   0.377   2.669
53492SOL    HW262251   5.568   0.411   2.815
53493SOL     OW62252  14.331  14.415   2.869
53493SOL    HW162253  14.353  14.435   2.778
53493SOL    HW262254  14.240  14.385   2.866
53494SOL     OW62255   5.087   6.791   2.776
53494SOL    HW162256   5.076   6.736   2.699
53494SOL    HW262257   5.084   6.730   2.850
53495SOL     OW62258   0.769   9.275  11.543
53495SOL    HW162259   0.839   9.222  11.506
53495SOL    HW262260   0.811   9.324  11.614
53496SOL     OW62261   0.371   6.116  10.307
53496SOL    HW162262   0.400   6.028  10.285
53496SOL    HW262263   0.406   6.131  10.395
53497SOL     OW62264   8.533   5.437  11.393
53497SOL    HW162265   8.569   5.509  11.342
53497SOL    HW262266   8.458   5.475  11.439
53498SOL     OW62267   2.338  13.814  10.453
53498SOL    HW162268   2.261  13.781  10.406
53498SOL    HW262269   2.379  13.735  10.490
53499SOL     OW62270  13.018   7.010   3.579
53499SOL    HW162271  12.924   6.993   3.573
53499SOL    HW262272  13.033   7.082   3.517
53500SOL     OW62273   1.976  12.127   8.376
53500SOL    HW162274   2.033  12.059   8.340
53500SOL    HW262275   1.950  12.094   8.462
53501SOL     OW62276   2.180   1.161  14.309
53501SOL    HW162277   2.260   1.191  14.266
53501SOL    HW262278   2.112   1.222  14.278
53502SOL     OW62279   1.408  13.652   5.234
53502SOL    HW162280   1.383  13.566   5.201
53502SOL    HW262281   1.354  13.665   5.312
53503SOL     OW62282   1.601   5.387   3.998
53503SOL    HW162283   1.593   5.329   4.075
53503SOL    HW262284   1.674   5.350   3.948
53504SOL     OW62285   5.579   8.092   9.372
53504SOL    HW162286   5.517   8.103   9.444
53504SOL    HW262287   5.662   8.124   9.407
53505SOL     OW62288  12.764   8.174  12.811
53505SOL    HW162289  12.819   8.220  12.747
53505SOL    HW262290  12.803   8.087  12.818
53506SOL     OW62291  10.571   0.235   4.349
53506SOL    HW162292  10.599   0.177   4.279
53506SOL    HW262293  10.506   0.184   4.398
53507SOL     OW62294   8.888   5.557  13.167
53507SOL    HW162295   8.839   5.619  13.221
53507SOL    HW262296   8.911   5.486  13.227
53508SOL     OW62297  13.293   9.519   4.592
53508SOL    HW162298  13.343   9.485   4.666
53508SOL    HW262299  13.359   9.544   4.527
53509SOL     OW62300  14.636  14.633   1.728
53509SOL    HW162301  14.655  14.725   1.746
53509SOL    HW262302  14.547  14.619   1.759
53510SOL     OW62303   4.889   8.211   3.422
53510SOL    HW162304   4.851   8.125   3.403
53510SOL    HW262305   4.844   8.240   3.501
53511SOL     OW62306  13.531   3.921   7.221
53511SOL    HW162307  13.460   3.864   7.250
53511SOL    HW262308  13.610   3.881   7.257
53512SOL     OW62309   9.692   1.723   0.353
53512SOL    HW162310   9.779   1.762   0.357
53512SOL    HW262311   9.661   1.742   0.265
53513SOL     OW62312  14.434   0.856  14.678
53513SOL    HW162313  14.420   0.799  14.753
53513SOL    HW262314  14.404   0.942  14.707
53514SOL     OW62315   6.627   2.499   5.716
53514SOL    HW162316   6.679   2.457   5.648
53514SOL    HW262317   6.541   2.513   5.675
53515SOL     OW62318   5.185  12.528  10.123
53515SOL    HW162319   5.133  12.481  10.188
53515SOL    HW262320   5.136  12.518  10.041
53516SOL     OW62321   4.587   6.186   5.289
53516SOL    HW162322   4.672   6.146   5.271
53516SOL    HW262323   4.594   6.274   5.254
53517SOL     OW62324  11.892   1.049   9.690
53517SOL    HW162325  11.859   0.971   9.733
53517SOL    HW262326  11.976   1.067   9.732
53518SOL     OW62327   4.741  13.210   1.298
53518SOL    HW162328   4.672  13.226   1.362
53518SOL    HW262329   4.717  13.126   1.258
53519SOL     OW62330   6.956   0.342  13.028
53519SOL    HW162331   6.878   0.332  13.083
53519SOL    HW262332   7.008   0.264  13.047
53520SOL     OW62333  13.855  13.981  13.487
53520SOL    HW162334  13.835  13.892  13.459
53520SOL    HW262335  13.831  13.984  13.579
53521SOL     OW62336  13.059   1.767   5.781
53521SOL    HW162337  12.981   1.802   5.823
53521SOL    HW262338  13.027   1.727   5.700
53522SOL     OW62339   1.947   0.931   6.026
53522SOL    HW162340   1.997   1.006   6.060
53522SOL    HW262341   2.008   0.888   5.966
53523SOL     OW62342   0.331   4.146   4.242
53523SOL    HW162343   0.325   4.050   4.237
53523SOL    HW262344   0.404   4.169   4.185
53524SOL     OW62345   5.108  12.628   2.874
53524SOL    HW162346   5.172  12.624   2.803
53524SOL    HW262347   5.147  12.688   2.938
53525SOL     OW62348   3.867   6.880  12.223
53525SOL    HW162349   3.899   6.968  12.200
53525SOL    HW262350   3.784   6.896  12.267
53526SOL     OW62351   2.341   9.128  11.793
53526SOL    HW162352   2.320   9.116  11.885
53526SOL    HW262353   2.267   9.177  11.757
53527SOL     OW62354   5.962   1.719  10.067
53527SOL    HW162355   6.000   1.645  10.020
53527SOL    HW262356   5.868   1.711  10.051
53528SOL     OW62357  14.079  13.568   1.966
53528SOL    HW162358  14.090  13.663   1.970
53528SOL    HW262359  13.987  13.555   1.945
53529SOL     OW62360   2.596   8.647   7.552
53529SOL    HW162361   2.520   8.605   7.512
53529SOL    HW262362   2.627   8.583   7.617
53530SOL     OW62363   0.087  11.587  13.263
53530SOL    HW162364   0.152  11.635  13.314
53530SOL    HW262365   0.026  11.654  13.234
53531SOL     OW62366  10.388  11.587   8.002
53531SOL    HW162367  10.348  11.503   8.025
53531SOL    HW262368  10.481  11.568   7.992
53532SOL     OW62369   2.806  10.078  13.467
53532SOL    HW162370   2.719  10.090  13.429
53532SOL    HW262371   2.826  10.162  13.507
53533SOL     OW62372   1.148   1.943  12.987
53533SOL    HW162373   1.221   1.941  13.048
53533SOL    HW262374   1.155   2.027  12.942
53534SOL     OW62375   6.242  12.959   3.054
53534SOL    HW162376   6.190  12.920   2.984
53534SOL    HW262377   6.332  12.936   3.033
53535SOL     OW62378   2.842   7.190   4.822
53535SOL    HW162379   2.903   7.173   4.751
53535SOL    HW262380   2.897   7.224   4.893
53536SOL     OW62381   6.821  10.700  11.537
53536SOL    HW162382   6.831  10.784  11.582
53536SOL    HW262383   6.727  10.685  11.534
53537SOL     OW62384  13.802  14.435  13.808
53537SOL    HW162385  13.786  14.529  13.815
53537SOL    HW262386  13.896  14.427  13.793
53538SOL     OW62387   5.146   3.611   8.684
53538SOL    HW162388   5.216   3.648   8.738
53538SOL    HW262389   5.191   3.559   8.617
53539SOL     OW62390  13.054   5.304   1.913
53539SOL    HW162391  13.030   5.213   1.927
53539SOL    HW262392  12.974   5.353   1.932
53540SOL     OW62393   2.722   2.984  13.615
53540SOL    HW162394   2.751   3.011  13.702
53540SOL    HW262395   2.753   2.894  13.605
53541SOL     OW62396   9.648  10.513   3.249
53541SOL    HW162397   9.600  10.582   3.294
53541SOL    HW262398   9.714  10.485   3.312
53542SOL     OW62399   6.670  13.488   6.659
53542SOL    HW162400   6.721  13.481   6.579
53542SOL    HW262401   6.581  13.462   6.633
53543SOL     OW62402  12.564  13.724  14.012
53543SOL    HW162403  12.650  13.732  14.052
53543SOL    HW262404  12.580  13.739  13.918
53544SOL     OW62405   9.645  12.136  13.741
53544SOL    HW162406   9.686  12.056  13.774
53544SOL    HW262407   9.718  12.188  13.707
53545SOL     OW62408  12.857  10.244  12.993
53545SOL    HW162409  12.763  10.238  13.012
53545SOL    HW262410  12.889  10.314  13.050
53546SOL     OW62411  10.258  14.255   9.478
53546SOL    HW162412  10.285  14.209   9.558
53546SOL    HW262413  10.334  14.248   9.420
53547SOL     OW62414   4.475  13.133  10.706
53547SOL    HW162415   4.428  13.216  10.700
53547SOL    HW262416   4.518  13.124  10.620
53548SOL     OW62417   9.445  11.583  10.623
53548SOL    HW162418   9.460  11.497  10.660
53548SOL    HW262419   9.369  11.573  10.566
53549SOL     OW62420   4.831   2.508   7.555
53549SOL    HW162421   4.816   2.444   7.624
53549SOL    HW262422   4.890   2.573   7.594
53550SOL     OW62423  13.642   9.048   6.838
53550SOL    HW162424  13.599   9.012   6.760
53550SOL    HW262425  13.728   9.077   6.807
53551SOL     OW62426   2.231  10.342  11.150
53551SOL    HW162427   2.322  10.373  11.143
53551SOL    HW262428   2.199  10.381  11.231
53552SOL     OW62429  10.734   3.524  13.178
53552SOL    HW162430  10.648   3.511  13.137
53552SOL    HW262431  10.724   3.484  13.265
53553SOL     OW62432  11.958   4.625  11.986
53553SOL    HW162433  11.955   4.580  12.071
53553SOL    HW262434  12.044   4.666  11.984
53554SOL     OW62435   7.974   2.526   6.171
53554SOL    HW162436   8.034   2.473   6.118
53554SOL    HW262437   7.995   2.502   6.261
53555SOL     OW62438   6.857   8.572   3.398
53555SOL    HW162439   6.934   8.572   3.341
53555SOL    HW262440   6.788   8.533   3.345
53556SOL     OW62441   9.367  12.320   3.287
53556SOL    HW162442   9.345  12.261   3.216
53556SOL    HW262443   9.288  12.374   3.299
53557SOL     OW62444  14.259  12.089   0.637
53557SOL    HW162445  14.177  12.100   0.589
53557SOL    HW262446  14.271  12.172   0.683
53558SOL     OW62447   8.686   5.658   8.055
53558SOL    HW162448   8.707   5.742   8.097
53558SOL    HW262449   8.741   5.594   8.102
53559SOL     OW62450   5.435  12.283   7.521
53559SOL    HW162451   5.423  12.193   7.551
53559SOL    HW262452   5.530  12.294   7.516
53560SOL     OW62453   7.788   4.061   7.033
53560SOL    HW162454   7.844   3.996   7.075
53560SOL    HW262455   7.842   4.097   6.963
53561SOL     OW62456   7.804   3.299   2.483
53561SOL    HW162457   7.764   3.343   2.407
53561SOL    HW262458   7.786   3.358   2.556
53562SOL     OW62459   7.132   4.012   4.786
53562SOL    HW162460   7.038   4.000   4.795
53562SOL    HW262461   7.152   4.088   4.840
53563SOL     OW62462  10.157   2.492  12.565
53563SOL    HW162463  10.134   2.399  12.566
53563SOL    HW262464  10.135   2.521  12.477
53564SOL     OW62465   5.884   0.966  12.903
53564SOL    HW162466   5.844   0.934  12.822
53564SOL    HW262467   5.891   1.060  12.891
53565SOL     OW62468   4.584  13.288  13.231
53565SOL    HW162469   4.651  13.316  13.293
53565SOL    HW262470   4.560  13.200  13.258
53566SOL     OW62471  14.550  10.900   6.625
53566SOL    HW162472  14.504  10.858   6.698
53566SOL    HW262473  14.556  10.832   6.558
53567SOL     OW62474   1.634   0.031   9.140
53567SOL    HW162475   1.543   0.050   9.164
53567SOL    HW262476   1.687   0.077   9.205
53568SOL     OW62477  14.753   7.767   8.339
53568SOL    HW162478  14.702   7.847   8.328
53568SOL    HW262479  14.770   7.763   8.433
53569SOL     OW62480   3.777  14.551   6.859
53569SOL    HW162481   3.749  14.643   6.859
53569SOL    HW262482   3.696  14.501   6.870
53570SOL     OW62483   2.026  11.600   0.199
53570SOL    HW162484   1.994  11.532   0.139
53570SOL    HW262485   2.085  11.553   0.257
53571SOL     OW62486   0.594   2.026   5.626
53571SOL    HW162487   0.638   1.949   5.663
53571SOL    HW262488   0.511   1.992   5.594
53572SOL     OW62489   7.961   7.630   9.476
53572SOL    HW162490   8.021   7.573   9.428
53572SOL    HW262491   7.971   7.605   9.568
53573SOL     OW62492  14.003  10.917   5.386
53573SOL    HW162493  13.977  10.847   5.327
53573SOL    HW262494  14.053  10.978   5.332
53574SOL     OW62495  11.098  12.873  10.124
53574SOL    HW162496  11.017  12.922  10.136
53574SOL    HW262497  11.168  12.939  10.131
53575SOL     OW62498   6.127   8.298  14.028
53575SOL    HW162499   6.187   8.240  14.076
53575SOL    HW262500   6.132   8.381  14.076
53576SOL     OW62501  13.615  10.338   1.335
53576SOL    HW162502  13.651  10.366   1.420
53576SOL    HW262503  13.522  10.326   1.351
53577SOL     OW62504   9.503   9.395  10.438
53577SOL    HW162505   9.503   9.311  10.392
53577SOL    HW262506   9.563   9.450  10.388
53578SOL     OW62507   7.935   1.239   0.742
53578SOL    HW162508   7.896   1.312   0.694
53578SOL    HW262509   7.864   1.204   0.795
53579SOL     OW62510  12.908   8.361   7.627
53579SOL    HW162511  12.871   8.448   7.639
53579SOL    HW262512  12.849   8.303   7.674
53580SOL     OW62513  12.408  14.691   3.189
53580SOL    HW162514  12.442  14.603   3.205
53580SOL    HW262515  12.453  14.719   3.109
53581SOL     OW62516   9.286   4.739  12.413
53581SOL    HW162517   9.226   4.711  12.344
53581SOL    HW262518   9.238   4.724  12.494
53582SOL     OW62519   0.911   4.537   1.737
53582SOL    HW162520   0.890   4.604   1.802
53582SOL    HW262521   0.863   4.564   1.658
53583SOL     OW62522   6.887  13.045   1.969
53583SOL    HW162523   6.931  12.963   1.949
53583SOL    HW262524   6.955  13.112   1.960
53584SOL     OW62525   4.926  13.807  11.019
53584SOL    HW162526   4.936  13.752  10.941
53584SOL    HW262527   4.832  13.805  11.038
53585SOL     OW62528   6.638   8.277   0.490
53585SOL    HW162529   6.599   8.191   0.475
53585SOL    HW262530   6.655   8.311   0.402
53586SOL     OW62531   6.426   3.519   9.461
53586SOL    HW162532   6.460   3.561   9.540
53586SOL    HW262533   6.365   3.583   9.424
53587SOL     OW62534   4.485  10.555   1.828
53587SOL    HW162535   4.423  10.623   1.855
53587SOL    HW262536   4.570  10.584   1.862
53588SOL     OW62537   2.953   2.720   8.419
53588SOL    HW162538   2.991   2.632   8.417
53588SOL    HW262539   2.922   2.732   8.508
53589SOL     OW62540  11.423   9.834  11.811
53589SOL    HW162541  11.357   9.783  11.858
53589SOL    HW262542  11.492   9.850  11.876
53590SOL     OW62543   3.654   5.104   0.492
53590SOL    HW162544   3.701   5.170   0.543
53590SOL    HW262545   3.702   5.098   0.410
53591SOL     OW62546  11.001   1.516  12.106
53591SOL    HW162547  11.050   1.492  12.027
53591SOL    HW262548  11.066   1.515  12.176
53592SOL     OW62549   0.181   2.145  11.389
53592SOL    HW162550   0.257   2.114  11.340
53592SOL    HW262551   0.197   2.239  11.401
53593SOL     OW62552  13.858   7.738   5.392
53593SOL    HW162553  13.794   7.799   5.429
53593SOL    HW262554  13.822   7.651   5.410
53594SOL     OW62555   3.099   9.682   5.058
53594SOL    HW162556   3.046   9.605   5.038
53594SOL    HW262557   3.091   9.692   5.153
53595SOL     OW62558  11.927   9.292  10.875
53595SOL    HW162559  11.843   9.250  10.894
53595SOL    HW262560  11.950   9.261  10.788
53596SOL     OW62561  12.690  11.018  10.856
53596SOL    HW162562  12.612  11.067  10.884
53596SOL    HW262563  12.700  11.041  10.763
53597SOL     OW62564   0.279  11.637  11.937
53597SOL    HW162565   0.369  11.612  11.958
53597SOL    HW262566   0.288  11.704  11.870
53598SOL     OW62567  12.936  10.024   8.263
53598SOL    HW162568  12.875   9.955   8.289
53598SOL    HW262569  13.022   9.982   8.265
53599SOL     OW62570  13.472   9.646   5.617
53599SOL    HW162571  13.519   9.580   5.668
53599SOL    HW262572  13.516   9.729   5.638
53600SOL     OW62573   6.243  13.708   2.629
53600SOL    HW162574   6.333  13.731   2.653
53600SOL    HW262575   6.236  13.615   2.648
53601SOL     OW62576   6.130   7.234  14.219
53601SOL    HW162577   6.198   7.254  14.154
53601SOL    HW262578   6.166   7.160  14.268
53602SOL     OW62579   7.270   2.698  12.004
53602SOL    HW162580   7.353   2.653  11.994
53602SOL    HW262581   7.208   2.647  11.952
53603SOL     OW62582   5.648   3.378  12.701
53603SOL    HW162583   5.667   3.471  12.713
53603SOL    HW262584   5.596   3.375  12.620
53604SOL     OW62585   3.448  12.338  11.746
53604SOL    HW162586   3.529  12.290  11.756
53604SOL    HW262587   3.407  12.335  11.833
53605SOL     OW62588  14.504   7.312  14.328
53605SOL    HW162589  14.490   7.355  14.244
53605SOL    HW262590  14.599   7.297  14.332
53606SOL     OW62591   0.764  12.068  10.322
53606SOL    HW162592   0.831  12.115  10.371
53606SOL    HW262593   0.806  11.985  10.298
53607SOL     OW62594   1.821   5.812   0.032
53607SOL    HW162595   1.834   5.755  14.833
53607SOL    HW262596   1.891   5.788   0.092
53608SOL     OW62597  10.934   3.116   2.597
53608SOL    HW162598  10.873   3.189   2.613
53608SOL    HW262599  10.914   3.087   2.508
53609SOL     OW62600  14.061   8.280   9.661
53609SOL    HW162601  14.031   8.216   9.596
53609SOL    HW262602  14.155   8.287   9.646
53610SOL     OW62603   0.572  10.505  12.133
53610SOL    HW162604   0.508  10.437  12.113
53610SOL    HW262605   0.521  10.572  12.179
53611SOL     OW62606  13.098   1.454  11.276
53611SOL    HW162607  13.025   1.422  11.225
53611SOL    HW262608  13.087   1.414  11.362
53612SOL     OW62609   3.171   9.739   3.446
53612SOL    HW162610   3.172   9.671   3.513
53612SOL    HW262611   3.232   9.708   3.379
53613SOL     OW62612  12.418   4.046   8.189
53613SOL    HW162613  12.473   4.080   8.259
53613SOL    HW262614  12.358   3.986   8.233
53614SOL     OW62615  13.649   8.315   5.816
53614SOL    HW162616  13.741   8.293   5.830
53614SOL    HW262617  13.632   8.388   5.876
53615SOL     OW62618   1.438  14.758   2.373
53615SOL    HW162619   1.428  14.745   2.468
53615SOL    HW262620   1.511  14.820   2.365
53616SOL     OW62621   6.403   9.546   2.016
53616SOL    HW162622   6.437   9.463   2.049
53616SOL    HW262623   6.313   9.528   1.992
53617SOL     OW62624  12.168  11.259   7.197
53617SOL    HW162625  12.154  11.345   7.157
53617SOL    HW262626  12.254  11.232   7.166
53618SOL     OW62627   9.060  12.172   5.507
53618SOL    HW162628   9.074  12.247   5.564
53618SOL    HW262629   9.138  12.168   5.453
53619SOL     OW62630   2.927  11.081   5.959
53619SOL    HW162631   2.831  11.085   5.954
53619SOL    HW262632   2.956  11.165   5.923
53620SOL     OW62633   1.849   2.591   1.005
53620SOL    HW162634   1.762   2.572   1.040
53620SOL    HW262635   1.837   2.671   0.953
53621SOL     OW62636  11.440  12.985  11.025
53621SOL    HW162637  11.533  12.972  11.009
53621SOL    HW262638  11.426  13.079  11.012
53622SOL     OW62639  11.295   5.487   3.484
53622SOL    HW162640  11.240   5.419   3.446
53622SOL    HW262641  11.253   5.509   3.567
53623SOL     OW62642  10.125  11.034   3.504
53623SOL    HW162643  10.180  11.109   3.483
53623SOL    HW262644  10.183  10.958   3.500
53624SOL     OW62645  14.330  13.016  12.616
53624SOL    HW162646  14.353  13.016  12.709
53624SOL    HW262647  14.411  12.991  12.571
53625SOL     OW62648  13.398  11.737  12.796
53625SOL    HW162649  13.424  11.720  12.706
53625SOL    HW262650  13.383  11.831  12.800
53626SOL     OW62651   8.757  14.659  14.457
53626SOL    HW162652   8.690  14.722  14.429
53626SOL    HW262653   8.714  14.574  14.449
53627SOL     OW62654   3.455   7.953   5.301
53627SOL    HW162655   3.365   7.931   5.326
53627SOL    HW262656   3.456   7.945   5.206
53628SOL     OW62657  13.830   2.148   1.063
53628SOL    HW162658  13.866   2.062   1.038
53628SOL    HW262659  13.900   2.190   1.111
53629SOL     OW62660   5.880   4.181   0.880
53629SOL    HW162661   5.868   4.088   0.858
53629SOL    HW262662   5.808   4.200   0.941
53630SOL     OW62663   1.230   7.999   1.908
53630SOL    HW162664   1.224   7.903   1.914
53630SOL    HW262665   1.160   8.031   1.966
53631SOL     OW62666   9.264  13.370  14.179
53631SOL    HW162667   9.337  13.311  14.164
53631SOL    HW262668   9.287  13.418  14.259
53632SOL     OW62669   7.697   2.247  12.827
53632SOL    HW162670   7.640   2.183  12.869
53632SOL    HW262671   7.738   2.199  12.755
53633SOL     OW62672   4.544   6.065   0.187
53633SOL    HW162673   4.640   6.064   0.196
53633SOL    HW262674   4.514   5.995   0.244
53634SOL     OW62675   1.789   0.872   0.604
53634SOL    HW162676   1.826   0.959   0.592
53634SOL    HW262677   1.734   0.858   0.526
53635SOL     OW62678   1.422  13.585   6.805
53635SOL    HW162679   1.335  13.550   6.785
53635SOL    HW262680   1.432  13.659   6.746
53636SOL     OW62681   4.636   3.907   9.980
53636SOL    HW162682   4.725   3.873   9.994
53636SOL    HW262683   4.599   3.850   9.913
53637SOL     OW62684  13.785  11.740   0.959
53637SOL    HW162685  13.703  11.743   1.008
53637SOL    HW262686  13.785  11.654   0.918
53638SOL     OW62687  12.763   1.018   3.743
53638SOL    HW162688  12.849   1.057   3.760
53638SOL    HW262689  12.702   1.072   3.793
53639SOL     OW62690  11.785   5.991   3.089
53639SOL    HW162691  11.807   5.965   3.178
53639SOL    HW262692  11.740   5.915   3.051
53640SOL     OW62693  14.061   6.365   9.846
53640SOL    HW162694  14.146   6.362   9.889
53640SOL    HW262695  14.075   6.319   9.763
53641SOL     OW62696  10.739  14.858   3.900
53641SOL    HW162697  10.664  14.799   3.893
53641SOL    HW262698  10.704   0.067   3.878
53642SOL     OW62699   4.425  13.803  12.169
53642SOL    HW162700   4.360  13.741  12.135
53642SOL    HW262701   4.504  13.784  12.119
53643SOL     OW62702   1.338  12.098   2.280
53643SOL    HW162703   1.313  12.005   2.278
53643SOL    HW262704   1.427  12.099   2.246
53644SOL     OW62705   1.606   7.497   4.329
53644SOL    HW162706   1.686   7.547   4.318
53644SOL    HW262707   1.585   7.467   4.241
53645SOL     OW62708  11.200   0.491   7.099
53645SOL    HW162709  11.175   0.524   7.185
53645SOL    HW262710  11.279   0.539   7.076
53646SOL     OW62711   1.488  14.565  10.195
53646SOL    HW162712   1.541  14.643  10.181
53646SOL    HW262713   1.520  14.528  10.277
53647SOL     OW62714   6.382   9.809   9.232
53647SOL    HW162715   6.364   9.731   9.284
53647SOL    HW262716   6.456   9.851   9.277
53648SOL     OW62717   9.608  11.068   4.791
53648SOL    HW162718   9.571  11.019   4.717
53648SOL    HW262719   9.661  11.004   4.839
53649SOL     OW62720  13.947   8.322  13.977
53649SOL    HW162721  13.961   8.230  14.000
53649SOL    HW262722  14.016   8.341  13.914
53650SOL     OW62723  12.274   5.144   6.068
53650SOL    HW162724  12.211   5.082   6.106
53650SOL    HW262725  12.300   5.199   6.142
53651SOL     OW62726   5.561   0.733   4.062
53651SOL    HW162727   5.605   0.801   4.114
53651SOL    HW262728   5.602   0.739   3.975
53652SOL     OW62729  11.731  10.687  11.771
53652SOL    HW162730  11.687  10.694  11.686
53652SOL    HW262731  11.662  10.704  11.835
53653SOL     OW62732  10.120   6.034  14.002
53653SOL    HW162733  10.095   6.082  14.081
53653SOL    HW262734  10.130   6.101  13.935
53654SOL     OW62735   7.610  14.534   9.555
53654SOL    HW162736   7.574  14.572   9.635
53654SOL    HW262737   7.699  14.506   9.580
53655SOL     OW62738   1.205   4.573   2.838
53655SOL    HW162739   1.250   4.496   2.872
53655SOL    HW262740   1.134   4.589   2.902
53656SOL     OW62741   2.512   7.638   7.263
53656SOL    HW162742   2.584   7.645   7.200
53656SOL    HW262743   2.553   7.651   7.348
53657SOL     OW62744   0.878   3.224  12.743
53657SOL    HW162745   0.812   3.239  12.675
53657SOL    HW262746   0.960   3.258  12.705
53658SOL     OW62747   3.202  12.525   7.537
53658SOL    HW162748   3.111  12.511   7.564
53658SOL    HW262749   3.210  12.482   7.452
53659SOL     OW62750   5.803   8.601  11.257
53659SOL    HW162751   5.737   8.664  11.227
53659SOL    HW262752   5.787   8.593  11.352
53660SOL     OW62753  14.246   0.850  12.341
53660SOL    HW162754  14.307   0.780  12.314
53660SOL    HW262755  14.302   0.927  12.353
53661SOL     OW62756  14.669   2.247   1.776
53661SOL    HW162757  14.746   2.277   1.825
53661SOL    HW262758  14.630   2.179   1.831
53662SOL     OW62759   4.710  10.606  11.383
53662SOL    HW162760   4.626  10.629  11.423
53662SOL    HW262761   4.774  10.665  11.424
53663SOL     OW62762   7.870   4.596   6.181
53663SOL    HW162763   7.781   4.599   6.145
53663SOL    HW262764   7.919   4.543   6.118
53664SOL     OW62765  14.768   0.839  11.038
53664SOL    HW162766  14.771   0.913  11.099
53664SOL    HW262767  14.800   0.875  10.956
53665SOL     OW62768   4.832  12.755  11.339
53665SOL    HW162769   4.788  12.787  11.260
53665SOL    HW262770   4.881  12.831  11.372
53666SOL     OW62771  13.304   3.384   6.351
53666SOL    HW162772  13.396   3.368   6.372
53666SOL    HW262773  13.288   3.331   6.273
53667SOL     OW62774  10.268  10.625   6.024
53667SOL    HW162775  10.329  10.556   6.049
53667SOL    HW262776  10.277  10.632   5.929
53668SOL     OW62777   2.456   8.866   7.200
53668SOL    HW162778   2.544   8.852   7.235
53668SOL    HW262779   2.399   8.862   7.276
53669SOL     OW62780  13.911   5.354   3.025
53669SOL    HW162781  13.853   5.410   3.076
53669SOL    HW262782  13.969   5.415   2.979
53670SOL     OW62783  12.423  14.063   5.776
53670SOL    HW162784  12.424  13.996   5.707
53670SOL    HW262785  12.339  14.108   5.764
53671SOL     OW62786   8.898   9.676  13.832
53671SOL    HW162787   8.888   9.582  13.847
53671SOL    HW262788   8.977   9.684  13.780
53672SOL     OW62789  12.684   2.195  12.590
53672SOL    HW162790  12.605   2.188  12.536
53672SOL    HW262791  12.693   2.288  12.607
53673SOL     OW62792   7.240  12.544  10.761
53673SOL    HW162793   7.173  12.562  10.695
53673SOL    HW262794   7.297  12.621  10.760
53674SOL     OW62795   9.070  13.727  12.176
53674SOL    HW162796   9.099  13.680  12.098
53674SOL    HW262797   9.080  13.663  12.247
53675SOL     OW62798   3.603  12.705   8.195
53675SOL    HW162799   3.656  12.714   8.115
53675SOL    HW262800   3.559  12.621   8.185
53676SOL     OW62801  11.160  12.720   1.247
53676SOL    HW162802  11.236  12.731   1.190
53676SOL    HW262803  11.197  12.691   1.331
53677SOL     OW62804  10.557   8.116  14.695
53677SOL    HW162805  10.550   8.105  14.789
53677SOL    HW262806  10.476   8.081  14.660
53678SOL     OW62807   7.011   0.599   7.219
53678SOL    HW162808   7.081   0.580   7.282
53678SOL    HW262809   6.968   0.677   7.252
53679SOL     OW62810   3.372   5.081   8.127
53679SOL    HW162811   3.276   5.081   8.121
53679SOL    HW262812   3.396   4.989   8.120
53680SOL     OW62813  11.585   3.035  12.990
53680SOL    HW162814  11.538   2.970  12.938
53680SOL    HW262815  11.677   3.008  12.986
53681SOL     OW62816   8.111   7.937   1.448
53681SOL    HW162817   8.110   7.959   1.355
53681SOL    HW262818   8.105   7.841   1.451
53682SOL     OW62819   9.615   3.187   0.399
53682SOL    HW162820   9.525   3.215   0.412
53682SOL    HW262821   9.626   3.115   0.461
53683SOL     OW62822   6.006   1.846  13.639
53683SOL    HW162823   5.976   1.915  13.579
53683SOL    HW262824   5.958   1.768  13.610
53684SOL     OW62825  14.512  11.351   0.910
53684SOL    HW162826  14.465  11.414   0.856
53684SOL    HW262827  14.601  11.385   0.915
53685SOL     OW62828   8.882  13.005   4.690
53685SOL    HW162829   8.854  12.974   4.776
53685SOL    HW262830   8.816  12.971   4.630
53686SOL     OW62831   8.991  10.346   4.497
53686SOL    HW162832   8.973  10.305   4.413
53686SOL    HW262833   9.081  10.321   4.518
53687SOL     OW62834  13.229   4.079   2.192
53687SOL    HW162835  13.180   4.132   2.256
53687SOL    HW262836  13.241   4.138   2.118
53688SOL     OW62837   6.894   4.255   0.822
53688SOL    HW162838   6.804   4.252   0.787
53688SOL    HW262839   6.883   4.280   0.913
53689SOL     OW62840   6.701   3.346   2.920
53689SOL    HW162841   6.769   3.298   2.967
53689SOL    HW262842   6.669   3.284   2.854
53690SOL     OW62843   3.942   0.929   5.779
53690SOL    HW162844   3.901   0.903   5.696
53690SOL    HW262845   4.014   0.868   5.790
53691SOL     OW62846   7.306   3.358   3.769
53691SOL    HW162847   7.307   3.288   3.703
53691SOL    HW262848   7.213   3.378   3.781
53692SOL     OW62849   8.343   7.583   0.965
53692SOL    HW162850   8.340   7.669   1.007
53692SOL    HW262851   8.433   7.575   0.933
53693SOL     OW62852   7.802   5.994  12.367
53693SOL    HW162853   7.877   6.051  12.384
53693SOL    HW262854   7.838   5.905  12.367
53694SOL     OW62855   2.918   9.944   0.400
53694SOL    HW162856   2.823   9.941   0.389
53694SOL    HW262857   2.936   9.878   0.467
53695SOL     OW62858   6.993   8.235   4.445
53695SOL    HW162859   6.988   8.251   4.351
53695SOL    HW262860   6.995   8.140   4.453
53696SOL     OW62861  12.842   9.528   1.485
53696SOL    HW162862  12.882   9.481   1.412
53696SOL    HW262863  12.778   9.466   1.521
53697SOL     OW62864   6.168  12.088   9.784
53697SOL    HW162865   6.247  12.061   9.832
53697SOL    HW262866   6.183  12.181   9.765
53698SOL     OW62867  11.904  13.555   7.296
53698SOL    HW162868  11.818  13.513   7.300
53698SOL    HW262869  11.966  13.482   7.288
53699SOL     OW62870   5.447   3.538   4.274
53699SOL    HW162871   5.470   3.602   4.342
53699SOL    HW262872   5.393   3.473   4.320
53700SOL     OW62873   7.570   0.488   6.127
53700SOL    HW162874   7.630   0.512   6.057
53700SOL    HW262875   7.509   0.561   6.133
53701SOL     OW62876   7.955   9.150   3.548
53701SOL    HW162877   8.041   9.154   3.590
53701SOL    HW262878   7.963   9.206   3.471
53702SOL     OW62879   7.110  11.348   9.919
53702SOL    HW162880   7.034  11.390   9.961
53702SOL    HW262881   7.186  11.391   9.958
53703SOL     OW62882   4.686   8.204   2.931
53703SOL    HW162883   4.687   8.286   2.981
53703SOL    HW262884   4.756   8.151   2.971
53704SOL     OW62885   5.454   7.781  12.680
53704SOL    HW162886   5.504   7.700  12.683
53704SOL    HW262887   5.373   7.762  12.728
53705SOL     OW62888   3.102   7.982  12.579
53705SOL    HW162889   3.157   7.921  12.530
53705SOL    HW262890   3.134   7.976  12.669
53706SOL     OW62891  10.769   9.015   2.258
53706SOL    HW162892  10.712   8.947   2.293
53706SOL    HW262893  10.801   9.062   2.335
53707SOL     OW62894   1.623  11.650   5.305
53707SOL    HW162895   1.545  11.701   5.329
53707SOL    HW262896   1.661  11.699   5.232
53708SOL     OW62897   6.483   0.896   1.262
53708SOL    HW162898   6.443   0.843   1.331
53708SOL    HW262899   6.441   0.982   1.269
53709SOL     OW62900  10.434   6.168   6.941
53709SOL    HW162901  10.526   6.194   6.936
53709SOL    HW262902  10.432   6.078   6.909
53710SOL     OW62903   3.258   6.748   6.492
53710SOL    HW162904   3.321   6.763   6.562
53710SOL    HW262905   3.190   6.694   6.531
53711SOL     OW62906   6.341  13.579   3.904
53711SOL    HW162907   6.354  13.520   3.978
53711SOL    HW262908   6.406  13.550   3.840
53712SOL     OW62909   5.798  10.004  10.728
53712SOL    HW162910   5.878  10.015  10.779
53712SOL    HW262911   5.827   9.965  10.646
53713SOL     OW62912   3.359  14.507  11.301
53713SOL    HW162913   3.341  14.497  11.394
53713SOL    HW262914   3.387  14.598  11.292
53714SOL     OW62915   6.029   7.914   5.924
53714SOL    HW162916   6.010   8.001   5.890
53714SOL    HW262917   6.087   7.874   5.858
53715SOL     OW62918  10.878   1.956  12.004
53715SOL    HW162919  10.800   1.978  12.055
53715SOL    HW262920  10.868   1.862  11.986
53716SOL     OW62921  10.727  14.077  14.540
53716SOL    HW162922  10.641  14.035  14.547
53716SOL    HW262923  10.752  14.066  14.448
53717SOL     OW62924  11.106   3.678  11.300
53717SOL    HW162925  11.055   3.723  11.233
53717SOL    HW262926  11.057   3.690  11.381
53718SOL     OW62927  12.176   9.797   3.521
53718SOL    HW162928  12.130   9.725   3.566
53718SOL    HW262929  12.263   9.798   3.561
53719SOL     OW62930   8.865  12.434   6.962
53719SOL    HW162931   8.949  12.468   6.930
53719SOL    HW262932   8.850  12.354   6.911
53720SOL     OW62933   7.550  14.084  13.653
53720SOL    HW162934   7.576  14.058  13.741
53720SOL    HW262935   7.464  14.124  13.665
53721SOL     OW62936   7.418   0.401   2.742
53721SOL    HW162937   7.431   0.403   2.837
53721SOL    HW262938   7.393   0.490   2.719
53722SOL     OW62939   2.252   4.466   6.610
53722SOL    HW162940   2.218   4.381   6.636
53722SOL    HW262941   2.222   4.479   6.520
53723SOL     OW62942   4.056  12.367   5.365
53723SOL    HW162943   4.079  12.303   5.297
53723SOL    HW262944   4.028  12.444   5.316
53724SOL     OW62945  12.953   0.476   7.095
53724SOL    HW162946  12.894   0.431   7.155
53724SOL    HW262947  12.982   0.553   7.144
53725SOL     OW62948  14.380  11.568   2.303
53725SOL    HW162949  14.412  11.578   2.213
53725SOL    HW262950  14.316  11.497   2.298
53726SOL     OW62951   9.360   2.417   4.770
53726SOL    HW162952   9.446   2.397   4.807
53726SOL    HW262953   9.344   2.508   4.794
53727SOL     OW62954  11.953   1.354   8.353
53727SOL    HW162955  11.907   1.306   8.284
53727SOL    HW262956  12.016   1.409   8.307
53728SOL     OW62957   3.783  10.698   6.806
53728SOL    HW162958   3.693  10.672   6.824
53728SOL    HW262959   3.821  10.716   6.892
53729SOL     OW62960   8.364  11.548  13.328
53729SOL    HW162961   8.378  11.582  13.417
53729SOL    HW262962   8.378  11.454  13.337
53730SOL     OW62963  13.363   5.881  10.987
53730SOL    HW162964  13.381   5.962  10.940
53730SOL    HW262965  13.280   5.897  11.032
53731SOL     OW62966  12.003   4.722  14.001
53731SOL    HW162967  12.032   4.805  13.964
53731SOL    HW262968  12.032   4.725  14.092
53732SOL     OW62969  13.448  13.780   2.534
53732SOL    HW162970  13.541  13.793   2.552
53732SOL    HW262971  13.442  13.691   2.501
53733SOL     OW62972  13.695  12.311   4.030
53733SOL    HW162973  13.735  12.341   3.948
53733SOL    HW262974  13.643  12.235   4.004
53734SOL     OW62975   3.948   7.396   5.275
53734SOL    HW162976   3.930   7.385   5.368
53734SOL    HW262977   4.002   7.475   5.270
53735SOL     OW62978   6.256  11.532  11.745
53735SOL    HW162979   6.172  11.510  11.784
53735SOL    HW262980   6.311  11.559  11.819
53736SOL     OW62981   2.807   6.729   0.708
53736SOL    HW162982   2.831   6.659   0.647
53736SOL    HW262983   2.803   6.686   0.793
53737SOL     OW62984   8.436  14.778   9.528
53737SOL    HW162985   8.456  14.715   9.597
53737SOL    HW262986   8.419  14.724   9.451
53738SOL     OW62987   8.259  13.870   9.418
53738SOL    HW162988   8.352  13.878   9.398
53738SOL    HW262989   8.256  13.845   9.511
53739SOL     OW62990   1.246   2.494  11.780
53739SOL    HW162991   1.297   2.562  11.736
53739SOL    HW262992   1.158   2.532  11.787
53740SOL     OW62993   7.498   8.482  10.497
53740SOL    HW162994   7.416   8.518  10.463
53740SOL    HW262995   7.566   8.535  10.456
53741SOL     OW62996  14.833  13.652   9.398
53741SOL    HW162997  14.809  13.735   9.440
53741SOL    HW262998   0.047  13.639   9.422
53742SOL     OW62999   4.233  10.059   1.355
53742SOL    HW163000   4.243  10.154   1.345
53742SOL    HW263001   4.147  10.041   1.316
53743SOL     OW63002   8.865  12.665   2.525
53743SOL    HW163003   8.950  12.621   2.523
53743SOL    HW263004   8.878  12.746   2.476
53744SOL     OW63005   4.620   2.613   0.394
53744SOL    HW163006   4.608   2.691   0.340
53744SOL    HW263007   4.558   2.549   0.358
53745SOL     OW63008   2.685   7.582   6.106
53745SOL    HW163009   2.768   7.539   6.087
53745SOL    HW263010   2.708   7.655   6.164
53746SOL     OW63011   8.068   7.996   6.711
53746SOL    HW163012   8.106   8.075   6.748
53746SOL    HW263013   8.139   7.931   6.714
53747SOL     OW63014  11.946  10.559   9.615
53747SOL    HW163015  11.953  10.602   9.530
53747SOL    HW263016  11.864  10.510   9.610
53748SOL     OW63017   1.150  12.335  11.568
53748SOL    HW163018   1.175  12.290  11.648
53748SOL    HW263019   1.080  12.395  11.594
53749SOL     OW63020   8.614   7.202   7.429
53749SOL    HW163021   8.630   7.109   7.444
53749SOL    HW263022   8.701   7.242   7.434
53750SOL     OW63023   2.233  14.017   1.419
53750SOL    HW163024   2.296  13.949   1.397
53750SOL    HW263025   2.227  14.015   1.515
53751SOL     OW63026   7.967   6.529  14.576
53751SOL    HW163027   8.029   6.590  14.616
53751SOL    HW263028   7.915   6.496  14.649
53752SOL     OW63029   5.293  10.138   2.406
53752SOL    HW163030   5.264  10.161   2.317
53752SOL    HW263031   5.278  10.218   2.457
53753SOL     OW63032   6.241  13.915  14.249
53753SOL    HW163033   6.313  13.956  14.296
53753SOL    HW263034   6.165  13.972  14.267
53754SOL     OW63035  12.472   6.351   8.218
53754SOL    HW163036  12.504   6.412   8.284
53754SOL    HW263037  12.380   6.373   8.207
53755SOL     OW63038  13.532  10.555   0.197
53755SOL    HW163039  13.537  10.627   0.260
53755SOL    HW263040  13.452  10.573   0.148
53756SOL     OW63041   5.857   6.926  10.891
53756SOL    HW163042   5.900   7.011  10.898
53756SOL    HW263043   5.767   6.947  10.867
53757SOL     OW63044   3.760   5.412  14.026
53757SOL    HW163045   3.689   5.378  14.081
53757SOL    HW263046   3.716   5.473  13.966
53758SOL     OW63047  11.425   7.257  14.609
53758SOL    HW163048  11.423   7.232  14.701
53758SOL    HW263049  11.518   7.270  14.590
53759SOL     OW63050   8.779   3.360   1.205
53759SOL    HW163051   8.744   3.413   1.276
53759SOL    HW263052   8.873   3.377   1.205
53760SOL     OW63053   8.663  12.721   6.195
53760SOL    HW163054   8.631  12.731   6.285
53760SOL    HW263055   8.752  12.688   6.204
53761SOL     OW63056   1.604   7.375   3.460
53761SOL    HW163057   1.570   7.435   3.527
53761SOL    HW263058   1.529   7.358   3.403
53762SOL     OW63059   8.347   2.643   6.444
53762SOL    HW163060   8.310   2.731   6.441
53762SOL    HW263061   8.382   2.629   6.356
53763SOL     OW63062   2.730   8.118   8.499
53763SOL    HW163063   2.682   8.044   8.463
53763SOL    HW263064   2.810   8.124   8.446
53764SOL     OW63065   7.703  10.895   9.318
53764SOL    HW163066   7.719  10.983   9.352
53764SOL    HW263067   7.706  10.906   9.223
53765SOL     OW63068   3.452   4.343   8.440
53765SOL    HW163069   3.532   4.358   8.390
53765SOL    HW263070   3.476   4.362   8.530
53766SOL     OW63071   0.179   7.256   0.406
53766SOL    HW163072   0.099   7.203   0.406
53766SOL    HW263073   0.206   7.258   0.498
53767SOL     OW63074   4.517  13.062   8.251
53767SOL    HW163075   4.533  13.086   8.342
53767SOL    HW263076   4.425  13.036   8.249
53768SOL     OW63077   4.520   2.640  13.945
53768SOL    HW163078   4.510   2.578  13.873
53768SOL    HW263079   4.608   2.676  13.934
53769SOL     OW63080   1.393  10.644   8.874
53769SOL    HW163081   1.479  10.649   8.916
53769SOL    HW263082   1.398  10.567   8.818
53770SOL     OW63083  11.721   1.850   4.340
53770SOL    HW163084  11.724   1.833   4.246
53770SOL    HW263085  11.717   1.764   4.381
53771SOL     OW63086  13.370   9.718   6.224
53771SOL    HW163087  13.411   9.794   6.264
53771SOL    HW263088  13.430   9.693   6.153
53772SOL     OW63089  14.311   6.071  12.340
53772SOL    HW163090  14.401   6.103  12.334
53772SOL    HW263091  14.257   6.149  12.325
53773SOL     OW63092   9.571  12.060   6.995
53773SOL    HW163093   9.656  12.041   7.035
53773SOL    HW263094   9.586  12.138   6.942
53774SOL     OW63095  11.281   9.244   5.062
53774SOL    HW163096  11.279   9.318   5.122
53774SOL    HW263097  11.209   9.260   5.001
53775SOL     OW63098   7.992   9.707  12.607
53775SOL    HW163099   7.985   9.613  12.590
53775SOL    HW263100   8.085   9.720  12.626
53776SOL     OW63101   8.549   0.399   8.296
53776SOL    HW163102   8.511   0.487   8.298
53776SOL    HW263103   8.639   0.414   8.268
53777SOL     OW63104   7.061   1.970   0.875
53777SOL    HW163105   7.013   2.045   0.840
53777SOL    HW263106   7.145   2.006   0.902
53778SOL     OW63107  11.461   7.393   2.285
53778SOL    HW163108  11.377   7.437   2.272
53778SOL    HW263109  11.507   7.449   2.348
53779SOL     OW63110  11.885   4.890   9.391
53779SOL    HW163111  11.872   4.857   9.302
53779SOL    HW263112  11.962   4.843   9.422
53780SOL     OW63113   2.647  14.426   9.884
53780SOL    HW163114   2.649  14.357   9.950
53780SOL    HW263115   2.699  14.497   9.923
53781SOL     OW63116   7.278  10.886  13.382
53781SOL    HW163117   7.215  10.819  13.357
53781SOL    HW263118   7.225  10.956  13.421
53782SOL     OW63119   1.341   6.875   7.943
53782SOL    HW163120   1.349   6.819   7.865
53782SOL    HW263121   1.275   6.831   7.996
53783SOL     OW63122   8.312  10.390   7.343
53783SOL    HW163123   8.268  10.379   7.427
53783SOL    HW263124   8.250  10.357   7.279
53784SOL     OW63125  11.412  13.940   0.763
53784SOL    HW163126  11.430  13.883   0.838
53784SOL    HW263127  11.440  13.889   0.687
53785SOL     OW63128   6.459   1.626   8.920
53785SOL    HW163129   6.385   1.664   8.966
53785SOL    HW263130   6.472   1.541   8.962
53786SOL     OW63131   3.208   1.686   4.403
53786SOL    HW163132   3.293   1.719   4.429
53786SOL    HW263133   3.214   1.591   4.413
53787SOL     OW63134   4.926  13.563   8.080
53787SOL    HW163135   4.927  13.513   7.998
53787SOL    HW263136   5.018  13.575   8.102
53788SOL     OW63137   4.491  13.352   5.494
53788SOL    HW163138   4.441  13.352   5.575
53788SOL    HW263139   4.512  13.260   5.478
53789SOL     OW63140  13.702   8.739  14.460
53789SOL    HW163141  13.627   8.721  14.404
53789SOL    HW263142  13.775   8.749  14.400
53790SOL     OW63143   6.018   0.360   1.313
53790SOL    HW163144   6.082   0.383   1.380
53790SOL    HW263145   6.015   0.435   1.255
53791SOL     OW63146   6.015  12.578   2.297
53791SOL    HW163147   6.046  12.637   2.366
53791SOL    HW263148   6.004  12.634   2.220
53792SOL     OW63149   3.319   1.048  12.082
53792SOL    HW163150   3.389   1.021  12.141
53792SOL    HW263151   3.337   1.140  12.065
53793SOL     OW63152   2.860   5.481   5.442
53793SOL    HW163153   2.848   5.571   5.472
53793SOL    HW263154   2.834   5.427   5.517
53794SOL     OW63155  10.639   5.608   2.687
53794SOL    HW163156  10.694   5.633   2.761
53794SOL    HW263157  10.606   5.521   2.710
53795SOL     OW63158   8.360   3.633   5.540
53795SOL    HW163159   8.364   3.553   5.487
53795SOL    HW263160   8.286   3.619   5.599
53796SOL     OW63161  13.316   6.837   1.438
53796SOL    HW163162  13.254   6.766   1.457
53796SOL    HW263163  13.292   6.866   1.351
53797SOL     OW63164   7.100   7.343  14.222
53797SOL    HW163165   7.066   7.287  14.292
53797SOL    HW263166   7.078   7.432  14.250
53798SOL     OW63167   0.420   5.650  10.799
53798SOL    HW163168   0.516   5.646  10.795
53798SOL    HW263169   0.393   5.561  10.821
53799SOL     OW63170   4.106  11.914  10.694
53799SOL    HW163171   4.133  11.906  10.785
53799SOL    HW263172   4.087  12.007  10.682
53800SOL     OW63173  10.106   2.612   3.674
53800SOL    HW163174  10.116   2.682   3.608
53800SOL    HW263175  10.060   2.655   3.746
53801SOL     OW63176   3.744   0.388   6.068
53801SOL    HW163177   3.746   0.424   6.157
53801SOL    HW263178   3.687   0.447   6.019
53802SOL     OW63179   2.206  12.804   1.754
53802SOL    HW163180   2.211  12.809   1.850
53802SOL    HW263181   2.215  12.710   1.735
53803SOL     OW63182   4.766  12.430   4.518
53803SOL    HW163183   4.798  12.449   4.606
53803SOL    HW263184   4.845  12.429   4.463
53804SOL     OW63185  13.153  11.489   2.498
53804SOL    HW163186  13.088  11.441   2.447
53804SOL    HW263187  13.128  11.474   2.589
53805SOL     OW63188  10.582  14.310  14.591
53805SOL    HW163189  10.642  14.237  14.572
53805SOL    HW263190  10.635  14.372  14.640
53806SOL     OW63191   5.718  10.824  11.635
53806SOL    HW163192   5.752  10.913  11.646
53806SOL    HW263193   5.721  10.809  11.540
53807SOL     OW63194  14.690   2.910  14.812
53807SOL    HW163195  14.777   2.915  14.771
53807SOL    HW263196  14.705   2.936   0.025
53808SOL     OW63197   8.435   4.903   8.916
53808SOL    HW163198   8.383   4.891   8.996
53808SOL    HW263199   8.448   4.998   8.910
53809SOL     OW63200  14.257   7.308  12.315
53809SOL    HW163201  14.234   7.371  12.383
53809SOL    HW263202  14.191   7.239  12.322
53810SOL     OW63203   1.670  14.483  11.879
53810SOL    HW163204   1.727  14.430  11.936
53810SOL    HW263205   1.649  14.560  11.931
53811SOL     OW63206   8.369   4.827   8.407
53811SOL    HW163207   8.336   4.801   8.321
53811SOL    HW263208   8.376   4.922   8.403
53812SOL     OW63209  10.965   7.314  12.219
53812SOL    HW163210  10.961   7.272  12.133
53812SOL    HW263211  11.024   7.389  12.206
53813SOL     OW63212   0.899   5.835  14.285
53813SOL    HW163213   0.962   5.842  14.356
53813SOL    HW263214   0.901   5.920  14.242
53814SOL     OW63215   7.422   3.003  13.937
53814SOL    HW163216   7.379   2.984  14.020
53814SOL    HW263217   7.350   3.020  13.876
53815SOL     OW63218  12.462   2.188   8.364
53815SOL    HW163219  12.369   2.199   8.344
53815SOL    HW263220  12.507   2.246   8.303
53816SOL     OW63221   7.059   9.744   1.452
53816SOL    HW163222   7.077   9.837   1.439
53816SOL    HW263223   7.138   9.711   1.496
53817SOL     OW63224   5.454   0.835   0.215
53817SOL    HW163225   5.512   0.813   0.141
53817SOL    HW263226   5.381   0.882   0.175
53818SOL     OW63227   2.004  13.976   0.649
53818SOL    HW163228   1.934  13.960   0.585
53818SOL    HW263229   2.077  13.921   0.619
53819SOL     OW63230  11.067  11.945  12.659
53819SOL    HW163231  11.146  11.960  12.606
53819SOL    HW263232  11.032  11.862  12.628
53820SOL     OW63233   7.328   4.667   9.057
53820SOL    HW163234   7.372   4.736   9.008
53820SOL    HW263235   7.239   4.700   9.071
53821SOL     OW63236   8.308   2.498  11.275
53821SOL    HW163237   8.296   2.496  11.180
53821SOL    HW263238   8.225   2.530  11.309
53822SOL     OW63239  14.602   7.268   9.806
53822SOL    HW163240  14.569   7.180   9.823
53822SOL    HW263241  14.524   7.317   9.779
53823SOL     OW63242   4.009   5.057   1.756
53823SOL    HW163243   3.928   5.059   1.805
53823SOL    HW263244   4.078   5.054   1.822
53824SOL     OW63245   3.767   9.130   9.127
53824SOL    HW163246   3.743   9.207   9.077
53824SOL    HW263247   3.721   9.140   9.211
53825SOL     OW63248   0.588   5.491  13.189
53825SOL    HW163249   0.530   5.416  13.199
53825SOL    HW263250   0.539   5.551  13.133
53826SOL     OW63251  14.566  12.466   2.242
53826SOL    HW163252  14.661  12.471   2.242
53826SOL    HW263253  14.537  12.554   2.266
53827SOL     OW63254   7.350   1.764   3.653
53827SOL    HW163255   7.404   1.686   3.663
53827SOL    HW263256   7.298   1.747   3.574
53828SOL     OW63257  13.994  14.303   9.632
53828SOL    HW163258  13.937  14.227   9.641
53828SOL    HW263259  14.025  14.300   9.542
53829SOL     OW63260   5.107   0.365   6.121
53829SOL    HW163261   5.132   0.280   6.086
53829SOL    HW263262   5.032   0.346   6.177
53830SOL     OW63263  14.348   8.846   3.332
53830SOL    HW163264  14.338   8.937   3.303
53830SOL    HW263265  14.260   8.820   3.361
53831SOL     OW63266   3.444   8.523   7.296
53831SOL    HW163267   3.397   8.529   7.379
53831SOL    HW263268   3.532   8.493   7.320
53832SOL     OW63269   6.689   5.016   8.484
53832SOL    HW163270   6.718   5.105   8.464
53832SOL    HW263271   6.600   5.011   8.449
53833SOL     OW63272  12.743   9.481  14.348
53833SOL    HW163273  12.648   9.482  14.348
53833SOL    HW263274  12.768   9.500  14.258
53834SOL     OW63275   7.576   0.136  10.440
53834SOL    HW163276   7.516   0.077  10.395
53834SOL    HW263277   7.609   0.194  10.371
53835SOL     OW63278   7.341  12.123  10.512
53835SOL    HW163279   7.358  12.118  10.418
53835SOL    HW263280   7.292  12.043  10.531
53836SOL     OW63281  13.967   7.027   8.063
53836SOL    HW163282  13.926   6.962   8.120
53836SOL    HW263283  14.059   7.025   8.088
53837SOL     OW63284   3.884   7.138   2.366
53837SOL    HW163285   3.960   7.080   2.364
53837SOL    HW263286   3.899   7.200   2.295
53838SOL     OW63287  14.496  11.616  14.666
53838SOL    HW163288  14.507  11.563  14.587
53838SOL    HW263289  14.520  11.705  14.639
53839SOL     OW63290   3.295   8.254   0.344
53839SOL    HW163291   3.293   8.228   0.252
53839SOL    HW263292   3.248   8.337   0.347
53840SOL     OW63293   7.384  14.752   7.986
53840SOL    HW163294   7.402  14.728   7.895
53840SOL    HW263295   7.450  14.704   8.037
53841SOL     OW63296   3.404  14.677   6.478
53841SOL    HW163297   3.331  14.696   6.538
53841SOL    HW263298   3.365  14.682   6.391
53842SOL     OW63299   1.917   8.531   8.822
53842SOL    HW163300   1.867   8.552   8.743
53842SOL    HW263301   1.995   8.487   8.789
53843SOL     OW63302  11.510   8.819   6.856
53843SOL    HW163303  11.445   8.765   6.811
53843SOL    HW263304  11.575   8.757   6.889
53844SOL     OW63305   1.829   4.834   3.606
53844SOL    HW163306   1.777   4.754   3.600
53844SOL    HW263307   1.917   4.804   3.629
53845SOL     OW63308  14.863   1.154   6.050
53845SOL    HW163309  14.816   1.223   6.096
53845SOL    HW263310   0.016   1.095   6.119
53846SOL     OW63311  12.530   8.750   9.719
53846SOL    HW163312  12.477   8.735   9.641
53846SOL    HW263313  12.511   8.674   9.775
53847SOL     OW63314   6.432  12.128   1.497
53847SOL    HW163315   6.446  12.039   1.465
53847SOL    HW263316   6.518  12.154   1.531
53848SOL     OW63317   9.503   0.906   9.971
53848SOL    HW163318   9.448   0.912  10.050
53848SOL    HW263319   9.554   0.987   9.971
53849SOL     OW63320   2.419   3.507   1.736
53849SOL    HW163321   2.501   3.543   1.702
53849SOL    HW263322   2.446   3.446   1.804
53850SOL     OW63323   1.394   4.806  11.944
53850SOL    HW163324   1.330   4.814  11.874
53850SOL    HW263325   1.379   4.883  11.999
53851SOL     OW63326   3.407  13.433  11.913
53851SOL    HW163327   3.329  13.444  11.968
53851SOL    HW263328   3.430  13.341  11.922
53852SOL     OW63329  14.606   7.774   3.766
53852SOL    HW163330  14.628   7.709   3.699
53852SOL    HW263331  14.674   7.841   3.759
53853SOL     OW63332   0.349  10.269  11.646
53853SOL    HW163333   0.391  10.283  11.731
53853SOL    HW263334   0.357  10.175  11.631
53854SOL     OW63335   0.902  11.153  13.617
53854SOL    HW163336   0.930  11.195  13.698
53854SOL    HW263337   0.970  11.088  13.599
53855SOL     OW63338   9.384  14.029   9.485
53855SOL    HW163339   9.432  13.948   9.499
53855SOL    HW263340   9.297  14.011   9.520
53856SOL     OW63341   3.406   6.497   8.386
53856SOL    HW163342   3.399   6.475   8.479
53856SOL    HW263343   3.318   6.522   8.360
53857SOL     OW63344   7.756   5.177  12.196
53857SOL    HW163345   7.678   5.126  12.175
53857SOL    HW263346   7.782   5.146  12.283
53858SOL     OW63347  10.951  11.091   5.756
53858SOL    HW163348  11.043  11.066   5.750
53858SOL    HW263349  10.930  11.081   5.849
53859SOL     OW63350  10.999  10.980   3.596
53859SOL    HW163351  10.986  11.057   3.652
53859SOL    HW263352  10.933  10.918   3.626
53860SOL     OW63353   7.395   2.950  12.060
53860SOL    HW163354   7.352   2.865  12.047
53860SOL    HW263355   7.325   3.010  12.085
53861SOL     OW63356  12.546  13.774   8.019
53861SOL    HW163357  12.471  13.715   8.026
53861SOL    HW263358  12.546  13.822   8.102
53862SOL     OW63359   3.380   7.506   8.025
53862SOL    HW163360   3.444   7.575   8.005
53862SOL    HW263361   3.433   7.430   8.047
53863SOL     OW63362  11.612   6.499   1.142
53863SOL    HW163363  11.664   6.457   1.210
53863SOL    HW263364  11.675   6.523   1.074
53864SOL     OW63365   3.290   7.771  11.246
53864SOL    HW163366   3.267   7.724  11.325
53864SOL    HW263367   3.310   7.702  11.182
53865SOL     OW63368   4.332   7.456   1.344
53865SOL    HW163369   4.385   7.498   1.277
53865SOL    HW263370   4.244   7.449   1.305
53866SOL     OW63371   7.325   2.111  10.702
53866SOL    HW163372   7.415   2.098  10.673
53866SOL    HW263373   7.327   2.192  10.752
53867SOL     OW63374   5.518   9.907   2.059
53867SOL    HW163375   5.493   9.911   1.967
53867SOL    HW263376   5.498   9.994   2.094
53868SOL     OW63377   3.800  11.950  11.625
53868SOL    HW163378   3.760  11.920  11.543
53868SOL    HW263379   3.755  12.032  11.644
53869SOL     OW63380   0.350  11.050   7.767
53869SOL    HW163381   0.429  11.004   7.797
53869SOL    HW263382   0.373  11.081   7.679
53870SOL     OW63383  14.195  12.594   8.428
53870SOL    HW163384  14.272  12.605   8.483
53870SOL    HW263385  14.133  12.546   8.484
53871SOL     OW63386   2.968  13.996   4.732
53871SOL    HW163387   2.965  13.900   4.735
53871SOL    HW263388   3.027  14.016   4.659
53872SOL     OW63389   6.456  11.705   9.339
53872SOL    HW163390   6.461  11.615   9.307
53872SOL    HW263391   6.434  11.697   9.432
53873SOL     OW63392   4.396   2.251   4.780
53873SOL    HW163393   4.471   2.252   4.721
53873SOL    HW263394   4.320   2.252   4.722
53874SOL     OW63395   4.266   1.268  13.423
53874SOL    HW163396   4.301   1.264  13.334
53874SOL    HW263397   4.173   1.288  13.412
53875SOL     OW63398  14.458   9.228   6.071
53875SOL    HW163399  14.519   9.171   6.024
53875SOL    HW263400  14.409   9.273   6.002
53876SOL     OW63401  14.300   0.590   8.379
53876SOL    HW163402  14.376   0.566   8.432
53876SOL    HW263403  14.260   0.663   8.425
53877SOL     OW63404   6.549   4.295  11.370
53877SOL    HW163405   6.512   4.304  11.457
53877SOL    HW263406   6.537   4.381  11.330
53878SOL     OW63407  10.151   9.259   1.316
53878SOL    HW163408  10.154   9.333   1.256
53878SOL    HW263409  10.199   9.289   1.394
53879SOL     OW63410  13.974   4.404   1.202
53879SOL    HW163411  13.911   4.413   1.130
53879SOL    HW263412  13.921   4.409   1.281
53880SOL     OW63413  10.263   3.557  13.924
53880SOL    HW163414  10.239   3.632  13.978
53880SOL    HW263415  10.185   3.502  13.922
53881SOL     OW63416  11.723   3.237  13.225
53881SOL    HW163417  11.678   3.321  13.209
53881SOL    HW263418  11.730   3.197  13.139
53882SOL     OW63419  14.256   4.784   0.816
53882SOL    HW163420  14.272   4.862   0.869
53882SOL    HW263421  14.278   4.711   0.873
53883SOL     OW63422   3.554  12.601  12.647
53883SOL    HW163423   3.593  12.605  12.560
53883SOL    HW263424   3.559  12.508  12.671
53884SOL     OW63425   8.380  13.729   4.209
53884SOL    HW163426   8.307  13.669   4.202
53884SOL    HW263427   8.394  13.741   4.303
53885SOL     OW63428  12.392   8.425  14.450
53885SOL    HW163429  12.403   8.355  14.386
53885SOL    HW263430  12.359   8.499  14.399
53886SOL     OW63431   3.760   2.639   0.746
53886SOL    HW163432   3.790   2.726   0.770
53886SOL    HW263433   3.801   2.581   0.811
53887SOL     OW63434   4.709   1.284   6.492
53887SOL    HW163435   4.778   1.281   6.559
53887SOL    HW263436   4.734   1.215   6.430
53888SOL     OW63437   4.531  14.850   9.717
53888SOL    HW163438   4.560   0.036   9.782
53888SOL    HW263439   4.452  14.811   9.755
53889SOL     OW63440   8.277  14.612   0.140
53889SOL    HW163441   8.241  14.700   0.130
53889SOL    HW263442   8.202  14.559   0.166
53890SOL     OW63443   2.568   0.403   9.585
53890SOL    HW163444   2.578   0.391   9.490
53890SOL    HW263445   2.474   0.407   9.599
53891SOL     OW63446   1.906  14.606   0.171
53891SOL    HW163447   1.947  14.555   0.241
53891SOL    HW263448   1.859  14.541   0.118
53892SOL     OW63449   3.578   2.530  14.622
53892SOL    HW163450   3.543   2.474  14.553
53892SOL    HW263451   3.536   2.615  14.608
53893SOL     OW63452   1.180   7.956  13.440
53893SOL    HW163453   1.231   7.929  13.364
53893SOL    HW263454   1.122   8.025  13.406
53894SOL     OW63455   5.465   5.392   4.337
53894SOL    HW163456   5.386   5.375   4.285
53894SOL    HW263457   5.531   5.414   4.272
53895SOL     OW63458   0.478  12.715   3.990
53895SOL    HW163459   0.446  12.697   3.901
53895SOL    HW263460   0.562  12.670   3.995
53896SOL     OW63461   2.256  11.669   3.443
53896SOL    HW163462   2.325  11.604   3.430
53896SOL    HW263463   2.201  11.631   3.512
53897SOL     OW63464   2.568  13.304   6.927
53897SOL    HW163465   2.601  13.321   7.015
53897SOL    HW263466   2.571  13.209   6.918
53898SOL     OW63467   0.290   9.825  11.000
53898SOL    HW163468   0.253   9.763  11.062
53898SOL    HW263469   0.297   9.775  10.918
53899SOL     OW63470   9.068  12.330   0.387
53899SOL    HW163471   9.132  12.393   0.420
53899SOL    HW263472   8.986  12.357   0.429
53900SOL     OW63473   0.583   5.929  14.328
53900SOL    HW163474   0.584   5.888  14.415
53900SOL    HW263475   0.667   5.904  14.289
53901SOL     OW63476   4.364   9.926   4.111
53901SOL    HW163477   4.286   9.880   4.144
53901SOL    HW263478   4.425   9.856   4.088
53902SOL     OW63479   8.283   9.883   0.725
53902SOL    HW163480   8.198   9.915   0.695
53902SOL    HW263481   8.332   9.962   0.747
53903SOL     OW63482  11.409  10.567   0.878
53903SOL    HW163483  11.464  10.493   0.851
53903SOL    HW263484  11.437  10.640   0.822
53904SOL     OW63485   4.253  12.560   2.471
53904SOL    HW163486   4.295  12.530   2.552
53904SOL    HW263487   4.243  12.654   2.484
53905SOL     OW63488   0.877  11.841   3.185
53905SOL    HW163489   0.828  11.819   3.106
53905SOL    HW263490   0.968  11.820   3.164
53906SOL     OW63491  11.723  14.289  12.149
53906SOL    HW163492  11.753  14.373  12.183
53906SOL    HW263493  11.801  14.248  12.112
53907SOL     OW63494  10.736   6.245   9.398
53907SOL    HW163495  10.822   6.226   9.437
53907SOL    HW263496  10.703   6.160   9.371
53908SOL     OW63497  13.821   5.274  12.164
53908SOL    HW163498  13.881   5.329  12.114
53908SOL    HW263499  13.855   5.185  12.155
53909SOL     OW63500   2.949   8.667   8.691
53909SOL    HW163501   2.869   8.615   8.689
53909SOL    HW263502   2.959   8.694   8.782
53910SOL     OW63503   7.417  10.305   2.411
53910SOL    HW163504   7.422  10.273   2.321
53910SOL    HW263505   7.505  10.338   2.430
53911SOL     OW63506  10.753  10.158   3.613
53911SOL    HW163507  10.804  10.118   3.684
53911SOL    HW263508  10.791  10.246   3.604
53912SOL     OW63509  13.275  14.529   7.414
53912SOL    HW163510  13.180  14.521   7.420
53912SOL    HW263511  13.294  14.517   7.321
53913SOL     OW63512   0.884   0.940  10.660
53913SOL    HW163513   0.894   0.889  10.740
53913SOL    HW263514   0.905   1.030  10.685
53914SOL     OW63515   8.157   7.715   5.387
53914SOL    HW163516   8.163   7.807   5.413
53914SOL    HW263517   8.064   7.702   5.368
53915SOL     OW63518   7.366   1.239   7.870
53915SOL    HW163519   7.277   1.272   7.856
53915SOL    HW263520   7.416   1.316   7.898
53916SOL     OW63521   0.813   3.389   9.923
53916SOL    HW163522   0.875   3.373   9.852
53916SOL    HW263523   0.835   3.476   9.955
53917SOL     OW63524  12.972   2.705   1.251
53917SOL    HW163525  12.913   2.776   1.223
53917SOL    HW263526  12.982   2.718   1.345
53918SOL     OW63527  13.055   1.483   3.828
53918SOL    HW163528  12.993   1.433   3.775
53918SOL    HW263529  13.138   1.437   3.819
53919SOL     OW63530  14.708  14.497   4.578
53919SOL    HW163531  14.629  14.446   4.559
53919SOL    HW263532  14.708  14.506   4.674
53920SOL     OW63533   4.293  11.771   7.723
53920SOL    HW163534   4.262  11.838   7.662
53920SOL    HW263535   4.327  11.701   7.667
53921SOL     OW63536  11.308  10.573   6.513
53921SOL    HW163537  11.277  10.520   6.586
53921SOL    HW263538  11.397  10.598   6.537
53922SOL     OW63539   7.471   3.724  13.929
53922SOL    HW163540   7.466   3.649  13.988
53922SOL    HW263541   7.457   3.687  13.842
53923SOL     OW63542   2.004  12.865   7.710
53923SOL    HW163543   1.989  12.946   7.662
53923SOL    HW263544   1.981  12.886   7.800
53924SOL     OW63545   9.296  12.318  13.641
53924SOL    HW163546   9.269  12.243  13.589
53924SOL    HW263547   9.335  12.281  13.720
53925SOL     OW63548   1.488   1.174   5.766
53925SOL    HW163549   1.557   1.113   5.793
53925SOL    HW263550   1.406   1.128   5.785
53926SOL     OW63551  12.938  11.290  12.757
53926SOL    HW163552  12.938  11.230  12.832
53926SOL    HW263553  13.023  11.335  12.762
53927SOL     OW63554   0.739   4.853   5.542
53927SOL    HW163555   0.704   4.933   5.504
53927SOL    HW263556   0.700   4.849   5.629
53928SOL     OW63557   3.786   0.051   4.786
53928SOL    HW163558   3.770   0.083   4.875
53928SOL    HW263559   3.829  14.844   4.798
53929SOL     OW63560   9.736   5.123   9.141
53929SOL    HW163561   9.760   5.214   9.159
53929SOL    HW263562   9.658   5.128   9.087
53930SOL     OW63563   6.471   0.333   0.629
53930SOL    HW163564   6.419   0.399   0.675
53930SOL    HW263565   6.408   0.285   0.575
53931SOL     OW63566   2.829   3.728  12.408
53931SOL    HW163567   2.814   3.742  12.315
53931SOL    HW263568   2.916   3.687  12.412
53932SOL     OW63569  14.007   7.257   8.596
53932SOL    HW163570  14.022   7.326   8.661
53932SOL    HW263571  13.929   7.211   8.627
53933SOL     OW63572  12.922   3.786   4.725
53933SOL    HW163573  12.959   3.875   4.724
53933SOL    HW263574  12.944   3.751   4.638
53934SOL     OW63575   5.448  12.793  14.012
53934SOL    HW163576   5.366  12.818  13.968
53934SOL    HW263577   5.510  12.779  13.941
53935SOL     OW63578   7.317  10.511  10.762
53935SOL    HW163579   7.333  10.522  10.669
53935SOL    HW263580   7.348  10.592  10.802
53936SOL     OW63581   2.861   5.495   6.454
53936SOL    HW163582   2.829   5.492   6.364
53936SOL    HW263583   2.915   5.416   6.463
53937SOL     OW63584  10.772  11.931   3.782
53937SOL    HW163585  10.780  11.925   3.877
53937SOL    HW263586  10.859  11.908   3.749
53938SOL     OW63587  14.265  11.208   5.440
53938SOL    HW163588  14.287  11.207   5.347
53938SOL    HW263589  14.194  11.272   5.447
53939SOL     OW63590   5.932   7.196   7.053
53939SOL    HW163591   5.942   7.290   7.042
53939SOL    HW263592   6.021   7.161   7.044
53940SOL     OW63593   4.265  12.275   7.956
53940SOL    HW163594   4.345  12.275   8.009
53940SOL    HW263595   4.221  12.357   7.980
53941SOL     OW63596  11.794  13.456   7.637
53941SOL    HW163597  11.806  13.375   7.587
53941SOL    HW263598  11.879  13.500   7.634
53942SOL     OW63599   6.001  14.630  11.556
53942SOL    HW163600   6.035  14.547  11.589
53942SOL    HW263601   6.072  14.667  11.504
53943SOL     OW63602   4.558   1.011   5.301
53943SOL    HW163603   4.647   0.979   5.314
53943SOL    HW263604   4.504   0.954   5.356
53944SOL     OW63605  10.317  11.919  12.447
53944SOL    HW163606  10.402  11.955  12.471
53944SOL    HW263607  10.293  11.861  12.519
53945SOL     OW63608   8.895   1.987   7.641
53945SOL    HW163609   8.973   2.042   7.640
53945SOL    HW263610   8.828   2.039   7.595
53946SOL     OW63611   0.845  11.163   9.555
53946SOL    HW163612   0.881  11.232   9.611
53946SOL    HW263613   0.889  11.083   9.583
53947SOL     OW63614  11.767   0.252   0.389
53947SOL    HW163615  11.837   0.205   0.434
53947SOL    HW263616  11.742   0.322   0.449
53948SOL     OW63617   0.776   5.585   0.704
53948SOL    HW163618   0.701   5.530   0.725
53948SOL    HW263619   0.827   5.588   0.786
53949SOL     OW63620   8.419   8.848  13.093
53949SOL    HW163621   8.380   8.779  13.040
53949SOL    HW263622   8.352   8.916  13.096
53950SOL     OW63623   8.266  11.951   6.059
53950SOL    HW163624   8.296  12.028   6.107
53950SOL    HW263625   8.258  11.981   5.968
53951SOL     OW63626   3.699  13.734   2.709
53951SOL    HW163627   3.781  13.724   2.757
53951SOL    HW263628   3.675  13.826   2.721
53952SOL     OW63629   3.853   6.968  10.521
53952SOL    HW163630   3.877   7.022  10.596
53952SOL    HW263631   3.859   7.027  10.446
53953SOL     OW63632   3.558  13.821   1.276
53953SOL    HW163633   3.610  13.886   1.324
53953SOL    HW263634   3.512  13.772   1.344
53954SOL     OW63635  14.520   4.326   5.425
53954SOL    HW163636  14.531   4.241   5.383
53954SOL    HW263637  14.590   4.329   5.491
53955SOL     OW63638   9.586   9.959  12.572
53955SOL    HW163639   9.626   9.966  12.659
53955SOL    HW263640   9.573  10.050  12.544
53956SOL     OW63641   6.335   5.270   5.836
53956SOL    HW163642   6.295   5.338   5.783
53956SOL    HW263643   6.346   5.196   5.777
53957SOL     OW63644   4.177  10.819   7.691
53957SOL    HW163645   4.246  10.787   7.632
53957SOL    HW263646   4.217  10.817   7.778
53958SOL     OW63647   8.530   2.489   1.200
53958SOL    HW163648   8.611   2.453   1.165
53958SOL    HW263649   8.520   2.573   1.154
53959SOL     OW63650   7.961   5.164   4.893
53959SOL    HW163651   8.019   5.226   4.849
53959SOL    HW263652   7.996   5.078   4.868
53960SOL     OW63653   8.021   0.834  13.335
53960SOL    HW163654   8.041   0.744  13.311
53960SOL    HW263655   8.105   0.871  13.361
53961SOL     OW63656   7.774  11.443   2.765
53961SOL    HW163657   7.767  11.428   2.671
53961SOL    HW263658   7.738  11.531   2.778
53962SOL     OW63659  12.728   5.319  11.450
53962SOL    HW163660  12.711   5.316  11.544
53962SOL    HW263661  12.823   5.323  11.443
53963SOL     OW63662   3.018  10.811  13.336
53963SOL    HW163663   3.094  10.852  13.378
53963SOL    HW263664   2.971  10.882  13.294
53964SOL     OW63665   4.330   0.750   7.893
53964SOL    HW163666   4.385   0.684   7.851
53964SOL    HW263667   4.268   0.776   7.826
53965SOL     OW63668   7.578   7.237   5.857
53965SOL    HW163669   7.579   7.142   5.863
53965SOL    HW263670   7.499   7.256   5.806
53966SOL     OW63671   1.024  11.688   6.950
53966SOL    HW163672   1.034  11.740   7.029
53966SOL    HW263673   0.971  11.743   6.892
53967SOL     OW63674   2.455   6.814   3.277
53967SOL    HW163675   2.448   6.720   3.294
53967SOL    HW263676   2.542   6.826   3.240
53968SOL     OW63677  13.596  10.785  13.512
53968SOL    HW163678  13.661  10.767  13.444
53968SOL    HW263679  13.573  10.699  13.546
53969SOL     OW63680  14.625   1.135   2.027
53969SOL    HW163681  14.624   1.185   1.946
53969SOL    HW263682  14.541   1.089   2.029
53970SOL     OW63683   5.990   4.283   6.536
53970SOL    HW163684   5.950   4.369   6.549
53970SOL    HW263685   6.004   4.277   6.442
53971SOL     OW63686   6.490  14.266   8.054
53971SOL    HW163687   6.408  14.216   8.063
53971SOL    HW263688   6.556  14.212   8.098
53972SOL     OW63689   1.236   6.662   4.273
53972SOL    HW163690   1.215   6.576   4.236
53972SOL    HW263691   1.194   6.662   4.359
53973SOL     OW63692  12.373   5.863  11.417
53973SOL    HW163693  12.389   5.769  11.422
53973SOL    HW263694  12.296   5.877  11.472
53974SOL     OW63695  12.827   8.673   9.538
53974SOL    HW163696  12.863   8.655   9.624
53974SOL    HW263697  12.853   8.599   9.484
53975SOL     OW63698  13.075   6.991   7.870
53975SOL    HW163699  13.007   7.058   7.873
53975SOL    HW263700  13.045   6.930   7.802
53976SOL     OW63701   9.721  13.618  10.921
53976SOL    HW163702   9.686  13.674  10.852
53976SOL    HW263703   9.734  13.676  10.995
53977SOL     OW63704   2.416   2.625   4.421
53977SOL    HW163705   2.378   2.599   4.337
53977SOL    HW263706   2.452   2.713   4.404
53978SOL     OW63707  12.090   2.524   9.501
53978SOL    HW163708  12.014   2.580   9.487
53978SOL    HW263709  12.165   2.583   9.494
53979SOL     OW63710   8.637   2.647   2.873
53979SOL    HW163711   8.684   2.565   2.858
53979SOL    HW263712   8.706   2.714   2.874
53980SOL     OW63713   1.172   1.586   2.700
53980SOL    HW163714   1.109   1.535   2.751
53980SOL    HW263715   1.158   1.557   2.610
53981SOL     OW63716   5.529  10.886   6.917
53981SOL    HW163717   5.567  10.959   6.868
53981SOL    HW263718   5.465  10.846   6.858
53982SOL     OW63719  13.411  12.926   7.941
53982SOL    HW163720  13.375  12.926   8.029
53982SOL    HW263721  13.478  12.858   7.942
53983SOL     OW63722   7.160   6.125   2.608
53983SOL    HW163723   7.156   6.146   2.515
53983SOL    HW263724   7.162   6.210   2.652
53984SOL     OW63725  14.841   9.801   0.076
53984SOL    HW163726   0.044   9.844   0.105
53984SOL    HW263727  14.778   9.819   0.146
53985SOL     OW63728   3.094  13.487   2.768
53985SOL    HW163729   3.109  13.538   2.847
53985SOL    HW263730   3.174  13.435   2.757
53986SOL     OW63731  12.699  13.876   5.741
53986SOL    HW163732  12.716  13.801   5.798
53986SOL    HW263733  12.621  13.851   5.691
53987SOL     OW63734   4.297   5.263  12.107
53987SOL    HW163735   4.245   5.337  12.139
53987SOL    HW263736   4.246   5.228  12.034
53988SOL     OW63737  13.136  14.132   2.017
53988SOL    HW163738  13.135  14.051   2.068
53988SOL    HW263739  13.134  14.202   2.082
53989SOL     OW63740   4.989   1.919   6.061
53989SOL    HW163741   4.923   1.920   5.992
53989SOL    HW263742   4.958   1.983   6.125
53990SOL     OW63743   8.287  11.946   8.822
53990SOL    HW163744   8.311  11.948   8.730
53990SOL    HW263745   8.308  12.034   8.854
53991SOL     OW63746   3.205   0.991   0.438
53991SOL    HW163747   3.112   1.008   0.419
53991SOL    HW263748   3.204   0.932   0.513
53992SOL     OW63749  10.685   8.867   5.900
53992SOL    HW163750  10.707   8.797   5.839
53992SOL    HW263751  10.752   8.862   5.968
53993SOL     OW63752   2.333   3.761   1.869
53993SOL    HW163753   2.320   3.695   1.801
53993SOL    HW263754   2.427   3.776   1.870
53994SOL     OW63755  14.159   7.022  14.810
53994SOL    HW163756  14.184   7.068   0.013
53994SOL    HW263757  14.146   6.931  14.837
53995SOL     OW63758  13.881   4.361   1.907
53995SOL    HW163759  13.942   4.287   1.910
53995SOL    HW263760  13.839   4.361   1.993
53996SOL     OW63761   1.063   6.545   6.450
53996SOL    HW163762   1.036   6.622   6.401
53996SOL    HW263763   1.018   6.472   6.408
53997SOL     OW63764   3.932   1.203   7.003
53997SOL    HW163765   3.836   1.205   6.998
53997SOL    HW263766   3.951   1.195   7.097
53998SOL     OW63767  13.127   9.120   0.799
53998SOL    HW163768  13.125   9.185   0.870
53998SOL    HW263769  13.145   9.171   0.720
53999SOL     OW63770  10.524   6.538   3.305
53999SOL    HW163771  10.432   6.511   3.306
53999SOL    HW263772  10.522   6.632   3.290
54000SOL     OW63773   1.897   0.536  12.150
54000SOL    HW163774   1.931   0.454  12.115
54000SOL    HW263775   1.974   0.582  12.184
54001SOL     OW63776  11.859  14.785  10.991
54001SOL    HW163777  11.838  14.755  10.902
54001SOL    HW263778  11.942  14.743  11.012
54002SOL     OW63779   5.924   6.718   0.021
54002SOL    HW163780   5.899   6.668   0.099
54002SOL    HW263781   6.000   6.671  14.863
54003SOL     OW63782   4.542  14.691   8.275
54003SOL    HW163783   4.539  14.618   8.213
54003SOL    HW263784   4.455  14.730   8.270
54004SOL     OW63785   8.227   9.623  13.793
54004SOL    HW163786   8.211   9.549  13.852
54004SOL    HW263787   8.266   9.584  13.715
54005SOL     OW63788  10.962   4.532  13.586
54005SOL    HW163789  10.967   4.532  13.682
54005SOL    HW263790  11.053   4.533  13.557
54006SOL     OW63791   8.126   1.954   2.581
54006SOL    HW163792   8.075   2.031   2.609
54006SOL    HW263793   8.164   1.981   2.498
54007SOL     OW63794   3.612   2.299   5.777
54007SOL    HW163795   3.571   2.348   5.848
54007SOL    HW263796   3.638   2.216   5.818
54008SOL     OW63797   1.050  10.753   0.099
54008SOL    HW163798   0.982  10.696   0.063
54008SOL    HW263799   1.090  10.793   0.022
54009SOL     OW63800  13.709  13.150  10.852
54009SOL    HW163801  13.750  13.202  10.783
54009SOL    HW263802  13.720  13.202  10.932
54010SOL     OW63803   4.524   7.394   7.671
54010SOL    HW163804   4.612   7.357   7.672
54010SOL    HW263805   4.497   7.390   7.579
54011SOL     OW63806   6.240  14.238  10.024
54011SOL    HW163807   6.325  14.263   9.987
54011SOL    HW263808   6.178  14.257   9.954
54012SOL     OW63809   4.132   2.053   6.666
54012SOL    HW163810   4.075   1.996   6.615
54012SOL    HW263811   4.135   2.013   6.753
54013SOL     OW63812   6.461   3.848  11.579
54013SOL    HW163813   6.422   3.816  11.497
54013SOL    HW263814   6.555   3.841  11.565
54014SOL     OW63815   7.033   9.253  14.313
54014SOL    HW163816   7.124   9.270  14.334
54014SOL    HW263817   7.032   9.165  14.277
54015SOL     OW63818   6.448   0.346  13.238
54015SOL    HW163819   6.417   0.435  13.254
54015SOL    HW263820   6.481   0.317  13.323
54016SOL     OW63821   2.746   6.280  12.788
54016SOL    HW163822   2.834   6.315  12.780
54016SOL    HW263823   2.702   6.307  12.707
54017SOL     OW63824   5.152   3.639  14.245
54017SOL    HW163825   5.122   3.663  14.157
54017SOL    HW263826   5.148   3.543  14.246
54018SOL     OW63827   1.783   3.960   0.763
54018SOL    HW163828   1.742   3.914   0.837
54018SOL    HW263829   1.869   3.985   0.795
54019SOL     OW63830  11.190  13.537   7.432
54019SOL    HW163831  11.104  13.566   7.460
54019SOL    HW263832  11.208  13.587   7.352
54020SOL     OW63833   0.156   6.999   5.517
54020SOL    HW163834   0.233   6.942   5.519
54020SOL    HW263835   0.120   6.987   5.429
54021SOL     OW63836   9.658   1.415   0.124
54021SOL    HW163837   9.594   1.364   0.074
54021SOL    HW263838   9.631   1.405   0.215
54022SOL     OW63839   5.442   5.972  12.019
54022SOL    HW163840   5.510   5.939  11.960
54022SOL    HW263841   5.487   6.037  12.073
54023SOL     OW63842   7.881  12.894  12.098
54023SOL    HW163843   7.911  12.883  12.008
54023SOL    HW263844   7.895  12.987  12.116
54024SOL     OW63845   6.979   2.017   5.832
54024SOL    HW163846   7.004   2.069   5.908
54024SOL    HW263847   7.062   1.978   5.802
54025SOL     OW63848   0.604   3.450  10.462
54025SOL    HW163849   0.669   3.428  10.395
54025SOL    HW263850   0.520   3.447  10.416
54026SOL     OW63851  13.747  10.170   2.844
54026SOL    HW163852  13.749  10.265   2.832
54026SOL    HW263853  13.804  10.136   2.775
54027SOL     OW63854   3.074   1.117   2.119
54027SOL    HW163855   3.086   1.211   2.135
54027SOL    HW263856   3.034   1.084   2.199
54028SOL     OW63857   9.155   4.811   4.640
54028SOL    HW163858   9.245   4.808   4.609
54028SOL    HW263859   9.107   4.754   4.579
54029SOL     OW63860   6.418   3.162  12.022
54029SOL    HW163861   6.381   3.085  11.978
54029SOL    HW263862   6.499   3.131  12.061
54030SOL     OW63863   3.350   1.790   2.351
54030SOL    HW163864   3.374   1.850   2.281
54030SOL    HW263865   3.430   1.740   2.369
54031SOL     OW63866  13.976   9.022   9.967
54031SOL    HW163867  13.892   8.977   9.969
54031SOL    HW263868  13.985   9.059  10.055
54032SOL     OW63869  13.284  12.078   8.756
54032SOL    HW163870  13.296  12.022   8.679
54032SOL    HW263871  13.356  12.141   8.750
54033SOL     OW63872   7.250   8.212   9.533
54033SOL    HW163873   7.321   8.272   9.511
54033SOL    HW263874   7.172   8.266   9.534
54034SOL     OW63875   0.972  13.285   7.284
54034SOL    HW163876   1.050  13.233   7.308
54034SOL    HW263877   1.006  13.352   7.225
54035SOL     OW63878   1.287   5.609   2.693
54035SOL    HW163879   1.271   5.662   2.615
54035SOL    HW263880   1.352   5.544   2.665
54036SOL     OW63881   9.406  12.724   9.572
54036SOL    HW163882   9.400  12.640   9.618
54036SOL    HW263883   9.433  12.701   9.483
54037SOL     OW63884  11.595   8.336   1.629
54037SOL    HW163885  11.521   8.315   1.687
54037SOL    HW263886  11.659   8.266   1.645
54038SOL     OW63887   3.706  12.112  11.247
54038SOL    HW163888   3.760  12.066  11.184
54038SOL    HW263889   3.679  12.044  11.310
54039SOL     OW63890   3.515   6.491  13.042
54039SOL    HW163891   3.470   6.475  13.125
54039SOL    HW263892   3.601   6.523  13.068
54040SOL     OW63893  13.324   1.092  13.349
54040SOL    HW163894  13.270   1.026  13.392
54040SOL    HW263895  13.272   1.119  13.273
54041SOL     OW63896   7.733   7.097   3.814
54041SOL    HW163897   7.815   7.140   3.836
54041SOL    HW263898   7.669   7.135   3.874
54042SOL     OW63899   6.626  14.375   7.844
54042SOL    HW163900   6.720  14.358   7.855
54042SOL    HW263901   6.584  14.315   7.906
54043SOL     OW63902  11.162   2.322   5.309
54043SOL    HW163903  11.221   2.397   5.318
54043SOL    HW263904  11.186   2.263   5.379
54044SOL     OW63905   3.104   2.399  14.156
54044SOL    HW163906   3.103   2.306  14.132
54044SOL    HW263907   3.013   2.427  14.148
54045SOL     OW63908   2.224   6.899   6.763
54045SOL    HW163909   2.150   6.934   6.713
54045SOL    HW263910   2.191   6.818   6.801
54046SOL     OW63911   4.551   4.323   2.061
54046SOL    HW163912   4.575   4.293   2.149
54046SOL    HW263913   4.627   4.303   2.007
54047SOL     OW63914  11.738  11.724   7.060
54047SOL    HW163915  11.823  11.684   7.037
54047SOL    HW263916  11.752  11.818   7.049
54048SOL     OW63917   0.462   3.873   2.973
54048SOL    HW163918   0.533   3.933   2.952
54048SOL    HW263919   0.405   3.924   3.031
54049SOL     OW63920   1.837   3.189  12.592
54049SOL    HW163921   1.931   3.173  12.591
54049SOL    HW263922   1.799   3.102  12.578
54050SOL     OW63923  14.324   1.897   3.032
54050SOL    HW163924  14.231   1.885   3.052
54050SOL    HW263925  14.349   1.817   2.987
54051SOL     OW63926   1.424   8.852   9.363
54051SOL    HW163927   1.377   8.796   9.301
54051SOL    HW263928   1.415   8.807   9.447
54052SOL     OW63929  10.132   6.085   0.429
54052SOL    HW163930  10.115   6.161   0.485
54052SOL    HW263931  10.080   6.014   0.468
54053SOL     OW63932   8.859   7.982   8.426
54053SOL    HW163933   8.843   8.072   8.399
54053SOL    HW263934   8.786   7.961   8.485
54054SOL     OW63935   0.432   6.276   0.691
54054SOL    HW163936   0.409   6.304   0.603
54054SOL    HW263937   0.467   6.354   0.734
54055SOL     OW63938   0.601   9.089   1.781
54055SOL    HW163939   0.643   9.087   1.695
54055SOL    HW263940   0.673   9.104   1.843
54056SOL     OW63941   9.851   1.988   0.433
54056SOL    HW163942   9.756   1.986   0.421
54056SOL    HW263943   9.870   1.908   0.483
54057SOL     OW63944   8.054   2.123  12.830
54057SOL    HW163945   8.117   2.164  12.770
54057SOL    HW263946   8.066   2.029  12.817
54058SOL     OW63947   8.763   4.124   7.073
54058SOL    HW163948   8.735   4.036   7.097
54058SOL    HW263949   8.820   4.152   7.144
54059SOL     OW63950   3.695  11.085   2.921
54059SOL    HW163951   3.664  11.175   2.913
54059SOL    HW263952   3.753  11.087   2.997
54060SOL     OW63953   9.135   0.551   2.744
54060SOL    HW163954   9.125   0.644   2.726
54060SOL    HW263955   9.186   0.518   2.670
54061SOL     OW63956   4.895   4.886  12.778
54061SOL    HW163957   4.945   4.830  12.838
54061SOL    HW263958   4.829   4.928  12.833
54062SOL     OW63959   5.853   5.173   4.852
54062SOL    HW163960   5.813   5.258   4.833
54062SOL    HW263961   5.780   5.111   4.842
54063SOL     OW63962   8.704   5.648   4.110
54063SOL    HW163963   8.612   5.626   4.098
54063SOL    HW263964   8.731   5.683   4.026
54064SOL     OW63965   5.919   6.605   5.591
54064SOL    HW163966   5.928   6.520   5.547
54064SOL    HW263967   5.835   6.599   5.638
54065SOL     OW63968   0.632  13.740  11.675
54065SOL    HW163969   0.700  13.694  11.627
54065SOL    HW263970   0.657  13.731  11.767
54066SOL     OW63971  11.773  12.102  12.870
54066SOL    HW163972  11.700  12.151  12.908
54066SOL    HW263973  11.805  12.157  12.799
54067SOL     OW63974   3.143   2.813   3.729
54067SOL    HW163975   3.156   2.849   3.817
54067SOL    HW263976   3.061   2.764   3.735
54068SOL     OW63977  10.856  13.381   9.714
54068SOL    HW163978  10.950  13.370   9.728
54068SOL    HW263979  10.843  13.476   9.712
54069SOL     OW63980  14.111   4.405   9.394
54069SOL    HW163981  14.083   4.471   9.457
54069SOL    HW263982  14.197   4.377   9.425
54070SOL     OW63983   9.065   5.804   4.650
54070SOL    HW163984   9.138   5.744   4.663
54070SOL    HW263985   9.037   5.790   4.559
54071SOL     OW63986  14.598   9.902   0.252
54071SOL    HW163987  14.582   9.814   0.219
54071SOL    HW263988  14.529   9.917   0.316
54072SOL     OW63989   4.844   5.484  12.015
54072SOL    HW163990   4.827   5.390  12.015
54072SOL    HW263991   4.791   5.518  12.088
54073SOL     OW63992   6.830   7.674   7.853
54073SOL    HW163993   6.806   7.663   7.945
54073SOL    HW263994   6.822   7.768   7.837
54074SOL     OW63995  10.729  11.612   4.543
54074SOL    HW163996  10.767  11.524   4.543
54074SOL    HW263997  10.662  11.609   4.474
54075SOL     OW63998   2.987  12.342   1.914
54075SOL    HW163999   2.960  12.251   1.903
54075SOL    HW264000   3.083  12.338   1.919
54076SOL     OW64001  10.714   4.762  13.889
54076SOL    HW164002  10.668   4.807  13.959
54076SOL    HW264003  10.645   4.724  13.835
54077SOL     OW64004  14.747  13.414   2.442
54077SOL    HW164005  14.837  13.406   2.475
54077SOL    HW264006  14.701  13.339   2.479
54078SOL     OW64007  14.876   5.337  11.465
54078SOL    HW164008   0.054   5.262  11.487
54078SOL    HW264009   0.059   5.411  11.457
54079SOL     OW64010  12.506   0.571   7.984
54079SOL    HW164011  12.542   0.525   8.060
54079SOL    HW264012  12.429   0.618   8.018
54080SOL     OW64013  12.783  13.683   9.360
54080SOL    HW164014  12.760  13.696   9.268
54080SOL    HW264015  12.713  13.727   9.409
54081SOL     OW64016  14.124   8.739  10.852
54081SOL    HW164017  14.204   8.783  10.822
54081SOL    HW264018  14.112   8.668  10.790
54082SOL     OW64019   7.131  12.801  13.247
54082SOL    HW164020   7.187  12.803  13.325
54082SOL    HW264021   7.149  12.883  13.202
54083SOL     OW64022   7.190   6.110   4.670
54083SOL    HW164023   7.247   6.119   4.594
54083SOL    HW264024   7.105   6.085   4.633
54084SOL     OW64025   2.669   3.039  13.190
54084SOL    HW164026   2.709   2.952  13.187
54084SOL    HW264027   2.714   3.083  13.263
54085SOL     OW64028   8.588   9.384   8.522
54085SOL    HW164029   8.527   9.450   8.555
54085SOL    HW264030   8.631   9.350   8.601
54086SOL     OW64031   8.592   0.963   1.728
54086SOL    HW164032   8.639   0.879   1.721
54086SOL    HW264033   8.518   0.953   1.668
54087SOL     OW64034  11.692   7.774  13.456
54087SOL    HW164035  11.720   7.863  13.434
54087SOL    HW264036  11.742   7.718  13.397
54088SOL     OW64037  13.389   1.903  10.751
54088SOL    HW164038  13.333   1.889  10.828
54088SOL    HW264039  13.392   1.818  10.708
54089SOL     OW64040   1.727   2.354   1.533
54089SOL    HW164041   1.811   2.330   1.494
54089SOL    HW264042   1.702   2.434   1.488
54090SOL     OW64043  11.950   5.068  10.463
54090SOL    HW164044  11.858   5.092  10.454
54090SOL    HW264045  11.990   5.140  10.511
54091SOL     OW64046   2.372   1.912   0.537
54091SOL    HW164047   2.435   1.979   0.563
54091SOL    HW264048   2.305   1.913   0.605
54092SOL     OW64049  12.115   7.722   0.129
54092SOL    HW164050  12.129   7.637   0.172
54092SOL    HW264051  12.068   7.700   0.048
54093SOL     OW64052   1.209  14.822   5.987
54093SOL    HW164053   1.142  14.832   6.055
54093SOL    HW264054   1.208   0.028   5.940
54094SOL     OW64055   5.376   9.374   4.334
54094SOL    HW164056   5.334   9.388   4.419
54094SOL    HW264057   5.315   9.319   4.286
54095SOL     OW64058   8.653  13.323   9.079
54095SOL    HW164059   8.717  13.340   9.148
54095SOL    HW264060   8.702  13.331   8.998
54096SOL     OW64061  10.010   5.134   9.127
54096SOL    HW164062   9.917   5.113   9.115
54096SOL    HW264063  10.012   5.187   9.207
54097SOL     OW64064   0.550   4.938   5.198
54097SOL    HW164065   0.585   4.903   5.116
54097SOL    HW264066   0.626   4.978   5.241
54098SOL     OW64067   9.003   8.705  10.054
54098SOL    HW164068   9.011   8.782  10.110
54098SOL    HW264069   9.029   8.632  10.110
54099SOL     OW64070   2.647   6.143  10.647
54099SOL    HW164071   2.702   6.065  10.656
54099SOL    HW264072   2.568   6.112  10.602
54100SOL     OW64073  11.879  11.477   6.177
54100SOL    HW164074  11.845  11.389   6.161
54100SOL    HW264075  11.919  11.472   6.264
54101SOL     OW64076   6.204  13.257   8.058
54101SOL    HW164077   6.109  13.270   8.058
54101SOL    HW264078   6.215  13.162   8.068
54102SOL     OW64079   8.647   0.802   1.387
54102SOL    HW164080   8.572   0.802   1.447
54102SOL    HW264081   8.612   0.764   1.306
54103SOL     OW64082   0.869   6.352  11.435
54103SOL    HW164083   0.798   6.289  11.438
54103SOL    HW264084   0.825   6.437  11.431
54104SOL     OW64085   5.295  11.949   6.162
54104SOL    HW164086   5.336  11.928   6.246
54104SOL    HW264087   5.227  11.882   6.151
54105SOL     OW64088  13.478   1.244   5.858
54105SOL    HW164089  13.442   1.324   5.897
54105SOL    HW264090  13.520   1.199   5.931
54106SOL     OW64091   6.672   4.336  12.343
54106SOL    HW164092   6.654   4.264  12.404
54106SOL    HW264093   6.615   4.319  12.268
54107SOL     OW64094   0.849   1.179   6.432
54107SOL    HW164095   0.799   1.161   6.352
54107SOL    HW264096   0.940   1.185   6.403
54108SOL     OW64097   9.227  14.259  14.468
54108SOL    HW164098   9.222  14.355  14.471
54108SOL    HW264099   9.316  14.241  14.439
54109SOL     OW64100   6.341   5.967   4.170
54109SOL    HW164101   6.435   5.960   4.186
54109SOL    HW264102   6.334   6.001   4.080
54110SOL     OW64103   5.027   1.090   0.893
54110SOL    HW164104   5.039   1.058   0.982
54110SOL    HW264105   4.990   1.177   0.903
54111SOL     OW64106   2.133   6.114   6.307
54111SOL    HW164107   2.167   6.031   6.340
54111SOL    HW264108   2.052   6.090   6.261
54112SOL     OW64109  10.122   4.199   4.909
54112SOL    HW164110  10.044   4.182   4.961
54112SOL    HW264111  10.158   4.113   4.889
54113SOL     OW64112   1.788   3.099  12.958
54113SOL    HW164113   1.764   3.190  12.976
54113SOL    HW264114   1.763   3.051  13.038
54114SOL     OW64115   2.511  12.036   2.214
54114SOL    HW164116   2.574  11.965   2.227
54114SOL    HW264117   2.546  12.109   2.265
54115SOL     OW64118   7.726   5.122   1.575
54115SOL    HW164119   7.668   5.125   1.500
54115SOL    HW264120   7.672   5.152   1.649
54116SOL     OW64121   0.228   2.508   6.727
54116SOL    HW164122   0.295   2.464   6.779
54116SOL    HW264123   0.154   2.447   6.727
54117SOL     OW64124   3.843   1.918   8.765
54117SOL    HW164125   3.891   1.836   8.767
54117SOL    HW264126   3.765   1.900   8.713
54118SOL     OW64127   2.288   6.633   1.176
54118SOL    HW164128   2.216   6.681   1.134
54118SOL    HW264129   2.320   6.573   1.108
54119SOL     OW64130  14.719   3.867   8.203
54119SOL    HW164131  14.657   3.818   8.257
54119SOL    HW264132  14.699   3.840   8.113
54120SOL     OW64133   0.681   4.299   6.723
54120SOL    HW164134   0.622   4.302   6.648
54120SOL    HW264135   0.678   4.388   6.760
54121SOL     OW64136  12.065   0.008  11.314
54121SOL    HW164137  12.083  14.861  11.223
54121SOL    HW264138  12.130  14.836  11.365
54122SOL     OW64139  14.046   6.768   8.527
54122SOL    HW164140  14.026   6.732   8.613
54122SOL    HW264141  14.092   6.850   8.546
54123SOL     OW64142   1.816   4.159   5.168
54123SOL    HW164143   1.878   4.121   5.231
54123SOL    HW264144   1.872   4.190   5.097
54124SOL     OW64145   3.138  10.168   8.315
54124SOL    HW164146   3.156  10.075   8.331
54124SOL    HW264147   3.090  10.170   8.233
54125SOL     OW64148   9.308   0.037   0.550
54125SOL    HW164149   9.373   0.022   0.482
54125SOL    HW264150   9.249  14.839   0.545
54126SOL     OW64151  11.176   2.842   8.093
54126SOL    HW164152  11.160   2.904   8.022
54126SOL    HW264153  11.202   2.761   8.048
54127SOL     OW64154   5.993  13.368   2.409
54127SOL    HW164155   6.018  13.453   2.374
54127SOL    HW264156   6.068  13.340   2.461
54128SOL     OW64157  13.657   9.062   8.596
54128SOL    HW164158  13.655   9.090   8.505
54128SOL    HW264159  13.569   9.028   8.613
54129SOL     OW64160  14.074   4.417  11.438
54129SOL    HW164161  13.997   4.389  11.388
54129SOL    HW264162  14.148   4.382  11.388
54130SOL     OW64163  14.138  13.216   1.401
54130SOL    HW164164  14.161  13.162   1.477
54130SOL    HW264165  14.043  13.217   1.400
54131SOL     OW64166   7.910   0.473   6.034
54131SOL    HW164167   7.965   0.416   5.981
54131SOL    HW264168   7.834   0.490   5.979
54132SOL     OW64169   5.613  13.175  10.777
54132SOL    HW164170   5.594  13.155  10.869
54132SOL    HW264171   5.611  13.089  10.734
54133SOL     OW64172   2.361   2.927   1.759
54133SOL    HW164173   2.400   2.840   1.770
54133SOL    HW264174   2.431   2.979   1.719
54134SOL     OW64175  11.764  13.480   9.576
54134SOL    HW164176  11.769  13.454   9.668
54134SOL    HW264177  11.854  13.499   9.551
54135SOL     OW64178   9.690   5.118   7.885
54135SOL    HW164179   9.708   5.056   7.956
54135SOL    HW264180   9.720   5.074   7.806
54136SOL     OW64181   2.949   3.994  13.221
54136SOL    HW164182   2.919   4.009  13.311
54136SOL    HW264183   2.950   4.082  13.182
54137SOL     OW64184   7.262   1.561   4.191
54137SOL    HW164185   7.335   1.579   4.130
54137SOL    HW264186   7.205   1.637   4.182
54138SOL     OW64187   6.646  11.255  13.712
54138SOL    HW164188   6.681  11.317  13.776
54138SOL    HW264189   6.555  11.243  13.737
54139SOL     OW64190   4.403   2.723   7.276
54139SOL    HW164191   4.373   2.645   7.322
54139SOL    HW264192   4.494   2.734   7.304
54140SOL     OW64193   4.895   5.183  12.340
54140SOL    HW164194   4.927   5.122  12.406
54140SOL    HW264195   4.959   5.177  12.269
54141SOL     OW64196   4.210   0.498  14.731
54141SOL    HW164197   4.303   0.495  14.750
54141SOL    HW264198   4.167   0.489  14.817
54142SOL     OW64199  10.130   0.901   2.555
54142SOL    HW164200  10.123   0.997   2.551
54142SOL    HW264201  10.146   0.883   2.648
54143SOL     OW64202  11.399   7.895   3.338
54143SOL    HW164203  11.447   7.969   3.376
54143SOL    HW264204  11.393   7.915   3.245
54144SOL     OW64205   9.271   8.275   4.776
54144SOL    HW164206   9.240   8.209   4.838
54144SOL    HW264207   9.306   8.225   4.703
54145SOL     OW64208   7.276   4.438   9.656
54145SOL    HW164209   7.203   4.500   9.663
54145SOL    HW264210   7.248   4.375   9.590
54146SOL     OW64211   7.460  13.465   7.943
54146SOL    HW164212   7.456  13.558   7.920
54146SOL    HW264213   7.386  13.452   8.003
54147SOL     OW64214   4.110  11.880   6.277
54147SOL    HW164215   4.194  11.926   6.281
54147SOL    HW264216   4.095  11.865   6.184
54148SOL     OW64217   8.632   8.034  11.080
54148SOL    HW164218   8.622   8.023  10.985
54148SOL    HW264219   8.622   7.945  11.115
54149SOL     OW64220  11.256  11.845   8.720
54149SOL    HW164221  11.297  11.811   8.641
54149SOL    HW264222  11.314  11.816   8.791
54150SOL     OW64223   1.330   8.339   6.209
54150SOL    HW164224   1.251   8.363   6.258
54150SOL    HW264225   1.327   8.243   6.206
54151SOL     OW64226   3.261   9.651  11.331
54151SOL    HW164227   3.263   9.566  11.374
54151SOL    HW264228   3.230   9.711  11.398
54152SOL     OW64229  14.019   4.717   4.856
54152SOL    HW164230  13.956   4.659   4.900
54152SOL    HW264231  14.067   4.758   4.928
54153SOL     OW64232  13.985  10.410  10.998
54153SOL    HW164233  13.891  10.425  10.998
54153SOL    HW264234  13.995  10.315  10.993
54154SOL     OW64235  12.201  11.828   6.550
54154SOL    HW164236  12.180  11.764   6.483
54154SOL    HW264237  12.258  11.891   6.506
54155SOL     OW64238  13.517   5.182   0.503
54155SOL    HW164239  13.554   5.230   0.429
54155SOL    HW264240  13.463   5.113   0.463
54156SOL     OW64241   3.072   8.747  12.011
54156SOL    HW164242   3.129   8.732  11.936
54156SOL    HW264243   3.128   8.731  12.087
54157SOL     OW64244   7.203  11.035   8.293
54157SOL    HW164245   7.261  10.966   8.327
54157SOL    HW264246   7.136  10.988   8.244
54158SOL     OW64247   7.216  10.850   6.814
54158SOL    HW164248   7.300  10.858   6.860
54158SOL    HW264249   7.223  10.910   6.740
54159SOL     OW64250   4.968   2.202  14.351
54159SOL    HW164251   4.995   2.197  14.259
54159SOL    HW264252   5.011   2.127  14.392
54160SOL     OW64253  10.348  11.818   1.103
54160SOL    HW164254  10.344  11.912   1.124
54160SOL    HW264255  10.262  11.784   1.127
54161SOL     OW64256  13.155   1.685   6.019
54161SOL    HW164257  13.078   1.632   6.040
54161SOL    HW264258  13.141   1.714   5.929
54162SOL     OW64259   5.826   3.263   5.468
54162SOL    HW164260   5.896   3.320   5.500
54162SOL    HW264261   5.782   3.233   5.548
54163SOL     OW64262   0.746   6.658   9.874
54163SOL    HW164263   0.699   6.595   9.928
54163SOL    HW264264   0.838   6.636   9.885
54164SOL     OW64265   4.858  10.232   8.509
54164SOL    HW164266   4.911  10.309   8.529
54164SOL    HW264267   4.786  10.267   8.456
54165SOL     OW64268   6.830   7.868   8.641
54165SOL    HW164269   6.905   7.899   8.591
54165SOL    HW264270   6.842   7.773   8.646
54166SOL     OW64271   9.449   7.850   4.894
54166SOL    HW164272   9.465   7.923   4.955
54166SOL    HW264273   9.508   7.781   4.924
54167SOL     OW64274  13.012   2.309   2.908
54167SOL    HW164275  13.076   2.244   2.936
54167SOL    HW264276  12.935   2.258   2.883
54168SOL     OW64277  11.326  11.677   3.819
54168SOL    HW164278  11.281  11.703   3.900
54168SOL    HW264279  11.339  11.583   3.827
54169SOL     OW64280   9.475  13.060   9.341
54169SOL    HW164281   9.471  13.128   9.274
54169SOL    HW264282   9.511  12.984   9.294
54170SOL     OW64283  10.227   2.138   0.507
54170SOL    HW164284  10.276   2.218   0.523
54170SOL    HW264285  10.262   2.075   0.570
54171SOL     OW64286   5.019   4.627   9.940
54171SOL    HW164287   4.971   4.709   9.955
54171SOL    HW264288   5.101   4.655   9.900
54172SOL     OW64289   2.874   9.455   3.006
54172SOL    HW164290   2.938   9.486   3.070
54172SOL    HW264291   2.869   9.526   2.942
54173SOL     OW64292   3.100   4.738   9.308
54173SOL    HW164293   3.104   4.642   9.314
54173SOL    HW264294   3.089   4.756   9.215
54174SOL     OW64295   1.974   0.940   9.105
54174SOL    HW164296   1.879   0.953   9.094
54174SOL    HW264297   2.000   0.890   9.028
54175SOL     OW64298   6.223  10.594   1.047
54175SOL    HW164299   6.281  10.607   0.972
54175SOL    HW264300   6.202  10.683   1.076
54176SOL     OW64301   7.481  12.239   4.312
54176SOL    HW164302   7.525  12.169   4.264
54176SOL    HW264303   7.391  12.207   4.323
54177SOL     OW64304  12.977   9.415   2.811
54177SOL    HW164305  12.931   9.376   2.885
54177SOL    HW264306  12.909   9.463   2.763
54178SOL     OW64307   3.162   3.733   4.890
54178SOL    HW164308   3.151   3.642   4.862
54178SOL    HW264309   3.098   3.744   4.960
54179SOL     OW64310  14.206  14.218   6.183
54179SOL    HW164311  14.219  14.235   6.090
54179SOL    HW264312  14.111  14.216   6.194
54180SOL     OW64313   5.143   4.898   6.519
54180SOL    HW164314   5.197   4.945   6.582
54180SOL    HW264315   5.060   4.944   6.519
54181SOL     OW64316   7.519  13.462   5.273
54181SOL    HW164317   7.605  13.492   5.305
54181SOL    HW264318   7.484  13.537   5.225
54182SOL     OW64319   2.552   1.052  13.475
54182SOL    HW164320   2.609   1.092  13.541
54182SOL    HW264321   2.603   1.056  13.394
54183SOL     OW64322  13.266   6.313   6.822
54183SOL    HW164323  13.328   6.339   6.754
54183SOL    HW264324  13.229   6.395   6.854
54184SOL     OW64325   3.700   4.402   3.162
54184SOL    HW164326   3.761   4.348   3.211
54184SOL    HW264327   3.725   4.492   3.183
54185SOL     OW64328  14.563   4.998   0.381
54185SOL    HW164329  14.652   4.969   0.399
54185SOL    HW264330  14.574   5.085   0.342
54186SOL     OW64331  11.390   0.878   4.697
54186SOL    HW164332  11.477   0.848   4.726
54186SOL    HW264333  11.335   0.867   4.775
54187SOL     OW64334   2.998   8.908  13.001
54187SOL    HW164335   3.042   8.927  12.919
54187SOL    HW264336   2.947   8.829  12.983
54188SOL     OW64337   2.453  13.714   3.182
54188SOL    HW164338   2.488  13.647   3.241
54188SOL    HW264339   2.359  13.717   3.203
54189SOL     OW64340   8.765  10.760   0.396
54189SOL    HW164341   8.756  10.835   0.455
54189SOL    HW264342   8.678  10.722   0.393
54190SOL     OW64343   7.990   9.958   4.548
54190SOL    HW164344   7.905   9.957   4.504
54190SOL    HW264345   8.047   9.905   4.493
54191SOL     OW64346   5.474   1.172   9.379
54191SOL    HW164347   5.480   1.149   9.287
54191SOL    HW264348   5.501   1.093   9.425
54192SOL     OW64349   1.982  14.661   6.068
54192SOL    HW164350   2.035  14.740   6.069
54192SOL    HW264351   1.990  14.627   5.979
54193SOL     OW64352   3.696   2.500  11.463
54193SOL    HW164353   3.622   2.546  11.503
54193SOL    HW264354   3.752   2.476  11.537
54194SOL     OW64355   1.793  11.116  12.132
54194SOL    HW164356   1.835  11.157  12.056
54194SOL    HW264357   1.834  11.030  12.138
54195SOL     OW64358   7.041   3.830  10.842
54195SOL    HW164359   7.128   3.823  10.803
54195SOL    HW264360   6.997   3.897  10.790
54196SOL     OW64361   6.093   6.473   7.987
54196SOL    HW164362   6.149   6.397   7.967
54196SOL    HW264363   6.005   6.437   7.992
54197SOL     OW64364   2.415   9.029   2.959
54197SOL    HW164365   2.326   9.064   2.966
54197SOL    HW264366   2.471   9.107   2.955
54198SOL     OW64367   7.204  13.918   8.974
54198SOL    HW164368   7.178  13.980   9.042
54198SOL    HW264369   7.261  13.968   8.916
54199SOL     OW64370   3.524  10.957   9.255
54199SOL    HW164371   3.509  10.983   9.164
54199SOL    HW264372   3.551  11.037   9.299
54200SOL     OW64373  14.300   5.154  11.061
54200SOL    HW164374  14.298   5.211  11.138
54200SOL    HW264375  14.214   5.167  11.020
54201SOL     OW64376   8.370  10.511  11.890
54201SOL    HW164377   8.392  10.419  11.905
54201SOL    HW264378   8.452  10.558  11.903
54202SOL     OW64379   3.393   5.673  12.687
54202SOL    HW164380   3.312   5.624  12.699
54202SOL    HW264381   3.366   5.755  12.646
54203SOL     OW64382  14.375  11.378   9.100
54203SOL    HW164383  14.324  11.456   9.080
54203SOL    HW264384  14.465  11.410   9.110
54204SOL     OW64385   6.184   5.470   5.132
54204SOL    HW164386   6.108   5.468   5.190
54204SOL    HW264387   6.151   5.440   5.047
54205SOL     OW64388   0.719  11.392  10.159
54205SOL    HW164389   0.633  11.425  10.134
54205SOL    HW264390   0.775  11.469  10.162
54206SOL     OW64391   0.752   3.030  14.424
54206SOL    HW164392   0.711   3.096  14.368
54206SOL    HW264393   0.827   2.998  14.374
54207SOL     OW64394   8.255   0.136   7.328
54207SOL    HW164395   8.333   0.151   7.275
54207SOL    HW264396   8.288   0.125   7.417
54208SOL     OW64397  10.078   2.101   7.847
54208SOL    HW164398  10.108   2.038   7.913
54208SOL    HW264399   9.983   2.093   7.847
54209SOL     OW64400  10.244   3.424   4.127
54209SOL    HW164401  10.193   3.485   4.181
54209SOL    HW264402  10.182   3.354   4.105
54210SOL     OW64403   7.908   2.364   6.647
54210SOL    HW164404   7.877   2.317   6.570
54210SOL    HW264405   7.999   2.337   6.656
54211SOL     OW64406  11.559   6.466   3.536
54211SOL    HW164407  11.480   6.435   3.492
54211SOL    HW264408  11.603   6.520   3.471
54212SOL     OW64409   8.398   6.138   5.117
54212SOL    HW164410   8.370   6.221   5.157
54212SOL    HW264411   8.468   6.163   5.057
54213SOL     OW64412   9.610  10.898   9.633
54213SOL    HW164413   9.561  10.978   9.652
54213SOL    HW264414   9.702  10.926   9.633
54214SOL     OW64415   2.886  13.760   3.325
54214SOL    HW164416   2.814  13.823   3.330
54214SOL    HW264417   2.854  13.693   3.265
54215SOL     OW64418   4.068   8.824   4.453
54215SOL    HW164419   4.030   8.770   4.522
54215SOL    HW264420   4.019   8.906   4.457
54216SOL     OW64421  11.122   9.890   9.442
54216SOL    HW164422  11.210   9.852   9.448
54216SOL    HW264423  11.118   9.952   9.515
54217SOL     OW64424  11.945  12.379  11.459
54217SOL    HW164425  11.955  12.453  11.520
54217SOL    HW264426  11.877  12.325  11.499
54218SOL     OW64427   4.702   2.908   4.411
54218SOL    HW164428   4.759   2.982   4.391
54218SOL    HW264429   4.687   2.913   4.505
54219SOL     OW64430  12.331   2.823   6.742
54219SOL    HW164431  12.269   2.846   6.810
54219SOL    HW264432  12.283   2.836   6.660
54220SOL     OW64433   9.008  11.815  14.617
54220SOL    HW164434   8.978  11.724  14.607
54220SOL    HW264435   9.072  11.812  14.687
54221SOL     OW64436  12.762  14.755   6.809
54221SOL    HW164437  12.802  14.812   6.874
54221SOL    HW264438  12.702  14.812   6.760
54222SOL     OW64439   1.963   6.428   4.518
54222SOL    HW164440   1.916   6.486   4.578
54222SOL    HW264441   2.026   6.382   4.575
54223SOL     OW64442   4.587   6.837   0.290
54223SOL    HW164443   4.674   6.855   0.325
54223SOL    HW264444   4.588   6.743   0.270
54224SOL     OW64445   9.387   7.643  13.344
54224SOL    HW164446   9.358   7.597  13.265
54224SOL    HW264447   9.307   7.680  13.381
54225SOL     OW64448   5.241  14.435   8.140
54225SOL    HW164449   5.253  14.346   8.174
54225SOL    HW264450   5.149  14.438   8.114
54226SOL     OW64451   6.335   2.478   6.931
54226SOL    HW164452   6.266   2.493   6.867
54226SOL    HW264453   6.415   2.467   6.879
54227SOL     OW64454  14.470   0.105   2.274
54227SOL    HW164455  14.435   0.192   2.257
54227SOL    HW264456  14.513   0.079   2.192
54228SOL     OW64457   3.113   1.676   0.006
54228SOL    HW164458   3.095   1.770   0.009
54228SOL    HW264459   3.056   1.643  14.814
54229SOL     OW64460   5.328  13.006  10.677
54229SOL    HW164461   5.366  13.090  10.650
54229SOL    HW264462   5.295  13.022  10.765
54230SOL     OW64463  12.888   2.267   3.531
54230SOL    HW164464  12.860   2.297   3.618
54230SOL    HW264465  12.852   2.179   3.524
54231SOL     OW64466   6.472   0.073   2.319
54231SOL    HW164467   6.467  14.856   2.304
54231SOL    HW264468   6.562   0.088   2.348
54232SOL     OW64469   7.159   2.359   3.325
54232SOL    HW164470   7.232   2.325   3.273
54232SOL    HW264471   7.127   2.284   3.374
54233SOL     OW64472   8.303   7.794   0.110
54233SOL    HW164473   8.273   7.880   0.083
54233SOL    HW264474   8.277   7.786   0.202
54234SOL     OW64475  14.238   4.288  12.286
54234SOL    HW164476  14.236   4.305  12.381
54234SOL    HW264477  14.164   4.339  12.252
54235SOL     OW64478   1.150   4.335   2.357
54235SOL    HW164479   1.137   4.366   2.446
54235SOL    HW264480   1.234   4.371   2.331
54236SOL     OW64481  10.814   1.394   3.307
54236SOL    HW164482  10.760   1.386   3.228
54236SOL    HW264483  10.836   1.304   3.330
54237SOL     OW64484  11.234  14.439  13.320
54237SOL    HW164485  11.221  14.353  13.279
54237SOL    HW264486  11.283  14.489  13.254
54238SOL     OW64487   9.560   5.221  11.506
54238SOL    HW164488   9.550   5.210  11.601
54238SOL    HW264489   9.647   5.186  11.487
54239SOL     OW64490  13.018  14.203   3.991
54239SOL    HW164491  13.010  14.287   3.947
54239SOL    HW264492  13.068  14.222   4.070
54240SOL     OW64493   0.484   5.701   3.296
54240SOL    HW164494   0.480   5.645   3.218
54240SOL    HW264495   0.528   5.647   3.362
54241SOL     OW64496  10.168   2.744   5.176
54241SOL    HW164497  10.191   2.685   5.104
54241SOL    HW264498  10.107   2.693   5.230
54242SOL     OW64499  11.354  12.028  13.182
54242SOL    HW164500  11.443  11.993  13.168
54242SOL    HW264501  11.296  11.953  13.166
54243SOL     OW64502   8.657   1.956   7.954
54243SOL    HW164503   8.605   1.953   8.034
54243SOL    HW264504   8.622   1.885   7.900
54244SOL     OW64505   2.122  14.382   2.381
54244SOL    HW164506   2.171  14.302   2.396
54244SOL    HW264507   2.051  14.356   2.322
54245SOL     OW64508  12.233  12.701   7.495
54245SOL    HW164509  12.240  12.621   7.547
54245SOL    HW264510  12.203  12.768   7.556
54246SOL     OW64511   8.813   2.729  13.342
54246SOL    HW164512   8.799   2.805  13.285
54246SOL    HW264513   8.805   2.763  13.431
54247SOL     OW64514  10.700   6.045   0.193
54247SOL    HW164515  10.626   6.014   0.246
54247SOL    HW264516  10.670   6.035   0.103
54248SOL     OW64517   6.506  12.664  11.657
54248SOL    HW164518   6.484  12.654  11.564
54248SOL    HW264519   6.595  12.631  11.664
54249SOL     OW64520   4.346  10.352   5.284
54249SOL    HW164521   4.394  10.343   5.366
54249SOL    HW264522   4.296  10.433   5.293
54250SOL     OW64523   4.934  13.709   2.305
54250SOL    HW164524   4.981  13.697   2.222
54250SOL    HW264525   4.854  13.756   2.281
54251SOL     OW64526  12.654  10.034  14.329
54251SOL    HW164527  12.681   9.942  14.326
54251SOL    HW264528  12.720  10.077  14.382
54252SOL     OW64529  13.993  11.268   4.225
54252SOL    HW164530  14.072  11.261   4.279
54252SOL    HW264531  14.020  11.239   4.138
54253SOL     OW64532  12.566   8.193   6.222
54253SOL    HW164533  12.488   8.224   6.176
54253SOL    HW264534  12.631   8.181   6.153
54254SOL     OW64535   2.560   7.861   5.921
54254SOL    HW164536   2.529   7.846   5.832
54254SOL    HW264537   2.616   7.785   5.940
54255SOL     OW64538  13.529   1.167   1.160
54255SOL    HW164539  13.481   1.126   1.231
54255SOL    HW264540  13.557   1.094   1.105
54256SOL     OW64541   6.849   8.910   1.250
54256SOL    HW164542   6.768   8.859   1.254
54256SOL    HW264543   6.903   8.864   1.185
54257SOL     OW64544   1.851   9.882  10.987
54257SOL    HW164545   1.875   9.830  10.911
54257SOL    HW264546   1.767   9.847  11.015
54258SOL     OW64547   3.530  12.169   8.153
54258SOL    HW164548   3.625  12.174   8.146
54258SOL    HW264549   3.512  12.082   8.189
54259SOL     OW64550  14.681  14.423   9.005
54259SOL    HW164551  14.754  14.372   8.969
54259SOL    HW264552  14.675  14.394   9.096
54260SOL     OW64553  11.658  13.649   4.097
54260SOL    HW164554  11.653  13.744   4.102
54260SOL    HW264555  11.747  13.627   4.127
54261SOL     OW64556   4.544   0.822   4.906
54261SOL    HW164557   4.558   0.887   4.837
54261SOL    HW264558   4.453   0.794   4.893
54262SOL     OW64559   0.031  13.844   3.723
54262SOL    HW164560   0.014  13.758   3.760
54262SOL    HW264561  14.863  13.844   3.639
54263SOL     OW64562   7.992  10.006   3.750
54263SOL    HW164563   8.059   9.939   3.764
54263SOL    HW264564   7.914   9.958   3.724
54264SOL     OW64565  10.064   8.484  11.128
54264SOL    HW164566   9.996   8.550  11.144
54264SOL    HW264567  10.099   8.464  11.214
54265SOL     OW64568  13.339   2.360   3.921
54265SOL    HW164569  13.304   2.274   3.901
54265SOL    HW264570  13.426   2.343   3.959
54266SOL     OW64571   4.149   2.606   3.273
54266SOL    HW164572   4.210   2.659   3.222
54266SOL    HW264573   4.198   2.526   3.293
54267SOL     OW64574   1.801   2.518   5.571
54267SOL    HW164575   1.716   2.527   5.527
54267SOL    HW264576   1.844   2.446   5.525
54268SOL     OW64577   3.947   8.796   5.807
54268SOL    HW164578   3.871   8.813   5.863
54268SOL    HW264579   4.022   8.815   5.862
54269SOL     OW64580  10.965   9.393   8.578
54269SOL    HW164581  11.027   9.397   8.650
54269SOL    HW264582  11.017   9.415   8.500
54270SOL     OW64583  13.676  10.242   7.876
54270SOL    HW164584  13.754  10.269   7.829
54270SOL    HW264585  13.648  10.161   7.834
54271SOL     OW64586  14.368   7.129   1.691
54271SOL    HW164587  14.386   7.047   1.645
54271SOL    HW264588  14.290   7.110   1.743
54272SOL     OW64589   5.669  11.988  11.602
54272SOL    HW164590   5.758  11.986  11.637
54272SOL    HW264591   5.674  12.044  11.525
54273SOL     OW64592  12.547   7.026  14.118
54273SOL    HW164593  12.505   7.110  14.105
54273SOL    HW264594  12.612   7.042  14.186
54274SOL     OW64595   2.207  10.667   8.906
54274SOL    HW164596   2.200  10.685   9.000
54274SOL    HW264597   2.288  10.617   8.898
54275SOL     OW64598   9.826  11.793   1.763
54275SOL    HW164599   9.803  11.885   1.746
54275SOL    HW264600   9.890  11.798   1.834
54276SOL     OW64601  14.748   6.120  13.312
54276SOL    HW164602  14.764   6.040  13.361
54276SOL    HW264603  14.653   6.124  13.303
54277SOL     OW64604  14.506  10.625  14.648
54277SOL    HW164605  14.567  10.591  14.583
54277SOL    HW264606  14.509  10.563  14.720
54278SOL     OW64607  12.545   9.582   2.341
54278SOL    HW164608  12.534   9.635   2.263
54278SOL    HW264609  12.595   9.506   2.312
54279SOL     OW64610   0.602   2.210   4.021
54279SOL    HW164611   0.595   2.238   3.930
54279SOL    HW264612   0.695   2.189   4.032
54280SOL     OW64613   7.178   4.239   4.370
54280SOL    HW164614   7.206   4.165   4.316
54280SOL    HW264615   7.082   4.234   4.369
54281SOL     OW64616  12.897   9.302   9.677
54281SOL    HW164617  12.954   9.249   9.621
54281SOL    HW264618  12.942   9.303   9.762
54282SOL     OW64619  12.207   5.467   1.238
54282SOL    HW164620  12.270   5.481   1.308
54282SOL    HW264621  12.257   5.423   1.169
54283SOL     OW64622   0.057   0.816   4.304
54283SOL    HW164623   0.070   0.903   4.343
54283SOL    HW264624   0.130   0.806   4.243
54284SOL     OW64625  12.375   6.444   0.818
54284SOL    HW164626  12.281   6.427   0.824
54284SOL    HW264627  12.414   6.358   0.800
54285SOL     OW64628  10.684  10.748   3.302
54285SOL    HW164629  10.609  10.773   3.356
54285SOL    HW264630  10.739  10.826   3.301
54286SOL     OW64631   6.378   0.785  10.704
54286SOL    HW164632   6.343   0.728  10.636
54286SOL    HW264633   6.439   0.730  10.752
54287SOL     OW64634  10.610   2.881   0.675
54287SOL    HW164635  10.600   2.856   0.767
54287SOL    HW264636  10.695   2.924   0.670
54288SOL     OW64637   8.806   3.205  12.416
54288SOL    HW164638   8.801   3.150  12.338
54288SOL    HW264639   8.847   3.150  12.482
54289SOL     OW64640   0.526   1.558   7.021
54289SOL    HW164641   0.447   1.524   6.977
54289SOL    HW264642   0.492   1.611   7.093
54290SOL     OW64643   9.493   3.617  11.667
54290SOL    HW164644   9.404   3.647  11.652
54290SOL    HW264645   9.500   3.609  11.762
54291SOL     OW64646  12.411  14.588  11.826
54291SOL    HW164647  12.344  14.637  11.873
54291SOL    HW264648  12.490  14.599  11.878
54292SOL     OW64649   2.585   3.714   5.738
54292SOL    HW164650   2.629   3.664   5.669
54292SOL    HW264651   2.504   3.666   5.754
54293SOL     OW64652  10.400  13.375  14.438
54293SOL    HW164653  10.410  13.339  14.526
54293SOL    HW264654  10.477  13.343  14.390
54294SOL     OW64655   9.353   7.721   2.988
54294SOL    HW164656   9.269   7.718   2.943
54294SOL    HW264657   9.418   7.699   2.921
54295SOL     OW64658   0.613   5.360   7.994
54295SOL    HW164659   0.535   5.329   8.039
54295SOL    HW264660   0.626   5.449   8.027
54296SOL     OW64661   5.504   2.753  14.443
54296SOL    HW164662   5.565   2.727  14.374
54296SOL    HW264663   5.467   2.835  14.412
54297SOL     OW64664   7.263   6.711   8.455
54297SOL    HW164665   7.191   6.700   8.393
54297SOL    HW264666   7.268   6.627   8.501
54298SOL     OW64667   0.772   6.989  11.479
54298SOL    HW164668   0.748   7.082  11.473
54298SOL    HW264669   0.693   6.946  11.509
54299SOL     OW64670   8.177   2.207   8.265
54299SOL    HW164671   8.252   2.267   8.264
54299SOL    HW264672   8.104   2.260   8.297
54300SOL     OW64673  10.560  11.906  13.660
54300SOL    HW164674  10.558  11.846  13.586
54300SOL    HW264675  10.575  11.850  13.736
54301SOL     OW64676   7.578   0.493  14.799
54301SOL    HW164677   7.593   0.587  14.804
54301SOL    HW264678   7.598   0.460   0.009
54302SOL     OW64679  10.998   6.427  11.950
54302SOL    HW164680  11.062   6.495  11.969
54302SOL    HW264681  11.018   6.400  11.860
54303SOL     OW64682  10.706   5.252  12.130
54303SOL    HW164683  10.639   5.208  12.078
54303SOL    HW264684  10.694   5.345  12.110
54304SOL     OW64685   6.819   0.848  11.718
54304SOL    HW164686   6.856   0.887  11.639
54304SOL    HW264687   6.891   0.795  11.754
54305SOL     OW64688   3.528  11.882   2.992
54305SOL    HW164689   3.598  11.904   3.053
54305SOL    HW264690   3.452  11.866   3.048
54306SOL     OW64691  10.316   6.348   8.952
54306SOL    HW164692  10.404   6.342   8.916
54306SOL    HW264693  10.270   6.408   8.892
54307SOL     OW64694   1.609  14.752   5.707
54307SOL    HW164695   1.612  14.841   5.672
54307SOL    HW264696   1.566  14.701   5.639
54308SOL     OW64697   6.625   7.553   4.051
54308SOL    HW164698   6.634   7.608   3.973
54308SOL    HW264699   6.606   7.466   4.017
54309SOL     OW64700   7.317  13.327  11.010
54309SOL    HW164701   7.264  13.367  11.078
54309SOL    HW264702   7.403  13.367  11.020
54310SOL     OW64703  11.904   2.746  13.768
54310SOL    HW164704  11.820   2.729  13.811
54310SOL    HW264705  11.902   2.690  13.690
54311SOL     OW64706  13.962   3.117  13.049
54311SOL    HW164707  13.899   3.167  13.101
54311SOL    HW264708  13.948   3.026  13.076
54312SOL     OW64709   0.990  10.225  10.497
54312SOL    HW164710   0.977  10.134  10.521
54312SOL    HW264711   1.054  10.223  10.426
54313SOL     OW64712   5.717   9.181   3.291
54313SOL    HW164713   5.704   9.136   3.374
54313SOL    HW264714   5.802   9.224   3.300
54314SOL     OW64715   7.019  13.069   7.215
54314SOL    HW164716   6.976  13.038   7.295
54314SOL    HW264717   7.109  13.036   7.222
54315SOL     OW64718  13.089  13.953   0.458
54315SOL    HW164719  13.121  14.043   0.459
54315SOL    HW264720  12.994  13.961   0.447
54316SOL     OW64721  14.788   6.846   7.084
54316SOL    HW164722  14.872   6.799   7.081
54316SOL    HW264723  14.724   6.783   7.050
54317SOL     OW64724   7.244  11.161  11.986
54317SOL    HW164725   7.335  11.157  11.955
54317SOL    HW264726   7.242  11.237  12.044
54318SOL     OW64727   8.397   7.122   7.232
54318SOL    HW164728   8.476   7.155   7.276
54318SOL    HW264729   8.428   7.046   7.183
54319SOL     OW64730  13.474   7.564   3.055
54319SOL    HW164731  13.386   7.598   3.072
54319SOL    HW264732  13.530   7.641   3.053
54320SOL     OW64733   5.077   6.881   2.413
54320SOL    HW164734   4.985   6.882   2.439
54320SOL    HW264735   5.111   6.966   2.441
54321SOL     OW64736   5.276  14.558  12.681
54321SOL    HW164737   5.300  14.634  12.734
54321SOL    HW264738   5.235  14.596  12.603
54322SOL     OW64739  10.144   8.220  11.982
54322SOL    HW164740  10.170   8.129  11.971
54322SOL    HW264741  10.216   8.270  11.944
54323SOL     OW64742  14.773   4.369   8.170
54323SOL    HW164743  14.780   4.448   8.223
54323SOL    HW264744  14.829   4.305   8.215
54324SOL     OW64745   1.440   0.229   1.298
54324SOL    HW164746   1.445   0.152   1.241
54324SOL    HW264747   1.456   0.195   1.386
54325SOL     OW64748  10.092   9.715  12.117
54325SOL    HW164749  10.145   9.737  12.040
54325SOL    HW264750  10.022   9.660  12.083
54326SOL     OW64751   6.090   9.700   7.539
54326SOL    HW164752   6.076   9.705   7.444
54326SOL    HW264753   6.154   9.629   7.550
54327SOL     OW64754   6.183   6.672   8.226
54327SOL    HW164755   6.222   6.588   8.202
54327SOL    HW264756   6.247   6.737   8.197
54328SOL     OW64757   1.136   0.848   9.284
54328SOL    HW164758   1.077   0.800   9.341
54328SOL    HW264759   1.098   0.935   9.278
54329SOL     OW64760   3.712   8.770   6.593
54329SOL    HW164761   3.777   8.790   6.526
54329SOL    HW264762   3.656   8.847   6.595
54330SOL     OW64763   7.243   5.264  13.646
54330SOL    HW164764   7.167   5.271  13.588
54330SOL    HW264765   7.311   5.225  13.591
54331SOL     OW64766  13.871   9.898  12.853
54331SOL    HW164767  13.958   9.921  12.887
54331SOL    HW264768  13.888   9.825  12.793
54332SOL     OW64769   3.466  10.299   6.222
54332SOL    HW164770   3.484  10.217   6.175
54332SOL    HW264771   3.541  10.310   6.280
54333SOL     OW64772   7.929   9.675  11.241
54333SOL    HW164773   7.943   9.757  11.289
54333SOL    HW264774   7.840   9.682  11.207
54334SOL     OW64775   0.659   4.466  10.735
54334SOL    HW164776   0.569   4.441  10.713
54334SOL    HW264777   0.704   4.383  10.749
54335SOL     OW64778  12.448  12.064   7.036
54335SOL    HW164779  12.505  12.141   7.047
54335SOL    HW264780  12.359  12.100   7.036
54336SOL     OW64781  12.240   6.163   2.203
54336SOL    HW164782  12.311   6.205   2.154
54336SOL    HW264783  12.281   6.133   2.284
54337SOL     OW64784  11.239  12.017   7.607
54337SOL    HW164785  11.145  12.014   7.593
54337SOL    HW264786  11.273  12.066   7.533
54338SOL     OW64787   5.695   3.504   5.108
54338SOL    HW164788   5.745   3.537   5.034
54338SOL    HW264789   5.724   3.413   5.118
54339SOL     OW64790   7.714   5.957  13.246
54339SOL    HW164791   7.625   5.939  13.214
54339SOL    HW264792   7.727   6.050  13.231
54340SOL     OW64793  11.363   4.535   7.545
54340SOL    HW164794  11.376   4.441   7.557
54340SOL    HW264795  11.323   4.543   7.458
54341SOL     OW64796  11.613  11.350   1.079
54341SOL    HW164797  11.536  11.302   1.047
54341SOL    HW264798  11.649  11.391   1.000
54342SOL     OW64799   6.167   4.866   0.945
54342SOL    HW164800   6.248   4.818   0.932
54342SOL    HW264801   6.138   4.889   0.857
54343SOL     OW64802   6.140   4.344   1.311
54343SOL    HW164803   6.162   4.263   1.265
54343SOL    HW264804   6.111   4.403   1.241
54344SOL     OW64805   3.283   5.612   4.019
54344SOL    HW164806   3.322   5.566   3.944
54344SOL    HW264807   3.289   5.705   3.996
54345SOL     OW64808   8.532  11.246   6.936
54345SOL    HW164809   8.532  11.279   7.025
54345SOL    HW264810   8.544  11.324   6.881
54346SOL     OW64811   3.914   7.713  14.400
54346SOL    HW164812   3.924   7.623  14.430
54346SOL    HW264813   3.963   7.717  14.318
54347SOL     OW64814   2.501   6.898  11.159
54347SOL    HW164815   2.595   6.916  11.157
54347SOL    HW264816   2.492   6.814  11.114
54348SOL     OW64817   8.141  11.606  13.105
54348SOL    HW164818   8.076  11.627  13.172
54348SOL    HW264819   8.217  11.575  13.154
54349SOL     OW64820   2.306  12.056   2.630
54349SOL    HW164821   2.319  12.151   2.632
54349SOL    HW264822   2.215  12.045   2.602
54350SOL     OW64823  12.505  11.248   5.921
54350SOL    HW164824  12.426  11.234   5.972
54350SOL    HW264825  12.515  11.169   5.869
54351SOL     OW64826   8.108  12.891  11.815
54351SOL    HW164827   8.182  12.894  11.875
54351SOL    HW264828   8.069  12.978  11.822
54352SOL     OW64829  14.215   3.437   5.804
54352SOL    HW164830  14.293   3.485   5.775
54352SOL    HW264831  14.226   3.428   5.898
54353SOL     OW64832  12.070   7.747  13.044
54353SOL    HW164833  12.003   7.816  13.041
54353SOL    HW264834  12.087   7.727  12.952
54354SOL     OW64835   7.176   6.321  12.580
54354SOL    HW164836   7.152   6.410  12.555
54354SOL    HW264837   7.230   6.332  12.658
54355SOL     OW64838   8.110  10.151   7.589
54355SOL    HW164839   8.041  10.133   7.524
54355SOL    HW264840   8.063  10.156   7.672
54356SOL     OW64841  11.691   0.735  11.927
54356SOL    HW164842  11.700   0.790  12.004
54356SOL    HW264843  11.599   0.710  11.926
54357SOL     OW64844   9.013   4.846   9.356
54357SOL    HW164845   9.077   4.777   9.374
54357SOL    HW264846   9.045   4.921   9.406
54358SOL     OW64847   4.875   0.640   9.992
54358SOL    HW164848   4.880   0.724   9.948
54358SOL    HW264849   4.813   0.653  10.064
54359SOL     OW64850  10.186   0.425   5.488
54359SOL    HW164851  10.205   0.355   5.425
54359SOL    HW264852  10.094   0.447   5.472
54360SOL     OW64853   9.931   9.477   6.293
54360SOL    HW164854   9.980   9.532   6.232
54360SOL    HW264855   9.927   9.392   6.250
54361SOL     OW64856   6.470  13.226   6.430
54361SOL    HW164857   6.552  13.187   6.400
54361SOL    HW264858   6.438  13.167   6.498
54362SOL     OW64859   4.555   0.644  13.645
54362SOL    HW164860   4.513   0.567  13.684
54362SOL    HW264861   4.601   0.686  13.717
54363SOL     OW64862   7.665   2.355  13.404
54363SOL    HW164863   7.699   2.270  13.430
54363SOL    HW264864   7.659   2.405  13.485
54364SOL     OW64865   9.165   0.040  14.874
54364SOL    HW164866   9.099  14.853   0.021
54364SOL    HW264867   9.159   0.045  14.778
54365SOL     OW64868   8.869  13.826   7.037
54365SOL    HW164869   8.811  13.779   7.097
54365SOL    HW264870   8.953  13.779   7.043
54366SOL     OW64871   5.355   6.958   6.838
54366SOL    HW164872   5.436   6.990   6.876
54366SOL    HW264873   5.313   6.907   6.908
54367SOL     OW64874   8.597   2.542   6.079
54367SOL    HW164875   8.642   2.507   6.002
54367SOL    HW264876   8.646   2.622   6.101
54368SOL     OW64877  13.936   6.943   2.198
54368SOL    HW164878  13.851   6.917   2.235
54368SOL    HW264879  13.923   6.937   2.103
54369SOL     OW64880  14.380   2.881   0.542
54369SOL    HW164881  14.424   2.796   0.529
54369SOL    HW264882  14.447   2.946   0.523
54370SOL     OW64883  10.038   6.391  14.847
54370SOL    HW164884  10.069   6.400  14.757
54370SOL    HW264885   9.983   6.467  14.862
54371SOL     OW64886   0.767   9.179  12.096
54371SOL    HW164887   0.771   9.264  12.140
54371SOL    HW264888   0.845   9.132  12.126
54372SOL     OW64889   3.849   0.389   3.751
54372SOL    HW164890   3.785   0.317   3.754
54372SOL    HW264891   3.919   0.361   3.810
54373SOL     OW64892   5.473  11.192   0.839
54373SOL    HW164893   5.421  11.269   0.817
54373SOL    HW264894   5.409  11.125   0.863
54374SOL     OW64895   2.737   0.950   1.086
54374SOL    HW164896   2.714   0.865   1.124
54374SOL    HW264897   2.693   1.014   1.142
54375SOL     OW64898   5.833   7.285  12.463
54375SOL    HW164899   5.846   7.237  12.545
54375SOL    HW264900   5.865   7.225  12.395
54376SOL     OW64901   0.868   0.631   6.719
54376SOL    HW164902   0.944   0.689   6.711
54376SOL    HW264903   0.870   0.601   6.810
54377SOL     OW64904  10.903   7.522  14.399
54377SOL    HW164905  10.914   7.471  14.479
54377SOL    HW264906  10.862   7.604  14.429
54378SOL     OW64907  10.060  12.499  11.869
54378SOL    HW164908  10.044  12.515  11.962
54378SOL    HW264909  10.065  12.404  11.861
54379SOL     OW64910  10.694   7.151  10.410
54379SOL    HW164911  10.619   7.162  10.467
54379SOL    HW264912  10.768   7.183  10.461
54380SOL     OW64913   3.405   9.444   9.977
54380SOL    HW164914   3.467   9.405  10.039
54380SOL    HW264915   3.451   9.443   9.893
54381SOL     OW64916  13.283   6.849   9.068
54381SOL    HW164917  13.332   6.894   9.137
54381SOL    HW264918  13.348   6.833   9.000
54382SOL     OW64919  14.190   7.229   7.772
54382SOL    HW164920  14.167   7.140   7.744
54382SOL    HW264921  14.111   7.280   7.757
54383SOL     OW64922   7.244   6.992   0.461
54383SOL    HW164923   7.302   7.058   0.423
54383SOL    HW264924   7.185   7.041   0.517
54384SOL     OW64925   0.541  12.320   3.123
54384SOL    HW164926   0.584  12.358   3.046
54384SOL    HW264927   0.512  12.233   3.093
54385SOL     OW64928   2.972  13.744   5.116
54385SOL    HW164929   3.039  13.807   5.091
54385SOL    HW264930   2.998  13.662   5.074
54386SOL     OW64931   4.801   2.012  13.426
54386SOL    HW164932   4.739   2.006  13.353
54386SOL    HW264933   4.746   2.015  13.504
54387SOL     OW64934  14.694   0.892   3.071
54387SOL    HW164935  14.684   0.985   3.052
54387SOL    HW264936  14.608   0.865   3.104
54388SOL     OW64937   0.200   5.169   0.407
54388SOL    HW164938   0.122   5.131   0.449
54388SOL    HW264939   0.173   5.187   0.318
54389SOL     OW64940   6.886   4.222   1.736
54389SOL    HW164941   6.961   4.249   1.790
54389SOL    HW264942   6.823   4.185   1.798
54390SOL     OW64943   6.599   4.104  12.507
54390SOL    HW164944   6.647   4.022  12.496
54390SOL    HW264945   6.585   4.112  12.601
54391SOL     OW64946   6.966   6.860   6.831
54391SOL    HW164947   6.884   6.848   6.880
54391SOL    HW264948   7.031   6.809   6.879
54392SOL     OW64949   6.883   0.350   9.823
54392SOL    HW164950   6.892   0.270   9.874
54392SOL    HW264951   6.946   0.341   9.752
54393SOL     OW64952  12.236   1.131   3.306
54393SOL    HW164953  12.299   1.128   3.378
54393SOL    HW264954  12.176   1.202   3.329
54394SOL     OW64955   1.434   4.347   9.517
54394SOL    HW164956   1.374   4.406   9.564
54394SOL    HW264957   1.400   4.345   9.428
54395SOL     OW64958  14.349   7.923   1.175
54395SOL    HW164959  14.266   7.965   1.150
54395SOL    HW264960  14.391   7.901   1.092
54396SOL     OW64961   8.610   3.855  10.104
54396SOL    HW164962   8.613   3.935  10.156
54396SOL    HW264963   8.519   3.826  10.109
54397SOL     OW64964  13.646   2.702   0.129
54397SOL    HW164965  13.706   2.690   0.203
54397SOL    HW264966  13.564   2.662   0.158
54398SOL     OW64967   8.636  14.722   3.079
54398SOL    HW164968   8.651  14.711   2.985
54398SOL    HW264969   8.659  14.813   3.096
54399SOL     OW64970  10.781   9.542   4.532
54399SOL    HW164971  10.820   9.454   4.537
54399SOL    HW264972  10.696   9.527   4.492
54400SOL     OW64973   7.868   7.238  11.544
54400SOL    HW164974   7.842   7.287  11.466
54400SOL    HW264975   7.964   7.241  11.544
54401SOL     OW64976  12.713  12.719   4.469
54401SOL    HW164977  12.658  12.663   4.415
54401SOL    HW264978  12.722  12.800   4.420
54402SOL     OW64979   3.554   3.999  11.948
54402SOL    HW164980   3.615   3.969  12.015
54402SOL    HW264981   3.596   4.076  11.910
54403SOL     OW64982   8.857   2.250  13.603
54403SOL    HW164983   8.946   2.239  13.635
54403SOL    HW264984   8.824   2.328  13.649
54404SOL     OW64985  11.148   2.179   4.152
54404SOL    HW164986  11.143   2.090   4.188
54404SOL    HW264987  11.079   2.227   4.198
54405SOL     OW64988   6.999   7.201  10.958
54405SOL    HW164989   6.976   7.231  10.870
54405SOL    HW264990   6.919   7.214  11.009
54406SOL     OW64991   7.592  13.229   4.564
54406SOL    HW164992   7.563  13.167   4.631
54406SOL    HW264993   7.514  13.281   4.545
54407SOL     OW64994  13.215   8.586   2.600
54407SOL    HW164995  13.149   8.577   2.668
54407SOL    HW264996  13.180   8.653   2.541
54408SOL     OW64997  14.712   8.510  11.918
54408SOL    HW164998  14.618   8.508  11.896
54408SOL    HW264999  14.721   8.447  11.989
54409SOL     OW65000  11.226  11.547   7.045
54409SOL    HW165001  11.224  11.523   6.952
54409SOL    HW265002  11.299  11.607   7.052
54410SOL     OW65003   7.024   2.557  13.490
54410SOL    HW165004   7.050   2.649  13.501
54410SOL    HW265005   7.016   2.545  13.396
54411SOL     OW65006   3.393   4.648   7.741
54411SOL    HW165007   3.379   4.559   7.775
54411SOL    HW265008   3.448   4.690   7.807
54412SOL     OW65009  14.064   5.371   4.020
54412SOL    HW165010  14.157   5.351   4.036
54412SOL    HW265011  14.043   5.323   3.940
54413SOL     OW65012  10.751   8.407  13.782
54413SOL    HW165013  10.799   8.341  13.732
54413SOL    HW265014  10.781   8.395  13.872
54414SOL     OW65015   8.040   2.229   7.961
54414SOL    HW165016   7.985   2.300   7.995
54414SOL    HW265017   8.028   2.233   7.867
54415SOL     OW65018   0.365   0.449   3.943
54415SOL    HW165019   0.398   0.415   3.859
54415SOL    HW265020   0.286   0.496   3.921
54416SOL     OW65021  11.527   8.673  12.698
54416SOL    HW165022  11.558   8.699  12.611
54416SOL    HW265023  11.513   8.756  12.744
54417SOL     OW65024  13.749   6.507   3.297
54417SOL    HW165025  13.688   6.523   3.369
54417SOL    HW265026  13.834   6.534   3.331
54418SOL     OW65027   8.599  12.008  12.960
54418SOL    HW165028   8.520  11.988  12.910
54418SOL    HW265029   8.662  12.037  12.895
54419SOL     OW65030   4.744  12.996  11.633
54419SOL    HW165031   4.794  13.076  11.653
54419SOL    HW265032   4.811  12.931  11.610
54420SOL     OW65033  11.254  12.831   7.911
54420SOL    HW165034  11.201  12.778   7.850
54420SOL    HW265035  11.190  12.878   7.963
54421SOL     OW65036   6.715   6.227   2.768
54421SOL    HW165037   6.642   6.290   2.764
54421SOL    HW265038   6.762   6.251   2.848
54422SOL     OW65039   4.359  14.797  12.335
54422SOL    HW165040   4.311  14.876  12.360
54422SOL    HW265041   4.292  14.741  12.295
54423SOL     OW65042   4.252   7.546  14.281
54423SOL    HW165043   4.194   7.616  14.249
54423SOL    HW265044   4.276   7.497  14.203
54424SOL     OW65045   0.932   2.392  10.085
54424SOL    HW165046   0.965   2.434  10.006
54424SOL    HW265047   0.837   2.394  10.076
54425SOL     OW65048   3.544  11.516   3.297
54425SOL    HW165049   3.526  11.606   3.324
54425SOL    HW265050   3.475  11.464   3.337
54426SOL     OW65051  13.527  13.155   7.849
54426SOL    HW165052  13.472  13.083   7.879
54426SOL    HW265053  13.615  13.132   7.877
54427SOL     OW65054   5.273  12.441   4.600
54427SOL    HW165055   5.194  12.390   4.618
54427SOL    HW265056   5.245  12.506   4.536
54428SOL     OW65057   8.396   0.054  13.795
54428SOL    HW165058   8.386   0.148  13.778
54428SOL    HW265059   8.461   0.025  13.731
54429SOL     OW65060   6.683   6.349   7.066
54429SOL    HW165061   6.614   6.416   7.064
54429SOL    HW265062   6.737   6.368   6.988
54430SOL     OW65063   4.057   3.498   6.024
54430SOL    HW165064   4.000   3.495   6.100
54430SOL    HW265065   4.128   3.557   6.049
54431SOL     OW65066   7.984   8.037   5.116
54431SOL    HW165067   8.046   8.110   5.117
54431SOL    HW265068   7.899   8.078   5.130
54432SOL     OW65069   1.390  13.954  10.005
54432SOL    HW165070   1.329  14.026   9.993
54432SOL    HW265071   1.388  13.906   9.921
54433SOL     OW65072   8.138  13.085   6.456
54433SOL    HW165073   8.049  13.049   6.460
54433SOL    HW265074   8.126  13.178   6.471
54434SOL     OW65075   2.743   5.389  11.129
54434SOL    HW165076   2.793   5.309  11.115
54434SOL    HW265077   2.654   5.368  11.099
54435SOL     OW65078  11.885   6.723  10.746
54435SOL    HW165079  11.822   6.661  10.708
54435SOL    HW265080  11.842   6.808  10.739
54436SOL     OW65081  10.343   7.815   2.377
54436SOL    HW165082  10.388   7.897   2.398
54436SOL    HW265083  10.345   7.765   2.458
54437SOL     OW65084   8.850  13.215  14.032
54437SOL    HW165085   8.920  13.201  14.095
54437SOL    HW265086   8.822  13.127  14.006
54438SOL     OW65087  12.897   6.306  14.006
54438SOL    HW165088  12.863   6.385  13.964
54438SOL    HW265089  12.934   6.337  14.088
54439SOL     OW65090  11.354  12.914   1.983
54439SOL    HW165091  11.296  12.850   1.942
54439SOL    HW265092  11.431  12.918   1.926
54440SOL     OW65093   8.100   9.098  10.461
54440SOL    HW165094   8.155   9.153  10.405
54440SOL    HW265095   8.081   9.153  10.537
54441SOL     OW65096   6.260   7.032  10.148
54441SOL    HW165097   6.203   7.082  10.088
54441SOL    HW265098   6.346   7.037  10.108
54442SOL     OW65099   3.807   1.625  13.559
54442SOL    HW165100   3.744   1.655  13.625
54442SOL    HW265101   3.883   1.681  13.571
54443SOL     OW65102   0.150   1.456   6.110
54443SOL    HW165103   0.167   1.510   6.032
54443SOL    HW265104   0.219   1.390   6.109
54444SOL     OW65105   7.772  10.519  11.133
54444SOL    HW165106   7.706  10.535  11.201
54444SOL    HW265107   7.850  10.492  11.182
54445SOL     OW65108   5.518  13.394   1.877
54445SOL    HW165109   5.598  13.447   1.873
54445SOL    HW265110   5.452  13.454   1.912
54446SOL     OW65111   5.168  14.089   5.643
54446SOL    HW165112   5.174  14.056   5.553
54446SOL    HW265113   5.145  14.012   5.695
54447SOL     OW65114  14.579   7.707   8.764
54447SOL    HW165115  14.562   7.624   8.720
54447SOL    HW265116  14.549   7.693   8.854
54448SOL     OW65117   8.060  13.206  10.369
54448SOL    HW165118   7.990  13.146  10.395
54448SOL    HW265119   8.021  13.260  10.300
54449SOL     OW65120   4.538   1.889  14.668
54449SOL    HW165121   4.528   1.968  14.722
54449SOL    HW265122   4.629   1.891  14.639
54450SOL     OW65123  14.306   0.110   9.178
54450SOL    HW165124  14.396   0.142   9.185
54450SOL    HW265125  14.257   0.166   9.239
54451SOL     OW65126   1.794  14.856  10.024
54451SOL    HW165127   1.717  14.874  10.078
54451SOL    HW265128   1.859   0.043  10.053
54452SOL     OW65129   7.689  11.898   9.734
54452SOL    HW165130   7.641  11.818   9.712
54452SOL    HW265131   7.774  11.868   9.764
54453SOL     OW65132   9.503   9.016   1.641
54453SOL    HW165133   9.565   8.947   1.668
54453SOL    HW265134   9.554   9.097   1.645
54454SOL     OW65135  10.457   7.783   2.139
54454SOL    HW165136  10.395   7.713   2.117
54454SOL    HW265137  10.446   7.796   2.234
54455SOL     OW65138  13.548  12.006   9.445
54455SOL    HW165139  13.637  11.987   9.416
54455SOL    HW265140  13.492  11.966   9.378
54456SOL     OW65141  10.851   0.716   8.809
54456SOL    HW165142  10.861   0.741   8.901
54456SOL    HW265143  10.855   0.621   8.809
54457SOL     OW65144  11.183   8.540   7.354
54457SOL    HW165145  11.180   8.445   7.365
54457SOL    HW265146  11.101   8.562   7.310
54458SOL     OW65147   2.828   2.479  13.699
54458SOL    HW165148   2.868   2.531  13.769
54458SOL    HW265149   2.735   2.476  13.723
54459SOL     OW65150  10.695   1.441   5.784
54459SOL    HW165151  10.756   1.514   5.788
54459SOL    HW265152  10.667   1.427   5.874
54460SOL     OW65153   8.048   5.123   3.621
54460SOL    HW165154   7.954   5.118   3.606
54460SOL    HW265155   8.058   5.156   3.710
54461SOL     OW65156  12.712   4.369  11.537
54461SOL    HW165157  12.719   4.338  11.627
54461SOL    HW265158  12.668   4.454  11.543
54462SOL     OW65159  11.150   3.146  10.271
54462SOL    HW165160  11.168   3.240  10.269
54462SOL    HW265161  11.152   3.119  10.179
54463SOL     OW65162  10.038  12.629  13.440
54463SOL    HW165163  10.102  12.622  13.510
54463SOL    HW265164   9.992  12.711  13.457
54464SOL     OW65165  10.902  12.485   2.171
54464SOL    HW165166  10.863  12.461   2.087
54464SOL    HW265167  10.867  12.421   2.233
54465SOL     OW65168   4.815   4.536  13.123
54465SOL    HW165169   4.844   4.445  13.122
54465SOL    HW265170   4.811   4.559  13.216
54466SOL     OW65171   4.930   5.878   0.020
54466SOL    HW165172   4.873   5.804   0.038
54466SOL    HW265173   4.997   5.843  14.838
54467SOL     OW65174   5.951   9.596  10.426
54467SOL    HW165175   5.893   9.607  10.502
54467SOL    HW265176   5.954   9.502  10.411
54468SOL     OW65177   5.793   2.884   0.370
54468SOL    HW165178   5.704   2.893   0.405
54468SOL    HW265179   5.820   2.974   0.350
54469SOL     OW65180  11.114  10.157   3.856
54469SOL    HW165181  11.127  10.229   3.796
54469SOL    HW265182  11.023  10.129   3.842
54470SOL     OW65183   3.751   5.743   6.745
54470SOL    HW165184   3.679   5.789   6.702
54470SOL    HW265185   3.782   5.680   6.680
54471SOL     OW65186   5.186  14.003   6.081
54471SOL    HW165187   5.214  14.063   6.151
54471SOL    HW265188   5.205  14.050   6.000
54472SOL     OW65189   1.316  13.283   9.154
54472SOL    HW165190   1.340  13.231   9.077
54472SOL    HW265191   1.238  13.331   9.127
54473SOL     OW65192   7.351  13.483   0.617
54473SOL    HW165193   7.279  13.438   0.661
54473SOL    HW265194   7.375  13.426   0.544
54474SOL     OW65195   6.192  12.941   7.559
54474SOL    HW165196   6.183  12.937   7.464
54474SOL    HW265197   6.103  12.953   7.591
54475SOL     OW65198  14.689   2.094   5.353
54475SOL    HW165199  14.765   2.151   5.364
54475SOL    HW265200  14.702   2.025   5.418
54476SOL     OW65201  14.743  13.620   0.925
54476SOL    HW165202  14.734  13.647   0.834
54476SOL    HW265203  14.791  13.692   0.967
54477SOL     OW65204   2.843  10.171   2.741
54477SOL    HW165205   2.850  10.263   2.768
54477SOL    HW265206   2.842  10.175   2.645
54478SOL     OW65207  14.143   8.193   9.026
54478SOL    HW165208  14.120   8.250   9.099
54478SOL    HW265209  14.062   8.146   9.005
54479SOL     OW65210   7.972  14.736   9.127
54479SOL    HW165211   7.944  14.667   9.187
54479SOL    HW265212   7.902  14.801   9.129
54480SOL     OW65213   6.983   3.571   6.011
54480SOL    HW165214   6.904   3.592   5.960
54480SOL    HW265215   7.032   3.510   5.955
54481SOL     OW65216   0.608   2.548  12.961
54481SOL    HW165217   0.654   2.548  13.045
54481SOL    HW265218   0.592   2.456  12.942
54482SOL     OW65219   3.998  13.860   4.828
54482SOL    HW165220   3.945  13.854   4.908
54482SOL    HW265221   4.078  13.811   4.848
54483SOL     OW65222   5.665   3.538   3.097
54483SOL    HW165223   5.707   3.617   3.062
54483SOL    HW265224   5.594   3.521   3.035
54484SOL     OW65225  11.614  12.894   4.021
54484SOL    HW165226  11.625  12.816   4.076
54484SOL    HW265227  11.543  12.943   4.063
54485SOL     OW65228   1.630   2.708   5.336
54485SOL    HW165229   1.560   2.744   5.390
54485SOL    HW265230   1.711   2.736   5.380
54486SOL     OW65231   9.947   2.613   1.651
54486SOL    HW165232   9.875   2.561   1.687
54486SOL    HW265233   9.938   2.698   1.694
54487SOL     OW65234   6.766  12.273   0.472
54487SOL    HW165235   6.813  12.337   0.418
54487SOL    HW265236   6.805  12.189   0.449
54488SOL     OW65237   8.907  10.097   5.261
54488SOL    HW165238   8.938  10.074   5.349
54488SOL    HW265239   8.933  10.023   5.206
54489SOL     OW65240   2.744   7.082   6.082
54489SOL    HW165241   2.767   7.174   6.094
54489SOL    HW265242   2.714   7.053   6.168
54490SOL     OW65243   7.575   1.226   8.624
54490SOL    HW165244   7.501   1.196   8.677
54490SOL    HW265245   7.595   1.151   8.568
54491SOL     OW65246   7.602   7.119   9.920
54491SOL    HW165247   7.630   7.081   9.836
54491SOL    HW265248   7.679   7.165   9.952
54492SOL     OW65249   9.745   9.298   0.881
54492SOL    HW165250   9.669   9.265   0.831
54492SOL    HW265251   9.807   9.225   0.881
54493SOL     OW65252  14.440   9.966   5.458
54493SOL    HW165253  14.438  10.023   5.381
54493SOL    HW265254  14.418   9.879   5.424
54494SOL     OW65255  14.460  11.402   9.772
54494SOL    HW165256  14.500  11.383   9.857
54494SOL    HW265257  14.524  11.371   9.708
54495SOL     OW65258   4.401   0.690  13.266
54495SOL    HW165259   4.356   0.610  13.237
54495SOL    HW265260   4.387   0.752  13.194
54496SOL     OW65261  14.249   5.151   6.503
54496SOL    HW165262  14.157   5.153   6.477
54496SOL    HW265263  14.252   5.093   6.579
54497SOL     OW65264   7.347  14.846  13.382
54497SOL    HW165265   7.286   0.015  13.438
54497SOL    HW265266   7.291  14.804  13.316
54498SOL     OW65267  12.990   0.334   0.871
54498SOL    HW165268  13.085   0.328   0.877
54498SOL    HW265269  12.972   0.351   0.779
54499SOL     OW65270  14.039   8.981   9.012
54499SOL    HW165271  13.983   8.909   8.984
54499SOL    HW265272  13.989   9.026   9.080
54500SOL     OW65273   3.245   5.122  13.631
54500SOL    HW165274   3.176   5.183  13.657
54500SOL    HW265275   3.203   5.062  13.569
54501SOL     OW65276   8.133  13.719   8.995
54501SOL    HW165277   8.076  13.771   8.938
54501SOL    HW265278   8.221  13.749   8.975
54502SOL     OW65279   5.882   7.903   9.771
54502SOL    HW165280   5.956   7.944   9.817
54502SOL    HW265281   5.849   7.837   9.832
54503SOL     OW65282   5.241  11.481   2.452
54503SOL    HW165283   5.206  11.557   2.499
54503SOL    HW265284   5.275  11.516   2.370
54504SOL     OW65285   6.410   2.055   1.538
54504SOL    HW165286   6.381   2.060   1.447
54504SOL    HW265287   6.335   2.086   1.589
54505SOL     OW65288   1.791   9.439   9.387
54505SOL    HW165289   1.846   9.515   9.367
54505SOL    HW265290   1.852   9.366   9.394
54506SOL     OW65291   3.039  10.250  11.067
54506SOL    HW165292   2.975  10.232  10.999
54506SOL    HW265293   3.015  10.191  11.139
54507SOL     OW65294   9.785   6.146   8.982
54507SOL    HW165295   9.861   6.115   8.932
54507SOL    HW265296   9.710   6.118   8.930
54508SOL     OW65297   6.133  10.866  12.375
54508SOL    HW165298   6.225  10.859  12.353
54508SOL    HW265299   6.115  10.789  12.430
54509SOL     OW65300   4.660   9.589   5.086
54509SOL    HW165301   4.751   9.588   5.115
54509SOL    HW265302   4.660   9.537   5.005
54510SOL     OW65303   5.375   9.504   7.117
54510SOL    HW165304   5.443   9.439   7.136
54510SOL    HW265305   5.369   9.505   7.022
54511SOL     OW65306   9.262  11.923  11.792
54511SOL    HW165307   9.356  11.914  11.807
54511SOL    HW265308   9.255  11.980  11.715
54512SOL     OW65309  14.109   7.891  10.942
54512SOL    HW165310  14.031   7.900  10.887
54512SOL    HW265311  14.181   7.920  10.885
54513SOL     OW65312   6.099  14.443  13.313
54513SOL    HW165313   6.105  14.498  13.236
54513SOL    HW265314   6.030  14.483  13.367
54514SOL     OW65315  12.770   3.801  14.851
54514SOL    HW165316  12.731   3.750   0.046
54514SOL    HW265317  12.829   3.862   0.017
54515SOL     OW65318   0.674  10.629  13.468
54515SOL    HW165319   0.702  10.721  13.465
54515SOL    HW265320   0.727  10.591  13.538
54516SOL     OW65321   3.336  11.810   1.476
54516SOL    HW165322   3.325  11.715   1.470
54516SOL    HW265323   3.248  11.844   1.492
54517SOL     OW65324   0.821   7.340  14.409
54517SOL    HW165325   0.852   7.429  14.426
54517SOL    HW265326   0.864   7.315  14.327
54518SOL     OW65327  11.223   7.588   2.892
54518SOL    HW165328  11.168   7.654   2.934
54518SOL    HW265329  11.178   7.505   2.910
54519SOL     OW65330   5.220   0.103   0.921
54519SOL    HW165331   5.275   0.087   0.844
54519SOL    HW265332   5.147   0.043   0.911
54520SOL     OW65333   1.638   9.127  11.250
54520SOL    HW165334   1.678   9.039  11.249
54520SOL    HW265335   1.579   9.127  11.175
54521SOL     OW65336   9.366   8.691   8.276
54521SOL    HW165337   9.298   8.626   8.296
54521SOL    HW265338   9.335   8.772   8.318
54522SOL     OW65339  12.746   8.866   8.341
54522SOL    HW165340  12.788   8.908   8.415
54522SOL    HW265341  12.792   8.900   8.264
54523SOL     OW65342  10.324   2.182   8.234
54523SOL    HW165343  10.388   2.241   8.193
54523SOL    HW265344  10.263   2.161   8.164
54524SOL     OW65345   3.118   8.836   7.959
54524SOL    HW165346   3.179   8.802   8.023
54524SOL    HW265347   3.112   8.930   7.978
54525SOL     OW65348   8.500   9.849  10.003
54525SOL    HW165349   8.539   9.870  10.088
54525SOL    HW265350   8.414   9.890  10.005
54526SOL     OW65351   1.125   4.523  13.509
54526SOL    HW165352   1.119   4.498  13.417
54526SOL    HW265353   1.034   4.523  13.539
54527SOL     OW65354   9.160  13.329   9.647
54527SOL    HW165355   9.191  13.398   9.588
54527SOL    HW265356   9.171  13.248   9.597
54528SOL     OW65357   5.374  10.662   6.645
54528SOL    HW165358   5.356  10.585   6.591
54528SOL    HW265359   5.468  10.675   6.637
54529SOL     OW65360  11.414   8.587   8.378
54529SOL    HW165361  11.324   8.618   8.390
54529SOL    HW265362  11.407   8.518   8.311
54530SOL     OW65363   1.201  13.022   8.871
54530SOL    HW165364   1.110  13.011   8.841
54530SOL    HW265365   1.221  13.114   8.854
54531SOL     OW65366   3.581  12.160   0.055
54531SOL    HW165367   3.488  12.158   0.079
54531SOL    HW265368   3.582  12.150  14.838
54532SOL     OW65369   9.716   4.308   3.171
54532SOL    HW165370   9.645   4.306   3.234
54532SOL    HW265371   9.742   4.401   3.166
54533SOL     OW65372   9.498  14.573  11.225
54533SOL    HW165373   9.548  14.492  11.228
54533SOL    HW265374   9.411  14.549  11.257
54534SOL     OW65375  12.954   9.978   7.361
54534SOL    HW165376  12.947  10.049   7.296
54534SOL    HW265377  12.899  10.007   7.434
54535SOL     OW65378   2.904  14.010  10.063
54535SOL    HW165379   2.861  14.019  10.149
54535SOL    HW265380   2.832  14.016  10.000
54536SOL     OW65381   0.588  10.119  14.793
54536SOL    HW165382   0.573  10.142  14.701
54536SOL    HW265383   0.683  10.107  14.799
54537SOL     OW65384   8.106  13.448   9.648
54537SOL    HW165385   8.149  13.363   9.658
54537SOL    HW265386   8.153  13.491   9.577
54538SOL     OW65387   5.473   3.435   8.335
54538SOL    HW165388   5.566   3.440   8.316
54538SOL    HW265389   5.432   3.497   8.275
54539SOL     OW65390   8.047  10.001   1.140
54539SOL    HW165391   8.067  10.014   1.232
54539SOL    HW265392   8.094   9.922   1.115
54540SOL     OW65393   5.863   0.194  14.516
54540SOL    HW165394   5.869   0.160  14.606
54540SOL    HW265395   5.844   0.287  14.527
54541SOL     OW65396   5.999  14.171   1.658
54541SOL    HW165397   5.932  14.105   1.676
54541SOL    HW265398   6.079  14.122   1.643
54542SOL     OW65399   1.972  11.486  11.918
54542SOL    HW165400   2.004  11.495  11.828
54542SOL    HW265401   2.051  11.493  11.971
54543SOL     OW65402   6.780   5.490  12.769
54543SOL    HW165403   6.857   5.485  12.712
54543SOL    HW265404   6.750   5.399  12.777
54544SOL     OW65405   8.559   9.413   1.801
54544SOL    HW165406   8.571   9.323   1.830
54544SOL    HW265407   8.600   9.467   1.869
54545SOL     OW65408  13.854   7.790   1.448
54545SOL    HW165409  13.803   7.801   1.368
54545SOL    HW265410  13.896   7.705   1.437
54546SOL     OW65411   8.252   9.379  11.428
54546SOL    HW165412   8.247   9.454  11.488
54546SOL    HW265413   8.181   9.322  11.456
54547SOL     OW65414   1.821  11.979   3.201
54547SOL    HW165415   1.860  11.986   3.288
54547SOL    HW265416   1.896  11.964   3.142
54548SOL     OW65417   0.713   1.493   3.103
54548SOL    HW165418   0.725   1.448   3.187
54548SOL    HW265419   0.650   1.440   3.055
54549SOL     OW65420   1.843   2.140  12.352
54549SOL    HW165421   1.828   2.046  12.355
54549SOL    HW265422   1.900   2.153  12.276
54550SOL     OW65423   6.275   7.454   4.060
54550SOL    HW165424   6.263   7.520   3.992
54550SOL    HW265425   6.246   7.498   4.140
54551SOL     OW65426   7.791   1.499   0.800
54551SOL    HW165427   7.736   1.458   0.733
54551SOL    HW265428   7.735   1.501   0.878
54552SOL     OW65429   6.920   7.853  10.438
54552SOL    HW165430   6.902   7.769  10.396
54552SOL    HW265431   6.902   7.838  10.531
54553SOL     OW65432   5.260  13.497   3.026
54553SOL    HW165433   5.186  13.523   2.972
54553SOL    HW265434   5.247  13.544   3.109
54554SOL     OW65435  14.771   5.413   9.267
54554SOL    HW165436  14.753   5.502   9.237
54554SOL    HW265437  14.807   5.369   9.189
54555SOL     OW65438   3.274  13.639   9.818
54555SOL    HW165439   3.259  13.549   9.790
54555SOL    HW265440   3.186  13.679   9.820
54556SOL     OW65441   3.423   9.724   8.787
54556SOL    HW165442   3.440   9.631   8.798
54556SOL    HW265443   3.412   9.757   8.876
54557SOL     OW65444   4.016   0.068  11.852
54557SOL    HW165445   3.995   0.093  11.762
54557SOL    HW265446   4.016  14.849  11.851
54558SOL     OW65447  11.068  11.690  13.837
54558SOL    HW165448  11.102  11.694  13.927
54558SOL    HW265449  10.976  11.664  13.848
54559SOL     OW65450  10.592  14.497  12.261
54559SOL    HW165451  10.548  14.479  12.343
54559SOL    HW265452  10.559  14.431  12.200
54560SOL     OW65453   4.100   3.424   7.845
54560SOL    HW165454   4.096   3.329   7.833
54560SOL    HW265455   4.009   3.452   7.844
54561SOL     OW65456   3.240  14.781  14.677
54561SOL    HW165457   3.303  14.840  14.717
54561SOL    HW265458   3.156  14.805  14.717
54562SOL     OW65459  13.824   0.377   1.530
54562SOL    HW165460  13.786   0.321   1.598
54562SOL    HW265461  13.749   0.424   1.494
54563SOL     OW65462  11.366  13.980   9.632
54563SOL    HW165463  11.314  14.042   9.582
54563SOL    HW265464  11.416  13.931   9.566
54564SOL     OW65465  14.765  11.457   5.347
54564SOL    HW165466  14.672  11.457   5.325
54564SOL    HW265467  14.805  11.515   5.283
54565SOL     OW65468   2.029  12.449   9.839
54565SOL    HW165469   1.974  12.489   9.772
54565SOL    HW265470   2.050  12.362   9.803
54566SOL     OW65471   9.115   7.144   1.933
54566SOL    HW165472   9.035   7.194   1.919
54566SOL    HW265473   9.118   7.083   1.859
54567SOL     OW65474   6.911   7.564  14.729
54567SOL    HW165475   6.866   7.647  14.743
54567SOL    HW265476   7.004   7.584  14.744
54568SOL     OW65477   0.066   1.600  13.581
54568SOL    HW165478  14.875   1.665  13.603
54568SOL    HW265479   0.100   1.572  13.666
54569SOL     OW65480  12.949   2.282   1.364
54569SOL    HW165481  12.924   2.354   1.306
54569SOL    HW265482  13.045   2.281   1.360
54570SOL     OW65483   4.211   0.062  12.060
54570SOL    HW165484   4.146   0.071  11.990
54570SOL    HW265485   4.293   0.043  12.013
54571SOL     OW65486   9.073  14.567   5.223
54571SOL    HW165487   9.089  14.481   5.185
54571SOL    HW265488   9.153  14.588   5.271
54572SOL     OW65489  11.711   4.399   3.335
54572SOL    HW165490  11.769   4.323   3.340
54572SOL    HW265491  11.730   4.451   3.413
54573SOL     OW65492   3.052   3.716   6.532
54573SOL    HW165493   3.061   3.780   6.461
54573SOL    HW265494   3.138   3.672   6.535
54574SOL     OW65495  11.754  11.466   0.861
54574SOL    HW165496  11.709  11.543   0.897
54574SOL    HW265497  11.834  11.502   0.822
54575SOL     OW65498   0.500   6.601   8.361
54575SOL    HW165499   0.477   6.508   8.352
54575SOL    HW265500   0.420   6.642   8.394
54576SOL     OW65501  14.244   3.537   8.671
54576SOL    HW165502  14.237   3.595   8.746
54576SOL    HW265503  14.221   3.450   8.704
54577SOL     OW65504  12.455  11.018  14.504
54577SOL    HW165505  12.440  10.924  14.520
54577SOL    HW265506  12.542  11.022  14.465
54578SOL     OW65507   3.659   9.290   8.634
54578SOL    HW165508   3.662   9.200   8.602
54578SOL    HW265509   3.746   9.325   8.616
54579SOL     OW65510   2.169   2.368   2.902
54579SOL    HW165511   2.185   2.294   2.843
54579SOL    HW265512   2.085   2.349   2.943
54580SOL     OW65513   4.334   8.372  12.862
54580SOL    HW165514   4.267   8.437  12.843
54580SOL    HW265515   4.371   8.350  12.776
54581SOL     OW65516   4.972  10.357   3.386
54581SOL    HW165517   5.019  10.323   3.310
54581SOL    HW265518   5.033  10.348   3.459
54582SOL     OW65519   4.029  14.691   4.083
54582SOL    HW165520   4.109  14.663   4.038
54582SOL    HW265521   4.055  14.770   4.131
54583SOL     OW65522   5.226   2.764   9.001
54583SOL    HW165523   5.273   2.707   8.941
54583SOL    HW265524   5.227   2.716   9.085
54584SOL     OW65525  14.281  13.364   7.866
54584SOL    HW165526  14.276  13.448   7.911
54584SOL    HW265527  14.375  13.349   7.853
54585SOL     OW65528   7.806   9.570  13.188
54585SOL    HW165529   7.765   9.643  13.142
54585SOL    HW265530   7.847   9.518  13.119
54586SOL     OW65531   0.779   4.987   4.270
54586SOL    HW165532   0.846   4.923   4.296
54586SOL    HW265533   0.781   5.052   4.340
54587SOL     OW65534   3.931   9.460   8.254
54587SOL    HW165535   3.836   9.466   8.243
54587SOL    HW265536   3.965   9.443   8.166
54588SOL     OW65537  10.521   0.368   9.145
54588SOL    HW165538  10.571   0.448   9.131
54588SOL    HW265539  10.464   0.389   9.219
54589SOL     OW65540  13.292   3.539  14.461
54589SOL    HW165541  13.201   3.531  14.489
54589SOL    HW265542  13.333   3.457  14.487
54590SOL     OW65543   9.346   0.118  13.842
54590SOL    HW165544   9.343   0.142  13.749
54590SOL    HW265545   9.438   0.098  13.858
54591SOL     OW65546  11.785   0.199  10.530
54591SOL    HW165547  11.703   0.151  10.523
54591SOL    HW265548  11.846   0.152  10.473
54592SOL     OW65549   1.713  13.176   7.491
54592SOL    HW165550   1.690  13.264   7.461
54592SOL    HW265551   1.650  13.118   7.449
54593SOL     OW65552  13.493  14.627   5.153
54593SOL    HW165553  13.446  14.710   5.160
54593SOL    HW265554  13.449  14.581   5.082
54594SOL     OW65555   0.227  10.547   3.607
54594SOL    HW165556   0.221  10.637   3.640
54594SOL    HW265557   0.186  10.550   3.521
54595SOL     OW65558   2.436   2.204  10.895
54595SOL    HW165559   2.512   2.150  10.916
54595SOL    HW265560   2.472   2.289  10.872
54596SOL     OW65561   2.803   4.438   4.871
54596SOL    HW165562   2.775   4.349   4.892
54596SOL    HW265563   2.791   4.487   4.952
54597SOL     OW65564  13.538  12.408   2.840
54597SOL    HW165565  13.608  12.345   2.824
54597SOL    HW265566  13.535  12.461   2.760
54598SOL     OW65567   9.468   7.972  12.818
54598SOL    HW165568   9.482   8.058  12.779
54598SOL    HW265569   9.375   7.954  12.802
54599SOL     OW65570  11.676   1.723   5.558
54599SOL    HW165571  11.581   1.726   5.566
54599SOL    HW265572  11.702   1.815   5.546
54600SOL     OW65573   5.022   9.379  11.674
54600SOL    HW165574   5.017   9.447  11.607
54600SOL    HW265575   5.013   9.297  11.626
54601SOL     OW65576   2.713   5.797  11.621
54601SOL    HW165577   2.671   5.781  11.706
54601SOL    HW265578   2.806   5.803  11.641
54602SOL     OW65579   2.725   3.773   7.325
54602SOL    HW165580   2.712   3.735   7.238
54602SOL    HW265581   2.818   3.796   7.328
54603SOL     OW65582   6.315   5.865   6.953
54603SOL    HW165583   6.404   5.850   6.986
54603SOL    HW265584   6.271   5.781   6.963
54604SOL     OW65585  14.699  14.731   9.683
54604SOL    HW165586  14.721  14.803   9.625
54604SOL    HW265587  14.642  14.770   9.750
54605SOL     OW65588   8.652   2.872   4.717
54605SOL    HW165589   8.614   2.948   4.675
54605SOL    HW265590   8.649   2.803   4.650
54606SOL     OW65591   2.710  13.327  10.616
54606SOL    HW165592   2.771  13.359  10.549
54606SOL    HW265593   2.700  13.401  10.676
54607SOL     OW65594   0.382   3.328   4.337
54607SOL    HW165595   0.333   3.263   4.286
54607SOL    HW265596   0.462   3.283   4.363
54608SOL     OW65597   2.283  10.828   9.452
54608SOL    HW165598   2.235  10.911   9.458
54608SOL    HW265599   2.363  10.842   9.502
54609SOL     OW65600   5.817   9.485   4.728
54609SOL    HW165601   5.725   9.509   4.714
54609SOL    HW265602   5.866   9.566   4.712
54610SOL     OW65603  10.672   5.407  10.405
54610SOL    HW165604  10.729   5.341  10.364
54610SOL    HW265605  10.590   5.401  10.356
54611SOL     OW65606  10.793  10.580  10.500
54611SOL    HW165607  10.708  10.542  10.521
54611SOL    HW265608  10.793  10.585  10.404
54612SOL     OW65609   7.678   2.602  13.887
54612SOL    HW165610   7.657   2.693  13.906
54612SOL    HW265611   7.749   2.580  13.948
54613SOL     OW65612  13.345  10.296   3.596
54613SOL    HW165613  13.313  10.269   3.510
54613SOL    HW265614  13.421  10.240   3.612
54614SOL     OW65615  14.185  10.337   2.924
54614SOL    HW165616  14.133  10.394   2.980
54614SOL    HW265617  14.258  10.392   2.896
54615SOL     OW65618   4.489   4.026   7.491
54615SOL    HW165619   4.420   4.001   7.552
54615SOL    HW265620   4.557   3.960   7.503
54616SOL     OW65621  11.100  13.075   7.873
54616SOL    HW165622  11.104  13.170   7.862
54616SOL    HW265623  11.096  13.040   7.784
54617SOL     OW65624  12.005  10.190   0.263
54617SOL    HW165625  12.056  10.197   0.183
54617SOL    HW265626  12.026  10.103   0.298
54618SOL     OW65627  10.512  10.830   4.606
54618SOL    HW165628  10.496  10.791   4.520
54618SOL    HW265629  10.500  10.924   4.593
54619SOL     OW65630   3.384   1.535  13.990
54619SOL    HW165631   3.385   1.514  13.897
54619SOL    HW265632   3.458   1.594  14.003
54620SOL     OW65633  10.978  11.800   9.371
54620SOL    HW165634  10.975  11.832   9.281
54620SOL    HW265635  10.897  11.833   9.411
54621SOL     OW65636   8.032   6.764  12.168
54621SOL    HW165637   8.112   6.715  12.153
54621SOL    HW265638   8.053   6.825  12.239
54622SOL     OW65639   5.628   3.618   2.586
54622SOL    HW165640   5.659   3.547   2.529
54622SOL    HW265641   5.662   3.595   2.672
54623SOL     OW65642   7.242   3.718   8.338
54623SOL    HW165643   7.194   3.689   8.260
54623SOL    HW265644   7.222   3.812   8.345
54624SOL     OW65645  13.565   9.644  10.951
54624SOL    HW165646  13.517   9.566  10.923
54624SOL    HW265647  13.504   9.690  11.009
54625SOL     OW65648  13.112   9.592  12.511
54625SOL    HW165649  13.101   9.599  12.606
54625SOL    HW265650  13.032   9.631  12.474
54626SOL     OW65651   8.041  11.284   9.359
54626SOL    HW165652   7.950  11.261   9.381
54626SOL    HW265653   8.087  11.282   9.443
54627SOL     OW65654   9.781  12.786   1.008
54627SOL    HW165655   9.851  12.727   1.036
54627SOL    HW265656   9.802  12.806   0.916
54628SOL     OW65657   2.514   5.203   0.757
54628SOL    HW165658   2.573   5.237   0.825
54628SOL    HW265659   2.517   5.108   0.767
54629SOL     OW65660   7.141  14.856   9.369
54629SOL    HW165661   7.084  14.828   9.297
54629SOL    HW265662   7.229  14.860   9.330
54630SOL     OW65663   5.031  10.882   9.003
54630SOL    HW165664   5.067  10.860   9.089
54630SOL    HW265665   4.950  10.928   9.021
54631SOL     OW65666  12.502   6.017   6.570
54631SOL    HW165667  12.426   5.994   6.622
54631SOL    HW265668  12.466   6.059   6.492
54632SOL     OW65669   2.028   4.909  14.111
54632SOL    HW165670   2.064   4.944  14.192
54632SOL    HW265671   2.085   4.944  14.042
54633SOL     OW65672  12.088   9.302  13.747
54633SOL    HW165673  12.029   9.331  13.817
54633SOL    HW265674  12.042   9.230  13.705
54634SOL     OW65675  10.445   5.935   5.643
54634SOL    HW165676  10.471   5.843   5.650
54634SOL    HW265677  10.361   5.940   5.688
54635SOL     OW65678   6.653   7.863  10.896
54635SOL    HW165679   6.581   7.811  10.930
54635SOL    HW265680   6.676   7.922  10.969
54636SOL     OW65681   5.278   9.169   1.233
54636SOL    HW165682   5.194   9.214   1.223
54636SOL    HW265683   5.297   9.172   1.327
54637SOL     OW65684  11.577  10.198   1.080
54637SOL    HW165685  11.516  10.126   1.065
54637SOL    HW265686  11.564  10.257   1.006
54638SOL     OW65687  12.177   1.506  12.176
54638SOL    HW165688  12.170   1.565  12.251
54638SOL    HW265689  12.258   1.533  12.133
54639SOL     OW65690   3.588  11.859   8.082
54639SOL    HW165691   3.547  11.868   7.996
54639SOL    HW265692   3.515  11.863   8.144
54640SOL     OW65693   4.816   9.602   3.081
54640SOL    HW165694   4.726   9.600   3.049
54640SOL    HW265695   4.852   9.518   3.055
54641SOL     OW65696   5.938   5.560   3.064
54641SOL    HW165697   6.015   5.592   3.016
54641SOL    HW265698   5.920   5.475   3.024
54642SOL     OW65699   6.337  10.880  12.020
54642SOL    HW165700   6.255  10.925  12.000
54642SOL    HW265701   6.347  10.817  11.948
54643SOL     OW65702   7.306   7.207   0.030
54643SOL    HW165703   7.241   7.262   0.074
54643SOL    HW265704   7.254   7.138  14.866
54644SOL     OW65705   2.800   6.834   8.275
54644SOL    HW165706   2.831   6.888   8.348
54644SOL    HW265707   2.835   6.747   8.293
54645SOL     OW65708  13.023  14.110   9.445
54645SOL    HW165709  13.060  14.030   9.408
54645SOL    HW265710  13.081  14.131   9.519
54646SOL     OW65711   9.928   3.667   1.596
54646SOL    HW165712   9.890   3.633   1.677
54646SOL    HW265713   9.912   3.599   1.531
54647SOL     OW65714   2.927   4.015   0.990
54647SOL    HW165715   2.920   4.109   0.973
54647SOL    HW265716   3.002   4.007   1.050
54648SOL     OW65717  11.346   8.124  14.433
54648SOL    HW165718  11.372   8.216  14.443
54648SOL    HW265719  11.251   8.126  14.436
54649SOL     OW65720  12.499   3.786  11.215
54649SOL    HW165721  12.488   3.776  11.310
54649SOL    HW265722  12.430   3.846  11.188
54650SOL     OW65723  13.201   9.546   2.912
54650SOL    HW165724  13.123   9.522   2.862
54650SOL    HW265725  13.168   9.593   2.988
54651SOL     OW65726  13.912   9.170   0.206
54651SOL    HW165727  14.004   9.148   0.219
54651SOL    HW265728  13.885   9.117   0.131
54652SOL     OW65729   1.978   0.769   4.304
54652SOL    HW165730   2.010   0.851   4.342
54652SOL    HW265731   1.909   0.740   4.364
54653SOL     OW65732   9.385   1.535  12.198
54653SOL    HW165733   9.293   1.518  12.218
54653SOL    HW265734   9.404   1.477  12.124
54654SOL     OW65735   7.717   0.810   7.331
54654SOL    HW165736   7.799   0.827   7.284
54654SOL    HW265737   7.692   0.895   7.367
54655SOL     OW65738   9.215   7.298   5.886
54655SOL    HW165739   9.180   7.336   5.806
54655SOL    HW265740   9.293   7.349   5.905
54656SOL     OW65741   3.312   2.950   4.693
54656SOL    HW165742   3.305   2.895   4.771
54656SOL    HW265743   3.255   2.909   4.629
54657SOL     OW65744   6.691  10.351   0.689
54657SOL    HW165745   6.684  10.446   0.702
54657SOL    HW265746   6.637  10.314   0.759
54658SOL     OW65747   4.963  13.424   2.186
54658SOL    HW165748   4.942  13.505   2.138
54658SOL    HW265749   5.054  13.435   2.213
54659SOL     OW65750   7.995   2.270  12.496
54659SOL    HW165751   7.956   2.202  12.552
54659SOL    HW265752   8.074   2.297  12.543
54660SOL     OW65753  11.414   4.075   0.917
54660SOL    HW165754  11.412   4.056   0.823
54660SOL    HW265755  11.506   4.091   0.937
54661SOL     OW65756  13.394   7.353   0.423
54661SOL    HW165757  13.359   7.265   0.408
54661SOL    HW265758  13.438   7.347   0.508
54662SOL     OW65759   9.433  12.653  14.632
54662SOL    HW165760   9.376  12.693  14.566
54662SOL    HW265761   9.380  12.584  14.671
54663SOL     OW65762  13.586  11.004   7.249
54663SOL    HW165763  13.658  11.053   7.288
54663SOL    HW265764  13.612  10.991   7.158
54664SOL     OW65765   2.563   5.651  13.599
54664SOL    HW165766   2.517   5.677  13.678
54664SOL    HW265767   2.506   5.585  13.558
54665SOL     OW65768  10.099  14.818   6.519
54665SOL    HW165769  10.149   0.011   6.477
54665SOL    HW265770  10.098  14.747   6.454
54666SOL     OW65771   5.134  13.975  12.008
54666SOL    HW165772   5.042  13.967  11.983
54666SOL    HW265773   5.165  14.054  11.964
54667SOL     OW65774  10.393  12.951   2.569
54667SOL    HW165775  10.475  12.916   2.533
54667SOL    HW265776  10.382  13.036   2.527
54668SOL     OW65777  11.372   4.408   6.462
54668SOL    HW165778  11.462   4.404   6.494
54668SOL    HW265779  11.335   4.486   6.504
54669SOL     OW65780   4.119   3.399   4.598
54669SOL    HW165781   4.183   3.391   4.668
54669SOL    HW265782   4.035   3.413   4.642
54670SOL     OW65783   4.831   9.328   7.406
54670SOL    HW165784   4.926   9.322   7.397
54670SOL    HW265785   4.800   9.239   7.390
54671SOL     OW65786  10.503   0.362   8.535
54671SOL    HW165787  10.453   0.372   8.454
54671SOL    HW265788  10.455   0.296   8.585
54672SOL     OW65789   1.622  12.991   2.213
54672SOL    HW165790   1.691  12.926   2.228
54672SOL    HW265791   1.588  12.971   2.126
54673SOL     OW65792   3.928   2.407   0.028
54673SOL    HW165793   3.999   2.346   0.007
54673SOL    HW265794   3.872   2.407  14.828
54674SOL     OW65795   4.927   8.422  11.571
54674SOL    HW165796   4.861   8.468  11.623
54674SOL    HW265797   4.893   8.426  11.481
54675SOL     OW65798  10.523  13.278   1.813
54675SOL    HW165799  10.462  13.276   1.740
54675SOL    HW265800  10.610  13.278   1.773
54676SOL     OW65801  12.178   4.648  12.135
54676SOL    HW165802  12.205   4.739  12.130
54676SOL    HW265803  12.250   4.599  12.095
54677SOL     OW65804  11.604   0.576  11.268
54677SOL    HW165805  11.565   0.491  11.289
54677SOL    HW265806  11.677   0.556  11.211
54678SOL     OW65807  13.868   1.048  12.996
54678SOL    HW165808  13.848   1.141  12.994
54678SOL    HW265809  13.963   1.045  13.011
54679SOL     OW65810   0.348   1.778   9.701
54679SOL    HW165811   0.340   1.703   9.760
54679SOL    HW265812   0.321   1.853   9.754
54680SOL     OW65813   2.389   6.902  13.064
54680SOL    HW165814   2.355   6.931  12.980
54680SOL    HW265815   2.459   6.841  13.043
54681SOL     OW65816   8.320   1.989   1.297
54681SOL    HW165817   8.242   2.010   1.245
54681SOL    HW265818   8.328   2.062   1.358
54682SOL     OW65819   2.417   2.017  12.888
54682SOL    HW165820   2.427   2.052  12.799
54682SOL    HW265821   2.444   1.925  12.880
54683SOL     OW65822   8.300  13.512  10.955
54683SOL    HW165823   8.283  13.544  11.044
54683SOL    HW265824   8.367  13.444  10.965
54684SOL     OW65825   3.769  13.535   0.739
54684SOL    HW165826   3.749  13.442   0.725
54684SOL    HW265827   3.686  13.572   0.769
54685SOL     OW65828   7.170  13.853   3.203
54685SOL    HW165829   7.230  13.860   3.128
54685SOL    HW265830   7.204  13.915   3.267
54686SOL     OW65831   7.841   6.366   6.634
54686SOL    HW165832   7.783   6.378   6.559
54686SOL    HW265833   7.802   6.294   6.684
54687SOL     OW65834   3.750   1.876   7.705
54687SOL    HW165835   3.698   1.946   7.746
54687SOL    HW265836   3.840   1.896   7.729
54688SOL     OW65837  14.182   1.945  10.434
54688SOL    HW165838  14.112   1.995  10.391
54688SOL    HW265839  14.263   1.988  10.406
54689SOL     OW65840  11.994  10.537   8.548
54689SOL    HW165841  11.996  10.460   8.606
54689SOL    HW265842  12.074  10.585   8.570
54690SOL     OW65843   2.455  10.030   2.188
54690SOL    HW165844   2.442   9.940   2.220
54690SOL    HW265845   2.498  10.019   2.103
54691SOL     OW65846   8.274   6.769   0.646
54691SOL    HW165847   8.237   6.852   0.675
54691SOL    HW265848   8.260   6.709   0.719
54692SOL     OW65849   0.915   4.290   1.914
54692SOL    HW165850   0.930   4.328   2.001
54692SOL    HW265851   0.930   4.362   1.853
54693SOL     OW65852   1.712   5.850   2.078
54693SOL    HW165853   1.650   5.913   2.114
54693SOL    HW265854   1.669   5.814   2.001
54694SOL     OW65855   7.287  10.289   5.610
54694SOL    HW165856   7.313  10.280   5.701
54694SOL    HW265857   7.338  10.364   5.578
54695SOL     OW65858  13.876   9.383   5.627
54695SOL    HW165859  13.940   9.446   5.591
54695SOL    HW265860  13.914   9.297   5.609
54696SOL     OW65861  14.113   2.565   9.938
54696SOL    HW165862  14.146   2.654   9.925
54696SOL    HW265863  14.054   2.573  10.013
54697SOL     OW65864  10.973   1.474  13.808
54697SOL    HW165865  11.020   1.458  13.890
54697SOL    HW265866  10.908   1.404  13.803
54698SOL     OW65867   8.782   2.579  12.376
54698SOL    HW165868   8.723   2.515  12.337
54698SOL    HW265869   8.827   2.619  12.302
54699SOL     OW65870  11.577   2.325  11.569
54699SOL    HW165871  11.600   2.320  11.476
54699SOL    HW265872  11.485   2.352  11.570
54700SOL     OW65873  13.743   6.932  10.339
54700SOL    HW165874  13.777   6.956  10.425
54700SOL    HW265875  13.768   6.841  10.328
54701SOL     OW65876   3.509   4.334   3.962
54701SOL    HW165877   3.587   4.370   3.919
54701SOL    HW265878   3.442   4.333   3.894
54702SOL     OW65879   0.054   5.864   8.463
54702SOL    HW165880   0.015   5.902   8.384
54702SOL    HW265881   0.148   5.879   8.452
54703SOL     OW65882   3.454   1.548   2.661
54703SOL    HW165883   3.481   1.463   2.695
54703SOL    HW265884   3.367   1.562   2.699
54704SOL     OW65885   5.853   0.605   6.327
54704SOL    HW165886   5.905   0.530   6.300
54704SOL    HW265887   5.890   0.678   6.277
54705SOL     OW65888   8.148   6.567   5.359
54705SOL    HW165889   8.175   6.478   5.380
54705SOL    HW265890   8.053   6.563   5.348
54706SOL     OW65891   7.691   2.983   0.674
54706SOL    HW165892   7.659   3.068   0.644
54706SOL    HW265893   7.667   2.981   0.767
54707SOL     OW65894  14.363   7.776   9.416
54707SOL    HW165895  14.459   7.785   9.417
54707SOL    HW265896  14.342   7.762   9.324
54708SOL     OW65897  12.739   4.484   3.710
54708SOL    HW165898  12.773   4.397   3.689
54708SOL    HW265899  12.644   4.472   3.720
54709SOL     OW65900  14.519   3.995  13.450
54709SOL    HW165901  14.546   4.086  13.461
54709SOL    HW265902  14.562   3.967  13.369
54710SOL     OW65903  14.205   1.916  13.365
54710SOL    HW165904  14.137   1.853  13.387
54710SOL    HW265905  14.279   1.892  13.421
54711SOL     OW65906   1.328   3.664   9.394
54711SOL    HW165907   1.400   3.603   9.378
54711SOL    HW265908   1.366   3.750   9.378
54712SOL     OW65909   4.592   7.238   5.953
54712SOL    HW165910   4.512   7.190   5.934
54712SOL    HW265911   4.573   7.328   5.926
54713SOL     OW65912  11.672   4.754   5.164
54713SOL    HW165913  11.714   4.821   5.219
54713SOL    HW265914  11.606   4.715   5.221
54714SOL     OW65915  11.666  10.707   2.635
54714SOL    HW165916  11.687  10.775   2.699
54714SOL    HW265917  11.749  10.686   2.592
54715SOL     OW65918   4.105   0.763   7.246
54715SOL    HW165919   4.025   0.714   7.269
54715SOL    HW265920   4.085   0.802   7.161
54716SOL     OW65921   0.835   0.758   3.583
54716SOL    HW165922   0.928   0.782   3.581
54716SOL    HW265923   0.798   0.814   3.652
54717SOL     OW65924   8.011   7.427  13.022
54717SOL    HW165925   8.086   7.400  12.968
54717SOL    HW265926   8.037   7.406  13.111
54718SOL     OW65927   4.635   6.038  14.384
54718SOL    HW165928   4.617   5.955  14.428
54718SOL    HW265929   4.686   6.013  14.306
54719SOL     OW65930   5.487   0.168   3.957
54719SOL    HW165931   5.487   0.076   3.981
54719SOL    HW265932   5.457   0.213   4.036
54720SOL     OW65933   5.659   6.431   3.248
54720SOL    HW165934   5.708   6.419   3.167
54720SOL    HW265935   5.722   6.410   3.317
54721SOL     OW65936  11.292   1.964   8.363
54721SOL    HW165937  11.339   2.044   8.337
54721SOL    HW265938  11.348   1.893   8.333
54722SOL     OW65939   3.857  12.289   9.043
54722SOL    HW165940   3.886  12.374   9.011
54722SOL    HW265941   3.939  12.241   9.059
54723SOL     OW65942   4.135   4.795  13.829
54723SOL    HW165943   4.127   4.781  13.735
54723SOL    HW265944   4.115   4.887  13.842
54724SOL     OW65945   3.175   5.791   6.484
54724SOL    HW165946   3.264   5.783   6.450
54724SOL    HW265947   3.185   5.800   6.578
54725SOL     OW65948   1.581   5.202  13.999
54725SOL    HW165949   1.538   5.186  13.914
54725SOL    HW265950   1.668   5.236  13.976
54726SOL     OW65951   6.131   2.342  13.835
54726SOL    HW165952   6.056   2.350  13.893
54726SOL    HW265953   6.108   2.270  13.776
54727SOL     OW65954   7.655   6.392  10.580
54727SOL    HW165955   7.681   6.440  10.501
54727SOL    HW265956   7.724   6.327  10.592
54728SOL     OW65957   9.256   0.221   6.799
54728SOL    HW165958   9.201   0.246   6.725
54728SOL    HW265959   9.334   0.276   6.790
54729SOL     OW65960   4.173  13.124   6.419
54729SOL    HW165961   4.229  13.101   6.346
54729SOL    HW265962   4.232  13.130   6.494
54730SOL     OW65963   3.628   9.010  10.552
54730SOL    HW165964   3.572   9.026  10.476
54730SOL    HW265965   3.625   9.092  10.601
54731SOL     OW65966  13.920   7.481   5.664
54731SOL    HW165967  13.945   7.434   5.743
54731SOL    HW265968  13.851   7.427   5.625
54732SOL     OW65969   4.508   1.667  14.857
54732SOL    HW165970   4.596   1.703  14.861
54732SOL    HW265971   4.456   1.737  14.817
54733SOL     OW65972  11.726   8.073  11.074
54733SOL    HW165973  11.760   8.152  11.116
54733SOL    HW265974  11.688   8.022  11.145
54734SOL     OW65975   6.734   0.321   0.726
54734SOL    HW165976   6.672   0.285   0.662
54734SOL    HW265977   6.794   0.248   0.745
54735SOL     OW65978  10.324   9.441   6.165
54735SOL    HW165979  10.323   9.443   6.261
54735SOL    HW265980  10.234   9.461   6.140
54736SOL     OW65981  14.755  14.860   1.791
54736SOL    HW165982  14.839  14.858   1.837
54736SOL    HW265983  14.773   0.031   1.710
54737SOL     OW65984   8.423  10.329   9.694
54737SOL    HW165985   8.432  10.368   9.606
54737SOL    HW265986   8.449  10.238   9.682
54738SOL     OW65987   1.816  12.209   1.849
54738SOL    HW165988   1.891  12.153   1.869
54738SOL    HW265989   1.739  12.155   1.870
54739SOL     OW65990   4.591   0.171   2.303
54739SOL    HW165991   4.569   0.241   2.243
54739SOL    HW265992   4.625   0.101   2.247
54740SOL     OW65993  14.438   9.140   0.931
54740SOL    HW165994  14.476   9.109   1.013
54740SOL    HW265995  14.407   9.061   0.887
54741SOL     OW65996   9.258   2.387   9.058
54741SOL    HW165997   9.319   2.355   8.991
54741SOL    HW265998   9.184   2.327   9.054
54742SOL     OW65999   8.970   4.603  11.378
54742SOL    HW166000   9.048   4.626  11.329
54742SOL    HW266001   8.913   4.559  11.314
54743SOL     OW66002  11.328   1.351   5.495
54743SOL    HW166003  11.305   1.396   5.577
54743SOL    HW266004  11.384   1.278   5.523
54744SOL     OW66005   1.126   1.938  11.167
54744SOL    HW166006   1.040   1.922  11.128
54744SOL    HW266007   1.144   2.030  11.147
54745SOL     OW66008  11.788   5.478   1.984
54745SOL    HW166009  11.720   5.414   1.964
54745SOL    HW266010  11.841   5.438   2.053
54746SOL     OW66011   7.401   2.302  13.654
54746SOL    HW166012   7.355   2.252  13.586
54746SOL    HW266013   7.493   2.279  13.643
54747SOL     OW66014   9.574   3.978  13.562
54747SOL    HW166015   9.621   4.012  13.485
54747SOL    HW266016   9.600   4.036  13.633
54748SOL     OW66017   2.212  11.531   4.614
54748SOL    HW166018   2.243  11.620   4.632
54748SOL    HW266019   2.290  11.484   4.585
54749SOL     OW66020   0.162   7.042   4.493
54749SOL    HW166021   0.067   7.054   4.494
54749SOL    HW266022   0.175   6.951   4.465
54750SOL     OW66023   7.757   1.975   5.383
54750SOL    HW166024   7.704   2.004   5.457
54750SOL    HW266025   7.845   2.010   5.401
54751SOL     OW66026   1.022   6.914   4.896
54751SOL    HW166027   1.043   6.882   4.984
54751SOL    HW266028   0.969   6.844   4.857
54752SOL     OW66029  14.430   1.329   5.136
54752SOL    HW166030  14.428   1.411   5.186
54752SOL    HW266031  14.339   1.297   5.140
54753SOL     OW66032   4.561   2.683   6.277
54753SOL    HW166033   4.529   2.739   6.348
54753SOL    HW266034   4.502   2.608   6.277
54754SOL     OW66035   4.251   5.177   1.533
54754SOL    HW166036   4.208   5.092   1.547
54754SOL    HW266037   4.340   5.155   1.506
54755SOL     OW66038   8.699   3.690   3.128
54755SOL    HW166039   8.711   3.781   3.102
54755SOL    HW266040   8.674   3.645   3.048
54756SOL     OW66041   5.653   5.416   2.088
54756SOL    HW166042   5.656   5.478   2.015
54756SOL    HW266043   5.562   5.384   2.088
54757SOL     OW66044   1.756   4.330   9.759
54757SOL    HW166045   1.718   4.393   9.698
54757SOL    HW266046   1.850   4.343   9.752
54758SOL     OW66047   6.916   8.816   7.506
54758SOL    HW166048   6.989   8.850   7.453
54758SOL    HW266049   6.936   8.845   7.595
54759SOL     OW66050  13.001   9.089   9.515
54759SOL    HW166051  13.065   9.026   9.548
54759SOL    HW266052  12.930   9.036   9.479
54760SOL     OW66053  11.257  14.138   7.659
54760SOL    HW166054  11.298  14.061   7.621
54760SOL    HW266055  11.171  14.108   7.688
54761SOL     OW66056   6.167   4.682  10.439
54761SOL    HW166057   6.257   4.714  10.445
54761SOL    HW266058   6.176   4.588  10.421
54762SOL     OW66059   0.168   3.549  11.113
54762SOL    HW166060   0.076   3.523  11.118
54762SOL    HW266061   0.204   3.496  11.042
54763SOL     OW66062   0.713  10.316  11.554
54763SOL    HW166063   0.678  10.266  11.627
54763SOL    HW266064   0.806  10.328  11.575
54764SOL     OW66065   3.600  13.360  12.236
54764SOL    HW166066   3.550  13.278  12.242
54764SOL    HW266067   3.684  13.333  12.197
54765SOL     OW66068   9.828   1.576  14.845
54765SOL    HW166069   9.827   1.532  14.761
54765SOL    HW266070   9.763   1.529   0.021
54766SOL     OW66071   1.850  10.169  10.574
54766SOL    HW166072   1.846  10.248  10.519
54766SOL    HW266073   1.929  10.124  10.544
54767SOL     OW66074   1.876  10.052   2.777
54767SOL    HW166075   1.883  10.139   2.739
54767SOL    HW266076   1.927  10.057   2.858
54768SOL     OW66077  13.116   8.796  13.474
54768SOL    HW166078  13.126   8.792  13.379
54768SOL    HW266079  13.186   8.740  13.508
54769SOL     OW66080   4.031   7.044  11.854
54769SOL    HW166081   3.997   6.980  11.792
54769SOL    HW266082   4.068   7.113  11.800
54770SOL     OW66083   3.059  14.329   2.897
54770SOL    HW166084   3.056  14.313   2.803
54770SOL    HW266085   3.007  14.260   2.935
54771SOL     OW66086   1.681  11.844   1.864
54771SOL    HW166087   1.660  11.854   1.771
54771SOL    HW266088   1.643  11.921   1.905
54772SOL     OW66089   6.602   3.476   8.509
54772SOL    HW166090   6.542   3.406   8.483
54772SOL    HW266091   6.667   3.479   8.439
54773SOL     OW66092   6.633   1.300   7.038
54773SOL    HW166093   6.657   1.391   7.018
54773SOL    HW266094   6.641   1.294   7.133
54774SOL     OW66095   2.196  12.173  12.958
54774SOL    HW166096   2.278  12.221  12.968
54774SOL    HW266097   2.217  12.104  12.894
54775SOL     OW66098   7.219   4.408  14.017
54775SOL    HW166099   7.228   4.318  14.048
54775SOL    HW266100   7.211   4.401  13.922
54776SOL     OW66101   0.443   9.604   5.031
54776SOL    HW166102   0.383   9.663   4.985
54776SOL    HW266103   0.388   9.558   5.093
54777SOL     OW66104   6.132   1.169   2.010
54777SOL    HW166105   6.098   1.253   2.040
54777SOL    HW266106   6.192   1.191   1.938
54778SOL     OW66107  12.892  10.905  11.764
54778SOL    HW166108  12.980  10.895  11.799
54778SOL    HW266109  12.852  10.973  11.818
54779SOL     OW66110   5.518   3.201  11.497
54779SOL    HW166111   5.516   3.263  11.424
54779SOL    HW266112   5.590   3.231  11.552
54780SOL     OW66113   0.268  11.258  14.399
54780SOL    HW166114   0.309  11.299  14.474
54780SOL    HW266115   0.176  11.246  14.425
54781SOL     OW66116   4.925   9.023   6.411
54781SOL    HW166117   4.924   9.117   6.431
54781SOL    HW266118   4.988   9.014   6.339
54782SOL     OW66119   1.975   1.740   8.496
54782SOL    HW166120   1.880   1.742   8.481
54782SOL    HW266121   2.005   1.827   8.467
54783SOL     OW66122  12.951   7.820  14.872
54783SOL    HW166123  12.907   7.736  14.874
54783SOL    HW266124  12.973   7.839   0.086
54784SOL     OW66125  14.454   5.602   1.535
54784SOL    HW166126  14.539   5.565   1.562
54784SOL    HW266127  14.390   5.541   1.570
54785SOL     OW66128   4.850   9.218   5.716
54785SOL    HW166129   4.867   9.290   5.655
54785SOL    HW266130   4.937   9.182   5.736
54786SOL     OW66131  12.497   7.040  12.741
54786SOL    HW166132  12.586   7.008  12.727
54786SOL    HW266133  12.445   6.997  12.673
54787SOL     OW66134   1.612  11.706   2.302
54787SOL    HW166135   1.654  11.787   2.273
54787SOL    HW266136   1.550  11.685   2.232
54788SOL     OW66137  12.973   7.764   2.957
54788SOL    HW166138  13.054   7.805   2.928
54788SOL    HW266139  12.982   7.757   3.052
54789SOL     OW66140  10.813   5.435   4.919
54789SOL    HW166141  10.843   5.345   4.935
54789SOL    HW266142  10.790   5.437   4.826
54790SOL     OW66143  12.768   7.828   0.363
54790SOL    HW166144  12.718   7.859   0.287
54790SOL    HW266145  12.703   7.788   0.420
54791SOL     OW66146   3.958  10.656  10.681
54791SOL    HW166147   3.889  10.648  10.747
54791SOL    HW266148   3.951  10.575  10.629
54792SOL     OW66149  13.029   8.468  11.807
54792SOL    HW166150  12.992   8.380  11.814
54792SOL    HW266151  12.956   8.523  11.778
54793SOL     OW66152   4.553   0.612  14.514
54793SOL    HW166153   4.521   0.557  14.585
54793SOL    HW266154   4.646   0.590  14.506
54794SOL     OW66155   3.760   7.758   4.085
54794SOL    HW166156   3.719   7.787   4.003
54794SOL    HW266157   3.700   7.693   4.120
54795SOL     OW66158   9.622   0.602   0.335
54795SOL    HW166159   9.706   0.557   0.331
54795SOL    HW266160   9.566   0.545   0.388
54796SOL     OW66161   1.844   1.049   6.944
54796SOL    HW166162   1.937   1.055   6.923
54796SOL    HW266163   1.810   1.137   6.927
54797SOL     OW66164   9.249   2.810   2.941
54797SOL    HW166165   9.240   2.737   3.003
54797SOL    HW266166   9.217   2.886   2.990
54798SOL     OW66167  11.267   6.345   5.710
54798SOL    HW166168  11.211   6.275   5.745
54798SOL    HW266169  11.231   6.365   5.624
54799SOL     OW66170  10.661   9.624   9.997
54799SOL    HW166171  10.675   9.553   9.934
54799SOL    HW266172  10.726   9.690   9.974
54800SOL     OW66173   5.255   5.347   7.250
54800SOL    HW166174   5.283   5.439   7.257
54800SOL    HW266175   5.284   5.320   7.163
54801SOL     OW66176   9.430  11.344   6.474
54801SOL    HW166177   9.398  11.331   6.385
54801SOL    HW266178   9.408  11.263   6.520
54802SOL     OW66179  12.821   9.108   2.247
54802SOL    HW166180  12.853   9.102   2.337
54802SOL    HW266181  12.773   9.026   2.233
54803SOL     OW66182   8.490   4.602  11.850
54803SOL    HW166183   8.526   4.544  11.917
54803SOL    HW266184   8.560   4.611  11.785
54804SOL     OW66185   5.284  12.515   6.762
54804SOL    HW166186   5.326  12.430   6.771
54804SOL    HW266187   5.352  12.572   6.726
54805SOL     OW66188  11.242   4.156  14.201
54805SOL    HW166189  11.327   4.115  14.184
54805SOL    HW266190  11.225   4.139  14.294
54806SOL     OW66191   8.839   7.153  10.684
54806SOL    HW166192   8.932   7.131  10.688
54806SOL    HW266193   8.831   7.230  10.741
54807SOL     OW66194   2.458   9.725   9.311
54807SOL    HW166195   2.476   9.636   9.281
54807SOL    HW266196   2.531   9.777   9.277
54808SOL     OW66197   9.810  13.559  11.306
54808SOL    HW166198   9.873  13.535  11.238
54808SOL    HW266199   9.839  13.645  11.336
54809SOL     OW66200   8.579   5.887  10.216
54809SOL    HW166201   8.619   5.839  10.143
54809SOL    HW266202   8.485   5.881  10.200
54810SOL     OW66203   1.624   9.981  13.865
54810SOL    HW166204   1.606  10.049  13.799
54810SOL    HW266205   1.639   9.902  13.814
54811SOL     OW66206   8.305   8.042  14.804
54811SOL    HW166207   8.384   8.074  14.761
54811SOL    HW266208   8.272   8.117  14.854
54812SOL     OW66209   3.042  11.233   9.614
54812SOL    HW166210   2.978  11.175   9.572
54812SOL    HW266211   3.002  11.257   9.697
54813SOL     OW66212   2.835  14.499   0.542
54813SOL    HW166213   2.909  14.560   0.543
54813SOL    HW266214   2.768  14.541   0.489
54814SOL     OW66215  11.086   1.247   9.848
54814SOL    HW166216  11.177   1.275   9.841
54814SOL    HW266217  11.065   1.256   9.941
54815SOL     OW66218   2.401  10.922   7.346
54815SOL    HW166219   2.430  10.850   7.289
54815SOL    HW266220   2.447  10.907   7.428
54816SOL     OW66221  10.342  11.861   9.051
54816SOL    HW166222  10.308  11.809   8.978
54816SOL    HW266223  10.321  11.951   9.027
54817SOL     OW66224   9.186   9.536   4.367
54817SOL    HW166225   9.229   9.485   4.435
54817SOL    HW266226   9.209   9.490   4.286
54818SOL     OW66227   5.962  14.292  14.587
54818SOL    HW166228   5.989  14.333  14.504
54818SOL    HW266229   5.893  14.231  14.562
54819SOL     OW66230  10.080   3.984   8.154
54819SOL    HW166231   9.999   3.936   8.174
54819SOL    HW266232  10.061   4.075   8.178
54820SOL     OW66233   1.542  10.390  14.538
54820SOL    HW166234   1.472  10.411  14.476
54820SOL    HW266235   1.597  10.326  14.493
54821SOL     OW66236   1.762  14.633   8.732
54821SOL    HW166237   1.741  14.672   8.647
54821SOL    HW266238   1.680  14.639   8.782
54822SOL     OW66239   7.044  12.043   4.092
54822SOL    HW166240   7.012  12.061   4.003
54822SOL    HW266241   7.015  11.953   4.109
54823SOL     OW66242   7.611  12.496  10.768
54823SOL    HW166243   7.547  12.436  10.806
54823SOL    HW266244   7.598  12.578  10.816
54824SOL     OW66245   3.892  10.953   8.014
54824SOL    HW166246   3.892  11.036   7.968
54824SOL    HW266247   3.912  10.888   7.947
54825SOL     OW66248   6.209  13.290   2.551
54825SOL    HW166249   6.191  13.347   2.626
54825SOL    HW266250   6.304  13.281   2.550
54826SOL     OW66251   9.866  11.934  14.082
54826SOL    HW166252   9.929  11.983  14.135
54826SOL    HW266253   9.822  11.876  14.145
54827SOL     OW66254   5.215   3.971  14.236
54827SOL    HW166255   5.159   3.894  14.228
54827SOL    HW266256   5.177   4.034  14.175
54828SOL     OW66257   8.263  14.747   0.365
54828SOL    HW166258   8.288  14.714   0.279
54828SOL    HW266259   8.340  14.735   0.419
54829SOL     OW66260  12.254   7.516   4.485
54829SOL    HW166261  12.303   7.466   4.419
54829SOL    HW266262  12.170   7.535   4.443
54830SOL     OW66263  11.821  12.295  10.896
54830SOL    HW166264  11.811  12.323  10.987
54830SOL    HW266265  11.743  12.328  10.851
54831SOL     OW66266  11.895   2.149  12.983
54831SOL    HW166267  11.832   2.206  12.939
54831SOL    HW266268  11.842   2.078  13.020
54832SOL     OW66269   5.201   8.316  11.942
54832SOL    HW166270   5.190   8.301  11.848
54832SOL    HW266271   5.201   8.228  11.980
54833SOL     OW66272  14.055   9.074  14.259
54833SOL    HW166273  13.969   9.112  14.276
54833SOL    HW266274  14.070   9.090  14.166
54834SOL     OW66275   6.781   6.931   2.229
54834SOL    HW166276   6.759   6.879   2.152
54834SOL    HW266277   6.769   7.022   2.201
54835SOL     OW66278  10.248  14.261   2.064
54835SOL    HW166279  10.309  14.326   2.032
54835SOL    HW266280  10.222  14.292   2.151
54836SOL     OW66281   7.136   5.699   8.678
54836SOL    HW166282   7.058   5.753   8.666
54836SOL    HW266283   7.118   5.619   8.628
54837SOL     OW66284   0.696   3.042   0.091
54837SOL    HW166285   0.654   3.121   0.125
54837SOL    HW266286   0.764   3.074   0.032
54838SOL     OW66287  12.994   2.138   7.320
54838SOL    HW166288  12.987   2.056   7.369
54838SOL    HW266289  12.942   2.124   7.241
54839SOL     OW66290  12.399   1.854   4.741
54839SOL    HW166291  12.448   1.790   4.792
54839SOL    HW266292  12.309   1.847   4.774
54840SOL     OW66293   4.721  11.118   3.027
54840SOL    HW166294   4.699  11.210   3.040
54840SOL    HW266295   4.639  11.071   3.039
54841SOL     OW66296   3.932  11.232   5.439
54841SOL    HW166297   3.905  11.189   5.358
54841SOL    HW266298   3.988  11.168   5.483
54842SOL     OW66299  12.018  11.790   1.352
54842SOL    HW166300  12.018  11.855   1.281
54842SOL    HW266301  11.980  11.712   1.313
54843SOL     OW66302  10.169   3.119   6.734
54843SOL    HW166303  10.153   3.055   6.665
54843SOL    HW266304  10.233   3.076   6.792
54844SOL     OW66305  12.086  14.442   1.426
54844SOL    HW166306  12.142  14.391   1.485
54844SOL    HW266307  12.147  14.484   1.366
54845SOL     OW66308  10.151   6.962  12.568
54845SOL    HW166309  10.148   7.010  12.485
54845SOL    HW266310  10.070   6.912  12.569
54846SOL     OW66311  13.858   7.243   1.901
54846SOL    HW166312  13.787   7.290   1.945
54846SOL    HW266313  13.932   7.303   1.903
54847SOL     OW66314   2.313  12.256   1.872
54847SOL    HW166315   2.343  12.194   1.805
54847SOL    HW266316   2.393  12.298   1.902
54848SOL     OW66317   3.062   0.856   5.754
54848SOL    HW166318   3.088   0.935   5.801
54848SOL    HW266319   2.972   0.875   5.725
54849SOL     OW66320   0.509   2.272  11.568
54849SOL    HW166321   0.436   2.248  11.625
54849SOL    HW266322   0.522   2.365  11.585
54850SOL     OW66323   7.170   0.171   9.897
54850SOL    HW166324   7.167   0.145   9.805
54850SOL    HW266325   7.198   0.262   9.895
54851SOL     OW66326  14.051  10.305   4.006
54851SOL    HW166327  14.039  10.214   3.977
54851SOL    HW266328  14.012  10.358   3.936
54852SOL     OW66329   5.094   9.361   5.065
54852SOL    HW166330   5.009   9.335   5.029
54852SOL    HW266331   5.090   9.457   5.067
54853SOL     OW66332   1.942  12.750   9.683
54853SOL    HW166333   1.985  12.795   9.756
54853SOL    HW266334   1.887  12.816   9.642
54854SOL     OW66335   6.145   9.495   7.856
54854SOL    HW166336   6.219   9.484   7.796
54854SOL    HW266337   6.172   9.567   7.914
54855SOL     OW66338  12.941  11.150   1.139
54855SOL    HW166339  13.020  11.204   1.143
54855SOL    HW266340  12.873  11.203   1.181
54856SOL     OW66341   7.190  12.936  12.022
54856SOL    HW166342   7.109  12.888  12.042
54856SOL    HW266343   7.160  13.019  11.984
54857SOL     OW66344   0.335   2.745   1.681
54857SOL    HW166345   0.395   2.767   1.753
54857SOL    HW266346   0.392   2.728   1.607
54858SOL     OW66347   2.977   0.436  13.696
54858SOL    HW166348   3.019   0.447  13.782
54858SOL    HW266349   3.044   0.463  13.634
54859SOL     OW66350   8.543   8.171  12.728
54859SOL    HW166351   8.555   8.085  12.688
54859SOL    HW266352   8.466   8.208  12.685
54860SOL     OW66353   1.947   1.921  10.813
54860SOL    HW166354   1.951   1.977  10.890
54860SOL    HW266355   1.857   1.889  10.811
54861SOL     OW66356   3.029   5.206  14.396
54861SOL    HW166357   3.091   5.170  14.460
54861SOL    HW266358   3.073   5.284  14.361
54862SOL     OW66359   9.913   3.658  12.657
54862SOL    HW166360   9.924   3.746  12.693
54862SOL    HW266361   9.997   3.639  12.615
54863SOL     OW66362   9.975  12.147  13.505
54863SOL    HW166363  10.049  12.180  13.556
54863SOL    HW266364   9.984  12.191  13.420
54864SOL     OW66365   3.993   9.219   3.611
54864SOL    HW166366   3.910   9.215   3.657
54864SOL    HW266367   4.013   9.313   3.606
54865SOL     OW66368   9.690   9.317  10.248
54865SOL    HW166369   9.606   9.290  10.211
54865SOL    HW266370   9.733   9.366  10.178
54866SOL     OW66371  14.053   2.379   2.436
54866SOL    HW166372  13.967   2.342   2.416
54866SOL    HW266373  14.052   2.466   2.395
54867SOL     OW66374   2.595  11.606  10.694
54867SOL    HW166375   2.631  11.525  10.730
54867SOL    HW266376   2.587  11.588  10.600
54868SOL     OW66377   7.917  13.378  13.488
54868SOL    HW166378   7.836  13.421  13.516
54868SOL    HW266379   7.891  13.326  13.411
54869SOL     OW66380   0.210   2.268   6.062
54869SOL    HW166381   0.162   2.341   6.023
54869SOL    HW266382   0.250   2.223   5.988
54870SOL     OW66383  14.567  11.882   5.308
54870SOL    HW166384  14.662  11.877   5.322
54870SOL    HW266385  14.553  11.969   5.271
54871SOL     OW66386   8.266   5.424   9.198
54871SOL    HW166387   8.197   5.490   9.206
54871SOL    HW266388   8.345   5.468   9.230
54872SOL     OW66389   1.692   2.880   7.824
54872SOL    HW166390   1.652   2.804   7.867
54872SOL    HW266391   1.785   2.857   7.816
54873SOL     OW66392   6.590  14.186  10.075
54873SOL    HW166393   6.602  14.114  10.136
54873SOL    HW266394   6.553  14.145   9.996
54874SOL     OW66395  11.791   3.458   2.573
54874SOL    HW166396  11.821   3.367   2.576
54874SOL    HW266397  11.709   3.459   2.622
54875SOL     OW66398  10.738   4.266   6.471
54875SOL    HW166399  10.698   4.218   6.399
54875SOL    HW266400  10.702   4.226   6.550
54876SOL     OW66401  14.560   9.793   7.092
54876SOL    HW166402  14.633   9.800   7.030
54876SOL    HW266403  14.491   9.847   7.054
54877SOL     OW66404   7.619   2.926   5.869
54877SOL    HW166405   7.525   2.947   5.866
54877SOL    HW266406   7.657   2.992   5.926
54878SOL     OW66407   7.722   1.671   5.633
54878SOL    HW166408   7.752   1.581   5.642
54878SOL    HW266409   7.784   1.722   5.684
54879SOL     OW66410   8.008   3.908   5.720
54879SOL    HW166411   8.104   3.899   5.719
54879SOL    HW266412   7.993   3.993   5.760
54880SOL     OW66413  13.538   3.005   3.139
54880SOL    HW166414  13.556   2.922   3.183
54880SOL    HW266415  13.594   3.003   3.061
54881SOL     OW66416  12.125   7.936   3.051
54881SOL    HW166417  12.197   8.000   3.052
54881SOL    HW266418  12.107   7.923   2.958
54882SOL     OW66419   7.129  11.954   7.094
54882SOL    HW166420   7.109  11.969   7.002
54882SOL    HW266421   7.162  12.038   7.126
54883SOL     OW66422   1.640  11.675  12.992
54883SOL    HW166423   1.726  11.688  12.953
54883SOL    HW266424   1.585  11.744  12.955
54884SOL     OW66425   6.496   7.440  10.836
54884SOL    HW166426   6.488   7.356  10.880
54884SOL    HW266427   6.415   7.449  10.786
54885SOL     OW66428  11.646  14.791  11.151
54885SOL    HW166429  11.646   0.005  11.180
54885SOL    HW266430  11.732  14.778  11.111
54886SOL     OW66431  11.104   5.980   8.280
54886SOL    HW166432  11.150   6.059   8.250
54886SOL    HW266433  11.046   5.957   8.208
54887SOL     OW66434   4.387   4.017  10.641
54887SOL    HW166435   4.321   4.017  10.572
54887SOL    HW266436   4.398   4.109  10.664
54888SOL     OW66437   1.907  14.301   4.693
54888SOL    HW166438   1.967  14.330   4.624
54888SOL    HW266439   1.941  14.216   4.720
54889SOL     OW66440   0.731   4.678  13.633
54889SOL    HW166441   0.727   4.675  13.729
54889SOL    HW266442   0.773   4.762  13.613
54890SOL     OW66443   8.637  11.171  13.341
54890SOL    HW166444   8.644  11.141  13.432
54890SOL    HW266445   8.724  11.156  13.304
54891SOL     OW66446  14.557  10.542   8.403
54891SOL    HW166447  14.532  10.633   8.416
54891SOL    HW266448  14.483  10.502   8.358
54892SOL     OW66449   8.491   9.813   4.067
54892SOL    HW166450   8.584   9.817   4.045
54892SOL    HW266451   8.447   9.845   3.988
54893SOL     OW66452  12.636   9.537   2.755
54893SOL    HW166453  12.569   9.585   2.707
54893SOL    HW266454  12.719   9.563   2.713
54894SOL     OW66455   7.530   3.391  14.146
54894SOL    HW166456   7.555   3.315  14.094
54894SOL    HW266457   7.595   3.393  14.217
54895SOL     OW66458   8.366  14.680   9.825
54895SOL    HW166459   8.433  14.734   9.867
54895SOL    HW266460   8.397  14.590   9.835
54896SOL     OW66461   7.669   4.475   2.046
54896SOL    HW166462   7.605   4.509   2.108
54896SOL    HW266463   7.735   4.433   2.101
54897SOL     OW66464   6.131   1.818  12.969
54897SOL    HW166465   6.140   1.833  13.063
54897SOL    HW266466   6.215   1.848  12.933
54898SOL     OW66467   3.629  11.010  13.176
54898SOL    HW166468   3.542  11.050  13.178
54898SOL    HW266469   3.631  10.960  13.094
54899SOL     OW66470  12.567   2.784   2.353
54899SOL    HW166471  12.572   2.729   2.276
54899SOL    HW266472  12.512   2.735   2.414
54900SOL     OW66473   8.402   1.046   6.600
54900SOL    HW166474   8.382   0.954   6.620
54900SOL    HW266475   8.479   1.042   6.544
54901SOL     OW66476   9.379   4.951   6.026
54901SOL    HW166477   9.418   4.865   6.041
54901SOL    HW266478   9.417   5.007   6.094
54902SOL     OW66479  13.258   8.444   5.818
54902SOL    HW166480  13.285   8.381   5.750
54902SOL    HW266481  13.298   8.410   5.899
54903SOL     OW66482   0.125   9.270   1.836
54903SOL    HW166483   0.194   9.205   1.850
54903SOL    HW266484   0.055   9.222   1.793
54904SOL     OW66485   8.293  13.727  10.526
54904SOL    HW166486   8.386  13.705  10.522
54904SOL    HW266487   8.277  13.774  10.444
54905SOL     OW66488  11.621   9.222   6.823
54905SOL    HW166489  11.651   9.136   6.851
54905SOL    HW266490  11.577   9.259   6.899
54906SOL     OW66491   3.620  10.970   8.726
54906SOL    HW166492   3.705  11.011   8.744
54906SOL    HW266493   3.629  10.935   8.638
54907SOL     OW66494   9.128   0.494  13.564
54907SOL    HW166495   9.081   0.566  13.522
54907SOL    HW266496   9.117   0.420  13.505
54908SOL     OW66497   2.237   4.477   7.135
54908SOL    HW166498   2.313   4.441   7.181
54908SOL    HW266499   2.274   4.521   7.059
54909SOL     OW66500  13.145  11.810  12.564
54909SOL    HW166501  13.220  11.750  12.556
54909SOL    HW266502  13.183  11.892  12.597
54910SOL     OW66503   4.914   8.308   5.086
54910SOL    HW166504   5.004   8.279   5.070
54910SOL    HW266505   4.894   8.278   5.174
54911SOL     OW66506  13.449   4.477   1.524
54911SOL    HW166507  13.441   4.387   1.557
54911SOL    HW266508  13.469   4.467   1.432
54912SOL     OW66509  13.420   0.067   6.256
54912SOL    HW166510  13.358   0.136   6.234
54912SOL    HW266511  13.506   0.104   6.238
54913SOL     OW66512   1.267  12.531   2.015
54913SOL    HW166513   1.276  12.455   1.958
54913SOL    HW266514   1.184  12.570   1.989
54914SOL     OW66515   7.730  10.819   5.489
54914SOL    HW166516   7.634  10.826   5.481
54914SOL    HW266517   7.759  10.796   5.401
54915SOL     OW66518   2.906   4.572   3.102
54915SOL    HW166519   2.908   4.476   3.093
54915SOL    HW266520   2.818   4.597   3.075
54916SOL     OW66521   3.987  13.685   5.898
54916SOL    HW166522   3.906  13.635   5.913
54916SOL    HW266523   4.035  13.634   5.833
54917SOL     OW66524   5.637  10.408   1.826
54917SOL    HW166525   5.709  10.374   1.878
54917SOL    HW266526   5.677  10.431   1.742
54918SOL     OW66527  13.190   8.540  14.506
54918SOL    HW166528  13.121   8.476  14.487
54918SOL    HW266529  13.191   8.546  14.602
54919SOL     OW66530  11.349   6.500   7.572
54919SOL    HW166531  11.269   6.453   7.545
54919SOL    HW266532  11.361   6.475   7.663
54920SOL     OW66533   3.340   3.941   6.981
54920SOL    HW166534   3.273   3.895   6.931
54920SOL    HW266535   3.389   3.871   7.026
54921SOL     OW66536   4.239   6.612   4.737
54921SOL    HW166537   4.290   6.663   4.673
54921SOL    HW266538   4.151   6.611   4.701
54922SOL     OW66539  13.328   7.624  10.008
54922SOL    HW166540  13.281   7.603  10.088
54922SOL    HW266541  13.343   7.719  10.013
54923SOL     OW66542  11.214   9.960   6.843
54923SOL    HW166543  11.262  10.006   6.774
54923SOL    HW266544  11.267   9.883   6.863
54924SOL     OW66545   1.339   1.916  10.779
54924SOL    HW166546   1.355   1.889  10.870
54924SOL    HW266547   1.332   1.834  10.731
54925SOL     OW66548   5.982   1.371  11.630
54925SOL    HW166549   5.936   1.429  11.569
54925SOL    HW266550   6.074   1.389  11.615
54926SOL     OW66551   6.739   6.896   5.777
54926SOL    HW166552   6.699   6.809   5.768
54926SOL    HW266553   6.665   6.955   5.790
54927SOL     OW66554  11.561  10.679  11.559
54927SOL    HW166555  11.533  10.587  11.551
54927SOL    HW266556  11.481  10.729  11.547
54928SOL     OW66557   5.527   1.745  12.727
54928SOL    HW166558   5.487   1.770  12.644
54928SOL    HW266559   5.617   1.722  12.705
54929SOL     OW66560   4.707   6.463   1.538
54929SOL    HW166561   4.737   6.390   1.484
54929SOL    HW266562   4.672   6.422   1.617
54930SOL     OW66563  14.652   7.680   5.062
54930SOL    HW166564  14.717   7.744   5.033
54930SOL    HW266565  14.696   7.632   5.132
54931SOL     OW66566   8.432  10.138   3.325
54931SOL    HW166567   8.445  10.189   3.406
54931SOL    HW266568   8.367  10.188   3.276
54932SOL     OW66569   9.934  13.815  11.372
54932SOL    HW166570   9.909  13.899  11.410
54932SOL    HW266571  10.029  13.820  11.360
54933SOL     OW66572  11.604  13.617  13.021
54933SOL    HW166573  11.592  13.702  13.063
54933SOL    HW266574  11.526  13.566  13.047
54934SOL     OW66575   1.649   3.990   5.899
54934SOL    HW166576   1.614   3.959   5.815
54934SOL    HW266577   1.642   3.914   5.957
54935SOL     OW66578   0.777  10.174   5.223
54935SOL    HW166579   0.797  10.235   5.294
54935SOL    HW266580   0.778  10.088   5.264
54936SOL     OW66581  13.457  10.710   3.650
54936SOL    HW166582  13.450  10.677   3.560
54936SOL    HW266583  13.411  10.644   3.703
54937SOL     OW66584   6.964  11.351  10.395
54937SOL    HW166585   7.032  11.284  10.408
54937SOL    HW266586   6.884  11.309  10.428
54938SOL     OW66587  13.310  11.898   1.179
54938SOL    HW166588  13.346  11.893   1.090
54938SOL    HW266589  13.241  11.963   1.173
54939SOL     OW66590  13.181   3.200   4.811
54939SOL    HW166591  13.271   3.206   4.842
54939SOL    HW266592  13.150   3.115   4.842
54940SOL     OW66593  13.584  11.474   0.331
54940SOL    HW166594  13.672  11.436   0.327
54940SOL    HW266595  13.545  11.453   0.245
54941SOL     OW66596   3.503   3.525   5.569
54941SOL    HW166597   3.487   3.553   5.659
54941SOL    HW266598   3.576   3.463   5.575
54942SOL     OW66599   4.830   3.058   9.108
54942SOL    HW166600   4.892   2.985   9.107
54942SOL    HW266601   4.744   3.017   9.115
54943SOL     OW66602  12.475  14.008   0.410
54943SOL    HW166603  12.380  14.015   0.421
54943SOL    HW266604  12.497  14.071   0.343
54944SOL     OW66605   0.986   0.088   6.647
54944SOL    HW166606   1.005   0.180   6.663
54944SOL    HW266607   0.892   0.085   6.630
54945SOL     OW66608  12.340   6.335   1.395
54945SOL    HW166609  12.306   6.247   1.380
54945SOL    HW266610  12.326   6.351   1.489
54946SOL     OW66611  10.554   2.502   7.330
54946SOL    HW166612  10.464   2.506   7.361
54946SOL    HW266613  10.555   2.558   7.252
54947SOL     OW66614   6.509   8.916   5.862
54947SOL    HW166615   6.534   9.008   5.853
54947SOL    HW266616   6.575   8.868   5.812
54948SOL     OW66617   9.035   1.516  10.866
54948SOL    HW166618   9.081   1.600  10.873
54948SOL    HW266619   9.033   1.482  10.955
54949SOL     OW66620  12.919   9.742   3.647
54949SOL    HW166621  12.942   9.653   3.671
54949SOL    HW266622  12.885   9.781   3.728
54950SOL     OW66623  13.880   8.022   5.774
54950SOL    HW166624  13.848   8.021   5.684
54950SOL    HW266625  13.957   8.079   5.771
54951SOL     OW66626   4.595   4.109   0.888
54951SOL    HW166627   4.512   4.069   0.911
54951SOL    HW266628   4.577   4.203   0.887
54952SOL     OW66629  13.412   5.397   0.337
54952SOL    HW166630  13.402   5.368   0.246
54952SOL    HW266631  13.506   5.400   0.351
54953SOL     OW66632   8.793  11.950  12.064
54953SOL    HW166633   8.740  12.021  12.101
54953SOL    HW266634   8.731  11.896  12.016
54954SOL     OW66635  10.381   1.380  11.264
54954SOL    HW166636  10.336   1.437  11.202
54954SOL    HW266637  10.466   1.421  11.277
54955SOL     OW66638   4.130   9.320   8.438
54955SOL    HW166639   4.093   9.365   8.363
54955SOL    HW266640   4.175   9.244   8.401
54956SOL     OW66641   0.457   1.893  13.366
54956SOL    HW166642   0.428   1.926  13.451
54956SOL    HW266643   0.421   1.804  13.361
54957SOL     OW66644  13.251  10.855   9.714
54957SOL    HW166645  13.320  10.800   9.677
54957SOL    HW266646  13.282  10.878   9.802
54958SOL     OW66647  14.679  12.509  13.073
54958SOL    HW166648  14.766  12.482  13.043
54958SOL    HW266649  14.632  12.427  13.087
54959SOL     OW66650  12.911  11.930   5.886
54959SOL    HW166651  12.823  11.893   5.887
54959SOL    HW266652  12.948  11.902   5.803
54960SOL     OW66653   9.948  14.492  11.595
54960SOL    HW166654   9.960  14.568  11.651
54960SOL    HW266655   9.949  14.527  11.506
54961SOL     OW66656   7.457   9.571   3.994
54961SOL    HW166657   7.502   9.611   4.068
54961SOL    HW266658   7.482   9.624   3.919
54962SOL     OW66659  11.179   5.136   4.192
54962SOL    HW166660  11.224   5.172   4.268
54962SOL    HW266661  11.097   5.102   4.227
54963SOL     OW66662  10.221  12.369   1.610
54963SOL    HW166663  10.247  12.430   1.679
54963SOL    HW266664  10.201  12.287   1.656
54964SOL     OW66665   7.412   3.684   4.986
54964SOL    HW166666   7.455   3.615   4.936
54964SOL    HW266667   7.323   3.652   4.999
54965SOL     OW66668  10.106   7.915  13.126
54965SOL    HW166669  10.099   7.972  13.202
54965SOL    HW266670  10.134   7.973  13.055
54966SOL     OW66671   2.493  14.036   4.103
54966SOL    HW166672   2.490  14.008   4.195
54966SOL    HW266673   2.426  14.104   4.096
54967SOL     OW66674  12.930   6.454  13.244
54967SOL    HW166675  12.850   6.482  13.287
54967SOL    HW266676  12.999   6.505  13.287
54968SOL     OW66677  10.351   5.037  13.177
54968SOL    HW166678  10.278   4.981  13.150
54968SOL    HW266679  10.386   4.995  13.255
54969SOL     OW66680   4.743   2.450   1.765
54969SOL    HW166681   4.720   2.462   1.857
54969SOL    HW266682   4.659   2.441   1.721
54970SOL     OW66683   7.966  13.164   0.847
54970SOL    HW166684   7.932  13.115   0.772
54970SOL    HW266685   7.920  13.127   0.922
54971SOL     OW66686   4.126  14.350   5.574
54971SOL    HW166687   4.203  14.301   5.544
54971SOL    HW266688   4.112  14.320   5.664
54972SOL     OW66689   0.851   6.383   9.806
54972SOL    HW166690   0.882   6.332   9.881
54972SOL    HW266691   0.919   6.450   9.794
54973SOL     OW66692   6.526   0.881   9.541
54973SOL    HW166693   6.468   0.938   9.490
54973SOL    HW266694   6.560   0.938   9.610
54974SOL     OW66695   1.342   3.435   4.208
54974SOL    HW166696   1.424   3.472   4.239
54974SOL    HW266697   1.294   3.510   4.172
54975SOL     OW66698   8.293   9.629   8.946
54975SOL    HW166699   8.202   9.607   8.926
54975SOL    HW266700   8.301   9.722   8.922
54976SOL     OW66701   0.890   8.689   2.298
54976SOL    HW166702   0.823   8.621   2.305
54976SOL    HW266703   0.910   8.712   2.389
54977SOL     OW66704   7.326   4.217   0.377
54977SOL    HW166705   7.304   4.249   0.289
54977SOL    HW266706   7.307   4.123   0.373
54978SOL     OW66707  14.118   9.074   8.563
54978SOL    HW166708  14.104   9.041   8.475
54978SOL    HW266709  14.048   9.137   8.577
54979SOL     OW66710   0.103  10.816  12.959
54979SOL    HW166711   0.167  10.883  12.987
54979SOL    HW266712   0.142  10.733  12.988
54980SOL     OW66713  12.056   0.908   3.323
54980SOL    HW166714  12.119   0.979   3.335
54980SOL    HW266715  12.096   0.833   3.366
54981SOL     OW66716   1.115   1.071  13.629
54981SOL    HW166717   1.024   1.048  13.645
54981SOL    HW266718   1.139   1.126  13.703
54982SOL     OW66719   5.979   4.298   9.944
54982SOL    HW166720   6.061   4.342   9.966
54982SOL    HW266721   5.914   4.369   9.942
54983SOL     OW66722   1.938   0.275   2.223
54983SOL    HW166723   1.958   0.229   2.305
54983SOL    HW266724   1.892   0.354   2.251
54984SOL     OW66725   1.054   1.101   0.527
54984SOL    HW166726   1.127   1.074   0.583
54984SOL    HW266727   1.089   1.174   0.476
54985SOL     OW66728   9.535   9.678  12.243
54985SOL    HW166729   9.501   9.716  12.324
54985SOL    HW266730   9.457   9.655  12.192
54986SOL     OW66731   8.060   1.417   3.742
54986SOL    HW166732   8.062   1.419   3.838
54986SOL    HW266733   7.969   1.398   3.720
54987SOL     OW66734  10.015   1.742  12.450
54987SOL    HW166735   9.977   1.654  12.451
54987SOL    HW266736  10.026   1.765  12.542
54988SOL     OW66737   7.842   8.248   6.443
54988SOL    HW166738   7.763   8.236   6.390
54988SOL    HW266739   7.904   8.182   6.411
54989SOL     OW66740   3.214   7.040  11.928
54989SOL    HW166741   3.210   7.081  12.014
54989SOL    HW266742   3.146   6.972  11.931
54990SOL     OW66743   4.610   1.532   5.411
54990SOL    HW166744   4.586   1.444   5.381
54990SOL    HW266745   4.690   1.519   5.461
54991SOL     OW66746  10.212   5.072   3.133
54991SOL    HW166747  10.126   5.058   3.172
54991SOL    HW266748  10.194   5.081   3.039
54992SOL     OW66749   0.613   0.416  14.466
54992SOL    HW166750   0.704   0.433  14.440
54992SOL    HW266751   0.603   0.464  14.549
54993SOL     OW66752   8.557   1.063   6.181
54993SOL    HW166753   8.651   1.057   6.164
54993SOL    HW266754   8.549   1.134   6.245
54994SOL     OW66755   6.541   3.887   3.791
54994SOL    HW166756   6.460   3.925   3.824
54994SOL    HW266757   6.574   3.951   3.728
54995SOL     OW66758  11.978  10.721  12.919
54995SOL    HW166759  11.958  10.707  12.827
54995SOL    HW266760  11.937  10.646  12.964
54996SOL     OW66761   8.266   2.201  12.657
54996SOL    HW166762   8.343   2.149  12.677
54996SOL    HW266763   8.296   2.264  12.592
54997SOL     OW66764  10.062   5.782  13.741
54997SOL    HW166765  10.150   5.810  13.768
54997SOL    HW266766  10.006   5.801  13.816
54998SOL     OW66767   0.184   5.258   8.709
54998SOL    HW166768   0.250   5.256   8.779
54998SOL    HW266769   0.206   5.335   8.658
54999SOL     OW66770  11.492   0.281   7.457
54999SOL    HW166771  11.564   0.243   7.406
54999SOL    HW266772  11.414   0.237   7.423
55000SOL     OW66773   0.568   4.291   2.041
55000SOL    HW166774   0.508   4.218   2.030
55000SOL    HW266775   0.650   4.261   2.003
55001SOL     OW66776   4.889  11.662  11.984
55001SOL    HW166777   4.822  11.678  11.918
55001SOL    HW266778   4.960  11.721  11.961
55002SOL     OW66779   7.612   6.796  10.544
55002SOL    HW166780   7.626   6.833  10.457
55002SOL    HW266781   7.542   6.732  10.532
55003SOL     OW66782  14.238   2.324  13.607
55003SOL    HW166783  14.217   2.365  13.691
55003SOL    HW266784  14.326   2.356  13.587
55004SOL     OW66785   1.095   1.732   5.767
55004SOL    HW166786   1.142   1.744   5.685
55004SOL    HW266787   1.126   1.802   5.824
55005SOL     OW66788   6.678   0.018   4.822
55005SOL    HW166789   6.591   0.056   4.830
55005SOL    HW266790   6.723   0.042   4.903
55006SOL     OW66791  11.761   0.665   2.583
55006SOL    HW166792  11.776   0.619   2.500
55006SOL    HW266793  11.844   0.658   2.630
55007SOL     OW66794   4.687   6.108  10.641
55007SOL    HW166795   4.621   6.169  10.674
55007SOL    HW266796   4.636   6.036  10.604
55008SOL     OW66797   2.110   7.664   3.130
55008SOL    HW166798   2.164   7.718   3.073
55008SOL    HW266799   2.169   7.638   3.201
55009SOL     OW66800   5.235   3.494  10.658
55009SOL    HW166801   5.185   3.491  10.577
55009SOL    HW266802   5.177   3.537  10.720
55010SOL     OW66803  10.519   3.215   3.587
55010SOL    HW166804  10.556   3.293   3.627
55010SOL    HW266805  10.498   3.241   3.497
55011SOL     OW66806  11.707  14.470   7.770
55011SOL    HW166807  11.639  14.529   7.739
55011SOL    HW266808  11.769  14.463   7.697
55012SOL     OW66809   6.012   4.894  10.728
55012SOL    HW166810   5.987   4.878  10.636
55012SOL    HW266811   5.933   4.876  10.778
55013SOL     OW66812   2.820   2.969   1.820
55013SOL    HW166813   2.755   2.995   1.754
55013SOL    HW266814   2.903   2.966   1.773
55014SOL     OW66815   2.052   9.848  10.251
55014SOL    HW166816   2.118   9.897  10.202
55014SOL    HW266817   2.073   9.865  10.343
55015SOL     OW66818   7.185   5.909   8.343
55015SOL    HW166819   7.148   5.846   8.281
55015SOL    HW266820   7.230   5.973   8.289
55016SOL     OW66821  12.613  14.164  12.136
55016SOL    HW166822  12.575  14.214  12.064
55016SOL    HW266823  12.537  14.129  12.183
55017SOL     OW66824   0.181   4.551   3.544
55017SOL    HW166825   0.124   4.591   3.610
55017SOL    HW266826   0.163   4.457   3.551
55018SOL     OW66827  10.344   7.077   7.642
55018SOL    HW166828  10.312   7.167   7.652
55018SOL    HW266829  10.355   7.066   7.548
55019SOL     OW66830   1.106  13.761  12.542
55019SOL    HW166831   1.098  13.800  12.455
55019SOL    HW266832   1.074  13.829  12.602
55020SOL     OW66833   0.100   5.504   3.007
55020SOL    HW166834   0.062   5.532   3.090
55020SOL    HW266835   0.026   5.498   2.947
55021SOL     OW66836  12.075  11.629   8.250
55021SOL    HW166837  11.988  11.616   8.287
55021SOL    HW266838  12.096  11.546   8.208
55022SOL     OW66839  13.746  12.860  12.868
55022SOL    HW166840  13.659  12.888  12.841
55022SOL    HW266841  13.735  12.829  12.958
55023SOL     OW66842  14.190   6.135   0.757
55023SOL    HW166843  14.249   6.066   0.728
55023SOL    HW266844  14.103   6.095   0.754
55024SOL     OW66845   4.037  12.156   8.806
55024SOL    HW166846   3.958  12.140   8.857
55024SOL    HW266847   4.008  12.211   8.733
55025SOL     OW66848   1.187   4.325  14.250
55025SOL    HW166849   1.252   4.343  14.183
55025SOL    HW266850   1.122   4.395  14.240
55026SOL     OW66851   9.603   5.410  12.457
55026SOL    HW166852   9.546   5.354  12.404
55026SOL    HW266853   9.600   5.495  12.414
55027SOL     OW66854  10.396   5.218   9.364
55027SOL    HW166855  10.393   5.311   9.385
55027SOL    HW266856  10.357   5.211   9.277
55028SOL     OW66857  11.423   5.757   9.645
55028SOL    HW166858  11.512   5.786   9.665
55028SOL    HW266859  11.426   5.728   9.554
55029SOL     OW66860   4.595   9.073  10.917
55029SOL    HW166861   4.626   9.139  10.979
55029SOL    HW266862   4.502   9.062  10.938
55030SOL     OW66863   3.991   0.629  10.841
55030SOL    HW166864   4.061   0.576  10.803
55030SOL    HW266865   4.028   0.663  10.922
55031SOL     OW66866   9.126   7.379   6.620
55031SOL    HW166867   9.190   7.366   6.690
55031SOL    HW266868   9.060   7.311   6.635
55032SOL     OW66869   3.792   4.404   7.113
55032SOL    HW166870   3.789   4.370   7.024
55032SOL    HW266871   3.733   4.479   7.113
55033SOL     OW66872  10.442  11.050  14.816
55033SOL    HW166873  10.533  11.028  14.835
55033SOL    HW266874  10.392  10.975  14.849
55034SOL     OW66875  11.828  14.627   4.019
55034SOL    HW166876  11.817  14.691   4.088
55034SOL    HW266877  11.810  14.675   3.938
55035SOL     OW66878   3.736  14.136   8.742
55035SOL    HW166879   3.671  14.112   8.808
55035SOL    HW266880   3.719  14.076   8.669
55036SOL     OW66881   6.356   7.699   8.156
55036SOL    HW166882   6.367   7.612   8.195
55036SOL    HW266883   6.346   7.683   8.062
55037SOL     OW66884   9.118   2.993   0.853
55037SOL    HW166885   9.133   2.900   0.835
55037SOL    HW266886   9.171   3.038   0.787
55038SOL     OW66887   4.295  13.342   8.327
55038SOL    HW166888   4.255  13.408   8.383
55038SOL    HW266889   4.232  13.330   8.256
55039SOL     OW66890  11.233   4.834   2.221
55039SOL    HW166891  11.302   4.894   2.252
55039SOL    HW266892  11.274   4.748   2.222
55040SOL     OW66893   3.145   8.080  14.271
55040SOL    HW166894   3.168   7.990  14.248
55040SOL    HW266895   3.187   8.134  14.204
55041SOL     OW66896  14.671   4.636   9.180
55041SOL    HW166897  14.613   4.701   9.218
55041SOL    HW266898  14.694   4.671   9.094
55042SOL     OW66899   1.514   5.485  10.284
55042SOL    HW166900   1.471   5.571  10.281
55042SOL    HW266901   1.584   5.496  10.348
55043SOL     OW66902  12.624  10.581   4.182
55043SOL    HW166903  12.576  10.500   4.199
55043SOL    HW266904  12.563  10.651   4.206
55044SOL     OW66905   2.813   8.177  12.301
55044SOL    HW166906   2.773   8.108  12.353
55044SOL    HW266907   2.773   8.258  12.332
55045SOL     OW66908   0.656  10.651   0.136
55045SOL    HW166909   0.659  10.582   0.201
55045SOL    HW266910   0.660  10.732   0.186
55046SOL     OW66911   3.609   1.170  10.038
55046SOL    HW166912   3.681   1.110  10.055
55046SOL    HW266913   3.642   1.256  10.063
55047SOL     OW66914  13.722   7.140   2.308
55047SOL    HW166915  13.762   7.093   2.382
55047SOL    HW266916  13.631   7.111   2.307
55048SOL     OW66917   2.788  13.620   4.020
55048SOL    HW166918   2.857  13.657   4.076
55048SOL    HW266919   2.742  13.697   3.986
55049SOL     OW66920   2.729   1.728  10.168
55049SOL    HW166921   2.780   1.663  10.121
55049SOL    HW266922   2.722   1.694  10.257
55050SOL     OW66923   6.627  11.492   4.984
55050SOL    HW166924   6.560  11.528   5.043
55050SOL    HW266925   6.582  11.482   4.900
55051SOL     OW66926   8.900  11.635   1.096
55051SOL    HW166927   8.859  11.623   1.011
55051SOL    HW266928   8.960  11.709   1.084
55052SOL     OW66929   7.485   6.131   0.795
55052SOL    HW166930   7.393   6.144   0.817
55052SOL    HW266931   7.486   6.119   0.700
55053SOL     OW66932   3.060   2.288   6.731
55053SOL    HW166933   2.995   2.240   6.679
55053SOL    HW266934   3.112   2.220   6.773
55054SOL     OW66935   7.077   2.783   9.958
55054SOL    HW166936   7.025   2.855   9.995
55054SOL    HW266937   7.145   2.767  10.023
55055SOL     OW66938  12.113   4.568   6.914
55055SOL    HW166939  12.110   4.564   7.009
55055SOL    HW266940  12.184   4.629   6.894
55056SOL     OW66941   0.258   1.281   8.800
55056SOL    HW166942   0.303   1.216   8.747
55056SOL    HW266943   0.209   1.230   8.865
55057SOL     OW66944  10.403   6.017   3.508
55057SOL    HW166945  10.449   6.028   3.425
55057SOL    HW266946  10.470   6.031   3.575
55058SOL     OW66947   7.654  11.018   8.128
55058SOL    HW166948   7.671  10.980   8.214
55058SOL    HW266949   7.740  11.038   8.092
55059SOL     OW66950   6.286   0.610   1.734
55059SOL    HW166951   6.294   0.703   1.711
55059SOL    HW266952   6.367   0.591   1.782
55060SOL     OW66953  13.039   9.337  13.801
55060SOL    HW166954  13.002   9.253  13.773
55060SOL    HW266955  13.122   9.343  13.754
55061SOL     OW66956   0.348  10.808   7.096
55061SOL    HW166957   0.294  10.824   7.174
55061SOL    HW266958   0.365  10.714   7.098
55062SOL     OW66959   3.832   3.454   7.827
55062SOL    HW166960   3.753   3.444   7.881
55062SOL    HW266961   3.834   3.374   7.773
55063SOL     OW66962  13.479   0.922   1.662
55063SOL    HW166963  13.460   1.014   1.680
55063SOL    HW266964  13.400   0.888   1.620
55064SOL     OW66965   0.351   4.827   7.169
55064SOL    HW166966   0.317   4.741   7.194
55064SOL    HW266967   0.324   4.885   7.240
55065SOL     OW66968   9.575  11.599   0.068
55065SOL    HW166969   9.599  11.506   0.064
55065SOL    HW266970   9.481  11.599   0.082
55066SOL     OW66971   1.216   3.718   1.853
55066SOL    HW166972   1.138   3.708   1.909
55066SOL    HW266973   1.214   3.642   1.795
55067SOL     OW66974   4.155  11.670   8.666
55067SOL    HW166975   4.138  11.761   8.689
55067SOL    HW266976   4.246  11.669   8.638
55068SOL     OW66977   9.764   8.957   0.721
55068SOL    HW166978   9.724   8.935   0.805
55068SOL    HW266979   9.832   9.021   0.743
55069SOL     OW66980  11.565   2.297   0.884
55069SOL    HW166981  11.536   2.387   0.866
55069SOL    HW266982  11.523   2.275   0.967
55070SOL     OW66983   7.275   9.555   9.216
55070SOL    HW166984   7.200   9.609   9.242
55070SOL    HW266985   7.259   9.536   9.123
55071SOL     OW66986   4.092  11.654  10.583
55071SOL    HW166987   4.070  11.696  10.499
55071SOL    HW266988   4.111  11.727  10.642
55072SOL     OW66989  12.132   6.752  11.400
55072SOL    HW166990  12.073   6.775  11.328
55072SOL    HW266991  12.201   6.700  11.358
55073SOL     OW66992   1.253   8.544   4.071
55073SOL    HW166993   1.197   8.469   4.088
55073SOL    HW266994   1.323   8.537   4.137
55074SOL     OW66995   5.788   3.976  14.709
55074SOL    HW166996   5.828   3.976  14.796
55074SOL    HW266997   5.823   3.898  14.666
55075SOL     OW66998  12.704   6.920  11.683
55075SOL    HW166999  12.766   6.914  11.611
55075SOL    HW267000  12.741   6.984  11.743
55076SOL     OW67001   8.532   4.593   5.094
55076SOL    HW167002   8.554   4.597   5.187
55076SOL    HW267003   8.538   4.683   5.063
55077SOL     OW67004  11.731   7.820  14.733
55077SOL    HW167005  11.795   7.756  14.765
55077SOL    HW267006  11.664   7.766  14.690
55078SOL     OW67007   4.323   5.089   6.999
55078SOL    HW167008   4.233   5.060   6.985
55078SOL    HW267009   4.337   5.158   6.934
55079SOL     OW67010  10.808   2.730   3.004
55079SOL    HW167011  10.848   2.750   3.089
55079SOL    HW267012  10.847   2.792   2.943
55080SOL     OW67013   6.673  10.348  13.796
55080SOL    HW167014   6.585  10.387  13.789
55080SOL    HW267015   6.730  10.421  13.817
55081SOL     OW67016  10.463   6.012   4.789
55081SOL    HW167017  10.533   6.076   4.778
55081SOL    HW267018  10.441   6.018   4.882
55082SOL     OW67019  10.776   7.812  14.153
55082SOL    HW167020  10.853   7.757  14.172
55082SOL    HW267021  10.705   7.750  14.137
55083SOL     OW67022   3.660   9.900  14.073
55083SOL    HW167023   3.576   9.944  14.086
55083SOL    HW267024   3.672   9.899  13.978
55084SOL     OW67025   4.442  10.171  14.225
55084SOL    HW167026   4.446  10.081  14.194
55084SOL    HW267027   4.383  10.215  14.163
55085SOL     OW67028  13.358  10.619  14.211
55085SOL    HW167029  13.412  10.675  14.267
55085SOL    HW267030  13.279  10.602  14.263
55086SOL     OW67031   0.899  12.575   9.521
55086SOL    HW167032   0.972  12.519   9.549
55086SOL    HW267033   0.931  12.618   9.442
55087SOL     OW67034   9.763   8.063  10.172
55087SOL    HW167035   9.807   8.123  10.112
55087SOL    HW267036   9.703   8.013  10.116
55088SOL     OW67037   9.962  14.369   2.196
55088SOL    HW167038   9.934  14.287   2.155
55088SOL    HW267039   9.963  14.432   2.125
55089SOL     OW67040   4.341  12.435  13.440
55089SOL    HW167041   4.353  12.473  13.353
55089SOL    HW267042   4.268  12.374  13.430
55090SOL     OW67043   8.391  11.085   3.919
55090SOL    HW167044   8.415  11.010   3.973
55090SOL    HW267045   8.300  11.103   3.943
55091SOL     OW67046   3.829   3.878   6.803
55091SOL    HW167047   3.784   3.884   6.887
55091SOL    HW267048   3.921   3.890   6.824
55092SOL     OW67049  12.671   1.286   0.289
55092SOL    HW167050  12.690   1.289   0.195
55092SOL    HW267051  12.726   1.215   0.322
55093SOL     OW67052  11.992  13.366   0.224
55093SOL    HW167053  11.977  13.448   0.271
55093SOL    HW267054  11.905  13.329   0.211
55094SOL     OW67055  13.088   1.739   3.030
55094SOL    HW167056  13.036   1.669   3.069
55094SOL    HW267057  13.024   1.800   2.994
55095SOL     OW67058  10.992   5.546   0.944
55095SOL    HW167059  11.068   5.489   0.933
55095SOL    HW267060  10.975   5.544   1.038
55096SOL     OW67061   9.702   1.952   7.734
55096SOL    HW167062   9.753   2.032   7.728
55096SOL    HW267063   9.611   1.981   7.743
55097SOL     OW67064   7.704  11.220   3.518
55097SOL    HW167065   7.693  11.177   3.603
55097SOL    HW267066   7.756  11.158   3.467
55098SOL     OW67067   4.379   2.085  14.047
55098SOL    HW167068   4.413   1.997  14.064
55098SOL    HW267069   4.404   2.135  14.125
55099SOL     OW67070   0.371   6.667   6.138
55099SOL    HW167071   0.409   6.722   6.205
55099SOL    HW267072   0.308   6.723   6.092
55100SOL     OW67073   7.929   9.906   9.337
55100SOL    HW167074   7.841   9.870   9.348
55100SOL    HW267075   7.918  10.001   9.348
55101SOL     OW67076  11.534  13.449   9.868
55101SOL    HW167077  11.627  13.440   9.846
55101SOL    HW267078  11.504  13.359   9.881
55102SOL     OW67079   5.275   8.331   8.853
55102SOL    HW167080   5.298   8.393   8.784
55102SOL    HW267081   5.348   8.337   8.915
55103SOL     OW67082   9.570   5.183   2.602
55103SOL    HW167083   9.640   5.123   2.630
55103SOL    HW267084   9.496   5.161   2.658
55104SOL     OW67085   6.808   4.953   1.767
55104SOL    HW167086   6.850   4.878   1.725
55104SOL    HW267087   6.715   4.936   1.760
55105SOL     OW67088  12.633  11.706  12.710
55105SOL    HW167089  12.540  11.722  12.723
55105SOL    HW267090  12.637  11.623  12.662
55106SOL     OW67091   2.083  10.304  13.288
55106SOL    HW167092   2.102  10.320  13.196
55106SOL    HW267093   2.012  10.365  13.308
55107SOL     OW67094   4.538   2.607   9.776
55107SOL    HW167095   4.546   2.512   9.768
55107SOL    HW267096   4.583   2.641   9.699
55108SOL     OW67097   2.982   6.793   0.298
55108SOL    HW167098   2.929   6.852   0.245
55108SOL    HW267099   3.035   6.850   0.353
55109SOL     OW67100   6.862  13.393   2.181
55109SOL    HW167101   6.877  13.486   2.162
55109SOL    HW267102   6.945  13.350   2.162
55110SOL     OW67103  10.639   2.449   4.945
55110SOL    HW167104  10.695   2.514   4.903
55110SOL    HW267105  10.667   2.448   5.036
55111SOL     OW67106   4.903  14.499   5.937
55111SOL    HW167107   4.845  14.463   5.870
55111SOL    HW267108   4.948  14.571   5.892
55112SOL     OW67109  12.786   0.090   6.577
55112SOL    HW167110  12.870   0.136   6.568
55112SOL    HW267111  12.747   0.128   6.655
55113SOL     OW67112   4.875   3.180   0.379
55113SOL    HW167113   4.858   3.241   0.451
55113SOL    HW267114   4.814   3.207   0.310
55114SOL     OW67115  13.449   7.361   2.804
55114SOL    HW167116  13.520   7.364   2.868
55114SOL    HW267117  13.369   7.371   2.856
55115SOL     OW67118  13.128  11.348  10.254
55115SOL    HW167119  13.039  11.318  10.275
55115SOL    HW267120  13.161  11.384  10.337
55116SOL     OW67121   6.759   6.390   9.664
55116SOL    HW167122   6.724   6.301   9.668
55116SOL    HW267123   6.776   6.412   9.756
55117SOL     OW67124   0.056   7.500  11.926
55117SOL    HW167125  14.850   7.458  11.945
55117SOL    HW267126   0.034   7.592  11.914
55118SOL     OW67127  13.139   5.979   4.482
55118SOL    HW167128  13.071   5.978   4.549
55118SOL    HW267129  13.158   5.887   4.465
55119SOL     OW67130   5.740  12.586   2.238
55119SOL    HW167131   5.694  12.537   2.306
55119SOL    HW267132   5.832  12.564   2.250
55120SOL     OW67133  14.583   0.200   7.230
55120SOL    HW167134  14.558   0.120   7.276
55120SOL    HW267135  14.628   0.170   7.152
55121SOL     OW67136   6.690   5.374   1.707
55121SOL    HW167137   6.640   5.353   1.629
55121SOL    HW267138   6.625   5.400   1.772
55122SOL     OW67139   4.804   7.007  13.013
55122SOL    HW167140   4.899   6.995  13.017
55122SOL    HW267141   4.785   7.018  12.920
55123SOL     OW67142   3.056  12.649  11.362
55123SOL    HW167143   3.128  12.585  11.365
55123SOL    HW267144   3.002  12.620  11.288
55124SOL     OW67145  13.040   6.399   5.627
55124SOL    HW167146  13.048   6.408   5.722
55124SOL    HW267147  13.096   6.324   5.605
55125SOL     OW67148   1.698  12.104  12.707
55125SOL    HW167149   1.744  12.184  12.681
55125SOL    HW267150   1.610  12.115  12.672
55126SOL     OW67151  13.877   5.497   6.527
55126SOL    HW167152  13.791   5.513   6.564
55126SOL    HW267153  13.860   5.452   6.444
55127SOL     OW67154   3.784   8.097   5.490
55127SOL    HW167155   3.701   8.123   5.451
55127SOL    HW267156   3.759   8.049   5.569
55128SOL     OW67157   8.204  12.197   7.817
55128SOL    HW167158   8.164  12.190   7.904
55128SOL    HW267159   8.252  12.115   7.806
55129SOL     OW67160   3.626  14.025   3.955
55129SOL    HW167161   3.599  13.934   3.962
55129SOL    HW267162   3.688  14.037   4.027
55130SOL     OW67163   7.750   5.758   6.780
55130SOL    HW167164   7.840   5.763   6.811
55130SOL    HW267165   7.697   5.770   6.858
55131SOL     OW67166   7.520   0.020   8.646
55131SOL    HW167167   7.502   0.114   8.653
55131SOL    HW267168   7.612   0.012   8.671
55132SOL     OW67169   9.400   3.934   9.493
55132SOL    HW167170   9.421   3.994   9.564
55132SOL    HW267171   9.411   3.847   9.532
55133SOL     OW67172   0.122   3.587   3.981
55133SOL    HW167173   0.086   3.532   4.050
55133SOL    HW267174   0.046   3.632   3.943
55134SOL     OW67175   6.021   2.940   3.772
55134SOL    HW167176   6.052   3.004   3.708
55134SOL    HW267177   5.952   2.986   3.820
55135SOL     OW67178   3.504   0.813   0.022
55135SOL    HW167179   3.503   0.905   0.048
55135SOL    HW267180   3.444   0.809  14.825
55136SOL     OW67181   6.614  13.875   4.520
55136SOL    HW167182   6.592  13.831   4.437
55136SOL    HW267183   6.659  13.808   4.571
55137SOL     OW67184  12.768   3.045   4.143
55137SOL    HW167185  12.676   3.018   4.141
55137SOL    HW267186  12.818   2.964   4.135
55138SOL     OW67187   4.012   2.972  10.171
55138SOL    HW167188   4.032   3.030  10.245
55138SOL    HW267189   3.927   2.934  10.193
55139SOL     OW67190   2.791  13.338   7.802
55139SOL    HW167191   2.811  13.402   7.734
55139SOL    HW267192   2.789  13.389   7.883
55140SOL     OW67193   4.559   1.098   0.741
55140SOL    HW167194   4.554   1.175   0.685
55140SOL    HW267195   4.633   1.047   0.706
55141SOL     OW67196   5.896   0.372   2.611
55141SOL    HW167197   5.935   0.285   2.615
55141SOL    HW267198   5.967   0.431   2.637
55142SOL     OW67199  12.238   5.545   3.953
55142SOL    HW167200  12.299   5.539   3.880
55142SOL    HW267201  12.206   5.635   3.951
55143SOL     OW67202  14.534  12.284  13.094
55143SOL    HW167203  14.476  12.337  13.148
55143SOL    HW267204  14.475  12.224  13.047
55144SOL     OW67205  14.531   6.427   7.702
55144SOL    HW167206  14.515   6.516   7.733
55144SOL    HW267207  14.578   6.385   7.774
55145SOL     OW67208   5.045   7.177  12.617
55145SOL    HW167209   5.055   7.086  12.590
55145SOL    HW267210   5.082   7.181  12.705
55146SOL     OW67211   8.835  12.181   6.783
55146SOL    HW167212   8.895  12.120   6.828
55146SOL    HW267213   8.749  12.142   6.794
55147SOL     OW67214  10.171   8.170  13.002
55147SOL    HW167215  10.152   8.218  13.083
55147SOL    HW267216  10.113   8.208  12.937
55148SOL     OW67217   0.766   4.572   7.523
55148SOL    HW167218   0.678   4.536   7.508
55148SOL    HW267219   0.763   4.658   7.480
55149SOL     OW67220   7.784   5.240  10.027
55149SOL    HW167221   7.695   5.267  10.050
55149SOL    HW267222   7.774   5.153   9.990
55150SOL     OW67223  10.014   9.321   4.707
55150SOL    HW167224  10.072   9.248   4.689
55150SOL    HW267225   9.935   9.281   4.744
55151SOL     OW67226   7.588  14.627  10.494
55151SOL    HW167227   7.523  14.697  10.494
55151SOL    HW267228   7.540  14.549  10.522
55152SOL     OW67229   0.344   1.488   0.736
55152SOL    HW167230   0.400   1.461   0.809
55152SOL    HW267231   0.405   1.509   0.665
55153SOL     OW67232  10.500  10.444   8.392
55153SOL    HW167233  10.490  10.535   8.363
55153SOL    HW267234  10.421  10.400   8.362
55154SOL     OW67235  12.031   6.534   3.208
55154SOL    HW167236  12.038   6.440   3.225
55154SOL    HW267237  11.998   6.571   3.290
55155SOL     OW67238  14.563   8.565   5.583
55155SOL    HW167239  14.485   8.593   5.632
55155SOL    HW267240  14.528   8.526   5.503
55156SOL     OW67241   4.118  12.630   7.870
55156SOL    HW167242   4.199  12.608   7.824
55156SOL    HW267243   4.122  12.581   7.952
55157SOL     OW67244   1.115  11.263   5.620
55157SOL    HW167245   1.135  11.201   5.690
55157SOL    HW267246   1.183  11.330   5.626
55158SOL     OW67247   9.038  10.334   3.614
55158SOL    HW167248   9.081  10.398   3.558
55158SOL    HW267249   9.027  10.378   3.698
55159SOL     OW67250  14.361  13.237   4.043
55159SOL    HW167251  14.436  13.294   4.027
55159SOL    HW267252  14.306  13.247   3.965
55160SOL     OW67253  10.270   8.252  10.099
55160SOL    HW167254  10.335   8.322  10.107
55160SOL    HW267255  10.223   8.272  10.018
55161SOL     OW67256   9.779   8.541  11.242
55161SOL    HW167257   9.755   8.472  11.305
55161SOL    HW267258   9.787   8.494  11.158
55162SOL     OW67259   8.462   5.841   2.535
55162SOL    HW167260   8.553   5.868   2.548
55162SOL    HW267261   8.431   5.819   2.623
55163SOL     OW67262   8.421   4.497  13.448
55163SOL    HW167263   8.394   4.542  13.529
55163SOL    HW267264   8.415   4.564  13.380
55164SOL     OW67265  12.954  13.153   9.476
55164SOL    HW167266  13.027  13.196   9.432
55164SOL    HW267267  12.994  13.080   9.524
55165SOL     OW67268   2.016   7.975  11.018
55165SOL    HW167269   2.004   7.957  11.111
55165SOL    HW267270   1.965   7.906  10.974
55166SOL     OW67271   6.142  13.448   2.795
55166SOL    HW167272   6.152  13.375   2.856
55166SOL    HW267273   6.064  13.494   2.824
55167SOL     OW67274  13.708   4.232  10.524
55167SOL    HW167275  13.684   4.287  10.449
55167SOL    HW267276  13.745   4.293  10.588
55168SOL     OW67277   8.756   9.314   5.091
55168SOL    HW167278   8.719   9.378   5.151
55168SOL    HW267279   8.761   9.233   5.142
55169SOL     OW67280   5.911  10.482   7.855
55169SOL    HW167281   5.953  10.460   7.772
55169SOL    HW267282   5.974  10.540   7.899
55170SOL     OW67283   7.666  13.444  13.547
55170SOL    HW167284   7.606  13.471  13.477
55170SOL    HW267285   7.623  13.370  13.588
55171SOL     OW67286   1.529  12.193  12.465
55171SOL    HW167287   1.508  12.102  12.446
55171SOL    HW267288   1.454  12.243  12.433
55172SOL     OW67289  14.241   6.688   7.020
55172SOL    HW167290  14.226   6.740   7.099
55172SOL    HW267291  14.245   6.598   7.053
55173SOL     OW67292   9.586   7.828   6.847
55173SOL    HW167293   9.533   7.904   6.873
55173SOL    HW267294   9.654   7.822   6.915
55174SOL     OW67295   1.951  11.571   5.445
55174SOL    HW167296   1.979  11.521   5.368
55174SOL    HW267297   1.860  11.546   5.458
55175SOL     OW67298   4.360   7.706  12.196
55175SOL    HW167299   4.369   7.672  12.285
55175SOL    HW267300   4.449   7.710  12.162
55176SOL     OW67301   0.677   0.391   4.018
55176SOL    HW167302   0.596   0.439   4.031
55176SOL    HW267303   0.709   0.419   3.933
55177SOL     OW67304   6.748   3.786   7.765
55177SOL    HW167305   6.663   3.766   7.726
55177SOL    HW267306   6.743   3.747   7.853
55178SOL     OW67307   6.830   1.332   4.425
55178SOL    HW167308   6.803   1.419   4.396
55178SOL    HW267309   6.749   1.288   4.449
55179SOL     OW67310  14.872   4.169  13.506
55179SOL    HW167311   0.069   4.229  13.499
55179SOL    HW267312  14.817   4.189  13.430
55180SOL     OW67313   5.597   6.723   3.299
55180SOL    HW167314   5.594   6.628   3.285
55180SOL    HW267315   5.629   6.732   3.389
55181SOL     OW67316   4.826  13.975  12.210
55181SOL    HW167317   4.896  14.014  12.262
55181SOL    HW267318   4.867  13.897  12.172
55182SOL     OW67319   8.240   2.125  10.426
55182SOL    HW167320   8.150   2.093  10.438
55182SOL    HW267321   8.272   2.079  10.348
55183SOL     OW67322   3.703  10.760  13.325
55183SOL    HW167323   3.660  10.816  13.260
55183SOL    HW267324   3.756  10.820  13.377
55184SOL     OW67325   7.326  12.400   8.299
55184SOL    HW167326   7.263  12.349   8.248
55184SOL    HW267327   7.380  12.334   8.343
55185SOL     OW67328  14.018   3.974  11.012
55185SOL    HW167329  13.989   3.963  11.103
55185SOL    HW267330  14.111   3.994  11.019
55186SOL     OW67331   7.860   6.976   7.577
55186SOL    HW167332   7.948   6.938   7.573
55186SOL    HW267333   7.873   7.063   7.613
55187SOL     OW67334   6.936   0.794   4.093
55187SOL    HW167335   6.900   0.738   4.162
55187SOL    HW267336   6.907   0.882   4.115
55188SOL     OW67337  10.354   6.133   2.366
55188SOL    HW167338  10.417   6.189   2.321
55188SOL    HW267339  10.269   6.168   2.341
55189SOL     OW67340   2.929  11.783   7.976
55189SOL    HW167341   2.875  11.861   7.961
55189SOL    HW267342   2.981  11.774   7.897
55190SOL     OW67343   4.271   2.279   5.031
55190SOL    HW167344   4.219   2.359   5.035
55190SOL    HW267345   4.299   2.273   4.940
55191SOL     OW67346   5.283   7.450   2.177
55191SOL    HW167347   5.260   7.391   2.105
55191SOL    HW267348   5.205   7.452   2.232
55192SOL     OW67349  12.177   7.147   4.361
55192SOL    HW167350  12.235   7.218   4.335
55192SOL    HW267351  12.144   7.111   4.279
55193SOL     OW67352   3.028  12.379  11.722
55193SOL    HW167353   3.102  12.343  11.674
55193SOL    HW267354   3.061  12.390  11.811
55194SOL     OW67355  14.710   0.145   6.987
55194SOL    HW167356  14.771   0.072   6.977
55194SOL    HW267357  14.734   0.207   6.918
55195SOL     OW67358   7.411   0.433   1.036
55195SOL    HW167359   7.434   0.406   0.947
55195SOL    HW267360   7.315   0.436   1.036
55196SOL     OW67361   6.170   4.556   2.732
55196SOL    HW167362   6.246   4.563   2.790
55196SOL    HW267363   6.180   4.629   2.671
55197SOL     OW67364   3.065   3.954  10.526
55197SOL    HW167365   3.072   3.893  10.600
55197SOL    HW267366   3.155   3.982  10.509
55198SOL     OW67367   8.557   9.940   9.032
55198SOL    HW167368   8.595   9.937   9.120
55198SOL    HW267369   8.463   9.935   9.046
55199SOL     OW67370   4.379   3.483   6.447
55199SOL    HW167371   4.343   3.540   6.379
55199SOL    HW267372   4.327   3.504   6.525
55200SOL     OW67373   0.222   4.533  13.530
55200SOL    HW167374   0.317   4.540  13.517
55200SOL    HW267375   0.210   4.537  13.625
55201SOL     OW67376   0.408   0.663  11.732
55201SOL    HW167377   0.355   0.703  11.663
55201SOL    HW267378   0.474   0.730  11.752
55202SOL     OW67379   4.720  11.873   4.332
55202SOL    HW167380   4.645  11.833   4.375
55202SOL    HW267381   4.781  11.802   4.318
55203SOL     OW67382  14.591   3.702  13.917
55203SOL    HW167383  14.580   3.614  13.881
55203SOL    HW267384  14.535   3.702  13.995
55204SOL     OW67385  14.262   8.315   1.695
55204SOL    HW167386  14.288   8.302   1.603
55204SOL    HW267387  14.343   8.300   1.744
55205SOL     OW67388  14.315  14.820  14.788
55205SOL    HW167389  14.360  14.736  14.803
55205SOL    HW267390  14.222  14.797  14.789
55206SOL     OW67391   7.199  10.271   7.842
55206SOL    HW167392   7.266  10.339   7.830
55206SOL    HW267393   7.202  10.250   7.935
55207SOL     OW67394   4.916   3.397   2.552
55207SOL    HW167395   4.820   3.400   2.549
55207SOL    HW267396   4.936   3.341   2.627
55208SOL     OW67397   8.511  13.618   3.888
55208SOL    HW167398   8.490  13.686   3.952
55208SOL    HW267399   8.460  13.543   3.915
55209SOL     OW67400   7.672   0.053   6.714
55209SOL    HW167401   7.654  14.863   6.780
55209SOL    HW267402   7.761   0.081   6.733
55210SOL     OW67403   7.418   5.722  11.860
55210SOL    HW167404   7.377   5.742  11.944
55210SOL    HW267405   7.361   5.763  11.795
55211SOL     OW67406  12.798   7.031  14.735
55211SOL    HW167407  12.887   7.059  14.754
55211SOL    HW267408  12.746   7.064  14.808
55212SOL     OW67409  11.968   0.034   1.264
55212SOL    HW167410  11.945   0.074   1.348
55212SOL    HW267411  11.911   0.079   1.201
55213SOL     OW67412   0.880   8.133  14.353
55213SOL    HW167413   0.948   8.161  14.292
55213SOL    HW267414   0.798   8.145  14.304
55214SOL     OW67415   7.290  12.712   4.596
55214SOL    HW167416   7.342  12.771   4.542
55214SOL    HW267417   7.200  12.724   4.566
55215SOL     OW67418   6.224   1.485  11.916
55215SOL    HW167419   6.149   1.538  11.890
55215SOL    HW267420   6.281   1.546  11.962
55216SOL     OW67421  11.527   8.674   8.789
55216SOL    HW167422  11.605   8.730   8.785
55216SOL    HW267423  11.544   8.604   8.726
55217SOL     OW67424  12.346   1.202  11.785
55217SOL    HW167425  12.328   1.238  11.698
55217SOL    HW267426  12.399   1.268  11.828
55218SOL     OW67427  10.900   5.467   3.378
55218SOL    HW167428  10.937   5.554   3.394
55218SOL    HW267429  10.911   5.453   3.284
55219SOL     OW67430   3.852  11.490   7.889
55219SOL    HW167431   3.819  11.565   7.939
55219SOL    HW267432   3.774  11.449   7.852
55220SOL     OW67433   7.504  10.213   4.597
55220SOL    HW167434   7.568  10.159   4.644
55220SOL    HW267435   7.536  10.302   4.607
55221SOL     OW67436   1.018  14.101   4.375
55221SOL    HW167437   0.939  14.156   4.375
55221SOL    HW267438   1.052  14.108   4.286
55222SOL     OW67439  14.039   2.153   8.371
55222SOL    HW167440  14.036   2.099   8.450
55222SOL    HW267441  14.086   2.232   8.398
55223SOL     OW67442   4.074   5.762   0.059
55223SOL    HW167443   4.061   5.670   0.038
55223SOL    HW267444   4.094   5.763   0.153
55224SOL     OW67445   1.110   8.613   2.136
55224SOL    HW167446   1.090   8.520   2.150
55224SOL    HW267447   1.032   8.659   2.166
55225SOL     OW67448   2.215   0.347  10.515
55225SOL    HW167449   2.270   0.413  10.558
55225SOL    HW267450   2.139   0.396  10.484
55226SOL     OW67451  12.402   2.890   1.934
55226SOL    HW167452  12.355   2.928   1.860
55226SOL    HW267453  12.494   2.892   1.907
55227SOL     OW67454  11.754   8.775   5.016
55227SOL    HW167455  11.739   8.731   4.932
55227SOL    HW267456  11.811   8.715   5.064
55228SOL     OW67457   1.055   4.764  12.075
55228SOL    HW167458   1.030   4.727  11.991
55228SOL    HW267459   1.132   4.714  12.102
55229SOL     OW67460   4.278  11.914   6.018
55229SOL    HW167461   4.212  11.908   5.950
55229SOL    HW267462   4.345  11.972   5.982
55230SOL     OW67463  11.653   9.449   7.927
55230SOL    HW167464  11.649   9.389   8.001
55230SOL    HW267465  11.661   9.536   7.967
55231SOL     OW67466   9.398   4.456   1.587
55231SOL    HW167467   9.456   4.499   1.524
55231SOL    HW267468   9.455   4.398   1.636
55232SOL     OW67469  10.455  14.323   0.153
55232SOL    HW167470  10.480  14.339   0.244
55232SOL    HW267471  10.418  14.407   0.123
55233SOL     OW67472  12.085   5.560  11.158
55233SOL    HW167473  12.047   5.476  11.133
55233SOL    HW267474  12.134   5.588  11.080
55234SOL     OW67475   1.136   5.658   0.311
55234SOL    HW167476   1.116   5.584   0.368
55234SOL    HW267477   1.121   5.624   0.223
55235SOL     OW67478  13.796   8.628   1.127
55235SOL    HW167479  13.809   8.610   1.033
55235SOL    HW267480  13.882   8.612   1.166
55236SOL     OW67481  12.839   7.813   7.774
55236SOL    HW167482  12.862   7.797   7.683
55236SOL    HW267483  12.912   7.864   7.809
55237SOL     OW67484   3.724   7.954  10.948
55237SOL    HW167485   3.649   7.966  10.890
55237SOL    HW267486   3.794   7.921  10.891
55238SOL     OW67487   6.739   3.820  11.520
55238SOL    HW167488   6.788   3.741  11.543
55238SOL    HW267489   6.778   3.849  11.437
55239SOL     OW67490   0.956  12.904   2.099
55239SOL    HW167491   0.908  12.959   2.037
55239SOL    HW267492   0.997  12.966   2.159
55240SOL     OW67493   7.907  11.679  12.814
55240SOL    HW167494   7.877  11.655  12.902
55240SOL    HW267495   7.990  11.632  12.804
55241SOL     OW67496  12.617   9.988   1.463
55241SOL    HW167497  12.678   9.919   1.489
55241SOL    HW267498  12.538   9.941   1.437
55242SOL     OW67499   9.218   4.893   0.366
55242SOL    HW167500   9.283   4.848   0.312
55242SOL    HW267501   9.229   4.986   0.344
55243SOL     OW67502   0.729   9.990   1.334
55243SOL    HW167503   0.690   9.917   1.382
55243SOL    HW267504   0.782   9.948   1.265
55244SOL     OW67505  14.171   6.507   5.102
55244SOL    HW167506  14.116   6.584   5.119
55244SOL    HW267507  14.135   6.470   5.022
55245SOL     OW67508   7.518   2.847   2.661
55245SOL    HW167509   7.502   2.867   2.753
55245SOL    HW267510   7.485   2.758   2.649
55246SOL     OW67511   8.225  12.519   5.489
55246SOL    HW167512   8.163  12.587   5.464
55246SOL    HW267513   8.264  12.550   5.571
55247SOL     OW67514   2.446  11.745   0.783
55247SOL    HW167515   2.413  11.713   0.699
55247SOL    HW267516   2.370  11.741   0.841
55248SOL     OW67517   9.501  11.773   8.612
55248SOL    HW167518   9.512  11.868   8.611
55248SOL    HW267519   9.416  11.759   8.653
55249SOL     OW67520  11.556   4.729   8.450
55249SOL    HW167521  11.466   4.760   8.467
55249SOL    HW267522  11.553   4.697   8.360
55250SOL     OW67523   6.088   7.542   8.077
55250SOL    HW167524   6.170   7.496   8.063
55250SOL    HW267525   6.023   7.489   8.031
55251SOL     OW67526   5.930  11.532   8.293
55251SOL    HW167527   5.925  11.472   8.368
55251SOL    HW267528   5.966  11.612   8.330
55252SOL     OW67529  14.454   6.377  14.289
55252SOL    HW167530  14.386   6.311  14.276
55252SOL    HW267531  14.473   6.373  14.382
55253SOL     OW67532   5.838   4.952  13.522
55253SOL    HW167533   5.802   5.041  13.531
55253SOL    HW267534   5.925   4.966  13.485
55254SOL     OW67535  12.378  13.031   8.754
55254SOL    HW167536  12.336  13.114   8.775
55254SOL    HW267537  12.469  13.043   8.780
55255SOL     OW67538   3.638  13.863   2.274
55255SOL    HW167539   3.612  13.794   2.335
55255SOL    HW267540   3.557  13.885   2.227
55256SOL     OW67541  13.971   0.892   0.011
55256SOL    HW167542  13.905   0.959   0.030
55256SOL    HW267543  13.955   0.869  14.797
55257SOL     OW67544  13.001   8.387   7.205
55257SOL    HW167545  12.981   8.317   7.267
55257SOL    HW267546  13.005   8.466   7.259
55258SOL     OW67547  10.482   8.289   0.604
55258SOL    HW167548  10.479   8.353   0.674
55258SOL    HW267549  10.573   8.259   0.602
55259SOL     OW67550  14.857  14.851   6.859
55259SOL    HW167551   0.050  14.799   6.900
55259SOL    HW267552   0.022   0.015   6.784
55260SOL     OW67553   2.175  13.644  10.247
55260SOL    HW167554   2.199  13.626  10.156
55260SOL    HW267555   2.102  13.706  10.241
55261SOL     OW67556   4.168  10.222   0.019
55261SOL    HW167557   4.126  10.137   0.008
55261SOL    HW267558   4.212  10.217   0.103
55262SOL     OW67559   9.170   8.060  12.342
55262SOL    HW167560   9.163   8.046  12.436
55262SOL    HW267561   9.126   7.985  12.303
55263SOL     OW67562  13.469  12.407   0.562
55263SOL    HW167563  13.526  12.366   0.627
55263SOL    HW267564  13.384  12.364   0.574
55264SOL     OW67565   0.754  11.523   6.186
55264SOL    HW167566   0.658  11.529   6.189
55264SOL    HW267567   0.783  11.614   6.195
55265SOL     OW67568   0.840   1.085   4.872
55265SOL    HW167569   0.830   1.168   4.826
55265SOL    HW267570   0.849   1.110   4.964
55266SOL     OW67571  12.138   7.429   3.636
55266SOL    HW167572  12.141   7.452   3.728
55266SOL    HW267573  12.225   7.396   3.616
55267SOL     OW67574   3.241  11.439  12.263
55267SOL    HW167575   3.224  11.399  12.178
55267SOL    HW267576   3.190  11.520  12.263
55268SOL     OW67577   8.145   9.401   1.691
55268SOL    HW167578   8.178   9.484   1.727
55268SOL    HW267579   8.169   9.405   1.598
55269SOL     OW67580   4.986   4.902   5.983
55269SOL    HW167581   4.959   4.954   6.058
55269SOL    HW267582   4.907   4.858   5.953
55270SOL     OW67583   2.011  11.831   9.575
55270SOL    HW167584   2.098  11.796   9.561
55270SOL    HW267585   2.018  11.881   9.657
55271SOL     OW67586  14.609   6.410   3.584
55271SOL    HW167587  14.638   6.355   3.511
55271SOL    HW267588  14.639   6.498   3.562
55272SOL     OW67589   7.983  11.879   8.425
55272SOL    HW167590   8.066  11.893   8.379
55272SOL    HW267591   7.929  11.831   8.362
55273SOL     OW67592   3.092  10.291  12.398
55273SOL    HW167593   3.144  10.370  12.418
55273SOL    HW267594   3.029  10.321  12.333
55274SOL     OW67595   0.531  13.844  14.090
55274SOL    HW167596   0.482  13.922  14.067
55274SOL    HW267597   0.586  13.826  14.014
55275SOL     OW67598  11.775   2.292   9.517
55275SOL    HW167599  11.698   2.306   9.573
55275SOL    HW267600  11.849   2.319   9.571
55276SOL     OW67601   2.911   7.621  13.534
55276SOL    HW167602   2.828   7.584  13.503
55276SOL    HW267603   2.952   7.658  13.455
55277SOL     OW67604  14.218   4.835   8.942
55277SOL    HW167605  14.150   4.861   9.005
55277SOL    HW267606  14.173   4.837   8.857
55278SOL     OW67607  11.307   0.080   5.202
55278SOL    HW167608  11.365   0.125   5.263
55278SOL    HW267609  11.324  14.864   5.216
55279SOL     OW67610  14.374   9.865   3.959
55279SOL    HW167611  14.437   9.802   3.924
55279SOL    HW267612  14.414   9.898   4.039
55280SOL     OW67613  13.379   7.267  14.759
55280SOL    HW167614  13.435   7.325  14.810
55280SOL    HW267615  13.417   7.269  14.671
55281SOL     OW67616   1.709   5.332   7.270
55281SOL    HW167617   1.723   5.248   7.226
55281SOL    HW267618   1.614   5.340   7.278
55282SOL     OW67619   3.437  13.695   1.477
55282SOL    HW167620   3.370  13.643   1.432
55282SOL    HW267621   3.416  13.686   1.570
55283SOL     OW67622  11.534  13.809   8.394
55283SOL    HW167623  11.594  13.883   8.407
55283SOL    HW267624  11.559  13.746   8.462
55284SOL     OW67625   9.216   5.814   2.440
55284SOL    HW167626   9.141   5.815   2.381
55284SOL    HW267627   9.191   5.755   2.511
55285SOL     OW67628  12.590   0.442   4.790
55285SOL    HW167629  12.592   0.458   4.884
55285SOL    HW267630  12.507   0.395   4.775
55286SOL     OW67631   0.555   4.366   0.487
55286SOL    HW167632   0.608   4.354   0.408
55286SOL    HW267633   0.528   4.457   0.484
55287SOL     OW67634   4.279   5.273   5.088
55287SOL    HW167635   4.359   5.230   5.058
55287SOL    HW267636   4.307   5.324   5.164
55288SOL     OW67637   0.494  11.527  12.722
55288SOL    HW167638   0.482  11.458  12.657
55288SOL    HW267639   0.580  11.565  12.701
55289SOL     OW67640   1.914  11.642   8.912
55289SOL    HW167641   1.823  11.634   8.941
55289SOL    HW267642   1.909  11.655   8.818
55290SOL     OW67643  10.329  13.367  11.613
55290SOL    HW167644  10.379  13.286  11.603
55290SOL    HW267645  10.369  13.412  11.687
55291SOL     OW67646   5.929   4.450  14.802
55291SOL    HW167647   5.861   4.489  14.747
55291SOL    HW267648   5.936   4.360  14.772
55292SOL     OW67649   2.008   8.152   0.166
55292SOL    HW167650   2.021   8.119   0.255
55292SOL    HW267651   2.080   8.214   0.152
55293SOL     OW67652   2.079  11.028   9.534
55293SOL    HW167653   2.128  11.039   9.616
55293SOL    HW267654   1.991  11.061   9.554
55294SOL     OW67655   0.125  14.685   5.800
55294SOL    HW167656   0.159  14.597   5.780
55294SOL    HW267657   0.074  14.710   5.723
55295SOL     OW67658   0.437   1.236   8.172
55295SOL    HW167659   0.418   1.174   8.101
55295SOL    HW267660   0.358   1.234   8.226
55296SOL     OW67661  10.753  10.101  12.404
55296SOL    HW167662  10.777  10.027  12.347
55296SOL    HW267663  10.786  10.076  12.490
55297SOL     OW67664   3.301   9.779  13.243
55297SOL    HW167665   3.246   9.754  13.169
55297SOL    HW267666   3.360   9.845  13.208
55298SOL     OW67667   3.965  12.202  13.834
55298SOL    HW167668   3.975  12.277  13.776
55298SOL    HW267669   3.871  12.187  13.839
55299SOL     OW67670   7.355  10.002   1.180
55299SOL    HW167671   7.301  10.016   1.258
55299SOL    HW267672   7.388  10.090   1.158
55300SOL     OW67673   9.492   7.324  13.711
55300SOL    HW167674   9.531   7.303  13.796
55300SOL    HW267675   9.502   7.243  13.660
55301SOL     OW67676   7.252   4.380   3.357
55301SOL    HW167677   7.167   4.343   3.380
55301SOL    HW267678   7.287   4.322   3.289
55302SOL     OW67679   0.309   9.579  13.802
55302SOL    HW167680   0.358   9.548  13.725
55302SOL    HW267681   0.245   9.641  13.766
55303SOL     OW67682   7.935  11.547  13.280
55303SOL    HW167683   7.890  11.624  13.247
55303SOL    HW267684   7.880  11.515  13.351
55304SOL     OW67685   6.773   3.312   3.277
55304SOL    HW167686   6.785   3.406   3.268
55304SOL    HW267687   6.797   3.293   3.368
55305SOL     OW67688   2.251   5.276   4.712
55305SOL    HW167689   2.278   5.221   4.785
55305SOL    HW267690   2.331   5.291   4.662
55306SOL     OW67691   6.616   2.754   2.038
55306SOL    HW167692   6.606   2.743   2.133
55306SOL    HW267693   6.590   2.670   2.002
55307SOL     OW67694  14.021   2.628  12.910
55307SOL    HW167695  13.934   2.599  12.939
55307SOL    HW267696  14.052   2.683  12.981
55308SOL     OW67697  13.001  11.407   9.617
55308SOL    HW167698  12.978  11.351   9.691
55308SOL    HW267699  13.017  11.493   9.656
55309SOL     OW67700   5.340  12.530   0.867
55309SOL    HW167701   5.247  12.516   0.883
55309SOL    HW267702   5.354  12.498   0.777
55310SOL     OW67703   1.689   5.659   8.564
55310SOL    HW167704   1.704   5.754   8.566
55310SOL    HW267705   1.628   5.643   8.636
55311SOL     OW67706   4.899   9.348  13.771
55311SOL    HW167707   4.872   9.274  13.824
55311SOL    HW267708   4.879   9.425  13.825
55312SOL     OW67709   6.148   3.317   3.416
55312SOL    HW167710   6.058   3.346   3.401
55312SOL    HW267711   6.201   3.396   3.403
55313SOL     OW67712   5.778   0.999  10.651
55313SOL    HW167713   5.858   0.968  10.608
55313SOL    HW267714   5.752   1.076  10.601
55314SOL     OW67715   2.931   8.916   7.660
55314SOL    HW167716   2.987   8.940   7.734
55314SOL    HW267717   2.883   8.997   7.640
55315SOL     OW67718  14.213   0.858  11.698
55315SOL    HW167719  14.198   0.853  11.792
55315SOL    HW267720  14.283   0.794  11.682
55316SOL     OW67721   4.185  10.938   6.767
55316SOL    HW167722   4.272  10.978   6.770
55316SOL    HW267723   4.194  10.865   6.705
55317SOL     OW67724   6.584   4.566  12.694
55317SOL    HW167725   6.664   4.600  12.734
55317SOL    HW267726   6.600   4.472  12.686
55318SOL     OW67727  12.294   9.490   0.599
55318SOL    HW167728  12.338   9.543   0.532
55318SOL    HW267729  12.262   9.554   0.663
55319SOL     OW67730  14.512   3.363   0.283
55319SOL    HW167731  14.517   3.318   0.198
55319SOL    HW267732  14.418   3.369   0.301
55320SOL     OW67733  13.030   6.156   6.624
55320SOL    HW167734  13.101   6.152   6.689
55320SOL    HW267735  12.970   6.087   6.651
55321SOL     OW67736  12.426   2.646   8.256
55321SOL    HW167737  12.484   2.618   8.327
55321SOL    HW267738  12.344   2.669   8.300
55322SOL     OW67739   6.595   7.677  12.289
55322SOL    HW167740   6.596   7.761  12.242
55322SOL    HW267741   6.517   7.681  12.344
55323SOL     OW67742   5.427  14.548  13.138
55323SOL    HW167743   5.472  14.508  13.064
55323SOL    HW267744   5.386  14.627  13.102
55324SOL     OW67745   8.161  10.484  10.951
55324SOL    HW167746   8.068  10.499  10.966
55324SOL    HW267747   8.194  10.448  11.034
55325SOL     OW67748  11.980   7.996  14.711
55325SOL    HW167749  11.902   7.949  14.682
55325SOL    HW267750  11.959   8.088  14.697
55326SOL     OW67751   8.413   0.948   0.808
55326SOL    HW167752   8.483   0.920   0.751
55326SOL    HW267753   8.365   1.014   0.758
55327SOL     OW67754   9.003  10.179  13.522
55327SOL    HW167755   8.942  10.119  13.566
55327SOL    HW267756   9.073  10.123  13.489
55328SOL     OW67757   1.110   5.100   6.920
55328SOL    HW167758   1.056   5.023   6.937
55328SOL    HW267759   1.181   5.068   6.866
55329SOL     OW67760  13.577  12.773  14.389
55329SOL    HW167761  13.551  12.730  14.471
55329SOL    HW267762  13.510  12.747  14.326
55330SOL     OW67763   8.975   5.900   1.472
55330SOL    HW167764   9.021   5.820   1.499
55330SOL    HW267765   8.987   5.905   1.377
55331SOL     OW67766   4.809   2.631   7.927
55331SOL    HW167767   4.826   2.621   8.021
55331SOL    HW267768   4.885   2.678   7.894
55332SOL     OW67769  10.108   3.321   9.452
55332SOL    HW167770  10.107   3.408   9.492
55332SOL    HW267771  10.024   3.282   9.479
55333SOL     OW67772   2.425   8.422   3.369
55333SOL    HW167773   2.344   8.397   3.324
55333SOL    HW267774   2.486   8.351   3.347
55334SOL     OW67775   8.271   9.829   6.589
55334SOL    HW167776   8.335   9.850   6.657
55334SOL    HW267777   8.226   9.911   6.571
55335SOL     OW67778   8.310   8.270   0.690
55335SOL    HW167779   8.233   8.308   0.733
55335SOL    HW267780   8.282   8.255   0.600
55336SOL     OW67781  11.518   3.323   3.325
55336SOL    HW167782  11.477   3.236   3.328
55336SOL    HW267783  11.450   3.380   3.289
55337SOL     OW67784   0.346   1.083   8.521
55337SOL    HW167785   0.259   1.106   8.553
55337SOL    HW267786   0.339   1.089   8.426
55338SOL     OW67787  10.165   6.621   1.283
55338SOL    HW167788  10.217   6.626   1.203
55338SOL    HW267789  10.137   6.711   1.300
55339SOL     OW67790  11.233  10.931  12.148
55339SOL    HW167791  11.223  10.866  12.079
55339SOL    HW267792  11.259  10.881  12.225
55340SOL     OW67793   8.358  11.748  11.086
55340SOL    HW167794   8.371  11.789  11.000
55340SOL    HW267795   8.264  11.733  11.092
55341SOL     OW67796   3.644  13.956   0.356
55341SOL    HW167797   3.590  13.957   0.277
55341SOL    HW267798   3.720  14.010   0.333
55342SOL     OW67799  11.813   2.844  14.450
55342SOL    HW167800  11.754   2.861  14.523
55342SOL    HW267801  11.755   2.829  14.375
55343SOL     OW67802  14.751   2.269  11.900
55343SOL    HW167803  14.736   2.175  11.910
55343SOL    HW267804  14.716   2.290  11.814
55344SOL     OW67805  14.535  10.967  10.107
55344SOL    HW167806  14.561  10.888  10.154
55344SOL    HW267807  14.578  11.038  10.153
55345SOL     OW67808   7.803   5.687  14.577
55345SOL    HW167809   7.756   5.770  14.570
55345SOL    HW267810   7.759   5.641  14.648
55346SOL     OW67811  10.220   4.873   8.600
55346SOL    HW167812  10.304   4.878   8.645
55346SOL    HW267813  10.161   4.834   8.665
55347SOL     OW67814   0.200  12.277   3.153
55347SOL    HW167815   0.269  12.276   3.086
55347SOL    HW267816   0.232  12.337   3.220
55348SOL     OW67817  10.773   7.099   1.178
55348SOL    HW167818  10.772   7.119   1.084
55348SOL    HW267819  10.856   7.136   1.209
55349SOL     OW67820  10.267  14.505   1.695
55349SOL    HW167821  10.333  14.534   1.633
55349SOL    HW267822  10.302  14.529   1.781
55350SOL     OW67823  13.739   0.922  10.773
55350SOL    HW167824  13.811   0.909  10.835
55350SOL    HW267825  13.667   0.871  10.810
55351SOL     OW67826  10.144   8.531   0.063
55351SOL    HW167827  10.155   8.465  14.872
55351SOL    HW267828  10.074   8.495   0.119
55352SOL     OW67829   0.545   6.581  13.309
55352SOL    HW167830   0.559   6.521  13.383
55352SOL    HW267831   0.597   6.659  13.331
55353SOL     OW67832   7.948  14.496  10.350
55353SOL    HW167833   7.919  14.585  10.331
55353SOL    HW267834   7.919  14.480  10.440
55354SOL     OW67835   8.847  13.547   5.382
55354SOL    HW167836   8.758  13.553   5.416
55354SOL    HW267837   8.835  13.533   5.288
55355SOL     OW67838   8.610   0.113   5.034
55355SOL    HW167839   8.606   0.041   4.972
55355SOL    HW267840   8.695   0.103   5.076
55356SOL     OW67841  11.912   1.855  13.497
55356SOL    HW167842  11.836   1.907  13.469
55356SOL    HW267843  11.944   1.815  13.417
55357SOL     OW67844   9.966   7.762   0.946
55357SOL    HW167845   9.966   7.754   1.041
55357SOL    HW267846   9.881   7.728   0.919
55358SOL     OW67847   5.706   8.671   4.487
55358SOL    HW167848   5.756   8.614   4.428
55358SOL    HW267849   5.677   8.612   4.557
55359SOL     OW67850   9.392   7.774   5.411
55359SOL    HW167851   9.430   7.861   5.415
55359SOL    HW267852   9.466   7.715   5.427
55360SOL     OW67853   6.779   6.496   3.607
55360SOL    HW167854   6.717   6.437   3.648
55360SOL    HW267855   6.830   6.441   3.547
55361SOL     OW67856  14.556   4.168   7.652
55361SOL    HW167857  14.478   4.136   7.607
55361SOL    HW267858  14.535   4.161   7.745
55362SOL     OW67859  10.099  12.404   1.986
55362SOL    HW167860  10.122  12.311   1.977
55362SOL    HW267861  10.008  12.409   1.956
55363SOL     OW67862   1.402  12.481  11.719
55363SOL    HW167863   1.446  12.510  11.640
55363SOL    HW267864   1.320  12.532  11.722
55364SOL     OW67865   9.004   9.639   4.900
55364SOL    HW167866   8.955   9.658   4.820
55364SOL    HW267867   9.079   9.588   4.871
55365SOL     OW67868   8.424  10.742   9.229
55365SOL    HW167869   8.453  10.827   9.196
55365SOL    HW267870   8.505  10.692   9.241
55366SOL     OW67871   9.842   6.624   2.556
55366SOL    HW167872   9.887   6.549   2.595
55366SOL    HW267873   9.750   6.597   2.553
55367SOL     OW67874   6.134   4.988   5.569
55367SOL    HW167875   6.153   4.899   5.540
55367SOL    HW267876   6.201   5.006   5.635
55368SOL     OW67877   0.764   3.143  10.035
55368SOL    HW167878   0.792   3.218   9.982
55368SOL    HW267879   0.674   3.127  10.008
55369SOL     OW67880  11.645   0.273   4.735
55369SOL    HW167881  11.729   0.318   4.731
55369SOL    HW267882  11.624   0.253   4.644
55370SOL     OW67883   6.136   8.870   1.168
55370SOL    HW167884   6.187   8.951   1.171
55370SOL    HW267885   6.093   8.872   1.082
55371SOL     OW67886  12.373   4.657   5.159
55371SOL    HW167887  12.304   4.716   5.129
55371SOL    HW267888  12.340   4.620   5.241
55372SOL     OW67889   0.401  10.103   9.666
55372SOL    HW167890   0.366  10.183   9.707
55372SOL    HW267891   0.331  10.039   9.674
55373SOL     OW67892  10.311   5.231   2.018
55373SOL    HW167893  10.395   5.192   1.997
55373SOL    HW267894  10.314   5.318   1.977
55374SOL     OW67895  13.957  12.884   2.784
55374SOL    HW167896  13.975  12.917   2.696
55374SOL    HW267897  13.881  12.828   2.774
55375SOL     OW67898   9.191   1.449   6.896
55375SOL    HW167899   9.255   1.519   6.910
55375SOL    HW267900   9.202   1.390   6.970
55376SOL     OW67901  12.719   2.369   7.970
55376SOL    HW167902  12.773   2.298   7.937
55376SOL    HW267903  12.763   2.449   7.938
55377SOL     OW67904  11.418   2.249  11.196
55377SOL    HW167905  11.498   2.286  11.159
55377SOL    HW267906  11.439   2.157  11.210
55378SOL     OW67907   0.986  10.364  10.738
55378SOL    HW167908   0.999  10.458  10.741
55378SOL    HW267909   0.991  10.342  10.645
55379SOL     OW67910   5.784   2.128   9.521
55379SOL    HW167911   5.717   2.109   9.586
55379SOL    HW267912   5.866   2.134   9.571
55380SOL     OW67913  10.595   1.612   1.132
55380SOL    HW167914  10.645   1.611   1.213
55380SOL    HW267915  10.548   1.695   1.133
55381SOL     OW67916   7.452   2.087   0.223
55381SOL    HW167917   7.541   2.052   0.225
55381SOL    HW267918   7.417   2.059   0.139
55382SOL     OW67919   9.905   4.940  10.112
55382SOL    HW167920   9.990   4.914  10.149
55382SOL    HW267921   9.883   4.870  10.051
55383SOL     OW67922  11.190  10.801   5.556
55383SOL    HW167923  11.155  10.784   5.468
55383SOL    HW267924  11.219  10.716   5.587
55384SOL     OW67925   4.672   1.371   4.301
55384SOL    HW167926   4.690   1.281   4.275
55384SOL    HW267927   4.749   1.398   4.351
55385SOL     OW67928   4.691   1.375   1.971
55385SOL    HW167929   4.739   1.295   1.993
55385SOL    HW267930   4.742   1.446   2.010
55386SOL     OW67931  13.476   8.786   6.918
55386SOL    HW167932  13.504   8.833   6.839
55386SOL    HW267933  13.430   8.852   6.969
55387SOL     OW67934   8.721   5.639   7.175
55387SOL    HW167935   8.634   5.653   7.213
55387SOL    HW267936   8.712   5.664   7.083
55388SOL     OW67937   4.171   1.904  14.482
55388SOL    HW167938   4.212   1.981  14.522
55388SOL    HW267939   4.200   1.831  14.535
55389SOL     OW67940  10.144   1.236   6.449
55389SOL    HW167941  10.170   1.245   6.541
55389SOL    HW267942  10.222   1.201   6.406
55390SOL     OW67943   3.815  12.590   0.036
55390SOL    HW167944   3.787  12.650   0.105
55390SOL    HW267945   3.831  12.647  14.838
55391SOL     OW67946   2.225   6.438   3.878
55391SOL    HW167947   2.233   6.464   3.970
55391SOL    HW267948   2.302   6.476   3.835
55392SOL     OW67949   8.112  14.473   2.201
55392SOL    HW167950   8.184  14.529   2.232
55392SOL    HW267951   8.156  14.396   2.164
55393SOL     OW67952   3.825   3.199   7.716
55393SOL    HW167953   3.887   3.167   7.782
55393SOL    HW267954   3.777   3.120   7.688
55394SOL     OW67955   9.347   6.719  12.080
55394SOL    HW167956   9.407   6.645  12.093
55394SOL    HW267957   9.301   6.699  11.998
55395SOL     OW67958   5.468  12.795  11.478
55395SOL    HW167959   5.419  12.752  11.548
55395SOL    HW267960   5.521  12.725  11.440
55396SOL     OW67961  12.652  12.961  10.196
55396SOL    HW167962  12.664  13.042  10.244
55396SOL    HW267963  12.607  12.987  10.115
55397SOL     OW67964   0.915  11.217  11.992
55397SOL    HW167965   0.941  11.163  12.067
55397SOL    HW267966   0.924  11.160  11.916
55398SOL     OW67967  10.329   1.784  13.709
55398SOL    HW167968  10.294   1.699  13.681
55398SOL    HW267969  10.408   1.796  13.657
55399SOL     OW67970  13.012  10.375  12.198
55399SOL    HW167971  12.922  10.406  12.205
55399SOL    HW267972  13.005  10.280  12.189
55400SOL     OW67973  11.768   0.203   8.180
55400SOL    HW167974  11.775   0.298   8.176
55400SOL    HW267975  11.807   0.172   8.098
55401SOL     OW67976   9.040   1.923   5.505
55401SOL    HW167977   9.096   1.998   5.521
55401SOL    HW267978   9.082   1.875   5.434
55402SOL     OW67979   6.328   0.212   6.844
55402SOL    HW167980   6.242   0.253   6.857
55402SOL    HW267981   6.371   0.266   6.777
55403SOL     OW67982   7.285   0.005   9.117
55403SOL    HW167983   7.381   0.000   9.115
55403SOL    HW267984   7.257  14.795   9.088
55404SOL     OW67985   7.676   5.885   9.420
55404SOL    HW167986   7.615   5.953   9.447
55404SOL    HW267987   7.711   5.849   9.502
55405SOL     OW67988  12.773  11.287   0.139
55405SOL    HW167989  12.691  11.316   0.180
55405SOL    HW267990  12.842  11.317   0.198
55406SOL     OW67991   4.091   7.630   5.224
55406SOL    HW167992   4.123   7.720   5.212
55406SOL    HW267993   4.168   7.576   5.207
55407SOL     OW67994   4.814   3.989   4.330
55407SOL    HW167995   4.857   3.985   4.244
55407SOL    HW267996   4.808   3.898   4.358
55408SOL     OW67997   9.706   3.561   3.446
55408SOL    HW167998   9.782   3.596   3.399
55408SOL    HW267999   9.643   3.633   3.447
55409SOL     OW68000  10.602  13.841   0.168
55409SOL    HW168001  10.514  13.868   0.193
55409SOL    HW268002  10.659  13.895   0.223
55410SOL     OW68003  12.498   1.408   5.279
55410SOL    HW168004  12.552   1.377   5.352
55410SOL    HW268005  12.500   1.335   5.217
55411SOL     OW68006   5.026  13.669   6.922
55411SOL    HW168007   5.097  13.608   6.943
55411SOL    HW268008   4.950  13.613   6.907
55412SOL     OW68009   5.529   5.721  14.719
55412SOL    HW168010   5.456   5.725  14.657
55412SOL    HW268011   5.489   5.745  14.803
55413SOL     OW68012   8.943   2.081   8.849
55413SOL    HW168013   8.870   2.042   8.801
55413SOL    HW268014   9.010   2.096   8.782
55414SOL     OW68015   5.174   5.311   1.002
55414SOL    HW168016   5.145   5.308   1.093
55414SOL    HW268017   5.209   5.224   0.984
55415SOL     OW68018  11.559  11.125   7.534
55415SOL    HW168019  11.476  11.167   7.557
55415SOL    HW268020  11.589  11.085   7.615
55416SOL     OW68021   1.295  14.789   9.255
55416SOL    HW168022   1.340  14.873   9.259
55416SOL    HW268023   1.321  14.744   9.336
55417SOL     OW68024  12.203   2.201  12.770
55417SOL    HW168025  12.208   2.286  12.813
55417SOL    HW268026  12.265   2.206  12.698
55418SOL     OW68027   3.109   8.132   8.688
55418SOL    HW168028   3.130   8.075   8.614
55418SOL    HW268029   3.178   8.198   8.688
55419SOL     OW68030   2.624  14.141   2.955
55419SOL    HW168031   2.614  14.097   2.871
55419SOL    HW268032   2.535  14.150   2.989
55420SOL     OW68033   0.308   2.145   5.834
55420SOL    HW168034   0.395   2.183   5.841
55420SOL    HW268035   0.288   2.146   5.741
55421SOL     OW68036  11.645   8.045  11.534
55421SOL    HW168037  11.675   7.975  11.592
55421SOL    HW268038  11.554   8.058  11.558
55422SOL     OW68039   8.544   8.889  11.581
55422SOL    HW168040   8.578   8.977  11.597
55422SOL    HW268041   8.567   8.840  11.660
55423SOL     OW68042  10.160  12.111   3.325
55423SOL    HW168043  10.171  12.050   3.252
55423SOL    HW268044  10.127  12.057   3.397
55424SOL     OW68045   7.346   2.547   4.967
55424SOL    HW168046   7.353   2.567   5.061
55424SOL    HW268047   7.431   2.571   4.931
55425SOL     OW68048   3.564  11.653   2.000
55425SOL    HW168049   3.653  11.648   2.035
55425SOL    HW268050   3.559  11.741   1.962
55426SOL     OW68051  14.426   9.949   5.163
55426SOL    HW168052  14.405   9.877   5.103
55426SOL    HW268053  14.504   9.990   5.124
55427SOL     OW68054   4.143   7.946   9.480
55427SOL    HW168055   4.064   7.893   9.477
55427SOL    HW268056   4.114   8.031   9.513
55428SOL     OW68057  14.831   9.262  10.541
55428SOL    HW168058  14.763   9.195  10.536
55428SOL    HW268059  14.784   9.345  10.533
55429SOL     OW68060   1.001   8.652  12.781
55429SOL    HW168061   0.947   8.731  12.795
55429SOL    HW268062   1.034   8.662  12.692
55430SOL     OW68063   5.546   7.516   2.282
55430SOL    HW168064   5.596   7.445   2.321
55430SOL    HW268065   5.462   7.477   2.257
55431SOL     OW68066  10.789  13.848  12.657
55431SOL    HW168067  10.850  13.872  12.726
55431SOL    HW268068  10.845  13.816  12.586
55432SOL     OW68069   7.958  11.698   8.006
55432SOL    HW168070   7.999  11.611   8.013
55432SOL    HW268071   7.873  11.681   7.966
55433SOL     OW68072   3.036   5.356   3.291
55433SOL    HW168073   3.034   5.375   3.197
55433SOL    HW268074   3.059   5.440   3.331
55434SOL     OW68075   8.448   7.881   5.396
55434SOL    HW168076   8.536   7.849   5.374
55434SOL    HW268077   8.395   7.857   5.320
55435SOL     OW68078  13.650   8.282  14.006
55435SOL    HW168079  13.646   8.316  14.096
55435SOL    HW268080  13.648   8.360  13.951
55436SOL     OW68081  14.294   2.306   5.069
55436SOL    HW168082  14.208   2.266   5.084
55436SOL    HW268083  14.345   2.281   5.146
55437SOL     OW68084   0.324  13.097  10.570
55437SOL    HW168085   0.365  13.102  10.657
55437SOL    HW268086   0.347  13.010  10.538
55438SOL     OW68087   1.874   7.387   7.930
55438SOL    HW168088   1.836   7.373   7.843
55438SOL    HW268089   1.953   7.334   7.931
55439SOL     OW68090   8.323   0.816   4.188
55439SOL    HW168091   8.263   0.777   4.253
55439SOL    HW268092   8.294   0.907   4.181
55440SOL     OW68093   6.850   4.633   8.426
55440SOL    HW168094   6.875   4.541   8.424
55440SOL    HW268095   6.932   4.680   8.443
55441SOL     OW68096  14.619   2.223   8.714
55441SOL    HW168097  14.549   2.167   8.679
55441SOL    HW268098  14.573   2.288   8.767
55442SOL     OW68099   0.738   6.828   7.278
55442SOL    HW168100   0.698   6.908   7.244
55442SOL    HW268101   0.666   6.780   7.318
55443SOL     OW68102  11.397   3.171   2.002
55443SOL    HW168103  11.337   3.127   1.941
55443SOL    HW268104  11.347   3.181   2.082
55444SOL     OW68105   3.656  10.403   6.632
55444SOL    HW168106   3.632  10.456   6.709
55444SOL    HW268107   3.713  10.335   6.668
55445SOL     OW68108   9.304  10.535   2.750
55445SOL    HW168109   9.320  10.629   2.762
55445SOL    HW268110   9.246  10.511   2.823
55446SOL     OW68111  11.757  11.347   5.925
55446SOL    HW168112  11.729  11.256   5.928
55446SOL    HW268113  11.841  11.348   5.971
55447SOL     OW68114   2.201  12.247   9.988
55447SOL    HW168115   2.186  12.340  10.001
55447SOL    HW268116   2.167  12.228   9.901
55448SOL     OW68117  13.215  12.916   0.037
55448SOL    HW168118  13.238  12.984  14.851
55448SOL    HW268119  13.247  12.949   0.120
55449SOL     OW68120  14.562   2.755  10.692
55449SOL    HW168121  14.543   2.826  10.632
55449SOL    HW268122  14.530   2.785  10.777
55450SOL     OW68123   0.941   1.675   5.002
55450SOL    HW168124   0.986   1.679   4.918
55450SOL    HW268125   0.925   1.766   5.026
55451SOL     OW68126   6.114   3.409   8.597
55451SOL    HW168127   6.052   3.338   8.614
55451SOL    HW268128   6.187   3.392   8.655
55452SOL     OW68129   8.261   5.723   6.814
55452SOL    HW168130   8.308   5.647   6.780
55452SOL    HW268131   8.295   5.734   6.903
55453SOL     OW68132  12.273   9.303   5.803
55453SOL    HW168133  12.196   9.334   5.755
55453SOL    HW268134  12.328   9.382   5.814
55454SOL     OW68135   5.615  11.003  12.304
55454SOL    HW168136   5.691  10.950  12.281
55454SOL    HW268137   5.651  11.081  12.345
55455SOL     OW68138   1.505   6.243  14.121
55455SOL    HW168139   1.461   6.185  14.183
55455SOL    HW268140   1.499   6.329  14.161
55456SOL     OW68141   5.976   8.572  10.143
55456SOL    HW168142   6.009   8.631  10.076
55456SOL    HW268143   5.938   8.629  10.210
55457SOL     OW68144  11.534   6.103   2.196
55457SOL    HW168145  11.624   6.095   2.165
55457SOL    HW268146  11.488   6.029   2.157
55458SOL     OW68147   5.832   8.478  11.990
55458SOL    HW168148   5.765   8.416  12.018
55458SOL    HW268149   5.914   8.431  12.001
55459SOL     OW68150  12.625  14.051  11.441
55459SOL    HW168151  12.588  14.066  11.528
55459SOL    HW268152  12.609  13.959  11.423
55460SOL     OW68153   1.929   8.830  12.277
55460SOL    HW168154   1.863   8.838  12.208
55460SOL    HW268155   1.923   8.739  12.305
55461SOL     OW68156   0.996  12.349   6.260
55461SOL    HW168157   0.985  12.289   6.334
55461SOL    HW268158   1.091  12.360   6.252
55462SOL     OW68159  10.850  12.565   0.571
55462SOL    HW168160  10.923  12.508   0.548
55462SOL    HW268161  10.796  12.568   0.492
55463SOL     OW68162  10.912   2.819   5.817
55463SOL    HW168163  10.939   2.743   5.868
55463SOL    HW268164  10.983   2.882   5.828
55464SOL     OW68165  13.004  13.693   4.148
55464SOL    HW168166  12.923  13.716   4.102
55464SOL    HW268167  12.977  13.680   4.239
55465SOL     OW68168  10.112  11.511   7.335
55465SOL    HW168169  10.032  11.523   7.386
55465SOL    HW268170  10.177  11.564   7.381
55466SOL     OW68171   0.072   8.504   5.166
55466SOL    HW168172   0.025   8.502   5.250
55466SOL    HW268173   0.117   8.420   5.163
55467SOL     OW68174   1.983  13.480   4.412
55467SOL    HW168175   1.955  13.395   4.444
55467SOL    HW268176   2.038  13.460   4.336
55468SOL     OW68177   6.379  14.183  13.650
55468SOL    HW168178   6.319  14.162  13.578
55468SOL    HW268179   6.438  14.249  13.613
55469SOL     OW68180  11.101   5.170   6.404
55469SOL    HW168181  11.107   5.264   6.392
55469SOL    HW268182  11.010   5.148   6.384
55470SOL     OW68183   4.402   9.097   8.220
55470SOL    HW168184   4.353   9.062   8.295
55470SOL    HW268185   4.337   9.100   8.150
55471SOL     OW68186   6.205  10.439   1.277
55471SOL    HW168187   6.270  10.375   1.248
55471SOL    HW268188   6.199  10.501   1.205
55472SOL     OW68189   9.875   0.095  11.844
55472SOL    HW168190   9.893   0.139  11.927
55472SOL    HW268191   9.784   0.117  11.824
55473SOL     OW68192   7.872  10.698  10.445
55473SOL    HW168193   7.898  10.695  10.537
55473SOL    HW268194   7.943  10.745  10.402
55474SOL     OW68195   0.751   2.123   5.309
55474SOL    HW168196   0.788   2.210   5.296
55474SOL    HW268197   0.661   2.139   5.339
55475SOL     OW68198   7.411   0.230   5.725
55475SOL    HW168199   7.330   0.279   5.708
55475SOL    HW268200   7.396   0.145   5.682
55476SOL     OW68201  11.740   3.655  14.745
55476SOL    HW168202  11.735   3.732  14.689
55476SOL    HW268203  11.830   3.624  14.736
55477SOL     OW68204  14.425   6.263   5.710
55477SOL    HW168205  14.384   6.301   5.788
55477SOL    HW268206  14.512   6.237   5.739
55478SOL     OW68207   8.204  14.077  13.629
55478SOL    HW168208   8.179  14.138  13.560
55478SOL    HW268209   8.166  14.113  13.709
55479SOL     OW68210  12.279  13.192  14.360
55479SOL    HW168211  12.362  13.212  14.318
55479SOL    HW268212  12.268  13.260  14.427
55480SOL     OW68213  12.011   7.247   6.088
55480SOL    HW168214  12.082   7.204   6.040
55480SOL    HW268215  11.946   7.267   6.021
55481SOL     OW68216   6.880   6.515  12.564
55481SOL    HW168217   6.857   6.425  12.538
55481SOL    HW268218   6.964   6.532  12.522
55482SOL     OW68219   8.478   1.246  10.493
55482SOL    HW168220   8.482   1.315  10.426
55482SOL    HW268221   8.569   1.221  10.508
55483SOL     OW68222  14.101   5.910  10.962
55483SOL    HW168223  14.067   5.890  10.875
55483SOL    HW268224  14.076   6.001  10.977
55484SOL     OW68225   1.006  13.708   4.356
55484SOL    HW168226   1.009  13.787   4.301
55484SOL    HW268227   0.972  13.739   4.440
55485SOL     OW68228  13.604   4.163   1.210
55485SOL    HW168229  13.675   4.101   1.231
55485SOL    HW268230  13.536   4.108   1.172
55486SOL     OW68231  14.536  12.498   5.577
55486SOL    HW168232  14.599  12.544   5.522
55486SOL    HW268233  14.578  12.415   5.597
55487SOL     OW68234  11.539   6.404  12.861
55487SOL    HW168235  11.481   6.330  12.847
55487SOL    HW268236  11.481   6.480  12.866
55488SOL     OW68237  11.247   7.111   3.151
55488SOL    HW168238  11.154   7.121   3.171
55488SOL    HW268239  11.280   7.201   3.147
55489SOL     OW68240   7.177   4.353   5.122
55489SOL    HW168241   7.155   4.437   5.081
55489SOL    HW268242   7.242   4.376   5.189
55490SOL     OW68243   7.877   3.531   8.233
55490SOL    HW168244   7.875   3.617   8.275
55490SOL    HW268245   7.969   3.506   8.234
55491SOL     OW68246   7.013   7.719   3.235
55491SOL    HW168247   6.973   7.759   3.312
55491SOL    HW268248   6.942   7.717   3.170
55492SOL     OW68249  10.236   1.969   0.298
55492SOL    HW168250  10.171   1.980   0.228
55492SOL    HW268251  10.217   2.039   0.360
55493SOL     OW68252  14.396   0.537   9.727
55493SOL    HW168253  14.401   0.620   9.679
55493SOL    HW268254  14.382   0.563   9.818
55494SOL     OW68255  12.492  13.467   5.709
55494SOL    HW168256  12.424  13.529   5.680
55494SOL    HW268257  12.482  13.391   5.652
55495SOL     OW68258  14.399   7.837   2.327
55495SOL    HW168259  14.447   7.859   2.247
55495SOL    HW268260  14.312   7.812   2.296
55496SOL     OW68261   4.211   0.667   5.403
55496SOL    HW168262   4.137   0.613   5.432
55496SOL    HW268263   4.180   0.709   5.323
55497SOL     OW68264  10.711  13.481  10.746
55497SOL    HW168265  10.763  13.485  10.826
55497SOL    HW268266  10.771  13.505  10.676
55498SOL     OW68267   6.707   6.367   4.902
55498SOL    HW168268   6.719   6.289   4.847
55498SOL    HW268269   6.702   6.332   4.991
55499SOL     OW68270   2.781   1.006  14.218
55499SOL    HW168271   2.858   1.058  14.242
55499SOL    HW268272   2.817   0.919  14.198
55500SOL     OW68273   3.528  14.182  13.992
55500SOL    HW168274   3.621  14.164  13.979
55500SOL    HW268275   3.510  14.152  14.081
55501SOL     OW68276  11.528   5.760   1.799
55501SOL    HW168277  11.453   5.756   1.740
55501SOL    HW268278  11.592   5.814   1.752
55502SOL     OW68279   8.155   9.435   7.060
55502SOL    HW168280   8.188   9.371   7.124
55502SOL    HW268281   8.061   9.417   7.055
55503SOL     OW68282   2.979   1.737   6.612
55503SOL    HW168283   2.942   1.780   6.534
55503SOL    HW268284   2.988   1.645   6.587
55504SOL     OW68285   4.530  13.454   9.686
55504SOL    HW168286   4.487  13.470   9.770
55504SOL    HW268287   4.468  13.398   9.638
55505SOL     OW68288   8.419   3.969  12.675
55505SOL    HW168289   8.458   3.990  12.760
55505SOL    HW268290   8.393   4.054  12.639
55506SOL     OW68291   3.883  13.031   3.203
55506SOL    HW168292   3.824  12.960   3.177
55506SOL    HW268293   3.841  13.111   3.170
55507SOL     OW68294   0.495   1.480   3.296
55507SOL    HW168295   0.516   1.550   3.234
55507SOL    HW268296   0.400   1.477   3.297
55508SOL     OW68297   3.862   9.557   2.890
55508SOL    HW168298   3.813   9.525   2.965
55508SOL    HW268299   3.796   9.571   2.822
55509SOL     OW68300   2.639  13.353   9.374
55509SOL    HW168301   2.596  13.435   9.351
55509SOL    HW268302   2.597  13.288   9.318
55510SOL     OW68303   9.507  11.182   0.197
55510SOL    HW168304   9.553  11.255   0.154
55510SOL    HW268305   9.416  11.194   0.172
55511SOL     OW68306  10.821   5.760   4.760
55511SOL    HW168307  10.733   5.792   4.743
55511SOL    HW268308  10.825   5.748   4.855
55512SOL     OW68309   5.314   1.385   9.874
55512SOL    HW168310   5.401   1.425   9.872
55512SOL    HW268311   5.322   1.310   9.815
55513SOL     OW68312   7.301  10.029  11.548
55513SOL    HW168313   7.286  10.110  11.499
55513SOL    HW268314   7.213   9.993  11.561
55514SOL     OW68315   8.352  13.915   3.942
55514SOL    HW168316   8.413  13.984   3.967
55514SOL    HW268317   8.338  13.865   4.023
55515SOL     OW68318  13.484   4.145   5.199
55515SOL    HW168319  13.389   4.159   5.203
55515SOL    HW268320  13.509   4.123   5.288
55516SOL     OW68321   1.439  10.358  13.124
55516SOL    HW168322   1.421  10.425  13.190
55516SOL    HW268323   1.529  10.331  13.142
55517SOL     OW68324   4.574   8.345  10.403
55517SOL    HW168325   4.480   8.360  10.413
55517SOL    HW268326   4.605   8.423  10.356
55518SOL     OW68327  13.309   5.463   9.886
55518SOL    HW168328  13.340   5.413   9.961
55518SOL    HW268329  13.217   5.439   9.877
55519SOL     OW68330   0.079   6.941   8.619
55519SOL    HW168331  14.870   6.978   8.602
55519SOL    HW268332   0.067   6.882   8.693
55520SOL     OW68333  12.064   4.072  10.474
55520SOL    HW168334  12.131   4.005  10.467
55520SOL    HW268335  12.112   4.154  10.480
55521SOL     OW68336   4.509   4.976   5.248
55521SOL    HW168337   4.588   4.945   5.292
55521SOL    HW268338   4.477   5.047   5.303
55522SOL     OW68339   7.135   3.473  11.267
55522SOL    HW168340   7.118   3.381  11.245
55522SOL    HW268341   7.061   3.521  11.229
55523SOL     OW68342  12.550   3.445  10.139
55523SOL    HW168343  12.522   3.466  10.050
55523SOL    HW268344  12.552   3.349  10.142
55524SOL     OW68345  14.320   6.653  14.431
55524SOL    HW168346  14.290   6.590  14.497
55524SOL    HW268347  14.381   6.709  14.478
55525SOL     OW68348  13.608  10.603  12.397
55525SOL    HW168349  13.541  10.671  12.405
55525SOL    HW268350  13.638  10.609  12.307
55526SOL     OW68351  10.520   4.295   2.860
55526SOL    HW168352  10.460   4.223   2.881
55526SOL    HW268353  10.463   4.362   2.823
55527SOL     OW68354   5.689   4.040   2.548
55527SOL    HW168355   5.775   4.079   2.534
55527SOL    HW268356   5.707   3.952   2.580
55528SOL     OW68357   6.479   9.230  11.188
55528SOL    HW168358   6.434   9.287  11.125
55528SOL    HW268359   6.554   9.282  11.218
55529SOL     OW68360  12.330   5.471  10.227
55529SOL    HW168361  12.332   5.522  10.308
55529SOL    HW268362  12.422   5.463  10.202
55530SOL     OW68363  14.844   5.531   7.767
55530SOL    HW168364   0.061   5.518   7.755
55530SOL    HW268365  14.825   5.492   7.852
55531SOL     OW68366   3.446   4.994   3.628
55531SOL    HW168367   3.371   5.014   3.572
55531SOL    HW268368   3.430   4.905   3.658
55532SOL     OW68369   3.734   4.683   8.208
55532SOL    HW168370   3.749   4.644   8.122
55532SOL    HW268371   3.822   4.700   8.242
55533SOL     OW68372   5.211  12.079   1.952
55533SOL    HW168373   5.167  11.997   1.976
55533SOL    HW268374   5.264  12.100   2.029
55534SOL     OW68375  14.432   2.035   0.810
55534SOL    HW168376  14.440   2.019   0.904
55534SOL    HW268377  14.516   2.073   0.784
55535SOL     OW68378   0.072   1.619   8.690
55535SOL    HW168379   0.026   1.697   8.722
55535SOL    HW268380   0.035   1.603   8.603
55536SOL     OW68381   7.236   2.809  10.446
55536SOL    HW168382   7.269   2.734  10.495
55536SOL    HW268383   7.144   2.814  10.469
55537SOL     OW68384  10.378  10.487   0.079
55537SOL    HW168385  10.323  10.467   0.154
55537SOL    HW268386  10.458  10.524   0.117
55538SOL     OW68387  12.835   0.993   1.870
55538SOL    HW168388  12.775   1.043   1.815
55538SOL    HW268389  12.782   0.922   1.905
55539SOL     OW68390   0.634   4.459  14.294
55539SOL    HW168391   0.650   4.453  14.388
55539SOL    HW268392   0.566   4.394  14.276
55540SOL     OW68393  11.773  10.955   3.224
55540SOL    HW168394  11.702  11.004   3.264
55540SOL    HW268395  11.795  10.887   3.288
55541SOL     OW68396   3.720   5.301   0.238
55541SOL    HW168397   3.733   5.390   0.271
55541SOL    HW268398   3.658   5.311   0.165
55542SOL     OW68399   2.648   1.860   3.905
55542SOL    HW168400   2.730   1.890   3.944
55542SOL    HW268401   2.638   1.913   3.826
55543SOL     OW68402  11.441   2.471   2.053
55543SOL    HW168403  11.446   2.381   2.021
55543SOL    HW268404  11.532   2.500   2.056
55544SOL     OW68405   8.895   3.169   8.589
55544SOL    HW168406   8.933   3.185   8.676
55544SOL    HW268407   8.846   3.087   8.599
55545SOL     OW68408   8.993   1.463  11.675
55545SOL    HW168409   8.948   1.546  11.660
55545SOL    HW268410   9.049   1.451  11.599
55546SOL     OW68411   3.984   8.297  11.862
55546SOL    HW168412   3.940   8.345  11.792
55546SOL    HW268413   4.075   8.327  11.859
55547SOL     OW68414   7.854  14.510   9.776
55547SOL    HW168415   7.892  14.562   9.706
55547SOL    HW268416   7.930  14.478   9.825
55548SOL     OW68417   8.123  14.156   1.486
55548SOL    HW168418   8.058  14.086   1.490
55548SOL    HW268419   8.207  14.111   1.500
55549SOL     OW68420   6.712   6.276   6.368
55549SOL    HW168421   6.675   6.188   6.359
55549SOL    HW268422   6.752   6.276   6.455
55550SOL     OW68423  11.719   3.134  13.460
55550SOL    HW168424  11.721   3.175  13.374
55550SOL    HW268425  11.752   3.200  13.520
55551SOL     OW68426  14.172   7.734   1.901
55551SOL    HW168427  14.106   7.676   1.939
55551SOL    HW268428  14.126   7.781   1.831
55552SOL     OW68429  11.958   2.828   7.485
55552SOL    HW168430  11.884   2.881   7.514
55552SOL    HW268431  12.018   2.829   7.559
55553SOL     OW68432   5.380  11.294   4.906
55553SOL    HW168433   5.443  11.224   4.890
55553SOL    HW268434   5.423  11.351   4.970
55554SOL     OW68435   5.032   1.115  11.752
55554SOL    HW168436   5.090   1.174  11.800
55554SOL    HW268437   5.089   1.074  11.687
55555SOL     OW68438   8.498  13.917   0.024
55555SOL    HW168439   8.435  13.929  14.831
55555SOL    HW268440   8.583  13.935  14.862
55556SOL     OW68441   0.857   2.543   1.923
55556SOL    HW168442   0.784   2.483   1.941
55556SOL    HW268443   0.815   2.625   1.898
55557SOL     OW68444   7.945   7.215   7.094
55557SOL    HW168445   7.984   7.231   7.008
55557SOL    HW268446   7.905   7.129   7.087
55558SOL     OW68447   7.593   2.075   8.402
55558SOL    HW168448   7.581   2.039   8.489
55558SOL    HW268449   7.685   2.058   8.381
55559SOL     OW68450  12.097   9.579   7.504
55559SOL    HW168451  12.004   9.599   7.514
55559SOL    HW268452  12.128   9.643   7.439
55560SOL     OW68453   0.341  13.142   8.046
55560SOL    HW168454   0.433  13.132   8.022
55560SOL    HW268455   0.320  13.233   8.025
55561SOL     OW68456   9.692   9.462   7.982
55561SOL    HW168457   9.647   9.424   7.908
55561SOL    HW268458   9.754   9.524   7.944
55562SOL     OW68459  13.708   3.100   1.568
55562SOL    HW168460  13.720   3.013   1.605
55562SOL    HW268461  13.665   3.150   1.637
55563SOL     OW68462   9.506   1.032   1.678
55563SOL    HW168463   9.439   0.964   1.664
55563SOL    HW268464   9.548   1.043   1.593
55564SOL     OW68465   1.191   8.483  14.211
55564SOL    HW168466   1.193   8.393  14.180
55564SOL    HW268467   1.282   8.512  14.207
55565SOL     OW68468   6.773   0.542  12.845
55565SOL    HW168469   6.769   0.534  12.941
55565SOL    HW268470   6.866   0.532  12.824
55566SOL     OW68471  12.580  14.604   1.055
55566SOL    HW168472  12.542  14.518   1.036
55566SOL    HW268473  12.622  14.592   1.140
55567SOL     OW68474  14.761  14.101   4.764
55567SOL    HW168475  14.850  14.104   4.728
55567SOL    HW268476  14.707  14.145   4.699
55568SOL     OW68477   8.725  10.402   0.565
55568SOL    HW168478   8.786  10.451   0.509
55568SOL    HW268479   8.712  10.319   0.520
55569SOL     OW68480   1.910  14.473   4.185
55569SOL    HW168481   1.993  14.468   4.138
55569SOL    HW268482   1.929  14.434   4.271
55570SOL     OW68483   3.623  13.433  11.130
55570SOL    HW168484   3.551  13.477  11.175
55570SOL    HW268485   3.669  13.386  11.200
55571SOL     OW68486  11.778  12.033   8.622
55571SOL    HW168487  11.696  12.027   8.573
55571SOL    HW268488  11.779  12.122   8.657
55572SOL     OW68489   3.024   7.576   6.945
55572SOL    HW168490   3.057   7.663   6.970
55572SOL    HW268491   3.056   7.563   6.856
55573SOL     OW68492   5.504   7.257   4.496
55573SOL    HW168493   5.535   7.295   4.414
55573SOL    HW268494   5.409   7.253   4.485
55574SOL     OW68495  13.113  10.037   5.159
55574SOL    HW168496  13.130   9.952   5.118
55574SOL    HW268497  13.035  10.022   5.212
55575SOL     OW68498  12.508   1.574  10.737
55575SOL    HW168499  12.433   1.524  10.768
55575SOL    HW268500  12.479   1.665  10.738
55576SOL     OW68501   6.528   7.993   7.968
55576SOL    HW168502   6.534   8.088   7.982
55576SOL    HW268503   6.550   7.955   8.053
55577SOL     OW68504   8.118  10.252  11.622
55577SOL    HW168505   8.073  10.336  11.612
55577SOL    HW268506   8.113  10.233  11.716
55578SOL     OW68507   6.181  12.599  12.399
55578SOL    HW168508   6.258  12.594  12.457
55578SOL    HW268509   6.142  12.684  12.418
55579SOL     OW68510  13.281   6.979   2.444
55579SOL    HW168511  13.220   6.996   2.372
55579SOL    HW268512  13.361   6.948   2.400
55580SOL     OW68513   8.318   5.636  11.508
55580SOL    HW168514   8.362   5.663  11.589
55580SOL    HW268515   8.232   5.607  11.536
55581SOL     OW68516   2.050   7.763   0.036
55581SOL    HW168517   2.074   7.745  14.823
55581SOL    HW268518   1.983   7.697   0.057
55582SOL     OW68519   5.873   0.850   4.483
55582SOL    HW168520   5.809   0.808   4.539
55582SOL    HW268521   5.868   0.801   4.400
55583SOL     OW68522   3.458  12.882   7.582
55583SOL    HW168523   3.518  12.864   7.509
55583SOL    HW268524   3.455  12.799   7.630
55584SOL     OW68525   9.031   5.636   1.562
55584SOL    HW168526   9.010   5.543   1.558
55584SOL    HW268527   9.006   5.662   1.651
55585SOL     OW68528  14.161   7.028   1.867
55585SOL    HW168529  14.071   7.026   1.899
55585SOL    HW268530  14.214   7.000   1.941
55586SOL     OW68531   2.918  14.504   5.384
55586SOL    HW168532   2.941  14.540   5.469
55586SOL    HW268533   2.938  14.411   5.391
55587SOL     OW68534   5.948  10.321   3.432
55587SOL    HW168535   5.970  10.335   3.340
55587SOL    HW268536   5.907  10.403   3.460
55588SOL     OW68537   8.850   9.156   3.585
55588SOL    HW168538   8.792   9.198   3.649
55588SOL    HW268539   8.889   9.083   3.633
55589SOL     OW68540   2.664   5.931  12.477
55589SOL    HW168541   2.736   5.878  12.512
55589SOL    HW268542   2.699   5.969  12.397
55590SOL     OW68543   9.855   7.540  11.053
55590SOL    HW168544   9.824   7.473  10.992
55590SOL    HW268545   9.872   7.616  10.997
55591SOL     OW68546  10.787  13.583   7.382
55591SOL    HW168547  10.828  13.669   7.387
55591SOL    HW268548  10.703  13.599   7.338
55592SOL     OW68549   3.862  14.718   5.108
55592SOL    HW168550   3.774  14.682   5.110
55592SOL    HW268551   3.914  14.658   5.161
55593SOL     OW68552   1.265   7.922  12.265
55593SOL    HW168553   1.270   7.877  12.349
55593SOL    HW268554   1.349   7.967  12.257
55594SOL     OW68555   0.257  10.133   1.679
55594SOL    HW168556   0.216  10.089   1.753
55594SOL    HW268557   0.269  10.223   1.709
55595SOL     OW68558   3.058  14.251  14.802
55595SOL    HW168559   3.091  14.331  14.761
55595SOL    HW268560   3.137  14.202  14.825
55596SOL     OW68561   9.974  12.375   3.434
55596SOL    HW168562   9.903  12.313   3.446
55596SOL    HW268563  10.000  12.365   3.342
55597SOL     OW68564   1.147  13.845  13.833
55597SOL    HW168565   1.223  13.896  13.863
55597SOL    HW268566   1.118  13.889  13.754
55598SOL     OW68567  11.233   7.544   2.247
55598SOL    HW168568  11.173   7.480   2.285
55598SOL    HW268569  11.212   7.544   2.153
55599SOL     OW68570   7.056  12.364   8.931
55599SOL    HW168571   6.969  12.351   8.892
55599SOL    HW268572   7.081  12.276   8.961
55600SOL     OW68573  12.736  10.538   5.811
55600SOL    HW168574  12.814  10.554   5.864
55600SOL    HW268575  12.718  10.444   5.823
55601SOL     OW68576  11.679  14.368   9.702
55601SOL    HW168577  11.663  14.449   9.750
55601SOL    HW268578  11.595  14.350   9.659
55602SOL     OW68579   8.043  14.796   8.319
55602SOL    HW168580   8.060  14.707   8.351
55602SOL    HW268581   7.956  14.818   8.352
55603SOL     OW68582  11.532  12.482  12.160
55603SOL    HW168583  11.460  12.423  12.184
55603SOL    HW268584  11.495  12.539  12.093
55604SOL     OW68585  14.356   3.514  12.312
55604SOL    HW168586  14.280   3.463  12.341
55604SOL    HW268587  14.408   3.452  12.260
55605SOL     OW68588   6.847  14.667   2.389
55605SOL    HW168589   6.906  14.707   2.454
55605SOL    HW268590   6.905  14.637   2.319
55606SOL     OW68591   2.144   0.592  10.054
55606SOL    HW168592   2.216   0.650  10.029
55606SOL    HW268593   2.065   0.647  10.047
55607SOL     OW68594   9.456   9.927  13.110
55607SOL    HW168595   9.364   9.912  13.129
55607SOL    HW268596   9.492   9.840  13.091
55608SOL     OW68597   2.649  10.317   9.543
55608SOL    HW168598   2.730  10.327   9.592
55608SOL    HW268599   2.581  10.307   9.610
55609SOL     OW68600   5.697  12.621  10.640
55609SOL    HW168601   5.641  12.658  10.708
55609SOL    HW268602   5.659  12.534  10.623
55610SOL     OW68603   2.309   7.176   5.684
55610SOL    HW168604   2.315   7.143   5.595
55610SOL    HW268605   2.215   7.190   5.698
55611SOL     OW68606   5.872  10.447   7.101
55611SOL    HW168607   5.944  10.503   7.074
55611SOL    HW268608   5.797  10.506   7.112
55612SOL     OW68609   5.116   6.271   1.845
55612SOL    HW168610   5.097   6.353   1.800
55612SOL    HW268611   5.192   6.235   1.798
55613SOL     OW68612   4.533   3.792   5.465
55613SOL    HW168613   4.511   3.702   5.491
55613SOL    HW268614   4.618   3.784   5.421
55614SOL     OW68615  14.635  10.312   2.921
55614SOL    HW168616  14.684  10.391   2.897
55614SOL    HW268617  14.610  10.325   3.012
55615SOL     OW68618   7.399   6.010   3.957
55615SOL    HW168619   7.393   5.945   3.887
55615SOL    HW268620   7.324   5.992   4.013
55616SOL     OW68621  13.966   2.178   4.365
55616SOL    HW168622  13.899   2.182   4.297
55616SOL    HW268623  13.935   2.112   4.426
55617SOL     OW68624   8.729   2.932   9.656
55617SOL    HW168625   8.737   2.968   9.567
55617SOL    HW268626   8.635   2.932   9.673
55618SOL     OW68627   4.663   4.980   7.111
55618SOL    HW168628   4.676   4.941   7.197
55618SOL    HW268629   4.752   4.993   7.077
55619SOL     OW68630   5.838  13.645   4.745
55619SOL    HW168631   5.807  13.563   4.783
55619SOL    HW268632   5.760  13.700   4.741
55620SOL     OW68633   8.635   4.085   2.370
55620SOL    HW168634   8.669   3.996   2.363
55620SOL    HW268635   8.710   4.140   2.346
55621SOL     OW68636   2.611   6.931   9.908
55621SOL    HW168637   2.575   6.852   9.867
55621SOL    HW268638   2.582   7.003   9.851
55622SOL     OW68639   9.362   2.701   5.664
55622SOL    HW168640   9.375   2.606   5.661
55622SOL    HW268641   9.312   2.715   5.745
55623SOL     OW68642   7.140   1.436   6.213
55623SOL    HW168643   7.048   1.449   6.237
55623SOL    HW268644   7.155   1.499   6.142
55624SOL     OW68645   5.171  12.188   5.324
55624SOL    HW168646   5.264  12.169   5.311
55624SOL    HW268647   5.133  12.107   5.355
55625SOL     OW68648   9.455   7.158  12.078
55625SOL    HW168649   9.524   7.099  12.111
55625SOL    HW268650   9.496   7.203  12.004
55626SOL     OW68651   9.088  11.805   8.472
55626SOL    HW168652   9.126  11.723   8.504
55626SOL    HW268653   8.996  11.800   8.497
55627SOL     OW68654   6.155   6.968  12.732
55627SOL    HW168655   6.094   6.913  12.683
55627SOL    HW268656   6.163   7.047  12.679
55628SOL     OW68657   3.659   6.269   2.318
55628SOL    HW168658   3.581   6.257   2.265
55628SOL    HW268659   3.644   6.216   2.396
55629SOL     OW68660   8.498   3.697   8.200
55629SOL    HW168661   8.577   3.734   8.238
55629SOL    HW268662   8.446   3.667   8.275
55630SOL     OW68663   8.507   4.840  12.561
55630SOL    HW168664   8.568   4.903  12.599
55630SOL    HW268665   8.546   4.818  12.476
55631SOL     OW68666   6.825   0.787   7.250
55631SOL    HW168667   6.834   0.839   7.170
55631SOL    HW268668   6.743   0.738   7.238
55632SOL     OW68669   4.075  12.912   5.144
55632SOL    HW168670   4.076  13.004   5.170
55632SOL    HW268671   4.166  12.884   5.152
55633SOL     OW68672   4.718   3.913   1.033
55633SOL    HW168673   4.677   3.972   0.970
55633SOL    HW268674   4.724   3.829   0.987
55634SOL     OW68675   7.708   1.815  13.193
55634SOL    HW168676   7.747   1.811  13.281
55634SOL    HW268677   7.726   1.729  13.155
55635SOL     OW68678  14.225   7.755   7.965
55635SOL    HW168679  14.270   7.827   8.010
55635SOL    HW268680  14.240   7.679   8.020
55636SOL     OW68681   1.907   5.736   4.429
55636SOL    HW168682   1.866   5.770   4.350
55636SOL    HW268683   1.986   5.691   4.397
55637SOL     OW68684   9.800  11.426  10.680
55637SOL    HW168685   9.736  11.373  10.634
55637SOL    HW268686   9.750  11.472  10.748
55638SOL     OW68687  14.792   8.909  10.290
55638SOL    HW168688  14.802   8.927  10.384
55638SOL    HW268689  14.719   8.965  10.262
55639SOL     OW68690  12.608   7.213  10.781
55639SOL    HW168691  12.559   7.196  10.701
55639SOL    HW268692  12.614   7.128  10.825
55640SOL     OW68693  14.325   8.802   2.119
55640SOL    HW168694  14.234   8.776   2.132
55640SOL    HW268695  14.334   8.883   2.168
55641SOL     OW68696   5.226   0.289   8.326
55641SOL    HW168697   5.248   0.358   8.263
55641SOL    HW268698   5.305   0.236   8.333
55642SOL     OW68699  10.042   4.076   5.323
55642SOL    HW168700  10.039   4.135   5.398
55642SOL    HW268701  10.018   3.991   5.358
55643SOL     OW68702   8.250   6.497   7.763
55643SOL    HW168703   8.327   6.467   7.812
55643SOL    HW268704   8.284   6.519   7.676
55644SOL     OW68705   6.595  13.748   4.278
55644SOL    HW168706   6.657  13.713   4.214
55644SOL    HW268707   6.516  13.696   4.266
55645SOL     OW68708   1.725   5.220  12.517
55645SOL    HW168709   1.696   5.143  12.566
55645SOL    HW268710   1.646   5.252  12.473
55646SOL     OW68711  14.877   4.054   6.346
55646SOL    HW168712   0.065   4.108   6.391
55646SOL    HW268713  14.801   4.056   6.403
55647SOL     OW68714   6.766   6.939   7.230
55647SOL    HW168715   6.858   6.963   7.237
55647SOL    HW268716   6.719   7.018   7.256
55648SOL     OW68717   6.269  14.356   4.859
55648SOL    HW168718   6.340  14.382   4.918
55648SOL    HW268719   6.302  14.276   4.817
55649SOL     OW68720   0.856   3.310  14.716
55649SOL    HW168721   0.843   3.302  14.621
55649SOL    HW268722   0.921   3.380  14.725
55650SOL     OW68723   8.521  10.522   6.716
55650SOL    HW168724   8.567  10.581   6.657
55650SOL    HW268725   8.497  10.576   6.791
55651SOL     OW68726  10.523   9.814   7.895
55651SOL    HW168727  10.486   9.752   7.958
55651SOL    HW268728  10.497   9.900   7.928
55652SOL     OW68729  10.150   0.503   2.407
55652SOL    HW168730  10.089   0.549   2.464
55652SOL    HW268731  10.170   0.565   2.337
55653SOL     OW68732   7.759   1.792   8.243
55653SOL    HW168733   7.745   1.874   8.290
55653SOL    HW268734   7.672   1.753   8.236
55654SOL     OW68735   8.724   1.000   8.303
55654SOL    HW168736   8.785   1.019   8.374
55654SOL    HW268737   8.751   1.058   8.232
55655SOL     OW68738   0.829   6.319   9.384
55655SOL    HW168739   0.922   6.343   9.387
55655SOL    HW268740   0.824   6.242   9.441
55656SOL     OW68741   1.461   4.118   3.780
55656SOL    HW168742   1.412   4.136   3.860
55656SOL    HW268743   1.553   4.123   3.806
55657SOL     OW68744   9.962   8.957   7.542
55657SOL    HW168745   9.880   8.930   7.585
55657SOL    HW268746   9.942   9.042   7.503
55658SOL     OW68747   9.503  14.439  10.785
55658SOL    HW168748   9.501  14.502  10.712
55658SOL    HW268749   9.586  14.456  10.830
55659SOL     OW68750   5.106  14.187   3.279
55659SOL    HW168751   5.025  14.237   3.285
55659SOL    HW268752   5.171  14.240   3.324
55660SOL     OW68753   9.375   9.250   6.276
55660SOL    HW168754   9.348   9.314   6.210
55660SOL    HW268755   9.467   9.271   6.293
55661SOL     OW68756   7.631   9.079   7.093
55661SOL    HW168757   7.611   9.004   7.037
55661SOL    HW268758   7.555   9.137   7.085
55662SOL     OW68759   2.605   9.814   8.122
55662SOL    HW168760   2.539   9.883   8.113
55662SOL    HW268761   2.647   9.810   8.037
55663SOL     OW68762   0.325  12.731  14.690
55663SOL    HW168763   0.299  12.639  14.703
55663SOL    HW268764   0.243  12.780  14.698
55664SOL     OW68765  13.074   5.890   5.448
55664SOL    HW168766  13.025   5.895   5.367
55664SOL    HW268767  13.162   5.921   5.426
55665SOL     OW68768   6.145   6.853  11.360
55665SOL    HW168769   6.073   6.831  11.301
55665SOL    HW268770   6.148   6.780  11.422
55666SOL     OW68771   6.701   9.355  14.500
55666SOL    HW168772   6.785   9.394  14.473
55666SOL    HW268773   6.654   9.342  14.417
55667SOL     OW68774   9.094   4.183  13.873
55667SOL    HW168775   9.157   4.184  13.945
55667SOL    HW268776   9.141   4.142  13.801
55668SOL     OW68777  10.580   2.980   3.247
55668SOL    HW168778  10.523   3.038   3.196
55668SOL    HW268779  10.553   2.995   3.338
55669SOL     OW68780   0.959   6.154   8.575
55669SOL    HW168781   0.966   6.135   8.482
55669SOL    HW268782   0.965   6.068   8.617
55670SOL     OW68783   7.472   0.232  11.102
55670SOL    HW168784   7.486   0.149  11.056
55670SOL    HW268785   7.552   0.283  11.085
55671SOL     OW68786   9.104   6.852  10.297
55671SOL    HW168787   9.033   6.914  10.316
55671SOL    HW268788   9.081   6.773  10.345
55672SOL     OW68789   2.952   2.847   9.406
55672SOL    HW168790   2.938   2.855   9.500
55672SOL    HW268791   2.891   2.908   9.366
55673SOL     OW68792   0.703   5.552  12.170
55673SOL    HW168793   0.690   5.499  12.092
55673SOL    HW268794   0.635   5.523  12.231
55674SOL     OW68795  10.364   0.099  10.716
55674SOL    HW168796  10.330   0.066  10.799
55674SOL    HW268797  10.412   0.179  10.740
55675SOL     OW68798   1.583   4.261   1.419
55675SOL    HW168799   1.626   4.289   1.338
55675SOL    HW268800   1.640   4.193   1.454
55676SOL     OW68801   8.821   3.364   2.619
55676SOL    HW168802   8.833   3.434   2.555
55676SOL    HW268803   8.765   3.401   2.686
55677SOL     OW68804   9.029   0.247  14.321
55677SOL    HW168805   9.022   0.180  14.388
55677SOL    HW268806   9.097   0.215  14.261
55678SOL     OW68807   0.328   2.223  11.769
55678SOL    HW168808   0.244   2.263  11.793
55678SOL    HW268809   0.384   2.238  11.845
55679SOL     OW68810   6.925  13.879   6.373
55679SOL    HW168811   6.948  13.794   6.411
55679SOL    HW268812   6.995  13.938   6.402
55680SOL     OW68813   9.668   4.163   1.937
55680SOL    HW168814   9.637   4.202   1.855
55680SOL    HW268815   9.668   4.236   1.999
55681SOL     OW68816  12.418   9.544  14.626
55681SOL    HW168817  12.370   9.622  14.651
55681SOL    HW268818  12.373   9.512  14.547
55682SOL     OW68819   7.093  12.538   8.389
55682SOL    HW168820   7.166  12.488   8.353
55682SOL    HW268821   7.084  12.507   8.479
55683SOL     OW68822   0.281  10.599   6.404
55683SOL    HW168823   0.307  10.613   6.495
55683SOL    HW268824   0.203  10.653   6.393
55684SOL     OW68825   6.684   0.046   1.456
55684SOL    HW168826   6.601   0.076   1.419
55684SOL    HW268827   6.660  14.851   1.514
55685SOL     OW68828   6.828   8.278   4.207
55685SOL    HW168829   6.760   8.212   4.210
55685SOL    HW268830   6.788   8.352   4.160
55686SOL     OW68831   3.645   5.948   8.007
55686SOL    HW168832   3.658   6.021   7.946
55686SOL    HW268833   3.678   5.981   8.091
55687SOL     OW68834   8.777   5.613   4.442
55687SOL    HW168835   8.718   5.600   4.368
55687SOL    HW268836   8.850   5.663   4.407
55688SOL     OW68837   8.600   5.944   8.765
55688SOL    HW168838   8.540   5.903   8.827
55688SOL    HW268839   8.685   5.944   8.809
55689SOL     OW68840   2.355   0.442   6.187
55689SOL    HW168841   2.405   0.420   6.266
55689SOL    HW268842   2.362   0.364   6.132
55690SOL     OW68843  10.328  14.450  10.287
55690SOL    HW168844  10.410  14.483  10.251
55690SOL    HW268845  10.265  14.520  10.272
55691SOL     OW68846   9.878   3.243   3.816
55691SOL    HW168847   9.898   3.313   3.754
55691SOL    HW268848   9.782   3.239   3.818
55692SOL     OW68849   2.816   6.977   5.198
55692SOL    HW168850   2.818   6.970   5.293
55692SOL    HW268851   2.730   7.014   5.178
55693SOL     OW68852  11.969   8.829  10.105
55693SOL    HW168853  11.915   8.767  10.153
55693SOL    HW268854  11.922   8.912  10.113
55694SOL     OW68855   2.602   0.061  12.847
55694SOL    HW168856   2.665   0.129  12.868
55694SOL    HW268857   2.598   0.007  12.926
55695SOL     OW68858  14.320   5.488  11.181
55695SOL    HW168859  14.414   5.490  11.198
55695SOL    HW268860  14.310   5.534  11.097
55696SOL     OW68861   6.663   9.974   1.261
55696SOL    HW168862   6.667  10.057   1.309
55696SOL    HW268863   6.617   9.996   1.180
55697SOL     OW68864   1.052  13.445   6.425
55697SOL    HW168865   1.009  13.364   6.451
55697SOL    HW268866   1.121  13.418   6.365
55698SOL     OW68867   6.177   3.448  14.671
55698SOL    HW168868   6.090   3.423  14.640
55698SOL    HW268869   6.237   3.403  14.612
55699SOL     OW68870   9.248   2.562   1.339
55699SOL    HW168871   9.342   2.570   1.354
55699SOL    HW268872   9.226   2.476   1.375
55700SOL     OW68873  12.509   8.764   6.678
55700SOL    HW168874  12.599   8.738   6.694
55700SOL    HW268875  12.503   8.775   6.583
55701SOL     OW68876   8.721  14.423   9.907
55701SOL    HW168877   8.783  14.435   9.979
55701SOL    HW268878   8.635  14.427   9.949
55702SOL     OW68879   0.960  12.454   5.862
55702SOL    HW168880   0.996  12.420   5.780
55702SOL    HW268881   0.954  12.548   5.849
55703SOL     OW68882   7.516   5.415  14.803
55703SOL    HW168883   7.499   5.370   0.007
55703SOL    HW268884   7.504   5.349  14.735
55704SOL     OW68885   5.523   2.303  11.065
55704SOL    HW168886   5.615   2.332  11.067
55704SOL    HW268887   5.485   2.351  10.992
55705SOL     OW68888   3.048  11.738   8.297
55705SOL    HW168889   3.031  11.682   8.222
55705SOL    HW268890   3.045  11.827   8.262
55706SOL     OW68891   4.932  13.041   9.324
55706SOL    HW168892   4.982  12.964   9.349
55706SOL    HW268893   4.865  13.049   9.393
55707SOL     OW68894   7.932   5.875   0.993
55707SOL    HW168895   7.885   5.811   0.939
55707SOL    HW268896   7.955   5.828   1.073
55708SOL     OW68897   1.099  12.724  11.185
55708SOL    HW168898   1.033  12.655  11.174
55708SOL    HW268899   1.155  12.693  11.256
55709SOL     OW68900  13.804   7.703   9.588
55709SOL    HW168901  13.891   7.741   9.592
55709SOL    HW268902  13.757   7.743   9.662
55710SOL     OW68903   4.962  10.285   1.355
55710SOL    HW168904   4.960  10.378   1.381
55710SOL    HW268905   4.952  10.237   1.437
55711SOL     OW68906  12.789   4.935   0.635
55711SOL    HW168907  12.758   4.849   0.606
55711SOL    HW268908  12.862   4.955   0.576
55712SOL     OW68909  14.645  10.604   2.476
55712SOL    HW168910  14.656  10.589   2.382
55712SOL    HW268911  14.678  10.525   2.518
55713SOL     OW68912   3.204  14.445   1.782
55713SOL    HW168913   3.218  14.357   1.748
55713SOL    HW268914   3.129  14.436   1.841
55714SOL     OW68915  11.204  10.558   2.666
55714SOL    HW168916  11.144  10.503   2.716
55714SOL    HW268917  11.158  10.576   2.584
55715SOL     OW68918   6.984   6.010   3.701
55715SOL    HW168919   7.009   6.089   3.748
55715SOL    HW268920   6.919   5.968   3.757
55716SOL     OW68921  14.425   5.342  11.711
55716SOL    HW168922  14.437   5.300  11.796
55716SOL    HW268923  14.364   5.284  11.665
55717SOL     OW68924   2.272   7.876   8.040
55717SOL    HW168925   2.356   7.832   8.026
55717SOL    HW268926   2.215   7.843   7.971
55718SOL     OW68927  11.950  10.165   8.386
55718SOL    HW168928  11.924  10.126   8.302
55718SOL    HW268929  11.884  10.233   8.402
55719SOL     OW68930   8.640   5.677   6.921
55719SOL    HW168931   8.667   5.590   6.893
55719SOL    HW268932   8.661   5.734   6.847
55720SOL     OW68933  13.102   1.894   7.435
55720SOL    HW168934  13.146   1.822   7.390
55720SOL    HW268935  13.162   1.918   7.507
55721SOL     OW68936   0.069   3.975  10.525
55721SOL    HW168937   0.025   3.964  10.440
55721SOL    HW268938   0.001   3.959  10.590
55722SOL     OW68939   4.446  13.802   5.704
55722SOL    HW168940   4.442  13.777   5.612
55722SOL    HW268941   4.481  13.724   5.749
55723SOL     OW68942  12.181  12.912   5.157
55723SOL    HW168943  12.191  12.942   5.067
55723SOL    HW268944  12.096  12.868   5.159
55724SOL     OW68945   3.972   0.212   2.686
55724SOL    HW168946   4.029   0.256   2.749
55724SOL    HW268947   3.904   0.276   2.666
55725SOL     OW68948   2.109   1.874   4.049
55725SOL    HW168949   2.037   1.909   4.101
55725SOL    HW268950   2.075   1.793   4.010
55726SOL     OW68951   8.139  11.192  14.054
55726SOL    HW168952   8.045  11.175  14.051
55726SOL    HW268953   8.148  11.265  14.115
55727SOL     OW68954  10.943  11.905   0.946
55727SOL    HW168955  10.917  11.962   1.019
55727SOL    HW268956  11.024  11.865   0.975
55728SOL     OW68957   2.936   2.172  14.561
55728SOL    HW168958   3.008   2.109  14.561
55728SOL    HW268959   2.863   2.126  14.519
55729SOL     OW68960   2.631   6.530   7.547
55729SOL    HW168961   2.617   6.603   7.608
55729SOL    HW268962   2.624   6.451   7.601
55730SOL     OW68963  10.302   6.816   4.944
55730SOL    HW168964  10.213   6.801   4.974
55730SOL    HW268965  10.294   6.830   4.850
55731SOL     OW68966  10.795  13.346   4.068
55731SOL    HW168967  10.763  13.359   3.979
55731SOL    HW268968  10.755  13.416   4.119
55732SOL     OW68969   5.674   6.088   6.447
55732SOL    HW168970   5.733   6.045   6.509
55732SOL    HW268971   5.613   6.020   6.420
55733SOL     OW68972   6.139   6.067   1.982
55733SOL    HW168973   6.056   6.073   2.030
55733SOL    HW268974   6.200   6.119   2.034
55734SOL     OW68975  11.564  10.198   8.218
55734SOL    HW168976  11.550  10.267   8.152
55734SOL    HW268977  11.490  10.207   8.278
55735SOL     OW68978   8.478   1.503   6.005
55735SOL    HW168979   8.572   1.488   5.995
55735SOL    HW268980   8.470   1.552   6.086
55736SOL     OW68981  13.294   2.361  14.207
55736SOL    HW168982  13.206   2.350  14.171
55736SOL    HW268983  13.342   2.405  14.137
55737SOL     OW68984   6.821   2.763   4.340
55737SOL    HW168985   6.896   2.821   4.332
55737SOL    HW268986   6.802   2.734   4.251
55738SOL     OW68987   5.316  10.098  12.865
55738SOL    HW168988   5.344  10.017  12.824
55738SOL    HW268989   5.388  10.123  12.922
55739SOL     OW68990   1.720   8.686  13.055
55739SOL    HW168991   1.631   8.663  13.083
55739SOL    HW268992   1.714   8.778  13.029
55740SOL     OW68993   3.680  11.226   7.054
55740SOL    HW168994   3.624  11.167   7.004
55740SOL    HW268995   3.656  11.213   7.145
55741SOL     OW68996   3.327  13.369   0.251
55741SOL    HW168997   3.360  13.456   0.228
55741SOL    HW268998   3.259  13.351   0.186
55742SOL     OW68999  12.881  13.492   9.527
55742SOL    HW169000  12.860  13.557   9.459
55742SOL    HW269001  12.867  13.408   9.484
55743SOL     OW69002   4.098  13.111  11.110
55743SOL    HW169003   4.193  13.108  11.126
55743SOL    HW269004   4.062  13.043  11.166
55744SOL     OW69005   6.700   2.938   2.465
55744SOL    HW169006   6.718   2.844   2.460
55744SOL    HW269007   6.772   2.978   2.415
55745SOL     OW69008   2.542  11.883   2.839
55745SOL    HW169009   2.480  11.904   2.769
55745SOL    HW269010   2.605  11.956   2.838
55746SOL     OW69011  12.322   0.821   0.889
55746SOL    HW169012  12.403   0.868   0.906
55746SOL    HW269013  12.254   0.876   0.928
55747SOL     OW69014  12.391  11.682   1.033
55747SOL    HW169015  12.401  11.587   1.030
55747SOL    HW269016  12.475  11.716   1.003
55748SOL     OW69017   8.465   1.262   9.762
55748SOL    HW169018   8.532   1.194   9.755
55748SOL    HW269019   8.384   1.218   9.737
55749SOL     OW69020  14.737   3.999  12.892
55749SOL    HW169021  14.811   3.986  12.952
55749SOL    HW269022  14.674   4.050  12.942
55750SOL     OW69023   6.800   4.594   5.150
55750SOL    HW169024   6.732   4.626   5.209
55750SOL    HW269025   6.788   4.499   5.148
55751SOL     OW69026   4.549   2.413  13.011
55751SOL    HW169027   4.582   2.326  12.987
55751SOL    HW269028   4.611   2.445  13.077
55752SOL     OW69029   8.416   6.291  13.628
55752SOL    HW169030   8.412   6.199  13.605
55752SOL    HW269031   8.325   6.315  13.645
55753SOL     OW69032  14.048  10.740   2.079
55753SOL    HW169033  14.028  10.748   1.986
55753SOL    HW269034  13.972  10.780   2.122
55754SOL     OW69035  12.446   9.235   5.031
55754SOL    HW169036  12.416   9.256   4.942
55754SOL    HW269037  12.493   9.153   5.022
55755SOL     OW69038  10.843   8.434  10.064
55755SOL    HW169039  10.798   8.461   9.984
55755SOL    HW269040  10.789   8.362  10.098
55756SOL     OW69041  14.709   4.013   8.473
55756SOL    HW169042  14.721   3.974   8.386
55756SOL    HW269043  14.628   4.063   8.466
55757SOL     OW69044   0.859   1.781  12.339
55757SOL    HW169045   0.929   1.811  12.281
55757SOL    HW269046   0.784   1.767  12.281
55758SOL     OW69047   5.737  13.673   0.727
55758SOL    HW169048   5.770  13.658   0.815
55758SOL    HW269049   5.660  13.617   0.720
55759SOL     OW69050  10.939   7.797   6.735
55759SOL    HW169051  11.029   7.826   6.752
55759SOL    HW269052  10.943   7.702   6.747
55760SOL     OW69053   1.722   5.072   3.683
55760SOL    HW169054   1.771   4.998   3.646
55760SOL    HW269055   1.634   5.063   3.647
55761SOL     OW69056  13.269  13.278  13.223
55761SOL    HW169057  13.250  13.204  13.165
55761SOL    HW269058  13.326  13.241  13.291
55762SOL     OW69059   7.518   6.499  13.453
55762SOL    HW169060   7.588   6.564  13.452
55762SOL    HW269061   7.441   6.544  13.418
55763SOL     OW69062  14.536   8.216   0.115
55763SOL    HW169063  14.625   8.189   0.136
55763SOL    HW269064  14.498   8.141   0.068
55764SOL     OW69065   2.872   7.829   2.750
55764SOL    HW169066   2.962   7.849   2.777
55764SOL    HW269067   2.831   7.797   2.830
55765SOL     OW69068   8.884   1.908   3.606
55765SOL    HW169069   8.970   1.931   3.572
55765SOL    HW269070   8.873   1.963   3.684
55766SOL     OW69071   8.605   7.818  10.457
55766SOL    HW169072   8.644   7.731  10.469
55766SOL    HW269073   8.679   7.878  10.461
55767SOL     OW69074   1.535   2.812  13.290
55767SOL    HW169075   1.589   2.805  13.368
55767SOL    HW269076   1.445   2.807  13.322
55768SOL     OW69077   4.908   1.592   0.121
55768SOL    HW169078   4.820   1.555   0.122
55768SOL    HW269079   4.961   1.527   0.075
55769SOL     OW69080   9.948  11.448  10.237
55769SOL    HW169081  10.012  11.493  10.293
55769SOL    HW269082  10.001  11.391  10.181
55770SOL     OW69083  13.291  14.380   2.940
55770SOL    HW169084  13.321  14.386   2.849
55770SOL    HW269085  13.221  14.445   2.946
55771SOL     OW69086  14.004   1.211  13.389
55771SOL    HW169087  14.050   1.237  13.469
55771SOL    HW269088  14.046   1.260  13.319
55772SOL     OW69089   7.455   9.307   3.626
55772SOL    HW169090   7.506   9.312   3.546
55772SOL    HW269091   7.512   9.262   3.688
55773SOL     OW69092   5.164   2.234   7.456
55773SOL    HW169093   5.089   2.260   7.402
55773SOL    HW269094   5.229   2.302   7.441
55774SOL     OW69095  14.036  14.179   6.492
55774SOL    HW169096  14.051  14.087   6.516
55774SOL    HW269097  14.067  14.185   6.401
55775SOL     OW69098  12.897   8.044   7.241
55775SOL    HW169099  12.947   7.962   7.245
55775SOL    HW269100  12.900   8.069   7.149
55776SOL     OW69101   9.969  10.742   5.530
55776SOL    HW169102   9.915  10.799   5.476
55776SOL    HW269103  10.057  10.751   5.495
55777SOL     OW69104  13.725   6.629  11.690
55777SOL    HW169105  13.769   6.553  11.653
55777SOL    HW269106  13.787   6.664  11.753
55778SOL     OW69107   1.283   2.042   2.307
55778SOL    HW169108   1.242   1.956   2.293
55778SOL    HW269109   1.320   2.037   2.395
55779SOL     OW69110  10.684   9.624   5.090
55779SOL    HW169111  10.629   9.580   5.155
55779SOL    HW269112  10.661   9.581   5.007
55780SOL     OW69113   3.344  13.825   1.066
55780SOL    HW169114   3.351  13.824   0.971
55780SOL    HW269115   3.433  13.842   1.097
55781SOL     OW69116   5.942   6.757  12.538
55781SOL    HW169117   5.858   6.766  12.583
55781SOL    HW269118   5.921   6.767  12.445
55782SOL     OW69119   7.726  12.636   6.629
55782SOL    HW169120   7.761  12.574   6.693
55782SOL    HW269121   7.804  12.682   6.596
55783SOL     OW69122   7.542  13.576   4.576
55783SOL    HW169123   7.506  13.572   4.665
55783SOL    HW269124   7.479  13.530   4.522
55784SOL     OW69125   4.523   9.423  10.667
55784SOL    HW169126   4.587   9.442  10.598
55784SOL    HW269127   4.521   9.328  10.672
55785SOL     OW69128   4.851   0.138  12.505
55785SOL    HW169129   4.909   0.062  12.511
55785SOL    HW269130   4.841   0.154  12.411
55786SOL     OW69131   1.135   3.172   9.841
55786SOL    HW169132   1.157   3.081   9.861
55786SOL    HW269133   1.126   3.214   9.926
55787SOL     OW69134  13.643   5.184   0.231
55787SOL    HW169135  13.601   5.174   0.146
55787SOL    HW269136  13.665   5.277   0.236
55788SOL     OW69137   9.949   7.923   4.617
55788SOL    HW169138   9.953   7.914   4.712
55788SOL    HW269139   9.935   8.017   4.602
55789SOL     OW69140  12.656  14.682  13.597
55789SOL    HW169141  12.740  14.702  13.554
55789SOL    HW269142  12.600  14.649  13.527
55790SOL     OW69143   8.474  10.550  14.227
55790SOL    HW169144   8.535  10.623  14.233
55790SOL    HW269145   8.527  10.473  14.248
55791SOL     OW69146  13.208   7.913  13.799
55791SOL    HW169147  13.264   7.962  13.739
55791SOL    HW269148  13.222   7.821  13.777
55792SOL     OW69149   2.370  12.363   4.241
55792SOL    HW169150   2.332  12.324   4.162
55792SOL    HW269151   2.309  12.432   4.265
55793SOL     OW69152  10.588   4.889   4.279
55793SOL    HW169153  10.673   4.846   4.267
55793SOL    HW269154  10.540   4.832   4.339
55794SOL     OW69155   2.593  14.000  14.582
55794SOL    HW169156   2.514  13.985  14.634
55794SOL    HW269157   2.622  13.913  14.557
55795SOL     OW69158   5.319   6.372   4.769
55795SOL    HW169159   5.260   6.406   4.836
55795SOL    HW269160   5.352   6.451   4.724
55796SOL     OW69161   9.162   4.559  11.048
55796SOL    HW169162   9.230   4.505  11.087
55796SOL    HW269163   9.179   4.647  11.084
55797SOL     OW69164   4.474   4.417  12.140
55797SOL    HW169165   4.475   4.343  12.079
55797SOL    HW269166   4.423   4.385  12.215
55798SOL     OW69167   0.827   5.435   4.440
55798SOL    HW169168   0.872   5.512   4.404
55798SOL    HW269169   0.794   5.464   4.524
55799SOL     OW69170   3.292   1.252  14.288
55799SOL    HW169171   3.316   1.169  14.246
55799SOL    HW269172   3.372   1.305  14.283
55800SOL     OW69173  10.683  11.358   1.880
55800SOL    HW169174  10.703  11.337   1.789
55800SOL    HW269175  10.589  11.374   1.881
55801SOL     OW69176   8.455   8.958  10.290
55801SOL    HW169177   8.538   8.921  10.320
55801SOL    HW269178   8.416   8.889  10.236
55802SOL     OW69179   8.982   8.759  12.351
55802SOL    HW169180   8.937   8.808  12.419
55802SOL    HW269181   8.915   8.702  12.313
55803SOL     OW69182   8.086   1.751   6.709
55803SOL    HW169183   8.109   1.665   6.673
55803SOL    HW269184   8.169   1.799   6.711
55804SOL     OW69185  14.068   7.277   7.198
55804SOL    HW169186  14.085   7.215   7.127
55804SOL    HW269187  13.974   7.291   7.196
55805SOL     OW69188   1.920   6.688   0.737
55805SOL    HW169189   1.899   6.597   0.758
55805SOL    HW269190   1.987   6.682   0.669
55806SOL     OW69191   7.961   6.288  14.423
55806SOL    HW169192   7.954   6.375  14.464
55806SOL    HW269193   8.044   6.253  14.456
55807SOL     OW69194  14.072   2.238   2.156
55807SOL    HW169195  14.064   2.333   2.154
55807SOL    HW269196  14.022   2.210   2.232
55808SOL     OW69197   4.124   9.949   9.336
55808SOL    HW169198   4.147   9.868   9.290
55808SOL    HW269199   4.181  10.016   9.298
55809SOL     OW69200   8.915  10.391   2.544
55809SOL    HW169201   8.853  10.334   2.498
55809SOL    HW269202   8.860  10.443   2.602
55810SOL     OW69203   2.754  12.588   0.223
55810SOL    HW169204   2.734  12.500   0.257
55810SOL    HW269205   2.735  12.582   0.130
55811SOL     OW69206   9.920   4.082  14.328
55811SOL    HW169207   9.856   4.104  14.397
55811SOL    HW269208   9.871   4.092  14.246
55812SOL     OW69209   1.229   4.901   8.971
55812SOL    HW169210   1.247   4.884   8.878
55812SOL    HW269211   1.316   4.912   9.010
55813SOL     OW69212   7.879  12.490   0.320
55813SOL    HW169213   7.805  12.542   0.290
55813SOL    HW269214   7.844  12.439   0.393
55814SOL     OW69215  13.879   9.622   0.766
55814SOL    HW169216  13.784   9.606   0.768
55814SOL    HW269217  13.888   9.707   0.723
55815SOL     OW69218   5.175   1.830   2.941
55815SOL    HW169219   5.143   1.895   3.003
55815SOL    HW269220   5.208   1.881   2.867
55816SOL     OW69221   5.750  12.783  12.700
55816SOL    HW169222   5.713  12.860  12.743
55816SOL    HW269223   5.678  12.749  12.646
55817SOL     OW69224   6.142   3.201   2.403
55817SOL    HW169225   6.058   3.225   2.442
55817SOL    HW269226   6.197   3.177   2.477
55818SOL     OW69227   7.863  14.655   4.154
55818SOL    HW169228   7.838  14.575   4.200
55818SOL    HW269229   7.787  14.678   4.101
55819SOL     OW69230   2.819   1.943   6.852
55819SOL    HW169231   2.788   2.011   6.792
55819SOL    HW269232   2.794   1.860   6.811
55820SOL     OW69233  13.175  11.153   8.842
55820SOL    HW169234  13.141  11.134   8.930
55820SOL    HW269235  13.098  11.151   8.785
55821SOL     OW69236   2.578   1.519  12.461
55821SOL    HW169237   2.571   1.581  12.533
55821SOL    HW269238   2.623   1.443  12.498
55822SOL     OW69239   1.773   8.296   5.312
55822SOL    HW169240   1.831   8.321   5.384
55822SOL    HW269241   1.776   8.371   5.252
55823SOL     OW69242   7.025   1.205  12.381
55823SOL    HW169243   7.039   1.293  12.345
55823SOL    HW269244   6.935   1.208  12.416
55824SOL     OW69245  10.073   7.404  13.448
55824SOL    HW169246  10.077   7.422  13.354
55824SOL    HW269247  10.037   7.484  13.486
55825SOL     OW69248   5.787   0.310   9.384
55825SOL    HW169249   5.823   0.398   9.401
55825SOL    HW269250   5.710   0.326   9.329
55826SOL     OW69251   6.558   7.161   6.494
55826SOL    HW169252   6.633   7.103   6.509
55826SOL    HW269253   6.539   7.198   6.580
55827SOL     OW69254   9.350   7.117   5.669
55827SOL    HW169255   9.316   7.178   5.735
55827SOL    HW269256   9.336   7.161   5.586
55828SOL     OW69257  10.111   0.657   5.929
55828SOL    HW169258  10.159   0.686   5.852
55828SOL    HW269259  10.144   0.569   5.946
55829SOL     OW69260   2.978   6.076   6.417
55829SOL    HW169261   2.940   6.073   6.329
55829SOL    HW269262   2.923   6.018   6.469
55830SOL     OW69263  14.354   0.333   4.399
55830SOL    HW169264  14.444   0.363   4.387
55830SOL    HW269265  14.315   0.394   4.461
55831SOL     OW69266  12.023   6.334   8.522
55831SOL    HW169267  12.029   6.264   8.457
55831SOL    HW269268  11.944   6.314   8.571
55832SOL     OW69269   7.070  11.734   2.517
55832SOL    HW169270   6.985  11.717   2.556
55832SOL    HW269271   7.121  11.654   2.534
55833SOL     OW69272   0.147   3.834   7.855
55833SOL    HW169273   0.163   3.870   7.768
55833SOL    HW269274   0.111   3.747   7.838
55834SOL     OW69275  13.596   5.235  10.379
55834SOL    HW169276  13.581   5.204  10.468
55834SOL    HW269277  13.687   5.211  10.360
55835SOL     OW69278  14.081   2.348   7.688
55835SOL    HW169279  14.173   2.343   7.665
55835SOL    HW269280  14.043   2.266   7.655
55836SOL     OW69281   0.156   8.247   2.699
55836SOL    HW169282   0.152   8.328   2.749
55836SOL    HW269283   0.067   8.214   2.700
55837SOL     OW69284   7.915  10.378   7.294
55837SOL    HW169285   7.910  10.284   7.315
55837SOL    HW269286   7.996  10.387   7.244
55838SOL     OW69287   0.912  13.722   3.521
55838SOL    HW169288   0.886  13.637   3.483
55838SOL    HW269289   0.857  13.786   3.475
55839SOL     OW69290   5.879   0.791   6.682
55839SOL    HW169291   5.794   0.798   6.725
55839SOL    HW269292   5.870   0.843   6.602
55840SOL     OW69293  11.142   3.470  11.685
55840SOL    HW169294  11.083   3.395  11.693
55840SOL    HW269295  11.088   3.538  11.645
55841SOL     OW69296   2.798   1.896   0.341
55841SOL    HW169297   2.833   1.904   0.430
55841SOL    HW269298   2.864   1.846   0.294
55842SOL     OW69299  12.655  13.796  11.361
55842SOL    HW169300  12.685  13.707  11.377
55842SOL    HW269301  12.616  13.793  11.274
55843SOL     OW69302   9.932   4.981   3.489
55843SOL    HW169303   9.964   4.892   3.475
55843SOL    HW269304  10.003   5.025   3.536
55844SOL     OW69305   3.590   0.411  13.559
55844SOL    HW169306   3.617   0.484  13.503
55844SOL    HW269307   3.658   0.405  13.626
55845SOL     OW69308   8.671   1.494   7.541
55845SOL    HW169309   8.636   1.460   7.624
55845SOL    HW269310   8.599   1.544   7.503
55846SOL     OW69311   2.964   1.072   1.008
55846SOL    HW169312   2.879   1.033   1.030
55846SOL    HW269313   2.951   1.166   1.015
55847SOL     OW69314  12.841   3.100   2.166
55847SOL    HW169315  12.746   3.092   2.174
55847SOL    HW269316  12.875   3.056   2.244
55848SOL     OW69317  13.405   7.746   7.285
55848SOL    HW169318  13.500   7.741   7.272
55848SOL    HW269319  13.368   7.735   7.197
55849SOL     OW69320  13.631   1.352   4.872
55849SOL    HW169321  13.686   1.293   4.822
55849SOL    HW269322  13.557   1.298   4.900
55850SOL     OW69323   6.482   8.371   2.114
55850SOL    HW169324   6.462   8.278   2.114
55850SOL    HW269325   6.419   8.409   2.175
55851SOL     OW69326   7.476   1.779   0.761
55851SOL    HW169327   7.536   1.731   0.818
55851SOL    HW269328   7.502   1.754   0.672
55852SOL     OW69329  13.317  10.489   7.888
55852SOL    HW169330  13.382  10.500   7.819
55852SOL    HW269331  13.307  10.576   7.927
55853SOL     OW69332  10.990   0.399   7.616
55853SOL    HW169333  11.023   0.487   7.632
55853SOL    HW269334  10.895   0.406   7.625
55854SOL     OW69335   5.609  10.813   9.124
55854SOL    HW169336   5.519  10.784   9.111
55854SOL    HW269337   5.661  10.760   9.063
55855SOL     OW69338  14.101   1.589   8.029
55855SOL    HW169339  14.090   1.680   8.058
55855SOL    HW269340  14.172   1.555   8.083
55856SOL     OW69341  14.480  14.367   7.629
55856SOL    HW169342  14.399  14.374   7.578
55856SOL    HW269343  14.516  14.282   7.606
55857SOL     OW69344  12.624   1.584   8.918
55857SOL    HW169345  12.697   1.544   8.871
55857SOL    HW269346  12.553   1.519   8.911
55858SOL     OW69347  14.282   4.304   6.861
55858SOL    HW169348  14.195   4.279   6.830
55858SOL    HW269349  14.299   4.245   6.935
55859SOL     OW69350   0.266  10.173   6.744
55859SOL    HW169351   0.307  10.103   6.693
55859SOL    HW269352   0.229  10.232   6.678
55860SOL     OW69353   8.121  10.875   8.943
55860SOL    HW169354   8.203  10.897   8.899
55860SOL    HW269355   8.104  10.950   9.000
55861SOL     OW69356   0.505   4.787   2.777
55861SOL    HW169357   0.550   4.825   2.853
55861SOL    HW269358   0.574   4.747   2.725
55862SOL     OW69359   8.200   3.179   3.948
55862SOL    HW169360   8.187   3.164   4.042
55862SOL    HW269361   8.204   3.274   3.939
55863SOL     OW69362   0.692   9.592   7.787
55863SOL    HW169363   0.641   9.530   7.840
55863SOL    HW269364   0.626   9.642   7.739
55864SOL     OW69365  11.117   2.763   5.547
55864SOL    HW169366  11.061   2.821   5.600
55864SOL    HW269367  11.065   2.746   5.469
55865SOL     OW69368   9.675  11.576   6.663
55865SOL    HW169369   9.667  11.499   6.721
55865SOL    HW269370   9.767  11.578   6.639
55866SOL     OW69371  10.877  10.262   7.415
55866SOL    HW169372  10.901  10.257   7.508
55866SOL    HW269373  10.834  10.178   7.397
55867SOL     OW69374   1.683  13.552  14.198
55867SOL    HW169375   1.739  13.486  14.239
55867SOL    HW269376   1.594  13.517  14.209
55868SOL     OW69377  10.168   1.251   3.044
55868SOL    HW169378  10.236   1.313   3.018
55868SOL    HW269379  10.198   1.217   3.128
55869SOL     OW69380  14.359   9.201   4.473
55869SOL    HW169381  14.295   9.225   4.406
55869SOL    HW269382  14.308   9.184   4.551
55870SOL     OW69383   7.038   7.279   3.266
55870SOL    HW169384   7.104   7.274   3.334
55870SOL    HW269385   6.969   7.219   3.295
55871SOL     OW69386   5.085   0.879  11.407
55871SOL    HW169387   5.151   0.854  11.343
55871SOL    HW269388   5.131   0.882  11.490
55872SOL     OW69389  14.290  12.075   6.109
55872SOL    HW169390  14.196  12.080   6.124
55872SOL    HW269391  14.305  11.986   6.076
55873SOL     OW69392  11.780   8.555   5.673
55873SOL    HW169393  11.852   8.509   5.717
55873SOL    HW269394  11.798   8.648   5.690
55874SOL     OW69395   2.771   0.504  12.865
55874SOL    HW169396   2.794   0.562  12.793
55874SOL    HW269397   2.697   0.548  12.908
55875SOL     OW69398   3.730   8.265   5.142
55875SOL    HW169399   3.818   8.231   5.160
55875SOL    HW269400   3.678   8.240   5.218
55876SOL     OW69401   3.729   3.576   6.806
55876SOL    HW169402   3.728   3.522   6.727
55876SOL    HW269403   3.783   3.651   6.783
55877SOL     OW69404  13.766   5.932   9.154
55877SOL    HW169405  13.747   6.017   9.193
55877SOL    HW269406  13.681   5.902   9.121
55878SOL     OW69407   3.341  10.776   6.315
55878SOL    HW169408   3.409  10.745   6.256
55878SOL    HW269409   3.389  10.814   6.389
55879SOL     OW69410   5.080   0.622   0.842
55879SOL    HW169411   5.126   0.543   0.813
55879SOL    HW269412   5.139   0.694   0.819
55880SOL     OW69413   8.458   1.188  13.500
55880SOL    HW169414   8.421   1.275  13.487
55880SOL    HW269415   8.548   1.204  13.528
55881SOL     OW69416  10.778   6.129  14.605
55881SOL    HW169417  10.784   6.134  14.509
55881SOL    HW269418  10.844   6.064  14.630
55882SOL     OW69419  10.966   9.514   0.994
55882SOL    HW169420  11.000   9.602   0.978
55882SOL    HW269421  10.876   9.528   1.022
55883SOL     OW69422   5.172   3.819   1.448
55883SOL    HW169423   5.148   3.895   1.395
55883SOL    HW269424   5.265   3.830   1.466
55884SOL     OW69425   5.508  14.574   5.322
55884SOL    HW169426   5.501  14.512   5.250
55884SOL    HW269427   5.420  14.610   5.331
55885SOL     OW69428  11.054  11.936  11.047
55885SOL    HW169429  10.958  11.942  11.051
55885SOL    HW269430  11.079  11.992  10.974
55886SOL     OW69431   7.400  14.032   8.830
55886SOL    HW169432   7.484  14.000   8.865
55886SOL    HW269433   7.418  14.122   8.803
55887SOL     OW69434  11.103   5.118   5.253
55887SOL    HW169435  11.128   5.137   5.162
55887SOL    HW269436  11.185   5.090   5.295
55888SOL     OW69437   3.705   8.453  12.988
55888SOL    HW169438   3.665   8.437  13.073
55888SOL    HW269439   3.800   8.447  13.004
55889SOL     OW69440  11.156   3.957  13.309
55889SOL    HW169441  11.082   4.013  13.330
55889SOL    HW269442  11.141   3.929  13.218
55890SOL     OW69443   3.333   1.953   8.087
55890SOL    HW169444   3.248   1.993   8.064
55890SOL    HW269445   3.396   2.025   8.078
55891SOL     OW69446  14.208   8.480   4.151
55891SOL    HW169447  14.240   8.567   4.172
55891SOL    HW269448  14.277   8.421   4.181
55892SOL     OW69449   8.428  13.032   2.613
55892SOL    HW169450   8.391  12.970   2.551
55892SOL    HW269451   8.407  12.996   2.699
55893SOL     OW69452  14.425   7.124   3.837
55893SOL    HW169453  14.464   7.140   3.923
55893SOL    HW269454  14.369   7.200   3.822
55894SOL     OW69455  11.840   8.889   9.482
55894SOL    HW169456  11.913   8.856   9.429
55894SOL    HW269457  11.775   8.819   9.479
55895SOL     OW69458   6.536   6.251   9.521
55895SOL    HW169459   6.485   6.332   9.521
55895SOL    HW269460   6.503   6.203   9.598
55896SOL     OW69461   4.075  14.358   7.188
55896SOL    HW169462   4.167  14.334   7.173
55896SOL    HW269463   4.072  14.387   7.279
55897SOL     OW69464   4.456   2.370   4.271
55897SOL    HW169465   4.549   2.368   4.248
55897SOL    HW269466   4.422   2.446   4.224
55898SOL     OW69467   1.730   0.396  14.637
55898SOL    HW169468   1.771   0.382  14.552
55898SOL    HW269469   1.645   0.353  14.629
55899SOL     OW69470  13.547   0.895  14.659
55899SOL    HW169471  13.506   0.856  14.736
55899SOL    HW269472  13.626   0.938  14.692
55900SOL     OW69473   2.396   1.534  10.749
55900SOL    HW169474   2.443   1.555  10.668
55900SOL    HW269475   2.431   1.594  10.814
55901SOL     OW69476   5.063  13.346   1.681
55901SOL    HW169477   5.065  13.298   1.597
55901SOL    HW269478   5.042  13.279   1.746
55902SOL     OW69479   7.421  14.084  11.087
55902SOL    HW169480   7.403  13.998  11.050
55902SOL    HW269481   7.514  14.081  11.110
55903SOL     OW69482   3.584   6.287   7.229
55903SOL    HW169483   3.559   6.325   7.313
55903SOL    HW269484   3.547   6.346   7.164
55904SOL     OW69485   5.108   2.902   2.192
55904SOL    HW169486   5.082   2.957   2.266
55904SOL    HW269487   5.204   2.903   2.194
55905SOL     OW69488   0.366  14.254  14.213
55905SOL    HW169489   0.445  14.304  14.232
55905SOL    HW269490   0.294  14.310  14.244
55906SOL     OW69491   9.195   6.147  10.207
55906SOL    HW169492   9.188   6.069  10.152
55906SOL    HW269493   9.125   6.137  10.271
55907SOL     OW69494  11.759   2.281   8.158
55907SOL    HW169495  11.838   2.234   8.182
55907SOL    HW269496  11.788   2.350   8.098
55908SOL     OW69497   6.463   4.772   5.117
55908SOL    HW169498   6.392   4.837   5.120
55908SOL    HW269499   6.445   4.721   5.038
55909SOL     OW69500   7.527   6.455   3.768
55909SOL    HW169501   7.549   6.518   3.837
55909SOL    HW269502   7.455   6.496   3.721
55910SOL     OW69503  14.632  10.724  13.595
55910SOL    HW169504  14.727  10.724  13.603
55910SOL    HW269505  14.602  10.796  13.650
55911SOL     OW69506   4.142   8.194  14.552
55911SOL    HW169507   4.232   8.225  14.540
55911SOL    HW269508   4.115   8.166  14.464
55912SOL     OW69509   4.624  12.504   0.676
55912SOL    HW169510   4.661  12.561   0.608
55912SOL    HW269511   4.699  12.455   0.709
55913SOL     OW69512   3.470  10.606   7.335
55913SOL    HW169513   3.536  10.675   7.332
55913SOL    HW269514   3.493  10.548   7.262
55914SOL     OW69515  10.625  11.061   4.182
55914SOL    HW169516  10.699  11.114   4.211
55914SOL    HW269517  10.561  11.125   4.152
55915SOL     OW69518  13.808   5.457  11.564
55915SOL    HW169519  13.829   5.365  11.546
55915SOL    HW269520  13.890   5.504  11.551
55916SOL     OW69521  14.153   8.747  14.702
55916SOL    HW169522  14.126   8.724  14.791
55916SOL    HW269523  14.133   8.840  14.693
55917SOL     OW69524   5.498   0.837   3.087
55917SOL    HW169525   5.416   0.855   3.134
55917SOL    HW269526   5.516   0.917   3.038
55918SOL     OW69527   0.839   0.878   8.606
55918SOL    HW169528   0.760   0.915   8.565
55918SOL    HW269529   0.806   0.834   8.685
55919SOL     OW69530   4.471   6.458   8.764
55919SOL    HW169531   4.421   6.437   8.685
55919SOL    HW269532   4.428   6.408   8.833
55920SOL     OW69533   9.637  10.169   2.876
55920SOL    HW169534   9.731  10.154   2.885
55920SOL    HW269535   9.611  10.119   2.799
55921SOL     OW69536   7.229   4.899  13.725
55921SOL    HW169537   7.282   4.924  13.650
55921SOL    HW269538   7.255   4.960  13.794
55922SOL     OW69539   7.016  14.024   0.633
55922SOL    HW169540   7.056  14.111   0.641
55922SOL    HW269541   6.970  14.010   0.715
55923SOL     OW69542   5.337   3.693   9.230
55923SOL    HW169543   5.331   3.765   9.294
55923SOL    HW269544   5.408   3.638   9.263
55924SOL     OW69545  10.738   4.269   7.890
55924SOL    HW169546  10.694   4.310   7.815
55924SOL    HW269547  10.786   4.196   7.852
55925SOL     OW69548   8.631   8.437   8.104
55925SOL    HW169549   8.602   8.425   8.014
55925SOL    HW269550   8.657   8.350   8.133
55926SOL     OW69551   1.438   8.790  13.545
55926SOL    HW169552   1.349   8.775  13.577
55926SOL    HW269553   1.462   8.708  13.501
55927SOL     OW69554  14.659   2.963   8.642
55927SOL    HW169555  14.729   2.916   8.687
55927SOL    HW269556  14.683   2.959   8.549
55928SOL     OW69557   0.512   4.332   0.826
55928SOL    HW169558   0.458   4.272   0.775
55928SOL    HW269559   0.598   4.330   0.784
55929SOL     OW69560   4.475   2.041  12.205
55929SOL    HW169561   4.394   2.039  12.257
55929SOL    HW269562   4.495   1.949  12.188
55930SOL     OW69563   0.731   1.008   7.314
55930SOL    HW169564   0.739   0.929   7.369
55930SOL    HW269565   0.677   0.980   7.240
55931SOL     OW69566  10.399   8.972  13.628
55931SOL    HW169567  10.406   8.929  13.542
55931SOL    HW269568  10.458   9.046  13.622
55932SOL     OW69569  14.088  12.458   3.811
55932SOL    HW169570  14.080  12.433   3.903
55932SOL    HW269571  14.182  12.455   3.794
55933SOL     OW69572  10.026   1.480  11.114
55933SOL    HW169573   9.964   1.530  11.061
55933SOL    HW269574  10.111   1.518  11.093
55934SOL     OW69575  10.504  10.150   4.196
55934SOL    HW169576  10.551  10.229   4.167
55934SOL    HW269577  10.568  10.080   4.186
55935SOL     OW69578  11.736  12.879   8.308
55935SOL    HW169579  11.690  12.961   8.330
55935SOL    HW269580  11.742  12.879   8.213
55936SOL     OW69581   3.466  11.564   2.547
55936SOL    HW169582   3.464  11.478   2.588
55936SOL    HW269583   3.493  11.624   2.616
55937SOL     OW69584   6.728  11.930  12.514
55937SOL    HW169585   6.756  12.020  12.495
55937SOL    HW269586   6.779  11.905  12.591
55938SOL     OW69587  13.887   9.356   2.649
55938SOL    HW169588  13.950   9.381   2.717
55938SOL    HW269589  13.886   9.260   2.652
55939SOL     OW69590  13.702  13.120  13.784
55939SOL    HW169591  13.720  13.205  13.825
55939SOL    HW269592  13.607  13.118  13.775
55940SOL     OW69593   1.645   6.383   5.270
55940SOL    HW169594   1.651   6.477   5.254
55940SOL    HW269595   1.622   6.375   5.362
55941SOL     OW69596  12.524  14.742   1.651
55941SOL    HW169597  12.536  14.774   1.740
55941SOL    HW269598  12.516  14.647   1.660
55942SOL     OW69599   0.309   2.145  10.812
55942SOL    HW169600   0.325   2.051  10.801
55942SOL    HW269601   0.214   2.152  10.822
55943SOL     OW69602   2.408   7.193   0.661
55943SOL    HW169603   2.446   7.146   0.735
55943SOL    HW269604   2.467   7.267   0.647
55944SOL     OW69605  11.576   0.856  12.547
55944SOL    HW169606  11.599   0.837  12.456
55944SOL    HW269607  11.526   0.938  12.542
55945SOL     OW69608   5.511  11.246   6.188
55945SOL    HW169609   5.548  11.334   6.174
55945SOL    HW269610   5.464  11.227   6.107
55946SOL     OW69611   6.474   5.809   8.189
55946SOL    HW169612   6.427   5.747   8.134
55946SOL    HW269613   6.561   5.815   8.150
55947SOL     OW69614   3.586  10.548   8.371
55947SOL    HW169615   3.660  10.606   8.355
55947SOL    HW269616   3.582  10.492   8.293
55948SOL     OW69617  12.472   2.689  14.454
55948SOL    HW169618  12.551   2.722  14.497
55948SOL    HW269619  12.505   2.645  14.375
55949SOL     OW69620   7.920   6.927   4.079
55949SOL    HW169621   7.922   6.936   3.984
55949SOL    HW269622   7.976   6.998   4.111
55950SOL     OW69623   4.108   2.011   5.814
55950SOL    HW169624   4.134   1.931   5.861
55950SOL    HW269625   4.059   1.979   5.738
55951SOL     OW69626  10.325   1.596   4.340
55951SOL    HW169627  10.301   1.625   4.252
55951SOL    HW269628  10.323   1.500   4.335
55952SOL     OW69629   2.832  13.014   6.193
55952SOL    HW169630   2.920  13.012   6.231
55952SOL    HW269631   2.795  13.098   6.222
55953SOL     OW69632  13.517   2.918   6.573
55953SOL    HW169633  13.611   2.901   6.567
55953SOL    HW269634  13.509   2.986   6.640
55954SOL     OW69635   4.652  14.636  13.792
55954SOL    HW169636   4.668  14.711  13.849
55954SOL    HW269637   4.591  14.581  13.841
55955SOL     OW69638   3.190   7.613   3.155
55955SOL    HW169639   3.169   7.685   3.215
55955SOL    HW269640   3.165   7.534   3.202
55956SOL     OW69641   6.921   3.012  11.442
55956SOL    HW169642   6.976   2.951  11.490
55956SOL    HW269643   6.906   3.084  11.504
55957SOL     OW69644   8.869   3.411  14.386
55957SOL    HW169645   8.963   3.428  14.398
55957SOL    HW269646   8.859   3.400  14.292
55958SOL     OW69647  12.829   4.878   8.338
55958SOL    HW169648  12.886   4.936   8.388
55958SOL    HW269649  12.837   4.909   8.247
55959SOL     OW69650  14.279   2.625   7.962
55959SOL    HW169651  14.369   2.602   7.940
55959SOL    HW269652  14.262   2.706   7.914
55960SOL     OW69653   1.126   5.087   3.861
55960SOL    HW169654   1.083   5.105   3.777
55960SOL    HW269655   1.131   5.173   3.905
55961SOL     OW69656  14.624   4.528   7.376
55961SOL    HW169657  14.534   4.501   7.392
55961SOL    HW269658  14.677   4.463   7.423
55962SOL     OW69659  11.391  12.747   5.189
55962SOL    HW169660  11.437  12.796   5.121
55962SOL    HW269661  11.441  12.666   5.199
55963SOL     OW69662   2.903   8.306   5.556
55963SOL    HW169663   2.976   8.292   5.617
55963SOL    HW269664   2.888   8.220   5.518
55964SOL     OW69665   2.756   5.703  14.321
55964SOL    HW169666   2.722   5.733  14.237
55964SOL    HW269667   2.713   5.759  14.386
55965SOL     OW69668  14.423   4.416  12.747
55965SOL    HW169669  14.386   4.397  12.833
55965SOL    HW269670  14.516   4.394  12.756
55966SOL     OW69671   6.299   7.099   6.125
55966SOL    HW169672   6.262   7.158   6.059
55966SOL    HW269673   6.348   7.035   6.074
55967SOL     OW69674  14.572   4.988   8.099
55967SOL    HW169675  14.491   4.940   8.084
55967SOL    HW269676  14.554   5.044   8.175
55968SOL     OW69677   5.396  13.636   2.660
55968SOL    HW169678   5.452  13.577   2.609
55968SOL    HW269679   5.375  13.707   2.599
55969SOL     OW69680   3.598   8.737  13.189
55969SOL    HW169681   3.532   8.769  13.251
55969SOL    HW269682   3.681   8.745  13.237
55970SOL     OW69683  14.796  10.631   7.943
55970SOL    HW169684  14.867  10.591   7.992
55970SOL    HW269685  14.742  10.558   7.914
55971SOL     OW69686   6.356   4.538   7.975
55971SOL    HW169687   6.390   4.484   8.047
55971SOL    HW269688   6.384   4.493   7.896
55972SOL     OW69689  14.840   6.287   8.286
55972SOL    HW169690  14.877   6.303   8.199
55972SOL    HW269691  14.829   6.192   8.290
55973SOL     OW69692  11.528  10.344   7.673
55973SOL    HW169693  11.457  10.351   7.736
55973SOL    HW269694  11.606  10.375   7.719
55974SOL     OW69695   4.678   6.116   9.073
55974SOL    HW169696   4.761   6.159   9.097
55974SOL    HW269697   4.690   6.026   9.102
55975SOL     OW69698  11.669  13.212  11.887
55975SOL    HW169699  11.657  13.139  11.826
55975SOL    HW269700  11.735  13.181  11.949
55976SOL     OW69701   0.232   6.827   7.817
55976SOL    HW169702   0.185   6.910   7.808
55976SOL    HW269703   0.173   6.762   7.781
55977SOL     OW69704   0.174  12.039   6.701
55977SOL    HW169705   0.106  11.972   6.710
55977SOL    HW269706   0.215  12.021   6.617
55978SOL     OW69707   4.316  13.152   6.173
55978SOL    HW169708   4.274  13.236   6.156
55978SOL    HW269709   4.410  13.170   6.165
55979SOL     OW69710   3.269  11.270   1.602
55979SOL    HW169711   3.332  11.204   1.632
55979SOL    HW269712   3.298  11.351   1.644
55980SOL     OW69713   5.593  10.038   8.661
55980SOL    HW169714   5.642  10.033   8.743
55980SOL    HW269715   5.516  10.090   8.682
55981SOL     OW69716  14.796  14.274  11.086
55981SOL    HW169717  14.802  14.327  11.165
55981SOL    HW269718   0.002  14.288  11.041
55982SOL     OW69719   2.378   6.224   7.648
55982SOL    HW169720   2.341   6.303   7.687
55982SOL    HW269721   2.419   6.177   7.721
55983SOL     OW69722   3.844  13.806   9.378
55983SOL    HW169723   3.890  13.769   9.453
55983SOL    HW269724   3.767  13.750   9.367
55984SOL     OW69725  12.911   2.696   2.693
55984SOL    HW169726  12.969   2.699   2.616
55984SOL    HW269727  12.946   2.625   2.747
55985SOL     OW69728  10.962  10.225   6.699
55985SOL    HW169729  10.876  10.242   6.659
55985SOL    HW269730  10.948  10.149   6.755
55986SOL     OW69731   4.508   1.872  14.163
55986SOL    HW169732   4.589   1.829  14.134
55986SOL    HW269733   4.459   1.803  14.208
55987SOL     OW69734   1.329   8.091  14.214
55987SOL    HW169735   1.344   8.072  14.307
55987SOL    HW269736   1.342   8.006  14.170
55988SOL     OW69737   8.768   6.512   1.143
55988SOL    HW169738   8.701   6.485   1.081
55988SOL    HW269739   8.842   6.539   1.089
55989SOL     OW69740  10.150   6.703  10.177
55989SOL    HW169741  10.203   6.715  10.099
55989SOL    HW269742  10.094   6.628  10.157
55990SOL     OW69743  13.357   1.980   7.595
55990SOL    HW169744  13.353   1.886   7.613
55990SOL    HW269745  13.421   2.014   7.657
55991SOL     OW69746  11.697   4.389   8.047
55991SOL    HW169747  11.685   4.368   7.955
55991SOL    HW269748  11.763   4.328   8.079
55992SOL     OW69749   1.773   1.316  10.489
55992SOL    HW169750   1.826   1.245  10.523
55992SOL    HW269751   1.797   1.392  10.541
55993SOL     OW69752   9.312  11.735  12.714
55993SOL    HW169753   9.238  11.752  12.773
55993SOL    HW269754   9.300  11.644  12.686
55994SOL     OW69755  12.723   7.953   9.939
55994SOL    HW169756  12.642   7.906   9.957
55994SOL    HW269757  12.697   8.027   9.885
55995SOL     OW69758  14.248   3.500  11.949
55995SOL    HW169759  14.154   3.486  11.947
55995SOL    HW269760  14.285   3.413  11.964
55996SOL     OW69761   7.919   3.078  11.195
55996SOL    HW169762   8.005   3.070  11.154
55996SOL    HW269763   7.864   3.016  11.145
55997SOL     OW69764   7.367   7.534  12.918
55997SOL    HW169765   7.314   7.506  12.844
55997SOL    HW269766   7.380   7.628  12.904
55998SOL     OW69767   6.521  13.780   4.814
55998SOL    HW169768   6.466  13.774   4.893
55998SOL    HW269769   6.472  13.731   4.748
55999SOL     OW69770   2.130   3.235  12.675
55999SOL    HW169771   2.117   3.233  12.769
55999SOL    HW269772   2.205   3.293  12.662
56000SOL     OW69773   5.326   6.040   3.081
56000SOL    HW169774   5.297   6.131   3.080
56000SOL    HW269775   5.413   6.043   3.121
56001SOL     OW69776   5.163   7.130   0.696
56001SOL    HW169777   5.092   7.102   0.753
56001SOL    HW269778   5.242   7.099   0.740
56002SOL     OW69779   0.727  10.885  13.896
56002SOL    HW169780   0.640  10.875  13.935
56002SOL    HW269781   0.710  10.901  13.803
56003SOL     OW69782  10.552   8.655   6.651
56003SOL    HW169783  10.500   8.577   6.631
56003SOL    HW269784  10.491   8.728   6.644
56004SOL     OW69785  12.921   4.673   3.723
56004SOL    HW169786  12.859   4.600   3.716
56004SOL    HW269787  12.926   4.691   3.817
56005SOL     OW69788   7.685   7.201   8.475
56005SOL    HW169789   7.643   7.283   8.451
56005SOL    HW269790   7.737   7.177   8.399
56006SOL     OW69791   7.141   2.631  10.973
56006SOL    HW169792   7.082   2.556  10.968
56006SOL    HW269793   7.110   2.690  10.903
56007SOL     OW69794   4.055   1.141   5.959
56007SOL    HW169795   4.027   1.052   5.981
56007SOL    HW269796   4.089   1.134   5.870
56008SOL     OW69797   2.954  11.374   2.157
56008SOL    HW169798   2.968  11.445   2.094
56008SOL    HW269799   3.042  11.347   2.183
56009SOL     OW69800   9.149  14.648  12.532
56009SOL    HW169801   9.196  14.728  12.554
56009SOL    HW269802   9.200  14.609  12.461
56010SOL     OW69803   1.532  14.161  12.279
56010SOL    HW169804   1.568  14.121  12.200
56010SOL    HW269805   1.479  14.234  12.248
56011SOL     OW69806  14.456   5.638   8.615
56011SOL    HW169807  14.465   5.733   8.611
56011SOL    HW269808  14.394   5.623   8.686
56012SOL     OW69809   6.033   1.793  12.156
56012SOL    HW169810   5.985   1.850  12.096
56012SOL    HW269811   6.095   1.852  12.200
56013SOL     OW69812   1.651   6.110  13.245
56013SOL    HW169813   1.666   6.204  13.248
56013SOL    HW269814   1.706   6.079  13.173
56014SOL     OW69815   4.917   1.634   2.167
56014SOL    HW169816   4.941   1.643   2.075
56014SOL    HW269817   4.869   1.715   2.187
56015SOL     OW69818  14.128   6.197   8.645
56015SOL    HW169819  14.138   6.156   8.559
56015SOL    HW269820  14.103   6.287   8.626
56016SOL     OW69821   2.297   7.248   7.903
56016SOL    HW169822   2.349   7.328   7.896
56016SOL    HW269823   2.303   7.208   7.816
56017SOL     OW69824   3.829   0.402   8.750
56017SOL    HW169825   3.839   0.471   8.685
56017SOL    HW269826   3.906   0.408   8.805
56018SOL     OW69827   5.596  10.849  14.348
56018SOL    HW169828   5.558  10.813  14.428
56018SOL    HW269829   5.610  10.772  14.292
56019SOL     OW69830  14.484  13.708   7.087
56019SOL    HW169831  14.435  13.696   7.006
56019SOL    HW269832  14.570  13.738   7.059
56020SOL     OW69833   3.101   4.271  13.425
56020SOL    HW169834   3.173   4.215  13.398
56020SOL    HW269835   3.024   4.214  13.424
56021SOL     OW69836   9.540   8.856   1.282
56021SOL    HW169837   9.523   8.796   1.355
56021SOL    HW269838   9.459   8.856   1.232
56022SOL     OW69839   2.374  10.342   5.881
56022SOL    HW169840   2.316  10.346   5.805
56022SOL    HW269841   2.317  10.314   5.953
56023SOL     OW69842   1.447   0.395  10.956
56023SOL    HW169843   1.514   0.409  10.890
56023SOL    HW269844   1.463   0.464  11.021
56024SOL     OW69845   9.865  11.020   1.947
56024SOL    HW169846   9.888  10.929   1.964
56024SOL    HW269847   9.837  11.022   1.855
56025SOL     OW69848   5.866   7.232   5.220
56025SOL    HW169849   5.831   7.313   5.182
56025SOL    HW269850   5.839   7.164   5.158
56026SOL     OW69851   0.213  14.227  10.286
56026SOL    HW169852   0.213  14.147  10.233
56026SOL    HW269853   0.274  14.285  10.241
56027SOL     OW69854  12.561   3.612   4.102
56027SOL    HW169855  12.537   3.619   4.194
56027SOL    HW269856  12.547   3.519   4.081
56028SOL     OW69857  10.167   9.580  12.492
56028SOL    HW169858  10.159   9.675  12.506
56028SOL    HW269859  10.091   9.557  12.439
56029SOL     OW69860   7.957  14.037  12.123
56029SOL    HW169861   8.049  14.056  12.106
56029SOL    HW269862   7.929  14.105  12.185
56030SOL     OW69863   6.982   6.763  14.111
56030SOL    HW169864   7.023   6.710  14.179
56030SOL    HW269865   6.905   6.713  14.085
56031SOL     OW69866   3.848   7.282   7.184
56031SOL    HW169867   3.791   7.355   7.208
56031SOL    HW269868   3.877   7.245   7.267
56032SOL     OW69869   5.863   5.592  10.466
56032SOL    HW169870   5.938   5.607  10.523
56032SOL    HW269871   5.893   5.526  10.403
56033SOL     OW69872   8.410  12.674   3.113
56033SOL    HW169873   8.373  12.620   3.044
56033SOL    HW269874   8.500  12.692   3.085
56034SOL     OW69875   4.266   5.887  14.552
56034SOL    HW169876   4.256   5.960  14.491
56034SOL    HW269877   4.211   5.818  14.516
56035SOL     OW69878   4.551   5.720  11.917
56035SOL    HW169879   4.580   5.741  11.828
56035SOL    HW269880   4.623   5.750  11.973
56036SOL     OW69881  12.828  12.221   6.320
56036SOL    HW169882  12.807  12.313   6.336
56036SOL    HW269883  12.799  12.204   6.230
56037SOL     OW69884   2.041   7.180   5.753
56037SOL    HW169885   1.967   7.164   5.694
56037SOL    HW269886   2.007   7.242   5.818
56038SOL     OW69887   1.289  13.785   9.495
56038SOL    HW169888   1.374  13.742   9.487
56038SOL    HW269889   1.225  13.717   9.472
56039SOL     OW69890   0.438   2.965   2.733
56039SOL    HW169891   0.510   2.906   2.755
56039SOL    HW269892   0.372   2.909   2.691
56040SOL     OW69893   6.681  10.003   3.751
56040SOL    HW169894   6.689  10.087   3.796
56040SOL    HW269895   6.662   9.940   3.821
56041SOL     OW69896   6.737   3.168   4.666
56041SOL    HW169897   6.786   3.233   4.716
56041SOL    HW269898   6.790   3.088   4.672
56042SOL     OW69899  10.862   4.828   3.973
56042SOL    HW169900  10.951   4.863   3.961
56042SOL    HW269901  10.870   4.768   4.047
56043SOL     OW69902   8.426   3.264   6.142
56043SOL    HW169903   8.470   3.300   6.065
56043SOL    HW269904   8.497   3.241   6.202
56044SOL     OW69905   9.586   8.575   8.014
56044SOL    HW169906   9.656   8.510   8.016
56044SOL    HW269907   9.506   8.523   8.019
56045SOL     OW69908   5.776  10.839   6.405
56045SOL    HW169909   5.788  10.934   6.400
56045SOL    HW269910   5.688  10.824   6.371
56046SOL     OW69911   7.142   7.722   7.292
56046SOL    HW169912   7.178   7.634   7.288
56046SOL    HW269913   7.072   7.717   7.357
56047SOL     OW69914   5.765  12.462   4.797
56047SOL    HW169915   5.686  12.414   4.773
56047SOL    HW269916   5.774  12.447   4.891
56048SOL     OW69917  12.377   2.546   1.886
56048SOL    HW169918  12.442   2.617   1.891
56048SOL    HW269919  12.427   2.467   1.907
56049SOL     OW69920   2.020   4.547  11.027
56049SOL    HW169921   1.930   4.550  10.993
56049SOL    HW269922   2.074   4.568  10.951
56050SOL     OW69923  10.607  11.809   4.163
56050SOL    HW169924  10.697  11.842   4.161
56050SOL    HW269925  10.554  11.885   4.190
56051SOL     OW69926  14.712   5.760   4.766
56051SOL    HW169927  14.629   5.726   4.797
56051SOL    HW269928  14.767   5.682   4.755
56052SOL     OW69929   6.672  10.855   2.962
56052SOL    HW169930   6.625  10.775   2.986
56052SOL    HW269931   6.605  10.924   2.965
56053SOL     OW69932  13.337   9.472  10.894
56053SOL    HW169933  13.257   9.485  10.843
56053SOL    HW269934  13.322   9.392  10.943
56054SOL     OW69935   5.165   9.457   6.565
56054SOL    HW169936   5.243   9.431   6.517
56054SOL    HW269937   5.181   9.428   6.655
56055SOL     OW69938   0.979  13.148   1.351
56055SOL    HW169939   1.032  13.202   1.292
56055SOL    HW269940   1.035  13.074   1.373
56056SOL     OW69941   6.446  14.153   5.644
56056SOL    HW169942   6.511  14.202   5.594
56056SOL    HW269943   6.480  14.063   5.647
56057SOL     OW69944   3.322   9.059  11.932
56057SOL    HW169945   3.395   9.012  11.890
56057SOL    HW269946   3.261   9.077  11.861
56058SOL     OW69947  12.442  11.403  12.233
56058SOL    HW169948  12.516  11.380  12.289
56058SOL    HW269949  12.411  11.487  12.268
56059SOL     OW69950   0.913   4.957   2.464
56059SOL    HW169951   0.988   4.915   2.422
56059SOL    HW269952   0.858   4.986   2.391
56060SOL     OW69953   9.882   1.983  12.527
56060SOL    HW169954   9.909   1.924  12.457
56060SOL    HW269955   9.900   2.071  12.492
56061SOL     OW69956   5.439  11.919   3.202
56061SOL    HW169957   5.515  11.861   3.204
56061SOL    HW269958   5.433  11.953   3.292
56062SOL     OW69959   1.677   2.293  11.041
56062SOL    HW169960   1.654   2.319  11.130
56062SOL    HW269961   1.651   2.202  11.035
56063SOL     OW69962   9.132   5.188   8.792
56063SOL    HW169963   9.079   5.113   8.816
56063SOL    HW269964   9.089   5.224   8.714
56064SOL     OW69965  14.273   0.213   0.570
56064SOL    HW169966  14.292   0.136   0.516
56064SOL    HW269967  14.266   0.179   0.659
56065SOL     OW69968   1.796   9.270   0.873
56065SOL    HW169969   1.884   9.233   0.864
56065SOL    HW269970   1.808   9.364   0.858
56066SOL     OW69971  11.186   3.849  10.954
56066SOL    HW169972  11.197   3.931  10.905
56066SOL    HW269973  11.254   3.852  11.021
56067SOL     OW69974   4.861   0.212   5.676
56067SOL    HW169975   4.941   0.259   5.655
56067SOL    HW269976   4.841   0.237   5.766
56068SOL     OW69977  11.892  13.960  12.579
56068SOL    HW169978  11.907  13.898  12.508
56068SOL    HW269979  11.979  13.996  12.598
56069SOL     OW69980   0.185   4.250   7.997
56069SOL    HW169981   0.174   4.345   7.988
56069SOL    HW269982   0.275   4.239   8.027
56070SOL     OW69983   4.352   6.527   1.137
56070SOL    HW169984   4.311   6.596   1.189
56070SOL    HW269985   4.282   6.493   1.082
56071SOL     OW69986   9.016  13.472  13.500
56071SOL    HW169987   8.974  13.392  13.531
56071SOL    HW269988   8.996  13.475  13.407
56072SOL     OW69989  11.851   6.056   1.280
56072SOL    HW169990  11.806   6.134   1.310
56072SOL    HW269991  11.940   6.086   1.258
56073SOL     OW69992   1.635  13.276  13.965
56073SOL    HW169993   1.624  13.308  14.055
56073SOL    HW269994   1.571  13.325  13.914
56074SOL     OW69995   5.360   8.065  10.608
56074SOL    HW169996   5.268   8.063  10.581
56074SOL    HW269997   5.368   8.144  10.661
56075SOL     OW69998   1.759   2.748  13.999
56075SOL    HW169999   1.789   2.659  13.980
56075SOL    HW270000   1.833   2.804  13.978
56076SOL     OW70001   9.506  13.946   5.612
56076SOL    HW170002   9.464  13.889   5.677
56076SOL    HW270003   9.545  14.017   5.664
56077SOL     OW70004  12.581   0.623   4.069
56077SOL    HW170005  12.555   0.625   3.977
56077SOL    HW270006  12.676   0.609   4.067
56078SOL     OW70007  12.623  12.845  11.357
56078SOL    HW170008  12.688  12.793  11.406
56078SOL    HW270009  12.558  12.782  11.328
56079SOL     OW70010   4.304   0.607  10.371
56079SOL    HW170011   4.339   0.518  10.371
56079SOL    HW270012   4.284   0.624  10.279
56080SOL     OW70013   6.653   3.408   3.899
56080SOL    HW170014   6.623   3.323   3.866
56080SOL    HW270015   6.695   3.450   3.823
56081SOL     OW70016   0.778   2.002  10.461
56081SOL    HW170017   0.697   2.003  10.512
56081SOL    HW270018   0.803   2.094  10.453
56082SOL     OW70019   4.302   4.110   0.359
56082SOL    HW170020   4.276   4.134   0.270
56082SOL    HW270021   4.395   4.086   0.351
56083SOL     OW70022  11.393   3.291   0.704
56083SOL    HW170023  11.448   3.234   0.650
56083SOL    HW270024  11.401   3.254   0.792
56084SOL     OW70025  13.099   0.682  13.433
56084SOL    HW170026  13.012   0.660  13.466
56084SOL    HW270027  13.152   0.605  13.451
56085SOL     OW70028   0.294   5.561  13.618
56085SOL    HW170029   0.278   5.512  13.537
56085SOL    HW270030   0.306   5.494  13.685
56086SOL     OW70031  12.589   9.525   0.096
56086SOL    HW170032  12.617   9.471   0.022
56086SOL    HW270033  12.521   9.474   0.139
56087SOL     OW70034  12.587  14.398   0.243
56087SOL    HW170035  12.633  14.320   0.211
56087SOL    HW270036  12.601  14.464   0.175
56088SOL     OW70037   8.268   2.843   5.635
56088SOL    HW170038   8.330   2.829   5.706
56088SOL    HW270039   8.322   2.867   5.560
56089SOL     OW70040   7.255  14.094   2.305
56089SOL    HW170041   7.328  14.041   2.338
56089SOL    HW270042   7.295  14.176   2.278
56090SOL     OW70043   1.419  10.500   3.117
56090SOL    HW170044   1.458  10.450   3.045
56090SOL    HW270045   1.493  10.549   3.155
56091SOL     OW70046  13.754   1.323   9.506
56091SOL    HW170047  13.681   1.286   9.456
56091SOL    HW270048  13.725   1.322   9.597
56092SOL     OW70049  11.635  10.578  13.560
56092SOL    HW170050  11.622  10.615  13.647
56092SOL    HW270051  11.720  10.613  13.532
56093SOL     OW70052   6.647   4.301  13.537
56093SOL    HW170053   6.561   4.262  13.519
56093SOL    HW270054   6.629   4.394  13.549
56094SOL     OW70055   6.514   3.656  10.501
56094SOL    HW170056   6.526   3.740  10.456
56094SOL    HW270057   6.599   3.612  10.492
56095SOL     OW70058   6.495   3.643   9.711
56095SOL    HW170059   6.487   3.678   9.800
56095SOL    HW270060   6.579   3.596   9.712
56096SOL     OW70061   6.473   6.212   7.746
56096SOL    HW170062   6.551   6.266   7.751
56096SOL    HW270063   6.506   6.122   7.739
56097SOL     OW70064   3.581   7.606  12.899
56097SOL    HW170065   3.547   7.545  12.834
56097SOL    HW270066   3.573   7.692  12.857
56098SOL     OW70067  10.753   1.158  10.461
56098SOL    HW170068  10.840   1.125  10.438
56098SOL    HW270069  10.721   1.097  10.528
56099SOL     OW70070  12.142   0.273   9.385
56099SOL    HW170071  12.088   0.205   9.346
56099SOL    HW270072  12.201   0.226   9.443
56100SOL     OW70073   0.701   9.080  14.153
56100SOL    HW170074   0.794   9.106  14.152
56100SOL    HW270075   0.692   9.027  14.232
56101SOL     OW70076   7.279   7.975   3.912
56101SOL    HW170077   7.254   8.028   3.836
56101SOL    HW270078   7.198   7.965   3.962
56102SOL     OW70079   6.822   7.204  11.556
56102SOL    HW170080   6.803   7.125  11.606
56102SOL    HW270081   6.786   7.275  11.609
56103SOL     OW70082  13.039   5.200  14.020
56103SOL    HW170083  13.128   5.218  14.050
56103SOL    HW270084  12.996   5.158  14.095
56104SOL     OW70085   5.996   0.454   9.785
56104SOL    HW170086   6.087   0.435   9.809
56104SOL    HW270087   5.986   0.548   9.802
56105SOL     OW70088   4.362   1.644  10.270
56105SOL    HW170089   4.405   1.711  10.217
56105SOL    HW270090   4.334   1.690  10.349
56106SOL     OW70091   1.599  12.357   8.648
56106SOL    HW170092   1.664  12.330   8.583
56106SOL    HW270093   1.516  12.359   8.601
56107SOL     OW70094  10.140   3.305  12.299
56107SOL    HW170095  10.112   3.341  12.215
56107SOL    HW270096  10.179   3.220  12.276
56108SOL     OW70097   8.202   1.822   5.142
56108SOL    HW170098   8.158   1.859   5.219
56108SOL    HW270099   8.290   1.859   5.146
56109SOL     OW70100  10.623   2.332   1.528
56109SOL    HW170101  10.598   2.269   1.596
56109SOL    HW270102  10.544   2.344   1.475
56110SOL     OW70103   9.292   1.225  14.112
56110SOL    HW170104   9.321   1.316  14.111
56110SOL    HW270105   9.350   1.180  14.050
56111SOL     OW70106   2.545   3.732   1.617
56111SOL    HW170107   2.602   3.767   1.548
56111SOL    HW270108   2.565   3.784   1.694
56112SOL     OW70109   5.905   4.064   7.707
56112SOL    HW170110   5.917   4.086   7.615
56112SOL    HW270111   5.988   4.023   7.733
56113SOL     OW70112  14.631  11.540   9.174
56113SOL    HW170113  14.704  11.517   9.117
56113SOL    HW270114  14.653  11.499   9.258
56114SOL     OW70115   6.037  10.479   6.348
56114SOL    HW170116   6.088  10.507   6.272
56114SOL    HW270117   6.100  10.433   6.404
56115SOL     OW70118  10.594   3.213  12.467
56115SOL    HW170119  10.504   3.233  12.493
56115SOL    HW270120  10.592   3.219  12.371
56116SOL     OW70121   3.048  11.320   8.566
56116SOL    HW170122   3.056  11.297   8.659
56116SOL    HW270123   3.134  11.353   8.542
56117SOL     OW70124   9.602  10.699   1.917
56117SOL    HW170125   9.603  10.761   1.844
56117SOL    HW270126   9.510  10.676   1.928
56118SOL     OW70127  11.458  13.939   7.365
56118SOL    HW170128  11.486  13.856   7.405
56118SOL    HW270129  11.532  13.998   7.380
56119SOL     OW70130   3.993   5.584   6.185
56119SOL    HW170131   4.044   5.512   6.147
56119SOL    HW270132   4.058   5.647   6.215
56120SOL     OW70133   8.373   7.726   7.730
56120SOL    HW170134   8.341   7.735   7.820
56120SOL    HW270135   8.397   7.815   7.704
56121SOL     OW70136   4.674   8.793   0.289
56121SOL    HW170137   4.629   8.775   0.206
56121SOL    HW270138   4.614   8.760   0.356
56122SOL     OW70139   6.368   1.183   6.437
56122SOL    HW170140   6.452   1.176   6.484
56122SOL    HW270141   6.346   1.093   6.415
56123SOL     OW70142   5.402  13.155   1.985
56123SOL    HW170143   5.465  13.144   2.056
56123SOL    HW270144   5.435  13.230   1.935
56124SOL     OW70145   3.868   1.650   8.731
56124SOL    HW170146   3.929   1.619   8.664
56124SOL    HW270147   3.827   1.570   8.765
56125SOL     OW70148   2.766  10.527  11.834
56125SOL    HW170149   2.848  10.543  11.788
56125SOL    HW270150   2.752  10.607  11.886
56126SOL     OW70151   9.464  12.421  14.359
56126SOL    HW170152   9.462  12.517  14.350
56126SOL    HW270153   9.447  12.389  14.271
56127SOL     OW70154  14.335   3.540   1.685
56127SOL    HW170155  14.350   3.566   1.594
56127SOL    HW270156  14.249   3.500   1.685
56128SOL     OW70157   8.741   4.012   9.354
56128SOL    HW170158   8.768   3.958   9.280
56128SOL    HW270159   8.739   3.951   9.428
56129SOL     OW70160   0.197   9.139   1.529
56129SOL    HW170161   0.121   9.080   1.533
56129SOL    HW270162   0.161   9.225   1.551
56130SOL     OW70163  10.664   5.154   7.249
56130SOL    HW170164  10.646   5.061   7.257
56130SOL    HW270165  10.751   5.159   7.210
56131SOL     OW70166   7.263   8.698  14.524
56131SOL    HW170167   7.180   8.740  14.544
56131SOL    HW270168   7.240   8.610  14.496
56132SOL     OW70169  12.897   3.328   3.197
56132SOL    HW170170  12.983   3.356   3.166
56132SOL    HW270171  12.894   3.234   3.181
56133SOL     OW70172   4.417  13.099  11.239
56133SOL    HW170173   4.504  13.113  11.201
56133SOL    HW270174   4.435  13.064  11.327
56134SOL     OW70175   8.403   8.907   9.952
56134SOL    HW170176   8.460   8.983   9.966
56134SOL    HW270177   8.454   8.849   9.894
56135SOL     OW70178   8.585   8.138   1.174
56135SOL    HW170179   8.648   8.069   1.198
56135SOL    HW270180   8.607   8.211   1.232
56136SOL     OW70181  11.945   3.932   9.531
56136SOL    HW170182  11.873   3.980   9.572
56136SOL    HW270183  11.930   3.943   9.437
56137SOL     OW70184   4.458   2.023   0.034
56137SOL    HW170185   4.550   2.025   0.058
56137SOL    HW270186   4.412   2.005   0.116
56138SOL     OW70187   6.193   6.597   0.091
56138SOL    HW170188   6.210   6.544   0.169
56138SOL    HW270189   6.222   6.685   0.114
56139SOL     OW70190   9.948   3.920  14.560
56139SOL    HW170191   9.937   3.851  14.495
56139SOL    HW270192   9.867   3.971  14.554
56140SOL     OW70193  13.323  12.057   7.431
56140SOL    HW170194  13.369  12.030   7.351
56140SOL    HW270195  13.264  11.985   7.450
56141SOL     OW70196  11.173   3.663   6.267
56141SOL    HW170197  11.172   3.598   6.197
56141SOL    HW270198  11.125   3.737   6.230
56142SOL     OW70199  13.598   2.563  12.701
56142SOL    HW170200  13.594   2.646  12.748
56142SOL    HW270201  13.578   2.497  12.768
56143SOL     OW70202   2.133  14.850   5.783
56143SOL    HW170203   2.050  14.811   5.755
56143SOL    HW270204   2.152   0.039   5.716
56144SOL     OW70205   6.215   1.820   1.668
56144SOL    HW170206   6.235   1.791   1.578
56144SOL    HW270207   6.222   1.915   1.664
56145SOL     OW70208  13.041   9.151  11.494
56145SOL    HW170209  13.076   9.082  11.438
56145SOL    HW270210  13.072   9.129  11.582
56146SOL     OW70211  13.585   4.725   6.934
56146SOL    HW170212  13.565   4.819   6.931
56146SOL    HW270213  13.643   4.716   7.010
56147SOL     OW70214   8.393   3.277   9.673
56147SOL    HW170215   8.400   3.367   9.641
56147SOL    HW270216   8.300   3.257   9.670
56148SOL     OW70217   7.358   5.708   4.710
56148SOL    HW170218   7.373   5.798   4.738
56148SOL    HW270219   7.441   5.664   4.728
56149SOL     OW70220   7.063   9.781   1.955
56149SOL    HW170221   7.088   9.867   1.991
56149SOL    HW270222   6.981   9.797   1.910
56150SOL     OW70223   8.618  13.448   1.344
56150SOL    HW170224   8.634  13.453   1.250
56150SOL    HW270225   8.547  13.510   1.359
56151SOL     OW70226  12.143  11.175   1.368
56151SOL    HW170227  12.170  11.183   1.459
56151SOL    HW270228  12.051  11.150   1.372
56152SOL     OW70229  12.617  14.354   0.743
56152SOL    HW170230  12.658  14.319   0.664
56152SOL    HW270231  12.668  14.432   0.764
56153SOL     OW70232   1.861  10.441   4.171
56153SOL    HW170233   1.881  10.454   4.264
56153SOL    HW270234   1.942  10.461   4.126
56154SOL     OW70235   2.764  14.484  13.751
56154SOL    HW170236   2.796  14.497  13.840
56154SOL    HW270237   2.805  14.556  13.701
56155SOL     OW70238   1.101   8.338   6.977
56155SOL    HW170239   1.043   8.264   6.995
56155SOL    HW270240   1.056   8.414   7.015
56156SOL     OW70241  11.340   7.614   1.084
56156SOL    HW170242  11.286   7.575   1.152
56156SOL    HW270243  11.427   7.578   1.098
56157SOL     OW70244   5.227   9.367   0.277
56157SOL    HW170245   5.154   9.319   0.238
56157SOL    HW270246   5.187   9.414   0.351
56158SOL     OW70247   1.935   0.998  14.234
56158SOL    HW170248   1.922   1.001  14.329
56158SOL    HW270249   2.011   1.054  14.218
56159SOL     OW70250   7.908  13.005   7.176
56159SOL    HW170251   7.860  13.073   7.224
56159SOL    HW270252   7.928  12.940   7.242
56160SOL     OW70253  12.553  10.078  13.920
56160SOL    HW170254  12.605  10.146  13.963
56160SOL    HW270255  12.524  10.118  13.838
56161SOL     OW70256   3.011  11.122   2.005
56161SOL    HW170257   3.005  11.027   2.020
56161SOL    HW270258   3.104  11.141   2.008
56162SOL     OW70259   6.467   6.553   6.472
56162SOL    HW170260   6.520   6.617   6.520
56162SOL    HW270261   6.408   6.516   6.538
56163SOL     OW70262   2.661   8.648  13.864
56163SOL    HW170263   2.725   8.648  13.935
56163SOL    HW270264   2.642   8.741  13.849
56164SOL     OW70265  10.766   2.715   8.538
56164SOL    HW170266  10.753   2.626   8.572
56164SOL    HW270267  10.844   2.708   8.483
56165SOL     OW70268  13.822   6.709  11.332
56165SOL    HW170269  13.888   6.694  11.400
56165SOL    HW270270  13.752   6.757  11.378
56166SOL     OW70271  11.951  12.014   0.586
56166SOL    HW170272  11.885  12.054   0.643
56166SOL    HW270273  11.911  12.015   0.499
56167SOL     OW70274   2.079   9.464  10.779
56167SOL    HW170275   2.164   9.509  10.770
56167SOL    HW270276   2.049   9.451  10.689
56168SOL     OW70277   6.170  10.860   7.511
56168SOL    HW170278   6.191  10.776   7.469
56168SOL    HW270279   6.154  10.920   7.438
56169SOL     OW70280  12.214   9.043   0.235
56169SOL    HW170281  12.210   8.970   0.296
56169SOL    HW270282  12.283   9.019   0.173
56170SOL     OW70283  12.451  11.341  13.865
56170SOL    HW170284  12.494  11.268  13.819
56170SOL    HW270285  12.443  11.409  13.799
56171SOL     OW70286  12.004   3.274  11.176
56171SOL    HW170287  12.058   3.352  11.186
56171SOL    HW270288  11.957   3.289  11.093
56172SOL     OW70289   0.148   3.490   3.018
56172SOL    HW170290   0.195   3.565   2.981
56172SOL    HW270291   0.155   3.421   2.952
56173SOL     OW70292   2.503   6.798   0.962
56173SOL    HW170293   2.412   6.819   0.982
56173SOL    HW270294   2.551   6.821   1.042
56174SOL     OW70295  11.598  12.877   4.481
56174SOL    HW170296  11.523  12.933   4.462
56174SOL    HW270297  11.666  12.938   4.511
56175SOL     OW70298  11.233   4.262   0.962
56175SOL    HW170299  11.293   4.187   0.958
56175SOL    HW270300  11.173   4.248   0.888
56176SOL     OW70301  11.878  12.904   8.574
56176SOL    HW170302  11.795  12.897   8.528
56176SOL    HW270303  11.858  12.955   8.652
56177SOL     OW70304  10.041   9.134  11.860
56177SOL    HW170305  10.025   9.042  11.881
56177SOL    HW270306   9.955   9.169  11.839
56178SOL     OW70307  14.784  12.341   7.865
56178SOL    HW170308  14.709  12.338   7.925
56178SOL    HW270309  14.745  12.357   7.779
56179SOL     OW70310   2.463   3.282   2.028
56179SOL    HW170311   2.554   3.260   2.049
56179SOL    HW270312   2.442   3.354   2.088
56180SOL     OW70313   2.945  11.000   3.472
56180SOL    HW170314   2.854  10.999   3.441
56180SOL    HW270315   2.940  10.962   3.560
56181SOL     OW70316   9.905   7.637  12.177
56181SOL    HW170317   9.921   7.602  12.265
56181SOL    HW270318   9.904   7.732  12.188
56182SOL     OW70319  14.240   9.725   1.582
56182SOL    HW170320  14.323   9.774   1.585
56182SOL    HW270321  14.177   9.783   1.622
56183SOL     OW70322  13.149  11.277  12.493
56183SOL    HW170323  13.101  11.247  12.570
56183SOL    HW270324  13.235  11.302  12.526
56184SOL     OW70325  13.635   2.564   3.020
56184SOL    HW170326  13.597   2.542   3.105
56184SOL    HW270327  13.687   2.643   3.036
56185SOL     OW70328   3.289  14.272   7.879
56185SOL    HW170329   3.321  14.357   7.851
56185SOL    HW270330   3.220  14.292   7.942
56186SOL     OW70331  11.754  12.888  13.107
56186SOL    HW170332  11.780  12.824  13.041
56186SOL    HW270333  11.682  12.846  13.154
56187SOL     OW70334   0.439  12.119   3.925
56187SOL    HW170335   0.473  12.078   3.846
56187SOL    HW270336   0.496  12.087   3.995
56188SOL     OW70337   4.069  11.864   5.855
56188SOL    HW170338   3.995  11.924   5.841
56188SOL    HW270339   4.067  11.805   5.780
56189SOL     OW70340  14.054   4.920   4.440
56189SOL    HW170341  14.076   4.845   4.495
56189SOL    HW270342  14.114   4.989   4.468
56190SOL     OW70343  10.718   3.794   8.916
56190SOL    HW170344  10.698   3.723   8.978
56190SOL    HW270345  10.678   3.765   8.834
56191SOL     OW70346   3.650   6.426   4.136
56191SOL    HW170347   3.655   6.337   4.102
56191SOL    HW270348   3.634   6.481   4.059
56192SOL     OW70349   4.967   3.812   8.782
56192SOL    HW170350   4.984   3.882   8.719
56192SOL    HW270351   5.018   3.737   8.750
56193SOL     OW70352   8.099   9.916  13.487
56193SOL    HW170353   8.113  10.003  13.524
56193SOL    HW270354   8.015   9.923  13.441
56194SOL     OW70355   9.780   6.732   5.700
56194SOL    HW170356   9.731   6.714   5.780
56194SOL    HW270357   9.717   6.776   5.642
56195SOL     OW70358  12.184   2.557   1.371
56195SOL    HW170359  12.143   2.601   1.446
56195SOL    HW270360  12.272   2.594   1.368
56196SOL     OW70361  11.704  11.937  14.263
56196SOL    HW170362  11.753  12.004  14.311
56196SOL    HW270363  11.750  11.928  14.180
56197SOL     OW70364  14.415   0.136  13.133
56197SOL    HW170365  14.427   0.230  13.122
56197SOL    HW270366  14.367   0.127  13.215
56198SOL     OW70367   2.414   2.980   3.187
56198SOL    HW170368   2.465   2.979   3.106
56198SOL    HW270369   2.479   2.967   3.256
56199SOL     OW70370   0.141  14.254  13.874
56199SOL    HW170371   0.117  14.283  13.961
56199SOL    HW270372   0.062  14.267  13.821
56200SOL     OW70373   3.911   2.088  11.128
56200SOL    HW170374   3.830   2.128  11.160
56200SOL    HW270375   3.936   2.141  11.053
56201SOL     OW70376   8.205   2.880  12.519
56201SOL    HW170377   8.148   2.820  12.566
56201SOL    HW270378   8.153   2.960  12.510
56202SOL     OW70379   7.279   5.222   0.145
56202SOL    HW170380   7.217   5.194   0.212
56202SOL    HW270381   7.228   5.226   0.065
56203SOL     OW70382   6.533  13.025  12.784
56203SOL    HW170383   6.443  13.027  12.751
56203SOL    HW270384   6.581  12.974  12.719
56204SOL     OW70385  12.852  13.114  13.952
56204SOL    HW170386  12.790  13.186  13.938
56204SOL    HW270387  12.822  13.045  13.894
56205SOL     OW70388  13.177   1.097   6.837
56205SOL    HW170389  13.211   1.179   6.874
56205SOL    HW270390  13.107   1.072   6.897
56206SOL     OW70391   7.967   7.326  11.987
56206SOL    HW170392   8.019   7.297  12.062
56206SOL    HW270393   8.010   7.407  11.958
56207SOL     OW70394  13.991   3.319   2.982
56207SOL    HW170395  13.986   3.226   3.003
56207SOL    HW270396  13.906   3.341   2.945
56208SOL     OW70397   3.749   9.853  12.118
56208SOL    HW170398   3.720   9.883  12.032
56208SOL    HW270399   3.680   9.793  12.147
56209SOL     OW70400  11.298   5.836   3.351
56209SOL    HW170401  11.280   5.878   3.267
56209SOL    HW270402  11.230   5.769   3.360
56210SOL     OW70403  12.218   6.477  10.943
56210SOL    HW170404  12.189   6.563  10.912
56210SOL    HW270405  12.141   6.441  10.988
56211SOL     OW70406   9.173   1.877  11.469
56211SOL    HW170407   9.231   1.934  11.519
56211SOL    HW270408   9.114   1.937  11.423
56212SOL     OW70409   8.305   6.458   1.593
56212SOL    HW170410   8.350   6.377   1.620
56212SOL    HW270411   8.217   6.450   1.631
56213SOL     OW70412   7.305   8.028   9.292
56213SOL    HW170413   7.210   8.043   9.286
56213SOL    HW270414   7.330   8.065   9.377
56214SOL     OW70415   5.858   0.341   6.566
56214SOL    HW170416   5.784   0.333   6.506
56214SOL    HW270417   5.818   0.358   6.652
56215SOL     OW70418   6.845   8.225   3.836
56215SOL    HW170419   6.786   8.279   3.785
56215SOL    HW270420   6.909   8.288   3.872
56216SOL     OW70421   3.993   1.386   3.068
56216SOL    HW170422   4.043   1.354   3.143
56216SOL    HW270423   3.910   1.417   3.105
56217SOL     OW70424   5.306  11.722   9.544
56217SOL    HW170425   5.369  11.768   9.600
56217SOL    HW270426   5.239  11.691   9.604
56218SOL     OW70427   4.738   1.974   4.016
56218SOL    HW170428   4.783   1.979   4.100
56218SOL    HW270429   4.799   2.014   3.954
56219SOL     OW70430  12.361  12.052   0.709
56219SOL    HW170431  12.324  11.966   0.686
56219SOL    HW270432  12.342  12.107   0.633
56220SOL     OW70433   6.780  14.522   1.213
56220SOL    HW170434   6.741  14.531   1.300
56220SOL    HW270435   6.727  14.455   1.170
56221SOL     OW70436   9.944  12.589   7.404
56221SOL    HW170437   9.993  12.646   7.344
56221SOL    HW270438   9.852  12.609   7.385
56222SOL     OW70439   4.435   2.423   2.137
56222SOL    HW170440   4.408   2.378   2.217
56222SOL    HW270441   4.405   2.513   2.149
56223SOL     OW70442   9.608  14.352  14.599
56223SOL    HW170443   9.693  14.311  14.614
56223SOL    HW270444   9.567  14.300  14.531
56224SOL     OW70445  13.370  12.556   7.519
56224SOL    HW170446  13.361  12.474   7.568
56224SOL    HW270447  13.349  12.624   7.583
56225SOL     OW70448   2.415  14.520   3.915
56225SOL    HW170449   2.507  14.495   3.906
56225SOL    HW270450   2.368  14.462   3.855
56226SOL     OW70451  11.812   9.788   1.230
56226SOL    HW170452  11.789   9.710   1.179
56226SOL    HW270453  11.746   9.793   1.298
56227SOL     OW70454   2.699   8.610  14.242
56227SOL    HW170455   2.759   8.593  14.315
56227SOL    HW270456   2.755   8.649  14.175
56228SOL     OW70457   2.793   0.019   1.976
56228SOL    HW170458   2.858   0.012   1.906
56228SOL    HW270459   2.819   0.096   2.025
56229SOL     OW70460  11.411   3.570   0.274
56229SOL    HW170461  11.407   3.627   0.197
56229SOL    HW270462  11.365   3.618   0.342
56230SOL     OW70463   1.295   2.760   0.913
56230SOL    HW170464   1.382   2.754   0.874
56230SOL    HW270465   1.257   2.839   0.874
56231SOL     OW70466   7.665  11.705  13.021
56231SOL    HW170467   7.578  11.696  13.061
56231SOL    HW270468   7.688  11.617  12.992
56232SOL     OW70469   2.111   8.754  13.189
56232SOL    HW170470   2.127   8.730  13.097
56232SOL    HW270471   2.066   8.677  13.225
56233SOL     OW70472   0.975   2.240   1.779
56233SOL    HW170473   0.909   2.282   1.724
56233SOL    HW270474   0.999   2.306   1.844
56234SOL     OW70475   3.259   1.757   7.244
56234SOL    HW170476   3.267   1.848   7.272
56234SOL    HW270477   3.180   1.726   7.288
56235SOL     OW70478  13.967   9.005   7.900
56235SOL    HW170479  14.051   9.035   7.934
56235SOL    HW270480  13.955   8.918   7.939
56236SOL     OW70481  13.877   4.663  12.958
56236SOL    HW170482  13.948   4.624  12.907
56236SOL    HW270483  13.826   4.588  12.989
56237SOL     OW70484   8.612   9.761   6.475
56237SOL    HW170485   8.689   9.785   6.526
56237SOL    HW270486   8.553   9.720   6.538
56238SOL     OW70487   5.725   5.697  13.643
56238SOL    HW170488   5.793   5.736  13.697
56238SOL    HW270489   5.686   5.770  13.595
56239SOL     OW70490   7.445  13.162   0.872
56239SOL    HW170491   7.491  13.245   0.883
56239SOL    HW270492   7.352  13.186   0.874
56240SOL     OW70493  11.963   4.646   0.914
56240SOL    HW170494  11.946   4.678   0.826
56240SOL    HW270495  11.900   4.576   0.927
56241SOL     OW70496   8.060   7.878  12.909
56241SOL    HW170497   8.042   7.803  12.966
56241SOL    HW270498   8.077   7.950  12.970
56242SOL     OW70499   5.779  13.529   1.238
56242SOL    HW170500   5.809  13.459   1.296
56242SOL    HW270501   5.853  13.591   1.235
56243SOL     OW70502   3.675  11.411  14.748
56243SOL    HW170503   3.601  11.412  14.810
56243SOL    HW270504   3.739  11.471  14.787
56244SOL     OW70505   8.606  12.577   2.476
56244SOL    HW170506   8.699  12.595   2.492
56244SOL    HW270507   8.580  12.644   2.412
56245SOL     OW70508   7.390  12.055   5.394
56245SOL    HW170509   7.480  12.024   5.401
56245SOL    HW270510   7.350  12.030   5.478
56246SOL     OW70511   6.397  11.370  10.577
56246SOL    HW170512   6.434  11.313  10.510
56246SOL    HW270513   6.314  11.399  10.540
56247SOL     OW70514   2.329  11.079   2.371
56247SOL    HW170515   2.359  11.156   2.323
56247SOL    HW270516   2.314  11.110   2.460
56248SOL     OW70517  11.715   9.096  13.513
56248SOL    HW170518  11.643   9.050  13.556
56248SOL    HW270519  11.683   9.185  13.501
56249SOL     OW70520  13.767   2.138   4.934
56249SOL    HW170521  13.789   2.202   4.866
56249SOL    HW270522  13.709   2.186   4.994
56250SOL     OW70523  12.894   0.849   9.615
56250SOL    HW170524  12.819   0.828   9.559
56250SOL    HW270525  12.861   0.840   9.704
56251SOL     OW70526   0.741  10.136   0.816
56251SOL    HW170527   0.738  10.053   0.767
56251SOL    HW270528   0.728  10.110   0.907
56252SOL     OW70529  13.396   3.308  10.693
56252SOL    HW170530  13.328   3.268  10.639
56252SOL    HW270531  13.402   3.398  10.662
56253SOL     OW70532  14.168   4.949  14.688
56253SOL    HW170533  14.090   4.978  14.735
56253SOL    HW270534  14.233   4.936  14.757
56254SOL     OW70535   7.800   2.839   4.500
56254SOL    HW170536   7.884   2.814   4.538
56254SOL    HW270537   7.743   2.763   4.513
56255SOL     OW70538  12.698   0.681   1.379
56255SOL    HW170539  12.642   0.658   1.454
56255SOL    HW270540  12.784   0.646   1.402
56256SOL     OW70541  12.489   4.220   5.557
56256SOL    HW170542  12.584   4.227   5.568
56256SOL    HW270543  12.456   4.203   5.645
56257SOL     OW70544   6.483   7.883   3.757
56257SOL    HW170545   6.550   7.817   3.776
56257SOL    HW270546   6.456   7.915   3.844
56258SOL     OW70547   4.607   6.942   1.063
56258SOL    HW170548   4.701   6.951   1.073
56258SOL    HW270549   4.585   6.865   1.115
56259SOL     OW70550  10.456  10.715   6.722
56259SOL    HW170551  10.461  10.793   6.666
56259SOL    HW270552  10.546  10.699   6.749
56260SOL     OW70553  14.554  13.020   2.290
56260SOL    HW170554  14.615  13.091   2.277
56260SOL    HW270555  14.606  12.951   2.332
56261SOL     OW70556   8.349   0.576   3.345
56261SOL    HW170557   8.364   0.661   3.387
56261SOL    HW270558   8.424   0.565   3.286
56262SOL     OW70559   0.466   2.617   3.422
56262SOL    HW170560   0.387   2.633   3.473
56262SOL    HW270561   0.442   2.545   3.364
56263SOL     OW70562   1.347   8.983   2.525
56263SOL    HW170563   1.326   8.991   2.432
56263SOL    HW270564   1.277   8.928   2.560
56264SOL     OW70565  12.011   4.297   6.078
56264SOL    HW170566  11.972   4.352   6.011
56264SOL    HW270567  11.978   4.333   6.161
56265SOL     OW70568   4.881   4.718   4.227
56265SOL    HW170569   4.829   4.653   4.275
56265SOL    HW270570   4.816   4.770   4.180
56266SOL     OW70571   2.124  10.443   8.430
56266SOL    HW170572   2.129  10.355   8.467
56266SOL    HW270573   2.112  10.501   8.506
56267SOL     OW70574   0.991  13.439   7.515
56267SOL    HW170575   0.932  13.440   7.440
56267SOL    HW270576   1.016  13.347   7.525
56268SOL     OW70577   5.420   9.011  10.098
56268SOL    HW170578   5.327   9.008  10.119
56268SOL    HW270579   5.427   8.965  10.015
56269SOL     OW70580   1.283   0.722   8.631
56269SOL    HW170581   1.215   0.759   8.688
56269SOL    HW270582   1.345   0.680   8.691
56270SOL     OW70583  14.852   1.282   7.160
56270SOL    HW170584  14.771   1.268   7.208
56270SOL    HW270585  14.834   1.358   7.104
56271SOL     OW70586  11.072   8.819  11.619
56271SOL    HW170587  11.082   8.729  11.589
56271SOL    HW270588  11.162   8.852  11.627
56272SOL     OW70589   6.660   7.976  11.141
56272SOL    HW170590   6.596   8.046  11.158
56272SOL    HW270591   6.638   7.907  11.204
56273SOL     OW70592   3.074   0.524   6.529
56273SOL    HW170593   3.051   0.445   6.480
56273SOL    HW270594   3.168   0.535   6.515
56274SOL     OW70595   2.578  14.634   6.199
56274SOL    HW170596   2.549  14.585   6.123
56274SOL    HW270597   2.646  14.693   6.166
56275SOL     OW70598   3.049  14.262   8.373
56275SOL    HW170599   3.093  14.346   8.376
56275SOL    HW270600   3.060  14.232   8.282
56276SOL     OW70601  14.862  13.135   0.456
56276SOL    HW170602   0.009  13.204   0.517
56276SOL    HW270603  14.780  13.166   0.416
56277SOL     OW70604   7.113   6.230   4.312
56277SOL    HW170605   7.201   6.236   4.350
56277SOL    HW270606   7.082   6.142   4.334
56278SOL     OW70607  14.209   1.544   9.917
56278SOL    HW170608  14.146   1.570   9.984
56278SOL    HW270609  14.190   1.600   9.843
56279SOL     OW70610   4.129  10.956  10.518
56279SOL    HW170611   4.130  11.050  10.534
56279SOL    HW270612   4.171  10.918  10.595
56280SOL     OW70613   5.849   4.867   9.652
56280SOL    HW170614   5.785   4.869   9.722
56280SOL    HW270615   5.849   4.957   9.618
56281SOL     OW70616  12.565   0.536   1.553
56281SOL    HW170617  12.470   0.551   1.548
56281SOL    HW270618  12.578   0.489   1.635
56282SOL     OW70619   7.903  11.955  10.549
56282SOL    HW170620   7.913  12.049  10.561
56282SOL    HW270621   7.808  11.941  10.551
56283SOL     OW70622   3.020  12.660   0.662
56283SOL    HW170623   3.059  12.707   0.589
56283SOL    HW270624   3.088  12.598   0.690
56284SOL     OW70625   7.156  14.708   9.893
56284SOL    HW170626   7.161  14.788   9.944
56284SOL    HW270627   7.233  14.711   9.836
56285SOL     OW70628   0.325  14.758   1.366
56285SOL    HW170629   0.309  14.847   1.335
56285SOL    HW270630   0.350  14.769   1.458
56286SOL     OW70631  13.462  10.510  12.053
56286SOL    HW170632  13.469  10.606  12.056
56286SOL    HW270633  13.542  10.479  12.094
56287SOL     OW70634  13.329  13.649   1.669
56287SOL    HW170635  13.417  13.657   1.631
56287SOL    HW270636  13.336  13.577   1.732
56288SOL     OW70637   4.356  11.039   5.163
56288SOL    HW170638   4.387  11.092   5.090
56288SOL    HW270639   4.274  11.080   5.190
56289SOL     OW70640   0.016  11.869   8.326
56289SOL    HW170641  14.808  11.877   8.368
56289SOL    HW270642  14.874  11.828   8.241
56290SOL     OW70643   4.808   6.804   6.082
56290SOL    HW170644   4.850   6.743   6.143
56290SOL    HW270645   4.815   6.889   6.125
56291SOL     OW70646   9.515  13.914  11.745
56291SOL    HW170647   9.497  13.975  11.817
56291SOL    HW270648   9.486  13.829  11.777
56292SOL     OW70649   0.940   5.540   7.381
56292SOL    HW170650   0.902   5.624   7.408
56292SOL    HW270651   0.948   5.546   7.286
56293SOL     OW70652  13.072  10.725  14.855
56293SOL    HW170653  13.026  10.644  14.830
56293SOL    HW270654  13.044  10.789  14.790
56294SOL     OW70655   1.919   8.549  13.160
56294SOL    HW170656   1.878   8.528  13.244
56294SOL    HW270657   1.852   8.599  13.113
56295SOL     OW70658   7.268  10.201   6.194
56295SOL    HW170659   7.351  10.248   6.193
56295SOL    HW270660   7.203  10.267   6.216
56296SOL     OW70661   0.053   4.780  13.866
56296SOL    HW170662   0.128   4.789  13.924
56296SOL    HW270663   0.044   4.866  13.824
56297SOL     OW70664  13.167   3.883   7.226
56297SOL    HW170665  13.208   3.943   7.164
56297SOL    HW270666  13.081   3.922   7.245
56298SOL     OW70667   0.739  14.863   1.040
56298SOL    HW170668   0.675  14.813   1.089
56298SOL    HW270669   0.804  14.799   1.011
56299SOL     OW70670   0.787  14.132   9.161
56299SOL    HW170671   0.724  14.187   9.114
56299SOL    HW270672   0.873  14.162   9.132
56300SOL     OW70673   9.405   7.090   5.156
56300SOL    HW170674   9.479   7.029   5.160
56300SOL    HW270675   9.343   7.058   5.222
56301SOL     OW70676   7.087   1.176   8.853
56301SOL    HW170677   7.077   1.081   8.848
56301SOL    HW270678   6.998   1.209   8.866
56302SOL     OW70679   1.335  14.533   6.817
56302SOL    HW170680   1.429  14.526   6.829
56302SOL    HW270681   1.300  14.450   6.851
56303SOL     OW70682   1.910   3.840   7.638
56303SOL    HW170683   1.866   3.872   7.559
56303SOL    HW270684   1.874   3.752   7.651
56304SOL     OW70685   7.651   4.925  10.256
56304SOL    HW170686   7.565   4.889  10.279
56304SOL    HW270687   7.662   4.999  10.315
56305SOL     OW70688   0.649   7.671   0.094
56305SOL    HW170689   0.573   7.690   0.149
56305SOL    HW270690   0.662   7.750   0.042
56306SOL     OW70691   4.666  11.119   8.877
56306SOL    HW170692   4.733  11.140   8.942
56306SOL    HW270693   4.684  11.028   8.853
56307SOL     OW70694   9.668   1.664  12.361
56307SOL    HW170695   9.612   1.592  12.333
56307SOL    HW270696   9.641   1.683  12.451
56308SOL     OW70697   5.110   6.778   4.704
56308SOL    HW170698   5.189   6.755   4.656
56308SOL    HW270699   5.116   6.728   4.786
56309SOL     OW70700   8.637   9.882  11.880
56309SOL    HW170701   8.658   9.794  11.912
56309SOL    HW270702   8.543   9.878  11.862
56310SOL     OW70703   5.624   0.174   6.851
56310SOL    HW170704   5.673   0.093   6.870
56310SOL    HW270705   5.623   0.221   6.935
56311SOL     OW70706   5.096   9.454   1.953
56311SOL    HW170707   5.069   9.371   1.994
56311SOL    HW270708   5.082   9.520   2.020
56312SOL     OW70709  11.982   5.004  13.418
56312SOL    HW170710  11.967   4.943  13.490
56312SOL    HW270711  11.926   5.080  13.438
56313SOL     OW70712   6.017   5.915   6.866
56313SOL    HW170713   6.033   5.964   6.946
56313SOL    HW270714   6.104   5.891   6.835
56314SOL     OW70715   3.730   6.348   0.074
56314SOL    HW170716   3.744   6.304   0.158
56314SOL    HW270717   3.819   6.371   0.045
56315SOL     OW70718   3.854  10.773  12.745
56315SOL    HW170719   3.940  10.787  12.785
56315SOL    HW270720   3.872  10.762  12.652
56316SOL     OW70721   9.861   8.466  14.749
56316SOL    HW170722   9.847   8.373  14.735
56316SOL    HW270723   9.807   8.488  14.825
56317SOL     OW70724  12.199   6.524   8.584
56317SOL    HW170725  12.123   6.468   8.571
56317SOL    HW270726  12.226   6.549   8.496
56318SOL     OW70727  11.109   3.777   5.653
56318SOL    HW170728  11.030   3.724   5.663
56318SOL    HW270729  11.078   3.868   5.654
56319SOL     OW70730   0.889   0.500  12.184
56319SOL    HW170731   0.966   0.556  12.194
56319SOL    HW270732   0.888   0.447  12.264
56320SOL     OW70733   3.846   8.594   2.641
56320SOL    HW170734   3.795   8.610   2.720
56320SOL    HW270735   3.937   8.605   2.668
56321SOL     OW70736   0.708  14.805   6.054
56321SOL    HW170737   0.690  14.845   5.969
56321SOL    HW270738   0.625  14.767   6.081
56322SOL     OW70739  14.277  10.636  12.846
56322SOL    HW170740  14.262  10.657  12.938
56322SOL    HW270741  14.307  10.718  12.808
56323SOL     OW70742   8.996   8.530   4.908
56323SOL    HW170743   8.980   8.461   4.844
56323SOL    HW270744   9.091   8.534   4.915
56324SOL     OW70745   9.453  10.618   2.970
56324SOL    HW170746   9.545  10.640   2.958
56324SOL    HW270747   9.452  10.522   2.973
56325SOL     OW70748   9.682   1.194   1.947
56325SOL    HW170749   9.753   1.254   1.926
56325SOL    HW270750   9.608   1.225   1.894
56326SOL     OW70751  13.136   1.054   8.612
56326SOL    HW170752  13.081   1.095   8.679
56326SOL    HW270753  13.207   1.013   8.662
56327SOL     OW70754   3.492  10.469   7.643
56327SOL    HW170755   3.413  10.473   7.697
56327SOL    HW270756   3.474  10.400   7.579
56328SOL     OW70757   2.299   7.785   3.777
56328SOL    HW170758   2.270   7.698   3.749
56328SOL    HW270759   2.345   7.820   3.701
56329SOL     OW70760  11.626   9.552   9.662
56329SOL    HW170761  11.583   9.481   9.711
56329SOL    HW270762  11.572   9.564   9.584
56330SOL     OW70763   8.043  11.531  10.434
56330SOL    HW170764   8.025  11.526  10.340
56330SOL    HW270765   7.970  11.579  10.471
56331SOL     OW70766   5.281   2.636  11.799
56331SOL    HW170767   5.331   2.608  11.876
56331SOL    HW270768   5.237   2.557  11.769
56332SOL     OW70769   5.032  10.066  14.541
56332SOL    HW170770   5.089  10.082  14.616
56332SOL    HW270771   4.955  10.120  14.558
56333SOL     OW70772   6.499   8.483   4.849
56333SOL    HW170773   6.419   8.480   4.798
56333SOL    HW270774   6.548   8.405   4.822
56334SOL     OW70775   6.817   4.230  11.828
56334SOL    HW170776   6.822   4.137  11.850
56334SOL    HW270777   6.879   4.241  11.756
56335SOL     OW70778   0.671   5.615   8.789
56335SOL    HW170779   0.591   5.565   8.775
56335SOL    HW270780   0.686   5.660   8.706
56336SOL     OW70781   9.627   9.678  14.181
56336SOL    HW170782   9.633   9.620  14.257
56336SOL    HW270783   9.544   9.655  14.140
56337SOL     OW70784   9.700   7.291   9.635
56337SOL    HW170785   9.780   7.302   9.582
56337SOL    HW270786   9.629   7.311   9.575
56338SOL     OW70787  13.037   9.495  13.206
56338SOL    HW170788  13.059   9.438  13.279
56338SOL    HW270789  13.065   9.446  13.128
56339SOL     OW70790   5.776  12.547   9.381
56339SOL    HW170791   5.867  12.547   9.412
56339SOL    HW270792   5.751  12.454   9.382
56340SOL     OW70793  14.314  10.818   2.072
56340SOL    HW170794  14.337  10.815   1.979
56340SOL    HW270795  14.247  10.751   2.082
56341SOL     OW70796  14.654  14.512   8.420
56341SOL    HW170797  14.566  14.528   8.386
56341SOL    HW270798  14.640  14.483   8.510
56342SOL     OW70799  11.272   8.642  11.378
56342SOL    HW170800  11.299   8.619  11.289
56342SOL    HW270801  11.242   8.560  11.416
56343SOL     OW70802  11.713   7.462  12.147
56343SOL    HW170803  11.754   7.518  12.081
56343SOL    HW270804  11.651   7.520  12.192
56344SOL     OW70805   8.664  11.916   5.570
56344SOL    HW170806   8.700  11.831   5.595
56344SOL    HW270807   8.570  11.907   5.587
56345SOL     OW70808   8.701   1.937  14.715
56345SOL    HW170809   8.697   2.008  14.779
56345SOL    HW270810   8.783   1.892  14.733
56346SOL     OW70811  12.443   0.190   2.625
56346SOL    HW170812  12.381   0.132   2.579
56346SOL    HW270813  12.416   0.184   2.717
56347SOL     OW70814   0.646  14.260   7.171
56347SOL    HW170815   0.670  14.270   7.263
56347SOL    HW270816   0.559  14.220   7.172
56348SOL     OW70817  14.618   3.882  13.202
56348SOL    HW170818  14.698   3.877  13.149
56348SOL    HW270819  14.584   3.793  13.203
56349SOL     OW70820  11.699   0.325   5.774
56349SOL    HW170821  11.665   0.322   5.863
56349SOL    HW270822  11.791   0.303   5.783
56350SOL     OW70823   4.348   6.343   5.025
56350SOL    HW170824   4.323   6.338   4.933
56350SOL    HW270825   4.292   6.279   5.068
56351SOL     OW70826   0.743   4.062   9.275
56351SOL    HW170827   0.766   4.151   9.301
56351SOL    HW270828   0.787   4.006   9.339
56352SOL     OW70829   6.397  11.109   3.732
56352SOL    HW170830   6.335  11.128   3.662
56352SOL    HW270831   6.472  11.069   3.687
56353SOL     OW70832   0.381   5.903   2.029
56353SOL    HW170833   0.295   5.944   2.033
56353SOL    HW270834   0.415   5.927   1.943
56354SOL     OW70835  13.840   0.669  14.380
56354SOL    HW170836  13.897   0.694  14.307
56354SOL    HW270837  13.756   0.711  14.361
56355SOL     OW70838   7.577   3.731  14.476
56355SOL    HW170839   7.655   3.711  14.423
56355SOL    HW270840   7.507   3.682  14.435
56356SOL     OW70841   4.787   7.720   9.049
56356SOL    HW170842   4.811   7.811   9.069
56356SOL    HW270843   4.834   7.668   9.114
56357SOL     OW70844  12.860   3.341   3.633
56357SOL    HW170845  12.822   3.263   3.594
56357SOL    HW270846  12.885   3.315   3.722
56358SOL     OW70847   1.537  11.059  14.870
56358SOL    HW170848   1.580  11.103   0.066
56358SOL    HW270849   1.444  11.063   0.014
56359SOL     OW70850  13.506   2.177  11.050
56359SOL    HW170851  13.420   2.169  11.091
56359SOL    HW270852  13.495   2.243  10.982
56360SOL     OW70853  11.770   7.014   1.514
56360SOL    HW170854  11.777   6.991   1.606
56360SOL    HW270855  11.676   7.021   1.497
56361SOL     OW70856   1.191   1.706   9.157
56361SOL    HW170857   1.248   1.780   9.134
56361SOL    HW270858   1.165   1.724   9.247
56362SOL     OW70859   9.473   4.735   6.187
56362SOL    HW170860   9.536   4.671   6.153
56362SOL    HW270861   9.449   4.703   6.273
56363SOL     OW70862  11.484   2.606   5.855
56363SOL    HW170863  11.456   2.596   5.764
56363SOL    HW270864  11.484   2.701   5.869
56364SOL     OW70865  10.400   5.871  11.402
56364SOL    HW170866  10.425   5.950  11.355
56364SOL    HW270867  10.469   5.808  11.383
56365SOL     OW70868   7.077   7.560   9.289
56365SOL    HW170869   6.995   7.511   9.288
56365SOL    HW270870   7.108   7.556   9.199
56366SOL     OW70871   2.621   2.679   9.626
56366SOL    HW170872   2.616   2.711   9.716
56366SOL    HW270873   2.607   2.585   9.633
56367SOL     OW70874  13.991   2.165  13.978
56367SOL    HW170875  14.080   2.201  13.978
56367SOL    HW270876  13.963   2.172  14.070
56368SOL     OW70877  13.175  13.533   6.613
56368SOL    HW170878  13.177  13.624   6.581
56368SOL    HW270879  13.130  13.485   6.543
56369SOL     OW70880   4.287   2.618   6.868
56369SOL    HW170881   4.323   2.603   6.781
56369SOL    HW270882   4.334   2.694   6.901
56370SOL     OW70883  13.552  11.701  10.632
56370SOL    HW170884  13.590  11.716  10.546
56370SOL    HW270885  13.474  11.757  10.635
56371SOL     OW70886  13.351   5.444  13.737
56371SOL    HW170887  13.338   5.350  13.754
56371SOL    HW270888  13.345   5.452  13.642
56372SOL     OW70889   8.850   2.610  14.251
56372SOL    HW170890   8.866   2.577  14.339
56372SOL    HW270891   8.759   2.586  14.232
56373SOL     OW70892  11.651   2.002  14.634
56373SOL    HW170893  11.645   1.942  14.560
56373SOL    HW270894  11.623   1.949  14.709
56374SOL     OW70895   0.845   6.266   5.179
56374SOL    HW170896   0.813   6.271   5.089
56374SOL    HW270897   0.781   6.315   5.231
56375SOL     OW70898   3.440   9.102   6.182
56375SOL    HW170899   3.347   9.122   6.184
56375SOL    HW270900   3.478   9.155   6.253
56376SOL     OW70901  12.643   1.991   5.338
56376SOL    HW170902  12.606   1.903   5.333
56376SOL    HW270903  12.603   2.029   5.416
56377SOL     OW70904   6.178   8.262   5.741
56377SOL    HW170905   6.127   8.339   5.767
56377SOL    HW270906   6.162   8.253   5.647
56378SOL     OW70907   9.841   3.947   9.708
56378SOL    HW170908   9.745   3.957   9.711
56378SOL    HW270909   9.854   3.860   9.672
56379SOL     OW70910  11.425   9.479   4.958
56379SOL    HW170911  11.398   9.481   4.866
56379SOL    HW270912  11.456   9.567   4.976
56380SOL     OW70913   4.811   4.839  12.174
56380SOL    HW170914   4.885   4.820  12.232
56380SOL    HW270915   4.811   4.767  12.111
56381SOL     OW70916   1.947   8.555   2.013
56381SOL    HW170917   1.966   8.535   2.105
56381SOL    HW270918   2.024   8.602   1.982
56382SOL     OW70919   7.188   7.398  12.745
56382SOL    HW170920   7.122   7.330  12.740
56382SOL    HW270921   7.177   7.449  12.665
56383SOL     OW70922   2.734   0.285  11.804
56383SOL    HW170923   2.827   0.267  11.788
56383SOL    HW270924   2.692   0.267  11.720
56384SOL     OW70925  11.218   3.070   0.532
56384SOL    HW170926  11.212   3.154   0.486
56384SOL    HW270927  11.307   3.067   0.567
56385SOL     OW70928   8.420   4.373   6.809
56385SOL    HW170929   8.436   4.467   6.797
56385SOL    HW270930   8.372   4.347   6.731
56386SOL     OW70931   6.927  10.891   1.428
56386SOL    HW170932   6.863  10.933   1.485
56386SOL    HW270933   6.924  10.941   1.346
56387SOL     OW70934   5.225   3.907   3.455
56387SOL    HW170935   5.170   3.864   3.520
56387SOL    HW270936   5.231   3.998   3.485
56388SOL     OW70937   1.741   4.327   8.953
56388SOL    HW170938   1.703   4.255   9.004
56388SOL    HW270939   1.834   4.326   8.974
56389SOL     OW70940  10.444  13.799  13.101
56389SOL    HW170941  10.500  13.723  13.120
56389SOL    HW270942  10.455  13.856  13.176
56390SOL     OW70943   9.061  12.899   3.478
56390SOL    HW170944   9.131  12.838   3.503
56390SOL    HW270945   8.983  12.865   3.521
56391SOL     OW70946  10.544  13.889   4.446
56391SOL    HW170947  10.480  13.941   4.493
56391SOL    HW270948  10.579  13.828   4.511
56392SOL     OW70949   7.574   8.415  12.621
56392SOL    HW170950   7.494   8.439  12.666
56392SOL    HW270951   7.581   8.476  12.548
56393SOL     OW70952  10.777   4.292   2.872
56393SOL    HW170953  10.682   4.292   2.857
56393SOL    HW270954  10.815   4.273   2.786
56394SOL     OW70955  14.330  14.265   4.919
56394SOL    HW170956  14.239  14.291   4.932
56394SOL    HW270957  14.352  14.217   4.999
56395SOL     OW70958  13.497   1.646  14.408
56395SOL    HW170959  13.586   1.664  14.440
56395SOL    HW270960  13.509   1.583  14.338
56396SOL     OW70961   4.260   6.716   9.003
56396SOL    HW170962   4.300   6.729   8.916
56396SOL    HW270963   4.303   6.638   9.037
56397SOL     OW70964   7.314   3.219   9.494
56397SOL    HW170965   7.265   3.278   9.435
56397SOL    HW270966   7.326   3.139   9.443
56398SOL     OW70967   2.892   1.458   0.599
56398SOL    HW170968   2.970   1.514   0.590
56398SOL    HW270969   2.818   1.518   0.592
56399SOL     OW70970   4.631   1.117   3.240
56399SOL    HW170971   4.584   1.184   3.191
56399SOL    HW270972   4.710   1.101   3.188
56400SOL     OW70973   0.175   3.798  14.309
56400SOL    HW170974   0.101   3.853  14.284
56400SOL    HW270975   0.143   3.747  14.383
56401SOL     OW70976   2.370  10.712   0.461
56401SOL    HW170977   2.390  10.776   0.530
56401SOL    HW270978   2.427  10.638   0.480
56402SOL     OW70979  11.266  12.254   4.066
56402SOL    HW170980  11.339  12.196   4.041
56402SOL    HW270981  11.282  12.273   4.159
56403SOL     OW70982   9.809  13.471   4.849
56403SOL    HW170983   9.858  13.403   4.895
56403SOL    HW270984   9.738  13.495   4.909
56404SOL     OW70985   4.904  12.428   1.845
56404SOL    HW170986   4.906  12.334   1.831
56404SOL    HW270987   4.922  12.465   1.758
56405SOL     OW70988  11.784   6.288  10.583
56405SOL    HW170989  11.710   6.244  10.542
56405SOL    HW270990  11.859   6.231  10.564
56406SOL     OW70991   0.672   3.430   5.912
56406SOL    HW170992   0.598   3.438   5.851
56406SOL    HW270993   0.749   3.449   5.858
56407SOL     OW70994  13.329   2.865   4.213
56407SOL    HW170995  13.360   2.784   4.172
56407SOL    HW270996  13.402   2.894   4.268
56408SOL     OW70997   0.076   2.050  14.561
56408SOL    HW170998   0.152   2.033  14.617
56408SOL    HW270999   0.011   1.985  14.587
56409SOL     OW71000   1.460   6.162  13.880
56409SOL    HW171001   1.544   6.133  13.843
56409SOL    HW271002   1.477   6.171  13.974
56410SOL     OW71003   7.344   7.022  12.419
56410SOL    HW171004   7.260   7.015  12.373
56410SOL    HW271005   7.340   6.953  12.485
56411SOL     OW71006   2.079   7.683   8.837
56411SOL    HW171007   2.122   7.742   8.899
56411SOL    HW271008   1.986   7.693   8.855
56412SOL     OW71009  11.841   2.114   0.052
56412SOL    HW171010  11.887   2.197   0.044
56412SOL    HW271011  11.748   2.136   0.042
56413SOL     OW71012   5.351   9.456  10.291
56413SOL    HW171013   5.259   9.477  10.279
56413SOL    HW271014   5.370   9.390  10.224
56414SOL     OW71015   4.766   0.157  11.114
56414SOL    HW171016   4.724   0.242  11.105
56414SOL    HW271017   4.859   0.177  11.128
56415SOL     OW71018  11.674   8.671   0.198
56415SOL    HW171019  11.687   8.675   0.293
56415SOL    HW271020  11.762   8.662   0.162
56416SOL     OW71021  10.195   0.787   0.530
56416SOL    HW171022  10.224   0.878   0.525
56416SOL    HW271023  10.230   0.746   0.451
56417SOL     OW71024  11.486   2.821   0.601
56417SOL    HW171025  11.460   2.866   0.682
56417SOL    HW271026  11.581   2.835   0.595
56418SOL     OW71027  13.779  14.558   7.622
56418SOL    HW171028  13.732  14.475   7.622
56418SOL    HW271029  13.742  14.607   7.695
56419SOL     OW71030   9.860  13.208   8.627
56419SOL    HW171031   9.815  13.170   8.702
56419SOL    HW271032   9.935  13.255   8.665
56420SOL     OW71033   1.839  14.598   1.001
56420SOL    HW171034   1.915  14.654   0.987
56420SOL    HW271035   1.770  14.637   0.947
56421SOL     OW71036   4.950   2.789   9.242
56421SOL    HW171037   4.946   2.698   9.213
56421SOL    HW271038   5.032   2.822   9.204
56422SOL     OW71039   3.654   3.194   5.305
56422SOL    HW171040   3.734   3.217   5.352
56422SOL    HW271041   3.672   3.107   5.269
56423SOL     OW71042   1.162  10.633   2.791
56423SOL    HW171043   1.223  10.699   2.825
56423SOL    HW271044   1.160  10.565   2.859
56424SOL     OW71045  12.372  10.092   1.631
56424SOL    HW171046  12.374  10.053   1.543
56424SOL    HW271047  12.412  10.025   1.687
56425SOL     OW71048   3.799   9.572  11.694
56425SOL    HW171049   3.839   9.500  11.645
56425SOL    HW271050   3.710   9.577  11.660
56426SOL     OW71051   4.920  14.717   7.512
56426SOL    HW171052   5.014  14.706   7.527
56426SOL    HW271053   4.890  14.769   7.587
56427SOL     OW71054   3.781   0.420   2.647
56427SOL    HW171055   3.727   0.485   2.604
56427SOL    HW271056   3.723   0.377   2.710
56428SOL     OW71057  12.977   6.549   6.117
56428SOL    HW171058  12.985   6.548   6.022
56428SOL    HW271059  12.911   6.616   6.135
56429SOL     OW71060   0.147   7.996   7.110
56429SOL    HW171061   0.166   8.027   7.021
56429SOL    HW271062   0.192   7.912   7.116
56430SOL     OW71063   6.969   4.407   7.459
56430SOL    HW171064   7.048   4.461   7.470
56430SOL    HW271065   6.998   4.318   7.478
56431SOL     OW71066   7.551  11.423   8.171
56431SOL    HW171067   7.520  11.396   8.257
56431SOL    HW271068   7.491  11.380   8.109
56432SOL     OW71069   0.078   4.887  11.485
56432SOL    HW171070  14.874   4.871  11.531
56432SOL    HW271071   0.051   4.913  11.397
56433SOL     OW71072   8.612   8.992   7.395
56433SOL    HW171073   8.535   8.950   7.434
56433SOL    HW271074   8.581   9.079   7.369
56434SOL     OW71075  12.120   7.504   3.876
56434SOL    HW171076  12.162   7.493   3.961
56434SOL    HW271077  12.052   7.436   3.874
56435SOL     OW71078  11.387   7.142  13.894
56435SOL    HW171079  11.353   7.162  13.806
56435SOL    HW271080  11.324   7.183  13.954
56436SOL     OW71081   3.288   1.850  11.306
56436SOL    HW171082   3.236   1.907  11.363
56436SOL    HW271083   3.234   1.771  11.297
56437SOL     OW71084   5.995   2.780   3.205
56437SOL    HW171085   6.053   2.779   3.129
56437SOL    HW271086   6.024   2.856   3.256
56438SOL     OW71087   1.835   8.243  13.263
56438SOL    HW171088   1.861   8.242  13.356
56438SOL    HW271089   1.807   8.153  13.245
56439SOL     OW71090   9.620   4.577  11.249
56439SOL    HW171091   9.699   4.632  11.253
56439SOL    HW271092   9.548   4.640  11.255
56440SOL     OW71093   3.678   6.524   3.400
56440SOL    HW171094   3.593   6.548   3.362
56440SOL    HW271095   3.718   6.607   3.426
56441SOL     OW71096   2.858   2.374   9.316
56441SOL    HW171097   2.768   2.353   9.290
56441SOL    HW271098   2.868   2.330   9.400
56442SOL     OW71099   6.084  14.058   6.829
56442SOL    HW171100   6.174  14.037   6.805
56442SOL    HW271101   6.080  14.047   6.924
56443SOL     OW71102   6.773   0.117   7.749
56443SOL    HW171103   6.758   0.030   7.787
56443SOL    HW271104   6.748   0.108   7.657
56444SOL     OW71105  14.275   2.282   8.976
56444SOL    HW171106  14.210   2.340   9.016
56444SOL    HW271107  14.346   2.341   8.950
56445SOL     OW71108   2.487   7.901   3.062
56445SOL    HW171109   2.477   7.977   3.004
56445SOL    HW271110   2.426   7.918   3.134
56446SOL     OW71111   2.780   8.710   3.090
56446SOL    HW171112   2.745   8.669   3.169
56446SOL    HW271113   2.764   8.804   3.103
56447SOL     OW71114   7.008   8.048   2.268
56447SOL    HW171115   7.073   8.108   2.306
56447SOL    HW271116   6.941   8.106   2.233
56448SOL     OW71117   0.684   4.941  12.345
56448SOL    HW171118   0.724   5.028  12.354
56448SOL    HW271119   0.720   4.907  12.263
56449SOL     OW71120  10.818   2.947   5.310
56449SOL    HW171121  10.810   2.925   5.403
56449SOL    HW271122  10.903   2.989   5.303
56450SOL     OW71123  12.703   7.285   4.135
56450SOL    HW171124  12.633   7.339   4.097
56450SOL    HW271125  12.725   7.329   4.217
56451SOL     OW71126   5.627   8.396   0.982
56451SOL    HW171127   5.569   8.471   0.991
56451SOL    HW271128   5.710   8.424   1.019
56452SOL     OW71129  12.534   0.971   1.873
56452SOL    HW171130  12.554   1.061   1.899
56452SOL    HW271131  12.440   0.971   1.856
56453SOL     OW71132  11.850  11.174   0.406
56453SOL    HW171133  11.891  11.163   0.320
56453SOL    HW271134  11.872  11.094   0.453
56454SOL     OW71135   3.082  14.712   3.407
56454SOL    HW171136   3.069  14.617   3.401
56454SOL    HW271137   3.134  14.724   3.487
56455SOL     OW71138   9.006   7.512   6.140
56455SOL    HW171139   9.088   7.465   6.124
56455SOL    HW271140   9.002   7.521   6.235
56456SOL     OW71141   5.409  14.837   3.755
56456SOL    HW171142   5.499  14.845   3.721
56456SOL    HW271143   5.372  14.763   3.706
56457SOL     OW71144  11.863   9.539   8.573
56457SOL    HW171145  11.919   9.550   8.497
56457SOL    HW271146  11.778   9.515   8.537
56458SOL     OW71147   4.527  14.232   0.629
56458SOL    HW171148   4.614  14.271   0.631
56458SOL    HW271149   4.496  14.247   0.539
56459SOL     OW71150   9.843   5.773   9.157
56459SOL    HW171151   9.758   5.735   9.177
56459SOL    HW271152   9.852   5.847   9.217
56460SOL     OW71153  12.616   2.647   7.317
56460SOL    HW171154  12.546   2.600   7.362
56460SOL    HW271155  12.624   2.604   7.232
56461SOL     OW71156  12.671   9.838   3.332
56461SOL    HW171157  12.757   9.872   3.307
56461SOL    HW271158  12.677   9.744   3.315
56462SOL     OW71159   0.038   3.513  13.415
56462SOL    HW171160   0.090   3.593  13.410
56462SOL    HW271161  14.827   3.541  13.390
56463SOL     OW71162  14.609   6.692   6.976
56463SOL    HW171163  14.653   6.661   6.897
56463SOL    HW271164  14.521   6.655   6.971
56464SOL     OW71165  12.713   0.556   7.468
56464SOL    HW171166  12.750   0.510   7.393
56464SOL    HW271167  12.788   0.572   7.525
56465SOL     OW71168  11.634   3.224  11.602
56465SOL    HW171169  11.673   3.265  11.679
56465SOL    HW271170  11.563   3.283  11.577
56466SOL     OW71171   8.271   7.804   9.367
56466SOL    HW171172   8.217   7.807   9.447
56466SOL    HW271173   8.330   7.879   9.376
56467SOL     OW71174   5.165  12.089  14.822
56467SOL    HW171175   5.071  12.109  14.815
56467SOL    HW271176   5.185  12.101   0.037
56468SOL     OW71177  10.573   2.556   0.254
56468SOL    HW171178  10.522   2.569   0.334
56468SOL    HW271179  10.664   2.570   0.280
56469SOL     OW71180   7.433   1.500   9.785
56469SOL    HW171181   7.392   1.565   9.843
56469SOL    HW271182   7.514   1.476   9.830
56470SOL     OW71183  10.862   0.278   1.294
56470SOL    HW171184  10.934   0.322   1.251
56470SOL    HW271185  10.803   0.252   1.223
56471SOL     OW71186   8.121   9.287   2.594
56471SOL    HW171187   8.071   9.329   2.524
56471SOL    HW271188   8.152   9.359   2.648
56472SOL     OW71189   4.383   9.131   3.458
56472SOL    HW171190   4.415   9.088   3.380
56472SOL    HW271191   4.443   9.103   3.528
56473SOL     OW71192  11.316   8.613   0.664
56473SOL    HW171193  11.249   8.577   0.722
56473SOL    HW271194  11.304   8.708   0.669
56474SOL     OW71195  13.779  13.754   2.023
56474SOL    HW171196  13.686  13.771   2.034
56474SOL    HW271197  13.821  13.809   2.089
56475SOL     OW71198   1.218   2.519   3.415
56475SOL    HW171199   1.162   2.567   3.354
56475SOL    HW271200   1.246   2.586   3.478
56476SOL     OW71201   4.458   8.624  11.609
56476SOL    HW171202   4.509   8.610  11.529
56476SOL    HW271203   4.500   8.568  11.675
56477SOL     OW71204  10.562   0.348  11.856
56477SOL    HW171205  10.588   0.322  11.944
56477SOL    HW271206  10.500   0.281  11.828
56478SOL     OW71207   5.728  10.296   4.256
56478SOL    HW171208   5.698  10.383   4.281
56478SOL    HW271209   5.812  10.312   4.211
56479SOL     OW71210   5.026   0.259  11.805
56479SOL    HW171211   5.031   0.182  11.861
56479SOL    HW271212   5.117   0.275  11.779
56480SOL     OW71213   0.174   0.487   2.401
56480SOL    HW171214   0.262   0.458   2.424
56480SOL    HW271215   0.177   0.503   2.306
56481SOL     OW71216  11.216   7.008   3.404
56481SOL    HW171217  11.299   7.032   3.446
56481SOL    HW271218  11.227   7.034   3.313
56482SOL     OW71219   2.698   2.704  10.881
56482SOL    HW171220   2.750   2.784  10.891
56482SOL    HW271221   2.622   2.730  10.830
56483SOL     OW71222   0.108  13.626  13.741
56483SOL    HW171223   0.151  13.665  13.665
56483SOL    HW271224   0.172  13.564  13.776
56484SOL     OW71225   1.082  11.024  12.097
56484SOL    HW171226   1.069  10.935  12.064
56484SOL    HW271227   1.138  11.066  12.032
56485SOL     OW71228   1.211  13.092  11.747
56485SOL    HW171229   1.254  13.137  11.674
56485SOL    HW271230   1.176  13.012  11.709
56486SOL     OW71231   9.549  12.690   0.012
56486SOL    HW171232   9.570  12.608   0.057
56486SOL    HW271233   9.526  12.664  14.800
56487SOL     OW71234   0.551   3.892  14.082
56487SOL    HW171235   0.518   3.854  14.001
56487SOL    HW271236   0.613   3.959  14.055
56488SOL     OW71237  14.232  11.903   9.359
56488SOL    HW171238  14.270  11.969   9.300
56488SOL    HW271239  14.293  11.829   9.353
56489SOL     OW71240   4.992  11.878  14.174
56489SOL    HW171241   4.981  11.865  14.268
56489SOL    HW271242   4.907  11.909  14.144
56490SOL     OW71243   8.009   2.295   0.473
56490SOL    HW171244   8.103   2.309   0.461
56490SOL    HW271245   7.969   2.376   0.442
56491SOL     OW71246  12.000   6.776  10.495
56491SOL    HW171247  11.948   6.741  10.567
56491SOL    HW271248  12.054   6.703  10.466
56492SOL     OW71249   9.190   1.113  14.566
56492SOL    HW171250   9.213   1.021  14.574
56492SOL    HW271251   9.272   1.156  14.542
56493SOL     OW71252  13.881   1.804  13.962
56493SOL    HW171253  13.864   1.895  13.940
56493SOL    HW271254  13.866   1.799  14.057
56494SOL     OW71255  13.639  12.288   7.022
56494SOL    HW171256  13.675  12.376   7.033
56494SOL    HW271257  13.697  12.231   7.073
56495SOL     OW71258   4.623   1.709   0.582
56495SOL    HW171259   4.715   1.725   0.603
56495SOL    HW271260   4.575   1.762   0.646
56496SOL     OW71261   4.808   8.972   1.546
56496SOL    HW171262   4.736   8.910   1.535
56496SOL    HW271263   4.770   9.057   1.526
56497SOL     OW71264   4.447   9.485  11.939
56497SOL    HW171265   4.435   9.577  11.966
56497SOL    HW271266   4.434   9.435  12.019
56498SOL     OW71267  11.392  10.109   9.478
56498SOL    HW171268  11.300  10.116   9.504
56498SOL    HW271269  11.441  10.128   9.559
56499SOL     OW71270   2.091  12.560   5.558
56499SOL    HW171271   2.109  12.503   5.484
56499SOL    HW271272   2.103  12.648   5.524
56500SOL     OW71273   2.659   8.810   9.399
56500SOL    HW171274   2.631   8.723   9.370
56500SOL    HW271275   2.647   8.809   9.494
56501SOL     OW71276   3.332  10.947   4.838
56501SOL    HW171277   3.353  10.981   4.750
56501SOL    HW271278   3.283  10.867   4.821
56502SOL     OW71279   7.795   8.372   6.705
56502SOL    HW171280   7.809   8.437   6.774
56502SOL    HW271281   7.880   8.330   6.694
56503SOL     OW71282  10.742  10.722   9.621
56503SOL    HW171283  10.737  10.638   9.666
56503SOL    HW271284  10.743  10.787   9.692
56504SOL     OW71285  10.797   4.718   7.472
56504SOL    HW171286  10.888   4.690   7.462
56504SOL    HW271287  10.745   4.645   7.436
56505SOL     OW71288   2.057   3.569  13.858
56505SOL    HW171289   2.149   3.542  13.849
56505SOL    HW271290   2.021   3.507  13.921
56506SOL     OW71291   9.049   5.036  13.219
56506SOL    HW171292   8.960   5.060  13.195
56506SOL    HW271293   9.074   5.098  13.287
56507SOL     OW71294   5.399   4.170   7.720
56507SOL    HW171295   5.347   4.114   7.663
56507SOL    HW271296   5.432   4.112   7.789
56508SOL     OW71297   1.296   2.501  14.109
56508SOL    HW171298   1.261   2.507  14.021
56508SOL    HW271299   1.294   2.407  14.130
56509SOL     OW71300   9.179  10.287   6.311
56509SOL    HW171301   9.249  10.304   6.374
56509SOL    HW271302   9.112  10.240   6.362
56510SOL     OW71303   4.509  12.953   9.449
56510SOL    HW171304   4.437  12.890   9.448
56510SOL    HW271305   4.576  12.915   9.392
56511SOL     OW71306   0.929  13.979   0.389
56511SOL    HW171307   0.939  14.052   0.450
56511SOL    HW271308   0.851  13.933   0.419
56512SOL     OW71309  11.379   0.688  12.163
56512SOL    HW171310  11.360   0.738  12.242
56512SOL    HW271311  11.335   0.604  12.177
56513SOL     OW71312   4.733   9.944  10.988
56513SOL    HW171313   4.672  10.012  10.962
56513SOL    HW271314   4.801   9.991  11.038
56514SOL     OW71315   9.734  12.980   8.029
56514SOL    HW171316   9.729  12.957   8.122
56514SOL    HW271317   9.771  13.069   8.029
56515SOL     OW71318  14.617   9.862  13.642
56515SOL    HW171319  14.565   9.818  13.709
56515SOL    HW271320  14.583   9.952  13.641
56516SOL     OW71321   1.126  11.818   9.774
56516SOL    HW171322   1.115  11.894   9.716
56516SOL    HW271323   1.196  11.844   9.834
56517SOL     OW71324  14.128   4.785   5.170
56517SOL    HW171325  14.059   4.732   5.211
56517SOL    HW271326  14.100   4.875   5.182
56518SOL     OW71327   5.299   9.369   6.043
56518SOL    HW171328   5.359   9.416   6.101
56518SOL    HW271329   5.222   9.427   6.037
56519SOL     OW71330   8.557   0.274   0.313
56519SOL    HW171331   8.648   0.246   0.320
56519SOL    HW271332   8.562   0.361   0.273
56520SOL     OW71333   1.272   5.671   5.487
56520SOL    HW171334   1.292   5.756   5.525
56520SOL    HW271335   1.357   5.630   5.472
56521SOL     OW71336   6.800   7.381   4.340
56521SOL    HW171337   6.881   7.334   4.358
56521SOL    HW271338   6.811   7.414   4.251
56522SOL     OW71339   5.853  13.398   0.569
56522SOL    HW171340   5.875  13.473   0.514
56522SOL    HW271341   5.937  13.368   0.604
56523SOL     OW71342  14.010  10.688  10.728
56523SOL    HW171343  14.042  10.697  10.818
56523SOL    HW271344  14.018  10.595  10.708
56524SOL     OW71345   1.373   0.971   8.000
56524SOL    HW171346   1.329   0.886   8.010
56524SOL    HW271347   1.390   1.000   8.090
56525SOL     OW71348  12.043   0.639   2.465
56525SOL    HW171349  12.022   0.712   2.408
56525SOL    HW271350  12.099   0.582   2.412
56526SOL     OW71351   1.934   8.982   0.401
56526SOL    HW171352   2.012   8.968   0.348
56526SOL    HW271353   1.898   8.894   0.415
56527SOL     OW71354   3.492  14.347   9.899
56527SOL    HW171355   3.498  14.332   9.805
56527SOL    HW271356   3.433  14.422   9.908
56528SOL     OW71357   4.851  11.481  11.026
56528SOL    HW171358   4.785  11.413  11.027
56528SOL    HW271359   4.896  11.473  11.111
56529SOL     OW71360   7.423   3.156  13.083
56529SOL    HW171361   7.363   3.172  13.156
56529SOL    HW271362   7.386   3.205  13.010
56530SOL     OW71363  12.098   9.418  13.478
56530SOL    HW171364  12.064   9.338  13.438
56530SOL    HW271365  12.104   9.399  13.571
56531SOL     OW71366  14.501  14.134  10.905
56531SOL    HW171367  14.472  14.125  10.995
56531SOL    HW271368  14.506  14.044  10.872
56532SOL     OW71369  14.460   3.270  13.200
56532SOL    HW171370  14.467   3.215  13.278
56532SOL    HW271371  14.367   3.268  13.177
56533SOL     OW71372   8.719  10.841   8.591
56533SOL    HW171373   8.757  10.836   8.503
56533SOL    HW271374   8.660  10.767   8.596
56534SOL     OW71375   2.607  12.691   4.153
56534SOL    HW171376   2.575  12.782   4.155
56534SOL    HW271377   2.636  12.679   4.063
56535SOL     OW71378   4.986   0.110   6.883
56535SOL    HW171379   4.963   0.100   6.975
56535SOL    HW271380   4.977   0.204   6.866
56536SOL     OW71381  10.935  13.496  11.333
56536SOL    HW171382  10.885  13.501  11.415
56536SOL    HW271383  11.010  13.555  11.348
56537SOL     OW71384   4.879   2.798   3.024
56537SOL    HW171385   4.907   2.786   2.933
56537SOL    HW271386   4.854   2.890   3.029
56538SOL     OW71387   5.485  13.585   8.835
56538SOL    HW171388   5.553  13.593   8.768
56538SOL    HW271389   5.418  13.648   8.809
56539SOL     OW71390   4.321   5.959   5.817
56539SOL    HW171391   4.298   5.884   5.763
56539SOL    HW271392   4.313   6.034   5.758
56540SOL     OW71393   2.002   2.562   5.191
56540SOL    HW171394   2.003   2.655   5.212
56540SOL    HW271395   1.909   2.543   5.174
56541SOL     OW71396   6.521   6.731   9.042
56541SOL    HW171397   6.447   6.771   8.997
56541SOL    HW271398   6.598   6.774   9.007
56542SOL     OW71399   6.908  10.501   3.068
56542SOL    HW171400   6.861  10.419   3.055
56542SOL    HW271401   6.892  10.551   2.987
56543SOL     OW71402   1.011   4.708   9.063
56543SOL    HW171403   0.952   4.701   8.988
56543SOL    HW271404   1.050   4.795   9.055
56544SOL     OW71405   6.880   0.523   0.499
56544SOL    HW171406   6.785   0.521   0.513
56544SOL    HW271407   6.905   0.432   0.486
56545SOL     OW71408   0.501   8.355  10.073
56545SOL    HW171409   0.567   8.286  10.065
56545SOL    HW271410   0.533   8.411  10.144
56546SOL     OW71411  14.176   6.082   9.180
56546SOL    HW171412  14.183   6.099   9.086
56546SOL    HW271413  14.213   5.994   9.191
56547SOL     OW71414   2.348   0.987   8.352
56547SOL    HW171415   2.321   0.990   8.260
56547SOL    HW271416   2.325   1.073   8.387
56548SOL     OW71417  13.176   2.948   4.882
56548SOL    HW171418  13.112   2.906   4.939
56548SOL    HW271419  13.211   2.876   4.830
56549SOL     OW71420   8.107   7.686  10.051
56549SOL    HW171421   8.032   7.642  10.092
56549SOL    HW271422   8.079   7.778  10.045
56550SOL     OW71423  11.080  10.679   2.972
56550SOL    HW171424  10.990  10.649   2.958
56550SOL    HW271425  11.098  10.737   2.898
56551SOL     OW71426   8.782   6.520   8.876
56551SOL    HW171427   8.777   6.448   8.814
56551SOL    HW271428   8.784   6.477   8.962
56552SOL     OW71429   1.374  10.239   1.435
56552SOL    HW171430   1.421  10.156   1.442
56552SOL    HW271431   1.337  10.254   1.522
56553SOL     OW71432   5.564  10.820   2.564
56553SOL    HW171433   5.549  10.845   2.656
56553SOL    HW271434   5.496  10.866   2.515
56554SOL     OW71435  13.290   7.963   6.701
56554SOL    HW171436  13.221   7.972   6.634
56554SOL    HW271437  13.368   7.937   6.652
56555SOL     OW71438  13.250  10.287   2.683
56555SOL    HW171439  13.231  10.265   2.773
56555SOL    HW271440  13.219  10.377   2.673
56556SOL     OW71441   8.376   9.502   7.350
56556SOL    HW171442   8.447   9.473   7.293
56556SOL    HW271443   8.419   9.534   7.429
56557SOL     OW71444   4.346  11.919   1.572
56557SOL    HW171445   4.406  11.863   1.621
56557SOL    HW271446   4.307  11.977   1.638
56558SOL     OW71447   0.924  10.940   6.279
56558SOL    HW171448   0.917  11.012   6.215
56558SOL    HW271449   0.991  10.882   6.242
56559SOL     OW71450   1.731   7.695   3.282
56559SOL    HW171451   1.721   7.607   3.246
56559SOL    HW271452   1.647   7.738   3.265
56560SOL     OW71453  12.062   1.965   5.348
56560SOL    HW171454  12.062   1.958   5.444
56560SOL    HW271455  12.091   1.879   5.318
56561SOL     OW71456  14.696   0.293   2.141
56561SOL    HW171457  14.747   0.262   2.216
56561SOL    HW271458  14.645   0.217   2.113
56562SOL     OW71459   9.424   9.609  10.860
56562SOL    HW171460   9.465   9.532  10.820
56562SOL    HW271461   9.366   9.644  10.792
56563SOL     OW71462   6.144   4.583   1.520
56563SOL    HW171463   6.121   4.491   1.510
56563SOL    HW271464   6.160   4.614   1.430
56564SOL     OW71465   0.402   5.742  14.749
56564SOL    HW171466   0.443   5.656  14.761
56564SOL    HW271467   0.477   5.802  14.744
56565SOL     OW71468   5.712   2.205   5.271
56565SOL    HW171469   5.761   2.283   5.245
56565SOL    HW271470   5.667   2.230   5.351
56566SOL     OW71471  10.067  14.593  13.640
56566SOL    HW171472  10.078  14.557  13.552
56566SOL    HW271473  10.056  14.687  13.626
56567SOL     OW71474   7.699   2.358   3.128
56567SOL    HW171475   7.720   2.281   3.076
56567SOL    HW271476   7.747   2.429   3.086
56568SOL     OW71477  13.008   9.042   5.909
56568SOL    HW171478  13.084   9.084   5.951
56568SOL    HW271479  13.006   8.954   5.947
56569SOL     OW71480   4.920  13.897   7.168
56569SOL    HW171481   4.980  13.850   7.111
56569SOL    HW271482   4.838  13.848   7.162
56570SOL     OW71483  11.688   2.556   4.519
56570SOL    HW171484  11.692   2.462   4.504
56570SOL    HW271485  11.677   2.565   4.614
56571SOL     OW71486   2.712  12.406  10.611
56571SOL    HW171487   2.690  12.499  10.608
56571SOL    HW271488   2.645  12.368  10.669
56572SOL     OW71489   9.507   6.538  11.707
56572SOL    HW171490   9.521   6.560  11.614
56572SOL    HW271491   9.487   6.622  11.748
56573SOL     OW71492   3.434   2.930   8.285
56573SOL    HW171493   3.447   3.014   8.241
56573SOL    HW271494   3.368   2.885   8.233
56574SOL     OW71495   4.344   6.303   1.675
56574SOL    HW171496   4.377   6.265   1.593
56574SOL    HW271497   4.258   6.264   1.687
56575SOL     OW71498  13.710   0.772   5.577
56575SOL    HW171499  13.621   0.735   5.569
56575SOL    HW271500  13.768   0.700   5.551
56576SOL     OW71501  11.670   7.455   9.768
56576SOL    HW171502  11.619   7.493   9.697
56576SOL    HW271503  11.687   7.365   9.741
56577SOL     OW71504   7.182   0.411   2.051
56577SOL    HW171505   7.211   0.399   1.960
56577SOL    HW271506   7.102   0.463   2.043
56578SOL     OW71507   7.040   2.498   5.323
56578SOL    HW171508   7.098   2.575   5.317
56578SOL    HW271509   7.100   2.423   5.317
56579SOL     OW71510   2.758   3.964   3.307
56579SOL    HW171511   2.732   3.984   3.397
56579SOL    HW271512   2.754   4.049   3.262
56580SOL     OW71513   4.569  13.779  13.448
56580SOL    HW171514   4.584  13.687  13.428
56580SOL    HW271515   4.492  13.779  13.505
56581SOL     OW71516   9.817   6.459   4.554
56581SOL    HW171517   9.791   6.470   4.463
56581SOL    HW271518   9.758   6.392   4.588
56582SOL     OW71519  10.461  11.140   4.611
56582SOL    HW171520  10.417  11.152   4.695
56582SOL    HW271521  10.554  11.133   4.633
56583SOL     OW71522   6.803  10.133   1.482
56583SOL    HW171523   6.708  10.140   1.484
56583SOL    HW271524   6.820  10.041   1.505
56584SOL     OW71525   4.293  14.051   0.604
56584SOL    HW171526   4.374  14.102   0.606
56584SOL    HW271527   4.317  13.965   0.637
56585SOL     OW71528  10.795   9.811  12.670
56585SOL    HW171529  10.781   9.827  12.763
56585SOL    HW271530  10.863   9.874  12.645
56586SOL     OW71531   9.699  11.936  11.171
56586SOL    HW171532   9.787  11.906  11.192
56586SOL    HW271533   9.705  12.032  11.171
56587SOL     OW71534   1.792   8.471   7.696
56587SOL    HW171535   1.877   8.487   7.737
56587SOL    HW271536   1.799   8.382   7.660
56588SOL     OW71537  12.516   3.207   0.277
56588SOL    HW171538  12.505   3.270   0.207
56588SOL    HW271539  12.542   3.259   0.353
56589SOL     OW71540   2.914  14.418  12.564
56589SOL    HW171541   2.944  14.364  12.637
56589SOL    HW271542   2.990  14.470  12.540
56590SOL     OW71543  10.124  12.856   6.561
56590SOL    HW171544  10.070  12.930   6.533
56590SOL    HW271545  10.133  12.803   6.482
56591SOL     OW71546   8.629  10.664  13.296
56591SOL    HW171547   8.630  10.604  13.371
56591SOL    HW271548   8.589  10.613  13.225
56592SOL     OW71549   4.569  10.715  11.607
56592SOL    HW171550   4.534  10.632  11.574
56592SOL    HW271551   4.492  10.766  11.631
56593SOL     OW71552  11.356  10.137  13.032
56593SOL    HW171553  11.294  10.209  13.023
56593SOL    HW271554  11.373  10.108  12.943
56594SOL     OW71555   6.137   3.713   2.495
56594SOL    HW171556   6.202   3.727   2.426
56594SOL    HW271557   6.126   3.799   2.535
56595SOL     OW71558   7.047  10.133   1.238
56595SOL    HW171559   7.079  10.074   1.306
56595SOL    HW271560   6.952  10.124   1.241
56596SOL     OW71561   2.640  11.277   1.594
56596SOL    HW171562   2.626  11.201   1.537
56596SOL    HW271563   2.578  11.264   1.666
56597SOL     OW71564   9.899  11.132  12.573
56597SOL    HW171565   9.813  11.172  12.560
56597SOL    HW271566   9.933  11.121  12.484
56598SOL     OW71567   3.272   8.830   2.518
56598SOL    HW171568   3.239   8.916   2.491
56598SOL    HW271569   3.235   8.769   2.455
56599SOL     OW71570   3.205  12.029   6.685
56599SOL    HW171571   3.283  12.084   6.696
56599SOL    HW271572   3.229  11.969   6.614
56600SOL     OW71573   0.503   9.085  13.723
56600SOL    HW171574   0.510   9.005  13.775
56600SOL    HW271575   0.411   9.087  13.695
56601SOL     OW71576  12.714  12.847   6.449
56601SOL    HW171577  12.728  12.938   6.476
56601SOL    HW271578  12.650  12.853   6.377
56602SOL     OW71579  13.351   6.410   8.778
56602SOL    HW171580  13.327   6.420   8.686
56602SOL    HW271581  13.302   6.479   8.823
56603SOL     OW71582   9.980  12.545   8.888
56603SOL    HW171583   9.949  12.481   8.823
56603SOL    HW271584   9.913  12.545   8.956
56604SOL     OW71585   6.844  12.094  13.982
56604SOL    HW171586   6.807  12.152  13.915
56604SOL    HW271587   6.930  12.069  13.948
56605SOL     OW71588  11.409   1.084  12.492
56605SOL    HW171589  11.345   1.041  12.435
56605SOL    HW271590  11.359   1.152  12.537
56606SOL     OW71591  11.932   0.983   0.559
56606SOL    HW171592  11.894   1.063   0.523
56606SOL    HW271593  11.965   1.009   0.645
56607SOL     OW71594   9.095   5.422  14.036
56607SOL    HW171595   9.017   5.378  14.069
56607SOL    HW271596   9.166   5.360  14.052
56608SOL     OW71597  10.344   4.696   2.582
56608SOL    HW171598  10.374   4.712   2.492
56608SOL    HW271599  10.406   4.743   2.637
56609SOL     OW71600   6.946   6.299   7.761
56609SOL    HW171601   6.883   6.267   7.696
56609SOL    HW271602   6.914   6.386   7.785
56610SOL     OW71603  13.617   4.766   6.390
56610SOL    HW171604  13.576   4.694   6.437
56610SOL    HW271605  13.673   4.809   6.454
56611SOL     OW71606   4.749  10.150   3.748
56611SOL    HW171607   4.724  10.074   3.801
56611SOL    HW271608   4.680  10.157   3.682
56612SOL     OW71609   6.186   8.984   8.469
56612SOL    HW171610   6.106   8.950   8.508
56612SOL    HW271611   6.251   8.980   8.539
56613SOL     OW71612   6.800  11.567   8.219
56613SOL    HW171613   6.724  11.571   8.161
56613SOL    HW271614   6.866  11.622   8.175
56614SOL     OW71615   0.626   8.655  12.235
56614SOL    HW171616   0.550   8.640  12.291
56614SOL    HW271617   0.594   8.712  12.165
56615SOL     OW71618   6.388   6.382  14.323
56615SOL    HW171619   6.435   6.321  14.266
56615SOL    HW271620   6.297   6.379  14.293
56616SOL     OW71621   2.732  13.646  13.500
56616SOL    HW171622   2.678  13.584  13.451
56616SOL    HW271623   2.674  13.679  13.568
56617SOL     OW71624   4.133  12.085   2.345
56617SOL    HW171625   4.099  12.015   2.290
56617SOL    HW271626   4.097  12.068   2.432
56618SOL     OW71627   3.587  12.714   6.092
56618SOL    HW171628   3.570  12.720   5.998
56618SOL    HW271629   3.680  12.693   6.098
56619SOL     OW71630   4.412   7.560   4.640
56619SOL    HW171631   4.491   7.583   4.689
56619SOL    HW271632   4.426   7.470   4.611
56620SOL     OW71633   5.614   3.228   2.080
56620SOL    HW171634   5.595   3.316   2.111
56620SOL    HW271635   5.541   3.175   2.111
56621SOL     OW71636   2.993   8.005  10.929
56621SOL    HW171637   3.002   7.943  10.857
56621SOL    HW271638   3.018   7.955  11.007
56622SOL     OW71639  12.045   1.915   4.540
56622SOL    HW171640  12.057   1.979   4.470
56622SOL    HW271641  11.997   1.961   4.608
56623SOL     OW71642  13.051   1.094  11.642
56623SOL    HW171643  13.114   1.164  11.660
56623SOL    HW271644  13.083   1.019  11.692
56624SOL     OW71645  12.739   2.201   3.159
56624SOL    HW171646  12.676   2.159   3.217
56624SOL    HW271647  12.805   2.134   3.142
56625SOL     OW71648  14.821   1.468   4.992
56625SOL    HW171649  14.791   1.422   5.070
56625SOL    HW271650   0.018   1.520   5.022
56626SOL     OW71651   1.914   5.220  10.881
56626SOL    HW171652   1.948   5.133  10.860
56626SOL    HW271653   1.825   5.220  10.846
56627SOL     OW71654   8.311  13.551   5.643
56627SOL    HW171655   8.219  13.555   5.617
56627SOL    HW271656   8.351  13.627   5.601
56628SOL     OW71657   6.069   7.556  12.962
56628SOL    HW171658   6.094   7.502  13.038
56628SOL    HW271659   6.142   7.617  12.952
56629SOL     OW71660  13.476   3.322   7.508
56629SOL    HW171661  13.384   3.349   7.519
56629SOL    HW271662  13.471   3.239   7.461
56630SOL     OW71663  13.762   7.088   1.669
56630SOL    HW171664  13.770   7.097   1.574
56630SOL    HW271665  13.810   7.163   1.704
56631SOL     OW71666  12.821   5.785   1.014
56631SOL    HW171667  12.823   5.875   0.980
56631SOL    HW271668  12.878   5.787   1.091
56632SOL     OW71669   4.573   3.343   8.953
56632SOL    HW171670   4.639   3.279   8.928
56632SOL    HW271671   4.603   3.425   8.913
56633SOL     OW71672   5.326   3.958   4.932
56633SOL    HW171673   5.231   3.961   4.940
56633SOL    HW271674   5.357   4.037   4.976
56634SOL     OW71675   0.472   1.492   2.206
56634SOL    HW171676   0.520   1.490   2.289
56634SOL    HW271677   0.401   1.428   2.218
56635SOL     OW71678  14.722   9.249  12.924
56635SOL    HW171679  14.687   9.212  13.005
56635SOL    HW271680  14.710   9.344  12.933
56636SOL     OW71681  14.610  11.118   7.110
56636SOL    HW171682  14.684  11.094   7.165
56636SOL    HW271683  14.617  11.060   7.034
56637SOL     OW71684  11.969   0.529  12.907
56637SOL    HW171685  12.040   0.547  12.845
56637SOL    HW271686  11.983   0.438  12.933
56638SOL     OW71687   0.375   1.978  13.065
56638SOL    HW171688   0.406   1.965  13.155
56638SOL    HW271689   0.313   2.051  13.072
56639SOL     OW71690  12.284  12.206   9.276
56639SOL    HW171691  12.370  12.166   9.269
56639SOL    HW271692  12.296  12.297   9.248
56640SOL     OW71693   0.876   6.753   4.247
56640SOL    HW171694   0.913   6.711   4.325
56640SOL    HW271695   0.934   6.827   4.230
56641SOL     OW71696   1.732   5.993   2.647
56641SOL    HW171697   1.755   5.939   2.571
56641SOL    HW271698   1.815   6.028   2.678
56642SOL     OW71699   6.476   8.997   5.538
56642SOL    HW171700   6.557   9.005   5.588
56642SOL    HW271701   6.422   8.938   5.590
56643SOL     OW71702   8.848  11.323  10.143
56643SOL    HW171703   8.925  11.288  10.100
56643SOL    HW271704   8.830  11.260  10.213
56644SOL     OW71705  10.750   8.008  10.299
56644SOL    HW171706  10.696   8.040  10.372
56644SOL    HW271707  10.691   8.010  10.224
56645SOL     OW71708  12.381   5.513   9.509
56645SOL    HW171709  12.314   5.468   9.458
56645SOL    HW271710  12.372   5.478   9.597
56646SOL     OW71711   2.121  10.852   6.414
56646SOL    HW171712   2.205  10.813   6.390
56646SOL    HW271713   2.055  10.793   6.377
56647SOL     OW71714   5.947   8.232  12.165
56647SOL    HW171715   6.041   8.218  12.151
56647SOL    HW271716   5.943   8.305  12.227
56648SOL     OW71717   5.999   3.703  14.304
56648SOL    HW171718   5.971   3.708  14.213
56648SOL    HW271719   5.984   3.611  14.329
56649SOL     OW71720   6.081   9.974   8.286
56649SOL    HW171721   6.013   9.919   8.246
56649SOL    HW271722   6.032  10.034   8.342
56650SOL     OW71723   1.817   1.911   1.944
56650SOL    HW171724   1.891   1.900   1.885
56650SOL    HW271725   1.773   1.825   1.943
56651SOL     OW71726  10.666   9.977  13.432
56651SOL    HW171727  10.625  10.033  13.366
56651SOL    HW271728  10.732  10.033  13.473
56652SOL     OW71729  11.651  11.442   7.122
56652SOL    HW171730  11.637  11.531   7.153
56652SOL    HW271731  11.656  11.451   7.026
56653SOL     OW71732   0.663   8.882   3.587
56653SOL    HW171733   0.721   8.954   3.612
56653SOL    HW271734   0.575   8.916   3.601
56654SOL     OW71735   4.167   7.051   0.909
56654SOL    HW171736   4.203   6.963   0.899
56654SOL    HW271737   4.234   7.100   0.957
56655SOL     OW71738   5.048   6.638   3.652
56655SOL    HW171739   4.959   6.672   3.662
56655SOL    HW271740   5.065   6.645   3.558
56656SOL     OW71741   0.898   2.017   3.981
56656SOL    HW171742   0.972   2.065   3.943
56656SOL    HW271743   0.836   2.008   3.909
56657SOL     OW71744  10.510  12.067   0.488
56657SOL    HW171745  10.426  12.041   0.450
56657SOL    HW271746  10.563  12.093   0.413
56658SOL     OW71747   8.404   7.572  14.837
56658SOL    HW171748   8.439   7.523   0.034
56658SOL    HW271749   8.398   7.662  14.868
56659SOL     OW71750   4.449  14.457  11.234
56659SOL    HW171751   4.535  14.416  11.223
56659SOL    HW271752   4.427  14.490  11.147
56660SOL     OW71753  13.863   6.611  14.060
56660SOL    HW171754  13.945   6.658  14.044
56660SOL    HW271755  13.797   6.661  14.012
56661SOL     OW71756  13.287  10.611  10.443
56661SOL    HW171757  13.282  10.553  10.367
56661SOL    HW271758  13.267  10.698  10.408
56662SOL     OW71759   8.032   9.632  11.984
56662SOL    HW171760   8.111   9.582  12.005
56662SOL    HW271761   8.043   9.658  11.893
56663SOL     OW71762   0.579   2.149   5.020
56663SOL    HW171763   0.490   2.140   5.054
56663SOL    HW271764   0.634   2.112   5.089
56664SOL     OW71765   6.037   9.163  14.572
56664SOL    HW171766   6.028   9.211  14.489
56664SOL    HW271767   5.988   9.082  14.559
56665SOL     OW71768  10.127  12.347   0.254
56665SOL    HW171769  10.081  12.370   0.174
56665SOL    HW271770  10.081  12.270   0.287
56666SOL     OW71771   6.519   0.652  13.890
56666SOL    HW171772   6.540   0.559  13.876
56666SOL    HW271773   6.599   0.690  13.923
56667SOL     OW71774   1.037  14.616   5.887
56667SOL    HW171775   0.985  14.675   5.833
56667SOL    HW271776   1.126  14.652   5.885
56668SOL     OW71777   4.615   5.781  11.648
56668SOL    HW171778   4.585   5.701  11.605
56668SOL    HW271779   4.684   5.814  11.590
56669SOL     OW71780   0.462   0.046   0.966
56669SOL    HW171781   0.556   0.031   0.958
56669SOL    HW271782   0.422  14.843   0.934
56670SOL     OW71783  11.240   1.913   3.954
56670SOL    HW171784  11.332   1.919   3.929
56670SOL    HW271785  11.203   1.997   3.927
56671SOL     OW71786   9.385  14.262   5.597
56671SOL    HW171787   9.429  14.346   5.594
56671SOL    HW271788   9.415  14.222   5.679
56672SOL     OW71789   1.677   1.423   8.129
56672SOL    HW171790   1.638   1.336   8.124
56672SOL    HW271791   1.642   1.469   8.052
56673SOL     OW71792  14.476   9.554   4.416
56673SOL    HW171793  14.472   9.649   4.427
56673SOL    HW271794  14.492   9.542   4.322
56674SOL     OW71795   9.565  14.036   9.205
56674SOL    HW171796   9.515  14.063   9.128
56674SOL    HW271797   9.548  13.942   9.213
56675SOL     OW71798   6.097  10.517   6.977
56675SOL    HW171799   6.135  10.586   6.924
56675SOL    HW271800   6.168  10.452   6.985
56676SOL     OW71801   7.918   9.772   9.011
56676SOL    HW171802   7.924   9.677   9.016
56676SOL    HW271803   7.838   9.794   9.058
56677SOL     OW71804   6.055  12.015  13.209
56677SOL    HW171805   6.107  12.051  13.137
56677SOL    HW271806   6.058  12.083  13.277
56678SOL     OW71807   7.613   4.284   5.903
56678SOL    HW171808   7.611   4.376   5.929
56678SOL    HW271809   7.690   4.248   5.946
56679SOL     OW71810   8.106   0.432   3.725
56679SOL    HW171811   8.148   0.366   3.780
56679SOL    HW271812   8.170   0.450   3.657
56680SOL     OW71813  12.436   7.591   4.952
56680SOL    HW171814  12.424   7.615   5.044
56680SOL    HW271815  12.526   7.614   4.933
56681SOL     OW71816   3.782  11.430   4.418
56681SOL    HW171817   3.776  11.449   4.512
56681SOL    HW271818   3.834  11.349   4.414
56682SOL     OW71819   5.540   4.817   3.139
56682SOL    HW171820   5.587   4.778   3.065
56682SOL    HW271821   5.600   4.884   3.172
56683SOL     OW71822  13.731   7.997   4.042
56683SOL    HW171823  13.680   8.021   3.965
56683SOL    HW271824  13.675   8.020   4.116
56684SOL     OW71825  10.929  10.058   1.062
56684SOL    HW171826  10.835  10.064   1.081
56684SOL    HW271827  10.933  10.032   0.970
56685SOL     OW71828   8.983   3.687   6.371
56685SOL    HW171829   9.077   3.708   6.375
56685SOL    HW271830   8.962   3.694   6.278
56686SOL     OW71831   3.159  12.386   4.609
56686SOL    HW171832   3.093  12.424   4.667
56686SOL    HW271833   3.206  12.324   4.664
56687SOL     OW71834   8.277   8.152  10.597
56687SOL    HW171835   8.357   8.102  10.584
56687SOL    HW271836   8.238   8.115  10.676
56688SOL     OW71837   6.620   4.346  12.830
56688SOL    HW171838   6.685   4.360  12.899
56688SOL    HW271839   6.624   4.252  12.813
56689SOL     OW71840   2.000  10.168   9.071
56689SOL    HW171841   1.979  10.258   9.098
56689SOL    HW271842   2.092  10.156   9.096
56690SOL     OW71843   5.101   9.099  14.396
56690SOL    HW171844   5.055   9.154  14.334
56690SOL    HW271845   5.059   9.116  14.480
56691SOL     OW71846   6.531  12.848  14.481
56691SOL    HW171847   6.529  12.898  14.563
56691SOL    HW271848   6.602  12.886  14.431
56692SOL     OW71849  11.310   3.519  11.908
56692SOL    HW171850  11.259   3.593  11.874
56692SOL    HW271851  11.400   3.539  11.884
56693SOL     OW71852   3.534  12.200  10.428
56693SOL    HW171853   3.578  12.145  10.363
56693SOL    HW271854   3.596  12.270  10.445
56694SOL     OW71855   1.572  11.354  12.423
56694SOL    HW171856   1.563  11.299  12.345
56694SOL    HW271857   1.623  11.301  12.484
56695SOL     OW71858   5.339  11.341  11.735
56695SOL    HW171859   5.263  11.308  11.688
56695SOL    HW271860   5.385  11.262  11.764
56696SOL     OW71861   4.119   4.351  12.174
56696SOL    HW171862   4.212   4.330  12.171
56696SOL    HW271863   4.115   4.437  12.216
56697SOL     OW71864  12.669  11.789  13.810
56697SOL    HW171865  12.664  11.773  13.904
56697SOL    HW271866  12.756  11.758  13.785
56698SOL     OW71867   7.002   9.860  14.595
56698SOL    HW171868   6.949   9.901  14.663
56698SOL    HW271869   7.013   9.929  14.529
56699SOL     OW71870  12.156   1.646   9.527
56699SOL    HW171871  12.120   1.567   9.488
56699SOL    HW271872  12.109   1.717   9.484
56700SOL     OW71873   7.975   4.933  13.996
56700SOL    HW171874   8.041   4.863  14.000
56700SOL    HW271875   7.893   4.886  13.980
56701SOL     OW71876   8.906   7.782   7.021
56701SOL    HW171877   8.933   7.695   6.991
56701SOL    HW271878   8.933   7.786   7.112
56702SOL     OW71879   8.325  10.542  14.000
56702SOL    HW171880   8.394  10.531  14.066
56702SOL    HW271881   8.283  10.625  14.022
56703SOL     OW71882   0.735   1.592  12.624
56703SOL    HW171883   0.774   1.541  12.553
56703SOL    HW271884   0.731   1.682  12.591
56704SOL     OW71885   9.459  10.792   7.524
56704SOL    HW171886   9.465  10.759   7.434
56704SOL    HW271887   9.393  10.861   7.521
56705SOL     OW71888  12.083   7.544   0.682
56705SOL    HW171889  12.125   7.629   0.673
56705SOL    HW271890  12.135   7.497   0.747
56706SOL     OW71891  11.264   8.323   3.355
56706SOL    HW171892  11.177   8.307   3.320
56706SOL    HW271893  11.264   8.416   3.377
56707SOL     OW71894  11.322   5.499  12.385
56707SOL    HW171895  11.291   5.561  12.451
56707SOL    HW271896  11.377   5.551  12.327
56708SOL     OW71897   0.220   3.420   0.825
56708SOL    HW171898   0.161   3.458   0.760
56708SOL    HW271899   0.238   3.492   0.886
56709SOL     OW71900   2.441   6.142  10.436
56709SOL    HW171901   2.482   6.119  10.353
56709SOL    HW271902   2.478   6.227  10.458
56710SOL     OW71903  13.240   2.839  12.525
56710SOL    HW171904  13.243   2.749  12.491
56710SOL    HW271905  13.328   2.873  12.510
56711SOL     OW71906  11.869   4.475  13.670
56711SOL    HW171907  11.803   4.520  13.617
56711SOL    HW271908  11.901   4.405  13.613
56712SOL     OW71909   4.046   6.389   2.406
56712SOL    HW171910   3.961   6.434   2.406
56712SOL    HW271911   4.035   6.318   2.343
56713SOL     OW71912   0.154   7.720   6.169
56713SOL    HW171913   0.060   7.705   6.171
56713SOL    HW271914   0.192   7.635   6.149
56714SOL     OW71915  13.421   3.601   2.546
56714SOL    HW171916  13.455   3.585   2.458
56714SOL    HW271917  13.377   3.685   2.540
56715SOL     OW71918  11.366   2.248   8.750
56715SOL    HW171919  11.291   2.215   8.800
56715SOL    HW271920  11.329   2.274   8.665
56716SOL     OW71921   7.367   9.298   0.444
56716SOL    HW171922   7.358   9.383   0.402
56716SOL    HW271923   7.457   9.295   0.476
56717SOL     OW71924  14.688   2.453   7.343
56717SOL    HW171925  14.747   2.402   7.399
56717SOL    HW271926  14.618   2.392   7.321
56718SOL     OW71927   9.053   7.160   8.241
56718SOL    HW171928   9.146   7.173   8.220
56718SOL    HW271929   9.026   7.242   8.283
56719SOL     OW71930  13.290   9.357   4.880
56719SOL    HW171931  13.382   9.383   4.887
56719SOL    HW271932  13.244   9.438   4.859
56720SOL     OW71933   4.614  12.385   8.506
56720SOL    HW171934   4.601  12.394   8.411
56720SOL    HW271935   4.708  12.393   8.518
56721SOL     OW71936   1.515   3.290  13.157
56721SOL    HW171937   1.592   3.332  13.118
56721SOL    HW271938   1.444   3.310  13.096
56722SOL     OW71939  10.960  12.910   0.158
56722SOL    HW171940  10.930  12.822   0.181
56722SOL    HW271941  10.973  12.953   0.243
56723SOL     OW71942   0.599  11.186   5.976
56723SOL    HW171943   0.557  11.206   6.060
56723SOL    HW271944   0.544  11.118   5.937
56724SOL     OW71945   7.482   8.437  11.525
56724SOL    HW171946   7.526   8.358  11.557
56724SOL    HW271947   7.394   8.408  11.501
56725SOL     OW71948   1.119   8.159   3.413
56725SOL    HW171949   1.055   8.099   3.375
56725SOL    HW271950   1.204   8.124   3.387
56726SOL     OW71951   8.630  10.659  10.534
56726SOL    HW171952   8.677  10.626  10.457
56726SOL    HW271953   8.666  10.747  10.548
56727SOL     OW71954   4.635   7.494  13.984
56727SOL    HW171955   4.686   7.498  14.065
56727SOL    HW271956   4.544   7.481  14.013
56728SOL     OW71957  10.659   2.700   2.201
56728SOL    HW171958  10.680   2.643   2.127
56728SOL    HW271959  10.645   2.640   2.274
56729SOL     OW71960   8.360   9.826   1.505
56729SOL    HW171961   8.432   9.777   1.546
56729SOL    HW271962   8.321   9.764   1.443
56730SOL     OW71963   2.593  14.756   3.522
56730SOL    HW171964   2.509  14.712   3.509
56730SOL    HW271965   2.571  14.832   3.577
56731SOL     OW71966   2.032   8.017  14.294
56731SOL    HW171967   2.085   8.089  14.261
56731SOL    HW271968   1.950   8.023  14.244
56732SOL     OW71969   6.776  14.679   8.151
56732SOL    HW171970   6.851  14.689   8.209
56732SOL    HW271971   6.702  14.716   8.200
56733SOL     OW71972  12.763   0.678   3.336
56733SOL    HW171973  12.835   0.668   3.398
56733SOL    HW271974  12.703   0.606   3.356
56734SOL     OW71975  12.502   8.533   3.001
56734SOL    HW171976  12.486   8.468   2.934
56734SOL    HW271977  12.541   8.484   3.074
56735SOL     OW71978   0.952  10.175   9.211
56735SOL    HW171979   0.992  10.225   9.140
56735SOL    HW271980   0.966  10.083   9.186
56736SOL     OW71981   1.717   4.252   1.847
56736SOL    HW171982   1.710   4.287   1.758
56736SOL    HW271983   1.763   4.168   1.835
56737SOL     OW71984   3.352   6.496   0.380
56737SOL    HW171985   3.283   6.549   0.341
56737SOL    HW271986   3.357   6.418   0.325
56738SOL     OW71987  13.051  10.516  10.615
56738SOL    HW171988  13.052  10.471  10.530
56738SOL    HW271989  13.125  10.576  10.612
56739SOL     OW71990   9.579   7.293  14.005
56739SOL    HW171991   9.573   7.372  14.058
56739SOL    HW271992   9.664   7.300  13.961
56740SOL     OW71993   3.339  11.218   6.202
56740SOL    HW171994   3.253  11.179   6.219
56740SOL    HW271995   3.401  11.159   6.244
56741SOL     OW71996  14.518   7.194  13.129
56741SOL    HW171997  14.456   7.261  13.159
56741SOL    HW271998  14.508   7.122  13.191
56742SOL     OW71999  14.672   2.339   9.599
56742SOL    HW172000  14.719   2.266   9.558
56742SOL    HW272001  14.607   2.297   9.656
56743SOL     OW72002   8.833  11.444   4.470
56743SOL    HW172003   8.867  11.392   4.543
56743SOL    HW272004   8.805  11.379   4.406
56744SOL     OW72005   4.678  10.082   3.164
56744SOL    HW172006   4.702  10.138   3.238
56744SOL    HW272007   4.738  10.107   3.094
56745SOL     OW72008   2.601   0.418   7.473
56745SOL    HW172009   2.654   0.403   7.395
56745SOL    HW272010   2.626   0.347   7.533
56746SOL     OW72011   8.254   6.794   2.526
56746SOL    HW172012   8.254   6.735   2.601
56746SOL    HW272013   8.266   6.737   2.450
56747SOL     OW72014   0.454   0.621   5.182
56747SOL    HW172015   0.498   0.560   5.242
56747SOL    HW272016   0.381   0.656   5.233
56748SOL     OW72017   5.193   8.594   1.133
56748SOL    HW172018   5.098   8.587   1.142
56748SOL    HW272019   5.220   8.646   1.209
56749SOL     OW72020   9.878  11.507  12.089
56749SOL    HW172021   9.793  11.550  12.094
56749SOL    HW272022   9.916  11.538  12.006
56750SOL     OW72023  14.747  14.288  12.427
56750SOL    HW172024  14.702  14.210  12.395
56750SOL    HW272025  14.693  14.319  12.500
56751SOL     OW72026  14.457  13.512   1.480
56751SOL    HW172027  14.513  13.589   1.495
56751SOL    HW272028  14.418  13.494   1.565
56752SOL     OW72029   3.846   9.648   6.750
56752SOL    HW172030   3.804   9.701   6.682
56752SOL    HW272031   3.880   9.572   6.703
56753SOL     OW72032  13.016   8.068  13.923
56753SOL    HW172033  12.948   8.089  13.858
56753SOL    HW272034  13.084   8.023  13.872
56754SOL     OW72035   4.770   0.637   2.764
56754SOL    HW172036   4.725   0.554   2.746
56754SOL    HW272037   4.828   0.618   2.838
56755SOL     OW72038  13.935  12.700   8.710
56755SOL    HW172039  14.001  12.637   8.683
56755SOL    HW272040  13.945  12.706   8.805
56756SOL     OW72041  12.157   6.537  10.494
56756SOL    HW172042  12.138   6.470  10.560
56756SOL    HW272043  12.252   6.550  10.500
56757SOL     OW72044  11.889   8.732   9.184
56757SOL    HW172045  11.975   8.742   9.143
56757SOL    HW272046  11.842   8.670   9.128
56758SOL     OW72047   0.050  11.364  11.121
56758SOL    HW172048  14.872  11.290  11.146
56758SOL    HW272049   0.057  11.417  11.200
56759SOL     OW72050  13.848   7.917  13.306
56759SOL    HW172051  13.879   7.826  13.309
56759SOL    HW272052  13.886   7.957  13.385
56760SOL     OW72053   4.959   3.966   6.843
56760SOL    HW172054   5.031   3.917   6.803
56760SOL    HW272055   4.880   3.927   6.806
56761SOL     OW72056  13.433   0.781   9.983
56761SOL    HW172057  13.385   0.701   9.959
56761SOL    HW272058  13.512   0.750  10.027
56762SOL     OW72059   4.211  10.419   1.573
56762SOL    HW172060   4.283  10.396   1.632
56762SOL    HW272061   4.251  10.478   1.509
56763SOL     OW72062   5.119   2.245  10.726
56763SOL    HW172063   5.083   2.171  10.677
56763SOL    HW272064   5.202   2.212  10.761
56764SOL     OW72065  13.495   5.793   7.366
56764SOL    HW172066  13.442   5.715   7.382
56764SOL    HW272067  13.577   5.776   7.414
56765SOL     OW72068   7.915   1.835  14.091
56765SOL    HW172069   7.890   1.841  14.183
56765SOL    HW272070   7.884   1.750  14.062
56766SOL     OW72071   1.126   2.584   6.358
56766SOL    HW172072   1.033   2.562   6.349
56766SOL    HW272073   1.164   2.510   6.405
56767SOL     OW72074   3.822  14.201  11.197
56767SOL    HW172075   3.769  14.203  11.117
56767SOL    HW272076   3.773  14.144  11.256
56768SOL     OW72077   4.950  13.629   6.299
56768SOL    HW172078   4.939  13.710   6.249
56768SOL    HW272079   4.940  13.656   6.390
56769SOL     OW72080  11.858   4.217   9.435
56769SOL    HW172081  11.812   4.199   9.517
56769SOL    HW272082  11.788   4.222   9.370
56770SOL     OW72083   2.500   6.617  14.781
56770SOL    HW172084   2.467   6.644  14.867
56770SOL    HW272085   2.428   6.568  14.742
56771SOL     OW72086  13.214   1.453   6.324
56771SOL    HW172087  13.272   1.510   6.374
56771SOL    HW272088  13.272   1.391   6.280
56772SOL     OW72089   7.312   4.187   2.762
56772SOL    HW172090   7.293   4.280   2.760
56772SOL    HW272091   7.230   4.146   2.790
56773SOL     OW72092  11.305  13.795   6.593
56773SOL    HW172093  11.259  13.879   6.594
56773SOL    HW272094  11.342  13.787   6.681
56774SOL     OW72095   6.865   7.399   9.388
56774SOL    HW172096   6.785   7.447   9.367
56774SOL    HW272097   6.842   7.307   9.370
56775SOL     OW72098   2.060   6.190   5.794
56775SOL    HW172099   1.988   6.229   5.843
56775SOL    HW272100   2.108   6.138   5.859
56776SOL     OW72101   1.029  10.786   2.030
56776SOL    HW172102   1.064  10.744   1.952
56776SOL    HW272103   1.059  10.730   2.102
56777SOL     OW72104   4.784  13.412  10.809
56777SOL    HW172105   4.758  13.410  10.717
56777SOL    HW272106   4.746  13.332  10.846
56778SOL     OW72107   7.663  11.688   4.875
56778SOL    HW172108   7.742  11.641   4.850
56778SOL    HW272109   7.695  11.770   4.913
56779SOL     OW72110  14.424   4.924  10.945
56779SOL    HW172111  14.378   5.008  10.952
56779SOL    HW272112  14.513   4.948  10.919
56780SOL     OW72113   4.725   2.161   1.739
56780SOL    HW172114   4.677   2.243   1.727
56780SOL    HW272115   4.675   2.096   1.690
56781SOL     OW72116   3.007   7.710   4.555
56781SOL    HW172117   2.947   7.771   4.514
56781SOL    HW272118   2.974   7.700   4.645
56782SOL     OW72119  10.037  10.760   6.123
56782SOL    HW172120  10.108  10.699   6.105
56782SOL    HW272121  10.009  10.789   6.036
56783SOL     OW72122   2.438  12.080   0.980
56783SOL    HW172123   2.406  12.085   0.890
56783SOL    HW272124   2.396  12.003   1.017
56784SOL     OW72125   5.694   4.200   3.368
56784SOL    HW172126   5.640   4.138   3.417
56784SOL    HW272127   5.649   4.284   3.375
56785SOL     OW72128   9.940  14.045  14.860
56785SOL    HW172129   9.862  14.047   0.037
56785SOL    HW272130   9.976  13.957  14.872
56786SOL     OW72131   8.424   3.033  11.317
56786SOL    HW172132   8.445   3.117  11.274
56786SOL    HW272133   8.443   2.967  11.250
56787SOL     OW72134   6.069   0.175  11.540
56787SOL    HW172135   6.147   0.123  11.556
56787SOL    HW272136   6.001   0.134  11.593
56788SOL     OW72137   1.038  10.181   7.441
56788SOL    HW172138   1.034  10.273   7.464
56788SOL    HW272139   0.956  10.145   7.474
56789SOL     OW72140  14.603   8.730  14.045
56789SOL    HW172141  14.514   8.762  14.029
56789SOL    HW272142  14.594   8.675  14.123
56790SOL     OW72143  13.687  11.503   2.348
56790SOL    HW172144  13.621  11.434   2.360
56790SOL    HW272145  13.683  11.524   2.255
56791SOL     OW72146   5.064  11.885   8.648
56791SOL    HW172147   5.029  11.900   8.560
56791SOL    HW272148   5.153  11.922   8.644
56792SOL     OW72149   9.082   3.083  12.914
56792SOL    HW172150   9.085   2.998  12.871
56792SOL    HW272151   9.174   3.105  12.929
56793SOL     OW72152   5.388   9.071  14.398
56793SOL    HW172153   5.407   9.095  14.488
56793SOL    HW272154   5.295   9.092  14.386
56794SOL     OW72155   3.542  10.066   3.007
56794SOL    HW172156   3.475  10.074   3.075
56794SOL    HW272157   3.493  10.042   2.929
56795SOL     OW72158   1.456   8.519   4.958
56795SOL    HW172159   1.424   8.604   4.987
56795SOL    HW272160   1.546   8.534   4.932
56796SOL     OW72161   1.361  13.246   1.950
56796SOL    HW172162   1.343  13.295   1.870
56796SOL    HW272163   1.452  13.218   1.942
56797SOL     OW72164  10.966   3.923   6.819
56797SOL    HW172165  11.015   3.932   6.901
56797SOL    HW272166  11.004   3.990   6.761
56798SOL     OW72167   9.430  12.577  13.231
56798SOL    HW172168   9.480  12.508  13.276
56798SOL    HW272169   9.424  12.647  13.296
56799SOL     OW72170   4.624  14.707  12.654
56799SOL    HW172171   4.663  14.696  12.567
56799SOL    HW272172   4.698  14.723  12.712
56800SOL     OW72173  10.057  11.089   9.401
56800SOL    HW172174  10.042  11.157   9.466
56800SOL    HW272175  10.072  11.136   9.319
56801SOL     OW72176   1.278  10.347   6.216
56801SOL    HW172177   1.233  10.276   6.262
56801SOL    HW272178   1.370  10.322   6.218
56802SOL     OW72179   9.242   9.598  12.481
56802SOL    HW172180   9.151   9.617  12.457
56802SOL    HW272181   9.288   9.680  12.467
56803SOL     OW72182  13.032   4.417  11.600
56803SOL    HW172183  13.023   4.358  11.525
56803SOL    HW272184  13.122   4.449  11.594
56804SOL     OW72185   8.948  12.592   5.514
56804SOL    HW172186   9.019  12.588   5.450
56804SOL    HW272187   8.927  12.685   5.521
56805SOL     OW72188  14.549   0.250   9.077
56805SOL    HW172189  14.632   0.274   9.117
56805SOL    HW272190  14.525   0.326   9.024
56806SOL     OW72191  11.417   6.927  11.036
56806SOL    HW172192  11.333   6.890  11.009
56806SOL    HW272193  11.436   6.885  11.120
56807SOL     OW72194  12.061   2.242   0.524
56807SOL    HW172195  12.026   2.162   0.562
56807SOL    HW272196  12.133   2.267   0.581
56808SOL     OW72197   2.477   2.704   6.658
56808SOL    HW172198   2.493   2.797   6.644
56808SOL    HW272199   2.409   2.702   6.725
56809SOL     OW72200   9.735   5.694   3.360
56809SOL    HW172201   9.679   5.623   3.330
56809SOL    HW272202   9.709   5.708   3.451
56810SOL     OW72203  14.611   4.800   2.219
56810SOL    HW172204  14.585   4.777   2.308
56810SOL    HW272205  14.693   4.752   2.205
56811SOL     OW72206   3.216  10.564  10.444
56811SOL    HW172207   3.255  10.494  10.497
56811SOL    HW272208   3.291  10.610  10.407
56812SOL     OW72209  11.335   8.988   2.521
56812SOL    HW172210  11.399   8.955   2.459
56812SOL    HW272211  11.319   8.915   2.580
56813SOL     OW72212   0.477   7.113   6.210
56813SOL    HW172213   0.567   7.083   6.228
56813SOL    HW272214   0.487   7.175   6.138
56814SOL     OW72215   7.584   0.619  12.016
56814SOL    HW172216   7.628   0.621  11.931
56814SOL    HW272217   7.543   0.705  12.024
56815SOL     OW72218  10.669  11.769  12.932
56815SOL    HW172219  10.646  11.687  12.975
56815SOL    HW272220  10.765  11.770  12.931
56816SOL     OW72221  10.629   0.328   1.831
56816SOL    HW172222  10.551   0.285   1.795
56816SOL    HW272223  10.645   0.281   1.913
56817SOL     OW72224   7.861  10.640   1.219
56817SOL    HW172225   7.918  10.644   1.296
56817SOL    HW272226   7.868  10.549   1.189
56818SOL     OW72227   3.157  11.793   4.312
56818SOL    HW172228   3.211  11.847   4.370
56818SOL    HW272229   3.069  11.830   4.321
56819SOL     OW72230  10.735  12.312   7.975
56819SOL    HW172231  10.814  12.335   8.024
56819SOL    HW272232  10.678  12.388   7.985
56820SOL     OW72233  12.299   0.153   9.602
56820SOL    HW172234  12.244   0.075   9.597
56820SOL    HW272235  12.375   0.126   9.654
56821SOL     OW72236  13.416   2.909   1.113
56821SOL    HW172237  13.411   2.944   1.202
56821SOL    HW272238  13.330   2.870   1.098
56822SOL     OW72239   5.393   4.938   1.971
56822SOL    HW172240   5.475   4.975   1.938
56822SOL    HW272241   5.325   4.995   1.935
56823SOL     OW72242  14.325   2.801   8.729
56823SOL    HW172243  14.274   2.855   8.669
56823SOL    HW272244  14.262   2.739   8.766
56824SOL     OW72245   6.479   7.048   3.651
56824SOL    HW172246   6.481   7.066   3.557
56824SOL    HW272247   6.386   7.035   3.671
56825SOL     OW72248   6.750   1.377   0.321
56825SOL    HW172249   6.827   1.431   0.303
56825SOL    HW272250   6.760   1.301   0.263
56826SOL     OW72251  11.275  13.250  13.955
56826SOL    HW172252  11.322  13.231  13.874
56826SOL    HW272253  11.193  13.201  13.948
56827SOL     OW72254   6.955  12.935  13.500
56827SOL    HW172255   7.000  12.872  13.444
56827SOL    HW272256   7.024  12.993  13.532
56828SOL     OW72257   5.845   3.331  12.053
56828SOL    HW172258   5.852   3.360  12.144
56828SOL    HW272259   5.932   3.346  12.016
56829SOL     OW72260   5.215   8.280   9.925
56829SOL    HW172261   5.283   8.257   9.862
56829SOL    HW272262   5.195   8.197   9.969
56830SOL     OW72263  12.787   5.063   3.965
56830SOL    HW172264  12.748   4.982   3.999
56830SOL    HW272265  12.789   5.052   3.870
56831SOL     OW72266  12.986   8.109   3.763
56831SOL    HW172267  13.011   8.128   3.673
56831SOL    HW272268  12.979   8.013   3.766
56832SOL     OW72269  12.988   8.400   8.017
56832SOL    HW172270  12.916   8.349   8.053
56832SOL    HW272271  13.048   8.334   7.982
56833SOL     OW72272   5.953  10.940   0.756
56833SOL    HW172273   5.901  10.883   0.698
56833SOL    HW272274   5.891  11.006   0.786
56834SOL     OW72275   3.427  12.703   1.314
56834SOL    HW172276   3.383  12.788   1.309
56834SOL    HW272277   3.520  12.724   1.315
56835SOL     OW72278  13.034   0.103   9.477
56835SOL    HW172279  12.956   0.056   9.506
56835SOL    HW272280  13.001   0.174   9.421
56836SOL     OW72281   0.983   0.827   7.655
56836SOL    HW172282   0.937   0.859   7.577
56836SOL    HW272283   1.066   0.875   7.655
56837SOL     OW72284  13.467  13.292  12.595
56837SOL    HW172285  13.451  13.198  12.594
56837SOL    HW272286  13.562  13.300  12.583
56838SOL     OW72287   2.352  12.726  12.658
56838SOL    HW172288   2.351  12.770  12.743
56838SOL    HW272289   2.260  12.723  12.632
56839SOL     OW72290  12.844   3.905   1.026
56839SOL    HW172291  12.795   3.823   1.023
56839SOL    HW272292  12.783   3.971   0.994
56840SOL     OW72293   1.419   9.469   7.562
56840SOL    HW172294   1.344   9.515   7.600
56840SOL    HW272295   1.454   9.418   7.635
56841SOL     OW72296   8.997   5.306   8.585
56841SOL    HW172297   8.910   5.346   8.581
56841SOL    HW272298   9.042   5.339   8.507
56842SOL     OW72299  13.183  13.037   3.124
56842SOL    HW172300  13.221  12.951   3.140
56842SOL    HW272301  13.231  13.097   3.181
56843SOL     OW72302   1.776   0.427  11.388
56843SOL    HW172303   1.844   0.425  11.320
56843SOL    HW272304   1.792   0.349  11.441
56844SOL     OW72305  12.281   4.399  12.297
56844SOL    HW172306  12.231   4.341  12.241
56844SOL    HW272307  12.345   4.342  12.341
56845SOL     OW72308   6.210   5.960  10.673
56845SOL    HW172309   6.260   5.899  10.728
56845SOL    HW272310   6.266   5.974  10.596
56846SOL     OW72311  11.979  13.064  10.227
56846SOL    HW172312  12.014  13.124  10.162
56846SOL    HW272313  11.988  12.977  10.188
56847SOL     OW72314  11.223  12.059   0.021
56847SOL    HW172315  11.319  12.050   0.026
56847SOL    HW272316  11.191  12.011   0.098
56848SOL     OW72317  10.040   2.849   7.966
56848SOL    HW172318  10.080   2.887   7.887
56848SOL    HW272319   9.947   2.840   7.943
56849SOL     OW72320   4.604   1.141   2.545
56849SOL    HW172321   4.623   1.194   2.467
56849SOL    HW272322   4.612   1.203   2.618
56850SOL     OW72323   3.254   7.021  10.334
56850SOL    HW172324   3.175   6.989  10.291
56850SOL    HW272325   3.221   7.077  10.404
56851SOL     OW72326  11.731   1.719   7.124
56851SOL    HW172327  11.702   1.799   7.168
56851SOL    HW272328  11.825   1.715   7.142
56852SOL     OW72329   1.300   0.475   6.695
56852SOL    HW172330   1.394   0.488   6.708
56852SOL    HW272331   1.290   0.463   6.600
56853SOL     OW72332   1.015   9.576   2.336
56853SOL    HW172333   1.077   9.571   2.409
56853SOL    HW272334   1.062   9.623   2.267
56854SOL     OW72335   3.374   0.394   6.924
56854SOL    HW172336   3.391   0.324   6.987
56854SOL    HW272337   3.281   0.412   6.934
56855SOL     OW72338  13.040   9.370  12.042
56855SOL    HW172339  13.113   9.408  12.091
56855SOL    HW272340  13.020   9.288  12.089
56856SOL     OW72341   7.569  13.998   6.022
56856SOL    HW172342   7.538  13.910   6.040
56856SOL    HW272343   7.606  14.028   6.105
56857SOL     OW72344   5.710  11.247   0.287
56857SOL    HW172345   5.715  11.250   0.382
56857SOL    HW272346   5.633  11.193   0.269
56858SOL     OW72347   7.510   7.741   9.580
56858SOL    HW172348   7.431   7.749   9.527
56858SOL    HW272349   7.505   7.652   9.616
56859SOL     OW72350  10.154   9.745   4.100
56859SOL    HW172351  10.062   9.720   4.114
56859SOL    HW272352  10.199   9.716   4.179
56860SOL     OW72353   1.184   6.489  11.790
56860SOL    HW172354   1.166   6.418  11.729
56860SOL    HW272355   1.160   6.454  11.876
56861SOL     OW72356   5.249   9.015   2.243
56861SOL    HW172357   5.267   8.924   2.220
56861SOL    HW272358   5.292   9.066   2.174
56862SOL     OW72359  14.666  12.338   8.393
56862SOL    HW172360  14.684  12.246   8.374
56862SOL    HW272361  14.670  12.343   8.489
56863SOL     OW72362   7.480  10.901   1.559
56863SOL    HW172363   7.501  10.981   1.511
56863SOL    HW272364   7.543  10.899   1.631
56864SOL     OW72365   3.888   7.936   3.540
56864SOL    HW172366   3.913   7.971   3.625
56864SOL    HW272367   3.864   7.845   3.557
56865SOL     OW72368  11.383   9.721   3.938
56865SOL    HW172369  11.290   9.703   3.953
56865SOL    HW272370  11.383   9.794   3.876
56866SOL     OW72371   4.749  13.671   7.159
56866SOL    HW172372   4.695  13.599   7.192
56866SOL    HW272373   4.755  13.655   7.065
56867SOL     OW72374  11.055  13.518   2.605
56867SOL    HW172375  11.006  13.590   2.645
56867SOL    HW272376  11.119  13.561   2.549
56868SOL     OW72377   8.104   6.960   0.404
56868SOL    HW172378   8.024   6.988   0.449
56868SOL    HW272379   8.174   7.004   0.453
56869SOL     OW72380   3.194   9.108   8.654
56869SOL    HW172381   3.110   9.066   8.635
56869SOL    HW272382   3.171   9.181   8.712
56870SOL     OW72383  11.647   9.458  11.568
56870SOL    HW172384  11.602   9.417  11.494
56870SOL    HW272385  11.610   9.546  11.573
56871SOL     OW72386   6.544   6.036  12.008
56871SOL    HW172387   6.572   5.948  12.032
56871SOL    HW272388   6.617   6.073  11.960
56872SOL     OW72389   2.388  12.789   2.681
56872SOL    HW172390   2.431  12.872   2.662
56872SOL    HW272391   2.349  12.762   2.597
56873SOL     OW72392   1.283   6.655  11.483
56873SOL    HW172393   1.256   6.731  11.536
56873SOL    HW272394   1.221   6.586  11.506
56874SOL     OW72395   4.694   0.039   4.750
56874SOL    HW172396   4.749  14.860   4.695
56874SOL    HW272397   4.647   0.095   4.688
56875SOL     OW72398   5.248   2.264   2.866
56875SOL    HW172399   5.209   2.240   2.782
56875SOL    HW272400   5.203   2.209   2.930
56876SOL     OW72401   7.570   0.124  13.215
56876SOL    HW172402   7.621   0.126  13.295
56876SOL    HW272403   7.489   0.078  13.239
56877SOL     OW72404   1.984  14.694   3.886
56877SOL    HW172405   2.064  14.652   3.917
56877SOL    HW272406   1.935  14.624   3.842
56878SOL     OW72407  10.569   1.441  13.785
56878SOL    HW172408  10.639   1.445  13.720
56878SOL    HW272409  10.488   1.443  13.733
56879SOL     OW72410  13.149  14.363  14.515
56879SOL    HW172411  13.112  14.277  14.537
56879SOL    HW272412  13.239  14.358  14.546
56880SOL     OW72413   7.801   2.489   8.562
56880SOL    HW172414   7.859   2.560   8.533
56880SOL    HW272415   7.754   2.464   8.483
56881SOL     OW72416   1.913   9.008  11.606
56881SOL    HW172417   1.824   9.034  11.630
56881SOL    HW272418   1.960   9.007  11.689
56882SOL     OW72419   1.960  14.822   3.596
56882SOL    HW172420   1.982  14.863   3.512
56882SOL    HW272421   1.929   0.016   3.651
56883SOL     OW72422   5.936   5.920  10.733
56883SOL    HW172423   6.024   5.956  10.728
56883SOL    HW272424   5.943   5.848  10.796
56884SOL     OW72425   1.251  12.881  10.047
56884SOL    HW172426   1.256  12.787  10.029
56884SOL    HW272427   1.192  12.916   9.981
56885SOL     OW72428   2.422   8.766   2.576
56885SOL    HW172429   2.476   8.689   2.559
56885SOL    HW272430   2.437   8.786   2.669
56886SOL     OW72431   0.652   3.613   0.206
56886SOL    HW172432   0.642   3.621   0.111
56886SOL    HW272433   0.700   3.531   0.218
56887SOL     OW72434   0.503   7.504   5.067
56887SOL    HW172435   0.445   7.516   4.992
56887SOL    HW272436   0.557   7.429   5.043
56888SOL     OW72437  13.452   2.784   4.939
56888SOL    HW172438  13.437   2.792   4.844
56888SOL    HW272439  13.496   2.700   4.949
56889SOL     OW72440  11.254   6.871  11.533
56889SOL    HW172441  11.210   6.791  11.561
56889SOL    HW272442  11.212   6.941  11.582
56890SOL     OW72443   1.254   4.033   7.981
56890SOL    HW172444   1.169   4.062   7.947
56890SOL    HW272445   1.253   3.938   7.969
56891SOL     OW72446  10.232  11.761  12.660
56891SOL    HW172447  10.222  11.666  12.670
56891SOL    HW272448  10.322  11.779  12.689
56892SOL     OW72449   6.771  14.130   9.029
56892SOL    HW172450   6.823  14.101   9.104
56892SOL    HW272451   6.692  14.169   9.068
56893SOL     OW72452  14.127   1.067  11.507
56893SOL    HW172453  14.128   1.149  11.556
56893SOL    HW272454  14.170   1.004  11.565
56894SOL     OW72455   1.139  14.548   8.381
56894SOL    HW172456   1.120  14.550   8.287
56894SOL    HW272457   1.140  14.455   8.404
56895SOL     OW72458   6.564  14.132  11.744
56895SOL    HW172459   6.610  14.135  11.660
56895SOL    HW272460   6.529  14.043  11.749
56896SOL     OW72461   3.337   1.110   0.915
56896SOL    HW172462   3.297   1.192   0.944
56896SOL    HW272463   3.308   1.045   0.979
56897SOL     OW72464   3.737  13.978  11.371
56897SOL    HW172465   3.822  13.935  11.358
56897SOL    HW272466   3.673  13.907  11.369
56898SOL     OW72467  10.092   7.311   2.901
56898SOL    HW172468  10.010   7.282   2.941
56898SOL    HW272469  10.140   7.352   2.973
56899SOL     OW72470  11.178   4.827   1.498
56899SOL    HW172471  11.231   4.828   1.577
56899SOL    HW272472  11.219   4.893   1.441
56900SOL     OW72473   5.904   5.179   8.104
56900SOL    HW172474   5.961   5.104   8.119
56900SOL    HW272475   5.848   5.153   8.031
56901SOL     OW72476   7.758   4.552   6.456
56901SOL    HW172477   7.770   4.592   6.542
56901SOL    HW272478   7.825   4.593   6.401
56902SOL     OW72479   4.474   2.320  12.545
56902SOL    HW172480   4.380   2.317  12.564
56902SOL    HW272481   4.483   2.393  12.483
56903SOL     OW72482  13.624  12.833  12.576
56903SOL    HW172483  13.572  12.866  12.649
56903SOL    HW272484  13.605  12.894  12.504
56904SOL     OW72485   6.561   5.067  10.426
56904SOL    HW172486   6.496   5.132  10.399
56904SOL    HW272487   6.535   5.043  10.515
56905SOL     OW72488   4.108   2.233  12.152
56905SOL    HW172489   4.017   2.206  12.146
56905SOL    HW272490   4.142   2.187  12.230
56906SOL     OW72491   6.189   9.342   8.601
56906SOL    HW172492   6.172   9.254   8.568
56906SOL    HW272493   6.246   9.382   8.535
56907SOL     OW72494  12.991  14.324   6.290
56907SOL    HW172495  13.072  14.274   6.303
56907SOL    HW272496  12.933  14.294   6.360
56908SOL     OW72497   9.207   5.653  14.303
56908SOL    HW172498   9.115   5.666  14.280
56908SOL    HW272499   9.221   5.559  14.295
56909SOL     OW72500   9.447   7.635   4.534
56909SOL    HW172501   9.460   7.595   4.448
56909SOL    HW272502   9.358   7.609   4.559
56910SOL     OW72503  12.618  13.703   2.287
56910SOL    HW172504  12.652  13.712   2.376
56910SOL    HW272505  12.542  13.646   2.296
56911SOL     OW72506  13.736   7.291   5.695
56911SOL    HW172507  13.751   7.313   5.787
56911SOL    HW272508  13.669   7.223   5.696
56912SOL     OW72509  12.882   5.851   5.238
56912SOL    HW172510  12.891   5.764   5.277
56912SOL    HW272511  12.855   5.833   5.147
56913SOL     OW72512   8.851   1.943   7.105
56913SOL    HW172513   8.916   1.875   7.087
56913SOL    HW272514   8.826   1.930   7.196
56914SOL     OW72515   0.014   9.685   2.737
56914SOL    HW172516  14.855   9.696   2.650
56914SOL    HW272517   0.054   9.770   2.756
56915SOL     OW72518   0.486  12.149   8.518
56915SOL    HW172519   0.577  12.168   8.496
56915SOL    HW272520   0.436  12.191   8.448
56916SOL     OW72521  14.543  10.911  12.282
56916SOL    HW172522  14.476  10.877  12.222
56916SOL    HW272523  14.619  10.928  12.225
56917SOL     OW72524  11.675  13.340  14.248
56917SOL    HW172525  11.725  13.307  14.172
56917SOL    HW272526  11.604  13.277  14.258
56918SOL     OW72527   8.159   6.803   5.605
56918SOL    HW172528   8.095   6.845   5.548
56918SOL    HW272529   8.236   6.790   5.549
56919SOL     OW72530  14.454  14.786  13.817
56919SOL    HW172531  14.448  14.735  13.899
56919SOL    HW272532  14.531  14.840  13.829
56920SOL     OW72533   2.133   1.844  13.650
56920SOL    HW172534   2.152   1.809  13.737
56920SOL    HW272535   2.199   1.805  13.593
56921SOL     OW72536  10.834   1.733  10.989
56921SOL    HW172537  10.824   1.703  10.899
56921SOL    HW272538  10.754   1.703  11.033
56922SOL     OW72539  13.933   9.269   8.595
56922SOL    HW172540  13.853   9.224   8.570
56922SOL    HW272541  13.920   9.293   8.687
56923SOL     OW72542   3.471   0.433   8.485
56923SOL    HW172543   3.494   0.517   8.444
56923SOL    HW272544   3.446   0.456   8.574
56924SOL     OW72545  13.128   1.217  14.706
56924SOL    HW172546  13.212   1.261  14.718
56924SOL    HW272547  13.142   1.129  14.741
56925SOL     OW72548   4.798   8.064   0.211
56925SOL    HW172549   4.773   8.155   0.224
56925SOL    HW272550   4.737   8.014   0.266
56926SOL     OW72551   5.788   0.490   8.528
56926SOL    HW172552   5.699   0.486   8.492
56926SOL    HW272553   5.844   0.505   8.451
56927SOL     OW72554  10.618   0.756   1.075
56927SOL    HW172555  10.643   0.706   0.997
56927SOL    HW272556  10.523   0.766   1.067
56928SOL     OW72557  14.509   3.180   5.576
56928SOL    HW172558  14.498   3.178   5.671
56928SOL    HW272559  14.586   3.235   5.561
56929SOL     OW72560   2.242   7.497   3.679
56929SOL    HW172561   2.203   7.516   3.594
56929SOL    HW272562   2.178   7.441   3.723
56930SOL     OW72563  10.207  12.569  11.107
56930SOL    HW172564  10.246  12.617  11.034
56930SOL    HW272565  10.140  12.514  11.066
56931SOL     OW72566   3.155  13.514   8.996
56931SOL    HW172567   3.124  13.427   9.021
56931SOL    HW272568   3.076  13.567   8.990
56932SOL     OW72569   2.485   6.068   5.939
56932SOL    HW172570   2.491   6.104   6.028
56932SOL    HW272571   2.558   6.109   5.892
56933SOL     OW72572   1.209  13.535   7.862
56933SOL    HW172573   1.274  13.532   7.933
56933SOL    HW272574   1.262  13.546   7.783
56934SOL     OW72575   1.272   5.265   4.257
56934SOL    HW172576   1.273   5.346   4.207
56934SOL    HW272577   1.225   5.287   4.337
56935SOL     OW72578   3.388  11.656   6.389
56935SOL    HW172579   3.481  11.642   6.402
56935SOL    HW272580   3.370  11.620   6.302
56936SOL     OW72581   0.193  12.474   9.631
56936SOL    HW172582   0.173  12.434   9.547
56936SOL    HW272583   0.148  12.559   9.629
56937SOL     OW72584  10.656   2.309   9.399
56937SOL    HW172585  10.609   2.378   9.353
56937SOL    HW272586  10.612   2.228   9.373
56938SOL     OW72587  11.878  14.550  14.004
56938SOL    HW172588  11.820  14.615  14.044
56938SOL    HW272589  11.922  14.597  13.933
56939SOL     OW72590  10.387   1.906   6.849
56939SOL    HW172591  10.374   1.827   6.901
56939SOL    HW272592  10.334   1.973   6.892
56940SOL     OW72593  12.094  11.136  13.418
56940SOL    HW172594  12.029  11.197  13.383
56940SOL    HW272595  12.065  11.050  13.388
56941SOL     OW72596   4.704   5.978  11.120
56941SOL    HW172597   4.780   5.943  11.073
56941SOL    HW272598   4.645   5.903  11.128
56942SOL     OW72599   9.986  13.884  13.607
56942SOL    HW172600   9.953  13.827  13.677
56942SOL    HW272601  10.073  13.910  13.637
56943SOL     OW72602   0.028  11.184   9.850
56943SOL    HW172603   0.113  11.141   9.848
56943SOL    HW272604   0.043  11.263   9.902
56944SOL     OW72605   7.307  14.872  12.508
56944SOL    HW172606   7.286  14.781  12.487
56944SOL    HW272607   7.392  14.868  12.551
56945SOL     OW72608  13.393   3.724  10.167
56945SOL    HW172609  13.379   3.813  10.200
56945SOL    HW272610  13.476   3.696  10.206
56946SOL     OW72611   9.938   6.338  12.224
56946SOL    HW172612  10.006   6.273  12.206
56946SOL    HW272613   9.918   6.375  12.138
56947SOL     OW72614   9.010   2.850   5.145
56947SOL    HW172615   9.072   2.864   5.216
56947SOL    HW272616   9.061   2.805   5.077
56948SOL     OW72617   1.777  11.212   7.825
56948SOL    HW172618   1.733  11.127   7.820
56948SOL    HW272619   1.787  11.228   7.919
56949SOL     OW72620   8.417   6.168   6.419
56949SOL    HW172621   8.356   6.198   6.486
56949SOL    HW272622   8.391   6.078   6.400
56950SOL     OW72623   2.340  14.092   3.034
56950SOL    HW172624   2.307  14.017   2.985
56950SOL    HW272625   2.317  14.168   2.980
56951SOL     OW72626   5.392   0.696   5.652
56951SOL    HW172627   5.437   0.748   5.719
56951SOL    HW272628   5.391   0.607   5.687
56952SOL     OW72629  12.525   3.030   2.425
56952SOL    HW172630  12.528   2.941   2.390
56952SOL    HW272631  12.500   3.019   2.517
56953SOL     OW72632   2.025   4.767   9.563
56953SOL    HW172633   2.082   4.784   9.488
56953SOL    HW272634   1.967   4.843   9.568
56954SOL     OW72635   7.121   6.654  13.731
56954SOL    HW172636   7.189   6.718  13.709
56954SOL    HW272637   7.138   6.630  13.822
56955SOL     OW72638   5.710   6.885  12.101
56955SOL    HW172639   5.724   6.813  12.163
56955SOL    HW272640   5.782   6.876  12.037
56956SOL     OW72641  13.995  11.108   7.645
56956SOL    HW172642  13.933  11.087   7.715
56956SOL    HW272643  13.946  11.166   7.586
56957SOL     OW72644   8.406   9.885   7.059
56957SOL    HW172645   8.480   9.869   7.000
56957SOL    HW272646   8.368   9.798   7.073
56958SOL     OW72647  12.729   0.805   7.196
56958SOL    HW172648  12.651   0.755   7.175
56958SOL    HW272649  12.794   0.777   7.132
56959SOL     OW72650   4.048  11.909   5.246
56959SOL    HW172651   4.016  11.942   5.162
56959SOL    HW272652   4.092  11.827   5.224
56960SOL     OW72653  13.695   4.486  13.782
56960SOL    HW172654  13.712   4.465  13.874
56960SOL    HW272655  13.649   4.409  13.748
56961SOL     OW72656   4.030   0.912   0.182
56961SOL    HW172657   4.111   0.938   0.138
56961SOL    HW272658   3.994   0.843   0.126
56962SOL     OW72659   6.972  10.090  14.785
56962SOL    HW172660   6.928  10.173  14.767
56962SOL    HW272661   6.916  10.046  14.850
56963SOL     OW72662  14.623  11.679   7.206
56963SOL    HW172663  14.533  11.708   7.222
56963SOL    HW272664  14.664  11.680   7.293
56964SOL     OW72665   5.762   1.404   6.605
56964SOL    HW172666   5.849   1.363   6.609
56964SOL    HW272667   5.777   1.483   6.553
56965SOL     OW72668  13.699   0.921  12.010
56965SOL    HW172669  13.701   0.863  12.086
56965SOL    HW272670  13.730   0.867  11.937
56966SOL     OW72671   1.538  13.065  14.773
56966SOL    HW172672   1.450  13.092  14.746
56966SOL    HW272673   1.529  12.972  14.793
56967SOL     OW72674  11.362  11.091   2.249
56967SOL    HW172675  11.278  11.108   2.207
56967SOL    HW272676  11.348  11.011   2.300
56968SOL     OW72677  13.281  13.124   8.554
56968SOL    HW172678  13.343  13.196   8.544
56968SOL    HW272679  13.196  13.162   8.531
56969SOL     OW72680  10.754   9.308   6.952
56969SOL    HW172681  10.780   9.247   7.021
56969SOL    HW272682  10.760   9.258   6.871
56970SOL     OW72683   1.916   6.039   8.977
56970SOL    HW172684   1.836   6.019   9.024
56970SOL    HW272685   1.978   6.067   9.045
56971SOL     OW72686   5.399  13.613   4.324
56971SOL    HW172687   5.410  13.547   4.256
56971SOL    HW272688   5.349  13.570   4.393
56972SOL     OW72689  11.633   3.702   7.072
56972SOL    HW172690  11.662   3.773   7.130
56972SOL    HW272691  11.544   3.725   7.048
56973SOL     OW72692  11.992   3.333   6.666
56973SOL    HW172693  11.991   3.315   6.760
56973SOL    HW272694  11.957   3.253   6.626
56974SOL     OW72695   3.051   5.029   2.655
56974SOL    HW172696   2.973   5.085   2.656
56974SOL    HW272697   3.111   5.070   2.717
56975SOL     OW72698   7.164   6.251   0.791
56975SOL    HW172699   7.095   6.293   0.739
56975SOL    HW272700   7.160   6.159   0.766
56976SOL     OW72701   2.000   6.565   4.973
56976SOL    HW172702   1.986   6.570   4.878
56976SOL    HW272703   1.941   6.633   5.009
56977SOL     OW72704   9.560   2.797  14.145
56977SOL    HW172705   9.464   2.790  14.148
56977SOL    HW272706   9.582   2.781  14.054
56978SOL     OW72707   0.327   4.665  14.794
56978SOL    HW172708   0.369   4.604  14.854
56978SOL    HW272709   0.250   4.617  14.761
56979SOL     OW72710   8.174  14.320  14.245
56979SOL    HW172711   8.253  14.287  14.288
56979SOL    HW272712   8.156  14.403  14.289
56980SOL     OW72713  14.505   9.823   5.846
56980SOL    HW172714  14.578   9.873   5.882
56980SOL    HW272715  14.545   9.745   5.808
56981SOL     OW72716   0.971   7.790  12.577
56981SOL    HW172717   0.912   7.724  12.613
56981SOL    HW272718   0.927   7.873  12.593
56982SOL     OW72719  12.575  10.726   5.735
56982SOL    HW172720  12.484  10.705   5.716
56982SOL    HW272721  12.615  10.642   5.758
56983SOL     OW72722   8.459   0.167  13.165
56983SOL    HW172723   8.502   0.173  13.080
56983SOL    HW272724   8.513   0.221  13.223
56984SOL     OW72725   5.325   1.724   8.265
56984SOL    HW172726   5.301   1.786   8.197
56984SOL    HW272727   5.306   1.770   8.347
56985SOL     OW72728   5.712  10.007   0.577
56985SOL    HW172729   5.657   9.940   0.617
56985SOL    HW272730   5.735   9.970   0.491
56986SOL     OW72731   7.689  14.868   7.749
56986SOL    HW172732   7.625  14.796   7.745
56986SOL    HW272733   7.636   0.070   7.743
56987SOL     OW72734   4.092   0.912  13.370
56987SOL    HW172735   4.164   0.915  13.434
56987SOL    HW272736   4.130   0.948  13.290
56988SOL     OW72737   7.602   7.392  12.865
56988SOL    HW172738   7.573   7.322  12.807
56988SOL    HW272739   7.522   7.429  12.901
56989SOL     OW72740   0.091   5.790  10.259
56989SOL    HW172741   0.129   5.873  10.231
56989SOL    HW272742   0.016   5.815  10.313
56990SOL     OW72743  11.416   6.134   7.033
56990SOL    HW172744  11.404   6.172   7.120
56990SOL    HW272745  11.378   6.198   6.973
56991SOL     OW72746  13.999   0.700   3.178
56991SOL    HW172747  13.990   0.756   3.101
56991SOL    HW272748  13.966   0.615   3.149
56992SOL     OW72749   2.114   2.872   7.213
56992SOL    HW172750   2.049   2.902   7.275
56992SOL    HW272751   2.080   2.897   7.127
56993SOL     OW72752  12.304   1.479  10.910
56993SOL    HW172753  12.229   1.423  10.928
56993SOL    HW272754  12.272   1.568  10.926
56994SOL     OW72755   8.389  14.875   8.901
56994SOL    HW172756   8.298   0.027   8.904
56994SOL    HW272757   8.421   0.029   8.816
56995SOL     OW72758   7.407   5.601   0.477
56995SOL    HW172759   7.438   5.530   0.532
56995SOL    HW272760   7.370   5.558   0.400
56996SOL     OW72761  13.826  14.640   4.449
56996SOL    HW172762  13.873  14.572   4.498
56996SOL    HW272763  13.885  14.715   4.450
56997SOL     OW72764   1.221   2.889   4.224
56997SOL    HW172765   1.294   2.924   4.174
56997SOL    HW272766   1.256   2.811   4.267
56998SOL     OW72767   3.330   9.747   7.105
56998SOL    HW172768   3.393   9.724   7.173
56998SOL    HW272769   3.342   9.842   7.093
56999SOL     OW72770   7.392   6.463   9.385
56999SOL    HW172771   7.306   6.504   9.373
56999SOL    HW272772   7.454   6.526   9.349
57000SOL     OW72773   5.148  13.489   9.921
57000SOL    HW172774   5.105  13.410   9.888
57000SOL    HW272775   5.173  13.537   9.842
57001SOL     OW72776   4.439   9.976   9.485
57001SOL    HW172777   4.530   9.998   9.466
57001SOL    HW272778   4.418   9.907   9.422
57002SOL     OW72779  11.315   5.754  11.760
57002SOL    HW172780  11.397   5.748  11.809
57002SOL    HW272781  11.332   5.708  11.678
57003SOL     OW72782   2.496   3.910   7.297
57003SOL    HW172783   2.459   3.830   7.335
57003SOL    HW272784   2.591   3.901   7.311
57004SOL     OW72785   0.691   7.468   4.576
57004SOL    HW172786   0.715   7.457   4.484
57004SOL    HW272787   0.774   7.457   4.624
57005SOL     OW72788   0.220  13.965   3.171
57005SOL    HW172789   0.152  13.928   3.115
57005SOL    HW272790   0.248  13.892   3.226
57006SOL     OW72791   2.054   7.769  13.523
57006SOL    HW172792   2.123   7.703  13.518
57006SOL    HW272793   1.973   7.720  13.517
57007SOL     OW72794   9.015   3.152   9.179
57007SOL    HW172795   9.105   3.126   9.199
57007SOL    HW272796   9.014   3.247   9.188
57008SOL     OW72797   7.143   5.910   8.931
57008SOL    HW172798   7.062   5.892   8.883
57008SOL    HW272799   7.166   5.827   8.972
57009SOL     OW72800   4.616  12.244   3.562
57009SOL    HW172801   4.630  12.164   3.512
57009SOL    HW272802   4.703  12.275   3.585
57010SOL     OW72803   7.825   3.081   8.471
57010SOL    HW172804   7.780   3.068   8.554
57010SOL    HW272805   7.768   3.138   8.420
57011SOL     OW72806  13.382   3.968  10.351
57011SOL    HW172807  13.398   4.062  10.341
57011SOL    HW272808  13.287   3.961  10.363
57012SOL     OW72809   3.438   2.639   6.887
57012SOL    HW172810   3.473   2.684   6.809
57012SOL    HW272811   3.422   2.550   6.858
57013SOL     OW72812   2.710   1.044   0.800
57013SOL    HW172813   2.789   1.045   0.746
57013SOL    HW272814   2.735   0.997   0.879
57014SOL     OW72815   4.134   2.091   4.637
57014SOL    HW172816   4.084   2.157   4.589
57014SOL    HW272817   4.214   2.080   4.586
57015SOL     OW72818  13.212   0.491   1.921
57015SOL    HW172819  13.254   0.525   2.000
57015SOL    HW272820  13.118   0.498   1.938
57016SOL     OW72821   6.952  13.806   1.148
57016SOL    HW172822   6.880  13.742   1.149
57016SOL    HW272823   7.018  13.768   1.206
57017SOL     OW72824   9.705   0.825   0.762
57017SOL    HW172825   9.613   0.828   0.789
57017SOL    HW272826   9.715   0.739   0.722
57018SOL     OW72827   5.940  11.359   8.535
57018SOL    HW172828   5.912  11.429   8.594
57018SOL    HW272829   5.967  11.288   8.593
57019SOL     OW72830   0.259   6.102   7.114
57019SOL    HW172831   0.307   6.054   7.181
57019SOL    HW272832   0.238   6.186   7.154
57020SOL     OW72833  11.153   3.713   6.526
57020SOL    HW172834  11.195   3.633   6.558
57020SOL    HW272835  11.150   3.702   6.431
57021SOL     OW72836   0.470   8.187   1.947
57021SOL    HW172837   0.400   8.227   1.895
57021SOL    HW272838   0.500   8.258   2.004
57022SOL     OW72839  14.274  10.955  14.262
57022SOL    HW172840  14.321  10.886  14.216
57022SOL    HW272841  14.297  10.943  14.355
57023SOL     OW72842   1.556   0.349   4.954
57023SOL    HW172843   1.599   0.357   4.869
57023SOL    HW272844   1.625   0.372   5.017
57024SOL     OW72845   8.815   3.886   3.480
57024SOL    HW172846   8.864   3.902   3.399
57024SOL    HW272847   8.797   3.792   3.480
57025SOL     OW72848  10.192  12.145   2.019
57025SOL    HW172849  10.249  12.177   2.089
57025SOL    HW272850  10.146  12.070   2.058
57026SOL     OW72851  12.957   3.557   9.307
57026SOL    HW172852  12.915   3.477   9.277
57026SOL    HW272853  12.907   3.583   9.385
57027SOL     OW72854   3.401  14.375   3.305
57027SOL    HW172855   3.396  14.429   3.383
57027SOL    HW272856   3.331  14.311   3.315
57028SOL     OW72857  12.819   7.116  11.476
57028SOL    HW172858  12.862   7.037  11.444
57028SOL    HW272859  12.725   7.094  11.474
57029SOL     OW72860  12.844   2.823   6.788
57029SOL    HW172861  12.867   2.795   6.700
57029SOL    HW272862  12.898   2.767   6.845
57030SOL     OW72863   9.885   9.630  14.160
57030SOL    HW172864   9.908   9.557  14.218
57030SOL    HW272865   9.791   9.642  14.174
57031SOL     OW72866   2.850   8.250   6.703
57031SOL    HW172867   2.821   8.165   6.735
57031SOL    HW272868   2.937   8.263   6.743
57032SOL     OW72869   1.105   4.111  12.672
57032SOL    HW172870   1.052   4.177  12.718
57032SOL    HW272871   1.047   4.076  12.605
57033SOL     OW72872   6.192   8.949  11.783
57033SOL    HW172873   6.144   8.966  11.865
57033SOL    HW272874   6.132   8.979  11.714
57034SOL     OW72875  10.277  12.440   9.397
57034SOL    HW172876  10.282  12.534   9.416
57034SOL    HW272877  10.194  12.429   9.351
57035SOL     OW72878  14.206  11.268  11.730
57035SOL    HW172879  14.123  11.282  11.774
57035SOL    HW272880  14.238  11.356  11.709
57036SOL     OW72881   6.448  11.868   3.588
57036SOL    HW172882   6.465  11.798   3.525
57036SOL    HW272883   6.353  11.867   3.601
57037SOL     OW72884  14.130   8.713   3.729
57037SOL    HW172885  14.183   8.633   3.723
57037SOL    HW272886  14.057   8.698   3.669
57038SOL     OW72887  10.286   1.714   4.074
57038SOL    HW172888  10.325   1.793   4.112
57038SOL    HW272889  10.304   1.721   3.980
57039SOL     OW72890   0.279   5.745  14.090
57039SOL    HW172891   0.364   5.702  14.103
57039SOL    HW272892   0.295   5.836  14.114
57040SOL     OW72893   2.540   3.126  11.621
57040SOL    HW172894   2.594   3.114  11.543
57040SOL    HW272895   2.513   3.037  11.645
57041SOL     OW72896   1.709   4.096  10.975
57041SOL    HW172897   1.679   4.008  10.998
57041SOL    HW272898   1.629   4.146  10.960
57042SOL     OW72899   2.211   6.032   5.957
57042SOL    HW172900   2.209   5.956   6.015
57042SOL    HW272901   2.303   6.040   5.931
57043SOL     OW72902   9.024  11.315  11.449
57043SOL    HW172903   9.113  11.292  11.478
57043SOL    HW272904   8.966  11.269  11.510
57044SOL     OW72905   1.513  11.021  13.029
57044SOL    HW172906   1.547  10.937  13.061
57044SOL    HW272907   1.418  11.012  13.034
57045SOL     OW72908  12.775   3.135   3.444
57045SOL    HW172909  12.772   3.055   3.497
57045SOL    HW272910  12.836   3.114   3.373
57046SOL     OW72911   0.932   7.405  10.721
57046SOL    HW172912   0.999   7.400  10.652
57046SOL    HW272913   0.981   7.396  10.803
57047SOL     OW72914   6.382  11.277   9.444
57047SOL    HW172915   6.429  11.206   9.399
57047SOL    HW272916   6.296  11.278   9.402
57048SOL     OW72917  13.070   1.991   4.248
57048SOL    HW172918  13.161   2.019   4.261
57048SOL    HW272919  13.074   1.895   4.255
57049SOL     OW72920  13.420   5.911  14.231
57049SOL    HW172921  13.408   5.987  14.288
57049SOL    HW272922  13.374   5.840  14.276
57050SOL     OW72923   6.784   9.196  12.749
57050SOL    HW172924   6.812   9.104  12.746
57050SOL    HW272925   6.764   9.211  12.841
57051SOL     OW72926   1.866   9.734  12.882
57051SOL    HW172927   1.784   9.708  12.842
57051SOL    HW272928   1.855   9.715  12.975
57052SOL     OW72929   4.699   3.775   0.573
57052SOL    HW172930   4.667   3.736   0.654
57052SOL    HW272931   4.749   3.851   0.601
57053SOL     OW72932   4.974  12.980   2.097
57053SOL    HW172933   4.937  13.064   2.125
57053SOL    HW272934   5.064  12.981   2.130
57054SOL     OW72935  13.995  12.799  12.023
57054SOL    HW172936  13.981  12.729  11.959
57054SOL    HW272937  13.932  12.781  12.093
57055SOL     OW72938  13.118   4.920   7.905
57055SOL    HW172939  13.192   4.859   7.905
57055SOL    HW272940  13.056   4.881   7.844
57056SOL     OW72941   9.926   3.818   5.402
57056SOL    HW172942  10.007   3.812   5.351
57056SOL    HW272943   9.936   3.753   5.471
57057SOL     OW72944   6.346   8.979  11.089
57057SOL    HW172945   6.320   9.007  11.001
57057SOL    HW272946   6.397   9.053  11.123
57058SOL     OW72947   5.962   3.438  14.383
57058SOL    HW172948   5.905   3.448  14.459
57058SOL    HW272949   6.033   3.382  14.413
57059SOL     OW72950   3.723   7.169   5.316
57059SOL    HW172951   3.678   7.206   5.240
57059SOL    HW272952   3.719   7.238   5.382
57060SOL     OW72953   9.849   7.140  13.003
57060SOL    HW172954   9.896   7.075  13.054
57060SOL    HW272955   9.763   7.101  12.986
57061SOL     OW72956  12.155   3.390  14.438
57061SOL    HW172957  12.171   3.306  14.396
57061SOL    HW272958  12.237   3.438  14.428
57062SOL     OW72959   3.384   6.061   8.164
57062SOL    HW172960   3.298   6.059   8.206
57062SOL    HW272961   3.390   5.977   8.118
57063SOL     OW72962   0.640  13.708  13.091
57063SOL    HW172963   0.677  13.754  13.166
57063SOL    HW272964   0.697  13.733  13.018
57064SOL     OW72965   0.330  11.481   1.203
57064SOL    HW172966   0.380  11.491   1.283
57064SOL    HW272967   0.346  11.562   1.154
57065SOL     OW72968   2.950   3.870   1.400
57065SOL    HW172969   3.000   3.952   1.397
57065SOL    HW272970   3.003   3.812   1.455
57066SOL     OW72971  14.097   7.463  13.780
57066SOL    HW172972  14.088   7.405  13.856
57066SOL    HW272973  14.042   7.538  13.801
57067SOL     OW72974  10.559   8.115  13.915
57067SOL    HW172975  10.560   8.112  13.820
57067SOL    HW272976  10.648   8.093  13.942
57068SOL     OW72977  11.132   4.884   3.871
57068SOL    HW172978  11.139   4.911   3.779
57068SOL    HW272979  11.197   4.814   3.880
57069SOL     OW72980   9.237   0.021  14.344
57069SOL    HW172981   9.238  14.836  14.272
57069SOL    HW272982   9.167  14.868  14.402
57070SOL     OW72983  10.815   2.529   9.121
57070SOL    HW172984  10.725   2.495   9.119
57070SOL    HW272985  10.805   2.622   9.100
57071SOL     OW72986   5.756  10.043  13.659
57071SOL    HW172987   5.694   9.973  13.638
57071SOL    HW272988   5.830   9.997  13.699
57072SOL     OW72989   1.573  10.892   6.250
57072SOL    HW172990   1.547  10.902   6.159
57072SOL    HW272991   1.648  10.950   6.261
57073SOL     OW72992   2.367   4.961   5.794
57073SOL    HW172993   2.297   5.021   5.770
57073SOL    HW272994   2.397   4.992   5.879
57074SOL     OW72995   6.602  14.296   2.430
57074SOL    HW172996   6.660  14.338   2.494
57074SOL    HW272997   6.520  14.284   2.476
57075SOL     OW72998   0.357   2.243   1.234
57075SOL    HW172999   0.275   2.291   1.248
57075SOL    HW273000   0.329   2.154   1.214
57076SOL     OW73001  11.106   9.455   9.659
57076SOL    HW173002  11.051   9.470   9.582
57076SOL    HW273003  11.054   9.486   9.732
57077SOL     OW73004   4.777   7.775   0.162
57077SOL    HW173005   4.822   7.717   0.101
57077SOL    HW273006   4.724   7.832   0.107
57078SOL     OW73007   6.906  10.987   5.642
57078SOL    HW173008   6.912  11.051   5.713
57078SOL    HW273009   6.843  10.923   5.673
57079SOL     OW73010   3.198   0.997  10.853
57079SOL    HW173011   3.218   1.007  10.946
57079SOL    HW273012   3.274   0.951  10.817
57080SOL     OW73013  10.385   3.295   6.151
57080SOL    HW173014  10.369   3.380   6.194
57080SOL    HW273015  10.386   3.316   6.058
57081SOL     OW73016   6.430   9.818   7.343
57081SOL    HW173017   6.350   9.857   7.307
57081SOL    HW273018   6.430   9.843   7.435
57082SOL     OW73019   9.804   8.738   2.930
57082SOL    HW173020   9.765   8.807   2.984
57082SOL    HW273021   9.792   8.768   2.840
57083SOL     OW73022  11.222   8.202   9.386
57083SOL    HW173023  11.156   8.267   9.409
57083SOL    HW273024  11.264   8.237   9.308
57084SOL     OW73025   1.714  12.515  13.425
57084SOL    HW173026   1.705  12.440  13.484
57084SOL    HW273027   1.692  12.480  13.339
57085SOL     OW73028  11.209  10.737   3.680
57085SOL    HW173029  11.125  10.784   3.681
57085SOL    HW273030  11.252  10.765   3.761
57086SOL     OW73031   0.788  14.064  13.899
57086SOL    HW173032   0.762  14.137  13.843
57086SOL    HW273033   0.720  13.998  13.885
57087SOL     OW73034  12.155  11.184   5.624
57087SOL    HW173035  12.236  11.159   5.668
57087SOL    HW273036  12.143  11.119   5.555
57088SOL     OW73037  10.686  11.574   0.331
57088SOL    HW173038  10.643  11.528   0.403
57088SOL    HW273039  10.780  11.565   0.350
57089SOL     OW73040   2.996   8.015   2.454
57089SOL    HW173041   3.087   8.037   2.433
57089SOL    HW273042   2.961   7.976   2.374
57090SOL     OW73043  14.135   5.570  14.255
57090SOL    HW173044  14.229   5.586  14.249
57090SOL    HW273045  14.096   5.630  14.193
57091SOL     OW73046   9.583   4.406   3.953
57091SOL    HW173047   9.538   4.412   3.868
57091SOL    HW273048   9.514   4.425   4.017
57092SOL     OW73049  12.108   3.592   4.720
57092SOL    HW173050  12.056   3.511   4.727
57092SOL    HW273051  12.051   3.652   4.672
57093SOL     OW73052  13.468  12.488  12.093
57093SOL    HW173053  13.517  12.407  12.078
57093SOL    HW273054  13.465  12.497  12.188
57094SOL     OW73055   2.894   6.433  14.001
57094SOL    HW173056   2.878   6.528  13.996
57094SOL    HW273057   2.950   6.414  13.925
57095SOL     OW73058   4.980   5.978  12.109
57095SOL    HW173059   5.014   6.050  12.055
57095SOL    HW273060   5.007   6.001  12.198
57096SOL     OW73061  10.605  11.593  14.293
57096SOL    HW173062  10.607  11.649  14.371
57096SOL    HW273063  10.664  11.637  14.231
57097SOL     OW73064   1.897  10.175   7.382
57097SOL    HW173065   1.923  10.135   7.299
57097SOL    HW273066   1.845  10.252   7.357
57098SOL     OW73067   0.600   2.789   7.308
57098SOL    HW173068   0.563   2.733   7.239
57098SOL    HW273069   0.686   2.751   7.325
57099SOL     OW73070  12.375  14.598   7.430
57099SOL    HW173071  12.356  14.514   7.388
57099SOL    HW273072  12.442  14.638   7.374
57100SOL     OW73073   4.153   4.325   9.008
57100SOL    HW173074   4.077   4.272   9.033
57100SOL    HW273075   4.168   4.383   9.083
57101SOL     OW73076  10.047  11.060  12.193
57101SOL    HW173077  10.102  11.111  12.252
57101SOL    HW273078  10.091  10.975  12.188
57102SOL     OW73079  10.981  12.141  12.845
57102SOL    HW173080  11.053  12.196  12.877
57102SOL    HW273081  11.025  12.063  12.810
57103SOL     OW73082   7.489   0.625  14.153
57103SOL    HW173083   7.487   0.721  14.147
57103SOL    HW273084   7.544   0.608  14.229
57104SOL     OW73085   6.347   0.504   4.872
57104SOL    HW173086   6.413   0.503   4.941
57104SOL    HW273087   6.279   0.443   4.902
57105SOL     OW73088  11.046   9.011  14.714
57105SOL    HW173089  10.954   9.020  14.740
57105SOL    HW273090  11.071   8.924  14.747
57106SOL     OW73091   4.783   6.592   5.634
57106SOL    HW173092   4.770   6.542   5.715
57106SOL    HW273093   4.697   6.591   5.592
57107SOL     OW73094  10.000  13.701   0.824
57107SOL    HW173095   9.917  13.654   0.825
57107SOL    HW273096  10.032  13.694   0.914
57108SOL     OW73097  13.309   4.805   6.587
57108SOL    HW173098  13.244   4.854   6.638
57108SOL    HW273099  13.338   4.736   6.645
57109SOL     OW73100   3.153   5.650   2.638
57109SOL    HW173101   3.138   5.656   2.544
57109SOL    HW273102   3.167   5.556   2.654
57110SOL     OW73103   2.639   7.788   8.686
57110SOL    HW173104   2.715   7.842   8.707
57110SOL    HW273105   2.675   7.717   8.633
57111SOL     OW73106  12.927  11.091  12.953
57111SOL    HW173107  12.924  11.039  13.033
57111SOL    HW273108  12.849  11.065  12.904
57112SOL     OW73109   3.105  14.764   3.904
57112SOL    HW173110   3.081  14.801   3.989
57112SOL    HW273111   3.168  14.827   3.867
57113SOL     OW73112   9.784   4.670  10.345
57113SOL    HW173113   9.785   4.714  10.430
57113SOL    HW273114   9.870   4.689  10.307
57114SOL     OW73115   5.918  13.171   2.990
57114SOL    HW173116   5.841  13.120   2.966
57114SOL    HW273117   5.895  13.212   3.073
57115SOL     OW73118  10.194   2.717   2.073
57115SOL    HW173119  10.173   2.779   2.003
57115SOL    HW273120  10.204   2.633   2.029
57116SOL     OW73121   7.312   7.227  11.345
57116SOL    HW173122   7.388   7.284  11.332
57116SOL    HW273123   7.255   7.248  11.271
57117SOL     OW73124  13.334  13.456   7.009
57117SOL    HW173125  13.274  13.530   7.000
57117SOL    HW273126  13.384  13.475   7.088
57118SOL     OW73127   2.146  14.846   0.414
57118SOL    HW173128   2.187   0.052   0.435
57118SOL    HW273129   2.145  14.797   0.496
57119SOL     OW73130   8.602   3.468  13.008
57119SOL    HW173131   8.554   3.531  12.955
57119SOL    HW273132   8.692   3.471  12.974
57120SOL     OW73133   7.531   9.395   6.344
57120SOL    HW173134   7.480   9.316   6.327
57120SOL    HW273135   7.549   9.430   6.257
57121SOL     OW73136   0.368  12.132   0.795
57121SOL    HW173137   0.341  12.159   0.882
57121SOL    HW273138   0.384  12.214   0.748
57122SOL     OW73139   8.857   9.242  14.609
57122SOL    HW173140   8.844   9.210  14.520
57122SOL    HW273141   8.848   9.337  14.602
57123SOL     OW73142  13.419   8.734   0.571
57123SOL    HW173143  13.334   8.693   0.585
57123SOL    HW273144  13.407   8.788   0.493
57124SOL     OW73145   8.211   7.059   5.313
57124SOL    HW173146   8.229   7.063   5.407
57124SOL    HW273147   8.221   6.967   5.291
57125SOL     OW73148   1.012  12.297   7.964
57125SOL    HW173149   1.083  12.234   7.953
57125SOL    HW273150   1.036  12.372   7.910
57126SOL     OW73151   5.574  10.186   3.279
57126SOL    HW173152   5.573  10.156   3.370
57126SOL    HW273153   5.559  10.280   3.284
57127SOL     OW73154  13.063  10.888   6.762
57127SOL    HW173155  13.010  10.823   6.808
57127SOL    HW273156  13.001  10.958   6.741
57128SOL     OW73157  13.137   7.412  14.696
57128SOL    HW173158  13.213   7.359  14.717
57128SOL    HW273159  13.159   7.500  14.728
57129SOL     OW73160   0.285  13.062   5.542
57129SOL    HW173161   0.299  13.156   5.538
57129SOL    HW273162   0.199  13.052   5.583
57130SOL     OW73163   0.609   5.997  13.544
57130SOL    HW173164   0.683   5.936  13.536
57130SOL    HW273165   0.532   5.941  13.544
57131SOL     OW73166   7.324  11.396  10.532
57131SOL    HW173167   7.259  11.328  10.517
57131SOL    HW273168   7.368  11.371  10.613
57132SOL     OW73169  10.434  10.658   0.361
57132SOL    HW173170  10.503  10.594   0.343
57132SOL    HW273171  10.374  10.613   0.420
57133SOL     OW73172  10.104   5.564  11.339
57133SOL    HW173173  10.187   5.543  11.297
57133SOL    HW273174  10.127   5.629  11.406
57134SOL     OW73175   8.055   0.180   3.468
57134SOL    HW173176   8.064   0.220   3.554
57134SOL    HW273177   8.078   0.250   3.407
57135SOL     OW73178   8.186   0.158   6.707
57135SOL    HW173179   8.227   0.244   6.698
57135SOL    HW273180   8.224   0.105   6.636
57136SOL     OW73181   1.880   9.221   5.191
57136SOL    HW173182   1.932   9.150   5.228
57136SOL    HW273183   1.918   9.300   5.230
57137SOL     OW73184   1.517   1.596  11.098
57137SOL    HW173185   1.531   1.506  11.069
57137SOL    HW273186   1.509   1.590  11.193
57138SOL     OW73187  13.812   3.878   0.593
57138SOL    HW173188  13.749   3.806   0.597
57138SOL    HW273189  13.860   3.862   0.512
57139SOL     OW73190   9.813   7.507   5.149
57139SOL    HW173191   9.745   7.508   5.082
57139SOL    HW273192   9.815   7.597   5.182
57140SOL     OW73193   5.892  13.544  10.274
57140SOL    HW173194   5.815  13.508  10.318
57140SOL    HW273195   5.939  13.468  10.241
57141SOL     OW73196   2.875   5.198   1.794
57141SOL    HW173197   2.873   5.158   1.707
57141SOL    HW273198   2.905   5.128   1.852
57142SOL     OW73199   5.362   5.787  11.320
57142SOL    HW173200   5.295   5.810  11.385
57142SOL    HW273201   5.380   5.869  11.274
57143SOL     OW73202   1.692  11.631  12.384
57143SOL    HW173203   1.714  11.614  12.292
57143SOL    HW273204   1.639  11.556  12.410
57144SOL     OW73205  10.795   4.612   2.947
57144SOL    HW173206  10.834   4.671   3.011
57144SOL    HW273207  10.853   4.536   2.947
57145SOL     OW73208  11.017  11.852  10.406
57145SOL    HW173209  10.926  11.847  10.379
57145SOL    HW273210  11.016  11.829  10.499
57146SOL     OW73211   5.276  13.708   9.176
57146SOL    HW173212   5.368  13.726   9.195
57146SOL    HW273213   5.239  13.793   9.151
57147SOL     OW73214   2.519   9.913  12.326
57147SOL    HW173215   2.510   9.818  12.312
57147SOL    HW273216   2.436   9.939  12.366
57148SOL     OW73217   1.978   4.753   2.107
57148SOL    HW173218   2.007   4.840   2.078
57148SOL    HW273219   1.999   4.750   2.200
57149SOL     OW73220   5.173  10.258   3.539
57149SOL    HW173221   5.193  10.177   3.494
57149SOL    HW273222   5.157  10.232   3.630
57150SOL     OW73223  12.640  10.416   5.112
57150SOL    HW173224  12.553  10.378   5.107
57150SOL    HW273225  12.699  10.341   5.115
57151SOL     OW73226   3.443   3.413   7.629
57151SOL    HW173227   3.460   3.365   7.548
57151SOL    HW273228   3.356   3.450   7.616
57152SOL     OW73229  14.766   7.519  10.317
57152SOL    HW173230  14.716   7.443  10.286
57152SOL    HW273231  14.703   7.591  10.316
57153SOL     OW73232  10.302  14.598   3.564
57153SOL    HW173233  10.226  14.548   3.593
57153SOL    HW273234  10.333  14.642   3.643
57154SOL     OW73235   1.202  12.232  11.280
57154SOL    HW173236   1.177  12.255  11.370
57154SOL    HW273237   1.152  12.292  11.225
57155SOL     OW73238   3.104   5.835   9.030
57155SOL    HW173239   3.153   5.855   9.109
57155SOL    HW273240   3.050   5.759   9.053
57156SOL     OW73241   6.822  13.652   9.179
57156SOL    HW173242   6.834  13.696   9.263
57156SOL    HW273243   6.882  13.696   9.119
57157SOL     OW73244  10.570  13.779   8.999
57157SOL    HW173245  10.586  13.726   9.077
57157SOL    HW273246  10.655  13.781   8.954
57158SOL     OW73247  13.489   1.524  11.967
57158SOL    HW173248  13.503   1.578  12.044
57158SOL    HW273249  13.536   1.570  11.897
57159SOL     OW73250  11.942   9.823   3.018
57159SOL    HW173251  11.982   9.798   3.102
57159SOL    HW273252  11.852   9.845   3.040
57160SOL     OW73253  13.800  14.778   9.599
57160SOL    HW173254  13.796  14.794   9.694
57160SOL    HW273255  13.787  14.683   9.591
57161SOL     OW73256   2.935   2.361   1.836
57161SOL    HW173257   2.915   2.410   1.756
57161SOL    HW273258   2.852   2.324   1.864
57162SOL     OW73259   0.410   2.789  11.979
57162SOL    HW173260   0.320   2.768  11.956
57162SOL    HW273261   0.405   2.821  12.069
57163SOL     OW73262  11.140   3.092  10.978
57163SOL    HW173263  11.164   3.179  10.946
57163SOL    HW273264  11.202   3.075  11.049
57164SOL     OW73265  14.683   0.558   3.694
57164SOL    HW173266  14.778   0.564   3.688
57164SOL    HW273267  14.654   0.646   3.717
57165SOL     OW73268   0.692   2.961   3.171
57165SOL    HW173269   0.688   2.973   3.076
57165SOL    HW273270   0.689   3.050   3.207
57166SOL     OW73271   4.477   2.514  14.212
57166SOL    HW173272   4.487   2.578  14.282
57166SOL    HW273273   4.517   2.554  14.135
57167SOL     OW73274   3.400   4.753   7.324
57167SOL    HW173275   3.495   4.744   7.336
57167SOL    HW273276   3.362   4.725   7.407
57168SOL     OW73277   4.735   1.007   6.352
57168SOL    HW173278   4.734   1.053   6.268
57168SOL    HW273279   4.669   0.938   6.343
57169SOL     OW73280  10.573   5.377  13.484
57169SOL    HW173281  10.508   5.380  13.413
57169SOL    HW273282  10.559   5.457  13.533
57170SOL     OW73283   8.994  12.113   4.631
57170SOL    HW173284   9.081  12.086   4.660
57170SOL    HW273285   8.944  12.032   4.623
57171SOL     OW73286  11.755   9.736   3.217
57171SOL    HW173287  11.723   9.740   3.307
57171SOL    HW273288  11.763   9.642   3.199
57172SOL     OW73289  12.313   2.798  10.615
57172SOL    HW173290  12.268   2.883  10.625
57172SOL    HW273291  12.321   2.786  10.521
57173SOL     OW73292  12.198  11.478   4.216
57173SOL    HW173293  12.275  11.467   4.159
57173SOL    HW273294  12.193  11.572   4.231
57174SOL     OW73295  10.030   2.522  12.316
57174SOL    HW173296  10.031   2.457  12.246
57174SOL    HW273297   9.946   2.509  12.359
57175SOL     OW73298  13.445  11.672   6.170
57175SOL    HW173299  13.488  11.689   6.254
57175SOL    HW273300  13.397  11.753   6.151
57176SOL     OW73301  10.841   4.327  13.435
57176SOL    HW173302  10.895   4.374  13.499
57176SOL    HW273303  10.903   4.292  13.371
57177SOL     OW73304   7.771   4.649  11.325
57177SOL    HW173305   7.855   4.672  11.364
57177SOL    HW273306   7.714   4.724  11.345
57178SOL     OW73307   0.610   6.199  12.093
57178SOL    HW173308   0.614   6.173  12.001
57178SOL    HW273309   0.552   6.276  12.094
57179SOL     OW73310   2.633  13.198   4.010
57179SOL    HW173311   2.581  13.181   3.931
57179SOL    HW273312   2.717  13.155   3.993
57180SOL     OW73313   2.541   5.800   2.549
57180SOL    HW173314   2.617   5.830   2.500
57180SOL    HW273315   2.557   5.831   2.639
57181SOL     OW73316   1.323   7.115  10.769
57181SOL    HW173317   1.283   7.097  10.854
57181SOL    HW273318   1.370   7.197  10.782
57182SOL     OW73319  11.897   0.182  11.025
57182SOL    HW173320  11.875   0.089  11.020
57182SOL    HW273321  11.921   0.207  10.936
57183SOL     OW73322  10.624  11.277   1.095
57183SOL    HW173323  10.577  11.344   1.045
57183SOL    HW273324  10.598  11.195   1.053
57184SOL     OW73325   5.337  13.986  13.911
57184SOL    HW173326   5.400  13.929  13.867
57184SOL    HW273327   5.342  13.959  14.003
57185SOL     OW73328   6.572   6.346   1.996
57185SOL    HW173329   6.482   6.313   1.990
57185SOL    HW273330   6.570   6.409   2.068
57186SOL     OW73331   1.897   1.125  13.181
57186SOL    HW173332   1.899   1.181  13.103
57186SOL    HW273333   1.812   1.080  13.176
57187SOL     OW73334   5.881  11.489   9.414
57187SOL    HW173335   5.804  11.545   9.419
57187SOL    HW273336   5.850  11.403   9.442
57188SOL     OW73337  12.571   8.239  10.713
57188SOL    HW173338  12.530   8.182  10.778
57188SOL    HW273339  12.500   8.262  10.652
57189SOL     OW73340   4.280   5.046  11.217
57189SOL    HW173341   4.372   5.067  11.234
57189SOL    HW273342   4.281   4.955  11.187
57190SOL     OW73343   2.151   1.229  12.306
57190SOL    HW173344   2.227   1.285  12.287
57190SOL    HW273345   2.166   1.150  12.253
57191SOL     OW73346   4.896   7.785  14.336
57191SOL    HW173347   4.921   7.871  14.371
57191SOL    HW273348   4.800   7.785  14.339
57192SOL     OW73349   0.155   2.911  12.385
57192SOL    HW173350   0.111   2.902  12.470
57192SOL    HW273351   0.243   2.942  12.408
57193SOL     OW73352   3.404   9.493   6.088
57193SOL    HW173353   3.408   9.584   6.060
57193SOL    HW273354   3.321   9.461   6.053
57194SOL     OW73355   5.230   7.018   2.793
57194SOL    HW173356   5.269   7.020   2.706
57194SOL    HW273357   5.170   6.943   2.791
57195SOL     OW73358   9.928   0.911  11.242
57195SOL    HW173359  10.003   0.954  11.284
57195SOL    HW273360   9.965   0.870  11.163
57196SOL     OW73361   1.143  14.212  11.020
57196SOL    HW173362   1.224  14.262  11.020
57196SOL    HW273363   1.118  14.206  10.928
57197SOL     OW73364  10.801   4.870   6.083
57197SOL    HW173365  10.806   4.955   6.039
57197SOL    HW273366  10.726   4.879   6.143
57198SOL     OW73367   5.403  12.157   2.663
57198SOL    HW173368   5.481  12.202   2.632
57198SOL    HW273369   5.436  12.081   2.711
57199SOL     OW73370   2.628   6.794  13.888
57199SOL    HW173371   2.689   6.847  13.836
57199SOL    HW273372   2.561   6.857  13.917
57200SOL     OW73373  11.278   9.194   2.229
57200SOL    HW173374  11.227   9.227   2.156
57200SOL    HW273375  11.237   9.110   2.251
57201SOL     OW73376   6.843   5.503  10.216
57201SOL    HW173377   6.871   5.582  10.169
57201SOL    HW273378   6.900   5.501  10.294
57202SOL     OW73379  11.446   6.977  12.497
57202SOL    HW173380  11.477   7.050  12.551
57202SOL    HW273381  11.401   6.918  12.559
57203SOL     OW73382  11.019   6.386   4.993
57203SOL    HW173383  10.953   6.352   5.053
57203SOL    HW273384  10.994   6.352   4.907
57204SOL     OW73385   8.443   3.560   0.868
57204SOL    HW173386   8.445   3.511   0.951
57204SOL    HW273387   8.430   3.651   0.894
57205SOL     OW73388   2.759   2.222   0.059
57205SOL    HW173389   2.839   2.255   0.101
57205SOL    HW273390   2.691   2.284   0.085
57206SOL     OW73391   3.873  14.238   6.142
57206SOL    HW173392   3.866  14.325   6.181
57206SOL    HW273393   3.934  14.191   6.199
57207SOL     OW73394   7.551   9.931   3.533
57207SOL    HW173395   7.539   9.923   3.439
57207SOL    HW273396   7.497  10.007   3.558
57208SOL     OW73397  10.912  13.038   8.764
57208SOL    HW173398  10.870  12.953   8.754
57208SOL    HW273399  10.854  13.087   8.823
57209SOL     OW73400   7.126   2.339  11.293
57209SOL    HW173401   7.083   2.336  11.378
57209SOL    HW273402   7.110   2.428  11.260
57210SOL     OW73403  12.762  14.190   6.163
57210SOL    HW173404  12.779  14.125   6.231
57210SOL    HW273405  12.819  14.165   6.091
57211SOL     OW73406   5.358   3.114  11.699
57211SOL    HW173407   5.429   3.120  11.636
57211SOL    HW273408   5.286   3.073  11.651
57212SOL     OW73409   2.282   5.384   5.361
57212SOL    HW173410   2.217   5.429   5.415
57212SOL    HW273411   2.236   5.308   5.326
57213SOL     OW73412   7.889   3.548   6.183
57213SOL    HW173413   7.958   3.552   6.117
57213SOL    HW273414   7.936   3.528   6.265
57214SOL     OW73415   5.959  13.691   3.376
57214SOL    HW173416   5.935  13.773   3.334
57214SOL    HW273417   5.979  13.631   3.304
57215SOL     OW73418   8.371  13.262  12.829
57215SOL    HW173419   8.437  13.270  12.759
57215SOL    HW273420   8.421  13.231  12.905
57216SOL     OW73421   9.341   3.392   3.037
57216SOL    HW173422   9.275   3.403   3.105
57216SOL    HW273423   9.421   3.369   3.085
57217SOL     OW73424  14.380   6.921   7.572
57217SOL    HW173425  14.335   6.987   7.519
57217SOL    HW273426  14.331   6.920   7.655
57218SOL     OW73427   0.145   8.550   2.790
57218SOL    HW173428   0.129   8.601   2.869
57218SOL    HW273429   0.137   8.613   2.718
57219SOL     OW73430   5.256  13.432   5.649
57219SOL    HW173431   5.273  13.390   5.565
57219SOL    HW273432   5.248  13.525   5.628
57220SOL     OW73433  13.976  14.469   2.189
57220SOL    HW173434  13.899  14.471   2.245
57220SOL    HW273435  14.025  14.549   2.212
57221SOL     OW73436  13.040  14.459   8.447
57221SOL    HW173437  13.108  14.474   8.381
57221SOL    HW273438  13.048  14.367   8.469
57222SOL     OW73439   4.851   8.031  14.123
57222SOL    HW173440   4.894   8.110  14.156
57222SOL    HW273441   4.762   8.037  14.157
57223SOL     OW73442  11.169  10.866  11.172
57223SOL    HW173443  11.227  10.800  11.133
57223SOL    HW273444  11.124  10.818  11.242
57224SOL     OW73445   7.322  14.021  14.760
57224SOL    HW173446   7.274  13.966  14.699
57224SOL    HW273447   7.275  14.105  14.760
57225SOL     OW73448   5.091   9.568  11.496
57225SOL    HW173449   5.136   9.652  11.499
57225SOL    HW273450   5.043   9.569  11.413
57226SOL     OW73451   8.119  13.710   6.585
57226SOL    HW173452   8.029  13.689   6.559
57226SOL    HW273453   8.127  13.673   6.673
57227SOL     OW73454   2.839   8.209   8.080
57227SOL    HW173455   2.756   8.233   8.039
57227SOL    HW273456   2.863   8.126   8.037
57228SOL     OW73457  13.422  10.549   7.619
57228SOL    HW173458  13.459  10.537   7.532
57228SOL    HW273459  13.488  10.600   7.666
57229SOL     OW73460   9.710   6.602   7.379
57229SOL    HW173461   9.760   6.643   7.449
57229SOL    HW273462   9.627   6.576   7.420
57230SOL     OW73463   5.091   9.478  12.740
57230SOL    HW173464   5.135   9.492  12.656
57230SOL    HW273465   5.077   9.566  12.774
57231SOL     OW73466   7.239  11.962   1.282
57231SOL    HW173467   7.229  12.011   1.201
57231SOL    HW273468   7.195  11.879   1.265
57232SOL     OW73469   8.485   7.974   7.749
57232SOL    HW173470   8.543   7.998   7.676
57232SOL    HW273471   8.517   8.026   7.823
57233SOL     OW73472  14.169   1.963   9.289
57233SOL    HW173473  14.257   1.960   9.251
57233SOL    HW273474  14.157   2.054   9.317
57234SOL     OW73475   9.421   5.811  14.257
57234SOL    HW173476   9.407   5.851  14.171
57234SOL    HW273477   9.344   5.755  14.270
57235SOL     OW73478  11.988   5.395  11.592
57235SOL    HW173479  12.050   5.395  11.665
57235SOL    HW273480  12.019   5.463  11.533
57236SOL     OW73481   0.662   6.593  12.152
57236SOL    HW173482   0.626   6.682  12.147
57236SOL    HW273483   0.589   6.536  12.132
57237SOL     OW73484   1.368   3.073   4.052
57237SOL    HW173485   1.304   3.084   3.982
57237SOL    HW273486   1.444   3.124   4.023
57238SOL     OW73487   1.751   9.114   6.088
57238SOL    HW173488   1.845   9.093   6.085
57238SOL    HW273489   1.738   9.171   6.012
57239SOL     OW73490   8.452   8.125  13.651
57239SOL    HW173491   8.547   8.110  13.660
57239SOL    HW273492   8.413   8.077  13.724
57240SOL     OW73493   8.430   3.312   9.299
57240SOL    HW173494   8.493   3.370   9.255
57240SOL    HW273495   8.473   3.288   9.381
57241SOL     OW73496  14.225  10.434   5.454
57241SOL    HW173497  14.211  10.528   5.460
57241SOL    HW273498  14.173  10.397   5.525
57242SOL     OW73499   1.251  14.108  12.593
57242SOL    HW173500   1.286  14.144  12.674
57242SOL    HW273501   1.302  14.028  12.578
57243SOL     OW73502   1.424   8.238   2.746
57243SOL    HW173503   1.479   8.159   2.747
57243SOL    HW273504   1.419   8.265   2.837
57244SOL     OW73505   6.725   7.155  14.482
57244SOL    HW173506   6.740   7.249  14.492
57244SOL    HW273507   6.656   7.149  14.416
57245SOL     OW73508   4.161   1.312   6.416
57245SOL    HW173509   4.146   1.311   6.321
57245SOL    HW273510   4.153   1.404   6.440
57246SOL     OW73511   5.735   7.592   4.231
57246SOL    HW173512   5.830   7.605   4.235
57246SOL    HW273513   5.701   7.642   4.304
57247SOL     OW73514   5.162   2.663   6.030
57247SOL    HW173515   5.212   2.611   6.093
57247SOL    HW273516   5.077   2.675   6.070
57248SOL     OW73517   4.662  13.884   8.723
57248SOL    HW173518   4.672  13.929   8.639
57248SOL    HW273519   4.614  13.946   8.778
57249SOL     OW73520   9.499  11.411  13.836
57249SOL    HW173521   9.473  11.502  13.849
57249SOL    HW273522   9.549  11.389  13.915
57250SOL     OW73523   8.875   4.020   7.585
57250SOL    HW173524   8.818   4.075   7.530
57250SOL    HW273525   8.956   4.070   7.592
57251SOL     OW73526   9.064   6.949   7.243
57251SOL    HW173527   9.121   6.994   7.181
57251SOL    HW273528   9.098   6.860   7.248
57252SOL     OW73529   1.543   6.317  11.309
57252SOL    HW173530   1.545   6.227  11.277
57252SOL    HW273531   1.493   6.313  11.391
57253SOL     OW73532   5.023  13.585  14.448
57253SOL    HW173533   5.012  13.522  14.377
57253SOL    HW273534   4.934  13.603  14.479
57254SOL     OW73535   2.551  13.421  11.607
57254SOL    HW173536   2.459  13.395  11.613
57254SOL    HW273537   2.550  13.508  11.568
57255SOL     OW73538  14.683  11.881   3.174
57255SOL    HW173539  14.776  11.896   3.192
57255SOL    HW273540  14.676  11.882   3.079
57256SOL     OW73541   8.846   6.197   9.059
57256SOL    HW173542   8.849   6.104   9.037
57256SOL    HW273543   8.878   6.201   9.150
57257SOL     OW73544   1.269  12.564   8.169
57257SOL    HW173545   1.309  12.477   8.165
57257SOL    HW273546   1.241  12.581   8.079
57258SOL     OW73547   4.581  12.772   4.301
57258SOL    HW173548   4.546  12.693   4.342
57258SOL    HW273549   4.530  12.844   4.339
57259SOL     OW73550   3.151   0.118  13.779
57259SOL    HW173551   3.104   0.148  13.701
57259SOL    HW273552   3.218   0.185  13.794
57260SOL     OW73553   5.969   3.178   8.656
57260SOL    HW173554   6.014   3.169   8.740
57260SOL    HW273555   5.895   3.117   8.662
57261SOL     OW73556   6.745   0.394   5.239
57261SOL    HW173557   6.756   0.309   5.281
57261SOL    HW273558   6.749   0.458   5.310
57262SOL     OW73559  14.163  12.300  13.622
57262SOL    HW173560  14.125  12.388  13.617
57262SOL    HW273561  14.224  12.304  13.696
57263SOL     OW73562  12.367   8.297   8.882
57263SOL    HW173563  12.445   8.256   8.920
57263SOL    HW273564  12.316   8.325   8.957
57264SOL     OW73565   2.255   3.409   6.166
57264SOL    HW173566   2.226   3.319   6.152
57264SOL    HW273567   2.350   3.405   6.158
57265SOL     OW73568  13.324   9.241   7.856
57265SOL    HW173569  13.299   9.150   7.837
57265SOL    HW273570  13.377   9.267   7.782
57266SOL     OW73571   8.873   8.470   9.791
57266SOL    HW173572   8.922   8.389   9.807
57266SOL    HW273573   8.828   8.488   9.874
57267SOL     OW73574  10.332   7.370   1.162
57267SOL    HW173575  10.346   7.282   1.195
57267SOL    HW273576  10.336   7.361   1.067
57268SOL     OW73577   7.117   7.194   0.659
57268SOL    HW173578   7.076   7.235   0.736
57268SOL    HW273579   7.096   7.101   0.667
57269SOL     OW73580   3.370  11.008   7.111
57269SOL    HW173581   3.385  11.092   7.067
57269SOL    HW273582   3.398  11.023   7.201
57270SOL     OW73583   8.646   6.235  14.720
57270SOL    HW173584   8.668   6.328  14.723
57270SOL    HW273585   8.639   6.210  14.812
57271SOL     OW73586  11.261   5.871  10.025
57271SOL    HW173587  11.340   5.818  10.012
57271SOL    HW273588  11.196   5.810  10.060
57272SOL     OW73589  14.873   2.462   4.467
57272SOL    HW173590  14.858   2.506   4.550
57272SOL    HW273591  14.792   2.414   4.451
57273SOL     OW73592  13.924   0.979   6.480
57273SOL    HW173593  13.985   0.907   6.497
57273SOL    HW273594  13.960   1.025   6.404
57274SOL     OW73595   4.643  12.981   9.804
57274SOL    HW173596   4.559  12.936   9.811
57274SOL    HW273597   4.707  12.911   9.797
57275SOL     OW73598   4.550   8.598  10.225
57275SOL    HW173599   4.486   8.543  10.179
57275SOL    HW273600   4.632   8.585  10.177
57276SOL     OW73601  12.476   2.737  12.383
57276SOL    HW173602  12.514   2.765  12.467
57276SOL    HW273603  12.527   2.660  12.359
57277SOL     OW73604   9.796  10.879  12.667
57277SOL    HW173605   9.825  10.970  12.670
57277SOL    HW273606   9.837  10.837  12.743
57278SOL     OW73607   5.864   7.531   0.990
57278SOL    HW173608   5.857   7.599   1.057
57278SOL    HW273609   5.901   7.456   1.037
57279SOL     OW73610  14.775   3.103  12.570
57279SOL    HW173611  14.717   3.035  12.537
57279SOL    HW273612  14.725   3.144  12.641
57280SOL     OW73613   2.088  11.998  10.033
57280SOL    HW173614   2.129  12.084  10.029
57280SOL    HW273615   2.095  11.972  10.126
57281SOL     OW73616   3.247   0.520   1.443
57281SOL    HW173617   3.276   0.587   1.505
57281SOL    HW273618   3.329   0.480   1.412
57282SOL     OW73619  12.313   6.760   4.409
57282SOL    HW173620  12.222   6.732   4.416
57282SOL    HW273621  12.358   6.685   4.370
57283SOL     OW73622  11.044   8.311   1.239
57283SOL    HW173623  11.080   8.224   1.257
57283SOL    HW273624  11.119   8.361   1.204
57284SOL     OW73625   7.858   7.233   2.029
57284SOL    HW173626   7.922   7.265   2.093
57284SOL    HW273627   7.784   7.204   2.083
57285SOL     OW73628   4.634   5.615  13.498
57285SOL    HW173629   4.565   5.678  13.477
57285SOL    HW273630   4.644   5.562  13.419
57286SOL     OW73631   7.565   6.654  14.355
57286SOL    HW173632   7.603   6.605  14.282
57286SOL    HW273633   7.514   6.724  14.313
57287SOL     OW73634   7.408   7.788   9.275
57287SOL    HW173635   7.356   7.749   9.345
57287SOL    HW273636   7.385   7.881   9.277
57288SOL     OW73637   1.870   6.359  10.760
57288SOL    HW173638   1.805   6.428  10.755
57288SOL    HW273639   1.872   6.321  10.672
57289SOL     OW73640   5.005   9.368   3.069
57289SOL    HW173641   4.938   9.301   3.083
57289SOL    HW273642   5.079   9.340   3.124
57290SOL     OW73643   9.075   3.286  10.617
57290SOL    HW173644   9.121   3.274  10.701
57290SOL    HW273645   9.012   3.355  10.635
57291SOL     OW73646   6.025   8.748  11.324
57291SOL    HW173647   6.084   8.729  11.251
57291SOL    HW273648   5.951   8.688  11.311
57292SOL     OW73649  14.358  10.279   9.622
57292SOL    HW173650  14.355  10.349   9.558
57292SOL    HW273651  14.352  10.199   9.570
57293SOL     OW73652   7.864   5.840   3.494
57293SOL    HW173653   7.837   5.821   3.404
57293SOL    HW273654   7.912   5.923   3.488
57294SOL     OW73655   3.811  14.677   3.601
57294SOL    HW173656   3.826  14.583   3.598
57294SOL    HW273657   3.725  14.690   3.562
57295SOL     OW73658   2.927  13.220   1.882
57295SOL    HW173659   2.926  13.279   1.806
57295SOL    HW273660   2.929  13.279   1.958
57296SOL     OW73661   3.003  12.959  13.053
57296SOL    HW173662   3.058  13.035  13.072
57296SOL    HW273663   2.971  12.930  13.138
57297SOL     OW73664   5.355   5.210  12.650
57297SOL    HW173665   5.424   5.202  12.717
57297SOL    HW273666   5.303   5.131  12.659
57298SOL     OW73667   3.313   8.681  12.126
57298SOL    HW173668   3.358   8.658  12.207
57298SOL    HW273669   3.360   8.633  12.058
57299SOL     OW73670  11.539   6.859  10.360
57299SOL    HW173671  11.460   6.806  10.376
57299SOL    HW273672  11.514   6.948  10.385
57300SOL     OW73673   8.749   5.590   2.721
57300SOL    HW173674   8.800   5.523   2.765
57300SOL    HW273675   8.747   5.664   2.782
57301SOL     OW73676  12.364  12.300  13.253
57301SOL    HW173677  12.273  12.276  13.269
57301SOL    HW273678  12.405  12.296  13.339
57302SOL     OW73679  14.592   4.819   6.100
57302SOL    HW173680  14.659   4.752   6.112
57302SOL    HW273681  14.510   4.770   6.100
57303SOL     OW73682   1.859   4.816  12.539
57303SOL    HW173683   1.925   4.863  12.589
57303SOL    HW273684   1.877   4.839  12.448
57304SOL     OW73685   9.459   6.720   2.971
57304SOL    HW173686   9.546   6.735   2.933
57304SOL    HW273687   9.399   6.770   2.915
57305SOL     OW73688   3.104  13.001  12.262
57305SOL    HW173689   3.124  13.058  12.335
57305SOL    HW273690   3.152  13.039  12.188
57306SOL     OW73691  13.717   8.787   0.527
57306SOL    HW173692  13.648   8.814   0.588
57306SOL    HW273693  13.685   8.706   0.489
57307SOL     OW73694   0.027   1.339   0.903
57307SOL    HW173695   0.059   1.425   0.874
57307SOL    HW273696  14.809   1.346   0.901
57308SOL     OW73697   4.868   7.749   3.410
57308SOL    HW173698   4.906   7.672   3.368
57308SOL    HW273699   4.794   7.715   3.460
57309SOL     OW73700   5.228  14.736   9.813
57309SOL    HW173701   5.276  14.817   9.801
57309SOL    HW273702   5.147  14.747   9.763
57310SOL     OW73703  13.634   2.545  14.117
57310SOL    HW173704  13.635   2.503  14.203
57310SOL    HW273705  13.576   2.491  14.063
57311SOL     OW73706   1.765   6.398   1.129
57311SOL    HW173707   1.843   6.451   1.145
57311SOL    HW273708   1.783   6.351   1.048
57312SOL     OW73709  14.001   5.286  11.512
57312SOL    HW173710  14.015   5.369  11.557
57312SOL    HW273711  14.061   5.225  11.556
57313SOL     OW73712   5.501   7.490   3.881
57313SOL    HW173713   5.479   7.397   3.879
57313SOL    HW273714   5.419   7.534   3.903
57314SOL     OW73715  11.708   5.005  14.263
57314SOL    HW173716  11.693   4.911  14.278
57314SOL    HW273717  11.803   5.013  14.259
57315SOL     OW73718  12.457   8.484   6.331
57315SOL    HW173719  12.548   8.494   6.302
57315SOL    HW273720  12.460   8.410   6.391
57316SOL     OW73721   0.863   6.306   4.694
57316SOL    HW173722   0.954   6.326   4.717
57316SOL    HW273723   0.816   6.310   4.777
57317SOL     OW73724   6.280   2.289  14.692
57317SOL    HW173725   6.338   2.257  14.623
57317SOL    HW273726   6.327   2.363  14.730
57318SOL     OW73727   6.256   5.466   0.597
57318SOL    HW173728   6.333   5.450   0.543
57318SOL    HW273729   6.221   5.379   0.615
57319SOL     OW73730   7.563  12.089  11.567
57319SOL    HW173731   7.491  12.151  11.583
57319SOL    HW273732   7.642  12.139  11.584
57320SOL     OW73733   5.388  12.460   3.261
57320SOL    HW173734   5.444  12.414   3.199
57320SOL    HW273735   5.300  12.456   3.222
57321SOL     OW73736   9.856  10.866   4.018
57321SOL    HW173737   9.820  10.919   4.089
57321SOL    HW273738   9.891  10.930   3.955
57322SOL     OW73739   1.786   7.999  14.180
57322SOL    HW173740   1.820   7.963  14.098
57322SOL    HW273741   1.732   7.928  14.217
57323SOL     OW73742   3.550  13.797  12.835
57323SOL    HW173743   3.483  13.830  12.895
57323SOL    HW273744   3.612  13.870  12.826
57324SOL     OW73745   3.379   5.725   6.084
57324SOL    HW173746   3.468   5.744   6.054
57324SOL    HW273747   3.386   5.723   6.179
57325SOL     OW73748   1.307   9.853   2.681
57325SOL    HW173749   1.389   9.816   2.647
57325SOL    HW273750   1.287   9.926   2.622
57326SOL     OW73751  13.934   9.947  12.514
57326SOL    HW173752  13.975  10.013  12.458
57326SOL    HW273753  14.001   9.925  12.579
57327SOL     OW73754  12.717  11.116  11.848
57327SOL    HW173755  12.662  11.165  11.910
57327SOL    HW273756  12.661  11.045  11.818
57328SOL     OW73757  12.327  12.072   2.833
57328SOL    HW173758  12.410  12.049   2.791
57328SOL    HW273759  12.279  12.121   2.766
57329SOL     OW73760   2.900  14.289   6.356
57329SOL    HW173761   2.816  14.333   6.367
57329SOL    HW273762   2.879  14.195   6.359
57330SOL     OW73763  13.464   1.730   4.884
57330SOL    HW173764  13.550   1.705   4.852
57330SOL    HW273765  13.459   1.824   4.867
57331SOL     OW73766  10.929  13.934  11.549
57331SOL    HW173767  11.006  13.878  11.558
57331SOL    HW273768  10.908  13.961  11.638
57332SOL     OW73769   8.340  13.701   6.320
57332SOL    HW173770   8.269  13.747   6.277
57332SOL    HW273771   8.348  13.619   6.272
57333SOL     OW73772   5.111   0.699   6.587
57333SOL    HW173773   5.207   0.699   6.583
57333SOL    HW273774   5.087   0.786   6.554
57334SOL     OW73775   8.043   1.097  10.811
57334SOL    HW173776   8.089   1.155  10.872
57334SOL    HW273777   7.997   1.035  10.867
57335SOL     OW73778   9.708   4.730  14.446
57335SOL    HW173779   9.663   4.776  14.517
57335SOL    HW273780   9.650   4.656  14.426
57336SOL     OW73781   8.402   9.569  10.826
57336SOL    HW173782   8.457   9.645  10.845
57336SOL    HW273783   8.366   9.586  10.739
57337SOL     OW73784   4.987   1.622  10.872
57337SOL    HW173785   4.925   1.559  10.909
57337SOL    HW273786   5.063   1.617  10.930
57338SOL     OW73787  11.867  12.143  13.520
57338SOL    HW173788  11.859  12.197  13.441
57338SOL    HW273789  11.865  12.053  13.488
57339SOL     OW73790   6.186   6.763  11.017
57339SOL    HW173791   6.206   6.670  11.023
57339SOL    HW273792   6.267   6.803  10.984
57340SOL     OW73793  11.214   0.914   2.050
57340SOL    HW173794  11.209   0.819   2.060
57340SOL    HW273795  11.132   0.938   2.008
57341SOL     OW73796   2.084  14.311   9.604
57341SOL    HW173797   2.004  14.333   9.650
57341SOL    HW273798   2.074  14.218   9.581
57342SOL     OW73799   3.062   2.048   7.033
57342SOL    HW173800   2.983   2.028   6.983
57342SOL    HW273801   3.036   2.036   7.125
57343SOL     OW73802  11.008  12.357  13.036
57343SOL    HW173803  11.093  12.344  13.078
57343SOL    HW273804  10.945  12.353  13.107
57344SOL     OW73805   3.689  11.302  12.591
57344SOL    HW173806   3.752  11.361  12.632
57344SOL    HW273807   3.604  11.343  12.607
57345SOL     OW73808   5.503   9.853  13.150
57345SOL    HW173809   5.414   9.836  13.120
57345SOL    HW273810   5.492   9.897  13.234
57346SOL     OW73811  13.988  14.703   7.775
57346SOL    HW173812  13.908  14.749   7.745
57346SOL    HW273813  14.024  14.665   7.695
57347SOL     OW73814   6.144   8.507   6.107
57347SOL    HW173815   6.212   8.440   6.114
57347SOL    HW273816   6.076   8.467   6.052
57348SOL     OW73817   0.827   1.327  14.129
57348SOL    HW173818   0.752   1.374  14.167
57348SOL    HW273819   0.791   1.284  14.052
57349SOL     OW73820   3.803  14.677   2.331
57349SOL    HW173821   3.860  14.710   2.262
57349SOL    HW273822   3.809  14.742   2.401
57350SOL     OW73823   4.458   8.327  12.629
57350SOL    HW173824   4.412   8.341  12.546
57350SOL    HW273825   4.547   8.359  12.612
57351SOL     OW73826  12.240  13.096   8.104
57351SOL    HW173827  12.158  13.058   8.134
57351SOL    HW273828  12.307  13.054   8.158
57352SOL     OW73829   6.040   0.258   2.001
57352SOL    HW173830   6.074   0.199   2.069
57352SOL    HW273831   5.958   0.217   1.973
57353SOL     OW73832   4.255  12.300   3.852
57353SOL    HW173833   4.176  12.336   3.892
57353SOL    HW273834   4.226  12.217   3.813
57354SOL     OW73835   8.033   7.747  12.424
57354SOL    HW173836   8.034   7.791  12.509
57354SOL    HW273837   8.099   7.793  12.372
57355SOL     OW73838   8.396  11.044   0.695
57355SOL    HW173839   8.316  11.052   0.642
57355SOL    HW273840   8.428  11.134   0.704
57356SOL     OW73841  13.187   9.711  11.799
57356SOL    HW173842  13.220   9.728  11.711
57356SOL    HW273843  13.249   9.648  11.836
57357SOL     OW73844   7.052  14.772   1.873
57357SOL    HW173845   7.136  14.744   1.910
57357SOL    HW273846   7.056  14.868   1.874
57358SOL     OW73847   1.721   1.788   8.497
57358SOL    HW173848   1.661   1.789   8.571
57358SOL    HW273849   1.673   1.743   8.427
57359SOL     OW73850   2.458  13.476  12.277
57359SOL    HW173851   2.461  13.491  12.371
57359SOL    HW273852   2.365  13.467  12.257
57360SOL     OW73853   3.728  12.149  13.531
57360SOL    HW173854   3.798  12.144  13.466
57360SOL    HW273855   3.742  12.234  13.574
57361SOL     OW73856  12.583  14.813  10.916
57361SOL    HW173857  12.633  14.762  10.980
57361SOL    HW273858  12.598  14.768  10.833
57362SOL     OW73859   0.104  14.002  12.411
57362SOL    HW173860   0.077  14.026  12.323
57362SOL    HW273861   0.023  13.983  12.457
57363SOL     OW73862   5.307   8.402   2.947
57363SOL    HW173863   5.378   8.426   3.006
57363SOL    HW273864   5.230   8.396   3.003
57364SOL     OW73865  10.303  13.597   3.385
57364SOL    HW173866  10.249  13.625   3.459
57364SOL    HW273867  10.371  13.664   3.378
57365SOL     OW73868   4.460  13.425   3.302
57365SOL    HW173869   4.454  13.331   3.283
57365SOL    HW273870   4.416  13.436   3.386
57366SOL     OW73871  11.402   3.337   4.353
57366SOL    HW173872  11.399   3.307   4.262
57366SOL    HW273873  11.405   3.257   4.405
57367SOL     OW73874  13.023   6.176   2.092
57367SOL    HW173875  13.051   6.180   2.184
57367SOL    HW273876  13.029   6.266   2.061
57368SOL     OW73877   0.994   8.831  10.859
57368SOL    HW173878   0.957   8.871  10.938
57368SOL    HW273879   0.932   8.762  10.836
57369SOL     OW73880  12.833   0.925   4.548
57369SOL    HW173881  12.886   0.946   4.624
57369SOL    HW273882  12.750   0.893   4.585
57370SOL     OW73883   0.740  12.843   1.486
57370SOL    HW173884   0.681  12.772   1.512
57370SOL    HW273885   0.796  12.804   1.418
57371SOL     OW73886   3.879   3.474   2.693
57371SOL    HW173887   3.794   3.434   2.676
57371SOL    HW273888   3.859   3.548   2.751
57372SOL     OW73889  10.756   3.843  11.607
57372SOL    HW173890  10.701   3.855  11.684
57372SOL    HW273891  10.826   3.907  11.617
57373SOL     OW73892   8.578  14.377   8.136
57373SOL    HW173893   8.627  14.302   8.101
57373SOL    HW273894   8.509  14.337   8.189
57374SOL     OW73895  13.086   3.387   4.437
57374SOL    HW173896  13.062   3.331   4.363
57374SOL    HW273897  13.175   3.360   4.460
57375SOL     OW73898   6.239   0.574   1.028
57375SOL    HW173899   6.279   0.523   1.099
57375SOL    HW273900   6.249   0.665   1.055
57376SOL     OW73901   4.865  10.684   7.355
57376SOL    HW173902   4.846  10.757   7.296
57376SOL    HW273903   4.865  10.606   7.299
57377SOL     OW73904  13.659   9.477   7.898
57377SOL    HW173905  13.661   9.385   7.924
57377SOL    HW273906  13.731   9.517   7.947
57378SOL     OW73907  10.040   4.670   2.146
57378SOL    HW173908  10.127   4.675   2.107
57378SOL    HW273909  10.056   4.638   2.235
57379SOL     OW73910   2.706  10.627  14.667
57379SOL    HW173911   2.716  10.612  14.573
57379SOL    HW273912   2.703  10.722  14.676
57380SOL     OW73913   3.110   8.869  11.013
57380SOL    HW173914   3.022   8.862  11.050
57380SOL    HW273915   3.166   8.823  11.076
57381SOL     OW73916   3.092  11.377   0.515
57381SOL    HW173917   3.128  11.315   0.451
57381SOL    HW273918   3.114  11.463   0.481
57382SOL     OW73919  10.870   3.104  12.190
57382SOL    HW173920  10.948   3.110  12.135
57382SOL    HW273921  10.854   3.010  12.200
57383SOL     OW73922   0.143  14.063   4.589
57383SOL    HW173923   0.228  14.029   4.562
57383SOL    HW273924   0.132  14.143   4.537
57384SOL     OW73925  14.856   2.411   9.308
57384SOL    HW173926   0.054   2.446   9.260
57384SOL    HW273927   0.007   2.324   9.336
57385SOL     OW73928   3.005  14.083  13.020
57385SOL    HW173929   3.024  13.990  13.029
57385SOL    HW273930   3.070  14.114  12.956
57386SOL     OW73931   9.557   6.138  14.159
57386SOL    HW173932   9.575   6.080  14.233
57386SOL    HW273933   9.462   6.135  14.148
57387SOL     OW73934  12.491   5.787   0.609
57387SOL    HW173935  12.448   5.796   0.524
57387SOL    HW273936  12.579   5.822   0.596
57388SOL     OW73937  10.697   7.149  14.724
57388SOL    HW173938  10.721   7.098  14.647
57388SOL    HW273939  10.641   7.219  14.690
57389SOL     OW73940   7.744   6.377   4.120
57389SOL    HW173941   7.828   6.347   4.087
57389SOL    HW273942   7.691   6.297   4.127
57390SOL     OW73943  12.742   7.269   7.713
57390SOL    HW173944  12.693   7.292   7.792
57390SOL    HW273945  12.680   7.219   7.660
57391SOL     OW73946   1.166  10.033   5.050
57391SOL    HW173947   1.121  10.098   4.996
57391SOL    HW273948   1.141  10.055   5.140
57392SOL     OW73949   6.186   6.694  14.189
57392SOL    HW173950   6.281   6.705  14.184
57392SOL    HW273951   6.156   6.702  14.098
57393SOL     OW73952   3.479   6.816  14.003
57393SOL    HW173953   3.456   6.808  13.910
57393SOL    HW273954   3.413   6.764  14.049
57394SOL     OW73955   7.995  13.851  12.973
57394SOL    HW173956   8.030  13.898  13.049
57394SOL    HW273957   7.907  13.886  12.962
57395SOL     OW73958   8.375   0.961  12.946
57395SOL    HW173959   8.414   0.986  13.030
57395SOL    HW273960   8.425   1.011  12.882
57396SOL     OW73961   3.937  11.291   7.421
57396SOL    HW173962   3.922  11.293   7.516
57396SOL    HW273963   4.028  11.318   7.411
57397SOL     OW73964   6.976   4.932   5.431
57397SOL    HW173965   7.051   4.890   5.389
57397SOL    HW273966   6.925   4.967   5.358
57398SOL     OW73967  10.812   9.761  10.704
57398SOL    HW173968  10.847   9.700  10.640
57398SOL    HW273969  10.819   9.715  10.788
57399SOL     OW73970   6.242  10.010   6.453
57399SOL    HW173971   6.238  10.028   6.546
57399SOL    HW273972   6.287  10.087   6.416
57400SOL     OW73973  10.909   4.351  14.654
57400SOL    HW173974  11.000   4.349  14.625
57400SOL    HW273975  10.912   4.321  14.745
57401SOL     OW73976  11.920   2.034  12.702
57401SOL    HW173977  11.993   2.043  12.641
57401SOL    HW273978  11.957   2.059  12.787
57402SOL     OW73979   4.384   4.035   5.384
57402SOL    HW173980   4.427   3.951   5.404
57402SOL    HW273981   4.427   4.064   5.303
57403SOL     OW73982  13.376   7.231   5.572
57403SOL    HW173983  13.438   7.158   5.581
57403SOL    HW273984  13.290   7.189   5.575
57404SOL     OW73985   7.218   4.228   5.464
57404SOL    HW173986   7.153   4.294   5.488
57404SOL    HW273987   7.174   4.172   5.400
57405SOL     OW73988   5.594   8.382   4.327
57405SOL    HW173989   5.665   8.326   4.298
57405SOL    HW273990   5.531   8.380   4.255
57406SOL     OW73991   9.770   3.701   3.083
57406SOL    HW173992   9.865   3.686   3.079
57406SOL    HW273993   9.753   3.724   3.175
57407SOL     OW73994   7.879   8.648   4.729
57407SOL    HW173995   7.809   8.631   4.666
57407SOL    HW273996   7.872   8.742   4.748
57408SOL     OW73997  12.264  10.045   9.929
57408SOL    HW173998  12.312  10.091   9.998
57408SOL    HW273999  12.209  10.111   9.889
57409SOL     OW74000  14.815   1.938  12.762
57409SOL    HW174001   0.001   1.948  12.692
57409SOL    HW274002  14.859   1.971  12.840
57410SOL     OW74003   4.565   9.917   3.783
57410SOL    HW174004   4.530   9.878   3.703
57410SOL    HW274005   4.488   9.945   3.832
57411SOL     OW74006  10.872  11.657   7.401
57411SOL    HW174007  10.781  11.677   7.376
57411SOL    HW274008  10.883  11.565   7.378
57412SOL     OW74009  12.888  12.809  10.196
57412SOL    HW174010  12.809  12.858  10.214
57412SOL    HW274011  12.899  12.813  10.101
57413SOL     OW74012  11.514  12.391  11.864
57413SOL    HW174013  11.603  12.357  11.866
57413SOL    HW274014  11.459  12.316  11.884
57414SOL     OW74015   8.114  12.059   3.125
57414SOL    HW174016   8.071  12.057   3.211
57414SOL    HW274017   8.157  12.145   3.122
57415SOL     OW74018   3.571  13.176  14.217
57415SOL    HW174019   3.665  13.158  14.220
57415SOL    HW274020   3.545  13.180  14.309
57416SOL     OW74021   3.633  12.601  10.773
57416SOL    HW174022   3.630  12.681  10.826
57416SOL    HW274023   3.684  12.626  10.695
57417SOL     OW74024  12.043   6.788   7.772
57417SOL    HW174025  12.066   6.695   7.779
57417SOL    HW274026  12.006   6.810   7.857
57418SOL     OW74027   5.202  11.581  11.568
57418SOL    HW174028   5.176  11.489  11.563
57418SOL    HW274029   5.274  11.589  11.506
57419SOL     OW74030   2.679  11.642  13.585
57419SOL    HW174031   2.717  11.730  13.589
57419SOL    HW274032   2.754  11.583  13.581
57420SOL     OW74033  12.056  11.630   5.983
57420SOL    HW174034  11.986  11.589   6.033
57420SOL    HW274035  12.019  11.714   5.956
57421SOL     OW74036   3.044  13.761   4.160
57421SOL    HW174037   2.984  13.834   4.174
57421SOL    HW274038   3.131  13.799   4.164
57422SOL     OW74039  12.591   2.030   4.585
57422SOL    HW174040  12.574   1.946   4.626
57422SOL    HW274041  12.684   2.029   4.563
57423SOL     OW74042   9.629   5.043   4.679
57423SOL    HW174043   9.664   4.980   4.616
57423SOL    HW274044   9.536   5.047   4.659
57424SOL     OW74045  13.756   3.269   5.388
57424SOL    HW174046  13.689   3.203   5.372
57424SOL    HW274047  13.762   3.318   5.306
57425SOL     OW74048   9.705  14.774   3.710
57425SOL    HW174049   9.788  14.728   3.720
57425SOL    HW274050   9.657  14.723   3.645
57426SOL     OW74051   6.341  14.742  14.734
57426SOL    HW174052   6.309  14.823  14.774
57426SOL    HW274053   6.272  14.716  14.674
57427SOL     OW74054  12.434  13.038   7.299
57427SOL    HW174055  12.469  13.126   7.315
57427SOL    HW274056  12.454  13.021   7.207
57428SOL     OW74057   5.139   2.853   0.108
57428SOL    HW174058   5.192   2.799   0.166
57428SOL    HW274059   5.073   2.892   0.166
57429SOL     OW74060  11.895   9.341  11.570
57429SOL    HW174061  11.960   9.402  11.537
57429SOL    HW274062  11.814   9.392  11.575
57430SOL     OW74063  14.720   1.531  14.429
57430SOL    HW174064  14.663   1.587  14.482
57430SOL    HW274065  14.792   1.589  14.404
57431SOL     OW74066   0.135   2.354  13.829
57431SOL    HW174067   0.070   2.385  13.766
57431SOL    HW274068   0.083   2.320  13.902
57432SOL     OW74069   0.084   7.459   4.472
57432SOL    HW174070   0.061   7.545   4.507
57432SOL    HW274071   0.011   7.435   4.416
57433SOL     OW74072   4.587   6.973   4.647
57433SOL    HW174073   4.547   7.034   4.585
57433SOL    HW274074   4.596   6.891   4.597
57434SOL     OW74075   3.123  12.060   6.152
57434SOL    HW174076   3.080  11.988   6.107
57434SOL    HW274077   3.057  12.096   6.211
57435SOL     OW74078   8.896   3.189  11.448
57435SOL    HW174079   8.831   3.120  11.436
57435SOL    HW274080   8.953   3.157  11.518
57436SOL     OW74081   7.122   0.212   8.401
57436SOL    HW174082   7.096   0.293   8.357
57436SOL    HW274083   7.049   0.152   8.386
57437SOL     OW74084   4.744   7.974   3.333
57437SOL    HW174085   4.795   7.911   3.383
57437SOL    HW274086   4.704   7.922   3.263
57438SOL     OW74087   2.123   1.846   5.449
57438SOL    HW174088   2.210   1.845   5.408
57438SOL    HW274089   2.099   1.754   5.456
57439SOL     OW74090   6.410  11.147  10.114
57439SOL    HW174091   6.322  11.171  10.144
57439SOL    HW274092   6.422  11.057  10.143
57440SOL     OW74093   0.571   2.089   1.496
57440SOL    HW174094   0.535   2.137   1.570
57440SOL    HW274095   0.635   2.148   1.457
57441SOL     OW74096   7.920   4.661   3.076
57441SOL    HW174097   7.959   4.649   2.990
57441SOL    HW274098   7.994   4.655   3.137
57442SOL     OW74099  11.501   7.206   8.418
57442SOL    HW174100  11.494   7.119   8.456
57442SOL    HW274101  11.583   7.241   8.453
57443SOL     OW74102   0.805  14.774   2.972
57443SOL    HW174103   0.806  14.851   3.029
57443SOL    HW274104   0.868  14.793   2.904
57444SOL     OW74105  13.240   1.570  12.272
57444SOL    HW174106  13.308   1.544  12.210
57444SOL    HW274107  13.289   1.600  12.350
57445SOL     OW74108   5.605   9.173   2.834
57445SOL    HW174109   5.596   9.251   2.778
57445SOL    HW274110   5.533   9.181   2.896
57446SOL     OW74111  14.249   0.201   7.886
57446SOL    HW174112  14.240   0.206   7.981
57446SOL    HW274113  14.178   0.143   7.858
57447SOL     OW74114  12.654  11.032   6.184
57447SOL    HW174115  12.581  11.091   6.203
57447SOL    HW274116  12.708  11.079   6.122
57448SOL     OW74117   6.614   8.824   9.902
57448SOL    HW174118   6.586   8.804   9.991
57448SOL    HW274119   6.540   8.797   9.847
57449SOL     OW74120   4.600  14.762  10.071
57449SOL    HW174121   4.623  14.847  10.033
57449SOL    HW274122   4.657  14.754  10.148
57450SOL     OW74123   9.556  14.543   4.695
57450SOL    HW174124   9.572  14.478   4.627
57450SOL    HW274125   9.620  14.612   4.679
57451SOL     OW74126   9.397   2.045  11.576
57451SOL    HW174127   9.474   2.013  11.530
57451SOL    HW274128   9.415   2.028  11.669
57452SOL     OW74129   8.940  14.193  14.465
57452SOL    HW174130   9.029  14.222  14.483
57452SOL    HW274131   8.913  14.146  14.544
57453SOL     OW74132  13.274   7.996  13.535
57453SOL    HW174133  13.282   7.940  13.458
57453SOL    HW274134  13.185   8.030  13.531
57454SOL     OW74135  12.420   5.801   1.313
57454SOL    HW174136  12.495   5.747   1.291
57454SOL    HW274137  12.455   5.869   1.371
57455SOL     OW74138   0.435   0.105   0.105
57455SOL    HW174139   0.510   0.134   0.157
57455SOL    HW274140   0.451   0.012   0.091
57456SOL     OW74141   2.269   9.258  13.724
57456SOL    HW174142   2.327   9.237  13.650
57456SOL    HW274143   2.235   9.345  13.704
57457SOL     OW74144   5.414   3.175   4.553
57457SOL    HW174145   5.421   3.109   4.484
57457SOL    HW274146   5.494   3.163   4.605
57458SOL     OW74147   6.486   9.091   1.997
57458SOL    HW174148   6.477   9.019   2.059
57458SOL    HW274149   6.515   9.049   1.915
57459SOL     OW74150   7.571   7.886  14.154
57459SOL    HW174151   7.555   7.933  14.072
57459SOL    HW274152   7.663   7.904  14.174
57460SOL     OW74153   2.524   5.996   1.649
57460SOL    HW174154   2.459   5.979   1.717
57460SOL    HW274155   2.478   6.054   1.587
57461SOL     OW74156  11.418   6.071   8.451
57461SOL    HW174157  11.411   6.166   8.443
57461SOL    HW274158  11.459   6.043   8.369
57462SOL     OW74159   4.473   9.655   7.597
57462SOL    HW174160   4.502   9.698   7.517
57462SOL    HW274161   4.529   9.577   7.605
57463SOL     OW74162   9.263   9.014  10.661
57463SOL    HW174163   9.243   9.092  10.609
57463SOL    HW274164   9.177   8.976  10.682
57464SOL     OW74165   2.662   8.082  11.437
57464SOL    HW174166   2.654   8.077  11.532
57464SOL    HW274167   2.614   8.162  11.414
57465SOL     OW74168   3.650  14.082  12.824
57465SOL    HW174169   3.710  14.038  12.764
57465SOL    HW274170   3.563  14.055  12.795
57466SOL     OW74171  10.572   4.130   6.701
57466SOL    HW174172  10.509   4.154   6.769
57466SOL    HW274173  10.570   4.034   6.700
57467SOL     OW74174  14.386   0.978   6.702
57467SOL    HW174175  14.455   0.920   6.672
57467SOL    HW274176  14.385   1.050   6.638
57468SOL     OW74177  10.091   1.447   6.298
57468SOL    HW174178  10.054   1.509   6.360
57468SOL    HW274179  10.125   1.376   6.352
57469SOL     OW74180   3.672   7.241  12.367
57469SOL    HW174181   3.739   7.235  12.299
57469SOL    HW274182   3.720   7.228  12.449
57470SOL     OW74183  13.233   0.475   1.651
57470SOL    HW174184  13.269   0.392   1.621
57470SOL    HW274185  13.213   0.461   1.743
57471SOL     OW74186   8.386   0.498  10.674
57471SOL    HW174187   8.290   0.493  10.683
57471SOL    HW274188   8.406   0.434  10.605
57472SOL     OW74189   8.726  10.792   2.915
57472SOL    HW174190   8.644  10.755   2.881
57472SOL    HW274191   8.753  10.731   2.984
57473SOL     OW74192   5.042   1.694   7.984
57473SOL    HW174193   5.018   1.740   7.903
57473SOL    HW274194   5.109   1.750   8.024
57474SOL     OW74195  11.376   9.169   4.159
57474SOL    HW174196  11.299   9.147   4.107
57474SOL    HW274197  11.446   9.117   4.121
57475SOL     OW74198  10.213  11.917  11.389
57475SOL    HW174199  10.256  11.853  11.445
57475SOL    HW274200  10.214  11.999  11.439
57476SOL     OW74201  11.835  14.021   9.457
57476SOL    HW174202  11.823  14.110   9.424
57476SOL    HW274203  11.807  13.965   9.385
57477SOL     OW74204   6.390   5.825   4.735
57477SOL    HW174205   6.398   5.906   4.685
57477SOL    HW274206   6.341   5.849   4.813
57478SOL     OW74207  14.184  12.093   7.183
57478SOL    HW174208  14.159  12.101   7.275
57478SOL    HW274209  14.154  12.174   7.142
57479SOL     OW74210  11.905   3.860   1.337
57479SOL    HW174211  11.916   3.946   1.378
57479SOL    HW274212  11.852   3.810   1.399
57480SOL     OW74213   2.131  13.528   5.210
57480SOL    HW174214   2.196  13.502   5.145
57480SOL    HW274215   2.104  13.446   5.251
57481SOL     OW74216   3.762   7.451  13.582
57481SOL    HW174217   3.827   7.440  13.651
57481SOL    HW274218   3.685   7.485  13.628
57482SOL     OW74219   9.954   6.503   1.767
57482SOL    HW174220   9.861   6.504   1.743
57482SOL    HW274221   9.998   6.544   1.693
57483SOL     OW74222   3.337   9.261  10.842
57483SOL    HW174223   3.301   9.309  10.767
57483SOL    HW274224   3.261   9.246  10.899
57484SOL     OW74225   9.535  13.744  10.273
57484SOL    HW174226   9.476  13.810  10.308
57484SOL    HW274227   9.479  13.686  10.221
57485SOL     OW74228  10.736   3.828   0.254
57485SOL    HW174229  10.720   3.777   0.174
57485SOL    HW274230  10.650   3.861   0.279
57486SOL     OW74231  12.423  11.438  11.448
57486SOL    HW174232  12.367  11.456  11.524
57486SOL    HW274233  12.486  11.509  11.447
57487SOL     OW74234   6.760   2.460  13.661
57487SOL    HW174235   6.801   2.449  13.575
57487SOL    HW274236   6.793   2.387  13.713
57488SOL     OW74237  13.921  12.095   5.170
57488SOL    HW174238  13.905  12.176   5.122
57488SOL    HW274239  13.927  12.122   5.262
57489SOL     OW74240   3.399   0.925   3.235
57489SOL    HW174241   3.361   0.837   3.239
57489SOL    HW274242   3.493   0.910   3.235
57490SOL     OW74243   3.062  14.098  10.827
57490SOL    HW174244   3.097  14.012  10.804
57490SOL    HW274245   2.972  14.096  10.795
57491SOL     OW74246  12.859   2.343   1.628
57491SOL    HW174247  12.869   2.307   1.540
57491SOL    HW274248  12.932   2.405   1.636
57492SOL     OW74249   5.869   8.791   2.736
57492SOL    HW174250   5.802   8.742   2.784
57492SOL    HW274251   5.911   8.726   2.680
57493SOL     OW74252   9.175   1.208  10.456
57493SOL    HW174253   9.128   1.275  10.505
57493SOL    HW274254   9.149   1.125  10.498
57494SOL     OW74255   1.544   7.074  14.647
57494SOL    HW174256   1.602   7.002  14.671
57494SOL    HW274257   1.482   7.036  14.584
57495SOL     OW74258  14.504   9.174  10.552
57495SOL    HW174259  14.483   9.168  10.645
57495SOL    HW274260  14.465   9.257  10.524
57496SOL     OW74261   4.239   0.229   6.844
57496SOL    HW174262   4.259   0.310   6.890
57496SOL    HW274263   4.270   0.243   6.755
57497SOL     OW74264  12.199  11.181   9.411
57497SOL    HW174265  12.104  11.168   9.411
57497SOL    HW274266  12.235  11.093   9.395
57498SOL     OW74267   7.402   2.639   5.225
57498SOL    HW174268   7.393   2.730   5.253
57498SOL    HW274269   7.488   2.634   5.184
57499SOL     OW74270  10.787   9.696   0.593
57499SOL    HW174271  10.796   9.645   0.513
57499SOL    HW274272  10.855   9.662   0.651
57500SOL     OW74273   4.331  14.512  11.649
57500SOL    HW174274   4.300  14.467  11.571
57500SOL    HW274275   4.374  14.591  11.616
57501SOL     OW74276   6.804   1.294   3.396
57501SOL    HW174277   6.882   1.329   3.353
57501SOL    HW274278   6.838   1.241   3.468
57502SOL     OW74279   2.143  12.370  12.713
57502SOL    HW174280   2.165  12.462  12.698
57502SOL    HW274281   2.227  12.323  12.703
57503SOL     OW74282   7.047   6.973  13.355
57503SOL    HW174283   7.072   6.892  13.399
57503SOL    HW274284   7.091   7.042  13.405
57504SOL     OW74285  11.291   0.808   7.526
57504SOL    HW174286  11.354   0.852   7.469
57504SOL    HW274287  11.221   0.872   7.539
57505SOL     OW74288   9.519   9.793   0.371
57505SOL    HW174289   9.529   9.712   0.421
57505SOL    HW274290   9.485   9.765   0.286
57506SOL     OW74291   1.705  11.194  14.310
57506SOL    HW174292   1.666  11.112  14.340
57506SOL    HW274293   1.646  11.225  14.242
57507SOL     OW74294   3.530   3.466   9.911
57507SOL    HW174295   3.538   3.416   9.992
57507SOL    HW274296   3.620   3.494   9.891
57508SOL     OW74297   8.572  13.031   7.202
57508SOL    HW174298   8.553  13.120   7.231
57508SOL    HW274299   8.489  12.999   7.165
57509SOL     OW74300  13.116   8.862   3.949
57509SOL    HW174301  13.044   8.922   3.928
57509SOL    HW274302  13.130   8.874   4.043
57510SOL     OW74303  11.702   0.802   8.254
57510SOL    HW174304  11.758   0.814   8.330
57510SOL    HW274305  11.712   0.710   8.232
57511SOL     OW74306  11.346  10.647   3.046
57511SOL    HW174307  11.252  10.652   3.027
57511SOL    HW274308  11.382  10.726   3.008
57512SOL     OW74309   9.532  13.494   0.778
57512SOL    HW174310   9.493  13.408   0.795
57512SOL    HW274311   9.463  13.556   0.801
57513SOL     OW74312   1.283   5.427  14.222
57513SOL    HW174313   1.285   5.512  14.265
57513SOL    HW274314   1.374   5.409  14.199
57514SOL     OW74315   2.740   6.301  13.648
57514SOL    HW174316   2.770   6.372  13.705
57514SOL    HW274317   2.680   6.250  13.702
57515SOL     OW74318   3.768  14.343  11.678
57515SOL    HW174319   3.787  14.328  11.585
57515SOL    HW274320   3.838  14.296  11.724
57516SOL     OW74321   5.992   4.045   9.451
57516SOL    HW174322   5.949   3.960   9.441
57516SOL    HW274323   5.942   4.104   9.395
57517SOL     OW74324  12.248   9.390   4.585
57517SOL    HW174325  12.298   9.466   4.555
57517SOL    HW274326  12.228   9.342   4.504
57518SOL     OW74327   3.348  12.438   1.307
57518SOL    HW174328   3.365  12.532   1.315
57518SOL    HW274329   3.416  12.396   1.360
57519SOL     OW74330   8.559   1.772  11.956
57519SOL    HW174331   8.583   1.728  12.038
57519SOL    HW274332   8.463   1.771  11.956
57520SOL     OW74333   5.787   9.203  10.107
57520SOL    HW174334   5.752   9.225  10.193
57520SOL    HW274335   5.804   9.287  10.065
57521SOL     OW74336  11.208   4.436  14.296
57521SOL    HW174337  11.255   4.431  14.212
57521SOL    HW274338  11.186   4.345  14.316
57522SOL     OW74339   2.934  11.089   7.224
57522SOL    HW174340   2.988  11.033   7.168
57522SOL    HW274341   2.944  11.053   7.311
57523SOL     OW74342   7.984  13.297   0.013
57523SOL    HW174343   7.891  13.279   0.020
57523SOL    HW274344   7.995  13.336  14.804
57524SOL     OW74345   7.551   7.439   3.518
57524SOL    HW174346   7.506   7.488   3.587
57524SOL    HW274347   7.611   7.382   3.564
57525SOL     OW74348  12.166  10.720   3.521
57525SOL    HW174349  12.168  10.719   3.617
57525SOL    HW274350  12.129  10.635   3.497
57526SOL     OW74351   8.861  11.131  13.173
57526SOL    HW174352   8.931  11.129  13.108
57526SOL    HW274353   8.797  11.066  13.141
57527SOL     OW74354  14.351   7.522   5.427
57527SOL    HW174355  14.421   7.457   5.421
57527SOL    HW274356  14.382   7.596   5.375
57528SOL     OW74357  13.404   7.784   0.159
57528SOL    HW174358  13.374   7.870   0.130
57528SOL    HW274359  13.496   7.780   0.134
57529SOL     OW74360  10.712   0.930   1.499
57529SOL    HW174361  10.674   0.913   1.585
57529SOL    HW274362  10.733   0.843   1.465
57530SOL     OW74363   9.766  10.943   9.232
57530SOL    HW174364   9.712  10.873   9.196
57530SOL    HW274365   9.824  10.899   9.295
57531SOL     OW74366  14.215  12.122  14.087
57531SOL    HW174367  14.137  12.068  14.081
57531SOL    HW274368  14.202  12.176  14.165
57532SOL     OW74369  10.629   6.821   6.886
57532SOL    HW174370  10.538   6.811   6.859
57532SOL    HW274371  10.662   6.732   6.893
57533SOL     OW74372   1.406   0.598   0.401
57533SOL    HW174373   1.448   0.546   0.471
57533SOL    HW274374   1.323   0.553   0.384
57534SOL     OW74375   2.265  14.486  12.299
57534SOL    HW174376   2.208  14.412  12.319
57534SOL    HW274377   2.353  14.456  12.319
57535SOL     OW74378  12.790   4.973   4.608
57535SOL    HW174379  12.857   4.936   4.665
57535SOL    HW274380  12.828   4.969   4.520
57536SOL     OW74381   2.127   9.414   7.503
57536SOL    HW174382   2.113   9.480   7.436
57536SOL    HW274383   2.204   9.444   7.551
57537SOL     OW74384  12.120   3.663   0.807
57537SOL    HW174385  12.150   3.750   0.832
57537SOL    HW274386  12.073   3.677   0.725
57538SOL     OW74387  10.477   6.218   4.043
57538SOL    HW174388  10.503   6.133   4.079
57538SOL    HW274389  10.554   6.273   4.053
57539SOL     OW74390  10.215  13.971   4.056
57539SOL    HW174391  10.157  13.896   4.037
57539SOL    HW274392  10.155  14.042   4.078
57540SOL     OW74393   8.342  10.480   8.285
57540SOL    HW174394   8.376  10.503   8.199
57540SOL    HW274395   8.253  10.515   8.286
57541SOL     OW74396   7.322   0.908  10.487
57541SOL    HW174397   7.328   0.850  10.411
57541SOL    HW274398   7.235   0.891  10.523
57542SOL     OW74399   4.339   5.428  11.361
57542SOL    HW174400   4.253   5.399  11.394
57542SOL    HW274401   4.322   5.456  11.271
57543SOL     OW74402  13.617   6.560   4.085
57543SOL    HW174403  13.699   6.540   4.129
57543SOL    HW274404  13.567   6.478   4.088
57544SOL     OW74405   3.565  14.157  12.415
57544SOL    HW174406   3.656  14.156  12.444
57544SOL    HW274407   3.558  14.082  12.355
57545SOL     OW74408   1.787   1.724   0.647
57545SOL    HW174409   1.775   1.684   0.733
57545SOL    HW274410   1.774   1.651   0.585
57546SOL     OW74411  14.856  10.549   1.132
57546SOL    HW174412  14.818  10.576   1.216
57546SOL    HW274413  14.792  10.580   1.067
57547SOL     OW74414   9.228   7.290   2.169
57547SOL    HW174415   9.222   7.204   2.127
57547SOL    HW274416   9.241   7.270   2.262
57548SOL     OW74417   6.784   0.198   8.647
57548SOL    HW174418   6.723   0.147   8.700
57548SOL    HW274419   6.730   0.269   8.612
57549SOL     OW74420   1.222   3.015   1.473
57549SOL    HW174421   1.144   2.971   1.507
57549SOL    HW274422   1.193   3.053   1.390
57550SOL     OW74423   5.538   0.561   3.170
57550SOL    HW174424   5.525   0.655   3.158
57550SOL    HW274425   5.589   0.535   3.093
57551SOL     OW74426   1.192   3.945  14.398
57551SOL    HW174427   1.242   4.027  14.399
57551SOL    HW274428   1.199   3.911  14.487
57552SOL     OW74429   0.267  10.415  12.364
57552SOL    HW174430   0.220  10.427  12.446
57552SOL    HW274431   0.360  10.414  12.390
57553SOL     OW74432   5.947   0.002  11.707
57553SOL    HW174433   6.010  14.833  11.653
57553SOL    HW274434   5.993   0.021  11.788
57554SOL     OW74435   5.074  13.219   7.502
57554SOL    HW174436   5.027  13.161   7.562
57554SOL    HW274437   5.017  13.226   7.426
57555SOL     OW74438  11.856   4.377   1.230
57555SOL    HW174439  11.911   4.336   1.296
57555SOL    HW274440  11.777   4.403   1.278
57556SOL     OW74441  13.600   7.134   2.725
57556SOL    HW174442  13.515   7.178   2.714
57556SOL    HW274443  13.658   7.177   2.662
57557SOL     OW74444  11.044   2.493   0.688
57557SOL    HW174445  11.027   2.399   0.679
57557SOL    HW274446  11.130   2.498   0.729
57558SOL     OW74447   0.947   0.685   4.418
57558SOL    HW174448   0.969   0.651   4.331
57558SOL    HW274449   0.854   0.666   4.429
57559SOL     OW74450  10.526   3.133   0.859
57559SOL    HW174451  10.470   3.157   0.933
57559SOL    HW274452  10.610   3.110   0.899
57560SOL     OW74453   7.652   6.708  11.529
57560SOL    HW174454   7.641   6.698  11.624
57560SOL    HW274455   7.643   6.802  11.514
57561SOL     OW74456  14.121  12.795  14.754
57561SOL    HW174457  14.153  12.768  14.840
57561SOL    HW274458  14.062  12.869  14.772
57562SOL     OW74459   8.876   4.471  14.090
57562SOL    HW174460   8.893   4.380  14.113
57562SOL    HW274461   8.796   4.468  14.038
57563SOL     OW74462   3.503   9.657  10.890
57563SOL    HW174463   3.435   9.707  10.936
57563SOL    HW274464   3.548   9.721  10.836
57564SOL     OW74465   9.994   4.411   3.179
57564SOL    HW174466   9.932   4.344   3.152
57564SOL    HW274467  10.005   4.466   3.102
57565SOL     OW74468   9.963  10.631  12.051
57565SOL    HW174469   9.942  10.553  12.101
57565SOL    HW274470   9.927  10.703  12.102
57566SOL     OW74471  10.674   1.070   0.782
57566SOL    HW174472  10.713   0.983   0.791
57566SOL    HW274473  10.721   1.110   0.709
57567SOL     OW74474   6.267  13.537   8.697
57567SOL    HW174475   6.309  13.565   8.778
57567SOL    HW274476   6.340  13.507   8.642
57568SOL     OW74477   1.038   2.998  10.084
57568SOL    HW174478   0.980   2.934  10.126
57568SOL    HW274479   1.077   2.950  10.011
57569SOL     OW74480   8.928  10.747   2.692
57569SOL    HW174481   8.965  10.689   2.758
57569SOL    HW274482   8.848  10.782   2.733
57570SOL     OW74483   7.321  11.802  12.435
57570SOL    HW174484   7.401  11.853  12.451
57570SOL    HW274485   7.256  11.843  12.492
57571SOL     OW74486   4.739   7.130   9.819
57571SOL    HW174487   4.802   7.102   9.886
57571SOL    HW274488   4.706   7.048   9.782
57572SOL     OW74489   4.782  14.215  10.969
57572SOL    HW174490   4.738  14.142  10.924
57572SOL    HW274491   4.821  14.266  10.899
57573SOL     OW74492   4.732   1.254   4.001
57573SOL    HW174493   4.732   1.172   4.052
57573SOL    HW274494   4.683   1.233   3.922
57574SOL     OW74495   9.636   1.183   8.102
57574SOL    HW174496   9.613   1.265   8.057
57574SOL    HW274497   9.584   1.184   8.182
57575SOL     OW74498   3.080   8.544  10.172
57575SOL    HW174499   3.131   8.557  10.252
57575SOL    HW274500   3.077   8.449  10.160
57576SOL     OW74501  13.944  13.347   8.276
57576SOL    HW174502  14.005  13.327   8.206
57576SOL    HW274503  13.972  13.293   8.349
57577SOL     OW74504  10.425  10.964   6.603
57577SOL    HW174505  10.410  11.055   6.577
57577SOL    HW274506  10.456  10.970   6.694
57578SOL     OW74507   1.321   1.988   2.568
57578SOL    HW174508   1.407   1.949   2.583
57578SOL    HW274509   1.262   1.940   2.627
57579SOL     OW74510   7.161   5.495   0.998
57579SOL    HW174511   7.183   5.473   1.088
57579SOL    HW274512   7.136   5.588   1.001
57580SOL     OW74513  13.038   5.591   2.424
57580SOL    HW174514  12.991   5.633   2.351
57580SOL    HW274515  13.094   5.526   2.382
57581SOL     OW74516   1.541   5.210  11.813
57581SOL    HW174517   1.537   5.169  11.900
57581SOL    HW274518   1.595   5.288  11.826
57582SOL     OW74519   4.622   6.965   9.668
57582SOL    HW174520   4.615   7.037   9.605
57582SOL    HW274521   4.532   6.940   9.685
57583SOL     OW74522   0.484   4.089   2.324
57583SOL    HW174523   0.560   4.099   2.381
57583SOL    HW274524   0.412   4.070   2.385
57584SOL     OW74525   6.304  11.367   1.301
57584SOL    HW174526   6.305  11.433   1.371
57584SOL    HW274527   6.262  11.411   1.227
57585SOL     OW74528   1.781  11.172   5.600
57585SOL    HW174529   1.748  11.206   5.517
57585SOL    HW274530   1.870  11.141   5.580
57586SOL     OW74531   8.629   7.778   9.041
57586SOL    HW174532   8.643   7.823   9.125
57586SOL    HW274533   8.538   7.749   9.044
57587SOL     OW74534   5.511  10.309   4.034
57587SOL    HW174535   5.450  10.337   4.103
57587SOL    HW274536   5.500  10.374   3.965
57588SOL     OW74537   1.935   7.092  11.394
57588SOL    HW174538   1.923   7.020  11.332
57588SOL    HW274539   1.915   7.171  11.344
57589SOL     OW74540   0.818   0.040  14.471
57589SOL    HW174541   0.862   0.041  14.386
57589SOL    HW274542   0.884   0.071  14.533
57590SOL     OW74543  10.660   6.495   6.577
57590SOL    HW174544  10.645   6.580   6.534
57590SOL    HW274545  10.577   6.475   6.619
57591SOL     OW74546   1.605   8.208   6.445
57591SOL    HW174547   1.588   8.294   6.484
57591SOL    HW274548   1.697   8.210   6.422
57592SOL     OW74549   5.976   8.454   5.880
57592SOL    HW174550   5.890   8.491   5.897
57592SOL    HW274551   5.961   8.360   5.873
57593SOL     OW74552  12.304  10.971  13.165
57593SOL    HW174553  12.234  10.920  13.206
57593SOL    HW274554  12.312  11.050  13.219
57594SOL     OW74555  13.922   1.972  12.042
57594SOL    HW174556  13.835   2.013  12.040
57594SOL    HW274557  13.926   1.930  12.128
57595SOL     OW74558  13.745   0.034   1.121
57595SOL    HW174559  13.766   0.070   1.207
57595SOL    HW274560  13.670   0.086   1.091
57596SOL     OW74561   7.032  14.575   3.531
57596SOL    HW174562   7.061  14.648   3.476
57596SOL    HW274563   7.052  14.497   3.480
57597SOL     OW74564  14.281   4.873   9.283
57597SOL    HW174565  14.292   4.790   9.235
57597SOL    HW274566  14.280   4.940   9.215
57598SOL     OW74567   3.399   7.561   6.855
57598SOL    HW174568   3.465   7.492   6.857
57598SOL    HW274569   3.317   7.517   6.877
57599SOL     OW74570  14.308   2.721  13.757
57599SOL    HW174571  14.309   2.816  13.741
57599SOL    HW274572  14.292   2.713  13.851
57600SOL     OW74573   5.039   9.042  12.185
57600SOL    HW174574   5.036   9.072  12.094
57600SOL    HW274575   5.126   9.002  12.195
57601SOL     OW74576   6.637   3.608   1.111
57601SOL    HW174577   6.559   3.569   1.071
57601SOL    HW274578   6.688   3.534   1.143
57602SOL     OW74579  11.054  13.628   5.564
57602SOL    HW174580  11.105  13.548   5.573
57602SOL    HW274581  10.966  13.598   5.542
57603SOL     OW74582   0.592   3.185   3.302
57603SOL    HW174583   0.534   3.204   3.376
57603SOL    HW274584   0.557   3.237   3.230
57604SOL     OW74585  14.068   9.078  11.265
57604SOL    HW174586  14.087   9.082  11.359
57604SOL    HW274587  13.991   9.134  11.254
57605SOL     OW74588   7.750   5.153  14.404
57605SOL    HW174589   7.693   5.169  14.329
57605SOL    HW274590   7.774   5.240  14.436
57606SOL     OW74591   6.196   1.933  12.510
57606SOL    HW174592   6.280   1.959  12.549
57606SOL    HW274593   6.213   1.932  12.415
57607SOL     OW74594  10.575   4.457   0.244
57607SOL    HW174595  10.623   4.540   0.252
57607SOL    HW274596  10.633   4.402   0.192
57608SOL     OW74597   2.541   9.703   3.532
57608SOL    HW174598   2.475   9.706   3.463
57608SOL    HW274599   2.619   9.670   3.489
57609SOL     OW74600   7.971  13.465  12.633
57609SOL    HW174601   7.989  13.502  12.720
57609SOL    HW274602   8.056  13.437  12.600
57610SOL     OW74603  11.588   7.336   5.899
57610SOL    HW174604  11.646   7.317   5.825
57610SOL    HW274605  11.502   7.347   5.861
57611SOL     OW74606   6.747  12.870  10.340
57611SOL    HW174607   6.800  12.896  10.264
57611SOL    HW274608   6.662  12.848  10.303
57612SOL     OW74609   3.391   9.979   8.059
57612SOL    HW174610   3.389   9.958   8.152
57612SOL    HW274611   3.308   9.946   8.025
57613SOL     OW74612   4.090  10.343   6.699
57613SOL    HW174613   4.147  10.277   6.738
57613SOL    HW274614   4.053  10.301   6.622
57614SOL     OW74615   4.999  14.722  13.622
57614SOL    HW174616   4.997  14.803  13.673
57614SOL    HW274617   5.079  14.728  13.570
57615SOL     OW74618  11.665   3.651   9.679
57615SOL    HW174619  11.692   3.696   9.599
57615SOL    HW274620  11.607   3.582   9.649
57616SOL     OW74621  13.724  12.597  13.122
57616SOL    HW174622  13.806  12.576  13.077
57616SOL    HW274623  13.740  12.683  13.162
57617SOL     OW74624   7.630  10.433   4.660
57617SOL    HW174625   7.559  10.497   4.661
57617SOL    HW274626   7.664  10.433   4.750
57618SOL     OW74627   0.843   5.537   3.202
57618SOL    HW174628   0.805   5.571   3.120
57618SOL    HW274629   0.925   5.495   3.175
57619SOL     OW74630  13.960  13.202   0.548
57619SOL    HW174631  13.944  13.109   0.560
57619SOL    HW274632  13.874  13.238   0.526
57620SOL     OW74633   0.997   3.117   1.908
57620SOL    HW174634   1.023   3.143   1.997
57620SOL    HW274635   0.918   3.065   1.920
57621SOL     OW74636   4.711   0.305  10.124
57621SOL    HW174637   4.742   0.263  10.204
57621SOL    HW274638   4.718   0.236  10.057
57622SOL     OW74639   4.138  12.467   2.712
57622SOL    HW174640   4.061  12.411   2.725
57622SOL    HW274641   4.103  12.556   2.714
57623SOL     OW74642   3.764   5.675   9.884
57623SOL    HW174643   3.832   5.668   9.952
57623SOL    HW274644   3.780   5.600   9.827
57624SOL     OW74645  10.084   9.759   1.763
57624SOL    HW174646  10.124   9.828   1.711
57624SOL    HW274647  10.077   9.685   1.703
57625SOL     OW74648  13.730   7.403   6.979
57625SOL    HW174649  13.655   7.403   6.920
57625SOL    HW274650  13.780   7.481   6.955
57626SOL     OW74651   6.328   9.318   6.892
57626SOL    HW174652   6.382   9.397   6.885
57626SOL    HW274653   6.391   9.248   6.909
57627SOL     OW74654   5.031   6.617  14.320
57627SOL    HW174655   4.967   6.553  14.350
57627SOL    HW274656   5.114   6.569  14.319
57628SOL     OW74657  10.659   0.136   2.039
57628SOL    HW174658  10.702   0.136   2.125
57628SOL    HW274659  10.566   0.136   2.060
57629SOL     OW74660  11.356   7.450   0.185
57629SOL    HW174661  11.297   7.493   0.246
57629SOL    HW274662  11.377   7.517   0.120
57630SOL     OW74663   3.608   1.077  11.742
57630SOL    HW174664   3.646   1.128  11.813
57630SOL    HW274665   3.542   1.134  11.703
57631SOL     OW74666  10.095   9.841  12.540
57631SOL    HW174667  10.117   9.918  12.488
57631SOL    HW274668   9.999   9.846  12.549
57632SOL     OW74669   6.668  11.562  11.280
57632SOL    HW174670   6.697  11.561  11.372
57632SOL    HW274671   6.640  11.472  11.263
57633SOL     OW74672   5.933  13.971   9.376
57633SOL    HW174673   6.014  13.994   9.423
57633SOL    HW274674   5.865  14.020   9.422
57634SOL     OW74675   9.461   9.929   0.718
57634SOL    HW174676   9.473   9.855   0.658
57634SOL    HW274677   9.410   9.993   0.668
57635SOL     OW74678   8.857  11.595   7.621
57635SOL    HW174679   8.771  11.553   7.629
57635SOL    HW274680   8.918  11.522   7.611
57636SOL     OW74681   5.183   4.981  10.569
57636SOL    HW174682   5.106   4.973  10.513
57636SOL    HW274683   5.189   5.075  10.588
57637SOL     OW74684   1.268   6.787  12.217
57637SOL    HW174685   1.246   6.806  12.308
57637SOL    HW274686   1.214   6.846  12.166
57638SOL     OW74687   2.786   5.558  11.331
57638SOL    HW174688   2.796   5.505  11.410
57638SOL    HW274689   2.769   5.494  11.262
57639SOL     OW74690   4.655   3.782  13.659
57639SOL    HW174691   4.723   3.766  13.724
57639SOL    HW274692   4.626   3.872  13.676
57640SOL     OW74693   0.371   6.670   6.538
57640SOL    HW174694   0.292   6.646   6.490
57640SOL    HW274695   0.438   6.610   6.505
57641SOL     OW74696   6.074  12.450   6.115
57641SOL    HW174697   6.112  12.512   6.176
57641SOL    HW274698   6.081  12.493   6.030
57642SOL     OW74699   7.971   4.374   6.363
57642SOL    HW174700   8.062   4.380   6.332
57642SOL    HW274701   7.926   4.447   6.320
57643SOL     OW74702  13.605   7.090   8.416
57643SOL    HW174703  13.606   7.132   8.501
57643SOL    HW274704  13.659   7.146   8.360
57644SOL     OW74705   0.314   6.565   0.974
57644SOL    HW174706   0.248   6.496   0.965
57644SOL    HW274707   0.306   6.595   1.064
57645SOL     OW74708  14.205  14.506   5.732
57645SOL    HW174709  14.211  14.592   5.689
57645SOL    HW274710  14.222  14.443   5.662
57646SOL     OW74711  11.866   2.869   1.920
57646SOL    HW174712  11.889   2.928   1.848
57646SOL    HW274713  11.938   2.805   1.921
57647SOL     OW74714   8.685   4.213   3.182
57647SOL    HW174715   8.721   4.247   3.099
57647SOL    HW274716   8.756   4.226   3.245
57648SOL     OW74717   2.805   4.856   6.272
57648SOL    HW174718   2.890   4.880   6.309
57648SOL    HW274719   2.749   4.841   6.349
57649SOL     OW74720  14.857   4.282  14.520
57649SOL    HW174721  14.762   4.272  14.509
57649SOL    HW274722   0.014   4.193  14.519
57650SOL     OW74723   5.892   3.427   1.920
57650SOL    HW174724   5.883   3.352   1.862
57650SOL    HW274725   5.839   3.405   1.997
57651SOL     OW74726   6.561   8.885   0.978
57651SOL    HW174727   6.530   8.803   0.940
57651SOL    HW274728   6.503   8.952   0.942
57652SOL     OW74729   9.741   6.755  12.180
57652SOL    HW174730   9.685   6.754  12.257
57652SOL    HW274731   9.824   6.717  12.210
57653SOL     OW74732  10.158  14.470   5.306
57653SOL    HW174733  10.127  14.555   5.338
57653SOL    HW274734  10.239  14.490   5.259
57654SOL     OW74735  13.735   9.110   1.621
57654SOL    HW174736  13.674   9.174   1.659
57654SOL    HW274737  13.680   9.033   1.604
57655SOL     OW74738   9.714   1.239   6.903
57655SOL    HW174739   9.670   1.324   6.907
57655SOL    HW274740   9.672   1.194   6.829
57656SOL     OW74741   4.081   9.393   3.081
57656SOL    HW174742   4.034   9.311   3.096
57656SOL    HW274743   4.017   9.449   3.038
57657SOL     OW74744   5.106   5.391   3.960
57657SOL    HW174745   5.021   5.422   3.930
57657SOL    HW274746   5.106   5.298   3.939
57658SOL     OW74747   6.442   3.932   5.746
57658SOL    HW174748   6.418   3.999   5.683
57658SOL    HW274749   6.401   3.961   5.828
57659SOL     OW74750  10.486  13.333   0.231
57659SOL    HW174751  10.515  13.417   0.267
57659SOL    HW274752  10.503  13.340   0.137
57660SOL     OW74753   9.311   4.993   6.413
57660SOL    HW174754   9.350   5.058   6.355
57660SOL    HW274755   9.305   5.038   6.498
57661SOL     OW74756  11.211  12.922  12.641
57661SOL    HW174757  11.205  12.893  12.550
57661SOL    HW274758  11.261  13.003  12.637
57662SOL     OW74759   6.436   4.053  14.603
57662SOL    HW174760   6.490   4.009  14.538
57662SOL    HW274761   6.479   4.036  14.686
57663SOL     OW74762   1.639   2.949   8.907
57663SOL    HW174763   1.590   2.991   8.977
57663SOL    HW274764   1.572   2.923   8.843
57664SOL     OW74765   0.624  10.611   8.583
57664SOL    HW174766   0.672  10.669   8.641
57664SOL    HW274767   0.618  10.528   8.632
57665SOL     OW74768  12.047   0.110   1.796
57665SOL    HW174769  12.056   0.090   1.703
57665SOL    HW274770  11.957   0.085   1.817
57666SOL     OW74771  14.005   2.579  11.024
57666SOL    HW174772  14.054   2.612  11.099
57666SOL    HW274773  13.960   2.501  11.057
57667SOL     OW74774   3.122  11.978  13.548
57667SOL    HW174775   3.198  11.995  13.604
57667SOL    HW274776   3.150  11.908  13.490
57668SOL     OW74777   3.767   5.863  14.001
57668SOL    HW174778   3.809   5.826  13.923
57668SOL    HW274779   3.693   5.913  13.966
57669SOL     OW74780  11.327   8.809  10.133
57669SOL    HW174781  11.353   8.831  10.223
57669SOL    HW274782  11.397   8.845  10.079
57670SOL     OW74783   7.594   5.250   1.813
57670SOL    HW174784   7.546   5.324   1.776
57670SOL    HW274785   7.681   5.286   1.834
57671SOL     OW74786  14.837   2.501  11.645
57671SOL    HW174787  14.771   2.434  11.626
57671SOL    HW274788   0.007   2.511  11.562
57672SOL     OW74789  13.730  12.521   8.918
57672SOL    HW174790  13.809  12.469   8.931
57672SOL    HW274791  13.740  12.595   8.977
57673SOL     OW74792   5.212   7.397   0.337
57673SOL    HW174793   5.216   7.309   0.375
57673SOL    HW274794   5.302   7.416   0.312
57674SOL     OW74795   5.463   7.666   0.693
57674SOL    HW174796   5.527   7.676   0.764
57674SOL    HW274797   5.512   7.620   0.624
57675SOL     OW74798   3.039   9.896  12.917
57675SOL    HW174799   3.020   9.961  12.984
57675SOL    HW274800   2.978   9.914  12.847
57676SOL     OW74801   3.965   1.436  11.172
57676SOL    HW174802   3.871   1.447  11.191
57676SOL    HW274803   3.984   1.504  11.107
57677SOL     OW74804   8.121   2.889   6.957
57677SOL    HW174805   8.213   2.876   6.979
57677SOL    HW274806   8.110   2.849   6.871
57678SOL     OW74807   4.726  12.087   8.462
57678SOL    HW174808   4.745  12.041   8.381
57678SOL    HW274809   4.646  12.137   8.444
57679SOL     OW74810   9.760   3.462  14.389
57679SOL    HW174811   9.687   3.516  14.357
57679SOL    HW274812   9.791   3.415  14.312
57680SOL     OW74813   5.333  12.387  11.008
57680SOL    HW174814   5.388  12.334  11.065
57680SOL    HW274815   5.260  12.330  10.984
57681SOL     OW74816  13.242  14.186  11.485
57681SOL    HW174817  13.314  14.179  11.422
57681SOL    HW274818  13.273  14.249  11.549
57682SOL     OW74819  11.968   3.994   2.745
57682SOL    HW174820  12.031   3.923   2.735
57682SOL    HW274821  11.896   3.956   2.794
57683SOL     OW74822  12.629   6.161   2.211
57683SOL    HW174823  12.650   6.098   2.143
57683SOL    HW274824  12.683   6.135   2.286
57684SOL     OW74825   0.593  11.287   7.645
57684SOL    HW174826   0.567  11.333   7.566
57684SOL    HW274827   0.686  11.310   7.657
57685SOL     OW74828  10.195   1.856   9.868
57685SOL    HW174829  10.108   1.827   9.895
57685SOL    HW274830  10.225   1.912   9.939
57686SOL     OW74831   5.492   2.681   5.189
57686SOL    HW174832   5.502   2.647   5.278
57686SOL    HW274833   5.400   2.706   5.183
57687SOL     OW74834   0.724  12.828  10.641
57687SOL    HW174835   0.798  12.812  10.699
57687SOL    HW274836   0.678  12.902  10.680
57688SOL     OW74837   9.304  10.302   9.556
57688SOL    HW174838   9.287  10.284   9.649
57688SOL    HW274839   9.390  10.343   9.556
57689SOL     OW74840  11.978  10.457   0.515
57689SOL    HW174841  11.971  10.512   0.436
57689SOL    HW274842  12.023  10.378   0.485
57690SOL     OW74843   0.946   2.512  14.118
57690SOL    HW174844   0.947   2.466  14.202
57690SOL    HW274845   0.985   2.449  14.057
57691SOL     OW74846  13.145   7.983  12.698
57691SOL    HW174847  13.228   7.997  12.743
57691SOL    HW274848  13.158   8.021  12.611
57692SOL     OW74849  10.937   8.635  10.969
57692SOL    HW174850  10.870   8.702  10.959
57692SOL    HW274851  10.910   8.564  10.911
57693SOL     OW74852   2.826   8.100   5.400
57693SOL    HW174853   2.744   8.088   5.447
57693SOL    HW274854   2.827   8.030   5.335
57694SOL     OW74855   7.506   0.458  10.100
57694SOL    HW174856   7.493   0.517  10.026
57694SOL    HW274857   7.418   0.437  10.130
57695SOL     OW74858   9.478  13.550  13.024
57695SOL    HW174859   9.384  13.534  13.038
57695SOL    HW274860   9.499  13.621  13.085
57696SOL     OW74861  12.757   8.215  14.364
57696SOL    HW174862  12.763   8.207  14.459
57696SOL    HW274863  12.827   8.158  14.330
57697SOL     OW74864   2.286  14.156  13.225
57697SOL    HW174865   2.283  14.062  13.242
57697SOL    HW274866   2.330  14.164  13.140
57698SOL     OW74867  11.599   2.401   7.312
57698SOL    HW174868  11.564   2.312   7.310
57698SOL    HW274869  11.684   2.394   7.268
57699SOL     OW74870  12.624  12.725   9.313
57699SOL    HW174871  12.687  12.718   9.242
57699SOL    HW274872  12.655  12.798   9.366
57700SOL     OW74873  14.097   4.167   1.564
57700SOL    HW174874  14.121   4.187   1.473
57700SOL    HW274875  14.095   4.072   1.568
57701SOL     OW74876   1.353   1.905   1.328
57701SOL    HW174877   1.353   1.811   1.312
57701SOL    HW274878   1.445   1.927   1.344
57702SOL     OW74879   6.706  10.971   8.496
57702SOL    HW174880   6.701  10.897   8.436
57702SOL    HW274881   6.637  10.953   8.561
57703SOL     OW74882  12.963   0.334   5.464
57703SOL    HW174883  12.877   0.375   5.470
57703SOL    HW274884  13.025   0.404   5.482
57704SOL     OW74885   9.519  10.412  11.767
57704SOL    HW174886   9.456  10.472  11.727
57704SOL    HW274887   9.466  10.355  11.823
57705SOL     OW74888   2.609  14.745  12.466
57705SOL    HW174889   2.581  14.708  12.550
57705SOL    HW274890   2.601  14.839  12.477
57706SOL     OW74891  12.767  10.311   7.925
57706SOL    HW174892  12.840  10.250   7.936
57706SOL    HW274893  12.689  10.260   7.947
57707SOL     OW74894   7.553   5.113  12.478
57707SOL    HW174895   7.533   5.206  12.490
57707SOL    HW274896   7.646   5.105  12.499
57708SOL     OW74897  13.838   9.532   7.435
57708SOL    HW174898  13.923   9.489   7.439
57708SOL    HW274899  13.818   9.538   7.341
57709SOL     OW74900   1.519  11.188  12.225
57709SOL    HW174901   1.610  11.170  12.204
57709SOL    HW274902   1.469  11.149  12.154
57710SOL     OW74903   1.593   7.243   6.208
57710SOL    HW174904   1.562   7.158   6.241
57710SOL    HW274905   1.678   7.255   6.249
57711SOL     OW74906   4.525   1.835  10.139
57711SOL    HW174907   4.586   1.891  10.092
57711SOL    HW274908   4.535   1.749  10.098
57712SOL     OW74909   5.177   2.626   2.464
57712SOL    HW174910   5.117   2.676   2.409
57712SOL    HW274911   5.262   2.668   2.450
57713SOL     OW74912   3.234  13.393  12.368
57713SOL    HW174913   3.190  13.467  12.409
57713SOL    HW274914   3.327  13.412  12.377
57714SOL     OW74915   0.099  12.379   6.145
57714SOL    HW174916   0.172  12.319   6.131
57714SOL    HW274917   0.116  12.417   6.231
57715SOL     OW74918  11.751   7.264   7.516
57715SOL    HW174919  11.771   7.336   7.575
57715SOL    HW274920  11.700   7.202   7.570
57716SOL     OW74921   5.433   5.477   1.590
57716SOL    HW174922   5.415   5.563   1.552
57716SOL    HW274923   5.423   5.416   1.517
57717SOL     OW74924   0.921   2.360   4.334
57717SOL    HW174925   0.833   2.346   4.300
57717SOL    HW274926   0.908   2.399   4.421
57718SOL     OW74927   5.908   1.436   5.293
57718SOL    HW174928   5.969   1.387   5.238
57718SOL    HW274929   5.941   1.526   5.292
57719SOL     OW74930   6.326   4.319   9.139
57719SOL    HW174931   6.340   4.228   9.166
57719SOL    HW274932   6.245   4.345   9.183
57720SOL     OW74933   7.139   9.755  11.894
57720SOL    HW174934   7.184   9.723  11.972
57720SOL    HW274935   7.205   9.751  11.825
57721SOL     OW74936  10.825   2.974   8.543
57721SOL    HW174937  10.803   3.017   8.460
57721SOL    HW274938  10.792   2.884   8.532
57722SOL     OW74939  12.426   1.572  13.845
57722SOL    HW174940  12.339   1.546  13.872
57722SOL    HW274941  12.418   1.666  13.824
57723SOL     OW74942  12.795   2.045   7.106
57723SOL    HW174943  12.762   2.036   7.016
57723SOL    HW274944  12.743   1.983   7.157
57724SOL     OW74945   3.930  10.874   9.003
57724SOL    HW174946   3.948  10.952   9.055
57724SOL    HW274947   4.000  10.813   9.026
57725SOL     OW74948   3.399   9.686   3.726
57725SOL    HW174949   3.323   9.641   3.763
57725SOL    HW274950   3.404   9.768   3.775
57726SOL     OW74951   3.214  11.202  10.933
57726SOL    HW174952   3.287  11.211  10.871
57726SOL    HW274953   3.251  11.228  11.017
57727SOL     OW74954   5.227   4.490   1.525
57727SOL    HW174955   5.193   4.413   1.570
57727SOL    HW274956   5.209   4.473   1.432
57728SOL     OW74957   2.088   0.930   2.765
57728SOL    HW174958   2.142   0.966   2.836
57728SOL    HW274959   2.016   0.886   2.810
57729SOL     OW74960   8.234   4.731   1.481
57729SOL    HW174961   8.143   4.754   1.463
57729SOL    HW274962   8.272   4.810   1.521
57730SOL     OW74963   0.910   4.969   0.355
57730SOL    HW174964   0.966   4.954   0.432
57730SOL    HW274965   0.879   5.059   0.365
57731SOL     OW74966   9.732   5.810   8.587
57731SOL    HW174967   9.712   5.742   8.524
57731SOL    HW274968   9.707   5.772   8.672
57732SOL     OW74969   1.500   8.893   1.505
57732SOL    HW174970   1.586   8.851   1.504
57732SOL    HW274971   1.439   8.824   1.532
57733SOL     OW74972   7.378   9.229   1.933
57733SOL    HW174973   7.456   9.275   1.901
57733SOL    HW274974   7.316   9.299   1.953
57734SOL     OW74975  12.043   9.575   8.171
57734SOL    HW174976  12.050   9.666   8.199
57734SOL    HW274977  11.949   9.561   8.159
57735SOL     OW74978  13.597   2.609  11.549
57735SOL    HW174979  13.633   2.527  11.584
57735SOL    HW274980  13.674   2.664  11.535
57736SOL     OW74981   8.644  14.382   4.582
57736SOL    HW174982   8.665  14.405   4.673
57736SOL    HW274983   8.549  14.375   4.580
57737SOL     OW74984  10.790   9.264   4.226
57737SOL    HW174985  10.763   9.268   4.135
57737SOL    HW274986  10.711   9.288   4.275
57738SOL     OW74987   2.258   5.943  10.322
57738SOL    HW174988   2.326   6.007  10.341
57738SOL    HW274989   2.258   5.936  10.227
57739SOL     OW74990   8.718   5.797   2.031
57739SOL    HW174991   8.751   5.708   2.039
57739SOL    HW274992   8.625   5.787   2.011
57740SOL     OW74993   5.004   3.152   0.043
57740SOL    HW174994   4.982   3.078   0.099
57740SOL    HW274995   4.921   3.195   0.026
57741SOL     OW74996   7.184   1.739   1.085
57741SOL    HW174997   7.179   1.663   1.026
57741SOL    HW274998   7.093   1.760   1.105
57742SOL     OW74999  14.406   4.236   9.955
57742SOL    HW175000  14.413   4.143   9.935
57742SOL    HW275001  14.481   4.276   9.911
57743SOL     OW75002   9.982   8.721  11.368
57743SOL    HW175003   9.900   8.673  11.364
57743SOL    HW275004  10.050   8.653  11.367
57744SOL     OW75005   2.738   2.056  14.191
57744SOL    HW175006   2.644   2.047  14.208
57744SOL    HW275007   2.747   2.039  14.097
57745SOL     OW75008  10.328   6.940   6.535
57745SOL    HW175009  10.239   6.976   6.528
57745SOL    HW275010  10.318   6.847   6.516
57746SOL     OW75011   8.073   7.163   7.427
57746SOL    HW175012   8.059   7.082   7.477
57746SOL    HW275013   8.102   7.226   7.493
57747SOL     OW75014   9.614  13.870  13.872
57747SOL    HW175015   9.528  13.839  13.900
57747SOL    HW275016   9.673  13.848  13.944
57748SOL     OW75017   4.934   7.554  11.613
57748SOL    HW175018   4.866   7.541  11.547
57748SOL    HW275019   4.965   7.466  11.633
57749SOL     OW75020   5.710   0.414   2.927
57749SOL    HW175021   5.764   0.341   2.958
57749SOL    HW275022   5.769   0.489   2.929
57750SOL     OW75023  13.916  11.887   7.273
57750SOL    HW175024  13.893  11.815   7.215
57750SOL    HW275025  13.996  11.858   7.318
57751SOL     OW75026   5.360   8.333   0.057
57751SOL    HW175027   5.399   8.263   0.004
57751SOL    HW275028   5.366   8.411   0.002
57752SOL     OW75029  11.777   9.297  10.109
57752SOL    HW175030  11.778   9.204  10.089
57752SOL    HW275031  11.837   9.306  10.183
57753SOL     OW75032  11.943   4.480   4.405
57753SOL    HW175033  11.909   4.486   4.316
57753SOL    HW275034  11.989   4.396   4.407
57754SOL     OW75035  10.997   1.643   1.688
57754SOL    HW175036  11.023   1.551   1.692
57754SOL    HW275037  11.079   1.691   1.696
57755SOL     OW75038   7.135   0.742  10.055
57755SOL    HW175039   7.076   0.684  10.008
57755SOL    HW275040   7.094   0.829  10.047
57756SOL     OW75041   3.372   8.915  12.648
57756SOL    HW175042   3.327   8.948  12.726
57756SOL    HW275043   3.421   8.991  12.616
57757SOL     OW75044   2.517   0.971  11.060
57757SOL    HW175045   2.429   0.934  11.067
57757SOL    HW275046   2.563   0.912  11.001
57758SOL     OW75047  11.985   7.936   8.788
57758SOL    HW175048  11.920   7.895   8.731
57758SOL    HW275049  11.987   7.883   8.867
57759SOL     OW75050   1.915   3.225   5.712
57759SOL    HW175051   1.913   3.305   5.765
57759SOL    HW275052   1.840   3.174   5.743
57760SOL     OW75053   3.554   3.571   1.268
57760SOL    HW175054   3.555   3.577   1.173
57760SOL    HW275055   3.623   3.630   1.297
57761SOL     OW75056   6.533   7.222  14.759
57761SOL    HW175057   6.614   7.172  14.745
57761SOL    HW275058   6.560   7.298  14.810
57762SOL     OW75059   8.188   3.232   2.686
57762SOL    HW175060   8.146   3.263   2.605
57762SOL    HW275061   8.265   3.184   2.656
57763SOL     OW75062  11.054  10.996   3.114
57763SOL    HW175063  10.989  11.020   3.047
57763SOL    HW275064  11.098  10.919   3.078
57764SOL     OW75065  10.591   1.857   2.272
57764SOL    HW175066  10.622   1.770   2.246
57764SOL    HW275067  10.606   1.860   2.366
57765SOL     OW75068   6.469  10.634   2.104
57765SOL    HW175069   6.462  10.729   2.112
57765SOL    HW275070   6.382  10.607   2.074
57766SOL     OW75071  10.960   8.340   0.584
57766SOL    HW175072  10.999   8.397   0.651
57766SOL    HW275073  11.034   8.294   0.545
57767SOL     OW75074   4.606  14.189   4.092
57767SOL    HW175075   4.657  14.124   4.044
57767SOL    HW275076   4.571  14.247   4.025
57768SOL     OW75077   0.661   4.844   5.813
57768SOL    HW175078   0.630   4.887   5.893
57768SOL    HW275079   0.686   4.756   5.842
57769SOL     OW75080   3.290  10.615   1.984
57769SOL    HW175081   3.331  10.539   1.942
57769SOL    HW275082   3.210  10.630   1.934
57770SOL     OW75083   5.519   9.496   6.859
57770SOL    HW175084   5.586   9.553   6.895
57770SOL    HW275085   5.555   9.463   6.777
57771SOL     OW75086  14.257   3.398   0.422
57771SOL    HW175087  14.163   3.414   0.428
57771SOL    HW275088  14.276   3.337   0.493
57772SOL     OW75089   9.581   0.615   8.066
57772SOL    HW175090   9.624   0.699   8.047
57772SOL    HW275091   9.557   0.581   7.980
57773SOL     OW75092   4.288   3.007  13.963
57773SOL    HW175093   4.289   2.923  14.009
57773SOL    HW275094   4.372   3.011  13.918
57774SOL     OW75095   5.349  13.484   7.919
57774SOL    HW175096   5.285  13.506   7.852
57774SOL    HW275097   5.347  13.389   7.925
57775SOL     OW75098   9.098   5.412   1.903
57775SOL    HW175099   9.187   5.397   1.874
57775SOL    HW275100   9.067   5.326   1.931
57776SOL     OW75101   2.143   1.891   0.706
57776SOL    HW175102   2.108   1.838   0.634
57776SOL    HW275103   2.160   1.828   0.776
57777SOL     OW75104   1.065  10.630  12.204
57777SOL    HW175105   0.992  10.589  12.248
57777SOL    HW275106   1.131  10.561  12.197
57778SOL     OW75107   2.377   0.159  11.861
57778SOL    HW175108   2.326   0.229  11.818
57778SOL    HW275109   2.467   0.174  11.831
57779SOL     OW75110  12.447   9.973  11.524
57779SOL    HW175111  12.480  10.005  11.608
57779SOL    HW275112  12.445  10.050  11.467
57780SOL     OW75113   4.849   1.145   4.446
57780SOL    HW175114   4.919   1.090   4.481
57780SOL    HW275115   4.788   1.155   4.519
57781SOL     OW75116  11.001  10.861  11.418
57781SOL    HW175117  11.006  10.949  11.454
57781SOL    HW275118  10.908  10.848  11.399
57782SOL     OW75119  10.923   8.382   7.551
57782SOL    HW175120  10.994   8.361   7.490
57782SOL    HW275121  10.848   8.333   7.517
57783SOL     OW75122   1.695   4.636   5.219
57783SOL    HW175123   1.654   4.716   5.251
57783SOL    HW275124   1.630   4.598   5.159
57784SOL     OW75125  11.689   8.545   9.059
57784SOL    HW175126  11.660   8.459   9.028
57784SOL    HW275127  11.622   8.606   9.027
57785SOL     OW75128  10.520   1.555   0.685
57785SOL    HW175129  10.492   1.526   0.771
57785SOL    HW275130  10.604   1.598   0.700
57786SOL     OW75131   8.724   6.186   2.472
57786SOL    HW175132   8.810   6.226   2.484
57786SOL    HW275133   8.705   6.198   2.379
57787SOL     OW75134  12.579   8.847  12.924
57787SOL    HW175135  12.525   8.913  12.968
57787SOL    HW275136  12.665   8.855  12.965
57788SOL     OW75137  11.331   7.259   0.515
57788SOL    HW175138  11.274   7.296   0.447
57788SOL    HW275139  11.302   7.300   0.596
57789SOL     OW75140   2.235   9.043   6.524
57789SOL    HW175141   2.210   8.962   6.567
57789SOL    HW275142   2.313   9.021   6.473
57790SOL     OW75143  11.691   1.528   3.984
57790SOL    HW175144  11.625   1.511   4.051
57790SOL    HW275145  11.674   1.463   3.916
57791SOL     OW75146   6.869   1.199  13.787
57791SOL    HW175147   6.813   1.139  13.836
57791SOL    HW275148   6.825   1.284  13.793
57792SOL     OW75149   2.625   8.255   3.916
57792SOL    HW175150   2.611   8.291   4.004
57792SOL    HW275151   2.565   8.180   3.912
57793SOL     OW75152   3.384   0.979   3.626
57793SOL    HW175153   3.379   0.884   3.617
57793SOL    HW275154   3.318   1.012   3.565
57794SOL     OW75155   5.691   1.791  10.031
57794SOL    HW175156   5.603   1.764  10.006
57794SOL    HW275157   5.679   1.839  10.113
57795SOL     OW75158   2.213   0.414   7.857
57795SOL    HW175159   2.268   0.478   7.902
57795SOL    HW275160   2.160   0.466   7.797
57796SOL     OW75161   5.185   8.637   5.782
57796SOL    HW175162   5.174   8.625   5.877
57796SOL    HW275163   5.200   8.730   5.771
57797SOL     OW75164   4.277  14.353  11.438
57797SOL    HW175165   4.197  14.323  11.395
57797SOL    HW275166   4.322  14.405  11.371
57798SOL     OW75167  12.921   0.094   5.312
57798SOL    HW175168  12.953   0.175   5.350
57798SOL    HW275169  12.980   0.075   5.239
57799SOL     OW75170   9.246   1.804  10.446
57799SOL    HW175171   9.331   1.787  10.407
57799SOL    HW275172   9.257   1.887  10.492
57800SOL     OW75173   0.264   7.714   0.155
57800SOL    HW175174   0.261   7.619   0.170
57800SOL    HW275175   0.344   7.742   0.198
57801SOL     OW75176   6.297  12.735   7.188
57801SOL    HW175177   6.247  12.665   7.230
57801SOL    HW275178   6.331  12.695   7.108
57802SOL     OW75179  12.857   5.198  13.134
57802SOL    HW175180  12.937   5.219  13.181
57802SOL    HW275181  12.872   5.230  13.045
57803SOL     OW75182  12.418   7.798   1.715
57803SOL    HW175183  12.497   7.805   1.768
57803SOL    HW275184  12.397   7.704   1.716
57804SOL     OW75185   7.015   3.927   6.620
57804SOL    HW175186   6.983   3.941   6.709
57804SOL    HW275187   6.971   3.847   6.591
57805SOL     OW75188  11.861   2.857   6.171
57805SOL    HW175189  11.770   2.884   6.176
57805SOL    HW275190  11.866   2.777   6.224
57806SOL     OW75191   8.787   5.026   7.202
57806SOL    HW175192   8.734   5.106   7.205
57806SOL    HW275193   8.743   4.969   7.140
57807SOL     OW75194  14.543   9.869   9.596
57807SOL    HW175195  14.580   9.931   9.658
57807SOL    HW275196  14.450   9.890   9.593
57808SOL     OW75197   0.963  13.137   0.711
57808SOL    HW175198   0.967  13.086   0.630
57808SOL    HW275199   1.054  13.143   0.739
57809SOL     OW75200  13.851   4.465   0.955
57809SOL    HW175201  13.902   4.514   0.891
57809SOL    HW275202  13.866   4.373   0.932
57810SOL     OW75203  13.156  10.915   2.757
57810SOL    HW175204  13.195  10.995   2.791
57810SOL    HW275205  13.150  10.857   2.833
57811SOL     OW75206  12.221   4.102   9.393
57811SOL    HW175207  12.170   4.126   9.315
57811SOL    HW275208  12.217   4.006   9.394
57812SOL     OW75209   6.875   8.550  14.644
57812SOL    HW175210   6.815   8.624  14.643
57812SOL    HW275211   6.957   8.585  14.609
57813SOL     OW75212  10.632  14.319   9.072
57813SOL    HW175213  10.571  14.272   9.129
57813SOL    HW275214  10.613  14.286   8.984
57814SOL     OW75215   6.154   9.843   0.088
57814SOL    HW175216   6.119   9.770   0.037
57814SOL    HW275217   6.096   9.917   0.067
57815SOL     OW75218   7.826   2.191   1.958
57815SOL    HW175219   7.775   2.113   1.938
57815SOL    HW275220   7.917   2.161   1.956
57816SOL     OW75221   6.735   4.782   3.171
57816SOL    HW175222   6.731   4.851   3.104
57816SOL    HW275223   6.795   4.717   3.134
57817SOL     OW75224   5.175   9.795   4.853
57817SOL    HW175225   5.169   9.740   4.932
57817SOL    HW275226   5.085   9.817   4.832
57818SOL     OW75227  10.858  11.043   2.950
57818SOL    HW175228  10.787  10.979   2.946
57818SOL    HW275229  10.855  11.087   2.865
57819SOL     OW75230  14.484   0.407  13.141
57819SOL    HW175231  14.571   0.439  13.166
57819SOL    HW275232  14.428   0.485  13.145
57820SOL     OW75233  12.187   2.748  11.447
57820SOL    HW175234  12.204   2.840  11.429
57820SOL    HW275235  12.108   2.749  11.502
57821SOL     OW75236   5.947   7.690   1.212
57821SOL    HW175237   5.874   7.749   1.227
57821SOL    HW275238   6.021   7.747   1.193
57822SOL     OW75239   8.977   0.648   4.224
57822SOL    HW175240   9.027   0.571   4.197
57822SOL    HW275241   9.000   0.660   4.317
57823SOL     OW75242   1.247  10.126   7.644
57823SOL    HW175243   1.205  10.156   7.563
57823SOL    HW275244   1.178  10.134   7.710
57824SOL     OW75245   5.141   1.889  12.304
57824SOL    HW175246   5.111   1.975  12.274
57824SOL    HW275247   5.145   1.898  12.400
57825SOL     OW75248   5.300   2.040  14.007
57825SOL    HW175249   5.360   2.111  14.030
57825SOL    HW275250   5.214   2.082  14.002
57826SOL     OW75251   6.545   6.649   7.001
57826SOL    HW175252   6.471   6.665   6.941
57826SOL    HW275253   6.503   6.630   7.085
57827SOL     OW75254   8.110   4.192   2.312
57827SOL    HW175255   8.189   4.145   2.287
57827SOL    HW275256   8.139   4.256   2.376
57828SOL     OW75257  12.075   4.326  11.627
57828SOL    HW175258  11.999   4.286  11.668
57828SOL    HW275259  12.126   4.361  11.701
57829SOL     OW75260  12.539  13.055   1.050
57829SOL    HW175261  12.576  13.038   1.136
57829SOL    HW275262  12.444  13.061   1.065
57830SOL     OW75263   8.533   3.887   0.014
57830SOL    HW175264   8.486   3.805   0.032
57830SOL    HW275265   8.620   3.859  14.862
57831SOL     OW75266   0.764   3.008   3.935
57831SOL    HW175267   0.796   2.939   3.993
57831SOL    HW275268   0.701   3.057   3.988
57832SOL     OW75269   0.785  14.559   3.134
57832SOL    HW175270   0.772  14.637   3.080
57832SOL    HW275271   0.730  14.574   3.211
57833SOL     OW75272   4.374   3.203   9.568
57833SOL    HW175273   4.287   3.188   9.605
57833SOL    HW275274   4.362   3.279   9.511
57834SOL     OW75275   0.713  13.689   2.015
57834SOL    HW175276   0.732  13.713   1.924
57834SOL    HW275277   0.795  13.706   2.061
57835SOL     OW75278  10.654  12.374  11.603
57835SOL    HW175279  10.679  12.465  11.589
57835SOL    HW275280  10.691  12.327  11.528
57836SOL     OW75281   2.940   4.199   8.322
57836SOL    HW175282   3.020   4.201   8.374
57836SOL    HW275283   2.968   4.224   8.234
57837SOL     OW75284  14.758   8.474   7.008
57837SOL    HW175285  14.668   8.448   7.027
57837SOL    HW275286  14.802   8.469   7.092
57838SOL     OW75287   3.189   6.023  14.682
57838SOL    HW175288   3.167   6.113  14.705
57838SOL    HW275289   3.125   5.999  14.616
57839SOL     OW75290  12.713   6.020  13.375
57839SOL    HW175291  12.644   5.976  13.325
57839SOL    HW275292  12.683   6.111  13.383
57840SOL     OW75293   7.703  12.682   0.274
57840SOL    HW175294   7.779  12.736   0.297
57840SOL    HW275295   7.628  12.734   0.302
57841SOL     OW75296  14.856  12.551   6.773
57841SOL    HW175297   0.055  12.569   6.827
57841SOL    HW275298  14.858  12.456   6.760
57842SOL     OW75299   5.563   7.387   5.946
57842SOL    HW175300   5.595   7.300   5.921
57842SOL    HW275301   5.469   7.375   5.961
57843SOL     OW75302   0.621   5.913  10.195
57843SOL    HW175303   0.635   5.892  10.287
57843SOL    HW275304   0.648   5.835  10.147
57844SOL     OW75305   8.753   5.036  14.518
57844SOL    HW175306   8.727   5.037  14.426
57844SOL    HW275307   8.811   5.112  14.527
57845SOL     OW75308  11.933   6.000  11.465
57845SOL    HW175309  11.880   6.038  11.395
57845SOL    HW275310  11.888   6.026  11.546
57846SOL     OW75311  10.291  10.935   8.505
57846SOL    HW175312  10.369  10.902   8.550
57846SOL    HW275313  10.316  10.937   8.412
57847SOL     OW75314   4.733   5.568   7.724
57847SOL    HW175315   4.714   5.615   7.642
57847SOL    HW275316   4.688   5.620   7.791
57848SOL     OW75317   9.024  11.318  12.289
57848SOL    HW175318   8.936  11.344  12.261
57848SOL    HW275319   9.024  11.223  12.280
57849SOL     OW75320   4.025  13.217  10.432
57849SOL    HW175321   3.993  13.307  10.421
57849SOL    HW275322   3.991  13.189  10.517
57850SOL     OW75323   9.597   2.096   3.152
57850SOL    HW175324   9.662   2.086   3.222
57850SOL    HW275325   9.638   2.056   3.076
57851SOL     OW75326   5.633   1.039   2.912
57851SOL    HW175327   5.589   1.039   2.827
57851SOL    HW275328   5.613   1.124   2.950
57852SOL     OW75329  13.669   8.056   8.919
57852SOL    HW175330  13.593   8.025   8.967
57852SOL    HW275331  13.634   8.092   8.837
57853SOL     OW75332   4.002   4.405   7.263
57853SOL    HW175333   3.922   4.429   7.216
57853SOL    HW275334   4.030   4.324   7.222
57854SOL     OW75335   7.401   0.635   9.907
57854SOL    HW175336   7.410   0.726   9.935
57854SOL    HW275337   7.412   0.639   9.812
57855SOL     OW75338   0.198  10.940   1.514
57855SOL    HW175339   0.187  10.884   1.590
57855SOL    HW275340   0.153  10.893   1.443
57856SOL     OW75341   5.916   2.104  13.232
57856SOL    HW175342   5.975   2.031  13.214
57856SOL    HW275343   5.954   2.148  13.308
57857SOL     OW75344   4.266   2.664   8.511
57857SOL    HW175345   4.250   2.594   8.574
57857SOL    HW275346   4.196   2.727   8.528
57858SOL     OW75347   5.343  12.128   9.236
57858SOL    HW175348   5.422  12.174   9.210
57858SOL    HW275349   5.312  12.174   9.314
57859SOL     OW75350   9.843  12.901  11.578
57859SOL    HW175351   9.809  12.977  11.626
57859SOL    HW275352   9.860  12.835  11.645
57860SOL     OW75353  10.084  11.839  10.633
57860SOL    HW175354  10.061  11.828  10.725
57860SOL    HW275355  10.007  11.882  10.594
57861SOL     OW75356   7.403   6.501   9.671
57861SOL    HW175357   7.403   6.488   9.576
57861SOL    HW275358   7.319   6.544   9.688
57862SOL     OW75359   2.663   4.331  12.861
57862SOL    HW175360   2.687   4.361  12.948
57862SOL    HW275361   2.601   4.260  12.875
57863SOL     OW75362   6.249   5.225   2.914
57863SOL    HW175363   6.208   5.305   2.947
57863SOL    HW275364   6.333   5.253   2.879
57864SOL     OW75365   6.732  13.956   4.792
57864SOL    HW175366   6.655  13.905   4.818
57864SOL    HW275367   6.710  13.989   4.705
57865SOL     OW75368  11.671   3.290   0.687
57865SOL    HW175369  11.624   3.360   0.642
57865SOL    HW275370  11.661   3.310   0.780
57866SOL     OW75371  14.145   8.053  14.544
57866SOL    HW175372  14.146   8.142  14.579
57866SOL    HW275373  14.139   7.997  14.621
57867SOL     OW75374   1.403   5.341  10.077
57867SOL    HW175375   1.432   5.389  10.155
57867SOL    HW275376   1.433   5.252  10.091
57868SOL     OW75377  11.576   1.452  12.749
57868SOL    HW175378  11.491   1.418  12.778
57868SOL    HW275379  11.633   1.376  12.747
57869SOL     OW75380   9.615  12.542   1.768
57869SOL    HW175381   9.672  12.572   1.840
57869SOL    HW275382   9.557  12.616   1.752
57870SOL     OW75383   5.571   5.387   0.936
57870SOL    HW175384   5.591   5.294   0.949
57870SOL    HW275385   5.491   5.401   0.987
57871SOL     OW75386  10.740   8.127   9.373
57871SOL    HW175387  10.757   8.036   9.397
57871SOL    HW275388  10.825   8.170   9.377
57872SOL     OW75389   5.046   6.008   3.778
57872SOL    HW175390   5.002   6.010   3.862
57872SOL    HW275391   5.052   6.099   3.750
57873SOL     OW75392  10.544  13.497   4.633
57873SOL    HW175393  10.475  13.506   4.567
57873SOL    HW275394  10.622  13.532   4.591
57874SOL     OW75395  10.484   1.230  11.862
57874SOL    HW175396  10.420   1.255  11.796
57874SOL    HW275397  10.432   1.216  11.942
57875SOL     OW75398   5.828   3.838   4.555
57875SOL    HW175399   5.773   3.773   4.600
57875SOL    HW275400   5.799   3.835   4.464
57876SOL     OW75401  13.340  13.022   4.182
57876SOL    HW175402  13.373  13.024   4.272
57876SOL    HW275403  13.278  13.094   4.178
57877SOL     OW75404   1.360   7.157  11.498
57877SOL    HW175405   1.435   7.104  11.470
57877SOL    HW275406   1.384   7.189  11.585
57878SOL     OW75407   1.075   5.404   7.118
57878SOL    HW175408   1.150   5.413   7.177
57878SOL    HW275409   1.110   5.427   7.032
57879SOL     OW75410   6.311   6.560   1.882
57879SOL    HW175411   6.338   6.639   1.836
57879SOL    HW275412   6.313   6.584   1.974
57880SOL     OW75413  13.931   4.501   5.021
57880SOL    HW175414  14.006   4.446   5.043
57880SOL    HW275415  13.912   4.551   5.100
57881SOL     OW75416   5.817   0.178   5.989
57881SOL    HW175417   5.730   0.164   5.952
57881SOL    HW275418   5.809   0.154   6.081
57882SOL     OW75419   8.698  13.745  12.399
57882SOL    HW175420   8.605  13.741  12.419
57882SOL    HW275421   8.740  13.693  12.467
57883SOL     OW75422   6.566   9.738   2.940
57883SOL    HW175423   6.607   9.690   2.868
57883SOL    HW275424   6.473   9.738   2.917
57884SOL     OW75425   6.818  13.169  10.275
57884SOL    HW175426   6.846  13.092  10.224
57884SOL    HW275427   6.836  13.145  10.366
57885SOL     OW75428   7.931   4.800   3.628
57885SOL    HW175429   7.998   4.852   3.583
57885SOL    HW275430   7.856   4.801   3.569
57886SOL     OW75431  10.639  13.258  14.365
57886SOL    HW175432  10.713  13.227  14.313
57886SOL    HW275433  10.649  13.215  14.450
57887SOL     OW75434   8.253   3.458   3.965
57887SOL    HW175435   8.168   3.485   4.001
57887SOL    HW275436   8.317   3.482   4.032
57888SOL     OW75437   0.632   3.570  13.428
57888SOL    HW175438   0.655   3.485  13.391
57888SOL    HW275439   0.685   3.577  13.507
57889SOL     OW75440   2.286  12.019  12.406
57889SOL    HW175441   2.258  11.955  12.341
57889SOL    HW275442   2.376  12.041  12.380
57890SOL     OW75443  13.695  12.428  11.870
57890SOL    HW175444  13.782  12.391  11.860
57890SOL    HW275445  13.653  12.373  11.937
57891SOL     OW75446   6.565   0.595   7.640
57891SOL    HW175447   6.530   0.518   7.596
57891SOL    HW275448   6.660   0.584   7.634
57892SOL     OW75449  14.636   5.571  11.866
57892SOL    HW175450  14.544   5.587  11.888
57892SOL    HW275451  14.645   5.476  11.874
57893SOL     OW75452   3.573   4.007   7.576
57893SOL    HW175453   3.558   4.084   7.520
57893SOL    HW275454   3.649   4.030   7.629
57894SOL     OW75455   8.304   0.762   1.221
57894SOL    HW175456   8.264   0.735   1.139
57894SOL    HW275457   8.382   0.811   1.196
57895SOL     OW75458   3.449  10.410   4.219
57895SOL    HW175459   3.471  10.367   4.136
57895SOL    HW275460   3.371  10.364   4.249
57896SOL     OW75461   2.031   5.480   4.152
57896SOL    HW175462   2.061   5.530   4.076
57896SOL    HW275463   2.072   5.522   4.227
57897SOL     OW75464   9.953   2.471   4.512
57897SOL    HW175465   9.872   2.420   4.512
57897SOL    HW275466   9.968   2.493   4.604
57898SOL     OW75467   2.481   4.212   4.771
57898SOL    HW175468   2.425   4.288   4.785
57898SOL    HW275469   2.525   4.229   4.688
57899SOL     OW75470  12.976   9.006   9.842
57899SOL    HW175471  12.906   8.967   9.790
57899SOL    HW275472  12.941   9.092   9.868
57900SOL     OW75473   8.679   2.171   7.777
57900SOL    HW175474   8.661   2.080   7.800
57900SOL    HW275475   8.602   2.197   7.726
57901SOL     OW75476   3.121   3.279   5.422
57901SOL    HW175477   3.097   3.196   5.464
57901SOL    HW275478   3.215   3.287   5.438
57902SOL     OW75479   2.218   5.446   2.452
57902SOL    HW175480   2.283   5.516   2.442
57902SOL    HW275481   2.239   5.406   2.537
57903SOL     OW75482  11.629   8.777   4.392
57903SOL    HW175483  11.678   8.825   4.458
57903SOL    HW275484  11.696   8.736   4.337
57904SOL     OW75485   8.808  12.718   1.035
57904SOL    HW175486   8.738  12.710   0.971
57904SOL    HW275487   8.822  12.813   1.043
57905SOL     OW75488   9.624   4.044   5.796
57905SOL    HW175489   9.592   4.133   5.809
57905SOL    HW275490   9.700   4.038   5.854
57906SOL     OW75491   9.166  11.694   8.829
57906SOL    HW175492   9.170  11.782   8.791
57906SOL    HW275493   9.205  11.703   8.916
57907SOL     OW75494  12.818   4.584   4.770
57907SOL    HW175495  12.724   4.576   4.752
57907SOL    HW275496  12.842   4.671   4.738
57908SOL     OW75497  12.465   9.547   4.747
57908SOL    HW175498  12.552   9.528   4.713
57908SOL    HW275499  12.482   9.591   4.831
57909SOL     OW75500  11.307  11.025   3.246
57909SOL    HW175501  11.344  10.940   3.223
57909SOL    HW275502  11.220  11.025   3.205
57910SOL     OW75503  13.069   2.294   2.283
57910SOL    HW175504  13.031   2.380   2.269
57910SOL    HW275505  13.135   2.285   2.214
57911SOL     OW75506   7.206  11.665  12.223
57911SOL    HW175507   7.113  11.682  12.210
57911SOL    HW275508   7.231  11.720  12.297
57912SOL     OW75509  12.179  10.297   2.389
57912SOL    HW175510  12.115  10.357   2.350
57912SOL    HW275511  12.201  10.335   2.473
57913SOL     OW75512   4.116   6.030  12.622
57913SOL    HW175513   4.158   6.066  12.543
57913SOL    HW275514   4.089   5.942  12.596
57914SOL     OW75515  14.621   5.013   3.405
57914SOL    HW175516  14.607   4.961   3.484
57914SOL    HW275517  14.662   5.094   3.435
57915SOL     OW75518   8.830  12.683   4.107
57915SOL    HW175519   8.917  12.650   4.083
57915SOL    HW275520   8.787  12.609   4.148
57916SOL     OW75521   7.358   8.132   5.609
57916SOL    HW175522   7.340   8.140   5.703
57916SOL    HW275523   7.424   8.063   5.604
57917SOL     OW75524   3.857   1.241  11.617
57917SOL    HW175525   3.951   1.259  11.628
57917SOL    HW275526   3.823   1.321  11.577
57918SOL     OW75527   8.573  10.101   0.014
57918SOL    HW175528   8.525  10.132  14.815
57918SOL    HW275529   8.506  10.065   0.072
57919SOL     OW75530   7.062   7.999  12.068
57919SOL    HW175531   6.997   7.946  12.115
57919SOL    HW275532   7.144   7.985  12.117
57920SOL     OW75533   4.165   3.584   4.039
57920SOL    HW175534   4.171   3.489   4.044
57920SOL    HW275535   4.080   3.605   4.079
57921SOL     OW75536  11.370   5.318   5.907
57921SOL    HW175537  11.390   5.233   5.947
57921SOL    HW275538  11.284   5.342   5.943
57922SOL     OW75539   1.585  12.566   0.914
57922SOL    HW175540   1.663  12.565   0.969
57922SOL    HW275541   1.608  12.512   0.838
57923SOL     OW75542   0.938   3.311   6.238
57923SOL    HW175543   0.972   3.400   6.229
57923SOL    HW275544   0.976   3.278   6.319
57924SOL     OW75545   8.259  10.744  10.133
57924SOL    HW175546   8.327  10.678  10.146
57924SOL    HW275547   8.302  10.815  10.086
57925SOL     OW75548   6.997  14.847   7.924
57925SOL    HW175549   7.051   0.021   7.984
57925SOL    HW275550   6.960   0.034   7.864
57926SOL     OW75551   1.145   0.483   2.091
57926SOL    HW175552   1.205   0.470   2.017
57926SOL    HW275553   1.085   0.409   2.085
57927SOL     OW75554   9.617   4.717   0.957
57927SOL    HW175555   9.686   4.748   1.016
57927SOL    HW275556   9.663   4.658   0.897
57928SOL     OW75557  12.816  11.790   1.462
57928SOL    HW175558  12.880  11.772   1.393
57928SOL    HW275559  12.828  11.719   1.525
57929SOL     OW75560   6.001   0.131   9.399
57929SOL    HW175561   6.075   0.180   9.363
57929SOL    HW275562   5.926   0.189   9.388
57930SOL     OW75563  10.466  13.503   4.115
57930SOL    HW175564  10.561  13.509   4.105
57930SOL    HW275565  10.443  13.418   4.077
57931SOL     OW75566  11.599   6.914   0.170
57931SOL    HW175567  11.611   6.936   0.078
57931SOL    HW275568  11.616   6.820   0.174
57932SOL     OW75569  14.814  10.928   2.709
57932SOL    HW175570  14.791  10.844   2.668
57932SOL    HW275571  14.840  10.983   2.635
57933SOL     OW75572  12.561  10.519   1.691
57933SOL    HW175573  12.508  10.470   1.629
57933SOL    HW275574  12.551  10.472   1.774
57934SOL     OW75575   3.606   3.585   3.233
57934SOL    HW175576   3.591   3.600   3.140
57934SOL    HW275577   3.535   3.526   3.260
57935SOL     OW75578   6.498   4.539   7.327
57935SOL    HW175579   6.442   4.529   7.404
57935SOL    HW275580   6.577   4.490   7.347
57936SOL     OW75581   2.509   6.296   8.563
57936SOL    HW175582   2.600   6.312   8.535
57936SOL    HW275583   2.517   6.231   8.632
57937SOL     OW75584  10.226   7.035   0.724
57937SOL    HW175585  10.208   7.018   0.631
57937SOL    HW275586  10.292   6.969   0.748
57938SOL     OW75587  11.161  14.710   0.575
57938SOL    HW175588  11.086  14.680   0.522
57938SOL    HW275589  11.126  14.784   0.625
57939SOL     OW75590   2.787   9.474   4.655
57939SOL    HW175591   2.851   9.403   4.650
57939SOL    HW275592   2.748   9.477   4.567
57940SOL     OW75593   0.457   0.399   3.711
57940SOL    HW175594   0.437   0.414   3.619
57940SOL    HW275595   0.546   0.434   3.722
57941SOL     OW75596   5.997   9.586   1.505
57941SOL    HW175597   5.920   9.554   1.551
57941SOL    HW275598   5.977   9.572   1.412
57942SOL     OW75599   5.861   0.822   8.566
57942SOL    HW175600   5.921   0.888   8.601
57942SOL    HW275601   5.778   0.870   8.552
57943SOL     OW75602  14.499   1.701  14.624
57943SOL    HW175603  14.427   1.682  14.684
57943SOL    HW275604  14.527   1.789  14.648
57944SOL     OW75605   5.047   3.216  11.946
57944SOL    HW175606   4.976   3.158  11.973
57944SOL    HW275607   5.006   3.281  11.890
57945SOL     OW75608   3.950   6.691   2.246
57945SOL    HW175609   3.938   6.728   2.334
57945SOL    HW275610   3.887   6.619   2.241
57946SOL     OW75611   5.209  10.374   2.496
57946SOL    HW175612   5.242  10.425   2.570
57946SOL    HW275613   5.130  10.420   2.467
57947SOL     OW75614  11.350   2.515   7.314
57947SOL    HW175615  11.278   2.459   7.285
57947SOL    HW275616  11.429   2.475   7.278
57948SOL     OW75617   6.493  10.727   3.500
57948SOL    HW175618   6.530  10.768   3.422
57948SOL    HW275619   6.569  10.696   3.550
57949SOL     OW75620  12.486   3.222   7.534
57949SOL    HW175621  12.435   3.148   7.498
57949SOL    HW275622  12.458   3.297   7.483
57950SOL     OW75623   0.598  12.637  13.320
57950SOL    HW175624   0.669  12.590  13.277
57950SOL    HW275625   0.604  12.611  13.412
57951SOL     OW75626  11.802   2.801   3.002
57951SOL    HW175627  11.866   2.730   3.007
57951SOL    HW275628  11.788   2.828   3.092
57952SOL     OW75629  14.405  11.717  10.065
57952SOL    HW175630  14.366  11.702   9.979
57952SOL    HW275631  14.330  11.725  10.124
57953SOL     OW75632   1.681  13.323   7.084
57953SOL    HW175633   1.709  13.393   7.026
57953SOL    HW275634   1.760  13.295   7.130
57954SOL     OW75635   7.775   2.916   9.090
57954SOL    HW175636   7.815   2.905   9.176
57954SOL    HW275637   7.835   2.974   9.043
57955SOL     OW75638   9.450  10.348   2.950
57955SOL    HW175639   9.408  10.368   2.866
57955SOL    HW275640   9.505  10.272   2.933
57956SOL     OW75641  14.750   3.519   8.322
57956SOL    HW175642  14.825   3.576   8.340
57956SOL    HW275643  14.773   3.436   8.363
57957SOL     OW75644   1.654   6.979   9.927
57957SOL    HW175645   1.666   6.888   9.953
57957SOL    HW275646   1.711   6.990   9.851
57958SOL     OW75647  11.297   8.535  10.318
57958SOL    HW175648  11.354   8.517  10.243
57958SOL    HW275649  11.311   8.628  10.336
57959SOL     OW75650  14.865  13.753  12.634
57959SOL    HW175651  14.824  13.840  12.634
57959SOL    HW275652   0.081  13.771  12.647
57960SOL     OW75653  10.680   9.619   0.028
57960SOL    HW175654  10.600   9.672   0.033
57960SOL    HW275655  10.748   9.681   0.001
57961SOL     OW75656   4.798   0.629  12.946
57961SOL    HW175657   4.730   0.591  13.001
57961SOL    HW275658   4.758   0.637  12.859
57962SOL     OW75659   7.062  12.396  10.361
57962SOL    HW175660   7.012  12.392  10.279
57962SOL    HW275661   7.149  12.364  10.337
57963SOL     OW75662  12.088   6.530  13.146
57963SOL    HW175663  12.008   6.576  13.121
57963SOL    HW275664  12.157   6.596  13.138
57964SOL     OW75665  14.744  11.438   8.707
57964SOL    HW175666  14.763  11.410   8.617
57964SOL    HW275667  14.664  11.390   8.730
57965SOL     OW75668   1.486   7.205   9.972
57965SOL    HW175669   1.537   7.129   9.942
57965SOL    HW275670   1.517   7.277   9.918
57966SOL     OW75671   6.251  12.037  10.752
57966SOL    HW175672   6.329  12.055  10.700
57966SOL    HW275673   6.184  12.096  10.717
57967SOL     OW75674   7.634   7.803   6.521
57967SOL    HW175675   7.691   7.844   6.587
57967SOL    HW275676   7.686   7.731   6.485
57968SOL     OW75677  14.646   4.973  14.556
57968SOL    HW175678  14.693   4.992  14.475
57968SOL    HW275679  14.642   5.057  14.602
57969SOL     OW75680  11.360   4.980   3.018
57969SOL    HW175681  11.420   4.912   3.049
57969SOL    HW275682  11.298   4.934   2.962
57970SOL     OW75683   6.541   7.307   8.854
57970SOL    HW175684   6.611   7.372   8.848
57970SOL    HW275685   6.587   7.223   8.851
57971SOL     OW75686  10.631   1.867   5.349
57971SOL    HW175687  10.619   1.797   5.284
57971SOL    HW275688  10.687   1.931   5.304
57972SOL     OW75689  11.808   9.732   9.081
57972SOL    HW175690  11.849   9.655   9.121
57972SOL    HW275691  11.734   9.697   9.031
57973SOL     OW75692   2.182   7.385  11.873
57973SOL    HW175693   2.124   7.328  11.925
57973SOL    HW275694   2.269   7.349  11.887
57974SOL     OW75695   8.152   6.346  11.649
57974SOL    HW175696   8.096   6.316  11.578
57974SOL    HW275697   8.182   6.265  11.691
57975SOL     OW75698  10.479   3.888   0.653
57975SOL    HW175699  10.463   3.869   0.561
57975SOL    HW275700  10.569   3.920   0.657
57976SOL     OW75701   1.980  10.139   1.679
57976SOL    HW175702   1.917  10.185   1.624
57976SOL    HW275703   1.963  10.171   1.768
57977SOL     OW75704  11.040   6.634   9.587
57977SOL    HW175705  10.960   6.610   9.634
57977SOL    HW275706  11.031   6.727   9.569
57978SOL     OW75707   6.280   1.016   5.006
57978SOL    HW175708   6.230   0.934   5.007
57978SOL    HW275709   6.370   0.988   4.990
57979SOL     OW75710   2.110   1.674   8.962
57979SOL    HW175711   2.080   1.647   8.876
57979SOL    HW275712   2.202   1.648   8.965
57980SOL     OW75713   6.070   3.710   7.897
57980SOL    HW175714   6.041   3.752   7.978
57980SOL    HW275715   5.996   3.717   7.838
57981SOL     OW75716   2.110   1.067   6.926
57981SOL    HW175717   2.122   1.004   6.855
57981SOL    HW275718   2.147   1.148   6.892
57982SOL     OW75719   1.748  10.302   6.909
57982SOL    HW175720   1.673  10.309   6.967
57982SOL    HW275721   1.770  10.392   6.886
57983SOL     OW75722   5.667   2.665   1.925
57983SOL    HW175723   5.618   2.584   1.932
57983SOL    HW275724   5.727   2.651   1.851
57984SOL     OW75725  10.090  10.230   3.005
57984SOL    HW175726  10.040  10.162   2.960
57984SOL    HW275727  10.046  10.238   3.090
57985SOL     OW75728  14.216   9.678   3.731
57985SOL    HW175729  14.135   9.717   3.763
57985SOL    HW275730  14.238   9.727   3.653
57986SOL     OW75731   5.636   2.089   7.178
57986SOL    HW175732   5.577   2.162   7.198
57986SOL    HW275733   5.723   2.126   7.187
57987SOL     OW75734   4.501   1.181  14.023
57987SOL    HW175735   4.413   1.203  14.052
57987SOL    HW275736   4.552   1.260  14.037
57988SOL     OW75737   9.957   5.380  11.957
57988SOL    HW175738   9.900   5.434  12.012
57988SOL    HW275739   9.929   5.400  11.867
57989SOL     OW75740   6.768   6.182  10.477
57989SOL    HW175741   6.710   6.253  10.503
57989SOL    HW275742   6.711   6.117  10.435
57990SOL     OW75743  12.110   3.449   1.504
57990SOL    HW175744  12.067   3.509   1.443
57990SOL    HW275745  12.197   3.435   1.466
57991SOL     OW75746   1.278  10.990   0.807
57991SOL    HW175747   1.184  10.990   0.788
57991SOL    HW275748   1.317  11.036   0.733
57992SOL     OW75749   4.849   0.315  10.860
57992SOL    HW175750   4.839   0.293  10.768
57992SOL    HW275751   4.927   0.268  10.888
57993SOL     OW75752   1.815   7.107   8.398
57993SOL    HW175753   1.746   7.168   8.373
57993SOL    HW275754   1.775   7.020   8.387
57994SOL     OW75755   1.736  13.925  10.649
57994SOL    HW175756   1.792  13.896  10.721
57994SOL    HW275757   1.677  13.851  10.633
57995SOL     OW75758  10.717  13.474   2.155
57995SOL    HW175759  10.647  13.416   2.188
57995SOL    HW275760  10.739  13.438   2.069
57996SOL     OW75761  14.848   6.649   4.805
57996SOL    HW175762  14.859   6.570   4.752
57996SOL    HW275763   0.055   6.659   4.850
57997SOL     OW75764  12.772  11.217   7.885
57997SOL    HW175765  12.742  11.197   7.974
57997SOL    HW275766  12.692  11.221   7.833
57998SOL     OW75767   7.835  10.196   8.476
57998SOL    HW175768   7.785  10.210   8.557
57998SOL    HW275769   7.846  10.101   8.471
57999SOL     OW75770   9.323   0.707   8.309
57999SOL    HW175771   9.267   0.768   8.358
57999SOL    HW275772   9.347   0.755   8.230
58000SOL     OW75773   1.595  12.104   8.791
58000SOL    HW175774   1.630  12.136   8.874
58000SOL    HW275775   1.583  12.183   8.738
58001SOL     OW75776  12.435   7.209  13.029
58001SOL    HW175777  12.403   7.299  13.034
58001SOL    HW275778  12.402   7.176  12.945
58002SOL     OW75779  11.098   5.418  10.267
58002SOL    HW175780  11.109   5.425  10.362
58002SOL    HW275781  11.003   5.416  10.254
58003SOL     OW75782  11.170   4.623   1.917
58003SOL    HW175783  11.111   4.684   1.962
58003SOL    HW275784  11.150   4.538   1.956
58004SOL     OW75785   0.129  12.038   1.689
58004SOL    HW175786   0.129  12.016   1.782
58004SOL    HW275787   0.091  11.961   1.646
58005SOL     OW75788   9.654   6.929   2.479
58005SOL    HW175789   9.599   6.969   2.412
58005SOL    HW275790   9.727   6.991   2.490
58006SOL     OW75791   1.849  14.825   6.531
58006SOL    HW175792   1.887  14.843   6.444
58006SOL    HW275793   1.806   0.029   6.555
58007SOL     OW75794   4.081  13.114  11.868
58007SOL    HW175795   4.047  13.175  11.934
58007SOL    HW275796   4.166  13.087  11.902
58008SOL     OW75797   4.070  11.037  12.517
58008SOL    HW175798   4.085  11.076  12.603
58008SOL    HW275799   3.975  11.038  12.506
58009SOL     OW75800   2.955   7.185   3.900
58009SOL    HW175801   2.882   7.232   3.940
58009SOL    HW275802   3.034   7.224   3.939
58010SOL     OW75803  12.775  11.457   1.939
58010SOL    HW175804  12.748  11.549   1.938
58010SOL    HW275805  12.715  11.414   1.877
58011SOL     OW75806   4.526   8.792  11.009
58011SOL    HW175807   4.553   8.883  11.023
58011SOL    HW275808   4.431   8.794  11.017
58012SOL     OW75809   5.651   1.148  12.589
58012SOL    HW175810   5.722   1.203  12.623
58012SOL    HW275811   5.685   1.115  12.506
58013SOL     OW75812   9.728  14.669   0.521
58013SOL    HW175813   9.724  14.671   0.426
58013SOL    HW275814   9.638  14.653   0.549
58014SOL     OW75815  14.739   3.634   3.929
58014SOL    HW175816  14.700   3.678   3.854
58014SOL    HW275817  14.695   3.672   4.005
58015SOL     OW75818   7.467  10.634  13.694
58015SOL    HW175819   7.408  10.652  13.768
58015SOL    HW275820   7.476  10.719  13.650
58016SOL     OW75821  14.216  11.379  13.978
58016SOL    HW175822  14.208  11.439  14.052
58016SOL    HW275823  14.258  11.301  14.015
58017SOL     OW75824   2.481   1.266  14.667
58017SOL    HW175825   2.573   1.246  14.685
58017SOL    HW275826   2.484   1.344  14.612
58018SOL     OW75827   7.672  10.100  10.567
58018SOL    HW175828   7.695  10.036  10.499
58018SOL    HW275829   7.741  10.089  10.633
58019SOL     OW75830   0.765  10.877   2.074
58019SOL    HW175831   0.753  10.956   2.126
58019SOL    HW275832   0.857  10.854   2.085
58020SOL     OW75833  12.916   1.179   9.783
58020SOL    HW175834  12.888   1.093   9.813
58020SOL    HW275835  12.862   1.240   9.835
58021SOL     OW75836   2.863  14.516   4.043
58021SOL    HW175837   2.800  14.561   3.987
58021SOL    HW275838   2.945  14.563   4.029
58022SOL     OW75839  14.661   5.324   8.153
58022SOL    HW175840  14.599   5.281   8.212
58022SOL    HW275841  14.614   5.331   8.070
58023SOL     OW75842  13.722  11.450   2.061
58023SOL    HW175843  13.663  11.414   1.995
58023SOL    HW275844  13.790  11.383   2.073
58024SOL     OW75845   5.415   1.541   6.140
58024SOL    HW175846   5.332   1.587   6.154
58024SOL    HW275847   5.448   1.523   6.228
58025SOL     OW75848   7.595   1.580   7.491
58025SOL    HW175849   7.517   1.634   7.481
58025SOL    HW275850   7.587   1.542   7.578
58026SOL     OW75851  14.273   2.088   1.961
58026SOL    HW175852  14.316   2.141   2.028
58026SOL    HW275853  14.192   2.058   2.002
58027SOL     OW75854  11.260  10.254   2.860
58027SOL    HW175855  11.344  10.299   2.846
58027SOL    HW275856  11.194  10.322   2.844
58028SOL     OW75857   0.095  13.655   7.288
58028SOL    HW175858   0.166  13.715   7.265
58028SOL    HW275859   0.016  13.709   7.283
58029SOL     OW75860   4.944  14.231   0.031
58029SOL    HW175861   5.001  14.162   0.064
58029SOL    HW275862   4.889  14.188  14.842
58030SOL     OW75863   3.959  11.868   7.679
58030SOL    HW175864   3.936  11.789   7.629
58030SOL    HW275865   4.048  11.889   7.651
58031SOL     OW75866  10.949   8.525  12.636
58031SOL    HW175867  10.995   8.602  12.602
58031SOL    HW275868  10.931   8.546  12.728
58032SOL     OW75869   0.981   1.827  12.746
58032SOL    HW175870   1.031   1.906  12.766
58032SOL    HW275871   0.969   1.784  12.830
58033SOL     OW75872   3.856   3.766   1.908
58033SOL    HW175873   3.863   3.861   1.905
58033SOL    HW275874   3.834   3.746   2.000
58034SOL     OW75875  11.992   8.498   5.886
58034SOL    HW175876  12.028   8.437   5.950
58034SOL    HW275877  12.066   8.551   5.858
58035SOL     OW75878   7.357  12.400  12.878
58035SOL    HW175879   7.447  12.395  12.910
58035SOL    HW275880   7.350  12.331  12.813
58036SOL     OW75881  10.692  12.606   5.964
58036SOL    HW175882  10.667  12.522   5.925
58036SOL    HW275883  10.703  12.587   6.057
58037SOL     OW75884  11.487  11.386   5.822
58037SOL    HW175885  11.475  11.404   5.729
58037SOL    HW275886  11.573  11.344   5.828
58038SOL     OW75887  13.394  13.874   6.740
58038SOL    HW175888  13.437  13.874   6.825
58038SOL    HW275889  13.360  13.963   6.730
58039SOL     OW75890   9.047   8.428  13.343
58039SOL    HW175891   9.121   8.374  13.371
58039SOL    HW275892   9.052   8.427  13.247
58040SOL     OW75893   8.082   4.179  13.263
58040SOL    HW175894   8.105   4.242  13.196
58040SOL    HW275895   8.068   4.097  13.216
58041SOL     OW75896   3.554   3.805   9.665
58041SOL    HW175897   3.535   3.714   9.644
58041SOL    HW275898   3.535   3.853   9.584
58042SOL     OW75899   7.073   4.200   3.783
58042SOL    HW175900   7.080   4.284   3.829
58042SOL    HW275901   7.164   4.172   3.771
58043SOL     OW75902   5.051   8.962   9.156
58043SOL    HW175903   5.056   9.031   9.089
58043SOL    HW275904   5.040   9.009   9.238
58044SOL     OW75905   6.334   6.837   1.817
58044SOL    HW175906   6.331   6.804   1.727
58044SOL    HW275907   6.394   6.911   1.814
58045SOL     OW75908   3.747   5.479   6.197
58045SOL    HW175909   3.834   5.518   6.200
58045SOL    HW275910   3.750   5.419   6.122
58046SOL     OW75911  11.266   0.805  12.399
58046SOL    HW175912  11.304   0.799  12.486
58046SOL    HW275913  11.171   0.803  12.413
58047SOL     OW75914   7.756  13.849  12.133
58047SOL    HW175915   7.797  13.805  12.208
58047SOL    HW275916   7.822  13.912  12.104
58048SOL     OW75917  11.985   0.247   8.819
58048SOL    HW175918  11.981   0.289   8.904
58048SOL    HW275919  11.926   0.298   8.763
58049SOL     OW75920   1.864   4.005  10.632
58049SOL    HW175921   1.947   4.025  10.674
58049SOL    HW275922   1.861   3.909  10.628
58050SOL     OW75923   3.306   9.461   7.574
58050SOL    HW175924   3.390   9.467   7.620
58050SOL    HW275925   3.255   9.399   7.626
58051SOL     OW75926   5.606   0.147  10.583
58051SOL    HW175927   5.681   0.205  10.596
58051SOL    HW275928   5.611   0.085  10.655
58052SOL     OW75929  14.410   7.704   4.930
58052SOL    HW175930  14.368   7.618   4.932
58052SOL    HW275931  14.500   7.688   4.958
58053SOL     OW75932   7.549   7.646  12.072
58053SOL    HW175933   7.479   7.610  12.018
58053SOL    HW275934   7.611   7.574  12.083
58054SOL     OW75935   3.115   8.802   3.575
58054SOL    HW175936   3.140   8.715   3.605
58054SOL    HW275937   3.198   8.844   3.552
58055SOL     OW75938  11.645  11.930   0.247
58055SOL    HW175939  11.599  11.944   0.329
58055SOL    HW275940  11.611  11.998   0.189
58056SOL     OW75941   3.584  13.273   6.143
58056SOL    HW175942   3.635  13.264   6.223
58056SOL    HW275943   3.627  13.213   6.081
58057SOL     OW75944   0.303   4.826  12.265
58057SOL    HW175945   0.254   4.906  12.284
58057SOL    HW275946   0.329   4.793  12.351
58058SOL     OW75947   7.263  13.031  10.437
58058SOL    HW175948   7.290  13.014  10.347
58058SOL    HW275949   7.185  12.979  10.450
58059SOL     OW75950  12.342   0.788  10.181
58059SOL    HW175951  12.376   0.698  10.182
58059SOL    HW275952  12.248   0.778  10.191
58060SOL     OW75953   0.964  12.861  10.129
58060SOL    HW175954   1.007  12.942  10.157
58060SOL    HW275955   0.884  12.858  10.181
58061SOL     OW75956  10.279   8.324   0.416
58061SOL    HW175957  10.337   8.323   0.493
58061SOL    HW275958  10.256   8.416   0.405
58062SOL     OW75959   0.412   1.545   1.968
58062SOL    HW175960   0.506   1.564   1.974
58062SOL    HW275961   0.385   1.528   2.058
58063SOL     OW75962   1.384  14.452   2.614
58063SOL    HW175963   1.379  14.412   2.701
58063SOL    HW275964   1.468  14.497   2.612
58064SOL     OW75965  14.434  14.387   6.371
58064SOL    HW175966  14.411  14.416   6.459
58064SOL    HW275967  14.464  14.297   6.382
58065SOL     OW75968   7.707   4.452   4.814
58065SOL    HW175969   7.743   4.503   4.887
58065SOL    HW275970   7.614   4.475   4.812
58066SOL     OW75971  11.128   5.448   7.957
58066SOL    HW175972  11.140   5.353   7.965
58066SOL    HW275973  11.090   5.459   7.870
58067SOL     OW75974  13.168  10.411   2.375
58067SOL    HW175975  13.262  10.404   2.387
58067SOL    HW275976  13.136  10.454   2.454
58068SOL     OW75977   3.101   4.164   2.480
58068SOL    HW175978   3.085   4.254   2.452
58068SOL    HW275979   3.175   4.171   2.541
58069SOL     OW75980   3.072   4.446  12.663
58069SOL    HW175981   3.024   4.468  12.583
58069SOL    HW275982   3.016   4.477  12.734
58070SOL     OW75983   5.584  12.156  13.154
58070SOL    HW175984   5.676  12.141  13.178
58070SOL    HW275985   5.535  12.130  13.232
58071SOL     OW75986   1.623   7.711   2.894
58071SOL    HW175987   1.565   7.678   2.962
58071SOL    HW275988   1.656   7.632   2.851
58072SOL     OW75989   1.347   3.961   4.840
58072SOL    HW175990   1.297   3.946   4.920
58072SOL    HW275991   1.400   3.882   4.829
58073SOL     OW75992  14.163   4.504   5.549
58073SOL    HW175993  14.208   4.484   5.630
58073SOL    HW275994  14.073   4.472   5.563
58074SOL     OW75995   6.848   4.396   3.971
58074SOL    HW175996   6.928   4.424   3.926
58074SOL    HW275997   6.782   4.392   3.903
58075SOL     OW75998  10.352   3.124  13.805
58075SOL    HW175999  10.386   3.213  13.793
58075SOL    HW276000  10.338   3.092  13.717
58076SOL     OW76001  11.119   4.309   6.401
58076SOL    HW176002  11.193   4.367   6.420
58076SOL    HW276003  11.155   4.244   6.340
58077SOL     OW76004   9.685  14.111  11.228
58077SOL    HW176005   9.598  14.073  11.240
58077SOL    HW276006   9.735  14.082  11.304
58078SOL     OW76007   7.233   7.321   7.872
58078SOL    HW176008   7.138   7.328   7.879
58078SOL    HW276009   7.257   7.251   7.933
58079SOL     OW76010  13.285   8.930  14.479
58079SOL    HW176011  13.254   9.020  14.470
58079SOL    HW276012  13.245   8.884  14.405
58080SOL     OW76013  13.685   7.669  10.866
58080SOL    HW176014  13.717   7.744  10.816
58080SOL    HW276015  13.764   7.631  10.905
58081SOL     OW76016   4.761   1.030   9.354
58081SOL    HW176017   4.677   1.029   9.398
58081SOL    HW276018   4.800   1.114   9.378
58082SOL     OW76019   2.663   6.610   7.270
58082SOL    HW176020   2.723   6.677   7.302
58082SOL    HW276021   2.647   6.554   7.345
58083SOL     OW76022   6.633   4.910  14.384
58083SOL    HW176023   6.603   4.961  14.459
58083SOL    HW276024   6.559   4.912  14.323
58084SOL     OW76025   9.404   4.150   6.482
58084SOL    HW176026   9.394   4.096   6.560
58084SOL    HW276027   9.472   4.105   6.431
58085SOL     OW76028   4.875  11.875   5.679
58085SOL    HW176029   4.848  11.851   5.590
58085SOL    HW276030   4.797  11.860   5.732
58086SOL     OW76031  13.571   2.991  13.491
58086SOL    HW176032  13.604   2.903  13.506
58086SOL    HW276033  13.500   3.001  13.555
58087SOL     OW76034   5.682   0.273   4.219
58087SOL    HW176035   5.687   0.365   4.247
58087SOL    HW276036   5.632   0.230   4.288
58088SOL     OW76037   7.262   2.946  12.758
58088SOL    HW176038   7.286   2.916  12.670
58088SOL    HW276039   7.213   3.027  12.743
58089SOL     OW76040   0.434   3.803   2.195
58089SOL    HW176041   0.498   3.874   2.199
58089SOL    HW276042   0.458   3.745   2.268
58090SOL     OW76043   3.304   4.710   4.965
58090SOL    HW176044   3.216   4.678   4.982
58090SOL    HW276045   3.357   4.631   4.954
58091SOL     OW76046   5.097   1.414  13.455
58091SOL    HW176047   5.029   1.476  13.428
58091SOL    HW276048   5.179   1.460  13.437
58092SOL     OW76049   0.940  10.337   9.737
58092SOL    HW176050   1.033  10.352   9.753
58092SOL    HW276051   0.935  10.309   9.645
58093SOL     OW76052   3.769   1.152   8.927
58093SOL    HW176053   3.712   1.166   9.002
58093SOL    HW276054   3.710   1.155   8.851
58094SOL     OW76055  11.650   2.509   3.282
58094SOL    HW176056  11.586   2.438   3.285
58094SOL    HW276057  11.608   2.577   3.230
58095SOL     OW76058   5.707   1.820  10.394
58095SOL    HW176059   5.794   1.804  10.358
58095SOL    HW276060   5.698   1.757  10.465
58096SOL     OW76061   9.889   9.842   7.846
58096SOL    HW176062   9.861   9.802   7.928
58096SOL    HW276063   9.870   9.776   7.779
58097SOL     OW76064   2.191   7.257   0.969
58097SOL    HW176065   2.210   7.211   1.051
58097SOL    HW276066   2.117   7.313   0.989
58098SOL     OW76067   6.213  14.339   1.442
58098SOL    HW176068   6.242  14.258   1.400
58098SOL    HW276069   6.127  14.356   1.406
58099SOL     OW76070  13.129   8.466   0.234
58099SOL    HW176071  13.203   8.456   0.294
58099SOL    HW276072  13.067   8.399   0.262
58100SOL     OW76073  11.515   4.252   7.210
58100SOL    HW176074  11.420   4.256   7.220
58100SOL    HW276075  11.545   4.338   7.237
58101SOL     OW76076   2.886   1.139   2.782
58101SOL    HW176077   2.819   1.095   2.834
58101SOL    HW276078   2.962   1.143   2.841
58102SOL     OW76079  14.650   8.122   2.238
58102SOL    HW176080  14.637   8.075   2.320
58102SOL    HW276081  14.571   8.175   2.227
58103SOL     OW76082   8.265   1.915  13.798
58103SOL    HW176083   8.230   1.934  13.885
58103SOL    HW276084   8.191   1.924  13.739
58104SOL     OW76085   8.865  13.827  12.839
58104SOL    HW176086   8.885  13.845  12.931
58104SOL    HW276087   8.906  13.900  12.792
58105SOL     OW76088  10.181   8.194   4.925
58105SOL    HW176089  10.199   8.244   5.004
58105SOL    HW276090  10.173   8.103   4.954
58106SOL     OW76091   2.704  10.740   2.217
58106SOL    HW176092   2.672  10.786   2.140
58106SOL    HW276093   2.628  10.733   2.274
58107SOL     OW76094   1.238   2.866   7.219
58107SOL    HW176095   1.313   2.919   7.192
58107SOL    HW276096   1.193   2.846   7.137
58108SOL     OW76097   1.005   4.917  14.033
58108SOL    HW176098   1.077   4.857  14.051
58108SOL    HW276099   1.002   4.924  13.938
58109SOL     OW76100  10.519   1.323  10.060
58109SOL    HW176101  10.548   1.286   9.976
58109SOL    HW276102  10.554   1.263  10.126
58110SOL     OW76103   4.798   4.518   9.489
58110SOL    HW176104   4.846   4.480   9.562
58110SOL    HW276105   4.865   4.538   9.424
58111SOL     OW76106   3.205   2.407   8.887
58111SOL    HW176107   3.141   2.346   8.849
58111SOL    HW276108   3.194   2.397   8.982
58112SOL     OW76109  11.947   9.041   2.806
58112SOL    HW176110  11.978   9.077   2.889
58112SOL    HW276111  12.003   8.965   2.790
58113SOL     OW76112   6.428   3.386  14.819
58113SOL    HW176113   6.359   3.448  14.839
58113SOL    HW276114   6.400   3.344  14.737
58114SOL     OW76115  10.868  12.997   0.403
58114SOL    HW176116  10.811  13.062   0.362
58114SOL    HW276117  10.840  12.994   0.494
58115SOL     OW76118  10.711   1.616   2.296
58115SOL    HW176119  10.669   1.580   2.374
58115SOL    HW276120  10.801   1.585   2.300
58116SOL     OW76121   0.213   0.457   1.078
58116SOL    HW176122   0.167   0.431   1.158
58116SOL    HW276123   0.190   0.390   1.014
58117SOL     OW76124  11.764   7.390  13.617
58117SOL    HW176125  11.680   7.423  13.585
58117SOL    HW276126  11.829   7.423  13.555
58118SOL     OW76127   2.990   3.649   0.662
58118SOL    HW176128   2.961   3.567   0.621
58118SOL    HW276129   3.081   3.659   0.634
58119SOL     OW76130   8.884   8.070   9.705
58119SOL    HW176131   8.910   8.110   9.622
58119SOL    HW276132   8.906   7.977   9.695
58120SOL     OW76133   9.483   1.658   9.168
58120SOL    HW176134   9.510   1.708   9.091
58120SOL    HW276135   9.560   1.655   9.224
58121SOL     OW76136  12.707  11.431   5.931
58121SOL    HW176137  12.636  11.367   5.924
58121SOL    HW276138  12.732  11.429   6.023
58122SOL     OW76139   3.911   0.013   9.416
58122SOL    HW176140   3.950  14.805   9.396
58122SOL    HW276141   3.818  14.872   9.428
58123SOL     OW76142   7.373   2.250   7.074
58123SOL    HW176143   7.437   2.234   7.143
58123SOL    HW276144   7.425   2.265   6.996
58124SOL     OW76145   4.172   3.294  11.580
58124SOL    HW176146   4.101   3.248  11.624
58124SOL    HW276147   4.248   3.236  11.590
58125SOL     OW76148   8.981   0.884   4.657
58125SOL    HW176149   8.968   0.923   4.571
58125SOL    HW276150   9.016   0.955   4.711
58126SOL     OW76151   0.353   5.528   0.309
58126SOL    HW176152   0.378   5.594   0.373
58126SOL    HW276153   0.271   5.491   0.343
58127SOL     OW76154   6.366   2.870   2.203
58127SOL    HW176155   6.303   2.942   2.207
58127SOL    HW276156   6.408   2.879   2.118
58128SOL     OW76157   6.244  12.811   9.918
58128SOL    HW176158   6.217  12.730   9.962
58128SOL    HW276159   6.339  12.806   9.916
58129SOL     OW76160  14.212   8.675   8.252
58129SOL    HW176161  14.230   8.767   8.234
58129SOL    HW276162  14.204   8.670   8.347
58130SOL     OW76163   3.260  12.266  10.911
58130SOL    HW176164   3.332  12.205  10.924
58130SOL    HW276165   3.301  12.345  10.876
58131SOL     OW76166  14.777   9.983  10.034
58131SOL    HW176167  14.804   9.905   9.985
58131SOL    HW276168  14.833  10.053  10.002
58132SOL     OW76169  12.674   6.770   4.084
58132SOL    HW176170  12.665   6.866   4.088
58132SOL    HW276171  12.619   6.738   4.155
58133SOL     OW76172  13.880  12.299   2.320
58133SOL    HW176173  13.929  12.377   2.346
58133SOL    HW276174  13.942  12.248   2.268
58134SOL     OW76175   0.490   0.721   0.713
58134SOL    HW176176   0.442   0.639   0.725
58134SOL    HW276177   0.519   0.719   0.622
58135SOL     OW76178   1.797   2.397   9.706
58135SOL    HW176179   1.821   2.376   9.616
58135SOL    HW276180   1.850   2.338   9.759
58136SOL     OW76181   5.984   4.714  13.980
58136SOL    HW176182   6.005   4.741  14.069
58136SOL    HW276183   5.956   4.795  13.936
58137SOL     OW76184   9.371   2.929  10.813
58137SOL    HW176185   9.415   2.912  10.897
58137SOL    HW276186   9.416   2.872  10.750
58138SOL     OW76187   9.852   8.225   5.305
58138SOL    HW176188   9.864   8.130   5.310
58138SOL    HW276189   9.847   8.253   5.397
58139SOL     OW76190   5.975  10.792  11.754
58139SOL    HW176191   5.883  10.781  11.732
58139SOL    HW276192   6.019  10.806  11.670
58140SOL     OW76193   7.656  13.505  10.892
58140SOL    HW176194   7.641  13.522  10.799
58140SOL    HW276195   7.674  13.591  10.930
58141SOL     OW76196  12.248   3.341   6.537
58141SOL    HW176197  12.309   3.318   6.607
58141SOL    HW276198  12.168   3.366   6.582
58142SOL     OW76199   9.671   8.065   9.918
58142SOL    HW176200   9.755   8.063   9.873
58142SOL    HW276201   9.620   8.130   9.870
58143SOL     OW76202  10.377  13.480  13.061
58143SOL    HW176203  10.372  13.387  13.086
58143SOL    HW276204  10.306  13.492  12.998
58144SOL     OW76205  13.825   7.526  14.873
58144SOL    HW176206  13.867   7.539   0.081
58144SOL    HW276207  13.881   7.573  14.812
58145SOL     OW76208   5.130   4.669   6.073
58145SOL    HW176209   5.196   4.674   6.142
58145SOL    HW276210   5.115   4.760   6.047
58146SOL     OW76211   7.496  10.989   0.672
58146SOL    HW176212   7.467  10.899   0.661
58146SOL    HW276213   7.559  11.003   0.602
58147SOL     OW76214  14.221   1.614   5.030
58147SOL    HW176215  14.214   1.704   4.997
58147SOL    HW276216  14.312   1.589   5.013
58148SOL     OW76217  10.274  13.597   7.210
58148SOL    HW176218  10.213  13.574   7.280
58148SOL    HW276219  10.218  13.605   7.132
58149SOL     OW76220   9.504  13.836  13.136
58149SOL    HW176221   9.489  13.892  13.212
58149SOL    HW276222   9.589  13.794  13.153
58150SOL     OW76223   7.053   7.329   7.085
58150SOL    HW176224   7.027   7.415   7.054
58150SOL    HW276225   7.016   7.323   7.173
58151SOL     OW76226   6.764   8.216  11.523
58151SOL    HW176227   6.829   8.286  11.521
58151SOL    HW276228   6.788   8.159  11.450
58152SOL     OW76229  14.164   1.849   1.085
58152SOL    HW176230  14.188   1.941   1.095
58152SOL    HW276231  14.106   1.848   1.009
58153SOL     OW76232   5.985   5.036   7.786
58153SOL    HW176233   5.917   5.025   7.853
58153SOL    HW276234   5.970   4.964   7.725
58154SOL     OW76235   1.098  11.625   2.178
58154SOL    HW176236   1.015  11.600   2.218
58154SOL    HW276237   1.089  11.601   2.086
58155SOL     OW76238   9.895   6.608   1.353
58155SOL    HW176239   9.899   6.704   1.352
58155SOL    HW276240   9.976   6.581   1.308
58156SOL     OW76241   5.704  13.944   6.084
58156SOL    HW176242   5.653  13.983   6.013
58156SOL    HW276243   5.667  13.982   6.163
58157SOL     OW76244   9.817  13.564   0.354
58157SOL    HW176245   9.754  13.541   0.421
58157SOL    HW276246   9.831  13.483   0.305
58158SOL     OW76247   6.894   2.413  10.168
58158SOL    HW176248   6.854   2.360  10.237
58158SOL    HW276249   6.962   2.357  10.131
58159SOL     OW76250  14.090  10.386   0.434
58159SOL    HW176251  14.146  10.457   0.404
58159SOL    HW276252  14.107  10.380   0.528
58160SOL     OW76253  11.902  11.888   5.409
58160SOL    HW176254  11.928  11.917   5.497
58160SOL    HW276255  11.813  11.854   5.419
58161SOL     OW76256  11.094  14.289   9.878
58161SOL    HW176257  11.107  14.308   9.785
58161SOL    HW276258  11.177  14.312   9.919
58162SOL     OW76259   4.785  14.577  13.565
58162SOL    HW176260   4.737  14.575  13.648
58162SOL    HW276261   4.874  14.601  13.589
58163SOL     OW76262   4.350  12.756  11.912
58163SOL    HW176263   4.358  12.775  11.818
58163SOL    HW276264   4.291  12.681  11.916
58164SOL     OW76265   6.775  10.744  12.721
58164SOL    HW176266   6.725  10.685  12.665
58164SOL    HW276267   6.757  10.831  12.685
58165SOL     OW76268  10.715  10.893   0.819
58165SOL    HW176269  10.791  10.893   0.762
58165SOL    HW276270  10.673  10.808   0.804
58166SOL     OW76271  10.213   7.251   0.117
58166SOL    HW176272  10.275   7.280   0.183
58166SOL    HW276273  10.142   7.316   0.121
58167SOL     OW76274   3.120   0.146   8.736
58167SOL    HW176275   3.046   0.098   8.699
58167SOL    HW276276   3.099   0.238   8.719
58168SOL     OW76277   0.359  12.841   1.955
58168SOL    HW176278   0.336  12.820   2.045
58168SOL    HW276279   0.442  12.796   1.940
58169SOL     OW76280   7.681  12.344   2.064
58169SOL    HW176281   7.587  12.328   2.070
58169SOL    HW276282   7.688  12.439   2.050
58170SOL     OW76283   6.125   7.932  12.746
58170SOL    HW176284   6.131   8.024  12.773
58170SOL    HW276285   6.066   7.933  12.671
58171SOL     OW76286  12.776   3.377   4.329
58171SOL    HW176287  12.797   3.442   4.397
58171SOL    HW276288  12.823   3.407   4.252
58172SOL     OW76289  13.111   8.468  10.546
58172SOL    HW176290  13.042   8.475  10.480
58172SOL    HW276291  13.069   8.497  10.627
58173SOL     OW76292   8.297   0.941  10.881
58173SOL    HW176293   8.294   1.026  10.837
58173SOL    HW276294   8.292   0.877  10.809
58174SOL     OW76295   6.627   7.428   5.139
58174SOL    HW176296   6.555   7.463   5.190
58174SOL    HW276297   6.663   7.504   5.093
58175SOL     OW76298  11.523   6.644   8.262
58175SOL    HW176299  11.469   6.619   8.187
58175SOL    HW276300  11.470   6.708   8.309
58176SOL     OW76301   8.204   9.478   2.773
58176SOL    HW176302   8.181   9.565   2.740
58176SOL    HW276303   8.275   9.495   2.835
58177SOL     OW76304   7.658  10.425  12.614
58177SOL    HW176305   7.580  10.457  12.660
58177SOL    HW276306   7.637  10.437  12.521
58178SOL     OW76307   8.746  14.125   6.300
58178SOL    HW176308   8.737  14.209   6.345
58178SOL    HW276309   8.664  14.113   6.253
58179SOL     OW76310  11.052  14.671   5.510
58179SOL    HW176311  10.995  14.690   5.584
58179SOL    HW276312  11.035  14.743   5.448
58180SOL     OW76313  13.145  13.149   7.245
58180SOL    HW176314  13.128  13.211   7.173
58180SOL    HW276315  13.102  13.188   7.321
58181SOL     OW76316   6.822  10.605  14.392
58181SOL    HW176317   6.825  10.511  14.374
58181SOL    HW276318   6.897  10.641  14.345
58182SOL     OW76319  10.387   3.577   4.921
58182SOL    HW176320  10.400   3.656   4.974
58182SOL    HW276321  10.469   3.528   4.932
58183SOL     OW76322   4.516   2.760  12.737
58183SOL    HW176323   4.576   2.835  12.736
58183SOL    HW276324   4.571   2.687  12.765
58184SOL     OW76325   8.172   0.611  12.178
58184SOL    HW176326   8.198   0.553  12.250
58184SOL    HW276327   8.198   0.698  12.207
58185SOL     OW76328  14.378   0.118   5.228
58185SOL    HW176329  14.439   0.101   5.299
58185SOL    HW276330  14.367   0.034   5.184
58186SOL     OW76331   2.825  14.711   1.732
58186SOL    HW176332   2.787  14.775   1.672
58186SOL    HW276333   2.919  14.718   1.719
58187SOL     OW76334   8.460  11.309   4.273
58187SOL    HW176335   8.465  11.404   4.258
58187SOL    HW276336   8.404  11.277   4.202
58188SOL     OW76337  11.171   3.110   2.467
58188SOL    HW176338  11.179   3.015   2.469
58188SOL    HW276339  11.082   3.127   2.496
58189SOL     OW76340   7.664   0.676  13.909
58189SOL    HW176341   7.641   0.704  13.998
58189SOL    HW276342   7.694   0.586  13.919
58190SOL     OW76343  13.177  10.739  10.699
58190SOL    HW176344  13.157  10.833  10.705
58190SOL    HW276345  13.273  10.736  10.699
58191SOL     OW76346  12.280   4.510   5.836
58191SOL    HW176347  12.292   4.420   5.805
58191SOL    HW276348  12.353   4.559   5.798
58192SOL     OW76349   0.873   7.139  12.240
58192SOL    HW176350   0.945   7.194  12.271
58192SOL    HW276351   0.795   7.193  12.255
58193SOL     OW76352   9.912   8.793   3.750
58193SOL    HW176353   9.943   8.712   3.792
58193SOL    HW276354   9.831   8.768   3.706
58194SOL     OW76355   2.707   4.227   7.181
58194SOL    HW176356   2.764   4.304   7.178
58194SOL    HW276357   2.708   4.199   7.272
58195SOL     OW76358   6.849   0.740   0.020
58195SOL    HW176359   6.756   0.717   0.018
58195SOL    HW276360   6.893   0.659   0.046
58196SOL     OW76361  10.916   9.304   1.355
58196SOL    HW176362  10.972   9.234   1.389
58196SOL    HW276363  10.911   9.288   1.261
58197SOL     OW76364   4.267   6.956  11.224
58197SOL    HW176365   4.266   6.876  11.171
58197SOL    HW276366   4.260   6.925  11.314
58198SOL     OW76367  14.386  11.574  10.347
58198SOL    HW176368  14.325  11.575  10.274
58198SOL    HW276369  14.331  11.587  10.425
58199SOL     OW76370   1.913   9.490   8.781
58199SOL    HW176371   1.896   9.427   8.852
58199SOL    HW276372   1.830   9.536   8.769
58200SOL     OW76373  14.871  10.827   9.128
58200SOL    HW176374  14.779  10.854   9.127
58200SOL    HW276375   0.038  10.896   9.177
58201SOL     OW76376   1.135  12.678  12.993
58201SOL    HW176377   1.224  12.655  12.966
58201SOL    HW276378   1.144  12.708  13.083
58202SOL     OW76379   7.019   2.439  13.947
58202SOL    HW176380   7.092   2.471  13.999
58202SOL    HW276381   7.040   2.465  13.857
58203SOL     OW76382  12.321   6.094   3.402
58203SOL    HW176383  12.371   6.175   3.390
58203SOL    HW276384  12.251   6.117   3.463
58204SOL     OW76385  14.719   4.717   8.945
58204SOL    HW176386  14.629   4.731   8.914
58204SOL    HW276387  14.770   4.783   8.898
58205SOL     OW76388   7.960  13.384   2.709
58205SOL    HW176389   8.017  13.321   2.754
58205SOL    HW276390   8.018  13.457   2.688
58206SOL     OW76391   2.801   2.464   7.058
58206SOL    HW176392   2.791   2.467   6.963
58206SOL    HW276393   2.846   2.545   7.080
58207SOL     OW76394   6.332   3.651  13.200
58207SOL    HW176395   6.342   3.746  13.199
58207SOL    HW276396   6.420   3.618  13.218
58208SOL     OW76397  11.793  10.650   8.021
58208SOL    HW176398  11.870  10.601   8.050
58208SOL    HW276399  11.759  10.691   8.100
58209SOL     OW76400   5.891   9.032  11.156
58209SOL    HW176401   5.914   8.944  11.127
58209SOL    HW276402   5.812   9.020  11.208
58210SOL     OW76403  11.043   8.456   9.324
58210SOL    HW176404  11.015   8.431   9.236
58210SOL    HW276405  11.050   8.551   9.322
58211SOL     OW76406  10.203  13.783  13.242
58211SOL    HW176407  10.155  13.833  13.176
58211SOL    HW276408  10.286  13.760  13.200
58212SOL     OW76409   8.288  13.966   6.103
58212SOL    HW176410   8.225  13.986   6.173
58212SOL    HW276411   8.238  13.973   6.022
58213SOL     OW76412   4.607  13.897   6.914
58213SOL    HW176413   4.582  13.948   6.991
58213SOL    HW276414   4.528  13.894   6.861
58214SOL     OW76415  11.326   2.565  14.340
58214SOL    HW176416  11.374   2.631  14.391
58214SOL    HW276417  11.309   2.608  14.256
58215SOL     OW76418   0.497   8.985  14.841
58215SOL    HW176419   0.543   8.901  14.844
58215SOL    HW276420   0.419   8.971   0.018
58216SOL     OW76421   0.855   2.263   8.432
58216SOL    HW176422   0.761   2.282   8.437
58216SOL    HW276423   0.897   2.349   8.428
58217SOL     OW76424   2.092   5.545  10.177
58217SOL    HW176425   2.110   5.499  10.259
58217SOL    HW276426   2.107   5.479  10.109
58218SOL     OW76427   0.497  11.921   8.666
58218SOL    HW176428   0.589  11.897   8.658
58218SOL    HW276429   0.484  11.991   8.601
58219SOL     OW76430   0.128  11.002   5.093
58219SOL    HW176431   0.106  10.950   5.015
58219SOL    HW276432   0.219  11.027   5.080
58220SOL     OW76433   7.256   1.840   4.306
58220SOL    HW176434   7.234   1.925   4.344
58220SOL    HW276435   7.198   1.831   4.231
58221SOL     OW76436   8.835  10.875   0.148
58221SOL    HW176437   8.830  10.809   0.079
58221SOL    HW276438   8.801  10.831   0.226
58222SOL     OW76439   7.552   7.075   6.803
58222SOL    HW176440   7.636   7.119   6.789
58222SOL    HW276441   7.573   6.982   6.800
58223SOL     OW76442   1.356   2.502   4.997
58223SOL    HW176443   1.431   2.533   5.049
58223SOL    HW276444   1.394   2.475   4.914
58224SOL     OW76445   0.688   6.139  11.370
58224SOL    HW176446   0.721   6.148  11.281
58224SOL    HW276447   0.611   6.196  11.373
58225SOL     OW76448   3.573   7.680   9.151
58225SOL    HW176449   3.504   7.618   9.128
58225SOL    HW276450   3.527   7.755   9.189
58226SOL     OW76451   7.683  11.677   3.234
58226SOL    HW176452   7.745  11.741   3.199
58226SOL    HW276453   7.719  11.652   3.318
58227SOL     OW76454   0.444  13.461  14.646
58227SOL    HW176455   0.410  13.536  14.597
58227SOL    HW276456   0.379  13.445  14.713
58228SOL     OW76457  11.484  11.467   3.983
58228SOL    HW176458  11.511  11.388   3.935
58228SOL    HW276459  11.563  11.497   4.028
58229SOL     OW76460   5.646  10.627  12.768
58229SOL    HW176461   5.628  10.533  12.770
58229SOL    HW276462   5.734  10.635  12.806
58230SOL     OW76463  13.674  11.196  11.553
58230SOL    HW176464  13.685  11.111  11.595
58230SOL    HW276465  13.602  11.237  11.602
58231SOL     OW76466   7.447   8.947   1.506
58231SOL    HW176467   7.528   8.961   1.457
58231SOL    HW276468   7.473   8.954   1.598
58232SOL     OW76469   5.307   1.809  10.483
58232SOL    HW176470   5.279   1.771  10.566
58232SOL    HW276471   5.368   1.878  10.507
58233SOL     OW76472   0.702   9.490   5.537
58233SOL    HW176473   0.648   9.491   5.615
58233SOL    HW276474   0.726   9.398   5.524
58234SOL     OW76475  12.760   9.757  11.626
58234SOL    HW176476  12.776   9.663  11.621
58234SOL    HW276477  12.846   9.797  11.610
58235SOL     OW76478   3.016  12.463   7.206
58235SOL    HW176479   2.936  12.419   7.236
58235SOL    HW276480   3.087  12.405   7.234
58236SOL     OW76481  10.844   9.347   1.937
58236SOL    HW176482  10.808   9.365   1.850
58236SOL    HW276483  10.869   9.433   1.971
58237SOL     OW76484   8.148   8.584   8.885
58237SOL    HW176485   8.097   8.625   8.954
58237SOL    HW276486   8.190   8.656   8.839
58238SOL     OW76487   9.778   1.282   0.498
58238SOL    HW176488   9.836   1.243   0.432
58238SOL    HW276489   9.783   1.222   0.572
58239SOL     OW76490  14.177   8.020   2.943
58239SOL    HW176491  14.115   7.960   2.984
58239SOL    HW276492  14.137   8.043   2.859
58240SOL     OW76493   4.225   7.458   8.032
58240SOL    HW176494   4.260   7.546   8.016
58240SOL    HW276495   4.227   7.448   8.127
58241SOL     OW76496  11.824   9.519   2.874
58241SOL    HW176497  11.881   9.554   2.806
58241SOL    HW276498  11.774   9.450   2.830
58242SOL     OW76499   7.046  10.175   2.763
58242SOL    HW176500   7.112  10.193   2.697
58242SOL    HW276501   7.018  10.086   2.746
58243SOL     OW76502  14.015   8.476   7.844
58243SOL    HW176503  14.005   8.470   7.749
58243SOL    HW276504  14.022   8.386   7.873
58244SOL     OW76505   1.449   1.594  12.357
58244SOL    HW176506   1.420   1.573  12.269
58244SOL    HW276507   1.408   1.528  12.413
58245SOL     OW76508   6.686   6.437   4.611
58245SOL    HW176509   6.761   6.380   4.596
58245SOL    HW276510   6.678   6.442   4.706
58246SOL     OW76511   1.146   7.603  12.334
58246SOL    HW176512   1.170   7.684  12.380
58246SOL    HW276513   1.063   7.625  12.290
58247SOL     OW76514   6.103   3.794   6.436
58247SOL    HW176515   6.193   3.812   6.463
58247SOL    HW276516   6.099   3.699   6.427
58248SOL     OW76517   4.439   4.836   6.926
58248SOL    HW176518   4.519   4.859   6.973
58248SOL    HW276519   4.390   4.918   6.921
58249SOL     OW76520  13.170   6.030   2.819
58249SOL    HW176521  13.119   6.027   2.900
58249SOL    HW276522  13.184   6.123   2.803
58250SOL     OW76523   9.502   6.554   0.154
58250SOL    HW176524   9.560   6.583   0.083
58250SOL    HW276525   9.420   6.602   0.139
58251SOL     OW76526   8.542  12.254   5.082
58251SOL    HW176527   8.470  12.218   5.031
58251SOL    HW276528   8.610  12.273   5.018
58252SOL     OW76529  12.280   6.073   1.419
58252SOL    HW176530  12.197   6.025   1.428
58252SOL    HW276531  12.340   6.028   1.480
58253SOL     OW76532   3.824  10.183  11.395
58253SOL    HW176533   3.875  10.162  11.317
58253SOL    HW276534   3.889  10.188  11.465
58254SOL     OW76535   3.868  11.043  10.529
58254SOL    HW176536   3.934  10.978  10.503
58254SOL    HW276537   3.918  11.121  10.552
58255SOL     OW76538  14.555  12.285   0.898
58255SOL    HW176539  14.561  12.370   0.942
58255SOL    HW276540  14.559  12.221   0.969
58256SOL     OW76541   1.092   7.258  12.310
58256SOL    HW176542   1.166   7.292  12.360
58256SOL    HW276543   1.083   7.318  12.236
58257SOL     OW76544   2.965   8.097   8.340
58257SOL    HW176545   2.942   8.101   8.248
58257SOL    HW276546   3.048   8.050   8.342
58258SOL     OW76547  12.869  14.168   1.911
58258SOL    HW176548  12.883  14.244   1.854
58258SOL    HW276549  12.957  14.142   1.940
58259SOL     OW76550  10.165  12.557   4.415
58259SOL    HW176551  10.100  12.532   4.350
58259SOL    HW276552  10.211  12.631   4.375
58260SOL     OW76553  12.088  12.717   2.047
58260SOL    HW176554  12.062  12.728   1.955
58260SOL    HW276555  12.005  12.702   2.093
58261SOL     OW76556   3.457   2.595  11.543
58261SOL    HW176557   3.402   2.538  11.489
58261SOL    HW276558   3.450   2.681  11.503
58262SOL     OW76559  14.688  10.776   0.396
58262SOL    HW176560  14.772  10.822   0.394
58262SOL    HW276561  14.636  10.820   0.329
58263SOL     OW76562  10.384  10.276  10.706
58263SOL    HW176563  10.428  10.279  10.791
58263SOL    HW276564  10.417  10.197  10.664
58264SOL     OW76565  10.430   8.487  14.388
58264SOL    HW176566  10.334   8.495  14.385
58264SOL    HW276567  10.451   8.482  14.481
58265SOL     OW76568  11.315   1.200   2.034
58265SOL    HW176569  11.272   1.116   2.051
58265SOL    HW276570  11.401   1.191   2.076
58266SOL     OW76571   0.861  12.041   5.375
58266SOL    HW176572   0.817  12.036   5.460
58266SOL    HW276573   0.944  12.085   5.393
58267SOL     OW76574   3.024   7.549   2.003
58267SOL    HW176575   3.106   7.523   2.047
58267SOL    HW276576   2.977   7.466   1.990
58268SOL     OW76577  14.532   5.256   6.991
58268SOL    HW176578  14.489   5.341   6.999
58268SOL    HW276579  14.461   5.193   6.994
58269SOL     OW76580   7.109  11.735   0.037
58269SOL    HW176581   7.072  11.719  14.828
58269SOL    HW276582   7.148  11.651   0.062
58270SOL     OW76583  10.161  13.605   1.327
58270SOL    HW176584  10.195  13.526   1.369
58270SOL    HW276585  10.156  13.669   1.397
58271SOL     OW76586   8.985   2.125   1.001
58271SOL    HW176587   8.959   2.141   1.092
58271SOL    HW276588   9.010   2.033   0.999
58272SOL     OW76589   6.178  10.917  10.800
58272SOL    HW176590   6.235  10.846  10.771
58272SOL    HW276591   6.112  10.925  10.731
58273SOL     OW76592   4.549   9.099   0.665
58273SOL    HW176593   4.571   9.097   0.572
58273SOL    HW276594   4.506   9.015   0.682
58274SOL     OW76595   7.228   5.241  12.817
58274SOL    HW176596   7.137   5.241  12.787
58274SOL    HW276597   7.263   5.325  12.786
58275SOL     OW76598   2.903   0.111   3.369
58275SOL    HW176599   2.877   0.022   3.345
58275SOL    HW276600   2.990   0.122   3.330
58276SOL     OW76601  13.648  14.042   3.396
58276SOL    HW176602  13.643  13.965   3.340
58276SOL    HW276603  13.693  14.012   3.475
58277SOL     OW76604   2.973   7.185   5.087
58277SOL    HW176605   2.951   7.258   5.145
58277SOL    HW276606   2.923   7.110   5.122
58278SOL     OW76607   2.820   9.702  12.437
58278SOL    HW176608   2.808   9.613  12.404
58278SOL    HW276609   2.915   9.711  12.449
58279SOL     OW76610  10.704   6.723   6.155
58279SOL    HW176611  10.680   6.631   6.163
58279SOL    HW276612  10.640   6.770   6.208
58280SOL     OW76613  10.950  10.853   9.963
58280SOL    HW176614  10.970  10.944   9.940
58280SOL    HW276615  10.881  10.860  10.030
58281SOL     OW76616   4.671   9.473   7.181
58281SOL    HW176617   4.753   9.445   7.223
58281SOL    HW276618   4.609   9.403   7.203
58282SOL     OW76619   5.931   0.421  13.259
58282SOL    HW176620   5.926   0.329  13.233
58282SOL    HW276621   6.005   0.425  13.319
58283SOL     OW76622  11.001  11.362   2.157
58283SOL    HW176623  10.979  11.356   2.250
58283SOL    HW276624  11.070  11.428   2.153
58284SOL     OW76625   1.750   5.806  11.217
58284SOL    HW176626   1.775   5.829  11.128
58284SOL    HW276627   1.833   5.800  11.265
58285SOL     OW76628   9.202   7.295   2.442
58285SOL    HW176629   9.133   7.345   2.484
58285SOL    HW276630   9.215   7.220   2.501
58286SOL     OW76631   2.795  14.770   0.170
58286SOL    HW176632   2.735  14.838   0.141
58286SOL    HW276633   2.882  14.803   0.146
58287SOL     OW76634   8.097   9.667   9.361
58287SOL    HW176635   8.034   9.595   9.368
58287SOL    HW276636   8.044   9.746   9.361
58288SOL     OW76637   0.684   1.025   0.112
58288SOL    HW176638   0.724   0.963   0.051
58288SOL    HW276639   0.596   0.991   0.128
58289SOL     OW76640  12.708   0.947   7.402
58289SOL    HW176641  12.723   0.872   7.345
58289SOL    HW276642  12.654   1.006   7.350
58290SOL     OW76643  13.439   8.637   9.787
58290SOL    HW176644  13.517   8.655   9.735
58290SOL    HW276645  13.366   8.657   9.729
58291SOL     OW76646  11.328  12.834   2.479
58291SOL    HW176647  11.270  12.853   2.405
58291SOL    HW276648  11.397  12.779   2.442
58292SOL     OW76649  12.742   3.728   3.239
58292SOL    HW176650  12.814   3.779   3.202
58292SOL    HW276651  12.753   3.640   3.202
58293SOL     OW76652  11.529   1.737   6.477
58293SOL    HW176653  11.536   1.802   6.407
58293SOL    HW276654  11.547   1.654   6.434
58294SOL     OW76655  12.275  14.130   1.945
58294SOL    HW176656  12.293  14.093   2.032
58294SOL    HW276657  12.223  14.208   1.962
58295SOL     OW76658   0.066   5.674  11.490
58295SOL    HW176659   0.061   5.595  11.437
58295SOL    HW276660   0.159   5.681  11.513
58296SOL     OW76661   3.910   2.772   1.599
58296SOL    HW176662   3.866   2.696   1.562
58296SOL    HW276663   3.899   2.841   1.533
58297SOL     OW76664   4.866   7.350   0.912
58297SOL    HW176665   4.920   7.271   0.918
58297SOL    HW276666   4.833   7.350   0.822
58298SOL     OW76667   2.390   2.845   7.863
58298SOL    HW176668   2.428   2.801   7.939
58298SOL    HW276669   2.436   2.929   7.858
58299SOL     OW76670   7.849   7.510   3.918
58299SOL    HW176671   7.759   7.512   3.948
58299SOL    HW276672   7.863   7.595   3.876
58300SOL     OW76673   9.414   4.748  11.289
58300SOL    HW176674   9.442   4.827  11.336
58300SOL    HW276675   9.327   4.771  11.255
58301SOL     OW76676   6.022  14.851   4.066
58301SOL    HW176677   5.937   0.014   4.050
58301SOL    HW276678   6.069  14.859   3.982
58302SOL     OW76679   0.260   8.473   7.804
58302SOL    HW176680   0.299   8.405   7.859
58302SOL    HW276681   0.336   8.520   7.768
58303SOL     OW76682   8.487   0.252   2.753
58303SOL    HW176683   8.393   0.258   2.736
58303SOL    HW276684   8.509   0.160   2.739
58304SOL     OW76685   9.860   9.364   4.047
58304SOL    HW176686   9.780   9.324   4.012
58304SOL    HW276687   9.888   9.305   4.117
58305SOL     OW76688   9.302   8.794   1.153
58305SOL    HW176689   9.241   8.745   1.207
58305SOL    HW276690   9.350   8.728   1.104
58306SOL     OW76691  11.044  12.951   8.403
58306SOL    HW176692  10.980  12.991   8.462
58306SOL    HW276693  11.036  12.999   8.321
58307SOL     OW76694   6.751   5.016   4.356
58307SOL    HW176695   6.667   5.026   4.311
58307SOL    HW276696   6.784   4.931   4.327
58308SOL     OW76697   2.119   3.947   8.442
58308SOL    HW176698   2.118   4.040   8.423
58308SOL    HW276699   2.071   3.907   8.369
58309SOL     OW76700   5.260   1.629   5.189
58309SOL    HW176701   5.317   1.677   5.249
58309SOL    HW276702   5.299   1.542   5.184
58310SOL     OW76703   7.646   1.589   0.151
58310SOL    HW176704   7.659   1.602   0.057
58310SOL    HW276705   7.612   1.500   0.159
58311SOL     OW76706   4.892   2.429  10.175
58311SOL    HW176707   4.983   2.407  10.194
58311SOL    HW276708   4.858   2.355  10.125
58312SOL     OW76709  12.737   6.784   9.236
58312SOL    HW176710  12.704   6.799   9.324
58312SOL    HW276711  12.786   6.863   9.214
58313SOL     OW76712   0.868  13.470   6.670
58313SOL    HW176713   0.886  13.545   6.727
58313SOL    HW276714   0.809  13.505   6.603
58314SOL     OW76715  12.735   5.991   4.490
58314SOL    HW176716  12.739   6.081   4.459
58314SOL    HW276717  12.765   5.939   4.415
58315SOL     OW76718  10.802  14.056  11.010
58315SOL    HW176719  10.710  14.059  11.037
58315SOL    HW276720  10.808  13.977  10.956
58316SOL     OW76721  12.514  11.428   5.537
58316SOL    HW176722  12.439  11.408   5.480
58316SOL    HW276723  12.475  11.465   5.616
58317SOL     OW76724   7.021   0.443  10.192
58317SOL    HW176725   6.985   0.372  10.246
58317SOL    HW276726   7.112   0.450  10.221
58318SOL     OW76727   9.314   2.087   0.996
58318SOL    HW176728   9.293   2.038   1.075
58318SOL    HW276729   9.397   2.049   0.966
58319SOL     OW76730   7.604  11.994   6.638
58319SOL    HW176731   7.636  11.923   6.583
58319SOL    HW276732   7.531  12.031   6.589
58320SOL     OW76733   7.972   7.796  11.559
58320SOL    HW176734   8.043   7.770  11.500
58320SOL    HW276735   7.948   7.715  11.603
58321SOL     OW76736  10.873   9.350   3.707
58321SOL    HW176737  10.946   9.301   3.744
58321SOL    HW276738  10.796   9.297   3.729
58322SOL     OW76739   0.998  14.378   4.752
58322SOL    HW176740   0.973  14.383   4.844
58322SOL    HW276741   0.961  14.296   4.722
58323SOL     OW76742   5.863   7.314   8.966
58323SOL    HW176743   5.873   7.323   9.061
58323SOL    HW276744   5.929   7.374   8.929
58324SOL     OW76745   5.906   5.481  13.098
58324SOL    HW176746   5.833   5.516  13.047
58324SOL    HW276747   5.971   5.551  13.098
58325SOL     OW76748   5.420   9.761   7.212
58325SOL    HW176749   5.422   9.670   7.184
58325SOL    HW276750   5.484   9.805   7.157
58326SOL     OW76751   1.277  12.272   3.013
58326SOL    HW176752   1.203  12.214   3.033
58326SOL    HW276753   1.281  12.333   3.086
58327SOL     OW76754   6.176   5.060  10.355
58327SOL    HW176755   6.245   5.124  10.337
58327SOL    HW276756   6.114   5.105  10.411
58328SOL     OW76757   7.196  11.996   6.030
58328SOL    HW176758   7.291  11.984   6.038
58328SOL    HW276759   7.163  11.910   6.003
58329SOL     OW76760  11.813   1.748  10.758
58329SOL    HW176761  11.888   1.735  10.816
58329SOL    HW276762  11.849   1.791  10.681
58330SOL     OW76763   1.782   3.746   2.232
58330SOL    HW176764   1.848   3.807   2.264
58330SOL    HW276765   1.701   3.774   2.274
58331SOL     OW76766   1.763  11.245  10.200
58331SOL    HW176767   1.764  11.249  10.295
58331SOL    HW276768   1.846  11.287  10.173
58332SOL     OW76769  12.601   6.045  12.943
58332SOL    HW176770  12.506   6.055  12.943
58332SOL    HW276771  12.632   6.106  13.010
58333SOL     OW76772   6.361  10.808   9.266
58333SOL    HW176773   6.442  10.829   9.313
58333SOL    HW276774   6.299  10.876   9.293
58334SOL     OW76775   8.883  14.496  10.140
58334SOL    HW176776   8.906  14.420  10.194
58334SOL    HW276777   8.910  14.572  10.193
58335SOL     OW76778  10.173  13.035  13.988
58335SOL    HW176779  10.200  13.051  14.078
58335SOL    HW276780  10.227  12.962  13.959
58336SOL     OW76781   4.073   1.386   9.277
58336SOL    HW176782   4.112   1.299   9.282
58336SOL    HW276783   4.144   1.445   9.303
58337SOL     OW76784  13.069   3.083  14.657
58337SOL    HW176785  13.006   3.063  14.727
58337SOL    HW276786  13.124   3.005  14.651
58338SOL     OW76787   1.337  11.704   4.817
58338SOL    HW176788   1.416  11.756   4.805
58338SOL    HW276789   1.272  11.745   4.759
58339SOL     OW76790  13.823  11.138  14.008
58339SOL    HW176791  13.780  11.163  14.090
58339SOL    HW276792  13.915  11.125  14.032
58340SOL     OW76793   5.216   0.785   7.639
58340SOL    HW176794   5.143   0.784   7.701
58340SOL    HW276795   5.232   0.693   7.619
58341SOL     OW76796   7.533  11.182  13.432
58341SOL    HW176797   7.551  11.090  13.452
58341SOL    HW276798   7.528  11.225  13.517
58342SOL     OW76799   7.809   6.335   7.650
58342SOL    HW176800   7.854   6.399   7.595
58342SOL    HW276801   7.766   6.387   7.718
58343SOL     OW76802  10.983   8.024  12.898
58343SOL    HW176803  10.943   8.091  12.843
58343SOL    HW276804  10.929   8.022  12.977
58344SOL     OW76805   8.562   0.589   8.935
58344SOL    HW176806   8.621   0.527   8.893
58344SOL    HW276807   8.571   0.571   9.029
58345SOL     OW76808  13.710   0.788   0.194
58345SOL    HW176809  13.683   0.873   0.228
58345SOL    HW276810  13.628   0.739   0.185
58346SOL     OW76811   4.569  12.755  14.633
58346SOL    HW176812   4.564  12.693  14.706
58346SOL    HW276813   4.663  12.769  14.620
58347SOL     OW76814   3.403   4.023   5.081
58347SOL    HW176815   3.407   4.073   5.000
58347SOL    HW276816   3.316   4.041   5.116
58348SOL     OW76817   3.007   4.248  11.194
58348SOL    HW176818   3.019   4.286  11.107
58348SOL    HW276819   3.075   4.181  11.201
58349SOL     OW76820   3.878   8.632   2.199
58349SOL    HW176821   3.873   8.710   2.254
58349SOL    HW276822   3.905   8.562   2.260
58350SOL     OW76823  13.827   8.619   6.635
58350SOL    HW176824  13.811   8.714   6.637
58350SOL    HW276825  13.793   8.588   6.719
58351SOL     OW76826  11.151   7.633  14.763
58351SOL    HW176827  11.196   7.578  14.698
58351SOL    HW276828  11.115   7.571  14.826
58352SOL     OW76829   5.618  13.735  12.633
58352SOL    HW176830   5.567  13.786  12.697
58352SOL    HW276831   5.556  13.717  12.562
58353SOL     OW76832   0.441   4.461   0.069
58353SOL    HW176833   0.412   4.389   0.125
58353SOL    HW276834   0.525   4.489   0.106
58354SOL     OW76835  13.494  10.559   8.999
58354SOL    HW176836  13.474  10.466   8.996
58354SOL    HW276837  13.453  10.595   8.920
58355SOL     OW76838  13.861   7.592   3.139
58355SOL    HW176839  13.776   7.624   3.109
58355SOL    HW276840  13.864   7.615   3.232
58356SOL     OW76841   7.773  13.410  10.414
58356SOL    HW176842   7.796  13.324  10.450
58356SOL    HW276843   7.762  13.394  10.320
58357SOL     OW76844   7.231  12.243  14.448
58357SOL    HW176845   7.266  12.271  14.363
58357SOL    HW276846   7.162  12.307  14.466
58358SOL     OW76847  11.169  11.840   2.517
58358SOL    HW176848  11.132  11.905   2.577
58358SOL    HW276849  11.186  11.764   2.572
58359SOL     OW76850   1.304   1.904   8.566
58359SOL    HW176851   1.255   1.839   8.616
58359SOL    HW276852   1.245   1.979   8.559
58360SOL     OW76853   4.789   4.610  13.374
58360SOL    HW176854   4.731   4.674  13.416
58360SOL    HW276855   4.806   4.545  13.443
58361SOL     OW76856  12.579   7.853  13.501
58361SOL    HW176857  12.667   7.843  13.464
58361SOL    HW276858  12.522   7.809  13.439
58362SOL     OW76859   8.055  13.679  10.158
58362SOL    HW176860   8.069  13.590  10.126
58362SOL    HW276861   8.034  13.730  10.079
58363SOL     OW76862   9.791   0.271   8.890
58363SOL    HW176863   9.864   0.332   8.878
58363SOL    HW276864   9.792   0.217   8.811
58364SOL     OW76865   3.434   0.023  11.758
58364SOL    HW176866   3.429  14.831  11.824
58364SOL    HW276867   3.528   0.037  11.746
58365SOL     OW76868   7.226  14.565   3.223
58365SOL    HW176869   7.191  14.506   3.289
58365SOL    HW276870   7.321  14.561   3.235
58366SOL     OW76871   1.799  11.972  12.287
58366SOL    HW176872   1.835  11.979  12.376
58366SOL    HW276873   1.845  11.897  12.249
58367SOL     OW76874  13.481  10.124   4.538
58367SOL    HW176875  13.542  10.072   4.485
58367SOL    HW276876  13.461  10.200   4.483
58368SOL     OW76877   0.588   8.823  14.347
58368SOL    HW176878   0.580   8.781  14.262
58368SOL    HW276879   0.526   8.776  14.403
58369SOL     OW76880   2.133   4.732  12.937
58369SOL    HW176881   2.068   4.692  12.995
58369SOL    HW276882   2.112   4.698  12.850
58370SOL     OW76883   7.158   6.063   0.187
58370SOL    HW176884   7.172   5.969   0.188
58370SOL    HW276885   7.243   6.101   0.207
58371SOL     OW76886   2.391   0.081  14.356
58371SOL    HW176887   2.479   0.090  14.321
58371SOL    HW276888   2.336   0.062  14.280
58372SOL     OW76889   0.127  10.920   4.082
58372SOL    HW176890   0.134  11.006   4.040
58372SOL    HW276891   0.213  10.908   4.124
58373SOL     OW76892   9.033   0.188   0.539
58373SOL    HW176893   8.977   0.117   0.570
58373SOL    HW276894   9.120   0.148   0.532
58374SOL     OW76895   2.134  11.425   5.831
58374SOL    HW176896   2.208  11.411   5.773
58374SOL    HW276897   2.174  11.440   5.917
58375SOL     OW76898  14.599   7.285  10.772
58375SOL    HW176899  14.652   7.258  10.847
58375SOL    HW276900  14.660   7.336  10.718
58376SOL     OW76901   1.687  13.999  12.887
58376SOL    HW176902   1.780  14.004  12.864
58376SOL    HW276903   1.686  14.002  12.982
58377SOL     OW76904  11.685  12.704   7.357
58377SOL    HW176905  11.726  12.619   7.373
58377SOL    HW276906  11.624  12.689   7.285
58378SOL     OW76907   1.731   7.731   4.927
58378SOL    HW176908   1.675   7.713   4.852
58378SOL    HW276909   1.731   7.650   4.977
58379SOL     OW76910   9.670  11.517  11.471
58379SOL    HW176911   9.583  11.530  11.433
58379SOL    HW276912   9.657  11.530  11.565
58380SOL     OW76913   3.459   2.018   2.632
58380SOL    HW176914   3.366   2.007   2.650
58380SOL    HW276915   3.485   1.938   2.588
58381SOL     OW76916  13.391  11.983   3.455
58381SOL    HW176917  13.368  11.931   3.378
58381SOL    HW276918  13.393  11.920   3.527
58382SOL     OW76919  13.768   5.937   1.803
58382SOL    HW176920  13.755   5.933   1.898
58382SOL    HW276921  13.764   5.846   1.774
58383SOL     OW76922   0.085  14.708  11.545
58383SOL    HW176923   0.116  14.726  11.634
58383SOL    HW276924   0.102  14.789  11.497
58384SOL     OW76925  11.617  12.432   0.973
58384SOL    HW176926  11.694  12.454   1.026
58384SOL    HW276927  11.602  12.339   0.990
58385SOL     OW76928  14.380   2.512  11.008
58385SOL    HW176929  14.393   2.592  10.957
58385SOL    HW276930  14.295   2.479  10.980
58386SOL     OW76931   5.961  11.899   0.009
58386SOL    HW176932   5.915  11.977  14.855
58386SOL    HW276933   5.892  11.837   0.030
58387SOL     OW76934   4.159   5.313   9.271
58387SOL    HW176935   4.153   5.225   9.309
58387SOL    HW276936   4.251   5.338   9.283
58388SOL     OW76937   6.988   3.582   4.714
58388SOL    HW176938   7.007   3.635   4.792
58388SOL    HW276939   7.070   3.584   4.664
58389SOL     OW76940   8.765  13.068   9.986
58389SOL    HW176941   8.859  13.054  10.002
58389SOL    HW276942   8.762  13.129   9.912
58390SOL     OW76943  12.098   9.232  12.283
58390SOL    HW176944  12.159   9.160  12.265
58390SOL    HW276945  12.126   9.267  12.368
58391SOL     OW76946   7.765   6.643  12.686
58391SOL    HW176947   7.825   6.681  12.622
58391SOL    HW276948   7.744   6.715  12.745
58392SOL     OW76949   5.916   0.454   1.004
58392SOL    HW176950   5.856   0.381   0.992
58392SOL    HW276951   5.906   0.507   0.925
58393SOL     OW76952   9.738   8.942  12.084
58393SOL    HW176953   9.735   9.031  12.118
58393SOL    HW276954   9.808   8.943  12.019
58394SOL     OW76955   3.218  14.167  12.861
58394SOL    HW176956   3.211  14.241  12.921
58394SOL    HW276957   3.203  14.204  12.774
58395SOL     OW76958   3.376   2.133   1.036
58395SOL    HW176959   3.424   2.050   1.041
58395SOL    HW276960   3.418   2.180   0.963
58396SOL     OW76961  13.474   4.478   9.591
58396SOL    HW176962  13.566   4.484   9.566
58396SOL    HW276963  13.462   4.387   9.618
58397SOL     OW76964   3.894   3.462   6.228
58397SOL    HW176965   3.808   3.444   6.190
58397SOL    HW276966   3.881   3.543   6.278
58398SOL     OW76967   4.551   1.768   6.061
58398SOL    HW176968   4.592   1.853   6.076
58398SOL    HW276969   4.574   1.746   5.971
58399SOL     OW76970   0.271   4.630   2.015
58399SOL    HW176971   0.266   4.569   2.089
58399SOL    HW276972   0.341   4.691   2.039
58400SOL     OW76973   2.514  14.516  13.853
58400SOL    HW176974   2.574  14.480  13.788
58400SOL    HW276975   2.527  14.461  13.931
58401SOL     OW76976   4.176   0.515   5.841
58401SOL    HW176977   4.236   0.444   5.819
58401SOL    HW276978   4.091   0.472   5.851
58402SOL     OW76979   2.078  14.877   9.374
58402SOL    HW176980   2.090  14.800   9.429
58402SOL    HW276981   2.159   0.006   9.323
58403SOL     OW76982   8.059   6.801  10.882
58403SOL    HW176983   8.128   6.834  10.941
58403SOL    HW276984   8.039   6.876  10.826
58404SOL     OW76985  12.408   2.447  11.495
58404SOL    HW176986  12.414   2.383  11.567
58404SOL    HW276987  12.314   2.456  11.480
58405SOL     OW76988   2.572  13.481  13.965
58405SOL    HW176989   2.612  13.399  13.992
58405SOL    HW276990   2.479  13.461  13.956
58406SOL     OW76991  10.432   2.312   1.982
58406SOL    HW176992  10.383   2.239   2.020
58406SOL    HW276993  10.483   2.348   2.055
58407SOL     OW76994  13.459   3.575   9.537
58407SOL    HW176995  13.394   3.560   9.469
58407SOL    HW276996  13.448   3.667   9.560
58408SOL     OW76997   1.089  10.657   2.538
58408SOL    HW176998   0.994  10.651   2.551
58408SOL    HW276999   1.125  10.661   2.627
58409SOL     OW77000   5.273   0.999  11.582
58409SOL    HW177001   5.297   0.950  11.660
58409SOL    HW277002   5.355   1.009  11.533
58410SOL     OW77003  11.096   0.070   5.407
58410SOL    HW177004  11.023   0.132   5.399
58410SOL    HW277005  11.133   0.065   5.319
58411SOL     OW77006   9.079   0.119   9.583
58411SOL    HW177007   9.050   0.029   9.568
58411SOL    HW277008   9.167   0.123   9.547
58412SOL     OW77009   8.499   8.061   6.633
58412SOL    HW177010   8.582   8.094   6.666
58412SOL    HW277011   8.446   8.047   6.711
58413SOL     OW77012   9.195  11.813   2.016
58413SOL    HW177013   9.270  11.753   2.028
58413SOL    HW277014   9.166  11.797   1.926
58414SOL     OW77015   4.071  13.953   2.946
58414SOL    HW177016   3.978  13.958   2.966
58414SOL    HW277017   4.076  13.901   2.866
58415SOL     OW77018   4.560   7.479   2.130
58415SOL    HW177019   4.582   7.485   2.037
58415SOL    HW277020   4.512   7.397   2.139
58416SOL     OW77021  10.677   4.654   5.532
58416SOL    HW177022  10.581   4.651   5.531
58416SOL    HW277023  10.699   4.689   5.618
58417SOL     OW77024  14.351  10.006  14.023
58417SOL    HW177025  14.301  10.054  13.957
58417SOL    HW277026  14.293   9.935  14.050
58418SOL     OW77027  10.695  10.889   0.518
58418SOL    HW177028  10.648  10.926   0.593
58418SOL    HW277029  10.627  10.861   0.458
58419SOL     OW77030   9.169   2.710   9.493
58419SOL    HW177031   9.127   2.740   9.413
58419SOL    HW277032   9.240   2.772   9.509
58420SOL     OW77033   7.351   5.519   8.286
58420SOL    HW177034   7.400   5.579   8.230
58420SOL    HW277035   7.293   5.473   8.226
58421SOL     OW77036   2.051  12.851   2.133
58421SOL    HW177037   2.068  12.942   2.108
58421SOL    HW277038   2.138  12.815   2.154
58422SOL     OW77039  10.941   9.882   0.399
58422SOL    HW177040  10.890   9.804   0.419
58422SOL    HW277041  10.879   9.954   0.406
58423SOL     OW77042  10.280   3.962  13.218
58423SOL    HW177043  10.338   3.989  13.147
58423SOL    HW277044  10.306   3.872  13.236
58424SOL     OW77045  11.189  13.736   0.263
58424SOL    HW177046  11.250  13.711   0.333
58424SOL    HW277047  11.195  13.831   0.259
58425SOL     OW77048  10.966   0.248  11.841
58425SOL    HW177049  10.925   0.246  11.928
58425SOL    HW277050  10.893   0.262  11.781
58426SOL     OW77051  11.275   4.318  11.479
58426SOL    HW177052  11.342   4.306  11.546
58426SOL    HW277053  11.312   4.276  11.401
58427SOL     OW77054   5.100   0.794  14.441
58427SOL    HW177055   5.078   0.711  14.483
58427SOL    HW277056   5.044   0.798  14.364
58428SOL     OW77057   0.976   2.628   2.777
58428SOL    HW177058   1.009   2.654   2.863
58428SOL    HW277059   1.035   2.671   2.715
58429SOL     OW77060   6.324  10.516   8.726
58429SOL    HW177061   6.297  10.447   8.667
58429SOL    HW277062   6.246  10.537   8.777
58430SOL     OW77063  11.874   3.118   4.142
58430SOL    HW177064  11.932   3.154   4.075
58430SOL    HW277065  11.930   3.061   4.194
58431SOL     OW77066   0.056   6.225   3.707
58431SOL    HW177067   0.085   6.317   3.715
58431SOL    HW277068   0.137   6.176   3.692
58432SOL     OW77069   6.309   2.815   6.354
58432SOL    HW177070   6.387   2.865   6.379
58432SOL    HW277071   6.238   2.856   6.404
58433SOL     OW77072   6.035  13.864   5.806
58433SOL    HW177073   6.091  13.793   5.775
58433SOL    HW277074   6.091  13.941   5.805
58434SOL     OW77075   4.885   6.051   9.258
58434SOL    HW177076   4.833   5.971   9.253
58434SOL    HW277077   4.917   6.053   9.348
58435SOL     OW77078  14.391   6.220   3.654
58435SOL    HW177079  14.460   6.253   3.597
58435SOL    HW277080  14.407   6.125   3.659
58436SOL     OW77081  12.062   2.995   6.746
58436SOL    HW177082  12.053   2.900   6.743
58436SOL    HW277083  12.017   3.025   6.666
58437SOL     OW77084   2.682   0.357   1.219
58437SOL    HW177085   2.752   0.418   1.195
58437SOL    HW277086   2.711   0.272   1.186
58438SOL     OW77087   7.584   3.787  11.961
58438SOL    HW177088   7.678   3.785  11.948
58438SOL    HW277089   7.550   3.836  11.886
58439SOL     OW77090   6.435   7.506   2.953
58439SOL    HW177091   6.458   7.586   3.001
58439SOL    HW277092   6.486   7.510   2.873
58440SOL     OW77093  10.917   7.885  11.008
58440SOL    HW177094  10.852   7.955  11.002
58440SOL    HW277095  10.975   7.899  10.934
58441SOL     OW77096  11.788   6.080   2.070
58441SOL    HW177097  11.747   6.149   2.018
58441SOL    HW277098  11.881   6.086   2.047
58442SOL     OW77099  12.893   3.180  10.248
58442SOL    HW177100  12.976   3.218  10.219
58442SOL    HW277101  12.912   3.141  10.333
58443SOL     OW77102   0.672   8.469  13.705
58443SOL    HW177103   0.596   8.454  13.762
58443SOL    HW277104   0.698   8.559  13.724
58444SOL     OW77105   2.095   7.022   3.289
58444SOL    HW177106   2.123   7.063   3.207
58444SOL    HW277107   1.999   7.027   3.287
58445SOL     OW77108   9.109  11.960   7.812
58445SOL    HW177109   9.055  11.887   7.842
58445SOL    HW277110   9.116  12.017   7.888
58446SOL     OW77111   2.776   6.051  14.767
58446SOL    HW177112   2.777   6.145  14.747
58446SOL    HW277113   2.765   6.047  14.862
58447SOL     OW77114  10.774  11.557   5.006
58447SOL    HW177115  10.737  11.474   5.037
58447SOL    HW277116  10.712  11.623   5.036
58448SOL     OW77117   5.554  10.601   5.775
58448SOL    HW177118   5.610  10.531   5.741
58448SOL    HW277119   5.611  10.679   5.776
58449SOL     OW77120  11.745   4.301   8.435
58449SOL    HW177121  11.759   4.354   8.514
58449SOL    HW277122  11.678   4.349   8.386
58450SOL     OW77123  11.005  13.344   4.210
58450SOL    HW177124  10.926  13.340   4.155
58450SOL    HW277125  11.016  13.436   4.230
58451SOL     OW77126   9.262   1.510  13.508
58451SOL    HW177127   9.343   1.467  13.482
58451SOL    HW277128   9.205   1.501  13.431
58452SOL     OW77129   7.088  14.578  13.850
58452SOL    HW177130   7.080  14.603  13.942
58452SOL    HW277131   7.163  14.627  13.818
58453SOL     OW77132  11.368  13.452   6.309
58453SOL    HW177133  11.369  13.362   6.341
58453SOL    HW277134  11.310  13.499   6.370
58454SOL     OW77135   9.184   0.162  11.137
58454SOL    HW177136   9.229   0.078  11.126
58454SOL    HW277137   9.185   0.177  11.232
58455SOL     OW77138   2.554   3.818  12.852
58455SOL    HW177139   2.521   3.895  12.806
58455SOL    HW277140   2.526   3.831  12.943
58456SOL     OW77141  12.968  13.358   0.829
58456SOL    HW177142  12.875  13.342   0.849
58456SOL    HW277143  12.998  13.413   0.901
58457SOL     OW77144   5.355   6.542   0.806
58457SOL    HW177145   5.340   6.545   0.901
58457SOL    HW277146   5.294   6.606   0.770
58458SOL     OW77147  14.420  12.588  14.759
58458SOL    HW177148  14.393  12.640  14.683
58458SOL    HW277149  14.442  12.654  14.826
58459SOL     OW77150  13.740   8.277   3.481
58459SOL    HW177151  13.816   8.228   3.513
58459SOL    HW277152  13.763   8.369   3.497
58460SOL     OW77153   7.637   6.001   2.921
58460SOL    HW177154   7.637   5.952   3.003
58460SOL    HW277155   7.547   6.032   2.911
58461SOL     OW77156   5.556  10.157  10.649
58461SOL    HW177157   5.486  10.191  10.704
58461SOL    HW277158   5.626  10.134  10.710
58462SOL     OW77159   3.440   5.345   9.576
58462SOL    HW177160   3.503   5.384   9.636
58462SOL    HW277161   3.490   5.280   9.527
58463SOL     OW77162  10.915  11.858  12.147
58463SOL    HW177163  10.867  11.922  12.095
58463SOL    HW277164  10.975  11.817  12.086
58464SOL     OW77165   6.603   1.624  13.660
58464SOL    HW177166   6.641   1.671  13.586
58464SOL    HW277167   6.520   1.589  13.626
58465SOL     OW77168  12.092   4.509   2.777
58465SOL    HW177169  12.119   4.417   2.777
58465SOL    HW277170  12.003   4.508   2.742
58466SOL     OW77171   6.743   1.754   3.534
58466SOL    HW177172   6.702   1.669   3.549
58466SOL    HW277173   6.813   1.737   3.470
58467SOL     OW77174   6.214   4.401  10.715
58467SOL    HW177175   6.230   4.392  10.621
58467SOL    HW277176   6.254   4.485  10.738
58468SOL     OW77177  10.161  13.314   2.965
58468SOL    HW177178  10.142  13.368   2.888
58468SOL    HW277179  10.215  13.370   3.021
58469SOL     OW77180   2.849   7.195  10.191
58469SOL    HW177181   2.828   7.193  10.284
58469SOL    HW277182   2.913   7.125  10.179
58470SOL     OW77183  10.746   9.616  13.187
58470SOL    HW177184  10.667   9.658  13.154
58470SOL    HW277185  10.794   9.589  13.108
58471SOL     OW77186  14.102   4.817   4.193
58471SOL    HW177187  14.182   4.861   4.163
58471SOL    HW277188  14.087   4.852   4.281
58472SOL     OW77189   1.374   7.995   5.261
58472SOL    HW177190   1.434   8.066   5.286
58472SOL    HW277191   1.287   8.033   5.271
58473SOL     OW77192   6.329  11.954   4.900
58473SOL    HW177193   6.417  11.975   4.867
58473SOL    HW277194   6.287  11.907   4.828
58474SOL     OW77195   2.144   4.583  13.900
58474SOL    HW177196   2.214   4.635  13.861
58474SOL    HW277197   2.106   4.641  13.966
58475SOL     OW77198   5.481   2.885  10.029
58475SOL    HW177199   5.479   2.960   9.970
58475SOL    HW277200   5.397   2.842  10.016
58476SOL     OW77201   6.229   5.862   4.976
58476SOL    HW177202   6.147   5.826   4.944
58476SOL    HW277203   6.251   5.806   5.051
58477SOL     OW77204  13.287   8.238   8.260
58477SOL    HW177205  13.228   8.295   8.309
58477SOL    HW277206  13.312   8.289   8.183
58478SOL     OW77207   2.325  12.214   3.381
58478SOL    HW177208   2.361  12.125   3.385
58478SOL    HW277209   2.325  12.244   3.472
58479SOL     OW77210   7.672   9.431  13.532
58479SOL    HW177211   7.643   9.420  13.622
58479SOL    HW277212   7.594   9.461  13.485
58480SOL     OW77213   3.020   7.346   7.503
58480SOL    HW177214   3.058   7.324   7.588
58480SOL    HW277215   3.038   7.439   7.491
58481SOL     OW77216   3.670   7.421  13.319
58481SOL    HW177217   3.583   7.386  13.336
58481SOL    HW277218   3.717   7.411  13.402
58482SOL     OW77219   2.567  10.066   5.002
58482SOL    HW177220   2.553  10.049   4.909
58482SOL    HW277221   2.642  10.125   5.005
58483SOL     OW77222  11.323   2.556   5.315
58483SOL    HW177223  11.388   2.539   5.383
58483SOL    HW277224  11.373   2.551   5.233
58484SOL     OW77225   2.934   5.847   0.918
58484SOL    HW177226   2.875   5.862   0.845
58484SOL    HW277227   2.921   5.922   0.976
58485SOL     OW77228  11.389  10.035  10.823
58485SOL    HW177229  11.426  10.116  10.787
58485SOL    HW277230  11.297  10.037  10.797
58486SOL     OW77231   6.747  12.133   9.015
58486SOL    HW177232   6.768  12.207   9.072
58486SOL    HW277233   6.670  12.093   9.056
58487SOL     OW77234  14.063  13.298   9.894
58487SOL    HW177235  14.097  13.244   9.965
58487SOL    HW277236  14.128  13.289   9.824
58488SOL     OW77237   7.382  10.227  10.274
58488SOL    HW177238   7.408  10.233  10.182
58488SOL    HW277239   7.302  10.176  10.274
58489SOL     OW77240   5.580  12.531  14.419
58489SOL    HW177241   5.577  12.461  14.484
58489SOL    HW277242   5.550  12.489  14.338
58490SOL     OW77243   5.349  13.344   5.043
58490SOL    HW177244   5.369  13.252   5.060
58490SOL    HW277245   5.325  13.347   4.950
58491SOL     OW77246  10.059   9.759   8.359
58491SOL    HW177247  10.026   9.689   8.303
58491SOL    HW277248  10.041   9.728   8.448
58492SOL     OW77249   0.320  13.242   6.881
58492SOL    HW177250   0.272  13.293   6.816
58492SOL    HW277251   0.254  13.215   6.945
58493SOL     OW77252   1.268   7.507   7.746
58493SOL    HW177253   1.191   7.563   7.736
58493SOL    HW277254   1.253   7.435   7.686
58494SOL     OW77255  11.823  13.634   9.204
58494SOL    HW177256  11.732  13.634   9.174
58494SOL    HW277257  11.849  13.542   9.201
58495SOL     OW77258   0.055  13.811   2.964
58495SOL    HW177259  14.867  13.878   2.981
58495SOL    HW277260   0.097  13.840   2.883
58496SOL     OW77261   2.784   1.732   5.481
58496SOL    HW177262   2.819   1.656   5.529
58496SOL    HW277263   2.860   1.767   5.434
58497SOL     OW77264  11.662   4.738   4.433
58497SOL    HW177265  11.585   4.722   4.488
58497SOL    HW277266  11.660   4.667   4.369
58498SOL     OW77267   5.322  11.633   1.956
58498SOL    HW177268   5.365  11.550   1.935
58498SOL    HW277269   5.303  11.673   1.871
58499SOL     OW77270  13.527   7.639   1.005
58499SOL    HW177271  13.520   7.723   0.960
58499SOL    HW277272  13.454   7.639   1.068
58500SOL     OW77273  13.168  13.752   5.997
58500SOL    HW177274  13.191  13.726   6.087
58500SOL    HW277275  13.242  13.722   5.945
58501SOL     OW77276   4.502   5.403  12.212
58501SOL    HW177277   4.557   5.334  12.248
58501SOL    HW277278   4.431   5.356  12.168
58502SOL     OW77279   8.085   5.401   6.977
58502SOL    HW177280   8.154   5.335   6.984
58502SOL    HW277281   8.049   5.388   6.889
58503SOL     OW77282  11.274  13.387   4.739
58503SOL    HW177283  11.303  13.478   4.729
58503SOL    HW277284  11.180  13.390   4.720
58504SOL     OW77285   1.335   8.661   1.562
58504SOL    HW177286   1.391   8.665   1.639
58504SOL    HW277287   1.342   8.571   1.532
58505SOL     OW77288   7.996   5.001  10.286
58505SOL    HW177289   8.074   5.027  10.237
58505SOL    HW277290   7.924   5.015  10.225
58506SOL     OW77291  12.365  13.368  13.067
58506SOL    HW177292  12.410  13.447  13.034
58506SOL    HW277293  12.404  13.353  13.153
58507SOL     OW77294   1.739  11.979   3.512
58507SOL    HW177295   1.827  11.999   3.544
58507SOL    HW277296   1.739  11.884   3.500
58508SOL     OW77297   9.674  12.745  13.037
58508SOL    HW177298   9.688  12.654  13.065
58508SOL    HW277299   9.612  12.780  13.100
58509SOL     OW77300   4.698   3.988  14.049
58509SOL    HW177301   4.737   4.023  13.970
58509SOL    HW277302   4.705   4.059  14.113
58510SOL     OW77303   7.319   5.254   8.564
58510SOL    HW177304   7.256   5.248   8.635
58510SOL    HW277305   7.349   5.344   8.566
58511SOL     OW77306   3.765  14.749  12.933
58511SOL    HW177307   3.832  14.712  12.875
58511SOL    HW277308   3.738  14.829  12.890
58512SOL     OW77309  12.836   1.639  11.697
58512SOL    HW177310  12.887   1.716  11.673
58512SOL    HW277311  12.783   1.619  11.620
58513SOL     OW77312   0.667   7.255   3.172
58513SOL    HW177313   0.727   7.288   3.239
58513SOL    HW277314   0.609   7.329   3.153
58514SOL     OW77315   1.515   1.417  14.421
58514SOL    HW177316   1.558   1.463  14.493
58514SOL    HW277317   1.455   1.481  14.383
58515SOL     OW77318   6.673   8.471  14.840
58515SOL    HW177319   6.734   8.498  14.771
58515SOL    HW277320   6.587   8.497  14.808
58516SOL     OW77321   3.505   1.294   8.980
58516SOL    HW177322   3.491   1.250   9.064
58516SOL    HW277323   3.504   1.223   8.916
58517SOL     OW77324   3.885   3.845  11.932
58517SOL    HW177325   3.838   3.869  12.012
58517SOL    HW277326   3.922   3.759  11.951
58518SOL     OW77327   2.696  14.678   0.865
58518SOL    HW177328   2.629  14.673   0.797
58518SOL    HW277329   2.766  14.730   0.826
58519SOL     OW77330  11.285   6.730   9.388
58519SOL    HW177331  11.237   6.803   9.428
58519SOL    HW277332  11.219   6.680   9.341
58520SOL     OW77333  14.345   5.787   8.982
58520SOL    HW177334  14.322   5.876   8.956
58520SOL    HW277335  14.437   5.792   9.007
58521SOL     OW77336   6.436   5.067   0.682
58521SOL    HW177337   6.471   4.986   0.643
58521SOL    HW277338   6.505   5.096   0.741
58522SOL     OW77339   2.214   6.467   1.869
58522SOL    HW177340   2.289   6.414   1.842
58522SOL    HW277341   2.172   6.416   1.938
58523SOL     OW77342   2.105   2.712   6.340
58523SOL    HW177343   2.164   2.668   6.279
58523SOL    HW277344   2.026   2.728   6.289
58524SOL     OW77345  13.728   3.498   9.459
58524SOL    HW177346  13.798   3.434   9.473
58524SOL    HW277347  13.712   3.535   9.547
58525SOL     OW77348   4.507   9.272   9.357
58525SOL    HW177349   4.432   9.233   9.401
58525SOL    HW277350   4.535   9.343   9.414
58526SOL     OW77351   3.918   5.447  14.552
58526SOL    HW177352   3.989   5.415  14.497
58526SOL    HW277353   3.900   5.375  14.612
58527SOL     OW77354  11.792   9.560   1.058
58527SOL    HW177355  11.856   9.557   0.987
58527SOL    HW277356  11.733   9.487   1.040
58528SOL     OW77357   4.003   8.328  10.755
58528SOL    HW177358   3.914   8.293  10.747
58528SOL    HW277359   3.992   8.411  10.800
58529SOL     OW77360  14.827  14.592   8.808
58529SOL    HW177361  14.835  14.522   8.744
58529SOL    HW277362  14.853  14.671   8.761
58530SOL     OW77363   5.385   6.723   3.056
58530SOL    HW177364   5.429   6.657   3.111
58530SOL    HW277365   5.392   6.688   2.967
58531SOL     OW77366   7.207   5.424   1.661
58531SOL    HW177367   7.121   5.457   1.633
58531SOL    HW277368   7.268   5.495   1.640
58532SOL     OW77369  12.809  14.602   1.344
58532SOL    HW177370  12.873  14.640   1.404
58532SOL    HW277371  12.729  14.653   1.360
58533SOL     OW77372  10.372   8.284   6.471
58533SOL    HW177373  10.457   8.327   6.474
58533SOL    HW277374  10.349   8.272   6.563
58534SOL     OW77375   8.325   0.771   0.092
58534SOL    HW177376   8.350   0.691   0.139
58534SOL    HW277377   8.259   0.742   0.028
58535SOL     OW77378  13.934  12.110   9.862
58535SOL    HW177379  14.018  12.134   9.902
58535SOL    HW277380  13.907  12.190   9.816
58536SOL     OW77381   3.900   2.182   5.651
58536SOL    HW177382   3.871   2.091   5.656
58536SOL    HW277383   3.982   2.178   5.602
58537SOL     OW77384  13.923  13.252  14.152
58537SOL    HW177385  13.829  13.234  14.144
58537SOL    HW277386  13.931  13.296  14.237
58538SOL     OW77387   6.124  11.026  11.904
58538SOL    HW177388   6.081  11.107  11.877
58538SOL    HW277389   6.067  10.956  11.870
58539SOL     OW77390   8.477   1.818   0.039
58539SOL    HW177391   8.546   1.863  14.869
58539SOL    HW277392   8.396   1.864   0.014
58540SOL     OW77393   9.629   3.252   9.634
58540SOL    HW177394   9.608   3.345   9.633
58540SOL    HW277395   9.547   3.209   9.660
58541SOL     OW77396   8.352   7.117   3.298
58541SOL    HW177397   8.341   7.198   3.248
58541SOL    HW277398   8.415   7.066   3.247
58542SOL     OW77399   4.003   7.145   5.172
58542SOL    HW177400   3.981   7.235   5.196
58542SOL    HW277401   3.932   7.092   5.208
58543SOL     OW77402   5.260   9.649  12.561
58543SOL    HW177403   5.281   9.739  12.535
58543SOL    HW277404   5.290   9.643  12.652
58544SOL     OW77405   4.572   7.760   3.489
58544SOL    HW177406   4.483   7.767   3.524
58544SOL    HW277407   4.563   7.776   3.395
58545SOL     OW77408   3.892   4.883   3.820
58545SOL    HW177409   3.938   4.869   3.903
58545SOL    HW277410   3.930   4.963   3.784
58546SOL     OW77411  11.426   5.730   4.555
58546SOL    HW177412  11.441   5.818   4.591
58546SOL    HW277413  11.513   5.690   4.556
58547SOL     OW77414  12.225   1.495  13.090
58547SOL    HW177415  12.296   1.430  13.081
58547SOL    HW277416  12.258   1.557  13.155
58548SOL     OW77417   4.555  10.749   3.805
58548SOL    HW177418   4.650  10.761   3.812
58548SOL    HW277419   4.518  10.829   3.843
58549SOL     OW77420   3.005   8.580   5.684
58549SOL    HW177421   3.067   8.555   5.753
58549SOL    HW277422   2.925   8.534   5.707
58550SOL     OW77423  12.896   4.296   7.294
58550SOL    HW177424  12.866   4.213   7.259
58550SOL    HW277425  12.825   4.357   7.275
58551SOL     OW77426  14.651   7.978  14.505
58551SOL    HW177427  14.673   7.891  14.537
58551SOL    HW277428  14.585   7.962  14.437
58552SOL     OW77429   5.333  11.183  14.077
58552SOL    HW177430   5.293  11.099  14.058
58552SOL    HW277431   5.306  11.204  14.167
58553SOL     OW77432   4.718   4.577  12.825
58553SOL    HW177433   4.690   4.566  12.916
58553SOL    HW277434   4.813   4.562  12.827
58554SOL     OW77435   3.047   7.063   2.794
58554SOL    HW177436   3.083   7.139   2.748
58554SOL    HW277437   2.996   7.101   2.866
58555SOL     OW77438  13.717  14.328   2.800
58555SOL    HW177439  13.761  14.310   2.883
58555SOL    HW277440  13.642  14.383   2.823
58556SOL     OW77441   9.346   3.466   3.406
58556SOL    HW177442   9.279   3.398   3.394
58556SOL    HW277443   9.412   3.424   3.461
58557SOL     OW77444  10.455   9.516  10.129
58557SOL    HW177445  10.464   9.421  10.124
58557SOL    HW277446  10.521   9.550  10.068
58558SOL     OW77447   4.902   4.084   1.740
58558SOL    HW177448   4.973   4.026   1.713
58558SOL    HW277449   4.855   4.103   1.659
58559SOL     OW77450   8.573   3.595  11.025
58559SOL    HW177451   8.507   3.541  11.067
58559SOL    HW277452   8.539   3.611  10.937
58560SOL     OW77453   9.284  11.457   4.554
58560SOL    HW177454   9.358  11.433   4.609
58560SOL    HW277455   9.267  11.549   4.576
58561SOL     OW77456   6.236   9.222   3.472
58561SOL    HW177457   6.186   9.148   3.507
58561SOL    HW277458   6.224   9.216   3.378
58562SOL     OW77459   0.097  11.353   2.829
58562SOL    HW177460   0.120  11.263   2.855
58562SOL    HW277461   0.033  11.380   2.895
58563SOL     OW77462  13.859  11.476   0.059
58563SOL    HW177463  13.887  11.470  14.845
58563SOL    HW277464  13.912  11.547   0.095
58564SOL     OW77465  12.513   2.285   1.945
58564SOL    HW177466  12.552   2.227   1.879
58564SOL    HW277467  12.459   2.228   1.999
58565SOL     OW77468   9.799   9.008   0.433
58565SOL    HW177469   9.836   8.947   0.370
58565SOL    HW277470   9.771   8.952   0.506
58566SOL     OW77471   7.655   5.862  11.075
58566SOL    HW177472   7.628   5.797  11.140
58566SOL    HW277473   7.679   5.938  11.127
58567SOL     OW77474  11.354   9.626   2.040
58567SOL    HW177475  11.328   9.534   2.036
58567SOL    HW277476  11.402   9.633   2.122
58568SOL     OW77477   7.960  14.053   9.035
58568SOL    HW177478   8.001  14.037   9.120
58568SOL    HW277479   8.014  14.004   8.973
58569SOL     OW77480  12.601   1.599   4.803
58569SOL    HW177481  12.611   1.559   4.716
58569SOL    HW277482  12.590   1.524   4.862
58570SOL     OW77483   4.814  11.321   2.681
58570SOL    HW177484   4.805  11.387   2.750
58570SOL    HW277485   4.726  11.283   2.673
58571SOL     OW77486   4.317  10.061   3.867
58571SOL    HW177487   4.234  10.018   3.848
58571SOL    HW277488   4.351  10.015   3.944
58572SOL     OW77489   3.596   0.784   6.263
58572SOL    HW177490   3.599   0.843   6.188
58572SOL    HW277491   3.615   0.839   6.339
58573SOL     OW77492   2.844  14.110   1.209
58573SOL    HW177493   2.870  14.173   1.276
58573SOL    HW277494   2.926  14.081   1.170
58574SOL     OW77495  10.766   2.665   1.251
58574SOL    HW177496  10.780   2.759   1.263
58574SOL    HW277497  10.789   2.626   1.336
58575SOL     OW77498   8.175   4.839  10.941
58575SOL    HW177499   8.136   4.765  10.987
58575SOL    HW277500   8.117   4.855  10.867
58576SOL     OW77501  12.516  11.643   6.678
58576SOL    HW177502  12.479  11.720   6.635
58576SOL    HW277503  12.600  11.672   6.713
58577SOL     OW77504   2.372   8.380  11.526
58577SOL    HW177505   2.449   8.375  11.469
58577SOL    HW277506   2.358   8.474  11.538
58578SOL     OW77507   4.881  12.238   8.086
58578SOL    HW177508   4.881  12.248   7.991
58578SOL    HW277509   4.808  12.178   8.104
58579SOL     OW77510   9.535  10.104   3.714
58579SOL    HW177511   9.611  10.055   3.685
58579SOL    HW277512   9.542  10.188   3.669
58580SOL     OW77513  10.133   4.112   9.245
58580SOL    HW177514  10.195   4.039   9.251
58580SOL    HW277515  10.056   4.074   9.202
58581SOL     OW77516   8.582   6.610   2.222
58581SOL    HW177517   8.551   6.636   2.308
58581SOL    HW277518   8.504   6.610   2.167
58582SOL     OW77519   3.041   6.209  11.799
58582SOL    HW177520   2.967   6.258  11.836
58582SOL    HW277521   3.036   6.123  11.842
58583SOL     OW77522   6.017  11.971   3.870
58583SOL    HW177523   5.924  11.948   3.867
58583SOL    HW277524   6.036  12.007   3.783
58584SOL     OW77525   2.514  13.948  14.071
58584SOL    HW177526   2.443  13.934  14.009
58584SOL    HW277527   2.594  13.929  14.021
58585SOL     OW77528  14.744   8.361   4.226
58585SOL    HW177529  14.704   8.320   4.149
58585SOL    HW277530  14.833   8.327   4.228
58586SOL     OW77531   7.483   0.613  13.651
58586SOL    HW177532   7.481   0.649  13.562
58586SOL    HW277533   7.503   0.688  13.707
58587SOL     OW77534   3.970  11.839   8.913
58587SOL    HW177535   4.000  11.799   8.995
58587SOL    HW277536   3.928  11.767   8.866
58588SOL     OW77537   1.810   9.341   6.353
58588SOL    HW177538   1.760   9.401   6.408
58588SOL    HW277539   1.809   9.382   6.266
58589SOL     OW77540  12.386   5.946   7.804
58589SOL    HW177541  12.373   6.038   7.829
58589SOL    HW277542  12.395   5.948   7.709
58590SOL     OW77543   0.552  10.570  13.882
58590SOL    HW177544   0.534  10.550  13.974
58590SOL    HW277545   0.513  10.656  13.868
58591SOL     OW77546  12.616   3.700  11.685
58591SOL    HW177547  12.549   3.685  11.751
58591SOL    HW277548  12.682   3.632  11.700
58592SOL     OW77549   1.114  14.876   0.071
58592SOL    HW177550   1.149  14.788   0.058
58592SOL    HW277551   1.128   0.016   0.164
58593SOL     OW77552   3.416  11.019   1.722
58593SOL    HW177553   3.466  10.941   1.747
58593SOL    HW277554   3.327  10.987   1.710
58594SOL     OW77555  12.201  13.054   4.380
58594SOL    HW177556  12.188  12.960   4.391
58594SOL    HW277557  12.113  13.091   4.384
58595SOL     OW77558   8.742  11.424   8.120
58595SOL    HW177559   8.828  11.385   8.104
58595SOL    HW277560   8.712  11.382   8.201
58596SOL     OW77561   7.584   8.658   2.337
58596SOL    HW177562   7.654   8.611   2.293
58596SOL    HW277563   7.622   8.742   2.362
58597SOL     OW77564   2.229   2.614   7.809
58597SOL    HW177565   2.252   2.705   7.828
58597SOL    HW277566   2.143   2.619   7.768
58598SOL     OW77567   6.740  10.622   2.043
58598SOL    HW177568   6.745  10.716   2.062
58598SOL    HW277569   6.650  10.598   2.063
58599SOL     OW77570   6.057   7.405   2.779
58599SOL    HW177571   6.035   7.454   2.858
58599SOL    HW277572   6.132   7.450   2.742
58600SOL     OW77573  14.642   5.412  11.232
58600SOL    HW177574  14.709   5.436  11.295
58600SOL    HW277575  14.610   5.327  11.263
58601SOL     OW77576   7.135  11.820   4.773
58601SOL    HW177577   7.175  11.881   4.835
58601SOL    HW277578   7.150  11.734   4.811
58602SOL     OW77579  11.798   6.588   0.955
58602SOL    HW177580  11.792   6.557   0.865
58602SOL    HW277581  11.860   6.529   0.997
58603SOL     OW77582   6.089   2.300   1.839
58603SOL    HW177583   6.172   2.291   1.794
58603SOL    HW277584   6.088   2.228   1.902
58604SOL     OW77585   0.393  13.883   9.019
58604SOL    HW177586   0.395  13.978   9.026
58604SOL    HW277587   0.485  13.858   9.004
58605SOL     OW77588  13.346  13.739   7.483
58605SOL    HW177589  13.387  13.706   7.563
58605SOL    HW277590  13.266  13.687   7.474
58606SOL     OW77591   0.238   7.548   7.166
58606SOL    HW177592   0.154   7.584   7.140
58606SOL    HW277593   0.228   7.524   7.258
58607SOL     OW77594   0.293   9.686   7.083
58607SOL    HW177595   0.257   9.752   7.023
58607SOL    HW277596   0.360   9.641   7.032
58608SOL     OW77597  11.518   1.339   9.561
58608SOL    HW177598  11.585   1.271   9.566
58608SOL    HW277599  11.517   1.365   9.468
58609SOL     OW77600   4.209  14.536   9.988
58609SOL    HW177601   4.173  14.606  10.043
58609SOL    HW277602   4.303  14.550   9.990
58610SOL     OW77603   1.173  10.185   8.713
58610SOL    HW177604   1.097  10.161   8.767
58610SOL    HW277605   1.207  10.101   8.682
58611SOL     OW77606   3.341   0.686  11.111
58611SOL    HW177607   3.258   0.730  11.090
58611SOL    HW277608   3.396   0.703  11.034
58612SOL     OW77609   5.162  13.502  14.783
58612SOL    HW177610   5.104  13.477  14.855
58612SOL    HW277611   5.130  13.587  14.754
58613SOL     OW77612  12.085   5.053  14.005
58613SOL    HW177613  12.175   5.050  14.037
58613SOL    HW277614  12.041   5.114  14.063
58614SOL     OW77615   3.086   8.942   3.278
58614SOL    HW177616   3.022   8.884   3.318
58614SOL    HW277617   3.166   8.930   3.330
58615SOL     OW77618  14.397   3.487  10.201
58615SOL    HW177619  14.310   3.522  10.185
58615SOL    HW277620  14.384   3.394  10.220
58616SOL     OW77621   4.577   3.431   3.006
58616SOL    HW177622   4.511   3.430   2.936
58616SOL    HW277623   4.582   3.522   3.033
58617SOL     OW77624   8.218   7.721   4.690
58617SOL    HW177625   8.301   7.768   4.697
58617SOL    HW277626   8.170   7.767   4.621
58618SOL     OW77627   6.835   2.945   3.088
58618SOL    HW177628   6.855   2.859   3.053
58618SOL    HW277629   6.890   3.005   3.038
58619SOL     OW77630   3.965  14.345  12.741
58619SOL    HW177631   3.946  14.390  12.823
58619SOL    HW277632   4.054  14.372  12.719
58620SOL     OW77633   1.441   1.444   4.396
58620SOL    HW177634   1.447   1.481   4.484
58620SOL    HW277635   1.525   1.401   4.383
58621SOL     OW77636   9.542   2.012  10.851
58621SOL    HW177637   9.595   2.024  10.772
58621SOL    HW277638   9.606   2.007  10.923
58622SOL     OW77639   2.139  11.549   4.219
58622SOL    HW177640   2.214  11.595   4.256
58622SOL    HW277641   2.171  11.513   4.137
58623SOL     OW77642  14.007  14.802   1.841
58623SOL    HW177643  14.022  14.711   1.814
58623SOL    HW277644  14.088  14.827   1.885
58624SOL     OW77645   1.911  14.742   1.959
58624SOL    HW177646   1.856  14.729   2.036
58624SOL    HW277647   1.923  14.653   1.924
58625SOL     OW77648  11.124   0.787  14.256
58625SOL    HW177649  11.046   0.802  14.202
58625SOL    HW277650  11.105   0.828  14.340
58626SOL     OW77651  14.135   9.703   4.439
58626SOL    HW177652  14.175   9.618   4.422
58626SOL    HW277653  14.063   9.709   4.377
58627SOL     OW77654   8.030  13.526  13.897
58627SOL    HW177655   8.089  13.583  13.847
58627SOL    HW277656   8.088  13.474  13.952
58628SOL     OW77657  12.442   8.908   5.950
58628SOL    HW177658  12.452   8.903   6.045
58628SOL    HW277659  12.515   8.963   5.921
58629SOL     OW77660  14.731  13.013   2.939
58629SOL    HW177661  14.645  12.993   2.904
58629SOL    HW277662  14.780  12.930   2.932
58630SOL     OW77663  13.089   2.836   5.697
58630SOL    HW177664  13.030   2.785   5.642
58630SOL    HW277665  13.177   2.810   5.668
58631SOL     OW77666   8.796   0.267  10.913
58631SOL    HW177667   8.760   0.210  10.845
58631SOL    HW277668   8.787   0.216  10.994
58632SOL     OW77669   1.683   6.998   8.755
58632SOL    HW177670   1.624   7.034   8.821
58632SOL    HW277671   1.754   7.061   8.748
58633SOL     OW77672   2.287   3.149  14.116
58633SOL    HW177673   2.314   3.057  14.123
58633SOL    HW277674   2.192   3.145  14.116
58634SOL     OW77675  10.540  12.614   8.451
58634SOL    HW177676  10.591  12.594   8.529
58634SOL    HW277677  10.530  12.530   8.407
58635SOL     OW77678  14.243  14.349   6.944
58635SOL    HW177679  14.188  14.415   6.901
58635SOL    HW277680  14.246  14.377   7.036
58636SOL     OW77681   4.164  13.103  13.143
58636SOL    HW177682   4.146  13.163  13.216
58636SOL    HW277683   4.094  13.038  13.148
58637SOL     OW77684   6.256  13.385   5.763
58637SOL    HW177685   6.302  13.312   5.804
58637SOL    HW277686   6.201  13.345   5.695
58638SOL     OW77687   3.300   0.415   2.281
58638SOL    HW177688   3.321   0.447   2.193
58638SOL    HW277689   3.331   0.324   2.281
58639SOL     OW77690  10.808   4.666   3.733
58639SOL    HW177691  10.750   4.594   3.756
58639SOL    HW277692  10.824   4.711   3.816
58640SOL     OW77693   7.170   8.011  12.340
58640SOL    HW177694   7.188   8.095  12.299
58640SOL    HW277695   7.150   8.032  12.431
58641SOL     OW77696  12.305   2.693   2.383
58641SOL    HW177697  12.286   2.634   2.456
58641SOL    HW277698  12.219   2.725   2.356
58642SOL     OW77699   4.545  12.027   5.783
58642SOL    HW177700   4.508  12.053   5.699
58642SOL    HW277701   4.621  12.084   5.794
58643SOL     OW77702   0.981   3.432   9.426
58643SOL    HW177703   0.993   3.526   9.413
58643SOL    HW277704   0.971   3.397   9.337
58644SOL     OW77705   1.543   6.827   5.179
58644SOL    HW177706   1.522   6.817   5.271
58644SOL    HW277707   1.488   6.763   5.134
58645SOL     OW77708  10.042  11.420   1.277
58645SOL    HW177709   9.984  11.362   1.326
58645SOL    HW277710  10.130  11.383   1.289
58646SOL     OW77711   4.117  10.030   2.806
58646SOL    HW177712   4.098  10.123   2.800
58646SOL    HW277713   4.196  10.024   2.860
58647SOL     OW77714  12.303  14.354   7.960
58647SOL    HW177715  12.234  14.399   8.008
58647SOL    HW277716  12.286  14.261   7.975
58648SOL     OW77717  12.199   5.837   2.466
58648SOL    HW177718  12.185   5.797   2.380
58648SOL    HW277719  12.153   5.779   2.527
58649SOL     OW77720   1.314   5.297   3.963
58649SOL    HW177721   1.315   5.277   3.869
58649SOL    HW277722   1.403   5.325   3.983
58650SOL     OW77723  14.794   9.437   9.423
58650SOL    HW177724  14.807   9.346   9.449
58650SOL    HW277725  14.789   9.486   9.505
58651SOL     OW77726  14.771  14.396   5.799
58651SOL    HW177727  14.766  14.318   5.855
58651SOL    HW277728  14.809  14.365   5.717
58652SOL     OW77729  11.744   6.519   4.849
58652SOL    HW177730  11.769   6.442   4.900
58652SOL    HW277731  11.802   6.516   4.773
58653SOL     OW77732   9.850   8.342   5.573
58653SOL    HW177733   9.817   8.425   5.538
58653SOL    HW277734   9.938   8.362   5.603
58654SOL     OW77735  11.310   8.092   3.908
58654SOL    HW177736  11.375   8.104   3.978
58654SOL    HW277737  11.344   8.143   3.835
58655SOL     OW77738   1.666   8.808   5.067
58655SOL    HW177739   1.663   8.734   5.006
58655SOL    HW277740   1.714   8.876   5.020
58656SOL     OW77741   0.705  13.770   2.590
58656SOL    HW177742   0.668  13.826   2.658
58656SOL    HW277743   0.656  13.793   2.511
58657SOL     OW77744   5.302  14.039  12.266
58657SOL    HW177745   5.338  13.980  12.200
58657SOL    HW277746   5.262  14.110  12.216
58658SOL     OW77747   3.725  10.266  12.332
58658SOL    HW177748   3.794  10.210  12.365
58658SOL    HW277749   3.769  10.322  12.267
58659SOL     OW77750  14.116   5.574   5.499
58659SOL    HW177751  14.172   5.497   5.490
58659SOL    HW277752  14.175   5.648   5.488
58660SOL     OW77753   9.847  10.532  14.116
58660SOL    HW177754   9.792  10.610  14.120
58660SOL    HW277755   9.838  10.491  14.202
58661SOL     OW77756  14.326   2.397  11.656
58661SOL    HW177757  14.323   2.373  11.563
58661SOL    HW277758  14.246   2.360  11.693
58662SOL     OW77759   1.295   4.002   7.190
58662SOL    HW177760   1.320   4.004   7.098
58662SOL    HW277761   1.238   3.926   7.199
58663SOL     OW77762   0.710   8.231   9.886
58663SOL    HW177763   0.794   8.227   9.932
58663SOL    HW277764   0.654   8.169   9.934
58664SOL     OW77765   9.206  11.607  14.341
58664SOL    HW177766   9.155  11.686  14.323
58664SOL    HW277767   9.294  11.628  14.312
58665SOL     OW77768   5.215   3.565   2.339
58665SOL    HW177769   5.139   3.622   2.338
58665SOL    HW277770   5.255   3.579   2.425
58666SOL     OW77771   4.703   2.210   4.596
58666SOL    HW177772   4.681   2.290   4.546
58666SOL    HW277773   4.742   2.243   4.677
58667SOL     OW77774  12.377  10.110   9.430
58667SOL    HW177775  12.462  10.081   9.463
58667SOL    HW277776  12.320  10.034   9.442
58668SOL     OW77777   1.391   1.107   5.474
58668SOL    HW177778   1.414   1.188   5.429
58668SOL    HW277779   1.413   1.038   5.412
58669SOL     OW77780  13.431  13.616   8.073
58669SOL    HW177781  13.497  13.547   8.062
58669SOL    HW277782  13.468  13.692   8.030
58670SOL     OW77783   4.425   2.586  11.201
58670SOL    HW177784   4.508   2.539  11.201
58670SOL    HW277785   4.416   2.621  11.289
58671SOL     OW77786   2.912   4.526  12.463
58671SOL    HW177787   2.860   4.479  12.397
58671SOL    HW277788   2.851   4.589  12.502
58672SOL     OW77789  12.518   0.781   4.288
58672SOL    HW177790  12.470   0.711   4.334
58672SOL    HW277791  12.556   0.737   4.212
58673SOL     OW77792   4.991   7.801   2.923
58673SOL    HW177793   4.955   7.712   2.923
58673SOL    HW277794   5.068   7.795   2.978
58674SOL     OW77795   4.630   2.194  10.545
58674SOL    HW177796   4.686   2.272  10.551
58674SOL    HW277797   4.542   2.226  10.562
58675SOL     OW77798   9.194   0.727   0.890
58675SOL    HW177799   9.170   0.809   0.847
58675SOL    HW277800   9.189   0.747   0.984
58676SOL     OW77801   0.637  12.765   6.818
58676SOL    HW177802   0.578  12.839   6.802
58676SOL    HW277803   0.711  12.781   6.759
58677SOL     OW77804   4.774   7.927  11.520
58677SOL    HW177805   4.742   7.841  11.547
58677SOL    HW277806   4.723   7.990  11.572
58678SOL     OW77807  10.315  10.114   3.874
58678SOL    HW177808  10.325  10.019   3.868
58678SOL    HW277809  10.252  10.127   3.944
58679SOL     OW77810   5.028   3.325   1.428
58679SOL    HW177811   5.100   3.388   1.425
58679SOL    HW277812   5.016   3.307   1.521
58680SOL     OW77813  11.297   4.156   4.920
58680SOL    HW177814  11.351   4.235   4.917
58680SOL    HW277815  11.287   4.138   5.014
58681SOL     OW77816   5.302   3.260   0.580
58681SOL    HW177817   5.386   3.282   0.539
58681SOL    HW277818   5.280   3.337   0.633
58682SOL     OW77819   3.963  12.827  12.170
58682SOL    HW177820   3.946  12.741  12.208
58682SOL    HW277821   3.968  12.886  12.245
58683SOL     OW77822  13.784   9.109  14.385
58683SOL    HW177823  13.785   9.029  14.332
58683SOL    HW277824  13.692   9.135  14.387
58684SOL     OW77825   4.411   4.587   6.608
58684SOL    HW177826   4.381   4.593   6.699
58684SOL    HW277827   4.498   4.547   6.613
58685SOL     OW77828   7.047  13.940   2.175
58685SOL    HW177829   7.113  13.999   2.208
58685SOL    HW277830   7.080  13.852   2.196
58686SOL     OW77831  11.345   2.206   9.812
58686SOL    HW177832  11.334   2.166   9.726
58686SOL    HW277833  11.439   2.211   9.824
58687SOL     OW77834   1.552  11.918  12.435
58687SOL    HW177835   1.600  11.837  12.450
58687SOL    HW277836   1.582  11.948  12.348
58688SOL     OW77837   1.438  14.009   3.333
58688SOL    HW177838   1.397  14.083   3.288
58688SOL    HW277839   1.378  13.986   3.403
58689SOL     OW77840   8.795   6.206   0.306
58689SOL    HW177841   8.817   6.282   0.360
58689SOL    HW277842   8.857   6.139   0.334
58690SOL     OW77843   4.387   0.542   3.940
58690SOL    HW177844   4.357   0.507   4.024
58690SOL    HW277845   4.477   0.571   3.958
58691SOL     OW77846  10.210  13.793  11.534
58691SOL    HW177847  10.249  13.712  11.565
58691SOL    HW277848  10.272  13.827  11.471
58692SOL     OW77849  13.645  14.534  14.865
58692SOL    HW177850  13.655  14.592  14.789
58692SOL    HW277851  13.707  14.569   0.052
58693SOL     OW77852   7.286   1.114  13.812
58693SOL    HW177853   7.209   1.139  13.762
58693SOL    HW277854   7.360   1.144  13.760
58694SOL     OW77855   9.344  14.422  10.048
58694SOL    HW177856   9.320  14.470   9.968
58694SOL    HW277857   9.354  14.331  10.019
58695SOL     OW77858   0.777   5.691   8.542
58695SOL    HW177859   0.793   5.739   8.461
58695SOL    HW277860   0.862   5.686   8.585
58696SOL     OW77861   5.161  14.790  13.104
58696SOL    HW177862   5.099  14.861  13.115
58696SOL    HW277863   5.110  14.719  13.064
58697SOL     OW77864   2.677  14.183   3.576
58697SOL    HW177865   2.599  14.140   3.611
58697SOL    HW277866   2.645  14.238   3.506
58698SOL     OW77867   8.956   8.436  10.232
58698SOL    HW177868   9.049   8.418  10.218
58698SOL    HW277869   8.910   8.365  10.187
58699SOL     OW77870   0.890   0.861   5.069
58699SOL    HW177871   0.887   0.845   4.975
58699SOL    HW277872   0.978   0.896   5.085
58700SOL     OW77873   6.090   5.199   9.424
58700SOL    HW177874   6.179   5.233   9.427
58700SOL    HW277875   6.050   5.242   9.349
58701SOL     OW77876   5.949  12.006  11.673
58701SOL    HW177877   5.924  12.057  11.751
58701SOL    HW277878   6.021  11.951  11.702
58702SOL     OW77879   9.107   1.547   4.893
58702SOL    HW177880   9.029   1.559   4.947
58702SOL    HW277881   9.087   1.471   4.839
58703SOL     OW77882  12.004   1.782   7.206
58703SOL    HW177883  11.988   1.876   7.198
58703SOL    HW277884  12.062   1.774   7.281
58704SOL     OW77885   3.898  13.348  12.469
58704SOL    HW177886   3.980  13.375  12.428
58704SOL    HW277887   3.895  13.398  12.551
58705SOL     OW77888   9.081   5.857   6.010
58705SOL    HW177889   8.995   5.893   5.988
58705SOL    HW277890   9.135   5.934   6.030
58706SOL     OW77891   0.593   6.457   6.766
58706SOL    HW177892   0.603   6.427   6.676
58706SOL    HW277893   0.604   6.552   6.761
58707SOL     OW77894   2.218  13.438   0.322
58707SOL    HW177895   2.128  13.470   0.330
58707SOL    HW277896   2.272  13.512   0.350
58708SOL     OW77897  10.803   9.417   7.581
58708SOL    HW177898  10.819   9.495   7.634
58708SOL    HW277899  10.725   9.377   7.619
58709SOL     OW77900   1.588  13.444   2.768
58709SOL    HW177901   1.535  13.522   2.783
58709SOL    HW277902   1.678  13.477   2.761
58710SOL     OW77903  11.439  14.742   0.550
58710SOL    HW177904  11.373  14.739   0.619
58710SOL    HW277905  11.388  14.742   0.469
58711SOL     OW77906   4.348   0.767   9.330
58711SOL    HW177907   4.361   0.855   9.295
58711SOL    HW277908   4.348   0.710   9.253
58712SOL     OW77909   2.605   0.243   8.355
58712SOL    HW177910   2.648   0.327   8.340
58712SOL    HW277911   2.578   0.214   8.268
58713SOL     OW77912   3.261   7.804   4.694
58713SOL    HW177913   3.327   7.745   4.731
58713SOL    HW277914   3.186   7.748   4.676
58714SOL     OW77915   3.244   7.270   3.895
58714SOL    HW177916   3.221   7.288   3.986
58714SOL    HW277917   3.229   7.352   3.849
58715SOL     OW77918   7.454   4.150   0.808
58715SOL    HW177919   7.397   4.083   0.769
58715SOL    HW277920   7.523   4.163   0.744
58716SOL     OW77921   9.156   0.713  10.416
58716SOL    HW177922   9.118   0.798  10.395
58716SOL    HW277923   9.251   0.726  10.412
58717SOL     OW77924  13.965  13.560   5.801
58717SOL    HW177925  13.871  13.576   5.799
58717SOL    HW277926  14.002  13.639   5.841
58718SOL     OW77927   6.647  14.582  10.839
58718SOL    HW177928   6.660  14.674  10.818
58718SOL    HW277929   6.554  14.566  10.822
58719SOL     OW77930   2.706  11.429   1.932
58719SOL    HW177931   2.677  11.351   1.980
58719SOL    HW277932   2.756  11.479   1.996
58720SOL     OW77933   9.218   8.471  10.178
58720SOL    HW177934   9.262   8.520  10.109
58720SOL    HW277935   9.265   8.388  10.183
58721SOL     OW77936  12.294   6.369   7.633
58721SOL    HW177937  12.253   6.299   7.685
58721SOL    HW277938  12.236   6.379   7.557
58722SOL     OW77939   5.058   2.217  14.089
58722SOL    HW177940   5.111   2.293  14.110
58722SOL    HW277941   5.029   2.232  13.999
58723SOL     OW77942   0.544   7.780   5.895
58723SOL    HW177943   0.473   7.731   5.936
58723SOL    HW277944   0.512   7.799   5.806
58724SOL     OW77945  10.836   1.192   3.008
58724SOL    HW177946  10.759   1.136   3.015
58724SOL    HW277947  10.887   1.172   3.087
58725SOL     OW77948  12.282   4.585   3.424
58725SOL    HW177949  12.197   4.541   3.431
58725SOL    HW277950  12.346   4.513   3.421
58726SOL     OW77951  12.312   3.760   5.923
58726SOL    HW177952  12.283   3.685   5.976
58726SOL    HW277953  12.262   3.753   5.842
58727SOL     OW77954   8.513   4.425  11.604
58727SOL    HW177955   8.561   4.390  11.530
58727SOL    HW277956   8.461   4.497  11.567
58728SOL     OW77957   7.657   9.547  13.907
58728SOL    HW177958   7.701   9.609  13.848
58728SOL    HW277959   7.589   9.508  13.852
58729SOL     OW77960  10.371   3.591   5.268
58729SOL    HW177961  10.430   3.553   5.333
58729SOL    HW277962  10.426   3.647   5.214
58730SOL     OW77963   2.911   4.418   2.764
58730SOL    HW177964   2.887   4.387   2.676
58730SOL    HW277965   2.834   4.400   2.818
58731SOL     OW77966   3.784  14.208   7.283
58731SOL    HW177967   3.858  14.159   7.320
58731SOL    HW277968   3.808  14.223   7.192
58732SOL     OW77969   1.680   7.857  11.802
58732SOL    HW177970   1.683   7.768  11.766
58732SOL    HW277971   1.739   7.854  11.877
58733SOL     OW77972   7.974   0.192  12.984
58733SOL    HW177973   7.998   0.114  13.034
58733SOL    HW277974   7.946   0.255  13.051
58734SOL     OW77975   1.183   3.556   9.626
58734SOL    HW177976   1.253   3.498   9.593
58734SOL    HW277977   1.191   3.635   9.572
58735SOL     OW77978   1.742  12.983   7.697
58735SOL    HW177979   1.727  13.057   7.638
58735SOL    HW277980   1.775  12.913   7.641
58736SOL     OW77981   6.595   2.954   7.982
58736SOL    HW177982   6.639   2.891   8.039
58736SOL    HW277983   6.552   3.015   8.041
58737SOL     OW77984  14.750   7.824   5.776
58737SOL    HW177985  14.699   7.757   5.729
58737SOL    HW277986  14.692   7.852   5.847
58738SOL     OW77987   5.433  12.666   5.946
58738SOL    HW177988   5.470  12.631   6.027
58738SOL    HW277989   5.358  12.718   5.975
58739SOL     OW77990   6.518   2.041   2.141
58739SOL    HW177991   6.520   2.104   2.214
58739SOL    HW277992   6.425   2.031   2.121
58740SOL     OW77993  12.743   4.337  12.742
58740SOL    HW177994  12.791   4.391  12.804
58740SOL    HW277995  12.672   4.298  12.793
58741SOL     OW77996   5.250  10.894   9.683
58741SOL    HW177997   5.302  10.889   9.603
58741SOL    HW277998   5.160  10.878   9.655
58742SOL     OW77999   7.265   1.296   9.779
58742SOL    HW178000   7.287   1.221   9.835
58742SOL    HW278001   7.344   1.350   9.780
58743SOL     OW78002   5.996   4.863  14.486
58743SOL    HW178003   6.020   4.939  14.540
58743SOL    HW278004   5.905   4.846  14.509
58744SOL     OW78005  14.070   6.093   6.560
58744SOL    HW178006  14.165   6.100   6.568
58744SOL    HW278007  14.045   6.171   6.511
58745SOL     OW78008   5.076   1.051  13.536
58745SOL    HW178009   5.159   1.004  13.544
58745SOL    HW278010   5.070   1.074  13.444
58746SOL     OW78011   0.534  11.826  11.915
58746SOL    HW178012   0.504  11.858  12.001
58746SOL    HW278013   0.575  11.902  11.875
58747SOL     OW78014   6.284   0.853   8.741
58747SOL    HW178015   6.342   0.889   8.808
58747SOL    HW278016   6.224   0.797   8.789
58748SOL     OW78017   9.440   3.969  12.042
58748SOL    HW178018   9.520   3.981  12.094
58748SOL    HW278019   9.471   3.955  11.953
58749SOL     OW78020   2.606   8.224   2.459
58749SOL    HW178021   2.656   8.250   2.381
58749SOL    HW278022   2.656   8.152   2.497
58750SOL     OW78023   9.949  14.702   7.855
58750SOL    HW178024   9.889  14.751   7.799
58750SOL    HW278025   9.893  14.662   7.921
58751SOL     OW78026   5.307   9.458   4.018
58751SOL    HW178027   5.222   9.478   4.057
58751SOL    HW278028   5.371   9.491   4.081
58752SOL     OW78029   6.235   4.152  13.308
58752SOL    HW178030   6.145   4.166  13.336
58752SOL    HW278031   6.239   4.186  13.219
58753SOL     OW78032   9.407  11.790   1.650
58753SOL    HW178033   9.472  11.790   1.580
58753SOL    HW278034   9.414  11.877   1.689
58754SOL     OW78035   3.700   7.570   2.069
58754SOL    HW178036   3.737   7.658   2.067
58754SOL    HW278037   3.755   7.520   2.008
58755SOL     OW78038   8.547  11.801   3.516
58755SOL    HW178039   8.588  11.779   3.433
58755SOL    HW278040   8.515  11.717   3.550
58756SOL     OW78041   8.829  12.798   2.801
58756SOL    HW178042   8.809  12.872   2.745
58756SOL    HW278043   8.851  12.727   2.741
58757SOL     OW78044   4.764  14.543   1.413
58757SOL    HW178045   4.794  14.474   1.355
58757SOL    HW278046   4.815  14.530   1.494
58758SOL     OW78047   8.916   3.562   4.817
58758SOL    HW178048   8.890   3.590   4.729
58758SOL    HW278049   8.855   3.609   4.875
58759SOL     OW78050   4.864   4.364   2.871
58759SOL    HW178051   4.776   4.393   2.894
58759SOL    HW278052   4.850   4.289   2.813
58760SOL     OW78053   3.430   3.920   1.174
58760SOL    HW178054   3.445   4.008   1.140
58760SOL    HW278055   3.505   3.904   1.231
58761SOL     OW78056  13.380   0.788   8.903
58761SOL    HW178057  13.446   0.731   8.864
58761SOL    HW278058  13.307   0.786   8.841
58762SOL     OW78059   8.248  14.086  13.035
58762SOL    HW178060   8.207  14.167  13.004
58762SOL    HW278061   8.283  14.108  13.121
58763SOL     OW78062  10.618   8.585  10.711
58763SOL    HW178063  10.704   8.587  10.669
58763SOL    HW278064  10.631   8.634  10.793
58764SOL     OW78065   6.528  12.901   9.931
58764SOL    HW178066   6.593  12.940   9.873
58764SOL    HW278067   6.486  12.976   9.973
58765SOL     OW78068   2.190   5.985   5.555
58765SOL    HW178069   2.150   5.900   5.538
58765SOL    HW278070   2.131   6.048   5.512
58766SOL     OW78071   0.661   1.859   0.179
58766SOL    HW178072   0.651   1.777   0.130
58766SOL    HW278073   0.623   1.925   0.121
58767SOL     OW78074   3.858  14.748  11.718
58767SOL    HW178075   3.834  14.690  11.646
58767SOL    HW278076   3.810  14.714  11.794
58768SOL     OW78077   4.403   6.295   2.648
58768SOL    HW178078   4.468   6.365   2.641
58768SOL    HW278079   4.404   6.271   2.741
58769SOL     OW78080   0.362   1.246   6.360
58769SOL    HW178081   0.334   1.259   6.269
58769SOL    HW278082   0.378   1.152   6.366
58770SOL     OW78083  13.882   4.094  14.122
58770SOL    HW178084  13.859   4.038  14.196
58770SOL    HW278085  13.978   4.089  14.116
58771SOL     OW78086   9.829  11.396   3.732
58771SOL    HW178087   9.923  11.377   3.734
58771SOL    HW278088   9.786  11.313   3.752
58772SOL     OW78089   8.290  14.659   2.328
58772SOL    HW178090   8.373  14.704   2.314
58772SOL    HW278091   8.296  14.624   2.417
58773SOL     OW78092   4.731  10.014   9.410
58773SOL    HW178093   4.797   9.960   9.367
58773SOL    HW278094   4.768  10.032   9.496
58774SOL     OW78095  12.260   6.501   2.949
58774SOL    HW178096  12.190   6.440   2.928
58774SOL    HW278097  12.295   6.471   3.033
58775SOL     OW78098  11.196  12.738   6.190
58775SOL    HW178099  11.175  12.798   6.119
58775SOL    HW278100  11.252  12.671   6.150
58776SOL     OW78101   8.952   8.325   7.338
58776SOL    HW178102   9.029   8.334   7.395
58776SOL    HW278103   8.928   8.415   7.316
58777SOL     OW78104   9.332   2.388  10.775
58777SOL    HW178105   9.267   2.361  10.710
58777SOL    HW278106   9.281   2.410  10.853
58778SOL     OW78107  10.395   9.197   4.744
58778SOL    HW178108  10.408   9.284   4.707
58778SOL    HW278109  10.320   9.162   4.696
58779SOL     OW78110  12.182   9.517   0.208
58779SOL    HW178111  12.265   9.471   0.197
58779SOL    HW278112  12.115   9.449   0.200
58780SOL     OW78113   6.348   3.727   4.159
58780SOL    HW178114   6.338   3.635   4.182
58780SOL    HW278115   6.437   3.733   4.123
58781SOL     OW78116   7.133   0.655  12.088
58781SOL    HW178117   7.094   0.710  12.156
58781SOL    HW278118   7.064   0.594  12.064
58782SOL     OW78119   7.030  10.490  10.825
58782SOL    HW178120   7.110  10.502  10.773
58782SOL    HW278121   7.002  10.401  10.806
58783SOL     OW78122   9.418   2.011  13.847
58783SOL    HW178123   9.513   2.002  13.844
58783SOL    HW278124   9.387   1.982  13.761
58784SOL     OW78125  11.531   2.128  12.274
58784SOL    HW178126  11.507   2.161  12.361
58784SOL    HW278127  11.593   2.058  12.291
58785SOL     OW78128   9.028   3.441   7.704
58785SOL    HW178129   9.075   3.379   7.648
58785SOL    HW278130   8.941   3.448   7.663
58786SOL     OW78131   6.863  13.079   2.836
58786SOL    HW178132   6.928  13.143   2.863
58786SOL    HW278133   6.913  13.001   2.813
58787SOL     OW78134  14.825  11.636   3.009
58787SOL    HW178135   0.004  11.708   2.979
58787SOL    HW278136  14.874  11.596   3.081
58788SOL     OW78137   8.478   1.789   1.419
58788SOL    HW178138   8.545   1.756   1.359
58788SOL    HW278139   8.445   1.869   1.378
58789SOL     OW78140   6.012   7.122   0.160
58789SOL    HW178141   5.930   7.143   0.116
58789SOL    HW278142   6.035   7.201   0.208
58790SOL     OW78143   4.891  10.934   2.918
58790SOL    HW178144   4.864  10.899   2.833
58790SOL    HW278145   4.834  11.010   2.932
58791SOL     OW78146   9.210  13.981  12.263
58791SOL    HW178147   9.302  13.953  12.264
58791SOL    HW278148   9.164  13.911  12.216
58792SOL     OW78149  12.083   3.937  10.805
58792SOL    HW178150  12.091   3.843  10.822
58792SOL    HW278151  12.170   3.964  10.775
58793SOL     OW78152   3.207   5.360   9.850
58793SOL    HW178153   3.143   5.288   9.856
58793SOL    HW278154   3.174   5.415   9.780
58794SOL     OW78155   5.131   9.221  12.487
58794SOL    HW178156   5.089   9.271  12.417
58794SOL    HW278157   5.218   9.261  12.497
58795SOL     OW78158   8.933   9.585   8.491
58795SOL    HW178159   8.981   9.641   8.429
58795SOL    HW278160   8.898   9.514   8.437
58796SOL     OW78161   8.430   1.884   4.789
58796SOL    HW178162   8.438   1.957   4.850
58796SOL    HW278163   8.380   1.818   4.838
58797SOL     OW78164  13.715   8.846   0.098
58797SOL    HW178165  13.782   8.792   0.141
58797SOL    HW278166  13.743   8.851   0.007
58798SOL     OW78167   0.670  13.689   4.534
58798SOL    HW178168   0.614  13.636   4.591
58798SOL    HW278169   0.751  13.701   4.585
58799SOL     OW78170  10.489  13.282  12.272
58799SOL    HW178171  10.416  13.246  12.323
58799SOL    HW278172  10.565  13.275  12.330
58800SOL     OW78173   1.639   6.540  10.768
58800SOL    HW178174   1.561   6.486  10.786
58800SOL    HW278175   1.644   6.600  10.842
58801SOL     OW78176  14.703  10.957   8.643
58801SOL    HW178177  14.753  11.002   8.575
58801SOL    HW278178  14.769  10.931   8.707
58802SOL     OW78179   1.735   0.038   1.081
58802SOL    HW178180   1.734   0.001   1.169
58802SOL    HW278181   1.819   0.084   1.076
58803SOL     OW78182   9.435   6.796  13.679
58803SOL    HW178183   9.377   6.784  13.754
58803SOL    HW278184   9.384   6.762  13.605
58804SOL     OW78185   0.026   8.876  10.591
58804SOL    HW178186   0.107   8.846  10.550
58804SOL    HW278187   0.048   8.962  10.626
58805SOL     OW78188  13.638  13.136   2.795
58805SOL    HW178189  13.643  13.094   2.882
58805SOL    HW278190  13.730  13.144   2.768
58806SOL     OW78191   3.113  13.797  13.893
58806SOL    HW178192   3.049  13.736  13.857
58806SOL    HW278193   3.099  13.879  13.844
58807SOL     OW78194   9.691   9.332   8.212
58807SOL    HW178195   9.686   9.382   8.131
58807SOL    HW278196   9.733   9.249   8.187
58808SOL     OW78197  11.410   7.547   2.603
58808SOL    HW178198  11.319   7.576   2.599
58808SOL    HW278199  11.448   7.577   2.521
58809SOL     OW78200   7.792  10.339   1.888
58809SOL    HW178201   7.805  10.411   1.826
58809SOL    HW278202   7.880  10.310   1.910
58810SOL     OW78203  11.482   1.600   3.754
58810SOL    HW178204  11.470   1.526   3.695
58810SOL    HW278205  11.414   1.588   3.821
58811SOL     OW78206  13.751  12.793  10.261
58811SOL    HW178207  13.710  12.845  10.192
58811SOL    HW278208  13.679  12.767  10.318
58812SOL     OW78209   1.379   6.010   3.791
58812SOL    HW178210   1.377   5.975   3.879
58812SOL    HW278211   1.426   5.944   3.739
58813SOL     OW78212   0.404   3.375   7.484
58813SOL    HW178213   0.478   3.434   7.478
58813SOL    HW278214   0.340   3.410   7.421
58814SOL     OW78215   9.551   2.748  10.645
58814SOL    HW178216   9.607   2.825  10.650
58814SOL    HW278217   9.611   2.674  10.637
58815SOL     OW78218   1.136   4.503  11.171
58815SOL    HW178219   1.137   4.430  11.233
58815SOL    HW278220   1.086   4.470  11.096
58816SOL     OW78221  10.227  10.548   9.275
58816SOL    HW178222  10.236  10.608   9.349
58816SOL    HW278223  10.196  10.466   9.314
58817SOL     OW78224  10.974   2.501   4.487
58817SOL    HW178225  10.879   2.497   4.500
58817SOL    HW278226  11.004   2.567   4.550
58818SOL     OW78227   1.860  13.051  12.952
58818SOL    HW178228   1.885  12.963  12.925
58818SOL    HW278229   1.929  13.107  12.915
58819SOL     OW78230  12.356   0.687  11.438
58819SOL    HW178231  12.435   0.700  11.386
58819SOL    HW278232  12.347   0.767  11.489
58820SOL     OW78233  13.787   2.253   3.038
58820SOL    HW178234  13.862   2.279   3.092
58820SOL    HW278235  13.790   2.314   2.964
58821SOL     OW78236   5.611   0.745   6.866
58821SOL    HW178237   5.597   0.715   6.956
58821SOL    HW278238   5.600   0.840   6.870
58822SOL     OW78239   8.325   3.536   9.548
58822SOL    HW178240   8.261   3.597   9.585
58822SOL    HW278241   8.311   3.541   9.454
58823SOL     OW78242   9.704  11.984   9.749
58823SOL    HW178243   9.700  11.889   9.736
58823SOL    HW278244   9.620  12.007   9.787
58824SOL     OW78245   1.961   8.204  11.590
58824SOL    HW178246   2.032   8.194  11.653
58824SOL    HW278247   1.929   8.115  11.575
58825SOL     OW78248   5.605   3.622   8.500
58825SOL    HW178249   5.576   3.557   8.435
58825SOL    HW278250   5.532   3.627   8.562
58826SOL     OW78251   1.864  10.391   5.571
58826SOL    HW178252   1.825  10.447   5.504
58826SOL    HW278253   1.934  10.344   5.525
58827SOL     OW78254  14.813   9.974   3.873
58827SOL    HW178255  14.728   9.941   3.903
58827SOL    HW278256  14.866   9.896   3.859
58828SOL     OW78257   3.991   3.496  12.983
58828SOL    HW178258   3.951   3.467  13.065
58828SOL    HW278259   3.980   3.423  12.923
58829SOL     OW78260  12.563   9.499  11.351
58829SOL    HW178261  12.478   9.462  11.327
58829SOL    HW278262  12.602   9.433  11.408
58830SOL     OW78263   0.148   2.611   4.320
58830SOL    HW178264   0.080   2.661   4.275
58830SOL    HW278265   0.099   2.549   4.374
58831SOL     OW78266   6.432   0.046   0.089
58831SOL    HW178267   6.392   0.106   0.151
58831SOL    HW278268   6.427  14.837   0.131
58832SOL     OW78269  13.209   4.502   8.586
58832SOL    HW178270  13.125   4.457   8.580
58832SOL    HW278271  13.249   4.468   8.667
58833SOL     OW78272   7.347   5.059   8.808
58833SOL    HW178273   7.259   5.095   8.803
58833SOL    HW278274   7.405   5.135   8.811
58834SOL     OW78275   5.199   1.863  14.355
58834SOL    HW178276   5.223   1.953  14.333
58834SOL    HW278277   5.114   1.872  14.398
58835SOL     OW78278  11.003   1.269   4.427
58835SOL    HW178279  10.923   1.230   4.462
58835SOL    HW278280  11.051   1.196   4.388
58836SOL     OW78281   6.200  14.163   5.187
58836SOL    HW178282   6.182  14.210   5.268
58836SOL    HW278283   6.195  14.231   5.119
58837SOL     OW78284   4.477  10.553   3.981
58837SOL    HW178285   4.565  10.523   4.004
58837SOL    HW278286   4.490  10.630   3.927
58838SOL     OW78287  14.064   6.601   2.836
58838SOL    HW178288  14.000   6.580   2.905
58838SOL    HW278289  14.101   6.685   2.862
58839SOL     OW78290  12.484   8.427  14.851
58839SOL    HW178291  12.448   8.458   0.057
58839SOL    HW278292  12.449   8.488  14.786
58840SOL     OW78293   7.838   3.272  11.698
58840SOL    HW178294   7.766   3.327  11.729
58840SOL    HW278295   7.815   3.184  11.728
58841SOL     OW78296   0.728   5.156   8.761
58841SOL    HW178297   0.671   5.209   8.706
58841SOL    HW278298   0.741   5.208   8.840
58842SOL     OW78299  11.383   3.818  14.387
58842SOL    HW178300  11.349   3.867  14.313
58842SOL    HW278301  11.306   3.774  14.424
58843SOL     OW78302   6.638   3.111  12.598
58843SOL    HW178303   6.586   3.068  12.530
58843SOL    HW278304   6.633   3.051  12.673
58844SOL     OW78305   8.213   4.344   8.000
58844SOL    HW178306   8.124   4.381   8.004
58844SOL    HW278307   8.270   4.417   8.022
58845SOL     OW78308   8.331   2.160   3.366
58845SOL    HW178309   8.264   2.103   3.405
58845SOL    HW278310   8.409   2.105   3.362
58846SOL     OW78311   4.725   9.684   1.566
58846SOL    HW178312   4.778   9.686   1.646
58846SOL    HW278313   4.640   9.718   1.593
58847SOL     OW78314  10.779   6.099   0.751
58847SOL    HW178315  10.820   6.015   0.731
58847SOL    HW278316  10.722   6.081   0.826
58848SOL     OW78317   5.457   5.017   4.579
58848SOL    HW178318   5.428   4.975   4.498
58848SOL    HW278319   5.420   5.105   4.574
58849SOL     OW78320   1.419   9.623   8.885
58849SOL    HW178321   1.380   9.557   8.942
58849SOL    HW278322   1.348   9.685   8.868
58850SOL     OW78323   2.441  13.056   9.318
58850SOL    HW178324   2.420  13.088   9.230
58850SOL    HW278325   2.536  13.044   9.317
58851SOL     OW78326  12.859   9.106   2.510
58851SOL    HW178327  12.818   9.031   2.553
58851SOL    HW278328  12.942   9.118   2.557
58852SOL     OW78329  12.901  13.682   0.454
58852SOL    HW178330  12.852  13.631   0.390
58852SOL    HW278331  12.858  13.665   0.537
58853SOL     OW78332  11.751   7.741  11.010
58853SOL    HW178333  11.704   7.772  10.932
58853SOL    HW278334  11.766   7.648  10.993
58854SOL     OW78335   6.026   5.652   6.308
58854SOL    HW178336   6.108   5.610   6.335
58854SOL    HW278337   5.958   5.588   6.330
58855SOL     OW78338  11.151  14.660   5.993
58855SOL    HW178339  11.082  14.619   6.044
58855SOL    HW278340  11.133  14.754   5.998
58856SOL     OW78341  11.052   9.771   9.022
58856SOL    HW178342  10.962   9.784   9.050
58856SOL    HW278343  11.090   9.859   9.023
58857SOL     OW78344   3.759   1.127   1.549
58857SOL    HW178345   3.797   1.081   1.475
58857SOL    HW278346   3.679   1.167   1.515
58858SOL     OW78347  12.689   5.099   7.032
58858SOL    HW178348  12.679   5.194   7.032
58858SOL    HW278349  12.779   5.085   7.063
58859SOL     OW78350   7.180   4.667  13.120
58859SOL    HW178351   7.269   4.637  13.137
58859SOL    HW278352   7.130   4.638  13.197
58860SOL     OW78353  11.630   4.308   4.192
58860SOL    HW178354  11.605   4.224   4.232
58860SOL    HW278355  11.609   4.373   4.259
58861SOL     OW78356   6.188   6.592   8.952
58861SOL    HW178357   6.272   6.602   8.907
58861SOL    HW278358   6.127   6.643   8.899
58862SOL     OW78359   2.519   1.697   7.057
58862SOL    HW178360   2.602   1.656   7.082
58862SOL    HW278361   2.544   1.785   7.030
58863SOL     OW78362   3.130   6.697  11.736
58863SOL    HW178363   3.208   6.651  11.765
58863SOL    HW278364   3.129   6.688  11.641
58864SOL     OW78365   3.735   0.503   1.857
58864SOL    HW178366   3.826   0.528   1.841
58864SOL    HW278367   3.686   0.585   1.850
58865SOL     OW78368  12.705   0.380   1.021
58865SOL    HW178369  12.669   0.296   1.048
58865SOL    HW278370  12.773   0.358   0.957
58866SOL     OW78371  13.009   7.274  12.010
58866SOL    HW178372  12.940   7.316  12.061
58866SOL    HW278373  13.012   7.323  11.928
58867SOL     OW78374  10.857   6.608   9.033
58867SOL    HW178375  10.807   6.528   9.045
58867SOL    HW278376  10.791   6.677   9.026
58868SOL     OW78377   1.221  13.098   6.426
58868SOL    HW178378   1.198  13.007   6.440
58868SOL    HW278379   1.275  13.098   6.347
58869SOL     OW78380   9.369   3.543   6.516
58869SOL    HW178381   9.402   3.502   6.436
58869SOL    HW278382   9.340   3.630   6.488
58870SOL     OW78383   0.780   6.324   8.779
58870SOL    HW178384   0.830   6.247   8.751
58870SOL    HW278385   0.771   6.377   8.701
58871SOL     OW78386   2.874  13.296  13.873
58871SOL    HW178387   2.791  13.293  13.827
58871SOL    HW278388   2.889  13.207  13.903
58872SOL     OW78389   0.675   0.789   7.816
58872SOL    HW178390   0.712   0.866   7.772
58872SOL    HW278391   0.744   0.760   7.875
58873SOL     OW78392   7.381   1.422   2.334
58873SOL    HW178393   7.360   1.352   2.397
58873SOL    HW278394   7.420   1.376   2.260
58874SOL     OW78395  14.521   5.083   0.647
58874SOL    HW178396  14.522   5.038   0.562
58874SOL    HW278397  14.613   5.105   0.663
58875SOL     OW78398   8.372  11.441  11.465
58875SOL    HW178399   8.458  11.425  11.503
58875SOL    HW278400   8.388  11.506  11.396
58876SOL     OW78401   6.654   1.633   8.034
58876SOL    HW178402   6.614   1.711   7.995
58876SOL    HW278403   6.592   1.604   8.100
58877SOL     OW78404   3.669  10.740   9.008
58877SOL    HW178405   3.757  10.767   9.033
58877SOL    HW278406   3.613  10.813   9.033
58878SOL     OW78407   9.711   7.721   8.162
58878SOL    HW178408   9.734   7.680   8.078
58878SOL    HW278409   9.663   7.654   8.210
58879SOL     OW78410   5.661  11.361   4.162
58879SOL    HW178411   5.713  11.394   4.089
58879SOL    HW278412   5.725  11.321   4.220
58880SOL     OW78413   0.570  11.464   6.787
58880SOL    HW178414   0.556  11.539   6.729
58880SOL    HW278415   0.482  11.432   6.809
58881SOL     OW78416   4.178   3.322  12.039
58881SOL    HW178417   4.239   3.251  12.021
58881SOL    HW278418   4.215   3.398  11.994
58882SOL     OW78419   3.091   8.282  11.534
58882SOL    HW178420   3.151   8.356  11.522
58882SOL    HW278421   3.004   8.319  11.516
58883SOL     OW78422   3.035   1.403   0.112
58883SOL    HW178423   3.037   1.469   0.043
58883SOL    HW278424   3.013   1.321   0.068
58884SOL     OW78425   8.182   6.243  14.573
58884SOL    HW178426   8.234   6.304  14.521
58884SOL    HW278427   8.183   6.279  14.662
58885SOL     OW78428   2.451  10.726   1.192
58885SOL    HW178429   2.422  10.719   1.101
58885SOL    HW278430   2.517  10.795   1.191
58886SOL     OW78431   2.413   0.422   5.853
58886SOL    HW178432   2.501   0.453   5.874
58886SOL    HW278433   2.358   0.457   5.924
58887SOL     OW78434   6.474   2.302  11.419
58887SOL    HW178435   6.393   2.253  11.431
58887SOL    HW278436   6.500   2.284  11.329
58888SOL     OW78437   9.390   5.070  12.875
58888SOL    HW178438   9.299   5.070  12.905
58888SOL    HW278439   9.395   5.143  12.813
58889SOL     OW78440  13.120   7.251  10.971
58889SOL    HW178441  13.086   7.339  10.990
58889SOL    HW278442  13.121   7.246  10.876
58890SOL     OW78443  14.529   5.891  11.630
58890SOL    HW178444  14.503   5.878  11.538
58890SOL    HW278445  14.615   5.850  11.636
58891SOL     OW78446   6.477  14.672   2.912
58891SOL    HW178447   6.513  14.752   2.949
58891SOL    HW278448   6.422  14.636   2.982
58892SOL     OW78449  13.964   2.541   3.512
58892SOL    HW178450  13.889   2.497   3.473
58892SOL    HW278451  14.011   2.472   3.559
58893SOL     OW78452  11.193   0.638   2.068
58893SOL    HW178453  11.116   0.643   2.125
58893SOL    HW278454  11.168   0.578   1.998
58894SOL     OW78455   5.917   4.239  11.510
58894SOL    HW178456   5.929   4.155  11.465
58894SOL    HW278457   5.920   4.304  11.441
58895SOL     OW78458   0.427   2.249   8.284
58895SOL    HW178459   0.497   2.199   8.241
58895SOL    HW278460   0.352   2.190   8.283
58896SOL     OW78461   2.527  14.718   4.119
58896SOL    HW178462   2.445  14.711   4.069
58896SOL    HW278463   2.500  14.755   4.203
58897SOL     OW78464   4.610   8.474   3.056
58897SOL    HW178465   4.537   8.438   3.106
58897SOL    HW278466   4.570   8.506   2.975
58898SOL     OW78467  14.623  10.472  12.192
58898SOL    HW178468  14.623  10.388  12.238
58898SOL    HW278469  14.700  10.468  12.135
58899SOL     OW78470   3.144   8.499   8.613
58899SOL    HW178471   3.069   8.539   8.658
58899SOL    HW278472   3.106   8.431   8.558
58900SOL     OW78473   9.450  14.107   7.618
58900SOL    HW178474   9.543  14.088   7.609
58900SOL    HW278475   9.444  14.202   7.607
58901SOL     OW78476   8.002  10.601   4.462
58901SOL    HW178477   8.034  10.691   4.451
58901SOL    HW278478   7.907  10.609   4.468
58902SOL     OW78479  11.075   9.051   4.528
58902SOL    HW178480  10.995   9.073   4.577
58902SOL    HW278481  11.134   9.124   4.546
58903SOL     OW78482   4.159  13.673   1.715
58903SOL    HW178483   4.109  13.674   1.796
58903SOL    HW278484   4.223  13.744   1.726
58904SOL     OW78485  13.759   1.798   1.582
58904SOL    HW178486  13.805   1.861   1.638
58904SOL    HW278487  13.815   1.721   1.581
58905SOL     OW78488   2.330  14.101   5.728
58905SOL    HW178489   2.392  14.131   5.795
58905SOL    HW278490   2.347  14.007   5.721
58906SOL     OW78491   4.753   1.439  10.520
58906SOL    HW178492   4.786   1.369  10.576
58906SOL    HW278493   4.799   1.428  10.437
58907SOL     OW78494  14.133  10.277  10.292
58907SOL    HW178495  14.123  10.319  10.207
58907SOL    HW278496  14.228  10.279  10.309
58908SOL     OW78497  12.684   7.834   2.140
58908SOL    HW178498  12.759   7.814   2.196
58908SOL    HW278499  12.674   7.929   2.148
58909SOL     OW78500   4.698  10.856   8.788
58909SOL    HW178501   4.659  10.879   8.704
58909SOL    HW278502   4.792  10.859   8.772
58910SOL     OW78503   4.787  12.437   9.479
58910SOL    HW178504   4.845  12.482   9.418
58910SOL    HW278505   4.742  12.507   9.526
58911SOL     OW78506  13.640   2.707   7.193
58911SOL    HW178507  13.636   2.685   7.100
58911SOL    HW278508  13.716   2.658   7.226
58912SOL     OW78509   4.378  13.594  14.022
58912SOL    HW178510   4.361  13.580  13.929
58912SOL    HW278511   4.471  13.573  14.032
58913SOL     OW78512   0.394   0.473  12.246
58913SOL    HW178513   0.333   0.401  12.226
58913SOL    HW278514   0.442   0.443  12.323
58914SOL     OW78515  14.308  13.161   9.007
58914SOL    HW178516  14.241  13.205   8.955
58914SOL    HW278517  14.282  13.069   9.007
58915SOL     OW78518   7.712  12.007   0.925
58915SOL    HW178519   7.752  11.970   0.846
58915SOL    HW278520   7.637  11.951   0.942
58916SOL     OW78521   9.676   3.073  11.803
58916SOL    HW178522   9.715   3.005  11.747
58916SOL    HW278523   9.586   3.082  11.771
58917SOL     OW78524   7.984   0.064   2.897
58917SOL    HW178525   7.944   0.002   2.836
58917SOL    HW278526   7.928   0.141   2.894
58918SOL     OW78527  12.084   2.054  14.748
58918SOL    HW178528  12.020   2.118  14.778
58918SOL    HW278529  12.161   2.068  14.803
58919SOL     OW78530   5.584   6.135  13.955
58919SOL    HW178531   5.602   6.226  13.932
58919SOL    HW278532   5.640   6.118  14.031
58920SOL     OW78533   6.520  13.182   8.115
58920SOL    HW178534   6.489  13.203   8.203
58920SOL    HW278535   6.579  13.108   8.127
58921SOL     OW78536   7.548   9.237   1.126
58921SOL    HW178537   7.531   9.327   1.153
58921SOL    HW278538   7.580   9.194   1.205
58922SOL     OW78539   0.314   9.449   1.498
58922SOL    HW178540   0.343   9.401   1.575
58922SOL    HW278541   0.393   9.491   1.465
58923SOL     OW78542   6.140  12.194  13.747
58923SOL    HW178543   6.178  12.282  13.757
58923SOL    HW278544   6.053  12.209  13.711
58924SOL     OW78545   2.033  11.726  10.094
58924SOL    HW178546   2.077  11.799  10.050
58924SOL    HW278547   2.039  11.748  10.187
58925SOL     OW78548   2.473   5.444   1.711
58925SOL    HW178549   2.433   5.358   1.697
58925SOL    HW278550   2.566   5.424   1.728
58926SOL     OW78551   2.295   2.247  11.809
58926SOL    HW178552   2.351   2.231  11.885
58926SOL    HW278553   2.257   2.333  11.826
58927SOL     OW78554   4.656   0.057   6.194
58927SOL    HW178555   4.714   0.074   6.269
58927SOL    HW278556   4.658  14.840   6.183
58928SOL     OW78557   7.007   2.396   5.732
58928SOL    HW178558   6.969   2.447   5.660
58928SOL    HW278559   6.947   2.322   5.743
58929SOL     OW78560  12.230  14.096   6.721
58929SOL    HW178561  12.195  14.046   6.795
58929SOL    HW278562  12.286  14.035   6.674
58930SOL     OW78563   6.684   5.379   0.279
58930SOL    HW178564   6.733   5.416   0.206
58930SOL    HW278565   6.746   5.378   0.352
58931SOL     OW78566   9.558   0.704   9.086
58931SOL    HW178567   9.653   0.690   9.083
58931SOL    HW278568   9.529   0.695   8.996
58932SOL     OW78569   9.362   4.432  11.222
58932SOL    HW178570   9.362   4.376  11.300
58932SOL    HW278571   9.429   4.498  11.240
58933SOL     OW78572   0.799   9.009  13.092
58933SOL    HW178573   0.876   8.954  13.106
58933SOL    HW278574   0.818   9.090  13.140
58934SOL     OW78575   4.251  11.444  10.667
58934SOL    HW178576   4.217  11.522  10.624
58934SOL    HW278577   4.346  11.456  10.667
58935SOL     OW78578   1.405   1.986   5.832
58935SOL    HW178579   1.375   2.013   5.746
58935SOL    HW278580   1.451   1.903   5.817
58936SOL     OW78581   4.975  14.560  10.214
58936SOL    HW178582   4.955  14.638  10.266
58936SOL    HW278583   4.928  14.574  10.132
58937SOL     OW78584   9.805  10.206   6.630
58937SOL    HW178585   9.796  10.301   6.633
58937SOL    HW278586   9.860  10.189   6.554
58938SOL     OW78587   7.131   2.736  14.396
58938SOL    HW178588   7.159   2.658  14.349
58938SOL    HW278589   7.104   2.704  14.482
58939SOL     OW78590   5.247   9.979  14.747
58939SOL    HW178591   5.286   9.910  14.800
58939SOL    HW278592   5.274  10.060  14.790
58940SOL     OW78593   4.653  11.678   3.542
58940SOL    HW178594   4.598  11.693   3.466
58940SOL    HW278595   4.593  11.686   3.617
58941SOL     OW78596  13.895   2.130   8.159
58941SOL    HW178597  13.953   2.107   8.231
58941SOL    HW278598  13.890   2.225   8.160
58942SOL     OW78599  12.106  12.070   6.023
58942SOL    HW178600  12.152  12.013   6.085
58942SOL    HW278601  12.014  12.045   6.031
58943SOL     OW78602   1.794   2.572  13.191
58943SOL    HW178603   1.850   2.522  13.131
58943SOL    HW278604   1.815   2.663  13.174
58944SOL     OW78605  12.376   3.185   5.790
58944SOL    HW178606  12.325   3.265   5.794
58944SOL    HW278607  12.380   3.163   5.697
58945SOL     OW78608   6.853   9.923   5.804
58945SOL    HW178609   6.847   9.954   5.894
58945SOL    HW278610   6.852  10.003   5.751
58946SOL     OW78611  14.414   7.645   9.725
58946SOL    HW178612  14.447   7.566   9.770
58946SOL    HW278613  14.349   7.612   9.663
58947SOL     OW78614  11.786   0.636   6.959
58947SOL    HW178615  11.823   0.705   6.903
58947SOL    HW278616  11.720   0.681   7.011
58948SOL     OW78617  10.808   7.238   0.941
58948SOL    HW178618  10.880   7.291   0.906
58948SOL    HW278619  10.731   7.293   0.932
58949SOL     OW78620  14.325   8.027   0.268
58949SOL    HW178621  14.244   7.987   0.301
58949SOL    HW278622  14.295   8.089   0.202
58950SOL     OW78623  11.657   2.349   2.748
58950SOL    HW178624  11.702   2.399   2.816
58950SOL    HW278625  11.660   2.259   2.780
58951SOL     OW78626  13.005   1.863   8.657
58951SOL    HW178627  12.939   1.800   8.629
58951SOL    HW278628  12.957   1.932   8.701
58952SOL     OW78629  10.062  11.568  13.947
58952SOL    HW178630   9.971  11.596  13.946
58952SOL    HW278631  10.105  11.625  13.883
58953SOL     OW78632  11.900   6.154  12.866
58953SOL    HW178633  11.861   6.216  12.928
58953SOL    HW278634  11.976   6.199  12.831
58954SOL     OW78635   2.821   5.086   4.148
58954SOL    HW178636   2.811   5.036   4.067
58954SOL    HW278637   2.749   5.148   4.146
58955SOL     OW78638   1.183   6.860   7.367
58955SOL    HW178639   1.147   6.826   7.286
58955SOL    HW278640   1.195   6.954   7.351
58956SOL     OW78641   4.014  12.529   0.238
58956SOL    HW178642   3.928  12.509   0.273
58956SOL    HW278643   4.008  12.507   0.145
58957SOL     OW78644  10.815  11.538  12.603
58957SOL    HW178645  10.840  11.595  12.530
58957SOL    HW278646  10.740  11.489  12.569
58958SOL     OW78647   5.821  12.100  14.799
58958SOL    HW178648   5.750  12.111  14.736
58958SOL    HW278649   5.841  12.189  14.829
58959SOL     OW78650  13.346   8.131   2.832
58959SOL    HW178651  13.366   8.073   2.759
58959SOL    HW278652  13.351   8.219   2.794
58960SOL     OW78653  11.120   2.576   2.406
58960SOL    HW178654  11.143   2.484   2.420
58960SOL    HW278655  11.157   2.598   2.321
58961SOL     OW78656  13.874   2.736  11.811
58961SOL    HW178657  13.927   2.761  11.735
58961SOL    HW278658  13.788   2.774  11.794
58962SOL     OW78659   5.455   5.828  10.557
58962SOL    HW178660   5.449   5.923  10.568
58962SOL    HW278661   5.544   5.807  10.583
58963SOL     OW78662   8.670   8.561  10.880
58963SOL    HW178663   8.595   8.559  10.940
58963SOL    HW278664   8.732   8.620  10.921
58964SOL     OW78665  11.342   9.972   4.923
58964SOL    HW178666  11.437   9.973   4.918
58964SOL    HW278667  11.313   9.952   4.833
58965SOL     OW78668   6.969   9.997   3.787
58965SOL    HW178669   7.002  10.045   3.863
58965SOL    HW278670   6.882  10.033   3.772
58966SOL     OW78671  12.926   8.382  13.857
58966SOL    HW178672  12.966   8.449  13.801
58966SOL    HW278673  12.986   8.308  13.852
58967SOL     OW78674   6.645   9.447   4.068
58967SOL    HW178675   6.643   9.431   3.973
58967SOL    HW278676   6.669   9.362   4.106
58968SOL     OW78677   0.355   0.448  13.280
58968SOL    HW178678   0.355   0.543  13.271
58968SOL    HW278679   0.433   0.419  13.231
58969SOL     OW78680   6.928   0.439   3.557
58969SOL    HW178681   6.909   0.467   3.646
58969SOL    HW278682   6.991   0.503   3.525
58970SOL     OW78683   8.235   9.154   9.283
58970SOL    HW178684   8.268   9.178   9.196
58970SOL    HW278685   8.309   9.170   9.342
58971SOL     OW78686  12.378   4.230   3.217
58971SOL    HW178687  12.309   4.230   3.284
58971SOL    HW278688  12.447   4.286   3.254
58972SOL     OW78689  12.367   8.413  13.362
58972SOL    HW178690  12.284   8.404  13.409
58972SOL    HW278691  12.356   8.491  13.309
58973SOL     OW78692   5.394  12.439   2.804
58973SOL    HW178693   5.321  12.384   2.834
58973SOL    HW278694   5.353  12.505   2.748
58974SOL     OW78695   5.216   7.083  10.735
58974SOL    HW178696   5.142   7.041  10.780
58974SOL    HW278697   5.218   7.042  10.648
58975SOL     OW78698  10.392  14.217  14.775
58975SOL    HW178699  10.452  14.237  14.847
58975SOL    HW278700  10.437  14.248  14.696
58976SOL     OW78701   6.485   7.142   9.532
58976SOL    HW178702   6.483   7.235   9.510
58976SOL    HW278703   6.393   7.115   9.533
58977SOL     OW78704  14.032   1.465   4.448
58977SOL    HW178705  14.061   1.544   4.402
58977SOL    HW278706  13.956   1.434   4.398
58978SOL     OW78707   8.106   0.034   1.089
58978SOL    HW178708   8.153  14.854   1.029
58978SOL    HW278709   8.014   0.026   1.064
58979SOL     OW78710  12.029   3.170   5.903
58979SOL    HW178711  12.068   3.109   5.966
58979SOL    HW278712  11.935   3.155   5.911
58980SOL     OW78713   0.086  12.179   9.960
58980SOL    HW178714  14.874  12.196   9.931
58980SOL    HW278715   0.076  12.141  10.048
58981SOL     OW78716   8.619  10.579   5.884
58981SOL    HW178717   8.657  10.495   5.911
58981SOL    HW278718   8.602  10.569   5.790
58982SOL     OW78719   3.272   3.064   9.340
58982SOL    HW178720   3.316   2.980   9.327
58982SOL    HW278721   3.341   3.129   9.334
58983SOL     OW78722  13.776  13.709  13.457
58983SOL    HW178723  13.829  13.636  13.488
58983SOL    HW278724  13.686  13.682  13.473
58984SOL     OW78725  13.162   6.519   7.544
58984SOL    HW178726  13.107   6.441   7.549
58984SOL    HW278727  13.135   6.562   7.463
58985SOL     OW78728   4.049   1.293   9.558
58985SOL    HW178729   4.035   1.387   9.571
58985SOL    HW278730   4.131   1.287   9.511
58986SOL     OW78731  14.854   0.825  11.888
58986SOL    HW178732   0.032   0.747  11.883
58986SOL    HW278733   0.006   0.871  11.966
58987SOL     OW78734   0.712   2.761   4.294
58987SOL    HW178735   0.740   2.711   4.218
58987SOL    HW278736   0.656   2.700   4.343
58988SOL     OW78737   5.707  10.711  13.737
58988SOL    HW178738   5.735  10.636  13.684
58988SOL    HW278739   5.671  10.672  13.816
58989SOL     OW78740   5.940  14.167   6.492
58989SOL    HW178741   5.931  14.083   6.538
58989SOL    HW278742   6.034  14.182   6.488
58990SOL     OW78743   0.266   9.254   7.219
58990SOL    HW178744   0.341   9.286   7.269
58990SOL    HW278745   0.284   9.162   7.205
58991SOL     OW78746  13.044  10.273  13.486
58991SOL    HW178747  12.998  10.190  13.475
58991SOL    HW278748  13.131  10.258  13.449
58992SOL     OW78749  14.317   3.612   0.259
58992SOL    HW178750  14.269   3.690   0.288
58992SOL    HW278751  14.304   3.549   0.330
58993SOL     OW78752  13.704   1.890   0.762
58993SOL    HW178753  13.654   1.820   0.806
58993SOL    HW278754  13.674   1.887   0.671
58994SOL     OW78755   7.312  14.143  14.448
58994SOL    HW178756   7.340  14.056  14.418
58994SOL    HW278757   7.392  14.196  14.443
58995SOL     OW78758  12.611   1.493   4.121
58995SOL    HW178759  12.520   1.481   4.148
58995SOL    HW278760  12.606   1.540   4.038
58996SOL     OW78761   2.840   5.191  13.125
58996SOL    HW178762   2.880   5.108  13.099
58996SOL    HW278763   2.881   5.256  13.067
58997SOL     OW78764  13.190   4.767   8.201
58997SOL    HW178765  13.128   4.709   8.157
58997SOL    HW278766  13.211   4.722   8.283
58998SOL     OW78767   1.470   8.588  14.264
58998SOL    HW178768   1.463   8.684  14.270
58998SOL    HW278769   1.549   8.573  14.213
58999SOL     OW78770   0.410   0.280   8.593
58999SOL    HW178771   0.457   0.299   8.512
58999SOL    HW278772   0.354   0.356   8.607
59000SOL     OW78773  11.077  11.377  13.019
59000SOL    HW178774  11.062  11.433  13.095
59000SOL    HW278775  10.990  11.370  12.979
59001SOL     OW78776  13.312  10.389  11.520
59001SOL    HW178777  13.317  10.481  11.491
59001SOL    HW278778  13.398  10.353  11.500
59002SOL     OW78779   5.989   7.571  12.446
59002SOL    HW178780   5.976   7.637  12.378
59002SOL    HW278781   6.054   7.511  12.410
59003SOL     OW78782   0.427  11.811   9.999
59003SOL    HW178783   0.508  11.787   9.953
59003SOL    HW278784   0.361  11.819   9.930
59004SOL     OW78785   1.650   9.075   2.943
59004SOL    HW178786   1.591   9.149   2.958
59004SOL    HW278787   1.608   9.002   2.987
59005SOL     OW78788   7.171   0.577  11.063
59005SOL    HW178789   7.241   0.588  10.998
59005SOL    HW278790   7.182   0.488  11.095
59006SOL     OW78791  12.911   6.210   2.737
59006SOL    HW178792  12.875   6.228   2.824
59006SOL    HW278793  12.893   6.289   2.687
59007SOL     OW78794  10.654   1.738   9.039
59007SOL    HW178795  10.747   1.739   9.062
59007SOL    HW278796  10.652   1.698   8.952
59008SOL     OW78797   9.004  14.409  13.079
59008SOL    HW178798   9.012  14.314  13.068
59008SOL    HW278799   8.912  14.428  13.058
59009SOL     OW78800   6.015   0.760   2.552
59009SOL    HW178801   5.929   0.719   2.556
59009SOL    HW278802   6.002   0.839   2.500
59010SOL     OW78803  11.639   5.484  11.739
59010SOL    HW178804  11.576   5.444  11.679
59010SOL    HW278805  11.720   5.490  11.688
59011SOL     OW78806   4.319  12.205   6.584
59011SOL    HW178807   4.357  12.120   6.604
59011SOL    HW278808   4.230  12.201   6.620
59012SOL     OW78809  14.146   8.066  11.634
59012SOL    HW178810  14.143   8.127  11.707
59012SOL    HW278811  14.073   8.006  11.650
59013SOL     OW78812   2.331   1.599   4.823
59013SOL    HW178813   2.282   1.681   4.816
59013SOL    HW278814   2.264   1.531   4.818
59014SOL     OW78815   2.227   7.821   9.529
59014SOL    HW178816   2.137   7.850   9.522
59014SOL    HW278817   2.274   7.894   9.568
59015SOL     OW78818   5.950  12.419   6.536
59015SOL    HW178819   6.043  12.424   6.558
59015SOL    HW278820   5.922  12.335   6.572
59016SOL     OW78821   0.135  13.686   5.650
59016SOL    HW178822   0.161  13.736   5.728
59016SOL    HW278823   0.214  13.681   5.597
59017SOL     OW78824   6.467   6.317   7.331
59017SOL    HW178825   6.399   6.252   7.350
59017SOL    HW278826   6.549   6.266   7.329
59018SOL     OW78827   0.744   5.823   9.752
59018SOL    HW178828   0.738   5.736   9.791
59018SOL    HW278829   0.836   5.834   9.731
59019SOL     OW78830   7.516   8.458   7.159
59019SOL    HW178831   7.564   8.405   7.222
59019SOL    HW278832   7.426   8.461   7.193
59020SOL     OW78833  12.932  10.478  11.319
59020SOL    HW178834  12.977  10.543  11.266
59020SOL    HW278835  12.929  10.516  11.406
59021SOL     OW78836  13.122  12.867  13.706
59021SOL    HW178837  13.052  12.874  13.641
59021SOL    HW278838  13.081  12.892  13.789
59022SOL     OW78839   1.245  11.289   9.332
59022SOL    HW178840   1.260  11.298   9.426
59022SOL    HW278841   1.202  11.204   9.323
59023SOL     OW78842  13.905   6.736  11.862
59023SOL    HW178843  13.868   6.767  11.945
59023SOL    HW278844  13.994   6.771  11.862
59024SOL     OW78845   0.466   8.310   3.209
59024SOL    HW178846   0.514   8.234   3.175
59024SOL    HW278847   0.534   8.369   3.239
59025SOL     OW78848  13.292  14.346  12.279
59025SOL    HW178849  13.276  14.440  12.270
59025SOL    HW278850  13.206  14.309  12.299
59026SOL     OW78851   0.445   6.336   4.387
59026SOL    HW178852   0.415   6.246   4.391
59026SOL    HW278853   0.444   6.358   4.294
59027SOL     OW78854   2.208   0.021   3.452
59027SOL    HW178855   2.214  14.823   3.393
59027SOL    HW278856   2.129   0.066   3.425
59028SOL     OW78857   1.627   4.598   9.282
59028SOL    HW178858   1.646   4.560   9.196
59028SOL    HW278859   1.709   4.641   9.308
59029SOL     OW78860   1.307   1.292  14.033
59029SOL    HW178861   1.365   1.220  14.004
59029SOL    HW278862   1.358   1.371  14.017
59030SOL     OW78863   1.885   6.294  10.498
59030SOL    HW178864   1.919   6.224  10.442
59030SOL    HW278865   1.798   6.312  10.462
59031SOL     OW78866  10.471   9.675   7.317
59031SOL    HW178867  10.398   9.636   7.365
59031SOL    HW278868  10.530   9.602   7.300
59032SOL     OW78869   0.313   4.313   5.519
59032SOL    HW178870   0.253   4.387   5.531
59032SOL    HW278871   0.392   4.352   5.484
59033SOL     OW78872   8.053   1.453   0.570
59033SOL    HW178873   8.086   1.508   0.642
59033SOL    HW278874   8.111   1.472   0.497
59034SOL     OW78875   0.917  14.171   5.272
59034SOL    HW178876   0.983  14.240   5.283
59034SOL    HW278877   0.834  14.218   5.263
59035SOL     OW78878   5.205   1.375   9.425
59035SOL    HW178879   5.257   1.308   9.471
59035SOL    HW278880   5.199   1.343   9.335
59036SOL     OW78881   9.723  13.515   7.917
59036SOL    HW178882   9.740  13.590   7.974
59036SOL    HW278883   9.644  13.539   7.868
59037SOL     OW78884   9.891   2.423   7.253
59037SOL    HW178885   9.946   2.494   7.221
59037SOL    HW278886   9.812   2.466   7.285
59038SOL     OW78887   6.119   8.793   6.119
59038SOL    HW178888   6.129   8.699   6.104
59038SOL    HW278889   6.207   8.823   6.144
59039SOL     OW78890   2.862   3.515   6.550
59039SOL    HW178891   2.933   3.575   6.529
59039SOL    HW278892   2.782   3.564   6.531
59040SOL     OW78893  13.537   9.150   2.214
59040SOL    HW178894  13.631   9.166   2.228
59040SOL    HW278895  13.495   9.229   2.249
59041SOL     OW78896  14.423   1.530  10.707
59041SOL    HW178897  14.469   1.451  10.681
59041SOL    HW278898  14.332   1.514  10.682
59042SOL     OW78899   7.426   6.814   8.824
59042SOL    HW178900   7.440   6.880   8.756
59042SOL    HW278901   7.347   6.768   8.798
59043SOL     OW78902   7.064   3.776   2.394
59043SOL    HW178903   7.090   3.866   2.376
59043SOL    HW278904   7.107   3.755   2.478
59044SOL     OW78905  10.577  12.018   2.133
59044SOL    HW178906  10.584  12.106   2.096
59044SOL    HW278907  10.609  12.027   2.223
59045SOL     OW78908   1.820  14.340   7.430
59045SOL    HW178909   1.811  14.400   7.504
59045SOL    HW278910   1.796  14.392   7.354
59046SOL     OW78911   4.663   0.469   8.979
59046SOL    HW178912   4.673   0.378   8.950
59046SOL    HW278913   4.665   0.520   8.898
59047SOL     OW78914  13.581   9.430  10.655
59047SOL    HW178915  13.639   9.378  10.600
59047SOL    HW278916  13.600   9.402  10.744
59048SOL     OW78917   1.925  11.852   2.000
59048SOL    HW178918   1.904  11.761   1.977
59048SOL    HW278919   1.940  11.895   1.916
59049SOL     OW78920  12.820   9.097  10.475
59049SOL    HW178921  12.834   9.114  10.569
59049SOL    HW278922  12.753   9.160  10.449
59050SOL     OW78923   2.837  13.726   3.635
59050SOL    HW178924   2.886  13.795   3.682
59050SOL    HW278925   2.841  13.753   3.543
59051SOL     OW78926   6.576   4.743   1.501
59051SOL    HW178927   6.541   4.694   1.426
59051SOL    HW278928   6.642   4.801   1.463
59052SOL     OW78929   3.729  13.239   3.104
59052SOL    HW178930   3.746  13.332   3.089
59052SOL    HW278931   3.700  13.205   3.019
59053SOL     OW78932   3.838   6.614   7.377
59053SOL    HW178933   3.743   6.623   7.370
59053SOL    HW278934   3.850   6.555   7.452
59054SOL     OW78935   0.738  11.112  10.107
59054SOL    HW178936   0.829  11.094  10.085
59054SOL    HW278937   0.737  11.205  10.131
59055SOL     OW78938   7.192   1.121   9.153
59055SOL    HW178939   7.284   1.138   9.136
59055SOL    HW278940   7.145   1.172   9.087
59056SOL     OW78941   6.206  11.029   7.718
59056SOL    HW178942   6.189  10.965   7.649
59056SOL    HW278943   6.197  10.979   7.800
59057SOL     OW78944   5.144   5.885   4.556
59057SOL    HW178945   5.103   5.801   4.580
59057SOL    HW278946   5.209   5.901   4.624
59058SOL     OW78947   6.597   5.236  11.654
59058SOL    HW178948   6.666   5.294  11.687
59058SOL    HW278949   6.642   5.176  11.596
59059SOL     OW78950   8.905   9.528  14.596
59059SOL    HW178951   8.913   9.526  14.501
59059SOL    HW278952   8.995   9.521  14.628
59060SOL     OW78953   4.216  12.676  12.488
59060SOL    HW178954   4.157  12.739  12.446
59060SOL    HW278955   4.301  12.692  12.446
59061SOL     OW78956   1.765   5.813   0.712
59061SOL    HW178957   1.704   5.764   0.657
59061SOL    HW278958   1.838   5.753   0.726
59062SOL     OW78959   1.364   0.528   1.899
59062SOL    HW178960   1.379   0.602   1.840
59062SOL    HW278961   1.433   0.536   1.965
59063SOL     OW78962   8.929   9.459  14.342
59063SOL    HW178963   8.924   9.369  14.374
59063SOL    HW278964   8.889   9.456  14.255
59064SOL     OW78965  11.552   0.787  14.195
59064SOL    HW178966  11.595   0.714  14.150
59064SOL    HW278967  11.480   0.747  14.243
59065SOL     OW78968  11.357  10.561   2.247
59065SOL    HW178969  11.357  10.474   2.288
59065SOL    HW278970  11.429  10.607   2.288
59066SOL     OW78971  12.937   5.488   5.680
59066SOL    HW178972  12.998   5.553   5.646
59066SOL    HW278973  12.961   5.407   5.634
59067SOL     OW78974  10.963   8.939  10.841
59067SOL    HW178975  10.932   9.028  10.861
59067SOL    HW278976  10.883   8.888  10.831
59068SOL     OW78977  14.366  10.757   1.646
59068SOL    HW178978  14.378  10.769   1.741
59068SOL    HW278979  14.274  10.733   1.637
59069SOL     OW78980  10.653  10.945  14.623
59069SOL    HW178981  10.625  10.981  14.539
59069SOL    HW278982  10.582  10.887  14.649
59070SOL     OW78983  10.693  10.837   3.011
59070SOL    HW178984  10.603  10.860   2.986
59070SOL    HW278985  10.682  10.781   3.088
59071SOL     OW78986   1.234   6.047  12.846
59071SOL    HW178987   1.157   6.067  12.794
59071SOL    HW278988   1.265   5.963  12.812
59072SOL     OW78989   2.697  11.228  13.219
59072SOL    HW178990   2.652  11.312  13.213
59072SOL    HW278991   2.712  11.202  13.128
59073SOL     OW78992   5.311  12.274   8.681
59073SOL    HW178993   5.260  12.257   8.760
59073SOL    HW278994   5.256  12.334   8.630
59074SOL     OW78995   5.391  14.263   7.508
59074SOL    HW178996   5.418  14.304   7.591
59074SOL    HW278997   5.297  14.251   7.518
59075SOL     OW78998  14.512  11.300   8.769
59075SOL    HW178999  14.467  11.381   8.795
59075SOL    HW279000  14.502  11.242   8.845
59076SOL     OW79001  12.825   7.018   9.094
59076SOL    HW179002  12.887   7.082   9.060
59076SOL    HW279003  12.757   7.070   9.136
59077SOL     OW79004   8.885  14.635   2.178
59077SOL    HW179005   8.886  14.548   2.218
59077SOL    HW279006   8.974  14.668   2.189
59078SOL     OW79007  10.869  10.513  13.170
59078SOL    HW179008  10.790  10.541  13.123
59078SOL    HW279009  10.916  10.459  13.106
59079SOL     OW79010  13.613   2.813   4.348
59079SOL    HW179011  13.606   2.782   4.257
59079SOL    HW279012  13.705   2.801   4.371
59080SOL     OW79013   1.628   0.987  14.720
59080SOL    HW179014   1.607   0.934  14.644
59080SOL    HW279015   1.711   1.029  14.699
59081SOL     OW79016  12.239   5.801   0.691
59081SOL    HW179017  12.332   5.789   0.668
59081SOL    HW279018  12.198   5.718   0.666
59082SOL     OW79019  12.273   0.979   7.207
59082SOL    HW179020  12.282   1.073   7.195
59082SOL    HW279021  12.282   0.942   7.119
59083SOL     OW79022   8.356  10.247   2.827
59083SOL    HW179023   8.386  10.325   2.780
59083SOL    HW279024   8.426  10.228   2.889
59084SOL     OW79025   0.527   0.314   1.008
59084SOL    HW179026   0.562   0.301   1.096
59084SOL    HW279027   0.477   0.234   0.990
59085SOL     OW79028  12.004   4.241   5.651
59085SOL    HW179029  11.915   4.205   5.641
59085SOL    HW279030  11.993   4.316   5.710
59086SOL     OW79031   5.457   3.676   2.242
59086SOL    HW179032   5.384   3.626   2.278
59086SOL    HW279033   5.481   3.737   2.311
59087SOL     OW79034   4.584   6.704   5.339
59087SOL    HW179035   4.515   6.752   5.385
59087SOL    HW279036   4.548   6.688   5.252
59088SOL     OW79037   6.223   6.236   1.283
59088SOL    HW179038   6.223   6.245   1.188
59088SOL    HW279039   6.130   6.245   1.308
59089SOL     OW79040   6.862  12.341   0.766
59089SOL    HW179041   6.956  12.321   0.768
59089SOL    HW279042   6.832  12.306   0.682
59090SOL     OW79043   1.893  12.268   0.671
59090SOL    HW179044   1.824  12.238   0.612
59090SOL    HW279045   1.876  12.220   0.753
59091SOL     OW79046   3.484   0.460   3.989
59091SOL    HW179047   3.485   0.487   4.081
59091SOL    HW279048   3.524   0.373   3.990
59092SOL     OW79049   1.651  11.352   5.775
59092SOL    HW179050   1.712  11.278   5.782
59092SOL    HW279051   1.706  11.430   5.783
59093SOL     OW79052  12.718   5.234   4.326
59093SOL    HW179053  12.663   5.171   4.280
59093SOL    HW279054  12.806   5.196   4.321
59094SOL     OW79055   2.493  12.772   0.821
59094SOL    HW179056   2.398  12.777   0.825
59094SOL    HW279057   2.516  12.806   0.734
59095SOL     OW79058   1.345   0.918   6.702
59095SOL    HW179059   1.426   0.924   6.651
59095SOL    HW279060   1.306   1.005   6.697
59096SOL     OW79061  12.306   0.057   8.849
59096SOL    HW179062  12.263   0.088   8.770
59096SOL    HW279063  12.276   0.116   8.918
59097SOL     OW79064   9.928   9.303  13.111
59097SOL    HW179065   9.933   9.214  13.146
59097SOL    HW279066   9.949   9.359  13.186
59098SOL     OW79067   3.961   1.982   3.972
59098SOL    HW179068   3.900   1.995   3.899
59098SOL    HW279069   3.971   2.069   4.011
59099SOL     OW79070   4.591   1.714   8.720
59099SOL    HW179071   4.552   1.641   8.672
59099SOL    HW279072   4.647   1.757   8.656
59100SOL     OW79073   6.774   3.998   7.050
59100SOL    HW179074   6.778   3.939   6.975
59100SOL    HW279075   6.690   3.977   7.092
59101SOL     OW79076   8.656   5.751  10.683
59101SOL    HW179077   8.632   5.722  10.595
59101SOL    HW279078   8.669   5.846  10.675
59102SOL     OW79079  11.009  13.645   1.617
59102SOL    HW179080  10.942  13.639   1.549
59102SOL    HW279081  11.085  13.682   1.572
59103SOL     OW79082   2.311   2.688   0.855
59103SOL    HW179083   2.306   2.626   0.928
59103SOL    HW279084   2.248   2.657   0.791
59104SOL     OW79085   8.426   5.763   0.185
59104SOL    HW179086   8.507   5.773   0.235
59104SOL    HW279087   8.407   5.850   0.151
59105SOL     OW79088  10.673   3.438   1.373
59105SOL    HW179089  10.731   3.506   1.406
59105SOL    HW279090  10.682   3.443   1.278
59106SOL     OW79091  12.937   6.642  12.727
59106SOL    HW179092  12.872   6.577  12.752
59106SOL    HW279093  13.014   6.591  12.702
59107SOL     OW79094   4.909  13.151   5.901
59107SOL    HW179095   4.818  13.124   5.907
59107SOL    HW279096   4.912  13.212   5.827
59108SOL     OW79097   2.758   3.632   4.310
59108SOL    HW179098   2.711   3.579   4.245
59108SOL    HW279099   2.834   3.666   4.262
59109SOL     OW79100   3.473   4.206   1.043
59109SOL    HW179101   3.473   4.218   1.138
59109SOL    HW279102   3.566   4.206   1.019
59110SOL     OW79103   2.871   1.666  12.555
59110SOL    HW179104   2.845   1.680  12.464
59110SOL    HW279105   2.794   1.692  12.606
59111SOL     OW79106   5.599   2.661   2.302
59111SOL    HW179107   5.632   2.579   2.339
59111SOL    HW279108   5.678   2.711   2.282
59112SOL     OW79109   9.857  11.657   2.390
59112SOL    HW179110   9.809  11.688   2.313
59112SOL    HW279111   9.794  11.602   2.436
59113SOL     OW79112   0.900   8.292  11.303
59113SOL    HW179113   0.818   8.319  11.346
59113SOL    HW279114   0.967   8.302  11.371
59114SOL     OW79115   8.000  11.263   7.501
59114SOL    HW179116   8.080  11.269   7.448
59114SOL    HW279117   7.992  11.349   7.542
59115SOL     OW79118  10.951   7.329   3.323
59115SOL    HW179119  10.956   7.290   3.235
59115SOL    HW279120  10.858   7.350   3.335
59116SOL     OW79121  11.441  11.458   5.575
59116SOL    HW179122  11.426  11.404   5.497
59116SOL    HW279123  11.533  11.484   5.568
59117SOL     OW79124  13.537   9.339  10.159
59117SOL    HW179125  13.537   9.393  10.238
59117SOL    HW279126  13.507   9.253  10.190
59118SOL     OW79127   4.517  11.358   6.202
59118SOL    HW179128   4.531  11.400   6.287
59118SOL    HW279129   4.438  11.306   6.213
59119SOL     OW79130   2.929   3.148   2.263
59119SOL    HW179131   3.015   3.157   2.221
59119SOL    HW279132   2.867   3.151   2.190
59120SOL     OW79133   3.617  14.196  12.001
59120SOL    HW179134   3.688  14.209  12.064
59120SOL    HW279135   3.618  14.102  11.983
59121SOL     OW79136   6.035   0.882   7.639
59121SOL    HW179137   6.107   0.820   7.650
59121SOL    HW279138   6.055   0.953   7.701
59122SOL     OW79139   7.687   9.456   0.939
59122SOL    HW179140   7.727   9.470   1.024
59122SOL    HW279141   7.760   9.456   0.877
59123SOL     OW79142   4.584   1.327  12.597
59123SOL    HW179143   4.601   1.345  12.504
59123SOL    HW279144   4.507   1.380  12.618
59124SOL     OW79145   2.470   6.464   2.768
59124SOL    HW179146   2.399   6.527   2.780
59124SOL    HW279147   2.426   6.383   2.741
59125SOL     OW79148  14.655   0.916   1.816
59125SOL    HW179149  14.579   0.873   1.775
59125SOL    HW279150  14.679   0.985   1.754
59126SOL     OW79151  12.386  12.451  14.242
59126SOL    HW179152  12.441  12.429  14.318
59126SOL    HW279153  12.352  12.539  14.262
59127SOL     OW79154  14.267   4.070  13.975
59127SOL    HW179155  14.340   4.009  13.963
59127SOL    HW279156  14.259   4.114  13.890
59128SOL     OW79157   8.970   8.838   7.356
59128SOL    HW179158   8.886   8.793   7.348
59128SOL    HW279159   9.026   8.775   7.402
59129SOL     OW79160  10.859  11.492   3.597
59129SOL    HW179161  10.927  11.472   3.661
59129SOL    HW279162  10.778  11.462   3.638
59130SOL     OW79163   2.878   7.163  14.695
59130SOL    HW179164   2.908   7.078  14.662
59130SOL    HW279165   2.867   7.216  14.616
59131SOL     OW79166   4.356   2.038   6.928
59131SOL    HW179167   4.412   1.991   6.990
59131SOL    HW279168   4.375   1.996   6.844
59132SOL     OW79169   5.586  13.277   8.138
59132SOL    HW179170   5.528  13.205   8.163
59132SOL    HW279171   5.674  13.239   8.140
59133SOL     OW79172   5.595  14.157   3.675
59133SOL    HW179173   5.523  14.124   3.622
59133SOL    HW279174   5.637  14.223   3.620
59134SOL     OW79175   6.470   2.155  14.502
59134SOL    HW179176   6.462   2.218  14.430
59134SOL    HW279177   6.555   2.114  14.488
59135SOL     OW79178   2.155   1.493  11.784
59135SOL    HW179179   2.197   1.407  11.774
59135SOL    HW279180   2.158   1.510  11.878
59136SOL     OW79181  12.331   8.513   0.197
59136SOL    HW179182  12.390   8.574   0.241
59136SOL    HW279183  12.290   8.463   0.268
59137SOL     OW79184   0.218   2.288  12.874
59137SOL    HW179185   0.254   2.215  12.824
59137SOL    HW279186   0.192   2.250  12.957
59138SOL     OW79187   7.924   4.563   9.124
59138SOL    HW179188   7.952   4.646   9.085
59138SOL    HW279189   7.979   4.496   9.083
59139SOL     OW79190  10.730  10.429  13.619
59139SOL    HW179191  10.663  10.483  13.577
59139SOL    HW279192  10.805  10.434  13.561
59140SOL     OW79193   7.186  13.916   6.157
59140SOL    HW179194   7.147  13.951   6.237
59140SOL    HW279195   7.235  13.839   6.187
59141SOL     OW79196   9.876  12.563   0.205
59141SOL    HW179197   9.920  12.523   0.130
59141SOL    HW279198   9.795  12.600   0.168
59142SOL     OW79199  13.309   2.103   8.852
59142SOL    HW179200  13.251   2.110   8.776
59142SOL    HW279201  13.385   2.055   8.819
59143SOL     OW79202  11.643   0.045   7.342
59143SOL    HW179203  11.647  14.866   7.420
59143SOL    HW279204  11.557   0.027   7.304
59144SOL     OW79205   3.281   0.593   4.837
59144SOL    HW179206   3.220   0.520   4.830
59144SOL    HW279207   3.365   0.552   4.858
59145SOL     OW79208   4.637   5.144  14.581
59145SOL    HW179209   4.616   5.052  14.594
59145SOL    HW279210   4.671   5.149  14.492
59146SOL     OW79211  10.422   7.862  14.009
59146SOL    HW179212  10.427   7.957  13.999
59146SOL    HW279213  10.505   7.838  14.050
59147SOL     OW79214  10.891   7.035   0.522
59147SOL    HW179215  10.954   7.015   0.452
59147SOL    HW279216  10.849   7.116   0.494
59148SOL     OW79217   2.627   7.757  14.762
59148SOL    HW179218   2.649   7.677  14.809
59148SOL    HW279219   2.566   7.729  14.693
59149SOL     OW79220  10.883   9.605   7.777
59149SOL    HW179221  10.845   9.693   7.784
59149SOL    HW279222  10.977   9.619   7.786
59150SOL     OW79223  10.029   4.808  10.511
59150SOL    HW179224  10.049   4.858  10.433
59150SOL    HW279225   9.979   4.868  10.566
59151SOL     OW79226  14.697   6.293  13.727
59151SOL    HW179227  14.646   6.361  13.771
59151SOL    HW279228  14.667   6.211  13.765
59152SOL     OW79229   7.511   6.438  10.806
59152SOL    HW179230   7.509   6.361  10.863
59152SOL    HW279231   7.551   6.406  10.725
59153SOL     OW79232  13.361  11.631  12.538
59153SOL    HW179233  13.384  11.542  12.563
59153SOL    HW279234  13.372  11.633  12.443
59154SOL     OW79235  14.191   8.535  13.404
59154SOL    HW179236  14.256   8.537  13.474
59154SOL    HW279237  14.159   8.445  13.404
59155SOL     OW79238   2.929   8.028   5.684
59155SOL    HW179239   2.868   8.008   5.755
59155SOL    HW279240   2.966   8.113   5.707
59156SOL     OW79241   9.016   0.379   8.427
59156SOL    HW179242   9.110   0.391   8.434
59156SOL    HW279243   9.002   0.288   8.453
59157SOL     OW79244  11.590   9.001  10.315
59157SOL    HW179245  11.523   9.059  10.278
59157SOL    HW279246  11.577   9.008  10.410
59158SOL     OW79247  12.457   8.575   1.495
59158SOL    HW179248  12.407   8.649   1.461
59158SOL    HW279249  12.434   8.502   1.439
59159SOL     OW79250  14.411   9.656   9.904
59159SOL    HW179251  14.354   9.636   9.830
59159SOL    HW279252  14.411   9.752   9.908
59160SOL     OW79253  14.153  10.993   7.984
59160SOL    HW179254  14.068  10.949   7.985
59160SOL    HW279255  14.182  10.993   8.075
59161SOL     OW79256  11.199   9.336   1.110
59161SOL    HW179257  11.253   9.274   1.061
59161SOL    HW279258  11.125   9.354   1.052
59162SOL     OW79259   1.634   3.419  11.226
59162SOL    HW179260   1.547   3.380  11.233
59162SOL    HW279261   1.620   3.512  11.244
59163SOL     OW79262   6.440   6.200   1.444
59163SOL    HW179263   6.375   6.215   1.376
59163SOL    HW279264   6.446   6.105   1.453
59164SOL     OW79265   8.393   7.808  12.859
59164SOL    HW179266   8.387   7.749  12.934
59164SOL    HW279267   8.382   7.896  12.897
59165SOL     OW79268   8.526  12.629   3.600
59165SOL    HW179269   8.431  12.624   3.605
59165SOL    HW279270   8.556  12.608   3.688
59166SOL     OW79271  13.997   7.272   5.837
59166SOL    HW179272  14.068   7.263   5.900
59166SOL    HW279273  13.984   7.183   5.803
59167SOL     OW79274  14.766   0.883  13.889
59167SOL    HW179275  14.833   0.925  13.943
59167SOL    HW279276  14.693   0.869  13.949
59168SOL     OW79277   2.529  10.128   0.590
59168SOL    HW179278   2.553  10.196   0.653
59168SOL    HW279279   2.471  10.173   0.528
59169SOL     OW79280   1.037   2.472   9.580
59169SOL    HW179281   1.083   2.410   9.524
59169SOL    HW279282   0.971   2.512   9.523
59170SOL     OW79283   7.539  13.259   4.213
59170SOL    HW179284   7.459  13.236   4.260
59170SOL    HW279285   7.583  13.323   4.269
59171SOL     OW79286   5.806  13.959   3.644
59171SOL    HW179287   5.728  14.010   3.663
59171SOL    HW279288   5.874  14.025   3.625
59172SOL     OW79289   4.999  11.087   3.785
59172SOL    HW179290   5.086  11.056   3.809
59172SOL    HW279291   4.954  11.100   3.869
59173SOL     OW79292   9.267   4.426   9.686
59173SOL    HW179293   9.275   4.515   9.720
59173SOL    HW279294   9.317   4.427   9.605
59174SOL     OW79295   4.043   2.869   9.254
59174SOL    HW179296   4.020   2.781   9.224
59174SOL    HW279297   3.983   2.927   9.207
59175SOL     OW79298  14.139   5.712   8.640
59175SOL    HW179299  14.182   5.662   8.709
59175SOL    HW279300  14.140   5.653   8.564
59176SOL     OW79301   1.206   7.347  14.707
59176SOL    HW179302   1.112   7.355  14.725
59176SOL    HW279303   1.239   7.437  14.715
59177SOL     OW79304   5.506   4.559   0.023
59177SOL    HW179305   5.536   4.575   0.113
59177SOL    HW279306   5.420   4.518   0.034
59178SOL     OW79307   0.031   9.152   7.748
59178SOL    HW179308  14.827   9.121   7.789
59178SOL    HW279309   0.096   9.086   7.770
59179SOL     OW79310  14.205  11.530  11.359
59179SOL    HW179311  14.284  11.489  11.325
59179SOL    HW279312  14.133  11.486  11.314
59180SOL     OW79313   4.078   7.761   4.417
59180SOL    HW179314   3.989   7.791   4.401
59180SOL    HW279315   4.071   7.711   4.498
59181SOL     OW79316  14.789   2.815   0.973
59181SOL    HW179317  14.876   2.776   0.974
59181SOL    HW279318  14.741   2.764   0.908
59182SOL     OW79319   6.960   0.469  11.975
59182SOL    HW179320   6.984   0.398  11.916
59182SOL    HW279321   6.869   0.490  11.953
59183SOL     OW79322  12.251  13.495   2.005
59183SOL    HW179323  12.193  13.559   2.047
59183SOL    HW279324  12.280  13.438   2.076
59184SOL     OW79325   2.918  13.806  10.757
59184SOL    HW179326   2.892  13.749  10.829
59184SOL    HW279327   2.848  13.797  10.692
59185SOL     OW79328  11.135  14.603   4.992
59185SOL    HW179329  11.147  14.671   4.925
59185SOL    HW279330  11.040  14.600   5.006
59186SOL     OW79331   0.735   0.899   5.290
59186SOL    HW179332   0.784   0.875   5.211
59186SOL    HW279333   0.771   0.983   5.317
59187SOL     OW79334  11.150   6.905   2.982
59187SOL    HW179335  11.068   6.900   2.933
59187SOL    HW279336  11.150   6.993   3.019
59188SOL     OW79337  12.150   9.262  13.060
59188SOL    HW179338  12.173   9.353  13.078
59188SOL    HW279339  12.229   9.213  13.085
59189SOL     OW79340   1.183  13.575   9.750
59189SOL    HW179341   1.230  13.534   9.822
59189SOL    HW279342   1.090  13.569   9.773
59190SOL     OW79343   2.804   9.600   6.322
59190SOL    HW179344   2.711   9.580   6.334
59190SOL    HW279345   2.839   9.603   6.411
59191SOL     OW79346   1.933   5.715  13.715
59191SOL    HW179347   1.867   5.783  13.722
59191SOL    HW279348   1.951   5.708  13.621
59192SOL     OW79349  11.321   5.546  12.744
59192SOL    HW179350  11.415   5.534  12.730
59192SOL    HW279351  11.296   5.473  12.802
59193SOL     OW79352   1.569   8.068   9.473
59193SOL    HW179353   1.629   8.110   9.535
59193SOL    HW279354   1.564   8.130   9.400
59194SOL     OW79355   6.391   1.802   3.685
59194SOL    HW179356   6.427   1.888   3.706
59194SOL    HW279357   6.442   1.742   3.740
59195SOL     OW79358  14.075   2.900   6.766
59195SOL    HW179359  14.130   2.977   6.753
59195SOL    HW279360  14.074   2.887   6.861
59196SOL     OW79361   3.420   7.910   9.234
59196SOL    HW179362   3.336   7.955   9.234
59196SOL    HW279363   3.481   7.974   9.271
59197SOL     OW79364   6.543   6.677   4.861
59197SOL    HW179365   6.604   6.706   4.793
59197SOL    HW279366   6.592   6.611   4.910
59198SOL     OW79367   4.959   3.689   2.378
59198SOL    HW179368   4.920   3.611   2.340
59198SOL    HW279369   4.905   3.707   2.455
59199SOL     OW79370  13.134   6.432   3.944
59199SOL    HW179371  13.144   6.514   3.896
59199SOL    HW279372  13.154   6.364   3.879
59200SOL     OW79373  14.120   5.746   4.153
59200SOL    HW179374  14.133   5.731   4.059
59200SOL    HW279375  14.168   5.676   4.196
59201SOL     OW79376   8.033  13.844  13.602
59201SOL    HW179377   8.086  13.764  13.607
59201SOL    HW279378   8.091  13.913  13.635
59202SOL     OW79379   1.083  10.921   4.269
59202SOL    HW179380   1.033  10.921   4.188
59202SOL    HW279381   1.094  11.013   4.291
59203SOL     OW79382  12.135   2.801  14.120
59203SOL    HW179383  12.041   2.806  14.133
59203SOL    HW279384  12.163   2.726  14.172
59204SOL     OW79385   3.643   1.574   6.240
59204SOL    HW179386   3.582   1.537   6.303
59204SOL    HW279387   3.714   1.509   6.235
59205SOL     OW79388   7.595   3.236   9.380
59205SOL    HW179389   7.643   3.248   9.462
59205SOL    HW279390   7.504   3.229   9.406
59206SOL     OW79391  13.644   1.428   2.999
59206SOL    HW179392  13.707   1.493   2.967
59206SOL    HW279393  13.643   1.361   2.931
59207SOL     OW79394  11.929   2.045   7.159
59207SOL    HW179395  11.959   2.126   7.119
59207SOL    HW279396  11.834   2.053   7.162
59208SOL     OW79397  10.905  11.338   6.366
59208SOL    HW179398  10.918  11.410   6.428
59208SOL    HW279399  10.903  11.380   6.280
59209SOL     OW79400   9.118   6.844  14.617
59209SOL    HW179401   9.033   6.821  14.655
59209SOL    HW279402   9.099   6.860  14.525
59210SOL     OW79403   5.133  10.608  14.244
59210SOL    HW179404   5.159  10.650  14.326
59210SOL    HW279405   5.040  10.627  14.236
59211SOL     OW79406   2.795   2.795   3.037
59211SOL    HW179407   2.825   2.704   3.032
59211SOL    HW279408   2.846   2.841   2.970
59212SOL     OW79409   0.589  14.405  14.313
59212SOL    HW179410   0.638  14.329  14.344
59212SOL    HW279411   0.626  14.478  14.362
59213SOL     OW79412  12.519   1.905   2.230
59213SOL    HW179413  12.598   1.958   2.244
59213SOL    HW279414  12.454   1.967   2.198
59214SOL     OW79415   7.065  14.015   7.434
59214SOL    HW179416   7.012  14.094   7.424
59214SOL    HW279417   7.002  13.943   7.427
59215SOL     OW79418   0.652   6.169  11.081
59215SOL    HW179419   0.559   6.168  11.101
59215SOL    HW279420   0.656   6.183  10.987
59216SOL     OW79421   1.357   9.217   5.811
59216SOL    HW179422   1.452   9.218   5.799
59216SOL    HW279423   1.341   9.140   5.867
59217SOL     OW79424  12.145   8.630   4.687
59217SOL    HW179425  12.050   8.628   4.676
59217SOL    HW279426  12.164   8.553   4.740
59218SOL     OW79427   3.731   0.116   1.216
59218SOL    HW179428   3.766   0.036   1.176
59218SOL    HW279429   3.715   0.091   1.307
59219SOL     OW79430   5.914  13.063   6.395
59219SOL    HW179431   5.957  13.135   6.348
59219SOL    HW279432   5.924  12.988   6.337
59220SOL     OW79433   3.966   6.252   8.802
59220SOL    HW179434   3.988   6.204   8.722
59220SOL    HW279435   3.871   6.242   8.809
59221SOL     OW79436   0.072   2.628   8.578
59221SOL    HW179437   0.143   2.567   8.558
59221SOL    HW279438   0.037   2.653   8.492
59222SOL     OW79439   5.834  11.975   7.767
59222SOL    HW179440   5.916  12.016   7.795
59222SOL    HW279441   5.767  12.041   7.785
59223SOL     OW79442   0.378   3.984   0.833
59223SOL    HW179443   0.404   4.011   0.921
59223SOL    HW279444   0.312   3.917   0.847
59224SOL     OW79445   3.398   9.091  13.476
59224SOL    HW179446   3.318   9.041  13.492
59224SOL    HW279447   3.422   9.070  13.386
59225SOL     OW79448   8.246  13.581   9.396
59225SOL    HW179449   8.310  13.649   9.419
59225SOL    HW279450   8.167  13.630   9.372
59226SOL     OW79451   9.063   1.644   5.618
59226SOL    HW179452   9.005   1.714   5.588
59226SOL    HW279453   9.138   1.690   5.657
59227SOL     OW79454   0.585  11.453   4.821
59227SOL    HW179455   0.679  11.441   4.806
59227SOL    HW279456   0.575  11.449   4.916
59228SOL     OW79457   7.660   8.180   1.803
59228SOL    HW179458   7.609   8.252   1.841
59228SOL    HW279459   7.750   8.211   1.806
59229SOL     OW79460   8.709   4.099   1.876
59229SOL    HW179461   8.690   4.193   1.875
59229SOL    HW279462   8.792   4.091   1.829
59230SOL     OW79463   1.215   7.052   4.751
59230SOL    HW179464   1.147   7.081   4.690
59230SOL    HW279465   1.166   7.018   4.826
59231SOL     OW79466   1.235  12.735   3.039
59231SOL    HW179467   1.245  12.692   3.123
59231SOL    HW279468   1.251  12.666   2.974
59232SOL     OW79469  10.824   5.070   2.855
59232SOL    HW179470  10.894   5.118   2.810
59232SOL    HW279471  10.870   5.002   2.904
59233SOL     OW79472   6.799  10.910   7.417
59233SOL    HW179473   6.769  10.974   7.481
59233SOL    HW279474   6.844  10.843   7.469
59234SOL     OW79475  11.411  10.402   9.903
59234SOL    HW179476  11.505  10.413   9.920
59234SOL    HW279477  11.369  10.448   9.975
59235SOL     OW79478   8.924   3.332  10.207
59235SOL    HW179479   8.829   3.340  10.217
59235SOL    HW279480   8.935   3.277  10.129
59236SOL     OW79481   3.263  12.299   2.340
59236SOL    HW179482   3.309  12.360   2.282
59236SOL    HW279483   3.294  12.213   2.313
59237SOL     OW79484   1.579   6.515  11.713
59237SOL    HW179485   1.632   6.522  11.634
59237SOL    HW279486   1.497   6.559  11.692
59238SOL     OW79487   3.865  14.453   8.956
59238SOL    HW179488   3.929  14.395   8.915
59238SOL    HW279489   3.879  14.441   9.050
59239SOL     OW79490   0.640   5.641  10.498
59239SOL    HW179491   0.654   5.600  10.412
59239SOL    HW279492   0.663   5.573  10.561
59240SOL     OW79493   5.128   5.745  13.613
59240SOL    HW179494   5.041   5.719  13.643
59240SOL    HW279495   5.137   5.836  13.642
59241SOL     OW79496   8.785  11.087   3.639
59241SOL    HW179497   8.813  11.054   3.553
59241SOL    HW279498   8.713  11.147   3.618
59242SOL     OW79499   6.540   2.179   2.367
59242SOL    HW179500   6.582   2.124   2.434
59242SOL    HW279501   6.462   2.214   2.411
59243SOL     OW79502   0.563   7.585  13.771
59243SOL    HW179503   0.650   7.582  13.811
59243SOL    HW279504   0.537   7.677  13.778
59244SOL     OW79505   8.225   4.112   6.841
59244SOL    HW179506   8.278   4.181   6.880
59244SOL    HW279507   8.199   4.057   6.915
59245SOL     OW79508   3.513   4.784   8.332
59245SOL    HW179509   3.473   4.788   8.245
59245SOL    HW279510   3.604   4.758   8.315
59246SOL     OW79511  14.321  11.684   5.683
59246SOL    HW179512  14.288  11.743   5.751
59246SOL    HW279513  14.242  11.649   5.641
59247SOL     OW79514  14.142   2.466  13.806
59247SOL    HW179515  14.133   2.522  13.884
59247SOL    HW279516  14.055   2.427  13.795
59248SOL     OW79517   6.828   0.163   5.018
59248SOL    HW179518   6.851   0.254   5.002
59248SOL    HW279519   6.908   0.114   5.000
59249SOL     OW79520   1.823   5.535   7.105
59249SOL    HW179521   1.753   5.596   7.081
59249SOL    HW279522   1.779   5.470   7.160
59250SOL     OW79523  10.403  12.782  14.614
59250SOL    HW179524  10.308  12.787  14.605
59250SOL    HW279525  10.427  12.701  14.568
59251SOL     OW79526  10.644  12.553  14.023
59251SOL    HW179527  10.580  12.532  13.955
59251SOL    HW279528  10.664  12.469  14.065
59252SOL     OW79529   4.482  12.997   6.439
59252SOL    HW179530   4.574  13.016   6.458
59252SOL    HW279531   4.472  13.017   6.346
59253SOL     OW79532   9.683  14.115  12.729
59253SOL    HW179533   9.632  14.071  12.797
59253SOL    HW279534   9.697  14.203  12.763
59254SOL     OW79535   8.932   9.690  13.256
59254SOL    HW179536   8.974   9.659  13.336
59254SOL    HW279537   8.986   9.656  13.185
59255SOL     OW79538   0.359   6.201   9.216
59255SOL    HW179539   0.306   6.276   9.244
59255SOL    HW279540   0.377   6.152   9.296
59256SOL     OW79541   5.621   0.429  14.009
59256SOL    HW179542   5.574   0.458  14.087
59256SOL    HW279543   5.711   0.461  14.022
59257SOL     OW79544  12.045   9.852   0.667
59257SOL    HW179545  12.008   9.833   0.753
59257SOL    HW279546  12.121   9.793   0.661
59258SOL     OW79547  11.083  10.423   0.685
59258SOL    HW179548  11.052  10.483   0.618
59258SOL    HW279549  11.071  10.470   0.768
59259SOL     OW79550  10.090  13.874   6.991
59259SOL    HW179551  10.108  13.894   7.083
59259SOL    HW279552  10.130  13.788   6.976
59260SOL     OW79553  12.648   1.174   8.398
59260SOL    HW179554  12.703   1.249   8.376
59260SOL    HW279555  12.592   1.162   8.321
59261SOL     OW79556  14.459   9.279   5.178
59261SOL    HW179557  14.427   9.258   5.091
59261SOL    HW279558  14.423   9.211   5.234
59262SOL     OW79559   4.631   5.592   1.721
59262SOL    HW179560   4.727   5.593   1.713
59262SOL    HW279561   4.615   5.613   1.813
59263SOL     OW79562  12.312   2.574   3.553
59263SOL    HW179563  12.319   2.646   3.489
59263SOL    HW279564  12.260   2.612   3.624
59264SOL     OW79565  14.668   2.464  14.242
59264SOL    HW179566  14.625   2.397  14.189
59264SOL    HW279567  14.696   2.417  14.320
59265SOL     OW79568   5.292  12.189  10.294
59265SOL    HW179569   5.210  12.238  10.306
59265SOL    HW279570   5.357  12.256  10.275
59266SOL     OW79571  11.287   4.918   5.113
59266SOL    HW179572  11.277   4.909   5.207
59266SOL    HW279573  11.369   4.966   5.102
59267SOL     OW79574   7.358  10.582   1.516
59267SOL    HW179575   7.404  10.659   1.549
59267SOL    HW279576   7.381  10.512   1.577
59268SOL     OW79577   0.729   5.460   9.572
59268SOL    HW179578   0.636   5.462   9.548
59268SOL    HW279579   0.766   5.387   9.522
59269SOL     OW79580   3.983  14.398   2.280
59269SOL    HW179581   3.905  14.403   2.335
59269SOL    HW279582   4.023  14.314   2.304
59270SOL     OW79583   6.700  12.181   3.695
59270SOL    HW179584   6.719  12.144   3.781
59270SOL    HW279585   6.715  12.275   3.706
59271SOL     OW79586  10.462   7.425   3.170
59271SOL    HW179587  10.402   7.352   3.153
59271SOL    HW279588  10.543   7.383   3.198
59272SOL     OW79589   3.701   8.241  11.314
59272SOL    HW179590   3.622   8.261  11.364
59272SOL    HW279591   3.770   8.232  11.380
59273SOL     OW79592   6.002  13.999   1.254
59273SOL    HW179593   5.949  14.078   1.248
59273SOL    HW279594   6.082  14.020   1.207
59274SOL     OW79595   9.166   3.943   4.462
59274SOL    HW179596   9.188   3.871   4.523
59274SOL    HW279597   9.162   3.901   4.376
59275SOL     OW79598  14.099   2.610  13.326
59275SOL    HW179599  14.097   2.620  13.421
59275SOL    HW279600  14.173   2.551  13.310
59276SOL     OW79601   0.068   6.960   0.914
59276SOL    HW179602   0.155   6.938   0.946
59276SOL    HW279603   0.009   6.939   0.987
59277SOL     OW79604   8.412   0.653   8.302
59277SOL    HW179605   8.497   0.697   8.299
59277SOL    HW279606   8.357   0.709   8.356
59278SOL     OW79607   6.591   3.118   0.810
59278SOL    HW179608   6.619   3.115   0.718
59278SOL    HW279609   6.664   3.161   0.856
59279SOL     OW79610   6.634  13.149   0.978
59279SOL    HW179611   6.663  13.058   0.990
59279SOL    HW279612   6.606  13.153   0.886
59280SOL     OW79613   8.885  14.731  11.736
59280SOL    HW179614   8.875  14.699  11.646
59280SOL    HW279615   8.807  14.785  11.751
59281SOL     OW79616   3.327   3.598  10.057
59281SOL    HW179617   3.282   3.659   9.999
59281SOL    HW279618   3.403   3.569  10.008
59282SOL     OW79619  11.740   6.021  14.233
59282SOL    HW179620  11.834   6.040  14.233
59282SOL    HW279621  11.715   6.021  14.325
59283SOL     OW79622   8.117  11.570   4.165
59283SOL    HW179623   8.031  11.570   4.207
59283SOL    HW279624   8.139  11.662   4.153
59284SOL     OW79625  14.091   5.833   1.818
59284SOL    HW179626  14.042   5.913   1.795
59284SOL    HW279627  14.101   5.787   1.735
59285SOL     OW79628  14.702   6.792  10.752
59285SOL    HW179629  14.609   6.811  10.745
59285SOL    HW279630  14.745   6.871  10.718
59286SOL     OW79631   9.396   0.322   9.169
59286SOL    HW179632   9.463   0.257   9.193
59286SOL    HW279633   9.411   0.337   9.075
59287SOL     OW79634  12.521  12.117   4.109
59287SOL    HW179635  12.486  12.133   4.197
59287SOL    HW279636  12.444  12.111   4.053
59288SOL     OW79637  11.329   2.290  12.739
59288SOL    HW179638  11.254   2.263  12.793
59288SOL    HW279639  11.291   2.347  12.673
59289SOL     OW79640  12.176   4.600   3.947
59289SOL    HW179641  12.266   4.567   3.945
59289SOL    HW279642  12.138   4.569   3.865
59290SOL     OW79643  12.952   5.019  10.936
59290SOL    HW179644  12.921   4.947  10.881
59290SOL    HW279645  12.882   5.031  11.001
59291SOL     OW79646   3.490   0.303  11.906
59291SOL    HW179647   3.515   0.355  11.830
59291SOL    HW279648   3.495   0.212  11.876
59292SOL     OW79649   2.620   9.412  12.122
59292SOL    HW179650   2.611   9.317  12.116
59292SOL    HW279651   2.583   9.445  12.040
59293SOL     OW79652  11.177   6.639  14.449
59293SOL    HW179653  11.199   6.554  14.487
59293SOL    HW279654  11.156   6.694  14.524
59294SOL     OW79655   2.467   9.548  11.933
59294SOL    HW179656   2.449   9.623  11.990
59294SOL    HW279657   2.459   9.581  11.844
59295SOL     OW79658  10.104   7.738  14.460
59295SOL    HW179659  10.188   7.756  14.417
59295SOL    HW279660  10.088   7.815  14.514
59296SOL     OW79661  11.562  14.368   2.394
59296SOL    HW179662  11.532  14.436   2.334
59296SOL    HW279663  11.587  14.416   2.473
59297SOL     OW79664   7.766   9.934   2.980
59297SOL    HW179665   7.744   9.885   3.059
59297SOL    HW279666   7.689   9.926   2.924
59298SOL     OW79667  14.528   4.155  13.012
59298SOL    HW179668  14.482   4.124  13.089
59298SOL    HW279669  14.560   4.242  13.036
59299SOL     OW79670   1.935   4.586   2.568
59299SOL    HW179671   2.004   4.533   2.607
59299SOL    HW279672   1.979   4.667   2.542
59300SOL     OW79673   2.690  11.810   8.491
59300SOL    HW179674   2.754  11.848   8.551
59300SOL    HW279675   2.628  11.765   8.548
59301SOL     OW79676   9.222   8.920   8.412
59301SOL    HW179677   9.205   9.012   8.393
59301SOL    HW279678   9.146   8.892   8.463
59302SOL     OW79679   2.824  11.614   2.650
59302SOL    HW179680   2.817  11.681   2.582
59302SOL    HW279681   2.885  11.549   2.614
59303SOL     OW79682   6.204   0.842   1.135
59303SOL    HW179683   6.272   0.881   1.190
59303SOL    HW279684   6.122   0.871   1.174
59304SOL     OW79685   4.635   1.748   7.263
59304SOL    HW179686   4.565   1.686   7.281
59304SOL    HW279687   4.668   1.773   7.349
59305SOL     OW79688   3.436   2.742   6.624
59305SOL    HW179689   3.524   2.753   6.587
59305SOL    HW279690   3.408   2.656   6.594
59306SOL     OW79691  14.456   3.696  12.988
59306SOL    HW179692  14.453   3.773  12.931
59306SOL    HW279693  14.549   3.676  12.996
59307SOL     OW79694   1.678   2.830   6.053
59307SOL    HW179695   1.686   2.738   6.077
59307SOL    HW279696   1.593   2.838   6.011
59308SOL     OW79697  13.244  11.585  10.699
59308SOL    HW179698  13.287  11.554  10.779
59308SOL    HW279699  13.283  11.671  10.683
59309SOL     OW79700  14.559   0.385   5.394
59309SOL    HW179701  14.479   0.403   5.344
59309SOL    HW279702  14.612   0.330   5.336
59310SOL     OW79703   2.816  12.939   7.096
59310SOL    HW179704   2.858  13.002   7.154
59310SOL    HW279705   2.784  12.870   7.154
59311SOL     OW79706   9.782   3.899   7.994
59311SOL    HW179707   9.867   3.918   7.954
59311SOL    HW279708   9.762   3.978   8.045
59312SOL     OW79709  14.267  14.741  12.593
59312SOL    HW179710  14.187  14.767  12.638
59312SOL    HW279711  14.255  14.772  12.504
59313SOL     OW79712   2.760   2.174   5.126
59313SOL    HW179713   2.736   2.189   5.217
59313SOL    HW279714   2.840   2.120   5.131
59314SOL     OW79715   6.869   4.730   7.985
59314SOL    HW179716   6.961   4.713   8.005
59314SOL    HW279717   6.822   4.701   8.063
59315SOL     OW79718   8.003   6.953   6.352
59315SOL    HW179719   7.916   6.988   6.370
59315SOL    HW279720   7.991   6.858   6.349
59316SOL     OW79721  14.487  10.789   1.166
59316SOL    HW179722  14.460  10.834   1.246
59316SOL    HW279723  14.418  10.808   1.103
59317SOL     OW79724  12.443  10.829   9.698
59317SOL    HW179725  12.445  10.737   9.672
59317SOL    HW279726  12.486  10.832   9.783
59318SOL     OW79727  12.341   1.039  10.008
59318SOL    HW179728  12.295   0.964  10.046
59318SOL    HW279729  12.421   1.047  10.060
59319SOL     OW79730   7.668   6.116  13.610
59319SOL    HW179731   7.626   6.164  13.538
59319SOL    HW279732   7.632   6.028  13.604
59320SOL     OW79733   4.643   5.541   4.280
59320SOL    HW179734   4.621   5.629   4.247
59320SOL    HW279735   4.723   5.553   4.330
59321SOL     OW79736  14.760   5.953  10.014
59321SOL    HW179737  14.716   5.898  10.080
59321SOL    HW279738  14.848   5.915  10.007
59322SOL     OW79739   7.502   1.928   8.127
59322SOL    HW179740   7.445   2.000   8.155
59322SOL    HW279741   7.509   1.871   8.204
59323SOL     OW79742   2.323   8.580   3.017
59323SOL    HW179743   2.406   8.536   3.036
59323SOL    HW279744   2.259   8.510   3.011
59324SOL     OW79745   6.920   7.165   9.931
59324SOL    HW179746   6.826   7.168   9.912
59324SOL    HW279747   6.955   7.245   9.892
59325SOL     OW79748   7.052   8.274   0.979
59325SOL    HW179749   7.086   8.363   0.974
59325SOL    HW279750   7.121   8.224   1.023
59326SOL     OW79751  12.665   9.496   6.793
59326SOL    HW179752  12.638   9.531   6.878
59326SOL    HW279753  12.712   9.567   6.750
59327SOL     OW79754   6.554   6.237   0.918
59327SOL    HW179755   6.510   6.155   0.895
59327SOL    HW279756   6.561   6.234   1.014
59328SOL     OW79757   0.270   6.948   3.085
59328SOL    HW179758   0.357   6.925   3.054
59328SOL    HW279759   0.211   6.927   3.013
59329SOL     OW79760   4.248   6.715  14.304
59329SOL    HW179761   4.203   6.668  14.234
59329SOL    HW279762   4.250   6.806  14.275
59330SOL     OW79763   2.227   3.242  14.500
59330SOL    HW179764   2.196   3.179  14.434
59330SOL    HW279765   2.220   3.195  14.583
59331SOL     OW79766   6.796   1.735  12.864
59331SOL    HW179767   6.809   1.769  12.953
59331SOL    HW279768   6.831   1.803  12.807
59332SOL     OW79769   0.085  13.171   7.046
59332SOL    HW179770   0.017  13.129   7.099
59332SOL    HW279771   0.118  13.102   6.989
59333SOL     OW79772  13.030   5.891  12.725
59333SOL    HW179773  13.069   5.908  12.811
59333SOL    HW279774  12.951   5.945  12.724
59334SOL     OW79775  11.055   3.418  11.220
59334SOL    HW179776  11.009   3.455  11.145
59334SOL    HW279777  11.082   3.494  11.271
59335SOL     OW79778  13.993   1.328  12.741
59335SOL    HW179779  14.047   1.408  12.747
59335SOL    HW279780  14.054   1.260  12.713
59336SOL     OW79781   2.052  12.734  14.743
59336SOL    HW179782   2.002  12.814  14.760
59336SOL    HW279783   1.988  12.664  14.755
59337SOL     OW79784   0.742   3.627   8.101
59337SOL    HW179785   0.711   3.709   8.140
59337SOL    HW279786   0.669   3.596   8.048
59338SOL     OW79787   9.509  13.964  11.007
59338SOL    HW179788   9.482  13.885  11.054
59338SOL    HW279789   9.604  13.958  11.002
59339SOL     OW79790   2.931  10.370   3.761
59339SOL    HW179791   2.963  10.334   3.843
59339SOL    HW279792   2.970  10.314   3.694
59340SOL     OW79793  13.958  10.462   3.341
59340SOL    HW179794  13.915  10.411   3.273
59340SOL    HW279795  13.887  10.507   3.386
59341SOL     OW79796   5.258   9.994  14.128
59341SOL    HW179797   5.228   9.905  14.143
59341SOL    HW279798   5.253  10.037  14.213
59342SOL     OW79799   2.769   3.943  13.716
59342SOL    HW179800   2.789   4.007  13.784
59342SOL    HW279801   2.774   3.859  13.760
59343SOL     OW79802   3.165   5.537  12.701
59343SOL    HW179803   3.138   5.446  12.712
59343SOL    HW279804   3.115   5.568  12.625
59344SOL     OW79805  10.655  11.792  13.922
59344SOL    HW179806  10.728  11.840  13.960
59344SOL    HW279807  10.580  11.818  13.976
59345SOL     OW79808   8.286   7.315   6.538
59345SOL    HW179809   8.194   7.332   6.556
59345SOL    HW279810   8.326   7.402   6.531
59346SOL     OW79811  10.950   6.028   2.787
59346SOL    HW179812  10.995   6.108   2.759
59346SOL    HW279813  11.016   5.978   2.834
59347SOL     OW79814   8.790  11.460  14.342
59347SOL    HW179815   8.708  11.457  14.391
59347SOL    HW279816   8.853  11.499  14.403
59348SOL     OW79817  11.666   6.436  11.570
59348SOL    HW179818  11.585   6.411  11.615
59348SOL    HW279819  11.705   6.503  11.627
59349SOL     OW79820   4.130   7.863   8.805
59349SOL    HW179821   4.064   7.814   8.854
59349SOL    HW279822   4.112   7.843   8.713
59350SOL     OW79823  12.262   5.570  14.876
59350SOL    HW179824  12.244   5.479   0.025
59350SOL    HW279825  12.187   5.594  14.820
59351SOL     OW79826   5.090   8.889   2.981
59351SOL    HW179827   5.001   8.858   2.999
59351SOL    HW279828   5.122   8.833   2.911
59352SOL     OW79829   0.107  13.931   6.343
59352SOL    HW179830   0.174  13.863   6.355
59352SOL    HW279831   0.059  13.932   6.425
59353SOL     OW79832   0.239   9.894  14.607
59353SOL    HW179833   0.230   9.812  14.559
59353SOL    HW279834   0.152   9.909  14.645
59354SOL     OW79835   2.371   2.078   7.813
59354SOL    HW179836   2.384   2.172   7.827
59354SOL    HW279837   2.278   2.064   7.830
59355SOL     OW79838  11.586   0.037  11.517
59355SOL    HW179839  11.592   0.079  11.603
59355SOL    HW279840  11.667   0.062  11.472
59356SOL     OW79841  10.448   3.020   9.864
59356SOL    HW179842  10.467   3.058   9.949
59356SOL    HW279843  10.531   2.981   9.836
59357SOL     OW79844  10.931  13.089  12.483
59357SOL    HW179845  10.838  13.078  12.460
59357SOL    HW279846  10.936  13.061  12.574
59358SOL     OW79847  13.327   3.658   9.914
59358SOL    HW179848  13.402   3.608   9.881
59358SOL    HW279849  13.355   3.687  10.001
59359SOL     OW79850   0.981  11.568   3.479
59359SOL    HW179851   0.995  11.575   3.385
59359SOL    HW279852   0.890  11.593   3.492
59360SOL     OW79853   9.975   7.817   1.207
59360SOL    HW179854   9.900   7.856   1.251
59360SOL    HW279855  10.050   7.845   1.259
59361SOL     OW79856   9.302   3.701  13.645
59361SOL    HW179857   9.339   3.741  13.566
59361SOL    HW279858   9.241   3.635  13.612
59362SOL     OW79859   9.174  12.828  10.268
59362SOL    HW179860   9.157  12.914  10.305
59362SOL    HW279861   9.107  12.771  10.308
59363SOL     OW79862  10.264  12.730   9.366
59363SOL    HW179863  10.298  12.792   9.301
59363SOL    HW279864  10.174  12.759   9.382
59364SOL     OW79865  12.750  10.447   6.186
59364SOL    HW179866  12.702  10.525   6.158
59364SOL    HW279867  12.715  10.428   6.274
59365SOL     OW79868  14.534   5.670   5.263
59365SOL    HW179869  14.461   5.618   5.230
59365SOL    HW279870  14.522   5.670   5.358
59366SOL     OW79871   6.499   1.727  14.710
59366SOL    HW179872   6.589   1.727  14.676
59366SOL    HW279873   6.508   1.696  14.800
59367SOL     OW79874   5.018   3.015   1.585
59367SOL    HW179875   5.090   2.982   1.532
59367SOL    HW279876   4.998   2.944   1.646
59368SOL     OW79877   6.392  10.951   2.602
59368SOL    HW179878   6.407  10.870   2.651
59368SOL    HW279879   6.340  10.924   2.526
59369SOL     OW79880   9.640   1.762   2.803
59369SOL    HW179881   9.545   1.764   2.796
59369SOL    HW279882   9.664   1.853   2.821
59370SOL     OW79883  14.145  11.930   9.613
59370SOL    HW179884  14.101  11.852   9.647
59370SOL    HW279885  14.172  11.906   9.524
59371SOL     OW79886  12.823   8.210   8.737
59371SOL    HW179887  12.869   8.278   8.786
59371SOL    HW279888  12.861   8.128   8.770
59372SOL     OW79889   7.795   8.070   5.611
59372SOL    HW179890   7.708   8.041   5.639
59372SOL    HW279891   7.791   8.066   5.515
59373SOL     OW79892   4.664   8.901   5.752
59373SOL    HW179893   4.727   8.891   5.681
59373SOL    HW279894   4.655   8.996   5.763
59374SOL     OW79895   8.663  11.637   6.653
59374SOL    HW179896   8.617  11.672   6.577
59374SOL    HW279897   8.722  11.707   6.680
59375SOL     OW79898   5.709   1.865   5.485
59375SOL    HW179899   5.736   1.776   5.461
59375SOL    HW279900   5.752   1.921   5.421
59376SOL     OW79901   8.793   9.687  12.178
59376SOL    HW179902   8.792   9.591  12.177
59376SOL    HW279903   8.718   9.712  12.232
59377SOL     OW79904   5.927   3.356   4.238
59377SOL    HW179905   5.834   3.368   4.219
59377SOL    HW279906   5.971   3.424   4.186
59378SOL     OW79907   1.207  11.241   4.514
59378SOL    HW179908   1.281  11.180   4.520
59378SOL    HW279909   1.235  11.318   4.562
59379SOL     OW79910   5.817   4.177   5.625
59379SOL    HW179911   5.900   4.224   5.625
59379SOL    HW279912   5.820   4.121   5.548
59380SOL     OW79913   2.824   1.684   7.647
59380SOL    HW179914   2.843   1.772   7.681
59380SOL    HW279915   2.889   1.628   7.688
59381SOL     OW79916   5.503   5.978   5.245
59381SOL    HW179917   5.506   6.031   5.324
59381SOL    HW279918   5.583   6.001   5.198
59382SOL     OW79919  10.039   2.557   2.563
59382SOL    HW179920  10.097   2.597   2.498
59382SOL    HW279921  10.004   2.480   2.520
59383SOL     OW79922  14.870   7.861   8.920
59383SOL    HW179923   0.020   7.771   8.900
59383SOL    HW279924   0.071   7.914   8.904
59384SOL     OW79925  10.037   2.749   9.434
59384SOL    HW179926  10.079   2.675   9.477
59384SOL    HW279927  10.027   2.815   9.503
59385SOL     OW79928   3.241   4.184   2.211
59385SOL    HW179929   3.216   4.246   2.280
59385SOL    HW279930   3.317   4.138   2.248
59386SOL     OW79931   0.068   4.836   0.262
59386SOL    HW179932  14.868   4.821   0.209
59386SOL    HW279933   0.136   4.861   0.199
59387SOL     OW79934   1.226   1.185  14.463
59387SOL    HW179935   1.185   1.243  14.398
59387SOL    HW279936   1.290   1.134  14.413
59388SOL     OW79937   8.788   2.722   1.114
59388SOL    HW179938   8.767   2.714   1.207
59388SOL    HW279939   8.722   2.782   1.080
59389SOL     OW79940   4.173   0.709   7.658
59389SOL    HW179941   4.227   0.638   7.624
59389SOL    HW279942   4.102   0.718   7.595
59390SOL     OW79943   7.051   4.314  12.093
59390SOL    HW179944   7.030   4.232  12.138
59390SOL    HW279945   7.145   4.324  12.104
59391SOL     OW79946   5.948   9.185  11.867
59391SOL    HW179947   5.936   9.269  11.823
59391SOL    HW279948   5.976   9.208  11.956
59392SOL     OW79949  13.425   9.532   3.387
59392SOL    HW179950  13.458   9.619   3.407
59392SOL    HW279951  13.501   9.475   3.396
59393SOL     OW79952   3.286   9.103   6.516
59393SOL    HW179953   3.326   9.174   6.466
59393SOL    HW279954   3.203   9.140   6.548
59394SOL     OW79955   0.254   4.065   2.524
59394SOL    HW179956   0.167   4.047   2.488
59394SOL    HW279957   0.267   3.997   2.589
59395SOL     OW79958   6.783   7.705   2.349
59395SOL    HW179959   6.716   7.769   2.325
59395SOL    HW279960   6.866   7.748   2.330
59396SOL     OW79961  13.275  14.336  13.358
59396SOL    HW179962  13.200  14.278  13.369
59396SOL    HW279963  13.348  14.289  13.398
59397SOL     OW79964   2.976   6.873   8.014
59397SOL    HW179965   2.947   6.866   8.105
59397SOL    HW279966   2.931   6.802   7.968
59398SOL     OW79967  10.884   1.999  11.689
59398SOL    HW179968  10.952   2.014  11.755
59398SOL    HW279969  10.929   1.952  11.619
59399SOL     OW79970  14.692   0.937   0.659
59399SOL    HW179971  14.710   0.951   0.752
59399SOL    HW279972  14.774   0.957   0.615
59400SOL     OW79973   6.082  10.724   5.720
59400SOL    HW179974   6.077  10.762   5.632
59400SOL    HW279975   6.084  10.800   5.778
59401SOL     OW79976   4.987   1.347   7.173
59401SOL    HW179977   4.919   1.289   7.208
59401SOL    HW279978   4.939   1.410   7.119
59402SOL     OW79979   1.331   0.457  13.648
59402SOL    HW179980   1.424   0.445  13.629
59402SOL    HW279981   1.310   0.386  13.709
59403SOL     OW79982   4.881  14.434   9.839
59403SOL    HW179983   4.848  14.361   9.893
59403SOL    HW279984   4.882  14.509   9.898
59404SOL     OW79985   6.375  11.402  13.410
59404SOL    HW179986   6.415  11.456  13.342
59404SOL    HW279987   6.290  11.377  13.374
59405SOL     OW79988  11.956  10.417  10.011
59405SOL    HW179989  11.998  10.498   9.984
59405SOL    HW279990  11.866  10.424   9.982
59406SOL     OW79991   9.185   3.435   3.954
59406SOL    HW179992   9.207   3.375   4.025
59406SOL    HW279993   9.188   3.522   3.994
59407SOL     OW79994   2.840   9.300  10.294
59407SOL    HW179995   2.841   9.380  10.348
59407SOL    HW279996   2.808   9.232  10.353
59408SOL     OW79997  11.723   7.059  11.138
59408SOL    HW179998  11.698   7.014  11.057
59408SOL    HW279999  11.693   7.003  11.208
59409SOL     OW80000  11.816   9.609   2.072
59409SOL    HW180001  11.904   9.631   2.041
59409SOL    HW280002  11.827   9.525   2.116
59410SOL     OW80003  14.427   6.074   2.852
59410SOL    HW180004  14.413   6.147   2.912
59410SOL    HW280005  14.427   6.113   2.765
59411SOL     OW80006  13.709   6.535   9.374
59411SOL    HW180007  13.757   6.618   9.369
59411SOL    HW280008  13.617   6.560   9.381
59412SOL     OW80009   5.540  10.502  10.592
59412SOL    HW180010   5.486  10.424  10.579
59412SOL    HW280011   5.492  10.572  10.547
59413SOL     OW80012  14.381   9.932  13.371
59413SOL    HW180013  14.359   9.845  13.339
59413SOL    HW280014  14.380   9.987  13.292
59414SOL     OW80015   9.828  13.682   8.531
59414SOL    HW180016   9.855  13.717   8.446
59414SOL    HW280017   9.898  13.621   8.555
59415SOL     OW80018   6.372   0.281   3.154
59415SOL    HW180019   6.336   0.240   3.233
59415SOL    HW280020   6.352   0.374   3.164
59416SOL     OW80021   6.590  10.768  14.038
59416SOL    HW180022   6.668  10.735  14.083
59416SOL    HW280023   6.615  10.770  13.945
59417SOL     OW80024   2.450  10.110   7.918
59417SOL    HW180025   2.359  10.137   7.908
59417SOL    HW280026   2.450  10.052   7.994
59418SOL     OW80027   0.763   4.853   9.375
59418SOL    HW180028   0.713   4.822   9.450
59418SOL    HW280029   0.778   4.775   9.321
59419SOL     OW80030  10.035   8.580  11.696
59419SOL    HW180031  10.047   8.670  11.666
59419SOL    HW280032  10.042   8.526  11.617
59420SOL     OW80033   6.212  13.782   3.555
59420SOL    HW180034   6.200  13.823   3.469
59420SOL    HW280035   6.259  13.848   3.606
59421SOL     OW80036   2.806   9.815  11.580
59421SOL    HW180037   2.782   9.884  11.641
59421SOL    HW280038   2.789   9.733  11.627
59422SOL     OW80039   8.157   8.521  13.225
59422SOL    HW180040   8.220   8.516  13.297
59422SOL    HW280041   8.205   8.490  13.148
59423SOL     OW80042  13.170   0.587  11.627
59423SOL    HW180043  13.129   0.624  11.706
59423SOL    HW280044  13.207   0.504  11.657
59424SOL     OW80045   9.118   2.793  13.665
59424SOL    HW180046   9.146   2.808  13.755
59424SOL    HW280047   9.073   2.874  13.640
59425SOL     OW80048  13.315   7.849   8.209
59425SOL    HW180049  13.389   7.850   8.269
59425SOL    HW280050  13.239   7.828   8.263
59426SOL     OW80051  13.595  10.443   3.043
59426SOL    HW180052  13.649  10.495   3.102
59426SOL    HW280053  13.645  10.441   2.961
59427SOL     OW80054  14.241   3.227  13.445
59427SOL    HW180055  14.213   3.223  13.354
59427SOL    HW280056  14.190   3.158  13.489
59428SOL     OW80057   8.761  14.126  11.789
59428SOL    HW180058   8.785  14.113  11.881
59428SOL    HW280059   8.696  14.057  11.772
59429SOL     OW80060   2.768   8.432   6.883
59429SOL    HW180061   2.759   8.517   6.840
59429SOL    HW280062   2.767   8.368   6.812
59430SOL     OW80063   1.893   3.457   2.507
59430SOL    HW180064   1.959   3.517   2.471
59430SOL    HW280065   1.835   3.513   2.558
59431SOL     OW80066   6.696   3.385  12.630
59431SOL    HW180067   6.620   3.409  12.684
59431SOL    HW280068   6.684   3.292  12.613
59432SOL     OW80069   4.484   6.553   3.718
59432SOL    HW180070   4.459   6.642   3.742
59432SOL    HW280071   4.401   6.507   3.707
59433SOL     OW80072   6.828  14.402  13.385
59433SOL    HW180073   6.798  14.397  13.475
59433SOL    HW280074   6.911  14.450  13.390
59434SOL     OW80075   9.693   1.554   7.293
59434SOL    HW180076   9.652   1.468   7.289
59434SOL    HW280077   9.683   1.582   7.384
59435SOL     OW80078   9.057   2.532  13.608
59435SOL    HW180079   8.997   2.520  13.682
59435SOL    HW280080   9.069   2.626  13.602
59436SOL     OW80081   3.393   9.548   2.666
59436SOL    HW180082   3.483   9.537   2.698
59436SOL    HW280083   3.353   9.462   2.679
59437SOL     OW80084   9.684   5.194   7.179
59437SOL    HW180085   9.747   5.135   7.137
59437SOL    HW280086   9.677   5.161   7.269
59438SOL     OW80087   7.724  13.536  14.704
59438SOL    HW180088   7.636  13.571  14.689
59438SOL    HW280089   7.766  13.600  14.762
59439SOL     OW80090   8.632   7.757   8.315
59439SOL    HW180091   8.694   7.694   8.279
59439SOL    HW280092   8.563   7.704   8.354
59440SOL     OW80093   3.740   7.404   4.041
59440SOL    HW180094   3.771   7.462   4.111
59440SOL    HW280095   3.662   7.363   4.077
59441SOL     OW80096   1.090   9.482   6.228
59441SOL    HW180097   1.073   9.522   6.314
59441SOL    HW280098   1.091   9.388   6.246
59442SOL     OW80099   8.766   6.568   8.052
59442SOL    HW180100   8.790   6.480   8.023
59442SOL    HW280101   8.740   6.557   8.144
59443SOL     OW80102   1.772   1.931  11.183
59443SOL    HW180103   1.748   1.985  11.259
59443SOL    HW280104   1.812   1.993  11.122
59444SOL     OW80105   0.945   7.895   7.728
59444SOL    HW180106   0.901   7.811   7.714
59444SOL    HW280107   1.011   7.900   7.659
59445SOL     OW80108   3.344  11.122  12.078
59445SOL    HW180109   3.405  11.109  12.004
59445SOL    HW280110   3.304  11.208  12.061
59446SOL     OW80111   0.245   4.072   4.810
59446SOL    HW180112   0.251   4.166   4.797
59446SOL    HW280113   0.309   4.035   4.750
59447SOL     OW80114  14.328   5.472   6.205
59447SOL    HW180115  14.250   5.423   6.232
59447SOL    HW280116  14.401   5.422   6.241
59448SOL     OW80117  13.044   2.486  13.045
59448SOL    HW180118  12.965   2.454  13.090
59448SOL    HW280119  13.092   2.533  13.113
59449SOL     OW80120   2.853   0.353   1.465
59449SOL    HW180121   2.843   0.419   1.533
59449SOL    HW280122   2.765   0.339   1.431
59450SOL     OW80123   6.445  10.922   1.757
59450SOL    HW180124   6.359  10.956   1.733
59450SOL    HW280125   6.469  10.864   1.685
59451SOL     OW80126   6.776   9.209   1.757
59451SOL    HW180127   6.850   9.229   1.814
59451SOL    HW280128   6.793   9.259   1.677
59452SOL     OW80129   3.634   1.768   1.386
59452SOL    HW180130   3.658   1.683   1.422
59452SOL    HW280131   3.624   1.825   1.462
59453SOL     OW80132   9.320   1.251   7.920
59453SOL    HW180133   9.343   1.338   7.954
59453SOL    HW280134   9.272   1.209   7.992
59454SOL     OW80135   5.758   6.689   6.550
59454SOL    HW180136   5.769   6.768   6.602
59454SOL    HW280137   5.765   6.719   6.459
59455SOL     OW80138   8.293   6.974   6.752
59455SOL    HW180139   8.201   7.001   6.751
59455SOL    HW280140   8.297   6.905   6.819
59456SOL     OW80141   2.696   6.375  12.517
59456SOL    HW180142   2.782   6.401  12.548
59456SOL    HW280143   2.704   6.372  12.422
59457SOL     OW80144   9.315  14.119  13.266
59457SOL    HW180145   9.397  14.122  13.314
59457SOL    HW280146   9.259  14.060  13.318
59458SOL     OW80147   7.322   3.314   2.284
59458SOL    HW180148   7.265   3.386   2.258
59458SOL    HW280149   7.411   3.344   2.262
59459SOL     OW80150   5.096   5.145  12.190
59459SOL    HW180151   5.166   5.208  12.170
59459SOL    HW280152   5.142   5.066  12.218
59460SOL     OW80153  14.549   8.177   6.377
59460SOL    HW180154  14.546   8.146   6.468
59460SOL    HW280155  14.607   8.253   6.380
59461SOL     OW80156   2.932   5.839   2.484
59461SOL    HW180157   3.001   5.787   2.444
59461SOL    HW280158   2.908   5.904   2.418
59462SOL     OW80159   3.833  11.772   5.405
59462SOL    HW180160   3.915  11.786   5.356
59462SOL    HW280161   3.779  11.720   5.346
59463SOL     OW80162  14.629   2.125  12.270
59463SOL    HW180163  14.627   2.136  12.365
59463SOL    HW280164  14.539   2.144  12.242
59464SOL     OW80165  12.038   9.231   7.438
59464SOL    HW180166  12.019   9.235   7.345
59464SOL    HW280167  12.006   9.314   7.473
59465SOL     OW80168   2.332  11.653   5.195
59465SOL    HW180169   2.301  11.608   5.273
59465SOL    HW280170   2.408  11.703   5.224
59466SOL     OW80171   0.939  14.623   4.089
59466SOL    HW180172   0.924  14.601   4.181
59466SOL    HW280173   0.864  14.585   4.043
59467SOL     OW80174   5.703  10.204   5.013
59467SOL    HW180175   5.671  10.130   5.065
59467SOL    HW280176   5.794  10.182   4.992
59468SOL     OW80177   2.910   1.567   2.559
59468SOL    HW180178   2.985   1.627   2.563
59468SOL    HW280179   2.947   1.481   2.576
59469SOL     OW80180  13.374  10.567   9.832
59469SOL    HW180181  13.374  10.598   9.741
59469SOL    HW280182  13.305  10.617   9.875
59470SOL     OW80183   9.098   4.500   0.339
59470SOL    HW180184   9.178   4.477   0.291
59470SOL    HW280185   9.031   4.442   0.302
59471SOL     OW80186  13.256   4.039  12.094
59471SOL    HW180187  13.336   4.075  12.134
59471SOL    HW280188  13.187   4.099  12.122
59472SOL     OW80189  14.186   9.703   5.679
59472SOL    HW180190  14.226   9.672   5.761
59472SOL    HW280191  14.147   9.787   5.703
59473SOL     OW80192   7.286   3.721  10.279
59473SOL    HW180193   7.347   3.792  10.259
59473SOL    HW280194   7.333   3.666  10.342
59474SOL     OW80195   9.506   8.753   2.724
59474SOL    HW180196   9.570   8.696   2.681
59474SOL    HW280197   9.421   8.719   2.696
59475SOL     OW80198   6.564  13.543   3.384
59475SOL    HW180199   6.645  13.492   3.376
59475SOL    HW280200   6.525  13.513   3.466
59476SOL     OW80201   9.317  11.868  10.316
59476SOL    HW180202   9.276  11.897  10.397
59476SOL    HW280203   9.258  11.802  10.280
59477SOL     OW80204   3.728  13.087   2.552
59477SOL    HW180205   3.819  13.117   2.545
59477SOL    HW280206   3.683  13.128   2.477
59478SOL     OW80207  13.427   5.622   1.374
59478SOL    HW180208  13.481   5.544   1.368
59478SOL    HW280209  13.482   5.692   1.338
59479SOL     OW80210   4.327   4.309  12.353
59479SOL    HW180211   4.341   4.216  12.371
59479SOL    HW280212   4.339   4.352  12.438
59480SOL     OW80213   5.437  14.762   9.075
59480SOL    HW180214   5.498  14.755   9.149
59480SOL    HW280215   5.408  14.673   9.059
59481SOL     OW80216   4.015  12.012   2.098
59481SOL    HW180217   4.043  12.061   2.021
59481SOL    HW280218   3.923  11.992   2.081
59482SOL     OW80219   7.168  13.814   5.678
59482SOL    HW180220   7.214  13.897   5.668
59482SOL    HW280221   7.099  13.832   5.743
59483SOL     OW80222  13.960  10.164  10.133
59483SOL    HW180223  13.966  10.189  10.225
59483SOL    HW280224  13.988  10.072  10.132
59484SOL     OW80225   0.452   2.460  11.184
59484SOL    HW180226   0.386   2.398  11.152
59484SOL    HW280227   0.403   2.521  11.239
59485SOL     OW80228  14.500  10.522  13.828
59485SOL    HW180229  14.519  10.513  13.735
59485SOL    HW280230  14.565  10.467  13.871
59486SOL     OW80231   3.702   4.572  13.131
59486SOL    HW180232   3.621   4.523  13.113
59486SOL    HW280233   3.741   4.584  13.045
59487SOL     OW80234   7.262  10.948   9.660
59487SOL    HW180235   7.321  10.984   9.727
59487SOL    HW280236   7.312  10.954   9.579
59488SOL     OW80237   2.324   6.773   5.370
59488SOL    HW180238   2.411   6.771   5.330
59488SOL    HW280239   2.265   6.745   5.301
59489SOL     OW80240   9.244  10.426   5.263
59489SOL    HW180241   9.309  10.384   5.207
59489SOL    HW280242   9.176  10.456   5.202
59490SOL     OW80243   8.101  13.575  11.920
59490SOL    HW180244   8.131  13.651  11.971
59490SOL    HW280245   8.017  13.602  11.884
59491SOL     OW80246   0.387   7.547  10.591
59491SOL    HW180247   0.388   7.522  10.683
59491SOL    HW280248   0.302   7.516  10.559
59492SOL     OW80249   0.198   4.837  14.355
59492SOL    HW180250   0.219   4.757  14.307
59492SOL    HW280251   0.256   4.835  14.431
59493SOL     OW80252   4.989   1.143   5.525
59493SOL    HW180253   5.056   1.082   5.494
59493SOL    HW280254   5.037   1.225   5.539
59494SOL     OW80255   5.001  10.321   9.778
59494SOL    HW180256   4.926  10.319   9.718
59494SOL    HW280257   5.077  10.312   9.721
59495SOL     OW80258   7.850  11.419  10.144
59495SOL    HW180259   7.806  11.443  10.225
59495SOL    HW280260   7.831  11.491  10.084
59496SOL     OW80261   0.422  14.823  10.078
59496SOL    HW180262   0.383   0.010  10.138
59496SOL    HW280263   0.374  14.742  10.096
59497SOL     OW80264   2.554   9.833   3.192
59497SOL    HW180265   2.496   9.784   3.251
59497SOL    HW280266   2.551   9.783   3.110
59498SOL     OW80267   5.929   8.936   6.450
59498SOL    HW180268   5.868   8.868   6.423
59498SOL    HW280269   5.889   9.018   6.420
59499SOL     OW80270  14.215   5.854   0.403
59499SOL    HW180271  14.276   5.902   0.347
59499SOL    HW280272  14.186   5.918   0.468
59500SOL     OW80273   6.854   5.541   3.487
59500SOL    HW180274   6.794   5.571   3.419
59500SOL    HW280275   6.799   5.493   3.549
59501SOL     OW80276   9.260  10.526   9.894
59501SOL    HW180277   9.248  10.433   9.871
59501SOL    HW280278   9.333  10.554   9.838
59502SOL     OW80279   9.555  13.742   6.677
59502SOL    HW180280   9.610  13.811   6.715
59502SOL    HW280281   9.465  13.768   6.699
59503SOL     OW80282  11.896   8.840  10.487
59503SOL    HW180283  11.840   8.813  10.414
59503SOL    HW280284  11.868   8.929  10.507
59504SOL     OW80285   3.104   2.129   9.304
59504SOL    HW180286   3.139   2.071   9.236
59504SOL    HW280287   3.017   2.093   9.323
59505SOL     OW80288   4.359   2.241   9.522
59505SOL    HW180289   4.264   2.235   9.516
59505SOL    HW280290   4.390   2.152   9.511
59506SOL     OW80291   2.050   4.988   4.390
59506SOL    HW180292   1.969   4.986   4.338
59506SOL    HW280293   2.032   5.053   4.459
59507SOL     OW80294   5.355  10.904  12.262
59507SOL    HW180295   5.315  10.991  12.266
59507SOL    HW280296   5.446  10.918  12.291
59508SOL     OW80297   5.605   9.319   7.186
59508SOL    HW180298   5.650   9.386   7.238
59508SOL    HW280299   5.644   9.325   7.099
59509SOL     OW80300   8.275  10.517   7.973
59509SOL    HW180301   8.234  10.440   8.012
59509SOL    HW280302   8.367  10.512   7.999
59510SOL     OW80303   9.982   8.413   2.750
59510SOL    HW180304   9.948   8.343   2.695
59510SOL    HW280305   9.935   8.403   2.833
59511SOL     OW80306   7.586   6.831   3.855
59511SOL    HW180307   7.666   6.879   3.878
59511SOL    HW280308   7.594   6.748   3.902
59512SOL     OW80309   1.692   4.786  14.280
59512SOL    HW180310   1.746   4.728  14.227
59512SOL    HW280311   1.724   4.874  14.260
59513SOL     OW80312   2.187   6.701   5.760
59513SOL    HW180313   2.150   6.642   5.826
59513SOL    HW280314   2.112   6.753   5.731
59514SOL     OW80315  13.841  13.264   1.358
59514SOL    HW180316  13.812  13.301   1.442
59514SOL    HW280317  13.809  13.174   1.360
59515SOL     OW80318  12.852   9.553  13.786
59515SOL    HW180319  12.937   9.517  13.760
59515SOL    HW280320  12.803   9.477  13.817
59516SOL     OW80321   1.925   4.919  11.961
59516SOL    HW180322   1.897   4.853  11.897
59516SOL    HW280323   1.868   4.994  11.946
59517SOL     OW80324   2.879   3.717   2.941
59517SOL    HW180325   2.807   3.736   2.881
59517SOL    HW280326   2.837   3.700   3.025
59518SOL     OW80327  12.503   1.490   6.391
59518SOL    HW180328  12.421   1.540   6.386
59518SOL    HW280329  12.570   1.550   6.359
59519SOL     OW80330   3.762   6.310  10.672
59519SOL    HW180331   3.781   6.255  10.748
59519SOL    HW280332   3.845   6.354  10.653
59520SOL     OW80333   5.948   2.840   4.913
59520SOL    HW180334   5.912   2.818   4.828
59520SOL    HW280335   5.912   2.927   4.933
59521SOL     OW80336   4.824   8.297  11.124
59521SOL    HW180337   4.845   8.219  11.177
59521SOL    HW280338   4.774   8.262  11.050
59522SOL     OW80339   3.621  14.661   9.584
59522SOL    HW180340   3.643  14.754   9.588
59522SOL    HW280341   3.681  14.619   9.646
59523SOL     OW80342   4.786   3.200  13.538
59523SOL    HW180343   4.798   3.288  13.575
59523SOL    HW280344   4.729   3.156  13.601
59524SOL     OW80345   2.753   1.655   2.798
59524SOL    HW180346   2.787   1.643   2.710
59524SOL    HW280347   2.830   1.650   2.855
59525SOL     OW80348   1.359   4.028  11.286
59525SOL    HW180349   1.443   4.060  11.320
59525SOL    HW280350   1.303   4.105  11.286
59526SOL     OW80351   3.168  13.838   2.687
59526SOL    HW180352   3.095  13.868   2.634
59526SOL    HW280353   3.232  13.909   2.682
59527SOL     OW80354   6.575  13.295   0.596
59527SOL    HW180355   6.571  13.382   0.636
59527SOL    HW280356   6.645  13.303   0.530
59528SOL     OW80357   5.742   3.982  12.893
59528SOL    HW180358   5.776   4.043  12.828
59528SOL    HW280359   5.667   3.940  12.851
59529SOL     OW80360  11.014   9.251  11.834
59529SOL    HW180361  11.008   9.156  11.840
59529SOL    HW280362  11.016   9.269  11.740
59530SOL     OW80363   5.848   5.308   9.283
59530SOL    HW180364   5.909   5.264   9.224
59530SOL    HW280365   5.789   5.239   9.314
59531SOL     OW80366   3.841   0.320   8.302
59531SOL    HW180367   3.871   0.397   8.254
59531SOL    HW280368   3.921   0.283   8.340
59532SOL     OW80369   0.963   8.448  11.089
59532SOL    HW180370   0.926   8.364  11.116
59532SOL    HW280371   1.057   8.430  11.077
59533SOL     OW80372   0.508   9.280   6.585
59533SOL    HW180373   0.570   9.211   6.608
59533SOL    HW280374   0.427   9.234   6.565
59534SOL     OW80375  11.383   8.918   4.561
59534SOL    HW180376  11.462   8.865   4.557
59534SOL    HW280377  11.363   8.939   4.470
59535SOL     OW80378  14.157   4.688   1.620
59535SOL    HW180379  14.224   4.704   1.686
59535SOL    HW280380  14.093   4.631   1.664
59536SOL     OW80381   4.239   1.253  14.428
59536SOL    HW180382   4.271   1.228  14.515
59536SOL    HW280383   4.263   1.179  14.372
59537SOL     OW80384   9.112   6.635  13.535
59537SOL    HW180385   9.196   6.671  13.507
59537SOL    HW280386   9.074   6.704  13.588
59538SOL     OW80387   7.764   2.432  10.416
59538SOL    HW180388   7.837   2.446  10.476
59538SOL    HW280389   7.762   2.337  10.402
59539SOL     OW80390   1.185   2.093   1.431
59539SOL    HW180391   1.254   2.030   1.408
59539SOL    HW280392   1.203   2.115   1.523
59540SOL     OW80393  10.366   7.722  11.054
59540SOL    HW180394  10.424   7.674  11.114
59540SOL    HW280395  10.417   7.799  11.029
59541SOL     OW80396   1.357  14.356   2.853
59541SOL    HW180397   1.270  14.343   2.893
59541SOL    HW280398   1.415  14.303   2.907
59542SOL     OW80399  10.546   0.307  10.723
59542SOL    HW180400  10.543   0.399  10.748
59542SOL    HW280401  10.628   0.274  10.759
59543SOL     OW80402  12.499   7.421   3.638
59543SOL    HW180403  12.513   7.385   3.550
59543SOL    HW280404  12.512   7.515   3.627
59544SOL     OW80405  10.602   1.629   4.211
59544SOL    HW180406  10.570   1.583   4.289
59544SOL    HW280407  10.697   1.619   4.215
59545SOL     OW80408   2.533   3.412  11.353
59545SOL    HW180409   2.539   3.375  11.265
59545SOL    HW280410   2.583   3.352  11.408
59546SOL     OW80411   5.296   5.312   6.706
59546SOL    HW180412   5.391   5.311   6.698
59546SOL    HW280413   5.271   5.400   6.679
59547SOL     OW80414  10.002   2.013   8.998
59547SOL    HW180415   9.946   1.977   9.066
59547SOL    HW280416  10.089   2.016   9.037
59548SOL     OW80417   4.507   3.246  13.064
59548SOL    HW180418   4.546   3.267  13.148
59548SOL    HW280419   4.581   3.221  13.008
59549SOL     OW80420   9.301  13.251   6.834
59549SOL    HW180421   9.326  13.236   6.743
59549SOL    HW280422   9.260  13.169   6.861
59550SOL     OW80423   0.391   0.735   4.657
59550SOL    HW180424   0.472   0.769   4.695
59550SOL    HW280425   0.373   0.792   4.582
59551SOL     OW80426   2.197  10.702   9.185
59551SOL    HW180427   2.154  10.778   9.224
59551SOL    HW280428   2.157  10.627   9.229
59552SOL     OW80429  13.455  10.941  12.976
59552SOL    HW180430  13.510  10.882  13.027
59552SOL    HW280431  13.489  11.028  12.995
59553SOL     OW80432   8.322   4.529   9.029
59553SOL    HW180433   8.323   4.625   9.027
59553SOL    HW280434   8.414   4.504   9.026
59554SOL     OW80435   0.625   8.162   3.040
59554SOL    HW180436   0.708   8.208   3.030
59554SOL    HW280437   0.611   8.120   2.955
59555SOL     OW80438  11.144   1.083   2.955
59555SOL    HW180439  11.101   1.040   2.881
59555SOL    HW280440  11.133   1.176   2.938
59556SOL     OW80441  14.862   1.606   7.677
59556SOL    HW180442   0.052   1.582   7.740
59556SOL    HW280443  14.832   1.522   7.642
59557SOL     OW80444   0.875  12.148   4.471
59557SOL    HW180445   0.801  12.192   4.428
59557SOL    HW280446   0.868  12.173   4.563
59558SOL     OW80447   9.508   9.715   7.813
59558SOL    HW180448   9.525   9.791   7.868
59558SOL    HW280449   9.450   9.660   7.865
59559SOL     OW80450  14.574   9.331  14.077
59559SOL    HW180451  14.655   9.361  14.119
59559SOL    HW280452  14.510   9.398  14.099
59560SOL     OW80453   3.608  14.353   2.069
59560SOL    HW180454   3.638  14.444   2.070
59560SOL    HW280455   3.686  14.303   2.094
59561SOL     OW80456   2.781   0.360   5.265
59561SOL    HW180457   2.776   0.397   5.354
59561SOL    HW280458   2.718   0.288   5.265
59562SOL     OW80459  10.318   4.350   6.472
59562SOL    HW180460  10.352   4.401   6.546
59562SOL    HW280461  10.395   4.316   6.428
59563SOL     OW80462   2.688  14.876   5.184
59563SOL    HW180463   2.689   0.066   5.252
59563SOL    HW280464   2.694   0.048   5.102
59564SOL     OW80465  11.232   9.292  12.605
59564SOL    HW180466  11.273   9.270  12.521
59564SOL    HW280467  11.138   9.278  12.589
59565SOL     OW80468   2.564   5.647  10.998
59565SOL    HW180469   2.652   5.631  10.966
59565SOL    HW280470   2.548   5.576  11.061
59566SOL     OW80471   5.038   9.819   8.564
59566SOL    HW180472   5.121   9.833   8.610
59566SOL    HW280473   5.023   9.900   8.516
59567SOL     OW80474   9.695  11.039   0.823
59567SOL    HW180475   9.732  11.035   0.735
59567SOL    HW280476   9.771  11.047   0.881
59568SOL     OW80477   7.534   5.141   6.080
59568SOL    HW180478   7.488   5.149   5.996
59568SOL    HW280479   7.492   5.206   6.137
59569SOL     OW80480  10.234  12.113   9.288
59569SOL    HW180481  10.176  12.065   9.229
59569SOL    HW280482  10.179  12.136   9.363
59570SOL     OW80483   6.181   0.488   5.122
59570SOL    HW180484   6.156   0.404   5.159
59570SOL    HW280485   6.274   0.497   5.143
59571SOL     OW80486  11.674  10.522   6.172
59571SOL    HW180487  11.633  10.579   6.107
59571SOL    HW280488  11.661  10.568   6.255
59572SOL     OW80489   6.135   4.735  11.904
59572SOL    HW180490   6.216   4.759  11.859
59572SOL    HW280491   6.069   4.792  11.864
59573SOL     OW80492   7.900   8.807  11.373
59573SOL    HW180493   7.953   8.734  11.342
59573SOL    HW280494   7.822   8.806  11.317
59574SOL     OW80495   8.624   6.650   7.131
59574SOL    HW180496   8.719   6.659   7.122
59574SOL    HW280497   8.612   6.557   7.151
59575SOL     OW80498  12.152   8.981   1.949
59575SOL    HW180499  12.060   8.954   1.947
59575SOL    HW280500  12.201   8.903   1.927
59576SOL     OW80501   1.512   9.093   8.228
59576SOL    HW180502   1.562   9.130   8.155
59576SOL    HW280503   1.468   9.017   8.190
59577SOL     OW80504   6.943   4.972   0.221
59577SOL    HW180505   6.930   4.946   0.130
59577SOL    HW280506   6.939   5.068   0.220
59578SOL     OW80507  14.508   8.696   0.143
59578SOL    HW180508  14.437   8.738   0.191
59578SOL    HW280509  14.584   8.704   0.201
59579SOL     OW80510   5.976   5.995  13.425
59579SOL    HW180511   5.983   5.899  13.421
59579SOL    HW280512   5.923   6.012  13.503
59580SOL     OW80513   7.767   5.703   2.672
59580SOL    HW180514   7.743   5.793   2.651
59580SOL    HW280515   7.840   5.711   2.733
59581SOL     OW80516   8.150   7.487   2.664
59581SOL    HW180517   8.203   7.561   2.693
59581SOL    HW280518   8.095   7.466   2.740
59582SOL     OW80519  14.286   7.546   2.601
59582SOL    HW180520  14.279   7.519   2.510
59582SOL    HW280521  14.199   7.527   2.638
59583SOL     OW80522  14.240   6.623   8.017
59583SOL    HW180523  14.208   6.570   8.090
59583SOL    HW280524  14.303   6.683   8.058
59584SOL     OW80525  12.503   6.204   7.677
59584SOL    HW180526  12.518   6.144   7.603
59584SOL    HW280527  12.452   6.276   7.640
59585SOL     OW80528   7.099   6.542  12.815
59585SOL    HW180529   7.183   6.497  12.814
59585SOL    HW280530   7.098   6.594  12.734
59586SOL     OW80531   4.517  14.030   3.831
59586SOL    HW180532   4.428  14.050   3.858
59586SOL    HW280533   4.530  13.939   3.856
59587SOL     OW80534   9.382   4.033  12.877
59587SOL    HW180535   9.333   4.032  12.795
59587SOL    HW280536   9.468   4.068  12.853
59588SOL     OW80537  11.469   5.033   9.563
59588SOL    HW180538  11.509   4.983   9.492
59588SOL    HW280539  11.525   5.110   9.574
59589SOL     OW80540   7.461   3.651   2.236
59589SOL    HW180541   7.392   3.654   2.169
59589SOL    HW280542   7.460   3.739   2.274
59590SOL     OW80543   3.683   7.046   7.858
59590SOL    HW180544   3.628   7.112   7.815
59590SOL    HW280545   3.694   7.080   7.948
59591SOL     OW80546   9.720   1.120  12.620
59591SOL    HW180547   9.747   1.212  12.622
59591SOL    HW280548   9.646   1.115  12.680
59592SOL     OW80549   0.874   3.084   8.019
59592SOL    HW180550   0.909   3.019   7.958
59592SOL    HW280551   0.815   3.138   7.966
59593SOL     OW80552   9.734   7.065   3.622
59593SOL    HW180553   9.739   7.024   3.535
59593SOL    HW280554   9.823   7.093   3.641
59594SOL     OW80555  13.937   9.778   3.769
59594SOL    HW180556  13.961   9.870   3.758
59594SOL    HW280557  13.874   9.778   3.841
59595SOL     OW80558  14.583   5.293   6.621
59595SOL    HW180559  14.594   5.320   6.713
59595SOL    HW280560  14.633   5.358   6.571
59596SOL     OW80561  10.834  14.460   3.433
59596SOL    HW180562  10.776  14.484   3.505
59596SOL    HW280563  10.788  14.490   3.354
59597SOL     OW80564   3.290  10.746   5.926
59597SOL    HW180565   3.270  10.652   5.930
59597SOL    HW280566   3.230  10.786   5.988
59598SOL     OW80567   6.308   4.431   7.515
59598SOL    HW180568   6.296   4.356   7.457
59598SOL    HW280569   6.233   4.488   7.498
59599SOL     OW80570   5.488   5.491  14.219
59599SOL    HW180571   5.411   5.439  14.196
59599SOL    HW280572   5.455   5.561  14.274
59600SOL     OW80573   6.094  10.139  14.566
59600SOL    HW180574   6.138  10.057  14.541
59600SOL    HW280575   6.009  10.135  14.523
59601SOL     OW80576  10.387  11.976   3.625
59601SOL    HW180577  10.432  12.049   3.668
59601SOL    HW280578  10.355  11.922   3.697
59602SOL     OW80579  13.498   6.184   1.591
59602SOL    HW180580  13.482   6.253   1.656
59602SOL    HW280581  13.562   6.221   1.531
59603SOL     OW80582  10.704   4.971   1.724
59603SOL    HW180583  10.673   4.931   1.805
59603SOL    HW280584  10.781   4.921   1.700
59604SOL     OW80585  10.955   9.266   0.723
59604SOL    HW180586  11.046   9.240   0.706
59604SOL    HW280587  10.905   9.185   0.708
59605SOL     OW80588   5.511   5.749  12.178
59605SOL    HW180589   5.538   5.659  12.160
59605SOL    HW280590   5.480   5.781  12.093
59606SOL     OW80591   6.932   5.870   8.018
59606SOL    HW180592   6.994   5.934   7.983
59606SOL    HW280593   6.846   5.908   8.002
59607SOL     OW80594   7.913  13.114  11.069
59607SOL    HW180595   7.947  13.028  11.097
59607SOL    HW280596   7.991  13.161  11.040
59608SOL     OW80597   3.425   4.035   8.969
59608SOL    HW180598   3.367   4.018   8.894
59608SOL    HW280599   3.382   4.104   9.018
59609SOL     OW80600  13.931   7.826  11.962
59609SOL    HW180601  13.926   7.879  11.883
59609SOL    HW280602  14.017   7.846  11.999
59610SOL     OW80603  14.053   1.016  10.907
59610SOL    HW180604  13.992   1.023  10.981
59610SOL    HW280605  14.102   0.935  10.924
59611SOL     OW80606   5.651  11.159  10.449
59611SOL    HW180607   5.625  11.171  10.541
59611SOL    HW280608   5.577  11.116  10.408
59612SOL     OW80609   4.431   3.741  13.856
59612SOL    HW180610   4.365   3.675  13.834
59612SOL    HW280611   4.485   3.748  13.778
59613SOL     OW80612   1.911  10.901   3.318
59613SOL    HW180613   1.836  10.919   3.374
59613SOL    HW280614   1.987  10.932   3.369
59614SOL     OW80615  14.792   7.899   0.831
59614SOL    HW180616   0.005   7.923   0.853
59614SOL    HW280617  14.784   7.915   0.737
59615SOL     OW80618  13.497   6.590  10.378
59615SOL    HW180619  13.455   6.529  10.440
59615SOL    HW280620  13.476   6.676  10.413
59616SOL     OW80621  14.566   0.737  11.199
59616SOL    HW180622  14.506   0.745  11.125
59616SOL    HW280623  14.653   0.748  11.161
59617SOL     OW80624   5.691  10.058   6.086
59617SOL    HW180625   5.689  10.151   6.063
59617SOL    HW280626   5.784  10.038   6.096
59618SOL     OW80627   0.859   8.150   4.598
59618SOL    HW180628   0.922   8.081   4.576
59618SOL    HW280629   0.779   8.124   4.553
59619SOL     OW80630  11.714   5.536   0.804
59619SOL    HW180631  11.800   5.575   0.821
59619SOL    HW280632  11.725   5.488   0.722
59620SOL     OW80633  10.014  14.597   0.380
59620SOL    HW180634   9.986  14.513   0.415
59620SOL    HW280635   9.937  14.632   0.336
59621SOL     OW80636  11.663   8.183   4.345
59621SOL    HW180637  11.751   8.206   4.315
59621SOL    HW280638  11.635   8.258   4.397
59622SOL     OW80639   0.174  11.131   6.060
59622SOL    HW180640   0.171  11.225   6.044
59622SOL    HW280641   0.083  11.102   6.048
59623SOL     OW80642   9.132   4.165   8.797
59623SOL    HW180643   9.130   4.091   8.736
59623SOL    HW280644   9.185   4.232   8.753
59624SOL     OW80645   1.304   7.467  12.919
59624SOL    HW180646   1.256   7.501  12.994
59624SOL    HW280647   1.237   7.452  12.852
59625SOL     OW80648   8.741   1.830  14.398
59625SOL    HW180649   8.664   1.800  14.447
59625SOL    HW280650   8.799   1.865  14.466
59626SOL     OW80651   8.490   9.232  12.195
59626SOL    HW180652   8.479   9.256  12.287
59626SOL    HW280653   8.521   9.142  12.197
59627SOL     OW80654  13.174   0.107  13.559
59627SOL    HW180655  13.113   0.131  13.629
59627SOL    HW280656  13.260   0.106  13.601
59628SOL     OW80657   0.205   0.885   6.379
59628SOL    HW180658   0.245   0.827   6.442
59628SOL    HW280659   0.279   0.928   6.335
59629SOL     OW80660  11.049   9.135   6.907
59629SOL    HW180661  10.957   9.143   6.882
59629SOL    HW280662  11.097   9.132   6.824
59630SOL     OW80663   1.949   3.556   7.673
59630SOL    HW180664   2.033   3.510   7.681
59630SOL    HW280665   1.884   3.486   7.668
59631SOL     OW80666  14.097  13.765   5.574
59631SOL    HW180667  14.107  13.680   5.616
59631SOL    HW280668  14.148  13.759   5.494
59632SOL     OW80669   3.874   4.886   0.532
59632SOL    HW180670   3.845   4.907   0.443
59632SOL    HW280671   3.820   4.811   0.557
59633SOL     OW80672  13.445   0.595   2.636
59633SOL    HW180673  13.461   0.582   2.543
59633SOL    HW280674  13.388   0.671   2.641
59634SOL     OW80675   2.970   2.586   4.626
59634SOL    HW180676   2.913   2.532   4.572
59634SOL    HW280677   2.936   2.675   4.614
59635SOL     OW80678  10.979  14.202  14.540
59635SOL    HW180679  10.905  14.142  14.550
59635SOL    HW280680  10.940  14.288  14.530
59636SOL     OW80681   0.647   5.704  13.402
59636SOL    HW180682   0.642   5.701  13.306
59636SOL    HW280683   0.733   5.668  13.422
59637SOL     OW80684   4.001   5.016  12.781
59637SOL    HW180685   3.919   5.025  12.828
59637SOL    HW280686   4.030   4.927  12.801
59638SOL     OW80687   3.446   4.811   9.212
59638SOL    HW180688   3.435   4.717   9.195
59638SOL    HW280689   3.383   4.831   9.282
59639SOL     OW80690  12.177   2.401   3.784
59639SOL    HW180691  12.222   2.486   3.777
59639SOL    HW280692  12.092   2.423   3.823
59640SOL     OW80693   5.596   7.095   2.659
59640SOL    HW180694   5.623   7.082   2.568
59640SOL    HW280695   5.670   7.140   2.700
59641SOL     OW80696   0.700  13.013   2.600
59641SOL    HW180697   0.773  13.062   2.638
59641SOL    HW280698   0.660  12.968   2.674
59642SOL     OW80699   9.892  10.218   0.831
59642SOL    HW180700   9.804  10.186   0.811
59642SOL    HW280701   9.907  10.192   0.921
59643SOL     OW80702  12.782  13.394   1.123
59643SOL    HW180703  12.740  13.354   1.046
59643SOL    HW280704  12.783  13.488   1.104
59644SOL     OW80705  11.452   8.204  11.858
59644SOL    HW180706  11.460   8.300  11.853
59644SOL    HW280707  11.400   8.189  11.936
59645SOL     OW80708  11.437   3.748  12.389
59645SOL    HW180709  11.496   3.687  12.432
59645SOL    HW280710  11.433   3.718  12.298
59646SOL     OW80711  11.359   5.979   5.148
59646SOL    HW180712  11.363   5.931   5.231
59646SOL    HW280713  11.395   5.919   5.083
59647SOL     OW80714  12.698   9.454   3.498
59647SOL    HW180715  12.648   9.445   3.416
59647SOL    HW280716  12.771   9.512   3.475
59648SOL     OW80717   2.602   4.508   1.396
59648SOL    HW180718   2.534   4.546   1.452
59648SOL    HW280719   2.672   4.573   1.395
59649SOL     OW80720   4.116   5.056   9.083
59649SOL    HW180721   4.125   5.111   9.160
59649SOL    HW280722   4.157   4.973   9.107
59650SOL     OW80723   8.434  10.943  10.021
59650SOL    HW180724   8.474  11.008  10.080
59650SOL    HW280725   8.413  10.992   9.942
59651SOL     OW80726  12.844   5.649   8.410
59651SOL    HW180727  12.867   5.606   8.328
59651SOL    HW280728  12.866   5.741   8.396
59652SOL     OW80729  14.581  14.810  11.562
59652SOL    HW180730  14.498  14.811  11.610
59652SOL    HW280731  14.607   0.024  11.557
59653SOL     OW80732  14.190   7.813  13.696
59653SOL    HW180733  14.168   7.731  13.653
59653SOL    HW280734  14.258   7.852  13.642
59654SOL     OW80735  13.089  10.806   8.579
59654SOL    HW180736  13.181  10.805   8.552
59654SOL    HW280737  13.074  10.896   8.608
59655SOL     OW80738   2.125  11.532   6.103
59655SOL    HW180739   2.138  11.611   6.050
59655SOL    HW280740   2.053  11.555   6.163
59656SOL     OW80741   9.919  10.530   5.204
59656SOL    HW180742   9.954  10.490   5.124
59656SOL    HW280743   9.840  10.576   5.175
59657SOL     OW80744   9.709   7.719   2.291
59657SOL    HW180745   9.780   7.782   2.276
59657SOL    HW280746   9.633   7.773   2.312
59658SOL     OW80747  12.510  11.234   2.670
59658SOL    HW180748  12.470  11.237   2.757
59658SOL    HW280749  12.497  11.143   2.641
59659SOL     OW80750  12.575  10.393  14.038
59659SOL    HW180751  12.657  10.355  14.068
59659SOL    HW280752  12.584  10.396  13.942
59660SOL     OW80753  10.917  11.575   0.056
59660SOL    HW180754  10.953  11.627  14.862
59660SOL    HW280755  10.831  11.548   0.025
59661SOL     OW80756  14.853   3.504   0.062
59661SOL    HW180757  14.786   3.471   0.121
59661SOL    HW280758  14.810   3.573   0.011
59662SOL     OW80759   2.153   0.187  14.163
59662SOL    HW180760   2.143   0.091  14.162
59662SOL    HW280761   2.112   0.216  14.082
59663SOL     OW80762  11.840   2.129  10.468
59663SOL    HW180763  11.827   2.107  10.375
59663SOL    HW280764  11.861   2.222  10.467
59664SOL     OW80765  11.713   5.131   2.657
59664SOL    HW180766  11.734   5.177   2.738
59664SOL    HW280767  11.770   5.054   2.658
59665SOL     OW80768   6.943   7.933  14.513
59665SOL    HW180769   7.018   7.951  14.570
59665SOL    HW280770   6.866   7.952  14.566
59666SOL     OW80771  14.241   5.895   9.949
59666SOL    HW180772  14.164   5.941   9.983
59666SOL    HW280773  14.205   5.819   9.903
59667SOL     OW80774   6.330  13.120  14.059
59667SOL    HW180775   6.317  13.026  14.070
59667SOL    HW280776   6.382  13.146  14.135
59668SOL     OW80777  12.418  14.645   2.174
59668SOL    HW180778  12.338  14.599   2.150
59668SOL    HW280779  12.488  14.599   2.128
59669SOL     OW80780   3.727  13.799   5.042
59669SOL    HW180781   3.746  13.709   5.068
59669SOL    HW280782   3.716  13.845   5.125
59670SOL     OW80783  14.634  14.864   0.127
59670SOL    HW180784  14.574  14.800   0.090
59670SOL    HW280785  14.601   0.071   0.096
59671SOL     OW80786   4.646  13.975   7.751
59671SOL    HW180787   4.695  14.010   7.825
59671SOL    HW280788   4.642  13.881   7.767
59672SOL     OW80789  11.038  12.124   5.073
59672SOL    HW180790  11.053  12.030   5.065
59672SOL    HW280791  10.965  12.142   5.014
59673SOL     OW80792   5.943   3.946  14.010
59673SOL    HW180793   5.985   4.024  14.046
59673SOL    HW280794   5.865   3.934  14.064
59674SOL     OW80795   8.178  11.074   7.243
59674SOL    HW180796   8.238  11.132   7.288
59674SOL    HW280797   8.165  11.000   7.303
59675SOL     OW80798   6.625  11.952   1.322
59675SOL    HW180799   6.709  11.909   1.339
59675SOL    HW280800   6.560  11.891   1.356
59676SOL     OW80801   0.934   7.431   4.721
59676SOL    HW180802   1.012   7.439   4.666
59676SOL    HW280803   0.946   7.350   4.769
59677SOL     OW80804   5.133   5.830   7.496
59677SOL    HW180805   5.084   5.898   7.449
59677SOL    HW280806   5.077   5.807   7.570
59678SOL     OW80807  10.833  11.612   2.111
59678SOL    HW180808  10.887  11.685   2.140
59678SOL    HW280809  10.889  11.535   2.122
59679SOL     OW80810   1.742   3.307  11.462
59679SOL    HW180811   1.730   3.225  11.415
59679SOL    HW280812   1.724   3.375  11.397
59680SOL     OW80813   8.574   3.167   9.509
59680SOL    HW180814   8.516   3.207   9.574
59680SOL    HW280815   8.516   3.113   9.456
59681SOL     OW80816   0.670  14.312   5.243
59681SOL    HW180817   0.601  14.338   5.182
59681SOL    HW280818   0.640  14.345   5.328
59682SOL     OW80819   3.194   7.505   6.096
59682SOL    HW180820   3.289   7.514   6.089
59682SOL    HW280821   3.181   7.438   6.163
59683SOL     OW80822   8.806   0.699   6.091
59683SOL    HW180823   8.828   0.785   6.054
59683SOL    HW280824   8.762   0.653   6.020
59684SOL     OW80825  10.788   1.485   8.869
59684SOL    HW180826  10.722   1.545   8.835
59684SOL    HW280827  10.763   1.399   8.835
59685SOL     OW80828   9.774   2.844   9.379
59685SOL    HW180829   9.863   2.809   9.376
59685SOL    HW280830   9.771   2.908   9.307
59686SOL     OW80831  12.365   1.218  12.377
59686SOL    HW180832  12.406   1.232  12.292
59686SOL    HW280833  12.388   1.296  12.427
59687SOL     OW80834  13.462  11.965   4.678
59687SOL    HW180835  13.369  11.973   4.657
59687SOL    HW280836  13.481  12.042   4.732
59688SOL     OW80837  11.242  11.104   0.364
59688SOL    HW180838  11.150  11.130   0.370
59688SOL    HW280839  11.247  11.021   0.411
59689SOL     OW80840   0.898  10.905  11.095
59689SOL    HW180841   0.912  10.810  11.101
59689SOL    HW280842   0.825  10.914  11.034
59690SOL     OW80843   4.647  14.049   8.497
59690SOL    HW180844   4.554  14.040   8.520
59690SOL    HW280845   4.671  13.964   8.461
59691SOL     OW80846   1.693   5.402   1.986
59691SOL    HW180847   1.696   5.354   1.903
59691SOL    HW280848   1.782   5.437   1.996
59692SOL     OW80849  11.969  12.868   2.458
59692SOL    HW180850  12.040  12.909   2.408
59692SOL    HW280851  11.994  12.775   2.464
59693SOL     OW80852   1.651   6.112   5.706
59693SOL    HW180853   1.615   6.048   5.768
59693SOL    HW280854   1.580   6.128   5.645
59694SOL     OW80855   8.213  10.304  12.281
59694SOL    HW180856   8.257  10.388  12.266
59694SOL    HW280857   8.177  10.311  12.370
59695SOL     OW80858   6.589   7.609  14.642
59695SOL    HW180859   6.633   7.667  14.704
59695SOL    HW280860   6.606   7.648  14.556
59696SOL     OW80861   2.972   8.397  13.969
59696SOL    HW180862   3.009   8.309  13.960
59696SOL    HW280863   2.904   8.401  13.901
59697SOL     OW80864   3.582   0.242   8.314
59697SOL    HW180865   3.546   0.289   8.388
59697SOL    HW280866   3.671   0.276   8.305
59698SOL     OW80867   4.878  13.530   8.607
59698SOL    HW180868   4.909  13.456   8.554
59698SOL    HW280869   4.940  13.601   8.588
59699SOL     OW80870   5.606   6.541   5.703
59699SOL    HW180871   5.617   6.619   5.648
59699SOL    HW280872   5.512   6.521   5.699
59700SOL     OW80873   4.564   6.562   0.196
59700SOL    HW180874   4.526   6.474   0.207
59700SOL    HW280875   4.636   6.548   0.135
59701SOL     OW80876   1.543   3.312   4.407
59701SOL    HW180877   1.487   3.321   4.329
59701SOL    HW280878   1.588   3.228   4.395
59702SOL     OW80879   3.478  13.741   5.594
59702SOL    HW180880   3.486  13.649   5.619
59702SOL    HW280881   3.414  13.778   5.655
59703SOL     OW80882   4.669  13.264   4.830
59703SOL    HW180883   4.578  13.259   4.859
59703SOL    HW280884   4.688  13.178   4.794
59704SOL     OW80885   4.970  10.692  11.563
59704SOL    HW180886   5.041  10.755  11.579
59704SOL    HW280887   5.012  10.618  11.520
59705SOL     OW80888  11.320  12.393   2.786
59705SOL    HW180889  11.349  12.412   2.875
59705SOL    HW280890  11.399  12.402   2.733
59706SOL     OW80891  13.413  14.324   2.420
59706SOL    HW180892  13.343  14.382   2.388
59706SOL    HW280893  13.409  14.248   2.362
59707SOL     OW80894   9.651   5.872   4.269
59707SOL    HW180895   9.604   5.923   4.203
59707SOL    HW280896   9.743   5.879   4.244
59708SOL     OW80897   6.863   5.424  12.187
59708SOL    HW180898   6.822   5.362  12.246
59708SOL    HW280899   6.908   5.486  12.244
59709SOL     OW80900  13.142   9.769   1.797
59709SOL    HW180901  13.236   9.754   1.801
59709SOL    HW280902  13.117   9.740   1.709
59710SOL     OW80903  13.973   7.027  10.998
59710SOL    HW180904  13.893   7.079  10.999
59710SOL    HW280905  13.959   6.958  11.063
59711SOL     OW80906  14.376  12.917  12.899
59711SOL    HW180907  14.326  12.941  12.977
59711SOL    HW280908  14.461  12.889  12.933
59712SOL     OW80909  14.090   4.675  11.328
59712SOL    HW180910  14.173   4.648  11.288
59712SOL    HW280911  14.062   4.598  11.377
59713SOL     OW80912   9.846   1.409  10.711
59713SOL    HW180913   9.794   1.355  10.771
59713SOL    HW280914   9.870   1.349  10.641
59714SOL     OW80915   3.610   7.535  10.716
59714SOL    HW180916   3.650   7.456  10.679
59714SOL    HW280917   3.678   7.572  10.773
59715SOL     OW80918  10.691  10.882   5.407
59715SOL    HW180919  10.757  10.947   5.432
59715SOL    HW280920  10.611  10.932   5.395
59716SOL     OW80921  13.298   3.581   6.538
59716SOL    HW180922  13.283   3.511   6.474
59716SOL    HW280923  13.274   3.661   6.493
59717SOL     OW80924  10.793   2.054   0.885
59717SOL    HW180925  10.766   1.991   0.953
59717SOL    HW280926  10.810   2.134   0.934
59718SOL     OW80927   7.356   5.864   5.626
59718SOL    HW180928   7.394   5.820   5.550
59718SOL    HW280929   7.343   5.954   5.597
59719SOL     OW80930   4.393  13.977   2.723
59719SOL    HW180931   4.419  13.963   2.632
59719SOL    HW280932   4.298  13.967   2.722
59720SOL     OW80933  13.102   1.829   0.687
59720SOL    HW180934  13.034   1.818   0.621
59720SOL    HW280935  13.070   1.780   0.763
59721SOL     OW80936   4.489   0.105  11.259
59721SOL    HW180937   4.580   0.123  11.234
59721SOL    HW280938   4.494   0.075  11.349
59722SOL     OW80939   2.531   5.962   9.884
59722SOL    HW180940   2.571   5.881   9.915
59722SOL    HW280941   2.578   6.031   9.931
59723SOL     OW80942   9.163   9.479   0.952
59723SOL    HW180943   9.234   9.522   0.998
59723SOL    HW280944   9.186   9.386   0.952
59724SOL     OW80945  10.459   3.816   0.077
59724SOL    HW180946  10.535   3.766   0.048
59724SOL    HW280947  10.386   3.755   0.070
59725SOL     OW80948   3.820  13.215  12.173
59725SOL    HW180949   3.853  13.168  12.250
59725SOL    HW280950   3.898  13.238  12.124
59726SOL     OW80951  10.520  10.643  11.886
59726SOL    HW180952  10.482  10.688  11.811
59726SOL    HW280953  10.449  10.588  11.920
59727SOL     OW80954   0.196   6.664  10.736
59727SOL    HW180955   0.246   6.701  10.809
59727SOL    HW280956   0.261   6.612  10.687
59728SOL     OW80957   5.873   8.225   1.151
59728SOL    HW180958   5.909   8.214   1.063
59728SOL    HW280959   5.878   8.319   1.167
59729SOL     OW80960  14.302  14.461   7.943
59729SOL    HW180961  14.297  14.506   7.859
59729SOL    HW280962  14.231  14.497   7.995
59730SOL     OW80963  12.687   5.474   2.328
59730SOL    HW180964  12.698   5.455   2.421
59730SOL    HW280965  12.771   5.448   2.288
59731SOL     OW80966  12.363   1.233   2.102
59731SOL    HW180967  12.440   1.252   2.049
59731SOL    HW280968  12.355   1.309   2.160
59732SOL     OW80969   4.265   6.486   0.103
59732SOL    HW180970   4.317   6.499   0.024
59732SOL    HW280971   4.317   6.425   0.155
59733SOL     OW80972   0.247   0.077   9.313
59733SOL    HW180973   0.275   0.130   9.388
59733SOL    HW280974   0.289  14.869   9.327
59734SOL     OW80975   2.090  13.559   7.950
59734SOL    HW180976   2.137  13.556   8.034
59734SOL    HW280977   2.050  13.472   7.942
59735SOL     OW80978   2.467   5.294   6.892
59735SOL    HW180979   2.385   5.280   6.939
59735SOL    HW280980   2.524   5.338   6.955
59736SOL     OW80981   8.257   6.538  10.314
59736SOL    HW180982   8.258   6.527  10.409
59736SOL    HW280983   8.337   6.588  10.295
59737SOL     OW80984  13.232   2.549   6.449
59737SOL    HW180985  13.205   2.628   6.403
59737SOL    HW280986  13.235   2.482   6.381
59738SOL     OW80987   4.748   5.178   4.588
59738SOL    HW180988   4.773   5.148   4.501
59738SOL    HW280989   4.654   5.193   4.582
59739SOL     OW80990   6.028  10.901   9.739
59739SOL    HW180991   6.064  10.948   9.814
59739SOL    HW280992   6.104  10.861   9.697
59740SOL     OW80993  10.480  12.319  10.697
59740SOL    HW180994  10.433  12.267  10.631
59740SOL    HW280995  10.562  12.270  10.710
59741SOL     OW80996   1.272   8.560  10.328
59741SOL    HW180997   1.314   8.623  10.386
59741SOL    HW280998   1.185   8.547  10.366
59742SOL     OW80999  11.687   4.085   0.942
59742SOL    HW181000  11.772   4.043   0.936
59742SOL    HW281001  11.688   4.128   1.028
59743SOL     OW81002   7.717   2.391   1.823
59743SOL    HW181003   7.771   2.329   1.873
59743SOL    HW281004   7.674   2.337   1.757
59744SOL     OW81005  14.568  11.457   3.837
59744SOL    HW181006  14.598  11.385   3.781
59744SOL    HW281007  14.640  11.519   3.837
59745SOL     OW81008  11.967   8.044   0.871
59745SOL    HW181009  11.956   8.015   0.961
59745SOL    HW281010  12.053   8.087   0.870
59746SOL     OW81011  13.855  14.201  11.868
59746SOL    HW181012  13.815  14.278  11.909
59746SOL    HW281013  13.785  14.135  11.867
59747SOL     OW81014   9.462  14.606   0.536
59747SOL    HW181015   9.423  14.596   0.623
59747SOL    HW281016   9.416  14.541   0.482
59748SOL     OW81017   0.357   3.972   5.994
59748SOL    HW181018   0.281   3.995   6.047
59748SOL    HW281019   0.320   3.932   5.915
59749SOL     OW81020   4.771   3.029  13.955
59749SOL    HW181021   4.827   3.082  13.898
59749SOL    HW281022   4.813   3.034  14.041
59750SOL     OW81023   2.001  10.141   8.806
59750SOL    HW181024   2.087  10.108   8.778
59750SOL    HW281025   1.996  10.118   8.899
59751SOL     OW81026   4.977   0.929   4.948
59751SOL    HW181027   5.017   0.961   4.867
59751SOL    HW281028   5.051   0.902   5.002
59752SOL     OW81029  12.233  12.168  12.835
59752SOL    HW181030  12.286  12.193  12.759
59752SOL    HW281031  12.294  12.172  12.908
59753SOL     OW81032   2.252  14.266  13.453
59753SOL    HW181033   2.269  14.236  13.364
59753SOL    HW281034   2.224  14.187  13.500
59754SOL     OW81035   0.599   0.296   1.280
59754SOL    HW181036   0.607   0.391   1.284
59754SOL    HW281037   0.680   0.264   1.320
59755SOL     OW81038   3.850   8.166   0.397
59755SOL    HW181039   3.885   8.101   0.337
59755SOL    HW281040   3.761   8.183   0.366
59756SOL     OW81041  14.744   2.650   4.970
59756SOL    HW181042  14.741   2.740   5.005
59756SOL    HW281043  14.707   2.596   5.040
59757SOL     OW81044   2.133   1.116  11.901
59757SOL    HW181045   2.166   1.164  11.825
59757SOL    HW281046   2.041   1.141  11.907
59758SOL     OW81047   4.952  12.836   2.405
59758SOL    HW181048   4.922  12.908   2.461
59758SOL    HW281049   4.930  12.757   2.453
59759SOL     OW81050   5.641   1.406   0.633
59759SOL    HW181051   5.547   1.410   0.647
59759SOL    HW281052   5.652   1.421   0.539
59760SOL     OW81053  14.067  13.594   9.567
59760SOL    HW181054  14.157  13.566   9.550
59760SOL    HW281055  14.058  13.677   9.520
59761SOL     OW81056  13.322   1.879  14.843
59761SOL    HW181057  13.341   1.829  14.764
59761SOL    HW281058  13.328   1.814   0.036
59762SOL     OW81059   7.482  12.641   8.788
59762SOL    HW181060   7.427  12.647   8.710
59762SOL    HW281061   7.430  12.588   8.849
59763SOL     OW81062   6.260   6.349   2.713
59763SOL    HW181063   6.324   6.347   2.785
59763SOL    HW281064   6.313   6.337   2.635
59764SOL     OW81065  14.191  14.321   2.320
59764SOL    HW181066  14.146  14.249   2.276
59764SOL    HW281067  14.209  14.384   2.250
59765SOL     OW81068   1.747  10.394  10.463
59765SOL    HW181069   1.798  10.412  10.385
59765SOL    HW281070   1.681  10.464  10.467
59766SOL     OW81071   7.808   5.317   5.840
59766SOL    HW181072   7.724   5.325   5.794
59766SOL    HW281073   7.873   5.308   5.771
59767SOL     OW81074   6.921   4.544   3.207
59767SOL    HW181075   6.903   4.476   3.271
59767SOL    HW281076   6.915   4.500   3.122
59768SOL     OW81077   2.597   3.166   0.271
59768SOL    HW181078   2.624   3.074   0.278
59768SOL    HW281079   2.664   3.206   0.216
59769SOL     OW81080   9.861  12.984   2.863
59769SOL    HW181081   9.884  12.918   2.797
59769SOL    HW281082   9.865  13.067   2.815
59770SOL     OW81083  12.869  13.688   1.882
59770SOL    HW181084  12.883  13.680   1.977
59770SOL    HW281085  12.806  13.618   1.862
59771SOL     OW81086  10.478  12.919   9.483
59771SOL    HW181087  10.502  12.912   9.576
59771SOL    HW281088  10.562  12.919   9.437
59772SOL     OW81089  10.964   5.002  13.272
59772SOL    HW181090  10.884   5.038  13.233
59772SOL    HW281091  10.947   4.908  13.277
59773SOL     OW81092   8.361   4.158   8.198
59773SOL    HW181093   8.295   4.156   8.267
59773SOL    HW281094   8.323   4.211   8.129
59774SOL     OW81095   4.082   2.401  10.768
59774SOL    HW181096   4.097   2.452  10.689
59774SOL    HW281097   4.097   2.310  10.741
59775SOL     OW81098   0.131   1.731  12.312
59775SOL    HW181099   0.152   1.653  12.364
59775SOL    HW281100   0.036   1.738  12.317
59776SOL     OW81101   9.856   8.579   7.890
59776SOL    HW181102   9.837   8.600   7.798
59776SOL    HW281103   9.772   8.584   7.934
59777SOL     OW81104   4.151   4.601   8.540
59777SOL    HW181105   4.141   4.568   8.629
59777SOL    HW281106   4.237   4.570   8.512
59778SOL     OW81107   2.266   8.277   9.011
59778SOL    HW181108   2.252   8.297   9.103
59778SOL    HW281109   2.217   8.196   8.997
59779SOL     OW81110   9.324   3.330   5.324
59779SOL    HW181111   9.292   3.291   5.243
59779SOL    HW281112   9.291   3.272   5.393
59780SOL     OW81113   2.633   3.783   8.296
59780SOL    HW181114   2.606   3.805   8.207
59780SOL    HW281115   2.638   3.867   8.341
59781SOL     OW81116  10.963  14.754   5.751
59781SOL    HW181117  10.959  14.708   5.835
59781SOL    HW281118  10.871  14.766   5.727
59782SOL     OW81119   4.280  11.524   1.004
59782SOL    HW181120   4.270  11.491   0.915
59782SOL    HW281121   4.323  11.609   0.994
59783SOL     OW81122   3.214   9.679   3.944
59783SOL    HW181123   3.151   9.610   3.967
59783SOL    HW281124   3.262   9.695   4.025
59784SOL     OW81125  12.129   5.948  13.670
59784SOL    HW181126  12.114   5.900  13.589
59784SOL    HW281127  12.074   6.026  13.663
59785SOL     OW81128   0.600   5.298   8.595
59785SOL    HW181129   0.571   5.380   8.554
59785SOL    HW281130   0.563   5.229   8.540
59786SOL     OW81131   5.539  11.821  10.780
59786SOL    HW181132   5.622  11.778  10.799
59786SOL    HW281133   5.493  11.823  10.864
59787SOL     OW81134   1.048  13.710   0.530
59787SOL    HW181135   1.100  13.728   0.452
59787SOL    HW281136   1.004  13.793   0.549
59788SOL     OW81137   7.514   1.947   3.776
59788SOL    HW181138   7.547   1.992   3.699
59788SOL    HW281139   7.477   1.865   3.741
59789SOL     OW81140   8.130  12.167   4.649
59789SOL    HW181141   8.151  12.248   4.601
59789SOL    HW281142   8.214  12.122   4.657
59790SOL     OW81143   1.366   1.471   7.450
59790SOL    HW181144   1.306   1.456   7.377
59790SOL    HW281145   1.423   1.395   7.451
59791SOL     OW81146  14.108   7.664   6.995
59791SOL    HW181147  14.143   7.605   7.061
59791SOL    HW281148  14.098   7.610   6.917
59792SOL     OW81149   5.768  14.486  13.460
59792SOL    HW181150   5.791  14.477  13.367
59792SOL    HW281151   5.769  14.580  13.476
59793SOL     OW81152   6.811   2.401   7.018
59793SOL    HW181153   6.781   2.454   7.092
59793SOL    HW281154   6.903   2.383   7.037
59794SOL     OW81155   2.288  14.367   5.141
59794SOL    HW181156   2.286  14.438   5.077
59794SOL    HW281157   2.207  14.377   5.190
59795SOL     OW81158  14.252  14.875   4.153
59795SOL    HW181159  14.174  14.821   4.162
59795SOL    HW281160  14.264   0.038   4.239
59796SOL     OW81161  10.641  12.307  13.543
59796SOL    HW181162  10.663  12.232  13.488
59796SOL    HW281163  10.554  12.288  13.578
59797SOL     OW81164   5.034   9.799   1.917
59797SOL    HW181165   5.036   9.730   1.852
59797SOL    HW281166   5.005   9.756   1.997
59798SOL     OW81167   6.424   6.793  13.935
59798SOL    HW181168   6.453   6.884  13.944
59798SOL    HW281169   6.470   6.761  13.858
59799SOL     OW81170   8.151   1.974  14.055
59799SOL    HW181171   8.074   1.923  14.079
59799SOL    HW281172   8.225   1.920  14.083
59800SOL     OW81173  12.196   3.057   1.116
59800SOL    HW181174  12.233   2.972   1.139
59800SOL    HW281175  12.112   3.060   1.162
59801SOL     OW81176  11.493   2.118  13.159
59801SOL    HW181177  11.480   2.154  13.072
59801SOL    HW281178  11.560   2.174  13.198
59802SOL     OW81179  10.705  13.738  14.802
59802SOL    HW181180  10.781  13.703  14.847
59802SOL    HW281181  10.651  13.776  14.871
59803SOL     OW81182   5.725   1.466   8.369
59803SOL    HW181183   5.818   1.471   8.348
59803SOL    HW281184   5.698   1.557   8.383
59804SOL     OW81185   0.767  10.628   1.889
59804SOL    HW181186   0.823  10.705   1.898
59804SOL    HW281187   0.826  10.561   1.853
59805SOL     OW81188   7.632  13.597   1.494
59805SOL    HW181189   7.600  13.682   1.463
59805SOL    HW281190   7.585  13.533   1.440
59806SOL     OW81191   4.674   0.832  13.146
59806SOL    HW181192   4.653   0.828  13.239
59806SOL    HW281193   4.637   0.751  13.110
59807SOL     OW81194  10.932   6.782   7.990
59807SOL    HW181195  10.837   6.774   7.996
59807SOL    HW281196  10.949   6.790   7.896
59808SOL     OW81197  13.598   5.364  12.327
59808SOL    HW181198  13.679   5.371  12.278
59808SOL    HW281199  13.625   5.339  12.416
59809SOL     OW81200   3.210  12.457  12.799
59809SOL    HW181201   3.127  12.409  12.793
59809SOL    HW281202   3.266  12.414  12.734
59810SOL     OW81203   0.666   3.803  13.273
59810SOL    HW181204   0.659   3.741  13.346
59810SOL    HW281205   0.605   3.768  13.207
59811SOL     OW81206   0.482  13.052   9.563
59811SOL    HW181207   0.469  12.970   9.514
59811SOL    HW281208   0.433  13.039   9.644
59812SOL     OW81209   4.146  12.313   0.781
59812SOL    HW181210   4.158  12.333   0.874
59812SOL    HW281211   4.229  12.335   0.740
59813SOL     OW81212  12.306   0.954   6.921
59813SOL    HW181213  12.370   0.915   6.861
59813SOL    HW281214  12.252   1.010   6.866
59814SOL     OW81215   4.022   3.756   6.203
59814SOL    HW181216   3.934   3.782   6.175
59814SOL    HW281217   4.032   3.793   6.290
59815SOL     OW81218   0.361   7.823   7.124
59815SOL    HW181219   0.371   7.741   7.174
59815SOL    HW281220   0.446   7.836   7.081
59816SOL     OW81221   6.923   6.080  12.357
59816SOL    HW181222   6.863   6.122  12.419
59816SOL    HW281223   7.003   6.132  12.362
59817SOL     OW81224   2.798   8.029  12.536
59817SOL    HW181225   2.890   8.005  12.539
59817SOL    HW281226   2.752   7.952  12.570
59818SOL     OW81227   3.549   5.010   9.581
59818SOL    HW181228   3.516   5.067   9.511
59818SOL    HW281229   3.605   4.947   9.535
59819SOL     OW81230  10.682  10.868  12.336
59819SOL    HW181231  10.668  10.833  12.248
59819SOL    HW281232  10.761  10.923  12.328
59820SOL     OW81233   5.630  13.911   4.973
59820SOL    HW181234   5.661  13.940   5.059
59820SOL    HW281235   5.584  13.829   4.990
59821SOL     OW81236   4.891   2.916   2.006
59821SOL    HW181237   4.957   2.899   2.074
59821SOL    HW281238   4.899   3.010   1.989
59822SOL     OW81239   5.715   3.124   4.996
59822SOL    HW181240   5.784   3.161   5.051
59822SOL    HW281241   5.669   3.061   5.053
59823SOL     OW81242   3.080   9.358   8.181
59823SOL    HW181243   2.985   9.347   8.186
59823SOL    HW281244   3.114   9.314   8.259
59824SOL     OW81245  14.066   6.403   6.161
59824SOL    HW181246  14.157   6.433   6.171
59824SOL    HW281247  14.037   6.385   6.250
59825SOL     OW81248   8.114  14.472   3.027
59825SOL    HW181249   8.176  14.545   3.034
59825SOL    HW281250   8.169  14.394   3.033
59826SOL     OW81251   2.165   1.375   4.417
59826SOL    HW181252   2.238   1.330   4.459
59826SOL    HW281253   2.177   1.467   4.440
59827SOL     OW81254   0.061   3.898  13.599
59827SOL    HW181255   0.049   3.989  13.573
59827SOL    HW281256  14.850   3.860  13.595
59828SOL     OW81257  11.526  14.707   0.113
59828SOL    HW181258  11.480  14.727   0.194
59828SOL    HW281259  11.618  14.728   0.132
59829SOL     OW81260  11.334   5.609   0.209
59829SOL    HW181261  11.261   5.607   0.148
59829SOL    HW281262  11.331   5.524   0.253
59830SOL     OW81263   3.662   8.564   0.923
59830SOL    HW181264   3.700   8.635   0.975
59830SOL    HW281265   3.629   8.607   0.844
59831SOL     OW81266  12.393   2.903  14.106
59831SOL    HW181267  12.407   2.983  14.157
59831SOL    HW281268  12.301   2.882  14.118
59832SOL     OW81269  13.505   6.938   2.296
59832SOL    HW181270  13.511   6.925   2.202
59832SOL    HW281271  13.555   6.866   2.334
59833SOL     OW81272   9.051  10.835  12.487
59833SOL    HW181273   9.014  10.867  12.570
59833SOL    HW281274   9.022  10.899  12.422
59834SOL     OW81275   7.752   0.954   1.308
59834SOL    HW181276   7.831   1.002   1.332
59834SOL    HW281277   7.772   0.863   1.328
59835SOL     OW81278   7.569   1.207   3.107
59835SOL    HW181279   7.530   1.194   3.194
59835SOL    HW281280   7.534   1.291   3.078
59836SOL     OW81281   3.654  11.260   3.922
59836SOL    HW181282   3.744  11.248   3.953
59836SOL    HW281283   3.604  11.190   3.966
59837SOL     OW81284   5.796  14.587  11.384
59837SOL    HW181285   5.723  14.627  11.431
59837SOL    HW281286   5.869  14.592  11.445
59838SOL     OW81287  13.888  11.744  11.579
59838SOL    HW181288  13.982  11.751  11.563
59838SOL    HW281289  13.867  11.818  11.635
59839SOL     OW81290  12.609  12.565   6.423
59839SOL    HW181291  12.618  12.481   6.468
59839SOL    HW281292  12.692  12.576   6.377
59840SOL     OW81293  11.313   3.585   5.715
59840SOL    HW181294  11.263   3.504   5.717
59840SOL    HW281295  11.248   3.653   5.732
59841SOL     OW81296   8.540  11.880   3.029
59841SOL    HW181297   8.538  11.953   3.091
59841SOL    HW281298   8.448  11.860   3.013
59842SOL     OW81299   9.234   6.956   6.597
59842SOL    HW181300   9.178   6.961   6.520
59842SOL    HW281301   9.296   7.028   6.586
59843SOL     OW81302  14.693   1.171   8.182
59843SOL    HW181303  14.676   1.078   8.170
59843SOL    HW281304  14.744   1.197   8.105
59844SOL     OW81305   7.912  14.759   0.275
59844SOL    HW181306   7.961  14.679   0.294
59844SOL    HW281307   7.968  14.807   0.213
59845SOL     OW81308  12.323  14.600   5.110
59845SOL    HW181309  12.299  14.680   5.156
59845SOL    HW281310  12.396  14.564   5.161
59846SOL     OW81311   0.199   6.697   1.203
59846SOL    HW181312   0.113   6.732   1.226
59846SOL    HW281313   0.197   6.606   1.233
59847SOL     OW81314   0.073  11.068  11.425
59847SOL    HW181315   0.014  11.066  11.350
59847SOL    HW281316   0.043  10.996  11.481
59848SOL     OW81317   9.836   0.704   1.559
59848SOL    HW181318   9.926   0.730   1.575
59848SOL    HW281319   9.785   0.748   1.627
59849SOL     OW81320   9.801   5.528   3.587
59849SOL    HW181321   9.809   5.455   3.525
59849SOL    HW281322   9.823   5.491   3.672
59850SOL     OW81323   7.919   4.591  10.252
59850SOL    HW181324   8.015   4.592  10.257
59850SOL    HW281325   7.897   4.674  10.209
59851SOL     OW81326   9.877   7.327   6.400
59851SOL    HW181327   9.937   7.280   6.343
59851SOL    HW281328   9.923   7.407   6.424
59852SOL     OW81329   8.135   3.333  11.000
59852SOL    HW181330   8.086   3.412  10.979
59852SOL    HW281331   8.154   3.293  10.916
59853SOL     OW81332   8.659   7.758   8.772
59853SOL    HW181333   8.655   7.664   8.753
59853SOL    HW281334   8.628   7.765   8.863
59854SOL     OW81335   7.131   4.596   5.965
59854SOL    HW181336   7.108   4.540   5.890
59854SOL    HW281337   7.069   4.668   5.961
59855SOL     OW81338   8.270  13.158   2.030
59855SOL    HW181339   8.230  13.172   1.945
59855SOL    HW281340   8.242  13.233   2.083
59856SOL     OW81341   1.945   3.076   6.644
59856SOL    HW181342   1.983   2.993   6.615
59856SOL    HW281343   1.942   3.130   6.565
59857SOL     OW81344  10.662  13.949   7.448
59857SOL    HW181345  10.567  13.937   7.455
59857SOL    HW281346  10.680  13.944   7.354
59858SOL     OW81347   4.601  11.506   8.050
59858SOL    HW181348   4.643  11.549   7.975
59858SOL    HW281349   4.541  11.442   8.010
59859SOL     OW81350   6.996   4.266   2.384
59859SOL    HW181351   6.931   4.332   2.408
59859SOL    HW281352   7.073   4.316   2.358
59860SOL     OW81353  13.524   5.591   5.829
59860SOL    HW181354  13.462   5.663   5.821
59860SOL    HW281355  13.591   5.610   5.764
59861SOL     OW81356   8.648  13.964   1.462
59861SOL    HW181357   8.721  14.016   1.430
59861SOL    HW281358   8.636  13.896   1.396
59862SOL     OW81359   5.060  12.887   7.085
59862SOL    HW181360   5.121  12.946   7.129
59862SOL    HW281361   5.048  12.815   7.146
59863SOL     OW81362   5.501   4.515   6.021
59863SOL    HW181363   5.504   4.542   6.113
59863SOL    HW281364   5.592   4.510   5.995
59864SOL     OW81365   2.548   5.310   2.469
59864SOL    HW181366   2.533   5.293   2.376
59864SOL    HW281367   2.638   5.342   2.474
59865SOL     OW81368   7.287   9.359  10.371
59865SOL    HW181369   7.200   9.327  10.347
59865SOL    HW281370   7.337   9.358  10.290
59866SOL     OW81371   5.199   3.384   3.321
59866SOL    HW181372   5.219   3.477   3.324
59866SOL    HW281373   5.113   3.379   3.280
59867SOL     OW81374  12.360   0.078   7.097
59867SOL    HW181375  12.412   0.013   7.050
59867SOL    HW281376  12.424   0.140   7.131
59868SOL     OW81377   7.287   9.838  10.227
59868SOL    HW181378   7.316   9.779  10.297
59868SOL    HW281379   7.249   9.913  10.273
59869SOL     OW81380   5.197  14.277   4.299
59869SOL    HW181381   5.139  14.349   4.321
59869SOL    HW281382   5.244  14.307   4.221
59870SOL     OW81383  13.656  10.076   0.948
59870SOL    HW181384  13.642  10.092   1.041
59870SOL    HW281385  13.592  10.133   0.905
59871SOL     OW81386  11.276   7.349   9.519
59871SOL    HW181387  11.300   7.283   9.585
59871SOL    HW281388  11.203   7.396   9.558
59872SOL     OW81389   5.852   7.217   6.121
59872SOL    HW181390   5.904   7.138   6.138
59872SOL    HW281391   5.781   7.187   6.064
59873SOL     OW81392  12.240   6.297   2.601
59873SOL    HW181393  12.285   6.378   2.622
59873SOL    HW281394  12.301   6.248   2.546
59874SOL     OW81395  14.644   7.868  12.243
59874SOL    HW181396  14.610   7.789  12.201
59874SOL    HW281397  14.571   7.900  12.297
59875SOL     OW81398   8.768  10.136   5.660
59875SOL    HW181399   8.795  10.058   5.610
59875SOL    HW281400   8.850  10.177   5.686
59876SOL     OW81401  12.470   5.963  12.286
59876SOL    HW181402  12.555   5.933  12.318
59876SOL    HW281403  12.464   5.927  12.197
59877SOL     OW81404   2.041  14.496   1.248
59877SOL    HW181405   2.064  14.486   1.156
59877SOL    HW281406   2.070  14.415   1.289
59878SOL     OW81407   9.968   3.691   9.315
59878SOL    HW181408   9.902   3.755   9.288
59878SOL    HW281409   9.917   3.617   9.350
59879SOL     OW81410   3.068   9.960   0.990
59879SOL    HW181411   3.092   9.896   0.922
59879SOL    HW281412   3.090  10.045   0.951
59880SOL     OW81413   6.844   8.525   7.865
59880SOL    HW181414   6.830   8.447   7.811
59880SOL    HW281415   6.911   8.574   7.817
59881SOL     OW81416  12.238  11.507   2.134
59881SOL    HW181417  12.291  11.510   2.055
59881SOL    HW281418  12.162  11.562   2.115
59882SOL     OW81419  12.075   6.391   9.053
59882SOL    HW181420  12.093   6.368   8.962
59882SOL    HW281421  12.158   6.428   9.085
59883SOL     OW81422   0.520   3.124  11.674
59883SOL    HW181423   0.568   3.108  11.593
59883SOL    HW281424   0.519   3.219  11.683
59884SOL     OW81425   4.245   8.706   8.099
59884SOL    HW181426   4.204   8.787   8.132
59884SOL    HW281427   4.219   8.639   8.162
59885SOL     OW81428   5.856  10.231   9.697
59885SOL    HW181429   5.909  10.161   9.735
59885SOL    HW281430   5.767  10.210   9.724
59886SOL     OW81431  11.341   3.936   4.561
59886SOL    HW181432  11.256   3.949   4.520
59886SOL    HW281433  11.325   3.872   4.631
59887SOL     OW81434   0.832   9.782  13.502
59887SOL    HW181435   0.756   9.730  13.476
59887SOL    HW281436   0.869   9.813  13.419
59888SOL     OW81437   0.025  13.816   1.019
59888SOL    HW181438   0.114  13.782   1.008
59888SOL    HW281439   0.031  13.909   0.994
59889SOL     OW81440   2.361   1.459  13.912
59889SOL    HW181441   2.363   1.368  13.883
59889SOL    HW281442   2.394   1.509  13.837
59890SOL     OW81443   6.103  12.143  12.659
59890SOL    HW181444   6.008  12.138  12.653
59890SOL    HW281445   6.124  12.230  12.626
59891SOL     OW81446   6.089   9.534  14.113
59891SOL    HW181447   5.996   9.554  14.108
59891SOL    HW281448   6.108   9.534  14.207
59892SOL     OW81449   8.177  13.694  13.318
59892SOL    HW181450   8.106  13.645  13.278
59892SOL    HW281451   8.137  13.776  13.346
59893SOL     OW81452  12.558   0.414  10.712
59893SOL    HW181453  12.652   0.433  10.723
59893SOL    HW281454  12.545   0.333  10.761
59894SOL     OW81455  10.627  11.325   6.663
59894SOL    HW181456  10.647  11.415   6.637
59894SOL    HW281457  10.567  11.334   6.737
59895SOL     OW81458   1.330  13.598   4.178
59895SOL    HW181459   1.417  13.598   4.138
59895SOL    HW281460   1.275  13.649   4.118
59896SOL     OW81461  11.871   4.550   6.760
59896SOL    HW181462  11.952   4.535   6.808
59896SOL    HW281463  11.846   4.463   6.728
59897SOL     OW81464   3.909   6.928  14.261
59897SOL    HW181465   3.817   6.942  14.238
59897SOL    HW281466   3.916   6.835  14.278
59898SOL     OW81467   2.600  12.509   8.099
59898SOL    HW181468   2.693  12.515   8.077
59898SOL    HW281469   2.586  12.416   8.118
59899SOL     OW81470  14.041   2.100   0.697
59899SOL    HW181471  14.027   2.068   0.786
59899SOL    HW281472  13.953   2.105   0.659
59900SOL     OW81473   6.059   0.329   3.411
59900SOL    HW181474   6.088   0.269   3.343
59900SOL    HW281475   5.982   0.372   3.373
59901SOL     OW81476   5.888   5.929   2.822
59901SOL    HW181477   5.833   5.999   2.859
59901SOL    HW281478   5.899   5.867   2.894
59902SOL     OW81479   9.734   8.945   3.078
59902SOL    HW181480   9.786   9.015   3.038
59902SOL    HW281481   9.687   8.988   3.149
59903SOL     OW81482   7.846   5.702  10.541
59903SOL    HW181483   7.792   5.759  10.486
59903SOL    HW281484   7.934   5.709  10.503
59904SOL     OW81485   3.757  12.415  14.133
59904SOL    HW181486   3.762  12.484  14.200
59904SOL    HW281487   3.673  12.430  14.090
59905SOL     OW81488   0.196  12.513   2.907
59905SOL    HW181489   0.103  12.510   2.932
59905SOL    HW281490   0.240  12.548   2.985
59906SOL     OW81491   9.201  10.456  13.932
59906SOL    HW181492   9.226  10.419  13.847
59906SOL    HW281493   9.156  10.384  13.977
59907SOL     OW81494  11.625   3.370   8.155
59907SOL    HW181495  11.570   3.295   8.133
59907SOL    HW281496  11.657   3.402   8.070
59908SOL     OW81497   6.113   4.487   5.299
59908SOL    HW181498   6.094   4.454   5.212
59908SOL    HW281499   6.141   4.410   5.349
59909SOL     OW81500  12.486   6.964   1.442
59909SOL    HW181501  12.528   7.017   1.373
59909SOL    HW281502  12.538   6.982   1.520
59910SOL     OW81503  11.522   2.001   1.759
59910SOL    HW181504  11.542   1.908   1.768
59910SOL    HW281505  11.531   2.019   1.665
59911SOL     OW81506  12.574   2.351   4.730
59911SOL    HW181507  12.603   2.261   4.745
59911SOL    HW281508  12.505   2.342   4.664
59912SOL     OW81509  10.174  11.159  12.467
59912SOL    HW181510  10.231  11.235  12.458
59912SOL    HW281511  10.159  11.150  12.561
59913SOL     OW81512   1.693  10.866   4.255
59913SOL    HW181513   1.699  10.904   4.343
59913SOL    HW281514   1.632  10.793   4.264
59914SOL     OW81515   5.487   3.908  11.975
59914SOL    HW181516   5.471   3.822  12.015
59914SOL    HW281517   5.429   3.910  11.899
59915SOL     OW81518   1.909   9.426  13.154
59915SOL    HW181519   1.980   9.403  13.093
59915SOL    HW281520   1.893   9.346  13.203
59916SOL     OW81521  14.617  11.157  10.494
59916SOL    HW181522  14.620  11.252  10.499
59916SOL    HW281523  14.671  11.128  10.568
59917SOL     OW81524   1.856  12.683  14.170
59917SOL    HW181525   1.841  12.764  14.218
59917SOL    HW281526   1.852  12.709  14.078
59918SOL     OW81527   3.908  10.767  14.514
59918SOL    HW181528   3.930  10.855  14.544
59918SOL    HW281529   3.902  10.715  14.595
59919SOL     OW81530   1.184   4.998  13.032
59919SOL    HW181531   1.245   4.940  13.077
59919SOL    HW281532   1.143   4.943  12.965
59920SOL     OW81533   6.095   9.964   0.908
59920SOL    HW181534   6.063   9.923   0.827
59920SOL    HW281535   6.122   9.890   0.963
59921SOL     OW81536   5.431   7.113   1.431
59921SOL    HW181537   5.454   7.169   1.357
59921SOL    HW281538   5.447   7.024   1.399
59922SOL     OW81539  14.761   7.673   6.138
59922SOL    HW181540  14.732   7.761   6.112
59922SOL    HW281541  14.736   7.617   6.065
59923SOL     OW81542   2.299   4.930  13.044
59923SOL    HW181543   2.274   4.855  12.990
59923SOL    HW281544   2.373   4.899  13.095
59924SOL     OW81545   5.597   7.361   4.267
59924SOL    HW181546   5.662   7.423   4.301
59924SOL    HW281547   5.527   7.417   4.231
59925SOL     OW81548   0.700  14.503  12.915
59925SOL    HW181549   0.702  14.419  12.868
59925SOL    HW281550   0.671  14.566  12.849
59926SOL     OW81551  12.160   7.558   2.408
59926SOL    HW181552  12.115   7.502   2.472
59926SOL    HW281553  12.248   7.567   2.443
59927SOL     OW81554   1.363   9.535  13.458
59927SOL    HW181555   1.287   9.503  13.409
59927SOL    HW281556   1.358   9.630  13.447
59928SOL     OW81557   9.571   5.397  13.895
59928SOL    HW181558   9.495   5.365  13.847
59928SOL    HW281559   9.541   5.408  13.985
59929SOL     OW81560   5.205   0.254   0.060
59929SOL    HW181561   5.233   0.201   0.134
59929SOL    HW281562   5.194   0.192  14.866
59930SOL     OW81563  12.942  12.636   3.515
59930SOL    HW181564  12.989  12.564   3.556
59930SOL    HW281565  13.008  12.683   3.465
59931SOL     OW81566   9.858   5.574   2.388
59931SOL    HW181567   9.766   5.596   2.371
59931SOL    HW281568   9.855   5.485   2.423
59932SOL     OW81569   0.649   6.462   5.235
59932SOL    HW181570   0.572   6.423   5.192
59932SOL    HW281571   0.643   6.555   5.213
59933SOL     OW81572   7.104   1.935  10.037
59933SOL    HW181573   7.151   1.868   9.987
59933SOL    HW281574   7.172   1.996  10.064
59934SOL     OW81575  13.390   6.039   4.410
59934SOL    HW181576  13.423   5.950   4.396
59934SOL    HW281577  13.295   6.032   4.397
59935SOL     OW81578   5.838  13.727  10.094
59935SOL    HW181579   5.762  13.777  10.124
59935SOL    HW281580   5.870  13.683  10.172
59936SOL     OW81581   0.019   8.627   2.479
59936SOL    HW181582   0.049   8.710   2.443
59936SOL    HW281583   0.095   8.570   2.475
59937SOL     OW81584   1.793   2.979  13.637
59937SOL    HW181585   1.823   3.049  13.578
59937SOL    HW281586   1.782   2.903  13.581
59938SOL     OW81587   0.545   2.274  13.016
59938SOL    HW181588   0.616   2.215  13.043
59938SOL    HW281589   0.471   2.216  13.001
59939SOL     OW81590   7.617  14.266  11.692
59939SOL    HW181591   7.652  14.354  11.704
59939SOL    HW281592   7.586  14.264  11.602
59940SOL     OW81593   6.855  14.745  11.172
59940SOL    HW181594   6.860  14.834  11.138
59940SOL    HW281595   6.789  14.750  11.241
59941SOL     OW81596   4.927   8.682   2.369
59941SOL    HW181597   4.983   8.605   2.375
59941SOL    HW281598   4.841   8.648   2.346
59942SOL     OW81599  11.598   3.317   9.109
59942SOL    HW181600  11.687   3.348   9.122
59942SOL    HW281601  11.547   3.362   9.176
59943SOL     OW81602   6.671   6.434   6.738
59943SOL    HW181603   6.727   6.386   6.676
59943SOL    HW281604   6.606   6.370   6.766
59944SOL     OW81605  13.645   7.103   6.328
59944SOL    HW181606  13.619   7.054   6.250
59944SOL    HW281607  13.734   7.072   6.348
59945SOL     OW81608   6.380   2.816   9.582
59945SOL    HW181609   6.428   2.876   9.525
59945SOL    HW281610   6.393   2.730   9.542
59946SOL     OW81611  10.733  10.924  10.642
59946SOL    HW181612  10.704  11.010  10.672
59946SOL    HW281613  10.678  10.862  10.690
59947SOL     OW81614   7.730  11.461  13.448
59947SOL    HW181615   7.690  11.517  13.514
59947SOL    HW281616   7.673  11.468  13.372
59948SOL     OW81617  11.190  14.056  13.912
59948SOL    HW181618  11.277  14.059  13.871
59948SOL    HW281619  11.193  13.978  13.968
59949SOL     OW81620   3.904  11.872   8.556
59949SOL    HW181621   3.906  11.795   8.612
59949SOL    HW281622   3.868  11.942   8.612
59950SOL     OW81623   2.769   1.634   0.177
59950SOL    HW181624   2.736   1.557   0.222
59950SOL    HW281625   2.859   1.644   0.208
59951SOL     OW81626  14.466   7.278   2.377
59951SOL    HW181627  14.400   7.320   2.322
59951SOL    HW281628  14.509   7.215   2.320
59952SOL     OW81629  13.228   2.815   1.460
59952SOL    HW181630  13.134   2.828   1.468
59952SOL    HW281631  13.263   2.901   1.439
59953SOL     OW81632  14.129   2.787   0.590
59953SOL    HW181633  14.149   2.700   0.556
59953SOL    HW281634  14.203   2.841   0.565
59954SOL     OW81635   4.670   6.574  14.460
59954SOL    HW181636   4.578   6.549  14.458
59954SOL    HW281637   4.715   6.501  14.416
59955SOL     OW81638   8.847   8.866   4.207
59955SOL    HW181639   8.854   8.852   4.113
59955SOL    HW281640   8.779   8.933   4.216
59956SOL     OW81641   0.019  14.420   9.798
59956SOL    HW181642   0.026  14.412   9.702
59956SOL    HW281643  14.803  14.435   9.814
59957SOL     OW81644   2.236  11.792   4.956
59957SOL    HW181645   2.283  11.740   5.021
59957SOL    HW281646   2.303  11.849   4.918
59958SOL     OW81647   4.103  14.465   7.433
59958SOL    HW181648   4.068  14.428   7.514
59958SOL    HW281649   4.080  14.558   7.438
59959SOL     OW81650  12.678  10.738   1.694
59959SOL    HW181651  12.629  10.661   1.722
59959SOL    HW281652  12.642  10.759   1.608
59960SOL     OW81653   9.639  14.353   9.609
59960SOL    HW181654   9.703  14.387   9.548
59960SOL    HW281655   9.568  14.319   9.554
59961SOL     OW81656   7.959   5.911   8.428
59961SOL    HW181657   7.955   5.944   8.518
59961SOL    HW281658   8.023   5.967   8.384
59962SOL     OW81659   5.112   8.933  11.356
59962SOL    HW181660   5.065   8.854  11.328
59962SOL    HW281661   5.055   9.005  11.330
59963SOL     OW81662  11.274   7.573  14.149
59963SOL    HW181663  11.366   7.594  14.132
59963SOL    HW281664  11.277   7.512  14.223
59964SOL     OW81665  11.481  11.599   4.639
59964SOL    HW181666  11.423  11.642   4.702
59964SOL    HW281667  11.428  11.590   4.560
59965SOL     OW81668   5.297   1.256  11.050
59965SOL    HW181669   5.293   1.207  11.133
59965SOL    HW281670   5.206   1.277  11.030
59966SOL     OW81671   0.979  11.476   1.148
59966SOL    HW181672   1.074  11.470   1.139
59966SOL    HW281673   0.945  11.407   1.092
59967SOL     OW81674   0.548  11.239  13.606
59967SOL    HW181675   0.455  11.251  13.585
59967SOL    HW281676   0.552  11.247  13.702
59968SOL     OW81677   8.990   0.020   2.472
59968SOL    HW181678   9.029   0.069   2.400
59968SOL    HW281679   8.908   0.067   2.491
59969SOL     OW81680   3.850   0.081   3.001
59969SOL    HW181681   3.837   0.102   2.908
59969SOL    HW281682   3.790   0.008   3.016
59970SOL     OW81683   0.954  10.727  14.410
59970SOL    HW181684   0.868  10.724  14.453
59970SOL    HW281685   0.945  10.666  14.337
59971SOL     OW81686   5.093  10.952  12.787
59971SOL    HW181687   5.087  10.868  12.833
59971SOL    HW281688   5.031  11.009  12.831
59972SOL     OW81689  10.217  12.751   3.576
59972SOL    HW181690  10.286  12.756   3.642
59972SOL    HW281691  10.214  12.839   3.538
59973SOL     OW81692   0.373   2.565   6.315
59973SOL    HW181693   0.431   2.524   6.251
59973SOL    HW281694   0.321   2.492   6.349
59974SOL     OW81695  14.027  12.598  13.606
59974SOL    HW181696  14.120  12.621  13.607
59974SOL    HW281697  13.981  12.679  13.586
59975SOL     OW81698   9.650  11.493   1.475
59975SOL    HW181699   9.737  11.525   1.500
59975SOL    HW281700   9.620  11.444   1.551
59976SOL     OW81701   1.622   5.920  14.511
59976SOL    HW181702   1.675   5.996  14.490
59976SOL    HW281703   1.591   5.936  14.601
59977SOL     OW81704   4.532   3.850   1.782
59977SOL    HW181705   4.538   3.756   1.797
59977SOL    HW281706   4.592   3.889   1.845
59978SOL     OW81707  13.613   3.018  12.233
59978SOL    HW181708  13.661   3.080  12.179
59978SOL    HW281709  13.602   2.941  12.177
59979SOL     OW81710   6.374   8.036   2.432
59979SOL    HW181711   6.330   7.957   2.404
59979SOL    HW281712   6.451   8.043   2.375
59980SOL     OW81713  12.878   9.801   1.125
59980SOL    HW181714  12.877   9.796   1.220
59980SOL    HW281715  12.809   9.865   1.104
59981SOL     OW81716   4.972   6.955  10.846
59981SOL    HW181717   4.915   6.885  10.877
59981SOL    HW281718   4.956   6.960  10.752
59982SOL     OW81719  14.483  11.587   5.054
59982SOL    HW181720  14.539  11.524   5.009
59982SOL    HW281721  14.418  11.534   5.100
59983SOL     OW81722   1.510   7.211  13.742
59983SOL    HW181723   1.516   7.207  13.647
59983SOL    HW281724   1.418   7.232  13.759
59984SOL     OW81725   2.457  11.663  14.304
59984SOL    HW181726   2.402  11.659  14.226
59984SOL    HW281727   2.417  11.601  14.365
59985SOL     OW81728   3.359   7.739   6.627
59985SOL    HW181729   3.383   7.688   6.704
59985SOL    HW281730   3.433   7.799   6.614
59986SOL     OW81731   7.169   1.327   0.893
59986SOL    HW181732   7.174   1.231   0.894
59986SOL    HW281733   7.154   1.350   0.802
59987SOL     OW81734   2.609   6.429   9.966
59987SOL    HW181735   2.564   6.344   9.959
59987SOL    HW281736   2.575   6.468  10.046
59988SOL     OW81737  10.435  12.125   2.594
59988SOL    HW181738  10.380  12.107   2.517
59988SOL    HW281739  10.381  12.097   2.668
59989SOL     OW81740   6.815  13.582   0.849
59989SOL    HW181741   6.738  13.525   0.850
59989SOL    HW281742   6.846  13.579   0.758
59990SOL     OW81743   7.328  11.975   5.697
59990SOL    HW181744   7.239  11.984   5.731
59990SOL    HW281745   7.348  11.882   5.708
59991SOL     OW81746   4.671   1.349   5.137
59991SOL    HW181747   4.714   1.270   5.104
59991SOL    HW281748   4.631   1.322   5.220
59992SOL     OW81749   0.869   3.485   1.750
59992SOL    HW181750   0.902   3.504   1.662
59992SOL    HW281751   0.912   3.550   1.805
59993SOL     OW81752   2.535   5.664  10.266
59993SOL    HW181753   2.563   5.687  10.177
59993SOL    HW281754   2.587   5.721  10.323
59994SOL     OW81755   6.090   2.711  11.840
59994SOL    HW181756   6.045   2.695  11.756
59994SOL    HW281757   6.145   2.787  11.823
59995SOL     OW81758  11.440   3.114  12.705
59995SOL    HW181759  11.425   3.035  12.756
59995SOL    HW281760  11.354   3.156  12.698
59996SOL     OW81761   8.253  11.855   2.976
59996SOL    HW181762   8.213  11.770   2.995
59996SOL    HW281763   8.187  11.919   3.002
59997SOL     OW81764  11.714   7.875   5.131
59997SOL    HW181765  11.682   7.787   5.110
59997SOL    HW281766  11.798   7.860   5.175
59998SOL     OW81767   7.593  12.096   5.754
59998SOL    HW181768   7.646  12.030   5.799
59998SOL    HW281769   7.502  12.073   5.777
59999SOL     OW81770   6.655   2.527   7.978
59999SOL    HW181771   6.712   2.495   8.047
59999SOL    HW281772   6.570   2.486   7.997
60000SOL     OW81773  11.425  12.179   2.230
60000SOL    HW181774  11.331  12.174   2.213
60000SOL    HW281775  11.443  12.105   2.287
60001SOL     OW81776   5.498  13.741  12.335
60001SOL    HW181777   5.426  13.727  12.398
60001SOL    HW281778   5.455  13.774  12.257
60002SOL     OW81779  14.340   1.162   1.166
60002SOL    HW181780  14.271   1.228   1.164
60002SOL    HW281781  14.341   1.126   1.078
60003SOL     OW81782   6.578  13.679   2.082
60003SOL    HW181783   6.526  13.696   2.003
60003SOL    HW281784   6.517  13.636   2.142
60004SOL     OW81785   8.240   6.974  10.152
60004SOL    HW181786   8.321   7.023  10.165
60004SOL    HW281787   8.258   6.916  10.079
60005SOL     OW81788   8.800   4.733   9.474
60005SOL    HW181789   8.877   4.782   9.445
60005SOL    HW281790   8.811   4.646   9.436
60006SOL     OW81791   3.885  12.258   1.524
60006SOL    HW181792   3.947  12.317   1.481
60006SOL    HW281793   3.867  12.300   1.609
60007SOL     OW81794   3.823  13.154   7.281
60007SOL    HW181795   3.745  13.161   7.336
60007SOL    HW281796   3.805  13.213   7.207
60008SOL     OW81797   1.237   5.473  13.952
60008SOL    HW181798   1.147   5.444  13.935
60008SOL    HW281799   1.244   5.475  14.047
60009SOL     OW81800   4.431  13.567   5.003
60009SOL    HW181801   4.520  13.549   5.033
60009SOL    HW281802   4.381  13.489   5.029
60010SOL     OW81803  10.568   6.932   1.015
60010SOL    HW181804  10.494   6.885   0.974
60010SOL    HW281805  10.624   6.956   0.941
60011SOL     OW81806  10.431   4.543  12.827
60011SOL    HW181807  10.434   4.614  12.891
60011SOL    HW281808  10.402   4.466  12.877
60012SOL     OW81809   0.166   2.223  10.119
60012SOL    HW181810   0.160   2.318  10.115
60012SOL    HW281811   0.076   2.193  10.128
60013SOL     OW81812   4.026  12.113   2.613
60013SOL    HW181813   4.100  12.077   2.663
60013SOL    HW281814   4.003  12.194   2.658
60014SOL     OW81815  13.532   6.246   6.610
60014SOL    HW181816  13.571   6.325   6.571
60014SOL    HW281817  13.605   6.204   6.656
60015SOL     OW81818   7.629   7.481   4.886
60015SOL    HW181819   7.548   7.530   4.882
60015SOL    HW281820   7.685   7.520   4.819
60016SOL     OW81821   9.194   3.977   8.577
60016SOL    HW181822   9.283   3.966   8.610
60016SOL    HW281823   9.168   3.889   8.547
60017SOL     OW81824   5.375   7.113  12.674
60017SOL    HW181825   5.402   7.204  12.680
60017SOL    HW281826   5.407   7.073  12.755
60018SOL     OW81827   1.698  12.871   3.932
60018SOL    HW181828   1.740  12.921   3.863
60018SOL    HW281829   1.722  12.780   3.913
60019SOL     OW81830   2.174  11.648   8.097
60019SOL    HW181831   2.117  11.571   8.106
60019SOL    HW281832   2.262  11.611   8.088
60020SOL     OW81833  14.576  12.144   5.417
60020SOL    HW181834  14.642  12.194   5.464
60020SOL    HW281835  14.504  12.206   5.402
60021SOL     OW81836   7.622   3.295  10.546
60021SOL    HW181837   7.596   3.249  10.467
60021SOL    HW281838   7.540   3.311  10.593
60022SOL     OW81839  11.134  12.404   9.435
60022SOL    HW181840  11.054  12.357   9.411
60022SOL    HW281841  11.103  12.487   9.471
60023SOL     OW81842  12.446  12.101  13.020
60023SOL    HW181843  12.531  12.109  12.977
60023SOL    HW281844  12.455  12.153  13.100
60024SOL     OW81845   0.923  13.672   6.070
60024SOL    HW181846   0.994  13.726   6.105
60024SOL    HW281847   0.967  13.597   6.029
60025SOL     OW81848   1.682   0.978  13.194
60025SOL    HW181849   1.682   0.902  13.137
60025SOL    HW281850   1.590   0.993  13.216
60026SOL     OW81851  11.794   6.268   9.373
60026SOL    HW181852  11.730   6.201   9.395
60026SOL    HW281853  11.797   6.325   9.450
60027SOL     OW81854  11.503   7.013   4.588
60027SOL    HW181855  11.420   7.061   4.589
60027SOL    HW281856  11.490   6.941   4.649
60028SOL     OW81857   9.333   1.208   6.654
60028SOL    HW181858   9.241   1.231   6.647
60028SOL    HW281859   9.345   1.137   6.590
60029SOL     OW81860   5.988  12.910   2.503
60029SOL    HW181861   6.023  12.996   2.525
60029SOL    HW281862   5.908  12.928   2.453
60030SOL     OW81863   1.872   1.353   7.423
60030SOL    HW181864   1.898   1.261   7.435
60030SOL    HW281865   1.935   1.403   7.475
60031SOL     OW81866   7.411  12.722  11.410
60031SOL    HW181867   7.316  12.715  11.414
60031SOL    HW281868   7.438  12.648  11.355
60032SOL     OW81869  10.096   1.613   7.923
60032SOL    HW181870  10.079   1.610   8.017
60032SOL    HW281871  10.156   1.541   7.907
60033SOL     OW81872   5.441  12.435   3.555
60033SOL    HW181873   5.392  12.516   3.570
60033SOL    HW281874   5.451  12.430   3.460
60034SOL     OW81875  12.678   4.249   3.274
60034SOL    HW181876  12.694   4.156   3.260
60034SOL    HW281877  12.743   4.275   3.339
60035SOL     OW81878   7.420   2.616   6.709
60035SOL    HW181879   7.440   2.589   6.799
60035SOL    HW281880   7.500   2.659   6.679
60036SOL     OW81881   5.237   7.220   0.961
60036SOL    HW181882   5.217   7.254   1.048
60036SOL    HW281883   5.185   7.275   0.902
60037SOL     OW81884  13.639   2.919   2.867
60037SOL    HW181885  13.551   2.883   2.859
60037SOL    HW281886  13.659   2.953   2.780
60038SOL     OW81887   7.820   2.128   9.431
60038SOL    HW181888   7.795   2.185   9.358
60038SOL    HW281889   7.874   2.060   9.391
60039SOL     OW81890   2.409   4.695   9.454
60039SOL    HW181891   2.378   4.649   9.376
60039SOL    HW281892   2.381   4.786   9.442
60040SOL     OW81893   2.661   8.351   8.650
60040SOL    HW181894   2.680   8.267   8.609
60040SOL    HW281895   2.568   8.346   8.672
60041SOL     OW81896  11.424   8.511  14.382
60041SOL    HW181897  11.368   8.573  14.429
60041SOL    HW281898  11.364   8.459  14.330
60042SOL     OW81899   7.674  10.651   7.654
60042SOL    HW181900   7.745  10.587   7.658
60042SOL    HW281901   7.712  10.727   7.610
60043SOL     OW81902  14.455  10.728   5.925
60043SOL    HW181903  14.448  10.646   5.875
60043SOL    HW281904  14.522  10.710   5.990
60044SOL     OW81905   8.782   6.399   4.082
60044SOL    HW181906   8.747   6.436   4.001
60044SOL    HW281907   8.856   6.455   4.104
60045SOL     OW81908  14.575  13.298   4.503
60045SOL    HW181909  14.530  13.373   4.465
60045SOL    HW281910  14.665  13.327   4.515
60046SOL     OW81911   0.475   2.300   2.380
60046SOL    HW181912   0.531   2.330   2.452
60046SOL    HW281913   0.511   2.215   2.355
60047SOL     OW81914   2.993   5.871   3.945
60047SOL    HW181915   3.068   5.907   3.898
60047SOL    HW281916   2.940   5.947   3.968
60048SOL     OW81917  13.647   8.133  11.459
60048SOL    HW181918  13.570   8.183  11.431
60048SOL    HW281919  13.630   8.044  11.430
60049SOL     OW81920   2.394   4.910  11.712
60049SOL    HW181921   2.310   4.942  11.743
60049SOL    HW281922   2.380   4.817  11.696
60050SOL     OW81923   3.929   7.559   0.674
60050SOL    HW181924   3.899   7.648   0.657
60050SOL    HW281925   3.916   7.547   0.768
60051SOL     OW81926   1.324   1.866   0.024
60051SOL    HW181927   1.254   1.904   0.077
60051SOL    HW281928   1.372   1.942  14.866
60052SOL     OW81929   7.108   2.637   7.639
60052SOL    HW181930   7.137   2.716   7.595
60052SOL    HW281931   7.020   2.621   7.604
60053SOL     OW81932  10.730  11.599  13.540
60053SOL    HW181933  10.790  11.552  13.482
60053SOL    HW281934  10.676  11.652  13.482
60054SOL     OW81935   7.045   3.260   3.497
60054SOL    HW181936   7.121   3.205   3.513
60054SOL    HW281937   7.077   3.328   3.437
60055SOL     OW81938   4.946   8.658   2.028
60055SOL    HW181939   4.955   8.748   1.997
60055SOL    HW281940   5.036   8.627   2.037
60056SOL     OW81941   1.364   5.406   8.004
60056SOL    HW181942   1.393   5.407   8.095
60056SOL    HW281943   1.285   5.352   8.004
60057SOL     OW81944   3.487   7.920   5.000
60057SOL    HW181945   3.445   7.987   4.945
60057SOL    HW281946   3.454   7.838   4.965
60058SOL     OW81947   6.351   9.836  14.139
60058SOL    HW181948   6.379   9.755  14.181
60058SOL    HW281949   6.372   9.904  14.202
60059SOL     OW81950   4.297   3.896  10.861
60059SOL    HW181951   4.301   3.956  10.935
60059SOL    HW281952   4.319   3.951  10.785
60060SOL     OW81953  12.388   9.833  11.200
60060SOL    HW181954  12.297   9.836  11.229
60060SOL    HW281955  12.439   9.838  11.281
60061SOL     OW81956   3.009  13.837  13.203
60061SOL    HW181957   3.073  13.802  13.266
60061SOL    HW281958   2.966  13.908  13.250
60062SOL     OW81959  10.149  12.367   6.223
60062SOL    HW181960  10.122  12.324   6.142
60062SOL    HW281961  10.068  12.397   6.264
60063SOL     OW81962  11.962  13.599   7.938
60063SOL    HW181963  11.957  13.689   7.905
60063SOL    HW281964  11.873  13.579   7.967
60064SOL     OW81965   1.027   7.950   5.305
60064SOL    HW181966   1.049   7.869   5.258
60064SOL    HW281967   0.980   8.002   5.240
60065SOL     OW81968  14.718  11.830   4.317
60065SOL    HW181969  14.715  11.844   4.223
60065SOL    HW281970  14.706  11.735   4.327
60066SOL     OW81971   0.087   2.201   7.274
60066SOL    HW181972   0.109   2.110   7.255
60066SOL    HW281973   0.066   2.239   7.188
60067SOL     OW81974   9.794  11.217  12.094
60067SOL    HW181975   9.847  11.247  12.168
60067SOL    HW281976   9.792  11.292  12.034
60068SOL     OW81977  14.568   8.248   1.907
60068SOL    HW181978  14.498   8.240   1.972
60068SOL    HW281979  14.635   8.186   1.937
60069SOL     OW81980  13.723  14.023   7.098
60069SOL    HW181981  13.749  13.933   7.117
60069SOL    HW281982  13.753  14.039   7.009
60070SOL     OW81983  12.366   3.094   2.815
60070SOL    HW181984  12.377   3.058   2.903
60070SOL    HW281985  12.421   3.039   2.759
60071SOL     OW81986   1.661   3.671   9.184
60071SOL    HW181987   1.606   3.598   9.214
60071SOL    HW281988   1.620   3.749   9.221
60072SOL     OW81989  11.538  12.210   8.893
60072SOL    HW181990  11.519  12.236   8.983
60072SOL    HW281991  11.456  12.225   8.845
60073SOL     OW81992  11.224   7.187   5.222
60073SOL    HW181993  11.157   7.138   5.269
60073SOL    HW281994  11.306   7.166   5.267
60074SOL     OW81995  13.150   2.417   5.601
60074SOL    HW181996  13.142   2.329   5.563
60074SOL    HW281997  13.131   2.404   5.693
60075SOL     OW81998   1.476   1.716   1.660
60075SOL    HW181999   1.551   1.674   1.619
60075SOL    HW282000   1.514   1.777   1.724
60076SOL     OW82001   6.003  11.083   4.296
60076SOL    HW182002   5.991  11.043   4.382
60076SOL    HW282003   6.020  11.010   4.237
60077SOL     OW82004  12.579  14.676   7.247
60077SOL    HW182005  12.608  14.585   7.240
60077SOL    HW282006  12.555  14.700   7.158
60078SOL     OW82007   1.594   4.588  11.355
60078SOL    HW182008   1.669   4.528  11.348
60078SOL    HW282009   1.570   4.585  11.448
60079SOL     OW82010  12.905  10.977  12.421
60079SOL    HW182011  12.975  11.035  12.451
60079SOL    HW282012  12.934  10.889  12.448
60080SOL     OW82013  13.781  13.053   4.900
60080SOL    HW182014  13.774  13.026   4.991
60080SOL    HW282015  13.729  13.133   4.894
60081SOL     OW82016   3.739   5.361   0.558
60081SOL    HW182017   3.772   5.413   0.484
60081SOL    HW282018   3.653   5.398   0.576
60082SOL     OW82019   0.351   6.479  12.447
60082SOL    HW182020   0.326   6.394  12.411
60082SOL    HW282021   0.327   6.475  12.539
60083SOL     OW82022   6.178  11.554  12.554
60083SOL    HW182023   6.210  11.465  12.568
60083SOL    HW282024   6.125  11.548  12.475
60084SOL     OW82025   9.893   7.626  12.784
60084SOL    HW182026   9.860   7.615  12.695
60084SOL    HW282027   9.907   7.537  12.816
60085SOL     OW82028  10.261   4.144  13.853
60085SOL    HW182029  10.323   4.189  13.797
60085SOL    HW282030  10.295   4.054  13.859
60086SOL     OW82031   1.728   2.013   2.415
60086SOL    HW182032   1.822   1.996   2.404
60086SOL    HW282033   1.698   2.039   2.327
60087SOL     OW82034  13.245   8.450  12.447
60087SOL    HW182035  13.189   8.482  12.518
60087SOL    HW282036  13.328   8.496  12.459
60088SOL     OW82037   5.007   4.937   9.368
60088SOL    HW182038   5.041   4.937   9.279
60088SOL    HW282039   5.085   4.927   9.424
60089SOL     OW82040  12.857   7.263   2.760
60089SOL    HW182041  12.818   7.340   2.800
60089SOL    HW282042  12.798   7.191   2.783
60090SOL     OW82043   7.890  12.016   5.226
60090SOL    HW182044   7.846  11.938   5.259
60090SOL    HW282045   7.828  12.056   5.166
60091SOL     OW82046  10.065   1.274   9.213
60091SOL    HW182047  10.082   1.369   9.214
60091SOL    HW282048  10.067   1.251   9.120
60092SOL     OW82049   2.216   9.076  14.419
60092SOL    HW182050   2.195   9.136  14.348
60092SOL    HW282051   2.214   8.989  14.378
60093SOL     OW82052   0.785   5.638  11.582
60093SOL    HW182053   0.713   5.576  11.568
60093SOL    HW282054   0.802   5.634  11.676
60094SOL     OW82055   7.416   0.231   2.529
60094SOL    HW182056   7.419   0.257   2.621
60094SOL    HW282057   7.353   0.290   2.489
60095SOL     OW82058  10.765  12.232   7.439
60095SOL    HW182059  10.802  12.298   7.381
60095SOL    HW282060  10.706  12.280   7.496
60096SOL     OW82061   0.279   4.964   2.825
60096SOL    HW182062   0.343   4.902   2.791
60096SOL    HW282063   0.324   5.005   2.899
60097SOL     OW82064  12.480   2.991   3.741
60097SOL    HW182065  12.513   3.041   3.816
60097SOL    HW282066  12.385   2.994   3.751
60098SOL     OW82067   1.529   8.930  13.321
60098SOL    HW182068   1.472   8.898  13.391
60098SOL    HW282069   1.614   8.888  13.339
60099SOL     OW82070   2.768   2.950   3.256
60099SOL    HW182071   2.712   2.879   3.226
60099SOL    HW282072   2.848   2.941   3.204
60100SOL     OW82073  10.161  13.286   4.617
60100SOL    HW182074  10.176  13.363   4.671
60100SOL    HW282075  10.152  13.213   4.679
60101SOL     OW82076  14.307   8.636  12.055
60101SOL    HW182077  14.365   8.611  11.983
60101SOL    HW282078  14.304   8.559  12.112
60102SOL     OW82079   3.192  12.872   4.619
60102SOL    HW182080   3.207  12.913   4.704
60102SOL    HW282081   3.177  12.946   4.559
60103SOL     OW82082   7.559   8.205   6.976
60103SOL    HW182083   7.557   8.193   6.881
60103SOL    HW282084   7.528   8.294   6.989
60104SOL     OW82085   8.230   2.703   5.950
60104SOL    HW182086   8.265   2.644   5.882
60104SOL    HW282087   8.273   2.787   5.933
60105SOL     OW82088  12.765  14.272  10.776
60105SOL    HW182089  12.688  14.214  10.781
60105SOL    HW282090  12.759  14.327  10.854
60106SOL     OW82091   7.104   4.791  12.355
60106SOL    HW182092   7.125   4.726  12.422
60106SOL    HW282093   7.112   4.876  12.400
60107SOL     OW82094   6.566  12.257  14.483
60107SOL    HW182095   6.645  12.261  14.537
60107SOL    HW282096   6.537  12.166  14.489
60108SOL     OW82097   1.486   8.193   9.243
60108SOL    HW182098   1.410   8.201   9.186
60108SOL    HW282099   1.546   8.262   9.213
60109SOL     OW82100   0.679  10.573   7.879
60109SOL    HW182101   0.652  10.663   7.863
60109SOL    HW282102   0.652  10.526   7.799
60110SOL     OW82103   8.908   3.188   4.440
60110SOL    HW182104   8.989   3.157   4.400
60110SOL    HW282105   8.922   3.281   4.456
60111SOL     OW82106  14.273  11.534   8.771
60111SOL    HW182107  14.223  11.460   8.737
60111SOL    HW282108  14.241  11.545   8.861
60112SOL     OW82109   3.447   6.273   7.887
60112SOL    HW182110   3.383   6.314   7.828
60112SOL    HW282111   3.434   6.317   7.971
60113SOL     OW82112   1.238   1.349   5.617
60113SOL    HW182113   1.316   1.294   5.615
60113SOL    HW282114   1.193   1.323   5.698
60114SOL     OW82115   0.297   3.034   5.947
60114SOL    HW182116   0.352   3.065   5.876
60114SOL    HW282117   0.320   3.089   6.021
60115SOL     OW82118   4.394   9.498  14.783
60115SOL    HW182119   4.403   9.546  14.865
60115SOL    HW282120   4.477   9.451  14.773
60116SOL     OW82121  13.085   1.685   3.396
60116SOL    HW182122  13.056   1.706   3.484
60116SOL    HW282123  13.034   1.743   3.339
60117SOL     OW82124   9.942   7.775   5.925
60117SOL    HW182125   9.896   7.707   5.975
60117SOL    HW282126   9.906   7.857   5.959
60118SOL     OW82127   8.696  10.887   3.812
60118SOL    HW182128   8.713  10.953   3.745
60118SOL    HW282129   8.641  10.822   3.768
60119SOL     OW82130   8.099   6.638   8.560
60119SOL    HW182131   8.102   6.699   8.634
60119SOL    HW282132   8.010   6.648   8.525
60120SOL     OW82133   2.900   8.883   1.048
60120SOL    HW182134   2.828   8.820   1.046
60120SOL    HW282135   2.923   8.891   1.141
60121SOL     OW82136  14.839  12.986   7.211
60121SOL    HW182137  14.789  12.908   7.189
60121SOL    HW282138   0.020  12.958   7.282
60122SOL     OW82139   3.099   2.464   7.544
60122SOL    HW182140   3.031   2.411   7.503
60122SOL    HW282141   3.179   2.442   7.496
60123SOL     OW82142   5.946   6.497   1.267
60123SOL    HW182143   5.857   6.527   1.287
60123SOL    HW282144   5.957   6.418   1.320
60124SOL     OW82145  10.116   1.205  13.080
60124SOL    HW182146  10.183   1.251  13.131
60124SOL    HW282147  10.163   1.135  13.035
60125SOL     OW82148   8.025   1.790   6.000
60125SOL    HW182149   8.104   1.743   5.973
60125SOL    HW282150   7.954   1.743   5.958
60126SOL     OW82151  14.465  14.564  10.602
60126SOL    HW182152  14.397  14.596  10.661
60126SOL    HW282153  14.508  14.494  10.650
60127SOL     OW82154   7.239   6.985   2.707
60127SOL    HW182155   7.276   7.064   2.745
60127SOL    HW282156   7.290   6.914   2.746
60128SOL     OW82157   4.010  10.331  12.964
60128SOL    HW182158   4.031  10.238  12.949
60128SOL    HW282159   3.965  10.358  12.884
60129SOL     OW82160   7.425   8.480  13.262
60129SOL    HW182161   7.472   8.452  13.341
60129SOL    HW282162   7.347   8.425  13.260
60130SOL     OW82163   2.071   3.202   9.015
60130SOL    HW182164   1.997   3.181   8.958
60130SOL    HW282165   2.120   3.269   8.968
60131SOL     OW82166  13.640   2.960   7.442
60131SOL    HW182167  13.594   2.988   7.362
60131SOL    HW282168  13.709   3.025   7.454
60132SOL     OW82169  14.756   4.851   7.118
60132SOL    HW182170  14.769   4.843   7.023
60132SOL    HW282171  14.737   4.944   7.132
60133SOL     OW82172  13.712  13.562  10.900
60133SOL    HW182173  13.797  13.606  10.890
60133SOL    HW282174  13.694  13.524  10.814
60134SOL     OW82175   4.216   7.202  13.320
60134SOL    HW182176   4.195   7.195  13.413
60134SOL    HW282177   4.130   7.202  13.277
60135SOL     OW82178   5.213   1.836   0.542
60135SOL    HW182179   5.162   1.882   0.475
60135SOL    HW282180   5.268   1.904   0.581
60136SOL     OW82181  11.763  13.897   0.678
60136SOL    HW182182  11.774  13.841   0.601
60136SOL    HW282183  11.773  13.986   0.643
60137SOL     OW82184   0.406   4.967   9.319
60137SOL    HW182185   0.316   4.994   9.335
60137SOL    HW282186   0.456   5.008   9.389
60138SOL     OW82187   4.567  12.234   2.912
60138SOL    HW182188   4.577  12.312   2.968
60138SOL    HW282189   4.649  12.187   2.921
60139SOL     OW82190   6.280   9.490   3.435
60139SOL    HW182191   6.261   9.397   3.450
60139SOL    HW282192   6.359   9.507   3.486
60140SOL     OW82193   2.344   8.464   9.993
60140SOL    HW182194   2.287   8.527  10.038
60140SOL    HW282195   2.371   8.509   9.913
60141SOL     OW82196  11.649   2.951  12.025
60141SOL    HW182197  11.630   2.988  12.111
60141SOL    HW282198  11.577   2.979  11.970
60142SOL     OW82199   0.593   8.298  12.907
60142SOL    HW182200   0.650   8.287  12.830
60142SOL    HW282201   0.565   8.390  12.903
60143SOL     OW82202   3.638   5.337   3.299
60143SOL    HW182203   3.631   5.370   3.209
60143SOL    HW282204   3.701   5.396   3.341
60144SOL     OW82205  11.785   0.835  10.848
60144SOL    HW182206  11.843   0.862  10.919
60144SOL    HW282207  11.697   0.842  10.886
60145SOL     OW82208   1.749   4.088   9.096
60145SOL    HW182209   1.791   4.027   9.156
60145SOL    HW282210   1.784   4.065   9.010
60146SOL     OW82211  12.056  13.784   3.428
60146SOL    HW182212  12.038  13.830   3.510
60146SOL    HW282213  11.971  13.776   3.386
60147SOL     OW82214   3.876   7.874   9.456
60147SOL    HW182215   3.803   7.866   9.395
60147SOL    HW282216   3.893   7.784   9.484
60148SOL     OW82217   7.710   4.091   5.543
60148SOL    HW182218   7.761   4.169   5.567
60148SOL    HW282219   7.639   4.125   5.489
60149SOL     OW82220   0.828   4.701   4.063
60149SOL    HW182221   0.881   4.779   4.046
60149SOL    HW282222   0.890   4.628   4.058
60150SOL     OW82223   4.923   4.016   2.456
60150SOL    HW182224   4.899   3.943   2.400
60150SOL    HW282225   5.018   4.011   2.464
60151SOL     OW82226   2.945   5.774   7.948
60151SOL    HW182227   3.031   5.773   7.989
60151SOL    HW282228   2.913   5.684   7.954
60152SOL     OW82229   0.801  11.279   6.804
60152SOL    HW182230   0.860  11.350   6.832
60152SOL    HW282231   0.719  11.323   6.782
60153SOL     OW82232   9.612   1.669   4.188
60153SOL    HW182233   9.524   1.647   4.220
60153SOL    HW282234   9.611   1.765   4.183
60154SOL     OW82235   0.013  11.569  11.342
60154SOL    HW182236  14.798  11.549  11.361
60154SOL    HW282237   0.010  11.635  11.273
60155SOL     OW82238   2.957   9.632  10.529
60155SOL    HW182239   3.014   9.704  10.554
60155SOL    HW282240   2.995   9.598  10.448
60156SOL     OW82241   5.292   2.799   3.019
60156SOL    HW182242   5.244   2.755   2.949
60156SOL    HW282243   5.374   2.749   3.027
60157SOL     OW82244   2.982   1.151  14.867
60157SOL    HW182245   3.037   1.134  14.791
60157SOL    HW282246   3.001   1.078   0.049
60158SOL     OW82247   3.189  13.864   1.312
60158SOL    HW182248   3.228  13.885   1.227
60158SOL    HW282249   3.232  13.783   1.338
60159SOL     OW82250   0.877   8.305   2.848
60159SOL    HW182251   0.912   8.394   2.844
60159SOL    HW282252   0.855   8.283   2.757
60160SOL     OW82253   7.252   7.485   7.270
60160SOL    HW182254   7.339   7.459   7.300
60160SOL    HW282255   7.233   7.424   7.199
60161SOL     OW82256  14.837   7.036  10.731
60161SOL    HW182257  14.848   7.100  10.801
60161SOL    HW282258  14.813   7.088  10.654
60162SOL     OW82259   9.888   9.820   4.334
60162SOL    HW182260   9.892   9.914   4.314
60162SOL    HW282261   9.891   9.777   4.249
60163SOL     OW82262   3.609  13.739  11.317
60163SOL    HW182263   3.528  13.732  11.367
60163SOL    HW282264   3.655  13.657  11.333
60164SOL     OW82265   0.408   2.128   6.910
60164SOL    HW182266   0.432   2.100   6.998
60164SOL    HW282267   0.378   2.048   6.866
60165SOL     OW82268  12.076  14.873  11.688
60165SOL    HW182269  12.164  14.848  11.660
60165SOL    HW282270  12.083   0.088  11.710
60166SOL     OW82271   1.055  13.350  12.135
60166SOL    HW182272   1.150  13.348  12.146
60166SOL    HW282273   1.030  13.257  12.131
60167SOL     OW82274  11.218   1.539   9.949
60167SOL    HW182275  11.179   1.466   9.997
60167SOL    HW282276  11.311   1.536   9.972
60168SOL     OW82277   1.236  13.694   7.068
60168SOL    HW182278   1.253  13.768   7.127
60168SOL    HW282279   1.323  13.664   7.042
60169SOL     OW82280   2.844   8.902   4.430
60169SOL    HW182281   2.880   8.969   4.489
60169SOL    HW282282   2.858   8.820   4.477
60170SOL     OW82283  13.683   4.860   5.771
60170SOL    HW182284  13.662   4.953   5.768
60170SOL    HW282285  13.678   4.837   5.864
60171SOL     OW82286   8.982   9.225  12.219
60171SOL    HW182287   9.052   9.222  12.155
60171SOL    HW282288   9.005   9.158  12.283
60172SOL     OW82289  10.073   2.735   4.598
60172SOL    HW182290   9.992   2.745   4.549
60172SOL    HW282291  10.050   2.679   4.672
60173SOL     OW82292  10.628  12.386   6.680
60173SOL    HW182293  10.635  12.329   6.756
60173SOL    HW282294  10.719  12.406   6.656
60174SOL     OW82295   5.730   5.775  10.609
60174SOL    HW182296   5.814   5.791  10.651
60174SOL    HW282297   5.746   5.699  10.552
60175SOL     OW82298  11.589   2.928   1.844
60175SOL    HW182299  11.678   2.899   1.864
60175SOL    HW282300  11.556   2.965   1.926
60176SOL     OW82301   9.968   9.525  12.350
60176SOL    HW182302  10.011   9.557  12.271
60176SOL    HW282303   9.886   9.487  12.319
60177SOL     OW82304   5.518   5.092   2.849
60177SOL    HW182305   5.583   5.085   2.779
60177SOL    HW282306   5.561   5.144   2.916
60178SOL     OW82307   4.728   0.824   3.785
60178SOL    HW182308   4.821   0.838   3.799
60178SOL    HW282309   4.715   0.841   3.692
60179SOL     OW82310   4.797   2.984  11.374
60179SOL    HW182311   4.744   2.950  11.447
60179SOL    HW282312   4.807   2.909  11.316
60180SOL     OW82313   9.260  13.033   2.875
60180SOL    HW182314   9.342  12.992   2.901
60180SOL    HW282315   9.203  13.024   2.952
60181SOL     OW82316  10.539   1.738  10.127
60181SOL    HW182317  10.507   1.817  10.084
60181SOL    HW282318  10.611   1.708  10.072
60182SOL     OW82319   9.464   6.365  10.733
60182SOL    HW182320   9.500   6.374  10.644
60182SOL    HW282321   9.398   6.296  10.725
60183SOL     OW82322  14.759   3.635   5.210
60183SOL    HW182323  14.713   3.659   5.129
60183SOL    HW282324  14.794   3.718   5.242
60184SOL     OW82325  14.519   8.914   5.375
60184SOL    HW182326  14.520   8.855   5.300
60184SOL    HW282327  14.460   8.985   5.349
60185SOL     OW82328  10.601   8.067  12.710
60185SOL    HW182329  10.507   8.072  12.690
60185SOL    HW282330  10.613   8.122  12.787
60186SOL     OW82331  13.487   6.729   9.359
60186SOL    HW182332  13.436   6.739   9.439
60186SOL    HW282333  13.496   6.818   9.324
60187SOL     OW82334   8.330   8.609  14.425
60187SOL    HW182335   8.256   8.645  14.473
60187SOL    HW282336   8.403   8.611  14.487
60188SOL     OW82337   9.249   9.858   2.888
60188SOL    HW182338   9.185   9.793   2.916
60188SOL    HW282339   9.224   9.938   2.935
60189SOL     OW82340   0.907  11.624   0.727
60189SOL    HW182341   0.985  11.633   0.782
60189SOL    HW282342   0.937  11.578   0.649
60190SOL     OW82343   2.062   5.053   8.718
60190SOL    HW182344   2.089   5.079   8.630
60190SOL    HW282345   2.143   5.051   8.769
60191SOL     OW82346  13.236  11.978   9.014
60191SOL    HW182347  13.312  12.018   9.058
60191SOL    HW282348  13.247  12.001   8.922
60192SOL     OW82349   5.492   5.916   8.788
60192SOL    HW182350   5.499   5.889   8.697
60192SOL    HW282351   5.443   5.998   8.785
60193SOL     OW82352   5.208  11.061  12.554
60193SOL    HW182353   5.191  11.017  12.637
60193SOL    HW282354   5.241  11.147  12.578
60194SOL     OW82355   5.951   6.459  10.762
60194SOL    HW182356   5.885   6.398  10.728
60194SOL    HW282357   6.000   6.486  10.684
60195SOL     OW82358  11.565  13.625   4.473
60195SOL    HW182359  11.502  13.607   4.542
60195SOL    HW282360  11.542  13.564   4.402
60196SOL     OW82361  10.382  10.601  11.625
60196SOL    HW182362  10.472  10.570  11.625
60196SOL    HW282363  10.336  10.541  11.683
60197SOL     OW82364   3.071   8.813   7.088
60197SOL    HW182365   3.142   8.829   7.150
60197SOL    HW282366   3.077   8.719   7.068
60198SOL     OW82367   3.323  13.369   2.755
60198SOL    HW182368   3.401  13.394   2.804
60198SOL    HW282369   3.350  13.293   2.704
60199SOL     OW82370  13.807   1.665   3.207
60199SOL    HW182371  13.713   1.676   3.217
60199SOL    HW282372  13.819   1.571   3.195
60200SOL     OW82373   4.746  14.624   8.435
60200SOL    HW182374   4.761  14.532   8.417
60200SOL    HW282375   4.681  14.651   8.369
60201SOL     OW82376  12.868   9.570   7.588
60201SOL    HW182377  12.865   9.626   7.666
60201SOL    HW282378  12.930   9.501   7.610
60202SOL     OW82379  11.181   3.459   3.879
60202SOL    HW182380  11.123   3.517   3.829
60202SOL    HW282381  11.267   3.501   3.873
60203SOL     OW82382   3.253   2.269  13.288
60203SOL    HW182383   3.169   2.247  13.328
60203SOL    HW282384   3.318   2.233  13.349
60204SOL     OW82385   0.255   3.497   0.010
60204SOL    HW182386   0.173   3.531  14.853
60204SOL    HW282387   0.323   3.540  14.834
60205SOL     OW82388   2.699   0.462  14.235
60205SOL    HW182389   2.665   0.546  14.206
60205SOL    HW282390   2.701   0.408  14.156
60206SOL     OW82391  13.075   8.542  12.605
60206SOL    HW182392  13.007   8.609  12.611
60206SOL    HW282393  13.133   8.559  12.679
60207SOL     OW82394   9.071   7.074   3.523
60207SOL    HW182395   9.006   7.004   3.527
60207SOL    HW282396   9.135   7.044   3.458
60208SOL     OW82397   8.308   3.639  14.388
60208SOL    HW182398   8.230   3.667  14.436
60208SOL    HW282399   8.291   3.548  14.365
60209SOL     OW82400   5.790  14.038   8.163
60209SOL    HW182401   5.818  13.988   8.240
60209SOL    HW282402   5.865  14.033   8.103
60210SOL     OW82403   9.383   1.838   4.814
60210SOL    HW182404   9.432   1.863   4.892
60210SOL    HW282405   9.397   1.744   4.805
60211SOL     OW82406   3.067   7.591  12.251
60211SOL    HW182407   2.994   7.559  12.305
60211SOL    HW282408   3.031   7.665  12.203
60212SOL     OW82409  11.806  13.514   3.466
60212SOL    HW182410  11.737  13.454   3.494
60212SOL    HW282411  11.765  13.566   3.397
60213SOL     OW82412   5.811   8.103   5.436
60213SOL    HW182413   5.873   8.039   5.471
60213SOL    HW282414   5.825   8.181   5.490
60214SOL     OW82415  10.392  11.028   7.409
60214SOL    HW182416  10.304  11.057   7.385
60214SOL    HW282417  10.450  11.076   7.350
60215SOL     OW82418   5.682   8.200   2.861
60215SOL    HW182419   5.713   8.117   2.896
60215SOL    HW282420   5.587   8.189   2.852
60216SOL     OW82421   8.949   5.181   8.129
60216SOL    HW182422   8.899   5.100   8.126
60216SOL    HW282423   9.012   5.168   8.200
60217SOL     OW82424   5.599   0.229  13.634
60217SOL    HW182425   5.585   0.321  13.610
60217SOL    HW282426   5.677   0.203  13.586
60218SOL     OW82427  13.490   9.692  14.617
60218SOL    HW182428  13.582   9.695  14.644
60218SOL    HW282429  13.442   9.731  14.691
60219SOL     OW82430   1.395  10.976  13.453
60219SOL    HW182431   1.442  10.909  13.405
60219SOL    HW282432   1.375  11.044  13.388
60220SOL     OW82433   5.110   1.905   7.399
60220SOL    HW182434   5.182   1.968   7.393
60220SOL    HW282435   5.136   1.845   7.469
60221SOL     OW82436  11.281   5.095   7.478
60221SOL    HW182437  11.321   5.182   7.485
60221SOL    HW282438  11.206   5.108   7.419
60222SOL     OW82439  13.596   1.578  14.766
60222SOL    HW182440  13.620   1.656  14.716
60222SOL    HW282441  13.623   1.598  14.856
60223SOL     OW82442   1.488   2.334   9.351
60223SOL    HW182443   1.467   2.251   9.395
60223SOL    HW282444   1.476   2.401   9.418
60224SOL     OW82445   8.133   4.298   9.276
60224SOL    HW182446   8.139   4.298   9.180
60224SOL    HW282447   8.153   4.207   9.301
60225SOL     OW82448   7.816   1.380   0.471
60225SOL    HW182449   7.904   1.390   0.508
60225SOL    HW282450   7.826   1.314   0.403
60226SOL     OW82451   2.246   2.522  12.113
60226SOL    HW182452   2.203   2.483  12.188
60226SOL    HW282453   2.190   2.498  12.038
60227SOL     OW82454   6.441  12.003   9.423
60227SOL    HW182455   6.393  11.987   9.342
60227SOL    HW282456   6.428  12.096   9.441
60228SOL     OW82457  13.505   3.631   5.177
60228SOL    HW182458  13.436   3.591   5.230
60228SOL    HW282459  13.460   3.700   5.127
60229SOL     OW82460   7.851   1.210   0.233
60229SOL    HW182461   7.918   1.161   0.186
60229SOL    HW282462   7.865   1.301   0.206
60230SOL     OW82463  13.447   3.344   8.242
60230SOL    HW182464  13.482   3.278   8.181
60230SOL    HW282465  13.507   3.342   8.316
60231SOL     OW82466   3.588   8.993  11.852
60231SOL    HW182467   3.611   9.084  11.872
60231SOL    HW282468   3.635   8.974  11.771
60232SOL     OW82469  12.051   8.751  10.700
60232SOL    HW182470  12.005   8.813  10.643
60232SOL    HW282471  12.050   8.668  10.651
60233SOL     OW82472   7.867  11.117   1.270
60233SOL    HW182473   7.872  11.183   1.338
60233SOL    HW282474   7.887  11.164   1.189
60234SOL     OW82475  13.972   8.028  13.997
60234SOL    HW182476  14.043   7.969  13.973
60234SOL    HW282477  13.927   7.983  14.068
60235SOL     OW82478  11.431   9.440   9.962
60235SOL    HW182479  11.424   9.530   9.929
60235SOL    HW282480  11.425   9.385   9.885
60236SOL     OW82481  11.266   1.175   9.174
60236SOL    HW182482  11.262   1.270   9.188
60236SOL    HW282483  11.175   1.149   9.160
60237SOL     OW82484  14.645   4.028   6.489
60237SOL    HW182485  14.551   4.028   6.472
60237SOL    HW282486  14.657   4.098   6.554
60238SOL     OW82487  11.366   1.486   0.564
60238SOL    HW182488  11.280   1.477   0.604
60238SOL    HW282489  11.380   1.581   0.559
60239SOL     OW82490  12.828  10.045  13.835
60239SOL    HW182491  12.891   9.974  13.820
60239SOL    HW282492  12.744  10.008  13.807
60240SOL     OW82493   0.258   0.392   9.517
60240SOL    HW182494   0.326   0.326   9.525
60240SOL    HW282495   0.285   0.446   9.442
60241SOL     OW82496   8.820   8.052   6.717
60241SOL    HW182497   8.801   7.958   6.724
60241SOL    HW282498   8.878   8.071   6.791
60242SOL     OW82499  13.503   6.374   9.031
60242SOL    HW182500  13.464   6.394   8.946
60242SOL    HW282501  13.555   6.451   9.053
60243SOL     OW82502  10.587  11.175  11.628
60243SOL    HW182503  10.634  11.096  11.653
60243SOL    HW282504  10.494  11.150  11.628
60244SOL     OW82505   6.294   1.289  10.328
60244SOL    HW182506   6.279   1.196  10.315
60244SOL    HW282507   6.299   1.300  10.423
60245SOL     OW82508   7.483   2.532  14.241
60245SOL    HW182509   7.547   2.474  14.200
60245SOL    HW282510   7.425   2.557  14.169
60246SOL     OW82511  11.758   3.711   1.519
60246SOL    HW182512  11.676   3.665   1.536
60246SOL    HW282513  11.783   3.747   1.604
60247SOL     OW82514  14.007   1.408   1.348
60247SOL    HW182515  14.100   1.424   1.332
60247SOL    HW282516  13.979   1.354   1.274
60248SOL     OW82517  10.550  10.917  11.443
60248SOL    HW182518  10.571  10.832  11.406
60248SOL    HW282519  10.609  10.925  11.519
60249SOL     OW82520  12.204  13.180   9.996
60249SOL    HW182521  12.237  13.177  10.086
60249SOL    HW282522  12.269  13.133   9.944
60250SOL     OW82523   7.443   1.910  12.894
60250SOL    HW182524   7.499   1.971  12.943
60250SOL    HW282525   7.362   1.907  12.945
60251SOL     OW82526  10.731  11.417   4.147
60251SOL    HW182527  10.672  11.483   4.109
60251SOL    HW282528  10.682  11.381   4.221
60252SOL     OW82529   3.532   6.359   0.782
60252SOL    HW182530   3.600   6.381   0.718
60252SOL    HW282531   3.450   6.373   0.736
60253SOL     OW82532  12.467   8.628  14.639
60253SOL    HW182533  12.555   8.615  14.604
60253SOL    HW282534  12.409   8.587  14.575
60254SOL     OW82535   0.998  11.964  13.172
60254SOL    HW182536   0.953  11.885  13.143
60254SOL    HW282537   0.993  11.961  13.268
60255SOL     OW82538   4.333  12.551  10.979
60255SOL    HW182539   4.291  12.465  10.975
60255SOL    HW282540   4.260  12.613  10.978
60256SOL     OW82541   0.412  10.914   8.079
60256SOL    HW182542   0.323  10.917   8.114
60256SOL    HW282543   0.448  11.001   8.098
60257SOL     OW82544  10.013   4.480  14.722
60257SOL    HW182545  10.006   4.442  14.635
60257SOL    HW282546   9.955   4.556  14.721
60258SOL     OW82547   5.256   9.189   6.407
60258SOL    HW182548   5.294   9.140   6.480
60258SOL    HW282549   5.317   9.261   6.392
60259SOL     OW82550   9.680   1.807   1.937
60259SOL    HW182551   9.692   1.713   1.930
60259SOL    HW282552   9.660   1.822   2.030
60260SOL     OW82553   3.273  13.254  14.829
60260SOL    HW182554   3.196  13.310  14.842
60260SOL    HW282555   3.324  13.300  14.762
60261SOL     OW82556   1.513  10.837   3.204
60261SOL    HW182557   1.573  10.800   3.268
60261SOL    HW282558   1.563  10.841   3.123
60262SOL     OW82559   1.878   5.266   4.110
60262SOL    HW182560   1.865   5.244   4.017
60262SOL    HW282561   1.929   5.347   4.109
60263SOL     OW82562  13.324   8.314   2.619
60263SOL    HW182563  13.382   8.348   2.551
60263SOL    HW282564  13.249   8.373   2.619
60264SOL     OW82565   4.696  11.572   9.410
60264SOL    HW182566   4.772  11.595   9.357
60264SOL    HW282567   4.676  11.651   9.459
60265SOL     OW82568  12.055   4.470   4.850
60265SOL    HW182569  12.041   4.447   4.941
60265SOL    HW282570  12.105   4.552   4.853
60266SOL     OW82571   1.552  11.347   8.085
60266SOL    HW182572   1.546  11.252   8.091
60266SOL    HW282573   1.563  11.364   7.992
60267SOL     OW82574  13.196   1.850  10.935
60267SOL    HW182575  13.146   1.781  10.980
60267SOL    HW282576  13.134   1.922  10.924
60268SOL     OW82577   9.783   6.291   0.230
60268SOL    HW182578   9.786   6.386   0.228
60268SOL    HW282579   9.736   6.267   0.150
60269SOL     OW82580   6.268  11.159   4.835
60269SOL    HW182581   6.225  11.094   4.779
60269SOL    HW282582   6.361  11.150   4.816
60270SOL     OW82583  13.113   1.461   0.740
60270SOL    HW182584  13.036   1.502   0.700
60270SOL    HW282585  13.152   1.409   0.670
60271SOL     OW82586  14.280  14.136   0.108
60271SOL    HW182587  14.348  14.079   0.071
60271SOL    HW282588  14.247  14.088   0.184
60272SOL     OW82589  11.563   3.365   8.718
60272SOL    HW182590  11.559   3.461   8.715
60272SOL    HW282591  11.588   3.345   8.808
60273SOL     OW82592  13.742  14.768   9.869
60273SOL    HW182593  13.826  14.804   9.896
60273SOL    HW282594  13.687  14.773   9.947
60274SOL     OW82595  11.359   5.263   3.751
60274SOL    HW182596  11.371   5.268   3.845
60274SOL    HW282597  11.299   5.335   3.731
60275SOL     OW82598  13.502   7.433   6.755
60275SOL    HW182599  13.455   7.426   6.672
60275SOL    HW282600  13.552   7.515   6.748
60276SOL     OW82601   7.511   4.720   8.211
60276SOL    HW182602   7.551   4.766   8.137
60276SOL    HW282603   7.496   4.631   8.180
60277SOL     OW82604  11.044   7.662   1.738
60277SOL    HW182605  10.960   7.686   1.778
60277SOL    HW282606  11.055   7.725   1.667
60278SOL     OW82607   4.549   4.559   5.329
60278SOL    HW182608   4.501   4.486   5.368
60278SOL    HW282609   4.509   4.637   5.367
60279SOL     OW82610   5.798   5.317  12.021
60279SOL    HW182611   5.803   5.230  12.061
60279SOL    HW282612   5.784   5.300  11.928
60280SOL     OW82613   4.005   1.814   6.536
60280SOL    HW182614   3.949   1.800   6.460
60280SOL    HW282615   4.068   1.742   6.534
60281SOL     OW82616   7.871  10.555   6.902
60281SOL    HW182617   7.825  10.481   6.862
60281SOL    HW282618   7.819  10.631   6.878
60282SOL     OW82619  10.808   5.060   3.757
60282SOL    HW182620  10.732   5.112   3.734
60282SOL    HW282621  10.793   5.034   3.848
60283SOL     OW82622   3.848   5.138   9.069
60283SOL    HW182623   3.805   5.059   9.036
60283SOL    HW282624   3.941   5.117   9.067
60284SOL     OW82625   4.098   3.929   5.370
60284SOL    HW182626   4.093   3.905   5.463
60284SOL    HW282627   4.192   3.945   5.355
60285SOL     OW82628  12.988  13.625   2.279
60285SOL    HW182629  12.914  13.584   2.234
60285SOL    HW282630  12.956  13.713   2.302
60286SOL     OW82631   1.583   0.504   6.703
60286SOL    HW182632   1.583   0.595   6.733
60286SOL    HW282633   1.635   0.457   6.768
60287SOL     OW82634   7.221   1.674  13.953
60287SOL    HW182635   7.155   1.654  14.019
60287SOL    HW282636   7.171   1.700  13.876
60288SOL     OW82637   7.315   7.957   4.444
60288SOL    HW182638   7.385   8.022   4.455
60288SOL    HW282639   7.361   7.875   4.427
60289SOL     OW82640  12.293   0.121   2.051
60289SOL    HW182641  12.383   0.142   2.075
60289SOL    HW282642  12.241   0.148   2.127
60290SOL     OW82643   4.124   4.526  14.626
60290SOL    HW182644   4.086   4.535  14.538
60290SOL    HW282645   4.184   4.452  14.618
60291SOL     OW82646   1.196   5.312   2.496
60291SOL    HW182647   1.276   5.327   2.446
60291SOL    HW282648   1.140   5.386   2.473
60292SOL     OW82649  10.701  14.529   2.122
60292SOL    HW182650  10.747  14.473   2.184
60292SOL    HW282651  10.649  14.588   2.177
60293SOL     OW82652   2.130   3.637   5.253
60293SOL    HW182653   2.143   3.641   5.159
60293SOL    HW282654   2.129   3.543   5.274
60294SOL     OW82655   5.569   9.341   5.930
60294SOL    HW182656   5.499   9.399   5.959
60294SOL    HW282657   5.537   9.305   5.847
60295SOL     OW82658   5.095  13.058   0.714
60295SOL    HW182659   5.080  12.964   0.728
60295SOL    HW282660   5.186  13.072   0.740
60296SOL     OW82661   5.012   7.997   0.025
60296SOL    HW182662   4.951   8.006   0.097
60296SOL    HW282663   5.030   8.087  14.875
60297SOL     OW82664   3.800   7.127  11.981
60297SOL    HW182665   3.884   7.089  11.953
60297SOL    HW282666   3.751   7.139  11.900
60298SOL     OW82667   4.751   6.905   2.480
60298SOL    HW182668   4.757   6.902   2.575
60298SOL    HW282669   4.737   6.814   2.453
60299SOL     OW82670  13.432   1.264   6.290
60299SOL    HW182671  13.451   1.282   6.198
60299SOL    HW282672  13.477   1.182   6.309
60300SOL     OW82673   6.099  12.940  14.548
60300SOL    HW182674   6.154  12.893  14.486
60300SOL    HW282675   6.160  13.000  14.593
60301SOL     OW82676   5.297  14.509   1.910
60301SOL    HW182677   5.390  14.524   1.930
60301SOL    HW282678   5.271  14.586   1.859
60302SOL     OW82679  14.119  11.791  14.377
60302SOL    HW182680  14.096  11.748  14.295
60302SOL    HW282681  14.214  11.787  14.381
60303SOL     OW82682   4.329   7.206  13.593
60303SOL    HW182683   4.411   7.251  13.572
60303SOL    HW282684   4.353   7.142  13.659
60304SOL     OW82685   3.826   4.810   7.129
60304SOL    HW182686   3.906   4.839   7.172
60304SOL    HW282687   3.853   4.788   7.040
60305SOL     OW82688  12.801  11.766   9.596
60305SOL    HW182689  12.862  11.831   9.630
60305SOL    HW282690  12.724  11.816   9.569
60306SOL     OW82691   1.813  14.375   2.522
60306SOL    HW182692   1.870  14.450   2.535
60306SOL    HW282693   1.759  14.399   2.446
60307SOL     OW82694   6.486   2.565   3.754
60307SOL    HW182695   6.412   2.577   3.814
60307SOL    HW282696   6.561   2.548   3.812
60308SOL     OW82697  12.558  12.319   2.469
60308SOL    HW182698  12.478  12.330   2.520
60308SOL    HW282699  12.565  12.224   2.455
60309SOL     OW82700   3.159   7.474   7.831
60309SOL    HW182701   3.228   7.490   7.895
60309SOL    HW282702   3.180   7.388   7.795
60310SOL     OW82703   7.679  13.400   2.088
60310SOL    HW182704   7.741  13.338   2.125
60310SOL    HW282705   7.600  13.390   2.141
60311SOL     OW82706   8.935   8.476   8.216
60311SOL    HW182707   8.867   8.409   8.209
60311SOL    HW282708   8.890   8.551   8.255
60312SOL     OW82709   3.707   2.643  14.143
60312SOL    HW182710   3.790   2.648  14.190
60312SOL    HW282711   3.644   2.689  14.199
60313SOL     OW82712  14.310  13.671   3.416
60313SOL    HW182713  14.331  13.737   3.350
60313SOL    HW282714  14.221  13.644   3.396
60314SOL     OW82715   8.023   3.574  14.798
60314SOL    HW182716   8.098   3.569  14.740
60314SOL    HW282717   8.011   3.485  14.831
60315SOL     OW82718   6.376  12.057   2.040
60315SOL    HW182719   6.398  12.005   1.962
60315SOL    HW282720   6.281  12.068   2.035
60316SOL     OW82721  11.557   0.660   7.164
60316SOL    HW182722  11.502   0.587   7.137
60316SOL    HW282723  11.568   0.647   7.259
60317SOL     OW82724  13.672  14.351  13.337
60317SOL    HW182725  13.644  14.275  13.387
60317SOL    HW282726  13.677  14.422  13.401
60318SOL     OW82727  13.020  12.305   8.228
60318SOL    HW182728  13.115  12.310   8.233
60318SOL    HW282729  12.996  12.243   8.297
60319SOL     OW82730   0.589  12.931   4.911
60319SOL    HW182731   0.560  12.944   4.820
60319SOL    HW282732   0.657  12.864   4.905
60320SOL     OW82733   9.964   6.488  12.777
60320SOL    HW182734   9.896   6.428  12.808
60320SOL    HW282735   9.939   6.573  12.811
60321SOL     OW82736   1.597   2.080   8.259
60321SOL    HW182737   1.541   2.062   8.184
60321SOL    HW282738   1.576   2.170   8.284
60322SOL     OW82739   8.565  12.090   9.743
60322SOL    HW182740   8.575  12.173   9.789
60322SOL    HW282741   8.495  12.106   9.680
60323SOL     OW82742  13.419   2.761  13.743
60323SOL    HW182743  13.440   2.671  13.718
60323SOL    HW282744  13.503   2.800  13.766
60324SOL     OW82745   8.008  13.657   3.656
60324SOL    HW182746   8.056  13.723   3.706
60324SOL    HW282747   7.952  13.614   3.721
60325SOL     OW82748  13.844   5.922   8.161
60325SOL    HW182749  13.852   5.924   8.256
60325SOL    HW282750  13.795   6.001   8.139
60326SOL     OW82751  13.319   3.264   4.512
60326SOL    HW182752  13.324   3.187   4.455
60326SOL    HW282753  13.344   3.232   4.598
60327SOL     OW82754   6.995   7.768   5.450
60327SOL    HW182755   7.047   7.696   5.485
60327SOL    HW282756   7.040   7.793   5.369
60328SOL     OW82757   8.577   9.588   7.517
60328SOL    HW182758   8.656   9.621   7.474
60328SOL    HW282759   8.533   9.667   7.550
60329SOL     OW82760   9.999   0.630   8.052
60329SOL    HW182761  10.088   0.649   8.083
60329SOL    HW282762  10.000   0.653   7.959
60330SOL     OW82763   5.409   3.381   0.904
60330SOL    HW182764   5.354   3.401   0.828
60330SOL    HW282765   5.436   3.466   0.937
60331SOL     OW82766   9.044   3.915  13.680
60331SOL    HW182767   9.067   3.829  13.715
60331SOL    HW282768   9.102   3.926  13.605
60332SOL     OW82769   7.667   0.579   5.867
60332SOL    HW182770   7.700   0.668   5.874
60332SOL    HW282771   7.586   0.587   5.816
60333SOL     OW82772  14.090   6.314  13.212
60333SOL    HW182773  14.024   6.379  13.238
60333SOL    HW282774  14.093   6.319  13.117
60334SOL     OW82775   2.854   7.189   2.564
60334SOL    HW182776   2.781   7.136   2.594
60334SOL    HW282777   2.929   7.130   2.566
60335SOL     OW82778  13.259   0.838  12.701
60335SOL    HW182779  13.284   0.751  12.731
60335SOL    HW282780  13.214   0.877  12.776
60336SOL     OW82781   0.174   0.296  10.023
60336SOL    HW182782   0.084   0.325  10.008
60336SOL    HW282783   0.166   0.204  10.047
60337SOL     OW82784   1.460   6.424   3.726
60337SOL    HW182785   1.511   6.495   3.765
60337SOL    HW282786   1.523   6.375   3.673
60338SOL     OW82787   4.910  10.039  11.798
60338SOL    HW182788   4.876   9.956  11.831
60338SOL    HW282789   5.002  10.021  11.779
60339SOL     OW82790   8.222   8.168  14.007
60339SOL    HW182791   8.158   8.175  14.078
60339SOL    HW282792   8.288   8.107  14.041
60340SOL     OW82793   5.840   5.774   9.143
60340SOL    HW182794   5.868   5.865   9.138
60340SOL    HW282795   5.752   5.773   9.105
60341SOL     OW82796   0.339   6.786   4.479
60341SOL    HW182797   0.316   6.747   4.395
60341SOL    HW282798   0.366   6.712   4.533
60342SOL     OW82799   6.276   3.601   4.924
60342SOL    HW182800   6.364   3.572   4.946
60342SOL    HW282801   6.239   3.530   4.872
60343SOL     OW82802   3.522   4.092   0.718
60343SOL    HW182803   3.561   4.037   0.786
60343SOL    HW282804   3.491   4.030   0.652
60344SOL     OW82805  12.027  13.168  13.464
60344SOL    HW182806  12.121  13.185  13.462
60344SOL    HW282807  12.018  13.078  13.433
60345SOL     OW82808   2.316   3.843  14.794
60345SOL    HW182809   2.298   3.788  14.870
60345SOL    HW282810   2.409   3.829  14.776
60346SOL     OW82811  11.169  12.579   1.878
60346SOL    HW182812  11.127  12.502   1.840
60346SOL    HW282813  11.179  12.640   1.804
60347SOL     OW82814  13.785   6.217   1.923
60347SOL    HW182815  13.781   6.138   1.869
60347SOL    HW282816  13.854   6.269   1.883
60348SOL     OW82817  10.480   9.118   7.323
60348SOL    HW182818  10.412   9.113   7.256
60348SOL    HW282819  10.504   9.211   7.325
60349SOL     OW82820   7.791  10.885  14.694
60349SOL    HW182821   7.831  10.967  14.721
60349SOL    HW282822   7.841  10.857  14.617
60350SOL     OW82823  13.331   2.562  14.420
60350SOL    HW182824  13.426   2.562  14.432
60350SOL    HW282825  13.311   2.474  14.387
60351SOL     OW82826  10.374   2.273   7.711
60351SOL    HW182827  10.462   2.275   7.673
60351SOL    HW282828  10.357   2.181   7.729
60352SOL     OW82829   4.533  12.538   1.458
60352SOL    HW182830   4.583  12.612   1.494
60352SOL    HW282831   4.596  12.488   1.408
60353SOL     OW82832   6.436  14.717  11.165
60353SOL    HW182833   6.422  14.807  11.192
60353SOL    HW282834   6.513  14.688  11.214
60354SOL     OW82835   8.322   1.816   6.486
60354SOL    HW182836   8.347   1.723   6.484
60354SOL    HW282837   8.359   1.849   6.568
60355SOL     OW82838   4.640   1.147   8.976
60355SOL    HW182839   4.582   1.148   8.900
60355SOL    HW282840   4.704   1.078   8.956
60356SOL     OW82841   3.556  10.582  13.469
60356SOL    HW182842   3.623  10.649  13.478
60356SOL    HW282843   3.604  10.499  13.473
60357SOL     OW82844  12.418  12.964  12.487
60357SOL    HW182845  12.355  12.977  12.416
60357SOL    HW282846  12.364  12.943  12.564
60358SOL     OW82847   4.458   1.305  13.200
60358SOL    HW182848   4.536   1.251  13.215
60358SOL    HW282849   4.409   1.258  13.132
60359SOL     OW82850   1.443   3.379   8.248
60359SOL    HW182851   1.457   3.473   8.234
60359SOL    HW282852   1.348   3.369   8.252
60360SOL     OW82853   8.600   9.421   1.173
60360SOL    HW182854   8.653   9.500   1.162
60360SOL    HW282855   8.645   9.370   1.240
60361SOL     OW82856   6.407   8.637   6.861
60361SOL    HW182857   6.452   8.633   6.945
60361SOL    HW282858   6.389   8.545   6.840
60362SOL     OW82859   2.139  14.428  13.978
60362SOL    HW182860   2.100  14.401  13.895
60362SOL    HW282861   2.065  14.433  14.039
60363SOL     OW82862  14.072   4.736   1.033
60363SOL    HW182863  14.074   4.721   1.127
60363SOL    HW282864  14.120   4.818   1.020
60364SOL     OW82865   5.396  14.204   0.118
60364SOL    HW182866   5.486  14.191   0.146
60364SOL    HW282867   5.370  14.121   0.079
60365SOL     OW82868  10.704   5.566  14.846
60365SOL    HW182869  10.696   5.638  14.783
60365SOL    HW282870  10.775   5.593   0.027
60366SOL     OW82871   6.338   8.773   5.372
60366SOL    HW182872   6.411   8.820   5.331
60366SOL    HW282873   6.327   8.694   5.318
60367SOL     OW82874   1.905   3.543  10.284
60367SOL    HW182875   1.999   3.557  10.283
60367SOL    HW282876   1.871   3.606  10.221
60368SOL     OW82877  13.680  12.021   0.591
60368SOL    HW182878  13.624  12.025   0.668
60368SOL    HW282879  13.647  11.947   0.540
60369SOL     OW82880   3.445   7.278   3.657
60369SOL    HW182881   3.412   7.201   3.610
60369SOL    HW282882   3.427   7.260   3.749
60370SOL     OW82883   7.973   5.072  13.758
60370SOL    HW182884   7.958   4.990  13.709
60370SOL    HW282885   7.992   5.043  13.847
60371SOL     OW82886   3.617   9.235  10.762
60371SOL    HW182887   3.548   9.212  10.823
60371SOL    HW282888   3.583   9.311  10.715
60372SOL     OW82889  11.382   1.905   8.616
60372SOL    HW182890  11.474   1.920   8.640
60372SOL    HW282891  11.382   1.905   8.520
60373SOL     OW82892   5.506   3.550  11.758
60373SOL    HW182893   5.553   3.584  11.834
60373SOL    HW282894   5.564   3.483  11.723
60374SOL     OW82895   9.825  12.110   3.056
60374SOL    HW182896   9.834  12.170   3.130
60374SOL    HW282897   9.738  12.071   3.067
60375SOL     OW82898  11.022   9.587  13.016
60375SOL    HW182899  11.007   9.554  12.927
60375SOL    HW282900  11.100   9.540  13.046
60376SOL     OW82901   7.103  10.974  14.216
60376SOL    HW182902   7.173  10.956  14.279
60376SOL    HW282903   7.139  11.043  14.160
60377SOL     OW82904   1.844   4.151  12.776
60377SOL    HW182905   1.799   4.066  12.780
60377SOL    HW282906   1.931   4.131  12.743
60378SOL     OW82907  10.681  13.902  11.461
60378SOL    HW182908  10.678  13.912  11.366
60378SOL    HW282909  10.775  13.906  11.482
60379SOL     OW82910   6.586   2.645   9.047
60379SOL    HW182911   6.554   2.657   8.957
60379SOL    HW282912   6.651   2.713   9.059
60380SOL     OW82913   5.895   7.046  10.519
60380SOL    HW182914   5.916   7.096  10.598
60380SOL    HW282915   5.855   6.965  10.551
60381SOL     OW82916  13.828   2.633   7.399
60381SOL    HW182917  13.747   2.648   7.447
60381SOL    HW282918  13.820   2.544   7.365
60382SOL     OW82919   9.248   8.730   7.267
60382SOL    HW182920   9.264   8.825   7.264
60382SOL    HW282921   9.215   8.715   7.355
60383SOL     OW82922  14.250   7.130   7.456
60383SOL    HW182923  14.270   7.161   7.368
60383SOL    HW282924  14.181   7.188   7.488
60384SOL     OW82925   1.697   4.314  14.731
60384SOL    HW182926   1.692   4.272  14.645
60384SOL    HW282927   1.616   4.365  14.738
60385SOL     OW82928   8.593   1.423  11.567
60385SOL    HW182929   8.525   1.389  11.625
60385SOL    HW282930   8.555   1.416  11.480
60386SOL     OW82931   9.141   1.681  11.179
60386SOL    HW182932   9.216   1.725  11.219
60386SOL    HW282933   9.085   1.656  11.252
60387SOL     OW82934   3.574   6.842   3.246
60387SOL    HW182935   3.497   6.899   3.252
60387SOL    HW282936   3.540   6.760   3.209
60388SOL     OW82937  12.985   6.570   1.824
60388SOL    HW182938  12.947   6.486   1.796
60388SOL    HW282939  13.078   6.562   1.802
60389SOL     OW82940   4.230  10.241   9.821
60389SOL    HW182941   4.185  10.324   9.834
60389SOL    HW282942   4.181  10.196   9.753
60390SOL     OW82943  11.120  12.599  13.227
60390SOL    HW182944  11.162  12.598  13.314
60390SOL    HW282945  11.174  12.540  13.174
60391SOL     OW82946   4.244   4.490   0.134
60391SOL    HW182947   4.321   4.471   0.079
60391SOL    HW282948   4.170   4.457   0.083
60392SOL     OW82949  10.510  12.108  12.572
60392SOL    HW182950  10.593  12.131  12.614
60392SOL    HW282951  10.448  12.172  12.607
60393SOL     OW82952  10.965  10.805   0.692
60393SOL    HW182953  10.991  10.744   0.761
60393SOL    HW282954  10.995  10.764   0.611
60394SOL     OW82955   7.497  12.987   3.074
60394SOL    HW182956   7.411  12.994   3.033
60394SOL    HW282957   7.517  13.075   3.104
60395SOL     OW82958   1.697  13.997   1.530
60395SOL    HW182959   1.621  13.970   1.479
60395SOL    HW282960   1.763  14.018   1.464
60396SOL     OW82961  10.252   8.397   2.085
60396SOL    HW182962  10.218   8.388   2.174
60396SOL    HW282963  10.176   8.379   2.029
60397SOL     OW82964   4.418   8.336   9.288
60397SOL    HW182965   4.426   8.252   9.242
60397SOL    HW282966   4.461   8.399   9.231
60398SOL     OW82967  13.717   7.929   5.526
60398SOL    HW182968  13.624   7.951   5.530
60398SOL    HW282969  13.755   7.995   5.468
60399SOL     OW82970   4.381  11.414   8.626
60399SOL    HW182971   4.436  11.343   8.657
60399SOL    HW282972   4.424  11.493   8.656
60400SOL     OW82973  12.580   3.295   3.356
60400SOL    HW182974  12.665   3.272   3.393
60400SOL    HW282975  12.520   3.289   3.430
60401SOL     OW82976   2.427   4.436  11.849
60401SOL    HW182977   2.341   4.401  11.874
60401SOL    HW282978   2.472   4.363  11.807
60402SOL     OW82979   9.697   1.051   4.520
60402SOL    HW182980   9.701   0.984   4.452
60402SOL    HW282981   9.788   1.070   4.542
60403SOL     OW82982   9.484   2.764  12.847
60403SOL    HW182983   9.467   2.813  12.767
60403SOL    HW282984   9.579   2.761  12.854
60404SOL     OW82985  14.802   7.899   3.490
60404SOL    HW182986   0.002   7.852   3.460
60404SOL    HW282987  14.746   7.831   3.529
60405SOL     OW82988  10.380   5.502   5.629
60405SOL    HW182989  10.326   5.423   5.636
60405SOL    HW282990  10.362   5.551   5.709
60406SOL     OW82991  13.853   1.249  11.530
60406SOL    HW182992  13.846   1.303  11.609
60406SOL    HW282993  13.947   1.232  11.521
60407SOL     OW82994   6.475  12.272   9.214
60407SOL    HW182995   6.397  12.313   9.252
60407SOL    HW282996   6.546  12.298   9.272
60408SOL     OW82997   7.075   3.582   9.657
60408SOL    HW182998   7.023   3.552   9.732
60408SOL    HW282999   7.061   3.677   9.655
60409SOL     OW83000   5.219   4.691   1.930
60409SOL    HW183001   5.206   4.622   1.995
60409SOL    HW283002   5.249   4.767   1.981
60410SOL     OW83003   9.309   9.507  12.132
60410SOL    HW183004   9.313   9.412  12.119
60410SOL    HW283005   9.246   9.519  12.203
60411SOL     OW83006  11.059  12.407   6.858
60411SOL    HW183007  11.121  12.351   6.812
60411SOL    HW283008  11.107  12.488   6.874
60412SOL     OW83009   7.591   8.244   6.257
60412SOL    HW183010   7.495   8.238   6.260
60412SOL    HW283011   7.609   8.317   6.198
60413SOL     OW83012   5.429   2.074  12.380
60413SOL    HW183013   5.522   2.084  12.403
60413SOL    HW283014   5.412   2.143  12.316
60414SOL     OW83015  10.593   9.766  14.066
60414SOL    HW183016  10.659   9.831  14.043
60414SOL    HW283017  10.556   9.740  13.981
60415SOL     OW83018   0.923   4.171  12.398
60415SOL    HW183019   0.892   4.081  12.408
60415SOL    HW283020   0.925   4.186  12.303
60416SOL     OW83021   6.769   4.325   8.506
60416SOL    HW183022   6.844   4.328   8.447
60416SOL    HW283023   6.807   4.322   8.594
60417SOL     OW83024  13.244   2.199   4.609
60417SOL    HW183025  13.224   2.223   4.518
60417SOL    HW283026  13.192   2.120   4.625
60418SOL     OW83027   6.730   7.209   1.927
60418SOL    HW183028   6.736   7.281   1.865
60418SOL    HW283029   6.820   7.195   1.956
60419SOL     OW83030   3.092   8.977   8.981
60419SOL    HW183031   3.060   8.888   8.965
60419SOL    HW283032   3.062   9.028   8.906
60420SOL     OW83033   6.907  11.010   0.264
60420SOL    HW183034   6.870  10.966   0.187
60420SOL    HW283035   6.897  10.946   0.335
60421SOL     OW83036   6.947  14.812   3.926
60421SOL    HW183037   6.857  14.824   3.893
60421SOL    HW283038   7.002  14.844   3.855
60422SOL     OW83039  11.475  14.385   6.669
60422SOL    HW183040  11.443  14.306   6.627
60422SOL    HW283041  11.412  14.453   6.644
60423SOL     OW83042   4.906   7.116  10.045
60423SOL    HW183043   4.909   7.078  10.133
60423SOL    HW283044   4.935   7.207  10.058
60424SOL     OW83045  14.395   8.518   7.091
60424SOL    HW183046  14.359   8.582   7.152
60424SOL    HW283047  14.425   8.446   7.147
60425SOL     OW83048  13.731   4.045   7.444
60425SOL    HW183049  13.637   4.061   7.452
60425SOL    HW283050  13.772   4.119   7.489
60426SOL     OW83051   7.246  13.228   8.856
60426SOL    HW183052   7.266  13.135   8.865
60426SOL    HW283053   7.160  13.238   8.896
60427SOL     OW83054  13.502  14.057   1.865
60427SOL    HW183055  13.492  14.007   1.784
60427SOL    HW283056  13.437  14.021   1.924
60428SOL     OW83057   6.916   3.186   2.972
60428SOL    HW183058   6.973   3.195   3.049
60428SOL    HW283059   6.977   3.180   2.898
60429SOL     OW83060   1.275   7.043   4.288
60429SOL    HW183061   1.360   7.000   4.285
60429SOL    HW283062   1.286   7.121   4.233
60430SOL     OW83063  14.864   7.473  14.852
60430SOL    HW183064   0.077   7.442  14.856
60430SOL    HW283065  14.840   7.464  14.760
60431SOL     OW83066   7.394   3.788   0.876
60431SOL    HW183067   7.483   3.819   0.891
60431SOL    HW283068   7.369   3.747   0.959
60432SOL     OW83069   2.919   7.394   4.619
60432SOL    HW183070   3.008   7.362   4.630
60432SOL    HW283071   2.888   7.410   4.708
60433SOL     OW83072   6.044   9.748   3.244
60433SOL    HW183073   6.027   9.698   3.324
60433SOL    HW283074   6.028   9.839   3.270
60434SOL     OW83075  11.036   9.082  11.437
60434SOL    HW183076  11.040   9.160  11.492
60434SOL    HW283077  11.128   9.059  11.422
60435SOL     OW83078   4.950   2.334   8.167
60435SOL    HW183079   4.952   2.292   8.253
60435SOL    HW283080   4.885   2.403   8.176
60436SOL     OW83081   3.722   9.027   9.473
60436SOL    HW183082   3.804   8.978   9.484
60436SOL    HW283083   3.749   9.114   9.445
60437SOL     OW83084   8.169   9.090   8.759
60437SOL    HW183085   8.160   9.173   8.712
60437SOL    HW283086   8.259   9.063   8.743
60438SOL     OW83087   9.535  13.637   8.824
60438SOL    HW183088   9.594  13.590   8.764
60438SOL    HW283089   9.480  13.568   8.861
60439SOL     OW83090   4.427  11.983   2.272
60439SOL    HW183091   4.397  12.061   2.227
60439SOL    HW283092   4.519  11.998   2.289
60440SOL     OW83093   3.443   4.199  12.349
60440SOL    HW183094   3.388   4.274  12.370
60440SOL    HW283095   3.381   4.127  12.333
60441SOL     OW83096   9.634   9.206   1.938
60441SOL    HW183097   9.635   9.294   1.977
60441SOL    HW283098   9.715   9.201   1.887
60442SOL     OW83099   3.107   5.792   4.636
60442SOL    HW183100   3.186   5.740   4.623
60442SOL    HW283101   3.050   5.767   4.563
60443SOL     OW83102   6.287   6.627   3.886
60443SOL    HW183103   6.216   6.622   3.822
60443SOL    HW283104   6.360   6.664   3.837
60444SOL     OW83105   5.904   3.841   0.097
60444SOL    HW183106   5.931   3.763   0.049
60444SOL    HW283107   5.957   3.840   0.177
60445SOL     OW83108  10.677   1.199  10.885
60445SOL    HW183109  10.670   1.130  10.819
60445SOL    HW283110  10.736   1.264  10.846
60446SOL     OW83111   2.403   4.249  13.276
60446SOL    HW183112   2.348   4.320  13.241
60446SOL    HW283113   2.428   4.199  13.199
60447SOL     OW83114   7.040  12.256  11.092
60447SOL    HW183115   7.024  12.167  11.063
60447SOL    HW283116   6.956  12.300  11.082
60448SOL     OW83117  11.384   7.353  10.597
60448SOL    HW183118  11.363   7.286  10.663
60448SOL    HW283119  11.478   7.366  10.607
60449SOL     OW83120  10.571  10.195  12.209
60449SOL    HW183121  10.552  10.103  12.227
60449SOL    HW283122  10.652  10.213  12.257
60450SOL     OW83123   4.026   4.000  13.400
60450SOL    HW183124   4.047   4.073  13.458
60450SOL    HW283125   4.086   3.930  13.427
60451SOL     OW83126   3.064   3.318   3.561
60451SOL    HW183127   2.976   3.326   3.524
60451SOL    HW283128   3.050   3.281   3.648
60452SOL     OW83129   1.110   5.752   8.024
60452SOL    HW183130   1.139   5.804   7.949
60452SOL    HW283131   1.038   5.699   7.990
60453SOL     OW83132   5.541  13.645   0.015
60453SOL    HW183133   5.488  13.700   0.072
60453SOL    HW283134   5.598  13.597   0.074
60454SOL     OW83135   7.791   8.630  14.665
60454SOL    HW183136   7.796   8.618  14.570
60454SOL    HW283137   7.720   8.692  14.678
60455SOL     OW83138   3.566   4.174   7.037
60455SOL    HW183139   3.510   4.235   6.989
60455SOL    HW283140   3.556   4.200   7.129
60456SOL     OW83141   4.210   1.962  14.774
60456SOL    HW183142   4.200   1.869  14.796
60456SOL    HW283143   4.297   1.985  14.806
60457SOL     OW83144  13.185   2.655   9.136
60457SOL    HW183145  13.163   2.577   9.085
60457SOL    HW283146  13.167   2.630   9.226
60458SOL     OW83147  13.232  14.646   7.686
60458SOL    HW183148  13.223  14.608   7.599
60458SOL    HW283149  13.315  14.611   7.719
60459SOL     OW83150  12.104   9.310   8.267
60459SOL    HW183151  12.101   9.394   8.221
60459SOL    HW283152  12.101   9.244   8.198
60460SOL     OW83153   3.709   2.591   9.656
60460SOL    HW183154   3.746   2.621   9.573
60460SOL    HW283155   3.784   2.556   9.705
60461SOL     OW83156   6.342   5.408   6.145
60461SOL    HW183157   6.387   5.448   6.071
60461SOL    HW283158   6.270   5.359   6.105
60462SOL     OW83159   2.985   8.049   0.271
60462SOL    HW183160   3.062   8.014   0.315
60462SOL    HW283161   2.962   8.128   0.320
60463SOL     OW83162  10.257   0.152   2.604
60463SOL    HW183163  10.178   0.133   2.654
60463SOL    HW283164  10.309   0.071   2.609
60464SOL     OW83165  14.050  12.949   2.210
60464SOL    HW183166  14.024  12.904   2.130
60464SOL    HW283167  13.975  13.005   2.231
60465SOL     OW83168   8.412  11.958  13.818
60465SOL    HW183169   8.492  11.995  13.781
60465SOL    HW283170   8.433  11.943  13.910
60466SOL     OW83171   0.014   9.484  11.467
60466SOL    HW183172   0.031   9.427  11.391
60466SOL    HW283173  14.823   9.437  11.516
60467SOL     OW83174   3.941  11.391   6.283
60467SOL    HW183175   3.917  11.373   6.373
60467SOL    HW283176   3.869  11.444   6.249
60468SOL     OW83177   3.952   4.892  14.589
60468SOL    HW183178   3.926   4.805  14.558
60468SOL    HW283179   3.880   4.949  14.564
60469SOL     OW83180   3.419   4.382  14.824
60469SOL    HW183181   3.355   4.400  14.755
60469SOL    HW283182   3.424   4.464  14.873
60470SOL     OW83183   4.581  12.105  11.688
60470SOL    HW183184   4.651  12.075  11.745
60470SOL    HW283185   4.506  12.120  11.747
60471SOL     OW83186  12.453  14.042   2.371
60471SOL    HW183187  12.526  14.101   2.390
60471SOL    HW283188  12.464  13.970   2.433
60472SOL     OW83189  13.776  12.191  13.008
60472SOL    HW183190  13.841  12.262  13.009
60472SOL    HW283191  13.798  12.137  13.084
60473SOL     OW83192  10.126  13.470   1.698
60473SOL    HW183193  10.171  13.547   1.662
60473SOL    HW283194  10.174  13.450   1.778
60474SOL     OW83195  11.246  13.328   4.355
60474SOL    HW183196  11.164  13.285   4.330
60474SOL    HW283197  11.220  13.400   4.411
60475SOL     OW83198   4.529   3.000  13.831
60475SOL    HW183199   4.601   3.001  13.894
60475SOL    HW283200   4.506   2.907  13.822
60476SOL     OW83201   2.946   3.905   9.476
60476SOL    HW183202   3.024   3.858   9.448
60476SOL    HW283203   2.874   3.843   9.461
60477SOL     OW83204  14.440  13.272  11.410
60477SOL    HW183205  14.378  13.255  11.339
60477SOL    HW283206  14.414  13.213  11.480
60478SOL     OW83207   2.927   5.416  11.536
60478SOL    HW183208   2.998   5.470  11.570
60478SOL    HW283209   2.868   5.405  11.610
60479SOL     OW83210   0.244   2.070   8.312
60479SOL    HW183211   0.180   2.028   8.255
60479SOL    HW283212   0.191   2.117   8.377
60480SOL     OW83213   6.325  11.562   7.783
60480SOL    HW183214   6.288  11.598   7.863
60480SOL    HW283215   6.300  11.469   7.785
60481SOL     OW83216  13.998   6.663  11.525
60481SOL    HW183217  13.993   6.708  11.609
60481SOL    HW283218  14.074   6.700  11.481
60482SOL     OW83219   7.680   0.084   4.028
60482SOL    HW183220   7.674   0.118   4.117
60482SOL    HW283221   7.768   0.106   3.999
60483SOL     OW83222  10.256   4.352  14.706
60483SOL    HW183223  10.257   4.300  14.786
60483SOL    HW283224  10.175   4.403  14.711
60484SOL     OW83225   4.562  11.102   9.170
60484SOL    HW183226   4.626  11.172   9.162
60484SOL    HW283227   4.479  11.147   9.187
60485SOL     OW83228  14.581  14.087  13.623
60485SOL    HW183229  14.590  14.151  13.552
60485SOL    HW283230  14.543  14.010  13.582
60486SOL     OW83231   2.539  10.992   9.378
60486SOL    HW183232   2.503  10.940   9.306
60486SOL    HW283233   2.467  11.048   9.406
60487SOL     OW83234  12.423  13.621   2.657
60487SOL    HW183235  12.490  13.580   2.711
60487SOL    HW283236  12.372  13.548   2.622
60488SOL     OW83237   5.029   7.962   2.489
60488SOL    HW183238   5.010   8.055   2.499
60488SOL    HW283239   4.965   7.918   2.545
60489SOL     OW83240   2.055  12.103   1.206
60489SOL    HW183241   2.123  12.089   1.272
60489SOL    HW283242   2.031  12.015   1.176
60490SOL     OW83243   7.954   6.588  13.708
60490SOL    HW183244   7.888   6.519  13.717
60490SOL    HW283245   7.997   6.592  13.794
60491SOL     OW83246   0.414   2.474   5.360
60491SOL    HW183247   0.395   2.545   5.299
60491SOL    HW283248   0.419   2.396   5.306
60492SOL     OW83249   0.049  10.768   6.382
60492SOL    HW183250   0.071  10.859   6.401
60492SOL    HW283251  14.856  10.773   6.318
60493SOL     OW83252   3.225   5.841   8.776
60493SOL    HW183253   3.176   5.852   8.858
60493SOL    HW283254   3.316   5.854   8.800
60494SOL     OW83255  10.643   8.400   7.241
60494SOL    HW183256  10.618   8.409   7.333
60494SOL    HW283257  10.704   8.326   7.240
60495SOL     OW83258   8.847   7.175   4.699
60495SOL    HW183259   8.865   7.146   4.610
60495SOL    HW283260   8.931   7.165   4.745
60496SOL     OW83261  11.890   5.754   1.176
60496SOL    HW183262  11.964   5.799   1.218
60496SOL    HW283263  11.903   5.661   1.197
60497SOL     OW83264   0.205  10.314  13.978
60497SOL    HW183265   0.272  10.305  13.911
60497SOL    HW283266   0.195  10.227  14.015
60498SOL     OW83267  10.677   3.339  10.066
60498SOL    HW183268  10.652   3.254  10.100
60498SOL    HW283269  10.645   3.340   9.976
60499SOL     OW83270  11.137   6.588   1.503
60499SOL    HW183271  11.084   6.598   1.582
60499SOL    HW283272  11.212   6.646   1.518
60500SOL     OW83273   2.696   0.096  12.006
60500SOL    HW183274   2.734   0.144  11.933
60500SOL    HW283275   2.603   0.117  12.004
60501SOL     OW83276   9.953  10.367   0.104
60501SOL    HW183277   9.888  10.361   0.034
60501SOL    HW283278   9.959  10.278   0.138
60502SOL     OW83279   0.108   5.624   3.277
60502SOL    HW183280   0.130   5.607   3.368
60502SOL    HW283281   0.137   5.714   3.261
60503SOL     OW83282   9.162   4.884  10.585
60503SOL    HW183283   9.149   4.968  10.543
60503SOL    HW283284   9.084   4.833  10.563
60504SOL     OW83285   1.372   4.081   8.231
60504SOL    HW183286   1.313   4.056   8.160
60504SOL    HW283287   1.460   4.067   8.195
60505SOL     OW83288   6.646   6.882  11.458
60505SOL    HW183289   6.742   6.876  11.465
60505SOL    HW283290   6.621   6.805  11.408
60506SOL     OW83291   0.259   5.825  12.857
60506SOL    HW183292   0.211   5.857  12.933
60506SOL    HW283293   0.212   5.863  12.782
60507SOL     OW83294  13.519   9.210   7.239
60507SOL    HW183295  13.471   9.146   7.291
60507SOL    HW283296  13.454   9.245   7.179
60508SOL     OW83297   1.905   5.364   2.599
60508SOL    HW183298   1.878   5.319   2.678
60508SOL    HW283299   1.995   5.392   2.616
60509SOL     OW83300   7.992  14.408   0.506
60509SOL    HW183301   7.899  14.428   0.510
60509SOL    HW283302   8.010  14.362   0.588
60510SOL     OW83303   7.769  14.145   1.424
60510SOL    HW183304   7.687  14.162   1.471
60510SOL    HW283305   7.834  14.198   1.469
60511SOL     OW83306   9.482   1.773   1.702
60511SOL    HW183307   9.554   1.796   1.642
60511SOL    HW283308   9.511   1.806   1.787
60512SOL     OW83309   1.738   8.604   8.617
60512SOL    HW183310   1.647   8.612   8.646
60512SOL    HW283311   1.733   8.551   8.537
60513SOL     OW83312  13.565  12.857   1.545
60513SOL    HW183313  13.496  12.797   1.574
60513SOL    HW283314  13.541  12.941   1.584
60514SOL     OW83315   0.154   2.925   8.543
60514SOL    HW183316   0.203   2.986   8.598
60514SOL    HW283317   0.106   2.870   8.604
60515SOL     OW83318  10.714   3.891  12.811
60515SOL    HW183319  10.733   3.982  12.832
60515SOL    HW283320  10.765   3.841  12.875
60516SOL     OW83321  11.935  13.734  12.063
60516SOL    HW183322  11.924  13.783  11.982
60516SOL    HW283323  11.940  13.801  12.131
60517SOL     OW83324   6.477   0.582   3.533
60517SOL    HW183325   6.503   0.673   3.542
60517SOL    HW283326   6.390   0.577   3.574
60518SOL     OW83327   4.731  11.044   7.584
60518SOL    HW183328   4.799  11.079   7.527
60518SOL    HW283329   4.661  11.109   7.579
60519SOL     OW83330   3.705  14.312  14.435
60519SOL    HW183331   3.758  14.308  14.356
60519SOL    HW283332   3.754  14.261  14.500
60520SOL     OW83333  10.255  10.541   0.508
60520SOL    HW183334  10.174  10.497   0.534
60520SOL    HW283335  10.269  10.608   0.575
60521SOL     OW83336  12.818   9.627  14.072
60521SOL    HW183337  12.757   9.563  14.035
60521SOL    HW283338  12.904   9.589  14.057
60522SOL     OW83339  10.443   9.321  14.826
60522SOL    HW183340  10.433   9.403  14.778
60522SOL    HW283341  10.527   9.329  14.872
60523SOL     OW83342  10.896   2.705  10.267
60523SOL    HW183343  10.978   2.696  10.316
60523SOL    HW283344  10.828   2.679  10.329
60524SOL     OW83345  12.514  13.904  14.628
60524SOL    HW183346  12.538  13.820  14.667
60524SOL    HW283347  12.426  13.922  14.662
60525SOL     OW83348   6.637  14.243   1.959
60525SOL    HW183349   6.653  14.203   2.045
60525SOL    HW283350   6.547  14.275   1.964
60526SOL     OW83351  12.568   3.554  12.416
60526SOL    HW183352  12.642   3.542  12.357
60526SOL    HW283353  12.528   3.636  12.387
60527SOL     OW83354   1.441  14.507  13.607
60527SOL    HW183355   1.371  14.450  13.639
60527SOL    HW283356   1.401  14.594  13.603
60528SOL     OW83357   5.402  10.232  11.610
60528SOL    HW183358   5.394  10.272  11.696
60528SOL    HW283359   5.438  10.301  11.555
60529SOL     OW83360   2.758  13.575   3.182
60529SOL    HW183361   2.717  13.498   3.142
60529SOL    HW283362   2.713  13.649   3.143
60530SOL     OW83363   5.992  14.593  13.086
60530SOL    HW183364   5.920  14.621  13.030
60530SOL    HW283365   6.056  14.555  13.026
60531SOL     OW83366   8.312   4.929  12.344
60531SOL    HW183367   8.404   4.902  12.350
60531SOL    HW283368   8.310   5.015  12.385
60532SOL     OW83369  10.711   9.992   4.162
60532SOL    HW183370  10.719   9.926   4.094
60532SOL    HW283371  10.793   9.986   4.212
60533SOL     OW83372   0.837   3.009   5.866
60533SOL    HW183373   0.875   3.066   5.932
60533SOL    HW283374   0.781   2.949   5.915
60534SOL     OW83375   6.460   8.436  12.606
60534SOL    HW183376   6.535   8.492  12.586
60534SOL    HW283377   6.404   8.491  12.662
60535SOL     OW83378   0.805   9.762   1.710
60535SOL    HW183379   0.890   9.779   1.749
60535SOL    HW283380   0.815   9.677   1.667
60536SOL     OW83381  10.131   2.618   9.984
60536SOL    HW183382  10.186   2.688   9.950
60536SOL    HW283383  10.091   2.655  10.063
60537SOL     OW83384  13.982   1.330   8.034
60537SOL    HW183385  13.992   1.304   7.942
60537SOL    HW283386  14.018   1.418   8.038
60538SOL     OW83387   8.395   4.637  11.442
60538SOL    HW183388   8.459   4.605  11.378
60538SOL    HW283389   8.385   4.730  11.421
60539SOL     OW83390   2.455   2.663  13.704
60539SOL    HW183391   2.443   2.600  13.776
60539SOL    HW283392   2.461   2.748  13.748
60540SOL     OW83393   7.777  12.903   1.907
60540SOL    HW183394   7.804  12.963   1.837
60540SOL    HW283395   7.704  12.948   1.950
60541SOL     OW83396  12.204  13.586  12.565
60541SOL    HW183397  12.112  13.568  12.585
60541SOL    HW283398  12.249  13.504  12.586
60542SOL     OW83399   0.946   4.445  12.196
60542SOL    HW183400   1.025   4.414  12.240
60542SOL    HW283401   0.969   4.446  12.104
60543SOL     OW83402   3.606  12.956  12.999
60543SOL    HW183403   3.531  13.008  13.028
60543SOL    HW283404   3.568  12.870  12.977
60544SOL     OW83405   9.387   5.469   4.374
60544SOL    HW183406   9.409   5.422   4.455
60544SOL    HW283407   9.296   5.447   4.358
60545SOL     OW83408  13.065   8.350  10.886
60545SOL    HW183409  13.140   8.315  10.837
60545SOL    HW283410  13.028   8.417  10.828
60546SOL     OW83411   0.839  14.445   8.262
60546SOL    HW183412   0.913  14.385   8.271
60546SOL    HW283413   0.846  14.504   8.337
60547SOL     OW83414  14.819   6.746   5.470
60547SOL    HW183415  14.876   6.694   5.413
60547SOL    HW283416  14.862   6.742   5.556
60548SOL     OW83417   1.694   2.870   8.549
60548SOL    HW183418   1.765   2.879   8.613
60548SOL    HW283419   1.706   2.782   8.513
60549SOL     OW83420   9.073  11.711   6.347
60549SOL    HW183421   9.147  11.677   6.397
60549SOL    HW283422   9.015  11.749   6.413
60550SOL     OW83423   5.612   9.362  11.977
60550SOL    HW183424   5.601   9.267  11.969
60550SOL    HW283425   5.611   9.378  12.072
60551SOL     OW83426  13.388  11.134   9.564
60551SOL    HW183427  13.362  11.158   9.652
60551SOL    HW283428  13.351  11.047   9.551
60552SOL     OW83429   3.974   9.223   7.062
60552SOL    HW183430   3.910   9.261   7.122
60552SOL    HW283431   3.922   9.174   6.999
60553SOL     OW83432  12.284  11.436   8.190
60553SOL    HW183433  12.355  11.500   8.197
60553SOL    HW283434  12.259  11.418   8.281
60554SOL     OW83435  14.341   8.009   9.063
60554SOL    HW183436  14.377   8.020   8.974
60554SOL    HW283437  14.252   8.045   9.056
60555SOL     OW83438  13.649   7.522   8.965
60555SOL    HW183439  13.697   7.590   9.012
60555SOL    HW283440  13.557   7.541   8.983
60556SOL     OW83441  11.255   6.792   4.170
60556SOL    HW183442  11.346   6.819   4.155
60556SOL    HW283443  11.241   6.806   4.263
60557SOL     OW83444  14.536   9.143  12.729
60557SOL    HW183445  14.455   9.145  12.780
60557SOL    HW283446  14.600   9.190  12.782
60558SOL     OW83447   8.547   8.931  12.144
60558SOL    HW183448   8.637   8.945  12.114
60558SOL    HW283449   8.546   8.840  12.175
60559SOL     OW83450  12.622   1.985   6.498
60559SOL    HW183451  12.543   1.987   6.444
60559SOL    HW283452  12.629   2.073   6.534
60560SOL     OW83453  10.685  14.225   1.471
60560SOL    HW183454  10.632  14.299   1.440
60560SOL    HW283455  10.674  14.158   1.404
60561SOL     OW83456   4.439   9.281   0.842
60561SOL    HW183457   4.474   9.205   0.796
60561SOL    HW283458   4.344   9.271   0.837
60562SOL     OW83459   7.160  14.304   0.091
60562SOL    HW183460   7.168  14.273   0.001
60562SOL    HW283461   7.149  14.224   0.143
60563SOL     OW83462   3.642   2.910  13.801
60563SOL    HW183463   3.673   2.961  13.726
60563SOL    HW283464   3.668   2.962  13.877
60564SOL     OW83465   8.276   1.202   3.352
60564SOL    HW183466   8.245   1.219   3.441
60564SOL    HW283467   8.367   1.173   3.364
60565SOL     OW83468  11.415  12.269   9.121
60565SOL    HW183469  11.375  12.208   9.183
60565SOL    HW283470  11.392  12.355   9.154
60566SOL     OW83471   9.455  12.516   8.426
60566SOL    HW183472   9.434  12.605   8.397
60566SOL    HW283473   9.542  12.499   8.390
60567SOL     OW83474   5.737   7.473   5.122
60567SOL    HW183475   5.664   7.431   5.169
60567SOL    HW283476   5.741   7.561   5.159
60568SOL     OW83477  14.807   7.199  13.202
60568SOL    HW183478  14.717   7.175  13.181
60568SOL    HW283479  14.842   7.236  13.121
60569SOL     OW83480   5.859  11.593   8.654
60569SOL    HW183481   5.811  11.646   8.590
60569SOL    HW283482   5.907  11.657   8.706
60570SOL     OW83483   1.291  13.410   8.569
60570SOL    HW183484   1.254  13.498   8.576
60570SOL    HW283485   1.366  13.420   8.510
60571SOL     OW83486   9.312   5.893   2.131
60571SOL    HW183487   9.270   5.931   2.053
60571SOL    HW283488   9.405   5.894   2.111
60572SOL     OW83489  12.707   5.145   4.833
60572SOL    HW183490  12.618   5.178   4.825
60572SOL    HW283491  12.704   5.058   4.795
60573SOL     OW83492  12.551   9.573   8.483
60573SOL    HW183493  12.550   9.488   8.438
60573SOL    HW283494  12.610   9.626   8.430
60574SOL     OW83495   5.581  11.951   9.395
60574SOL    HW183496   5.545  12.038   9.410
60574SOL    HW283497   5.505  11.893   9.392
60575SOL     OW83498   7.191   2.026  12.664
60575SOL    HW183499   7.151   2.071  12.590
60575SOL    HW283500   7.211   1.938  12.632
60576SOL     OW83501   6.831  13.824   7.356
60576SOL    HW183502   6.741  13.824   7.322
60576SOL    HW283503   6.821  13.804   7.449
60577SOL     OW83504  12.458   2.825  12.953
60577SOL    HW183505  12.507   2.903  12.981
60577SOL    HW283506  12.395   2.811  13.023
60578SOL     OW83507  12.495  12.994   2.501
60578SOL    HW183508  12.430  13.033   2.560
60578SOL    HW283509  12.577  12.994   2.551
60579SOL     OW83510   2.016   8.252  10.950
60579SOL    HW183511   2.053   8.285  11.032
60579SOL    HW283512   2.011   8.157  10.963
60580SOL     OW83513  14.245   1.466   2.923
60580SOL    HW183514  14.264   1.374   2.943
60580SOL    HW283515  14.180   1.492   2.988
60581SOL     OW83516  14.540  13.128   6.744
60581SOL    HW183517  14.582  13.213   6.763
60581SOL    HW283518  14.457  13.132   6.790
60582SOL     OW83519   6.540   8.898  13.399
60582SOL    HW183520   6.446   8.917  13.409
60582SOL    HW283521   6.546   8.803  13.407
60583SOL     OW83522  13.178   0.309  13.033
60583SOL    HW183523  13.126   0.372  13.081
60583SOL    HW283524  13.258   0.357  13.008
60584SOL     OW83525   0.910  14.642   0.988
60584SOL    HW183526   0.996  14.639   1.032
60584SOL    HW283527   0.872  14.556   1.003
60585SOL     OW83528  12.422   9.700   9.535
60585SOL    HW183529  12.415   9.606   9.552
60585SOL    HW283530  12.409   9.742   9.620
60586SOL     OW83531   6.347   3.295   7.954
60586SOL    HW183532   6.393   3.375   7.980
60586SOL    HW283533   6.384   3.227   8.010
60587SOL     OW83534  10.083   2.058  14.566
60587SOL    HW183535  10.060   2.128  14.505
60587SOL    HW283536  10.005   2.002  14.568
60588SOL     OW83537  11.027   7.076   8.255
60588SOL    HW183538  10.979   7.029   8.323
60588SOL    HW283539  11.042   7.163   8.291
60589SOL     OW83540  13.147   0.988   2.722
60589SOL    HW183541  13.178   1.059   2.665
60589SOL    HW283542  13.210   0.986   2.794
60590SOL     OW83543  13.093   4.738   9.787
60590SOL    HW183544  13.126   4.827   9.771
60590SOL    HW283545  12.999   4.750   9.800
60591SOL     OW83546   6.955   4.979  13.130
60591SOL    HW183547   6.958   4.994  13.036
60591SOL    HW283548   6.886   4.914  13.143
60592SOL     OW83549  13.932   2.485   4.407
60592SOL    HW183550  13.983   2.463   4.485
60592SOL    HW283551  13.944   2.410   4.349
60593SOL     OW83552   2.457  11.007  13.911
60593SOL    HW183553   2.384  10.962  13.869
60593SOL    HW283554   2.451  11.098  13.879
60594SOL     OW83555   4.241   0.060   8.820
60594SOL    HW183556   4.208   0.102   8.741
60594SOL    HW283557   4.243   0.130   8.886
60595SOL     OW83558   8.857   5.283   5.100
60595SOL    HW183559   8.910   5.219   5.052
60595SOL    HW283560   8.857   5.252   5.190
60596SOL     OW83561  14.169   0.611  12.472
60596SOL    HW183562  14.192   0.556  12.397
60596SOL    HW283563  14.150   0.696  12.434
60597SOL     OW83564  13.634   0.092   4.939
60597SOL    HW183565  13.574   0.162   4.915
60597SOL    HW283566  13.594   0.013   4.902
60598SOL     OW83567   8.797   4.646  13.117
60598SOL    HW183568   8.758   4.563  13.088
60598SOL    HW283569   8.836   4.625  13.202
60599SOL     OW83570   7.004  13.074   4.187
60599SOL    HW183571   6.961  13.012   4.246
60599SOL    HW283572   6.968  13.159   4.211
60600SOL     OW83573   8.668  10.557   4.657
60600SOL    HW183574   8.688  10.607   4.736
60600SOL    HW283575   8.744  10.500   4.645
60601SOL     OW83576   5.984   8.557   7.423
60601SOL    HW183577   6.011   8.495   7.491
60601SOL    HW283578   5.909   8.604   7.460
60602SOL     OW83579   8.332  10.007   2.619
60602SOL    HW183580   8.338   9.937   2.684
60602SOL    HW283581   8.244  10.041   2.629
60603SOL     OW83582  12.232  10.178   8.018
60603SOL    HW183583  12.215  10.134   8.101
60603SOL    HW283584  12.206  10.268   8.033
60604SOL     OW83585  13.751   4.692  10.564
60604SOL    HW183586  13.716   4.720  10.649
60604SOL    HW283587  13.843   4.716  10.567
60605SOL     OW83588   8.065   3.345   7.267
60605SOL    HW183589   8.160   3.345   7.256
60605SOL    HW283590   8.039   3.256   7.242
60606SOL     OW83591   3.478   8.764   5.954
60606SOL    HW183592   3.519   8.679   5.940
60606SOL    HW283593   3.419   8.750   6.028
60607SOL     OW83594  13.164  10.984   7.902
60607SOL    HW183595  13.215  11.047   7.953
60607SOL    HW283596  13.188  11.003   7.811
60608SOL     OW83597   7.336   3.901   3.210
60608SOL    HW183598   7.411   3.959   3.217
60608SOL    HW283599   7.373   3.813   3.198
60609SOL     OW83600   7.622   3.029  12.186
60609SOL    HW183601   7.705   3.021  12.139
60609SOL    HW283602   7.560   2.977  12.134
60610SOL     OW83603  10.555  12.107   4.144
60610SOL    HW183604  10.570  12.169   4.072
60610SOL    HW283605  10.563  12.160   4.223
60611SOL     OW83606   2.035   8.716   4.468
60611SOL    HW183607   1.962   8.777   4.456
60611SOL    HW283608   2.108   8.770   4.498
60612SOL     OW83609  10.554   4.689   5.169
60612SOL    HW183610  10.487   4.757   5.180
60612SOL    HW283611  10.636   4.737   5.162
60613SOL     OW83612  10.512  14.291  12.110
60613SOL    HW183613  10.597  14.250  12.094
60613SOL    HW283614  10.455  14.256  12.041
60614SOL     OW83615   9.523   0.674  11.794
60614SOL    HW183616   9.595   0.705  11.740
60614SOL    HW283617   9.508   0.744  11.858
60615SOL     OW83618  12.749  13.262   4.748
60615SOL    HW183619  12.760  13.297   4.660
60615SOL    HW283620  12.838  13.262   4.785
60616SOL     OW83621   9.838  10.254  12.693
60616SOL    HW183622   9.933  10.259  12.682
60616SOL    HW283623   9.813  10.343  12.719
60617SOL     OW83624  12.686   0.525   9.706
60617SOL    HW183625  12.730   0.480   9.634
60617SOL    HW283626  12.671   0.613   9.674
60618SOL     OW83627   2.172   5.632   4.382
60618SOL    HW183628   2.218   5.712   4.405
60618SOL    HW283629   2.157   5.587   4.465
60619SOL     OW83630   6.386   2.760   4.732
60619SOL    HW183631   6.392   2.708   4.651
60619SOL    HW283632   6.422   2.845   4.708
60620SOL     OW83633   0.187  13.859  10.379
60620SOL    HW183634   0.175  13.774  10.338
60620SOL    HW283635   0.146  13.851  10.465
60621SOL     OW83636   9.986   4.214   4.626
60621SOL    HW183637   9.969   4.121   4.637
60621SOL    HW283638  10.078   4.225   4.653
60622SOL     OW83639   2.058  12.528  10.541
60622SOL    HW183640   1.980  12.578  10.563
60622SOL    HW283641   2.127  12.594  10.532
60623SOL     OW83642   0.712   1.921   9.845
60623SOL    HW183643   0.711   1.871   9.764
60623SOL    HW283644   0.799   1.903   9.883
60624SOL     OW83645  11.824  12.514   1.618
60624SOL    HW183646  11.872  12.440   1.655
60624SOL    HW283647  11.738  12.478   1.596
60625SOL     OW83648  14.425   1.792   7.141
60625SOL    HW183649  14.367   1.794   7.065
60625SOL    HW283650  14.402   1.869   7.192
60626SOL     OW83651  14.309  12.096   7.785
60626SOL    HW183652  14.221  12.066   7.762
60626SOL    HW283653  14.368  12.035   7.741
60627SOL     OW83654  12.864   9.050   1.926
60627SOL    HW183655  12.925   8.978   1.911
60627SOL    HW283656  12.821   9.028   2.009
60628SOL     OW83657   2.602   5.120   9.499
60628SOL    HW183658   2.543   5.191   9.525
60628SOL    HW283659   2.641   5.090   9.581
60629SOL     OW83660   2.437   4.490   4.794
60629SOL    HW183661   2.356   4.527   4.831
60629SOL    HW283662   2.460   4.549   4.722
60630SOL     OW83663  10.636  13.378   6.232
60630SOL    HW183664  10.702  13.447   6.225
60630SOL    HW283665  10.648  13.341   6.319
60631SOL     OW83666   7.415   8.012   1.311
60631SOL    HW183667   7.486   8.050   1.259
60631SOL    HW283668   7.451   8.007   1.400
60632SOL     OW83669   3.191  11.303   5.652
60632SOL    HW183670   3.201  11.215   5.615
60632SOL    HW283671   3.228  11.296   5.740
60633SOL     OW83672  14.505  11.836  13.874
60633SOL    HW183673  14.597  11.857  13.857
60633SOL    HW283674  14.456  11.896  13.818
60634SOL     OW83675   3.611   9.570   3.614
60634SOL    HW183676   3.642   9.526   3.693
60634SOL    HW283677   3.538   9.625   3.643
60635SOL     OW83678   0.969   5.111   6.330
60635SOL    HW183679   0.945   5.094   6.421
60635SOL    HW283680   1.065   5.106   6.330
60636SOL     OW83681  14.346  10.876  12.063
60636SOL    HW183682  14.264  10.849  12.023
60636SOL    HW283683  14.367  10.960  12.021
60637SOL     OW83684  13.252   4.951   2.193
60637SOL    HW183685  13.201   4.871   2.210
60637SOL    HW283686  13.293   4.935   2.108
60638SOL     OW83687   8.961   5.613   8.380
60638SOL    HW183688   8.958   5.708   8.394
60638SOL    HW283689   9.051   5.589   8.400
60639SOL     OW83690   2.482   8.896   3.191
60639SOL    HW183691   2.571   8.927   3.208
60639SOL    HW283692   2.456   8.940   3.110
60640SOL     OW83693   0.400   9.499  11.313
60640SOL    HW183694   0.457   9.429  11.346
60640SOL    HW283695   0.459   9.572  11.296
60641SOL     OW83696   9.754   5.027  14.770
60641SOL    HW183697   9.750   5.122  14.771
60641SOL    HW283698   9.782   5.003  14.859
60642SOL     OW83699  13.226   1.948   9.073
60642SOL    HW183700  13.136   1.930   9.045
60642SOL    HW283701  13.263   2.000   9.002
60643SOL     OW83702   7.701   1.542   4.091
60643SOL    HW183703   7.764   1.484   4.134
60643SOL    HW283704   7.669   1.599   4.161
60644SOL     OW83705  14.425   3.395  10.567
60644SOL    HW183706  14.346   3.427  10.524
60644SOL    HW283707  14.489   3.465  10.555
60645SOL     OW83708   5.018  12.353   5.493
60645SOL    HW183709   5.105  12.313   5.483
60645SOL    HW283710   4.975  12.302   5.561
60646SOL     OW83711   5.980   0.173   0.463
60646SOL    HW183712   5.976   0.152   0.557
60646SOL    HW283713   6.071   0.158   0.439
60647SOL     OW83714  10.442  11.242   4.000
60647SOL    HW183715  10.381  11.294   4.052
60647SOL    HW283716  10.472  11.302   3.931
60648SOL     OW83717   2.165   3.452   7.536
60648SOL    HW183718   2.105   3.422   7.468
60648SOL    HW283719   2.192   3.539   7.508
60649SOL     OW83720   3.578   7.298   7.108
60649SOL    HW183721   3.549   7.300   7.017
60649SOL    HW283722   3.673   7.289   7.103
60650SOL     OW83723  14.599   6.370  11.481
60650SOL    HW183724  14.626   6.354  11.390
60650SOL    HW283725  14.554   6.290  11.507
60651SOL     OW83726  12.451   7.330   2.857
60651SOL    HW183727  12.471   7.351   2.766
60651SOL    HW283728  12.509   7.257   2.878
60652SOL     OW83729   2.064   2.467   0.005
60652SOL    HW183730   2.091   2.383   0.041
60652SOL    HW283731   2.100   2.532   0.065
60653SOL     OW83732   6.063   8.549   3.785
60653SOL    HW183733   5.969   8.556   3.775
60653SOL    HW283734   6.084   8.458   3.763
60654SOL     OW83735  13.208  10.901   1.051
60654SOL    HW183736  13.256  10.871   0.974
60654SOL    HW283737  13.120  10.864   1.041
60655SOL     OW83738   0.170   4.865   5.427
60655SOL    HW183739   0.224   4.915   5.366
60655SOL    HW283740   0.081   4.898   5.414
60656SOL     OW83741   6.851   2.913   7.537
60656SOL    HW183742   6.946   2.925   7.542
60656SOL    HW283743   6.828   2.870   7.620
60657SOL     OW83744   4.087  14.132   4.197
60657SOL    HW183745   4.096  14.219   4.156
60657SOL    HW283746   4.017  14.090   4.148
60658SOL     OW83747   6.142  14.030  10.185
60658SOL    HW183748   6.193  13.955  10.156
60658SOL    HW283749   6.146  14.092  10.111
60659SOL     OW83750  10.379   1.913   8.761
60659SOL    HW183751  10.313   1.860   8.806
60659SOL    HW283752  10.374   1.999   8.802
60660SOL     OW83753  11.259   5.875  12.890
60660SOL    HW183754  11.166   5.853  12.903
60660SOL    HW283755  11.303   5.836  12.965
60661SOL     OW83756  10.325  10.968   9.845
60661SOL    HW183757  10.389  10.910   9.886
60661SOL    HW283758  10.375  11.014   9.777
60662SOL     OW83759   4.340   2.212   6.567
60662SOL    HW183760   4.282   2.274   6.523
60662SOL    HW283761   4.286   2.133   6.579
60663SOL     OW83762  12.634   1.346   3.456
60663SOL    HW183763  12.649   1.383   3.369
60663SOL    HW283764  12.607   1.420   3.510
60664SOL     OW83765   5.985   5.055  12.431
60664SOL    HW183766   6.001   5.029  12.521
60664SOL    HW283767   6.072   5.064  12.392
60665SOL     OW83768   0.326   6.526   2.749
60665SOL    HW183769   0.388   6.597   2.734
60665SOL    HW283770   0.331   6.508   2.843
60666SOL     OW83771  12.374   5.670  12.487
60666SOL    HW183772  12.363   5.622  12.569
60666SOL    HW283773  12.292   5.658  12.440
60667SOL     OW83774  11.021   4.468   3.626
60667SOL    HW183775  10.945   4.514   3.660
60667SOL    HW283776  11.011   4.378   3.657
60668SOL     OW83777  10.369  14.359   9.953
60668SOL    HW183778  10.318  14.422   9.904
60668SOL    HW283779  10.304  14.307  10.001
60669SOL     OW83780   7.149  12.465   7.933
60669SOL    HW183781   7.097  12.537   7.970
60669SOL    HW283782   7.117  12.456   7.843
60670SOL     OW83783   6.642   7.819   2.631
60670SOL    HW183784   6.627   7.907   2.596
60670SOL    HW283785   6.736   7.815   2.645
60671SOL     OW83786   7.926   3.170   4.283
60671SOL    HW183787   7.900   3.253   4.323
60671SOL    HW283788   7.852   3.112   4.300
60672SOL     OW83789   9.156  13.693   4.667
60672SOL    HW183790   9.242  13.679   4.626
60672SOL    HW283791   9.113  13.607   4.661
60673SOL     OW83792  14.725  12.028  10.341
60673SOL    HW183793  14.712  11.978  10.260
60673SOL    HW283794  14.820  12.035  10.351
60674SOL     OW83795   6.386   4.776   9.329
60674SOL    HW183796   6.333   4.856   9.324
60674SOL    HW283797   6.327   4.710   9.364
60675SOL     OW83798  11.858  10.544  11.136
60675SOL    HW183799  11.893  10.530  11.224
60675SOL    HW283800  11.935  10.560  11.082
60676SOL     OW83801   1.204  13.397   1.315
60676SOL    HW183802   1.248  13.481   1.299
60676SOL    HW283803   1.120  13.422   1.353
60677SOL     OW83804   3.487  12.104   2.029
60677SOL    HW183805   3.517  12.182   1.982
60677SOL    HW283806   3.439  12.054   1.964
60678SOL     OW83807  12.869   3.936   9.088
60678SOL    HW183808  12.788   3.968   9.050
60678SOL    HW283809  12.866   3.841   9.076
60679SOL     OW83810   2.657   1.910   8.833
60679SOL    HW183811   2.659   1.958   8.916
60679SOL    HW283812   2.691   1.972   8.768
60680SOL     OW83813  10.060  14.494  12.406
60680SOL    HW183814  10.144  14.527  12.373
60680SOL    HW283815  10.079  14.466  12.495
60681SOL     OW83816   5.607   1.056   0.006
60681SOL    HW183817   5.529   1.065  14.829
60681SOL    HW283818   5.578   1.084   0.093
60682SOL     OW83819   3.164   7.293   3.145
60682SOL    HW183820   3.180   7.227   3.212
60682SOL    HW283821   3.247   7.300   3.098
60683SOL     OW83822   8.808  10.563   4.881
60683SOL    HW183823   8.779  10.555   4.972
60683SOL    HW283824   8.844  10.477   4.860
60684SOL     OW83825   5.122   3.523   9.190
60684SOL    HW183826   5.134   3.549   9.281
60684SOL    HW283827   5.198   3.558   9.144
60685SOL     OW83828   2.433   6.022  11.837
60685SOL    HW183829   2.361   5.986  11.784
60685SOL    HW283830   2.392   6.092  11.888
60686SOL     OW83831   3.984   5.543   7.589
60686SOL    HW183832   4.070   5.535   7.548
60686SOL    HW283833   3.947   5.622   7.549
60687SOL     OW83834   5.227   6.491   3.788
60687SOL    HW183835   5.158   6.539   3.741
60687SOL    HW283836   5.219   6.521   3.879
60688SOL     OW83837   8.096   8.955   6.451
60688SOL    HW183838   8.074   8.964   6.544
60688SOL    HW283839   8.022   8.996   6.405
60689SOL     OW83840   2.212   7.021   9.625
60689SOL    HW183841   2.184   6.954   9.563
60689SOL    HW283842   2.235   6.972   9.704
60690SOL     OW83843   3.375   5.389   3.369
60690SOL    HW183844   3.399   5.468   3.416
60690SOL    HW283845   3.458   5.345   3.351
60691SOL     OW83846   0.542   1.511   5.723
60691SOL    HW183847   0.616   1.463   5.761
60691SOL    HW283848   0.481   1.443   5.696
60692SOL     OW83849   8.487   7.881   7.377
60692SOL    HW183850   8.534   7.924   7.448
60692SOL    HW283851   8.555   7.852   7.317
60693SOL     OW83852  13.057   1.635   5.259
60693SOL    HW183853  13.114   1.701   5.220
60693SOL    HW283854  12.989   1.620   5.194
60694SOL     OW83855   6.094  10.072   1.319
60694SOL    HW183856   6.044  10.073   1.401
60694SOL    HW283857   6.049  10.008   1.264
60695SOL     OW83858   3.045  13.757   9.225
60695SOL    HW183859   2.976  13.714   9.173
60695SOL    HW283860   3.093  13.685   9.265
60696SOL     OW83861  10.351  13.987  10.478
60696SOL    HW183862  10.282  13.922  10.464
60696SOL    HW283863  10.304  14.066  10.503
60697SOL     OW83864   8.366  10.761  13.658
60697SOL    HW183865   8.436  10.780  13.596
60697SOL    HW283866   8.362  10.666  13.662
60698SOL     OW83867   7.460  11.868   9.266
60698SOL    HW183868   7.389  11.815   9.232
60698SOL    HW283869   7.452  11.951   9.219
60699SOL     OW83870   4.248   7.980   9.202
60699SOL    HW183871   4.216   7.950   9.287
60699SOL    HW283872   4.341   7.999   9.216
60700SOL     OW83873   2.052   9.750   6.605
60700SOL    HW183874   2.045   9.660   6.638
60700SOL    HW283875   1.999   9.802   6.665
60701SOL     OW83876   5.562   0.410   6.493
60701SOL    HW183877   5.497   0.341   6.485
60701SOL    HW283878   5.514   0.484   6.530
60702SOL     OW83879   6.643   8.633  11.349
60702SOL    HW183880   6.698   8.660  11.423
60702SOL    HW283881   6.591   8.711  11.329
60703SOL     OW83882   1.445   2.766  12.677
60703SOL    HW183883   1.376   2.739  12.617
60703SOL    HW283884   1.480   2.684  12.712
60704SOL     OW83885   6.334   1.291   7.433
60704SOL    HW183886   6.347   1.385   7.420
60704SOL    HW283887   6.310   1.282   7.525
60705SOL     OW83888  10.963  10.076   6.929
60705SOL    HW183889  10.906  10.045   6.999
60705SOL    HW283890  11.024  10.004   6.913
60706SOL     OW83891   6.131  11.330   6.102
60706SOL    HW183892   6.138  11.404   6.162
60706SOL    HW283893   6.039  11.304   6.106
60707SOL     OW83894   7.341   4.931   7.064
60707SOL    HW183895   7.373   4.857   7.115
60707SOL    HW283896   7.418   4.961   7.015
60708SOL     OW83897  14.660   2.497   5.197
60708SOL    HW183898  14.640   2.469   5.286
60708SOL    HW283899  14.689   2.418   5.152
60709SOL     OW83900   2.891   6.997   9.911
60709SOL    HW183901   2.806   6.954   9.918
60709SOL    HW283902   2.872   7.090   9.906
60710SOL     OW83903  10.114  13.218   8.137
60710SOL    HW183904  10.089  13.222   8.045
60710SOL    HW283905  10.062  13.147   8.173
60711SOL     OW83906   0.407   0.123   1.763
60711SOL    HW183907   0.406   0.108   1.858
60711SOL    HW283908   0.398   0.218   1.754
60712SOL     OW83909  12.219  14.262   5.932
60712SOL    HW183910  12.254  14.305   5.854
60712SOL    HW283911  12.132  14.232   5.907
60713SOL     OW83912  13.565   7.823  13.752
60713SOL    HW183913  13.579   7.805  13.659
60713SOL    HW283914  13.584   7.740  13.795
60714SOL     OW83915   5.972  12.204   6.072
60714SOL    HW183916   6.017  12.289   6.062
60714SOL    HW283917   5.969  12.189   6.166
60715SOL     OW83918   5.042  10.257  12.981
60715SOL    HW183919   5.094  10.203  12.921
60715SOL    HW283920   5.067  10.347  12.960
60716SOL     OW83921   3.528   5.253   2.425
60716SOL    HW183922   3.618   5.225   2.440
60716SOL    HW283923   3.493   5.271   2.512
60717SOL     OW83924   1.564   1.446  13.746
60717SOL    HW183925   1.614   1.384  13.799
60717SOL    HW283926   1.498   1.392  13.702
60718SOL     OW83927   7.339   6.453  12.788
60718SOL    HW183928   7.384   6.383  12.836
60718SOL    HW283929   7.405   6.485  12.726
60719SOL     OW83930   6.873  11.601   1.914
60719SOL    HW183931   6.876  11.666   1.984
60719SOL    HW283932   6.833  11.524   1.954
60720SOL     OW83933   4.700   1.173   0.499
60720SOL    HW183934   4.791   1.205   0.494
60720SOL    HW283935   4.649   1.252   0.519
60721SOL     OW83936   8.786   3.744  10.290
60721SOL    HW183937   8.740   3.706  10.365
60721SOL    HW283938   8.728   3.728  10.216
60722SOL     OW83939  10.546   9.771   4.690
60722SOL    HW183940  10.482   9.742   4.624
60722SOL    HW283941  10.547   9.866   4.682
60723SOL     OW83942  11.626   7.474   2.792
60723SOL    HW183943  11.575   7.539   2.743
60723SOL    HW283944  11.716   7.486   2.760
60724SOL     OW83945  12.755  11.335   7.398
60724SOL    HW183946  12.743  11.429   7.382
60724SOL    HW283947  12.666  11.299   7.396
60725SOL     OW83948   8.559   2.688   9.402
60725SOL    HW183949   8.550   2.643   9.486
60725SOL    HW283950   8.646   2.662   9.370
60726SOL     OW83951   8.858   9.016  13.834
60726SOL    HW183952   8.875   8.937  13.782
60726SOL    HW283953   8.824   8.983  13.917
60727SOL     OW83954   7.126   5.567   6.637
60727SOL    HW183955   7.204   5.611   6.672
60727SOL    HW283956   7.159   5.484   6.603
60728SOL     OW83957   5.498  13.649   1.222
60728SOL    HW183958   5.450  13.642   1.304
60728SOL    HW283959   5.587  13.620   1.243
60729SOL     OW83960  10.064  13.934   5.297
60729SOL    HW183961   9.990  13.879   5.324
60729SOL    HW283962  10.114  13.947   5.377
60730SOL     OW83963  11.587  10.844   5.532
60730SOL    HW183964  11.565  10.775   5.595
60730SOL    HW283965  11.551  10.812   5.449
60731SOL     OW83966   2.662  12.747   9.982
60731SOL    HW183967   2.748  12.780   9.954
60731SOL    HW283968   2.600  12.810   9.949
60732SOL     OW83969  14.478  13.434   6.753
60732SOL    HW183970  14.458  13.512   6.701
60732SOL    HW283971  14.405  13.374   6.735
60733SOL     OW83972   2.805  14.616  14.010
60733SOL    HW183973   2.720  14.660  14.016
60733SOL    HW283974   2.823  14.586  14.099
60734SOL     OW83975   2.318   1.205  12.993
60734SOL    HW183976   2.255   1.236  12.928
60734SOL    HW283977   2.271   1.210  13.077
60735SOL     OW83978   2.320   1.608   2.924
60735SOL    HW183979   2.267   1.530   2.908
60735SOL    HW283980   2.406   1.586   2.889
60736SOL     OW83981   8.234  13.727  10.811
60736SOL    HW183982   8.237  13.722  10.716
60736SOL    HW283983   8.247  13.636  10.840
60737SOL     OW83984  11.944   1.115   2.274
60737SOL    HW183985  12.016   1.140   2.333
60737SOL    HW283986  11.865   1.148   2.318
60738SOL     OW83987   3.111   2.659  13.985
60738SOL    HW183988   3.154   2.598  14.045
60738SOL    HW283989   3.114   2.614  13.900
60739SOL     OW83990   0.797   8.653  10.807
60739SOL    HW183991   0.711   8.629  10.842
60739SOL    HW283992   0.820   8.582  10.747
60740SOL     OW83993  11.013   3.267  13.033
60740SOL    HW183994  10.975   3.256  12.946
60740SOL    HW283995  11.045   3.180  13.056
60741SOL     OW83996   1.271   5.484   0.874
60741SOL    HW183997   1.285   5.529   0.958
60741SOL    HW283998   1.311   5.541   0.809
60742SOL     OW83999  11.830  13.439   0.448
60742SOL    HW184000  11.763  13.464   0.511
60742SOL    HW284001  11.782  13.392   0.380
60743SOL     OW84002   5.177  13.822  11.130
60743SOL    HW184003   5.090  13.829  11.092
60743SOL    HW284004   5.223  13.902  11.102
60744SOL     OW84005   6.810  11.424   6.349
60744SOL    HW184006   6.816  11.444   6.442
60744SOL    HW284007   6.892  11.380   6.328
60745SOL     OW84008   6.230  13.297   3.780
60745SOL    HW184009   6.297  13.327   3.841
60745SOL    HW284010   6.181  13.230   3.829
60746SOL     OW84011   3.012   8.648   6.804
60746SOL    HW184012   3.029   8.611   6.890
60746SOL    HW284013   3.072   8.723   6.797
60747SOL     OW84014   4.864   3.199   7.984
60747SOL    HW184015   4.866   3.184   7.889
60747SOL    HW284016   4.791   3.259   7.997
60748SOL     OW84017  13.502  13.730  13.810
60748SOL    HW184018  13.528  13.781  13.734
60748SOL    HW284019  13.537  13.642  13.794
60749SOL     OW84020   5.211  10.107  12.361
60749SOL    HW184021   5.214  10.152  12.277
60749SOL    HW284022   5.133  10.143  12.404
60750SOL     OW84023   5.423   2.938  14.227
60750SOL    HW184024   5.404   2.861  14.173
60750SOL    HW284025   5.338   2.980  14.239
60751SOL     OW84026   2.221  14.001   4.251
60751SOL    HW184027   2.236  14.079   4.305
60751SOL    HW284028   2.154  14.027   4.188
60752SOL     OW84029  14.604   4.615   1.432
60752SOL    HW184030  14.513   4.598   1.455
60752SOL    HW284031  14.646   4.529   1.431
60753SOL     OW84032   3.441   5.574   0.875
60753SOL    HW184033   3.474   5.657   0.908
60753SOL    HW284034   3.349   5.572   0.899
60754SOL     OW84035  14.681   0.018   8.148
60754SOL    HW184036  14.733   0.017   8.228
60754SOL    HW284037  14.604  14.842   8.168
60755SOL     OW84038  11.161   1.942   5.457
60755SOL    HW184039  11.086   2.002   5.458
60755SOL    HW284040  11.234   1.994   5.489
60756SOL     OW84041  11.304  13.390  14.377
60756SOL    HW184042  11.360  13.344  14.315
60756SOL    HW284043  11.226  13.414  14.326
60757SOL     OW84044   9.547   4.693   1.780
60757SOL    HW184045   9.479   4.727   1.722
60757SOL    HW284046   9.575   4.768   1.832
60758SOL     OW84047   8.013  12.949  12.802
60758SOL    HW184048   7.940  13.010  12.814
60758SOL    HW284049   8.086  13.004  12.776
60759SOL     OW84050   4.295   3.943   5.031
60759SOL    HW184051   4.265   4.033   5.045
60759SOL    HW284052   4.315   3.938   4.938
60760SOL     OW84053   7.278   2.684  12.293
60760SOL    HW184054   7.215   2.686  12.221
60760SOL    HW284055   7.360   2.715  12.255
60761SOL     OW84056   9.562   4.343   5.812
60761SOL    HW184057   9.638   4.344   5.754
60761SOL    HW284058   9.576   4.416   5.872
60762SOL     OW84059   7.566   9.596   6.780
60762SOL    HW184060   7.655   9.611   6.747
60762SOL    HW284061   7.518   9.560   6.705
60763SOL     OW84062   9.457   1.065  11.094
60763SOL    HW184063   9.544   1.062  11.053
60763SOL    HW284064   9.447   0.978  11.133
60764SOL     OW84065   0.032  11.355   0.485
60764SOL    HW184066  14.845  11.286   0.476
60764SOL    HW284067  14.858  11.434   0.501
60765SOL     OW84068   9.553   5.375   9.361
60765SOL    HW184069   9.555   5.411   9.273
60765SOL    HW284070   9.541   5.451   9.418
60766SOL     OW84071  13.635   3.602   6.392
60766SOL    HW184072  13.570   3.543   6.353
60766SOL    HW284073  13.665   3.555   6.470
60767SOL     OW84074   0.841  11.895   9.401
60767SOL    HW184075   0.827  11.946   9.321
60767SOL    HW284076   0.784  11.936   9.465
60768SOL     OW84077   2.638  10.293  12.493
60768SOL    HW184078   2.684  10.266  12.414
60768SOL    HW284079   2.673  10.379  12.514
60769SOL     OW84080   0.097   4.530   2.763
60769SOL    HW184081   0.057   4.482   2.690
60769SOL    HW284082   0.188   4.542   2.736
60770SOL     OW84083  14.662   7.391  11.942
60770SOL    HW184084  14.578   7.363  11.979
60770SOL    HW284085  14.643   7.413  11.851
60771SOL     OW84086  13.191   2.613   9.438
60771SOL    HW184087  13.110   2.649   9.472
60771SOL    HW284088  13.181   2.518   9.446
60772SOL     OW84089   0.447  10.279   0.377
60772SOL    HW184090   0.521  10.303   0.321
60772SOL    HW284091   0.481  10.288   0.466
60773SOL     OW84092   8.328   4.316   8.450
60773SOL    HW184093   8.422   4.310   8.465
60773SOL    HW284094   8.291   4.335   8.536
60774SOL     OW84095  13.570  12.708   7.978
60774SOL    HW184096  13.592  12.663   7.896
60774SOL    HW284097  13.611  12.655   8.046
60775SOL     OW84098  12.423   8.571  10.651
60775SOL    HW184099  12.416   8.591  10.557
60775SOL    HW284100  12.402   8.653  10.695
60776SOL     OW84101   9.853   1.802  12.118
60776SOL    HW184102   9.896   1.884  12.145
60776SOL    HW284103   9.790   1.785  12.188
60777SOL     OW84104   7.552  12.051   3.035
60777SOL    HW184105   7.642  12.025   3.013
60777SOL    HW284106   7.503  11.969   3.038
60778SOL     OW84107   0.832   3.743   6.977
60778SOL    HW184108   0.914   3.693   6.984
60778SOL    HW284109   0.791   3.711   6.896
60779SOL     OW84110  14.024  13.913   1.045
60779SOL    HW184111  14.002  13.998   1.084
60779SOL    HW284112  14.115  13.899   1.069
60780SOL     OW84113   2.333  14.770   7.726
60780SOL    HW184114   2.322  14.865   7.729
60780SOL    HW284115   2.338  14.749   7.633
60781SOL     OW84116   4.814  10.544   8.622
60781SOL    HW184117   4.898  10.573   8.587
60781SOL    HW284118   4.761  10.623   8.627
60782SOL     OW84119   5.330  13.100   3.607
60782SOL    HW184120   5.336  13.156   3.530
60782SOL    HW284121   5.417  13.102   3.646
60783SOL     OW84122   4.706  12.197   2.042
60783SOL    HW184123   4.796  12.164   2.053
60783SOL    HW284124   4.672  12.200   2.132
60784SOL     OW84125   8.768  13.942   6.524
60784SOL    HW184126   8.773  13.963   6.431
60784SOL    HW284127   8.815  14.013   6.568
60785SOL     OW84128  10.959   5.653   8.376
60785SOL    HW184129  10.980   5.709   8.451
60785SOL    HW284130  11.025   5.674   8.310
60786SOL     OW84131   1.512   8.798   3.361
60786SOL    HW184132   1.582   8.823   3.422
60786SOL    HW284133   1.475   8.881   3.331
60787SOL     OW84134   0.232   7.378   4.101
60787SOL    HW184135   0.222   7.320   4.176
60787SOL    HW284136   0.263   7.321   4.031
60788SOL     OW84137   0.829  10.068   8.708
60788SOL    HW184138   0.789  10.136   8.761
60788SOL    HW284139   0.755  10.018   8.673
60789SOL     OW84140   7.408   3.057   4.590
60789SOL    HW184141   7.460   2.981   4.564
60789SOL    HW284142   7.444   3.084   4.675
60790SOL     OW84143  11.106   0.891   9.982
60790SOL    HW184144  11.193   0.921   9.958
60790SOL    HW284145  11.052   0.907   9.905
60791SOL     OW84146   4.253   4.854  11.908
60791SOL    HW184147   4.307   4.850  11.988
60791SOL    HW284148   4.165   4.873  11.940
60792SOL     OW84149  13.417   8.900  11.295
60792SOL    HW184150  13.429   8.805  11.296
60792SOL    HW284151  13.494   8.933  11.248
60793SOL     OW84152  11.041   0.612  13.681
60793SOL    HW184153  10.961   0.625  13.732
60793SOL    HW284154  11.058   0.518  13.686
60794SOL     OW84155  14.583   7.708   2.499
60794SOL    HW184156  14.517   7.708   2.429
60794SOL    HW284157  14.664   7.733   2.454
60795SOL     OW84158   7.076   9.480   5.629
60795SOL    HW184159   7.047   9.571   5.638
60795SOL    HW284160   7.159   9.486   5.580
60796SOL     OW84161  13.335  10.203  12.637
60796SOL    HW184162  13.243  10.179  12.631
60796SOL    HW284163  13.367  10.198  12.547
60797SOL     OW84164  10.543   3.360   2.415
60797SOL    HW184165  10.491   3.283   2.396
60797SOL    HW284166  10.480   3.426   2.443
60798SOL     OW84167   1.678  11.613   6.582
60798SOL    HW184168   1.587  11.633   6.559
60798SOL    HW284169   1.729  11.685   6.542
60799SOL     OW84170  13.524   0.318   1.234
60799SOL    HW184171  13.553   0.242   1.184
60799SOL    HW284172  13.441   0.290   1.274
60800SOL     OW84173   2.059   5.801   6.553
60800SOL    HW184174   2.078   5.756   6.635
60800SOL    HW284175   2.090   5.741   6.485
60801SOL     OW84176   8.840   1.921   1.161
60801SOL    HW184177   8.829   1.853   1.095
60801SOL    HW284178   8.757   1.969   1.159
60802SOL     OW84179  13.002  12.106   0.820
60802SOL    HW184180  12.962  12.038   0.874
60802SOL    HW284181  13.052  12.057   0.754
60803SOL     OW84182  11.416   5.105  10.296
60803SOL    HW184183  11.440   5.067  10.380
60803SOL    HW284184  11.320   5.112  10.300
60804SOL     OW84185  10.437   5.519  11.800
60804SOL    HW184186  10.485   5.443  11.832
60804SOL    HW284187  10.506   5.582  11.776
60805SOL     OW84188   8.097   5.005   1.588
60805SOL    HW184189   8.033   4.969   1.650
60805SOL    HW284190   8.051   5.075   1.543
60806SOL     OW84191   3.528   2.258  10.578
60806SOL    HW184192   3.566   2.171  10.570
60806SOL    HW284193   3.499   2.262  10.669
60807SOL     OW84194   7.088   5.506   0.048
60807SOL    HW184195   7.120   5.514  14.835
60807SOL    HW284196   6.993   5.516   0.040
60808SOL     OW84197   1.065   7.681   8.709
60808SOL    HW184198   0.992   7.677   8.647
60808SOL    HW284199   1.084   7.775   8.719
60809SOL     OW84200   7.048   8.830   2.855
60809SOL    HW184201   7.133   8.804   2.889
60809SOL    HW284202   7.044   8.925   2.870
60810SOL     OW84203  12.074   2.946   2.968
60810SOL    HW184204  12.022   2.874   3.004
60810SOL    HW284205  12.107   2.912   2.885
60811SOL     OW84206   5.321   5.365   5.378
60811SOL    HW184207   5.385   5.361   5.449
60811SOL    HW284208   5.307   5.274   5.353
60812SOL     OW84209   5.698   9.609   4.465
60812SOL    HW184210   5.635   9.541   4.490
60812SOL    HW284211   5.689   9.617   4.370
60813SOL     OW84212   4.737   7.764  13.584
60813SOL    HW184213   4.660   7.788  13.532
60813SOL    HW284214   4.738   7.668  13.583
60814SOL     OW84215   4.884   5.356   4.390
60814SOL    HW184216   4.912   5.342   4.481
60814SOL    HW284217   4.879   5.451   4.381
60815SOL     OW84218   8.987   0.870   6.760
60815SOL    HW184219   8.972   0.957   6.798
60815SOL    HW284220   9.002   0.814   6.836
60816SOL     OW84221   8.388   7.091   8.669
60816SOL    HW184222   8.308   7.137   8.642
60816SOL    HW284223   8.456   7.159   8.668
60817SOL     OW84224  10.213   8.793   4.601
60817SOL    HW184225  10.161   8.767   4.525
60817SOL    HW284226  10.231   8.711   4.647
60818SOL     OW84227  11.507  14.347   3.425
60818SOL    HW184228  11.541  14.359   3.336
60818SOL    HW284229  11.473  14.258   3.425
60819SOL     OW84230   2.614   0.493   4.337
60819SOL    HW184231   2.565   0.485   4.256
60819SOL    HW284232   2.706   0.481   4.311
60820SOL     OW84233   9.731   8.714   5.205
60820SOL    HW184234   9.759   8.782   5.266
60820SOL    HW284235   9.681   8.761   5.138
60821SOL     OW84236   0.997   7.995   9.824
60821SOL    HW184237   1.056   8.043   9.765
60821SOL    HW284238   0.938   7.948   9.765
60822SOL     OW84239   4.704   1.115  14.742
60822SOL    HW184240   4.747   1.030  14.730
60822SOL    HW284241   4.762   1.177  14.698
60823SOL     OW84242   5.855   2.865  13.994
60823SOL    HW184243   5.890   2.919  13.923
60823SOL    HW284244   5.927   2.804  14.014
60824SOL     OW84245   7.624   3.740   1.315
60824SOL    HW184246   7.699   3.754   1.258
60824SOL    HW284247   7.659   3.692   1.390
60825SOL     OW84248   8.384   5.999   7.580
60825SOL    HW184249   8.428   5.963   7.503
60825SOL    HW284250   8.380   6.093   7.563
60826SOL     OW84251   0.987   3.966  10.389
60826SOL    HW184252   1.046   4.041  10.382
60826SOL    HW284253   1.028   3.909  10.454
60827SOL     OW84254   9.037   2.388  11.268
60827SOL    HW184255   9.068   2.314  11.320
60827SOL    HW284256   9.061   2.465  11.319
60828SOL     OW84257   3.423  10.613   0.252
60828SOL    HW184258   3.517  10.604   0.240
60828SOL    HW284259   3.390  10.638   0.166
60829SOL     OW84260   7.309   7.034   9.877
60829SOL    HW184261   7.397   7.022   9.843
60829SOL    HW284262   7.313   7.114   9.928
60830SOL     OW84263   6.324   7.558   3.452
60830SOL    HW184264   6.240   7.545   3.497
60830SOL    HW284265   6.341   7.652   3.459
60831SOL     OW84266  13.006  14.372  12.077
60831SOL    HW184267  12.999  14.341  12.168
60831SOL    HW284268  13.065  14.447  12.083
60832SOL     OW84269   9.266   9.437   6.085
60832SOL    HW184270   9.310   9.521   6.079
60832SOL    HW284271   9.197   9.441   6.019
60833SOL     OW84272   5.885   6.528  13.634
60833SOL    HW184273   5.964   6.558  13.589
60833SOL    HW284274   5.892   6.566  13.722
60834SOL     OW84275   7.444  13.856   6.705
60834SOL    HW184276   7.446  13.944   6.741
60834SOL    HW284277   7.353  13.828   6.714
60835SOL     OW84278   6.381  11.165   0.102
60835SOL    HW184279   6.414  11.255   0.099
60835SOL    HW284280   6.381  11.143   0.195
60836SOL     OW84281   0.063   9.196   4.686
60836SOL    HW184282  14.858   9.244   4.694
60836SOL    HW284283   0.110   9.240   4.615
60837SOL     OW84284   1.336   2.078   7.014
60837SOL    HW184285   1.399   2.016   7.051
60837SOL    HW284286   1.311   2.041   6.929
60838SOL     OW84287   1.532  12.965   4.547
60838SOL    HW184288   1.513  13.024   4.621
60838SOL    HW284289   1.560  13.023   4.477
60839SOL     OW84290   8.859  14.754   0.868
60839SOL    HW184291   8.845  14.695   0.941
60839SOL    HW284292   8.938  14.721   0.825
60840SOL     OW84293  13.750   6.030  10.132
60840SOL    HW184294  13.683   6.094  10.108
60840SOL    HW284295  13.701   5.953  10.159
60841SOL     OW84296  14.114   7.589   0.659
60841SOL    HW184297  14.065   7.536   0.720
60841SOL    HW284298  14.127   7.533   0.582
60842SOL     OW84299   5.794   0.922  11.946
60842SOL    HW184300   5.835   0.988  11.890
60842SOL    HW284301   5.743   0.972  12.009
60843SOL     OW84302  13.420   6.979  11.650
60843SOL    HW184303  13.436   6.907  11.712
60843SOL    HW284304  13.326   6.996  11.658
60844SOL     OW84305   6.266   1.432  11.641
60844SOL    HW184306   6.231   1.443  11.730
60844SOL    HW284307   6.349   1.480  11.643
60845SOL     OW84308  11.239  10.850  13.119
60845SOL    HW184309  11.325  10.837  13.160
60845SOL    HW284310  11.180  10.868  13.193
60846SOL     OW84311   8.230   2.941   3.252
60846SOL    HW184312   8.306   2.887   3.227
60846SOL    HW284313   8.232   2.941   3.348
60847SOL     OW84314   0.115  12.780   7.985
60847SOL    HW184315   0.108  12.820   8.072
60847SOL    HW284316   0.205  12.748   7.981
60848SOL     OW84317   3.679   3.921  14.107
60848SOL    HW184318   3.683   3.934  14.202
60848SOL    HW284319   3.604   3.863  14.093
60849SOL     OW84320   0.065   2.239   1.827
60849SOL    HW184321   0.153   2.216   1.797
60849SOL    HW284322   0.069   2.229   1.922
60850SOL     OW84323   2.699  13.428   1.494
60850SOL    HW184324   2.760  13.498   1.516
60850SOL    HW284325   2.681  13.441   1.401
60851SOL     OW84326  14.573   6.618   9.345
60851SOL    HW184327  14.597   6.654   9.430
60851SOL    HW284328  14.612   6.531   9.343
60852SOL     OW84329   4.568   5.773   5.283
60852SOL    HW184330   4.557   5.700   5.343
60852SOL    HW284331   4.651   5.813   5.308
60853SOL     OW84332   9.415   4.022  10.649
60853SOL    HW184333   9.443   4.058  10.733
60853SOL    HW284334   9.496   4.016  10.597
60854SOL     OW84335   1.867  11.708   1.533
60854SOL    HW184336   1.948  11.707   1.583
60854SOL    HW284337   1.854  11.800   1.510
60855SOL     OW84338   3.803   7.646  10.937
60855SOL    HW184339   3.763   7.573  10.983
60855SOL    HW284340   3.890   7.655  10.976
60856SOL     OW84341   2.158   6.802   3.436
60856SOL    HW184342   2.088   6.743   3.410
60856SOL    HW284343   2.148   6.878   3.378
60857SOL     OW84344   5.836   2.972   7.750
60857SOL    HW184345   5.778   2.895   7.743
60857SOL    HW284346   5.825   3.017   7.666
60858SOL     OW84347   7.604  13.578   3.529
60858SOL    HW184348   7.665  13.504   3.531
60858SOL    HW284349   7.574  13.587   3.620
60859SOL     OW84350   1.748   5.806   4.007
60859SOL    HW184351   1.831   5.825   3.964
60859SOL    HW284352   1.713   5.731   3.958
60860SOL     OW84353   8.572   9.752  13.035
60860SOL    HW184354   8.630   9.793  13.098
60860SOL    HW284355   8.541   9.672  13.079
60861SOL     OW84356   5.311   3.993  14.490
60861SOL    HW184357   5.294   3.899  14.489
60861SOL    HW284358   5.280   4.024  14.406
60862SOL     OW84359   8.182  12.995  12.415
60862SOL    HW184360   8.213  13.031  12.498
60862SOL    HW284361   8.114  12.932  12.440
60863SOL     OW84362   4.093  14.834   2.703
60863SOL    HW184363   4.035  14.760   2.685
60863SOL    HW284364   4.034   0.032   2.712
60864SOL     OW84365   8.719  10.221   2.821
60864SOL    HW184366   8.665  10.204   2.898
60864SOL    HW284367   8.798  10.167   2.835
60865SOL     OW84368   0.198   1.927  11.201
60865SOL    HW184369   0.285   1.964  11.215
60865SOL    HW284370   0.186   1.867  11.274
60866SOL     OW84371  14.685  13.481  12.567
60866SOL    HW184372  14.726  13.563  12.594
60866SOL    HW284373  14.730  13.414  12.618
60867SOL     OW84374   1.381  12.439   0.706
60867SOL    HW184375   1.375  12.527   0.742
60867SOL    HW284376   1.382  12.382   0.783
60868SOL     OW84377   8.038   7.764   5.106
60868SOL    HW184378   8.014   7.853   5.078
60868SOL    HW284379   7.964   7.735   5.159
60869SOL     OW84380   4.961  13.474  10.993
60869SOL    HW184381   5.040  13.502  10.948
60869SOL    HW284382   4.899  13.454  10.923
60870SOL     OW84383  10.424  11.733   5.605
60870SOL    HW184384  10.353  11.757   5.665
60870SOL    HW284385  10.500  11.720   5.662
60871SOL     OW84386   6.936  13.690   7.846
60871SOL    HW184387   6.921  13.597   7.862
60871SOL    HW284388   7.020  13.709   7.887
60872SOL     OW84389  13.275   3.465   8.880
60872SOL    HW184390  13.192   3.420   8.898
60872SOL    HW284391  13.323   3.462   8.963
60873SOL     OW84392   7.410   3.840   7.432
60873SOL    HW184393   7.373   3.766   7.480
60873SOL    HW284394   7.505   3.824   7.432
60874SOL     OW84395  11.097   9.757   3.301
60874SOL    HW184396  11.142   9.841   3.300
60874SOL    HW284397  11.135   9.708   3.228
60875SOL     OW84398   3.212   7.371   6.880
60875SOL    HW184399   3.247   7.285   6.904
60875SOL    HW284400   3.155   7.353   6.805
60876SOL     OW84401  12.065  13.387   8.131
60876SOL    HW184402  12.084  13.411   8.040
60876SOL    HW284403  12.151  13.382   8.172
60877SOL     OW84404   2.885   6.911  10.855
60877SOL    HW184405   2.833   6.969  10.799
60877SOL    HW284406   2.976   6.932  10.833
60878SOL     OW84407   8.914   7.351  14.500
60878SOL    HW184408   8.946   7.266  14.528
60878SOL    HW284409   8.835   7.366  14.553
60879SOL     OW84410   8.750   5.797  13.313
60879SOL    HW184411   8.666   5.753  13.304
60879SOL    HW284412   8.774   5.821  13.223
60880SOL     OW84413   4.743   8.800  11.899
60880SOL    HW184414   4.681   8.745  11.945
60880SOL    HW284415   4.752   8.878  11.954
60881SOL     OW84416   3.161   2.924  11.399
60881SOL    HW184417   3.139   3.016  11.387
60881SOL    HW284418   3.117   2.899  11.480
60882SOL     OW84419   9.718   2.153  11.043
60882SOL    HW184420   9.746   2.227  10.989
60882SOL    HW284421   9.798   2.119  11.081
60883SOL     OW84422  11.756   7.704   1.590
60883SOL    HW184423  11.820   7.633   1.596
60883SOL    HW284424  11.724   7.714   1.680
60884SOL     OW84425  10.388   0.144   3.407
60884SOL    HW184426  10.376   0.225   3.357
60884SOL    HW284427  10.467   0.158   3.458
60885SOL     OW84428   5.765  10.909   9.925
60885SOL    HW184429   5.761  10.906  10.020
60885SOL    HW284430   5.857  10.927   9.905
60886SOL     OW84431   1.604   4.953   8.670
60886SOL    HW184432   1.530   5.007   8.697
60886SOL    HW284433   1.680   5.011   8.677
60887SOL     OW84434   4.750   1.151   6.114
60887SOL    HW184435   4.829   1.122   6.070
60887SOL    HW284436   4.728   1.235   6.072
60888SOL     OW84437   8.016  11.317   3.717
60888SOL    HW184438   8.042  11.275   3.636
60888SOL    HW284439   8.006  11.245   3.780
60889SOL     OW84440   1.611   1.679  10.716
60889SOL    HW184441   1.648   1.733  10.786
60889SOL    HW284442   1.615   1.735  10.638
60890SOL     OW84443  13.879  11.971  13.248
60890SOL    HW184444  13.832  11.888  13.255
60890SOL    HW284445  13.916  11.984  13.336
60891SOL     OW84446   5.370  12.258   9.478
60891SOL    HW184447   5.434  12.322   9.447
60891SOL    HW284448   5.416  12.208   9.545
60892SOL     OW84449   2.751   7.951  14.195
60892SOL    HW184450   2.802   8.028  14.223
60892SOL    HW284451   2.798   7.876  14.231
60893SOL     OW84452   0.848   2.806   4.561
60893SOL    HW184453   0.838   2.726   4.508
60893SOL    HW284454   0.900   2.864   4.506
60894SOL     OW84455   1.472   2.971  11.286
60894SOL    HW184456   1.429   2.892  11.255
60894SOL    HW284457   1.415   3.004  11.355
60895SOL     OW84458   5.208   4.149   5.852
60895SOL    HW184459   5.119   4.183   5.844
60895SOL    HW284460   5.243   4.192   5.930
60896SOL     OW84461   6.071   9.324  10.448
60896SOL    HW184462   6.059   9.236  10.411
60896SOL    HW284463   6.039   9.316  10.538
60897SOL     OW84464  12.469   1.127   3.469
60897SOL    HW184465  12.517   1.210   3.466
60897SOL    HW284466  12.537   1.060   3.471
60898SOL     OW84467   3.868   8.602   8.299
60898SOL    HW184468   3.792   8.658   8.310
60898SOL    HW284469   3.887   8.570   8.387
60899SOL     OW84470  12.727   8.379   6.553
60899SOL    HW184471  12.705   8.437   6.626
60899SOL    HW284472  12.644   8.342   6.525
60900SOL     OW84473   9.289   2.608   8.207
60900SOL    HW184474   9.384   2.614   8.195
60900SOL    HW284475   9.257   2.697   8.188
60901SOL     OW84476  14.509  10.473   6.574
60901SOL    HW184477  14.472  10.552   6.535
60901SOL    HW284478  14.482  10.402   6.515
60902SOL     OW84479   8.657   3.513   6.888
60902SOL    HW184480   8.677   3.536   6.797
60902SOL    HW284481   8.740   3.526   6.934
60903SOL     OW84482  12.219   2.683   1.012
60903SOL    HW184483  12.137   2.697   1.058
60903SOL    HW284484  12.195   2.633   0.934
60904SOL     OW84485  11.540  11.549   3.126
60904SOL    HW184486  11.446  11.540   3.115
60904SOL    HW284487  11.562  11.486   3.195
60905SOL     OW84488  10.099   5.820   2.958
60905SOL    HW184489  10.147   5.893   2.997
60905SOL    HW284490  10.033   5.861   2.903
60906SOL     OW84491   0.548   1.043  10.048
60906SOL    HW184492   0.476   1.087  10.004
60906SOL    HW284493   0.606   1.114  10.078
60907SOL     OW84494   7.160   3.292   4.851
60907SOL    HW184495   7.234   3.247   4.891
60907SOL    HW284496   7.131   3.235   4.780
60908SOL     OW84497   0.993   3.100   5.073
60908SOL    HW184498   0.985   3.005   5.078
60908SOL    HW284499   0.967   3.131   5.160
60909SOL     OW84500   1.463  11.604  10.398
60909SOL    HW184501   1.429  11.515  10.394
60909SOL    HW284502   1.396  11.657  10.355
60910SOL     OW84503   4.174  10.383   8.354
60910SOL    HW184504   4.121  10.325   8.299
60910SOL    HW284505   4.262  10.380   8.317
60911SOL     OW84506  12.740   1.417   8.339
60911SOL    HW184507  12.654   1.444   8.372
60911SOL    HW284508  12.758   1.476   8.267
60912SOL     OW84509   0.550  13.625  14.255
60912SOL    HW184510   0.546  13.706  14.205
60912SOL    HW284511   0.630  13.582  14.224
60913SOL     OW84512   6.242  13.605   1.312
60913SOL    HW184513   6.254  13.576   1.402
60913SOL    HW284514   6.221  13.526   1.263
60914SOL     OW84515   9.159   8.370   7.515
60914SOL    HW184516   9.148   8.367   7.610
60914SOL    HW284517   9.249   8.340   7.500
60915SOL     OW84518   5.847   4.775  11.219
60915SOL    HW184519   5.800   4.722  11.154
60915SOL    HW284520   5.789   4.778  11.295
60916SOL     OW84521  13.536  13.126   2.457
60916SOL    HW184522  13.481  13.062   2.503
60916SOL    HW284523  13.571  13.182   2.526
60917SOL     OW84524  13.810  10.754   0.136
60917SOL    HW184525  13.751  10.699   0.085
60917SOL    HW284526  13.756  10.788   0.208
60918SOL     OW84527   2.527   5.680  13.225
60918SOL    HW184528   2.576   5.760  13.206
60918SOL    HW284529   2.436   5.708  13.230
60919SOL     OW84530   2.716   2.994   7.551
60919SOL    HW184531   2.778   2.990   7.623
60919SOL    HW284532   2.663   2.915   7.560
60920SOL     OW84533  11.109   3.600  12.763
60920SOL    HW184534  11.186   3.618  12.817
60920SOL    HW284535  11.039   3.584  12.826
60921SOL     OW84536   3.425  14.589   2.090
60921SOL    HW184537   3.492  14.599   2.022
60921SOL    HW284538   3.430  14.670   2.141
60922SOL     OW84539   8.299  13.595   5.959
60922SOL    HW184540   8.378  13.648   5.963
60922SOL    HW284541   8.294  13.566   5.868
60923SOL     OW84542   6.043   2.009   0.205
60923SOL    HW184543   5.955   2.019   0.242
60923SOL    HW284544   6.093   2.083   0.241
60924SOL     OW84545   0.535  12.620  11.656
60924SOL    HW184546   0.523  12.529  11.629
60924SOL    HW284547   0.480  12.629  11.734
60925SOL     OW84548   9.881   5.219  10.825
60925SOL    HW184549   9.929   5.247  10.903
60925SOL    HW284550   9.883   5.295  10.767
60926SOL     OW84551   2.961   4.660   5.720
60926SOL    HW184552   2.995   4.694   5.802
60926SOL    HW284553   2.997   4.571   5.713
60927SOL     OW84554   8.552   3.091  13.641
60927SOL    HW184555   8.568   3.181  13.672
60927SOL    HW284556   8.493   3.101  13.567
60928SOL     OW84557   7.551   3.086   7.905
60928SOL    HW184558   7.610   3.012   7.897
60928SOL    HW284559   7.577   3.145   7.835
60929SOL     OW84560   6.281   7.726  10.686
60929SOL    HW184561   6.222   7.663  10.644
60929SOL    HW284562   6.330   7.764  10.613
60930SOL     OW84563  11.172   1.051   3.396
60930SOL    HW184564  11.229   1.115   3.353
60930SOL    HW284565  11.232   0.990   3.437
60931SOL     OW84566   9.569   6.693   2.365
60931SOL    HW184567   9.586   6.747   2.442
60931SOL    HW284568   9.621   6.614   2.379
60932SOL     OW84569  13.392  12.773  13.090
60932SOL    HW184570  13.327  12.704  13.100
60932SOL    HW284571  13.470  12.741  13.136
60933SOL     OW84572   4.838   7.032   4.010
60933SOL    HW184573   4.890   6.988   4.078
60933SOL    HW284574   4.784   6.963   3.973
60934SOL     OW84575   6.983   1.397  13.442
60934SOL    HW184576   7.024   1.462  13.384
60934SOL    HW284577   6.903   1.371  13.396
60935SOL     OW84578  13.966   7.144   5.484
60935SOL    HW184579  13.932   7.152   5.573
60935SOL    HW284580  14.030   7.073   5.489
60936SOL     OW84581   3.291  14.257   6.674
60936SOL    HW184582   3.327  14.171   6.653
60936SOL    HW284583   3.197  14.241   6.685
60937SOL     OW84584   4.631   0.749   8.307
60937SOL    HW184585   4.675   0.665   8.294
60937SOL    HW284586   4.698   0.815   8.287
60938SOL     OW84587   7.815   5.279  13.919
60938SOL    HW184588   7.889   5.238  13.874
60938SOL    HW284589   7.768   5.327  13.850
60939SOL     OW84590   0.689   3.233   6.103
60939SOL    HW184591   0.674   3.312   6.051
60939SOL    HW284592   0.758   3.257   6.164
60940SOL     OW84593   6.372   7.947   4.011
60940SOL    HW184594   6.363   8.033   4.052
60940SOL    HW284595   6.432   7.900   4.069
60941SOL     OW84596   8.595   4.783   6.802
60941SOL    HW184597   8.521   4.725   6.821
60941SOL    HW284598   8.672   4.727   6.810
60942SOL     OW84599  10.501   6.248   3.036
60942SOL    HW184600  10.536   6.186   2.972
60942SOL    HW284601  10.501   6.332   2.990
60943SOL     OW84602  11.074   9.859   1.168
60943SOL    HW184603  11.097   9.808   1.091
60943SOL    HW284604  11.048   9.945   1.134
60944SOL     OW84605   4.371   2.151  12.870
60944SOL    HW184606   4.389   2.068  12.914
60944SOL    HW284607   4.405   2.139  12.781
60945SOL     OW84608   0.855   2.985   2.778
60945SOL    HW184609   0.850   3.070   2.736
60945SOL    HW284610   0.949   2.968   2.788
60946SOL     OW84611   5.591   9.881   9.963
60946SOL    HW184612   5.526   9.815   9.987
60946SOL    HW284613   5.675   9.836   9.972
60947SOL     OW84614  12.021  10.377  13.963
60947SOL    HW184615  11.976  10.296  13.986
60947SOL    HW284616  12.114  10.352  13.959
60948SOL     OW84617  12.754   4.786  12.670
60948SOL    HW184618  12.835   4.767  12.717
60948SOL    HW284619  12.724   4.870  12.705
60949SOL     OW84620  12.813   1.315  14.122
60949SOL    HW184621  12.752   1.369  14.073
60949SOL    HW284622  12.877   1.376  14.157
60950SOL     OW84623  14.632  10.188   0.532
60950SOL    HW184624  14.717  10.179   0.490
60950SOL    HW284625  14.620  10.107   0.581
60951SOL     OW84626   8.327  13.161   8.325
60951SOL    HW184627   8.349  13.211   8.247
60951SOL    HW284628   8.271  13.090   8.293
60952SOL     OW84629   2.385  13.631   7.035
60952SOL    HW184630   2.354  13.543   7.013
60952SOL    HW284631   2.450  13.617   7.105
60953SOL     OW84632   2.937   7.302   1.902
60953SOL    HW184633   2.934   7.253   1.820
60953SOL    HW284634   3.029   7.296   1.929
60954SOL     OW84635   9.269   7.145  10.753
60954SOL    HW184636   9.190   7.101  10.784
60954SOL    HW284637   9.247   7.238  10.755
60955SOL     OW84638  14.613   9.162   0.110
60955SOL    HW184639  14.646   9.109   0.182
60955SOL    HW284640  14.690   9.209   0.078
60956SOL     OW84641  13.146   0.492  13.712
60956SOL    HW184642  13.099   0.576  13.718
60956SOL    HW284643  13.165   0.483  13.618
60957SOL     OW84644   9.617   7.463   0.552
60957SOL    HW184645   9.702   7.435   0.587
60957SOL    HW284646   9.582   7.384   0.510
60958SOL     OW84647  13.258   5.683   0.222
60958SOL    HW184648  13.278   5.775   0.207
60958SOL    HW284649  13.178   5.667   0.172
60959SOL     OW84650  14.791  10.525   1.654
60959SOL    HW184651  14.861  10.589   1.643
60959SOL    HW284652  14.756  10.512   1.565
60960SOL     OW84653  11.053  10.438  14.640
60960SOL    HW184654  10.983  10.445  14.575
60960SOL    HW284655  11.091  10.525  14.645
60961SOL     OW84656   5.059   3.359   6.884
60961SOL    HW184657   5.053   3.392   6.974
60961SOL    HW284658   5.099   3.273   6.892
60962SOL     OW84659   4.516  13.322   4.352
60962SOL    HW184660   4.533  13.413   4.331
60962SOL    HW284661   4.583  13.273   4.304
60963SOL     OW84662   7.162  13.203  13.322
60963SOL    HW184663   7.076  13.232  13.351
60963SOL    HW284664   7.178  13.251  13.240
60964SOL     OW84665   1.915   1.162   5.193
60964SOL    HW184666   1.931   1.100   5.121
60964SOL    HW284667   1.820   1.159   5.206
60965SOL     OW84668   5.062  11.413  10.740
60965SOL    HW184669   5.037  11.426  10.649
60965SOL    HW284670   4.983  11.379  10.782
60966SOL     OW84671  14.660   2.917   3.536
60966SOL    HW184672  14.655   3.007   3.504
60966SOL    HW284673  14.672   2.864   3.457
60967SOL     OW84674   4.066   4.582  12.501
60967SOL    HW184675   4.087   4.611  12.412
60967SOL    HW284676   4.047   4.663  12.549
60968SOL     OW84677   4.108   2.385   4.714
60968SOL    HW184678   4.066   2.434   4.643
60968SOL    HW284679   4.039   2.326   4.745
60969SOL     OW84680   8.214   4.955   0.664
60969SOL    HW184681   8.307   4.943   0.687
60969SOL    HW284682   8.197   5.047   0.685
60970SOL     OW84683   3.842   6.614   4.401
60970SOL    HW184684   3.880   6.682   4.345
60970SOL    HW284685   3.753   6.644   4.419
60971SOL     OW84686  14.341  11.985   5.546
60971SOL    HW184687  14.337  11.924   5.620
60971SOL    HW284688  14.427  11.969   5.507
60972SOL     OW84689   1.346   8.479  14.772
60972SOL    HW184690   1.300   8.533  14.837
60972SOL    HW284691   1.299   8.495  14.690
60973SOL     OW84692   3.208   8.913  13.899
60973SOL    HW184693   3.219   9.007  13.914
60973SOL    HW284694   3.282   8.889  13.843
60974SOL     OW84695   7.604  11.676   2.805
60974SOL    HW184696   7.563  11.711   2.884
60974SOL    HW284697   7.660  11.747   2.773
60975SOL     OW84698   4.480   0.120   5.037
60975SOL    HW184699   4.550   0.089   5.094
60975SOL    HW284700   4.404   0.129   5.094
60976SOL     OW84701   9.006  11.450   9.266
60976SOL    HW184702   8.979  11.362   9.291
60976SOL    HW284703   8.984  11.457   9.173
60977SOL     OW84704   6.900   2.129   7.192
60977SOL    HW184705   6.965   2.132   7.123
60977SOL    HW284706   6.823   2.089   7.152
60978SOL     OW84707   6.800   7.848   5.236
60978SOL    HW184708   6.862   7.789   5.279
60978SOL    HW284709   6.763   7.796   5.164
60979SOL     OW84710  12.660   5.707   1.246
60979SOL    HW184711  12.736   5.719   1.189
60979SOL    HW284712  12.679   5.627   1.295
60980SOL     OW84713   6.514   2.757  12.218
60980SOL    HW184714   6.433   2.721  12.182
60980SOL    HW284715   6.580   2.691  12.199
60981SOL     OW84716   7.148   9.923   5.555
60981SOL    HW184717   7.090   9.989   5.517
60981SOL    HW284718   7.224   9.923   5.496
60982SOL     OW84719   5.950  12.452  14.738
60982SOL    HW184720   6.020  12.406  14.692
60982SOL    HW284721   5.993  12.529  14.776
60983SOL     OW84722  12.741   9.205   4.091
60983SOL    HW184723  12.673   9.255   4.136
60983SOL    HW284724  12.769   9.139   4.155
60984SOL     OW84725  14.356  13.662  10.763
60984SOL    HW184726  14.360  13.751  10.797
60984SOL    HW284727  14.445  13.629  10.772
60985SOL     OW84728  11.632   4.287  13.298
60985SOL    HW184729  11.674   4.370  13.275
60985SOL    HW284730  11.675   4.222  13.243
60986SOL     OW84731   5.839   9.130  14.035
60986SOL    HW184732   5.853   9.060  14.098
60986SOL    HW284733   5.926   9.152  14.003
60987SOL     OW84734   3.435   4.976  10.493
60987SOL    HW184735   3.451   5.070  10.492
60987SOL    HW284736   3.470   4.944  10.410
60988SOL     OW84737  10.459   1.227   7.351
60988SOL    HW184738  10.390   1.293   7.342
60988SOL    HW284739  10.419   1.147   7.317
60989SOL     OW84740   5.752   9.948   4.406
60989SOL    HW184741   5.776   9.951   4.313
60989SOL    HW284742   5.658   9.931   4.406
60990SOL     OW84743  10.116   1.588   2.885
60990SOL    HW184744  10.028   1.626   2.893
60990SOL    HW284745  10.112   1.535   2.806
60991SOL     OW84746  13.405   5.090  13.568
60991SOL    HW184747  13.398   5.150  13.642
60991SOL    HW284748  13.324   5.039  13.570
60992SOL     OW84749   1.747   9.815  10.132
60992SOL    HW184750   1.700   9.732  10.137
60992SOL    HW284751   1.774   9.833  10.222
60993SOL     OW84752  12.531   6.976  11.470
60993SOL    HW184753  12.504   7.057  11.515
60993SOL    HW284754  12.512   6.907  11.533
60994SOL     OW84755  10.059   4.055  11.412
60994SOL    HW184756   9.991   4.024  11.352
60994SOL    HW284757  10.123   4.099  11.356
60995SOL     OW84758   7.409  10.830   7.477
60995SOL    HW184759   7.396  10.759   7.541
60995SOL    HW284760   7.476  10.885   7.516
60996SOL     OW84761   2.596  12.634  12.794
60996SOL    HW184762   2.678  12.672  12.826
60996SOL    HW284763   2.536  12.708  12.789
60997SOL     OW84764   0.863   0.152   2.030
60997SOL    HW184765   0.951   0.126   2.003
60997SOL    HW284766   0.824   0.072   2.065
60998SOL     OW84767  14.501   4.734  12.199
60998SOL    HW184768  14.595   4.747  12.185
60998SOL    HW284769  14.462   4.744  12.112
60999SOL     OW84770   4.433   6.375   4.488
60999SOL    HW184771   4.354   6.398   4.440
60999SOL    HW284772   4.501   6.367   4.421
61000SOL     OW84773   7.652   8.465   2.521
61000SOL    HW184774   7.645   8.473   2.616
61000SOL    HW284775   7.615   8.546   2.487
61001SOL     OW84776  11.590  12.984  14.744
61001SOL    HW184777  11.528  12.960  14.813
61001SOL    HW284778  11.538  13.036  14.682
61002SOL     OW84779   8.312   7.723   3.692
61002SOL    HW184780   8.315   7.817   3.704
61002SOL    HW284781   8.237   7.708   3.634
61003SOL     OW84782   3.832  13.100  10.072
61003SOL    HW184783   3.810  13.047   9.996
61003SOL    HW284784   3.830  13.190  10.040
61004SOL     OW84785  11.274  13.408   9.423
61004SOL    HW184786  11.210  13.415   9.352
61004SOL    HW284787  11.343  13.469   9.399
61005SOL     OW84788  11.533   7.526   9.553
61005SOL    HW184789  11.486   7.443   9.543
61005SOL    HW284790  11.480   7.590   9.507
61006SOL     OW84791   9.720   5.025  12.518
61006SOL    HW184792   9.779   5.008  12.444
61006SOL    HW284793   9.710   5.120  12.519
61007SOL     OW84794   8.316   1.719   3.430
61007SOL    HW184795   8.384   1.783   3.453
61007SOL    HW284796   8.299   1.673   3.512
61008SOL     OW84797  11.390  13.187   6.403
61008SOL    HW184798  11.324  13.118   6.412
61008SOL    HW284799  11.470  13.140   6.380
61009SOL     OW84800   1.402   6.786   2.832
61009SOL    HW184801   1.461   6.723   2.872
61009SOL    HW284802   1.314   6.752   2.850
61010SOL     OW84803  11.204   5.579   4.473
61010SOL    HW184804  11.272   5.595   4.538
61010SOL    HW284805  11.243   5.605   4.390
61011SOL     OW84806  14.470   6.829   3.884
61011SOL    HW184807  14.422   6.797   3.807
61011SOL    HW284808  14.464   6.925   3.876
61012SOL     OW84809   6.194   0.970  11.731
61012SOL    HW184810   6.196   0.891  11.785
61012SOL    HW284811   6.122   1.022  11.766
61013SOL     OW84812  14.354  10.333  11.552
61013SOL    HW184813  14.388  10.253  11.591
61013SOL    HW284814  14.369  10.401  11.618
61014SOL     OW84815   7.647  14.541  11.746
61014SOL    HW184816   7.687  14.609  11.800
61014SOL    HW284817   7.555  14.567  11.741
61015SOL     OW84818  14.438   3.260   7.566
61015SOL    HW184819  14.498   3.188   7.545
61015SOL    HW284820  14.485   3.338   7.538
61016SOL     OW84821   2.379  10.498   2.658
61016SOL    HW184822   2.286  10.502   2.680
61016SOL    HW284823   2.387  10.420   2.603
61017SOL     OW84824   6.533  14.443  12.561
61017SOL    HW184825   6.520  14.508  12.493
61017SOL    HW284826   6.618  14.463  12.598
61018SOL     OW84827   4.605   9.570  13.233
61018SOL    HW184828   4.631   9.527  13.314
61018SOL    HW284829   4.636   9.512  13.164
61019SOL     OW84830   7.503   8.019   6.090
61019SOL    HW184831   7.573   8.039   6.152
61019SOL    HW284832   7.448   7.955   6.136
61020SOL     OW84833   8.881   7.257   6.901
61020SOL    HW184834   8.814   7.236   6.835
61020SOL    HW284835   8.956   7.204   6.877
61021SOL     OW84836   4.492   3.098   2.995
61021SOL    HW184837   4.418   3.050   3.033
61021SOL    HW284838   4.462   3.189   2.992
61022SOL     OW84839  13.320   7.083  14.050
61022SOL    HW184840  13.357   7.006  14.094
61022SOL    HW284841  13.392   7.146  14.049
61023SOL     OW84842   4.057  10.583  13.065
61023SOL    HW184843   4.049  10.493  13.032
61023SOL    HW284844   3.995  10.587  13.137
61024SOL     OW84845   9.302   4.427  14.836
61024SOL    HW184846   9.219   4.475  14.841
61024SOL    HW284847   9.279   4.342  14.799
61025SOL     OW84848   9.610   2.462  10.313
61025SOL    HW184849   9.635   2.550  10.342
61025SOL    HW284850   9.526   2.446  10.355
61026SOL     OW84851   1.041   4.004   2.453
61026SOL    HW184852   1.034   4.045   2.539
61026SOL    HW284853   0.964   4.034   2.405
61027SOL     OW84854  14.340  12.416   6.453
61027SOL    HW184855  14.380  12.415   6.366
61027SOL    HW284856  14.270  12.351   6.448
61028SOL     OW84857   4.763   9.579  12.600
61028SOL    HW184858   4.838   9.638  12.590
61028SOL    HW284859   4.801   9.492  12.587
61029SOL     OW84860   5.270   5.636  13.383
61029SOL    HW184861   5.228   5.653  13.468
61029SOL    HW284862   5.209   5.578  13.337
61030SOL     OW84863   1.503   8.717   2.556
61030SOL    HW184864   1.474   8.626   2.566
61030SOL    HW284865   1.424   8.765   2.531
61031SOL     OW84866  12.541  13.825   7.752
61031SOL    HW184867  12.526  13.814   7.846
61031SOL    HW284868  12.495  13.906   7.730
61032SOL     OW84869   4.768   1.539  11.854
61032SOL    HW184870   4.800   1.449  11.850
61032SOL    HW284871   4.673   1.531  11.864
61033SOL     OW84872   4.068  12.319   3.507
61033SOL    HW184873   4.063  12.387   3.574
61033SOL    HW284874   4.162  12.298   3.501
61034SOL     OW84875   6.042   7.816  13.336
61034SOL    HW184876   6.022   7.806  13.429
61034SOL    HW284877   5.998   7.742  13.294
61035SOL     OW84878  12.380   9.246   0.832
61035SOL    HW184879  12.375   9.186   0.906
61035SOL    HW284880  12.343   9.329   0.865
61036SOL     OW84881   5.323  11.529  13.494
61036SOL    HW184882   5.281  11.615  13.490
61036SOL    HW284883   5.264  11.471  13.445
61037SOL     OW84884   5.978   2.001   6.386
61037SOL    HW184885   6.056   2.055   6.368
61037SOL    HW284886   5.919   2.019   6.313
61038SOL     OW84887   0.095   9.922  12.325
61038SOL    HW184888   0.074   9.842  12.277
61038SOL    HW284889   0.070   9.993  12.265
61039SOL     OW84890  11.650   9.150   0.895
61039SOL    HW184891  11.622   9.076   0.841
61039SOL    HW284892  11.649   9.225   0.836
61040SOL     OW84893   9.293  12.881  13.162
61040SOL    HW184894   9.281  12.830  13.242
61040SOL    HW284895   9.243  12.962  13.177
61041SOL     OW84896  12.849   0.871  14.819
61041SOL    HW184897  12.912   0.913  14.877
61041SOL    HW284898  12.787   0.826   0.000
61042SOL     OW84899  12.505  12.330   2.036
61042SOL    HW184900  12.474  12.264   1.974
61042SOL    HW284901  12.456  12.313   2.116
61043SOL     OW84902   3.579   9.909   7.211
61043SOL    HW184903   3.601  10.000   7.231
61043SOL    HW284904   3.508   9.887   7.271
61044SOL     OW84905  11.317  10.320   0.039
61044SOL    HW184906  11.280  10.303  14.829
61044SOL    HW284907  11.377  10.393   0.026
61045SOL     OW84908   4.374  13.589  10.425
61045SOL    HW184909   4.324  13.649  10.481
61045SOL    HW284910   4.465  13.600  10.453
61046SOL     OW84911  11.791   1.407   7.503
61046SOL    HW184912  11.823   1.402   7.413
61046SOL    HW284913  11.703   1.371   7.500
61047SOL     OW84914   5.237   3.845   2.693
61047SOL    HW184915   5.281   3.786   2.633
61047SOL    HW284916   5.214   3.921   2.640
61048SOL     OW84917   7.921   5.633   2.432
61048SOL    HW184918   7.856   5.702   2.448
61048SOL    HW284919   8.005   5.675   2.450
61049SOL     OW84920  14.779   4.088   6.110
61049SOL    HW184921  14.810   4.068   6.198
61049SOL    HW284922  14.683   4.088   6.118
61050SOL     OW84923   1.733   1.537   3.873
61050SOL    HW184924   1.674   1.606   3.904
61050SOL    HW284925   1.781   1.509   3.951
61051SOL     OW84926   8.886   7.443   0.999
61051SOL    HW184927   8.976   7.419   0.978
61051SOL    HW284928   8.893   7.499   1.076
61052SOL     OW84929  12.512   0.998  11.179
61052SOL    HW184930  12.546   0.954  11.101
61052SOL    HW284931  12.433   0.948  11.202
61053SOL     OW84932   4.919   2.831   1.747
61053SOL    HW184933   4.876   2.762   1.697
61053SOL    HW284934   4.880   2.826   1.834
61054SOL     OW84935  11.179   5.388  13.319
61054SOL    HW184936  11.095   5.410  13.360
61054SOL    HW284937  11.165   5.301  13.281
61055SOL     OW84938   4.526  14.757  14.293
61055SOL    HW184939   4.497  14.786  14.206
61055SOL    HW284940   4.569  14.834  14.331
61056SOL     OW84941   5.167  13.984   3.113
61056SOL    HW184942   5.132  14.035   3.185
61056SOL    HW284943   5.201  14.049   3.051
61057SOL     OW84944   6.145   4.125  10.493
61057SOL    HW184945   6.062   4.169  10.510
61057SOL    HW284946   6.130   4.035  10.522
61058SOL     OW84947   5.077   6.193   3.345
61058SOL    HW184948   5.041   6.186   3.256
61058SOL    HW284949   5.172   6.191   3.333
61059SOL     OW84950   2.680   1.766  14.115
61059SOL    HW184951   2.737   1.836  14.082
61059SOL    HW284952   2.721   1.738  14.196
61060SOL     OW84953   3.452   4.508   1.214
61060SOL    HW184954   3.536   4.491   1.257
61060SOL    HW284955   3.396   4.435   1.241
61061SOL     OW84956   5.004   7.443  13.689
61061SOL    HW184957   4.995   7.533  13.720
61061SOL    HW284958   4.939   7.394  13.738
61062SOL     OW84959   1.203   7.608   4.255
61062SOL    HW184960   1.187   7.544   4.186
61062SOL    HW284961   1.117   7.647   4.272
61063SOL     OW84962   7.666   5.678   5.659
61063SOL    HW184963   7.662   5.770   5.633
61063SOL    HW284964   7.603   5.634   5.602
61064SOL     OW84965   1.749   7.112  14.032
61064SOL    HW184966   1.777   7.155  14.113
61064SOL    HW284967   1.682   7.049  14.060
61065SOL     OW84968   1.706   4.179   7.213
61065SOL    HW184969   1.763   4.252   7.187
61065SOL    HW284970   1.618   4.216   7.213
61066SOL     OW84971  10.916   6.951   2.399
61066SOL    HW184972  11.008   6.930   2.381
61066SOL    HW284973  10.871   6.928   2.318
61067SOL     OW84974   4.367  12.893   1.111
61067SOL    HW184975   4.448  12.944   1.104
61067SOL    HW284976   4.390  12.807   1.076
61068SOL     OW84977   3.722   9.653   5.278
61068SOL    HW184978   3.715   9.561   5.252
61068SOL    HW284979   3.813   9.676   5.261
61069SOL     OW84980   1.064   9.714   6.102
61069SOL    HW184981   1.105   9.701   6.016
61069SOL    HW284982   1.063   9.628   6.142
61070SOL     OW84983   4.885   9.853   0.186
61070SOL    HW184984   4.973   9.827   0.158
61070SOL    HW284985   4.877   9.944   0.158
61071SOL     OW84986   1.238   2.204   5.756
61071SOL    HW184987   1.297   2.263   5.804
61071SOL    HW284988   1.248   2.119   5.800
61072SOL     OW84989   4.392   3.358   8.691
61072SOL    HW184990   4.437   3.279   8.720
61072SOL    HW284991   4.364   3.401   8.772
61073SOL     OW84992  12.101   6.517   7.219
61073SOL    HW184993  12.081   6.584   7.154
61073SOL    HW284994  12.090   6.434   7.172
61074SOL     OW84995  14.753   4.345   6.354
61074SOL    HW184996  14.826   4.386   6.401
61074SOL    HW284997  14.795   4.292   6.286
61075SOL     OW84998   4.082  11.985   7.318
61075SOL    HW184999   4.118  11.989   7.230
61075SOL    HW285000   4.010  12.048   7.318
61076SOL     OW85001  14.296   5.330   1.359
61076SOL    HW185002  14.360   5.349   1.291
61076SOL    HW285003  14.348   5.307   1.436
61077SOL     OW85004  11.151   6.011   0.980
61077SOL    HW185005  11.075   6.065   1.001
61077SOL    HW285006  11.114   5.930   0.945
61078SOL     OW85007  14.424   6.179   1.824
61078SOL    HW185008  14.465   6.145   1.904
61078SOL    HW285009  14.483   6.150   1.754
61079SOL     OW85010   9.899  10.039   2.941
61079SOL    HW185011   9.916   9.997   3.026
61079SOL    HW285012   9.871   9.967   2.884
61080SOL     OW85013   0.934   7.912   4.298
61080SOL    HW185014   0.974   7.999   4.300
61080SOL    HW285015   0.846   7.928   4.262
61081SOL     OW85016   1.498  12.870  11.214
61081SOL    HW185017   1.447  12.791  11.199
61081SOL    HW285018   1.507  12.876  11.309
61082SOL     OW85019   2.105   7.178  13.305
61082SOL    HW185020   2.115   7.220  13.390
61082SOL    HW285021   2.161   7.229  13.246
61083SOL     OW85022   0.879   6.736  13.482
61083SOL    HW185023   0.851   6.686  13.405
61083SOL    HW285024   0.931   6.674  13.534
61084SOL     OW85025  14.277  13.965   4.376
61084SOL    HW185026  14.368  13.975   4.404
61084SOL    HW285027  14.283  13.921   4.291
61085SOL     OW85028   0.118   8.344   7.561
61085SOL    HW185029   0.131   8.423   7.614
61085SOL    HW285030   0.156   8.274   7.613
61086SOL     OW85031  13.902   1.841  11.804
61086SOL    HW185032  13.992   1.817  11.779
61086SOL    HW285033  13.913   1.898  11.880
61087SOL     OW85034   2.422   4.944   8.931
61087SOL    HW185035   2.371   5.025   8.935
61087SOL    HW285036   2.486   4.960   8.861
61088SOL     OW85037   0.521   3.277  14.764
61088SOL    HW185038   0.580   3.209  14.734
61088SOL    HW285039   0.434   3.248  14.737
61089SOL     OW85040   5.727  14.643  10.600
61089SOL    HW185041   5.799  14.589  10.633
61089SOL    HW285042   5.710  14.706  10.670
61090SOL     OW85043  11.250  12.599   6.902
61090SOL    HW185044  11.303  12.645   6.967
61090SOL    HW285045  11.300  12.604   6.821
61091SOL     OW85046  12.586   1.867   5.658
61091SOL    HW185047  12.496   1.839   5.648
61091SOL    HW285048  12.634   1.823   5.588
61092SOL     OW85049  10.748   9.871  12.921
61092SOL    HW185050  10.771   9.856  13.013
61092SOL    HW285051  10.685   9.943  12.924
61093SOL     OW85052  14.850   8.784  11.709
61093SOL    HW185053  14.764   8.803  11.669
61093SOL    HW285054   0.033   8.844  11.665
61094SOL     OW85055  11.649   7.276  11.961
61094SOL    HW185056  11.679   7.328  12.036
61094SOL    HW285057  11.723   7.219  11.940
61095SOL     OW85058   3.471   2.113   8.438
61095SOL    HW185059   3.449   2.205   8.449
61095SOL    HW285060   3.524   2.109   8.359
61096SOL     OW85061   8.137  11.894   7.900
61096SOL    HW185062   8.048  11.899   7.866
61096SOL    HW285063   8.144  11.806   7.936
61097SOL     OW85064   2.101   6.955  10.994
61097SOL    HW185065   2.023   7.000  11.028
61097SOL    HW285066   2.089   6.864  11.018
61098SOL     OW85067  13.485   7.574  13.064
61098SOL    HW185068  13.485   7.502  13.001
61098SOL    HW285069  13.438   7.539  13.140
61099SOL     OW85070   1.279   7.254   8.575
61099SOL    HW185071   1.370   7.225   8.567
61099SOL    HW285072   1.281   7.318   8.646
61100SOL     OW85073  11.540   3.272  14.146
61100SOL    HW185074  11.456   3.294  14.186
61100SOL    HW285075  11.520   3.268  14.052
61101SOL     OW85076   9.243   5.554   9.404
61101SOL    HW185077   9.253   5.575   9.497
61101SOL    HW285078   9.209   5.464   9.404
61102SOL     OW85079  12.460   7.408   2.536
61102SOL    HW185080  12.529   7.362   2.489
61102SOL    HW285081  12.485   7.501   2.531
61103SOL     OW85082   4.775   6.833   8.364
61103SOL    HW185083   4.866   6.859   8.358
61103SOL    HW285084   4.726   6.907   8.327
61104SOL     OW85085   6.169   3.339   1.447
61104SOL    HW185086   6.148   3.394   1.523
61104SOL    HW285087   6.208   3.400   1.384
61105SOL     OW85088  11.945   7.771   9.989
61105SOL    HW185089  11.948   7.793  10.082
61105SOL    HW285090  11.864   7.720   9.979
61106SOL     OW85091  10.735   2.939  11.498
61106SOL    HW185092  10.644   2.916  11.477
61106SOL    HW285093  10.762   2.996  11.426
61107SOL     OW85094  14.760  12.138  14.352
61107SOL    HW185095  14.814  12.086  14.412
61107SOL    HW285096  14.721  12.074  14.293
61108SOL     OW85097   8.742  12.140  11.078
61108SOL    HW185098   8.752  12.230  11.109
61108SOL    HW285099   8.709  12.092  11.155
61109SOL     OW85100   5.512  14.801   8.170
61109SOL    HW185101   5.605  14.825   8.175
61109SOL    HW285102   5.513  14.707   8.150
61110SOL     OW85103   8.012  11.976  14.298
61110SOL    HW185104   8.041  11.959  14.208
61110SOL    HW285105   7.989  12.069  14.298
61111SOL     OW85106   7.473   3.431  10.818
61111SOL    HW185107   7.427   3.382  10.750
61111SOL    HW285108   7.404   3.456  10.880
61112SOL     OW85109   8.708   5.076   2.851
61112SOL    HW185110   8.621   5.037   2.860
61112SOL    HW285111   8.757   5.012   2.799
61113SOL     OW85112   0.248   1.358   7.478
61113SOL    HW185113   0.328   1.399   7.444
61113SOL    HW285114   0.257   1.363   7.573
61114SOL     OW85115   6.732  14.254   0.446
61114SOL    HW185116   6.732  14.314   0.521
61114SOL    HW285117   6.724  14.167   0.485
61115SOL     OW85118   9.088  11.540   8.313
61115SOL    HW185119   9.163  11.580   8.267
61115SOL    HW285120   9.111  11.545   8.406
61116SOL     OW85121   6.696   4.245   7.851
61116SOL    HW185122   6.724   4.176   7.791
61116SOL    HW285123   6.711   4.208   7.938
61117SOL     OW85124   8.432  11.303  12.026
61117SOL    HW185125   8.481  11.350  11.959
61117SOL    HW285126   8.372  11.369  12.062
61118SOL     OW85127   4.420   2.961  13.153
61118SOL    HW185128   4.446   3.039  13.105
61118SOL    HW285129   4.419   2.989  13.245
61119SOL     OW85130   7.503  13.043   7.902
61119SOL    HW185131   7.535  12.995   7.825
61119SOL    HW285132   7.411  13.061   7.883
61120SOL     OW85133  14.033   1.462   6.829
61120SOL    HW185134  13.969   1.429   6.892
61120SOL    HW285135  14.081   1.384   6.801
61121SOL     OW85136   7.332  12.885   4.025
61121SOL    HW185137   7.294  12.973   4.019
61121SOL    HW285138   7.407  12.895   4.083
61122SOL     OW85139   8.210   3.352   6.315
61122SOL    HW185140   8.267   3.317   6.246
61122SOL    HW285141   8.125   3.309   6.300
61123SOL     OW85142   7.343   5.072  11.195
61123SOL    HW185143   7.419   5.115  11.235
61123SOL    HW285144   7.373   4.983  11.177
61124SOL     OW85145   6.719   5.754  11.332
61124SOL    HW185146   6.747   5.832  11.379
61124SOL    HW285147   6.703   5.689  11.400
61125SOL     OW85148  14.418   2.356  14.657
61125SOL    HW185149  14.396   2.445  14.629
61125SOL    HW285150  14.347   2.331  14.716
61126SOL     OW85151  11.937   3.551  12.841
61126SOL    HW185152  11.849   3.534  12.807
61126SOL    HW285153  11.964   3.631  12.796
61127SOL     OW85154   9.809   2.595   4.965
61127SOL    HW185155   9.720   2.617   4.991
61127SOL    HW285156   9.846   2.551   5.042
61128SOL     OW85157   7.307   2.386  11.793
61128SOL    HW185158   7.332   2.393  11.701
61128SOL    HW285159   7.275   2.296  11.803
61129SOL     OW85160   4.181   0.111  14.491
61129SOL    HW185161   4.226   0.081  14.570
61129SOL    HW285162   4.164   0.032  14.441
61130SOL     OW85163   5.788  11.589   6.727
61130SOL    HW185164   5.763  11.679   6.747
61130SOL    HW285165   5.881  11.585   6.748
61131SOL     OW85166   0.044  14.035  14.055
61131SOL    HW185167   0.095  14.085  13.991
61131SOL    HW285168  14.858  13.986  14.003
61132SOL     OW85169   0.271   8.650   9.035
61132SOL    HW185170   0.210   8.700   8.980
61132SOL    HW285171   0.347   8.707   9.043
61133SOL     OW85172  14.160   7.758   2.265
61133SOL    HW185173  14.096   7.820   2.300
61133SOL    HW285174  14.135   7.746   2.174
61134SOL     OW85175   9.067   2.069   4.157
61134SOL    HW185176   9.155   2.103   4.144
61134SOL    HW285177   9.027   2.128   4.221
61135SOL     OW85178   5.913   2.188   9.282
61135SOL    HW185179   5.863   2.206   9.362
61135SOL    HW285180   5.943   2.097   9.293
61136SOL     OW85181   0.408  13.750  10.706
61136SOL    HW185182   0.422  13.738  10.612
61136SOL    HW285183   0.495  13.772  10.740
61137SOL     OW85184   5.684   6.690  10.577
61137SOL    HW185185   5.695   6.731  10.491
61137SOL    HW285186   5.771   6.691  10.616
61138SOL     OW85187   1.738   1.791  10.910
61138SOL    HW185188   1.797   1.768  10.982
61138SOL    HW285189   1.662   1.830  10.953
61139SOL     OW85190   4.729   4.111   7.273
61139SOL    HW185191   4.656   4.159   7.234
61139SOL    HW285192   4.687   4.054   7.338
61140SOL     OW85193   4.867  11.646   4.340
61140SOL    HW185194   4.896  11.600   4.418
61140SOL    HW285195   4.911  11.602   4.267
61141SOL     OW85196  10.897   2.271  13.316
61141SOL    HW185197  10.885   2.185  13.276
61141SOL    HW285198  10.987   2.270  13.348
61142SOL     OW85199  12.949   5.989   4.668
61142SOL    HW185200  12.912   6.036   4.743
61142SOL    HW285201  12.878   5.986   4.604
61143SOL     OW85202   7.148   6.601  12.494
61143SOL    HW185203   7.112   6.685  12.523
61143SOL    HW285204   7.170   6.616  12.402
61144SOL     OW85205   1.673   7.674   5.943
61144SOL    HW185206   1.642   7.711   6.025
61144SOL    HW285207   1.721   7.745   5.900
61145SOL     OW85208   0.261  10.704   2.744
61145SOL    HW185209   0.188  10.675   2.689
61145SOL    HW285210   0.281  10.792   2.712
61146SOL     OW85211  12.363   7.873   6.573
61146SOL    HW185212  12.417   7.901   6.498
61146SOL    HW285213  12.416   7.895   6.649
61147SOL     OW85214   9.520   9.801   2.934
61147SOL    HW185215   9.434   9.835   2.908
61147SOL    HW285216   9.570   9.797   2.852
61148SOL     OW85217  10.944  14.022  14.866
61148SOL    HW185218  10.907  13.994   0.073
61148SOL    HW285219  11.039  14.022   0.003
61149SOL     OW85220   5.227   2.003  14.767
61149SOL    HW185221   5.171   1.926  14.764
61149SOL    HW285222   5.216   2.037  14.856
61150SOL     OW85223   6.351  13.894   1.368
61150SOL    HW185224   6.306  13.881   1.285
61150SOL    HW285225   6.377  13.806   1.396
61151SOL     OW85226  10.427   5.504   4.485
61151SOL    HW185227  10.487   5.431   4.502
61151SOL    HW285228  10.474   5.559   4.421
61152SOL     OW85229   5.500  14.302  13.562
61152SOL    HW185230   5.551  14.344  13.493
61152SOL    HW285231   5.412  14.338  13.552
61153SOL     OW85232   1.245   1.607   4.306
61153SOL    HW185233   1.308   1.536   4.317
61153SOL    HW285234   1.295   1.686   4.327
61154SOL     OW85235   5.385   0.278  10.644
61154SOL    HW185236   5.467   0.232  10.627
61154SOL    HW285237   5.405   0.339  10.714
61155SOL     OW85238   2.258  11.669   1.167
61155SOL    HW185239   2.344  11.693   1.132
61155SOL    HW285240   2.246  11.577   1.141
61156SOL     OW85241  10.352  14.732  10.579
61156SOL    HW185242  10.365  14.821  10.611
61156SOL    HW285243  10.425  14.718  10.518
61157SOL     OW85244  14.358   0.669  11.380
61157SOL    HW185245  14.400   0.696  11.299
61157SOL    HW285246  14.421   0.693  11.448
61158SOL     OW85247   0.289  12.897   3.878
61158SOL    HW185248   0.383  12.881   3.871
61158SOL    HW285249   0.265  12.864   3.965
61159SOL     OW85250   1.023  10.612   6.391
61159SOL    HW185251   1.114  10.639   6.375
61159SOL    HW285252   1.000  10.560   6.315
61160SOL     OW85253   9.593   6.283   5.333
61160SOL    HW185254   9.640   6.288   5.416
61160SOL    HW285255   9.661   6.270   5.267
61161SOL     OW85256   9.923   6.136  14.712
61161SOL    HW185257   9.839   6.146  14.757
61161SOL    HW285258   9.960   6.224  14.712
61162SOL     OW85259   6.094   0.893   5.400
61162SOL    HW185260   6.075   0.807   5.362
61162SOL    HW285261   6.018   0.946   5.380
61163SOL     OW85262   7.300   4.627  14.134
61163SOL    HW185263   7.251   4.560  14.087
61163SOL    HW285264   7.243   4.704  14.133
61164SOL     OW85265  12.226   5.038  10.350
61164SOL    HW185266  12.139   5.008  10.376
61164SOL    HW285267  12.270   4.960  10.317
61165SOL     OW85268   8.731   0.693  11.965
61165SOL    HW185269   8.778   0.676  11.883
61165SOL    HW285270   8.766   0.629  12.026
61166SOL     OW85271  10.285   3.257   6.451
61166SOL    HW185272  10.280   3.269   6.357
61166SOL    HW285273  10.261   3.165   6.465
61167SOL     OW85274   4.458   3.163   1.454
61167SOL    HW185275   4.440   3.254   1.477
61167SOL    HW285276   4.511   3.130   1.527
61168SOL     OW85277   8.957   8.932   3.705
61168SOL    HW185278   8.994   8.949   3.791
61168SOL    HW285279   8.895   8.860   3.718
61169SOL     OW85280   2.709   2.432  11.996
61169SOL    HW185281   2.775   2.499  11.977
61169SOL    HW285282   2.746   2.351  11.960
61170SOL     OW85283  14.104  13.058  10.092
61170SOL    HW185284  14.066  12.971  10.103
61170SOL    HW285285  14.092  13.100  10.178
61171SOL     OW85286   4.380   3.227   9.954
61171SOL    HW185287   4.340   3.313   9.945
61171SOL    HW285288   4.464   3.245   9.997
61172SOL     OW85289  11.004   1.517  13.179
61172SOL    HW185290  11.040   1.563  13.103
61172SOL    HW285291  11.080   1.484  13.226
61173SOL     OW85292   2.259   0.094   6.857
61173SOL    HW185293   2.222   0.052   6.779
61173SOL    HW285294   2.272   0.022   6.918
61174SOL     OW85295   1.433   6.557   1.398
61174SOL    HW185296   1.482   6.567   1.317
61174SOL    HW285297   1.373   6.484   1.381
61175SOL     OW85298   4.982  10.263  12.155
61175SOL    HW185299   4.970  10.168  12.158
61175SOL    HW285300   4.944  10.290  12.071
61176SOL     OW85301  10.218   7.604   2.072
61176SOL    HW185302  10.240   7.519   2.111
61176SOL    HW285303  10.132   7.590   2.031
61177SOL     OW85304  14.556  12.855   8.439
61177SOL    HW185305  14.546  12.762   8.457
61177SOL    HW285306  14.630  12.860   8.379
61178SOL     OW85307   7.207   8.962  13.534
61178SOL    HW185308   7.202   8.889  13.473
61178SOL    HW285309   7.139   8.943  13.599
61179SOL     OW85310   5.106   2.928   6.640
61179SOL    HW185311   5.146   3.014   6.629
61179SOL    HW285312   5.145   2.894   6.721
61180SOL     OW85313   6.225   4.720   8.183
61180SOL    HW185314   6.292   4.677   8.129
61180SOL    HW285315   6.210   4.658   8.254
61181SOL     OW85316   2.802  12.463   3.590
61181SOL    HW185317   2.742  12.425   3.526
61181SOL    HW285318   2.830  12.546   3.550
61182SOL     OW85319   4.257  12.025  11.473
61182SOL    HW185320   4.229  12.086  11.542
61182SOL    HW285321   4.352  12.039  11.467
61183SOL     OW85322  10.321   5.652   8.749
61183SOL    HW185323  10.391   5.669   8.686
61183SOL    HW285324  10.250   5.614   8.697
61184SOL     OW85325  13.770   0.305   6.842
61184SOL    HW185326  13.756   0.232   6.902
61184SOL    HW285327  13.691   0.307   6.788
61185SOL     OW85328  12.301   6.616   4.744
61185SOL    HW185329  12.365   6.655   4.684
61185SOL    HW285330  12.353   6.588   4.819
61186SOL     OW85331   1.406   0.513   6.982
61186SOL    HW185332   1.339   0.446   6.965
61186SOL    HW285333   1.489   0.469   6.964
61187SOL     OW85334   9.344  10.133   3.948
61187SOL    HW185335   9.266  10.095   3.908
61187SOL    HW285336   9.412  10.122   3.882
61188SOL     OW85337   1.801   8.928   5.816
61188SOL    HW185338   1.888   8.958   5.842
61188SOL    HW285339   1.818   8.846   5.769
61189SOL     OW85340  12.614  10.030   2.896
61189SOL    HW185341  12.553   9.959   2.913
61189SOL    HW285342  12.700   9.988   2.892
61190SOL     OW85343   2.410   8.267  12.301
61190SOL    HW185344   2.342   8.307  12.356
61190SOL    HW285345   2.407   8.174  12.322
61191SOL     OW85346  11.452   9.992  14.551
61191SOL    HW185347  11.426  10.078  14.517
61191SOL    HW285348  11.547   9.992  14.547
61192SOL     OW85349   5.540  14.328   8.741
61192SOL    HW185350   5.522  14.317   8.647
61192SOL    HW285351   5.515  14.244   8.780
61193SOL     OW85352   9.613   0.581  13.390
61193SOL    HW185353   9.662   0.631  13.325
61193SOL    HW285354   9.590   0.646  13.457
61194SOL     OW85355  11.367   4.750   6.947
61194SOL    HW185356  11.448   4.789   6.914
61194SOL    HW285357  11.305   4.823   6.950
61195SOL     OW85358   3.016  11.139   0.038
61195SOL    HW185359   2.931  11.109   0.069
61195SOL    HW285360   2.998  11.222  14.871
61196SOL     OW85361   7.907  10.772   8.132
61196SOL    HW185362   7.970  10.728   8.075
61196SOL    HW285363   7.836  10.709   8.142
61197SOL     OW85364  10.128  12.200   5.560
61197SOL    HW185365  10.113  12.292   5.579
61197SOL    HW285366  10.096  12.188   5.470
61198SOL     OW85367   5.599   2.376  14.121
61198SOL    HW185368   5.630   2.424  14.198
61198SOL    HW285369   5.570   2.291  14.155
61199SOL     OW85370   4.840  14.235  13.080
61199SOL    HW185371   4.844  14.331  13.075
61199SOL    HW285372   4.882  14.214  13.164
61200SOL     OW85373  14.117   8.775  13.185
61200SOL    HW185374  14.177   8.710  13.150
61200SOL    HW285375  14.042   8.724  13.216
61201SOL     OW85376  11.353   8.899  11.127
61201SOL    HW185377  11.302   8.830  11.086
61201SOL    HW285378  11.338   8.976  11.073
61202SOL     OW85379  14.872   1.100   4.984
61202SOL    HW185380  14.828   1.104   5.068
61202SOL    HW285381   0.064   1.165   4.990
61203SOL     OW85382   3.991   0.215  12.706
61203SOL    HW185383   4.034   0.148  12.758
61203SOL    HW285384   4.047   0.292  12.712
61204SOL     OW85385  12.864  13.019   7.235
61204SOL    HW185386  12.894  13.027   7.325
61204SOL    HW285387  12.921  13.077   7.185
61205SOL     OW85388   2.188   1.995   8.712
61205SOL    HW185389   2.173   2.023   8.622
61205SOL    HW285390   2.100   1.977   8.746
61206SOL     OW85391   9.804  12.554  11.221
61206SOL    HW185392   9.840  12.642  11.209
61206SOL    HW285393   9.875  12.495  11.196
61207SOL     OW85394   3.821  11.766  10.659
61207SOL    HW185395   3.808  11.860  10.645
61207SOL    HW285396   3.907  11.747  10.621
61208SOL     OW85397   5.091  10.859   2.517
61208SOL    HW185398   5.158  10.863   2.449
61208SOL    HW285399   5.050  10.946   2.516
61209SOL     OW85400  13.026   8.134  10.490
61209SOL    HW185401  13.059   8.202  10.431
61209SOL    HW285402  13.055   8.163  10.577
61210SOL     OW85403   6.689   6.689   6.170
61210SOL    HW185404   6.632   6.672   6.095
61210SOL    HW285405   6.658   6.773   6.205
61211SOL     OW85406   5.805  10.916  14.030
61211SOL    HW185407   5.711  10.927  14.025
61211SOL    HW285408   5.832  10.896  13.940
61212SOL     OW85409  12.165  13.825   5.557
61212SOL    HW185410  12.173  13.916   5.586
61212SOL    HW285411  12.084  13.823   5.505
61213SOL     OW85412   2.419   7.068   2.274
61213SOL    HW185413   2.487   7.126   2.308
61213SOL    HW285414   2.403   7.099   2.185
61214SOL     OW85415  10.089   7.516   4.727
61214SOL    HW185416  10.053   7.587   4.781
61214SOL    HW285417  10.012   7.466   4.699
61215SOL     OW85418   1.474   1.440   5.775
61215SOL    HW185419   1.407   1.441   5.843
61215SOL    HW285420   1.508   1.351   5.777
61216SOL     OW85421   1.227   5.092   7.188
61216SOL    HW185422   1.167   5.099   7.114
61216SOL    HW285423   1.254   5.182   7.206
61217SOL     OW85424   7.282  13.032   7.285
61217SOL    HW185425   7.349  13.068   7.343
61217SOL    HW285426   7.311  12.942   7.267
61218SOL     OW85427   3.692   8.511  11.197
61218SOL    HW185428   3.712   8.596  11.237
61218SOL    HW285429   3.742   8.448  11.249
61219SOL     OW85430  10.817   4.716   7.781
61219SOL    HW185431  10.852   4.796   7.820
61219SOL    HW285432  10.792   4.740   7.692
61220SOL     OW85433   6.599   8.804   1.969
61220SOL    HW185434   6.686   8.782   2.001
61220SOL    HW285435   6.613   8.877   1.908
61221SOL     OW85436   0.949  11.293  13.896
61221SOL    HW185437   1.008  11.367  13.890
61221SOL    HW285438   0.898  11.309  13.976
61222SOL     OW85439   7.164   9.562   3.588
61222SOL    HW185440   7.205   9.636   3.543
61222SOL    HW285441   7.075   9.591   3.607
61223SOL     OW85442   6.836  10.310  14.304
61223SOL    HW185443   6.758  10.254  14.309
61223SOL    HW285444   6.836  10.343  14.214
61224SOL     OW85445   9.076   9.946   9.359
61224SOL    HW185446   9.046  10.005   9.289
61224SOL    HW285447   9.167   9.972   9.375
61225SOL     OW85448   0.450   7.781   5.630
61225SOL    HW185449   0.411   7.869   5.631
61225SOL    HW285450   0.504   7.780   5.551
61226SOL     OW85451  14.709   5.482  12.594
61226SOL    HW185452  14.687   5.498  12.502
61226SOL    HW285453  14.674   5.395  12.613
61227SOL     OW85454   3.426   8.951  11.273
61227SOL    HW185455   3.477   8.981  11.348
61227SOL    HW285456   3.420   9.028  11.216
61228SOL     OW85457   0.284   9.567   2.626
61228SOL    HW185458   0.196   9.529   2.619
61228SOL    HW285459   0.332   9.504   2.681
61229SOL     OW85460  12.653   3.635   0.610
61229SOL    HW185461  12.726   3.692   0.635
61229SOL    HW285462  12.579   3.694   0.597
61230SOL     OW85463   6.901   9.934  12.028
61230SOL    HW185464   6.965  10.003  12.010
61230SOL    HW285465   6.862   9.960  12.112
61231SOL     OW85466   5.435   4.975  10.441
61231SOL    HW185467   5.461   5.034  10.512
61231SOL    HW285468   5.341   4.963  10.452
61232SOL     OW85469   7.040   8.612   5.733
61232SOL    HW185470   7.079   8.608   5.646
61232SOL    HW285471   6.955   8.570   5.723
61233SOL     OW85472   9.674   1.981   4.822
61233SOL    HW185473   9.617   1.946   4.755
61233SOL    HW285474   9.752   1.926   4.819
61234SOL     OW85475  10.020   7.585  11.280
61234SOL    HW185476   9.976   7.536  11.211
61234SOL    HW285477  10.012   7.677  11.254
61235SOL     OW85478   9.294   4.356   8.672
61235SOL    HW185479   9.369   4.333   8.618
61235SOL    HW285480   9.245   4.420   8.620
61236SOL     OW85481   4.418  14.465   2.300
61236SOL    HW185482   4.405  14.558   2.312
61236SOL    HW285483   4.406  14.451   2.206
61237SOL     OW85484   6.058   8.809  10.010
61237SOL    HW185485   6.042   8.822   9.917
61237SOL    HW285486   5.998   8.870  10.053
61238SOL     OW85487   8.531   4.723   9.321
61238SOL    HW185488   8.582   4.647   9.349
61238SOL    HW285489   8.512   4.771   9.402
61239SOL     OW85490   8.606   2.107   3.224
61239SOL    HW185491   8.698   2.085   3.207
61239SOL    HW285492   8.556   2.048   3.167
61240SOL     OW85493  13.197   7.728   5.909
61240SOL    HW185494  13.204   7.704   5.817
61240SOL    HW285495  13.274   7.689   5.951
61241SOL     OW85496   4.551   6.317   8.020
61241SOL    HW185497   4.479   6.367   8.058
61241SOL    HW285498   4.613   6.383   7.990
61242SOL     OW85499   6.795  10.854   2.553
61242SOL    HW185500   6.739  10.930   2.570
61242SOL    HW285501   6.884  10.887   2.566
61243SOL     OW85502   7.481  12.165   2.794
61243SOL    HW185503   7.550  12.137   2.734
61243SOL    HW285504   7.513  12.138   2.880
61244SOL     OW85505  14.687   1.855   7.758
61244SOL    HW185506  14.713   1.854   7.850
61244SOL    HW285507  14.754   1.804   7.713
61245SOL     OW85508  12.386  12.191  13.830
61245SOL    HW185509  12.311  12.153  13.783
61245SOL    HW285510  12.359  12.192  13.922
61246SOL     OW85511   5.199   4.919   0.738
61246SOL    HW185512   5.227   4.964   0.659
61246SOL    HW285513   5.153   4.842   0.706
61247SOL     OW85514   0.120   4.916   8.259
61247SOL    HW185515   0.185   4.860   8.216
61247SOL    HW285516   0.170   4.965   8.324
61248SOL     OW85517  10.841  12.339   5.408
61248SOL    HW185518  10.861  12.345   5.501
61248SOL    HW285519  10.904  12.399   5.366
61249SOL     OW85520  10.595  11.275   7.478
61249SOL    HW185521  10.567  11.360   7.445
61249SOL    HW285522  10.601  11.219   7.400
61250SOL     OW85523  10.478  14.688   4.510
61250SOL    HW185524  10.494  14.597   4.484
61250SOL    HW285525  10.540  14.739   4.456
61251SOL     OW85526  13.820   9.391   1.842
61251SOL    HW185527  13.734   9.355   1.817
61251SOL    HW285528  13.878   9.365   1.771
61252SOL     OW85529   4.914   4.160   9.581
61252SOL    HW185530   4.901   4.088   9.520
61252SOL    HW285531   4.920   4.119   9.667
61253SOL     OW85532   5.099  14.109   8.003
61253SOL    HW185533   5.128  14.176   7.942
61253SOL    HW285534   5.153  14.121   8.081
61254SOL     OW85535   4.276   7.989  12.731
61254SOL    HW185536   4.203   8.045  12.706
61254SOL    HW285537   4.347   8.050  12.751
61255SOL     OW85538  14.173   1.759  12.497
61255SOL    HW185539  14.225   1.811  12.436
61255SOL    HW285540  14.213   1.775  12.583
61256SOL     OW85541   8.663   7.863  12.192
61256SOL    HW185542   8.643   7.947  12.150
61256SOL    HW285543   8.743   7.834  12.149
61257SOL     OW85544   5.053   8.885   0.777
61257SOL    HW185545   5.059   8.976   0.805
61257SOL    HW285546   5.069   8.834   0.856
61258SOL     OW85547   5.438   9.516  11.765
61258SOL    HW185548   5.438   9.442  11.827
61258SOL    HW285549   5.411   9.477  11.682
61259SOL     OW85550   7.574   9.203  14.432
61259SOL    HW185551   7.632   9.209  14.355
61259SOL    HW285552   7.587   9.114  14.465
61260SOL     OW85553   3.836   7.668   7.776
61260SOL    HW185554   3.911   7.608   7.772
61260SOL    HW285555   3.873   7.751   7.807
61261SOL     OW85556   0.802   6.841   9.283
61261SOL    HW185557   0.893   6.811   9.282
61261SOL    HW285558   0.787   6.870   9.373
61262SOL     OW85559   9.207   6.946   2.093
61262SOL    HW185560   9.293   6.930   2.055
61262SOL    HW285561   9.165   7.007   2.033
61263SOL     OW85562   9.045   3.593   1.178
61263SOL    HW185563   9.073   3.611   1.268
61263SOL    HW285564   9.095   3.515   1.153
61264SOL     OW85565  12.357   5.802   0.123
61264SOL    HW185566  12.316   5.727   0.080
61264SOL    HW285567  12.427   5.829   0.062
61265SOL     OW85568  13.311  11.132   2.431
61265SOL    HW185569  13.232  11.159   2.478
61265SOL    HW285570  13.282  11.059   2.376
61266SOL     OW85571   1.006  13.957   8.708
61266SOL    HW185572   1.099  13.933   8.713
61266SOL    HW285573   0.980  13.973   8.799
61267SOL     OW85574  10.534   4.659   7.675
61267SOL    HW185575  10.461   4.675   7.735
61267SOL    HW285576  10.578   4.582   7.712
61268SOL     OW85577   0.770  10.304  12.541
61268SOL    HW185578   0.749  10.337  12.629
61268SOL    HW285579   0.840  10.241  12.556
61269SOL     OW85580   0.362   1.141  12.366
61269SOL    HW185581   0.454   1.167  12.368
61269SOL    HW285582   0.339   1.140  12.272
61270SOL     OW85583  14.689   8.032   9.809
61270SOL    HW185584  14.722   8.107   9.859
61270SOL    HW285585  14.732   7.956   9.848
61271SOL     OW85586  14.092  12.109   1.791
61271SOL    HW185587  14.025  12.053   1.753
61271SOL    HW285588  14.173  12.084   1.746
61272SOL     OW85589   7.578  11.173   7.165
61272SOL    HW185590   7.601  11.246   7.223
61272SOL    HW285591   7.482  11.177   7.160
61273SOL     OW85592   0.299   7.097   8.537
61273SOL    HW185593   0.299   7.175   8.593
61273SOL    HW285594   0.227   7.044   8.570
61274SOL     OW85595   6.345   3.842  10.047
61274SOL    HW185596   6.330   3.777   9.979
61274SOL    HW285597   6.317   3.799  10.128
61275SOL     OW85598   5.833   6.435   8.026
61275SOL    HW185599   5.785   6.356   8.000
61275SOL    HW285600   5.764   6.499   8.045
61276SOL     OW85601  14.824  12.071   1.458
61276SOL    HW185602   0.027  12.042   1.416
61276SOL    HW285603  14.827  12.167   1.451
61277SOL     OW85604   2.210  12.440   6.725
61277SOL    HW185605   2.198  12.527   6.686
61277SOL    HW285606   2.212  12.456   6.819
61278SOL     OW85607  12.697  11.760   9.161
61278SOL    HW185608  12.632  11.727   9.222
61278SOL    HW285609  12.780  11.722   9.190
61279SOL     OW85610   8.776   7.624   6.102
61279SOL    HW185611   8.787   7.714   6.071
61279SOL    HW285612   8.865   7.595   6.122
61280SOL     OW85613  10.963  11.891   8.699
61280SOL    HW185614  10.949  11.966   8.641
61280SOL    HW285615  11.049  11.858   8.675
61281SOL     OW85616   2.182   6.882   3.969
61281SOL    HW185617   2.104   6.833   3.996
61281SOL    HW285618   2.147   6.961   3.928
61282SOL     OW85619   1.090  10.746   1.757
61282SOL    HW185620   1.078  10.800   1.679
61282SOL    HW285621   1.182  10.758   1.781
61283SOL     OW85622   5.208  10.570   4.618
61283SOL    HW185623   5.124  10.529   4.601
61283SOL    HW285624   5.190  10.635   4.686
61284SOL     OW85625  12.171   9.989  11.484
61284SOL    HW185626  12.265   9.998  11.500
61284SOL    HW285627  12.164   9.966  11.391
61285SOL     OW85628  13.543   2.948   0.901
61285SOL    HW185629  13.491   2.933   0.980
61285SOL    HW285630  13.517   2.878   0.842
61286SOL     OW85631   4.186   3.090  14.513
61286SOL    HW185632   4.210   3.140  14.591
61286SOL    HW285633   4.143   3.155  14.456
61287SOL     OW85634   0.788   1.204   0.917
61287SOL    HW185635   0.877   1.237   0.908
61287SOL    HW285636   0.765   1.174   0.829
61288SOL     OW85637   5.165   5.622   3.758
61288SOL    HW185638   5.184   5.675   3.835
61288SOL    HW285639   5.153   5.534   3.791
61289SOL     OW85640   3.425   0.842   5.393
61289SOL    HW185641   3.376   0.796   5.325
61289SOL    HW285642   3.516   0.820   5.377
61290SOL     OW85643   1.986  14.046  10.612
61290SOL    HW185644   1.964  14.121  10.556
61290SOL    HW285645   1.905  13.996  10.618
61291SOL     OW85646  14.424   9.618  11.477
61291SOL    HW185647  14.377   9.669  11.543
61291SOL    HW285648  14.379   9.534  11.475
61292SOL     OW85649   9.417   4.701   9.194
61292SOL    HW185650   9.346   4.684   9.133
61292SOL    HW285651   9.401   4.789   9.226
61293SOL     OW85652  12.393   6.433   3.176
61293SOL    HW185653  12.450   6.501   3.212
61293SOL    HW285654  12.355   6.391   3.253
61294SOL     OW85655   0.456   8.944  14.027
61294SOL    HW185656   0.408   9.027  14.036
61294SOL    HW285657   0.548   8.968  14.042
61295SOL     OW85658   6.568   9.930   1.823
61295SOL    HW185659   6.524   9.912   1.740
61295SOL    HW285660   6.525   9.873   1.887
61296SOL     OW85661   2.428   4.086   6.149
61296SOL    HW185662   2.405   4.020   6.214
61296SOL    HW285663   2.467   4.157   6.200
61297SOL     OW85664   5.254   4.586   3.762
61297SOL    HW185665   5.307   4.665   3.760
61297SOL    HW285666   5.298   4.527   3.701
61298SOL     OW85667   4.919   7.651  10.164
61298SOL    HW185668   4.929   7.589  10.236
61298SOL    HW285669   5.005   7.692  10.156
61299SOL     OW85670  11.724   4.858  13.942
61299SOL    HW185671  11.814   4.829  13.931
61299SOL    HW285672  11.729   4.954  13.938
61300SOL     OW85673   6.842   3.788   4.352
61300SOL    HW185674   6.915   3.841   4.385
61300SOL    HW285675   6.818   3.732   4.426
61301SOL     OW85676   6.261   2.973  14.515
61301SOL    HW185677   6.331   2.974  14.450
61301SOL    HW285678   6.224   2.885  14.509
61302SOL     OW85679   8.316  10.117   0.139
61302SOL    HW185680   8.231  10.117   0.185
61302SOL    HW285681   8.364  10.190   0.177
61303SOL     OW85682   7.548  11.977   4.986
61303SOL    HW185683   7.500  11.928   4.919
61303SOL    HW285684   7.507  11.952   5.068
61304SOL     OW85685   9.601   3.352  11.937
61304SOL    HW185686   9.554   3.435  11.923
61304SOL    HW285687   9.669   3.374  12.001
61305SOL     OW85688  12.507   7.817   9.325
61305SOL    HW185689  12.430   7.870   9.304
61305SOL    HW285690  12.517   7.758   9.250
61306SOL     OW85691   6.171   6.092   5.167
61306SOL    HW185692   6.159   6.070   5.074
61306SOL    HW285693   6.123   6.023   5.214
61307SOL     OW85694  11.875  12.333   3.036
61307SOL    HW185695  11.896  12.295   2.951
61307SOL    HW285696  11.952  12.315   3.090
61308SOL     OW85697  12.735  13.616   0.718
61308SOL    HW185698  12.669  13.548   0.708
61308SOL    HW285699  12.693  13.696   0.685
61309SOL     OW85700   7.168  14.313  14.277
61309SOL    HW185701   7.213  14.397  14.282
61309SOL    HW285702   7.199  14.265  14.354
61310SOL     OW85703   8.600   1.835   9.402
61310SOL    HW185704   8.520   1.875   9.436
61310SOL    HW285705   8.569   1.765   9.345
61311SOL     OW85706  11.093   8.430  12.266
61311SOL    HW185707  11.160   8.464  12.325
61311SOL    HW285708  11.028   8.392  12.324
61312SOL     OW85709   5.915   5.102   7.263
61312SOL    HW185710   5.997   5.148   7.247
61312SOL    HW285711   5.875   5.149   7.337
61313SOL     OW85712   7.410  13.957  10.307
61313SOL    HW185713   7.504  13.978  10.311
61313SOL    HW285714   7.404  13.884  10.245
61314SOL     OW85715  13.857   2.155  13.266
61314SOL    HW185716  13.882   2.194  13.182
61314SOL    HW285717  13.896   2.213  13.332
61315SOL     OW85718   0.580   0.989  14.246
61315SOL    HW185719   0.673   0.979  14.265
61315SOL    HW285720   0.575   1.068  14.192
61316SOL     OW85721   2.356   0.656   7.937
61316SOL    HW185722   2.332   0.738   7.893
61316SOL    HW285723   2.433   0.625   7.889
61317SOL     OW85724   5.993   1.964   0.635
61317SOL    HW185725   6.087   1.952   0.630
61317SOL    HW285726   5.956   1.876   0.626
61318SOL     OW85727   3.516   1.664  11.600
61318SOL    HW185728   3.569   1.712  11.663
61318SOL    HW285729   3.471   1.732  11.550
61319SOL     OW85730  12.424   7.768  11.155
61319SOL    HW185731  12.477   7.842  11.125
61319SOL    HW285732  12.432   7.703  11.085
61320SOL     OW85733   6.578   7.880   1.675
61320SOL    HW185734   6.539   7.876   1.588
61320SOL    HW285735   6.504   7.897   1.734
61321SOL     OW85736   8.687  11.698  11.763
61321SOL    HW185737   8.709  11.790  11.774
61321SOL    HW285738   8.770  11.655  11.744
61322SOL     OW85739   2.991  12.460   4.244
61322SOL    HW185740   3.004  12.534   4.304
61322SOL    HW285741   2.989  12.384   4.302
61323SOL     OW85742   4.369   1.982   9.842
61323SOL    HW185743   4.335   2.071   9.856
61323SOL    HW285744   4.300   1.924   9.874
61324SOL     OW85745  14.294   8.716   4.259
61324SOL    HW185746  14.260   8.775   4.326
61324SOL    HW285747  14.267   8.756   4.176
61325SOL     OW85748  10.559   6.292   2.299
61325SOL    HW185749  10.559   6.306   2.204
61325SOL    HW285750  10.568   6.379   2.336
61326SOL     OW85751   2.866  11.143  10.369
61326SOL    HW185752   2.961  11.132  10.370
61326SOL    HW285753   2.852  11.237  10.363
61327SOL     OW85754   6.118   9.119  13.950
61327SOL    HW185755   6.061   9.087  13.879
61327SOL    HW285756   6.184   9.051  13.960
61328SOL     OW85757   3.057  13.653  14.152
61328SOL    HW185758   3.016  13.678  14.069
61328SOL    HW285759   3.058  13.557  14.149
61329SOL     OW85760   4.813  11.897   7.264
61329SOL    HW185761   4.872  11.825   7.289
61329SOL    HW285762   4.727  11.868   7.294
61330SOL     OW85763   5.134  12.159   3.489
61330SOL    HW185764   5.140  12.075   3.444
61330SOL    HW285765   5.086  12.139   3.569
61331SOL     OW85766   8.778   1.111   1.846
61331SOL    HW185767   8.710   1.086   1.783
61331SOL    HW285768   8.752   1.067   1.928
61332SOL     OW85769   4.548  10.164  10.952
61332SOL    HW185770   4.453  10.169  10.941
61332SOL    HW285771   4.578  10.254  10.936
61333SOL     OW85772   2.860   7.216   0.643
61333SOL    HW185773   2.937   7.273   0.641
61333SOL    HW285774   2.855   7.185   0.734
61334SOL     OW85775  10.713   5.515  12.867
61334SOL    HW185776  10.628   5.550  12.894
61334SOL    HW285777  10.752   5.481  12.948
61335SOL     OW85778   3.337   4.587   2.030
61335SOL    HW185779   3.372   4.618   2.114
61335SOL    HW285780   3.391   4.633   1.964
61336SOL     OW85781   9.916  13.013   0.220
61336SOL    HW185782   9.849  13.026   0.152
61336SOL    HW285783   9.988  12.971   0.173
61337SOL     OW85784   9.221   0.601   5.109
61337SOL    HW185785   9.208   0.530   5.172
61337SOL    HW285786   9.262   0.558   5.034
61338SOL     OW85787   0.384   7.989  14.391
61338SOL    HW185788   0.423   8.013  14.307
61338SOL    HW285789   0.291   7.975  14.372
61339SOL     OW85790   4.029   9.528   3.739
61339SOL    HW185791   4.087   9.461   3.776
61339SOL    HW285792   4.030   9.510   3.645
61340SOL     OW85793  10.250  11.829   7.313
61340SOL    HW185794  10.344  11.809   7.306
61340SOL    HW285795  10.217  11.819   7.224
61341SOL     OW85796   7.269   2.636   6.471
61341SOL    HW185797   7.313   2.640   6.556
61341SOL    HW285798   7.256   2.728   6.446
61342SOL     OW85799   0.092  13.131   4.068
61342SOL    HW185800   0.125  13.062   4.126
61342SOL    HW285801   0.060  13.084   3.991
61343SOL     OW85802   2.386  13.782   9.444
61343SOL    HW185803   2.397  13.845   9.515
61343SOL    HW285804   2.322  13.821   9.386
61344SOL     OW85805  12.864  13.446   8.080
61344SOL    HW185806  12.776  13.409   8.084
61344SOL    HW285807  12.855  13.526   8.028
61345SOL     OW85808   9.281  11.468   3.288
61345SOL    HW185809   9.246  11.411   3.356
61345SOL    HW285810   9.204  11.514   3.253
61346SOL     OW85811  14.729  11.745   6.440
61346SOL    HW185812  14.729  11.796   6.521
61346SOL    HW285813  14.653  11.688   6.447
61347SOL     OW85814   9.821   0.874  13.402
61347SOL    HW185815   9.837   0.804  13.465
61347SOL    HW285816   9.737   0.911  13.430
61348SOL     OW85817  11.319  12.610  14.653
61348SOL    HW185818  11.251  12.639  14.593
61348SOL    HW285819  11.274  12.553  14.715
61349SOL     OW85820   9.227   5.892  13.833
61349SOL    HW185821   9.162   5.934  13.889
61349SOL    HW285822   9.216   5.798  13.850
61350SOL     OW85823   2.411  10.388  12.925
61350SOL    HW185824   2.421  10.293  12.918
61350SOL    HW285825   2.396  10.417  12.836
61351SOL     OW85826   7.835   6.655   0.160
61351SOL    HW185827   7.749   6.682   0.126
61351SOL    HW285828   7.815   6.613   0.244
61352SOL     OW85829  11.626   6.915   1.003
61352SOL    HW185830  11.559   6.983   0.995
61352SOL    HW285831  11.706   6.955   0.967
61353SOL     OW85832   6.943   1.765   2.415
61353SOL    HW185833   7.008   1.832   2.397
61353SOL    HW285834   6.898   1.752   2.332
61354SOL     OW85835  11.210   4.695  14.139
61354SOL    HW185836  11.271   4.644  14.085
61354SOL    HW285837  11.180   4.634  14.206
61355SOL     OW85838   2.492  10.721   7.073
61355SOL    HW185839   2.430  10.648   7.064
61355SOL    HW285840   2.509  10.728   7.167
61356SOL     OW85841  13.112  13.231  11.909
61356SOL    HW185842  13.134  13.159  11.850
61356SOL    HW285843  13.189  13.288  11.907
61357SOL     OW85844   3.454   0.885  10.685
61357SOL    HW185845   3.509   0.957  10.716
61357SOL    HW285846   3.465   0.885  10.590
61358SOL     OW85847   6.061   1.164   0.633
61358SOL    HW185848   6.125   1.217   0.586
61358SOL    HW285849   5.977   1.207   0.617
61359SOL     OW85850  12.236  11.849   8.236
61359SOL    HW185851  12.185  11.910   8.288
61359SOL    HW285852  12.188  11.767   8.240
61360SOL     OW85853   8.470   4.840   9.547
61360SOL    HW185854   8.547   4.834   9.603
61360SOL    HW285855   8.415   4.907   9.588
61361SOL     OW85856  13.201   2.583   0.358
61361SOL    HW185857  13.243   2.503   0.391
61361SOL    HW285858  13.265   2.619   0.296
61362SOL     OW85859  13.159   2.006   7.876
61362SOL    HW185860  13.142   2.089   7.830
61362SOL    HW285861  13.194   1.948   7.808
61363SOL     OW85862   9.338  13.055   1.999
61363SOL    HW185863   9.362  12.976   2.046
61363SOL    HW285864   9.314  13.025   1.911
61364SOL     OW85865   2.297   8.602   1.174
61364SOL    HW185866   2.371   8.599   1.113
61364SOL    HW285867   2.326   8.662   1.243
61365SOL     OW85868   4.551   0.156   6.584
61365SOL    HW185869   4.586   0.170   6.672
61365SOL    HW285870   4.492   0.082   6.594
61366SOL     OW85871  13.450  10.661   9.550
61366SOL    HW185872  13.424  10.680   9.460
61366SOL    HW285873  13.464  10.567   9.552
61367SOL     OW85874   7.916   9.572  14.426
61367SOL    HW185875   7.849   9.539  14.366
61367SOL    HW285876   7.870   9.637  14.480
61368SOL     OW85877   9.836  13.659   9.498
61368SOL    HW185878   9.811  13.617   9.581
61368SOL    HW285879   9.848  13.752   9.522
61369SOL     OW85880   9.487   8.670   5.942
61369SOL    HW185881   9.405   8.708   5.912
61369SOL    HW285882   9.465   8.622   6.022
61370SOL     OW85883   6.999   7.546   9.616
61370SOL    HW185884   6.966   7.635   9.625
61370SOL    HW285885   6.950   7.510   9.542
61371SOL     OW85886   2.312  10.706   8.152
61371SOL    HW185887   2.352  10.622   8.175
61371SOL    HW285888   2.236  10.682   8.099
61372SOL     OW85889   2.276  12.567   2.805
61372SOL    HW185890   2.200  12.546   2.751
61372SOL    HW285891   2.308  12.651   2.771
61373SOL     OW85892  10.609  14.501  14.787
61373SOL    HW185893  10.617  14.585  14.742
61373SOL    HW285894  10.530  14.510  14.840
61374SOL     OW85895   2.283  11.000  12.075
61374SOL    HW185896   2.356  11.059  12.058
61374SOL    HW285897   2.316  10.914  12.048
61375SOL     OW85898  10.030   0.232   4.360
61375SOL    HW185899   9.954   0.279   4.325
61375SOL    HW285900  10.000   0.142   4.369
61376SOL     OW85901  14.415   2.985  10.477
61376SOL    HW185902  14.413   2.950  10.388
61376SOL    HW285903  14.471   3.063  10.471
61377SOL     OW85904   6.172   0.932  10.875
61377SOL    HW185905   6.216   1.010  10.910
61377SOL    HW285906   6.236   0.892  10.817
61378SOL     OW85907   5.691   2.043  10.222
61378SOL    HW185908   5.675   1.990  10.300
61378SOL    HW285909   5.629   2.116  10.230
61379SOL     OW85910  13.651   2.877  13.819
61379SOL    HW185911  13.595   2.947  13.851
61379SOL    HW285912  13.731   2.885  13.870
61380SOL     OW85913  11.144   2.792   9.324
61380SOL    HW185914  11.193   2.804   9.242
61380SOL    HW285915  11.175   2.708   9.358
61381SOL     OW85916  12.939   2.065  14.222
61381SOL    HW185917  12.844   2.066  14.206
61381SOL    HW285918  12.976   2.111  14.147
61382SOL     OW85919   9.223   4.667   1.555
61382SOL    HW185920   9.160   4.617   1.503
61382SOL    HW285921   9.290   4.603   1.579
61383SOL     OW85922   3.422  14.640  10.095
61383SOL    HW185923   3.359  14.568  10.088
61383SOL    HW285924   3.481  14.613  10.166
61384SOL     OW85925  11.698  11.606  14.237
61384SOL    HW185926  11.633  11.677  14.240
61384SOL    HW285927  11.780  11.648  14.261
61385SOL     OW85928   4.377   0.263  11.841
61385SOL    HW185929   4.297   0.303  11.873
61385SOL    HW285930   4.447   0.322  11.869
61386SOL     OW85931   4.750  14.680  12.403
61386SOL    HW185932   4.840  14.705  12.422
61386SOL    HW285933   4.737  14.704  12.312
61387SOL     OW85934   3.180  12.493   8.656
61387SOL    HW185935   3.147  12.583   8.646
61387SOL    HW285936   3.157  12.468   8.745
61388SOL     OW85937   6.130  12.286   0.679
61388SOL    HW185938   6.225  12.285   0.695
61388SOL    HW285939   6.101  12.197   0.697
61389SOL     OW85940   6.753   7.986   9.050
61389SOL    HW185941   6.695   7.981   9.126
61389SOL    HW285942   6.779   8.078   9.047
61390SOL     OW85943   0.622  11.407   9.808
61390SOL    HW185944   0.538  11.451   9.815
61390SOL    HW285945   0.687  11.477   9.815
61391SOL     OW85946  10.165   0.054  13.923
61391SOL    HW185947  10.227   0.108  13.972
61391SOL    HW285948  10.173  14.845  13.962
61392SOL     OW85949   4.417  11.128   2.979
61392SOL    HW185950   4.389  11.057   2.921
61392SOL    HW285951   4.416  11.206   2.923
61393SOL     OW85952   6.583  10.622   9.815
61393SOL    HW185953   6.542  10.539   9.840
61393SOL    HW285954   6.548  10.641   9.728
61394SOL     OW85955   1.404  14.130   1.944
61394SOL    HW185956   1.325  14.079   1.960
61394SOL    HW285957   1.399  14.154   1.851
61395SOL     OW85958   0.938   5.308   5.749
61395SOL    HW185959   0.931   5.371   5.821
61395SOL    HW285960   0.958   5.361   5.672
61396SOL     OW85961  11.651   8.247  10.078
61396SOL    HW185962  11.600   8.180  10.033
61396SOL    HW285963  11.594   8.324  10.080
61397SOL     OW85964   2.468  10.591   6.586
61397SOL    HW185965   2.492  10.512   6.634
61397SOL    HW285966   2.551  10.634   6.567
61398SOL     OW85967  11.734  11.270  14.874
61398SOL    HW185968  11.648  11.246   0.033
61398SOL    HW285969  11.720  11.358  14.839
61399SOL     OW85970   9.232  12.618   9.130
61399SOL    HW185971   9.309  12.633   9.185
61399SOL    HW285972   9.264  12.562   9.059
61400SOL     OW85973   5.368   9.452   1.846
61400SOL    HW185974   5.285   9.450   1.893
61400SOL    HW285975   5.358   9.525   1.784
61401SOL     OW85976  11.944   5.962   8.658
61401SOL    HW185977  11.882   5.895   8.630
61401SOL    HW285978  11.980   5.929   8.740
61402SOL     OW85979  14.668   7.862   1.881
61402SOL    HW185980  14.575   7.840   1.887
61402SOL    HW285981  14.679   7.936   1.940
61403SOL     OW85982   4.205   6.874   6.607
61403SOL    HW185983   4.206   6.894   6.514
61403SOL    HW285984   4.113   6.877   6.631
61404SOL     OW85985   4.870   3.594  12.499
61404SOL    HW185986   4.852   3.621  12.409
61404SOL    HW285987   4.788   3.554  12.529
61405SOL     OW85988  10.301   0.533  10.784
61405SOL    HW185989  10.308   0.542  10.689
61405SOL    HW285990  10.389   0.549  10.816
61406SOL     OW85991   7.108   1.597   8.331
61406SOL    HW185992   7.108   1.504   8.354
61406SOL    HW285993   7.038   1.606   8.266
61407SOL     OW85994  14.266   4.149   3.557
61407SOL    HW185995  14.284   4.242   3.543
61407SOL    HW285996  14.314   4.127   3.637
61408SOL     OW85997  12.445  11.487  14.335
61408SOL    HW185998  12.476  11.493  14.244
61408SOL    HW285999  12.385  11.413  14.335
61409SOL     OW86000   7.155   0.584   3.119
61409SOL    HW186001   7.144   0.488   3.115
61409SOL    HW286002   7.111   0.616   3.041
61410SOL     OW86003  14.598   0.121   3.321
61410SOL    HW186004  14.511   0.098   3.287
61410SOL    HW286005  14.584   0.201   3.371
61411SOL     OW86006  13.114   8.954  11.296
61411SOL    HW186007  13.202   8.992  11.289
61411SOL    HW286008  13.118   8.874  11.244
61412SOL     OW86009   8.454  14.334  13.000
61412SOL    HW186010   8.408  14.330  13.083
61412SOL    HW286011   8.449  14.244  12.965
61413SOL     OW86012  10.420  10.040   7.973
61413SOL    HW186013  10.372  10.059   7.892
61413SOL    HW286014  10.478  10.115   7.984
61414SOL     OW86015  12.621   0.613  11.749
61414SOL    HW186016  12.637   0.532  11.700
61414SOL    HW286017  12.526   0.627  11.740
61415SOL     OW86018  13.948   9.850   2.463
61415SOL    HW186019  13.991   9.831   2.547
61415SOL    HW286020  14.013   9.826   2.397
61416SOL     OW86021   5.551   3.953   2.823
61416SOL    HW186022   5.488   4.007   2.870
61416SOL    HW286023   5.572   4.003   2.744
61417SOL     OW86024   0.971  10.472   1.732
61417SOL    HW186025   1.030  10.541   1.761
61417SOL    HW286026   0.977  10.473   1.637
61418SOL     OW86027   1.094  14.256   8.824
61418SOL    HW186028   1.008  14.215   8.822
61418SOL    HW286029   1.079  14.341   8.866
61419SOL     OW86030  11.764  12.949  14.032
61419SOL    HW186031  11.787  13.041  14.019
61419SOL    HW286032  11.716  12.948  14.114
61420SOL     OW86033   7.823  14.346  14.668
61420SOL    HW186034   7.841  14.336  14.762
61420SOL    HW286035   7.828  14.256  14.633
61421SOL     OW86036  12.929   1.483   2.073
61421SOL    HW186037  12.998   1.421   2.047
61421SOL    HW286038  12.977   1.555   2.114
61422SOL     OW86039  11.601  13.670   6.647
61422SOL    HW186040  11.563  13.583   6.632
61422SOL    HW286041  11.564  13.697   6.731
61423SOL     OW86042   9.998   5.572  12.323
61423SOL    HW186043  10.017   5.579  12.230
61423SOL    HW286044   9.908   5.602  12.332
61424SOL     OW86045   7.467   6.004  10.001
61424SOL    HW186046   7.495   6.054  10.078
61424SOL    HW286047   7.440   6.071   9.938
61425SOL     OW86048   4.394   9.761  12.073
61425SOL    HW186049   4.320   9.820  12.085
61425SOL    HW286050   4.455   9.810  12.019
61426SOL     OW86051  10.514  13.443   1.180
61426SOL    HW186052  10.438  13.401   1.139
61426SOL    HW286053  10.583  13.438   1.114
61427SOL     OW86054  12.027   8.658   4.142
61427SOL    HW186055  12.007   8.641   4.049
61427SOL    HW286056  12.096   8.595   4.163
61428SOL     OW86057  11.862  12.384   7.177
61428SOL    HW186058  11.838  12.476   7.161
61428SOL    HW286059  11.893  12.383   7.268
61429SOL     OW86060   3.844  10.319   5.493
61429SOL    HW186061   3.815  10.246   5.438
61429SOL    HW286062   3.763  10.359   5.525
61430SOL     OW86063  14.308   6.827   3.301
61430SOL    HW186064  14.332   6.882   3.375
61430SOL    HW286065  14.369   6.852   3.231
61431SOL     OW86066  10.018  13.775   6.376
61431SOL    HW186067  10.060  13.758   6.291
61431SOL    HW286068  10.089  13.767   6.440
61432SOL     OW86069   9.262   6.815   0.158
61432SOL    HW186070   9.327   6.808   0.088
61432SOL    HW286071   9.178   6.802   0.115
61433SOL     OW86072  10.828   6.011   8.422
61433SOL    HW186073  10.918   5.994   8.395
61433SOL    HW286074  10.778   5.937   8.386
61434SOL     OW86075   9.195  11.670  10.171
61434SOL    HW186076   9.229  11.708  10.090
61434SOL    HW286077   9.102  11.656  10.154
61435SOL     OW86078   9.065  12.073  13.017
61435SOL    HW186079   9.149  12.080  13.062
61435SOL    HW286080   9.000  12.065  13.087
61436SOL     OW86081  13.923  10.754   9.344
61436SOL    HW186082  13.982  10.795   9.281
61436SOL    HW286083  13.942  10.797   9.427
61437SOL     OW86084   4.484   9.705   7.867
61437SOL    HW186085   4.488   9.654   7.786
61437SOL    HW286086   4.575   9.721   7.890
61438SOL     OW86087   8.613   5.342   3.969
61438SOL    HW186088   8.543   5.341   4.034
61438SOL    HW286089   8.691   5.368   4.018
61439SOL     OW86090  10.550   4.761  11.855
61439SOL    HW186091  10.475   4.821  11.855
61439SOL    HW286092  10.552   4.725  11.767
61440SOL     OW86093   9.242   7.634   6.494
61440SOL    HW186094   9.199   7.551   6.516
61440SOL    HW286095   9.270   7.670   6.578
61441SOL     OW86096  11.041   5.968  12.586
61441SOL    HW186097  11.046   5.886  12.538
61441SOL    HW286098  11.017   5.942  12.675
61442SOL     OW86099  13.664   3.701   4.567
61442SOL    HW186100  13.631   3.708   4.657
61442SOL    HW286101  13.610   3.633   4.527
61443SOL     OW86102  11.366  13.760  13.572
61443SOL    HW186103  11.335  13.851  13.575
61443SOL    HW286104  11.420  13.756  13.494
61444SOL     OW86105   8.051  11.057  10.008
61444SOL    HW186106   8.076  10.980   9.956
61444SOL    HW286107   8.133  11.086  10.048
61445SOL     OW86108  14.249   2.688   3.340
61445SOL    HW186109  14.205   2.772   3.327
61445SOL    HW286110  14.187   2.635   3.390
61446SOL     OW86111   1.197  13.746   1.705
61446SOL    HW186112   1.143  13.759   1.783
61446SOL    HW286113   1.269  13.808   1.715
61447SOL     OW86114   4.710   5.727   1.466
61447SOL    HW186115   4.650   5.740   1.539
61447SOL    HW286116   4.654   5.710   1.391
61448SOL     OW86117  13.203   2.186   9.706
61448SOL    HW186118  13.118   2.158   9.674
61448SOL    HW286119  13.262   2.114   9.684
61449SOL     OW86120   6.766  11.735   9.498
61449SOL    HW186121   6.716  11.791   9.558
61449SOL    HW286122   6.727  11.649   9.507
61450SOL     OW86123  11.657   1.693  12.858
61450SOL    HW186124  11.689   1.761  12.799
61450SOL    HW286125  11.616   1.628  12.801
61451SOL     OW86126   4.009   8.178   5.640
61451SOL    HW186127   3.982   8.145   5.725
61451SOL    HW286128   3.928   8.181   5.588
61452SOL     OW86129   3.832  10.984   8.282
61452SOL    HW186130   3.846  11.008   8.190
61452SOL    HW286131   3.880  11.050   8.332
61453SOL     OW86132   5.241   9.059  12.844
61453SOL    HW186133   5.330   9.038  12.870
61453SOL    HW286134   5.228   9.149  12.872
61454SOL     OW86135   1.569   3.716   8.047
61454SOL    HW186136   1.500   3.757   8.099
61454SOL    HW286137   1.524   3.652   7.993
61455SOL     OW86138  11.297   5.264   5.613
61455SOL    HW186139  11.218   5.216   5.639
61455SOL    HW286140  11.348   5.273   5.693
61456SOL     OW86141  14.816   9.789   5.214
61456SOL    HW186142   0.025   9.808   5.179
61456SOL    HW286143  14.791   9.869   5.260
61457SOL     OW86144   0.883  12.132   3.781
61457SOL    HW186145   0.847  12.221   3.782
61457SOL    HW286146   0.977  12.145   3.788
61458SOL     OW86147   6.524   6.193  12.613
61458SOL    HW186148   6.459   6.257  12.581
61458SOL    HW286149   6.476   6.110  12.615
61459SOL     OW86150  14.775   5.901   2.034
61459SOL    HW186151  14.786   5.995   2.044
61459SOL    HW286152  14.784   5.866   2.123
61460SOL     OW86153  14.184   8.327  11.487
61460SOL    HW186154  14.107   8.377  11.460
61460SOL    HW286155  14.151   8.239  11.504
61461SOL     OW86156  12.496   6.746   5.596
61461SOL    HW186157  12.443   6.804   5.651
61461SOL    HW286158  12.534   6.682   5.657
61462SOL     OW86159  13.827   1.316   1.923
61462SOL    HW186160  13.826   1.387   1.987
61462SOL    HW286161  13.792   1.240   1.971
61463SOL     OW86162  13.501   8.640   7.858
61463SOL    HW186163  13.549   8.564   7.826
61463SOL    HW286164  13.421   8.643   7.806
61464SOL     OW86165   3.139  13.390  10.730
61464SOL    HW186166   3.083  13.342  10.669
61464SOL    HW286167   3.191  13.449  10.674
61465SOL     OW86168   1.804   5.422   1.513
61465SOL    HW186169   1.737   5.443   1.448
61465SOL    HW286170   1.886   5.451   1.473
61466SOL     OW86171  11.117  14.153   3.260
61466SOL    HW186172  11.139  14.142   3.167
61466SOL    HW286173  11.162  14.080   3.303
61467SOL     OW86174   2.034  14.807  12.321
61467SOL    HW186175   1.984  14.874  12.367
61467SOL    HW286176   2.118  14.849  12.302
61468SOL     OW86177  11.951   5.063   3.072
61468SOL    HW186178  12.017   5.046   3.139
61468SOL    HW286179  11.956   4.988   3.013
61469SOL     OW86180   5.078   1.135  14.132
61469SOL    HW186181   5.156   1.081  14.120
61469SOL    HW286182   5.070   1.185  14.051
61470SOL     OW86183   5.864   7.664   9.916
61470SOL    HW186184   5.775   7.647   9.887
61470SOL    HW286185   5.858   7.671  10.011
61471SOL     OW86186   1.548   1.860   8.711
61471SOL    HW186187   1.554   1.930   8.775
61471SOL    HW286188   1.472   1.883   8.657
61472SOL     OW86189   3.511   1.337   2.155
61472SOL    HW186190   3.583   1.314   2.097
61472SOL    HW286191   3.446   1.267   2.144
61473SOL     OW86192   1.511   2.342  12.859
61473SOL    HW186193   1.560   2.423  12.846
61473SOL    HW286194   1.438   2.348  12.798
61474SOL     OW86195   6.775  10.065   8.132
61474SOL    HW186196   6.691  10.019   8.140
61474SOL    HW286197   6.802  10.080   8.222
61475SOL     OW86198  11.525  11.641   6.098
61475SOL    HW186199  11.570  11.647   6.014
61475SOL    HW286200  11.596  11.650   6.163
61476SOL     OW86201   3.854   3.452   5.651
61476SOL    HW186202   3.810   3.514   5.592
61476SOL    HW286203   3.940   3.491   5.667
61477SOL     OW86204   6.689   3.838   1.291
61477SOL    HW186205   6.695   3.751   1.252
61477SOL    HW286206   6.608   3.875   1.255
61478SOL     OW86207   9.419   0.260  10.949
61478SOL    HW186208   9.391   0.348  10.975
61478SOL    HW286209   9.380   0.246  10.863
61479SOL     OW86210  10.367  10.655  14.515
61479SOL    HW186211  10.351  10.744  14.484
61479SOL    HW286212  10.299  10.603  14.472
61480SOL     OW86213  11.704   6.258   8.329
61480SOL    HW186214  11.767   6.192   8.359
61480SOL    HW286215  11.670   6.298   8.409
61481SOL     OW86216   7.638   9.061  13.756
61481SOL    HW186217   7.556   9.110  13.757
61481SOL    HW286218   7.621   8.988  13.696
61482SOL     OW86219  14.428  10.508   5.715
61482SOL    HW186220  14.498  10.511   5.650
61482SOL    HW286221  14.436  10.422   5.754
61483SOL     OW86222   8.645   8.877   4.925
61483SOL    HW186223   8.602   8.893   4.842
61483SOL    HW286224   8.725   8.830   4.902
61484SOL     OW86225   0.770  11.422   8.023
61484SOL    HW186226   0.736  11.443   8.111
61484SOL    HW286227   0.857  11.463   8.022
61485SOL     OW86228  12.494  12.234   9.694
61485SOL    HW186229  12.582  12.264   9.673
61485SOL    HW286230  12.484  12.253   9.788
61486SOL     OW86231  10.992   9.174  12.546
61486SOL    HW186232  10.902   9.200  12.565
61486SOL    HW286233  10.985   9.118  12.469
61487SOL     OW86234   1.576   8.199  12.469
61487SOL    HW186235   1.615   8.223  12.554
61487SOL    HW286236   1.624   8.252  12.405
61488SOL     OW86237   1.843  10.446  10.232
61488SOL    HW186238   1.924  10.395  10.228
61488SOL    HW286239   1.801  10.431  10.147
61489SOL     OW86240   6.122   7.274   0.792
61489SOL    HW186241   6.037   7.244   0.760
61489SOL    HW286242   6.182   7.256   0.720
61490SOL     OW86243   8.044  12.063  12.083
61490SOL    HW186244   7.968  12.054  12.025
61490SOL    HW286245   8.059  12.158  12.089
61491SOL     OW86246   2.020  11.746  13.986
61491SOL    HW186247   2.084  11.770  13.919
61491SOL    HW286248   2.037  11.653  14.002
61492SOL     OW86249   1.761   3.808   3.485
61492SOL    HW186250   1.835   3.863   3.509
61492SOL    HW286251   1.793   3.754   3.413
61493SOL     OW86252   5.191   4.676  11.283
61493SOL    HW186253   5.105   4.680  11.243
61493SOL    HW286254   5.175   4.688  11.376
61494SOL     OW86255  14.861   9.836   0.409
61494SOL    HW186256  14.801   9.891   0.359
61494SOL    HW286257   0.041   9.897   0.454
61495SOL     OW86258   4.010   7.509   8.205
61495SOL    HW186259   4.001   7.554   8.289
61495SOL    HW286260   4.082   7.447   8.219
61496SOL     OW86261  13.580  11.063   2.820
61496SOL    HW186262  13.604  10.974   2.794
61496SOL    HW286263  13.607  11.070   2.912
61497SOL     OW86264   9.092  12.176   6.615
61497SOL    HW186265   9.051  12.133   6.540
61497SOL    HW286266   9.159  12.114   6.644
61498SOL     OW86267   6.205  10.915   0.196
61498SOL    HW186268   6.155  10.855   0.141
61498SOL    HW286269   6.297  10.897   0.173
61499SOL     OW86270   1.979  12.301   7.546
61499SOL    HW186271   1.939  12.387   7.554
61499SOL    HW286272   1.973  12.280   7.453
61500SOL     OW86273   2.375   1.227  14.110
61500SOL    HW186274   2.311   1.213  14.040
61500SOL    HW286275   2.460   1.217  14.067
61501SOL     OW86276   2.178   4.714   1.190
61501SOL    HW186277   2.174   4.625   1.226
61501SOL    HW286278   2.271   4.735   1.191
61502SOL     OW86279  14.244   3.694   8.890
61502SOL    HW186280  14.323   3.692   8.943
61502SOL    HW286281  14.213   3.784   8.897
61503SOL     OW86282   4.947   6.725  12.784
61503SOL    HW186283   4.934   6.812  12.745
61503SOL    HW286284   5.037   6.727  12.817
61504SOL     OW86285   3.549   8.762   8.681
61504SOL    HW186286   3.593   8.790   8.761
61504SOL    HW286287   3.482   8.700   8.711
61505SOL     OW86288   7.079   9.855   8.998
61505SOL    HW186289   7.015   9.864   9.070
61505SOL    HW286290   7.148   9.799   9.035
61506SOL     OW86291   8.119   8.766   0.866
61506SOL    HW186292   8.077   8.733   0.946
61506SOL    HW286293   8.058   8.832   0.833
61507SOL     OW86294   1.239   8.342   8.479
61507SOL    HW186295   1.157   8.301   8.449
61507SOL    HW286296   1.302   8.322   8.410
61508SOL     OW86297   7.339  10.364   9.211
61508SOL    HW186298   7.398  10.409   9.271
61508SOL    HW286299   7.330  10.276   9.248
61509SOL     OW86300  10.941  13.702  12.510
61509SOL    HW186301  11.035  13.697  12.526
61509SOL    HW286302  10.926  13.642  12.437
61510SOL     OW86303   5.820   7.638   6.336
61510SOL    HW186304   5.816   7.615   6.429
61510SOL    HW286305   5.754   7.707   6.326
61511SOL     OW86306  11.555  12.862   4.991
61511SOL    HW186307  11.634  12.896   5.034
61511SOL    HW286308  11.574  12.868   4.898
61512SOL     OW86309   5.054   0.638   2.630
61512SOL    HW186310   4.974   0.645   2.681
61512SOL    HW286311   5.029   0.662   2.541
61513SOL     OW86312  13.859   5.495   6.862
61513SOL    HW186313  13.941   5.458   6.829
61513SOL    HW286314  13.875   5.589   6.867
61514SOL     OW86315   5.994  14.746  13.351
61514SOL    HW186316   5.991  14.697  13.269
61514SOL    HW286317   6.087  14.762  13.366
61515SOL     OW86318   5.208  12.482   2.374
61515SOL    HW186319   5.189  12.575   2.363
61515SOL    HW286320   5.258  12.478   2.456
61516SOL     OW86321   1.814   7.160  11.658
61516SOL    HW186322   1.841   7.170  11.567
61516SOL    HW286323   1.877   7.100  11.696
61517SOL     OW86324   0.391  13.005   1.568
61517SOL    HW186325   0.471  13.050   1.595
61517SOL    HW286326   0.419  12.949   1.496
61518SOL     OW86327   1.629   2.378   9.121
61518SOL    HW186328   1.580   2.349   9.198
61518SOL    HW286329   1.562   2.397   9.055
61519SOL     OW86330   6.855  10.935   3.786
61519SOL    HW186331   6.901  11.009   3.747
61519SOL    HW286332   6.800  10.974   3.854
61520SOL     OW86333   9.202   6.418  13.256
61520SOL    HW186334   9.277   6.422  13.316
61520SOL    HW286335   9.199   6.505  13.215
61521SOL     OW86336   7.486  14.124  13.231
61521SOL    HW186337   7.406  14.164  13.266
61521SOL    HW286338   7.553  14.147  13.295
61522SOL     OW86339   2.796   4.352   5.896
61522SOL    HW186340   2.730   4.382   5.833
61522SOL    HW286341   2.760   4.272   5.933
61523SOL     OW86342   3.767   2.275   3.991
61523SOL    HW186343   3.675   2.253   4.005
61523SOL    HW286344   3.806   2.273   4.079
61524SOL     OW86345   9.251   3.530   4.454
61524SOL    HW186346   9.338   3.523   4.417
61524SOL    HW286347   9.194   3.552   4.380
61525SOL     OW86348  12.748   3.855   5.698
61525SOL    HW186349  12.743   3.945   5.665
61525SOL    HW286350  12.816   3.859   5.766
61526SOL     OW86351   0.060   1.953   6.643
61526SOL    HW186352  14.847   1.929   6.625
61526SOL    HW286353   0.104   1.948   6.559
61527SOL     OW86354  13.157  13.846   2.454
61527SOL    HW186355  13.246  13.811   2.449
61527SOL    HW286356  13.126  13.819   2.541
61528SOL     OW86357   5.193   1.665  12.148
61528SOL    HW186358   5.130   1.597  12.168
61528SOL    HW286359   5.159   1.743  12.192
61529SOL     OW86360  14.012  12.241  11.041
61529SOL    HW186361  14.062  12.173  11.086
61529SOL    HW286362  13.945  12.267  11.104
61530SOL     OW86363  12.497   2.861   1.618
61530SOL    HW186364  12.462   2.772   1.620
61530SOL    HW286365  12.421   2.918   1.631
61531SOL     OW86366  12.639  14.044   1.863
61531SOL    HW186367  12.651  13.963   1.814
61531SOL    HW286368  12.728  14.078   1.875
61532SOL     OW86369   4.552   3.087   9.784
61532SOL    HW186370   4.521   3.115   9.870
61532SOL    HW286371   4.487   3.121   9.722
61533SOL     OW86372   0.468   8.162  11.482
61533SOL    HW186373   0.373   8.162  11.495
61533SOL    HW286374   0.499   8.090  11.536
61534SOL     OW86375   0.003   6.757  14.716
61534SOL    HW186376  14.798   6.708  14.713
61534SOL    HW286377   0.060   6.711  14.655
61535SOL     OW86378  14.679  12.708   3.652
61535SOL    HW186379  14.636  12.741   3.731
61535SOL    HW286380  14.675  12.780   3.590
61536SOL     OW86381  13.278   4.838   1.938
61536SOL    HW186382  13.191   4.829   1.976
61536SOL    HW286383  13.279   4.776   1.865
61537SOL     OW86384  12.130   4.851   5.317
61537SOL    HW186385  12.080   4.929   5.341
61537SOL    HW286386  12.187   4.834   5.392
61538SOL     OW86387  11.624   9.412   8.444
61538SOL    HW186388  11.661   9.337   8.491
61538SOL    HW286389  11.532   9.412   8.469
61539SOL     OW86390  13.257   6.103   1.914
61539SOL    HW186391  13.169   6.074   1.936
61539SOL    HW286392  13.312   6.026   1.929
61540SOL     OW86393   4.811   0.513  14.449
61540SOL    HW186394   4.796   0.422  14.423
61540SOL    HW286395   4.902   0.515  14.477
61541SOL     OW86396   0.344  13.618   3.516
61541SOL    HW186397   0.352  13.557   3.443
61541SOL    HW286398   0.421  13.601   3.570
61542SOL     OW86399   8.299  14.737   3.681
61542SOL    HW186400   8.319  14.830   3.668
61542SOL    HW286401   8.381  14.699   3.712
61543SOL     OW86402   9.390   0.208   7.651
61543SOL    HW186403   9.353   0.185   7.565
61543SOL    HW286404   9.438   0.130   7.678
61544SOL     OW86405   4.729  12.148  12.602
61544SOL    HW186406   4.765  12.175  12.518
61544SOL    HW286407   4.793  12.086  12.637
61545SOL     OW86408   7.813  10.843   7.506
61545SOL    HW186409   7.828  10.837   7.412
61545SOL    HW286410   7.900  10.837   7.545
61546SOL     OW86411   1.993   7.979   5.414
61546SOL    HW186412   1.961   7.901   5.368
61546SOL    HW286413   1.914   8.018   5.453
61547SOL     OW86414   5.784   4.006  10.456
61547SOL    HW186415   5.739   4.085  10.424
61547SOL    HW286416   5.794   4.021  10.549
61548SOL     OW86417   4.484   5.130  11.981
61548SOL    HW186418   4.509   5.073  12.054
61548SOL    HW286419   4.409   5.179  12.014
61549SOL     OW86420  11.782   9.935  13.423
61549SOL    HW186421  11.769   9.912  13.515
61549SOL    HW286422  11.853  10.000  13.424
61550SOL     OW86423  11.830   3.883   9.984
61550SOL    HW186424  11.896   3.846   9.926
61550SOL    HW286425  11.845   3.977   9.982
61551SOL     OW86426   6.459   5.464   4.715
61551SOL    HW186427   6.511   5.518   4.775
61551SOL    HW286428   6.518   5.393   4.690
61552SOL     OW86429  11.253   0.417   3.845
61552SOL    HW186430  11.347   0.431   3.852
61552SOL    HW286431  11.238   0.337   3.895
61553SOL     OW86432   6.386   0.166   4.047
61553SOL    HW186433   6.398   0.180   4.141
61553SOL    HW286434   6.342   0.245   4.016
61554SOL     OW86435   8.472   6.329  11.704
61554SOL    HW186436   8.523   6.294  11.632
61554SOL    HW286437   8.433   6.410  11.669
61555SOL     OW86438   5.580   1.909  10.859
61555SOL    HW186439   5.522   1.899  10.934
61555SOL    HW286440   5.560   1.996  10.824
61556SOL     OW86441  10.675   2.413  14.336
61556SOL    HW186442  10.648   2.501  14.310
61556SOL    HW286443  10.641   2.404  14.426
61557SOL     OW86444  12.808   9.411  11.903
61557SOL    HW186445  12.800   9.504  11.926
61557SOL    HW286446  12.893   9.385  11.937
61558SOL     OW86447   8.151   6.602  12.657
61558SOL    HW186448   8.205   6.641  12.589
61558SOL    HW286449   8.160   6.508  12.643
61559SOL     OW86450   0.202   2.695   7.323
61559SOL    HW186451   0.263   2.680   7.396
61559SOL    HW286452   0.242   2.652   7.248
61560SOL     OW86453   1.354  13.149  13.105
61560SOL    HW186454   1.409  13.086  13.059
61560SOL    HW286455   1.339  13.110  13.191
61561SOL     OW86456   1.976   1.091   7.539
61561SOL    HW186457   2.056   1.129   7.503
61561SOL    HW286458   1.952   1.022   7.478
61562SOL     OW86459   8.453  13.300  11.930
61562SOL    HW186460   8.486  13.345  12.009
61562SOL    HW286461   8.503  13.219  11.927
61563SOL     OW86462  11.074   6.981   4.824
61563SOL    HW186463  11.040   6.892   4.822
61563SOL    HW286464  11.010   7.031   4.876
61564SOL     OW86465  12.166  14.841   7.204
61564SOL    HW186466  12.229   0.023   7.163
61564SOL    HW286467  12.189  14.841   7.297
61565SOL     OW86468   1.865  11.421   0.035
61565SOL    HW186469   1.810  11.481  14.861
61565SOL    HW286470   1.880  11.347  14.854
61566SOL     OW86471  13.904   0.515  10.258
61566SOL    HW186472  13.896   0.558  10.172
61566SOL    HW286473  13.830   0.548  10.308
61567SOL     OW86474   3.934   2.056  14.563
61567SOL    HW186475   4.002   1.999  14.527
61567SOL    HW286476   3.903   2.106  14.488
61568SOL     OW86477   4.725  14.315   8.457
61568SOL    HW186478   4.702  14.227   8.485
61568SOL    HW286479   4.659  14.337   8.391
61569SOL     OW86480   3.534   3.121   4.563
61569SOL    HW186481   3.521   3.187   4.631
61569SOL    HW286482   3.458   3.064   4.571
61570SOL     OW86483   5.230  13.261  13.088
61570SOL    HW186484   5.321  13.263  13.059
61570SOL    HW286485   5.181  13.229  13.013
61571SOL     OW86486   4.512   3.277   3.988
61571SOL    HW186487   4.480   3.295   4.077
61571SOL    HW286488   4.603   3.306   3.990
61572SOL     OW86489   6.199   9.608   8.690
61572SOL    HW186490   6.188   9.516   8.664
61572SOL    HW286491   6.259   9.605   8.764
61573SOL     OW86492   1.249   1.724   1.077
61573SOL    HW186493   1.227   1.684   0.993
61573SOL    HW286494   1.193   1.801   1.082
61574SOL     OW86495   7.916  11.252   1.047
61574SOL    HW186496   7.829  11.242   1.007
61574SOL    HW286497   7.977  11.241   0.975
61575SOL     OW86498   4.978   0.290   2.910
61575SOL    HW186499   5.009   0.262   2.995
61575SOL    HW286500   5.057   0.314   2.862
61576SOL     OW86501   0.585   9.752   4.843
61576SOL    HW186502   0.501   9.707   4.831
61576SOL    HW286503   0.571   9.808   4.919
61577SOL     OW86504   5.732   1.550   2.699
61577SOL    HW186505   5.825   1.572   2.705
61577SOL    HW286506   5.698   1.565   2.787
61578SOL     OW86507   5.123   1.798   9.447
61578SOL    HW186508   5.156   1.712   9.474
61578SOL    HW286509   5.040   1.807   9.493
61579SOL     OW86510  13.823   6.634  10.493
61579SOL    HW186511  13.854   6.548  10.464
61579SOL    HW286512  13.737   6.643  10.452
61580SOL     OW86513   5.621   9.174  13.130
61580SOL    HW186514   5.631   9.248  13.191
61580SOL    HW286515   5.710   9.157  13.099
61581SOL     OW86516   9.344   5.945   9.722
61581SOL    HW186517   9.274   5.966   9.784
61581SOL    HW286518   9.311   5.976   9.638
61582SOL     OW86519   3.857   2.540  14.644
61582SOL    HW186520   3.884   2.632  14.641
61582SOL    HW286521   3.772   2.539  14.599
61583SOL     OW86522   1.083   3.970   8.855
61583SOL    HW186523   1.041   4.028   8.919
61583SOL    HW286524   1.036   3.987   8.773
61584SOL     OW86525   8.155  13.156  12.178
61584SOL    HW186526   8.149  13.088  12.111
61584SOL    HW286527   8.150  13.109  12.261
61585SOL     OW86528  14.500   2.909   9.745
61585SOL    HW186529  14.538   2.822   9.733
61585SOL    HW286530  14.570   2.961   9.785
61586SOL     OW86531  14.345   1.359   6.637
61586SOL    HW186532  14.291   1.288   6.602
61586SOL    HW286533  14.364   1.415   6.561
61587SOL     OW86534  13.785   4.761  10.119
61587SOL    HW186535  13.717   4.777  10.185
61587SOL    HW286536  13.827   4.846  10.108
61588SOL     OW86537  14.090  10.618   9.585
61588SOL    HW186538  14.002  10.639   9.552
61588SOL    HW286539  14.130  10.704   9.602
61589SOL     OW86540   7.303   9.068   2.463
61589SOL    HW186541   7.250   9.094   2.387
61589SOL    HW286542   7.384   9.119   2.455
61590SOL     OW86543  13.339   7.310   1.866
61590SOL    HW186544  13.296   7.238   1.818
61590SOL    HW286545  13.312   7.298   1.957
61591SOL     OW86546  14.683  11.266   4.531
61591SOL    HW186547  14.771  11.277   4.566
61591SOL    HW286548  14.652  11.184   4.571
61592SOL     OW86549   3.151   2.010   2.017
61592SOL    HW186550   3.105   2.091   2.037
61592SOL    HW286551   3.098   1.942   2.061
61593SOL     OW86552   5.210   7.952   5.031
61593SOL    HW186553   5.269   8.015   4.989
61593SOL    HW286554   5.244   7.943   5.120
61594SOL     OW86555   3.502   7.467   4.975
61594SOL    HW186556   3.580   7.430   5.017
61594SOL    HW286557   3.430   7.438   5.030
61595SOL     OW86558  12.857  14.076  12.244
61595SOL    HW186559  12.896  14.007  12.191
61595SOL    HW286560  12.777  14.100  12.196
61596SOL     OW86561   4.551   7.495   8.649
61596SOL    HW186562   4.566   7.447   8.568
61596SOL    HW286563   4.624   7.557   8.654
61597SOL     OW86564   8.218   8.206  10.136
61597SOL    HW186565   8.295   8.153  10.115
61597SOL    HW286566   8.202   8.190  10.229
61598SOL     OW86567   9.269   8.567   3.126
61598SOL    HW186568   9.198   8.514   3.162
61598SOL    HW286569   9.317   8.508   3.068
61599SOL     OW86570   6.100   7.002  13.797
61599SOL    HW186571   6.025   7.055  13.823
61599SOL    HW286572   6.167   7.066  13.772
61600SOL     OW86573   3.981  10.442  14.089
61600SOL    HW186574   3.918  10.448  14.162
61600SOL    HW286575   3.947  10.504  14.024
61601SOL     OW86576   5.524   2.906   1.945
61601SOL    HW186577   5.590   2.974   1.935
61601SOL    HW286578   5.569   2.825   1.923
61602SOL     OW86579  12.595   4.433   9.053
61602SOL    HW186580  12.521   4.459   9.107
61602SOL    HW286581  12.606   4.504   8.990
61603SOL     OW86582   8.669   9.165   5.324
61603SOL    HW186583   8.723   9.104   5.375
61603SOL    HW286584   8.645   9.116   5.246
61604SOL     OW86585   8.493   1.433  13.809
61604SOL    HW186586   8.439   1.354  13.805
61604SOL    HW286587   8.572   1.405  13.856
61605SOL     OW86588   7.178  13.759  11.079
61605SOL    HW186589   7.112  13.724  11.139
61605SOL    HW286590   7.262  13.731  11.116
61606SOL     OW86591   8.676   8.483   2.570
61606SOL    HW186592   8.745   8.487   2.636
61606SOL    HW286593   8.611   8.546   2.599
61607SOL     OW86594  14.846   4.968   8.036
61607SOL    HW186595   0.018   4.936   8.112
61607SOL    HW286596  14.755   4.966   8.065
61608SOL     OW86597   3.757   9.528  13.846
61608SOL    HW186598   3.778   9.580  13.768
61608SOL    HW286599   3.803   9.572  13.917
61609SOL     OW86600   4.554   3.087   5.274
61609SOL    HW186601   4.540   3.005   5.226
61609SOL    HW286602   4.601   3.060   5.353
61610SOL     OW86603   8.871   1.112   6.858
61610SOL    HW186604   8.793   1.058   6.870
61610SOL    HW286605   8.850   1.194   6.902
61611SOL     OW86606   9.715   1.082   3.030
61611SOL    HW186607   9.696   1.027   3.106
61611SOL    HW286608   9.652   1.054   2.964
61612SOL     OW86609  14.290  10.339   1.386
61612SOL    HW186610  14.352  10.273   1.357
61612SOL    HW286611  14.326  10.422   1.353
61613SOL     OW86612   3.316   5.568  14.781
61613SOL    HW186613   3.230   5.595  14.813
61613SOL    HW286614   3.360   5.650  14.758
61614SOL     OW86615  14.401   2.557   9.090
61614SOL    HW186616  14.482   2.507   9.094
61614SOL    HW286617  14.416   2.631   9.149
61615SOL     OW86618   6.817  14.416   9.032
61615SOL    HW186619   6.891  14.466   8.995
61615SOL    HW286620   6.839  14.325   9.014
61616SOL     OW86621  14.720   0.457   5.860
61616SOL    HW186622  14.789   0.390   5.857
61616SOL    HW286623  14.646   0.416   5.816
61617SOL     OW86624  10.727   5.658   3.045
61617SOL    HW186625  10.802   5.619   3.001
61617SOL    HW286626  10.686   5.586   3.093
61618SOL     OW86627   2.122   3.147  13.159
61618SOL    HW186628   2.111   3.148  13.254
61618SOL    HW286629   2.034   3.158  13.124
61619SOL     OW86630   8.209   7.759  10.888
61619SOL    HW186631   8.248   7.846  10.882
61619SOL    HW286632   8.161   7.761  10.971
61620SOL     OW86633  13.990   5.416   9.957
61620SOL    HW186634  14.040   5.468   9.895
61620SOL    HW286635  13.937   5.481  10.004
61621SOL     OW86636   8.037  10.018  12.873
61621SOL    HW186637   8.111  10.016  12.812
61621SOL    HW286638   8.075  10.000  12.959
61622SOL     OW86639   6.039   2.953   5.574
61622SOL    HW186640   5.977   2.968   5.645
61622SOL    HW286641   6.024   2.862   5.548
61623SOL     OW86642   5.665  10.102   9.850
61623SOL    HW186643   5.579  10.141   9.838
61623SOL    HW286644   5.647  10.018   9.893
61624SOL     OW86645  13.958  12.759   2.021
61624SOL    HW186646  13.954  12.664   2.014
61624SOL    HW286647  13.872  12.788   1.989
61625SOL     OW86648   8.484   8.720   9.032
61625SOL    HW186649   8.461   8.724   8.940
61625SOL    HW286650   8.497   8.812   9.057
61626SOL     OW86651   2.883   8.185  12.753
61626SOL    HW186652   2.846   8.146  12.674
61626SOL    HW286653   2.868   8.120  12.822
61627SOL     OW86654  14.048   3.895  13.963
61627SOL    HW186655  14.004   3.911  13.879
61627SOL    HW286656  14.131   3.941  13.955
61628SOL     OW86657   6.388   7.037   7.533
61628SOL    HW186658   6.319   7.030   7.468
61628SOL    HW286659   6.411   6.946   7.553
61629SOL     OW86660  11.457   8.875  13.932
61629SOL    HW186661  11.395   8.803  13.945
61629SOL    HW286662  11.498   8.888  14.017
61630SOL     OW86663   4.324  11.657   6.567
61630SOL    HW186664   4.345  11.565   6.587
61630SOL    HW286665   4.266  11.651   6.491
61631SOL     OW86666   7.286  10.747  11.516
61631SOL    HW186667   7.285  10.698  11.434
61631SOL    HW286668   7.320  10.685  11.581
61632SOL     OW86669  10.180   4.145   3.198
61632SOL    HW186670  10.091   4.176   3.209
61632SOL    HW286671  10.234   4.224   3.197
61633SOL     OW86672   7.484  11.425  11.306
61633SOL    HW186673   7.456  11.358  11.368
61633SOL    HW286674   7.559  11.385  11.260
61634SOL     OW86675  12.199  14.492   2.218
61634SOL    HW186676  12.274  14.434   2.237
61634SOL    HW286677  12.124  14.447   2.256
61635SOL     OW86678  12.566  12.064   2.414
61635SOL    HW186679  12.473  12.047   2.427
61635SOL    HW286680  12.605  11.977   2.400
61636SOL     OW86681  12.326   1.879  11.507
61636SOL    HW186682  12.362   1.794  11.482
61636SOL    HW286683  12.402   1.938  11.508
61637SOL     OW86684  10.163   9.871   4.672
61637SOL    HW186685  10.172   9.860   4.767
61637SOL    HW286686  10.070   9.887   4.659
61638SOL     OW86687  14.619  14.477  13.408
61638SOL    HW186688  14.543  14.527  13.376
61638SOL    HW286689  14.668  14.455  13.328
61639SOL     OW86690   7.877  12.671   6.376
61639SOL    HW186691   7.959  12.700   6.417
61639SOL    HW286692   7.892  12.683   6.282
61640SOL     OW86693   9.188  10.999   8.721
61640SOL    HW186694   9.226  10.998   8.809
61640SOL    HW286695   9.097  11.027   8.734
61641SOL     OW86696   4.519  11.485   1.956
61641SOL    HW186697   4.473  11.460   1.876
61641SOL    HW286698   4.611  11.487   1.931
61642SOL     OW86699   1.601   0.939  13.721
61642SOL    HW186700   1.648   0.881  13.661
61642SOL    HW286701   1.518   0.956  13.676
61643SOL     OW86702  10.414  10.204   6.638
61643SOL    HW186703  10.340  10.247   6.682
61643SOL    HW286704  10.383  10.189   6.548
61644SOL     OW86705   0.824  11.868  12.026
61644SOL    HW186706   0.863  11.849  11.941
61644SOL    HW286707   0.839  11.789  12.078
61645SOL     OW86708   1.616   5.243  13.096
61645SOL    HW186709   1.567   5.183  13.153
61645SOL    HW286710   1.590   5.330  13.126
61646SOL     OW86711   4.497   3.554   5.012
61646SOL    HW186712   4.476   3.462   4.995
61646SOL    HW286713   4.456   3.601   4.939
61647SOL     OW86714  10.637   2.816  12.311
61647SOL    HW186715  10.589   2.775  12.239
61647SOL    HW286716  10.726   2.828  12.277
61648SOL     OW86717  10.058   4.587  13.993
61648SOL    HW186718  10.122   4.593  13.922
61648SOL    HW286719  10.073   4.665  14.046
61649SOL     OW86720   6.484   9.652  13.205
61649SOL    HW186721   6.529   9.716  13.260
61649SOL    HW286722   6.428   9.705  13.148
61650SOL     OW86723   4.732   5.672   0.577
61650SOL    HW186724   4.638   5.689   0.566
61650SOL    HW286725   4.757   5.624   0.498
61651SOL     OW86726  13.125   2.200   0.276
61651SOL    HW186727  13.127   2.247   0.193
61651SOL    HW286728  13.078   2.119   0.256
61652SOL     OW86729   6.805   1.847   4.818
61652SOL    HW186730   6.866   1.854   4.892
61652SOL    HW286731   6.723   1.884   4.851
61653SOL     OW86732  14.667   7.349   3.862
61653SOL    HW186733  14.623   7.285   3.918
61653SOL    HW286734  14.719   7.402   3.922
61654SOL     OW86735   1.251  12.315   7.553
61654SOL    HW186736   1.228  12.226   7.527
61654SOL    HW286737   1.293  12.305   7.638
61655SOL     OW86738   2.441  10.600   7.561
61655SOL    HW186739   2.421  10.660   7.632
61655SOL    HW286740   2.462  10.517   7.604
61656SOL     OW86741  14.139  13.828   5.024
61656SOL    HW186742  14.170  13.846   5.113
61656SOL    HW286743  14.046  13.809   5.034
61657SOL     OW86744   9.739   7.008   2.882
61657SOL    HW186745   9.733   6.949   2.957
61657SOL    HW286746   9.769   6.952   2.810
61658SOL     OW86747  14.078  10.532   7.977
61658SOL    HW186748  14.112  10.549   8.065
61658SOL    HW286749  14.150  10.557   7.919
61659SOL     OW86750  13.812   1.056   5.175
61659SOL    HW186751  13.757   1.034   5.100
61659SOL    HW286752  13.768   1.015   5.250
61660SOL     OW86753   6.175  14.859   6.309
61660SOL    HW186754   6.108   0.048   6.325
61660SOL    HW286755   6.131  14.795   6.254
61661SOL     OW86756   8.860  11.262   9.491
61661SOL    HW186757   8.865  11.206   9.414
61661SOL    HW286758   8.768  11.262   9.515
61662SOL     OW86759   1.002   8.974   8.330
61662SOL    HW186760   1.001   9.040   8.261
61662SOL    HW286761   0.979   8.892   8.286
61663SOL     OW86762   0.509   3.470  10.040
61663SOL    HW186763   0.493   3.510   9.955
61663SOL    HW286764   0.593   3.425  10.030
61664SOL     OW86765  12.947   8.956   1.215
61664SOL    HW186766  12.912   8.875   1.252
61664SOL    HW286767  12.982   8.930   1.130
61665SOL     OW86768   5.232  14.006   0.624
61665SOL    HW186769   5.158  14.051   0.585
61665SOL    HW286770   5.249  14.055   0.705
61666SOL     OW86771   3.903   9.551   9.516
61666SOL    HW186772   3.900   9.598   9.433
61666SOL    HW286773   3.986   9.577   9.556
61667SOL     OW86774   3.932   2.962   1.383
61667SOL    HW186775   3.853   2.910   1.366
61667SOL    HW286776   3.968   2.980   1.296
61668SOL     OW86777   9.489   0.248  10.246
61668SOL    HW186778   9.426   0.312  10.214
61668SOL    HW286779   9.436   0.183  10.291
61669SOL     OW86780   0.953   5.200   5.295
61669SOL    HW186781   0.985   5.229   5.209
61669SOL    HW286782   0.972   5.106   5.297
61670SOL     OW86783  13.409  13.101  14.538
61670SOL    HW186784  13.402  13.197  14.531
61670SOL    HW286785  13.465  13.076  14.465
61671SOL     OW86786  13.186   8.258   7.894
61671SOL    HW186787  13.281   8.265   7.904
61671SOL    HW286788  13.168   8.292   7.806
61672SOL     OW86789   9.810   0.767   2.900
61672SOL    HW186790   9.769   0.809   2.825
61672SOL    HW286791   9.877   0.829   2.929
61673SOL     OW86792   7.404  10.216  14.237
61673SOL    HW186793   7.327  10.259  14.199
61673SOL    HW286794   7.442  10.167  14.164
61674SOL     OW86795   4.827   0.126   7.463
61674SOL    HW186796   4.773   0.072   7.405
61674SOL    HW286797   4.841   0.071   7.540
61675SOL     OW86798   0.001  10.925  14.216
61675SOL    HW186799  14.830  10.854  14.175
61675SOL    HW286800  14.875  10.906  14.310
61676SOL     OW86801  10.260   5.286  11.050
61676SOL    HW186802  10.300   5.222  10.993
61676SOL    HW286803  10.263   5.247  11.137
61677SOL     OW86804  10.605  12.187   6.900
61677SOL    HW186805  10.561  12.111   6.938
61677SOL    HW286806  10.698  12.171   6.914
61678SOL     OW86807   7.087   1.565   9.604
61678SOL    HW186808   7.066   1.558   9.511
61678SOL    HW286809   7.164   1.509   9.615
61679SOL     OW86810  10.550  12.502  12.444
61679SOL    HW186811  10.510  12.557  12.377
61679SOL    HW286812  10.486  12.500  12.515
61680SOL     OW86813   9.058  13.824   0.376
61680SOL    HW186814   9.086  13.854   0.462
61680SOL    HW286815   9.132  13.843   0.318
61681SOL     OW86816   8.868   4.254   3.421
61681SOL    HW186817   8.790   4.289   3.465
61681SOL    HW286818   8.937   4.260   3.487
61682SOL     OW86819   9.927  13.711   9.054
61682SOL    HW186820   9.948  13.791   9.103
61682SOL    HW286821   9.891  13.651   9.120
61683SOL     OW86822  11.793   1.296  13.376
61683SOL    HW186823  11.858   1.362  13.355
61683SOL    HW286824  11.813   1.222  13.319
61684SOL     OW86825   0.209   0.265   0.882
61684SOL    HW186826   0.160   0.256   0.800
61684SOL    HW286827   0.256   0.183   0.891
61685SOL     OW86828   3.005   3.435   9.351
61685SOL    HW186829   3.051   3.407   9.273
61685SOL    HW286830   2.917   3.398   9.342
61686SOL     OW86831  14.209  14.717   9.770
61686SOL    HW186832  14.273  14.729   9.840
61686SOL    HW286833  14.258  14.734   9.690
61687SOL     OW86834   3.597  14.378   5.379
61687SOL    HW186835   3.620  14.398   5.288
61687SOL    HW286836   3.624  14.456   5.428
61688SOL     OW86837  13.982   7.898   0.749
61688SOL    HW186838  14.033   7.979   0.746
61688SOL    HW286839  14.029   7.837   0.693
61689SOL     OW86840   2.288   6.211   4.312
61689SOL    HW186841   2.217   6.165   4.357
61689SOL    HW286842   2.357   6.145   4.303
61690SOL     OW86843   5.892   2.136   3.698
61690SOL    HW186844   5.932   2.083   3.768
61690SOL    HW286845   5.920   2.094   3.617
61691SOL     OW86846   3.333   4.123   1.796
61691SOL    HW186847   3.315   4.192   1.859
61691SOL    HW286848   3.419   4.089   1.820
61692SOL     OW86849   4.317   7.384   7.444
61692SOL    HW186850   4.295   7.451   7.508
61692SOL    HW286851   4.315   7.429   7.360
61693SOL     OW86852   6.276   8.627   1.148
61693SOL    HW186853   6.260   8.719   1.166
61693SOL    HW286854   6.309   8.625   1.058
61694SOL     OW86855   8.495   3.800   1.682
61694SOL    HW186856   8.524   3.773   1.769
61694SOL    HW286857   8.446   3.725   1.648
61695SOL     OW86858   8.795   9.952  13.634
61695SOL    HW186859   8.779   9.887  13.565
61695SOL    HW286860   8.709   9.966  13.673
61696SOL     OW86861   5.306  11.826   1.737
61696SOL    HW186862   5.255  11.857   1.661
61696SOL    HW286863   5.397  11.843   1.713
61697SOL     OW86864   0.923   7.632   4.299
61697SOL    HW186865   0.928   7.727   4.298
61697SOL    HW286866   0.855   7.612   4.235
61698SOL     OW86867  10.356   7.780  14.355
61698SOL    HW186868  10.432   7.762  14.410
61698SOL    HW286869  10.361   7.716  14.284
61699SOL     OW86870   5.414   1.803  13.928
61699SOL    HW186871   5.384   1.860  13.998
61699SOL    HW286872   5.336   1.753  13.903
61700SOL     OW86873   1.802  12.973   3.682
61700SOL    HW186874   1.823  12.893   3.633
61700SOL    HW286875   1.789  13.039   3.615
61701SOL     OW86876   2.006  14.813   5.408
61701SOL    HW186877   1.963  14.777   5.485
61701SOL    HW286878   1.935  14.838   5.350
61702SOL     OW86879   0.435  14.113   5.276
61702SOL    HW186880   0.531  14.108   5.272
61702SOL    HW286881   0.414  14.189   5.222
61703SOL     OW86882   2.924   2.482   1.581
61703SOL    HW186883   2.852   2.430   1.546
61703SOL    HW286884   3.003   2.436   1.552
61704SOL     OW86885   0.455   0.041  12.362
61704SOL    HW186886   0.457   0.133  12.389
61704SOL    HW286887   0.362   0.017  12.364
61705SOL     OW86888   8.339  10.180  14.748
61705SOL    HW186889   8.308  10.140  14.829
61705SOL    HW286890   8.284  10.258  14.737
61706SOL     OW86891   1.824   1.683  14.276
61706SOL    HW186892   1.788   1.698  14.364
61706SOL    HW286893   1.784   1.601  14.248
61707SOL     OW86894   8.016   1.024   0.118
61707SOL    HW186895   8.037   0.947   0.171
61707SOL    HW286896   8.060   1.008   0.035
61708SOL     OW86897   0.727  13.587  14.463
61708SOL    HW186898   0.665  13.615  14.395
61708SOL    HW286899   0.698  13.499  14.486
61709SOL     OW86900   7.861  11.702   6.241
61709SOL    HW186901   7.831  11.625   6.192
61709SOL    HW286902   7.894  11.761   6.174
61710SOL     OW86903  13.862  14.633   9.282
61710SOL    HW186904  13.951  14.601   9.266
61710SOL    HW286905  13.833  14.586   9.360
61711SOL     OW86906   6.229   5.481   8.819
61711SOL    HW186907   6.262   5.392   8.831
61711SOL    HW286908   6.137   5.477   8.846
61712SOL     OW86909   2.241   4.016  11.453
61712SOL    HW186910   2.312   3.986  11.396
61712SOL    HW286911   2.173   3.950  11.444
61713SOL     OW86912  11.412   8.448   5.645
61713SOL    HW186913  11.354   8.439   5.569
61713SOL    HW286914  11.474   8.375   5.637
61714SOL     OW86915   8.780  14.320  14.062
61714SOL    HW186916   8.777  14.259  13.988
61714SOL    HW286917   8.692  14.355  14.069
61715SOL     OW86918   7.470   6.566  14.781
61715SOL    HW186919   7.386   6.530  14.755
61715SOL    HW286920   7.525   6.489  14.797
61716SOL     OW86921   1.979   0.955   8.037
61716SOL    HW186922   1.937   1.013   7.973
61716SOL    HW286923   1.983   0.870   7.993
61717SOL     OW86924   0.371   7.399   4.442
61717SOL    HW186925   0.321   7.470   4.481
61717SOL    HW286926   0.324   7.378   4.361
61718SOL     OW86927  10.027   9.073   6.902
61718SOL    HW186928  10.012   9.031   6.986
61718SOL    HW286929   9.965   9.145   6.899
61719SOL     OW86930   1.095   9.746   1.775
61719SOL    HW186931   1.085   9.730   1.869
61719SOL    HW286932   1.123   9.838   1.770
61720SOL     OW86933   6.430  10.322  14.322
61720SOL    HW186934   6.495  10.255  14.300
61720SOL    HW286935   6.480  10.392  14.363
61721SOL     OW86936  13.176  11.644   8.796
61721SOL    HW186937  13.148  11.567   8.845
61721SOL    HW286938  13.099  11.701   8.794
61722SOL     OW86939  13.531   5.087   1.211
61722SOL    HW186940  13.589   5.066   1.284
61722SOL    HW286941  13.590   5.115   1.141
61723SOL     OW86942   7.412   0.622   9.624
61723SOL    HW186943   7.338   0.632   9.565
61723SOL    HW286944   7.436   0.529   9.616
61724SOL     OW86945   5.769   6.896  11.340
61724SOL    HW186946   5.839   6.868  11.281
61724SOL    HW286947   5.786   6.848  11.422
61725SOL     OW86948  13.716   3.846   5.215
61725SOL    HW186949  13.745   3.799   5.293
61725SOL    HW286950  13.622   3.855   5.226
61726SOL     OW86951   6.458   0.572   2.955
61726SOL    HW186952   6.473   0.589   3.048
61726SOL    HW286953   6.502   0.489   2.939
61727SOL     OW86954   2.141  10.600   3.503
61727SOL    HW186955   2.115  10.630   3.590
61727SOL    HW286956   2.212  10.659   3.477
61728SOL     OW86957   9.220   5.698  10.674
61728SOL    HW186958   9.227   5.682  10.580
61728SOL    HW286959   9.129   5.677  10.695
61729SOL     OW86960   6.909  14.572  10.455
61729SOL    HW186961   7.001  14.591  10.476
61729SOL    HW286962   6.868  14.658  10.447
61730SOL     OW86963   3.697   2.944  12.102
61730SOL    HW186964   3.698   2.857  12.141
61730SOL    HW286965   3.608   2.976  12.116
61731SOL     OW86966   1.709   6.594   5.668
61731SOL    HW186967   1.689   6.679   5.707
61731SOL    HW286968   1.798   6.603   5.634
61732SOL     OW86969   1.558   0.965  12.496
61732SOL    HW186970   1.521   0.978  12.583
61732SOL    HW286971   1.482   0.947  12.440
61733SOL     OW86972  10.300   5.959   4.294
61733SOL    HW186973  10.383   6.002   4.275
61733SOL    HW286974  10.286   5.972   4.387
61734SOL     OW86975   2.918   6.007   1.680
61734SOL    HW186976   2.922   6.081   1.741
61734SOL    HW286977   2.917   6.048   1.593
61735SOL     OW86978   9.874   0.171   7.056
61735SOL    HW186979   9.920   0.211   7.130
61735SOL    HW286980   9.782   0.169   7.084
61736SOL     OW86981   0.043   1.102   3.862
61736SOL    HW186982   0.058   1.089   3.768
61736SOL    HW286983   0.076   1.190   3.879
61737SOL     OW86984   4.775   8.569  10.071
61737SOL    HW186985   4.817   8.487  10.046
61737SOL    HW286986   4.814   8.635  10.013
61738SOL     OW86987   2.440   7.912  11.057
61738SOL    HW186988   2.394   7.850  11.113
61738SOL    HW286989   2.526   7.923  11.098
61739SOL     OW86990   8.964   0.593   3.396
61739SOL    HW186991   8.880   0.626   3.364
61739SOL    HW286992   8.940   0.530   3.465
61740SOL     OW86993   1.965   6.132  14.031
61740SOL    HW186994   2.029   6.166  14.093
61740SOL    HW286995   1.910   6.073  14.082
61741SOL     OW86996  11.163  12.581   0.862
61741SOL    HW186997  11.257  12.591   0.848
61741SOL    HW286998  11.156  12.515   0.932
61742SOL     OW86999  13.908  12.934   6.311
61742SOL    HW187000  13.887  13.023   6.339
61742SOL    HW287001  13.900  12.882   6.391
61743SOL     OW87002   1.860  11.187   9.564
61743SOL    HW187003   1.809  11.161   9.642
61743SOL    HW287004   1.809  11.153   9.491
61744SOL     OW87005  13.641  12.060   8.401
61744SOL    HW187006  13.672  12.151   8.408
61744SOL    HW287007  13.686  12.014   8.472
61745SOL     OW87008  12.933  14.085   4.849
61745SOL    HW187009  12.924  14.180   4.855
61745SOL    HW287010  13.027  14.071   4.839
61746SOL     OW87011  14.142   7.667   3.066
61746SOL    HW187012  14.214   7.604   3.062
61746SOL    HW287013  14.064   7.614   3.083
61747SOL     OW87014   8.373   6.759   3.968
61747SOL    HW187015   8.455   6.747   4.015
61747SOL    HW287016   8.387   6.718   3.883
61748SOL     OW87017  14.205   8.349  13.866
61748SOL    HW187018  14.254   8.270  13.893
61748SOL    HW287019  14.148   8.319  13.796
61749SOL     OW87020  14.215   6.056   5.074
61749SOL    HW187021  14.248   6.138   5.036
61749SOL    HW287022  14.121   6.058   5.056
61750SOL     OW87023  14.234   0.036   7.433
61750SOL    HW187024  14.319   0.043   7.478
61750SOL    HW287025  14.170   0.045   7.503
61751SOL     OW87026   9.271  10.730  12.380
61751SOL    HW187027   9.188  10.764  12.413
61751SOL    HW287028   9.338  10.783  12.422
61752SOL     OW87029   3.637   7.739  12.414
61752SOL    HW187030   3.722   7.734  12.457
61752SOL    HW287031   3.620   7.649  12.386
61753SOL     OW87032   9.966   1.540   1.136
61753SOL    HW187033  10.038   1.569   1.191
61753SOL    HW287034   9.892   1.593   1.163
61754SOL     OW87035   7.259   6.401  10.184
61754SOL    HW187036   7.172   6.433  10.210
61754SOL    HW287037   7.251   6.385  10.090
61755SOL     OW87038   2.229   6.325   5.625
61755SOL    HW187039   2.146   6.302   5.667
61755SOL    HW287040   2.296   6.281   5.677
61756SOL     OW87041  11.190  11.105   0.093
61756SOL    HW187042  11.143  11.185   0.070
61756SOL    HW287043  11.213  11.115   0.185
61757SOL     OW87044   7.909   5.474   9.840
61757SOL    HW187045   7.915   5.500   9.748
61757SOL    HW287046   7.937   5.382   9.840
61758SOL     OW87047   1.523   6.965   6.160
61758SOL    HW187048   1.593   6.907   6.190
61758SOL    HW287049   1.549   6.991   6.072
61759SOL     OW87050  14.609  10.739   4.830
61759SOL    HW187051  14.698  10.705   4.828
61759SOL    HW287052  14.574  10.709   4.915
61760SOL     OW87053  10.241   2.552   5.015
61760SOL    HW187054  10.294   2.497   4.957
61760SOL    HW287055  10.231   2.498   5.094
61761SOL     OW87056   7.718   2.867   5.428
61761SOL    HW187057   7.714   2.945   5.483
61761SOL    HW287058   7.692   2.795   5.485
61762SOL     OW87059  11.544  13.627   8.606
61762SOL    HW187060  11.544  13.554   8.543
61762SOL    HW287061  11.475  13.604   8.668
61763SOL     OW87062   1.627   2.796   4.285
61763SOL    HW187063   1.701   2.805   4.225
61763SOL    HW287064   1.554   2.769   4.230
61764SOL     OW87065  11.610   6.149  12.026
61764SOL    HW187066  11.536   6.089  12.028
61764SOL    HW287067  11.580   6.225  12.076
61765SOL     OW87068  13.673  11.591  14.487
61765SOL    HW187069  13.663  11.529  14.559
61765SOL    HW287070  13.760  11.629  14.500
61766SOL     OW87071   3.672   9.718   4.891
61766SOL    HW187072   3.721   9.662   4.952
61766SOL    HW287073   3.730   9.792   4.874
61767SOL     OW87074  13.214  13.616   5.470
61767SOL    HW187075  13.181  13.649   5.387
61767SOL    HW287076  13.136  13.590   5.519
61768SOL     OW87077   1.589  14.239   2.110
61768SOL    HW187078   1.648  14.171   2.142
61768SOL    HW287079   1.520  14.191   2.064
61769SOL     OW87080  11.565   2.900   3.621
61769SOL    HW187081  11.610   2.963   3.565
61769SOL    HW287082  11.495   2.950   3.662
61770SOL     OW87083   9.205  13.243  10.932
61770SOL    HW187084   9.177  13.329  10.963
61770SOL    HW287085   9.167  13.181  10.994
61771SOL     OW87086   9.341   2.220   7.439
61771SOL    HW187087   9.394   2.296   7.461
61771SOL    HW287088   9.297   2.244   7.358
61772SOL     OW87089   1.644   3.937   0.335
61772SOL    HW187090   1.724   3.969   0.294
61772SOL    HW287091   1.675   3.877   0.404
61773SOL     OW87092  10.911  12.106   2.482
61773SOL    HW187093  10.957  12.063   2.554
61773SOL    HW287094  10.939  12.059   2.404
61774SOL     OW87095   6.139   4.423   1.801
61774SOL    HW187096   6.077   4.398   1.870
61774SOL    HW287097   6.151   4.342   1.751
61775SOL     OW87098   6.095  12.363   1.406
61775SOL    HW187099   6.106  12.278   1.363
61775SOL    HW287100   6.147  12.423   1.353
61776SOL     OW87101   3.523   6.470  13.759
61776SOL    HW187102   3.614   6.459  13.788
61776SOL    HW287103   3.510   6.565  13.757
61777SOL     OW87104  11.368   8.712   4.830
61777SOL    HW187105  11.389   8.785   4.773
61777SOL    HW287106  11.453   8.680   4.860
61778SOL     OW87107  10.911  10.009   8.048
61778SOL    HW187108  10.866  10.052   8.121
61778SOL    HW287109  10.991   9.973   8.087
61779SOL     OW87110  10.312  14.284   7.076
61779SOL    HW187111  10.329  14.364   7.125
61779SOL    HW287112  10.217  14.272   7.081
61780SOL     OW87113   8.969   2.355   7.508
61780SOL    HW187114   9.005   2.428   7.457
61780SOL    HW287115   8.939   2.292   7.442
61781SOL     OW87116   1.427   6.619  12.082
61781SOL    HW187117   1.389   6.531  12.090
61781SOL    HW287118   1.368   6.674  12.134
61782SOL     OW87119   1.653   8.021   8.826
61782SOL    HW187120   1.562   8.009   8.852
61782SOL    HW287121   1.651   8.095   8.765
61783SOL     OW87122   6.994   6.140  14.407
61783SOL    HW187123   6.960   6.163  14.493
61783SOL    HW287124   6.925   6.165  14.346
61784SOL     OW87125   2.928   2.866   2.184
61784SOL    HW187126   2.956   2.940   2.239
61784SOL    HW287127   2.986   2.869   2.108
61785SOL     OW87128   8.754   3.196   5.243
61785SOL    HW187129   8.783   3.128   5.182
61785SOL    HW287130   8.770   3.158   5.330
61786SOL     OW87131  12.002  13.181   1.180
61786SOL    HW187132  12.010  13.148   1.269
61786SOL    HW287133  11.908  13.193   1.167
61787SOL     OW87134   1.020  11.427   2.474
61787SOL    HW187135   0.960  11.493   2.438
61787SOL    HW287136   1.085  11.415   2.405
61788SOL     OW87137   0.222   6.434   1.227
61788SOL    HW187138   0.276   6.358   1.247
61788SOL    HW287139   0.158   6.403   1.163
61789SOL     OW87140  10.134  14.617   2.105
61789SOL    HW187141  10.120  14.582   2.193
61789SOL    HW287142  10.196  14.689   2.118
61790SOL     OW87143  14.024   1.196  14.448
61790SOL    HW187144  14.005   1.279  14.403
61790SOL    HW287145  14.024   1.219  14.541
61791SOL     OW87146   6.753   5.362   6.323
61791SOL    HW187147   6.725   5.444   6.282
61791SOL    HW287148   6.780   5.386   6.411
61792SOL     OW87149   3.141   7.336   0.892
61792SOL    HW187150   3.177   7.424   0.884
61792SOL    HW287151   3.172   7.290   0.815
61793SOL     OW87152  10.042   2.116  10.600
61793SOL    HW187153  10.126   2.078  10.577
61793SOL    HW287154   9.983   2.091  10.528
61794SOL     OW87155   0.320   4.821   5.990
61794SOL    HW187156   0.348   4.860   5.907
61794SOL    HW287157   0.226   4.807   5.980
61795SOL     OW87158   2.609   9.419   5.673
61795SOL    HW187159   2.598   9.514   5.676
61795SOL    HW287160   2.563   9.392   5.593
61796SOL     OW87161  11.262  13.877  14.149
61796SOL    HW187162  11.304  13.957  14.180
61796SOL    HW287163  11.293  13.808  14.208
61797SOL     OW87164  10.478  13.840  14.688
61797SOL    HW187165  10.397  13.832  14.739
61797SOL    HW287166  10.544  13.794  14.740
61798SOL     OW87167   6.395   0.149  11.779
61798SOL    HW187168   6.324   0.191  11.829
61798SOL    HW287169   6.474   0.164  11.831
61799SOL     OW87170   9.562   1.747   8.925
61799SOL    HW187171   9.515   1.738   8.842
61799SOL    HW287172   9.654   1.759   8.900
61800SOL     OW87173   1.730  11.600   3.705
61800SOL    HW187174   1.765  11.573   3.790
61800SOL    HW287175   1.646  11.556   3.699
61801SOL     OW87176   4.378   1.926   4.542
61801SOL    HW187177   4.354   1.839   4.574
61801SOL    HW287178   4.338   1.932   4.456
61802SOL     OW87179  13.822  12.633   9.614
61802SOL    HW187180  13.787  12.635   9.703
61802SOL    HW287181  13.892  12.567   9.617
61803SOL     OW87182   3.134   5.508   0.788
61803SOL    HW187183   3.178   5.433   0.828
61803SOL    HW287184   3.055   5.520   0.842
61804SOL     OW87185  13.632  14.367   1.573
61804SOL    HW187186  13.586  14.284   1.557
61804SOL    HW287187  13.630  14.412   1.489
61805SOL     OW87188   6.267   9.964  10.207
61805SOL    HW187189   6.337   9.961  10.272
61805SOL    HW287190   6.220   9.882  10.218
61806SOL     OW87191   0.486  13.684  10.371
61806SOL    HW187192   0.421  13.727  10.316
61806SOL    HW287193   0.566  13.735  10.358
61807SOL     OW87194   6.495   5.664   3.545
61807SOL    HW187195   6.559   5.634   3.480
61807SOL    HW287196   6.475   5.754   3.519
61808SOL     OW87197   3.093   5.760   6.220
61808SOL    HW187198   3.130   5.836   6.175
61808SOL    HW287199   3.129   5.764   6.308
61809SOL     OW87200   3.595   0.084   9.849
61809SOL    HW187201   3.620   0.141   9.922
61809SOL    HW287202   3.512   0.121   9.818
61810SOL     OW87203   8.103   8.446   6.975
61810SOL    HW187204   8.093   8.477   7.065
61810SOL    HW287205   8.146   8.361   6.984
61811SOL     OW87206   6.843   2.979   8.269
61811SOL    HW187207   6.807   2.903   8.225
61811SOL    HW287208   6.880   2.945   8.351
61812SOL     OW87209   8.116   1.480  13.999
61812SOL    HW187210   8.028   1.511  14.021
61812SOL    HW287211   8.148   1.439  14.079
61813SOL     OW87212   9.132   0.437  12.042
61813SOL    HW187213   9.130   0.518  11.992
61813SOL    HW287214   9.100   0.462  12.129
61814SOL     OW87215   5.310   8.615  12.565
61814SOL    HW187216   5.265   8.686  12.611
61814SOL    HW287217   5.358   8.569  12.633
61815SOL     OW87218   1.056   3.997   4.681
61815SOL    HW187219   1.082   4.088   4.671
61815SOL    HW287220   1.135   3.946   4.661
61816SOL     OW87221   6.255   2.555   7.294
61816SOL    HW187222   6.287   2.645   7.296
61816SOL    HW287223   6.330   2.502   7.319
61817SOL     OW87224   1.911   2.993   7.391
61817SOL    HW187225   1.837   2.976   7.449
61817SOL    HW287226   1.873   3.042   7.318
61818SOL     OW87227   0.126   2.816   9.905
61818SOL    HW187228   0.106   2.729   9.940
61818SOL    HW287229   0.093   2.813   9.815
61819SOL     OW87230  11.335   0.796  10.761
61819SOL    HW187231  11.342   0.888  10.736
61819SOL    HW287232  11.241   0.781  10.772
61820SOL     OW87233  13.600   3.642   7.060
61820SOL    HW187234  13.639   3.659   7.146
61820SOL    HW287235  13.558   3.557   7.069
61821SOL     OW87236   5.189   0.924   6.110
61821SOL    HW187237   5.237   0.861   6.056
61821SOL    HW287238   5.257   0.965   6.165
61822SOL     OW87239   7.343   1.142   4.078
61822SOL    HW187240   7.425   1.180   4.045
61822SOL    HW287241   7.359   1.131   4.172
61823SOL     OW87242  12.755   5.683   0.059
61823SOL    HW187243  12.762   5.607   0.117
61823SOL    HW287244  12.687   5.659  14.873
61824SOL     OW87245  12.529   1.240  11.346
61824SOL    HW187246  12.511   1.159  11.298
61824SOL    HW287247  12.508   1.310  11.284
61825SOL     OW87248  14.685   3.683   2.022
61825SOL    HW187249  14.723   3.596   2.019
61825SOL    HW287250  14.709   3.722   1.938
61826SOL     OW87251  14.385   1.811   5.400
61826SOL    HW187252  14.470   1.837   5.435
61826SOL    HW287253  14.324   1.879   5.429
61827SOL     OW87254   1.533  14.706   9.714
61827SOL    HW187255   1.593  14.705   9.789
61827SOL    HW287256   1.495  14.618   9.712
61828SOL     OW87257   8.815   7.154   9.704
61828SOL    HW187258   8.901   7.114   9.715
61828SOL    HW287259   8.805   7.164   9.609
61829SOL     OW87260   7.571  12.413   2.909
61829SOL    HW187261   7.490  12.414   2.959
61829SOL    HW287262   7.561  12.341   2.847
61830SOL     OW87263  11.399  10.178   1.957
61830SOL    HW187264  11.371  10.089   1.939
61830SOL    HW287265  11.492  10.170   1.978
61831SOL     OW87266   5.418  10.588  13.294
61831SOL    HW187267   5.440  10.655  13.229
61831SOL    HW287268   5.478  10.516  13.275
61832SOL     OW87269   4.516  13.151  13.562
61832SOL    HW187270   4.497  13.080  13.501
61832SOL    HW287271   4.595  13.192  13.527
61833SOL     OW87272   2.894   1.218   3.417
61833SOL    HW187273   2.826   1.262   3.365
61833SOL    HW287274   2.849   1.191   3.497
61834SOL     OW87275   1.112  13.002   9.157
61834SOL    HW187276   1.029  12.962   9.133
61834SOL    HW287277   1.153  13.024   9.073
61835SOL     OW87278   5.259   7.825  14.372
61835SOL    HW187279   5.216   7.753  14.326
61835SOL    HW287280   5.197   7.897  14.367
61836SOL     OW87281   2.203   9.500   9.376
61836SOL    HW187282   2.276   9.555   9.405
61836SOL    HW287283   2.131   9.562   9.360
61837SOL     OW87284   6.499   0.127  10.523
61837SOL    HW187285   6.565   0.060  10.503
61837SOL    HW287286   6.472   0.160  10.438
61838SOL     OW87287   9.672   7.343   6.100
61838SOL    HW187288   9.580   7.320   6.089
61838SOL    HW287289   9.718   7.259   6.100
61839SOL     OW87290   6.375  13.696  10.268
61839SOL    HW187291   6.327  13.617  10.293
61839SOL    HW287292   6.374  13.750  10.347
61840SOL     OW87293  11.393  13.667   9.719
61840SOL    HW187294  11.423  13.576   9.724
61840SOL    HW287295  11.456  13.710   9.661
61841SOL     OW87296  13.153   4.199   9.792
61841SOL    HW187297  13.071   4.247   9.786
61841SOL    HW287298  13.132   4.123   9.847
61842SOL     OW87299  13.333   0.570   9.798
61842SOL    HW187300  13.257   0.590   9.744
61842SOL    HW287301  13.346   0.476   9.788
61843SOL     OW87302  14.845  13.583   5.901
61843SOL    HW187303   0.027  13.508   5.898
61843SOL    HW287304   0.009  13.644   5.962
61844SOL     OW87305  14.558   3.457  14.181
61844SOL    HW187306  14.593   3.386  14.235
61844SOL    HW287307  14.591   3.439  14.093
61845SOL     OW87308   5.054  13.040  13.567
61845SOL    HW187309   5.144  13.022  13.594
61845SOL    HW287310   5.062  13.079  13.480
61846SOL     OW87311  11.439  11.158  12.657
61846SOL    HW187312  11.513  11.219  12.651
61846SOL    HW287313  11.383  11.195  12.725
61847SOL     OW87314   0.325  10.034  14.859
61847SOL    HW187315   0.283   9.998  14.781
61847SOL    HW287316   0.413  10.059  14.830
61848SOL     OW87317  11.884  13.134   6.676
61848SOL    HW187318  11.932  13.216   6.679
61848SOL    HW287319  11.829  13.141   6.598
61849SOL     OW87320   5.977  12.839   9.129
61849SOL    HW187321   6.004  12.922   9.169
61849SOL    HW287322   5.885  12.829   9.154
61850SOL     OW87323   2.812  12.531   9.644
61850SOL    HW187324   2.782  12.591   9.576
61850SOL    HW287325   2.857  12.587   9.707
61851SOL     OW87326   8.072  13.035   8.888
61851SOL    HW187327   8.052  12.982   8.965
61851SOL    HW287328   8.159  13.006   8.862
61852SOL     OW87329   6.073   3.450  11.968
61852SOL    HW187330   6.077   3.406  11.883
61852SOL    HW287331   6.161   3.442  12.004
61853SOL     OW87332  13.578   0.717   5.246
61853SOL    HW187333  13.590   0.804   5.283
61853SOL    HW287334  13.660   0.698   5.202
61854SOL     OW87335   4.732  10.081  11.517
61854SOL    HW187336   4.708  10.127  11.597
61854SOL    HW287337   4.698  10.135  11.446
61855SOL     OW87338   7.957   6.702   2.662
61855SOL    HW187339   8.049   6.690   2.687
61855SOL    HW287340   7.956   6.692   2.567
61856SOL     OW87341  12.508   9.716  14.113
61856SOL    HW187342  12.450   9.730  14.187
61856SOL    HW287343  12.593   9.749  14.142
61857SOL     OW87344  14.117   1.539  13.793
61857SOL    HW187345  14.035   1.489  13.787
61857SOL    HW287346  14.091   1.627  13.820
61858SOL     OW87347  11.911   9.113   5.865
61858SOL    HW187348  11.914   9.176   5.937
61858SOL    HW287349  11.912   9.027   5.907
61859SOL     OW87350   2.668   2.473  10.389
61859SOL    HW187351   2.703   2.437  10.471
61859SOL    HW287352   2.574   2.482  10.405
61860SOL     OW87353   4.277  13.572   9.246
61860SOL    HW187354   4.218  13.629   9.198
61860SOL    HW287355   4.359  13.621   9.252
61861SOL     OW87356   4.727  12.801   3.828
61861SOL    HW187357   4.724  12.708   3.853
61861SOL    HW287358   4.803  12.808   3.770
61862SOL     OW87359   7.748   0.027  10.886
61862SOL    HW187360   7.840   0.002  10.896
61862SOL    HW287361   7.748   0.086  10.810
61863SOL     OW87362  14.572   7.661   6.839
61863SOL    HW187363  14.486   7.619   6.849
61863SOL    HW287364  14.574   7.728   6.906
61864SOL     OW87365   2.030  14.661   7.540
61864SOL    HW187366   2.111  14.682   7.586
61864SOL    HW287367   1.970  14.732   7.562
61865SOL     OW87368   9.326  14.025   0.646
61865SOL    HW187369   9.364  14.048   0.731
61865SOL    HW287370   9.242  13.984   0.668
61866SOL     OW87371   3.729   0.103   6.081
61866SOL    HW187372   3.767   0.073   5.998
61866SOL    HW287373   3.708   0.195   6.065
61867SOL     OW87374   4.874  10.471  12.323
61867SOL    HW187375   4.923  10.394  12.294
61867SOL    HW287376   4.919  10.545  12.283
61868SOL     OW87377   0.728   4.685  13.294
61868SOL    HW187378   0.735   4.655  13.385
61868SOL    HW287379   0.816   4.717  13.272
61869SOL     OW87380  14.059   1.812   8.182
61869SOL    HW187381  14.143   1.840   8.219
61869SOL    HW287382  14.021   1.892   8.146
61870SOL     OW87383   5.226   5.758   4.855
61870SOL    HW187384   5.278   5.832   4.825
61870SOL    HW287385   5.238   5.756   4.949
61871SOL     OW87386   2.812   9.193   0.067
61871SOL    HW187387   2.792   9.219  14.855
61871SOL    HW287388   2.727   9.189   0.111
61872SOL     OW87389   9.877   3.556   4.748
61872SOL    HW187390   9.906   3.490   4.811
61872SOL    HW287391   9.905   3.640   4.785
61873SOL     OW87392   6.104   8.210   5.411
61873SOL    HW187393   6.126   8.117   5.411
61873SOL    HW287394   6.037   8.219   5.343
61874SOL     OW87395  14.751  12.254  14.077
61874SOL    HW187396  14.671  12.307  14.080
61874SOL    HW287397  14.745  12.199  14.155
61875SOL     OW87398   0.783  13.065  10.310
61875SOL    HW187399   0.691  13.086  10.326
61875SOL    HW287400   0.826  13.080  10.394
61876SOL     OW87401   5.167  10.704   1.602
61876SOL    HW187402   5.189  10.638   1.536
61876SOL    HW287403   5.073  10.720   1.590
61877SOL     OW87404  13.855   2.796   8.782
61877SOL    HW187405  13.877   2.705   8.762
61877SOL    HW287406  13.763   2.805   8.757
61878SOL     OW87407   9.450   3.652   9.831
61878SOL    HW187408   9.520   3.712   9.855
61878SOL    HW287409   9.384   3.663   9.900
61879SOL     OW87410  13.656  11.414  13.338
61879SOL    HW187411  13.611  11.354  13.396
61879SOL    HW287412  13.596  11.488  13.329
61880SOL     OW87413   2.719  12.189   3.316
61880SOL    HW187414   2.707  12.283   3.320
61880SOL    HW287415   2.637  12.155   3.280
61881SOL     OW87416   9.208   4.552   6.115
61881SOL    HW187417   9.257   4.629   6.085
61881SOL    HW287418   9.188   4.570   6.207
61882SOL     OW87419   8.831   0.420   3.548
61882SOL    HW187420   8.747   0.433   3.592
61882SOL    HW287421   8.808   0.373   3.467
61883SOL     OW87422   4.349   8.091   4.441
61883SOL    HW187423   4.392   8.017   4.399
61883SOL    HW287424   4.388   8.095   4.528
61884SOL     OW87425  11.388   7.059  14.291
61884SOL    HW187426  11.371   7.055  14.197
61884SOL    HW287427  11.460   6.997  14.304
61885SOL     OW87428  14.076  10.046   3.957
61885SOL    HW187429  14.136  10.041   3.882
61885SOL    HW287430  14.082   9.959   3.997
61886SOL     OW87431   8.435   2.146  14.172
61886SOL    HW187432   8.475   2.143  14.259
61886SOL    HW287433   8.447   2.058  14.137
61887SOL     OW87434  13.799  11.642   5.356
61887SOL    HW187435  13.864  11.613   5.420
61887SOL    HW287436  13.849  11.693   5.292
61888SOL     OW87437   0.957   3.820   7.539
61888SOL    HW187438   0.941   3.728   7.520
61888SOL    HW287439   1.047   3.836   7.511
61889SOL     OW87440   6.518  12.478   5.734
61889SOL    HW187441   6.534  12.467   5.640
61889SOL    HW287442   6.594  12.527   5.765
61890SOL     OW87443  11.249   5.185  14.746
61890SOL    HW187444  11.155   5.194  14.734
61890SOL    HW287445  11.270   5.098  14.711
61891SOL     OW87446   7.293   1.389   7.219
61891SOL    HW187447   7.342   1.334   7.158
61891SOL    HW287448   7.205   1.350   7.221
61892SOL     OW87449   3.059   2.169   8.410
61892SOL    HW187450   3.106   2.086   8.421
61892SOL    HW287451   2.982   2.145   8.358
61893SOL     OW87452   3.796  11.769  14.200
61893SOL    HW187453   3.732  11.826  14.243
61893SOL    HW287454   3.771  11.770  14.108
61894SOL     OW87455  13.024   1.186   6.077
61894SOL    HW187456  12.992   1.276   6.083
61894SOL    HW287457  12.991   1.143   6.156
61895SOL     OW87458   2.736  13.622  12.613
61895SOL    HW187459   2.798  13.648  12.681
61895SOL    HW287460   2.775  13.654  12.531
61896SOL     OW87461   4.490  10.487   7.776
61896SOL    HW187462   4.497  10.395   7.801
61896SOL    HW287463   4.539  10.493   7.694
61897SOL     OW87464  13.170   3.330  12.632
61897SOL    HW187465  13.189   3.341  12.539
61897SOL    HW287466  13.145   3.238  12.641
61898SOL     OW87467  12.079   4.807  10.552
61898SOL    HW187468  12.047   4.895  10.572
61898SOL    HW287469  12.012   4.770  10.494
61899SOL     OW87470   9.034   8.833  10.305
61899SOL    HW187471   8.999   8.772  10.371
61899SOL    HW287472   9.106   8.877  10.350
61900SOL     OW87473   4.546   9.408   1.048
61900SOL    HW187474   4.506   9.371   0.969
61900SOL    HW287475   4.616   9.346   1.070
61901SOL     OW87476   2.762   0.665  11.078
61901SOL    HW187477   2.835   0.604  11.087
61901SOL    HW287478   2.721   0.666  11.165
61902SOL     OW87479   2.922   3.211   0.825
61902SOL    HW187480   2.841   3.249   0.860
61902SOL    HW287481   2.933   3.129   0.874
61903SOL     OW87482  13.247   6.946  13.490
61903SOL    HW187483  13.232   6.976  13.580
61903SOL    HW287484  13.294   6.863  13.500
61904SOL     OW87485  11.082   7.651   3.794
61904SOL    HW187486  11.168   7.615   3.815
61904SOL    HW287487  11.074   7.642   3.699
61905SOL     OW87488   0.279   2.467  12.324
61905SOL    HW187489   0.215   2.483  12.254
61905SOL    HW287490   0.311   2.379  12.307
61906SOL     OW87491  12.665   0.809  10.305
61906SOL    HW187492  12.633   0.766  10.384
61906SOL    HW287493  12.736   0.866  10.335
61907SOL     OW87494   4.894  12.315   3.526
61907SOL    HW187495   4.979  12.279   3.500
61907SOL    HW287496   4.850  12.334   3.442
61908SOL     OW87497   4.668   9.236  10.429
61908SOL    HW187498   4.748   9.269  10.469
61908SOL    HW287499   4.621   9.193  10.501
61909SOL     OW87500  10.091  14.558   7.651
61909SOL    HW187501  10.034  14.625   7.689
61909SOL    HW287502  10.164  14.607   7.613
61910SOL     OW87503  11.408  10.455   4.817
61910SOL    HW187504  11.409  10.490   4.729
61910SOL    HW287505  11.318  10.426   4.831
61911SOL     OW87506   5.542  12.159  11.782
61911SOL    HW187507   5.599  12.095  11.741
61911SOL    HW287508   5.517  12.119  11.866
61912SOL     OW87509   6.817   8.451  12.722
61912SOL    HW187510   6.843   8.430  12.633
61912SOL    HW287511   6.884   8.410  12.777
61913SOL     OW87512  11.445   1.099   1.596
61913SOL    HW187513  11.523   1.131   1.549
61913SOL    HW287514  11.460   1.126   1.687
61914SOL     OW87515   6.060  12.850   5.287
61914SOL    HW187516   5.994  12.790   5.252
61914SOL    HW287517   6.015  12.899   5.355
61915SOL     OW87518   9.627   4.877   8.073
61915SOL    HW187519   9.588   4.795   8.043
61915SOL    HW287520   9.553   4.929   8.104
61916SOL     OW87521  13.064  10.354   5.818
61916SOL    HW187522  13.034  10.412   5.888
61916SOL    HW287523  13.134  10.402   5.775
61917SOL     OW87524   0.852   6.164   7.099
61917SOL    HW187525   0.761   6.150   7.128
61917SOL    HW287526   0.875   6.083   7.054
61918SOL     OW87527   5.373   5.814  10.301
61918SOL    HW187528   5.415   5.828  10.386
61918SOL    HW287529   5.423   5.742  10.262
61919SOL     OW87530   1.252  12.885   6.716
61919SOL    HW187531   1.157  12.886   6.725
61919SOL    HW287532   1.270  12.811   6.659
61920SOL     OW87533   3.880   4.017   4.669
61920SOL    HW187534   3.789   4.003   4.644
61920SOL    HW287535   3.883   4.000   4.763
61921SOL     OW87536   0.212  10.094  11.356
61921SOL    HW187537   0.280  10.142  11.308
61921SOL    HW287538   0.260  10.045  11.423
61922SOL     OW87539   3.151  11.696  12.166
61922SOL    HW187540   3.070  11.745  12.154
61922SOL    HW287541   3.213  11.738  12.106
61923SOL     OW87542   0.796  13.016   9.456
61923SOL    HW187543   0.743  12.938   9.443
61923SOL    HW287544   0.763  13.078   9.390
61924SOL     OW87545   5.029   1.436   5.951
61924SOL    HW187546   5.066   1.350   5.969
61924SOL    HW287547   4.952   1.441   6.007
61925SOL     OW87548   1.079  11.888   3.932
61925SOL    HW187549   1.074  11.934   3.848
61925SOL    HW287550   0.992  11.849   3.942
61926SOL     OW87551   1.892   3.527   2.904
61926SOL    HW187552   1.960   3.539   2.837
61926SOL    HW287553   1.857   3.440   2.886
61927SOL     OW87554   8.104   2.252   1.264
61927SOL    HW187555   8.125   2.223   1.353
61927SOL    HW287556   8.033   2.315   1.275
61928SOL     OW87557  13.844  11.378  11.470
61928SOL    HW187558  13.771  11.326  11.503
61928SOL    HW287559  13.826  11.467  11.498
61929SOL     OW87560  12.796  11.402  11.897
61929SOL    HW187561  12.766  11.326  11.948
61929SOL    HW287562  12.717  11.456  11.888
61930SOL     OW87563   5.907   6.205   5.523
61930SOL    HW187564   5.969   6.147   5.568
61930SOL    HW287565   5.845   6.232   5.591
61931SOL     OW87566   6.994  13.436  12.949
61931SOL    HW187567   6.910  13.469  12.982
61931SOL    HW287568   7.015  13.494  12.876
61932SOL     OW87569   6.571   8.793   8.077
61932SOL    HW187570   6.559   8.698   8.082
61932SOL    HW287571   6.517   8.820   8.003
61933SOL     OW87572   4.502   1.108  13.487
61933SOL    HW187573   4.533   1.145  13.570
61933SOL    HW287574   4.453   1.179  13.446
61934SOL     OW87575  11.972  14.671   1.536
61934SOL    HW187576  12.055  14.713   1.514
61934SOL    HW287577  11.984  14.580   1.509
61935SOL     OW87578   6.544   9.075  14.402
61935SOL    HW187579   6.538   8.982  14.382
61935SOL    HW287580   6.469   9.092  14.460
61936SOL     OW87581  14.184   9.385   2.949
61936SOL    HW187582  14.276   9.358   2.955
61936SOL    HW287583  14.140   9.339   3.021
61937SOL     OW87584   2.832   0.351   8.943
61937SOL    HW187585   2.748   0.348   8.987
61937SOL    HW287586   2.818   0.305   8.860
61938SOL     OW87587   3.545   1.838   4.058
61938SOL    HW187588   3.467   1.839   4.114
61938SOL    HW287589   3.537   1.757   4.007
61939SOL     OW87590  11.771   8.383   5.079
61939SOL    HW187591  11.846   8.376   5.137
61939SOL    HW287592  11.775   8.305   5.024
61940SOL     OW87593  12.195   4.731   6.672
61940SOL    HW187594  12.162   4.678   6.599
61940SOL    HW287595  12.124   4.731   6.736
61941SOL     OW87596   7.198  13.067   0.301
61941SOL    HW187597   7.171  12.976   0.287
61941SOL    HW287598   7.218  13.100   0.214
61942SOL     OW87599   6.810   8.192   0.013
61942SOL    HW187600   6.768   8.166   0.096
61942SOL    HW287601   6.800   8.287   0.010
61943SOL     OW87602   2.213   5.014  10.913
61943SOL    HW187603   2.123   5.006  10.883
61943SOL    HW287604   2.259   5.056  10.840
61944SOL     OW87605   0.046   1.762  11.418
61944SOL    HW187606   0.054   1.839  11.474
61944SOL    HW287607   0.005   1.696  11.474
61945SOL     OW87608   8.316   6.838   0.187
61945SOL    HW187609   8.312   6.904   0.119
61945SOL    HW287610   8.237   6.853   0.239
61946SOL     OW87611   8.639   2.707  13.977
61946SOL    HW187612   8.595   2.675  14.056
61946SOL    HW287613   8.670   2.795  14.001
61947SOL     OW87614   0.542   6.680   4.251
61947SOL    HW187615   0.489   6.757   4.230
61947SOL    HW287616   0.482   6.607   4.240
61948SOL     OW87617   9.101   3.670  10.595
61948SOL    HW187618   9.083   3.730  10.668
61948SOL    HW287619   9.185   3.630  10.618
61949SOL     OW87620  12.335   6.018  10.283
61949SOL    HW187621  12.320   6.100  10.329
61949SOL    HW287622  12.403   6.039  10.219
61950SOL     OW87623  10.045   7.735   3.694
61950SOL    HW187624  10.091   7.739   3.778
61950SOL    HW287625   9.965   7.687   3.713
61951SOL     OW87626   1.376  14.352   3.785
61951SOL    HW187627   1.363  14.375   3.877
61951SOL    HW287628   1.428  14.424   3.749
61952SOL     OW87629   7.893   3.001   0.291
61952SOL    HW187630   7.930   2.941   0.227
61952SOL    HW287631   7.967   3.024   0.348
61953SOL     OW87632  11.896   6.706  13.325
61953SOL    HW187633  11.974   6.742  13.367
61953SOL    HW287634  11.830   6.776  13.334
61954SOL     OW87635   6.479   9.937   8.440
61954SOL    HW187636   6.384   9.945   8.447
61954SOL    HW287637   6.506   9.898   8.522
61955SOL     OW87638   2.289   2.198  10.644
61955SOL    HW187639   2.339   2.174  10.722
61955SOL    HW287640   2.340   2.162  10.571
61956SOL     OW87641   4.177  13.719   8.301
61956SOL    HW187642   4.181  13.767   8.384
61956SOL    HW287643   4.268  13.701   8.279
61957SOL     OW87644   0.181   5.718   8.778
61957SOL    HW187645   0.096   5.699   8.739
61957SOL    HW287646   0.202   5.806   8.748
61958SOL     OW87647  10.160   8.623   3.639
61958SOL    HW187648  10.204   8.676   3.706
61958SOL    HW287649  10.187   8.533   3.659
61959SOL     OW87650  14.165  13.927  14.042
61959SOL    HW187651  14.207  13.941  14.127
61959SOL    HW287652  14.212  13.854  14.004
61960SOL     OW87653   2.860  13.785  10.273
61960SOL    HW187654   2.833  13.730  10.199
61960SOL    HW287655   2.944  13.822  10.246
61961SOL     OW87656   3.794   9.962   9.062
61961SOL    HW187657   3.723   9.901   9.042
61961SOL    HW287658   3.872   9.907   9.071
61962SOL     OW87659  11.793   5.909   6.674
61962SOL    HW187660  11.698   5.897   6.676
61962SOL    HW287661  11.805   6.004   6.685
61963SOL     OW87662   8.108   6.760   2.962
61963SOL    HW187663   8.117   6.808   3.044
61963SOL    HW287664   8.015   6.765   2.940
61964SOL     OW87665  14.026   3.174   5.397
61964SOL    HW187666  14.088   3.209   5.461
61964SOL    HW287667  13.945   3.224   5.413
61965SOL     OW87668   1.369   6.603  14.449
61965SOL    HW187669   1.320   6.555  14.515
61965SOL    HW287670   1.319   6.684  14.436
61966SOL     OW87671  11.747  10.662   8.659
61966SOL    HW187672  11.706  10.599   8.717
61966SOL    HW287673  11.841  10.648   8.670
61967SOL     OW87674  10.563   1.586   5.233
61967SOL    HW187675  10.484   1.603   5.285
61967SOL    HW287676  10.617   1.531   5.289
61968SOL     OW87677  14.683  11.679  13.617
61968SOL    HW187678  14.598  11.692  13.574
61968SOL    HW287679  14.745  11.721  13.559
61969SOL     OW87680   1.972   9.073   9.632
61969SOL    HW187681   1.952   8.982   9.611
61969SOL    HW287682   2.009   9.070   9.720
61970SOL     OW87683   1.940  13.401   4.931
61970SOL    HW187684   2.028  13.423   4.960
61970SOL    HW287685   1.938  13.305   4.930
61971SOL     OW87686   9.591   7.915   3.693
61971SOL    HW187687   9.658   7.912   3.761
61971SOL    HW287688   9.517   7.867   3.731
61972SOL     OW87689   3.268   4.121  13.262
61972SOL    HW187690   3.262   4.037  13.307
61972SOL    HW287691   3.234   4.104  13.174
61973SOL     OW87692  12.599   1.687   9.868
61973SOL    HW187693  12.562   1.598   9.870
61973SOL    HW287694  12.694   1.673   9.867
61974SOL     OW87695  11.781  12.046   2.343
61974SOL    HW187696  11.782  11.951   2.340
61974SOL    HW287697  11.775  12.073   2.251
61975SOL     OW87698   8.832  10.630  14.561
61975SOL    HW187699   8.920  10.644  14.526
61975SOL    HW287700   8.825  10.691  14.634
61976SOL     OW87701   9.622   0.125   2.849
61976SOL    HW187702   9.568   0.203   2.861
61976SOL    HW287703   9.672   0.117   2.930
61977SOL     OW87704   2.025  14.342  11.134
61977SOL    HW187705   2.012  14.400  11.058
61977SOL    HW287706   2.081  14.392  11.193
61978SOL     OW87707   6.328  12.124   5.383
61978SOL    HW187708   6.303  12.057   5.446
61978SOL    HW287709   6.413  12.095   5.349
61979SOL     OW87710  11.757  14.831   6.334
61979SOL    HW187711  11.762   0.015   6.260
61979SOL    HW287712  11.709   0.001   6.402
61980SOL     OW87713   4.456   0.425   8.679
61980SOL    HW187714   4.522   0.359   8.700
61980SOL    HW287715   4.426   0.459   8.763
61981SOL     OW87716   1.147   7.918  10.683
61981SOL    HW187717   1.201   7.960  10.750
61981SOL    HW287718   1.206   7.857  10.639
61982SOL     OW87719  13.987  11.092   1.604
61982SOL    HW187720  13.989  11.185   1.580
61982SOL    HW287721  13.904  11.060   1.568
61983SOL     OW87722  13.764   0.624  13.702
61983SOL    HW187723  13.694   0.660  13.648
61983SOL    HW287724  13.837   0.685  13.692
61984SOL     OW87725  10.692   9.465  10.692
61984SOL    HW187726  10.614   9.517  10.710
61984SOL    HW287727  10.733   9.508  10.617
61985SOL     OW87728  10.933   9.321   4.490
61985SOL    HW187729  11.026   9.340   4.496
61985SOL    HW287730  10.915   9.316   4.397
61986SOL     OW87731  14.870   9.958   7.133
61986SOL    HW187732   0.085   9.980   7.148
61986SOL    HW287733  14.867   9.926   7.043
61987SOL     OW87734   1.335   8.012  14.488
61987SOL    HW187735   1.414   7.975  14.527
61987SOL    HW287736   1.304   8.076  14.552
61988SOL     OW87737   4.735  14.130   9.525
61988SOL    HW187738   4.788  14.067   9.574
61988SOL    HW287739   4.771  14.216   9.549
61989SOL     OW87740   4.534   7.137   1.966
61989SOL    HW187741   4.465   7.191   2.003
61989SOL    HW287742   4.489   7.058   1.936
61990SOL     OW87743   9.953   1.548  12.085
61990SOL    HW187744   9.947   1.514  12.174
61990SOL    HW287745   9.915   1.636  12.091
61991SOL     OW87746   4.151   5.703  11.497
61991SOL    HW187747   4.184   5.614  11.508
61991SOL    HW287748   4.222   5.750  11.454
61992SOL     OW87749  10.382   9.534   8.920
61992SOL    HW187750  10.423   9.453   8.889
61992SOL    HW287751  10.433   9.604   8.880
61993SOL     OW87752   0.697   2.402   8.694
61993SOL    HW187753   0.659   2.393   8.606
61993SOL    HW287754   0.623   2.421   8.751
61994SOL     OW87755   1.651   0.552  13.579
61994SOL    HW187756   1.716   0.570  13.647
61994SOL    HW287757   1.672   0.614  13.509
61995SOL     OW87758   7.252   5.784   2.271
61995SOL    HW187759   7.260   5.690   2.288
61995SOL    HW287760   7.320   5.823   2.327
61996SOL     OW87761  13.490  14.296  10.237
61996SOL    HW187762  13.524  14.377  10.198
61996SOL    HW287763  13.557  14.271  10.301
61997SOL     OW87764   8.245  11.201   9.224
61997SOL    HW187765   8.326  11.206   9.274
61997SOL    HW287766   8.178  11.235   9.283
61998SOL     OW87767  12.171   6.425   7.959
61998SOL    HW187768  12.114   6.476   8.016
61998SOL    HW287769  12.230   6.490   7.920
61999SOL     OW87770   2.928   4.265   7.540
61999SOL    HW187771   2.844   4.275   7.495
61999SOL    HW287772   2.954   4.174   7.522
62000SOL     OW87773  12.440   7.641   6.902
62000SOL    HW187774  12.346   7.632   6.883
62000SOL    HW287775  12.453   7.588   6.981
62001SOL     OW87776   3.845  13.412   4.673
62001SOL    HW187777   3.930  13.408   4.629
62001SOL    HW287778   3.821  13.505   4.670
62002SOL     OW87779  12.950  10.513   3.251
62002SOL    HW187780  12.930  10.581   3.316
62002SOL    HW287781  12.866  10.469   3.236
62003SOL     OW87782   0.928  14.468   9.181
62003SOL    HW187783   0.967  14.480   9.268
62003SOL    HW287784   0.834  14.476   9.195
62004SOL     OW87785   9.001   6.995  11.079
62004SOL    HW187786   9.020   6.979  11.171
62004SOL    HW287787   8.912   7.031  11.079
62005SOL     OW87788   8.678   2.062   4.059
62005SOL    HW187789   8.587   2.033   4.053
62005SOL    HW287790   8.713   2.015   4.135
62006SOL     OW87791   6.739   1.991   2.664
62006SOL    HW187792   6.792   1.938   2.724
62006SOL    HW287793   6.684   1.928   2.618
62007SOL     OW87794   7.734  13.396  12.302
62007SOL    HW187795   7.768  13.405  12.213
62007SOL    HW287796   7.640  13.414  12.293
62008SOL     OW87797  13.693   7.961  12.851
62008SOL    HW187798  13.778   7.976  12.892
62008SOL    HW287799  13.701   7.874  12.810
62009SOL     OW87800   8.991   7.495   6.411
62009SOL    HW187801   8.930   7.527   6.477
62009SOL    HW287802   9.036   7.422   6.454
62010SOL     OW87803   5.089  14.495   8.453
62010SOL    HW187804   5.055  14.516   8.366
62010SOL    HW287805   5.024  14.530   8.513
62011SOL     OW87806  12.960   5.241   8.656
62011SOL    HW187807  13.012   5.296   8.596
62011SOL    HW287808  12.932   5.167   8.602
62012SOL     OW87809   0.005   5.548  10.126
62012SOL    HW187810   0.077   5.486  10.136
62012SOL    HW287811   0.040   5.632  10.156
62013SOL     OW87812   7.937  10.950   2.348
62013SOL    HW187813   8.012  10.910   2.393
62013SOL    HW287814   7.868  10.884   2.352
62014SOL     OW87815   8.145   8.587   3.346
62014SOL    HW187816   8.167   8.595   3.439
62014SOL    HW287817   8.219   8.541   3.308
62015SOL     OW87818   6.502   1.865   0.423
62015SOL    HW187819   6.541   1.951   0.408
62015SOL    HW287820   6.562   1.804   0.381
62016SOL     OW87821  11.166   1.876   8.788
62016SOL    HW187822  11.248   1.875   8.738
62016SOL    HW287823  11.099   1.895   8.722
62017SOL     OW87824   7.147  11.903  12.599
62017SOL    HW187825   7.113  11.853  12.673
62017SOL    HW287826   7.155  11.992  12.632
62018SOL     OW87827   5.624   9.179   0.856
62018SOL    HW187828   5.543   9.163   0.904
62018SOL    HW287829   5.666   9.251   0.903
62019SOL     OW87830   3.663   1.512  10.836
62019SOL    HW187831   3.689   1.421  10.844
62019SOL    HW287832   3.651   1.542  10.926
62020SOL     OW87833   8.171   0.960  14.762
62020SOL    HW187834   8.089   0.971  14.713
62020SOL    HW287835   8.226   1.033  14.734
62021SOL     OW87836   5.648   0.515   1.822
62021SOL    HW187837   5.683   0.602   1.802
62021SOL    HW287838   5.686   0.459   1.754
62022SOL     OW87839  12.075   4.685   7.697
62022SOL    HW187840  12.130   4.698   7.620
62022SOL    HW287841  11.989   4.718   7.671
62023SOL     OW87842   9.998   2.531  13.317
62023SOL    HW187843   9.989   2.485  13.400
62023SOL    HW287844  10.050   2.472  13.262
62024SOL     OW87845   8.191   1.255   0.063
62024SOL    HW187846   8.275   1.278   0.102
62024SOL    HW287847   8.131   1.247   0.138
62025SOL     OW87848  12.207   8.098  14.858
62025SOL    HW187849  12.114   8.079  14.844
62025SOL    HW287850  12.225   8.173  14.801
62026SOL     OW87851   0.230  10.777  12.433
62026SOL    HW187852   0.179  10.818  12.503
62026SOL    HW287853   0.165  10.729  12.381
62027SOL     OW87854   8.850   8.412   2.379
62027SOL    HW187855   8.781   8.407   2.445
62027SOL    HW287856   8.808   8.381   2.298
62028SOL     OW87857   9.536   2.507  12.761
62028SOL    HW187858   9.516   2.425  12.807
62028SOL    HW287859   9.527   2.575  12.828
62029SOL     OW87860  11.974  11.417   1.811
62029SOL    HW187861  12.031  11.493   1.798
62029SOL    HW287862  11.958  11.416   1.906
62030SOL     OW87863   5.563   1.161   5.779
62030SOL    HW187864   5.481   1.208   5.798
62030SOL    HW287865   5.631   1.226   5.793
62031SOL     OW87866   0.489   3.961   8.355
62031SOL    HW187867   0.431   3.964   8.280
62031SOL    HW287868   0.437   3.921   8.425
62032SOL     OW87869   3.395   2.958   5.966
62032SOL    HW187870   3.475   2.936   5.917
62032SOL    HW287871   3.325   2.949   5.901
62033SOL     OW87872  11.437   7.664   0.047
62033SOL    HW187873  11.440   7.757   0.067
62033SOL    HW287874  11.452   7.659  14.830
62034SOL     OW87875  14.046  14.520  12.884
62034SOL    HW187876  13.962  14.476  12.882
62034SOL    HW287877  14.082  14.507  12.796
62035SOL     OW87878   4.459   6.087   3.742
62035SOL    HW187879   4.530   6.029   3.772
62035SOL    HW287880   4.473   6.095   3.648
62036SOL     OW87881   6.943   0.867   2.619
62036SOL    HW187882   6.932   0.931   2.548
62036SOL    HW287883   6.855   0.854   2.654
62037SOL     OW87884   3.845   4.013  13.895
62037SOL    HW187885   3.885   3.946  13.839
62037SOL    HW287886   3.783   3.965  13.949
62038SOL     OW87887  12.953   3.158   8.525
62038SOL    HW187888  12.994   3.191   8.605
62038SOL    HW287889  12.916   3.236   8.483
62039SOL     OW87890  14.615  10.122   4.724
62039SOL    HW187891  14.557  10.147   4.796
62039SOL    HW287892  14.684  10.071   4.765
62040SOL     OW87893   4.585   4.355   2.653
62040SOL    HW187894   4.584   4.381   2.745
62040SOL    HW287895   4.613   4.434   2.606
62041SOL     OW87896  13.786   5.944   1.363
62041SOL    HW187897  13.879   5.922   1.366
62041SOL    HW287898  13.760   5.955   1.454
62042SOL     OW87899   1.386   6.434   9.688
62042SOL    HW187900   1.347   6.520   9.672
62042SOL    HW287901   1.475   6.453   9.718
62043SOL     OW87902   2.710   1.725   8.502
62043SOL    HW187903   2.671   1.695   8.584
62043SOL    HW287904   2.760   1.650   8.470
62044SOL     OW87905   0.439   2.825  12.638
62044SOL    HW187906   0.520   2.774  12.635
62044SOL    HW287907   0.372   2.763  12.609
62045SOL     OW87908   3.731  11.509   9.862
62045SOL    HW187909   3.655  11.497   9.805
62045SOL    HW287910   3.784  11.431   9.849
62046SOL     OW87911  13.559   8.359  14.442
62046SOL    HW187912  13.615   8.301  14.389
62046SOL    HW287913  13.558   8.319  14.528
62047SOL     OW87914   6.021   0.837   3.058
62047SOL    HW187915   6.116   0.838   3.064
62047SOL    HW287916   5.998   0.928   3.039
62048SOL     OW87917  14.131   1.716   0.570
62048SOL    HW187918  14.124   1.699   0.664
62048SOL    HW287919  14.135   1.629   0.530
62049SOL     OW87920   8.513   2.724   1.512
62049SOL    HW187921   8.518   2.629   1.501
62049SOL    HW287922   8.481   2.736   1.602
62050SOL     OW87923   3.670  10.324   6.373
62050SOL    HW187924   3.661  10.340   6.467
62050SOL    HW287925   3.765  10.326   6.358
62051SOL     OW87926   0.871   9.966   6.119
62051SOL    HW187927   0.782   9.970   6.083
62051SOL    HW287928   0.917   9.902   6.065
62052SOL     OW87929   3.121   9.990   0.229
62052SOL    HW187930   3.044   9.986   0.286
62052SOL    HW287931   3.167   9.908   0.246
62053SOL     OW87932  10.846   2.037  13.200
62053SOL    HW187933  10.777   2.044  13.265
62053SOL    HW287934  10.821   1.961  13.147
62054SOL     OW87935   9.254   3.733   8.079
62054SOL    HW187936   9.201   3.809   8.056
62054SOL    HW287937   9.239   3.671   8.009
62055SOL     OW87938   6.716  14.827   9.174
62055SOL    HW187939   6.727  14.801   9.266
62055SOL    HW287940   6.640  14.777   9.144
62056SOL     OW87941   0.131   8.728   8.785
62056SOL    HW187942   0.087   8.731   8.700
62056SOL    HW287943   0.137   8.635   8.806
62057SOL     OW87944  11.378   3.589   7.817
62057SOL    HW187945  11.348   3.569   7.728
62057SOL    HW287946  11.301   3.628   7.859
62058SOL     OW87947  13.765   1.667  12.522
62058SOL    HW187948  13.706   1.701  12.454
62058SOL    HW287949  13.760   1.731  12.592
62059SOL     OW87950  11.280   8.024  10.282
62059SOL    HW187951  11.192   8.063  10.275
62059SOL    HW287952  11.305   8.007  10.191
62060SOL     OW87953   6.173   1.556  12.276
62060SOL    HW187954   6.131   1.611  12.210
62060SOL    HW287955   6.128   1.472  12.268
62061SOL     OW87956  10.960   1.627   5.158
62061SOL    HW187957  10.953   1.594   5.248
62061SOL    HW287958  11.025   1.697   5.163
62062SOL     OW87959  11.592   0.452   2.972
62062SOL    HW187960  11.526   0.394   2.935
62062SOL    HW287961  11.552   0.539   2.969
62063SOL     OW87962   3.974   4.550   4.780
62063SOL    HW187963   4.019   4.621   4.825
62063SOL    HW287964   4.038   4.516   4.717
62064SOL     OW87965   8.494  10.083   5.384
62064SOL    HW187966   8.569  10.142   5.393
62064SOL    HW287967   8.453  10.084   5.471
62065SOL     OW87968  13.767   7.659  13.058
62065SOL    HW187969  13.794   7.696  13.142
62065SOL    HW287970  13.678   7.626  13.074
62066SOL     OW87971   6.994   7.230   4.516
62066SOL    HW187972   7.028   7.284   4.588
62066SOL    HW287973   6.932   7.171   4.559
62067SOL     OW87974   2.612   0.905  11.489
62067SOL    HW187975   2.655   0.836  11.539
62067SOL    HW287976   2.558   0.859  11.426
62068SOL     OW87977   0.895  14.641   0.408
62068SOL    HW187978   0.987  14.655   0.430
62068SOL    HW287979   0.896  14.567   0.348
62069SOL     OW87980   6.903   4.024  14.319
62069SOL    HW187981   6.869   4.106  14.284
62069SOL    HW287982   6.949   3.984  14.245
62070SOL     OW87983  14.081   9.666   2.641
62070SOL    HW187984  14.105   9.586   2.594
62070SOL    HW287985  14.035   9.636   2.719
62071SOL     OW87986  14.641  11.876   3.551
62071SOL    HW187987  14.735  11.869   3.533
62071SOL    HW287988  14.608  11.936   3.484
62072SOL     OW87989   5.138   5.968   2.499
62072SOL    HW187990   5.125   5.877   2.526
62072SOL    HW287991   5.198   5.962   2.424
62073SOL     OW87992   9.732   4.533   4.449
62073SOL    HW187993   9.736   4.613   4.501
62073SOL    HW287994   9.640   4.522   4.427
62074SOL     OW87995   4.522  11.276   3.500
62074SOL    HW187996   4.538  11.365   3.469
62074SOL    HW287997   4.565  11.220   3.436
62075SOL     OW87998   4.154   2.399  11.878
62075SOL    HW187999   4.224   2.338  11.853
62075SOL    HW288000   4.179   2.430  11.966
62076SOL     OW88001   8.119   0.451  10.718
62076SOL    HW188002   8.065   0.515  10.672
62076SOL    HW288003   8.119   0.374  10.662
62077SOL     OW88004   7.303  10.375  12.236
62077SOL    HW188005   7.370  10.311  12.261
62077SOL    HW288006   7.351  10.441  12.185
62078SOL     OW88007   1.585  12.315  14.245
62078SOL    HW188008   1.673  12.344  14.220
62078SOL    HW288009   1.556  12.259  14.173
62079SOL     OW88010   4.030  13.969  14.072
62079SOL    HW188011   4.088  13.920  14.015
62079SOL    HW288012   4.071  13.965  14.158
62080SOL     OW88013   8.256   8.882  11.670
62080SOL    HW188014   8.349   8.905  11.669
62080SOL    HW288015   8.250   8.804  11.616
62081SOL     OW88016   4.312   6.447   2.382
62081SOL    HW188017   4.227   6.434   2.422
62081SOL    HW288018   4.301   6.418   2.291
62082SOL     OW88019   0.888   8.714   4.581
62082SOL    HW188020   0.829   8.706   4.656
62082SOL    HW288021   0.886   8.628   4.539
62083SOL     OW88022   8.236   7.629  14.158
62083SOL    HW188023   8.243   7.534  14.163
62083SOL    HW288024   8.157   7.645  14.107
62084SOL     OW88025   5.574   8.359  12.073
62084SOL    HW188026   5.582   8.264  12.081
62084SOL    HW288027   5.506   8.383  12.136
62085SOL     OW88028  10.092  11.748   5.137
62085SOL    HW188029  10.082  11.730   5.231
62085SOL    HW288030  10.167  11.697   5.110
62086SOL     OW88031  14.103  12.059  12.858
62086SOL    HW188032  14.093  11.993  12.927
62086SOL    HW288033  14.197  12.065  12.844
62087SOL     OW88034   6.068   7.524  13.635
62087SOL    HW188035   5.994   7.579  13.612
62087SOL    HW288036   6.071   7.458  13.566
62088SOL     OW88037   8.073  14.570  12.441
62088SOL    HW188038   8.092  14.499  12.381
62088SOL    HW288039   8.159  14.598  12.472
62089SOL     OW88040   7.195  10.944   3.503
62089SOL    HW188041   7.291  10.945   3.499
62089SOL    HW288042   7.168  10.912   3.417
62090SOL     OW88043   8.080   2.856   3.919
62090SOL    HW188044   8.084   2.850   3.824
62090SOL    HW288045   8.162   2.817   3.949
62091SOL     OW88046  14.375  11.549  11.977
62091SOL    HW188047  14.302  11.514  11.926
62091SOL    HW288048  14.341  11.631  12.013
62092SOL     OW88049   8.597   6.242   4.971
62092SOL    HW188050   8.670   6.268   5.027
62092SOL    HW288051   8.583   6.316   4.913
62093SOL     OW88052  12.729   0.708   9.366
62093SOL    HW188053  12.737   0.627   9.317
62093SOL    HW288054  12.806   0.759   9.342
62094SOL     OW88055   5.072   2.363   1.459
62094SOL    HW188056   5.059   2.373   1.553
62094SOL    HW288057   5.093   2.452   1.428
62095SOL     OW88058   2.489  11.058  10.279
62095SOL    HW188059   2.516  10.966  10.286
62095SOL    HW288060   2.439  11.074  10.359
62096SOL     OW88061   8.786   3.082   1.241
62096SOL    HW188062   8.775   3.174   1.216
62096SOL    HW288063   8.724   3.035   1.185
62097SOL     OW88064   4.699   8.432   6.471
62097SOL    HW188065   4.778   8.378   6.467
62097SOL    HW288066   4.654   8.403   6.550
62098SOL     OW88067   1.433   5.882   5.591
62098SOL    HW188068   1.496   5.860   5.659
62098SOL    HW288069   1.418   5.976   5.601
62099SOL     OW88070  10.302   8.723  12.783
62099SOL    HW188071  10.247   8.777  12.726
62099SOL    HW288072  10.376   8.779  12.805
62100SOL     OW88073   9.621   2.779   5.925
62100SOL    HW188074   9.608   2.774   6.019
62100SOL    HW288075   9.716   2.783   5.914
62101SOL     OW88076   6.796  14.006   6.940
62101SOL    HW188077   6.753  14.086   6.910
62101SOL    HW288078   6.830  14.028   7.027
62102SOL     OW88079   9.077  11.166   7.345
62102SOL    HW188080   8.992  11.184   7.304
62102SOL    HW288081   9.141  11.195   7.280
62103SOL     OW88082  14.241  10.239   7.767
62103SOL    HW188083  14.223  10.161   7.818
62103SOL    HW288084  14.301  10.210   7.698
62104SOL     OW88085  14.670   4.365   3.615
62104SOL    HW188086  14.575   4.365   3.607
62104SOL    HW288087  14.702   4.375   3.525
62105SOL     OW88088   3.327   4.089   7.259
62105SOL    HW188089   3.323   4.064   7.167
62105SOL    HW288090   3.239   4.119   7.280
62106SOL     OW88091   0.424  11.587  11.054
62106SOL    HW188092   0.362  11.515  11.042
62106SOL    HW288093   0.498  11.565  10.998
62107SOL     OW88094  10.218  14.542   4.175
62107SOL    HW188095  10.184  14.452   4.171
62107SOL    HW288096  10.301  14.534   4.222
62108SOL     OW88097   2.114   0.675   3.470
62108SOL    HW188098   2.168   0.659   3.392
62108SOL    HW288099   2.159   0.630   3.541
62109SOL     OW88100   2.296   6.087   5.279
62109SOL    HW188101   2.356   6.135   5.336
62109SOL    HW288102   2.209   6.108   5.313
62110SOL     OW88103  10.474   0.933  14.414
62110SOL    HW188104  10.481   0.859  14.353
62110SOL    HW288105  10.556   0.930  14.464
62111SOL     OW88106  14.859   6.431   2.489
62111SOL    HW188107  14.804   6.352   2.493
62111SOL    HW288108   0.052   6.414   2.553
62112SOL     OW88109  13.574   7.746  13.486
62112SOL    HW188110  13.530   7.666  13.457
62112SOL    HW288111  13.636   7.766  13.416
62113SOL     OW88112  10.417   9.681   8.122
62113SOL    HW188113  10.499   9.725   8.146
62113SOL    HW288114  10.391   9.634   8.201
62114SOL     OW88115   5.807   7.113   3.052
62114SOL    HW188116   5.762   7.180   3.000
62114SOL    HW288117   5.765   7.030   3.026
62115SOL     OW88118   9.529   2.949  10.127
62115SOL    HW188119   9.583   2.910  10.058
62115SOL    HW288120   9.591   2.965  10.199
62116SOL     OW88121   3.954  13.685   2.444
62116SOL    HW188122   3.956  13.616   2.377
62116SOL    HW288123   3.941  13.637   2.526
62117SOL     OW88124  11.810   8.820  11.189
62117SOL    HW188125  11.826   8.914  11.175
62117SOL    HW288126  11.895   8.784  11.211
62118SOL     OW88127   0.333   8.657   8.352
62118SOL    HW188128   0.360   8.582   8.405
62118SOL    HW288129   0.406   8.718   8.359
62119SOL     OW88130  11.844  10.697  14.459
62119SOL    HW188131  11.776  10.643  14.417
62119SOL    HW288132  11.855  10.772  14.401
62120SOL     OW88133   6.311   8.712   8.368
62120SOL    HW188134   6.402   8.723   8.342
62120SOL    HW288135   6.270   8.796   8.349
62121SOL     OW88136   6.876  12.875  12.936
62121SOL    HW188137   6.819  12.923  12.996
62121SOL    HW288138   6.819  12.808  12.898
62122SOL     OW88139   8.436  11.783   4.750
62122SOL    HW188140   8.401  11.694   4.744
62122SOL    HW288141   8.480  11.785   4.835
62123SOL     OW88142   7.330   3.651  13.679
62123SOL    HW188143   7.343   3.737  13.640
62123SOL    HW288144   7.261   3.664  13.743
62124SOL     OW88145   1.381   9.428   9.816
62124SOL    HW188146   1.355   9.516   9.843
62124SOL    HW288147   1.304   9.392   9.772
62125SOL     OW88148   9.884   4.934   5.022
62125SOL    HW188149   9.803   4.980   5.002
62125SOL    HW288150   9.951   4.979   4.970
62126SOL     OW88151  10.736  13.566   4.234
62126SOL    HW188152  10.678  13.632   4.197
62126SOL    HW288153  10.743  13.589   4.327
62127SOL     OW88154  11.446  10.931   4.318
62127SOL    HW188155  11.536  10.919   4.350
62127SOL    HW288156  11.412  10.842   4.312
62128SOL     OW88157  12.073   3.872   6.511
62128SOL    HW188158  12.117   3.846   6.430
62128SOL    HW288159  12.002   3.809   6.521
62129SOL     OW88160  12.931   7.029   2.338
62129SOL    HW188161  12.884   6.991   2.412
62129SOL    HW288162  12.950   7.119   2.365
62130SOL     OW88163  13.524  10.779  14.831
62130SOL    HW188164  13.454  10.735   0.001
62130SOL    HW288165  13.535  10.729  14.750
62131SOL     OW88166   1.677  14.325  14.708
62131SOL    HW188167   1.738  14.260  14.675
62131SOL    HW288168   1.666  14.387  14.636
62132SOL     OW88169  10.245  11.263   8.500
62132SOL    HW188170  10.290  11.178   8.506
62132SOL    HW288171  10.306  11.317   8.450
62133SOL     OW88172   0.872   1.718  11.270
62133SOL    HW188173   0.958   1.702  11.311
62133SOL    HW288174   0.888   1.788  11.207
62134SOL     OW88175   3.910   6.030  13.257
62134SOL    HW188176   3.923   6.096  13.325
62134SOL    HW288177   3.870   5.956  13.303
62135SOL     OW88178   4.924   8.936   0.497
62135SOL    HW188179   4.968   8.920   0.580
62135SOL    HW288180   4.961   8.870   0.437
62136SOL     OW88181   4.279   2.944   3.095
62136SOL    HW188182   4.269   2.849   3.094
62136SOL    HW288183   4.191   2.978   3.109
62137SOL     OW88184   7.379   6.525   5.268
62137SOL    HW188185   7.397   6.550   5.177
62137SOL    HW288186   7.284   6.532   5.276
62138SOL     OW88187   1.003   6.583   8.667
62138SOL    HW188188   0.908   6.581   8.678
62138SOL    HW288189   1.034   6.505   8.711
62139SOL     OW88190   4.574   9.532  11.391
62139SOL    HW188191   4.560   9.457  11.449
62139SOL    HW288192   4.636   9.588  11.438
62140SOL     OW88193   1.265   0.111   4.914
62140SOL    HW188194   1.266   0.182   4.850
62140SOL    HW288195   1.314   0.040   4.872
62141SOL     OW88196   7.798   4.717   8.630
62141SOL    HW188197   7.708   4.714   8.598
62141SOL    HW288198   7.851   4.728   8.551
62142SOL     OW88199  14.238   8.480  14.248
62142SOL    HW188200  14.225   8.536  14.324
62142SOL    HW288201  14.327   8.447  14.258
62143SOL     OW88202   7.021   1.790   8.636
62143SOL    HW188203   6.966   1.796   8.714
62143SOL    HW288204   7.035   1.696   8.624
62144SOL     OW88205   7.090   0.378   6.238
62144SOL    HW188206   7.037   0.424   6.304
62144SOL    HW288207   7.029   0.364   6.165
62145SOL     OW88208   2.145   3.044  14.353
62145SOL    HW188209   2.097   2.994  14.420
62145SOL    HW288210   2.077   3.073  14.292
62146SOL     OW88211   8.577  11.654   3.989
62146SOL    HW188212   8.508  11.704   4.031
62146SOL    HW288213   8.651  11.659   4.051
62147SOL     OW88214   7.730   4.216   4.290
62147SOL    HW188215   7.783   4.241   4.366
62147SOL    HW288216   7.688   4.134   4.316
62148SOL     OW88217   7.196  11.378  12.134
62148SOL    HW188218   7.168  11.426  12.212
62148SOL    HW288219   7.251  11.441  12.086
62149SOL     OW88220   4.045  13.606   7.863
62149SOL    HW188221   4.109  13.605   7.933
62149SOL    HW288222   3.978  13.668   7.893
62150SOL     OW88223   6.541   8.790   8.612
62150SOL    HW188224   6.610   8.830   8.559
62150SOL    HW288225   6.470   8.854   8.611
62151SOL     OW88226   4.415   9.540   4.546
62151SOL    HW188227   4.486   9.570   4.603
62151SOL    HW288228   4.460   9.506   4.468
62152SOL     OW88229   2.540   5.897   8.036
62152SOL    HW188230   2.482   5.899   8.112
62152SOL    HW288231   2.580   5.810   8.039
62153SOL     OW88232   8.903  14.794  13.554
62153SOL    HW188233   8.857  14.770  13.473
62153SOL    HW288234   8.867  14.736  13.620
62154SOL     OW88235  12.019   9.572  14.631
62154SOL    HW188236  12.054   9.558  14.719
62154SOL    HW288237  11.935   9.615  14.646
62155SOL     OW88238   6.740  11.390   2.613
62155SOL    HW188239   6.812  11.343   2.571
62155SOL    HW288240   6.718  11.338   2.690
62156SOL     OW88241  13.212   3.737   3.130
62156SOL    HW188242  13.263   3.670   3.084
62156SOL    HW288243  13.195   3.700   3.217
62157SOL     OW88244  12.436   6.566   4.973
62157SOL    HW188245  12.386   6.540   5.050
62157SOL    HW288246  12.492   6.638   5.003
62158SOL     OW88247  10.368   4.738   2.962
62158SOL    HW188248  10.340   4.725   3.053
62158SOL    HW288249  10.434   4.808   2.967
62159SOL     OW88250  10.752   2.136   4.235
62159SOL    HW188251  10.847   2.136   4.224
62159SOL    HW288252  10.726   2.045   4.224
62160SOL     OW88253  10.572  11.759   0.923
62160SOL    HW188254  10.577  11.834   0.863
62160SOL    HW288255  10.491  11.773   0.971
62161SOL     OW88256  13.494   7.750  10.676
62161SOL    HW188257  13.539   7.723  10.756
62161SOL    HW288258  13.421   7.805  10.707
62162SOL     OW88259  11.451   1.606   8.615
62162SOL    HW188260  11.520   1.669   8.640
62162SOL    HW288261  11.484   1.566   8.535
62163SOL     OW88262   8.236  13.660  14.415
62163SOL    HW188263   8.307  13.600  14.391
62163SOL    HW288264   8.259  13.691  14.503
62164SOL     OW88265  11.254   5.752   8.396
62164SOL    HW188266  11.225   5.715   8.313
62164SOL    HW288267  11.272   5.676   8.452
62165SOL     OW88268   2.306  11.560   2.394
62165SOL    HW188269   2.325  11.572   2.301
62165SOL    HW288270   2.259  11.638   2.420
62166SOL     OW88271  13.625  12.852   5.753
62166SOL    HW188272  13.643  12.835   5.660
62166SOL    HW288273  13.556  12.919   5.752
62167SOL     OW88274   1.279   3.180  11.507
62167SOL    HW188275   1.262   3.252  11.568
62167SOL    HW288276   1.194   3.139  11.494
62168SOL     OW88277   6.839   4.277  11.383
62168SOL    HW188278   6.752   4.299  11.350
62168SOL    HW288279   6.895   4.277  11.306
62169SOL     OW88280   2.573  12.383   1.633
62169SOL    HW188281   2.532  12.434   1.562
62169SOL    HW288282   2.666  12.402   1.626
62170SOL     OW88283  14.488   5.700   9.333
62170SOL    HW188284  14.495   5.609   9.303
62170SOL    HW288285  14.529   5.751   9.262
62171SOL     OW88286   8.952   5.104   6.626
62171SOL    HW188287   8.988   5.192   6.631
62171SOL    HW288288   8.859   5.115   6.645
62172SOL     OW88289   4.294  11.819  12.022
62172SOL    HW188290   4.303  11.750  11.956
62172SOL    HW288291   4.208  11.858  12.006
62173SOL     OW88292  14.386  12.679  11.563
62173SOL    HW188293  14.366  12.753  11.505
62173SOL    HW288294  14.424  12.613  11.505
62174SOL     OW88295   8.885   9.366   7.399
62174SOL    HW188296   8.890   9.272   7.387
62174SOL    HW288297   8.962   9.401   7.354
62175SOL     OW88298   7.207  13.804   6.857
62175SOL    HW188299   7.219  13.845   6.943
62175SOL    HW288300   7.130  13.848   6.820
62176SOL     OW88301   9.299   0.865  14.581
62176SOL    HW188302   9.394   0.855  14.592
62176SOL    HW288303   9.272   0.787  14.534
62177SOL     OW88304   1.909  11.938   4.535
62177SOL    HW188305   1.917  12.014   4.593
62177SOL    HW288306   1.938  11.864   4.589
62178SOL     OW88307   7.862   6.486  14.820
62178SOL    HW188308   7.846   6.395  14.849
62178SOL    HW288309   7.849   6.538   0.022
62179SOL     OW88310   0.408   4.313   1.163
62179SOL    HW188311   0.313   4.319   1.165
62179SOL    HW288312   0.435   4.377   1.097
62180SOL     OW88313   4.518  12.276   8.233
62180SOL    HW188314   4.431  12.254   8.265
62180SOL    HW288315   4.534  12.215   8.162
62181SOL     OW88316   1.698   6.014   9.154
62181SOL    HW188317   1.633   5.999   9.222
62181SOL    HW288318   1.705   6.109   9.148
62182SOL     OW88319   2.957  10.823   4.989
62182SOL    HW188320   2.872  10.802   4.952
62182SOL    HW288321   3.013  10.841   4.914
62183SOL     OW88322   2.514   0.943   6.618
62183SOL    HW188323   2.514   0.878   6.547
62183SOL    HW288324   2.551   0.897   6.693
62184SOL     OW88325  13.563   0.283   6.671
62184SOL    HW188326  13.539   0.204   6.624
62184SOL    HW288327  13.480   0.326   6.691
62185SOL     OW88328  11.230   5.427  11.535
62185SOL    HW188329  11.325   5.415  11.530
62185SOL    HW288330  11.205   5.391  11.620
62186SOL     OW88331   2.933   3.398  10.513
62186SOL    HW188332   2.942   3.480  10.464
62186SOL    HW288333   2.863   3.350  10.468
62187SOL     OW88334  13.402   9.734   1.818
62187SOL    HW188335  13.477   9.751   1.875
62187SOL    HW288336  13.441   9.722   1.731
62188SOL     OW88337   5.895   6.521   7.424
62188SOL    HW188338   5.918   6.484   7.510
62188SOL    HW288339   5.887   6.444   7.367
62189SOL     OW88340   6.440   3.208   9.221
62189SOL    HW188341   6.449   3.113   9.216
62189SOL    HW288342   6.448   3.238   9.130
62190SOL     OW88343   7.947  14.009  10.363
62190SOL    HW188344   7.987  14.095  10.348
62190SOL    HW288345   8.021  13.949  10.363
62191SOL     OW88346   5.024   0.577   2.347
62191SOL    HW188347   4.951   0.517   2.330
62191SOL    HW288348   5.102   0.528   2.321
62192SOL     OW88349   4.743   6.667   7.630
62192SOL    HW188350   4.781   6.664   7.542
62192SOL    HW288351   4.651   6.647   7.617
62193SOL     OW88352   6.668   3.835   4.671
62193SOL    HW188353   6.669   3.909   4.610
62193SOL    HW288354   6.708   3.763   4.623
62194SOL     OW88355   4.813   1.837   1.667
62194SOL    HW188356   4.836   1.747   1.646
62194SOL    HW288357   4.895   1.886   1.656
62195SOL     OW88358   6.649   5.721  12.757
62195SOL    HW188359   6.697   5.640  12.773
62195SOL    HW288360   6.579   5.721  12.823
62196SOL     OW88361   2.991  13.535  13.808
62196SOL    HW188362   2.970  13.446  13.836
62196SOL    HW288363   3.048  13.523  13.732
62197SOL     OW88364   9.227  11.271   7.795
62197SOL    HW188365   9.192  11.185   7.769
62197SOL    HW288366   9.283  11.297   7.722
62198SOL     OW88367   6.492   8.330   3.603
62198SOL    HW188368   6.513   8.238   3.587
62198SOL    HW288369   6.439   8.356   3.528
62199SOL     OW88370  10.367  11.947   4.707
62199SOL    HW188371  10.300  11.987   4.653
62199SOL    HW288372  10.446  11.948   4.652
62200SOL     OW88373  13.841   8.482   8.059
62200SOL    HW188374  13.904   8.476   7.987
62200SOL    HW288375  13.887   8.529   8.128
62201SOL     OW88376  12.937   2.294   4.576
62201SOL    HW188377  12.880   2.354   4.623
62201SOL    HW288378  12.893   2.209   4.583
62202SOL     OW88379   6.685   0.590   2.339
62202SOL    HW188380   6.717   0.582   2.428
62202SOL    HW288381   6.591   0.605   2.348
62203SOL     OW88382  13.338   4.857  10.413
62203SOL    HW188383  13.289   4.825  10.489
62203SOL    HW288384  13.319   4.951  10.409
62204SOL     OW88385   8.819   1.593   9.009
62204SOL    HW188386   8.784   1.678   8.984
62204SOL    HW288387   8.910   1.610   9.032
62205SOL     OW88388  12.423   8.992   4.605
62205SOL    HW188389  12.402   8.969   4.696
62205SOL    HW288390  12.342   8.975   4.556
62206SOL     OW88391   1.009   6.850   8.279
62206SOL    HW188392   1.062   6.807   8.347
62206SOL    HW288393   0.977   6.777   8.226
62207SOL     OW88394  12.043  13.755   2.425
62207SOL    HW188395  12.087  13.670   2.437
62207SOL    HW288396  11.985  13.762   2.500
62208SOL     OW88397   5.867   9.228   4.696
62208SOL    HW188398   5.856   9.318   4.668
62208SOL    HW288399   5.935   9.192   4.639
62209SOL     OW88400   8.885  10.144   8.997
62209SOL    HW188401   8.792  10.156   8.980
62209SOL    HW288402   8.893  10.053   9.023
62210SOL     OW88403   2.861   6.549   1.396
62210SOL    HW188404   2.765   6.550   1.398
62210SOL    HW288405   2.887   6.631   1.439
62211SOL     OW88406   9.943   9.170   5.741
62211SOL    HW188407  10.023   9.194   5.787
62211SOL    HW288408   9.944   9.223   5.662
62212SOL     OW88409   9.850   7.620   4.562
62212SOL    HW188410   9.931   7.569   4.570
62212SOL    HW288411   9.859   7.666   4.479
62213SOL     OW88412  12.228  10.152  13.851
62213SOL    HW188413  12.240  10.210  13.776
62213SOL    HW288414  12.266  10.200  13.925
62214SOL     OW88415  12.620   4.773   7.633
62214SOL    HW188416  12.587   4.759   7.721
62214SOL    HW288417  12.542   4.788   7.579
62215SOL     OW88418   4.644   9.811  12.960
62215SOL    HW188419   4.603   9.852  13.037
62215SOL    HW288420   4.572   9.802  12.897
62216SOL     OW88421   6.065   2.420  14.374
62216SOL    HW188422   6.159   2.434  14.366
62216SOL    HW288423   6.038   2.474  14.448
62217SOL     OW88424   5.912   0.177   8.883
62217SOL    HW188425   5.873   0.257   8.918
62217SOL    HW288426   5.974   0.207   8.817
62218SOL     OW88427   4.443  13.234  14.122
62218SOL    HW188428   4.505  13.306  14.113
62218SOL    HW288429   4.475  13.166  14.062
62219SOL     OW88430   6.830  11.952  11.067
62219SOL    HW188431   6.811  11.945  10.974
62219SOL    HW288432   6.925  11.961  11.072
62220SOL     OW88433   1.172  10.430  13.600
62220SOL    HW188434   1.113  10.411  13.527
62220SOL    HW288435   1.196  10.343  13.633
62221SOL     OW88436   8.035  10.741  12.792
62221SOL    HW188437   7.956  10.690  12.779
62221SOL    HW288438   8.013  10.829  12.761
62222SOL     OW88439  12.920  11.731   0.163
62222SOL    HW188440  13.009  11.717   0.194
62222SOL    HW288441  12.909  11.667   0.092
62223SOL     OW88442   1.044  11.117   7.392
62223SOL    HW188443   1.049  11.091   7.300
62223SOL    HW288444   1.130  11.154   7.412
62224SOL     OW88445   1.816   1.325  12.395
62224SOL    HW188446   1.722   1.309  12.391
62224SOL    HW288447   1.851   1.252  12.447
62225SOL     OW88448  13.595  11.440  10.710
62225SOL    HW188449  13.598  11.535  10.700
62225SOL    HW288450  13.623  11.425  10.801
62226SOL     OW88451   0.616   4.104   6.015
62226SOL    HW188452   0.542   4.058   5.975
62226SOL    HW288453   0.637   4.053   6.093
62227SOL     OW88454   1.894   9.672   5.495
62227SOL    HW188455   1.958   9.667   5.566
62227SOL    HW288456   1.810   9.684   5.539
62228SOL     OW88457   3.899   7.247   0.049
62228SOL    HW188458   3.977   7.222  14.875
62228SOL    HW288459   3.934   7.296   0.123
62229SOL     OW88460   7.114   1.322   8.453
62229SOL    HW188461   7.199   1.338   8.411
62229SOL    HW288462   7.123   1.237   8.496
62230SOL     OW88463   6.889   1.791   7.381
62230SOL    HW188464   6.926   1.863   7.433
62230SOL    HW288465   6.913   1.812   7.291
62231SOL     OW88466   9.244  12.029   4.709
62231SOL    HW188467   9.319  12.033   4.649
62231SOL    HW288468   9.282  12.040   4.796
62232SOL     OW88469  12.088   5.164   2.855
62232SOL    HW188470  12.042   5.125   2.930
62232SOL    HW288471  12.025   5.160   2.783
62233SOL     OW88472  12.314  11.446   6.209
62233SOL    HW188473  12.363  11.528   6.199
62233SOL    HW288474  12.280  11.428   6.121
62234SOL     OW88475   9.568   1.583   9.517
62234SOL    HW188476   9.615   1.512   9.474
62234SOL    HW288477   9.479   1.550   9.526
62235SOL     OW88478   4.072   8.436   3.464
62235SOL    HW188479   4.014   8.385   3.407
62235SOL    HW288480   4.028   8.521   3.473
62236SOL     OW88481  11.137   9.262   7.180
62236SOL    HW188482  11.071   9.200   7.149
62236SOL    HW288483  11.122   9.267   7.275
62237SOL     OW88484  14.217  13.336   5.492
62237SOL    HW188485  14.132  13.365   5.459
62237SOL    HW288486  14.199  13.306   5.581
62238SOL     OW88487   0.227   3.027  10.665
62238SOL    HW188488   0.304   3.039  10.610
62238SOL    HW288489   0.221   2.932  10.677
62239SOL     OW88490  11.516   8.776   3.650
62239SOL    HW188491  11.560   8.819   3.577
62239SOL    HW288492  11.513   8.844   3.718
62240SOL     OW88493   9.726  13.312   9.321
62240SOL    HW188494   9.639  13.310   9.281
62240SOL    HW288495   9.716  13.260   9.401
62241SOL     OW88496  13.479  13.596   0.546
62241SOL    HW188497  13.567  13.621   0.572
62241SOL    HW288498  13.478  13.606   0.451
62242SOL     OW88499   6.762   7.233  11.090
62242SOL    HW188500   6.758   7.318  11.133
62242SOL    HW288501   6.709   7.175  11.145
62243SOL     OW88502   9.081   6.954   2.875
62243SOL    HW188503   9.021   6.963   2.801
62243SOL    HW288504   9.157   6.909   2.840
62244SOL     OW88505  11.482  13.740  11.868
62244SOL    HW188506  11.573  13.766  11.881
62244SOL    HW288507  11.478  13.650  11.902
62245SOL     OW88508   1.770  12.280  12.352
62245SOL    HW188509   1.816  12.213  12.302
62245SOL    HW288510   1.686  12.239  12.375
62246SOL     OW88511   1.983   9.584   8.156
62246SOL    HW188512   2.031   9.639   8.093
62246SOL    HW288513   1.944   9.647   8.217
62247SOL     OW88514   0.789   9.129  10.342
62247SOL    HW188515   0.736   9.205  10.365
62247SOL    HW288516   0.860   9.165  10.288
62248SOL     OW88517   7.594   1.961   1.156
62248SOL    HW188518   7.555   1.876   1.175
62248SOL    HW288519   7.607   1.961   1.061
62249SOL     OW88520   3.684  10.903  12.195
62249SOL    HW188521   3.593  10.909  12.223
62249SOL    HW288522   3.681  10.859  12.110
62250SOL     OW88523   7.064  12.825   5.442
62250SOL    HW188524   6.975  12.829   5.408
62250SOL    HW288525   7.114  12.783   5.372
62251SOL     OW88526   2.732   7.534   7.769
62251SOL    HW188527   2.737   7.605   7.833
62251SOL    HW288528   2.788   7.465   7.806
62252SOL     OW88529  10.939   5.127   9.856
62252SOL    HW188530  10.877   5.114   9.928
62252SOL    HW288531  10.957   5.221   9.856
62253SOL     OW88532  11.118   3.335   7.000
62253SOL    HW188533  11.044   3.396   7.005
62253SOL    HW288534  11.110   3.295   6.913
62254SOL     OW88535  13.064   4.166  11.421
62254SOL    HW188536  13.084   4.092  11.363
62254SOL    HW288537  12.969   4.161  11.433
62255SOL     OW88538  13.888   2.757   2.496
62255SOL    HW188539  13.808   2.712   2.471
62255SOL    HW288540  13.952   2.734   2.428
62256SOL     OW88541   6.587   7.084   2.479
62256SOL    HW188542   6.623   7.152   2.535
62256SOL    HW288543   6.616   7.107   2.391
62257SOL     OW88544  12.548   0.929  12.030
62257SOL    HW188545  12.620   0.867  12.040
62257SOL    HW288546  12.498   0.922  12.112
62258SOL     OW88547   2.431  11.435  11.836
62258SOL    HW188548   2.428  11.504  11.769
62258SOL    HW288549   2.397  11.358  11.790
62259SOL     OW88550   3.110  10.228   0.388
62259SOL    HW188551   3.139  10.163   0.323
62259SOL    HW288552   3.116  10.312   0.342
62260SOL     OW88553   5.336   4.230   1.157
62260SOL    HW188554   5.412   4.224   1.216
62260SOL    HW288555   5.284   4.301   1.193
62261SOL     OW88556   2.572  11.508   9.910
62261SOL    HW188557   2.594  11.500   9.817
62261SOL    HW288558   2.633  11.574   9.943
62262SOL     OW88559  14.456   1.530  14.215
62262SOL    HW188560  14.395   1.487  14.155
62262SOL    HW288561  14.543   1.507  14.183
62263SOL     OW88562   6.154   5.648   9.584
62263SOL    HW188563   6.122   5.738   9.593
62263SOL    HW288564   6.086   5.603   9.533
62264SOL     OW88565   9.610   1.079   1.006
62264SOL    HW188566   9.682   1.021   1.031
62264SOL    HW288567   9.531   1.025   1.014
62265SOL     OW88568   8.767   6.680  10.496
62265SOL    HW188569   8.699   6.656  10.559
62265SOL    HW288570   8.727   6.750  10.444
62266SOL     OW88571   6.367   8.730   2.380
62266SOL    HW188572   6.369   8.640   2.348
62266SOL    HW288573   6.421   8.729   2.458
62267SOL     OW88574   8.922  13.611   6.473
62267SOL    HW188575   8.960  13.673   6.536
62267SOL    HW288576   8.932  13.525   6.515
62268SOL     OW88577  14.281   9.096   5.369
62268SOL    HW188578  14.218   9.169   5.368
62268SOL    HW288579  14.265   9.052   5.453
62269SOL     OW88580  12.594   7.734   0.554
62269SOL    HW188581  12.600   7.643   0.584
62269SOL    HW288582  12.613   7.786   0.631
62270SOL     OW88583  13.944   2.946   7.598
62270SOL    HW188584  13.926   3.017   7.536
62270SOL    HW288585  13.861   2.929   7.642
62271SOL     OW88586  12.387   1.814  10.757
62271SOL    HW188587  12.452   1.882  10.741
62271SOL    HW288588  12.346   1.839  10.840
62272SOL     OW88589   3.910  10.122   5.693
62272SOL    HW188590   4.002  10.117   5.720
62272SOL    HW288591   3.908  10.189   5.625
62273SOL     OW88592  14.113   7.393   8.835
62273SOL    HW188593  14.099   7.468   8.778
62273SOL    HW288594  14.207   7.377   8.831
62274SOL     OW88595   6.151   7.640   7.307
62274SOL    HW188596   6.057   7.640   7.329
62274SOL    HW288597   6.160   7.706   7.239
62275SOL     OW88598   9.091  11.607   3.108
62275SOL    HW188599   9.186  11.618   3.099
62275SOL    HW288600   9.056  11.645   3.027
62276SOL     OW88601  12.927  13.794  13.473
62276SOL    HW188602  12.855  13.846  13.439
62276SOL    HW288603  12.958  13.844  13.549
62277SOL     OW88604   7.158   9.178   7.511
62277SOL    HW188605   7.251   9.173   7.488
62277SOL    HW288606   7.114   9.135   7.438
62278SOL     OW88607   1.886   6.757   3.778
62278SOL    HW188608   1.934   6.767   3.696
62278SOL    HW288609   1.949   6.717   3.838
62279SOL     OW88610  13.462   8.215   7.863
62279SOL    HW188611  13.552   8.208   7.897
62279SOL    HW288612  13.446   8.131   7.821
62280SOL     OW88613   9.815  11.790   5.541
62280SOL    HW188614   9.880  11.756   5.602
62280SOL    HW288615   9.731  11.766   5.579
62281SOL     OW88616  11.026  11.111  12.568
62281SOL    HW188617  10.998  11.079  12.482
62281SOL    HW288618  11.072  11.037  12.607
62282SOL     OW88619   6.733   9.299  11.339
62282SOL    HW188620   6.800   9.279  11.274
62282SOL    HW288621   6.771   9.270  11.422
62283SOL     OW88622  10.779   3.184   9.041
62283SOL    HW188623  10.823   3.193   8.956
62283SOL    HW288624  10.798   3.095   9.069
62284SOL     OW88625   3.588   3.547  10.628
62284SOL    HW188626   3.676   3.584  10.637
62284SOL    HW288627   3.537   3.588  10.697
62285SOL     OW88628   1.532   5.058   4.952
62285SOL    HW188629   1.552   5.151   4.942
62285SOL    HW288630   1.505   5.049   5.044
62286SOL     OW88631  10.916   5.238   5.465
62286SOL    HW188632  10.986   5.189   5.420
62286SOL    HW288633  10.934   5.329   5.444
62287SOL     OW88634   8.488   0.282  11.433
62287SOL    HW188635   8.456   0.213  11.375
62287SOL    HW288636   8.495   0.359  11.376
62288SOL     OW88637  12.703  14.193   5.762
62288SOL    HW188638  12.626  14.242   5.791
62288SOL    HW288639  12.681  14.101   5.778
62289SOL     OW88640   3.669   1.241   1.960
62289SOL    HW188641   3.692   1.153   1.989
62289SOL    HW288642   3.620   1.227   1.879
62290SOL     OW88643   3.874   3.907   3.316
62290SOL    HW188644   3.960   3.914   3.357
62290SOL    HW288645   3.813   3.897   3.389
62291SOL     OW88646   6.080   3.070  13.284
62291SOL    HW188647   6.149   3.052  13.348
62291SOL    HW288648   6.078   3.165  13.277
62292SOL     OW88649  13.577  14.090   0.492
62292SOL    HW188650  13.599  14.023   0.556
62292SOL    HW288651  13.646  14.156   0.502
62293SOL     OW88652   2.946  13.941   0.176
62293SOL    HW188653   2.913  13.855   0.150
62293SOL    HW288654   2.873  14.001   0.160
62294SOL     OW88655   0.998   9.369   5.422
62294SOL    HW188656   0.946   9.346   5.345
62294SOL    HW288657   0.958   9.320   5.494
62295SOL     OW88658  14.157   3.430   1.868
62295SOL    HW188659  14.132   3.522   1.877
62295SOL    HW288660  14.244   3.424   1.908
62296SOL     OW88661   2.257  10.675  12.695
62296SOL    HW188662   2.284  10.742  12.757
62296SOL    HW288663   2.207  10.722  12.628
62297SOL     OW88664   7.094   6.981   9.118
62297SOL    HW188665   7.159   6.911   9.124
62297SOL    HW288666   7.071   6.984   9.025
62298SOL     OW88667   3.869   7.918   8.339
62298SOL    HW188668   3.919   7.997   8.319
62298SOL    HW288669   3.927   7.866   8.395
62299SOL     OW88670   4.151   3.770  11.144
62299SOL    HW188671   4.211   3.834  11.104
62299SOL    HW288672   4.207   3.699  11.174
62300SOL     OW88673   6.488  12.298   8.862
62300SOL    HW188674   6.515  12.215   8.902
62300SOL    HW288675   6.563  12.356   8.875
62301SOL     OW88676   1.126  14.152   2.583
62301SOL    HW188677   1.186  14.081   2.561
62301SOL    HW288678   1.172  14.231   2.556
62302SOL     OW88679  14.031  11.806   2.744
62302SOL    HW188680  13.967  11.738   2.763
62302SOL    HW288681  14.014  11.830   2.653
62303SOL     OW88682   1.620  13.070   2.481
62303SOL    HW188683   1.701  13.120   2.484
62303SOL    HW288684   1.604  13.055   2.388
62304SOL     OW88685   4.043  13.574  13.656
62304SOL    HW188686   4.028  13.615  13.742
62304SOL    HW288687   3.963  13.594  13.607
62305SOL     OW88688   6.623   4.710  14.744
62305SOL    HW188689   6.538   4.743  14.716
62305SOL    HW288690   6.602   4.634  14.799
62306SOL     OW88691   8.450  11.051  11.887
62306SOL    HW188692   8.359  11.034  11.864
62306SOL    HW288693   8.449  11.136  11.931
62307SOL     OW88694   7.844  14.802   2.701
62307SOL    HW188695   7.832  14.707   2.708
62307SOL    HW288696   7.900  14.813   2.625
62308SOL     OW88697   3.028   6.225   1.184
62308SOL    HW188698   3.047   6.131   1.181
62308SOL    HW288699   2.975   6.241   1.105
62309SOL     OW88700   6.452   7.817   0.939
62309SOL    HW188701   6.500   7.779   0.865
62309SOL    HW288702   6.420   7.742   0.988
62310SOL     OW88703   1.838  11.961   4.261
62310SOL    HW188704   1.869  11.871   4.255
62310SOL    HW288705   1.864  11.989   4.349
62311SOL     OW88706   5.378   7.269   3.812
62311SOL    HW188707   5.409   7.301   3.727
62311SOL    HW288708   5.291   7.306   3.822
62312SOL     OW88709   7.166  14.757  10.435
62312SOL    HW188710   7.245  14.768  10.487
62312SOL    HW288711   7.155  14.841  10.389
62313SOL     OW88712   7.367   9.536   7.840
62313SOL    HW188713   7.350   9.455   7.791
62313SOL    HW288714   7.425   9.509   7.911
62314SOL     OW88715   1.746   5.722   1.248
62314SOL    HW188716   1.719   5.721   1.156
62314SOL    HW288717   1.719   5.637   1.282
62315SOL     OW88718  12.012   0.683   5.707
62315SOL    HW188719  11.941   0.739   5.672
62315SOL    HW288720  11.990   0.672   5.799
62316SOL     OW88721   5.799   3.768   2.451
62316SOL    HW188722   5.881   3.780   2.500
62316SOL    HW288723   5.747   3.710   2.505
62317SOL     OW88724  13.416   8.100   9.814
62317SOL    HW188725  13.489   8.161   9.825
62317SOL    HW288726  13.381   8.121   9.727
62318SOL     OW88727   5.935   9.708   4.007
62318SOL    HW188728   5.876   9.781   3.990
62318SOL    HW288729   6.011   9.749   4.048
62319SOL     OW88730   2.899   9.267   9.628
62319SOL    HW188731   2.938   9.271   9.715
62319SOL    HW288732   2.853   9.183   9.626
62320SOL     OW88733   1.298   8.859   6.465
62320SOL    HW188734   1.353   8.901   6.531
62320SOL    HW288735   1.326   8.768   6.465
62321SOL     OW88736   0.863   9.250  14.411
62321SOL    HW188737   0.842   9.334  14.370
62321SOL    HW288738   0.785   9.227  14.461
62322SOL     OW88739   4.624   6.775   6.827
62322SOL    HW188740   4.593   6.828   6.901
62322SOL    HW288741   4.657   6.839   6.764
62323SOL     OW88742   0.955   3.826   6.398
62323SOL    HW188743   0.882   3.779   6.358
62323SOL    HW288744   1.020   3.833   6.327
62324SOL     OW88745  11.220   2.413  10.849
62324SOL    HW188746  11.286   2.433  10.915
62324SOL    HW288747  11.256   2.450  10.768
62325SOL     OW88748  13.880  10.270   9.891
62325SOL    HW188749  13.915  10.351   9.927
62325SOL    HW288750  13.888  10.206   9.961
62326SOL     OW88751   9.850   8.590  13.122
62326SOL    HW188752   9.904   8.667  13.108
62326SOL    HW288753   9.760   8.623  13.127
62327SOL     OW88754   0.759  12.852   4.707
62327SOL    HW188755   0.691  12.901   4.662
62327SOL    HW288756   0.840  12.898   4.686
62328SOL     OW88757  12.069   0.447   5.596
62328SOL    HW188758  11.981   0.411   5.603
62328SOL    HW288759  12.066   0.528   5.647
62329SOL     OW88760   2.368   6.785   9.224
62329SOL    HW188761   2.339   6.876   9.218
62329SOL    HW288762   2.464   6.791   9.230
62330SOL     OW88763   7.902   0.628  14.506
62330SOL    HW188764   7.913   0.607  14.598
62330SOL    HW288765   7.988   0.662  14.479
62331SOL     OW88766   5.251   6.743   5.386
62331SOL    HW188767   5.274   6.650   5.374
62331SOL    HW288768   5.195   6.763   5.311
62332SOL     OW88769  14.424   3.489   9.136
62332SOL    HW188770  14.446   3.397   9.118
62332SOL    HW288771  14.474   3.538   9.071
62333SOL     OW88772  14.041   0.374   5.656
62333SOL    HW188773  14.077   0.436   5.719
62333SOL    HW288774  14.116   0.322   5.628
62334SOL     OW88775  11.044  10.799   7.303
62334SOL    HW188776  11.105  10.725   7.292
62334SOL    HW288777  11.079  10.847   7.378
62335SOL     OW88778   0.891  14.487  14.005
62335SOL    HW188779   0.899  14.430  14.081
62335SOL    HW288780   0.960  14.553  14.017
62336SOL     OW88781  14.119  14.304   4.559
62336SOL    HW188782  14.171  14.379   4.588
62336SOL    HW288783  14.148  14.287   4.470
62337SOL     OW88784  12.959   9.535  11.682
62337SOL    HW188785  13.006   9.595  11.740
62337SOL    HW288786  12.939   9.460  11.738
62338SOL     OW88787   5.144   3.224   1.725
62338SOL    HW188788   5.164   3.194   1.814
62338SOL    HW288789   5.085   3.158   1.690
62339SOL     OW88790   3.517  10.506   6.883
62339SOL    HW188791   3.440  10.562   6.880
62339SOL    HW288792   3.542  10.503   6.975
62340SOL     OW88793   8.352   1.912   9.442
62340SOL    HW188794   8.331   1.898   9.350
62340SOL    HW288795   8.268   1.909   9.487
62341SOL     OW88796  14.388   0.143   2.517
62341SOL    HW188797  14.431   0.123   2.435
62341SOL    HW288798  14.418   0.076   2.578
62342SOL     OW88799  12.187   2.764  13.791
62342SOL    HW188800  12.094   2.770  13.767
62342SOL    HW288801  12.187   2.713  13.872
62343SOL     OW88802  11.251   8.800   3.936
62343SOL    HW188803  11.200   8.752   3.871
62343SOL    HW288804  11.291   8.872   3.886
62344SOL     OW88805   4.030   4.502  10.197
62344SOL    HW188806   4.028   4.561  10.122
62344SOL    HW288807   4.112   4.522  10.242
62345SOL     OW88808   3.191  14.722   8.553
62345SOL    HW188809   3.242  14.673   8.618
62345SOL    HW288810   3.104  14.732   8.593
62346SOL     OW88811   3.765   6.971  14.722
62346SOL    HW188812   3.804   6.943  14.805
62346SOL    HW288813   3.837   6.970  14.659
62347SOL     OW88814  14.440   8.605  10.438
62347SOL    HW188815  14.523   8.578  10.477
62347SOL    HW288816  14.433   8.698  10.458
62348SOL     OW88817  13.290   3.127   3.092
62348SOL    HW188818  13.291   3.103   2.999
62348SOL    HW288819  13.368   3.086   3.129
62349SOL     OW88820  14.574   4.834   1.253
62349SOL    HW188821  14.604   4.756   1.301
62349SOL    HW288822  14.491   4.857   1.294
62350SOL     OW88823  14.542   3.948   6.860
62350SOL    HW188824  14.490   3.883   6.813
62350SOL    HW288825  14.628   3.908   6.870
62351SOL     OW88826   9.707  13.803  12.401
62351SOL    HW188827   9.757  13.882  12.420
62351SOL    HW288828   9.697  13.759  12.486
62352SOL     OW88829   6.357  12.571   3.559
62352SOL    HW188830   6.291  12.616   3.613
62352SOL    HW288831   6.425  12.545   3.621
62353SOL     OW88832   4.523  13.938   2.437
62353SOL    HW188833   4.564  13.855   2.459
62353SOL    HW288834   4.577  13.973   2.366
62354SOL     OW88835   3.672   5.953  10.042
62354SOL    HW188836   3.707   5.925   9.957
62354SOL    HW288837   3.626   5.876  10.076
62355SOL     OW88838   1.062   3.467  14.828
62355SOL    HW188839   1.005   3.494   0.023
62355SOL    HW288840   1.150   3.467  14.865
62356SOL     OW88841  13.695   0.158  11.877
62356SOL    HW188842  13.650   0.220  11.820
62356SOL    HW288843  13.786   0.162  11.848
62357SOL     OW88844   3.679   0.215   1.501
62357SOL    HW188845   3.658   0.216   1.595
62357SOL    HW288846   3.774   0.203   1.498
62358SOL     OW88847  14.828   3.543  12.213
62358SOL    HW188848   0.019   3.560  12.278
62358SOL    HW288849  14.747   3.568  12.257
62359SOL     OW88850  12.204   1.613   4.568
62359SOL    HW188851  12.200   1.572   4.655
62359SOL    HW288852  12.115   1.641   4.550
62360SOL     OW88853  10.229   8.917   8.180
62360SOL    HW188854  10.230   8.849   8.247
62360SOL    HW288855  10.217   8.998   8.228
62361SOL     OW88856   8.338   8.987   7.510
62361SOL    HW188857   8.282   8.939   7.449
62361SOL    HW288858   8.298   8.972   7.596
62362SOL     OW88859  10.328   5.517  10.506
62362SOL    HW188860  10.260   5.563  10.554
62362SOL    HW288861  10.410   5.551  10.542
62363SOL     OW88862   5.428  12.340   1.031
62363SOL    HW188863   5.478  12.400   1.087
62363SOL    HW288864   5.416  12.388   0.949
62364SOL     OW88865   1.247  10.273  12.984
62364SOL    HW188866   1.222  10.353  12.938
62364SOL    HW288867   1.321  10.299  13.039
62365SOL     OW88868  11.656   3.409  10.725
62365SOL    HW188869  11.623   3.328  10.765
62365SOL    HW288870  11.583   3.443  10.675
62366SOL     OW88871  13.631   2.019   9.313
62366SOL    HW188872  13.695   2.072   9.265
62366SOL    HW288873  13.684   1.961   9.368
62367SOL     OW88874   5.236   0.653   0.030
62367SOL    HW188875   5.220   0.628   0.121
62367SOL    HW288876   5.302   0.722   0.035
62368SOL     OW88877  13.868   0.304   3.967
62368SOL    HW188878  13.835   0.376   4.021
62368SOL    HW288879  13.932   0.260   4.023
62369SOL     OW88880   5.340   6.904   7.645
62369SOL    HW188881   5.291   6.904   7.563
62369SOL    HW288882   5.315   6.822   7.688
62370SOL     OW88883   1.143   4.730   1.364
62370SOL    HW188884   1.152   4.658   1.302
62370SOL    HW288885   1.218   4.719   1.423
62371SOL     OW88886   3.608   9.140   4.702
62371SOL    HW188887   3.630   9.202   4.772
62371SOL    HW288888   3.690   9.129   4.653
62372SOL     OW88889   4.582   6.755  10.179
62372SOL    HW188890   4.610   6.672  10.140
62372SOL    HW288891   4.660   6.790  10.220
62373SOL     OW88892   7.545  14.134   1.563
62373SOL    HW188893   7.497  14.063   1.519
62373SOL    HW288894   7.486  14.209   1.561
62374SOL     OW88895   1.993  14.649  14.557
62374SOL    HW188896   2.085  14.667  14.535
62374SOL    HW288897   1.983  14.682  14.646
62375SOL     OW88898  10.209  11.380   3.297
62375SOL    HW188899  10.283  11.401   3.240
62375SOL    HW288900  10.135  11.427   3.257
62376SOL     OW88901  11.948   8.480   4.424
62376SOL    HW188902  12.043   8.494   4.423
62376SOL    HW288903  11.922   8.505   4.513
62377SOL     OW88904  10.011   6.961   3.190
62377SOL    HW188905  10.098   6.994   3.165
62377SOL    HW288906   9.963   7.039   3.217
62378SOL     OW88907  14.511   1.109   8.561
62378SOL    HW188908  14.505   1.068   8.647
62378SOL    HW288909  14.596   1.152   8.561
62379SOL     OW88910  13.850  10.292  11.246
62379SOL    HW188911  13.816  10.246  11.323
62379SOL    HW288912  13.819  10.382  11.255
62380SOL     OW88913   8.740   1.106  10.636
62380SOL    HW188914   8.656   1.081  10.675
62380SOL    HW288915   8.784   1.156  10.705
62381SOL     OW88916   4.662  11.841   0.455
62381SOL    HW188917   4.571  11.832   0.428
62381SOL    HW288918   4.706  11.880   0.379
62382SOL     OW88919  10.989  11.818   3.662
62382SOL    HW188920  10.938  11.806   3.582
62382SOL    HW288921  11.067  11.865   3.634
62383SOL     OW88922   3.215   9.895   7.698
62383SOL    HW188923   3.165   9.898   7.780
62383SOL    HW288924   3.221   9.986   7.671
62384SOL     OW88925  13.545   1.956   0.977
62384SOL    HW188926  13.625   1.907   0.999
62384SOL    HW288927  13.570   2.008   0.901
62385SOL     OW88928   2.858   9.073   0.863
62385SOL    HW188929   2.767   9.098   0.880
62385SOL    HW288930   2.885   9.026   0.942
62386SOL     OW88931   0.176   3.810   0.819
62386SOL    HW188932   0.180   3.818   0.723
62386SOL    HW288933   0.089   3.774   0.836
62387SOL     OW88934   6.378  14.668   9.986
62387SOL    HW188935   6.285  14.658   9.964
62387SOL    HW288936   6.416  14.583   9.965
62388SOL     OW88937   4.484  10.414  13.622
62388SOL    HW188938   4.447  10.462  13.547
62388SOL    HW288939   4.465  10.469  13.697
62389SOL     OW88940   3.817  13.994  10.713
62389SOL    HW188941   3.765  14.043  10.649
62389SOL    HW288942   3.888  14.053  10.738
62390SOL     OW88943  12.033  11.022  14.558
62390SOL    HW188944  12.115  11.046  14.602
62390SOL    HW288945  12.060  10.989  14.473
62391SOL     OW88946   7.629   3.379   6.979
62391SOL    HW188947   7.581   3.461   6.981
62391SOL    HW288948   7.709   3.399   6.930
62392SOL     OW88949  12.115  14.719   2.939
62392SOL    HW188950  12.055  14.759   3.002
62392SOL    HW288951  12.136  14.634   2.978
62393SOL     OW88952   2.093  13.667   0.676
62393SOL    HW188953   2.166  13.722   0.706
62393SOL    HW288954   2.069  13.703   0.591
62394SOL     OW88955   7.198   4.774   0.304
62394SOL    HW188956   7.154   4.692   0.324
62394SOL    HW288957   7.131   4.828   0.263
62395SOL     OW88958   6.903  12.171   4.752
62395SOL    HW188959   6.909  12.231   4.827
62395SOL    HW288960   6.907  12.084   4.792
62396SOL     OW88961  13.344   4.872   2.626
62396SOL    HW188962  13.388   4.929   2.689
62396SOL    HW288963  13.378   4.898   2.541
62397SOL     OW88964  13.933  14.487   5.346
62397SOL    HW188965  13.839  14.487   5.328
62397SOL    HW288966  13.950  14.402   5.386
62398SOL     OW88967   9.308   1.852   9.944
62398SOL    HW188968   9.338   1.801   9.869
62398SOL    HW288969   9.259   1.924   9.906
62399SOL     OW88970  14.452   4.687   1.792
62399SOL    HW188971  14.458   4.598   1.758
62399SOL    HW288972  14.541   4.706   1.824
62400SOL     OW88973   3.034   6.981   8.721
62400SOL    HW188974   3.064   7.072   8.719
62400SOL    HW288975   2.999   6.970   8.809
62401SOL     OW88976  10.982   9.910   0.814
62401SOL    HW188977  10.994   9.993   0.768
62401SOL    HW288978  10.893   9.883   0.791
62402SOL     OW88979   2.300   6.780   8.358
62402SOL    HW188980   2.263   6.696   8.333
62402SOL    HW288981   2.370   6.758   8.419
62403SOL     OW88982   0.157   1.952   2.379
62403SOL    HW188983   0.072   1.908   2.381
62403SOL    HW288984   0.142   2.035   2.424
62404SOL     OW88985   6.531  10.449  14.082
62404SOL    HW188986   6.584  10.478  14.156
62404SOL    HW288987   6.476  10.525  14.060
62405SOL     OW88988   6.087   9.495   6.170
62405SOL    HW188989   6.092   9.565   6.235
62405SOL    HW288990   6.016   9.438   6.200
62406SOL     OW88991   9.287   2.779  14.237
62406SOL    HW188992   9.250   2.867  14.239
62406SOL    HW288993   9.227   2.727  14.292
62407SOL     OW88994  11.472   0.558   8.428
62407SOL    HW188995  11.479   0.496   8.355
62407SOL    HW288996  11.422   0.510   8.494
62408SOL     OW88997  14.462   0.849  14.105
62408SOL    HW188998  14.400   0.869  14.176
62408SOL    HW288999  14.428   0.769  14.065
62409SOL     OW89000   8.632  13.569   6.421
62409SOL    HW189001   8.722  13.578   6.453
62409SOL    HW289002   8.639  13.579   6.326
62410SOL     OW89003  13.996   5.813  11.252
62410SOL    HW189004  13.988   5.726  11.212
62410SOL    HW289005  13.921   5.862  11.219
62411SOL     OW89006   1.574   2.383   2.386
62411SOL    HW189007   1.481   2.378   2.407
62411SOL    HW289008   1.584   2.328   2.308
62412SOL     OW89009   6.720  13.618  11.631
62412SOL    HW189010   6.709  13.537  11.681
62412SOL    HW289011   6.802  13.606  11.583
62413SOL     OW89012   8.740   3.128   0.228
62413SOL    HW189013   8.805   3.182   0.273
62413SOL    HW289014   8.764   3.038   0.250
62414SOL     OW89015   6.086   0.412   1.781
62414SOL    HW189016   6.142   0.487   1.805
62414SOL    HW289017   6.065   0.371   1.864
62415SOL     OW89018   3.984   7.143   1.799
62415SOL    HW189019   3.927   7.073   1.767
62415SOL    HW289020   4.066   7.132   1.751
62416SOL     OW89021  12.557   9.255  12.711
62416SOL    HW189022  12.643   9.284  12.739
62416SOL    HW289023  12.496   9.315  12.755
62417SOL     OW89024   4.907   9.584   5.224
62417SOL    HW189025   4.888   9.659   5.281
62417SOL    HW289026   4.915   9.510   5.284
62418SOL     OW89027  14.852   2.943   0.435
62418SOL    HW189028  14.858   2.856   0.396
62418SOL    HW289029   0.052   2.950   0.490
62419SOL     OW89030   1.371   5.897   2.524
62419SOL    HW189031   1.464   5.875   2.523
62419SOL    HW289032   1.332   5.840   2.458
62420SOL     OW89033   0.951   3.727   8.619
62420SOL    HW189034   0.918   3.814   8.641
62420SOL    HW289035   0.884   3.690   8.561
62421SOL     OW89036   5.975   9.222  10.719
62421SOL    HW189037   5.997   9.134  10.748
62421SOL    HW289038   6.003   9.279  10.790
62422SOL     OW89039  10.007   3.667   3.743
62422SOL    HW189040   9.959   3.750   3.735
62422SOL    HW289041   9.994   3.641   3.834
62423SOL     OW89042  13.227   3.759   1.215
62423SOL    HW189043  13.179   3.703   1.275
62423SOL    HW289044  13.303   3.708   1.189
62424SOL     OW89045   2.947   2.681   5.908
62424SOL    HW189046   2.967   2.730   5.828
62424SOL    HW289047   3.031   2.674   5.954
62425SOL     OW89048   5.428  11.448   5.908
62425SOL    HW189049   5.370  11.524   5.909
62425SOL    HW289050   5.501  11.472   5.965
62426SOL     OW89051  13.817   2.239   2.378
62426SOL    HW189052  13.792   2.165   2.323
62426SOL    HW289053  13.758   2.235   2.453
62427SOL     OW89054   9.232  12.569  11.974
62427SOL    HW189055   9.277  12.652  11.955
62427SOL    HW289056   9.205  12.537  11.888
62428SOL     OW89057  10.581   1.200   0.989
62428SOL    HW189058  10.641   1.169   1.058
62428SOL    HW289059  10.605   1.148   0.912
62429SOL     OW89060   4.876   0.071   2.777
62429SOL    HW189061   4.801   0.022   2.811
62429SOL    HW289062   4.852   0.162   2.791
62430SOL     OW89063   6.793   2.650  13.894
62430SOL    HW189064   6.850   2.582  13.929
62430SOL    HW289065   6.752   2.610  13.818
62431SOL     OW89066  13.440  13.327   2.283
62431SOL    HW189067  13.483  13.269   2.346
62431SOL    HW289068  13.506  13.344   2.216
62432SOL     OW89069  14.652   7.803   6.582
62432SOL    HW189070  14.614   7.775   6.498
62432SOL    HW289071  14.662   7.721   6.631
62433SOL     OW89072   4.223  11.269  14.227
62433SOL    HW189073   4.191  11.179  14.216
62433SOL    HW289074   4.207  11.289  14.319
62434SOL     OW89075   7.264  11.752  11.653
62434SOL    HW189076   7.263  11.812  11.578
62434SOL    HW289077   7.240  11.807  11.728
62435SOL     OW89078   8.058   3.256   5.720
62435SOL    HW189079   8.083   3.325   5.782
62435SOL    HW289080   8.073   3.295   5.634
62436SOL     OW89081   9.246  12.036   7.359
62436SOL    HW189082   9.231  11.951   7.318
62436SOL    HW289083   9.213  12.026   7.448
62437SOL     OW89084  13.367   7.319   7.454
62437SOL    HW189085  13.328   7.288   7.536
62437SOL    HW289086  13.316   7.396   7.430
62438SOL     OW89087   9.809   3.116   7.920
62438SOL    HW189088   9.840   3.080   7.837
62438SOL    HW289089   9.862   3.194   7.934
62439SOL     OW89090  11.733  12.372  11.152
62439SOL    HW189091  11.655  12.366  11.206
62439SOL    HW289092  11.788  12.438  11.195
62440SOL     OW89093   0.671   7.104  11.231
62440SOL    HW189094   0.638   7.104  11.142
62440SOL    HW289095   0.687   7.011  11.251
62441SOL     OW89096  10.906   0.522  13.150
62441SOL    HW189097  10.822   0.535  13.107
62441SOL    HW289098  10.966   0.497  13.080
62442SOL     OW89099  14.413   2.459   4.305
62442SOL    HW189100  14.423   2.554   4.303
62442SOL    HW289101  14.323   2.445   4.335
62443SOL     OW89102   9.857   5.764   2.609
62443SOL    HW189103   9.789   5.831   2.606
62443SOL    HW289104   9.864   5.733   2.519
62444SOL     OW89105   9.360  12.185   9.024
62444SOL    HW189106   9.271  12.211   8.997
62444SOL    HW289107   9.348  12.100   9.067
62445SOL     OW89108  14.527  10.663   3.329
62445SOL    HW189109  14.492  10.682   3.242
62445SOL    HW289110  14.563  10.575   3.322
62446SOL     OW89111  10.703   8.821   0.891
62446SOL    HW189112  10.747   8.741   0.864
62446SOL    HW289113  10.772   8.887   0.897
62447SOL     OW89114   2.461   8.092  12.611
62447SOL    HW189115   2.534   8.140  12.648
62447SOL    HW289116   2.489   8.069  12.522
62448SOL     OW89117   8.031   5.277  10.124
62448SOL    HW189118   8.010   5.299  10.215
62448SOL    HW289119   7.946   5.263  10.082
62449SOL     OW89120   3.437   2.088   7.234
62449SOL    HW189121   3.435   2.130   7.147
62449SOL    HW289122   3.345   2.071   7.254
62450SOL     OW89123  12.179   2.637   7.318
62450SOL    HW189124  12.157   2.724   7.352
62450SOL    HW289125  12.249   2.654   7.255
62451SOL     OW89126   9.747   5.755   5.370
62451SOL    HW189127   9.807   5.688   5.339
62451SOL    HW289128   9.746   5.744   5.465
62452SOL     OW89129  11.728   3.274   5.496
62452SOL    HW189130  11.822   3.261   5.509
62452SOL    HW289131  11.706   3.349   5.551
62453SOL     OW89132   1.686  12.824   9.562
62453SOL    HW189133   1.658  12.886   9.494
62453SOL    HW289134   1.689  12.877   9.642
62454SOL     OW89135   7.401   5.971   2.626
62454SOL    HW189136   7.383   5.880   2.652
62454SOL    HW289137   7.315   6.007   2.607
62455SOL     OW89138  14.459   3.609  13.605
62455SOL    HW189139  14.426   3.581  13.519
62455SOL    HW289140  14.388   3.586  13.666
62456SOL     OW89141  14.043   9.675   0.057
62456SOL    HW189142  14.032   9.664   0.152
62456SOL    HW289143  14.137   9.688   0.045
62457SOL     OW89144   4.424   0.315  14.048
62457SOL    HW189145   4.405   0.307  14.141
62457SOL    HW289146   4.518   0.328  14.044
62458SOL     OW89147   5.777   9.367   8.589
62458SOL    HW189148   5.703   9.339   8.643
62458SOL    HW289149   5.795   9.292   8.532
62459SOL     OW89150   8.210   9.135   6.916
62459SOL    HW189151   8.178   9.169   6.999
62459SOL    HW289152   8.281   9.075   6.940
62460SOL     OW89153  10.221  12.557   8.415
62460SOL    HW189154  10.166  12.524   8.344
62460SOL    HW289155  10.163  12.614   8.466
62461SOL     OW89156  14.000  13.923   1.505
62461SOL    HW189157  13.989  13.888   1.594
62461SOL    HW289158  14.083  13.886   1.475
62462SOL     OW89159   6.818  13.818   7.641
62462SOL    HW189160   6.852  13.767   7.714
62462SOL    HW289161   6.823  13.909   7.671
62463SOL     OW89162   8.122   2.828   4.311
62463SOL    HW189163   8.192   2.857   4.369
62463SOL    HW289164   8.093   2.745   4.348
62464SOL     OW89165   0.098  11.975  11.938
62464SOL    HW189166   0.061  12.032  12.005
62464SOL    HW289167   0.179  12.017  11.911
62465SOL     OW89168  12.278   4.929   9.209
62465SOL    HW189169  12.345   4.985   9.171
62465SOL    HW289170  12.322   4.846   9.227
62466SOL     OW89171  14.695  12.055   8.547
62466SOL    HW189172  14.652  11.995   8.609
62466SOL    HW289173  14.758  12.103   8.601
62467SOL     OW89174   9.846   3.611   4.474
62467SOL    HW189175   9.769   3.665   4.461
62467SOL    HW289176   9.844   3.587   4.566
62468SOL     OW89177   6.576   2.353   0.619
62468SOL    HW189178   6.632   2.414   0.668
62468SOL    HW289179   6.487   2.373   0.650
62469SOL     OW89180   0.122   5.206   7.098
62469SOL    HW189181   0.063   5.241   7.032
62469SOL    HW289182   0.093   5.247   7.180
62470SOL     OW89183  12.504  13.077  13.879
62470SOL    HW189184  12.461  13.081  13.794
62470SOL    HW289185  12.546  13.162  13.889
62471SOL     OW89186   1.568   6.958  10.264
62471SOL    HW189187   1.510   7.034  10.267
62471SOL    HW289188   1.652   6.992  10.233
62472SOL     OW89189   1.913   4.693   3.941
62472SOL    HW189190   1.949   4.605   3.933
62472SOL    HW289191   1.950   4.740   3.866
62473SOL     OW89192   2.549   7.935   8.959
62473SOL    HW189193   2.480   7.953   8.896
62473SOL    HW289194   2.563   7.841   8.954
62474SOL     OW89195   5.470   4.753   2.291
62474SOL    HW189196   5.565   4.761   2.295
62474SOL    HW289197   5.440   4.831   2.244
62475SOL     OW89198  11.412   1.420   7.376
62475SOL    HW189199  11.479   1.457   7.320
62475SOL    HW289200  11.331   1.427   7.325
62476SOL     OW89201  13.264  12.596   2.395
62476SOL    HW189202  13.236  12.687   2.389
62476SOL    HW289203  13.305  12.578   2.310
62477SOL     OW89204   8.712   2.227  11.393
62477SOL    HW189205   8.732   2.177  11.314
62477SOL    HW289206   8.661   2.302  11.363
62478SOL     OW89207   4.472   2.212   8.296
62478SOL    HW189208   4.413   2.141   8.322
62478SOL    HW289209   4.442   2.288   8.345
62479SOL     OW89210   9.969   9.943  12.912
62479SOL    HW189211  10.044   9.918  12.857
62479SOL    HW289212   9.999  10.019  12.961
62480SOL     OW89213   6.748   9.169   1.197
62480SOL    HW189214   6.758   9.074   1.195
62480SOL    HW289215   6.837   9.204   1.188
62481SOL     OW89216   1.117   8.939   2.031
62481SOL    HW189217   1.060   8.955   2.106
62481SOL    HW289218   1.057   8.935   1.956
62482SOL     OW89219   0.146   6.799  13.545
62482SOL    HW189220   0.232   6.817  13.506
62482SOL    HW289221   0.092   6.875  13.521
62483SOL     OW89222   7.177  14.598  10.203
62483SOL    HW189223   7.166  14.660  10.275
62483SOL    HW289224   7.168  14.512  10.243
62484SOL     OW89225   6.828  10.806   0.427
62484SOL    HW189226   6.782  10.735   0.472
62484SOL    HW289227   6.839  10.874   0.494
62485SOL     OW89228  10.924   8.938   2.026
62485SOL    HW189229  10.882   8.993   2.092
62485SOL    HW289230  10.886   8.851   2.040
62486SOL     OW89231   9.625   7.023  13.224
62486SOL    HW189232   9.619   6.958  13.294
62486SOL    HW289233   9.645   7.105  13.269
62487SOL     OW89234  13.703   1.970   0.374
62487SOL    HW189235  13.747   1.953   0.291
62487SOL    HW289236  13.622   1.920   0.370
62488SOL     OW89237   0.396   2.400  10.763
62488SOL    HW189238   0.314   2.440  10.734
62488SOL    HW289239   0.372   2.310  10.786
62489SOL     OW89240   9.976  11.474   7.077
62489SOL    HW189241   9.913  11.545   7.066
62489SOL    HW289242  10.017  11.491   7.161
62490SOL     OW89243   2.654   1.345   0.851
62490SOL    HW189244   2.566   1.383   0.845
62490SOL    HW289245   2.642   1.253   0.826
62491SOL     OW89246  11.587  11.817   1.315
62491SOL    HW189247  11.621  11.818   1.404
62491SOL    HW289248  11.613  11.902   1.279
62492SOL     OW89249   5.395   6.366   6.680
62492SOL    HW189250   5.380   6.280   6.639
62492SOL    HW289251   5.472   6.401   6.635
62493SOL     OW89252   4.400   4.472   8.503
62493SOL    HW189253   4.473   4.525   8.473
62493SOL    HW289254   4.441   4.404   8.557
62494SOL     OW89255  14.025   4.199   2.868
62494SOL    HW189256  14.027   4.177   2.775
62494SOL    HW289257  13.949   4.152   2.902
62495SOL     OW89258   1.995  11.519  13.234
62495SOL    HW189259   1.991  11.541  13.327
62495SOL    HW289260   2.049  11.588  13.195
62496SOL     OW89261  12.455   0.166  10.872
62496SOL    HW189262  12.375   0.132  10.831
62496SOL    HW289263  12.513   0.090  10.879
62497SOL     OW89264   5.361   2.926   8.233
62497SOL    HW189265   5.415   2.993   8.190
62497SOL    HW289266   5.273   2.941   8.199
62498SOL     OW89267  11.302   1.793  10.301
62498SOL    HW189268  11.303   1.813  10.207
62498SOL    HW289269  11.237   1.724  10.310
62499SOL     OW89270   8.971   2.284   9.042
62499SOL    HW189271   8.893   2.339   9.041
62499SOL    HW289272   8.955   2.218   8.975
62500SOL     OW89273   5.710   9.596   4.174
62500SOL    HW189274   5.704   9.509   4.134
62500SOL    HW289275   5.803   9.618   4.168
62501SOL     OW89276  12.118   0.251  11.679
62501SOL    HW189277  12.047   0.315  11.678
62501SOL    HW289278  12.197   0.302  11.693
62502SOL     OW89279   6.706   0.950   1.859
62502SOL    HW189280   6.776   0.967   1.922
62502SOL    HW289281   6.627   0.981   1.903
62503SOL     OW89282  13.363   2.269   4.941
62503SOL    HW189283  13.379   2.362   4.956
62503SOL    HW289284  13.268   2.262   4.931
62504SOL     OW89285  12.556   8.503   5.584
62504SOL    HW189286  12.510   8.578   5.622
62504SOL    HW289287  12.643   8.537   5.562
62505SOL     OW89288   3.716   7.128  11.312
62505SOL    HW189289   3.791   7.088  11.356
62505SOL    HW289290   3.746   7.216  11.289
62506SOL     OW89291  12.428   2.298   2.595
62506SOL    HW189292  12.510   2.280   2.549
62506SOL    HW289293  12.454   2.311   2.686
62507SOL     OW89294  10.825   1.811  13.059
62507SOL    HW189295  10.764   1.737  13.066
62507SOL    HW289296  10.911   1.771  13.051
62508SOL     OW89297   1.915   1.983   5.291
62508SOL    HW189298   1.992   1.961   5.344
62508SOL    HW289299   1.886   2.068   5.326
62509SOL     OW89300  10.351  13.857   7.195
62509SOL    HW189301  10.352  13.762   7.180
62509SOL    HW289302  10.260  13.878   7.213
62510SOL     OW89303   6.416  14.104   8.448
62510SOL    HW189304   6.444  14.195   8.450
62510SOL    HW289305   6.469  14.063   8.380
62511SOL     OW89306  13.709   0.056   3.077
62511SOL    HW189307  13.678  14.877   3.006
62511SOL    HW289308  13.702   0.145   3.042
62512SOL     OW89309  10.495   9.168   9.888
62512SOL    HW189310  10.449   9.203   9.964
62512SOL    HW289311  10.456   9.212   9.813
62513SOL     OW89312   4.250   9.803  13.515
62513SOL    HW189313   4.295   9.845  13.443
62513SOL    HW289314   4.245   9.711  13.490
62514SOL     OW89315  12.482  14.586   0.412
62514SOL    HW189316  12.457  14.642   0.339
62514SOL    HW289317  12.507  14.503   0.372
62515SOL     OW89318   2.761  10.271   6.600
62515SOL    HW189319   2.694  10.234   6.543
62515SOL    HW289320   2.843  10.233   6.568
62516SOL     OW89321   8.047   2.456   2.108
62516SOL    HW189322   8.022   2.544   2.136
62516SOL    HW289323   8.062   2.465   2.014
62517SOL     OW89324   5.664   1.241  10.924
62517SOL    HW189325   5.687   1.150  10.908
62517SOL    HW289326   5.611   1.266  10.847
62518SOL     OW89327   1.521   7.206  13.483
62518SOL    HW189328   1.600   7.170  13.443
62518SOL    HW289329   1.511   7.292  13.443
62519SOL     OW89330   1.718  10.455  12.750
62519SOL    HW189331   1.795  10.481  12.801
62519SOL    HW289332   1.663  10.533  12.747
62520SOL     OW89333   4.865  12.462   8.429
62520SOL    HW189334   4.898  12.380   8.391
62520SOL    HW289335   4.853  12.520   8.354
62521SOL     OW89336  13.752  14.041   7.985
62521SOL    HW189337  13.749  14.072   7.895
62521SOL    HW289338  13.841  14.061   8.015
62522SOL     OW89339   8.008   5.068  11.509
62522SOL    HW189340   7.947   5.101  11.574
62522SOL    HW289341   7.999   4.972  11.514
62523SOL     OW89342   8.638   0.818   4.720
62523SOL    HW189343   8.693   0.747   4.753
62523SOL    HW289344   8.642   0.809   4.625
62524SOL     OW89345   9.777  13.457   2.915
62524SOL    HW189346   9.682  13.450   2.925
62524SOL    HW289347   9.790  13.540   2.870
62525SOL     OW89348  13.824   0.863   0.886
62525SOL    HW189349  13.877   0.855   0.807
62525SOL    HW289350  13.877   0.822   0.954
62526SOL     OW89351   6.020   0.816  10.414
62526SOL    HW189352   6.046   0.840  10.503
62526SOL    HW289353   5.951   0.750  10.427
62527SOL     OW89354   5.512   9.830   0.358
62527SOL    HW189355   5.507   9.775   0.436
62527SOL    HW289356   5.571   9.784   0.299
62528SOL     OW89357   4.311  10.149   6.431
62528SOL    HW189358   4.293  10.075   6.373
62528SOL    HW289359   4.284  10.226   6.381
62529SOL     OW89360   3.567   7.658  10.488
62529SOL    HW189361   3.580   7.595  10.559
62529SOL    HW289362   3.605   7.617  10.411
62530SOL     OW89363  11.803   4.897  10.204
62530SOL    HW189364  11.730   4.844  10.170
62530SOL    HW289365  11.774   4.988  10.191
62531SOL     OW89366   6.450   2.922  14.338
62531SOL    HW189367   6.517   2.957  14.280
62531SOL    HW289368   6.431   2.835  14.303
62532SOL     OW89369   6.726   9.467   0.415
62532SOL    HW189370   6.791   9.397   0.406
62532SOL    HW289371   6.722   9.508   0.329
62533SOL     OW89372   2.288   2.633   8.932
62533SOL    HW189373   2.251   2.719   8.951
62533SOL    HW289374   2.214   2.573   8.940
62534SOL     OW89375   4.913   7.242   2.110
62534SOL    HW189376   4.864   7.304   2.165
62534SOL    HW289377   4.909   7.160   2.159
62535SOL     OW89378   2.431  14.179  11.147
62535SOL    HW189379   2.393  14.265  11.162
62535SOL    HW289380   2.476  14.157  11.229
62536SOL     OW89381   5.238   0.051  10.678
62536SOL    HW189382   5.239  14.861  10.610
62536SOL    HW289383   5.265   0.131  10.634
62537SOL     OW89384   7.078   1.737   1.543
62537SOL    HW189385   7.034   1.765   1.623
62537SOL    HW289386   7.041   1.650   1.526
62538SOL     OW89387  12.146   6.677   1.313
62538SOL    HW189388  12.161   6.612   1.382
62538SOL    HW289389  12.061   6.716   1.334
62539SOL     OW89390   5.659   3.994   3.191
62539SOL    HW189391   5.671   4.080   3.230
62539SOL    HW289392   5.569   3.971   3.211
62540SOL     OW89393   5.886   1.901  11.418
62540SOL    HW189394   5.824   1.828  11.406
62540SOL    HW289395   5.875   1.955  11.340
62541SOL     OW89396   8.168  12.386   6.440
62541SOL    HW189397   8.109  12.460   6.423
62541SOL    HW289398   8.256  12.424   6.432
62542SOL     OW89399   2.710   5.357   1.462
62542SOL    HW189400   2.795   5.346   1.418
62542SOL    HW289401   2.696   5.274   1.508
62543SOL     OW89402  11.515   4.629  12.017
62543SOL    HW189403  11.585   4.679  11.975
62543SOL    HW289404  11.447   4.694  12.037
62544SOL     OW89405   8.851   8.656   9.393
62544SOL    HW189406   8.877   8.575   9.348
62544SOL    HW289407   8.767   8.679   9.354
62545SOL     OW89408   9.280   5.829   3.849
62545SOL    HW189409   9.298   5.824   3.942
62545SOL    HW289410   9.243   5.916   3.836
62546SOL     OW89411   6.343   1.437   0.393
62546SOL    HW189412   6.352   1.524   0.354
62546SOL    HW289413   6.336   1.378   0.318
62547SOL     OW89414   0.432   4.720  10.703
62547SOL    HW189415   0.346   4.709  10.744
62547SOL    HW289416   0.471   4.633  10.705
62548SOL     OW89417   3.204   6.655   0.150
62548SOL    HW189418   3.284   6.696   0.116
62548SOL    HW289419   3.146   6.729   0.171
62549SOL     OW89420   4.462   4.983  13.726
62549SOL    HW189421   4.387   5.025  13.769
62549SOL    HW289422   4.503   5.054  13.676
62550SOL     OW89423   5.739   3.335  13.865
62550SOL    HW189424   5.758   3.313  13.774
62550SOL    HW289425   5.780   3.265  13.916
62551SOL     OW89426   7.364  12.252  12.531
62551SOL    HW189427   7.356  12.213  12.444
62551SOL    HW289428   7.384  12.344  12.513
62552SOL     OW89429  10.175   5.263  14.687
62552SOL    HW189430  10.240   5.236  14.622
62552SOL    HW289431  10.154   5.182  14.734
62553SOL     OW89432   0.142  13.713   2.084
62553SOL    HW189433   0.063  13.711   2.030
62553SOL    HW289434   0.186  13.794   2.058
62554SOL     OW89435  11.870  11.730   4.293
62554SOL    HW189436  11.876  11.697   4.383
62554SOL    HW289437  11.935  11.800   4.289
62555SOL     OW89438   4.241   7.307   4.535
62555SOL    HW189439   4.322   7.257   4.547
62555SOL    HW289440   4.196   7.301   4.619
62556SOL     OW89441   3.376   8.472   8.063
62556SOL    HW189442   3.373   8.567   8.071
62556SOL    HW289443   3.334   8.440   8.143
62557SOL     OW89444   8.727   6.002  13.599
62557SOL    HW189445   8.715   6.013  13.693
62557SOL    HW289446   8.717   5.908  13.583
62558SOL     OW89447   0.336  14.052  11.542
62558SOL    HW189448   0.431  14.041  11.549
62558SOL    HW289449   0.303  13.965  11.519
62559SOL     OW89450   2.256   6.958   0.264
62559SOL    HW189451   2.340   6.929   0.299
62559SOL    HW289452   2.268   6.958   0.169
62560SOL     OW89453   3.489   5.232   7.171
62560SOL    HW189454   3.502   5.160   7.109
62560SOL    HW289455   3.555   5.297   7.147
62561SOL     OW89456   3.857   4.159   2.346
62561SOL    HW189457   3.784   4.219   2.354
62561SOL    HW289458   3.876   4.132   2.436
62562SOL     OW89459   5.096   6.640   6.626
62562SOL    HW189460   5.021   6.583   6.608
62562SOL    HW289461   5.110   6.687   6.544
62563SOL     OW89462   4.168   3.284   6.745
62563SOL    HW189463   4.141   3.297   6.836
62563SOL    HW289464   4.183   3.190   6.737
62564SOL     OW89465  14.425   0.095   6.934
62564SOL    HW189466  14.382   0.053   7.008
62564SOL    HW289467  14.518   0.090   6.954
62565SOL     OW89468   9.476   2.492   6.189
62565SOL    HW189469   9.552   2.483   6.247
62565SOL    HW289470   9.490   2.576   6.145
62566SOL     OW89471   6.952  10.107   6.412
62566SOL    HW189472   6.936  10.019   6.447
62566SOL    HW289473   6.981  10.092   6.322
62567SOL     OW89474   8.327  12.295   7.459
62567SOL    HW189475   8.233  12.280   7.456
62567SOL    HW289476   8.354  12.297   7.367
62568SOL     OW89477   6.817  11.015  10.101
62568SOL    HW189478   6.812  10.998  10.195
62568SOL    HW289479   6.773  10.940  10.061
62569SOL     OW89480   0.634  11.212   5.049
62569SOL    HW189481   0.698  11.144   5.033
62569SOL    HW289482   0.679  11.276   5.105
62570SOL     OW89483  14.847   7.652   1.299
62570SOL    HW189484   0.040   7.705   1.336
62570SOL    HW289485  14.784   7.643   1.371
62571SOL     OW89486  13.082   5.414   3.135
62571SOL    HW189487  13.033   5.360   3.073
62571SOL    HW289488  13.174   5.391   3.120
62572SOL     OW89489  11.624  12.945  14.253
62572SOL    HW189490  11.657  13.015  14.309
62572SOL    HW289491  11.558  12.901  14.305
62573SOL     OW89492   7.338   8.167   7.261
62573SOL    HW189493   7.330   8.163   7.357
62573SOL    HW289494   7.338   8.075   7.234
62574SOL     OW89495  13.179   8.659  10.170
62574SOL    HW189496  13.189   8.751  10.192
62574SOL    HW289497  13.239   8.613  10.229
62575SOL     OW89498   4.202   9.963   2.260
62575SOL    HW189499   4.205   9.873   2.292
62575SOL    HW289500   4.271  10.009   2.308
62576SOL     OW89501   0.476  13.921   1.963
62576SOL    HW189502   0.529  13.854   2.006
62576SOL    HW289503   0.495  14.001   2.012
62577SOL     OW89504   4.678   6.006   6.457
62577SOL    HW189505   4.633   6.072   6.404
62577SOL    HW289506   4.636   6.013   6.544
62578SOL     OW89507   7.915   5.637   8.564
62578SOL    HW189508   7.978   5.709   8.558
62578SOL    HW289509   7.944   5.586   8.640
62579SOL     OW89510   6.854   8.152   7.022
62579SOL    HW189511   6.949   8.149   7.024
62579SOL    HW289512   6.830   8.115   6.937
62580SOL     OW89513   3.616   6.377  10.183
62580SOL    HW189514   3.650   6.431  10.254
62580SOL    HW289515   3.691   6.324  10.155
62581SOL     OW89516   2.080  14.685   0.648
62581SOL    HW189517   2.081  14.706   0.741
62581SOL    HW289518   1.987  14.674   0.627
62582SOL     OW89519  12.222  10.503   5.426
62582SOL    HW189520  12.232  10.408   5.435
62582SOL    HW289521  12.132  10.520   5.452
62583SOL     OW89522   8.079   7.431  13.870
62583SOL    HW189523   8.038   7.497  13.926
62583SOL    HW289524   8.060   7.348  13.913
62584SOL     OW89525   1.941  12.316  10.402
62584SOL    HW189526   1.988  12.389  10.443
62584SOL    HW289527   1.876  12.357  10.345
62585SOL     OW89528   2.874   5.348   4.867
62585SOL    HW189529   2.880   5.441   4.889
62585SOL    HW289530   2.792   5.319   4.906
62586SOL     OW89531  12.076  14.443   8.621
62586SOL    HW189532  12.103  14.381   8.553
62586SOL    HW289533  12.128  14.419   8.698
62587SOL     OW89534  14.736   6.899   0.564
62587SOL    HW189535  14.728   6.806   0.587
62587SOL    HW289536  14.648   6.934   0.575
62588SOL     OW89537  13.832   4.110  10.140
62588SOL    HW189538  13.787   4.025  10.143
62588SOL    HW289539  13.906   4.096  10.082
62589SOL     OW89540   5.291  12.645   2.631
62589SOL    HW189541   5.215  12.702   2.619
62589SOL    HW289542   5.366  12.704   2.625
62590SOL     OW89543  14.211   6.288   5.286
62590SOL    HW189544  14.196   6.375   5.248
62590SOL    HW289545  14.301   6.292   5.320
62591SOL     OW89546   8.712  14.622   9.154
62591SOL    HW189547   8.630  14.632   9.106
62591SOL    HW289548   8.773  14.682   9.109
62592SOL     OW89549  10.569   2.317  14.596
62592SOL    HW189550  10.476   2.312  14.571
62592SOL    HW289551  10.568   2.351  14.685
62593SOL     OW89552   7.409  11.198   6.098
62593SOL    HW189553   7.413  11.115   6.146
62593SOL    HW289554   7.419  11.173   6.007
62594SOL     OW89555   7.499  14.672   7.089
62594SOL    HW189556   7.420  14.715   7.120
62594SOL    HW289557   7.508  14.700   6.998
62595SOL     OW89558   3.307   1.368   6.226
62595SOL    HW189559   3.272   1.282   6.201
62595SOL    HW289560   3.377   1.349   6.287
62596SOL     OW89561  10.158   6.176   5.178
62596SOL    HW189562  10.071   6.137   5.190
62596SOL    HW289563  10.161   6.248   5.241
62597SOL     OW89564   2.193   2.700  13.508
62597SOL    HW189565   2.282   2.690  13.476
62597SOL    HW289566   2.168   2.788  13.482
62598SOL     OW89567   2.066   3.453   7.277
62598SOL    HW189568   2.018   3.428   7.198
62598SOL    HW289569   2.082   3.547   7.267
62599SOL     OW89570   5.715   3.803   3.000
62599SOL    HW189571   5.654   3.801   2.927
62599SOL    HW289572   5.683   3.872   3.057
62600SOL     OW89573   0.411  13.961   4.608
62600SOL    HW189574   0.414  13.978   4.702
62600SOL    HW289575   0.444  14.042   4.568
62601SOL     OW89576   8.601  10.047   7.186
62601SOL    HW189577   8.519  10.000   7.202
62601SOL    HW289578   8.669   9.981   7.199
62602SOL     OW89579   4.871   5.951   1.348
62602SOL    HW189580   4.813   5.886   1.387
62602SOL    HW289581   4.847   5.952   1.255
62603SOL     OW89582   2.951  13.143  10.190
62603SOL    HW189583   3.023  13.107  10.242
62603SOL    HW289584   2.945  13.086  10.114
62604SOL     OW89585   5.798   9.886  10.226
62604SOL    HW189586   5.722   9.933  10.193
62604SOL    HW289587   5.873   9.932  10.190
62605SOL     OW89588   1.063   1.239   0.785
62605SOL    HW189589   1.122   1.197   0.723
62605SOL    HW289590   1.053   1.329   0.752
62606SOL     OW89591   2.137   0.011   1.894
62606SOL    HW189592   2.064  14.830   1.914
62606SOL    HW289593   2.143   0.068   1.971
62607SOL     OW89594  10.415  11.445   1.847
62607SOL    HW189595  10.335  11.399   1.874
62607SOL    HW289596  10.388  11.536   1.840
62608SOL     OW89597   6.001  13.820   2.904
62608SOL    HW189598   5.917  13.862   2.926
62608SOL    HW289599   5.977  13.732   2.876
62609SOL     OW89600   5.033   8.475   5.632
62609SOL    HW189601   4.946   8.505   5.660
62609SOL    HW289602   5.094   8.533   5.677
62610SOL     OW89603   2.735  11.574  14.215
62610SOL    HW189604   2.640  11.574  14.228
62610SOL    HW289605   2.754  11.662  14.183
62611SOL     OW89606   0.416   3.536  14.461
62611SOL    HW189607   0.509   3.518  14.477
62611SOL    HW289608   0.417   3.616  14.408
62612SOL     OW89609  13.996   0.212   0.984
62612SOL    HW189610  14.088   0.202   0.959
62612SOL    HW289611  13.994   0.293   1.035
62613SOL     OW89612   9.971  11.546   7.893
62613SOL    HW189613   9.939  11.458   7.912
62613SOL    HW289614  10.021  11.535   7.811
62614SOL     OW89615   2.298   9.271   0.127
62614SOL    HW189616   2.308   9.280   0.222
62614SOL    HW289617   2.370   9.322   0.090
62615SOL     OW89618  10.690  10.228  14.722
62615SOL    HW189619  10.678  10.240  14.817
62615SOL    HW289620  10.777  10.189  14.714
62616SOL     OW89621  11.433   1.961  10.509
62616SOL    HW189622  11.514   1.928  10.471
62616SOL    HW289623  11.364   1.922  10.456
62617SOL     OW89624   2.602  13.975   7.687
62617SOL    HW189625   2.583  13.969   7.593
62617SOL    HW289626   2.604  14.069   7.705
62618SOL     OW89627   2.579   6.831  10.153
62618SOL    HW189628   2.665   6.789  10.145
62618SOL    HW289629   2.569   6.879  10.070
62619SOL     OW89630   9.847  11.864   3.710
62619SOL    HW189631   9.768  11.812   3.691
62619SOL    HW289632   9.862  11.851   3.803
62620SOL     OW89633   2.440   2.912  11.101
62620SOL    HW189634   2.533   2.919  11.123
62620SOL    HW289635   2.439   2.872  11.014
62621SOL     OW89636   4.180   8.827  12.080
62621SOL    HW189637   4.273   8.848  12.089
62621SOL    HW289638   4.136   8.887  12.140
62622SOL     OW89639  14.367  13.359   5.844
62622SOL    HW189640  14.379  13.266   5.864
62622SOL    HW289641  14.454  13.390   5.818
62623SOL     OW89642   8.610   0.027   6.413
62623SOL    HW189643   8.595   0.068   6.328
62623SOL    HW289644   8.691   0.067   6.445
62624SOL     OW89645   3.762   2.058   3.779
62624SOL    HW189646   3.685   2.001   3.778
62624SOL    HW289647   3.730   2.140   3.817
62625SOL     OW89648   2.807   7.536   1.724
62625SOL    HW189649   2.823   7.580   1.807
62625SOL    HW289650   2.873   7.467   1.719
62626SOL     OW89651   4.460  10.567  14.351
62626SOL    HW189652   4.427  10.545  14.438
62626SOL    HW289653   4.381  10.590  14.301
62627SOL     OW89654   9.015   0.891  14.309
62627SOL    HW189655   9.085   0.951  14.285
62627SOL    HW289656   9.020   0.821  14.245
62628SOL     OW89657  13.214  13.211   2.235
62628SOL    HW189658  13.299  13.250   2.256
62628SOL    HW289659  13.151  13.262   2.286
62629SOL     OW89660  10.521  13.269  10.761
62629SOL    HW189661  10.597  13.327  10.750
62629SOL    HW289662  10.521  13.247  10.854
62630SOL     OW89663   8.370   2.294   4.377
62630SOL    HW189664   8.276   2.280   4.389
62630SOL    HW289665   8.387   2.264   4.288
62631SOL     OW89666   5.656  10.343   4.694
62631SOL    HW189667   5.592  10.408   4.663
62631SOL    HW289668   5.633  10.327   4.785
62632SOL     OW89669  11.103   9.719   4.786
62632SOL    HW189670  11.113   9.732   4.880
62632SOL    HW289671  11.008   9.714   4.772
62633SOL     OW89672   5.927   4.776   5.244
62633SOL    HW189673   5.886   4.697   5.279
62633SOL    HW289674   5.864   4.846   5.261
62634SOL     OW89675   3.426  10.672   2.762
62634SOL    HW189676   3.443  10.625   2.844
62634SOL    HW289677   3.406  10.761   2.790
62635SOL     OW89678   6.693   3.371  11.180
62635SOL    HW189679   6.616   3.333  11.221
62635SOL    HW289680   6.659   3.420  11.105
62636SOL     OW89681   8.129   4.325  14.213
62636SOL    HW189682   8.206   4.267  14.212
62636SOL    HW289683   8.163   4.411  14.192
62637SOL     OW89684   2.913   8.373   9.278
62637SOL    HW189685   2.922   8.448   9.336
62637SOL    HW289686   3.002   8.354   9.248
62638SOL     OW89687  14.688   9.202  11.934
62638SOL    HW189688  14.741   9.272  11.973
62638SOL    HW289689  14.652   9.154  12.009
62639SOL     OW89690   2.369  11.344   9.936
62639SOL    HW189691   2.289  11.361   9.887
62639SOL    HW289692   2.428  11.416   9.911
62640SOL     OW89693   3.775   1.897   4.487
62640SOL    HW189694   3.716   1.952   4.539
62640SOL    HW289695   3.843   1.870   4.549
62641SOL     OW89696  12.319   2.818  10.346
62641SOL    HW189697  12.360   2.739  10.311
62641SOL    HW289698  12.378   2.889  10.319
62642SOL     OW89699  13.053   4.707   9.441
62642SOL    HW189700  12.974   4.676   9.396
62642SOL    HW289701  13.087   4.630   9.486
62643SOL     OW89702   4.168  13.667   6.624
62643SOL    HW189703   4.167  13.673   6.720
62643SOL    HW289704   4.125  13.583   6.606
62644SOL     OW89705  12.395   3.281   1.844
62644SOL    HW189706  12.447   3.331   1.907
62644SOL    HW289707  12.460   3.234   1.792
62645SOL     OW89708   2.662   0.793   5.951
62645SOL    HW189709   2.682   0.847   5.875
62645SOL    HW289710   2.745   0.751   5.973
62646SOL     OW89711   7.427   0.368  12.624
62646SOL    HW189712   7.509   0.388  12.580
62646SOL    HW289713   7.449   0.298  12.686
62647SOL     OW89714  10.307   6.597   5.791
62647SOL    HW189715  10.230   6.646   5.763
62647SOL    HW289716  10.346   6.650   5.861
62648SOL     OW89717  14.525  12.928  10.469
62648SOL    HW189718  14.612  12.955  10.498
62648SOL    HW289719  14.512  12.842  10.510
62649SOL     OW89720   5.690  13.239  11.466
62649SOL    HW189721   5.666  13.324  11.505
62649SOL    HW289722   5.779  13.252  11.433
62650SOL     OW89723  11.276   9.409  10.504
62650SOL    HW189724  11.315   9.411  10.416
62650SOL    HW289725  11.225   9.328  10.506
62651SOL     OW89726   8.854   7.090   3.191
62651SOL    HW189727   8.854   7.134   3.275
62651SOL    HW289728   8.761   7.079   3.169
62652SOL     OW89729   8.343   8.529   0.541
62652SOL    HW189730   8.287   8.572   0.606
62652SOL    HW289731   8.432   8.554   0.564
62653SOL     OW89732   5.242   1.460   1.963
62653SOL    HW189733   5.230   1.524   2.033
62653SOL    HW289734   5.333   1.473   1.934
62654SOL     OW89735   6.120  11.314   8.937
62654SOL    HW189736   6.156  11.388   8.985
62654SOL    HW289737   6.194  11.254   8.925
62655SOL     OW89738   5.493   9.144   2.541
62655SOL    HW189739   5.445   9.094   2.607
62655SOL    HW289740   5.431   9.213   2.514
62656SOL     OW89741   8.378   0.848   3.850
62656SOL    HW189742   8.326   0.769   3.867
62656SOL    HW289743   8.318   0.921   3.865
62657SOL     OW89744  13.871  13.751   2.440
62657SOL    HW189745  13.921  13.708   2.509
62657SOL    HW289746  13.780  13.733   2.461
62658SOL     OW89747  13.886   7.193  12.649
62658SOL    HW189748  13.880   7.248  12.571
62658SOL    HW289749  13.865   7.105  12.618
62659SOL     OW89750   8.270   6.135   1.033
62659SOL    HW189751   8.223   6.125   0.951
62659SOL    HW289752   8.203   6.128   1.101
62660SOL     OW89753   2.759  10.531   1.800
62660SOL    HW189754   2.772  10.528   1.705
62660SOL    HW289755   2.820  10.466   1.834
62661SOL     OW89756  11.429  10.788  13.700
62661SOL    HW189757  11.507  10.748  13.737
62661SOL    HW289758  11.366  10.791  13.772
62662SOL     OW89759  13.256   8.271   7.145
62662SOL    HW189760  13.180   8.288   7.201
62662SOL    HW289761  13.235   8.190   7.099
62663SOL     OW89762   3.869  14.159   2.891
62663SOL    HW189763   3.820  14.098   2.836
62663SOL    HW289764   3.934  14.198   2.831
62664SOL     OW89765   4.256  11.542  14.511
62664SOL    HW189766   4.256  11.572  14.420
62664SOL    HW289767   4.296  11.614  14.560
62665SOL     OW89768  13.788   8.695   1.585
62665SOL    HW189769  13.740   8.625   1.542
62665SOL    HW289770  13.875   8.692   1.545
62666SOL     OW89771   6.465   4.835   0.530
62666SOL    HW189772   6.456   4.888   0.451
62666SOL    HW289773   6.406   4.761   0.516
62667SOL     OW89774   3.100   2.858   0.213
62667SOL    HW189775   3.072   2.833   0.125
62667SOL    HW289776   3.160   2.788   0.240
62668SOL     OW89777  13.758   6.439   1.546
62668SOL    HW189778  13.819   6.398   1.606
62668SOL    HW289779  13.677   6.447   1.596
62669SOL     OW89780   1.236  12.676   6.547
62669SOL    HW189781   1.310  12.615   6.547
62669SOL    HW289782   1.167  12.630   6.594
62670SOL     OW89783   5.849   2.940   2.757
62670SOL    HW189784   5.849   2.858   2.708
62670SOL    HW289785   5.936   2.944   2.796
62671SOL     OW89786  13.439  13.778   3.139
62671SOL    HW189787  13.346  13.802   3.129
62671SOL    HW289788  13.439  13.711   3.207
62672SOL     OW89789   1.082   7.069   6.048
62672SOL    HW189790   0.990   7.044   6.057
62672SOL    HW289791   1.097   7.133   6.117
62673SOL     OW89792  11.136  11.018   4.472
62673SOL    HW189793  11.230  11.032   4.475
62673SOL    HW289794  11.125  10.934   4.428
62674SOL     OW89795   0.580  12.536  11.025
62674SOL    HW189796   0.641  12.542  10.951
62674SOL    HW289797   0.529  12.457  11.009
62675SOL     OW89798   1.021  10.088  11.983
62675SOL    HW189799   1.087  10.157  11.981
62675SOL    HW289800   1.059  10.019  12.037
62676SOL     OW89801   5.364  13.614   2.000
62676SOL    HW189802   5.313  13.611   1.919
62676SOL    HW289803   5.405  13.701   1.999
62677SOL     OW89804   8.777   4.641  12.164
62677SOL    HW189805   8.840   4.686  12.107
62677SOL    HW289806   8.745   4.568  12.110
62678SOL     OW89807   1.855  12.572  14.801
62678SOL    HW189808   1.880  12.507  14.867
62678SOL    HW289809   1.760  12.583  14.813
62679SOL     OW89810  10.678   9.973   3.110
62679SOL    HW189811  10.767  10.000   3.087
62679SOL    HW289812  10.623  10.042   3.073
62680SOL     OW89813   5.383   5.205  13.326
62680SOL    HW189814   5.406   5.285  13.373
62680SOL    HW289815   5.447   5.200  13.255
62681SOL     OW89816   5.260  11.089   0.033
62681SOL    HW189817   5.194  11.079  14.842
62681SOL    HW289818   5.236  11.024   0.099
62682SOL     OW89819   0.482  13.909   6.361
62682SOL    HW189820   0.574  13.896   6.340
62682SOL    HW289821   0.477  13.900   6.456
62683SOL     OW89822   2.423  14.528  10.993
62683SOL    HW189823   2.394  14.466  10.927
62683SOL    HW289824   2.480  14.589  10.946
62684SOL     OW89825   3.101   2.563   0.651
62684SOL    HW189826   3.135   2.488   0.603
62684SOL    HW289827   3.083   2.529   0.739
62685SOL     OW89828   3.318   6.491   4.471
62685SOL    HW189829   3.378   6.544   4.524
62685SOL    HW289830   3.351   6.500   4.381
62686SOL     OW89831   4.371  10.282  11.588
62686SOL    HW189832   4.352  10.188  11.583
62686SOL    HW289833   4.465  10.286  11.609
62687SOL     OW89834   7.714  10.708   6.439
62687SOL    HW189835   7.702  10.792   6.484
62687SOL    HW289836   7.808  10.703   6.422
62688SOL     OW89837  13.107  10.664  11.806
62688SOL    HW189838  13.164  10.712  11.745
62688SOL    HW289839  13.161  10.592  11.838
62689SOL     OW89840   6.504   6.778   7.244
62689SOL    HW189841   6.433   6.841   7.250
62689SOL    HW289842   6.581   6.825   7.278
62690SOL     OW89843   7.906   8.650  11.896
62690SOL    HW189844   7.884   8.653  11.803
62690SOL    HW289845   7.832   8.692  11.939
62691SOL     OW89846  14.388   0.901   1.690
62691SOL    HW189847  14.401   0.949   1.608
62691SOL    HW289848  14.322   0.835   1.668
62692SOL     OW89849  13.970  13.440  11.206
62692SOL    HW189850  14.006  13.504  11.267
62692SOL    HW289851  13.880  13.470  11.189
62693SOL     OW89852  12.651   3.469   0.857
62693SOL    HW189853  12.641   3.510   0.772
62693SOL    HW289854  12.691   3.384   0.838
62694SOL     OW89855   3.418   8.455   8.612
62694SOL    HW189856   3.417   8.375   8.665
62694SOL    HW289857   3.326   8.481   8.607
62695SOL     OW89858   7.925  14.527  12.177
62695SOL    HW189859   7.867  14.500  12.105
62695SOL    HW289860   7.865  14.565  12.242
62696SOL     OW89861   2.125  10.322   3.507
62696SOL    HW189862   2.122  10.413   3.537
62696SOL    HW289863   2.166  10.327   3.421
62697SOL     OW89864   9.408  12.435   4.508
62697SOL    HW189865   9.410  12.402   4.418
62697SOL    HW289866   9.333  12.391   4.547
62698SOL     OW89867   9.394  11.735   2.789
62698SOL    HW189868   9.362  11.707   2.704
62698SOL    HW289869   9.469  11.678   2.806
62699SOL     OW89870  11.130  11.313   3.321
62699SOL    HW189871  11.187  11.365   3.378
62699SOL    HW289872  11.151  11.222   3.343
62700SOL     OW89873   2.573   7.208   4.800
62700SOL    HW189874   2.665   7.235   4.812
62700SOL    HW289875   2.574   7.154   4.721
62701SOL     OW89876  11.743   4.916   5.952
62701SOL    HW189877  11.782   4.970   6.020
62701SOL    HW289878  11.817   4.885   5.900
62702SOL     OW89879   5.863   9.574  12.760
62702SOL    HW189880   5.905   9.653  12.727
62702SOL    HW289881   5.934   9.525  12.802
62703SOL     OW89882   3.891  10.182  10.668
62703SOL    HW189883   3.930  10.108  10.714
62703SOL    HW289884   3.826  10.143  10.610
62704SOL     OW89885  11.070  12.776   9.007
62704SOL    HW189886  11.080  12.839   8.936
62704SOL    HW289887  11.160  12.754   9.032
62705SOL     OW89888   3.790   0.489  14.811
62705SOL    HW189889   3.809   0.513   0.025
62705SOL    HW289890   3.753   0.569  14.773
62706SOL     OW89891   2.075   7.278   4.718
62706SOL    HW189892   2.045   7.299   4.629
62706SOL    HW289893   2.004   7.309   4.775
62707SOL     OW89894   3.101  13.313   7.862
62707SOL    HW189895   3.172  13.338   7.921
62707SOL    HW289896   3.021  13.322   7.915
62708SOL     OW89897   9.553   2.190  13.632
62708SOL    HW189898   9.460   2.206  13.611
62708SOL    HW289899   9.585   2.274  13.663
62709SOL     OW89900   6.429   3.330  13.826
62709SOL    HW189901   6.483   3.362  13.899
62709SOL    HW289902   6.339   3.349  13.853
62710SOL     OW89903   6.871  14.218   8.627
62710SOL    HW189904   6.948  14.241   8.680
62710SOL    HW289905   6.801  14.208   8.691
62711SOL     OW89906  10.615   3.107   9.463
62711SOL    HW189907  10.527   3.145   9.459
62711SOL    HW289908  10.673   3.183   9.473
62712SOL     OW89909   3.291   4.296   2.674
62712SOL    HW189910   3.372   4.325   2.715
62712SOL    HW289911   3.222   4.326   2.734
62713SOL     OW89912  14.106  12.370  12.420
62713SOL    HW189913  14.130  12.321  12.499
62713SOL    HW289914  14.025  12.416  12.443
62714SOL     OW89915  10.893   6.975   8.499
62714SOL    HW189916  10.912   6.904   8.561
62714SOL    HW289917  10.802   6.960   8.473
62715SOL     OW89918  14.845  11.341   5.826
62715SOL    HW189919  14.861  11.334   5.732
62715SOL    HW289920  14.771  11.282   5.843
62716SOL     OW89921  14.458   7.998   0.674
62716SOL    HW189922  14.506   7.994   0.757
62716SOL    HW289923  14.417   7.912   0.666
62717SOL     OW89924   9.998  10.864  14.079
62717SOL    HW189925  10.082  10.834  14.046
62717SOL    HW289926   9.933  10.818  14.025
62718SOL     OW89927   1.268   1.280   9.408
62718SOL    HW189928   1.308   1.363   9.435
62718SOL    HW289929   1.296   1.268   9.317
62719SOL     OW89930  11.102  10.724  14.677
62719SOL    HW189931  11.179  10.752  14.726
62719SOL    HW289932  11.029  10.769  14.719
62720SOL     OW89933  12.534   2.614  14.173
62720SOL    HW189934  12.462   2.639  14.116
62720SOL    HW289935  12.577   2.542  14.128
62721SOL     OW89936   9.344  13.865  14.587
62721SOL    HW189937   9.262  13.913  14.600
62721SOL    HW289938   9.352  13.858  14.492
62722SOL     OW89939  11.785  14.819   4.200
62722SOL    HW189940  11.759   0.028   4.169
62722SOL    HW289941  11.710  14.788   4.251
62723SOL     OW89942   0.853  12.948  14.066
62723SOL    HW189943   0.840  12.872  14.122
62723SOL    HW289944   0.945  12.944  14.040
62724SOL     OW89945   9.262   9.555   7.050
62724SOL    HW189946   9.226   9.492   6.988
62724SOL    HW289947   9.344   9.584   7.010
62725SOL     OW89948  10.394   8.144   7.230
62725SOL    HW189949  10.459   8.126   7.163
62725SOL    HW289950  10.406   8.075   7.295
62726SOL     OW89951   8.539   2.693   5.068
62726SOL    HW189952   8.551   2.786   5.051
62726SOL    HW289953   8.606   2.650   5.016
62727SOL     OW89954  14.301   4.769  13.650
62727SOL    HW189955  14.324   4.846  13.703
62727SOL    HW289956  14.295   4.803  13.561
62728SOL     OW89957   0.111  10.388  10.607
62728SOL    HW189958   0.123  10.295  10.586
62728SOL    HW289959   0.016  10.401  10.605
62729SOL     OW89960   4.058  13.287   7.950
62729SOL    HW189961   4.087  13.238   7.873
62729SOL    HW289962   4.125  13.354   7.963
62730SOL     OW89963   6.797  13.014  14.630
62730SOL    HW189964   6.762  13.031  14.543
62730SOL    HW289965   6.764  13.087  14.683
62731SOL     OW89966  14.566   1.618  13.017
62731SOL    HW189967  14.587   1.531  12.985
62731SOL    HW289968  14.556   1.671  12.937
62732SOL     OW89969  11.825   9.110  10.464
62732SOL    HW189970  11.779   9.121  10.381
62732SOL    HW289971  11.768   9.152  10.529
62733SOL     OW89972   9.396   3.293   0.505
62733SOL    HW189973   9.386   3.218   0.563
62733SOL    HW289974   9.383   3.369   0.561
62734SOL     OW89975   6.930   6.599   1.003
62734SOL    HW189976   6.901   6.510   1.026
62734SOL    HW289977   6.977   6.630   1.081
62735SOL     OW89978   7.032  11.421   8.466
62735SOL    HW189979   7.043  11.377   8.550
62735SOL    HW289980   7.016  11.350   8.404
62736SOL     OW89981   2.217   7.152  14.846
62736SOL    HW189982   2.149   7.170   0.033
62736SOL    HW289983   2.172   7.110  14.773
62737SOL     OW89984   8.975   4.888   9.877
62737SOL    HW189985   9.046   4.946   9.905
62737SOL    HW289986   8.940   4.853   9.959
62738SOL     OW89987   4.334  12.263  11.326
62738SOL    HW189988   4.312  12.173  11.349
62738SOL    HW289989   4.429  12.268  11.335
62739SOL     OW89990   8.098  14.753  12.895
62739SOL    HW189991   8.079  14.783  12.984
62739SOL    HW289992   8.015  14.718  12.864
62740SOL     OW89993   3.567   5.912   9.643
62740SOL    HW189994   3.510   5.861   9.702
62740SOL    HW289995   3.616   5.845   9.595
62741SOL     OW89996   8.834   9.415  11.575
62741SOL    HW189997   8.763   9.479  11.579
62741SOL    HW289998   8.859   9.402  11.667
62742SOL     OW89999  13.086   6.736   9.491
62742SOL    HW190000  13.027   6.749   9.565
62742SOL    HW290001  13.062   6.804   9.429
62743SOL     OW90002   4.689   8.338   0.297
62743SOL    HW190003   4.766   8.391   0.279
62743SOL    HW290004   4.627   8.362   0.228
62744SOL     OW90005  10.248  10.888   4.030
62744SOL    HW190006  10.256  10.924   4.118
62744SOL    HW290007  10.239  10.964   3.974
62745SOL     OW90008   2.853  12.740   5.899
62745SOL    HW190009   2.803  12.688   5.962
62745SOL    HW290010   2.925  12.778   5.950
62746SOL     OW90011  10.626  14.497   3.619
62746SOL    HW190012  10.600  14.578   3.576
62746SOL    HW290013  10.543  14.452   3.637
62747SOL     OW90014  14.424  10.691  10.172
62747SOL    HW190015  14.360  10.712  10.240
62747SOL    HW290016  14.509  10.698  10.216
62748SOL     OW90017   0.622   7.884  10.643
62748SOL    HW190018   0.696   7.940  10.620
62748SOL    HW290019   0.648   7.843  10.725
62749SOL     OW90020   7.182   5.541   8.059
62749SOL    HW190021   7.088   5.533   8.045
62749SOL    HW290022   7.212   5.602   7.992
62750SOL     OW90023   9.971  12.864   5.626
62750SOL    HW190024  10.038  12.833   5.687
62750SOL    HW290025  10.009  12.943   5.588
62751SOL     OW90026  10.603   3.887  13.207
62751SOL    HW190027  10.566   3.960  13.157
62751SOL    HW290028  10.598   3.915  13.298
62752SOL     OW90029  12.710   5.908   3.512
62752SOL    HW190030  12.710   5.970   3.585
62752SOL    HW290031  12.618   5.884   3.502
62753SOL     OW90032   8.813   1.834  10.495
62753SOL    HW190033   8.834   1.834  10.588
62753SOL    HW290034   8.739   1.895  10.487
62754SOL     OW90035  10.764   9.170  14.833
62754SOL    HW190036  10.734   9.237   0.017
62754SOL    HW290037  10.739   9.087  14.874
62755SOL     OW90038   1.318   4.334   9.266
62755SOL    HW190039   1.331   4.407   9.205
62755SOL    HW290040   1.237   4.354   9.311
62756SOL     OW90041   9.881   6.608   9.633
62756SOL    HW190042   9.814   6.557   9.588
62756SOL    HW290043   9.911   6.671   9.567
62757SOL     OW90044  10.603   5.180  11.083
62757SOL    HW190045  10.640   5.106  11.130
62757SOL    HW290046  10.545   5.141  11.018
62758SOL     OW90047  12.089   6.677   0.467
62758SOL    HW190048  11.997   6.653   0.479
62758SOL    HW290049  12.123   6.688   0.556
62759SOL     OW90050   9.662   3.173   4.842
62759SOL    HW190051   9.748   3.155   4.805
62759SOL    HW290052   9.677   3.181   4.936
62760SOL     OW90053   4.496   1.935  11.370
62760SOL    HW190054   4.500   1.901  11.459
62760SOL    HW290055   4.572   1.992  11.362
62761SOL     OW90056   0.449   3.435   4.641
62761SOL    HW190057   0.417   3.408   4.555
62761SOL    HW290058   0.413   3.523   4.654
62762SOL     OW90059   0.027   8.447   9.715
62762SOL    HW190060   0.015   8.449   9.810
62762SOL    HW290061   0.111   8.490   9.700
62763SOL     OW90062   5.841  11.552  11.179
62763SOL    HW190063   5.834  11.641  11.214
62763SOL    HW290064   5.930  11.547  11.144
62764SOL     OW90065   7.793   3.118   9.728
62764SOL    HW190066   7.812   3.211   9.717
62764SOL    HW290067   7.708   3.116   9.771
62765SOL     OW90068   0.861   5.408   8.524
62765SOL    HW190069   0.876   5.485   8.580
62765SOL    HW290070   0.772   5.379   8.547
62766SOL     OW90071   4.837   9.191  14.289
62766SOL    HW190072   4.875   9.209  14.203
62766SOL    HW290073   4.839   9.275  14.334
62767SOL     OW90074   1.767  13.317  13.590
62767SOL    HW190075   1.692  13.346  13.643
62767SOL    HW290076   1.839  13.374  13.617
62768SOL     OW90077   0.692   4.560  12.242
62768SOL    HW190078   0.784   4.541  12.227
62768SOL    HW290079   0.688   4.655  12.255
62769SOL     OW90080   6.891  13.858   5.625
62769SOL    HW190081   6.948  13.923   5.584
62769SOL    HW290082   6.948  13.783   5.643
62770SOL     OW90083  12.419   7.201   3.778
62770SOL    HW190084  12.507   7.162   3.784
62770SOL    HW290085  12.433   7.281   3.726
62771SOL     OW90086  10.152   7.746   0.200
62771SOL    HW190087  10.194   7.715   0.280
62771SOL    HW290088  10.190   7.693   0.131
62772SOL     OW90089   6.441  10.845   7.783
62772SOL    HW190090   6.447  10.878   7.694
62772SOL    HW290091   6.484  10.760   7.780
62773SOL     OW90092   2.803   5.593   6.984
62773SOL    HW190093   2.759   5.675   6.964
62773SOL    HW290094   2.895   5.615   6.991
62774SOL     OW90095   3.497  13.157   2.332
62774SOL    HW190096   3.567  13.182   2.271
62774SOL    HW290097   3.420  13.203   2.300
62775SOL     OW90098   1.093   4.891  10.329
62775SOL    HW190099   1.134   4.839  10.260
62775SOL    HW290100   1.166   4.938  10.370
62776SOL     OW90101  12.974  10.304   4.506
62776SOL    HW190102  13.061  10.304   4.546
62776SOL    HW290103  12.924  10.365   4.560
62777SOL     OW90104   4.573   6.082   9.560
62777SOL    HW190105   4.510   6.146   9.527
62777SOL    HW290106   4.588   6.023   9.486
62778SOL     OW90107   3.675   0.524  12.039
62778SOL    HW190108   3.674   0.528  12.134
62778SOL    HW290109   3.608   0.460  12.016
62779SOL     OW90110  12.665   6.703   0.539
62779SOL    HW190111  12.661   6.788   0.583
62779SOL    HW290112  12.587   6.657   0.571
62780SOL     OW90113   7.204   5.750   9.747
62780SOL    HW190114   7.236   5.669   9.786
62780SOL    HW290115   7.242   5.751   9.659
62781SOL     OW90116   6.816  10.218  13.323
62781SOL    HW190117   6.779  10.205  13.236
62781SOL    HW290118   6.892  10.276  13.309
62782SOL     OW90119  12.086   1.144   1.736
62782SOL    HW190120  12.145   1.160   1.662
62782SOL    HW290121  12.144   1.132   1.811
62783SOL     OW90122   4.622  13.054   0.883
62783SOL    HW190123   4.680  12.984   0.855
62783SOL    HW290124   4.605  13.036   0.976
62784SOL     OW90125   8.560   8.787   1.975
62784SOL    HW190126   8.625   8.848   2.009
62784SOL    HW290127   8.590   8.701   2.006
62785SOL     OW90128   9.700  14.767   4.137
62785SOL    HW190129   9.750  14.808   4.067
62785SOL    HW290130   9.686  14.677   4.108
62786SOL     OW90131   1.649   5.316   4.910
62786SOL    HW190132   1.649   5.365   4.993
62786SOL    HW290133   1.610   5.377   4.847
62787SOL     OW90134  10.285   5.277   9.126
62787SOL    HW190135  10.211   5.217   9.115
62787SOL    HW290136  10.285   5.330   9.046
62788SOL     OW90137   3.569   4.532   2.980
62788SOL    HW190138   3.515   4.584   3.041
62788SOL    HW290139   3.626   4.481   3.037
62789SOL     OW90140  12.510   0.395   0.066
62789SOL    HW190141  12.497   0.472   0.121
62789SOL    HW290142  12.597   0.408   0.027
62790SOL     OW90143  12.248   7.450   4.762
62790SOL    HW190144  12.310   7.494   4.819
62790SOL    HW290145  12.257   7.495   4.678
62791SOL     OW90146   2.162  12.903  10.569
62791SOL    HW190147   2.122  12.935  10.488
62791SOL    HW290148   2.231  12.966  10.588
62792SOL     OW90149   1.166   3.388   5.125
62792SOL    HW190150   1.249   3.436   5.131
62792SOL    HW290151   1.186   3.313   5.068
62793SOL     OW90152   5.363   7.877   6.601
62793SOL    HW190153   5.332   7.950   6.548
62793SOL    HW290154   5.319   7.800   6.564
62794SOL     OW90155   0.069   2.107  10.638
62794SOL    HW190156   0.056   2.201  10.649
62794SOL    HW290157   0.024   2.086  10.556
62795SOL     OW90158   0.203   8.270   5.259
62795SOL    HW190159   0.289   8.297   5.227
62795SOL    HW290160   0.220   8.225   5.341
62796SOL     OW90161   9.293  10.706   2.381
62796SOL    HW190162   9.222  10.666   2.431
62796SOL    HW290163   9.357  10.635   2.371
62797SOL     OW90164  14.225   2.117   1.141
62797SOL    HW190165  14.265   2.184   1.085
62797SOL    HW290166  14.186   2.166   1.213
62798SOL     OW90167  12.951   5.034  12.864
62798SOL    HW190168  12.954   5.130  12.863
62798SOL    HW290169  12.860   5.012  12.845
62799SOL     OW90170   3.981   9.777  11.620
62799SOL    HW190171   3.910   9.715  11.636
62799SOL    HW290172   3.947   9.861  11.651
62800SOL     OW90173   7.641   3.459   6.044
62800SOL    HW190174   7.653   3.415   6.128
62800SOL    HW290175   7.617   3.549   6.067
62801SOL     OW90176   8.794   5.865   8.189
62801SOL    HW190177   8.819   5.944   8.140
62801SOL    HW290178   8.737   5.897   8.259
62802SOL     OW90179   9.433   0.202   5.532
62802SOL    HW190180   9.425   0.225   5.625
62802SOL    HW290181   9.487   0.123   5.531
62803SOL     OW90182   8.307  14.868   8.090
62803SOL    HW190183   8.343  14.798   8.036
62803SOL    HW290184   8.224   0.013   8.048
62804SOL     OW90185  13.817   4.434  14.038
62804SOL    HW190186  13.857   4.489  14.106
62804SOL    HW290187  13.812   4.347  14.078
62805SOL     OW90188   3.972   7.519   8.474
62805SOL    HW190189   3.948   7.430   8.452
62805SOL    HW290190   3.964   7.524   8.569
62806SOL     OW90191   9.966   9.504   6.568
62806SOL    HW190192   9.890   9.448   6.550
62806SOL    HW290193   9.988   9.543   6.484
62807SOL     OW90194   4.494   7.832  13.443
62807SOL    HW190195   4.495   7.785  13.360
62807SOL    HW290196   4.449   7.914  13.423
62808SOL     OW90197  12.330   6.520   9.422
62808SOL    HW190198  12.240   6.494   9.441
62808SOL    HW290199  12.379   6.438   9.417
62809SOL     OW90200   0.943   7.782   7.107
62809SOL    HW190201   0.940   7.866   7.153
62809SOL    HW290202   0.938   7.804   7.015
62810SOL     OW90203  13.574   1.947   3.508
62810SOL    HW190204  13.485   1.978   3.527
62810SOL    HW290205  13.581   1.950   3.412
62811SOL     OW90206   2.805   7.782  12.864
62811SOL    HW190207   2.887   7.733  12.873
62811SOL    HW290208   2.788   7.816  12.952
62812SOL     OW90209  14.267   1.552  11.620
62812SOL    HW190210  14.303   1.568  11.533
62812SOL    HW290211  14.343   1.525  11.672
62813SOL     OW90212  10.073  13.968   8.503
62813SOL    HW190213  10.166  13.950   8.496
62813SOL    HW290214  10.056  13.974   8.597
62814SOL     OW90215  10.025   2.782  12.225
62814SOL    HW190216  10.022   2.692  12.257
62814SOL    HW290217  10.059   2.775  12.136
62815SOL     OW90218   1.844  10.678   9.760
62815SOL    HW190219   1.804  10.680   9.847
62815SOL    HW290220   1.871  10.768   9.743
62816SOL     OW90221   6.424   6.350   8.628
62816SOL    HW190222   6.347   6.391   8.589
62816SOL    HW290223   6.465   6.302   8.556
62817SOL     OW90224   6.071   6.456   5.897
62817SOL    HW190225   6.155   6.442   5.939
62817SOL    HW290226   6.090   6.512   5.822
62818SOL     OW90227   6.647  13.564   0.500
62818SOL    HW190228   6.622  13.597   0.586
62818SOL    HW290229   6.630  13.636   0.440
62819SOL     OW90230   7.574   0.409  13.270
62819SOL    HW190231   7.524   0.345  13.219
62819SOL    HW290232   7.540   0.401  13.359
62820SOL     OW90233  14.823   9.570   2.107
62820SOL    HW190234  14.763   9.496   2.093
62820SOL    HW290235  14.766   9.644   2.127
62821SOL     OW90236  12.457   6.379   8.893
62821SOL    HW190237  12.489   6.322   8.823
62821SOL    HW290238  12.496   6.345   8.973
62822SOL     OW90239   3.185   5.340   3.571
62822SOL    HW190240   3.273   5.333   3.535
62822SOL    HW290241   3.145   5.414   3.525
62823SOL     OW90242  12.041   6.606   4.878
62823SOL    HW190243  12.136   6.591   4.871
62823SOL    HW290244  12.032   6.701   4.880
62824SOL     OW90245  12.951   2.415   4.029
62824SOL    HW190246  13.039   2.388   4.001
62824SOL    HW290247  12.943   2.380   4.118
62825SOL     OW90248  12.539   8.301   1.518
62825SOL    HW190249  12.553   8.207   1.534
62825SOL    HW290250  12.532   8.339   1.606
62826SOL     OW90251   0.623  10.168   4.999
62826SOL    HW190252   0.559  10.238   5.012
62826SOL    HW290253   0.691  10.186   5.064
62827SOL     OW90254   0.992  12.124   9.098
62827SOL    HW190255   1.062  12.071   9.134
62827SOL    HW290256   1.033  12.209   9.080
62828SOL     OW90257   1.811   9.171  13.983
62828SOL    HW190258   1.820   9.215  13.899
62828SOL    HW290259   1.898   9.132  13.999
62829SOL     OW90260   7.503  10.435   0.833
62829SOL    HW190261   7.458  10.459   0.752
62829SOL    HW290262   7.438  10.386   0.884
62830SOL     OW90263  11.641  11.954  11.547
62830SOL    HW190264  11.709  11.893  11.520
62830SOL    HW290265  11.653  11.963  11.641
62831SOL     OW90266   7.729  11.050   2.044
62831SOL    HW190267   7.665  11.092   2.100
62831SOL    HW290268   7.680  10.982   1.998
62832SOL     OW90269   7.292   5.428   5.661
62832SOL    HW190270   7.215   5.437   5.605
62832SOL    HW290271   7.259   5.448   5.749
62833SOL     OW90272  10.278  12.695   2.531
62833SOL    HW190273  10.250  12.699   2.440
62833SOL    HW290274  10.305  12.785   2.552
62834SOL     OW90275  11.116   5.683  11.433
62834SOL    HW190276  11.169   5.732  11.370
62834SOL    HW290277  11.167   5.604  11.452
62835SOL     OW90278   7.883  13.885   4.562
62835SOL    HW190279   7.837  13.812   4.606
62835SOL    HW290280   7.976  13.868   4.577
62836SOL     OW90281   6.747  10.918  11.689
62836SOL    HW190282   6.780  10.992  11.740
62836SOL    HW290283   6.705  10.861  11.753
62837SOL     OW90284  11.872   5.385   9.417
62837SOL    HW190285  11.887   5.312   9.357
62837SOL    HW290286  11.886   5.464   9.365
62838SOL     OW90287   0.260   6.104   6.597
62838SOL    HW190288   0.214   6.101   6.681
62838SOL    HW290289   0.311   6.023   6.595
62839SOL     OW90290  14.877   0.769  10.732
62839SOL    HW190291   0.072   0.777  10.670
62839SOL    HW290292  14.802   0.810  10.687
62840SOL     OW90293   5.642   2.740  14.671
62840SOL    HW190294   5.598   2.679  14.729
62840SOL    HW290295   5.594   2.734  14.588
62841SOL     OW90296  11.085  13.705   7.893
62841SOL    HW190297  11.140  13.627   7.887
62841SOL    HW290298  11.087  13.728   7.986
62842SOL     OW90299   1.272   6.182   9.656
62842SOL    HW190300   1.309   6.266   9.685
62842SOL    HW290301   1.220   6.152   9.731
62843SOL     OW90302   6.672   7.747   4.999
62843SOL    HW190303   6.695   7.836   4.976
62843SOL    HW290304   6.578   7.751   5.018
62844SOL     OW90305  10.382   0.194   1.696
62844SOL    HW190306  10.308   0.181   1.755
62844SOL    HW290307  10.352   0.259   1.633
62845SOL     OW90308  10.508   7.325   5.704
62845SOL    HW190309  10.555   7.405   5.680
62845SOL    HW290310  10.566   7.253   5.678
62846SOL     OW90311  13.403   9.663  10.174
62846SOL    HW190312  13.432   9.679  10.264
62846SOL    HW290313  13.484   9.662  10.123
62847SOL     OW90314   6.428   1.297   6.869
62847SOL    HW190315   6.499   1.290   6.933
62847SOL    HW290316   6.468   1.342   6.794
62848SOL     OW90317  13.771   9.232   7.449
62848SOL    HW190318  13.773   9.166   7.519
62848SOL    HW290319  13.746   9.182   7.371
62849SOL     OW90320   4.661  11.405   3.103
62849SOL    HW190321   4.677  11.420   3.196
62849SOL    HW290322   4.607  11.479   3.076
62850SOL     OW90323   8.590   9.077   2.097
62850SOL    HW190324   8.636   9.064   2.180
62850SOL    HW290325   8.637   9.149   2.055
62851SOL     OW90326  11.885   7.334   1.888
62851SOL    HW190327  11.938   7.265   1.848
62851SOL    HW290328  11.899   7.324   1.982
62852SOL     OW90329   1.499  14.328   8.588
62852SOL    HW190330   1.582  14.324   8.635
62852SOL    HW290331   1.486  14.239   8.554
62853SOL     OW90332  14.108   0.755  11.460
62853SOL    HW190333  14.183   0.711  11.420
62853SOL    HW290334  14.147   0.815  11.524
62854SOL     OW90335  13.764   8.072  13.826
62854SOL    HW190336  13.798   8.073  13.915
62854SOL    HW290337  13.755   7.979  13.805
62855SOL     OW90338   9.633   3.521  13.694
62855SOL    HW190339   9.544   3.545  13.666
62855SOL    HW290340   9.651   3.438  13.650
62856SOL     OW90341   0.366  13.646  14.466
62856SOL    HW190342   0.291  13.598  14.432
62856SOL    HW290343   0.426  13.653  14.391
62857SOL     OW90344   7.179   5.284  14.106
62857SOL    HW190345   7.084   5.292  14.099
62857SOL    HW290346   7.211   5.374  14.109
62858SOL     OW90347   1.249   5.098   9.383
62858SOL    HW190348   1.169   5.045   9.378
62858SOL    HW290349   1.319   5.035   9.366
62859SOL     OW90350   8.875   2.959   0.662
62859SOL    HW190351   8.781   2.980   0.660
62859SOL    HW290352   8.901   2.977   0.753
62860SOL     OW90353  10.132  14.643  10.288
62860SOL    HW190354  10.093  14.717  10.334
62860SOL    HW290355  10.058  14.592  10.255
62861SOL     OW90356   4.565   2.292  10.169
62861SOL    HW190357   4.614   2.211  10.184
62861SOL    HW290358   4.601   2.354  10.233
62862SOL     OW90359  13.937   3.277   3.965
62862SOL    HW190360  13.852   3.318   3.949
62862SOL    HW290361  13.917   3.199   4.017
62863SOL     OW90362   7.090   4.483   2.136
62863SOL    HW190363   7.064   4.572   2.159
62863SOL    HW290364   7.149   4.456   2.207
62864SOL     OW90365   7.124  12.664  14.129
62864SOL    HW190366   7.103  12.571  14.121
62864SOL    HW290367   7.126  12.680  14.223
62865SOL     OW90368   8.221  10.859  12.103
62865SOL    HW190369   8.276  10.931  12.133
62865SOL    HW290370   8.281  10.798  12.061
62866SOL     OW90371   9.748   5.958   3.629
62866SOL    HW190372   9.821   5.948   3.567
62866SOL    HW290373   9.775   5.909   3.707
62867SOL     OW90374   9.846  13.351   3.207
62867SOL    HW190375   9.843  13.362   3.112
62867SOL    HW290376   9.873  13.260   3.220
62868SOL     OW90377   7.745  10.728  13.437
62868SOL    HW190378   7.753  10.646  13.387
62868SOL    HW290379   7.828  10.736  13.484
62869SOL     OW90380   6.892   3.505   8.439
62869SOL    HW190381   6.901   3.412   8.457
62869SOL    HW290382   6.957   3.548   8.495
62870SOL     OW90383   3.616  14.559   5.799
62870SOL    HW190384   3.634  14.472   5.835
62870SOL    HW290385   3.540  14.589   5.849
62871SOL     OW90386  11.436   1.795  12.047
62871SOL    HW190387  11.392   1.879  12.037
62871SOL    HW290388  11.472   1.797  12.136
62872SOL     OW90389   1.066   9.595  13.790
62872SOL    HW190390   1.095   9.677  13.749
62872SOL    HW290391   1.133   9.577  13.857
62873SOL     OW90392   1.289   3.566   0.064
62873SOL    HW190393   1.221   3.633   0.057
62873SOL    HW290394   1.369   3.616   0.080
62874SOL     OW90395  11.371   9.238   6.249
62874SOL    HW190396  11.435   9.168   6.235
62874SOL    HW290397  11.424   9.317   6.260
62875SOL     OW90398  13.184  11.452   0.460
62875SOL    HW190399  13.219  11.519   0.519
62875SOL    HW290400  13.234  11.463   0.379
62876SOL     OW90401  10.591   9.539   9.143
62876SOL    HW190402  10.516   9.598   9.150
62876SOL    HW290403  10.648   9.581   9.079
62877SOL     OW90404   7.784  12.187   2.247
62877SOL    HW190405   7.820  12.121   2.188
62877SOL    HW290406   7.744  12.252   2.190
62878SOL     OW90407   4.843   2.540   6.997
62878SOL    HW190408   4.822   2.465   6.940
62878SOL    HW290409   4.939   2.543   6.999
62879SOL     OW90410  12.401   7.957   3.314
62879SOL    HW190411  12.400   7.862   3.317
62879SOL    HW290412  12.353   7.984   3.393
62880SOL     OW90413   3.935  10.429  10.541
62880SOL    HW190414   4.017  10.420  10.493
62880SOL    HW290415   3.931  10.352  10.598
62881SOL     OW90416   5.369   8.301  10.747
62881SOL    HW190417   5.346   8.390  10.773
62881SOL    HW290418   5.454   8.310  10.702
62882SOL     OW90419   5.641   8.130   1.745
62882SOL    HW190420   5.701   8.098   1.678
62882SOL    HW290421   5.571   8.174   1.696
62883SOL     OW90422   8.164  14.100   6.285
62883SOL    HW190423   8.131  14.039   6.351
62883SOL    HW290424   8.220  14.161   6.333
62884SOL     OW90425   7.164   6.653  12.228
62884SOL    HW190426   7.120   6.589  12.172
62884SOL    HW290427   7.174   6.730  12.173
62885SOL     OW90428   5.220   7.306  10.882
62885SOL    HW190429   5.226   7.219  10.843
62885SOL    HW290430   5.304   7.346  10.862
62886SOL     OW90431   3.476  10.417  11.735
62886SOL    HW190432   3.571  10.415  11.728
62886SOL    HW290433   3.447  10.462  11.656
62887SOL     OW90434   2.467  10.365   6.346
62887SOL    HW190435   2.451  10.385   6.254
62887SOL    HW290436   2.540  10.305   6.345
62888SOL     OW90437   5.790   3.669   3.522
62888SOL    HW190438   5.756   3.594   3.570
62888SOL    HW290439   5.884   3.649   3.512
62889SOL     OW90440   2.133  12.245  12.228
62889SOL    HW190441   2.201  12.313  12.225
62889SOL    HW290442   2.164  12.183  12.294
62890SOL     OW90443   6.873  11.492   6.593
62890SOL    HW190444   6.951  11.438   6.607
62890SOL    HW290445   6.892  11.574   6.639
62891SOL     OW90446   0.655   8.529  11.253
62891SOL    HW190447   0.730   8.501  11.305
62891SOL    HW290448   0.623   8.608  11.297
62892SOL     OW90449   0.927   1.345  12.174
62892SOL    HW190450   0.955   1.327  12.263
62892SOL    HW290451   0.922   1.258  12.132
62893SOL     OW90452  11.471  14.052  13.419
62893SOL    HW190453  11.404  14.059  13.488
62893SOL    HW290454  11.540  13.998  13.458
62894SOL     OW90455   1.815  11.012   5.841
62894SOL    HW190456   1.786  11.061   5.763
62894SOL    HW290457   1.858  11.078   5.896
62895SOL     OW90458   5.612   3.083   3.094
62895SOL    HW190459   5.700   3.083   3.132
62895SOL    HW290460   5.554   3.097   3.169
62896SOL     OW90461   8.190   2.330   6.088
62896SOL    HW190462   8.157   2.241   6.101
62896SOL    HW290463   8.243   2.325   6.009
62897SOL     OW90464   5.470   8.873   2.091
62897SOL    HW190465   5.507   8.786   2.073
62897SOL    HW290466   5.472   8.881   2.186
62898SOL     OW90467   5.483   5.253  14.021
62898SOL    HW190468   5.509   5.313  13.951
62898SOL    HW290469   5.388   5.246  14.012
62899SOL     OW90470   6.466   1.714   4.840
62899SOL    HW190471   6.506   1.736   4.756
62899SOL    HW290472   6.500   1.780   4.901
62900SOL     OW90473   4.005  10.154   6.513
62900SOL    HW190474   3.945  10.189   6.448
62900SOL    HW290475   4.072  10.109   6.462
62901SOL     OW90476   1.677   0.263  10.772
62901SOL    HW190477   1.728   0.182  10.774
62901SOL    HW290478   1.740   0.332  10.791
62902SOL     OW90479  11.213   1.471   1.982
62902SOL    HW190480  11.235   1.381   1.958
62902SOL    HW290481  11.121   1.466   2.009
62903SOL     OW90482   5.444  10.007  11.795
62903SOL    HW190483   5.457  10.065  11.720
62903SOL    HW290484   5.491   9.927  11.772
62904SOL     OW90485   8.539  14.841   1.027
62904SOL    HW190486   8.605  14.833   1.095
62904SOL    HW290487   8.470   0.017   1.066
62905SOL     OW90488   5.274   1.031  12.866
62905SOL    HW190489   5.305   1.119  12.844
62905SOL    HW290490   5.262   1.032  12.961
62906SOL     OW90491   7.075  14.250   1.992
62906SOL    HW190492   7.007  14.185   1.973
62906SOL    HW290493   7.060  14.276   2.083
62907SOL     OW90494   8.713   7.028   8.584
62907SOL    HW190495   8.687   7.107   8.632
62907SOL    HW290496   8.806   7.019   8.603
62908SOL     OW90497  11.675   7.991   1.482
62908SOL    HW190498  11.733   7.920   1.458
62908SOL    HW290499  11.652   7.973   1.574
62909SOL     OW90500   7.272  12.057   3.270
62909SOL    HW190501   7.269  12.119   3.343
62909SOL    HW290502   7.183  12.054   3.237
62910SOL     OW90503  13.774   6.878   5.477
62910SOL    HW190504  13.726   6.919   5.405
62910SOL    HW290505  13.846   6.939   5.495
62911SOL     OW90506   1.822  12.031   6.925
62911SOL    HW190507   1.785  11.945   6.905
62911SOL    HW290508   1.766  12.093   6.877
62912SOL     OW90509   3.150  14.564   9.545
62912SOL    HW190510   3.241  14.545   9.567
62912SOL    HW290511   3.147  14.559   9.449
62913SOL     OW90512   8.390   7.523  10.698
62913SOL    HW190513   8.475   7.520  10.743
62913SOL    HW290514   8.373   7.432  10.673
62914SOL     OW90515  11.300   3.460   3.244
62914SOL    HW190516  11.247   3.415   3.309
62914SOL    HW290517  11.297   3.552   3.270
62915SOL     OW90518   7.779  10.326   7.795
62915SOL    HW190519   7.734  10.313   7.712
62915SOL    HW290520   7.783  10.421   7.805
62916SOL     OW90521   5.783  14.166   2.253
62916SOL    HW190522   5.781  14.208   2.338
62916SOL    HW290523   5.795  14.238   2.191
62917SOL     OW90524   0.326   1.252   6.085
62917SOL    HW190525   0.417   1.268   6.060
62917SOL    HW290526   0.316   1.157   6.081
62918SOL     OW90527   2.778   9.404  13.507
62918SOL    HW190528   2.700   9.418  13.560
62918SOL    HW290529   2.846   9.454  13.552
62919SOL     OW90530  13.421  11.828   3.743
62919SOL    HW190531  13.435  11.736   3.722
62919SOL    HW290532  13.422  11.830   3.839
62920SOL     OW90533   4.027   5.520  10.428
62920SOL    HW190534   3.950   5.557  10.385
62920SOL    HW290535   4.023   5.553  10.517
62921SOL     OW90536   4.775   5.840  10.382
62921SOL    HW190537   4.704   5.837  10.318
62921SOL    HW290538   4.837   5.904  10.346
62922SOL     OW90539   2.313  14.377  10.811
62922SOL    HW190540   2.234  14.330  10.784
62922SOL    HW290541   2.385  14.325  10.775
62923SOL     OW90542   1.790   9.207   9.837
62923SOL    HW190543   1.769   9.166   9.753
62923SOL    HW290544   1.876   9.173   9.860
62924SOL     OW90545   7.718   7.819  13.249
62924SOL    HW190546   7.802   7.864  13.240
62924SOL    HW290547   7.734   7.731  13.216
62925SOL     OW90548   3.829  13.156   5.859
62925SOL    HW190549   3.861  13.220   5.923
62925SOL    HW290550   3.806  13.079   5.911
62926SOL     OW90551   2.978   9.897  10.976
62926SOL    HW190552   2.905   9.882  10.916
62926SOL    HW290553   2.942   9.954  11.044
62927SOL     OW90554   3.365   1.010   7.672
62927SOL    HW190555   3.350   1.009   7.767
62927SOL    HW290556   3.362   1.102   7.648
62928SOL     OW90557   0.940   1.701   0.743
62928SOL    HW190558   0.850   1.720   0.770
62928SOL    HW290559   0.965   1.776   0.689
62929SOL     OW90560   9.639  13.822  10.769
62929SOL    HW190561   9.657  13.916  10.770
62929SOL    HW290562   9.568  13.813  10.705
62930SOL     OW90563   8.276   9.022  11.189
62930SOL    HW190564   8.327   8.975  11.255
62930SOL    HW290565   8.340   9.074  11.141
62931SOL     OW90566  13.987   8.554  11.487
62931SOL    HW190567  14.021   8.633  11.446
62931SOL    HW290568  13.892   8.562  11.481
62932SOL     OW90569  12.713   3.875   0.377
62932SOL    HW190570  12.773   3.845   0.445
62932SOL    HW290571  12.711   3.803   0.314
62933SOL     OW90572   3.404   6.504  14.375
62933SOL    HW190573   3.449   6.588  14.385
62933SOL    HW290574   3.384   6.476  14.464
62934SOL     OW90575   0.722   7.322  13.328
62934SOL    HW190576   0.679   7.252  13.377
62934SOL    HW290577   0.696   7.402  13.374
62935SOL     OW90578   0.164   9.950   0.188
62935SOL    HW190579   0.231   9.897   0.232
62935SOL    HW290580   0.212   9.996   0.120
62936SOL     OW90581   3.036  11.885  12.610
62936SOL    HW190582   3.123  11.846  12.601
62936SOL    HW290583   3.052  11.980  12.608
62937SOL     OW90584  10.085  10.205  13.014
62937SOL    HW190585  10.117  10.255  12.939
62937SOL    HW290586  10.150  10.219  13.082
62938SOL     OW90587  10.552  13.531  14.680
62938SOL    HW190588  10.612  13.462  14.708
62938SOL    HW290589  10.596  13.612  14.704
62939SOL     OW90590   4.075   9.384   1.670
62939SOL    HW190591   4.065   9.307   1.727
62939SOL    HW290592   4.012   9.371   1.600
62940SOL     OW90593  12.595   7.381  14.770
62940SOL    HW190594  12.689   7.370  14.757
62940SOL    HW290595  12.555   7.307  14.724
62941SOL     OW90596   4.207   0.829   9.767
62941SOL    HW190597   4.193   0.802   9.857
62941SOL    HW290598   4.134   0.791   9.718
62942SOL     OW90599   3.472   9.478   3.089
62942SOL    HW190600   3.473   9.560   3.040
62942SOL    HW290601   3.564   9.453   3.097
62943SOL     OW90602  12.306   8.269   5.350
62943SOL    HW190603  12.391   8.257   5.394
62943SOL    HW290604  12.297   8.191   5.295
62944SOL     OW90605   0.242   0.873   8.952
62944SOL    HW190606   0.333   0.885   8.978
62944SOL    HW290607   0.212   0.800   9.007
62945SOL     OW90608  10.534  10.930  12.861
62945SOL    HW190609  10.503  11.006  12.910
62945SOL    HW290610  10.611  10.961  12.814
62946SOL     OW90611   0.996   0.798   2.981
62946SOL    HW190612   1.089   0.820   2.988
62946SOL    HW290613   0.993   0.722   2.924
62947SOL     OW90614  14.228   0.312   1.352
62947SOL    HW190615  14.195   0.343   1.437
62947SOL    HW290616  14.189   0.226   1.341
62948SOL     OW90617  13.674   1.876   4.102
62948SOL    HW190618  13.651   1.879   4.009
62948SOL    HW290619  13.612   1.936   4.144
62949SOL     OW90620   9.815   1.068   0.044
62949SOL    HW190621   9.840   1.154   0.011
62949SOL    HW290622   9.878   1.008   0.003
62950SOL     OW90623   7.401   8.017  11.967
62950SOL    HW190624   7.342   8.023  11.892
62950SOL    HW290625   7.467   7.953  11.941
62951SOL     OW90626   1.130  10.617  11.608
62951SOL    HW190627   1.090  10.535  11.639
62951SOL    HW290628   1.062  10.683  11.619
62952SOL     OW90629  11.765   6.115  11.282
62952SOL    HW190630  11.794   6.072  11.202
62952SOL    HW290631  11.670   6.122  11.272
62953SOL     OW90632   1.003  13.120  11.533
62953SOL    HW190633   0.908  13.122  11.525
62953SOL    HW290634   1.020  13.061  11.607
62954SOL     OW90635  11.785   5.072  11.995
62954SOL    HW190636  11.759   5.074  11.903
62954SOL    HW290637  11.727   5.134  12.038
62955SOL     OW90638   3.108   5.554  13.228
62955SOL    HW190639   3.038   5.562  13.162
62955SOL    HW290640   3.184   5.596  13.188
62956SOL     OW90641   0.368  12.337   0.618
62956SOL    HW190642   0.365  12.346   0.523
62956SOL    HW290643   0.421  12.412   0.647
62957SOL     OW90644   1.290  13.126   5.473
62957SOL    HW190645   1.241  13.101   5.395
62957SOL    HW290646   1.344  13.049   5.492
62958SOL     OW90647   1.358   0.444   3.676
62958SOL    HW190648   1.438   0.478   3.635
62958SOL    HW290649   1.389   0.398   3.754
62959SOL     OW90650   0.470   0.234   7.996
62959SOL    HW190651   0.503   0.321   7.973
62959SOL    HW290652   0.413   0.210   7.923
62960SOL     OW90653  10.928   6.206  13.835
62960SOL    HW190654  10.891   6.278  13.886
62960SOL    HW290655  11.003   6.244  13.790
62961SOL     OW90656   4.497   0.043   8.973
62961SOL    HW190657   4.480   0.060   9.065
62961SOL    HW290658   4.411   0.049   8.931
62962SOL     OW90659   1.599   7.276  12.424
62962SOL    HW190660   1.532   7.279  12.355
62962SOL    HW290661   1.559   7.223  12.493
62963SOL     OW90662   9.277   9.208   4.329
62963SOL    HW190663   9.183   9.189   4.325
62963SOL    HW290664   9.318   9.122   4.334
62964SOL     OW90665   4.925   0.044   9.934
62964SOL    HW190666   4.956   0.135   9.930
62964SOL    HW290667   4.944   0.008   9.848
62965SOL     OW90668  10.364   4.917   6.249
62965SOL    HW190669  10.304   4.960   6.188
62965SOL    HW290670  10.418   4.988   6.284
62966SOL     OW90671  14.564   8.572   2.302
62966SOL    HW190672  14.580   8.640   2.237
62966SOL    HW290673  14.624   8.501   2.278
62967SOL     OW90674   6.488  14.492   0.858
62967SOL    HW190675   6.469  14.585   0.866
62967SOL    HW290676   6.551  14.474   0.928
62968SOL     OW90677   0.898   4.642   5.471
62968SOL    HW190678   0.935   4.631   5.559
62968SOL    HW290679   0.861   4.730   5.471
62969SOL     OW90680  11.694  11.485   9.992
62969SOL    HW190681  11.716  11.445  10.076
62969SOL    HW290682  11.706  11.579  10.006
62970SOL     OW90683   8.825   1.526   4.983
62970SOL    HW190684   8.797   1.613   4.954
62970SOL    HW290685   8.793   1.467   4.915
62971SOL     OW90686   7.185   3.303   8.755
62971SOL    HW190687   7.241   3.331   8.828
62971SOL    HW290688   7.240   3.309   8.678
62972SOL     OW90689   6.868  10.265  12.452
62972SOL    HW190690   6.941  10.205  12.441
62972SOL    HW290691   6.791  10.209  12.452
62973SOL     OW90692   1.385   7.658  13.758
62973SOL    HW190693   1.465   7.705  13.736
62973SOL    HW290694   1.410   7.597  13.828
62974SOL     OW90695  11.961  14.147  12.846
62974SOL    HW190696  11.976  14.229  12.893
62974SOL    HW290697  11.874  14.157  12.807
62975SOL     OW90698   0.843   2.821  12.523
62975SOL    HW190699   0.861   2.912  12.497
62975SOL    HW290700   0.885   2.813  12.609
62976SOL     OW90701  14.027   6.649   6.043
62976SOL    HW190702  14.013   6.569   6.094
62976SOL    HW290703  14.080   6.622   5.969
62977SOL     OW90704   0.129   9.139   8.976
62977SOL    HW190705   0.219   9.170   8.982
62977SOL    HW290706   0.102   9.129   9.068
62978SOL     OW90707   0.028  10.200   3.750
62978SOL    HW190708   0.114  10.171   3.720
62978SOL    HW290709  14.859  10.119   3.768
62979SOL     OW90710   5.029   1.975   2.206
62979SOL    HW190711   4.987   2.047   2.254
62979SOL    HW290712   4.976   1.965   2.126
62980SOL     OW90713   3.866  10.427  14.689
62980SOL    HW190714   3.915  10.432  14.607
62980SOL    HW290715   3.883  10.511  14.733
62981SOL     OW90716   9.078   4.454  12.746
62981SOL    HW190717   8.984   4.444  12.759
62981SOL    HW290718   9.117   4.391  12.806
62982SOL     OW90719   0.578  12.585   9.901
62982SOL    HW190720   0.588  12.653   9.967
62982SOL    HW290721   0.483  12.573   9.893
62983SOL     OW90722  12.544   4.721   7.905
62983SOL    HW190723  12.474   4.658   7.918
62983SOL    HW290724  12.590   4.724   7.989
62984SOL     OW90725  11.267   0.660  14.016
62984SOL    HW190726  11.222   0.719  14.077
62984SOL    HW290727  11.306   0.719  13.952
62985SOL     OW90728   9.585   4.319   2.235
62985SOL    HW190729   9.657   4.374   2.204
62985SOL    HW290730   9.600   4.310   2.329
62986SOL     OW90731   2.233   7.140   1.199
62986SOL    HW190732   2.186   7.190   1.266
62986SOL    HW290733   2.266   7.063   1.245
62987SOL     OW90734  12.444   2.169   0.730
62987SOL    HW190735  12.453   2.076   0.708
62987SOL    HW290736  12.534   2.201   0.733
62988SOL     OW90737   9.461   7.503   2.353
62988SOL    HW190738   9.479   7.593   2.379
62988SOL    HW290739   9.474   7.503   2.258
62989SOL     OW90740  11.423   5.350   5.206
62989SOL    HW190741  11.459   5.350   5.295
62989SOL    HW290742  11.329   5.338   5.219
62990SOL     OW90743   9.453   4.164   2.519
62990SOL    HW190744   9.501   4.212   2.586
62990SOL    HW290745   9.401   4.100   2.568
62991SOL     OW90746   2.035   8.231  13.057
62991SOL    HW190747   1.998   8.265  12.975
62991SOL    HW290748   1.963   8.235  13.119
62992SOL     OW90749  12.760  13.534   5.623
62992SOL    HW190750  12.765  13.439   5.608
62992SOL    HW290751  12.676  13.546   5.666
62993SOL     OW90752   8.981   7.269  14.015
62993SOL    HW190753   8.945   7.201  14.071
62993SOL    HW290754   9.061   7.298  14.059
62994SOL     OW90755   5.918   7.695  14.725
62994SOL    HW190756   6.009   7.701  14.696
62994SOL    HW290757   5.915   7.618  14.781
62995SOL     OW90758   0.206   3.024  12.044
62995SOL    HW190759   0.254   2.998  11.965
62995SOL    HW290760   0.213   3.119  12.047
62996SOL     OW90761   5.456   8.479  14.699
62996SOL    HW190762   5.532   8.422  14.689
62996SOL    HW290763   5.483   8.562  14.661
62997SOL     OW90764  12.953   7.256   4.806
62997SOL    HW190765  12.977   7.338   4.848
62997SOL    HW290766  13.023   7.240   4.742
62998SOL     OW90767   5.197   4.153   2.172
62998SOL    HW190768   5.270   4.166   2.112
62998SOL    HW290769   5.226   4.084   2.232
62999SOL     OW90770  14.005  12.446   3.286
62999SOL    HW190771  14.068  12.394   3.236
62999SOL    HW290772  14.037  12.442   3.376
63000SOL     OW90773  11.041   4.844  12.727
63000SOL    HW190774  11.019   4.817  12.816
63000SOL    HW290775  10.969   4.902  12.701
63001SOL     OW90776   0.781   7.196   9.263
63001SOL    HW190777   0.814   7.168   9.177
63001SOL    HW290778   0.700   7.147   9.275
63002SOL     OW90779   2.605   6.383   8.244
63002SOL    HW190780   2.511   6.400   8.252
63002SOL    HW290781   2.636   6.448   8.180
63003SOL     OW90782   1.165   0.655   9.088
63003SOL    HW190783   1.215   0.580   9.121
63003SOL    HW290784   1.148   0.709   9.165
63004SOL     OW90785   2.122  12.226   8.782
63004SOL    HW190786   2.162  12.219   8.696
63004SOL    HW290787   2.189  12.195   8.843
63005SOL     OW90788   4.930   0.255   3.462
63005SOL    HW190789   4.995   0.225   3.525
63005SOL    HW290790   4.884   0.175   3.435
63006SOL     OW90791   0.926  11.898   0.808
63006SOL    HW190792   0.880  11.926   0.887
63006SOL    HW290793   0.863  11.842   0.762
63007SOL     OW90794   7.526   1.898   2.162
63007SOL    HW190795   7.473   1.819   2.151
63007SOL    HW290796   7.550   1.898   2.255
63008SOL     OW90797   5.818  12.066   6.561
63008SOL    HW190798   5.864  12.008   6.623
63008SOL    HW290799   5.793  12.142   6.614
63009SOL     OW90800  11.550  14.658   2.576
63009SOL    HW190801  11.467  14.638   2.533
63009SOL    HW290802  11.529  14.731   2.635
63010SOL     OW90803  13.742   9.615  12.315
63010SOL    HW190804  13.736   9.567  12.233
63010SOL    HW290805  13.799   9.561  12.370
63011SOL     OW90806   7.399   2.232  14.391
63011SOL    HW190807   7.413   2.144  14.426
63011SOL    HW290808   7.379   2.285  14.468
63012SOL     OW90809  10.160   0.583   3.658
63012SOL    HW190810  10.143   0.494   3.687
63012SOL    HW290811  10.097   0.597   3.587
63013SOL     OW90812   7.530   1.762  12.482
63013SOL    HW190813   7.534   1.735  12.574
63013SOL    HW290814   7.499   1.853  12.485
63014SOL     OW90815  13.436  11.007   3.559
63014SOL    HW190816  13.412  10.920   3.590
63014SOL    HW290817  13.358  11.040   3.516
63015SOL     OW90818   9.543  13.604   9.242
63015SOL    HW190819   9.507  13.653   9.315
63015SOL    HW290820   9.622  13.562   9.277
63016SOL     OW90821   0.381   7.269   9.278
63016SOL    HW190822   0.449   7.335   9.265
63016SOL    HW290823   0.428   7.189   9.299
63017SOL     OW90824   3.253   6.697   5.913
63017SOL    HW190825   3.273   6.683   5.821
63017SOL    HW290826   3.158   6.691   5.919
63018SOL     OW90827   1.490  11.602   5.973
63018SOL    HW190828   1.567  11.632   6.022
63018SOL    HW290829   1.515  11.612   5.881
63019SOL     OW90830   6.808  12.125   8.430
63019SOL    HW190831   6.889  12.118   8.479
63019SOL    HW290832   6.777  12.035   8.420
63020SOL     OW90833   5.342   9.858  13.376
63020SOL    HW190834   5.289   9.779  13.383
63020SOL    HW290835   5.279   9.929  13.388
63021SOL     OW90836   9.806   2.857  12.885
63021SOL    HW190837   9.782   2.949  12.900
63021SOL    HW290838   9.815   2.820  12.973
63022SOL     OW90839   5.683   0.727   9.185
63022SOL    HW190840   5.743   0.667   9.140
63022SOL    HW290841   5.693   0.810   9.139
63023SOL     OW90842  10.387   8.491  12.892
63023SOL    HW190843  10.334   8.566  12.865
63023SOL    HW290844  10.411   8.448  12.810
63024SOL     OW90845   6.134   6.205  12.370
63024SOL    HW190846   6.109   6.202  12.278
63024SOL    HW290847   6.176   6.121  12.387
63025SOL     OW90848   4.433  13.918   0.928
63025SOL    HW190849   4.462  13.879   1.011
63025SOL    HW290850   4.471  14.006   0.929
63026SOL     OW90851   4.087   1.322   6.156
63026SOL    HW190852   4.068   1.256   6.089
63026SOL    HW290853   4.049   1.403   6.122
63027SOL     OW90854   5.157  10.395  14.450
63027SOL    HW190855   5.178  10.429  14.364
63027SOL    HW290856   5.062  10.381  14.448
63028SOL     OW90857   6.904   7.183  10.203
63028SOL    HW190858   6.829   7.232  10.169
63028SOL    HW290859   6.958   7.165  10.125
63029SOL     OW90860  14.384   0.490  10.584
63029SOL    HW190861  14.468   0.461  10.621
63029SOL    HW290862  14.408   0.539  10.506
63030SOL     OW90863  13.261   7.433  14.248
63030SOL    HW190864  13.280   7.507  14.191
63030SOL    HW290865  13.195   7.467  14.309
63031SOL     OW90866   4.549  13.824   0.481
63031SOL    HW190867   4.630  13.826   0.531
63031SOL    HW290868   4.485  13.784   0.540
63032SOL     OW90869  12.272  11.511  13.653
63032SOL    HW190870  12.189  11.550  13.627
63032SOL    HW290871  12.314  11.577  13.707
63033SOL     OW90872   3.911  10.106  11.098
63033SOL    HW190873   3.998  10.105  11.138
63033SOL    HW290874   3.906  10.191  11.055
63034SOL     OW90875  14.114  11.806   7.467
63034SOL    HW190876  14.147  11.737   7.411
63034SOL    HW290877  14.180  11.815   7.536
63035SOL     OW90878   5.654  12.310  11.396
63035SOL    HW190879   5.729  12.251  11.402
63035SOL    HW290880   5.615  12.290  11.310
63036SOL     OW90881   0.440   4.223  13.967
63036SOL    HW190882   0.393   4.146  14.000
63036SOL    HW290883   0.458   4.275  14.046
63037SOL     OW90884   8.285  12.135  14.229
63037SOL    HW190885   8.252  12.064  14.173
63037SOL    HW290886   8.372  12.154  14.195
63038SOL     OW90887  11.406   0.699   2.880
63038SOL    HW190888  11.348   0.728   2.810
63038SOL    HW290889  11.435   0.779   2.923
63039SOL     OW90890   5.792   3.585  11.711
63039SOL    HW190891   5.888   3.587  11.704
63039SOL    HW290892   5.766   3.677  11.718
63040SOL     OW90893  13.237   5.005   8.619
63040SOL    HW190894  13.223   5.025   8.712
63040SOL    HW290895  13.253   4.910   8.618
63041SOL     OW90896   0.741   8.483   7.629
63041SOL    HW190897   0.825   8.528   7.640
63041SOL    HW290898   0.747   8.442   7.543
63042SOL     OW90899  13.989   4.152   8.377
63042SOL    HW190900  13.970   4.097   8.452
63042SOL    HW290901  13.937   4.114   8.306
63043SOL     OW90902  13.285   2.042  11.363
63043SOL    HW190903  13.191   2.033  11.350
63043SOL    HW290904  13.302   2.136  11.361
63044SOL     OW90905   7.764   7.232   6.775
63044SOL    HW190906   7.734   7.313   6.734
63044SOL    HW290907   7.832   7.259   6.837
63045SOL     OW90908  13.262   4.262   1.999
63045SOL    HW190909  13.320   4.329   1.963
63045SOL    HW290910  13.202   4.241   1.928
63046SOL     OW90911   8.963   8.004  14.315
63046SOL    HW190912   8.994   8.045  14.234
63046SOL    HW290913   8.878   8.045  14.332
63047SOL     OW90914   0.486   8.902   7.369
63047SOL    HW190915   0.565   8.948   7.341
63047SOL    HW290916   0.495   8.893   7.464
63048SOL     OW90917  14.316   4.449  11.286
63048SOL    HW190918  14.322   4.358  11.257
63048SOL    HW290919  14.391   4.492  11.246
63049SOL     OW90920   2.586   1.777   4.157
63049SOL    HW190921   2.629   1.858   4.184
63049SOL    HW290922   2.597   1.776   4.061
63050SOL     OW90923  13.667  12.358   2.565
63050SOL    HW190924  13.601  12.301   2.524
63050SOL    HW290925  13.651  12.444   2.527
63051SOL     OW90926   4.376   9.681   6.934
63051SOL    HW190927   4.459   9.636   6.918
63051SOL    HW290928   4.319   9.614   6.973
63052SOL     OW90929  14.777   3.750   0.823
63052SOL    HW190930  14.773   3.712   0.736
63052SOL    HW290931  14.698   3.719   0.867
63053SOL     OW90932   8.119  14.214   3.872
63053SOL    HW190933   8.190  14.195   3.811
63053SOL    HW290934   8.042  14.171   3.835
63054SOL     OW90935   5.183   8.830  12.619
63054SOL    HW190936   5.089   8.840  12.603
63054SOL    HW290937   5.205   8.902  12.679
63055SOL     OW90938   9.914  11.239  13.154
63055SOL    HW190939   9.866  11.294  13.216
63055SOL    HW290940   9.858  11.234  13.077
63056SOL     OW90941   2.344  10.271   5.601
63056SOL    HW190942   2.305  10.241   5.519
63056SOL    HW290943   2.331  10.198   5.662
63057SOL     OW90944  10.866   0.474  10.420
63057SOL    HW190945  10.875   0.397  10.364
63057SOL    HW290946  10.830   0.440  10.502
63058SOL     OW90947  12.835  12.232   0.618
63058SOL    HW190948  12.877  12.169   0.676
63058SOL    HW290949  12.855  12.318   0.656
63059SOL     OW90950  13.097   8.560   7.619
63059SOL    HW190951  13.057   8.474   7.635
63059SOL    HW290952  13.191   8.543   7.621
63060SOL     OW90953   0.050   1.968  13.906
63060SOL    HW190954   0.127   2.025  13.896
63060SOL    HW290955   0.068   1.917  13.985
63061SOL     OW90956  14.169   5.028   3.821
63061SOL    HW190957  14.196   4.982   3.900
63061SOL    HW290958  14.236   5.005   3.756
63062SOL     OW90959   8.419   6.783  10.381
63062SOL    HW190960   8.471   6.737  10.315
63062SOL    HW290961   8.468   6.865  10.396
63063SOL     OW90962   0.463   8.676   9.443
63063SOL    HW190963   0.521   8.601   9.460
63063SOL    HW290964   0.392   8.639   9.391
63064SOL     OW90965   9.724   2.189   3.777
63064SOL    HW190966   9.819   2.173   3.771
63064SOL    HW290967   9.715   2.258   3.842
63065SOL     OW90968  13.859   7.298   4.789
63065SOL    HW190969  13.772   7.264   4.811
63065SOL    HW290970  13.919   7.246   4.842
63066SOL     OW90971   2.571  10.224   3.473
63066SOL    HW190972   2.480  10.209   3.447
63066SOL    HW290973   2.605  10.137   3.492
63067SOL     OW90974   1.312   4.826   2.829
63067SOL    HW190975   1.278   4.737   2.833
63067SOL    HW290976   1.272   4.863   2.750
63068SOL     OW90977  11.072   2.585   2.015
63068SOL    HW190978  11.146   2.538   1.977
63068SOL    HW290979  11.111   2.658   2.063
63069SOL     OW90980   8.096  12.625  10.234
63069SOL    HW190981   8.020  12.663  10.278
63069SOL    HW290982   8.171  12.670  10.272
63070SOL     OW90983   2.809   3.430   7.183
63070SOL    HW190984   2.896   3.397   7.205
63070SOL    HW290985   2.773   3.366   7.122
63071SOL     OW90986  11.756  10.312   3.977
63071SOL    HW190987  11.803  10.229   3.975
63071SOL    HW290988  11.775  10.352   3.892
63072SOL     OW90989   7.363  13.832  10.834
63072SOL    HW190990   7.355  13.776  10.756
63072SOL    HW290991   7.283  13.816  10.883
63073SOL     OW90992   5.366  14.375  10.980
63073SOL    HW190993   5.367  14.427  11.060
63073SOL    HW290994   5.388  14.286  11.009
63074SOL     OW90995   6.555  12.033  12.813
63074SOL    HW190996   6.602  11.964  12.766
63074SOL    HW290997   6.558  12.109  12.755
63075SOL     OW90998   8.477   8.100  10.407
63075SOL    HW190999   8.462   8.193  10.390
63075SOL    HW291000   8.572   8.091  10.411
63076SOL     OW91001   3.497   0.229   3.143
63076SOL    HW191002   3.475   0.136   3.141
63076SOL    HW291003   3.556   0.238   3.218
63077SOL     OW91004   7.949   2.551  10.109
63077SOL    HW191005   8.014   2.599  10.056
63077SOL    HW291006   7.865   2.590  10.084
63078SOL     OW91007  13.742   7.938  14.127
63078SOL    HW191008  13.677   7.986  14.076
63078SOL    HW291009  13.727   7.846  14.105
63079SOL     OW91010   9.377   6.968   2.364
63079SOL    HW191011   9.299   6.979   2.420
63079SOL    HW291012   9.341   6.953   2.277
63080SOL     OW91013   3.324  11.683   2.112
63080SOL    HW191014   3.400  11.711   2.164
63080SOL    HW291015   3.362  11.630   2.041
63081SOL     OW91016   2.775  10.776   4.298
63081SOL    HW191017   2.866  10.759   4.323
63081SOL    HW291018   2.778  10.858   4.248
63082SOL     OW91019  10.828  11.395  10.506
63082SOL    HW191020  10.841  11.319  10.564
63082SOL    HW291021  10.893  11.384  10.437
63083SOL     OW91022  11.870  11.807   7.916
63083SOL    HW191023  11.794  11.751   7.930
63083SOL    HW291024  11.870  11.866   7.992
63084SOL     OW91025  10.600   6.492   8.895
63084SOL    HW191026  10.695   6.480   8.894
63084SOL    HW291027  10.588   6.587   8.891
63085SOL     OW91028   5.315   7.164   8.283
63085SOL    HW191029   5.296   7.117   8.365
63085SOL    HW291030   5.392   7.217   8.304
63086SOL     OW91031  11.298   9.819   8.620
63086SOL    HW191032  11.297   9.868   8.703
63086SOL    HW291033  11.211   9.778   8.615
63087SOL     OW91034  10.588   4.877   2.021
63087SOL    HW191035  10.528   4.913   2.087
63087SOL    HW291036  10.652   4.827   2.071
63088SOL     OW91037   5.719   8.241   6.189
63088SOL    HW191038   5.629   8.272   6.200
63088SOL    HW291039   5.710   8.149   6.164
63089SOL     OW91040   2.522  12.743   7.354
63089SOL    HW191041   2.489  12.801   7.423
63089SOL    HW291042   2.467  12.762   7.278
63090SOL     OW91043   3.842  11.739  12.744
63090SOL    HW191044   3.797  11.727  12.660
63090SOL    HW291045   3.868  11.651  12.770
63091SOL     OW91046   5.238  12.931   7.282
63091SOL    HW191047   5.236  12.958   7.374
63091SOL    HW291048   5.331  12.922   7.261
63092SOL     OW91049  12.038  10.139  13.156
63092SOL    HW191050  12.016  10.201  13.226
63092SOL    HW291051  12.070  10.193  13.084
63093SOL     OW91052   2.325   2.859  14.160
63093SOL    HW191053   2.254   2.834  14.220
63093SOL    HW291054   2.346   2.779  14.113
63094SOL     OW91055  13.387   4.190  13.286
63094SOL    HW191056  13.428   4.114  13.246
63094SOL    HW291057  13.448   4.217  13.355
63095SOL     OW91058   2.322   5.745  14.473
63095SOL    HW191059   2.296   5.691  14.547
63095SOL    HW291060   2.386   5.806  14.508
63096SOL     OW91061   4.704  13.548  13.346
63096SOL    HW191062   4.787  13.587  13.374
63096SOL    HW291063   4.729  13.488  13.276
63097SOL     OW91064  12.970   1.559   6.289
63097SOL    HW191065  13.059   1.532   6.266
63097SOL    HW291066  12.920   1.478   6.289
63098SOL     OW91067   2.953  13.754   7.796
63098SOL    HW191068   3.029  13.774   7.851
63098SOL    HW291069   2.878  13.763   7.855
63099SOL     OW91070   3.724   6.627  11.754
63099SOL    HW191071   3.689   6.618  11.842
63099SOL    HW291072   3.819   6.634  11.766
63100SOL     OW91073   8.917  13.848   8.476
63100SOL    HW191074   8.939  13.759   8.448
63100SOL    HW291075   8.970  13.905   8.420
63101SOL     OW91076   6.837   0.255   5.792
63101SOL    HW191077   6.852   0.341   5.752
63101SOL    HW291078   6.913   0.203   5.765
63102SOL     OW91079   1.096  13.847  13.099
63102SOL    HW191080   1.061  13.849  13.188
63102SOL    HW291081   1.164  13.780  13.101
63103SOL     OW91082  13.688  13.165  10.305
63103SOL    HW191083  13.696  13.239  10.245
63103SOL    HW291084  13.596  13.141  10.302
63104SOL     OW91085   4.759   5.310  14.749
63104SOL    HW191086   4.816   5.351  14.685
63104SOL    HW291087   4.724   5.233  14.704
63105SOL     OW91088  12.698   1.779   9.123
63105SOL    HW191089  12.635   1.811   9.187
63105SOL    HW291090  12.648   1.718   9.068
63106SOL     OW91091   9.596   4.856  10.478
63106SOL    HW191092   9.620   4.933  10.426
63106SOL    HW291093   9.518   4.822  10.434
63107SOL     OW91094   7.915   8.636  14.388
63107SOL    HW191095   7.881   8.560  14.341
63107SOL    HW291096   7.869   8.710  14.349
63108SOL     OW91097  11.666   4.107   6.131
63108SOL    HW191098  11.711   4.054   6.065
63108SOL    HW291099  11.590   4.055   6.156
63109SOL     OW91100   4.782  12.261   7.527
63109SOL    HW191101   4.775  12.195   7.459
63109SOL    HW291102   4.873  12.291   7.522
63110SOL     OW91103  11.029  10.613   2.451
63110SOL    HW191104  10.992  10.690   2.409
63110SOL    HW291105  11.044  10.551   2.379
63111SOL     OW91106   9.029   0.973  12.389
63111SOL    HW191107   9.065   1.058  12.363
63111SOL    HW291108   9.004   0.931  12.307
63112SOL     OW91109  10.990   4.414  11.035
63112SOL    HW191110  10.900   4.446  11.027
63112SOL    HW291111  11.011   4.423  11.128
63113SOL     OW91112   1.460   7.179  13.044
63113SOL    HW191113   1.536   7.143  13.090
63113SOL    HW291114   1.486   7.268  13.021
63114SOL     OW91115   0.453   2.898  13.602
63114SOL    HW191116   0.493   2.928  13.684
63114SOL    HW291117   0.523   2.849  13.559
63115SOL     OW91118   5.761  13.994  10.455
63115SOL    HW191119   5.740  14.084  10.481
63115SOL    HW291120   5.799  13.955  10.534
63116SOL     OW91121   9.346   9.913   1.561
63116SOL    HW191122   9.262   9.950   1.587
63116SOL    HW291123   9.323   9.842   1.501
63117SOL     OW91124   7.241  11.919   9.669
63117SOL    HW191125   7.254  11.903   9.762
63117SOL    HW291126   7.324  11.955   9.638
63118SOL     OW91127   6.026   9.266   9.816
63118SOL    HW191128   6.069   9.336   9.767
63118SOL    HW291129   5.980   9.311   9.887
63119SOL     OW91130   7.165   6.718   3.404
63119SOL    HW191131   7.154   6.812   3.396
63119SOL    HW291132   7.105   6.681   3.339
63120SOL     OW91133   1.796   4.817  14.807
63120SOL    HW191134   1.764   4.862  14.729
63120SOL    HW291135   1.888   4.799  14.787
63121SOL     OW91136  11.501  14.548  13.574
63121SOL    HW191137  11.444  14.625  13.582
63121SOL    HW291138  11.550  14.546  13.655
63122SOL     OW91139   2.668   9.050   4.666
63122SOL    HW191140   2.619   9.130   4.647
63122SOL    HW291141   2.661   8.998   4.586
63123SOL     OW91142  13.400  10.543  13.140
63123SOL    HW191143  13.467  10.498  13.088
63123SOL    HW291144  13.372  10.479  13.205
63124SOL     OW91145   5.721   8.461   8.076
63124SOL    HW191146   5.778   8.386   8.097
63124SOL    HW291147   5.657   8.426   8.014
63125SOL     OW91148   6.856   0.926   8.748
63125SOL    HW191149   6.934   0.945   8.800
63125SOL    HW291150   6.796   0.999   8.767
63126SOL     OW91151   4.864   2.350  12.200
63126SOL    HW191152   4.801   2.327  12.268
63126SOL    HW291153   4.814   2.348  12.119
63127SOL     OW91154   3.588   3.862  10.222
63127SOL    HW191155   3.506   3.903  10.250
63127SOL    HW291156   3.570   3.832  10.133
63128SOL     OW91157   8.832   0.146   7.273
63128SOL    HW191158   8.772   0.220   7.276
63128SOL    HW291159   8.904   0.175   7.217
63129SOL     OW91160   5.151   6.982   9.289
63129SOL    HW191161   5.135   6.904   9.342
63129SOL    HW291162   5.086   6.978   9.219
63130SOL     OW91163  11.615  14.199   4.911
63130SOL    HW191164  11.553  14.136   4.948
63130SOL    HW291165  11.695  14.147   4.897
63131SOL     OW91166  13.458  10.291   4.317
63131SOL    HW191167  13.437  10.384   4.308
63131SOL    HW291168  13.522  10.275   4.248
63132SOL     OW91169   8.784   9.864  12.641
63132SOL    HW191170   8.699   9.897  12.611
63132SOL    HW291171   8.799   9.910  12.724
63133SOL     OW91172  10.185   6.516   9.498
63133SOL    HW191173  10.158   6.593   9.447
63133SOL    HW291174  10.222   6.456   9.433
63134SOL     OW91175  11.770   4.326   5.186
63134SOL    HW191176  11.788   4.275   5.265
63134SOL    HW291177  11.854   4.367   5.165
63135SOL     OW91178   1.187   3.507   9.150
63135SOL    HW191179   1.175   3.559   9.071
63135SOL    HW291180   1.104   3.461   9.162
63136SOL     OW91181   2.607  14.268  10.106
63136SOL    HW191182   2.685  14.298  10.152
63136SOL    HW291183   2.543  14.252  10.175
63137SOL     OW91184  13.218   2.718  12.207
63137SOL    HW191185  13.273   2.796  12.200
63137SOL    HW291186  13.128   2.751  12.201
63138SOL     OW91187   1.787   2.294  12.564
63138SOL    HW191188   1.791   2.227  12.496
63138SOL    HW291189   1.753   2.372  12.520
63139SOL     OW91190   5.324   8.976   0.701
63139SOL    HW191191   5.397   9.021   0.657
63139SOL    HW291192   5.288   8.919   0.633
63140SOL     OW91193   6.631   6.174   4.419
63140SOL    HW191194   6.637   6.110   4.348
63140SOL    HW291195   6.617   6.258   4.374
63141SOL     OW91196   8.566   7.743  14.058
63141SOL    HW191197   8.531   7.657  14.081
63141SOL    HW291198   8.640   7.755  14.118
63142SOL     OW91199  14.319   2.944  14.442
63142SOL    HW191200  14.289   2.955  14.532
63142SOL    HW291201  14.409   2.913  14.451
63143SOL     OW91202  12.406   0.210  11.394
63143SOL    HW191203  12.369   0.297  11.400
63143SOL    HW291204  12.501   0.224  11.397
63144SOL     OW91205   5.686   1.765   8.232
63144SOL    HW191206   5.693   1.859   8.217
63144SOL    HW291207   5.776   1.736   8.247
63145SOL     OW91208  10.528   2.291   7.031
63145SOL    HW191209  10.523   2.353   6.958
63145SOL    HW291210  10.621   2.291   7.056
63146SOL     OW91211  12.448   9.225   4.008
63146SOL    HW191212  12.502   9.146   4.003
63146SOL    HW291213  12.362   9.197   3.975
63147SOL     OW91214  11.289   0.056  12.072
63147SOL    HW191215  11.293   0.152  12.075
63147SOL    HW291216  11.381   0.028  12.074
63148SOL     OW91217  13.256   4.785   0.772
63148SOL    HW191218  13.210   4.721   0.717
63148SOL    HW291219  13.211   4.780   0.857
63149SOL     OW91220  14.321  10.696  14.440
63149SOL    HW191221  14.376  10.671  14.515
63149SOL    HW291222  14.383  10.704  14.367
63150SOL     OW91223   3.242  11.529   2.419
63150SOL    HW191224   3.320  11.534   2.475
63150SOL    HW291225   3.262  11.586   2.344
63151SOL     OW91226   7.802   8.773   8.492
63151SOL    HW191227   7.723   8.790   8.544
63151SOL    HW291228   7.871   8.761   8.556
63152SOL     OW91229   4.617  13.824  12.367
63152SOL    HW191230   4.695  13.859  12.324
63152SOL    HW291231   4.557  13.803  12.295
63153SOL     OW91232  12.633   5.673   7.507
63153SOL    HW191233  12.639   5.751   7.453
63153SOL    HW291234  12.655   5.703   7.595
63154SOL     OW91235   2.857  13.742   1.201
63154SOL    HW191236   2.914  13.777   1.132
63154SOL    HW291237   2.864  13.805   1.272
63155SOL     OW91238   4.241   2.366   9.163
63155SOL    HW191239   4.326   2.327   9.188
63155SOL    HW291240   4.258   2.410   9.080
63156SOL     OW91241  13.907   4.672   8.764
63156SOL    HW191242  13.877   4.677   8.855
63156SOL    HW291243  13.978   4.607   8.766
63157SOL     OW91244   7.857   4.068   3.227
63157SOL    HW191245   7.917   4.116   3.170
63157SOL    HW291246   7.907   3.990   3.254
63158SOL     OW91247   9.079  11.878   0.822
63158SOL    HW191248   9.141  11.856   0.753
63158SOL    HW291249   8.995  11.843   0.791
63159SOL     OW91250   7.830   1.523   8.625
63159SOL    HW191251   7.830   1.466   8.548
63159SOL    HW291252   7.793   1.606   8.594
63160SOL     OW91253   8.847  13.747   3.998
63160SOL    HW191254   8.774  13.759   4.058
63160SOL    HW291255   8.836  13.658   3.964
63161SOL     OW91256   9.525  11.833   1.401
63161SOL    HW191257   9.470  11.764   1.362
63161SOL    HW291258   9.535  11.898   1.332
63162SOL     OW91259   3.737   5.912   1.069
63162SOL    HW191260   3.827   5.882   1.054
63162SOL    HW291261   3.723   5.979   1.002
63163SOL     OW91262  10.952   1.871  14.258
63163SOL    HW191263  10.950   1.822  14.340
63163SOL    HW291264  11.037   1.916  14.258
63164SOL     OW91265   3.425  13.256   3.790
63164SOL    HW191266   3.375  13.283   3.866
63164SOL    HW291267   3.360  13.233   3.724
63165SOL     OW91268   0.479   5.247   5.406
63165SOL    HW191269   0.392   5.280   5.383
63165SOL    HW291270   0.540   5.304   5.359
63166SOL     OW91271   3.895   3.574   2.166
63166SOL    HW191272   3.864   3.656   2.204
63166SOL    HW291273   3.981   3.596   2.129
63167SOL     OW91274  12.659   9.175   9.609
63167SOL    HW191275  12.700   9.098   9.569
63167SOL    HW291276  12.732   9.228   9.639
63168SOL     OW91277   1.554   1.185   8.099
63168SOL    HW191278   1.584   1.140   8.021
63168SOL    HW291279   1.546   1.115   8.165
63169SOL     OW91280  11.081   2.915   8.912
63169SOL    HW191281  11.030   2.844   8.873
63169SOL    HW291282  11.038   2.995   8.882
63170SOL     OW91283   5.736   3.950  13.796
63170SOL    HW191284   5.730   3.856  13.815
63170SOL    HW291285   5.809   3.981  13.849
63171SOL     OW91286   7.133   5.250   8.763
63171SOL    HW191287   7.111   5.254   8.856
63171SOL    HW291288   7.077   5.181   8.728
63172SOL     OW91289   2.811   4.567   6.476
63172SOL    HW191290   2.769   4.647   6.444
63172SOL    HW291291   2.802   4.504   6.404
63173SOL     OW91292  14.855   6.404   4.650
63173SOL    HW191293  14.761   6.421   4.655
63173SOL    HW291294  14.870   6.370   4.562
63174SOL     OW91295   5.680  14.420   5.785
63174SOL    HW191296   5.681  14.402   5.690
63174SOL    HW291297   5.772  14.418   5.811
63175SOL     OW91298   0.728   0.258   6.013
63175SOL    HW191299   0.743   0.274   5.920
63175SOL    HW291300   0.636   0.233   6.020
63176SOL     OW91301   0.819  11.515   6.486
63176SOL    HW191302   0.817  11.434   6.435
63176SOL    HW291303   0.906  11.515   6.526
63177SOL     OW91304   4.151   1.299  11.536
63177SOL    HW191305   4.153   1.253  11.452
63177SOL    HW291306   4.231   1.272  11.580
63178SOL     OW91307  14.521   5.588   2.436
63178SOL    HW191308  14.545   5.681   2.444
63178SOL    HW291309  14.485   5.580   2.348
63179SOL     OW91310   8.513   6.545  12.596
63179SOL    HW191311   8.518   6.620  12.536
63179SOL    HW291312   8.596   6.548  12.644
63180SOL     OW91313   2.018   3.533   9.228
63180SOL    HW191314   2.019   3.606   9.290
63180SOL    HW291315   1.952   3.473   9.262
63181SOL     OW91316   7.717   2.295   8.755
63181SOL    HW191317   7.770   2.240   8.697
63181SOL    HW291318   7.748   2.384   8.739
63182SOL     OW91319   2.345  14.538   4.914
63182SOL    HW191320   2.398  14.575   4.843
63182SOL    HW291321   2.256  14.539   4.881
63183SOL     OW91322   6.081   1.802  10.473
63183SOL    HW191323   6.084   1.783  10.567
63183SOL    HW291324   6.078   1.716  10.431
63184SOL     OW91325   7.433   7.741  14.346
63184SOL    HW191326   7.362   7.709  14.291
63184SOL    HW291327   7.480   7.804  14.292
63185SOL     OW91328   8.587  13.295   4.967
63185SOL    HW191329   8.523  13.225   4.981
63185SOL    HW291330   8.563  13.332   4.881
63186SOL     OW91331  13.711   8.896   3.147
63186SOL    HW191332  13.619   8.912   3.125
63186SOL    HW291333  13.709   8.817   3.201
63187SOL     OW91334  10.735   4.668   0.233
63187SOL    HW191335  10.795   4.694   0.304
63187SOL    HW291336  10.787   4.676   0.153
63188SOL     OW91337   4.374   6.575   9.344
63188SOL    HW191338   4.320   6.639   9.390
63188SOL    HW291339   4.311   6.524   9.292
63189SOL     OW91340   9.329   3.164   6.668
63189SOL    HW191341   9.323   3.107   6.744
63189SOL    HW291342   9.411   3.213   6.680
63190SOL     OW91343   7.016   2.574   1.539
63190SOL    HW191344   6.954   2.501   1.543
63190SOL    HW291345   7.061   2.572   1.623
63191SOL     OW91346   0.859  14.449   1.974
63191SOL    HW191347   0.921  14.380   1.951
63191SOL    HW291348   0.908  14.508   2.030
63192SOL     OW91349   2.065   5.288   3.005
63192SOL    HW191350   2.073   5.362   3.064
63192SOL    HW291351   2.150   5.244   3.011
63193SOL     OW91352   2.641   0.453   4.595
63193SOL    HW191353   2.727   0.488   4.621
63193SOL    HW291354   2.633   0.477   4.502
63194SOL     OW91355   0.365   0.095   4.544
63194SOL    HW191356   0.325   0.120   4.461
63194SOL    HW291357   0.348   0.169   4.602
63195SOL     OW91358  10.338   8.826   2.670
63195SOL    HW191359  10.252   8.834   2.712
63195SOL    HW291360  10.347   8.906   2.618
63196SOL     OW91361   6.030   5.263  11.763
63196SOL    HW191362   6.048   5.339  11.707
63196SOL    HW291363   5.934   5.255  11.763
63197SOL     OW91364  10.635   7.768   6.915
63197SOL    HW191365  10.646   7.724   6.999
63197SOL    HW291366  10.653   7.700   6.850
63198SOL     OW91367   7.446  11.448   6.994
63198SOL    HW191368   7.497  11.519   7.034
63198SOL    HW291369   7.382  11.492   6.939
63199SOL     OW91370  14.270   5.395  10.488
63199SOL    HW191371  14.307   5.310  10.514
63199SOL    HW291372  14.253   5.440  10.571
63200SOL     OW91373   9.185   3.751   8.416
63200SOL    HW191374   9.212   3.662   8.393
63200SOL    HW291375   9.091   3.752   8.401
63201SOL     OW91376   5.880   4.374   9.638
63201SOL    HW191377   5.834   4.406   9.716
63201SOL    HW291378   5.901   4.283   9.658
63202SOL     OW91379   4.940   3.962  13.611
63202SOL    HW191380   5.032   3.979  13.632
63202SOL    HW291381   4.939   3.872  13.578
63203SOL     OW91382   3.977   7.383   2.216
63203SOL    HW191383   4.003   7.474   2.207
63203SOL    HW291384   3.925   7.365   2.137
63204SOL     OW91385   1.685   1.025   5.968
63204SOL    HW191386   1.771   1.017   5.927
63204SOL    HW291387   1.685   0.959   6.037
63205SOL     OW91388   0.605   1.745   5.292
63205SOL    HW191389   0.689   1.791   5.287
63205SOL    HW291390   0.619   1.676   5.356
63206SOL     OW91391  10.338   7.331  13.538
63206SOL    HW191392  10.389   7.368  13.465
63206SOL    HW291393  10.256   7.381  13.537
63207SOL     OW91394   9.446   7.915  12.422
63207SOL    HW191395   9.537   7.884  12.422
63207SOL    HW291396   9.435   7.960  12.506
63208SOL     OW91397   8.401   5.660   9.766
63208SOL    HW191398   8.388   5.623   9.679
63208SOL    HW291399   8.315   5.651   9.808
63209SOL     OW91400   5.705  14.716   0.508
63209SOL    HW191401   5.773  14.755   0.453
63209SOL    HW291402   5.745  14.636   0.542
63210SOL     OW91403  13.188   6.422  14.146
63210SOL    HW191404  13.175   6.417  14.051
63210SOL    HW291405  13.104   6.453  14.179
63211SOL     OW91406   0.840   9.112   1.118
63211SOL    HW191407   0.865   9.043   1.179
63211SOL    HW291408   0.804   9.182   1.173
63212SOL     OW91409   6.640   5.178  13.776
63212SOL    HW191410   6.587   5.255  13.755
63212SOL    HW291411   6.726   5.213  13.799
63213SOL     OW91412  12.904   6.523   5.415
63213SOL    HW191413  12.952   6.490   5.491
63213SOL    HW291414  12.954   6.494   5.339
63214SOL     OW91415   4.339  14.555   7.768
63214SOL    HW191416   4.262  14.527   7.817
63214SOL    HW291417   4.317  14.643   7.736
63215SOL     OW91418   3.231  10.492   5.812
63215SOL    HW191419   3.285  10.443   5.873
63215SOL    HW291420   3.248  10.453   5.726
63216SOL     OW91421   4.580  13.483   5.798
63216SOL    HW191422   4.612  13.393   5.798
63216SOL    HW291423   4.572  13.505   5.705
63217SOL     OW91424   3.464   4.650  10.003
63217SOL    HW191425   3.429   4.585   9.942
63217SOL    HW291426   3.555   4.662   9.976
63218SOL     OW91427  14.671  11.941   1.791
63218SOL    HW191428  14.624  11.859   1.783
63218SOL    HW291429  14.647  11.990   1.712
63219SOL     OW91430  13.082   5.890   7.858
63219SOL    HW191431  13.177   5.879   7.856
63219SOL    HW291432  13.047   5.801   7.865
63220SOL     OW91433  12.779   8.442   8.495
63220SOL    HW191434  12.697   8.428   8.449
63220SOL    HW291435  12.756   8.438   8.588
63221SOL     OW91436   2.665   4.795   6.497
63221SOL    HW191437   2.672   4.810   6.592
63221SOL    HW291438   2.572   4.780   6.482
63222SOL     OW91439  11.392   3.624   5.983
63222SOL    HW191440  11.416   3.607   5.892
63222SOL    HW291441  11.311   3.575   5.996
63223SOL     OW91442  14.708   0.662   4.475
63223SOL    HW191443  14.673   0.741   4.516
63223SOL    HW291444  14.763   0.694   4.403
63224SOL     OW91445   4.277   6.083   9.843
63224SOL    HW191446   4.357   6.131   9.823
63224SOL    HW291447   4.307   5.995   9.866
63225SOL     OW91448  11.671   0.615   5.702
63225SOL    HW191449  11.665   0.524   5.731
63225SOL    HW291450  11.591   0.656   5.737
63226SOL     OW91451   6.727   2.645   8.690
63226SOL    HW191452   6.741   2.626   8.597
63226SOL    HW291453   6.808   2.614   8.733
63227SOL     OW91454  12.417  11.619   2.324
63227SOL    HW191455  12.403  11.571   2.243
63227SOL    HW291456  12.334  11.662   2.342
63228SOL     OW91457   2.663   5.891   1.347
63228SOL    HW191458   2.667   5.922   1.437
63228SOL    HW291459   2.629   5.801   1.353
63229SOL     OW91460  11.291  14.547   4.661
63229SOL    HW191461  11.332  14.617   4.712
63229SOL    HW291462  11.334  14.551   4.576
63230SOL     OW91463   2.276   2.493   1.036
63230SOL    HW191464   2.273   2.397   1.032
63230SOL    HW291465   2.345   2.512   1.099
63231SOL     OW91466   2.007  13.643   3.060
63231SOL    HW191467   1.972  13.570   3.111
63231SOL    HW291468   1.978  13.627   2.971
63232SOL     OW91469  10.239   4.946  14.495
63232SOL    HW191470  10.149   4.977  14.486
63232SOL    HW291471  10.290   5.001  14.435
63233SOL     OW91472  13.224  10.004  11.743
63233SOL    HW191473  13.180  10.037  11.665
63233SOL    HW291474  13.183   9.919  11.760
63234SOL     OW91475   5.177   9.666   9.986
63234SOL    HW191476   5.256   9.674   9.933
63234SOL    HW291477   5.105   9.665   9.922
63235SOL     OW91478  10.475   0.596  11.266
63235SOL    HW191479  10.443   0.676  11.306
63235SOL    HW291480  10.399   0.539  11.260
63236SOL     OW91481   8.873   0.289   0.342
63236SOL    HW191482   8.939   0.247   0.398
63236SOL    HW291483   8.857   0.225   0.272
63237SOL     OW91484   3.720   1.101   5.472
63237SOL    HW191485   3.789   1.036   5.458
63237SOL    HW291486   3.738   1.170   5.408
63238SOL     OW91487   1.947   4.692  10.742
63238SOL    HW191488   1.852   4.687  10.731
63238SOL    HW291489   1.979   4.606  10.712
63239SOL     OW91490   7.184   8.821   0.244
63239SOL    HW191491   7.246   8.865   0.185
63239SOL    HW291492   7.139   8.757   0.188
63240SOL     OW91493   1.765   4.854   5.656
63240SOL    HW191494   1.770   4.775   5.602
63240SOL    HW291495   1.682   4.895   5.632
63241SOL     OW91496   9.597   7.691   3.951
63241SOL    HW191497   9.590   7.786   3.954
63241SOL    HW291498   9.550   7.660   4.028
63242SOL     OW91499   6.303  12.971   7.313
63242SOL    HW191500   6.280  12.890   7.266
63242SOL    HW291501   6.386  12.998   7.274
63243SOL     OW91502  11.023  10.478   8.244
63243SOL    HW191503  10.936  10.502   8.276
63243SOL    HW291504  11.060  10.560   8.211
63244SOL     OW91505   2.119   1.569   6.638
63244SOL    HW191506   2.187   1.540   6.577
63244SOL    HW291507   2.164   1.577   6.722
63245SOL     OW91508   3.704   4.213   8.186
63245SOL    HW191509   3.687   4.295   8.232
63245SOL    HW291510   3.710   4.147   8.254
63246SOL     OW91511   7.824  14.742   6.004
63246SOL    HW191512   7.839  14.777   6.092
63246SOL    HW291513   7.865  14.655   6.005
63247SOL     OW91514  13.470   9.570   4.815
63247SOL    HW191515  13.516   9.637   4.764
63247SOL    HW291516  13.533   9.542   4.881
63248SOL     OW91517  12.641   3.029   4.854
63248SOL    HW191518  12.600   2.943   4.850
63248SOL    HW291519  12.697   3.026   4.931
63249SOL     OW91520   1.193  13.834   0.011
63249SOL    HW191521   1.178  13.760  14.830
63249SOL    HW291522   1.110  13.845   0.058
63250SOL     OW91523   7.881  11.049   3.407
63250SOL    HW191524   7.925  10.977   3.453
63250SOL    HW291525   7.835  11.005   3.335
63251SOL     OW91526   3.144   9.910   7.979
63251SOL    HW191527   3.146   9.815   7.982
63251SOL    HW291528   3.083   9.935   8.049
63252SOL     OW91529  13.426   4.988   2.402
63252SOL    HW191530  13.373   4.975   2.323
63252SOL    HW291531  13.453   5.080   2.398
63253SOL     OW91532  12.278   7.142   9.462
63253SOL    HW191533  12.226   7.209   9.418
63253SOL    HW291534  12.327   7.100   9.392
63254SOL     OW91535  14.081   8.372   4.414
63254SOL    HW191536  14.018   8.301   4.405
63254SOL    HW291537  14.083   8.413   4.327
63255SOL     OW91538   6.538   9.497   1.481
63255SOL    HW191539   6.468   9.529   1.538
63255SOL    HW291540   6.573   9.576   1.440
63256SOL     OW91541  13.261   5.394   2.550
63256SOL    HW191542  13.217   5.364   2.471
63256SOL    HW291543  13.349   5.357   2.545
63257SOL     OW91544   4.463  11.975   7.095
63257SOL    HW191545   4.490  12.009   7.180
63257SOL    HW291546   4.367  11.977   7.097
63258SOL     OW91547   4.269  14.034   7.448
63258SOL    HW191548   4.334  13.970   7.478
63258SOL    HW291549   4.316  14.117   7.446
63259SOL     OW91550   7.029   4.778   2.239
63259SOL    HW191551   6.953   4.779   2.297
63259SOL    HW291552   7.008   4.841   2.170
63260SOL     OW91553   6.957   7.223   8.422
63260SOL    HW191554   6.997   7.263   8.500
63260SOL    HW291555   6.879   7.178   8.456
63261SOL     OW91556   2.366   9.246  12.222
63261SOL    HW191557   2.391   9.181  12.287
63261SOL    HW291558   2.363   9.329  12.271
63262SOL     OW91559   5.020  12.344   1.386
63262SOL    HW191560   4.996  12.288   1.313
63262SOL    HW291561   5.104  12.382   1.361
63263SOL     OW91562   9.462  10.364  12.884
63263SOL    HW191563   9.441  10.378  12.792
63263SOL    HW291564   9.453  10.270  12.897
63264SOL     OW91565   9.575   3.982   9.741
63264SOL    HW191566   9.592   4.075   9.761
63264SOL    HW291567   9.501   3.959   9.797
63265SOL     OW91568   7.954   5.720  12.399
63265SOL    HW191569   7.979   5.674  12.319
63265SOL    HW291570   8.038   5.739  12.442
63266SOL     OW91571   5.069   4.245  14.447
63266SOL    HW191572   5.101   4.314  14.388
63266SOL    HW291573   5.027   4.181  14.389
63267SOL     OW91574  10.914   5.842   2.099
63267SOL    HW191575  10.843   5.905   2.086
63267SOL    HW291576  10.903   5.778   2.029
63268SOL     OW91577   1.906  10.735   0.030
63268SOL    HW191578   1.851  10.809   0.003
63268SOL    HW291579   1.917  10.748   0.124
63269SOL     OW91580  10.988   4.245   3.769
63269SOL    HW191581  11.025   4.159   3.750
63269SOL    HW291582  11.011   4.261   3.861
63270SOL     OW91583   2.320   0.784  12.079
63270SOL    HW191584   2.292   0.771  11.988
63270SOL    HW291585   2.415   0.791  12.074
63271SOL     OW91586   5.748  11.141   2.765
63271SOL    HW191587   5.735  11.226   2.724
63271SOL    HW291588   5.781  11.160   2.852
63272SOL     OW91589   9.294   2.460   7.907
63272SOL    HW191590   9.222   2.507   7.950
63272SOL    HW291591   9.295   2.374   7.949
63273SOL     OW91592  11.240   5.554   1.776
63273SOL    HW191593  11.326   5.514   1.793
63273SOL    HW291594  11.217   5.595   1.860
63274SOL     OW91595  13.005  10.462  10.364
63274SOL    HW191596  13.055  10.515  10.301
63274SOL    HW291597  13.019  10.371  10.335
63275SOL     OW91598   9.377  13.047   4.740
63275SOL    HW191599   9.419  13.060   4.825
63275SOL    HW291600   9.446  13.012   4.685
63276SOL     OW91601   0.952   0.145  11.431
63276SOL    HW191602   0.901   0.068  11.457
63276SOL    HW291603   1.036   0.133  11.475
63277SOL     OW91604   2.291   5.174   8.858
63277SOL    HW191605   2.378   5.210   8.839
63277SOL    HW291606   2.238   5.250   8.882
63278SOL     OW91607   2.209  10.145  11.870
63278SOL    HW191608   2.132  10.154  11.815
63278SOL    HW291609   2.221  10.231  11.910
63279SOL     OW91610   7.970   7.505  12.654
63279SOL    HW191611   8.048   7.558  12.643
63279SOL    HW291612   7.985   7.427  12.601
63280SOL     OW91613   3.656  10.050   7.976
63280SOL    HW191614   3.639  10.048   7.882
63280SOL    HW291615   3.576  10.017   8.016
63281SOL     OW91616   3.058   7.937   8.977
63281SOL    HW191617   3.002   8.014   8.963
63281SOL    HW291618   3.031   7.902   9.062
63282SOL     OW91619  11.850   4.423   1.523
63282SOL    HW191620  11.909   4.422   1.598
63282SOL    HW291621  11.840   4.516   1.502
63283SOL     OW91622   9.128   9.082   3.434
63283SOL    HW191623   9.192   9.149   3.457
63283SOL    HW291624   9.052   9.130   3.403
63284SOL     OW91625  14.146   3.967   0.053
63284SOL    HW191626  14.208   4.040   0.051
63284SOL    HW291627  14.068   4.001   0.010
63285SOL     OW91628  12.968  10.059  14.116
63285SOL    HW191629  13.049  10.088  14.074
63285SOL    HW291630  12.996   9.988  14.174
63286SOL     OW91631   8.209   5.937   0.320
63286SOL    HW191632   8.171   5.882   0.251
63286SOL    HW291633   8.133   5.979   0.361
63287SOL     OW91634   5.900   3.685  12.000
63287SOL    HW191635   5.930   3.742  11.929
63287SOL    HW291636   5.967   3.617  12.007
63288SOL     OW91637  14.405  10.849  13.449
63288SOL    HW191638  14.335  10.784  13.437
63288SOL    HW291639  14.476  10.799  13.492
63289SOL     OW91640   7.546   8.588   5.277
63289SOL    HW191641   7.604   8.549   5.212
63289SOL    HW291642   7.540   8.523   5.347
63290SOL     OW91643  14.381   8.354   5.090
63290SOL    HW191644  14.288   8.355   5.113
63290SOL    HW291645  14.406   8.262   5.097
63291SOL     OW91646   8.857  12.911   5.195
63291SOL    HW191647   8.936  12.964   5.189
63291SOL    HW291648   8.890  12.821   5.206
63292SOL     OW91649   4.561   7.809   6.512
63292SOL    HW191650   4.570   7.757   6.432
63292SOL    HW291651   4.616   7.765   6.576
63293SOL     OW91652   9.988  14.240   3.744
63293SOL    HW191653  10.062  14.300   3.758
63293SOL    HW291654   9.912  14.289   3.776
63294SOL     OW91655   5.242   5.969  14.755
63294SOL    HW191656   5.327   6.014  14.748
63294SOL    HW291657   5.252   5.912  14.831
63295SOL     OW91658   7.299  14.358   1.511
63295SOL    HW191659   7.255  14.334   1.593
63295SOL    HW291660   7.233  14.343   1.443
63296SOL     OW91661   7.415   0.179  10.769
63296SOL    HW191662   7.389   0.246  10.706
63296SOL    HW291663   7.437   0.228  10.848
63297SOL     OW91664   1.034   9.279  13.814
63297SOL    HW191665   0.939   9.275  13.804
63297SOL    HW291666   1.060   9.356  13.763
63298SOL     OW91667   6.242   5.612   6.897
63298SOL    HW191668   6.307   5.635   6.830
63298SOL    HW291669   6.283   5.541   6.947
63299SOL     OW91670  12.555  10.872   9.946
63299SOL    HW191671  12.566  10.793   9.999
63299SOL    HW291672  12.508  10.934  10.003
63300SOL     OW91673   4.101   1.075   0.477
63300SOL    HW191674   4.119   1.131   0.401
63300SOL    HW291675   4.176   1.016   0.480
63301SOL     OW91676  10.547  14.791  13.847
63301SOL    HW191677  10.512  14.851  13.782
63301SOL    HW291678  10.506  14.707  13.826
63302SOL     OW91679  14.415  14.641  13.319
63302SOL    HW191680  14.350  14.705  13.350
63302SOL    HW291681  14.446  14.676  13.235
63303SOL     OW91682   6.409  10.370  13.734
63303SOL    HW191683   6.333  10.319  13.764
63303SOL    HW291684   6.387  10.460  13.757
63304SOL     OW91685   0.488   4.912   0.712
63304SOL    HW191686   0.577   4.876   0.710
63304SOL    HW291687   0.493   4.988   0.652
63305SOL     OW91688  12.098  12.093   3.115
63305SOL    HW191689  12.134  12.013   3.077
63305SOL    HW291690  12.003  12.080   3.112
63306SOL     OW91691  12.795   4.139  11.387
63306SOL    HW191692  12.787   4.194  11.309
63306SOL    HW291693  12.728   4.171  11.447
63307SOL     OW91694   7.862  10.139  10.243
63307SOL    HW191695   7.937  10.197  10.256
63307SOL    HW291696   7.869  10.075  10.314
63308SOL     OW91697   6.930   4.800  13.763
63308SOL    HW191698   6.999   4.858  13.732
63308SOL    HW291699   6.952   4.714  13.726
63309SOL     OW91700   0.657  14.048   3.503
63309SOL    HW191701   0.634  14.017   3.591
63309SOL    HW291702   0.652  13.969   3.449
63310SOL     OW91703   9.670   3.326   7.353
63310SOL    HW191704   9.755   3.357   7.320
63310SOL    HW291705   9.692   3.261   7.420
63311SOL     OW91706   1.706   9.663   6.914
63311SOL    HW191707   1.758   9.584   6.895
63311SOL    HW291708   1.725   9.722   6.841
63312SOL     OW91709   0.679   9.466   2.797
63312SOL    HW191710   0.730   9.501   2.724
63312SOL    HW291711   0.669   9.539   2.857
63313SOL     OW91712   6.838   5.521   7.733
63313SOL    HW191713   6.854   5.532   7.639
63313SOL    HW291714   6.860   5.430   7.751
63314SOL     OW91715   3.772  14.640   7.389
63314SOL    HW191716   3.802  14.636   7.298
63314SOL    HW291717   3.686  14.683   7.383
63315SOL     OW91718   2.436  11.617  13.806
63315SOL    HW191719   2.415  11.559  13.733
63315SOL    HW291720   2.471  11.559  13.873
63316SOL     OW91721   9.359   7.143   3.128
63316SOL    HW191722   9.360   7.204   3.055
63316SOL    HW291723   9.266   7.119   3.137
63317SOL     OW91724   7.637   9.356   9.997
63317SOL    HW191725   7.620   9.351  10.091
63317SOL    HW291726   7.657   9.266   9.972
63318SOL     OW91727  14.674  14.634  12.302
63318SOL    HW191728  14.633  14.550  12.281
63318SOL    HW291729  14.662  14.687  12.223
63319SOL     OW91730  14.585   4.933  13.358
63319SOL    HW191731  14.498   4.968  13.379
63319SOL    HW291732  14.582   4.842  13.385
63320SOL     OW91733  10.561   5.140   9.868
63320SOL    HW191734  10.571   5.195   9.790
63320SOL    HW291735  10.486   5.177   9.913
63321SOL     OW91736   0.399   3.909   5.288
63321SOL    HW191737   0.323   3.952   5.328
63321SOL    HW291738   0.402   3.945   5.199
63322SOL     OW91739  14.867  10.480  14.436
63322SOL    HW191740   0.040  10.482  14.355
63322SOL    HW291741  14.777  10.498  14.409
63323SOL     OW91742   0.751   7.856   7.454
63323SOL    HW191743   0.715   7.768   7.441
63323SOL    HW291744   0.840   7.840   7.486
63324SOL     OW91745   3.299  12.620   3.276
63324SOL    HW191746   3.204  12.609   3.281
63324SOL    HW291747   3.328  12.613   3.366
63325SOL     OW91748   9.370  14.730  13.308
63325SOL    HW191749   9.359  14.702  13.399
63325SOL    HW291750   9.312  14.673  13.258
63326SOL     OW91751   5.754   8.738   9.590
63326SOL    HW191752   5.664   8.744   9.559
63326SOL    HW291753   5.803   8.707   9.514
63327SOL     OW91754   8.728   1.270   0.225
63327SOL    HW191755   8.665   1.321   0.175
63327SOL    HW291756   8.744   1.192   0.172
63328SOL     OW91757   3.059   8.287  10.228
63328SOL    HW191758   3.121   8.328  10.289
63328SOL    HW291759   2.976   8.288  10.274
63329SOL     OW91760   1.964  12.180  11.171
63329SOL    HW191761   1.965  12.272  11.145
63329SOL    HW291762   1.887  12.172  11.228
63330SOL     OW91763   5.125   5.193   3.578
63330SOL    HW191764   5.171   5.241   3.648
63330SOL    HW291765   5.156   5.103   3.587
63331SOL     OW91766  11.431   8.553   6.981
63331SOL    HW191767  11.348   8.602   6.982
63331SOL    HW291768  11.404   8.461   6.982
63332SOL     OW91769   3.783   7.890  14.859
63332SOL    HW191770   3.808   7.839  14.781
63332SOL    HW291771   3.725   7.958  14.825
63333SOL     OW91772  10.873   1.080  11.345
63333SOL    HW191773  10.822   1.131  11.282
63333SOL    HW291774  10.908   1.007  11.294
63334SOL     OW91775  11.922  13.203   8.275
63334SOL    HW191776  11.962  13.268   8.218
63334SOL    HW291777  11.829  13.225   8.275
63335SOL     OW91778  13.004   7.769   8.362
63335SOL    HW191779  12.947   7.770   8.439
63335SOL    HW291780  13.005   7.859   8.331
63336SOL     OW91781   0.454  13.346   6.498
63336SOL    HW191782   0.434  13.260   6.460
63336SOL    HW291783   0.524  13.328   6.561
63337SOL     OW91784  13.012  12.001   6.467
63337SOL    HW191785  12.978  11.936   6.406
63337SOL    HW291786  12.990  12.086   6.428
63338SOL     OW91787   9.800   1.342  13.773
63338SOL    HW191788   9.723   1.331  13.829
63338SOL    HW291789   9.809   1.437  13.763
63339SOL     OW91790  10.262   7.015   1.443
63339SOL    HW191791  10.350   7.052   1.437
63339SOL    HW291792  10.238   6.994   1.353
63340SOL     OW91793  14.211   2.354   8.000
63340SOL    HW191794  14.259   2.345   7.917
63340SOL    HW291795  14.234   2.440   8.033
63341SOL     OW91796   3.604   5.082   8.670
63341SOL    HW191797   3.671   5.151   8.666
63341SOL    HW291798   3.526   5.121   8.630
63342SOL     OW91799  13.210   1.515   6.653
63342SOL    HW191800  13.144   1.468   6.602
63342SOL    HW291801  13.223   1.460   6.730
63343SOL     OW91802   2.862   9.048  13.618
63343SOL    HW191803   2.891   9.084  13.535
63343SOL    HW291804   2.857   8.953  13.603
63344SOL     OW91805   6.858   4.138  14.560
63344SOL    HW191806   6.945   4.173  14.578
63344SOL    HW291807   6.864   4.100  14.473
63345SOL     OW91808  12.547   4.176   2.823
63345SOL    HW191809  12.493   4.106   2.861
63345SOL    HW291810  12.533   4.251   2.882
63346SOL     OW91811  13.852   2.866   9.936
63346SOL    HW191812  13.918   2.821   9.990
63346SOL    HW291813  13.869   2.836   9.847
63347SOL     OW91814  13.815   4.072   2.346
63347SOL    HW191815  13.807   4.090   2.440
63347SOL    HW291816  13.725   4.069   2.314
63348SOL     OW91817  13.787  14.062  13.748
63348SOL    HW191818  13.793  14.128  13.816
63348SOL    HW291819  13.870  14.014  13.753
63349SOL     OW91820  12.269   4.160   2.981
63349SOL    HW191821  12.257   4.065   2.970
63349SOL    HW291822  12.300   4.169   3.071
63350SOL     OW91823  10.299  10.446   2.131
63350SOL    HW191824  10.309  10.541   2.143
63350SOL    HW291825  10.369  10.423   2.070
63351SOL     OW91826   6.266   1.193  11.482
63351SOL    HW191827   6.248   1.274  11.529
63351SOL    HW291828   6.350   1.209  11.438
63352SOL     OW91829   8.069   9.474   0.357
63352SOL    HW191830   8.107   9.507   0.276
63352SOL    HW291831   7.975   9.488   0.347
63353SOL     OW91832  14.651   6.131   4.523
63353SOL    HW191833  14.725   6.101   4.576
63353SOL    HW291834  14.670   6.098   4.435
63354SOL     OW91835   6.560   9.156   0.326
63354SOL    HW191836   6.517   9.071   0.336
63354SOL    HW291837   6.613   9.166   0.405
63355SOL     OW91838   7.526   6.760   8.377
63355SOL    HW191839   7.447   6.812   8.388
63355SOL    HW291840   7.594   6.809   8.423
63356SOL     OW91841   6.988  13.913   5.361
63356SOL    HW191842   6.910  13.859   5.375
63356SOL    HW291843   7.060  13.851   5.355
63357SOL     OW91844   3.056   3.819   6.025
63357SOL    HW191845   3.083   3.839   5.935
63357SOL    HW291846   3.037   3.904   6.064
63358SOL     OW91847   9.306  10.453  12.368
63358SOL    HW191848   9.291  10.545  12.389
63358SOL    HW291849   9.218  10.417  12.356
63359SOL     OW91850   5.977  12.238   5.606
63359SOL    HW191851   6.030  12.307   5.567
63359SOL    HW291852   5.891  12.278   5.620
63360SOL     OW91853   8.484   6.400  11.089
63360SOL    HW191854   8.514   6.474  11.037
63360SOL    HW291855   8.415   6.360  11.037
63361SOL     OW91856  12.936  13.615   2.705
63361SOL    HW191857  12.967  13.568   2.627
63361SOL    HW291858  13.010  13.670   2.730
63362SOL     OW91859   6.913  12.443   1.084
63362SOL    HW191860   6.901  12.432   1.179
63362SOL    HW291861   6.877  12.530   1.066
63363SOL     OW91862   3.722  14.271   3.877
63363SOL    HW191863   3.767  14.262   3.793
63363SOL    HW291864   3.683  14.185   3.892
63364SOL     OW91865  13.906   6.361   3.906
63364SOL    HW191866  13.874   6.274   3.933
63364SOL    HW291867  13.922   6.352   3.812
63365SOL     OW91868   5.749   8.280  13.430
63365SOL    HW191869   5.746   8.218  13.358
63365SOL    HW291870   5.665   8.269  13.475
63366SOL     OW91871  14.450   2.330  10.429
63366SOL    HW191872  14.490   2.335  10.516
63366SOL    HW291873  14.380   2.397  10.431
63367SOL     OW91874  11.655   2.891   1.129
63367SOL    HW191875  11.579   2.944   1.152
63367SOL    HW291876  11.720   2.955   1.099
63368SOL     OW91877   8.395   6.852   4.682
63368SOL    HW191878   8.476   6.896   4.708
63368SOL    HW291879   8.326   6.910   4.715
63369SOL     OW91880   8.135   5.722   3.487
63369SOL    HW191881   8.071   5.792   3.496
63369SOL    HW291882   8.213   5.755   3.530
63370SOL     OW91883   4.092   1.043   2.368
63370SOL    HW191884   4.177   1.038   2.410
63370SOL    HW291885   4.105   1.003   2.282
63371SOL     OW91886  14.729  14.659   2.571
63371SOL    HW191887  14.691  14.608   2.643
63371SOL    HW291888  14.658  14.716   2.542
63372SOL     OW91889   1.807   3.317  13.345
63372SOL    HW191890   1.712   3.317  13.332
63372SOL    HW291891   1.834   3.405  13.319
63373SOL     OW91892   8.225  13.895   2.198
63373SOL    HW191893   8.158  13.907   2.265
63373SOL    HW291894   8.176  13.875   2.118
63374SOL     OW91895   9.331  10.912   7.935
63374SOL    HW191896   9.272  10.941   7.865
63374SOL    HW291897   9.338  10.988   7.993
63375SOL     OW91898   2.733  11.715   5.485
63375SOL    HW191899   2.663  11.651   5.500
63375SOL    HW291900   2.688  11.799   5.479
63376SOL     OW91901   0.264  10.000   3.012
63376SOL    HW191902   0.245   9.916   3.053
63376SOL    HW291903   0.323  10.044   3.074
63377SOL     OW91904   1.337   4.391  14.031
63377SOL    HW191905   1.346   4.482  14.058
63377SOL    HW291906   1.316   4.395  13.938
63378SOL     OW91907   7.573  14.183  12.372
63378SOL    HW191908   7.586  14.277  12.357
63378SOL    HW291909   7.491  14.177  12.421
63379SOL     OW91910   2.958  12.515  12.586
63379SOL    HW191911   2.897  12.561  12.530
63379SOL    HW291912   3.044  12.532  12.549
63380SOL     OW91913   7.281  14.709   1.092
63380SOL    HW191914   7.230  14.628   1.094
63380SOL    HW291915   7.280  14.735   1.000
63381SOL     OW91916   9.219  10.926  11.590
63381SOL    HW191917   9.260  10.910  11.505
63381SOL    HW291918   9.126  10.912  11.575
63382SOL     OW91919   8.936  10.520   9.705
63382SOL    HW191920   8.931  10.445   9.763
63382SOL    HW291921   9.004  10.498   9.642
63383SOL     OW91922  13.934  13.831   0.418
63383SOL    HW191923  13.942  13.807   0.510
63383SOL    HW291924  13.959  13.923   0.415
63384SOL     OW91925  14.493   7.868  14.324
63384SOL    HW191926  14.557   7.826  14.267
63384SOL    HW291927  14.409   7.857  14.279
63385SOL     OW91928  13.494   2.607   6.055
63385SOL    HW191929  13.410   2.562   6.043
63385SOL    HW291930  13.556   2.537   6.076
63386SOL     OW91931  12.292   8.991   9.777
63386SOL    HW191932  12.383   9.019   9.787
63386SOL    HW291933  12.241   9.069   9.799
63387SOL     OW91934  11.380  14.702  12.319
63387SOL    HW191935  11.339  14.621  12.350
63387SOL    HW291936  11.354  14.707  12.227
63388SOL     OW91937   4.463   9.957   0.119
63388SOL    HW191938   4.405  10.018   0.164
63388SOL    HW291939   4.542   9.954   0.174
63389SOL     OW91940   6.915  11.217   9.151
63389SOL    HW191941   6.875  11.257   9.073
63389SOL    HW291942   6.867  11.256   9.224
63390SOL     OW91943   7.916   6.484   9.194
63390SOL    HW191944   7.942   6.447   9.110
63390SOL    HW291945   7.822   6.468   9.199
63391SOL     OW91946   5.310  12.765   3.045
63391SOL    HW191947   5.401  12.792   3.058
63391SOL    HW291948   5.276  12.749   3.133
63392SOL     OW91949   8.271   3.808   5.304
63392SOL    HW191950   8.285   3.777   5.393
63392SOL    HW291951   8.228   3.893   5.314
63393SOL     OW91952   6.117   7.759   0.690
63393SOL    HW191953   6.033   7.757   0.736
63393SOL    HW291954   6.167   7.828   0.734
63394SOL     OW91955   7.007   8.280   2.599
63394SOL    HW191956   7.024   8.274   2.505
63394SOL    HW291957   7.015   8.191   2.631
63395SOL     OW91958   1.756  10.445   8.870
63395SOL    HW191959   1.738  10.535   8.845
63395SOL    HW291960   1.852  10.440   8.876
63396SOL     OW91961   9.755   3.178   7.587
63396SOL    HW191962   9.688   3.152   7.650
63396SOL    HW291963   9.837   3.143   7.622
63397SOL     OW91964   7.163   2.482   0.750
63397SOL    HW191965   7.130   2.451   0.835
63397SOL    HW291966   7.213   2.408   0.716
63398SOL     OW91967   4.629   2.682  10.053
63398SOL    HW191968   4.719   2.712  10.043
63398SOL    HW291969   4.599   2.665   9.964
63399SOL     OW91970   6.001   2.093   9.682
63399SOL    HW191971   6.085   2.069   9.642
63399SOL    HW291972   5.981   2.020   9.741
63400SOL     OW91973   5.075   0.164   1.780
63400SOL    HW191974   5.029   0.082   1.762
63400SOL    HW291975   5.074   0.211   1.697
63401SOL     OW91976   3.614  13.008   5.285
63401SOL    HW191977   3.547  12.968   5.341
63401SOL    HW291978   3.649  12.935   5.234
63402SOL     OW91979   3.215  12.236  11.621
63402SOL    HW191980   3.246  12.171  11.684
63402SOL    HW291981   3.282  12.304  11.622
63403SOL     OW91982   0.579   7.425  14.731
63403SOL    HW191983   0.573   7.495  14.795
63403SOL    HW291984   0.627   7.463  14.657
63404SOL     OW91985   4.795   1.110  10.091
63404SOL    HW191986   4.710   1.068  10.079
63404SOL    HW291987   4.819   1.140  10.003
63405SOL     OW91988   7.437  13.955   0.153
63405SOL    HW191989   7.462  13.994   0.237
63405SOL    HW291990   7.464  14.020   0.088
63406SOL     OW91991   9.379   1.459   4.006
63406SOL    HW191992   9.455   1.488   3.955
63406SOL    HW291993   9.321   1.419   3.941
63407SOL     OW91994   6.529   8.627  13.436
63407SOL    HW191995   6.446   8.580  13.443
63407SOL    HW291996   6.596   8.559  13.443
63408SOL     OW91997  10.445  13.602  11.141
63408SOL    HW191998  10.463  13.538  11.209
63408SOL    HW291999  10.515  13.588  11.076
63409SOL     OW92000  12.400  14.319  10.560
63409SOL    HW192001  12.353  14.237  10.575
63409SOL    HW292002  12.473  14.316  10.621
63410SOL     OW92003   6.292   0.313   0.002
63410SOL    HW192004   6.254   0.396   0.032
63410SOL    HW292005   6.386   0.324   0.014
63411SOL     OW92006   3.221  10.849   3.797
63411SOL    HW192007   3.206  10.754   3.791
63411SOL    HW292008   3.313  10.856   3.824
63412SOL     OW92009  11.513  10.850  13.239
63412SOL    HW192010  11.486  10.883  13.324
63412SOL    HW292011  11.464  10.768  13.229
63413SOL     OW92012   6.203  13.991  13.280
63413SOL    HW192013   6.136  13.941  13.233
63413SOL    HW292014   6.234  13.931  13.348
63414SOL     OW92015  11.716  14.393   6.791
63414SOL    HW192016  11.627  14.398   6.758
63414SOL    HW292017  11.768  14.367   6.714
63415SOL     OW92018   0.724   8.188  11.085
63415SOL    HW192019   0.753   8.184  11.176
63415SOL    HW292020   0.638   8.229  11.089
63416SOL     OW92021  11.441  12.305   5.401
63416SOL    HW192022  11.475  12.219   5.428
63416SOL    HW292023  11.438  12.356   5.481
63417SOL     OW92024   0.433   0.964   2.031
63417SOL    HW192025   0.382   1.037   1.995
63417SOL    HW292026   0.421   0.972   2.126
63418SOL     OW92027   7.736  13.054  14.683
63418SOL    HW192028   7.715  12.960  14.684
63418SOL    HW292029   7.825  13.058  14.648
63419SOL     OW92030   4.353   3.343  14.094
63419SOL    HW192031   4.323   3.318  14.007
63419SOL    HW292032   4.428   3.400  14.078
63420SOL     OW92033   3.159   2.483   2.862
63420SOL    HW192034   3.136   2.413   2.801
63420SOL    HW292035   3.248   2.509   2.838
63421SOL     OW92036   5.266   3.716   2.929
63421SOL    HW192037   5.283   3.630   2.891
63421SOL    HW292038   5.268   3.777   2.855
63422SOL     OW92039  14.445  11.886  11.132
63422SOL    HW192040  14.539  11.896  11.151
63422SOL    HW292041  14.431  11.937  11.052
63423SOL     OW92042   8.372  12.505   8.634
63423SOL    HW192043   8.280  12.532   8.640
63423SOL    HW292044   8.420  12.588   8.628
63424SOL     OW92045  12.104   0.518   6.540
63424SOL    HW192046  12.078   0.593   6.594
63424SOL    HW292047  12.044   0.448   6.566
63425SOL     OW92048   1.259   6.370  12.740
63425SOL    HW192049   1.332   6.429  12.757
63425SOL    HW292050   1.181   6.420  12.767
63426SOL     OW92051  11.869  12.757   3.051
63426SOL    HW192052  11.900  12.756   2.960
63426SOL    HW292053  11.945  12.730   3.102
63427SOL     OW92054  13.410   5.229   7.966
63427SOL    HW192055  13.413   5.246   8.060
63427SOL    HW292056  13.497   5.195   7.944
63428SOL     OW92057  13.038  11.106   8.357
63428SOL    HW192058  12.980  11.034   8.333
63428SOL    HW292059  13.003  11.182   8.311
63429SOL     OW92060  11.525  10.729   7.588
63429SOL    HW192061  11.500  10.721   7.495
63429SOL    HW292062  11.602  10.786   7.587
63430SOL     OW92063  14.568  14.477  12.086
63430SOL    HW192064  14.640  14.415  12.096
63430SOL    HW292065  14.607  14.555  12.048
63431SOL     OW92066   2.168   9.756   4.168
63431SOL    HW192067   2.131   9.841   4.191
63431SOL    HW292068   2.171   9.756   4.072
63432SOL     OW92069   1.745   7.554  13.775
63432SOL    HW192070   1.757   7.575  13.683
63432SOL    HW292071   1.740   7.458  13.778
63433SOL     OW92072  11.593   7.955  13.050
63433SOL    HW192073  11.577   7.861  13.046
63433SOL    HW292074  11.663   7.971  12.987
63434SOL     OW92075  11.247  14.009  13.562
63434SOL    HW192076  11.161  13.969  13.551
63434SOL    HW292077  11.230  14.097  13.594
63435SOL     OW92078   1.197   4.326   8.239
63435SOL    HW192079   1.243   4.360   8.163
63435SOL    HW292080   1.230   4.236   8.250
63436SOL     OW92081   6.416   9.263   4.218
63436SOL    HW192082   6.474   9.241   4.291
63436SOL    HW292083   6.441   9.352   4.194
63437SOL     OW92084   0.074   3.558   9.730
63437SOL    HW192085   0.037   3.492   9.671
63437SOL    HW292086   0.079   3.513   9.815
63438SOL     OW92087   8.007   1.207   2.302
63438SOL    HW192088   7.972   1.248   2.381
63438SOL    HW292089   8.037   1.279   2.248
63439SOL     OW92090   8.526  14.434  10.128
63439SOL    HW192091   8.549  14.364  10.189
63439SOL    HW292092   8.442  14.467  10.160
63440SOL     OW92093   3.996   5.712  10.929
63440SOL    HW192094   4.039   5.747  11.007
63440SOL    HW292095   3.917   5.765  10.920
63441SOL     OW92096   6.487  13.585  11.391
63441SOL    HW192097   6.392  13.584  11.404
63441SOL    HW292098   6.523  13.626  11.470
63442SOL     OW92099  13.778  14.195   2.117
63442SOL    HW192100  13.861  14.218   2.158
63442SOL    HW292101  13.798  14.190   2.023
63443SOL     OW92102   7.289   1.478   1.711
63443SOL    HW192103   7.379   1.487   1.681
63443SOL    HW292104   7.288   1.522   1.797
63444SOL     OW92105  11.833  10.299   7.986
63444SOL    HW192106  11.748  10.317   8.025
63444SOL    HW292107  11.892  10.364   8.025
63445SOL     OW92108   2.562   6.706  14.345
63445SOL    HW192109   2.642   6.666  14.380
63445SOL    HW292110   2.526   6.755  14.419
63446SOL     OW92111   8.443  12.018   2.051
63446SOL    HW192112   8.388  11.993   1.976
63446SOL    HW292113   8.445  12.114   2.048
63447SOL     OW92114   6.657  10.036  10.015
63447SOL    HW192115   6.565  10.049  10.037
63447SOL    HW292116   6.655   9.994   9.929
63448SOL     OW92117  10.145   4.172   1.576
63448SOL    HW192118  10.172   4.197   1.664
63448SOL    HW292119  10.105   4.085   1.587
63449SOL     OW92120   5.040   2.357   6.160
63449SOL    HW192121   4.951   2.355   6.125
63449SOL    HW292122   5.028   2.374   6.253
63450SOL     OW92123  14.875   7.210  12.531
63450SOL    HW192124  14.780   7.210  12.516
63450SOL    HW292125   0.021   7.302  12.536
63451SOL     OW92126   9.324   8.796   0.298
63451SOL    HW192127   9.315   8.712   0.342
63451SOL    HW292128   9.366   8.853   0.362
63452SOL     OW92129   7.982   8.449   3.099
63452SOL    HW192130   8.016   8.480   3.183
63452SOL    HW292131   7.904   8.502   3.083
63453SOL     OW92132   1.488  10.758  10.264
63453SOL    HW192133   1.509  10.846  10.233
63453SOL    HW292134   1.465  10.709  10.186
63454SOL     OW92135   7.476  12.577   8.165
63454SOL    HW192136   7.410  12.531   8.216
63454SOL    HW292137   7.536  12.508   8.135
63455SOL     OW92138  13.705   9.251  11.492
63455SOL    HW192139  13.701   9.278  11.583
63455SOL    HW292140  13.618   9.271  11.457
63456SOL     OW92141  11.628   9.926   4.116
63456SOL    HW192142  11.546   9.962   4.150
63456SOL    HW292143  11.601   9.852   4.061
63457SOL     OW92144  13.667  14.193  10.393
63457SOL    HW192145  13.715  14.257  10.444
63457SOL    HW292146  13.733  14.148  10.340
63458SOL     OW92147  12.722  14.047   7.175
63458SOL    HW192148  12.646  13.997   7.146
63458SOL    HW292149  12.693  14.090   7.256
63459SOL     OW92150  11.678   3.882  10.741
63459SOL    HW192151  11.691   3.792  10.769
63459SOL    HW292152  11.733   3.934  10.800
63460SOL     OW92153   9.326  11.640   5.076
63460SOL    HW192154   9.231  11.647   5.082
63460SOL    HW292155   9.358  11.725   5.108
63461SOL     OW92156   4.461  14.743  14.804
63461SOL    HW192157   4.506  14.712   0.005
63461SOL    HW292158   4.524  14.726  14.733
63462SOL     OW92159   1.834   9.321  11.309
63462SOL    HW192160   1.764   9.257  11.307
63462SOL    HW292161   1.861   9.330  11.217
63463SOL     OW92162   2.806   0.556   1.005
63463SOL    HW192163   2.737   0.620   0.985
63463SOL    HW292164   2.828   0.517   0.921
63464SOL     OW92165  11.487   3.143   9.355
63464SOL    HW192166  11.444   3.204   9.295
63464SOL    HW292167  11.574   3.128   9.316
63465SOL     OW92168   6.560   4.571   8.348
63465SOL    HW192169   6.589   4.634   8.282
63465SOL    HW292170   6.640   4.539   8.388
63466SOL     OW92171   0.706   0.689   1.036
63466SOL    HW192172   0.722   0.749   0.963
63466SOL    HW292173   0.699   0.602   0.996
63467SOL     OW92174   1.337  12.530   2.295
63467SOL    HW192175   1.316  12.540   2.202
63467SOL    HW292176   1.371  12.615   2.321
63468SOL     OW92177  11.756   6.707  12.079
63468SOL    HW192178  11.797   6.643  12.021
63468SOL    HW292179  11.751   6.663  12.164
63469SOL     OW92180   1.803   1.621   0.213
63469SOL    HW192181   1.866   1.691   0.232
63469SOL    HW292182   1.723   1.667   0.187
63470SOL     OW92183  14.253   5.859   2.291
63470SOL    HW192184  14.212   5.808   2.361
63470SOL    HW292185  14.186   5.867   2.223
63471SOL     OW92186   0.234  12.244  12.485
63471SOL    HW192187   0.231  12.207  12.396
63471SOL    HW292188   0.323  12.225  12.515
63472SOL     OW92189   4.321   0.215   2.494
63472SOL    HW192190   4.324   0.304   2.531
63472SOL    HW292191   4.388   0.215   2.426
63473SOL     OW92192   7.442   0.870  14.534
63473SOL    HW192193   7.495   0.908  14.464
63473SOL    HW292194   7.505   0.823  14.589
63474SOL     OW92195   6.675   7.689  10.488
63474SOL    HW192196   6.624   7.609  10.498
63474SOL    HW292197   6.730   7.672  10.412
63475SOL     OW92198   5.624   1.766  12.296
63475SOL    HW192199   5.674   1.846  12.306
63475SOL    HW292200   5.687   1.696  12.311
63476SOL     OW92201   0.061   1.937   9.975
63476SOL    HW192202   0.035   1.928  10.067
63476SOL    HW292203   0.146   1.980   9.978
63477SOL     OW92204  11.341   3.326  13.449
63477SOL    HW192205  11.271   3.337  13.385
63477SOL    HW292206  11.382   3.243  13.427
63478SOL     OW92207  14.552   2.661   8.716
63478SOL    HW192208  14.474   2.716   8.714
63478SOL    HW292209  14.597   2.686   8.797
63479SOL     OW92210   2.572   3.085   1.080
63479SOL    HW192211   2.649   3.032   1.096
63479SOL    HW292212   2.521   3.036   1.016
63480SOL     OW92213   4.793  10.677  10.027
63480SOL    HW192214   4.824  10.747  10.084
63480SOL    HW292215   4.736  10.624  10.084
63481SOL     OW92216   0.844   7.599   0.448
63481SOL    HW192217   0.908   7.668   0.431
63481SOL    HW292218   0.896   7.523   0.473
63482SOL     OW92219  14.627   1.461  12.780
63482SOL    HW192220  14.579   1.396  12.830
63482SOL    HW292221  14.701   1.413  12.744
63483SOL     OW92222  13.948   0.735   4.260
63483SOL    HW192223  14.008   0.719   4.187
63483SOL    HW292224  13.974   0.820   4.294
63484SOL     OW92225  12.170  12.477   2.626
63484SOL    HW192226  12.229  12.503   2.696
63484SOL    HW292227  12.166  12.553   2.568
63485SOL     OW92228   1.229   6.150   7.295
63485SOL    HW192229   1.160   6.089   7.320
63485SOL    HW292230   1.182   6.224   7.256
63486SOL     OW92231   7.738   3.564  12.284
63486SOL    HW192232   7.730   3.549  12.190
63486SOL    HW292233   7.832   3.557  12.302
63487SOL     OW92234  10.201   1.813   1.041
63487SOL    HW192235  10.176   1.770   0.960
63487SOL    HW292236  10.191   1.907   1.023
63488SOL     OW92237   0.460   0.480  11.508
63488SOL    HW192238   0.535   0.423  11.526
63488SOL    HW292239   0.456   0.538  11.584
63489SOL     OW92240   0.903  10.964   5.189
63489SOL    HW192241   0.995  10.976   5.212
63489SOL    HW292242   0.901  10.972   5.093
63490SOL     OW92243   2.675   8.802   0.764
63490SOL    HW192244   2.688   8.896   0.774
63490SOL    HW292245   2.661   8.769   0.853
63491SOL     OW92246  11.295   2.208  14.762
63491SOL    HW192247  11.220   2.210  14.820
63491SOL    HW292248  11.280   2.279  14.700
63492SOL     OW92249  12.757  10.507  12.092
63492SOL    HW192250  12.661  10.502  12.084
63492SOL    HW292251  12.781  10.583  12.039
63493SOL     OW92252   8.751   0.631   3.930
63493SOL    HW192253   8.805   0.710   3.938
63493SOL    HW292254   8.814   0.561   3.909
63494SOL     OW92255   0.986  13.236  10.217
63494SOL    HW192256   0.928  13.179  10.268
63494SOL    HW292257   0.978  13.322  10.259
63495SOL     OW92258   8.978   3.903   3.947
63495SOL    HW192259   8.975   3.931   3.855
63495SOL    HW292260   8.975   3.807   3.944
63496SOL     OW92261  13.570   9.221   8.992
63496SOL    HW192262  13.630   9.156   8.955
63496SOL    HW292263  13.614   9.305   8.978
63497SOL     OW92264   0.376   3.838   4.329
63497SOL    HW192265   0.465   3.844   4.364
63497SOL    HW292266   0.368   3.748   4.298
63498SOL     OW92267   3.192  12.480   1.584
63498SOL    HW192268   3.187  12.503   1.491
63498SOL    HW292269   3.125  12.534   1.626
63499SOL     OW92270  12.978   5.773   3.908
63499SOL    HW192271  13.051   5.712   3.896
63499SOL    HW292272  12.969   5.816   3.823
63500SOL     OW92273   1.275   2.605   7.298
63500SOL    HW192274   1.291   2.570   7.210
63500SOL    HW292275   1.236   2.691   7.282
63501SOL     OW92276   1.080  11.528  14.343
63501SOL    HW192277   1.083  11.597  14.409
63501SOL    HW292278   0.988  11.502  14.340
63502SOL     OW92279   2.341   4.524   6.056
63502SOL    HW192280   2.362   4.596   5.997
63502SOL    HW292281   2.318   4.451   5.999
63503SOL     OW92282  10.252   3.974   4.189
63503SOL    HW192283  10.191   3.921   4.240
63503SOL    HW292284  10.286   3.914   4.122
63504SOL     OW92285   5.759  14.511  13.987
63504SOL    HW192286   5.815  14.575  14.031
63504SOL    HW292287   5.719  14.560  13.915
63505SOL     OW92288  10.286   7.060  14.839
63505SOL    HW192289  10.236   7.120   0.016
63505SOL    HW292290  10.308   7.110  14.761
63506SOL     OW92291  11.753   1.715   3.654
63506SOL    HW192292  11.665   1.678   3.655
63506SOL    HW292293  11.792   1.685   3.736
63507SOL     OW92294   8.014   8.457   2.697
63507SOL    HW192295   7.995   8.521   2.628
63507SOL    HW292296   8.077   8.501   2.754
63508SOL     OW92297   5.615   1.487   7.254
63508SOL    HW192298   5.677   1.487   7.327
63508SOL    HW292299   5.666   1.514   7.178
63509SOL     OW92300  12.804   8.738   6.781
63509SOL    HW192301  12.752   8.728   6.861
63509SOL    HW292302  12.881   8.683   6.795
63510SOL     OW92303   8.892   4.094   6.695
63510SOL    HW192304   8.898   4.003   6.666
63510SOL    HW292305   8.979   4.131   6.677
63511SOL     OW92306  14.357   1.552   4.235
63511SOL    HW192307  14.410   1.631   4.225
63511SOL    HW292308  14.285   1.579   4.291
63512SOL     OW92309   7.310  13.011  12.278
63512SOL    HW192310   7.309  12.915  12.271
63512SOL    HW292311   7.248  13.031  12.348
63513SOL     OW92312  14.443   2.426   8.585
63513SOL    HW192313  14.509   2.365   8.552
63513SOL    HW292314  14.493   2.491   8.633
63514SOL     OW92315  11.359   6.335  14.162
63514SOL    HW192316  11.335   6.389  14.087
63514SOL    HW292317  11.377   6.248  14.124
63515SOL     OW92318   3.921  14.056   8.072
63515SOL    HW192319   3.994  13.996   8.092
63515SOL    HW292320   3.956  14.114   8.005
63516SOL     OW92321   6.527   9.290   6.478
63516SOL    HW192322   6.453   9.312   6.421
63516SOL    HW292323   6.489   9.238   6.549
63517SOL     OW92324   6.829  14.242   3.734
63517SOL    HW192325   6.876  14.197   3.803
63517SOL    HW292326   6.867  14.330   3.733
63518SOL     OW92327  13.955   2.931  12.747
63518SOL    HW192328  13.911   2.998  12.801
63518SOL    HW292329  13.930   2.848  12.787
63519SOL     OW92330   5.649   7.428   8.806
63519SOL    HW192331   5.719   7.489   8.786
63519SOL    HW292332   5.692   7.356   8.852
63520SOL     OW92333  11.435  13.108   2.231
63520SOL    HW192334  11.355  13.057   2.242
63520SOL    HW292335  11.505  13.043   2.230
63521SOL     OW92336   3.886  12.175   1.108
63521SOL    HW192337   3.826  12.101   1.122
63521SOL    HW292338   3.970  12.134   1.086
63522SOL     OW92339   6.853   9.795   3.404
63522SOL    HW192340   6.817   9.726   3.347
63522SOL    HW292341   6.864   9.871   3.347
63523SOL     OW92342   8.211   6.193  10.016
63523SOL    HW192343   8.210   6.099  10.035
63523SOL    HW292344   8.143   6.229  10.072
63524SOL     OW92345   0.002   2.665   0.342
63524SOL    HW192346   0.042   2.606   0.407
63524SOL    HW292347   0.007   2.616   0.260
63525SOL     OW92348   8.770  10.906   0.686
63525SOL    HW192349   8.779  11.001   0.695
63525SOL    HW292350   8.690  10.885   0.735
63526SOL     OW92351  13.619   7.185   0.158
63526SOL    HW192352  13.703   7.161   0.121
63526SOL    HW292353  13.629   7.171   0.252
63527SOL     OW92354   5.357  11.965   8.276
63527SOL    HW192355   5.379  12.051   8.241
63527SOL    HW292356   5.422  11.905   8.239
63528SOL     OW92357  13.381   4.112  11.045
63528SOL    HW192358  13.457   4.168  11.059
63528SOL    HW292359  13.314   4.170  11.010
63529SOL     OW92360  10.986  14.157  11.417
63529SOL    HW192361  10.966  14.076  11.464
63529SOL    HW292362  10.952  14.226  11.474
63530SOL     OW92363  10.155   2.996   4.111
63530SOL    HW192364  10.169   2.905   4.083
63530SOL    HW292365  10.228   3.014   4.170
63531SOL     OW92366  13.865  12.468  12.467
63531SOL    HW192367  13.850  12.539  12.529
63531SOL    HW292368  13.798  12.404  12.487
63532SOL     OW92369  12.713   9.175  14.730
63532SOL    HW192370  12.640   9.237  14.735
63532SOL    HW292371  12.739   9.162  14.821
63533SOL     OW92372   6.827   1.228  10.855
63533SOL    HW192373   6.778   1.230  10.938
63533SOL    HW292374   6.814   1.315  10.818
63534SOL     OW92375   4.597  11.435   5.704
63534SOL    HW192376   4.634  11.376   5.769
63534SOL    HW292377   4.545  11.498   5.755
63535SOL     OW92378   6.146  10.684   1.767
63535SOL    HW192379   6.076  10.658   1.708
63535SOL    HW292380   6.124  10.773   1.793
63536SOL     OW92381   4.901   2.637  14.300
63536SOL    HW192382   4.871   2.550  14.326
63536SOL    HW292383   4.822   2.683  14.273
63537SOL     OW92384   5.520   8.624   7.206
63537SOL    HW192385   5.525   8.615   7.301
63537SOL    HW292386   5.464   8.700   7.192
63538SOL     OW92387   3.972   6.935  14.529
63538SOL    HW192388   3.945   6.937  14.437
63538SOL    HW292389   4.066   6.920  14.527
63539SOL     OW92390   5.543   7.261   2.100
63539SOL    HW192391   5.462   7.215   2.121
63539SOL    HW292392   5.563   7.235   2.010
63540SOL     OW92393  11.906   9.296  12.889
63540SOL    HW192394  11.918   9.222  12.830
63540SOL    HW292395  11.990   9.303  12.936
63541SOL     OW92396   0.216   1.071   1.433
63541SOL    HW192397   0.237   1.052   1.525
63541SOL    HW292398   0.229   1.165   1.425
63542SOL     OW92399  11.314  10.692   8.333
63542SOL    HW192400  11.293  10.692   8.239
63542SOL    HW292401  11.314  10.785   8.356
63543SOL     OW92402   0.429   4.048   2.059
63543SOL    HW192403   0.426   4.072   2.152
63543SOL    HW292404   0.339   4.022   2.038
63544SOL     OW92405   5.383  13.302   5.860
63544SOL    HW192406   5.366  13.368   5.793
63544SOL    HW292407   5.440  13.347   5.923
63545SOL     OW92408  11.014   2.946  13.400
63545SOL    HW192409  10.999   3.033  13.364
63545SOL    HW292410  10.935   2.926  13.450
63546SOL     OW92411  12.257   2.456   5.829
63546SOL    HW192412  12.192   2.518   5.863
63546SOL    HW292413  12.307   2.431   5.907
63547SOL     OW92414   3.282   2.546  13.362
63547SOL    HW192415   3.210   2.497  13.401
63547SOL    HW292416   3.330   2.481  13.310
63548SOL     OW92417   7.047   5.767  12.151
63548SOL    HW192418   7.043   5.747  12.245
63548SOL    HW292419   7.098   5.695  12.113
63549SOL     OW92420   3.455   8.837   1.267
63549SOL    HW192421   3.452   8.891   1.188
63549SOL    HW292422   3.368   8.846   1.305
63550SOL     OW92423   6.355   1.981   4.583
63550SOL    HW192424   6.327   1.988   4.674
63550SOL    HW292425   6.287   2.025   4.533
63551SOL     OW92426   7.562   3.976   8.462
63551SOL    HW192427   7.470   3.998   8.448
63551SOL    HW292428   7.609   4.057   8.442
63552SOL     OW92429   7.369   1.672  10.546
63552SOL    HW192430   7.405   1.584  10.529
63552SOL    HW292431   7.347   1.671  10.639
63553SOL     OW92432   4.198   7.856  13.202
63553SOL    HW192433   4.256   7.868  13.127
63553SOL    HW292434   4.245   7.895  13.276
63554SOL     OW92435   5.208  10.813   7.655
63554SOL    HW192436   5.115  10.830   7.660
63554SOL    HW292437   5.220  10.730   7.702
63555SOL     OW92438   9.784   2.134  14.745
63555SOL    HW192439   9.799   2.159  14.836
63555SOL    HW292440   9.810   2.042  14.741
63556SOL     OW92441   7.288  11.650   3.429
63556SOL    HW192442   7.214  11.602   3.465
63556SOL    HW292443   7.261  11.673   3.341
63557SOL     OW92444   1.879   7.579   4.333
63557SOL    HW192445   1.909   7.510   4.392
63557SOL    HW292446   1.957   7.628   4.310
63558SOL     OW92447   1.666   7.806   9.434
63558SOL    HW192448   1.612   7.770   9.364
63558SOL    HW292449   1.637   7.897   9.442
63559SOL     OW92450   8.009  10.296   4.492
63559SOL    HW192451   7.990  10.374   4.440
63559SOL    HW292452   7.983  10.223   4.437
63560SOL     OW92453  11.060  11.765  10.660
63560SOL    HW192454  10.995  11.768  10.730
63560SOL    HW292455  11.090  11.674  10.658
63561SOL     OW92456   0.017  12.811   2.870
63561SOL    HW192457   0.018  12.722   2.836
63561SOL    HW292458   0.098  12.818   2.921
63562SOL     OW92459  12.918   2.503   0.160
63562SOL    HW192460  13.000   2.457   0.140
63562SOL    HW292461  12.903   2.485   0.253
63563SOL     OW92462   4.383   4.925   0.538
63563SOL    HW192463   4.417   5.007   0.573
63563SOL    HW292464   4.452   4.893   0.480
63564SOL     OW92465   0.386  11.552   9.762
63564SOL    HW192466   0.346  11.547   9.675
63564SOL    HW292467   0.314  11.534   9.822
63565SOL     OW92468   3.569  13.685   8.004
63565SOL    HW192469   3.609  13.711   7.921
63565SOL    HW292470   3.536  13.767   8.041
63566SOL     OW92471   2.104  11.839   8.518
63566SOL    HW192472   2.136  11.768   8.573
63566SOL    HW292473   2.017  11.859   8.552
63567SOL     OW92474  12.698  14.807   4.798
63567SOL    HW192475  12.739  14.781   4.880
63567SOL    HW292476  12.608  14.774   4.805
63568SOL     OW92477   7.169   5.645  10.583
63568SOL    HW192478   7.204   5.730  10.608
63568SOL    HW292479   7.246   5.597  10.550
63569SOL     OW92480   4.447   6.725   2.482
63569SOL    HW192481   4.380   6.723   2.414
63569SOL    HW292482   4.412   6.783   2.549
63570SOL     OW92483   9.008  14.614  12.110
63570SOL    HW192484   9.042  14.672  12.042
63570SOL    HW292485   9.003  14.528  12.068
63571SOL     OW92486   4.542   3.659   3.799
63571SOL    HW192487   4.466   3.611   3.832
63571SOL    HW292488   4.596   3.593   3.756
63572SOL     OW92489  10.394   7.076   1.189
63572SOL    HW192490  10.442   7.043   1.113
63572SOL    HW292491  10.446   7.049   1.264
63573SOL     OW92492  13.341  11.780   0.922
63573SOL    HW192493  13.372  11.700   0.879
63573SOL    HW292494  13.248  11.765   0.939
63574SOL     OW92495   5.294   1.984   2.226
63574SOL    HW192496   5.200   1.985   2.208
63574SOL    HW292497   5.301   1.988   2.321
63575SOL     OW92498   4.593   3.420   3.650
63575SOL    HW192499   4.585   3.476   3.573
63575SOL    HW292500   4.514   3.366   3.649
63576SOL     OW92501   8.172   6.020  13.692
63576SOL    HW192502   8.168   6.089  13.626
63576SOL    HW292503   8.083   6.017  13.728
63577SOL     OW92504  14.200   0.988   5.115
63577SOL    HW192505  14.201   1.036   5.198
63577SOL    HW292506  14.234   0.901   5.136
63578SOL     OW92507   7.989  13.273   7.683
63578SOL    HW192508   7.970  13.257   7.776
63578SOL    HW292509   8.083  13.287   7.680
63579SOL     OW92510   3.819   1.448   1.612
63579SOL    HW192511   3.756   1.470   1.543
63579SOL    HW292512   3.828   1.352   1.606
63580SOL     OW92513   4.547   2.658  10.684
63580SOL    HW192514   4.614   2.724  10.669
63580SOL    HW292515   4.561   2.629  10.774
63581SOL     OW92516   1.378   7.033  12.472
63581SOL    HW192517   1.290   7.014  12.440
63581SOL    HW292518   1.433   7.033  12.394
63582SOL     OW92519   0.145   7.519  12.226
63582SOL    HW192520   0.089   7.514  12.149
63582SOL    HW292521   0.100   7.467  12.293
63583SOL     OW92522  11.140   4.432   9.586
63583SOL    HW192523  11.104   4.346   9.606
63583SOL    HW292524  11.066   4.492   9.598
63584SOL     OW92525   2.043   8.053  10.745
63584SOL    HW192526   2.129   8.094  10.738
63584SOL    HW292527   2.048   8.000  10.825
63585SOL     OW92528   6.653   7.969   3.295
63585SOL    HW192529   6.664   7.874   3.298
63585SOL    HW292530   6.736   8.004   3.327
63586SOL     OW92531  11.759   8.254   6.899
63586SOL    HW192532  11.717   8.327   6.945
63586SOL    HW292533  11.852   8.262   6.921
63587SOL     OW92534   5.320   9.899   6.569
63587SOL    HW192535   5.294   9.811   6.597
63587SOL    HW292536   5.384   9.927   6.635
63588SOL     OW92537   6.718   5.807  12.023
63588SOL    HW192538   6.807   5.823  11.992
63588SOL    HW292539   6.724   5.813  12.118
63589SOL     OW92540   2.475  10.606  13.729
63589SOL    HW192541   2.562  10.645  13.727
63589SOL    HW292542   2.486  10.522  13.773
63590SOL     OW92543   7.340  10.974  11.340
63590SOL    HW192544   7.327  10.983  11.246
63590SOL    HW292545   7.329  10.880  11.357
63591SOL     OW92546  11.806   3.306   3.513
63591SOL    HW192547  11.830   3.370   3.580
63591SOL    HW292548  11.834   3.346   3.430
63592SOL     OW92549   4.286   6.991   4.653
63592SOL    HW192550   4.327   6.997   4.739
63592SOL    HW292551   4.330   6.916   4.611
63593SOL     OW92552   2.217   7.097  12.701
63593SOL    HW192553   2.156   7.142  12.760
63593SOL    HW292554   2.162   7.062  12.631
63594SOL     OW92555  11.226  11.093   3.490
63594SOL    HW192556  11.146  11.049   3.518
63594SOL    HW292557  11.256  11.043   3.414
63595SOL     OW92558   6.051   2.113  13.702
63595SOL    HW192559   6.104   2.035  13.715
63595SOL    HW292560   5.971   2.096  13.750
63596SOL     OW92561   5.162   2.902   1.398
63596SOL    HW192562   5.138   2.810   1.387
63596SOL    HW292563   5.175   2.934   1.309
63597SOL     OW92564   5.235  10.959   0.954
63597SOL    HW192565   5.224  10.911   0.872
63597SOL    HW292566   5.145  10.979   0.982
63598SOL     OW92567  14.714  14.708   0.917
63598SOL    HW192568  14.717  14.764   0.994
63598SOL    HW292569  14.768  14.632   0.941
63599SOL     OW92570   7.042  14.217   3.909
63599SOL    HW192571   7.088  14.236   3.991
63599SOL    HW292572   7.105  14.238   3.840
63600SOL     OW92573   1.748  10.750   9.998
63600SOL    HW192574   1.825  10.736  10.052
63600SOL    HW292575   1.698  10.818  10.044
63601SOL     OW92576  11.842   4.587  10.538
63601SOL    HW192577  11.784   4.650  10.495
63601SOL    HW292578  11.898   4.554  10.467
63602SOL     OW92579  12.662  10.034   1.961
63602SOL    HW192580  12.641   9.976   2.034
63602SOL    HW292581  12.737   9.993   1.919
63603SOL     OW92582   6.183   7.383  14.588
63603SOL    HW192583   6.219   7.294  14.584
63603SOL    HW292584   6.253   7.435  14.628
63604SOL     OW92585  10.979   8.523  10.593
63604SOL    HW192586  10.971   8.484  10.506
63604SOL    HW292587  11.053   8.584  10.585
63605SOL     OW92588  11.666   3.069   3.425
63605SOL    HW192589  11.712   3.150   3.444
63605SOL    HW292590  11.660   3.067   3.329
63606SOL     OW92591   6.433  13.413   6.625
63606SOL    HW192592   6.473  13.359   6.557
63606SOL    HW292593   6.366  13.356   6.664
63607SOL     OW92594   2.219  11.642   7.583
63607SOL    HW192595   2.303  11.655   7.626
63607SOL    HW292596   2.230  11.682   7.497
63608SOL     OW92597   6.370  10.740  14.471
63608SOL    HW192598   6.307  10.804  14.438
63608SOL    HW292599   6.369  10.752  14.566
63609SOL     OW92600  14.042  11.818   4.662
63609SOL    HW192601  14.009  11.791   4.576
63609SOL    HW292602  14.136  11.832   4.648
63610SOL     OW92603   7.485   0.880   0.887
63610SOL    HW192604   7.572   0.880   0.925
63610SOL    HW292605   7.446   0.963   0.916
63611SOL     OW92606   3.404   7.973  14.198
63611SOL    HW192607   3.489   8.006  14.227
63611SOL    HW292608   3.418   7.945  14.107
63612SOL     OW92609  11.012   9.234  10.847
63612SOL    HW192610  10.917   9.224  10.849
63612SOL    HW292611  11.032   9.253  10.755
63613SOL     OW92612   6.999   9.231   4.610
63613SOL    HW192613   7.049   9.258   4.533
63613SOL    HW292614   7.021   9.297   4.676
63614SOL     OW92615   0.280   1.314   1.321
63614SOL    HW192616   0.356   1.348   1.273
63614SOL    HW292617   0.205   1.340   1.269
63615SOL     OW92618   2.701   9.884   1.176
63615SOL    HW192619   2.795   9.872   1.187
63615SOL    HW292620   2.692   9.928   1.091
63616SOL     OW92621   8.748   1.015   4.268
63616SOL    HW192622   8.732   1.108   4.284
63616SOL    HW292623   8.763   1.009   4.174
63617SOL     OW92624   5.096   9.767  11.044
63617SOL    HW192625   5.006   9.736  11.035
63617SOL    HW292626   5.149   9.687  11.047
63618SOL     OW92627  13.106  13.819   9.347
63618SOL    HW192628  13.022  13.776   9.329
63618SOL    HW292629  13.153  13.756   9.401
63619SOL     OW92630   0.122   4.622   8.570
63619SOL    HW192631   0.032   4.593   8.554
63619SOL    HW292632   0.159   4.556   8.628
63620SOL     OW92633  12.790   8.904   5.279
63620SOL    HW192634  12.709   8.853   5.267
63620SOL    HW292635  12.859   8.846   5.247
63621SOL     OW92636   0.488   1.040  12.796
63621SOL    HW192637   0.519   1.029  12.706
63621SOL    HW292638   0.514   1.129  12.820
63622SOL     OW92639   5.355   9.304   0.754
63622SOL    HW192640   5.283   9.288   0.816
63622SOL    HW292641   5.353   9.229   0.695
63623SOL     OW92642   4.003   0.516   4.218
63623SOL    HW192643   3.959   0.600   4.205
63623SOL    HW292644   4.070   0.514   4.150
63624SOL     OW92645  13.491   6.054   2.661
63624SOL    HW192646  13.482   6.082   2.752
63624SOL    HW292647  13.532   5.968   2.666
63625SOL     OW92648   3.176   7.389  13.219
63625SOL    HW192649   3.191   7.416  13.128
63625SOL    HW292650   3.104   7.326  13.213
63626SOL     OW92651  10.410   0.342   8.216
63626SOL    HW192652  10.485   0.395   8.190
63626SOL    HW292653  10.353   0.342   8.139
63627SOL     OW92654  10.232   8.743  13.687
63627SOL    HW192655  10.255   8.814  13.627
63627SOL    HW292656  10.203   8.672  13.631
63628SOL     OW92657   9.830   4.659  14.704
63628SOL    HW192658   9.830   4.726  14.635
63628SOL    HW292659   9.747   4.613  14.692
63629SOL     OW92660   5.786   5.305   1.708
63629SOL    HW192661   5.817   5.222   1.673
63629SOL    HW292662   5.816   5.306   1.798
63630SOL     OW92663  13.560   5.553  12.617
63630SOL    HW192664  13.580   5.591  12.531
63630SOL    HW292665  13.615   5.475  12.621
63631SOL     OW92666   7.478   6.036   9.511
63631SOL    HW192667   7.441   6.053   9.598
63631SOL    HW292668   7.401   6.030   9.453
63632SOL     OW92669   6.313   4.977   1.283
63632SOL    HW192670   6.220   4.999   1.278
63632SOL    HW292671   6.316   4.906   1.348
63633SOL     OW92672  12.226   8.750   1.838
63633SOL    HW192673  12.302   8.695   1.855
63633SOL    HW292674  12.217   8.750   1.742
63634SOL     OW92675  13.428   7.103  13.222
63634SOL    HW192676  13.438   7.035  13.288
63634SOL    HW292677  13.349   7.077  13.173
63635SOL     OW92678   4.257   8.445   7.227
63635SOL    HW192679   4.312   8.420   7.301
63635SOL    HW292680   4.169   8.414   7.251
63636SOL     OW92681   0.411   7.360   2.680
63636SOL    HW192682   0.414   7.432   2.617
63636SOL    HW292683   0.480   7.301   2.652
63637SOL     OW92684   5.655   0.053   3.389
63637SOL    HW192685   5.713   0.129   3.399
63637SOL    HW292686   5.682   0.013   3.306
63638SOL     OW92687   8.571   4.786  10.457
63638SOL    HW192688   8.557   4.877  10.431
63638SOL    HW292689   8.491   4.763  10.505
63639SOL     OW92690   3.460   9.635  13.498
63639SOL    HW192691   3.488   9.587  13.576
63639SOL    HW292692   3.387   9.584  13.464
63640SOL     OW92693   7.438  12.092   8.846
63640SOL    HW192694   7.434  12.089   8.942
63640SOL    HW292695   7.469  12.005   8.821
63641SOL     OW92696   7.312   6.492  11.125
63641SOL    HW192697   7.366   6.492  11.204
63641SOL    HW292698   7.347   6.564  11.072
63642SOL     OW92699   8.335   5.074   1.917
63642SOL    HW192700   8.338   5.166   1.893
63642SOL    HW292701   8.378   5.070   2.003
63643SOL     OW92702   3.885   7.467   1.354
63643SOL    HW192703   3.956   7.473   1.290
63643SOL    HW292704   3.869   7.558   1.379
63644SOL     OW92705   9.409   0.818   5.191
63644SOL    HW192706   9.416   0.867   5.109
63644SOL    HW292707   9.368   0.735   5.166
63645SOL     OW92708  12.238   0.437   5.401
63645SOL    HW192709  12.201   0.474   5.321
63645SOL    HW292710  12.165   0.436   5.463
63646SOL     OW92711  10.841   2.903   0.388
63646SOL    HW192712  10.927   2.934   0.362
63646SOL    HW292713  10.831   2.934   0.479
63647SOL     OW92714   3.790  12.601  11.360
63647SOL    HW192715   3.880  12.620  11.387
63647SOL    HW292716   3.796  12.589  11.265
63648SOL     OW92717   3.173   8.067   4.743
63648SOL    HW192718   3.262   8.091   4.768
63648SOL    HW292719   3.180   7.977   4.712
63649SOL     OW92720   4.117   8.831   5.998
63649SOL    HW192721   4.065   8.874   6.066
63649SOL    HW292722   4.171   8.768   6.044
63650SOL     OW92723   0.043   7.167   6.843
63650SOL    HW192724   0.105   7.213   6.900
63650SOL    HW292725   0.081   7.172   6.756
63651SOL     OW92726   9.443  14.373   4.902
63651SOL    HW192727   9.473  14.283   4.897
63651SOL    HW292728   9.493  14.419   4.834
63652SOL     OW92729   8.724   6.923  10.767
63652SOL    HW192730   8.644   6.951  10.810
63652SOL    HW292731   8.760   7.002  10.727
63653SOL     OW92732  13.112  12.819   2.063
63653SOL    HW192733  13.032  12.871   2.056
63653SOL    HW292734  13.131  12.791   1.974
63654SOL     OW92735   1.532   6.595   1.669
63654SOL    HW192736   1.544   6.503   1.646
63654SOL    HW292737   1.469   6.627   1.604
63655SOL     OW92738  13.448   3.495   4.555
63655SOL    HW192739  13.416   3.413   4.518
63655SOL    HW292740  13.389   3.562   4.519
63656SOL     OW92741  11.443  14.747   3.595
63656SOL    HW192742  11.426  14.663   3.552
63656SOL    HW292743  11.405  14.737   3.683
63657SOL     OW92744   9.825   8.544  12.165
63657SOL    HW192745   9.896   8.576  12.110
63657SOL    HW292746   9.815   8.452  12.141
63658SOL     OW92747   2.016   6.670   9.293
63658SOL    HW192748   2.058   6.594   9.254
63658SOL    HW292749   2.023   6.739   9.227
63659SOL     OW92750   2.639   8.847   3.671
63659SOL    HW192751   2.668   8.920   3.726
63659SOL    HW292752   2.681   8.770   3.710
63660SOL     OW92753   4.117   4.377   1.523
63660SOL    HW192754   4.139   4.301   1.576
63660SOL    HW292755   4.195   4.392   1.469
63661SOL     OW92756   4.707   2.596  13.200
63661SOL    HW192757   4.731   2.577  13.291
63661SOL    HW292758   4.618   2.629  13.206
63662SOL     OW92759   0.720  11.955   0.984
63662SOL    HW192760   0.667  11.890   0.940
63662SOL    HW292761   0.657  12.018   1.019
63663SOL     OW92762  13.754   2.414  13.100
63663SOL    HW192763  13.802   2.435  13.180
63663SOL    HW292764  13.793   2.332  13.070
63664SOL     OW92765  14.281  12.889   8.924
63664SOL    HW192766  14.329  12.907   8.843
63664SOL    HW292767  14.333  12.823   8.969
63665SOL     OW92768   8.152   6.169   2.572
63665SOL    HW192769   8.147   6.236   2.504
63665SOL    HW292770   8.245   6.154   2.585
63666SOL     OW92771   4.712   1.394  14.057
63666SOL    HW192772   4.664   1.473  14.030
63666SOL    HW292773   4.790   1.394  14.002
63667SOL     OW92774  12.775   5.230   9.075
63667SOL    HW192775  12.841   5.171   9.112
63667SOL    HW292776  12.794   5.315   9.113
63668SOL     OW92777   3.716  12.029   4.206
63668SOL    HW192778   3.718  12.060   4.297
63668SOL    HW292779   3.808  12.013   4.184
63669SOL     OW92780   4.283  13.262  10.448
63669SOL    HW192781   4.297  13.291  10.538
63669SOL    HW292782   4.188  13.250  10.441
63670SOL     OW92783   2.271   4.214  14.066
63670SOL    HW192784   2.270   4.209  13.971
63670SOL    HW292785   2.329   4.287  14.086
63671SOL     OW92786  14.773  14.065   0.011
63671SOL    HW192787  14.824  14.009  14.829
63671SOL    HW292788  14.839  14.111   0.063
63672SOL     OW92789  12.204  14.067  10.784
63672SOL    HW192790  12.146  13.998  10.815
63672SOL    HW292791  12.189  14.071  10.689
63673SOL     OW92792   9.155   0.106   1.346
63673SOL    HW192793   9.174   0.041   1.414
63673SOL    HW292794   9.079   0.072   1.300
63674SOL     OW92795   6.850   8.875   0.114
63674SOL    HW192796   6.845   8.816   0.190
63674SOL    HW292797   6.761   8.906   0.102
63675SOL     OW92798   2.158   8.125  10.488
63675SOL    HW192799   2.209   8.140  10.567
63675SOL    HW292800   2.185   8.194  10.428
63676SOL     OW92801  11.649   6.251   6.479
63676SOL    HW192802  11.656   6.335   6.434
63676SOL    HW292803  11.597   6.269   6.557
63677SOL     OW92804   9.065  13.686  14.692
63677SOL    HW192805   9.152  13.681  14.733
63677SOL    HW292806   9.025  13.602  14.712
63678SOL     OW92807   5.176   2.380   9.452
63678SOL    HW192808   5.172   2.343   9.540
63678SOL    HW292809   5.211   2.309   9.398
63679SOL     OW92810   4.882   9.391   1.551
63679SOL    HW192811   4.893   9.451   1.624
63679SOL    HW292812   4.790   9.400   1.526
63680SOL     OW92813   1.419   8.953   7.207
63680SOL    HW192814   1.340   8.980   7.254
63680SOL    HW292815   1.425   8.859   7.223
63681SOL     OW92816  14.088  12.335   6.212
63681SOL    HW192817  14.022  12.387   6.257
63681SOL    HW292818  14.123  12.394   6.145
63682SOL     OW92819  13.606  12.577   7.717
63682SOL    HW192820  13.611  12.665   7.680
63682SOL    HW292821  13.620  12.519   7.642
63683SOL     OW92822   0.650   5.152  11.337
63683SOL    HW192823   0.630   5.059  11.332
63683SOL    HW292824   0.621   5.179  11.424
63684SOL     OW92825   4.173   1.748  11.758
63684SOL    HW192826   4.246   1.689  11.773
63684SOL    HW292827   4.163   1.751  11.663
63685SOL     OW92828   4.840   7.654  12.948
63685SOL    HW192829   4.837   7.586  12.880
63685SOL    HW292830   4.910   7.626  13.007
63686SOL     OW92831  13.378   8.357  11.006
63686SOL    HW192832  13.450   8.341  11.067
63686SOL    HW292833  13.322   8.280  11.015
63687SOL     OW92834   1.203   8.161   6.484
63687SOL    HW192835   1.141   8.215   6.434
63687SOL    HW292836   1.274   8.221   6.506
63688SOL     OW92837   7.810   0.145  14.220
63688SOL    HW192838   7.854   0.174  14.140
63688SOL    HW292839   7.741   0.210  14.234
63689SOL     OW92840  11.685   4.184  14.048
63689SOL    HW192841  11.635   4.252  14.092
63689SOL    HW292842  11.760   4.231  14.009
63690SOL     OW92843  10.022   2.874  11.497
63690SOL    HW192844  10.083   2.800  11.503
63690SOL    HW292845  10.077   2.949  11.477
63691SOL     OW92846  11.390   6.795  11.283
63691SOL    HW192847  11.325   6.823  11.347
63691SOL    HW292848  11.359   6.710  11.252
63692SOL     OW92849   6.606  10.881  12.119
63692SOL    HW192850   6.515  10.880  12.087
63692SOL    HW292851   6.614  10.964  12.167
63693SOL     OW92852   1.850  13.586   9.335
63693SOL    HW192853   1.942  13.582   9.361
63693SOL    HW292854   1.848  13.649   9.263
63694SOL     OW92855   5.656   4.337   6.216
63694SOL    HW192856   5.663   4.302   6.305
63694SOL    HW292857   5.641   4.431   6.229
63695SOL     OW92858   3.157   9.242   5.204
63695SOL    HW192859   3.080   9.225   5.258
63695SOL    HW292860   3.223   9.274   5.265
63696SOL     OW92861  12.494  10.245   2.797
63696SOL    HW192862  12.530  10.159   2.818
63696SOL    HW292863  12.552  10.279   2.729
63697SOL     OW92864  11.175   0.201   8.049
63697SOL    HW192865  11.214   0.126   8.006
63697SOL    HW292866  11.110   0.164   8.109
63698SOL     OW92867   5.981   6.314  10.256
63698SOL    HW192868   6.030   6.390  10.287
63698SOL    HW292869   5.940   6.342  10.174
63699SOL     OW92870   8.039   5.537   2.958
63699SOL    HW192871   8.064   5.558   3.048
63699SOL    HW292872   8.042   5.621   2.912
63700SOL     OW92873   0.692  12.544  14.401
63700SOL    HW192874   0.620  12.603  14.423
63700SOL    HW292875   0.651  12.475  14.348
63701SOL     OW92876   0.845  13.954  11.302
63701SOL    HW192877   0.818  13.871  11.261
63701SOL    HW292878   0.787  13.963  11.377
63702SOL     OW92879  13.907  11.351   7.559
63702SOL    HW192880  13.825  11.362   7.510
63702SOL    HW292881  13.892  11.398   7.641
63703SOL     OW92882   3.055  12.302   9.237
63703SOL    HW192883   3.097  12.378   9.278
63703SOL    HW292884   3.127  12.255   9.195
63704SOL     OW92885   2.578   0.505  11.927
63704SOL    HW192886   2.614   0.428  11.884
63704SOL    HW292887   2.588   0.487  12.021
63705SOL     OW92888   7.522  14.081   2.427
63705SOL    HW192889   7.554  14.025   2.498
63705SOL    HW292890   7.600  14.128   2.397
63706SOL     OW92891  14.112   1.006  13.179
63706SOL    HW192892  14.045   1.064  13.215
63706SOL    HW292893  14.125   0.940  13.247
63707SOL     OW92894   3.245   6.002  10.127
63707SOL    HW192895   3.253   5.910  10.102
63707SOL    HW292896   3.325   6.043  10.094
63708SOL     OW92897   2.549   6.468   5.325
63708SOL    HW192898   2.455   6.453   5.336
63708SOL    HW292899   2.558   6.501   5.236
63709SOL     OW92900  11.378  14.015  10.621
63709SOL    HW192901  11.365  14.071  10.544
63709SOL    HW292902  11.412  14.074  10.688
63710SOL     OW92903   1.677  14.136   7.663
63710SOL    HW192904   1.743  14.073   7.632
63710SOL    HW292905   1.650  14.103   7.748
63711SOL     OW92906   5.117   4.777  10.738
63711SOL    HW192907   5.150   4.855  10.694
63711SOL    HW292908   5.067   4.731  10.671
63712SOL     OW92909   7.522   8.060   2.255
63712SOL    HW192910   7.483   8.147   2.260
63712SOL    HW292911   7.535   8.034   2.347
63713SOL     OW92912   2.827  12.088   5.410
63713SOL    HW192913   2.842  12.181   5.426
63713SOL    HW292914   2.911  12.055   5.379
63714SOL     OW92915   3.017   3.270   6.032
63714SOL    HW192916   3.021   3.205   5.962
63714SOL    HW292917   3.108   3.281   6.059
63715SOL     OW92918  12.767  14.556  14.583
63715SOL    HW192919  12.697  14.600  14.535
63715SOL    HW292920  12.771  14.600  14.667
63716SOL     OW92921   0.621  13.752   5.115
63716SOL    HW192922   0.545  13.785   5.162
63716SOL    HW292923   0.691  13.753   5.181
63717SOL     OW92924   7.019   6.528   3.227
63717SOL    HW192925   7.085   6.476   3.181
63717SOL    HW292926   6.945   6.532   3.166
63718SOL     OW92927   7.366   8.957  12.362
63718SOL    HW192928   7.355   8.992  12.274
63718SOL    HW292929   7.377   9.035  12.417
63719SOL     OW92930   9.283  14.229  12.443
63719SOL    HW192931   9.354  14.184  12.398
63719SOL    HW292932   9.206  14.215  12.387
63720SOL     OW92933  14.325  12.434   1.244
63720SOL    HW192934  14.319  12.496   1.316
63720SOL    HW292935  14.261  12.366   1.265
63721SOL     OW92936   4.368  11.924   7.945
63721SOL    HW192937   4.369  11.874   7.863
63721SOL    HW292938   4.293  11.983   7.935
63722SOL     OW92939   9.105  14.709   3.906
63722SOL    HW192940   9.129  14.684   3.995
63722SOL    HW292941   9.181  14.758   3.874
63723SOL     OW92942  14.708   3.959  11.391
63723SOL    HW192943  14.642   4.002  11.337
63723SOL    HW292944  14.764   4.030  11.423
63724SOL     OW92945  11.497   7.272   4.273
63724SOL    HW192946  11.489   7.357   4.231
63724SOL    HW292947  11.499   7.291   4.367
63725SOL     OW92948  10.923   4.810   1.960
63725SOL    HW192949  10.946   4.846   1.875
63725SOL    HW292950  10.942   4.880   2.023
63726SOL     OW92951   3.414  12.654   8.964
63726SOL    HW192952   3.462  12.714   8.907
63726SOL    HW292953   3.474  12.639   9.038
63727SOL     OW92954  13.852   3.820   2.263
63727SOL    HW192955  13.814   3.850   2.181
63727SOL    HW292956  13.869   3.900   2.313
63728SOL     OW92957   5.523   3.872   4.685
63728SOL    HW192958   5.500   3.965   4.692
63728SOL    HW292959   5.475   3.830   4.757
63729SOL     OW92960   6.853   3.163  12.318
63729SOL    HW192961   6.943   3.187  12.300
63729SOL    HW292962   6.859   3.079  12.365
63730SOL     OW92963   0.246  14.527   4.848
63730SOL    HW192964   0.258  14.608   4.897
63730SOL    HW292965   0.223  14.462   4.914
63731SOL     OW92966   2.844   9.032   4.923
63731SOL    HW192967   2.863   8.952   4.874
63731SOL    HW292968   2.752   9.050   4.905
63732SOL     OW92969   1.079  12.270   4.345
63732SOL    HW192970   1.089  12.223   4.262
63732SOL    HW292971   1.030  12.210   4.401
63733SOL     OW92972   3.266  14.800   1.473
63733SOL    HW192973   3.277  14.726   1.414
63733SOL    HW292974   3.252  14.875   1.415
63734SOL     OW92975   5.630   1.639  14.355
63734SOL    HW192976   5.714   1.614  14.394
63734SOL    HW292977   5.605   1.564  14.301
63735SOL     OW92978   2.259  12.519  11.085
63735SOL    HW192979   2.164  12.512  11.076
63735SOL    HW292980   2.292  12.534  10.997
63736SOL     OW92981   2.579   1.384   8.651
63736SOL    HW192982   2.560   1.293   8.676
63736SOL    HW292983   2.666   1.400   8.687
63737SOL     OW92984  13.107  13.173   0.439
63737SOL    HW192985  13.062  13.126   0.509
63737SOL    HW292986  13.093  13.266   0.459
63738SOL     OW92987  11.011   5.109  11.074
63738SOL    HW192988  10.966   5.185  11.110
63738SOL    HW292989  10.984   5.036  11.130
63739SOL     OW92990   7.201   2.501   9.721
63739SOL    HW192991   7.132   2.559   9.687
63739SOL    HW292992   7.282   2.545   9.699
63740SOL     OW92993   5.470   6.661  13.228
63740SOL    HW192994   5.484   6.723  13.299
63740SOL    HW292995   5.505   6.578  13.260
63741SOL     OW92996  11.152  13.392  11.623
63741SOL    HW192997  11.208  13.317  11.644
63741SOL    HW292998  11.176  13.415  11.533
63742SOL     OW92999  14.115   0.654   3.731
63742SOL    HW193000  14.205   0.629   3.709
63742SOL    HW293001  14.060   0.590   3.686
63743SOL     OW93002   2.932   0.442  14.371
63743SOL    HW193003   2.851   0.471  14.330
63743SOL    HW293004   2.945   0.501  14.445
63744SOL     OW93005   7.303  12.170   9.293
63744SOL    HW193006   7.215  12.204   9.273
63744SOL    HW293007   7.304  12.164   9.388
63745SOL     OW93008   3.954   6.975   7.810
63745SOL    HW193009   3.898   6.908   7.771
63745SOL    HW293010   3.894   7.041   7.844
63746SOL     OW93011   9.792   3.290  10.955
63746SOL    HW193012   9.766   3.238  11.031
63746SOL    HW293013   9.885   3.307  10.969
63747SOL     OW93014   0.406   7.209   2.948
63747SOL    HW193015   0.375   7.276   2.887
63747SOL    HW293016   0.368   7.235   3.032
63748SOL     OW93017   9.691   8.474   6.879
63748SOL    HW193018   9.778   8.481   6.839
63748SOL    HW293019   9.696   8.396   6.934
63749SOL     OW93020   4.375   7.631   2.994
63749SOL    HW193021   4.384   7.537   2.982
63749SOL    HW293022   4.421   7.670   2.919
63750SOL     OW93023   6.561   1.554  12.390
63750SOL    HW193024   6.485   1.548  12.449
63750SOL    HW293025   6.525   1.538  12.303
63751SOL     OW93026   9.488  12.996   9.649
63751SOL    HW193027   9.483  12.905   9.619
63751SOL    HW293028   9.582  13.015   9.653
63752SOL     OW93029  13.801   8.664   7.458
63752SOL    HW193030  13.748   8.616   7.395
63752SOL    HW293031  13.751   8.660   7.540
63753SOL     OW93032   1.839   4.907   0.201
63753SOL    HW193033   1.919   4.855   0.206
63753SOL    HW293034   1.810   4.899   0.110
63754SOL     OW93035   8.314   9.062   6.065
63754SOL    HW193036   8.285   9.044   5.976
63754SOL    HW293037   8.249   9.124   6.099
63755SOL     OW93038   8.600  14.540   1.213
63755SOL    HW193039   8.511  14.510   1.235
63755SOL    HW293040   8.609  14.622   1.262
63756SOL     OW93041   8.589   0.522   0.213
63756SOL    HW193042   8.681   0.505   0.230
63756SOL    HW293043   8.588   0.573   0.132
63757SOL     OW93044   8.043   2.776   4.626
63757SOL    HW193045   8.125   2.796   4.672
63757SOL    HW293046   8.051   2.683   4.603
63758SOL     OW93047  13.214  12.230   1.629
63758SOL    HW193048  13.191  12.236   1.536
63758SOL    HW293049  13.299  12.185   1.630
63759SOL     OW93050  11.647   0.169   7.685
63759SOL    HW193051  11.569   0.223   7.674
63759SOL    HW293052  11.615   0.079   7.678
63760SOL     OW93053   8.550   2.641  10.063
63760SOL    HW193054   8.584   2.622  10.150
63760SOL    HW293055   8.480   2.577  10.049
63761SOL     OW93056   5.161   1.037   2.807
63761SOL    HW193057   5.229   1.056   2.744
63761SOL    HW293058   5.194   0.962   2.857
63762SOL     OW93059   4.296   9.148  12.409
63762SOL    HW193060   4.246   9.110  12.482
63762SOL    HW293061   4.255   9.111  12.330
63763SOL     OW93062  12.752   1.570   6.609
63763SOL    HW193063  12.790   1.620   6.681
63763SOL    HW293064  12.781   1.615   6.530
63764SOL     OW93065   0.928   5.358  11.806
63764SOL    HW193066   0.834   5.345  11.796
63764SOL    HW293067   0.962   5.352  11.716
63765SOL     OW93068   1.791  14.267   7.029
63765SOL    HW193069   1.841  14.252   6.949
63765SOL    HW293070   1.842  14.224   7.097
63766SOL     OW93071  13.800   3.594   1.664
63766SOL    HW193072  13.728   3.570   1.722
63766SOL    HW293073  13.802   3.525   1.598
63767SOL     OW93074  10.071   0.804   7.404
63767SOL    HW193075  10.049   0.711   7.410
63767SOL    HW293076   9.993   0.844   7.366
63768SOL     OW93077  11.497  11.683   2.559
63768SOL    HW193078  11.477  11.716   2.647
63768SOL    HW293079  11.436  11.611   2.546
63769SOL     OW93080  10.290   8.633   6.136
63769SOL    HW193081  10.365   8.592   6.179
63769SOL    HW293082  10.327   8.708   6.089
63770SOL     OW93083  11.914  10.703   2.506
63770SOL    HW193084  11.982  10.769   2.507
63770SOL    HW293085  11.945  10.637   2.445
63771SOL     OW93086   5.828   3.807   1.624
63771SOL    HW193087   5.889   3.785   1.695
63771SOL    HW293088   5.758   3.742   1.632
63772SOL     OW93089  10.740   1.263  12.103
63772SOL    HW193090  10.744   1.212  12.022
63772SOL    HW293091  10.800   1.336  12.089
63773SOL     OW93092   6.335   8.916   6.187
63773SOL    HW193093   6.401   8.980   6.160
63773SOL    HW293094   6.331   8.924   6.283
63774SOL     OW93095   0.210   1.624  10.707
63774SOL    HW193096   0.201   1.689  10.777
63774SOL    HW293097   0.124   1.585  10.698
63775SOL     OW93098  13.839  10.065  13.632
63775SOL    HW193099  13.910  10.025  13.582
63775SOL    HW293100  13.864  10.052  13.724
63776SOL     OW93101   2.726   5.741   0.721
63776SOL    HW193102   2.727   5.761   0.627
63776SOL    HW293103   2.633   5.739   0.743
63777SOL     OW93104  13.304   8.693  11.634
63777SOL    HW193105  13.331   8.647  11.714
63777SOL    HW293106  13.303   8.625  11.567
63778SOL     OW93107   4.370   1.125  13.775
63778SOL    HW193108   4.440   1.141  13.838
63778SOL    HW293109   4.390   1.040  13.737
63779SOL     OW93110   1.785   6.968   9.252
63779SOL    HW193111   1.854   6.955   9.187
63779SOL    HW293112   1.796   6.895   9.313
63780SOL     OW93113   5.628   8.007   0.092
63780SOL    HW193114   5.678   7.927   0.110
63780SOL    HW293115   5.611   8.044   0.178
63781SOL     OW93116   9.403   2.987   2.478
63781SOL    HW193117   9.355   2.922   2.529
63781SOL    HW293118   9.480   3.007   2.532
63782SOL     OW93119   5.137   0.899  14.725
63782SOL    HW193120   5.133   0.830  14.660
63782SOL    HW293121   5.124   0.980  14.676
63783SOL     OW93122   3.231   2.486   1.823
63783SOL    HW193123   3.266   2.572   1.800
63783SOL    HW293124   3.198   2.451   1.740
63784SOL     OW93125  10.835   4.589  12.919
63784SOL    HW193126  10.895   4.640  12.865
63784SOL    HW293127  10.892   4.551  12.987
63785SOL     OW93128   3.919   9.174   3.183
63785SOL    HW193129   3.955   9.124   3.256
63785SOL    HW293130   3.908   9.111   3.112
63786SOL     OW93131  12.572   5.146   6.576
63786SOL    HW193132  12.589   5.091   6.499
63786SOL    HW293133  12.595   5.090   6.650
63787SOL     OW93134  11.765   0.710  10.382
63787SOL    HW193135  11.714   0.745  10.456
63787SOL    HW293136  11.763   0.616  10.394
63788SOL     OW93137  13.571  13.341  11.676
63788SOL    HW193138  13.616  13.365  11.595
63788SOL    HW293139  13.529  13.257  11.656
63789SOL     OW93140  11.326   8.969  10.658
63789SOL    HW193141  11.282   8.989  10.575
63789SOL    HW293142  11.418   8.957  10.633
63790SOL     OW93143   7.815   0.568   6.270
63790SOL    HW193144   7.871   0.519   6.209
63790SOL    HW293145   7.727   0.537   6.250
63791SOL     OW93146   1.083  14.820   9.648
63791SOL    HW193147   1.083   0.036   9.627
63791SOL    HW293148   0.992  14.801   9.671
63792SOL     OW93149   6.102  12.588  10.012
63792SOL    HW193150   6.116  12.494   9.999
63792SOL    HW293151   6.006  12.598  10.009
63793SOL     OW93152   4.166   2.775   4.402
63793SOL    HW193153   4.126   2.796   4.318
63793SOL    HW293154   4.149   2.682   4.415
63794SOL     OW93155  13.556   7.955   9.349
63794SOL    HW193156  13.479   7.905   9.322
63794SOL    HW293157  13.533   7.989   9.436
63795SOL     OW93158   0.223   8.080   0.311
63795SOL    HW193159   0.296   8.052   0.366
63795SOL    HW293160   0.210   8.172   0.334
63796SOL     OW93161   6.350   5.963  10.423
63796SOL    HW193162   6.437   5.923  10.412
63796SOL    HW293163   6.359   6.051  10.385
63797SOL     OW93164  12.479   7.193   0.863
63797SOL    HW193165  12.504   7.265   0.921
63797SOL    HW293166  12.470   7.117   0.921
63798SOL     OW93167  11.231   0.244  13.409
63798SOL    HW193168  11.296   0.194  13.361
63798SOL    HW293169  11.218   0.323  13.356
63799SOL     OW93170  12.114   9.509  10.657
63799SOL    HW193171  12.042   9.563  10.623
63799SOL    HW293172  12.081   9.419  10.651
63800SOL     OW93173   5.965   1.877  12.614
63800SOL    HW193174   5.957   1.927  12.695
63800SOL    HW293175   6.055   1.893  12.584
63801SOL     OW93176   6.549  14.857   1.904
63801SOL    HW193177   6.467   0.027   1.914
63801SOL    HW293178   6.558  14.808   1.986
63802SOL     OW93179   0.905  12.806   1.104
63802SOL    HW193180   0.918  12.900   1.097
63802SOL    HW293181   0.961  12.768   1.037
63803SOL     OW93182   7.247   1.791   2.596
63803SOL    HW193183   7.157   1.806   2.623
63803SOL    HW293184   7.259   1.696   2.605
63804SOL     OW93185  10.910   5.841   0.258
63804SOL    HW193186  10.982   5.904   0.261
63804SOL    HW293187  10.831   5.895   0.254
63805SOL     OW93188   8.483   8.636   4.468
63805SOL    HW193189   8.526   8.584   4.536
63805SOL    HW293190   8.555   8.681   4.424
63806SOL     OW93191   1.492   0.486  13.088
63806SOL    HW193192   1.527   0.454  13.171
63806SOL    HW293193   1.397   0.474  13.095
63807SOL     OW93194   0.253   8.908   3.962
63807SOL    HW193195   0.229   8.836   3.905
63807SOL    HW293196   0.215   8.885   4.047
63808SOL     OW93197  11.477   9.865   7.263
63808SOL    HW193198  11.530   9.942   7.243
63808SOL    HW293199  11.461   9.870   7.357
63809SOL     OW93200  14.860   8.973   1.443
63809SOL    HW193201  14.776   8.929   1.450
63809SOL    HW293202   0.029   8.927   1.373
63810SOL     OW93203   1.984  11.751   6.988
63810SOL    HW193204   1.920  11.801   6.937
63810SOL    HW293205   1.942  11.667   7.003
63811SOL     OW93206  13.129   2.234  10.263
63811SOL    HW193207  13.125   2.307  10.202
63811SOL    HW293208  13.160   2.160  10.211
63812SOL     OW93209   7.272  10.727   5.178
63812SOL    HW193210   7.222  10.673   5.117
63812SOL    HW293211   7.206  10.769   5.233
63813SOL     OW93212   2.534   0.732   6.414
63813SOL    HW193213   2.588   0.662   6.451
63813SOL    HW293214   2.552   0.729   6.320
63814SOL     OW93215  11.652   4.835   8.963
63814SOL    HW193216  11.591   4.874   9.026
63814SOL    HW293217  11.672   4.905   8.902
63815SOL     OW93218   1.412   4.858   9.907
63815SOL    HW193219   1.434   4.824   9.994
63815SOL    HW293220   1.467   4.807   9.847
63816SOL     OW93221   5.222   4.073   8.807
63816SOL    HW193222   5.172   4.152   8.787
63816SOL    HW293223   5.188   4.044   8.891
63817SOL     OW93224   3.317   2.970  12.887
63817SOL    HW193225   3.267   2.954  12.967
63817SOL    HW293226   3.394   3.018  12.916
63818SOL     OW93227   6.957   8.972   3.124
63818SOL    HW193228   6.896   8.987   3.196
63818SOL    HW293229   7.043   8.990   3.161
63819SOL     OW93230   9.961  11.891  11.255
63819SOL    HW193231  10.041  11.885  11.308
63819SOL    HW293232   9.918  11.806  11.266
63820SOL     OW93233  10.077  10.027  13.554
63820SOL    HW193234  10.053  10.004  13.644
63820SOL    HW293235  10.044   9.954  13.501
63821SOL     OW93236  13.708   6.277   8.737
63821SOL    HW193237  13.758   6.251   8.815
63821SOL    HW293238  13.666   6.359   8.762
63822SOL     OW93239   6.546   6.453  11.473
63822SOL    HW193240   6.631   6.482  11.440
63822SOL    HW293241   6.482   6.502  11.422
63823SOL     OW93242  12.644   1.413   5.946
63823SOL    HW193243  12.654   1.323   5.915
63823SOL    HW293244  12.583   1.408   6.019
63824SOL     OW93245   8.477  11.179  14.133
63824SOL    HW193246   8.412  11.115  14.106
63824SOL    HW293247   8.470  11.181  14.229
63825SOL     OW93248  11.136  13.764  13.287
63825SOL    HW193249  11.122  13.807  13.371
63825SOL    HW293250  11.077  13.689  13.288
63826SOL     OW93251   7.711   1.538  14.759
63826SOL    HW193252   7.632   1.516  14.710
63826SOL    HW293253   7.783   1.515  14.699
63827SOL     OW93254   4.781  10.404   3.715
63827SOL    HW193255   4.840  10.424   3.642
63827SOL    HW293256   4.791  10.310   3.729
63828SOL     OW93257  10.306   1.041   0.473
63828SOL    HW193258  10.299   1.048   0.569
63828SOL    HW293259  10.283   1.129   0.442
63829SOL     OW93260   1.033  12.467   6.869
63829SOL    HW193261   1.028  12.558   6.897
63829SOL    HW293262   0.953  12.453   6.818
63830SOL     OW93263   8.526   4.293  10.398
63830SOL    HW193264   8.515   4.206  10.358
63830SOL    HW293265   8.611   4.289  10.441
63831SOL     OW93266  12.037  14.251   0.315
63831SOL    HW193267  11.993  14.292   0.389
63831SOL    HW293268  12.043  14.320   0.249
63832SOL     OW93269  14.075   8.525  10.702
63832SOL    HW193270  14.036   8.447  10.741
63832SOL    HW293271  14.122   8.491  10.625
63833SOL     OW93272  10.479  10.020  12.729
63833SOL    HW193273  10.558   9.979  12.695
63833SOL    HW293274  10.496  10.033  12.822
63834SOL     OW93275   1.580  11.382  11.730
63834SOL    HW193276   1.623  11.422  11.654
63834SOL    HW293277   1.528  11.452  11.769
63835SOL     OW93278  11.117   2.059   7.976
63835SOL    HW193279  11.070   2.009   7.909
63835SOL    HW293280  11.195   2.006   7.995
63836SOL     OW93281   3.057  12.937   3.154
63836SOL    HW193282   3.143  12.911   3.189
63836SOL    HW293283   3.065  12.927   3.059
63837SOL     OW93284  11.736   3.055   9.259
63837SOL    HW193285  11.808   3.117   9.272
63837SOL    HW293286  11.721   3.056   9.164
63838SOL     OW93287   9.658  10.366   4.887
63838SOL    HW193288   9.749  10.355   4.916
63838SOL    HW293289   9.646  10.298   4.820
63839SOL     OW93290   4.639  10.446   6.711
63839SOL    HW193291   4.701  10.498   6.660
63839SOL    HW293292   4.556  10.454   6.664
63840SOL     OW93293  10.761   2.072   2.176
63840SOL    HW193294  10.695   2.013   2.211
63840SOL    HW293295  10.759   2.148   2.234
63841SOL     OW93296   2.779  10.378  14.441
63841SOL    HW193297   2.853  10.373  14.502
63841SOL    HW293298   2.717  10.312  14.472
63842SOL     OW93299   7.018   5.695  11.568
63842SOL    HW193300   6.974   5.779  11.575
63842SOL    HW293301   6.949   5.633  11.546
63843SOL     OW93302   8.334   5.957   4.380
63843SOL    HW193303   8.334   5.981   4.288
63843SOL    HW293304   8.395   6.019   4.422
63844SOL     OW93305   7.188   2.686  13.826
63844SOL    HW193306   7.184   2.748  13.752
63844SOL    HW293307   7.244   2.615  13.794
63845SOL     OW93308   4.585   7.942   4.351
63845SOL    HW193309   4.641   7.982   4.417
63845SOL    HW293310   4.628   7.859   4.329
63846SOL     OW93311   1.776   8.882  10.495
63846SOL    HW193312   1.708   8.832  10.540
63846SOL    HW293313   1.730   8.957  10.456
63847SOL     OW93314  14.749   6.488   6.766
63847SOL    HW193315  14.764   6.561   6.705
63847SOL    HW293316  14.694   6.427   6.717
63848SOL     OW93317  13.284   0.630   0.867
63848SOL    HW193318  13.347   0.592   0.929
63848SOL    HW293319  13.224   0.681   0.922
63849SOL     OW93320   2.382   2.505   6.106
63849SOL    HW193321   2.406   2.424   6.150
63849SOL    HW293322   2.461   2.559   6.109
63850SOL     OW93323   8.075   3.062   7.260
63850SOL    HW193324   8.170   3.050   7.257
63850SOL    HW293325   8.040   2.975   7.277
63851SOL     OW93326   5.640  14.500   2.679
63851SOL    HW193327   5.649  14.508   2.774
63851SOL    HW293328   5.547  14.511   2.663
63852SOL     OW93329   5.360  10.617   9.573
63852SOL    HW193330   5.383  10.691   9.516
63852SOL    HW293331   5.444  10.588   9.609
63853SOL     OW93332  10.851   0.176   9.119
63853SOL    HW193333  10.838   0.101   9.061
63853SOL    HW293334  10.835   0.142   9.207
63854SOL     OW93335   0.410   2.464  13.430
63854SOL    HW193336   0.350   2.525  13.387
63854SOL    HW293337   0.365   2.379  13.424
63855SOL     OW93338  11.661  11.508   6.854
63855SOL    HW193339  11.753  11.533   6.863
63855SOL    HW293340  11.661  11.446   6.781
63856SOL     OW93341   9.154   3.074  11.552
63856SOL    HW193342   9.155   3.066  11.648
63856SOL    HW293343   9.222   3.137  11.532
63857SOL     OW93344  13.636  14.733   2.895
63857SOL    HW193345  13.567  14.789   2.859
63857SOL    HW293346  13.682  14.699   2.818
63858SOL     OW93347   8.147   6.349  13.628
63858SOL    HW193348   8.084   6.335  13.698
63858SOL    HW293349   8.115   6.427  13.582
63859SOL     OW93350  11.251   9.102   9.954
63859SOL    HW193351  11.191   9.166   9.991
63859SOL    HW293352  11.195   9.031   9.924
63860SOL     OW93353  11.968   6.163   6.894
63860SOL    HW193354  12.055   6.193   6.922
63860SOL    HW293355  11.908   6.228   6.930
63861SOL     OW93356   8.726  11.674  10.367
63861SOL    HW193357   8.706  11.599  10.422
63861SOL    HW293358   8.640  11.714  10.348
63862SOL     OW93359   0.917  10.882  11.583
63862SOL    HW193360   0.875  10.920  11.506
63862SOL    HW293361   1.002  10.926  11.587
63863SOL     OW93362  11.482  11.163   7.261
63863SOL    HW193363  11.438  11.247   7.273
63863SOL    HW293364  11.482  11.123   7.348
63864SOL     OW93365   1.365   0.169  10.015
63864SOL    HW193366   1.342   0.114   9.940
63864SOL    HW293367   1.434   0.226   9.983
63865SOL     OW93368  11.644   1.043   0.031
63865SOL    HW193369  11.641   0.994  14.826
63865SOL    HW293370  11.558   1.085   0.037
63866SOL     OW93371   6.792   9.380   3.456
63866SOL    HW193372   6.763   9.466   3.485
63866SOL    HW293373   6.780   9.324   3.532
63867SOL     OW93374  12.459   1.680   1.608
63867SOL    HW193375  12.483   1.614   1.673
63867SOL    HW293376  12.365   1.669   1.597
63868SOL     OW93377  12.928   3.347  13.180
63868SOL    HW193378  12.945   3.372  13.271
63868SOL    HW293379  12.959   3.422  13.129
63869SOL     OW93380   6.049   8.896   0.395
63869SOL    HW193381   5.995   8.817   0.399
63869SOL    HW293382   6.066   8.909   0.302
63870SOL     OW93383   8.979  12.599   7.309
63870SOL    HW193384   8.986  12.536   7.237
63870SOL    HW293385   8.909  12.658   7.283
63871SOL     OW93386  11.798  14.745   9.072
63871SOL    HW193387  11.862  14.779   9.010
63871SOL    HW293388  11.722  14.803   9.062
63872SOL     OW93389  14.776   3.745   7.263
63872SOL    HW193390  14.852   3.762   7.208
63872SOL    HW293391  14.702   3.745   7.202
63873SOL     OW93392   9.309   3.209   8.454
63873SOL    HW193393   9.339   3.196   8.364
63873SOL    HW293394   9.376   3.168   8.509
63874SOL     OW93395   1.499   3.712  12.666
63874SOL    HW193396   1.492   3.795  12.619
63874SOL    HW293397   1.409   3.686  12.685
63875SOL     OW93398   3.474  12.405   4.375
63875SOL    HW193399   3.474  12.465   4.449
63875SOL    HW293400   3.565  12.398   4.349
63876SOL     OW93401  13.125  11.272  13.134
63876SOL    HW193402  13.085  11.194  13.096
63876SOL    HW293403  13.051  11.325  13.164
63877SOL     OW93404  12.752   6.275   8.259
63877SOL    HW193405  12.775   6.242   8.346
63877SOL    HW293406  12.821   6.337   8.237
63878SOL     OW93407  10.864   9.207   2.672
63878SOL    HW193408  10.952   9.214   2.635
63878SOL    HW293409  10.873   9.240   2.762
63879SOL     OW93410   3.121  13.711   1.950
63879SOL    HW193411   3.036  13.748   1.928
63879SOL    HW293412   3.142  13.749   2.035
63880SOL     OW93413   0.697  13.295  13.268
63880SOL    HW193414   0.720  13.205  13.243
63880SOL    HW293415   0.761  13.350  13.223
63881SOL     OW93416   2.829   4.622   7.014
63881SOL    HW193417   2.776   4.587   6.943
63881SOL    HW293418   2.781   4.699   7.045
63882SOL     OW93419   2.310  13.469   3.586
63882SOL    HW193420   2.235  13.441   3.534
63882SOL    HW293421   2.274  13.534   3.647
63883SOL     OW93422   7.000   0.636  11.288
63883SOL    HW193423   7.058   0.601  11.356
63883SOL    HW293424   7.039   0.607  11.206
63884SOL     OW93425  13.409   2.075   9.589
63884SOL    HW193426  13.397   1.998   9.533
63884SOL    HW293427  13.362   2.145   9.544
63885SOL     OW93428   2.710   3.604  12.819
63885SOL    HW193429   2.638   3.546  12.795
63885SOL    HW293430   2.668   3.687  12.842
63886SOL     OW93431   0.041   1.700  14.488
63886SOL    HW193432  14.873   1.727  14.567
63886SOL    HW293433   0.128   1.672  14.518
63887SOL     OW93434   3.673   4.828  13.730
63887SOL    HW193435   3.688   4.922  13.728
63887SOL    HW293436   3.668   4.806  13.824
63888SOL     OW93437   4.215  13.454   9.991
63888SOL    HW193438   4.173  13.535  10.022
63888SOL    HW293439   4.238  13.406  10.070
63889SOL     OW93440   3.077   8.849   4.265
63889SOL    HW193441   3.095   8.756   4.281
63889SOL    HW293442   2.987   8.861   4.296
63890SOL     OW93443  10.533   7.942   6.735
63890SOL    HW193444  10.537   7.886   6.658
63890SOL    HW293445  10.596   7.904   6.796
63891SOL     OW93446   4.488   5.816  12.189
63891SOL    HW193447   4.494   5.741  12.130
63891SOL    HW293448   4.397   5.847  12.180
63892SOL     OW93449   0.619  11.520   7.045
63892SOL    HW193450   0.532  11.519   7.085
63892SOL    HW293451   0.606  11.483   6.958
63893SOL     OW93452  12.653   2.336   8.239
63893SOL    HW193453  12.702   2.400   8.291
63893SOL    HW293454  12.686   2.346   8.150
63894SOL     OW93455  11.251  10.966   7.836
63894SOL    HW193456  11.289  10.948   7.923
63894SOL    HW293457  11.234  10.880   7.799
63895SOL     OW93458  13.942   3.822   0.227
63895SOL    HW193459  14.000   3.894   0.202
63895SOL    HW293460  13.877   3.818   0.158
63896SOL     OW93461   8.342   4.601   1.941
63896SOL    HW193462   8.262   4.590   1.993
63896SOL    HW293463   8.318   4.666   1.874
63897SOL     OW93464   6.177   9.380  10.175
63897SOL    HW193465   6.101   9.341  10.218
63897SOL    HW293466   6.145   9.407  10.089
63898SOL     OW93467   5.878  13.364   1.420
63898SOL    HW193468   5.930  13.284   1.412
63898SOL    HW293469   5.890  13.391   1.511
63899SOL     OW93470   4.205   0.039   1.702
63899SOL    HW193471   4.118   0.076   1.716
63899SOL    HW293472   4.249   0.104   1.647
63900SOL     OW93473   6.200   3.458   1.160
63900SOL    HW193474   6.176   3.529   1.101
63900SOL    HW293475   6.274   3.492   1.210
63901SOL     OW93476   7.808   0.611   2.965
63901SOL    HW193477   7.754   0.539   2.934
63901SOL    HW293478   7.777   0.687   2.915
63902SOL     OW93479   2.524   9.691   1.083
63902SOL    HW193480   2.472   9.753   1.134
63902SOL    HW293481   2.609   9.734   1.074
63903SOL     OW93482  13.852   2.839   5.520
63903SOL    HW193483  13.757   2.829   5.515
63903SOL    HW293484  13.871   2.918   5.470
63904SOL     OW93485   5.908  14.107   8.526
63904SOL    HW193486   5.851  14.056   8.469
63904SOL    HW293487   5.869  14.097   8.613
63905SOL     OW93488  10.517  10.342   0.963
63905SOL    HW193489  10.540  10.426   1.001
63905SOL    HW293490  10.422  10.348   0.948
63906SOL     OW93491   4.365  12.151   2.747
63906SOL    HW193492   4.428  12.201   2.799
63906SOL    HW293493   4.291  12.137   2.805
63907SOL     OW93494   4.283   3.649   6.000
63907SOL    HW193495   4.357   3.629   5.943
63907SOL    HW293496   4.240   3.724   5.958
63908SOL     OW93497  10.449   0.643   1.814
63908SOL    HW193498  10.520   0.664   1.752
63908SOL    HW293499  10.449   0.716   1.876
63909SOL     OW93500   5.357   8.976   6.590
63909SOL    HW193501   5.389   8.911   6.527
63909SOL    HW293502   5.304   8.925   6.651
63910SOL     OW93503   7.942   6.661   4.753
63910SOL    HW193504   8.022   6.629   4.711
63910SOL    HW293505   7.915   6.735   4.700
63911SOL     OW93506  13.019   6.152   3.037
63911SOL    HW193507  12.957   6.079   3.041
63911SOL    HW293508  12.970   6.227   3.068
63912SOL     OW93509   0.103  13.389   0.526
63912SOL    HW193510   0.188  13.431   0.516
63912SOL    HW293511   0.046  13.436   0.465
63913SOL     OW93512   2.721   5.109  11.347
63913SOL    HW193513   2.690   5.196  11.373
63913SOL    HW293514   2.651   5.050  11.373
63914SOL     OW93515   8.363   6.057  14.724
63914SOL    HW193516   8.361   6.038  14.630
63914SOL    HW293517   8.456   6.049  14.748
63915SOL     OW93518   2.464  11.497   3.398
63915SOL    HW193519   2.532  11.445   3.355
63915SOL    HW293520   2.491  11.502   3.489
63916SOL     OW93521  14.014  12.982   2.534
63916SOL    HW193522  14.029  13.052   2.470
63916SOL    HW293523  14.094  12.979   2.586
63917SOL     OW93524   7.651   2.355  14.133
63917SOL    HW193525   7.723   2.296  14.156
63917SOL    HW293526   7.580   2.296  14.105
63918SOL     OW93527   0.731   1.563   9.046
63918SOL    HW193528   0.717   1.496   8.980
63918SOL    HW293529   0.755   1.515   9.125
63919SOL     OW93530   3.084   4.854   0.621
63919SOL    HW193531   3.093   4.763   0.649
63919SOL    HW293532   3.020   4.851   0.549
63920SOL     OW93533  12.213   2.971   7.402
63920SOL    HW193534  12.154   3.043   7.380
63920SOL    HW293535  12.294   2.992   7.355
63921SOL     OW93536   1.969   0.151   4.788
63921SOL    HW193537   1.970   0.098   4.709
63921SOL    HW293538   1.986   0.240   4.757
63922SOL     OW93539   5.796   9.451   3.919
63922SOL    HW193540   5.731   9.504   3.875
63922SOL    HW293541   5.842   9.511   3.978
63923SOL     OW93542  13.039   9.451   3.699
63923SOL    HW193543  13.088   9.462   3.618
63923SOL    HW293544  12.995   9.366   3.688
63924SOL     OW93545   4.422   2.426   7.043
63924SOL    HW193546   4.426   2.393   6.954
63924SOL    HW293547   4.404   2.519   7.034
63925SOL     OW93548   5.653   8.724   6.548
63925SOL    HW193549   5.611   8.797   6.595
63925SOL    HW293550   5.708   8.682   6.615
63926SOL     OW93551   7.379   0.405  14.366
63926SOL    HW193552   7.328   0.453  14.301
63926SOL    HW293553   7.405   0.471  14.431
63927SOL     OW93554   7.170   5.111   5.808
63927SOL    HW193555   7.106   5.072   5.748
63927SOL    HW293556   7.118   5.150   5.878
63928SOL     OW93557   7.721  10.581   0.080
63928SOL    HW193558   7.707  10.655   0.139
63928SOL    HW293559   7.665  10.598   0.005
63929SOL     OW93560   3.096  14.501   9.286
63929SOL    HW193561   3.136  14.417   9.308
63929SOL    HW293562   3.025  14.479   9.227
63930SOL     OW93563  14.145  11.261   3.265
63930SOL    HW193564  14.162  11.355   3.259
63930SOL    HW293565  14.176  11.226   3.181
63931SOL     OW93566   4.873  10.918   4.021
63931SOL    HW193567   4.806  10.987   4.025
63931SOL    HW293568   4.864  10.882   3.933
63932SOL     OW93569   2.163  12.545  10.038
63932SOL    HW193570   2.103  12.542   9.964
63932SOL    HW293571   2.249  12.559   9.998
63933SOL     OW93572   6.931  14.733   5.221
63933SOL    HW193573   6.938  14.732   5.125
63933SOL    HW293574   6.891  14.648   5.242
63934SOL     OW93575   5.642   5.645   7.535
63934SOL    HW193576   5.619   5.556   7.560
63934SOL    HW293577   5.574   5.699   7.575
63935SOL     OW93578  13.220   6.753   7.753
63935SOL    HW193579  13.254   6.839   7.730
63935SOL    HW293580  13.139   6.745   7.702
63936SOL     OW93581  12.343   2.366  10.448
63936SOL    HW193582  12.265   2.315  10.424
63936SOL    HW293583  12.321   2.405  10.532
63937SOL     OW93584   3.406  11.735   7.606
63937SOL    HW193585   3.361  11.814   7.575
63937SOL    HW293586   3.383  11.668   7.543
63938SOL     OW93587   2.790  10.308   1.492
63938SOL    HW193588   2.720  10.367   1.523
63938SOL    HW293589   2.746  10.250   1.430
63939SOL     OW93590  12.927   1.074   7.003
63939SOL    HW193591  12.861   1.051   6.938
63939SOL    HW293592  12.900   1.161   7.034
63940SOL     OW93593   0.815  13.361   2.232
63940SOL    HW193594   0.795  13.350   2.139
63940SOL    HW293595   0.751  13.425   2.262
63941SOL     OW93596   8.823   0.431   1.886
63941SOL    HW193597   8.771   0.501   1.847
63941SOL    HW293598   8.858   0.382   1.812
63942SOL     OW93599   7.412  11.448   9.615
63942SOL    HW193600   7.455  11.420   9.534
63942SOL    HW293601   7.355  11.520   9.588
63943SOL     OW93602   5.457   8.733  12.332
63943SOL    HW193603   5.402   8.714  12.408
63943SOL    HW293604   5.468   8.648  12.288
63944SOL     OW93605   8.684  12.722  10.632
63944SOL    HW193606   8.709  12.803  10.587
63944SOL    HW293607   8.617  12.749  10.694
63945SOL     OW93608   8.733   0.612   7.998
63945SOL    HW193609   8.728   0.526   8.040
63945SOL    HW293610   8.826   0.624   7.978
63946SOL     OW93611  12.036   5.622   7.820
63946SOL    HW193612  12.064   5.531   7.833
63946SOL    HW293613  12.099   5.674   7.871
63947SOL     OW93614  13.779   9.217   2.336
63947SOL    HW193615  13.858   9.177   2.300
63947SOL    HW293616  13.809   9.301   2.371
63948SOL     OW93617  12.042  13.257   0.547
63948SOL    HW193618  12.002  13.233   0.630
63948SOL    HW293619  11.988  13.328   0.513
63949SOL     OW93620   6.118   1.125   2.987
63949SOL    HW193621   6.172   1.066   2.935
63949SOL    HW293622   6.096   1.196   2.927
63950SOL     OW93623  14.617   1.792   8.324
63950SOL    HW193624  14.558   1.728   8.283
63950SOL    HW293625  14.680   1.738   8.373
63951SOL     OW93626  10.084  11.160   1.310
63951SOL    HW193627  10.067  11.096   1.379
63951SOL    HW293628  10.165  11.131   1.269
63952SOL     OW93629   1.078  12.621   5.615
63952SOL    HW193630   1.117  12.696   5.661
63952SOL    HW293631   1.013  12.661   5.556
63953SOL     OW93632  10.820  12.043   5.958
63953SOL    HW193633  10.760  12.039   6.033
63953SOL    HW293634  10.765  12.072   5.886
63954SOL     OW93635   3.705   3.760  12.783
63954SOL    HW193636   3.634   3.774  12.846
63954SOL    HW293637   3.666   3.780  12.698
63955SOL     OW93638  13.355  12.140   9.183
63955SOL    HW193639  13.271  12.186   9.183
63955SOL    HW293640  13.420  12.209   9.198
63956SOL     OW93641   6.547   4.461  14.816
63956SOL    HW193642   6.458   4.463  14.851
63956SOL    HW293643   6.542   4.400  14.742
63957SOL     OW93644  12.724  12.877  13.807
63957SOL    HW193645  12.634  12.880  13.841
63957SOL    HW293646  12.714  12.846  13.717
63958SOL     OW93647  12.014   2.216  12.382
63958SOL    HW193648  11.950   2.182  12.319
63958SOL    HW293649  12.064   2.139  12.408
63959SOL     OW93650   4.867   5.631   4.423
63959SOL    HW193651   4.878   5.723   4.399
63959SOL    HW293652   4.927   5.617   4.496
63960SOL     OW93653   5.956   2.265   0.319
63960SOL    HW193654   6.032   2.266   0.377
63960SOL    HW293655   5.988   2.299   0.236
63961SOL     OW93656  11.053   3.309  10.541
63961SOL    HW193657  11.031   3.216  10.547
63961SOL    HW293658  11.040   3.330  10.449
63962SOL     OW93659   6.115  11.296  13.298
63962SOL    HW193660   6.070  11.373  13.333
63962SOL    HW293661   6.086  11.291  13.207
63963SOL     OW93662   2.219   8.470   2.306
63963SOL    HW193663   2.259   8.546   2.265
63963SOL    HW293664   2.125   8.488   2.306
63964SOL     OW93665  13.307   4.781   1.385
63964SOL    HW193666  13.260   4.857   1.417
63964SOL    HW293667  13.334   4.806   1.296
63965SOL     OW93668   0.636   5.319  14.700
63965SOL    HW193669   0.545   5.347  14.685
63965SOL    HW293670   0.657   5.353  14.787
63966SOL     OW93671  12.205   9.618   5.638
63966SOL    HW193672  12.249   9.564   5.572
63966SOL    HW293673  12.277   9.661   5.685
63967SOL     OW93674  11.501  14.367  10.993
63967SOL    HW193675  11.579  14.311  10.992
63967SOL    HW293676  11.499  14.403  11.082
63968SOL     OW93677   7.452   6.278  10.372
63968SOL    HW193678   7.437   6.363  10.412
63968SOL    HW293679   7.403   6.281  10.290
63969SOL     OW93680  11.542  13.474   8.377
63969SOL    HW193681  11.475  13.413   8.408
63969SOL    HW293682  11.538  13.469   8.282
63970SOL     OW93683  13.663   0.045  11.329
63970SOL    HW193684  13.657  14.868  11.250
63970SOL    HW293685  13.734   0.006  11.380
63971SOL     OW93686   7.220  13.261   0.770
63971SOL    HW193687   7.124  13.259   0.763
63971SOL    HW293688   7.250  13.201   0.702
63972SOL     OW93689   5.886   2.271   3.999
63972SOL    HW193690   5.818   2.288   3.933
63972SOL    HW293691   5.878   2.177   4.018
63973SOL     OW93692  13.597   8.568  11.204
63973SOL    HW193693  13.639   8.485  11.185
63973SOL    HW293694  13.616   8.623  11.127
63974SOL     OW93695  11.162   5.068  11.453
63974SOL    HW193696  11.209   5.069  11.369
63974SOL    HW293697  11.232   5.074  11.519
63975SOL     OW93698   4.354  13.249   9.831
63975SOL    HW193699   4.369  13.180   9.897
63975SOL    HW293700   4.302  13.315   9.877
63976SOL     OW93701   6.882   9.822  11.774
63976SOL    HW193702   6.840   9.855  11.853
63976SOL    HW293703   6.944   9.756  11.806
63977SOL     OW93704   3.351   9.325   3.270
63977SOL    HW193705   3.352   9.398   3.332
63977SOL    HW293706   3.406   9.354   3.198
63978SOL     OW93707  14.760  10.723  14.102
63978SOL    HW193708  14.678  10.705  14.147
63978SOL    HW293709  14.815  10.647  14.122
63979SOL     OW93710   3.512   8.844   5.368
63979SOL    HW193711   3.463   8.767   5.339
63979SOL    HW293712   3.582   8.809   5.423
63980SOL     OW93713   1.116  10.712   8.831
63980SOL    HW193714   1.056  10.641   8.810
63980SOL    HW293715   1.202  10.678   8.807
63981SOL     OW93716   8.370   0.086  11.263
63981SOL    HW193717   8.336   0.017  11.319
63981SOL    HW293718   8.315   0.085  11.185
63982SOL     OW93719   9.356   9.394   1.925
63982SOL    HW193720   9.440   9.348   1.933
63982SOL    HW293721   9.296   9.329   1.890
63983SOL     OW93722   2.510   6.079   7.852
63983SOL    HW193723   2.577   6.140   7.883
63983SOL    HW293724   2.516   6.004   7.911
63984SOL     OW93725   7.667   7.187   9.434
63984SOL    HW193726   7.715   7.225   9.507
63984SOL    HW293727   7.578   7.220   9.444
63985SOL     OW93728   0.333   2.559  14.457
63985SOL    HW193729   0.356   2.472  14.424
63985SOL    HW293730   0.357   2.619  14.385
63986SOL     OW93731   9.306   1.179   1.987
63986SOL    HW193732   9.300   1.227   1.904
63986SOL    HW293733   9.336   1.092   1.962
63987SOL     OW93734   4.494   3.893  11.650
63987SOL    HW193735   4.567   3.882  11.711
63987SOL    HW293736   4.487   3.987  11.638
63988SOL     OW93737   8.693  14.360   8.961
63988SOL    HW193738   8.611  14.358   9.009
63988SOL    HW293739   8.730  14.446   8.981
63989SOL     OW93740   7.856   9.953  13.331
63989SOL    HW193741   7.821  10.013  13.266
63989SOL    HW293742   7.796   9.878  13.330
63990SOL     OW93743   1.160   7.029  12.148
63990SOL    HW193744   1.075   7.005  12.186
63990SOL    HW293745   1.176   7.118  12.179
63991SOL     OW93746  11.069   8.620   8.027
63991SOL    HW193747  11.127   8.641   7.954
63991SOL    HW293748  10.986   8.595   7.985
63992SOL     OW93749   8.114   3.692  14.063
63992SOL    HW193750   8.207   3.710  14.078
63992SOL    HW293751   8.103   3.600  14.087
63993SOL     OW93752  11.328   6.346   3.487
63993SOL    HW193753  11.241   6.385   3.477
63993SOL    HW293754  11.348   6.310   3.401
63994SOL     OW93755   5.260   1.244  14.363
63994SOL    HW193756   5.329   1.232  14.297
63994SOL    HW293757   5.215   1.159  14.366
63995SOL     OW93758   7.057  10.825   7.898
63995SOL    HW193759   7.085  10.735   7.913
63995SOL    HW293760   7.018  10.823   7.811
63996SOL     OW93761   7.481   8.565   0.069
63996SOL    HW193762   7.496   8.591   0.160
63996SOL    HW293763   7.425   8.633   0.033
63997SOL     OW93764   3.389   6.068  13.569
63997SOL    HW193765   3.316   6.129  13.581
63997SOL    HW293766   3.420   6.085  13.480
63998SOL     OW93767   5.898  12.927   0.580
63998SOL    HW193768   5.946  12.887   0.652
63998SOL    HW293769   5.935  13.015   0.573
63999SOL     OW93770  12.653   0.182   4.441
63999SOL    HW193771  12.623   0.268   4.408
63999SOL    HW293772  12.643   0.124   4.366
64000SOL     OW93773  12.485  12.638   6.691
64000SOL    HW193774  12.514  12.598   6.609
64000SOL    HW293775  12.473  12.731   6.669
64001SOL     OW93776   8.973  11.830   0.502
64001SOL    HW193777   8.953  11.923   0.510
64001SOL    HW293778   9.044  11.815   0.564
64002SOL     OW93779  11.387   9.167  13.314
64002SOL    HW193780  11.388   9.203  13.225
64002SOL    HW293781  11.464   9.204  13.356
64003SOL     OW93782  10.171   1.488   2.644
64003SOL    HW193783  10.201   1.493   2.553
64003SOL    HW293784  10.076   1.479   2.636
64004SOL     OW93785  13.376   1.721  12.481
64004SOL    HW193786  13.319   1.743  12.555
64004SOL    HW293787  13.348   1.781  12.411
64005SOL     OW93788   9.237   0.555   2.297
64005SOL    HW193789   9.153   0.558   2.343
64005SOL    HW293790   9.217   0.588   2.209
64006SOL     OW93791   1.158   6.394   4.664
64006SOL    HW193792   1.217   6.469   4.673
64006SOL    HW293793   1.216   6.318   4.663
64007SOL     OW93794   3.124   8.245  10.843
64007SOL    HW193795   3.212   8.208  10.836
64007SOL    HW293796   3.069   8.171  10.869
64008SOL     OW93797   1.317   0.852   8.982
64008SOL    HW193798   1.258   0.792   9.029
64008SOL    HW293799   1.391   0.797   8.957
64009SOL     OW93800   1.292  14.135  11.838
64009SOL    HW193801   1.263  14.188  11.764
64009SOL    HW293802   1.387  14.149  11.842
64010SOL     OW93803   1.783   8.840  10.129
64010SOL    HW193804   1.691   8.835  10.102
64010SOL    HW293805   1.792   8.769  10.193
64011SOL     OW93806  14.378  10.269   6.438
64011SOL    HW193807  14.327  10.189   6.451
64011SOL    HW293808  14.448  10.243   6.377
64012SOL     OW93809   0.106   4.348   3.954
64012SOL    HW193810   0.075   4.313   4.038
64012SOL    HW293811   0.194   4.379   3.973
64013SOL     OW93812   8.135   5.950  14.024
64013SOL    HW193813   8.087   6.012  13.970
64013SOL    HW293814   8.100   5.965  14.113
64014SOL     OW93815   7.319   9.752   8.549
64014SOL    HW193816   7.256   9.761   8.477
64014SOL    HW293817   7.282   9.802   8.621
64015SOL     OW93818   7.897   7.821   4.805
64015SOL    HW193819   7.911   7.802   4.712
64015SOL    HW293820   7.918   7.739   4.850
64016SOL     OW93821   3.634  14.415   7.749
64016SOL    HW193822   3.558  14.472   7.761
64016SOL    HW293823   3.640  14.402   7.654
64017SOL     OW93824   3.743   6.981   1.368
64017SOL    HW193825   3.667   7.038   1.379
64017SOL    HW293826   3.726   6.934   1.287
64018SOL     OW93827   5.571   4.315   1.337
64018SOL    HW193828   5.531   4.365   1.409
64018SOL    HW293829   5.605   4.236   1.379
64019SOL     OW93830   0.041   8.893   9.350
64019SOL    HW193831   0.053   8.898   9.445
64019SOL    HW293832   0.030   8.983   9.321
64020SOL     OW93833  13.629   3.604   8.531
64020SOL    HW193834  13.572   3.668   8.574
64020SOL    HW293835  13.703   3.655   8.499
64021SOL     OW93836   3.751  13.561   6.384
64021SOL    HW193837   3.680  13.620   6.362
64021SOL    HW293838   3.777  13.587   6.473
64022SOL     OW93839   0.048   7.903  13.305
64022SOL    HW193840  14.871   7.859  13.370
64022SOL    HW293841   0.086   7.832  13.254
64023SOL     OW93842   5.717  10.987   4.132
64023SOL    HW193843   5.767  11.019   4.056
64023SOL    HW293844   5.654  11.056   4.149
64024SOL     OW93845   6.298   4.036   4.333
64024SOL    HW193846   6.225   3.974   4.338
64024SOL    HW293847   6.372   3.983   4.303
64025SOL     OW93848   4.047   9.482   6.331
64025SOL    HW193849   4.101   9.450   6.259
64025SOL    HW293850   3.959   9.448   6.312
64026SOL     OW93851   8.286   2.295   5.824
64026SOL    HW193852   8.351   2.365   5.811
64026SOL    HW293853   8.306   2.231   5.756
64027SOL     OW93854   6.073   3.136   0.820
64027SOL    HW193855   5.987   3.131   0.780
64027SOL    HW293856   6.061   3.102   0.908
64028SOL     OW93857   2.338   0.608   5.274
64028SOL    HW193858   2.295   0.555   5.341
64028SOL    HW293859   2.379   0.680   5.321
64029SOL     OW93860   6.611  13.974   9.524
64029SOL    HW193861   6.638  13.905   9.585
64029SOL    HW293862   6.649  14.054   9.560
64030SOL     OW93863   4.759  14.165  14.518
64030SOL    HW193864   4.834  14.221  14.537
64030SOL    HW293865   4.742  14.179  14.424
64031SOL     OW93866   0.039  12.864   2.259
64031SOL    HW193867   0.017  12.957   2.262
64031SOL    HW293868   0.133  12.862   2.242
64032SOL     OW93869   0.801   9.946   9.620
64032SOL    HW193870   0.801  10.013   9.689
64032SOL    HW293871   0.780   9.865   9.666
64033SOL     OW93872   5.835   9.659   7.536
64033SOL    HW193873   5.826   9.593   7.467
64033SOL    HW293874   5.928   9.660   7.557
64034SOL     OW93875   9.386   8.087   4.603
64034SOL    HW193876   9.479   8.064   4.608
64034SOL    HW293877   9.343   8.008   4.571
64035SOL     OW93878   0.635   0.841   2.147
64035SOL    HW193879   0.589   0.896   2.084
64035SOL    HW293880   0.715   0.814   2.101
64036SOL     OW93881   7.678   4.848   4.344
64036SOL    HW193882   7.652   4.876   4.432
64036SOL    HW293883   7.738   4.917   4.314
64037SOL     OW93884   0.857   9.875   0.495
64037SOL    HW193885   0.868   9.970   0.491
64037SOL    HW293886   0.792   9.862   0.565
64038SOL     OW93887   9.984   1.628   7.074
64038SOL    HW193888   9.969   1.654   6.983
64038SOL    HW293889  10.068   1.582   7.073
64039SOL     OW93890   2.954   0.208  10.673
64039SOL    HW193891   3.025   0.162  10.629
64039SOL    HW293892   2.991   0.294  10.694
64040SOL     OW93893   5.834   7.171   6.458
64040SOL    HW193894   5.898   7.232   6.422
64040SOL    HW293895   5.774   7.153   6.385
64041SOL     OW93896   5.780  11.084   1.752
64041SOL    HW193897   5.817  11.059   1.837
64041SOL    HW293898   5.853  11.122   1.704
64042SOL     OW93899  10.894   7.445   4.236
64042SOL    HW193900  10.974   7.447   4.184
64042SOL    HW293901  10.830   7.491   4.183
64043SOL     OW93902  13.538  12.396   5.725
64043SOL    HW193903  13.546  12.481   5.768
64043SOL    HW293904  13.545  12.332   5.795
64044SOL     OW93905   9.007  14.268   7.097
64044SOL    HW193906   9.029  14.312   7.179
64044SOL    HW293907   8.967  14.337   7.043
64045SOL     OW93908  14.577  12.788  13.084
64045SOL    HW193909  14.533  12.818  13.164
64045SOL    HW293910  14.571  12.693  13.088
64046SOL     OW93911  11.193  14.260   3.578
64046SOL    HW193912  11.221  14.195   3.642
64046SOL    HW293913  11.246  14.241   3.500
64047SOL     OW93914   1.042   8.173   8.351
64047SOL    HW193915   0.954   8.135   8.350
64047SOL    HW293916   1.072   8.163   8.260
64048SOL     OW93917  12.545  10.483   0.293
64048SOL    HW193918  12.536  10.563   0.345
64048SOL    HW293919  12.546  10.413   0.358
64049SOL     OW93920   8.378  11.842  14.326
64049SOL    HW193921   8.308  11.777  14.329
64049SOL    HW293922   8.401  11.848  14.233
64050SOL     OW93923   0.758   8.534  11.989
64050SOL    HW193924   0.836   8.586  11.971
64050SOL    HW293925   0.688   8.599  12.003
64051SOL     OW93926   1.856   4.608   5.824
64051SOL    HW193927   1.821   4.684   5.778
64051SOL    HW293928   1.799   4.596   5.900
64052SOL     OW93929   1.688   4.894  10.104
64052SOL    HW193930   1.707   4.800  10.110
64052SOL    HW293931   1.611   4.906  10.159
64053SOL     OW93932  11.980  10.760   6.736
64053SOL    HW193933  11.999  10.729   6.647
64053SOL    HW293934  12.055  10.729   6.788
64054SOL     OW93935  12.121  12.733   6.834
64054SOL    HW193936  12.034  12.761   6.806
64054SOL    HW293937  12.166  12.709   6.753
64055SOL     OW93938  13.768   6.486   7.102
64055SOL    HW193939  13.820   6.490   7.182
64055SOL    HW293940  13.698   6.550   7.115
64056SOL     OW93941  10.645   7.682   4.078
64056SOL    HW193942  10.656   7.690   3.983
64056SOL    HW293943  10.558   7.642   4.089
64057SOL     OW93944   1.822  11.031   1.886
64057SOL    HW193945   1.782  11.074   1.811
64057SOL    HW293946   1.848  11.103   1.944
64058SOL     OW93947   6.625   9.366   2.321
64058SOL    HW193948   6.581   9.450   2.332
64058SOL    HW293949   6.631   9.353   2.226
64059SOL     OW93950  10.652  12.543   0.360
64059SOL    HW193951  10.610  12.457   0.364
64059SOL    HW293952  10.580  12.604   0.343
64060SOL     OW93953   7.533   6.137   1.126
64060SOL    HW193954   7.454   6.168   1.083
64060SOL    HW293955   7.527   6.172   1.215
64061SOL     OW93956  11.012  13.390   1.728
64061SOL    HW193957  11.081  13.328   1.704
64061SOL    HW293958  11.034  13.470   1.680
64062SOL     OW93959  13.447  11.904   7.246
64062SOL    HW193960  13.413  11.815   7.243
64062SOL    HW293961  13.425  11.941   7.160
64063SOL     OW93962   8.616   3.718   5.643
64063SOL    HW193963   8.660   3.768   5.575
64063SOL    HW293964   8.536   3.685   5.601
64064SOL     OW93965   2.714   1.504   7.921
64064SOL    HW193966   2.776   1.452   7.972
64064SOL    HW293967   2.628   1.471   7.948
64065SOL     OW93968   9.368  10.509   0.389
64065SOL    HW193969   9.404  10.591   0.424
64065SOL    HW293970   9.426  10.441   0.423
64066SOL     OW93971  14.798   6.038  11.900
64066SOL    HW193972  14.759   5.952  11.885
64066SOL    HW293973   0.014   6.025  11.884
64067SOL     OW93974  10.471  10.045  10.601
64067SOL    HW193975  10.525   9.968  10.585
64067SOL    HW293976  10.397  10.036  10.541
64068SOL     OW93977   1.944   2.938  13.920
64068SOL    HW193978   1.907   2.994  13.851
64068SOL    HW293979   2.029   2.912  13.886
64069SOL     OW93980   2.597   7.980  13.580
64069SOL    HW193981   2.689   7.983  13.556
64069SOL    HW293982   2.591   8.034  13.659
64070SOL     OW93983  10.430  11.515  13.738
64070SOL    HW193984  10.508  11.503  13.792
64070SOL    HW293985  10.362  11.465  13.783
64071SOL     OW93986   9.533   0.646   1.514
64071SOL    HW193987   9.629   0.641   1.506
64071SOL    HW293988   9.506   0.696   1.437
64072SOL     OW93989  14.271  10.797   8.300
64072SOL    HW193990  14.295  10.763   8.214
64072SOL    HW293991  14.355  10.805   8.347
64073SOL     OW93992  13.976  14.456  11.416
64073SOL    HW193993  13.949  14.548  11.405
64073SOL    HW293994  13.955  14.436  11.507
64074SOL     OW93995   4.459   3.596   7.080
64074SOL    HW193996   4.538   3.545   7.100
64074SOL    HW293997   4.399   3.576   7.152
64075SOL     OW93998  14.809   9.461  14.179
64075SOL    HW193999   0.009   9.481  14.128
64075SOL    HW294000  14.775   9.546  14.207
64076SOL     OW94001   8.693   4.528   1.543
64076SOL    HW194002   8.671   4.488   1.459
64076SOL    HW294003   8.642   4.609   1.545
64077SOL     OW94004   6.808  14.343   4.639
64077SOL    HW194005   6.838  14.376   4.554
64077SOL    HW294006   6.786  14.251   4.621
64078SOL     OW94007   2.065   8.521  10.155
64078SOL    HW194008   2.074   8.612  10.181
64078SOL    HW294009   2.002   8.523  10.082
64079SOL     OW94010   0.476   0.685   1.233
64079SOL    HW194011   0.489   0.600   1.275
64079SOL    HW294012   0.557   0.701   1.184
64080SOL     OW94013   2.048   4.150  10.055
64080SOL    HW194014   1.965   4.118  10.018
64080SOL    HW294015   2.108   4.076  10.045
64081SOL     OW94016   2.519   2.025  13.658
64081SOL    HW194017   2.523   2.094  13.724
64081SOL    HW294018   2.461   2.060  13.590
64082SOL     OW94019  10.269  12.611  13.998
64082SOL    HW194020  10.208  12.560  14.051
64082SOL    HW294021  10.326  12.546  13.957
64083SOL     OW94022   3.485   8.093   6.987
64083SOL    HW194023   3.411   8.151   6.971
64083SOL    HW294024   3.453   8.006   6.961
64084SOL     OW94025  13.518   3.656   5.600
64084SOL    HW194026  13.476   3.694   5.677
64084SOL    HW294027  13.445   3.628   5.544
64085SOL     OW94028  14.427   6.859   1.591
64085SOL    HW194029  14.407   6.768   1.614
64085SOL    HW294030  14.522   6.862   1.584
64086SOL     OW94031   2.539   1.019  14.335
64086SOL    HW194032   2.627   0.997  14.304
64086SOL    HW294033   2.509   0.940  14.380
64087SOL     OW94034   3.257   1.140   3.165
64087SOL    HW194035   3.311   1.207   3.123
64087SOL    HW294036   3.310   1.060   3.160
64088SOL     OW94037   8.021  12.176   0.706
64088SOL    HW194038   8.021  12.267   0.676
64088SOL    HW294039   7.932  12.144   0.687
64089SOL     OW94040   2.819   5.901   7.055
64089SOL    HW194041   2.848   5.951   7.131
64089SOL    HW294042   2.754   5.840   7.090
64090SOL     OW94043   0.444   3.543   9.777
64090SOL    HW194044   0.473   3.527   9.687
64090SOL    HW294045   0.377   3.476   9.792
64091SOL     OW94046  10.660  10.391   1.565
64091SOL    HW194047  10.709  10.322   1.609
64091SOL    HW294048  10.638  10.354   1.480
64092SOL     OW94049   1.604  11.004  11.332
64092SOL    HW194050   1.605  11.056  11.252
64092SOL    HW294051   1.644  11.060  11.398
64093SOL     OW94052  10.309   9.729   5.952
64093SOL    HW194053  10.371   9.748   6.022
64093SOL    HW294054  10.302   9.812   5.904
64094SOL     OW94055  12.403  11.810   3.874
64094SOL    HW194056  12.340  11.769   3.934
64094SOL    HW294057  12.363  11.800   3.787
64095SOL     OW94058   8.426   6.198  13.988
64095SOL    HW194059   8.353   6.140  13.968
64095SOL    HW294060   8.417   6.217  14.082
64096SOL     OW94061   4.657  11.411   2.299
64096SOL    HW194062   4.633  11.398   2.208
64096SOL    HW294063   4.740  11.363   2.310
64097SOL     OW94064  11.993   4.406  13.053
64097SOL    HW194065  12.048   4.329  13.039
64097SOL    HW294066  11.909   4.370  13.082
64098SOL     OW94067   6.910   2.109   4.159
64098SOL    HW194068   6.953   2.185   4.120
64098SOL    HW294069   6.855   2.074   4.089
64099SOL     OW94070   4.009  10.602   6.139
64099SOL    HW194071   4.044  10.606   6.228
64099SOL    HW294072   4.040  10.682   6.097
64100SOL     OW94073   6.708  10.089   4.288
64100SOL    HW194074   6.647  10.040   4.234
64100SOL    HW294075   6.795  10.063   4.257
64101SOL     OW94076  14.618   9.333  11.195
64101SOL    HW194077  14.552   9.279  11.239
64101SOL    HW294078  14.569   9.379  11.127
64102SOL     OW94079   4.248  13.630  10.881
64102SOL    HW194080   4.172  13.582  10.848
64102SOL    HW294081   4.281  13.576  10.953
64103SOL     OW94082   6.079  13.228   2.003
64103SOL    HW194083   6.054  13.167   1.934
64103SOL    HW294084   6.174  13.225   2.005
64104SOL     OW94085   4.912  12.044   9.170
64104SOL    HW194086   4.924  12.109   9.239
64104SOL    HW294087   4.992  12.049   9.118
64105SOL     OW94088   3.690   2.535   9.314
64105SOL    HW194089   3.621   2.492   9.264
64105SOL    HW294090   3.763   2.474   9.312
64106SOL     OW94091  11.930   3.150   1.785
64106SOL    HW194092  11.883   3.183   1.862
64106SOL    HW294093  12.017   3.189   1.791
64107SOL     OW94094   6.548   7.291   4.320
64107SOL    HW194095   6.640   7.312   4.333
64107SOL    HW294096   6.531   7.310   4.228
64108SOL     OW94097  12.352   8.874   2.121
64108SOL    HW194098  12.298   8.950   2.100
64108SOL    HW294099  12.343   8.864   2.216
64109SOL     OW94100  10.843   9.700   4.737
64109SOL    HW194101  10.770   9.763   4.736
64109SOL    HW294102  10.837   9.655   4.653
64110SOL     OW94103   8.226  10.850  11.497
64110SOL    HW194104   8.311  10.890  11.511
64110SOL    HW294105   8.166  10.924  11.487
64111SOL     OW94106   0.086  11.814  10.052
64111SOL    HW194107   0.130  11.832   9.969
64111SOL    HW294108  14.872  11.840  10.036
64112SOL     OW94109   8.235   2.366   0.051
64112SOL    HW194110   8.269   2.444   0.095
64112SOL    HW294111   8.216   2.305   0.122
64113SOL     OW94112   9.197  13.629   3.102
64113SOL    HW194113   9.122  13.586   3.143
64113SOL    HW294114   9.159  13.678   3.029
64114SOL     OW94115   7.697  12.396  10.354
64114SOL    HW194116   7.748  12.401  10.273
64114SOL    HW294117   7.611  12.367  10.326
64115SOL     OW94118   6.840   8.951  14.351
64115SOL    HW194119   6.744   8.956  14.352
64115SOL    HW294120   6.863   8.965  14.259
64116SOL     OW94121   1.731  12.147   3.839
64116SOL    HW194122   1.789  12.151   3.764
64116SOL    HW294123   1.697  12.057   3.838
64117SOL     OW94124  13.766   8.077   1.619
64117SOL    HW194125  13.704   8.132   1.570
64117SOL    HW294126  13.847   8.080   1.567
64118SOL     OW94127  12.452   3.133   0.886
64118SOL    HW194128  12.396   3.104   0.958
64118SOL    HW294129  12.404   3.108   0.807
64119SOL     OW94130   9.814  13.830  11.122
64119SOL    HW194131   9.893  13.864  11.080
64119SOL    HW294132   9.839  13.818  11.214
64120SOL     OW94133   4.005   2.339  10.296
64120SOL    HW194134   4.033   2.300  10.213
64120SOL    HW294135   3.923   2.295  10.317
64121SOL     OW94136   3.648   6.025  13.746
64121SOL    HW194137   3.715   5.999  13.682
64121SOL    HW294138   3.574   6.053  13.693
64122SOL     OW94139   0.256  10.598  13.016
64122SOL    HW194140   0.216  10.512  13.021
64122SOL    HW294141   0.273  10.622  13.107
64123SOL     OW94142  10.995   6.718   0.337
64123SOL    HW194143  10.932   6.669   0.389
64123SOL    HW294144  11.068   6.735   0.396
64124SOL     OW94145   3.170   9.535   3.697
64124SOL    HW194146   3.128   9.578   3.772
64124SOL    HW294147   3.121   9.453   3.686
64125SOL     OW94148   7.087  12.309   1.645
64125SOL    HW194149   7.058  12.238   1.702
64125SOL    HW294150   7.148  12.267   1.584
64126SOL     OW94151   2.911   0.349   9.702
64126SOL    HW194152   2.980   0.285   9.722
64126SOL    HW294153   2.829   0.305   9.725
64127SOL     OW94154  13.090   4.503   2.693
64127SOL    HW194155  13.088   4.565   2.767
64127SOL    HW294156  13.061   4.555   2.618
64128SOL     OW94157  14.317  10.487   9.447
64128SOL    HW194158  14.274  10.462   9.365
64128SOL    HW294159  14.248  10.531   9.498
64129SOL     OW94160  12.046  12.429  12.879
64129SOL    HW194161  12.088  12.513  12.901
64129SOL    HW294162  12.041  12.383  12.963
64130SOL     OW94163  14.423   0.770   7.014
64130SOL    HW194164  14.449   0.856   7.047
64130SOL    HW294165  14.350   0.787   6.955
64131SOL     OW94166   3.920   3.968   1.466
64131SOL    HW194167   3.971   3.987   1.388
64131SOL    HW294168   3.985   3.960   1.536
64132SOL     OW94169   4.347  14.311  10.740
64132SOL    HW194170   4.259  14.301  10.703
64132SOL    HW294171   4.350  14.249  10.812
64133SOL     OW94172  10.613   1.173  14.710
64133SOL    HW194173  10.685   1.228  14.743
64133SOL    HW294174  10.575   1.135  14.789
64134SOL     OW94175  10.573   4.968  14.545
64134SOL    HW194176  10.494   4.967  14.492
64134SOL    HW294177  10.596   5.061  14.553
64135SOL     OW94178  13.698   2.085  13.457
64135SOL    HW194179  13.754   2.112  13.384
64135SOL    HW294180  13.640   2.019  13.419
64136SOL     OW94181   3.919  11.028   5.665
64136SOL    HW194182   3.942  10.975   5.741
64136SOL    HW294183   3.881  11.108   5.701
64137SOL     OW94184   7.955   7.200   3.502
64137SOL    HW194185   8.006   7.147   3.441
64137SOL    HW294186   8.014   7.215   3.576
64138SOL     OW94187  13.213  12.279   6.246
64138SOL    HW194188  13.166  12.290   6.329
64138SOL    HW294189  13.290  12.227   6.269
64139SOL     OW94190  10.184  13.099   7.221
64139SOL    HW194191  10.153  13.073   7.134
64139SOL    HW294192  10.132  13.047   7.282
64140SOL     OW94193   2.935   0.404   9.213
64140SOL    HW194194   2.922   0.498   9.216
64140SOL    HW294195   2.977   0.388   9.128
64141SOL     OW94196   6.519   4.303   2.406
64141SOL    HW194197   6.506   4.396   2.423
64141SOL    HW294198   6.609   4.286   2.432
64142SOL     OW94199  13.716   7.925   6.814
64142SOL    HW194200  13.632   7.916   6.860
64142SOL    HW294201  13.761   7.995   6.861
64143SOL     OW94202  11.350   9.122  10.224
64143SOL    HW194203  11.263   9.110  10.261
64143SOL    HW294204  11.343   9.090  10.135
64144SOL     OW94205   1.409   2.239   6.683
64144SOL    HW194206   1.480   2.214   6.743
64144SOL    HW294207   1.347   2.167   6.687
64145SOL     OW94208  14.514   6.780  14.572
64145SOL    HW194209  14.499   6.861  14.620
64145SOL    HW294210  14.510   6.711  14.638
64146SOL     OW94211  13.607   0.317   1.707
64146SOL    HW194212  13.534   0.309   1.646
64146SOL    HW294213  13.568   0.306   1.793
64147SOL     OW94214   6.506   3.157   8.774
64147SOL    HW194215   6.528   3.101   8.700
64147SOL    HW294216   6.451   3.226   8.737
64148SOL     OW94217   0.598  10.298   0.606
64148SOL    HW194218   0.639  10.254   0.681
64148SOL    HW294219   0.602  10.391   0.627
64149SOL     OW94220   8.831   1.499   7.300
64149SOL    HW194221   8.760   1.507   7.236
64149SOL    HW294222   8.786   1.484   7.383
64150SOL     OW94223   2.552   8.405   8.256
64150SOL    HW194224   2.547   8.392   8.351
64150SOL    HW294225   2.646   8.410   8.238
64151SOL     OW94226  11.697   2.954  12.604
64151SOL    HW194227  11.635   3.006  12.654
64151SOL    HW294228  11.726   2.886  12.665
64152SOL     OW94229  12.213  13.789   2.826
64152SOL    HW194230  12.150  13.860   2.833
64152SOL    HW294231  12.297  13.832   2.809
64153SOL     OW94232  13.723   3.206   3.161
64153SOL    HW194233  13.645   3.158   3.189
64153SOL    HW294234  13.692   3.264   3.091
64154SOL     OW94235   5.829   4.233  10.891
64154SOL    HW194236   5.845   4.172  10.963
64154SOL    HW294237   5.915   4.248  10.852
64155SOL     OW94238   9.639  11.297   1.722
64155SOL    HW194239   9.641  11.389   1.748
64155SOL    HW294240   9.601  11.251   1.797
64156SOL     OW94241   1.758   3.332  10.337
64156SOL    HW194242   1.812   3.410  10.333
64156SOL    HW294243   1.719   3.334  10.425
64157SOL     OW94244   5.927   2.380   1.375
64157SOL    HW194245   5.842   2.391   1.332
64157SOL    HW294246   5.923   2.438   1.451
64158SOL     OW94247   8.020  10.849   6.605
64158SOL    HW194248   8.050  10.822   6.518
64158SOL    HW294249   8.045  10.776   6.662
64159SOL     OW94250   6.720   3.400  13.522
64159SOL    HW194251   6.793   3.458  13.504
64159SOL    HW294252   6.760   3.321  13.559
64160SOL     OW94253   4.389   6.363  10.486
64160SOL    HW194254   4.383   6.441  10.430
64160SOL    HW294255   4.469   6.376  10.537
64161SOL     OW94256  10.720   5.002  13.714
64161SOL    HW194257  10.732   4.910  13.739
64161SOL    HW294258  10.656   5.036  13.777
64162SOL     OW94259   3.852   9.424   5.599
64162SOL    HW194260   3.793   9.362   5.642
64162SOL    HW294261   3.904   9.371   5.540
64163SOL     OW94262   3.853  10.470   1.342
64163SOL    HW194263   3.782  10.526   1.374
64163SOL    HW294264   3.865  10.405   1.412
64164SOL     OW94265  12.430  11.287   9.704
64164SOL    HW194266  12.442  11.196   9.675
64164SOL    HW294267  12.441  11.283   9.799
64165SOL     OW94268   6.035  11.761   9.140
64165SOL    HW194269   6.058  11.681   9.188
64165SOL    HW294270   5.949  11.743   9.104
64166SOL     OW94271  14.730  12.580  11.889
64166SOL    HW194272  14.818  12.602  11.920
64166SOL    HW294273  14.674  12.645  11.931
64167SOL     OW94274   4.972  12.482   7.017
64167SOL    HW194275   4.941  12.555   6.965
64167SOL    HW294276   4.897  12.422   7.021
64168SOL     OW94277  14.119  10.264   6.175
64168SOL    HW194278  14.045  10.283   6.118
64168SOL    HW294279  14.141  10.173   6.156
64169SOL     OW94280   3.659   7.989   1.400
64169SOL    HW194281   3.659   7.998   1.305
64169SOL    HW294282   3.713   8.062   1.431
64170SOL     OW94283  12.357  10.610   2.248
64170SOL    HW194284  12.349  10.583   2.156
64170SOL    HW294285  12.270  10.593   2.286
64171SOL     OW94286  12.540  13.409   8.556
64171SOL    HW194287  12.546  13.387   8.649
64171SOL    HW294288  12.524  13.503   8.554
64172SOL     OW94289   8.559   6.468  14.245
64172SOL    HW194290   8.492   6.407  14.214
64172SOL    HW294291   8.621   6.412  14.293
64173SOL     OW94292   3.136   7.589  11.394
64173SOL    HW194293   3.115   7.619  11.483
64173SOL    HW294294   3.132   7.494  11.400
64174SOL     OW94295   0.627   9.827   5.237
64174SOL    HW194296   0.649   9.734   5.232
64174SOL    HW294297   0.638   9.859   5.148
64175SOL     OW94298  12.647   7.076   5.964
64175SOL    HW194299  12.564   7.123   5.967
64175SOL    HW294300  12.707   7.136   5.919
64176SOL     OW94301   0.842   5.189   8.024
64176SOL    HW194302   0.759   5.236   8.033
64176SOL    HW294303   0.825   5.126   7.954
64177SOL     OW94304  10.264  12.326  12.449
64177SOL    HW194305  10.342  12.290  12.407
64177SOL    HW294306  10.259  12.416  12.416
64178SOL     OW94307   0.347  12.659   5.559
64178SOL    HW194308   0.379  12.720   5.493
64178SOL    HW294309   0.343  12.712   5.639
64179SOL     OW94310   8.990  11.464   9.620
64179SOL    HW194311   8.963  11.539   9.567
64179SOL    HW294312   8.945  11.389   9.581
64180SOL     OW94313  14.638   2.666   2.551
64180SOL    HW194314  14.567   2.636   2.608
64180SOL    HW294315  14.668   2.587   2.507
64181SOL     OW94316   2.844   8.659  10.562
64181SOL    HW194317   2.895   8.740  10.566
64181SOL    HW294318   2.907   8.591  10.587
64182SOL     OW94319   6.158   8.787   4.700
64182SOL    HW194320   6.228   8.728   4.726
64182SOL    HW294321   6.157   8.855   4.768
64183SOL     OW94322   2.904   7.785   5.227
64183SOL    HW194323   2.982   7.737   5.196
64183SOL    HW294324   2.899   7.765   5.320
64184SOL     OW94325   4.032  12.219   3.196
64184SOL    HW194326   3.993  12.209   3.283
64184SOL    HW294327   3.966  12.182   3.136
64185SOL     OW94328   5.707   0.742   8.788
64185SOL    HW194329   5.748   0.761   8.704
64185SOL    HW294330   5.619   0.779   8.780
64186SOL     OW94331   1.826   4.067   1.466
64186SOL    HW194332   1.872   4.149   1.485
64186SOL    HW294333   1.894   4.000   1.469
64187SOL     OW94334   4.738  10.543   1.593
64187SOL    HW194335   4.670  10.537   1.526
64187SOL    HW294336   4.701  10.602   1.659
64188SOL     OW94337   5.537   2.068   7.499
64188SOL    HW194338   5.491   2.011   7.437
64188SOL    HW294339   5.502   2.045   7.584
64189SOL     OW94340   3.764  10.871   9.674
64189SOL    HW194341   3.844  10.916   9.646
64189SOL    HW294342   3.763  10.790   9.623
64190SOL     OW94343   4.972  11.135   2.552
64190SOL    HW194344   4.914  11.198   2.595
64190SOL    HW294345   4.992  11.174   2.467
64191SOL     OW94346   1.698   2.135   5.689
64191SOL    HW194347   1.608   2.110   5.667
64191SOL    HW294348   1.738   2.159   5.606
64192SOL     OW94349   4.032  10.821  14.287
64192SOL    HW194350   4.003  10.795  14.374
64192SOL    HW294351   3.956  10.866  14.249
64193SOL     OW94352   6.769   5.778   4.146
64193SOL    HW194353   6.799   5.694   4.111
64193SOL    HW294354   6.850   5.824   4.168
64194SOL     OW94355   2.465   9.909   1.482
64194SOL    HW194356   2.450   9.994   1.524
64194SOL    HW294357   2.452   9.845   1.552
64195SOL     OW94358   2.471   9.845  11.224
64195SOL    HW194359   2.546   9.787  11.240
64195SOL    HW294360   2.454   9.885  11.309
64196SOL     OW94361   0.717  13.393   9.540
64196SOL    HW194362   0.781  13.336   9.583
64196SOL    HW294363   0.720  13.474   9.589
64197SOL     OW94364  14.013   6.772   4.068
64197SOL    HW194365  14.093   6.719   4.078
64197SOL    HW294366  14.010   6.794   3.975
64198SOL     OW94367   4.846   5.308   3.267
64198SOL    HW194368   4.840   5.260   3.185
64198SOL    HW294369   4.766   5.362   3.268
64199SOL     OW94370  11.681  11.057  12.879
64199SOL    HW194371  11.748  11.075  12.813
64199SOL    HW294372  11.669  10.962  12.878
64200SOL     OW94373   0.972   6.913   2.318
64200SOL    HW194374   0.959   6.826   2.279
64200SOL    HW294375   0.888   6.934   2.358
64201SOL     OW94376  12.697   0.423   5.503
64201SOL    HW194377  12.646   0.469   5.436
64201SOL    HW294378  12.635   0.362   5.543
64202SOL     OW94379  13.757   9.522   9.513
64202SOL    HW194380  13.848   9.523   9.543
64202SOL    HW294381  13.760   9.566   9.428
64203SOL     OW94382  13.180   7.871   2.872
64203SOL    HW194383  13.256   7.924   2.897
64203SOL    HW294384  13.217   7.793   2.831
64204SOL     OW94385   0.511  13.623   7.098
64204SOL    HW194386   0.495  13.536   7.134
64204SOL    HW294387   0.424  13.660   7.085
64205SOL     OW94388   4.813   0.639  10.705
64205SOL    HW194389   4.834   0.709  10.643
64205SOL    HW294390   4.829   0.558  10.657
64206SOL     OW94391  11.246   6.420   9.573
64206SOL    HW194392  11.197   6.337   9.571
64206SOL    HW294393  11.178   6.487   9.581
64207SOL     OW94394   9.961   8.885  11.905
64207SOL    HW194395   9.980   8.799  11.943
64207SOL    HW294396   9.923   8.866  11.820
64208SOL     OW94397   1.203  14.552  11.407
64208SOL    HW194398   1.295  14.578  11.410
64208SOL    HW294399   1.205  14.459  11.385
64209SOL     OW94400   1.158   3.772  14.195
64209SOL    HW194401   1.170   3.832  14.268
64209SOL    HW294402   1.073   3.795  14.159
64210SOL     OW94403  11.887   4.490   9.636
64210SOL    HW194404  11.954   4.456   9.576
64210SOL    HW294405  11.813   4.511   9.580
64211SOL     OW94406   6.895  10.344  14.678
64211SOL    HW194407   6.927  10.375  14.592
64211SOL    HW294408   6.813  10.391  14.692
64212SOL     OW94409   8.523   1.303   6.339
64212SOL    HW194410   8.490   1.383   6.297
64212SOL    HW294411   8.536   1.327   6.430
64213SOL     OW94412  13.241  12.712  10.082
64213SOL    HW194413  13.316  12.737  10.028
64213SOL    HW294414  13.279  12.665  10.156
64214SOL     OW94415  12.271  12.121   7.735
64214SOL    HW194416  12.359  12.085   7.732
64214SOL    HW294417  12.224  12.075   7.665
64215SOL     OW94418  11.801  12.469   4.416
64215SOL    HW194419  11.722  12.524   4.424
64215SOL    HW294420  11.872  12.531   4.405
64216SOL     OW94421  11.561   5.498   5.755
64216SOL    HW194422  11.518   5.467   5.835
64216SOL    HW294423  11.646   5.456   5.755
64217SOL     OW94424   9.125  14.114   1.361
64217SOL    HW194425   9.164  14.199   1.340
64217SOL    HW294426   9.196  14.064   1.402
64218SOL     OW94427  11.278  11.985  11.204
64218SOL    HW194428  11.359  11.974  11.154
64218SOL    HW294429  11.208  11.971  11.139
64219SOL     OW94430  10.598   7.884   7.725
64219SOL    HW194431  10.548   7.898   7.806
64219SOL    HW294432  10.688   7.906   7.749
64220SOL     OW94433  10.682   5.348   3.464
64220SOL    HW194434  10.752   5.408   3.440
64220SOL    HW294435  10.628   5.341   3.386
64221SOL     OW94436  12.765   4.713   3.009
64221SOL    HW194437  12.722   4.638   3.051
64221SOL    HW294438  12.808   4.760   3.081
64222SOL     OW94439   9.452  11.055   8.603
64222SOL    HW194440   9.480  11.146   8.592
64222SOL    HW294441   9.378  11.060   8.663
64223SOL     OW94442   4.714  10.513   5.688
64223SOL    HW194443   4.749  10.494   5.601
64223SOL    HW294444   4.715  10.609   5.694
64224SOL     OW94445  11.460   0.511   9.554
64224SOL    HW194446  11.489   0.567   9.626
64224SOL    HW294447  11.425   0.571   9.489
64225SOL     OW94448   5.528   3.882  13.178
64225SOL    HW194449   5.494   3.869  13.266
64225SOL    HW294450   5.539   3.793  13.143
64226SOL     OW94451   8.928   5.185  14.777
64226SOL    HW194452   8.980   5.105  14.770
64226SOL    HW294453   8.843   5.162  14.738
64227SOL     OW94454  11.751  10.093   3.089
64227SOL    HW194455  11.731  10.177   3.047
64227SOL    HW294456  11.668  10.065   3.127
64228SOL     OW94457   9.214  14.214   9.712
64228SOL    HW194458   9.300  14.196   9.750
64228SOL    HW294459   9.182  14.128   9.683
64229SOL     OW94460   3.160   9.582   3.091
64229SOL    HW194461   3.163   9.648   3.021
64229SOL    HW294462   3.243   9.593   3.137
64230SOL     OW94463  14.415   2.699  11.583
64230SOL    HW194464  14.479   2.759  11.622
64230SOL    HW294465  14.339   2.704  11.641
64231SOL     OW94466  10.111   8.775   9.902
64231SOL    HW194467  10.182   8.731   9.854
64231SOL    HW294468  10.125   8.868   9.883
64232SOL     OW94469  11.820   0.502   8.253
64232SOL    HW194470  11.788   0.528   8.340
64232SOL    HW294471  11.912   0.480   8.267
64233SOL     OW94472  11.637   4.962   5.412
64233SOL    HW194473  11.612   5.011   5.489
64233SOL    HW294474  11.576   4.887   5.410
64234SOL     OW94475   6.090   2.730   8.385
64234SOL    HW194476   6.118   2.674   8.458
64234SOL    HW294477   6.075   2.816   8.424
64235SOL     OW94478   4.609   4.115  10.368
64235SOL    HW194479   4.540   4.112  10.302
64235SOL    HW294480   4.618   4.207  10.389
64236SOL     OW94481   6.684  14.641   5.481
64236SOL    HW194482   6.656  14.643   5.390
64236SOL    HW294483   6.682  14.549   5.505
64237SOL     OW94484  10.322   7.021   3.183
64237SOL    HW194485  10.331   6.943   3.237
64237SOL    HW294486  10.412   7.047   3.163
64238SOL     OW94487   8.078   0.442  13.444
64238SOL    HW194488   8.096   0.474  13.355
64238SOL    HW294489   8.017   0.507  13.481
64239SOL     OW94490   3.031   6.973  10.126
64239SOL    HW194491   2.969   6.953  10.056
64239SOL    HW294492   3.105   7.015  10.081
64240SOL     OW94493   3.797   1.281   8.609
64240SOL    HW194494   3.872   1.328   8.645
64240SOL    HW294495   3.726   1.300   8.670
64241SOL     OW94496  12.191  14.042   2.618
64241SOL    HW194497  12.277  14.059   2.578
64241SOL    HW294498  12.128  14.068   2.551
64242SOL     OW94499   1.708  13.827  11.380
64242SOL    HW194500   1.638  13.774  11.418
64242SOL    HW294501   1.691  13.916  11.413
64243SOL     OW94502  12.478   6.375   6.652
64243SOL    HW194503  12.411   6.329   6.601
64243SOL    HW294504  12.430   6.413   6.725
64244SOL     OW94505  13.730  13.812  10.445
64244SOL    HW194506  13.677  13.733  10.456
64244SOL    HW294507  13.680  13.880  10.490
64245SOL     OW94508  12.567   3.371   8.489
64245SOL    HW194509  12.598   3.402   8.404
64245SOL    HW294510  12.623   3.296   8.508
64246SOL     OW94511   8.495  10.812  13.890
64246SOL    HW194512   8.432  10.784  13.823
64246SOL    HW294513   8.505  10.906  13.875
64247SOL     OW94514   0.323  14.700   2.579
64247SOL    HW194515   0.407  14.657   2.564
64247SOL    HW294516   0.311  14.696   2.674
64248SOL     OW94517   3.309   7.359   5.096
64248SOL    HW194518   3.294   7.264   5.093
64248SOL    HW294519   3.264   7.388   5.174
64249SOL     OW94520   8.667   0.171   3.894
64249SOL    HW194521   8.756   0.182   3.928
64249SOL    HW294522   8.629   0.102   3.949
64250SOL     OW94523   8.385   8.250  10.875
64250SOL    HW194524   8.411   8.342  10.870
64250SOL    HW294525   8.297   8.248  10.838
64251SOL     OW94526   5.592   7.871   9.172
64251SOL    HW194527   5.576   7.949   9.226
64251SOL    HW294528   5.651   7.818   9.225
64252SOL     OW94529   6.345   7.737   6.806
64252SOL    HW194530   6.394   7.688   6.872
64252SOL    HW294531   6.403   7.736   6.729
64253SOL     OW94532   5.481   2.074  10.012
64253SOL    HW194533   5.497   2.117  10.096
64253SOL    HW294534   5.469   1.982  10.033
64254SOL     OW94535   9.565  13.302   2.351
64254SOL    HW194536   9.544  13.277   2.261
64254SOL    HW294537   9.516  13.383   2.365
64255SOL     OW94538   9.085   1.843   7.013
64255SOL    HW194539   9.091   1.936   6.989
64255SOL    HW294540   9.176   1.815   7.021
64256SOL     OW94541   0.859   7.922   5.522
64256SOL    HW194542   0.906   7.923   5.439
64256SOL    HW294543   0.856   7.830   5.547
64257SOL     OW94544   8.422  14.051   8.957
64257SOL    HW194545   8.438  14.060   8.863
64257SOL    HW294546   8.343  14.103   8.973
64258SOL     OW94547  11.032  11.378   7.867
64258SOL    HW194548  10.962  11.443   7.859
64258SOL    HW294549  11.109  11.419   7.827
64259SOL     OW94550   6.481   4.150   9.380
64259SOL    HW194551   6.388   4.170   9.371
64259SOL    HW294552   6.484   4.074   9.438
64260SOL     OW94553   2.468  10.642   4.815
64260SOL    HW194554   2.533  10.652   4.745
64260SOL    HW294555   2.424  10.727   4.819
64261SOL     OW94556   3.578  10.151   7.452
64261SOL    HW194557   3.496  10.130   7.407
64261SOL    HW294558   3.597  10.241   7.426
64262SOL     OW94559  12.285  10.282  11.703
64262SOL    HW194560  12.288  10.285  11.608
64262SOL    HW294561  12.371  10.314  11.731
64263SOL     OW94562   4.927   8.475   0.232
64263SOL    HW194563   4.893   8.506   0.148
64263SOL    HW294564   4.997   8.414   0.209
64264SOL     OW94565   4.596  14.359  12.958
64264SOL    HW194566   4.513  14.313  12.943
64264SOL    HW294567   4.661  14.308  12.911
64265SOL     OW94568  12.135   2.122   3.319
64265SOL    HW194569  12.131   2.166   3.404
64265SOL    HW294570  12.043   2.107   3.296
64266SOL     OW94571   8.546  12.810  12.780
64266SOL    HW194572   8.593  12.740  12.736
64266SOL    HW294573   8.594  12.890  12.757
64267SOL     OW94574  11.247   0.286  12.608
64267SOL    HW194575  11.253   0.224  12.680
64267SOL    HW294576  11.326   0.340  12.616
64268SOL     OW94577   4.863   4.257  11.391
64268SOL    HW194578   4.840   4.308  11.313
64268SOL    HW294579   4.835   4.313  11.464
64269SOL     OW94580   7.512  12.631  11.636
64269SOL    HW194581   7.583  12.570  11.618
64269SOL    HW294582   7.468  12.643  11.552
64270SOL     OW94583   6.037   9.405   3.321
64270SOL    HW194584   5.961   9.451   3.287
64270SOL    HW294585   6.105   9.472   3.329
64271SOL     OW94586  14.459   7.721  10.807
64271SOL    HW194587  14.450   7.700  10.900
64271SOL    HW294588  14.534   7.669  10.778
64272SOL     OW94589  12.960  13.920   5.077
64272SOL    HW194590  12.943  13.969   4.996
64272SOL    HW294591  12.932  13.830   5.057
64273SOL     OW94592   9.209   5.443   9.816
64273SOL    HW194593   9.155   5.500   9.871
64273SOL    HW294594   9.298   5.477   9.825
64274SOL     OW94595   3.714   6.564   2.964
64274SOL    HW194596   3.785   6.533   3.021
64274SOL    HW294597   3.646   6.595   3.024
64275SOL     OW94598   8.854  11.785   0.064
64275SOL    HW194599   8.867  11.875   0.094
64275SOL    HW294600   8.901  11.732   0.128
64276SOL     OW94601  13.474   8.499   1.489
64276SOL    HW194602  13.410   8.565   1.516
64276SOL    HW294603  13.484   8.443   1.566
64277SOL     OW94604   1.637   0.601   2.669
64277SOL    HW194605   1.685   0.519   2.662
64277SOL    HW294606   1.678   0.659   2.605
64278SOL     OW94607   4.478   3.834   6.456
64278SOL    HW194608   4.439   3.921   6.449
64278SOL    HW294609   4.452   3.802   6.542
64279SOL     OW94610  11.595  12.343   8.476
64279SOL    HW194611  11.616  12.365   8.567
64279SOL    HW294612  11.616  12.422   8.427
64280SOL     OW94613   3.051   7.784  10.336
64280SOL    HW194614   3.104   7.862  10.319
64280SOL    HW294615   2.960   7.814  10.328
64281SOL     OW94616   9.867   6.152   2.047
64281SOL    HW194617   9.887   6.060   2.061
64281SOL    HW294618   9.842   6.185   2.133
64282SOL     OW94619   4.219   6.333   7.052
64282SOL    HW194620   4.292   6.270   7.053
64282SOL    HW294621   4.151   6.291   7.104
64283SOL     OW94622   9.469   6.967   0.492
64283SOL    HW194623   9.390   6.962   0.438
64283SOL    HW294624   9.498   7.058   0.484
64284SOL     OW94625   0.511   9.857   5.492
64284SOL    HW194626   0.480   9.947   5.481
64284SOL    HW294627   0.561   9.839   5.412
64285SOL     OW94628  14.500   5.161   5.396
64285SOL    HW194629  14.568   5.170   5.462
64285SOL    HW294630  14.522   5.226   5.329
64286SOL     OW94631   6.631  14.565   5.214
64286SOL    HW194632   6.589  14.638   5.167
64286SOL    HW294633   6.698  14.533   5.153
64287SOL     OW94634  14.671  11.974   6.271
64287SOL    HW194635  14.682  11.924   6.352
64287SOL    HW294636  14.649  11.908   6.205
64288SOL     OW94637   3.702  11.582   0.315
64288SOL    HW194638   3.673  11.628   0.236
64288SOL    HW294639   3.621  11.561   0.361
64289SOL     OW94640   5.566   3.094   7.550
64289SOL    HW194641   5.521   3.178   7.557
64289SOL    HW294642   5.653   3.116   7.516
64290SOL     OW94643   7.959   1.811  13.028
64290SOL    HW194644   7.995   1.808  12.939
64290SOL    HW294645   8.026   1.854  13.080
64291SOL     OW94646  12.320   6.116   9.373
64291SOL    HW194647  12.377   6.185   9.407
64291SOL    HW294648  12.371   6.078   9.301
64292SOL     OW94649   5.401   3.671  12.155
64292SOL    HW194650   5.493   3.687  12.175
64292SOL    HW294651   5.354   3.703  12.232
64293SOL     OW94652   5.196   7.996   8.991
64293SOL    HW194653   5.230   8.026   8.907
64293SOL    HW294654   5.232   7.908   9.001
64294SOL     OW94655  14.632  12.379   5.850
64294SOL    HW194656  14.655  12.287   5.838
64294SOL    HW294657  14.539  12.384   5.830
64295SOL     OW94658   0.819  13.478   0.296
64295SOL    HW194659   0.903  13.433   0.285
64295SOL    HW294660   0.811  13.532   0.217
64296SOL     OW94661  12.640   7.500   2.150
64296SOL    HW194662  12.568   7.444   2.179
64296SOL    HW294663  12.687   7.523   2.230
64297SOL     OW94664   5.507  13.305  10.161
64297SOL    HW194665   5.558  13.361  10.103
64297SOL    HW294666   5.473  13.236  10.103
64298SOL     OW94667  11.743   7.132   1.223
64298SOL    HW194668  11.825   7.112   1.178
64298SOL    HW294669  11.737   7.067   1.293
64299SOL     OW94670  11.453   5.039  13.599
64299SOL    HW194671  11.439   4.957  13.647
64299SOL    HW294672  11.366   5.077  13.590
64300SOL     OW94673   7.455  14.055  10.732
64300SOL    HW194674   7.529  14.091  10.781
64300SOL    HW294675   7.429  13.978  10.782
64301SOL     OW94676   6.972  10.561   7.281
64301SOL    HW194677   6.954  10.619   7.355
64301SOL    HW294678   7.010  10.483   7.321
64302SOL     OW94679   1.671   2.826   5.739
64302SOL    HW194680   1.673   2.827   5.835
64302SOL    HW294681   1.747   2.774   5.714
64303SOL     OW94682  11.352   6.318  10.518
64303SOL    HW194683  11.330   6.319  10.424
64303SOL    HW294684  11.296   6.250  10.555
64304SOL     OW94685   9.247   6.213   0.784
64304SOL    HW194686   9.219   6.153   0.853
64304SOL    HW294687   9.342   6.218   0.792
64305SOL     OW94688   8.353   3.307   0.695
64305SOL    HW194689   8.433   3.288   0.647
64305SOL    HW294690   8.346   3.402   0.694
64306SOL     OW94691   2.953   5.225  10.358
64306SOL    HW194692   2.975   5.287  10.288
64306SOL    HW294693   2.877   5.265  10.402
64307SOL     OW94694   9.000   4.214   9.152
64307SOL    HW194695   8.981   4.288   9.095
64307SOL    HW294696   8.923   4.207   9.208
64308SOL     OW94697   4.988   1.985  14.505
64308SOL    HW194698   4.900   2.011  14.531
64308SOL    HW294699   5.021   1.935  14.579
64309SOL     OW94700  11.489  14.687   1.433
64309SOL    HW194701  11.549  14.759   1.451
64309SOL    HW294702  11.503  14.625   1.505
64310SOL     OW94703   0.051  10.502   2.330
64310SOL    HW194704   0.125  10.468   2.381
64310SOL    HW294705   0.018  10.576   2.382
64311SOL     OW94706  14.670   1.606   0.945
64311SOL    HW194707  14.750   1.650   0.974
64311SOL    HW294708  14.643   1.653   0.866
64312SOL     OW94709   9.505  13.488  12.449
64312SOL    HW194710   9.595  13.468  12.423
64312SOL    HW294711   9.507  13.487  12.544
64313SOL     OW94712   6.616   0.230  12.836
64313SOL    HW194713   6.675   0.161  12.807
64313SOL    HW294714   6.581   0.267  12.756
64314SOL     OW94715   1.413   1.021   1.685
64314SOL    HW194716   1.380   1.109   1.669
64314SOL    HW294717   1.404   0.976   1.601
64315SOL     OW94718  11.764   7.501   8.122
64315SOL    HW194719  11.753   7.552   8.042
64315SOL    HW294720  11.727   7.415   8.102
64316SOL     OW94721  11.856  11.043   2.981
64316SOL    HW194722  11.907  11.117   3.015
64316SOL    HW294723  11.837  10.990   3.059
64317SOL     OW94724   5.596   7.259  14.471
64317SOL    HW194725   5.646   7.291  14.546
64317SOL    HW294726   5.506   7.252  14.504
64318SOL     OW94727   4.535  13.029   3.732
64318SOL    HW194728   4.603  13.088   3.766
64318SOL    HW294729   4.562  12.942   3.759
64319SOL     OW94730  14.070   1.662   2.745
64319SOL    HW194731  14.144   1.723   2.748
64319SOL    HW294732  14.075   1.623   2.658
64320SOL     OW94733   6.402   4.734   0.909
64320SOL    HW194734   6.410   4.697   0.821
64320SOL    HW294735   6.474   4.695   0.959
64321SOL     OW94736   5.084   1.588   2.835
64321SOL    HW194737   5.113   1.666   2.883
64321SOL    HW294738   5.046   1.623   2.755
64322SOL     OW94739   2.682  12.131  12.528
64322SOL    HW194740   2.633  12.097  12.453
64322SOL    HW294741   2.617  12.181  12.578
64323SOL     OW94742   5.724   9.743   1.850
64323SOL    HW194743   5.686   9.777   1.770
64323SOL    HW294744   5.663   9.674   1.878
64324SOL     OW94745   9.082   2.710   9.900
64324SOL    HW194746   9.105   2.657   9.823
64324SOL    HW294747   9.045   2.648   9.962
64325SOL     OW94748   5.838   4.954  14.151
64325SOL    HW194749   5.867   5.041  14.123
64325SOL    HW294750   5.759   4.971  14.202
64326SOL     OW94751   2.001   7.361   3.717
64326SOL    HW194752   1.993   7.457   3.715
64326SOL    HW294753   1.972   7.333   3.630
64327SOL     OW94754   4.401  12.334  14.123
64327SOL    HW194755   4.378  12.427  14.121
64327SOL    HW294756   4.331  12.293  14.174
64328SOL     OW94757   9.675   6.185  11.447
64328SOL    HW194758   9.653   6.098  11.412
64328SOL    HW294759   9.698   6.236  11.369
64329SOL     OW94760   5.928   0.451   4.898
64329SOL    HW194761   5.967   0.368   4.927
64329SOL    HW294762   5.957   0.460   4.807
64330SOL     OW94763   6.908  13.881   0.905
64330SOL    HW194764   6.921  13.859   0.997
64330SOL    HW294765   6.855  13.809   0.871
64331SOL     OW94766  11.146  10.833   9.672
64331SOL    HW194767  11.059  10.816   9.708
64331SOL    HW294768  11.198  10.756   9.698
64332SOL     OW94769  12.746   1.911   1.903
64332SOL    HW194770  12.787   1.825   1.896
64332SOL    HW294771  12.819   1.972   1.913
64333SOL     OW94772  12.777   1.030   4.826
64333SOL    HW194773  12.819   0.957   4.872
64333SOL    HW294774  12.697   0.992   4.789
64334SOL     OW94775  12.739  10.522   8.119
64334SOL    HW194776  12.756  10.478   8.202
64334SOL    HW294777  12.755  10.455   8.052
64335SOL     OW94778   3.252   1.743   9.589
64335SOL    HW194779   3.275   1.671   9.530
64335SOL    HW294780   3.306   1.816   9.560
64336SOL     OW94781   6.574  12.283  11.140
64336SOL    HW194782   6.486  12.298  11.175
64336SOL    HW294783   6.577  12.189  11.121
64337SOL     OW94784  12.686   0.668  12.095
64337SOL    HW194785  12.640   0.639  12.016
64337SOL    HW294786  12.689   0.590  12.151
64338SOL     OW94787   6.715   1.401  10.460
64338SOL    HW194788   6.781   1.335  10.441
64338SOL    HW294789   6.655   1.398  10.385
64339SOL     OW94790   6.675   5.334   9.677
64339SOL    HW194791   6.616   5.278   9.727
64339SOL    HW294792   6.677   5.416   9.726
64340SOL     OW94793   7.414   3.543   7.006
64340SOL    HW194794   7.377   3.465   7.048
64340SOL    HW294795   7.339   3.583   6.961
64341SOL     OW94796   6.765   0.058  12.666
64341SOL    HW194797   6.720  14.861  12.706
64341SOL    HW294798   6.856   0.029  12.657
64342SOL     OW94799   6.079  10.134   3.546
64342SOL    HW194800   6.039  10.131   3.632
64342SOL    HW294801   6.029  10.201   3.498
64343SOL     OW94802   0.807   3.525   8.752
64343SOL    HW194803   0.783   3.612   8.721
64343SOL    HW294804   0.902   3.523   8.750
64344SOL     OW94805  13.939   6.294   1.336
64344SOL    HW194806  13.939   6.243   1.417
64344SOL    HW294807  13.876   6.364   1.352
64345SOL     OW94808   5.358   6.839   1.020
64345SOL    HW194809   5.325   6.749   1.015
64345SOL    HW294810   5.385   6.850   1.111
64346SOL     OW94811   3.423  14.441   8.140
64346SOL    HW194812   3.419  14.515   8.079
64346SOL    HW294813   3.517  14.419   8.144
64347SOL     OW94814  10.679   7.608   4.887
64347SOL    HW194815  10.764   7.649   4.902
64347SOL    HW294816  10.700   7.515   4.878
64348SOL     OW94817   4.632   3.813   0.084
64348SOL    HW194818   4.606   3.905   0.083
64348SOL    HW294819   4.699   3.807   0.151
64349SOL     OW94820   3.457   1.648  10.691
64349SOL    HW194821   3.527   1.610  10.744
64349SOL    HW294822   3.376   1.618  10.732
64350SOL     OW94823   3.269  11.191   9.845
64350SOL    HW194824   3.197  11.130   9.828
64350SOL    HW294825   3.228  11.278   9.842
64351SOL     OW94826   9.911   3.206  11.801
64351SOL    HW194827   9.890   3.299  11.815
64351SOL    HW294828   9.825   3.163  11.802
64352SOL     OW94829   0.792   4.524   4.453
64352SOL    HW194830   0.746   4.588   4.398
64352SOL    HW294831   0.884   4.532   4.428
64353SOL     OW94832   6.190   9.563   1.002
64353SOL    HW194833   6.274   9.571   0.957
64353SOL    HW294834   6.213   9.532   1.090
64354SOL     OW94835  11.443   9.722  12.264
64354SOL    HW194836  11.508   9.731  12.195
64354SOL    HW294837  11.405   9.810  12.272
64355SOL     OW94838  11.134  13.295  11.918
64355SOL    HW194839  11.227  13.281  11.906
64355SOL    HW294840  11.098  13.207  11.935
64356SOL     OW94841  12.015   5.655   5.310
64356SOL    HW194842  12.054   5.706   5.381
64356SOL    HW294843  11.935   5.702   5.288
64357SOL     OW94844   1.638   8.787  12.108
64357SOL    HW194845   1.636   8.692  12.102
64357SOL    HW294846   1.580   8.808  12.181
64358SOL     OW94847   3.292  10.094  11.361
64358SOL    HW194848   3.289  10.185  11.331
64358SOL    HW294849   3.307  10.044  11.281
64359SOL     OW94850  11.935   2.968  13.277
64359SOL    HW194851  11.956   3.054  13.313
64359SOL    HW294852  11.964   2.906  13.344
64360SOL     OW94853   5.763   1.587   0.078
64360SOL    HW194854   5.774   1.618  14.866
64360SOL    HW294855   5.766   1.492   0.071
64361SOL     OW94856   0.608   8.045   2.571
64361SOL    HW194857   0.530   8.037   2.517
64361SOL    HW294858   0.596   8.128   2.618
64362SOL     OW94859   5.437  12.186   6.157
64362SOL    HW194860   5.384  12.106   6.159
64362SOL    HW294861   5.527  12.154   6.142
64363SOL     OW94862   2.601  11.797  14.483
64363SOL    HW194863   2.530  11.756  14.533
64363SOL    HW294864   2.582  11.775  14.392
64364SOL     OW94865  14.689   8.148   4.568
64364SOL    HW194866  14.648   8.218   4.516
64364SOL    HW294867  14.636   8.071   4.549
64365SOL     OW94868   5.274  14.718   2.483
64365SOL    HW194869   5.201  14.774   2.508
64365SOL    HW294870   5.280  14.728   2.388
64366SOL     OW94871  13.840  12.012   1.600
64366SOL    HW194872  13.913  12.066   1.569
64366SOL    HW294873  13.854  11.926   1.560
64367SOL     OW94874   4.852   8.457   7.104
64367SOL    HW194875   4.794   8.509   7.049
64367SOL    HW294876   4.795   8.426   7.176
64368SOL     OW94877   3.242   7.632  13.549
64368SOL    HW194878   3.192   7.550  13.549
64368SOL    HW294879   3.244   7.658  13.641
64369SOL     OW94880   7.995  11.218   3.193
64369SOL    HW194881   7.942  11.180   3.263
64369SOL    HW294882   7.937  11.282   3.151
64370SOL     OW94883   7.410  14.843  10.552
64370SOL    HW194884   7.375  14.821  10.638
64370SOL    HW294885   7.466   0.042  10.568
64371SOL     OW94886   1.534  11.367   6.607
64371SOL    HW194887   1.472  11.392   6.538
64371SOL    HW294888   1.612  11.418   6.590
64372SOL     OW94889  11.299   0.848   3.527
64372SOL    HW194890  11.264   0.765   3.558
64372SOL    HW294891  11.362   0.824   3.459
64373SOL     OW94892  11.969   3.803   6.893
64373SOL    HW194893  11.981   3.898   6.889
64373SOL    HW294894  11.877   3.789   6.870
64374SOL     OW94895  12.643   6.715   5.071
64374SOL    HW194896  12.674   6.734   5.159
64374SOL    HW294897  12.705   6.650   5.037
64375SOL     OW94898   2.573  12.707   3.266
64375SOL    HW194899   2.571  12.759   3.346
64375SOL    HW294900   2.564  12.771   3.195
64376SOL     OW94901   1.387   1.543   6.632
64376SOL    HW194902   1.380   1.559   6.537
64376SOL    HW294903   1.297   1.549   6.664
64377SOL     OW94904  13.911   4.201   0.895
64377SOL    HW194905  13.882   4.118   0.932
64377SOL    HW294906  13.971   4.176   0.824
64378SOL     OW94907   9.883   4.864  12.001
64378SOL    HW194908   9.959   4.810  11.980
64378SOL    HW294909   9.837   4.814  12.068
64379SOL     OW94910  10.474  10.604   9.553
64379SOL    HW194911  10.431  10.590   9.638
64379SOL    HW294912  10.559  10.643   9.575
64380SOL     OW94913  12.438   5.820  10.474
64380SOL    HW194914  12.432   5.860  10.561
64380SOL    HW294915  12.373   5.867  10.422
64381SOL     OW94916   5.111  13.818  13.688
64381SOL    HW194917   5.160  13.842  13.609
64381SOL    HW294918   5.178  13.793  13.751
64382SOL     OW94919   8.218   1.559  12.393
64382SOL    HW194920   8.226   1.608  12.312
64382SOL    HW294921   8.298   1.580  12.442
64383SOL     OW94922   8.387   1.428   0.829
64383SOL    HW194923   8.303   1.385   0.843
64383SOL    HW294924   8.399   1.427   0.734
64384SOL     OW94925   0.682   2.063  14.863
64384SOL    HW194926   0.615   2.069  14.795
64384SOL    HW294927   0.709   2.153   0.001
64385SOL     OW94928   2.970   0.381  10.065
64385SOL    HW194929   3.015   0.445  10.010
64385SOL    HW294930   3.037   0.350  10.126
64386SOL     OW94931  14.264   0.214  11.694
64386SOL    HW194932  14.334   0.173  11.746
64386SOL    HW294933  14.266   0.166  11.611
64387SOL     OW94934  12.591   0.511   5.886
64387SOL    HW194935  12.671   0.545   5.845
64387SOL    HW294936  12.521   0.564   5.847
64388SOL     OW94937  12.811   5.713   7.988
64388SOL    HW194938  12.786   5.650   7.921
64388SOL    HW294939  12.853   5.660   8.057
64389SOL     OW94940   8.314   7.695   1.705
64389SOL    HW194941   8.249   7.677   1.637
64389SOL    HW294942   8.267   7.750   1.768
64390SOL     OW94943   9.349  12.360   0.684
64390SOL    HW194944   9.274  12.301   0.691
64390SOL    HW294945   9.418  12.318   0.736
64391SOL     OW94946   6.137   1.254   4.573
64391SOL    HW194947   6.069   1.207   4.622
64391SOL    HW294948   6.158   1.196   4.500
64392SOL     OW94949   8.369   3.779   3.190
64392SOL    HW194950   8.320   3.702   3.220
64392SOL    HW294951   8.364   3.841   3.262
64393SOL     OW94952   4.712   6.440   5.837
64393SOL    HW194953   4.774   6.367   5.831
64393SOL    HW294954   4.626   6.399   5.844
64394SOL     OW94955  13.461  14.706   6.397
64394SOL    HW194956  13.430  14.784   6.351
64394SOL    HW294957  13.389  14.643   6.389
64395SOL     OW94958  10.725  13.683  13.454
64395SOL    HW194959  10.671  13.617  13.411
64395SOL    HW294960  10.684  13.697  13.539
64396SOL     OW94961  12.149  11.807   4.608
64396SOL    HW194962  12.125  11.792   4.700
64396SOL    HW294963  12.236  11.767   4.599
64397SOL     OW94964  11.224  14.202  12.280
64397SOL    HW194965  11.177  14.137  12.332
64397SOL    HW294966  11.306  14.159  12.255
64398SOL     OW94967   6.810   5.342  11.757
64398SOL    HW194968   6.847   5.427  11.784
64398SOL    HW294969   6.840   5.281  11.825
64399SOL     OW94970   0.348  12.556  11.844
64399SOL    HW194971   0.296  12.603  11.779
64399SOL    HW294972   0.375  12.476  11.800
64400SOL     OW94973  14.119   2.102  14.631
64400SOL    HW194974  14.057   2.174  14.621
64400SOL    HW294975  14.186   2.136  14.690
64401SOL     OW94976   6.948   7.830   8.287
64401SOL    HW194977   6.936   7.744   8.327
64401SOL    HW294978   6.997   7.813   8.207
64402SOL     OW94979  14.376   2.928   3.612
64402SOL    HW194980  14.403   2.965   3.696
64402SOL    HW294981  14.457   2.891   3.575
64403SOL     OW94982   4.911   7.728  14.686
64403SOL    HW194983   4.895   7.681  14.768
64403SOL    HW294984   4.985   7.786  14.705
64404SOL     OW94985   3.849   6.141  10.440
64404SOL    HW194986   3.892   6.204  10.498
64404SOL    HW294987   3.760   6.134  10.473
64405SOL     OW94988   2.787   2.164   4.796
64405SOL    HW194989   2.785   2.260   4.793
64405SOL    HW294990   2.867   2.140   4.750
64406SOL     OW94991   2.717   7.161  11.360
64406SOL    HW194992   2.730   7.123  11.274
64406SOL    HW294993   2.704   7.254  11.344
64407SOL     OW94994   7.794  10.593   7.893
64407SOL    HW194995   7.717  10.648   7.876
64407SOL    HW294996   7.868  10.655   7.892
64408SOL     OW94997  10.342   3.352  13.103
64408SOL    HW194998  10.359   3.278  13.161
64408SOL    HW294999  10.362   3.319  13.015
64409SOL     OW95000  11.403  10.719   5.309
64409SOL    HW195001  11.358  10.711   5.225
64409SOL    HW295002  11.443  10.634   5.324
64410SOL     OW95003   3.307   5.276   8.659
64410SOL    HW195004   3.366   5.312   8.725
64410SOL    HW295005   3.342   5.308   8.576
64411SOL     OW95006  12.807  12.315   3.004
64411SOL    HW195007  12.837  12.389   2.951
64411SOL    HW295008  12.717  12.300   2.975
64412SOL     OW95009   6.060   4.436   0.690
64412SOL    HW195010   5.986   4.379   0.668
64412SOL    HW295011   6.129   4.409   0.628
64413SOL     OW95012   9.032   2.950   7.298
64413SOL    HW195013   9.065   3.000   7.373
64413SOL    HW295014   8.971   3.010   7.254
64414SOL     OW95015   4.069   6.970   0.668
64414SOL    HW195016   4.055   6.983   0.761
64414SOL    HW295017   4.138   7.032   0.645
64415SOL     OW95018   1.756   6.572  13.952
64415SOL    HW195019   1.849   6.557  13.971
64415SOL    HW295020   1.747   6.667  13.950
64416SOL     OW95021  11.318   2.394  12.279
64416SOL    HW195022  11.348   2.398  12.189
64416SOL    HW295023  11.374   2.329  12.321
64417SOL     OW95024   2.913  12.817   6.510
64417SOL    HW195025   2.989  12.849   6.463
64417SOL    HW295026   2.947  12.747   6.566
64418SOL     OW95027   1.044  10.400   2.886
64418SOL    HW195028   1.075  10.322   2.933
64418SOL    HW295029   1.004  10.454   2.954
64419SOL     OW95030   8.863  14.780   9.647
64419SOL    HW195031   8.800  14.778   9.576
64419SOL    HW295032   8.884  14.688   9.663
64420SOL     OW95033   3.171   3.713   8.423
64420SOL    HW195034   3.108   3.661   8.472
64420SOL    HW295035   3.244   3.726   8.483
64421SOL     OW95036   7.048  10.781   9.007
64421SOL    HW195037   7.116  10.727   9.046
64421SOL    HW295038   7.028  10.847   9.074
64422SOL     OW95039   9.668   4.452   1.850
64422SOL    HW195040   9.610   4.527   1.835
64422SOL    HW295041   9.632   4.382   1.795
64423SOL     OW95042  13.297   2.988  12.234
64423SOL    HW195043  13.270   3.071  12.196
64423SOL    HW295044  13.387   2.976  12.205
64424SOL     OW95045   7.671   3.307  13.048
64424SOL    HW195046   7.734   3.243  13.081
64424SOL    HW295047   7.589   3.259  13.042
64425SOL     OW95048   3.558   1.370   4.191
64425SOL    HW195049   3.470   1.406   4.187
64425SOL    HW295050   3.557   1.313   4.268
64426SOL     OW95051   7.138   7.832  13.018
64426SOL    HW195052   7.191   7.910  13.003
64426SOL    HW295053   7.125   7.794  12.931
64427SOL     OW95054   3.746   7.231  10.016
64427SOL    HW195055   3.799   7.306   9.988
64427SOL    HW295056   3.672   7.269  10.062
64428SOL     OW95057   2.174   2.110   7.552
64428SOL    HW195058   2.132   2.192   7.580
64428SOL    HW295059   2.262   2.136   7.525
64429SOL     OW95060   3.564  13.004  13.404
64429SOL    HW195061   3.569  13.060  13.327
64429SOL    HW295062   3.630  13.039  13.464
64430SOL     OW95063   8.084   3.290   2.444
64430SOL    HW195064   7.994   3.260   2.433
64430SOL    HW295065   8.134   3.240   2.380
64431SOL     OW95066   9.295   6.203  11.489
64431SOL    HW195067   9.368   6.223  11.431
64431SOL    HW295068   9.333   6.206  11.577
64432SOL     OW95069  14.137   0.483   5.112
64432SOL    HW195070  14.054   0.508   5.153
64432SOL    HW295071  14.112   0.453   5.024
64433SOL     OW95072   5.632  11.741   5.357
64433SOL    HW195073   5.680  11.779   5.283
64433SOL    HW295074   5.549  11.712   5.319
64434SOL     OW95075   0.741   1.542   0.150
64434SOL    HW195076   0.736   1.446   0.152
64434SOL    HW295077   0.778   1.566   0.235
64435SOL     OW95078   0.442   4.041   3.825
64435SOL    HW195079   0.355   4.075   3.804
64435SOL    HW295080   0.467   4.086   3.905
64436SOL     OW95081   8.106  13.533  10.553
64436SOL    HW195082   8.162  13.609  10.542
64436SOL    HW295083   8.160  13.459  10.525
64437SOL     OW95084   3.542  10.585   5.884
64437SOL    HW195085   3.501  10.526   5.948
64437SOL    HW295086   3.474  10.649   5.863
64438SOL     OW95087   6.417   5.173   0.161
64438SOL    HW195088   6.510   5.195   0.153
64438SOL    HW295089   6.406   5.150   0.253
64439SOL     OW95090  13.848   6.018  12.043
64439SOL    HW195091  13.806   5.969  11.973
64439SOL    HW295092  13.777   6.040  12.104
64440SOL     OW95093   7.450   5.909   4.986
64440SOL    HW195094   7.373   5.877   5.033
64440SOL    HW295095   7.513   5.837   4.991
64441SOL     OW95096   8.712   3.210  11.799
64441SOL    HW195097   8.691   3.273  11.730
64441SOL    HW295098   8.658   3.238  11.873
64442SOL     OW95099  13.485   0.183  12.481
64442SOL    HW195100  13.421   0.249  12.455
64442SOL    HW295101  13.444   0.100  12.459
64443SOL     OW95102   5.872   8.761  12.041
64443SOL    HW195103   5.846   8.810  11.962
64443SOL    HW295104   5.866   8.669  12.015
64444SOL     OW95105  11.886   7.779   6.880
64444SOL    HW195106  11.924   7.733   6.805
64444SOL    HW295107  11.913   7.870   6.868
64445SOL     OW95108   5.986   0.055   0.711
64445SOL    HW195109   5.967  14.839   0.711
64445SOL    HW295110   6.062   0.064   0.767
64446SOL     OW95111   0.099   7.546  10.485
64446SOL    HW195112   0.019   7.527  10.437
64446SOL    HW295113   0.101   7.642  10.489
64447SOL     OW95114  11.819   6.209  10.845
64447SOL    HW195115  11.799   6.243  10.758
64447SOL    HW295116  11.734   6.205  10.889
64448SOL     OW95117  11.950   7.222   5.113
64448SOL    HW195118  11.871   7.169   5.109
64448SOL    HW295119  11.943   7.269   5.196
64449SOL     OW95120   6.868  13.766  11.277
64449SOL    HW195121   6.892  13.851  11.242
64449SOL    HW295122   6.898  13.768  11.368
64450SOL     OW95123   0.169   2.417   9.556
64450SOL    HW195124   0.117   2.369   9.492
64450SOL    HW295125   0.247   2.362   9.569
64451SOL     OW95126   2.154   3.005   3.291
64451SOL    HW195127   2.222   3.010   3.223
64451SOL    HW295128   2.189   2.944   3.356
64452SOL     OW95129   3.546   2.553  10.650
64452SOL    HW195130   3.559   2.461  10.627
64452SOL    HW295131   3.576   2.560  10.740
64453SOL     OW95132  13.745   3.421  12.916
64453SOL    HW195133  13.670   3.385  12.963
64453SOL    HW295134  13.719   3.419  12.824
64454SOL     OW95135   9.188   7.507   4.843
64454SOL    HW195136   9.206   7.418   4.813
64454SOL    HW295137   9.191   7.502   4.938
64455SOL     OW95138   8.453   8.415   4.698
64455SOL    HW195139   8.451   8.389   4.790
64455SOL    HW295140   8.539   8.386   4.667
64456SOL     OW95141  13.815   8.123   8.514
64456SOL    HW195142  13.827   8.184   8.441
64456SOL    HW295143  13.721   8.109   8.519
64457SOL     OW95144  11.848   4.852  10.837
64457SOL    HW195145  11.856   4.919  10.905
64457SOL    HW295146  11.927   4.799  10.847
64458SOL     OW95147   6.253   4.793   7.631
64458SOL    HW195148   6.343   4.760   7.623
64458SOL    HW295149   6.230   4.779   7.722
64459SOL     OW95150   9.566   5.525   9.083
64459SOL    HW195151   9.489   5.475   9.055
64459SOL    HW295152   9.531   5.592   9.141
64460SOL     OW95153   4.036   2.558   9.253
64460SOL    HW195154   3.973   2.492   9.226
64460SOL    HW295155   4.121   2.520   9.232
64461SOL     OW95156   1.922   6.334   9.347
64461SOL    HW195157   2.005   6.322   9.301
64461SOL    HW295158   1.858   6.287   9.294
64462SOL     OW95159   4.190   7.580   9.718
64462SOL    HW195160   4.248   7.617   9.651
64462SOL    HW295161   4.218   7.620   9.800
64463SOL     OW95162   0.585  13.335   4.775
64463SOL    HW195163   0.651  13.279   4.815
64463SOL    HW295164   0.593  13.319   4.681
64464SOL     OW95165   2.801   3.190   8.685
64464SOL    HW195166   2.811   3.147   8.770
64464SOL    HW295167   2.728   3.144   8.643
64465SOL     OW95168  10.174  10.054  10.954
64465SOL    HW195169  10.178  10.021  10.864
64465SOL    HW295170  10.214   9.985  11.007
64466SOL     OW95171   2.700   6.307   6.175
64466SOL    HW195172   2.782   6.259   6.180
64466SOL    HW295173   2.649   6.276   6.250
64467SOL     OW95174  11.954   8.175   6.076
64467SOL    HW195175  12.011   8.250   6.093
64467SOL    HW295176  11.979   8.112   6.144
64468SOL     OW95177   2.440   2.349   4.987
64468SOL    HW195178   2.506   2.282   4.966
64468SOL    HW295179   2.375   2.340   4.918
64469SOL     OW95180   3.792   2.158  12.974
64469SOL    HW195181   3.791   2.095  12.902
64469SOL    HW295182   3.879   2.198  12.969
64470SOL     OW95183   3.049   8.122  13.958
64470SOL    HW195184   2.975   8.096  13.903
64470SOL    HW295185   3.061   8.049  14.019
64471SOL     OW95186  10.662   3.983   5.033
64471SOL    HW195187  10.586   4.033   5.005
64471SOL    HW295188  10.713   4.045   5.085
64472SOL     OW95189  13.937   2.553   8.446
64472SOL    HW195190  13.926   2.506   8.363
64472SOL    HW295191  13.970   2.487   8.507
64473SOL     OW95192  12.941  11.431  13.824
64473SOL    HW195193  12.908  11.496  13.762
64473SOL    HW295194  12.959  11.480  13.904
64474SOL     OW95195   8.048  10.535   1.781
64474SOL    HW195196   8.056  10.582   1.864
64474SOL    HW295197   8.027  10.603   1.717
64475SOL     OW95198  10.711   1.941   5.579
64475SOL    HW195199  10.787   1.989   5.545
64475SOL    HW295200  10.672   1.900   5.503
64476SOL     OW95201  13.356  13.607   1.118
64476SOL    HW195202  13.383  13.633   1.030
64476SOL    HW295203  13.293  13.674   1.145
64477SOL     OW95204  10.620  12.545   4.227
64477SOL    HW195205  10.620  12.572   4.319
64477SOL    HW295206  10.536  12.500   4.216
64478SOL     OW95207   4.449   7.302   4.073
64478SOL    HW195208   4.386   7.241   4.112
64478SOL    HW295209   4.397   7.356   4.014
64479SOL     OW95210  10.941  14.323   1.531
64479SOL    HW195211  10.853  14.290   1.516
64479SOL    HW295212  10.959  14.305   1.623
64480SOL     OW95213   2.995  13.445   3.333
64480SOL    HW195214   2.934  13.502   3.288
64480SOL    HW295215   3.007  13.371   3.274
64481SOL     OW95216  11.241   5.579   9.766
64481SOL    HW195217  11.282   5.546   9.686
64481SOL    HW295218  11.267   5.671   9.771
64482SOL     OW95219  13.336   5.482   8.041
64482SOL    HW195220  13.366   5.526   8.121
64482SOL    HW295221  13.416   5.470   7.989
64483SOL     OW95222   7.721  11.222  14.605
64483SOL    HW195223   7.713  11.309  14.645
64483SOL    HW295224   7.636  11.182  14.621
64484SOL     OW95225  11.388   7.678  11.088
64484SOL    HW195226  11.399   7.651  10.997
64484SOL    HW295227  11.312   7.628  11.118
64485SOL     OW95228  11.456   9.291   8.672
64485SOL    HW195229  11.448   9.195   8.664
64485SOL    HW295230  11.424   9.324   8.589
64486SOL     OW95231  11.655  11.812   5.490
64486SOL    HW195232  11.638  11.763   5.410
64486SOL    HW295233  11.569  11.821   5.531
64487SOL     OW95234   5.124   5.116   1.630
64487SOL    HW195235   5.141   5.025   1.604
64487SOL    HW295236   5.118   5.113   1.726
64488SOL     OW95237   2.940  10.798   5.391
64488SOL    HW195238   2.938  10.880   5.442
64488SOL    HW295239   2.865  10.748   5.425
64489SOL     OW95240   2.212   3.000   5.151
64489SOL    HW195241   2.237   3.013   5.242
64489SOL    HW295242   2.294   2.981   5.106
64490SOL     OW95243  14.378   4.542   4.127
64490SOL    HW195244  14.441   4.604   4.090
64490SOL    HW295245  14.323   4.516   4.053
64491SOL     OW95246   7.695   5.946  14.670
64491SOL    HW195247   7.681   6.030  14.625
64491SOL    HW295248   7.782   5.955  14.710
64492SOL     OW95249  12.635   5.502   8.998
64492SOL    HW195250  12.568   5.492   9.066
64492SOL    HW295251  12.592   5.552   8.929
64493SOL     OW95252  12.681   6.377   6.101
64493SOL    HW195253  12.728   6.348   6.022
64493SOL    HW295254  12.726   6.457   6.127
64494SOL     OW95255   0.303  11.131  11.557
64494SOL    HW195256   0.315  11.225  11.543
64494SOL    HW295257   0.213  11.114  11.531
64495SOL     OW95258   2.855   9.540   2.347
64495SOL    HW195259   2.943   9.575   2.359
64495SOL    HW295260   2.811   9.553   2.431
64496SOL     OW95261   3.552   8.387  10.270
64496SOL    HW195262   3.601   8.360  10.347
64496SOL    HW295263   3.534   8.480  10.283
64497SOL     OW95264   0.186   4.176  11.410
64497SOL    HW195265   0.118   4.121  11.451
64497SOL    HW295266   0.267   4.152  11.454
64498SOL     OW95267   3.468   6.760  14.414
64498SOL    HW195268   3.406   6.782  14.484
64498SOL    HW295269   3.553   6.762  14.457
64499SOL     OW95270  10.446  13.103   0.513
64499SOL    HW195271  10.437  13.029   0.574
64499SOL    HW295272  10.384  13.083   0.443
64500SOL     OW95273   5.072  14.786   0.820
64500SOL    HW195274   5.111  14.772   0.734
64500SOL    HW295275   4.983  14.817   0.801
64501SOL     OW95276  12.921   4.884   5.392
64501SOL    HW195277  12.855   4.915   5.454
64501SOL    HW295278  12.876   4.816   5.341
64502SOL     OW95279   7.945   4.609   5.362
64502SOL    HW195280   7.965   4.594   5.454
64502SOL    HW295281   7.950   4.704   5.351
64503SOL     OW95282   9.918   2.935   6.340
64503SOL    HW195283   9.934   2.925   6.246
64503SOL    HW295284   9.991   2.890   6.382
64504SOL     OW95285   6.545   0.994  12.676
64504SOL    HW195286   6.519   1.076  12.717
64504SOL    HW295287   6.464   0.945  12.667
64505SOL     OW95288  13.932   8.662  12.935
64505SOL    HW195289  13.972   8.730  12.881
64505SOL    HW295290  14.003   8.603  12.957
64506SOL     OW95291  12.407  13.187   5.366
64506SOL    HW195292  12.415  13.282   5.365
64506SOL    HW295293  12.436  13.161   5.453
64507SOL     OW95294   5.208  10.341   4.918
64507SOL    HW195295   5.125  10.294   4.911
64507SOL    HW295296   5.245  10.311   5.001
64508SOL     OW95297   3.142  10.957   1.741
64508SOL    HW195298   3.097  11.032   1.702
64508SOL    HW295299   3.079  10.920   1.802
64509SOL     OW95300   3.356   8.034   2.161
64509SOL    HW195301   3.341   7.944   2.192
64509SOL    HW295302   3.373   8.025   2.067
64510SOL     OW95303   2.215   4.169  10.861
64510SOL    HW195304   2.138   4.215  10.895
64510SOL    HW295305   2.263   4.141  10.938
64511SOL     OW95306   7.798   7.991   2.177
64511SOL    HW195307   7.710   7.999   2.214
64511SOL    HW295308   7.784   7.979   2.083
64512SOL     OW95309  14.282  11.872   1.812
64512SOL    HW195310  14.254  11.812   1.881
64512SOL    HW295311  14.328  11.942   1.858
64513SOL     OW95312  12.895   2.765   0.134
64513SOL    HW195313  12.921   2.674   0.126
64513SOL    HW295314  12.930   2.793   0.219
64514SOL     OW95315   1.855   7.251  14.281
64514SOL    HW195316   1.940   7.296  14.273
64514SOL    HW295317   1.806   7.303  14.344
64515SOL     OW95318   5.073  12.897   1.868
64515SOL    HW195319   5.093  12.814   1.910
64515SOL    HW295320   4.999  12.932   1.917
64516SOL     OW95321  10.824   4.252   6.789
64516SOL    HW195322  10.743   4.210   6.760
64516SOL    HW295323  10.827   4.236   6.883
64517SOL     OW95324  14.515   1.043  12.003
64517SOL    HW195325  14.449   1.102  12.038
64517SOL    HW295326  14.480   0.955  12.018
64518SOL     OW95327   0.144  14.113  13.059
64518SOL    HW195328   0.238  14.095  13.063
64518SOL    HW295329   0.127  14.171  13.134
64519SOL     OW95330  10.484   0.972   7.756
64519SOL    HW195331  10.557   0.911   7.757
64519SOL    HW295332  10.444   0.960   7.669
64520SOL     OW95333  12.673  12.831  14.759
64520SOL    HW195334  12.707  12.757  14.810
64520SOL    HW295335  12.741  12.898  14.765
64521SOL     OW95336   0.992   3.223   1.677
64521SOL    HW195337   0.996   3.189   1.766
64521SOL    HW295338   0.929   3.294   1.680
64522SOL     OW95339  13.197   3.242   8.141
64522SOL    HW195340  13.272   3.273   8.192
64522SOL    HW295341  13.234   3.178   8.080
64523SOL     OW95342  12.745   5.336   1.975
64523SOL    HW195343  12.723   5.282   1.900
64523SOL    HW295344  12.732   5.426   1.944
64524SOL     OW95345  11.524   0.208  10.948
64524SOL    HW195346  11.590   0.276  10.936
64524SOL    HW295347  11.555   0.135  10.896
64525SOL     OW95348  11.373   8.689   1.511
64525SOL    HW195349  11.388   8.601   1.475
64525SOL    HW295350  11.318   8.674   1.587
64526SOL     OW95351  12.070  10.765   1.894
64526SOL    HW195352  12.056  10.676   1.861
64526SOL    HW295353  12.018  10.820   1.835
64527SOL     OW95354   9.990   4.462   1.459
64527SOL    HW195355  10.061   4.486   1.519
64527SOL    HW295356   9.913   4.509   1.493
64528SOL     OW95357  10.684  10.363   4.541
64528SOL    HW195358  10.597  10.384   4.574
64528SOL    HW295359  10.743  10.385   4.613
64529SOL     OW95360  11.311   1.356   2.925
64529SOL    HW195361  11.233   1.397   2.962
64529SOL    HW295362  11.382   1.380   2.984
64530SOL     OW95363   8.428  10.144   4.226
64530SOL    HW195364   8.460  10.205   4.160
64530SOL    HW295365   8.409  10.199   4.302
64531SOL     OW95366   9.929  10.779   6.380
64531SOL    HW195367   9.842  10.819   6.374
64531SOL    HW295368   9.942  10.738   6.295
64532SOL     OW95369   3.379   5.029   8.475
64532SOL    HW195370   3.432   5.105   8.452
64532SOL    HW295371   3.345   4.997   8.391
64533SOL     OW95372  11.731   0.575   8.503
64533SOL    HW195373  11.638   0.560   8.484
64533SOL    HW295374  11.743   0.669   8.495
64534SOL     OW95375  13.976  14.144   5.436
64534SOL    HW195376  13.996  14.101   5.519
64534SOL    HW295377  13.887  14.114   5.415
64535SOL     OW95378   3.531  14.332  10.875
64535SOL    HW195379   3.491  14.297  10.795
64535SOL    HW295380   3.514  14.265  10.941
64536SOL     OW95381   8.913   4.541   0.590
64536SOL    HW195382   8.934   4.486   0.515
64536SOL    HW295383   8.993   4.590   0.607
64537SOL     OW95384  13.429  13.789   5.212
64537SOL    HW195385  13.471  13.749   5.288
64537SOL    HW295386  13.471  13.874   5.204
64538SOL     OW95387  14.771   4.023  14.037
64538SOL    HW195388  14.810   3.939  14.011
64538SOL    HW295389  14.736   4.058  13.955
64539SOL     OW95390   9.304   8.203   3.024
64539SOL    HW195391   9.250   8.233   2.951
64539SOL    HW295392   9.241   8.166   3.086
64540SOL     OW95393   1.458   6.362   2.313
64540SOL    HW195394   1.541   6.336   2.273
64540SOL    HW295395   1.409   6.280   2.321
64541SOL     OW95396   7.451   7.817   7.417
64541SOL    HW195397   7.470   7.725   7.395
64541SOL    HW295398   7.413   7.853   7.337
64542SOL     OW95399   1.022  12.553  14.222
64542SOL    HW195400   1.005  12.561  14.316
64542SOL    HW295401   0.958  12.489  14.191
64543SOL     OW95402   4.540  10.058   2.351
64543SOL    HW195403   4.498  10.116   2.414
64543SOL    HW295404   4.628  10.094   2.339
64544SOL     OW95405   6.867   3.052   7.904
64544SOL    HW195406   6.776   3.024   7.920
64544SOL    HW295407   6.881   3.122   7.968
64545SOL     OW95408   2.844   6.803  14.451
64545SOL    HW195409   2.794   6.787  14.531
64545SOL    HW295410   2.835   6.722  14.401
64546SOL     OW95411   7.019   4.620  10.240
64546SOL    HW195412   6.961   4.547  10.218
64546SOL    HW295413   6.970   4.670  10.305
64547SOL     OW95414   3.150   2.205  12.165
64547SOL    HW195415   3.056   2.204  12.182
64547SOL    HW295416   3.184   2.136  12.223
64548SOL     OW95417   3.429   6.888   2.844
64548SOL    HW195418   3.400   6.948   2.775
64548SOL    HW295419   3.348   6.860   2.887
64549SOL     OW95420  10.726   7.724  14.438
64549SOL    HW195421  10.719   7.778  14.517
64549SOL    HW295422  10.759   7.785  14.371
64550SOL     OW95423   2.862  12.233   7.572
64550SOL    HW195424   2.828  12.171   7.637
64550SOL    HW295425   2.919  12.179   7.516
64551SOL     OW95426  10.640  11.371  10.311
64551SOL    HW195427  10.675  11.382  10.399
64551SOL    HW295428  10.674  11.286  10.282
64552SOL     OW95429   6.097   2.657   5.086
64552SOL    HW195430   6.044   2.715   5.031
64552SOL    HW295431   6.076   2.683   5.176
64553SOL     OW95432   1.056   6.741   5.913
64553SOL    HW195433   1.134   6.770   5.960
64553SOL    HW295434   1.090   6.698   5.834
64554SOL     OW95435   9.148   8.981  12.017
64554SOL    HW195436   9.192   8.952  12.096
64554SOL    HW295437   9.121   8.900  11.973
64555SOL     OW95438   3.727  10.649   6.124
64555SOL    HW195439   3.697  10.611   6.041
64555SOL    HW295440   3.821  10.629   6.127
64556SOL     OW95441  12.194  12.141  14.493
64556SOL    HW195442  12.148  12.191  14.426
64556SOL    HW295443  12.287  12.159  14.477
64557SOL     OW95444   0.854  13.159   5.562
64557SOL    HW195445   0.878  13.162   5.469
64557SOL    HW295446   0.931  13.123   5.606
64558SOL     OW95447   3.753   7.771   2.780
64558SOL    HW195448   3.703   7.725   2.712
64558SOL    HW295449   3.696   7.843   2.807
64559SOL     OW95450  14.641  10.690   4.130
64559SOL    HW195451  14.549  10.681   4.156
64559SOL    HW295452  14.652  10.783   4.112
64560SOL     OW95453   0.657  13.035   6.114
64560SOL    HW195454   0.720  13.004   6.049
64560SOL    HW295455   0.579  12.983   6.098
64561SOL     OW95456   6.273   8.608   2.890
64561SOL    HW195457   6.308   8.532   2.937
64561SOL    HW295458   6.343   8.635   2.831
64562SOL     OW95459   4.045   3.301   2.199
64562SOL    HW195460   4.081   3.388   2.184
64562SOL    HW295461   4.010   3.304   2.288
64563SOL     OW95462   1.719   4.617   8.994
64563SOL    HW195463   1.690   4.544   8.939
64563SOL    HW295464   1.813   4.624   8.976
64564SOL     OW95465   9.086   9.651  10.364
64564SOL    HW195466   9.106   9.579  10.423
64564SOL    HW295467   9.005   9.689  10.398
64565SOL     OW95468  13.684   3.931   2.025
64565SOL    HW195469  13.621   3.861   2.041
64565SOL    HW295470  13.636   4.011   2.044
64566SOL     OW95471   5.958   8.888   2.100
64566SOL    HW195472   5.884   8.946   2.115
64566SOL    HW295473   5.984   8.858   2.187
64567SOL     OW95474   3.388   9.039   8.331
64567SOL    HW195475   3.325   8.968   8.341
64567SOL    HW295476   3.338   9.118   8.345
64568SOL     OW95477   0.270   3.036   4.974
64568SOL    HW195478   0.242   3.098   5.042
64568SOL    HW295479   0.200   3.040   4.909
64569SOL     OW95480  13.757   1.952  11.600
64569SOL    HW195481  13.794   1.906  11.525
64569SOL    HW295482  13.821   1.939  11.670
64570SOL     OW95483   3.627  10.965   3.304
64570SOL    HW195484   3.610  10.933   3.215
64570SOL    HW295485   3.702  10.913   3.334
64571SOL     OW95486   4.173  12.485   6.650
64571SOL    HW195487   4.111  12.526   6.589
64571SOL    HW295488   4.254  12.478   6.600
64572SOL     OW95489  13.367  10.401   3.193
64572SOL    HW195490  13.457  10.410   3.164
64572SOL    HW295491  13.363  10.313   3.233
64573SOL     OW95492   9.474   8.063  14.153
64573SOL    HW195493   9.553   8.117  14.148
64573SOL    HW295494   9.466   8.041  14.246
64574SOL     OW95495   9.780   0.180   4.118
64574SOL    HW195496   9.739   0.133   4.191
64574SOL    HW295497   9.775   0.272   4.144
64575SOL     OW95498  12.168   5.571   6.793
64575SOL    HW195499  12.099   5.605   6.849
64575SOL    HW295500  12.142   5.599   6.705
64576SOL     OW95501  11.884  10.384   3.666
64576SOL    HW195502  11.975  10.360   3.649
64576SOL    HW295503  11.889  10.454   3.732
64577SOL     OW95504   5.338   0.905   7.954
64577SOL    HW195505   5.306   0.820   7.985
64577SOL    HW295506   5.414   0.884   7.900
64578SOL     OW95507  10.439  10.306   3.216
64578SOL    HW195508  10.459  10.314   3.309
64578SOL    HW295509  10.441  10.396   3.183
64579SOL     OW95510   1.957  10.456  13.717
64579SOL    HW195511   1.918  10.543  13.723
64579SOL    HW295512   1.903  10.402  13.775
64580SOL     OW95513  10.299   6.664  11.549
64580SOL    HW195514  10.220   6.683  11.498
64580SOL    HW295515  10.324   6.748  11.586
64581SOL     OW95516   9.039  14.249   4.297
64581SOL    HW195517   8.956  14.278   4.335
64581SOL    HW295518   9.030  14.155   4.287
64582SOL     OW95519   8.826   7.864   1.022
64582SOL    HW195520   8.874   7.939   0.986
64582SOL    HW295521   8.893   7.813   1.067
64583SOL     OW95522   3.391   9.561   7.344
64583SOL    HW195523   3.352   9.508   7.413
64583SOL    HW295524   3.408   9.499   7.273
64584SOL     OW95525   1.279   3.552   4.784
64584SOL    HW195526   1.284   3.593   4.871
64584SOL    HW295527   1.185   3.542   4.768
64585SOL     OW95528   1.202   3.608  12.536
64585SOL    HW195529   1.259   3.571  12.468
64585SOL    HW295530   1.154   3.679  12.491
64586SOL     OW95531   7.972   1.800   7.599
64586SOL    HW195532   8.062   1.768   7.608
64586SOL    HW295533   7.921   1.747   7.660
64587SOL     OW95534  11.840  10.259   6.648
64587SOL    HW195535  11.809  10.309   6.723
64587SOL    HW295536  11.894  10.189   6.686
64588SOL     OW95537   9.619   0.214   3.498
64588SOL    HW195538   9.594   0.125   3.524
64588SOL    HW295539   9.653   0.205   3.409
64589SOL     OW95540   1.520   5.901   9.811
64589SOL    HW195541   1.518   5.996   9.802
64589SOL    HW295542   1.552   5.886   9.900
64590SOL     OW95543   4.581   9.206   7.181
64590SOL    HW195544   4.620   9.133   7.228
64590SOL    HW295545   4.615   9.198   7.092
64591SOL     OW95546  14.850   9.996  11.692
64591SOL    HW195547  14.846  10.041  11.607
64591SOL    HW295548  14.775   9.937  11.691
64592SOL     OW95549   5.280   4.143   8.101
64592SOL    HW195550   5.273   4.222   8.049
64592SOL    HW295551   5.333   4.168   8.177
64593SOL     OW95552   4.925  12.772  11.968
64593SOL    HW195553   4.936  12.857  12.011
64593SOL    HW295554   4.896  12.713  12.038
64594SOL     OW95555  13.311   4.537   9.347
64594SOL    HW195556  13.386   4.517   9.403
64594SOL    HW295557  13.243   4.477   9.377
64595SOL     OW95558   0.994  10.957  12.776
64595SOL    HW195559   1.042  11.012  12.838
64595SOL    HW295560   0.973  11.016  12.704
64596SOL     OW95561   8.539   2.285  13.933
64596SOL    HW195562   8.536   2.243  13.847
64596SOL    HW295563   8.505   2.218  13.993
64597SOL     OW95564   2.920   4.417   7.206
64597SOL    HW195565   2.972   4.464   7.272
64597SOL    HW295566   2.891   4.485   7.145
64598SOL     OW95567   7.228   8.807  13.073
64598SOL    HW195568   7.243   8.732  13.016
64598SOL    HW295569   7.134   8.803  13.093
64599SOL     OW95570  11.489   1.037  10.670
64599SOL    HW195571  11.456   1.116  10.627
64599SOL    HW295572  11.551   1.070  10.735
64600SOL     OW95573   3.878  10.742   7.857
64600SOL    HW195574   3.793  10.731   7.899
64600SOL    HW295575   3.941  10.706   7.919
64601SOL     OW95576   0.351   6.690   6.842
64601SOL    HW195577   0.312   6.669   6.757
64601SOL    HW295578   0.277   6.683   6.903
64602SOL     OW95579   6.529   7.554   1.583
64602SOL    HW195580   6.565   7.640   1.563
64602SOL    HW295581   6.448   7.571   1.630
64603SOL     OW95582   0.682  10.253  14.058
64603SOL    HW195583   0.631  10.190  14.008
64603SOL    HW295584   0.616  10.305  14.105
64604SOL     OW95585   6.071   3.644   5.313
64604SOL    HW195586   6.120   3.586   5.255
64604SOL    HW295587   6.089   3.732   5.280
64605SOL     OW95588  13.276   7.752  11.413
64605SOL    HW195589  13.207   7.686  11.416
64605SOL    HW295590  13.237   7.829  11.454
64606SOL     OW95591   1.480   0.052  14.234
64606SOL    HW195592   1.575   0.057  14.231
64606SOL    HW295593   1.451   0.141  14.255
64607SOL     OW95594   5.480   7.307   7.764
64607SOL    HW195595   5.490   7.217   7.796
64607SOL    HW295596   5.457   7.357   7.842
64608SOL     OW95597   4.174  14.050  13.038
64608SOL    HW195598   4.128  14.053  12.954
64608SOL    HW295599   4.147  13.967  13.077
64609SOL     OW95600   2.023  14.855   2.874
64609SOL    HW195601   2.047  14.834   2.783
64609SOL    HW295602   1.933   0.010   2.868
64610SOL     OW95603   6.192   0.598   8.168
64610SOL    HW195604   6.104   0.621   8.196
64610SOL    HW295605   6.185   0.581   8.075
64611SOL     OW95606   9.917   3.299  14.226
64611SOL    HW195607   9.970   3.238  14.279
64611SOL    HW295608   9.949   3.285  14.137
64612SOL     OW95609  11.256  10.733   7.665
64612SOL    HW195610  11.352  10.733   7.668
64612SOL    HW295611  11.234  10.810   7.612
64613SOL     OW95612   2.452   3.849   2.570
64613SOL    HW195613   2.409   3.777   2.616
64613SOL    HW295614   2.407   3.928   2.602
64614SOL     OW95615   6.022  13.990   8.004
64614SOL    HW195616   6.013  13.897   7.987
64614SOL    HW295617   6.046  14.028   7.920
64615SOL     OW95618  13.488   8.501   8.829
64615SOL    HW195619  13.493   8.570   8.763
64615SOL    HW295620  13.567   8.512   8.881
64616SOL     OW95621   6.333   8.440  10.419
64616SOL    HW195622   6.329   8.390  10.500
64616SOL    HW295623   6.314   8.375  10.350
64617SOL     OW95624  11.663   4.551   0.356
64617SOL    HW195625  11.744   4.587   0.319
64617SOL    HW295626  11.668   4.457   0.337
64618SOL     OW95627   9.721   4.531   0.798
64618SOL    HW195628   9.791   4.466   0.802
64618SOL    HW295629   9.641   4.480   0.808
64619SOL     OW95630   3.412   7.961  11.064
64619SOL    HW195631   3.371   7.918  10.989
64619SOL    HW295632   3.339   7.976  11.125
64620SOL     OW95633   4.387   5.782  14.270
64620SOL    HW195634   4.316   5.836  14.304
64620SOL    HW295635   4.384   5.796  14.175
64621SOL     OW95636   7.010   8.311  12.046
64621SOL    HW195637   7.059   8.233  12.073
64621SOL    HW295638   7.075   8.381  12.041
64622SOL     OW95639  11.564  14.430   8.643
64622SOL    HW195640  11.636  14.391   8.594
64622SOL    HW295641  11.603  14.505   8.688
64623SOL     OW95642  12.299  14.476  13.041
64623SOL    HW195643  12.384  14.510  13.014
64623SOL    HW295644  12.315  14.437  13.127
64624SOL     OW95645   6.629   5.642   3.804
64624SOL    HW195646   6.581   5.645   3.887
64624SOL    HW295647   6.565   5.672   3.739
64625SOL     OW95648   1.539  13.833   0.029
64625SOL    HW195649   1.501  13.769  14.848
64625SOL    HW295650   1.547  13.913  14.854
64626SOL     OW95651  12.073   9.384  11.121
64626SOL    HW195652  11.996   9.428  11.158
64626SOL    HW295653  12.047   9.359  11.033
64627SOL     OW95654  11.474  12.654   9.370
64627SOL    HW195655  11.542  12.675   9.307
64627SOL    HW295656  11.494  12.707   9.447
64628SOL     OW95657   6.173   5.876  13.025
64628SOL    HW195658   6.136   5.927  12.953
64628SOL    HW295659   6.175   5.937  13.099
64629SOL     OW95660   9.441  11.381  11.229
64629SOL    HW195661   9.523  11.337  11.254
64629SOL    HW295662   9.413  11.426  11.308
64630SOL     OW95663   4.916   1.416   4.458
64630SOL    HW195664   4.907   1.327   4.425
64630SOL    HW295665   4.996   1.450   4.418
64631SOL     OW95666  12.630  11.235   2.364
64631SOL    HW195667  12.628  11.291   2.442
64631SOL    HW295668  12.644  11.147   2.398
64632SOL     OW95669   6.633   6.839  12.042
64632SOL    HW195670   6.651   6.928  12.010
64632SOL    HW295671   6.714   6.812  12.085
64633SOL     OW95672   2.582  12.729  10.252
64633SOL    HW195673   2.551  12.642  10.277
64633SOL    HW295674   2.617  12.718  10.164
64634SOL     OW95675   0.998   0.748   1.007
64634SOL    HW195676   1.009   0.795   0.924
64634SOL    HW295677   0.931   0.682   0.988
64635SOL     OW95678   2.964   1.233   5.615
64635SOL    HW195679   3.053   1.203   5.598
64635SOL    HW295680   2.966   1.263   5.706
64636SOL     OW95681   2.613  10.566   3.902
64636SOL    HW195682   2.656  10.610   3.829
64636SOL    HW295683   2.682  10.556   3.968
64637SOL     OW95684   1.432   2.182   4.604
64637SOL    HW195685   1.504   2.144   4.654
64637SOL    HW295686   1.440   2.141   4.518
64638SOL     OW95687   2.223   8.504  14.662
64638SOL    HW195688   2.265   8.477  14.580
64638SOL    HW295689   2.189   8.592  14.644
64639SOL     OW95690   8.099   7.973   7.067
64639SOL    HW195691   8.027   8.036   7.074
64639SOL    HW295692   8.159   7.997   7.137
64640SOL     OW95693   9.422  13.549   3.478
64640SOL    HW195694   9.345  13.606   3.479
64640SOL    HW295695   9.424  13.510   3.566
64641SOL     OW95696   9.116  12.861   9.034
64641SOL    HW195697   9.162  12.791   9.080
64641SOL    HW295698   9.026  12.856   9.066
64642SOL     OW95699  12.526   6.508   1.044
64642SOL    HW195700  12.474   6.491   0.965
64642SOL    HW295701  12.516   6.429   1.097
64643SOL     OW95702   0.594  11.552   1.109
64643SOL    HW195703   0.528  11.612   1.076
64643SOL    HW295704   0.647  11.530   1.032
64644SOL     OW95705   6.691   4.840   5.800
64644SOL    HW195706   6.750   4.915   5.794
64644SOL    HW295707   6.674   4.815   5.710
64645SOL     OW95708  12.755   1.942  11.794
64645SOL    HW195709  12.800   2.002  11.852
64645SOL    HW295710  12.800   1.951  11.710
64646SOL     OW95711   5.883   9.231   2.177
64646SOL    HW195712   5.968   9.186   2.183
64646SOL    HW295713   5.819   9.160   2.168
64647SOL     OW95714   7.285  13.199   9.532
64647SOL    HW195715   7.255  13.131   9.471
64647SOL    HW295716   7.344  13.154   9.591
64648SOL     OW95717   9.619  13.532   0.517
64648SOL    HW195718   9.528  13.533   0.488
64648SOL    HW295719   9.616  13.500   0.607
64649SOL     OW95720   2.951  12.969   5.585
64649SOL    HW195721   2.987  12.987   5.498
64649SOL    HW295722   2.872  13.022   5.590
64650SOL     OW95723   0.481   4.808  13.575
64650SOL    HW195724   0.533   4.735  13.609
64650SOL    HW295725   0.455   4.857  13.654
64651SOL     OW95726  14.107  12.513   8.670
64651SOL    HW195727  14.146  12.497   8.755
64651SOL    HW295728  14.090  12.425   8.635
64652SOL     OW95729   9.257   7.037   7.087
64652SOL    HW195730   9.295   6.951   7.074
64652SOL    HW295731   9.330   7.098   7.080
64653SOL     OW95732   5.028   2.985   3.781
64653SOL    HW195733   4.965   2.922   3.817
64653SOL    HW295734   4.984   3.022   3.705
64654SOL     OW95735  13.927   2.134  14.239
64654SOL    HW195736  13.882   2.182  14.309
64654SOL    HW295737  14.017   2.123  14.272
64655SOL     OW95738   1.179   0.316   0.179
64655SOL    HW195739   1.164   0.231   0.220
64655SOL    HW295740   1.200   0.375   0.252
64656SOL     OW95741  10.974  14.557   6.164
64656SOL    HW195742  10.898  14.602   6.201
64656SOL    HW295743  10.938  14.476   6.127
64657SOL     OW95744   9.030   0.866   1.577
64657SOL    HW195745   8.960   0.888   1.517
64657SOL    HW295746   9.110   0.898   1.535
64658SOL     OW95747  13.679  11.110   8.067
64658SOL    HW195748  13.643  11.197   8.085
64658SOL    HW295749  13.693  11.072   8.154
64659SOL     OW95750   7.213  13.299  10.460
64659SOL    HW195751   7.273  13.327  10.529
64659SOL    HW295752   7.226  13.204  10.454
64660SOL     OW95753   6.495  14.352   0.136
64660SOL    HW195754   6.553  14.415   0.179
64660SOL    HW295755   6.471  14.393   0.053
64661SOL     OW95756   9.973   9.671   7.403
64661SOL    HW195757  10.064   9.643   7.403
64661SOL    HW295758   9.953   9.689   7.311
64662SOL     OW95759   7.300   9.014   0.070
64662SOL    HW195760   7.214   9.002   0.028
64662SOL    HW295761   7.324   9.104   0.050
64663SOL     OW95762  13.729   8.070   0.652
64663SOL    HW195763  13.748   8.162   0.636
64663SOL    HW295764  13.815   8.027   0.648
64664SOL     OW95765   4.582   0.386   2.682
64664SOL    HW195766   4.601   0.358   2.771
64664SOL    HW295767   4.488   0.372   2.672
64665SOL     OW95768   3.998  11.974   3.428
64665SOL    HW195769   4.066  12.034   3.397
64665SOL    HW295770   3.956  12.021   3.501
64666SOL     OW95771   6.917   5.605  12.379
64666SOL    HW195772   6.847   5.662  12.411
64666SOL    HW295773   6.994   5.630  12.429
64667SOL     OW95774   0.261  14.427   9.571
64667SOL    HW195775   0.279  14.519   9.549
64667SOL    HW295776   0.313  14.411   9.650
64668SOL     OW95777   9.900   0.368  11.798
64668SOL    HW195778   9.831   0.303  11.783
64668SOL    HW295779   9.887   0.397  11.888
64669SOL     OW95780   7.636  10.562   6.234
64669SOL    HW195781   7.640  10.617   6.312
64669SOL    HW295782   7.720  10.576   6.190
64670SOL     OW95783   0.878   1.819   6.477
64670SOL    HW195784   0.835   1.896   6.439
64670SOL    HW295785   0.935   1.787   6.407
64671SOL     OW95786  11.312   5.762   1.602
64671SOL    HW195787  11.241   5.825   1.589
64671SOL    HW295788  11.275   5.695   1.659
64672SOL     OW95789  11.945   5.058   5.345
64672SOL    HW195790  11.989   5.141   5.324
64672SOL    HW295791  11.855   5.083   5.364
64673SOL     OW95792   1.942  13.559   9.850
64673SOL    HW195793   1.974  13.635   9.898
64673SOL    HW295794   1.898  13.595   9.773
64674SOL     OW95795   2.731  12.361  11.726
64674SOL    HW195796   2.697  12.427  11.787
64674SOL    HW295797   2.826  12.372  11.729
64675SOL     OW95798   4.101  12.885   1.077
64675SOL    HW195799   4.194  12.895   1.096
64675SOL    HW295800   4.088  12.929   0.993
64676SOL     OW95801   4.220   8.600   8.793
64676SOL    HW195802   4.275   8.551   8.732
64676SOL    HW295803   4.259   8.584   8.879
64677SOL     OW95804   3.454   3.287   9.343
64677SOL    HW195805   3.481   3.379   9.340
64677SOL    HW295806   3.451   3.266   9.437
64678SOL     OW95807   1.204   1.284   4.536
64678SOL    HW195808   1.260   1.323   4.469
64678SOL    HW295809   1.173   1.358   4.588
64679SOL     OW95810   0.222  11.018   3.185
64679SOL    HW195811   0.257  11.097   3.143
64679SOL    HW295812   0.220  10.954   3.114
64680SOL     OW95813  14.653   7.752  13.265
64680SOL    HW195814  14.572   7.803  13.262
64680SOL    HW295815  14.628   7.670  13.307
64681SOL     OW95816   6.945  14.334  12.887
64681SOL    HW195817   6.883  14.314  12.958
64681SOL    HW295818   7.029  14.303  12.919
64682SOL     OW95819   9.125   2.542   3.624
64682SOL    HW195820   9.041   2.524   3.668
64682SOL    HW295821   9.190   2.533   3.693
64683SOL     OW95822   0.652   6.751   1.010
64683SOL    HW195823   0.707   6.828   0.997
64683SOL    HW295824   0.580   6.782   1.065
64684SOL     OW95825  10.035   4.036   8.875
64684SOL    HW195826  10.092   4.073   8.943
64684SOL    HW295827  10.058   3.943   8.872
64685SOL     OW95828  13.720  14.822   2.561
64685SOL    HW195829  13.734  14.729   2.579
64685SOL    HW295830  13.776  14.841   2.485
64686SOL     OW95831  10.634  13.878   9.571
64686SOL    HW195832  10.592  13.815   9.629
64686SOL    HW295833  10.728  13.865   9.584
64687SOL     OW95834  12.544  13.934  13.526
64687SOL    HW195835  12.529  13.937  13.431
64687SOL    HW295836  12.468  13.979  13.564
64688SOL     OW95837   5.796   9.881   2.060
64688SOL    HW195838   5.702   9.876   2.077
64688SOL    HW295839   5.814   9.808   2.000
64689SOL     OW95840   6.548   4.759   7.649
64689SOL    HW195841   6.609   4.702   7.696
64689SOL    HW295842   6.550   4.841   7.698
64690SOL     OW95843  13.922   6.129   4.994
64690SOL    HW195844  13.865   6.062   4.957
64690SOL    HW295845  13.950   6.181   4.918
64691SOL     OW95846   2.085   3.167  10.523
64691SOL    HW195847   2.117   3.170  10.433
64691SOL    HW295848   2.165   3.171  10.576
64692SOL     OW95849   0.622  10.471  13.240
64692SOL    HW195850   0.629  10.542  13.176
64692SOL    HW295851   0.622  10.515  13.325
64693SOL     OW95852   0.770  11.496   1.322
64693SOL    HW195853   0.850  11.504   1.270
64693SOL    HW295854   0.699  11.510   1.260
64694SOL     OW95855   7.696   6.568  13.965
64694SOL    HW195856   7.646   6.538  13.889
64694SOL    HW295857   7.719   6.659  13.944
64695SOL     OW95858   3.503  14.791   2.283
64695SOL    HW195859   3.445  14.722   2.317
64695SOL    HW295860   3.591  14.752   2.287
64696SOL     OW95861   0.936   9.688   5.169
64696SOL    HW195862   0.904   9.747   5.100
64696SOL    HW295863   0.856   9.649   5.205
64697SOL     OW95864  13.349  13.914   2.051
64697SOL    HW195865  13.264  13.914   2.094
64697SOL    HW295866  13.377  13.822   2.053
64698SOL     OW95867   4.131  11.737   2.192
64698SOL    HW195868   4.116  11.676   2.120
64698SOL    HW295869   4.169  11.814   2.151
64699SOL     OW95870   3.393   3.281  11.364
64699SOL    HW195871   3.311   3.246  11.398
64699SOL    HW295872   3.368   3.361  11.319
64700SOL     OW95873  13.219   4.599   9.987
64700SOL    HW195874  13.265   4.673   9.947
64700SOL    HW295875  13.136   4.594   9.940
64701SOL     OW95876   9.901   9.484   3.475
64701SOL    HW195877   9.818   9.492   3.520
64701SOL    HW295878   9.967   9.485   3.544
64702SOL     OW95879  13.611  12.248  12.073
64702SOL    HW195880  13.559  12.170  12.054
64702SOL    HW295881  13.688  12.215  12.119
64703SOL     OW95882  11.132   9.460  10.134
64703SOL    HW195883  11.089   9.397  10.076
64703SOL    HW295884  11.159   9.532  10.076
64704SOL     OW95885  10.659  12.895   1.195
64704SOL    HW195886  10.720  12.825   1.216
64704SOL    HW295887  10.713  12.974   1.195
64705SOL     OW95888   2.698   0.530   6.510
64705SOL    HW195889   2.621   0.497   6.557
64705SOL    HW295890   2.738   0.451   6.473
64706SOL     OW95891  10.064   7.141   6.270
64706SOL    HW195892  10.109   7.126   6.187
64706SOL    HW295893  10.004   7.067   6.278
64707SOL     OW95894   9.318  13.367   4.913
64707SOL    HW195895   9.314  13.405   4.825
64707SOL    HW295896   9.407  13.332   4.920
64708SOL     OW95897  11.278   6.160   2.260
64708SOL    HW195898  11.372   6.143   2.259
64708SOL    HW295899  11.248   6.137   2.172
64709SOL     OW95900   9.330   4.230   5.909
64709SOL    HW195901   9.265   4.278   5.858
64709SOL    HW295902   9.413   4.271   5.887
64710SOL     OW95903  14.480   8.415   3.470
64710SOL    HW195904  14.469   8.484   3.535
64710SOL    HW295905  14.528   8.346   3.515
64711SOL     OW95906   4.907  11.803  13.396
64711SOL    HW195907   4.997  11.787  13.422
64711SOL    HW295908   4.906  11.785  13.302
64712SOL     OW95909   6.873   3.431   6.271
64712SOL    HW195910   6.855   3.452   6.179
64712SOL    HW295911   6.940   3.363   6.267
64713SOL     OW95912   0.442   1.553   0.508
64713SOL    HW195913   0.403   1.633   0.475
64713SOL    HW295914   0.460   1.500   0.430
64714SOL     OW95915   4.189   9.145   2.930
64714SOL    HW195916   4.203   9.113   3.019
64714SOL    HW295917   4.231   9.231   2.929
64715SOL     OW95918   4.313   0.427   2.657
64715SOL    HW195919   4.276   0.385   2.734
64715SOL    HW295920   4.293   0.520   2.669
64716SOL     OW95921   0.285   0.499   0.732
64716SOL    HW195922   0.282   0.452   0.815
64716SOL    HW295923   0.202   0.546   0.728
64717SOL     OW95924   9.643  10.103  14.350
64717SOL    HW195925   9.612  10.180  14.302
64717SOL    HW295926   9.573  10.038  14.338
64718SOL     OW95927   5.929  10.730   9.287
64718SOL    HW195928   5.891  10.647   9.258
64718SOL    HW295929   5.954  10.715   9.378
64719SOL     OW95930  10.836   5.633   6.061
64719SOL    HW195931  10.806   5.686   5.987
64719SOL    HW295932  10.805   5.680   6.138
64720SOL     OW95933   6.624  14.591   4.888
64720SOL    HW195934   6.641  14.677   4.850
64720SOL    HW295935   6.708  14.564   4.925
64721SOL     OW95936  11.180  12.661   4.317
64721SOL    HW195937  11.243  12.658   4.245
64721SOL    HW295938  11.116  12.593   4.295
64722SOL     OW95939  12.470  13.251   9.348
64722SOL    HW195940  12.429  13.247   9.262
64722SOL    HW295941  12.398  13.239   9.410
64723SOL     OW95942   5.817  11.540   1.462
64723SOL    HW195943   5.748  11.518   1.399
64723SOL    HW295944   5.851  11.624   1.432
64724SOL     OW95945   3.414   2.385   3.225
64724SOL    HW195946   3.465   2.428   3.294
64724SOL    HW295947   3.356   2.454   3.192
64725SOL     OW95948  12.173  14.436  14.729
64725SOL    HW195949  12.134  14.505  14.675
64725SOL    HW295950  12.211  14.376  14.665
64726SOL     OW95951  10.970   0.275  10.986
64726SOL    HW195952  11.056   0.237  11.003
64726SOL    HW295953  10.987   0.368  10.972
64727SOL     OW95954   0.450   8.899   4.706
64727SOL    HW195955   0.481   8.951   4.781
64727SOL    HW295956   0.492   8.939   4.630
64728SOL     OW95957   7.070  10.311   3.633
64728SOL    HW195958   7.109  10.342   3.551
64728SOL    HW295959   6.990  10.362   3.642
64729SOL     OW95960   0.148   4.259  13.118
64729SOL    HW195961   0.059   4.281  13.144
64729SOL    HW295962   0.162   4.170  13.150
64730SOL     OW95963  14.138   9.523   8.856
64730SOL    HW195964  14.214   9.531   8.913
64730SOL    HW295965  14.148   9.437   8.815
64731SOL     OW95966   0.486  11.344   1.467
64731SOL    HW195967   0.411  11.284   1.471
64731SOL    HW295968   0.549  11.309   1.530
64732SOL     OW95969   3.079   4.313  10.932
64732SOL    HW195970   3.128   4.234  10.909
64732SOL    HW295971   3.100   4.376  10.863
64733SOL     OW95972   1.984  14.600  12.115
64733SOL    HW195973   1.974  14.643  12.200
64733SOL    HW295974   2.078  14.598  12.100
64734SOL     OW95975   7.588   6.244   5.496
64734SOL    HW195976   7.557   6.287   5.417
64734SOL    HW295977   7.597   6.315   5.560
64735SOL     OW95978   4.612   7.715   5.609
64735SOL    HW195979   4.622   7.620   5.602
64735SOL    HW295980   4.642   7.749   5.525
64736SOL     OW95981  13.443  14.281   8.179
64736SOL    HW195982  13.530  14.269   8.142
64736SOL    HW295983  13.386  14.224   8.126
64737SOL     OW95984  12.439  11.662   3.445
64737SOL    HW195985  12.487  11.695   3.369
64737SOL    HW295986  12.506  11.633   3.506
64738SOL     OW95987  12.794   6.837  12.321
64738SOL    HW195988  12.801   6.753  12.366
64738SOL    HW295989  12.726   6.884  12.369
64739SOL     OW95990  11.512   5.119   6.437
64739SOL    HW195991  11.585   5.072   6.477
64739SOL    HW295992  11.450   5.134   6.509
64740SOL     OW95993   2.339   4.750   8.769
64740SOL    HW195994   2.370   4.665   8.800
64740SOL    HW295995   2.371   4.812   8.834
64741SOL     OW95996   2.420   5.948  13.419
64741SOL    HW195997   2.499   5.910  13.381
64741SOL    HW295998   2.376   5.874  13.461
64742SOL     OW95999   5.900   1.782  13.362
64742SOL    HW196000   5.820   1.834  13.354
64742SOL    HW296001   5.883   1.722  13.434
64743SOL     OW96002  14.232  11.590   9.443
64743SOL    HW196003  14.295  11.621   9.378
64743SOL    HW296004  14.149  11.586   9.396
64744SOL     OW96005   7.698   6.681  13.402
64744SOL    HW196006   7.721   6.767  13.436
64744SOL    HW296007   7.684   6.695  13.308
64745SOL     OW96008   7.938   8.665   5.019
64745SOL    HW196009   8.005   8.721   4.980
64745SOL    HW296010   7.891   8.629   4.945
64746SOL     OW96011  10.220  10.671   5.740
64746SOL    HW196012  10.187  10.582   5.731
64746SOL    HW296013  10.285  10.680   5.671
64747SOL     OW96014   4.556   5.299   4.252
64747SOL    HW196015   4.512   5.309   4.168
64747SOL    HW296016   4.606   5.380   4.263
64748SOL     OW96017   2.840   8.312  13.414
64748SOL    HW196018   2.883   8.234  13.448
64748SOL    HW296019   2.747   8.295  13.424
64749SOL     OW96020  11.964   5.832   0.933
64749SOL    HW196021  11.943   5.835   1.026
64749SOL    HW296022  11.979   5.739   0.915
64750SOL     OW96023   1.141   1.303   4.895
64750SOL    HW196024   1.079   1.272   4.961
64750SOL    HW296025   1.128   1.244   4.821
64751SOL     OW96026   2.015   4.403   5.712
64751SOL    HW196027   1.972   4.330   5.758
64751SOL    HW296028   1.960   4.479   5.732
64752SOL     OW96029   3.961  11.918  14.580
64752SOL    HW196030   3.962  12.013  14.566
64752SOL    HW296031   3.875  11.900  14.617
64753SOL     OW96032  12.828   7.164  10.540
64753SOL    HW196033  12.751   7.220  10.528
64753SOL    HW296034  12.794   7.075  10.535
64754SOL     OW96035   1.975  14.016  11.533
64754SOL    HW196036   1.940  14.037  11.447
64754SOL    HW296037   1.962  13.921  11.541
64755SOL     OW96038   1.214  10.373  14.831
64755SOL    HW196039   1.141  10.331  14.787
64755SOL    HW296040   1.292  10.326  14.801
64756SOL     OW96041   3.024  11.160   1.606
64756SOL    HW196042   3.105  11.207   1.585
64756SOL    HW296043   2.959  11.229   1.621
64757SOL     OW96044  12.928   1.880   0.482
64757SOL    HW196045  12.849   1.859   0.431
64757SOL    HW296046  12.912   1.968   0.516
64758SOL     OW96047   9.137  12.036   2.906
64758SOL    HW196048   9.108  12.109   2.851
64758SOL    HW296049   9.216  12.069   2.949
64759SOL     OW96050   0.643   9.350   4.425
64759SOL    HW196051   0.726   9.364   4.381
64759SOL    HW296052   0.630   9.430   4.477
64760SOL     OW96053   0.742   1.362   5.833
64760SOL    HW196054   0.821   1.402   5.869
64760SOL    HW296055   0.758   1.268   5.838
64761SOL     OW96056   7.918   2.252  14.535
64761SOL    HW196057   7.871   2.331  14.506
64761SOL    HW296058   7.848   2.190  14.556
64762SOL     OW96059   2.877   1.970   4.047
64762SOL    HW196060   2.942   2.037   4.067
64762SOL    HW296061   2.817   1.972   4.122
64763SOL     OW96062   6.981   5.035   1.395
64763SOL    HW196063   7.032   4.990   1.328
64763SOL    HW296064   7.026   5.119   1.407
64764SOL     OW96065  11.992   1.507   1.135
64764SOL    HW196066  11.899   1.495   1.115
64764SOL    HW296067  12.010   1.444   1.205
64765SOL     OW96068  13.774   7.293   6.036
64765SOL    HW196069  13.735   7.206   6.043
64765SOL    HW296070  13.856   7.279   5.988
64766SOL     OW96071   3.322   3.624   1.374
64766SOL    HW196072   3.275   3.659   1.298
64766SOL    HW296073   3.403   3.588   1.337
64767SOL     OW96074  10.993   3.742   4.075
64767SOL    HW196075  10.959   3.762   3.987
64767SOL    HW296076  10.945   3.665   4.103
64768SOL     OW96077  12.088   0.295   6.860
64768SOL    HW196078  12.088   0.202   6.879
64768SOL    HW296079  11.999   0.323   6.879
64769SOL     OW96080   2.557   2.148   4.637
64769SOL    HW196081   2.630   2.148   4.698
64769SOL    HW296082   2.556   2.237   4.600
64770SOL     OW96083   2.482   8.779   9.953
64770SOL    HW196084   2.536   8.707   9.986
64770SOL    HW296085   2.542   8.853   9.947
64771SOL     OW96086   8.290  10.417   6.611
64771SOL    HW196087   8.353  10.482   6.642
64771SOL    HW296088   8.343  10.349   6.569
64772SOL     OW96089  12.518  14.674   4.356
64772SOL    HW196090  12.440  14.675   4.300
64772SOL    HW296091  12.585  14.717   4.304
64773SOL     OW96092  13.948   4.510  13.241
64773SOL    HW196093  13.912   4.593  13.271
64773SOL    HW296094  13.883   4.476  13.179
64774SOL     OW96095  11.734  14.313  14.114
64774SOL    HW196096  11.796  14.377  14.080
64774SOL    HW296097  11.655  14.325  14.061
64775SOL     OW96098   3.159   1.245   6.506
64775SOL    HW196099   3.157   1.159   6.464
64775SOL    HW296100   3.135   1.228   6.597
64776SOL     OW96101   4.749   9.051   7.395
64776SOL    HW196102   4.715   9.027   7.481
64776SOL    HW296103   4.771   8.967   7.354
64777SOL     OW96104  12.752  11.592   8.356
64777SOL    HW196105  12.804  11.520   8.390
64777SOL    HW296106  12.695  11.551   8.290
64778SOL     OW96107   4.594  11.699   7.247
64778SOL    HW196108   4.565  11.733   7.331
64778SOL    HW296109   4.544  11.618   7.235
64779SOL     OW96110   1.908   2.152  11.020
64779SOL    HW196111   1.989   2.200  11.002
64779SOL    HW296112   1.841   2.220  11.029
64780SOL     OW96113  11.147   6.017  14.131
64780SOL    HW196114  11.059   6.046  14.107
64780SOL    HW296115  11.202   6.042  14.057
64781SOL     OW96116   2.991  12.056   1.910
64781SOL    HW196117   3.036  12.021   1.833
64781SOL    HW296118   3.028  12.007   1.983
64782SOL     OW96119  11.052   1.934   8.508
64782SOL    HW196120  10.979   1.992   8.489
64782SOL    HW296121  11.128   1.975   8.467
64783SOL     OW96122  10.155   3.493   4.701
64783SOL    HW196123  10.115   3.498   4.787
64783SOL    HW296124  10.226   3.430   4.711
64784SOL     OW96125   1.561   8.618   5.624
64784SOL    HW196126   1.518   8.542   5.585
64784SOL    HW296127   1.494   8.658   5.678
64785SOL     OW96128  11.571   3.909  11.814
64785SOL    HW196129  11.584   3.838  11.877
64785SOL    HW296130  11.550   3.985  11.869
64786SOL     OW96131   3.085   3.666   4.476
64786SOL    HW196132   3.040   3.733   4.528
64786SOL    HW296133   3.165   3.710   4.445
64787SOL     OW96134  12.433   2.492   7.427
64787SOL    HW196135  12.396   2.578   7.444
64787SOL    HW296136  12.362   2.443   7.385
64788SOL     OW96137   7.215   8.376   1.669
64788SOL    HW196138   7.187   8.458   1.629
64788SOL    HW296139   7.285   8.343   1.612
64789SOL     OW96140   2.429   7.856  12.761
64789SOL    HW196141   2.404   7.914  12.690
64789SOL    HW296142   2.347   7.814  12.788
64790SOL     OW96143  10.186   4.386   9.804
64790SOL    HW196144  10.268   4.376   9.756
64790SOL    HW296145  10.118   4.368   9.739
64791SOL     OW96146  10.417  12.179  12.888
64791SOL    HW196147  10.373  12.094  12.880
64791SOL    HW296148  10.508  12.157  12.907
64792SOL     OW96149   8.185   0.999   4.910
64792SOL    HW196150   8.257   1.028   4.966
64792SOL    HW296151   8.212   0.911   4.881
64793SOL     OW96152  12.476   9.386   8.732
64793SOL    HW196153  12.402   9.429   8.775
64793SOL    HW296154  12.498   9.443   8.659
64794SOL     OW96155   8.792   1.793   0.914
64794SOL    HW196156   8.812   1.819   0.824
64794SOL    HW296157   8.724   1.726   0.905
64795SOL     OW96158   3.878   1.599   0.758
64795SOL    HW196159   3.815   1.629   0.823
64795SOL    HW296160   3.910   1.515   0.792
64796SOL     OW96161   0.640  11.117   2.212
64796SOL    HW196162   0.613  11.193   2.161
64796SOL    HW296163   0.695  11.154   2.282
64797SOL     OW96164  10.070   4.916   7.970
64797SOL    HW196165  10.146   4.862   7.991
64797SOL    HW296166   9.996   4.867   8.007
64798SOL     OW96167   4.834   5.009   9.716
64798SOL    HW196168   4.775   5.073   9.755
64798SOL    HW296169   4.838   5.033   9.624
64799SOL     OW96170   3.646  10.629   0.014
64799SOL    HW196171   3.659  10.627   0.109
64799SOL    HW296172   3.663  10.720  14.866
64800SOL     OW96173  10.012   2.160   2.656
64800SOL    HW196174  10.026   2.212   2.577
64800SOL    HW296175  10.027   2.070   2.628
64801SOL     OW96176   5.019  10.645  12.163
64801SOL    HW196177   5.011  10.644  12.068
64801SOL    HW296178   4.962  10.717  12.192
64802SOL     OW96179   3.971  14.365   9.918
64802SOL    HW196180   3.985  14.294   9.855
64802SOL    HW296181   4.060  14.390   9.945
64803SOL     OW96182   1.643  12.346   3.970
64803SOL    HW196183   1.672  12.264   3.931
64803SOL    HW296184   1.606  12.321   4.055
64804SOL     OW96185   9.654   3.779   3.982
64804SOL    HW196186   9.592   3.840   4.021
64804SOL    HW296187   9.651   3.702   4.038
64805SOL     OW96188   1.988  13.834   8.962
64805SOL    HW196189   2.029  13.771   9.021
64805SOL    HW296190   1.943  13.780   8.897
64806SOL     OW96191   4.513   0.356  12.980
64806SOL    HW196192   4.486   0.267  13.000
64806SOL    HW296193   4.545   0.351  12.889
64807SOL     OW96194   4.797   3.433  10.373
64807SOL    HW196195   4.802   3.466  10.284
64807SOL    HW296196   4.713   3.387  10.377
64808SOL     OW96197   8.601  10.419   7.457
64808SOL    HW196198   8.626  10.385   7.543
64808SOL    HW296199   8.506  10.412   7.454
64809SOL     OW96200   5.905  10.292  12.859
64809SOL    HW196201   5.890  10.330  12.946
64809SOL    HW296202   5.952  10.210  12.877
64810SOL     OW96203   8.429  13.108  14.205
64810SOL    HW196204   8.409  13.032  14.151
64810SOL    HW296205   8.514  13.138  14.174
64811SOL     OW96206   5.774   0.749   7.594
64811SOL    HW196207   5.797   0.656   7.588
64811SOL    HW296208   5.855   0.792   7.622
64812SOL     OW96209  13.175   9.855   4.505
64812SOL    HW196210  13.233   9.931   4.515
64812SOL    HW296211  13.219   9.800   4.441
64813SOL     OW96212   2.669   3.505   0.606
64813SOL    HW196213   2.715   3.527   0.687
64813SOL    HW296214   2.690   3.413   0.590
64814SOL     OW96215   5.866  14.567  10.351
64814SOL    HW196216   5.930  14.606  10.412
64814SOL    HW296217   5.786  14.558  10.403
64815SOL     OW96218   2.510   2.667  14.018
64815SOL    HW196219   2.546   2.673  14.107
64815SOL    HW296220   2.553   2.590  13.980
64816SOL     OW96221   0.922   4.627   8.168
64816SOL    HW196222   0.933   4.715   8.131
64816SOL    HW296223   0.934   4.568   8.094
64817SOL     OW96224  14.295  12.036   5.246
64817SOL    HW196225  14.361  12.096   5.280
64817SOL    HW296226  14.249  12.003   5.323
64818SOL     OW96227  10.635   4.008   3.189
64818SOL    HW196228  10.555   3.987   3.141
64818SOL    HW296229  10.703   4.011   3.122
64819SOL     OW96230   0.756   6.314  14.168
64819SOL    HW196231   0.695   6.284  14.235
64819SOL    HW296232   0.714   6.292  14.085
64820SOL     OW96233   2.315  14.628  12.555
64820SOL    HW196234   2.261  14.565  12.507
64820SOL    HW296235   2.367  14.670  12.486
64821SOL     OW96236   6.430  10.201   8.242
64821SOL    HW196237   6.403  10.144   8.313
64821SOL    HW296238   6.367  10.184   8.171
64822SOL     OW96239  13.195   2.335   6.299
64822SOL    HW196240  13.129   2.291   6.352
64822SOL    HW296241  13.247   2.264   6.261
64823SOL     OW96242  12.179  11.155  13.976
64823SOL    HW196243  12.184  11.133  14.069
64823SOL    HW296244  12.118  11.228  13.973
64824SOL     OW96245  10.452   2.214  12.792
64824SOL    HW196246  10.433   2.265  12.870
64824SOL    HW296247  10.460   2.280  12.722
64825SOL     OW96248   6.014   0.872   3.495
64825SOL    HW196249   6.011   0.785   3.536
64825SOL    HW296250   6.045   0.930   3.565
64826SOL     OW96251  12.323   8.315   8.541
64826SOL    HW196252  12.372   8.289   8.619
64826SOL    HW296253  12.233   8.320   8.570
64827SOL     OW96254   6.473   2.569   0.881
64827SOL    HW196255   6.559   2.562   0.839
64827SOL    HW296256   6.445   2.479   0.893
64828SOL     OW96257   9.838   7.511  10.335
64828SOL    HW196258   9.919   7.493  10.285
64828SOL    HW296259   9.868   7.559  10.412
64829SOL     OW96260   2.636  13.108   3.720
64829SOL    HW196261   2.687  13.030   3.698
64829SOL    HW296262   2.683  13.180   3.678
64830SOL     OW96263   4.235   9.798  11.533
64830SOL    HW196264   4.150   9.784  11.575
64830SOL    HW296265   4.243   9.726  11.471
64831SOL     OW96266  14.096   6.366  13.839
64831SOL    HW196267  14.084   6.272  13.855
64831SOL    HW296268  14.152   6.370  13.761
64832SOL     OW96269   3.498   8.376  14.687
64832SOL    HW196270   3.488   8.471  14.685
64832SOL    HW296271   3.418   8.343  14.645
64833SOL     OW96272   7.912  11.165   6.408
64833SOL    HW196273   7.839  11.218   6.439
64833SOL    HW296274   7.973  11.163   6.482
64834SOL     OW96275  13.898  11.502  14.052
64834SOL    HW196276  13.809  11.490  14.086
64834SOL    HW296277  13.946  11.426  14.083
64835SOL     OW96278  12.680  10.254   1.267
64835SOL    HW196279  12.740  10.322   1.296
64835SOL    HW296280  12.690  10.184   1.331
64836SOL     OW96281   2.223  12.721   2.457
64836SOL    HW196282   2.269  12.732   2.374
64836SOL    HW296283   2.159  12.652   2.440
64837SOL     OW96284   3.135  12.969   1.150
64837SOL    HW196285   3.148  12.874   1.145
64837SOL    HW296286   3.079  12.990   1.076
64838SOL     OW96287  11.708   6.923  13.299
64838SOL    HW196288  11.630   6.974  13.277
64838SOL    HW296289  11.776   6.956  13.240
64839SOL     OW96290   1.547   0.868   4.979
64839SOL    HW196291   1.490   0.945   4.977
64839SOL    HW296292   1.579   0.865   5.069
64840SOL     OW96293   9.809   5.215   0.511
64840SOL    HW196294   9.821   5.136   0.563
64840SOL    HW296295   9.894   5.228   0.468
64841SOL     OW96296   1.601   1.141  10.822
64841SOL    HW196297   1.554   1.184  10.893
64841SOL    HW296298   1.689   1.178  10.826
64842SOL     OW96299  12.263  14.127  13.597
64842SOL    HW196300  12.271  14.207  13.545
64842SOL    HW296301  12.177  14.092  13.575
64843SOL     OW96302   3.498   2.780   8.486
64843SOL    HW196303   3.483   2.845   8.418
64843SOL    HW296304   3.533   2.704   8.440
64844SOL     OW96305   9.142   6.706   7.625
64844SOL    HW196306   9.081   6.643   7.589
64844SOL    HW296307   9.105   6.792   7.602
64845SOL     OW96308   2.780  14.767   3.299
64845SOL    HW196309   2.762  14.721   3.217
64845SOL    HW296310   2.708  14.744   3.357
64846SOL     OW96311   1.003   5.900  11.417
64846SOL    HW196312   0.942   5.852  11.361
64846SOL    HW296313   1.000   5.990  11.383
64847SOL     OW96314   7.716   8.621  13.890
64847SOL    HW196315   7.651   8.687  13.914
64847SOL    HW296316   7.791   8.638  13.947
64848SOL     OW96317   2.723  14.555  10.702
64848SOL    HW196318   2.740  14.498  10.628
64848SOL    HW296319   2.774  14.518  10.774
64849SOL     OW96320  12.520  10.951  14.139
64849SOL    HW196321  12.577  10.874  14.141
64849SOL    HW296322  12.566  11.016  14.192
64850SOL     OW96323  11.396   9.027  14.865
64850SOL    HW196324  11.409   9.120  14.847
64850SOL    HW296325  11.360   9.025   0.076
64851SOL     OW96326  13.649   5.522   2.693
64851SOL    HW196327  13.613   5.444   2.733
64851SOL    HW296328  13.723   5.491   2.640
64852SOL     OW96329   4.968  13.510   7.254
64852SOL    HW196330   4.904  13.576   7.228
64852SOL    HW296331   5.031  13.507   7.182
64853SOL     OW96332  10.207   9.621   6.982
64853SOL    HW196333  10.196   9.634   6.887
64853SOL    HW296334  10.276   9.683   7.006
64854SOL     OW96335  13.798  11.440   2.994
64854SOL    HW196336  13.716  11.390   2.995
64854SOL    HW296337  13.799  11.485   3.078
64855SOL     OW96338  11.581   1.338   1.161
64855SOL    HW196339  11.646   1.314   1.095
64855SOL    HW296340  11.590   1.270   1.228
64856SOL     OW96341   5.953   6.804  13.259
64856SOL    HW196342   5.928   6.730  13.203
64856SOL    HW296343   5.943   6.770  13.348
64857SOL     OW96344   8.886   8.287  13.542
64857SOL    HW196345   8.811   8.276  13.483
64857SOL    HW296346   8.955   8.324  13.486
64858SOL     OW96347  11.353  14.822  11.099
64858SOL    HW196348  11.337  14.823  11.193
64858SOL    HW296349  11.448  14.835  11.091
64859SOL     OW96350  14.819  11.024   0.729
64859SOL    HW196351   0.001  10.960   0.767
64859SOL    HW296352  14.824  11.100   0.786
64860SOL     OW96353   9.074   2.297   0.792
64860SOL    HW196354   9.070   2.219   0.846
64860SOL    HW296355   8.996   2.348   0.817
64861SOL     OW96356   8.423   5.063   0.881
64861SOL    HW196357   8.490   5.036   0.945
64861SOL    HW296358   8.450   5.150   0.853
64862SOL     OW96359   8.962   1.995  14.652
64862SOL    HW196360   8.990   2.065  14.712
64862SOL    HW296361   9.011   1.918  14.680
64863SOL     OW96362   5.699  13.361  10.441
64863SOL    HW196363   5.619  13.351  10.390
64863SOL    HW296364   5.737  13.274  10.445
64864SOL     OW96365   0.452   6.404   4.891
64864SOL    HW196366   0.509   6.479   4.873
64864SOL    HW296367   0.384   6.409   4.824
64865SOL     OW96368   7.339   2.885   5.611
64865SOL    HW196369   7.341   2.963   5.667
64865SOL    HW296370   7.268   2.832   5.648
64866SOL     OW96371   1.044   8.252   6.697
64866SOL    HW196372   1.078   8.194   6.629
64866SOL    HW296373   1.117   8.310   6.718
64867SOL     OW96374   2.699   2.396   2.171
64867SOL    HW196375   2.637   2.402   2.243
64867SOL    HW296376   2.691   2.479   2.124
64868SOL     OW96377   4.598   7.230   6.394
64868SOL    HW196378   4.515   7.197   6.360
64868SOL    HW296379   4.655   7.154   6.397
64869SOL     OW96380   3.095   1.343   1.754
64869SOL    HW196381   3.116   1.259   1.794
64869SOL    HW296382   3.172   1.398   1.771
64870SOL     OW96383  12.849   4.451  11.289
64870SOL    HW196384  12.825   4.416  11.375
64870SOL    HW296385  12.776   4.507  11.264
64871SOL     OW96386  10.411   1.094   1.788
64871SOL    HW196387  10.327   1.089   1.743
64871SOL    HW296388  10.434   1.187   1.787
64872SOL     OW96389   2.086   4.410  13.009
64872SOL    HW196390   2.056   4.412  12.919
64872SOL    HW296391   2.007   4.398  13.061
64873SOL     OW96392   8.864   8.644   0.011
64873SOL    HW196393   8.951   8.652   0.050
64873SOL    HW296394   8.866   8.559  14.844
64874SOL     OW96395  10.792  11.572   1.143
64874SOL    HW196396  10.848  11.541   1.072
64874SOL    HW296397  10.769  11.661   1.118
64875SOL     OW96398  13.460   9.122  10.810
64875SOL    HW196399  13.444   9.035  10.847
64875SOL    HW296400  13.372   9.159  10.797
64876SOL     OW96401   2.957  11.548   6.442
64876SOL    HW196402   3.037  11.519   6.486
64876SOL    HW296403   2.968  11.519   6.351
64877SOL     OW96404   3.079   6.397  13.794
64877SOL    HW196405   3.116   6.333  13.855
64877SOL    HW296406   3.151   6.458  13.777
64878SOL     OW96407  10.716  13.869   7.173
64878SOL    HW196408  10.783  13.925   7.133
64878SOL    HW296409  10.652  13.854   7.104
64879SOL     OW96410   4.408   4.718   0.779
64879SOL    HW196411   4.394   4.801   0.733
64879SOL    HW296412   4.503   4.708   0.783
64880SOL     OW96413   1.277   4.453   6.026
64880SOL    HW196414   1.346   4.416   6.081
64880SOL    HW296415   1.297   4.546   6.022
64881SOL     OW96416   8.733   7.346   6.294
64881SOL    HW196417   8.724   7.287   6.220
64881SOL    HW296418   8.760   7.430   6.256
64882SOL     OW96419   0.089   0.353  13.960
64882SOL    HW196420   0.066   0.364  13.868
64882SOL    HW296421   0.015   0.390  14.009
64883SOL     OW96422   9.037   9.630   1.845
64883SOL    HW196423   9.016   9.723   1.836
64883SOL    HW296424   9.007   9.607   1.932
64884SOL     OW96425   8.517   3.212   8.913
64884SOL    HW196426   8.583   3.280   8.918
64884SOL    HW296427   8.526   3.163   8.995
64885SOL     OW96428   1.158  11.810   4.650
64885SOL    HW196429   1.174  11.808   4.555
64885SOL    HW296430   1.108  11.891   4.663
64886SOL     OW96431   8.985  10.279  13.251
64886SOL    HW196432   9.005  10.372  13.260
64886SOL    HW296433   8.956  10.252  13.338
64887SOL     OW96434   7.405   5.647   6.356
64887SOL    HW196435   7.358   5.682   6.432
64887SOL    HW296436   7.459   5.720   6.326
64888SOL     OW96437   5.539   1.645   4.127
64888SOL    HW196438   5.589   1.599   4.194
64888SOL    HW296439   5.478   1.700   4.176
64889SOL     OW96440   0.348   4.432   4.308
64889SOL    HW196441   0.427   4.390   4.275
64889SOL    HW296442   0.284   4.361   4.313
64890SOL     OW96443   3.127  12.603   9.037
64890SOL    HW196444   3.212  12.632   9.003
64890SOL    HW296445   3.106  12.667   9.105
64891SOL     OW96446   4.274  11.654   4.466
64891SOL    HW196447   4.199  11.698   4.426
64891SOL    HW296448   4.237  11.574   4.504
64892SOL     OW96449  13.287  10.668   1.326
64892SOL    HW196450  13.278  10.728   1.253
64892SOL    HW296451  13.284  10.581   1.286
64893SOL     OW96452   2.246   4.592   3.571
64893SOL    HW196453   2.283   4.628   3.490
64893SOL    HW296454   2.302   4.626   3.641
64894SOL     OW96455   5.079   5.938  13.839
64894SOL    HW196456   5.109   6.009  13.783
64894SOL    HW296457   5.120   5.954  13.923
64895SOL     OW96458   6.659  13.756  13.691
64895SOL    HW196459   6.596  13.684  13.695
64895SOL    HW296460   6.630  13.810  13.617
64896SOL     OW96461   1.050   7.383   4.363
64896SOL    HW196462   1.142   7.397   4.341
64896SOL    HW296463   1.008   7.467   4.346
64897SOL     OW96464   3.353   3.612  13.438
64897SOL    HW196465   3.390   3.546  13.496
64897SOL    HW296466   3.258   3.598  13.442
64898SOL     OW96467   9.420   9.344   8.095
64898SOL    HW196468   9.399   9.373   8.184
64898SOL    HW296469   9.515   9.351   8.090
64899SOL     OW96470   8.313   6.893   2.158
64899SOL    HW196471   8.283   6.823   2.100
64899SOL    HW296472   8.238   6.909   2.215
64900SOL     OW96473   5.536   0.101   1.342
64900SOL    HW196474   5.523   0.041   1.416
64900SOL    HW296475   5.607   0.060   1.292
64901SOL     OW96476   3.846  14.271   4.439
64901SOL    HW196477   3.771  14.212   4.431
64901SOL    HW296478   3.909  14.222   4.493
64902SOL     OW96479   4.159  14.109  12.037
64902SOL    HW196480   4.186  14.057  12.113
64902SOL    HW296481   4.178  14.200  12.062
64903SOL     OW96482   1.093   2.154  11.550
64903SOL    HW196483   1.025   2.126  11.488
64903SOL    HW296484   1.046   2.207  11.614
64904SOL     OW96485  11.470   5.720  10.014
64904SOL    HW196486  11.527   5.666  10.069
64904SOL    HW296487  11.479   5.682   9.926
64905SOL     OW96488   7.416   1.064   2.878
64905SOL    HW196489   7.399   1.089   2.968
64905SOL    HW296490   7.511   1.069   2.869
64906SOL     OW96491   9.030  12.086   1.676
64906SOL    HW196492   9.092  12.152   1.646
64906SOL    HW296493   9.061  12.004   1.637
64907SOL     OW96494  10.805   6.312  11.180
64907SOL    HW196495  10.828   6.393  11.135
64907SOL    HW296496  10.720   6.288  11.145
64908SOL     OW96497   4.072   4.556   6.669
64908SOL    HW196498   4.114   4.581   6.751
64908SOL    HW296499   4.082   4.632   6.613
64909SOL     OW96500  11.221   6.496   2.942
64909SOL    HW196501  11.260   6.551   3.010
64909SOL    HW296502  11.153   6.446   2.988
64910SOL     OW96503   7.078  11.190   2.813
64910SOL    HW196504   7.077  11.278   2.851
64910SOL    HW296505   6.991  11.179   2.775
64911SOL     OW96506   1.178  11.320  11.841
64911SOL    HW196507   1.183  11.233  11.801
64911SOL    HW296508   1.105  11.362  11.795
64912SOL     OW96509   2.301  11.731   9.239
64912SOL    HW196510   2.272  11.640   9.235
64912SOL    HW296511   2.253  11.774   9.169
64913SOL     OW96512   2.862  14.232  12.795
64913SOL    HW196513   2.798  14.302  12.782
64913SOL    HW296514   2.854  14.209  12.887
64914SOL     OW96515  11.367   4.399   6.185
64914SOL    HW196516  11.375   4.380   6.278
64914SOL    HW296517  11.357   4.495   6.181
64915SOL     OW96518  12.918   7.744   5.877
64915SOL    HW196519  12.994   7.744   5.935
64915SOL    HW296520  12.950   7.783   5.796
64916SOL     OW96521  11.750   5.586   4.104
64916SOL    HW196522  11.754   5.519   4.036
64916SOL    HW296523  11.831   5.575   4.153
64917SOL     OW96524  11.896   1.131   7.447
64917SOL    HW196525  11.916   1.186   7.523
64917SOL    HW296526  11.972   1.075   7.437
64918SOL     OW96527   4.060   7.323  13.649
64918SOL    HW196528   4.030   7.281  13.729
64918SOL    HW296529   4.155   7.311  13.650
64919SOL     OW96530  14.418  11.906   0.747
64919SOL    HW196531  14.487  11.973   0.753
64919SOL    HW296532  14.344  11.952   0.707
64920SOL     OW96533   1.961  10.863  12.132
64920SOL    HW196534   1.934  10.772  12.146
64920SOL    HW296535   2.000  10.889  12.215
64921SOL     OW96536  10.154   7.391  12.931
64921SOL    HW196537  10.221   7.388  12.863
64921SOL    HW296538  10.071   7.392  12.883
64922SOL     OW96539  14.418  11.752   0.507
64922SOL    HW196540  14.422  11.818   0.577
64922SOL    HW296541  14.432  11.802   0.427
64923SOL     OW96542   4.449   3.611   2.193
64923SOL    HW196543   4.465   3.556   2.117
64923SOL    HW296544   4.396   3.557   2.251
64924SOL     OW96545   8.813   0.716   1.050
64924SOL    HW196546   8.901   0.753   1.056
64924SOL    HW296547   8.824   0.637   0.997
64925SOL     OW96548   5.878   4.616   1.718
64925SOL    HW196549   5.877   4.641   1.811
64925SOL    HW296550   5.971   4.616   1.694
64926SOL     OW96551   4.733   0.421   7.805
64926SOL    HW196552   4.803   0.473   7.845
64926SOL    HW296553   4.756   0.419   7.712
64927SOL     OW96554   4.539   3.361   8.292
64927SOL    HW196555   4.518   3.412   8.371
64927SOL    HW296556   4.526   3.270   8.319
64928SOL     OW96557   7.197   3.181   7.962
64928SOL    HW196558   7.225   3.131   8.038
64928SOL    HW296559   7.103   3.161   7.954
64929SOL     OW96560   2.013  14.709   8.823
64929SOL    HW196561   1.918  14.706   8.813
64929SOL    HW296562   2.033  14.802   8.835
64930SOL     OW96563   4.131   5.227  11.881
64930SOL    HW196564   4.061   5.266  11.933
64930SOL    HW296565   4.086   5.162  11.826
64931SOL     OW96566   8.590  11.410   5.310
64931SOL    HW196567   8.621  11.492   5.348
64931SOL    HW296568   8.580  11.352   5.385
64932SOL     OW96569   4.414   8.842   9.093
64932SOL    HW196570   4.380   8.835   9.182
64932SOL    HW296571   4.506   8.819   9.100
64933SOL     OW96572   0.408   4.429  11.451
64933SOL    HW196573   0.319   4.463  11.459
64933SOL    HW296574   0.414   4.396  11.361
64934SOL     OW96575  11.791   9.700   4.225
64934SOL    HW196576  11.768   9.775   4.169
64934SOL    HW296577  11.718   9.693   4.286
64935SOL     OW96578   5.192   4.678   2.960
64935SOL    HW196579   5.237   4.732   2.895
64935SOL    HW296580   5.262   4.624   2.998
64936SOL     OW96581   4.538   3.329   4.550
64936SOL    HW196582   4.618   3.308   4.598
64936SOL    HW296583   4.567   3.350   4.462
64937SOL     OW96584   7.407   1.422  13.266
64937SOL    HW196585   7.415   1.344  13.212
64937SOL    HW296586   7.357   1.394  13.343
64938SOL     OW96587  10.841  13.130   3.221
64938SOL    HW196588  10.797  13.088   3.295
64938SOL    HW296589  10.901  13.192   3.261
64939SOL     OW96590   6.802   2.186   0.147
64939SOL    HW196591   6.733   2.125   0.119
64939SOL    HW296592   6.878   2.130   0.161
64940SOL     OW96593   7.053  10.320   5.801
64940SOL    HW196594   7.034  10.371   5.879
64940SOL    HW296595   7.129  10.266   5.824
64941SOL     OW96596   0.262   1.753   3.445
64941SOL    HW196597   0.237   1.661   3.451
64941SOL    HW296598   0.183   1.798   3.415
64942SOL     OW96599  12.293   8.323  12.924
64942SOL    HW196600  12.359   8.389  12.942
64942SOL    HW296601  12.314   8.289  12.837
64943SOL     OW96602   6.550   0.471   0.380
64943SOL    HW196603   6.455   0.476   0.397
64943SOL    HW296604   6.588   0.536   0.438
64944SOL     OW96605   9.065  12.108  10.539
64944SOL    HW196606   9.127  12.035  10.544
64944SOL    HW296607   9.039  12.111  10.447
64945SOL     OW96608   3.816  11.586  13.738
64945SOL    HW196609   3.765  11.577  13.658
64945SOL    HW296610   3.884  11.519  13.730
64946SOL     OW96611   5.313  10.133   6.950
64946SOL    HW196612   5.343  10.078   6.878
64946SOL    HW296613   5.371  10.209   6.948
64947SOL     OW96614   0.596   2.477   0.590
64947SOL    HW196615   0.581   2.569   0.568
64947SOL    HW296616   0.642   2.480   0.673
64948SOL     OW96617  14.494  14.323   0.620
64948SOL    HW196618  14.450  14.272   0.552
64948SOL    HW296619  14.567  14.366   0.574
64949SOL     OW96620   6.909   0.257   0.418
64949SOL    HW196621   6.836   0.199   0.437
64949SOL    HW296622   6.978   0.198   0.385
64950SOL     OW96623   4.153   8.818   9.110
64950SOL    HW196624   4.243   8.848   9.093
64950SOL    HW296625   4.099   8.895   9.091
64951SOL     OW96626  13.093   4.762  10.286
64951SOL    HW196627  13.186   4.781  10.273
64951SOL    HW296628  13.051   4.798  10.207
64952SOL     OW96629   1.562   6.007  11.620
64952SOL    HW196630   1.543   5.914  11.625
64952SOL    HW296631   1.658   6.012  11.622
64953SOL     OW96632   2.221   5.803   0.049
64953SOL    HW196633   2.138   5.794   0.096
64953SOL    HW296634   2.253   5.890   0.072
64954SOL     OW96635   7.111  10.679   8.357
64954SOL    HW196636   7.138  10.707   8.269
64954SOL    HW296637   7.164  10.602   8.375
64955SOL     OW96638   5.750  12.435   6.075
64955SOL    HW196639   5.782  12.420   6.164
64955SOL    HW296640   5.800  12.375   6.021
64956SOL     OW96641   8.357  11.572   2.842
64956SOL    HW196642   8.300  11.625   2.786
64956SOL    HW296643   8.362  11.487   2.799
64957SOL     OW96644  13.062   1.977   3.979
64957SOL    HW196645  13.061   2.003   4.071
64957SOL    HW296646  13.063   1.881   3.982
64958SOL     OW96647   9.898   3.551  13.808
64958SOL    HW196648   9.817   3.595  13.781
64958SOL    HW296649   9.961   3.571  13.739
64959SOL     OW96650   5.896   3.321   3.360
64959SOL    HW196651   5.880   3.306   3.267
64959SOL    HW296652   5.808   3.332   3.397
64960SOL     OW96653   5.723   6.136  14.778
64960SOL    HW196654   5.792   6.177  14.831
64960SOL    HW296655   5.746   6.156  14.688
64961SOL     OW96656   5.710  14.443   9.850
64961SOL    HW196657   5.712  14.450   9.945
64961SOL    HW296658   5.661  14.519   9.820
64962SOL     OW96659   9.457  13.191  10.801
64962SOL    HW196660   9.465  13.250  10.726
64962SOL    HW296661   9.375  13.216  10.843
64963SOL     OW96662   1.685  12.577   4.263
64963SOL    HW196663   1.627  12.507   4.233
64963SOL    HW296664   1.699  12.559   4.356
64964SOL     OW96665   8.960   0.354   6.077
64964SOL    HW196666   9.037   0.319   6.121
64964SOL    HW296667   8.984   0.357   5.984
64965SOL     OW96668  12.152  11.208   3.727
64965SOL    HW196669  12.093  11.259   3.783
64965SOL    HW296670  12.133  11.239   3.638
64966SOL     OW96671  11.492   8.573   8.018
64966SOL    HW196672  11.456   8.626   7.946
64966SOL    HW296673  11.504   8.636   8.090
64967SOL     OW96674   3.553   8.590   4.922
64967SOL    HW196675   3.553   8.663   4.860
64967SOL    HW296676   3.535   8.513   4.869
64968SOL     OW96677  13.561   3.361   4.775
64968SOL    HW196678  13.552   3.419   4.700
64968SOL    HW296679  13.633   3.399   4.826
64969SOL     OW96680   4.334  11.562   0.422
64969SOL    HW196681   4.293  11.543   0.337
64969SOL    HW296682   4.323  11.481   0.473
64970SOL     OW96683  10.844   8.757   7.051
64970SOL    HW196684  10.819   8.806   6.972
64970SOL    HW296685  10.778   8.780   7.116
64971SOL     OW96686   2.167  10.473  10.780
64971SOL    HW196687   2.261  10.464  10.764
64971SOL    HW296688   2.159  10.548  10.839
64972SOL     OW96689   3.909   7.303  12.200
64972SOL    HW196690   4.003   7.286  12.205
64972SOL    HW296691   3.878   7.248  12.128
64973SOL     OW96692   4.002   6.373  14.847
64973SOL    HW196693   4.015   6.334  14.761
64973SOL    HW296694   4.090   6.395  14.877
64974SOL     OW96695   5.680   2.052  14.729
64974SOL    HW196696   5.744   2.002  14.678
64974SOL    HW296697   5.600   2.049  14.677
64975SOL     OW96698   0.011   7.669  13.126
64975SOL    HW196699  14.862   7.646  13.037
64975SOL    HW296700  14.810   7.658  13.179
64976SOL     OW96701   4.973   3.675   5.844
64976SOL    HW196702   4.912   3.723   5.788
64976SOL    HW296703   4.964   3.715   5.931
64977SOL     OW96704  14.094  13.688   8.196
64977SOL    HW196705  14.001  13.702   8.214
64977SOL    HW296706  14.135  13.772   8.214
64978SOL     OW96707   9.786  14.517   5.164
64978SOL    HW196708   9.830  14.506   5.080
64978SOL    HW296709   9.728  14.592   5.151
64979SOL     OW96710  10.120  13.355  12.378
64979SOL    HW196711  10.045  13.368  12.436
64979SOL    HW296712  10.103  13.411  12.303
64980SOL     OW96713   7.027  12.259   2.661
64980SOL    HW196714   6.984  12.206   2.729
64980SOL    HW296715   7.104  12.295   2.705
64981SOL     OW96716   1.986   2.034   4.540
64981SOL    HW196717   2.036   2.101   4.493
64981SOL    HW296718   1.980   1.961   4.478
64982SOL     OW96719   9.853   1.536   3.015
64982SOL    HW196720   9.758   1.537   3.030
64982SOL    HW296721   9.890   1.521   3.102
64983SOL     OW96722  14.068   4.967   3.205
64983SOL    HW196723  14.087   5.060   3.194
64983SOL    HW296724  14.096   4.927   3.122
64984SOL     OW96725   5.436   3.010   5.249
64984SOL    HW196726   5.421   3.103   5.266
64984SOL    HW296727   5.392   2.965   5.320
64985SOL     OW96728   1.053   2.692  13.520
64985SOL    HW196729   1.144   2.660  13.513
64985SOL    HW296730   1.001   2.612  13.532
64986SOL     OW96731  14.456  14.168   6.959
64986SOL    HW196732  14.426  14.142   6.871
64986SOL    HW296733  14.392  14.233   6.987
64987SOL     OW96734   5.080  13.094  12.334
64987SOL    HW196735   5.060  13.176  12.380
64987SOL    HW296736   5.026  13.029  12.378
64988SOL     OW96737   9.659   1.324   2.218
64988SOL    HW196738   9.575   1.353   2.255
64988SOL    HW296739   9.638   1.242   2.174
64989SOL     OW96740  14.194   2.105   6.677
64989SOL    HW196741  14.139   2.065   6.610
64989SOL    HW296742  14.133   2.128   6.747
64990SOL     OW96743   8.893   2.542   4.414
64990SOL    HW196744   8.946   2.495   4.349
64990SOL    HW296745   8.956   2.569   4.480
64991SOL     OW96746   7.841  12.606   0.988
64991SOL    HW196747   7.922  12.561   1.011
64991SOL    HW296748   7.853  12.695   1.023
64992SOL     OW96749   1.812   3.266   7.512
64992SOL    HW196750   1.767   3.334   7.462
64992SOL    HW296751   1.888   3.244   7.459
64993SOL     OW96752  10.432   9.733   9.162
64993SOL    HW196753  10.458   9.815   9.205
64993SOL    HW296754  10.337   9.741   9.152
64994SOL     OW96755  11.102  10.262   8.078
64994SOL    HW196756  11.099  10.313   8.159
64994SOL    HW296757  11.012  10.260   8.048
64995SOL     OW96758  10.379   3.934   1.543
64995SOL    HW196759  10.373   3.948   1.449
64995SOL    HW296760  10.336   3.850   1.558
64996SOL     OW96761   6.752   6.388  14.035
64996SOL    HW196762   6.735   6.449  14.107
64996SOL    HW296763   6.817   6.432  13.980
64997SOL     OW96764  11.454   9.916   1.951
64997SOL    HW196765  11.533   9.951   1.993
64997SOL    HW296766  11.487   9.870   1.874
64998SOL     OW96767  10.837   0.608   9.783
64998SOL    HW196768  10.842   0.559   9.865
64998SOL    HW296769  10.817   0.698   9.810
64999SOL     OW96770   1.491   9.177   0.250
64999SOL    HW196771   1.575   9.208   0.285
64999SOL    HW296772   1.486   9.086   0.277
65000SOL     OW96773  14.533   2.340  12.905
65000SOL    HW196774  14.533   2.426  12.864
65000SOL    HW296775  14.621   2.329  12.941
65001SOL     OW96776   2.411   3.483   2.211
65001SOL    HW196777   2.339   3.538   2.180
65001SOL    HW296778   2.451   3.533   2.282
65002SOL     OW96779   9.909   7.432   0.652
65002SOL    HW196780   9.914   7.346   0.693
65002SOL    HW296781   9.943   7.418   0.563
65003SOL     OW96782   7.155  11.702   6.397
65003SOL    HW196783   7.244  11.730   6.378
65003SOL    HW296784   7.143  11.724   6.490
65004SOL     OW96785   5.547   8.383   6.829
65004SOL    HW196786   5.516   8.350   6.914
65004SOL    HW296787   5.636   8.413   6.846
65005SOL     OW96788   8.166   9.472   4.000
65005SOL    HW196789   8.226   9.533   4.043
65005SOL    HW296790   8.168   9.393   4.055
65006SOL     OW96791   1.204   1.849   8.036
65006SOL    HW196792   1.194   1.755   8.054
65006SOL    HW296793   1.155   1.863   7.954
65007SOL     OW96794   8.787  14.375   4.342
65007SOL    HW196795   8.717  14.434   4.313
65007SOL    HW296796   8.760  14.348   4.430
65008SOL     OW96797   2.906   8.956   6.225
65008SOL    HW196798   2.920   9.044   6.260
65008SOL    HW296799   2.882   8.904   6.301
65009SOL     OW96800  12.434   1.564   4.352
65009SOL    HW196801  12.420   1.639   4.409
65009SOL    HW296802  12.529   1.562   4.337
65010SOL     OW96803  11.582   6.634   9.969
65010SOL    HW196804  11.566   6.624   9.875
65010SOL    HW296805  11.532   6.563  10.010
65011SOL     OW96806   6.978   4.334   6.746
65011SOL    HW196807   7.051   4.316   6.687
65011SOL    HW296808   6.982   4.263   6.811
65012SOL     OW96809   6.239  12.091  10.186
65012SOL    HW196810   6.287  12.174  10.191
65012SOL    HW296811   6.150  12.114  10.212
65013SOL     OW96812   2.142  14.309   7.082
65013SOL    HW196813   2.108  14.375   7.023
65013SOL    HW296814   2.069  14.289   7.141
65014SOL     OW96815  11.003   0.072  14.058
65014SOL    HW196816  10.953   0.110  13.986
65014SOL    HW296817  11.062   0.142  14.086
65015SOL     OW96818  10.855   6.452  12.297
65015SOL    HW196819  10.823   6.447  12.207
65015SOL    HW296820  10.821   6.373  12.340
65016SOL     OW96821  13.025   0.474   3.167
65016SOL    HW196822  13.060   0.438   3.248
65016SOL    HW296823  12.946   0.423   3.150
65017SOL     OW96824  10.902   1.448  10.203
65017SOL    HW196825  10.902   1.353  10.195
65017SOL    HW296826  10.994   1.471  10.218
65018SOL     OW96827   6.619  12.986   4.572
65018SOL    HW196828   6.529  12.985   4.540
65018SOL    HW296829   6.638  13.079   4.588
65019SOL     OW96830   3.886   7.506   8.737
65019SOL    HW196831   3.924   7.570   8.797
65019SOL    HW296832   3.907   7.421   8.777
65020SOL     OW96833   8.614   0.560  13.065
65020SOL    HW196834   8.522   0.562  13.091
65020SOL    HW296835   8.661   0.585  13.144
65021SOL     OW96836   5.730   7.068  13.938
65021SOL    HW196837   5.734   7.107  13.851
65021SOL    HW296838   5.810   7.097  13.981
65022SOL     OW96839   3.824  12.859  10.731
65022SOL    HW196840   3.739  12.857  10.774
65022SOL    HW296841   3.849  12.952  10.731
65023SOL     OW96842   6.870  14.404  11.814
65023SOL    HW196843   6.912  14.362  11.739
65023SOL    HW296844   6.776  14.395  11.797
65024SOL     OW96845  10.042  12.206  12.704
65024SOL    HW196846   9.985  12.267  12.658
65024SOL    HW296847  10.050  12.241  12.793
65025SOL     OW96848  11.902   5.219  12.641
65025SOL    HW196849  11.995   5.227  12.621
65025SOL    HW296850  11.879   5.130  12.615
65026SOL     OW96851   0.316   2.152   1.766
65026SOL    HW196852   0.390   2.206   1.795
65026SOL    HW296853   0.306   2.086   1.835
65027SOL     OW96854   7.915   4.584   4.513
65027SOL    HW196855   8.004   4.551   4.523
65027SOL    HW296856   7.896   4.575   4.419
65028SOL     OW96857   8.569   6.786   4.991
65028SOL    HW196858   8.591   6.870   4.950
65028SOL    HW296859   8.592   6.797   5.083
65029SOL     OW96860   0.569  10.110   4.006
65029SOL    HW196861   0.600  10.117   3.915
65029SOL    HW296862   0.621  10.175   4.054
65030SOL     OW96863  12.577  11.663  11.366
65030SOL    HW196864  12.633  11.677  11.289
65030SOL    HW296865  12.622  11.709  11.437
65031SOL     OW96866   8.080   1.513   5.272
65031SOL    HW196867   8.166   1.527   5.311
65031SOL    HW296868   8.089   1.433   5.221
65032SOL     OW96869  14.390   2.493   3.853
65032SOL    HW196870  14.381   2.490   3.757
65032SOL    HW296871  14.483   2.475   3.868
65033SOL     OW96872   3.658   2.059  14.208
65033SOL    HW196873   3.698   2.033  14.125
65033SOL    HW296874   3.564   2.052  14.193
65034SOL     OW96875   6.448  12.066   8.492
65034SOL    HW196876   6.523  12.016   8.526
65034SOL    HW296877   6.382  12.061   8.561
65035SOL     OW96878  13.038   5.958   9.301
65035SOL    HW196879  13.015   6.047   9.328
65035SOL    HW296880  13.104   5.971   9.233
65036SOL     OW96881   0.005   9.996  13.865
65036SOL    HW196882  14.870  10.078  13.816
65036SOL    HW296883   0.044  10.024  13.948
65037SOL     OW96884  11.663   3.412   1.428
65037SOL    HW196885  11.702   3.480   1.373
65037SOL    HW296886  11.733   3.387   1.489
65038SOL     OW96887   5.690   0.703  11.265
65038SOL    HW196888   5.620   0.704  11.330
65038SOL    HW296889   5.682   0.786  11.218
65039SOL     OW96890   6.951   9.642   3.770
65039SOL    HW196891   6.951   9.602   3.857
65039SOL    HW296892   6.951   9.736   3.787
65040SOL     OW96893   4.404   4.897   6.577
65040SOL    HW196894   4.392   4.802   6.568
65040SOL    HW296895   4.499   4.909   6.579
65041SOL     OW96896   1.159  11.869   6.471
65041SOL    HW196897   1.157  11.801   6.404
65041SOL    HW296898   1.131  11.824   6.551
65042SOL     OW96899   9.678  11.433  14.070
65042SOL    HW196900   9.732  11.403  13.997
65042SOL    HW296901   9.714  11.388  14.146
65043SOL     OW96902   5.918   6.849  11.929
65043SOL    HW196903   5.994   6.906  11.938
65043SOL    HW296904   5.946   6.781  11.867
65044SOL     OW96905   1.527   5.852  10.498
65044SOL    HW196906   1.483   5.800  10.430
65044SOL    HW296907   1.573   5.921  10.449
65045SOL     OW96908  13.251  11.128   9.139
65045SOL    HW196909  13.338  11.159   9.165
65045SOL    HW296910  13.232  11.058   9.201
65046SOL     OW96911   3.695   3.146   1.736
65046SOL    HW196912   3.718   3.195   1.816
65046SOL    HW296913   3.769   3.163   1.677
65047SOL     OW96914   7.933  13.873   0.524
65047SOL    HW196915   7.964  13.958   0.493
65047SOL    HW296916   7.979  13.859   0.606
65048SOL     OW96917   7.691   7.962   9.155
65048SOL    HW196918   7.685   7.867   9.153
65048SOL    HW296919   7.740   7.985   9.076
65049SOL     OW96920  13.719  11.543   0.614
65049SOL    HW196921  13.714  11.542   0.519
65049SOL    HW296922  13.773  11.619   0.635
65050SOL     OW96923   2.844   3.389   1.745
65050SOL    HW196924   2.849   3.483   1.762
65050SOL    HW296925   2.794   3.382   1.663
65051SOL     OW96926   2.347   5.455   4.010
65051SOL    HW196927   2.443   5.455   4.008
65051SOL    HW296928   2.325   5.445   4.103
65052SOL     OW96929   5.866  10.230   4.501
65052SOL    HW196930   5.794  10.275   4.545
65052SOL    HW296931   5.827  10.192   4.422
65053SOL     OW96932  10.092   9.219   9.228
65053SOL    HW196933  10.061   9.290   9.172
65053SOL    HW296934  10.107   9.260   9.313
65054SOL     OW96935  11.408   9.640  11.140
65054SOL    HW196936  11.433   9.731  11.126
65054SOL    HW296937  11.433   9.595  11.059
65055SOL     OW96938   6.316   6.816   6.324
65055SOL    HW196939   6.271   6.806   6.408
65055SOL    HW296940   6.275   6.893   6.284
65056SOL     OW96941   3.470  12.495  14.739
65056SOL    HW196942   3.501  12.585  14.728
65056SOL    HW296943   3.409  12.500  14.812
65057SOL     OW96944   7.877   9.912  10.431
65057SOL    HW196945   7.947   9.847  10.424
65057SOL    HW296946   7.861   9.921  10.525
65058SOL     OW96947   6.606  11.710   2.217
65058SOL    HW196948   6.542  11.704   2.287
65058SOL    HW296949   6.678  11.762   2.255
65059SOL     OW96950   9.460   7.520   5.901
65059SOL    HW196951   9.499   7.460   5.965
65059SOL    HW296952   9.511   7.507   5.822
65060SOL     OW96953   0.141   1.890   3.659
65060SOL    HW196954   0.097   1.953   3.601
65060SOL    HW296955   0.199   1.841   3.600
65061SOL     OW96956   8.218  10.467   0.054
65061SOL    HW196957   8.305  10.430   0.067
65061SOL    HW296958   8.162  10.391   0.035
65062SOL     OW96959  14.852  13.060  10.755
65062SOL    HW196960  14.769  13.014  10.750
65062SOL    HW296961  14.829  13.153  10.750
65063SOL     OW96962  12.961   4.583   5.020
65063SOL    HW196963  12.920   4.581   4.933
65063SOL    HW296964  13.054   4.569   5.003
65064SOL     OW96965   6.863  14.120  12.673
65064SOL    HW196966   6.936  14.164  12.630
65064SOL    HW296967   6.835  14.180  12.741
65065SOL     OW96968   3.305  14.087  13.759
65065SOL    HW196969   3.375  14.043  13.711
65065SOL    HW296970   3.349  14.126  13.835
65066SOL     OW96971   7.698   9.949  11.722
65066SOL    HW196972   7.709  10.018  11.656
65066SOL    HW296973   7.767   9.967  11.786
65067SOL     OW96974   7.909   6.969   8.984
65067SOL    HW196975   7.966   7.046   8.974
65067SOL    HW296976   7.901   6.958   9.079
65068SOL     OW96977   4.489   7.468   6.418
65068SOL    HW196978   4.535   7.540   6.375
65068SOL    HW296979   4.545   7.392   6.402
65069SOL     OW96980   1.807   6.467   8.285
65069SOL    HW196981   1.872   6.521   8.242
65069SOL    HW296982   1.723   6.496   8.247
65070SOL     OW96983   6.247  10.512   6.161
65070SOL    HW196984   6.273  10.593   6.117
65070SOL    HW296985   6.322  10.454   6.152
65071SOL     OW96986   5.843   6.274   3.484
65071SOL    HW196987   5.906   6.281   3.556
65071SOL    HW296988   5.757   6.285   3.526
65072SOL     OW96989   5.707   7.177  11.277
65072SOL    HW196990   5.752   7.095  11.297
65072SOL    HW296991   5.752   7.242  11.330
65073SOL     OW96992   5.882   1.726   0.602
65073SOL    HW196993   5.839   1.720   0.688
65073SOL    HW296994   5.824   1.677   0.543
65074SOL     OW96995   8.053  10.594   5.128
65074SOL    HW196996   8.091  10.670   5.084
65074SOL    HW296997   8.128  10.550   5.169
65075SOL     OW96998   1.523   8.679   1.768
65075SOL    HW196999   1.598   8.621   1.775
65075SOL    HW297000   1.511   8.715   1.856
65076SOL     OW97001   1.427  12.338   7.851
65076SOL    HW197002   1.367  12.412   7.844
65076SOL    HW297003   1.479  12.356   7.929
65077SOL     OW97004  11.814  11.281  12.324
65077SOL    HW197005  11.724  11.311  12.331
65077SOL    HW297006  11.812  11.190  12.351
65078SOL     OW97007   8.833   7.586  13.261
65078SOL    HW197008   8.755   7.604  13.208
65078SOL    HW297009   8.799   7.576  13.350
65079SOL     OW97010   3.476   8.222  11.123
65079SOL    HW197011   3.464   8.127  11.128
65079SOL    HW297012   3.557   8.238  11.171
65080SOL     OW97013   2.500   3.165   1.371
65080SOL    HW197014   2.461   3.105   1.307
65080SOL    HW297015   2.427   3.192   1.427
65081SOL     OW97016   9.430   3.033   8.296
65081SOL    HW197017   9.510   3.083   8.279
65081SOL    HW297018   9.460   2.942   8.299
65082SOL     OW97019   9.695   0.932   8.024
65082SOL    HW197020   9.714   0.940   7.931
65082SOL    HW297021   9.647   1.011   8.046
65083SOL     OW97022   8.932   8.738   3.940
65083SOL    HW197023   8.958   8.664   3.994
65083SOL    HW297024   8.924   8.702   3.852
65084SOL     OW97025   9.337  12.976   8.119
65084SOL    HW197026   9.385  13.052   8.088
65084SOL    HW297027   9.271  13.012   8.179
65085SOL     OW97028   0.329  11.987   7.637
65085SOL    HW197029   0.391  11.955   7.702
65085SOL    HW297030   0.253  11.930   7.647
65086SOL     OW97031   1.422   5.358  13.780
65086SOL    HW197032   1.345   5.377  13.833
65086SOL    HW297033   1.387   5.315  13.702
65087SOL     OW97034   7.210   0.243  12.505
65087SOL    HW197035   7.277   0.311  12.507
65087SOL    HW297036   7.260   0.161  12.502
65088SOL     OW97037   0.103  14.030   5.992
65088SOL    HW197038   0.125  13.945   5.953
65088SOL    HW297039   0.158  14.035   6.070
65089SOL     OW97040   5.003  12.827  13.395
65089SOL    HW197041   5.048  12.893  13.342
65089SOL    HW297042   4.998  12.865  13.482
65090SOL     OW97043   0.092   3.476   5.046
65090SOL    HW197044   0.071   3.568   5.032
65090SOL    HW297045   0.159   3.456   4.981
65091SOL     OW97046   6.606  11.280   7.020
65091SOL    HW197047   6.628  11.291   7.112
65091SOL    HW297048   6.657  11.347   6.974
65092SOL     OW97049  11.803   6.439   1.337
65092SOL    HW197050  11.873   6.376   1.349
65092SOL    HW297051  11.847   6.524   1.339
65093SOL     OW97052  10.813   8.792  14.639
65093SOL    HW197053  10.885   8.736  14.609
65093SOL    HW297054  10.765   8.814  14.559
65094SOL     OW97055   4.752   6.970   0.635
65094SOL    HW197056   4.668   7.013   0.652
65094SOL    HW297057   4.807   7.039   0.597
65095SOL     OW97058   4.126   7.047   2.351
65095SOL    HW197059   4.198   7.048   2.414
65095SOL    HW297060   4.169   7.051   2.265
65096SOL     OW97061  10.262   8.738  10.817
65096SOL    HW197062  10.285   8.746  10.725
65096SOL    HW297063  10.326   8.678  10.854
65097SOL     OW97064  11.506   0.731   9.074
65097SOL    HW197065  11.423   0.779   9.083
65097SOL    HW297066  11.568   0.779   9.129
65098SOL     OW97067  11.840  12.379   5.155
65098SOL    HW197068  11.765  12.324   5.130
65098SOL    HW297069  11.915  12.321   5.150
65099SOL     OW97070   0.891   2.475  13.532
65099SOL    HW197071   0.921   2.412  13.597
65099SOL    HW297072   0.797   2.461  13.526
65100SOL     OW97073  12.250  13.474   8.309
65100SOL    HW197074  12.316  13.424   8.356
65100SOL    HW297075  12.281  13.565   8.314
65101SOL     OW97076   5.509   3.536   0.213
65101SOL    HW197077   5.481   3.621   0.178
65101SOL    HW297078   5.445   3.474   0.179
65102SOL     OW97079   0.050   1.278   3.359
65102SOL    HW197080  14.854   1.339   3.351
65102SOL    HW297081   0.019   1.198   3.318
65103SOL     OW97082  13.452  10.840   6.877
65103SOL    HW197083  13.385  10.819   6.942
65103SOL    HW297084  13.403  10.874   6.803
65104SOL     OW97085   1.742   4.984   5.904
65104SOL    HW197086   1.771   4.952   5.819
65104SOL    HW297087   1.682   4.917   5.937
65105SOL     OW97088   9.812  12.338  10.685
65105SOL    HW197089   9.722  12.371  10.686
65105SOL    HW297090   9.803  12.243  10.691
65106SOL     OW97091   5.675   0.603  10.123
65106SOL    HW197092   5.753   0.658  10.132
65106SOL    HW297093   5.624   0.621  10.202
65107SOL     OW97094  11.403   1.643  11.631
65107SOL    HW197095  11.422   1.618  11.540
65107SOL    HW297096  11.424   1.737  11.634
65108SOL     OW97097  11.397   1.158   0.102
65108SOL    HW197098  11.406   1.223   0.171
65108SOL    HW297099  11.339   1.199   0.038
65109SOL     OW97100  13.152  13.013   6.610
65109SOL    HW197101  13.123  13.009   6.701
65109SOL    HW297102  13.239  13.052   6.615
65110SOL     OW97103   8.483   4.890   3.004
65110SOL    HW197104   8.415   4.956   2.992
65110SOL    HW297105   8.532   4.919   3.080
65111SOL     OW97106   3.051   6.559   3.714
65111SOL    HW197107   3.065   6.653   3.707
65111SOL    HW297108   3.107   6.531   3.787
65112SOL     OW97109   7.813   0.878   5.015
65112SOL    HW197110   7.868   0.919   4.948
65112SOL    HW297111   7.737   0.935   5.022
65113SOL     OW97112  10.785   4.287   5.066
65113SOL    HW197113  10.764   4.357   5.003
65113SOL    HW297114  10.843   4.329   5.130
65114SOL     OW97115   0.538   5.901   2.262
65114SOL    HW197116   0.494   5.945   2.334
65114SOL    HW297117   0.482   5.919   2.186
65115SOL     OW97118  11.739   3.373   6.869
65115SOL    HW197119  11.782   3.290   6.890
65115SOL    HW297120  11.804   3.439   6.893
65116SOL     OW97121  10.260   4.405  14.061
65116SOL    HW197122  10.346   4.363  14.071
65116SOL    HW297123  10.269   4.489  14.107
65117SOL     OW97124  13.982   0.774  13.679
65117SOL    HW197125  13.996   0.740  13.767
65117SOL    HW297126  14.036   0.852  13.674
65118SOL     OW97127  12.668   7.535   6.300
65118SOL    HW197128  12.602   7.534   6.369
65118SOL    HW297129  12.661   7.623   6.263
65119SOL     OW97130   4.233  11.195   4.184
65119SOL    HW197131   4.161  11.143   4.221
65119SOL    HW297132   4.232  11.173   4.091
65120SOL     OW97133   4.126   4.238   3.564
65120SOL    HW197134   4.050   4.188   3.535
65120SOL    HW297135   4.165   4.186   3.634
65121SOL     OW97136  10.074   3.582   5.281
65121SOL    HW197137  10.104   3.552   5.367
65121SOL    HW297138  10.153   3.612   5.237
65122SOL     OW97139   0.611   1.823  14.722
65122SOL    HW197140   0.680   1.889  14.735
65122SOL    HW297141   0.659   1.743  14.700
65123SOL     OW97142  13.499   5.466   9.107
65123SOL    HW197143  13.546   5.397   9.154
65123SOL    HW297144  13.409   5.433   9.100
65124SOL     OW97145   5.816   6.210  14.480
65124SOL    HW197146   5.869   6.288  14.493
65124SOL    HW297147   5.750   6.236  14.416
65125SOL     OW97148   3.246   3.791  12.687
65125SOL    HW197149   3.171   3.846  12.665
65125SOL    HW297150   3.250   3.791  12.782
65126SOL     OW97151   4.042   9.875  10.285
65126SOL    HW197152   3.987   9.825  10.346
65126SOL    HW297153   4.101   9.925  10.341
65127SOL     OW97154   6.306   4.413   9.553
65127SOL    HW197155   6.293   4.335   9.498
65127SOL    HW297156   6.259   4.482   9.507
65128SOL     OW97157   0.125   3.487   7.765
65128SOL    HW197158   0.044   3.538   7.768
65128SOL    HW297159   0.114   3.421   7.834
65129SOL     OW97160  12.013   1.399   0.585
65129SOL    HW197161  12.069   1.459   0.634
65129SOL    HW297162  12.065   1.319   0.575
65130SOL     OW97163   0.825  12.579   1.628
65130SOL    HW197164   0.835  12.674   1.635
65130SOL    HW297165   0.749  12.559   1.682
65131SOL     OW97166   7.545   3.775   7.884
65131SOL    HW197167   7.513   3.799   7.971
65131SOL    HW297168   7.605   3.701   7.900
65132SOL     OW97169   5.552   8.735   1.271
65132SOL    HW197170   5.463   8.760   1.248
65132SOL    HW297171   5.597   8.727   1.186
65133SOL     OW97172  14.201   7.520   7.227
65133SOL    HW197173  14.166   7.431   7.217
65133SOL    HW297174  14.274   7.510   7.287
65134SOL     OW97175   4.863  14.727   5.093
65134SOL    HW197176   4.904  14.670   5.028
65134SOL    HW297177   4.841  14.668   5.165
65135SOL     OW97178   8.422   8.046   1.861
65135SOL    HW197179   8.420   8.123   1.917
65135SOL    HW297180   8.478   7.984   1.907
65136SOL     OW97181   0.074   2.850  14.260
65136SOL    HW197182   0.064   2.932  14.211
65136SOL    HW297183   0.072   2.782  14.193
65137SOL     OW97184   5.958  12.004   0.370
65137SOL    HW197185   5.913  12.029   0.289
65137SOL    HW297186   5.973  11.910   0.361
65138SOL     OW97187   1.026   3.824   1.493
65138SOL    HW197188   1.050   3.866   1.576
65138SOL    HW297189   1.026   3.731   1.512
65139SOL     OW97190   2.724   9.096   0.602
65139SOL    HW197191   2.787   9.105   0.674
65139SOL    HW297192   2.771   9.048   0.535
65140SOL     OW97193  13.385   2.362   8.841
65140SOL    HW197194  13.471   2.371   8.882
65140SOL    HW297195  13.359   2.271   8.859
65141SOL     OW97196   0.313   1.867   1.495
65141SOL    HW197197   0.254   1.798   1.525
65141SOL    HW297198   0.398   1.822   1.485
65142SOL     OW97199  13.271  14.421  11.137
65142SOL    HW197200  13.332  14.390  11.204
65142SOL    HW297201  13.305  14.507  11.112
65143SOL     OW97202   7.386   7.269   8.752
65143SOL    HW197203   7.430   7.353   8.768
65143SOL    HW297204   7.401   7.219   8.832
65144SOL     OW97205   3.884  12.119  13.056
65144SOL    HW197206   3.934  12.039  13.071
65144SOL    HW297207   3.806  12.090  13.009
65145SOL     OW97208  13.137   2.628  10.325
65145SOL    HW197209  13.070   2.562  10.305
65145SOL    HW297210  13.175   2.650  10.240
65146SOL     OW97211   9.926  13.603   4.618
65146SOL    HW197212   9.895  13.691   4.598
65146SOL    HW297213   9.901  13.589   4.709
65147SOL     OW97214  13.739   5.339   7.424
65147SOL    HW197215  13.757   5.246   7.411
65147SOL    HW297216  13.779   5.382   7.349
65148SOL     OW97217   2.351   9.917  13.803
65148SOL    HW197218   2.431   9.968  13.794
65148SOL    HW297219   2.322   9.932  13.893
65149SOL     OW97220   5.397   8.907  10.582
65149SOL    HW197221   5.392   9.000  10.561
65149SOL    HW297222   5.387   8.903  10.677
65150SOL     OW97223  13.885   6.022   9.807
65150SOL    HW197224  13.843   5.947   9.764
65150SOL    HW297225  13.885   6.091   9.740
65151SOL     OW97226   8.713  11.489   6.320
65151SOL    HW197227   8.743  11.411   6.273
65151SOL    HW297228   8.624  11.503   6.287
65152SOL     OW97229   9.469   6.719   7.675
65152SOL    HW197230   9.552   6.716   7.722
65152SOL    HW297231   9.481   6.662   7.599
65153SOL     OW97232  13.149   6.166   7.743
65153SOL    HW197233  13.139   6.192   7.651
65153SOL    HW297234  13.107   6.081   7.749
65154SOL     OW97235   2.049  10.039   4.191
65154SOL    HW197236   2.107  10.076   4.125
65154SOL    HW297237   2.062  10.094   4.268
65155SOL     OW97238   5.471  12.871   0.342
65155SOL    HW197239   5.555  12.914   0.327
65155SOL    HW297240   5.473  12.794   0.285
65156SOL     OW97241   8.916   5.201  12.105
65156SOL    HW197242   8.942   5.293  12.105
65156SOL    HW297243   8.922   5.175  12.013
65157SOL     OW97244   7.039   9.969   8.123
65157SOL    HW197245   6.951  10.006   8.118
65157SOL    HW297246   7.061   9.949   8.032
65158SOL     OW97247   6.937   4.890   3.594
65158SOL    HW197248   6.850   4.915   3.624
65158SOL    HW297249   6.997   4.929   3.658
65159SOL     OW97250   9.294   4.369   3.272
65159SOL    HW197251   9.306   4.336   3.361
65159SOL    HW297252   9.243   4.301   3.228
65160SOL     OW97253   5.595  12.167   1.633
65160SOL    HW197254   5.590  12.197   1.724
65160SOL    HW297255   5.591  12.248   1.581
65161SOL     OW97256   6.357   7.012   4.469
65161SOL    HW197257   6.400   7.016   4.555
65161SOL    HW297258   6.364   6.920   4.443
65162SOL     OW97259  13.477   0.751  10.337
65162SOL    HW197260  13.507   0.783  10.252
65162SOL    HW297261  13.410   0.814  10.364
65163SOL     OW97262  10.625   4.220   5.418
65163SOL    HW197263  10.616   4.284   5.348
65163SOL    HW297264  10.669   4.145   5.377
65164SOL     OW97265  11.087   9.423   3.304
65164SOL    HW197266  11.077   9.517   3.287
65164SOL    HW297267  11.169   9.400   3.260
65165SOL     OW97268  12.033  11.392   4.451
65165SOL    HW197269  12.077  11.417   4.369
65165SOL    HW297270  12.093  11.420   4.520
65166SOL     OW97271   6.982   3.986   7.293
65166SOL    HW197272   6.913   3.936   7.337
65166SOL    HW297273   6.942   4.016   7.212
65167SOL     OW97274   8.882   2.095   3.209
65167SOL    HW197275   8.906   2.156   3.139
65167SOL    HW297276   8.919   2.134   3.288
65168SOL     OW97277   4.707  13.493   5.020
65168SOL    HW197278   4.671  13.435   4.953
65168SOL    HW297279   4.745  13.435   5.085
65169SOL     OW97280  10.746   6.872   2.783
65169SOL    HW197281  10.703   6.957   2.772
65169SOL    HW297282  10.831   6.884   2.740
65170SOL     OW97283  14.436   0.071  11.110
65170SOL    HW197284  14.465   0.091  11.021
65170SOL    HW297285  14.381  14.871  11.100
65171SOL     OW97286   9.661  14.600   9.284
65171SOL    HW197287   9.573  14.614   9.249
65171SOL    HW297288   9.719  14.604   9.207
65172SOL     OW97289  11.539   1.274   7.978
65172SOL    HW197290  11.517   1.194   8.026
65172SOL    HW297291  11.594   1.244   7.905
65173SOL     OW97292   0.590   0.703   2.418
65173SOL    HW197293   0.540   0.725   2.497
65173SOL    HW297294   0.636   0.783   2.396
65174SOL     OW97295   9.603   3.045   5.825
65174SOL    HW197296   9.615   2.951   5.841
65174SOL    HW297297   9.643   3.087   5.900
65175SOL     OW97298  14.009   8.901   3.182
65175SOL    HW197299  14.094   8.902   3.138
65175SOL    HW297300  13.946   8.922   3.114
65176SOL     OW97301   8.686  10.245  13.101
65176SOL    HW197302   8.752  10.301  13.061
65176SOL    HW297303   8.734  10.195  13.167
65177SOL     OW97304   0.539   8.454   0.653
65177SOL    HW197305   0.505   8.468   0.742
65177SOL    HW297306   0.618   8.402   0.666
65178SOL     OW97307   1.830  11.629   9.519
65178SOL    HW197308   1.781  11.662   9.443
65178SOL    HW297309   1.888  11.700   9.544
65179SOL     OW97310  11.428   7.260   1.118
65179SOL    HW197311  11.340   7.279   1.153
65179SOL    HW297312  11.482   7.334   1.147
65180SOL     OW97313   3.959  10.974   9.487
65180SOL    HW197314   4.051  10.998   9.500
65180SOL    HW297315   3.962  10.905   9.421
65181SOL     OW97316  13.742   8.680   5.799
65181SOL    HW197317  13.671   8.616   5.797
65181SOL    HW297318  13.769   8.684   5.890
65182SOL     OW97319   9.951  12.373   2.702
65182SOL    HW197320   9.992  12.459   2.699
65182SOL    HW297321  10.018  12.317   2.741
65183SOL     OW97322  11.800   1.471  10.060
65183SOL    HW197323  11.848   1.473   9.978
65183SOL    HW297324  11.855   1.519  10.122
65184SOL     OW97325   2.857   3.519   8.012
65184SOL    HW197326   2.865   3.517   8.107
65184SOL    HW297327   2.765   3.500   7.995
65185SOL     OW97328   8.996  14.751  10.733
65185SOL    HW197329   9.049  14.708  10.801
65185SOL    HW297330   9.005  14.844  10.753
65186SOL     OW97331   6.981   1.999   2.852
65186SOL    HW197332   7.059   1.943   2.843
65186SOL    HW297333   7.009   2.084   2.820
65187SOL     OW97334  14.066   7.049   1.423
65187SOL    HW197335  14.135   7.115   1.421
65187SOL    HW297336  14.089   6.992   1.496
65188SOL     OW97337   0.851   6.050   1.436
65188SOL    HW197338   0.800   6.036   1.356
65188SOL    HW297339   0.894   5.967   1.452
65189SOL     OW97340  10.625  12.140   1.659
65189SOL    HW197341  10.596  12.130   1.568
65189SOL    HW297342  10.550  12.114   1.712
65190SOL     OW97343   8.388   9.010   1.853
65190SOL    HW197344   8.437   8.942   1.898
65190SOL    HW297345   8.442   9.088   1.861
65191SOL     OW97346  13.300   4.468  11.892
65191SOL    HW197347  13.267   4.542  11.841
65191SOL    HW297348  13.253   4.392  11.857
65192SOL     OW97349  10.153   4.837   5.940
65192SOL    HW197350  10.222   4.830   5.873
65192SOL    HW297351  10.128   4.929   5.937
65193SOL     OW97352  14.555   4.739   4.283
65193SOL    HW197353  14.568   4.747   4.188
65193SOL    HW297354  14.614   4.668   4.309
65194SOL     OW97355   9.310   5.815   8.905
65194SOL    HW197356   9.242   5.825   8.839
65194SOL    HW297357   9.274   5.751   8.967
65195SOL     OW97358  10.189   0.003   7.225
65195SOL    HW197359  10.105   0.045   7.205
65195SOL    HW297360  10.236   0.067   7.277
65196SOL     OW97361   7.633   8.961   0.126
65196SOL    HW197362   7.623   9.043   0.078
65196SOL    HW297363   7.558   8.959   0.186
65197SOL     OW97364   2.809  10.520  10.306
65197SOL    HW197365   2.790  10.601  10.259
65197SOL    HW297366   2.730  10.467  10.296
65198SOL     OW97367   2.937   1.580   5.639
65198SOL    HW197368   2.925   1.536   5.723
65198SOL    HW297369   3.013   1.637   5.653
65199SOL     OW97370  14.054  10.541  11.418
65199SOL    HW197371  14.092  10.453  11.413
65199SOL    HW297372  13.965  10.530  11.383
65200SOL     OW97373   6.585   3.606  10.060
65200SOL    HW197374   6.642   3.556  10.118
65200SOL    HW297375   6.594   3.697  10.088
65201SOL     OW97376   6.184   7.169   5.897
65201SOL    HW197377   6.233   7.184   5.816
65201SOL    HW297378   6.104   7.125   5.870
65202SOL     OW97379  14.776  11.740  13.138
65202SOL    HW197380  14.708  11.686  13.097
65202SOL    HW297381  14.754  11.829  13.113
65203SOL     OW97382   1.729  14.231  12.478
65203SOL    HW197383   1.806  14.199  12.433
65203SOL    HW297384   1.655  14.199  12.426
65204SOL     OW97385   1.880   7.983   8.387
65204SOL    HW197386   1.785   7.984   8.370
65204SOL    HW297387   1.913   8.057   8.336
65205SOL     OW97388   5.916   6.647   4.882
65205SOL    HW197389   5.977   6.616   4.949
65205SOL    HW297390   5.972   6.687   4.815
65206SOL     OW97391   8.176  11.593   4.493
65206SOL    HW197392   8.216  11.578   4.579
65206SOL    HW297393   8.167  11.688   4.487
65207SOL     OW97394   3.401   7.223   6.106
65207SOL    HW197395   3.326   7.199   6.052
65207SOL    HW297396   3.390   7.174   6.187
65208SOL     OW97397   1.733   5.235   6.743
65208SOL    HW197398   1.688   5.154   6.719
65208SOL    HW297399   1.706   5.299   6.677
65209SOL     OW97400   5.560  11.191  10.694
65209SOL    HW197401   5.615  11.221  10.767
65209SOL    HW297402   5.472  11.220  10.718
65210SOL     OW97403   4.981   4.106   0.087
65210SOL    HW197404   5.009   4.175   0.147
65210SOL    HW297405   5.052   4.098   0.024
65211SOL     OW97406  12.774   4.907  14.317
65211SOL    HW197407  12.757   4.836  14.255
65211SOL    HW297408  12.819   4.864  14.390
65212SOL     OW97409   0.128   9.304   8.392
65212SOL    HW197410   0.094   9.381   8.346
65212SOL    HW297411   0.211   9.333   8.429
65213SOL     OW97412   8.582  11.322   9.570
65213SOL    HW197413   8.557  11.374   9.646
65213SOL    HW297414   8.511  11.337   9.507
65214SOL     OW97415  14.619  11.056  12.029
65214SOL    HW197416  14.547  11.074  11.969
65214SOL    HW297417  14.693  11.106  11.993
65215SOL     OW97418  14.570  14.403  11.744
65215SOL    HW197419  14.567  14.418  11.650
65215SOL    HW297420  14.663  14.397  11.765
65216SOL     OW97421   6.877  14.684   7.643
65216SOL    HW197422   6.820  14.747   7.597
65216SOL    HW297423   6.849  14.689   7.734
65217SOL     OW97424  11.107   6.226   1.462
65217SOL    HW197425  11.138   6.242   1.373
65217SOL    HW297426  11.034   6.287   1.473
65218SOL     OW97427  14.421   5.642  14.251
65218SOL    HW197428  14.477   5.568  14.274
65218SOL    HW297429  14.426   5.700  14.328
65219SOL     OW97430   3.056  12.823   7.434
65219SOL    HW197431   2.963  12.847   7.430
65219SOL    HW297432   3.086  12.859   7.517
65220SOL     OW97433   2.809  14.021  11.789
65220SOL    HW197434   2.799  14.116  11.780
65220SOL    HW297435   2.899  14.004  11.761
65221SOL     OW97436   5.892   6.313   6.766
65221SOL    HW197437   5.868   6.314   6.858
65221SOL    HW297438   5.818   6.354   6.721
65222SOL     OW97439   2.779   0.252   6.430
65222SOL    HW197440   2.769   0.249   6.525
65222SOL    HW297441   2.690   0.251   6.396
65223SOL     OW97442   0.549   5.394   6.407
65223SOL    HW197443   0.637   5.369   6.379
65223SOL    HW297444   0.491   5.345   6.349
65224SOL     OW97445   4.765   2.007  12.513
65224SOL    HW197446   4.714   1.936  12.473
65224SOL    HW297447   4.757   2.079  12.450
65225SOL     OW97448  10.933   2.453  12.598
65225SOL    HW197449  10.897   2.369  12.570
65225SOL    HW297450  10.902   2.462  12.688
65226SOL     OW97451   1.882   3.002   9.635
65226SOL    HW197452   1.843   2.920   9.605
65226SOL    HW297453   1.924   2.979   9.718
65227SOL     OW97454   7.121   7.774   0.537
65227SOL    HW197455   7.087   7.710   0.600
65227SOL    HW297456   7.137   7.852   0.590
65228SOL     OW97457  14.360   7.928   9.723
65228SOL    HW197458  14.307   7.909   9.800
65228SOL    HW297459  14.408   7.847   9.705
65229SOL     OW97460   0.815  10.315   8.922
65229SOL    HW197461   0.748  10.303   8.988
65229SOL    HW297462   0.893  10.342   8.971
65230SOL     OW97463   3.927  13.831   4.455
65230SOL    HW197464   4.003  13.776   4.473
65230SOL    HW297465   3.955  13.919   4.482
65231SOL     OW97466   8.716  13.638  12.661
65231SOL    HW197467   8.733  13.548  12.689
65231SOL    HW297468   8.728  13.690  12.741
65232SOL     OW97469   1.380   7.750   6.083
65232SOL    HW197470   1.327   7.696   6.024
65232SOL    HW297471   1.385   7.699   6.164
65233SOL     OW97472   0.660  10.020   1.039
65233SOL    HW197473   0.593   9.991   1.101
65233SOL    HW297474   0.738   9.970   1.062
65234SOL     OW97475   2.067   3.712   7.177
65234SOL    HW197476   2.084   3.789   7.231
65234SOL    HW297477   2.116   3.729   7.096
65235SOL     OW97478  10.161   2.985   4.755
65235SOL    HW197479  10.126   2.940   4.832
65235SOL    HW297480  10.154   2.920   4.685
65236SOL     OW97481   6.969   6.340   6.288
65236SOL    HW197482   6.926   6.268   6.241
65236SOL    HW297483   6.915   6.354   6.365
65237SOL     OW97484   1.017   8.316  12.198
65237SOL    HW197485   0.922   8.302  12.207
65237SOL    HW297486   1.054   8.283  12.280
65238SOL     OW97487   9.420   9.039  14.015
65238SOL    HW197488   9.440   8.977  14.085
65238SOL    HW297489   9.364   8.990  13.955
65239SOL     OW97490   0.161   7.779   5.228
65239SOL    HW197491   0.183   7.854   5.284
65239SOL    HW297492   0.234   7.718   5.241
65240SOL     OW97493  10.197  12.625  12.891
65240SOL    HW197494  10.167  12.535  12.902
65240SOL    HW297495  10.177  12.667  12.974
65241SOL     OW97496   0.453  13.608   4.197
65241SOL    HW197497   0.374  13.587   4.247
65241SOL    HW297498   0.471  13.700   4.217
65242SOL     OW97499  13.293   5.294  13.028
65242SOL    HW197500  13.354   5.287  13.101
65242SOL    HW297501  13.238   5.216  13.035
65243SOL     OW97502   6.524   1.945   1.790
65243SOL    HW197503   6.516   1.992   1.707
65243SOL    HW297504   6.535   1.853   1.765
65244SOL     OW97505  11.097  12.103  14.431
65244SOL    HW197506  11.061  12.190  14.448
65244SOL    HW297507  11.104  12.098  14.335
65245SOL     OW97508   3.915   3.616  10.060
65245SOL    HW197509   3.857   3.547  10.093
65245SOL    HW297510   3.900   3.616   9.965
65246SOL     OW97511  13.403   1.464   9.647
65246SOL    HW197512  13.440   1.491   9.731
65246SOL    HW297513  13.386   1.370   9.657
65247SOL     OW97514   9.824   4.339  12.651
65247SOL    HW197515   9.737   4.362  12.618
65247SOL    HW297516   9.866   4.423  12.668
65248SOL     OW97517   5.231  14.766   1.123
65248SOL    HW197518   5.313  14.722   1.146
65248SOL    HW297519   5.249  14.809   1.040
65249SOL     OW97520   3.344   2.252  14.421
65249SOL    HW197521   3.281   2.323  14.434
65249SOL    HW297522   3.337   2.230  14.328
65250SOL     OW97523   5.496   1.262   3.025
65250SOL    HW197524   5.444   1.218   3.092
65250SOL    HW297525   5.431   1.302   2.967
65251SOL     OW97526   5.154   1.411  12.351
65251SOL    HW197527   5.211   1.470  12.402
65251SOL    HW297528   5.215   1.358  12.300
65252SOL     OW97529  13.233   9.144   6.059
65252SOL    HW197530  13.246   9.081   6.130
65252SOL    HW297531  13.287   9.219   6.084
65253SOL     OW97532   7.457   7.727  13.282
65253SOL    HW197533   7.526   7.786  13.313
65253SOL    HW297534   7.497   7.680  13.210
65254SOL     OW97535   4.261   1.763   6.327
65254SOL    HW197536   4.309   1.835   6.368
65254SOL    HW297537   4.181   1.803   6.294
65255SOL     OW97538   0.999   8.913   2.906
65255SOL    HW197539   1.015   8.901   2.999
65255SOL    HW297540   0.919   8.965   2.901
65256SOL     OW97541   8.523  10.431   1.309
65256SOL    HW197542   8.492  10.342   1.327
65256SOL    HW297543   8.443  10.483   1.302
65257SOL     OW97544  11.011   5.802   1.187
65257SOL    HW197545  11.044   5.715   1.209
65257SOL    HW297546  11.090   5.857   1.185
65258SOL     OW97547   5.707  12.733  14.795
65258SOL    HW197548   5.678  12.811  14.843
65258SOL    HW297549   5.763  12.767  14.726
65259SOL     OW97550   5.006  11.594   2.697
65259SOL    HW197551   5.061  11.517   2.712
65259SOL    HW297552   5.023  11.650   2.772
65260SOL     OW97553  11.249   8.914   1.263
65260SOL    HW197554  11.344   8.916   1.258
65260SOL    HW297555  11.222   8.868   1.183
65261SOL     OW97556   9.689   5.637   8.357
65261SOL    HW197557   9.761   5.575   8.370
65261SOL    HW297558   9.663   5.623   8.266
65262SOL     OW97559   6.602   9.001   1.768
65262SOL    HW197560   6.631   9.092   1.760
65262SOL    HW297561   6.637   8.957   1.691
65263SOL     OW97562   9.506   8.596  11.812
65263SOL    HW197563   9.530   8.688  11.801
65263SOL    HW297564   9.420   8.598  11.854
65264SOL     OW97565   5.696   3.684  12.667
65264SOL    HW197566   5.666   3.775  12.663
65264SOL    HW297567   5.791   3.689  12.653
65265SOL     OW97568   1.381   0.250   8.097
65265SOL    HW197569   1.303   0.276   8.146
65265SOL    HW297570   1.443   0.322   8.111
65266SOL     OW97571   7.494   3.883   3.486
65266SOL    HW197572   7.570   3.928   3.524
65266SOL    HW297573   7.532   3.814   3.431
65267SOL     OW97574   5.064   4.429   2.445
65267SOL    HW197575   5.158   4.446   2.440
65267SOL    HW297576   5.025   4.493   2.386
65268SOL     OW97577   6.048   5.807   3.468
65268SOL    HW197578   5.959   5.841   3.453
65268SOL    HW297579   6.041   5.713   3.451
65269SOL     OW97580   6.060   5.912   5.353
65269SOL    HW197581   5.986   5.855   5.332
65269SOL    HW297582   6.112   5.862   5.415
65270SOL     OW97583  10.039   9.355   5.545
65270SOL    HW197584  10.117   9.410   5.557
65270SOL    HW297585  10.073   9.270   5.518
65271SOL     OW97586   5.728   0.779   9.730
65271SOL    HW197587   5.727   0.805   9.638
65271SOL    HW297588   5.695   0.689   9.730
65272SOL     OW97589   6.271   0.835   3.101
65272SOL    HW197590   6.300   0.887   3.176
65272SOL    HW297591   6.351   0.793   3.068
65273SOL     OW97592   2.090   0.740  10.555
65273SOL    HW197593   2.113   0.681  10.627
65273SOL    HW297594   2.055   0.682  10.487
65274SOL     OW97595   2.745  14.111  13.071
65274SOL    HW197596   2.719  14.085  13.159
65274SOL    HW297597   2.840  14.118  13.075
65275SOL     OW97598   6.167   9.849   4.100
65275SOL    HW197599   6.227   9.785   4.139
65275SOL    HW297600   6.199   9.859   4.010
65276SOL     OW97601  11.663   5.931  12.297
65276SOL    HW197602  11.589   5.896  12.247
65276SOL    HW297603  11.716   5.979  12.232
65277SOL     OW97604   1.637   5.646  10.673
65277SOL    HW197605   1.602   5.562  10.700
65277SOL    HW297606   1.561   5.698  10.649
65278SOL     OW97607  11.435   3.302  11.134
65278SOL    HW197608  11.412   3.356  11.059
65278SOL    HW297609  11.414   3.356  11.210
65279SOL     OW97610   9.418   2.191  12.301
65279SOL    HW197611   9.359   2.197  12.226
65279SOL    HW297612   9.506   2.203  12.264
65280SOL     OW97613  10.198   2.757  13.621
65280SOL    HW197614  10.194   2.766  13.526
65280SOL    HW297615  10.107   2.757  13.649
65281SOL     OW97616  13.528   7.289  13.433
65281SOL    HW197617  13.570   7.205  13.414
65281SOL    HW297618  13.443   7.283  13.389
65282SOL     OW97619   1.426  13.215   2.955
65282SOL    HW197620   1.464  13.227   2.867
65282SOL    HW297621   1.379  13.296   2.972
65283SOL     OW97622  12.281  11.120   5.988
65283SOL    HW197623  12.284  11.075   5.904
65283SOL    HW297624  12.208  11.182   5.980
65284SOL     OW97625  12.568  10.229   3.412
65284SOL    HW197626  12.574  10.141   3.449
65284SOL    HW297627  12.527  10.217   3.326
65285SOL     OW97628  11.018   4.585   6.082
65285SOL    HW197629  11.068   4.655   6.125
65285SOL    HW297630  10.979   4.536   6.154
65286SOL     OW97631   5.835  13.940   0.303
65286SOL    HW197632   5.879  13.971   0.382
65286SOL    HW297633   5.763  13.885   0.335
65287SOL     OW97634  11.166   6.122   3.783
65287SOL    HW197635  11.076   6.089   3.774
65287SOL    HW297636  11.201   6.073   3.858
65288SOL     OW97637   0.388   8.448   4.200
65288SOL    HW197638   0.431   8.438   4.285
65288SOL    HW297639   0.363   8.541   4.197
65289SOL     OW97640   7.194  10.973   0.835
65289SOL    HW197641   7.188  11.049   0.778
65289SOL    HW297642   7.103  10.953   0.857
65290SOL     OW97643   5.516  10.930  14.062
65290SOL    HW197644   5.484  10.842  14.047
65290SOL    HW297645   5.473  10.957  14.144
65291SOL     OW97646  13.853   5.481   8.779
65291SOL    HW197647  13.769   5.490   8.732
65291SOL    HW297648  13.919   5.504   8.713
65292SOL     OW97649  12.154   7.259   0.258
65292SOL    HW197650  12.087   7.217   0.205
65292SOL    HW297651  12.106   7.307   0.325
65293SOL     OW97652   8.434  10.659   6.937
65293SOL    HW197653   8.431  10.750   6.965
65293SOL    HW297654   8.442  10.609   7.019
65294SOL     OW97655   3.424   0.450  13.999
65294SOL    HW197656   3.492   0.387  13.973
65294SOL    HW297657   3.342   0.407  13.975
65295SOL     OW97658   7.298   5.565   8.854
65295SOL    HW197659   7.375   5.532   8.809
65295SOL    HW297660   7.257   5.624   8.792
65296SOL     OW97661  14.090   7.569   3.428
65296SOL    HW197662  14.093   7.632   3.501
65296SOL    HW297663  14.119   7.619   3.352
65297SOL     OW97664  12.161   8.809  13.425
65297SOL    HW197665  12.240   8.773  13.467
65297SOL    HW297666  12.178   8.903  13.420
65298SOL     OW97667   8.077   0.325   7.099
65298SOL    HW197668   8.114   0.237   7.092
65298SOL    HW297669   8.008   0.317   7.164
65299SOL     OW97670  14.692   8.252  10.567
65299SOL    HW197671  14.716   8.194  10.494
65299SOL    HW297672  14.596   8.252  10.566
65300SOL     OW97673   3.997   3.579  11.948
65300SOL    HW197674   3.964   3.564  11.859
65300SOL    HW297675   4.084   3.541  11.948
65301SOL     OW97676  14.091   3.345   1.359
65301SOL    HW197677  14.154   3.275   1.342
65301SOL    HW297678  14.032   3.342   1.284
65302SOL     OW97679  13.474  11.897   0.037
65302SOL    HW197680  13.559  11.941   0.039
65302SOL    HW297681  13.410  11.968   0.035
65303SOL     OW97682   3.028   8.155   6.302
65303SOL    HW197683   3.121   8.135   6.301
65303SOL    HW297684   2.987   8.078   6.341
65304SOL     OW97685   3.168   7.533   2.859
65304SOL    HW197686   3.215   7.516   2.941
65304SOL    HW297687   3.076   7.516   2.881
65305SOL     OW97688  12.530   1.799  13.035
65305SOL    HW197689  12.498   1.782  12.946
65305SOL    HW297690  12.476   1.744  13.091
65306SOL     OW97691   8.752   7.495   0.611
65306SOL    HW197692   8.679   7.454   0.658
65306SOL    HW297693   8.773   7.573   0.663
65307SOL     OW97694   1.987   7.494   1.470
65307SOL    HW197695   1.936   7.554   1.416
65307SOL    HW297696   1.922   7.452   1.527
65308SOL     OW97697  12.946  11.330  10.679
65308SOL    HW197698  12.855  11.319  10.706
65308SOL    HW297699  12.948  11.418  10.640
65309SOL     OW97700  12.669   7.356  11.188
65309SOL    HW197701  12.688   7.436  11.139
65309SOL    HW297702  12.703   7.285  11.134
65310SOL     OW97703   9.175  13.306   3.361
65310SOL    HW197704   9.218  13.221   3.360
65310SOL    HW297705   9.192  13.340   3.449
65311SOL     OW97706   5.211   7.645  11.142
65311SOL    HW197707   5.306   7.649  11.140
65311SOL    HW297708   5.184   7.730  11.176
65312SOL     OW97709  12.562  13.266   1.720
65312SOL    HW197710  12.571  13.172   1.736
65312SOL    HW297711  12.468  13.282   1.721
65313SOL     OW97712  13.782   4.872   4.409
65313SOL    HW197713  13.760   4.784   4.438
65313SOL    HW297714  13.878   4.875   4.411
65314SOL     OW97715  12.477   1.496   6.667
65314SOL    HW197716  12.565   1.530   6.649
65314SOL    HW297717  12.454   1.446   6.589
65315SOL     OW97718   4.249   8.190   5.186
65315SOL    HW197719   4.158   8.165   5.169
65315SOL    HW297720   4.243   8.276   5.226
65316SOL     OW97721   8.670  12.386   7.185
65316SOL    HW197722   8.603  12.451   7.164
65316SOL    HW297723   8.741  12.404   7.124
65317SOL     OW97724   3.190  10.818   8.695
65317SOL    HW197725   3.203  10.913   8.692
65317SOL    HW297726   3.118  10.805   8.757
65318SOL     OW97727   2.150  13.542   1.490
65318SOL    HW197728   2.161  13.500   1.404
65318SOL    HW297729   2.180  13.632   1.476
65319SOL     OW97730   1.382   3.278   9.713
65319SOL    HW197731   1.383   3.253   9.621
65319SOL    HW297732   1.308   3.231   9.750
65320SOL     OW97733   9.406  14.044   5.959
65320SOL    HW197734   9.359  14.125   5.940
65320SOL    HW297735   9.366  13.979   5.901
65321SOL     OW97736   6.117   7.777   3.844
65321SOL    HW197737   6.028   7.771   3.808
65321SOL    HW297738   6.107   7.832   3.922
65322SOL     OW97739   2.883   4.344   3.538
65322SOL    HW197740   2.937   4.302   3.605
65322SOL    HW297741   2.946   4.385   3.478
65323SOL     OW97742  10.157   5.590   4.476
65323SOL    HW197743  10.181   5.680   4.455
65323SOL    HW297744  10.240   5.541   4.469
65324SOL     OW97745   0.595   2.660  13.431
65324SOL    HW197746   0.628   2.660  13.521
65324SOL    HW297747   0.547   2.578  13.423
65325SOL     OW97748   0.752  11.382   9.049
65325SOL    HW197749   0.738  11.477   9.056
65325SOL    HW297750   0.765  11.353   9.139
65326SOL     OW97751   6.355   7.862   1.858
65326SOL    HW197752   6.293   7.934   1.867
65326SOL    HW297753   6.412   7.868   1.934
65327SOL     OW97754  11.431   9.119   7.568
65327SOL    HW197755  11.463   9.173   7.641
65327SOL    HW297756  11.338   9.105   7.587
65328SOL     OW97757   6.697   3.058   1.342
65328SOL    HW197758   6.746   3.139   1.326
65328SOL    HW297759   6.741   2.992   1.289
65329SOL     OW97760   9.144   1.161   8.451
65329SOL    HW197761   9.237   1.142   8.467
65329SOL    HW297762   9.131   1.249   8.484
65330SOL     OW97763   4.557   5.531  12.826
65330SOL    HW197764   4.495   5.527  12.753
65330SOL    HW297765   4.584   5.440  12.839
65331SOL     OW97766   7.244   9.325  10.694
65331SOL    HW197767   7.154   9.304  10.669
65331SOL    HW297768   7.258   9.413  10.661
65332SOL     OW97769  10.197  12.080  14.868
65332SOL    HW197770  10.219  12.072   0.084
65332SOL    HW297771  10.266  12.030  14.823
65333SOL     OW97772   2.204   5.119   5.637
65333SOL    HW197773   2.263   5.099   5.563
65333SOL    HW297774   2.118   5.088   5.607
65334SOL     OW97775   6.574   9.568  13.993
65334SOL    HW197776   6.513   9.498  14.015
65334SOL    HW297777   6.563   9.580  13.899
65335SOL     OW97778  11.080   3.685   3.092
65335SOL    HW197779  11.075   3.691   2.997
65335SOL    HW297780  10.995   3.648   3.118
65336SOL     OW97781   7.645   8.799  11.263
65336SOL    HW197782   7.619   8.831  11.177
65336SOL    HW297783   7.577   8.735  11.286
65337SOL     OW97784   2.036  14.839  14.738
65337SOL    HW197785   2.044   0.053  14.710
65337SOL    HW297786   2.029  14.843  14.833
65338SOL     OW97787   8.122  11.361   9.612
65338SOL    HW197788   8.084  11.311   9.684
65338SOL    HW297789   8.208  11.389   9.644
65339SOL     OW97790   7.303  13.295   0.186
65339SOL    HW197791   7.372  13.318   0.248
65339SOL    HW297792   7.241  13.369   0.191
65340SOL     OW97793   3.729   7.968  11.208
65340SOL    HW197794   3.721   8.063  11.216
65340SOL    HW297795   3.720   7.951  11.114
65341SOL     OW97796   9.036   4.980   5.324
65341SOL    HW197797   9.107   4.919   5.345
65341SOL    HW297798   8.963   4.953   5.380
65342SOL     OW97799   3.410  14.458  12.480
65342SOL    HW197800   3.480  14.429  12.538
65342SOL    HW297801   3.444  14.443  12.392
65343SOL     OW97802   8.439   1.382   0.548
65343SOL    HW197803   8.529   1.362   0.523
65343SOL    HW297804   8.410   1.449   0.485
65344SOL     OW97805   4.053   6.447   6.865
65344SOL    HW197806   4.125   6.404   6.911
65344SOL    HW297807   4.030   6.387   6.794
65345SOL     OW97808   3.444   3.680   9.023
65345SOL    HW197809   3.401   3.663   8.938
65345SOL    HW297810   3.382   3.737   9.069
65346SOL     OW97811   2.958   5.204  11.338
65346SOL    HW197812   2.943   5.267  11.409
65346SOL    HW297813   2.886   5.141  11.347
65347SOL     OW97814  13.028   9.134   7.112
65347SOL    HW197815  12.957   9.111   7.173
65347SOL    HW297816  13.054   9.051   7.072
65348SOL     OW97817   7.661   6.051  12.840
65348SOL    HW197818   7.576   6.083  12.871
65348SOL    HW297819   7.643   5.963  12.807
65349SOL     OW97820   8.331   1.851  14.323
65349SOL    HW197821   8.381   1.800  14.387
65349SOL    HW297822   8.240   1.829  14.342
65350SOL     OW97823  14.601  11.128   6.040
65350SOL    HW197824  14.638  11.061   5.983
65350SOL    HW297825  14.517  11.150   6.001
65351SOL     OW97826   3.751   4.223   0.934
65351SOL    HW197827   3.755   4.295   0.871
65351SOL    HW297828   3.804   4.253   1.007
65352SOL     OW97829  12.785   4.578  11.964
65352SOL    HW197830  12.827   4.619  12.040
65352SOL    HW297831  12.833   4.495  11.952
65353SOL     OW97832   1.286   7.372   0.111
65353SOL    HW197833   1.221   7.436   0.140
65353SOL    HW297834   1.286   7.379   0.016
65354SOL     OW97835   5.926   1.227   1.160
65354SOL    HW197836   5.996   1.290   1.143
65354SOL    HW297837   5.940   1.201   1.251
65355SOL     OW97838  13.856   2.161   9.261
65355SOL    HW197839  13.870   2.255   9.253
65355SOL    HW297840  13.911   2.135   9.335
65356SOL     OW97841  14.260   3.487  13.785
65356SOL    HW197842  14.259   3.521  13.874
65356SOL    HW297843  14.301   3.400  13.792
65357SOL     OW97844   9.605   0.807   5.737
65357SOL    HW197845   9.591   0.813   5.642
65357SOL    HW297846   9.680   0.747   5.745
65358SOL     OW97847   4.789   4.231  12.383
65358SOL    HW197848   4.738   4.184  12.317
65358SOL    HW297849   4.766   4.323  12.369
65359SOL     OW97850   8.218  11.455   3.545
65359SOL    HW197851   8.141  11.488   3.499
65359SOL    HW297852   8.233  11.518   3.615
65360SOL     OW97853   1.806   0.220   3.212
65360SOL    HW197854   1.728   0.169   3.190
65360SOL    HW297855   1.830   0.263   3.129
65361SOL     OW97856   8.296   0.454   1.073
65361SOL    HW197857   8.253   0.535   1.047
65361SOL    HW297858   8.388   0.477   1.083
65362SOL     OW97859   3.371  14.011   6.234
65362SOL    HW197860   3.299  14.033   6.175
65362SOL    HW297861   3.450  14.036   6.186
65363SOL     OW97862   1.350   1.359  10.297
65363SOL    HW197863   1.308   1.324  10.219
65363SOL    HW297864   1.434   1.313  10.301
65364SOL     OW97865   4.287   1.027  10.862
65364SOL    HW197866   4.226   1.011  10.933
65364SOL    HW297867   4.233   1.019  10.782
65365SOL     OW97868   8.045   0.869   3.447
65365SOL    HW197869   8.060   0.935   3.514
65365SOL    HW297870   7.950   0.856   3.447
65366SOL     OW97871   0.988   4.654   9.660
65366SOL    HW197872   0.987   4.740   9.702
65366SOL    HW297873   0.900   4.644   9.624
65367SOL     OW97874   7.134  11.063   0.118
65367SOL    HW197875   7.052  11.074   0.166
65367SOL    HW297876   7.190  11.012   0.177
65368SOL     OW97877   8.604  12.042   5.240
65368SOL    HW197878   8.573  12.111   5.182
65368SOL    HW297879   8.683  12.077   5.280
65369SOL     OW97880   9.971   6.886   5.964
65369SOL    HW197881   9.916   6.962   5.985
65369SOL    HW297882   9.973   6.836   6.046
65370SOL     OW97883   1.793   4.528  14.030
65370SOL    HW197884   1.861   4.563  14.086
65370SOL    HW297885   1.727   4.597  14.026
65371SOL     OW97886   7.219   0.723   4.147
65371SOL    HW197887   7.131   0.760   4.161
65371SOL    HW297888   7.212   0.632   4.176
65372SOL     OW97889   8.486   0.316   8.026
65372SOL    HW197890   8.514   0.333   8.116
65372SOL    HW297891   8.567   0.291   7.980
65373SOL     OW97892   3.094  13.510   4.081
65373SOL    HW197893   3.045  13.518   3.999
65373SOL    HW297894   3.087  13.597   4.121
65374SOL     OW97895   7.219  11.755   9.166
65374SOL    HW197896   7.220  11.750   9.070
65374SOL    HW297897   7.140  11.805   9.186
65375SOL     OW97898   3.275  10.929  10.302
65375SOL    HW197899   3.300  10.929  10.210
65375SOL    HW297900   3.289  10.839  10.330
65376SOL     OW97901  12.847  12.355   1.711
65376SOL    HW197902  12.841  12.450   1.719
65376SOL    HW297903  12.804  12.321   1.790
65377SOL     OW97904   5.410  10.864   4.575
65377SOL    HW197905   5.345  10.895   4.638
65377SOL    HW297906   5.476  10.821   4.628
65378SOL     OW97907  12.942  12.279   6.815
65378SOL    HW197908  12.970  12.351   6.758
65378SOL    HW297909  13.020  12.226   6.828
65379SOL     OW97910   3.450   7.891   5.596
65379SOL    HW197911   3.484   7.872   5.509
65379SOL    HW297912   3.381   7.956   5.581
65380SOL     OW97913  10.658   4.358   4.063
65380SOL    HW197914  10.613   4.276   4.044
65380SOL    HW297915  10.595   4.407   4.117
65381SOL     OW97916  10.798   1.803  10.580
65381SOL    HW197917  10.810   1.759  10.496
65381SOL    HW297918  10.858   1.878  10.576
65382SOL     OW97919   5.803   6.390   3.026
65382SOL    HW197920   5.898   6.396   3.017
65382SOL    HW297921   5.783   6.299   3.005
65383SOL     OW97922  14.021   8.650   6.429
65383SOL    HW197923  13.993   8.644   6.520
65383SOL    HW297924  14.007   8.562   6.394
65384SOL     OW97925   8.083   0.512   1.315
65384SOL    HW197926   8.078   0.445   1.383
65384SOL    HW297927   8.091   0.464   1.233
65385SOL     OW97928   5.270   1.574  10.655
65385SOL    HW197929   5.294   1.533  10.738
65385SOL    HW297930   5.346   1.561  10.598
65386SOL     OW97931   2.668   0.170  11.568
65386SOL    HW197932   2.649   0.095  11.624
65386SOL    HW297933   2.712   0.132  11.491
65387SOL     OW97934   6.579   7.067   9.061
65387SOL    HW197935   6.510   7.122   9.097
65387SOL    HW297936   6.583   6.991   9.118
65388SOL     OW97937   9.087  10.723   9.996
65388SOL    HW197938   9.126  10.648   9.950
65388SOL    HW297939   9.159  10.762  10.044
65389SOL     OW97940   1.089  11.734  14.522
65389SOL    HW197941   1.035  11.714  14.599
65389SOL    HW297942   1.159  11.789  14.557
65390SOL     OW97943  11.127   4.265   4.452
65390SOL    HW197944  11.133   4.230   4.540
65390SOL    HW297945  11.117   4.188   4.396
65391SOL     OW97946   5.716   8.627   2.879
65391SOL    HW197947   5.668   8.550   2.908
65391SOL    HW297948   5.653   8.699   2.883
65392SOL     OW97949  11.667   5.731   3.003
65392SOL    HW197950  11.681   5.681   3.083
65392SOL    HW297951  11.727   5.692   2.940
65393SOL     OW97952  14.160   9.958   8.271
65393SOL    HW197953  14.117   9.932   8.352
65393SOL    HW297954  14.253   9.962   8.294
65394SOL     OW97955   1.485   2.012   0.795
65394SOL    HW197956   1.481   1.993   0.888
65394SOL    HW297957   1.419   1.954   0.756
65395SOL     OW97958   8.187   7.945   6.147
65395SOL    HW197959   8.190   7.973   6.238
65395SOL    HW297960   8.201   8.025   6.096
65396SOL     OW97961   6.940   1.661   4.634
65396SOL    HW197962   6.912   1.714   4.709
65396SOL    HW297963   6.883   1.689   4.562
65397SOL     OW97964  13.928  13.807   1.780
65397SOL    HW197965  13.856  13.797   1.843
65397SOL    HW297966  13.926  13.727   1.728
65398SOL     OW97967   1.781   7.771   0.306
65398SOL    HW197968   1.714   7.833   0.278
65398SOL    HW297969   1.786   7.784   0.401
65399SOL     OW97970  13.641   0.950   5.382
65399SOL    HW197971  13.677   0.923   5.467
65399SOL    HW297972  13.599   1.034   5.400
65400SOL     OW97973   7.295  11.019   2.739
65400SOL    HW197974   7.258  10.959   2.804
65400SOL    HW297975   7.219  11.063   2.701
65401SOL     OW97976   5.932   8.305   7.628
65401SOL    HW197977   6.025   8.311   7.651
65401SOL    HW297978   5.929   8.240   7.558
65402SOL     OW97979  12.145  11.839   0.685
65402SOL    HW197980  12.141  11.835   0.780
65402SOL    HW297981  12.084  11.909   0.661
65403SOL     OW97982   8.404  10.248  10.810
65403SOL    HW197983   8.454  10.205  10.741
65403SOL    HW297984   8.327  10.284  10.765
65404SOL     OW97985  13.821   8.013   9.239
65404SOL    HW197986  13.743   7.977   9.279
65404SOL    HW297987  13.864   7.937   9.199
65405SOL     OW97988   3.027   0.219   8.305
65405SOL    HW197989   3.110   0.262   8.286
65405SOL    HW297990   3.037   0.131   8.270
65406SOL     OW97991   5.723  13.337   2.747
65406SOL    HW197992   5.632  13.336   2.777
65406SOL    HW297993   5.716  13.332   2.651
65407SOL     OW97994  13.038  12.204  10.017
65407SOL    HW197995  12.947  12.180  10.032
65407SOL    HW297996  13.082  12.186  10.100
65408SOL     OW97997   1.353   1.866  14.197
65408SOL    HW197998   1.345   1.910  14.112
65408SOL    HW297999   1.317   1.928  14.260
65409SOL     OW98000   2.817   6.233   0.420
65409SOL    HW198001   2.813   6.271   0.332
65409SOL    HW298002   2.899   6.184   0.421
65410SOL     OW98003   7.745   7.404   7.811
65410SOL    HW198004   7.713   7.487   7.774
65410SOL    HW298005   7.672   7.343   7.800
65411SOL     OW98006  14.030   0.425   8.127
65411SOL    HW198007  14.004   0.338   8.158
65411SOL    HW298008  14.000   0.428   8.036
65412SOL     OW98009  12.162   7.795   3.816
65412SOL    HW198010  12.133   7.704   3.823
65412SOL    HW298011  12.233   7.803   3.879
65413SOL     OW98012  12.285   8.859   1.208
65413SOL    HW198013  12.194   8.885   1.223
65413SOL    HW298014  12.284   8.764   1.210
65414SOL     OW98015   6.538  10.025   2.114
65414SOL    HW198016   6.473   9.971   2.070
65414SOL    HW298017   6.527  10.005   2.207
65415SOL     OW98018   6.576  10.241   1.110
65415SOL    HW198019   6.486  10.222   1.136
65415SOL    HW298020   6.576  10.335   1.092
65416SOL     OW98021   5.444  10.418  12.111
65416SOL    HW198022   5.417  10.493  12.163
65416SOL    HW298023   5.530  10.395  12.144
65417SOL     OW98024   6.530   5.476  10.374
65417SOL    HW198025   6.458   5.529  10.406
65417SOL    HW298026   6.560   5.520  10.294
65418SOL     OW98027   4.173   3.035   5.490
65418SOL    HW198028   4.205   2.967   5.430
65418SOL    HW298029   4.101   2.994   5.536
65419SOL     OW98030   9.072  13.969   4.768
65419SOL    HW198031   9.040  13.895   4.717
65419SOL    HW298032   9.067  13.940   4.859
65420SOL     OW98033   1.641   5.681  13.805
65420SOL    HW198034   1.683   5.766  13.793
65420SOL    HW298035   1.667   5.654  13.893
65421SOL     OW98036   1.023   4.426   0.504
65421SOL    HW198037   0.959   4.405   0.572
65421SOL    HW298038   1.102   4.377   0.529
65422SOL     OW98039   3.722  11.206  11.904
65422SOL    HW198040   3.649  11.162  11.859
65422SOL    HW298041   3.781  11.232  11.833
65423SOL     OW98042  10.812   9.871   7.816
65423SOL    HW198043  10.716   9.873   7.813
65423SOL    HW298044  10.835   9.935   7.883
65424SOL     OW98045   7.450  12.930   5.464
65424SOL    HW198046   7.502  12.850   5.470
65424SOL    HW298047   7.490  12.979   5.392
65425SOL     OW98048   1.531   8.546   0.417
65425SOL    HW198049   1.537   8.481   0.346
65425SOL    HW298050   1.542   8.494   0.497
65426SOL     OW98051  14.138   6.515  11.905
65426SOL    HW198052  14.142   6.610  11.894
65426SOL    HW298053  14.132   6.481  11.816
65427SOL     OW98054   4.549  13.137  12.840
65427SOL    HW198055   4.493  13.195  12.789
65427SOL    HW298056   4.488  13.081  12.888
65428SOL     OW98057  12.015   2.194  14.482
65428SOL    HW198058  12.031   2.167  14.572
65428SOL    HW298059  12.063   2.131  14.429
65429SOL     OW98060   1.555   5.460   5.823
65429SOL    HW198061   1.525   5.384   5.873
65429SOL    HW298062   1.476   5.510   5.805
65430SOL     OW98063  13.609   3.976   0.963
65430SOL    HW198064  13.566   3.986   0.878
65430SOL    HW298065  13.544   3.931   1.018
65431SOL     OW98066  11.479  13.059   5.697
65431SOL    HW198067  11.491  12.997   5.768
65431SOL    HW298068  11.565  13.099   5.685
65432SOL     OW98069   4.644  11.796   9.529
65432SOL    HW198070   4.563  11.792   9.580
65432SOL    HW298071   4.674  11.887   9.539
65433SOL     OW98072   4.308   2.628   2.862
65433SOL    HW198073   4.289   2.631   2.768
65433SOL    HW298074   4.231   2.667   2.904
65434SOL     OW98075   0.097   6.598   6.450
65434SOL    HW198076   0.103   6.563   6.539
65434SOL    HW298077   0.127   6.526   6.395
65435SOL     OW98078   5.036  11.771   2.876
65435SOL    HW198079   5.104  11.797   2.939
65435SOL    HW298080   4.954  11.787   2.923
65436SOL     OW98081  13.178   0.578  10.084
65436SOL    HW198082  13.217   0.497  10.053
65436SOL    HW298083  13.172   0.567  10.179
65437SOL     OW98084   8.646  10.321  14.202
65437SOL    HW198085   8.695  10.358  14.128
65437SOL    HW298086   8.706  10.259  14.242
65438SOL     OW98087   6.680   0.138  10.140
65438SOL    HW198088   6.764   0.147  10.096
65438SOL    HW298089   6.682   0.051  10.179
65439SOL     OW98090  10.726   8.400   2.599
65439SOL    HW198091  10.710   8.353   2.518
65439SOL    HW298092  10.814   8.437   2.588
65440SOL     OW98093   1.426  10.142   3.373
65440SOL    HW198094   1.346  10.125   3.424
65440SOL    HW298095   1.463  10.055   3.356
65441SOL     OW98096  10.677   3.367   9.757
65441SOL    HW198097  10.754   3.391   9.809
65441SOL    HW298098  10.698   3.396   9.669
65442SOL     OW98099  11.164  12.955   6.016
65442SOL    HW198100  11.195  12.972   5.927
65442SOL    HW298101  11.149  13.041   6.054
65443SOL     OW98102  14.695   0.246   5.194
65443SOL    HW198103  14.614   0.235   5.144
65443SOL    HW298104  14.754   0.291   5.134
65444SOL     OW98105   4.293  10.479   2.935
65444SOL    HW198106   4.297  10.412   3.004
65444SOL    HW298107   4.384  10.493   2.909
65445SOL     OW98108   2.471   2.890  10.630
65445SOL    HW198109   2.388   2.864  10.672
65445SOL    HW298110   2.491   2.976  10.667
65446SOL     OW98111   2.644   1.453   9.021
65446SOL    HW198112   2.554   1.482   9.037
65446SOL    HW298113   2.643   1.359   9.039
65447SOL     OW98114   5.621  10.699  12.341
65447SOL    HW198115   5.641  10.764  12.408
65447SOL    HW298116   5.550  10.647  12.378
65448SOL     OW98117   2.671   4.236  11.879
65448SOL    HW198118   2.715   4.163  11.921
65448SOL    HW298119   2.602   4.261  11.939
65449SOL     OW98120   8.670  11.910   7.137
65449SOL    HW198121   8.758  11.946   7.126
65449SOL    HW298122   8.665  11.885   7.229
65450SOL     OW98123  11.610   0.339  12.223
65450SOL    HW198124  11.655   0.395  12.286
65450SOL    HW298125  11.620   0.250  12.257
65451SOL     OW98126   0.231   3.643   1.020
65451SOL    HW198127   0.274   3.694   1.089
65451SOL    HW298128   0.223   3.704   0.947
65452SOL     OW98129   0.939   8.071   1.701
65452SOL    HW198130   0.853   8.034   1.720
65452SOL    HW298131   0.931   8.164   1.725
65453SOL     OW98132   5.011  14.569   4.873
65453SOL    HW198133   5.072  14.503   4.906
65453SOL    HW298134   5.000  14.548   4.781
65454SOL     OW98135   8.075  11.000  13.046
65454SOL    HW198136   8.038  11.065  13.106
65454SOL    HW298137   8.138  11.049  12.994
65455SOL     OW98138   8.437   2.089  14.475
65455SOL    HW198139   8.405   2.000  14.460
65455SOL    HW298140   8.364   2.134  14.517
65456SOL     OW98141  11.566   1.486   8.379
65456SOL    HW198142  11.488   1.434   8.396
65456SOL    HW298143  11.579   1.479   8.285
65457SOL     OW98144   5.297   3.368   4.401
65457SOL    HW198145   5.339   3.294   4.444
65457SOL    HW298146   5.204   3.356   4.418
65458SOL     OW98147   4.854   0.200   8.958
65458SOL    HW198148   4.778   0.186   8.903
65458SOL    HW298149   4.929   0.186   8.900
65459SOL     OW98150   5.486   0.917   9.524
65459SOL    HW198151   5.458   0.862   9.450
65459SOL    HW298152   5.446   0.877   9.601
65460SOL     OW98153  12.491  11.682   6.243
65460SOL    HW198154  12.484  11.696   6.148
65460SOL    HW298155  12.529  11.763   6.277
65461SOL     OW98156   8.167   6.966  11.991
65461SOL    HW198157   8.188   6.910  11.916
65461SOL    HW298158   8.116   6.911  12.049
65462SOL     OW98159   8.029   3.817  12.138
65462SOL    HW198160   8.008   3.902  12.176
65462SOL    HW298161   8.120   3.802  12.164
65463SOL     OW98162   9.144  14.438   0.916
65463SOL    HW198163   9.141  14.353   0.960
65463SOL    HW298164   9.081  14.430   0.845
65464SOL     OW98165   6.454   3.080   8.180
65464SOL    HW198166   6.505   3.095   8.260
65464SOL    HW298167   6.364   3.098   8.206
65465SOL     OW98168   4.604   3.936   9.517
65465SOL    HW198169   4.541   3.874   9.479
65465SOL    HW298170   4.690   3.901   9.492
65466SOL     OW98171   6.553   8.632  13.912
65466SOL    HW198172   6.490   8.575  13.867
65466SOL    HW298173   6.626   8.640  13.851
65467SOL     OW98174   2.283  11.284  11.632
65467SOL    HW198175   2.229  11.218  11.675
65467SOL    HW298176   2.280  11.260  11.539
65468SOL     OW98177   7.058   8.034   6.503
65468SOL    HW198178   7.100   8.102   6.451
65468SOL    HW298179   6.995   7.994   6.444
65469SOL     OW98180   9.172   4.459   9.089
65469SOL    HW198181   9.228   4.472   9.012
65469SOL    HW298182   9.232   4.436   9.160
65470SOL     OW98183   1.241  13.123  12.287
65470SOL    HW198184   1.239  13.046  12.230
65470SOL    HW298185   1.278  13.091  12.369
65471SOL     OW98186   4.887  10.386   0.162
65471SOL    HW198187   4.902  10.399   0.255
65471SOL    HW298188   4.970  10.410   0.121
65472SOL     OW98189   9.535   6.814   2.675
65472SOL    HW198190   9.585   6.853   2.603
65472SOL    HW298191   9.600   6.767   2.726
65473SOL     OW98192   4.819   1.865   8.214
65473SOL    HW198193   4.764   1.802   8.168
65473SOL    HW298194   4.874   1.811   8.271
65474SOL     OW98195  13.350   8.930   7.109
65474SOL    HW198196  13.324   9.021   7.098
65474SOL    HW298197  13.378   8.923   7.200
65475SOL     OW98198   2.350  14.677   5.483
65475SOL    HW198199   2.438  14.689   5.519
65475SOL    HW298200   2.311  14.610   5.539
65476SOL     OW98201   9.862  11.329   0.809
65476SOL    HW198202   9.913  11.248   0.815
65476SOL    HW298203   9.891  11.381   0.884
65477SOL     OW98204   3.798   1.506   9.229
65477SOL    HW198205   3.883   1.500   9.273
65477SOL    HW298206   3.804   1.586   9.176
65478SOL     OW98207   6.277   4.374   6.109
65478SOL    HW198208   6.189   4.337   6.100
65478SOL    HW298209   6.318   4.322   6.178
65479SOL     OW98210   5.038   9.574  10.698
65479SOL    HW198211   5.115   9.551  10.646
65479SOL    HW298212   5.042   9.669  10.707
65480SOL     OW98213  12.088   3.329  10.877
65480SOL    HW198214  12.177   3.309  10.905
65480SOL    HW298215  12.090   3.322  10.781
65481SOL     OW98216   6.466  11.430   2.535
65481SOL    HW198217   6.559  11.420   2.555
65481SOL    HW298218   6.425  11.445   2.621
65482SOL     OW98219   4.762   5.789   2.211
65482SOL    HW198220   4.730   5.713   2.261
65482SOL    HW298221   4.857   5.787   2.223
65483SOL     OW98222   4.634  11.498   0.236
65483SOL    HW198223   4.632  11.404   0.219
65483SOL    HW298224   4.675  11.536   0.158
65484SOL     OW98225   1.943   1.384   0.584
65484SOL    HW198226   1.884   1.442   0.536
65484SOL    HW298227   2.025   1.385   0.534
65485SOL     OW98228   2.795   4.320   9.352
65485SOL    HW198229   2.729   4.388   9.344
65485SOL    HW298230   2.757   4.243   9.309
65486SOL     OW98231   4.774  10.596   8.970
65486SOL    HW198232   4.706  10.595   9.038
65486SOL    HW298233   4.732  10.638   8.895
65487SOL     OW98234  10.113  13.878   4.560
65487SOL    HW198235  10.018  13.874   4.558
65487SOL    HW298236  10.141  13.843   4.476
65488SOL     OW98237  11.635   2.516   9.912
65488SOL    HW198238  11.665   2.529   9.822
65488SOL    HW298239  11.707   2.471   9.956
65489SOL     OW98240  10.107  10.741   1.930
65489SOL    HW198241  10.017  10.733   1.964
65489SOL    HW298242  10.163  10.720   2.004
65490SOL     OW98243   1.736  13.729  10.145
65490SOL    HW198244   1.817  13.770  10.177
65490SOL    HW298245   1.701  13.683  10.221
65491SOL     OW98246   2.612  11.959   5.511
65491SOL    HW198247   2.682  12.009   5.469
65491SOL    HW298248   2.554  12.024   5.549
65492SOL     OW98249   9.414  13.626  11.750
65492SOL    HW198250   9.478  13.583  11.807
65492SOL    HW298251   9.337  13.569  11.752
65493SOL     OW98252  14.048   3.212   4.627
65493SOL    HW198253  14.111   3.154   4.584
65493SOL    HW298254  14.002   3.256   4.555
65494SOL     OW98255   7.910  13.033   2.515
65494SOL    HW198256   7.817  13.037   2.537
65494SOL    HW298257   7.948  12.976   2.583
65495SOL     OW98258   4.847   3.963   8.972
65495SOL    HW198259   4.880   3.915   8.896
65495SOL    HW298260   4.879   3.913   9.047
65496SOL     OW98261   1.257  11.138   9.993
65496SOL    HW198262   1.257  11.231  10.018
65496SOL    HW298263   1.295  11.136   9.905
65497SOL     OW98264  10.065   0.285  12.834
65497SOL    HW198265  10.062   0.340  12.757
65497SOL    HW298266   9.984   0.304  12.881
65498SOL     OW98267   3.286   7.469  13.887
65498SOL    HW198268   3.339   7.431  13.957
65498SOL    HW298269   3.233   7.397  13.854
65499SOL     OW98270  12.266  13.528   5.094
65499SOL    HW198271  12.356  13.552   5.118
65499SOL    HW298272  12.255  13.441   5.133
65500SOL     OW98273   7.200   7.465   2.789
65500SOL    HW198274   7.123   7.456   2.845
65500SOL    HW298275   7.249   7.385   2.802
65501SOL     OW98276  12.363  12.480  12.831
65501SOL    HW198277  12.347  12.570  12.803
65501SOL    HW298278  12.301  12.428  12.781
65502SOL     OW98279   7.628   3.168   2.175
65502SOL    HW198280   7.658   3.253   2.206
65502SOL    HW298281   7.709   3.118   2.161
65503SOL     OW98282   2.362   6.664  11.700
65503SOL    HW198283   2.437   6.615  11.733
65503SOL    HW298284   2.379   6.755  11.727
65504SOL     OW98285   1.824  10.739   9.170
65504SOL    HW198286   1.835  10.733   9.265
65504SOL    HW298287   1.845  10.830   9.149
65505SOL     OW98288   2.802   1.677  10.660
65505SOL    HW198289   2.894   1.657  10.643
65505SOL    HW298290   2.800   1.703  10.752
65506SOL     OW98291   9.204   3.532  12.600
65506SOL    HW198292   9.144   3.574  12.537
65506SOL    HW298293   9.147   3.503  12.671
65507SOL     OW98294   5.199   5.948   8.872
65507SOL    HW198295   5.261   6.013   8.839
65507SOL    HW298296   5.193   5.966   8.966
65508SOL     OW98297  12.416   9.408   1.442
65508SOL    HW198298  12.379   9.490   1.473
65508SOL    HW298299  12.368   9.388   1.362
65509SOL     OW98300   3.017   2.351   9.089
65509SOL    HW198301   2.956   2.292   9.044
65509SOL    HW298302   2.963   2.394   9.156
65510SOL     OW98303   9.687   9.339   2.299
65510SOL    HW198304   9.715   9.417   2.347
65510SOL    HW298305   9.764   9.282   2.299
65511SOL     OW98306   4.813   8.621  10.551
65511SOL    HW198307   4.797   8.687  10.483
65511SOL    HW298308   4.906   8.601  10.544
65512SOL     OW98309   0.756   1.123   4.295
65512SOL    HW198310   0.847   1.114   4.265
65512SOL    HW298311   0.760   1.191   4.362
65513SOL     OW98312   9.175   1.250   5.714
65513SOL    HW198313   9.239   1.294   5.657
65513SOL    HW298314   9.186   1.157   5.696
65514SOL     OW98315  13.373   3.807  12.993
65514SOL    HW198316  13.369   3.902  12.996
65514SOL    HW298317  13.467   3.788  12.983
65515SOL     OW98318   7.316  10.408  13.685
65515SOL    HW198319   7.361  10.492  13.693
65515SOL    HW298320   7.314  10.373  13.775
65516SOL     OW98321   2.599  12.027  10.919
65516SOL    HW198322   2.566  11.959  10.977
65516SOL    HW298323   2.632  12.095  10.977
65517SOL     OW98324   8.398  13.990   5.118
65517SOL    HW198325   8.455  14.030   5.184
65517SOL    HW298326   8.385  14.058   5.052
65518SOL     OW98327   7.886   9.384   1.170
65518SOL    HW198328   7.916   9.450   1.108
65518SOL    HW298329   7.885   9.429   1.254
65519SOL     OW98330   4.980  12.615  13.165
65519SOL    HW198331   5.017  12.549  13.224
65519SOL    HW298332   4.891  12.630  13.198
65520SOL     OW98333   9.898   4.110   3.197
65520SOL    HW198334   9.866   4.106   3.287
65520SOL    HW298335   9.835   4.165   3.151
65521SOL     OW98336  14.001   3.099  11.890
65521SOL    HW198337  14.051   3.102  11.809
65521SOL    HW298338  13.919   3.143  11.870
65522SOL     OW98339   4.249  11.164   3.912
65522SOL    HW198340   4.167  11.137   3.869
65522SOL    HW298341   4.289  11.226   3.852
65523SOL     OW98342   4.074  10.002  10.774
65523SOL    HW198343   4.078   9.908  10.793
65523SOL    HW298344   4.145  10.040  10.826
65524SOL     OW98345   2.374  13.708  14.234
65524SOL    HW198346   2.384  13.797  14.266
65524SOL    HW298347   2.453  13.663  14.263
65525SOL     OW98348   6.094  10.877  13.482
65525SOL    HW198349   6.090  10.968  13.512
65525SOL    HW298350   6.144  10.881  13.400
65526SOL     OW98351  12.400   2.245  11.669
65526SOL    HW198352  12.325   2.259  11.727
65526SOL    HW298353  12.427   2.155  11.685
65527SOL     OW98354   6.730  11.434   0.465
65527SOL    HW198355   6.726  11.492   0.389
65527SOL    HW298356   6.812  11.386   0.454
65528SOL     OW98357   1.715   5.724   4.614
65528SOL    HW198358   1.781   5.713   4.546
65528SOL    HW298359   1.644   5.770   4.571
65529SOL     OW98360   3.668   6.210   9.409
65529SOL    HW198361   3.625   6.195   9.493
65529SOL    HW298362   3.760   6.191   9.425
65530SOL     OW98363  12.189   8.233  12.568
65530SOL    HW198364  12.166   8.284  12.490
65530SOL    HW298365  12.140   8.275  12.639
65531SOL     OW98366  14.578   7.340   6.616
65531SOL    HW198367  14.491   7.352   6.578
65531SOL    HW298368  14.574   7.254   6.658
65532SOL     OW98369   7.942   6.050   6.874
65532SOL    HW198370   7.973   6.039   6.783
65532SOL    HW298371   7.953   5.963   6.913
65533SOL     OW98372   5.537  10.231   1.193
65533SOL    HW198373   5.577  10.316   1.177
65533SOL    HW298374   5.464  10.250   1.252
65534SOL     OW98375   3.699  14.507  11.161
65534SOL    HW198376   3.673  14.448  11.232
65534SOL    HW298377   3.634  14.493  11.092
65535SOL     OW98378  14.515   6.830   2.725
65535SOL    HW198379  14.577   6.761   2.702
65535SOL    HW298380  14.537   6.903   2.669
65536SOL     OW98381   0.005   4.536  13.374
65536SOL    HW198382  14.877   4.452  13.328
65536SOL    HW298383   0.084   4.529  13.427
65537SOL     OW98384  13.752   8.995  11.377
65537SOL    HW198385  13.738   9.072  11.431
65537SOL    HW298386  13.818   8.943  11.424
65538SOL     OW98387  11.809   7.077   0.450
65538SOL    HW198388  11.715   7.087   0.436
65538SOL    HW298389  11.816   7.002   0.509
65539SOL     OW98390  13.747   0.194   3.745
65539SOL    HW198391  13.671   0.247   3.767
65539SOL    HW298392  13.818   0.231   3.796
65540SOL     OW98393  12.869  11.263   3.210
65540SOL    HW198394  12.838  11.224   3.128
65540SOL    HW298395  12.961  11.236   3.216
65541SOL     OW98396   9.284   6.798   2.781
65541SOL    HW198397   9.371   6.806   2.741
65541SOL    HW298398   9.262   6.706   2.773
65542SOL     OW98399   9.272   6.970   6.147
65542SOL    HW198400   9.252   6.903   6.081
65542SOL    HW298401   9.290   6.921   6.227
65543SOL     OW98402   2.629  13.125   0.906
65543SOL    HW198403   2.603  13.148   0.816
65543SOL    HW298404   2.555  13.075   0.940
65544SOL     OW98405   3.351  14.862   3.606
65544SOL    HW198406   3.348   0.074   3.573
65544SOL    HW298407   3.322  14.869   3.697
65545SOL     OW98408  10.352   2.222  12.364
65545SOL    HW198409  10.419   2.261  12.419
65545SOL    HW298410  10.315   2.296  12.316
65546SOL     OW98411   2.529   4.433   2.045
65546SOL    HW198412   2.460   4.390   2.096
65546SOL    HW298413   2.550   4.512   2.096
65547SOL     OW98414   4.095   6.712   6.926
65547SOL    HW198415   4.052   6.699   7.011
65547SOL    HW298416   4.102   6.624   6.889
65548SOL     OW98417  10.311   1.430  11.656
65548SOL    HW198418  10.298   1.464  11.568
65548SOL    HW298419  10.321   1.508  11.711
65549SOL     OW98420   0.548   2.879   0.965
65549SOL    HW198421   0.589   2.825   1.033
65549SOL    HW298422   0.457   2.850   0.963
65550SOL     OW98423  10.251  10.246   1.376
65550SOL    HW198424  10.248  10.206   1.462
65550SOL    HW298425  10.322  10.200   1.330
65551SOL     OW98426  12.367   4.818   3.498
65551SOL    HW198427  12.315   4.890   3.534
65551SOL    HW298428  12.306   4.744   3.496
65552SOL     OW98429  12.269   2.568   3.060
65552SOL    HW198430  12.260   2.476   3.086
65552SOL    HW298431  12.311   2.610   3.135
65553SOL     OW98432   2.124   3.007   3.650
65553SOL    HW198433   2.177   3.086   3.640
65553SOL    HW298434   2.036   3.040   3.669
65554SOL     OW98435   5.185   6.912  13.678
65554SOL    HW198436   5.182   6.930  13.584
65554SOL    HW298437   5.277   6.890  13.696
65555SOL     OW98438   1.870   2.846  11.389
65555SOL    HW198439   1.926   2.875  11.462
65555SOL    HW298440   1.784   2.832  11.430
65556SOL     OW98441   9.389   3.450   5.644
65556SOL    HW198442   9.475   3.467   5.684
65556SOL    HW298443   9.383   3.515   5.573
65557SOL     OW98444   6.611   1.148   6.562
65557SOL    HW198445   6.650   1.077   6.613
65557SOL    HW298446   6.644   1.228   6.602
65558SOL     OW98447  12.096  13.939  13.469
65558SOL    HW198448  12.036  14.014  13.467
65558SOL    HW298449  12.076  13.890  13.389
65559SOL     OW98450  12.892   1.534   0.594
65559SOL    HW198451  12.917   1.523   0.502
65559SOL    HW298452  12.804   1.573   0.591
65560SOL     OW98453  12.880  13.917  10.936
65560SOL    HW198454  12.891  13.980  11.007
65560SOL    HW298455  12.908  13.964  10.858
65561SOL     OW98456  11.568   9.609   7.719
65561SOL    HW198457  11.496   9.607   7.655
65561SOL    HW298458  11.559   9.527   7.767
65562SOL     OW98459   4.645   4.208  13.643
65562SOL    HW198460   4.564   4.256  13.654
65562SOL    HW298461   4.662   4.212  13.549
65563SOL     OW98462  13.276   3.732  11.131
65563SOL    HW198463  13.306   3.722  11.041
65563SOL    HW298464  13.192   3.686  11.134
65564SOL     OW98465   1.826  14.025  14.818
65564SOL    HW198466   1.849  13.933  14.809
65564SOL    HW298467   1.838  14.062  14.731
65565SOL     OW98468  13.766  13.676   3.679
65565SOL    HW198469  13.720  13.650   3.759
65565SOL    HW298470  13.859  13.668   3.701
65566SOL     OW98471   7.912   8.976   4.494
65566SOL    HW198472   7.999   8.968   4.533
65566SOL    HW298473   7.853   8.990   4.568
65567SOL     OW98474  14.174  14.819  10.283
65567SOL    HW198475  14.138  14.736  10.253
65567SOL    HW298476  14.258  14.796  10.323
65568SOL     OW98477  13.268   4.504  11.520
65568SOL    HW198478  13.313   4.464  11.446
65568SOL    HW298479  13.245   4.593  11.490
65569SOL     OW98480  11.314   2.666  14.097
65569SOL    HW198481  11.375   2.616  14.042
65569SOL    HW298482  11.281   2.734  14.040
65570SOL     OW98483   5.487   6.401   7.067
65570SOL    HW198484   5.495   6.306   7.070
65570SOL    HW298485   5.460   6.427   7.155
65571SOL     OW98486   2.610  12.877  13.314
65571SOL    HW198487   2.597  12.972  13.304
65571SOL    HW298488   2.542  12.838  13.259
65572SOL     OW98489   7.851   9.430   8.760
65572SOL    HW198490   7.778   9.388   8.804
65572SOL    HW298491   7.811   9.476   8.686
65573SOL     OW98492   9.661  14.138   2.595
65573SOL    HW198493   9.671  14.132   2.690
65573SOL    HW298494   9.741  14.184   2.566
65574SOL     OW98495   6.597   4.967   3.952
65574SOL    HW198496   6.553   4.935   3.874
65574SOL    HW298497   6.690   4.948   3.937
65575SOL     OW98498   7.148   5.527   4.752
65575SOL    HW198499   7.175   5.435   4.756
65575SOL    HW298500   7.230   5.576   4.757
65576SOL     OW98501   1.926  13.463   2.182
65576SOL    HW198502   1.990  13.519   2.225
65576SOL    HW298503   1.844  13.480   2.229
65577SOL     OW98504   1.442  13.596   3.803
65577SOL    HW198505   1.502  13.522   3.812
65577SOL    HW298506   1.497  13.667   3.769
65578SOL     OW98507   2.100  14.624  11.012
65578SOL    HW198508   2.164  14.657  11.075
65578SOL    HW298509   2.017  14.664  11.040
65579SOL     OW98510  11.154   5.589   3.163
65579SOL    HW198511  11.074   5.642   3.155
65579SOL    HW298512  11.168   5.553   3.076
65580SOL     OW98513   9.549  13.524   9.569
65580SOL    HW198514   9.555  13.429   9.555
65580SOL    HW298515   9.616  13.542   9.635
65581SOL     OW98516   2.529  10.086  12.888
65581SOL    HW198517   2.534  10.040  12.972
65581SOL    HW298518   2.540  10.017  12.822
65582SOL     OW98519   1.123  12.940  11.961
65582SOL    HW198520   1.140  13.003  11.892
65582SOL    HW298521   1.194  12.876  11.955
65583SOL     OW98522   7.403  10.602  12.072
65583SOL    HW198523   7.348  10.554  12.010
65583SOL    HW298524   7.342  10.660  12.118
65584SOL     OW98525   3.748  10.578  10.870
65584SOL    HW198526   3.674  10.573  10.809
65584SOL    HW298527   3.758  10.488  10.903
65585SOL     OW98528   0.431   3.931   4.658
65585SOL    HW198529   0.492   3.883   4.601
65585SOL    HW298530   0.461   4.022   4.653
65586SOL     OW98531  11.340   7.977   2.356
65586SOL    HW198532  11.320   7.903   2.414
65586SOL    HW298533  11.432   7.965   2.333
65587SOL     OW98534   0.356   8.601   3.888
65587SOL    HW198535   0.322   8.612   3.799
65587SOL    HW298536   0.432   8.659   3.892
65588SOL     OW98537  14.141  11.431   0.287
65588SOL    HW198538  14.190  11.510   0.311
65588SOL    HW298539  14.190  11.394   0.214
65589SOL     OW98540   4.776  10.834   1.108
65589SOL    HW198541   4.817  10.752   1.135
65589SOL    HW298542   4.850  10.893   1.090
65590SOL     OW98543  12.221  12.322   4.454
65590SOL    HW198544  12.156  12.291   4.516
65590SOL    HW298545  12.267  12.392   4.500
65591SOL     OW98546   9.369  11.965  13.032
65591SOL    HW198547   9.389  12.033  13.096
65591SOL    HW298548   9.433  11.979  12.962
65592SOL     OW98549   6.882  10.234   0.293
65592SOL    HW198550   6.818  10.208   0.227
65592SOL    HW298551   6.916  10.151   0.327
65593SOL     OW98552   9.558   9.362   8.924
65593SOL    HW198553   9.652   9.352   8.943
65593SOL    HW298554   9.520   9.278   8.948
65594SOL     OW98555   7.749  14.588   1.104
65594SOL    HW198556   7.732  14.526   1.033
65594SOL    HW298557   7.838  14.567   1.133
65595SOL     OW98558  13.611  13.882  14.047
65595SOL    HW198559  13.705  13.870  14.059
65595SOL    HW298560  13.592  13.842  13.962
65596SOL     OW98561   4.442  11.685   1.241
65596SOL    HW198562   4.431  11.709   1.149
65596SOL    HW298563   4.368  11.725   1.286
65597SOL     OW98564   8.739   9.152   8.113
65597SOL    HW198565   8.686   9.107   8.047
65597SOL    HW298566   8.821   9.172   8.069
65598SOL     OW98567   6.762   8.814   8.265
65598SOL    HW198568   6.695   8.839   8.202
65598SOL    HW298569   6.816   8.750   8.219
65599SOL     OW98570   7.928   5.660   5.744
65599SOL    HW198571   7.921   5.628   5.834
65599SOL    HW298572   7.840   5.650   5.708
65600SOL     OW98573   1.352   5.734  14.307
65600SOL    HW198574   1.294   5.750  14.233
65600SOL    HW298575   1.438   5.763  14.277
65601SOL     OW98576  12.532   5.904   4.635
65601SOL    HW198577  12.597   5.944   4.578
65601SOL    HW298578  12.552   5.938   4.723
65602SOL     OW98579   3.418   4.083   2.873
65602SOL    HW198580   3.478   4.009   2.876
65602SOL    HW298581   3.467   4.155   2.914
65603SOL     OW98582  12.356   0.601  13.269
65603SOL    HW198583  12.393   0.609  13.181
65603SOL    HW298584  12.328   0.690  13.292
65604SOL     OW98585   8.208   5.936  10.913
65604SOL    HW198586   8.148   5.964  10.982
65604SOL    HW298587   8.197   6.001  10.844
65605SOL     OW98588   1.882   1.101   0.533
65605SOL    HW198589   1.881   1.193   0.559
65605SOL    HW298590   1.964   1.067   0.568
65606SOL     OW98591   2.595   4.901   2.421
65606SOL    HW198592   2.584   4.938   2.334
65606SOL    HW298593   2.679   4.855   2.417
65607SOL     OW98594   5.519  12.001  12.611
65607SOL    HW198595   5.458  11.959  12.672
65607SOL    HW298596   5.579  12.050  12.667
65608SOL     OW98597   8.584   6.358  13.418
65608SOL    HW198598   8.514   6.302  13.451
65608SOL    HW298599   8.610   6.412  13.493
65609SOL     OW98600   1.893   1.015   9.700
65609SOL    HW198601   1.972   0.978   9.739
65609SOL    HW298602   1.920   1.047   9.615
65610SOL     OW98603   5.699   2.929   5.215
65610SOL    HW198604   5.620   2.964   5.257
65610SOL    HW298605   5.690   2.834   5.223
65611SOL     OW98606   9.086   2.949   8.388
65611SOL    HW198607   9.117   2.927   8.300
65611SOL    HW298608   9.127   3.033   8.407
65612SOL     OW98609   5.767   4.453  11.842
65612SOL    HW198610   5.782   4.477  11.933
65612SOL    HW298611   5.839   4.495  11.794
65613SOL     OW98612   3.537  11.670  13.001
65613SOL    HW198613   3.474  11.601  12.979
65613SOL    HW298614   3.618  11.622  13.021
65614SOL     OW98615   7.399   2.758  14.742
65614SOL    HW198616   7.342   2.701  14.793
65614SOL    HW298617   7.348   2.779  14.664
65615SOL     OW98618   7.436   9.298  11.745
65615SOL    HW198619   7.419   9.292  11.839
65615SOL    HW298620   7.531   9.284  11.737
65616SOL     OW98621   6.249   3.637   7.671
65616SOL    HW198622   6.211   3.555   7.639
65616SOL    HW298623   6.219   3.643   7.762
65617SOL     OW98624   0.035   4.859   0.922
65617SOL    HW198625   0.091   4.799   0.873
65617SOL    HW298626   0.095   4.921   0.963
65618SOL     OW98627   3.705  10.599   7.561
65618SOL    HW198628   3.692  10.693   7.572
65618SOL    HW298629   3.619  10.560   7.577
65619SOL     OW98630  10.360   8.984  12.391
65619SOL    HW198631  10.305   8.937  12.454
65619SOL    HW298632  10.300   9.043  12.347
65620SOL     OW98633   8.744   7.462   5.379
65620SOL    HW198634   8.663   7.422   5.412
65620SOL    HW298635   8.731   7.468   5.284
65621SOL     OW98636   7.962  12.854   4.690
65621SOL    HW198637   7.948  12.759   4.682
65621SOL    HW298638   7.938  12.873   4.781
65622SOL     OW98639   0.788   7.600  12.084
65622SOL    HW198640   0.731   7.554  12.145
65622SOL    HW298641   0.844   7.655  12.139
65623SOL     OW98642  12.725  11.404   2.578
65623SOL    HW198643  12.647  11.376   2.625
65623SOL    HW298644  12.722  11.500   2.582
65624SOL     OW98645   6.338   5.489   1.476
65624SOL    HW198646   6.352   5.501   1.570
65624SOL    HW298647   6.264   5.428   1.471
65625SOL     OW98648   3.312   3.558  11.300
65625SOL    HW198649   3.222   3.591  11.301
65625SOL    HW298650   3.348   3.588  11.217
65626SOL     OW98651   8.224   0.703   0.495
65626SOL    HW198652   8.227   0.769   0.564
65626SOL    HW298653   8.146   0.725   0.444
65627SOL     OW98654  11.732   6.992   2.936
65627SOL    HW198655  11.720   7.074   2.888
65627SOL    HW298656  11.643   6.963   2.956
65628SOL     OW98657  11.413   6.019  10.703
65628SOL    HW198658  11.349   5.948  10.698
65628SOL    HW298659  11.361   6.099  10.706
65629SOL     OW98660   0.859   6.552  11.939
65629SOL    HW198661   0.933   6.564  11.999
65629SOL    HW298662   0.782   6.554  11.996
65630SOL     OW98663  12.468   8.119  11.646
65630SOL    HW198664  12.393   8.156  11.601
65630SOL    HW298665  12.544   8.166  11.611
65631SOL     OW98666   0.573   1.831   6.702
65631SOL    HW198667   0.519   1.753   6.711
65631SOL    HW298668   0.517   1.895   6.657
65632SOL     OW98669   8.635  13.598   3.075
65632SOL    HW198670   8.563  13.571   3.131
65632SOL    HW298671   8.594  13.653   3.008
65633SOL     OW98672  13.659   5.456   0.275
65633SOL    HW198673  13.635   5.521   0.208
65633SOL    HW298674  13.753   5.468   0.287
65634SOL     OW98675   2.085   6.117  13.381
65634SOL    HW198676   2.118   6.191  13.431
65634SOL    HW298677   2.042   6.061  13.445
65635SOL     OW98678  14.750   7.772  13.680
65635SOL    HW198679  14.713   7.795  13.765
65635SOL    HW298680  14.834   7.818  13.677
65636SOL     OW98681  12.940   2.997   1.782
65636SOL    HW198682  12.855   3.010   1.824
65636SOL    HW298683  13.000   2.981   1.855
65637SOL     OW98684   8.038   0.407   9.374
65637SOL    HW198685   8.057   0.329   9.426
65637SOL    HW298686   8.014   0.372   9.288
65638SOL     OW98687  13.401   1.571   3.009
65638SOL    HW198688  13.478   1.534   2.965
65638SOL    HW298689  13.338   1.585   2.939
65639SOL     OW98690   5.972  14.011  12.461
65639SOL    HW198691   5.949  13.919  12.471
65639SOL    HW298692   6.065  14.015  12.482
65640SOL     OW98693  14.223   1.848   3.525
65640SOL    HW198694  14.267   1.895   3.595
65640SOL    HW298695  14.279   1.772   3.507
65641SOL     OW98696   9.649   3.628   8.722
65641SOL    HW198697   9.650   3.708   8.775
65641SOL    HW298698   9.596   3.567   8.773
65642SOL     OW98699   1.935  11.018  10.094
65642SOL    HW198700   1.944  10.950  10.161
65642SOL    HW298701   2.001  11.083  10.117
65643SOL     OW98702   5.709  12.629   4.307
65643SOL    HW198703   5.715  12.535   4.293
65643SOL    HW298704   5.684  12.639   4.399
65644SOL     OW98705   3.730   9.885  10.235
65644SOL    HW198706   3.764   9.954  10.179
65644SOL    HW298707   3.723   9.809  10.177
65645SOL     OW98708   2.132  11.219  10.409
65645SOL    HW198709   2.154  11.222  10.316
65645SOL    HW298710   2.062  11.283  10.420
65646SOL     OW98711  14.396  11.646   9.647
65646SOL    HW198712  14.354  11.616   9.567
65646SOL    HW298713  14.429  11.566   9.688
65647SOL     OW98714  11.657  13.403  13.332
65647SOL    HW198715  11.747  13.429  13.352
65647SOL    HW298716  11.664  13.312  13.303
65648SOL     OW98717   5.067  10.352   0.690
65648SOL    HW198718   5.035  10.401   0.614
65648SOL    HW298719   4.989  10.307   0.723
65649SOL     OW98720   3.492   7.819  13.471
65649SOL    HW198721   3.409   7.780  13.444
65649SOL    HW298722   3.498   7.900  13.420
65650SOL     OW98723   1.563   1.025   7.829
65650SOL    HW198724   1.480   1.006   7.874
65650SOL    HW298725   1.617   0.948   7.845
65651SOL     OW98726   4.870   5.870   2.535
65651SOL    HW198727   4.945   5.920   2.568
65651SOL    HW298728   4.900   5.833   2.452
65652SOL     OW98729   0.312  13.777  12.110
65652SOL    HW198730   0.226  13.745  12.138
65652SOL    HW298731   0.308  13.776  12.014
65653SOL     OW98732  10.819   6.552   0.475
65653SOL    HW198733  10.836   6.462   0.504
65653SOL    HW298734  10.762   6.589   0.542
65654SOL     OW98735   5.098   7.500   4.413
65654SOL    HW198736   5.128   7.590   4.402
65654SOL    HW298737   5.095   7.487   4.508
65655SOL     OW98738   8.763   6.560  12.701
65655SOL    HW198739   8.812   6.631  12.742
65655SOL    HW298740   8.827   6.517  12.644
65656SOL     OW98741  10.054   5.920   1.611
65656SOL    HW198742  10.048   6.013   1.591
65656SOL    HW298743  10.113   5.885   1.544
65657SOL     OW98744   4.322   7.475   0.922
65657SOL    HW198745   4.268   7.535   0.871
65657SOL    HW298746   4.320   7.510   1.011
65658SOL     OW98747   0.004  14.272   6.538
65658SOL    HW198748   0.040  14.334   6.475
65658SOL    HW298749   0.041  14.298   6.622
65659SOL     OW98750   8.094  13.221   0.555
65659SOL    HW198751   8.036  13.145   0.565
65659SOL    HW298752   8.035  13.296   0.552
65660SOL     OW98753  14.810   1.821   2.457
65660SOL    HW198754  14.865   1.756   2.500
65660SOL    HW298755  14.734   1.831   2.515
65661SOL     OW98756  12.721   3.407   5.330
65661SOL    HW198757  12.665   3.342   5.287
65661SOL    HW298758  12.769   3.357   5.396
65662SOL     OW98759  14.088  12.329  14.241
65662SOL    HW198760  14.043  12.411  14.222
65662SOL    HW298761  14.123  12.341  14.329
65663SOL     OW98762  12.334   5.129   1.303
65663SOL    HW198763  12.409   5.189   1.300
65663SOL    HW298764  12.354   5.062   1.238
65664SOL     OW98765   3.657   1.467  13.806
65664SOL    HW198766   3.694   1.554  13.794
65664SOL    HW298767   3.650   1.457  13.901
65665SOL     OW98768   3.354  11.162  13.869
65665SOL    HW198769   3.397  11.172  13.954
65665SOL    HW298770   3.263  11.187  13.885
65666SOL     OW98771   3.921   1.827   1.039
65666SOL    HW198772   3.896   1.873   0.959
65666SOL    HW298773   3.998   1.776   1.015
65667SOL     OW98774  10.352  12.939  11.297
65667SOL    HW198775  10.437  12.929  11.255
65667SOL    HW298776  10.301  12.992  11.235
65668SOL     OW98777   5.130   3.683  10.877
65668SOL    HW198778   5.041   3.649  10.873
65668SOL    HW298779   5.141   3.711  10.967
65669SOL     OW98780  11.082   6.489  12.444
65669SOL    HW198781  10.997   6.483  12.401
65669SOL    HW298782  11.101   6.400  12.472
65670SOL     OW98783   1.140   9.351   1.763
65670SOL    HW198784   1.070   9.381   1.821
65670SOL    HW298785   1.096   9.302   1.695
65671SOL     OW98786   8.877   0.138   2.194
65671SOL    HW198787   8.807   0.083   2.227
65671SOL    HW298788   8.860   0.145   2.100
65672SOL     OW98789   4.430   9.234   2.517
65672SOL    HW198790   4.513   9.274   2.544
65672SOL    HW298791   4.415   9.166   2.583
65673SOL     OW98792   9.198   6.603   0.304
65673SOL    HW198793   9.232   6.690   0.284
65673SOL    HW298794   9.105   6.608   0.282
65674SOL     OW98795  12.758  10.142   5.146
65674SOL    HW198796  12.789  10.056   5.117
65674SOL    HW298797  12.794  10.151   5.234
65675SOL     OW98798  14.210   7.071  11.857
65675SOL    HW198799  14.183   7.080  11.949
65675SOL    HW298800  14.158   7.136  11.810
65676SOL     OW98801  12.910   8.290   0.238
65676SOL    HW198802  12.821   8.274   0.268
65676SOL    HW298803  12.926   8.220   0.173
65677SOL     OW98804   4.524   8.267   8.994
65677SOL    HW198805   4.545   8.352   9.033
65677SOL    HW298806   4.592   8.208   9.025
65678SOL     OW98807  13.444   0.046  10.835
65678SOL    HW198808  13.448   0.141  10.844
65678SOL    HW298809  13.497   0.027  10.758
65679SOL     OW98810  12.258   3.092  14.390
65679SOL    HW198811  12.326   3.094  14.324
65679SOL    HW298812  12.299   3.050  14.466
65680SOL     OW98813   4.147   8.071   3.429
65680SOL    HW198814   4.239   8.050   3.419
65680SOL    HW298815   4.134   8.081   3.524
65681SOL     OW98816   8.715  14.588   8.222
65681SOL    HW198817   8.650  14.533   8.179
65681SOL    HW298818   8.793  14.533   8.226
65682SOL     OW98819   3.482   0.414   8.104
65682SOL    HW198820   3.542   0.350   8.143
65682SOL    HW298821   3.498   0.494   8.154
65683SOL     OW98822   0.442  10.556   8.929
65683SOL    HW198823   0.460  10.649   8.939
65683SOL    HW298824   0.445  10.521   9.018
65684SOL     OW98825   1.950  13.563   9.033
65684SOL    HW198826   2.010  13.490   9.049
65684SOL    HW298827   1.865  13.521   9.017
65685SOL     OW98828   8.041   2.040   1.084
65685SOL    HW198829   8.086   2.073   1.006
65685SOL    HW298830   8.061   2.103   1.152
65686SOL     OW98831   7.674   7.484   9.295
65686SOL    HW198832   7.613   7.473   9.368
65686SOL    HW298833   7.738   7.414   9.305
65687SOL     OW98834   5.945   2.394  13.495
65687SOL    HW198835   5.891   2.468  13.468
65687SOL    HW298836   5.884   2.336  13.541
65688SOL     OW98837   1.211   7.926   5.496
65688SOL    HW198838   1.273   7.998   5.482
65688SOL    HW298839   1.151   7.932   5.422
65689SOL     OW98840  11.499  12.700   2.923
65689SOL    HW198841  11.549  12.688   2.843
65689SOL    HW298842  11.546  12.768   2.971
65690SOL     OW98843  14.722  13.708   9.146
65690SOL    HW198844  14.752  13.637   9.089
65690SOL    HW298845  14.764  13.690   9.231
65691SOL     OW98846   2.491   3.993   5.904
65691SOL    HW198847   2.463   3.901   5.902
65691SOL    HW298848   2.469   4.022   5.992
65692SOL     OW98849   5.148  14.053   8.301
65692SOL    HW198850   5.088  14.118   8.337
65692SOL    HW298851   5.235  14.090   8.314
65693SOL     OW98852  11.956  12.972   5.522
65693SOL    HW198853  12.028  13.035   5.522
65693SOL    HW298854  11.994  12.891   5.556
65694SOL     OW98855   3.695   8.685  12.863
65694SOL    HW198856   3.698   8.604  12.913
65694SOL    HW298857   3.665   8.658  12.776
65695SOL     OW98858   5.288  13.634  13.816
65695SOL    HW198859   5.270  13.594  13.901
65695SOL    HW298860   5.239  13.581  13.754
65696SOL     OW98861  10.385  10.497   7.385
65696SOL    HW198862  10.416  10.579   7.425
65696SOL    HW298863  10.444  10.430   7.419
65697SOL     OW98864  10.240   2.749   8.536
65697SOL    HW198865  10.313   2.766   8.595
65697SOL    HW298866  10.266   2.671   8.487
65698SOL     OW98867   7.735  11.196  13.249
65698SOL    HW198868   7.719  11.118  13.196
65698SOL    HW298869   7.653  11.211  13.296
65699SOL     OW98870   2.961   8.567  12.543
65699SOL    HW198871   2.999   8.490  12.585
65699SOL    HW298872   3.036   8.624  12.524
65700SOL     OW98873   2.269   2.777   3.059
65700SOL    HW198874   2.318   2.852   3.094
65700SOL    HW298875   2.231   2.810   2.977
65701SOL     OW98876   3.090   3.566   0.076
65701SOL    HW198877   3.032   3.641   0.084
65701SOL    HW298878   3.075   3.515   0.156
65702SOL     OW98879   8.231   1.923   8.314
65702SOL    HW198880   8.151   1.897   8.267
65702SOL    HW298881   8.242   2.015   8.293
65703SOL     OW98882   1.568   9.289   3.967
65703SOL    HW198883   1.525   9.215   4.009
65703SOL    HW298884   1.568   9.358   4.033
65704SOL     OW98885  14.455   2.697   8.321
65704SOL    HW198886  14.409   2.763   8.269
65704SOL    HW298887  14.389   2.629   8.337
65705SOL     OW98888  12.201   4.287   3.427
65705SOL    HW198889  12.135   4.226   3.460
65705SOL    HW298890  12.252   4.313   3.504
65706SOL     OW98891   0.253   5.196  11.327
65706SOL    HW198892   0.231   5.147  11.407
65706SOL    HW298893   0.210   5.148  11.257
65707SOL     OW98894  12.838   4.629   9.881
65707SOL    HW198895  12.862   4.693   9.948
65707SOL    HW298896  12.742   4.632   9.878
65708SOL     OW98897  14.608   9.906   8.719
65708SOL    HW198898  14.693   9.862   8.725
65708SOL    HW298899  14.622   9.980   8.660
65709SOL     OW98900   2.250   9.344   1.250
65709SOL    HW198901   2.166   9.309   1.220
65709SOL    HW298902   2.231   9.435   1.272
65710SOL     OW98903   8.651   4.350   4.416
65710SOL    HW198904   8.675   4.340   4.324
65710SOL    HW298905   8.640   4.260   4.448
65711SOL     OW98906   3.163  11.956   3.587
65711SOL    HW198907   3.166  12.001   3.502
65711SOL    HW298908   3.154  11.863   3.565
65712SOL     OW98909  10.341  10.118   6.107
65712SOL    HW198910  10.294  10.154   6.032
65712SOL    HW298911  10.433  10.133   6.088
65713SOL     OW98912  11.706  13.237   0.269
65713SOL    HW198913  11.616  13.251   0.238
65713SOL    HW298914  11.698  13.167   0.334
65714SOL     OW98915   0.552   3.976   0.371
65714SOL    HW198916   0.624   3.916   0.349
65714SOL    HW298917   0.549   4.037   0.297
65715SOL     OW98918   0.031   7.811   3.087
65715SOL    HW198919   0.073   7.807   3.173
65715SOL    HW298920   0.104   7.816   3.025
65716SOL     OW98921   0.047   7.884   0.257
65716SOL    HW198922   0.110   7.947   0.291
65716SOL    HW298923   0.099   7.808   0.233
65717SOL     OW98924   6.315   7.410   9.294
65717SOL    HW198925   6.238   7.396   9.349
65717SOL    HW298926   6.297   7.490   9.245
65718SOL     OW98927  10.296   4.604   6.088
65718SOL    HW198928  10.246   4.601   6.169
65718SOL    HW298929  10.253   4.671   6.035
65719SOL     OW98930   8.440   0.166   9.664
65719SOL    HW198931   8.436   0.214   9.582
65719SOL    HW298932   8.424   0.075   9.640
65720SOL     OW98933  10.831   5.943  10.567
65720SOL    HW198934  10.862   5.915  10.653
65720SOL    HW298935  10.818   5.862  10.518
65721SOL     OW98936   3.182   4.374  11.515
65721SOL    HW198937   3.168   4.321  11.594
65721SOL    HW298938   3.094   4.393  11.482
65722SOL     OW98939  13.398  11.352  10.132
65722SOL    HW198940  13.421  11.425  10.189
65722SOL    HW298941  13.315  11.320  10.165
65723SOL     OW98942   8.755   5.401   3.732
65723SOL    HW198943   8.849   5.388   3.746
65723SOL    HW298944   8.714   5.366   3.811
65724SOL     OW98945   6.156  10.658  11.571
65724SOL    HW198946   6.209  10.600  11.516
65724SOL    HW298947   6.081  10.604  11.596
65725SOL     OW98948   3.985   4.891  11.991
65725SOL    HW198949   3.900   4.849  11.981
65725SOL    HW298950   3.987   4.957  11.922
65726SOL     OW98951   0.712   8.462   3.811
65726SOL    HW198952   0.725   8.543   3.860
65726SOL    HW298953   0.649   8.412   3.863
65727SOL     OW98954   9.771   1.779   2.582
65727SOL    HW198955   9.714   1.771   2.658
65727SOL    HW298956   9.856   1.802   2.618
65728SOL     OW98957   3.420   3.358  12.359
65728SOL    HW198958   3.500   3.321  12.323
65728SOL    HW298959   3.426   3.341  12.453
65729SOL     OW98960   7.191   9.028   5.644
65729SOL    HW198961   7.173   9.003   5.735
65729SOL    HW298962   7.218   9.120   5.649
65730SOL     OW98963   2.730   0.327   0.744
65730SOL    HW198964   2.653   0.384   0.738
65730SOL    HW298965   2.783   0.349   0.668
65731SOL     OW98966   6.477   0.841   5.486
65731SOL    HW198967   6.449   0.819   5.397
65731SOL    HW298968   6.530   0.921   5.475
65732SOL     OW98969   7.194   9.508   6.405
65732SOL    HW198970   7.117   9.499   6.461
65732SOL    HW298971   7.168   9.570   6.338
65733SOL     OW98972   3.248   1.179   1.520
65733SOL    HW198973   3.257   1.089   1.551
65733SOL    HW298974   3.163   1.207   1.553
65734SOL     OW98975  11.025   0.760   6.528
65734SOL    HW198976  11.047   0.694   6.462
65734SOL    HW298977  10.945   0.801   6.495
65735SOL     OW98978  11.709   0.884   3.171
65735SOL    HW198979  11.643   0.871   3.103
65735SOL    HW298980  11.729   0.797   3.203
65736SOL     OW98981   5.752   0.077   1.178
65736SOL    HW198982   5.705   0.131   1.115
65736SOL    HW298983   5.844   0.103   1.168
65737SOL     OW98984   5.061   2.122   4.581
65737SOL    HW198985   4.979   2.075   4.596
65737SOL    HW298986   5.121   2.087   4.647
65738SOL     OW98987  12.986  14.877   2.934
65738SOL    HW198988  12.908   0.040   2.895
65738SOL    HW298989  13.050   0.071   2.938
65739SOL     OW98990   2.051   0.201   5.080
65739SOL    HW198991   2.069   0.107   5.081
65739SOL    HW298992   2.007   0.216   4.997
65740SOL     OW98993  12.595  13.435  11.564
65740SOL    HW198994  12.516  13.480  11.593
65740SOL    HW298995  12.664  13.469  11.621
65741SOL     OW98996   1.433  12.514  10.925
65741SOL    HW198997   1.360  12.467  10.965
65741SOL    HW298998   1.393  12.567  10.856
65742SOL     OW98999   6.773  13.245   4.168
65742SOL    HW199000   6.804  13.297   4.094
65742SOL    HW299001   6.726  13.307   4.224
65743SOL     OW99002  10.011  13.631   7.868
65743SOL    HW199003  10.039  13.706   7.920
65743SOL    HW299004   9.921  13.615   7.895
65744SOL     OW99005  10.614   0.102  13.546
65744SOL    HW199006  10.590   0.039  13.478
65744SOL    HW299007  10.536   0.107  13.602
65745SOL     OW99008   3.081   8.352  12.676
65745SOL    HW199009   3.106   8.360  12.769
65745SOL    HW299010   3.012   8.286  12.676
65746SOL     OW99011  14.590   9.632  10.419
65746SOL    HW199012  14.590   9.574  10.495
65746SOL    HW299013  14.510   9.610  10.371
65747SOL     OW99014   9.939   0.198  11.038
65747SOL    HW199015   9.984   0.271  10.995
65747SOL    HW299016   9.947   0.216  11.131
65748SOL     OW99017   2.077   1.637  11.557
65748SOL    HW199018   2.089   1.594  11.641
65748SOL    HW299019   2.091   1.730  11.576
65749SOL     OW99020   8.040  14.593   6.724
65749SOL    HW199021   8.051  14.517   6.667
65749SOL    HW299022   8.109  14.582   6.790
65750SOL     OW99023   9.783   4.551  14.014
65750SOL    HW199024   9.870   4.591  14.008
65750SOL    HW299025   9.728   4.603  13.955
65751SOL     OW99026   3.377   2.797  11.299
65751SOL    HW199027   3.438   2.865  11.327
65751SOL    HW299028   3.294   2.820  11.341
65752SOL     OW99029   4.541   2.997   1.683
65752SOL    HW199030   4.540   2.907   1.716
65752SOL    HW299031   4.634   3.015   1.668
65753SOL     OW99032   8.789   6.679   2.360
65753SOL    HW199033   8.756   6.738   2.428
65753SOL    HW299034   8.728   6.689   2.287
65754SOL     OW99035   0.748   4.959   1.744
65754SOL    HW199036   0.794   5.035   1.780
65754SOL    HW299037   0.816   4.906   1.705
65755SOL     OW99038  14.583   0.074   8.872
65755SOL    HW199039  14.536   0.096   8.792
65755SOL    HW299040  14.546   0.131   8.939
65756SOL     OW99041  10.113   5.574   8.576
65756SOL    HW199042  10.057   5.527   8.639
65756SOL    HW299043  10.055   5.638   8.536
65757SOL     OW99044   2.076   7.570   9.610
65757SOL    HW199045   2.085   7.550   9.517
65757SOL    HW299046   1.994   7.618   9.617
65758SOL     OW99047   5.963   5.169  10.506
65758SOL    HW199048   5.880   5.121  10.498
65758SOL    HW299049   5.976   5.178  10.600
65759SOL     OW99050  14.087   5.687   2.453
65759SOL    HW199051  14.067   5.734   2.533
65759SOL    HW299052  14.158   5.628   2.476
65760SOL     OW99053  12.430   6.574  14.140
65760SOL    HW199054  12.400   6.519  14.067
65760SOL    HW299055  12.408   6.663  14.113
65761SOL     OW99056  10.028   9.348   1.990
65761SOL    HW199057  10.014   9.438   2.020
65761SOL    HW299058  10.024   9.295   2.069
65762SOL     OW99059   4.218   9.846   3.139
65762SOL    HW199060   4.310   9.858   3.160
65762SOL    HW299061   4.219   9.788   3.062
65763SOL     OW99062   4.803   1.712  11.149
65763SOL    HW199063   4.717   1.732  11.185
65763SOL    HW299064   4.813   1.618  11.162
65764SOL     OW99065   8.015   1.699   2.565
65764SOL    HW199066   8.055   1.654   2.490
65764SOL    HW299067   8.067   1.779   2.575
65765SOL     OW99068  13.728   3.100   5.992
65765SOL    HW199069  13.677   3.027   5.960
65765SOL    HW299070  13.817   3.085   5.958
65766SOL     OW99071   3.191   8.494  10.950
65766SOL    HW199072   3.182   8.421  10.888
65766SOL    HW299073   3.110   8.491  11.002
65767SOL     OW99074   1.136   2.469   8.183
65767SOL    HW199075   1.065   2.503   8.237
65767SOL    HW299076   1.201   2.540   8.180
65768SOL     OW99077  11.926  10.647   9.355
65768SOL    HW199078  11.857  10.670   9.293
65768SOL    HW299079  11.975  10.577   9.312
65769SOL     OW99080   9.959   3.166   2.719
65769SOL    HW199081   9.999   3.108   2.653
65769SOL    HW299082   9.957   3.112   2.798
65770SOL     OW99083   5.001   5.121   8.047
65770SOL    HW199084   4.935   5.073   8.097
65770SOL    HW299085   4.951   5.166   7.979
65771SOL     OW99086   9.430  14.611   9.142
65771SOL    HW199087   9.343  14.641   9.168
65771SOL    HW299088   9.425  14.601   9.047
65772SOL     OW99089   0.553  10.341   8.386
65772SOL    HW199090   0.547  10.384   8.471
65772SOL    HW299091   0.474  10.287   8.380
65773SOL     OW99092   9.979   2.177   3.345
65773SOL    HW199093   9.998   2.232   3.269
65773SOL    HW299094  10.047   2.199   3.409
65774SOL     OW99095   5.358   0.611   8.756
65774SOL    HW199096   5.323   0.534   8.712
65774SOL    HW299097   5.365   0.585   8.848
65775SOL     OW99098  14.623   8.500   0.744
65775SOL    HW199099  14.539   8.536   0.715
65775SOL    HW299100  14.619   8.505   0.840
65776SOL     OW99101   6.682   2.525  12.354
65776SOL    HW199102   6.595   2.494  12.378
65776SOL    HW299103   6.701   2.594  12.417
65777SOL     OW99104   2.748   9.873  10.811
65777SOL    HW199105   2.692   9.945  10.839
65777SOL    HW299106   2.731   9.865  10.717
65778SOL     OW99107   5.238   8.172  13.696
65778SOL    HW199108   5.320   8.218  13.716
65778SOL    HW299109   5.170   8.233  13.725
65779SOL     OW99110  12.962  10.671  12.923
65779SOL    HW199111  13.008  10.706  12.999
65779SOL    HW299112  13.025  10.674  12.851
65780SOL     OW99113   5.990   7.421   2.120
65780SOL    HW199114   5.926   7.351   2.128
65780SOL    HW299115   6.049   7.408   2.194
65781SOL     OW99116   2.795   7.492  10.550
65781SOL    HW199117   2.883   7.516  10.522
65781SOL    HW299118   2.749   7.576  10.560
65782SOL     OW99119  11.216  10.703   9.411
65782SOL    HW199120  11.123  10.690   9.397
65782SOL    HW299121  11.222  10.767   9.482
65783SOL     OW99122  11.287   4.703   6.628
65783SOL    HW199123  11.238   4.784   6.643
65783SOL    HW299124  11.304   4.670   6.716
65784SOL     OW99125   9.320  14.580  10.489
65784SOL    HW199126   9.384  14.609  10.554
65784SOL    HW299127   9.372  14.565  10.410
65785SOL     OW99128   4.771  13.380   8.845
65785SOL    HW199129   4.849  13.333   8.874
65785SOL    HW299130   4.799  13.424   8.764
65786SOL     OW99131   0.184   3.116   1.668
65786SOL    HW199132   0.159   3.183   1.605
65786SOL    HW299133   0.111   3.053   1.666
65787SOL     OW99134   6.454  11.655   3.983
65787SOL    HW199135   6.520  11.689   3.922
65787SOL    HW299136   6.370  11.676   3.942
65788SOL     OW99137   9.525   2.089  14.662
65788SOL    HW199138   9.616   2.116  14.673
65788SOL    HW299139   9.482   2.166  14.625
65789SOL     OW99140  14.126   9.958   5.729
65789SOL    HW199141  14.204  10.004   5.761
65789SOL    HW299142  14.096  10.011   5.655
65790SOL     OW99143   6.356   6.106  12.205
65790SOL    HW199144   6.392   6.186  12.243
65790SOL    HW299145   6.404   6.094  12.123
65791SOL     OW99146   0.069   5.898   6.486
65791SOL    HW199147   0.109   5.820   6.448
65791SOL    HW299148   0.128   5.969   6.461
65792SOL     OW99149   5.124   3.507  12.577
65792SOL    HW199150   5.174   3.468  12.505
65792SOL    HW299151   5.034   3.513  12.545
65793SOL     OW99152  13.218  10.189   8.733
65793SOL    HW199153  13.186  10.098   8.735
65793SOL    HW299154  13.288  10.188   8.667
65794SOL     OW99155  14.209   4.183  13.723
65794SOL    HW199156  14.233   4.119  13.657
65794SOL    HW299157  14.183   4.261  13.673
65795SOL     OW99158  13.027  13.397  13.046
65795SOL    HW199159  12.978  13.315  13.057
65795SOL    HW299160  13.065  13.414  13.132
65796SOL     OW99161   4.978   2.088  13.040
65796SOL    HW199162   5.015   2.149  13.104
65796SOL    HW299163   4.888   2.118  13.026
65797SOL     OW99164  14.868   7.225   9.276
65797SOL    HW199165   0.080   7.246   9.301
65797SOL    HW299166  14.816   7.245   9.354
65798SOL     OW99167   4.445   3.934   8.911
65798SOL    HW199168   4.507   3.923   8.840
65798SOL    HW299169   4.435   4.029   8.919
65799SOL     OW99170  10.792  12.030   9.461
65799SOL    HW199171  10.773  12.064   9.548
65799SOL    HW299172  10.740  11.949   9.455
65800SOL     OW99173   8.694   3.850   9.631
65800SOL    HW199174   8.621   3.860   9.692
65800SOL    HW299175   8.759   3.799   9.680
65801SOL     OW99176  11.405   2.680  12.993
65801SOL    HW199177  11.474   2.620  12.963
65801SOL    HW299178  11.340   2.623  13.034
65802SOL     OW99179   4.537   1.808   5.463
65802SOL    HW199180   4.563   1.723   5.425
65802SOL    HW299181   4.620   1.850   5.486
65803SOL     OW99182   6.188  14.721   1.747
65803SOL    HW199183   6.225  14.661   1.682
65803SOL    HW299184   6.094  14.703   1.747
65804SOL     OW99185  12.076   9.063   3.640
65804SOL    HW199186  12.101   9.002   3.571
65804SOL    HW299187  11.995   9.027   3.675
65805SOL     OW99188  10.296   3.771   7.763
65805SOL    HW199189  10.288   3.790   7.670
65805SOL    HW299190  10.209   3.787   7.799
65806SOL     OW99191   3.016   2.531   5.156
65806SOL    HW199192   2.968   2.511   5.076
65806SOL    HW299193   3.100   2.486   5.145
65807SOL     OW99194   7.789   6.884   4.301
65807SOL    HW199195   7.769   6.791   4.312
65807SOL    HW299196   7.842   6.888   4.221
65808SOL     OW99197   6.866  14.276   5.754
65808SOL    HW199198   6.908  14.261   5.669
65808SOL    HW299199   6.926  14.334   5.800
65809SOL     OW99200   8.352  12.397  13.139
65809SOL    HW199201   8.302  12.459  13.087
65809SOL    HW299202   8.315  12.311  13.116
65810SOL     OW99203   1.728  10.176   1.129
65810SOL    HW199204   1.760  10.155   1.041
65810SOL    HW299205   1.634  10.186   1.118
65811SOL     OW99206   7.339   3.788   2.001
65811SOL    HW199207   7.295   3.863   1.960
65811SOL    HW299208   7.428   3.820   2.020
65812SOL     OW99209  10.760   3.843   6.031
65812SOL    HW199210  10.686   3.809   6.080
65812SOL    HW299211  10.723   3.911   5.975
65813SOL     OW99212  10.234  12.633  13.652
65813SOL    HW199213  10.326  12.619  13.630
65813SOL    HW299214  10.229  12.725  13.678
65814SOL     OW99215   9.734  10.756   4.620
65814SOL    HW199216   9.779  10.837   4.593
65814SOL    HW299217   9.642  10.774   4.605
65815SOL     OW99218  14.645   3.732   3.036
65815SOL    HW199219  14.595   3.661   2.995
65815SOL    HW299220  14.583   3.804   3.043
65816SOL     OW99221   8.469   8.675  13.704
65816SOL    HW199222   8.562   8.700  13.706
65816SOL    HW299223   8.471   8.579  13.704
65817SOL     OW99224   7.940   3.647   5.802
65817SOL    HW199225   7.892   3.658   5.884
65817SOL    HW299226   7.960   3.736   5.772
65818SOL     OW99227   7.802   2.038  12.643
65818SOL    HW199228   7.742   1.976  12.683
65818SOL    HW299229   7.790   2.026  12.549
65819SOL     OW99230   7.132  14.368   3.389
65819SOL    HW199231   7.175  14.289   3.422
65819SOL    HW299232   7.049  14.338   3.352
65820SOL     OW99233   9.834   5.368  13.788
65820SOL    HW199234   9.840   5.316  13.708
65820SOL    HW299235   9.740   5.374  13.806
65821SOL     OW99236  11.170  12.994   3.714
65821SOL    HW199237  11.126  13.078   3.705
65821SOL    HW299238  11.259  13.010   3.683
65822SOL     OW99239   1.047   4.582  10.361
65822SOL    HW199240   1.002   4.600  10.444
65822SOL    HW299241   0.982   4.605  10.294
65823SOL     OW99242   0.041   2.162   0.988
65823SOL    HW199243   0.094   2.083   0.992
65823SOL    HW299244  14.843   2.143   1.045
65824SOL     OW99245  10.713   0.267   9.672
65824SOL    HW199246  10.765   0.216   9.734
65824SOL    HW299247  10.777   0.315   9.620
65825SOL     OW99248   6.785   7.043   9.538
65825SOL    HW199249   6.836   7.095   9.476
65825SOL    HW299250   6.694   7.058   9.513
65826SOL     OW99251   6.571  11.220   0.535
65826SOL    HW199252   6.498  11.262   0.580
65826SOL    HW299253   6.628  11.293   0.510
65827SOL     OW99254   6.893  14.477  10.768
65827SOL    HW199255   6.809  14.511  10.799
65827SOL    HW299256   6.958  14.526  10.818
65828SOL     OW99257   4.812  14.035   6.818
65828SOL    HW199258   4.737  13.994   6.861
65828SOL    HW299259   4.827  13.982   6.740
65829SOL     OW99260   1.080  14.223   6.376
65829SOL    HW199261   1.044  14.309   6.400
65829SOL    HW299262   1.125  14.193   6.454
65830SOL     OW99263   9.967  11.258   4.010
65830SOL    HW199264  10.019  11.222   4.082
65830SOL    HW299265   9.985  11.353   4.012
65831SOL     OW99266   2.847   7.002  13.331
65831SOL    HW199267   2.783   7.049  13.385
65831SOL    HW299268   2.817   6.911  13.331
65832SOL     OW99269   4.900   3.958  12.122
65832SOL    HW199270   4.983   3.960  12.170
65832SOL    HW299271   4.925   3.969  12.030
65833SOL     OW99272   9.279  14.869   6.081
65833SOL    HW199273   9.310   0.055   6.146
65833SOL    HW299274   9.354  14.855   6.023
65834SOL     OW99275   2.919   8.500   5.344
65834SOL    HW199276   2.898   8.437   5.413
65834SOL    HW299277   2.933   8.583   5.390
65835SOL     OW99278  14.176   3.923  10.752
65835SOL    HW199279  14.146   3.932  10.662
65835SOL    HW299280  14.145   3.837  10.779
65836SOL     OW99281   1.734  11.308   3.226
65836SOL    HW199282   1.644  11.322   3.255
65836SOL    HW299283   1.785  11.377   3.269
65837SOL     OW99284  13.600   2.936  10.020
65837SOL    HW199285  13.614   2.967  10.109
65837SOL    HW299286  13.688   2.919   9.986
65838SOL     OW99287  12.048  10.779  11.407
65838SOL    HW199288  12.051  10.733  11.491
65838SOL    HW299289  11.955  10.775  11.381
65839SOL     OW99290   2.480  12.506   3.606
65839SOL    HW199291   2.530  12.470   3.533
65839SOL    HW299292   2.543  12.517   3.676
65840SOL     OW99293  12.890  14.095  11.141
65840SOL    HW199294  12.863  14.159  11.206
65840SOL    HW299295  12.986  14.092  11.149
65841SOL     OW99296   5.729  11.467  14.510
65841SOL    HW199297   5.697  11.550  14.476
65841SOL    HW299298   5.786  11.491  14.583
65842SOL     OW99299   7.747   6.530  10.017
65842SOL    HW199300   7.783   6.613   9.986
65842SOL    HW299301   7.729   6.480   9.937
65843SOL     OW99302   6.497   6.283   3.073
65843SOL    HW199303   6.591   6.263   3.068
65843SOL    HW299304   6.491   6.375   3.048
65844SOL     OW99305  11.926   8.557   4.944
65844SOL    HW199306  11.915   8.524   4.855
65844SOL    HW299307  11.851   8.520   4.992
65845SOL     OW99308  14.629   4.539   5.218
65845SOL    HW199309  14.654   4.631   5.229
65845SOL    HW299310  14.562   4.524   5.285
65846SOL     OW99311   6.549   9.941   3.386
65846SOL    HW199312   6.520   9.988   3.308
65846SOL    HW299313   6.534   9.849   3.366
65847SOL     OW99314   1.213   7.526   7.021
65847SOL    HW199315   1.219   7.599   6.960
65847SOL    HW299316   1.279   7.463   6.991
65848SOL     OW99317   8.751   3.938  11.709
65848SOL    HW199318   8.831   3.890  11.689
65848SOL    HW299319   8.772   4.030  11.690
65849SOL     OW99320  11.021  11.424   4.311
65849SOL    HW199321  11.000  11.373   4.390
65849SOL    HW299322  10.943  11.417   4.256
65850SOL     OW99323  11.290   7.161  10.768
65850SOL    HW199324  11.227   7.127  10.704
65850SOL    HW299325  11.237   7.184  10.844
65851SOL     OW99326  14.225   2.895   0.256
65851SOL    HW199327  14.253   2.877   0.345
65851SOL    HW299328  14.223   2.809   0.213
65852SOL     OW99329   7.090  13.696   3.397
65852SOL    HW199330   7.174  13.666   3.432
65852SOL    HW299331   7.114  13.758   3.328
65853SOL     OW99332   6.861   0.199  12.098
65853SOL    HW199333   6.886   0.161  12.013
65853SOL    HW299334   6.944   0.227  12.137
65854SOL     OW99335   9.698   2.304  12.212
65854SOL    HW199336   9.741   2.346  12.286
65854SOL    HW299337   9.628   2.364  12.187
65855SOL     OW99338  13.699   1.708  13.478
65855SOL    HW199339  13.759   1.693  13.550
65855SOL    HW299340  13.642   1.631  13.477
65856SOL     OW99341  12.040  14.359  10.551
65856SOL    HW199342  12.005  14.356  10.640
65856SOL    HW299343  12.025  14.271  10.516
65857SOL     OW99344  13.881   4.921   4.738
65857SOL    HW199345  13.842   4.892   4.656
65857SOL    HW299346  13.930   4.845   4.770
65858SOL     OW99347  12.055   6.068  13.303
65858SOL    HW199348  12.143   6.072  13.266
65858SOL    HW299349  12.026   6.159  13.307
65859SOL     OW99350  10.639  11.720   7.210
65859SOL    HW199351  10.654  11.814   7.202
65859SOL    HW299352  10.626  11.690   7.120
65860SOL     OW99353   9.843   4.059   4.307
65860SOL    HW199354   9.786   4.061   4.384
65860SOL    HW299355   9.915   4.002   4.331
65861SOL     OW99356   6.902  12.981   3.475
65861SOL    HW199357   6.877  13.015   3.389
65861SOL    HW299358   6.819  12.971   3.522
65862SOL     OW99359   7.900   5.377   5.431
65862SOL    HW199360   7.873   5.467   5.452
65862SOL    HW299361   7.955   5.351   5.505
65863SOL     OW99362   1.486   1.557   9.059
65863SOL    HW199363   1.396   1.529   9.078
65863SOL    HW299364   1.524   1.574   9.145
65864SOL     OW99365  12.832   7.979  10.832
65864SOL    HW199366  12.812   7.991  10.739
65864SOL    HW299367  12.837   8.068  10.867
65865SOL     OW99368   6.680  13.002   4.110
65865SOL    HW199369   6.737  12.983   4.035
65865SOL    HW299370   6.722  13.076   4.154
65866SOL     OW99371   1.703   7.812  14.846
65866SOL    HW199372   1.698   7.801  14.751
65866SOL    HW299373   1.741   7.899  14.858
65867SOL     OW99374  14.515   3.504   4.131
65867SOL    HW199375  14.555   3.434   4.183
65867SOL    HW299376  14.580   3.574   4.132
65868SOL     OW99377   1.275   0.694  13.740
65868SOL    HW199378   1.309   0.619  13.691
65868SOL    HW299379   1.285   0.768  13.679
65869SOL     OW99380   1.204   4.840   1.860
65869SOL    HW199381   1.109   4.839   1.851
65869SOL    HW299382   1.233   4.758   1.821
65870SOL     OW99383  10.057  14.533  14.205
65870SOL    HW199384  10.120  14.465  14.230
65870SOL    HW299385   9.976  14.485  14.189
65871SOL     OW99386   2.163   9.134   3.198
65871SOL    HW199387   2.133   9.128   3.289
65871SOL    HW299388   2.085   9.117   3.146
65872SOL     OW99389   9.448   2.719  12.027
65872SOL    HW199390   9.374   2.777  12.008
65872SOL    HW299391   9.524   2.777  12.027
65873SOL     OW99392   8.343   7.278  14.353
65873SOL    HW199393   8.295   7.217  14.409
65873SOL    HW299394   8.348   7.359  14.404
65874SOL     OW99395   5.252   7.768  12.870
65874SOL    HW199396   5.171   7.778  12.821
65874SOL    HW299397   5.228   7.786  12.961
65875SOL     OW99398   1.162   6.168   9.924
65875SOL    HW199399   1.122   6.255   9.931
65875SOL    HW299400   1.209   6.157  10.006
65876SOL     OW99401   3.531  13.890  11.082
65876SOL    HW199402   3.566  13.812  11.124
65876SOL    HW299403   3.436  13.879  11.087
65877SOL     OW99404   2.623   3.522   9.848
65877SOL    HW199405   2.712   3.531   9.883
65877SOL    HW299406   2.622   3.579   9.771
65878SOL     OW99407   9.137   1.137  10.183
65878SOL    HW199408   9.103   1.049  10.202
65878SOL    HW299409   9.130   1.183  10.267
65879SOL     OW99410   5.417  13.373  14.811
65879SOL    HW199411   5.482  13.443  14.811
65879SOL    HW299412   5.334  13.418  14.828
65880SOL     OW99413   8.135   6.362   1.359
65880SOL    HW199414   8.056   6.364   1.414
65880SOL    HW299415   8.197   6.420   1.403
65881SOL     OW99416  12.145   2.424   4.164
65881SOL    HW199417  12.121   2.467   4.246
65881SOL    HW299418  12.074   2.362   4.148
65882SOL     OW99419   9.862   2.456   0.159
65882SOL    HW199420   9.954   2.478   0.146
65882SOL    HW299421   9.842   2.484   0.248
65883SOL     OW99422   4.818   9.648   4.144
65883SOL    HW199423   4.834   9.726   4.198
65883SOL    HW299424   4.739   9.669   4.095
65884SOL     OW99425  12.395  10.178  11.328
65884SOL    HW199426  12.399  10.271  11.350
65884SOL    HW299427  12.354  10.174  11.242
65885SOL     OW99428   1.303   4.346   2.968
65885SOL    HW199429   1.395   4.361   2.949
65885SOL    HW299430   1.299   4.254   2.994
65886SOL     OW99431   7.088   5.012  13.369
65886SOL    HW199432   7.122   4.930  13.404
65886SOL    HW299433   7.039   4.987  13.291
65887SOL     OW99434   9.049  13.524   5.583
65887SOL    HW199435   8.998  13.471   5.644
65887SOL    HW299436   8.996  13.526   5.503
65888SOL     OW99437   7.839   1.322   4.216
65888SOL    HW199438   7.786   1.308   4.294
65888SOL    HW299439   7.877   1.236   4.197
65889SOL     OW99440   5.845   1.005  11.236
65889SOL    HW199441   5.885   0.951  11.167
65889SOL    HW299442   5.794   1.070  11.189
65890SOL     OW99443   1.317  11.830   9.506
65890SOL    HW199444   1.332  11.822   9.600
65890SOL    HW299445   1.363  11.910   9.481
65891SOL     OW99446   9.700  12.652   7.719
65891SOL    HW199447   9.746  12.581   7.764
65891SOL    HW299448   9.735  12.732   7.758
65892SOL     OW99449  11.258  10.949   2.448
65892SOL    HW199450  11.197  10.999   2.503
65892SOL    HW299451  11.205  10.880   2.409
65893SOL     OW99452  10.702  12.013   7.278
65893SOL    HW199453  10.714  12.088   7.337
65893SOL    HW299454  10.613  12.022   7.245
65894SOL     OW99455   7.640   8.445   6.061
65894SOL    HW199456   7.617   8.529   6.102
65894SOL    HW299457   7.588   8.442   5.982
65895SOL     OW99458   9.114   8.646   7.032
65895SOL    HW199459   9.185   8.628   6.969
65895SOL    HW299460   9.155   8.700   7.099
65896SOL     OW99461   6.428   3.792   8.345
65896SOL    HW199462   6.500   3.747   8.390
65896SOL    HW299463   6.350   3.745   8.373
65897SOL     OW99464   3.743   5.831   1.510
65897SOL    HW199465   3.691   5.850   1.432
65897SOL    HW299466   3.683   5.847   1.583
65898SOL     OW99467   9.290   6.154   1.065
65898SOL    HW199468   9.324   6.243   1.060
65898SOL    HW299469   9.367   6.099   1.080
65899SOL     OW99470   5.433   8.800  13.977
65899SOL    HW199471   5.505   8.818  13.916
65899SOL    HW299472   5.469   8.820  14.063
65900SOL     OW99473   9.920   4.776   4.385
65900SOL    HW199474   9.940   4.689   4.350
65900SOL    HW299475   9.912   4.763   4.479
65901SOL     OW99476  13.306  11.461  14.165
65901SOL    HW199477  13.367  11.442  14.093
65901SOL    HW299478  13.361  11.497  14.234
65902SOL     OW99479   3.924   5.945   2.523
65902SOL    HW199480   3.919   6.040   2.524
65902SOL    HW299481   3.993   5.923   2.586
65903SOL     OW99482   3.212   0.163  13.390
65903SOL    HW199483   3.160   0.184  13.312
65903SOL    HW299484   3.154   0.184  13.464
65904SOL     OW99485   2.528   7.252  14.253
65904SOL    HW199486   2.594   7.183  14.246
65904SOL    HW299487   2.534   7.300  14.170
65905SOL     OW99488  12.738   4.167   1.701
65905SOL    HW199489  12.773   4.146   1.614
65905SOL    HW299490  12.670   4.233   1.684
65906SOL     OW99491   8.737  10.948  11.476
65906SOL    HW199492   8.710  10.884  11.411
65906SOL    HW299493   8.732  11.032  11.430
65907SOL     OW99494   9.822   0.807  14.360
65907SOL    HW199495   9.835   0.823  14.267
65907SOL    HW299496   9.855   0.886  14.403
65908SOL     OW99497  13.184  10.995   7.625
65908SOL    HW199498  13.233  11.076   7.609
65908SOL    HW299499  13.218  10.933   7.561
65909SOL     OW99500  10.225  14.047   6.172
65909SOL    HW199501  10.144  14.091   6.197
65909SOL    HW299502  10.232  13.972   6.231
65910SOL     OW99503   5.178   4.359   7.628
65910SOL    HW199504   5.264   4.335   7.596
65910SOL    HW299505   5.180   4.335   7.721
65911SOL     OW99506   1.098   0.541  13.928
65911SOL    HW199507   1.116   0.557  13.836
65911SOL    HW299508   1.171   0.487  13.958
65912SOL     OW99509  10.296   4.795   4.127
65912SOL    HW199510  10.339   4.719   4.167
65912SOL    HW299511  10.216   4.759   4.087
65913SOL     OW99512   8.455   7.837  10.674
65913SOL    HW199513   8.510   7.847  10.597
65913SOL    HW299514   8.397   7.764  10.654
65914SOL     OW99515   1.257   7.043   0.888
65914SOL    HW199516   1.235   7.022   0.978
65914SOL    HW299517   1.352   7.056   0.888
65915SOL     OW99518   0.195   5.432   6.610
65915SOL    HW199519   0.189   5.488   6.532
65915SOL    HW299520   0.269   5.467   6.659
65916SOL     OW99521   1.122   8.177   9.662
65916SOL    HW199522   1.203   8.126   9.665
65916SOL    HW299523   1.099   8.179   9.569
65917SOL     OW99524   2.110   3.035   5.687
65917SOL    HW199525   2.053   3.110   5.702
65917SOL    HW299526   2.177   3.042   5.755
65918SOL     OW99527  14.689   3.108   4.076
65918SOL    HW199528  14.652   3.020   4.073
65918SOL    HW299529  14.771   3.099   4.124
65919SOL     OW99530   9.277  13.522   9.472
65919SOL    HW199531   9.308  13.444   9.427
65919SOL    HW299532   9.356  13.559   9.513
65920SOL     OW99533   9.249  12.243  11.770
65920SOL    HW199534   9.197  12.300  11.713
65920SOL    HW299535   9.198  12.238  11.851
65921SOL     OW99536   4.926   5.722  10.561
65921SOL    HW199537   4.866   5.778  10.512
65921SOL    HW299538   4.956   5.657  10.497
65922SOL     OW99539  13.564   2.139  11.614
65922SOL    HW199540  13.516   2.122  11.695
65922SOL    HW299541  13.633   2.073  11.613
65923SOL     OW99542   5.629   4.701   8.478
65923SOL    HW199543   5.722   4.704   8.456
65923SOL    HW299544   5.617   4.616   8.520
65924SOL     OW99545   8.477   6.738   4.421
65924SOL    HW199546   8.548   6.798   4.446
65924SOL    HW299547   8.401   6.795   4.409
65925SOL     OW99548   7.986   3.307   1.468
65925SOL    HW199549   7.943   3.266   1.393
65925SOL    HW299550   7.935   3.277   1.544
65926SOL     OW99551   6.594   8.456   0.902
65926SOL    HW199552   6.685   8.479   0.921
65926SOL    HW299553   6.589   8.362   0.920
65927SOL     OW99554   7.711   9.685  12.437
65927SOL    HW199555   7.690   9.778  12.448
65927SOL    HW299556   7.798   9.675  12.475
65928SOL     OW99557   7.414   5.347   4.997
65928SOL    HW199558   7.478   5.306   4.939
65928SOL    HW299559   7.441   5.323   5.085
65929SOL     OW99560   5.071   9.145   6.799
65929SOL    HW199561   5.035   9.068   6.756
65929SOL    HW299562   5.159   9.119   6.824
65930SOL     OW99563  14.456   7.454   4.127
65930SOL    HW199564  14.390   7.399   4.084
65930SOL    HW299565  14.418   7.474   4.212
65931SOL     OW99566  11.401   2.693  12.558
65931SOL    HW199567  11.325   2.731  12.602
65931SOL    HW299568  11.382   2.599  12.554
65932SOL     OW99569   1.793  12.809  10.856
65932SOL    HW199570   1.702  12.809  10.887
65932SOL    HW299571   1.804  12.896  10.818
65933SOL     OW99572  10.347  10.330   9.969
65933SOL    HW199573  10.342  10.244  10.012
65933SOL    HW299574  10.269  10.376  10.000
65934SOL     OW99575   9.149  12.335  10.908
65934SOL    HW199576   9.213  12.396  10.946
65934SOL    HW299577   9.141  12.363  10.817
65935SOL     OW99578   3.691   1.317   9.627
65935SOL    HW199579   3.597   1.303   9.644
65935SOL    HW299580   3.693   1.393   9.569
65936SOL     OW99581   1.936  12.507   3.558
65936SOL    HW199582   2.029  12.521   3.575
65936SOL    HW299583   1.933  12.433   3.497
65937SOL     OW99584   5.279   6.843  14.027
65937SOL    HW199585   5.222   6.766  14.030
65937SOL    HW299586   5.344   6.823  13.960
65938SOL     OW99587   9.079  11.021   0.190
65938SOL    HW199588   8.995  10.986   0.158
65938SOL    HW299589   9.133  10.943   0.203
65939SOL     OW99590   2.251  13.449   0.992
65939SOL    HW199591   2.199  13.432   0.914
65939SOL    HW299592   2.342  13.446   0.962
65940SOL     OW99593   8.988   6.939   7.546
65940SOL    HW199594   8.958   6.931   7.455
65940SOL    HW299595   9.009   7.032   7.556
65941SOL     OW99596   2.719  11.553   0.451
65941SOL    HW199597   2.725  11.469   0.407
65941SOL    HW299598   2.790  11.605   0.414
65942SOL     OW99599  11.962   9.270   8.834
65942SOL    HW199600  11.895   9.338   8.821
65942SOL    HW299601  11.913   9.188   8.835
65943SOL     OW99602  10.521  11.587   4.034
65943SOL    HW199603  10.547  11.667   4.079
65943SOL    HW299604  10.500  11.615   3.945
65944SOL     OW99605   0.827  10.649  13.061
65944SOL    HW199606   0.888  10.581  13.090
65944SOL    HW299607   0.848  10.661  12.968
65945SOL     OW99608  12.417   8.674   4.799
65945SOL    HW199609  12.379   8.752   4.839
65945SOL    HW299610  12.345   8.634   4.750
65946SOL     OW99611   6.932   7.524   7.656
65946SOL    HW199612   6.908   7.586   7.725
65946SOL    HW299613   6.891   7.441   7.684
65947SOL     OW99614   8.816   1.448   0.992
65947SOL    HW199615   8.724   1.445   1.016
65947SOL    HW299616   8.863   1.446   1.075
65948SOL     OW99617   9.564  14.581   7.824
65948SOL    HW199618   9.637  14.526   7.795
65948SOL    HW299619   9.587  14.607   7.913
65949SOL     OW99620   4.196   5.398  12.907
65949SOL    HW199621   4.257   5.433  12.842
65949SOL    HW299622   4.110   5.412  12.868
65950SOL     OW99623   5.248   8.015  14.052
65950SOL    HW199624   5.173   7.962  14.078
65950SOL    HW299625   5.210   8.085  14.000
65951SOL     OW99626  13.313  14.560   3.934
65951SOL    HW199627  13.360  14.642   3.914
65951SOL    HW299628  13.340  14.539   4.023
65952SOL     OW99629   7.436   4.616   0.606
65952SOL    HW199630   7.395   4.689   0.559
65952SOL    HW299631   7.500   4.658   0.663
65953SOL     OW99632  13.656   6.991   5.267
65953SOL    HW199633  13.624   6.998   5.177
65953SOL    HW299634  13.732   7.049   5.271
65954SOL     OW99635   8.242   9.980   4.906
65954SOL    HW199636   8.288  10.064   4.914
65954SOL    HW299637   8.161  10.001   4.860
65955SOL     OW99638  12.610   0.177   8.875
65955SOL    HW199639  12.537   0.162   8.815
65955SOL    HW299640  12.584   0.255   8.924
65956SOL     OW99641   8.357   4.817   2.600
65956SOL    HW199642   8.282   4.852   2.648
65956SOL    HW299643   8.326   4.808   2.510
65957SOL     OW99644   2.641  13.881   3.096
65957SOL    HW199645   2.642  13.967   3.138
65957SOL    HW299646   2.575  13.831   3.144
65958SOL     OW99647   1.406   1.067   4.679
65958SOL    HW199648   1.374   1.130   4.615
65958SOL    HW299649   1.382   0.981   4.643
65959SOL     OW99650   1.808   3.689   3.241
65959SOL    HW199651   1.882   3.666   3.185
65959SOL    HW299652   1.733   3.695   3.182
65960SOL     OW99653  10.903   6.656   7.259
65960SOL    HW199654  10.991   6.659   7.221
65960SOL    HW299655  10.915   6.618   7.345
65961SOL     OW99656   8.072   3.000  10.061
65961SOL    HW199657   8.152   2.999  10.113
65961SOL    HW299658   8.004   3.031  10.121
65962SOL     OW99659   4.209   6.614  11.523
65962SOL    HW199660   4.161   6.555  11.582
65962SOL    HW299661   4.151   6.624  11.448
65963SOL     OW99662  13.434   0.082   6.571
65963SOL    HW199663  13.450   0.029   6.493
65963SOL    HW299664  13.350   0.125   6.554
65964SOL     OW99665  14.375   8.151  10.230
65964SOL    HW199666  14.412   8.239  10.227
65964SOL    HW299667  14.388   8.116  10.142
65965SOL     OW99668   2.326   1.119   2.035
65965SOL    HW199669   2.420   1.113   2.020
65965SOL    HW299670   2.316   1.108   2.130
65966SOL     OW99671   4.140   1.477  13.850
65966SOL    HW199672   4.065   1.428  13.884
65966SOL    HW299673   4.118   1.494  13.759
65967SOL     OW99674   4.188  14.591  10.630
65967SOL    HW199675   4.255  14.624  10.689
65967SOL    HW299676   4.108  14.592  10.682
65968SOL     OW99677  13.088  11.483   7.568
65968SOL    HW199678  13.060  11.394   7.587
65968SOL    HW299679  13.168  11.495   7.620
65969SOL     OW99680   8.168   6.787   3.574
65969SOL    HW199681   8.157   6.831   3.658
65969SOL    HW299682   8.172   6.858   3.510
65970SOL     OW99683   0.242   1.970   1.949
65970SOL    HW199684   0.252   1.964   2.044
65970SOL    HW299685   0.267   1.883   1.917
65971SOL     OW99686   5.545  10.911   5.183
65971SOL    HW199687   5.625  10.961   5.196
65971SOL    HW299688   5.549  10.842   5.249
65972SOL     OW99689   2.653   4.036  12.177
65972SOL    HW199690   2.714   4.071  12.112
65972SOL    HW299691   2.658   3.941  12.168
65973SOL     OW99692   4.482  13.737   9.204
65973SOL    HW199693   4.531  13.671   9.155
65973SOL    HW299694   4.546  13.774   9.264
65974SOL     OW99695   1.338  12.998  13.356
65974SOL    HW199696   1.334  12.920  13.412
65974SOL    HW299697   1.370  13.067  13.413
65975SOL     OW99698   2.320   8.303   6.994
65975SOL    HW199699   2.285   8.325   6.907
65975SOL    HW299700   2.246   8.266   7.041
65976SOL     OW99701  14.572  13.610  13.894
65976SOL    HW199702  14.607  13.616  13.805
65976SOL    HW299703  14.630  13.547  13.938
65977SOL     OW99704   1.023   6.512   6.704
65977SOL    HW199705   1.018   6.541   6.613
65977SOL    HW299706   0.953   6.561   6.748
65978SOL     OW99707   3.098  13.352   2.323
65978SOL    HW199708   3.103  13.433   2.273
65978SOL    HW299709   3.159  13.293   2.280
65979SOL     OW99710   8.312   8.226   9.215
65979SOL    HW199711   8.306   8.307   9.165
65979SOL    HW299712   8.271   8.160   9.158
65980SOL     OW99713   9.574   4.948   0.609
65980SOL    HW199714   9.491   4.973   0.650
65980SOL    HW299715   9.640   4.968   0.676
65981SOL     OW99716   5.762   1.182   4.093
65981SOL    HW199717   5.808   1.117   4.040
65981SOL    HW299718   5.671   1.152   4.093
65982SOL     OW99719  13.350  14.553   8.536
65982SOL    HW199720  13.317  14.599   8.613
65982SOL    HW299721  13.402  14.481   8.571
65983SOL     OW99722   2.784   9.458  12.339
65983SOL    HW199723   2.743   9.432  12.256
65983SOL    HW299724   2.737   9.406  12.405
65984SOL     OW99725   8.666  11.371   1.071
65984SOL    HW199726   8.686  11.432   1.000
65984SOL    HW299727   8.744  11.373   1.127
65985SOL     OW99728   2.432   0.834  13.545
65985SOL    HW199729   2.496   0.763  13.551
65985SOL    HW299730   2.485   0.911  13.523
65986SOL     OW99731  10.707   2.745   3.844
65986SOL    HW199732  10.785   2.691   3.843
65986SOL    HW299733  10.735   2.829   3.881
65987SOL     OW99734   3.115   1.095   0.705
65987SOL    HW199735   3.134   1.029   0.771
65987SOL    HW299736   3.159   1.064   0.626
65988SOL     OW99737  13.407   9.281   8.631
65988SOL    HW199738  13.501   9.286   8.612
65988SOL    HW299739  13.394   9.345   8.702
65989SOL     OW99740  14.769   0.424  11.806
65989SOL    HW199741  14.831   0.492  11.833
65989SOL    HW299742  14.808   0.386  11.727
65990SOL     OW99743   7.768   2.011  14.666
65990SOL    HW199744   7.844   1.991  14.720
65990SOL    HW299745   7.719   2.076  14.717
65991SOL     OW99746   1.949   9.797   8.651
65991SOL    HW199747   1.918   9.801   8.741
65991SOL    HW299748   2.036   9.837   8.654
65992SOL     OW99749   0.817   5.252  10.844
65992SOL    HW199750   0.881   5.323  10.848
65992SOL    HW299751   0.855   5.182  10.896
65993SOL     OW99752  11.218   5.844   2.320
65993SOL    HW199753  11.178   5.918   2.367
65993SOL    HW299754  11.310   5.845   2.347
65994SOL     OW99755   5.439   7.213   2.874
65994SOL    HW199756   5.480   7.194   2.790
65994SOL    HW299757   5.380   7.139   2.889
65995SOL     OW99758  10.947  14.599   0.457
65995SOL    HW199759  10.938  14.504   0.454
65995SOL    HW299760  10.858  14.632   0.452
65996SOL     OW99761   4.176   9.813   0.699
65996SOL    HW199762   4.202   9.722   0.688
65996SOL    HW299763   4.087   9.809   0.733
65997SOL     OW99764  13.542   5.638  12.361
65997SOL    HW199765  13.467   5.679  12.318
65997SOL    HW299766  13.529   5.544  12.348
65998SOL     OW99767  13.226   4.996  12.109
65998SOL    HW199768  13.222   5.000  12.013
65998SOL    HW299769  13.313   5.031  12.130
65999SOL     OW99770  12.232   3.680   4.951
65999SOL    HW199771  12.188   3.641   4.875
65999SOL    HW299772  12.163   3.691   5.016
66000SOL     OW99773   9.804  10.680   2.281
66000SOL    HW199774   9.888  10.656   2.320
66000SOL    HW299775   9.758  10.726   2.351
66001SOL     OW99776   9.125   8.589   9.129
66001SOL    HW199777   9.056   8.622   9.072
66001SOL    HW299778   9.205   8.629   9.094
66002SOL     OW99779  12.128   1.116   8.876
66002SOL    HW199780  12.168   1.119   8.788
66002SOL    HW299781  12.190   1.065   8.928
66003SOL     OW99782   7.386   3.087  10.171
66003SOL    HW199783   7.316   3.136  10.215
66003SOL    HW299784   7.446   3.154  10.138
66004SOL     OW99785   2.599   7.527  13.652
66004SOL    HW199786   2.516   7.569  13.672
66004SOL    HW299787   2.607   7.532  13.557
66005SOL     OW99788  12.965   1.664  12.231
66005SOL    HW199789  13.052   1.630  12.252
66005SOL    HW299790  12.979   1.724  12.158
66006SOL     OW99791   5.047  11.034  14.710
66006SOL    HW199792   4.985  11.077  14.651
66006SOL    HW299793   5.026  10.941  14.701
66007SOL     OW99794   7.032   4.921   4.971
66007SOL    HW199795   7.087   4.896   5.045
66007SOL    HW299796   6.954   4.866   4.980
66008SOL     OW99797   5.274  12.032   8.555
66008SOL    HW199798   5.289  12.096   8.624
66008SOL    HW299799   5.316  12.069   8.478
66009SOL     OW99800  12.236  12.258  12.149
66009SOL    HW199801  12.265  12.182  12.099
66009SOL    HW299802  12.301  12.326  12.129
66010SOL     OW99803   7.977   2.022   8.153
66010SOL    HW199804   8.024   2.102   8.127
66010SOL    HW299805   7.900   2.020   8.096
66011SOL     OW99806   3.383  14.349   5.573
66011SOL    HW199807   3.471  14.349   5.535
66011SOL    HW299808   3.337  14.279   5.526
66012SOL     OW99809   8.320   5.902  12.063
66012SOL    HW199810   8.293   5.822  12.017
66012SOL    HW299811   8.238   5.951  12.074
66013SOL     OW99812  11.028   2.218   0.652
66013SOL    HW199813  11.022   2.156   0.724
66013SOL    HW299814  11.099   2.185   0.598
66014SOL     OW99815  11.068   5.146   2.606
66014SOL    HW199816  11.014   5.191   2.540
66014SOL    HW299817  11.116   5.080   2.556
66015SOL     OW99818   3.444   1.751   2.985
66015SOL    HW199819   3.451   1.701   3.066
66015SOL    HW299820   3.531   1.789   2.972
66016SOL     OW99821   3.831   0.967  14.063
66016SOL    HW199822   3.807   1.005  14.148
66016SOL    HW299823   3.785   1.022  13.999
66017SOL     OW99824  12.995  11.048   8.652
66017SOL    HW199825  12.910  11.076   8.686
66017SOL    HW299826  13.004  11.095   8.569
66018SOL     OW99827   0.827   1.150   5.373
66018SOL    HW199828   0.912   1.169   5.411
66018SOL    HW299829   0.767   1.212   5.415
66019SOL     OW99830   9.874   7.069  13.469
66019SOL    HW199831   9.897   7.123  13.545
66019SOL    HW299832   9.814   7.124  13.418
66020SOL     OW99833  10.208  12.912  13.619
66020SOL    HW199834  10.120  12.926  13.586
66020SOL    HW299835  10.229  12.994  13.666
66021SOL     OW99836   5.766   6.382   1.498
66021SOL    HW199837   5.785   6.368   1.591
66021SOL    HW299838   5.817   6.459   1.474
66022SOL     OW99839   9.628   7.179   3.909
66022SOL    HW199840   9.633   7.108   3.973
66022SOL    HW299841   9.670   7.143   3.830
66023SOL     OW99842   4.790   8.278   0.548
66023SOL    HW199843   4.820   8.188   0.563
66023SOL    HW299844   4.809   8.295   0.456
66024SOL     OW99845   7.637   7.960  10.669
66024SOL    HW199846   7.618   8.043  10.713
66024SOL    HW299847   7.719   7.931  10.708
66025SOL     OW99848   2.228   6.648   7.547
66025SOL    HW199849   2.215   6.710   7.475
66025SOL    HW299850   2.284   6.580   7.510
66026SOL     OW99851  14.869   6.549   3.939
66026SOL    HW199852  14.802   6.487   3.909
66026SOL    HW299853   0.005   6.608   3.864
66027SOL     OW99854   4.617   9.741   5.332
66027SOL    HW199855   4.589   9.696   5.252
66027SOL    HW299856   4.592   9.681   5.403
66028SOL     OW99857  12.420   5.020   4.919
66028SOL    HW199858  12.398   5.112   4.903
66028SOL    HW299859  12.359   4.993   4.987
66029SOL     OW99860   2.872   3.128  11.790
66029SOL    HW199861   2.783   3.155  11.768
66029SOL    HW299862   2.890   3.055  11.732
66030SOL     OW99863   0.453  12.017   1.975
66030SOL    HW199864   0.423  12.073   2.046
66030SOL    HW299865   0.548  12.018   1.982
66031SOL     OW99866  13.939  10.121   8.856
66031SOL    HW199867  14.003  10.059   8.821
66031SOL    HW299868  13.877  10.067   8.904
66032SOL     OW99869   4.959   5.662   1.458
66032SOL    HW199870   4.866   5.683   1.467
66032SOL    HW299871   4.966   5.571   1.486
66033SOL     OW99872  11.936   5.827   3.599
66033SOL    HW199873  11.851   5.829   3.643
66033SOL    HW299874  11.970   5.739   3.616
66034SOL     OW99875   8.616   0.706   2.045
66034SOL    HW199876   8.564   0.651   1.986
66034SOL    HW299877   8.563   0.714   2.124
66035SOL     OW99878   3.735  11.074  11.065
66035SOL    HW199879   3.667  11.116  11.013
66035SOL    HW299880   3.814  11.082  11.011
66036SOL     OW99881   6.676  11.338   4.055
66036SOL    HW199882   6.580  11.330   4.047
66036SOL    HW299883   6.690  11.428   4.086
66037SOL     OW99884   3.266  11.490   6.177
66037SOL    HW199885   3.176  11.458   6.183
66037SOL    HW299886   3.320  11.411   6.184
66038SOL     OW99887   6.741  10.710   4.429
66038SOL    HW199888   6.800  10.718   4.353
66038SOL    HW299889   6.773  10.776   4.490
66039SOL     OW99890   7.991   3.561  10.925
66039SOL    HW199891   7.969   3.654  10.920
66039SOL    HW299892   7.909   3.516  10.905
66040SOL     OW99893   8.411   0.128  10.856
66040SOL    HW199894   8.376   0.078  10.782
66040SOL    HW299895   8.501   0.146  10.832
66041SOL     OW99896  10.133   0.184   1.824
66041SOL    HW199897  10.057   0.127   1.830
66041SOL    HW299898  10.097   0.273   1.832
66042SOL     OW99899   6.978   3.274   0.344
66042SOL    HW199900   7.034   3.206   0.306
66042SOL    HW299901   7.040   3.333   0.388
66043SOL     OW99902   9.001  12.857  10.716
66043SOL    HW199903   8.967  12.890  10.799
66043SOL    HW299904   9.071  12.919  10.693
66044SOL     OW99905   2.557   6.170   6.914
66044SOL    HW199906   2.623   6.110   6.879
66044SOL    HW299907   2.607   6.232   6.967
66045SOL     OW99908   9.500  12.622   6.471
66045SOL    HW199909   9.552  12.671   6.407
66045SOL    HW299910   9.559  12.611   6.545
66046SOL     OW99911   0.490   2.428  10.281
66046SOL    HW199912   0.413   2.433  10.225
66046SOL    HW299913   0.535   2.348  10.252
66047SOL     OW99914   4.795   3.000   2.351
66047SOL    HW199915   4.773   2.953   2.432
66047SOL    HW299916   4.891   3.005   2.352
66048SOL     OW99917   2.521   3.128   5.249
66048SOL    HW199918   2.495   3.049   5.202
66048SOL    HW299919   2.518   3.198   5.184
66049SOL     OW99920   1.679   8.869  14.523
66049SOL    HW199921   1.732   8.912  14.456
66049SOL    HW299922   1.720   8.783  14.533
66050SOL     OW99923   7.156   1.261   6.663
66050SOL    HW199924   7.174   1.190   6.602
66050SOL    HW299925   7.145   1.338   6.608
66051SOL     OW99926   8.225   6.562   2.332
66051SOL    HW199927   8.249   6.568   2.240
66051SOL    HW299928   8.178   6.479   2.339
66052SOL     OW99929   4.514   7.102  10.940
66052SOL    HW199930   4.587   7.108  11.002
66052SOL    HW299931   4.438   7.086  10.995
66053SOL     OW99932  13.801   6.943   9.609
66053SOL    HW199933  13.745   6.869   9.585
66053SOL    HW299934  13.748   7.020   9.588
66054SOL     OW99935   1.075  13.551   5.411
66054SOL    HW199936   1.093  13.549   5.317
66054SOL    HW299937   1.157  13.525   5.453
66055SOL     OW99938  14.205  14.722   1.143
66055SOL    HW199939  14.128  14.723   1.085
66055SOL    HW299940  14.266  14.663   1.100
66056SOL     OW99941   4.387  14.104   2.163
66056SOL    HW199942   4.345  14.113   2.249
66056SOL    HW299943   4.431  14.188   2.149
66057SOL     OW99944   5.080   6.553   2.966
66057SOL    HW199945   5.171   6.537   2.942
66057SOL    HW299946   5.031   6.482   2.925
66058SOL     OW99947   9.573   2.282  11.850
66058SOL    HW199948   9.526   2.361  11.826
66058SOL    HW299949   9.626   2.260  11.773
66059SOL     OW99950   4.377   5.519   0.134
66059SOL    HW199951   4.354   5.536   0.043
66059SOL    HW299952   4.302   5.472   0.169
66060SOL     OW99953   6.256   2.983   9.806
66060SOL    HW199954   6.278   3.029   9.887
66060SOL    HW299955   6.334   2.991   9.752
66061SOL     OW99956  10.023   9.297   7.571
66061SOL    HW199957   9.990   9.320   7.484
66061SOL    HW299958  10.080   9.370   7.595
66062SOL     OW99959   9.362   9.952  11.331
66062SOL    HW199960   9.315   9.974  11.411
66062SOL    HW299961   9.385   9.860  11.342
66063SOL     OW99962   1.000   5.856   9.662
66063SOL    HW199963   0.974   5.796   9.591
66063SOL    HW299964   1.095   5.845   9.667
66064SOL     OW99965   5.051   8.334  13.969
66064SOL    HW199966   4.992   8.268  13.933
66064SOL    HW299967   5.012   8.418  13.943
66065SOL     OW99968  14.554  14.286  11.480
66065SOL    HW199969  14.544  14.290  11.385
66065SOL    HW299970  14.465  14.296  11.514
66066SOL     OW99971   9.989  14.488  10.665
66066SOL    HW199972   9.972  14.394  10.677
66066SOL    HW299973  10.082  14.498  10.686
66067SOL     OW99974  12.991   3.570  12.781
66067SOL    HW199975  12.904   3.553  12.746
66067SOL    HW299976  13.050   3.522  12.722
66068SOL     OW99977   2.234   0.393   6.756
66068SOL    HW199978   2.327   0.373   6.748
66068SOL    HW299979   2.209   0.356   6.840
66069SOL     OW99980   2.128   0.581   8.370
66069SOL    HW199981   2.159   0.608   8.284
66069SOL    HW299982   2.209   0.564   8.419
66070SOL     OW99983   8.123   6.894   7.582
66070SOL    HW199984   8.136   6.861   7.671
66070SOL    HW299985   8.211   6.900   7.545
66071SOL     OW99986   1.858  13.749  10.825
66071SOL    HW199987   1.941  13.701  10.828
66071SOL    HW299988   1.820  13.737  10.912
66072SOL     OW99989  12.843  13.577  11.688
66072SOL    HW199990  12.857  13.669  11.711
66072SOL    HW299991  12.858  13.529  11.770
66073SOL     OW99992   7.680   4.167  12.315
66073SOL    HW199993   7.751   4.221  12.350
66073SOL    HW299994   7.648   4.118  12.391
66074SOL     OW99995   2.180   9.937  10.787
66074SOL    HW199996   2.271   9.908  10.789
66074SOL    HW299997   2.173   9.999  10.859
66075SOL     OW99998   5.569   5.221   9.538
66075SOL    HW199999   5.610   5.137   9.560
66075SOL    HW2    0   5.550   5.213   9.444
66076SOL     OW    1  14.298   9.632  12.245
66076SOL    HW1    2  14.318   9.697  12.177
66076SOL    HW2    3  14.279   9.685  12.323
66077SOL     OW    4  14.410  14.483  12.442
66077SOL    HW1    5  14.394  14.576  12.426
66077SOL    HW2    6  14.416  14.444  12.354
66078SOL     OW    7   6.224  14.504   0.173
66078SOL    HW1    8   6.239  14.495   0.079
66078SOL    HW2    9   6.131  14.487   0.184
66079SOL     OW   10   6.206   3.404  10.258
66079SOL    HW1   11   6.176   3.318  10.228
66079SOL    HW2   12   6.292   3.415  10.216
66080SOL     OW   13  11.735   4.393  11.918
66080SOL    HW1   14  11.686   4.418  11.840
66080SOL    HW2   15  11.724   4.468  11.978
66081SOL     OW   16   5.532   1.934  12.914
66081SOL    HW1   17   5.528   1.875  12.839
66081SOL    HW2   18   5.448   1.981  12.913
66082SOL     OW   19  12.147   8.751   2.401
66082SOL    HW1   20  12.106   8.745   2.487
66082SOL    HW2   21  12.152   8.845   2.383
66083SOL     OW   22   8.862   8.109   8.762
66083SOL    HW1   23   8.894   8.162   8.688
66083SOL    HW2   24   8.902   8.150   8.839
66084SOL     OW   25   5.332  12.808   4.118
66084SOL    HW1   26   5.352  12.857   4.039
66084SOL    HW2   27   5.258  12.752   4.094
66085SOL     OW   28   3.771   2.965  11.010
66085SOL    HW1   29   3.842   2.947  10.948
66085SOL    HW2   30   3.795   2.915  11.088
66086SOL     OW   31   6.938   6.885  11.464
66086SOL    HW1   32   7.007   6.857  11.524
66086SOL    HW2   33   6.981   6.885  11.378
66087SOL     OW   34   6.697   3.621   2.911
66087SOL    HW1   35   6.734   3.642   2.825
66087SOL    HW2   36   6.698   3.525   2.915
66088SOL     OW   37   0.439   3.765  14.289
66088SOL    HW1   38   0.475   3.821  14.220
66088SOL    HW2   39   0.346   3.786  14.291
66089SOL     OW   40  13.351  14.249  12.014
66089SOL    HW1   41  13.331  14.281  12.101
66089SOL    HW2   42  13.344  14.154  12.021
66090SOL     OW   43  14.053   3.647  14.574
66090SOL    HW1   44  14.091   3.614  14.656
66090SOL    HW2   45  14.082   3.738  14.570
66091SOL     OW   46  13.575   5.825   4.102
66091SOL    HW1   47  13.604   5.737   4.077
66091SOL    HW2   48  13.480   5.818   4.109
66092SOL     OW   49   4.663   5.888  13.767
66092SOL    HW1   50   4.718   5.827  13.817
66092SOL    HW2   51   4.721   5.923  13.700
66093SOL     OW   52   4.702   4.567  11.377
66093SOL    HW1   53   4.735   4.528  11.296
66093SOL    HW2   54   4.752   4.648  11.387
66094SOL     OW   55   1.020   0.243   6.287
66094SOL    HW1   56   0.934   0.238   6.329
66094SOL    HW2   57   1.027   0.162   6.237
66095SOL     OW   58   9.253   2.787   7.240
66095SOL    HW1   59   9.200   2.867   7.237
66095SOL    HW2   60   9.332   2.812   7.288
66096SOL     OW   61  11.092   5.565  14.534
66096SOL    HW1   62  11.147   5.585  14.610
66096SOL    HW2   63  11.052   5.649  14.510
66097SOL     OW   64   7.115   2.481   8.437
66097SOL    HW1   65   7.202   2.509   8.462
66097SOL    HW2   66   7.074   2.454   8.519
66098SOL     OW   67  11.488  11.017  13.463
66098SOL    HW1   68  11.475  11.111  13.466
66098SOL    HW2   69  11.459  10.986  13.549
66099SOL     OW   70   8.281  12.863  14.142
66099SOL    HW1   71   8.284  12.793  14.207
66099SOL    HW2   72   8.297  12.819  14.059
66100SOL     OW   73   9.356  13.618   7.038
66100SOL    HW1   74   9.316  13.592   6.955
66100SOL    HW2   75   9.450  13.613   7.022
66101SOL     OW   76   1.068  11.753   9.390
66101SOL    HW1   77   0.999  11.810   9.423
66101SOL    HW2   78   1.146  11.778   9.441
66102SOL     OW   79   7.774  12.025   3.438
66102SOL    HW1   80   7.722  11.980   3.370
66102SOL    HW2   81   7.779  12.115   3.408
66103SOL     OW   82   1.205   0.653   0.733
66103SOL    HW1   83   1.145   0.727   0.731
66103SOL    HW2   84   1.288   0.690   0.764
66104SOL     OW   85  13.418   3.882   4.324
66104SOL    HW1   86  13.355   3.951   4.344
66104SOL    HW2   87  13.419   3.827   4.402
66105SOL     OW   88  13.356  12.049  11.363
66105SOL    HW1   89  13.443  12.082  11.341
66105SOL    HW2   90  13.317  12.118  11.418
66106SOL     OW   91   2.012  11.482  11.587
66106SOL    HW1   92   2.074  11.507  11.519
66106SOL    HW2   93   1.967  11.406  11.551
66107SOL     OW   94   1.335   6.183   4.697
66107SOL    HW1   95   1.415   6.231   4.719
66107SOL    HW2   96   1.345   6.161   4.604
66108SOL     OW   97   4.251   0.044   2.116
66108SOL    HW1   98   4.258   0.125   2.065
66108SOL    HW2   99   4.288  14.854   2.058
66109SOL     OW  100  10.354   7.597   3.660
66109SOL    HW1  101  10.270   7.600   3.615
66109SOL    HW2  102  10.355   7.674   3.716
66110SOL     OW  103   0.400  10.692   8.378
66110SOL    HW1  104   0.430  10.672   8.466
66110SOL    HW2  105   0.478  10.726   8.334
66111SOL     OW  106   1.481   6.169   8.868
66111SOL    HW1  107   1.446   6.106   8.931
66111SOL    HW2  108   1.440   6.252   8.891
66112SOL     OW  109  13.308   8.509  10.359
66112SOL    HW1  110  13.264   8.495  10.442
66112SOL    HW2  111  13.374   8.440  10.355
66113SOL     OW  112  14.287   3.482   6.507
66113SOL    HW1  113  14.298   3.532   6.426
66113SOL    HW2  114  14.374   3.480   6.546
66114SOL     OW  115   0.124   3.685   7.532
66114SOL    HW1  116   0.142   3.766   7.486
66114SOL    HW2  117   0.116   3.619   7.463
66115SOL     OW  118   3.705   1.737   9.937
66115SOL    HW1  119   3.642   1.789   9.887
66115SOL    HW2  120   3.658   1.656   9.958
66116SOL     OW  121  12.572  14.461   3.238
66116SOL    HW1  122  12.652  14.424   3.201
66116SOL    HW2  123  12.571  14.428   3.328
66117SOL     OW  124   8.849  11.319   3.278
66117SOL    HW1  125   8.777  11.259   3.298
66117SOL    HW2  126   8.928  11.268   3.294
66118SOL     OW  127   5.369   3.927   9.398
66118SOL    HW1  128   5.428   3.988   9.354
66118SOL    HW2  129   5.344   3.971   9.479
66119SOL     OW  130   5.158   0.058   5.413
66119SOL    HW1  131   5.119   0.055   5.326
66119SOL    HW2  132   5.095   0.013   5.469
66120SOL     OW  133  11.762  12.988   5.256
66120SOL    HW1  134  11.766  13.034   5.340
66120SOL    HW2  135  11.784  12.897   5.277
66121SOL     OW  136   2.930   4.206  12.613
66121SOL    HW1  137   2.914   4.240  12.525
66121SOL    HW2  138   2.987   4.271  12.654
66122SOL     OW  139   6.839   8.223  13.740
66122SOL    HW1  140   6.807   8.156  13.800
66122SOL    HW2  141   6.767   8.237  13.678
66123SOL     OW  142   1.554  11.924  13.460
66123SOL    HW1  143   1.642  11.960  13.472
66123SOL    HW2  144   1.563  11.865  13.385
66124SOL     OW  145  10.788   7.467  11.287
66124SOL    HW1  146  10.843   7.443  11.361
66124SOL    HW2  147  10.841   7.528  11.236
66125SOL     OW  148   4.904   8.687  12.182
66125SOL    HW1  149   4.986   8.673  12.135
66125SOL    HW2  150   4.876   8.775  12.156
66126SOL     OW  151   6.095   0.342   8.088
66126SOL    HW1  152   6.189   0.324   8.084
66126SOL    HW2  153   6.058   0.268   8.135
66127SOL     OW  154   1.608  14.437  13.815
66127SOL    HW1  155   1.641  14.517  13.855
66127SOL    HW2  156   1.537  14.466  13.757
66128SOL     OW  157  13.815   8.172   5.194
66128SOL    HW1  158  13.869   8.110   5.242
66128SOL    HW2  159  13.817   8.141   5.104
66129SOL     OW  160   6.154   2.298   8.012
66129SOL    HW1  161   6.078   2.286   8.069
66129SOL    HW2  162   6.151   2.390   7.987
66130SOL     OW  163  13.692  10.273   4.708
66130SOL    HW1  164  13.765  10.233   4.662
66130SOL    HW2  165  13.620  10.210   4.699
66131SOL     OW  166   9.191  12.314   9.432
66131SOL    HW1  167   9.225  12.352   9.513
66131SOL    HW2  168   9.131  12.381   9.397
66132SOL     OW  169  10.657   5.883  12.884
66132SOL    HW1  170  10.600   5.811  12.855
66132SOL    HW2  171  10.645   5.951  12.817
66133SOL     OW  172   9.948   5.728  14.093
66133SOL    HW1  173   9.855   5.731  14.115
66133SOL    HW2  174   9.992   5.763  14.171
66134SOL     OW  175  13.127   6.357  12.471
66134SOL    HW1  176  13.122   6.262  12.462
66134SOL    HW2  177  13.220   6.376  12.469
66135SOL     OW  178   3.784   0.848   5.131
66135SOL    HW1  179   3.737   0.925   5.099
66135SOL    HW2  180   3.859   0.840   5.073
66136SOL     OW  181   5.021  11.442   3.322
66136SOL    HW1  182   5.090  11.496   3.283
66136SOL    HW2  183   5.026  11.359   3.275
66137SOL     OW  184  11.023   6.885   6.952
66137SOL    HW1  185  10.982   6.919   7.031
66137SOL    HW2  186  11.114   6.870   6.976
66138SOL     OW  187   9.928  11.608   8.220
66138SOL    HW1  188   9.876  11.586   8.143
66138SOL    HW2  189  10.019  11.601   8.190
66139SOL     OW  190   6.501   9.574   7.265
66139SOL    HW1  191   6.424   9.535   7.306
66139SOL    HW2  192   6.503   9.664   7.297
66140SOL     OW  193   5.586   6.436   0.309
66140SOL    HW1  194   5.567   6.514   0.362
66140SOL    HW2  195   5.628   6.375   0.369
66141SOL     OW  196   3.385  10.547   6.522
66141SOL    HW1  197   3.361  10.464   6.480
66141SOL    HW2  198   3.466  10.574   6.478
66142SOL     OW  199   3.984   6.244  11.092
66142SOL    HW1  200   4.054   6.304  11.117
66142SOL    HW2  201   3.937   6.228  11.174
66143SOL     OW  202   9.618   2.662   1.704
66143SOL    HW1  203   9.574   2.736   1.745
66143SOL    HW2  204   9.669   2.622   1.775
66144SOL     OW  205   4.277  12.635   1.460
66144SOL    HW1  206   4.355  12.589   1.428
66144SOL    HW2  207   4.311  12.713   1.504
66145SOL     OW  208  14.564   3.637   4.984
66145SOL    HW1  209  14.502   3.690   4.934
66145SOL    HW2  210  14.509   3.581   5.038
66146SOL     OW  211   4.207  12.403  13.045
66146SOL    HW1  212   4.193  12.335  12.979
66146SOL    HW2  213   4.126  12.403  13.097
66147SOL     OW  214   2.876   8.513  11.742
66147SOL    HW1  215   2.966   8.537  11.763
66147SOL    HW2  216   2.834   8.595  11.716
66148SOL     OW  217   4.919   9.920   1.450
66148SOL    HW1  218   4.879   9.944   1.534
66148SOL    HW2  219   4.995   9.866   1.475
66149SOL     OW  220   0.027   9.228   7.508
66149SOL    HW1  221   0.024   9.191   7.597
66149SOL    HW2  222   0.080   9.165   7.459
66150SOL     OW  223   9.670   8.434   3.611
66150SOL    HW1  224   9.701   8.343   3.611
66150SOL    HW2  225   9.577   8.428   3.593
66151SOL     OW  226  10.421  13.893   1.548
66151SOL    HW1  227  10.497  13.888   1.606
66151SOL    HW2  228  10.400  13.986   1.544
66152SOL     OW  229   2.840   6.361  11.903
66152SOL    HW1  230   2.768   6.325  11.852
66152SOL    HW2  231   2.806   6.444  11.938
66153SOL     OW  232   7.546   9.202  10.954
66153SOL    HW1  233   7.606   9.146  11.003
66153SOL    HW2  234   7.587   9.289  10.956
66154SOL     OW  235   2.306   1.090  10.155
66154SOL    HW1  236   2.248   1.128  10.088
66154SOL    HW2  237   2.381   1.057  10.105
66155SOL     OW  238   0.489   4.343   9.786
66155SOL    HW1  239   0.584   4.349   9.776
66155SOL    HW2  240   0.468   4.252   9.764
66156SOL     OW  241   1.792   4.489   0.543
66156SOL    HW1  242   1.714   4.494   0.489
66156SOL    HW2  243   1.759   4.470   0.631
66157SOL     OW  244   2.589  11.765   8.741
66157SOL    HW1  245   2.564  11.672   8.745
66157SOL    HW2  246   2.662  11.773   8.802
66158SOL     OW  247  12.153  11.844  13.937
66158SOL    HW1  248  12.244  11.830  13.965
66158SOL    HW2  249  12.104  11.776  13.984
66159SOL     OW  250  11.082   4.462   8.874
66159SOL    HW1  251  11.101   4.372   8.901
66159SOL    HW2  252  11.080   4.511   8.955
66160SOL     OW  253   2.199   8.000  14.730
66160SOL    HW1  254   2.182   7.961  14.815
66160SOL    HW2  255   2.135   7.959  14.671
66161SOL     OW  256   2.269   5.895   8.809
66161SOL    HW1  257   2.299   5.872   8.722
66161SOL    HW2  258   2.304   5.825   8.866
66162SOL     OW  259  10.163   7.586  10.916
66162SOL    HW1  260  10.137   7.640  10.840
66162SOL    HW2  261  10.227   7.640  10.962
66163SOL     OW  262   3.948  11.009   7.648
66163SOL    HW1  263   4.024  10.970   7.690
66163SOL    HW2  264   3.949  10.976   7.559
66164SOL     OW  265   9.146  10.973   7.743
66164SOL    HW1  266   9.153  10.956   7.649
66164SOL    HW2  267   9.064  10.931   7.769
66165SOL     OW  268   5.534   3.863   4.168
66165SOL    HW1  269   5.445   3.866   4.202
66165SOL    HW2  270   5.523   3.837   4.076
66166SOL     OW  271  14.214  10.813  13.778
66166SOL    HW1  272  14.135  10.866  13.771
66166SOL    HW2  273  14.286  10.876  13.786
66167SOL     OW  274   5.153   5.696   2.638
66167SOL    HW1  275   5.199   5.706   2.721
66167SOL    HW2  276   5.142   5.601   2.628
66168SOL     OW  277   0.878   8.855  10.443
66168SOL    HW1  278   0.853   8.936  10.398
66168SOL    HW2  279   0.806   8.795  10.425
66169SOL     OW  280   3.018   5.401   0.161
66169SOL    HW1  281   2.926   5.387   0.186
66169SOL    HW2  282   3.015   5.416   0.067
66170SOL     OW  283   1.344   2.595   9.163
66170SOL    HW1  284   1.333   2.502   9.183
66170SOL    HW2  285   1.378   2.597   9.073
66171SOL     OW  286  14.604   5.442   9.546
66171SOL    HW1  287  14.682   5.473   9.499
66171SOL    HW2  288  14.553   5.396   9.479
66172SOL     OW  289   6.731  14.165   4.061
66172SOL    HW1  290   6.787  14.200   4.130
66172SOL    HW2  291   6.646  14.153   4.103
66173SOL     OW  292  13.456  11.710  10.907
66173SOL    HW1  293  13.526  11.672  10.961
66173SOL    HW2  294  13.471  11.673  10.820
66174SOL     OW  295   3.423   8.079  10.197
66174SOL    HW1  296   3.455   8.159  10.240
66174SOL    HW2  297   3.500   8.022  10.194
66175SOL     OW  298  14.145   0.239  12.480
66175SOL    HW1  299  14.188   0.262  12.562
66175SOL    HW2  300  14.053   0.260  12.494
66176SOL     OW  301   8.647   1.049   6.491
66176SOL    HW1  302   8.732   1.006   6.477
66176SOL    HW2  303   8.668   1.130   6.537
66177SOL     OW  304   4.585  14.316   2.049
66177SOL    HW1  305   4.585  14.244   1.986
66177SOL    HW2  306   4.676  14.321   2.079
66178SOL     OW  307   8.907   3.660   0.323
66178SOL    HW1  308   8.827   3.641   0.274
66178SOL    HW2  309   8.923   3.753   0.307
66179SOL     OW  310   4.456  10.997   3.816
66179SOL    HW1  311   4.452  10.990   3.721
66179SOL    HW2  312   4.377  11.045   3.840
66180SOL     OW  313  13.868   8.269   5.654
66180SOL    HW1  314  13.787   8.261   5.605
66180SOL    HW2  315  13.924   8.324   5.600
66181SOL     OW  316  14.241  12.260  11.318
66181SOL    HW1  317  14.298  12.285  11.390
66181SOL    HW2  318  14.161  12.310  11.332
66182SOL     OW  319   8.109   4.359  14.786
66182SOL    HW1  320   8.190   4.352  14.734
66182SOL    HW2  321   8.078   4.448  14.770
66183SOL     OW  322  11.156  11.435   3.682
66183SOL    HW1  323  11.123  11.510   3.731
66183SOL    HW2  324  11.181  11.371   3.750
66184SOL     OW  325   1.942  14.104  11.271
66184SOL    HW1  326   1.993  14.044  11.217
66184SOL    HW2  327   1.963  14.191  11.238
66185SOL     OW  328  12.370   6.588  11.293
66185SOL    HW1  329  12.437   6.553  11.352
66185SOL    HW2  330  12.416   6.606  11.212
66186SOL     OW  331   3.448  10.691  10.361
66186SOL    HW1  332   3.520  10.658  10.307
66186SOL    HW2  333   3.459  10.786  10.361
66187SOL     OW  334   1.638  12.120   1.095
66187SOL    HW1  335   1.684  12.173   1.161
66187SOL    HW2  336   1.547  12.119   1.125
66188SOL     OW  337  13.144  12.450   7.809
66188SOL    HW1  338  13.233  12.417   7.804
66188SOL    HW2  339  13.097  12.405   7.738
66189SOL     OW  340   1.184  13.201  14.345
66189SOL    HW1  341   1.225  13.119  14.376
66189SOL    HW2  342   1.105  13.210  14.398
66190SOL     OW  343   4.777   7.841   3.794
66190SOL    HW1  344   4.735   7.755   3.790
66190SOL    HW2  345   4.708   7.899   3.827
66191SOL     OW  346   7.759  11.402   9.218
66191SOL    HW1  347   7.805  11.378   9.298
66191SOL    HW2  348   7.815  11.467   9.177
66192SOL     OW  349   4.089   2.072   7.197
66192SOL    HW1  350   4.070   2.079   7.103
66192SOL    HW2  351   4.036   2.141   7.237
66193SOL     OW  352   7.044   5.246   7.303
66193SOL    HW1  353   7.065   5.198   7.223
66193SOL    HW2  354   7.072   5.188   7.374
66194SOL     OW  355   2.434  13.728   6.497
66194SOL    HW1  356   2.354  13.766   6.532
66194SOL    HW2  357   2.405  13.669   6.427
66195SOL     OW  358   1.101   7.975   2.941
66195SOL    HW1  359   1.187   7.964   2.980
66195SOL    HW2  360   1.041   7.930   3.001
66196SOL     OW  361   1.256   3.212  10.493
66196SOL    HW1  362   1.323   3.149  10.520
66196SOL    HW2  363   1.244   3.196  10.399
66197SOL     OW  364   7.808   1.611   2.240
66197SOL    HW1  365   7.757   1.654   2.172
66197SOL    HW2  366   7.895   1.602   2.203
66198SOL     OW  367   5.157   1.942  11.370
66198SOL    HW1  368   5.080   1.892  11.395
66198SOL    HW2  369   5.231   1.884  11.391
66199SOL     OW  370  12.508  11.059   9.585
66199SOL    HW1  371  12.488  10.975   9.626
66199SOL    HW2  372  12.530  11.036   9.494
66200SOL     OW  373   1.878  12.319  12.641
66200SOL    HW1  374   1.971  12.338  12.642
66200SOL    HW2  375   1.841  12.382  12.579
66201SOL     OW  376   3.714   0.221   2.323
66201SOL    HW1  377   3.731   0.148   2.383
66201SOL    HW2  378   3.622   0.211   2.299
66202SOL     OW  379   0.328   2.685   8.745
66202SOL    HW1  380   0.249   2.736   8.730
66202SOL    HW2  381   0.372   2.682   8.660
66203SOL     OW  382  13.593   5.886   3.356
66203SOL    HW1  383  13.665   5.838   3.397
66203SOL    HW2  384  13.586   5.848   3.268
66204SOL     OW  385   5.689   6.632  13.074
66204SOL    HW1  386   5.603   6.644  13.114
66204SOL    HW2  387   5.715   6.543  13.097
66205SOL     OW  388  14.106   1.676   4.299
66205SOL    HW1  389  14.071   1.679   4.209
66205SOL    HW2  390  14.101   1.767   4.328
66206SOL     OW  391   7.604   6.861   2.177
66206SOL    HW1  392   7.510   6.853   2.167
66206SOL    HW2  393   7.638   6.855   2.087
66207SOL     OW  394   6.047  12.250   8.737
66207SOL    HW1  395   6.071  12.330   8.690
66207SOL    HW2  396   5.956  12.234   8.713
66208SOL     OW  397   0.664   1.541   4.590
66208SOL    HW1  398   0.720   1.466   4.572
66208SOL    HW2  399   0.582   1.522   4.544
66209SOL     OW  400  12.684   7.757   1.806
66209SOL    HW1  401  12.737   7.679   1.822
66209SOL    HW2  402  12.625   7.762   1.881
66210SOL     OW  403  14.552   9.531  10.934
66210SOL    HW1  404  14.592   9.618  10.927
66210SOL    HW2  405  14.485   9.541  11.002
66211SOL     OW  406   0.941  12.647  10.808
66211SOL    HW1  407   0.906  12.720  10.860
66211SOL    HW2  408   1.036  12.657  10.814
66212SOL     OW  409   6.686   0.538  11.838
66212SOL    HW1  410   6.602   0.558  11.796
66212SOL    HW2  411   6.751   0.582  11.784
66213SOL     OW  412   6.859   9.249   0.292
66213SOL    HW1  413   6.921   9.201   0.238
66213SOL    HW2  414   6.912   9.288   0.361
66214SOL     OW  415   8.234   4.810  13.760
66214SOL    HW1  416   8.166   4.859  13.713
66214SOL    HW2  417   8.187   4.740  13.805
66215SOL     OW  418  11.105   6.120  14.837
66215SOL    HW1  419  11.112   6.215  14.851
66215SOL    HW2  420  11.181   6.083   0.004
66216SOL     OW  421  14.867   4.999   9.150
66216SOL    HW1  422   0.047   4.984   9.075
66216SOL    HW2  423  14.797   4.933   9.140
66217SOL     OW  424  13.501  11.652  13.300
66217SOL    HW1  425  13.543  11.722  13.351
66217SOL    HW2  426  13.482  11.692  13.215
66218SOL     OW  427   3.007   0.336   6.319
66218SOL    HW1  428   3.046   0.257   6.282
66218SOL    HW2  429   2.930   0.304   6.367
66219SOL     OW  430   0.309   2.795   1.204
66219SOL    HW1  431   0.272   2.882   1.190
66219SOL    HW2  432   0.350   2.800   1.291
66220SOL     OW  433  12.916   9.671   0.051
66220SOL    HW1  434  12.975   9.618  14.875
66220SOL    HW2  435  12.828   9.639   0.027
66221SOL     OW  436  14.074  11.594   5.524
66221SOL    HW1  437  14.059  11.504   5.495
66221SOL    HW2  438  14.022  11.603   5.604
66222SOL     OW  439  11.018   2.740   0.637
66222SOL    HW1  440  11.003   2.646   0.648
66222SOL    HW2  441  10.999   2.756   0.545
66223SOL     OW  442   8.326   1.172   5.602
66223SOL    HW1  443   8.261   1.238   5.626
66223SOL    HW2  444   8.325   1.171   5.506
66224SOL     OW  445   4.796   8.803   2.878
66224SOL    HW1  446   4.861   8.771   2.816
66224SOL    HW2  447   4.720   8.825   2.825
66225SOL     OW  448   7.038   0.823  12.285
66225SOL    HW1  449   7.075   0.834  12.373
66225SOL    HW2  450   6.944   0.837  12.297
66226SOL     OW  451   1.204  14.781  11.999
66226SOL    HW1  452   1.149  14.767  11.921
66226SOL    HW2  453   1.155  14.845  12.051
66227SOL     OW  454  12.891   7.239   1.047
66227SOL    HW1  455  12.975   7.238   1.001
66227SOL    HW2  456  12.847   7.160   1.016
66228SOL     OW  457   9.253  12.193   3.664
66228SOL    HW1  458   9.235  12.133   3.736
66228SOL    HW2  459   9.215  12.152   3.587
66229SOL     OW  460   3.011   2.349  10.078
66229SOL    HW1  461   3.060   2.400  10.142
66229SOL    HW2  462   2.982   2.272  10.127
66230SOL     OW  463   7.936   7.537   4.810
66230SOL    HW1  464   7.965   7.527   4.720
66230SOL    HW2  465   7.972   7.460   4.856
66231SOL     OW  466   5.286   4.138  11.695
66231SOL    HW1  467   5.332   4.214  11.659
66231SOL    HW2  468   5.257   4.166  11.782
66232SOL     OW  469   3.637   9.417   4.351
66232SOL    HW1  470   3.591   9.335   4.333
66232SOL    HW2  471   3.640   9.422   4.447
66233SOL     OW  472   1.668   9.899  12.646
66233SOL    HW1  473   1.676   9.822  12.702
66233SOL    HW2  474   1.699   9.869  12.560
66234SOL     OW  475  11.402   9.014   3.825
66234SOL    HW1  476  11.395   9.052   3.738
66234SOL    HW2  477  11.465   9.069   3.871
66235SOL     OW  478  13.016   7.597   4.960
66235SOL    HW1  479  13.056   7.672   5.004
66235SOL    HW2  480  12.983   7.542   5.030
66236SOL     OW  481   0.010  11.851   3.459
66236SOL    HW1  482   0.044  11.783   3.517
66236SOL    HW2  483   0.030  11.820   3.371
66237SOL     OW  484   0.514   0.722   6.443
66237SOL    HW1  485   0.457   0.754   6.513
66237SOL    HW2  486   0.477   0.636   6.421
66238SOL     OW  487   0.877   5.199   9.629
66238SOL    HW1  488   0.870   5.221   9.536
66238SOL    HW2  489   0.927   5.271   9.667
66239SOL     OW  490   6.779   4.702  12.829
66239SOL    HW1  491   6.769   4.696  12.924
66239SOL    HW2  492   6.872   4.716  12.815
66240SOL     OW  493  11.313   6.992   2.711
66240SOL    HW1  494  11.320   7.006   2.806
66240SOL    HW2  495  11.319   7.080   2.674
66241SOL     OW  496   7.129   8.633   1.662
66241SOL    HW1  497   7.183   8.665   1.735
66241SOL    HW2  498   7.042   8.669   1.678
66242SOL     OW  499  13.936   1.832   7.472
66242SOL    HW1  500  13.989   1.771   7.421
66242SOL    HW2  501  13.846   1.819   7.440
66243SOL     OW  502  14.472   0.943   5.264
66243SOL    HW1  503  14.398   1.002   5.248
66243SOL    HW2  504  14.505   0.969   5.350
66244SOL     OW  505   3.426  12.884   9.540
66244SOL    HW1  506   3.479  12.936   9.602
66244SOL    HW2  507   3.411  12.944   9.466
66245SOL     OW  508   1.658   5.843   7.934
66245SOL    HW1  509   1.583   5.785   7.947
66245SOL    HW2  510   1.668   5.887   8.018
66246SOL     OW  511   5.893   1.141   6.448
66246SOL    HW1  512   5.821   1.083   6.471
66246SOL    HW2  513   5.868   1.179   6.364
66247SOL     OW  514   0.075  10.841  13.573
66247SOL    HW1  515   0.168  10.860  13.584
66247SOL    HW2  516   0.071  10.746  13.559
66248SOL     OW  517  10.619   8.254  12.902
66248SOL    HW1  518  10.672   8.260  12.982
66248SOL    HW2  519  10.613   8.344  12.871
66249SOL     OW  520  10.056   0.570   7.083
66249SOL    HW1  521  10.113   0.610   7.017
66249SOL    HW2  522   9.968   0.599   7.059
66250SOL     OW  523  11.482   7.804  13.632
66250SOL    HW1  524  11.520   7.779  13.716
66250SOL    HW2  525  11.554   7.795  13.570
66251SOL     OW  526   0.757   6.272   0.906
66251SOL    HW1  527   0.665   6.278   0.931
66251SOL    HW2  528   0.785   6.363   0.895
66252SOL     OW  529   6.820   6.107  12.697
66252SOL    HW1  530   6.831   6.190  12.743
66252SOL    HW2  531   6.834   6.040  12.764
66253SOL     OW  532   1.564  14.447   8.311
66253SOL    HW1  533   1.643  14.394   8.318
66253SOL    HW2  534   1.509  14.418   8.384
66254SOL     OW  535   5.042   6.926  12.018
66254SOL    HW1  536   5.055   6.857  12.083
66254SOL    HW2  537   5.125   6.929  11.969
66255SOL     OW  538   5.989   4.935   2.133
66255SOL    HW1  539   5.925   4.976   2.074
66255SOL    HW2  540   5.968   4.841   2.130
66256SOL     OW  541  13.600   9.639   0.755
66256SOL    HW1  542  13.552   9.559   0.775
66256SOL    HW2  543  13.545   9.709   0.790
66257SOL     OW  544   0.253  11.755   8.034
66257SOL    HW1  545   0.316  11.781   7.967
66257SOL    HW2  546   0.261  11.822   8.102
66258SOL     OW  547  12.371  14.245  12.762
66258SOL    HW1  548  12.455  14.228  12.804
66258SOL    HW2  549  12.352  14.337  12.781
66259SOL     OW  550   8.369   6.940   1.523
66259SOL    HW1  551   8.451   6.990   1.519
66259SOL    HW2  552   8.397   6.852   1.549
66260SOL     OW  553  11.120   4.027   9.655
66260SOL    HW1  554  11.125   3.995   9.565
66260SOL    HW2  555  11.156   3.956   9.708
66261SOL     OW  556  14.497   0.267   6.621
66261SOL    HW1  557  14.473   0.181   6.586
66261SOL    HW2  558  14.564   0.247   6.687
66262SOL     OW  559   9.371   2.985   1.609
66262SOL    HW1  560   9.319   2.908   1.627
66262SOL    HW2  561   9.336   3.053   1.667
66263SOL     OW  562  14.851   0.319   6.323
66263SOL    HW1  563  14.819   0.278   6.242
66263SOL    HW2  564   0.052   0.367   6.295
66264SOL     OW  565   5.690  10.174   1.517
66264SOL    HW1  566   5.713  10.267   1.526
66264SOL    HW2  567   5.771  10.133   1.485
66265SOL     OW  568   2.373   1.411  14.442
66265SOL    HW1  569   2.451   1.382  14.395
66265SOL    HW2  570   2.370   1.506  14.428
66266SOL     OW  571   3.893   0.246  12.435
66266SOL    HW1  572   3.880   0.266  12.527
66266SOL    HW2  573   3.843   0.166  12.419
66267SOL     OW  574   4.764  12.862   6.254
66267SOL    HW1  575   4.749  12.953   6.279
66267SOL    HW2  576   4.859  12.850   6.264
66268SOL     OW  577  14.701   4.565  14.467
66268SOL    HW1  578  14.669   4.574  14.557
66268SOL    HW2  579  14.755   4.486  14.469
66269SOL     OW  580   0.926   5.504   5.933
66269SOL    HW1  581   0.954   5.593   5.909
66269SOL    HW2  582   0.980   5.481   6.009
66270SOL     OW  583   8.077   1.854   2.946
66270SOL    HW1  584   8.099   1.945   2.969
66270SOL    HW2  585   8.136   1.832   2.874
66271SOL     OW  586  12.624   0.116   1.055
66271SOL    HW1  587  12.555   0.056   1.083
66271SOL    HW2  588  12.670   0.069   0.985
66272SOL     OW  589  10.607   7.278   4.490
66272SOL    HW1  590  10.528   7.322   4.461
66272SOL    HW2  591  10.617   7.304   4.582
66273SOL     OW  592  10.027  12.111   0.386
66273SOL    HW1  593  10.107  12.144   0.426
66273SOL    HW2  594  10.014  12.024   0.425
66274SOL     OW  595  12.312  10.643  13.033
66274SOL    HW1  596  12.342  10.664  12.945
66274SOL    HW2  597  12.218  10.663  13.031
66275SOL     OW  598  14.170  10.477  11.969
66275SOL    HW1  599  14.239  10.531  12.008
66275SOL    HW2  600  14.114  10.453  12.043
66276SOL     OW  601  10.652   1.916   6.947
66276SOL    HW1  602  10.576   1.899   6.891
66276SOL    HW2  603  10.728   1.894   6.892
66277SOL     OW  604   8.145   3.291   7.854
66277SOL    HW1  605   8.196   3.367   7.881
66277SOL    HW2  606   8.198   3.216   7.879
66278SOL     OW  607  10.379   4.955  11.788
66278SOL    HW1  608  10.310   4.994  11.842
66278SOL    HW2  609  10.416   5.030  11.740
66279SOL     OW  610  10.595  12.952   6.605
66279SOL    HW1  611  10.561  12.926   6.691
66279SOL    HW2  612  10.557  13.039   6.590
66280SOL     OW  613   8.170   8.824  14.063
66280SOL    HW1  614   8.259   8.836  14.030
66280SOL    HW2  615   8.127   8.908  14.047
66281SOL     OW  616  11.917   0.746  14.707
66281SOL    HW1  617  11.832   0.787  14.692
66281SOL    HW2  618  11.927   0.744  14.802
66282SOL     OW  619   7.284   8.292  13.491
66282SOL    HW1  620   7.335   8.212  13.481
66282SOL    HW2  621   7.193   8.263  13.499
66283SOL     OW  622   7.526  13.752  14.631
66283SOL    HW1  623   7.470  13.754  14.554
66283SOL    HW2  624   7.613  13.774  14.598
66284SOL     OW  625  11.243  11.622   7.784
66284SOL    HW1  626  11.322  11.619   7.730
66284SOL    HW2  627  11.171  11.620   7.721
66285SOL     OW  628  14.340  14.005  14.542
66285SOL    HW1  629  14.329  13.952  14.622
66285SOL    HW2  630  14.435  14.012  14.532
66286SOL     OW  631   8.860   9.774   4.684
66286SOL    HW1  632   8.891   9.848   4.633
66286SOL    HW2  633   8.855   9.701   4.622
66287SOL     OW  634   8.701   3.723  12.708
66287SOL    HW1  635   8.711   3.818  12.698
66287SOL    HW2  636   8.609   3.706  12.690
66288SOL     OW  637   5.305   5.683  14.314
66288SOL    HW1  638   5.281   5.753  14.253
66288SOL    HW2  639   5.290   5.720  14.400
66289SOL     OW  640   1.846  10.793  11.244
66289SOL    HW1  641   1.926  10.745  11.222
66289SOL    HW2  642   1.860  10.880  11.208
66290SOL     OW  643  13.917  12.297   0.217
66290SOL    HW1  644  13.829  12.295   0.254
66290SOL    HW2  645  13.926  12.386   0.181
66291SOL     OW  646   8.402  11.527   5.146
66291SOL    HW1  647   8.424  11.613   5.182
66291SOL    HW2  648   8.468  11.468   5.180
66292SOL     OW  649   0.708  13.036  14.630
66292SOL    HW1  650   0.708  12.976  14.555
66292SOL    HW2  651   0.738  12.982  14.703
66293SOL     OW  652   9.572   2.939   2.706
66293SOL    HW1  653   9.590   2.878   2.778
66293SOL    HW2  654   9.638   2.918   2.640
66294SOL     OW  655   1.098  10.025  13.900
66294SOL    HW1  656   1.035   9.981  13.842
66294SOL    HW2  657   1.053  10.104  13.929
66295SOL     OW  658   3.842   2.466   5.545
66295SOL    HW1  659   3.834   2.475   5.450
66295SOL    HW2  660   3.796   2.384   5.566
66296SOL     OW  661  14.538   3.613   5.384
66296SOL    HW1  662  14.574   3.543   5.439
66296SOL    HW2  663  14.611   3.639   5.328
66297SOL     OW  664   4.856  12.557   3.635
66297SOL    HW1  665   4.862  12.468   3.600
66297SOL    HW2  666   4.833  12.545   3.727
66298SOL     OW  667  10.008  14.715   9.944
66298SOL    HW1  668   9.954  14.761  10.009
66298SOL    HW2  669  10.011  14.774   9.869
66299SOL     OW  670   4.807  13.313  13.650
66299SOL    HW1  671   4.830  13.313  13.558
66299SOL    HW2  672   4.761  13.229  13.663
66300SOL     OW  673  12.000   4.273   8.363
66300SOL    HW1  674  11.906   4.259   8.352
66300SOL    HW2  675  12.027   4.210   8.430
66301SOL     OW  676   5.762   3.388  11.349
66301SOL    HW1  677   5.830   3.453  11.333
66301SOL    HW2  678   5.808   3.315  11.392
66302SOL     OW  679   2.575  12.359   2.840
66302SOL    HW1  680   2.533  12.445   2.840
66302SOL    HW2  681   2.583  12.336   2.748
66303SOL     OW  682   5.924  13.094   7.585
66303SOL    HW1  683   5.922  13.186   7.610
66303SOL    HW2  684   5.905  13.094   7.491
66304SOL     OW  685   6.399  14.041   1.842
66304SOL    HW1  686   6.423  14.025   1.933
66304SOL    HW2  687   6.476  14.015   1.792
66305SOL     OW  688   7.661   8.079  11.537
66305SOL    HW1  689   7.569   8.057  11.520
66305SOL    HW2  690   7.671   8.069  11.632
66306SOL     OW  691   2.077   4.112  10.442
66306SOL    HW1  692   2.048   4.198  10.472
66306SOL    HW2  693   2.089   4.061  10.523
66307SOL     OW  694  13.163   6.413   0.924
66307SOL    HW1  695  13.095   6.389   0.986
66307SOL    HW2  696  13.138   6.500   0.893
66308SOL     OW  697   3.810   9.011   7.793
66308SOL    HW1  698   3.818   9.099   7.757
66308SOL    HW2  699   3.836   8.952   7.722
66309SOL     OW  700   3.668   4.711  11.040
66309SOL    HW1  701   3.690   4.804  11.044
66309SOL    HW2  702   3.647   4.695  10.948
66310SOL     OW  703   4.492   9.888   3.128
66310SOL    HW1  704   4.549   9.959   3.158
66310SOL    HW2  705   4.543   9.843   3.061
66311SOL     OW  706  10.197   9.626   6.670
66311SOL    HW1  707  10.281   9.625   6.624
66311SOL    HW2  708  10.139   9.573   6.615
66312SOL     OW  709  11.881   7.118   8.599
66312SOL    HW1  710  11.973   7.096   8.612
66312SOL    HW2  711  11.845   7.123   8.687
66313SOL     OW  712   5.823  10.983  11.055
66313SOL    HW1  713   5.880  11.060  11.051
66313SOL    HW2  714   5.750  11.010  11.110
66314SOL     OW  715  10.909   6.466   5.857
66314SOL    HW1  716  10.902   6.423   5.772
66314SOL    HW2  717  10.927   6.396   5.919
66315SOL     OW  718   0.803   1.160   3.253
66315SOL    HW1  719   0.789   1.255   3.255
66315SOL    HW2  720   0.875   1.146   3.313
66316SOL     OW  721   6.156  10.171   4.572
66316SOL    HW1  722   6.210  10.106   4.526
66316SOL    HW2  723   6.096  10.204   4.505
66317SOL     OW  724   0.041   5.984   7.735
66317SOL    HW1  725   0.086   5.910   7.693
66317SOL    HW2  726   0.041   6.053   7.668
66318SOL     OW  727   8.488  10.187   1.413
66318SOL    HW1  728   8.532  10.177   1.498
66318SOL    HW2  729   8.446  10.102   1.398
66319SOL     OW  730  14.572   7.035  14.759
66319SOL    HW1  731  14.599   7.081  14.838
66319SOL    HW2  732  14.652   7.024  14.709
66320SOL     OW  733   7.496   2.504   5.469
66320SOL    HW1  734   7.519   2.588   5.510
66320SOL    HW2  735   7.437   2.528   5.398
66321SOL     OW  736   2.396   7.154  12.392
66321SOL    HW1  737   2.472   7.208  12.412
66321SOL    HW2  738   2.321   7.205  12.423
66322SOL     OW  739  12.365   6.852  10.869
66322SOL    HW1  740  12.298   6.793  10.832
66322SOL    HW2  741  12.390   6.811  10.951
66323SOL     OW  742  12.886   5.480   7.770
66323SOL    HW1  743  12.972   5.489   7.811
66323SOL    HW2  744  12.904   5.443   7.684
66324SOL     OW  745  13.115  13.984  12.446
66324SOL    HW1  746  13.141  13.930  12.521
66324SOL    HW2  747  13.064  14.055  12.485
66325SOL     OW  748  13.253   7.714   0.382
66325SOL    HW1  749  13.293   7.701   0.296
66325SOL    HW2  750  13.170   7.667   0.377
66326SOL     OW  751   6.409   4.821   7.000
66326SOL    HW1  752   6.452   4.764   6.935
66326SOL    HW2  753   6.458   4.903   6.995
66327SOL     OW  754   3.258  10.526  12.435
66327SOL    HW1  755   3.281  10.542  12.527
66327SOL    HW2  756   3.324  10.463  12.405
66328SOL     OW  757   9.371   9.325   2.626
66328SOL    HW1  758   9.338   9.261   2.564
66328SOL    HW2  759   9.317   9.402   2.612
66329SOL     OW  760   0.824  11.502   4.496
66329SOL    HW1  761   0.769  11.466   4.427
66329SOL    HW2  762   0.772  11.575   4.531
66330SOL     OW  763   2.130   7.620   4.142
66330SOL    HW1  764   2.056   7.660   4.096
66330SOL    HW2  765   2.192   7.693   4.154
66331SOL     OW  766   8.681   7.290   1.260
66331SOL    HW1  767   8.591   7.292   1.226
66331SOL    HW2  768   8.733   7.253   1.189
66332SOL     OW  769   3.138   9.621   2.367
66332SOL    HW1  770   3.173   9.548   2.317
66332SOL    HW2  771   3.214   9.657   2.413
66333SOL     OW  772  11.500   9.906   6.550
66333SOL    HW1  773  11.480   9.823   6.592
66333SOL    HW2  774  11.596   9.907   6.544
66334SOL     OW  775   7.876   9.490   9.356
66334SOL    HW1  776   7.860   9.399   9.333
66334SOL    HW2  777   7.809   9.511   9.420
66335SOL     OW  778  11.990  10.925  12.168
66335SOL    HW1  779  12.049  10.950  12.097
66335SOL    HW2  780  11.991  11.000  12.228
66336SOL     OW  781  10.830  14.110   2.591
66336SOL    HW1  782  10.783  14.026   2.587
66336SOL    HW2  783  10.823  14.137   2.683
66337SOL     OW  784   5.651  10.715   0.099
66337SOL    HW1  785   5.650  10.737   0.005
66337SOL    HW2  786   5.743  10.707   0.120
66338SOL     OW  787   1.334   7.732   3.524
66338SOL    HW1  788   1.282   7.760   3.449
66338SOL    HW2  789   1.305   7.643   3.542
66339SOL     OW  790  13.665   9.141   0.886
66339SOL    HW1  791  13.646   9.053   0.919
66339SOL    HW2  792  13.580   9.186   0.884
66340SOL     OW  793  13.264  13.328  10.054
66340SOL    HW1  794  13.287  13.237  10.036
66340SOL    HW2  795  13.273  13.373   9.970
66341SOL     OW  796   3.660   1.428  13.178
66341SOL    HW1  797   3.654   1.522  13.195
66341SOL    HW2  798   3.687   1.390  13.262
66342SOL     OW  799   0.190  11.079   2.885
66342SOL    HW1  800   0.231  11.001   2.923
66342SOL    HW2  801   0.102  11.050   2.859
66343SOL     OW  802   7.415   1.385   6.807
66343SOL    HW1  803   7.327   1.422   6.796
66343SOL    HW2  804   7.471   1.460   6.825
66344SOL     OW  805  11.890  12.635   7.045
66344SOL    HW1  806  11.941  12.654   6.966
66344SOL    HW2  807  11.948  12.660   7.117
66345SOL     OW  808  10.843  11.920  14.080
66345SOL    HW1  809  10.779  11.959  14.139
66345SOL    HW2  810  10.894  11.861  14.135
66346SOL     OW  811   0.401   1.196  11.215
66346SOL    HW1  812   0.335   1.264  11.197
66346SOL    HW2  813   0.476   1.221  11.162
66347SOL     OW  814   3.935   7.996  10.435
66347SOL    HW1  815   4.002   8.019  10.500
66347SOL    HW2  816   3.878   7.934  10.480
66348SOL     OW  817   0.427   3.325   3.063
66348SOL    HW1  818   0.461   3.414   3.073
66348SOL    HW2  819   0.361   3.333   2.994
66349SOL     OW  820  12.085   0.786   1.231
66349SOL    HW1  821  12.100   0.707   1.178
66349SOL    HW2  822  12.137   0.772   1.310
66350SOL     OW  823   3.596   0.995   4.287
66350SOL    HW1  824   3.624   1.027   4.202
66350SOL    HW2  825   3.547   1.067   4.326
66351SOL     OW  826   5.430   2.107   9.249
66351SOL    HW1  827   5.430   2.113   9.344
66351SOL    HW2  828   5.455   2.195   9.219
66352SOL     OW  829   6.647   9.411  13.198
66352SOL    HW1  830   6.565   9.452  13.225
66352SOL    HW2  831   6.698   9.405  13.279
66353SOL     OW  832   1.887   0.535   2.336
66353SOL    HW1  833   1.905   0.585   2.256
66353SOL    HW2  834   1.824   0.589   2.385
66354SOL     OW  835   6.324   5.728  12.688
66354SOL    HW1  836   6.231   5.708  12.701
66354SOL    HW2  837   6.366   5.699  12.770
66355SOL     OW  838   4.606  14.747   2.509
66355SOL    HW1  839   4.553  14.741   2.589
66355SOL    HW2  840   4.585  14.832   2.472
66356SOL     OW  841  14.558   1.384   4.062
66356SOL    HW1  842  14.562   1.422   4.150
66356SOL    HW2  843  14.604   1.447   4.006
66357SOL     OW  844   5.066  11.427   5.574
66357SOL    HW1  845   5.156  11.410   5.546
66357SOL    HW2  846   5.022  11.342   5.569
66358SOL     OW  847   1.583   9.382   1.775
66358SOL    HW1  848   1.645   9.323   1.816
66358SOL    HW2  849   1.552   9.335   1.698
66359SOL     OW  850   3.180   2.779   4.918
66359SOL    HW1  851   3.226   2.850   4.963
66359SOL    HW2  852   3.165   2.713   4.986
66360SOL     OW  853  10.260   9.301   1.587
66360SOL    HW1  854  10.341   9.349   1.604
66360SOL    HW2  855  10.265   9.225   1.645
66361SOL     OW  856   9.625  13.570   1.854
66361SOL    HW1  857   9.616  13.662   1.877
66361SOL    HW2  858   9.638  13.525   1.937
66362SOL     OW  859  12.734   5.154  11.909
66362SOL    HW1  860  12.701   5.181  11.995
66362SOL    HW2  861  12.728   5.234  11.856
66363SOL     OW  862   0.769   4.954   0.115
66363SOL    HW1  863   0.822   4.960   0.195
66363SOL    HW2  864   0.813   5.012   0.053
66364SOL     OW  865   9.805   4.351  13.167
66364SOL    HW1  866   9.856   4.425  13.135
66364SOL    HW2  867   9.825   4.280  13.106
66365SOL     OW  868  11.369  10.780  14.733
66365SOL    HW1  869  11.333  10.739  14.655
66365SOL    HW2  870  11.394  10.868  14.705
66366SOL     OW  871   6.387   3.607   4.500
66366SOL    HW1  872   6.440   3.591   4.578
66366SOL    HW2  873   6.313   3.658   4.532
66367SOL     OW  874   5.545   5.422   7.628
66367SOL    HW1  875   5.563   5.328   7.628
66367SOL    HW2  876   5.452   5.429   7.605
66368SOL     OW  877   2.836  13.038  13.969
66368SOL    HW1  878   2.768  13.021  13.904
66368SOL    HW2  879   2.898  12.965  13.960
66369SOL     OW  880  10.570   4.120   1.634
66369SOL    HW1  881  10.510   4.054   1.598
66369SOL    HW2  882  10.569   4.105   1.728
66370SOL     OW  883  13.768   3.848   1.574
66370SOL    HW1  884  13.765   3.921   1.636
66370SOL    HW2  885  13.811   3.778   1.622
66371SOL     OW  886   2.102   4.581  14.802
66371SOL    HW1  887   2.187   4.585  14.757
66371SOL    HW2  888   2.041   4.550  14.735
66372SOL     OW  889  12.478   9.340   7.316
66372SOL    HW1  890  12.434   9.297   7.389
66372SOL    HW2  891  12.409   9.355   7.252
66373SOL     OW  892   0.869  12.072  12.692
66373SOL    HW1  893   0.879  12.126  12.614
66373SOL    HW2  894   0.924  11.996  12.676
66374SOL     OW  895   8.808  13.038   9.677
66374SOL    HW1  896   8.850  13.022   9.761
66374SOL    HW2  897   8.858  12.986   9.614
66375SOL     OW  898   4.617   2.461   8.668
66375SOL    HW1  899   4.527   2.492   8.669
66375SOL    HW2  900   4.611   2.370   8.639
66376SOL     OW  901   0.601  11.747   7.430
66376SOL    HW1  902   0.683  11.787   7.399
66376SOL    HW2  903   0.532  11.802   7.393
66377SOL     OW  904   7.381  14.393   8.372
66377SOL    HW1  905   7.366  14.324   8.307
66377SOL    HW2  906   7.301  14.394   8.424
66378SOL     OW  907  14.068  14.679  10.953
66378SOL    HW1  908  14.073  14.751  10.890
66378SOL    HW2  909  14.129  14.704  11.022
66379SOL     OW  910   1.296   8.426   9.208
66379SOL    HW1  911   1.284   8.517   9.236
66379SOL    HW2  912   1.386   8.423   9.176
66380SOL     OW  913   0.776   9.379   1.230
66380SOL    HW1  914   0.756   9.388   1.323
66380SOL    HW2  915   0.691   9.387   1.186
66381SOL     OW  916  12.471   6.029   0.295
66381SOL    HW1  917  12.417   5.962   0.337
66381SOL    HW2  918  12.526   5.980   0.232
66382SOL     OW  919  13.040  11.753   1.297
66382SOL    HW1  920  13.051  11.664   1.332
66382SOL    HW2  921  13.108  11.804   1.341
66383SOL     OW  922   6.222   0.068   2.447
66383SOL    HW1  923   6.206  14.853   2.466
66383SOL    HW2  924   6.311   0.083   2.480
66384SOL     OW  925  10.988   9.883  11.503
66384SOL    HW1  926  10.906   9.834  11.515
66384SOL    HW2  927  11.005   9.922  11.589
66385SOL     OW  928   2.590   8.970   0.242
66385SOL    HW1  929   2.531   9.002   0.174
66385SOL    HW2  930   2.532   8.925   0.304
66386SOL     OW  931  12.251   3.311   2.891
66386SOL    HW1  932  12.254   3.381   2.825
66386SOL    HW2  933  12.296   3.237   2.849
66387SOL     OW  934   4.000   3.050  10.428
66387SOL    HW1  935   4.069   3.068  10.491
66387SOL    HW2  936   3.925   3.100  10.460
66388SOL     OW  937   1.472  11.160  12.805
66388SOL    HW1  938   1.481  11.113  12.888
66388SOL    HW2  939   1.400  11.116  12.760
66389SOL     OW  940  13.976   6.258   8.398
66389SOL    HW1  941  13.924   6.211   8.464
66389SOL    HW2  942  13.973   6.349   8.427
66390SOL     OW  943   3.992   7.612   8.981
66390SOL    HW1  944   4.066   7.622   9.042
66390SOL    HW2  945   3.921   7.663   9.021
66391SOL     OW  946   9.796   3.345  12.171
66391SOL    HW1  947   9.800   3.413  12.238
66391SOL    HW2  948   9.878   3.353  12.123
66392SOL     OW  949   8.758  13.145   6.772
66392SOL    HW1  950   8.804  13.216   6.726
66392SOL    HW2  951   8.704  13.190   6.837
66393SOL     OW  952   0.601   8.807  12.003
66393SOL    HW1  953   0.542   8.783  11.931
66393SOL    HW2  954   0.580   8.899  12.022
66394SOL     OW  955  14.797  14.324  13.604
66394SOL    HW1  956  14.766  14.395  13.547
66394SOL    HW2  957  14.754  14.341  13.688
66395SOL     OW  958  11.490   0.896   7.055
66395SOL    HW1  959  11.496   0.808   7.093
66395SOL    HW2  960  11.426   0.888   6.985
66396SOL     OW  961   8.225  11.875  10.484
66396SOL    HW1  962   8.204  11.818  10.558
66396SOL    HW2  963   8.156  11.941  10.484
66397SOL     OW  964  12.205   8.680  12.581
66397SOL    HW1  965  12.122   8.634  12.593
66397SOL    HW2  966  12.260   8.649  12.652
66398SOL     OW  967  10.237   1.102  12.553
66398SOL    HW1  968  10.302   1.044  12.515
66398SOL    HW2  969  10.275   1.131  12.636
66399SOL     OW  970   1.508   8.746   8.709
66399SOL    HW1  971   1.489   8.780   8.622
66399SOL    HW2  972   1.446   8.790   8.766
66400SOL     OW  973  14.465  13.918   5.351
66400SOL    HW1  974  14.538  13.969   5.316
66400SOL    HW2  975  14.498  13.828   5.355
66401SOL     OW  976   3.318   4.795  14.652
66401SOL    HW1  977   3.405   4.784  14.613
66401SOL    HW2  978   3.327   4.868  14.712
66402SOL     OW  979  12.130   1.788   4.803
66402SOL    HW1  980  12.081   1.824   4.877
66402SOL    HW2  981  12.109   1.847   4.730
66403SOL     OW  982   1.915  10.556   5.955
66403SOL    HW1  983   1.852  10.484   5.960
66403SOL    HW2  984   1.862  10.634   5.969
66404SOL     OW  985   0.307  10.450   4.001
66404SOL    HW1  986   0.235  10.457   3.939
66404SOL    HW2  987   0.287  10.373   4.054
66405SOL     OW  988   1.762  13.269   3.028
66405SOL    HW1  989   1.734  13.178   3.040
66405SOL    HW2  990   1.689  13.310   2.981
66406SOL     OW  991  11.232  13.535   5.226
66406SOL    HW1  992  11.242  13.441   5.215
66406SOL    HW2  993  11.321  13.569   5.235
66407SOL     OW  994   2.436   8.958   8.792
66407SOL    HW1  995   2.378   8.930   8.720
66407SOL    HW2  996   2.471   9.042   8.763
66408SOL     OW  997  12.153  14.050   9.351
66408SOL    HW1  998  12.182  14.109   9.420
66408SOL    HW2  999  12.072  14.089   9.318
66409SOL     OW 1000   0.613  13.055   3.811
66409SOL    HW1 1001   0.634  13.010   3.893
66409SOL    HW2 1002   0.621  12.988   3.744
66410SOL     OW 1003  11.831   1.223   1.052
66410SOL    HW1 1004  11.919   1.211   1.016
66410SOL    HW2 1005  11.842   1.216   1.146
66411SOL     OW 1006   3.190   1.995   2.652
66411SOL    HW1 1007   3.103   1.965   2.679
66411SOL    HW2 1008   3.183   2.005   2.557
66412SOL     OW 1009   8.698   9.658  10.345
66412SOL    HW1 1010   8.627   9.628  10.402
66412SOL    HW2 1011   8.735   9.578  10.308
66413SOL     OW 1012  12.449   5.370   6.646
66413SOL    HW1 1013  12.434   5.420   6.565
66413SOL    HW2 1014  12.496   5.292   6.616
66414SOL     OW 1015   5.124   8.009  10.922
66414SOL    HW1 1016   5.073   8.039  10.847
66414SOL    HW2 1017   5.061   7.963  10.977
66415SOL     OW 1018  12.168   4.346   1.407
66415SOL    HW1 1019  12.207   4.428   1.376
66415SOL    HW2 1020  12.176   4.350   1.502
66416SOL     OW 1021  13.591   9.522  10.371
66416SOL    HW1 1022  13.611   9.611  10.399
66416SOL    HW2 1023  13.663   9.469  10.404
66417SOL     OW 1024   9.307   5.816   7.088
66417SOL    HW1 1025   9.220   5.784   7.067
66417SOL    HW2 1026   9.339   5.856   7.007
66418SOL     OW 1027   2.118   9.131  10.204
66418SOL    HW1 1028   2.196   9.108  10.152
66418SOL    HW2 1029   2.044   9.112  10.145
66419SOL     OW 1030   0.815   6.915   1.711
66419SOL    HW1 1031   0.814   6.890   1.619
66419SOL    HW2 1032   0.728   6.951   1.726
66420SOL     OW 1033  10.047  14.437  14.754
66420SOL    HW1 1034   9.975  14.380  14.727
66420SOL    HW2 1035  10.050  14.504  14.685
66421SOL     OW 1036   8.411   0.817   1.546
66421SOL    HW1 1037   8.331   0.777   1.581
66421SOL    HW2 1038   8.382   0.860   1.465
66422SOL     OW 1039   7.265   8.878  14.271
66422SOL    HW1 1040   7.305   8.835  14.347
66422SOL    HW2 1041   7.338   8.922  14.227
66423SOL     OW 1042   9.874   2.564   5.897
66423SOL    HW1 1043   9.963   2.529   5.892
66423SOL    HW2 1044   9.835   2.518   5.972
66424SOL     OW 1045  13.975  13.360   5.390
66424SOL    HW1 1046  13.907  13.419   5.423
66424SOL    HW2 1047  13.964  13.361   5.295
66425SOL     OW 1048  12.331   9.028   3.191
66425SOL    HW1 1049  12.415   9.007   3.150
66425SOL    HW2 1050  12.299   9.103   3.142
66426SOL     OW 1051   4.107  14.637  11.932
66426SOL    HW1 1052   4.148  14.555  11.905
66426SOL    HW2 1053   4.017  14.613  11.955
66427SOL     OW 1054  14.717  11.741   8.693
66427SOL    HW1 1055  14.757  11.823   8.722
66427SOL    HW2 1056  14.787  11.676   8.698
66428SOL     OW 1057  11.978   1.223   9.311
66428SOL    HW1 1058  12.018   1.137   9.315
66428SOL    HW2 1059  12.025   1.267   9.239
66429SOL     OW 1060   7.441  11.146   0.096
66429SOL    HW1 1061   7.356  11.186   0.112
66429SOL    HW2 1062   7.488  11.157   0.179
66430SOL     OW 1063  12.977   7.649   5.444
66430SOL    HW1 1064  12.958   7.555   5.448
66430SOL    HW2 1065  13.036   7.659   5.370
66431SOL     OW 1066  12.806   5.068  10.236
66431SOL    HW1 1067  12.808   5.116  10.319
66431SOL    HW2 1068  12.737   5.111  10.185
66432SOL     OW 1069   5.105   7.818   7.917
66432SOL    HW1 1070   5.117   7.860   7.832
66432SOL    HW2 1071   5.179   7.850   7.970
66433SOL     OW 1072   2.702   4.000   4.602
66433SOL    HW1 1073   2.653   3.953   4.534
66433SOL    HW2 1074   2.698   4.092   4.575
66434SOL     OW 1075  13.370  14.256   6.118
66434SOL    HW1 1076  13.287  14.298   6.094
66434SOL    HW2 1077  13.434  14.326   6.116
66435SOL     OW 1078   9.622   9.853  13.849
66435SOL    HW1 1079   9.602   9.873  13.940
66435SOL    HW2 1080   9.562   9.908  13.799
66436SOL     OW 1081   1.700   7.795   2.560
66436SOL    HW1 1082   1.617   7.836   2.582
66436SOL    HW2 1083   1.677   7.711   2.520
66437SOL     OW 1084   5.556   5.610   6.106
66437SOL    HW1 1085   5.607   5.664   6.167
66437SOL    HW2 1086   5.618   5.544   6.074
66438SOL     OW 1087  12.828   0.709   8.342
66438SOL    HW1 1088  12.786   0.667   8.417
66438SOL    HW2 1089  12.883   0.640   8.304
66439SOL     OW 1090  10.846   6.849   3.227
66439SOL    HW1 1091  10.796   6.796   3.166
66439SOL    HW2 1092  10.829   6.810   3.313
66440SOL     OW 1093  12.994   6.506   2.210
66440SOL    HW1 1094  13.057   6.564   2.253
66440SOL    HW2 1095  12.933   6.481   2.280
66441SOL     OW 1096   1.894   4.350  13.286
66441SOL    HW1 1097   1.927   4.439  13.274
66441SOL    HW2 1098   1.848   4.330  13.204
66442SOL     OW 1099   0.877  10.409  11.121
66442SOL    HW1 1100   0.879  10.344  11.050
66442SOL    HW2 1101   0.821  10.370  11.188
66443SOL     OW 1102  14.030   7.273  13.579
66443SOL    HW1 1103  13.954   7.237  13.624
66443SOL    HW2 1104  14.081   7.317  13.648
66444SOL     OW 1105  11.540   9.614  10.881
66444SOL    HW1 1106  11.553   9.685  10.817
66444SOL    HW2 1107  11.501   9.543  10.830
66445SOL     OW 1108   6.315   3.427   6.493
66445SOL    HW1 1109   6.308   3.397   6.584
66445SOL    HW2 1110   6.405   3.457   6.485
66446SOL     OW 1111  11.522   7.452   4.516
66446SOL    HW1 1112  11.548   7.415   4.600
66446SOL    HW2 1113  11.597   7.507   4.491
66447SOL     OW 1114   2.727   7.479  14.853
66447SOL    HW1 1115   2.807   7.429  14.869
66447SOL    HW2 1116   2.697   7.449  14.767
66448SOL     OW 1117   3.806  12.567   3.382
66448SOL    HW1 1118   3.813  12.473   3.399
66448SOL    HW2 1119   3.893  12.601   3.405
66449SOL     OW 1120   0.172  10.995   6.981
66449SOL    HW1 1121   0.251  10.958   7.020
66449SOL    HW2 1122   0.127  10.919   6.943
66450SOL     OW 1123   4.091   7.303  10.221
66450SOL    HW1 1124   4.072   7.234  10.157
66450SOL    HW2 1125   4.181   7.328  10.203
66451SOL     OW 1126  14.076   3.840   2.918
66451SOL    HW1 1127  14.060   3.759   2.869
66451SOL    HW2 1128  14.172   3.845   2.926
66452SOL     OW 1129  11.870   7.486  10.966
66452SOL    HW1 1130  11.949   7.473  10.913
66452SOL    HW2 1131  11.859   7.404  11.014
66453SOL     OW 1132   6.575   9.651   0.550
66453SOL    HW1 1133   6.550   9.668   0.459
66453SOL    HW2 1134   6.651   9.592   0.544
66454SOL     OW 1135   0.410   6.202  13.238
66454SOL    HW1 1136   0.372   6.119  13.267
66454SOL    HW2 1137   0.419   6.193  13.143
66455SOL     OW 1138  12.481  10.281   4.571
66455SOL    HW1 1139  12.563  10.237   4.552
66455SOL    HW2 1140  12.506  10.368   4.602
66456SOL     OW 1141   5.161   5.808   3.983
66456SOL    HW1 1142   5.108   5.884   4.008
66456SOL    HW2 1143   5.248   5.844   3.965
66457SOL     OW 1144   2.438   4.638   3.752
66457SOL    HW1 1145   2.483   4.713   3.790
66457SOL    HW2 1146   2.495   4.564   3.771
66458SOL     OW 1147  11.683  14.257  11.727
66458SOL    HW1 1148  11.604  14.295  11.690
66458SOL    HW2 1149  11.685  14.286  11.818
66459SOL     OW 1150   1.591   2.990  12.561
66459SOL    HW1 1151   1.580   2.900  12.589
66459SOL    HW2 1152   1.533   3.000  12.486
66460SOL     OW 1153   3.516   4.583  11.314
66460SOL    HW1 1154   3.585   4.641  11.281
66460SOL    HW2 1155   3.454   4.576  11.241
66461SOL     OW 1156   8.427  12.304   0.217
66461SOL    HW1 1157   8.414  12.260   0.133
66461SOL    HW2 1158   8.518  12.334   0.215
66462SOL     OW 1159   9.209   8.176   7.758
66462SOL    HW1 1160   9.150   8.110   7.723
66462SOL    HW2 1161   9.204   8.165   7.853
66463SOL     OW 1162   5.533   4.722   1.854
66463SOL    HW1 1163   5.568   4.773   1.781
66463SOL    HW2 1164   5.495   4.787   1.912
66464SOL     OW 1165  11.720   0.337  12.701
66464SOL    HW1 1166  11.703   0.429  12.720
66464SOL    HW2 1167  11.805   0.337  12.657
66465SOL     OW 1168   8.187  12.467  10.031
66465SOL    HW1 1169   8.131  12.511  10.095
66465SOL    HW2 1170   8.275  12.501  10.048
66466SOL     OW 1171   2.625  12.852   3.035
66466SOL    HW1 1172   2.650  12.803   2.956
66466SOL    HW2 1173   2.573  12.925   3.002
66467SOL     OW 1174   7.703   6.499   5.071
66467SOL    HW1 1175   7.662   6.453   5.145
66467SOL    HW2 1176   7.716   6.588   5.104
66468SOL     OW 1177   1.145  13.922   4.535
66468SOL    HW1 1178   1.096  13.986   4.485
66468SOL    HW2 1179   1.180  13.971   4.610
66469SOL     OW 1180   0.513  13.322   0.130
66469SOL    HW1 1181   0.519  13.406   0.176
66469SOL    HW2 1182   0.601  13.310   0.093
66470SOL     OW 1183   9.040   8.013   0.898
66470SOL    HW1 1184   9.026   8.087   0.840
66470SOL    HW2 1185   9.023   7.936   0.844
66471SOL     OW 1186  11.122  10.383   7.364
66471SOL    HW1 1187  11.167  10.299   7.359
66471SOL    HW2 1188  11.030  10.360   7.381
66472SOL     OW 1189   7.024   7.192  10.452
66472SOL    HW1 1190   6.968   7.169  10.378
66472SOL    HW2 1191   7.108   7.150  10.433
66473SOL     OW 1192  13.862  13.961   7.492
66473SOL    HW1 1193  13.943  13.925   7.527
66473SOL    HW2 1194  13.832  13.895   7.429
66474SOL     OW 1195  14.113  13.844   7.606
66474SOL    HW1 1196  14.186  13.873   7.552
66474SOL    HW2 1197  14.147  13.767   7.652
66475SOL     OW 1198   5.228  11.835  13.169
66475SOL    HW1 1199   5.307  11.808  13.122
66475SOL    HW2 1200   5.158  11.826  13.105
66476SOL     OW 1201   4.610   4.178   6.682
66476SOL    HW1 1202   4.694   4.170   6.637
66476SOL    HW2 1203   4.546   4.143   6.619
66477SOL     OW 1204  14.772   1.041  11.227
66477SOL    HW1 1205  14.722   1.033  11.308
66477SOL    HW2 1206  14.775   1.135  11.210
66478SOL     OW 1207   4.838   8.772  13.514
66478SOL    HW1 1208   4.873   8.773  13.425
66478SOL    HW2 1209   4.870   8.691  13.553
66479SOL     OW 1210   5.404   4.622  12.664
66479SOL    HW1 1211   5.427   4.543  12.713
66479SOL    HW2 1212   5.488   4.652  12.628
66480SOL     OW 1213   4.439   8.449   0.854
66480SOL    HW1 1214   4.437   8.543   0.872
66480SOL    HW2 1215   4.532   8.426   0.861
66481SOL     OW 1216  13.963   8.307  10.804
66481SOL    HW1 1217  14.001   8.222  10.783
66481SOL    HW2 1218  13.869   8.296  10.791
66482SOL     OW 1219   9.131  11.658  14.026
66482SOL    HW1 1220   9.046  11.637  13.987
66482SOL    HW2 1221   9.193  11.602  13.980
66483SOL     OW 1222   3.122   2.148   1.158
66483SOL    HW1 1223   3.141   2.110   1.244
66483SOL    HW2 1224   3.205   2.144   1.111
66484SOL     OW 1225   6.505   2.833  14.657
66484SOL    HW1 1226   6.437   2.840  14.590
66484SOL    HW2 1227   6.556   2.756  14.631
66485SOL     OW 1228   7.788   3.020  11.812
66485SOL    HW1 1229   7.698   3.017  11.779
66485SOL    HW2 1230   7.798   2.937  11.859
66486SOL     OW 1231  11.292  14.181   3.842
66486SOL    HW1 1232  11.242  14.185   3.923
66486SOL    HW2 1233  11.330  14.093   3.842
66487SOL     OW 1234  13.615   1.171   5.564
66487SOL    HW1 1235  13.650   1.130   5.643
66487SOL    HW2 1236  13.681   1.235   5.539
66488SOL     OW 1237  12.681  10.107  11.227
66488SOL    HW1 1238  12.617  10.090  11.157
66488SOL    HW2 1239  12.658  10.193  11.260
66489SOL     OW 1240   0.111  14.295   4.417
66489SOL    HW1 1241   0.117  14.337   4.331
66489SOL    HW2 1242   0.157  14.355   4.476
66490SOL     OW 1243   4.096   9.440   0.375
66490SOL    HW1 1244   4.033   9.435   0.304
66490SOL    HW2 1245   4.061   9.507   0.434
66491SOL     OW 1246   2.234   4.122   0.165
66491SOL    HW1 1247   2.205   4.175   0.091
66491SOL    HW2 1248   2.229   4.181   0.240
66492SOL     OW 1249   9.821   0.412   4.244
66492SOL    HW1 1250   9.726   0.421   4.252
66492SOL    HW2 1251   9.847   0.487   4.189
66493SOL     OW 1252   3.877  10.764   4.300
66493SOL    HW1 1253   3.794  10.717   4.307
66493SOL    HW2 1254   3.941  10.707   4.342
66494SOL     OW 1255   9.024   0.520  11.292
66494SOL    HW1 1256   8.952   0.582  11.285
66494SOL    HW2 1257   9.031   0.481  11.205
66495SOL     OW 1258   2.922   1.494  14.735
66495SOL    HW1 1259   2.950   1.533  14.652
66495SOL    HW2 1260   2.844   1.543  14.759
66496SOL     OW 1261   5.559  10.550   7.407
66496SOL    HW1 1262   5.563  10.645   7.394
66496SOL    HW2 1263   5.504  10.518   7.335
66497SOL     OW 1264   0.341   8.700  14.860
66497SOL    HW1 1265   0.396   8.681  14.784
66497SOL    HW2 1266   0.254   8.713  14.823
66498SOL     OW 1267   5.198   9.985   9.635
66498SOL    HW1 1268   5.124  10.042   9.617
66498SOL    HW2 1269   5.263  10.008   9.569
66499SOL     OW 1270  14.636   0.813   9.434
66499SOL    HW1 1271  14.665   0.884   9.376
66499SOL    HW2 1272  14.552   0.843   9.468
66500SOL     OW 1273   8.009   0.970   2.896
66500SOL    HW1 1274   7.993   1.018   2.814
66500SOL    HW2 1275   7.945   1.006   2.958
66501SOL     OW 1276   7.799   8.486  12.208
66501SOL    HW1 1277   7.874   8.441  12.247
66501SOL    HW2 1278   7.827   8.504  12.118
66502SOL     OW 1279   9.564  14.763  12.439
66502SOL    HW1 1280   9.524  14.749  12.353
66502SOL    HW2 1281   9.640  14.818  12.422
66503SOL     OW 1282   2.989   2.282   0.280
66503SOL    HW1 1283   3.077   2.244   0.277
66503SOL    HW2 1284   2.951   2.249   0.361
66504SOL     OW 1285  14.002  12.354  14.747
66504SOL    HW1 1286  13.937  12.372  14.815
66504SOL    HW2 1287  14.059  12.287  14.784
66505SOL     OW 1288   5.266   3.142   7.154
66505SOL    HW1 1289   5.330   3.205   7.121
66505SOL    HW2 1290   5.232   3.100   7.075
66506SOL     OW 1291   8.670   0.874  12.243
66506SOL    HW1 1292   8.625   0.845  12.163
66506SOL    HW2 1293   8.611   0.940  12.281
66507SOL     OW 1294  13.513   5.313   2.500
66507SOL    HW1 1295  13.561   5.374   2.445
66507SOL    HW2 1296  13.578   5.249   2.527
66508SOL     OW 1297  11.138   4.147   3.153
66508SOL    HW1 1298  11.092   4.169   3.234
66508SOL    HW2 1299  11.178   4.229   3.124
66509SOL     OW 1300   4.980   3.798   9.202
66509SOL    HW1 1301   4.960   3.719   9.153
66509SOL    HW2 1302   5.037   3.768   9.274
66510SOL     OW 1303  12.808   5.079   7.819
66510SOL    HW1 1304  12.851   5.105   7.738
66510SOL    HW2 1305  12.733   5.137   7.826
66511SOL     OW 1306  13.719   7.380  14.402
66511SOL    HW1 1307  13.717   7.334  14.485
66511SOL    HW2 1308  13.650   7.447  14.411
66512SOL     OW 1309   9.496  14.442   2.897
66512SOL    HW1 1310   9.583  14.472   2.923
66512SOL    HW2 1311   9.480  14.487   2.814
66513SOL     OW 1312   8.052  10.076   8.793
66513SOL    HW1 1313   8.125  10.130   8.760
66513SOL    HW2 1314   8.003  10.053   8.714
66514SOL     OW 1315  10.276  13.141  12.395
66514SOL    HW1 1316  10.220  13.215  12.374
66514SOL    HW2 1317  10.222  13.064  12.374
66515SOL     OW 1318  10.597   2.696  14.333
66515SOL    HW1 1319  10.533   2.710  14.403
66515SOL    HW2 1320  10.591   2.774  14.279
66516SOL     OW 1321   7.559   5.530   2.606
66516SOL    HW1 1322   7.611   5.477   2.546
66516SOL    HW2 1323   7.622   5.591   2.645
66517SOL     OW 1324   4.700   5.215  13.314
66517SOL    HW1 1325   4.760   5.186  13.245
66517SOL    HW2 1326   4.693   5.310  13.302
66518SOL     OW 1327  13.502   0.050   1.904
66518SOL    HW1 1328  13.581   0.084   1.947
66518SOL    HW2 1329  13.525   0.048   1.811
66519SOL     OW 1330  10.055   3.365  10.279
66519SOL    HW1 1331  10.041   3.322  10.363
66519SOL    HW2 1332  10.009   3.309  10.216
66520SOL     OW 1333   4.054  11.151   1.914
66520SOL    HW1 1334   4.044  11.071   1.862
66520SOL    HW2 1335   4.147  11.172   1.907
66521SOL     OW 1336   6.080   6.151   5.979
66521SOL    HW1 1337   6.156   6.208   5.967
66521SOL    HW2 1338   6.112   6.063   5.958
66522SOL     OW 1339  10.835  11.449   9.879
66522SOL    HW1 1340  10.819  11.539   9.853
66522SOL    HW2 1341  10.758  11.424   9.930
66523SOL     OW 1342  10.480   2.822   1.267
66523SOL    HW1 1343  10.502   2.736   1.302
66523SOL    HW2 1344  10.470   2.807   1.173
66524SOL     OW 1345   8.685  13.651   9.262
66524SOL    HW1 1346   8.670  13.654   9.167
66524SOL    HW2 1347   8.779  13.669   9.271
66525SOL     OW 1348   4.574  12.486   5.131
66525SOL    HW1 1349   4.562  12.399   5.093
66525SOL    HW2 1350   4.586  12.544   5.056
66526SOL     OW 1351  13.593   1.360   3.314
66526SOL    HW1 1352  13.623   1.399   3.232
66526SOL    HW2 1353  13.565   1.434   3.368
66527SOL     OW 1354   7.885   3.777  11.927
66527SOL    HW1 1355   7.923   3.700  11.884
66527SOL    HW2 1356   7.940   3.790  12.004
66528SOL     OW 1357   6.124   8.534   0.753
66528SOL    HW1 1358   6.145   8.582   0.673
66528SOL    HW2 1359   6.136   8.442   0.730
66529SOL     OW 1360  13.825   9.727   5.561
66529SOL    HW1 1361  13.814   9.792   5.491
66529SOL    HW2 1362  13.908   9.685   5.542
66530SOL     OW 1363   2.276   3.917  13.761
66530SOL    HW1 1364   2.189   3.954  13.746
66530SOL    HW2 1365   2.320   3.925  13.677
66531SOL     OW 1366   3.930   8.582   0.416
66531SOL    HW1 1367   3.887   8.535   0.345
66531SOL    HW2 1368   4.023   8.558   0.408
66532SOL     OW 1369   0.098   6.320  14.708
66532SOL    HW1 1370   0.173   6.369  14.674
66532SOL    HW2 1371   0.022   6.366  14.671
66533SOL     OW 1372   1.190   9.545   4.225
66533SOL    HW1 1373   1.131   9.616   4.199
66533SOL    HW2 1374   1.264   9.590   4.265
66534SOL     OW 1375  13.745   5.390   6.311
66534SOL    HW1 1376  13.713   5.404   6.222
66534SOL    HW2 1377  13.726   5.298   6.330
66535SOL     OW 1378   7.908   7.997   9.769
66535SOL    HW1 1379   7.945   8.017   9.683
66535SOL    HW2 1380   7.839   8.062   9.781
66536SOL     OW 1381   8.564   6.971  13.902
66536SOL    HW1 1382   8.648   6.933  13.926
66536SOL    HW2 1383   8.582   7.018  13.820
66537SOL     OW 1384   7.745  14.548   7.180
66537SOL    HW1 1385   7.670  14.602   7.155
66537SOL    HW2 1386   7.711  14.459   7.183
66538SOL     OW 1387  11.090  10.709   8.479
66538SOL    HW1 1388  11.072  10.634   8.536
66538SOL    HW2 1389  11.160  10.678   8.421
66539SOL     OW 1390  14.749   4.672   2.491
66539SOL    HW1 1391  14.724   4.731   2.562
66539SOL    HW2 1392  14.768   4.589   2.536
66540SOL     OW 1393   0.561   8.321   4.044
66540SOL    HW1 1394   0.477   8.354   4.076
66540SOL    HW2 1395   0.626   8.377   4.086
66541SOL     OW 1396   5.461   5.467  10.707
66541SOL    HW1 1397   5.446   5.495  10.798
66541SOL    HW2 1398   5.387   5.502  10.658
66542SOL     OW 1399  11.738   4.554   3.098
66542SOL    HW1 1400  11.780   4.625   3.147
66542SOL    HW2 1401  11.756   4.475   3.149
66543SOL     OW 1402  10.814   3.137  14.135
66543SOL    HW1 1403  10.799   3.044  14.118
66543SOL    HW2 1404  10.741   3.162  14.191
66544SOL     OW 1405  13.684   6.580   8.457
66544SOL    HW1 1406  13.658   6.529   8.380
66544SOL    HW2 1407  13.779   6.580   8.456
66545SOL     OW 1408  12.415   4.898  13.253
66545SOL    HW1 1409  12.371   4.975  13.289
66545SOL    HW2 1410  12.396   4.828  13.316
66546SOL     OW 1411   3.057   8.082   0.997
66546SOL    HW1 1412   3.051   8.100   0.903
66546SOL    HW2 1413   3.144   8.113   1.022
66547SOL     OW 1414   6.264  13.510   5.439
66547SOL    HW1 1415   6.298  13.591   5.477
66547SOL    HW2 1416   6.196  13.539   5.379
66548SOL     OW 1417  10.285   3.527   1.706
66548SOL    HW1 1418  10.315   3.547   1.795
66548SOL    HW2 1419  10.255   3.612   1.672
66549SOL     OW 1420   8.462  10.505   2.403
66549SOL    HW1 1421   8.495  10.595   2.409
66549SOL    HW2 1422   8.367  10.514   2.406
66550SOL     OW 1423  14.145   6.569   5.811
66550SOL    HW1 1424  14.093   6.504   5.765
66550SOL    HW2 1425  14.220   6.520   5.845
66551SOL     OW 1426  10.770   1.243  11.126
66551SOL    HW1 1427  10.718   1.314  11.164
66551SOL    HW2 1428  10.742   1.239  11.034
66552SOL     OW 1429   8.114  12.596   0.907
66552SOL    HW1 1430   8.103  12.554   0.993
66552SOL    HW2 1431   8.199  12.639   0.912
66553SOL     OW 1432   5.780   4.645  10.926
66553SOL    HW1 1433   5.874   4.632  10.939
66553SOL    HW2 1434   5.775   4.718  10.864
66554SOL     OW 1435  14.231   0.692   6.143
66554SOL    HW1 1436  14.230   0.610   6.193
66554SOL    HW2 1437  14.156   0.684   6.083
66555SOL     OW 1438  11.908  12.514  14.140
66555SOL    HW1 1439  11.926  12.594  14.190
66555SOL    HW2 1440  11.814  12.520  14.120
66556SOL     OW 1441   4.003   2.634   0.143
66556SOL    HW1 1442   3.960   2.713   0.109
66556SOL    HW2 1443   3.967   2.563   0.090
66557SOL     OW 1444   1.515   9.985  11.169
66557SOL    HW1 1445   1.435   9.933  11.181
66557SOL    HW2 1446   1.494  10.069  11.209
66558SOL     OW 1447   1.696   4.203   6.060
66558SOL    HW1 1448   1.665   4.191   6.149
66558SOL    HW2 1449   1.665   4.126   6.012
66559SOL     OW 1450  14.477  13.306   2.779
66559SOL    HW1 1451  14.482  13.401   2.777
66559SOL    HW2 1452  14.552  13.276   2.728
66560SOL     OW 1453   0.484   4.396   3.610
66560SOL    HW1 1454   0.456   4.461   3.546
66560SOL    HW2 1455   0.476   4.312   3.564
66561SOL     OW 1456  10.500   3.208   2.840
66561SOL    HW1 1457  10.586   3.242   2.864
66561SOL    HW2 1458  10.473   3.263   2.767
66562SOL     OW 1459   0.710   2.541   4.938
66562SOL    HW1 1460   0.730   2.632   4.917
66562SOL    HW2 1461   0.624   2.526   4.897
66563SOL     OW 1462  10.068   8.130  12.283
66563SOL    HW1 1463  10.065   8.048  12.233
66563SOL    HW2 1464   9.976   8.154  12.293
66564SOL     OW 1465   9.539   8.000  13.843
66564SOL    HW1 1466   9.569   8.090  13.831
66564SOL    HW2 1467   9.566   7.955  13.762
66565SOL     OW 1468  11.499  13.261  11.052
66565SOL    HW1 1469  11.496  13.332  10.988
66565SOL    HW2 1470  11.577  13.211  11.029
66566SOL     OW 1471  10.220  14.630   4.504
66566SOL    HW1 1472  10.310  14.659   4.486
66566SOL    HW2 1473  10.221  14.536   4.487
66567SOL     OW 1474   2.033  11.952   3.420
66567SOL    HW1 1475   2.118  11.948   3.464
66567SOL    HW2 1476   1.989  11.871   3.447
66568SOL     OW 1477   0.375   8.272   0.003
66568SOL    HW1 1478   0.400   8.255  14.790
66568SOL    HW2 1479   0.416   8.356   0.024
66569SOL     OW 1480   5.663   2.292   7.463
66569SOL    HW1 1481   5.613   2.210   7.460
66569SOL    HW2 1482   5.700   2.301   7.375
66570SOL     OW 1483   5.385   9.452   9.582
66570SOL    HW1 1484   5.314   9.471   9.521
66570SOL    HW2 1485   5.452   9.410   9.528
66571SOL     OW 1486   2.043  14.773   0.920
66571SOL    HW1 1487   1.993  14.848   0.949
66571SOL    HW2 1488   2.133  14.806   0.912
66572SOL     OW 1489   0.960  12.129  13.895
66572SOL    HW1 1490   0.983  12.101  13.984
66572SOL    HW2 1491   0.922  12.217  13.906
66573SOL     OW 1492   2.625   2.664   3.276
66573SOL    HW1 1493   2.543   2.660   3.225
66573SOL    HW2 1494   2.673   2.586   3.248
66574SOL     OW 1495   6.694   1.147  10.319
66574SOL    HW1 1496   6.650   1.220  10.275
66574SOL    HW2 1497   6.627   1.110  10.376
66575SOL     OW 1498   6.728   4.753   4.689
66575SOL    HW1 1499   6.633   4.740   4.698
66575SOL    HW2 1500   6.756   4.682   4.632
66576SOL     OW 1501   8.194  13.540   1.621
66576SOL    HW1 1502   8.191  13.557   1.715
66576SOL    HW2 1503   8.131  13.602   1.584
66577SOL     OW 1504   4.682   6.211  11.317
66577SOL    HW1 1505   4.644   6.137  11.269
66577SOL    HW2 1506   4.630   6.217  11.397
66578SOL     OW 1507   8.450   3.154   1.207
66578SOL    HW1 1508   8.507   3.105   1.147
66578SOL    HW2 1509   8.362   3.125   1.184
66579SOL     OW 1510   6.767   9.038   2.766
66579SOL    HW1 1511   6.855   9.061   2.795
66579SOL    HW2 1512   6.710   9.099   2.812
66580SOL     OW 1513  13.397   0.248   3.976
66580SOL    HW1 1514  13.483   0.207   3.974
66580SOL    HW2 1515  13.403   0.320   3.913
66581SOL     OW 1516   7.498  14.275   8.787
66581SOL    HW1 1517   7.566  14.252   8.851
66581SOL    HW2 1518   7.547  14.299   8.709
66582SOL     OW 1519  10.726   6.626   7.077
66582SOL    HW1 1520  10.762   6.548   7.034
66582SOL    HW2 1521  10.795   6.656   7.136
66583SOL     OW 1522  11.324  11.865   0.802
66583SOL    HW1 1523  11.415  11.869   0.773
66583SOL    HW2 1524  11.281  11.807   0.739
66584SOL     OW 1525  12.794  14.483   2.995
66584SOL    HW1 1526  12.773  14.391   3.007
66584SOL    HW2 1527  12.785  14.498   2.901
66585SOL     OW 1528  13.438  10.647   2.864
66585SOL    HW1 1529  13.457  10.558   2.892
66585SOL    HW2 1530  13.476  10.702   2.932
66586SOL     OW 1531   0.025  11.022   8.460
66586SOL    HW1 1532   0.049  10.931   8.445
66586SOL    HW2 1533   0.053  11.067   8.380
66587SOL     OW 1534   5.483  11.814   9.721
66587SOL    HW1 1535   5.565  11.841   9.764
66587SOL    HW2 1536   5.452  11.740   9.773
66588SOL     OW 1537   5.931   2.383  11.580
66588SOL    HW1 1538   6.021   2.357  11.557
66588SOL    HW2 1539   5.931   2.388  11.675
66589SOL     OW 1540   7.510   3.714   8.748
66589SOL    HW1 1541   7.492   3.806   8.763
66589SOL    HW2 1542   7.500   3.702   8.653
66590SOL     OW 1543   1.083  10.724   0.983
66590SOL    HW1 1544   1.113  10.777   0.910
66590SOL    HW2 1545   1.154  10.662   0.999
66591SOL     OW 1546  13.046   9.914   3.124
66591SOL    HW1 1547  13.054   9.950   3.212
66591SOL    HW2 1548  13.136   9.903   3.095
66592SOL     OW 1549  12.650  11.697   5.174
66592SOL    HW1 1550  12.659  11.665   5.264
66592SOL    HW2 1551  12.561  11.734   5.171
66593SOL     OW 1552  11.999  13.746   7.096
66593SOL    HW1 1553  11.917  13.794   7.091
66593SOL    HW2 1554  11.980  13.671   7.154
66594SOL     OW 1555   5.606   4.482  10.488
66594SOL    HW1 1556   5.629   4.444  10.572
66594SOL    HW2 1557   5.581   4.572  10.508
66595SOL     OW 1558   4.228   0.435   5.060
66595SOL    HW1 1559   4.187   0.356   5.094
66595SOL    HW2 1560   4.182   0.507   5.102
66596SOL     OW 1561  14.440  10.094  13.038
66596SOL    HW1 1562  14.373  10.123  13.100
66596SOL    HW2 1563  14.452  10.168  12.980
66597SOL     OW 1564   6.354   5.115  11.080
66597SOL    HW1 1565   6.311   5.041  11.038
66597SOL    HW2 1566   6.302   5.191  11.053
66598SOL     OW 1567  12.860   0.852   0.940
66598SOL    HW1 1568  12.794   0.790   0.910
66598SOL    HW2 1569  12.850   0.854   1.035
66599SOL     OW 1570   4.647   2.069   4.306
66599SOL    HW1 1571   4.592   1.991   4.316
66599SOL    HW2 1572   4.722   2.052   4.363
66600SOL     OW 1573   0.522  13.273  13.860
66600SOL    HW1 1574   0.451  13.211  13.840
66600SOL    HW2 1575   0.601  13.218  13.861
66601SOL     OW 1576   8.992   7.821  11.677
66601SOL    HW1 1577   8.970   7.731  11.652
66601SOL    HW2 1578   8.954   7.832  11.764
66602SOL     OW 1579  11.779   4.191   2.842
66602SOL    HW1 1580  11.841   4.121   2.824
66602SOL    HW2 1581  11.709   4.177   2.779
66603SOL     OW 1582  13.993  13.043   5.600
66603SOL    HW1 1583  13.996  13.136   5.620
66603SOL    HW2 1584  14.079  13.023   5.565
66604SOL     OW 1585   4.990  11.107   3.436
66604SOL    HW1 1586   4.948  11.173   3.491
66604SOL    HW2 1587   5.064  11.076   3.488
66605SOL     OW 1588  14.418   3.903   8.078
66605SOL    HW1 1589  14.401   3.918   7.985
66605SOL    HW2 1590  14.331   3.890   8.117
66606SOL     OW 1591   1.074   2.530  12.651
66606SOL    HW1 1592   0.997   2.475  12.636
66606SOL    HW2 1593   1.060   2.568  12.738
66607SOL     OW 1594   0.364  11.996   0.238
66607SOL    HW1 1595   0.394  12.045   0.315
66607SOL    HW2 1596   0.432  11.930   0.223
66608SOL     OW 1597  10.283  10.967   9.502
66608SOL    HW1 1598  10.214  11.020   9.463
66608SOL    HW2 1599  10.332  11.029   9.557
66609SOL     OW 1600   4.220  10.760   0.402
66609SOL    HW1 1601   4.296  10.703   0.390
66609SOL    HW2 1602   4.147  10.699   0.416
66610SOL     OW 1603  12.568   4.393   1.727
66610SOL    HW1 1604  12.538   4.378   1.817
66610SOL    HW2 1605  12.547   4.485   1.709
66611SOL     OW 1606  12.414   3.230   3.565
66611SOL    HW1 1607  12.352   3.283   3.615
66611SOL    HW2 1608  12.449   3.167   3.627
66612SOL     OW 1609  12.276   1.131  12.856
66612SOL    HW1 1610  12.200   1.079  12.881
66612SOL    HW2 1611  12.298   1.101  12.768
66613SOL     OW 1612   1.506   7.865   4.578
66613SOL    HW1 1613   1.459   7.838   4.499
66613SOL    HW2 1614   1.446   7.925   4.622
66614SOL     OW 1615  12.666   2.216   6.646
66614SOL    HW1 1616  12.614   2.296   6.634
66614SOL    HW2 1617  12.752   2.247   6.676
66615SOL     OW 1618   1.459   0.811   3.163
66615SOL    HW1 1619   1.554   0.825   3.167
66615SOL    HW2 1620   1.432   0.808   3.255
66616SOL     OW 1621   9.786  13.769   2.823
66616SOL    HW1 1622   9.725  13.782   2.896
66616SOL    HW2 1623   9.836  13.850   2.818
66617SOL     OW 1624  12.653   2.421   5.702
66617SOL    HW1 1625  12.652   2.326   5.686
66617SOL    HW2 1626  12.578   2.454   5.653
66618SOL     OW 1627  13.899   6.452  12.015
66618SOL    HW1 1628  13.936   6.521  11.960
66618SOL    HW2 1629  13.955   6.376  12.000
66619SOL     OW 1630   7.596  13.725   2.884
66619SOL    HW1 1631   7.641  13.784   2.944
66619SOL    HW2 1632   7.627  13.750   2.797
66620SOL     OW 1633   0.911  13.181   8.870
66620SOL    HW1 1634   0.957  13.240   8.929
66620SOL    HW2 1635   0.882  13.236   8.797
66621SOL     OW 1636   1.182  13.749  13.537
66621SOL    HW1 1637   1.269  13.754  13.497
66621SOL    HW2 1638   1.189  13.677  13.599
66622SOL     OW 1639   8.185  12.980   6.733
66622SOL    HW1 1640   8.104  12.949   6.772
66622SOL    HW2 1641   8.158  13.041   6.664
66623SOL     OW 1642  14.529  13.291   1.065
66623SOL    HW1 1643  14.446  13.301   1.111
66623SOL    HW2 1644  14.507  13.244   0.984
66624SOL     OW 1645   0.867   9.493  11.339
66624SOL    HW1 1646   0.912   9.527  11.416
66624SOL    HW2 1647   0.815   9.420  11.372
66625SOL     OW 1648   6.092   3.925   3.580
66625SOL    HW1 1649   6.040   3.861   3.530
66625SOL    HW2 1650   6.027   3.986   3.615
66626SOL     OW 1651  14.780  11.406  14.576
66626SOL    HW1 1652  14.689  11.378  14.581
66626SOL    HW2 1653  14.815  11.360  14.499
66627SOL     OW 1654   5.703  12.681   0.474
66627SOL    HW1 1655   5.797  12.677   0.494
66627SOL    HW2 1656   5.694  12.634   0.392
66628SOL     OW 1657   1.348   8.242  12.323
66628SOL    HW1 1658   1.435   8.219  12.355
66628SOL    HW2 1659   1.337   8.190  12.244
66629SOL     OW 1660   6.054  14.119  14.257
66629SOL    HW1 1661   6.015  14.202  14.286
66629SOL    HW2 1662   6.090  14.139  14.170
66630SOL     OW 1663   5.824   0.309  12.847
66630SOL    HW1 1664   5.815   0.401  12.869
66630SOL    HW2 1665   5.759   0.294  12.778
66631SOL     OW 1666   0.759   4.770   3.287
66631SOL    HW1 1667   0.849   4.804   3.283
66631SOL    HW2 1668   0.770   4.676   3.303
66632SOL     OW 1669   5.976  11.835  10.367
66632SOL    HW1 1670   5.883  11.822  10.383
66632SOL    HW2 1671   6.019  11.776  10.429
66633SOL     OW 1672   3.020  10.430   4.673
66633SOL    HW1 1673   2.976  10.490   4.733
66633SOL    HW2 1674   3.044  10.355   4.727
66634SOL     OW 1675  12.498   2.141  14.717
66634SOL    HW1 1676  12.476   2.230  14.743
66634SOL    HW2 1677  12.553   2.107  14.788
66635SOL     OW 1678   2.548  12.086   9.551
66635SOL    HW1 1679   2.629  12.114   9.593
66635SOL    HW2 1680   2.524  12.005   9.596
66636SOL     OW 1681   3.153   8.732   1.625
66636SOL    HW1 1682   3.125   8.642   1.642
66636SOL    HW2 1683   3.076   8.785   1.648
66637SOL     OW 1684  13.675  12.171   1.750
66637SOL    HW1 1685  13.733  12.187   1.824
66637SOL    HW2 1686  13.726  12.116   1.690
66638SOL     OW 1687   5.180  10.080   0.786
66638SOL    HW1 1688   5.186  10.122   0.872
66638SOL    HW2 1689   5.155  10.151   0.727
66639SOL     OW 1690   4.151  10.361   4.918
66639SOL    HW1 1691   4.131  10.287   4.860
66639SOL    HW2 1692   4.073  10.370   4.973
66640SOL     OW 1693   5.338   3.869  11.750
66640SOL    HW1 1694   5.294   3.943  11.709
66640SOL    HW2 1695   5.291   3.792  11.717
66641SOL     OW 1696   4.295  13.286  12.680
66641SOL    HW1 1697   4.250  13.228  12.741
66641SOL    HW2 1698   4.239  13.364  12.675
66642SOL     OW 1699  11.729   5.047   7.449
66642SOL    HW1 1700  11.676   5.024   7.525
66642SOL    HW2 1701  11.677   5.018   7.374
66643SOL     OW 1702  11.521   1.581   1.679
66643SOL    HW1 1703  11.572   1.516   1.727
66643SOL    HW2 1704  11.587   1.640   1.641
66644SOL     OW 1705   7.575   8.466  11.004
66644SOL    HW1 1706   7.546   8.477  10.914
66644SOL    HW2 1707   7.540   8.543  11.050
66645SOL     OW 1708   2.218   2.163  13.966
66645SOL    HW1 1709   2.175   2.125  14.043
66645SOL    HW2 1710   2.217   2.093  13.901
66646SOL     OW 1711   4.495   2.561   1.164
66646SOL    HW1 1712   4.460   2.647   1.142
66646SOL    HW2 1713   4.463   2.503   1.094
66647SOL     OW 1714   2.818   0.238   4.724
66647SOL    HW1 1715   2.839   0.302   4.791
66647SOL    HW2 1716   2.883   0.252   4.656
66648SOL     OW 1717   8.029  12.478   3.820
66648SOL    HW1 1718   8.032  12.573   3.823
66648SOL    HW2 1719   7.948  12.455   3.865
66649SOL     OW 1720   1.096  11.511  12.404
66649SOL    HW1 1721   1.053  11.596  12.400
66649SOL    HW2 1722   1.180  11.525  12.358
66650SOL     OW 1723   1.071  11.542   0.507
66650SOL    HW1 1724   1.088  11.451   0.534
66650SOL    HW2 1725   1.143  11.592   0.545
66651SOL     OW 1726   7.065   0.115   8.683
66651SOL    HW1 1727   6.973   0.142   8.676
66651SOL    HW2 1728   7.113   0.185   8.639
66652SOL     OW 1729   7.204  12.096  12.977
66652SOL    HW1 1730   7.273  12.030  12.986
66652SOL    HW2 1731   7.208  12.146  13.059
66653SOL     OW 1732   3.023   3.988   7.052
66653SOL    HW1 1733   2.935   3.952   7.062
66653SOL    HW2 1734   3.067   3.930   6.990
66654SOL     OW 1735   1.613   7.035  11.444
66654SOL    HW1 1736   1.651   6.950  11.465
66654SOL    HW2 1737   1.665   7.097  11.495
66655SOL     OW 1738  14.778   2.608  10.824
66655SOL    HW1 1739  14.726   2.531  10.844
66655SOL    HW2 1740  14.721   2.663  10.769
66656SOL     OW 1741   7.662   0.043   9.583
66656SOL    HW1 1742   7.722   0.027   9.656
66656SOL    HW2 1743   7.680   0.132   9.555
66657SOL     OW 1744   4.853   8.587   6.763
66657SOL    HW1 1745   4.878   8.619   6.676
66657SOL    HW2 1746   4.859   8.491   6.755
66658SOL     OW 1747   0.536   0.033  10.642
66658SOL    HW1 1748   0.601   0.041  10.712
66658SOL    HW2 1749   0.577   0.076  10.566
66659SOL     OW 1750   2.169  13.579  14.378
66659SOL    HW1 1751   2.239  13.628  14.336
66659SOL    HW2 1752   2.192  13.578  14.471
66660SOL     OW 1753   4.688   4.216  14.217
66660SOL    HW1 1754   4.606   4.220  14.268
66660SOL    HW2 1755   4.685   4.292  14.160
66661SOL     OW 1756   6.271   5.423   0.230
66661SOL    HW1 1757   6.328   5.354   0.196
66661SOL    HW2 1758   6.293   5.500   0.176
66662SOL     OW 1759   9.342   7.699  12.983
66662SOL    HW1 1760   9.312   7.774  13.035
66662SOL    HW2 1761   9.433   7.720  12.961
66663SOL     OW 1762  10.081   7.448  10.212
66663SOL    HW1 1763  10.160   7.423  10.164
66663SOL    HW2 1764  10.013   7.454  10.145
66664SOL     OW 1765  12.879  14.158  14.305
66664SOL    HW1 1766  12.901  14.201  14.222
66664SOL    HW2 1767  12.840  14.074  14.278
66665SOL     OW 1768   1.868  12.671  13.653
66665SOL    HW1 1769   1.887  12.580  13.632
66665SOL    HW2 1770   1.895  12.721  13.576
66666SOL     OW 1771  10.037  14.444   5.891
66666SOL    HW1 1772  10.001  14.357   5.909
66666SOL    HW2 1773   9.971  14.487   5.836
66667SOL     OW 1774   0.299  13.487  11.583
66667SOL    HW1 1775   0.284  13.398  11.552
66667SOL    HW2 1776   0.363  13.478  11.654
66668SOL     OW 1777   6.834   4.800  13.442
66668SOL    HW1 1778   6.780   4.867  13.483
66668SOL    HW2 1779   6.833   4.822  13.349
66669SOL     OW 1780  14.351  12.339   2.371
66669SOL    HW1 1781  14.430  12.355   2.318
66669SOL    HW2 1782  14.346  12.415   2.429
66670SOL     OW 1783   0.079   4.526   1.678
66670SOL    HW1 1784   0.042   4.501   1.763
66670SOL    HW2 1785   0.148   4.588   1.699
66671SOL     OW 1786   9.636   7.218   0.706
66671SOL    HW1 1787   9.547   7.184   0.722
66671SOL    HW2 1788   9.655   7.194   0.616
66672SOL     OW 1789   9.298  11.307  10.997
66672SOL    HW1 1790   9.302  11.339  11.087
66672SOL    HW2 1791   9.272  11.384  10.946
66673SOL     OW 1792   3.167   4.848  12.617
66673SOL    HW1 1793   3.147   4.788  12.545
66673SOL    HW2 1794   3.089   4.902  12.626
66674SOL     OW 1795   4.388   1.595  13.337
66674SOL    HW1 1796   4.462   1.614  13.394
66674SOL    HW2 1797   4.403   1.505  13.307
66675SOL     OW 1798  14.639   0.489  10.717
66675SOL    HW1 1799  14.693   0.545  10.772
66675SOL    HW2 1800  14.590   0.435  10.778
66676SOL     OW 1801  13.316   2.957   2.301
66676SOL    HW1 1802  13.345   3.019   2.234
66676SOL    HW2 1803  13.341   2.999   2.384
66677SOL     OW 1804  13.207  11.054   3.822
66677SOL    HW1 1805  13.174  11.107   3.749
66677SOL    HW2 1806  13.136  11.054   3.886
66678SOL     OW 1807  12.214   9.362   6.393
66678SOL    HW1 1808  12.269   9.287   6.417
66678SOL    HW2 1809  12.159   9.329   6.321
66679SOL     OW 1810   1.690   8.888   3.588
66679SOL    HW1 1811   1.609   8.911   3.634
66679SOL    HW2 1812   1.704   8.960   3.527
66680SOL     OW 1813   7.947   6.749   5.928
66680SOL    HW1 1814   8.028   6.699   5.915
66680SOL    HW2 1815   7.879   6.683   5.934
66681SOL     OW 1816   9.613   0.606  10.782
66681SOL    HW1 1817   9.707   0.613  10.799
66681SOL    HW2 1818   9.590   0.690  10.741
66682SOL     OW 1819  12.060   8.818   8.338
66682SOL    HW1 1820  12.035   8.727   8.354
66682SOL    HW2 1821  12.153   8.822   8.363
66683SOL     OW 1822   6.514   2.137   8.949
66683SOL    HW1 1823   6.446   2.203   8.935
66683SOL    HW2 1824   6.588   2.168   8.897
66684SOL     OW 1825  11.173   7.140   6.759
66684SOL    HW1 1826  11.191   7.204   6.690
66684SOL    HW2 1827  11.222   7.172   6.835
66685SOL     OW 1828   5.601   4.171   1.605
66685SOL    HW1 1829   5.589   4.105   1.673
66685SOL    HW2 1830   5.642   4.245   1.650
66686SOL     OW 1831   3.582  10.437   5.563
66686SOL    HW1 1832   3.549  10.527   5.564
66686SOL    HW2 1833   3.509  10.385   5.531
66687SOL     OW 1834   1.777  12.460  11.483
66687SOL    HW1 1835   1.683  12.444  11.480
66687SOL    HW2 1836   1.791  12.532  11.422
66688SOL     OW 1837   2.259   1.506   2.267
66688SOL    HW1 1838   2.327   1.443   2.292
66688SOL    HW2 1839   2.223   1.536   2.351
66689SOL     OW 1840   7.096   0.652   8.755
66689SOL    HW1 1841   7.183   0.651   8.716
66689SOL    HW2 1842   7.075   0.559   8.768
66690SOL     OW 1843   9.340   4.290   2.113
66690SOL    HW1 1844   9.319   4.202   2.080
66690SOL    HW2 1845   9.432   4.285   2.138
66691SOL     OW 1846   3.858   6.016   2.202
66691SOL    HW1 1847   3.920   6.089   2.194
66691SOL    HW2 1848   3.777   6.056   2.233
66692SOL     OW 1849   7.413   5.345   3.720
66692SOL    HW1 1850   7.335   5.373   3.769
66692SOL    HW2 1851   7.388   5.262   3.681
66693SOL     OW 1852   6.778  14.565  12.193
66693SOL    HW1 1853   6.842  14.594  12.129
66693SOL    HW2 1854   6.829  14.545  12.271
66694SOL     OW 1855   8.357   8.022   3.736
66694SOL    HW1 1856   8.444   8.051   3.709
66694SOL    HW2 1857   8.296   8.072   3.682
66695SOL     OW 1858  10.607   9.210  12.562
66695SOL    HW1 1859  10.672   9.277  12.582
66695SOL    HW2 1860  10.529   9.259  12.535
66696SOL     OW 1861  14.398  11.816   3.698
66696SOL    HW1 1862  14.410  11.746   3.762
66696SOL    HW2 1863  14.479  11.813   3.645
66697SOL     OW 1864   3.312   9.234   3.999
66697SOL    HW1 1865   3.252   9.206   3.930
66697SOL    HW2 1866   3.374   9.162   4.007
66698SOL     OW 1867  14.217   6.720  14.772
66698SOL    HW1 1868  14.123   6.734  14.760
66698SOL    HW2 1869  14.234   6.636  14.729
66699SOL     OW 1870   5.913  12.913  13.537
66699SOL    HW1 1871   5.906  12.834  13.591
66699SOL    HW2 1872   5.849  12.900  13.467
66700SOL     OW 1873  12.654  12.526  12.743
66700SOL    HW1 1874  12.567  12.563  12.759
66700SOL    HW2 1875  12.646  12.434  12.768
66701SOL     OW 1876   1.779   0.629   0.369
66701SOL    HW1 1877   1.865   0.638   0.409
66701SOL    HW2 1878   1.785   0.549   0.316
66702SOL     OW 1879  11.597  14.854  10.822
66702SOL    HW1 1880  11.525  14.827  10.764
66702SOL    HW2 1881  11.621  14.774  10.868
66703SOL     OW 1882  10.050   3.584   0.448
66703SOL    HW1 1883  10.030   3.493   0.473
66703SOL    HW2 1884  10.096   3.576   0.365
66704SOL     OW 1885  13.651   1.381   0.347
66704SOL    HW1 1886  13.709   1.425   0.409
66704SOL    HW2 1887  13.601   1.319   0.401
66705SOL     OW 1888   2.543  11.185   5.452
66705SOL    HW1 1889   2.559  11.126   5.378
66705SOL    HW2 1890   2.630  11.197   5.491
66706SOL     OW 1891   9.284  10.136  13.474
66706SOL    HW1 1892   9.265  10.079  13.399
66706SOL    HW2 1893   9.368  10.177  13.452
66707SOL     OW 1894   0.189   3.220  13.018
66707SOL    HW1 1895   0.283   3.207  13.023
66707SOL    HW2 1896   0.152   3.132  13.022
66708SOL     OW 1897   5.058   9.430  13.547
66708SOL    HW1 1898   4.981   9.379  13.573
66708SOL    HW2 1899   5.087   9.390  13.465
66709SOL     OW 1900   1.908   1.424   1.861
66709SOL    HW1 1901   1.978   1.371   1.900
66709SOL    HW2 1902   1.834   1.364   1.852
66710SOL     OW 1903   0.659   6.491   3.638
66710SOL    HW1 1904   0.588   6.455   3.690
66710SOL    HW2 1905   0.707   6.548   3.698
66711SOL     OW 1906   8.747   2.164   0.285
66711SOL    HW1 1907   8.764   2.255   0.308
66711SOL    HW2 1908   8.781   2.114   0.359
66712SOL     OW 1909  14.826   4.287   1.176
66712SOL    HW1 1910  14.788   4.319   1.094
66712SOL    HW2 1911  14.837   4.193   1.162
66713SOL     OW 1912  12.372   0.554   4.362
66713SOL    HW1 1913  12.290   0.520   4.327
66713SOL    HW2 1914  12.357   0.563   4.455
66714SOL     OW 1915   7.089  13.975   3.783
66714SOL    HW1 1916   7.060  13.884   3.791
66714SOL    HW2 1917   7.025  14.025   3.834
66715SOL     OW 1918  12.779  14.270  11.317
66715SOL    HW1 1919  12.848  14.294  11.380
66715SOL    HW2 1920  12.735  14.196  11.359
66716SOL     OW 1921  14.325  12.675   7.370
66716SOL    HW1 1922  14.408  12.722   7.360
66716SOL    HW2 1923  14.349  12.593   7.413
66717SOL     OW 1924  10.756   3.348   2.603
66717SOL    HW1 1925  10.730   3.427   2.650
66717SOL    HW2 1926  10.683   3.332   2.542
66718SOL     OW 1927  11.093  11.499  12.304
66718SOL    HW1 1928  11.167  11.444  12.329
66718SOL    HW2 1929  11.015  11.448  12.328
66719SOL     OW 1930  11.695   0.958  14.365
66719SOL    HW1 1931  11.664   1.036  14.319
66719SOL    HW2 1932  11.657   0.885  14.316
66720SOL     OW 1933   6.659  12.297  12.733
66720SOL    HW1 1934   6.622  12.326  12.817
66720SOL    HW2 1935   6.742  12.255  12.757
66721SOL     OW 1936  14.629  14.744   9.160
66721SOL    HW1 1937  14.560  14.766   9.098
66721SOL    HW2 1938  14.693  14.815   9.151
66722SOL     OW 1939   4.374   2.934   7.665
66722SOL    HW1 1940   4.299   2.955   7.609
66722SOL    HW2 1941   4.420   3.018   7.674
66723SOL     OW 1942   0.466   8.557  14.222
66723SOL    HW1 1943   0.409   8.480  14.226
66723SOL    HW2 1944   0.406   8.631  14.232
66724SOL     OW 1945   7.292  11.987  11.508
66724SOL    HW1 1946   7.382  12.015  11.522
66724SOL    HW2 1947   7.241  12.039  11.570
66725SOL     OW 1948   4.349   8.977   2.739
66725SOL    HW1 1949   4.306   8.969   2.654
66725SOL    HW2 1950   4.288   9.026   2.793
66726SOL     OW 1951  14.707   4.230   7.108
66726SOL    HW1 1952  14.657   4.175   7.168
66726SOL    HW2 1953  14.641   4.282   7.062
66727SOL     OW 1954   6.572   4.832  11.101
66727SOL    HW1 1955   6.531   4.767  11.044
66727SOL    HW2 1956   6.654   4.854  11.057
66728SOL     OW 1957   8.684   7.497   5.900
66728SOL    HW1 1958   8.706   7.544   5.981
66728SOL    HW2 1959   8.591   7.516   5.886
66729SOL     OW 1960   7.372  13.685   7.760
66729SOL    HW1 1961   7.413  13.769   7.739
66729SOL    HW2 1962   7.302  13.676   7.696
66730SOL     OW 1963  11.376   7.310   3.859
66730SOL    HW1 1964  11.376   7.391   3.808
66730SOL    HW2 1965  11.452   7.318   3.917
66731SOL     OW 1966   5.374   2.321   0.817
66731SOL    HW1 1967   5.441   2.375   0.860
66731SOL    HW2 1968   5.363   2.246   0.875
66732SOL     OW 1969  10.712   5.161   2.023
66732SOL    HW1 1970  10.655   5.086   2.040
66732SOL    HW2 1971  10.663   5.214   1.961
66733SOL     OW 1972  13.068  12.296  10.987
66733SOL    HW1 1973  13.096  12.226  11.046
66733SOL    HW2 1974  12.973  12.285  10.979
66734SOL     OW 1975   1.832   7.840  10.233
66734SOL    HW1 1976   1.884   7.781  10.179
66734SOL    HW2 1977   1.893   7.908  10.261
66735SOL     OW 1978   7.175   3.362   8.229
66735SOL    HW1 1979   7.153   3.283   8.277
66735SOL    HW2 1980   7.177   3.335   8.137
66736SOL     OW 1981   3.593  12.476  12.127
66736SOL    HW1 1982   3.521  12.433  12.081
66736SOL    HW2 1983   3.640  12.523  12.058
66737SOL     OW 1984  10.229   1.358   0.098
66737SOL    HW1 1985  10.165   1.302   0.055
66737SOL    HW2 1986  10.199   1.448   0.080
66738SOL     OW 1987   7.697   7.033   5.275
66738SOL    HW1 1988   7.630   7.037   5.344
66738SOL    HW2 1989   7.774   7.074   5.314
66739SOL     OW 1990   9.843   8.053  10.880
66739SOL    HW1 1991   9.819   8.048  10.973
66739SOL    HW2 1992   9.760   8.041  10.834
66740SOL     OW 1993   6.089   0.728   5.899
66740SOL    HW1 1994   6.143   0.649   5.892
66740SOL    HW2 1995   6.128   0.790   5.837
66741SOL     OW 1996   1.294  11.148   9.070
66741SOL    HW1 1997   1.262  11.133   8.981
66741SOL    HW2 1998   1.236  11.214   9.106
66742SOL     OW 1999   7.525   2.605   9.267
66742SOL    HW1 2000   7.518   2.641   9.355
66742SOL    HW2 2001   7.459   2.536   9.264
66743SOL     OW 2002   6.994  13.223   6.972
66743SOL    HW1 2003   6.965  13.161   7.039
66743SOL    HW2 2004   6.925  13.290   6.970
66744SOL     OW 2005   3.841   2.984  13.615
66744SOL    HW1 2006   3.926   2.997  13.656
66744SOL    HW2 2007   3.850   2.903  13.564
66745SOL     OW 2008  10.088  11.940   2.186
66745SOL    HW1 2009  10.096  11.912   2.277
66745SOL    HW2 2010  10.050  11.864   2.141
66746SOL     OW 2011   4.307   4.781   4.810
66746SOL    HW1 2012   4.346   4.856   4.766
66746SOL    HW2 2013   4.277   4.725   4.739
66747SOL     OW 2014  14.705   6.937  13.690
66747SOL    HW1 2015  14.693   6.997  13.763
66747SOL    HW2 2016  14.767   6.982  13.632
66748SOL     OW 2017  14.001   0.529   4.677
66748SOL    HW1 2018  13.940   0.492   4.613
66748SOL    HW2 2019  14.066   0.575   4.623
66749SOL     OW 2020   5.948   7.965  13.583
66749SOL    HW1 2021   5.992   7.997  13.661
66749SOL    HW2 2022   5.859   8.000  13.589
66750SOL     OW 2023   1.079  11.498  13.297
66750SOL    HW1 2024   1.023  11.561  13.342
66750SOL    HW2 2025   1.129  11.456  13.367
66751SOL     OW 2026   3.152   9.661   0.995
66751SOL    HW1 2027   3.218   9.637   1.060
66751SOL    HW2 2028   3.084   9.594   1.005
66752SOL     OW 2029   3.326   9.209   5.695
66752SOL    HW1 2030   3.235   9.188   5.673
66752SOL    HW2 2031   3.343   9.159   5.775
66753SOL     OW 2032   7.316   2.947  13.428
66753SOL    HW1 2033   7.388   2.944  13.365
66753SOL    HW2 2034   7.331   3.028  13.477
66754SOL     OW 2035  14.018  13.965   0.101
66754SOL    HW1 2036  14.020  14.058   0.079
66754SOL    HW2 2037  13.977  13.923   0.025
66755SOL     OW 2038   0.911  14.092   8.067
66755SOL    HW1 2039   0.965  14.080   7.989
66755SOL    HW2 2040   0.972  14.083   8.140
66756SOL     OW 2041   9.462   4.683   2.578
66756SOL    HW1 2042   9.491   4.652   2.493
66756SOL    HW2 2043   9.367   4.667   2.579
66757SOL     OW 2044   4.844   3.505   7.545
66757SOL    HW1 2045   4.873   3.553   7.468
66757SOL    HW2 2046   4.924   3.489   7.596
66758SOL     OW 2047   3.918  10.427   7.177
66758SOL    HW1 2048   3.998  10.385   7.211
66758SOL    HW2 2049   3.849  10.398   7.237
66759SOL     OW 2050  13.843   5.564   9.047
66759SOL    HW1 2051  13.857   5.551   8.953
66759SOL    HW2 2052  13.903   5.635   9.071
66760SOL     OW 2053   9.527  12.008   2.742
66760SOL    HW1 2054   9.584  12.000   2.666
66760SOL    HW2 2055   9.467  11.933   2.735
66761SOL     OW 2056  13.885   9.782  13.718
66761SOL    HW1 2057  13.862   9.790  13.811
66761SOL    HW2 2058  13.800   9.783  13.672
66762SOL     OW 2059   2.765   3.473   4.538
66762SOL    HW1 2060   2.670   3.462   4.544
66762SOL    HW2 2061   2.778   3.529   4.461
66763SOL     OW 2062   4.567  10.115   1.981
66763SOL    HW1 2063   4.644  10.087   1.932
66763SOL    HW2 2064   4.515  10.164   1.917
66764SOL     OW 2065  13.884   8.721   9.246
66764SOL    HW1 2066  13.822   8.654   9.274
66764SOL    HW2 2067  13.831   8.784   9.197
66765SOL     OW 2068   5.865   5.127   9.582
66765SOL    HW1 2069   5.947   5.148   9.539
66765SOL    HW2 2070   5.843   5.205   9.633
66766SOL     OW 2071   9.394   7.754   7.249
66766SOL    HW1 2072   9.458   7.817   7.215
66766SOL    HW2 2073   9.328   7.809   7.293
66767SOL     OW 2074  13.947   9.249   7.029
66767SOL    HW1 2075  13.969   9.316   7.094
66767SOL    HW2 2076  13.851   9.250   7.024
66768SOL     OW 2077   2.992   5.328  12.958
66768SOL    HW1 2078   3.082   5.304  12.981
66768SOL    HW2 2079   2.991   5.332  12.863
66769SOL     OW 2080  13.538   6.799   0.179
66769SOL    HW1 2081  13.449   6.766   0.167
66769SOL    HW2 2082  13.545   6.871   0.116
66770SOL     OW 2083  14.872   2.223   7.929
66770SOL    HW1 2084   0.043   2.211   7.847
66770SOL    HW2 2085  14.789   2.262   7.901
66771SOL     OW 2086   4.657   8.369  12.905
66771SOL    HW1 2087   4.570   8.343  12.877
66771SOL    HW2 2088   4.674   8.451  12.858
66772SOL     OW 2089   7.590   0.378   6.690
66772SOL    HW1 2090   7.642   0.339   6.620
66772SOL    HW2 2091   7.653   0.397   6.760
66773SOL     OW 2092  14.479   6.177  13.282
66773SOL    HW1 2093  14.391   6.183  13.320
66773SOL    HW2 2094  14.484   6.252  13.223
66774SOL     OW 2095   7.072  13.538  11.265
66774SOL    HW1 2096   7.037  13.487  11.192
66774SOL    HW2 2097   7.147  13.488  11.295
66775SOL     OW 2098  12.119   7.820   2.145
66775SOL    HW1 2099  12.039   7.812   2.198
66775SOL    HW2 2100  12.126   7.736   2.100
66776SOL     OW 2101   9.988   4.400   0.848
66776SOL    HW1 2102  10.061   4.379   0.790
66776SOL    HW2 2103   9.997   4.340   0.922
66777SOL     OW 2104  13.328   5.291  10.913
66777SOL    HW1 2105  13.337   5.315  10.821
66777SOL    HW2 2106  13.269   5.358  10.950
66778SOL     OW 2107   9.695  13.178   0.711
66778SOL    HW1 2108   9.599  13.181   0.708
66778SOL    HW2 2109   9.715  13.134   0.794
66779SOL     OW 2110  14.191  12.973   3.046
66779SOL    HW1 2111  14.191  12.964   3.141
66779SOL    HW2 2112  14.107  13.015   3.026
66780SOL     OW 2113   6.676   9.199  14.074
66780SOL    HW1 2114   6.683   9.205  13.979
66780SOL    HW2 2115   6.723   9.277  14.106
66781SOL     OW 2116   5.375  14.676  14.161
66781SOL    HW1 2117   5.380  14.583  14.183
66781SOL    HW2 2118   5.430  14.718  14.227
66782SOL     OW 2119   1.420   0.073   7.194
66782SOL    HW1 2120   1.440   0.158   7.234
66782SOL    HW2 2121   1.441   0.085   7.102
66783SOL     OW 2122   8.501   7.867  14.385
66783SOL    HW1 2123   8.520   7.813  14.462
66783SOL    HW2 2124   8.569   7.842  14.321
66784SOL     OW 2125   2.886   9.617   5.760
66784SOL    HW1 2126   2.905   9.524   5.761
66784SOL    HW2 2127   2.934   9.653   5.835
66785SOL     OW 2128  10.953   2.568   1.099
66785SOL    HW1 2129  11.031   2.606   1.141
66785SOL    HW2 2130  10.881   2.593   1.157
66786SOL     OW 2131   1.647   2.649  11.221
66786SOL    HW1 2132   1.683   2.645  11.132
66786SOL    HW2 2133   1.554   2.668  11.207
66787SOL     OW 2134  14.615  13.067  14.726
66787SOL    HW1 2135  14.626  13.108  14.812
66787SOL    HW2 2136  14.693  13.093  14.677
66788SOL     OW 2137   4.593  11.531   0.857
66788SOL    HW1 2138   4.617  11.475   0.783
66788SOL    HW2 2139   4.674  11.542   0.907
66789SOL     OW 2140   2.502   8.813   7.852
66789SOL    HW1 2141   2.445   8.745   7.817
66789SOL    HW2 2142   2.587   8.795   7.813
66790SOL     OW 2143   3.400   8.715   6.858
66790SOL    HW1 2144   3.340   8.704   6.784
66790SOL    HW2 2145   3.365   8.659   6.927
66791SOL     OW 2146   0.811  10.784   1.629
66791SOL    HW1 2147   0.899  10.791   1.666
66791SOL    HW2 2148   0.819  10.822   1.542
66792SOL     OW 2149   4.387   7.581  13.595
66792SOL    HW1 2150   4.432   7.663  13.575
66792SOL    HW2 2151   4.457   7.518  13.607
66793SOL     OW 2152   9.636   9.914  12.086
66793SOL    HW1 2153   9.624   9.845  12.150
66793SOL    HW2 2154   9.731   9.931  12.087
66794SOL     OW 2155   7.872   9.847   6.064
66794SOL    HW1 2156   7.838   9.934   6.044
66794SOL    HW2 2157   7.795   9.793   6.077
66795SOL     OW 2158  11.798   4.059   8.841
66795SOL    HW1 2159  11.719   4.109   8.820
66795SOL    HW2 2160  11.869   4.108   8.801
66796SOL     OW 2161   7.182  13.643   7.571
66796SOL    HW1 2162   7.161  13.643   7.477
66796SOL    HW2 2163   7.144  13.562   7.604
66797SOL     OW 2164  12.802  11.126   5.135
66797SOL    HW1 2165  12.839  11.210   5.107
66797SOL    HW2 2166  12.865  11.092   5.198
66798SOL     OW 2167   4.641   1.098  13.252
66798SOL    HW1 2168   4.680   1.020  13.214
66798SOL    HW2 2169   4.592   1.066  13.328
66799SOL     OW 2170  11.806  13.623  10.650
66799SOL    HW1 2171  11.761  13.591  10.572
66799SOL    HW2 2172  11.737  13.646  10.711
66800SOL     OW 2173   3.619  10.163  11.112
66800SOL    HW1 2174   3.660  10.146  11.197
66800SOL    HW2 2175   3.635  10.255  11.095
66801SOL     OW 2176  13.746  11.929   6.664
66801SOL    HW1 2177  13.674  11.874   6.695
66801SOL    HW2 2178  13.736  12.010   6.714
66802SOL     OW 2179   9.207   3.024   8.732
66802SOL    HW1 2180   9.296   2.997   8.713
66802SOL    HW2 2181   9.152   2.970   8.675
66803SOL     OW 2182  11.636   1.393   5.000
66803SOL    HW1 2183  11.600   1.355   5.080
66803SOL    HW2 2184  11.721   1.429   5.026
66804SOL     OW 2185  13.355   2.079   9.278
66804SOL    HW1 2186  13.450   2.077   9.289
66804SOL    HW2 2187  13.338   2.023   9.202
66805SOL     OW 2188   0.205   4.313  13.852
66805SOL    HW1 2189   0.293   4.289  13.880
66805SOL    HW2 2190   0.213   4.403  13.821
66806SOL     OW 2191   3.052   5.971   0.538
66806SOL    HW1 2192   3.086   5.901   0.593
66806SOL    HW2 2193   3.038   5.931   0.453
66807SOL     OW 2194  12.725  13.221   0.900
66807SOL    HW1 2195  12.657  13.224   0.832
66807SOL    HW2 2196  12.704  13.143   0.952
66808SOL     OW 2197  10.191   0.206   5.694
66808SOL    HW1 2198  10.213   0.120   5.658
66808SOL    HW2 2199  10.187   0.263   5.617
66809SOL     OW 2200   7.675  10.545   8.200
66809SOL    HW1 2201   7.586  10.547   8.164
66809SOL    HW2 2202   7.726  10.494   8.137
66810SOL     OW 2203  14.368   2.707   4.027
66810SOL    HW1 2204  14.291   2.760   4.006
66810SOL    HW2 2205  14.355   2.625   3.980
66811SOL     OW 2206   6.023   9.197   0.065
66811SOL    HW1 2207   6.088   9.180  14.874
66811SOL    HW2 2208   5.940   9.204   0.018
66812SOL     OW 2209  13.519   2.432  12.934
66812SOL    HW1 2210  13.606   2.431  12.974
66812SOL    HW2 2211  13.459   2.448  13.007
66813SOL     OW 2212   4.798  13.144   9.097
66813SOL    HW1 2213   4.865  13.212   9.100
66813SOL    HW2 2214   4.829  13.076   9.157
66814SOL     OW 2215  10.570   6.821   0.199
66814SOL    HW1 2216  10.550   6.788   0.112
66814SOL    HW2 2217  10.550   6.915   0.195
66815SOL     OW 2218   9.149  14.013   8.357
66815SOL    HW1 2219   9.214  14.083   8.362
66815SOL    HW2 2220   9.152  13.985   8.266
66816SOL     OW 2221  12.554   5.759  12.981
66816SOL    HW1 2222  12.574   5.850  12.960
66816SOL    HW2 2223  12.532   5.720  12.896
66817SOL     OW 2224   6.900   8.045   7.282
66817SOL    HW1 2225   6.822   8.027   7.334
66817SOL    HW2 2226   6.868   8.070   7.196
66818SOL     OW 2227  12.351   2.546   4.016
66818SOL    HW1 2228  12.280   2.481   4.012
66818SOL    HW2 2229  12.306   2.629   4.031
66819SOL     OW 2230  11.567  12.067  14.581
66819SOL    HW1 2231  11.613  11.984  14.567
66819SOL    HW2 2232  11.635  12.126  14.614
66820SOL     OW 2233   1.911  12.671  12.915
66820SOL    HW1 2234   1.961  12.590  12.905
66820SOL    HW2 2235   1.964  12.737  12.873
66821SOL     OW 2236   2.696  13.500   1.206
66821SOL    HW1 2237   2.746  13.582   1.207
66821SOL    HW2 2238   2.763  13.432   1.212
66822SOL     OW 2239   6.261   5.446  11.482
66822SOL    HW1 2240   6.277   5.511  11.413
66822SOL    HW2 2241   6.185   5.480  11.529
66823SOL     OW 2242   4.860  13.010   8.879
66823SOL    HW1 2243   4.910  13.067   8.821
66823SOL    HW2 2244   4.835  13.066   8.952
66824SOL     OW 2245   9.540  11.738   7.589
66824SOL    HW1 2246   9.578  11.783   7.513
66824SOL    HW2 2247   9.474  11.799   7.622
66825SOL     OW 2248   6.503   5.675   4.060
66825SOL    HW1 2249   6.430   5.736   4.045
66825SOL    HW2 2250   6.579   5.731   4.075
66826SOL     OW 2251   3.906   4.991   8.473
66826SOL    HW1 2252   3.950   5.033   8.399
66826SOL    HW2 2253   3.827   5.044   8.488
66827SOL     OW 2254   7.672  12.862   2.891
66827SOL    HW1 2255   7.737  12.926   2.860
66827SOL    HW2 2256   7.629  12.906   2.965
66828SOL     OW 2257  14.126   8.701   7.665
66828SOL    HW1 2258  14.140   8.608   7.647
66828SOL    HW2 2259  14.031   8.711   7.668
66829SOL     OW 2260   1.871   3.128   1.048
66829SOL    HW1 2261   1.834   3.132   0.959
66829SOL    HW2 2262   1.857   3.038   1.076
66830SOL     OW 2263   7.807   2.930  14.153
66830SOL    HW1 2264   7.742   2.925  14.223
66830SOL    HW2 2265   7.889   2.904  14.195
66831SOL     OW 2266   9.410   7.112   0.802
66831SOL    HW1 2267   9.408   7.019   0.823
66831SOL    HW2 2268   9.357   7.120   0.722
66832SOL     OW 2269  13.995  13.315   6.525
66832SOL    HW1 2270  13.938  13.343   6.597
66832SOL    HW2 2271  13.940  13.258   6.472
66833SOL     OW 2272   0.271  11.149  13.519
66833SOL    HW1 2273   0.217  11.195  13.582
66833SOL    HW2 2274   0.283  11.062  13.556
66834SOL     OW 2275   4.504  14.276   5.157
66834SOL    HW1 2276   4.471  14.191   5.186
66834SOL    HW2 2277   4.569  14.301   5.222
66835SOL     OW 2278   9.016   3.947   2.660
66835SOL    HW1 2279   8.957   3.981   2.728
66835SOL    HW2 2280   8.993   3.997   2.581
66836SOL     OW 2281   1.200   2.649   4.371
66836SOL    HW1 2282   1.266   2.585   4.400
66836SOL    HW2 2283   1.121   2.626   4.420
66837SOL     OW 2284  12.296   4.425   5.574
66837SOL    HW1 2285  12.390   4.411   5.587
66837SOL    HW2 2286  12.271   4.358   5.509
66838SOL     OW 2287   7.641   6.468  11.745
66838SOL    HW1 2288   7.652   6.455  11.651
66838SOL    HW2 2289   7.708   6.413  11.785
66839SOL     OW 2290  12.401   5.848  14.696
66839SOL    HW1 2291  12.447   5.900  14.630
66839SOL    HW2 2292  12.310   5.847  14.667
66840SOL     OW 2293   9.176   4.838   0.631
66840SOL    HW1 2294   9.182   4.864   0.539
66840SOL    HW2 2295   9.210   4.748   0.632
66841SOL     OW 2296   9.708  10.636   9.031
66841SOL    HW1 2297   9.711  10.718   8.982
66841SOL    HW2 2298   9.630  10.591   9.000
66842SOL     OW 2299   0.852   5.812   8.293
66842SOL    HW1 2300   0.837   5.818   8.199
66842SOL    HW2 2301   0.947   5.803   8.301
66843SOL     OW 2302   1.472  12.638   0.211
66843SOL    HW1 2303   1.411  12.602   0.275
66843SOL    HW2 2304   1.550  12.660   0.263
66844SOL     OW 2305   4.822  14.286   0.253
66844SOL    HW1 2306   4.847  14.264   0.163
66844SOL    HW2 2307   4.745  14.342   0.243
66845SOL     OW 2308  10.151   1.977  10.821
66845SOL    HW1 2309  10.102   1.900  10.850
66845SOL    HW2 2310  10.084   2.044  10.807
66846SOL     OW 2311   2.736   4.085   5.294
66846SOL    HW1 2312   2.801   4.023   5.261
66846SOL    HW2 2313   2.677   4.100   5.220
66847SOL     OW 2314  12.564  10.876   8.534
66847SOL    HW1 2315  12.548  10.828   8.453
66847SOL    HW2 2316  12.481  10.919   8.553
66848SOL     OW 2317   8.725  10.373   8.253
66848SOL    HW1 2318   8.783  10.326   8.193
66848SOL    HW2 2319   8.671  10.428   8.196
66849SOL     OW 2320   3.166  13.264   7.338
66849SOL    HW1 2321   3.190  13.232   7.425
66849SOL    HW2 2322   3.131  13.352   7.354
66850SOL     OW 2323  11.008   3.947   1.160
66850SOL    HW1 2324  10.919   3.912   1.165
66850SOL    HW2 2325  11.017   3.975   1.069
66851SOL     OW 2326   0.413   0.413   3.132
66851SOL    HW1 2327   0.407   0.506   3.152
66851SOL    HW2 2328   0.482   0.407   3.066
66852SOL     OW 2329   8.302   9.839  11.418
66852SOL    HW1 2330   8.209   9.823  11.399
66852SOL    HW2 2331   8.302   9.918  11.472
66853SOL     OW 2332   4.870   1.390   2.883
66853SOL    HW1 2333   4.948   1.445   2.874
66853SOL    HW2 2334   4.870   1.336   2.804
66854SOL     OW 2335   0.753  11.305  13.434
66854SOL    HW1 2336   0.825  11.252  13.468
66854SOL    HW2 2337   0.685  11.298  13.501
66855SOL     OW 2338   7.963  12.236   7.727
66855SOL    HW1 2339   8.053  12.230   7.757
66855SOL    HW2 2340   7.931  12.146   7.730
66856SOL     OW 2341   9.063  11.279   2.315
66856SOL    HW1 2342   9.123  11.211   2.285
66856SOL    HW2 2343   9.054  11.263   2.409
66857SOL     OW 2344   9.919  12.448   7.896
66857SOL    HW1 2345   9.970  12.386   7.843
66857SOL    HW2 2346   9.884  12.395   7.968
66858SOL     OW 2347  13.878   0.085  13.781
66858SOL    HW1 2348  13.948   0.101  13.717
66858SOL    HW2 2349  13.827   0.166  13.781
66859SOL     OW 2350   1.054   5.820  12.430
66859SOL    HW1 2351   0.976   5.873  12.415
66859SOL    HW2 2352   1.024   5.730  12.419
66860SOL     OW 2353   8.452   8.329   4.949
66860SOL    HW1 2354   8.510   8.258   4.975
66860SOL    HW2 2355   8.368   8.308   4.990
66861SOL     OW 2356   7.710   7.390   4.227
66861SOL    HW1 2357   7.754   7.460   4.275
66861SOL    HW2 2358   7.738   7.310   4.271
66862SOL     OW 2359   9.178   6.430  14.399
66862SOL    HW1 2360   9.100   6.475  14.433
66862SOL    HW2 2361   9.225   6.400  14.476
66863SOL     OW 2362  10.753  13.240   8.829
66863SOL    HW1 2363  10.688  13.223   8.761
66863SOL    HW2 2364  10.735  13.330   8.857
66864SOL     OW 2365   4.538   9.079  12.620
66864SOL    HW1 2366   4.561   9.146  12.684
66864SOL    HW2 2367   4.444   9.066  12.633
66865SOL     OW 2368   7.440   7.096   1.567
66865SOL    HW1 2369   7.372   7.153   1.532
66865SOL    HW2 2370   7.521   7.126   1.526
66866SOL     OW 2371   2.168   6.359  14.178
66866SOL    HW1 2372   2.191   6.444  14.215
66866SOL    HW2 2373   2.214   6.296  14.232
66867SOL     OW 2374  13.633  11.289   6.933
66867SOL    HW1 2375  13.671  11.201   6.929
66867SOL    HW2 2376  13.541  11.276   6.909
66868SOL     OW 2377   7.843  14.195   3.150
66868SOL    HW1 2378   7.856  14.228   3.062
66868SOL    HW2 2379   7.927  14.208   3.194
66869SOL     OW 2380   6.370   1.581   7.402
66869SOL    HW1 2381   6.378   1.607   7.310
66869SOL    HW2 2382   6.460   1.582   7.435
66870SOL     OW 2383   6.093   2.084  14.719
66870SOL    HW1 2384   6.147   2.159  14.694
66870SOL    HW2 2385   6.047   2.059  14.638
66871SOL     OW 2386  10.419  10.829   7.893
66871SOL    HW1 2387  10.404  10.813   7.799
66871SOL    HW2 2388  10.446  10.744   7.927
66872SOL     OW 2389   2.178   5.320   5.076
66872SOL    HW1 2390   2.139   5.384   5.017
66872SOL    HW2 2391   2.211   5.252   5.018
66873SOL     OW 2392   1.798   8.072  14.852
66873SOL    HW1 2393   1.824   8.138  14.787
66873SOL    HW2 2394   1.862   8.081   0.044
66874SOL     OW 2395  14.087   3.572   1.534
66874SOL    HW1 2396  14.069   3.504   1.469
66874SOL    HW2 2397  14.030   3.550   1.608
66875SOL     OW 2398   3.200   0.718  12.279
66875SOL    HW1 2399   3.254   0.785  12.322
66875SOL    HW2 2400   3.180   0.656  12.349
66876SOL     OW 2401   5.887  10.769   7.618
66876SOL    HW1 2402   5.930  10.798   7.538
66876SOL    HW2 2403   5.793  10.780   7.600
66877SOL     OW 2404   6.268   8.421   7.572
66877SOL    HW1 2405   6.248   8.356   7.639
66877SOL    HW2 2406   6.323   8.374   7.509
66878SOL     OW 2407  12.277   1.171  11.136
66878SOL    HW1 2408  12.313   1.150  11.050
66878SOL    HW2 2409  12.276   1.088  11.183
66879SOL     OW 2410   3.961   7.657   9.628
66879SOL    HW1 2411   3.922   7.710   9.698
66879SOL    HW2 2412   4.053   7.651   9.651
66880SOL     OW 2413   8.446   4.743   0.976
66880SOL    HW1 2414   8.351   4.736   0.971
66880SOL    HW2 2415   8.472   4.780   0.892
66881SOL     OW 2416   7.870   2.880   6.707
66881SOL    HW1 2417   7.789   2.919   6.675
66881SOL    HW2 2418   7.865   2.888   6.803
66882SOL     OW 2419  13.634   2.081  12.878
66882SOL    HW1 2420  13.702   2.132  12.835
66882SOL    HW2 2421  13.552   2.120  12.849
66883SOL     OW 2422  12.100  10.567   4.453
66883SOL    HW1 2423  12.149  10.487   4.434
66883SOL    HW2 2424  12.072  10.599   4.368
66884SOL     OW 2425   4.230  14.136   4.963
66884SOL    HW1 2426   4.233  14.136   5.058
66884SOL    HW2 2427   4.142  14.168   4.942
66885SOL     OW 2428  13.838   0.778   3.452
66885SOL    HW1 2429  13.905   0.807   3.513
66885SOL    HW2 2430  13.844   0.682   3.453
66886SOL     OW 2431  13.580  14.336   7.795
66886SOL    HW1 2432  13.529  14.363   7.719
66886SOL    HW2 2433  13.619  14.253   7.770
66887SOL     OW 2434   8.989   6.566   4.272
66887SOL    HW1 2435   9.050   6.516   4.325
66887SOL    HW2 2436   9.014   6.657   4.285
66888SOL     OW 2437   9.074   6.614   2.965
66888SOL    HW1 2438   9.004   6.679   2.968
66888SOL    HW2 2439   9.063   6.570   2.881
66889SOL     OW 2440   7.555  13.835   8.916
66889SOL    HW1 2441   7.611  13.843   8.993
66889SOL    HW2 2442   7.574  13.748   8.881
66890SOL     OW 2443  13.902   3.334  10.774
66890SOL    HW1 2444  13.861   3.382  10.846
66890SOL    HW2 2445  13.948   3.401  10.724
66891SOL     OW 2446   3.603  14.686   9.889
66891SOL    HW1 2447   3.558  14.658   9.969
66891SOL    HW2 2448   3.623  14.778   9.904
66892SOL     OW 2449   6.441  12.826   8.210
66892SOL    HW1 2450   6.455  12.735   8.185
66892SOL    HW2 2451   6.515  12.873   8.173
66893SOL     OW 2452   3.241   1.596  13.725
66893SOL    HW1 2453   3.256   1.562  13.637
66893SOL    HW2 2454   3.283   1.682  13.725
66894SOL     OW 2455   0.706  10.240   6.111
66894SOL    HW1 2456   0.633  10.179   6.116
66894SOL    HW2 2457   0.668  10.325   6.133
66895SOL     OW 2458  11.893   6.149   0.507
66895SOL    HW1 2459  11.893   6.070   0.561
66895SOL    HW2 2460  11.803   6.157   0.477
66896SOL     OW 2461  13.291   4.198  14.536
66896SOL    HW1 2462  13.368   4.178  14.483
66896SOL    HW2 2463  13.220   4.150  14.493
66897SOL     OW 2464   0.051   3.413   5.841
66897SOL    HW1 2465   0.139   3.392   5.873
66897SOL    HW2 2466   0.065   3.451   5.755
66898SOL     OW 2467  12.147   1.522   9.813
66898SOL    HW1 2468  12.179   1.581   9.745
66898SOL    HW2 2469  12.065   1.487   9.779
66899SOL     OW 2470   1.709   0.477  12.854
66899SOL    HW1 2471   1.696   0.483  12.760
66899SOL    HW2 2472   1.628   0.439  12.887
66900SOL     OW 2473   0.805  12.283  11.527
66900SOL    HW1 2474   0.842  12.369  11.546
66900SOL    HW2 2475   0.842  12.225  11.594
66901SOL     OW 2476  10.224   3.294   0.167
66901SOL    HW1 2477  10.277   3.217   0.186
66901SOL    HW2 2478  10.136   3.259   0.150
66902SOL     OW 2479   1.942  13.313   7.944
66902SOL    HW1 2480   1.999  13.270   7.880
66902SOL    HW2 2481   1.854  13.302   7.910
66903SOL     OW 2482  13.332   0.641   2.365
66903SOL    HW1 2483  13.321   0.715   2.425
66903SOL    HW2 2484  13.243   0.617   2.339
66904SOL     OW 2485  13.196   9.365   2.612
66904SOL    HW1 2486  13.130   9.400   2.672
66904SOL    HW2 2487  13.193   9.423   2.536
66905SOL     OW 2488   5.796   2.746  11.311
66905SOL    HW1 2489   5.741   2.819  11.339
66905SOL    HW2 2490   5.747   2.668  11.335
66906SOL     OW 2491   2.635   8.750  12.176
66906SOL    HW1 2492   2.661   8.772  12.087
66906SOL    HW2 2493   2.613   8.657  12.172
66907SOL     OW 2494   6.492  14.804   9.410
66907SOL    HW1 2495   6.500  14.731   9.472
66907SOL    HW2 2496   6.578  14.846   9.410
66908SOL     OW 2497   2.766   5.425  12.096
66908SOL    HW1 2498   2.798   5.350  12.145
66908SOL    HW2 2499   2.689   5.455  12.144
66909SOL     OW 2500   9.002   4.894  13.968
66909SOL    HW1 2501   8.929   4.880  14.028
66909SOL    HW2 2502   8.963   4.933  13.890
66910SOL     OW 2503   4.184   3.846   0.058
66910SOL    HW1 2504   4.157   3.758   0.032
66910SOL    HW2 2505   4.228   3.834   0.142
66911SOL     OW 2506   2.018  12.080  14.290
66911SOL    HW1 2507   1.958  12.010  14.314
66911SOL    HW2 2508   2.058  12.107  14.374
66912SOL     OW 2509   9.090   4.301   6.035
66912SOL    HW1 2510   9.088   4.392   6.066
66912SOL    HW2 2511   9.183   4.279   6.033
66913SOL     OW 2512   4.709   9.167   1.088
66913SOL    HW1 2513   4.787   9.130   1.128
66913SOL    HW2 2514   4.636   9.130   1.138
66914SOL     OW 2515   5.526   0.951   1.595
66914SOL    HW1 2516   5.475   1.032   1.599
66914SOL    HW2 2517   5.603   0.973   1.541
66915SOL     OW 2518  10.359   8.064   1.723
66915SOL    HW1 2519  10.361   8.055   1.818
66915SOL    HW2 2520  10.417   7.995   1.691
66916SOL     OW 2521   7.516  12.038  11.833
66916SOL    HW1 2522   7.532  12.108  11.770
66916SOL    HW2 2523   7.576  11.969  11.808
66917SOL     OW 2524   2.882   0.392   4.928
66917SOL    HW1 2525   2.904   0.485   4.917
66917SOL    HW2 2526   2.952   0.357   4.983
66918SOL     OW 2527   4.678   3.741  12.849
66918SOL    HW1 2528   4.727   3.809  12.895
66918SOL    HW2 2529   4.591   3.779  12.836
66919SOL     OW 2530   4.791   0.569  12.664
66919SOL    HW1 2531   4.823   0.524  12.585
66919SOL    HW2 2532   4.727   0.632  12.631
66920SOL     OW 2533   6.538  14.429  10.316
66920SOL    HW1 2534   6.592  14.390  10.248
66920SOL    HW2 2535   6.594  14.432  10.393
66921SOL     OW 2536   7.744   2.162  11.338
66921SOL    HW1 2537   7.718   2.086  11.390
66921SOL    HW2 2538   7.770   2.125  11.254
66922SOL     OW 2539  13.125  12.822   9.827
66922SOL    HW1 2540  13.030  12.823   9.834
66922SOL    HW2 2541  13.151  12.735   9.857
66923SOL     OW 2542  10.997  13.881  13.530
66923SOL    HW1 2543  10.911  13.856  13.497
66923SOL    HW2 2544  10.989  13.875  13.625
66924SOL     OW 2545   8.177   5.594   7.171
66924SOL    HW1 2546   8.271   5.579   7.175
66924SOL    HW2 2547   8.146   5.535   7.102
66925SOL     OW 2548  14.742   6.159  10.815
66925SOL    HW1 2549  14.758   6.197  10.729
66925SOL    HW2 2550  14.809   6.092  10.825
66926SOL     OW 2551  11.912   8.244   4.300
66926SOL    HW1 2552  11.935   8.322   4.350
66926SOL    HW2 2553  11.966   8.175   4.337
66927SOL     OW 2554   4.747   0.192  10.358
66927SOL    HW1 2555   4.660   0.155  10.345
66927SOL    HW2 2556   4.807   0.121  10.335
66928SOL     OW 2557   1.881   0.828   3.379
66928SOL    HW1 2558   1.869   0.789   3.292
66928SOL    HW2 2559   1.943   0.770   3.423
66929SOL     OW 2560   6.705  13.425   6.935
66929SOL    HW1 2561   6.758  13.495   6.974
66929SOL    HW2 2562   6.667  13.465   6.857
66930SOL     OW 2563   5.395  14.138   1.119
66930SOL    HW1 2564   5.360  14.052   1.095
66930SOL    HW2 2565   5.456  14.119   1.191
66931SOL     OW 2566   8.632   8.135   3.723
66931SOL    HW1 2567   8.678   8.057   3.753
66931SOL    HW2 2568   8.673   8.157   3.640
66932SOL     OW 2569  13.188  11.986   9.843
66932SOL    HW1 2570  13.146  12.062   9.882
66932SOL    HW2 2571  13.282  11.998   9.859
66933SOL     OW 2572  11.541  12.329  10.126
66933SOL    HW1 2573  11.479  12.304  10.194
66933SOL    HW2 2574  11.488  12.378  10.062
66934SOL     OW 2575   7.980   7.415  10.039
66934SOL    HW1 2576   7.950   7.502  10.012
66934SOL    HW2 2577   7.981   7.365   9.957
66935SOL     OW 2578  13.932   5.505  12.432
66935SOL    HW1 2579  14.027   5.503  12.416
66935SOL    HW2 2580  13.910   5.415  12.456
66936SOL     OW 2581  12.419   2.454  14.699
66936SOL    HW1 2582  12.405   2.393  14.626
66936SOL    HW2 2583  12.359   2.527  14.681
66937SOL     OW 2584   8.918  10.520   4.137
66937SOL    HW1 2585   8.995  10.464   4.143
66937SOL    HW2 2586   8.943  10.601   4.182
66938SOL     OW 2587   5.263   5.111   2.194
66938SOL    HW1 2588   5.227   5.023   2.210
66938SOL    HW2 2589   5.357   5.098   2.195
66939SOL     OW 2590  12.198   8.443   4.276
66939SOL    HW1 2591  12.280   8.398   4.296
66939SOL    HW2 2592  12.175   8.414   4.187
66940SOL     OW 2593   3.467   8.079   4.722
66940SOL    HW1 2594   3.553   8.103   4.757
66940SOL    HW2 2595   3.483   7.999   4.673
66941SOL     OW 2596   3.978   2.168   9.406
66941SOL    HW1 2597   4.009   2.248   9.449
66941SOL    HW2 2598   3.893   2.151   9.447
66942SOL     OW 2599   9.204  11.274  12.007
66942SOL    HW1 2600   9.228  11.313  12.091
66942SOL    HW2 2601   9.202  11.180  12.024
66943SOL     OW 2602   6.877  10.286   1.728
66943SOL    HW1 2603   6.820  10.246   1.794
66943SOL    HW2 2604   6.851  10.245   1.645
66944SOL     OW 2605  12.791   1.559   6.893
66944SOL    HW1 2606  12.856   1.627   6.911
66944SOL    HW2 2607  12.707   1.602   6.909
66945SOL     OW 2608   4.438  14.339   3.681
66945SOL    HW1 2609   4.347  14.359   3.702
66945SOL    HW2 2610   4.477  14.424   3.661
66946SOL     OW 2611  13.128   7.056   8.907
66946SOL    HW1 2612  13.147   6.984   8.967
66946SOL    HW2 2613  13.077   7.016   8.837
66947SOL     OW 2614   9.597   3.466   5.191
66947SOL    HW1 2615   9.575   3.398   5.255
66947SOL    HW2 2616   9.692   3.471   5.194
66948SOL     OW 2617   2.421   4.730   9.159
66948SOL    HW1 2618   2.381   4.805   9.115
66948SOL    HW2 2619   2.506   4.763   9.189
66949SOL     OW 2620  12.886   1.174   9.510
66949SOL    HW1 2621  12.879   1.151   9.602
66949SOL    HW2 2622  12.797   1.193   9.482
66950SOL     OW 2623   6.642   8.075  10.229
66950SOL    HW1 2624   6.677   8.003  10.176
66950SOL    HW2 2625   6.717   8.106  10.281
66951SOL     OW 2626   3.974   6.496   9.379
66951SOL    HW1 2627   3.999   6.482   9.470
66951SOL    HW2 2628   3.973   6.591   9.368
66952SOL     OW 2629   4.197   9.609   1.601
66952SOL    HW1 2630   4.147   9.528   1.617
66952SOL    HW2 2631   4.162   9.672   1.663
66953SOL     OW 2632   5.682  11.663   5.600
66953SOL    HW1 2633   5.688  11.701   5.513
66953SOL    HW2 2634   5.695  11.569   5.586
66954SOL     OW 2635  10.242   1.747  12.275
66954SOL    HW1 2636  10.235   1.827  12.223
66954SOL    HW2 2637  10.165   1.747  12.331
66955SOL     OW 2638  11.614   0.208   4.465
66955SOL    HW1 2639  11.701   0.177   4.488
66955SOL    HW2 2640  11.574   0.135   4.418
66956SOL     OW 2641   2.278   3.244   3.632
66956SOL    HW1 2642   2.266   3.322   3.578
66956SOL    HW2 2643   2.372   3.237   3.645
66957SOL     OW 2644   2.007   4.265  14.575
66957SOL    HW1 2645   2.065   4.224  14.511
66957SOL    HW2 2646   1.924   4.276  14.529
66958SOL     OW 2647  11.931   4.044  14.440
66958SOL    HW1 2648  11.855   4.026  14.384
66958SOL    HW2 2649  12.003   3.998  14.398
66959SOL     OW 2650   6.624  10.363   9.143
66959SOL    HW1 2651   6.709  10.377   9.101
66959SOL    HW2 2652   6.561  10.402   9.083
66960SOL     OW 2653   9.997   6.151   9.631
66960SOL    HW1 2654   9.915   6.192   9.659
66960SOL    HW2 2655  10.008   6.179   9.540
66961SOL     OW 2656   0.967  11.044   3.236
66961SOL    HW1 2657   0.899  10.977   3.243
66961SOL    HW2 2658   1.008  11.047   3.322
66962SOL     OW 2659   1.990   0.424  13.539
66962SOL    HW1 2660   1.941   0.491  13.586
66962SOL    HW2 2661   1.923   0.366  13.504
66963SOL     OW 2662  10.894  12.949   4.204
66963SOL    HW1 2663  10.820  13.006   4.186
66963SOL    HW2 2664  10.890  12.882   4.135
66964SOL     OW 2665  12.429   6.420  10.113
66964SOL    HW1 2666  12.346   6.463  10.134
66964SOL    HW2 2667  12.482   6.489  10.073
66965SOL     OW 2668   3.939   4.514  14.818
66965SOL    HW1 2669   3.858   4.522  14.769
66965SOL    HW2 2670   4.008   4.529  14.753
66966SOL     OW 2671   6.083   5.444   7.052
66966SOL    HW1 2672   6.141   5.371   7.031
66966SOL    HW2 2673   6.018   5.407   7.112
66967SOL     OW 2674   2.319   6.614   8.874
66967SOL    HW1 2675   2.277   6.575   8.798
66967SOL    HW2 2676   2.300   6.707   8.868
66968SOL     OW 2677  14.407  13.666   9.566
66968SOL    HW1 2678  14.497  13.692   9.545
66968SOL    HW2 2679  14.400  13.577   9.531
66969SOL     OW 2680   2.490  14.151   3.795
66969SOL    HW1 2681   2.438  14.072   3.784
66969SOL    HW2 2682   2.489  14.168   3.889
66970SOL     OW 2683  12.973   2.082   1.935
66970SOL    HW1 2684  13.004   2.121   1.854
66970SOL    HW2 2685  12.974   2.153   1.998
66971SOL     OW 2686  13.340   0.528   4.953
66971SOL    HW1 2687  13.261   0.483   4.983
66971SOL    HW2 2688  13.391   0.541   5.033
66972SOL     OW 2689   9.606   1.927   7.310
66972SOL    HW1 2690   9.686   1.942   7.259
66972SOL    HW2 2691   9.634   1.870   7.381
66973SOL     OW 2692   5.688   4.958  14.423
66973SOL    HW1 2693   5.698   4.863  14.412
66973SOL    HW2 2694   5.651   4.968  14.510
66974SOL     OW 2695   7.920  12.818   7.742
66974SOL    HW1 2696   7.918  12.724   7.727
66974SOL    HW2 2697   8.009  12.844   7.718
66975SOL     OW 2698   8.588   8.494   6.885
66975SOL    HW1 2699   8.656   8.428   6.899
66975SOL    HW2 2700   8.636   8.572   6.857
66976SOL     OW 2701  14.531  10.282   4.008
66976SOL    HW1 2702  14.561  10.229   3.934
66976SOL    HW2 2703  14.599  10.349   4.018
66977SOL     OW 2704  12.688   3.519  14.217
66977SOL    HW1 2705  12.751   3.448  14.203
66977SOL    HW2 2706  12.677   3.524  14.312
66978SOL     OW 2707   0.372  11.057  11.048
66978SOL    HW1 2708   0.349  11.019  11.133
66978SOL    HW2 2709   0.467  11.056  11.046
66979SOL     OW 2710   3.662  14.582   0.574
66979SOL    HW1 2711   3.592  14.605   0.512
66979SOL    HW2 2712   3.669  14.487   0.567
66980SOL     OW 2713  12.806  13.330   3.562
66980SOL    HW1 2714  12.793  13.418   3.598
66980SOL    HW2 2715  12.795  13.272   3.637
66981SOL     OW 2716   4.692   0.568   9.734
66981SOL    HW1 2717   4.660   0.629   9.667
66981SOL    HW2 2718   4.757   0.619   9.783
66982SOL     OW 2719   9.423  10.323   7.022
66982SOL    HW1 2720   9.473  10.358   7.096
66982SOL    HW2 2721   9.335  10.310   7.057
66983SOL     OW 2722  12.068   9.152  11.281
66983SOL    HW1 2723  12.073   9.228  11.223
66983SOL    HW2 2724  12.120   9.177  11.358
66984SOL     OW 2725   1.863   7.660  14.281
66984SOL    HW1 2726   1.858   7.622  14.193
66984SOL    HW2 2727   1.826   7.592  14.338
66985SOL     OW 2728  13.929   0.484   9.570
66985SOL    HW1 2729  13.867   0.551   9.541
66985SOL    HW2 2730  13.931   0.492   9.665
66986SOL     OW 2731   9.022  13.010   9.866
66986SOL    HW1 2732   9.085  13.028   9.936
66986SOL    HW2 2733   9.068  12.950   9.808
66987SOL     OW 2734  10.253   8.340   7.694
66987SOL    HW1 2735  10.231   8.289   7.615
66987SOL    HW2 2736  10.182   8.322   7.755
66988SOL     OW 2737   0.013   7.778  14.040
66988SOL    HW1 2738   0.030   7.870  14.019
66988SOL    HW2 2739   0.098   7.735  14.030
66989SOL     OW 2740   0.265  13.405  13.814
66989SOL    HW1 2741   0.279  13.312  13.832
66989SOL    HW2 2742   0.353  13.443  13.816
66990SOL     OW 2743   3.677   4.453   8.358
66990SOL    HW1 2744   3.666   4.501   8.440
66990SOL    HW2 2745   3.692   4.522   8.292
66991SOL     OW 2746   1.665   8.430   9.888
66991SOL    HW1 2747   1.594   8.493   9.879
66991SOL    HW2 2748   1.628   8.360   9.943
66992SOL     OW 2749  14.728   8.223   9.994
66992SOL    HW1 2750  14.821   8.244  10.005
66992SOL    HW2 2751  14.683   8.307  10.007
66993SOL     OW 2752   2.442   9.650  13.662
66993SOL    HW1 2753   2.473   9.709  13.593
66993SOL    HW2 2754   2.360   9.615  13.629
66994SOL     OW 2755   1.715  13.816  13.600
66994SOL    HW1 2756   1.730  13.911  13.593
66994SOL    HW2 2757   1.649  13.808  13.670
66995SOL     OW 2758   1.743  12.649   4.827
66995SOL    HW1 2759   1.829  12.688   4.844
66995SOL    HW2 2760   1.739  12.642   4.731
66996SOL     OW 2761   2.527  10.935   3.288
66996SOL    HW1 2762   2.594  10.885   3.242
66996SOL    HW2 2763   2.470  10.967   3.218
66997SOL     OW 2764   9.780  11.715   1.317
66997SOL    HW1 2765   9.691  11.736   1.345
66997SOL    HW2 2766   9.817  11.665   1.390
66998SOL     OW 2767  10.584   3.828   4.145
66998SOL    HW1 2768  10.655   3.891   4.136
66998SOL    HW2 2769  10.567   3.823   4.239
66999SOL     OW 2770  10.032  14.667   4.697
66999SOL    HW1 2771  10.079  14.651   4.615
66999SOL    HW2 2772  10.086  14.732   4.742
67000SOL     OW 2773   4.637   3.473  13.789
67000SOL    HW1 2774   4.715   3.449  13.840
67000SOL    HW2 2775   4.587   3.530  13.847
67001SOL     OW 2776  14.855   7.781  14.729
67001SOL    HW1 2777  14.775   7.754  14.683
67001SOL    HW2 2778  14.867   7.714  14.797
67002SOL     OW 2779   9.126   6.657   8.498
67002SOL    HW1 2780   9.041   6.675   8.539
67002SOL    HW2 2781   9.148   6.568   8.528
67003SOL     OW 2782  10.111   5.245  11.546
67003SOL    HW1 2783  10.149   5.164  11.580
67003SOL    HW2 2784  10.143   5.313  11.606
67004SOL     OW 2785   4.580   5.642   3.935
67004SOL    HW1 2786   4.561   5.679   4.021
67004SOL    HW2 2787   4.563   5.549   3.945
67005SOL     OW 2788   9.537   9.524   6.532
67005SOL    HW1 2789   9.574   9.451   6.482
67005SOL    HW2 2790   9.569   9.512   6.621
67006SOL     OW 2791  10.896   1.104   1.599
67006SOL    HW1 2792  10.970   1.048   1.623
67006SOL    HW2 2793  10.836   1.045   1.552
67007SOL     OW 2794  12.149  13.980  11.162
67007SOL    HW1 2795  12.186  13.902  11.202
67007SOL    HW2 2796  12.143  13.959  11.069
67008SOL     OW 2797   5.043  12.121   6.858
67008SOL    HW1 2798   4.952  12.098   6.844
67008SOL    HW2 2799   5.063  12.184   6.789
67009SOL     OW 2800  13.765  12.734   5.514
67009SOL    HW1 2801  13.803  12.817   5.484
67009SOL    HW2 2802  13.840  12.677   5.529
67010SOL     OW 2803   2.310  14.202  12.107
67010SOL    HW1 2804   2.239  14.222  12.169
67010SOL    HW2 2805   2.353  14.125  12.144
67011SOL     OW 2806   7.536  10.548  11.348
67011SOL    HW1 2807   7.470  10.529  11.282
67011SOL    HW2 2808   7.534  10.472  11.406
67012SOL     OW 2809  13.717   9.564  11.655
67012SOL    HW1 2810  13.714   9.477  11.694
67012SOL    HW2 2811  13.810   9.580  11.639
67013SOL     OW 2812   5.870   5.854  11.833
67013SOL    HW1 2813   5.887   5.941  11.869
67013SOL    HW2 2814   5.937   5.798  11.873
67014SOL     OW 2815   8.906   0.916   7.310
67014SOL    HW1 2816   8.841   0.865   7.359
67014SOL    HW2 2817   8.987   0.866   7.317
67015SOL     OW 2818   9.744   2.045   5.728
67015SOL    HW1 2819   9.775   2.004   5.647
67015SOL    HW2 2820   9.753   1.976   5.794
67016SOL     OW 2821   8.818   2.548   3.720
67016SOL    HW1 2822   8.838   2.618   3.783
67016SOL    HW2 2823   8.737   2.576   3.678
67017SOL     OW 2824   2.524  10.323  11.074
67017SOL    HW1 2825   2.506  10.239  11.032
67017SOL    HW2 2826   2.583  10.368  11.014
67018SOL     OW 2827   9.769   5.474  12.872
67018SOL    HW1 2828   9.785   5.469  12.967
67018SOL    HW2 2829   9.699   5.411  12.857
67019SOL     OW 2830   5.711  12.126   0.223
67019SOL    HW1 2831   5.652  12.064   0.266
67019SOL    HW2 2832   5.692  12.117   0.129
67020SOL     OW 2833  13.701  13.546  11.172
67020SOL    HW1 2834  13.616  13.525  11.211
67020SOL    HW2 2835  13.686  13.539  11.078
67021SOL     OW 2836   2.927   5.242   1.254
67021SOL    HW1 2837   2.996   5.218   1.192
67021SOL    HW2 2838   2.877   5.162   1.266
67022SOL     OW 2839  14.630   7.852   7.393
67022SOL    HW1 2840  14.657   7.765   7.421
67022SOL    HW2 2841  14.667   7.912   7.458
67023SOL     OW 2842   1.382   6.160  10.583
67023SOL    HW1 2843   1.356   6.120  10.666
67023SOL    HW2 2844   1.477   6.146  10.579
67024SOL     OW 2845   1.751   2.303   1.088
67024SOL    HW1 2846   1.672   2.351   1.063
67024SOL    HW2 2847   1.805   2.304   1.009
67025SOL     OW 2848  14.281   4.859   3.987
67025SOL    HW1 2849  14.364   4.813   3.999
67025SOL    HW2 2850  14.215   4.791   3.985
67026SOL     OW 2851   6.758   7.354  11.790
67026SOL    HW1 2852   6.810   7.321  11.863
67026SOL    HW2 2853   6.749   7.447  11.806
67027SOL     OW 2854   4.129   3.993   2.123
67027SOL    HW1 2855   4.184   3.987   2.045
67027SOL    HW2 2856   4.183   3.957   2.193
67028SOL     OW 2857  10.181  11.053   2.637
67028SOL    HW1 2858  10.104  10.998   2.656
67028SOL    HW2 2859  10.251  11.015   2.690
67029SOL     OW 2860   9.185  10.942   6.877
67029SOL    HW1 2861   9.224  10.868   6.830
67029SOL    HW2 2862   9.259  11.000   6.895
67030SOL     OW 2863   1.231   1.434  10.824
67030SOL    HW1 2864   1.233   1.530  10.818
67030SOL    HW2 2865   1.248   1.404  10.734
67031SOL     OW 2866   7.979   8.892  12.046
67031SOL    HW1 2867   7.893   8.875  12.006
67031SOL    HW2 2868   8.042   8.863  11.980
67032SOL     OW 2869   9.816   5.242   0.049
67032SOL    HW1 2870   9.785   5.317   0.100
67032SOL    HW2 2871   9.806   5.167   0.108
67033SOL     OW 2872   0.701  13.498  12.685
67033SOL    HW1 2873   0.640  13.570  12.701
67033SOL    HW2 2874   0.751  13.525  12.609
67034SOL     OW 2875   0.885  12.237   1.340
67034SOL    HW1 2876   0.923  12.321   1.364
67034SOL    HW2 2877   0.890  12.236   1.244
67035SOL     OW 2878  12.545   0.117   9.773
67035SOL    HW1 2879  12.558   0.023   9.772
67035SOL    HW2 2880  12.575   0.144   9.860
67036SOL     OW 2881   0.534   1.916  10.095
67036SOL    HW1 2882   0.521   1.825  10.121
67036SOL    HW2 2883   0.612   1.914  10.039
67037SOL     OW 2884   4.832  12.591   5.458
67037SOL    HW1 2885   4.888  12.514   5.461
67037SOL    HW2 2886   4.748  12.561   5.494
67038SOL     OW 2887  12.072   4.883   4.367
67038SOL    HW1 2888  12.051   4.862   4.276
67038SOL    HW2 2889  12.151   4.832   4.386
67039SOL     OW 2890   4.612   7.378   9.119
67039SOL    HW1 2891   4.565   7.461   9.130
67039SOL    HW2 2892   4.704   7.401   9.131
67040SOL     OW 2893   3.772   6.305  14.368
67040SOL    HW1 2894   3.753   6.282  14.459
67040SOL    HW2 2895   3.753   6.225  14.319
67041SOL     OW 2896   9.150  10.496  10.843
67041SOL    HW1 2897   9.149  10.582  10.801
67041SOL    HW2 2898   9.171  10.435  10.772
67042SOL     OW 2899  13.193  12.070   2.192
67042SOL    HW1 2900  13.172  12.027   2.109
67042SOL    HW2 2901  13.289  12.078   2.191
67043SOL     OW 2902  12.062  13.855   7.529
67043SOL    HW1 2903  12.127  13.838   7.597
67043SOL    HW2 2904  12.106  13.828   7.448
67044SOL     OW 2905   3.561   4.370   6.705
67044SOL    HW1 2906   3.633   4.346   6.762
67044SOL    HW2 2907   3.486   4.321   6.740
67045SOL     OW 2908  11.128  12.149   1.249
67045SOL    HW1 2909  11.038  12.117   1.245
67045SOL    HW2 2910  11.129  12.207   1.325
67046SOL     OW 2911  13.461  13.045   4.917
67046SOL    HW1 2912  13.382  13.075   4.962
67046SOL    HW2 2913  13.506  12.991   4.982
67047SOL     OW 2914   9.445   2.379   5.386
67047SOL    HW1 2915   9.383   2.436   5.340
67047SOL    HW2 2916   9.477   2.431   5.459
67048SOL     OW 2917   2.801   6.545  10.316
67048SOL    HW1 2918   2.837   6.484  10.252
67048SOL    HW2 2919   2.823   6.632  10.282
67049SOL     OW 2920   0.096   1.571   0.822
67049SOL    HW1 2921   0.059   1.645   0.774
67049SOL    HW2 2922   0.181   1.556   0.781
67050SOL     OW 2923  12.677   0.431  14.310
67050SOL    HW1 2924  12.668   0.512  14.360
67050SOL    HW2 2925  12.636   0.450  14.225
67051SOL     OW 2926   4.082   0.203   5.075
67051SOL    HW1 2927   4.081   0.113   5.041
67051SOL    HW2 2928   4.023   0.251   5.017
67052SOL     OW 2929   7.748   8.865   6.495
67052SOL    HW1 2930   7.801   8.795   6.458
67052SOL    HW2 2931   7.787   8.945   6.461
67053SOL     OW 2932  11.330  14.543   5.419
67053SOL    HW1 2933  11.308  14.581   5.334
67053SOL    HW2 2934  11.263  14.576   5.479
67054SOL     OW 2935  14.542  13.729   3.745
67054SOL    HW1 2936  14.540  13.715   3.650
67054SOL    HW2 2937  14.629  13.701   3.772
67055SOL     OW 2938   7.476   4.415   0.997
67055SOL    HW1 2939   7.474   4.326   0.961
67055SOL    HW2 2940   7.561   4.450   0.969
67056SOL     OW 2941   8.523  14.290   6.558
67056SOL    HW1 2942   8.594  14.313   6.498
67056SOL    HW2 2943   8.565  14.241   6.628
67057SOL     OW 2944   8.658   8.784  10.471
67057SOL    HW1 2945   8.644   8.864  10.523
67057SOL    HW2 2946   8.645   8.713  10.534
67058SOL     OW 2947   9.018  11.522   2.200
67058SOL    HW1 2948   8.955  11.563   2.260
67058SOL    HW2 2949   9.041  11.439   2.242
67059SOL     OW 2950   1.772   2.885   3.888
67059SOL    HW1 2951   1.677   2.886   3.886
67059SOL    HW2 2952   1.798   2.960   3.834
67060SOL     OW 2953   4.852  12.091  11.954
67060SOL    HW1 2954   4.920  12.137  11.905
67060SOL    HW2 2955   4.820  12.156  12.017
67061SOL     OW 2956  12.117   3.371  10.603
67061SOL    HW1 2957  12.029   3.349  10.574
67061SOL    HW2 2958  12.154   3.423  10.532
67062SOL     OW 2959   9.216   6.768   8.260
67062SOL    HW1 2960   9.311   6.760   8.269
67062SOL    HW2 2961   9.181   6.702   8.319
67063SOL     OW 2962   1.214   8.546  12.126
67063SOL    HW1 2963   1.177   8.629  12.095
67063SOL    HW2 2964   1.140   8.486  12.125
67064SOL     OW 2965   3.860  12.474   7.090
67064SOL    HW1 2966   3.768  12.452   7.103
67064SOL    HW2 2967   3.902  12.450   7.172
67065SOL     OW 2968   3.204  12.573   2.996
67065SOL    HW1 2969   3.247  12.642   2.945
67065SOL    HW2 2970   3.252  12.572   3.079
67066SOL     OW 2971   9.424  10.096   2.363
67066SOL    HW1 2972   9.422  10.189   2.341
67066SOL    HW2 2973   9.368  10.055   2.297
67067SOL     OW 2974   5.937   7.435   1.859
67067SOL    HW1 2975   5.956   7.423   1.952
67067SOL    HW2 2976   5.986   7.514   1.834
67068SOL     OW 2977  13.046  11.437  11.392
67068SOL    HW1 2978  13.142  11.429  11.394
67068SOL    HW2 2979  13.023  11.422  11.300
67069SOL     OW 2980  10.430  12.059   7.489
67069SOL    HW1 2981  10.460  12.096   7.407
67069SOL    HW2 2982  10.336  12.077   7.491
67070SOL     OW 2983   4.389   9.915   7.088
67070SOL    HW1 2984   4.412   9.844   7.027
67070SOL    HW2 2985   4.304   9.888   7.124
67071SOL     OW 2986   4.804   6.392   2.135
67071SOL    HW1 2987   4.824   6.345   2.215
67071SOL    HW2 2988   4.803   6.324   2.067
67072SOL     OW 2989  13.279  13.219   1.085
67072SOL    HW1 2990  13.274  13.310   1.115
67072SOL    HW2 2991  13.192  13.200   1.051
67073SOL     OW 2992   2.823   4.510   1.207
67073SOL    HW1 2993   2.840   4.571   1.279
67073SOL    HW2 2994   2.734   4.480   1.222
67074SOL     OW 2995   9.405   1.384   1.189
67074SOL    HW1 2996   9.475   1.353   1.247
67074SOL    HW2 2997   9.450   1.404   1.107
67075SOL     OW 2998   7.931   2.103  10.897
67075SOL    HW1 2999   7.886   2.152  10.828
67075SOL    HW2 3000   7.984   2.039  10.850
67076SOL     OW 3001  14.673   5.163  12.316
67076SOL    HW1 3002  14.648   5.072  12.330
67076SOL    HW2 3003  14.732   5.161  12.241
67077SOL     OW 3004   8.715   1.646   2.659
67077SOL    HW1 3005   8.723   1.612   2.748
67077SOL    HW2 3006   8.696   1.739   2.670
67078SOL     OW 3007   2.245   4.888  14.340
67078SOL    HW1 3008   2.289   4.936  14.270
67078SOL    HW2 3009   2.298   4.905  14.418
67079SOL     OW 3010   7.537  11.198   2.510
67079SOL    HW1 3011   7.511  11.228   2.597
67079SOL    HW2 3012   7.512  11.269   2.451
67080SOL     OW 3013   3.453  14.160   1.300
67080SOL    HW1 3014   3.529  14.130   1.250
67080SOL    HW2 3015   3.479  14.149   1.392
67081SOL     OW 3016   0.874   2.677   7.344
67081SOL    HW1 3017   0.915   2.596   7.377
67081SOL    HW2 3018   0.912   2.689   7.257
67082SOL     OW 3019   8.479   4.976   1.488
67082SOL    HW1 3020   8.472   4.892   1.532
67082SOL    HW2 3021   8.526   4.957   1.407
67083SOL     OW 3022   8.271  10.606  13.240
67083SOL    HW1 3023   8.353  10.604  13.192
67083SOL    HW2 3024   8.239  10.696  13.231
67084SOL     OW 3025  12.620   4.246  12.405
67084SOL    HW1 3026  12.646   4.264  12.496
67084SOL    HW2 3027  12.651   4.323  12.356
67085SOL     OW 3028  12.932   4.067  10.803
67085SOL    HW1 3029  13.021   4.069  10.766
67085SOL    HW2 3030  12.882   4.128  10.748
67086SOL     OW 3031   8.909  13.242   4.031
67086SOL    HW1 3032   8.965  13.275   4.102
67086SOL    HW2 3033   8.970  13.218   3.962
67087SOL     OW 3034  14.724   4.491  10.928
67087SOL    HW1 3035  14.776   4.571  10.928
67087SOL    HW2 3036  14.687   4.486  10.840
67088SOL     OW 3037   3.379   7.207  14.780
67088SOL    HW1 3038   3.343   7.123  14.807
67088SOL    HW2 3039   3.470   7.206  14.809
67089SOL     OW 3040  14.194   3.992   3.963
67089SOL    HW1 3041  14.147   3.998   3.880
67089SOL    HW2 3042  14.128   3.961   4.025
67090SOL     OW 3043  11.528   8.008   5.473
67090SOL    HW1 3044  11.437   8.015   5.446
67090SOL    HW2 3045  11.571   7.960   5.402
67091SOL     OW 3046   7.242  11.960  14.863
67091SOL    HW1 3047   7.187  11.883  14.872
67091SOL    HW2 3048   7.331  11.928  14.877
67092SOL     OW 3049   0.208   5.519   6.933
67092SOL    HW1 3050   0.120   5.495   6.962
67092SOL    HW2 3051   0.257   5.437   6.936
67093SOL     OW 3052   5.928  14.590   5.985
67093SOL    HW1 3053   6.003  14.608   5.929
67093SOL    HW2 3054   5.933  14.496   6.002
67094SOL     OW 3055   6.018  12.142   7.386
67094SOL    HW1 3056   5.986  12.062   7.428
67094SOL    HW2 3057   6.104  12.117   7.350
67095SOL     OW 3058   9.625   6.345   4.994
67095SOL    HW1 3059   9.636   6.260   5.038
67095SOL    HW2 3060   9.654   6.330   4.904
67096SOL     OW 3061  12.839  11.739   7.913
67096SOL    HW1 3062  12.808  11.649   7.900
67096SOL    HW2 3063  12.768  11.794   7.879
67097SOL     OW 3064  13.347  14.028   0.096
67097SOL    HW1 3065  13.419  14.019   0.159
67097SOL    HW2 3066  13.325  14.121   0.098
67098SOL     OW 3067   6.851  11.150  10.970
67098SOL    HW1 3068   6.897  11.230  10.994
67098SOL    HW2 3069   6.889  11.124  10.886
67099SOL     OW 3070   0.774  12.192   4.059
67099SOL    HW1 3071   0.805  12.124   4.000
67099SOL    HW2 3072   0.754  12.266   4.003
67100SOL     OW 3073   4.220   1.133  12.737
67100SOL    HW1 3074   4.195   1.225  12.748
67100SOL    HW2 3075   4.225   1.120  12.642
67101SOL     OW 3076   3.187   4.400   7.588
67101SOL    HW1 3077   3.105   4.364   7.553
67101SOL    HW2 3078   3.168   4.417   7.680
67102SOL     OW 3079   8.062   3.655   3.071
67102SOL    HW1 3080   8.085   3.572   3.029
67102SOL    HW2 3081   8.128   3.717   3.040
67103SOL     OW 3082  10.568  10.658   1.395
67103SOL    HW1 3083  10.516  10.711   1.455
67103SOL    HW2 3084  10.648  10.638   1.443
67104SOL     OW 3085   7.493   7.544  10.493
67104SOL    HW1 3086   7.461   7.604  10.426
67104SOL    HW2 3087   7.575   7.509  10.457
67105SOL     OW 3088   6.860  13.468   7.290
67105SOL    HW1 3089   6.901  13.508   7.213
67105SOL    HW2 3090   6.934  13.437   7.343
67106SOL     OW 3091   3.152   2.487  10.369
67106SOL    HW1 3092   3.203   2.429  10.312
67106SOL    HW2 3093   3.120   2.429  10.438
67107SOL     OW 3094  11.617  13.455   3.055
67107SOL    HW1 3095  11.602  13.385   2.992
67107SOL    HW2 3096  11.678  13.514   3.011
67108SOL     OW 3097   2.186   0.357   3.921
67108SOL    HW1 3098   2.187   0.282   3.862
67108SOL    HW2 3099   2.133   0.329   3.996
67109SOL     OW 3100  12.622   7.017   6.340
67109SOL    HW1 3101  12.576   6.935   6.356
67109SOL    HW2 3102  12.552   7.081   6.327
67110SOL     OW 3103  11.475  14.368   3.731
67110SOL    HW1 3104  11.452  14.275   3.732
67110SOL    HW2 3105  11.470  14.392   3.638
67111SOL     OW 3106   8.364  13.815   4.477
67111SOL    HW1 3107   8.405  13.737   4.515
67111SOL    HW2 3108   8.424  13.886   4.497
67112SOL     OW 3109   3.198   9.318   8.824
67112SOL    HW1 3110   3.132   9.362   8.878
67112SOL    HW2 3111   3.282   9.350   8.858
67113SOL     OW 3112   6.956   3.404   9.138
67113SOL    HW1 3113   6.960   3.490   9.096
67113SOL    HW2 3114   6.940   3.343   9.067
67114SOL     OW 3115   1.325   4.620   7.003
67114SOL    HW1 3116   1.399   4.571   6.968
67114SOL    HW2 3117   1.362   4.703   7.031
67115SOL     OW 3118   8.853   5.840  12.708
67115SOL    HW1 3119   8.857   5.790  12.789
67115SOL    HW2 3120   8.900   5.787  12.644
67116SOL     OW 3121   9.496  12.870   9.941
67116SOL    HW1 3122   9.563  12.844  10.004
67116SOL    HW2 3123   9.542  12.873   9.857
67117SOL     OW 3124   7.105   8.354   1.281
67117SOL    HW1 3125   7.161   8.287   1.242
67117SOL    HW2 3126   7.017   8.318   1.274
67118SOL     OW 3127   1.959  13.007   4.445
67118SOL    HW1 3128   1.909  13.004   4.527
67118SOL    HW2 3129   2.046  13.037   4.472
67119SOL     OW 3130   2.430   3.119   4.293
67119SOL    HW1 3131   2.385   3.116   4.377
67119SOL    HW2 3132   2.450   3.212   4.280
67120SOL     OW 3133   1.446   2.477   8.897
67120SOL    HW1 3134   1.498   2.487   8.817
67120SOL    HW2 3135   1.358   2.507   8.873
67121SOL     OW 3136   1.364  11.862  11.306
67121SOL    HW1 3137   1.334  11.856  11.216
67121SOL    HW2 3138   1.335  11.780  11.347
67122SOL     OW 3139  10.970  11.792   2.333
67122SOL    HW1 3140  10.908  11.751   2.393
67122SOL    HW2 3141  11.049  11.807   2.386
67123SOL     OW 3142   1.308   8.646   0.773
67123SOL    HW1 3143   1.315   8.600   0.689
67123SOL    HW2 3144   1.228   8.698   0.765
67124SOL     OW 3145  13.521  12.258   7.545
67124SOL    HW1 3146  13.492  12.183   7.493
67124SOL    HW2 3147  13.578  12.307   7.486
67125SOL     OW 3148   7.167   9.487   3.898
67125SOL    HW1 3149   7.147   9.423   3.829
67125SOL    HW2 3150   7.191   9.566   3.850
67126SOL     OW 3151   3.509   2.279   4.299
67126SOL    HW1 3152   3.520   2.204   4.239
67126SOL    HW2 3153   3.415   2.293   4.302
67127SOL     OW 3154   7.023  14.745   4.395
67127SOL    HW1 3155   6.960  14.740   4.323
67127SOL    HW2 3156   7.001  14.826   4.441
67128SOL     OW 3157  12.058   7.147  12.126
67128SOL    HW1 3158  12.145   7.188  12.122
67128SOL    HW2 3159  12.017   7.171  12.043
67129SOL     OW 3160  11.581  14.419   7.179
67129SOL    HW1 3161  11.561  14.379   7.264
67129SOL    HW2 3162  11.668  14.457   7.190
67130SOL     OW 3163   7.836   6.665  10.682
67130SOL    HW1 3164   7.752   6.700  10.649
67130SOL    HW2 3165   7.901   6.730  10.654
67131SOL     OW 3166   7.998   9.209  10.690
67131SOL    HW1 3167   8.038   9.221  10.776
67131SOL    HW2 3168   7.936   9.282  10.682
67132SOL     OW 3169   1.211  10.605  10.847
67132SOL    HW1 3170   1.266  10.543  10.798
67132SOL    HW2 3171   1.264  10.628  10.923
67133SOL     OW 3172   0.669  13.466   1.663
67133SOL    HW1 3173   0.619  13.398   1.707
67133SOL    HW2 3174   0.706  13.423   1.586
67134SOL     OW 3175   5.639   9.389   0.582
67134SOL    HW1 3176   5.706   9.385   0.513
67134SOL    HW2 3177   5.602   9.301   0.585
67135SOL     OW 3178   7.191   7.756  13.282
67135SOL    HW1 3179   7.180   7.748  13.187
67135SOL    HW2 3180   7.285   7.747  13.295
67136SOL     OW 3181  14.044   5.676   6.610
67136SOL    HW1 3182  13.978   5.611   6.586
67136SOL    HW2 3183  14.111   5.667   6.542
67137SOL     OW 3184   6.981   5.822   7.187
67137SOL    HW1 3185   6.971   5.842   7.094
67137SOL    HW2 3186   7.075   5.809   7.199
67138SOL     OW 3187  13.326  10.553   6.404
67138SOL    HW1 3188  13.291  10.518   6.322
67138SOL    HW2 3189  13.312  10.647   6.397
67139SOL     OW 3190   5.207   5.729   0.789
67139SOL    HW1 3191   5.191   5.637   0.810
67139SOL    HW2 3192   5.123   5.762   0.759
67140SOL     OW 3193   7.886   0.627   2.575
67140SOL    HW1 3194   7.887   0.722   2.578
67140SOL    HW2 3195   7.793   0.605   2.561
67141SOL     OW 3196   7.849   7.557   5.586
67141SOL    HW1 3197   7.922   7.593   5.636
67141SOL    HW2 3198   7.771   7.583   5.635
67142SOL     OW 3199   4.622  12.737  10.408
67142SOL    HW1 3200   4.679  12.813  10.417
67142SOL    HW2 3201   4.533  12.774  10.409
67143SOL     OW 3202  11.631  14.357   5.154
67143SOL    HW1 3203  11.561  14.307   5.197
67143SOL    HW2 3204  11.634  14.322   5.065
67144SOL     OW 3205   5.919   0.558   0.005
67144SOL    HW1 3206   6.011   0.564   0.029
67144SOL    HW2 3207   5.886   0.647   0.016
67145SOL     OW 3208  14.257   1.004  13.909
67145SOL    HW1 3209  14.202   0.974  13.836
67145SOL    HW2 3210  14.345   0.973  13.886
67146SOL     OW 3211   2.829   1.715   1.648
67146SOL    HW1 3212   2.875   1.729   1.730
67146SOL    HW2 3213   2.878   1.644   1.605
67147SOL     OW 3214   6.072  13.601  13.449
67147SOL    HW1 3215   6.004  13.535  13.434
67147SOL    HW2 3216   6.069  13.618  13.543
67148SOL     OW 3217  14.427   4.674  11.945
67148SOL    HW1 3218  14.486   4.600  11.930
67148SOL    HW2 3219  14.463   4.744  11.891
67149SOL     OW 3220   3.467  14.781   4.857
67149SOL    HW1 3221   3.526  14.815   4.789
67149SOL    HW2 3222   3.423  14.707   4.815
67150SOL     OW 3223  11.828   8.110   9.118
67150SOL    HW1 3224  11.849   8.060   9.196
67150SOL    HW2 3225  11.747   8.071   9.085
67151SOL     OW 3226   7.423   2.966   9.673
67151SOL    HW1 3227   7.336   2.965   9.713
67151SOL    HW2 3228   7.410   3.012   9.590
67152SOL     OW 3229   5.628  11.379   6.799
67152SOL    HW1 3230   5.554  11.383   6.738
67152SOL    HW2 3231   5.689  11.446   6.767
67153SOL     OW 3232   2.753   1.226   5.826
67153SOL    HW1 3233   2.684   1.290   5.840
67153SOL    HW2 3234   2.731   1.186   5.741
67154SOL     OW 3235   6.190   0.965  12.303
67154SOL    HW1 3236   6.232   0.979  12.218
67154SOL    HW2 3237   6.098   0.950  12.282
67155SOL     OW 3238  10.747   8.332  11.617
67155SOL    HW1 3239  10.678   8.361  11.676
67155SOL    HW2 3240  10.737   8.387  11.540
67156SOL     OW 3241   1.929  10.670   8.248
67156SOL    HW1 3242   2.008  10.646   8.200
67156SOL    HW2 3243   1.871  10.595   8.239
67157SOL     OW 3244   8.090  13.820   0.803
67157SOL    HW1 3245   8.127  13.747   0.753
67157SOL    HW2 3246   8.160  13.844   0.864
67158SOL     OW 3247   1.436  11.784   9.754
67158SOL    HW1 3248   1.402  11.783   9.843
67158SOL    HW2 3249   1.512  11.843   9.759
67159SOL     OW 3250   7.252   7.124  14.316
67159SOL    HW1 3251   7.184   7.152  14.377
67159SOL    HW2 3252   7.268   7.032  14.337
67160SOL     OW 3253   5.034   2.404   2.508
67160SOL    HW1 3254   5.084   2.485   2.495
67160SOL    HW2 3255   4.974   2.425   2.580
67161SOL     OW 3256   0.083   4.209  11.122
67161SOL    HW1 3257   0.050   4.177  11.206
67161SOL    HW2 3258   0.166   4.164  11.110
67162SOL     OW 3259   0.396  11.896   5.655
67162SOL    HW1 3260   0.305  11.908   5.628
67162SOL    HW2 3261   0.433  11.836   5.590
67163SOL     OW 3262  12.859  10.608   4.066
67163SOL    HW1 3263  12.881  10.518   4.045
67163SOL    HW2 3264  12.789  10.601   4.131
67164SOL     OW 3265   1.197   0.348   6.928
67164SOL    HW1 3266   1.232   0.326   6.841
67164SOL    HW2 3267   1.118   0.295   6.936
67165SOL     OW 3268   4.687   1.500   7.775
67165SOL    HW1 3269   4.678   1.595   7.767
67165SOL    HW2 3270   4.622   1.475   7.840
67166SOL     OW 3271   9.386   7.999  14.554
67166SOL    HW1 3272   9.444   8.075  14.548
67166SOL    HW2 3273   9.345   7.994  14.468
67167SOL     OW 3274   0.857  14.497   4.360
67167SOL    HW1 3275   0.769  14.533   4.370
67167SOL    HW2 3276   0.915  14.560   4.404
67168SOL     OW 3277   4.745   0.803  11.932
67168SOL    HW1 3278   4.731   0.726  11.987
67168SOL    HW2 3279   4.675   0.863  11.957
67169SOL     OW 3280  10.549   8.830  12.895
67169SOL    HW1 3281  10.592   8.877  12.823
67169SOL    HW2 3282  10.609   8.760  12.918
67170SOL     OW 3283  14.587  14.350   3.410
67170SOL    HW1 3284  14.616  14.343   3.501
67170SOL    HW2 3285  14.495  14.377   3.417
67171SOL     OW 3286   4.142   0.976   9.507
67171SOL    HW1 3287   4.222   0.932   9.535
67171SOL    HW2 3288   4.088   0.980   9.585
67172SOL     OW 3289  12.113   2.217   2.202
67172SOL    HW1 3290  12.101   2.297   2.253
67172SOL    HW2 3291  12.024   2.182   2.192
67173SOL     OW 3292  11.507  14.387   3.120
67173SOL    HW1 3293  11.568  14.338   3.064
67173SOL    HW2 3294  11.434  14.408   3.063
67174SOL     OW 3295   3.141   9.808   2.881
67174SOL    HW1 3296   3.108   9.898   2.887
67174SOL    HW2 3297   3.136   9.787   2.788
67175SOL     OW 3298  11.730   7.605   2.121
67175SOL    HW1 3299  11.660   7.543   2.142
67175SOL    HW2 3300  11.801   7.582   2.180
67176SOL     OW 3301   0.838   8.457   9.146
67176SOL    HW1 3302   0.749   8.491   9.145
67176SOL    HW2 3303   0.838   8.393   9.217
67177SOL     OW 3304  12.348   6.391   3.429
67177SOL    HW1 3305  12.416   6.383   3.495
67177SOL    HW2 3306  12.269   6.414   3.479
67178SOL     OW 3307   9.472  11.195  12.903
67178SOL    HW1 3308   9.428  11.179  12.987
67178SOL    HW2 3309   9.416  11.152  12.839
67179SOL     OW 3310  14.013  11.528   2.373
67179SOL    HW1 3311  14.060  11.602   2.334
67179SOL    HW2 3312  13.921  11.548   2.359
67180SOL     OW 3313   1.536   2.439  14.406
67180SOL    HW1 3314   1.475   2.513  14.398
67180SOL    HW2 3315   1.606   2.459  14.344
67181SOL     OW 3316   0.630   9.938  13.154
67181SOL    HW1 3317   0.553   9.897  13.193
67181SOL    HW2 3318   0.597   9.986  13.078
67182SOL     OW 3319  11.131   8.706   9.993
67182SOL    HW1 3320  11.063   8.772  10.009
67182SOL    HW2 3321  11.208   8.738  10.040
67183SOL     OW 3322  10.815  12.835  10.250
67183SOL    HW1 3323  10.733  12.788  10.234
67183SOL    HW2 3324  10.863  12.780  10.312
67184SOL     OW 3325   3.216  12.303   7.316
67184SOL    HW1 3326   3.274  12.253   7.259
67184SOL    HW2 3327   3.152  12.239   7.346
67185SOL     OW 3328  10.827   7.490  13.054
67185SOL    HW1 3329  10.756   7.523  12.999
67185SOL    HW2 3330  10.830   7.551  13.128
67186SOL     OW 3331  10.894   3.499   9.958
67186SOL    HW1 3332  10.881   3.586   9.996
67186SOL    HW2 3333  10.866   3.438  10.026
67187SOL     OW 3334   1.858  10.467   5.168
67187SOL    HW1 3335   1.921  10.537   5.152
67187SOL    HW2 3336   1.795  10.504   5.230
67188SOL     OW 3337  12.583  12.217   8.119
67188SOL    HW1 3338  12.570  12.122   8.109
67188SOL    HW2 3339  12.639  12.241   8.045
67189SOL     OW 3340  10.956  13.755   6.552
67189SOL    HW1 3341  10.989  13.845   6.545
67189SOL    HW2 3342  11.017  13.703   6.501
67190SOL     OW 3343   7.565   7.667  12.565
67190SOL    HW1 3344   7.519   7.707  12.492
67190SOL    HW2 3345   7.583   7.577  12.536
67191SOL     OW 3346   3.503   8.624   3.500
67191SOL    HW1 3347   3.482   8.679   3.424
67191SOL    HW2 3348   3.561   8.556   3.464
67192SOL     OW 3349  13.755  14.526   2.339
67192SOL    HW1 3350  13.739  14.461   2.407
67192SOL    HW2 3351  13.693  14.597   2.357
67193SOL     OW 3352   5.400  13.722  14.161
67193SOL    HW1 3353   5.486  13.712  14.202
67193SOL    HW2 3354   5.377  13.814  14.177
67194SOL     OW 3355   6.285  10.607   9.952
67194SOL    HW1 3356   6.204  10.612  10.002
67194SOL    HW2 3357   6.280  10.524   9.906
67195SOL     OW 3358   2.913  12.879   9.532
67195SOL    HW1 3359   2.878  12.853   9.446
67195SOL    HW2 3360   2.986  12.938   9.511
67196SOL     OW 3361   8.726  10.256   5.347
67196SOL    HW1 3362   8.775  10.334   5.373
67196SOL    HW2 3363   8.791  10.199   5.307
67197SOL     OW 3364   8.473   4.774   6.065
67197SOL    HW1 3365   8.525   4.705   6.024
67197SOL    HW2 3366   8.429   4.731   6.138
67198SOL     OW 3367   6.699  14.042   6.410
67198SOL    HW1 3368   6.675  14.015   6.499
67198SOL    HW2 3369   6.778  13.991   6.390
67199SOL     OW 3370  10.411   3.153   3.089
67199SOL    HW1 3371  10.452   3.175   3.005
67199SOL    HW2 3372  10.320   3.134   3.067
67200SOL     OW 3373   6.470   5.561  13.603
67200SOL    HW1 3374   6.444   5.584  13.692
67200SOL    HW2 3375   6.388   5.537  13.560
67201SOL     OW 3376   3.472   0.259   4.627
67201SOL    HW1 3377   3.420   0.261   4.707
67201SOL    HW2 3378   3.524   0.340   4.630
67202SOL     OW 3379   3.600   6.069  14.468
67202SOL    HW1 3380   3.584   6.099  14.378
67202SOL    HW2 3381   3.593   5.974  14.463
67203SOL     OW 3382  13.702   4.728   2.004
67203SOL    HW1 3383  13.699   4.821   2.028
67203SOL    HW2 3384  13.730   4.728   1.912
67204SOL     OW 3385   8.390  13.729   0.670
67204SOL    HW1 3386   8.313  13.676   0.649
67204SOL    HW2 3387   8.461  13.665   0.674
67205SOL     OW 3388   7.060   9.653   3.157
67205SOL    HW1 3389   7.020   9.732   3.191
67205SOL    HW2 3390   6.993   9.585   3.166
67206SOL     OW 3391   9.099   4.001  13.107
67206SOL    HW1 3392   9.188   4.002  13.142
67206SOL    HW2 3393   9.043   3.997  13.185
67207SOL     OW 3394   5.012   2.317   3.236
67207SOL    HW1 3395   5.031   2.249   3.299
67207SOL    HW2 3396   4.978   2.390   3.288
67208SOL     OW 3397  11.706   6.880   9.420
67208SOL    HW1 3398  11.801   6.890   9.425
67208SOL    HW2 3399  11.676   6.895   9.510
67209SOL     OW 3400   1.322   1.547   6.364
67209SOL    HW1 3401   1.415   1.525   6.364
67209SOL    HW2 3402   1.279   1.473   6.322
67210SOL     OW 3403   3.414  12.145   4.360
67210SOL    HW1 3404   3.428  12.239   4.368
67210SOL    HW2 3405   3.493  12.106   4.399
67211SOL     OW 3406  14.824  12.815  10.269
67211SOL    HW1 3407  14.806  12.890  10.324
67211SOL    HW2 3408   0.027  12.777  10.306
67212SOL     OW 3409   8.818  11.900  12.633
67212SOL    HW1 3410   8.857  11.896  12.545
67212SOL    HW2 3411   8.892  11.894  12.693
67213SOL     OW 3412  12.130   9.836  14.039
67213SOL    HW1 3413  12.205   9.847  13.981
67213SOL    HW2 3414  12.165   9.854  14.127
67214SOL     OW 3415  10.633  13.365  12.984
67214SOL    HW1 3416  10.636  13.329  12.896
67214SOL    HW2 3417  10.552  13.331  13.021
67215SOL     OW 3418  10.581  14.250  10.200
67215SOL    HW1 3419  10.539  14.307  10.136
67215SOL    HW2 3420  10.543  14.276  10.284
67216SOL     OW 3421  14.097   1.838  14.686
67216SOL    HW1 3422  14.136   1.793  14.611
67216SOL    HW2 3423  14.096   1.930  14.660
67217SOL     OW 3424   3.019  10.614  11.707
67217SOL    HW1 3425   3.025  10.602  11.613
67217SOL    HW2 3426   2.981  10.701  11.718
67218SOL     OW 3427  11.644   2.487   8.668
67218SOL    HW1 3428  11.642   2.440   8.585
67218SOL    HW2 3429  11.594   2.567   8.651
67219SOL     OW 3430   3.329   6.757   3.760
67219SOL    HW1 3431   3.347   6.823   3.826
67219SOL    HW2 3432   3.258   6.705   3.797
67220SOL     OW 3433   2.842   8.218  13.754
67220SOL    HW1 3434   2.773   8.161  13.790
67220SOL    HW2 3435   2.795   8.290  13.713
67221SOL     OW 3436  12.717   7.960   4.809
67221SOL    HW1 3437  12.727   7.866   4.799
67221SOL    HW2 3438  12.623   7.976   4.801
67222SOL     OW 3439  11.620   2.906  13.583
67222SOL    HW1 3440  11.642   2.983  13.531
67222SOL    HW2 3441  11.645   2.831  13.529
67223SOL     OW 3442  14.253   2.720  12.416
67223SOL    HW1 3443  14.324   2.770  12.457
67223SOL    HW2 3444  14.298   2.649  12.369
67224SOL     OW 3445  12.014   5.619  14.758
67224SOL    HW1 3446  11.953   5.551  14.732
67224SOL    HW2 3447  12.095   5.599  14.710
67225SOL     OW 3448   8.828   5.992  14.392
67225SOL    HW1 3449   8.749   5.939  14.405
67225SOL    HW2 3450   8.879   5.978  14.472
67226SOL     OW 3451  10.337   4.783   9.033
67226SOL    HW1 3452  10.291   4.771   9.116
67226SOL    HW2 3453  10.283   4.845   8.985
67227SOL     OW 3454  12.560   9.468  11.798
67227SOL    HW1 3455  12.581   9.438  11.710
67227SOL    HW2 3456  12.633   9.437  11.852
67228SOL     OW 3457   7.342   8.794   2.371
67228SOL    HW1 3458   7.424   8.747   2.363
67228SOL    HW2 3459   7.354   8.850   2.448
67229SOL     OW 3460   9.790   3.227  10.704
67229SOL    HW1 3461   9.798   3.257  10.794
67229SOL    HW2 3462   9.715   3.274  10.669
67230SOL     OW 3463  11.751   7.192  12.579
67230SOL    HW1 3464  11.747   7.098  12.594
67230SOL    HW2 3465  11.794   7.201  12.493
67231SOL     OW 3466   9.149  13.570   8.605
67231SOL    HW1 3467   9.234  13.612   8.588
67231SOL    HW2 3468   9.094  13.598   8.532
67232SOL     OW 3469  10.894  12.426  10.787
67232SOL    HW1 3470  10.823  12.476  10.829
67232SOL    HW2 3471  10.854  12.342  10.765
67233SOL     OW 3472  10.519  12.701  10.220
67233SOL    HW1 3473  10.464  12.780  10.225
67233SOL    HW2 3474  10.517  12.676  10.128
67234SOL     OW 3475   4.749   5.909  11.431
67234SOL    HW1 3476   4.731   5.918  11.338
67234SOL    HW2 3477   4.743   5.998  11.465
67235SOL     OW 3478  14.870   0.917   1.369
67235SOL    HW1 3479   0.074   0.954   1.404
67235SOL    HW2 3480   0.010   0.824   1.360
67236SOL     OW 3481   8.746   7.158   6.080
67236SOL    HW1 3482   8.675   7.107   6.042
67236SOL    HW2 3483   8.820   7.145   6.020
67237SOL     OW 3484   0.209   5.539   0.555
67237SOL    HW1 3485   0.128   5.590   0.545
67237SOL    HW2 3486   0.268   5.598   0.600
67238SOL     OW 3487  11.499   5.393   4.861
67238SOL    HW1 3488  11.404   5.388   4.871
67238SOL    HW2 3489  11.527   5.456   4.928
67239SOL     OW 3490   9.143   2.326   1.822
67239SOL    HW1 3491   9.238   2.329   1.816
67239SOL    HW2 3492   9.126   2.301   1.913
67240SOL     OW 3493  13.463  11.000   5.988
67240SOL    HW1 3494  13.524  11.068   6.018
67240SOL    HW2 3495  13.475  10.928   6.050
67241SOL     OW 3496   3.195   0.540   9.570
67241SOL    HW1 3497   3.125   0.479   9.592
67241SOL    HW2 3498   3.154   0.602   9.508
67242SOL     OW 3499  11.300   0.069   1.616
67242SOL    HW1 3500  11.249   0.099   1.541
67242SOL    HW2 3501  11.237   0.063   1.687
67243SOL     OW 3502   7.493  13.231   5.485
67243SOL    HW1 3503   7.546  13.168   5.436
67243SOL    HW2 3504   7.405  13.193   5.485
67244SOL     OW 3505   1.405  13.089   4.158
67244SOL    HW1 3506   1.332  13.080   4.219
67244SOL    HW2 3507   1.400  13.010   4.103
67245SOL     OW 3508   9.291  10.256   9.827
67245SOL    HW1 3509   9.243  10.178   9.800
67245SOL    HW2 3510   9.357  10.224   9.888
67246SOL     OW 3511   0.319   5.446   9.220
67246SOL    HW1 3512   0.306   5.529   9.267
67246SOL    HW2 3513   0.244   5.439   9.161
67247SOL     OW 3514  13.588  10.055   3.135
67247SOL    HW1 3515  13.506  10.095   3.167
67247SOL    HW2 3516  13.573  10.041   3.042
67248SOL     OW 3517  11.206   3.201  13.936
67248SOL    HW1 3518  11.242   3.119  13.968
67248SOL    HW2 3519  11.140   3.225  14.001
67249SOL     OW 3520  10.059  10.836  10.450
67249SOL    HW1 3521  10.028  10.902  10.513
67249SOL    HW2 3522  10.072  10.884  10.369
67250SOL     OW 3523  11.248  14.835   2.203
67250SOL    HW1 3524  11.278  14.876   2.121
67250SOL    HW2 3525  11.180  14.774   2.175
67251SOL     OW 3526   6.100  14.714  13.896
67251SOL    HW1 3527   6.184  14.737  13.934
67251SOL    HW2 3528   6.035  14.760  13.950
67252SOL     OW 3529  10.390   1.674   1.790
67252SOL    HW1 3530  10.478   1.701   1.815
67252SOL    HW2 3531  10.335   1.751   1.807
67253SOL     OW 3532   1.348   8.893   3.990
67253SOL    HW1 3533   1.387   8.966   4.038
67253SOL    HW2 3534   1.308   8.933   3.913
67254SOL     OW 3535   0.856  14.048  14.844
67254SOL    HW1 3536   0.822  13.984  14.782
67254SOL    HW2 3537   0.923  14.001   0.015
67255SOL     OW 3538   6.969   4.500   4.212
67255SOL    HW1 3539   6.922   4.478   4.132
67255SOL    HW2 3540   7.003   4.417   4.245
67256SOL     OW 3541   2.243   7.537   8.062
67256SOL    HW1 3542   2.229   7.559   7.970
67256SOL    HW2 3543   2.173   7.582   8.109
67257SOL     OW 3544   2.728  12.565  13.158
67257SOL    HW1 3545   2.680  12.641  13.190
67257SOL    HW2 3546   2.768  12.594  13.077
67258SOL     OW 3547   9.727   1.359  12.782
67258SOL    HW1 3548   9.639   1.384  12.809
67258SOL    HW2 3549   9.760   1.307  12.854
67259SOL     OW 3550  12.438   9.273   8.971
67259SOL    HW1 3551  12.434   9.336   9.042
67259SOL    HW2 3552  12.451   9.326   8.892
67260SOL     OW 3553   5.691  10.694   8.868
67260SOL    HW1 3554   5.661  10.782   8.846
67260SOL    HW2 3555   5.756  10.673   8.802
67261SOL     OW 3556   8.532   6.670   5.807
67261SOL    HW1 3557   8.540   6.763   5.824
67261SOL    HW2 3558   8.493   6.664   5.719
67262SOL     OW 3559  14.040   4.215   7.264
67262SOL    HW1 3560  13.966   4.222   7.203
67262SOL    HW2 3561  14.040   4.298   7.312
67263SOL     OW 3562   9.655  14.493  10.026
67263SOL    HW1 3563   9.640  14.529   9.939
67263SOL    HW2 3564   9.571  14.500  10.070
67264SOL     OW 3565  13.853   1.985  10.961
67264SOL    HW1 3566  13.883   1.917  10.901
67264SOL    HW2 3567  13.777   2.023  10.916
67265SOL     OW 3568   9.640   5.377   4.817
67265SOL    HW1 3569   9.699   5.320   4.767
67265SOL    HW2 3570   9.668   5.366   4.908
67266SOL     OW 3571   1.458   8.486   3.538
67266SOL    HW1 3572   1.507   8.418   3.583
67266SOL    HW2 3573   1.435   8.549   3.607
67267SOL     OW 3574  13.123   1.109   8.102
67267SOL    HW1 3575  13.135   1.105   8.197
67267SOL    HW2 3576  13.049   1.052   8.085
67268SOL     OW 3577   3.706   8.030   1.128
67268SOL    HW1 3578   3.659   7.988   1.055
67268SOL    HW2 3579   3.753   8.102   1.087
67269SOL     OW 3580  13.217  13.190   1.966
67269SOL    HW1 3581  13.200  13.182   2.060
67269SOL    HW2 3582  13.311  13.179   1.957
67270SOL     OW 3583   9.028   0.075   7.712
67270SOL    HW1 3584   9.003   0.159   7.674
67270SOL    HW2 3585   9.023   0.013   7.639
67271SOL     OW 3586   2.695   1.640  11.680
67271SOL    HW1 3587   2.702   1.712  11.618
67271SOL    HW2 3588   2.693   1.561  11.625
67272SOL     OW 3589   9.196  14.562  10.874
67272SOL    HW1 3590   9.278  14.558  10.923
67272SOL    HW2 3591   9.135  14.507  10.923
67273SOL     OW 3592  12.282  13.623   5.844
67273SOL    HW1 3593  12.357  13.627   5.904
67273SOL    HW2 3594  12.206  13.616   5.902
67274SOL     OW 3595  14.036   3.171   5.121
67274SOL    HW1 3596  14.028   3.162   5.216
67274SOL    HW2 3597  13.952   3.141   5.087
67275SOL     OW 3598  12.247   5.745   7.916
67275SOL    HW1 3599  12.302   5.822   7.902
67275SOL    HW2 3600  12.306   5.671   7.903
67276SOL     OW 3601   2.263  14.205   6.274
67276SOL    HW1 3602   2.263  14.263   6.351
67276SOL    HW2 3603   2.332  14.240   6.218
67277SOL     OW 3604   2.982  11.430   7.615
67277SOL    HW1 3605   2.913  11.496   7.622
67277SOL    HW2 3606   2.945  11.351   7.653
67278SOL     OW 3607  14.191   2.387   3.997
67278SOL    HW1 3608  14.228   2.348   4.077
67278SOL    HW2 3609  14.267   2.423   3.951
67279SOL     OW 3610   9.159   6.343  14.665
67279SOL    HW1 3611   9.087   6.407  14.665
67279SOL    HW2 3612   9.118   6.261  14.690
67280SOL     OW 3613   1.692   4.771   2.341
67280SOL    HW1 3614   1.644   4.762   2.424
67280SOL    HW2 3615   1.759   4.837   2.359
67281SOL     OW 3616  10.054   6.771   1.968
67281SOL    HW1 3617  10.121   6.762   1.900
67281SOL    HW2 3618   9.980   6.812   1.922
67282SOL     OW 3619  11.692  11.566   1.741
67282SOL    HW1 3620  11.685  11.641   1.800
67282SOL    HW2 3621  11.782  11.536   1.750
67283SOL     OW 3622   4.326   6.426   3.324
67283SOL    HW1 3623   4.267   6.487   3.367
67283SOL    HW2 3624   4.414   6.459   3.345
67284SOL     OW 3625   6.991  14.049  10.589
67284SOL    HW1 3626   7.073  14.015  10.553
67284SOL    HW2 3627   7.007  14.052  10.684
67285SOL     OW 3628  11.842  13.907  10.085
67285SOL    HW1 3629  11.870  13.993  10.055
67285SOL    HW2 3630  11.749  13.917  10.104
67286SOL     OW 3631   4.920   0.612   9.066
67286SOL    HW1 3632   4.830   0.605   9.033
67286SOL    HW2 3633   4.913   0.671   9.141
67287SOL     OW 3634   0.385  14.427   9.795
67287SOL    HW1 3635   0.452  14.402   9.859
67287SOL    HW2 3636   0.318  14.472   9.848
67288SOL     OW 3637  10.760   3.269   4.851
67288SOL    HW1 3638  10.718   3.336   4.905
67288SOL    HW2 3639  10.730   3.186   4.889
67289SOL     OW 3640   1.603   4.517  13.224
67289SOL    HW1 3641   1.641   4.542  13.140
67289SOL    HW2 3642   1.604   4.421  13.223
67290SOL     OW 3643  11.986  13.691   5.101
67290SOL    HW1 3644  12.032  13.646   5.172
67290SOL    HW2 3645  11.978  13.782   5.132
67291SOL     OW 3646  11.539  10.350   7.393
67291SOL    HW1 3647  11.539  10.343   7.489
67291SOL    HW2 3648  11.545  10.443   7.375
67292SOL     OW 3649   7.839   6.810   2.914
67292SOL    HW1 3650   7.797   6.742   2.966
67292SOL    HW2 3651   7.854   6.770   2.828
67293SOL     OW 3652   2.545   6.040   3.602
67293SOL    HW1 3653   2.491   5.982   3.655
67293SOL    HW2 3654   2.500   6.125   3.605
67294SOL     OW 3655   4.721   9.215   8.854
67294SOL    HW1 3656   4.790   9.225   8.920
67294SOL    HW2 3657   4.692   9.124   8.863
67295SOL     OW 3658   1.820   9.407  10.947
67295SOL    HW1 3659   1.915   9.403  10.961
67295SOL    HW2 3660   1.788   9.321  10.976
67296SOL     OW 3661   5.533  11.926   1.996
67296SOL    HW1 3662   5.475  11.870   1.944
67296SOL    HW2 3663   5.473  11.977   2.051
67297SOL     OW 3664   0.790  11.996   4.711
67297SOL    HW1 3665   0.699  11.995   4.742
67297SOL    HW2 3666   0.815  11.904   4.706
67298SOL     OW 3667   1.310   3.126   8.597
67298SOL    HW1 3668   1.276   3.178   8.525
67298SOL    HW2 3669   1.392   3.089   8.564
67299SOL     OW 3670   6.801  13.261   9.385
67299SOL    HW1 3671   6.848  13.321   9.443
67299SOL    HW2 3672   6.748  13.318   9.330
67300SOL     OW 3673   6.695   7.973   4.600
67300SOL    HW1 3674   6.716   7.896   4.547
67300SOL    HW2 3675   6.743   7.959   4.682
67301SOL     OW 3676   2.142   1.756  13.221
67301SOL    HW1 3677   2.155   1.713  13.136
67301SOL    HW2 3678   2.089   1.832  13.201
67302SOL     OW 3679  11.296  11.909  10.543
67302SOL    HW1 3680  11.211  11.909  10.500
67302SOL    HW2 3681  11.283  11.858  10.623
67303SOL     OW 3682   6.718  11.780   6.181
67303SOL    HW1 3683   6.652  11.745   6.242
67303SOL    HW2 3684   6.718  11.718   6.108
67304SOL     OW 3685   1.426  13.215  11.310
67304SOL    HW1 3686   1.497  13.151  11.313
67304SOL    HW2 3687   1.360  13.175  11.252
67305SOL     OW 3688  10.593   3.199  14.280
67305SOL    HW1 3689  10.582   3.281  14.232
67305SOL    HW2 3690  10.510   3.187  14.326
67306SOL     OW 3691   3.909   2.502   5.288
67306SOL    HW1 3692   3.894   2.596   5.274
67306SOL    HW2 3693   4.003   2.491   5.276
67307SOL     OW 3694   5.043  11.197   6.397
67307SOL    HW1 3695   4.961  11.225   6.357
67307SOL    HW2 3696   5.107  11.263   6.369
67308SOL     OW 3697   1.923   6.745  10.936
67308SOL    HW1 3698   1.925   6.815  10.871
67308SOL    HW2 3699   1.874   6.783  11.010
67309SOL     OW 3700  13.907   6.462   2.648
67309SOL    HW1 3701  13.963   6.497   2.717
67309SOL    HW2 3702  13.831   6.520   2.647
67310SOL     OW 3703  11.945   3.226   3.827
67310SOL    HW1 3704  11.951   3.177   3.745
67310SOL    HW2 3705  12.011   3.295   3.819
67311SOL     OW 3706  11.505   9.274   5.689
67311SOL    HW1 3707  11.426   9.326   5.672
67311SOL    HW2 3708  11.477   9.208   5.752
67312SOL     OW 3709   0.459  10.241  13.294
67312SOL    HW1 3710   0.522  10.171  13.314
67312SOL    HW2 3711   0.513  10.317  13.275
67313SOL     OW 3712  12.769   2.635   1.533
67313SOL    HW1 3713  12.703   2.657   1.466
67313SOL    HW2 3714  12.756   2.542   1.549
67314SOL     OW 3715   2.646  14.021   9.942
67314SOL    HW1 3716   2.595  14.047   9.866
67314SOL    HW2 3717   2.627  14.087  10.008
67315SOL     OW 3718   8.357   5.353   1.897
67315SOL    HW1 3719   8.368   5.364   1.991
67315SOL    HW2 3720   8.445   5.363   1.861
67316SOL     OW 3721   2.307   8.548   9.404
67316SOL    HW1 3722   2.316   8.639   9.433
67316SOL    HW2 3723   2.385   8.531   9.351
67317SOL     OW 3724   6.133   6.189  11.543
67317SOL    HW1 3725   6.201   6.176  11.609
67317SOL    HW2 3726   6.063   6.235  11.589
67318SOL     OW 3727   5.160  14.005  12.755
67318SOL    HW1 3728   5.219  14.080  12.745
67318SOL    HW2 3729   5.169  13.956  12.673
67319SOL     OW 3730   6.507  14.131   1.333
67319SOL    HW1 3731   6.454  14.053   1.348
67319SOL    HW2 3732   6.598  14.099   1.336
67320SOL     OW 3733   1.755   4.527   1.045
67320SOL    HW1 3734   1.833   4.581   1.032
67320SOL    HW2 3735   1.692   4.586   1.087
67321SOL     OW 3736   5.375   2.156   8.102
67321SOL    HW1 3737   5.288   2.163   8.064
67321SOL    HW2 3738   5.361   2.171   8.196
67322SOL     OW 3739   1.254   3.910   2.712
67322SOL    HW1 3740   1.262   3.876   2.623
67322SOL    HW2 3741   1.257   4.005   2.702
67323SOL     OW 3742   6.921   2.400   6.010
67323SOL    HW1 3743   6.985   2.434   5.947
67323SOL    HW2 3744   6.953   2.313   6.031
67324SOL     OW 3745   1.347  14.406  12.331
67324SOL    HW1 3746   1.354  14.448  12.417
67324SOL    HW2 3747   1.293  14.465  12.280
67325SOL     OW 3748   3.802   7.780   0.538
67325SOL    HW1 3749   3.764   7.804   0.622
67325SOL    HW2 3750   3.742   7.817   0.473
67326SOL     OW 3751  11.138   0.791  11.685
67326SOL    HW1 3752  11.077   0.726  11.650
67326SOL    HW2 3753  11.204   0.801  11.616
67327SOL     OW 3754  12.235   3.007   8.766
67327SOL    HW1 3755  12.294   2.932   8.754
67327SOL    HW2 3756  12.168   2.976   8.827
67328SOL     OW 3757   5.079   9.067   7.608
67328SOL    HW1 3758   5.122   9.084   7.691
67328SOL    HW2 3759   4.989   9.043   7.632
67329SOL     OW 3760  13.104   8.450  11.152
67329SOL    HW1 3761  13.125   8.413  11.067
67329SOL    HW2 3762  13.141   8.388  11.215
67330SOL     OW 3763  10.098  13.069   5.470
67330SOL    HW1 3764  10.189  13.041   5.454
67330SOL    HW2 3765  10.106  13.158   5.504
67331SOL     OW 3766   7.551   0.544   4.548
67331SOL    HW1 3767   7.588   0.494   4.620
67331SOL    HW2 3768   7.573   0.492   4.470
67332SOL     OW 3769  11.651   1.922  10.951
67332SOL    HW1 3770  11.598   1.967  10.886
67332SOL    HW2 3771  11.720   1.880  10.901
67333SOL     OW 3772   7.112   8.828   8.100
67333SOL    HW1 3773   7.188   8.771   8.092
67333SOL    HW2 3774   7.040   8.769   8.122
67334SOL     OW 3775  12.429   1.031   4.210
67334SOL    HW1 3776  12.463   1.023   4.121
67334SOL    HW2 3777  12.458   0.951   4.254
67335SOL     OW 3778  11.354   2.420   4.747
67335SOL    HW1 3779  11.288   2.397   4.682
67335SOL    HW2 3780  11.320   2.386   4.830
67336SOL     OW 3781  14.315   9.219   0.434
67336SOL    HW1 3782  14.391   9.170   0.463
67336SOL    HW2 3783  14.314   9.298   0.488
67337SOL     OW 3784   4.619  12.656  12.620
67337SOL    HW1 3785   4.551  12.594  12.647
67337SOL    HW2 3786   4.700  12.622  12.659
67338SOL     OW 3787   3.860   0.018   5.340
67338SOL    HW1 3788   3.896  14.845   5.267
67338SOL    HW2 3789   3.766   0.018   5.325
67339SOL     OW 3790   8.487  11.830   6.955
67339SOL    HW1 3791   8.540  11.877   7.019
67339SOL    HW2 3792   8.397  11.854   6.975
67340SOL     OW 3793   0.606   5.877   3.860
67340SOL    HW1 3794   0.594   5.920   3.775
67340SOL    HW2 3795   0.687   5.914   3.895
67341SOL     OW 3796  11.217   9.329   4.472
67341SOL    HW1 3797  11.189   9.383   4.398
67341SOL    HW2 3798  11.305   9.299   4.449
67342SOL     OW 3799   1.659   2.232   0.769
67342SOL    HW1 3800   1.753   2.234   0.752
67342SOL    HW2 3801   1.639   2.139   0.781
67343SOL     OW 3802   8.264  14.174   4.451
67343SOL    HW1 3803   8.240  14.115   4.379
67343SOL    HW2 3804   8.301  14.117   4.518
67344SOL     OW 3805   4.931  12.629   5.170
67344SOL    HW1 3806   4.957  12.702   5.114
67344SOL    HW2 3807   4.869  12.668   5.232
67345SOL     OW 3808  11.088   6.202   6.799
67345SOL    HW1 3809  11.133   6.140   6.857
67345SOL    HW2 3810  11.157   6.261   6.769
67346SOL     OW 3811  13.154   1.859  14.046
67346SOL    HW1 3812  13.082   1.812  14.087
67346SOL    HW2 3813  13.117   1.892  13.964
67347SOL     OW 3814   7.899   7.960   1.858
67347SOL    HW1 3815   7.922   7.985   1.769
67347SOL    HW2 3816   7.855   7.875   1.849
67348SOL     OW 3817   7.331   8.182   4.705
67348SOL    HW1 3818   7.271   8.199   4.778
67348SOL    HW2 3819   7.418   8.201   4.742
67349SOL     OW 3820   4.903   9.587   0.760
67349SOL    HW1 3821   4.899   9.683   0.764
67349SOL    HW2 3822   4.812   9.560   0.753
67350SOL     OW 3823   7.785  10.427   9.367
67350SOL    HW1 3824   7.833  10.357   9.323
67350SOL    HW2 3825   7.838  10.505   9.351
67351SOL     OW 3826   1.357   5.562  12.380
67351SOL    HW1 3827   1.448   5.592  12.374
67351SOL    HW2 3828   1.310   5.616  12.316
67352SOL     OW 3829   2.458  13.336   2.524
67352SOL    HW1 3830   2.364  13.349   2.541
67352SOL    HW2 3831   2.471  13.366   2.434
67353SOL     OW 3832   9.701   4.840   9.015
67353SOL    HW1 3833   9.740   4.926   8.997
67353SOL    HW2 3834   9.775   4.780   9.017
67354SOL     OW 3835   9.791   0.007   6.821
67354SOL    HW1 3836   9.798   0.048   6.907
67354SOL    HW2 3837   9.876  14.842   6.808
67355SOL     OW 3838  13.499  13.305   1.717
67355SOL    HW1 3839  13.429  13.345   1.769
67355SOL    HW2 3840  13.506  13.216   1.751
67356SOL     OW 3841   7.463   6.527   2.071
67356SOL    HW1 3842   7.467   6.459   2.137
67356SOL    HW2 3843   7.459   6.480   1.988
67357SOL     OW 3844  14.046   4.322   6.401
67357SOL    HW1 3845  13.969   4.372   6.430
67357SOL    HW2 3846  14.091   4.380   6.340
67358SOL     OW 3847  11.336  13.201   7.290
67358SOL    HW1 3848  11.282  13.177   7.215
67358SOL    HW2 3849  11.296  13.281   7.324
67359SOL     OW 3850   1.307   9.981  11.578
67359SOL    HW1 3851   1.380  10.037  11.604
67359SOL    HW2 3852   1.292  10.003  11.486
67360SOL     OW 3853   4.772  10.092   8.921
67360SOL    HW1 3854   4.780  10.187   8.912
67360SOL    HW2 3855   4.715  10.081   8.997
67361SOL     OW 3856   5.252  11.880  12.695
67361SOL    HW1 3857   5.231  11.788  12.682
67361SOL    HW2 3858   5.223  11.923  12.615
67362SOL     OW 3859   0.143   9.143   4.949
67362SOL    HW1 3860   0.073   9.196   4.989
67362SOL    HW2 3861   0.130   9.155   4.855
67363SOL     OW 3862   4.801   6.272   0.897
67363SOL    HW1 3863   4.745   6.348   0.882
67363SOL    HW2 3864   4.741   6.203   0.926
67364SOL     OW 3865   6.733  10.557   0.038
67364SOL    HW1 3866   6.719  10.557  14.821
67364SOL    HW2 3867   6.825  10.580   0.049
67365SOL     OW 3868   8.882   8.189  11.020
67365SOL    HW1 3869   8.879   8.105  10.974
67365SOL    HW2 3870   8.790   8.214  11.030
67366SOL     OW 3871   6.051   6.138   4.894
67366SOL    HW1 3872   5.971   6.182   4.924
67366SOL    HW2 3873   6.033   6.116   4.803
67367SOL     OW 3874   6.332   2.602   3.976
67367SOL    HW1 3875   6.303   2.686   3.939
67367SOL    HW2 3876   6.253   2.565   4.015
67368SOL     OW 3877  10.513   0.554   7.621
67368SOL    HW1 3878  10.536   0.567   7.529
67368SOL    HW2 3879  10.423   0.585   7.627
67369SOL     OW 3880   3.035   1.468  12.589
67369SOL    HW1 3881   2.988   1.388  12.612
67369SOL    HW2 3882   2.967   1.534  12.579
67370SOL     OW 3883   8.806   7.818   3.504
67370SOL    HW1 3884   8.866   7.892   3.505
67370SOL    HW2 3885   8.752   7.829   3.582
67371SOL     OW 3886   3.940   4.141   2.881
67371SOL    HW1 3887   3.983   4.192   2.813
67371SOL    HW2 3888   3.936   4.201   2.956
67372SOL     OW 3889  10.652   7.325   9.347
67372SOL    HW1 3890  10.692   7.249   9.305
67372SOL    HW2 3891  10.561   7.299   9.360
67373SOL     OW 3892   4.878  13.746  12.086
67373SOL    HW1 3893   4.948  13.692  12.123
67373SOL    HW2 3894   4.809  13.684  12.064
67374SOL     OW 3895  13.037  14.500  11.302
67374SOL    HW1 3896  13.115  14.496  11.246
67374SOL    HW2 3897  13.060  14.446  11.377
67375SOL     OW 3898  13.037   8.430  13.189
67375SOL    HW1 3899  13.012   8.518  13.162
67375SOL    HW2 3900  13.113   8.443  13.246
67376SOL     OW 3901   5.627   3.678  14.577
67376SOL    HW1 3902   5.710   3.721  14.597
67376SOL    HW2 3903   5.602   3.636  14.660
67377SOL     OW 3904   5.630   4.189   1.048
67377SOL    HW1 3905   5.548   4.199   0.999
67377SOL    HW2 3906   5.650   4.277   1.080
67378SOL     OW 3907   2.968   6.610   2.769
67378SOL    HW1 3908   3.024   6.597   2.693
67378SOL    HW2 3909   2.897   6.547   2.758
67379SOL     OW 3910   2.201  12.727   7.155
67379SOL    HW1 3911   2.139  12.789   7.117
67379SOL    HW2 3912   2.150  12.680   7.221
67380SOL     OW 3913   9.923   9.931  11.498
67380SOL    HW1 3914   9.924   9.860  11.434
67380SOL    HW2 3915   9.830   9.943  11.519
67381SOL     OW 3916  10.043  13.501   8.171
67381SOL    HW1 3917  10.109  13.449   8.125
67381SOL    HW2 3918   9.975  13.438   8.196
67382SOL     OW 3919  12.638   2.669  10.482
67382SOL    HW1 3920  12.567   2.641  10.424
67382SOL    HW2 3921  12.668   2.752  10.446
67383SOL     OW 3922   0.856   6.025   6.081
67383SOL    HW1 3923   0.918   6.044   6.011
67383SOL    HW2 3924   0.806   5.950   6.048
67384SOL     OW 3925   6.968  12.054  11.940
67384SOL    HW1 3926   6.916  12.079  11.864
67384SOL    HW2 3927   6.967  12.131  11.996
67385SOL     OW 3928   3.591  10.898   8.465
67385SOL    HW1 3929   3.670  10.910   8.413
67385SOL    HW2 3930   3.522  10.943   8.415
67386SOL     OW 3931   6.417  11.857  14.083
67386SOL    HW1 3932   6.470  11.882  14.007
67386SOL    HW2 3933   6.354  11.929  14.093
67387SOL     OW 3934  13.788   1.422   9.226
67387SOL    HW1 3935  13.732   1.360   9.181
67387SOL    HW2 3936  13.766   1.411   9.319
67388SOL     OW 3937   4.160   2.008   9.564
67388SOL    HW1 3938   4.097   2.042   9.501
67388SOL    HW2 3939   4.122   2.028   9.650
67389SOL     OW 3940   9.373  10.951  10.557
67389SOL    HW1 3941   9.435  11.009  10.512
67389SOL    HW2 3942   9.298  10.944  10.498
67390SOL     OW 3943   6.655  12.059  12.043
67390SOL    HW1 3944   6.673  12.129  12.105
67390SOL    HW2 3945   6.625  12.104  11.964
67391SOL     OW 3946   6.166   7.084   1.430
67391SOL    HW1 3947   6.228   7.113   1.497
67391SOL    HW2 3948   6.218   7.032   1.369
67392SOL     OW 3949  10.103   7.845   7.246
67392SOL    HW1 3950  10.099   7.751   7.229
67392SOL    HW2 3951  10.130   7.884   7.163
67393SOL     OW 3952   4.439   4.462  13.304
67393SOL    HW1 3953   4.451   4.556  13.296
67393SOL    HW2 3954   4.390   4.437  13.226
67394SOL     OW 3955   9.732   0.648   1.889
67394SOL    HW1 3956   9.718   0.742   1.883
67394SOL    HW2 3957   9.801   0.637   1.955
67395SOL     OW 3958  11.949   7.303  10.664
67395SOL    HW1 3959  11.946   7.230  10.602
67395SOL    HW2 3960  11.985   7.264  10.744
67396SOL     OW 3961   6.229   6.030   5.640
67396SOL    HW1 3962   6.233   6.123   5.616
67396SOL    HW2 3963   6.142   6.018   5.677
67397SOL     OW 3964   1.049   9.439   1.443
67397SOL    HW1 3965   1.105   9.364   1.466
67397SOL    HW2 3966   1.111   9.508   1.419
67398SOL     OW 3967   1.083  11.440  12.668
67398SOL    HW1 3968   1.172  11.426  12.701
67398SOL    HW2 3969   1.094  11.449  12.573
67399SOL     OW 3970  12.329   1.090   9.595
67399SOL    HW1 3971  12.287   1.174   9.575
67399SOL    HW2 3972  12.262   1.024   9.576
67400SOL     OW 3973   5.074  10.713   4.193
67400SOL    HW1 3974   5.031  10.789   4.155
67400SOL    HW2 3975   5.008  10.675   4.251
67401SOL     OW 3976  10.428   0.707  14.258
67401SOL    HW1 3977  10.414   0.619  14.293
67401SOL    HW2 3978  10.344   0.731  14.219
67402SOL     OW 3979   4.105   3.136   7.876
67402SOL    HW1 3980   4.069   3.120   7.964
67402SOL    HW2 3981   4.111   3.050   7.836
67403SOL     OW 3982   4.114   2.596  10.573
67403SOL    HW1 3983   4.201   2.568  10.543
67403SOL    HW2 3984   4.129   2.681  10.613
67404SOL     OW 3985   9.271   6.008  10.457
67404SOL    HW1 3986   9.330   5.932  10.452
67404SOL    HW2 3987   9.314   6.075  10.403
67405SOL     OW 3988   9.964   6.511   9.140
67405SOL    HW1 3989   9.870   6.526   9.127
67405SOL    HW2 3990   9.973   6.416   9.136
67406SOL     OW 3991  11.132  14.012   2.999
67406SOL    HW1 3992  11.194  14.018   2.927
67406SOL    HW2 3993  11.162  13.937   3.050
67407SOL     OW 3994   8.238  10.275   8.734
67407SOL    HW1 3995   8.300  10.296   8.664
67407SOL    HW2 3996   8.281  10.307   8.814
67408SOL     OW 3997  13.863  13.368   7.871
67408SOL    HW1 3998  13.889  13.432   7.805
67408SOL    HW2 3999  13.937  13.365   7.932
67409SOL     OW 4000   6.978   9.378   9.671
67409SOL    HW1 4001   6.920   9.445   9.707
67409SOL    HW2 4002   7.056   9.427   9.643
67410SOL     OW 4003   9.351   0.687  13.527
67410SOL    HW1 4004   9.298   0.608  13.531
67410SOL    HW2 4005   9.332   0.733  13.608
67411SOL     OW 4006  12.044   4.861   3.390
67411SOL    HW1 4007  12.100   4.903   3.325
67411SOL    HW2 4008  12.034   4.927   3.459
67412SOL     OW 4009  10.113   6.537  14.620
67412SOL    HW1 4010  10.177   6.601  14.588
67412SOL    HW2 4011  10.057   6.520  14.544
67413SOL     OW 4012   2.321   5.853   1.800
67413SOL    HW1 4013   2.328   5.802   1.881
67413SOL    HW2 4014   2.242   5.820   1.758
67414SOL     OW 4015   8.115   2.027  13.496
67414SOL    HW1 4016   8.119   1.932  13.504
67414SOL    HW2 4017   8.086   2.042  13.406
67415SOL     OW 4018   8.538   7.538  14.434
67415SOL    HW1 4019   8.619   7.563  14.479
67415SOL    HW2 4020   8.484   7.498  14.502
67416SOL     OW 4021   7.807  13.971   9.632
67416SOL    HW1 4022   7.747  13.962   9.557
67416SOL    HW2 4023   7.750  13.976   9.708
67417SOL     OW 4024   8.077   9.834  14.205
67417SOL    HW1 4025   8.017   9.905  14.225
67417SOL    HW2 4026   8.072   9.823  14.110
67418SOL     OW 4027  14.589  14.392   4.886
67418SOL    HW1 4028  14.518  14.339   4.923
67418SOL    HW2 4029  14.548  14.477   4.870
67419SOL     OW 4030   5.147   2.292   5.576
67419SOL    HW1 4031   5.181   2.373   5.614
67419SOL    HW2 4032   5.216   2.228   5.590
67420SOL     OW 4033  12.783   1.244   0.035
67420SOL    HW1 4034  12.876   1.241   0.060
67420SOL    HW2 4035  12.782   1.288  14.828
67421SOL     OW 4036  13.328   1.370  11.848
67421SOL    HW1 4037  13.382   1.358  11.771
67421SOL    HW2 4038  13.383   1.422  11.908
67422SOL     OW 4039   7.292  11.343   2.036
67422SOL    HW1 4040   7.334  11.288   1.970
67422SOL    HW2 4041   7.260  11.419   1.988
67423SOL     OW 4042  14.231  12.728   2.710
67423SOL    HW1 4043  14.204  12.705   2.799
67423SOL    HW2 4044  14.210  12.821   2.701
67424SOL     OW 4045   7.940   2.232   1.664
67424SOL    HW1 4046   7.877   2.265   1.601
67424SOL    HW2 4047   7.985   2.160   1.620
67425SOL     OW 4048   2.002   7.466  10.295
67425SOL    HW1 4049   1.994   7.505  10.382
67425SOL    HW2 4050   2.053   7.530  10.245
67426SOL     OW 4051   7.286   5.346  10.354
67426SOL    HW1 4052   7.270   5.260  10.394
67426SOL    HW2 4053   7.369   5.374  10.390
67427SOL     OW 4054   2.756   5.148   6.448
67427SOL    HW1 4055   2.789   5.068   6.407
67427SOL    HW2 4056   2.771   5.134   6.542
67428SOL     OW 4057  14.831   6.718   6.643
67428SOL    HW1 4058   0.022   6.737   6.707
67428SOL    HW2 4059   0.002   6.695   6.563
67429SOL     OW 4060  14.653   8.119   5.749
67429SOL    HW1 4061  14.731   8.168   5.773
67429SOL    HW2 4062  14.654   8.043   5.807
67430SOL     OW 4063   6.443   1.356   9.025
67430SOL    HW1 4064   6.385   1.314   9.088
67430SOL    HW2 4065   6.499   1.284   8.993
67431SOL     OW 4066   3.231  11.458   9.831
67431SOL    HW1 4067   3.244  11.552   9.818
67431SOL    HW2 4068   3.171  11.452   9.905
67432SOL     OW 4069  11.004  11.878   9.113
67432SOL    HW1 4070  11.094  11.892   9.084
67432SOL    HW2 4071  10.963  11.829   9.041
67433SOL     OW 4072  13.584  12.547  11.247
67433SOL    HW1 4073  13.587  12.523  11.340
67433SOL    HW2 4074  13.567  12.465  11.202
67434SOL     OW 4075   5.688   7.309   2.912
67434SOL    HW1 4076   5.647   7.395   2.918
67434SOL    HW2 4077   5.615   7.247   2.918
67435SOL     OW 4078   6.197   3.409   4.766
67435SOL    HW1 4079   6.127   3.438   4.707
67435SOL    HW2 4080   6.216   3.320   4.737
67436SOL     OW 4081   2.488  10.231   5.203
67436SOL    HW1 4082   2.503  10.171   5.130
67436SOL    HW2 4083   2.575  10.249   5.238
67437SOL     OW 4084   2.385   9.243  10.922
67437SOL    HW1 4085   2.406   9.336  10.916
67437SOL    HW2 4086   2.458   9.204  10.970
67438SOL     OW 4087   5.239  11.652   4.882
67438SOL    HW1 4088   5.262  11.626   4.793
67438SOL    HW2 4089   5.318  11.693   4.916
67439SOL     OW 4090   3.126   8.945   9.870
67439SOL    HW1 4091   3.074   8.865   9.861
67439SOL    HW2 4092   3.209   8.915   9.909
67440SOL     OW 4093   4.886  11.325  10.246
67440SOL    HW1 4094   4.929  11.360  10.324
67440SOL    HW2 4095   4.837  11.399  10.210
67441SOL     OW 4096  10.052   4.993   2.062
67441SOL    HW1 4097  10.014   4.907   2.077
67441SOL    HW2 4098  10.001   5.030   1.990
67442SOL     OW 4099  10.355  11.079  12.165
67442SOL    HW1 4100  10.375  11.025  12.241
67442SOL    HW2 4101  10.433  11.074  12.110
67443SOL     OW 4102   6.422  14.355   9.585
67443SOL    HW1 4103   6.494  14.393   9.534
67443SOL    HW2 4104   6.349  14.352   9.523
67444SOL     OW 4105  10.091   5.306   2.961
67444SOL    HW1 4106  10.023   5.322   3.027
67444SOL    HW2 4107  10.152   5.378   2.972
67445SOL     OW 4108   0.230   3.690  10.055
67445SOL    HW1 4109   0.180   3.609  10.046
67445SOL    HW2 4110   0.165   3.759  10.053
67446SOL     OW 4111   1.686   9.015  12.791
67446SOL    HW1 4112   1.664   8.969  12.871
67446SOL    HW2 4113   1.604   9.055  12.763
67447SOL     OW 4114  11.942  12.761  10.449
67447SOL    HW1 4115  11.967  12.694  10.385
67447SOL    HW2 4116  11.846  12.764  10.443
67448SOL     OW 4117   8.512   2.787   2.650
67448SOL    HW1 4118   8.555   2.778   2.735
67448SOL    HW2 4119   8.421   2.810   2.671
67449SOL     OW 4120   2.835   4.694   1.428
67449SOL    HW1 4121   2.863   4.641   1.502
67449SOL    HW2 4122   2.872   4.781   1.445
67450SOL     OW 4123   6.745   3.385   5.160
67450SOL    HW1 4124   6.784   3.303   5.193
67450SOL    HW2 4125   6.655   3.383   5.190
67451SOL     OW 4126   1.589  13.179   8.290
67451SOL    HW1 4127   1.540  13.192   8.371
67451SOL    HW2 4128   1.673  13.144   8.319
67452SOL     OW 4129   4.014   0.067   7.873
67452SOL    HW1 4130   3.972   0.099   7.793
67452SOL    HW2 4131   3.984   0.126   7.941
67453SOL     OW 4132   7.409   1.309   6.258
67453SOL    HW1 4133   7.458   1.332   6.337
67453SOL    HW2 4134   7.351   1.383   6.244
67454SOL     OW 4135   9.884  11.706   4.405
67454SOL    HW1 4136   9.829  11.644   4.453
67454SOL    HW2 4137   9.841  11.716   4.320
67455SOL     OW 4138   5.030   8.608   0.896
67455SOL    HW1 4139   5.091   8.565   0.955
67455SOL    HW2 4140   4.988   8.536   0.848
67456SOL     OW 4141   5.673  14.529  11.051
67456SOL    HW1 4142   5.754  14.575  11.074
67456SOL    HW2 4143   5.672  14.452  11.107
67457SOL     OW 4144  14.815   9.798   7.369
67457SOL    HW1 4145  14.871   9.722   7.350
67457SOL    HW2 4146  14.797   9.836   7.283
67458SOL     OW 4147   2.587  13.109   7.205
67458SOL    HW1 4148   2.568  13.073   7.291
67458SOL    HW2 4149   2.636  13.040   7.160
67459SOL     OW 4150   6.851   8.778   3.921
67459SOL    HW1 4151   6.880   8.755   4.009
67459SOL    HW2 4152   6.847   8.695   3.874
67460SOL     OW 4153  11.176  14.119   8.664
67460SOL    HW1 4154  11.138  14.207   8.656
67460SOL    HW2 4155  11.180  14.086   8.575
67461SOL     OW 4156  12.955  10.355   4.223
67461SOL    HW1 4157  12.970  10.340   4.317
67461SOL    HW2 4158  13.030  10.408   4.195
67462SOL     OW 4159   3.544   9.277   2.237
67462SOL    HW1 4160   3.477   9.287   2.169
67462SOL    HW2 4161   3.572   9.366   2.257
67463SOL     OW 4162   2.635   3.220   6.385
67463SOL    HW1 4163   2.689   3.159   6.435
67463SOL    HW2 4164   2.609   3.287   6.449
67464SOL     OW 4165   1.116   6.342   8.718
67464SOL    HW1 4166   1.136   6.314   8.807
67464SOL    HW2 4167   1.056   6.276   8.684
67465SOL     OW 4168   6.766   1.936  11.456
67465SOL    HW1 4169   6.723   1.855  11.483
67465SOL    HW2 4170   6.825   1.910  11.386
67466SOL     OW 4171   1.338  12.232   8.277
67466SOL    HW1 4172   1.393  12.155   8.290
67466SOL    HW2 4173   1.377  12.277   8.202
67467SOL     OW 4174   6.202   3.870  14.745
67467SOL    HW1 4175   6.176   3.962  14.744
67467SOL    HW2 4176   6.211   3.847  14.652
67468SOL     OW 4177   9.845   5.409   8.518
67468SOL    HW1 4178   9.843   5.343   8.588
67468SOL    HW2 4179   9.898   5.369   8.450
67469SOL     OW 4180   8.620  13.168  10.491
67469SOL    HW1 4181   8.592  13.210  10.410
67469SOL    HW2 4182   8.602  13.234  10.559
67470SOL     OW 4183   7.734   3.616   6.515
67470SOL    HW1 4184   7.806   3.552   6.518
67470SOL    HW2 4185   7.669   3.580   6.575
67471SOL     OW 4186   7.838   2.194   3.762
67471SOL    HW1 4187   7.761   2.240   3.794
67471SOL    HW2 4188   7.901   2.199   3.834
67472SOL     OW 4189   5.616   9.324   4.178
67472SOL    HW1 4190   5.698   9.290   4.214
67472SOL    HW2 4191   5.557   9.329   4.253
67473SOL     OW 4192  10.103  14.864  12.823
67473SOL    HW1 4193  10.110   0.074  12.784
67473SOL    HW2 4194  10.016  14.862  12.863
67474SOL     OW 4195   3.024   0.191  11.794
67474SOL    HW1 4196   3.081   0.251  11.843
67474SOL    HW2 4197   3.064   0.185  11.708
67475SOL     OW 4198   9.060   5.840   4.073
67475SOL    HW1 4199   8.979   5.887   4.093
67475SOL    HW2 4200   9.038   5.784   3.999
67476SOL     OW 4201   5.211   3.883   9.046
67476SOL    HW1 4202   5.276   3.832   9.094
67476SOL    HW2 4203   5.147   3.910   9.112
67477SOL     OW 4204  14.084   8.635  10.351
67477SOL    HW1 4205  13.998   8.641  10.309
67477SOL    HW2 4206  14.146   8.651  10.280
67478SOL     OW 4207   3.924   1.248  12.722
67478SOL    HW1 4208   4.003   1.296  12.746
67478SOL    HW2 4209   3.889   1.294  12.646
67479SOL     OW 4210   5.849   1.452   3.809
67479SOL    HW1 4211   5.845   1.430   3.716
67479SOL    HW2 4212   5.820   1.543   3.813
67480SOL     OW 4213  13.401  14.805   8.220
67480SOL    HW1 4214  13.312  14.802   8.184
67480SOL    HW2 4215  13.389  14.844   8.307
67481SOL     OW 4216   6.388   7.166  11.545
67481SOL    HW1 4217   6.404   7.196  11.634
67481SOL    HW2 4218   6.476   7.160  11.506
67482SOL     OW 4219   1.793   5.108   4.739
67482SOL    HW1 4220   1.751   5.081   4.657
67482SOL    HW2 4221   1.734   5.174   4.775
67483SOL     OW 4222  11.034   4.919  14.591
67483SOL    HW1 4223  11.071   4.922  14.503
67483SOL    HW2 4224  10.945   4.886  14.579
67484SOL     OW 4225  10.500  13.141   6.856
67484SOL    HW1 4226  10.523  13.171   6.768
67484SOL    HW2 4227  10.577  13.164   6.910
67485SOL     OW 4228   8.611   4.058   6.797
67485SOL    HW1 4229   8.684   4.052   6.735
67485SOL    HW2 4230   8.551   3.989   6.770
67486SOL     OW 4231   3.726   7.919   3.120
67486SOL    HW1 4232   3.821   7.925   3.127
67486SOL    HW2 4233   3.694   7.950   3.204
67487SOL     OW 4234   7.432  10.401   4.029
67487SOL    HW1 4235   7.415  10.485   3.986
67487SOL    HW2 4236   7.349  10.378   4.071
67488SOL     OW 4237   0.785   7.782   5.168
67488SOL    HW1 4238   0.802   7.699   5.123
67488SOL    HW2 4239   0.796   7.848   5.100
67489SOL     OW 4240   5.280  11.659   2.230
67489SOL    HW1 4241   5.204  11.708   2.200
67489SOL    HW2 4242   5.326  11.633   2.151
67490SOL     OW 4243   4.133  11.324   7.796
67490SOL    HW1 4244   4.102  11.281   7.876
67490SOL    HW2 4245   4.148  11.415   7.821
67491SOL     OW 4246   1.280   2.642  12.483
67491SOL    HW1 4247   1.240   2.713  12.434
67491SOL    HW2 4248   1.209   2.605  12.535
67492SOL     OW 4249  13.959   1.213   3.037
67492SOL    HW1 4250  13.882   1.268   3.054
67492SOL    HW2 4251  13.981   1.176   3.123
67493SOL     OW 4252   2.468   1.453  13.186
67493SOL    HW1 4253   2.547   1.408  13.155
67493SOL    HW2 4254   2.450   1.518  13.118
67494SOL     OW 4255   8.312  14.367   4.099
67494SOL    HW1 4256   8.364  14.299   4.057
67494SOL    HW2 4257   8.253  14.398   4.031
67495SOL     OW 4258   6.276  11.356  12.864
67495SOL    HW1 4259   6.308  11.442  12.838
67495SOL    HW2 4260   6.279  11.304  12.783
67496SOL     OW 4261   8.558   3.070   3.649
67496SOL    HW1 4262   8.589   3.151   3.688
67496SOL    HW2 4263   8.523   3.095   3.563
67497SOL     OW 4264  13.521   3.834   9.261
67497SOL    HW1 4265  13.459   3.862   9.193
67497SOL    HW2 4266  13.504   3.892   9.335
67498SOL     OW 4267   0.675   5.941  12.924
67498SOL    HW1 4268   0.679   6.036  12.937
67498SOL    HW2 4269   0.735   5.924  12.851
67499SOL     OW 4270  12.385   9.234   2.626
67499SOL    HW1 4271  12.389   9.159   2.566
67499SOL    HW2 4272  12.325   9.295   2.583
67500SOL     OW 4273   3.755   9.584  14.536
67500SOL    HW1 4274   3.843   9.621  14.545
67500SOL    HW2 4275   3.739   9.580  14.442
67501SOL     OW 4276  14.812   5.137  13.433
67501SOL    HW1 4277  14.729   5.185  13.437
67501SOL    HW2 4278  14.788   5.047  13.413
67502SOL     OW 4279   2.163   1.791  11.120
67502SOL    HW1 4280   2.255   1.786  11.144
67502SOL    HW2 4281   2.161   1.848  11.043
67503SOL     OW 4282  13.570  14.745   0.314
67503SOL    HW1 4283  13.639  14.812   0.320
67503SOL    HW2 4284  13.520  14.754   0.395
67504SOL     OW 4285   4.978  10.063   6.723
67504SOL    HW1 4286   4.903  10.116   6.696
67504SOL    HW2 4287   4.942  10.002   6.788
67505SOL     OW 4288   8.207  12.208   8.748
67505SOL    HW1 4289   8.275  12.233   8.686
67505SOL    HW2 4290   8.211  12.274   8.817
67506SOL     OW 4291   7.367  13.738  10.092
67506SOL    HW1 4292   7.394  13.693  10.011
67506SOL    HW2 4293   7.312  13.674  10.136
67507SOL     OW 4294   0.445   0.483   6.350
67507SOL    HW1 4295   0.384   0.453   6.282
67507SOL    HW2 4296   0.396   0.475   6.432
67508SOL     OW 4297   9.350  14.652   1.176
67508SOL    HW1 4298   9.362  14.678   1.267
67508SOL    HW2 4299   9.394  14.567   1.169
67509SOL     OW 4300  12.290  10.346   2.632
67509SOL    HW1 4301  12.350  10.322   2.703
67509SOL    HW2 4302  12.241  10.422   2.666
67510SOL     OW 4303   6.270   6.888   5.422
67510SOL    HW1 4304   6.189   6.839   5.405
67510SOL    HW2 4305   6.259   6.969   5.371
67511SOL     OW 4306   8.110   6.529   4.494
67511SOL    HW1 4307   8.169   6.533   4.569
67511SOL    HW2 4308   8.153   6.582   4.426
67512SOL     OW 4309  12.429   1.382   8.626
67512SOL    HW1 4310  12.340   1.411   8.649
67512SOL    HW2 4311  12.423   1.361   8.533
67513SOL     OW 4312  12.601   2.627  10.958
67513SOL    HW1 4313  12.606   2.590  10.870
67513SOL    HW2 4314  12.587   2.552  11.015
67514SOL     OW 4315   1.598   7.923   1.749
67514SOL    HW1 4316   1.664   7.947   1.813
67514SOL    HW2 4317   1.514   7.941   1.792
67515SOL     OW 4318   7.347  12.218   9.560
67515SOL    HW1 4319   7.401  12.140   9.575
67515SOL    HW2 4320   7.410  12.286   9.539
67516SOL     OW 4321   2.908   3.371  10.797
67516SOL    HW1 4322   2.982   3.377  10.857
67516SOL    HW2 4323   2.945   3.338  10.715
67517SOL     OW 4324   7.124   6.404   8.997
67517SOL    HW1 4325   7.191   6.390   8.931
67517SOL    HW2 4326   7.085   6.317   9.011
67518SOL     OW 4327   2.034   5.782  10.990
67518SOL    HW1 4328   2.051   5.707  10.933
67518SOL    HW2 4329   2.090   5.767  11.066
67519SOL     OW 4330   4.772   1.746  14.460
67519SOL    HW1 4331   4.806   1.732  14.372
67519SOL    HW2 4332   4.733   1.833  14.457
67520SOL     OW 4333   0.527   8.081  10.027
67520SOL    HW1 4334   0.470   8.043   9.960
67520SOL    HW2 4335   0.475   8.077  10.107
67521SOL     OW 4336   4.174  12.874   9.892
67521SOL    HW1 4337   4.125  12.856   9.812
67521SOL    HW2 4338   4.118  12.840   9.962
67522SOL     OW 4339   6.666   1.705   1.405
67522SOL    HW1 4340   6.713   1.627   1.374
67522SOL    HW2 4341   6.585   1.706   1.354
67523SOL     OW 4342   8.629   9.808   6.881
67523SOL    HW1 4343   8.603   9.882   6.825
67523SOL    HW2 4344   8.585   9.732   6.841
67524SOL     OW 4345   5.894  12.376   6.944
67524SOL    HW1 4346   5.920  12.287   6.919
67524SOL    HW2 4347   5.915  12.382   7.037
67525SOL     OW 4348  10.716  13.812  10.512
67525SOL    HW1 4349  10.668  13.861  10.445
67525SOL    HW2 4350  10.650  13.753  10.549
67526SOL     OW 4351   8.630   7.429   2.546
67526SOL    HW1 4352   8.686   7.506   2.557
67526SOL    HW2 4353   8.569   7.452   2.476
67527SOL     OW 4354   1.929   2.366  14.523
67527SOL    HW1 4355   1.877   2.421  14.465
67527SOL    HW2 4356   1.973   2.304  14.464
67528SOL     OW 4357   0.497   5.218  11.572
67528SOL    HW1 4358   0.476   5.304  11.536
67528SOL    HW2 4359   0.415   5.168  11.565
67529SOL     OW 4360   9.079   1.241   4.211
67529SOL    HW1 4361   9.164   1.269   4.244
67529SOL    HW2 4362   9.084   1.252   4.116
67530SOL     OW 4363   4.791  13.598   4.362
67530SOL    HW1 4364   4.746  13.561   4.287
67530SOL    HW2 4365   4.767  13.541   4.435
67531SOL     OW 4366   0.785   2.870   5.542
67531SOL    HW1 4367   0.847   2.850   5.613
67531SOL    HW2 4368   0.733   2.943   5.576
67532SOL     OW 4369   7.910   0.450   9.043
67532SOL    HW1 4370   7.869   0.371   9.009
67532SOL    HW2 4371   7.838   0.497   9.087
67533SOL     OW 4372   4.914  12.025  12.733
67533SOL    HW1 4373   4.979  11.956  12.747
67533SOL    HW2 4374   4.896  12.059  12.820
67534SOL     OW 4375  11.891  13.584   6.727
67534SOL    HW1 4376  11.884  13.574   6.822
67534SOL    HW2 4377  11.811  13.631   6.702
67535SOL     OW 4378   6.304   1.624   7.877
67535SOL    HW1 4379   6.213   1.612   7.851
67535SOL    HW2 4380   6.328   1.710   7.844
67536SOL     OW 4381   2.564   8.551   9.312
67536SOL    HW1 4382   2.541   8.533   9.221
67536SOL    HW2 4383   2.640   8.494   9.329
67537SOL     OW 4384   4.686  11.322   5.926
67537SOL    HW1 4385   4.672  11.374   6.006
67537SOL    HW2 4386   4.781  11.308   5.923
67538SOL     OW 4387  14.194   0.660  10.425
67538SOL    HW1 4388  14.140   0.587  10.396
67538SOL    HW2 4389  14.133   0.718  10.472
67539SOL     OW 4390   2.381   1.218   6.326
67539SOL    HW1 4391   2.402   1.151   6.261
67539SOL    HW2 4392   2.398   1.301   6.281
67540SOL     OW 4393  13.183   9.686   0.420
67540SOL    HW1 4394  13.243   9.652   0.353
67540SOL    HW2 4395  13.240   9.735   0.481
67541SOL     OW 4396   0.889   3.358   1.256
67541SOL    HW1 4397   0.845   3.320   1.179
67541SOL    HW2 4398   0.909   3.448   1.229
67542SOL     OW 4399  12.503   5.278   0.203
67542SOL    HW1 4400  12.444   5.203   0.212
67542SOL    HW2 4401  12.507   5.316   0.291
67543SOL     OW 4402   6.924  14.270   6.112
67543SOL    HW1 4403   7.006  14.316   6.096
67543SOL    HW2 4404   6.884  14.261   6.025
67544SOL     OW 4405  10.154   8.458   8.946
67544SOL    HW1 4406  10.123   8.542   8.913
67544SOL    HW2 4407  10.154   8.401   8.868
67545SOL     OW 4408   4.178   2.080   8.474
67545SOL    HW1 4409   4.086   2.071   8.451
67545SOL    HW2 4410   4.206   1.992   8.497
67546SOL     OW 4411  14.096  12.065  10.542
67546SOL    HW1 4412  14.086  12.119  10.463
67546SOL    HW2 4413  14.077  12.124  10.614
67547SOL     OW 4414  13.880   6.550   4.121
67547SOL    HW1 4415  13.877   6.506   4.036
67547SOL    HW2 4416  13.913   6.638   4.102
67548SOL     OW 4417   4.366   4.330   3.379
67548SOL    HW1 4418   4.302   4.346   3.448
67548SOL    HW2 4419   4.377   4.235   3.377
67549SOL     OW 4420  11.161   5.005   0.825
67549SOL    HW1 4421  11.076   4.961   0.820
67549SOL    HW2 4422  11.163   5.042   0.913
67550SOL     OW 4423   8.141  10.332   9.369
67550SOL    HW1 4424   8.188  10.410   9.340
67550SOL    HW2 4425   8.210  10.265   9.379
67551SOL     OW 4426   5.621   6.146   6.049
67551SOL    HW1 4427   5.531   6.175   6.038
67551SOL    HW2 4428   5.669   6.187   5.976
67552SOL     OW 4429  11.446  10.847  14.048
67552SOL    HW1 4430  11.361  10.828  14.010
67552SOL    HW2 4431  11.467  10.770  14.100
67553SOL     OW 4432  13.991  14.202   7.283
67553SOL    HW1 4433  13.918  14.163   7.236
67553SOL    HW2 4434  13.980  14.296   7.270
67554SOL     OW 4435  10.199   7.776   0.479
67554SOL    HW1 4436  10.171   7.859   0.518
67554SOL    HW2 4437  10.166   7.709   0.539
67555SOL     OW 4438   1.781   6.968   2.330
67555SOL    HW1 4439   1.762   6.983   2.423
67555SOL    HW2 4440   1.873   6.995   2.320
67556SOL     OW 4441  13.778  10.536   5.677
67556SOL    HW1 4442  13.798  10.619   5.635
67556SOL    HW2 4443  13.700  10.504   5.632
67557SOL     OW 4444   6.193   7.846   6.321
67557SOL    HW1 4445   6.161   7.877   6.405
67557SOL    HW2 4446   6.215   7.754   6.336
67558SOL     OW 4447   2.667   6.710   2.775
67558SOL    HW1 4448   2.662   6.615   2.781
67558SOL    HW2 4449   2.754   6.728   2.739
67559SOL     OW 4450   0.915  14.579  11.904
67559SOL    HW1 4451   0.830  14.535  11.894
67559SOL    HW2 4452   0.932  14.617  11.817
67560SOL     OW 4453  14.103   2.891   2.358
67560SOL    HW1 4454  14.029   2.879   2.297
67560SOL    HW2 4455  14.173   2.926   2.303
67561SOL     OW 4456  13.166   9.554   4.146
67561SOL    HW1 4457  13.201   9.618   4.208
67561SOL    HW2 4458  13.215   9.473   4.165
67562SOL     OW 4459  10.676   3.945   8.487
67562SOL    HW1 4460  10.708   3.874   8.543
67562SOL    HW2 4461  10.747   3.958   8.424
67563SOL     OW 4462   4.695  10.789   5.460
67563SOL    HW1 4463   4.725  10.753   5.377
67563SOL    HW2 4464   4.646  10.868   5.436
67564SOL     OW 4465  13.641  13.541   3.943
67564SOL    HW1 4466  13.575  13.599   3.982
67564SOL    HW2 4467  13.654  13.473   4.009
67565SOL     OW 4468  11.534   1.430   6.633
67565SOL    HW1 4469  11.511   1.433   6.540
67565SOL    HW2 4470  11.452   1.449   6.678
67566SOL     OW 4471   0.138   3.083   4.547
67566SOL    HW1 4472   0.088   3.059   4.626
67566SOL    HW2 4473   0.222   3.112   4.581
67567SOL     OW 4474   0.741   1.351   7.727
67567SOL    HW1 4475   0.688   1.340   7.806
67567SOL    HW2 4476   0.820   1.300   7.743
67568SOL     OW 4477   6.969   9.012   7.944
67568SOL    HW1 4478   6.878   9.011   7.975
67568SOL    HW2 4479   7.021   8.984   8.019
67569SOL     OW 4480   4.266   6.079  12.920
67569SOL    HW1 4481   4.259   6.009  12.856
67569SOL    HW2 4482   4.337   6.051  12.978
67570SOL     OW 4483   4.886   5.527   0.783
67570SOL    HW1 4484   4.891   5.612   0.739
67570SOL    HW2 4485   4.918   5.465   0.718
67571SOL     OW 4486  10.170   3.455   5.000
67571SOL    HW1 4487  10.247   3.503   4.970
67571SOL    HW2 4488  10.201   3.405   5.076
67572SOL     OW 4489   2.809   4.847   2.723
67572SOL    HW1 4490   2.718   4.821   2.740
67572SOL    HW2 4491   2.806   4.943   2.723
67573SOL     OW 4492  12.994  12.109  12.743
67573SOL    HW1 4493  12.937  12.185  12.734
67573SOL    HW2 4494  12.940  12.035  12.715
67574SOL     OW 4495   2.245   4.881   8.448
67574SOL    HW1 4496   2.245   4.971   8.480
67574SOL    HW2 4497   2.329   4.845   8.476
67575SOL     OW 4498  12.084   5.883   1.541
67575SOL    HW1 4499  12.012   5.836   1.583
67575SOL    HW2 4500  12.093   5.842   1.456
67576SOL     OW 4501   5.778  14.091   4.205
67576SOL    HW1 4502   5.684  14.095   4.190
67576SOL    HW2 4503   5.809  14.023   4.146
67577SOL     OW 4504  12.744   1.300   7.399
67577SOL    HW1 4505  12.743   1.391   7.368
67577SOL    HW2 4506  12.787   1.251   7.329
67578SOL     OW 4507   3.473  13.883   9.214
67578SOL    HW1 4508   3.412  13.840   9.154
67578SOL    HW2 4509   3.429  13.882   9.299
67579SOL     OW 4510  11.576   1.375   9.300
67579SOL    HW1 4511  11.519   1.447   9.275
67579SOL    HW2 4512  11.662   1.398   9.265
67580SOL     OW 4513  12.985   6.883  12.829
67580SOL    HW1 4514  12.962   6.799  12.788
67580SOL    HW2 4515  13.081   6.881  12.835
67581SOL     OW 4516   3.299   9.954   5.168
67581SOL    HW1 4517   3.386   9.917   5.154
67581SOL    HW2 4518   3.239   9.890   5.130
67582SOL     OW 4519  10.968   3.394  13.830
67582SOL    HW1 4520  10.965   3.465  13.766
67582SOL    HW2 4521  10.994   3.317  13.779
67583SOL     OW 4522  14.316  10.395   4.630
67583SOL    HW1 4523  14.377  10.351   4.571
67583SOL    HW2 4524  14.366  10.466   4.668
67584SOL     OW 4525   2.825   9.154   7.557
67584SOL    HW1 4526   2.740   9.190   7.582
67584SOL    HW2 4527   2.858   9.214   7.489
67585SOL     OW 4528  13.244   1.604   2.773
67585SOL    HW1 4529  13.151   1.592   2.759
67585SOL    HW2 4530  13.284   1.523   2.742
67586SOL     OW 4531  10.758   2.296   3.271
67586SOL    HW1 4532  10.852   2.294   3.250
67586SOL    HW2 4533  10.719   2.339   3.194
67587SOL     OW 4534   1.688   2.139  13.461
67587SOL    HW1 4535   1.774   2.145  13.419
67587SOL    HW2 4536   1.666   2.229  13.483
67588SOL     OW 4537   3.143   3.146   2.091
67588SOL    HW1 4538   3.228   3.178   2.062
67588SOL    HW2 4539   3.107   3.101   2.014
67589SOL     OW 4540   5.914   4.356   7.431
67589SOL    HW1 4541   5.945   4.418   7.497
67589SOL    HW2 4542   5.868   4.410   7.366
67590SOL     OW 4543  12.441   2.645  11.985
67590SOL    HW1 4544  12.434   2.734  12.019
67590SOL    HW2 4545  12.361   2.601  12.016
67591SOL     OW 4546   7.015   3.131  13.442
67591SOL    HW1 4547   6.965   3.213  13.441
67591SOL    HW2 4548   6.962   3.071  13.494
67592SOL     OW 4549  10.825  10.485   1.847
67592SOL    HW1 4550  10.799  10.505   1.937
67592SOL    HW2 4551  10.757  10.526   1.793
67593SOL     OW 4552  10.452   6.133  11.844
67593SOL    HW1 4553  10.414   6.096  11.924
67593SOL    HW2 4554  10.461   6.227  11.863
67594SOL     OW 4555  10.653   2.762   1.713
67594SOL    HW1 4556  10.630   2.847   1.675
67594SOL    HW2 4557  10.593   2.752   1.787
67595SOL     OW 4558   1.458  11.906   7.919
67595SOL    HW1 4559   1.552  11.893   7.908
67595SOL    HW2 4560   1.426  11.927   7.831
67596SOL     OW 4561  12.402   8.363   3.659
67596SOL    HW1 4562  12.384   8.441   3.712
67596SOL    HW2 4563  12.440   8.397   3.578
67597SOL     OW 4564   6.154   1.374   1.106
67597SOL    HW1 4565   6.246   1.353   1.088
67597SOL    HW2 4566   6.137   1.451   1.052
67598SOL     OW 4567  13.200   9.916  11.370
67598SOL    HW1 4568  13.168   9.928  11.280
67598SOL    HW2 4569  13.209  10.004  11.405
67599SOL     OW 4570  10.227   6.385  12.406
67599SOL    HW1 4571  10.259   6.382  12.316
67599SOL    HW2 4572  10.177   6.303  12.416
67600SOL     OW 4573   7.441   7.310  10.305
67600SOL    HW1 4574   7.419   7.222  10.335
67600SOL    HW2 4575   7.385   7.367  10.358
67601SOL     OW 4576   6.825   6.549   5.550
67601SOL    HW1 4577   6.861   6.482   5.608
67601SOL    HW2 4578   6.732   6.555   5.574
67602SOL     OW 4579   1.073   0.793   6.972
67602SOL    HW1 4580   1.016   0.724   7.005
67602SOL    HW2 4581   1.162   0.763   6.993
67603SOL     OW 4582   3.135  11.343  12.978
67603SOL    HW1 4583   3.119  11.432  13.010
67603SOL    HW2 4584   3.061  11.323  12.922
67604SOL     OW 4585   9.060  12.650   1.230
67604SOL    HW1 4586   9.032  12.671   1.319
67604SOL    HW2 4587   8.980  12.651   1.179
67605SOL     OW 4588  11.945  13.370  13.259
67605SOL    HW1 4589  11.995  13.425  13.200
67605SOL    HW2 4590  12.005  13.351  13.332
67606SOL     OW 4591  11.117   8.779   2.321
67606SOL    HW1 4592  11.139   8.700   2.371
67606SOL    HW2 4593  11.045   8.819   2.370
67607SOL     OW 4594   9.543  11.067   9.392
67607SOL    HW1 4595   9.511  10.989   9.345
67607SOL    HW2 4596   9.638  11.061   9.386
67608SOL     OW 4597  13.177   4.236   2.407
67608SOL    HW1 4598  13.220   4.220   2.491
67608SOL    HW2 4599  13.218   4.315   2.373
67609SOL     OW 4600   4.841   7.030  12.443
67609SOL    HW1 4601   4.781   7.104  12.435
67609SOL    HW2 4602   4.909   7.046  12.378
67610SOL     OW 4603   0.979   1.422  10.952
67610SOL    HW1 4604   0.921   1.494  10.979
67610SOL    HW2 4605   1.065   1.463  10.942
67611SOL     OW 4606  14.752   8.901  14.798
67611SOL    HW1 4607  14.785   8.987  14.773
67611SOL    HW2 4608  14.673   8.890  14.746
67612SOL     OW 4609   7.166  14.535  12.611
67612SOL    HW1 4610   7.201  14.485  12.685
67612SOL    HW2 4611   7.081  14.495  12.593
67613SOL     OW 4612   0.486   3.087  13.251
67613SOL    HW1 4613   0.552   3.100  13.319
67613SOL    HW2 4614   0.411   3.051  13.297
67614SOL     OW 4615  13.211   8.239   6.290
67614SOL    HW1 4616  13.245   8.259   6.203
67614SOL    HW2 4617  13.288   8.235   6.346
67615SOL     OW 4618  11.242   6.394   2.044
67615SOL    HW1 4619  11.219   6.482   2.074
67615SOL    HW2 4620  11.238   6.340   2.123
67616SOL     OW 4621   6.930   5.054   2.831
67616SOL    HW1 4622   6.927   4.976   2.776
67616SOL    HW2 4623   7.022   5.078   2.835
67617SOL     OW 4624   1.794   5.167   8.345
67617SOL    HW1 4625   1.702   5.187   8.365
67617SOL    HW2 4626   1.804   5.075   8.371
67618SOL     OW 4627   3.559   0.491  10.259
67618SOL    HW1 4628   3.482   0.542  10.234
67618SOL    HW2 4629   3.595   0.536  10.334
67619SOL     OW 4630   6.980  11.283  10.724
67619SOL    HW1 4631   6.899  11.334  10.726
67619SOL    HW2 4632   6.973  11.229  10.645
67620SOL     OW 4633   7.997   1.636   3.445
67620SOL    HW1 4634   7.969   1.556   3.400
67620SOL    HW2 4635   8.077   1.610   3.491
67621SOL     OW 4636  13.498   3.100   3.607
67621SOL    HW1 4637  13.422   3.097   3.549
67621SOL    HW2 4638  13.516   3.009   3.628
67622SOL     OW 4639   3.060   0.561   7.163
67622SOL    HW1 4640   3.069   0.513   7.081
67622SOL    HW2 4641   3.087   0.499   7.230
67623SOL     OW 4642  10.754  14.718   6.223
67623SOL    HW1 4643  10.792  14.776   6.289
67623SOL    HW2 4644  10.708  14.651   6.273
67624SOL     OW 4645   4.481   2.140  13.754
67624SOL    HW1 4646   4.550   2.078  13.732
67624SOL    HW2 4647   4.486   2.149  13.849
67625SOL     OW 4648   0.296  11.259   7.310
67625SOL    HW1 4649   0.358  11.329   7.331
67625SOL    HW2 4650   0.312  11.193   7.377
67626SOL     OW 4651   7.552   6.850  13.663
67626SOL    HW1 4652   7.555   6.895  13.579
67626SOL    HW2 4653   7.640   6.862  13.700
67627SOL     OW 4654   0.926   3.755  13.810
67627SOL    HW1 4655   0.977   3.834  13.791
67627SOL    HW2 4656   0.928   3.748  13.905
67628SOL     OW 4657   4.032   0.900   7.002
67628SOL    HW1 4658   3.962   0.844   6.969
67628SOL    HW2 4659   4.050   0.961   6.930
67629SOL     OW 4660  12.863   5.092  13.856
67629SOL    HW1 4661  12.840   5.010  13.901
67629SOL    HW2 4662  12.912   5.142  13.922
67630SOL     OW 4663   8.714   9.595  11.894
67630SOL    HW1 4664   8.662   9.543  11.955
67630SOL    HW2 4665   8.797   9.610  11.940
67631SOL     OW 4666   6.148   6.552   4.183
67631SOL    HW1 4667   6.168   6.498   4.106
67631SOL    HW2 4668   6.137   6.640   4.148
67632SOL     OW 4669  13.914   4.158  13.065
67632SOL    HW1 4670  14.000   4.175  13.029
67632SOL    HW2 4671  13.885   4.077  13.023
67633SOL     OW 4672   5.891   8.841  14.823
67633SOL    HW1 4673   5.899   8.903  14.750
67633SOL    HW2 4674   5.798   8.840  14.843
67634SOL     OW 4675   2.085   4.697  10.307
67634SOL    HW1 4676   2.121   4.686  10.219
67634SOL    HW2 4677   2.151   4.749  10.353
67635SOL     OW 4678   2.038  12.419  13.009
67635SOL    HW1 4679   2.092  12.351  12.967
67635SOL    HW2 4680   1.950  12.404  12.975
67636SOL     OW 4681   5.032   8.861   1.613
67636SOL    HW1 4682   4.963   8.922   1.588
67636SOL    HW2 4683   4.993   8.809   1.683
67637SOL     OW 4684  10.945   2.222   2.562
67637SOL    HW1 4685  11.000   2.148   2.535
67637SOL    HW2 4686  10.986   2.255   2.642
67638SOL     OW 4687   3.244   6.244   4.406
67638SOL    HW1 4688   3.255   6.320   4.463
67638SOL    HW2 4689   3.230   6.171   4.467
67639SOL     OW 4690   8.184   2.403  12.096
67639SOL    HW1 4691   8.160   2.481  12.146
67639SOL    HW2 4692   8.276   2.388  12.118
67640SOL     OW 4693   7.425  14.485   0.812
67640SOL    HW1 4694   7.379  14.455   0.890
67640SOL    HW2 4695   7.454  14.574   0.833
67641SOL     OW 4696   2.302  12.381   8.419
67641SOL    HW1 4697   2.315  12.400   8.512
67641SOL    HW2 4698   2.381  12.414   8.376
67642SOL     OW 4699  13.829  13.926   2.954
67642SOL    HW1 4700  13.823  13.911   3.049
67642SOL    HW2 4701  13.914  13.889   2.930
67643SOL     OW 4702   4.572   1.828  12.453
67643SOL    HW1 4703   4.505   1.787  12.398
67643SOL    HW2 4704   4.635   1.758  12.469
67644SOL     OW 4705   4.041   0.314   6.312
67644SOL    HW1 4706   3.966   0.255   6.314
67644SOL    HW2 4707   4.097   0.280   6.242
67645SOL     OW 4708   8.582   5.050   6.862
67645SOL    HW1 4709   8.562   5.079   6.951
67645SOL    HW2 4710   8.555   4.958   6.860
67646SOL     OW 4711   2.719   8.969   1.914
67646SOL    HW1 4712   2.648   8.923   1.869
67646SOL    HW2 4713   2.716   8.937   2.004
67647SOL     OW 4714   5.673  14.443   5.532
67647SOL    HW1 4715   5.586  14.465   5.499
67647SOL    HW2 4716   5.714  14.395   5.461
67648SOL     OW 4717   3.919   6.869   2.472
67648SOL    HW1 4718   3.831   6.886   2.504
67648SOL    HW2 4719   3.966   6.952   2.485
67649SOL     OW 4720   6.588   0.969   0.961
67649SOL    HW1 4721   6.675   0.985   0.922
67649SOL    HW2 4722   6.537   1.047   0.937
67650SOL     OW 4723   3.546  11.314   2.627
67650SOL    HW1 4724   3.616  11.356   2.578
67650SOL    HW2 4725   3.579  11.309   2.717
67651SOL     OW 4726  12.519  14.824   6.674
67651SOL    HW1 4727  12.456   0.008   6.713
67651SOL    HW2 4728  12.563  14.875   6.606
67652SOL     OW 4729  10.560  14.873   6.000
67652SOL    HW1 4730  10.593   0.024   6.085
67652SOL    HW2 4731  10.486  14.816   6.021
67653SOL     OW 4732  10.624   3.670   9.397
67653SOL    HW1 4733  10.537   3.629   9.407
67653SOL    HW2 4734  10.671   3.611   9.339
67654SOL     OW 4735   6.705   0.528   2.640
67654SOL    HW1 4736   6.702   0.599   2.704
67654SOL    HW2 4737   6.720   0.449   2.692
67655SOL     OW 4738   3.479   1.626   9.758
67655SOL    HW1 4739   3.536   1.702   9.744
67655SOL    HW2 4740   3.403   1.661   9.804
67656SOL     OW 4741   6.513  11.962   5.588
67656SOL    HW1 4742   6.497  12.047   5.628
67656SOL    HW2 4743   6.446  11.905   5.625
67657SOL     OW 4744  13.835   1.350   1.152
67657SOL    HW1 4745  13.838   1.260   1.120
67657SOL    HW2 4746  13.741   1.373   1.151
67658SOL     OW 4747  10.137  12.692   7.640
67658SOL    HW1 4748  10.060  12.641   7.615
67658SOL    HW2 4749  10.166  12.734   7.559
67659SOL     OW 4750  11.243   5.626   7.436
67659SOL    HW1 4751  11.265   5.649   7.526
67659SOL    HW2 4752  11.254   5.707   7.386
67660SOL     OW 4753  10.516   4.343  12.517
67660SOL    HW1 4754  10.566   4.263  12.533
67660SOL    HW2 4755  10.575   4.413  12.543
67661SOL     OW 4756   4.705  12.771   1.473
67661SOL    HW1 4757   4.770  12.759   1.404
67661SOL    HW2 4758   4.755  12.791   1.552
67662SOL     OW 4759   3.672  12.760   5.157
67662SOL    HW1 4760   3.711  12.674   5.172
67662SOL    HW2 4761   3.690  12.778   5.064
67663SOL     OW 4762   2.988   7.730   4.815
67663SOL    HW1 4763   3.030   7.792   4.874
67663SOL    HW2 4764   2.965   7.655   4.870
67664SOL     OW 4765   8.747   4.072   7.931
67664SOL    HW1 4766   8.715   4.078   8.021
67664SOL    HW2 4767   8.668   4.065   7.878
67665SOL     OW 4768   5.489   5.895   6.438
67665SOL    HW1 4769   5.411   5.922   6.390
67665SOL    HW2 4770   5.459   5.820   6.491
67666SOL     OW 4771   3.653   3.946   9.065
67666SOL    HW1 4772   3.719   3.958   8.997
67666SOL    HW2 4773   3.571   3.970   9.024
67667SOL     OW 4774   5.216   7.957   8.699
67667SOL    HW1 4775   5.140   7.925   8.651
67667SOL    HW2 4776   5.292   7.928   8.648
67668SOL     OW 4777  14.073   3.325  12.135
67668SOL    HW1 4778  14.088   3.263  12.063
67668SOL    HW2 4779  14.106   3.280  12.213
67669SOL     OW 4780   8.966  12.540   8.404
67669SOL    HW1 4781   8.950  12.502   8.318
67669SOL    HW2 4782   9.039  12.600   8.391
67670SOL     OW 4783   0.940   2.466  13.111
67670SOL    HW1 4784   0.862   2.515  13.135
67670SOL    HW2 4785   0.999   2.531  13.074
67671SOL     OW 4786   1.347  13.990   4.071
67671SOL    HW1 4787   1.356  14.043   3.991
67671SOL    HW2 4788   1.300  13.912   4.042
67672SOL     OW 4789  11.715  11.687  13.552
67672SOL    HW1 4790  11.773  11.756  13.585
67672SOL    HW2 4791  11.753  11.606  13.585
67673SOL     OW 4792   7.979   4.816  13.648
67673SOL    HW1 4793   8.007   4.745  13.590
67673SOL    HW2 4794   7.884   4.813  13.646
67674SOL     OW 4795   6.000   6.041   9.811
67674SOL    HW1 4796   5.909   6.047   9.840
67674SOL    HW2 4797   6.029   6.132   9.805
67675SOL     OW 4798   6.259  11.951  12.493
67675SOL    HW1 4799   6.223  12.026  12.540
67675SOL    HW2 4800   6.342  11.982  12.458
67676SOL     OW 4801  13.130  11.410   8.631
67676SOL    HW1 4802  13.135  11.352   8.707
67676SOL    HW2 4803  13.201  11.473   8.644
67677SOL     OW 4804   6.282   1.810  11.107
67677SOL    HW1 4805   6.297   1.748  11.178
67677SOL    HW2 4806   6.330   1.889  11.134
67678SOL     OW 4807   3.382   8.552   4.649
67678SOL    HW1 4808   3.434   8.474   4.670
67678SOL    HW2 4809   3.442   8.608   4.600
67679SOL     OW 4810   9.979   9.091  12.623
67679SOL    HW1 4811   9.963   9.185  12.615
67679SOL    HW2 4812   9.949   9.055  12.539
67680SOL     OW 4813   7.020   1.895   2.079
67680SOL    HW1 4814   6.927   1.884   2.057
67680SOL    HW2 4815   7.065   1.830   2.025
67681SOL     OW 4816   0.139   8.306   4.209
67681SOL    HW1 4817   0.181   8.296   4.295
67681SOL    HW2 4818   0.201   8.358   4.159
67682SOL     OW 4819  12.807  12.913   8.661
67682SOL    HW1 4820  12.816  12.938   8.569
67682SOL    HW2 4821  12.865  12.837   8.671
67683SOL     OW 4822   2.782   7.137  12.017
67683SOL    HW1 4823   2.747   7.076  11.952
67683SOL    HW2 4824   2.754   7.224  11.986
67684SOL     OW 4825   4.248   5.516  14.210
67684SOL    HW1 4826   4.302   5.569  14.150
67684SOL    HW2 4827   4.161   5.517  14.170
67685SOL     OW 4828   3.597   8.190   2.169
67685SOL    HW1 4829   3.558   8.264   2.216
67685SOL    HW2 4830   3.523   8.133   2.149
67686SOL     OW 4831   8.032   3.889   3.269
67686SOL    HW1 4832   8.112   3.907   3.318
67686SOL    HW2 4833   8.049   3.806   3.225
67687SOL     OW 4834   8.991   6.567  11.336
67687SOL    HW1 4835   9.059   6.634  11.343
67687SOL    HW2 4836   8.969   6.565  11.243
67688SOL     OW 4837   7.838   3.654   3.925
67688SOL    HW1 4838   7.800   3.627   3.841
67688SOL    HW2 4839   7.933   3.651   3.910
67689SOL     OW 4840   1.025   7.084   5.184
67689SOL    HW1 4841   1.114   7.076   5.149
67689SOL    HW2 4842   1.003   7.177   5.173
67690SOL     OW 4843  11.929  13.299   1.688
67690SOL    HW1 4844  11.983  13.371   1.656
67690SOL    HW2 4845  11.906  13.325   1.778
67691SOL     OW 4846  13.623   7.016   8.884
67691SOL    HW1 4847  13.601   6.925   8.867
67691SOL    HW2 4848  13.538   7.061   8.885
67692SOL     OW 4849   3.675   2.922   7.712
67692SOL    HW1 4850   3.586   2.908   7.743
67692SOL    HW2 4851   3.720   2.839   7.727
67693SOL     OW 4852  13.885  13.794  11.177
67693SOL    HW1 4853  13.891  13.707  11.138
67693SOL    HW2 4854  13.798  13.826  11.151
67694SOL     OW 4855   6.420  10.426   4.759
67694SOL    HW1 4856   6.332  10.400   4.784
67694SOL    HW2 4857   6.465  10.344   4.738
67695SOL     OW 4858  11.634  14.689   0.889
67695SOL    HW1 4859  11.661  14.773   0.852
67695SOL    HW2 4860  11.541  14.700   0.910
67696SOL     OW 4861  11.439  11.792   9.589
67696SOL    HW1 4862  11.357  11.830   9.558
67696SOL    HW2 4863  11.436  11.801   9.684
67697SOL     OW 4864   5.358   8.869   4.391
67697SOL    HW1 4865   5.353   8.906   4.479
67697SOL    HW2 4866   5.355   8.774   4.405
67698SOL     OW 4867   6.740  12.587  10.196
67698SOL    HW1 4868   6.710  12.496  10.205
67698SOL    HW2 4869   6.670  12.639  10.234
67699SOL     OW 4870  13.114   8.844   1.902
67699SOL    HW1 4871  13.200   8.802   1.901
67699SOL    HW2 4872  13.121   8.912   1.970
67700SOL     OW 4873   5.905  11.196  10.385
67700SOL    HW1 4874   5.813  11.176  10.401
67700SOL    HW2 4875   5.922  11.165  10.296
67701SOL     OW 4876  12.734   0.748  10.018
67701SOL    HW1 4877  12.724   0.790  10.104
67701SOL    HW2 4878  12.657   0.692  10.010
67702SOL     OW 4879  13.585  12.461   1.677
67702SOL    HW1 4880  13.583  12.366   1.694
67702SOL    HW2 4881  13.515  12.497   1.731
67703SOL     OW 4882  14.138   6.384  11.672
67703SOL    HW1 4883  14.159   6.358  11.582
67703SOL    HW2 4884  14.094   6.308  11.709
67704SOL     OW 4885   2.468  13.923   6.739
67704SOL    HW1 4886   2.480  13.935   6.833
67704SOL    HW2 4887   2.546  13.876   6.711
67705SOL     OW 4888   2.967  12.190  14.119
67705SOL    HW1 4889   3.055  12.180  14.155
67705SOL    HW2 4890   2.969  12.138  14.038
67706SOL     OW 4891  11.271   2.773   9.051
67706SOL    HW1 4892  11.207   2.832   9.010
67706SOL    HW2 4893  11.259   2.689   9.007
67707SOL     OW 4894  14.473  13.272   0.586
67707SOL    HW1 4895  14.529  13.349   0.573
67707SOL    HW2 4896  14.523  13.200   0.548
67708SOL     OW 4897   7.193   4.825   5.300
67708SOL    HW1 4898   7.251   4.796   5.370
67708SOL    HW2 4899   7.251   4.840   5.225
67709SOL     OW 4900  10.851   3.315   8.256
67709SOL    HW1 4901  10.910   3.353   8.192
67709SOL    HW2 4902  10.763   3.337   8.224
67710SOL     OW 4903  14.596   9.990   8.969
67710SOL    HW1 4904  14.604   9.969   8.876
67710SOL    HW2 4905  14.592  10.086   8.972
67711SOL     OW 4906  13.560   9.446   1.578
67711SOL    HW1 4907  13.554   9.422   1.670
67711SOL    HW2 4908  13.551   9.541   1.577
67712SOL     OW 4909   9.647   6.968   6.977
67712SOL    HW1 4910   9.664   7.025   7.052
67712SOL    HW2 4911   9.731   6.926   6.960
67713SOL     OW 4912   7.702  10.880   9.032
67713SOL    HW1 4913   7.764  10.812   9.005
67713SOL    HW2 4914   7.731  10.959   8.986
67714SOL     OW 4915   9.984  14.033  10.989
67714SOL    HW1 4916  10.049  14.034  10.919
67714SOL    HW2 4917   9.926  14.107  10.970
67715SOL     OW 4918   6.690   8.916  10.784
67715SOL    HW1 4919   6.739   8.951  10.710
67715SOL    HW2 4920   6.644   8.992  10.820
67716SOL     OW 4921   7.105   6.751  11.637
67716SOL    HW1 4922   7.120   6.716  11.725
67716SOL    HW2 4923   7.193   6.774  11.605
67717SOL     OW 4924   7.433   2.049   8.942
67717SOL    HW1 4925   7.436   2.088   8.855
67717SOL    HW2 4926   7.460   1.958   8.928
67718SOL     OW 4927   4.603   8.028  13.077
67718SOL    HW1 4928   4.660   7.954  13.097
67718SOL    HW2 4929   4.527   7.990  13.033
67719SOL     OW 4930  10.218   6.848   2.372
67719SOL    HW1 4931  10.189   6.940   2.371
67719SOL    HW2 4932  10.273   6.841   2.450
67720SOL     OW 4933   0.250   3.383   8.086
67720SOL    HW1 4934   0.217   3.361   8.173
67720SOL    HW2 4935   0.174   3.375   8.028
67721SOL     OW 4936   3.096   0.104   4.104
67721SOL    HW1 4937   3.044   0.128   4.181
67721SOL    HW2 4938   3.155   0.179   4.092
67722SOL     OW 4939  12.661   7.433   0.647
67722SOL    HW1 4940  12.703   7.356   0.684
67722SOL    HW2 4941  12.678   7.427   0.553
67723SOL     OW 4942   0.894   6.932   1.047
67723SOL    HW1 4943   0.897   7.003   0.983
67723SOL    HW2 4944   0.979   6.936   1.091
67724SOL     OW 4945   7.845   6.964   7.101
67724SOL    HW1 4946   7.916   6.945   7.162
67724SOL    HW2 4947   7.802   6.879   7.088
67725SOL     OW 4948  11.262  10.284   5.179
67725SOL    HW1 4949  11.302  10.213   5.229
67725SOL    HW2 4950  11.235  10.242   5.097
67726SOL     OW 4951  13.623   6.372  12.121
67726SOL    HW1 4952  13.653   6.386  12.211
67726SOL    HW2 4953  13.704   6.369  12.070
67727SOL     OW 4954   5.948  10.932   3.232
67727SOL    HW1 4955   6.003  10.962   3.305
67727SOL    HW2 4956   5.864  10.913   3.272
67728SOL     OW 4957   7.744  13.961  14.816
67728SOL    HW1 4958   7.677  14.028  14.800
67728SOL    HW2 4959   7.785  13.948  14.730
67729SOL     OW 4960   0.530  14.583   1.932
67729SOL    HW1 4961   0.520  14.608   2.024
67729SOL    HW2 4962   0.451  14.615   1.889
67730SOL     OW 4963  10.529   6.224   5.972
67730SOL    HW1 4964  10.561   6.135   5.980
67730SOL    HW2 4965  10.440   6.221   6.005
67731SOL     OW 4966   8.134   5.596  13.719
67731SOL    HW1 4967   8.218   5.639  13.705
67731SOL    HW2 4968   8.077   5.633  13.652
67732SOL     OW 4969  14.837  11.542   1.418
67732SOL    HW1 4970  14.755  11.496   1.400
67732SOL    HW2 4971  14.869  11.567   1.331
67733SOL     OW 4972  13.911   5.358   5.699
67733SOL    HW1 4973  13.961   5.280   5.724
67733SOL    HW2 4974  13.945   5.427   5.757
67734SOL     OW 4975   3.984   0.050   0.827
67734SOL    HW1 4976   4.058   0.007   0.869
67734SOL    HW2 4977   3.964   0.124   0.884
67735SOL     OW 4978  12.256  11.144   8.184
67735SOL    HW1 4979  12.232  11.231   8.217
67735SOL    HW2 4980  12.333  11.159   8.130
67736SOL     OW 4981  10.022   2.095   6.286
67736SOL    HW1 4982  10.018   2.000   6.279
67736SOL    HW2 4983  10.013   2.126   6.195
67737SOL     OW 4984  10.256  13.789   3.817
67737SOL    HW1 4985  10.192  13.860   3.818
67737SOL    HW2 4986  10.334  13.828   3.777
67738SOL     OW 4987   3.608   8.463   1.849
67738SOL    HW1 4988   3.653   8.409   1.914
67738SOL    HW2 4989   3.626   8.553   1.877
67739SOL     OW 4990   1.524  11.992   8.421
67739SOL    HW1 4991   1.448  11.939   8.396
67739SOL    HW2 4992   1.599  11.939   8.396
67740SOL     OW 4993   9.031   5.070   3.980
67740SOL    HW1 4994   9.040   5.049   4.072
67740SOL    HW2 4995   9.121   5.074   3.947
67741SOL     OW 4996   6.177   6.193  10.810
67741SOL    HW1 4997   6.154   6.255  10.740
67741SOL    HW2 4998   6.173   6.107  10.769
67742SOL     OW 4999  13.180   5.065   4.071
67742SOL    HW1 5000  13.099   5.116   4.073
67742SOL    HW2 5001  13.201   5.057   3.978
67743SOL     OW 5002   3.455   9.566   4.809
67743SOL    HW1 5003   3.522   9.634   4.818
67743SOL    HW2 5004   3.433   9.542   4.899
67744SOL     OW 5005   5.507  14.614   2.971
67744SOL    HW1 5006   5.583  14.662   2.938
67744SOL    HW2 5007   5.437  14.678   2.975
67745SOL     OW 5008   3.484   7.481   6.173
67745SOL    HW1 5009   3.467   7.390   6.147
67745SOL    HW2 5010   3.494   7.477   6.268
67746SOL     OW 5011   6.932   2.148  14.335
67746SOL    HW1 5012   7.018   2.180  14.362
67746SOL    HW2 5013   6.949   2.098  14.255
67747SOL     OW 5014  11.016   7.380   0.837
67747SOL    HW1 5015  11.033   7.472   0.857
67747SOL    HW2 5016  11.103   7.341   0.828
67748SOL     OW 5017  12.112  11.082  12.801
67748SOL    HW1 5018  12.176  11.052  12.736
67748SOL    HW2 5019  12.138  11.038  12.881
67749SOL     OW 5020  10.926  10.561  11.736
67749SOL    HW1 5021  10.864  10.596  11.671
67749SOL    HW2 5022  10.970  10.489  11.691
67750SOL     OW 5023   6.110   4.722  11.141
67750SOL    HW1 5024   6.103   4.648  11.081
67750SOL    HW2 5025   6.023   4.730  11.180
67751SOL     OW 5026   1.037  13.357  11.688
67751SOL    HW1 5027   1.120  13.405  11.678
67751SOL    HW2 5028   1.042  13.288  11.622
67752SOL     OW 5029  12.619   5.582   8.579
67752SOL    HW1 5030  12.689   5.620   8.527
67752SOL    HW2 5031  12.622   5.489   8.558
67753SOL     OW 5032   7.764   1.822   8.818
67753SOL    HW1 5033   7.774   1.834   8.724
67753SOL    HW2 5034   7.854   1.819   8.851
67754SOL     OW 5035  10.839   0.655  12.056
67754SOL    HW1 5036  10.865   0.576  12.103
67754SOL    HW2 5037  10.780   0.624  11.988
67755SOL     OW 5038   9.274   0.484  14.651
67755SOL    HW1 5039   9.269   0.524  14.564
67755SOL    HW2 5040   9.338   0.413  14.640
67756SOL     OW 5041  14.473  14.519   2.293
67756SOL    HW1 5042  14.456  14.612   2.308
67756SOL    HW2 5043  14.409  14.494   2.227
67757SOL     OW 5044   7.622  13.991   9.423
67757SOL    HW1 5045   7.594  14.082   9.415
67757SOL    HW2 5046   7.627  13.959   9.333
67758SOL     OW 5047   6.443  11.743   6.285
67758SOL    HW1 5048   6.403  11.754   6.372
67758SOL    HW2 5049   6.459  11.649   6.278
67759SOL     OW 5050   3.076   5.791   9.519
67759SOL    HW1 5051   3.109   5.875   9.487
67759SOL    HW2 5052   3.001   5.772   9.464
67760SOL     OW 5053   7.339   0.391   3.569
67760SOL    HW1 5054   7.428   0.427   3.572
67760SOL    HW2 5055   7.282   0.467   3.578
67761SOL     OW 5056   6.844   4.316   7.148
67761SOL    HW1 5057   6.931   4.278   7.132
67761SOL    HW2 5058   6.851   4.355   7.235
67762SOL     OW 5059   7.098   7.815  13.945
67762SOL    HW1 5060   7.073   7.732  13.984
67762SOL    HW2 5061   7.164   7.851  14.005
67763SOL     OW 5062   3.359   6.306   4.010
67763SOL    HW1 5063   3.453   6.295   4.021
67763SOL    HW2 5064   3.321   6.223   4.041
67764SOL     OW 5065   9.942  14.136  10.256
67764SOL    HW1 5066   9.911  14.098  10.338
67764SOL    HW2 5067   9.898  14.221  10.251
67765SOL     OW 5068   8.551  11.502   6.845
67765SOL    HW1 5069   8.588  11.552   6.772
67765SOL    HW2 5070   8.530  11.569   6.911
67766SOL     OW 5071  12.334  13.448   8.900
67766SOL    HW1 5072  12.416  13.435   8.854
67766SOL    HW2 5073  12.331  13.542   8.919
67767SOL     OW 5074  13.852  12.382  11.540
67767SOL    HW1 5075  13.782  12.447  11.534
67767SOL    HW2 5076  13.897  12.403  11.622
67768SOL     OW 5077   4.392   2.535  12.395
67768SOL    HW1 5078   4.359   2.624  12.396
67768SOL    HW2 5079   4.401   2.514  12.302
67769SOL     OW 5080   8.844  11.156   5.227
67769SOL    HW1 5081   8.893  11.194   5.301
67769SOL    HW2 5082   8.798  11.081   5.265
67770SOL     OW 5083   0.912  13.610  12.944
67770SOL    HW1 5084   0.989  13.607  12.889
67770SOL    HW2 5085   0.946  13.606  13.034
67771SOL     OW 5086   3.196   8.357   9.722
67771SOL    HW1 5087   3.136   8.340   9.649
67771SOL    HW2 5088   3.154   8.427   9.772
67772SOL     OW 5089   6.417   7.657   0.196
67772SOL    HW1 5090   6.343   7.604   0.164
67772SOL    HW2 5091   6.466   7.598   0.253
67773SOL     OW 5092   0.724  13.055   9.740
67773SOL    HW1 5093   0.649  13.068   9.681
67773SOL    HW2 5094   0.800  13.057   9.683
67774SOL     OW 5095   2.578  14.215  10.911
67774SOL    HW1 5096   2.521  14.216  10.988
67774SOL    HW2 5097   2.667  14.211  10.947
67775SOL     OW 5098  12.302  12.565   1.961
67775SOL    HW1 5099  12.207  12.567   1.977
67775SOL    HW2 5100  12.341  12.569   2.049
67776SOL     OW 5101   3.693   7.612   3.382
67776SOL    HW1 5102   3.634   7.553   3.429
67776SOL    HW2 5103   3.646   7.634   3.302
67777SOL     OW 5104   6.187  13.570  10.983
67777SOL    HW1 5105   6.167  13.517  11.060
67777SOL    HW2 5106   6.263  13.527  10.943
67778SOL     OW 5107  11.551   5.315  13.539
67778SOL    HW1 5108  11.514   5.228  13.555
67778SOL    HW2 5109  11.514   5.369  13.608
67779SOL     OW 5110  11.415  13.437   3.684
67779SOL    HW1 5111  11.502  13.473   3.698
67779SOL    HW2 5112  11.382  13.483   3.607
67780SOL     OW 5113   1.312   7.443   1.263
67780SOL    HW1 5114   1.387   7.472   1.313
67780SOL    HW2 5115   1.253   7.405   1.328
67781SOL     OW 5116   4.917  14.614   8.648
67781SOL    HW1 5117   4.846  14.613   8.584
67781SOL    HW2 5118   4.874  14.629   8.732
67782SOL     OW 5119   3.798   8.085   6.402
67782SOL    HW1 5120   3.710   8.122   6.397
67782SOL    HW2 5121   3.819   8.083   6.495
67783SOL     OW 5122   1.205   4.249  13.225
67783SOL    HW1 5123   1.230   4.207  13.143
67783SOL    HW2 5124   1.240   4.191  13.293
67784SOL     OW 5125   2.843   7.000   2.226
67784SOL    HW1 5126   2.859   6.963   2.139
67784SOL    HW2 5127   2.922   6.980   2.276
67785SOL     OW 5128   3.375   1.589  10.238
67785SOL    HW1 5129   3.465   1.558  10.252
67785SOL    HW2 5130   3.326   1.555  10.312
67786SOL     OW 5131   9.299   8.892  10.333
67786SOL    HW1 5132   9.325   8.816  10.385
67786SOL    HW2 5133   9.313   8.864  10.242
67787SOL     OW 5134  13.336   3.783  12.282
67787SOL    HW1 5135  13.365   3.865  12.243
67787SOL    HW2 5136  13.264   3.808  12.340
67788SOL     OW 5137   4.960  14.013   2.162
67788SOL    HW1 5138   5.039  13.967   2.189
67788SOL    HW2 5139   4.983  14.106   2.170
67789SOL     OW 5140   4.093  11.291  12.294
67789SOL    HW1 5141   4.089  11.384  12.272
67789SOL    HW2 5142   4.040  11.249  12.226
67790SOL     OW 5143   2.848   9.837   6.999
67790SOL    HW1 5144   2.776   9.899   6.984
67790SOL    HW2 5145   2.816   9.782   7.070
67791SOL     OW 5146   8.392   5.296   4.766
67791SOL    HW1 5147   8.422   5.323   4.852
67791SOL    HW2 5148   8.404   5.201   4.764
67792SOL     OW 5149   0.258   9.314  13.848
67792SOL    HW1 5150   0.162   9.322  13.845
67792SOL    HW2 5151   0.289   9.404  13.853
67793SOL     OW 5152   7.683   8.020  11.002
67793SOL    HW1 5153   7.635   8.087  11.052
67793SOL    HW2 5154   7.774   8.031  11.029
67794SOL     OW 5155  12.882  13.209   3.334
67794SOL    HW1 5156  12.851  13.256   3.412
67794SOL    HW2 5157  12.826  13.132   3.328
67795SOL     OW 5158   2.161   5.764  13.452
67795SOL    HW1 5159   2.180   5.781  13.360
67795SOL    HW2 5160   2.109   5.683  13.451
67796SOL     OW 5161   1.411   2.705   0.071
67796SOL    HW1 5162   1.460   2.737  14.873
67796SOL    HW2 5163   1.478   2.681   0.135
67797SOL     OW 5164  12.007   9.183   2.127
67797SOL    HW1 5165  12.047   9.134   2.055
67797SOL    HW2 5166  11.936   9.232   2.087
67798SOL     OW 5167  13.140  10.254   0.495
67798SOL    HW1 5168  13.233  10.236   0.481
67798SOL    HW2 5169  13.103  10.262   0.408
67799SOL     OW 5170   2.759   8.213   6.241
67799SOL    HW1 5171   2.733   8.171   6.160
67799SOL    HW2 5172   2.854   8.212   6.240
67800SOL     OW 5173   1.017  11.311   0.047
67800SOL    HW1 5174   1.003  11.368  14.849
67800SOL    HW2 5175   1.037  11.226   0.009
67801SOL     OW 5176   6.413   8.178   7.101
67801SOL    HW1 5177   6.410   8.108   7.166
67801SOL    HW2 5178   6.472   8.145   7.033
67802SOL     OW 5179   0.489   5.470  12.926
67802SOL    HW1 5180   0.433   5.435  12.857
67802SOL    HW2 5181   0.457   5.559  12.940
67803SOL     OW 5182   7.410  10.327   3.655
67803SOL    HW1 5183   7.325  10.353   3.692
67803SOL    HW2 5184   7.393  10.243   3.614
67804SOL     OW 5185   0.296   7.208   5.233
67804SOL    HW1 5186   0.234   7.154   5.281
67804SOL    HW2 5187   0.348   7.251   5.301
67805SOL     OW 5188   7.098   9.081   6.034
67805SOL    HW1 5189   7.025   9.057   5.977
67805SOL    HW2 5190   7.090   9.176   6.044
67806SOL     OW 5191   1.633  14.480  10.458
67806SOL    HW1 5192   1.647  14.393  10.420
67806SOL    HW2 5193   1.564  14.467  10.522
67807SOL     OW 5194   4.638  14.869   5.233
67807SOL    HW1 5195   4.685   0.059   5.281
67807SOL    HW2 5196   4.680  14.787   5.260
67808SOL     OW 5197   8.875   4.696  10.077
67808SOL    HW1 5198   8.798   4.671  10.128
67808SOL    HW2 5199   8.930   4.617  10.077
67809SOL     OW 5200   0.485  10.159  10.576
67809SOL    HW1 5201   0.545  10.097  10.617
67809SOL    HW2 5202   0.421  10.179  10.644
67810SOL     OW 5203  13.514   4.429   1.989
67810SOL    HW1 5204  13.599   4.474   1.992
67810SOL    HW2 5205  13.451   4.498   1.967
67811SOL     OW 5206  13.159  14.203   0.445
67811SOL    HW1 5207  13.112  14.265   0.388
67811SOL    HW2 5208  13.248  14.237   0.448
67812SOL     OW 5209   4.951   9.770  12.524
67812SOL    HW1 5210   4.894   9.842  12.550
67812SOL    HW2 5211   5.014   9.762  12.595
67813SOL     OW 5212  13.238   1.122  12.321
67813SOL    HW1 5213  13.311   1.174  12.287
67813SOL    HW2 5214  13.273   1.079  12.399
67814SOL     OW 5215   3.020  10.345  10.177
67814SOL    HW1 5216   2.982  10.382  10.257
67814SOL    HW2 5217   2.967  10.267  10.160
67815SOL     OW 5218  14.039   1.422   5.744
67815SOL    HW1 5219  14.103   1.490   5.723
67815SOL    HW2 5220  14.016   1.437   5.835
67816SOL     OW 5221   9.721   4.068  13.352
67816SOL    HW1 5222   9.695   4.034  13.266
67816SOL    HW2 5223   9.812   4.039  13.362
67817SOL     OW 5224   6.504   3.278   1.322
67817SOL    HW1 5225   6.595   3.264   1.294
67817SOL    HW2 5226   6.452   3.249   1.247
67818SOL     OW 5227   8.108   5.681  10.883
67818SOL    HW1 5228   8.176   5.749  10.880
67818SOL    HW2 5229   8.034   5.719  10.835
67819SOL     OW 5230   2.293  12.381   6.384
67819SOL    HW1 5231   2.202  12.404   6.404
67819SOL    HW2 5232   2.336  12.382   6.470
67820SOL     OW 5233   4.707  11.689   2.277
67820SOL    HW1 5234   4.712  11.684   2.372
67820SOL    HW2 5235   4.614  11.676   2.257
67821SOL     OW 5236   3.336   2.034  12.653
67821SOL    HW1 5237   3.354   2.083  12.733
67821SOL    HW2 5238   3.294   1.953  12.683
67822SOL     OW 5239   8.087   0.941  14.484
67822SOL    HW1 5240   8.171   0.964  14.524
67822SOL    HW2 5241   8.022   0.981  14.541
67823SOL     OW 5242   5.911   7.103  13.548
67823SOL    HW1 5243   5.929   7.113  13.454
67823SOL    HW2 5244   5.818   7.126  13.556
67824SOL     OW 5245   5.779   6.106  13.663
67824SOL    HW1 5246   5.795   6.066  13.749
67824SOL    HW2 5247   5.830   6.188  13.665
67825SOL     OW 5248  11.254  13.088  10.209
67825SOL    HW1 5249  11.294  13.174  10.222
67825SOL    HW2 5250  11.171  13.093  10.256
67826SOL     OW 5251  10.536   9.216   8.638
67826SOL    HW1 5252  10.466   9.232   8.702
67826SOL    HW2 5253  10.490   9.189   8.559
67827SOL     OW 5254   5.432   5.879  11.695
67827SOL    HW1 5255   5.376   5.939  11.745
67827SOL    HW2 5256   5.500   5.852  11.757
67828SOL     OW 5257   3.580  14.450   8.913
67828SOL    HW1 5258   3.660  14.398   8.921
67828SOL    HW2 5259   3.602  14.535   8.950
67829SOL     OW 5260   0.242   3.750  11.467
67829SOL    HW1 5261   0.257   3.838  11.501
67829SOL    HW2 5262   0.147   3.739  11.467
67830SOL     OW 5263  10.106   7.099   2.398
67830SOL    HW1 5264  10.107   7.136   2.310
67830SOL    HW2 5265  10.112   7.175   2.456
67831SOL     OW 5266  14.634   4.790   7.476
67831SOL    HW1 5267  14.655   4.708   7.433
67831SOL    HW2 5268  14.719   4.824   7.506
67832SOL     OW 5269  11.096  12.318   7.137
67832SOL    HW1 5270  11.053  12.335   7.053
67832SOL    HW2 5271  11.120  12.226   7.133
67833SOL     OW 5272   0.089   3.980   8.278
67833SOL    HW1 5273   0.008   3.983   8.226
67833SOL    HW2 5274   0.117   3.889   8.273
67834SOL     OW 5275   1.652   3.321   3.669
67834SOL    HW1 5276   1.741   3.354   3.667
67834SOL    HW2 5277   1.620   3.332   3.579
67835SOL     OW 5278  14.607  12.925  13.856
67835SOL    HW1 5279  14.691  12.913  13.900
67835SOL    HW2 5280  14.556  12.848  13.880
67836SOL     OW 5281  14.848   0.738   5.579
67836SOL    HW1 5282  14.862   0.659   5.631
67836SOL    HW2 5283  14.782   0.713   5.515
67837SOL     OW 5284  11.898   8.525  13.551
67837SOL    HW1 5285  11.807   8.497  13.559
67837SOL    HW2 5286  11.934   8.469  13.482
67838SOL     OW 5287   1.577   5.275   8.510
67838SOL    HW1 5288   1.637   5.300   8.580
67838SOL    HW2 5289   1.493   5.263   8.554
67839SOL     OW 5290   3.587  13.015  10.742
67839SOL    HW1 5291   3.616  13.092  10.791
67839SOL    HW2 5292   3.502  12.994  10.780
67840SOL     OW 5293  13.868  12.085  14.384
67840SOL    HW1 5294  13.892  12.175  14.362
67840SOL    HW2 5295  13.845  12.045  14.300
67841SOL     OW 5296   1.954  14.138   6.820
67841SOL    HW1 5297   1.904  14.057   6.819
67841SOL    HW2 5298   2.045  14.111   6.812
67842SOL     OW 5299   2.955   3.810  12.903
67842SOL    HW1 5300   3.020   3.745  12.931
67842SOL    HW2 5301   2.902   3.765  12.837
67843SOL     OW 5302   2.711  13.716   1.517
67843SOL    HW1 5303   2.655  13.704   1.593
67843SOL    HW2 5304   2.680  13.798   1.478
67844SOL     OW 5305   7.655   2.873  14.760
67844SOL    HW1 5306   7.561   2.871  14.742
67844SOL    HW2 5307   7.677   2.967  14.760
67845SOL     OW 5308   2.906  12.842  13.293
67845SOL    HW1 5309   2.812  12.857  13.289
67845SOL    HW2 5310   2.939  12.912  13.349
67846SOL     OW 5311  11.319  13.808   8.587
67846SOL    HW1 5312  11.357  13.762   8.512
67846SOL    HW2 5313  11.392  13.819   8.647
67847SOL     OW 5314   8.169   2.966  11.075
67847SOL    HW1 5315   8.156   2.871  11.075
67847SOL    HW2 5316   8.224   2.982  10.998
67848SOL     OW 5317  14.551   7.579  12.463
67848SOL    HW1 5318  14.637   7.620  12.465
67848SOL    HW2 5319  14.532   7.559  12.555
67849SOL     OW 5320  10.696   1.528  14.241
67849SOL    HW1 5321  10.789   1.529  14.219
67849SOL    HW2 5322  10.661   1.451  14.197
67850SOL     OW 5323   9.478  14.623  11.795
67850SOL    HW1 5324   9.555  14.633  11.739
67850SOL    HW2 5325   9.472  14.706  11.843
67851SOL     OW 5326   6.601  11.819   0.834
67851SOL    HW1 5327   6.595  11.752   0.766
67851SOL    HW2 5328   6.695  11.828   0.851
67852SOL     OW 5329   5.231   0.668   6.005
67852SOL    HW1 5330   5.169   0.676   5.932
67852SOL    HW2 5331   5.196   0.597   6.058
67853SOL     OW 5332  11.478   8.051  14.193
67853SOL    HW1 5333  11.538   8.073  14.265
67853SOL    HW2 5334  11.395   8.092  14.218
67854SOL     OW 5335  11.477   3.502  14.725
67854SOL    HW1 5336  11.562   3.546  14.718
67854SOL    HW2 5337  11.498   3.417  14.764
67855SOL     OW 5338   7.626   8.716   9.672
67855SOL    HW1 5339   7.628   8.621   9.675
67855SOL    HW2 5340   7.560   8.737   9.606
67856SOL     OW 5341   2.177   4.379   2.004
67856SOL    HW1 5342   2.088   4.415   2.006
67856SOL    HW2 5343   2.169   4.296   1.957
67857SOL     OW 5344  12.554  11.058   5.251
67857SOL    HW1 5345  12.579  11.043   5.342
67857SOL    HW2 5346  12.635  11.088   5.209
67858SOL     OW 5347   7.810  14.332  11.946
67858SOL    HW1 5348   7.811  14.354  11.853
67858SOL    HW2 5349   7.899  14.305  11.966
67859SOL     OW 5350   5.419   2.321   7.159
67859SOL    HW1 5351   5.388   2.376   7.231
67859SOL    HW2 5352   5.432   2.381   7.086
67860SOL     OW 5353  12.052  14.311   4.552
67860SOL    HW1 5354  12.021  14.344   4.467
67860SOL    HW2 5355  12.137  14.272   4.532
67861SOL     OW 5356  14.487   0.688   0.808
67861SOL    HW1 5357  14.484   0.611   0.865
67861SOL    HW2 5358  14.535   0.753   0.859
67862SOL     OW 5359   2.388   1.990   8.335
67862SOL    HW1 5360   2.392   1.909   8.284
67862SOL    HW2 5361   2.478   2.007   8.361
67863SOL     OW 5362   9.920   1.277  11.583
67863SOL    HW1 5363   9.948   1.325  11.661
67863SOL    HW2 5364   9.970   1.315  11.511
67864SOL     OW 5365   4.751  11.532  12.929
67864SOL    HW1 5366   4.762  11.437  12.932
67864SOL    HW2 5367   4.832  11.564  12.890
67865SOL     OW 5368   9.616   3.442  10.413
67865SOL    HW1 5369   9.543   3.413  10.466
67865SOL    HW2 5370   9.576   3.479  10.334
67866SOL     OW 5371   3.815   9.588   1.114
67866SOL    HW1 5372   3.857   9.561   1.033
67866SOL    HW2 5373   3.886   9.592   1.178
67867SOL     OW 5374   0.452   6.158   3.063
67867SOL    HW1 5375   0.516   6.184   3.130
67867SOL    HW2 5376   0.478   6.070   3.038
67868SOL     OW 5377   6.647   7.430  14.195
67868SOL    HW1 5378   6.684   7.384  14.120
67868SOL    HW2 5379   6.705   7.408  14.268
67869SOL     OW 5380  11.710  13.841   2.979
67869SOL    HW1 5381  11.615  13.827   2.974
67869SOL    HW2 5382  11.726  13.917   2.922
67870SOL     OW 5383   2.500  11.214  12.073
67870SOL    HW1 5384   2.514  11.307  12.055
67870SOL    HW2 5385   2.550  11.197  12.153
67871SOL     OW 5386   1.625  13.310  10.848
67871SOL    HW1 5387   1.530  13.304  10.860
67871SOL    HW2 5388   1.659  13.321  10.937
67872SOL     OW 5389   1.115  12.726   5.268
67872SOL    HW1 5390   1.194  12.675   5.289
67872SOL    HW2 5391   1.054  12.662   5.233
67873SOL     OW 5392   0.774   6.742  11.757
67873SOL    HW1 5393   0.819   6.816  11.799
67873SOL    HW2 5394   0.785   6.669  11.818
67874SOL     OW 5395  14.116   2.530  14.513
67874SOL    HW1 5396  14.150   2.501  14.428
67874SOL    HW2 5397  14.178   2.598  14.541
67875SOL     OW 5398  10.209  13.784   6.547
67875SOL    HW1 5399  10.208  13.852   6.614
67875SOL    HW2 5400  10.302  13.768   6.530
67876SOL     OW 5401  13.981   0.598  12.989
67876SOL    HW1 5402  14.041   0.534  12.951
67876SOL    HW2 5403  14.036   0.649  13.049
67877SOL     OW 5404  12.495  14.418  10.865
67877SOL    HW1 5405  12.470  14.487  10.925
67877SOL    HW2 5406  12.430  14.349  10.878
67878SOL     OW 5407  13.766  14.601  14.445
67878SOL    HW1 5408  13.766  14.505  14.444
67878SOL    HW2 5409  13.772  14.626  14.353
67879SOL     OW 5410  14.808   3.788   4.357
67879SOL    HW1 5411  14.856   3.725   4.410
67879SOL    HW2 5412  14.870   3.815   4.289
67880SOL     OW 5413   8.050   3.625   4.643
67880SOL    HW1 5414   8.011   3.684   4.707
67880SOL    HW2 5415   8.031   3.538   4.676
67881SOL     OW 5416  11.975  14.841   8.856
67881SOL    HW1 5417  11.899  14.838   8.798
67881SOL    HW2 5418  12.017   0.047   8.837
67882SOL     OW 5419   0.652   2.303  13.526
67882SOL    HW1 5420   0.590   2.332  13.460
67882SOL    HW2 5421   0.697   2.229  13.487
67883SOL     OW 5422   3.229  11.520  14.002
67883SOL    HW1 5423   3.154  11.561  13.959
67883SOL    HW2 5424   3.192  11.446  14.049
67884SOL     OW 5425  12.901   1.309   1.812
67884SOL    HW1 5426  12.890   1.257   1.732
67884SOL    HW2 5427  12.848   1.264   1.878
67885SOL     OW 5428   4.505  13.052  14.773
67885SOL    HW1 5429   4.539  13.071  14.685
67885SOL    HW2 5430   4.584  13.041  14.827
67886SOL     OW 5431  11.899   2.712   7.006
67886SOL    HW1 5432  11.878   2.805   7.004
67886SOL    HW2 5433  11.923   2.691   6.916
67887SOL     OW 5434  11.094  13.142   2.974
67887SOL    HW1 5435  11.028  13.133   3.043
67887SOL    HW2 5436  11.124  13.052   2.959
67888SOL     OW 5437  12.908  11.159   0.369
67888SOL    HW1 5438  12.931  11.249   0.344
67888SOL    HW2 5439  12.919  11.108   0.289
67889SOL     OW 5440  14.291  10.555   5.185
67889SOL    HW1 5441  14.302  10.482   5.245
67889SOL    HW2 5442  14.198  10.554   5.162
67890SOL     OW 5443  14.180   1.082   2.119
67890SOL    HW1 5444  14.207   1.019   2.186
67890SOL    HW2 5445  14.247   1.075   2.051
67891SOL     OW 5446  12.341   2.474   9.704
67891SOL    HW1 5447  12.344   2.505   9.795
67891SOL    HW2 5448  12.351   2.553   9.651
67892SOL     OW 5449   5.140   6.692   0.654
67892SOL    HW1 5450   5.088   6.615   0.634
67892SOL    HW2 5451   5.081   6.749   0.704
67893SOL     OW 5452   9.986  13.780  12.202
67893SOL    HW1 5453   9.942  13.846  12.255
67893SOL    HW2 5454  10.036  13.829  12.138
67894SOL     OW 5455  14.123  14.852   6.998
67894SOL    HW1 5456  14.162  14.767   6.980
67894SOL    HW2 5457  14.066  14.837   7.074
67895SOL     OW 5458  13.411   7.424  13.705
67895SOL    HW1 5459  13.452   7.368  13.639
67895SOL    HW2 5460  13.320   7.395  13.709
67896SOL     OW 5461  10.712   6.196   5.387
67896SOL    HW1 5462  10.697   6.286   5.359
67896SOL    HW2 5463  10.637   6.176   5.443
67897SOL     OW 5464   2.408   5.507   6.182
67897SOL    HW1 5465   2.318   5.485   6.203
67897SOL    HW2 5466   2.446   5.534   6.265
67898SOL     OW 5467   1.150  12.361   3.587
67898SOL    HW1 5468   1.159  12.297   3.657
67898SOL    HW2 5469   1.214  12.335   3.521
67899SOL     OW 5470   7.861   0.942   8.469
67899SOL    HW1 5471   7.816   0.972   8.548
67899SOL    HW2 5472   7.954   0.948   8.491
67900SOL     OW 5473  11.599   7.970   2.253
67900SOL    HW1 5474  11.693   7.987   2.242
67900SOL    HW2 5475  11.568   7.948   2.165
67901SOL     OW 5476   4.957   6.869  14.362
67901SOL    HW1 5477   5.000   6.915  14.434
67901SOL    HW2 5478   4.996   6.782  14.363
67902SOL     OW 5479   2.028   1.049  14.694
67902SOL    HW1 5480   2.022   1.042  14.790
67902SOL    HW2 5481   2.117   1.020  14.673
67903SOL     OW 5482   0.847  13.574  11.585
67903SOL    HW1 5483   0.929  13.589  11.633
67903SOL    HW2 5484   0.816  13.489  11.617
67904SOL     OW 5485  10.801   9.294  13.689
67904SOL    HW1 5486  10.886   9.333  13.668
67904SOL    HW2 5487  10.767   9.347  13.761
67905SOL     OW 5488  10.740   6.018   9.727
67905SOL    HW1 5489  10.662   6.052   9.773
67905SOL    HW2 5490  10.782   6.096   9.692
67906SOL     OW 5491   2.787   7.194   9.166
67906SOL    HW1 5492   2.745   7.278   9.185
67906SOL    HW2 5493   2.802   7.154   9.251
67907SOL     OW 5494   5.901   1.120   5.925
67907SOL    HW1 5495   5.842   1.182   5.882
67907SOL    HW2 5496   5.969   1.103   5.860
67908SOL     OW 5497  14.140   4.177   9.783
67908SOL    HW1 5498  14.233   4.192   9.800
67908SOL    HW2 5499  14.113   4.250   9.727
67909SOL     OW 5500  12.609   2.783   9.155
67909SOL    HW1 5501  12.563   2.735   9.224
67909SOL    HW2 5502  12.557   2.767   9.076
67910SOL     OW 5503  10.496   6.118  10.352
67910SOL    HW1 5504  10.500   6.025  10.373
67910SOL    HW2 5505  10.561   6.158  10.410
67911SOL     OW 5506   3.140   3.952   1.907
67911SOL    HW1 5507   3.206   3.975   1.842
67911SOL    HW2 5508   3.093   4.034   1.922
67912SOL     OW 5509   1.023   7.871  14.288
67912SOL    HW1 5510   0.985   7.941  14.340
67912SOL    HW2 5511   0.995   7.888  14.199
67913SOL     OW 5512  10.347   2.404   9.466
67913SOL    HW1 5513  10.382   2.327   9.510
67913SOL    HW2 5514  10.267   2.374   9.424
67914SOL     OW 5515   5.510  13.985   7.454
67914SOL    HW1 5516   5.485  14.077   7.460
67914SOL    HW2 5517   5.593  13.986   7.407
67915SOL     OW 5518  10.011   4.410  14.477
67915SOL    HW1 5519   9.944   4.342  14.466
67915SOL    HW2 5520   9.990   4.476  14.411
67916SOL     OW 5521   3.321   4.461  11.147
67916SOL    HW1 5522   3.335   4.478  11.054
67916SOL    HW2 5523   3.308   4.366  11.152
67917SOL     OW 5524  10.588   7.048   3.155
67917SOL    HW1 5525  10.617   6.957   3.164
67917SOL    HW2 5526  10.661   7.092   3.112
67918SOL     OW 5527   1.346   3.320   9.051
67918SOL    HW1 5528   1.309   3.317   8.962
67918SOL    HW2 5529   1.295   3.387   9.096
67919SOL     OW 5530   0.735   1.481  13.776
67919SOL    HW1 5531   0.772   1.526  13.852
67919SOL    HW2 5532   0.646   1.515  13.769
67920SOL     OW 5533   1.842   2.152   2.071
67920SOL    HW1 5534   1.751   2.167   2.096
67920SOL    HW2 5535   1.842   2.066   2.030
67921SOL     OW 5536   7.985   8.211  10.000
67921SOL    HW1 5537   8.064   8.205  10.053
67921SOL    HW2 5538   8.012   8.257   9.920
67922SOL     OW 5539   5.334  13.023  14.603
67922SOL    HW1 5540   5.416  12.989  14.567
67922SOL    HW2 5541   5.268  12.960  14.575
67923SOL     OW 5542  13.943   0.341  12.197
67923SOL    HW1 5543  13.934   0.257  12.153
67923SOL    HW2 5544  13.886   0.333  12.274
67924SOL     OW 5545  10.454  10.168   2.986
67924SOL    HW1 5546  10.442  10.201   3.075
67924SOL    HW2 5547  10.371  10.189   2.941
67925SOL     OW 5548  11.098   4.530  10.650
67925SOL    HW1 5549  11.053   4.469  10.592
67925SOL    HW2 5550  11.061   4.513  10.736
67926SOL     OW 5551   1.770  12.055   9.124
67926SOL    HW1 5552   1.811  12.024   9.205
67926SOL    HW2 5553   1.817  12.010   9.054
67927SOL     OW 5554   5.649   1.402   9.427
67927SOL    HW1 5555   5.689   1.394   9.514
67927SOL    HW2 5556   5.619   1.314   9.407
67928SOL     OW 5557   7.545  12.948   5.218
67928SOL    HW1 5558   7.605  12.940   5.144
67928SOL    HW2 5559   7.479  12.880   5.203
67929SOL     OW 5560  13.148   8.243  12.288
67929SOL    HW1 5561  13.074   8.293  12.255
67929SOL    HW2 5562  13.204   8.308  12.331
67930SOL     OW 5563   4.612  12.354   5.361
67930SOL    HW1 5564   4.612  12.434   5.308
67930SOL    HW2 5565   4.683  12.301   5.324
67931SOL     OW 5566   5.885  13.374   3.969
67931SOL    HW1 5567   5.914  13.464   3.978
67931SOL    HW2 5568   5.809  13.367   4.027
67932SOL     OW 5569   4.200   7.878   5.203
67932SOL    HW1 5570   4.253   7.918   5.135
67932SOL    HW2 5571   4.230   7.919   5.284
67933SOL     OW 5572  12.872   3.300   1.435
67933SOL    HW1 5573  12.938   3.245   1.475
67933SOL    HW2 5574  12.803   3.239   1.408
67934SOL     OW 5575   8.662  11.187   4.391
67934SOL    HW1 5576   8.574  11.211   4.361
67934SOL    HW2 5577   8.711  11.173   4.310
67935SOL     OW 5578   6.222   2.355   3.549
67935SOL    HW1 5579   6.171   2.355   3.468
67935SOL    HW2 5580   6.279   2.432   3.541
67936SOL     OW 5581   3.829  13.558   1.149
67936SOL    HW1 5582   3.822  13.639   1.099
67936SOL    HW2 5583   3.907  13.515   1.115
67937SOL     OW 5584  14.587   0.854   5.931
67937SOL    HW1 5585  14.682   0.840   5.934
67937SOL    HW2 5586  14.556   0.823   6.016
67938SOL     OW 5587   4.985  11.237   7.641
67938SOL    HW1 5588   5.066  11.192   7.665
67938SOL    HW2 5589   4.970  11.212   7.550
67939SOL     OW 5590   4.428   2.019   0.528
67939SOL    HW1 5591   4.446   1.967   0.607
67939SOL    HW2 5592   4.445   2.110   0.555
67940SOL     OW 5593   0.646   3.750  10.570
67940SOL    HW1 5594   0.634   3.808  10.495
67940SOL    HW2 5595   0.618   3.664  10.539
67941SOL     OW 5596   8.383  14.349   3.802
67941SOL    HW1 5597   8.389  14.257   3.777
67941SOL    HW2 5598   8.407  14.398   3.724
67942SOL     OW 5599   4.184   4.489   6.029
67942SOL    HW1 5600   4.102   4.481   6.077
67942SOL    HW2 5601   4.179   4.422   5.961
67943SOL     OW 5602   7.085   2.020   5.434
67943SOL    HW1 5603   7.008   2.074   5.451
67943SOL    HW2 5604   7.094   2.020   5.338
67944SOL     OW 5605   1.207   7.512   4.609
67944SOL    HW1 5606   1.296   7.484   4.588
67944SOL    HW2 5607   1.166   7.526   4.524
67945SOL     OW 5608   6.296   6.448  10.587
67945SOL    HW1 5609   6.341   6.428  10.505
67945SOL    HW2 5610   6.210   6.407  10.579
67946SOL     OW 5611   5.330  14.027  14.801
67946SOL    HW1 5612   5.258  14.067  14.751
67946SOL    HW2 5613   5.407  14.039  14.746
67947SOL     OW 5614  12.816   2.425   2.485
67947SOL    HW1 5615  12.803   2.517   2.461
67947SOL    HW2 5616  12.910   2.416   2.494
67948SOL     OW 5617  11.390  10.462  14.666
67948SOL    HW1 5618  11.371  10.379  14.624
67948SOL    HW2 5619  11.377  10.528  14.598
67949SOL     OW 5620  14.549  10.123   2.425
67949SOL    HW1 5621  14.552  10.084   2.512
67949SOL    HW2 5622  14.627  10.088   2.381
67950SOL     OW 5623   4.324   0.549   8.141
67950SOL    HW1 5624   4.264   0.481   8.109
67950SOL    HW2 5625   4.335   0.608   8.066
67951SOL     OW 5626   3.776   6.785   0.676
67951SOL    HW1 5627   3.823   6.825   0.748
67951SOL    HW2 5628   3.811   6.696   0.671
67952SOL     OW 5629   1.644   0.363   6.991
67952SOL    HW1 5630   1.709   0.294   6.982
67952SOL    HW2 5631   1.677   0.418   7.062
67953SOL     OW 5632   8.447   8.758   5.246
67953SOL    HW1 5633   8.491   8.684   5.205
67953SOL    HW2 5634   8.357   8.754   5.212
67954SOL     OW 5635   1.003   5.103  13.190
67954SOL    HW1 5636   1.056   5.047  13.132
67954SOL    HW2 5637   1.066   5.166  13.226
67955SOL     OW 5638   0.866  13.156  10.550
67955SOL    HW1 5639   0.786  13.135  10.598
67955SOL    HW2 5640   0.915  13.213  10.609
67956SOL     OW 5641   9.585   6.003   5.396
67956SOL    HW1 5642   9.515   6.020   5.334
67956SOL    HW2 5643   9.604   5.909   5.387
67957SOL     OW 5644   3.096   8.304   8.078
67957SOL    HW1 5645   3.001   8.290   8.084
67957SOL    HW2 5646   3.115   8.300   7.984
67958SOL     OW 5647   1.849   8.340   0.263
67958SOL    HW1 5648   1.905   8.269   0.230
67958SOL    HW2 5649   1.841   8.400   0.189
67959SOL     OW 5650   2.371   4.568   6.919
67959SOL    HW1 5651   2.383   4.655   6.881
67959SOL    HW2 5652   2.410   4.508   6.855
67960SOL     OW 5653   8.999   6.646   9.694
67960SOL    HW1 5654   8.911   6.683   9.703
67960SOL    HW2 5655   9.033   6.641   9.783
67961SOL     OW 5656   1.902   8.432   5.798
67961SOL    HW1 5657   1.873   8.345   5.824
67961SOL    HW2 5658   1.841   8.492   5.842
67962SOL     OW 5659   6.991   6.164   7.046
67962SOL    HW1 5660   6.964   6.249   7.011
67962SOL    HW2 5661   7.038   6.184   7.126
67963SOL     OW 5662   8.054   7.858   2.100
67963SOL    HW1 5663   8.046   7.778   2.153
67963SOL    HW2 5664   8.027   7.928   2.158
67964SOL     OW 5665   4.478   4.986   4.689
67964SOL    HW1 5666   4.436   5.052   4.634
67964SOL    HW2 5667   4.550   4.953   4.636
67965SOL     OW 5668  10.778  12.858   6.412
67965SOL    HW1 5669  10.842  12.803   6.456
67965SOL    HW2 5670  10.723  12.893   6.482
67966SOL     OW 5671   6.158  12.687   2.759
67966SOL    HW1 5672   6.076  12.670   2.713
67966SOL    HW2 5673   6.171  12.782   2.750
67967SOL     OW 5674   0.570   0.999  12.540
67967SOL    HW1 5675   0.666   1.002  12.538
67967SOL    HW2 5676   0.544   1.012  12.449
67968SOL     OW 5677   0.401  14.608   6.213
67968SOL    HW1 5678   0.424  14.516   6.227
67968SOL    HW2 5679   0.424  14.625   6.122
67969SOL     OW 5680   1.146   8.990  13.244
67969SOL    HW1 5681   1.163   8.990  13.150
67969SOL    HW2 5682   1.157   9.081  13.270
67970SOL     OW 5683   3.571  10.125  14.789
67970SOL    HW1 5684   3.584  10.202  14.844
67970SOL    HW2 5685   3.515  10.067  14.841
67971SOL     OW 5686  10.898   4.724  12.494
67971SOL    HW1 5687  10.885   4.725  12.589
67971SOL    HW2 5688  10.963   4.793  12.478
67972SOL     OW 5689  13.706   5.643   8.479
67972SOL    HW1 5690  13.626   5.592   8.481
67972SOL    HW2 5691  13.775   5.579   8.460
67973SOL     OW 5692   3.949   3.031   8.732
67973SOL    HW1 5693   3.904   2.982   8.800
67973SOL    HW2 5694   4.010   3.087   8.779
67974SOL     OW 5695  10.668   2.310  11.334
67974SOL    HW1 5696  10.733   2.324  11.265
67974SOL    HW2 5697  10.584   2.330  11.292
67975SOL     OW 5698   9.973   1.392  14.018
67975SOL    HW1 5699   9.997   1.479  14.051
67975SOL    HW2 5700   9.992   1.396  13.924
67976SOL     OW 5701   2.186  10.600  11.598
67976SOL    HW1 5702   2.182  10.695  11.604
67976SOL    HW2 5703   2.129  10.569  11.669
67977SOL     OW 5704   3.842   4.772   5.871
67977SOL    HW1 5705   3.820   4.690   5.828
67977SOL    HW2 5706   3.833   4.838   5.802
67978SOL     OW 5707   0.781   6.344   4.399
67978SOL    HW1 5708   0.813   6.366   4.486
67978SOL    HW2 5709   0.704   6.289   4.415
67979SOL     OW 5710   7.191   7.211  13.342
67979SOL    HW1 5711   7.234   7.244  13.263
67979SOL    HW2 5712   7.120   7.273  13.358
67980SOL     OW 5713   2.153  14.095   4.840
67980SOL    HW1 5714   2.222  14.030   4.827
67980SOL    HW2 5715   2.071  14.046   4.834
67981SOL     OW 5716   1.747   8.286   9.622
67981SOL    HW1 5717   1.703   8.331   9.694
67981SOL    HW2 5718   1.838   8.316   9.627
67982SOL     OW 5719   0.503   3.709  10.198
67982SOL    HW1 5720   0.510   3.652  10.121
67982SOL    HW2 5721   0.412   3.740  10.196
67983SOL     OW 5722   4.329  10.611  12.570
67983SOL    HW1 5723   4.339  10.566  12.486
67983SOL    HW2 5724   4.288  10.546  12.627
67984SOL     OW 5725   1.758  12.163   5.596
67984SOL    HW1 5726   1.852  12.145   5.591
67984SOL    HW2 5727   1.719  12.109   5.527
67985SOL     OW 5728   6.680   9.661  14.629
67985SOL    HW1 5729   6.766   9.621  14.617
67985SOL    HW2 5730   6.623   9.588  14.652
67986SOL     OW 5731   8.504   3.628  11.881
67986SOL    HW1 5732   8.577   3.567  11.890
67986SOL    HW2 5733   8.427   3.571  11.870
67987SOL     OW 5734   9.074  14.552   4.408
67987SOL    HW1 5735   8.996  14.601   4.436
67987SOL    HW2 5736   9.042  14.463   4.395
67988SOL     OW 5737   5.327   9.413   3.144
67988SOL    HW1 5738   5.405   9.468   3.148
67988SOL    HW2 5739   5.293   9.414   3.233
67989SOL     OW 5740  10.798   5.859  11.180
67989SOL    HW1 5741  10.763   5.771  11.167
67989SOL    HW2 5742  10.784   5.877  11.273
67990SOL     OW 5743  10.498   3.579   8.868
67990SOL    HW1 5744  10.438   3.632   8.816
67990SOL    HW2 5745  10.531   3.513   8.807
67991SOL     OW 5746  13.709   4.148   8.982
67991SOL    HW1 5747  13.774   4.102   9.034
67991SOL    HW2 5748  13.709   4.103   8.897
67992SOL     OW 5749   7.252  13.824   5.288
67992SOL    HW1 5750   7.299  13.752   5.245
67992SOL    HW2 5751   7.248  13.893   5.222
67993SOL     OW 5752   2.334  13.824   5.707
67993SOL    HW1 5753   2.344  13.742   5.660
67993SOL    HW2 5754   2.312  13.798   5.796
67994SOL     OW 5755   1.497  12.911   4.918
67994SOL    HW1 5756   1.563  12.977   4.939
67994SOL    HW2 5757   1.457  12.942   4.837
67995SOL     OW 5758  10.921   3.804   3.813
67995SOL    HW1 5759  10.981   3.877   3.795
67995SOL    HW2 5760  10.835   3.837   3.787
67996SOL     OW 5761  14.684   7.610  10.708
67996SOL    HW1 5762  14.715   7.529  10.669
67996SOL    HW2 5763  14.729   7.614  10.793
67997SOL     OW 5764   8.007   4.244  13.499
67997SOL    HW1 5765   8.094   4.274  13.527
67997SOL    HW2 5766   8.023   4.198  13.416
67998SOL     OW 5767  10.911  13.997   6.997
67998SOL    HW1 5768  10.864  14.010   6.915
67998SOL    HW2 5769  10.984  13.940   6.975
67999SOL     OW 5770  12.537   2.374  11.081
67999SOL    HW1 5771  12.469   2.318  11.119
67999SOL    HW2 5772  12.569   2.324  11.005
68000SOL     OW 5773   6.774   9.292  11.748
68000SOL    HW1 5774   6.855   9.333  11.718
68000SOL    HW2 5775   6.733   9.359  11.804
68001SOL     OW 5776   0.728   7.652   4.849
68001SOL    HW1 5777   0.813   7.611   4.830
68001SOL    HW2 5778   0.678   7.582   4.892
68002SOL     OW 5779   7.326  14.626   0.093
68002SOL    HW1 5780   7.341  14.654   0.183
68002SOL    HW2 5781   7.282  14.542   0.101
68003SOL     OW 5782   4.001  13.498  10.399
68003SOL    HW1 5783   4.064  13.567  10.380
68003SOL    HW2 5784   3.916  13.541  10.391
68004SOL     OW 5785  14.553   1.359   5.500
68004SOL    HW1 5786  14.559   1.264   5.507
68004SOL    HW2 5787  14.463   1.376   5.473
68005SOL     OW 5788   9.843  13.893   7.488
68005SOL    HW1 5789   9.802  13.980   7.482
68005SOL    HW2 5790   9.909  13.902   7.557
68006SOL     OW 5791  13.759   5.165  11.027
68006SOL    HW1 5792  13.802   5.250  11.021
68006SOL    HW2 5793  13.762   5.143  11.120
68007SOL     OW 5794  10.121   4.584   0.598
68007SOL    HW1 5795  10.115   4.523   0.524
68007SOL    HW2 5796  10.030   4.597   0.627
68008SOL     OW 5797   4.070   7.624   2.179
68008SOL    HW1 5798   4.142   7.638   2.117
68008SOL    HW2 5799   4.012   7.698   2.166
68009SOL     OW 5800   2.811   7.124   5.731
68009SOL    HW1 5801   2.866   7.160   5.800
68009SOL    HW2 5802   2.722   7.152   5.753
68010SOL     OW 5803   8.248  10.504   4.575
68010SOL    HW1 5804   8.216  10.570   4.636
68010SOL    HW2 5805   8.169  10.467   4.536
68011SOL     OW 5806   1.577   5.798  13.310
68011SOL    HW1 5807   1.581   5.741  13.232
68011SOL    HW2 5808   1.614   5.881  13.280
68012SOL     OW 5809  11.983   2.613   4.718
68012SOL    HW1 5810  11.994   2.684   4.654
68012SOL    HW2 5811  11.955   2.658   4.798
68013SOL     OW 5812   9.053   5.947   8.776
68013SOL    HW1 5813   9.037   5.930   8.684
68013SOL    HW2 5814   9.120   6.015   8.777
68014SOL     OW 5815   9.276  12.851  11.634
68014SOL    HW1 5816   9.344  12.784  11.634
68014SOL    HW2 5817   9.204  12.812  11.585
68015SOL     OW 5818   9.907  12.591   2.426
68015SOL    HW1 5819   9.954  12.579   2.344
68015SOL    HW2 5820   9.972  12.569   2.494
68016SOL     OW 5821  10.382   8.874   1.800
68016SOL    HW1 5822  10.390   8.850   1.708
68016SOL    HW2 5823  10.471   8.869   1.835
68017SOL     OW 5824   6.141   8.680   4.464
68017SOL    HW1 5825   6.086   8.603   4.480
68017SOL    HW2 5826   6.134   8.732   4.544
68018SOL     OW 5827  13.340  14.037  13.485
68018SOL    HW1 5828  13.276  14.097  13.523
68018SOL    HW2 5829  13.296  14.000  13.408
68019SOL     OW 5830   3.773   7.333  10.595
68019SOL    HW1 5831   3.820   7.359  10.516
68019SOL    HW2 5832   3.839   7.287  10.648
68020SOL     OW 5833   3.182   3.588   2.246
68020SOL    HW1 5834   3.274   3.589   2.220
68020SOL    HW2 5835   3.140   3.651   2.188
68021SOL     OW 5836  11.472   3.035   7.769
68021SOL    HW1 5837  11.482   3.013   7.676
68021SOL    HW2 5838  11.404   3.103   7.770
68022SOL     OW 5839   7.402  12.484  13.843
68022SOL    HW1 5840   7.378  12.567  13.803
68022SOL    HW2 5841   7.482  12.502  13.892
68023SOL     OW 5842  12.823   3.728   3.519
68023SOL    HW1 5843  12.836   3.805   3.464
68023SOL    HW2 5844  12.845   3.654   3.462
68024SOL     OW 5845  10.318   4.958   4.373
68024SOL    HW1 5846  10.286   5.034   4.325
68024SOL    HW2 5847  10.354   4.900   4.306
68025SOL     OW 5848  12.187   7.082   3.145
68025SOL    HW1 5849  12.170   6.988   3.145
68025SOL    HW2 5850  12.177   7.109   3.054
68026SOL     OW 5851  12.701   5.436   3.233
68026SOL    HW1 5852  12.674   5.519   3.271
68026SOL    HW2 5853  12.758   5.396   3.299
68027SOL     OW 5854  12.950   4.814  11.944
68027SOL    HW1 5855  12.975   4.770  12.025
68027SOL    HW2 5856  12.855   4.826  11.950
68028SOL     OW 5857   4.890  11.750   6.555
68028SOL    HW1 5858   4.798  11.724   6.561
68028SOL    HW2 5859   4.891  11.820   6.490
68029SOL     OW 5860   7.567   7.633   7.760
68029SOL    HW1 5861   7.488   7.650   7.811
68029SOL    HW2 5862   7.578   7.711   7.706
68030SOL     OW 5863   8.468  13.250  13.421
68030SOL    HW1 5864   8.388  13.202  13.441
68030SOL    HW2 5865   8.537  13.183  13.423
68031SOL     OW 5866  12.856   8.228   9.090
68031SOL    HW1 5867  12.905   8.174   9.152
68031SOL    HW2 5868  12.923   8.282   9.048
68032SOL     OW 5869  12.439   8.810  11.531
68032SOL    HW1 5870  12.502   8.849  11.470
68032SOL    HW2 5871  12.360   8.796  11.478
68033SOL     OW 5872   4.803  13.553   5.354
68033SOL    HW1 5873   4.898  13.561   5.362
68033SOL    HW2 5874   4.789  13.478   5.296
68034SOL     OW 5875  10.048  13.462   4.163
68034SOL    HW1 5876  10.069  13.547   4.123
68034SOL    HW2 5877  10.070  13.473   4.255
68035SOL     OW 5878  11.155  14.761   4.767
68035SOL    HW1 5879  11.111  14.845   4.753
68035SOL    HW2 5880  11.246  14.777   4.741
68036SOL     OW 5881  10.191   5.829   1.394
68036SOL    HW1 5882  10.227   5.751   1.350
68036SOL    HW2 5883  10.234   5.903   1.351
68037SOL     OW 5884   3.842   3.985  10.140
68037SOL    HW1 5885   3.899   3.909  10.135
68037SOL    HW2 5886   3.753   3.949  10.133
68038SOL     OW 5887   1.172  10.744   5.596
68038SOL    HW1 5888   1.101  10.712   5.650
68038SOL    HW2 5889   1.172  10.687   5.519
68039SOL     OW 5890   1.513   5.863   6.336
68039SOL    HW1 5891   1.424   5.827   6.330
68039SOL    HW2 5892   1.501   5.953   6.367
68040SOL     OW 5893  11.289   8.788   8.836
68040SOL    HW1 5894  11.371   8.753   8.801
68040SOL    HW2 5895  11.221   8.752   8.778
68041SOL     OW 5896   7.048  11.154   9.483
68041SOL    HW1 5897   6.986  11.213   9.442
68041SOL    HW2 5898   7.053  11.183   9.574
68042SOL     OW 5899  12.176   2.493  11.369
68042SOL    HW1 5900  12.172   2.585  11.397
68042SOL    HW2 5901  12.183   2.497  11.274
68043SOL     OW 5902  11.871   0.117  11.482
68043SOL    HW1 5903  11.951   0.085  11.440
68043SOL    HW2 5904  11.898   0.140  11.570
68044SOL     OW 5905   3.518   5.976   5.180
68044SOL    HW1 5906   3.440   5.991   5.234
68044SOL    HW2 5907   3.534   6.059   5.136
68045SOL     OW 5908   2.285   4.198  10.276
68045SOL    HW1 5909   2.235   4.218  10.197
68045SOL    HW2 5910   2.219   4.165  10.338
68046SOL     OW 5911   3.174   1.322  13.142
68046SOL    HW1 5912   3.087   1.302  13.109
68046SOL    HW2 5913   3.171   1.296  13.234
68047SOL     OW 5914  13.963  12.632   1.314
68047SOL    HW1 5915  13.895  12.629   1.382
68047SOL    HW2 5916  13.943  12.556   1.258
68048SOL     OW 5917   3.995   5.205   2.711
68048SOL    HW1 5918   4.060   5.245   2.769
68048SOL    HW2 5919   3.912   5.213   2.759
68049SOL     OW 5920   5.479  10.880  14.817
68049SOL    HW1 5921   5.514  10.968  14.806
68049SOL    HW2 5922   5.516  10.850   0.022
68050SOL     OW 5923  14.760  13.675   1.871
68050SOL    HW1 5924  14.774  13.596   1.818
68050SOL    HW2 5925  14.777  13.748   1.811
68051SOL     OW 5926   8.506   4.509  12.610
68051SOL    HW1 5927   8.593   4.467  12.608
68051SOL    HW2 5928   8.501   4.555  12.526
68052SOL     OW 5929   1.192   2.304   0.081
68052SOL    HW1 5930   1.270   2.327   0.130
68052SOL    HW2 5931   1.120   2.316   0.143
68053SOL     OW 5932   4.884   3.140   8.273
68053SOL    HW1 5933   4.798   3.115   8.308
68053SOL    HW2 5934   4.866   3.161   8.181
68054SOL     OW 5935   3.024  14.277   6.646
68054SOL    HW1 5936   2.952  14.215   6.645
68054SOL    HW2 5937   2.982  14.363   6.652
68055SOL     OW 5938  12.138  10.030  11.187
68055SOL    HW1 5939  12.044  10.010  11.185
68055SOL    HW2 5940  12.151  10.090  11.114
68056SOL     OW 5941  13.902   7.342   0.364
68056SOL    HW1 5942  13.879   7.305   0.279
68056SOL    HW2 5943  13.919   7.435   0.347
68057SOL     OW 5944   4.595   2.174   6.455
68057SOL    HW1 5945   4.652   2.247   6.433
68057SOL    HW2 5946   4.515   2.215   6.487
68058SOL     OW 5947  12.974   1.759   9.017
68058SOL    HW1 5948  12.978   1.663   9.025
68058SOL    HW2 5949  12.881   1.779   9.020
68059SOL     OW 5950   8.073  14.251  10.376
68059SOL    HW1 5951   8.104  14.281  10.461
68059SOL    HW2 5952   8.043  14.330  10.332
68060SOL     OW 5953  14.468   8.903  13.692
68060SOL    HW1 5954  14.506   8.914  13.779
68060SOL    HW2 5955  14.519   8.961  13.636
68061SOL     OW 5956  13.563   7.008   0.811
68061SOL    HW1 5957  13.620   7.068   0.858
68061SOL    HW2 5958  13.529   7.060   0.738
68062SOL     OW 5959   9.610  12.806   0.260
68062SOL    HW1 5960   9.581  12.782   0.172
68062SOL    HW2 5961   9.681  12.869   0.245
68063SOL     OW 5962   4.906   4.412   0.841
68063SOL    HW1 5963   4.911   4.320   0.864
68063SOL    HW2 5964   4.837   4.417   0.775
68064SOL     OW 5965  11.956   4.719   9.819
68064SOL    HW1 5966  11.931   4.657   9.750
68064SOL    HW2 5967  11.973   4.665   9.896
68065SOL     OW 5968   6.461   8.417   3.056
68065SOL    HW1 5969   6.539   8.373   3.023
68065SOL    HW2 5970   6.494   8.498   3.096
68066SOL     OW 5971   7.991  13.246   3.029
68066SOL    HW1 5972   7.983  13.199   3.112
68066SOL    HW2 5973   7.964  13.335   3.048
68067SOL     OW 5974   9.676   9.268  11.814
68067SOL    HW1 5975   9.631   9.345  11.781
68067SOL    HW2 5976   9.622   9.237  11.886
68068SOL     OW 5977   9.399  10.299   0.962
68068SOL    HW1 5978   9.392  10.357   1.038
68068SOL    HW2 5979   9.330  10.233   0.976
68069SOL     OW 5980   0.577   4.930   7.387
68069SOL    HW1 5981   0.484   4.914   7.371
68069SOL    HW2 5982   0.598   5.007   7.335
68070SOL     OW 5983  14.748   9.804  14.484
68070SOL    HW1 5984  14.783   9.773  14.567
68070SOL    HW2 5985  14.793   9.887  14.468
68071SOL     OW 5986   9.984   1.348   4.359
68071SOL    HW1 5987  10.075   1.322   4.373
68071SOL    HW2 5988   9.941   1.335   4.444
68072SOL     OW 5989  12.715   0.810   1.644
68072SOL    HW1 5990  12.677   0.880   1.697
68072SOL    HW2 5991  12.699   0.837   1.554
68073SOL     OW 5992  10.242  11.009   5.204
68073SOL    HW1 5993  10.217  11.079   5.144
68073SOL    HW2 5994  10.239  10.930   5.151
68074SOL     OW 5995  14.842   6.829   4.496
68074SOL    HW1 5996  14.829   6.757   4.435
68074SOL    HW2 5997  14.846   6.787   4.582
68075SOL     OW 5998   1.680   1.780   7.031
68075SOL    HW1 5999   1.609   1.781   6.966
68075SOL    HW2 6000   1.660   1.706   7.088
68076SOL     OW 6001   5.339   8.921  11.108
68076SOL    HW1 6002   5.310   8.938  11.198
68076SOL    HW2 6003   5.330   8.826  11.097
68077SOL     OW 6004   3.445   2.587   3.408
68077SOL    HW1 6005   3.512   2.654   3.423
68077SOL    HW2 6006   3.362   2.632   3.419
68078SOL     OW 6007  11.756  10.362   9.595
68078SOL    HW1 6008  11.675  10.350   9.547
68078SOL    HW2 6009  11.809  10.285   9.573
68079SOL     OW 6010  10.498   6.053  11.187
68079SOL    HW1 6011  10.442   5.994  11.137
68079SOL    HW2 6012  10.587   6.023  11.168
68080SOL     OW 6013   6.089   5.378   5.690
68080SOL    HW1 6014   6.092   5.457   5.744
68080SOL    HW2 6015   6.007   5.335   5.715
68081SOL     OW 6016   7.739   3.007   8.143
68081SOL    HW1 6017   7.695   3.047   8.218
68081SOL    HW2 6018   7.774   3.082   8.094
68082SOL     OW 6019  11.038   0.297   2.839
68082SOL    HW1 6020  11.075   0.289   2.927
68082SOL    HW2 6021  10.966   0.359   2.849
68083SOL     OW 6022   4.170   5.155   8.474
68083SOL    HW1 6023   4.205   5.069   8.496
68083SOL    HW2 6024   4.219   5.215   8.531
68084SOL     OW 6025  12.980   5.744   2.178
68084SOL    HW1 6026  12.988   5.697   2.095
68084SOL    HW2 6027  12.928   5.821   2.157
68085SOL     OW 6028   3.824  10.447   3.928
68085SOL    HW1 6029   3.764  10.383   3.889
68085SOL    HW2 6030   3.869  10.399   3.997
68086SOL     OW 6031   8.593   0.819   3.675
68086SOL    HW1 6032   8.498   0.823   3.683
68086SOL    HW2 6033   8.623   0.809   3.766
68087SOL     OW 6034  14.406   6.652   9.693
68087SOL    HW1 6035  14.439   6.616   9.775
68087SOL    HW2 6036  14.314   6.673   9.711
68088SOL     OW 6037   6.067   8.361   7.235
68088SOL    HW1 6038   6.026   8.357   7.149
68088SOL    HW2 6039   6.031   8.440   7.275
68089SOL     OW 6040   9.169   9.596   8.216
68089SOL    HW1 6041   9.250   9.560   8.253
68089SOL    HW2 6042   9.158   9.680   8.260
68090SOL     OW 6043   7.223  11.493   6.118
68090SOL    HW1 6044   7.157  11.562   6.121
68090SOL    HW2 6045   7.223  11.454   6.205
68091SOL     OW 6046   5.690   6.298  11.862
68091SOL    HW1 6047   5.675   6.391  11.844
68091SOL    HW2 6048   5.658   6.285  11.951
68092SOL     OW 6049  10.211   9.655  13.928
68092SOL    HW1 6050  10.206   9.560  13.941
68092SOL    HW2 6051  10.130   9.689  13.967
68093SOL     OW 6052   7.609   3.198   0.284
68093SOL    HW1 6053   7.566   3.140   0.347
68093SOL    HW2 6054   7.697   3.160   0.273
68094SOL     OW 6055   8.695  12.380   9.615
68094SOL    HW1 6056   8.618  12.358   9.562
68094SOL    HW2 6057   8.713  12.472   9.593
68095SOL     OW 6058   8.208   1.384  14.526
68095SOL    HW1 6059   8.158   1.426  14.596
68095SOL    HW2 6060   8.158   1.403  14.446
68096SOL     OW 6061   2.126   0.819  10.881
68096SOL    HW1 6062   2.194   0.796  10.944
68096SOL    HW2 6063   2.174   0.859  10.808
68097SOL     OW 6064   4.788   3.715   4.368
68097SOL    HW1 6065   4.747   3.660   4.302
68097SOL    HW2 6066   4.728   3.713   4.443
68098SOL     OW 6067   8.663   7.837  11.301
68098SOL    HW1 6068   8.758   7.825  11.292
68098SOL    HW2 6069   8.654   7.916  11.354
68099SOL     OW 6070   4.418   3.362   0.994
68099SOL    HW1 6071   4.341   3.365   1.050
68099SOL    HW2 6072   4.492   3.369   1.054
68100SOL     OW 6073   0.394  10.827   3.982
68100SOL    HW1 6074   0.330  10.855   3.916
68100SOL    HW2 6075   0.439  10.908   4.006
68101SOL     OW 6076  10.179   0.820   7.805
68101SOL    HW1 6077  10.211   0.734   7.833
68101SOL    HW2 6078  10.231   0.841   7.726
68102SOL     OW 6079  10.035   2.008   2.382
68102SOL    HW1 6080  10.011   2.092   2.343
68102SOL    HW2 6081  10.130   2.002   2.370
68103SOL     OW 6082   2.721   1.402   3.279
68103SOL    HW1 6083   2.703   1.345   3.205
68103SOL    HW2 6084   2.784   1.466   3.246
68104SOL     OW 6085   0.618   5.744   7.646
68104SOL    HW1 6086   0.636   5.837   7.629
68104SOL    HW2 6087   0.586   5.710   7.563
68105SOL     OW 6088   5.411   5.954   4.796
68105SOL    HW1 6089   5.453   6.004   4.726
68105SOL    HW2 6090   5.483   5.907   4.838
68106SOL     OW 6091   0.373  14.381   7.977
68106SOL    HW1 6092   0.419  14.406   8.057
68106SOL    HW2 6093   0.324  14.460   7.952
68107SOL     OW 6094   7.206   7.313   3.466
68107SOL    HW1 6095   7.238   7.238   3.518
68107SOL    HW2 6096   7.238   7.390   3.514
68108SOL     OW 6097  12.944   6.766   2.583
68108SOL    HW1 6098  13.023   6.814   2.607
68108SOL    HW2 6099  12.977   6.686   2.541
68109SOL     OW 6100  10.760   1.151   3.829
68109SOL    HW1 6101  10.821   1.109   3.891
68109SOL    HW2 6102  10.801   1.140   3.744
68110SOL     OW 6103   1.982   1.848   1.725
68110SOL    HW1 6104   2.024   1.920   1.677
68110SOL    HW2 6105   2.009   1.769   1.677
68111SOL     OW 6106   0.242   3.438   5.302
68111SOL    HW1 6107   0.296   3.360   5.308
68111SOL    HW2 6108   0.217   3.443   5.209
68112SOL     OW 6109   9.605   7.555  14.201
68112SOL    HW1 6110   9.602   7.630  14.141
68112SOL    HW2 6111   9.665   7.582  14.270
68113SOL     OW 6112  11.864   9.262   2.432
68113SOL    HW1 6113  11.918   9.300   2.501
68113SOL    HW2 6114  11.860   9.169   2.453
68114SOL     OW 6115  12.975   7.807   3.817
68114SOL    HW1 6116  13.063   7.771   3.824
68114SOL    HW2 6117  12.922   7.752   3.875
68115SOL     OW 6118   0.449   9.864   8.863
68115SOL    HW1 6119   0.392   9.796   8.899
68115SOL    HW2 6120   0.517   9.876   8.929
68116SOL     OW 6121   1.857   4.753   7.413
68116SOL    HW1 6122   1.920   4.692   7.373
68116SOL    HW2 6123   1.772   4.710   7.403
68117SOL     OW 6124  10.624   7.570  14.127
68117SOL    HW1 6125  10.532   7.548  14.112
68117SOL    HW2 6126  10.654   7.506  14.191
68118SOL     OW 6127   9.124   2.575   7.354
68118SOL    HW1 6128   9.188   2.509   7.327
68118SOL    HW2 6129   9.154   2.656   7.312
68119SOL     OW 6130   2.799   6.657  11.646
68119SOL    HW1 6131   2.876   6.638  11.593
68119SOL    HW2 6132   2.834   6.689  11.729
68120SOL     OW 6133   4.842   4.708   0.534
68120SOL    HW1 6134   4.845   4.653   0.457
68120SOL    HW2 6135   4.915   4.678   0.588
68121SOL     OW 6136   0.303   3.182   2.639
68121SOL    HW1 6137   0.350   3.102   2.664
68121SOL    HW2 6138   0.258   3.159   2.558
68122SOL     OW 6139  11.169   6.163  12.838
68122SOL    HW1 6140  11.190   6.071  12.819
68122SOL    HW2 6141  11.239   6.213  12.796
68123SOL     OW 6142   4.134   2.179  10.566
68123SOL    HW1 6143   4.085   2.098  10.581
68123SOL    HW2 6144   4.091   2.219  10.489
68124SOL     OW 6145   2.972   8.418  13.108
68124SOL    HW1 6146   2.973   8.485  13.177
68124SOL    HW2 6147   3.041   8.445  13.047
68125SOL     OW 6148   0.210  11.763  13.969
68125SOL    HW1 6149   0.289  11.790  14.016
68125SOL    HW2 6150   0.144  11.828  13.995
68126SOL     OW 6151   5.524   1.874   2.112
68126SOL    HW1 6152   5.444   1.916   2.144
68126SOL    HW2 6153   5.541   1.804   2.175
68127SOL     OW 6154   5.619  12.514   0.656
68127SOL    HW1 6155   5.686  12.450   0.632
68127SOL    HW2 6156   5.626  12.582   0.589
68128SOL     OW 6157   8.674   7.457  14.669
68128SOL    HW1 6158   8.657   7.369  14.701
68128SOL    HW2 6159   8.683   7.510  14.748
68129SOL     OW 6160   5.205   0.945   5.092
68129SOL    HW1 6161   5.275   0.908   5.038
68129SOL    HW2 6162   5.216   1.039   5.084
68130SOL     OW 6163  12.418  13.885  10.835
68130SOL    HW1 6164  12.391  13.814  10.778
68130SOL    HW2 6165  12.337  13.933  10.854
68131SOL     OW 6166   9.131   2.715  14.449
68131SOL    HW1 6167   9.173   2.714  14.535
68131SOL    HW2 6168   9.039   2.734  14.468
68132SOL     OW 6169  10.735  11.870   5.471
68132SOL    HW1 6170  10.729  11.867   5.566
68132SOL    HW2 6171  10.772  11.784   5.447
68133SOL     OW 6172  13.301   7.951   1.107
68133SOL    HW1 6173  13.325   7.898   1.031
68133SOL    HW2 6174  13.352   8.032   1.097
68134SOL     OW 6175  13.017  12.219   4.160
68134SOL    HW1 6176  13.035  12.130   4.191
68134SOL    HW2 6177  12.922  12.229   4.167
68135SOL     OW 6178   5.386  10.485   2.705
68135SOL    HW1 6179   5.394  10.446   2.792
68135SOL    HW2 6180   5.471  10.469   2.664
68136SOL     OW 6181  14.055   0.036  10.755
68136SOL    HW1 6182  13.963   0.037  10.780
68136SOL    HW2 6183  14.053   0.054  10.661
68137SOL     OW 6184   2.769   8.555  14.532
68137SOL    HW1 6185   2.863   8.547  14.547
68137SOL    HW2 6186   2.734   8.469  14.554
68138SOL     OW 6187  11.262  11.696   0.125
68138SOL    HW1 6188  11.228  11.759   0.189
68138SOL    HW2 6189  11.259  11.612   0.171
68139SOL     OW 6190   1.730  10.103   3.557
68139SOL    HW1 6191   1.684  10.021   3.575
68139SOL    HW2 6192   1.820  10.076   3.537
68140SOL     OW 6193  12.546   0.383  10.335
68140SOL    HW1 6194  12.534   0.434  10.414
68140SOL    HW2 6195  12.604   0.436  10.280
68141SOL     OW 6196   2.536   4.118   9.418
68141SOL    HW1 6197   2.616   4.068   9.402
68141SOL    HW2 6198   2.496   4.129   9.332
68142SOL     OW 6199   5.699   6.030  14.175
68142SOL    HW1 6200   5.656   5.987  14.249
68142SOL    HW2 6201   5.789   5.999  14.177
68143SOL     OW 6202   5.168   4.859   2.225
68143SOL    HW1 6203   5.100   4.838   2.161
68143SOL    HW2 6204   5.193   4.775   2.262
68144SOL     OW 6205   3.919   2.104   3.180
68144SOL    HW1 6206   3.931   2.063   3.094
68144SOL    HW2 6207   3.944   2.036   3.243
68145SOL     OW 6208  11.569   7.864  10.163
68145SOL    HW1 6209  11.584   7.914  10.244
68145SOL    HW2 6210  11.570   7.773  10.191
68146SOL     OW 6211  11.549   0.252   3.644
68146SOL    HW1 6212  11.592   0.200   3.713
68146SOL    HW2 6213  11.615   0.318   3.620
68147SOL     OW 6214   3.432   0.106   8.141
68147SOL    HW1 6215   3.498   0.145   8.198
68147SOL    HW2 6216   3.376   0.055   8.200
68148SOL     OW 6217   2.462  12.775   1.454
68148SOL    HW1 6218   2.367  12.771   1.454
68148SOL    HW2 6219   2.489  12.712   1.387
68149SOL     OW 6220   4.514  12.598  10.197
68149SOL    HW1 6221   4.539  12.659  10.128
68149SOL    HW2 6222   4.554  12.634  10.276
68150SOL     OW 6223   2.525  12.800   1.798
68150SOL    HW1 6224   2.589  12.736   1.829
68150SOL    HW2 6225   2.453  12.747   1.762
68151SOL     OW 6226  10.520   7.580  14.545
68151SOL    HW1 6227  10.593   7.606  14.490
68151SOL    HW2 6228  10.480   7.506  14.500
68152SOL     OW 6229   8.210  13.857   7.175
68152SOL    HW1 6230   8.273  13.900   7.118
68152SOL    HW2 6231   8.209  13.766   7.146
68153SOL     OW 6232   6.282  14.348  10.264
68153SOL    HW1 6233   6.273  14.303  10.180
68153SOL    HW2 6234   6.371  14.385  10.261
68154SOL     OW 6235   9.654   5.218   2.923
68154SOL    HW1 6236   9.702   5.242   2.844
68154SOL    HW2 6237   9.563   5.214   2.896
68155SOL     OW 6238   1.369  11.947   8.665
68155SOL    HW1 6239   1.421  12.004   8.722
68155SOL    HW2 6240   1.398  11.968   8.576
68156SOL     OW 6241  12.263  11.565  11.099
68156SOL    HW1 6242  12.223  11.621  11.033
68156SOL    HW2 6243  12.299  11.627  11.163
68157SOL     OW 6244   7.748   5.107   9.006
68157SOL    HW1 6245   7.700   5.162   8.944
68157SOL    HW2 6246   7.778   5.033   8.954
68158SOL     OW 6247   0.455   3.985   3.532
68158SOL    HW1 6248   0.361   3.992   3.518
68158SOL    HW2 6249   0.468   4.013   3.622
68159SOL     OW 6250   0.276   9.147   3.064
68159SOL    HW1 6251   0.262   9.194   3.147
68159SOL    HW2 6252   0.371   9.138   3.057
68160SOL     OW 6253   6.233  13.362  10.231
68160SOL    HW1 6254   6.183  13.280  10.236
68160SOL    HW2 6255   6.200  13.413  10.305
68161SOL     OW 6256   4.368  11.905   3.604
68161SOL    HW1 6257   4.298  11.840   3.605
68161SOL    HW2 6258   4.433  11.870   3.545
68162SOL     OW 6259   1.718  12.596   6.472
68162SOL    HW1 6260   1.726  12.579   6.379
68162SOL    HW2 6261   1.722  12.510   6.513
68163SOL     OW 6262  10.635   7.588   6.435
68163SOL    HW1 6263  10.682   7.650   6.491
68163SOL    HW2 6264  10.547   7.583   6.472
68164SOL     OW 6265   0.633   0.822  14.789
68164SOL    HW1 6266   0.551   0.828  14.739
68164SOL    HW2 6267   0.638   0.730  14.816
68165SOL     OW 6268   2.050   9.752   1.697
68165SOL    HW1 6269   2.128   9.800   1.726
68165SOL    HW2 6270   2.035   9.783   1.608
68166SOL     OW 6271   6.181   8.253   1.321
68166SOL    HW1 6272   6.175   8.271   1.227
68166SOL    HW2 6273   6.129   8.174   1.333
68167SOL     OW 6274   4.159   5.337   5.911
68167SOL    HW1 6275   4.239   5.358   5.864
68167SOL    HW2 6276   4.188   5.315   6.000
68168SOL     OW 6277  10.287   8.549   3.002
68168SOL    HW1 6278  10.196   8.540   3.032
68168SOL    HW2 6279  10.313   8.636   3.030
68169SOL     OW 6280  11.388   7.524   7.324
68169SOL    HW1 6281  11.349   7.606   7.295
68169SOL    HW2 6282  11.456   7.505   7.259
68170SOL     OW 6283   0.788  11.204   9.284
68170SOL    HW1 6284   0.798  11.118   9.243
68170SOL    HW2 6285   0.800  11.187   9.378
68171SOL     OW 6286   5.825   8.151   8.136
68171SOL    HW1 6287   5.819   8.058   8.158
68171SOL    HW2 6288   5.879   8.189   8.205
68172SOL     OW 6289   6.786   7.862   0.264
68172SOL    HW1 6290   6.791   7.957   0.257
68172SOL    HW2 6291   6.878   7.833   0.268
68173SOL     OW 6292   2.259  13.809   8.312
68173SOL    HW1 6293   2.346  13.776   8.292
68173SOL    HW2 6294   2.274  13.890   8.360
68174SOL     OW 6295   4.755   0.249   5.932
68174SOL    HW1 6296   4.758   0.218   6.023
68174SOL    HW2 6297   4.750   0.344   5.940
68175SOL     OW 6298  14.385   7.273   1.942
68175SOL    HW1 6299  14.436   7.244   1.866
68175SOL    HW2 6300  14.416   7.362   1.958
68176SOL     OW 6301  10.024  14.855   1.126
68176SOL    HW1 6302  10.036  14.775   1.178
68176SOL    HW2 6303   9.930  14.865   1.119
68177SOL     OW 6304   6.350  13.060   5.787
68177SOL    HW1 6305   6.362  12.966   5.799
68177SOL    HW2 6306   6.269  13.068   5.737
68178SOL     OW 6307   2.182  13.883  12.096
68178SOL    HW1 6308   2.271  13.914  12.113
68178SOL    HW2 6309   2.192  13.789  12.080
68179SOL     OW 6310   5.352   6.403  14.815
68179SOL    HW1 6311   5.439   6.419  14.852
68179SOL    HW2 6312   5.293   6.453  14.871
68180SOL     OW 6313  14.458   3.171  13.927
68180SOL    HW1 6314  14.405   3.228  13.984
68180SOL    HW2 6315  14.437   3.200  13.838
68181SOL     OW 6316   1.810   9.487   3.872
68181SOL    HW1 6317   1.750   9.529   3.933
68181SOL    HW2 6318   1.853   9.419   3.924
68182SOL     OW 6319  14.191  14.111  11.244
68182SOL    HW1 6320  14.097  14.115  11.262
68182SOL    HW2 6321  14.217  14.202  11.232
68183SOL     OW 6322   0.708   6.634  11.074
68183SOL    HW1 6323   0.802   6.640  11.092
68183SOL    HW2 6324   0.667   6.689  11.142
68184SOL     OW 6325   0.932   3.653   1.178
68184SOL    HW1 6326   0.959   3.684   1.264
68184SOL    HW2 6327   0.838   3.670   1.175
68185SOL     OW 6328   0.271   5.716  10.483
68185SOL    HW1 6329   0.277   5.621  10.495
68185SOL    HW2 6330   0.248   5.726  10.391
68186SOL     OW 6331  11.757   8.090  11.815
68186SOL    HW1 6332  11.814   8.129  11.881
68186SOL    HW2 6333  11.680   8.148  11.813
68187SOL     OW 6334   6.338  14.368   3.357
68187SOL    HW1 6335   6.373  14.455   3.334
68187SOL    HW2 6336   6.385  14.343   3.436
68188SOL     OW 6337  10.321   0.228  14.070
68188SOL    HW1 6338  10.390   0.266  14.015
68188SOL    HW2 6339  10.364   0.156  14.116
68189SOL     OW 6340   4.866   6.842   0.350
68189SOL    HW1 6341   4.843   6.749   0.353
68189SOL    HW2 6342   4.959   6.845   0.372
68190SOL     OW 6343   3.118   2.241   9.864
68190SOL    HW1 6344   3.070   2.162   9.888
68190SOL    HW2 6345   3.089   2.307   9.927
68191SOL     OW 6346   6.858   9.980  11.397
68191SOL    HW1 6347   6.859  10.027  11.314
68191SOL    HW2 6348   6.824  10.044  11.460
68192SOL     OW 6349  12.562  11.727   1.358
68192SOL    HW1 6350  12.553  11.778   1.277
68192SOL    HW2 6351  12.653  11.742   1.385
68193SOL     OW 6352   4.508   6.161   8.478
68193SOL    HW1 6353   4.472   6.242   8.441
68193SOL    HW2 6354   4.603   6.174   8.476
68194SOL     OW 6355   0.693   0.883   4.770
68194SOL    HW1 6356   0.748   0.805   4.763
68194SOL    HW2 6357   0.750   0.948   4.810
68195SOL     OW 6358   2.586  11.399   9.132
68195SOL    HW1 6359   2.619  11.488   9.118
68195SOL    HW2 6360   2.493  11.405   9.110
68196SOL     OW 6361   5.255   9.728   9.702
68196SOL    HW1 6362   5.350   9.727   9.690
68196SOL    HW2 6363   5.232   9.821   9.695
68197SOL     OW 6364   4.396   6.239  12.027
68197SOL    HW1 6365   4.315   6.244  12.077
68197SOL    HW2 6366   4.373   6.195  11.946
68198SOL     OW 6367   3.894  12.876   1.896
68198SOL    HW1 6368   3.935  12.949   1.850
68198SOL    HW2 6369   3.951  12.860   1.971
68199SOL     OW 6370  14.724  12.655   0.063
68199SOL    HW1 6371  14.810  12.682   0.031
68199SOL    HW2 6372  14.672  12.736   0.063
68200SOL     OW 6373  11.355   5.311   1.516
68200SOL    HW1 6374  11.355   5.365   1.595
68200SOL    HW2 6375  11.430   5.344   1.465
68201SOL     OW 6376   2.454   5.644   0.441
68201SOL    HW1 6377   2.474   5.551   0.429
68201SOL    HW2 6378   2.537   5.684   0.468
68202SOL     OW 6379   1.146  14.736  11.730
68202SOL    HW1 6380   1.176  14.803  11.668
68202SOL    HW2 6381   1.219  14.673  11.735
68203SOL     OW 6382  13.591  14.590  12.358
68203SOL    HW1 6383  13.586  14.495  12.353
68203SOL    HW2 6384  13.651  14.607  12.432
68204SOL     OW 6385   3.692   5.506  12.018
68204SOL    HW1 6386   3.699   5.535  11.927
68204SOL    HW2 6387   3.601   5.479  12.028
68205SOL     OW 6388   0.838   9.388  11.786
68205SOL    HW1 6389   0.878   9.392  11.873
68205SOL    HW2 6390   0.745   9.398  11.803
68206SOL     OW 6391   1.174  14.657   0.476
68206SOL    HW1 6392   1.168  14.745   0.440
68206SOL    HW2 6393   1.260  14.654   0.518
68207SOL     OW 6394   3.099   4.749   9.024
68207SOL    HW1 6395   3.110   4.843   9.010
68207SOL    HW2 6396   3.102   4.712   8.936
68208SOL     OW 6397   8.058  14.576   5.191
68208SOL    HW1 6398   8.088  14.598   5.103
68208SOL    HW2 6399   8.138  14.561   5.242
68209SOL     OW 6400   8.812   6.206  11.008
68209SOL    HW1 6401   8.881   6.250  10.958
68209SOL    HW2 6402   8.782   6.272  11.071
68210SOL     OW 6403   7.304   9.544   2.085
68210SOL    HW1 6404   7.295   9.581   1.997
68210SOL    HW2 6405   7.351   9.612   2.134
68211SOL     OW 6406   5.614   3.121   7.098
68211SOL    HW1 6407   5.707   3.117   7.079
68211SOL    HW2 6408   5.604   3.197   7.156
68212SOL     OW 6409  10.268   0.813  14.795
68212SOL    HW1 6410  10.265   0.739  14.735
68212SOL    HW2 6411  10.296   0.775   0.001
68213SOL     OW 6412  12.228   3.030   5.009
68213SOL    HW1 6413  12.167   3.005   5.079
68213SOL    HW2 6414  12.313   3.035   5.053
68214SOL     OW 6415  13.301  10.863  10.357
68214SOL    HW1 6416  13.391  10.876  10.386
68214SOL    HW2 6417  13.286  10.933  10.293
68215SOL     OW 6418  11.297   6.725  10.407
68215SOL    HW1 6419  11.213   6.719  10.362
68215SOL    HW2 6420  11.274   6.748  10.497
68216SOL     OW 6421   4.934   6.832  11.696
68216SOL    HW1 6422   4.942   6.877  11.612
68216SOL    HW2 6423   5.004   6.869  11.750
68217SOL     OW 6424   5.787   8.839  13.016
68217SOL    HW1 6425   5.864   8.803  12.972
68217SOL    HW2 6426   5.746   8.763  13.059
68218SOL     OW 6427   5.210  13.589  10.184
68218SOL    HW1 6428   5.304  13.582  10.166
68218SOL    HW2 6429   5.169  13.548  10.108
68219SOL     OW 6430   9.164   6.557  10.453
68219SOL    HW1 6431   9.162   6.493  10.381
68219SOL    HW2 6432   9.240   6.612  10.434
68220SOL     OW 6433   7.602   2.678   4.239
68220SOL    HW1 6434   7.593   2.612   4.309
68220SOL    HW2 6435   7.685   2.657   4.196
68221SOL     OW 6436   5.254   0.096   7.558
68221SOL    HW1 6437   5.344   0.127   7.558
68221SOL    HW2 6438   5.206   0.162   7.507
68222SOL     OW 6439   6.511   6.505   4.183
68222SOL    HW1 6440   6.461   6.579   4.149
68222SOL    HW2 6441   6.503   6.512   4.278
68223SOL     OW 6442   0.446   6.043   9.459
68223SOL    HW1 6443   0.501   5.965   9.451
68223SOL    HW2 6444   0.450   6.065   9.553
68224SOL     OW 6445   3.137   8.943  10.308
68224SOL    HW1 6446   3.180   8.870  10.263
68224SOL    HW2 6447   3.202   9.012  10.309
68225SOL     OW 6448  10.950   1.002   9.799
68225SOL    HW1 6449  11.000   1.080   9.824
68225SOL    HW2 6450  10.956   0.999   9.703
68226SOL     OW 6451   0.677   2.752  11.022
68226SOL    HW1 6452   0.648   2.829  10.974
68226SOL    HW2 6453   0.605   2.689  11.012
68227SOL     OW 6454   8.341  12.829   9.352
68227SOL    HW1 6455   8.310  12.775   9.280
68227SOL    HW2 6456   8.262  12.866   9.390
68228SOL     OW 6457   1.541  12.873  12.020
68228SOL    HW1 6458   1.598  12.925  11.964
68228SOL    HW2 6459   1.553  12.910  12.108
68229SOL     OW 6460  10.004   1.631   6.487
68229SOL    HW1 6461  10.088   1.606   6.524
68229SOL    HW2 6462   9.989   1.720   6.516
68230SOL     OW 6463   1.010   4.012   6.837
68230SOL    HW1 6464   0.949   3.996   6.764
68230SOL    HW2 6465   1.017   3.927   6.880
68231SOL     OW 6466   4.905   2.517   6.685
68231SOL    HW1 6467   4.810   2.511   6.673
68231SOL    HW2 6468   4.930   2.598   6.641
68232SOL     OW 6469   2.089   1.090   7.193
68232SOL    HW1 6470   2.017   1.154   7.192
68232SOL    HW2 6471   2.096   1.061   7.103
68233SOL     OW 6472   6.200  12.019  14.809
68233SOL    HW1 6473   6.242  12.057   0.009
68233SOL    HW2 6474   6.113  11.995  14.838
68234SOL     OW 6475   3.052   8.242   5.799
68234SOL    HW1 6476   3.069   8.203   5.885
68234SOL    HW2 6477   2.998   8.318   5.818
68235SOL     OW 6478   8.143   1.154   6.917
68235SOL    HW1 6479   8.161   1.091   6.987
68235SOL    HW2 6480   8.229   1.176   6.882
68236SOL     OW 6481  12.465   8.089   2.425
68236SOL    HW1 6482  12.468   8.057   2.515
68236SOL    HW2 6483  12.401   8.033   2.381
68237SOL     OW 6484   7.229   2.352   5.910
68237SOL    HW1 6485   7.172   2.382   5.838
68237SOL    HW2 6486   7.316   2.348   5.871
68238SOL     OW 6487   5.495   3.519   8.888
68238SOL    HW1 6488   5.455   3.601   8.858
68238SOL    HW2 6489   5.446   3.450   8.842
68239SOL     OW 6490  10.763  13.710  11.238
68239SOL    HW1 6491  10.699  13.640  11.226
68239SOL    HW2 6492  10.846  13.665  11.250
68240SOL     OW 6493   8.079  10.124   2.471
68240SOL    HW1 6494   8.098  10.201   2.526
68240SOL    HW2 6495   7.984  10.119   2.469
68241SOL     OW 6496   8.497   1.902   1.846
68241SOL    HW1 6497   8.561   1.932   1.909
68241SOL    HW2 6498   8.519   1.949   1.765
68242SOL     OW 6499   8.190  14.609   8.441
68242SOL    HW1 6500   8.233  14.524   8.444
68242SOL    HW2 6501   8.247  14.666   8.493
68243SOL     OW 6502   4.540   1.439   9.358
68243SOL    HW1 6503   4.624   1.416   9.320
68243SOL    HW2 6504   4.504   1.356   9.390
68244SOL     OW 6505  14.695   2.129   7.104
68244SOL    HW1 6506  14.754   2.060   7.134
68244SOL    HW2 6507  14.751   2.191   7.058
68245SOL     OW 6508  14.493  11.464   5.803
68245SOL    HW1 6509  14.476  11.410   5.726
68245SOL    HW2 6510  14.480  11.554   5.773
68246SOL     OW 6511   3.248  12.998   6.020
68246SOL    HW1 6512   3.193  13.062   6.064
68246SOL    HW2 6513   3.306  13.050   5.965
68247SOL     OW 6514   6.534   3.596   8.746
68247SOL    HW1 6515   6.449   3.638   8.736
68247SOL    HW2 6516   6.556   3.564   8.659
68248SOL     OW 6517   7.240   9.132   4.775
68248SOL    HW1 6518   7.289   9.051   4.761
68248SOL    HW2 6519   7.150   9.109   4.753
68249SOL     OW 6520  14.695  11.406  12.925
68249SOL    HW1 6521  14.661  11.437  12.841
68249SOL    HW2 6522  14.631  11.438  12.989
68250SOL     OW 6523   0.776   4.520  12.618
68250SOL    HW1 6524   0.715   4.576  12.571
68250SOL    HW2 6525   0.743   4.519  12.708
68251SOL     OW 6526   5.235   8.415   4.769
68251SOL    HW1 6527   5.329   8.434   4.758
68251SOL    HW2 6528   5.193   8.466   4.699
68252SOL     OW 6529   8.221  12.555   2.617
68252SOL    HW1 6530   8.294  12.566   2.678
68252SOL    HW2 6531   8.254  12.495   2.550
68253SOL     OW 6532   3.848  14.820   1.508
68253SOL    HW1 6533   3.889   0.028   1.515
68253SOL    HW2 6534   3.919  14.757   1.522
68254SOL     OW 6535   1.103   7.095   7.666
68254SOL    HW1 6536   1.168   7.024   7.670
68254SOL    HW2 6537   1.083   7.114   7.758
68255SOL     OW 6538  14.041  13.688   3.747
68255SOL    HW1 6539  14.123  13.674   3.700
68255SOL    HW2 6540  14.063  13.754   3.814
68256SOL     OW 6541   5.591   3.696   1.662
68256SOL    HW1 6542   5.586   3.616   1.610
68256SOL    HW2 6543   5.535   3.680   1.738
68257SOL     OW 6544   0.273   8.972   8.808
68257SOL    HW1 6545   0.241   8.891   8.769
68257SOL    HW2 6546   0.199   9.005   8.858
68258SOL     OW 6547   8.533   8.029   5.908
68258SOL    HW1 6548   8.472   8.100   5.888
68258SOL    HW2 6549   8.561   8.046   5.998
68259SOL     OW 6550  10.574   0.119   0.291
68259SOL    HW1 6551  10.655   0.077   0.260
68259SOL    HW2 6552  10.583   0.121   0.386
68260SOL     OW 6553  11.245   0.662  11.921
68260SOL    HW1 6554  11.256   0.701  11.834
68260SOL    HW2 6555  11.317   0.698  11.973
68261SOL     OW 6556  14.281   6.918  12.610
68261SOL    HW1 6557  14.348   6.968  12.657
68261SOL    HW2 6558  14.321   6.901  12.524
68262SOL     OW 6559   2.039   5.586   7.512
68262SOL    HW1 6560   2.053   5.520   7.581
68262SOL    HW2 6561   2.125   5.626   7.500
68263SOL     OW 6562  14.266   3.109   6.769
68263SOL    HW1 6563  14.317   3.092   6.848
68263SOL    HW2 6564  14.331   3.127   6.701
68264SOL     OW 6565  12.814  11.455  11.569
68264SOL    HW1 6566  12.819  11.396  11.644
68264SOL    HW2 6567  12.895  11.440  11.520
68265SOL     OW 6568   8.090  13.937   8.834
68265SOL    HW1 6569   8.028  13.977   8.773
68265SOL    HW2 6570   8.175  13.972   8.808
68266SOL     OW 6571  11.846   8.860  12.638
68266SOL    HW1 6572  11.888   8.900  12.562
68266SOL    HW2 6573  11.880   8.771  12.642
68267SOL     OW 6574   3.367  11.992   7.492
68267SOL    HW1 6575   3.460  11.981   7.474
68267SOL    HW2 6576   3.363  12.059   7.559
68268SOL     OW 6577  12.764   6.985   5.704
68268SOL    HW1 6578  12.790   6.923   5.636
68268SOL    HW2 6579  12.741   6.930   5.779
68269SOL     OW 6580   9.106   1.149   0.590
68269SOL    HW1 6581   9.196   1.172   0.566
68269SOL    HW2 6582   9.067   1.118   0.508
68270SOL     OW 6583  14.107  13.691  10.136
68270SOL    HW1 6584  14.090  13.665  10.045
68270SOL    HW2 6585  14.132  13.610  10.180
68271SOL     OW 6586   6.796  11.487  13.224
68271SOL    HW1 6587   6.776  11.394  13.226
68271SOL    HW2 6588   6.802  11.508  13.131
68272SOL     OW 6589   8.425   6.668   7.999
68272SOL    HW1 6590   8.485   6.734   8.033
68272SOL    HW2 6591   8.362   6.654   8.070
68273SOL     OW 6592   9.026   0.121   8.482
68273SOL    HW1 6593   8.975   0.072   8.418
68273SOL    HW2 6594   9.116   0.117   8.449
68274SOL     OW 6595   1.208   7.191   1.977
68274SOL    HW1 6596   1.200   7.095   1.972
68274SOL    HW2 6597   1.119   7.221   1.998
68275SOL     OW 6598   5.258   1.077   0.316
68275SOL    HW1 6599   5.252   1.045   0.226
68275SOL    HW2 6600   5.224   1.167   0.312
68276SOL     OW 6601   5.969   4.594   1.225
68276SOL    HW1 6602   6.051   4.638   1.206
68276SOL    HW2 6603   5.945   4.625   1.313
68277SOL     OW 6604  11.326  12.355   4.975
68277SOL    HW1 6605  11.295  12.281   5.026
68277SOL    HW2 6606  11.399  12.320   4.923
68278SOL     OW 6607   1.356   7.816  10.904
68278SOL    HW1 6608   1.424   7.863  10.857
68278SOL    HW2 6609   1.315   7.882  10.961
68279SOL     OW 6610   3.801   4.394  12.775
68279SOL    HW1 6611   3.718   4.355  12.747
68279SOL    HW2 6612   3.864   4.369  12.708
68280SOL     OW 6613  11.341   3.630   9.857
68280SOL    HW1 6614  11.323   3.548   9.904
68280SOL    HW2 6615  11.423   3.661   9.894
68281SOL     OW 6616   4.785   1.996   0.428
68281SOL    HW1 6617   4.745   2.008   0.342
68281SOL    HW2 6618   4.746   1.915   0.461
68282SOL     OW 6619  14.118   4.609  10.765
68282SOL    HW1 6620  14.080   4.689  10.803
68282SOL    HW2 6621  14.109   4.622  10.671
68283SOL     OW 6622   1.127   2.041   9.639
68283SOL    HW1 6623   1.069   1.982   9.591
68283SOL    HW2 6624   1.212   1.998   9.637
68284SOL     OW 6625   4.748  11.886   0.945
68284SOL    HW1 6626   4.684  11.881   0.874
68284SOL    HW2 6627   4.831  11.905   0.901
68285SOL     OW 6628  12.233   4.335   1.664
68285SOL    HW1 6629  12.223   4.334   1.759
68285SOL    HW2 6630  12.327   4.332   1.649
68286SOL     OW 6631  13.823   3.992  13.491
68286SOL    HW1 6632  13.850   4.084  13.487
68286SOL    HW2 6633  13.861   3.953  13.413
68287SOL     OW 6634   5.791  11.590   4.362
68287SOL    HW1 6635   5.855  11.519   4.349
68287SOL    HW2 6636   5.706  11.546   4.358
68288SOL     OW 6637   1.956  11.735  10.411
68288SOL    HW1 6638   1.897  11.663  10.388
68288SOL    HW2 6639   1.927  11.764  10.497
68289SOL     OW 6640  11.428   6.811  10.778
68289SOL    HW1 6641  11.497   6.875  10.765
68289SOL    HW2 6642  11.401   6.823  10.869
68290SOL     OW 6643  13.278   3.597  13.416
68290SOL    HW1 6644  13.192   3.574  13.380
68290SOL    HW2 6645  13.317   3.513  13.440
68291SOL     OW 6646  11.264   1.044  10.952
68291SOL    HW1 6647  11.319   1.122  10.948
68291SOL    HW2 6648  11.183   1.074  10.994
68292SOL     OW 6649   8.800  14.183   9.761
68292SOL    HW1 6650   8.768  14.269   9.789
68292SOL    HW2 6651   8.754  14.167   9.678
68293SOL     OW 6652  14.146   1.433   5.268
68293SOL    HW1 6653  14.139   1.518   5.225
68293SOL    HW2 6654  14.086   1.377   5.218
68294SOL     OW 6655  13.375   0.637   6.638
68294SOL    HW1 6656  13.346   0.728   6.634
68294SOL    HW2 6657  13.339   0.597   6.558
68295SOL     OW 6658   7.813  13.209  14.286
68295SOL    HW1 6659   7.736  13.262  14.266
68295SOL    HW2 6660   7.868  13.217  14.208
68296SOL     OW 6661   0.617  13.285  14.413
68296SOL    HW1 6662   0.568  13.298  14.332
68296SOL    HW2 6663   0.553  13.295  14.483
68297SOL     OW 6664  14.697   0.735   5.336
68297SOL    HW1 6665  14.652   0.699   5.412
68297SOL    HW2 6666  14.637   0.721   5.263
68298SOL     OW 6667  13.890   5.369   9.233
68298SOL    HW1 6668  13.897   5.450   9.184
68298SOL    HW2 6669  13.806   5.331   9.207
68299SOL     OW 6670  12.928   8.053   4.042
68299SOL    HW1 6671  12.974   8.071   3.960
68299SOL    HW2 6672  12.975   8.104   4.107
68300SOL     OW 6673   6.355   7.424   8.200
68300SOL    HW1 6674   6.415   7.354   8.175
68300SOL    HW2 6675   6.305   7.388   8.274
68301SOL     OW 6676   9.096  13.511  10.928
68301SOL    HW1 6677   9.182  13.535  10.894
68301SOL    HW2 6678   9.082  13.569  11.002
68302SOL     OW 6679   9.195  12.360   7.463
68302SOL    HW1 6680   9.200  12.385   7.555
68302SOL    HW2 6681   9.158  12.271   7.465
68303SOL     OW 6682   8.663   4.741   7.114
68303SOL    HW1 6683   8.634   4.826   7.080
68303SOL    HW2 6684   8.757   4.738   7.094
68304SOL     OW 6685   9.970  14.613   1.267
68304SOL    HW1 6686  10.009  14.557   1.334
68304SOL    HW2 6687   9.924  14.552   1.209
68305SOL     OW 6688  12.447   1.355   6.106
68305SOL    HW1 6689  12.428   1.359   6.200
68305SOL    HW2 6690  12.362   1.363   6.064
68306SOL     OW 6691  14.412  11.138   3.557
68306SOL    HW1 6692  14.467  11.064   3.532
68306SOL    HW2 6693  14.400  11.127   3.651
68307SOL     OW 6694   1.468   6.228  13.595
68307SOL    HW1 6695   1.457   6.311  13.548
68307SOL    HW2 6696   1.400   6.171  13.559
68308SOL     OW 6697  12.335  13.239   3.757
68308SOL    HW1 6698  12.366  13.151   3.780
68308SOL    HW2 6699  12.397  13.298   3.799
68309SOL     OW 6700  12.473  10.039   5.375
68309SOL    HW1 6701  12.381  10.046   5.351
68309SOL    HW2 6702  12.495  10.126   5.410
68310SOL     OW 6703  11.086   4.435  12.082
68310SOL    HW1 6704  11.113   4.414  11.993
68310SOL    HW2 6705  11.110   4.528  12.092
68311SOL     OW 6706   1.470   7.639   7.207
68311SOL    HW1 6707   1.385   7.683   7.204
68311SOL    HW2 6708   1.512   7.673   7.286
68312SOL     OW 6709   3.650   1.269   7.033
68312SOL    HW1 6710   3.699   1.337   7.079
68312SOL    HW2 6711   3.558   1.288   7.051
68313SOL     OW 6712  12.747   8.758   0.879
68313SOL    HW1 6713  12.839   8.780   0.863
68313SOL    HW2 6714  12.698   8.822   0.829
68314SOL     OW 6715   5.621   7.979  13.099
68314SOL    HW1 6716   5.673   7.944  13.026
68314SOL    HW2 6717   5.534   7.992  13.063
68315SOL     OW 6718   8.156  14.728   1.902
68315SOL    HW1 6719   8.113  14.766   1.826
68315SOL    HW2 6720   8.214  14.798   1.934
68316SOL     OW 6721   8.076   8.888   9.234
68316SOL    HW1 6722   7.997   8.866   9.283
68316SOL    HW2 6723   8.065   8.980   9.209
68317SOL     OW 6724   5.217   5.230   6.220
68317SOL    HW1 6725   5.223   5.135   6.211
68317SOL    HW2 6726   5.227   5.263   6.131
68318SOL     OW 6727   1.570   4.505   0.835
68318SOL    HW1 6728   1.583   4.599   0.832
68318SOL    HW2 6729   1.645   4.471   0.885
68319SOL     OW 6730  10.470   1.990   4.857
68319SOL    HW1 6731  10.533   2.041   4.909
68319SOL    HW2 6732  10.514   1.977   4.773
68320SOL     OW 6733   8.661  13.010   7.732
68320SOL    HW1 6734   8.672  12.971   7.645
68320SOL    HW2 6735   8.611  13.090   7.716
68321SOL     OW 6736   1.187   0.352  11.153
68321SOL    HW1 6737   1.175   0.424  11.215
68321SOL    HW2 6738   1.259   0.300  11.189
68322SOL     OW 6739   9.303  13.296   0.387
68322SOL    HW1 6740   9.399  13.288   0.382
68322SOL    HW2 6741   9.271  13.213   0.352
68323SOL     OW 6742   9.144  12.426   6.137
68323SOL    HW1 6743   9.211  12.424   6.069
68323SOL    HW2 6744   9.190  12.457   6.215
68324SOL     OW 6745   3.165  13.412  12.924
68324SOL    HW1 6746   3.209  13.440  12.844
68324SOL    HW2 6747   3.105  13.483  12.945
68325SOL     OW 6748  13.770   4.917   5.225
68325SOL    HW1 6749  13.701   4.966   5.180
68325SOL    HW2 6750  13.765   4.947   5.316
68326SOL     OW 6751  12.285   7.655   1.447
68326SOL    HW1 6752  12.259   7.747   1.438
68326SOL    HW2 6753  12.207   7.611   1.480
68327SOL     OW 6754  10.435  11.928  12.202
68327SOL    HW1 6755  10.384  11.963  12.129
68327SOL    HW2 6756  10.378  11.936  12.278
68328SOL     OW 6757  12.298   8.328  14.204
68328SOL    HW1 6758  12.218   8.377  14.185
68328SOL    HW2 6759  12.367   8.377  14.159
68329SOL     OW 6760  11.468   2.040   9.521
68329SOL    HW1 6761  11.557   2.065   9.546
68329SOL    HW2 6762  11.465   2.054   9.426
68330SOL     OW 6763   4.039  13.737   8.794
68330SOL    HW1 6764   4.104  13.683   8.840
68330SOL    HW2 6765   3.955  13.701   8.819
68331SOL     OW 6766   6.249  10.466  14.830
68331SOL    HW1 6767   6.323  10.456  14.770
68331SOL    HW2 6768   6.289  10.477   0.039
68332SOL     OW 6769  12.711   4.725   8.152
68332SOL    HW1 6770  12.749   4.729   8.239
68332SOL    HW2 6771  12.767   4.782   8.099
68333SOL     OW 6772   8.674  12.061   1.768
68333SOL    HW1 6773   8.719  12.127   1.821
68333SOL    HW2 6774   8.661  11.988   1.827
68334SOL     OW 6775  12.447   3.853   4.235
68334SOL    HW1 6776  12.437   3.770   4.282
68334SOL    HW2 6777  12.385   3.846   4.162
68335SOL     OW 6778   8.282  14.407   9.344
68335SOL    HW1 6779   8.333  14.328   9.365
68335SOL    HW2 6780   8.204  14.374   9.300
68336SOL     OW 6781  10.983  12.087   7.554
68336SOL    HW1 6782  10.943  12.014   7.507
68336SOL    HW2 6783  10.932  12.164   7.526
68337SOL     OW 6784   1.930   2.689  12.851
68337SOL    HW1 6785   1.941   2.662  12.760
68337SOL    HW2 6786   1.966   2.616  12.902
68338SOL     OW 6787  14.633  12.642   2.571
68338SOL    HW1 6788  14.726  12.663   2.563
68338SOL    HW2 6789  14.621  12.626   2.665
68339SOL     OW 6790   2.317  11.029   5.288
68339SOL    HW1 6791   2.253  11.001   5.353
68339SOL    HW2 6792   2.317  11.125   5.293
68340SOL     OW 6793   8.237   3.811   8.482
68340SOL    HW1 6794   8.157   3.782   8.527
68340SOL    HW2 6795   8.288   3.731   8.471
68341SOL     OW 6796   0.528  13.496   5.494
68341SOL    HW1 6797   0.573  13.574   5.525
68341SOL    HW2 6798   0.590  13.425   5.509
68342SOL     OW 6799  10.180   3.446   3.752
68342SOL    HW1 6800  10.153   3.535   3.732
68342SOL    HW2 6801  10.188   3.403   3.667
68343SOL     OW 6802   8.694   6.647   2.800
68343SOL    HW1 6803   8.761   6.583   2.778
68343SOL    HW2 6804   8.742   6.717   2.846
68344SOL     OW 6805   8.555  12.368   5.563
68344SOL    HW1 6806   8.643  12.405   5.576
68344SOL    HW2 6807   8.547  12.359   5.468
68345SOL     OW 6808  13.726  13.375  14.618
68345SOL    HW1 6809  13.720  13.459  14.664
68345SOL    HW2 6810  13.702  13.310  14.683
68346SOL     OW 6811   1.427  13.125   7.740
68346SOL    HW1 6812   1.415  13.210   7.699
68346SOL    HW2 6813   1.406  13.062   7.671
68347SOL     OW 6814   0.403   8.727  12.453
68347SOL    HW1 6815   0.424   8.801  12.509
68347SOL    HW2 6816   0.377   8.657  12.514
68348SOL     OW 6817  11.204  14.491  11.152
68348SOL    HW1 6818  11.270  14.451  11.209
68348SOL    HW2 6819  11.173  14.567  11.202
68349SOL     OW 6820  12.625  11.518  10.976
68349SOL    HW1 6821  12.718  11.528  10.999
68349SOL    HW2 6822  12.596  11.608  10.959
68350SOL     OW 6823   0.189   5.433  10.385
68350SOL    HW1 6824   0.210   5.430  10.292
68350SOL    HW2 6825   0.094   5.420  10.389
68351SOL     OW 6826   6.135   9.562   1.971
68351SOL    HW1 6827   6.073   9.544   2.041
68351SOL    HW2 6828   6.080   9.584   1.895
68352SOL     OW 6829   9.598   3.547   9.631
68352SOL    HW1 6830   9.669   3.605   9.658
68352SOL    HW2 6831   9.525   3.570   9.688
68353SOL     OW 6832   3.835  11.076   2.430
68353SOL    HW1 6833   3.853  11.003   2.371
68353SOL    HW2 6834   3.788  11.037   2.504
68354SOL     OW 6835   2.054   8.598   3.739
68354SOL    HW1 6836   1.976   8.647   3.714
68354SOL    HW2 6837   2.113   8.607   3.663
68355SOL     OW 6838  11.518   9.646  14.583
68355SOL    HW1 6839  11.485   9.559  14.560
68355SOL    HW2 6840  11.587   9.664  14.519
68356SOL     OW 6841  12.209   7.347  10.289
68356SOL    HW1 6842  12.118   7.375  10.292
68356SOL    HW2 6843  12.259   7.428  10.292
68357SOL     OW 6844  13.301   7.381   8.336
68357SOL    HW1 6845  13.368   7.450   8.331
68357SOL    HW2 6846  13.313   7.330   8.257
68358SOL     OW 6847   7.687   3.311   7.764
68358SOL    HW1 6848   7.637   3.390   7.783
68358SOL    HW2 6849   7.724   3.326   7.678
68359SOL     OW 6850  10.526  14.543   5.456
68359SOL    HW1 6851  10.526  14.567   5.363
68359SOL    HW2 6852  10.618  14.541   5.481
68360SOL     OW 6853  14.365  12.396   8.262
68360SOL    HW1 6854  14.312  12.438   8.331
68360SOL    HW2 6855  14.303  12.378   8.192
68361SOL     OW 6856   9.019   0.527  12.259
68361SOL    HW1 6857   9.069   0.605  12.282
68361SOL    HW2 6858   8.973   0.503  12.339
68362SOL     OW 6859   7.336   6.672  14.148
68362SOL    HW1 6860   7.307   6.604  14.208
68362SOL    HW2 6861   7.333   6.630  14.062
68363SOL     OW 6862   8.762   6.103  10.208
68363SOL    HW1 6863   8.689   6.055  10.170
68363SOL    HW2 6864   8.735   6.195  10.206
68364SOL     OW 6865   7.822   9.171   2.411
68364SOL    HW1 6866   7.899   9.220   2.383
68364SOL    HW2 6867   7.852   9.081   2.418
68365SOL     OW 6868  13.485   0.470   5.187
68365SOL    HW1 6869  13.544   0.546   5.184
68365SOL    HW2 6870  13.537   0.402   5.231
68366SOL     OW 6871   8.236   4.446   6.232
68366SOL    HW1 6872   8.229   4.540   6.216
68366SOL    HW2 6873   8.322   4.434   6.272
68367SOL     OW 6874  13.515  13.941  11.687
68367SOL    HW1 6875  13.436  13.888  11.686
68367SOL    HW2 6876  13.547  13.938  11.597
68368SOL     OW 6877   8.927   1.539   2.957
68368SOL    HW1 6878   8.905   1.630   2.938
68368SOL    HW2 6879   8.859   1.487   2.914
68369SOL     OW 6880   7.165   6.482   0.440
68369SOL    HW1 6881   7.225   6.419   0.481
68369SOL    HW2 6882   7.214   6.564   0.438
68370SOL     OW 6883   1.015  12.102  10.215
68370SOL    HW1 6884   0.955  12.149  10.157
68370SOL    HW2 6885   1.042  12.025  10.165
68371SOL     OW 6886  12.463   0.967  14.358
68371SOL    HW1 6887  12.497   1.055  14.343
68371SOL    HW2 6888  12.540   0.916  14.385
68372SOL     OW 6889   8.418   6.990  12.516
68372SOL    HW1 6890   8.492   6.940  12.481
68372SOL    HW2 6891   8.346   6.972  12.455
68373SOL     OW 6892   4.006   1.477   3.770
68373SOL    HW1 6893   3.924   1.478   3.819
68373SOL    HW2 6894   3.979   1.477   3.678
68374SOL     OW 6895  12.246   3.667   3.259
68374SOL    HW1 6896  12.316   3.601   3.251
68374SOL    HW2 6897  12.169   3.617   3.285
68375SOL     OW 6898   5.523   0.543   9.900
68375SOL    HW1 6899   5.581   0.507   9.833
68375SOL    HW2 6900   5.579   0.598   9.954
68376SOL     OW 6901   8.885   7.251   3.422
68376SOL    HW1 6902   8.906   7.344   3.429
68376SOL    HW2 6903   8.969   7.207   3.437
68377SOL     OW 6904   1.156   9.903   8.446
68377SOL    HW1 6905   1.086   9.966   8.458
68377SOL    HW2 6906   1.224   9.930   8.507
68378SOL     OW 6907   9.129  12.666   3.179
68378SOL    HW1 6908   9.101  12.688   3.090
68378SOL    HW2 6909   9.211  12.715   3.191
68379SOL     OW 6910   4.563  10.955   1.286
68379SOL    HW1 6911   4.633  10.915   1.234
68379SOL    HW2 6912   4.498  10.983   1.222
68380SOL     OW 6913   7.368  13.000  14.029
68380SOL    HW1 6914   7.457  13.006  13.994
68380SOL    HW2 6915   7.353  13.085  14.071
68381SOL     OW 6916   4.930   6.814   5.518
68381SOL    HW1 6917   4.932   6.791   5.426
68381SOL    HW2 6918   4.878   6.745   5.559
68382SOL     OW 6919  13.568  11.836  14.343
68382SOL    HW1 6920  13.599  11.776  14.410
68382SOL    HW2 6921  13.602  11.921  14.370
68383SOL     OW 6922   1.027   3.155  11.478
68383SOL    HW1 6923   0.986   3.128  11.396
68383SOL    HW2 6924   0.961   3.208  11.522
68384SOL     OW 6925  12.642   2.518  12.371
68384SOL    HW1 6926  12.641   2.501  12.277
68384SOL    HW2 6927  12.620   2.433  12.411
68385SOL     OW 6928   2.517   4.567   2.856
68385SOL    HW1 6929   2.540   4.561   2.949
68385SOL    HW2 6930   2.532   4.659   2.834
68386SOL     OW 6931   9.254   3.397   1.639
68386SOL    HW1 6932   9.250   3.312   1.682
68386SOL    HW2 6933   9.340   3.432   1.662
68387SOL     OW 6934   0.347   2.822   3.187
68387SOL    HW1 6935   0.310   2.909   3.200
68387SOL    HW2 6936   0.272   2.763   3.191
68388SOL     OW 6937   1.980  12.024   4.029
68388SOL    HW1 6938   1.971  11.934   3.996
68388SOL    HW2 6939   1.955  12.019   4.121
68389SOL     OW 6940   8.488   7.764   3.897
68389SOL    HW1 6941   8.424   7.734   3.833
68389SOL    HW2 6942   8.437   7.783   3.976
68390SOL     OW 6943   3.562  13.853   0.616
68390SOL    HW1 6944   3.643  13.803   0.624
68390SOL    HW2 6945   3.563  13.885   0.526
68391SOL     OW 6946   3.776   5.722   7.904
68391SOL    HW1 6947   3.720   5.724   7.827
68391SOL    HW2 6948   3.751   5.799   7.954
68392SOL     OW 6949   0.883  10.720  12.766
68392SOL    HW1 6950   0.913  10.810  12.766
68392SOL    HW2 6951   0.942  10.676  12.704
68393SOL     OW 6952   3.406  12.931  10.997
68393SOL    HW1 6953   3.342  12.932  10.926
68393SOL    HW2 6954   3.374  12.996  11.059
68394SOL     OW 6955   2.359   5.909  12.496
68394SOL    HW1 6956   2.313   5.929  12.416
68394SOL    HW2 6957   2.451   5.924  12.475
68395SOL     OW 6958   4.713   6.951   6.381
68395SOL    HW1 6959   4.776   6.894   6.424
68395SOL    HW2 6960   4.763   6.993   6.311
68396SOL     OW 6961   0.321  12.717   7.606
68396SOL    HW1 6962   0.332  12.658   7.681
68396SOL    HW2 6963   0.346  12.803   7.639
68397SOL     OW 6964  10.155  11.411  10.077
68397SOL    HW1 6965  10.245  11.443  10.081
68397SOL    HW2 6966  10.154  11.351  10.002
68398SOL     OW 6967   0.185   7.921   3.279
68398SOL    HW1 6968   0.262   7.914   3.336
68398SOL    HW2 6969   0.219   7.955   3.197
68399SOL     OW 6970  12.264   7.158  12.566
68399SOL    HW1 6971  12.231   7.163  12.655
68399SOL    HW2 6972  12.252   7.066  12.541
68400SOL     OW 6973   5.686   2.672   6.372
68400SOL    HW1 6974   5.692   2.580   6.347
68400SOL    HW2 6975   5.596   2.697   6.351
68401SOL     OW 6976  11.513  12.443  10.846
68401SOL    HW1 6977  11.437  12.475  10.894
68401SOL    HW2 6978  11.507  12.486  10.760
68402SOL     OW 6979   7.099   1.802   4.061
68402SOL    HW1 6980   7.140   1.864   4.000
68402SOL    HW2 6981   7.008   1.797   4.031
68403SOL     OW 6982   6.978  10.351  12.716
68403SOL    HW1 6983   6.917  10.293  12.670
68403SOL    HW2 6984   7.042  10.376  12.649
68404SOL     OW 6985   1.556  12.674   2.380
68404SOL    HW1 6986   1.533  12.759   2.417
68404SOL    HW2 6987   1.614  12.695   2.306
68405SOL     OW 6988   1.004   4.571   2.130
68405SOL    HW1 6989   1.082   4.600   2.178
68405SOL    HW2 6990   0.972   4.496   2.179
68406SOL     OW 6991  12.605   6.181  11.238
68406SOL    HW1 6992  12.584   6.093  11.270
68406SOL    HW2 6993  12.544   6.195  11.165
68407SOL     OW 6994  12.353  12.661  10.602
68407SOL    HW1 6995  12.423  12.722  10.626
68407SOL    HW2 6996  12.292  12.664  10.675
68408SOL     OW 6997  12.139   9.748   6.626
68408SOL    HW1 6998  12.104   9.715   6.709
68408SOL    HW2 6999  12.231   9.723   6.627
68409SOL     OW 7000  14.158   6.346   7.717
68409SOL    HW1 7001  14.174   6.430   7.674
68409SOL    HW2 7002  14.063   6.342   7.728
68410SOL     OW 7003   4.114  10.518   3.373
68410SOL    HW1 7004   4.067  10.482   3.298
68410SOL    HW2 7005   4.199  10.544   3.338
68411SOL     OW 7006   6.872  13.519   9.521
68411SOL    HW1 7007   6.875  13.535   9.615
68411SOL    HW2 7008   6.888  13.604   9.481
68412SOL     OW 7009   7.009   4.222  13.230
68412SOL    HW1 7010   7.084   4.227  13.290
68412SOL    HW2 7011   7.030   4.150  13.171
68413SOL     OW 7012  10.411   7.998   8.373
68413SOL    HW1 7013  10.407   7.998   8.469
68413SOL    HW2 7014  10.326   8.031   8.345
68414SOL     OW 7015   8.057   1.745  12.487
68414SOL    HW1 7016   8.109   1.673  12.451
68414SOL    HW2 7017   7.969   1.708  12.499
68415SOL     OW 7018   9.416   1.012   4.206
68415SOL    HW1 7019   9.387   0.980   4.292
68415SOL    HW2 7020   9.374   1.098   4.199
68416SOL     OW 7021   1.147   9.176  14.024
68416SOL    HW1 7022   1.104   9.091  14.013
68416SOL    HW2 7023   1.116   9.228  13.950
68417SOL     OW 7024   6.694  10.073   6.231
68417SOL    HW1 7025   6.668  10.093   6.142
68417SOL    HW2 7026   6.763  10.007   6.222
68418SOL     OW 7027   6.105   4.944   2.395
68418SOL    HW1 7028   6.030   4.936   2.335
68418SOL    HW2 7029   6.169   4.996   2.346
68419SOL     OW 7030   1.506   3.521   2.045
68419SOL    HW1 7031   1.556   3.483   2.117
68419SOL    HW2 7032   1.416   3.528   2.079
68420SOL     OW 7033   0.320   3.820  12.146
68420SOL    HW1 7034   0.407   3.808  12.185
68420SOL    HW2 7035   0.281   3.892  12.195
68421SOL     OW 7036  10.888   0.067   7.422
68421SOL    HW1 7037  10.820   0.126   7.389
68421SOL    HW2 7038  10.883   0.076   7.517
68422SOL     OW 7039   6.761   9.490  13.632
68422SOL    HW1 7040   6.808   9.473  13.550
68422SOL    HW2 7041   6.797   9.427  13.694
68423SOL     OW 7042  12.066   1.705   7.869
68423SOL    HW1 7043  11.990   1.686   7.814
68423SOL    HW2 7044  12.100   1.619   7.894
68424SOL     OW 7045   7.821   9.049  10.554
68424SOL    HW1 7046   7.813   9.104  10.476
68424SOL    HW2 7047   7.904   9.077  10.594
68425SOL     OW 7048   1.508   7.387   6.470
68425SOL    HW1 7049   1.547   7.339   6.397
68425SOL    HW2 7050   1.529   7.334   6.547
68426SOL     OW 7051   4.241   5.286   1.128
68426SOL    HW1 7052   4.149   5.270   1.148
68426SOL    HW2 7053   4.280   5.315   1.211
68427SOL     OW 7054   3.267   7.779  13.298
68427SOL    HW1 7055   3.213   7.759  13.374
68427SOL    HW2 7056   3.219   7.846  13.250
68428SOL     OW 7057   5.842   0.175   3.000
68428SOL    HW1 7058   5.906   0.177   3.071
68428SOL    HW2 7059   5.890   0.141   2.925
68429SOL     OW 7060   3.931  14.709   6.531
68429SOL    HW1 7061   3.911  14.750   6.447
68429SOL    HW2 7062   3.869  14.749   6.592
68430SOL     OW 7063   4.435   9.232   4.913
68430SOL    HW1 7064   4.352   9.185   4.917
68430SOL    HW2 7065   4.490   9.191   4.979
68431SOL     OW 7066   3.906   5.360  12.098
68431SOL    HW1 7067   3.981   5.417  12.115
68431SOL    HW2 7068   3.839   5.419  12.064
68432SOL     OW 7069   1.042   8.403  13.841
68432SOL    HW1 7070   1.095   8.389  13.763
68432SOL    HW2 7071   1.045   8.498  13.855
68433SOL     OW 7072   6.612  10.242  14.630
68433SOL    HW1 7073   6.624  10.161  14.581
68433SOL    HW2 7074   6.638  10.220  14.720
68434SOL     OW 7075   9.259  12.504  14.126
68434SOL    HW1 7076   9.256  12.562  14.050
68434SOL    HW2 7077   9.315  12.431  14.099
68435SOL     OW 7078   7.583  12.285   9.834
68435SOL    HW1 7079   7.667  12.246   9.807
68435SOL    HW2 7080   7.546  12.320   9.754
68436SOL     OW 7081   4.740   8.449   1.443
68436SOL    HW1 7082   4.726   8.355   1.435
68436SOL    HW2 7083   4.749   8.464   1.537
68437SOL     OW 7084   5.723   0.490   9.728
68437SOL    HW1 7085   5.685   0.426   9.668
68437SOL    HW2 7086   5.818   0.475   9.723
68438SOL     OW 7087   6.099  14.403  11.684
68438SOL    HW1 7088   6.102  14.312  11.654
68438SOL    HW2 7089   6.157  14.406  11.761
68439SOL     OW 7090   3.919   6.878   0.045
68439SOL    HW1 7091   3.969   6.832  14.854
68439SOL    HW2 7092   3.976   6.950   0.072
68440SOL     OW 7093   5.981   5.109  11.296
68440SOL    HW1 7094   5.959   5.053  11.222
68440SOL    HW2 7095   6.075   5.101  11.306
68441SOL     OW 7096   7.692   1.866  11.400
68441SOL    HW1 7097   7.770   1.841  11.448
68441SOL    HW2 7098   7.719   1.866  11.308
68442SOL     OW 7099   4.281  11.916   9.169
68442SOL    HW1 7100   4.334  11.938   9.093
68442SOL    HW2 7101   4.320  11.966   9.241
68443SOL     OW 7102  12.650   3.674   0.207
68443SOL    HW1 7103  12.557   3.655   0.196
68443SOL    HW2 7104  12.694   3.597   0.172
68444SOL     OW 7105   5.366   2.286   9.858
68444SOL    HW1 7106   5.412   2.208   9.888
68444SOL    HW2 7107   5.431   2.356   9.865
68445SOL     OW 7108   5.577   4.249  11.283
68445SOL    HW1 7109   5.657   4.286  11.248
68445SOL    HW2 7110   5.537   4.320  11.334
68446SOL     OW 7111   4.891   1.386   0.450
68446SOL    HW1 7112   4.851   1.465   0.487
68446SOL    HW2 7113   4.984   1.394   0.471
68447SOL     OW 7114  11.812  10.043   8.614
68447SOL    HW1 7115  11.798   9.949   8.612
68447SOL    HW2 7116  11.855  10.064   8.531
68448SOL     OW 7117  14.062   3.359   8.474
68448SOL    HW1 7118  14.144   3.338   8.430
68448SOL    HW2 7119  13.995   3.351   8.406
68449SOL     OW 7120   1.498   1.922   6.655
68449SOL    HW1 7121   1.514   1.873   6.575
68449SOL    HW2 7122   1.582   1.964   6.675
68450SOL     OW 7123   4.590   5.424  13.965
68450SOL    HW1 7124   4.544   5.354  14.012
68450SOL    HW2 7125   4.566   5.504  14.011
68451SOL     OW 7126   1.879  13.143  10.195
68451SOL    HW1 7127   1.842  13.073  10.141
68451SOL    HW2 7128   1.900  13.213  10.133
68452SOL     OW 7129  11.856   8.031   9.381
68452SOL    HW1 7130  11.850   8.089   9.457
68452SOL    HW2 7131  11.931   7.975   9.400
68453SOL     OW 7132   7.669  12.540  13.391
68453SOL    HW1 7133   7.755  12.543  13.349
68453SOL    HW2 7134   7.621  12.614  13.353
68454SOL     OW 7135  10.880   9.555   6.988
68454SOL    HW1 7136  10.971   9.525   6.979
68454SOL    HW2 7137  10.827   9.479   6.961
68455SOL     OW 7138  12.733   1.912  14.786
68455SOL    HW1 7139  12.692   1.842  14.735
68455SOL    HW2 7140  12.811   1.872  14.824
68456SOL     OW 7141   1.281   1.313   8.138
68456SOL    HW1 7142   1.369   1.299   8.173
68456SOL    HW2 7143   1.228   1.244   8.179
68457SOL     OW 7144   5.081   4.552   3.325
68457SOL    HW1 7145   5.109   4.462   3.309
68457SOL    HW2 7146   5.106   4.569   3.416
68458SOL     OW 7147   9.382   2.994   1.308
68458SOL    HW1 7148   9.321   3.039   1.250
68458SOL    HW2 7149   9.337   2.991   1.392
68459SOL     OW 7150   0.711   7.586   5.773
68459SOL    HW1 7151   0.648   7.641   5.819
68459SOL    HW2 7152   0.762   7.545   5.842
68460SOL     OW 7153   8.293  10.291   3.863
68460SOL    HW1 7154   8.234  10.312   3.936
68460SOL    HW2 7155   8.375  10.265   3.906
68461SOL     OW 7156   1.536   3.276  13.551
68461SOL    HW1 7157   1.527   3.217  13.476
68461SOL    HW2 7158   1.627   3.307  13.546
68462SOL     OW 7159   2.439  13.013   8.973
68462SOL    HW1 7160   2.420  13.082   8.909
68462SOL    HW2 7161   2.353  12.980   8.998
68463SOL     OW 7162  10.071   8.587   1.638
68463SOL    HW1 7163  10.072   8.680   1.616
68463SOL    HW2 7164  10.006   8.549   1.578
68464SOL     OW 7165   9.751   7.551   9.227
68464SOL    HW1 7166   9.824   7.610   9.246
68464SOL    HW2 7167   9.687   7.605   9.182
68465SOL     OW 7168  11.077   0.787   8.603
68465SOL    HW1 7169  11.096   0.695   8.586
68465SOL    HW2 7170  11.146   0.835   8.557
68466SOL     OW 7171  11.304   2.103   3.478
68466SOL    HW1 7172  11.378   2.144   3.433
68466SOL    HW2 7173  11.324   2.114   3.571
68467SOL     OW 7174  10.938   9.033   4.248
68467SOL    HW1 7175  11.000   9.048   4.319
68467SOL    HW2 7176  10.896   9.117   4.235
68468SOL     OW 7177   2.927   3.265   6.931
68468SOL    HW1 7178   2.890   3.320   6.862
68468SOL    HW2 7179   2.979   3.326   6.984
68469SOL     OW 7180   8.815  14.701   7.548
68469SOL    HW1 7181   8.758  14.764   7.592
68469SOL    HW2 7182   8.897  14.704   7.597
68470SOL     OW 7183   6.627   3.376   9.344
68470SOL    HW1 7184   6.554   3.434   9.367
68470SOL    HW2 7185   6.585   3.301   9.302
68471SOL     OW 7186   9.534   3.040  13.179
68471SOL    HW1 7187   9.501   3.035  13.089
68471SOL    HW2 7188   9.456   3.046  13.233
68472SOL     OW 7189   5.800   4.245  13.824
68472SOL    HW1 7190   5.742   4.198  13.884
68472SOL    HW2 7191   5.803   4.334  13.857
68473SOL     OW 7192   8.447  14.038   5.429
68473SOL    HW1 7193   8.474  14.052   5.520
68473SOL    HW2 7194   8.427  13.944   5.424
68474SOL     OW 7195  10.485   5.174   6.075
68474SOL    HW1 7196  10.453   5.147   6.161
68474SOL    HW2 7197  10.531   5.256   6.090
68475SOL     OW 7198   5.761   5.434   4.834
68475SOL    HW1 7199   5.798   5.446   4.921
68475SOL    HW2 7200   5.766   5.522   4.794
68476SOL     OW 7201  11.999   2.732   8.068
68476SOL    HW1 7202  12.074   2.787   8.046
68476SOL    HW2 7203  11.940   2.790   8.117
68477SOL     OW 7204   2.007   1.234   2.794
68477SOL    HW1 7205   1.922   1.189   2.794
68477SOL    HW2 7206   2.049   1.206   2.713
68478SOL     OW 7207   7.206   6.878  13.128
68478SOL    HW1 7208   7.291   6.921  13.142
68478SOL    HW2 7209   7.142   6.938  13.166
68479SOL     OW 7210  12.169  11.002  11.301
68479SOL    HW1 7211  12.137  10.917  11.333
68479SOL    HW2 7212  12.118  11.067  11.349
68480SOL     OW 7213  13.245  14.831   9.062
68480SOL    HW1 7214  13.270  14.855   9.151
68480SOL    HW2 7215  13.200  14.747   9.071
68481SOL     OW 7216  14.689   1.852   2.959
68481SOL    HW1 7217  14.712   1.867   3.051
68481SOL    HW2 7218  14.685   1.757   2.950
68482SOL     OW 7219   2.683   4.340   2.306
68482SOL    HW1 7220   2.740   4.366   2.234
68482SOL    HW2 7221   2.700   4.247   2.318
68483SOL     OW 7222   8.195   2.652   5.181
68483SOL    HW1 7223   8.261   2.720   5.187
68483SOL    HW2 7224   8.152   2.652   5.266
68484SOL     OW 7225   8.659   4.043  11.034
68484SOL    HW1 7226   8.585   4.102  11.044
68484SOL    HW2 7227   8.734   4.092  11.070
68485SOL     OW 7228   5.824   2.536  14.818
68485SOL    HW1 7229   5.774   2.594  14.876
68485SOL    HW2 7230   5.805   2.448  14.849
68486SOL     OW 7231  12.024   4.119   8.611
68486SOL    HW1 7232  12.113   4.145   8.633
68486SOL    HW2 7233  12.022   4.025   8.623
68487SOL     OW 7234  10.280   1.377   5.904
68487SOL    HW1 7235  10.303   1.465   5.873
68487SOL    HW2 7236  10.309   1.375   5.995
68488SOL     OW 7237   2.697   1.556   5.878
68488SOL    HW1 7238   2.787   1.526   5.875
68488SOL    HW2 7239   2.669   1.561   5.787
68489SOL     OW 7240   7.673   5.113  10.465
68489SOL    HW1 7241   7.621   5.176  10.515
68489SOL    HW2 7242   7.745   5.089  10.522
68490SOL     OW 7243  12.933  13.515  14.279
68490SOL    HW1 7244  12.895  13.576  14.342
68490SOL    HW2 7245  12.943  13.433  14.328
68491SOL     OW 7246  11.972  11.407  12.093
68491SOL    HW1 7247  12.022  11.488  12.098
68491SOL    HW2 7248  11.955  11.384  12.184
68492SOL     OW 7249  11.583   8.854  11.349
68492SOL    HW1 7250  11.659   8.826  11.298
68492SOL    HW2 7251  11.596   8.948  11.362
68493SOL     OW 7252   8.444  11.793  13.198
68493SOL    HW1 7253   8.474  11.858  13.261
68493SOL    HW2 7254   8.390  11.733  13.249
68494SOL     OW 7255  11.475  12.612   1.696
68494SOL    HW1 7256  11.489  12.544   1.631
68494SOL    HW2 7257  11.466  12.564   1.779
68495SOL     OW 7258   1.226   5.056  14.328
68495SOL    HW1 7259   1.272   5.057  14.244
68495SOL    HW2 7260   1.158   5.123  14.319
68496SOL     OW 7261   0.998  10.903   3.689
68496SOL    HW1 7262   0.959  10.990   3.692
68496SOL    HW2 7263   1.071  10.908   3.750
68497SOL     OW 7264   3.331  12.741   9.304
68497SOL    HW1 7265   3.349  12.787   9.385
68497SOL    HW2 7266   3.249  12.778   9.273
68498SOL     OW 7267   6.425   8.652   0.903
68498SOL    HW1 7268   6.402   8.669   0.812
68498SOL    HW2 7269   6.476   8.570   0.900
68499SOL     OW 7270   2.504  10.145  10.359
68499SOL    HW1 7271   2.570  10.082  10.331
68499SOL    HW2 7272   2.421  10.097  10.356
68500SOL     OW 7273  12.019  11.216   5.210
68500SOL    HW1 7274  12.003  11.284   5.144
68500SOL    HW2 7275  12.062  11.146   5.162
68501SOL     OW 7276   9.832   4.145   0.725
68501SOL    HW1 7277   9.764   4.205   0.692
68501SOL    HW2 7278   9.913   4.195   0.717
68502SOL     OW 7279  11.526   6.844   0.629
68502SOL    HW1 7280  11.519   6.916   0.566
68502SOL    HW2 7281  11.448   6.854   0.684
68503SOL     OW 7282   0.350   7.081   9.634
68503SOL    HW1 7283   0.358   7.154   9.696
68503SOL    HW2 7284   0.408   7.013   9.669
68504SOL     OW 7285  11.210  14.785   9.331
68504SOL    HW1 7286  11.271  14.725   9.373
68504SOL    HW2 7287  11.264  14.837   9.271
68505SOL     OW 7288   7.209   9.904   4.459
68505SOL    HW1 7289   7.119   9.898   4.427
68505SOL    HW2 7290   7.263   9.893   4.381
68506SOL     OW 7291   3.989   1.142   7.259
68506SOL    HW1 7292   3.986   1.050   7.286
68506SOL    HW2 7293   3.919   1.184   7.310
68507SOL     OW 7294  13.025   1.557  12.983
68507SOL    HW1 7295  12.950   1.603  13.021
68507SOL    HW2 7296  12.996   1.466  12.974
68508SOL     OW 7297  10.431   1.800   3.844
68508SOL    HW1 7298  10.517   1.819   3.881
68508SOL    HW2 7299  10.447   1.790   3.750
68509SOL     OW 7300  13.935   2.388   8.993
68509SOL    HW1 7301  13.909   2.411   9.082
68509SOL    HW2 7302  13.982   2.305   9.003
68510SOL     OW 7303   7.467  10.296  13.007
68510SOL    HW1 7304   7.498  10.309  13.097
68510SOL    HW2 7305   7.373  10.309  13.012
68511SOL     OW 7306   9.998   2.652   7.481
68511SOL    HW1 7307   9.932   2.703   7.526
68511SOL    HW2 7308   9.963   2.639   7.393
68512SOL     OW 7309   8.608   0.084  14.828
68512SOL    HW1 7310   8.535   0.142  14.847
68512SOL    HW2 7311   8.568   0.005  14.792
68513SOL     OW 7312   7.772   9.928  14.864
68513SOL    HW1 7313   7.691   9.918   0.035
68513SOL    HW2 7314   7.840   9.896   0.047
68514SOL     OW 7315   8.490   1.115  12.755
68514SOL    HW1 7316   8.454   1.175  12.690
68514SOL    HW2 7317   8.578   1.147  12.772
68515SOL     OW 7318   6.912   1.296   1.622
68515SOL    HW1 7319   6.851   1.225   1.643
68515SOL    HW2 7320   6.980   1.289   1.689
68516SOL     OW 7321  11.917  10.377  12.769
68516SOL    HW1 7322  12.004  10.416  12.755
68516SOL    HW2 7323  11.924  10.289  12.732
68517SOL     OW 7324   7.966   8.993   1.475
68517SOL    HW1 7325   7.871   8.996   1.471
68517SOL    HW2 7326   7.995   9.047   1.402
68518SOL     OW 7327   2.068  13.706   9.607
68518SOL    HW1 7328   2.083  13.644   9.536
68518SOL    HW2 7329   1.973  13.707   9.618
68519SOL     OW 7330  13.036   9.349   7.432
68519SOL    HW1 7331  12.993   9.302   7.361
68519SOL    HW2 7332  13.046   9.438   7.399
68520SOL     OW 7333   3.553  10.702  13.725
68520SOL    HW1 7334   3.508  10.758  13.788
68520SOL    HW2 7335   3.491  10.692  13.652
68521SOL     OW 7336   1.027  11.316   1.908
68521SOL    HW1 7337   1.043  11.225   1.931
68521SOL    HW2 7338   0.949  11.340   1.958
68522SOL     OW 7339   3.180   5.875   1.637
68522SOL    HW1 7340   3.088   5.876   1.663
68522SOL    HW2 7341   3.181   5.923   1.554
68523SOL     OW 7342   3.665   0.240   1.788
68523SOL    HW1 7343   3.723   0.192   1.848
68523SOL    HW2 7344   3.671   0.331   1.816
68524SOL     OW 7345   9.210   0.037  13.138
68524SOL    HW1 7346   9.272  14.873  13.198
68524SOL    HW2 7347   9.253   0.119  13.113
68525SOL     OW 7348   8.970  14.519  12.781
68525SOL    HW1 7349   9.039  14.536  12.845
68525SOL    HW2 7350   8.919  14.600  12.779
68526SOL     OW 7351  12.342   6.619  13.413
68526SOL    HW1 7352  12.270   6.682  13.426
68526SOL    HW2 7353  12.397   6.630  13.490
68527SOL     OW 7354   7.825   8.267   2.392
68527SOL    HW1 7355   7.748   8.236   2.344
68527SOL    HW2 7356   7.795   8.346   2.437
68528SOL     OW 7357   5.614  10.564   9.691
68528SOL    HW1 7358   5.619  10.520   9.775
68528SOL    HW2 7359   5.644  10.653   9.708
68529SOL     OW 7360  14.708  10.633   4.449
68529SOL    HW1 7361  14.681  10.543   4.469
68529SOL    HW2 7362  14.758  10.626   4.368
68530SOL     OW 7363   7.305   9.614   0.704
68530SOL    HW1 7364   7.312   9.539   0.764
68530SOL    HW2 7365   7.318   9.691   0.760
68531SOL     OW 7366   9.805   1.009   6.176
68531SOL    HW1 7367   9.711   0.991   6.169
68531SOL    HW2 7368   9.819   1.029   6.269
68532SOL     OW 7369   2.798  14.274   1.439
68532SOL    HW1 7370   2.848  14.275   1.520
68532SOL    HW2 7371   2.709  14.297   1.466
68533SOL     OW 7372   6.909  10.772   3.422
68533SOL    HW1 7373   6.917  10.847   3.362
68533SOL    HW2 7374   6.984  10.781   3.481
68534SOL     OW 7375   2.475  12.147  13.438
68534SOL    HW1 7376   2.400  12.180  13.388
68534SOL    HW2 7377   2.529  12.101  13.373
68535SOL     OW 7378   1.079   6.511  13.142
68535SOL    HW1 7379   1.066   6.497  13.048
68535SOL    HW2 7380   1.148   6.450  13.166
68536SOL     OW 7381   7.549   9.419   7.622
68536SOL    HW1 7382   7.505   9.339   7.595
68536SOL    HW2 7383   7.619   9.431   7.557
68537SOL     OW 7384   7.339   0.541   1.349
68537SOL    HW1 7385   7.261   0.579   1.388
68537SOL    HW2 7386   7.343   0.452   1.385
68538SOL     OW 7387   9.511  11.859   9.173
68538SOL    HW1 7388   9.465  11.860   9.258
68538SOL    HW2 7389   9.589  11.806   9.189
68539SOL     OW 7390  13.566   3.254   6.694
68539SOL    HW1 7391  13.619   3.229   6.770
68539SOL    HW2 7392  13.554   3.349   6.703
68540SOL     OW 7393   1.521  12.040   6.259
68540SOL    HW1 7394   1.589  12.068   6.319
68540SOL    HW2 7395   1.441  12.084   6.290
68541SOL     OW 7396   2.918   8.018   1.766
68541SOL    HW1 7397   2.827   7.991   1.755
68541SOL    HW2 7398   2.968   7.938   1.749
68542SOL     OW 7399   9.938   6.591  12.375
68542SOL    HW1 7400   9.897   6.591  12.461
68542SOL    HW2 7401   9.928   6.501  12.343
68543SOL     OW 7402   1.578   5.015  12.649
68543SOL    HW1 7403   1.609   5.050  12.732
68543SOL    HW2 7404   1.483   5.030  12.651
68544SOL     OW 7405   8.276   7.273   3.087
68544SOL    HW1 7406   8.180   7.273   3.086
68544SOL    HW2 7407   8.301   7.223   3.009
68545SOL     OW 7408   3.307   9.102   6.825
68545SOL    HW1 7409   3.386   9.148   6.796
68545SOL    HW2 7410   3.316   9.096   6.920
68546SOL     OW 7411   5.328   9.055   2.717
68546SOL    HW1 7412   5.243   9.098   2.729
68546SOL    HW2 7413   5.358   9.035   2.806
68547SOL     OW 7414  11.043  11.179   7.041
68547SOL    HW1 7415  11.136  11.166   7.055
68547SOL    HW2 7416  11.037  11.257   6.985
68548SOL     OW 7417  13.683   2.730  14.736
68548SOL    HW1 7418  13.634   2.720  14.818
68548SOL    HW2 7419  13.752   2.663  14.741
68549SOL     OW 7420  11.043   1.139  11.053
68549SOL    HW1 7421  10.958   1.157  11.093
68549SOL    HW2 7422  11.073   1.224  11.021
68550SOL     OW 7423   7.947   0.161   9.219
68550SOL    HW1 7424   8.038   0.136   9.235
68550SOL    HW2 7425   7.896   0.102   9.275
68551SOL     OW 7426   2.453   2.552  14.676
68551SOL    HW1 7427   2.474   2.642  14.649
68551SOL    HW2 7428   2.359   2.544  14.661
68552SOL     OW 7429  10.180   5.544  11.713
68552SOL    HW1 7430  10.265   5.538  11.755
68552SOL    HW2 7431  10.185   5.623  11.659
68553SOL     OW 7432   0.581   0.420   5.538
68553SOL    HW1 7433   0.487   0.407   5.541
68553SOL    HW2 7434   0.603   0.418   5.445
68554SOL     OW 7435  12.410   7.022   9.250
68554SOL    HW1 7436  12.398   6.933   9.217
68554SOL    HW2 7437  12.398   7.078   9.173
68555SOL     OW 7438  12.421   0.519   9.586
68555SOL    HW1 7439  12.488   0.453   9.571
68555SOL    HW2 7440  12.419   0.532   9.680
68556SOL     OW 7441  10.749   2.856  12.686
68556SOL    HW1 7442  10.706   2.802  12.754
68556SOL    HW2 7443  10.676   2.893  12.636
68557SOL     OW 7444  11.110  14.236   0.244
68557SOL    HW1 7445  11.128  14.327   0.267
68557SOL    HW2 7446  11.103  14.237   0.149
68558SOL     OW 7447  10.388   0.578  10.510
68558SOL    HW1 7448  10.477   0.605  10.489
68558SOL    HW2 7449  10.373   0.501  10.454
68559SOL     OW 7450   6.235   7.663   9.571
68559SOL    HW1 7451   6.296   7.591   9.552
68559SOL    HW2 7452   6.237   7.671   9.666
68560SOL     OW 7453   0.674  13.280   1.049
68560SOL    HW1 7454   0.685  13.227   0.970
68560SOL    HW2 7455   0.761  13.313   1.068
68561SOL     OW 7456   8.970   8.459  11.793
68561SOL    HW1 7457   8.965   8.478  11.886
68561SOL    HW2 7458   8.890   8.498  11.756
68562SOL     OW 7459   1.336   3.020  13.146
68562SOL    HW1 7460   1.418   3.051  13.108
68562SOL    HW2 7461   1.268   3.045  13.083
68563SOL     OW 7462   5.166   8.276   2.191
68563SOL    HW1 7463   5.191   8.189   2.222
68563SOL    HW2 7464   5.189   8.335   2.263
68564SOL     OW 7465   8.937   4.045  10.341
68564SOL    HW1 7466   9.020   4.041  10.388
68564SOL    HW2 7467   8.919   3.955  10.315
68565SOL     OW 7468   3.477   9.333   7.208
68565SOL    HW1 7469   3.528   9.310   7.286
68565SOL    HW2 7470   3.541   9.338   7.138
68566SOL     OW 7471   9.688   0.407   9.466
68566SOL    HW1 7472   9.699   0.335   9.529
68566SOL    HW2 7473   9.777   0.437   9.450
68567SOL     OW 7474   0.170  13.359   6.651
68567SOL    HW1 7475   0.247  13.374   6.597
68567SOL    HW2 7476   0.136  13.274   6.621
68568SOL     OW 7477   3.319  11.079   8.750
68568SOL    HW1 7478   3.414  11.069   8.750
68568SOL    HW2 7479   3.303  11.168   8.719
68569SOL     OW 7480   4.197  12.576   5.651
68569SOL    HW1 7481   4.220  12.625   5.572
68569SOL    HW2 7482   4.215  12.484   5.628
68570SOL     OW 7483   9.330   0.223   2.757
68570SOL    HW1 7484   9.349   0.227   2.663
68570SOL    HW2 7485   9.404   0.267   2.798
68571SOL     OW 7486  10.361   6.333  10.160
68571SOL    HW1 7487  10.435   6.337  10.221
68571SOL    HW2 7488  10.297   6.278  10.205
68572SOL     OW 7489   1.021   3.760   6.687
68572SOL    HW1 7490   1.005   3.727   6.599
68572SOL    HW2 7491   0.935   3.790   6.718
68573SOL     OW 7492   6.367   9.101   6.620
68573SOL    HW1 7493   6.329   9.105   6.708
68573SOL    HW2 7494   6.316   9.034   6.575
68574SOL     OW 7495  12.689   0.314   2.565
68574SOL    HW1 7496  12.634   0.391   2.575
68574SOL    HW2 7497  12.632   0.240   2.587
68575SOL     OW 7498   5.231   2.330   5.946
68575SOL    HW1 7499   5.258   2.421   5.957
68575SOL    HW2 7500   5.179   2.311   6.025
68576SOL     OW 7501   5.122  13.985   1.454
68576SOL    HW1 7502   5.144  14.068   1.414
68576SOL    HW2 7503   5.040  13.958   1.411
68577SOL     OW 7504  13.650  12.239   6.406
68577SOL    HW1 7505  13.624  12.330   6.419
68577SOL    HW2 7506  13.574  12.197   6.364
68578SOL     OW 7507  13.472   5.633   3.437
68578SOL    HW1 7508  13.402   5.570   3.454
68578SOL    HW2 7509  13.438   5.688   3.366
68579SOL     OW 7510  11.022   4.235  12.416
68579SOL    HW1 7511  11.065   4.318  12.433
68579SOL    HW2 7512  11.069   4.198  12.341
68580SOL     OW 7513   8.303   4.900   7.749
68580SOL    HW1 7514   8.377   4.931   7.697
68580SOL    HW2 7515   8.254   4.842   7.690
68581SOL     OW 7516   8.986  13.426   7.536
68581SOL    HW1 7517   9.021  13.337   7.534
68581SOL    HW2 7518   9.064  13.482   7.542
68582SOL     OW 7519  11.714   4.024   7.932
68582SOL    HW1 7520  11.651   3.952   7.933
68582SOL    HW2 7521  11.715   4.054   7.841
68583SOL     OW 7522   7.849   0.085  14.813
68583SOL    HW1 7523   7.768   0.122  14.779
68583SOL    HW2 7524   7.879   0.147   0.002
68584SOL     OW 7525   0.885   6.928  13.852
68584SOL    HW1 7526   0.938   6.848  13.851
68584SOL    HW2 7527   0.825   6.918  13.777
68585SOL     OW 7528   0.120   0.407   4.384
68585SOL    HW1 7529   0.049   0.352   4.416
68585SOL    HW2 7530   0.087   0.444   4.302
68586SOL     OW 7531  12.453   5.073   1.779
68586SOL    HW1 7532  12.543   5.102   1.767
68586SOL    HW2 7533  12.459   5.003   1.844
68587SOL     OW 7534  10.977   1.863   2.234
68587SOL    HW1 7535  10.916   1.930   2.203
68587SOL    HW2 7536  10.954   1.850   2.326
68588SOL     OW 7537   5.738   8.499   6.008
68588SOL    HW1 7538   5.742   8.495   6.104
68588SOL    HW2 7539   5.675   8.569   5.990
68589SOL     OW 7540   2.501   8.532   0.994
68589SOL    HW1 7541   2.428   8.500   0.942
68589SOL    HW2 7542   2.563   8.458   0.996
68590SOL     OW 7543   1.582   0.069   7.802
68590SOL    HW1 7544   1.491   0.098   7.806
68590SOL    HW2 7545   1.604   0.047   7.892
68591SOL     OW 7546   5.374   6.367   7.708
68591SOL    HW1 7547   5.432   6.416   7.765
68591SOL    HW2 7548   5.370   6.418   7.627
68592SOL     OW 7549   5.353   7.122  13.013
68592SOL    HW1 7550   5.348   7.170  13.096
68592SOL    HW2 7551   5.440   7.142  12.980
68593SOL     OW 7552   1.208   9.179   2.709
68593SOL    HW1 7553   1.171   9.128   2.638
68593SOL    HW2 7554   1.268   9.119   2.754
68594SOL     OW 7555   4.906  10.318   7.934
68594SOL    HW1 7556   4.859  10.299   7.853
68594SOL    HW2 7557   4.841  10.363   7.989
68595SOL     OW 7558   4.476   6.575   9.042
68595SOL    HW1 7559   4.517   6.495   9.008
68595SOL    HW2 7560   4.489   6.570   9.137
68596SOL     OW 7561   1.830   5.236  12.163
68596SOL    HW1 7562   1.838   5.314  12.107
68596SOL    HW2 7563   1.871   5.262  12.245
68597SOL     OW 7564  13.932   7.862   8.713
68597SOL    HW1 7565  13.851   7.812   8.710
68597SOL    HW2 7566  13.926   7.921   8.638
68598SOL     OW 7567  14.754   0.342  14.634
68598SOL    HW1 7568  14.688   0.404  14.603
68598SOL    HW2 7569  14.727   0.258  14.597
68599SOL     OW 7570   5.631   0.787  13.472
68599SOL    HW1 7571   5.686   0.710  13.485
68599SOL    HW2 7572   5.555   0.755  13.423
68600SOL     OW 7573  11.696   3.634   2.851
68600SOL    HW1 7574  11.642   3.590   2.785
68600SOL    HW2 7575  11.741   3.563   2.897
68601SOL     OW 7576   2.478   4.263  12.059
68601SOL    HW1 7577   2.496   4.290  12.149
68601SOL    HW2 7578   2.399   4.210  12.065
68602SOL     OW 7579   0.159  12.835   5.217
68602SOL    HW1 7580   0.134  12.790   5.136
68602SOL    HW2 7581   0.237  12.886   5.194
68603SOL     OW 7582  14.050   3.686   7.746
68603SOL    HW1 7583  14.115   3.637   7.696
68603SOL    HW2 7584  13.996   3.619   7.787
68604SOL     OW 7585   0.949   8.146  13.444
68604SOL    HW1 7586   0.882   8.102  13.496
68604SOL    HW2 7587   0.914   8.145  13.355
68605SOL     OW 7588  12.977   9.628   2.206
68605SOL    HW1 7589  12.925   9.548   2.195
68605SOL    HW2 7590  12.925   9.682   2.266
68606SOL     OW 7591  11.947   3.086  12.521
68606SOL    HW1 7592  11.937   3.051  12.432
68606SOL    HW2 7593  11.981   3.012  12.572
68607SOL     OW 7594   9.047  11.081   1.828
68607SOL    HW1 7595   8.991  11.130   1.767
68607SOL    HW2 7596   9.107  11.033   1.772
68608SOL     OW 7597  11.368  12.974   0.025
68608SOL    HW1 7598  11.281  12.934   0.020
68608SOL    HW2 7599  11.405  12.940   0.106
68609SOL     OW 7600   3.708  14.335   3.032
68609SOL    HW1 7601   3.630  14.282   3.015
68609SOL    HW2 7602   3.780  14.287   2.991
68610SOL     OW 7603   6.912   5.121  10.959
68610SOL    HW1 7604   6.924   5.170  10.877
68610SOL    HW2 7605   7.001   5.114  10.995
68611SOL     OW 7606   8.871  10.220  14.431
68611SOL    HW1 7607   8.902  10.131  14.440
68611SOL    HW2 7608   8.782  10.218  14.466
68612SOL     OW 7609   5.805   4.775  13.169
68612SOL    HW1 7610   5.714   4.782  13.199
68612SOL    HW2 7611   5.853   4.742  13.245
68613SOL     OW 7612   0.538  11.497   7.909
68613SOL    HW1 7613   0.538  11.561   7.838
68613SOL    HW2 7614   0.630  11.472   7.919
68614SOL     OW 7615   0.244  11.794   7.130
68614SOL    HW1 7616   0.277  11.744   7.055
68614SOL    HW2 7617   0.149  11.783   7.126
68615SOL     OW 7618  13.505   6.999  11.297
68615SOL    HW1 7619  13.453   7.062  11.248
68615SOL    HW2 7620  13.505   6.920  11.243
68616SOL     OW 7621  11.889   7.752   3.074
68616SOL    HW1 7622  11.861   7.795   3.155
68616SOL    HW2 7623  11.852   7.664   3.079
68617SOL     OW 7624   9.030   9.477   5.629
68617SOL    HW1 7625   9.031   9.456   5.536
68617SOL    HW2 7626   8.939   9.460   5.656
68618SOL     OW 7627   4.214  13.283   0.943
68618SOL    HW1 7628   4.290  13.267   0.999
68618SOL    HW2 7629   4.162  13.349   0.990
68619SOL     OW 7630   4.474   3.658   5.745
68619SOL    HW1 7631   4.537   3.592   5.775
68619SOL    HW2 7632   4.529   3.729   5.710
68620SOL     OW 7633   1.627   8.929   2.283
68620SOL    HW1 7634   1.671   8.984   2.348
68620SOL    HW2 7635   1.644   8.839   2.311
68621SOL     OW 7636  10.653   5.643   9.753
68621SOL    HW1 7637  10.708   5.565   9.742
68621SOL    HW2 7638  10.626   5.667   9.665
68622SOL     OW 7639  13.315   9.542  11.958
68622SOL    HW1 7640  13.409   9.544  11.940
68622SOL    HW2 7641  13.308   9.566  12.050
68623SOL     OW 7642   5.612   7.552  12.692
68623SOL    HW1 7643   5.630   7.535  12.600
68623SOL    HW2 7644   5.684   7.608  12.721
68624SOL     OW 7645  12.172  13.782   7.300
68624SOL    HW1 7646  12.112  13.814   7.233
68624SOL    HW2 7647  12.166  13.686   7.293
68625SOL     OW 7648   1.782   5.902   3.747
68625SOL    HW1 7649   1.711   5.857   3.701
68625SOL    HW2 7650   1.742   5.935   3.827
68626SOL     OW 7651   8.646   0.999   2.059
68626SOL    HW1 7652   8.561   1.022   2.095
68626SOL    HW2 7653   8.642   0.905   2.044
68627SOL     OW 7654   6.414  13.961  10.447
68627SOL    HW1 7655   6.331  14.007  10.461
68627SOL    HW2 7656   6.415  13.893  10.514
68628SOL     OW 7657   1.885  13.417   6.022
68628SOL    HW1 7658   1.954  13.483   6.021
68628SOL    HW2 7659   1.805  13.466   6.044
68629SOL     OW 7660  11.930   1.973   3.247
68629SOL    HW1 7661  11.941   1.937   3.335
68629SOL    HW2 7662  11.971   1.908   3.189
68630SOL     OW 7663  11.040   4.670   4.383
68630SOL    HW1 7664  11.089   4.752   4.392
68630SOL    HW2 7665  11.107   4.603   4.368
68631SOL     OW 7666   6.516   1.749   2.268
68631SOL    HW1 7667   6.472   1.686   2.211
68631SOL    HW2 7668   6.469   1.831   2.254
68632SOL     OW 7669   0.832   8.309   9.648
68632SOL    HW1 7670   0.900   8.351   9.700
68632SOL    HW2 7671   0.765   8.284   9.712
68633SOL     OW 7672   0.143   5.568  12.848
68633SOL    HW1 7673   0.191   5.651  12.860
68633SOL    HW2 7674   0.053   5.589  12.871
68634SOL     OW 7675   6.590   9.738  12.469
68634SOL    HW1 7676   6.516   9.797  12.458
68634SOL    HW2 7677   6.559   9.672  12.532
68635SOL     OW 7678   7.910  14.238  11.414
68635SOL    HW1 7679   7.921  14.280  11.500
68635SOL    HW2 7680   7.815  14.229  11.404
68636SOL     OW 7681  14.470  12.242  11.827
68636SOL    HW1 7682  14.444  12.150  11.823
68636SOL    HW2 7683  14.553  12.242  11.874
68637SOL     OW 7684   5.079  12.360  13.254
68637SOL    HW1 7685   5.146  12.378  13.320
68637SOL    HW2 7686   5.071  12.264  13.253
68638SOL     OW 7687  12.918   6.227  13.087
68638SOL    HW1 7688  12.924   6.293  13.156
68638SOL    HW2 7689  12.923   6.143  13.133
68639SOL     OW 7690   9.119   2.549  10.269
68639SOL    HW1 7691   9.045   2.506  10.311
68639SOL    HW2 7692   9.098   2.545  10.175
68640SOL     OW 7693   6.886   7.893  14.151
68640SOL    HW1 7694   6.980   7.894  14.134
68640SOL    HW2 7695   6.865   7.984  14.174
68641SOL     OW 7696   9.854   9.765  13.113
68641SOL    HW1 7697   9.919   9.809  13.059
68641SOL    HW2 7698   9.803   9.835  13.152
68642SOL     OW 7699  11.645   2.516  12.290
68642SOL    HW1 7700  11.637   2.513  12.385
68642SOL    HW2 7701  11.639   2.609  12.268
68643SOL     OW 7702  11.526  12.853   8.792
68643SOL    HW1 7703  11.528  12.865   8.697
68643SOL    HW2 7704  11.543  12.760   8.804
68644SOL     OW 7705   1.586  11.377   9.986
68644SOL    HW1 7706   1.648  11.427   9.933
68644SOL    HW2 7707   1.638  11.349  10.062
68645SOL     OW 7708   6.052   3.861  13.793
68645SOL    HW1 7709   6.068   3.767  13.801
68645SOL    HW2 7710   6.006   3.883  13.874
68646SOL     OW 7711   6.889  11.984   2.583
68646SOL    HW1 7712   6.796  11.964   2.570
68646SOL    HW2 7713   6.909  11.948   2.669
68647SOL     OW 7714  10.521  10.236  14.042
68647SOL    HW1 7715  10.534  10.233  14.137
68647SOL    HW2 7716  10.446  10.293  14.030
68648SOL     OW 7717   4.284   7.687   9.483
68648SOL    HW1 7718   4.376   7.689   9.458
68648SOL    HW2 7719   4.253   7.777   9.471
68649SOL     OW 7720   7.679  12.734   8.239
68649SOL    HW1 7721   7.751  12.698   8.188
68649SOL    HW2 7722   7.603  12.681   8.215
68650SOL     OW 7723   2.668   0.514  14.863
68650SOL    HW1 7724   2.716   0.576  14.809
68650SOL    HW2 7725   2.596   0.483  14.806
68651SOL     OW 7726  12.452   5.955  11.179
68651SOL    HW1 7727  12.470   5.913  11.263
68651SOL    HW2 7728  12.363   5.987  11.186
68652SOL     OW 7729   3.922   4.011  12.536
68652SOL    HW1 7730   3.906   4.059  12.617
68652SOL    HW2 7731   3.837   4.011  12.491
68653SOL     OW 7732  14.530   2.726   9.968
68653SOL    HW1 7733  14.574   2.677   9.899
68653SOL    HW2 7734  14.564   2.815   9.961
68654SOL     OW 7735   9.597   7.272  14.504
68654SOL    HW1 7736   9.592   7.205  14.436
68654SOL    HW2 7737   9.614   7.223  14.585
68655SOL     OW 7738  11.729  11.703   1.103
68655SOL    HW1 7739  11.791  11.647   1.150
68655SOL    HW2 7740  11.676  11.744   1.172
68656SOL     OW 7741  14.690   4.463   3.994
68656SOL    HW1 7742  14.643   4.429   3.917
68656SOL    HW2 7743  14.779   4.428   3.985
68657SOL     OW 7744  12.136   8.391  12.340
68657SOL    HW1 7745  12.082   8.376  12.262
68657SOL    HW2 7746  12.136   8.486  12.351
68658SOL     OW 7747  14.145  13.901  10.923
68658SOL    HW1 7748  14.156  13.983  10.874
68658SOL    HW2 7749  14.231  13.885  10.963
68659SOL     OW 7750   4.633   9.528   0.740
68659SOL    HW1 7751   4.573   9.590   0.782
68659SOL    HW2 7752   4.602   9.442   0.768
68660SOL     OW 7753   6.762   2.916   1.547
68660SOL    HW1 7754   6.835   2.950   1.598
68660SOL    HW2 7755   6.746   2.982   1.480
68661SOL     OW 7756   6.398  14.283   2.649
68661SOL    HW1 7757   6.444  14.243   2.723
68661SOL    HW2 7758   6.420  14.376   2.655
68662SOL     OW 7759   3.419   0.765   6.607
68662SOL    HW1 7760   3.463   0.727   6.682
68662SOL    HW2 7761   3.379   0.691   6.561
68663SOL     OW 7762  12.226   0.111  12.743
68663SOL    HW1 7763  12.255   0.066  12.822
68663SOL    HW2 7764  12.193   0.041  12.687
68664SOL     OW 7765   3.727   9.964  10.937
68664SOL    HW1 7766   3.808   9.982  10.983
68664SOL    HW2 7767   3.668  10.036  10.961
68665SOL     OW 7768   4.677  11.908   5.135
68665SOL    HW1 7769   4.679  12.001   5.116
68665SOL    HW2 7770   4.631  11.901   5.219
68666SOL     OW 7771  13.847   6.625  10.941
68666SOL    HW1 7772  13.875   6.690  11.006
68666SOL    HW2 7773  13.799   6.560  10.991
68667SOL     OW 7774   0.631   1.831  14.280
68667SOL    HW1 7775   0.562   1.884  14.241
68667SOL    HW2 7776   0.598   1.808  14.366
68668SOL     OW 7777  13.643  11.091   7.550
68668SOL    HW1 7778  13.668  11.060   7.637
68668SOL    HW2 7779  13.719  11.070   7.495
68669SOL     OW 7780   7.561   3.896   4.165
68669SOL    HW1 7781   7.556   3.931   4.254
68669SOL    HW2 7782   7.496   3.946   4.116
68670SOL     OW 7783   2.327   6.242  10.021
68670SOL    HW1 7784   2.243   6.203  10.000
68670SOL    HW2 7785   2.328   6.251  10.116
68671SOL     OW 7786   2.861   3.469  13.968
68671SOL    HW1 7787   2.909   3.387  13.980
68671SOL    HW2 7788   2.772   3.449  13.996
68672SOL     OW 7789  10.177   2.760  10.237
68672SOL    HW1 7790  10.142   2.681  10.278
68672SOL    HW2 7791  10.269   2.741  10.221
68673SOL     OW 7792   6.071   1.363   7.936
68673SOL    HW1 7793   6.008   1.406   7.879
68673SOL    HW2 7794   6.153   1.362   7.886
68674SOL     OW 7795   6.064   5.508   2.571
68674SOL    HW1 7796   5.997   5.440   2.577
68674SOL    HW2 7797   6.015   5.590   2.572
68675SOL     OW 7798   0.870  14.717   6.571
68675SOL    HW1 7799   0.943  14.728   6.509
68675SOL    HW2 7800   0.897  14.646   6.628
68676SOL     OW 7801   3.863   9.766   8.819
68676SOL    HW1 7802   3.919   9.759   8.741
68676SOL    HW2 7803   3.793   9.825   8.793
68677SOL     OW 7804  10.263   1.812   9.281
68677SOL    HW1 7805  10.205   1.850   9.347
68677SOL    HW2 7806  10.324   1.758   9.331
68678SOL     OW 7807   2.711   3.424  14.394
68678SOL    HW1 7808   2.777   3.417  14.462
68678SOL    HW2 7809   2.735   3.503  14.345
68679SOL     OW 7810   3.696   5.275   1.285
68679SOL    HW1 7811   3.746   5.194   1.299
68679SOL    HW2 7812   3.707   5.324   1.366
68680SOL     OW 7813   7.551  10.678   9.724
68680SOL    HW1 7814   7.515  10.636   9.802
68680SOL    HW2 7815   7.477  10.685   9.664
68681SOL     OW 7816  11.560  11.305  12.877
68681SOL    HW1 7817  11.597  11.218  12.864
68681SOL    HW2 7818  11.467  11.289  12.889
68682SOL     OW 7819   5.163  10.104   4.172
68682SOL    HW1 7820   5.190  10.018   4.140
68682SOL    HW2 7821   5.158  10.095   4.267
68683SOL     OW 7822   0.167   4.336  12.678
68683SOL    HW1 7823   0.125   4.251  12.692
68683SOL    HW2 7824   0.097   4.392  12.642
68684SOL     OW 7825   6.785   3.796   2.379
68684SOL    HW1 7826   6.879   3.787   2.398
68684SOL    HW2 7827   6.765   3.887   2.398
68685SOL     OW 7828   4.915   0.723  14.866
68685SOL    HW1 7829   4.893   0.816  14.865
68685SOL    HW2 7830   5.007   0.721   0.013
68686SOL     OW 7831  11.005   7.201   1.563
68686SOL    HW1 7832  11.084   7.181   1.514
68686SOL    HW2 7833  10.986   7.292   1.541
68687SOL     OW 7834   3.286   1.998  14.531
68687SOL    HW1 7835   3.332   2.070  14.487
68687SOL    HW2 7836   3.206   1.986  14.480
68688SOL     OW 7837   6.449  10.661   2.611
68688SOL    HW1 7838   6.535  10.620   2.606
68688SOL    HW2 7839   6.388  10.594   2.581
68689SOL     OW 7840   2.461   1.111   0.861
68689SOL    HW1 7841   2.548   1.082   0.835
68689SOL    HW2 7842   2.437   1.177   0.796
68690SOL     OW 7843  10.678  10.726   6.400
68690SOL    HW1 7844  10.725  10.787   6.457
68690SOL    HW2 7845  10.656  10.652   6.457
68691SOL     OW 7846   5.221   6.396   6.450
68691SOL    HW1 7847   5.285   6.325   6.447
68691SOL    HW2 7848   5.240   6.443   6.532
68692SOL     OW 7849  12.650  10.385   0.085
68692SOL    HW1 7850  12.590  10.402   0.012
68692SOL    HW2 7851  12.603  10.415   0.163
68693SOL     OW 7852  13.729  14.690   5.983
68693SOL    HW1 7853  13.785  14.762   6.012
68693SOL    HW2 7854  13.789  14.628   5.942
68694SOL     OW 7855  12.493  12.366  10.916
68694SOL    HW1 7856  12.507  12.457  10.942
68694SOL    HW2 7857  12.489  12.369  10.821
68695SOL     OW 7858   2.145  13.112  10.947
68695SOL    HW1 7859   2.159  13.206  10.938
68695SOL    HW2 7860   2.064  13.095  10.901
68696SOL     OW 7861   0.454  10.750  10.833
68696SOL    HW1 7862   0.440  10.656  10.829
68696SOL    HW2 7863   0.549  10.761  10.828
68697SOL     OW 7864   7.175  10.357   8.967
68697SOL    HW1 7865   7.214  10.431   8.919
68697SOL    HW2 7866   7.199  10.373   9.059
68698SOL     OW 7867   0.873   7.034  10.501
68698SOL    HW1 7868   0.954   7.041  10.551
68698SOL    HW2 7869   0.862   7.122  10.463
68699SOL     OW 7870   0.934   2.585   3.597
68699SOL    HW1 7871   0.937   2.547   3.685
68699SOL    HW2 7872   0.964   2.675   3.609
68700SOL     OW 7873   5.291   7.511  11.572
68700SOL    HW1 7874   5.252   7.486  11.488
68700SOL    HW2 7875   5.385   7.513  11.556
68701SOL     OW 7876   2.987   8.326   2.142
68701SOL    HW1 7877   3.023   8.369   2.065
68701SOL    HW2 7878   3.018   8.235   2.135
68702SOL     OW 7879   9.352  12.716   5.017
68702SOL    HW1 7880   9.409  12.675   5.082
68702SOL    HW2 7881   9.295  12.644   4.988
68703SOL     OW 7882   9.231   4.328  10.557
68703SOL    HW1 7883   9.237   4.314  10.651
68703SOL    HW2 7884   9.139   4.348  10.541
68704SOL     OW 7885   8.705   2.577   4.879
68704SOL    HW1 7886   8.665   2.585   4.792
68704SOL    HW2 7887   8.683   2.488   4.907
68705SOL     OW 7888   4.339   6.980  10.740
68705SOL    HW1 7889   4.256   7.011  10.777
68705SOL    HW2 7890   4.403   7.045  10.769
68706SOL     OW 7891  10.277   6.420   3.461
68706SOL    HW1 7892  10.255   6.328   3.475
68706SOL    HW2 7893  10.261   6.435   3.367
68707SOL     OW 7894   7.972   6.779  13.484
68707SOL    HW1 7895   7.965   6.714  13.554
68707SOL    HW2 7896   8.026   6.737  13.417
68708SOL     OW 7897   6.891   9.786   6.342
68708SOL    HW1 7898   6.809   9.751   6.305
68708SOL    HW2 7899   6.960   9.737   6.298
68709SOL     OW 7900   5.995   3.499   2.331
68709SOL    HW1 7901   6.065   3.508   2.266
68709SOL    HW2 7902   6.036   3.528   2.413
68710SOL     OW 7903   9.591   1.520   5.026
68710SOL    HW1 7904   9.668   1.473   5.058
68710SOL    HW2 7905   9.524   1.504   5.092
68711SOL     OW 7906  10.582  14.014   3.138
68711SOL    HW1 7907  10.658  13.958   3.122
68711SOL    HW2 7908  10.603  14.096   3.093
68712SOL     OW 7909  12.519   3.737   3.865
68712SOL    HW1 7910  12.576   3.814   3.861
68712SOL    HW2 7911  12.519   3.712   3.957
68713SOL     OW 7912  13.982   4.532   0.649
68713SOL    HW1 7913  14.050   4.468   0.672
68713SOL    HW2 7914  14.020   4.582   0.576
68714SOL     OW 7915   3.908   4.375   5.920
68714SOL    HW1 7916   3.826   4.408   5.885
68714SOL    HW2 7917   3.930   4.301   5.863
68715SOL     OW 7918  12.374   8.811  12.092
68715SOL    HW1 7919  12.424   8.746  12.142
68715SOL    HW2 7920  12.401   8.798  12.001
68716SOL     OW 7921   9.411   9.626   3.153
68716SOL    HW1 7922   9.466   9.620   3.075
68716SOL    HW2 7923   9.398   9.720   3.166
68717SOL     OW 7924   3.906   3.059  14.720
68717SOL    HW1 7925   3.971   2.998  14.685
68717SOL    HW2 7926   3.957   3.134  14.751
68718SOL     OW 7927   4.046   7.207   3.032
68718SOL    HW1 7928   4.013   7.121   3.060
68718SOL    HW2 7929   3.983   7.235   2.965
68719SOL     OW 7930  12.689  10.318   0.577
68719SOL    HW1 7931  12.763  10.280   0.624
68719SOL    HW2 7932  12.698  10.286   0.487
68720SOL     OW 7933   9.966  11.469   5.134
68720SOL    HW1 7934   9.969  11.499   5.224
68720SOL    HW2 7935   9.878  11.492   5.104
68721SOL     OW 7936   9.545  13.318  13.239
68721SOL    HW1 7937   9.619  13.327  13.179
68721SOL    HW2 7938   9.468  13.316  13.183
68722SOL     OW 7939   9.005   3.047  10.278
68722SOL    HW1 7940   9.007   2.956  10.306
68722SOL    HW2 7941   8.993   3.097  10.359
68723SOL     OW 7942  13.186   8.528  13.385
68723SOL    HW1 7943  13.262   8.586  13.386
68723SOL    HW2 7944  13.197   8.473  13.462
68724SOL     OW 7945  12.740   0.360   7.273
68724SOL    HW1 7946  12.776   0.307   7.345
68724SOL    HW2 7947  12.651   0.326   7.262
68725SOL     OW 7948   2.129  11.813  11.582
68725SOL    HW1 7949   2.067  11.884  11.564
68725SOL    HW2 7950   2.166  11.791  11.497
68726SOL     OW 7951   5.410   6.907  12.139
68726SOL    HW1 7952   5.505   6.901  12.127
68726SOL    HW2 7953   5.381   6.971  12.075
68727SOL     OW 7954   7.858  10.367   9.940
68727SOL    HW1 7955   7.904  10.421  10.004
68727SOL    HW2 7956   7.861  10.417   9.859
68728SOL     OW 7957   4.154  13.459   9.457
68728SOL    HW1 7958   4.220  13.397   9.489
68728SOL    HW2 7959   4.203  13.521   9.404
68729SOL     OW 7960   5.849   8.140   5.852
68729SOL    HW1 7961   5.857   8.133   5.757
68729SOL    HW2 7962   5.761   8.107   5.871
68730SOL     OW 7963  11.766   5.376   6.572
68730SOL    HW1 7964  11.758   5.335   6.486
68730SOL    HW2 7965  11.684   5.425   6.583
68731SOL     OW 7966   1.809  12.212   4.850
68731SOL    HW1 7967   1.837  12.303   4.838
68731SOL    HW2 7968   1.729  12.205   4.798
68732SOL     OW 7969   1.491   3.604  14.744
68732SOL    HW1 7970   1.552   3.551  14.693
68732SOL    HW2 7971   1.525   3.599  14.833
68733SOL     OW 7972   9.156   8.821   3.119
68733SOL    HW1 7973   9.235   8.852   3.074
68733SOL    HW2 7974   9.159   8.725   3.109
68734SOL     OW 7975   5.622   6.165   8.260
68734SOL    HW1 7976   5.676   6.086   8.253
68734SOL    HW2 7977   5.615   6.196   8.170
68735SOL     OW 7978   2.958  14.024   9.266
68735SOL    HW1 7979   2.958  14.066   9.180
68735SOL    HW2 7980   2.991  13.935   9.250
68736SOL     OW 7981   8.683   4.674   9.715
68736SOL    HW1 7982   8.752   4.611   9.735
68736SOL    HW2 7983   8.713   4.718   9.636
68737SOL     OW 7984   7.988  14.673   7.250
68737SOL    HW1 7985   7.910  14.628   7.218
68737SOL    HW2 7986   7.955  14.748   7.299
68738SOL     OW 7987   3.939  13.734  12.532
68738SOL    HW1 7988   3.881  13.693  12.597
68738SOL    HW2 7989   3.907  13.702  12.448
68739SOL     OW 7990   9.846   7.339   0.351
68739SOL    HW1 7991   9.874   7.431   0.354
68739SOL    HW2 7992   9.926   7.289   0.365
68740SOL     OW 7993   4.270  13.506   0.756
68740SOL    HW1 7994   4.266  13.424   0.806
68740SOL    HW2 7995   4.185  13.513   0.715
68741SOL     OW 7996   7.912   4.968   9.518
68741SOL    HW1 7997   7.895   4.909   9.445
68741SOL    HW2 7998   7.845   5.036   9.509
68742SOL     OW 7999  13.181   8.283   5.389
68742SOL    HW1 8000  13.123   8.359   5.391
68742SOL    HW2 8001  13.133   8.215   5.436
68743SOL     OW 8002  10.612   8.506   1.557
68743SOL    HW1 8003  10.575   8.592   1.576
68743SOL    HW2 8004  10.703   8.524   1.534
68744SOL     OW 8005   3.861  13.170   1.590
68744SOL    HW1 8006   3.848  13.246   1.646
68744SOL    HW2 8007   3.772  13.142   1.567
68745SOL     OW 8008  11.493  14.058   8.074
68745SOL    HW1 8009  11.537  14.112   8.009
68745SOL    HW2 8010  11.401  14.082   8.068
68746SOL     OW 8011   3.701   9.900   1.250
68746SOL    HW1 8012   3.737   9.892   1.339
68746SOL    HW2 8013   3.606   9.896   1.263
68747SOL     OW 8014   6.035   0.091   1.230
68747SOL    HW1 8015   6.069   0.174   1.263
68747SOL    HW2 8016   6.005   0.045   1.308
68748SOL     OW 8017   3.619   6.789   9.316
68748SOL    HW1 8018   3.587   6.698   9.313
68748SOL    HW2 8019   3.661   6.796   9.402
68749SOL     OW 8020   5.084   5.257   9.655
68749SOL    HW1 8021   4.995   5.248   9.621
68749SOL    HW2 8022   5.133   5.296   9.583
68750SOL     OW 8023   3.581   0.650  10.737
68750SOL    HW1 8024   3.568   0.744  10.754
68750SOL    HW2 8025   3.626   0.617  10.814
68751SOL     OW 8026  13.024  11.383   2.734
68751SOL    HW1 8027  13.048  11.417   2.820
68751SOL    HW2 8028  12.929  11.393   2.730
68752SOL     OW 8029   5.760   5.962   7.281
68752SOL    HW1 8030   5.686   6.015   7.251
68752SOL    HW2 8031   5.836   6.002   7.238
68753SOL     OW 8032   4.813  13.739   7.747
68753SOL    HW1 8033   4.854  13.816   7.708
68753SOL    HW2 8034   4.847  13.665   7.696
68754SOL     OW 8035  10.780   3.453  12.701
68754SOL    HW1 8036  10.809   3.364  12.681
68754SOL    HW2 8037  10.767   3.494  12.615
68755SOL     OW 8038   1.196   5.965  12.224
68755SOL    HW1 8039   1.206   5.870  12.230
68755SOL    HW2 8040   1.130   5.987  12.290
68756SOL     OW 8041   7.892   5.816   5.331
68756SOL    HW1 8042   7.869   5.850   5.244
68756SOL    HW2 8043   7.966   5.757   5.314
68757SOL     OW 8044  11.031   9.058   5.190
68757SOL    HW1 8045  11.030   9.044   5.096
68757SOL    HW2 8046  11.094   8.995   5.224
68758SOL     OW 8047   1.415   2.506   8.009
68758SOL    HW1 8048   1.441   2.579   8.065
68758SOL    HW2 8049   1.366   2.547   7.937
68759SOL     OW 8050   3.798  14.537   9.753
68759SOL    HW1 8051   3.854  14.479   9.805
68759SOL    HW2 8052   3.739  14.576   9.818
68760SOL     OW 8053  12.058  13.568   2.819
68760SOL    HW1 8054  12.101  13.650   2.794
68760SOL    HW2 8055  12.129  13.504   2.823
68761SOL     OW 8056   4.920   0.347   9.200
68761SOL    HW1 8057   4.987   0.403   9.160
68761SOL    HW2 8058   4.909   0.275   9.138
68762SOL     OW 8059   0.420   9.889   6.224
68762SOL    HW1 8060   0.334   9.848   6.237
68762SOL    HW2 8061   0.483   9.821   6.249
68763SOL     OW 8062   9.618   6.027  12.491
68763SOL    HW1 8063   9.707   5.999  12.471
68763SOL    HW2 8064   9.626   6.121  12.510
68764SOL     OW 8065   1.742   4.042   7.508
68764SOL    HW1 8066   1.682   4.089   7.450
68764SOL    HW2 8067   1.686   4.002   7.575
68765SOL     OW 8068   2.375   4.578   7.948
68765SOL    HW1 8069   2.346   4.616   7.865
68765SOL    HW2 8070   2.304   4.596   8.009
68766SOL     OW 8071  12.591   0.811   4.664
68766SOL    HW1 8072  12.496   0.805   4.652
68766SOL    HW2 8073  12.621   0.721   4.671
68767SOL     OW 8074  13.597   6.939  14.823
68767SOL    HW1 8075  13.622   6.931  14.732
68767SOL    HW2 8076  13.663   6.997  14.862
68768SOL     OW 8077   1.980   2.402   4.083
68768SOL    HW1 8078   1.890   2.385   4.109
68768SOL    HW2 8079   2.033   2.354   4.145
68769SOL     OW 8080   5.032   9.978   2.344
68769SOL    HW1 8081   5.114   9.973   2.393
68769SOL    HW2 8082   4.978   9.906   2.379
68770SOL     OW 8083   4.618   5.060   4.334
68770SOL    HW1 8084   4.603   5.147   4.296
68770SOL    HW2 8085   4.536   5.013   4.318
68771SOL     OW 8086   2.760  12.653   7.544
68771SOL    HW1 8087   2.677  12.606   7.545
68771SOL    HW2 8088   2.736  12.744   7.529
68772SOL     OW 8089   0.994   9.138  11.508
68772SOL    HW1 8090   1.078   9.179  11.529
68772SOL    HW2 8091   1.006   9.104  11.420
68773SOL     OW 8092   5.858   1.207   6.172
68773SOL    HW1 8093   5.881   1.176   6.084
68773SOL    HW2 8094   5.764   1.192   6.178
68774SOL     OW 8095   1.430  10.260   7.844
68774SOL    HW1 8096   1.397  10.348   7.856
68774SOL    HW2 8097   1.357  10.211   7.808
68775SOL     OW 8098   0.780  14.583   2.675
68775SOL    HW1 8099   0.726  14.658   2.650
68775SOL    HW2 8100   0.717  14.514   2.696
68776SOL     OW 8101   1.604   3.796   6.091
68776SOL    HW1 8102   1.555   3.734   6.145
68776SOL    HW2 8103   1.660   3.842   6.152
68777SOL     OW 8104   7.352   1.529   2.631
68777SOL    HW1 8105   7.393   1.477   2.562
68777SOL    HW2 8106   7.316   1.464   2.692
68778SOL     OW 8107   2.849   3.838   8.070
68778SOL    HW1 8108   2.802   3.785   8.134
68778SOL    HW2 8109   2.941   3.825   8.092
68779SOL     OW 8110  14.511   1.310  12.999
68779SOL    HW1 8111  14.507   1.233  12.942
68779SOL    HW2 8112  14.452   1.289  13.072
68780SOL     OW 8113  12.644  11.599   1.615
68780SOL    HW1 8114  12.587  11.640   1.550
68780SOL    HW2 8115  12.610  11.510   1.624
68781SOL     OW 8116   9.346   4.338  11.743
68781SOL    HW1 8117   9.265   4.387  11.724
68781SOL    HW2 8118   9.416   4.394  11.709
68782SOL     OW 8119   4.184   9.461  14.174
68782SOL    HW1 8120   4.195   9.370  14.202
68782SOL    HW2 8121   4.133   9.502  14.244
68783SOL     OW 8122   2.769   9.870   7.899
68783SOL    HW1 8123   2.828   9.803   7.865
68783SOL    HW2 8124   2.748   9.925   7.822
68784SOL     OW 8125  10.646   5.777   2.441
68784SOL    HW1 8126  10.628   5.735   2.525
68784SOL    HW2 8127  10.699   5.853   2.463
68785SOL     OW 8128   1.242   9.271   0.320
68785SOL    HW1 8129   1.326   9.249   0.279
68785SOL    HW2 8130   1.254   9.360   0.353
68786SOL     OW 8131   9.887   9.500   5.792
68786SOL    HW1 8132   9.859   9.498   5.700
68786SOL    HW2 8133   9.817   9.547   5.837
68787SOL     OW 8134   7.389   9.150  10.563
68787SOL    HW1 8135   7.376   9.202  10.484
68787SOL    HW2 8136   7.347   9.201  10.632
68788SOL     OW 8137   2.346   3.414  12.691
68788SOL    HW1 8138   2.422   3.359  12.711
68788SOL    HW2 8139   2.376   3.471  12.620
68789SOL     OW 8140   5.466   1.566  12.184
68789SOL    HW1 8141   5.521   1.632  12.228
68789SOL    HW2 8142   5.377   1.599  12.194
68790SOL     OW 8143  12.828  13.127   5.104
68790SOL    HW1 8144  12.892  13.116   5.035
68790SOL    HW2 8145  12.747  13.089   5.069
68791SOL     OW 8146   3.269   5.997   3.706
68791SOL    HW1 8147   3.268   6.091   3.723
68791SOL    HW2 8148   3.280   5.989   3.612
68792SOL     OW 8149   6.883   6.247   8.180
68792SOL    HW1 8150   6.796   6.226   8.145
68792SOL    HW2 8151   6.887   6.199   8.263
68793SOL     OW 8152  13.415   6.386   5.640
68793SOL    HW1 8153  13.499   6.351   5.608
68793SOL    HW2 8154  13.427   6.393   5.734
68794SOL     OW 8155   8.609   3.338  10.490
68794SOL    HW1 8156   8.628   3.411  10.549
68794SOL    HW2 8157   8.548   3.283  10.539
68795SOL     OW 8158  10.940   4.795   5.833
68795SOL    HW1 8159  10.854   4.757   5.812
68795SOL    HW2 8160  10.943   4.796   5.929
68796SOL     OW 8161   3.795   6.741   1.803
68796SOL    HW1 8162   3.721   6.721   1.860
68796SOL    HW2 8163   3.872   6.732   1.859
68797SOL     OW 8164   5.781   3.423  10.722
68797SOL    HW1 8165   5.870   3.451  10.743
68797SOL    HW2 8166   5.754   3.480  10.650
68798SOL     OW 8167  13.878  10.541  12.394
68798SOL    HW1 8168  13.944  10.601  12.430
68798SOL    HW2 8169  13.795  10.588  12.403
68799SOL     OW 8170  14.287   7.519   0.267
68799SOL    HW1 8171  14.338   7.577   0.211
68799SOL    HW2 8172  14.343   7.441   0.278
68800SOL     OW 8173   1.328  11.357   1.543
68800SOL    HW1 8174   1.373  11.361   1.628
68800SOL    HW2 8175   1.358  11.436   1.496
68801SOL     OW 8176   8.170   7.890  12.250
68801SOL    HW1 8177   8.155   7.846  12.166
68801SOL    HW2 8178   8.265   7.904  12.253
68802SOL     OW 8179   6.866   4.574  12.404
68802SOL    HW1 8180   6.929   4.563  12.475
68802SOL    HW2 8181   6.898   4.516  12.335
68803SOL     OW 8182   6.426   1.175   2.526
68803SOL    HW1 8183   6.432   1.095   2.475
68803SOL    HW2 8184   6.516   1.206   2.534
68804SOL     OW 8185   0.310   5.001  13.189
68804SOL    HW1 8186   0.354   4.966  13.266
68804SOL    HW2 8187   0.314   4.930  13.125
68805SOL     OW 8188   3.169   4.880  10.522
68805SOL    HW1 8189   3.259   4.910  10.534
68805SOL    HW2 8190   3.163   4.801  10.576
68806SOL     OW 8191   5.751  13.460   7.931
68806SOL    HW1 8192   5.751  13.511   7.850
68806SOL    HW2 8193   5.674  13.404   7.923
68807SOL     OW 8194   7.579   0.089   4.912
68807SOL    HW1 8195   7.503   0.042   4.878
68807SOL    HW2 8196   7.547   0.136   4.989
68808SOL     OW 8197   5.695   0.990   9.067
68808SOL    HW1 8198   5.634   1.062   9.080
68808SOL    HW2 8199   5.720   0.996   8.975
68809SOL     OW 8200  11.046   6.514   6.403
68809SOL    HW1 8201  11.024   6.603   6.375
68809SOL    HW2 8202  11.125   6.524   6.455
68810SOL     OW 8203   3.092   7.746   1.837
68810SOL    HW1 8204   3.056   7.674   1.888
68810SOL    HW2 8205   3.173   7.769   1.883
68811SOL     OW 8206   6.171   6.456  11.380
68811SOL    HW1 8207   6.255   6.503  11.377
68811SOL    HW2 8208   6.180   6.397  11.455
68812SOL     OW 8209   9.051   1.174   8.744
68812SOL    HW1 8210   9.079   1.197   8.832
68812SOL    HW2 8211   9.005   1.252   8.713
68813SOL     OW 8212   1.341   3.605  12.136
68813SOL    HW1 8213   1.250   3.589  12.110
68813SOL    HW2 8214   1.347   3.700  12.145
68814SOL     OW 8215   9.518   7.491  11.921
68814SOL    HW1 8216   9.557   7.571  11.887
68814SOL    HW2 8217   9.429   7.517  11.946
68815SOL     OW 8218  11.452  11.653  14.593
68815SOL    HW1 8219  11.535  11.698  14.606
68815SOL    HW2 8220  11.473  11.582  14.532
68816SOL     OW 8221   8.236   3.987   6.188
68816SOL    HW1 8222   8.300   3.990   6.116
68816SOL    HW2 8223   8.163   3.937   6.152
68817SOL     OW 8224  14.104  11.850   9.026
68817SOL    HW1 8225  14.038  11.817   8.965
68817SOL    HW2 8226  14.056  11.863   9.108
68818SOL     OW 8227   5.706  12.195   9.184
68818SOL    HW1 8228   5.790  12.236   9.202
68818SOL    HW2 8229   5.709  12.111   9.229
68819SOL     OW 8230   5.259   2.525   8.474
68819SOL    HW1 8231   5.336   2.506   8.528
68819SOL    HW2 8232   5.295   2.535   8.385
68820SOL     OW 8233   5.316   3.708  14.428
68820SOL    HW1 8234   5.244   3.694  14.366
68820SOL    HW2 8235   5.393   3.677  14.381
68821SOL     OW 8236   9.126  10.192  13.999
68821SOL    HW1 8237   9.202  10.182  14.056
68821SOL    HW2 8238   9.054  10.215  14.059
68822SOL     OW 8239  10.447   6.423   6.738
68822SOL    HW1 8240  10.379   6.386   6.794
68822SOL    HW2 8241  10.529   6.399   6.780
68823SOL     OW 8242   3.895  10.328   0.085
68823SOL    HW1 8243   3.837  10.358   0.014
68823SOL    HW2 8244   3.981  10.363   0.061
68824SOL     OW 8245   1.928   3.413  14.032
68824SOL    HW1 8246   1.845   3.398  13.987
68824SOL    HW2 8247   1.903   3.451  14.116
68825SOL     OW 8248  11.694   5.954  11.852
68825SOL    HW1 8249  11.693   6.022  11.920
68825SOL    HW2 8250  11.659   5.998  11.774
68826SOL     OW 8251   1.353  14.221   8.940
68826SOL    HW1 8252   1.295  14.251   8.871
68826SOL    HW2 8253   1.385  14.301   8.981
68827SOL     OW 8254   7.374   9.374   9.409
68827SOL    HW1 8255   7.349   9.442   9.346
68827SOL    HW2 8256   7.354   9.412   9.494
68828SOL     OW 8257  11.072   0.970   7.507
68828SOL    HW1 8258  11.001   0.975   7.443
68828SOL    HW2 8259  11.080   1.059   7.541
68829SOL     OW 8260   9.568   6.516   5.535
68829SOL    HW1 8261   9.571   6.610   5.520
68829SOL    HW2 8262   9.496   6.485   5.480
68830SOL     OW 8263   9.108   2.259   0.258
68830SOL    HW1 8264   9.129   2.212   0.177
68830SOL    HW2 8265   9.038   2.208   0.298
68831SOL     OW 8266   7.765  12.167   5.012
68831SOL    HW1 8267   7.808  12.137   4.933
68831SOL    HW2 8268   7.684  12.116   5.017
68832SOL     OW 8269  10.345   6.524   0.488
68832SOL    HW1 8270  10.274   6.547   0.427
68832SOL    HW2 8271  10.423   6.561   0.448
68833SOL     OW 8272  13.117   5.323   8.214
68833SOL    HW1 8273  13.125   5.228   8.223
68833SOL    HW2 8274  13.164   5.343   8.133
68834SOL     OW 8275  14.036  11.011   4.380
68834SOL    HW1 8276  14.082  10.936   4.343
68834SOL    HW2 8277  13.954  11.016   4.331
68835SOL     OW 8278  14.499   5.989  13.620
68835SOL    HW1 8279  14.446   6.058  13.580
68835SOL    HW2 8280  14.523   6.024  13.705
68836SOL     OW 8281   6.139   5.911   1.490
68836SOL    HW1 8282   6.126   5.823   1.525
68836SOL    HW2 8283   6.081   5.916   1.414
68837SOL     OW 8284   6.380   8.645   5.628
68837SOL    HW1 8285   6.290   8.655   5.657
68837SOL    HW2 8286   6.383   8.686   5.542
68838SOL     OW 8287   6.928  12.309   2.084
68838SOL    HW1 8288   6.869  12.366   2.134
68838SOL    HW2 8289   6.887  12.223   2.087
68839SOL     OW 8290   1.978  13.781   4.866
68839SOL    HW1 8291   1.993  13.712   4.801
68839SOL    HW2 8292   1.990  13.738   4.950
68840SOL     OW 8293   4.211   1.333  12.354
68840SOL    HW1 8294   4.266   1.360  12.427
68840SOL    HW2 8295   4.194   1.240  12.369
68841SOL     OW 8296  10.595  12.849  11.162
68841SOL    HW1 8297  10.688  12.834  11.177
68841SOL    HW2 8298  10.552  12.771  11.198
68842SOL     OW 8299   1.745   4.622  10.306
68842SOL    HW1 8300   1.752   4.527  10.315
68842SOL    HW2 8301   1.773   4.639  10.216
68843SOL     OW 8302  12.630   2.263   7.220
68843SOL    HW1 8303  12.683   2.229   7.148
68843SOL    HW2 8304  12.542   2.229   7.203
68844SOL     OW 8305  11.720  13.071  11.532
68844SOL    HW1 8306  11.644  13.037  11.580
68844SOL    HW2 8307  11.706  13.041  11.442
68845SOL     OW 8308  12.875   7.363  14.676
68845SOL    HW1 8309  12.839   7.425  14.613
68845SOL    HW2 8310  12.969   7.385  14.680
68846SOL     OW 8311   1.573   3.258  12.253
68846SOL    HW1 8312   1.525   3.178  12.271
68846SOL    HW2 8313   1.662   3.240  12.285
68847SOL     OW 8314   6.783   8.546  10.954
68847SOL    HW1 8315   6.771   8.504  11.039
68847SOL    HW2 8316   6.700   8.591  10.938
68848SOL     OW 8317  12.558   8.335   8.368
68848SOL    HW1 8318  12.474   8.336   8.414
68848SOL    HW2 8319  12.539   8.375   8.283
68849SOL     OW 8320   4.987   9.414  14.156
68849SOL    HW1 8321   5.035   9.440  14.236
68849SOL    HW2 8322   5.055   9.383  14.097
68850SOL     OW 8323   9.459   4.568   4.310
68850SOL    HW1 8324   9.380   4.620   4.298
68850SOL    HW2 8325   9.446   4.523   4.393
68851SOL     OW 8326   8.099   3.102   8.439
68851SOL    HW1 8327   8.106   3.011   8.469
68851SOL    HW2 8328   8.007   3.124   8.451
68852SOL     OW 8329   2.020  11.775   6.254
68852SOL    HW1 8330   2.114  11.763   6.265
68852SOL    HW2 8331   1.982  11.691   6.280
68853SOL     OW 8332   2.479   3.916   6.383
68853SOL    HW1 8333   2.386   3.906   6.364
68853SOL    HW2 8334   2.523   3.874   6.310
68854SOL     OW 8335   5.209   3.705   5.322
68854SOL    HW1 8336   5.184   3.637   5.260
68854SOL    HW2 8337   5.277   3.756   5.278
68855SOL     OW 8338   8.642   9.078   7.868
68855SOL    HW1 8339   8.573   9.144   7.877
68855SOL    HW2 8340   8.674   9.089   7.779
68856SOL     OW 8341  12.376   9.179   6.522
68856SOL    HW1 8342  12.404   9.118   6.453
68856SOL    HW2 8343  12.457   9.205   6.565
68857SOL     OW 8344  13.741   5.321   5.470
68857SOL    HW1 8345  13.736   5.227   5.453
68857SOL    HW2 8346  13.800   5.328   5.546
68858SOL     OW 8347  10.420   1.844   4.396
68858SOL    HW1 8348  10.399   1.751   4.382
68858SOL    HW2 8349  10.344   1.891   4.362
68859SOL     OW 8350   8.348   4.276   5.059
68859SOL    HW1 8351   8.301   4.198   5.030
68859SOL    HW2 8352   8.290   4.316   5.124
68860SOL     OW 8353   4.350   2.198   4.452
68860SOL    HW1 8354   4.401   2.118   4.465
68860SOL    HW2 8355   4.405   2.252   4.395
68861SOL     OW 8356  14.580   4.071   5.024
68861SOL    HW1 8357  14.647   4.012   4.989
68861SOL    HW2 8358  14.508   4.064   4.962
68862SOL     OW 8359   3.398   8.502  11.193
68862SOL    HW1 8360   3.375   8.425  11.142
68862SOL    HW2 8361   3.493   8.494  11.207
68863SOL     OW 8362  11.185   5.206  10.759
68863SOL    HW1 8363  11.125   5.132  10.770
68863SOL    HW2 8364  11.174   5.233  10.668
68864SOL     OW 8365  12.133   0.969   1.026
68864SOL    HW1 8366  12.157   1.052   1.067
68864SOL    HW2 8367  12.093   0.918   1.096
68865SOL     OW 8368   6.989   6.890   4.386
68865SOL    HW1 8369   6.951   6.824   4.444
68865SOL    HW2 8370   6.916   6.922   4.333
68866SOL     OW 8371   4.804   9.686  11.048
68866SOL    HW1 8372   4.764   9.773  11.051
68866SOL    HW2 8373   4.745   9.635  10.993
68867SOL     OW 8374   7.829  13.573   5.437
68867SOL    HW1 8375   7.847  13.662   5.407
68867SOL    HW2 8376   7.796  13.584   5.526
68868SOL     OW 8377   1.253  14.877   3.178
68868SOL    HW1 8378   1.161   0.024   3.181
68868SOL    HW2 8379   1.254  14.783   3.199
68869SOL     OW 8380   1.170  12.785   7.434
68869SOL    HW1 8381   1.157  12.690   7.437
68869SOL    HW2 8382   1.095  12.817   7.383
68870SOL     OW 8383  13.610   8.922  13.802
68870SOL    HW1 8384  13.702   8.930  13.777
68870SOL    HW2 8385  13.603   8.835  13.841
68871SOL     OW 8386  13.560  10.837   4.024
68871SOL    HW1 8387  13.582  10.745   4.038
68871SOL    HW2 8388  13.585  10.854   3.933
68872SOL     OW 8389   1.719  10.586   5.387
68872SOL    HW1 8390   1.751  10.677   5.385
68872SOL    HW2 8391   1.655  10.585   5.459
68873SOL     OW 8392   5.614   4.547  14.106
68873SOL    HW1 8393   5.687   4.509  14.057
68873SOL    HW2 8394   5.623   4.642  14.093
68874SOL     OW 8395   8.278   5.528  11.151
68874SOL    HW1 8396   8.246   5.569  11.071
68874SOL    HW2 8397   8.334   5.594  11.191
68875SOL     OW 8398   0.384   5.687   9.345
68875SOL    HW1 8399   0.449   5.700   9.414
68875SOL    HW2 8400   0.386   5.769   9.296
68876SOL     OW 8401   9.464   8.431  12.878
68876SOL    HW1 8402   9.493   8.521  12.887
68876SOL    HW2 8403   9.447   8.403  12.968
68877SOL     OW 8404   2.759   5.511  10.835
68877SOL    HW1 8405   2.707   5.532  10.757
68877SOL    HW2 8406   2.799   5.426  10.815
68878SOL     OW 8407   8.388   3.905   6.752
68878SOL    HW1 8408   8.344   3.971   6.806
68878SOL    HW2 8409   8.364   3.821   6.790
68879SOL     OW 8410   8.614  10.836  12.703
68879SOL    HW1 8411   8.520  10.847  12.708
68879SOL    HW2 8412   8.634  10.834  12.609
68880SOL     OW 8413   9.061   4.159   3.243
68880SOL    HW1 8414   9.014   4.208   3.310
68880SOL    HW2 8415   9.012   4.077   3.233
68881SOL     OW 8416  13.027   6.452  10.739
68881SOL    HW1 8417  13.092   6.504  10.693
68881SOL    HW2 8418  13.037   6.476  10.831
68882SOL     OW 8419   6.416  13.103   1.150
68882SOL    HW1 8420   6.471  13.102   1.229
68882SOL    HW2 8421   6.478  13.112   1.078
68883SOL     OW 8422   6.004  11.635   7.886
68883SOL    HW1 8423   6.002  11.541   7.906
68883SOL    HW2 8424   6.079  11.669   7.936
68884SOL     OW 8425   0.086   5.523   0.962
68884SOL    HW1 8426   0.110   5.507   1.053
68884SOL    HW2 8427   0.086   5.436   0.922
68885SOL     OW 8428   2.204   7.486   0.485
68885SOL    HW1 8429   2.254   7.405   0.485
68885SOL    HW2 8430   2.256   7.547   0.538
68886SOL     OW 8431   7.147   3.803  12.076
68886SOL    HW1 8432   7.179   3.865  12.010
68886SOL    HW2 8433   7.211   3.808  12.147
68887SOL     OW 8434   6.649  11.280  12.890
68887SOL    HW1 8435   6.695  11.201  12.861
68887SOL    HW2 8436   6.638  11.332  12.810
68888SOL     OW 8437   1.666   0.811   8.520
68888SOL    HW1 8438   1.740   0.862   8.553
68888SOL    HW2 8439   1.692   0.782   8.433
68889SOL     OW 8440  13.549   4.515   7.237
68889SOL    HW1 8441  13.462   4.554   7.227
68889SOL    HW2 8442  13.537   4.423   7.211
68890SOL     OW 8443   5.796   8.016   0.769
68890SOL    HW1 8444   5.851   7.948   0.807
68890SOL    HW2 8445   5.727   7.968   0.723
68891SOL     OW 8446   2.527  10.072   9.865
68891SOL    HW1 8447   2.483   9.988   9.859
68891SOL    HW2 8448   2.608  10.061   9.816
68892SOL     OW 8449   1.441   8.333   7.188
68892SOL    HW1 8450   1.367   8.331   7.249
68892SOL    HW2 8451   1.515   8.361   7.241
68893SOL     OW 8452  12.691  11.197   6.489
68893SOL    HW1 8453  12.754  11.223   6.556
68893SOL    HW2 8454  12.722  11.239   6.409
68894SOL     OW 8455   2.092   7.264   1.380
68894SOL    HW1 8456   2.041   7.189   1.412
68894SOL    HW2 8457   2.057   7.339   1.428
68895SOL     OW 8458   3.555  13.473   3.413
68895SOL    HW1 8459   3.483  13.531   3.439
68895SOL    HW2 8460   3.525  13.431   3.333
68896SOL     OW 8461   2.036   5.746   7.990
68896SOL    HW1 8462   1.957   5.716   8.036
68896SOL    HW2 8463   2.079   5.666   7.960
68897SOL     OW 8464  12.540   1.295   9.168
68897SOL    HW1 8465  12.520   1.334   9.083
68897SOL    HW2 8466  12.477   1.224   9.177
68898SOL     OW 8467   9.550   5.934  10.453
68898SOL    HW1 8468   9.538   5.894  10.368
68898SOL    HW2 8469   9.596   6.017  10.435
68899SOL     OW 8470   1.159   1.336   6.490
68899SOL    HW1 8471   1.123   1.275   6.555
68899SOL    HW2 8472   1.233   1.289   6.452
68900SOL     OW 8473   0.617   9.362  11.912
68900SOL    HW1 8474   0.663   9.362  11.996
68900SOL    HW2 8475   0.536   9.314  11.928
68901SOL     OW 8476   7.794   6.742   9.539
68901SOL    HW1 8477   7.718   6.728   9.595
68901SOL    HW2 8478   7.812   6.836   9.546
68902SOL     OW 8479   1.864  10.385   6.195
68902SOL    HW1 8480   1.846  10.292   6.180
68902SOL    HW2 8481   1.778  10.427   6.187
68903SOL     OW 8482  10.540   2.028   0.058
68903SOL    HW1 8483  10.620   2.068   0.092
68903SOL    HW2 8484  10.533   1.944   0.105
68904SOL     OW 8485   0.206   7.787   8.536
68904SOL    HW1 8486   0.127   7.733   8.532
68904SOL    HW2 8487   0.274   7.726   8.565
68905SOL     OW 8488   8.578  11.251   3.660
68905SOL    HW1 8489   8.535  11.263   3.575
68905SOL    HW2 8490   8.517  11.290   3.723
68906SOL     OW 8491  12.727  11.894  11.951
68906SOL    HW1 8492  12.772  11.916  12.033
68906SOL    HW2 8493  12.690  11.977  11.921
68907SOL     OW 8494   6.740   8.246   1.544
68907SOL    HW1 8495   6.702   8.255   1.457
68907SOL    HW2 8496   6.752   8.336   1.575
68908SOL     OW 8497   7.131   8.091   0.348
68908SOL    HW1 8498   7.045   8.111   0.311
68908SOL    HW2 8499   7.112   8.045   0.430
68909SOL     OW 8500   1.766   0.787   5.216
68909SOL    HW1 8501   1.857   0.817   5.216
68909SOL    HW2 8502   1.715   0.862   5.246
68910SOL     OW 8503   5.815  11.410   2.758
68910SOL    HW1 8504   5.900  11.410   2.802
68910SOL    HW2 8505   5.822  11.480   2.694
68911SOL     OW 8506   3.436  14.051   3.738
68911SOL    HW1 8507   3.517  14.036   3.787
68911SOL    HW2 8508   3.464  14.057   3.647
68912SOL     OW 8509  10.671  12.313  10.435
68912SOL    HW1 8510  10.752  12.361  10.421
68912SOL    HW2 8511  10.690  12.255  10.509
68913SOL     OW 8512  13.050   2.525   1.612
68913SOL    HW1 8513  13.136   2.505   1.575
68913SOL    HW2 8514  13.063   2.608   1.657
68914SOL     OW 8515   2.235   7.724  11.944
68914SOL    HW1 8516   2.169   7.676  11.994
68914SOL    HW2 8517   2.314   7.670  11.950
68915SOL     OW 8518  10.401  10.556   4.399
68915SOL    HW1 8519  10.455  10.585   4.326
68915SOL    HW2 8520  10.334  10.500   4.358
68916SOL     OW 8521   6.097  14.724   6.887
68916SOL    HW1 8522   6.092  14.802   6.831
68916SOL    HW2 8523   6.007  14.693   6.894
68917SOL     OW 8524   5.554  14.189   0.873
68917SOL    HW1 8525   5.516  14.153   0.953
68917SOL    HW2 8526   5.480  14.198   0.813
68918SOL     OW 8527   0.978   8.377  11.924
68918SOL    HW1 8528   1.003   8.355  12.014
68918SOL    HW2 8529   0.887   8.406  11.931
68919SOL     OW 8530  12.764   4.470   4.256
68919SOL    HW1 8531  12.694   4.503   4.312
68919SOL    HW2 8532  12.840   4.463   4.314
68920SOL     OW 8533  10.668  13.562   2.646
68920SOL    HW1 8534  10.663  13.469   2.668
68920SOL    HW2 8535  10.755  13.589   2.673
68921SOL     OW 8536   2.857   2.192   7.579
68921SOL    HW1 8537   2.945   2.156   7.586
68921SOL    HW2 8538   2.799   2.118   7.596
68922SOL     OW 8539   0.267   9.321   3.891
68922SOL    HW1 8540   0.346   9.272   3.867
68922SOL    HW2 8541   0.202   9.253   3.908
68923SOL     OW 8542   5.425   1.033   8.222
68923SOL    HW1 8543   5.424   0.953   8.171
68923SOL    HW2 8544   5.508   1.076   8.200
68924SOL     OW 8545   0.378   0.917   2.321
68924SOL    HW1 8546   0.440   0.847   2.339
68924SOL    HW2 8547   0.292   0.879   2.342
68925SOL     OW 8548  12.156   7.401  13.577
68925SOL    HW1 8549  12.238   7.448  13.562
68925SOL    HW2 8550  12.175   7.311  13.550
68926SOL     OW 8551   1.350   4.122   9.676
68926SOL    HW1 8552   1.392   4.205   9.651
68926SOL    HW2 8553   1.421   4.058   9.675
68927SOL     OW 8554   5.277   5.585   1.806
68927SOL    HW1 8555   5.340   5.542   1.747
68927SOL    HW2 8556   5.331   5.647   1.856
68928SOL     OW 8557   2.988   1.657   9.599
68928SOL    HW1 8558   3.064   1.716   9.602
68928SOL    HW2 8559   3.025   1.570   9.608
68929SOL     OW 8560   5.061   9.353   5.523
68929SOL    HW1 8561   5.008   9.432   5.534
68929SOL    HW2 8562   5.132   9.362   5.586
68930SOL     OW 8563   8.549   6.070  11.217
68930SOL    HW1 8564   8.520   5.993  11.266
68930SOL    HW2 8565   8.522   6.052  11.127
68931SOL     OW 8566  12.997   4.502  14.076
68931SOL    HW1 8567  13.026   4.473  13.989
68931SOL    HW2 8568  12.905   4.524  14.064
68932SOL     OW 8569   4.321  11.339   6.537
68932SOL    HW1 8570   4.315  11.323   6.442
68932SOL    HW2 8571   4.232  11.324   6.569
68933SOL     OW 8572   8.185  14.549   6.951
68933SOL    HW1 8573   8.192  14.586   7.039
68933SOL    HW2 8574   8.270  14.509   6.935
68934SOL     OW 8575   6.291   0.187  10.174
68934SOL    HW1 8576   6.198   0.206  10.184
68934SOL    HW2 8577   6.318   0.237  10.097
68935SOL     OW 8578   2.145   5.428  10.418
68935SOL    HW1 8579   2.190   5.507  10.449
68935SOL    HW2 8580   2.181   5.358  10.472
68936SOL     OW 8581   7.377   2.739   2.186
68936SOL    HW1 8582   7.316   2.751   2.113
68936SOL    HW2 8583   7.358   2.812   2.245
68937SOL     OW 8584   4.320   0.344   9.314
68937SOL    HW1 8585   4.351   0.313   9.400
68937SOL    HW2 8586   4.235   0.303   9.303
68938SOL     OW 8587  14.011  11.236   4.753
68938SOL    HW1 8588  13.964  11.283   4.822
68938SOL    HW2 8589  13.993  11.285   4.673
68939SOL     OW 8590   8.546   9.439   1.505
68939SOL    HW1 8591   8.611   9.375   1.477
68939SOL    HW2 8592   8.532   9.420   1.598
68940SOL     OW 8593   1.206  12.670  10.780
68940SOL    HW1 8594   1.194  12.654  10.686
68940SOL    HW2 8595   1.268  12.742  10.784
68941SOL     OW 8596  10.766   2.002   4.655
68941SOL    HW1 8597  10.821   1.998   4.733
68941SOL    HW2 8598  10.789   2.085   4.612
68942SOL     OW 8599  13.135   6.650   2.405
68942SOL    HW1 8600  13.200   6.708   2.367
68942SOL    HW2 8601  13.181   6.605   2.475
68943SOL     OW 8602  10.199   2.080   9.191
68943SOL    HW1 8603  10.213   1.989   9.219
68943SOL    HW2 8604  10.287   2.115   9.178
68944SOL     OW 8605   0.895   0.398  14.697
68944SOL    HW1 8606   0.886   0.419  14.604
68944SOL    HW2 8607   0.911   0.303  14.698
68945SOL     OW 8608   3.105   6.251   8.254
68945SOL    HW1 8609   3.063   6.170   8.224
68945SOL    HW2 8610   3.141   6.228   8.340
68946SOL     OW 8611  14.650  13.104   3.956
68946SOL    HW1 8612  14.633  13.050   4.033
68946SOL    HW2 8613  14.664  13.192   3.991
68947SOL     OW 8614   9.098   7.441   1.225
68947SOL    HW1 8615   9.032   7.401   1.282
68947SOL    HW2 8616   9.174   7.455   1.282
68948SOL     OW 8617  13.458  11.159   6.632
68948SOL    HW1 8618  13.410  11.081   6.660
68948SOL    HW2 8619  13.543  11.126   6.603
68949SOL     OW 8620  10.523   7.103   0.192
68949SOL    HW1 8621  10.552   7.113   0.102
68949SOL    HW2 8622  10.510   7.192   0.224
68950SOL     OW 8623   7.437   4.061  11.285
68950SOL    HW1 8624   7.366   3.999  11.306
68950SOL    HW2 8625   7.513   4.005  11.269
68951SOL     OW 8626   5.554   0.266   0.140
68951SOL    HW1 8627   5.649   0.278   0.147
68951SOL    HW2 8628   5.543   0.191   0.082
68952SOL     OW 8629  13.382   7.806  12.029
68952SOL    HW1 8630  13.303   7.774  12.073
68952SOL    HW2 8631  13.436   7.842  12.100
68953SOL     OW 8632   0.193  10.026   5.929
68953SOL    HW1 8633   0.185  10.055   6.019
68953SOL    HW2 8634   0.259  10.084   5.890
68954SOL     OW 8635  10.861  11.990   1.189
68954SOL    HW1 8636  10.770  11.966   1.204
68954SOL    HW2 8637  10.857  12.069   1.136
68955SOL     OW 8638   1.345   6.692   5.363
68955SOL    HW1 8639   1.429   6.706   5.408
68955SOL    HW2 8640   1.289   6.763   5.394
68956SOL     OW 8641  12.602  10.962   5.863
68956SOL    HW1 8642  12.609  10.875   5.823
68956SOL    HW2 8643  12.689  10.979   5.900
68957SOL     OW 8644  10.567  11.686   9.003
68957SOL    HW1 8645  10.503  11.746   9.042
68957SOL    HW2 8646  10.565  11.707   8.909
68958SOL     OW 8647   3.116  14.410  12.215
68958SOL    HW1 8648   3.154  14.417  12.127
68958SOL    HW2 8649   3.149  14.326  12.248
68959SOL     OW 8650   6.860  11.352   8.906
68959SOL    HW1 8651   6.826  11.439   8.927
68959SOL    HW2 8652   6.866  11.351   8.810
68960SOL     OW 8653  14.011   7.583  10.265
68960SOL    HW1 8654  13.941   7.562  10.327
68960SOL    HW2 8655  14.091   7.556  10.310
68961SOL     OW 8656   1.614   6.187   2.923
68961SOL    HW1 8657   1.621   6.102   2.967
68961SOL    HW2 8658   1.556   6.238   2.979
68962SOL     OW 8659   1.832   7.582   0.078
68962SOL    HW1 8660   1.801   7.568   0.168
68962SOL    HW2 8661   1.774   7.650   0.044
68963SOL     OW 8662  11.767  11.380  10.720
68963SOL    HW1 8663  11.814  11.457  10.687
68963SOL    HW2 8664  11.771  11.316  10.649
68964SOL     OW 8665   5.988  10.970   5.792
68964SOL    HW1 8666   6.068  11.009   5.827
68964SOL    HW2 8667   5.919  11.033   5.814
68965SOL     OW 8668  13.459   2.920  10.424
68965SOL    HW1 8669  13.478   2.874  10.506
68965SOL    HW2 8670  13.544   2.946  10.390
68966SOL     OW 8671  10.877  10.122  11.410
68966SOL    HW1 8672  10.933  10.045  11.423
68966SOL    HW2 8673  10.918  10.169  11.338
68967SOL     OW 8674   4.999  14.038  13.914
68967SOL    HW1 8675   5.014  14.020  14.007
68967SOL    HW2 8676   5.068  13.990  13.868
68968SOL     OW 8677  14.541   2.116   5.983
68968SOL    HW1 8678  14.485   2.052   6.026
68968SOL    HW2 8679  14.614   2.128   6.043
68969SOL     OW 8680   5.909   0.818   8.172
68969SOL    HW1 8681   5.968   0.881   8.131
68969SOL    HW2 8682   5.874   0.766   8.099
68970SOL     OW 8683  13.206   8.070  12.087
68970SOL    HW1 8684  13.169   8.104  12.169
68970SOL    HW2 8685  13.248   7.988  12.112
68971SOL     OW 8686  14.165   1.549  12.760
68971SOL    HW1 8687  14.148   1.643  12.752
68971SOL    HW2 8688  14.198   1.523  12.673
68972SOL     OW 8689   7.475   6.081   0.529
68972SOL    HW1 8690   7.433   6.003   0.494
68972SOL    HW2 8691   7.504   6.130   0.452
68973SOL     OW 8692  13.617   4.661   1.644
68973SOL    HW1 8693  13.566   4.740   1.630
68973SOL    HW2 8694  13.590   4.602   1.573
68974SOL     OW 8695   2.330   1.975   7.144
68974SOL    HW1 8696   2.246   1.968   7.099
68974SOL    HW2 8697   2.388   2.018   7.081
68975SOL     OW 8698   6.022   8.207  13.401
68975SOL    HW1 8699   5.978   8.146  13.342
68975SOL    HW2 8700   5.964   8.214  13.477
68976SOL     OW 8701  14.405  13.836  11.045
68976SOL    HW1 8702  14.368  13.873  11.125
68976SOL    HW2 8703  14.394  13.741  11.055
68977SOL     OW 8704   6.619  10.160  12.435
68977SOL    HW1 8705   6.579  10.240  12.402
68977SOL    HW2 8706   6.557  10.128  12.501
68978SOL     OW 8707  12.397   9.855  13.906
68978SOL    HW1 8708  12.439   9.800  13.972
68978SOL    HW2 8709  12.446   9.937  13.907
68979SOL     OW 8710   4.246  13.298  11.323
68979SOL    HW1 8711   4.214  13.268  11.409
68979SOL    HW2 8712   4.313  13.234  11.299
68980SOL     OW 8713   0.113   4.541   0.302
68980SOL    HW1 8714   0.161   4.502   0.376
68980SOL    HW2 8715   0.104   4.633   0.325
68981SOL     OW 8716   3.054   9.420  12.478
68981SOL    HW1 8717   3.065   9.508  12.441
68981SOL    HW2 8718   2.969   9.391  12.445
68982SOL     OW 8719   4.044  12.816   3.193
68982SOL    HW1 8720   3.997  12.900   3.199
68982SOL    HW2 8721   4.083  12.805   3.280
68983SOL     OW 8722   9.439   3.174  12.447
68983SOL    HW1 8723   9.492   3.143  12.374
68983SOL    HW2 8724   9.394   3.096  12.478
68984SOL     OW 8725   2.711   2.916   4.958
68984SOL    HW1 8726   2.750   2.884   5.039
68984SOL    HW2 8727   2.783   2.915   4.895
68985SOL     OW 8728   9.613   7.252  12.671
68985SOL    HW1 8729   9.549   7.305  12.623
68985SOL    HW2 8730   9.568   7.168  12.684
68986SOL     OW 8731   9.078  14.425  10.436
68986SOL    HW1 8732   8.998  14.450  10.484
68986SOL    HW2 8733   9.147  14.425  10.502
68987SOL     OW 8734  14.646   1.844  13.207
68987SOL    HW1 8735  14.607   1.925  13.175
68987SOL    HW2 8736  14.618   1.777  13.144
68988SOL     OW 8737  13.528  13.612   6.646
68988SOL    HW1 8738  13.462  13.675   6.674
68988SOL    HW2 8739  13.608  13.640   6.691
68989SOL     OW 8740   3.977   5.802   5.330
68989SOL    HW1 8741   3.979   5.756   5.246
68989SOL    HW2 8742   3.886   5.831   5.340
68990SOL     OW 8743   5.532  12.801  13.498
68990SOL    HW1 8744   5.587  12.817  13.421
68990SOL    HW2 8745   5.477  12.727  13.473
68991SOL     OW 8746   7.098   5.780   9.285
68991SOL    HW1 8747   7.007   5.749   9.281
68991SOL    HW2 8748   7.145   5.725   9.222
68992SOL     OW 8749   3.502   9.161   1.783
68992SOL    HW1 8750   3.511   9.153   1.688
68992SOL    HW2 8751   3.503   9.070   1.814
68993SOL     OW 8752   5.559   9.387   5.501
68993SOL    HW1 8753   5.569   9.478   5.528
68993SOL    HW2 8754   5.643   9.364   5.461
68994SOL     OW 8755  14.549   4.504  10.659
68994SOL    HW1 8756  14.507   4.584  10.691
68994SOL    HW2 8757  14.478   4.453  10.622
68995SOL     OW 8758   9.202   8.327  13.516
68995SOL    HW1 8759   9.225   8.394  13.580
68995SOL    HW2 8760   9.225   8.244  13.558
68996SOL     OW 8761   7.638   9.205   9.629
68996SOL    HW1 8762   7.655   9.127   9.682
68996SOL    HW2 8763   7.543   9.219   9.637
68997SOL     OW 8764  13.786   0.090   5.960
68997SOL    HW1 8765  13.862   0.120   6.010
68997SOL    HW2 8766  13.809   0.105   5.868
68998SOL     OW 8767  13.510  12.642   5.855
68998SOL    HW1 8768  13.573  12.714   5.841
68998SOL    HW2 8769  13.426  12.679   5.830
68999SOL     OW 8770  11.919   0.144  10.221
68999SOL    HW1 8771  11.882   0.232  10.225
68999SOL    HW2 8772  11.966   0.133  10.303
69000SOL     OW 8773   3.325   2.962   6.743
69000SOL    HW1 8774   3.355   2.950   6.834
69000SOL    HW2 8775   3.362   2.887   6.696
69001SOL     OW 8776   4.785   4.952  11.888
69001SOL    HW1 8777   4.786   4.892  11.963
69001SOL    HW2 8778   4.705   4.931  11.842
69002SOL     OW 8779   7.522   4.016  12.096
69002SOL    HW1 8780   7.568   4.003  12.178
69002SOL    HW2 8781   7.536   3.935  12.047
69003SOL     OW 8782  13.871   6.377   9.206
69003SOL    HW1 8783  13.950   6.424   9.232
69003SOL    HW2 8784  13.800   6.423   9.251
69004SOL     OW 8785   9.418   2.888  10.398
69004SOL    HW1 8786   9.395   2.979  10.379
69004SOL    HW2 8787   9.392   2.876  10.489
69005SOL     OW 8788   5.222   9.458   3.394
69005SOL    HW1 8789   5.310   9.453   3.431
69005SOL    HW2 8790   5.166   9.416   3.459
69006SOL     OW 8791   9.690  11.568   3.905
69006SOL    HW1 8792   9.669  11.527   3.989
69006SOL    HW2 8793   9.736  11.500   3.856
69007SOL     OW 8794  12.204   6.594   3.777
69007SOL    HW1 8795  12.231   6.647   3.852
69007SOL    HW2 8796  12.285   6.554   3.745
69008SOL     OW 8797   1.739   7.482   8.527
69008SOL    HW1 8798   1.703   7.538   8.595
69008SOL    HW2 8799   1.823   7.451   8.563
69009SOL     OW 8800   7.207  13.345   4.761
69009SOL    HW1 8801   7.167  13.426   4.728
69009SOL    HW2 8802   7.164  13.329   4.845
69010SOL     OW 8803   6.875   1.065   6.197
69010SOL    HW1 8804   6.884   0.988   6.253
69010SOL    HW2 8805   6.957   1.112   6.210
69011SOL     OW 8806   0.779   9.740  12.908
69011SOL    HW1 8807   0.814   9.824  12.940
69011SOL    HW2 8808   0.710   9.718  12.970
69012SOL     OW 8809  12.029   5.388  12.896
69012SOL    HW1 8810  12.088   5.406  12.823
69012SOL    HW2 8811  11.944   5.418  12.865
69013SOL     OW 8812  12.527   8.417   8.103
69013SOL    HW1 8813  12.439   8.423   8.067
69013SOL    HW2 8814  12.566   8.502   8.086
69014SOL     OW 8815   3.857   0.957   9.143
69014SOL    HW1 8816   3.870   1.009   9.222
69014SOL    HW2 8817   3.763   0.967   9.124
69015SOL     OW 8818   2.001   8.395  13.986
69015SOL    HW1 8819   2.088   8.386  13.948
69015SOL    HW2 8820   1.973   8.305  14.002
69016SOL     OW 8821   8.961   8.836  12.976
69016SOL    HW1 8822   8.912   8.849  13.057
69016SOL    HW2 8823   8.900   8.789  12.919
69017SOL     OW 8824   5.279   0.896   3.924
69017SOL    HW1 8825   5.252   0.823   3.980
69017SOL    HW2 8826   5.357   0.931   3.966
69018SOL     OW 8827   0.168   1.440   4.739
69018SOL    HW1 8828   0.103   1.390   4.689
69018SOL    HW2 8829   0.186   1.386   4.816
69019SOL     OW 8830   8.816  13.221   6.500
69019SOL    HW1 8831   8.724  13.224   6.476
69019SOL    HW2 8832   8.844  13.132   6.477
69020SOL     OW 8833   3.493   9.480  10.670
69020SOL    HW1 8834   3.400   9.489  10.650
69020SOL    HW2 8835   3.509   9.545  10.738
69021SOL     OW 8836   3.678   6.265   1.187
69021SOL    HW1 8837   3.720   6.227   1.264
69021SOL    HW2 8838   3.736   6.241   1.114
69022SOL     OW 8839  11.156   2.228   4.875
69022SOL    HW1 8840  11.089   2.175   4.919
69022SOL    HW2 8841  11.106   2.297   4.831
69023SOL     OW 8842   4.590   8.966   2.999
69023SOL    HW1 8843   4.528   8.893   3.006
69023SOL    HW2 8844   4.623   8.960   2.910
69024SOL     OW 8845   6.341   5.273   4.891
69024SOL    HW1 8846   6.354   5.341   4.826
69024SOL    HW2 8847   6.387   5.197   4.856
69025SOL     OW 8848  13.318   6.563   5.448
69025SOL    HW1 8849  13.352   6.495   5.506
69025SOL    HW2 8850  13.257   6.613   5.502
69026SOL     OW 8851   4.575  10.190   4.215
69026SOL    HW1 8852   4.516  10.131   4.263
69026SOL    HW2 8853   4.527  10.213   4.135
69027SOL     OW 8854   1.313   9.869  12.589
69027SOL    HW1 8855   1.381   9.917  12.637
69027SOL    HW2 8856   1.358   9.790  12.557
69028SOL     OW 8857   9.398   0.223  14.741
69028SOL    HW1 8858   9.318   0.195  14.785
69028SOL    HW2 8859   9.437   0.287  14.800
69029SOL     OW 8860   1.218   3.947   5.100
69029SOL    HW1 8861   1.238   3.967   5.191
69029SOL    HW2 8862   1.127   3.975   5.088
69030SOL     OW 8863   4.745   2.439   8.918
69030SOL    HW1 8864   4.687   2.454   8.844
69030SOL    HW2 8865   4.794   2.521   8.927
69031SOL     OW 8866  13.746  10.183   5.206
69031SOL    HW1 8867  13.816  10.120   5.223
69031SOL    HW2 8868  13.760  10.210   5.115
69032SOL     OW 8869  13.851  10.797   4.565
69032SOL    HW1 8870  13.941  10.831   4.562
69032SOL    HW2 8871  13.817  10.827   4.649
69033SOL     OW 8872  10.090   2.865   8.788
69033SOL    HW1 8873  10.030   2.886   8.716
69033SOL    HW2 8874  10.068   2.775   8.812
69034SOL     OW 8875  14.400   4.321   2.830
69034SOL    HW1 8876  14.438   4.233   2.833
69034SOL    HW2 8877  14.322   4.316   2.886
69035SOL     OW 8878  10.624   8.911  11.449
69035SOL    HW1 8879  10.708   8.898  11.407
69035SOL    HW2 8880  10.574   8.965  11.388
69036SOL     OW 8881   9.878   4.454   3.535
69036SOL    HW1 8882   9.870   4.531   3.478
69036SOL    HW2 8883   9.969   4.425   3.523
69037SOL     OW 8884  14.243   0.781  14.283
69037SOL    HW1 8885  14.164   0.834  14.271
69037SOL    HW2 8886  14.258   0.781  14.377
69038SOL     OW 8887  11.320   7.041   1.029
69038SOL    HW1 8888  11.225   7.037   1.040
69038SOL    HW2 8889  11.344   7.127   1.062
69039SOL     OW 8890  11.196   3.865   9.850
69039SOL    HW1 8891  11.238   3.910   9.923
69039SOL    HW2 8892  11.222   3.774   9.859
69040SOL     OW 8893  10.524   1.609   6.205
69040SOL    HW1 8894  10.447   1.591   6.152
69040SOL    HW2 8895  10.502   1.689   6.254
69041SOL     OW 8896   7.974  14.624  13.334
69041SOL    HW1 8897   8.001  14.561  13.267
69041SOL    HW2 8898   7.939  14.698  13.283
69042SOL     OW 8899  13.734   6.707   4.535
69042SOL    HW1 8900  13.682   6.654   4.475
69042SOL    HW2 8901  13.795   6.755   4.479
69043SOL     OW 8902  12.656   2.160   5.570
69043SOL    HW1 8903  12.604   2.118   5.639
69043SOL    HW2 8904  12.741   2.116   5.574
69044SOL     OW 8905  11.389   1.049   1.081
69044SOL    HW1 8906  11.393   1.145   1.087
69044SOL    HW2 8907  11.321   1.024   1.144
69045SOL     OW 8908   5.545   0.133   4.419
69045SOL    HW1 8909   5.582   0.045   4.413
69045SOL    HW2 8910   5.450   0.119   4.423
69046SOL     OW 8911   8.419   5.020   4.894
69046SOL    HW1 8912   8.388   4.970   4.970
69046SOL    HW2 8913   8.501   4.978   4.869
69047SOL     OW 8914   9.737   7.510  14.591
69047SOL    HW1 8915   9.735   7.547  14.503
69047SOL    HW2 8916   9.713   7.418  14.579
69048SOL     OW 8917   0.128   7.868  13.713
69048SOL    HW1 8918   0.158   7.911  13.793
69048SOL    HW2 8919   0.204   7.870  13.655
69049SOL     OW 8920   3.368   9.807   7.408
69049SOL    HW1 8921   3.369   9.717   7.374
69049SOL    HW2 8922   3.339   9.798   7.499
69050SOL     OW 8923  10.564  13.700   3.845
69050SOL    HW1 8924  10.528  13.771   3.793
69050SOL    HW2 8925  10.594  13.742   3.926
69051SOL     OW 8926   2.585  10.756  12.490
69051SOL    HW1 8927   2.536  10.680  12.460
69051SOL    HW2 8928   2.655  10.720  12.544
69052SOL     OW 8929   7.468   0.525  11.046
69052SOL    HW1 8930   7.546   0.501  11.096
69052SOL    HW2 8931   7.493   0.512  10.954
69053SOL     OW 8932  11.106  14.776   3.114
69053SOL    HW1 8933  11.187  14.827   3.122
69053SOL    HW2 8934  11.051  14.827   3.054
69054SOL     OW 8935  14.847   1.000  13.197
69054SOL    HW1 8936  14.838   1.042  13.282
69054SOL    HW2 8937  14.835   1.072  13.134
69055SOL     OW 8938  12.163   8.836   9.031
69055SOL    HW1 8939  12.219   8.879   8.966
69055SOL    HW2 8940  12.124   8.909   9.080
69056SOL     OW 8941  12.009   8.723  14.138
69056SOL    HW1 8942  12.012   8.819  14.146
69056SOL    HW2 8943  11.986   8.692  14.226
69057SOL     OW 8944   6.419   5.399   7.434
69057SOL    HW1 8945   6.463   5.359   7.359
69057SOL    HW2 8946   6.330   5.417   7.402
69058SOL     OW 8947   4.719  12.433  11.934
69058SOL    HW1 8948   4.683  12.437  11.846
69058SOL    HW2 8949   4.810  12.460  11.924
69059SOL     OW 8950   0.742   1.275   0.003
69059SOL    HW1 8951   0.685   1.282  14.804
69059SOL    HW2 8952   0.712   1.196   0.048
69060SOL     OW 8953  10.311   8.830  11.651
69060SOL    HW1 8954  10.324   8.846  11.557
69060SOL    HW2 8955  10.242   8.891  11.677
69061SOL     OW 8956   5.111   8.874   7.410
69061SOL    HW1 8957   5.023   8.890   7.375
69061SOL    HW2 8958   5.122   8.938   7.480
69062SOL     OW 8959   2.922  11.838  12.071
69062SOL    HW1 8960   2.903  11.925  12.106
69062SOL    HW2 8961   2.932  11.852  11.977
69063SOL     OW 8962   2.045   0.023  11.143
69063SOL    HW1 8963   2.018   0.031  11.235
69063SOL    HW2 8964   1.994  14.826  11.109
69064SOL     OW 8965   6.215  10.804   0.473
69064SOL    HW1 8966   6.235  10.867   0.542
69064SOL    HW2 8967   6.212  10.857   0.393
69065SOL     OW 8968  14.191   5.194  13.410
69065SOL    HW1 8969  14.207   5.265  13.348
69065SOL    HW2 8970  14.184   5.237  13.495
69066SOL     OW 8971   4.203  11.030  10.960
69066SOL    HW1 8972   4.119  10.996  10.928
69066SOL    HW2 8973   4.219  11.108  10.908
69067SOL     OW 8974  12.043   2.063   8.864
69067SOL    HW1 8975  11.963   2.113   8.879
69067SOL    HW2 8976  12.027   2.018   8.780
69068SOL     OW 8977   2.583   2.327   1.047
69068SOL    HW1 8978   2.591   2.327   0.952
69068SOL    HW2 8979   2.494   2.296   1.063
69069SOL     OW 8980   3.171   9.070   2.416
69069SOL    HW1 8981   3.115   9.146   2.430
69069SOL    HW2 8982   3.185   9.067   2.321
69070SOL     OW 8983  13.821   6.005  12.440
69070SOL    HW1 8984  13.902   5.976  12.482
69070SOL    HW2 8985  13.802   5.938  12.375
69071SOL     OW 8986   2.982  12.774   5.252
69071SOL    HW1 8987   2.914  12.788   5.318
69071SOL    HW2 8988   3.006  12.682   5.261
69072SOL     OW 8989  10.007   5.763   8.405
69072SOL    HW1 8990  10.009   5.790   8.313
69072SOL    HW2 8991  10.016   5.845   8.454
69073SOL     OW 8992  13.643  13.248  12.330
69073SOL    HW1 8993  13.670  13.326  12.280
69073SOL    HW2 8994  13.670  13.266  12.420
69074SOL     OW 8995   9.892  14.658   0.741
69074SOL    HW1 8996   9.860  14.631   0.655
69074SOL    HW2 8997   9.834  14.729   0.767
69075SOL     OW 8998   3.368   4.608   0.963
69075SOL    HW1 8999   3.405   4.691   0.934
69075SOL    HW2 9000   3.410   4.590   1.047
69076SOL     OW 9001  11.690   3.828   8.939
69076SOL    HW1 9002  11.742   3.900   8.904
69076SOL    HW2 9003  11.613   3.870   8.976
69077SOL     OW 9004   3.420  11.172  11.343
69077SOL    HW1 9005   3.356  11.239  11.320
69077SOL    HW2 9006   3.504  11.206  11.311
69078SOL     OW 9007  11.963  12.088   4.169
69078SOL    HW1 9008  12.025  12.074   4.240
69078SOL    HW2 9009  11.930  12.177   4.184
69079SOL     OW 9010  10.469  12.083   7.942
69079SOL    HW1 9011  10.460  11.995   7.979
69079SOL    HW2 9012  10.538  12.075   7.877
69080SOL     OW 9013   4.240  11.348   9.354
69080SOL    HW1 9014   4.239  11.421   9.292
69080SOL    HW2 9015   4.188  11.379   9.428
69081SOL     OW 9016   4.935  10.630   1.210
69081SOL    HW1 9017   4.935  10.597   1.300
69081SOL    HW2 9018   4.979  10.561   1.159
69082SOL     OW 9019   6.023   0.561  11.584
69082SOL    HW1 9020   5.970   0.574  11.663
69082SOL    HW2 9021   6.048   0.650  11.557
69083SOL     OW 9022   9.497   8.561   7.602
69083SOL    HW1 9023   9.453   8.559   7.687
69083SOL    HW2 9024   9.462   8.486   7.555
69084SOL     OW 9025   3.424  13.156   2.626
69084SOL    HW1 9026   3.385  13.069   2.618
69084SOL    HW2 9027   3.481  13.163   2.549
69085SOL     OW 9028   5.619   9.541   1.381
69085SOL    HW1 9029   5.556   9.613   1.377
69085SOL    HW2 9030   5.577   9.470   1.334
69086SOL     OW 9031   6.023  13.105   8.595
69086SOL    HW1 9032   6.068  13.159   8.660
69086SOL    HW2 9033   5.941  13.079   8.636
69087SOL     OW 9034   8.336  13.302   5.204
69087SOL    HW1 9035   8.286  13.383   5.195
69087SOL    HW2 9036   8.417  13.329   5.248
69088SOL     OW 9037   5.619   9.133   4.768
69088SOL    HW1 9038   5.702   9.173   4.740
69088SOL    HW2 9039   5.611   9.157   4.860
69089SOL     OW 9040  10.601   0.393   9.955
69089SOL    HW1 9041  10.524   0.447   9.935
69089SOL    HW2 9042  10.605   0.331   9.883
69090SOL     OW 9043  14.240   9.242   7.117
69090SOL    HW1 9044  14.193   9.230   7.200
69090SOL    HW2 9045  14.225   9.161   7.068
69091SOL     OW 9046   7.853   6.372   1.490
69091SOL    HW1 9047   7.845   6.409   1.577
69091SOL    HW2 9048   7.834   6.279   1.501
69092SOL     OW 9049   4.338   2.923   2.321
69092SOL    HW1 9050   4.429   2.935   2.297
69092SOL    HW2 9051   4.291   2.992   2.274
69093SOL     OW 9052   4.908  11.012   5.243
69093SOL    HW1 9053   4.874  11.071   5.176
69093SOL    HW2 9054   4.855  11.030   5.321
69094SOL     OW 9055   8.722   7.357   7.111
69094SOL    HW1 9056   8.727   7.390   7.021
69094SOL    HW2 9057   8.789   7.289   7.115
69095SOL     OW 9058   3.571   1.946   5.413
69095SOL    HW1 9059   3.649   1.933   5.359
69095SOL    HW2 9060   3.514   2.002   5.359
69096SOL     OW 9061   7.359   6.419   3.362
69096SOL    HW1 9062   7.388   6.502   3.399
69096SOL    HW2 9063   7.332   6.367   3.438
69097SOL     OW 9064   5.711   0.955   1.388
69097SOL    HW1 9065   5.722   0.863   1.414
69097SOL    HW2 9066   5.633   0.955   1.333
69098SOL     OW 9067   2.380   1.947   1.042
69098SOL    HW1 9068   2.309   1.931   1.104
69098SOL    HW2 9069   2.386   1.867   0.990
69099SOL     OW 9070   0.668   5.725   0.055
69099SOL    HW1 9071   0.717   5.738  14.851
69099SOL    HW2 9072   0.735   5.732   0.123
69100SOL     OW 9073  14.720  11.899   4.055
69100SOL    HW1 9074  14.646  11.959   4.068
69100SOL    HW2 9075  14.774  11.941   3.988
69101SOL     OW 9076  14.871   9.198  12.304
69101SOL    HW1 9077  14.834   9.131  12.247
69101SOL    HW2 9078  14.796   9.246  12.337
69102SOL     OW 9079   8.208   4.726   6.237
69102SOL    HW1 9080   8.153   4.670   6.291
69102SOL    HW2 9081   8.198   4.814   6.273
69103SOL     OW 9082   9.904   0.011   2.048
69103SOL    HW1 9083   9.933  14.869   2.138
69103SOL    HW2 9084   9.888   0.105   2.048
69104SOL     OW 9085  11.592  10.290  13.135
69104SOL    HW1 9086  11.511  10.240  13.143
69104SOL    HW2 9087  11.613  10.289  13.042
69105SOL     OW 9088  11.045  14.278  14.838
69105SOL    HW1 9089  10.973  14.231  14.796
69105SOL    HW2 9090  11.120  14.265  14.779
69106SOL     OW 9091  11.425  14.729   3.984
69106SOL    HW1 9092  11.379  14.794   3.931
69106SOL    HW2 9093  11.383  14.646   3.962
69107SOL     OW 9094  12.634   9.978   6.895
69107SOL    HW1 9095  12.605  10.049   6.953
69107SOL    HW2 9096  12.615  10.011   6.807
69108SOL     OW 9097  12.139   2.223  11.445
69108SOL    HW1 9098  12.058   2.215  11.395
69108SOL    HW2 9099  12.175   2.308  11.419
69109SOL     OW 9100   8.807  13.813   5.438
69109SOL    HW1 9101   8.841  13.734   5.395
69109SOL    HW2 9102   8.724  13.786   5.477
69110SOL     OW 9103  10.158   6.505   8.775
69110SOL    HW1 9104  10.230   6.553   8.733
69110SOL    HW2 9105  10.100   6.574   8.810
69111SOL     OW 9106   6.776  11.696   8.478
69111SOL    HW1 9107   6.869  11.716   8.486
69111SOL    HW2 9108   6.772  11.627   8.412
69112SOL     OW 9109   0.905  14.594   8.552
69112SOL    HW1 9110   0.846  14.621   8.481
69112SOL    HW2 9111   0.991  14.590   8.511
69113SOL     OW 9112   1.534  13.235   3.640
69113SOL    HW1 9113   1.614  13.210   3.594
69113SOL    HW2 9114   1.549  13.210   3.731
69114SOL     OW 9115   6.714   4.778   0.620
69114SOL    HW1 9116   6.761   4.715   0.564
69114SOL    HW2 9117   6.636   4.802   0.570
69115SOL     OW 9118   7.901  12.773   6.878
69115SOL    HW1 9119   7.833  12.741   6.937
69115SOL    HW2 9120   7.914  12.865   6.904
69116SOL     OW 9121   6.485  11.010  14.064
69116SOL    HW1 9122   6.527  10.923  14.064
69116SOL    HW2 9123   6.547  11.065  14.112
69117SOL     OW 9124   6.457  11.159  10.408
69117SOL    HW1 9125   6.512  11.156  10.330
69117SOL    HW2 9126   6.375  11.118  10.382
69118SOL     OW 9127   4.111   6.173   6.423
69118SOL    HW1 9128   4.198   6.139   6.444
69118SOL    HW2 9129   4.082   6.121   6.348
69119SOL     OW 9130  14.136  13.000   9.476
69119SOL    HW1 9131  14.222  13.041   9.483
69119SOL    HW2 9132  14.079  13.070   9.444
69120SOL     OW 9133   3.934  11.429   2.711
69120SOL    HW1 9134   3.922  11.454   2.619
69120SOL    HW2 9135   3.846  11.431   2.748
69121SOL     OW 9136   4.864   3.165   6.973
69121SOL    HW1 9137   4.902   3.159   6.885
69121SOL    HW2 9138   4.881   3.256   7.000
69122SOL     OW 9139   1.200   1.207   9.672
69122SOL    HW1 9140   1.111   1.193   9.638
69122SOL    HW2 9141   1.248   1.244   9.598
69123SOL     OW 9142  13.861  11.385   1.120
69123SOL    HW1 9143  13.841  11.449   1.188
69123SOL    HW2 9144  13.855  11.300   1.163
69124SOL     OW 9145  14.303  10.899   0.167
69124SOL    HW1 9146  14.390  10.887   0.207
69124SOL    HW2 9147  14.253  10.945   0.234
69125SOL     OW 9148   9.520  13.243   2.626
69125SOL    HW1 9149   9.529  13.254   2.531
69125SOL    HW2 9150   9.458  13.171   2.636
69126SOL     OW 9151   5.753  12.794  13.282
69126SOL    HW1 9152   5.703  12.733  13.227
69126SOL    HW2 9153   5.824  12.824  13.225
69127SOL     OW 9154  13.931  11.629  10.169
69127SOL    HW1 9155  13.985  11.568  10.119
69127SOL    HW2 9156  13.916  11.703  10.110
69128SOL     OW 9157  12.625   0.128  12.271
69128SOL    HW1 9158  12.628   0.034  12.255
69128SOL    HW2 9159  12.713   0.159  12.251
69129SOL     OW 9160   9.112  14.633  11.156
69129SOL    HW1 9161   9.139  14.546  11.184
69129SOL    HW2 9162   9.028  14.619  11.112
69130SOL     OW 9163   7.688   2.768  13.528
69130SOL    HW1 9164   7.754   2.790  13.462
69130SOL    HW2 9165   7.648   2.852  13.550
69131SOL     OW 9166  10.349   2.881  11.716
69131SOL    HW1 9167  10.399   2.904  11.638
69131SOL    HW2 9168  10.315   2.964  11.749
69132SOL     OW 9169  11.462   5.772   6.567
69132SOL    HW1 9170  11.503   5.699   6.613
69132SOL    HW2 9171  11.409   5.731   6.498
69133SOL     OW 9172   0.096   2.712   3.241
69133SOL    HW1 9173   0.083   2.804   3.266
69133SOL    HW2 9174   0.059   2.662   3.313
69134SOL     OW 9175  13.475   4.496  13.406
69134SOL    HW1 9176  13.523   4.476  13.325
69134SOL    HW2 9177  13.472   4.591  13.409
69135SOL     OW 9178   4.714   9.245  11.110
69135SOL    HW1 9179   4.660   9.323  11.119
69135SOL    HW2 9180   4.803   9.279  11.099
69136SOL     OW 9181   9.255   1.002   9.213
69136SOL    HW1 9182   9.346   1.008   9.241
69136SOL    HW2 9183   9.238   1.084   9.167
69137SOL     OW 9184  11.833   5.504   4.972
69137SOL    HW1 9185  11.856   5.597   4.971
69137SOL    HW2 9186  11.766   5.496   5.039
69138SOL     OW 9187   5.682  12.106  10.988
69138SOL    HW1 9188   5.769  12.144  11.000
69138SOL    HW2 9189   5.677  12.086  10.895
69139SOL     OW 9190   3.349  12.043   2.239
69139SOL    HW1 9191   3.400  11.980   2.289
69139SOL    HW2 9192   3.399  12.055   2.158
69140SOL     OW 9193   4.219   8.207  13.074
69140SOL    HW1 9194   4.181   8.121  13.055
69140SOL    HW2 9195   4.231   8.247  12.988
69141SOL     OW 9196   3.549  12.962   1.228
69141SOL    HW1 9197   3.636  12.921   1.221
69141SOL    HW2 9198   3.566  13.045   1.273
69142SOL     OW 9199   4.308   4.696   3.934
69142SOL    HW1 9200   4.282   4.689   4.025
69142SOL    HW2 9201   4.288   4.786   3.910
69143SOL     OW 9202  13.459   4.622   2.602
69143SOL    HW1 9203  13.510   4.603   2.680
69143SOL    HW2 9204  13.431   4.713   2.613
69144SOL     OW 9205   1.042   6.285  10.302
69144SOL    HW1 9206   1.071   6.359  10.355
69144SOL    HW2 9207   1.118   6.259  10.251
69145SOL     OW 9208   2.079  12.113   2.936
69145SOL    HW1 9209   2.092  12.101   3.030
69145SOL    HW2 9210   2.134  12.189   2.914
69146SOL     OW 9211   3.982  14.056   7.426
69146SOL    HW1 9212   3.964  13.962   7.425
69146SOL    HW2 9213   4.070  14.063   7.463
69147SOL     OW 9214  10.399   9.807  13.586
69147SOL    HW1 9215  10.389   9.900  13.568
69147SOL    HW2 9216  10.465   9.777  13.523
69148SOL     OW 9217  11.345  14.282   5.108
69148SOL    HW1 9218  11.260  14.281   5.153
69148SOL    HW2 9219  11.325  14.315   5.020
69149SOL     OW 9220   4.177  13.124   9.248
69149SOL    HW1 9221   4.204  13.201   9.198
69149SOL    HW2 9222   4.253  13.066   9.246
69150SOL     OW 9223   7.577  12.972   8.396
69150SOL    HW1 9224   7.568  13.008   8.308
69150SOL    HW2 9225   7.615  12.885   8.382
69151SOL     OW 9226   2.172  10.859   5.420
69151SOL    HW1 9227   2.167  10.882   5.513
69151SOL    HW2 9228   2.177  10.763   5.420
69152SOL     OW 9229  12.837  12.646   9.143
69152SOL    HW1 9230  12.925  12.655   9.106
69152SOL    HW2 9231  12.779  12.642   9.066
69153SOL     OW 9232   0.052   9.664  10.605
69153SOL    HW1 9233   0.008   9.722  10.543
69153SOL    HW2 9234  14.874   9.665  10.683
69154SOL     OW 9235   1.364   5.751  13.095
69154SOL    HW1 9236   1.291   5.800  13.056
69154SOL    HW2 9237   1.381   5.795  13.178
69155SOL     OW 9238   6.691   6.783  14.533
69155SOL    HW1 9239   6.690   6.846  14.606
69155SOL    HW2 9240   6.619   6.811  14.477
69156SOL     OW 9241   4.804  11.681   7.034
69156SOL    HW1 9242   4.792  11.588   7.017
69156SOL    HW2 9243   4.744  11.700   7.106
69157SOL     OW 9244   4.156  14.773  14.335
69157SOL    HW1 9245   4.140  14.680  14.347
69157SOL    HW2 9246   4.125  14.791  14.246
69158SOL     OW 9247   2.761   5.268   3.679
69158SOL    HW1 9248   2.799   5.341   3.630
69158SOL    HW2 9249   2.812   5.265   3.761
69159SOL     OW 9250  12.316   3.238   2.366
69159SOL    HW1 9251  12.297   3.260   2.275
69159SOL    HW2 9252  12.406   3.205   2.365
69160SOL     OW 9253  11.515   0.533   2.671
69160SOL    HW1 9254  11.592   0.553   2.618
69160SOL    HW2 9255  11.504   0.611   2.726
69161SOL     OW 9256   9.161   5.146   3.546
69161SOL    HW1 9257   9.143   5.055   3.570
69161SOL    HW2 9258   9.257   5.153   3.548
69162SOL     OW 9259  11.792   9.700   5.059
69162SOL    HW1 9260  11.850   9.728   5.130
69162SOL    HW2 9261  11.822   9.612   5.038
69163SOL     OW 9262   5.648   1.273   5.177
69163SOL    HW1 9263   5.693   1.353   5.203
69163SOL    HW2 9264   5.717   1.207   5.172
69164SOL     OW 9265   4.209   5.432   6.699
69164SOL    HW1 9266   4.273   5.361   6.698
69164SOL    HW2 9267   4.162   5.421   6.782
69165SOL     OW 9268   1.712   1.885  10.330
69165SOL    HW1 9269   1.623   1.881  10.295
69165SOL    HW2 9270   1.701   1.912  10.421
69166SOL     OW 9271   7.615   9.405   0.239
69166SOL    HW1 9272   7.540   9.435   0.187
69166SOL    HW2 9273   7.643   9.324   0.197
69167SOL     OW 9274   8.341  11.384  13.759
69167SOL    HW1 9275   8.398  11.415  13.830
69167SOL    HW2 9276   8.399  11.377  13.683
69168SOL     OW 9277   6.495   6.368  12.318
69168SOL    HW1 9278   6.554   6.441  12.301
69168SOL    HW2 9279   6.444   6.395  12.394
69169SOL     OW 9280   4.536   7.644   9.096
69169SOL    HW1 9281   4.463   7.700   9.067
69169SOL    HW2 9282   4.609   7.669   9.041
69170SOL     OW 9283  12.584   4.418   7.914
69170SOL    HW1 9284  12.618   4.469   7.987
69170SOL    HW2 9285  12.504   4.377   7.949
69171SOL     OW 9286   5.158  13.622   3.253
69171SOL    HW1 9287   5.121  13.536   3.272
69171SOL    HW2 9288   5.083  13.682   3.259
69172SOL     OW 9289   1.055   1.553   2.037
69172SOL    HW1 9290   0.976   1.517   2.077
69172SOL    HW2 9291   1.028   1.638   2.003
69173SOL     OW 9292   0.575   3.936  10.317
69173SOL    HW1 9293   0.596   3.857  10.268
69173SOL    HW2 9294   0.488   3.920  10.353
69174SOL     OW 9295   9.615   0.777   9.380
69174SOL    HW1 9296   9.578   0.703   9.331
69174SOL    HW2 9297   9.676   0.819   9.319
69175SOL     OW 9298   5.239  10.833   5.732
69175SOL    HW1 9299   5.153  10.870   5.713
69175SOL    HW2 9300   5.301  10.891   5.688
69176SOL     OW 9301   2.011   9.459   0.299
69176SOL    HW1 9302   2.066   9.457   0.377
69176SOL    HW2 9303   2.023   9.373   0.259
69177SOL     OW 9304   5.397  10.696   0.194
69177SOL    HW1 9305   5.482  10.678   0.153
69177SOL    HW2 9306   5.333  10.678   0.124
69178SOL     OW 9307   5.597  13.041  10.404
69178SOL    HW1 9308   5.552  13.123  10.423
69178SOL    HW2 9309   5.602  12.996  10.488
69179SOL     OW 9310   2.875  13.360   2.124
69179SOL    HW1 9311   2.911  13.351   2.212
69179SOL    HW2 9312   2.829  13.444   2.126
69180SOL     OW 9313  13.396   7.316   9.175
69180SOL    HW1 9314  13.366   7.288   9.262
69180SOL    HW2 9315  13.380   7.410   9.173
69181SOL     OW 9316   1.630   7.201   9.576
69181SOL    HW1 9317   1.699   7.153   9.531
69181SOL    HW2 9318   1.614   7.278   9.520
69182SOL     OW 9319  14.681   3.280  12.733
69182SOL    HW1 9320  14.625   3.357  12.721
69182SOL    HW2 9321  14.752   3.311  12.790
69183SOL     OW 9322   2.194  13.240  10.247
69183SOL    HW1 9323   2.165  13.156  10.284
69183SOL    HW2 9324   2.120  13.272  10.197
69184SOL     OW 9325  14.119  10.249  11.463
69184SOL    HW1 9326  14.078  10.259  11.549
69184SOL    HW2 9327  14.211  10.273  11.477
69185SOL     OW 9328   7.562   5.346  10.320
69185SOL    HW1 9329   7.552   5.288  10.243
69185SOL    HW2 9330   7.626   5.301  10.375
69186SOL     OW 9331  12.418  10.903   3.524
69186SOL    HW1 9332  12.437  10.984   3.571
69186SOL    HW2 9333  12.322  10.902   3.516
69187SOL     OW 9334  12.236   3.227   7.991
69187SOL    HW1 9335  12.249   3.157   7.927
69187SOL    HW2 9336  12.311   3.286   7.977
69188SOL     OW 9337  13.646   4.033  12.604
69188SOL    HW1 9338  13.705   4.108  12.600
69188SOL    HW2 9339  13.559   4.071  12.614
69189SOL     OW 9340   5.918   7.105   1.853
69189SOL    HW1 9341   5.966   7.129   1.774
69189SOL    HW2 9342   5.931   7.010   1.861
69190SOL     OW 9343   6.095  10.106   4.249
69190SOL    HW1 9344   6.096  10.014   4.278
69190SOL    HW2 9345   6.005  10.121   4.221
69191SOL     OW 9346   3.584   2.823   4.548
69191SOL    HW1 9347   3.580   2.863   4.461
69191SOL    HW2 9348   3.574   2.896   4.609
69192SOL     OW 9349   5.325   3.378  11.318
69192SOL    HW1 9350   5.301   3.454  11.372
69192SOL    HW2 9351   5.242   3.341  11.290
69193SOL     OW 9352   5.980   8.767  10.409
69193SOL    HW1 9353   5.891   8.746  10.381
69193SOL    HW2 9354   5.972   8.786  10.502
69194SOL     OW 9355   1.975   4.681   0.996
69194SOL    HW1 9356   1.941   4.770   0.984
69194SOL    HW2 9357   2.057   4.693   1.044
69195SOL     OW 9358   1.979   0.030  11.416
69195SOL    HW1 9359   2.055   0.080  11.446
69195SOL    HW2 9360   1.981  14.827  11.468
69196SOL     OW 9361   9.547   8.053   5.394
69196SOL    HW1 9362   9.610   7.999   5.443
69196SOL    HW2 9363   9.585   8.141   5.397
69197SOL     OW 9364   1.341   9.340   5.492
69197SOL    HW1 9365   1.261   9.307   5.451
69197SOL    HW2 9366   1.403   9.348   5.420
69198SOL     OW 9367   2.600   8.979   6.289
69198SOL    HW1 9368   2.655   8.980   6.211
69198SOL    HW2 9369   2.526   9.035   6.268
69199SOL     OW 9370  13.723  10.739  12.700
69199SOL    HW1 9371  13.768  10.738  12.784
69199SOL    HW2 9372  13.720  10.647  12.673
69200SOL     OW 9373   8.753   2.176   6.916
69200SOL    HW1 9374   8.800   2.094   6.934
69200SOL    HW2 9375   8.788   2.205   6.832
69201SOL     OW 9376   0.423  11.394   3.655
69201SOL    HW1 9377   0.382  11.479   3.670
69201SOL    HW2 9378   0.498  11.393   3.714
69202SOL     OW 9379  11.620   1.235  14.645
69202SOL    HW1 9380  11.542   1.181  14.657
69202SOL    HW2 9381  11.601   1.287  14.567
69203SOL     OW 9382   3.918   6.977   8.386
69203SOL    HW1 9383   3.842   6.929   8.418
69203SOL    HW2 9384   3.988   6.954   8.448
69204SOL     OW 9385   7.551  14.690   1.965
69204SOL    HW1 9386   7.566  14.746   2.041
69204SOL    HW2 9387   7.614  14.721   1.899
69205SOL     OW 9388   0.268   8.771   6.141
69205SOL    HW1 9389   0.264   8.757   6.047
69205SOL    HW2 9390   0.355   8.741   6.166
69206SOL     OW 9391   1.610   3.030   4.646
69206SOL    HW1 9392   1.558   3.108   4.664
69206SOL    HW2 9393   1.547   2.965   4.614
69207SOL     OW 9394   2.097   3.318   4.408
69207SOL    HW1 9395   2.036   3.256   4.447
69207SOL    HW2 9396   2.141   3.270   4.339
69208SOL     OW 9397  13.681  12.719   0.726
69208SOL    HW1 9398  13.665  12.783   0.657
69208SOL    HW2 9399  13.619  12.743   0.795
69209SOL     OW 9400   3.851   3.486  11.722
69209SOL    HW1 9401   3.762   3.472  11.756
69209SOL    HW2 9402   3.890   3.399  11.723
69210SOL     OW 9403  12.699   3.148   5.834
69210SOL    HW1 9404  12.607   3.174   5.841
69210SOL    HW2 9405  12.737   3.171   5.919
69211SOL     OW 9406   5.693   5.785   6.269
69211SOL    HW1 9407   5.740   5.865   6.247
69211SOL    HW2 9408   5.606   5.814   6.295
69212SOL     OW 9409   4.167  11.911   1.325
69212SOL    HW1 9410   4.088  11.936   1.372
69212SOL    HW2 9411   4.235  11.905   1.392
69213SOL     OW 9412  14.191   3.613   0.668
69213SOL    HW1 9413  14.235   3.695   0.691
69213SOL    HW2 9414  14.104   3.640   0.639
69214SOL     OW 9415  12.303   5.441  13.353
69214SOL    HW1 9416  12.257   5.399  13.425
69214SOL    HW2 9417  12.283   5.387  13.276
69215SOL     OW 9418   1.133   2.394  13.394
69215SOL    HW1 9419   1.148   2.404  13.300
69215SOL    HW2 9420   1.039   2.413  13.405
69216SOL     OW 9421   1.378   2.935   8.812
69216SOL    HW1 9422   1.340   3.020   8.790
69216SOL    HW2 9423   1.320   2.900   8.879
69217SOL     OW 9424   7.284  13.830   8.206
69217SOL    HW1 9425   7.233  13.764   8.253
69217SOL    HW2 9426   7.284  13.799   8.115
69218SOL     OW 9427  10.247  12.117   7.790
69218SOL    HW1 9428  10.328  12.131   7.838
69218SOL    HW2 9429  10.236  12.022   7.789
69219SOL     OW 9430   5.196   5.439   7.667
69219SOL    HW1 9431   5.185   5.363   7.610
69219SOL    HW2 9432   5.257   5.496   7.620
69220SOL     OW 9433  13.029   2.130  11.413
69220SOL    HW1 9434  12.938   2.160  11.424
69220SOL    HW2 9435  13.082   2.209  11.428
69221SOL     OW 9436  10.643   4.690   2.423
69221SOL    HW1 9437  10.695   4.704   2.343
69221SOL    HW2 9438  10.690   4.622   2.471
69222SOL     OW 9439   1.037   8.661   0.972
69222SOL    HW1 9440   1.043   8.740   0.918
69222SOL    HW2 9441   1.025   8.693   1.061
69223SOL     OW 9442   8.411  14.724   6.794
69223SOL    HW1 9443   8.418  14.635   6.759
69223SOL    HW2 9444   8.402  14.712   6.889
69224SOL     OW 9445   4.991   7.419   6.308
69224SOL    HW1 9446   5.019   7.397   6.397
69224SOL    HW2 9447   4.957   7.508   6.315
69225SOL     OW 9448   1.776   6.755  12.866
69225SOL    HW1 9449   1.712   6.766  12.936
69225SOL    HW2 9450   1.733   6.791  12.788
69226SOL     OW 9451   5.557   0.664   7.119
69226SOL    HW1 9452   5.497   0.596   7.088
69226SOL    HW2 9453   5.504   0.718   7.177
69227SOL     OW 9454   1.174  11.939  12.728
69227SOL    HW1 9455   1.174  11.851  12.766
69227SOL    HW2 9456   1.185  11.924  12.634
69228SOL     OW 9457   8.209   8.944  14.307
69228SOL    HW1 9458   8.296   8.914  14.332
69228SOL    HW2 9459   8.189   8.896  14.226
69229SOL     OW 9460   1.241   7.618  14.718
69229SOL    HW1 9461   1.313   7.654  14.769
69229SOL    HW2 9462   1.166   7.674  14.739
69230SOL     OW 9463   0.159  14.871  13.270
69230SOL    HW1 9464   0.134  14.810  13.340
69230SOL    HW2 9465   0.254  14.874  13.274
69231SOL     OW 9466   2.546  12.425   5.022
69231SOL    HW1 9467   2.629  12.405   5.066
69231SOL    HW2 9468   2.536  12.356   4.956
69232SOL     OW 9469   3.700   3.999   2.153
69232SOL    HW1 9470   3.729   4.079   2.195
69232SOL    HW2 9471   3.732   3.929   2.210
69233SOL     OW 9472  12.960   5.944   5.733
69233SOL    HW1 9473  13.046   5.978   5.758
69233SOL    HW2 9474  12.974   5.907   5.645
69234SOL     OW 9475   0.433   4.292   5.915
69234SOL    HW1 9476   0.480   4.216   5.949
69234SOL    HW2 9477   0.472   4.366   5.960
69235SOL     OW 9478   1.780   8.875   1.365
69235SOL    HW1 9479   1.748   8.966   1.356
69235SOL    HW2 9480   1.819   8.855   1.280
69236SOL     OW 9481  10.336   1.802   5.044
69236SOL    HW1 9482  10.383   1.876   5.005
69236SOL    HW2 9483  10.387   1.726   5.018
69237SOL     OW 9484  10.477  12.857   3.651
69237SOL    HW1 9485  10.405  12.911   3.684
69237SOL    HW2 9486  10.537  12.848   3.725
69238SOL     OW 9487  13.813   8.431   4.765
69238SOL    HW1 9488  13.880   8.363   4.772
69238SOL    HW2 9489  13.797   8.458   4.856
69239SOL     OW 9490  13.755   3.713   5.434
69239SOL    HW1 9491  13.797   3.773   5.496
69239SOL    HW2 9492  13.684   3.673   5.484
69240SOL     OW 9493  10.698   9.018   7.606
69240SOL    HW1 9494  10.614   8.989   7.569
69240SOL    HW2 9495  10.681   9.027   7.700
69241SOL     OW 9496  11.726  14.684  12.253
69241SOL    HW1 9497  11.794  14.667  12.188
69241SOL    HW2 9498  11.644  14.662  12.208
69242SOL     OW 9499  14.374   2.454  13.123
69242SOL    HW1 9500  14.467   2.432  13.124
69242SOL    HW2 9501  14.329   2.370  13.136
69243SOL     OW 9502   3.193   8.086   1.745
69243SOL    HW1 9503   3.200   8.079   1.650
69243SOL    HW2 9504   3.099   8.079   1.763
69244SOL     OW 9505   8.167   5.111   1.026
69244SOL    HW1 9506   8.239   5.118   0.963
69244SOL    HW2 9507   8.210   5.116   1.111
69245SOL     OW 9508  12.894   9.609   7.861
69245SOL    HW1 9509  12.894   9.667   7.937
69245SOL    HW2 9510  12.971   9.554   7.873
69246SOL     OW 9511   8.987   7.907  13.498
69246SOL    HW1 9512   9.052   7.844  13.468
69246SOL    HW2 9513   8.931   7.922  13.422
69247SOL     OW 9514  13.377   2.795  14.690
69247SOL    HW1 9515  13.400   2.887  14.707
69247SOL    HW2 9516  13.459   2.755  14.663
69248SOL     OW 9517   7.982   0.168  11.865
69248SOL    HW1 9518   8.043   0.184  11.936
69248SOL    HW2 9519   7.960   0.255  11.832
69249SOL     OW 9520  12.993   4.962   9.453
69249SOL    HW1 9521  13.012   4.870   9.433
69249SOL    HW2 9522  13.020   4.972   9.545
69250SOL     OW 9523  14.826   7.806   4.419
69250SOL    HW1 9524  14.827   7.744   4.492
69250SOL    HW2 9525  14.734   7.831   4.410
69251SOL     OW 9526   3.560   8.847   1.540
69251SOL    HW1 9527   3.537   8.831   1.449
69251SOL    HW2 9528   3.618   8.774   1.563
69252SOL     OW 9529   6.943   9.000  12.402
69252SOL    HW1 9530   6.944   8.918  12.354
69252SOL    HW2 9531   6.854   9.007  12.438
69253SOL     OW 9532   4.294  11.277   2.012
69253SOL    HW1 9533   4.285  11.225   2.092
69253SOL    HW2 9534   4.388  11.276   1.994
69254SOL     OW 9535  11.208   5.559   3.756
69254SOL    HW1 9536  11.146   5.518   3.816
69254SOL    HW2 9537  11.242   5.635   3.804
69255SOL     OW 9538   6.542  10.440  13.223
69255SOL    HW1 9539   6.555  10.367  13.285
69255SOL    HW2 9540   6.464  10.415  13.173
69256SOL     OW 9541  10.951   7.699   8.971
69256SOL    HW1 9542  10.945   7.661   9.059
69256SOL    HW2 9543  10.929   7.791   8.984
69257SOL     OW 9544   3.465   2.855   8.917
69257SOL    HW1 9545   3.387   2.810   8.950
69257SOL    HW2 9546   3.515   2.877   8.995
69258SOL     OW 9547  10.816  11.978   4.056
69258SOL    HW1 9548  10.766  12.054   4.085
69258SOL    HW2 9549  10.906  11.995   4.084
69259SOL     OW 9550   4.674  11.058   3.385
69259SOL    HW1 9551   4.765  11.086   3.381
69259SOL    HW2 9552   4.679  10.963   3.399
69260SOL     OW 9553  11.876   9.862   6.346
69260SOL    HW1 9554  11.968   9.887   6.339
69260SOL    HW2 9555  11.829   9.928   6.294
69261SOL     OW 9556   6.533  10.330   9.854
69261SOL    HW1 9557   6.510  10.257   9.912
69261SOL    HW2 9558   6.558  10.289   9.772
69262SOL     OW 9559   5.743   6.069   8.727
69262SOL    HW1 9560   5.764   6.161   8.742
69262SOL    HW2 9561   5.672   6.050   8.788
69263SOL     OW 9562  12.683  10.323   6.798
69263SOL    HW1 9563  12.663  10.232   6.778
69263SOL    HW2 9564  12.606  10.371   6.769
69264SOL     OW 9565  12.761   0.262  14.037
69264SOL    HW1 9566  12.668   0.267  14.017
69264SOL    HW2 9567  12.800   0.336  13.993
69265SOL     OW 9568  11.518   9.151   4.932
69265SOL    HW1 9569  11.454   9.198   4.985
69265SOL    HW2 9570  11.503   9.183   4.843
69266SOL     OW 9571   2.453   4.907  14.541
69266SOL    HW1 9572   2.474   4.978  14.601
69266SOL    HW2 9573   2.538   4.873  14.513
69267SOL     OW 9574   6.755  11.869   5.558
69267SOL    HW1 9575   6.669  11.911   5.557
69267SOL    HW2 9576   6.780  11.864   5.466
69268SOL     OW 9577  14.120   6.181  11.034
69268SOL    HW1 9578  14.166   6.264  11.044
69268SOL    HW2 9579  14.159   6.124  11.101
69269SOL     OW 9580  10.052  14.478   1.493
69269SOL    HW1 9581  10.137  14.498   1.534
69269SOL    HW2 9582  10.028  14.393   1.528
69270SOL     OW 9583   1.795   5.216   0.008
69270SOL    HW1 9584   1.750   5.292   0.044
69270SOL    HW2 9585   1.866   5.198   0.070
69271SOL     OW 9586  14.509   0.514  11.962
69271SOL    HW1 9587  14.576   0.489  11.899
69271SOL    HW2 9588  14.551   0.503  12.047
69272SOL     OW 9589   0.312   2.022  10.514
69272SOL    HW1 9590   0.242   2.057  10.569
69272SOL    HW2 9591   0.333   2.093  10.454
69273SOL     OW 9592  11.858  13.220  14.028
69273SOL    HW1 9593  11.920  13.270  14.082
69273SOL    HW2 9594  11.867  13.258  13.941
69274SOL     OW 9595   5.881   1.883   7.981
69274SOL    HW1 9596   5.813   1.947   7.960
69274SOL    HW2 9597   5.960   1.935   7.995
69275SOL     OW 9598   3.699   5.243   7.846
69275SOL    HW1 9599   3.671   5.329   7.814
69275SOL    HW2 9600   3.780   5.225   7.798
69276SOL     OW 9601  12.191   5.500   9.779
69276SOL    HW1 9602  12.167   5.477   9.868
69276SOL    HW2 9603  12.250   5.429   9.751
69277SOL     OW 9604   8.687   0.166   9.067
69277SOL    HW1 9605   8.690   0.097   9.000
69277SOL    HW2 9606   8.738   0.131   9.140
69278SOL     OW 9607   3.737   9.607   5.874
69278SOL    HW1 9608   3.776   9.577   5.792
69278SOL    HW2 9609   3.763   9.699   5.880
69279SOL     OW 9610   5.271  13.669   5.536
69279SOL    HW1 9611   5.321  13.689   5.456
69279SOL    HW2 9612   5.331  13.692   5.607
69280SOL     OW 9613   5.841  12.024  12.737
69280SOL    HW1 9614   5.838  12.116  12.760
69280SOL    HW2 9615   5.883  11.982  12.812
69281SOL     OW 9616   4.624  10.433   7.545
69281SOL    HW1 9617   4.610  10.480   7.463
69281SOL    HW2 9618   4.585  10.347   7.531
69282SOL     OW 9619  10.209   3.287   3.514
69282SOL    HW1 9620  10.276   3.219   3.520
69282SOL    HW2 9621  10.126   3.238   3.513
69283SOL     OW 9622  14.038   6.876   0.151
69283SOL    HW1 9623  13.960   6.829   0.122
69283SOL    HW2 9624  14.101   6.807   0.173
69284SOL     OW 9625  10.954  13.373   7.475
69284SOL    HW1 9626  11.040  13.380   7.433
69284SOL    HW2 9627  10.907  13.451   7.445
69285SOL     OW 9628  13.584  12.364  13.226
69285SOL    HW1 9629  13.608  12.440  13.175
69285SOL    HW2 9630  13.619  12.382  13.314
69286SOL     OW 9631   2.717   4.127   7.430
69286SOL    HW1 9632   2.653   4.130   7.501
69286SOL    HW2 9633   2.775   4.055   7.452
69287SOL     OW 9634   4.049   0.421   1.789
69287SOL    HW1 9635   4.126   0.473   1.764
69287SOL    HW2 9636   3.999   0.412   1.709
69288SOL     OW 9637  11.020   0.358   0.880
69288SOL    HW1 9638  11.018   0.453   0.893
69288SOL    HW2 9639  11.102   0.342   0.834
69289SOL     OW 9640  14.675  14.495  12.740
69289SOL    HW1 9641  14.751  14.445  12.712
69289SOL    HW2 9642  14.695  14.585  12.714
69290SOL     OW 9643   0.378  13.861  13.839
69290SOL    HW1 9644   0.295  13.890  13.802
69290SOL    HW2 9645   0.416  13.940  13.877
69291SOL     OW 9646  12.033   9.459   4.745
69291SOL    HW1 9647  12.123   9.463   4.715
69291SOL    HW2 9648  12.008   9.367   4.735
69292SOL     OW 9649  10.974  10.181   0.689
69292SOL    HW1 9650  11.012  10.269   0.687
69292SOL    HW2 9651  10.884  10.195   0.720
69293SOL     OW 9652   7.150   4.383  13.758
69293SOL    HW1 9653   7.166   4.308  13.701
69293SOL    HW2 9654   7.071   4.424  13.721
69294SOL     OW 9655  14.796   6.886   1.149
69294SOL    HW1 9656  14.810   6.935   1.230
69294SOL    HW2 9657  14.701   6.884   1.139
69295SOL     OW 9658  13.868   1.587   8.225
69295SOL    HW1 9659  13.890   1.678   8.244
69295SOL    HW2 9660  13.952   1.541   8.231
69296SOL     OW 9661   6.492   0.254   9.948
69296SOL    HW1 9662   6.545   0.207  10.012
69296SOL    HW2 9663   6.497   0.200   9.869
69297SOL     OW 9664   1.042   4.500   4.381
69297SOL    HW1 9665   1.093   4.429   4.420
69297SOL    HW2 9666   1.107   4.566   4.357
69298SOL     OW 9667  10.425   8.339   2.306
69298SOL    HW1 9668  10.380   8.398   2.367
69298SOL    HW2 9669  10.364   8.331   2.233
69299SOL     OW 9670   4.188   9.472   5.425
69299SOL    HW1 9671   4.190   9.463   5.520
69299SOL    HW2 9672   4.249   9.406   5.393
69300SOL     OW 9673   0.224   6.663  13.216
69300SOL    HW1 9674   0.215   6.736  13.277
69300SOL    HW2 9675   0.245   6.588  13.271
69301SOL     OW 9676   0.698  12.564   8.025
69301SOL    HW1 9677   0.684  12.484   8.076
69301SOL    HW2 9678   0.792  12.579   8.029
69302SOL     OW 9679  12.784  12.121  11.145
69302SOL    HW1 9680  12.698  12.101  11.182
69302SOL    HW2 9681  12.783  12.079  11.059
69303SOL     OW 9682   6.532  12.810   6.363
69303SOL    HW1 9683   6.579  12.877   6.312
69303SOL    HW2 9684   6.570  12.727   6.335
69304SOL     OW 9685   6.535  13.552   1.091
69304SOL    HW1 9686   6.520  13.554   0.997
69304SOL    HW2 9687   6.471  13.489   1.124
69305SOL     OW 9688   3.596  11.861   9.507
69305SOL    HW1 9689   3.529  11.913   9.551
69305SOL    HW2 9690   3.559  11.773   9.503
69306SOL     OW 9691  11.017   1.034   0.733
69306SOL    HW1 9692  10.958   1.069   0.666
69306SOL    HW2 9693  11.057   0.957   0.692
69307SOL     OW 9694  10.214  13.716   7.562
69307SOL    HW1 9695  10.160  13.753   7.631
69307SOL    HW2 9696  10.268  13.789   7.532
69308SOL     OW 9697   8.931  12.904   0.736
69308SOL    HW1 9698   8.885  12.988   0.741
69308SOL    HW2 9699   8.898  12.864   0.656
69309SOL     OW 9700   2.271  14.070   0.407
69309SOL    HW1 9701   2.187  14.092   0.366
69309SOL    HW2 9702   2.272  14.121   0.488
69310SOL     OW 9703   0.918  12.608   6.542
69310SOL    HW1 9704   0.881  12.526   6.574
69310SOL    HW2 9705   0.858  12.636   6.472
69311SOL     OW 9706  12.467   3.180   1.425
69311SOL    HW1 9707  12.419   3.105   1.391
69311SOL    HW2 9708  12.411   3.255   1.408
69312SOL     OW 9709   3.500   6.264  11.919
69312SOL    HW1 9710   3.529   6.280  12.009
69312SOL    HW2 9711   3.427   6.202  11.928
69313SOL     OW 9712  10.959   1.156   8.884
69313SOL    HW1 9713  10.936   1.121   8.797
69313SOL    HW2 9714  11.017   1.230   8.865
69314SOL     OW 9715   5.865   2.369   4.343
69314SOL    HW1 9716   5.896   2.438   4.401
69314SOL    HW2 9717   5.887   2.288   4.389
69315SOL     OW 9718   0.587   3.884  13.598
69315SOL    HW1 9719   0.681   3.882  13.581
69315SOL    HW2 9720   0.562   3.975  13.585
69316SOL     OW 9721   0.791   9.710   8.726
69316SOL    HW1 9722   0.777   9.715   8.631
69316SOL    HW2 9723   0.712   9.667   8.759
69317SOL     OW 9724  12.243  13.181   3.095
69317SOL    HW1 9725  12.240  13.178   3.190
69317SOL    HW2 9726  12.167  13.131   3.066
69318SOL     OW 9727   4.060   5.065   6.929
69318SOL    HW1 9728   3.997   5.137   6.926
69318SOL    HW2 9729   4.015   4.992   6.887
69319SOL     OW 9730   6.091  11.736  10.594
69319SOL    HW1 9731   6.051  11.753  10.679
69319SOL    HW2 9732   6.149  11.811  10.580
69320SOL     OW 9733   7.368   0.809   1.611
69320SOL    HW1 9734   7.407   0.796   1.525
69320SOL    HW2 9735   7.276   0.831   1.593
69321SOL     OW 9736  11.672  10.613   9.209
69321SOL    HW1 9737  11.580  10.638   9.202
69321SOL    HW2 9738  11.671  10.533   9.262
69322SOL     OW 9739   5.898  10.630  12.924
69322SOL    HW1 9740   5.897  10.717  12.963
69322SOL    HW2 9741   5.989  10.617  12.898
69323SOL     OW 9742   7.110   8.250   6.118
69323SOL    HW1 9743   7.031   8.206   6.089
69323SOL    HW2 9744   7.094   8.271   6.210
69324SOL     OW 9745   6.587   0.318   3.000
69324SOL    HW1 9746   6.673   0.336   3.038
69324SOL    HW2 9747   6.530   0.303   3.075
69325SOL     OW 9748  14.045  12.726  13.101
69325SOL    HW1 9749  14.068  12.635  13.119
69325SOL    HW2 9750  14.048  12.769  13.187
69326SOL     OW 9751   1.050  11.158  11.072
69326SOL    HW1 9752   1.087  11.077  11.036
69326SOL    HW2 9753   0.979  11.129  11.129
69327SOL     OW 9754   4.714  13.450   4.595
69327SOL    HW1 9755   4.690  13.528   4.645
69327SOL    HW2 9756   4.736  13.385   4.661
69328SOL     OW 9757   4.562   7.016   3.481
69328SOL    HW1 9758   4.547   7.010   3.575
69328SOL    HW2 9759   4.584   7.108   3.466
69329SOL     OW 9760   7.943  10.353   1.185
69329SOL    HW1 9761   7.996  10.328   1.110
69329SOL    HW2 9762   7.872  10.289   1.186
69330SOL     OW 9763  14.018   3.102   0.517
69330SOL    HW1 9764  14.109   3.131   0.512
69330SOL    HW2 9765  13.979   3.155   0.586
69331SOL     OW 9766  11.029   3.538   2.134
69331SOL    HW1 9767  11.120   3.569   2.128
69331SOL    HW2 9768  10.993   3.553   2.047
69332SOL     OW 9769   1.449  11.162   6.973
69332SOL    HW1 9770   1.497  11.237   6.938
69332SOL    HW2 9771   1.500  11.086   6.945
69333SOL     OW 9772   6.714  14.755   8.531
69333SOL    HW1 9773   6.758  14.671   8.518
69333SOL    HW2 9774   6.676  14.749   8.619
69334SOL     OW 9775   4.944   6.837   0.780
69334SOL    HW1 9776   4.912   6.758   0.823
69334SOL    HW2 9777   4.867   6.872   0.735
69335SOL     OW 9778   3.405   8.662  10.880
69335SOL    HW1 9779   3.327   8.622  10.918
69335SOL    HW2 9780   3.399   8.641  10.786
69336SOL     OW 9781   0.875   4.463  13.572
69336SOL    HW1 9782   0.812   4.399  13.605
69336SOL    HW2 9783   0.831   4.548  13.583
69337SOL     OW 9784  14.289   1.623   9.202
69337SOL    HW1 9785  14.266   1.652   9.290
69337SOL    HW2 9786  14.210   1.578   9.171
69338SOL     OW 9787   8.527  10.279   4.015
69338SOL    HW1 9788   8.575  10.360   3.999
69338SOL    HW2 9789   8.570  10.214   3.960
69339SOL     OW 9790   3.171   4.263   6.627
69339SOL    HW1 9791   3.232   4.210   6.678
69339SOL    HW2 9792   3.140   4.330   6.688
69340SOL     OW 9793   4.856  12.791   1.162
69340SOL    HW1 9794   4.913  12.752   1.228
69340SOL    HW2 9795   4.897  12.875   1.141
69341SOL     OW 9796  12.709   1.958   2.995
69341SOL    HW1 9797  12.759   1.997   2.923
69341SOL    HW2 9798  12.702   1.865   2.972
69342SOL     OW 9799   6.173   9.252   0.699
69342SOL    HW1 9800   6.227   9.321   0.737
69342SOL    HW2 9801   6.086   9.266   0.736
69343SOL     OW 9802  11.504   1.436  10.728
69343SOL    HW1 9803  11.490   1.529  10.712
69343SOL    HW2 9804  11.599   1.425  10.724
69344SOL     OW 9805  10.332   7.057   5.409
69344SOL    HW1 9806  10.253   7.017   5.445
69344SOL    HW2 9807  10.404   7.018   5.458
69345SOL     OW 9808   1.099  14.862  10.427
69345SOL    HW1 9809   1.121  14.793  10.364
69345SOL    HW2 9810   1.176  14.866  10.485
69346SOL     OW 9811   0.005   7.091   4.008
69346SOL    HW1 9812   0.056   7.073   3.930
69346SOL    HW2 9813   0.066   7.132   4.069
69347SOL     OW 9814  12.637   9.311  13.342
69347SOL    HW1 9815  12.618   9.246  13.410
69347SOL    HW2 9816  12.707   9.271  13.291
69348SOL     OW 9817   1.011   2.007   9.161
69348SOL    HW1 9818   0.957   2.017   9.082
69348SOL    HW2 9819   0.954   1.961   9.223
69349SOL     OW 9820  13.942   0.395   0.685
69349SOL    HW1 9821  13.914   0.474   0.640
69349SOL    HW2 9822  14.036   0.407   0.699
69350SOL     OW 9823   1.343   6.014   1.846
69350SOL    HW1 9824   1.351   5.980   1.935
69350SOL    HW2 9825   1.320   6.106   1.857
69351SOL     OW 9826   5.679   4.224   6.797
69351SOL    HW1 9827   5.642   4.136   6.807
69351SOL    HW2 9828   5.657   4.249   6.707
69352SOL     OW 9829   7.269   8.772   2.985
69352SOL    HW1 9830   7.337   8.838   2.972
69352SOL    HW2 9831   7.308   8.710   3.047
69353SOL     OW 9832   5.963  14.667   5.282
69353SOL    HW1 9833   6.004  14.752   5.296
69353SOL    HW2 9834   5.876  14.676   5.319
69354SOL     OW 9835   7.768  10.121  13.864
69354SOL    HW1 9836   7.815  10.040  13.885
69354SOL    HW2 9837   7.730  10.105  13.778
69355SOL     OW 9838  13.349   0.704   3.040
69355SOL    HW1 9839  13.253   0.703   3.037
69355SOL    HW2 9840  13.370   0.751   3.121
69356SOL     OW 9841   6.157   9.721  12.462
69356SOL    HW1 9842   6.084   9.772  12.426
69356SOL    HW2 9843   6.124   9.631  12.463
69357SOL     OW 9844   5.432   7.549   6.246
69357SOL    HW1 9845   5.486   7.626   6.263
69357SOL    HW2 9846   5.490   7.475   6.262
69358SOL     OW 9847   6.256   2.612  13.907
69358SOL    HW1 9848   6.208   2.541  13.863
69358SOL    HW2 9849   6.323   2.639  13.844
69359SOL     OW 9850  14.647   9.659   3.033
69359SOL    HW1 9851  14.642   9.742   3.082
69359SOL    HW2 9852  14.686   9.597   3.095
69360SOL     OW 9853   8.082  10.318   9.627
69360SOL    HW1 9854   7.994  10.354   9.618
69360SOL    HW2 9855   8.121  10.327   9.540
69361SOL     OW 9856  10.937   2.737   3.312
69361SOL    HW1 9857  10.981   2.798   3.370
69361SOL    HW2 9858  10.949   2.651   3.354
69362SOL     OW 9859   7.140   7.659   4.964
69362SOL    HW1 9860   7.143   7.634   5.056
69362SOL    HW2 9861   7.131   7.754   4.965
69363SOL     OW 9862   4.407   5.217  11.662
69363SOL    HW1 9863   4.411   5.198  11.756
69363SOL    HW2 9864   4.395   5.132  11.620
69364SOL     OW 9865   4.257   3.781  11.731
69364SOL    HW1 9866   4.230   3.724  11.659
69364SOL    HW2 9867   4.333   3.828  11.697
69365SOL     OW 9868  13.606   2.268  10.426
69365SOL    HW1 9869  13.598   2.354  10.468
69365SOL    HW2 9870  13.537   2.215  10.465
69366SOL     OW 9871  10.493  14.099   7.166
69366SOL    HW1 9872  10.464  14.009   7.179
69366SOL    HW2 9873  10.415  14.145   7.138
69367SOL     OW 9874   7.233   2.706   0.607
69367SOL    HW1 9875   7.217   2.634   0.669
69367SOL    HW2 9876   7.328   2.709   0.598
69368SOL     OW 9877   9.096   5.001  14.339
69368SOL    HW1 9878   9.099   4.937  14.410
69368SOL    HW2 9879   9.046   5.074  14.376
69369SOL     OW 9880   4.387  14.733  13.532
69369SOL    HW1 9881   4.476  14.746  13.501
69369SOL    HW2 9882   4.389  14.761  13.624
69370SOL     OW 9883   6.892  14.137   3.205
69370SOL    HW1 9884   6.817  14.195   3.219
69370SOL    HW2 9885   6.917  14.108   3.293
69371SOL     OW 9886  13.044   0.026   4.798
69371SOL    HW1 9887  13.001  14.839   4.741
69371SOL    HW2 9888  13.098   0.078   4.738
69372SOL     OW 9889  10.935   7.297  14.201
69372SOL    HW1 9890  10.962   7.221  14.252
69372SOL    HW2 9891  10.934   7.369  14.263
69373SOL     OW 9892   4.493  10.234   9.685
69373SOL    HW1 9893   4.433  10.231   9.611
69373SOL    HW2 9894   4.446  10.191   9.756
69374SOL     OW 9895  11.888   5.870   6.925
69374SOL    HW1 9896  11.858   5.857   6.835
69374SOL    HW2 9897  11.921   5.960   6.926
69375SOL     OW 9898   4.175   4.083   8.755
69375SOL    HW1 9899   4.217   4.079   8.841
69375SOL    HW2 9900   4.147   4.174   8.745
69376SOL     OW 9901   7.226  12.370   0.249
69376SOL    HW1 9902   7.134  12.380   0.274
69376SOL    HW2 9903   7.235  12.277   0.228
69377SOL     OW 9904   9.554   4.086   0.805
69377SOL    HW1 9905   9.500   4.039   0.869
69377SOL    HW2 9906   9.575   4.020   0.739
69378SOL     OW 9907  11.609  10.058  11.314
69378SOL    HW1 9908  11.640   9.973  11.282
69378SOL    HW2 9909  11.671  10.121  11.279
69379SOL     OW 9910   2.533   0.441  14.640
69379SOL    HW1 9911   2.451   0.471  14.600
69379SOL    HW2 9912   2.576   0.392  14.570
69380SOL     OW 9913  10.343   4.304   8.644
69380SOL    HW1 9914  10.251   4.282   8.659
69380SOL    HW2 9915  10.340   4.394   8.610
69381SOL     OW 9916  11.055   1.694  12.969
69381SOL    HW1 9917  11.036   1.650  12.885
69381SOL    HW2 9918  11.144   1.727  12.959
69382SOL     OW 9919   0.350  10.207   4.161
69382SOL    HW1 9920   0.434  10.171   4.133
69382SOL    HW2 9921   0.285  10.150   4.120
69383SOL     OW 9922   1.246   5.655   6.188
69383SOL    HW1 9923   1.207   5.713   6.253
69383SOL    HW2 9924   1.295   5.714   6.130
69384SOL     OW 9925   4.389  10.425   6.570
69384SOL    HW1 9926   4.306  10.402   6.611
69384SOL    HW2 9927   4.390  10.376   6.488
69385SOL     OW 9928  13.989   4.593  14.237
69385SOL    HW1 9929  14.047   4.625  14.168
69385SOL    HW2 9930  14.039   4.605  14.318
69386SOL     OW 9931   9.392   4.753   7.398
69386SOL    HW1 9932   9.371   4.842   7.425
69386SOL    HW2 9933   9.389   4.701   7.478
69387SOL     OW 9934  11.699   1.760   2.660
69387SOL    HW1 9935  11.767   1.728   2.720
69387SOL    HW2 9936  11.624   1.779   2.716
69388SOL     OW 9937  11.058  12.744  12.891
69388SOL    HW1 9938  11.121  12.689  12.844
69388SOL    HW2 9939  11.111  12.792  12.954
69389SOL     OW 9940   3.520   1.276   1.746
69389SOL    HW1 9941   3.507   1.253   1.654
69389SOL    HW2 9942   3.490   1.367   1.753
69390SOL     OW 9943   6.628   4.460   5.349
69390SOL    HW1 9944   6.682   4.395   5.394
69390SOL    HW2 9945   6.572   4.409   5.291
69391SOL     OW 9946   9.320  13.804   1.807
69391SOL    HW1 9947   9.317  13.900   1.803
69391SOL    HW2 9948   9.413  13.783   1.813
69392SOL     OW 9949   3.420   7.481   2.487
69392SOL    HW1 9950   3.500   7.472   2.540
69392SOL    HW2 9951   3.371   7.551   2.530
69393SOL     OW 9952   9.718  14.420   2.400
69393SOL    HW1 9953   9.794  14.403   2.345
69393SOL    HW2 9954   9.747  14.487   2.462
69394SOL     OW 9955   0.959  13.021   6.932
69394SOL    HW1 9956   0.892  13.039   6.998
69394SOL    HW2 9957   0.910  12.980   6.860
69395SOL     OW 9958   7.292   4.053   5.674
69395SOL    HW1 9959   7.291   4.090   5.762
69395SOL    HW2 9960   7.254   4.121   5.619
69396SOL     OW 9961   3.402   4.981   2.663
69396SOL    HW1 9962   3.429   5.054   2.720
69396SOL    HW2 9963   3.435   4.903   2.708
69397SOL     OW 9964   9.391   7.727   3.235
69397SOL    HW1 9965   9.359   7.743   3.147
69397SOL    HW2 9966   9.315   7.740   3.292
69398SOL     OW 9967   8.019   1.302  11.755
69398SOL    HW1 9968   8.001   1.300  11.848
69398SOL    HW2 9969   7.992   1.216  11.723
69399SOL     OW 9970  10.403   5.009   2.192
69399SOL    HW1 9971  10.350   4.979   2.266
69399SOL    HW2 9972  10.355   5.083   2.156
69400SOL     OW 9973   2.206   4.927   1.537
69400SOL    HW1 9974   2.126   4.878   1.518
69400SOL    HW2 9975   2.184   5.018   1.516
69401SOL     OW 9976   4.570   1.100   1.008
69401SOL    HW1 9977   4.595   1.017   1.048
69401SOL    HW2 9978   4.547   1.077   0.918
69402SOL     OW 9979   2.364   4.390  12.908
69402SOL    HW1 9980   2.295   4.402  12.973
69402SOL    HW2 9981   2.370   4.295  12.896
69403SOL     OW 9982  13.646  10.208   8.388
69403SOL    HW1 9983  13.648  10.132   8.331
69403SOL    HW2 9984  13.732  10.249   8.376
69404SOL     OW 9985   6.119   0.455   0.660
69404SOL    HW1 9986   6.038   0.501   0.684
69404SOL    HW2 9987   6.187   0.521   0.669
69405SOL     OW 9988   4.446  12.364   2.568
69405SOL    HW1 9989   4.380  12.323   2.624
69405SOL    HW2 9990   4.528  12.319   2.590
69406SOL     OW 9991  12.445  11.263   4.267
69406SOL    HW1 9992  12.430  11.304   4.182
69406SOL    HW2 9993  12.498  11.327   4.315
69407SOL     OW 9994   2.517  13.376  10.409
69407SOL    HW1 9995   2.579  13.365  10.481
69407SOL    HW2 9996   2.437  13.409  10.451
69408SOL     OW 9997  13.039   8.596   6.726
69408SOL    HW1 9998  13.073   8.518   6.681
69408SOL    HW2 9999  13.111   8.658   6.724
69409SOL     OW10000  11.696   7.756   1.232
69409SOL    HW110001  11.709   7.771   1.139
69409SOL    HW210002  11.778   7.717   1.262
69410SOL     OW10003  12.394   1.599   3.979
69410SOL    HW110004  12.337   1.636   4.046
69410SOL    HW210005  12.394   1.665   3.909
69411SOL     OW10006   6.051   1.075  10.188
69411SOL    HW110007   6.129   1.062  10.242
69411SOL    HW210008   5.978   1.056  10.246
69412SOL     OW10009   5.238  14.201   8.958
69412SOL    HW110010   5.173  14.242   8.900
69412SOL    HW210011   5.297  14.155   8.898
69413SOL     OW10012   6.138  12.662   9.277
69413SOL    HW110013   6.088  12.716   9.217
69413SOL    HW210014   6.095  12.672   9.361
69414SOL     OW10015   6.682  11.746  10.627
69414SOL    HW110016   6.751  11.783  10.681
69414SOL    HW210017   6.728  11.705  10.553
69415SOL     OW10018   4.591   4.680  11.634
69415SOL    HW110019   4.565   4.718  11.717
69415SOL    HW210020   4.652   4.743  11.596
69416SOL     OW10021  11.427   4.278  13.490
69416SOL    HW110022  11.495   4.311  13.433
69416SOL    HW210023  11.352   4.262  13.432
69417SOL     OW10024   5.118   3.509  13.734
69417SOL    HW110025   5.189   3.472  13.681
69417SOL    HW210026   5.056   3.437  13.744
69418SOL     OW10027   9.754   7.502   2.629
69418SOL    HW110028   9.702   7.428   2.597
69418SOL    HW210029   9.797   7.537   2.551
69419SOL     OW10030   9.193   2.019   3.844
69419SOL    HW110031   9.220   1.970   3.766
69419SOL    HW210032   9.165   1.952   3.906
69420SOL     OW10033   7.040   6.460  12.067
69420SOL    HW110034   6.946   6.449  12.053
69420SOL    HW210035   7.066   6.384  12.119
69421SOL     OW10036   3.130   3.595  14.009
69421SOL    HW110037   3.050   3.542  14.012
69421SOL    HW210038   3.157   3.591  13.917
69422SOL     OW10039  13.754  13.101   6.633
69422SOL    HW110040  13.813  13.168   6.667
69422SOL    HW210041  13.748  13.119   6.539
69423SOL     OW10042   1.138  14.046   2.011
69423SOL    HW110043   1.161  13.959   2.043
69423SOL    HW210044   1.096  14.089   2.087
69424SOL     OW10045   6.393   2.338  10.104
69424SOL    HW110046   6.446   2.280  10.158
69424SOL    HW210047   6.320   2.363  10.161
69425SOL     OW10048   8.381  12.596  14.676
69425SOL    HW110049   8.346  12.512  14.649
69425SOL    HW210050   8.347  12.658  14.611
69426SOL     OW10051  12.245   4.215   7.474
69426SOL    HW110052  12.208   4.141   7.427
69426SOL    HW210053  12.248   4.187   7.565
69427SOL     OW10054   6.227  11.525  11.280
69427SOL    HW110055   6.243  11.462  11.351
69427SOL    HW210056   6.201  11.605  11.325
69428SOL     OW10057  13.419  13.909  12.760
69428SOL    HW110058  13.403  13.843  12.827
69428SOL    HW210059  13.473  13.975  12.803
69429SOL     OW10060   6.564   6.881  14.872
69429SOL    HW110061   6.610   6.932  14.805
69429SOL    HW210062   6.480   6.926   0.005
69430SOL     OW10063  12.963   1.559   1.154
69430SOL    HW110064  13.030   1.538   1.219
69430SOL    HW210065  13.012   1.577   1.074
69431SOL     OW10066  12.338  11.869  11.114
69431SOL    HW110067  12.408  11.856  11.050
69431SOL    HW210068  12.285  11.939  11.077
69432SOL     OW10069   2.697   6.138  10.020
69432SOL    HW110070   2.721   6.203   9.954
69432SOL    HW210071   2.779   6.119  10.066
69433SOL     OW10072  13.251   6.778   5.162
69433SOL    HW110073  13.279   6.818   5.080
69433SOL    HW210074  13.280   6.687   5.157
69434SOL     OW10075   7.003  11.035   4.808
69434SOL    HW110076   6.995  10.983   4.889
69434SOL    HW210077   7.095  11.027   4.783
69435SOL     OW10078  10.779   4.600  11.094
69435SOL    HW110079  10.711   4.581  11.029
69435SOL    HW210080  10.832   4.669  11.054
69436SOL     OW10081   3.274   8.720   6.609
69436SOL    HW110082   3.203   8.701   6.548
69436SOL    HW210083   3.352   8.684   6.568
69437SOL     OW10084   9.409   9.328  12.824
69437SOL    HW110085   9.467   9.332  12.748
69437SOL    HW210086   9.463   9.290  12.894
69438SOL     OW10087  11.910   1.980   8.377
69438SOL    HW110088  11.843   1.918   8.350
69438SOL    HW210089  11.926   2.033   8.299
69439SOL     OW10090   6.949   7.619  14.071
69439SOL    HW110091   6.915   7.702  14.103
69439SOL    HW210092   6.954   7.563  14.149
69440SOL     OW10093   3.999  11.961   9.826
69440SOL    HW110094   3.944  11.897   9.872
69440SOL    HW210095   4.036  12.015   9.896
69441SOL     OW10096  14.444  11.113   8.965
69441SOL    HW110097  14.394  11.033   8.980
69441SOL    HW210098  14.403  11.178   9.021
69442SOL     OW10099  12.747   0.946   8.048
69442SOL    HW110100  12.672   0.896   8.080
69442SOL    HW210101  12.816   0.927   8.112
69443SOL     OW10102  11.572   5.442  14.586
69443SOL    HW110103  11.570   5.358  14.631
69443SOL    HW210104  11.546   5.421  14.496
69444SOL     OW10105  10.596  10.627   2.852
69444SOL    HW110106  10.592  10.590   2.764
69444SOL    HW210107  10.684  10.663   2.858
69445SOL     OW10108   8.414   4.962  13.609
69445SOL    HW110109   8.357   5.033  13.640
69445SOL    HW210110   8.366   4.882  13.631
69446SOL     OW10111   8.116   7.497  13.318
69446SOL    HW110112   8.072   7.464  13.397
69446SOL    HW210113   8.208   7.503  13.343
69447SOL     OW10114   1.368   5.234   0.947
69447SOL    HW110115   1.316   5.295   0.895
69447SOL    HW210116   1.442   5.285   0.978
69448SOL     OW10117   3.236   0.476   5.158
69448SOL    HW110118   3.311   0.427   5.123
69448SOL    HW210119   3.164   0.413   5.158
69449SOL     OW10120  12.873   1.856   3.763
69449SOL    HW110121  12.900   1.863   3.854
69449SOL    HW210122  12.779   1.836   3.768
69450SOL     OW10123   4.123   4.358   0.842
69450SOL    HW110124   4.094   4.412   0.915
69450SOL    HW210125   4.180   4.416   0.791
69451SOL     OW10126   7.195  13.153   8.154
69451SOL    HW110127   7.164  13.063   8.140
69451SOL    HW210128   7.181  13.169   8.247
69452SOL     OW10129   6.170   6.627   2.640
69452SOL    HW110130   6.193   6.660   2.727
69452SOL    HW210131   6.255   6.616   2.596
69453SOL     OW10132   5.408  14.254   0.544
69453SOL    HW110133   5.368  14.302   0.471
69453SOL    HW210134   5.334  14.227   0.599
69454SOL     OW10135   9.268   2.598  12.639
69454SOL    HW110136   9.314   2.604  12.723
69454SOL    HW210137   9.286   2.510  12.607
69455SOL     OW10138   3.672   8.145  14.452
69455SOL    HW110139   3.736   8.077  14.431
69455SOL    HW210140   3.643   8.179  14.367
69456SOL     OW10141   5.032   2.655   4.022
69456SOL    HW110142   5.061   2.571   4.058
69456SOL    HW210143   5.050   2.718   4.091
69457SOL     OW10144   3.911   4.789  14.254
69457SOL    HW110145   3.931   4.740  14.174
69457SOL    HW210146   3.892   4.878  14.223
69458SOL     OW10147   3.422   9.357  13.364
69458SOL    HW110148   3.340   9.317  13.392
69458SOL    HW210149   3.482   9.342  13.437
69459SOL     OW10150  11.781   9.435   0.478
69459SOL    HW110151  11.724   9.473   0.411
69459SOL    HW210152  11.858   9.492   0.478
69460SOL     OW10153  11.548  13.763   0.320
69460SOL    HW110154  11.589  13.843   0.288
69460SOL    HW210155  11.464  13.793   0.356
69461SOL     OW10156   1.032  14.578  10.535
69461SOL    HW110157   0.953  14.633  10.537
69461SOL    HW210158   1.033  14.534  10.619
69462SOL     OW10159   6.087   8.562   4.974
69462SOL    HW110160   5.993   8.552   4.991
69462SOL    HW210161   6.093   8.570   4.879
69463SOL     OW10162   0.737   0.535   2.039
69463SOL    HW110163   0.745   0.493   1.953
69463SOL    HW210164   0.801   0.606   2.037
69464SOL     OW10165   2.569   6.323   6.624
69464SOL    HW110166   2.633   6.316   6.695
69464SOL    HW210167   2.485   6.334   6.668
69465SOL     OW10168  14.118   0.345  10.284
69465SOL    HW110169  14.109   0.305  10.197
69465SOL    HW210170  14.048   0.409  10.288
69466SOL     OW10171  14.556  14.856   8.580
69466SOL    HW110172  14.487   0.042   8.600
69466SOL    HW210173  14.509  14.773   8.568
69467SOL     OW10174   8.536   2.122  13.325
69467SOL    HW110175   8.570   2.211  13.326
69467SOL    HW210176   8.535   2.097  13.233
69468SOL     OW10177   3.613   0.771  11.410
69468SOL    HW110178   3.707   0.759  11.398
69468SOL    HW210179   3.588   0.835  11.344
69469SOL     OW10180   5.663  13.165   3.522
69469SOL    HW110181   5.677  13.138   3.613
69469SOL    HW210182   5.691  13.257   3.521
69470SOL     OW10183   8.339  14.148   9.427
69470SOL    HW110184   8.341  14.054   9.410
69470SOL    HW210185   8.251  14.165   9.461
69471SOL     OW10186  11.772   1.484   0.468
69471SOL    HW110187  11.866   1.469   0.478
69471SOL    HW210188  11.742   1.507   0.556
69472SOL     OW10189   5.413   9.899   2.428
69472SOL    HW110190   5.345   9.832   2.417
69472SOL    HW210191   5.368   9.982   2.410
69473SOL     OW10192   9.479   3.222   0.046
69473SOL    HW110193   9.390   3.243   0.018
69473SOL    HW210194   9.524   3.195  14.843
69474SOL     OW10195  14.538  13.638   4.066
69474SOL    HW110196  14.584  13.720   4.049
69474SOL    HW210197  14.486  13.655   4.144
69475SOL     OW10198  13.667   2.001   8.058
69475SOL    HW110199  13.692   2.019   8.148
69475SOL    HW210200  13.741   2.031   8.005
69476SOL     OW10201   8.755   8.595  13.390
69476SOL    HW110202   8.801   8.600  13.306
69476SOL    HW210203   8.730   8.686  13.409
69477SOL     OW10204  12.330  14.463   4.884
69477SOL    HW110205  12.247  14.467   4.837
69477SOL    HW210206  12.322  14.528   4.954
69478SOL     OW10207   0.484  11.918   1.733
69478SOL    HW110208   0.415  11.853   1.718
69478SOL    HW210209   0.461  11.957   1.817
69479SOL     OW10210  12.934  13.384   7.251
69479SOL    HW110211  12.981  13.461   7.220
69479SOL    HW210212  12.849  13.417   7.279
69480SOL     OW10213  10.054   5.019   1.218
69480SOL    HW110214   9.990   4.955   1.186
69480SOL    HW210215  10.003   5.099   1.229
69481SOL     OW10216  13.402   2.564   7.427
69481SOL    HW110217  13.488   2.578   7.467
69481SOL    HW210218  13.411   2.598   7.338
69482SOL     OW10219   5.976  14.413   1.305
69482SOL    HW110220   5.953  14.456   1.223
69482SOL    HW210221   5.907  14.347   1.318
69483SOL     OW10222   7.996   6.873  10.593
69483SOL    HW110223   8.029   6.873  10.503
69483SOL    HW210224   7.974   6.964  10.611
69484SOL     OW10225   5.791   1.419  11.433
69484SOL    HW110226   5.858   1.459  11.377
69484SOL    HW210227   5.742   1.362  11.375
69485SOL     OW10228   5.487  14.575  11.968
69485SOL    HW110229   5.458  14.516  11.898
69485SOL    HW210230   5.575  14.602  11.942
69486SOL     OW10231  11.950   2.258   6.060
69486SOL    HW110232  11.916   2.240   6.147
69486SOL    HW210233  11.931   2.178   6.009
69487SOL     OW10234   3.707   0.648  10.487
69487SOL    HW110235   3.796   0.630  10.517
69487SOL    HW210236   3.660   0.672  10.567
69488SOL     OW10237   7.177   5.485   9.371
69488SOL    HW110238   7.086   5.485   9.342
69488SOL    HW210239   7.227   5.508   9.293
69489SOL     OW10240   2.810   7.738  11.727
69489SOL    HW110241   2.792   7.820  11.773
69489SOL    HW210242   2.724   7.697  11.716
69490SOL     OW10243   8.446  13.131  13.061
69490SOL    HW110244   8.383  13.064  13.036
69490SOL    HW210245   8.395  13.197  13.107
69491SOL     OW10246  13.199   9.330   5.133
69491SOL    HW110247  13.223   9.418   5.164
69491SOL    HW210248  13.209   9.334   5.038
69492SOL     OW10249   6.267  12.538   1.302
69492SOL    HW110250   6.339  12.488   1.265
69492SOL    HW210251   6.306  12.588   1.373
69493SOL     OW10252  10.770  11.009   4.877
69493SOL    HW110253  10.826  10.954   4.932
69493SOL    HW210254  10.683  11.000   4.914
69494SOL     OW10255   1.285   4.097   6.303
69494SOL    HW110256   1.217   4.117   6.367
69494SOL    HW210257   1.271   4.005   6.280
69495SOL     OW10258   5.684   4.021   9.608
69495SOL    HW110259   5.664   3.935   9.645
69495SOL    HW210260   5.773   4.040   9.639
69496SOL     OW10261  10.377  13.001  11.631
69496SOL    HW110262  10.451  13.061  11.635
69496SOL    HW210263  10.375  12.971  11.540
69497SOL     OW10264  14.568   9.948  14.191
69497SOL    HW110265  14.562   9.984  14.279
69497SOL    HW210266  14.479   9.955  14.156
69498SOL     OW10267   1.742  13.921   6.556
69498SOL    HW110268   1.732  13.859   6.484
69498SOL    HW210269   1.804  13.986   6.525
69499SOL     OW10270   3.288   7.509  12.369
69499SOL    HW110271   3.198   7.508  12.338
69499SOL    HW210272   3.336   7.559  12.303
69500SOL     OW10273   7.171   1.232   4.631
69500SOL    HW110274   7.115   1.271   4.698
69500SOL    HW210275   7.178   1.299   4.563
69501SOL     OW10276  14.650   3.483   8.062
69501SOL    HW110277  14.660   3.499   8.156
69501SOL    HW210278  14.590   3.553   8.033
69502SOL     OW10279   7.940   7.300   5.596
69502SOL    HW110280   7.914   7.385   5.560
69502SOL    HW210281   7.900   7.298   5.683
69503SOL     OW10282   0.732  14.029   5.713
69503SOL    HW110283   0.812  14.026   5.661
69503SOL    HW210284   0.748  13.969   5.786
69504SOL     OW10285   3.793  14.374  13.478
69504SOL    HW110286   3.860  14.383  13.411
69504SOL    HW210287   3.712  14.405  13.436
69505SOL     OW10288   0.364   7.514   5.690
69505SOL    HW110289   0.386   7.606   5.676
69505SOL    HW210290   0.385   7.499   5.783
69506SOL     OW10291   3.891   2.644   3.375
69506SOL    HW110292   3.868   2.734   3.396
69506SOL    HW210293   3.984   2.647   3.351
69507SOL     OW10294   1.587   2.438  10.382
69507SOL    HW110295   1.611   2.345  10.381
69507SOL    HW210296   1.532   2.449  10.304
69508SOL     OW10297   1.643   8.815   8.251
69508SOL    HW110298   1.714   8.851   8.198
69508SOL    HW210299   1.595   8.891   8.283
69509SOL     OW10300   9.504   0.906  12.476
69509SOL    HW110301   9.491   0.998  12.496
69509SOL    HW210302   9.580   0.904  12.417
69510SOL     OW10303  12.255   9.512   3.459
69510SOL    HW110304  12.179   9.456   3.478
69510SOL    HW210305  12.306   9.510   3.540
69511SOL     OW10306   6.362   2.057  14.120
69511SOL    HW110307   6.348   2.132  14.063
69511SOL    HW210308   6.302   2.069  14.192
69512SOL     OW10309  12.675   3.319   2.821
69512SOL    HW110310  12.644   3.363   2.742
69512SOL    HW210311  12.634   3.367   2.893
69513SOL     OW10312   8.234  14.617   4.639
69513SOL    HW110313   8.252  14.645   4.549
69513SOL    HW210314   8.161  14.556   4.631
69514SOL     OW10315   8.966   5.423   4.810
69514SOL    HW110316   8.894   5.362   4.794
69514SOL    HW210317   8.948   5.498   4.753
69515SOL     OW10318   6.277  12.813   4.723
69515SOL    HW110319   6.310  12.727   4.696
69515SOL    HW210320   6.282  12.812   4.818
69516SOL     OW10321   3.409   0.886   2.219
69516SOL    HW110322   3.364   0.968   2.243
69516SOL    HW210323   3.400   0.830   2.296
69517SOL     OW10324   5.009   0.175  13.066
69517SOL    HW110325   5.062   0.208  13.139
69517SOL    HW210326   4.941   0.123  13.109
69518SOL     OW10327  12.038   4.581  12.800
69518SOL    HW110328  12.130   4.603  12.814
69518SOL    HW210329  12.018   4.516  12.866
69519SOL     OW10330   7.592   2.793   8.125
69519SOL    HW110331   7.649   2.869   8.114
69519SOL    HW210332   7.554   2.804   8.213
69520SOL     OW10333   2.069  10.838  14.499
69520SOL    HW110334   2.071  10.842  14.595
69520SOL    HW210335   1.977  10.846  14.476
69521SOL     OW10336   6.809   0.338   4.714
69521SOL    HW110337   6.747   0.266   4.706
69521SOL    HW210338   6.807   0.381   4.628
69522SOL     OW10339   9.953  13.469   6.874
69522SOL    HW110340   9.866  13.507   6.877
69522SOL    HW210341   9.965  13.428   6.960
69523SOL     OW10342  14.715   9.069   0.359
69523SOL    HW110343  14.735   9.011   0.432
69523SOL    HW210344  14.767   9.148   0.376
69524SOL     OW10345  10.306   0.342   1.496
69524SOL    HW110346  10.237   0.358   1.561
69524SOL    HW210347  10.265   0.364   1.413
69525SOL     OW10348   5.451   5.871   8.250
69525SOL    HW110349   5.525   5.922   8.217
69525SOL    HW210350   5.490   5.808   8.310
69526SOL     OW10351   5.844   4.488  13.923
69526SOL    HW110352   5.790   4.537  13.861
69526SOL    HW210353   5.915   4.548  13.946
69527SOL     OW10354   6.708  10.851  14.671
69527SOL    HW110355   6.659  10.914  14.724
69527SOL    HW210356   6.703  10.886  14.582
69528SOL     OW10357   2.379   8.900   5.785
69528SOL    HW110358   2.372   8.993   5.805
69528SOL    HW210359   2.338   8.891   5.699
69529SOL     OW10360  14.854  10.191  11.051
69529SOL    HW110361   0.015  10.279  11.049
69529SOL    HW210362  14.765  10.205  11.083
69530SOL     OW10363   7.007  14.732  13.266
69530SOL    HW110364   6.999  14.679  13.345
69530SOL    HW210365   6.955  14.686  13.200
69531SOL     OW10366  14.655  12.364   5.195
69531SOL    HW110367  14.750  12.374   5.193
69531SOL    HW210368  14.637  12.324   5.280
69532SOL     OW10369  11.192   0.174   7.280
69532SOL    HW110370  11.150   0.252   7.244
69532SOL    HW210371  11.165   0.173   7.372
69533SOL     OW10372   1.022   3.165  10.686
69533SOL    HW110373   1.067   3.192  10.606
69533SOL    HW210374   0.958   3.100  10.657
69534SOL     OW10375   9.746   4.030  10.191
69534SOL    HW110376   9.828   4.029  10.241
69534SOL    HW210377   9.749   4.113  10.143
69535SOL     OW10378  10.645   6.909  13.182
69535SOL    HW110379  10.642   6.825  13.137
69535SOL    HW210380  10.555   6.941  13.181
69536SOL     OW10381   8.027   1.230   4.953
69536SOL    HW110382   8.080   1.157   4.920
69536SOL    HW210383   8.007   1.205   5.043
69537SOL     OW10384   0.194  13.961   1.851
69537SOL    HW110385   0.288  13.945   1.862
69537SOL    HW210386   0.187  14.051   1.821
69538SOL     OW10387   4.312   7.351   4.944
69538SOL    HW110388   4.245   7.326   4.881
69538SOL    HW210389   4.303   7.446   4.951
69539SOL     OW10390   2.554   1.862   6.424
69539SOL    HW110391   2.538   1.786   6.368
69539SOL    HW210392   2.475   1.916   6.414
69540SOL     OW10393   7.597   0.193  14.761
69540SOL    HW110394   7.584   0.287  14.753
69540SOL    HW210395   7.545   0.155  14.690
69541SOL     OW10396  13.772   6.338  12.684
69541SOL    HW110397  13.762   6.282  12.761
69541SOL    HW210398  13.819   6.415  12.716
69542SOL     OW10399   9.283   8.447   1.319
69542SOL    HW110400   9.244   8.405   1.396
69542SOL    HW210401   9.239   8.532   1.314
69543SOL     OW10402   2.380   4.713  12.312
69543SOL    HW110403   2.317   4.785  12.313
69543SOL    HW210404   2.363   4.667  12.230
69544SOL     OW10405   6.395   4.089   7.881
69544SOL    HW110406   6.459   4.161   7.889
69544SOL    HW210407   6.380   4.080   7.787
69545SOL     OW10408  14.260   2.832  11.948
69545SOL    HW110409  14.172   2.857  11.975
69545SOL    HW210410  14.248   2.757  11.891
69546SOL     OW10411  12.651  12.988   4.962
69546SOL    HW110412  12.662  12.994   4.867
69546SOL    HW210413  12.655  12.894   4.982
69547SOL     OW10414   0.683  11.412   2.513
69547SOL    HW110415   0.721  11.324   2.516
69547SOL    HW210416   0.619  11.413   2.584
69548SOL     OW10417   7.656  12.214   8.753
69548SOL    HW110418   7.630  12.237   8.664
69548SOL    HW210419   7.574  12.188   8.796
69549SOL     OW10420  11.554   2.312   3.045
69549SOL    HW110421  11.592   2.253   3.110
69549SOL    HW210422  11.624   2.374   3.024
69550SOL     OW10423   7.881   6.506   3.643
69550SOL    HW110424   7.807   6.566   3.634
69550SOL    HW210425   7.841   6.422   3.663
69551SOL     OW10426   3.062   6.623  11.485
69551SOL    HW110427   3.101   6.559  11.426
69551SOL    HW210428   3.022   6.688  11.426
69552SOL     OW10429  12.333  12.137   3.880
69552SOL    HW110430  12.287  12.215   3.849
69552SOL    HW210431  12.348  12.085   3.802
69553SOL     OW10432   5.806  12.904  10.225
69553SOL    HW110433   5.719  12.938  10.245
69553SOL    HW210434   5.817  12.920  10.132
69554SOL     OW10435  13.040   4.208   3.211
69554SOL    HW110436  12.959   4.160   3.196
69554SOL    HW210437  13.013   4.300   3.217
69555SOL     OW10438   3.149   7.569   9.976
69555SOL    HW110439   3.125   7.662   9.982
69555SOL    HW210440   3.121   7.532  10.059
69556SOL     OW10441  12.204   4.454   8.453
69556SOL    HW110442  12.134   4.400   8.416
69556SOL    HW210443  12.259   4.476   8.378
69557SOL     OW10444   3.635  14.279   0.492
69557SOL    HW110445   3.563  14.253   0.435
69557SOL    HW210446   3.710  14.229   0.460
69558SOL     OW10447   5.426  10.434   8.347
69558SOL    HW110448   5.431  10.430   8.251
69558SOL    HW210449   5.388  10.350   8.373
69559SOL     OW10450   5.826   1.629  13.564
69559SOL    HW110451   5.732   1.640  13.581
69559SOL    HW210452   5.839   1.535  13.561
69560SOL     OW10453   8.682   2.337   4.654
69560SOL    HW110454   8.680   2.309   4.563
69560SOL    HW210455   8.771   2.369   4.667
69561SOL     OW10456   6.577  10.391   2.711
69561SOL    HW110457   6.521  10.317   2.737
69561SOL    HW210458   6.662  10.372   2.751
69562SOL     OW10459   5.399  10.305   2.972
69562SOL    HW110460   5.357  10.219   2.974
69562SOL    HW210461   5.409  10.329   3.064
69563SOL     OW10462   5.101   7.915   6.738
69563SOL    HW110463   5.139   7.871   6.662
69563SOL    HW210464   5.158   7.891   6.811
69564SOL     OW10465   1.412  11.630  12.631
69564SOL    HW110466   1.364  11.689  12.689
69564SOL    HW210467   1.401  11.669  12.544
69565SOL     OW10468  14.054   2.706   6.013
69565SOL    HW110469  13.999   2.720   5.935
69565SOL    HW210470  14.143   2.705   5.979
69566SOL     OW10471  12.918   4.376   9.791
69566SOL    HW110472  12.984   4.411   9.733
69566SOL    HW210473  12.873   4.453   9.826
69567SOL     OW10474   0.938   1.133  11.989
69567SOL    HW110475   0.985   1.051  11.976
69567SOL    HW210476   0.866   1.130  11.926
69568SOL     OW10477   4.991  12.204   8.637
69568SOL    HW110478   5.053  12.201   8.709
69568SOL    HW210479   4.907  12.181   8.677
69569SOL     OW10480   5.712   5.801  12.413
69569SOL    HW110481   5.722   5.888  12.376
69569SOL    HW210482   5.618   5.783  12.409
69570SOL     OW10483  13.410   5.138   5.317
69570SOL    HW110484  13.409   5.132   5.221
69570SOL    HW210485  13.318   5.130   5.342
69571SOL     OW10486   3.749   0.435  11.235
69571SOL    HW110487   3.774   0.372  11.303
69571SOL    HW210488   3.662   0.466  11.262
69572SOL     OW10489   6.202   8.427   4.238
69572SOL    HW110490   6.121   8.410   4.287
69572SOL    HW210491   6.175   8.484   4.167
69573SOL     OW10492  11.500   8.860   7.642
69573SOL    HW110493  11.471   8.941   7.600
69573SOL    HW210494  11.480   8.792   7.578
69574SOL     OW10495   4.020   4.592   4.279
69574SOL    HW110496   3.977   4.566   4.198
69574SOL    HW210497   3.949   4.595   4.344
69575SOL     OW10498   7.840   3.176   1.287
69575SOL    HW110499   7.823   3.117   1.214
69575SOL    HW210500   7.755   3.217   1.305
69576SOL     OW10501  13.452  10.666   5.676
69576SOL    HW110502  13.478  10.758   5.676
69576SOL    HW210503  13.462  10.638   5.767
69577SOL     OW10504   0.879   0.878   9.732
69577SOL    HW110505   0.917   0.794   9.756
69577SOL    HW210506   0.885   0.931   9.812
69578SOL     OW10507  10.514   1.197   4.591
69578SOL    HW110508  10.452   1.125   4.589
69578SOL    HW210509  10.592   1.163   4.547
69579SOL     OW10510   9.552  13.037   5.964
69579SOL    HW110511   9.600  13.111   6.003
69579SOL    HW210512   9.498  13.077   5.895
69580SOL     OW10513   7.013   3.503   2.884
69580SOL    HW110514   6.968   3.426   2.848
69580SOL    HW210515   7.105   3.487   2.866
69581SOL     OW10516  12.322   4.853   5.508
69581SOL    HW110517  12.385   4.781   5.501
69581SOL    HW210518  12.360   4.923   5.455
69582SOL     OW10519   5.107   5.818   3.546
69582SOL    HW110520   5.143   5.748   3.601
69582SOL    HW210521   5.098   5.893   3.604
69583SOL     OW10522  12.003  13.109   3.015
69583SOL    HW110523  12.010  13.033   3.072
69583SOL    HW210524  11.948  13.171   3.064
69584SOL     OW10525  12.332   3.563   7.614
69584SOL    HW110526  12.412   3.561   7.665
69584SOL    HW210527  12.296   3.474   7.623
69585SOL     OW10528   0.515   8.939  10.039
69585SOL    HW110529   0.438   8.961   9.988
69585SOL    HW210530   0.492   8.965  10.129
69586SOL     OW10531  12.857   5.892   4.267
69586SOL    HW110532  12.845   5.804   4.232
69586SOL    HW210533  12.827   5.950   4.197
69587SOL     OW10534   2.887  10.707   6.395
69587SOL    HW110535   2.841  10.790   6.407
69587SOL    HW210536   2.839  10.646   6.451
69588SOL     OW10537   0.380  14.245   5.934
69588SOL    HW110538   0.393  14.176   5.999
69588SOL    HW210539   0.345  14.199   5.858
69589SOL     OW10540   8.909   4.512   2.144
69589SOL    HW110541   9.000   4.490   2.125
69589SOL    HW210542   8.885   4.574   2.076
69590SOL     OW10543   3.114   8.467   4.560
69590SOL    HW110544   3.043   8.448   4.621
69590SOL    HW210545   3.191   8.481   4.615
69591SOL     OW10546   3.480   5.048   9.097
69591SOL    HW110547   3.469   4.956   9.120
69591SOL    HW210548   3.560   5.050   9.044
69592SOL     OW10549  14.512   2.532  11.400
69592SOL    HW110550  14.503   2.587  11.478
69592SOL    HW210551  14.592   2.564  11.358
69593SOL     OW10552   6.780   7.442   8.824
69593SOL    HW110553   6.815   7.508   8.764
69593SOL    HW210554   6.856   7.391   8.850
69594SOL     OW10555   1.445   9.971   6.265
69594SOL    HW110556   1.370   9.957   6.207
69594SOL    HW210557   1.407  10.001   6.347
69595SOL     OW10558   7.436  12.404   2.525
69595SOL    HW110559   7.476  12.489   2.508
69595SOL    HW210560   7.389  12.383   2.444
69596SOL     OW10561  13.151   2.164   3.240
69596SOL    HW110562  13.189   2.158   3.153
69596SOL    HW210563  13.083   2.096   3.241
69597SOL     OW10564  14.859   7.644   7.216
69597SOL    HW110565   0.006   7.674   7.304
69597SOL    HW210566  14.853   7.549   7.224
69598SOL     OW10567   2.957   7.224  13.171
69598SOL    HW110568   2.877   7.248  13.124
69598SOL    HW210569   2.931   7.154  13.230
69599SOL     OW10570   9.229   3.548   7.494
69599SOL    HW110571   9.240   3.576   7.403
69599SOL    HW210572   9.204   3.628   7.540
69600SOL     OW10573  13.731  14.824   5.230
69600SOL    HW110574  13.683  14.747   5.201
69600SOL    HW210575  13.680   0.021   5.198
69601SOL     OW10576   1.719  11.575   2.941
69601SOL    HW110577   1.811  11.576   2.965
69601SOL    HW210578   1.680  11.648   2.989
69602SOL     OW10579  11.943   1.773   1.910
69602SOL    HW110580  11.884   1.754   1.983
69602SOL    HW210581  11.932   1.867   1.895
69603SOL     OW10582   0.688   7.173   8.001
69603SOL    HW110583   0.729   7.236   7.941
69603SOL    HW210584   0.741   7.178   8.080
69604SOL     OW10585   7.807   6.089   1.122
69604SOL    HW110586   7.715   6.084   1.150
69604SOL    HW210587   7.825   6.004   1.083
69605SOL     OW10588   0.650   4.345  11.544
69605SOL    HW110589   0.574   4.364  11.489
69605SOL    HW210590   0.653   4.249  11.549
69606SOL     OW10591   7.272   8.444  11.181
69606SOL    HW110592   7.210   8.506  11.144
69606SOL    HW210593   7.246   8.359  11.146
69607SOL     OW10594   4.076   2.898   8.244
69607SOL    HW110595   4.046   2.983   8.211
69607SOL    HW210596   4.150   2.920   8.302
69608SOL     OW10597  11.326   0.434  10.062
69608SOL    HW110598  11.341   0.443   9.968
69608SOL    HW210599  11.248   0.487  10.079
69609SOL     OW10600  11.948   4.700   6.190
69609SOL    HW110601  11.949   4.691   6.094
69609SOL    HW210602  11.862   4.736   6.210
69610SOL     OW10603   6.615   3.773  12.898
69610SOL    HW110604   6.684   3.807  12.842
69610SOL    HW210605   6.543   3.835  12.887
69611SOL     OW10606  13.639   1.661   0.923
69611SOL    HW110607  13.651   1.655   1.018
69611SOL    HW210608  13.670   1.577   0.889
69612SOL     OW10609  11.580   8.116  12.798
69612SOL    HW110610  11.493   8.077  12.790
69612SOL    HW210611  11.596   8.120  12.892
69613SOL     OW10612   5.428   8.581   0.987
69613SOL    HW110613   5.366   8.538   1.046
69613SOL    HW210614   5.392   8.668   0.972
69614SOL     OW10615   9.298   3.751   4.606
69614SOL    HW110616   9.315   3.714   4.692
69614SOL    HW210617   9.262   3.677   4.555
69615SOL     OW10618   4.214   1.851  10.873
69615SOL    HW110619   4.297   1.823  10.836
69615SOL    HW210620   4.234   1.877  10.963
69616SOL     OW10621   3.691   6.880   8.991
69616SOL    HW110622   3.641   6.934   9.053
69616SOL    HW210623   3.778   6.874   9.031
69617SOL     OW10624  13.911   7.983  10.769
69617SOL    HW110625  13.975   8.029  10.715
69617SOL    HW210626  13.826   8.010  10.734
69618SOL     OW10627   0.002  10.685  13.290
69618SOL    HW110628   0.003  10.762  13.232
69618SOL    HW210629   0.091  10.679  13.324
69619SOL     OW10630   0.569   8.766   3.902
69619SOL    HW110631   0.610   8.833   3.957
69619SOL    HW210632   0.636   8.745   3.836
69620SOL     OW10633   5.790  11.596   1.114
69620SOL    HW110634   5.721  11.586   1.049
69620SOL    HW210635   5.766  11.536   1.185
69621SOL     OW10636   8.505   2.710   7.172
69621SOL    HW110637   8.585   2.672   7.209
69621SOL    HW210638   8.461   2.751   7.247
69622SOL     OW10639  11.643   1.967  10.030
69622SOL    HW110640  11.616   1.882  10.063
69622SOL    HW210641  11.726   1.985  10.074
69623SOL     OW10642   0.800   1.358   2.476
69623SOL    HW110643   0.777   1.296   2.546
69623SOL    HW210644   0.873   1.315   2.430
69624SOL     OW10645   8.400   7.394  10.165
69624SOL    HW110646   8.375   7.484  10.186
69624SOL    HW210647   8.480   7.378  10.217
69625SOL     OW10648   0.417   4.243  10.949
69625SOL    HW110649   0.386   4.154  10.970
69625SOL    HW210650   0.506   4.247  10.984
69626SOL     OW10651   2.815  10.974  12.450
69626SOL    HW110652   2.770  10.891  12.467
69626SOL    HW210653   2.907  10.949  12.440
69627SOL     OW10654   8.095  14.505   9.865
69627SOL    HW110655   8.167  14.445   9.884
69627SOL    HW210656   8.138  14.587   9.842
69628SOL     OW10657   0.032   5.017   6.125
69628SOL    HW110658   0.030   4.943   6.065
69628SOL    HW210659   0.052   5.092   6.071
69629SOL     OW10660   2.595   8.439   3.070
69629SOL    HW110661   2.609   8.467   3.160
69629SOL    HW210662   2.678   8.400   3.044
69630SOL     OW10663  12.406   1.404  11.160
69630SOL    HW110664  12.355   1.324  11.147
69630SOL    HW210665  12.394   1.453  11.079
69631SOL     OW10666   4.901  12.783   1.660
69631SOL    HW110667   4.834  12.774   1.728
69631SOL    HW210668   4.983  12.762   1.704
69632SOL     OW10669  11.002  11.519   9.206
69632SOL    HW110670  10.981  11.583   9.274
69632SOL    HW210671  10.928  11.524   9.145
69633SOL     OW10672  10.586   7.333  12.319
69633SOL    HW110673  10.591   7.257  12.377
69633SOL    HW210674  10.584   7.296  12.231
69634SOL     OW10675   7.830   4.002  12.882
69634SOL    HW110676   7.893   4.065  12.914
69634SOL    HW210677   7.876   3.918  12.884
69635SOL     OW10678   3.596   0.542  12.301
69635SOL    HW110679   3.506   0.547  12.269
69635SOL    HW210680   3.598   0.601  12.377
69636SOL     OW10681   8.697   0.550   1.676
69636SOL    HW110682   8.751   0.537   1.598
69636SOL    HW210683   8.724   0.636   1.709
69637SOL     OW10684  11.961   6.790   8.664
69637SOL    HW110685  11.983   6.711   8.714
69637SOL    HW210686  12.005   6.861   8.711
69638SOL     OW10687   1.019  12.233   3.106
69638SOL    HW110688   0.950  12.277   3.056
69638SOL    HW210689   0.981  12.217   3.192
69639SOL     OW10690   8.888   1.749   1.597
69639SOL    HW110691   8.882   1.841   1.623
69639SOL    HW210692   8.852   1.746   1.509
69640SOL     OW10693  13.196   2.259  11.932
69640SOL    HW110694  13.181   2.347  11.898
69640SOL    HW210695  13.143   2.254  12.011
69641SOL     OW10696   7.128   1.442  10.169
69641SOL    HW110697   7.131   1.517  10.229
69641SOL    HW210698   7.079   1.473  10.093
69642SOL     OW10699  11.195   6.695  10.669
69642SOL    HW110700  11.154   6.667  10.751
69642SOL    HW210701  11.278   6.734  10.697
69643SOL     OW10702   3.404  11.231   9.143
69643SOL    HW110703   3.491  11.270   9.144
69643SOL    HW210704   3.355  11.285   9.081
69644SOL     OW10705   9.371   4.852   8.415
69644SOL    HW110706   9.376   4.883   8.324
69644SOL    HW210707   9.452   4.803   8.428
69645SOL     OW10708   0.456   9.967   3.421
69645SOL    HW110709   0.440   9.882   3.381
69645SOL    HW210710   0.441   9.952   3.515
69646SOL     OW10711  10.439  11.388   7.742
69646SOL    HW110712  10.384  11.427   7.811
69646SOL    HW210713  10.452  11.298   7.770
69647SOL     OW10714   0.696   9.849   3.953
69647SOL    HW110715   0.602   9.863   3.948
69647SOL    HW210716   0.733   9.918   3.898
69648SOL     OW10717   8.365  13.365   4.011
69648SOL    HW110718   8.274  13.338   4.021
69648SOL    HW210719   8.391  13.396   4.099
69649SOL     OW10720  13.539  10.074   0.092
69649SOL    HW110721  13.614  10.076   0.151
69649SOL    HW210722  13.568  10.020   0.019
69650SOL     OW10723  14.266   0.836   0.975
69650SOL    HW110724  14.327   0.779   1.022
69650SOL    HW210725  14.320   0.909   0.946
69651SOL     OW10726   8.937   8.388   1.856
69651SOL    HW110727   8.939   8.483   1.847
69651SOL    HW210728   8.849   8.363   1.826
69652SOL     OW10729   0.834  11.815   6.465
69652SOL    HW110730   0.890  11.878   6.510
69652SOL    HW210731   0.845  11.733   6.513
69653SOL     OW10732   8.351   0.752   2.985
69653SOL    HW110733   8.304   0.714   2.911
69653SOL    HW210734   8.282   0.792   3.038
69654SOL     OW10735   0.717  13.876   9.017
69654SOL    HW110736   0.713  13.970   9.031
69654SOL    HW210737   0.795  13.863   8.964
69655SOL     OW10738   6.572   1.912   9.734
69655SOL    HW110739   6.654   1.870   9.760
69655SOL    HW210740   6.599   1.982   9.675
69656SOL     OW10741  13.210   4.188  13.895
69656SOL    HW110742  13.165   4.272  13.904
69656SOL    HW210743  13.140   4.125  13.876
69657SOL     OW10744   5.342  12.649  12.864
69657SOL    HW110745   5.268  12.611  12.911
69657SOL    HW210746   5.308  12.667  12.777
69658SOL     OW10747   0.434   3.322  12.369
69658SOL    HW110748   0.382   3.328  12.289
69658SOL    HW210749   0.390   3.380  12.430
69659SOL     OW10750  10.289   5.772   9.312
69659SOL    HW110751  10.228   5.814   9.373
69659SOL    HW210752  10.371   5.818   9.325
69660SOL     OW10753  10.267   9.039   4.379
69660SOL    HW110754  10.282   9.028   4.285
69660SOL    HW210755  10.227   8.956   4.406
69661SOL     OW10756   4.732   0.655   2.090
69661SOL    HW110757   4.797   0.622   2.028
69661SOL    HW210758   4.741   0.600   2.168
69662SOL     OW10759   7.531   8.829  13.603
69662SOL    HW110760   7.471   8.760  13.573
69662SOL    HW210761   7.561   8.871  13.523
69663SOL     OW10762   8.541   5.119   0.292
69663SOL    HW110763   8.563   5.168   0.213
69663SOL    HW210764   8.534   5.186   0.360
69664SOL     OW10765  14.633  13.474   5.547
69664SOL    HW110766  14.583  13.398   5.516
69664SOL    HW210767  14.673  13.443   5.629
69665SOL     OW10768  11.198   6.114   7.843
69665SOL    HW110769  11.263   6.130   7.911
69665SOL    HW210770  11.159   6.030   7.867
69666SOL     OW10771   8.190  13.140  12.657
69666SOL    HW110772   8.254  13.189  12.710
69666SOL    HW210773   8.166  13.201  12.587
69667SOL     OW10774   1.338   4.963   0.941
69667SOL    HW110775   1.362   5.055   0.927
69667SOL    HW210776   1.355   4.948   1.034
69668SOL     OW10777  11.559   6.518  14.326
69668SOL    HW110778  11.557   6.539  14.419
69668SOL    HW210779  11.495   6.448  14.315
69669SOL     OW10780   3.396   1.113  11.035
69669SOL    HW110781   3.407   1.167  10.957
69669SOL    HW210782   3.482   1.112  11.076
69670SOL     OW10783   9.625   9.931   4.140
69670SOL    HW110784   9.599  10.014   4.101
69670SOL    HW210785   9.717   9.921   4.116
69671SOL     OW10786   4.023  12.353  12.082
69671SOL    HW110787   4.074  12.341  12.162
69671SOL    HW210788   3.952  12.412  12.109
69672SOL     OW10789   8.877  13.285  10.639
69672SOL    HW110790   8.855  13.315  10.728
69672SOL    HW210791   8.796  13.246  10.607
69673SOL     OW10792   0.338  12.174   2.198
69673SOL    HW110793   0.394  12.229   2.254
69673SOL    HW210794   0.324  12.094   2.249
69674SOL     OW10795   1.909   5.582   9.318
69674SOL    HW110796   1.863   5.514   9.268
69674SOL    HW210797   1.887   5.664   9.274
69675SOL     OW10798   1.050   9.028   5.363
69675SOL    HW110799   1.135   9.024   5.320
69675SOL    HW210800   0.991   8.980   5.304
69676SOL     OW10801   1.449  11.898   4.400
69676SOL    HW110802   1.372  11.867   4.353
69676SOL    HW210803   1.458  11.838   4.474
69677SOL     OW10804   3.301  11.020  10.686
69677SOL    HW110805   3.387  11.033  10.646
69677SOL    HW210806   3.318  10.968  10.764
69678SOL     OW10807   5.587  11.566   0.143
69678SOL    HW110808   5.586  11.526   0.056
69678SOL    HW210809   5.656  11.632   0.138
69679SOL     OW10810  11.079   7.975  13.373
69679SOL    HW110811  11.145   7.905  13.368
69679SOL    HW210812  11.127   8.051  13.407
69680SOL     OW10813   5.596   9.914  10.509
69680SOL    HW110814   5.627   9.931  10.420
69680SOL    HW210815   5.596   9.999  10.552
69681SOL     OW10816   3.352   8.400   8.329
69681SOL    HW110817   3.380   8.382   8.419
69681SOL    HW210818   3.324   8.314   8.296
69682SOL     OW10819   8.386   9.080  12.706
69682SOL    HW110820   8.335   9.050  12.631
69682SOL    HW210821   8.322   9.123  12.763
69683SOL     OW10822   1.238   9.276   5.098
69683SOL    HW110823   1.225   9.283   5.004
69683SOL    HW210824   1.208   9.359   5.133
69684SOL     OW10825  11.194   2.334   4.518
69684SOL    HW110826  11.135   2.404   4.489
69684SOL    HW210827  11.277   2.354   4.475
69685SOL     OW10828   7.166   8.523   0.915
69685SOL    HW110829   7.232   8.586   0.945
69685SOL    HW210830   7.150   8.547   0.824
69686SOL     OW10831   3.395   2.952   4.069
69686SOL    HW110832   3.369   3.032   4.024
69686SOL    HW210833   3.480   2.929   4.031
69687SOL     OW10834  10.296   3.555  10.926
69687SOL    HW110835  10.288   3.556  11.021
69687SOL    HW210836  10.297   3.462  10.902
69688SOL     OW10837   7.035  12.460  14.500
69688SOL    HW110838   7.026  12.453  14.595
69688SOL    HW210839   6.967  12.522  14.474
69689SOL     OW10840  13.087   9.883   0.970
69689SOL    HW110841  13.033   9.827   1.026
69689SOL    HW210842  13.064   9.857   0.881
69690SOL     OW10843   1.758  11.975   7.907
69690SOL    HW110844   1.800  11.891   7.927
69690SOL    HW210845   1.803  12.006   7.829
69691SOL     OW10846   3.477   2.850   6.203
69691SOL    HW110847   3.460   2.894   6.119
69691SOL    HW210848   3.485   2.921   6.266
69692SOL     OW10849  13.003   9.123  10.986
69692SOL    HW110850  13.070   9.164  11.041
69692SOL    HW210851  12.954   9.067  11.046
69693SOL     OW10852  14.287   5.576   8.820
69693SOL    HW110853  14.320   5.636   8.887
69693SOL    HW210854  14.247   5.504   8.870
69694SOL     OW10855   1.590  13.036   1.251
69694SOL    HW110856   1.665  13.034   1.192
69694SOL    HW210857   1.626  13.063   1.335
69695SOL     OW10858   7.312   4.229   9.843
69695SOL    HW110859   7.303   4.300   9.779
69695SOL    HW210860   7.314   4.274   9.928
69696SOL     OW10861  14.103   3.209  12.825
69696SOL    HW110862  14.042   3.171  12.888
69696SOL    HW210863  14.049   3.268  12.771
69697SOL     OW10864   3.176   8.149   9.288
69697SOL    HW110865   3.230   8.216   9.330
69697SOL    HW210866   3.198   8.155   9.195
69698SOL     OW10867  11.589   4.490   5.343
69698SOL    HW110868  11.637   4.456   5.267
69698SOL    HW210869  11.584   4.416   5.404
69699SOL     OW10870  14.548  12.589   0.859
69699SOL    HW110871  14.617  12.612   0.921
69699SOL    HW210872  14.483  12.658   0.868
69700SOL     OW10873   1.752  12.636  11.258
69700SOL    HW110874   1.773  12.728  11.274
69700SOL    HW210875   1.813  12.609  11.189
69701SOL     OW10876  12.296  10.421   8.200
69701SOL    HW110877  12.381  10.378   8.196
69701SOL    HW210878  12.267  10.411   8.291
69702SOL     OW10879   8.322   7.126   0.536
69702SOL    HW110880   8.342   7.122   0.629
69702SOL    HW210881   8.404   7.102   0.493
69703SOL     OW10882  11.273   8.982   9.428
69703SOL    HW110883  11.205   9.049   9.426
69703SOL    HW210884  11.248   8.924   9.500
69704SOL     OW10885  13.005   5.215   2.736
69704SOL    HW110886  12.910   5.207   2.734
69704SOL    HW210887  13.022   5.300   2.697
69705SOL     OW10888  13.533   0.666   8.533
69705SOL    HW110889  13.513   0.602   8.465
69705SOL    HW210890  13.559   0.745   8.486
69706SOL     OW10891  12.263  12.737   4.455
69706SOL    HW110892  12.353  12.734   4.422
69706SOL    HW210893  12.272  12.731   4.550
69707SOL     OW10894  13.876   0.172   5.694
69707SOL    HW110895  13.800   0.220   5.661
69707SOL    HW210896  13.946   0.238   5.698
69708SOL     OW10897   7.578   2.929   6.919
69708SOL    HW110898   7.508   2.930   6.854
69708SOL    HW210899   7.579   3.018   6.954
69709SOL     OW10900  10.849  10.348   8.035
69709SOL    HW110901  10.825  10.415   7.971
69709SOL    HW210902  10.869  10.397   8.115
69710SOL     OW10903  12.003   8.901   6.010
69710SOL    HW110904  12.091   8.865   6.004
69710SOL    HW210905  11.946   8.824   6.014
69711SOL     OW10906   5.437   0.531  12.784
69711SOL    HW110907   5.435   0.554  12.691
69711SOL    HW210908   5.410   0.439  12.787
69712SOL     OW10909   3.538   1.212  12.432
69712SOL    HW110910   3.447   1.194  12.411
69712SOL    HW210911   3.584   1.210  12.348
69713SOL     OW10912  10.220   8.439  13.881
69713SOL    HW110913  10.312   8.415  13.880
69713SOL    HW210914  10.195   8.441  13.789
69714SOL     OW10915   0.039   2.175   0.183
69714SOL    HW110916   0.095   2.192   0.258
69714SOL    HW210917  14.850   2.244   0.186
69715SOL     OW10918   9.805  11.090   1.683
69715SOL    HW110919   9.794  11.035   1.606
69715SOL    HW210920   9.738  11.158   1.674
69716SOL     OW10921   0.172   2.930   9.027
69716SOL    HW110922   0.212   3.008   9.065
69716SOL    HW210923   0.080   2.935   9.053
69717SOL     OW10924   9.260   5.347  12.457
69717SOL    HW110925   9.308   5.414  12.506
69717SOL    HW210926   9.209   5.397  12.393
69718SOL     OW10927   2.653   3.730   8.691
69718SOL    HW110928   2.657   3.639   8.719
69718SOL    HW210929   2.602   3.728   8.610
69719SOL     OW10930  14.420   7.745  12.971
69719SOL    HW110931  14.474   7.691  13.027
69719SOL    HW210932  14.480   7.809  12.933
69720SOL     OW10933   9.768   3.412   6.191
69720SOL    HW110934   9.845   3.369   6.228
69720SOL    HW210935   9.776   3.503   6.219
69721SOL     OW10936  11.309   1.948  13.260
69721SOL    HW110937  11.376   2.008  13.227
69721SOL    HW210938  11.347   1.861  13.249
69722SOL     OW10939   0.790   0.410  10.622
69722SOL    HW110940   0.864   0.415  10.562
69722SOL    HW210941   0.765   0.502  10.637
69723SOL     OW10942   1.566  12.947   8.709
69723SOL    HW110943   1.586  12.860   8.746
69723SOL    HW210944   1.494  12.931   8.649
69724SOL     OW10945   3.690   8.181   8.538
69724SOL    HW110946   3.674   8.275   8.540
69724SOL    HW210947   3.781   8.172   8.568
69725SOL     OW10948   6.113   8.666   5.732
69725SOL    HW110949   6.095   8.625   5.817
69725SOL    HW210950   6.040   8.726   5.718
69726SOL     OW10951  14.001   8.466   5.498
69726SOL    HW110952  14.079   8.458   5.553
69726SOL    HW210953  14.002   8.557   5.469
69727SOL     OW10954   3.376   6.838   4.368
69727SOL    HW110955   3.381   6.763   4.428
69727SOL    HW210956   3.350   6.911   4.424
69728SOL     OW10957   1.830   7.958   1.886
69728SOL    HW110958   1.898   8.015   1.923
69728SOL    HW210959   1.876   7.877   1.866
69729SOL     OW10960  10.814  13.021  14.462
69729SOL    HW110961  10.751  13.058  14.523
69729SOL    HW210962  10.762  12.965  14.405
69730SOL     OW10963   5.710   4.004  14.159
69730SOL    HW110964   5.636   4.063  14.143
69730SOL    HW210965   5.753   4.041  14.236
69731SOL     OW10966  11.564  13.686  10.120
69731SOL    HW110967  11.620  13.643  10.055
69731SOL    HW210968  11.600  13.774  10.128
69732SOL     OW10969   8.900   5.555   2.012
69732SOL    HW110970   8.981   5.516   1.980
69732SOL    HW210971   8.911   5.557   2.107
69733SOL     OW10972   5.087  12.106  11.769
69733SOL    HW110973   5.119  12.188  11.734
69733SOL    HW210974   5.162  12.046  11.763
69734SOL     OW10975   1.691  13.547   6.609
69734SOL    HW110976   1.621  13.599   6.647
69734SOL    HW210977   1.729  13.603   6.542
69735SOL     OW10978  14.335   6.277   7.277
69735SOL    HW110979  14.331   6.184   7.256
69735SOL    HW210980  14.400   6.283   7.346
69736SOL     OW10981  13.313  13.335  10.760
69736SOL    HW110982  13.226  13.327  10.721
69736SOL    HW210983  13.369  13.279  10.707
69737SOL     OW10984  13.099  13.686  14.138
69737SOL    HW110985  13.058  13.620  14.194
69737SOL    HW210986  13.179  13.643  14.106
69738SOL     OW10987  11.140   5.163   4.964
69738SOL    HW110988  11.203   5.093   4.983
69738SOL    HW210989  11.187   5.224   4.908
69739SOL     OW10990   7.142   2.904   9.719
69739SOL    HW110991   7.123   2.855   9.640
69739SOL    HW210992   7.115   2.847   9.791
69740SOL     OW10993  14.355  14.157   2.480
69740SOL    HW110994  14.312  14.072   2.491
69740SOL    HW210995  14.287  14.214   2.445
69741SOL     OW10996   0.267  11.837  11.712
69741SOL    HW110997   0.199  11.889  11.669
69741SOL    HW210998   0.323  11.807  11.640
69742SOL     OW10999   9.069   7.990  10.346
69742SOL    HW111000   9.087   7.903  10.382
69742SOL    HW211001   9.153   8.035  10.348
69743SOL     OW11002   4.618   4.398   5.734
69743SOL    HW111003   4.645   4.310   5.761
69743SOL    HW211004   4.576   4.384   5.649
69744SOL     OW11005  14.533   2.664  14.833
69744SOL    HW111006  14.605   2.728  14.835
69744SOL    HW211007  14.562   2.594   0.014
69745SOL     OW11008  10.668   4.989   1.154
69745SOL    HW111009  10.751   4.993   1.106
69745SOL    HW211010  10.678   5.053   1.225
69746SOL     OW11011  14.501   4.049   5.770
69746SOL    HW111012  14.595   4.067   5.771
69746SOL    HW211013  14.490   3.984   5.700
69747SOL     OW11014  13.206   1.714  12.725
69747SOL    HW111015  13.259   1.718  12.805
69747SOL    HW211016  13.176   1.623  12.721
69748SOL     OW11017  13.493   2.333   6.858
69748SOL    HW111018  13.413   2.300   6.816
69748SOL    HW211019  13.467   2.419   6.892
69749SOL     OW11020   8.634   8.050   9.856
69749SOL    HW111021   8.652   7.956   9.852
69749SOL    HW211022   8.706   8.090   9.807
69750SOL     OW11023   9.792  10.939   4.248
69750SOL    HW111024   9.777  10.845   4.256
69750SOL    HW211025   9.729  10.978   4.308
69751SOL     OW11026   5.500  11.422   9.965
69751SOL    HW111027   5.478  11.513   9.946
69751SOL    HW211028   5.516  11.421  10.060
69752SOL     OW11029  10.975   0.622   1.000
69752SOL    HW111030  11.010   0.625   1.090
69752SOL    HW211031  11.008   0.703   0.960
69753SOL     OW11032  13.462   7.035  14.431
69753SOL    HW111033  13.395   6.979  14.470
69753SOL    HW211034  13.431   7.124  14.448
69754SOL     OW11035   7.057  10.835   5.293
69754SOL    HW111036   7.055  10.888   5.373
69754SOL    HW211037   6.978  10.782   5.297
69755SOL     OW11038  11.696  13.333  10.229
69755SOL    HW111039  11.717  13.260  10.287
69755SOL    HW211040  11.781  13.361  10.193
69756SOL     OW11041   1.742   4.287   1.188
69756SOL    HW111042   1.829   4.298   1.226
69756SOL    HW211043   1.733   4.362   1.128
69757SOL     OW11044   5.226  14.502   3.295
69757SOL    HW111045   5.204  14.584   3.252
69757SOL    HW211046   5.275  14.453   3.229
69758SOL     OW11047  10.589   8.034   7.036
69758SOL    HW111048  10.679   8.055   7.009
69758SOL    HW211049  10.568   7.954   6.986
69759SOL     OW11050   7.539  13.564   8.821
69759SOL    HW111051   7.629  13.531   8.829
69759SOL    HW211052   7.488  13.506   8.877
69760SOL     OW11053  12.113  10.486   6.783
69760SOL    HW111054  12.106  10.448   6.871
69760SOL    HW211055  12.150  10.416   6.730
69761SOL     OW11056   8.402  10.414   8.571
69761SOL    HW111057   8.459  10.486   8.598
69761SOL    HW211058   8.384  10.431   8.479
69762SOL     OW11059   0.674  14.226   6.233
69762SOL    HW111060   0.747  14.286   6.220
69762SOL    HW211061   0.655  14.193   6.145
69763SOL     OW11062   9.497  11.482   3.682
69763SOL    HW111063   9.589  11.506   3.673
69763SOL    HW211064   9.498  11.395   3.722
69764SOL     OW11065  14.091  13.177   8.476
69764SOL    HW111066  14.133  13.093   8.497
69764SOL    HW211067  14.144  13.212   8.404
69765SOL     OW11068  13.017   1.464  10.036
69765SOL    HW111069  12.959   1.527   9.994
69765SOL    HW211070  13.104   1.501  10.026
69766SOL     OW11071   9.916   1.408   4.932
69766SOL    HW111072   9.908   1.418   4.837
69766SOL    HW211073  10.010   1.414   4.949
69767SOL     OW11074  11.122   2.751   3.800
69767SOL    HW111075  11.216   2.770   3.795
69767SOL    HW211076  11.088   2.773   3.714
69768SOL     OW11077   5.889  11.109  10.116
69768SOL    HW111078   5.850  11.155  10.042
69768SOL    HW211079   5.819  11.052  10.149
69769SOL     OW11080   1.347   6.959   1.863
69769SOL    HW111081   1.406   6.894   1.824
69769SOL    HW211082   1.390   7.043   1.846
69770SOL     OW11083  11.857   4.296   6.660
69770SOL    HW111084  11.821   4.207   6.665
69770SOL    HW211085  11.951   4.284   6.668
69771SOL     OW11086   0.613  10.594   1.595
69771SOL    HW111087   0.558  10.615   1.671
69771SOL    HW211088   0.689  10.650   1.605
69772SOL     OW11089  14.410  14.286   3.988
69772SOL    HW111090  14.470  14.211   3.989
69772SOL    HW211091  14.327  14.250   4.020
69773SOL     OW11092   9.944   0.511   9.450
69773SOL    HW111093   9.957   0.604   9.432
69773SOL    HW211094   9.981   0.466   9.374
69774SOL     OW11095   0.664   5.663  10.081
69774SOL    HW111096   0.683   5.608  10.005
69774SOL    HW211097   0.674   5.605  10.156
69775SOL     OW11098   2.746  12.774   4.375
69775SOL    HW111099   2.696  12.774   4.293
69775SOL    HW211100   2.798  12.694   4.371
69776SOL     OW11101   6.395   8.842   2.128
69776SOL    HW111102   6.388   8.823   2.222
69776SOL    HW211103   6.476   8.799   2.100
69777SOL     OW11104   7.659   2.628   5.122
69777SOL    HW111105   7.662   2.724   5.130
69777SOL    HW211106   7.734   2.598   5.173
69778SOL     OW11107  10.587   5.856  10.334
69778SOL    HW111108  10.621   5.776  10.374
69778SOL    HW211109  10.643   5.871  10.258
69779SOL     OW11110  10.786   6.345   1.842
69779SOL    HW111111  10.769   6.429   1.883
69779SOL    HW211112  10.880   6.343   1.827
69780SOL     OW11113   5.255  11.019  13.015
69780SOL    HW111114   5.207  10.943  12.983
69780SOL    HW211115   5.346  11.002  12.991
69781SOL     OW11116  13.270  14.696   2.650
69781SOL    HW111117  13.289  14.754   2.724
69781SOL    HW211118  13.201  14.638   2.681
69782SOL     OW11119   3.006  13.289  14.447
69782SOL    HW111120   3.002  13.350  14.520
69782SOL    HW211121   3.098  13.285  14.424
69783SOL     OW11122  10.833   3.860   9.353
69783SOL    HW111123  10.768   3.792   9.370
69783SOL    HW211124  10.897   3.851   9.423
69784SOL     OW11125   2.188   4.611   6.273
69784SOL    HW111126   2.185   4.534   6.216
69784SOL    HW211127   2.272   4.652   6.253
69785SOL     OW11128  12.587   3.468   1.257
69785SOL    HW111129  12.630   3.489   1.174
69785SOL    HW211130  12.651   3.492   1.324
69786SOL     OW11131   1.756   4.969  14.586
69786SOL    HW111132   1.689   5.016  14.537
69786SOL    HW211133   1.839   5.002  14.552
69787SOL     OW11134  10.884   5.465  13.979
69787SOL    HW111135  10.808   5.418  13.944
69787SOL    HW211136  10.941   5.479  13.904
69788SOL     OW11137   6.714  12.321   3.126
69788SOL    HW111138   6.755  12.299   3.043
69788SOL    HW211139   6.620  12.315   3.109
69789SOL     OW11140   0.371   3.601   0.238
69789SOL    HW111141   0.329   3.556   0.165
69789SOL    HW211142   0.463   3.609   0.212
69790SOL     OW11143   0.450   6.681   5.761
69790SOL    HW111144   0.505   6.662   5.836
69790SOL    HW211145   0.398   6.602   5.748
69791SOL     OW11146   1.373  13.314   9.658
69791SOL    HW111147   1.307  13.352   9.600
69791SOL    HW211148   1.394  13.230   9.618
69792SOL     OW11149  10.064  11.058  10.597
69792SOL    HW111150  10.152  11.084  10.570
69792SOL    HW211151  10.044  11.115  10.672
69793SOL     OW11152   7.353   6.754   1.319
69793SOL    HW111153   7.324   6.769   1.408
69793SOL    HW211154   7.382   6.840   1.288
69794SOL     OW11155   1.646   4.435  12.166
69794SOL    HW111156   1.574   4.484  12.205
69794SOL    HW211157   1.641   4.349  12.206
69795SOL     OW11158   7.211   7.483  10.639
69795SOL    HW111159   7.149   7.492  10.712
69795SOL    HW211160   7.286   7.436  10.677
69796SOL     OW11161   1.193   6.789   8.693
69796SOL    HW111162   1.103   6.757   8.695
69796SOL    HW211163   1.186   6.876   8.654
69797SOL     OW11164   5.913   5.846  14.142
69797SOL    HW111165   6.000   5.807  14.138
69797SOL    HW211166   5.854   5.778  14.111
69798SOL     OW11167   9.741  14.598   5.452
69798SOL    HW111168   9.836  14.602   5.464
69798SOL    HW211169   9.730  14.577   5.359
69799SOL     OW11170  11.683   8.441  13.105
69799SOL    HW111171  11.689   8.505  13.176
69799SOL    HW211172  11.597   8.457  13.066
69800SOL     OW11173   4.177  12.357   1.045
69800SOL    HW111174   4.232  12.346   1.123
69800SOL    HW211175   4.138  12.443   1.055
69801SOL     OW11176   0.668  14.767  14.063
69801SOL    HW111177   0.635  14.768  14.153
69801SOL    HW211178   0.729  14.694  14.061
69802SOL     OW11179   8.027   5.088  14.214
69802SOL    HW111180   8.002   5.035  14.138
69802SOL    HW211181   7.954   5.077  14.275
69803SOL     OW11182   3.294  12.167   9.161
69803SOL    HW111183   3.371  12.190   9.107
69803SOL    HW211184   3.268  12.080   9.128
69804SOL     OW11185   9.764  13.548   3.767
69804SOL    HW111186   9.759  13.543   3.862
69804SOL    HW211187   9.725  13.632   3.744
69805SOL     OW11188  10.946   3.934  13.838
69805SOL    HW111189  10.876   3.868  13.842
69805SOL    HW211190  10.996   3.919  13.918
69806SOL     OW11191   5.841   9.406  11.172
69806SOL    HW111192   5.911   9.471  11.169
69806SOL    HW211193   5.874   9.338  11.231
69807SOL     OW11194  10.888  10.157   7.671
69807SOL    HW111195  10.965  10.134   7.723
69807SOL    HW211196  10.828  10.084   7.683
69808SOL     OW11197   0.148   1.276   5.866
69808SOL    HW111198   0.210   1.315   5.927
69808SOL    HW211199   0.091   1.223   5.921
69809SOL     OW11200  10.331   6.510   8.535
69809SOL    HW111201  10.263   6.504   8.468
69809SOL    HW211202  10.351   6.604   8.541
69810SOL     OW11203  13.776   2.403   7.245
69810SOL    HW111204  13.758   2.415   7.152
69810SOL    HW211205  13.791   2.309   7.255
69811SOL     OW11206   2.865  10.569   1.257
69811SOL    HW111207   2.778  10.552   1.221
69811SOL    HW211208   2.912  10.612   1.186
69812SOL     OW11209   4.192  13.144   1.512
69812SOL    HW111210   4.126  13.190   1.460
69812SOL    HW211211   4.210  13.064   1.463
69813SOL     OW11212  12.206   3.651   6.758
69813SOL    HW111213  12.115   3.676   6.742
69813SOL    HW211214  12.256   3.711   6.703
69814SOL     OW11215   1.252   8.377   2.350
69814SOL    HW111216   1.242   8.428   2.270
69814SOL    HW211217   1.195   8.421   2.414
69815SOL     OW11218  13.407   6.297   7.420
69815SOL    HW111219  13.424   6.357   7.493
69815SOL    HW211220  13.489   6.251   7.407
69816SOL     OW11221  10.082   8.317   6.571
69816SOL    HW111222  10.066   8.290   6.480
69816SOL    HW211223  10.155   8.379   6.565
69817SOL     OW11224   0.795  12.367   1.969
69817SOL    HW111225   0.777  12.313   1.892
69817SOL    HW211226   0.876  12.330   2.006
69818SOL     OW11227  11.914   4.028   4.779
69818SOL    HW111228  11.936   3.939   4.752
69818SOL    HW211229  11.942   4.032   4.871
69819SOL     OW11230   2.881   9.210   6.037
69819SOL    HW111231   2.863   9.120   6.064
69819SOL    HW211232   2.817   9.262   6.085
69820SOL     OW11233   8.915   0.760   0.424
69820SOL    HW111234   8.865   0.678   0.418
69820SOL    HW211235   8.927   0.774   0.518
69821SOL     OW11236  13.296   8.571  14.872
69821SOL    HW111237  13.208   8.603   0.014
69821SOL    HW211238  13.349   8.650  14.861
69822SOL     OW11239  13.766   6.257   0.456
69822SOL    HW111240  13.737   6.173   0.493
69822SOL    HW211241  13.770   6.316   0.531
69823SOL     OW11242  12.202   4.767   7.918
69823SOL    HW111243  12.244   4.683   7.937
69823SOL    HW211244  12.145   4.749   7.844
69824SOL     OW11245   9.901   7.352  12.820
69824SOL    HW111246   9.895   7.297  12.741
69824SOL    HW211247   9.895   7.290  12.893
69825SOL     OW11248   3.912  14.702   8.789
69825SOL    HW111249   3.895  14.648   8.866
69825SOL    HW211250   3.889  14.791   8.817
69826SOL     OW11251   5.258   6.912   4.164
69826SOL    HW111252   5.349   6.885   4.171
69826SOL    HW211253   5.247   6.935   4.072
69827SOL     OW11254   2.000   2.004   7.355
69827SOL    HW111255   1.943   1.977   7.426
69827SOL    HW211256   2.085   2.017   7.396
69828SOL     OW11257   6.244  14.526   4.031
69828SOL    HW111258   6.248  14.433   4.052
69828SOL    HW211259   6.334  14.557   4.042
69829SOL     OW11260  12.028   2.503   2.741
69829SOL    HW111261  12.081   2.499   2.661
69829SOL    HW211262  12.010   2.411   2.762
69830SOL     OW11263   3.011   4.127   9.616
69830SOL    HW111264   2.962   4.207   9.595
69830SOL    HW211265   2.975   4.061   9.557
69831SOL     OW11266   5.063   9.163   0.170
69831SOL    HW111267   5.017   9.166   0.254
69831SOL    HW211268   5.025   9.235   0.120
69832SOL     OW11269  11.892   2.858   3.268
69832SOL    HW111270  11.829   2.824   3.331
69832SOL    HW211271  11.973   2.868   3.318
69833SOL     OW11272   5.865   3.096  10.637
69833SOL    HW111273   5.887   3.159  10.569
69833SOL    HW211274   5.773   3.114  10.659
69834SOL     OW11275  13.541   5.057   6.178
69834SOL    HW111276  13.622   5.073   6.129
69834SOL    HW211277  13.480   5.023   6.112
69835SOL     OW11278  10.633   1.792   2.590
69835SOL    HW111279  10.618   1.882   2.562
69835SOL    HW211280  10.692   1.800   2.666
69836SOL     OW11281   5.324  11.453   9.401
69836SOL    HW111282   5.260  11.485   9.464
69836SOL    HW211283   5.374  11.531   9.375
69837SOL     OW11284  12.756  10.691  14.652
69837SOL    HW111285  12.753  10.741  14.570
69837SOL    HW211286  12.673  10.712  14.696
69838SOL     OW11287   2.337   4.766   5.335
69838SOL    HW111288   2.245   4.743   5.347
69838SOL    HW211289   2.383   4.682   5.337
69839SOL     OW11290  13.754  10.999   0.581
69839SOL    HW111291  13.799  10.957   0.655
69839SOL    HW211292  13.769  11.092   0.594
69840SOL     OW11293   4.258  12.411   3.177
69840SOL    HW111294   4.179  12.357   3.174
69840SOL    HW211295   4.288  12.405   3.267
69841SOL     OW11296   7.819   2.399   0.917
69841SOL    HW111297   7.806   2.326   0.978
69841SOL    HW211298   7.731   2.434   0.902
69842SOL     OW11299  12.159   6.991   2.060
69842SOL    HW111300  12.108   6.911   2.048
69842SOL    HW211301  12.117   7.035   2.134
69843SOL     OW11302   3.228   2.676  12.490
69843SOL    HW111303   3.194   2.608  12.548
69843SOL    HW211304   3.297   2.719  12.541
69844SOL     OW11305   6.992   2.823   8.757
69844SOL    HW111306   6.994   2.732   8.785
69844SOL    HW211307   7.079   2.857   8.779
69845SOL     OW11308  12.959   5.752   9.660
69845SOL    HW111309  13.044   5.736   9.620
69845SOL    HW211310  12.978   5.764   9.753
69846SOL     OW11311   2.074  10.973   9.253
69846SOL    HW111312   1.985  10.998   9.227
69846SOL    HW211313   2.069  10.963   9.348
69847SOL     OW11314  12.867   9.043  14.244
69847SOL    HW111315  12.824   9.025  14.328
69847SOL    HW211316  12.932   8.973  14.235
69848SOL     OW11317  11.030  12.657   9.480
69848SOL    HW111318  11.012  12.703   9.398
69848SOL    HW211319  11.092  12.713   9.526
69849SOL     OW11320  14.191   2.935   5.725
69849SOL    HW111321  14.234   2.895   5.802
69849SOL    HW211322  14.228   2.887   5.650
69850SOL     OW11323   2.863   9.490   5.357
69850SOL    HW111324   2.884   9.581   5.375
69850SOL    HW211325   2.935   9.441   5.396
69851SOL     OW11326   4.316  13.062   7.390
69851SOL    HW111327   4.355  12.979   7.365
69851SOL    HW211328   4.221  13.047   7.384
69852SOL     OW11329   7.393   0.128  14.292
69852SOL    HW111330   7.375   0.219  14.318
69852SOL    HW211331   7.308   0.092  14.269
69853SOL     OW11332   5.994   6.518   6.588
69853SOL    HW111333   5.963   6.448   6.646
69853SOL    HW211334   5.917   6.571   6.570
69854SOL     OW11335   5.738   0.010   7.259
69854SOL    HW111336   5.753   0.002   7.353
69854SOL    HW211337   5.644   0.026   7.251
69855SOL     OW11338  14.282  14.190  13.454
69855SOL    HW111339  14.326  14.260  13.502
69855SOL    HW211340  14.208  14.233  13.412
69856SOL     OW11341   3.057   5.715  10.530
69856SOL    HW111342   3.052   5.626  10.564
69856SOL    HW211343   3.067   5.705  10.436
69857SOL     OW11344   8.833   0.944   8.723
69857SOL    HW111345   8.870   1.015   8.776
69857SOL    HW211346   8.757   0.913   8.773
69858SOL     OW11347   3.893   7.368   4.793
69858SOL    HW111348   3.967   7.308   4.801
69858SOL    HW211349   3.909   7.415   4.711
69859SOL     OW11350   3.193   9.479  13.959
69859SOL    HW111351   3.266   9.427  13.991
69859SOL    HW211352   3.233   9.545  13.902
69860SOL     OW11353   7.126  11.939  14.201
69860SOL    HW111354   7.109  12.011  14.141
69860SOL    HW211355   7.090  11.968  14.285
69861SOL     OW11356   7.148   6.358   5.537
69861SOL    HW111357   7.079   6.353   5.603
69861SOL    HW211358   7.156   6.451   5.518
69862SOL     OW11359  10.446  11.514  11.099
69862SOL    HW111360  10.431  11.585  11.162
69862SOL    HW211361  10.419  11.551  11.015
69863SOL     OW11362   2.016   7.522   6.618
69863SOL    HW111363   2.102   7.513   6.658
69863SOL    HW211364   1.958   7.471   6.675
69864SOL     OW11365  12.205   2.560  12.099
69864SOL    HW111366  12.153   2.618  12.043
69864SOL    HW211367  12.151   2.482  12.110
69865SOL     OW11368  11.992   1.428   9.481
69865SOL    HW111369  11.898   1.433   9.501
69865SOL    HW211370  11.999   1.363   9.412
69866SOL     OW11371  14.213  12.384  13.956
69866SOL    HW111372  14.138  12.426  13.915
69866SOL    HW211373  14.176  12.312  14.007
69867SOL     OW11374   1.885   1.771  14.784
69867SOL    HW111375   1.909   1.679  14.794
69867SOL    HW211376   1.914   1.813  14.865
69868SOL     OW11377  13.605  11.257   8.500
69868SOL    HW111378  13.602  11.329   8.436
69868SOL    HW211379  13.697  11.249   8.522
69869SOL     OW11380   6.194   5.671   5.409
69869SOL    HW111381   6.261   5.705   5.468
69869SOL    HW211382   6.184   5.579   5.435
69870SOL     OW11383  10.805   3.794  13.059
69870SOL    HW111384  10.721   3.827  13.091
69870SOL    HW211385  10.801   3.700  13.077
69871SOL     OW11386   2.207   8.947   3.898
69871SOL    HW111387   2.250   8.880   3.846
69871SOL    HW211388   2.210   8.914   3.987
69872SOL     OW11389  13.654   3.314  12.612
69872SOL    HW111390  13.609   3.293  12.530
69872SOL    HW211391  13.629   3.405  12.630
69873SOL     OW11392   3.288   6.603   8.072
69873SOL    HW111393   3.273   6.639   8.160
69873SOL    HW211394   3.367   6.550   8.081
69874SOL     OW11395   5.675   7.807  14.196
69874SOL    HW111396   5.712   7.735  14.248
69874SOL    HW211397   5.640   7.868  14.262
69875SOL     OW11398   3.871   7.132   6.427
69875SOL    HW111399   3.906   7.197   6.367
69875SOL    HW211400   3.902   7.159   6.513
69876SOL     OW11401   9.431   8.772  13.433
69876SOL    HW111402   9.353   8.717  13.444
69876SOL    HW211403   9.400   8.861  13.448
69877SOL     OW11404   8.025   0.206   7.517
69877SOL    HW111405   7.959   0.252   7.466
69877SOL    HW211406   8.089   0.177   7.452
69878SOL     OW11407   3.936   8.599  13.591
69878SOL    HW111408   4.022   8.635  13.567
69878SOL    HW211409   3.917   8.638  13.676
69879SOL     OW11410   1.235  11.992   0.486
69879SOL    HW111411   1.281  12.033   0.561
69879SOL    HW211412   1.145  12.021   0.495
69880SOL     OW11413   7.975  10.106   5.396
69880SOL    HW111414   8.044  10.082   5.334
69880SOL    HW211415   7.991  10.198   5.416
69881SOL     OW11416  13.417   2.384   2.599
69881SOL    HW111417  13.404   2.408   2.508
69881SOL    HW211418  13.330   2.361   2.631
69882SOL     OW11419  13.473   4.370   3.809
69882SOL    HW111420  13.411   4.414   3.751
69882SOL    HW211421  13.455   4.277   3.797
69883SOL     OW11422   2.841  14.760   1.262
69883SOL    HW111423   2.886  14.704   1.198
69883SOL    HW211424   2.782  14.701   1.309
69884SOL     OW11425   5.609  14.675  11.560
69884SOL    HW111426   5.548  14.629  11.617
69884SOL    HW211427   5.633  14.753  11.610
69885SOL     OW11428   2.041   7.314  10.929
69885SOL    HW111429   1.969   7.290  10.870
69885SOL    HW211430   2.120   7.289  10.882
69886SOL     OW11431   3.354   0.127   6.542
69886SOL    HW111432   3.373   0.151   6.451
69886SOL    HW211433   3.414   0.056   6.561
69887SOL     OW11434   1.141  14.578   3.895
69887SOL    HW111435   1.069  14.576   3.958
69887SOL    HW211436   1.213  14.533   3.940
69888SOL     OW11437   2.384   5.274  12.421
69888SOL    HW111438   2.360   5.253  12.331
69888SOL    HW211439   2.325   5.221  12.474
69889SOL     OW11440   1.709  13.865  14.529
69889SOL    HW111441   1.790  13.814  14.528
69889SOL    HW211442   1.640  13.799  14.530
69890SOL     OW11443   0.139   8.327   1.120
69890SOL    HW111444   0.225   8.294   1.093
69890SOL    HW211445   0.078   8.258   1.096
69891SOL     OW11446   7.031   9.759  10.390
69891SOL    HW111447   6.995   9.723  10.309
69891SOL    HW211448   7.124   9.733  10.389
69892SOL     OW11449   3.691   8.138  14.709
69892SOL    HW111450   3.672   8.153  14.617
69892SOL    HW211451   3.787   8.145  14.715
69893SOL     OW11452   2.795   5.333  14.196
69893SOL    HW111453   2.725   5.331  14.262
69893SOL    HW211454   2.861   5.392  14.232
69894SOL     OW11455   1.490  10.184   9.490
69894SOL    HW111456   1.543  10.131   9.550
69894SOL    HW211457   1.476  10.266   9.536
69895SOL     OW11458  13.908  13.760  11.603
69895SOL    HW111459  13.852  13.693  11.644
69895SOL    HW211460  13.961  13.793  11.676
69896SOL     OW11461   1.707   3.273   6.054
69896SOL    HW111462   1.684   3.197   6.108
69896SOL    HW211463   1.696   3.348   6.113
69897SOL     OW11464   6.394  13.437   9.279
69897SOL    HW111465   6.424  13.468   9.193
69897SOL    HW211466   6.331  13.368   9.259
69898SOL     OW11467  10.871   8.860  11.360
69898SOL    HW111468  10.915   8.935  11.400
69898SOL    HW211469  10.932   8.830  11.292
69899SOL     OW11470   5.182   3.822   6.750
69899SOL    HW111471   5.191   3.908   6.709
69899SOL    HW211472   5.188   3.760   6.677
69900SOL     OW11473   8.636   8.454   8.792
69900SOL    HW111474   8.542   8.455   8.812
69900SOL    HW211475   8.678   8.425   8.873
69901SOL     OW11476   2.094   4.505  11.730
69901SOL    HW111477   2.116   4.453  11.806
69901SOL    HW211478   2.177   4.541  11.699
69902SOL     OW11479   6.867  11.858   2.817
69902SOL    HW111480   6.865  11.776   2.767
69902SOL    HW211481   6.804  11.845   2.888
69903SOL     OW11482   0.165  13.290  11.942
69903SOL    HW111483   0.220  13.347  11.995
69903SOL    HW211484   0.075  13.316  11.964
69904SOL     OW11485   0.460   9.751   3.239
69904SOL    HW111486   0.381   9.766   3.188
69904SOL    HW211487   0.460   9.657   3.256
69905SOL     OW11488   9.121  13.615   4.272
69905SOL    HW111489   9.145  13.536   4.320
69905SOL    HW211490   9.025  13.615   4.273
69906SOL     OW11491   3.294   2.471   5.507
69906SOL    HW111492   3.382   2.436   5.490
69906SOL    HW211493   3.288   2.474   5.602
69907SOL     OW11494  14.691   2.160   6.203
69907SOL    HW111495  14.761   2.094   6.204
69907SOL    HW211496  14.728   2.235   6.250
69908SOL     OW11497   1.878   6.919  10.154
69908SOL    HW111498   1.972   6.904  10.160
69908SOL    HW211499   1.839   6.831  10.159
69909SOL     OW11500  12.407   8.292   7.479
69909SOL    HW111501  12.489   8.333   7.452
69909SOL    HW211502  12.349   8.365   7.499
69910SOL     OW11503   3.270  13.161   9.604
69910SOL    HW111504   3.268  13.068   9.626
69910SOL    HW211505   3.297  13.163   9.512
69911SOL     OW11506   6.604   9.548  11.379
69911SOL    HW111507   6.523   9.498  11.376
69911SOL    HW211508   6.671   9.486  11.348
69912SOL     OW11509   4.891  11.281   1.367
69912SOL    HW111510   4.859  11.207   1.418
69912SOL    HW211511   4.849  11.357   1.407
69913SOL     OW11512   9.198   0.964  11.135
69913SOL    HW111513   9.257   0.912  11.190
69913SOL    HW211514   9.248   1.043  11.116
69914SOL     OW11515   1.182   3.191   5.815
69914SOL    HW111516   1.124   3.185   5.890
69914SOL    HW211517   1.174   3.282   5.786
69915SOL     OW11518   8.515  11.578  11.242
69915SOL    HW111519   8.461  11.507  11.207
69915SOL    HW211520   8.479  11.657  11.203
69916SOL     OW11521  10.781  12.756   0.761
69916SOL    HW111522  10.848  12.774   0.827
69916SOL    HW211523  10.823  12.694   0.701
69917SOL     OW11524   9.847  13.686   8.139
69917SOL    HW111525   9.880  13.601   8.168
69917SOL    HW211526   9.920  13.746   8.153
69918SOL     OW11527  10.714   8.607   0.368
69918SOL    HW111528  10.642   8.570   0.316
69918SOL    HW211529  10.790   8.603   0.309
69919SOL     OW11530   8.514   2.232   1.746
69919SOL    HW111531   8.550   2.217   1.834
69919SOL    HW211532   8.529   2.149   1.700
69920SOL     OW11533  13.473   3.452  12.225
69920SOL    HW111534  13.491   3.442  12.131
69920SOL    HW211535  13.514   3.536  12.248
69921SOL     OW11536  11.219   6.927   7.777
69921SOL    HW111537  11.263   6.887   7.702
69921SOL    HW211538  11.140   6.876   7.789
69922SOL     OW11539   4.464   6.125  12.503
69922SOL    HW111540   4.549   6.122  12.459
69922SOL    HW211541   4.485   6.112  12.595
69923SOL     OW11542   8.839   3.035   0.925
69923SOL    HW111543   8.932   3.012   0.929
69923SOL    HW211544   8.839   3.130   0.915
69924SOL     OW11545  13.017   8.319   8.894
69924SOL    HW111546  12.958   8.394   8.887
69924SOL    HW211547  13.105   8.357   8.893
69925SOL     OW11548   0.850   0.387   8.214
69925SOL    HW111549   0.836   0.386   8.119
69925SOL    HW211550   0.844   0.479   8.238
69926SOL     OW11551  12.148  13.744   2.049
69926SOL    HW111552  12.157  13.789   2.133
69926SOL    HW211553  12.178  13.809   1.985
69927SOL     OW11554  12.800   9.167   0.759
69927SOL    HW111555  12.871   9.219   0.721
69927SOL    HW211556  12.726   9.228   0.763
69928SOL     OW11557   6.411   1.589   8.162
69928SOL    HW111558   6.375   1.602   8.075
69928SOL    HW211559   6.395   1.497   8.182
69929SOL     OW11560   8.218   1.228   3.624
69929SOL    HW111561   8.303   1.238   3.665
69929SOL    HW211562   8.160   1.288   3.671
69930SOL     OW11563   1.536  10.578  11.416
69930SOL    HW111564   1.523  10.631  11.495
69930SOL    HW211565   1.553  10.642  11.347
69931SOL     OW11566  10.591  10.231  14.332
69931SOL    HW111567  10.611  10.143  14.366
69931SOL    HW211568  10.559  10.279  14.409
69932SOL     OW11569  13.594   0.241   0.978
69932SOL    HW111570  13.662   0.261   0.914
69932SOL    HW211571  13.549   0.165   0.942
69933SOL     OW11572  13.682   6.260   6.249
69933SOL    HW111573  13.719   6.316   6.181
69933SOL    HW211574  13.723   6.175   6.235
69934SOL     OW11575  11.517  12.617   0.469
69934SOL    HW111576  11.590  12.677   0.486
69934SOL    HW211577  11.528  12.548   0.535
69935SOL     OW11578   7.080   5.194   5.314
69935SOL    HW111579   7.027   5.132   5.364
69935SOL    HW211580   7.049   5.186   5.224
69936SOL     OW11581   0.383   2.747   1.942
69936SOL    HW111582   0.446   2.718   2.008
69936SOL    HW211583   0.297   2.729   1.981
69937SOL     OW11584   5.154  10.394   5.496
69937SOL    HW111585   5.101  10.375   5.574
69937SOL    HW211586   5.216  10.460   5.525
69938SOL     OW11587   6.660   5.936   0.920
69938SOL    HW111588   6.621   5.883   0.990
69938SOL    HW211589   6.705   5.873   0.864
69939SOL     OW11590   4.023  10.304   0.710
69939SOL    HW111591   3.938  10.333   0.743
69939SOL    HW211592   4.014  10.209   0.703
69940SOL     OW11593  10.038  14.192   4.126
69940SOL    HW111594   9.957  14.169   4.082
69940SOL    HW211595  10.010  14.239   4.205
69941SOL     OW11596   3.861   1.287   4.881
69941SOL    HW111597   3.911   1.366   4.858
69941SOL    HW211598   3.928   1.224   4.908
69942SOL     OW11599   2.679  12.861  14.590
69942SOL    HW111600   2.593  12.890  14.618
69942SOL    HW211601   2.663  12.807  14.513
69943SOL     OW11602  14.348   4.954   3.038
69943SOL    HW111603  14.328   4.867   3.072
69943SOL    HW211604  14.409   4.991   3.101
69944SOL     OW11605   9.468  12.387  11.828
69944SOL    HW111606   9.380  12.353  11.814
69944SOL    HW211607   9.520  12.348  11.758
69945SOL     OW11608   5.189  10.146   2.159
69945SOL    HW111609   5.154  10.061   2.185
69945SOL    HW211610   5.214  10.134   2.067
69946SOL     OW11611   5.319   6.592   5.687
69946SOL    HW111612   5.315   6.640   5.604
69946SOL    HW211613   5.295   6.656   5.753
69947SOL     OW11614   8.020  14.299   1.116
69947SOL    HW111615   7.982  14.354   1.047
69947SOL    HW211616   8.095  14.257   1.074
69948SOL     OW11617   4.817   4.512   3.993
69948SOL    HW111618   4.846   4.589   4.042
69948SOL    HW211619   4.818   4.540   3.902
69949SOL     OW11620   4.207  11.031  11.797
69949SOL    HW111621   4.244  11.114  11.826
69949SOL    HW211622   4.187  10.984  11.878
69950SOL     OW11623  13.249  13.678   3.346
69950SOL    HW111624  13.168  13.669   3.397
69950SOL    HW211625  13.253  13.599   3.292
69951SOL     OW11626   4.158   4.244  10.221
69951SOL    HW111627   4.068   4.275  10.207
69951SOL    HW211628   4.188   4.292  10.298
69952SOL     OW11629  13.585  10.455   4.927
69952SOL    HW111630  13.605  10.544   4.898
69952SOL    HW211631  13.654  10.401   4.888
69953SOL     OW11632   0.492   6.434  11.436
69953SOL    HW111633   0.548   6.494  11.484
69953SOL    HW211634   0.455   6.487  11.365
69954SOL     OW11635  12.214   1.781   6.418
69954SOL    HW111636  12.156   1.833   6.474
69954SOL    HW211637  12.182   1.691   6.428
69955SOL     OW11638  14.083   2.565   1.589
69955SOL    HW111639  14.072   2.653   1.554
69955SOL    HW211640  14.163   2.570   1.641
69956SOL     OW11641   9.092   0.896   8.369
69956SOL    HW111642   9.056   0.984   8.377
69956SOL    HW211643   9.094   0.878   8.275
69957SOL     OW11644  12.303  13.505  13.794
69957SOL    HW111645  12.378  13.465  13.749
69957SOL    HW211646  12.341  13.554  13.866
69958SOL     OW11647   9.799  10.338   1.950
69958SOL    HW111648   9.884  10.373   1.974
69958SOL    HW211649   9.819  10.265   1.891
69959SOL     OW11650  13.234   9.635  12.265
69959SOL    HW111651  13.203   9.545  12.276
69959SOL    HW211652  13.201   9.682  12.341
69960SOL     OW11653  11.850   1.584   7.713
69960SOL    HW111654  11.850   1.517   7.646
69960SOL    HW211655  11.772   1.566   7.766
69961SOL     OW11656   6.106   2.918   1.624
69961SOL    HW111657   6.094   2.983   1.555
69961SOL    HW211658   6.029   2.861   1.617
69962SOL     OW11659   7.497  14.262  14.107
69962SOL    HW111660   7.465  14.345  14.143
69962SOL    HW211661   7.557  14.228  14.173
69963SOL     OW11662  13.700   5.276   6.821
69963SOL    HW111663  13.618   5.305   6.781
69963SOL    HW211664  13.739   5.357   6.854
69964SOL     OW11665   2.367   1.805   5.343
69964SOL    HW111666   2.445   1.860   5.350
69964SOL    HW211667   2.399   1.723   5.305
69965SOL     OW11668  10.813   0.116   1.502
69965SOL    HW111669  10.833   0.202   1.465
69965SOL    HW211670  10.721   0.101   1.479
69966SOL     OW11671  12.356  13.745   3.414
69966SOL    HW111672  12.266  13.712   3.412
69966SOL    HW211673  12.410  13.667   3.428
69967SOL     OW11674   6.379   1.350   3.636
69967SOL    HW111675   6.421   1.345   3.722
69967SOL    HW211676   6.416   1.428   3.595
69968SOL     OW11677   7.514   7.544   2.635
69968SOL    HW111678   7.424   7.558   2.606
69968SOL    HW211679   7.547   7.472   2.581
69969SOL     OW11680   7.690  13.167   5.857
69969SOL    HW111681   7.758  13.233   5.867
69969SOL    HW211682   7.735  13.090   5.823
69970SOL     OW11683  11.170  11.337   9.314
69970SOL    HW111684  11.222  11.303   9.240
69970SOL    HW211685  11.087  11.362   9.275
69971SOL     OW11686   7.966   7.479  14.338
69971SOL    HW111687   8.022   7.547  14.376
69971SOL    HW211688   7.898   7.528  14.291
69972SOL     OW11689   2.581   1.167   8.063
69972SOL    HW111690   2.583   1.261   8.080
69972SOL    HW211691   2.667   1.136   8.091
69973SOL     OW11692   1.258   0.396   2.433
69973SOL    HW111693   1.225   0.460   2.369
69973SOL    HW211694   1.187   0.386   2.496
69974SOL     OW11695   2.249   2.771   3.486
69974SOL    HW111696   2.315   2.716   3.527
69974SOL    HW211697   2.235   2.842   3.549
69975SOL     OW11698   5.177   9.738  14.166
69975SOL    HW111699   5.125   9.696  14.098
69975SOL    HW211700   5.263   9.695  14.161
69976SOL     OW11701  14.381   4.601   6.815
69976SOL    HW111702  14.321   4.531   6.787
69976SOL    HW211703  14.344   4.633   6.897
69977SOL     OW11704   1.484   3.196  13.833
69977SOL    HW111705   1.494   3.102  13.847
69977SOL    HW211706   1.484   3.206  13.737
69978SOL     OW11707  14.843   9.813   9.832
69978SOL    HW111708   0.056   9.790   9.813
69978SOL    HW211709  14.795   9.730   9.825
69979SOL     OW11710   2.547   7.414  12.311
69979SOL    HW111711   2.571   7.387  12.400
69979SOL    HW211712   2.614   7.479  12.288
69980SOL     OW11713   0.111   8.698   5.749
69980SOL    HW111714   0.150   8.782   5.775
69980SOL    HW211715   0.153   8.678   5.665
69981SOL     OW11716   0.493   6.838   7.715
69981SOL    HW111717   0.544   6.899   7.768
69981SOL    HW211718   0.410   6.829   7.761
69982SOL     OW11719   8.802   2.006   9.450
69982SOL    HW111720   8.735   2.057   9.495
69982SOL    HW211721   8.755   1.932   9.411
69983SOL     OW11722   1.341   0.671   5.249
69983SOL    HW111723   1.424   0.648   5.291
69983SOL    HW211724   1.326   0.601   5.186
69984SOL     OW11725   9.918   6.379   3.682
69984SOL    HW111726   9.955   6.458   3.722
69984SOL    HW211727   9.984   6.311   3.698
69985SOL     OW11728   0.625  10.030  13.420
69985SOL    HW111729   0.676   9.955  13.451
69985SOL    HW211730   0.673  10.061  13.343
69986SOL     OW11731  14.481   8.999   4.750
69986SOL    HW111732  14.524   8.955   4.677
69986SOL    HW211733  14.391   8.967   4.747
69987SOL     OW11734   2.614   6.199   0.588
69987SOL    HW111735   2.682   6.233   0.529
69987SOL    HW211736   2.640   6.108   0.605
69988SOL     OW11737  11.938   0.774   5.018
69988SOL    HW111738  11.899   0.843   5.073
69988SOL    HW211739  12.018   0.812   4.984
69989SOL     OW11740  13.929  11.712   4.892
69989SOL    HW111741  13.959  11.733   4.803
69989SOL    HW211742  14.009  11.706   4.944
69990SOL     OW11743   0.530   8.015   6.075
69990SOL    HW111744   0.449   7.973   6.104
69990SOL    HW211745   0.563   7.959   6.005
69991SOL     OW11746   2.197   6.710  13.204
69991SOL    HW111747   2.134   6.695  13.133
69991SOL    HW211748   2.260   6.773  13.168
69992SOL     OW11749   0.071   5.279   2.039
69992SOL    HW111750   0.018   5.222   1.984
69992SOL    HW211751   0.117   5.220   2.098
69993SOL     OW11752   0.055   3.411   6.719
69993SOL    HW111753   0.140   3.421   6.674
69993SOL    HW211754   0.038   3.317   6.716
69994SOL     OW11755   1.658  12.051   2.921
69994SOL    HW111756   1.653  12.039   3.016
69994SOL    HW211757   1.566  12.057   2.893
69995SOL     OW11758  14.488  13.307   8.393
69995SOL    HW111759  14.510  13.365   8.320
69995SOL    HW211760  14.417  13.253   8.361
69996SOL     OW11761   9.902   5.462   6.849
69996SOL    HW111762   9.836   5.449   6.917
69996SOL    HW211763   9.959   5.531   6.884
69997SOL     OW11764   2.786   7.376  11.854
69997SOL    HW111765   2.822   7.310  11.795
69997SOL    HW211766   2.737   7.435  11.797
69998SOL     OW11767   5.189   0.245   0.528
69998SOL    HW111768   5.211   0.186   0.600
69998SOL    HW211769   5.165   0.187   0.456
69999SOL     OW11770  10.890  14.359   0.607
69999SOL    HW111771  10.814  14.339   0.661
69999SOL    HW211772  10.960  14.376   0.670
70000SOL     OW11773   8.404   8.969  14.068
70000SOL    HW111774   8.401   9.044  14.008
70000SOL    HW211775   8.426   9.008  14.153
70001SOL     OW11776   0.366  12.447   7.299
70001SOL    HW111777   0.318  12.421   7.378
70001SOL    HW211778   0.345  12.378   7.236
70002SOL     OW11779   2.360   3.662  13.182
70002SOL    HW111780   2.341   3.579  13.138
70002SOL    HW211781   2.324   3.652  13.270
70003SOL     OW11782   3.145  10.323   8.540
70003SOL    HW111783   3.146  10.271   8.459
70003SOL    HW211784   3.208  10.393   8.525
70004SOL     OW11785   0.448   0.851   2.609
70004SOL    HW111786   0.462   0.945   2.620
70004SOL    HW211787   0.393   0.827   2.684
70005SOL     OW11788   0.109  14.831   9.869
70005SOL    HW111789   0.122  14.857   9.778
70005SOL    HW211790   0.092   0.036   9.915
70006SOL     OW11791   4.788   5.305   7.581
70006SOL    HW111792   4.752   5.392   7.597
70006SOL    HW211793   4.727   5.245   7.623
70007SOL     OW11794   0.350   8.122  12.646
70007SOL    HW111795   0.372   8.116  12.553
70007SOL    HW211796   0.290   8.196  12.652
70008SOL     OW11797   3.080   3.293   1.857
70008SOL    HW111798   2.993   3.301   1.818
70008SOL    HW211799   3.066   3.298   1.951
70009SOL     OW11800   9.787   2.204   0.714
70009SOL    HW111801   9.801   2.293   0.748
70009SOL    HW211802   9.828   2.205   0.627
70010SOL     OW11803   6.487  13.375  10.634
70010SOL    HW111804   6.567  13.422  10.657
70010SOL    HW211805   6.483  13.380  10.539
70011SOL     OW11806   3.537   6.601   6.831
70011SOL    HW111807   3.567   6.624   6.919
70011SOL    HW211808   3.545   6.505   6.828
70012SOL     OW11809   0.335   2.424   2.064
70012SOL    HW111810   0.248   2.425   2.103
70012SOL    HW211811   0.360   2.517   2.060
70013SOL     OW11812   3.992   3.988   9.908
70013SOL    HW111813   3.981   3.925   9.837
70013SOL    HW211814   3.904   3.997   9.945
70014SOL     OW11815   1.408   6.189   5.565
70014SOL    HW111816   1.358   6.137   5.502
70014SOL    HW211817   1.401   6.279   5.533
70015SOL     OW11818  11.532   2.184  12.893
70015SOL    HW111819  11.456   2.211  12.842
70015SOL    HW211820  11.589   2.262  12.893
70016SOL     OW11821   1.016  13.662   7.666
70016SOL    HW111822   1.065  13.632   7.743
70016SOL    HW211823   0.996  13.582   7.618
70017SOL     OW11824  12.220   7.023  13.721
70017SOL    HW111825  12.187   6.974  13.796
70017SOL    HW211826  12.304   7.059  13.751
70018SOL     OW11827   2.459  10.224   2.432
70018SOL    HW111828   2.551  10.221   2.407
70018SOL    HW211829   2.456  10.185   2.520
70019SOL     OW11830   1.919  11.508   1.333
70019SOL    HW111831   1.985  11.453   1.374
70019SOL    HW211832   1.908  11.582   1.394
70020SOL     OW11833   6.346   3.262  13.102
70020SOL    HW111834   6.280   3.320  13.065
70020SOL    HW211835   6.362   3.296  13.190
70021SOL     OW11836   5.889   6.609   3.205
70021SOL    HW111837   5.800   6.597   3.172
70021SOL    HW211838   5.878   6.631   3.297
70022SOL     OW11839  14.416   7.341   3.484
70022SOL    HW111840  14.438   7.390   3.563
70022SOL    HW211841  14.321   7.350   3.476
70023SOL     OW11842   2.569   9.315   7.215
70023SOL    HW111843   2.521   9.235   7.235
70023SOL    HW211844   2.535   9.379   7.278
70024SOL     OW11845   7.726   5.956   6.593
70024SOL    HW111846   7.725   6.033   6.649
70024SOL    HW211847   7.752   5.884   6.651
70025SOL     OW11848   1.154   4.909  11.512
70025SOL    HW111849   1.142   4.853  11.435
70025SOL    HW211850   1.080   4.970  11.509
70026SOL     OW11851  13.745  11.370   4.168
70026SOL    HW111852  13.827  11.337   4.203
70026SOL    HW211853  13.732  11.323   4.086
70027SOL     OW11854   0.153  10.494   5.464
70027SOL    HW111855   0.120  10.411   5.430
70027SOL    HW211856   0.225  10.469   5.522
70028SOL     OW11857   6.518   2.109   5.899
70028SOL    HW111858   6.496   2.189   5.948
70028SOL    HW211859   6.506   2.134   5.807
70029SOL     OW11860  12.906   0.268  10.336
70029SOL    HW111861  12.833   0.214  10.366
70029SOL    HW211862  12.924   0.236  10.247
70030SOL     OW11863  13.376   7.362   3.494
70030SOL    HW111864  13.331   7.437   3.453
70030SOL    HW211865  13.416   7.398   3.573
70031SOL     OW11866   9.390   3.568   8.525
70031SOL    HW111867   9.445   3.634   8.482
70031SOL    HW211868   9.448   3.493   8.538
70032SOL     OW11869   4.947   4.710   0.146
70032SOL    HW111870   4.921   4.626   0.183
70032SOL    HW211871   4.919   4.776   0.210
70033SOL     OW11872   9.515   3.721   5.241
70033SOL    HW111873   9.570   3.784   5.193
70033SOL    HW211874   9.564   3.639   5.238
70034SOL     OW11875   9.009  13.631   8.339
70034SOL    HW111876   9.013  13.536   8.346
70034SOL    HW211877   9.087  13.655   8.289
70035SOL     OW11878  11.163  12.296   3.072
70035SOL    HW111879  11.206  12.380   3.054
70035SOL    HW211880  11.203  12.235   3.011
70036SOL     OW11881  11.149  10.372  12.736
70036SOL    HW111882  11.243  10.387  12.727
70036SOL    HW211883  11.125  10.317  12.661
70037SOL     OW11884   1.392   2.929  13.647
70037SOL    HW111885   1.473   2.949  13.694
70037SOL    HW211886   1.413   2.852  13.594
70038SOL     OW11887  12.483   3.186   6.175
70038SOL    HW111888  12.570   3.226   6.171
70038SOL    HW211889  12.500   3.092   6.178
70039SOL     OW11890   7.393   5.580  13.540
70039SOL    HW111891   7.478   5.607  13.503
70039SOL    HW211892   7.362   5.658  13.587
70040SOL     OW11893   0.711   5.561  13.908
70040SOL    HW111894   0.698   5.566  13.813
70040SOL    HW211895   0.682   5.646  13.941
70041SOL     OW11896  10.407   2.797   1.881
70041SOL    HW111897  10.327   2.770   1.926
70041SOL    HW211898  10.396   2.891   1.866
70042SOL     OW11899   1.912   7.242  11.169
70042SOL    HW111900   1.961   7.291  11.103
70042SOL    HW211901   1.827   7.225  11.127
70043SOL     OW11902   2.769   4.829   0.741
70043SOL    HW111903   2.799   4.857   0.655
70043SOL    HW211904   2.814   4.746   0.756
70044SOL     OW11905   2.225   9.532  12.273
70044SOL    HW111906   2.148   9.479  12.252
70044SOL    HW211907   2.190   9.608  12.320
70045SOL     OW11908   2.679   3.003  10.082
70045SOL    HW111909   2.749   2.938  10.075
70045SOL    HW211910   2.720   3.085  10.056
70046SOL     OW11911   5.056  10.565  10.286
70046SOL    HW111912   5.047  10.522  10.201
70046SOL    HW211913   5.011  10.507  10.348
70047SOL     OW11914  12.923   9.584   6.608
70047SOL    HW111915  12.943   9.607   6.517
70047SOL    HW211916  12.867   9.656   6.638
70048SOL     OW11917   3.176  11.332   7.443
70048SOL    HW111918   3.134  11.372   7.519
70048SOL    HW211919   3.139  11.244   7.437
70049SOL     OW11920   5.420  12.307   7.801
70049SOL    HW111921   5.385  12.315   7.712
70049SOL    HW211922   5.346  12.330   7.858
70050SOL     OW11923  12.479   4.612   3.651
70050SOL    HW111924  12.480   4.676   3.580
70050SOL    HW211925  12.420   4.543   3.620
70051SOL     OW11926   6.621   7.866  11.849
70051SOL    HW111927   6.679   7.903  11.915
70051SOL    HW211928   6.574   7.941  11.813
70052SOL     OW11929   1.352  10.881   1.027
70052SOL    HW111930   1.328  10.932   1.105
70052SOL    HW211931   1.358  10.946   0.957
70053SOL     OW11932  13.274  10.821  13.484
70053SOL    HW111933  13.358  10.868  13.487
70053SOL    HW211934  13.264  10.783  13.571
70054SOL     OW11935  13.388   6.697   7.410
70054SOL    HW111936  13.341   6.624   7.451
70054SOL    HW211937  13.441   6.734   7.481
70055SOL     OW11938   0.283   4.551   7.261
70055SOL    HW111939   0.233   4.551   7.179
70055SOL    HW211940   0.319   4.463   7.267
70056SOL     OW11941   1.867   4.978   9.579
70056SOL    HW111942   1.776   4.962   9.605
70056SOL    HW211943   1.900   5.039   9.645
70057SOL     OW11944   0.450   5.925  12.660
70057SOL    HW111945   0.363   5.956  12.637
70057SOL    HW211946   0.444   5.903  12.753
70058SOL     OW11947   3.772   3.247  12.638
70058SOL    HW111948   3.700   3.232  12.699
70058SOL    HW211949   3.738   3.313  12.577
70059SOL     OW11950   1.931  11.385   4.265
70059SOL    HW111951   1.995  11.454   4.248
70059SOL    HW211952   1.846  11.425   4.245
70060SOL     OW11953   0.160  14.332   9.326
70060SOL    HW111954   0.212  14.341   9.407
70060SOL    HW211955   0.117  14.417   9.316
70061SOL     OW11956   4.248   1.230   4.978
70061SOL    HW111957   4.299   1.307   4.952
70061SOL    HW211958   4.314   1.167   5.007
70062SOL     OW11959   4.287   6.284   3.718
70062SOL    HW111960   4.256   6.250   3.635
70062SOL    HW211961   4.337   6.212   3.757
70063SOL     OW11962   5.100  11.065   2.238
70063SOL    HW111963   5.096  11.156   2.266
70063SOL    HW211964   5.012  11.030   2.255
70064SOL     OW11965   1.342   3.672   1.123
70064SOL    HW111966   1.331   3.665   1.218
70064SOL    HW211967   1.296   3.752   1.099
70065SOL     OW11968  10.339  13.704  12.854
70065SOL    HW111969  10.385  13.723  12.935
70065SOL    HW211970  10.405  13.666  12.796
70066SOL     OW11971  10.429  14.462   2.015
70066SOL    HW111972  10.434  14.548   2.058
70066SOL    HW211973  10.518  14.447   1.982
70067SOL     OW11974  10.418   6.170  13.629
70067SOL    HW111975  10.326   6.197  13.636
70067SOL    HW211976  10.464   6.226  13.693
70068SOL     OW11977   1.307   5.006  12.141
70068SOL    HW111978   1.218   4.997  12.107
70068SOL    HW211979   1.301   4.975  12.231
70069SOL     OW11980   9.984  10.747   6.866
70069SOL    HW111981   9.924  10.806   6.821
70069SOL    HW211982   9.958  10.752   6.958
70070SOL     OW11983  11.030  13.118   1.409
70070SOL    HW111984  11.088  13.154   1.341
70070SOL    HW211985  10.945  13.158   1.390
70071SOL     OW11986   9.781   8.442   9.903
70071SOL    HW111987   9.817   8.522   9.941
70071SOL    HW211988   9.818   8.372   9.956
70072SOL     OW11989  10.870   7.889   8.705
70072SOL    HW111990  10.798   7.946   8.681
70072SOL    HW211991  10.894   7.916   8.794
70073SOL     OW11992  12.189   6.466   4.115
70073SOL    HW111993  12.138   6.415   4.178
70073SOL    HW211994  12.124   6.512   4.063
70074SOL     OW11995   7.369  14.833   8.285
70074SOL    HW111996   7.436  14.770   8.311
70074SOL    HW211997   7.349  14.811   8.195
70075SOL     OW11998   2.270   5.658   3.444
70075SOL    HW111999   2.305   5.655   3.533
70075SOL    HW212000   2.320   5.592   3.397
70076SOL     OW12001   9.954  11.849  12.223
70076SOL    HW112002  10.019  11.798  12.272
70076SOL    HW212003   9.984  11.939  12.230
70077SOL     OW12004  12.450   7.031   3.254
70077SOL    HW112005  12.405   7.075   3.326
70077SOL    HW212006  12.397   7.051   3.177
70078SOL     OW12007  11.654   1.790   8.640
70078SOL    HW112008  11.688   1.831   8.720
70078SOL    HW212009  11.724   1.730   8.613
70079SOL     OW12010   8.203  10.565  14.320
70079SOL    HW112011   8.190  10.472  14.343
70079SOL    HW212012   8.296  10.572  14.300
70080SOL     OW12013  14.677   1.472  11.909
70080SOL    HW112014  14.686   1.424  11.991
70080SOL    HW212015  14.739   1.429  11.849
70081SOL     OW12016  13.066   6.485   3.547
70081SOL    HW112017  13.150   6.476   3.501
70081SOL    HW212018  13.085   6.546   3.619
70082SOL     OW12019   7.457   5.685   0.006
70082SOL    HW112020   7.484   5.594  14.875
70082SOL    HW212021   7.433   5.695   0.098
70083SOL     OW12022   9.503   1.352  10.755
70083SOL    HW112023   9.451   1.351  10.835
70083SOL    HW212024   9.577   1.294  10.773
70084SOL     OW12025   1.101   9.662   7.296
70084SOL    HW112026   1.125   9.637   7.206
70084SOL    HW212027   1.014   9.624   7.309
70085SOL     OW12028   7.738   9.027   4.793
70085SOL    HW112029   7.711   9.100   4.737
70085SOL    HW212030   7.707   9.051   4.880
70086SOL     OW12031   9.708  13.352  13.842
70086SOL    HW112032   9.738  13.262  13.857
70086SOL    HW212033   9.765  13.385  13.773
70087SOL     OW12034   3.556   4.490   0.245
70087SOL    HW112035   3.518   4.556   0.187
70087SOL    HW212036   3.579   4.538   0.324
70088SOL     OW12037   0.279   8.460   3.342
70088SOL    HW112038   0.343   8.397   3.308
70088SOL    HW212039   0.325   8.544   3.340
70089SOL     OW12040   5.792   2.293   1.726
70089SOL    HW112041   5.877   2.330   1.753
70089SOL    HW212042   5.770   2.230   1.794
70090SOL     OW12043   8.125   4.408   2.494
70090SOL    HW112044   8.075   4.431   2.572
70090SOL    HW212045   8.216   4.407   2.523
70091SOL     OW12046   4.930   7.841  10.529
70091SOL    HW112047   4.891   7.861  10.613
70091SOL    HW212048   4.893   7.756  10.504
70092SOL     OW12049  13.670  13.770  12.751
70092SOL    HW112050  13.740  13.813  12.800
70092SOL    HW212051  13.607  13.839  12.732
70093SOL     OW12052   3.269  12.667  11.112
70093SOL    HW112053   3.335  12.647  11.178
70093SOL    HW212054   3.252  12.761  11.122
70094SOL     OW12055  10.461   1.835  11.985
70094SOL    HW112056  10.420   1.754  12.015
70094SOL    HW212057  10.475   1.886  12.066
70095SOL     OW12058   4.204   6.230  10.204
70095SOL    HW112059   4.289   6.203  10.238
70095SOL    HW212060   4.141   6.172  10.248
70096SOL     OW12061   2.711   9.998  10.271
70096SOL    HW112062   2.676   9.954  10.193
70096SOL    HW212063   2.787  10.046  10.239
70097SOL     OW12064   0.783   3.008  12.893
70097SOL    HW112065   0.818   3.085  12.848
70097SOL    HW212066   0.695   2.997  12.857
70098SOL     OW12067   6.037  13.571   4.264
70098SOL    HW112068   5.984  13.625   4.205
70098SOL    HW212069   5.978  13.546   4.335
70099SOL     OW12070   0.030   2.592   2.618
70099SOL    HW112071  14.826   2.639   2.634
70099SOL    HW212072   0.058   2.561   2.704
70100SOL     OW12073  11.872   1.073  11.318
70100SOL    HW112074  11.823   0.991  11.315
70100SOL    HW212075  11.899   1.080  11.409
70101SOL     OW12076  14.315  14.865   3.303
70101SOL    HW112077  14.296  14.827   3.388
70101SOL    HW212078  14.294  14.796   3.240
70102SOL     OW12079   0.560   5.918   4.310
70102SOL    HW112080   0.530   5.991   4.363
70102SOL    HW212081   0.653   5.934   4.296
70103SOL     OW12082   5.008   7.250   5.809
70103SOL    HW112083   4.929   7.197   5.822
70103SOL    HW212084   5.008   7.271   5.716
70104SOL     OW12085   7.977   9.016   0.812
70104SOL    HW112086   7.899   9.065   0.839
70104SOL    HW212087   7.948   8.967   0.735
70105SOL     OW12088   7.881   5.794   3.901
70105SOL    HW112089   7.885   5.867   3.840
70105SOL    HW212090   7.959   5.742   3.881
70106SOL     OW12091   6.832   9.488   9.177
70106SOL    HW112092   6.907   9.453   9.224
70106SOL    HW212093   6.845   9.459   9.087
70107SOL     OW12094  12.121   1.579   0.313
70107SOL    HW112095  12.056   1.644   0.340
70107SOL    HW212096  12.072   1.519   0.258
70108SOL     OW12097   1.440  14.874   4.542
70108SOL    HW112098   1.356  14.839   4.510
70108SOL    HW212099   1.449  14.837   4.630
70109SOL     OW12100  11.224   6.195   8.154
70109SOL    HW112101  11.302   6.243   8.126
70109SOL    HW212102  11.151   6.244   8.116
70110SOL     OW12103   9.684   4.111   1.475
70110SOL    HW112104   9.744   4.045   1.510
70110SOL    HW212105   9.735   4.159   1.411
70111SOL     OW12106   2.223   4.372   1.450
70111SOL    HW112107   2.192   4.282   1.459
70111SOL    HW212108   2.269   4.390   1.533
70112SOL     OW12109   7.638   8.281   3.307
70112SOL    HW112110   7.641   8.363   3.357
70112SOL    HW212111   7.725   8.273   3.267
70113SOL     OW12112   4.056   6.049  11.870
70113SOL    HW112113   4.011   6.096  11.940
70113SOL    HW212114   4.052   5.957  11.897
70114SOL     OW12115   0.738  12.061   5.614
70114SOL    HW112116   0.663  12.087   5.561
70114SOL    HW212117   0.702  12.047   5.702
70115SOL     OW12118  12.307  14.863  12.996
70115SOL    HW112119  12.383  14.868  13.055
70115SOL    HW212120  12.245  14.806  13.042
70116SOL     OW12121   8.718  11.702   1.784
70116SOL    HW112122   8.641  11.653   1.757
70116SOL    HW212123   8.698  11.729   1.874
70117SOL     OW12124   3.192   9.185  14.556
70117SOL    HW112125   3.193   9.154  14.466
70117SOL    HW212126   3.111   9.150  14.593
70118SOL     OW12127   8.176  13.323   7.302
70118SOL    HW112128   8.182  13.232   7.330
70118SOL    HW212129   8.101  13.358   7.350
70119SOL     OW12130   8.529   1.549   1.856
70119SOL    HW112131   8.620   1.575   1.839
70119SOL    HW212132   8.480   1.584   1.782
70120SOL     OW12133   5.328  11.122   3.796
70120SOL    HW112134   5.320  11.112   3.891
70120SOL    HW212135   5.271  11.196   3.775
70121SOL     OW12136  14.156  13.385  12.164
70121SOL    HW112137  14.075  13.344  12.135
70121SOL    HW212138  14.162  13.364  12.257
70122SOL     OW12139  10.195   7.247   6.628
70122SOL    HW112140  10.275   7.273   6.673
70122SOL    HW212141  10.164   7.170   6.676
70123SOL     OW12142   0.132   0.429   3.106
70123SOL    HW112143   0.215   0.389   3.131
70123SOL    HW212144   0.149   0.523   3.107
70124SOL     OW12145   6.651   9.200   5.241
70124SOL    HW112146   6.687   9.140   5.306
70124SOL    HW212147   6.727   9.231   5.192
70125SOL     OW12148   0.405  11.767  10.808
70125SOL    HW112149   0.354  11.835  10.853
70125SOL    HW212150   0.354  11.687  10.818
70126SOL     OW12151  12.275   0.118   1.395
70126SOL    HW112152  12.220   0.123   1.317
70126SOL    HW212153  12.359   0.155   1.367
70127SOL     OW12154   1.435   0.470   9.387
70127SOL    HW112155   1.505   0.486   9.324
70127SOL    HW212156   1.358   0.450   9.334
70128SOL     OW12157   3.615  13.568   4.809
70128SOL    HW112158   3.678  13.616   4.755
70128SOL    HW212159   3.556  13.526   4.747
70129SOL     OW12160   5.375   2.563   3.721
70129SOL    HW112161   5.448   2.598   3.773
70129SOL    HW212162   5.417   2.519   3.648
70130SOL     OW12163   9.278   1.645  11.524
70130SOL    HW112164   9.292   1.652  11.618
70130SOL    HW212165   9.230   1.724  11.500
70131SOL     OW12166  10.524   3.134  13.510
70131SOL    HW112167  10.574   3.090  13.579
70131SOL    HW212168  10.433   3.119  13.532
70132SOL     OW12169  14.446  12.850  13.517
70132SOL    HW112170  14.483  12.899  13.444
70132SOL    HW212171  14.519  12.797  13.550
70133SOL     OW12172   7.286   6.284   3.577
70133SOL    HW112173   7.311   6.198   3.542
70133SOL    HW212174   7.263   6.267   3.668
70134SOL     OW12175   5.294  13.742  14.561
70134SOL    HW112176   5.257  13.728  14.648
70134SOL    HW212177   5.238  13.691  14.503
70135SOL     OW12178   4.253   6.360  13.016
70135SOL    HW112179   4.267   6.312  12.935
70135SOL    HW212180   4.335   6.408  13.031
70136SOL     OW12181   2.863   2.437  14.505
70136SOL    HW112182   2.806   2.415  14.431
70136SOL    HW212183   2.892   2.352  14.539
70137SOL     OW12184   9.195  14.113  14.739
70137SOL    HW112185   9.210  14.154  14.654
70137SOL    HW212186   9.260  14.152  14.796
70138SOL     OW12187  14.043   5.878   5.809
70138SOL    HW112188  14.082   5.911   5.728
70138SOL    HW212189  14.038   5.954   5.866
70139SOL     OW12190  13.441   9.388   4.001
70139SOL    HW112191  13.360   9.337   3.991
70139SOL    HW212192  13.425   9.444   4.077
70140SOL     OW12193   7.906   7.744  10.505
70140SOL    HW112194   7.836   7.781  10.558
70140SOL    HW212195   7.961   7.696  10.567
70141SOL     OW12196   2.099  10.855  11.446
70141SOL    HW112197   2.154  10.832  11.372
70141SOL    HW212198   2.010  10.837  11.416
70142SOL     OW12199   0.578  12.369  14.229
70142SOL    HW112200   0.546  12.280  14.218
70142SOL    HW212201   0.552  12.414  14.149
70143SOL     OW12202   1.350   6.084   2.746
70143SOL    HW112203   1.337   6.058   2.655
70143SOL    HW212204   1.424   6.145   2.743
70144SOL     OW12205   3.477   7.622  11.415
70144SOL    HW112206   3.562   7.597  11.379
70144SOL    HW212207   3.477   7.718  11.411
70145SOL     OW12208   6.138  12.871  12.431
70145SOL    HW112209   6.070  12.929  12.465
70145SOL    HW212210   6.175  12.919  12.356
70146SOL     OW12211  11.660   5.612   9.784
70146SOL    HW112212  11.718   5.646   9.716
70146SOL    HW212213  11.680   5.518   9.786
70147SOL     OW12214  13.415   9.064  12.453
70147SOL    HW112215  13.330   9.078  12.496
70147SOL    HW212216  13.418   8.970  12.435
70148SOL     OW12217   7.716   4.103  11.836
70148SOL    HW112218   7.707   4.066  11.924
70148SOL    HW212219   7.627   4.126  11.811
70149SOL     OW12220   9.777   2.135  14.343
70149SOL    HW112221   9.807   2.142  14.252
70149SOL    HW212222   9.764   2.041  14.356
70150SOL     OW12223  14.541   1.772  11.465
70150SOL    HW112224  14.504   1.726  11.389
70150SOL    HW212225  14.574   1.854  11.430
70151SOL     OW12226   2.595   5.333   2.200
70151SOL    HW112227   2.638   5.280   2.133
70151SOL    HW212228   2.635   5.419   2.192
70152SOL     OW12229   2.702  14.877  10.453
70152SOL    HW112230   2.756   0.058  10.399
70152SOL    HW212231   2.674  14.808  10.393
70153SOL     OW12232   6.437  11.432  13.805
70153SOL    HW112233   6.427  11.368  13.875
70153SOL    HW212234   6.520  11.475  13.823
70154SOL     OW12235   1.135   7.870   2.571
70154SOL    HW112236   1.146   7.777   2.592
70154SOL    HW212237   1.051   7.894   2.609
70155SOL     OW12238  11.242   9.841  14.440
70155SOL    HW112239  11.315   9.886  14.481
70155SOL    HW212240  11.258   9.850  14.346
70156SOL     OW12241  14.294   8.222   1.399
70156SOL    HW112242  14.199   8.221   1.382
70156SOL    HW212243  14.327   8.145   1.353
70157SOL     OW12244   1.815   6.062   1.871
70157SOL    HW112245   1.803   6.134   1.809
70157SOL    HW212246   1.909   6.045   1.869
70158SOL     OW12247   5.672   8.749   8.125
70158SOL    HW112248   5.617   8.745   8.203
70158SOL    HW212249   5.690   8.657   8.103
70159SOL     OW12250   9.505   0.180  11.202
70159SOL    HW112251   9.425   0.132  11.222
70159SOL    HW212252   9.496   0.206  11.111
70160SOL     OW12253   3.453   5.319   1.154
70160SOL    HW112254   3.529   5.325   1.211
70160SOL    HW212255   3.408   5.403   1.165
70161SOL     OW12256   4.488   9.766   1.682
70161SOL    HW112257   4.436   9.834   1.724
70161SOL    HW212258   4.431   9.689   1.681
70162SOL     OW12259  11.707   5.306  10.683
70162SOL    HW112260  11.746   5.229  10.724
70162SOL    HW212261  11.770   5.377  10.699
70163SOL     OW12262   1.564   6.759  12.304
70163SOL    HW112263   1.509   6.741  12.227
70163SOL    HW212264   1.547   6.685  12.363
70164SOL     OW12265   9.859   7.318  14.223
70164SOL    HW112266   9.765   7.337  14.223
70164SOL    HW212267   9.872   7.260  14.148
70165SOL     OW12268  11.127   7.412  13.408
70165SOL    HW112269  11.163   7.501  13.399
70165SOL    HW212270  11.076   7.399  13.328
70166SOL     OW12271   0.364  12.650   9.129
70166SOL    HW112272   0.348  12.605   9.046
70166SOL    HW212273   0.411  12.585   9.182
70167SOL     OW12274   5.777   5.560   0.950
70167SOL    HW112275   5.707   5.499   0.970
70167SOL    HW212276   5.803   5.596   1.035
70168SOL     OW12277   2.929  11.335  14.474
70168SOL    HW112278   2.962  11.425  14.462
70168SOL    HW212279   3.008  11.282  14.483
70169SOL     OW12280  13.185  12.583   0.297
70169SOL    HW112281  13.253  12.605   0.361
70169SOL    HW212282  13.134  12.664   0.287
70170SOL     OW12283  14.397   8.020   7.297
70170SOL    HW112284  14.479   8.021   7.249
70170SOL    HW212285  14.402   7.942   7.352
70171SOL     OW12286   0.450   0.019  13.255
70171SOL    HW112287   0.465   0.036  13.162
70171SOL    HW212288   0.509  14.824  13.276
70172SOL     OW12289  12.300   8.803   4.057
70172SOL    HW112290  12.313   8.799   4.151
70172SOL    HW212291  12.216   8.849   4.046
70173SOL     OW12292   1.564   6.610   2.975
70173SOL    HW112293   1.611   6.681   3.018
70173SOL    HW212294   1.623   6.581   2.906
70174SOL     OW12295   8.001  14.805   5.502
70174SOL    HW112296   7.942  14.731   5.512
70174SOL    HW212297   8.054  14.784   5.425
70175SOL     OW12298   4.890   2.161   5.508
70175SOL    HW112299   4.959   2.219   5.539
70175SOL    HW212300   4.937   2.092   5.460
70176SOL     OW12301  13.499  13.788  10.951
70176SOL    HW112302  13.556  13.724  10.995
70176SOL    HW212303  13.463  13.741  10.876
70177SOL     OW12304  10.010   9.965   9.770
70177SOL    HW112305  10.023   9.890   9.828
70177SOL    HW212306  10.050   9.937   9.687
70178SOL     OW12307   6.259  12.661   5.006
70178SOL    HW112308   6.167  12.654   4.979
70178SOL    HW212309   6.286  12.571   5.023
70179SOL     OW12310  12.811   2.640   7.082
70179SOL    HW112311  12.835   2.584   7.156
70179SOL    HW212312  12.891   2.647   7.030
70180SOL     OW12313   8.527   4.240  13.502
70180SOL    HW112314   8.579   4.218  13.424
70180SOL    HW212315   8.501   4.331  13.488
70181SOL     OW12316   0.390   2.015   9.214
70181SOL    HW112317   0.335   1.962   9.156
70181SOL    HW212318   0.391   1.967   9.296
70182SOL     OW12319  13.150   6.997  11.691
70182SOL    HW112320  13.151   7.083  11.651
70182SOL    HW212321  13.111   6.940  11.625
70183SOL     OW12322   0.079   8.211  10.253
70183SOL    HW112323   0.139   8.193  10.325
70183SOL    HW212324   0.136   8.226  10.178
70184SOL     OW12325   5.718  14.844   3.133
70184SOL    HW112326   5.734   0.057   3.105
70184SOL    HW212327   5.719  14.794   3.052
70185SOL     OW12328  14.591   2.614   0.260
70185SOL    HW112329  14.525   2.682   0.243
70185SOL    HW212330  14.670   2.663   0.283
70186SOL     OW12331  10.702   0.114  12.712
70186SOL    HW112332  10.715   0.104  12.806
70186SOL    HW212333  10.790   0.128  12.677
70187SOL     OW12334  12.598  10.775   9.421
70187SOL    HW112335  12.587  10.680   9.428
70187SOL    HW212336  12.653  10.799   9.495
70188SOL     OW12337   0.412   9.354   2.779
70188SOL    HW112338   0.507   9.360   2.763
70188SOL    HW212339   0.380   9.291   2.714
70189SOL     OW12340  14.113   0.425  11.620
70189SOL    HW112341  14.172   0.352  11.639
70189SOL    HW212342  14.145   0.497  11.674
70190SOL     OW12343   8.575   1.662  13.665
70190SOL    HW112344   8.550   1.727  13.731
70190SOL    HW212345   8.578   1.579  13.713
70191SOL     OW12346  10.675   9.528   1.049
70191SOL    HW112347  10.631   9.605   1.013
70191SOL    HW212348  10.667   9.461   0.982
70192SOL     OW12349   1.152   3.526  10.824
70192SOL    HW112350   1.200   3.606  10.848
70192SOL    HW212351   1.154   3.525  10.728
70193SOL     OW12352  14.093   6.641  12.150
70193SOL    HW112353  14.123   6.583  12.080
70193SOL    HW212354  14.173   6.681  12.184
70194SOL     OW12355   7.417   8.044   5.044
70194SOL    HW112356   7.397   8.115   4.983
70194SOL    HW212357   7.447   8.089   5.123
70195SOL     OW12358  10.333  11.242   3.475
70195SOL    HW112359  10.297  11.299   3.407
70195SOL    HW212360  10.428  11.256   3.470
70196SOL     OW12361  12.692  12.674   8.910
70196SOL    HW112362  12.747  12.716   8.843
70196SOL    HW212363  12.626  12.626   8.860
70197SOL     OW12364  10.763   4.165  12.846
70197SOL    HW112365  10.853   4.196  12.846
70197SOL    HW212366  10.714   4.234  12.891
70198SOL     OW12367   1.178   0.517   4.846
70198SOL    HW112368   1.100   0.461   4.843
70198SOL    HW212369   1.185   0.553   4.757
70199SOL     OW12370   3.340   2.751   1.743
70199SOL    HW112371   3.424   2.793   1.764
70199SOL    HW212372   3.302   2.806   1.674
70200SOL     OW12373   9.597   3.113   4.030
70200SOL    HW112374   9.670   3.053   4.039
70200SOL    HW212375   9.632   3.197   4.060
70201SOL     OW12376   4.976   9.476   1.172
70201SOL    HW112377   5.053   9.520   1.135
70201SOL    HW212378   4.921   9.546   1.205
70202SOL     OW12379   3.158   6.193   1.652
70202SOL    HW112380   3.207   6.241   1.586
70202SOL    HW212381   3.097   6.138   1.603
70203SOL     OW12382   1.465   4.088   7.395
70203SOL    HW112383   1.419   4.059   7.473
70203SOL    HW212384   1.407   4.066   7.322
70204SOL     OW12385   0.259   5.683   8.171
70204SOL    HW112386   0.173   5.720   8.191
70204SOL    HW212387   0.242   5.615   8.106
70205SOL     OW12388   8.534   9.009   5.113
70205SOL    HW112389   8.583   8.973   5.039
70205SOL    HW212390   8.488   8.935   5.151
70206SOL     OW12391  11.620   4.491   7.263
70206SOL    HW112392  11.588   4.572   7.304
70206SOL    HW212393  11.667   4.521   7.186
70207SOL     OW12394   5.504  11.066   9.087
70207SOL    HW112395   5.565  11.127   9.044
70207SOL    HW212396   5.558  10.992   9.113
70208SOL     OW12397   8.098   5.138   4.198
70208SOL    HW112398   8.058   5.052   4.209
70208SOL    HW212399   8.058   5.172   4.117
70209SOL     OW12400  10.679   6.991   7.382
70209SOL    HW112401  10.587   6.993   7.408
70209SOL    HW212402  10.679   6.941   7.300
70210SOL     OW12403   7.727   3.572   8.874
70210SOL    HW112404   7.724   3.491   8.823
70210SOL    HW212405   7.658   3.626   8.836
70211SOL     OW12406  11.865   3.152   4.510
70211SOL    HW112407  11.785   3.205   4.505
70211SOL    HW212408  11.835   3.062   4.491
70212SOL     OW12409   7.185   0.253  13.350
70212SOL    HW112410   7.151   0.192  13.416
70212SOL    HW212411   7.205   0.333  13.398
70213SOL     OW12412   2.360   1.769   7.321
70213SOL    HW112413   2.412   1.720   7.258
70213SOL    HW212414   2.338   1.851   7.277
70214SOL     OW12415   2.156   7.947   0.855
70214SOL    HW112416   2.161   7.969   0.762
70214SOL    HW212417   2.238   7.979   0.892
70215SOL     OW12418   0.744   6.082   4.543
70215SOL    HW112419   0.812   6.143   4.570
70215SOL    HW212420   0.690   6.070   4.621
70216SOL     OW12421   8.711   4.763   6.436
70216SOL    HW112422   8.776   4.702   6.469
70216SOL    HW212423   8.740   4.784   6.347
70217SOL     OW12424  10.275   1.150  13.559
70217SOL    HW112425  10.189   1.126  13.527
70217SOL    HW212426  10.335   1.126  13.488
70218SOL     OW12427   4.869   0.443  12.421
70218SOL    HW112428   4.917   0.367  12.454
70218SOL    HW212429   4.899   0.453  12.331
70219SOL     OW12430  14.072   0.332  13.719
70219SOL    HW112431  14.032   0.335  13.631
70219SOL    HW212432  14.136   0.261  13.713
70220SOL     OW12433   6.057  12.757   0.741
70220SOL    HW112434   6.141  12.727   0.776
70220SOL    HW212435   6.059  12.729   0.649
70221SOL     OW12436  14.494  12.716  14.150
70221SOL    HW112437  14.561  12.777  14.181
70221SOL    HW212438  14.508  12.637  14.203
70222SOL     OW12439  10.278   5.673   5.102
70222SOL    HW112440  10.296   5.647   5.192
70222SOL    HW212441  10.340   5.745   5.085
70223SOL     OW12442  14.277   9.484   0.624
70223SOL    HW112443  14.234   9.566   0.647
70223SOL    HW212444  14.360   9.510   0.585
70224SOL     OW12445   8.719   6.865   8.274
70224SOL    HW112446   8.706   6.772   8.292
70224SOL    HW212447   8.814   6.877   8.282
70225SOL     OW12448   1.750  12.418   2.036
70225SOL    HW112449   1.803  12.358   1.983
70225SOL    HW212450   1.770  12.504   2.001
70226SOL     OW12451   6.230  13.080   3.299
70226SOL    HW112452   6.318  13.049   3.321
70226SOL    HW212453   6.226  13.075   3.203
70227SOL     OW12454   3.642   8.548  10.925
70227SOL    HW112455   3.645   8.527  11.019
70227SOL    HW212456   3.554   8.581  10.911
70228SOL     OW12457   7.938   0.064  13.899
70228SOL    HW112458   8.014   0.006  13.902
70228SOL    HW212459   7.863   0.004  13.890
70229SOL     OW12460  12.643   2.517  10.717
70229SOL    HW112461  12.619   2.442  10.662
70229SOL    HW212462  12.627   2.593  10.662
70230SOL     OW12463  10.846   0.598  13.427
70230SOL    HW112464  10.879   0.522  13.475
70230SOL    HW212465  10.860   0.576  13.335
70231SOL     OW12466  14.016  12.079   6.225
70231SOL    HW112467  13.976  12.075   6.312
70231SOL    HW212468  14.024  12.173   6.207
70232SOL     OW12469  10.981   1.999   9.443
70232SOL    HW112470  11.024   1.922   9.480
70232SOL    HW212471  10.905   2.014   9.500
70233SOL     OW12472  14.272   1.769   0.294
70233SOL    HW112473  14.223   1.705   0.345
70233SOL    HW212474  14.321   1.820   0.360
70234SOL     OW12475   6.260  11.493   7.386
70234SOL    HW112476   6.197  11.434   7.343
70234SOL    HW212477   6.254  11.471   7.479
70235SOL     OW12478  14.681  10.909   8.232
70235SOL    HW112479  14.684  10.992   8.280
70235SOL    HW212480  14.769  10.873   8.241
70236SOL     OW12481   2.665   8.339   9.842
70236SOL    HW112482   2.642   8.326   9.934
70236SOL    HW212483   2.758   8.362   9.845
70237SOL     OW12484   4.536   4.202  14.713
70237SOL    HW112485   4.482   4.125  14.729
70237SOL    HW212486   4.613   4.168  14.668
70238SOL     OW12487  14.323   7.404  11.155
70238SOL    HW112488  14.341   7.425  11.247
70238SOL    HW212489  14.290   7.486  11.118
70239SOL     OW12490   5.969  10.340   4.070
70239SOL    HW112491   6.054  10.308   4.039
70239SOL    HW212492   5.974  10.435   4.059
70240SOL     OW12493   6.902   8.741  12.388
70240SOL    HW112494   6.987   8.699  12.398
70240SOL    HW212495   6.846   8.674  12.348
70241SOL     OW12496   0.506   7.842  14.603
70241SOL    HW112497   0.471   7.885  14.525
70241SOL    HW212498   0.548   7.763  14.570
70242SOL     OW12499   1.089   8.360   9.001
70242SOL    HW112500   1.006   8.391   9.038
70242SOL    HW212501   1.156   8.395   9.060
70243SOL     OW12502   5.331   3.348   0.128
70243SOL    HW112503   5.290   3.294   0.196
70243SOL    HW212504   5.299   3.311   0.046
70244SOL     OW12505   0.659   6.416   1.722
70244SOL    HW112506   0.649   6.372   1.637
70244SOL    HW212507   0.613   6.359   1.784
70245SOL     OW12508  13.521   1.943  14.464
70245SOL    HW112509  13.462   1.884  14.417
70245SOL    HW212510  13.500   2.030  14.429
70246SOL     OW12511   2.312   3.390  13.117
70246SOL    HW112512   2.255   3.319  13.145
70246SOL    HW212513   2.370   3.350  13.052
70247SOL     OW12514   3.771   2.070   1.529
70247SOL    HW112515   3.722   2.152   1.541
70247SOL    HW212516   3.763   2.051   1.436
70248SOL     OW12517   6.503   5.934   1.605
70248SOL    HW112518   6.589   5.895   1.591
70248SOL    HW212519   6.502   5.957   1.698
70249SOL     OW12520   2.578  11.226  11.591
70249SOL    HW112521   2.488  11.199  11.610
70249SOL    HW212522   2.576  11.254  11.500
70250SOL     OW12523  12.230   6.298  11.914
70250SOL    HW112524  12.310   6.246  11.924
70250SOL    HW212525  12.252   6.365  11.850
70251SOL     OW12526  11.980   9.905   6.904
70251SOL    HW112527  12.026   9.821   6.905
70251SOL    HW212528  11.983   9.934   6.995
70252SOL     OW12529   3.105  14.643   0.844
70252SOL    HW112530   3.069  14.615   0.928
70252SOL    HW212531   3.055  14.723   0.823
70253SOL     OW12532   8.023   3.717   8.594
70253SOL    HW112533   7.938   3.746   8.562
70253SOL    HW212534   8.030   3.756   8.682
70254SOL     OW12535   2.569  14.371   9.646
70254SOL    HW112536   2.485  14.416   9.632
70254SOL    HW212537   2.590  14.388   9.738
70255SOL     OW12538   9.739   6.787   9.818
70255SOL    HW112539   9.798   6.739   9.760
70255SOL    HW212540   9.693   6.848   9.761
70256SOL     OW12541   0.009   7.434   9.657
70256SOL    HW112542   0.076   7.427   9.588
70256SOL    HW212543   0.035   7.369   9.722
70257SOL     OW12544  13.688   9.855  12.427
70257SOL    HW112545  13.696   9.766  12.391
70257SOL    HW212546  13.777   9.879  12.452
70258SOL     OW12547  11.122   4.015  11.278
70258SOL    HW112548  11.147   4.017  11.371
70258SOL    HW212549  11.027   4.007  11.279
70259SOL     OW12550   6.828   4.719  11.380
70259SOL    HW112551   6.877   4.702  11.460
70259SOL    HW212552   6.753   4.771  11.408
70260SOL     OW12553   2.639   1.772   6.694
70260SOL    HW112554   2.624   1.678   6.697
70260SOL    HW212555   2.595   1.801   6.614
70261SOL     OW12556   7.342  13.805   9.490
70261SOL    HW112557   7.343  13.816   9.395
70261SOL    HW212558   7.430  13.774   9.511
70262SOL     OW12559   9.223  13.546  13.351
70262SOL    HW112560   9.313  13.565  13.378
70262SOL    HW212561   9.172  13.556  13.431
70263SOL     OW12562   9.936  13.400  12.580
70263SOL    HW112563   9.852  13.417  12.623
70263SOL    HW212564   9.971  13.487  12.561
70264SOL     OW12565   8.724   4.660  13.660
70264SOL    HW112566   8.727   4.754  13.676
70264SOL    HW212567   8.634   4.642  13.634
70265SOL     OW12568   1.376   5.559   4.501
70265SOL    HW112569   1.377   5.501   4.425
70265SOL    HW212570   1.453   5.533   4.552
70266SOL     OW12571   5.740   7.036   7.162
70266SOL    HW112572   5.758   7.047   7.255
70266SOL    HW212573   5.816   7.074   7.118
70267SOL     OW12574   2.675   6.446   9.682
70267SOL    HW112575   2.761   6.483   9.658
70267SOL    HW212576   2.696   6.362   9.722
70268SOL     OW12577   1.495  14.805   4.785
70268SOL    HW112578   1.563  14.869   4.768
70268SOL    HW212579   1.539  14.735   4.834
70269SOL     OW12580  14.135   7.898   6.875
70269SOL    HW112581  14.114   7.810   6.905
70269SOL    HW212582  14.187   7.935   6.946
70270SOL     OW12583  13.724   6.689   6.174
70270SOL    HW112584  13.809   6.711   6.137
70270SOL    HW212585  13.698   6.609   6.129
70271SOL     OW12586  10.223   2.774   0.011
70271SOL    HW112587  10.241   2.838   0.080
70271SOL    HW212588  10.192   2.827  14.815
70272SOL     OW12589   7.433   2.163   5.715
70272SOL    HW112590   7.470   2.135   5.631
70272SOL    HW212591   7.361   2.103   5.732
70273SOL     OW12592  10.285   7.146   4.649
70273SOL    HW112593  10.198   7.154   4.611
70273SOL    HW212594  10.271   7.145   4.743
70274SOL     OW12595   5.749   5.207   0.023
70274SOL    HW112596   5.751   5.214   0.119
70274SOL    HW212597   5.700   5.284  14.872
70275SOL     OW12598  13.198   1.770  11.424
70275SOL    HW112599  13.231   1.695  11.475
70275SOL    HW212600  13.275   1.825  11.411
70276SOL     OW12601  10.480   1.295   9.567
70276SOL    HW112602  10.565   1.313   9.529
70276SOL    HW212603  10.420   1.353   9.520
70277SOL     OW12604  11.273   8.030   1.696
70277SOL    HW112605  11.317   7.947   1.682
70277SOL    HW212606  11.185   8.006   1.726
70278SOL     OW12607   8.287  11.112   8.385
70278SOL    HW112608   8.340  11.036   8.359
70278SOL    HW212609   8.252  11.087   8.471
70279SOL     OW12610   4.541   8.923   4.406
70279SOL    HW112611   4.523   8.938   4.313
70279SOL    HW212612   4.630   8.889   4.408
70280SOL     OW12613   1.627  14.684  11.499
70280SOL    HW112614   1.635  14.602  11.450
70280SOL    HW212615   1.710  14.694  11.545
70281SOL     OW12616  10.075  12.816  10.721
70281SOL    HW112617  10.121  12.827  10.638
70281SOL    HW212618  10.064  12.722  10.731
70282SOL     OW12619   3.013   1.316   2.612
70282SOL    HW112620   3.085   1.322   2.675
70282SOL    HW212621   2.952   1.252   2.650
70283SOL     OW12622  13.222   2.229   1.388
70283SOL    HW112623  13.281   2.189   1.453
70283SOL    HW212624  13.235   2.176   1.309
70284SOL     OW12625  12.772  14.529   6.597
70284SOL    HW112626  12.701  14.587   6.623
70284SOL    HW212627  12.739  14.484   6.520
70285SOL     OW12628  10.190   5.987   5.732
70285SOL    HW112629  10.205   6.081   5.716
70285SOL    HW212630  10.188   5.980   5.827
70286SOL     OW12631  11.667  12.079  10.195
70286SOL    HW112632  11.618  12.159  10.179
70286SOL    HW212633  11.693  12.049  10.108
70287SOL     OW12634  12.082   8.320   9.405
70287SOL    HW112635  12.025   8.270   9.464
70287SOL    HW212636  12.023   8.376   9.356
70288SOL     OW12637   5.688  11.359   5.582
70288SOL    HW112638   5.746  11.340   5.508
70288SOL    HW212639   5.642  11.277   5.598
70289SOL     OW12640  11.168   8.652   6.967
70289SOL    HW112641  11.133   8.741   6.961
70289SOL    HW212642  11.092   8.595   6.956
70290SOL     OW12643   4.488   4.330  14.454
70290SOL    HW112644   4.528   4.298  14.535
70290SOL    HW212645   4.498   4.425  14.458
70291SOL     OW12646   6.667  12.764   6.058
70291SOL    HW112647   6.701  12.683   6.095
70291SOL    HW212648   6.709  12.771   5.972
70292SOL     OW12649  11.174   6.377   7.128
70292SOL    HW112650  11.242   6.341   7.184
70292SOL    HW212651  11.129   6.442   7.183
70293SOL     OW12652   7.243   3.882   5.966
70293SOL    HW112653   7.327   3.843   5.988
70293SOL    HW212654   7.215   3.837   5.886
70294SOL     OW12655   0.382   6.538   2.010
70294SOL    HW112656   0.368   6.570   1.920
70294SOL    HW212657   0.394   6.618   2.062
70295SOL     OW12658   7.759   3.966  13.349
70295SOL    HW112659   7.731   3.987  13.438
70295SOL    HW212660   7.739   4.045  13.298
70296SOL     OW12661  13.118   1.537   0.116
70296SOL    HW112662  13.089   1.516   0.028
70296SOL    HW212663  13.199   1.587   0.104
70297SOL     OW12664  14.821   0.180   2.343
70297SOL    HW112665  14.863   0.094   2.338
70297SOL    HW212666  14.873   0.229   2.407
70298SOL     OW12667   5.992   4.441   4.623
70298SOL    HW112668   6.011   4.361   4.573
70298SOL    HW212669   5.935   4.492   4.566
70299SOL     OW12670   1.877  12.937  11.187
70299SOL    HW112671   1.839  12.988  11.116
70299SOL    HW212672   1.884  12.999  11.260
70300SOL     OW12673   3.449   9.709   2.944
70300SOL    HW112674   3.441   9.693   2.850
70300SOL    HW212675   3.359   9.722   2.975
70301SOL     OW12676   4.327   5.193   0.202
70301SOL    HW112677   4.255   5.221   0.145
70301SOL    HW212678   4.385   5.144   0.144
70302SOL     OW12679   7.599  11.631   9.799
70302SOL    HW112680   7.537  11.607   9.730
70302SOL    HW212681   7.641  11.549   9.824
70303SOL     OW12682   9.505  11.815   6.225
70303SOL    HW112683   9.568  11.790   6.293
70303SOL    HW212684   9.422  11.822   6.272
70304SOL     OW12685   7.957   0.581   9.572
70304SOL    HW112686   7.994   0.532   9.499
70304SOL    HW212687   8.017   0.654   9.586
70305SOL     OW12688   4.796   8.219  13.142
70305SOL    HW112689   4.744   8.139  13.137
70305SOL    HW212690   4.766   8.272  13.068
70306SOL     OW12691   4.827  11.375  14.347
70306SOL    HW112692   4.740  11.356  14.314
70306SOL    HW212693   4.838  11.470  14.333
70307SOL     OW12694   1.071   6.824   9.207
70307SOL    HW112695   1.116   6.882   9.269
70307SOL    HW212696   1.134   6.754   9.189
70308SOL     OW12697  13.375  14.130   3.472
70308SOL    HW112698  13.386  14.222   3.448
70308SOL    HW212699  13.463  14.094   3.472
70309SOL     OW12700   5.480   6.630   4.136
70309SOL    HW112701   5.514   6.718   4.117
70309SOL    HW212702   5.391   6.630   4.101
70310SOL     OW12703   0.914   9.363   3.662
70310SOL    HW112704   0.892   9.432   3.600
70310SOL    HW212705   0.873   9.390   3.744
70311SOL     OW12706   4.811  13.539   1.567
70311SOL    HW112707   4.848  13.465   1.519
70311SOL    HW212708   4.782  13.501   1.650
70312SOL     OW12709   3.361  12.825   2.650
70312SOL    HW112710   3.411  12.775   2.585
70312SOL    HW212711   3.272  12.790   2.643
70313SOL     OW12712   8.298   0.872  12.194
70313SOL    HW112713   8.375   0.856  12.138
70313SOL    HW212714   8.334   0.882  12.282
70314SOL     OW12715  10.416  13.389   0.543
70314SOL    HW112716  10.422  13.369   0.450
70314SOL    HW212717  10.404  13.304   0.585
70315SOL     OW12718   0.274   3.514  12.488
70315SOL    HW112719   0.184   3.545  12.497
70315SOL    HW212720   0.320   3.587  12.447
70316SOL     OW12721   0.789  11.411  10.699
70316SOL    HW112722   0.798  11.394  10.606
70316SOL    HW212723   0.851  11.482  10.717
70317SOL     OW12724  13.332   3.115   1.681
70317SOL    HW112725  13.387   3.142   1.608
70317SOL    HW212726  13.300   3.198   1.718
70318SOL     OW12727   4.691  14.511   4.082
70318SOL    HW112728   4.714  14.449   4.152
70318SOL    HW212729   4.772  14.520   4.031
70319SOL     OW12730  14.045  12.358   7.741
70319SOL    HW112731  13.992  12.358   7.820
70319SOL    HW212732  13.988  12.395   7.674
70320SOL     OW12733  12.921   2.392   7.517
70320SOL    HW112734  13.011   2.363   7.533
70320SOL    HW212735  12.868   2.314   7.531
70321SOL     OW12736   4.957  10.456   1.752
70321SOL    HW112737   4.865  10.479   1.743
70321SOL    HW212738   4.993  10.523   1.810
70322SOL     OW12739   0.496  12.817   9.415
70322SOL    HW112740   0.548  12.737   9.422
70322SOL    HW212741   0.514  12.850   9.327
70323SOL     OW12742   7.989   6.382   6.317
70323SOL    HW112743   7.935   6.446   6.362
70323SOL    HW212744   8.074   6.425   6.307
70324SOL     OW12745  10.810   3.425  11.920
70324SOL    HW112746  10.850   3.488  11.860
70324SOL    HW212747  10.849   3.445  12.005
70325SOL     OW12748  12.095   6.359  12.664
70325SOL    HW112749  12.155   6.291  12.633
70325SOL    HW212750  12.150   6.436  12.678
70326SOL     OW12751   5.150   2.059   3.565
70326SOL    HW112752   5.085   2.007   3.612
70326SOL    HW212753   5.175   2.004   3.491
70327SOL     OW12754   4.378   4.997  11.493
70327SOL    HW112755   4.340   5.041  11.417
70327SOL    HW212756   4.304   4.953  11.535
70328SOL     OW12757   3.846   7.622   3.609
70328SOL    HW112758   3.771   7.597   3.664
70328SOL    HW212759   3.813   7.615   3.520
70329SOL     OW12760   4.984   4.696  12.966
70329SOL    HW112761   5.064   4.643  12.969
70329SOL    HW212762   4.923   4.649  13.023
70330SOL     OW12763  11.759   6.971  10.732
70330SOL    HW112764  11.678   6.995  10.777
70330SOL    HW212765  11.775   7.043  10.671
70331SOL     OW12766   6.955  11.616  14.713
70331SOL    HW112767   6.899  11.541  14.735
70331SOL    HW212768   7.020  11.581  14.653
70332SOL     OW12769   5.297   0.180  12.917
70332SOL    HW112770   5.262   0.264  12.948
70332SOL    HW212771   5.366   0.158  12.979
70333SOL     OW12772  10.364   0.800   8.202
70333SOL    HW112773  10.332   0.852   8.128
70333SOL    HW212774  10.293   0.740   8.223
70334SOL     OW12775   3.484   6.660   9.594
70334SOL    HW112776   3.439   6.743   9.582
70334SOL    HW212777   3.525   6.667   9.681
70335SOL     OW12778   5.473   0.952  11.817
70335SOL    HW112779   5.523   0.901  11.753
70335SOL    HW212780   5.494   1.043  11.796
70336SOL     OW12781   1.553   1.804   5.527
70336SOL    HW112782   1.508   1.787   5.610
70336SOL    HW212783   1.645   1.818   5.551
70337SOL     OW12784   8.340  11.696  13.552
70337SOL    HW112785   8.401  11.764  13.579
70337SOL    HW212786   8.266  11.703  13.613
70338SOL     OW12787   8.862   4.882   9.123
70338SOL    HW112788   8.783   4.913   9.168
70338SOL    HW212789   8.926   4.870   9.193
70339SOL     OW12790   4.884   2.808   1.274
70339SOL    HW112791   4.806   2.754   1.264
70339SOL    HW212792   4.922   2.780   1.357
70340SOL     OW12793   2.993  11.785   9.308
70340SOL    HW112794   3.078  11.822   9.330
70340SOL    HW212795   2.990  11.785   9.213
70341SOL     OW12796   9.348   4.056   5.303
70341SOL    HW112797   9.434   4.014   5.298
70341SOL    HW212798   9.304   4.013   5.376
70342SOL     OW12799  12.202   5.122  13.303
70342SOL    HW112800  12.139   5.061  13.340
70342SOL    HW212801  12.172   5.136  13.213
70343SOL     OW12802   3.665  13.814  14.739
70343SOL    HW112803   3.624  13.901  14.744
70343SOL    HW212804   3.675  13.787  14.830
70344SOL     OW12805   1.954   7.728   2.206
70344SOL    HW112806   1.991   7.741   2.119
70344SOL    HW212807   1.877   7.673   2.192
70345SOL     OW12808   8.662   3.959   3.073
70345SOL    HW112809   8.572   3.979   3.048
70345SOL    HW212810   8.691   4.035   3.124
70346SOL     OW12811  14.003   0.208   9.607
70346SOL    HW112812  14.092   0.242   9.607
70346SOL    HW212813  13.948   0.286   9.597
70347SOL     OW12814   8.305  11.330   4.969
70347SOL    HW112815   8.302  11.407   4.913
70347SOL    HW212816   8.325  11.364   5.056
70348SOL     OW12817  14.454   2.905   3.128
70348SOL    HW112818  14.519   2.884   3.061
70348SOL    HW212819  14.466   2.837   3.195
70349SOL     OW12820   8.566   2.456   1.575
70349SOL    HW112821   8.660   2.448   1.560
70349SOL    HW212822   8.549   2.403   1.653
70350SOL     OW12823   4.010  13.577   3.306
70350SOL    HW112824   4.060  13.656   3.289
70350SOL    HW212825   4.002  13.535   3.220
70351SOL     OW12826  12.545  11.727   0.778
70351SOL    HW112827  12.543  11.771   0.693
70351SOL    HW212828  12.554  11.634   0.756
70352SOL     OW12829   7.165  14.408   6.531
70352SOL    HW112830   7.194  14.490   6.571
70352SOL    HW212831   7.115  14.365   6.600
70353SOL     OW12832   8.874   3.156   9.539
70353SOL    HW112833   8.906   3.077   9.496
70353SOL    HW212834   8.780   3.156   9.521
70354SOL     OW12835   4.505   8.383   9.785
70354SOL    HW112836   4.526   8.441   9.711
70354SOL    HW212837   4.411   8.394   9.798
70355SOL     OW12838   8.257   3.866  10.763
70355SOL    HW112839   8.192   3.841  10.698
70355SOL    HW212840   8.212   3.859  10.847
70356SOL     OW12841  13.930   4.067   2.609
70356SOL    HW112842  13.961   3.976   2.611
70356SOL    HW212843  13.996   4.114   2.557
70357SOL     OW12844  13.538  13.113   0.916
70357SOL    HW112845  13.610  13.080   0.969
70357SOL    HW212846  13.536  13.207   0.933
70358SOL     OW12847   0.250   9.134   0.824
70358SOL    HW112848   0.300   9.053   0.819
70358SOL    HW212849   0.159   9.106   0.823
70359SOL     OW12850  11.106   2.216   9.301
70359SOL    HW112851  11.057   2.138   9.329
70359SOL    HW212852  11.054   2.289   9.332
70360SOL     OW12853  13.364   3.753   6.961
70360SOL    HW112854  13.331   3.792   7.042
70360SOL    HW212855  13.450   3.717   6.984
70361SOL     OW12856   1.518  14.848   8.682
70361SOL    HW112857   1.512  14.752   8.687
70361SOL    HW212858   1.469  14.871   8.603
70362SOL     OW12859   2.784   6.569   1.686
70362SOL    HW112860   2.695   6.539   1.665
70362SOL    HW212861   2.801   6.639   1.622
70363SOL     OW12862  11.411   8.370   8.211
70363SOL    HW112863  11.449   8.283   8.199
70363SOL    HW212864  11.448   8.422   8.141
70364SOL     OW12865  13.056  12.555   7.389
70364SOL    HW112866  13.134  12.589   7.346
70364SOL    HW212867  13.071  12.460   7.393
70365SOL     OW12868  14.623  14.001  11.239
70365SOL    HW112869  14.691  14.008  11.306
70365SOL    HW212870  14.601  13.908  11.236
70366SOL     OW12871  12.914   6.315  11.895
70366SOL    HW112872  12.965   6.306  11.975
70366SOL    HW212873  12.844   6.376  11.918
70367SOL     OW12874   7.166   9.097   7.157
70367SOL    HW112875   7.224   9.158   7.112
70367SOL    HW212876   7.215   9.015   7.160
70368SOL     OW12877   5.461  13.356  13.767
70368SOL    HW112878   5.453  13.332  13.675
70368SOL    HW212879   5.403  13.431  13.778
70369SOL     OW12880  14.318   7.124  11.311
70369SOL    HW112881  14.407   7.089  11.316
70369SOL    HW212882  14.323   7.194  11.246
70370SOL     OW12883   8.594  14.037   4.288
70370SOL    HW112884   8.648  14.113   4.265
70370SOL    HW212885   8.597  14.034   4.384
70371SOL     OW12886  13.592   6.391   2.100
70371SOL    HW112887  13.631   6.307   2.075
70371SOL    HW212888  13.501   6.385   2.070
70372SOL     OW12889  14.678   0.944   6.358
70372SOL    HW112890  14.614   1.006   6.393
70372SOL    HW212891  14.625   0.881   6.309
70373SOL     OW12892   5.616  12.056   5.524
70373SOL    HW112893   5.665  12.018   5.597
70373SOL    HW212894   5.679  12.113   5.480
70374SOL     OW12895  12.209   6.876   0.667
70374SOL    HW112896  12.143   6.945   0.663
70374SOL    HW212897  12.232   6.870   0.760
70375SOL     OW12898   8.704   9.433  12.433
70375SOL    HW112899   8.754   9.408  12.355
70375SOL    HW212900   8.659   9.513  12.407
70376SOL     OW12901  14.523   9.980  14.474
70376SOL    HW112902  14.579   9.904  14.484
70376SOL    HW212903  14.537  10.031  14.554
70377SOL     OW12904  10.028   7.795   5.651
70377SOL    HW112905   9.977   7.798   5.732
70377SOL    HW212906  10.019   7.704   5.621
70378SOL     OW12907   7.043  13.491   5.218
70378SOL    HW112908   6.950  13.481   5.197
70378SOL    HW212909   7.044  13.504   5.313
70379SOL     OW12910   8.845   0.791   9.765
70379SOL    HW112911   8.892   0.744   9.833
70379SOL    HW212912   8.893   0.873   9.754
70380SOL     OW12913   3.979  11.859   1.001
70380SOL    HW112914   4.052  11.920   0.999
70380SOL    HW212915   3.968  11.837   1.093
70381SOL     OW12916   7.705   0.355   7.108
70381SOL    HW112917   7.651   0.285   7.072
70381SOL    HW212918   7.737   0.403   7.032
70382SOL     OW12919   6.228  11.005   1.588
70382SOL    HW112920   6.224  11.095   1.620
70382SOL    HW212921   6.158  11.000   1.523
70383SOL     OW12922   7.919   0.201   4.847
70383SOL    HW112923   7.961   0.243   4.772
70383SOL    HW212924   7.878   0.273   4.894
70384SOL     OW12925   0.326  11.537   3.946
70384SOL    HW112926   0.246  11.539   3.895
70384SOL    HW212927   0.297  11.552   4.036
70385SOL     OW12928   5.364   8.616   4.457
70385SOL    HW112929   5.408   8.533   4.479
70385SOL    HW212930   5.330   8.601   4.369
70386SOL     OW12931   8.946  11.679   9.444
70386SOL    HW112932   8.852  11.662   9.435
70386SOL    HW212933   8.986  11.626   9.375
70387SOL     OW12934   1.290   9.633   2.445
70387SOL    HW112935   1.240   9.691   2.502
70387SOL    HW212936   1.381   9.659   2.458
70388SOL     OW12937   7.865  12.919  13.419
70388SOL    HW112938   7.949  12.881  13.446
70388SOL    HW212939   7.822  12.942  13.501
70389SOL     OW12940   5.990   1.415   1.841
70389SOL    HW112941   6.014   1.353   1.772
70389SOL    HW212942   5.895   1.423   1.832
70390SOL     OW12943  14.122   3.319   1.029
70390SOL    HW112944  14.166   3.234   1.025
70390SOL    HW212945  14.036   3.300   1.068
70391SOL     OW12946   7.051   9.450   1.668
70391SOL    HW112947   7.113   9.411   1.606
70391SOL    HW212948   6.968   9.449   1.621
70392SOL     OW12949   6.803  10.062   3.461
70392SOL    HW112950   6.771  10.077   3.550
70392SOL    HW212951   6.739  10.002   3.423
70393SOL     OW12952  10.090   6.358   2.983
70393SOL    HW112953  10.179   6.368   2.949
70393SOL    HW212954  10.090   6.408   3.064
70394SOL     OW12955   4.591   8.621   6.010
70394SOL    HW112956   4.539   8.683   5.960
70394SOL    HW212957   4.538   8.602   6.087
70395SOL     OW12958  10.119  12.828   9.626
70395SOL    HW112959  10.193  12.789   9.580
70395SOL    HW212960  10.085  12.757   9.681
70396SOL     OW12961   8.415   5.011   5.572
70396SOL    HW112962   8.410   5.052   5.486
70396SOL    HW212963   8.490   5.052   5.614
70397SOL     OW12964   9.499   2.565   1.977
70397SOL    HW112965   9.468   2.553   2.067
70397SOL    HW212966   9.516   2.659   1.970
70398SOL     OW12967   5.133   2.459  13.259
70398SOL    HW112968   5.209   2.454  13.317
70398SOL    HW212969   5.107   2.551  13.262
70399SOL     OW12970   9.102   1.654   9.950
70399SOL    HW112971   9.123   1.561   9.958
70399SOL    HW212972   9.179   1.692   9.908
70400SOL     OW12973   2.330   0.496  11.219
70400SOL    HW112974   2.238   0.514  11.241
70400SOL    HW212975   2.325   0.447  11.137
70401SOL     OW12976  11.605  12.280   4.314
70401SOL    HW112977  11.642  12.358   4.356
70401SOL    HW212978  11.563  12.232   4.385
70402SOL     OW12979   0.480   6.739   2.716
70402SOL    HW112980   0.416   6.808   2.735
70402SOL    HW212981   0.553   6.758   2.775
70403SOL     OW12982   2.522   7.701  14.363
70403SOL    HW112983   2.613   7.712  14.335
70403SOL    HW212984   2.526   7.635  14.431
70404SOL     OW12985  14.591  12.305   3.856
70404SOL    HW112986  14.595  12.245   3.930
70404SOL    HW212987  14.669  12.285   3.804
70405SOL     OW12988   9.935  13.048   8.259
70405SOL    HW112989   9.857  13.055   8.313
70405SOL    HW212990   9.987  12.979   8.300
70406SOL     OW12991  14.822  10.678  14.676
70406SOL    HW112992  14.826  10.751  14.614
70406SOL    HW212993  14.850  10.602  14.626
70407SOL     OW12994  13.293   6.821   4.485
70407SOL    HW112995  13.388   6.820   4.484
70407SOL    HW212996  13.267   6.730   4.467
70408SOL     OW12997   8.067   7.683   6.503
70408SOL    HW112998   8.138   7.713   6.560
70408SOL    HW212999   8.112   7.656   6.422
70409SOL     OW13000   4.264  12.470   5.975
70409SOL    HW113001   4.306  12.471   5.889
70409SOL    HW213002   4.318  12.410   6.026
70410SOL     OW13003  11.852   1.282   3.516
70410SOL    HW113004  11.895   1.344   3.458
70410SOL    HW213005  11.923   1.246   3.569
70411SOL     OW13006  12.979  14.588   4.065
70411SOL    HW113007  12.892  14.622   4.042
70411SOL    HW213008  13.040  14.649   4.024
70412SOL     OW13009   8.561   8.655  12.229
70412SOL    HW113010   8.531   8.569  12.200
70412SOL    HW213011   8.626   8.636  12.297
70413SOL     OW13012   5.472   5.378   7.994
70413SOL    HW113013   5.502   5.466   7.972
70413SOL    HW213014   5.444   5.384   8.086
70414SOL     OW13015   3.152  11.201   1.300
70414SOL    HW113016   3.179  11.187   1.390
70414SOL    HW213017   3.232  11.189   1.249
70415SOL     OW13018   9.950   4.986  14.288
70415SOL    HW113019  10.010   4.913  14.275
70415SOL    HW213020   9.953   5.002  14.382
70416SOL     OW13021   5.955   7.758   9.506
70416SOL    HW113022   5.946   7.822   9.577
70416SOL    HW213023   5.999   7.684   9.547
70417SOL     OW13024  12.920   0.027   4.151
70417SOL    HW113025  12.932   0.118   4.179
70417SOL    HW213026  12.999   0.006   4.100
70418SOL     OW13027   6.600   3.604   4.908
70418SOL    HW113028   6.606   3.524   4.960
70418SOL    HW213029   6.691   3.631   4.895
70419SOL     OW13030  11.912   2.675  14.822
70419SOL    HW113031  11.988   2.668   0.003
70419SOL    HW213032  11.889   2.768  14.823
70420SOL     OW13033  13.054  10.835   4.975
70420SOL    HW113034  13.055  10.918   4.927
70420SOL    HW213035  13.041  10.860   5.066
70421SOL     OW13036  14.231   4.682   7.015
70421SOL    HW113037  14.207   4.651   7.102
70421SOL    HW213038  14.148   4.706   6.973
70422SOL     OW13039   7.958  10.238   6.749
70422SOL    HW113040   7.877  10.258   6.795
70422SOL    HW213041   7.966  10.307   6.683
70423SOL     OW13042  13.454   4.781  13.490
70423SOL    HW113043  13.495   4.828  13.418
70423SOL    HW213044  13.403   4.847  13.537
70424SOL     OW13045   0.850   2.551   6.364
70424SOL    HW113046   0.825   2.466   6.328
70424SOL    HW213047   0.768   2.599   6.374
70425SOL     OW13048   1.344  11.382  12.746
70425SOL    HW113049   1.416  11.321  12.768
70425SOL    HW213050   1.389  11.462  12.719
70426SOL     OW13051   5.514   0.017   5.151
70426SOL    HW113052   5.598   0.061   5.138
70426SOL    HW213053   5.499   0.020   5.245
70427SOL     OW13054   8.471   9.655   7.949
70427SOL    HW113055   8.507   9.598   8.017
70427SOL    HW213056   8.442   9.595   7.880
70428SOL     OW13057   4.481   2.757  13.643
70428SOL    HW113058   4.402   2.719  13.680
70428SOL    HW213059   4.458   2.778  13.552
70429SOL     OW13060   6.476  11.011   4.681
70429SOL    HW113061   6.547  11.075   4.678
70429SOL    HW213062   6.431  11.022   4.597
70430SOL     OW13063   0.396   4.230  10.315
70430SOL    HW113064   0.423   4.141  10.294
70430SOL    HW213065   0.474   4.283  10.298
70431SOL     OW13066   0.408  12.382   3.967
70431SOL    HW113067   0.394  12.290   3.948
70431SOL    HW213068   0.379  12.428   3.888
70432SOL     OW13069  11.507  13.823   1.001
70432SOL    HW113070  11.576  13.888   1.009
70432SOL    HW213071  11.491  13.793   1.090
70433SOL     OW13072   6.249   6.798   8.680
70433SOL    HW113073   6.306   6.874   8.666
70433SOL    HW213074   6.305   6.732   8.721
70434SOL     OW13075   2.752   4.794  13.238
70434SOL    HW113076   2.829   4.832  13.195
70434SOL    HW213077   2.785   4.766  13.324
70435SOL     OW13078   2.553  13.146  14.356
70435SOL    HW113079   2.532  13.061  14.317
70435SOL    HW213080   2.471  13.175  14.396
70436SOL     OW13081  13.777   1.238   8.357
70436SOL    HW113082  13.802   1.160   8.308
70436SOL    HW213083  13.687   1.255   8.330
70437SOL     OW13084  11.754   1.768   1.569
70437SOL    HW113085  11.849   1.758   1.561
70437SOL    HW213086  11.724   1.783   1.480
70438SOL     OW13087   0.063   6.421  11.780
70438SOL    HW113088   0.065   6.472  11.699
70438SOL    HW213089   0.011   6.344  11.759
70439SOL     OW13090   7.588  14.720   5.321
70439SOL    HW113091   7.597  14.798   5.376
70439SOL    HW213092   7.671  14.713   5.275
70440SOL     OW13093   9.163  14.303  10.222
70440SOL    HW113094   9.130  14.343  10.303
70440SOL    HW213095   9.204  14.375  10.175
70441SOL     OW13096   9.082  13.776  14.236
70441SOL    HW113097   9.034  13.777  14.318
70441SOL    HW213098   9.104  13.868  14.219
70442SOL     OW13099   5.416   8.575  14.271
70442SOL    HW113100   5.490   8.515  14.265
70442SOL    HW213101   5.345   8.521  14.307
70443SOL     OW13102   7.435   4.897   3.228
70443SOL    HW113103   7.361   4.952   3.200
70443SOL    HW213104   7.403   4.808   3.220
70444SOL     OW13105  12.023   5.322   0.886
70444SOL    HW113106  11.951   5.286   0.834
70444SOL    HW213107  12.074   5.246   0.914
70445SOL     OW13108  12.802   4.572  13.141
70445SOL    HW113109  12.852   4.561  13.221
70445SOL    HW213110  12.799   4.667  13.127
70446SOL     OW13111   9.800   1.627  13.832
70446SOL    HW113112   9.770   1.633  13.923
70446SOL    HW213113   9.720   1.634  13.780
70447SOL     OW13114   5.695  12.284   6.368
70447SOL    HW113115   5.673  12.252   6.455
70447SOL    HW213116   5.724  12.375   6.382
70448SOL     OW13117   1.025   5.108   8.279
70448SOL    HW113118   1.012   5.146   8.366
70448SOL    HW213119   1.025   5.183   8.219
70449SOL     OW13120   2.864   2.546   6.203
70449SOL    HW113121   2.779   2.590   6.203
70449SOL    HW213122   2.890   2.545   6.111
70450SOL     OW13123   8.765   6.556  13.762
70450SOL    HW113124   8.738   6.567  13.853
70450SOL    HW213125   8.849   6.509  13.767
70451SOL     OW13126  10.273  11.982   5.278
70451SOL    HW113127  10.365  11.958   5.289
70451SOL    HW213128  10.235  11.908   5.231
70452SOL     OW13129  12.934  10.377  12.752
70452SOL    HW113130  12.858  10.433  12.736
70452SOL    HW213131  12.904  10.313  12.815
70453SOL     OW13132  13.838  13.879  12.442
70453SOL    HW113133  13.895  13.886  12.518
70453SOL    HW213134  13.798  13.965  12.433
70454SOL     OW13135   4.549   6.679   0.593
70454SOL    HW113136   4.539   6.730   0.673
70454SOL    HW213137   4.562   6.589   0.623
70455SOL     OW13138   5.481   7.933   1.830
70455SOL    HW113139   5.536   7.993   1.779
70455SOL    HW213140   5.544   7.882   1.882
70456SOL     OW13141   3.001   2.649   2.538
70456SOL    HW113142   3.085   2.664   2.581
70456SOL    HW213143   3.007   2.694   2.454
70457SOL     OW13144   4.560  14.538   4.503
70457SOL    HW113145   4.484  14.507   4.552
70457SOL    HW213146   4.549  14.633   4.499
70458SOL     OW13147  13.340   7.806   7.536
70458SOL    HW113148  13.277   7.735   7.551
70458SOL    HW213149  13.370   7.793   7.447
70459SOL     OW13150   7.238   8.306   7.894
70459SOL    HW113151   7.313   8.247   7.897
70459SOL    HW213152   7.212   8.317   7.985
70460SOL     OW13153  12.435   9.700   4.999
70460SOL    HW113154  12.509   9.698   5.061
70460SOL    HW213155  12.428   9.792   4.974
70461SOL     OW13156   3.942   2.753  14.315
70461SOL    HW113157   3.890   2.806  14.376
70461SOL    HW213158   4.030   2.752  14.353
70462SOL     OW13159   5.455  13.635  10.113
70462SOL    HW113160   5.496  13.591  10.038
70462SOL    HW213161   5.507  13.714  10.125
70463SOL     OW13162   1.567   5.955   0.413
70463SOL    HW113163   1.640   5.911   0.369
70463SOL    HW213164   1.489   5.918   0.373
70464SOL     OW13165   5.488   7.843  11.657
70464SOL    HW113166   5.434   7.809  11.585
70464SOL    HW213167   5.521   7.926  11.624
70465SOL     OW13168   2.648   0.202  12.293
70465SOL    HW113169   2.617   0.158  12.372
70465SOL    HW213170   2.599   0.161  12.222
70466SOL     OW13171  10.954   2.647   7.346
70466SOL    HW113172  10.888   2.689   7.291
70466SOL    HW213173  10.968   2.561   7.305
70467SOL     OW13174  12.662   2.037   8.473
70467SOL    HW113175  12.655   2.026   8.568
70467SOL    HW213176  12.579   2.079   8.448
70468SOL     OW13177  14.134   8.869   1.839
70468SOL    HW113178  14.063   8.930   1.853
70468SOL    HW213179  14.116   8.796   1.900
70469SOL     OW13180  10.341  10.757  12.859
70469SOL    HW113181  10.316  10.766  12.767
70469SOL    HW213182  10.414  10.818  12.870
70470SOL     OW13183   6.713   5.857   0.392
70470SOL    HW113184   6.760   5.880   0.312
70470SOL    HW213185   6.688   5.940   0.431
70471SOL     OW13186  13.272   0.055  13.093
70471SOL    HW113187  13.177   0.043  13.101
70471SOL    HW213188  13.283   0.143  13.058
70472SOL     OW13189   7.512   6.946   1.235
70472SOL    HW113190   7.587   6.910   1.282
70472SOL    HW213191   7.539   6.946   1.143
70473SOL     OW13192   4.330   2.553   6.576
70473SOL    HW113193   4.306   2.646   6.574
70473SOL    HW213194   4.330   2.526   6.484
70474SOL     OW13195   5.168   2.094   0.663
70474SOL    HW113196   5.250   2.140   0.645
70474SOL    HW213197   5.127   2.084   0.578
70475SOL     OW13198   4.625   3.361  13.312
70475SOL    HW113199   4.698   3.353  13.373
70475SOL    HW213200   4.605   3.454  13.310
70476SOL     OW13201  11.762   7.799   0.966
70476SOL    HW113202  11.715   7.803   0.883
70476SOL    HW213203  11.852   7.779   0.942
70477SOL     OW13204   1.972   6.540   1.469
70477SOL    HW113205   2.038   6.546   1.538
70477SOL    HW213206   1.907   6.480   1.503
70478SOL     OW13207   2.325   0.192  12.913
70478SOL    HW113208   2.302   0.232  12.829
70478SOL    HW213209   2.421   0.202  12.919
70479SOL     OW13210  13.834   1.313   6.955
70479SOL    HW113211  13.873   1.257   7.023
70479SOL    HW213212  13.741   1.290   6.956
70480SOL     OW13213   7.006  13.109   9.231
70480SOL    HW113214   6.937  13.154   9.280
70480SOL    HW213215   7.021  13.164   9.155
70481SOL     OW13216  13.873   3.660   3.082
70481SOL    HW113217  13.901   3.747   3.053
70481SOL    HW213218  13.955   3.611   3.089
70482SOL     OW13219   8.498   7.268   5.801
70482SOL    HW113220   8.574   7.315   5.834
70482SOL    HW213221   8.484   7.197   5.863
70483SOL     OW13222   4.812   1.608   3.580
70483SOL    HW113223   4.853   1.575   3.660
70483SOL    HW213224   4.861   1.567   3.509
70484SOL     OW13225  12.337   3.951   4.686
70484SOL    HW113226  12.378   4.012   4.626
70484SOL    HW213227  12.334   3.997   4.770
70485SOL     OW13228   3.877   3.775   1.080
70485SOL    HW113229   3.933   3.787   1.156
70485SOL    HW213230   3.793   3.747   1.117
70486SOL     OW13231   7.847   0.415  13.130
70486SOL    HW113232   7.782   0.436  13.063
70486SOL    HW213233   7.796   0.394  13.208
70487SOL     OW13234   6.418  12.510   5.306
70487SOL    HW113235   6.481  12.492   5.376
70487SOL    HW213236   6.382  12.597   5.328
70488SOL     OW13237   1.110  11.576   1.910
70488SOL    HW113238   1.081  11.485   1.904
70488SOL    HW213239   1.100  11.611   1.821
70489SOL     OW13240   3.814   2.225   0.779
70489SOL    HW113241   3.858   2.286   0.838
70489SOL    HW213242   3.840   2.253   0.691
70490SOL     OW13243  13.546  12.210   1.377
70490SOL    HW113244  13.510  12.140   1.431
70490SOL    HW213245  13.515  12.291   1.418
70491SOL     OW13246  12.864   5.224   6.517
70491SOL    HW113247  12.876   5.271   6.434
70491SOL    HW213248  12.772   5.198   6.517
70492SOL     OW13249  13.691  10.318   8.945
70492SOL    HW113250  13.749  10.384   8.982
70492SOL    HW213251  13.715  10.314   8.853
70493SOL     OW13252   2.561   8.632   2.295
70493SOL    HW113253   2.598   8.612   2.381
70493SOL    HW213254   2.634   8.618   2.234
70494SOL     OW13255   9.846   3.447  14.651
70494SOL    HW113256   9.820   3.467  14.561
70494SOL    HW213257   9.904   3.519  14.676
70495SOL     OW13258   7.481  13.488   9.474
70495SOL    HW113259   7.514  13.546   9.542
70495SOL    HW213260   7.481  13.401   9.514
70496SOL     OW13261  12.827   7.443   4.353
70496SOL    HW113262  12.794   7.532   4.342
70496SOL    HW213263  12.922   7.453   4.364
70497SOL     OW13264   8.514  13.471  13.737
70497SOL    HW113265   8.532  13.506  13.650
70497SOL    HW213266   8.599  13.438  13.767
70498SOL     OW13267   5.629   4.797  14.025
70498SOL    HW113268   5.694   4.868  14.022
70498SOL    HW213269   5.562   4.824  13.963
70499SOL     OW13270   2.489   0.276   3.912
70499SOL    HW113271   2.438   0.263   3.833
70499SOL    HW213272   2.566   0.221   3.900
70500SOL     OW13273   1.185  14.438   7.813
70500SOL    HW113274   1.150  14.350   7.799
70500SOL    HW213275   1.155  14.488   7.737
70501SOL     OW13276   9.730   2.412  14.331
70501SOL    HW113277   9.795   2.465  14.284
70501SOL    HW213278   9.779   2.337  14.363
70502SOL     OW13279  13.935  11.852   0.450
70502SOL    HW113280  13.984  11.770   0.452
70502SOL    HW213281  13.879  11.848   0.527
70503SOL     OW13282   2.726  12.366   7.321
70503SOL    HW113283   2.691  12.405   7.401
70503SOL    HW213284   2.687  12.279   7.317
70504SOL     OW13285  11.540   8.873   5.199
70504SOL    HW113286  11.542   8.856   5.294
70504SOL    HW213287  11.607   8.814   5.164
70505SOL     OW13288   6.888  14.272   6.396
70505SOL    HW113289   6.953  14.227   6.342
70505SOL    HW213290   6.804  14.246   6.358
70506SOL     OW13291  13.435   4.378   3.060
70506SOL    HW113292  13.447   4.300   3.113
70506SOL    HW213293  13.371   4.353   2.994
70507SOL     OW13294   1.428   8.945   2.805
70507SOL    HW113295   1.433   8.939   2.709
70507SOL    HW213296   1.494   8.883   2.836
70508SOL     OW13297   2.213   3.868  12.616
70508SOL    HW113298   2.226   3.797  12.679
70508SOL    HW213299   2.302   3.895  12.593
70509SOL     OW13300   4.964   7.340   1.849
70509SOL    HW113301   4.868   7.334   1.850
70509SOL    HW213302   4.991   7.306   1.934
70510SOL     OW13303   7.369   7.268   6.458
70510SOL    HW113304   7.455   7.296   6.491
70510SOL    HW213305   7.313   7.345   6.467
70511SOL     OW13306  10.809  13.099   0.663
70511SOL    HW113307  10.797  13.192   0.683
70511SOL    HW213308  10.849  13.062   0.742
70512SOL     OW13309   7.951   0.286   5.726
70512SOL    HW113310   7.904   0.233   5.791
70512SOL    HW213311   8.025   0.322   5.775
70513SOL     OW13312   6.079   6.991   3.212
70513SOL    HW113313   6.029   6.957   3.138
70513SOL    HW213314   6.150   7.041   3.173
70514SOL     OW13315   6.239   0.113  13.553
70514SOL    HW113316   6.307   0.076  13.610
70514SOL    HW213317   6.244   0.061  13.473
70515SOL     OW13318   8.378   6.435   4.156
70515SOL    HW113319   8.373   6.379   4.233
70515SOL    HW213320   8.287   6.445   4.127
70516SOL     OW13321  11.068  14.487   6.847
70516SOL    HW113322  11.123  14.565   6.852
70516SOL    HW213323  11.098  14.432   6.920
70517SOL     OW13324  10.253   0.261  12.454
70517SOL    HW113325  10.182   0.313  12.492
70517SOL    HW213326  10.264   0.188  12.516
70518SOL     OW13327   7.938   6.618   9.761
70518SOL    HW113328   7.882   6.668   9.819
70518SOL    HW213329   7.891   6.616   9.677
70519SOL     OW13330  11.863   7.407  14.117
70519SOL    HW113331  11.795   7.472  14.103
70519SOL    HW213332  11.885   7.376  14.029
70520SOL     OW13333   6.438  11.076   6.927
70520SOL    HW113334   6.507  11.140   6.941
70520SOL    HW213335   6.484  10.994   6.906
70521SOL     OW13336   5.177  12.081   7.733
70521SOL    HW113337   5.134  12.159   7.697
70521SOL    HW213338   5.227  12.044   7.661
70522SOL     OW13339   4.185   9.682   6.703
70522SOL    HW113340   4.122   9.613   6.684
70522SOL    HW213341   4.248   9.641   6.762
70523SOL     OW13342   4.767   0.086   0.248
70523SOL    HW113343   4.830   0.147   0.286
70523SOL    HW213344   4.743   0.126   0.164
70524SOL     OW13345   2.013   8.993  11.309
70524SOL    HW113346   2.105   9.002  11.333
70524SOL    HW213347   1.966   8.997  11.392
70525SOL     OW13348   5.643   4.357  10.089
70525SOL    HW113349   5.695   4.319  10.160
70525SOL    HW213350   5.626   4.284  10.030
70526SOL     OW13351   1.466   1.242   9.217
70526SOL    HW113352   1.536   1.232   9.282
70526SOL    HW213353   1.511   1.232   9.133
70527SOL     OW13354   7.429   0.718   2.389
70527SOL    HW113355   7.426   0.678   2.302
70527SOL    HW213356   7.337   0.731   2.413
70528SOL     OW13357  12.479   2.187   9.306
70528SOL    HW113358  12.497   2.265   9.253
70528SOL    HW213359  12.403   2.211   9.359
70529SOL     OW13360   9.589   0.454   5.814
70529SOL    HW113361   9.621   0.404   5.739
70529SOL    HW213362   9.662   0.512   5.837
70530SOL     OW13363   8.658   7.672  11.963
70530SOL    HW113364   8.645   7.663  11.868
70530SOL    HW213365   8.590   7.734  11.990
70531SOL     OW13366   3.482   1.973   7.741
70531SOL    HW113367   3.448   2.016   7.662
70531SOL    HW213368   3.469   2.036   7.811
70532SOL     OW13369   0.546   4.273   6.464
70532SOL    HW113370   0.567   4.339   6.398
70532SOL    HW213371   0.453   4.286   6.483
70533SOL     OW13372   6.961   4.578  13.577
70533SOL    HW113373   6.906   4.519  13.628
70533SOL    HW213374   6.900   4.630  13.525
70534SOL     OW13375   1.506   3.668  14.389
70534SOL    HW113376   1.531   3.753  14.424
70534SOL    HW213377   1.552   3.605  14.444
70535SOL     OW13378   7.591   1.582   6.057
70535SOL    HW113379   7.619   1.496   6.026
70535SOL    HW213380   7.646   1.599   6.134
70536SOL     OW13381   4.270   9.209  13.215
70536SOL    HW113382   4.267   9.211  13.119
70536SOL    HW213383   4.358   9.241  13.237
70537SOL     OW13384   2.784  11.332   0.295
70537SOL    HW113385   2.735  11.273   0.238
70537SOL    HW213386   2.821  11.397   0.236
70538SOL     OW13387  11.002   3.988  12.028
70538SOL    HW113388  10.919   4.005  12.074
70538SOL    HW213389  11.042   3.917  12.078
70539SOL     OW13390   7.533  13.859   8.415
70539SOL    HW113391   7.486  13.854   8.332
70539SOL    HW213392   7.522  13.950   8.443
70540SOL     OW13393   1.460   0.251  14.719
70540SOL    HW113394   1.408   0.317  14.765
70540SOL    HW213395   1.409   0.230  14.641
70541SOL     OW13396   9.555   1.252   3.755
70541SOL    HW113397   9.589   1.190   3.691
70541SOL    HW213398   9.608   1.236   3.834
70542SOL     OW13399   0.260   4.455   9.893
70542SOL    HW113400   0.341   4.420   9.857
70542SOL    HW213401   0.284   4.492   9.978
70543SOL     OW13402   9.318   9.300  11.310
70543SOL    HW113403   9.398   9.266  11.271
70543SOL    HW213404   9.251   9.236  11.285
70544SOL     OW13405   7.586   0.488   3.553
70544SOL    HW113406   7.566   0.567   3.604
70544SOL    HW213407   7.680   0.496   3.533
70545SOL     OW13408   4.329   4.262   4.550
70545SOL    HW113409   4.266   4.316   4.502
70545SOL    HW213410   4.407   4.317   4.557
70546SOL     OW13411   9.570  11.491  14.549
70546SOL    HW113412   9.514  11.462  14.620
70546SOL    HW213413   9.564  11.421  14.484
70547SOL     OW13414  10.461  13.183  10.071
70547SOL    HW113415  10.486  13.167   9.980
70547SOL    HW213416  10.545  13.195  10.117
70548SOL     OW13417   1.446   2.945  11.701
70548SOL    HW113418   1.512   3.004  11.738
70548SOL    HW213419   1.363   2.987  11.719
70549SOL     OW13420   5.439  11.075   6.385
70549SOL    HW113421   5.407  11.119   6.464
70549SOL    HW213422   5.477  11.145   6.332
70550SOL     OW13423   0.734  10.294   4.093
70550SOL    HW113424   0.689  10.338   4.165
70550SOL    HW213425   0.755  10.364   4.032
70551SOL     OW13426   8.334   0.257   4.738
70551SOL    HW113427   8.366   0.339   4.701
70551SOL    HW213428   8.337   0.270   4.833
70552SOL     OW13429   4.510   2.952   4.207
70552SOL    HW113430   4.544   2.921   4.291
70552SOL    HW213431   4.587   2.961   4.151
70553SOL     OW13432   0.064   2.990   4.796
70553SOL    HW113433   0.050   2.909   4.746
70553SOL    HW213434  14.853   3.026   4.809
70554SOL     OW13435  13.890  14.656   0.202
70554SOL    HW113436  13.855  14.630   0.287
70554SOL    HW213437  13.899  14.751   0.207
70555SOL     OW13438  14.840  12.242   1.093
70555SOL    HW113439  14.787  12.268   1.169
70555SOL    HW213440  14.790  12.274   1.018
70556SOL     OW13441   8.861   5.966  13.864
70556SOL    HW113442   8.847   5.872  13.862
70556SOL    HW213443   8.773   6.004  13.867
70557SOL     OW13444  10.036  14.485   1.853
70557SOL    HW113445  10.086  14.501   1.932
70557SOL    HW213446  10.101  14.482   1.783
70558SOL     OW13447   2.419  14.250   8.998
70558SOL    HW113448   2.341  14.286   8.956
70558SOL    HW213449   2.388  14.172   9.043
70559SOL     OW13450  12.269   2.989  11.417
70559SOL    HW113451  12.313   2.980  11.333
70559SOL    HW213452  12.196   3.048  11.399
70560SOL     OW13453   0.926   0.187   9.044
70560SOL    HW113454   0.924   0.166   8.951
70560SOL    HW213455   0.847   0.146   9.079
70561SOL     OW13456   5.548  12.613   6.175
70561SOL    HW113457   5.596  12.620   6.257
70561SOL    HW213458   5.588  12.539   6.129
70562SOL     OW13459  12.038   9.330   6.667
70562SOL    HW113460  11.953   9.373   6.675
70562SOL    HW213461  12.063   9.344   6.575
70563SOL     OW13462  13.927   7.861  11.124
70563SOL    HW113463  13.904   7.954  11.129
70563SOL    HW213464  13.998   7.857  11.059
70564SOL     OW13465  10.816   9.813   9.893
70564SOL    HW113466  10.811   9.828   9.798
70564SOL    HW213467  10.817   9.901   9.931
70565SOL     OW13468  12.718  13.909  12.400
70565SOL    HW113469  12.781  13.916  12.472
70565SOL    HW213470  12.750  13.972  12.335
70566SOL     OW13471   0.094   3.886  12.541
70566SOL    HW113472   0.057   3.798  12.551
70566SOL    HW213473   0.175   3.883  12.591
70567SOL     OW13474   2.705  10.303   2.311
70567SOL    HW113475   2.627  10.354   2.290
70567SOL    HW213476   2.771  10.334   2.249
70568SOL     OW13477  11.095   3.706   7.124
70568SOL    HW113478  11.091   3.654   7.204
70568SOL    HW213479  11.068   3.646   7.054
70569SOL     OW13480   7.325  13.435  13.909
70569SOL    HW113481   7.416  13.464  13.917
70569SOL    HW213482   7.318  13.403  13.819
70570SOL     OW13483   7.474   0.074  14.542
70570SOL    HW113484   7.422   0.098  14.465
70570SOL    HW213485   7.546   0.022  14.508
70571SOL     OW13486   3.530  10.564  14.423
70571SOL    HW113487   3.617  10.604  14.412
70571SOL    HW213488   3.549  10.474  14.449
70572SOL     OW13489   3.107  11.913  10.387
70572SOL    HW113490   3.098  11.968  10.465
70572SOL    HW213491   3.118  11.975  10.315
70573SOL     OW13492   6.062   5.083  10.056
70573SOL    HW113493   6.111   5.062   9.976
70573SOL    HW213494   6.073   5.006  10.111
70574SOL     OW13495   3.048   2.324   4.341
70574SOL    HW113496   3.139   2.333   4.369
70574SOL    HW213497   3.031   2.403   4.289
70575SOL     OW13498  12.043   4.604  11.118
70575SOL    HW113499  12.056   4.584  11.210
70575SOL    HW213500  12.046   4.519  11.074
70576SOL     OW13501   4.830   9.615   8.565
70576SOL    HW113502   4.884   9.551   8.612
70576SOL    HW213503   4.887   9.692   8.555
70577SOL     OW13504  11.153   1.042  10.664
70577SOL    HW113505  11.149   1.062  10.757
70577SOL    HW213506  11.208   1.111  10.626
70578SOL     OW13507  13.579  12.520   6.078
70578SOL    HW113508  13.616  12.582   6.140
70578SOL    HW213509  13.572  12.569   5.996
70579SOL     OW13510   0.565   8.560   9.160
70579SOL    HW113511   0.587   8.636   9.106
70579SOL    HW213512   0.532   8.598   9.242
70580SOL     OW13513  10.492  10.948   0.313
70580SOL    HW113514  10.567  10.941   0.254
70580SOL    HW213515  10.453  10.860   0.313
70581SOL     OW13516  12.757  14.250   3.212
70581SOL    HW113517  12.843  14.208   3.220
70581SOL    HW213518  12.697  14.189   3.254
70582SOL     OW13519   6.285   1.345   4.133
70582SOL    HW113520   6.263   1.355   4.041
70582SOL    HW213521   6.342   1.420   4.152
70583SOL     OW13522   1.837  14.804  13.420
70583SOL    HW113523   1.907  14.782  13.481
70583SOL    HW213524   1.786  14.724  13.412
70584SOL     OW13525   3.378  13.718  13.157
70584SOL    HW113526   3.364  13.747  13.248
70584SOL    HW213527   3.367  13.798  13.105
70585SOL     OW13528   4.041   1.797   2.666
70585SOL    HW113529   4.047   1.800   2.571
70585SOL    HW213530   3.960   1.843   2.687
70586SOL     OW13531   2.876   7.692   9.037
70586SOL    HW113532   2.788   7.658   9.052
70586SOL    HW213533   2.892   7.676   8.944
70587SOL     OW13534  14.654   0.968  12.319
70587SOL    HW113535  14.595   0.992  12.248
70587SOL    HW213536  14.722   0.914  12.278
70588SOL     OW13537   3.490   9.220   9.239
70588SOL    HW113538   3.455   9.227   9.149
70588SOL    HW213539   3.518   9.309   9.261
70589SOL     OW13540  11.008   8.772  13.428
70589SOL    HW113541  11.046   8.713  13.492
70589SOL    HW213542  10.914   8.759  13.437
70590SOL     OW13543  10.143   2.156  12.653
70590SOL    HW113544  10.221   2.120  12.611
70590SOL    HW213545  10.084   2.177  12.580
70591SOL     OW13546   6.791   3.711   2.662
70591SOL    HW113547   6.709   3.697   2.615
70591SOL    HW213548   6.858   3.669   2.608
70592SOL     OW13549  13.416   8.872  10.948
70592SOL    HW113550  13.478   8.856  11.019
70592SOL    HW213551  13.375   8.787  10.932
70593SOL     OW13552   1.909   0.500  11.868
70593SOL    HW113553   1.997   0.495  11.905
70593SOL    HW213554   1.899   0.591  11.840
70594SOL     OW13555   4.303   8.633   2.136
70594SOL    HW113556   4.385   8.666   2.098
70594SOL    HW213557   4.253   8.712   2.157
70595SOL     OW13558   8.467   5.067   2.480
70595SOL    HW113559   8.477   4.988   2.534
70595SOL    HW213560   8.535   5.126   2.512
70596SOL     OW13561  13.126   5.666  10.265
70596SOL    HW113562  13.055   5.661  10.329
70596SOL    HW213563  13.200   5.622  10.307
70597SOL     OW13564   2.781   3.897  12.640
70597SOL    HW113565   2.687   3.900  12.654
70597SOL    HW213566   2.792   3.838  12.565
70598SOL     OW13567  13.460  11.702  10.075
70598SOL    HW113568  13.419  11.688   9.989
70598SOL    HW213569  13.548  11.665  10.066
70599SOL     OW13570  13.436   1.049   7.463
70599SOL    HW113571  13.360   0.998   7.487
70599SOL    HW213572  13.433   1.052   7.367
70600SOL     OW13573   9.461   6.212  10.157
70600SOL    HW113574   9.373   6.200  10.193
70600SOL    HW213575   9.452   6.284  10.095
70601SOL     OW13576   5.833  10.476   9.153
70601SOL    HW113577   5.803  10.474   9.063
70601SOL    HW213578   5.781  10.408   9.197
70602SOL     OW13579   4.552   2.042  11.920
70602SOL    HW113580   4.634   2.013  11.961
70602SOL    HW213581   4.497   2.070  11.993
70603SOL     OW13582   1.029  11.694  11.520
70603SOL    HW113583   1.021  11.733  11.433
70603SOL    HW213584   1.008  11.602  11.506
70604SOL     OW13585   5.770   9.300   6.095
70604SOL    HW113586   5.701   9.311   6.030
70604SOL    HW213587   5.829   9.235   6.057
70605SOL     OW13588   4.294  10.185  12.343
70605SOL    HW113589   4.225  10.141  12.393
70605SOL    HW213590   4.375  10.157  12.385
70606SOL     OW13591  11.775   3.437  11.411
70606SOL    HW113592  11.710   3.408  11.475
70606SOL    HW213593  11.766   3.376  11.338
70607SOL     OW13594   2.673  11.256   6.341
70607SOL    HW113595   2.596  11.199   6.338
70607SOL    HW213596   2.671  11.296   6.428
70608SOL     OW13597   2.543  10.816  14.077
70608SOL    HW113598   2.637  10.819  14.062
70608SOL    HW213599   2.509  10.891  14.029
70609SOL     OW13600   8.371  10.148  12.047
70609SOL    HW113601   8.443  10.211  12.053
70609SOL    HW213602   8.318  10.165  12.125
70610SOL     OW13603   6.423   6.041  13.641
70610SOL    HW113604   6.347   6.094  13.617
70610SOL    HW213605   6.494   6.074  13.586
70611SOL     OW13606   7.348   6.783  12.919
70611SOL    HW113607   7.334   6.690  12.903
70611SOL    HW213608   7.279   6.807  12.981
70612SOL     OW13609  10.973  13.778  13.804
70612SOL    HW113610  11.056  13.750  13.765
70612SOL    HW213611  10.977  13.746  13.894
70613SOL     OW13612  12.789   9.146   3.388
70613SOL    HW113613  12.789   9.223   3.331
70613SOL    HW213614  12.752   9.178   3.471
70614SOL     OW13615  12.738   3.637  13.138
70614SOL    HW113616  12.747   3.732  13.141
70614SOL    HW213617  12.824   3.606  13.112
70615SOL     OW13618   7.388   2.641   3.458
70615SOL    HW113619   7.458   2.594   3.413
70615SOL    HW213620   7.404   2.624   3.551
70616SOL     OW13621   5.751  10.487   2.799
70616SOL    HW113622   5.809  10.482   2.875
70616SOL    HW213623   5.718  10.398   2.788
70617SOL     OW13624   3.948   1.073   8.083
70617SOL    HW113625   4.042   1.070   8.063
70617SOL    HW213626   3.919   0.982   8.078
70618SOL     OW13627   4.875  13.612   3.465
70618SOL    HW113628   4.816  13.686   3.481
70618SOL    HW213629   4.912  13.629   3.379
70619SOL     OW13630   3.496   4.363  13.658
70619SOL    HW113631   3.535   4.321  13.581
70619SOL    HW213632   3.553   4.438  13.675
70620SOL     OW13633   6.615   8.542  12.875
70620SOL    HW113634   6.602   8.459  12.921
70620SOL    HW213635   6.675   8.521  12.804
70621SOL     OW13636   1.327   4.926  13.593
70621SOL    HW113637   1.367   4.850  13.635
70621SOL    HW213638   1.298   4.895  13.508
70622SOL     OW13639   0.756  13.702   1.755
70622SOL    HW113640   0.721  13.620   1.720
70622SOL    HW213641   0.704  13.771   1.712
70623SOL     OW13642  10.883  13.141  11.546
70623SOL    HW113643  10.881  13.059  11.596
70623SOL    HW213644  10.935  13.120  11.469
70624SOL     OW13645  11.480   8.226   5.193
70624SOL    HW113646  11.413   8.182   5.245
70624SOL    HW213647  11.443   8.312   5.175
70625SOL     OW13648  11.607   8.842   6.024
70625SOL    HW113649  11.551   8.767   6.042
70625SOL    HW213650  11.692   8.818   6.061
70626SOL     OW13651   9.628  11.925   4.808
70626SOL    HW113652   9.698  11.912   4.873
70626SOL    HW213653   9.576  11.845   4.813
70627SOL     OW13654   0.815   8.751   0.089
70627SOL    HW113655   0.831   8.661   0.117
70627SOL    HW213656   0.859   8.758   0.005
70628SOL     OW13657   0.710   3.370   7.515
70628SOL    HW113658   0.684   3.424   7.589
70628SOL    HW213659   0.716   3.281   7.551
70629SOL     OW13660   3.460   6.268   5.168
70629SOL    HW113661   3.390   6.226   5.218
70629SOL    HW213662   3.415   6.327   5.108
70630SOL     OW13663   0.270   7.524   4.894
70630SOL    HW113664   0.196   7.463   4.892
70630SOL    HW213665   0.338   7.481   4.841
70631SOL     OW13666   7.960  11.987  11.465
70631SOL    HW113667   8.020  11.999  11.392
70631SOL    HW213668   7.937  12.076  11.492
70632SOL     OW13669  14.391  11.648  12.400
70632SOL    HW113670  14.466  11.595  12.372
70632SOL    HW213671  14.407  11.734  12.361
70633SOL     OW13672   6.013   8.146  14.439
70633SOL    HW113673   5.980   8.059  14.458
70633SOL    HW213674   5.980   8.201  14.510
70634SOL     OW13675  10.025  10.228  14.472
70634SOL    HW113676  10.120  10.237  14.466
70634SOL    HW213677  10.002  10.163  14.406
70635SOL     OW13678   3.835  10.380  10.116
70635SOL    HW113679   3.849  10.473  10.097
70635SOL    HW213680   3.885  10.364  10.196
70636SOL     OW13681  12.417   9.805   3.651
70636SOL    HW113682  12.428   9.711   3.664
70636SOL    HW213683  12.400   9.839   3.739
70637SOL     OW13684  13.029   3.425  14.406
70637SOL    HW113685  13.052   3.375  14.328
70637SOL    HW213686  12.942   3.460  14.387
70638SOL     OW13687   6.836   3.358   7.056
70638SOL    HW113688   6.833   3.363   7.152
70638SOL    HW213689   6.788   3.278   7.035
70639SOL     OW13690   5.889   3.911   2.708
70639SOL    HW113691   5.909   3.836   2.764
70639SOL    HW213692   5.911   3.987   2.760
70640SOL     OW13693   9.980   2.029  12.134
70640SOL    HW113694   9.939   2.094  12.076
70640SOL    HW213695  10.065   2.067  12.156
70641SOL     OW13696  13.471   5.492  11.944
70641SOL    HW113697  13.550   5.540  11.971
70641SOL    HW213698  13.486   5.473  11.851
70642SOL     OW13699   8.779  12.916  10.463
70642SOL    HW113700   8.731  12.999  10.463
70642SOL    HW213701   8.866  12.939  10.429
70643SOL     OW13702  11.119   1.494   3.032
70643SOL    HW113703  11.059   1.550   2.983
70643SOL    HW213704  11.120   1.530   3.120
70644SOL     OW13705   1.557   1.341   0.723
70644SOL    HW113706   1.528   1.350   0.632
70644SOL    HW213707   1.503   1.403   0.772
70645SOL     OW13708   5.881   0.307  10.639
70645SOL    HW113709   5.939   0.308  10.715
70645SOL    HW213710   5.930   0.257  10.573
70646SOL     OW13711  10.012  10.330   2.682
70646SOL    HW113712  10.081  10.280   2.639
70646SOL    HW213713  10.040  10.336   2.773
70647SOL     OW13714   5.560  13.958   8.008
70647SOL    HW113715   5.535  13.868   8.032
70647SOL    HW213716   5.628  13.981   8.070
70648SOL     OW13717  10.602   0.842   2.380
70648SOL    HW113718  10.670   0.909   2.386
70648SOL    HW213719  10.530   0.875   2.433
70649SOL     OW13720   2.023   7.955   1.264
70649SOL    HW113721   1.962   8.027   1.276
70649SOL    HW213722   2.108   7.998   1.249
70650SOL     OW13723  12.476  12.668   5.938
70650SOL    HW113724  12.523  12.585   5.928
70650SOL    HW213725  12.544  12.731   5.963
70651SOL     OW13726   8.241   7.341  14.116
70651SOL    HW113727   8.260   7.302  14.201
70651SOL    HW213728   8.241   7.267  14.055
70652SOL     OW13729   1.228   3.688   4.173
70652SOL    HW113730   1.186   3.744   4.108
70652SOL    HW213731   1.277   3.748   4.229
70653SOL     OW13732   5.164   8.496   8.473
70653SOL    HW113733   5.178   8.443   8.394
70653SOL    HW213734   5.116   8.440   8.532
70654SOL     OW13735  12.818   9.399   2.152
70654SOL    HW113736  12.739   9.401   2.098
70654SOL    HW213737  12.860   9.317   2.129
70655SOL     OW13738   4.057   8.592  12.165
70655SOL    HW113739   4.095   8.677  12.142
70655SOL    HW213740   3.975   8.588  12.116
70656SOL     OW13741   7.846  10.691   3.510
70656SOL    HW113742   7.751  10.684   3.501
70656SOL    HW213743   7.880  10.656   3.428
70657SOL     OW13744   5.560  11.606  14.745
70657SOL    HW113745   5.536  11.609  14.652
70657SOL    HW213746   5.575  11.698  14.768
70658SOL     OW13747   8.119   9.448   8.661
70658SOL    HW113748   8.116   9.445   8.565
70658SOL    HW213749   8.032   9.420   8.689
70659SOL     OW13750   1.704   3.785   4.095
70659SOL    HW113751   1.735   3.695   4.109
70659SOL    HW213752   1.783   3.839   4.104
70660SOL     OW13753  13.966   4.991   0.000
70660SOL    HW113754  13.952   5.083   0.025
70660SOL    HW213755  14.015   4.954   0.074
70661SOL     OW13756   8.325   9.434   8.237
70661SOL    HW113757   8.309   9.488   8.314
70661SOL    HW213758   8.385   9.366   8.267
70662SOL     OW13759  12.554   6.443  11.952
70662SOL    HW113760  12.629   6.439  12.011
70662SOL    HW213761  12.511   6.358  11.962
70663SOL     OW13762   9.466  11.642  13.943
70663SOL    HW113763   9.505  11.724  13.974
70663SOL    HW213764   9.481  11.580  14.014
70664SOL     OW13765   8.468   3.400   2.700
70664SOL    HW113766   8.381   3.378   2.665
70664SOL    HW213767   8.529   3.370   2.633
70665SOL     OW13768   7.711   3.115   6.602
70665SOL    HW113769   7.688   3.114   6.509
70665SOL    HW213770   7.661   3.188   6.638
70666SOL     OW13771   0.451   5.390   7.602
70666SOL    HW113772   0.450   5.335   7.524
70666SOL    HW213773   0.414   5.474   7.573
70667SOL     OW13774  14.180   9.395  13.989
70667SOL    HW113775  14.125   9.377  13.913
70667SOL    HW213776  14.118   9.414  14.059
70668SOL     OW13777   5.278   8.803   6.801
70668SOL    HW113778   5.219   8.729   6.811
70668SOL    HW213779   5.280   8.844   6.888
70669SOL     OW13780   4.122  13.583   5.685
70669SOL    HW113781   4.182  13.513   5.710
70669SOL    HW213782   4.149  13.608   5.596
70670SOL     OW13783   2.213   9.732   6.850
70670SOL    HW113784   2.291   9.679   6.865
70670SOL    HW213785   2.173   9.695   6.772
70671SOL     OW13786   4.474   2.828   1.105
70671SOL    HW113787   4.511   2.883   1.036
70671SOL    HW213788   4.495   2.874   1.186
70672SOL     OW13789   4.366   7.997   0.216
70672SOL    HW113790   4.415   8.006   0.298
70672SOL    HW213791   4.328   8.084   0.201
70673SOL     OW13792   3.852   9.470   7.788
70673SOL    HW113793   3.893   9.556   7.782
70673SOL    HW213794   3.767   9.486   7.829
70674SOL     OW13795  10.111   6.715   0.509
70674SOL    HW113796  10.096   6.719   0.604
70674SOL    HW213797  10.039   6.766   0.471
70675SOL     OW13798   2.404   3.267  12.107
70675SOL    HW113799   2.499   3.267  12.123
70675SOL    HW213800   2.366   3.235  12.189
70676SOL     OW13801  12.515   8.534  14.226
70676SOL    HW113802  12.559   8.570  14.304
70676SOL    HW213803  12.585   8.519  14.163
70677SOL     OW13804  11.997  10.636   9.853
70677SOL    HW113805  11.964  10.597   9.772
70677SOL    HW213806  11.948  10.717   9.863
70678SOL     OW13807   1.430   2.318  14.656
70678SOL    HW113808   1.384   2.400  14.675
70678SOL    HW213809   1.472   2.333  14.572
70679SOL     OW13810  12.716   7.097   1.686
70679SOL    HW113811  12.680   7.024   1.736
70679SOL    HW213812  12.799   7.064   1.651
70680SOL     OW13813   7.412   5.672  10.233
70680SOL    HW113814   7.354   5.716  10.294
70680SOL    HW213815   7.355   5.617  10.180
70681SOL     OW13816   3.703   5.973  11.125
70681SOL    HW113817   3.724   6.011  11.210
70681SOL    HW213818   3.634   6.030  11.090
70682SOL     OW13819   2.610  11.922  14.767
70682SOL    HW113820   2.527  11.923  14.718
70682SOL    HW213821   2.656  11.845  14.735
70683SOL     OW13822   2.730  13.097   9.838
70683SOL    HW113823   2.674  13.132   9.769
70683SOL    HW213824   2.801  13.162   9.846
70684SOL     OW13825  10.855   1.394   0.762
70684SOL    HW113826  10.844   1.360   0.851
70684SOL    HW213827  10.851   1.317   0.706
70685SOL     OW13828   9.244  13.957   3.894
70685SOL    HW113829   9.207  13.920   3.974
70685SOL    HW213830   9.190  14.034   3.876
70686SOL     OW13831  12.292   2.554  14.006
70686SOL    HW113832  12.325   2.470  13.974
70686SOL    HW213833  12.298   2.548  14.101
70687SOL     OW13834   6.325   6.635   9.735
70687SOL    HW113835   6.398   6.689   9.765
70687SOL    HW213836   6.248   6.691   9.743
70688SOL     OW13837  11.287   0.836  11.464
70688SOL    HW113838  11.266   0.780  11.390
70688SOL    HW213839  11.365   0.885  11.435
70689SOL     OW13840   5.408  14.343  10.624
70689SOL    HW113841   5.387  14.427  10.664
70689SOL    HW213842   5.352  14.280  10.670
70690SOL     OW13843   6.100  10.850   5.206
70690SOL    HW113844   6.090  10.813   5.118
70690SOL    HW213845   6.097  10.945   5.193
70691SOL     OW13846  13.263   1.520   5.703
70691SOL    HW113847  13.175   1.487   5.721
70691SOL    HW213848  13.291   1.474   5.624
70692SOL     OW13849   4.480   5.560  11.548
70692SOL    HW113850   4.445   5.526  11.465
70692SOL    HW213851   4.565   5.518  11.557
70693SOL     OW13852   5.030   3.069   3.304
70693SOL    HW113853   4.990   3.063   3.217
70693SOL    HW213854   5.100   3.004   3.303
70694SOL     OW13855  10.992   5.428   3.904
70694SOL    HW113856  11.015   5.351   3.852
70694SOL    HW213857  10.898   5.418   3.921
70695SOL     OW13858  11.128  13.462  13.161
70695SOL    HW113859  11.105  13.531  13.099
70695SOL    HW213860  11.058  13.464  13.227
70696SOL     OW13861   1.792   9.672   1.690
70696SOL    HW113862   1.790   9.650   1.783
70696SOL    HW213863   1.881   9.704   1.675
70697SOL     OW13864   7.908   7.227   0.315
70697SOL    HW113865   7.942   7.167   0.249
70697SOL    HW213866   7.876   7.170   0.385
70698SOL     OW13867  14.739   9.344   4.838
70698SOL    HW113868  14.714   9.256   4.865
70698SOL    HW213869  14.785   9.380   4.913
70699SOL     OW13870   1.262  13.316  12.912
70699SOL    HW113871   1.168  13.307  12.927
70699SOL    HW213872   1.302  13.248  12.967
70700SOL     OW13873   1.602   8.952   4.720
70700SOL    HW113874   1.535   8.891   4.691
70700SOL    HW213875   1.683   8.919   4.682
70701SOL     OW13876   2.596  11.961   1.404
70701SOL    HW113877   2.624  12.031   1.462
70701SOL    HW213878   2.675  11.910   1.387
70702SOL     OW13879  12.916   8.856  10.062
70702SOL    HW113880  12.989   8.798  10.083
70702SOL    HW213881  12.944   8.902   9.983
70703SOL     OW13882   8.230   8.363   2.582
70703SOL    HW113883   8.247   8.293   2.645
70703SOL    HW213884   8.144   8.398   2.607
70704SOL     OW13885  14.839   5.987  12.781
70704SOL    HW113886  14.849   6.079  12.805
70704SOL    HW213887  14.816   5.943  12.863
70705SOL     OW13888   7.719   2.088   4.418
70705SOL    HW113889   7.746   2.180   4.414
70705SOL    HW213890   7.784   2.046   4.475
70706SOL     OW13891   9.061   8.786   2.086
70706SOL    HW113892   8.993   8.727   2.119
70706SOL    HW213893   9.014   8.863   2.056
70707SOL     OW13894   6.279   4.393   4.572
70707SOL    HW113895   6.235   4.427   4.650
70707SOL    HW213896   6.211   4.388   4.505
70708SOL     OW13897  10.915  12.434   7.285
70708SOL    HW113898  10.839  12.433   7.226
70708SOL    HW213899  10.981  12.382   7.240
70709SOL     OW13900   6.099  14.154  13.982
70709SOL    HW113901   6.072  14.236  13.942
70709SOL    HW213902   6.084  14.088  13.914
70710SOL     OW13903   7.283  10.192   1.655
70710SOL    HW113904   7.351  10.252   1.685
70710SOL    HW213905   7.251  10.231   1.573
70711SOL     OW13906   7.160   7.421   4.602
70711SOL    HW113907   7.254   7.427   4.620
70711SOL    HW213908   7.118   7.443   4.685
70712SOL     OW13909  12.317   4.514   8.205
70712SOL    HW113910  12.224   4.491   8.206
70712SOL    HW213911  12.317   4.610   8.203
70713SOL     OW13912   3.446   9.646   6.342
70713SOL    HW113913   3.459   9.576   6.279
70713SOL    HW213914   3.452   9.727   6.291
70714SOL     OW13915  12.401   6.765   1.616
70714SOL    HW113916  12.416   6.820   1.540
70714SOL    HW213917  12.474   6.703   1.616
70715SOL     OW13918   6.195  14.064   5.693
70715SOL    HW113919   6.284  14.081   5.663
70715SOL    HW213920   6.189  14.107   5.778
70716SOL     OW13921  11.807  12.218   2.737
70716SOL    HW113922  11.781  12.242   2.648
70716SOL    HW213923  11.837  12.127   2.729
70717SOL     OW13924   9.514   5.576   9.922
70717SOL    HW113925   9.567   5.622   9.987
70717SOL    HW213926   9.574   5.515   9.880
70718SOL     OW13927  11.238   1.831  14.627
70718SOL    HW113928  11.231   1.775  14.705
70718SOL    HW213929  11.278   1.911  14.660
70719SOL     OW13930   2.339   4.091  11.113
70719SOL    HW113931   2.407   4.157  11.100
70719SOL    HW213932   2.363   4.047  11.194
70720SOL     OW13933   1.721   4.853   7.802
70720SOL    HW113934   1.811   4.833   7.776
70720SOL    HW213935   1.721   4.845   7.897
70721SOL     OW13936   1.344  10.290  12.434
70721SOL    HW113937   1.423  10.235  12.431
70721SOL    HW213938   1.350  10.336  12.518
70722SOL     OW13939   6.517   1.597   6.780
70722SOL    HW113940   6.465   1.642   6.713
70722SOL    HW213941   6.514   1.656   6.856
70723SOL     OW13942   5.775  11.026  14.284
70723SOL    HW113943   5.802  10.971  14.211
70723SOL    HW213944   5.684  11.001  14.301
70724SOL     OW13945   0.108   0.877  11.281
70724SOL    HW113946   0.031   0.928  11.258
70724SOL    HW213947   0.096   0.855  11.374
70725SOL     OW13948   8.834  12.139  11.368
70725SOL    HW113949   8.902  12.081  11.334
70725SOL    HW213950   8.780  12.083  11.423
70726SOL     OW13951   4.225  10.514   5.669
70726SOL    HW113952   4.280  10.445   5.706
70726SOL    HW213953   4.287  10.572   5.624
70727SOL     OW13954  12.836   6.967   0.943
70727SOL    HW113955  12.893   6.922   0.880
70727SOL    HW213956  12.847   6.918   1.024
70728SOL     OW13957   0.409   0.169   9.524
70728SOL    HW113958   0.463   0.181   9.446
70728SOL    HW213959   0.466   0.125   9.586
70729SOL     OW13960   7.137   4.378   5.781
70729SOL    HW113961   7.174   4.303   5.828
70729SOL    HW213962   7.209   4.412   5.728
70730SOL     OW13963  11.566  12.526   3.946
70730SOL    HW113964  11.603  12.570   4.023
70730SOL    HW213965  11.585  12.434   3.959
70731SOL     OW13966  12.520  13.711   6.016
70731SOL    HW113967  12.573  13.789   6.035
70731SOL    HW213968  12.491  13.680   6.101
70732SOL     OW13969   7.751   2.299   8.165
70732SOL    HW113970   7.786   2.257   8.087
70732SOL    HW213971   7.663   2.262   8.176
70733SOL     OW13972   4.204   3.396  10.530
70733SOL    HW113973   4.198   3.491  10.528
70733SOL    HW213974   4.182   3.367  10.442
70734SOL     OW13975   7.263   8.181   3.665
70734SOL    HW113976   7.311   8.186   3.583
70734SOL    HW213977   7.307   8.243   3.724
70735SOL     OW13978   6.605  11.084   9.853
70735SOL    HW113979   6.649  11.070   9.937
70735SOL    HW213980   6.515  11.053   9.867
70736SOL     OW13981   8.884   8.847   2.442
70736SOL    HW113982   8.897   8.772   2.501
70736SOL    HW213983   8.842   8.810   2.364
70737SOL     OW13984  13.113  13.098   0.835
70737SOL    HW113985  13.082  13.188   0.833
70737SOL    HW213986  13.096  13.069   0.925
70738SOL     OW13987  14.379   3.262  14.379
70738SOL    HW113988  14.331   3.181  14.398
70738SOL    HW213989  14.471   3.235  14.375
70739SOL     OW13990   3.648   2.031   5.938
70739SOL    HW113991   3.705   2.002   5.867
70739SOL    HW213992   3.700   2.095   5.986
70740SOL     OW13993  13.378   6.820   4.889
70740SOL    HW113994  13.387   6.726   4.872
70740SOL    HW213995  13.301   6.845   4.837
70741SOL     OW13996   1.918   9.691  13.150
70741SOL    HW113997   1.981   9.714  13.218
70741SOL    HW213998   1.886   9.604  13.175
70742SOL     OW13999  13.669  10.575   4.050
70742SOL    HW114000  13.726  10.511   4.092
70742SOL    HW214001  13.636  10.530   3.972
70743SOL     OW14002  12.981  11.611   3.904
70743SOL    HW114003  12.973  11.706   3.914
70743SOL    HW214004  13.063  11.589   3.949
70744SOL     OW14005   5.966  12.742   0.100
70744SOL    HW114006   6.053  12.774   0.075
70744SOL    HW214007   5.912  12.753   0.022
70745SOL     OW14008   1.085  14.201  12.002
70745SOL    HW114009   1.152  14.158  11.949
70745SOL    HW214010   1.104  14.295  11.994
70746SOL     OW14011   0.919  14.120   4.880
70746SOL    HW114012   0.843  14.062   4.871
70746SOL    HW214013   0.892  14.185   4.945
70747SOL     OW14014   3.005   3.854   3.295
70747SOL    HW114015   2.915   3.883   3.313
70747SOL    HW214016   3.041   3.923   3.238
70748SOL     OW14017  11.582   7.133   9.295
70748SOL    HW114018  11.626   7.048   9.294
70748SOL    HW214019  11.642   7.191   9.340
70749SOL     OW14020  12.209   1.734   5.283
70749SOL    HW114021  12.202   1.775   5.197
70749SOL    HW214022  12.201   1.640   5.267
70750SOL     OW14023   8.929   8.780   9.789
70750SOL    HW114024   8.964   8.764   9.876
70750SOL    HW214025   8.903   8.693   9.758
70751SOL     OW14026  11.795   4.582   7.820
70751SOL    HW114027  11.731   4.611   7.755
70751SOL    HW214028  11.788   4.486   7.820
70752SOL     OW14029  12.481   1.235   4.393
70752SOL    HW114030  12.576   1.245   4.386
70752SOL    HW214031  12.463   1.150   4.354
70753SOL     OW14032  12.792   3.131   4.406
70753SOL    HW114033  12.769   3.219   4.375
70753SOL    HW214034  12.791   3.077   4.328
70754SOL     OW14035   1.210  14.340  11.676
70754SOL    HW114036   1.200  14.400  11.750
70754SOL    HW214037   1.238  14.396  11.603
70755SOL     OW14038   7.565  10.548   3.654
70755SOL    HW114039   7.627  10.539   3.727
70755SOL    HW214040   7.509  10.470   3.661
70756SOL     OW14041  13.511  12.603   9.503
70756SOL    HW114042  13.467  12.601   9.589
70756SOL    HW214043  13.593  12.555   9.517
70757SOL     OW14044  12.970   1.205   4.595
70757SOL    HW114045  13.052   1.224   4.550
70757SOL    HW214046  12.989   1.127   4.648
70758SOL     OW14047   5.350   7.935   8.045
70758SOL    HW114048   5.407   8.012   8.052
70758SOL    HW214049   5.319   7.920   8.134
70759SOL     OW14050   5.916   1.486   2.440
70759SOL    HW114051   5.900   1.550   2.371
70759SOL    HW214052   5.846   1.502   2.504
70760SOL     OW14053  13.052   1.820   6.312
70760SOL    HW114054  13.144   1.818   6.339
70760SOL    HW214055  13.026   1.728   6.311
70761SOL     OW14056  10.023   1.639   8.643
70761SOL    HW114057  10.105   1.602   8.611
70761SOL    HW214058  10.050   1.707   8.705
70762SOL     OW14059   9.298  14.657  13.550
70762SOL    HW114060   9.241  14.584  13.573
70762SOL    HW214061   9.364  14.658  13.620
70763SOL     OW14062  12.044   6.328   2.398
70763SOL    HW114063  12.096   6.313   2.477
70763SOL    HW214064  12.105   6.311   2.326
70764SOL     OW14065  10.411   5.079  10.911
70764SOL    HW114066  10.403   5.070  10.816
70764SOL    HW214067  10.326   5.051  10.945
70765SOL     OW14068  11.371   7.603   3.774
70765SOL    HW114069  11.377   7.615   3.679
70765SOL    HW214070  11.451   7.646   3.807
70766SOL     OW14071   9.168  12.738  10.937
70766SOL    HW114072   9.223  12.801  10.890
70766SOL    HW214073   9.199  12.653  10.907
70767SOL     OW14074  12.546   8.383  11.504
70767SOL    HW114075  12.549   8.322  11.430
70767SOL    HW214076  12.577   8.466  11.468
70768SOL     OW14077   2.945   6.721   9.437
70768SOL    HW114078   2.908   6.634   9.420
70768SOL    HW214079   2.881   6.764   9.494
70769SOL     OW14080  13.086   5.175   6.656
70769SOL    HW114081  13.170   5.188   6.614
70769SOL    HW214082  13.024   5.224   6.603
70770SOL     OW14083   2.920  13.943   5.627
70770SOL    HW114084   2.965  14.026   5.641
70770SOL    HW214085   2.938  13.921   5.535
70771SOL     OW14086   9.481  10.927  13.008
70771SOL    HW114087   9.406  10.877  13.039
70771SOL    HW214088   9.448  10.974  12.931
70772SOL     OW14089  10.605   2.012  11.821
70772SOL    HW114090  10.580   1.931  11.865
70772SOL    HW214091  10.697   2.024  11.843
70773SOL     OW14092  13.242  13.437   9.808
70773SOL    HW114093  13.233  13.382   9.730
70773SOL    HW214094  13.313  13.497   9.786
70774SOL     OW14095   1.056   9.874   0.113
70774SOL    HW114096   1.112   9.863   0.036
70774SOL    HW214097   1.026   9.786   0.134
70775SOL     OW14098  11.055  12.810  13.860
70775SOL    HW114099  11.138  12.846  13.891
70775SOL    HW214100  11.080  12.736  13.806
70776SOL     OW14101   1.952   6.823   2.882
70776SOL    HW114102   1.930   6.731   2.895
70776SOL    HW214103   2.041   6.832   2.915
70777SOL     OW14104   6.818   2.193   5.678
70777SOL    HW114105   6.732   2.152   5.672
70777SOL    HW214106   6.868   2.135   5.735
70778SOL     OW14107   4.910   5.091   3.451
70778SOL    HW114108   4.990   5.116   3.497
70778SOL    HW214109   4.893   5.163   3.391
70779SOL     OW14110  12.244   1.706   6.743
70779SOL    HW114111  12.284   1.685   6.658
70779SOL    HW214112  12.164   1.653   6.745
70780SOL     OW14113   5.224   8.539   3.980
70780SOL    HW114114   5.287   8.565   3.914
70780SOL    HW214115   5.166   8.477   3.936
70781SOL     OW14116   1.756   9.920  10.435
70781SOL    HW114117   1.781  10.012  10.437
70781SOL    HW214118   1.740   9.897  10.526
70782SOL     OW14119   6.777   0.920  12.304
70782SOL    HW114120   6.770   1.010  12.334
70782SOL    HW214121   6.697   0.905  12.254
70783SOL     OW14122   3.343   4.947   7.127
70783SOL    HW114123   3.251   4.974   7.121
70783SOL    HW214124   3.345   4.886   7.200
70784SOL     OW14125  11.952   6.537   6.378
70784SOL    HW114126  11.862   6.571   6.376
70784SOL    HW214127  12.006   6.613   6.401
70785SOL     OW14128  12.040  12.261   8.590
70785SOL    HW114129  11.957  12.278   8.635
70785SOL    HW214130  12.105  12.257   8.659
70786SOL     OW14131  10.754   7.692   2.490
70786SOL    HW114132  10.742   7.753   2.417
70786SOL    HW214133  10.677   7.706   2.545
70787SOL     OW14134  12.711  14.755   6.370
70787SOL    HW114135  12.757  14.807   6.436
70787SOL    HW214136  12.781  14.721   6.314
70788SOL     OW14137   0.715   3.415   1.456
70788SOL    HW114138   0.678   3.336   1.493
70788SOL    HW214139   0.777   3.384   1.390
70789SOL     OW14140  13.400  12.302   6.854
70789SOL    HW114141  13.490  12.335   6.862
70789SOL    HW214142  13.347  12.362   6.906
70790SOL     OW14143   7.251   8.432   8.624
70790SOL    HW114144   7.194   8.503   8.650
70790SOL    HW214145   7.339   8.470   8.623
70791SOL     OW14146  10.516   1.066  11.535
70791SOL    HW114147  10.529   1.155  11.502
70791SOL    HW214148  10.430   1.068  11.577
70792SOL     OW14149   0.420   8.340   8.139
70792SOL    HW114150   0.360   8.410   8.114
70792SOL    HW214151   0.493   8.348   8.078
70793SOL     OW14152  10.127   8.397  12.686
70793SOL    HW114153  10.062   8.343  12.641
70793SOL    HW214154  10.076   8.459  12.737
70794SOL     OW14155   2.534   4.264   6.338
70794SOL    HW114156   2.605   4.256   6.401
70794SOL    HW214157   2.530   4.357   6.317
70795SOL     OW14158  14.680   3.762   3.681
70795SOL    HW114159  14.695   3.797   3.594
70795SOL    HW214160  14.624   3.685   3.667
70796SOL     OW14161   6.668   6.298  13.182
70796SOL    HW114162   6.697   6.371  13.236
70796SOL    HW214163   6.649   6.337  13.097
70797SOL     OW14164  10.290   3.961   7.970
70797SOL    HW114165  10.257   3.909   7.896
70797SOL    HW214166  10.212   3.978   8.023
70798SOL     OW14167  12.713  12.260  12.780
70798SOL    HW114168  12.626  12.230  12.755
70798SOL    HW214169  12.745  12.192  12.841
70799SOL     OW14170   9.621  11.021  10.481
70799SOL    HW114171   9.698  11.077  10.471
70799SOL    HW214172   9.653  10.932  10.466
70800SOL     OW14173   2.071   1.788  14.340
70800SOL    HW114174   2.043   1.811  14.429
70800SOL    HW214175   1.997   1.740  14.304
70801SOL     OW14176   2.861  11.516   0.965
70801SOL    HW114177   2.863  11.609   0.986
70801SOL    HW214178   2.771  11.489   0.986
70802SOL     OW14179   1.048   0.123  14.655
70802SOL    HW114180   1.071   0.078  14.736
70802SOL    HW214181   1.131   0.136  14.610
70803SOL     OW14182  13.252   6.408   9.074
70803SOL    HW114183  13.348   6.406   9.075
70803SOL    HW214184  13.229   6.482   9.131
70804SOL     OW14185   3.479   0.716  14.079
70804SOL    HW114186   3.429   0.648  14.034
70804SOL    HW214187   3.550   0.738  14.018
70805SOL     OW14188   1.624  11.221   0.632
70805SOL    HW114189   1.587  11.259   0.711
70805SOL    HW214190   1.669  11.293   0.589
70806SOL     OW14191  10.936   8.387   4.819
70806SOL    HW114192  10.845   8.375   4.793
70806SOL    HW214193  10.944   8.480   4.838
70807SOL     OW14194  10.361   7.065   1.725
70807SOL    HW114195  10.353   6.970   1.720
70807SOL    HW214196  10.395   7.082   1.812
70808SOL     OW14197  13.313   2.404   1.596
70808SOL    HW114198  13.356   2.485   1.622
70808SOL    HW214199  13.355   2.380   1.513
70809SOL     OW14200   9.746  13.347  14.279
70809SOL    HW114201   9.690  13.396  14.218
70809SOL    HW214202   9.825  13.328  14.229
70810SOL     OW14203   7.348  13.742  12.763
70810SOL    HW114204   7.400  13.772  12.689
70810SOL    HW214205   7.330  13.821  12.814
70811SOL     OW14206   1.991   3.877   8.891
70811SOL    HW114207   1.925   3.919   8.836
70811SOL    HW214208   1.968   3.784   8.890
70812SOL     OW14209   5.497   4.561   1.480
70812SOL    HW114210   5.405   4.543   1.498
70812SOL    HW214211   5.495   4.641   1.427
70813SOL     OW14212   5.945  10.759   0.196
70813SOL    HW114213   5.978  10.705   0.268
70813SOL    HW214214   5.913  10.839   0.239
70814SOL     OW14215   9.793   5.006   6.566
70814SOL    HW114216   9.801   5.056   6.647
70814SOL    HW214217   9.865   5.038   6.511
70815SOL     OW14218   3.986   9.981   3.418
70815SOL    HW114219   3.940  10.065   3.420
70815SOL    HW214220   4.058   9.991   3.480
70816SOL     OW14221   3.222   8.691  12.518
70816SOL    HW114222   3.244   8.756  12.585
70816SOL    HW214223   3.306   8.667  12.479
70817SOL     OW14224   1.131   0.826   3.293
70817SOL    HW114225   1.221   0.855   3.308
70817SOL    HW214226   1.139   0.736   3.263
70818SOL     OW14227   3.936   0.674   4.540
70818SOL    HW114228   3.888   0.743   4.495
70818SOL    HW214229   4.006   0.649   4.479
70819SOL     OW14230   9.401  12.186  13.882
70819SOL    HW114231   9.482  12.148  13.847
70819SOL    HW214232   9.375  12.126  13.953
70820SOL     OW14233  13.993   2.945  10.296
70820SOL    HW114234  14.027   2.972  10.211
70820SOL    HW214235  14.036   3.004  10.359
70821SOL     OW14236   1.312  10.783  12.808
70821SOL    HW114237   1.291  10.824  12.892
70821SOL    HW214238   1.287  10.848  12.743
70822SOL     OW14239   3.323   8.514   7.035
70822SOL    HW114240   3.365   8.431   7.017
70822SOL    HW214241   3.333   8.527   7.129
70823SOL     OW14242   1.290  12.335   9.982
70823SOL    HW114243   1.333  12.278   9.918
70823SOL    HW214244   1.198  12.306   9.981
70824SOL     OW14245   6.204   1.944  11.864
70824SOL    HW114246   6.133   2.006  11.880
70824SOL    HW214247   6.273   1.996  11.823
70825SOL     OW14248   7.328   0.337   6.313
70825SOL    HW114249   7.239   0.355   6.283
70825SOL    HW214250   7.357   0.420   6.352
70826SOL     OW14251   6.736   8.194   2.537
70826SOL    HW114252   6.806   8.243   2.578
70826SOL    HW214253   6.707   8.250   2.465
70827SOL     OW14254   3.023  14.195  14.073
70827SOL    HW114255   2.941  14.176  14.118
70827SOL    HW214256   3.025  14.134  13.999
70828SOL     OW14257   0.754   8.005  13.868
70828SOL    HW114258   0.799   7.929  13.830
70828SOL    HW214259   0.781   8.079  13.813
70829SOL     OW14260   9.866  12.465   6.273
70829SOL    HW114261   9.830  12.487   6.187
70829SOL    HW214262   9.835  12.377   6.290
70830SOL     OW14263  14.171   0.768   2.664
70830SOL    HW114264  14.075   0.777   2.668
70830SOL    HW214265  14.190   0.695   2.723
70831SOL     OW14266  14.184   4.893  12.898
70831SOL    HW114267  14.236   4.827  12.944
70831SOL    HW214268  14.248   4.943  12.847
70832SOL     OW14269  13.961  14.429   6.534
70832SOL    HW114270  13.953  14.334   6.526
70832SOL    HW214271  13.878  14.457   6.572
70833SOL     OW14272   6.841   1.184   4.843
70833SOL    HW114273   6.757   1.152   4.810
70833SOL    HW214274   6.902   1.112   4.828
70834SOL     OW14275  10.282   3.751   1.014
70834SOL    HW114276  10.211   3.731   0.953
70834SOL    HW214277  10.299   3.669   1.060
70835SOL     OW14278   6.396   7.331   1.854
70835SOL    HW114279   6.401   7.401   1.919
70835SOL    HW214280   6.393   7.376   1.770
70836SOL     OW14281   8.075   0.769   1.373
70836SOL    HW114282   8.140   0.787   1.305
70836SOL    HW214283   8.077   0.673   1.383
70837SOL     OW14284  12.895  13.284  11.095
70837SOL    HW114285  12.985  13.269  11.066
70837SOL    HW214286  12.855  13.197  11.092
70838SOL     OW14287  10.641   8.260   1.435
70838SOL    HW114288  10.630   8.347   1.473
70838SOL    HW214289  10.555   8.238   1.400
70839SOL     OW14290   0.038   2.457   2.868
70839SOL    HW114291   0.117   2.472   2.921
70839SOL    HW214292  14.843   2.469   2.930
70840SOL     OW14293   9.777   1.353  14.205
70840SOL    HW114294   9.856   1.369  14.153
70840SOL    HW214295   9.740   1.273  14.167
70841SOL     OW14296  13.848  14.545   8.182
70841SOL    HW114297  13.810  14.490   8.113
70841SOL    HW214298  13.874  14.482   8.249
70842SOL     OW14299   9.074   3.380   4.922
70842SOL    HW114300   9.008   3.427   4.870
70842SOL    HW214301   9.125   3.331   4.858
70843SOL     OW14302   7.080   1.768   6.122
70843SOL    HW114303   7.107   1.807   6.205
70843SOL    HW214304   7.158   1.770   6.068
70844SOL     OW14305   4.207  13.880   9.440
70844SOL    HW114306   4.262  13.808   9.470
70844SOL    HW214307   4.165  13.847   9.361
70845SOL     OW14308   7.559   6.964   8.562
70845SOL    HW114309   7.578   6.979   8.654
70845SOL    HW214310   7.576   7.048   8.519
70846SOL     OW14311  10.055   0.557   9.747
70846SOL    HW114312   9.996   0.615   9.797
70846SOL    HW214313  10.044   0.585   9.656
70847SOL     OW14314   2.572  11.060   0.477
70847SOL    HW114315   2.665  11.057   0.453
70847SOL    HW214316   2.571  11.042   0.571
70848SOL     OW14317   6.770   2.240  12.030
70848SOL    HW114318   6.779   2.264  12.122
70848SOL    HW214319   6.843   2.180  12.013
70849SOL     OW14320  11.122   0.519  10.931
70849SOL    HW114321  11.081   0.604  10.942
70849SOL    HW214322  11.213   0.532  10.959
70850SOL     OW14323   4.523  14.605  13.099
70850SOL    HW114324   4.566  14.529  13.060
70850SOL    HW214325   4.541  14.676  13.037
70851SOL     OW14326   9.766   1.937   5.476
70851SOL    HW114327   9.788   1.846   5.497
70851SOL    HW214328   9.776   1.943   5.381
70852SOL     OW14329   2.290  12.894   8.200
70852SOL    HW114330   2.229  12.822   8.219
70852SOL    HW214331   2.244  12.948   8.136
70853SOL     OW14332   3.793   4.278   8.741
70853SOL    HW114333   3.860   4.317   8.798
70853SOL    HW214334   3.723   4.343   8.739
70854SOL     OW14335   1.518   7.825   0.536
70854SOL    HW114336   1.485   7.741   0.568
70854SOL    HW214337   1.604   7.834   0.578
70855SOL     OW14338  11.242   4.256  13.678
70855SOL    HW114339  11.301   4.274  13.605
70855SOL    HW214340  11.211   4.167  13.662
70856SOL     OW14341  14.527  11.678   7.622
70856SOL    HW114342  14.529  11.620   7.546
70856SOL    HW214343  14.581  11.753   7.597
70857SOL     OW14344   2.674   2.406  13.246
70857SOL    HW114345   2.631   2.491  13.234
70857SOL    HW214346   2.627   2.366  13.319
70858SOL     OW14347  14.426  10.974   0.477
70858SOL    HW114348  14.419  10.995   0.570
70858SOL    HW214349  14.365  11.035   0.435
70859SOL     OW14350  13.571   4.466   0.982
70859SOL    HW114351  13.525   4.390   0.946
70859SOL    HW214352  13.662   4.454   0.954
70860SOL     OW14353   5.583   8.017   6.685
70860SOL    HW114354   5.506   7.961   6.673
70860SOL    HW214355   5.568   8.059   6.770
70861SOL     OW14356  12.072   6.315   4.357
70861SOL    HW114357  12.106   6.376   4.422
70861SOL    HW214358  12.138   6.245   4.353
70862SOL     OW14359   9.514   1.027   9.122
70862SOL    HW114360   9.595   0.977   9.129
70862SOL    HW214361   9.475   1.000   9.039
70863SOL     OW14362   0.705  10.713  14.504
70863SOL    HW114363   0.723  10.622  14.528
70863SOL    HW214364   0.694  10.758  14.587
70864SOL     OW14365   7.637   3.153   8.711
70864SOL    HW114366   7.549   3.190   8.714
70864SOL    HW214367   7.696   3.229   8.711
70865SOL     OW14368   8.587   0.640  12.805
70865SOL    HW114369   8.582   0.604  12.893
70865SOL    HW214370   8.587   0.735  12.817
70866SOL     OW14371   0.600   2.167  12.479
70866SOL    HW114372   0.623   2.122  12.559
70866SOL    HW214373   0.542   2.238  12.507
70867SOL     OW14374   1.082   9.464   1.143
70867SOL    HW114375   1.122   9.387   1.104
70867SOL    HW214376   0.990   9.440   1.157
70868SOL     OW14377  13.860   3.903   0.966
70868SOL    HW114378  13.851   3.822   0.915
70868SOL    HW214379  13.772   3.938   0.972
70869SOL     OW14380  11.662  13.929  13.547
70869SOL    HW114381  11.712  13.852  13.519
70869SOL    HW214382  11.660  13.923  13.643
70870SOL     OW14383  11.963   0.972   7.729
70870SOL    HW114384  11.966   0.889   7.777
70870SOL    HW214385  11.966   0.946   7.637
70871SOL     OW14386   3.562   5.348  11.680
70871SOL    HW114387   3.634   5.405  11.704
70871SOL    HW214388   3.489   5.407  11.661
70872SOL     OW14389   4.014  11.226   3.741
70872SOL    HW114390   4.044  11.203   3.653
70872SOL    HW214391   3.921  11.247   3.729
70873SOL     OW14392   7.292  12.957   8.923
70873SOL    HW114393   7.273  12.909   9.003
70873SOL    HW214394   7.383  12.983   8.931
70874SOL     OW14395   0.592   7.083   1.689
70874SOL    HW114396   0.648   7.135   1.631
70874SOL    HW214397   0.587   7.134   1.770
70875SOL     OW14398   7.304   9.029   3.755
70875SOL    HW114399   7.282   9.110   3.708
70875SOL    HW214400   7.398   9.034   3.768
70876SOL     OW14401   5.287  13.483  14.052
70876SOL    HW114402   5.365  13.433  14.074
70876SOL    HW214403   5.258  13.520  14.136
70877SOL     OW14404   5.943   1.232   7.053
70877SOL    HW114405   6.003   1.242   6.979
70877SOL    HW214406   6.000   1.236   7.130
70878SOL     OW14407   3.561   9.053   3.553
70878SOL    HW114408   3.639   9.076   3.604
70878SOL    HW214409   3.508   9.132   3.552
70879SOL     OW14410  10.065   3.574  13.601
70879SOL    HW114411  10.110   3.499  13.564
70879SOL    HW214412  10.009   3.607  13.531
70880SOL     OW14413   2.366  10.848  10.687
70880SOL    HW114414   2.285  10.847  10.739
70880SOL    HW214415   2.391  10.941  10.684
70881SOL     OW14416   4.249  13.018   8.970
70881SOL    HW114417   4.191  13.066   8.911
70881SOL    HW214418   4.288  13.086   9.025
70882SOL     OW14419   4.990   0.454   5.581
70882SOL    HW114420   4.908   0.473   5.536
70882SOL    HW214421   5.056   0.450   5.511
70883SOL     OW14422  14.025   2.568  12.440
70883SOL    HW114423  13.952   2.621  12.470
70883SOL    HW214424  14.101   2.626  12.446
70884SOL     OW14425   9.652   7.023  14.336
70884SOL    HW114426   9.652   6.946  14.393
70884SOL    HW214427   9.668   6.988  14.248
70885SOL     OW14428   9.376  11.128  14.448
70885SOL    HW114429   9.368  11.117  14.543
70885SOL    HW214430   9.380  11.039  14.413
70886SOL     OW14431   2.668   7.177  13.474
70886SOL    HW114432   2.642   7.260  13.434
70886SOL    HW214433   2.651   7.188  13.568
70887SOL     OW14434  10.080  11.594  12.926
70887SOL    HW114435  10.054  11.504  12.908
70887SOL    HW214436   9.997  11.641  12.937
70888SOL     OW14437   0.172   2.528   5.705
70888SOL    HW114438   0.141   2.452   5.754
70888SOL    HW214439   0.214   2.583   5.770
70889SOL     OW14440   1.946   1.387   5.643
70889SOL    HW114441   1.872   1.422   5.592
70889SOL    HW214442   1.962   1.453   5.710
70890SOL     OW14443   4.562  10.863   3.058
70890SOL    HW114444   4.471  10.873   3.085
70890SOL    HW214445   4.590  10.780   3.097
70891SOL     OW14446  14.532  13.911   4.526
70891SOL    HW114447  14.624  13.917   4.502
70891SOL    HW214448  14.533  13.892   4.620
70892SOL     OW14449   0.698  13.513   2.789
70892SOL    HW114450   0.698  13.434   2.736
70892SOL    HW214451   0.789  13.544   2.786
70893SOL     OW14452   0.088   6.391   5.976
70893SOL    HW114453   0.107   6.425   6.064
70893SOL    HW214454  14.874   6.362   5.981
70894SOL     OW14455   4.285   3.816  12.019
70894SOL    HW114456   4.347   3.887  12.037
70894SOL    HW214457   4.274   3.817  11.924
70895SOL     OW14458   6.062   9.384  10.936
70895SOL    HW114459   6.150   9.423  10.940
70895SOL    HW214460   6.065   9.311  10.998
70896SOL     OW14461   3.024   6.303   3.205
70896SOL    HW114462   3.048   6.339   3.120
70896SOL    HW214463   2.998   6.213   3.188
70897SOL     OW14464   5.204   9.570   1.086
70897SOL    HW114465   5.236   9.644   1.034
70897SOL    HW214466   5.278   9.545   1.140
70898SOL     OW14467   3.876   6.544   9.023
70898SOL    HW114468   3.856   6.477   9.088
70898SOL    HW214469   3.911   6.495   8.949
70899SOL     OW14470  12.489   1.028  13.525
70899SOL    HW114471  12.543   1.106  13.540
70899SOL    HW214472  12.440   1.017  13.607
70900SOL     OW14473  14.105   1.212   6.774
70900SOL    HW114474  14.152   1.185   6.695
70900SOL    HW214475  14.127   1.145   6.839
70901SOL     OW14476   7.619   0.374   8.417
70901SOL    HW114477   7.533   0.336   8.397
70901SOL    HW214478   7.678   0.334   8.353
70902SOL     OW14479   1.830  10.090  10.107
70902SOL    HW114480   1.921  10.105  10.080
70902SOL    HW214481   1.818   9.996  10.103
70903SOL     OW14482   8.132   2.426   3.639
70903SOL    HW114483   8.173   2.499   3.685
70903SOL    HW214484   8.039   2.432   3.662
70904SOL     OW14485  12.539   6.688  12.512
70904SOL    HW114486  12.584   6.639  12.443
70904SOL    HW214487  12.557   6.639  12.592
70905SOL     OW14488  11.724  12.695  12.189
70905SOL    HW114489  11.691  12.778  12.225
70905SOL    HW214490  11.653  12.633  12.203
70906SOL     OW14491   3.705   4.884  11.472
70906SOL    HW114492   3.696   4.964  11.523
70906SOL    HW214493   3.620   4.873  11.430
70907SOL     OW14494   1.765   5.557  11.661
70907SOL    HW114495   1.731   5.567  11.572
70907SOL    HW214496   1.802   5.469  11.663
70908SOL     OW14497   4.196  14.351  12.165
70908SOL    HW114498   4.242  14.378  12.086
70908SOL    HW214499   4.265  14.340  12.231
70909SOL     OW14500   7.341  14.328   2.184
70909SOL    HW114501   7.411  14.360   2.242
70909SOL    HW214502   7.307  14.406   2.141
70910SOL     OW14503   6.051   3.015   1.924
70910SOL    HW114504   6.085   3.039   2.011
70910SOL    HW214505   6.128   2.988   1.875
70911SOL     OW14506   1.982   2.482  10.733
70911SOL    HW114507   1.987   2.387  10.740
70911SOL    HW214508   1.926   2.497  10.656
70912SOL     OW14509   2.066  11.235   3.471
70912SOL    HW114510   2.069  11.250   3.377
70912SOL    HW214511   2.090  11.143   3.481
70913SOL     OW14512   1.464   1.212   7.644
70913SOL    HW114513   1.479   1.300   7.679
70913SOL    HW214514   1.496   1.153   7.713
70914SOL     OW14515   9.337  14.803   6.615
70914SOL    HW114516   9.289  14.856   6.552
70914SOL    HW214517   9.371  14.729   6.565
70915SOL     OW14518   9.088   2.273  11.794
70915SOL    HW114519   9.066   2.182  11.812
70915SOL    HW214520   9.025   2.301  11.727
70916SOL     OW14521  10.392  11.418   3.078
70916SOL    HW114522  10.425  11.359   3.011
70916SOL    HW214523  10.446  11.497   3.069
70917SOL     OW14524   7.416  14.718   2.912
70917SOL    HW114525   7.378  14.792   2.959
70917SOL    HW214526   7.362  14.710   2.833
70918SOL     OW14527  13.044   2.142  11.096
70918SOL    HW114528  13.108   2.152  11.025
70918SOL    HW214529  13.043   2.228  11.138
70919SOL     OW14530   4.651  12.630  13.185
70919SOL    HW114531   4.664  12.720  13.157
70919SOL    HW214532   4.593  12.636  13.261
70920SOL     OW14533   5.825   2.396   8.845
70920SOL    HW114534   5.875   2.329   8.893
70920SOL    HW214535   5.753   2.418   8.904
70921SOL     OW14536  13.679   9.505  12.060
70921SOL    HW114537  13.633   9.574  12.011
70921SOL    HW214538  13.765   9.498  12.017
70922SOL     OW14539  10.191  13.526   2.800
70922SOL    HW114540  10.263  13.587   2.810
70922SOL    HW214541  10.136  13.564   2.732
70923SOL     OW14542   6.926   4.256   0.525
70923SOL    HW114543   6.991   4.249   0.595
70923SOL    HW214544   6.842   4.251   0.570
70924SOL     OW14545  14.062  10.744   7.448
70924SOL    HW114546  14.074  10.838   7.461
70924SOL    HW214547  14.011  10.737   7.368
70925SOL     OW14548   9.061   0.695   8.578
70925SOL    HW114549   8.977   0.724   8.616
70925SOL    HW214550   9.069   0.747   8.498
70926SOL     OW14551  13.899  13.472   6.256
70926SOL    HW114552  13.991  13.496   6.255
70926SOL    HW214553  13.863  13.518   6.332
70927SOL     OW14554  13.357   6.886   8.433
70927SOL    HW114555  13.447   6.918   8.425
70927SOL    HW214556  13.312   6.922   8.356
70928SOL     OW14557  14.298   3.168  10.701
70928SOL    HW114558  14.328   3.087  10.660
70928SOL    HW214559  14.349   3.237  10.659
70929SOL     OW14560   7.841  11.905  13.593
70929SOL    HW114561   7.818  11.944  13.509
70929SOL    HW214562   7.824  11.974  13.657
70930SOL     OW14563   4.628   2.750   2.943
70930SOL    HW114564   4.711   2.788   2.971
70930SOL    HW214565   4.590   2.815   2.884
70931SOL     OW14566   1.907   9.711  13.619
70931SOL    HW114567   1.966   9.784  13.641
70931SOL    HW214568   1.907   9.657  13.698
70932SOL     OW14569  14.131  14.217   0.932
70932SOL    HW114570  14.219  14.254   0.942
70932SOL    HW214571  14.144  14.138   0.880
70933SOL     OW14572  11.984   7.082   4.130
70933SOL    HW114573  11.945   7.005   4.090
70933SOL    HW214574  11.910   7.139   4.152
70934SOL     OW14575   7.315   7.599   4.060
70934SOL    HW114576   7.275   7.518   4.030
70934SOL    HW214577   7.253   7.633   4.125
70935SOL     OW14578   1.783   4.013  10.049
70935SOL    HW114579   1.819   3.984  10.133
70935SOL    HW214580   1.762   3.932  10.003
70936SOL     OW14581   7.972  12.754   3.831
70936SOL    HW114582   8.044  12.814   3.848
70936SOL    HW214583   7.933  12.785   3.749
70937SOL     OW14584   2.676  10.685  13.279
70937SOL    HW114585   2.603  10.634  13.244
70937SOL    HW214586   2.731  10.621  13.324
70938SOL     OW14587   4.616   0.563   4.249
70938SOL    HW114588   4.579   0.609   4.173
70938SOL    HW214589   4.675   0.498   4.210
70939SOL     OW14590  11.241  14.457  12.453
70939SOL    HW114591  11.208  14.368  12.441
70939SOL    HW214592  11.162  14.512  12.446
70940SOL     OW14593  10.718   4.104   3.904
70940SOL    HW114594  10.793   4.164   3.898
70940SOL    HW214595  10.729   4.061   3.989
70941SOL     OW14596   2.438   6.867  14.518
70941SOL    HW114597   2.478   6.939  14.568
70941SOL    HW214598   2.361   6.842  14.569
70942SOL     OW14599   7.652   8.946  14.520
70942SOL    HW114600   7.631   8.861  14.481
70942SOL    HW214601   7.658   8.928  14.614
70943SOL     OW14602  10.289   6.617  13.006
70943SOL    HW114603  10.255   6.707  13.004
70943SOL    HW214604  10.349   6.613  12.932
70944SOL     OW14605   4.632   8.575  12.255
70944SOL    HW114606   4.726   8.591  12.248
70944SOL    HW214607   4.623   8.480  12.248
70945SOL     OW14608   0.971   3.697   1.934
70945SOL    HW114609   0.903   3.764   1.929
70945SOL    HW214610   0.993   3.692   2.027
70946SOL     OW14611  13.922   9.430  13.168
70946SOL    HW114612  13.853   9.454  13.230
70946SOL    HW214613  13.892   9.349  13.128
70947SOL     OW14614  12.148   0.386   1.813
70947SOL    HW114615  12.071   0.404   1.867
70947SOL    HW214616  12.141   0.292   1.794
70948SOL     OW14617   2.932   6.203   7.373
70948SOL    HW114618   2.923   6.260   7.449
70948SOL    HW214619   2.983   6.253   7.310
70949SOL     OW14620   8.113  11.889  12.771
70949SOL    HW114621   8.156  11.873  12.855
70949SOL    HW214622   8.030  11.842  12.777
70950SOL     OW14623   0.094   1.283   5.151
70950SOL    HW114624   0.117   1.255   5.240
70950SOL    HW214625   0.010   1.327   5.162
70951SOL     OW14626   4.349   3.286   5.534
70951SOL    HW114627   4.283   3.221   5.558
70951SOL    HW214628   4.433   3.244   5.552
70952SOL     OW14629  13.703  14.854   6.479
70952SOL    HW114630  13.702   0.036   6.404
70952SOL    HW214631  13.630  14.794   6.462
70953SOL     OW14632   3.262   5.877   4.209
70953SOL    HW114633   3.348   5.868   4.250
70953SOL    HW214634   3.280   5.875   4.115
70954SOL     OW14635   6.404  10.410  11.865
70954SOL    HW114636   6.473  10.346  11.848
70954SOL    HW214637   6.388  10.405  11.959
70955SOL     OW14638   9.230   9.326   6.866
70955SOL    HW114639   9.290   9.275   6.812
70955SOL    HW214640   9.163   9.356   6.805
70956SOL     OW14641  11.527  11.359   4.759
70956SOL    HW114642  11.593  11.373   4.827
70956SOL    HW214643  11.526  11.441   4.709
70957SOL     OW14644   1.139  10.988   8.868
70957SOL    HW114645   1.153  10.894   8.876
70957SOL    HW214646   1.075  10.997   8.797
70958SOL     OW14647  11.146  10.462   6.717
70958SOL    HW114648  11.101  10.540   6.749
70958SOL    HW214649  11.077  10.396   6.710
70959SOL     OW14650  13.860  11.353   7.872
70959SOL    HW114651  13.946  11.392   7.855
70959SOL    HW214652  13.802  11.427   7.885
70960SOL     OW14653  12.282  10.397   4.361
70960SOL    HW114654  12.308  10.362   4.446
70960SOL    HW214655  12.364  10.406   4.313
70961SOL     OW14656  13.582   5.754   9.064
70961SOL    HW114657  13.584   5.789   8.975
70961SOL    HW214658  13.593   5.660   9.053
70962SOL     OW14659  10.286  10.819   2.390
70962SOL    HW114660  10.367  10.770   2.379
70962SOL    HW214661  10.312  10.911   2.387
70963SOL     OW14662   9.333   2.753  10.115
70963SOL    HW114663   9.345   2.705  10.033
70963SOL    HW214664   9.408   2.811  10.121
70964SOL     OW14665   6.109  14.438   8.599
70964SOL    HW114666   6.052  14.361   8.594
70964SOL    HW214667   6.084  14.491   8.523
70965SOL     OW14668   2.857   3.106   1.164
70965SOL    HW114669   2.831   3.035   1.222
70965SOL    HW214670   2.889   3.063   1.085
70966SOL     OW14671   2.756   5.756  12.164
70966SOL    HW114672   2.663   5.760  12.184
70966SOL    HW214673   2.788   5.845  12.178
70967SOL     OW14674   4.558   4.597  10.750
70967SOL    HW114675   4.482   4.655  10.747
70967SOL    HW214676   4.523   4.513  10.779
70968SOL     OW14677   5.315   5.701   5.230
70968SOL    HW114678   5.281   5.616   5.203
70968SOL    HW214679   5.261   5.726   5.305
70969SOL     OW14680   5.814  12.435   3.339
70969SOL    HW114681   5.834  12.454   3.247
70969SOL    HW214682   5.834  12.517   3.385
70970SOL     OW14683   6.240  10.410   8.472
70970SOL    HW114684   6.174  10.405   8.402
70970SOL    HW214685   6.283  10.324   8.470
70971SOL     OW14686   7.977   4.290   3.095
70971SOL    HW114687   8.016   4.255   3.015
70971SOL    HW214688   8.034   4.363   3.120
70972SOL     OW14689   8.207   0.695  12.673
70972SOL    HW114690   8.178   0.746  12.598
70972SOL    HW214691   8.126   0.676  12.722
70973SOL     OW14692  11.276   2.187  10.571
70973SOL    HW114693  11.310   2.157  10.655
70973SOL    HW214694  11.332   2.146  10.505
70974SOL     OW14695   2.427   6.961  14.215
70974SOL    HW114696   2.452   6.884  14.267
70974SOL    HW214697   2.459   7.035  14.266
70975SOL     OW14698  11.523   9.800   3.103
70975SOL    HW114699  11.499   9.871   3.162
70975SOL    HW214700  11.608   9.769   3.134
70976SOL     OW14701   3.749   7.470   6.465
70976SOL    HW114702   3.690   7.407   6.424
70976SOL    HW214703   3.790   7.421   6.537
70977SOL     OW14704  14.622   5.162  11.564
70977SOL    HW114705  14.703   5.207  11.542
70977SOL    HW214706  14.556   5.231  11.569
70978SOL     OW14707  10.946   3.983  10.220
70978SOL    HW114708  11.026   3.960  10.267
70978SOL    HW214709  10.904   4.050  10.275
70979SOL     OW14710   6.280   6.557   8.538
70979SOL    HW114711   6.216   6.622   8.568
70979SOL    HW214712   6.349   6.609   8.498
70980SOL     OW14713   9.668  13.724   1.600
70980SOL    HW114714   9.647  13.805   1.646
70980SOL    HW214715   9.661  13.655   1.667
70981SOL     OW14716  12.174  14.303   2.519
70981SOL    HW114717  12.093  14.323   2.566
70981SOL    HW214718  12.234  14.372   2.544
70982SOL     OW14719   6.366   9.916   5.415
70982SOL    HW114720   6.394   9.911   5.323
70982SOL    HW214721   6.329   9.829   5.434
70983SOL     OW14722   7.480  12.617   3.194
70983SOL    HW114723   7.528  12.582   3.268
70983SOL    HW214724   7.508  12.708   3.188
70984SOL     OW14725   2.495   4.307   2.522
70984SOL    HW114726   2.575   4.283   2.475
70984SOL    HW214727   2.439   4.348   2.456
70985SOL     OW14728   0.113  10.221   5.506
70985SOL    HW114729   0.057  10.226   5.583
70985SOL    HW214730   0.181  10.158   5.529
70986SOL     OW14731   0.351  12.833   0.696
70986SOL    HW114732   0.330  12.923   0.718
70986SOL    HW214733   0.267  12.791   0.680
70987SOL     OW14734   3.758  11.898   8.326
70987SOL    HW114735   3.836  11.890   8.380
70987SOL    HW214736   3.695  11.838   8.366
70988SOL     OW14737  10.456   1.577   9.162
70988SOL    HW114738  10.470   1.587   9.256
70988SOL    HW214739  10.505   1.650   9.123
70989SOL     OW14740   3.795   4.501  11.196
70989SOL    HW114741   3.861   4.529  11.261
70989SOL    HW214742   3.778   4.579  11.144
70990SOL     OW14743  13.776   2.932   0.557
70990SOL    HW114744  13.845   2.981   0.512
70990SOL    HW214745  13.701   2.991   0.559
70991SOL     OW14746   9.544   1.431   0.907
70991SOL    HW114747   9.623   1.377   0.910
70991SOL    HW214748   9.479   1.376   0.863
70992SOL     OW14749   5.730   5.410   8.687
70992SOL    HW114750   5.650   5.457   8.662
70992SOL    HW214751   5.731   5.411   8.782
70993SOL     OW14752   2.042   7.572   7.462
70993SOL    HW114753   2.005   7.661   7.461
70993SOL    HW214754   2.134   7.584   7.440
70994SOL     OW14755   3.788   2.459   2.133
70994SOL    HW114756   3.770   2.534   2.190
70994SOL    HW214757   3.882   2.444   2.141
70995SOL     OW14758   7.320   7.861   3.442
70995SOL    HW114759   7.396   7.834   3.391
70995SOL    HW214760   7.310   7.954   3.422
70996SOL     OW14761  13.915  13.203   0.849
70996SOL    HW114762  13.954  13.268   0.908
70996SOL    HW214763  13.901  13.252   0.767
70997SOL     OW14764  14.628   5.919   5.178
70997SOL    HW114765  14.672   5.835   5.175
70997SOL    HW214766  14.539   5.899   5.207
70998SOL     OW14767   7.690  13.961   3.082
70998SOL    HW114768   7.733  14.046   3.082
70998SOL    HW214769   7.599  13.979   3.107
70999SOL     OW14770   0.941   2.528   8.380
70999SOL    HW114771   0.944   2.610   8.430
70999SOL    HW214772   0.888   2.549   8.303
71000SOL     OW14773   0.201  12.882  11.313
71000SOL    HW114774   0.153  12.852  11.235
71000SOL    HW214775   0.218  12.802  11.362
71001SOL     OW14776  10.485   1.202  12.266
71001SOL    HW114777  10.518   1.136  12.327
71001SOL    HW214778  10.558   1.217  12.205
71002SOL     OW14779   7.065   3.703  10.120
71002SOL    HW114780   7.116   3.753  10.056
71002SOL    HW214781   7.130   3.673  10.184
71003SOL     OW14782   4.281   0.998   3.028
71003SOL    HW114783   4.296   1.024   2.937
71003SOL    HW214784   4.296   1.078   3.079
71004SOL     OW14785   9.928   4.005   1.831
71004SOL    HW114786   9.924   4.039   1.741
71004SOL    HW214787   9.902   4.079   1.886
71005SOL     OW14788  10.664   9.476  14.139
71005SOL    HW114789  10.732   9.482  14.071
71005SOL    HW214790  10.607   9.551  14.122
71006SOL     OW14791   4.320   2.014  10.253
71006SOL    HW114792   4.392   1.966  10.211
71006SOL    HW214793   4.330   1.996  10.346
71007SOL     OW14794   0.834   2.951  12.085
71007SOL    HW114795   0.846   3.030  12.138
71007SOL    HW214796   0.785   2.892  12.142
71008SOL     OW14797   2.860  13.201   9.436
71008SOL    HW114798   2.937  13.249   9.467
71008SOL    HW214799   2.793  13.268   9.425
71009SOL     OW14800  13.197  13.937  13.270
71009SOL    HW114801  13.183  13.988  13.191
71009SOL    HW214802  13.122  13.959  13.326
71010SOL     OW14803   1.340   8.395   1.966
71010SOL    HW114804   1.316   8.476   1.922
71010SOL    HW214805   1.261   8.369   2.013
71011SOL     OW14806   8.030   1.255  13.844
71011SOL    HW114807   8.012   1.256  13.750
71011SOL    HW214808   8.068   1.340  13.863
71012SOL     OW14809  11.469   8.487   0.222
71012SOL    HW114810  11.427   8.534   0.293
71012SOL    HW214811  11.550   8.536   0.205
71013SOL     OW14812   4.176   2.278   9.896
71013SOL    HW114813   4.202   2.349   9.837
71013SOL    HW214814   4.229   2.293   9.975
71014SOL     OW14815   7.288  12.720   5.959
71014SOL    HW114816   7.204  12.764   5.970
71014SOL    HW214817   7.267  12.630   5.935
71015SOL     OW14818   3.957   6.883   6.745
71015SOL    HW114819   3.927   6.955   6.801
71015SOL    HW214820   3.968   6.809   6.806
71016SOL     OW14821   5.050   5.278  10.766
71016SOL    HW114822   5.069   5.343  10.834
71016SOL    HW214823   4.962   5.247  10.787
71017SOL     OW14824  11.957   9.725   0.359
71017SOL    HW114825  12.030   9.781   0.385
71017SOL    HW214826  11.932   9.756   0.272
71018SOL     OW14827   5.412   6.638   8.595
71018SOL    HW114828   5.346   6.704   8.574
71018SOL    HW214829   5.476   6.645   8.524
71019SOL     OW14830   5.086  11.285  13.976
71019SOL    HW114831   5.086  11.351  13.907
71019SOL    HW214832   5.177  11.282  14.007
71020SOL     OW14833  12.854   8.249   2.764
71020SOL    HW114834  12.801   8.304   2.822
71020SOL    HW214835  12.940   8.245   2.807
71021SOL     OW14836  13.727   4.443   9.492
71021SOL    HW114837  13.718   4.359   9.449
71021SOL    HW214838  13.817   4.444   9.526
71022SOL     OW14839  13.642   5.694  13.571
71022SOL    HW114840  13.546   5.699  13.578
71022SOL    HW214841  13.664   5.754  13.500
71023SOL     OW14842   0.609  11.757  14.825
71023SOL    HW114843   0.684  11.817  14.832
71023SOL    HW214844   0.632  11.685   0.007
71024SOL     OW14845   2.263  13.307   9.919
71024SOL    HW114846   2.291  13.336   9.832
71024SOL    HW214847   2.330  13.340   9.978
71025SOL     OW14848  12.335   0.319   8.356
71025SOL    HW114849  12.283   0.246   8.323
71025SOL    HW214850  12.327   0.314   8.451
71026SOL     OW14851   9.121   0.349  11.772
71026SOL    HW114852   9.140   0.382  11.684
71026SOL    HW214853   9.137   0.424  11.829
71027SOL     OW14854   8.795   4.362   5.529
71027SOL    HW114855   8.864   4.352   5.595
71027SOL    HW214856   8.837   4.336   5.447
71028SOL     OW14857   9.332  10.300   5.965
71028SOL    HW114858   9.317  10.390   5.993
71028SOL    HW214859   9.379  10.260   6.038
71029SOL     OW14860  13.465   0.701  11.288
71029SOL    HW114861  13.377   0.716  11.322
71029SOL    HW214862  13.459   0.619  11.240
71030SOL     OW14863   5.694   5.480   9.104
71030SOL    HW114864   5.686   5.575   9.101
71030SOL    HW214865   5.750   5.463   9.180
71031SOL     OW14866  13.766  11.099  13.287
71031SOL    HW114867  13.735  11.130  13.372
71031SOL    HW214868  13.700  11.131  13.225
71032SOL     OW14869   7.023  13.274   2.539
71032SOL    HW114870   7.022  13.221   2.459
71032SOL    HW214871   6.942  13.250   2.585
71033SOL     OW14872  10.545   2.862  12.945
71033SOL    HW114873  10.467   2.912  12.968
71033SOL    HW214874  10.604   2.874  13.020
71034SOL     OW14875  13.551   7.277   5.278
71034SOL    HW114876  13.536   7.203   5.337
71034SOL    HW214877  13.641   7.265   5.248
71035SOL     OW14878   2.582   8.244   4.501
71035SOL    HW114879   2.592   8.166   4.447
71035SOL    HW214880   2.521   8.218   4.570
71036SOL     OW14881   7.351  10.703   4.280
71036SOL    HW114882   7.277  10.744   4.326
71036SOL    HW214883   7.327  10.707   4.187
71037SOL     OW14884  10.899   5.466  12.218
71037SOL    HW114885  10.990   5.456  12.193
71037SOL    HW214886  10.899   5.453  12.313
71038SOL     OW14887   0.055   0.624  12.874
71038SOL    HW114888  14.860   0.572  12.909
71038SOL    HW214889   0.044   0.710  12.915
71039SOL     OW14890   0.444   1.454  12.119
71039SOL    HW114891   0.532   1.453  12.081
71039SOL    HW214892   0.401   1.528  12.077
71040SOL     OW14893   9.594   0.687   7.260
71040SOL    HW114894   9.586   0.642   7.176
71040SOL    HW214895   9.638   0.624   7.317
71041SOL     OW14896  13.347   6.103  10.831
71041SOL    HW114897  13.303   6.169  10.777
71041SOL    HW214898  13.409   6.061  10.772
71042SOL     OW14899   4.927  11.370  12.420
71042SOL    HW114900   4.881  11.287  12.414
71042SOL    HW214901   5.017  11.347  12.445
71043SOL     OW14902  12.648   0.885   5.849
71043SOL    HW114903  12.639   0.916   5.759
71043SOL    HW214904  12.694   0.801   5.840
71044SOL     OW14905   8.341   1.411   2.639
71044SOL    HW114906   8.254   1.441   2.665
71044SOL    HW214907   8.340   1.317   2.659
71045SOL     OW14908   7.721   4.019  14.240
71045SOL    HW114909   7.688   4.042  14.154
71045SOL    HW214910   7.737   3.924  14.236
71046SOL     OW14911  10.342   2.257   4.198
71046SOL    HW114912  10.412   2.285   4.257
71046SOL    HW214913  10.273   2.321   4.211
71047SOL     OW14914   7.567   8.967   2.125
71047SOL    HW114915   7.552   9.009   2.210
71047SOL    HW214916   7.482   8.929   2.102
71048SOL     OW14917   1.010   6.365  10.032
71048SOL    HW114918   0.989   6.324  10.115
71048SOL    HW214919   1.061   6.443  10.056
71049SOL     OW14920   9.053   2.027  11.855
71049SOL    HW114921   9.099   1.998  11.776
71049SOL    HW214922   8.985   1.960  11.868
71050SOL     OW14923   9.788  14.648  13.004
71050SOL    HW114924   9.825  14.720  13.055
71050SOL    HW214925   9.726  14.690  12.945
71051SOL     OW14926  14.327   9.966  10.232
71051SOL    HW114927  14.289   9.880  10.218
71051SOL    HW214928  14.255  10.027  10.218
71052SOL     OW14929   1.269   0.772  12.664
71052SOL    HW114930   1.296   0.863  12.675
71052SOL    HW214931   1.301   0.727  12.743
71053SOL     OW14932   5.748   0.537  10.739
71053SOL    HW114933   5.820   0.576  10.788
71053SOL    HW214934   5.782   0.453  10.709
71054SOL     OW14935   4.535  11.654   3.065
71054SOL    HW114936   4.464  11.681   3.124
71054SOL    HW214937   4.502  11.677   2.978
71055SOL     OW14938   8.943   3.447  11.526
71055SOL    HW114939   9.007   3.410  11.588
71055SOL    HW214940   8.905   3.370  11.483
71056SOL     OW14941   9.081   7.776  12.852
71056SOL    HW114942   9.086   7.737  12.939
71056SOL    HW214943   9.139   7.722  12.798
71057SOL     OW14944   9.068  14.152  13.026
71057SOL    HW114945   9.062  14.112  12.939
71057SOL    HW214946   9.156  14.131  13.056
71058SOL     OW14947  12.008   0.560   3.503
71058SOL    HW114948  12.049   0.645   3.520
71058SOL    HW214949  12.017   0.512   3.584
71059SOL     OW14950  10.245  10.503   9.706
71059SOL    HW114951  10.206  10.558   9.774
71059SOL    HW214952  10.208  10.416   9.721
71060SOL     OW14953   5.136  12.816  14.713
71060SOL    HW114954   5.223  12.781  14.692
71060SOL    HW214955   5.149  12.866  14.794
71061SOL     OW14956   6.185   4.740   7.885
71061SOL    HW114957   6.103   4.700   7.914
71061SOL    HW214958   6.254   4.683   7.919
71062SOL     OW14959  12.117  14.119  11.394
71062SOL    HW114960  12.182  14.188  11.408
71062SOL    HW214961  12.132  14.090  11.304
71063SOL     OW14962   7.539   8.466   8.588
71063SOL    HW114963   7.624   8.423   8.603
71063SOL    HW214964   7.561   8.547   8.543
71064SOL     OW14965   8.030   0.837   4.269
71064SOL    HW114966   8.094   0.900   4.302
71064SOL    HW214967   7.979   0.812   4.346
71065SOL     OW14968   7.775  10.800   9.623
71065SOL    HW114969   7.737  10.812   9.536
71065SOL    HW214970   7.703  10.764   9.675
71066SOL     OW14971   0.778   1.141  12.829
71066SOL    HW114972   0.806   1.187  12.908
71066SOL    HW214973   0.693   1.180  12.807
71067SOL     OW14974   6.659   2.277   3.678
71067SOL    HW114975   6.698   2.309   3.596
71067SOL    HW214976   6.592   2.215   3.649
71068SOL     OW14977   4.128   1.605   2.227
71068SOL    HW114978   4.077   1.525   2.236
71068SOL    HW214979   4.096   1.644   2.145
71069SOL     OW14980  12.358   4.480  10.773
71069SOL    HW114981  12.269   4.498  10.743
71069SOL    HW214982  12.349   4.402  10.828
71070SOL     OW14983   1.079   2.793  13.930
71070SOL    HW114984   1.102   2.710  13.889
71070SOL    HW214985   1.012   2.770  13.995
71071SOL     OW14986  11.316  13.125  11.549
71071SOL    HW114987  11.394  13.172  11.518
71071SOL    HW214988  11.350  13.055  11.605
71072SOL     OW14989  11.569   9.362   1.722
71072SOL    HW114990  11.585   9.269   1.705
71072SOL    HW214991  11.586   9.405   1.638
71073SOL     OW14992  10.080   8.542  10.603
71073SOL    HW114993  10.172   8.567  10.596
71073SOL    HW214994  10.077   8.452  10.573
71074SOL     OW14995   8.543   7.080   1.021
71074SOL    HW114996   8.497   7.010   1.069
71074SOL    HW214997   8.632   7.078   1.057
71075SOL     OW14998   0.032   8.478  13.378
71075SOL    HW114999   0.054   8.386  13.364
71075SOL    HW215000   0.013   8.512  13.291
71076SOL     OW15001  10.249   9.366   4.345
71076SOL    HW115002  10.263   9.274   4.325
71076SOL    HW215003  10.311   9.412   4.288
71077SOL     OW15004   5.355  11.778   8.493
71077SOL    HW115005   5.373  11.835   8.418
71077SOL    HW215006   5.344  11.838   8.567
71078SOL     OW15007   4.326   9.090   5.625
71078SOL    HW115008   4.360   9.089   5.715
71078SOL    HW215009   4.341   9.179   5.595
71079SOL     OW15010   9.585   1.191  10.523
71079SOL    HW115011   9.536   1.265  10.559
71079SOL    HW215012   9.674   1.224  10.513
71080SOL     OW15013   9.996   8.138   3.052
71080SOL    HW115014   9.993   8.187   2.970
71080SOL    HW215015   9.910   8.152   3.092
71081SOL     OW15016  14.038   9.787   2.058
71081SOL    HW115017  13.956   9.743   2.078
71081SOL    HW215018  14.082   9.796   2.143
71082SOL     OW15019   2.809   8.094   7.566
71082SOL    HW115020   2.851   8.062   7.486
71082SOL    HW215021   2.882   8.118   7.623
71083SOL     OW15022   3.083  11.101   6.215
71083SOL    HW115023   3.037  11.150   6.283
71083SOL    HW215024   3.030  11.114   6.136
71084SOL     OW15025   7.262   5.021   4.761
71084SOL    HW115026   7.193   4.992   4.821
71084SOL    HW215027   7.342   4.983   4.797
71085SOL     OW15028  13.228  14.612   8.785
71085SOL    HW115029  13.177  14.532   8.798
71085SOL    HW215030  13.318  14.587   8.803
71086SOL     OW15031   6.826   4.729  13.153
71086SOL    HW115032   6.848   4.636  13.161
71086SOL    HW215033   6.734   4.730  13.129
71087SOL     OW15034   9.328   8.277   0.801
71087SOL    HW115035   9.298   8.303   0.889
71087SOL    HW215036   9.400   8.216   0.817
71088SOL     OW15037   1.056   0.559   8.480
71088SOL    HW115038   0.982   0.611   8.448
71088SOL    HW215039   1.131   0.618   8.473
71089SOL     OW15040   9.078  11.305   8.586
71089SOL    HW115041   9.024  11.226   8.573
71089SOL    HW215042   9.160  11.272   8.623
71090SOL     OW15043   9.984  10.114   1.058
71090SOL    HW115044   9.919  10.055   1.094
71090SOL    HW215045   9.987  10.187   1.121
71091SOL     OW15046   4.312  12.642   8.583
71091SOL    HW115047   4.383  12.664   8.523
71091SOL    HW215048   4.298  12.721   8.635
71092SOL     OW15049   9.401  12.176   9.331
71092SOL    HW115050   9.370  12.092   9.364
71092SOL    HW215051   9.332  12.238   9.354
71093SOL     OW15052  12.024   7.979   9.851
71093SOL    HW115053  12.010   7.955   9.760
71093SOL    HW215054  11.992   7.904   9.901
71094SOL     OW15055   6.167   8.263   7.756
71094SOL    HW115056   6.137   8.273   7.847
71094SOL    HW215057   6.179   8.169   7.745
71095SOL     OW15058   9.685  10.677   4.169
71095SOL    HW115059   9.737  10.734   4.112
71095SOL    HW215060   9.751  10.630   4.221
71096SOL     OW15061   6.213   2.307  12.823
71096SOL    HW115062   6.254   2.393  12.835
71096SOL    HW215063   6.155   2.298  12.898
71097SOL     OW15064  10.873   4.664  14.858
71097SOL    HW115065  10.788   4.701  14.835
71097SOL    HW215066  10.933   4.696  14.791
71098SOL     OW15067   1.646   8.725   0.064
71098SOL    HW115068   1.696   8.648   0.036
71098SOL    HW215069   1.571   8.728   0.004
71099SOL     OW15070   4.346  14.290   7.130
71099SOL    HW115071   4.442  14.289   7.133
71099SOL    HW215072   4.321  14.200   7.152
71100SOL     OW15073  10.160  14.661  13.004
71100SOL    HW115074  10.154  14.738  12.946
71100SOL    HW215075  10.252  14.637  13.002
71101SOL     OW15076   1.120   0.742   8.025
71101SOL    HW115077   1.027   0.722   8.015
71101SOL    HW215078   1.124   0.838   8.021
71102SOL     OW15079   4.444   5.210   4.530
71102SOL    HW115080   4.443   5.301   4.561
71102SOL    HW215081   4.471   5.216   4.439
71103SOL     OW15082   1.292   3.827   7.623
71103SOL    HW115083   1.251   3.795   7.703
71103SOL    HW215084   1.265   3.919   7.618
71104SOL     OW15085   7.100  13.668   1.931
71104SOL    HW115086   7.167  13.606   1.901
71104SOL    HW215087   7.131  13.753   1.901
71105SOL     OW15088   7.750  13.490   8.988
71105SOL    HW115089   7.823  13.474   9.048
71105SOL    HW215090   7.674  13.500   9.045
71106SOL     OW15091   9.661   9.537  14.475
71106SOL    HW115092   9.688   9.447  14.492
71106SOL    HW215093   9.726   9.590  14.520
71107SOL     OW15094   3.587   1.115  14.204
71107SOL    HW115095   3.591   1.060  14.282
71107SOL    HW215096   3.518   1.076  14.150
71108SOL     OW15097  12.070   4.166   2.407
71108SOL    HW115098  12.100   4.183   2.496
71108SOL    HW215099  12.148   4.139   2.359
71109SOL     OW15100   8.404   3.395   1.372
71109SOL    HW115101   8.312   3.418   1.359
71109SOL    HW215102   8.421   3.327   1.308
71110SOL     OW15103   8.220   4.121   6.427
71110SOL    HW115104   8.225   4.085   6.338
71110SOL    HW215105   8.215   4.043   6.484
71111SOL     OW15106   4.303   8.190   7.648
71111SOL    HW115107   4.225   8.189   7.592
71111SOL    HW215108   4.340   8.102   7.640
71112SOL     OW15109   2.267  14.039  11.508
71112SOL    HW115110   2.295  14.130  11.503
71112SOL    HW215111   2.174  14.044  11.530
71113SOL     OW15112   9.778  10.432  11.528
71113SOL    HW115113   9.695  10.399  11.563
71113SOL    HW215114   9.837  10.433  11.604
71114SOL     OW15115   7.516   2.919   9.937
71114SOL    HW115116   7.497   2.966   9.855
71114SOL    HW215117   7.430   2.888   9.966
71115SOL     OW15118  11.407  10.254  13.669
71115SOL    HW115119  11.400  10.165  13.703
71115SOL    HW215120  11.386  10.310  13.745
71116SOL     OW15121  11.565   2.912   5.573
71116SOL    HW115122  11.598   2.948   5.656
71116SOL    HW215123  11.506   2.841   5.599
71117SOL     OW15124  13.388   8.608  10.854
71117SOL    HW115125  13.478   8.576  10.848
71117SOL    HW215126  13.339   8.536  10.894
71118SOL     OW15127   1.682   7.344   2.902
71118SOL    HW115128   1.657   7.273   2.842
71118SOL    HW215129   1.774   7.327   2.922
71119SOL     OW15130   8.709   4.529   8.268
71119SOL    HW115131   8.777   4.535   8.335
71119SOL    HW215132   8.627   4.524   8.318
71120SOL     OW15133   5.052  10.051   6.153
71120SOL    HW115134   5.120  10.118   6.145
71120SOL    HW215135   5.008  10.071   6.235
71121SOL     OW15136   0.199  10.815   2.248
71121SOL    HW115137   0.114  10.777   2.226
71121SOL    HW215138   0.239  10.833   2.163
71122SOL     OW15139   8.359  11.043   2.193
71122SOL    HW115140   8.366  11.088   2.278
71122SOL    HW215141   8.389  10.954   2.211
71123SOL     OW15142   6.654   6.628   2.852
71123SOL    HW115143   6.597   6.573   2.905
71123SOL    HW215144   6.606   6.709   2.841
71124SOL     OW15145  13.555   2.675   0.622
71124SOL    HW115146  13.554   2.597   0.567
71124SOL    HW215147  13.641   2.674   0.663
71125SOL     OW15148  12.081   6.399   7.470
71125SOL    HW115149  11.992   6.373   7.493
71125SOL    HW215150  12.076   6.427   7.378
71126SOL     OW15151   5.708   3.941   5.130
71126SOL    HW115152   5.736   3.908   5.045
71126SOL    HW215153   5.675   3.864   5.176
71127SOL     OW15154   0.578   2.451  14.669
71127SOL    HW115155   0.560   2.495  14.752
71127SOL    HW215156   0.501   2.396  14.653
71128SOL     OW15157  11.369   2.947   0.803
71128SOL    HW115158  11.322   2.890   0.865
71128SOL    HW215159  11.372   3.032   0.847
71129SOL     OW15160   2.454   7.183   2.013
71129SOL    HW115161   2.408   7.119   1.959
71129SOL    HW215162   2.541   7.188   1.975
71130SOL     OW15163  10.838   9.811  13.600
71130SOL    HW115164  10.766   9.853  13.553
71130SOL    HW215165  10.857   9.732  13.550
71131SOL     OW15166   6.352   6.578   6.234
71131SOL    HW115167   6.407   6.546   6.306
71131SOL    HW215168   6.340   6.671   6.252
71132SOL     OW15169  11.953   4.664  11.711
71132SOL    HW115170  11.986   4.739  11.760
71132SOL    HW215171  11.966   4.590  11.770
71133SOL     OW15172   9.222  10.082   3.575
71133SOL    HW115173   9.185  10.166   3.600
71133SOL    HW215174   9.204  10.025   3.650
71134SOL     OW15175   8.502   7.554   9.357
71134SOL    HW115176   8.488   7.538   9.264
71134SOL    HW215177   8.520   7.647   9.364
71135SOL     OW15178   5.110   6.247   8.817
71135SOL    HW115179   5.080   6.334   8.792
71135SOL    HW215180   5.031   6.201   8.845
71136SOL     OW15181  13.348  13.273   7.412
71136SOL    HW115182  13.266  13.224   7.415
71136SOL    HW215183  13.343  13.334   7.485
71137SOL     OW15184   0.338  11.714   3.566
71137SOL    HW115185   0.387  11.687   3.488
71137SOL    HW215186   0.394  11.781   3.607
71138SOL     OW15187   9.723  10.577   2.982
71138SOL    HW115188   9.817  10.579   2.997
71138SOL    HW215189   9.686  10.548   3.065
71139SOL     OW15190   0.620  11.804  12.863
71139SOL    HW115191   0.555  11.743  12.897
71139SOL    HW215192   0.698  11.788  12.915
71140SOL     OW15193   0.105   8.476   8.708
71140SOL    HW115194   0.097   8.432   8.623
71140SOL    HW215195   0.015   8.490   8.736
71141SOL     OW15196   9.351  13.144   5.639
71141SOL    HW115197   9.412  13.085   5.594
71141SOL    HW215198   9.312  13.197   5.570
71142SOL     OW15199  10.321   8.675   4.912
71142SOL    HW115200  10.340   8.762   4.878
71142SOL    HW215201  10.240   8.686   4.963
71143SOL     OW15202   4.364  11.469  11.654
71143SOL    HW115203   4.438  11.431  11.606
71143SOL    HW215204   4.291  11.410  11.635
71144SOL     OW15205  13.146  14.702   5.300
71144SOL    HW115206  13.208  14.755   5.250
71144SOL    HW215207  13.171  14.716   5.391
71145SOL     OW15208   7.142   2.609   1.113
71145SOL    HW115209   7.170   2.643   1.028
71145SOL    HW215210   7.224   2.594   1.160
71146SOL     OW15211   9.085   7.126  12.802
71146SOL    HW115212   9.052   7.141  12.713
71146SOL    HW215213   9.123   7.038  12.799
71147SOL     OW15214   6.369  14.796   6.564
71147SOL    HW115215   6.458  14.801   6.529
71147SOL    HW215216   6.326  14.876   6.532
71148SOL     OW15217  10.029  11.433   1.647
71148SOL    HW115218  10.112  11.410   1.605
71148SOL    HW215219  10.002  11.352   1.692
71149SOL     OW15220  14.509   9.266   4.154
71149SOL    HW115221  14.532   9.286   4.245
71149SOL    HW215222  14.432   9.209   4.161
71150SOL     OW15223   2.303   1.345   8.191
71150SOL    HW115224   2.337   1.400   8.262
71150SOL    HW215225   2.359   1.268   8.192
71151SOL     OW15226   0.064   9.147   8.705
71151SOL    HW115227   0.150   9.136   8.663
71151SOL    HW215228   0.081   9.135   8.798
71152SOL     OW15229   7.095   5.450   3.553
71152SOL    HW115230   7.036   5.524   3.549
71152SOL    HW215231   7.040   5.374   3.532
71153SOL     OW15232   8.829   8.623  13.137
71153SOL    HW115233   8.740   8.617  13.103
71153SOL    HW215234   8.834   8.711  13.176
71154SOL     OW15235  12.831   8.840   3.619
71154SOL    HW115236  12.897   8.881   3.563
71154SOL    HW215237  12.850   8.872   3.707
71155SOL     OW15238  10.610   3.277   9.205
71155SOL    HW115239  10.686   3.248   9.155
71155SOL    HW215240  10.556   3.199   9.215
71156SOL     OW15241   0.733   9.201  13.801
71156SOL    HW115242   0.717   9.282  13.850
71156SOL    HW215243   0.650   9.181  13.759
71157SOL     OW15244   6.061  12.770   8.745
71157SOL    HW115245   6.020  12.703   8.800
71157SOL    HW215246   6.005  12.775   8.667
71158SOL     OW15247   8.111   4.889  11.810
71158SOL    HW115248   8.179   4.827  11.783
71158SOL    HW215249   8.123   4.898  11.904
71159SOL     OW15250   2.725   2.232   6.017
71159SOL    HW115251   2.758   2.310   5.972
71159SOL    HW215252   2.653   2.201   5.961
71160SOL     OW15253   6.284   8.296   6.063
71160SOL    HW115254   6.311   8.207   6.083
71160SOL    HW215255   6.303   8.307   5.970
71161SOL     OW15256   5.609   9.582  12.484
71161SOL    HW115257   5.640   9.672  12.495
71161SOL    HW215258   5.640   9.536  12.562
71162SOL     OW15259   0.340   0.306  14.120
71162SOL    HW115260   0.414   0.304  14.060
71162SOL    HW215261   0.263   0.311  14.063
71163SOL     OW15262   8.751   5.785   8.529
71163SOL    HW115263   8.712   5.847   8.467
71163SOL    HW215264   8.831   5.827   8.558
71164SOL     OW15265   4.835   7.376   4.309
71164SOL    HW115266   4.927   7.403   4.310
71164SOL    HW215267   4.819   7.348   4.218
71165SOL     OW15268  14.337  13.825  12.739
71165SOL    HW115269  14.250  13.793  12.762
71165SOL    HW215270  14.354  13.897  12.799
71166SOL     OW15271   9.323   4.375   2.871
71166SOL    HW115272   9.410   4.389   2.832
71166SOL    HW215273   9.332   4.295   2.922
71167SOL     OW15274   1.167   4.320   0.827
71167SOL    HW115275   1.215   4.281   0.753
71167SOL    HW215276   1.193   4.412   0.825
71168SOL     OW15277   5.093   6.168  14.620
71168SOL    HW115278   5.159   6.103  14.643
71168SOL    HW215279   5.009   6.127  14.644
71169SOL     OW15280   7.037   6.158   4.964
71169SOL    HW115281   7.012   6.074   5.002
71169SOL    HW215282   7.097   6.136   4.893
71170SOL     OW15283   9.419   5.043   7.739
71170SOL    HW115284   9.383   5.129   7.718
71170SOL    HW215285   9.503   5.062   7.782
71171SOL     OW15286   3.312  12.445   9.592
71171SOL    HW115287   3.283  12.366   9.637
71171SOL    HW215288   3.389  12.418   9.541
71172SOL     OW15289   5.461   2.649  14.046
71172SOL    HW115290   5.523   2.616  14.112
71172SOL    HW215291   5.516   2.695  13.983
71173SOL     OW15292   3.366   8.398   2.500
71173SOL    HW115293   3.417   8.478   2.512
71173SOL    HW215294   3.329   8.380   2.587
71174SOL     OW15295  10.102   9.961   8.172
71174SOL    HW115296  10.183   9.931   8.132
71174SOL    HW215297  10.085   9.900   8.243
71175SOL     OW15298  12.948  11.752   6.100
71175SOL    HW115299  12.922  11.829   6.051
71175SOL    HW215300  13.004  11.703   6.040
71176SOL     OW15301  14.858  11.435  12.227
71176SOL    HW115302  14.804  11.466  12.154
71176SOL    HW215303  14.857  11.339  12.219
71177SOL     OW15304   9.025   8.236   9.521
71177SOL    HW115305   9.081   8.213   9.446
71177SOL    HW215306   9.087   8.258   9.591
71178SOL     OW15307   6.764   1.575  12.599
71178SOL    HW115308   6.711   1.551  12.523
71178SOL    HW215309   6.780   1.492  12.644
71179SOL     OW15310   6.616  11.922   9.628
71179SOL    HW115311   6.552  11.889   9.691
71179SOL    HW215312   6.566  11.935   9.548
71180SOL     OW15313   5.548   3.028   1.647
71180SOL    HW115314   5.543   3.119   1.676
71180SOL    HW215315   5.625   2.993   1.692
71181SOL     OW15316  13.038   6.236  12.136
71181SOL    HW115317  13.107   6.177  12.104
71181SOL    HW215318  13.054   6.243  12.230
71182SOL     OW15319   6.193   7.114  10.544
71182SOL    HW115320   6.104   7.142  10.524
71182SOL    HW215321   6.210   7.042  10.484
71183SOL     OW15322   1.293   8.139  11.269
71183SOL    HW115323   1.276   8.233  11.275
71183SOL    HW215324   1.308   8.112  11.360
71184SOL     OW15325  13.208  13.995  12.004
71184SOL    HW115326  13.292  13.971  12.044
71184SOL    HW215327  13.143  13.969  12.069
71185SOL     OW15328   6.581  10.763   1.581
71185SOL    HW115329   6.539  10.708   1.515
71185SOL    HW215330   6.606  10.702   1.651
71186SOL     OW15331  14.211   1.483  14.616
71186SOL    HW115332  14.221   1.563  14.565
71186SOL    HW215333  14.119   1.459  14.606
71187SOL     OW15334  13.660   3.562  12.675
71187SOL    HW115335  13.735   3.622  12.667
71187SOL    HW215336  13.586   3.613  12.643
71188SOL     OW15337  10.355   0.491   4.046
71188SOL    HW115338  10.291   0.430   4.083
71188SOL    HW215339  10.313   0.577   4.052
71189SOL     OW15340   3.857   9.237   7.663
71189SOL    HW115341   3.906   9.246   7.582
71189SOL    HW215342   3.838   9.327   7.690
71190SOL     OW15343   2.817   5.972   4.708
71190SOL    HW115344   2.748   6.000   4.768
71190SOL    HW215345   2.883   5.932   4.764
71191SOL     OW15346  10.139  12.862   8.208
71191SOL    HW115347  10.070  12.797   8.196
71191SOL    HW215348  10.216  12.823   8.165
71192SOL     OW15349  10.079   7.130  12.357
71192SOL    HW115350  10.033   7.199  12.308
71192SOL    HW215351  10.061   7.151  12.449
71193SOL     OW15352   5.381  14.433   0.291
71193SOL    HW115353   5.369  14.348   0.249
71193SOL    HW215354   5.398  14.494   0.219
71194SOL     OW15355   0.149   6.046   2.065
71194SOL    HW115356   0.117   6.010   2.148
71194SOL    HW215357   0.120   6.137   2.065
71195SOL     OW15358   1.485  13.688  11.451
71195SOL    HW115359   1.449  13.619  11.395
71195SOL    HW215360   1.419  13.758  11.449
71196SOL     OW15361   5.875   2.785  14.401
71196SOL    HW115362   5.860   2.874  14.433
71196SOL    HW215363   5.968   2.783  14.379
71197SOL     OW15364  10.904   9.853   3.690
71197SOL    HW115365  10.927   9.761   3.706
71197SOL    HW215366  10.816   9.862   3.725
71198SOL     OW15367   1.145   0.107   4.086
71198SOL    HW115368   1.135   0.081   3.995
71198SOL    HW215369   1.239   0.105   4.102
71199SOL     OW15370   7.333   5.567   2.424
71199SOL    HW115371   7.291   5.484   2.401
71199SOL    HW215372   7.420   5.543   2.455
71200SOL     OW15373  11.784  10.694   6.464
71200SOL    HW115374  11.706  10.690   6.519
71200SOL    HW215375  11.838  10.620   6.493
71201SOL     OW15376  12.980   1.362   8.022
71201SOL    HW115377  13.043   1.294   8.046
71201SOL    HW215378  12.907   1.314   7.984
71202SOL     OW15379   0.097  14.644   2.457
71202SOL    HW115380   0.159  14.675   2.523
71202SOL    HW215381   0.011  14.661   2.495
71203SOL     OW15382   9.187   6.697  10.785
71203SOL    HW115383   9.236   6.752  10.723
71203SOL    HW215384   9.095   6.719  10.769
71204SOL     OW15385  10.448   6.393   1.459
71204SOL    HW115386  10.480   6.341   1.532
71204SOL    HW215387  10.522   6.398   1.398
71205SOL     OW15388   0.874   8.630   2.685
71205SOL    HW115389   0.788   8.597   2.662
71205SOL    HW215390   0.875   8.720   2.653
71206SOL     OW15391   5.255   5.507   8.967
71206SOL    HW115392   5.217   5.435   8.917
71206SOL    HW215393   5.227   5.490   9.057
71207SOL     OW15394   4.400   0.141   3.264
71207SOL    HW115395   4.456   0.164   3.337
71207SOL    HW215396   4.365   0.225   3.233
71208SOL     OW15397   8.755  13.418  14.437
71208SOL    HW115398   8.734  13.490  14.497
71208SOL    HW215399   8.838  13.442  14.398
71209SOL     OW15400   0.144   5.902   6.752
71209SOL    HW115401   0.065   5.910   6.805
71209SOL    HW215402   0.113   5.898   6.662
71210SOL     OW15403   9.952  11.073   5.108
71210SOL    HW115404  10.003  11.079   5.026
71210SOL    HW215405   9.863  11.092   5.081
71211SOL     OW15406   0.772  13.527   8.152
71211SOL    HW115407   0.751  13.616   8.122
71211SOL    HW215408   0.833  13.494   8.086
71212SOL     OW15409   7.670  10.333   2.568
71212SOL    HW115410   7.616  10.312   2.643
71212SOL    HW215411   7.757  10.352   2.605
71213SOL     OW15412   9.880  12.559  10.044
71213SOL    HW115413   9.802  12.516  10.080
71213SOL    HW215414   9.949  12.493  10.053
71214SOL     OW15415   7.144  14.024   6.413
71214SOL    HW115416   7.227  13.985   6.442
71214SOL    HW215417   7.164  14.118   6.406
71215SOL     OW15418   1.730  10.732   3.990
71215SOL    HW115419   1.712  10.731   4.084
71215SOL    HW215420   1.654  10.690   3.950
71216SOL     OW15421   8.976   1.840   4.253
71216SOL    HW115422   9.022   1.762   4.222
71216SOL    HW215423   9.006   1.910   4.195
71217SOL     OW15424   0.283   8.877   3.180
71217SOL    HW115425   0.288   8.959   3.131
71217SOL    HW215426   0.196   8.842   3.159
71218SOL     OW15427   6.168   6.568  10.324
71218SOL    HW115428   6.254   6.574  10.365
71218SOL    HW215429   6.187   6.561  10.230
71219SOL     OW15430  14.848   5.723   8.206
71219SOL    HW115431  14.792   5.718   8.128
71219SOL    HW215432  14.793   5.688   8.277
71220SOL     OW15433   3.012   8.219   3.340
71220SOL    HW115434   3.090   8.169   3.365
71220SOL    HW215435   2.986   8.183   3.256
71221SOL     OW15436   8.632   7.626  12.328
71221SOL    HW115437   8.669   7.705  12.288
71221SOL    HW215438   8.706   7.585  12.373
71222SOL     OW15439   7.757   6.568   3.322
71222SOL    HW115440   7.697   6.498   3.299
71222SOL    HW215441   7.752   6.573   3.418
71223SOL     OW15442  11.927  10.980  13.099
71223SOL    HW115443  11.855  10.930  13.138
71223SOL    HW215444  11.962  10.924  13.030
71224SOL     OW15445   9.561   9.229  14.446
71224SOL    HW115446   9.617   9.155  14.426
71224SOL    HW215447   9.534   9.215  14.537
71225SOL     OW15448   5.044  12.506   1.630
71225SOL    HW115449   5.119  12.447   1.635
71225SOL    HW215450   5.002  12.485   1.547
71226SOL     OW15451  12.772   7.347  13.954
71226SOL    HW115452  12.695   7.401  13.938
71226SOL    HW215453  12.751   7.262  13.914
71227SOL     OW15454  12.108   2.708   1.598
71227SOL    HW115455  12.197   2.717   1.632
71227SOL    HW215456  12.069   2.794   1.611
71228SOL     OW15457  12.201   7.196   5.485
71228SOL    HW115458  12.243   7.255   5.422
71228SOL    HW215459  12.233   7.109   5.461
71229SOL     OW15460  13.567  12.979   5.165
71229SOL    HW115461  13.484  12.963   5.210
71229SOL    HW215462  13.631  12.994   5.235
71230SOL     OW15463   4.637   8.718   9.789
71230SOL    HW115464   4.564   8.718   9.851
71230SOL    HW215465   4.655   8.625   9.773
71231SOL     OW15466   8.986   5.562   4.119
71231SOL    HW115467   8.894   5.584   4.132
71231SOL    HW215468   9.004   5.587   4.028
71232SOL     OW15469  10.222  14.704   2.382
71232SOL    HW115470  10.259  14.709   2.470
71232SOL    HW215471  10.297  14.715   2.324
71233SOL     OW15472   5.148   5.249   4.683
71233SOL    HW115473   5.236   5.268   4.651
71233SOL    HW215474   5.129   5.162   4.648
71234SOL     OW15475  12.260   5.273   5.448
71234SOL    HW115476  12.165   5.279   5.443
71234SOL    HW215477  12.291   5.364   5.443
71235SOL     OW15478   5.210  10.943   6.163
71235SOL    HW115479   5.277  10.940   6.095
71235SOL    HW215480   5.254  10.981   6.239
71236SOL     OW15481   1.578   8.275   1.676
71236SOL    HW115482   1.541   8.223   1.747
71236SOL    HW215483   1.653   8.320   1.715
71237SOL     OW15484  12.814   7.319   5.216
71237SOL    HW115485  12.789   7.260   5.287
71237SOL    HW215486  12.787   7.273   5.137
71238SOL     OW15487  14.256   0.077   8.814
71238SOL    HW115488  14.294   0.014   8.876
71238SOL    HW215489  14.168   0.093   8.849
71239SOL     OW15490  13.467   6.020   0.952
71239SOL    HW115491  13.441   6.098   0.903
71239SOL    HW215492  13.386   5.969   0.959
71240SOL     OW15493   8.012   8.070   4.819
71240SOL    HW115494   7.983   7.979   4.826
71240SOL    HW215495   8.107   8.065   4.819
71241SOL     OW15496   8.145   8.537   7.884
71241SOL    HW115497   8.125   8.567   7.795
71241SOL    HW215498   8.239   8.550   7.893
71242SOL     OW15499   9.285   9.677   1.427
71242SOL    HW115500   9.376   9.669   1.400
71242SOL    HW215501   9.277   9.619   1.503
71243SOL     OW15502  11.471  12.970   7.815
71243SOL    HW115503  11.497  12.920   7.737
71243SOL    HW215504  11.393  12.925   7.847
71244SOL     OW15505   0.109  13.096   8.764
71244SOL    HW115506   0.163  13.123   8.689
71244SOL    HW215507   0.043  13.038   8.727
71245SOL     OW15508   2.709  11.279   2.968
71245SOL    HW115509   2.690  11.371   2.986
71245SOL    HW215510   2.685  11.267   2.876
71246SOL     OW15511   7.891   6.519  10.434
71246SOL    HW115512   7.873   6.596  10.488
71246SOL    HW215513   7.968   6.479  10.474
71247SOL     OW15514   1.336  11.119   7.440
71247SOL    HW115515   1.389  11.114   7.519
71247SOL    HW215516   1.399  11.117   7.368
71248SOL     OW15517  12.366   4.616  11.101
71248SOL    HW115518  12.435   4.635  11.037
71248SOL    HW215519  12.307   4.555  11.056
71249SOL     OW15520   1.239  11.604   8.322
71249SOL    HW115521   1.289  11.523   8.327
71249SOL    HW215522   1.296  11.671   8.360
71250SOL     OW15523   1.723   3.011   2.925
71250SOL    HW115524   1.778   3.089   2.921
71250SOL    HW215525   1.739   2.965   2.843
71251SOL     OW15526   4.782   8.878   8.466
71251SOL    HW115527   4.779   8.789   8.431
71251SOL    HW215528   4.748   8.933   8.395
71252SOL     OW15529   8.150  14.694   4.946
71252SOL    HW115530   8.160  14.778   4.990
71252SOL    HW215531   8.139  14.716   4.854
71253SOL     OW15532   1.364   9.888   7.762
71253SOL    HW115533   1.315   9.965   7.733
71253SOL    HW215534   1.337   9.876   7.853
71254SOL     OW15535   5.398   9.865   2.826
71254SOL    HW115536   5.356   9.793   2.780
71254SOL    HW215537   5.490   9.839   2.832
71255SOL     OW15538   4.672   5.953   5.725
71255SOL    HW115539   4.688   6.017   5.794
71255SOL    HW215540   4.643   6.005   5.650
71256SOL     OW15541   0.460   4.347  14.703
71256SOL    HW115542   0.449   4.385  14.790
71256SOL    HW215543   0.552   4.363  14.681
71257SOL     OW15544  13.759  13.011   1.306
71257SOL    HW115545  13.680  13.062   1.286
71257SOL    HW215546  13.798  12.993   1.221
71258SOL     OW15547   3.464  10.959   2.554
71258SOL    HW115548   3.501  11.012   2.483
71258SOL    HW215549   3.419  11.023   2.610
71259SOL     OW15550   1.060  10.240   7.834
71259SOL    HW115551   1.035  10.173   7.898
71259SOL    HW215552   0.982  10.295   7.825
71260SOL     OW15553   2.805   6.326   8.418
71260SOL    HW115554   2.822   6.234   8.397
71260SOL    HW215555   2.736   6.353   8.357
71261SOL     OW15556  13.822   1.847   5.573
71261SOL    HW115557  13.909   1.843   5.613
71261SOL    HW215558  13.813   1.938   5.544
71262SOL     OW15559  13.520  11.385   5.538
71262SOL    HW115560  13.505  11.460   5.481
71262SOL    HW215561  13.611  11.361   5.524
71263SOL     OW15562   0.506   9.183   6.039
71263SOL    HW115563   0.473   9.106   6.084
71263SOL    HW215564   0.544   9.237   6.109
71264SOL     OW15565  11.475   6.876   5.026
71264SOL    HW115566  11.566   6.848   5.026
71264SOL    HW215567  11.471   6.946   5.091
71265SOL     OW15568   0.914   8.756   8.208
71265SOL    HW115569   0.998   8.712   8.222
71265SOL    HW215570   0.848   8.688   8.220
71266SOL     OW15571   1.698   0.737  13.067
71266SOL    HW115572   1.712   0.665  13.004
71266SOL    HW215573   1.712   0.696  13.153
71267SOL     OW15574   4.095  10.516   0.071
71267SOL    HW115575   4.174  10.522   0.017
71267SOL    HW215576   4.125  10.480   0.155
71268SOL     OW15577  11.605  11.119   1.947
71268SOL    HW115578  11.575  11.193   1.894
71268SOL    HW215579  11.542  11.049   1.928
71269SOL     OW15580  14.119   1.765   3.278
71269SOL    HW115581  14.144   1.817   3.353
71269SOL    HW215582  14.025   1.782   3.267
71270SOL     OW15583  10.379   9.523   4.008
71270SOL    HW115584  10.369   9.594   4.072
71270SOL    HW215585  10.293   9.482   4.003
71271SOL     OW15586   1.637   5.857   2.900
71271SOL    HW115587   1.671   5.895   2.819
71271SOL    HW215588   1.551   5.823   2.876
71272SOL     OW15589   4.997   1.816  14.743
71272SOL    HW115590   4.909   1.779  14.752
71272SOL    HW215591   5.050   1.745  14.706
71273SOL     OW15592   4.503  14.548   9.964
71273SOL    HW115593   4.467  14.517  10.048
71273SOL    HW215594   4.542  14.633   9.985
71274SOL     OW15595   1.526   4.967   5.595
71274SOL    HW115596   1.497   5.057   5.606
71274SOL    HW215597   1.496   4.923   5.675
71275SOL     OW15598   3.283   2.172  11.162
71275SOL    HW115599   3.337   2.117  11.219
71275SOL    HW215600   3.287   2.259  11.201
71276SOL     OW15601   7.374  13.975   4.368
71276SOL    HW115602   7.359  14.041   4.301
71276SOL    HW215603   7.435  13.913   4.328
71277SOL     OW15604   9.466   7.725  14.506
71277SOL    HW115605   9.443   7.678  14.587
71277SOL    HW215606   9.453   7.817  14.528
71278SOL     OW15607   2.145   0.927   9.834
71278SOL    HW115608   2.164   0.920   9.740
71278SOL    HW215609   2.197   1.002   9.863
71279SOL     OW15610   3.233  14.266   4.130
71279SOL    HW115611   3.205  14.357   4.124
71279SOL    HW215612   3.319  14.264   4.089
71280SOL     OW15613   1.417   2.859   5.983
71280SOL    HW115614   1.341   2.806   6.008
71280SOL    HW215615   1.399   2.885   5.893
71281SOL     OW15616   1.972   9.741  10.769
71281SOL    HW115617   2.049   9.796  10.755
71281SOL    HW215618   2.008   9.654  10.788
71282SOL     OW15619   6.393  10.783   8.528
71282SOL    HW115620   6.407  10.689   8.540
71282SOL    HW215621   6.351  10.812   8.609
71283SOL     OW15622   7.289   5.692   3.356
71283SOL    HW115623   7.365   5.744   3.383
71283SOL    HW215624   7.304   5.606   3.394
71284SOL     OW15625   8.732   9.836   8.455
71284SOL    HW115626   8.768   9.921   8.427
71284SOL    HW215627   8.648   9.830   8.410
71285SOL     OW15628   1.247   5.764  12.771
71285SOL    HW115629   1.327   5.777  12.719
71285SOL    HW215630   1.187   5.718  12.712
71286SOL     OW15631  11.729  13.964   2.085
71286SOL    HW115632  11.731  13.953   2.180
71286SOL    HW215633  11.658  14.027   2.070
71287SOL     OW15634   4.705  10.374   8.335
71287SOL    HW115635   4.721  10.421   8.254
71287SOL    HW215636   4.610  10.375   8.346
71288SOL     OW15637  11.534   4.973   7.628
71288SOL    HW115638  11.452   5.016   7.602
71288SOL    HW215639  11.558   5.015   7.710
71289SOL     OW15640  11.501  11.244  14.606
71289SOL    HW115641  11.428  11.184  14.621
71289SOL    HW215642  11.530  11.269  14.694
71290SOL     OW15643   4.748  13.844   5.980
71290SOL    HW115644   4.806  13.887   6.042
71290SOL    HW215645   4.739  13.754   6.013
71291SOL     OW15646  12.895   3.455   1.189
71291SOL    HW115647  12.983   3.437   1.155
71291SOL    HW215648  12.893   3.414   1.275
71292SOL     OW15649  14.630   8.278   1.255
71292SOL    HW115650  14.601   8.215   1.321
71292SOL    HW215651  14.655   8.225   1.180
71293SOL     OW15652   8.542   8.628   2.272
71293SOL    HW115653   8.483   8.615   2.347
71293SOL    HW215654   8.488   8.608   2.195
71294SOL     OW15655   9.414   2.591   1.011
71294SOL    HW115656   9.484   2.573   0.948
71294SOL    HW215657   9.376   2.505   1.030
71295SOL     OW15658   4.831   7.525   0.032
71295SOL    HW115659   4.788   7.443   0.007
71295SOL    HW215660   4.923   7.502   0.040
71296SOL     OW15661   2.511   3.025   8.355
71296SOL    HW115662   2.606   3.015   8.345
71296SOL    HW215663   2.482   2.943   8.394
71297SOL     OW15664  13.800  14.643  12.532
71297SOL    HW115665  13.808  14.659  12.625
71297SOL    HW215666  13.867  14.578  12.512
71298SOL     OW15667   9.111   2.817  12.834
71298SOL    HW115668   9.126   2.818  12.740
71298SOL    HW215669   9.075   2.730  12.851
71299SOL     OW15670   5.736   3.207   6.741
71299SOL    HW115671   5.690   3.125   6.725
71299SOL    HW215672   5.761   3.237   6.653
71300SOL     OW15673   7.888   6.838   4.563
71300SOL    HW115674   7.836   6.877   4.494
71300SOL    HW215675   7.978   6.841   4.530
71301SOL     OW15676   1.434   5.546   1.958
71301SOL    HW115677   1.475   5.623   1.919
71301SOL    HW215678   1.480   5.472   1.918
71302SOL     OW15679   2.738  11.064  10.871
71302SOL    HW115680   2.829  11.038  10.862
71302SOL    HW215681   2.705  11.070  10.781
71303SOL     OW15682   4.875  13.216   7.007
71303SOL    HW115683   4.897  13.132   6.966
71303SOL    HW215684   4.926  13.281   6.958
71304SOL     OW15685   7.608   3.340  11.787
71304SOL    HW115686   7.586   3.249  11.768
71304SOL    HW215687   7.554   3.391  11.727
71305SOL     OW15688   7.773  10.718   2.382
71305SOL    HW115689   7.702  10.679   2.330
71305SOL    HW215690   7.748  10.702   2.473
71306SOL     OW15691  13.780   5.079   7.313
71306SOL    HW115692  13.730   5.101   7.234
71306SOL    HW215693  13.727   5.011   7.355
71307SOL     OW15694   6.710  13.933   0.089
71307SOL    HW115695   6.676  14.005   0.141
71307SOL    HW215696   6.796  13.914   0.128
71308SOL     OW15697   7.131  11.699   1.239
71308SOL    HW115698   7.151  11.636   1.309
71308SOL    HW215699   7.142  11.649   1.158
71309SOL     OW15700  13.078   0.251  14.133
71309SOL    HW115701  13.145   0.262  14.067
71309SOL    HW215702  12.995   0.256  14.085
71310SOL     OW15703  12.668   9.039   9.002
71310SOL    HW115704  12.612   9.086   9.064
71310SOL    HW215705  12.615   9.030   8.923
71311SOL     OW15706   4.402   9.847  10.518
71311SOL    HW115707   4.325   9.904  10.511
71311SOL    HW215708   4.428   9.854  10.610
71312SOL     OW15709   9.922   5.193   1.529
71312SOL    HW115710   9.988   5.257   1.503
71312SOL    HW215711   9.886   5.161   1.446
71313SOL     OW15712   9.700   0.508   6.096
71313SOL    HW115713   9.759   0.583   6.091
71313SOL    HW215714   9.749   0.437   6.053
71314SOL     OW15715   6.347  13.000  10.411
71314SOL    HW115716   6.420  13.024  10.353
71314SOL    HW215717   6.272  12.988  10.353
71315SOL     OW15718   2.661  10.331   8.883
71315SOL    HW115719   2.624  10.243   8.877
71315SOL    HW215720   2.676  10.344   8.977
71316SOL     OW15721   6.215   4.239   0.963
71316SOL    HW115722   6.125   4.269   0.956
71316SOL    HW215723   6.219   4.191   1.046
71317SOL     OW15724   6.761  14.169   5.035
71317SOL    HW115725   6.788  14.108   4.967
71317SOL    HW215726   6.754  14.115   5.114
71318SOL     OW15727   5.171  10.739   4.838
71318SOL    HW115728   5.208  10.824   4.816
71318SOL    HW215729   5.241  10.694   4.886
71319SOL     OW15730   6.925   1.254   5.801
71319SOL    HW115731   6.929   1.246   5.706
71319SOL    HW215732   6.879   1.336   5.817
71320SOL     OW15733   4.441   9.077   1.566
71320SOL    HW115734   4.524   9.104   1.525
71320SOL    HW215735   4.379   9.145   1.542
71321SOL     OW15736   2.675  13.347   8.982
71321SOL    HW115737   2.610  13.309   9.041
71321SOL    HW215738   2.626  13.410   8.930
71322SOL     OW15739  11.209   9.793  12.730
71322SOL    HW115740  11.267   9.768  12.802
71322SOL    HW215741  11.160   9.868  12.763
71323SOL     OW15742   9.615   8.121   1.789
71323SOL    HW115743   9.576   8.208   1.796
71323SOL    HW215744   9.597   8.079   1.873
71324SOL     OW15745   4.499   8.246   5.430
71324SOL    HW115746   4.474   8.338   5.417
71324SOL    HW215747   4.468   8.225   5.518
71325SOL     OW15748   4.197  10.554   7.112
71325SOL    HW115749   4.144  10.601   7.176
71325SOL    HW215750   4.187  10.462   7.136
71326SOL     OW15751  10.177  11.989   1.425
71326SOL    HW115752  10.106  12.020   1.369
71326SOL    HW215753  10.184  11.895   1.406
71327SOL     OW15754   5.451  11.800  11.042
71327SOL    HW115755   5.524  11.834  11.094
71327SOL    HW215756   5.373  11.816  11.095
71328SOL     OW15757  14.817   2.320  12.939
71328SOL    HW115758  14.872   2.329  12.861
71328SOL    HW215759  14.856   2.378  13.004
71329SOL     OW15760   1.417  12.117   1.236
71329SOL    HW115761   1.454  12.099   1.322
71329SOL    HW215762   1.325  12.140   1.254
71330SOL     OW15763   5.132  12.174   7.292
71330SOL    HW115764   5.161  12.084   7.305
71330SOL    HW215765   5.181  12.205   7.216
71331SOL     OW15766   1.926   3.825  13.894
71331SOL    HW115767   1.970   3.883  13.956
71331SOL    HW215768   1.974   3.742  13.899
71332SOL     OW15769   8.246   3.433   3.685
71332SOL    HW115770   8.164   3.468   3.651
71332SOL    HW215771   8.228   3.415   3.778
71333SOL     OW15772   9.935   1.099   9.363
71333SOL    HW115773   9.990   1.108   9.441
71333SOL    HW215774   9.970   1.163   9.301
71334SOL     OW15775   9.126   8.978   2.627
71334SOL    HW115776   9.130   9.011   2.717
71334SOL    HW215777   9.161   9.050   2.574
71335SOL     OW15778  11.313   4.638  12.344
71335SOL    HW115779  11.308   4.714  12.286
71335SOL    HW215780  11.406   4.618  12.349
71336SOL     OW15781   1.908   5.320  12.960
71336SOL    HW115782   1.936   5.379  13.031
71336SOL    HW215783   1.820   5.293  12.984
71337SOL     OW15784   2.658   1.465   2.350
71337SOL    HW115785   2.642   1.557   2.328
71337SOL    HW215786   2.698   1.428   2.271
71338SOL     OW15787   3.375   0.386  14.846
71338SOL    HW115788   3.321   0.465  14.838
71338SOL    HW215789   3.453   0.404  14.794
71339SOL     OW15790   7.677  14.127  13.426
71339SOL    HW115791   7.639  14.115  13.513
71339SOL    HW215792   7.751  14.186  13.439
71340SOL     OW15793  14.339   2.340   2.933
71340SOL    HW115794  14.415   2.282   2.930
71340SOL    HW215795  14.377   2.428   2.931
71341SOL     OW15796   3.766   4.191  13.656
71341SOL    HW115797   3.826   4.266  13.659
71341SOL    HW215798   3.784   4.143  13.736
71342SOL     OW15799  13.488  14.859  14.651
71342SOL    HW115800  13.428   0.038  14.603
71342SOL    HW215801  13.457  14.860  14.741
71343SOL     OW15802   6.059  13.484  13.028
71343SOL    HW115803   6.093  13.540  12.958
71343SOL    HW215804   5.991  13.432  12.986
71344SOL     OW15805  12.351   7.939  12.774
71344SOL    HW115806  12.378   8.028  12.799
71344SOL    HW215807  12.408   7.917  12.700
71345SOL     OW15808  12.205   8.666   7.369
71345SOL    HW115809  12.122   8.708   7.391
71345SOL    HW215810  12.224   8.695   7.280
71346SOL     OW15811   4.037   5.767  13.150
71346SOL    HW115812   3.966   5.706  13.170
71346SOL    HW215813   4.003   5.821  13.078
71347SOL     OW15814   6.752   1.331   8.347
71347SOL    HW115815   6.694   1.314   8.274
71347SOL    HW215816   6.807   1.253   8.353
71348SOL     OW15817   7.984  12.880  11.434
71348SOL    HW115818   7.948  12.936  11.503
71348SOL    HW215819   7.957  12.792  11.459
71349SOL     OW15820   7.969   4.594   7.049
71349SOL    HW115821   7.956   4.617   7.141
71349SOL    HW215822   7.952   4.500   7.046
71350SOL     OW15823  11.698  12.215  10.436
71350SOL    HW115824  11.684  12.172  10.352
71350SOL    HW215825  11.624  12.188  10.490
71351SOL     OW15826  11.460  14.259   4.482
71351SOL    HW115827  11.373  14.236   4.449
71351SOL    HW215828  11.502  14.306   4.410
71352SOL     OW15829   5.199   3.253   4.704
71352SOL    HW115830   5.135   3.274   4.636
71352SOL    HW215831   5.275   3.220   4.655
71353SOL     OW15832   2.921  13.156  12.045
71353SOL    HW115833   2.880  13.177  11.961
71353SOL    HW215834   2.868  13.086  12.082
71354SOL     OW15835   6.431   9.392  10.964
71354SOL    HW115836   6.503   9.447  10.934
71354SOL    HW215837   6.358   9.413  10.905
71355SOL     OW15838   4.527   1.150   0.207
71355SOL    HW115839   4.479   1.232   0.216
71355SOL    HW215840   4.610   1.166   0.252
71356SOL     OW15841  11.886   1.133  11.619
71356SOL    HW115842  11.824   1.110  11.688
71356SOL    HW215843  11.931   1.210  11.652
71357SOL     OW15844   2.078  11.852   8.240
71357SOL    HW115845   2.122  11.792   8.179
71357SOL    HW215846   2.125  11.842   8.322
71358SOL     OW15847   4.309   6.058  10.406
71358SOL    HW115848   4.374   6.090  10.469
71358SOL    HW215849   4.349   5.980  10.368
71359SOL     OW15850  10.643   3.664   2.270
71359SOL    HW115851  10.724   3.617   2.292
71359SOL    HW215852  10.628   3.722   2.344
71360SOL     OW15853   9.633   8.855  13.776
71360SOL    HW115854   9.656   8.888  13.690
71360SOL    HW215855   9.558   8.908  13.803
71361SOL     OW15856   8.589   2.905   8.753
71361SOL    HW115857   8.571   2.981   8.808
71361SOL    HW215858   8.530   2.915   8.678
71362SOL     OW15859  10.698   9.837   8.535
71362SOL    HW115860  10.603   9.837   8.550
71362SOL    HW215861  10.720   9.744   8.525
71363SOL     OW15862   8.089   3.568   2.475
71363SOL    HW115863   8.080   3.474   2.459
71363SOL    HW215864   8.138   3.574   2.558
71364SOL     OW15865   4.381   8.109   6.990
71364SOL    HW115866   4.344   8.091   7.076
71364SOL    HW215867   4.473   8.131   7.007
71365SOL     OW15868   7.725   6.441   6.978
71365SOL    HW115869   7.678   6.498   7.038
71365SOL    HW215870   7.662   6.373   6.955
71366SOL     OW15871  10.485   9.080  14.699
71366SOL    HW115872  10.462   9.168  14.728
71366SOL    HW215873  10.528   9.093  14.615
71367SOL     OW15874   0.996   0.658  11.519
71367SOL    HW115875   1.021   0.581  11.469
71367SOL    HW215876   0.907   0.639  11.550
71368SOL     OW15877   8.361   7.796  11.260
71368SOL    HW115878   8.329   7.863  11.200
71368SOL    HW215879   8.442   7.834  11.296
71369SOL     OW15880  12.099   2.321  13.033
71369SOL    HW115881  12.050   2.240  13.024
71369SOL    HW215882  12.033   2.387  13.056
71370SOL     OW15883   3.360  10.356  11.276
71370SOL    HW115884   3.343  10.449  11.259
71370SOL    HW215885   3.433  10.356  11.337
71371SOL     OW15886  12.911   3.603  11.870
71371SOL    HW115887  12.869   3.522  11.844
71371SOL    HW215888  12.925   3.650  11.788
71372SOL     OW15889   0.227   7.093  12.636
71372SOL    HW115890   0.271   7.089  12.552
71372SOL    HW215891   0.144   7.137  12.618
71373SOL     OW15892  14.021  12.012   5.846
71373SOL    HW115893  13.969  12.069   5.904
71373SOL    HW215894  13.977  12.017   5.762
71374SOL     OW15895   2.392   8.175   6.002
71374SOL    HW115896   2.409   8.245   5.939
71374SOL    HW215897   2.412   8.095   5.954
71375SOL     OW15898   6.971   8.343   1.787
71375SOL    HW115899   7.055   8.384   1.769
71375SOL    HW215900   6.907   8.398   1.740
71376SOL     OW15901   1.200  10.566   6.724
71376SOL    HW115902   1.124  10.606   6.682
71376SOL    HW215903   1.247  10.522   6.653
71377SOL     OW15904   1.061   8.898   0.834
71377SOL    HW115905   1.093   8.976   0.880
71377SOL    HW215906   1.014   8.932   0.758
71378SOL     OW15907   9.373   1.278   2.854
71378SOL    HW115908   9.330   1.208   2.903
71378SOL    HW215909   9.458   1.242   2.828
71379SOL     OW15910   1.173   9.714   4.525
71379SOL    HW115911   1.249   9.722   4.468
71379SOL    HW215912   1.161   9.620   4.536
71380SOL     OW15913  14.511   9.217   8.425
71380SOL    HW115914  14.546   9.306   8.416
71380SOL    HW215915  14.433   9.216   8.369
71381SOL     OW15916  12.679   9.436   7.818
71381SOL    HW115917  12.745   9.505   7.831
71381SOL    HW215918  12.646   9.418   7.906
71382SOL     OW15919   6.319  13.170   8.935
71382SOL    HW115920   6.249  13.228   8.906
71382SOL    HW215921   6.351  13.129   8.855
71383SOL     OW15922   7.218   8.531   2.408
71383SOL    HW115923   7.231   8.559   2.498
71383SOL    HW215924   7.248   8.606   2.355
71384SOL     OW15925   0.704   4.733   2.995
71384SOL    HW115926   0.687   4.694   3.081
71384SOL    HW215927   0.748   4.664   2.946
71385SOL     OW15928   7.697   5.426  12.077
71385SOL    HW115929   7.674   5.335  12.094
71385SOL    HW215930   7.654   5.476  12.147
71386SOL     OW15931   8.617   0.530  12.260
71386SOL    HW115932   8.625   0.623  12.278
71386SOL    HW215933   8.669   0.516  12.181
71387SOL     OW15934   4.364  12.702   9.376
71387SOL    HW115935   4.285  12.728   9.329
71387SOL    HW215936   4.356  12.607   9.384
71388SOL     OW15937  12.974   7.705  13.617
71388SOL    HW115938  12.986   7.737  13.706
71388SOL    HW215939  12.990   7.781  13.561
71389SOL     OW15940   0.130   0.080  11.390
71389SOL    HW115941   0.163   0.160  11.349
71389SOL    HW215942   0.067   0.110  11.456
71390SOL     OW15943   4.827   1.452   5.582
71390SOL    HW115944   4.805   1.372   5.630
71390SOL    HW215945   4.891   1.423   5.517
71391SOL     OW15946   8.636   9.202   4.773
71391SOL    HW115947   8.589   9.169   4.850
71391SOL    HW215948   8.662   9.291   4.797
71392SOL     OW15949  12.733  10.158  10.668
71392SOL    HW115950  12.825  10.151  10.642
71392SOL    HW215951  12.685  10.107  10.602
71393SOL     OW15952   7.501   1.388  14.368
71393SOL    HW115953   7.430   1.378  14.305
71393SOL    HW215954   7.507   1.483  14.382
71394SOL     OW15955   6.680   5.248  12.797
71394SOL    HW115956   6.691   5.154  12.781
71394SOL    HW215957   6.588   5.265  12.777
71395SOL     OW15958   3.916   9.130  14.029
71395SOL    HW115959   3.972   9.100  13.958
71395SOL    HW215960   3.962   9.105  14.109
71396SOL     OW15961   9.502   8.173  11.215
71396SOL    HW115962   9.497   8.166  11.310
71396SOL    HW215963   9.585   8.132  11.192
71397SOL     OW15964   5.990   6.866   1.603
71397SOL    HW115965   6.069   6.916   1.582
71397SOL    HW215966   5.920   6.931   1.603
71398SOL     OW15967   8.810   3.405   7.155
71398SOL    HW115968   8.847   3.447   7.233
71398SOL    HW215969   8.839   3.459   7.082
71399SOL     OW15970  13.955   0.245   9.181
71399SOL    HW115971  13.875   0.247   9.234
71399SOL    HW215972  14.023   0.279   9.239
71400SOL     OW15973   2.423   3.660   4.020
71400SOL    HW115974   2.369   3.584   3.999
71400SOL    HW215975   2.505   3.645   3.973
71401SOL     OW15976   0.168   9.856   9.297
71401SOL    HW115977   0.124   9.801   9.362
71401SOL    HW215978   0.260   9.831   9.303
71402SOL     OW15979  12.211  11.260  12.208
71402SOL    HW115980  12.302  11.289  12.214
71402SOL    HW215981  12.160  11.342  12.204
71403SOL     OW15982   5.691   3.710  11.444
71403SOL    HW115983   5.706   3.658  11.523
71403SOL    HW215984   5.679   3.645  11.374
71404SOL     OW15985  10.635  11.680   5.787
71404SOL    HW115986  10.724  11.707   5.807
71404SOL    HW215987  10.594  11.668   5.873
71405SOL     OW15988   7.799   0.814   5.849
71405SOL    HW115989   7.811   0.836   5.756
71405SOL    HW215990   7.814   0.896   5.895
71406SOL     OW15991   8.072   7.933   5.581
71406SOL    HW115992   7.990   7.971   5.612
71406SOL    HW215993   8.087   7.858   5.638
71407SOL     OW15994   1.697   3.575   8.744
71407SOL    HW115995   1.724   3.636   8.674
71407SOL    HW215996   1.649   3.506   8.698
71408SOL     OW15997   3.124   3.501   4.265
71408SOL    HW115998   3.096   3.565   4.330
71408SOL    HW215999   3.137   3.552   4.185
71409SOL     OW16000   5.112  14.648   0.303
71409SOL    HW116001   5.038  14.692   0.346
71409SOL    HW216002   5.086  14.556   0.301
71410SOL     OW16003  12.641   5.966   8.610
71410SOL    HW116004  12.703   5.907   8.653
71410SOL    HW216005  12.559   5.917   8.606
71411SOL     OW16006  10.659   0.457  12.979
71411SOL    HW116007  10.621   0.544  12.968
71411SOL    HW216008  10.676   0.427  12.890
71412SOL     OW16009   3.040   1.532  13.909
71412SOL    HW116010   3.111   1.568  13.855
71412SOL    HW216011   3.077   1.453  13.947
71413SOL     OW16012  12.677   4.461   1.159
71413SOL    HW116013  12.665   4.415   1.242
71413SOL    HW216014  12.596   4.444   1.111
71414SOL     OW16015   0.284   1.701  13.449
71414SOL    HW116016   0.241   1.656  13.377
71414SOL    HW216017   0.227   1.685  13.525
71415SOL     OW16018   5.882   8.915   8.165
71415SOL    HW116019   5.815   8.859   8.126
71415SOL    HW216020   5.860   9.004   8.135
71416SOL     OW16021   8.072   8.142   1.985
71416SOL    HW116022   8.012   8.079   1.947
71416SOL    HW216023   8.146   8.090   2.017
71417SOL     OW16024   9.642   2.407  10.974
71417SOL    HW116025   9.606   2.389  10.888
71417SOL    HW216026   9.566   2.423  11.029
71418SOL     OW16027   7.313   1.404   0.567
71418SOL    HW116028   7.265   1.343   0.510
71418SOL    HW216029   7.253   1.477   0.580
71419SOL     OW16030  13.139  13.503  13.277
71419SOL    HW116031  13.200  13.433  13.256
71419SOL    HW216032  13.194  13.580  13.291
71420SOL     OW16033   0.752   0.808   6.155
71420SOL    HW116034   0.718   0.720   6.171
71420SOL    HW216035   0.790   0.834   6.239
71421SOL     OW16036  13.696   0.798   4.372
71421SOL    HW116037  13.750   0.750   4.435
71421SOL    HW216038  13.759   0.834   4.309
71422SOL     OW16039   2.910   5.748   1.336
71422SOL    HW116040   2.834   5.806   1.333
71422SOL    HW216041   2.986   5.806   1.331
71423SOL     OW16042  11.651   8.246   7.270
71423SOL    HW116043  11.675   8.323   7.218
71423SOL    HW216044  11.640   8.176   7.205
71424SOL     OW16045   2.096  14.747   2.197
71424SOL    HW116046   2.121  14.831   2.159
71424SOL    HW216047   2.020  14.719   2.146
71425SOL     OW16048  11.880   7.956  12.950
71425SOL    HW116049  11.855   8.048  12.963
71425SOL    HW216050  11.867   7.940  12.857
71426SOL     OW16051   0.105   9.547   8.275
71426SOL    HW116052   0.057   9.626   8.299
71426SOL    HW216053   0.118   9.554   8.180
71427SOL     OW16054  12.310   8.937  10.720
71427SOL    HW116055  12.232   8.913  10.670
71427SOL    HW216056  12.275   8.979  10.799
71428SOL     OW16057   7.552   5.508   8.790
71428SOL    HW116058   7.626   5.555   8.828
71428SOL    HW216059   7.557   5.528   8.696
71429SOL     OW16060   7.028   5.021  10.662
71429SOL    HW116061   6.984   5.106  10.662
71429SOL    HW216062   7.061   5.010  10.751
71430SOL     OW16063   6.052   6.755  12.901
71430SOL    HW116064   6.105   6.835  12.894
71430SOL    HW216065   6.088   6.710  12.978
71431SOL     OW16066  13.783   1.401  10.505
71431SOL    HW116067  13.702   1.405  10.455
71431SOL    HW216068  13.810   1.310  10.502
71432SOL     OW16069  10.332   1.195   5.504
71432SOL    HW116070  10.249   1.200   5.456
71432SOL    HW216071  10.322   1.120   5.563
71433SOL     OW16072   7.842   6.707   8.193
71433SOL    HW116073   7.891   6.778   8.233
71433SOL    HW216074   7.755   6.744   8.175
71434SOL     OW16075   5.980   0.115  12.259
71434SOL    HW116076   5.938   0.030  12.245
71434SOL    HW216077   6.074   0.096  12.259
71435SOL     OW16078   6.791   4.739   9.100
71435SOL    HW116079   6.708   4.787   9.093
71435SOL    HW216080   6.788   4.699   9.187
71436SOL     OW16081   1.499  13.466   1.739
71436SOL    HW116082   1.492  13.426   1.653
71436SOL    HW216083   1.413  13.504   1.756
71437SOL     OW16084   6.921   0.672  14.651
71437SOL    HW116085   6.885   0.712  14.730
71437SOL    HW216086   6.852   0.612  14.621
71438SOL     OW16087   1.224   9.901  10.511
71438SOL    HW116088   1.225   9.967  10.582
71438SOL    HW216089   1.291   9.932  10.450
71439SOL     OW16090   3.259   4.302   8.045
71439SOL    HW116091   3.276   4.369   8.111
71439SOL    HW216092   3.315   4.229   8.070
71440SOL     OW16093   0.255   8.547  10.239
71440SOL    HW116094   0.266   8.483  10.168
71440SOL    HW216095   0.344   8.575  10.259
71441SOL     OW16096   8.997   7.868   5.413
71441SOL    HW116097   8.905   7.840   5.417
71441SOL    HW216098   8.993   7.962   5.393
71442SOL     OW16099  11.938   1.741  12.245
71442SOL    HW116100  11.851   1.778  12.229
71442SOL    HW216101  11.920   1.656  12.286
71443SOL     OW16102  11.142  12.469   0.616
71443SOL    HW116103  11.116  12.377   0.624
71443SOL    HW216104  11.187  12.487   0.699
71444SOL     OW16105  10.747   9.865   9.075
71444SOL    HW116106  10.693   9.836   9.148
71444SOL    HW216107  10.720   9.811   9.001
71445SOL     OW16108  10.361  10.180  13.202
71445SOL    HW116109  10.346  10.168  13.296
71445SOL    HW216110  10.399  10.267  13.195
71446SOL     OW16111   0.703  12.199   6.359
71446SOL    HW116112   0.797  12.181   6.372
71446SOL    HW216113   0.665  12.113   6.343
71447SOL     OW16114   6.195   6.648  12.590
71447SOL    HW116115   6.112   6.692  12.607
71447SOL    HW216116   6.251   6.672  12.665
71448SOL     OW16117  14.094   5.223   9.385
71448SOL    HW116118  14.035   5.288   9.347
71448SOL    HW216119  14.041   5.143   9.392
71449SOL     OW16120   3.678   6.647   4.800
71449SOL    HW116121   3.607   6.601   4.846
71449SOL    HW216122   3.752   6.644   4.861
71450SOL     OW16123  14.199   9.628  12.850
71450SOL    HW116124  14.133   9.656  12.914
71450SOL    HW216125  14.278   9.676  12.876
71451SOL     OW16126   9.492  13.263   9.542
71451SOL    HW116127   9.489  13.201   9.615
71451SOL    HW216128   9.503  13.209   9.464
71452SOL     OW16129   9.154  10.395   2.953
71452SOL    HW116130   9.201  10.340   3.016
71452SOL    HW216131   9.122  10.333   2.887
71453SOL     OW16132   6.267   4.406  10.448
71453SOL    HW116133   6.360   4.416  10.427
71453SOL    HW216134   6.259   4.314  10.476
71454SOL     OW16135   7.563   4.491  13.436
71454SOL    HW116136   7.548   4.540  13.517
71454SOL    HW216137   7.576   4.401  13.464
71455SOL     OW16138  12.553  11.155   3.589
71455SOL    HW116139  12.594  11.144   3.503
71455SOL    HW216140  12.626  11.160   3.650
71456SOL     OW16141  13.180   2.376  13.292
71456SOL    HW116142  13.156   2.425  13.371
71456SOL    HW216143  13.187   2.285  13.322
71457SOL     OW16144   7.203   6.565   0.110
71457SOL    HW116145   7.231   6.631   0.174
71457SOL    HW216146   7.285   6.525   0.080
71458SOL     OW16147  12.775   2.580   5.885
71458SOL    HW116148  12.814   2.524   5.952
71458SOL    HW216149  12.736   2.518   5.822
71459SOL     OW16150   9.227   5.280  14.548
71459SOL    HW116151   9.266   5.212  14.603
71459SOL    HW216152   9.207   5.352  14.608
71460SOL     OW16153   7.952   6.801   2.110
71460SOL    HW116154   7.960   6.893   2.134
71460SOL    HW216155   7.964   6.799   2.015
71461SOL     OW16156   1.580   1.671   4.082
71461SOL    HW116157   1.654   1.677   4.142
71461SOL    HW216158   1.517   1.615   4.127
71462SOL     OW16159  14.394   6.641   1.730
71462SOL    HW116160  14.423   6.550   1.727
71462SOL    HW216161  14.322   6.641   1.794
71463SOL     OW16162  10.608   9.118   6.489
71463SOL    HW116163  10.577   9.050   6.429
71463SOL    HW216164  10.657   9.179   6.434
71464SOL     OW16165   8.256   9.731  12.660
71464SOL    HW116166   8.315   9.659  12.638
71464SOL    HW216167   8.309   9.789  12.715
71465SOL     OW16168   2.389   4.139  12.854
71465SOL    HW116169   2.427   4.092  12.779
71465SOL    HW216170   2.372   4.070  12.919
71466SOL     OW16171   6.265  13.253  13.397
71466SOL    HW116172   6.222  13.189  13.453
71466SOL    HW216173   6.318  13.201  13.337
71467SOL     OW16174  11.756  13.145  13.348
71467SOL    HW116175  11.847  13.161  13.374
71467SOL    HW216176  11.752  13.050  13.336
71468SOL     OW16177  12.173   8.375   4.009
71468SOL    HW116178  12.173   8.408   3.919
71468SOL    HW216179  12.155   8.282   4.000
71469SOL     OW16180   9.460   3.761   5.746
71469SOL    HW116181   9.495   3.842   5.783
71469SOL    HW216182   9.535   3.721   5.702
71470SOL     OW16183   6.617  11.696  13.414
71470SOL    HW116184   6.645  11.643  13.489
71470SOL    HW216185   6.576  11.634  13.355
71471SOL     OW16186  12.800   6.898   6.535
71471SOL    HW116187  12.728   6.843   6.567
71471SOL    HW216188  12.762   6.944   6.460
71472SOL     OW16189   4.088   6.010  14.823
71472SOL    HW116190   4.096   5.998  14.728
71472SOL    HW216191   4.069   5.922  14.856
71473SOL     OW16192  14.412   4.982  14.415
71473SOL    HW116193  14.480   4.980  14.482
71473SOL    HW216194  14.358   5.058  14.437
71474SOL     OW16195  14.261   0.575   2.066
71474SOL    HW116196  14.254   0.561   1.972
71474SOL    HW216197  14.175   0.611   2.091
71475SOL     OW16198  12.126   0.606  11.792
71475SOL    HW116199  12.053   0.567  11.839
71475SOL    HW216200  12.142   0.689  11.837
71476SOL     OW16201   3.777  14.035  14.012
71476SOL    HW116202   3.869  14.011  14.009
71476SOL    HW216203   3.742  13.989  14.089
71477SOL     OW16204   4.827   4.677   6.308
71477SOL    HW116205   4.782   4.656   6.389
71477SOL    HW216206   4.805   4.606   6.248
71478SOL     OW16207   5.591   6.469   8.190
71478SOL    HW116208   5.585   6.399   8.124
71478SOL    HW216209   5.512   6.457   8.244
71479SOL     OW16210   5.033   3.001  12.978
71479SOL    HW116211   4.996   3.059  12.911
71479SOL    HW216212   5.059   2.922  12.930
71480SOL     OW16213  13.436   9.292   2.540
71480SOL    HW116214  13.352   9.319   2.576
71480SOL    HW216215  13.478   9.374   2.512
71481SOL     OW16216  11.903  11.241  13.187
71481SOL    HW116217  11.903  11.283  13.101
71481SOL    HW216218  11.922  11.149  13.169
71482SOL     OW16219   0.005   0.876  14.273
71482SOL    HW116220   0.045   0.808  14.328
71482SOL    HW216221  14.789   0.871  14.293
71483SOL     OW16222   7.839  13.071   0.309
71483SOL    HW116223   7.898  13.131   0.263
71483SOL    HW216224   7.757  13.077   0.260
71484SOL     OW16225  13.029   2.000  13.835
71484SOL    HW116226  12.950   2.046  13.864
71484SOL    HW216227  13.046   2.034  13.747
71485SOL     OW16228   0.061  11.738   9.595
71485SOL    HW116229   0.110  11.666   9.555
71485SOL    HW216230   0.042  11.798   9.522
71486SOL     OW16231  13.129   0.816   0.992
71486SOL    HW116232  13.035   0.818   0.974
71486SOL    HW216233  13.155   0.908   0.998
71487SOL     OW16234  12.947   6.389   6.373
71487SOL    HW116235  12.968   6.443   6.297
71487SOL    HW216236  12.996   6.308   6.359
71488SOL     OW16237  12.191   0.867   5.375
71488SOL    HW116238  12.225   0.794   5.427
71488SOL    HW216239  12.250   0.940   5.393
71489SOL     OW16240   7.095   8.152  13.833
71489SOL    HW116241   7.111   8.063  13.799
71489SOL    HW216242   7.018   8.182  13.784
71490SOL     OW16243   7.680  13.947  10.313
71490SOL    HW116244   7.674  13.852  10.323
71490SOL    HW216245   7.767  13.969  10.346
71491SOL     OW16246  13.388   4.762   9.020
71491SOL    HW116247  13.297   4.777   9.044
71491SOL    HW216248  13.406   4.673   9.050
71492SOL     OW16249  10.374   8.232  10.824
71492SOL    HW116250  10.348   8.209  10.735
71492SOL    HW216251  10.298   8.210  10.878
71493SOL     OW16252  10.020   6.935  13.087
71493SOL    HW116253  10.089   6.913  13.023
71493SOL    HW216254  10.051   6.898  13.169
71494SOL     OW16255   6.960   0.857  14.450
71494SOL    HW116256   6.960   0.792  14.520
71494SOL    HW216257   7.037   0.837  14.398
71495SOL     OW16258   4.971   7.920  13.239
71495SOL    HW116259   4.953   7.909  13.332
71495SOL    HW216260   4.888   7.901  13.196
71496SOL     OW16261   1.778  10.499   3.714
71496SOL    HW116262   1.775  10.461   3.626
71496SOL    HW216263   1.688  10.527   3.731
71497SOL     OW16264   1.471  10.647  12.211
71497SOL    HW116265   1.539  10.602  12.261
71497SOL    HW216266   1.448  10.723  12.265
71498SOL     OW16267   4.618   0.427   6.210
71498SOL    HW116268   4.538   0.453   6.165
71498SOL    HW216269   4.676   0.503   6.203
71499SOL     OW16270  10.266  14.531   9.434
71499SOL    HW116271  10.325  14.563   9.502
71499SOL    HW216272  10.261  14.437   9.448
71500SOL     OW16273  14.700   6.880   4.772
71500SOL    HW116274  14.663   6.857   4.687
71500SOL    HW216275  14.742   6.800   4.803
71501SOL     OW16276  11.790   5.732   0.440
71501SOL    HW116277  11.749   5.645   0.443
71501SOL    HW216278  11.773   5.770   0.526
71502SOL     OW16279   4.471  13.320   7.941
71502SOL    HW116280   4.559  13.354   7.952
71502SOL    HW216281   4.442  13.354   7.857
71503SOL     OW16282   0.129  10.630   6.992
71503SOL    HW116283   0.220  10.640   6.962
71503SOL    HW216284   0.135  10.638   7.087
71504SOL     OW16285   0.516   5.594   3.965
71504SOL    HW116286   0.570   5.546   4.028
71504SOL    HW216287   0.571   5.668   3.937
71505SOL     OW16288   8.650   6.714   6.282
71505SOL    HW116289   8.645   6.653   6.208
71505SOL    HW216290   8.704   6.786   6.250
71506SOL     OW16291   1.266  11.810   0.096
71506SOL    HW116292   1.354  11.773   0.104
71506SOL    HW216293   1.212  11.757   0.154
71507SOL     OW16294   0.996   8.985  12.101
71507SOL    HW116295   1.030   8.945  12.021
71507SOL    HW216296   1.072   9.025  12.143
71508SOL     OW16297   4.575   4.906  14.349
71508SOL    HW116298   4.532   4.889  14.433
71508SOL    HW216299   4.665   4.927  14.372
71509SOL     OW16300   1.917   7.171   8.731
71509SOL    HW116301   1.952   7.203   8.815
71509SOL    HW216302   1.910   7.250   8.677
71510SOL     OW16303  10.090   1.930   8.056
71510SOL    HW116304  10.061   1.986   8.128
71510SOL    HW216305  10.038   1.850   8.065
71511SOL     OW16306   5.812   9.553   3.624
71511SOL    HW116307   5.889   9.547   3.681
71511SOL    HW216308   5.828   9.632   3.571
71512SOL     OW16309   8.917  11.639   2.421
71512SOL    HW116310   8.822  11.625   2.412
71512SOL    HW216311   8.926  11.698   2.495
71513SOL     OW16312   7.347   0.560   7.160
71513SOL    HW116313   7.412   0.605   7.106
71513SOL    HW216314   7.319   0.626   7.224
71514SOL     OW16315   6.841   1.904   6.266
71514SOL    HW116316   6.761   1.897   6.213
71514SOL    HW216317   6.908   1.859   6.215
71515SOL     OW16318  14.781  13.601  13.310
71515SOL    HW116319  14.859  13.546  13.310
71515SOL    HW216320  14.785  13.649  13.227
71516SOL     OW16321   5.179  11.542   7.169
71516SOL    HW116322   5.165  11.577   7.082
71516SOL    HW216323   5.274  11.539   7.179
71517SOL     OW16324   8.591   2.941   4.978
71517SOL    HW116325   8.596   2.917   4.885
71517SOL    HW216326   8.681   2.964   5.001
71518SOL     OW16327   2.044   7.219   6.910
71518SOL    HW116328   2.067   7.253   6.997
71518SOL    HW216329   2.055   7.124   6.918
71519SOL     OW16330  10.330  14.160   1.535
71519SOL    HW116331  10.323  14.223   1.606
71519SOL    HW216332  10.310  14.210   1.456
71520SOL     OW16333   0.507  10.762  12.405
71520SOL    HW116334   0.416  10.762  12.433
71520SOL    HW216335   0.557  10.765  12.487
71521SOL     OW16336   5.154   4.913   3.679
71521SOL    HW116337   5.218   4.845   3.701
71521SOL    HW216338   5.104   4.926   3.760
71522SOL     OW16339  11.480   5.701  11.531
71522SOL    HW116340  11.498   5.692  11.438
71522SOL    HW216341  11.566   5.693  11.574
71523SOL     OW16342   0.768  13.075  13.167
71523SOL    HW116343   0.784  12.991  13.210
71523SOL    HW216344   0.769  13.055  13.073
71524SOL     OW16345   8.940   7.135  14.713
71524SOL    HW116346   8.931   7.040  14.701
71524SOL    HW216347   8.855   7.163  14.746
71525SOL     OW16348  12.792   0.950   9.845
71525SOL    HW116349  12.710   0.988   9.814
71525SOL    HW216350  12.766   0.870   9.891
71526SOL     OW16351   6.696   0.186  12.302
71526SOL    HW116352   6.765   0.183  12.235
71526SOL    HW216353   6.636   0.253  12.272
71527SOL     OW16354  13.127   7.655  10.208
71527SOL    HW116355  13.049   7.624  10.253
71527SOL    HW216356  13.126   7.750  10.220
71528SOL     OW16357   9.797   9.609   4.449
71528SOL    HW116358   9.823   9.695   4.416
71528SOL    HW216359   9.872   9.552   4.431
71529SOL     OW16360   4.637  13.207   5.827
71529SOL    HW116361   4.548  13.219   5.859
71529SOL    HW216362   4.634  13.124   5.779
71530SOL     OW16363   8.671   5.686  10.415
71530SOL    HW116364   8.642   5.753  10.353
71530SOL    HW216365   8.686   5.609  10.360
71531SOL     OW16366  12.502   5.381  12.798
71531SOL    HW116367  12.587   5.400  12.838
71531SOL    HW216368  12.521   5.313  12.734
71532SOL     OW16369   6.841  12.701   9.308
71532SOL    HW116370   6.875  12.654   9.384
71532SOL    HW216371   6.782  12.766   9.345
71533SOL     OW16372  10.272   1.458   9.501
71533SOL    HW116373  10.247   1.449   9.409
71533SOL    HW216374  10.193   1.492   9.544
71534SOL     OW16375   2.672   9.728   2.130
71534SOL    HW116376   2.758   9.750   2.096
71534SOL    HW216377   2.665   9.777   2.212
71535SOL     OW16378  11.323  14.634   7.472
71535SOL    HW116379  11.361  14.679   7.396
71535SOL    HW216380  11.273  14.701   7.517
71536SOL     OW16381   7.798   2.881   1.791
71536SOL    HW116382   7.891   2.885   1.772
71536SOL    HW216383   7.789   2.810   1.854
71537SOL     OW16384  14.103   8.102  13.161
71537SOL    HW116385  14.014   8.068  13.161
71537SOL    HW216386  14.159   8.025  13.153
71538SOL     OW16387   2.433   8.244   8.779
71538SOL    HW116388   2.407   8.273   8.866
71538SOL    HW216389   2.417   8.150   8.779
71539SOL     OW16390   3.479   3.152  14.661
71539SOL    HW116391   3.428   3.233  14.666
71539SOL    HW216392   3.463   3.120  14.572
71540SOL     OW16393  12.499   8.868   0.957
71540SOL    HW116394  12.567   8.801   0.967
71540SOL    HW216395  12.540   8.937   0.906
71541SOL     OW16396   9.228  12.072  13.498
71541SOL    HW116397   9.133  12.063  13.509
71541SOL    HW216398   9.250  12.006  13.432
71542SOL     OW16399  13.849   5.642   5.986
71542SOL    HW116400  13.890   5.643   5.900
71542SOL    HW216401  13.836   5.734   6.008
71543SOL     OW16402   3.265   1.917  13.322
71543SOL    HW116403   3.227   2.002  13.300
71543SOL    HW216404   3.211   1.884  13.393
71544SOL     OW16405  14.610   5.796  10.186
71544SOL    HW116406  14.597   5.773  10.278
71544SOL    HW216407  14.529   5.769  10.143
71545SOL     OW16408  13.242   9.360   1.553
71545SOL    HW116409  13.336   9.350   1.564
71545SOL    HW216410  13.230   9.379   1.460
71546SOL     OW16411   9.133  14.579   8.895
71546SOL    HW116412   9.069  14.626   8.949
71546SOL    HW216413   9.177  14.647   8.845
71547SOL     OW16414   9.196   1.851   1.666
71547SOL    HW116415   9.146   1.770   1.659
71547SOL    HW216416   9.281   1.825   1.701
71548SOL     OW16417   6.105   8.441   0.133
71548SOL    HW116418   6.041   8.371   0.147
71548SOL    HW216419   6.061   8.503   0.074
71549SOL     OW16420   9.247  12.584   5.771
71549SOL    HW116421   9.284  12.540   5.848
71549SOL    HW216422   9.287  12.671   5.772
71550SOL     OW16423   0.073   3.231   1.333
71550SOL    HW116424   0.108   3.270   1.252
71550SOL    HW216425   0.040   3.146   1.306
71551SOL     OW16426   0.546   7.470   9.194
71551SOL    HW116427   0.526   7.489   9.102
71551SOL    HW216428   0.633   7.507   9.207
71552SOL     OW16429  12.606   5.730   2.454
71552SOL    HW116430  12.644   5.739   2.541
71552SOL    HW216431  12.614   5.637   2.434
71553SOL     OW16432  12.170   1.673  14.472
71553SOL    HW116433  12.134   1.611  14.410
71553SOL    HW216434  12.094   1.709  14.518
71554SOL     OW16435   0.430   6.350   5.159
71554SOL    HW116436   0.434   6.379   5.068
71554SOL    HW216437   0.387   6.264   5.155
71555SOL     OW16438   7.184   1.855   6.357
71555SOL    HW116439   7.279   1.841   6.354
71555SOL    HW216440   7.160   1.840   6.448
71556SOL     OW16441  13.945   1.942   4.542
71556SOL    HW116442  13.996   1.862   4.549
71556SOL    HW216443  13.924   1.965   4.633
71557SOL     OW16444   4.053  14.320   9.145
71557SOL    HW116445   4.080  14.275   9.225
71557SOL    HW216446   4.102  14.277   9.075
71558SOL     OW16447   4.970  14.589  13.152
71558SOL    HW116448   4.934  14.556  13.069
71558SOL    HW216449   4.927  14.537  13.219
71559SOL     OW16450   5.254   2.807   8.687
71559SOL    HW116451   5.312   2.859   8.630
71559SOL    HW216452   5.172   2.855   8.688
71560SOL     OW16453   1.616   4.998   9.697
71560SOL    HW116454   1.548   5.062   9.673
71560SOL    HW216455   1.652   5.032   9.779
71561SOL     OW16456  12.955  10.824   1.699
71561SOL    HW116457  12.861  10.812   1.710
71561SOL    HW216458  12.984  10.747   1.650
71562SOL     OW16459   5.038   6.268   3.726
71562SOL    HW116460   5.122   6.304   3.754
71562SOL    HW216461   4.987   6.345   3.700
71563SOL     OW16462   0.929  12.123   2.217
71563SOL    HW116463   0.955  12.194   2.274
71563SOL    HW216464   0.926  12.046   2.274
71564SOL     OW16465  12.325   8.233   7.010
71564SOL    HW116466  12.273   8.189   7.078
71564SOL    HW216467  12.282   8.317   6.998
71565SOL     OW16468   7.400  12.291   2.097
71565SOL    HW116469   7.378  12.267   2.187
71565SOL    HW216470   7.340  12.240   2.043
71566SOL     OW16471   5.409  14.766   8.429
71566SOL    HW116472   5.317  14.774   8.404
71566SOL    HW216473   5.457  14.798   8.352
71567SOL     OW16474   8.204   9.482   1.425
71567SOL    HW116475   8.135   9.542   1.454
71567SOL    HW216476   8.160   9.425   1.362
71568SOL     OW16477   0.247  12.305   5.248
71568SOL    HW116478   0.179  12.367   5.224
71568SOL    HW216479   0.238  12.293   5.342
71569SOL     OW16480   2.526   2.984   2.549
71569SOL    HW116481   2.609   2.951   2.581
71569SOL    HW216482   2.533   2.979   2.453
71570SOL     OW16483   3.475   6.577   4.971
71570SOL    HW116484   3.462   6.615   5.058
71570SOL    HW216485   3.412   6.505   4.967
71571SOL     OW16486   1.993   5.833  11.329
71571SOL    HW116487   2.052   5.765  11.295
71571SOL    HW216488   2.003   5.906  11.268
71572SOL     OW16489  14.793   4.285   9.138
71572SOL    HW116490  14.795   4.379   9.122
71572SOL    HW216491  14.720   4.272   9.200
71573SOL     OW16492   5.200   5.317   5.971
71573SOL    HW116493   5.131   5.383   5.970
71573SOL    HW216494   5.234   5.316   5.882
71574SOL     OW16495   8.787   1.373   9.914
71574SOL    HW116496   8.866   1.319   9.920
71574SOL    HW216497   8.786   1.423   9.996
71575SOL     OW16498   5.853   0.385  10.011
71575SOL    HW116499   5.778   0.437  10.039
71575SOL    HW216500   5.896   0.438   9.945
71576SOL     OW16501   5.299   3.996  12.751
71576SOL    HW116502   5.252   4.025  12.829
71576SOL    HW216503   5.292   3.901  12.752
71577SOL     OW16504   5.422   4.659   3.312
71577SOL    HW116505   5.451   4.713   3.238
71577SOL    HW216506   5.431   4.716   3.388
71578SOL     OW16507   8.871   2.505  13.839
71578SOL    HW116508   8.848   2.424  13.885
71578SOL    HW216509   8.829   2.575  13.890
71579SOL     OW16510   3.791   1.370  13.453
71579SOL    HW116511   3.873   1.330  13.481
71579SOL    HW216512   3.801   1.463  13.474
71580SOL     OW16513  11.054  10.661   7.870
71580SOL    HW116514  11.083  10.633   7.784
71580SOL    HW216515  11.015  10.748   7.856
71581SOL     OW16516   2.348   4.443   7.503
71581SOL    HW116517   2.272   4.385   7.514
71581SOL    HW216518   2.382   4.421   7.417
71582SOL     OW16519  11.772   1.735   2.151
71582SOL    HW116520  11.764   1.816   2.203
71582SOL    HW216521  11.834   1.682   2.200
71583SOL     OW16522   3.743   7.417  11.697
71583SOL    HW116523   3.820   7.437  11.644
71583SOL    HW216524   3.712   7.503  11.726
71584SOL     OW16525   6.539   6.058   7.101
71584SOL    HW116526   6.557   6.146   7.067
71584SOL    HW216527   6.616   6.007   7.076
71585SOL     OW16528   9.351  13.761  11.131
71585SOL    HW116529   9.305  13.679  11.149
71585SOL    HW216530   9.413  13.771  11.203
71586SOL     OW16531   7.142  11.897   3.732
71586SOL    HW116532   7.152  11.851   3.816
71586SOL    HW216533   7.216  11.868   3.680
71587SOL     OW16534   8.702   2.873   7.012
71587SOL    HW116535   8.779   2.853   7.065
71587SOL    HW216536   8.632   2.821   7.052
71588SOL     OW16537  12.750  13.534   0.272
71588SOL    HW116538  12.672  13.509   0.322
71588SOL    HW216539  12.783  13.451   0.237
71589SOL     OW16540   6.253   7.840  11.926
71589SOL    HW116541   6.201   7.774  11.972
71589SOL    HW216542   6.283   7.795  11.846
71590SOL     OW16543   9.186   5.608  13.456
71590SOL    HW116544   9.164   5.697  13.485
71590SOL    HW216545   9.206   5.561  13.537
71591SOL     OW16546  13.303  11.394   1.594
71591SOL    HW116547  13.317  11.401   1.688
71591SOL    HW216548  13.244  11.319   1.584
71592SOL     OW16549   7.172   3.319  11.774
71592SOL    HW116550   7.219   3.286  11.698
71592SOL    HW216551   7.082   3.288  11.762
71593SOL     OW16552   7.164  10.238   8.113
71593SOL    HW116553   7.174  10.143   8.122
71593SOL    HW216554   7.240  10.274   8.158
71594SOL     OW16555   4.734  14.611   8.848
71594SOL    HW116556   4.657  14.639   8.798
71594SOL    HW216557   4.730  14.663   8.928
71595SOL     OW16558   1.742  12.379  10.184
71595SOL    HW116559   1.653  12.349  10.201
71595SOL    HW216560   1.765  12.337  10.101
71596SOL     OW16561   6.536   1.528  11.658
71596SOL    HW116562   6.558   1.534  11.751
71596SOL    HW216563   6.557   1.614  11.623
71597SOL     OW16564   4.656   8.366  13.863
71597SOL    HW116565   4.704   8.386  13.783
71597SOL    HW216566   4.564   8.375  13.838
71598SOL     OW16567   8.879   6.287   9.868
71598SOL    HW116568   8.839   6.208   9.833
71598SOL    HW216569   8.814   6.321   9.930
71599SOL     OW16570  10.615   0.640   8.519
71599SOL    HW116571  10.685   0.616   8.458
71599SOL    HW216572  10.595   0.559   8.565
71600SOL     OW16573  14.489   0.775   2.826
71600SOL    HW116574  14.544   0.731   2.760
71600SOL    HW216575  14.543   0.777   2.905
71601SOL     OW16576  13.718   5.847   2.091
71601SOL    HW116577  13.700   5.858   2.185
71601SOL    HW216578  13.808   5.816   2.088
71602SOL     OW16579   7.245  14.596  14.298
71602SOL    HW116580   7.315  14.606  14.363
71602SOL    HW216581   7.291  14.575  14.217
71603SOL     OW16582   9.094   0.248   2.327
71603SOL    HW116583   9.033   0.197   2.274
71603SOL    HW216584   9.054   0.335   2.333
71604SOL     OW16585   0.629  14.769  13.465
71604SOL    HW116586   0.559  14.706  13.447
71604SOL    HW216587   0.613  14.799  13.554
71605SOL     OW16588  13.537   0.281   2.981
71605SOL    HW116589  13.598   0.262   2.909
71605SOL    HW216590  13.469   0.335   2.941
71606SOL     OW16591   0.973   2.309  14.294
71606SOL    HW116592   0.964   2.224  14.250
71606SOL    HW216593   0.914   2.303  14.368
71607SOL     OW16594   7.140   1.367  13.984
71607SOL    HW116595   7.176   1.370  13.895
71607SOL    HW216596   7.081   1.442  13.988
71608SOL     OW16597   4.560   4.721   1.555
71608SOL    HW116598   4.567   4.627   1.569
71608SOL    HW216599   4.622   4.740   1.484
71609SOL     OW16600   3.977   5.487  14.163
71609SOL    HW116601   3.898   5.441  14.137
71609SOL    HW216602   3.948   5.575  14.186
71610SOL     OW16603   6.439   2.018   5.398
71610SOL    HW116604   6.487   2.092   5.361
71610SOL    HW216605   6.451   2.028   5.493
71611SOL     OW16606  13.993   2.721   0.146
71611SOL    HW116607  13.933   2.766   0.206
71611SOL    HW216608  14.001   2.780   0.072
71612SOL     OW16609   3.701   0.827   5.739
71612SOL    HW116610   3.725   0.821   5.647
71612SOL    HW216611   3.606   0.840   5.738
71613SOL     OW16612  13.419   1.970   5.512
71613SOL    HW116613  13.456   2.044   5.560
71613SOL    HW216614  13.442   1.893   5.566
71614SOL     OW16615   8.176  10.388  13.043
71614SOL    HW116616   8.250  10.366  13.101
71614SOL    HW216617   8.163  10.482  13.056
71615SOL     OW16618  11.800  14.402  13.717
71615SOL    HW116619  11.753  14.338  13.664
71615SOL    HW216620  11.832  14.351  13.793
71616SOL     OW16621  13.966  12.245   4.856
71616SOL    HW116622  14.019  12.166   4.857
71616SOL    HW216623  13.918  12.242   4.939
71617SOL     OW16624   9.910   5.720  10.606
71617SOL    HW116625   9.907   5.671  10.524
71617SOL    HW216626   9.885   5.809  10.581
71618SOL     OW16627  12.152  10.619   0.617
71618SOL    HW116628  12.089  10.547   0.603
71618SOL    HW216629  12.154  10.630   0.712
71619SOL     OW16630  10.870   2.232   1.392
71619SOL    HW116631  10.794   2.289   1.405
71619SOL    HW216632  10.940   2.272   1.444
71620SOL     OW16633   0.777   3.832  11.610
71620SOL    HW116634   0.800   3.743  11.584
71620SOL    HW216635   0.814   3.888  11.542
71621SOL     OW16636   8.978  13.205   7.055
71621SOL    HW116637   8.907  13.141   7.047
71621SOL    HW216638   8.934  13.288   7.071
71622SOL     OW16639  12.040   5.851   7.491
71622SOL    HW116640  11.965   5.807   7.452
71622SOL    HW216641  12.019   5.856   7.584
71623SOL     OW16642  10.156   2.990   8.495
71623SOL    HW116643  10.200   2.907   8.514
71623SOL    HW216644  10.166   3.002   8.401
71624SOL     OW16645  13.363   2.213   8.391
71624SOL    HW116646  13.455   2.200   8.414
71624SOL    HW216647  13.359   2.303   8.357
71625SOL     OW16648   3.372   9.927  11.941
71625SOL    HW116649   3.340   9.886  11.860
71625SOL    HW216650   3.403  10.013  11.913
71626SOL     OW16651  13.329  10.011   0.273
71626SOL    HW116652  13.404  10.042   0.222
71626SOL    HW216653  13.333  10.062   0.355
71627SOL     OW16654   3.339  12.353  12.532
71627SOL    HW116655   3.324  12.275  12.478
71627SOL    HW216656   3.414  12.330  12.587
71628SOL     OW16657  12.523   4.684  10.793
71628SOL    HW116658  12.472   4.603  10.794
71628SOL    HW216659  12.614   4.654  10.800
71629SOL     OW16660  11.325   6.149  12.343
71629SOL    HW116661  11.390   6.218  12.332
71629SOL    HW216662  11.359   6.076  12.291
71630SOL     OW16663  11.261   6.088   4.042
71630SOL    HW116664  11.177   6.133   4.050
71630SOL    HW216665  11.276   6.049   4.128
71631SOL     OW16666   9.482   5.902  10.715
71631SOL    HW116667   9.411   5.840  10.701
71631SOL    HW216668   9.519   5.918  10.628
71632SOL     OW16669   7.533   3.667   3.304
71632SOL    HW116670   7.554   3.641   3.214
71632SOL    HW216671   7.475   3.597   3.335
71633SOL     OW16672  14.176   5.268  12.695
71633SOL    HW116673  14.246   5.298  12.754
71633SOL    HW216674  14.167   5.339  12.632
71634SOL     OW16675  12.271   9.442   2.418
71634SOL    HW116676  12.350   9.495   2.428
71634SOL    HW216677  12.260   9.434   2.324
71635SOL     OW16678   8.813   4.963   8.304
71635SOL    HW116679   8.828   4.900   8.234
71635SOL    HW216680   8.729   4.938   8.342
71636SOL     OW16681   1.824   5.304   9.449
71636SOL    HW116682   1.911   5.343   9.448
71636SOL    HW216683   1.779   5.347   9.521
71637SOL     OW16684  11.739   6.501   6.048
71637SOL    HW116685  11.791   6.503   5.968
71637SOL    HW216686  11.659   6.550   6.027
71638SOL     OW16687   1.072  10.006  13.419
71638SOL    HW116688   0.993  10.026  13.369
71638SOL    HW216689   1.125   9.951  13.361
71639SOL     OW16690  11.685  10.215  14.840
71639SOL    HW116691  11.590  10.210  14.833
71639SOL    HW216692  11.702  10.229   0.055
71640SOL     OW16693  11.917   8.808   7.931
71640SOL    HW116694  11.826   8.830   7.909
71640SOL    HW216695  11.954   8.890   7.963
71641SOL     OW16696  14.135  13.042  13.484
71641SOL    HW116697  14.096  13.076  13.564
71641SOL    HW216698  14.172  13.118  13.440
71642SOL     OW16699   3.076   9.679  12.371
71642SOL    HW116700   3.090   9.727  12.289
71642SOL    HW216701   3.159   9.686  12.418
71643SOL     OW16702   4.581   9.384   2.187
71643SOL    HW116703   4.540   9.389   2.274
71643SOL    HW216704   4.511   9.355   2.129
71644SOL     OW16705   5.921  11.663  13.737
71644SOL    HW116706   5.973  11.605  13.793
71644SOL    HW216707   5.846  11.610  13.711
71645SOL     OW16708   0.239   5.493  14.010
71645SOL    HW116709   0.243   5.473  14.103
71645SOL    HW216710   0.238   5.588  14.005
71646SOL     OW16711   6.866  13.219  10.575
71646SOL    HW116712   6.866  13.172  10.658
71646SOL    HW216713   6.938  13.282  10.583
71647SOL     OW16714   0.596   6.583  13.933
71647SOL    HW116715   0.621   6.496  13.964
71647SOL    HW216716   0.645   6.643  13.989
71648SOL     OW16717   3.334   1.932  11.839
71648SOL    HW116718   3.374   2.017  11.855
71648SOL    HW216719   3.348   1.915  11.746
71649SOL     OW16720   9.579   4.738   3.867
71649SOL    HW116721   9.651   4.728   3.805
71649SOL    HW216722   9.607   4.690   3.945
71650SOL     OW16723  13.542   8.687   2.412
71650SOL    HW116724  13.509   8.712   2.326
71650SOL    HW216725  13.505   8.751   2.472
71651SOL     OW16726  13.904  10.059   4.722
71651SOL    HW116727  13.922   9.995   4.791
71651SOL    HW216728  13.985  10.108   4.713
71652SOL     OW16729  11.009  12.674   8.291
71652SOL    HW116730  11.009  12.757   8.338
71652SOL    HW216731  10.975  12.695   8.204
71653SOL     OW16732   6.310   3.480   7.332
71653SOL    HW116733   6.379   3.545   7.350
71653SOL    HW216734   6.334   3.405   7.385
71654SOL     OW16735  10.469   4.064  11.215
71654SOL    HW116736  10.501   3.978  11.243
71654SOL    HW216737  10.509   4.077  11.129
71655SOL     OW16738   2.541   8.888  13.789
71655SOL    HW116739   2.558   8.978  13.759
71655SOL    HW216740   2.494   8.898  13.871
71656SOL     OW16741   0.888   7.852  10.751
71656SOL    HW116742   0.887   7.882  10.842
71656SOL    HW216743   0.977   7.868  10.721
71657SOL     OW16744   0.513   7.732   4.628
71657SOL    HW116745   0.580   7.672   4.595
71657SOL    HW216746   0.547   7.762   4.712
71658SOL     OW16747  11.091  12.980   7.046
71658SOL    HW116748  11.077  13.035   6.970
71658SOL    HW216749  11.071  13.036   7.121
71659SOL     OW16750  11.846   0.065   4.588
71659SOL    HW116751  11.938   0.053   4.565
71659SOL    HW216752  11.837   0.023   4.674
71660SOL     OW16753   6.138   2.552   1.567
71660SOL    HW116754   6.228   2.585   1.575
71660SOL    HW216755   6.088   2.627   1.535
71661SOL     OW16756   5.863   8.091   8.521
71661SOL    HW116757   5.772   8.080   8.495
71661SOL    HW216758   5.904   8.133   8.445
71662SOL     OW16759   7.726   4.955  11.114
71662SOL    HW116760   7.777   4.907  11.049
71662SOL    HW216761   7.792   5.004  11.165
71663SOL     OW16762  10.086  12.419   7.069
71663SOL    HW116763  10.180  12.412   7.052
71663SOL    HW216764  10.045  12.410   6.983
71664SOL     OW16765  10.805  10.561   7.871
71664SOL    HW116766  10.810  10.537   7.779
71664SOL    HW216767  10.890  10.599   7.891
71665SOL     OW16768   6.945   4.359  10.752
71665SOL    HW116769   6.906   4.446  10.745
71665SOL    HW216770   6.926   4.331  10.842
71666SOL     OW16771   6.099   8.078  10.166
71666SOL    HW116772   6.043   8.139  10.215
71666SOL    HW216773   6.182   8.080  10.213
71667SOL     OW16774   0.825  11.363  10.437
71667SOL    HW116775   0.908  11.338  10.396
71667SOL    HW216776   0.760  11.351  10.369
71668SOL     OW16777  13.598   8.736  12.028
71668SOL    HW116778  13.582   8.676  11.955
71668SOL    HW216779  13.693   8.740  12.035
71669SOL     OW16780   5.154  12.876   1.516
71669SOL    HW116781   5.239  12.862   1.557
71669SOL    HW216782   5.093  12.822   1.568
71670SOL     OW16783   3.781   3.264   4.993
71670SOL    HW116784   3.840   3.220   5.055
71670SOL    HW216785   3.694   3.251   5.031
71671SOL     OW16786   0.671   5.827  13.848
71671SOL    HW116787   0.593   5.863  13.805
71671SOL    HW216788   0.741   5.889  13.827
71672SOL     OW16789  10.736   9.673   6.291
71672SOL    HW116790  10.799   9.666   6.219
71672SOL    HW216791  10.656   9.634   6.257
71673SOL     OW16792  13.799   4.756   7.580
71673SOL    HW116793  13.888   4.736   7.551
71673SOL    HW216794  13.811   4.808   7.660
71674SOL     OW16795  11.202  10.547   5.178
71674SOL    HW116796  11.185  10.553   5.084
71674SOL    HW216797  11.226  10.455   5.193
71675SOL     OW16798  10.804  14.643   5.959
71675SOL    HW116799  10.760  14.699   5.896
71675SOL    HW216800  10.772  14.673   6.044
71676SOL     OW16801   5.480  10.906   0.397
71676SOL    HW116802   5.496  10.875   0.487
71676SOL    HW216803   5.474  10.827   0.345
71677SOL     OW16804  11.823  13.464   9.842
71677SOL    HW116805  11.912  13.433   9.862
71677SOL    HW216806  11.835  13.554   9.813
71678SOL     OW16807   8.105   0.465  11.221
71678SOL    HW116808   8.171   0.483  11.288
71678SOL    HW216809   8.154   0.447  11.142
71679SOL     OW16810   3.110   4.862   4.531
71679SOL    HW116811   3.135   4.929   4.467
71679SOL    HW216812   3.132   4.901   4.616
71680SOL     OW16813   8.863   6.423   1.589
71680SOL    HW116814   8.880   6.381   1.505
71680SOL    HW216815   8.801   6.494   1.569
71681SOL     OW16816  13.489   4.249  12.968
71681SOL    HW116817  13.450   4.286  13.047
71681SOL    HW216818  13.529   4.324  12.923
71682SOL     OW16819   0.994   5.123   2.668
71682SOL    HW116820   1.025   5.203   2.625
71682SOL    HW216821   0.966   5.066   2.596
71683SOL     OW16822   3.900   3.215   6.386
71683SOL    HW116823   3.821   3.262   6.413
71683SOL    HW216824   3.924   3.254   6.302
71684SOL     OW16825  12.330   6.524   5.271
71684SOL    HW116826  12.304   6.594   5.332
71684SOL    HW216827  12.407   6.484   5.312
71685SOL     OW16828   2.855   9.971  14.760
71685SOL    HW116829   2.806  10.041  14.803
71685SOL    HW216830   2.843   9.895  14.817
71686SOL     OW16831  14.301  11.993   3.511
71686SOL    HW116832  14.328  11.959   3.596
71686SOL    HW216833  14.372  11.968   3.452
71687SOL     OW16834   8.814   1.200  10.406
71687SOL    HW116835   8.906   1.222  10.424
71687SOL    HW216836   8.777   1.181  10.493
71688SOL     OW16837   2.528   2.600  12.134
71688SOL    HW116838   2.568   2.538  12.073
71688SOL    HW216839   2.434   2.592  12.119
71689SOL     OW16840   7.978   7.492   3.393
71689SOL    HW116841   7.990   7.400   3.416
71689SOL    HW216842   7.888   7.496   3.360
71690SOL     OW16843   9.161  12.911   5.125
71690SOL    HW116844   9.184  12.971   5.054
71690SOL    HW216845   9.207  12.830   5.104
71691SOL     OW16846  13.664   0.652   4.039
71691SOL    HW116847  13.718   0.591   3.988
71691SOL    HW216848  13.590   0.600   4.068
71692SOL     OW16849  12.340  11.055   4.817
71692SOL    HW116850  12.393  11.129   4.846
71692SOL    HW216851  12.370  10.982   4.872
71693SOL     OW16852   1.819   4.283   0.863
71693SOL    HW116853   1.862   4.201   0.886
71693SOL    HW216854   1.877   4.351   0.897
71694SOL     OW16855   8.816   1.352  10.782
71694SOL    HW116856   8.806   1.330  10.875
71694SOL    HW216857   8.906   1.386  10.776
71695SOL     OW16858   6.413   8.169   6.422
71695SOL    HW116859   6.458   8.089   6.449
71695SOL    HW216860   6.437   8.233   6.488
71696SOL     OW16861   8.126   1.646   1.194
71696SOL    HW116862   8.106   1.560   1.159
71696SOL    HW216863   8.063   1.705   1.151
71697SOL     OW16864   2.970   9.275   4.674
71697SOL    HW116865   3.045   9.298   4.619
71697SOL    HW216866   2.971   9.179   4.676
71698SOL     OW16867  14.638   1.238  10.976
71698SOL    HW116868  14.661   1.321  11.018
71698SOL    HW216869  14.567   1.203  11.030
71699SOL     OW16870   9.599   8.425   4.780
71699SOL    HW116871   9.631   8.443   4.869
71699SOL    HW216872   9.650   8.484   4.724
71700SOL     OW16873  11.625   7.427   4.003
71700SOL    HW116874  11.683   7.355   3.978
71700SOL    HW216875  11.683   7.501   4.018
71701SOL     OW16876   9.025   3.248   0.563
71701SOL    HW116877   9.021   3.196   0.482
71701SOL    HW216878   9.036   3.338   0.532
71702SOL     OW16879  12.804   2.027   4.198
71702SOL    HW116880  12.753   1.970   4.254
71702SOL    HW216881  12.894   1.996   4.207
71703SOL     OW16882   5.900  13.333   9.906
71703SOL    HW116883   5.993  13.337   9.930
71703SOL    HW216884   5.900  13.335   9.811
71704SOL     OW16885  11.575  12.758  13.948
71704SOL    HW116886  11.628  12.825  13.991
71704SOL    HW216887  11.556  12.793  13.862
71705SOL     OW16888  12.138   2.233  13.376
71705SOL    HW116889  12.137   2.153  13.324
71705SOL    HW216890  12.068   2.286  13.339
71706SOL     OW16891   5.403   7.508  12.176
71706SOL    HW116892   5.467   7.497  12.106
71706SOL    HW216893   5.415   7.432  12.232
71707SOL     OW16894   4.500   3.059   7.390
71707SOL    HW116895   4.482   3.151   7.373
71707SOL    HW216896   4.477   3.046   7.482
71708SOL     OW16897   2.890  13.590   9.981
71708SOL    HW116898   2.950  13.643   9.929
71708SOL    HW216899   2.808  13.641   9.982
71709SOL     OW16900   6.429  12.772   1.574
71709SOL    HW116901   6.426  12.769   1.478
71709SOL    HW216902   6.454  12.684   1.600
71710SOL     OW16903   0.864  11.602   2.317
71710SOL    HW116904   0.806  11.626   2.244
71710SOL    HW216905   0.810  11.616   2.395
71711SOL     OW16906  12.579  13.742  13.066
71711SOL    HW116907  12.650  13.678  13.065
71711SOL    HW216908  12.514  13.707  13.005
71712SOL     OW16909   9.897   9.995   7.375
71712SOL    HW116910   9.989   9.996   7.403
71712SOL    HW216911   9.847  10.016   7.454
71713SOL     OW16912   0.357   3.941   6.389
71713SOL    HW116913   0.442   3.960   6.428
71713SOL    HW216914   0.329   4.024   6.349
71714SOL     OW16915   5.990   7.423  10.161
71714SOL    HW116916   5.904   7.389  10.138
71714SOL    HW216917   5.979   7.518  10.165
71715SOL     OW16918   9.440   8.199  10.116
71715SOL    HW116919   9.506   8.220  10.050
71715SOL    HW216920   9.368   8.160  10.066
71716SOL     OW16921   7.007  12.341  12.061
71716SOL    HW116922   7.034  12.365  11.972
71716SOL    HW216923   7.070  12.386  12.118
71717SOL     OW16924  12.400   0.812  14.875
71717SOL    HW116925  12.381   0.844   0.085
71717SOL    HW216926  12.494   0.792  14.876
71718SOL     OW16927  14.234   9.130   7.692
71718SOL    HW116928  14.239   9.210   7.746
71718SOL    HW216929  14.280   9.064   7.743
71719SOL     OW16930   6.438   8.367   4.355
71719SOL    HW116931   6.370   8.410   4.303
71719SOL    HW216932   6.397   8.354   4.441
71720SOL     OW16933   7.615   7.698   0.704
71720SOL    HW116934   7.696   7.725   0.660
71720SOL    HW216935   7.613   7.750   0.784
71721SOL     OW16936   4.079   7.824   2.465
71721SOL    HW116937   4.054   7.916   2.466
71721SOL    HW216938   4.160   7.821   2.415
71722SOL     OW16939   0.298  10.712  11.438
71722SOL    HW116940   0.328  10.640  11.493
71722SOL    HW216941   0.282  10.673  11.353
71723SOL     OW16942   6.338  13.135  13.756
71723SOL    HW116943   6.333  13.143  13.851
71723SOL    HW216944   6.252  13.101  13.730
71724SOL     OW16945  12.360   9.849   6.430
71724SOL    HW116946  12.345   9.773   6.374
71724SOL    HW216947  12.371   9.813   6.518
71725SOL     OW16948  13.326   7.392  11.839
71725SOL    HW116949  13.355   7.367  11.927
71725SOL    HW216950  13.266   7.465  11.854
71726SOL     OW16951   3.497   3.221  13.899
71726SOL    HW116952   3.490   3.314  13.921
71726SOL    HW216953   3.591   3.206  13.885
71727SOL     OW16954   6.220  12.384  14.051
71727SOL    HW116955   6.169  12.427  13.983
71727SOL    HW216956   6.302  12.360  14.008
71728SOL     OW16957   4.087   4.870   4.443
71728SOL    HW116958   4.003   4.881   4.398
71728SOL    HW216959   4.109   4.957   4.476
71729SOL     OW16960   8.156   3.219   9.357
71729SOL    HW116961   8.250   3.235   9.349
71729SOL    HW216962   8.141   3.139   9.306
71730SOL     OW16963   0.756  12.021  14.475
71730SOL    HW116964   0.673  11.990  14.439
71730SOL    HW216965   0.822  11.994  14.412
71731SOL     OW16966   1.923   6.406   0.774
71731SOL    HW116967   1.900   6.395   0.681
71731SOL    HW216968   1.841   6.392   0.821
71732SOL     OW16969   4.743  11.675  11.748
71732SOL    HW116970   4.801  11.706  11.679
71732SOL    HW216971   4.666  11.732  11.742
71733SOL     OW16972   0.311   5.206   5.707
71733SOL    HW116973   0.324   5.113   5.691
71733SOL    HW216974   0.334   5.249   5.625
71734SOL     OW16975   5.426   6.677   6.339
71734SOL    HW116976   5.508   6.717   6.369
71734SOL    HW216977   5.453   6.612   6.275
71735SOL     OW16978   0.445   7.452  10.846
71735SOL    HW116979   0.522   7.493  10.885
71735SOL    HW216980   0.478   7.372  10.804
71736SOL     OW16981  10.097  10.925   1.442
71736SOL    HW116982  10.068  10.914   1.533
71736SOL    HW216983  10.053  10.856   1.394
71737SOL     OW16984   0.337  10.815  14.504
71737SOL    HW116985   0.387  10.877  14.557
71737SOL    HW216986   0.331  10.737  14.559
71738SOL     OW16987  10.187   0.837  13.472
71738SOL    HW116988  10.172   0.931  13.472
71738SOL    HW216989  10.111   0.800  13.517
71739SOL     OW16990  11.625  13.714   9.568
71739SOL    HW116991  11.667  13.628   9.575
71739SOL    HW216992  11.695  13.771   9.534
71740SOL     OW16993  10.632   5.960   6.030
71740SOL    HW116994  10.711   5.967   6.084
71740SOL    HW216995  10.644   5.880   5.980
71741SOL     OW16996   8.484   8.564  14.644
71741SOL    HW116997   8.420   8.582  14.713
71741SOL    HW216998   8.556   8.520  14.688
71742SOL     OW16999   2.921   1.046  12.912
71742SOL    HW117000   2.847   1.035  12.852
71742SOL    HW217001   2.976   0.969  12.898
71743SOL     OW17002  10.654  14.395   7.934
71743SOL    HW117003  10.576  14.446   7.957
71743SOL    HW217004  10.620  14.308   7.913
71744SOL     OW17005   5.117   5.162   1.259
71744SOL    HW117006   5.047   5.147   1.196
71744SOL    HW217007   5.100   5.099   1.329
71745SOL     OW17008   3.936   3.352   3.090
71745SOL    HW117009   4.010   3.294   3.070
71745SOL    HW217010   3.974   3.424   3.140
71746SOL     OW17011  12.545   4.685   6.089
71746SOL    HW117012  12.568   4.643   6.006
71746SOL    HW217013  12.531   4.777   6.066
71747SOL     OW17014  13.871   6.127  10.711
71747SOL    HW117015  13.924   6.060  10.668
71747SOL    HW217016  13.906   6.210  10.678
71748SOL     OW17017   4.129   0.892   6.049
71748SOL    HW117018   4.182   0.813   6.037
71748SOL    HW217019   4.041   0.859   6.070
71749SOL     OW17020   0.822   5.835   4.623
71749SOL    HW117021   0.880   5.897   4.669
71749SOL    HW217022   0.781   5.888   4.554
71750SOL     OW17023  10.427  12.524   3.581
71750SOL    HW117024  10.389  12.604   3.544
71750SOL    HW217025  10.393  12.453   3.528
71751SOL     OW17026   9.933   3.478   8.686
71751SOL    HW117027   9.860   3.504   8.742
71751SOL    HW217028   9.984   3.418   8.740
71752SOL     OW17029   5.038   3.213   2.722
71752SOL    HW117030   5.123   3.178   2.695
71752SOL    HW217031   5.037   3.201   2.817
71753SOL     OW17032   6.304   3.469  12.482
71753SOL    HW117033   6.265   3.385  12.503
71753SOL    HW217034   6.264   3.495  12.399
71754SOL     OW17035  11.236   3.980   2.934
71754SOL    HW117036  11.233   3.891   2.968
71754SOL    HW217037  11.197   4.033   3.004
71755SOL     OW17038   3.496   3.424   7.006
71755SOL    HW117039   3.572   3.422   7.064
71755SOL    HW217040   3.520   3.365   6.934
71756SOL     OW17041   2.286   7.506   9.865
71756SOL    HW117042   2.208   7.452   9.884
71756SOL    HW217043   2.304   7.490   9.772
71757SOL     OW17044   6.069   9.614  11.740
71757SOL    HW117045   6.164   9.604  11.752
71757SOL    HW217046   6.030   9.558  11.807
71758SOL     OW17047   0.173  14.145  12.647
71758SOL    HW117048   0.125  14.092  12.710
71758SOL    HW217049   0.155  14.105  12.562
71759SOL     OW17050   7.351   5.194   9.876
71759SOL    HW117051   7.279   5.148   9.832
71759SOL    HW217052   7.410   5.218   9.805
71760SOL     OW17053   3.229   0.318  10.184
71760SOL    HW117054   3.279   0.246  10.145
71760SOL    HW217055   3.291   0.360  10.244
71761SOL     OW17056   0.464   5.401   5.882
71761SOL    HW117057   0.389   5.460   5.893
71761SOL    HW217058   0.439   5.342   5.811
71762SOL     OW17059  12.208   1.434  12.657
71762SOL    HW117060  12.176   1.345  12.641
71762SOL    HW217061  12.154   1.466  12.730
71763SOL     OW17062  10.408   8.640   2.157
71763SOL    HW117063  10.352   8.588   2.099
71763SOL    HW217064  10.456   8.575   2.209
71764SOL     OW17065  14.142   9.928  12.916
71764SOL    HW117066  14.162  10.012  12.957
71764SOL    HW217067  14.140   9.865  12.988
71765SOL     OW17068   7.450  13.703  11.139
71765SOL    HW117069   7.487  13.707  11.051
71765SOL    HW217070   7.455  13.610  11.162
71766SOL     OW17071   6.570   4.963  11.941
71766SOL    HW117072   6.665   4.969  11.956
71766SOL    HW217073   6.537   5.051  11.958
71767SOL     OW17074  12.482   2.752   7.802
71767SOL    HW117075  12.396   2.716   7.823
71767SOL    HW217076  12.515   2.696   7.731
71768SOL     OW17077   2.503  14.403  13.366
71768SOL    HW117078   2.533  14.339  13.431
71768SOL    HW217079   2.520  14.488  13.407
71769SOL     OW17080  14.877  13.776   4.271
71769SOL    HW117081  14.871  13.810   4.360
71769SOL    HW217082   0.073  13.822   4.232
71770SOL     OW17083  14.244   0.917   0.132
71770SOL    HW117084  14.239   0.873   0.217
71770SOL    HW217085  14.186   0.867   0.076
71771SOL     OW17086  11.805   4.456  13.966
71771SOL    HW117087  11.789   4.450  13.872
71771SOL    HW217088  11.872   4.524  13.975
71772SOL     OW17089   2.127   1.153   9.134
71772SOL    HW117090   2.094   1.228   9.084
71772SOL    HW217091   2.064   1.083   9.117
71773SOL     OW17092   1.152  11.243  12.897
71773SOL    HW117093   1.089  11.304  12.859
71773SOL    HW217094   1.237  11.273  12.864
71774SOL     OW17095   1.016   4.198  13.565
71774SOL    HW117096   0.998   4.292  13.569
71774SOL    HW217097   1.002   4.175  13.473
71775SOL     OW17098  11.354   8.641   9.692
71775SOL    HW117099  11.443   8.621   9.664
71775SOL    HW217100  11.342   8.589   9.772
71776SOL     OW17101   7.983  13.407  14.652
71776SOL    HW117102   7.899  13.445  14.677
71776SOL    HW217103   7.993  13.428  14.559
71777SOL     OW17104   4.982   6.442  11.517
71777SOL    HW117105   4.935   6.408  11.440
71777SOL    HW217106   5.074   6.444  11.490
71778SOL     OW17107   2.294   6.899  12.332
71778SOL    HW117108   2.364   6.839  12.308
71778SOL    HW217109   2.332   6.986  12.322
71779SOL     OW17110   5.386   2.766   2.138
71779SOL    HW117111   5.470   2.753   2.183
71779SOL    HW217112   5.409   2.818   2.061
71780SOL     OW17113   0.054  10.867  11.158
71780SOL    HW117114   0.142  10.904  11.165
71780SOL    HW217115   0.065  10.775  11.179
71781SOL     OW17116  11.691   9.209  11.866
71781SOL    HW117117  11.764   9.262  11.899
71781SOL    HW217118  11.729   9.157  11.795
71782SOL     OW17119   9.035   0.597  13.246
71782SOL    HW117120   9.020   0.552  13.163
71782SOL    HW217121   9.123   0.635  13.237
71783SOL     OW17122  11.787   9.017  10.779
71783SOL    HW117123  11.768   9.099  10.824
71783SOL    HW217124  11.846   8.970  10.838
71784SOL     OW17125   8.278  14.251   2.991
71784SOL    HW117126   8.275  14.265   2.896
71784SOL    HW217127   8.213  14.182   3.006
71785SOL     OW17128   6.339   1.602  13.522
71785SOL    HW117129   6.262   1.579  13.472
71785SOL    HW217130   6.308   1.612  13.612
71786SOL     OW17131   8.758   9.974   1.624
71786SOL    HW117132   8.851   9.985   1.604
71786SOL    HW217133   8.734   9.893   1.579
71787SOL     OW17134  10.946  12.701  14.240
71787SOL    HW117135  10.999  12.656  14.174
71787SOL    HW217136  11.009  12.732  14.305
71788SOL     OW17137   8.757   4.752   8.124
71788SOL    HW117138   8.786   4.716   8.041
71788SOL    HW217139   8.721   4.678   8.172
71789SOL     OW17140  11.538   1.055  13.465
71789SOL    HW117141  11.496   1.003  13.533
71789SOL    HW217142  11.631   1.055  13.489
71790SOL     OW17143  12.579  10.174   0.363
71790SOL    HW117144  12.502  10.193   0.309
71790SOL    HW217145  12.609  10.088   0.332
71791SOL     OW17146  12.617   3.321  13.043
71791SOL    HW117147  12.680   3.354  13.106
71791SOL    HW217148  12.575   3.399  13.007
71792SOL     OW17149   9.206  14.536   5.584
71792SOL    HW117150   9.293  14.497   5.593
71792SOL    HW217151   9.199  14.558   5.492
71793SOL     OW17152  14.136   6.846   2.960
71793SOL    HW117153  14.228   6.831   2.980
71793SOL    HW217154  14.137   6.887   2.873
71794SOL     OW17155   6.486  10.832   7.475
71794SOL    HW117156   6.513  10.812   7.385
71794SOL    HW217157   6.456  10.923   7.471
71795SOL     OW17158   7.070   7.911   4.057
71795SOL    HW117159   6.980   7.891   4.031
71795SOL    HW217160   7.083   7.864   4.139
71796SOL     OW17161   0.220   6.412   4.764
71796SOL    HW117162   0.188   6.479   4.825
71796SOL    HW217163   0.141   6.366   4.735
71797SOL     OW17164   0.099  11.186  10.595
71797SOL    HW117165   0.147  11.258  10.554
71797SOL    HW217166   0.020  11.226  10.630
71798SOL     OW17167   7.697  11.064  10.769
71798SOL    HW117168   7.705  11.012  10.689
71798SOL    HW217169   7.756  11.138  10.756
71799SOL     OW17170   3.773  11.343  11.487
71799SOL    HW117171   3.728  11.315  11.407
71799SOL    HW217172   3.780  11.263  11.540
71800SOL     OW17173  11.994   7.786  10.787
71800SOL    HW117174  12.040   7.867  10.762
71800SOL    HW217175  12.037   7.759  10.869
71801SOL     OW17176  14.644   2.515   3.665
71801SOL    HW117177  14.651   2.602   3.704
71801SOL    HW217178  14.655   2.455   3.739
71802SOL     OW17179  14.512   7.313  10.451
71802SOL    HW117180  14.430   7.289  10.494
71802SOL    HW217181  14.525   7.405  10.474
71803SOL     OW17182  14.603   0.270   8.115
71803SOL    HW117183  14.640   0.184   8.133
71803SOL    HW217184  14.614   0.318   8.198
71804SOL     OW17185  11.799   9.362   2.182
71804SOL    HW117186  11.711   9.339   2.211
71804SOL    HW217187  11.857   9.319   2.246
71805SOL     OW17188   6.013   7.691   2.399
71805SOL    HW117189   5.917   7.699   2.395
71805SOL    HW217190   6.028   7.599   2.419
71806SOL     OW17191   4.776   0.435   8.447
71806SOL    HW117192   4.838   0.373   8.409
71806SOL    HW217193   4.705   0.441   8.383
71807SOL     OW17194  10.874   7.661   9.701
71807SOL    HW117195  10.877   7.637   9.793
71807SOL    HW217196  10.795   7.618   9.667
71808SOL     OW17197   3.184   4.691   1.442
71808SOL    HW117198   3.154   4.609   1.403
71808SOL    HW217199   3.124   4.707   1.515
71809SOL     OW17200  11.309   3.933  12.538
71809SOL    HW117201  11.353   4.013  12.567
71809SOL    HW217202  11.363   3.901  12.465
71810SOL     OW17203   8.335   7.015   9.835
71810SOL    HW117204   8.418   7.001   9.789
71810SOL    HW217205   8.338   7.107   9.863
71811SOL     OW17206   0.878  11.819   0.082
71811SOL    HW117207   0.942  11.776   0.139
71811SOL    HW217208   0.904  11.911   0.083
71812SOL     OW17209   2.015   7.133   6.274
71812SOL    HW117210   2.076   7.194   6.316
71812SOL    HW217211   2.040   7.047   6.306
71813SOL     OW17212  13.084   5.080   6.362
71813SOL    HW117213  13.058   5.149   6.301
71813SOL    HW217214  13.018   5.085   6.432
71814SOL     OW17215   5.056   1.629  10.496
71814SOL    HW117216   5.131   1.608  10.551
71814SOL    HW217217   4.990   1.663  10.556
71815SOL     OW17218  14.642   3.179   1.897
71815SOL    HW117219  14.692   3.192   1.977
71815SOL    HW217220  14.612   3.267   1.873
71816SOL     OW17221   6.704   9.367   6.776
71816SOL    HW117222   6.707   9.320   6.859
71816SOL    HW217223   6.779   9.426   6.779
71817SOL     OW17224  10.928  10.082  13.787
71817SOL    HW117225  11.020  10.061  13.804
71817SOL    HW217226  10.921  10.085  13.692
71818SOL     OW17227   7.536  10.185  11.007
71818SOL    HW117228   7.542  10.237  10.927
71818SOL    HW217229   7.625  10.152  11.021
71819SOL     OW17230   6.939   9.569   4.370
71819SOL    HW117231   6.844   9.572   4.380
71819SOL    HW217232   6.965   9.488   4.415
71820SOL     OW17233   0.241  13.349   9.693
71820SOL    HW117234   0.293  13.335   9.771
71820SOL    HW217235   0.289  13.414   9.643
71821SOL     OW17236   3.845   5.363   3.787
71821SOL    HW117237   3.840   5.440   3.842
71821SOL    HW217238   3.869   5.396   3.700
71822SOL     OW17239  12.672  14.447  10.246
71822SOL    HW117240  12.626  14.500  10.311
71822SOL    HW217241  12.762  14.444  10.277
71823SOL     OW17242   0.192  12.199  11.620
71823SOL    HW117243   0.202  12.146  11.542
71823SOL    HW217244   0.101  12.228  11.619
71824SOL     OW17245   9.526   2.258  10.087
71824SOL    HW117246   9.559   2.287  10.172
71824SOL    HW217247   9.601   2.270  10.027
71825SOL     OW17248   6.936  11.634  14.048
71825SOL    HW117249   7.030  11.648  14.035
71825SOL    HW217250   6.894  11.707  14.003
71826SOL     OW17251   1.091  14.656  14.015
71826SOL    HW117252   1.072  14.724  13.949
71826SOL    HW217253   1.132  14.704  14.087
71827SOL     OW17254   4.599  13.406   2.280
71827SOL    HW117255   4.666  13.420   2.347
71827SOL    HW217256   4.573  13.314   2.290
71828SOL     OW17257   1.055  14.482   2.754
71828SOL    HW117258   1.050  14.578   2.762
71828SOL    HW217259   0.966  14.455   2.733
71829SOL     OW17260  12.780   8.185   4.674
71829SOL    HW117261  12.740   8.107   4.712
71829SOL    HW217262  12.848   8.209   4.736
71830SOL     OW17263  14.418  14.802   3.952
71830SOL    HW117264  14.505  14.766   3.966
71830SOL    HW217265  14.391  14.832   4.039
71831SOL     OW17266  13.358   6.238   0.315
71831SOL    HW117267  13.270   6.235   0.276
71831SOL    HW217268  13.389   6.327   0.299
71832SOL     OW17269  10.167  10.326   4.810
71832SOL    HW117270  10.155  10.246   4.860
71832SOL    HW217271  10.236  10.373   4.857
71833SOL     OW17272   1.778  13.737   8.770
71833SOL    HW117273   1.752  13.657   8.815
71833SOL    HW217274   1.786  13.711   8.678
71834SOL     OW17275   7.874  14.804  10.092
71834SOL    HW117276   7.814  14.731  10.108
71834SOL    HW217277   7.961  14.767  10.105
71835SOL     OW17278  12.364   8.966  13.848
71835SOL    HW117279  12.352   8.886  13.898
71835SOL    HW217280  12.327   8.947  13.762
71836SOL     OW17281   9.404   1.797   8.071
71836SOL    HW117282   9.380   1.875   8.021
71836SOL    HW217283   9.491   1.816   8.106
71837SOL     OW17284  14.805   7.464   0.244
71837SOL    HW117285   0.007   7.490   0.291
71837SOL    HW217286  14.830   7.464   0.152
71838SOL     OW17287   4.293  10.156  12.031
71838SOL    HW117288   4.273  10.248  12.049
71838SOL    HW217289   4.388  10.153  12.022
71839SOL     OW17290   2.241  14.513  13.582
71839SOL    HW117291   2.271  14.439  13.529
71839SOL    HW217292   2.206  14.473  13.662
71840SOL     OW17293   4.577   9.830  10.326
71840SOL    HW117294   4.653   9.859  10.376
71840SOL    HW217295   4.502   9.867  10.373
71841SOL     OW17296   2.519   2.195   6.313
71841SOL    HW117297   2.459   2.142   6.365
71841SOL    HW217298   2.467   2.225   6.239
71842SOL     OW17299   9.724   2.450   9.441
71842SOL    HW117300   9.737   2.356   9.454
71842SOL    HW217301   9.707   2.485   9.528
71843SOL     OW17302   3.455   5.131  14.824
71843SOL    HW117303   3.480   5.201   0.006
71843SOL    HW217304   3.407   5.175  14.754
71844SOL     OW17305  14.398   4.668   6.408
71844SOL    HW117306  14.429   4.579   6.423
71844SOL    HW217307  14.428   4.717   6.484
71845SOL     OW17308   0.169  12.951   6.890
71845SOL    HW117309   0.164  12.878   6.952
71845SOL    HW217310   0.166  12.909   6.804
71846SOL     OW17311   2.958  12.482   7.637
71846SOL    HW117312   2.919  12.395   7.624
71846SOL    HW217313   2.895  12.543   7.599
71847SOL     OW17314  11.280  11.498   0.307
71847SOL    HW117315  11.348  11.431   0.302
71847SOL    HW217316  11.248  11.493   0.397
71848SOL     OW17317  10.086   1.821   8.818
71848SOL    HW117318  10.154   1.805   8.884
71848SOL    HW217319  10.051   1.908   8.840
71849SOL     OW17320  14.584  10.550   9.697
71849SOL    HW117321  14.543  10.494   9.631
71849SOL    HW217322  14.513  10.574   9.756
71850SOL     OW17323   2.452  13.338   6.656
71850SOL    HW117324   2.390  13.406   6.684
71850SOL    HW217325   2.506  13.321   6.733
71851SOL     OW17326   3.766  13.636   8.851
71851SOL    HW117327   3.673  13.655   8.860
71851SOL    HW217328   3.785  13.574   8.922
71852SOL     OW17329  11.723   5.922   5.628
71852SOL    HW117330  11.731   5.925   5.723
71852SOL    HW217331  11.768   6.000   5.597
71853SOL     OW17332   0.115   1.712  12.789
71853SOL    HW117333   0.039   1.682  12.740
71853SOL    HW217334   0.153   1.633  12.827
71854SOL     OW17335   3.818   9.007   9.785
71854SOL    HW117336   3.741   8.952   9.797
71854SOL    HW217337   3.869   8.962   9.718
71855SOL     OW17338   6.343  10.553  11.016
71855SOL    HW117339   6.428  10.508  11.019
71855SOL    HW217340   6.278  10.483  11.027
71856SOL     OW17341   0.949  10.370   6.177
71856SOL    HW117342   0.859  10.347   6.151
71856SOL    HW217343   1.002  10.298   6.143
71857SOL     OW17344  10.596   1.037   3.014
71857SOL    HW117345  10.566   1.006   2.929
71857SOL    HW217346  10.608   0.957   3.066
71858SOL     OW17347  11.080   0.752   0.517
71858SOL    HW117348  11.152   0.760   0.579
71858SOL    HW217349  11.078   0.659   0.494
71859SOL     OW17350   0.888  14.639   4.720
71859SOL    HW117351   0.806  14.596   4.694
71859SOL    HW217352   0.947  14.568   4.744
71860SOL     OW17353   8.960   2.472   6.364
71860SOL    HW117354   8.996   2.496   6.279
71860SOL    HW217355   9.037   2.453   6.418
71861SOL     OW17356   5.858  10.608   0.967
71861SOL    HW117357   5.871  10.534   0.908
71861SOL    HW217358   5.859  10.569   1.054
71862SOL     OW17359  13.848   4.012   6.023
71862SOL    HW117360  13.820   3.938   6.077
71862SOL    HW217361  13.825   3.987   5.934
71863SOL     OW17362   9.978   6.916   9.713
71863SOL    HW117363   9.928   6.980   9.663
71863SOL    HW217364  10.055   6.899   9.659
71864SOL     OW17365   8.163   4.049   5.340
71864SOL    HW117366   8.185   4.121   5.399
71864SOL    HW217367   8.100   4.086   5.279
71865SOL     OW17368  14.128  10.247   7.046
71865SOL    HW117369  14.109  10.341   7.053
71865SOL    HW217370  14.222  10.240   7.064
71866SOL     OW17371  13.402   4.557   5.113
71866SOL    HW117372  13.470   4.510   5.064
71866SOL    HW217373  13.337   4.490   5.133
71867SOL     OW17374   7.578   0.968   6.676
71867SOL    HW117375   7.520   0.974   6.599
71867SOL    HW217376   7.546   0.892   6.724
71868SOL     OW17377  12.284   5.737   7.380
71868SOL    HW117378  12.214   5.761   7.442
71868SOL    HW217379  12.273   5.643   7.368
71869SOL     OW17380   4.157  10.428   9.144
71869SOL    HW117381   4.193  10.490   9.206
71869SOL    HW217382   4.126  10.481   9.071
71870SOL     OW17383   8.670  14.825   7.915
71870SOL    HW117384   8.746  14.771   7.934
71870SOL    HW217385   8.601  14.762   7.893
71871SOL     OW17386   9.664   4.742  13.211
71871SOL    HW117387   9.579   4.736  13.255
71871SOL    HW217388   9.651   4.696  13.128
71872SOL     OW17389  10.039   1.259  10.950
71872SOL    HW117390   9.961   1.206  10.969
71872SOL    HW217391  10.036   1.329  11.015
71873SOL     OW17392   7.962   2.666   8.963
71873SOL    HW117393   7.993   2.705   9.045
71873SOL    HW217394   7.948   2.741   8.905
71874SOL     OW17395   2.297   2.149  14.511
71874SOL    HW117396   2.362   2.217  14.529
71874SOL    HW217397   2.226   2.196  14.468
71875SOL     OW17398  10.626  10.599   1.022
71875SOL    HW117399  10.595  10.672   1.076
71875SOL    HW217400  10.594  10.619   0.934
71876SOL     OW17401   9.556  14.698  12.881
71876SOL    HW117402   9.485  14.646  12.919
71876SOL    HW217403   9.541  14.787  12.912
71877SOL     OW17404   8.950   1.140   7.453
71877SOL    HW117405   8.942   1.065   7.394
71877SOL    HW217406   8.989   1.209   7.398
71878SOL     OW17407   6.314   0.314  11.397
71878SOL    HW117408   6.230   0.305  11.440
71878SOL    HW217409   6.303   0.390  11.340
71879SOL     OW17410  12.962   9.953   0.020
71879SOL    HW117411  12.948   9.860   0.038
71879SOL    HW217412  12.939   9.964  14.805
71880SOL     OW17413  13.828   5.095  13.771
71880SOL    HW117414  13.764   5.110  13.701
71880SOL    HW217415  13.887   5.028  13.737
71881SOL     OW17416   3.886  14.637   4.384
71881SOL    HW117417   3.826  14.579   4.431
71881SOL    HW217418   3.830  14.703   4.344
71882SOL     OW17419   5.202  11.956   5.037
71882SOL    HW117420   5.262  11.897   5.083
71882SOL    HW217421   5.115  11.924   5.059
71883SOL     OW17422   0.502   0.451   4.986
71883SOL    HW117423   0.495   0.520   5.052
71883SOL    HW217424   0.554   0.382   5.028
71884SOL     OW17425   4.496  13.500  14.669
71884SOL    HW117426   4.496  13.488  14.764
71884SOL    HW217427   4.574  13.453  14.638
71885SOL     OW17428   7.999  10.725   0.562
71885SOL    HW117429   7.945  10.728   0.641
71885SOL    HW217430   8.034  10.635   0.560
71886SOL     OW17431  10.670   3.178  13.047
71886SOL    HW117432  10.751   3.210  13.086
71886SOL    HW217433  10.635   3.117  13.112
71887SOL     OW17434   7.109   1.007  11.859
71887SOL    HW117435   7.142   1.047  11.940
71887SOL    HW217436   7.141   0.917  11.862
71888SOL     OW17437   8.155   7.560   3.201
71888SOL    HW117438   8.092   7.541   3.271
71888SOL    HW217439   8.234   7.512   3.226
71889SOL     OW17440  14.756   7.406   4.306
71889SOL    HW117441  14.780   7.450   4.224
71889SOL    HW217442  14.664   7.383   4.295
71890SOL     OW17443  11.851   9.875   2.404
71890SOL    HW117444  11.923   9.920   2.361
71890SOL    HW217445  11.840   9.921   2.487
71891SOL     OW17446   5.236  13.245   3.118
71891SOL    HW117447   5.237  13.257   3.213
71891SOL    HW217448   5.279  13.323   3.083
71892SOL     OW17449  14.633  11.650  10.684
71892SOL    HW117450  14.558  11.618  10.733
71892SOL    HW217451  14.655  11.734  10.725
71893SOL     OW17452  12.957   0.261   9.743
71893SOL    HW117453  12.933   0.333   9.802
71893SOL    HW217454  12.906   0.278   9.664
71894SOL     OW17455  12.460  12.228  14.461
71894SOL    HW117456  12.501  12.310  14.489
71894SOL    HW217457  12.527  12.162  14.475
71895SOL     OW17458   0.001   6.399   9.959
71895SOL    HW117459  14.822   6.341  10.010
71895SOL    HW217460   0.017   6.474  10.017
71896SOL     OW17461   8.626   1.287   3.190
71896SOL    HW117462   8.717   1.287   3.160
71896SOL    HW217463   8.618   1.206   3.241
71897SOL     OW17464   2.308  13.286   1.339
71897SOL    HW117465   2.374  13.355   1.343
71897SOL    HW217466   2.337  13.222   1.404
71898SOL     OW17467   2.015   7.313  13.970
71898SOL    HW117468   2.099   7.300  14.014
71898SOL    HW217469   2.007   7.238  13.911
71899SOL     OW17470   6.676   4.781   2.081
71899SOL    HW117471   6.682   4.748   1.991
71899SOL    HW217472   6.750   4.841   2.089
71900SOL     OW17473   4.968   0.558   4.178
71900SOL    HW117474   5.013   0.568   4.094
71900SOL    HW217475   4.917   0.477   4.168
71901SOL     OW17476   2.556   6.372   0.228
71901SOL    HW117477   2.651   6.359   0.233
71901SOL    HW217478   2.545   6.467   0.227
71902SOL     OW17479  11.258   6.990  13.527
71902SOL    HW117480  11.270   6.975  13.433
71902SOL    HW217481  11.344   6.973  13.565
71903SOL     OW17482   1.505   7.289   4.956
71903SOL    HW117483   1.546   7.375   4.957
71903SOL    HW217484   1.533   7.250   4.874
71904SOL     OW17485   3.079   1.859   3.862
71904SOL    HW117486   3.019   1.875   3.936
71904SOL    HW217487   3.034   1.794   3.809
71905SOL     OW17488   0.180   6.393   4.035
71905SOL    HW117489   0.128   6.327   4.081
71905SOL    HW217490   0.115   6.450   3.993
71906SOL     OW17491   8.120   8.422   3.846
71906SOL    HW117492   8.035   8.392   3.879
71906SOL    HW217493   8.183   8.370   3.896
71907SOL     OW17494   3.467   9.282   6.377
71907SOL    HW117495   3.457   9.338   6.300
71907SOL    HW217496   3.541   9.321   6.424
71908SOL     OW17497   6.600  11.424  12.655
71908SOL    HW117498   6.650  11.410  12.575
71908SOL    HW217499   6.555  11.507  12.643
71909SOL     OW17500  11.671  14.034   5.296
71909SOL    HW117501  11.739  14.095   5.268
71909SOL    HW217502  11.670  13.966   5.229
71910SOL     OW17503  11.676   0.259   1.457
71910SOL    HW117504  11.620   0.336   1.451
71910SOL    HW217505  11.762   0.289   1.428
71911SOL     OW17506  13.928  11.709   6.501
71911SOL    HW117507  14.019  11.713   6.471
71911SOL    HW217508  13.901  11.800   6.511
71912SOL     OW17509  10.070  11.752   1.134
71912SOL    HW117510   9.985  11.724   1.102
71912SOL    HW217511  10.072  11.724   1.226
71913SOL     OW17512   5.239   7.440  11.831
71913SOL    HW117513   5.327   7.459  11.863
71913SOL    HW217514   5.250   7.431  11.736
71914SOL     OW17515   0.514   0.724  10.397
71914SOL    HW117516   0.438   0.669  10.376
71914SOL    HW217517   0.541   0.695  10.484
71915SOL     OW17518   6.735   5.018   2.398
71915SOL    HW117519   6.815   5.070   2.394
71915SOL    HW217520   6.711   5.018   2.490
71916SOL     OW17521   2.051   8.018   0.424
71916SOL    HW117522   2.055   8.078   0.499
71916SOL    HW217523   2.069   7.932   0.461
71917SOL     OW17524   6.938  10.668  11.904
71917SOL    HW117525   7.010  10.721  11.869
71917SOL    HW217526   6.938  10.589  11.850
71918SOL     OW17527  12.847   3.479   8.767
71918SOL    HW117528  12.844   3.545   8.698
71918SOL    HW217529  12.762   3.486   8.811
71919SOL     OW17530  11.299   7.226   1.750
71919SOL    HW117531  11.212   7.265   1.753
71919SOL    HW217532  11.359   7.299   1.767
71920SOL     OW17533  12.163  11.091  11.971
71920SOL    HW117534  12.169  11.127  12.059
71920SOL    HW217535  12.166  11.167  11.914
71921SOL     OW17536   5.305   3.513   7.430
71921SOL    HW117537   5.366   3.468   7.488
71921SOL    HW217538   5.222   3.514   7.478
71922SOL     OW17539   5.126  13.181   4.677
71922SOL    HW117540   5.125  13.203   4.770
71922SOL    HW217541   5.045  13.219   4.642
71923SOL     OW17542  13.041  12.709   9.004
71923SOL    HW117543  13.030  12.752   8.919
71923SOL    HW217544  13.086  12.627   8.983
71924SOL     OW17545   4.823   8.625   3.110
71924SOL    HW117546   4.756   8.559   3.123
71924SOL    HW217547   4.793   8.676   3.035
71925SOL     OW17548   4.173  10.119   7.763
71925SOL    HW117549   4.191  10.034   7.724
71925SOL    HW217550   4.098  10.153   7.715
71926SOL     OW17551   0.620  10.819   9.411
71926SOL    HW117552   0.648  10.732   9.440
71926SOL    HW217553   0.620  10.872   9.491
71927SOL     OW17554   2.154  13.004   5.158
71927SOL    HW117555   2.182  12.934   5.099
71927SOL    HW217556   2.229  13.063   5.163
71928SOL     OW17557  12.996   1.152   3.779
71928SOL    HW117558  13.084   1.154   3.741
71928SOL    HW217559  13.010   1.129   3.871
71929SOL     OW17560  10.535   5.117  10.415
71929SOL    HW117561  10.608   5.177  10.432
71929SOL    HW217562  10.569   5.057  10.348
71930SOL     OW17563   9.543   5.278   0.533
71930SOL    HW117564   9.567   5.354   0.480
71930SOL    HW217565   9.627   5.235   0.553
71931SOL     OW17566   9.053   9.892   2.020
71931SOL    HW117567   8.958   9.898   2.032
71931SOL    HW217568   9.076   9.971   1.971
71932SOL     OW17569   4.220   2.200   0.873
71932SOL    HW117570   4.236   2.109   0.847
71932SOL    HW217571   4.164   2.235   0.804
71933SOL     OW17572   7.752  10.735   0.333
71933SOL    HW117573   7.728  10.712   0.423
71933SOL    HW217574   7.834  10.688   0.317
71934SOL     OW17575   8.265   5.857   5.047
71934SOL    HW117576   8.349   5.868   5.002
71934SOL    HW217577   8.246   5.944   5.084
71935SOL     OW17578   5.190   6.004  10.631
71935SOL    HW117579   5.095   5.997  10.624
71935SOL    HW217580   5.221   6.004  10.540
71936SOL     OW17581   7.566   1.790   4.233
71936SOL    HW117582   7.483   1.812   4.277
71936SOL    HW217583   7.613   1.738   4.298
71937SOL     OW17584   7.967   0.366   2.579
71937SOL    HW117585   7.932   0.455   2.580
71937SOL    HW217586   7.920   0.320   2.649
71938SOL     OW17587   5.792   1.980   2.127
71938SOL    HW117588   5.716   1.922   2.131
71938SOL    HW217589   5.807   2.005   2.218
71939SOL     OW17590   1.629   0.583   5.330
71939SOL    HW117591   1.667   0.651   5.274
71939SOL    HW217592   1.620   0.624   5.416
71940SOL     OW17593  10.323   7.921   3.004
71940SOL    HW117594  10.408   7.939   3.043
71940SOL    HW217595  10.297   8.003   2.963
71941SOL     OW17596   7.114   6.301   8.465
71941SOL    HW117597   7.060   6.258   8.398
71941SOL    HW217598   7.201   6.262   8.455
71942SOL     OW17599  12.977   1.070   6.599
71942SOL    HW117600  12.893   1.109   6.621
71942SOL    HW217601  13.040   1.117   6.654
71943SOL     OW17602   4.972  12.324  13.883
71943SOL    HW117603   4.967  12.232  13.859
71943SOL    HW217604   4.888  12.341  13.927
71944SOL     OW17605   4.983   1.164   8.416
71944SOL    HW117606   5.028   1.192   8.336
71944SOL    HW217607   4.998   1.236   8.478
71945SOL     OW17608  14.334   3.900   7.255
71945SOL    HW117609  14.334   3.853   7.339
71945SOL    HW217610  14.250   3.875   7.215
71946SOL     OW17611   4.286   4.002   1.130
71946SOL    HW117612   4.207   4.045   1.161
71946SOL    HW217613   4.353   4.070   1.133
71947SOL     OW17614   6.997   6.399   0.174
71947SOL    HW117615   6.949   6.426   0.253
71947SOL    HW217616   7.073   6.458   0.172
71948SOL     OW17617   4.693  10.795  10.666
71948SOL    HW117618   4.618  10.826  10.717
71948SOL    HW217619   4.655  10.753  10.589
71949SOL     OW17620   4.057   2.323   1.067
71949SOL    HW117621   4.121   2.276   1.013
71949SOL    HW217622   4.039   2.265   1.140
71950SOL     OW17623   8.309   0.782   6.965
71950SOL    HW117624   8.273   0.852   7.020
71950SOL    HW217625   8.284   0.701   7.010
71951SOL     OW17626   0.845   9.525   1.606
71951SOL    HW117627   0.836   9.469   1.683
71951SOL    HW217628   0.916   9.485   1.555
71952SOL     OW17629   4.305   7.538  10.541
71952SOL    HW117630   4.303   7.616  10.597
71952SOL    HW217631   4.391   7.499  10.557
71953SOL     OW17632   2.559   1.774   1.974
71953SOL    HW117633   2.587   1.714   2.043
71953SOL    HW217634   2.487   1.728   1.930
71954SOL     OW17635  10.339  11.157   6.246
71954SOL    HW117636  10.322  11.162   6.152
71954SOL    HW217637  10.392  11.079   6.257
71955SOL     OW17638   3.207   3.948   4.537
71955SOL    HW117639   3.219   3.906   4.452
71955SOL    HW217640   3.113   3.968   4.541
71956SOL     OW17641   8.621   2.544  10.944
71956SOL    HW117642   8.529   2.562  10.964
71956SOL    HW217643   8.669   2.587  11.015
71957SOL     OW17644   8.054  14.336   6.613
71957SOL    HW117645   7.988  14.308   6.676
71957SOL    HW217646   8.022  14.303   6.528
71958SOL     OW17647   4.293   6.975   9.297
71958SOL    HW117648   4.281   6.913   9.225
71958SOL    HW217649   4.339   7.049   9.257
71959SOL     OW17650  13.624   2.875   8.073
71959SOL    HW117651  13.585   2.813   8.012
71959SOL    HW217652  13.716   2.850   8.079
71960SOL     OW17653   6.361   1.273  14.635
71960SOL    HW117654   6.315   1.354  14.613
71960SOL    HW217655   6.434   1.269  14.573
71961SOL     OW17656   7.354   6.100   6.188
71961SOL    HW117657   7.362   6.179   6.241
71961SOL    HW217658   7.276   6.114   6.135
71962SOL     OW17659   1.868   2.859   4.143
71962SOL    HW117660   1.866   2.822   4.054
71962SOL    HW217661   1.908   2.790   4.196
71963SOL     OW17662   4.324   7.772   6.990
71963SOL    HW117663   4.374   7.809   6.918
71963SOL    HW217664   4.370   7.800   7.069
71964SOL     OW17665   7.012  13.025   1.596
71964SOL    HW117666   7.014  13.116   1.626
71964SOL    HW217667   6.920  12.999   1.607
71965SOL     OW17668   7.410  10.851   8.393
71965SOL    HW117669   7.440  10.918   8.454
71965SOL    HW217670   7.480  10.786   8.393
71966SOL     OW17671   4.523   0.571   5.640
71966SOL    HW117672   4.584   0.625   5.690
71966SOL    HW217673   4.479   0.517   5.706
71967SOL     OW17674   1.547   4.036  12.736
71967SOL    HW117675   1.528   3.982  12.660
71967SOL    HW217676   1.624   3.995  12.776
71968SOL     OW17677   9.311   1.645   4.595
71968SOL    HW117678   9.278   1.568   4.549
71968SOL    HW217679   9.360   1.609   4.669
71969SOL     OW17680   8.094   7.013   3.376
71969SOL    HW117681   8.061   6.932   3.337
71969SOL    HW217682   8.161   7.043   3.315
71970SOL     OW17683  10.315  12.026   4.021
71970SOL    HW117684  10.324  12.087   3.949
71970SOL    HW217685  10.395  12.037   4.072
71971SOL     OW17686   7.206  12.462  12.202
71971SOL    HW117687   7.212  12.378  12.248
71971SOL    HW217688   7.296  12.497  12.204
71972SOL     OW17689  10.587   2.596  11.408
71972SOL    HW117690  10.493   2.601  11.390
71972SOL    HW217691  10.607   2.502  11.406
71973SOL     OW17692  11.085   7.367   2.399
71973SOL    HW117693  11.031   7.418   2.458
71973SOL    HW217694  11.023   7.310   2.353
71974SOL     OW17695   2.822  10.976   4.141
71974SOL    HW117696   2.794  11.041   4.206
71974SOL    HW217697   2.906  11.010   4.109
71975SOL     OW17698   9.219  10.365  13.669
71975SOL    HW117699   9.268  10.422  13.610
71975SOL    HW217700   9.185  10.295  13.613
71976SOL     OW17701   0.192   1.357   8.528
71976SOL    HW117702   0.140   1.434   8.551
71976SOL    HW217703   0.241   1.335   8.607
71977SOL     OW17704  10.586   2.326   4.323
71977SOL    HW117705  10.628   2.252   4.279
71977SOL    HW217706  10.637   2.403   4.295
71978SOL     OW17707   9.438   6.348  14.790
71978SOL    HW117708   9.351   6.339  14.751
71978SOL    HW217709   9.422   6.393  14.873
71979SOL     OW17710   0.570   7.626   0.475
71979SOL    HW117711   0.570   7.590   0.564
71979SOL    HW217712   0.639   7.577   0.429
71980SOL     OW17713  11.654   6.630   5.474
71980SOL    HW117714  11.726   6.685   5.506
71980SOL    HW217715  11.696   6.568   5.414
71981SOL     OW17716  10.749   8.631   5.773
71981SOL    HW117717  10.761   8.553   5.826
71981SOL    HW217718  10.799   8.615   5.693
71982SOL     OW17719   8.673  12.400   1.796
71982SOL    HW117720   8.601  12.447   1.753
71982SOL    HW217721   8.733  12.469   1.822
71983SOL     OW17722  10.167   6.618   0.261
71983SOL    HW117723  10.121   6.664   0.331
71983SOL    HW217724  10.163   6.678   0.187
71984SOL     OW17725  14.746   0.783   9.122
71984SOL    HW117726  14.825   0.764   9.173
71984SOL    HW217727  14.729   0.876   9.137
71985SOL     OW17728  12.341   6.045   6.326
71985SOL    HW117729  12.411   6.078   6.270
71985SOL    HW217730  12.312   6.122   6.376
71986SOL     OW17731   4.971   0.528  13.660
71986SOL    HW117732   4.997   0.573  13.740
71986SOL    HW217733   4.888   0.486  13.683
71987SOL     OW17734  13.463   1.563  13.449
71987SOL    HW117735  13.481   1.469  13.450
71987SOL    HW217736  13.425   1.579  13.362
71988SOL     OW17737   1.138  11.260   0.578
71988SOL    HW117738   1.066  11.221   0.528
71988SOL    HW217739   1.211  11.200   0.564
71989SOL     OW17740   9.976   7.539  11.922
71989SOL    HW117741   9.933   7.601  11.862
71989SOL    HW217742   9.966   7.579  12.008
71990SOL     OW17743  10.224   2.046   4.349
71990SOL    HW117744  10.150   2.071   4.404
71990SOL    HW217745  10.297   2.097   4.384
71991SOL     OW17746   0.978   6.638  11.194
71991SOL    HW117747   1.058   6.686  11.172
71991SOL    HW217748   0.947   6.679  11.275
71992SOL     OW17749  13.755   9.579   3.971
71992SOL    HW117750  13.702   9.510   4.011
71992SOL    HW217751  13.804   9.534   3.902
71993SOL     OW17752   6.459   7.822   1.453
71993SOL    HW117753   6.448   7.897   1.393
71993SOL    HW217754   6.392   7.760   1.426
71994SOL     OW17755  14.641   7.296   0.598
71994SOL    HW117756  14.630   7.362   0.666
71994SOL    HW217757  14.617   7.341   0.517
71995SOL     OW17758   1.815   6.892   5.960
71995SOL    HW117759   1.872   6.879   5.884
71995SOL    HW217760   1.820   6.986   5.977
71996SOL     OW17761   1.594   3.833  11.673
71996SOL    HW117762   1.535   3.778  11.622
71996SOL    HW217763   1.597   3.916  11.626
71997SOL     OW17764  11.050   6.394   1.856
71997SOL    HW117765  11.099   6.369   1.777
71997SOL    HW217766  11.114   6.391   1.926
71998SOL     OW17767   8.504  13.918   2.129
71998SOL    HW117768   8.412  13.894   2.134
71998SOL    HW217769   8.529  13.935   2.220
71999SOL     OW17770  12.506   6.692  11.917
71999SOL    HW117771  12.583   6.730  11.960
71999SOL    HW217772  12.508   6.600  11.941
72000SOL     OW17773   4.662   4.200   0.075
72000SOL    HW117774   4.605   4.199  14.876
72000SOL    HW217775   4.749   4.180   0.042
72001SOL     OW17776   6.277  10.135  12.484
72001SOL    HW117777   6.201  10.153  12.429
72001SOL    HW217778   6.316  10.056  12.447
72002SOL     OW17779  11.645   4.937   4.662
72002SOL    HW117780  11.655   5.032   4.656
72002SOL    HW217781  11.572   4.917   4.603
72003SOL     OW17782  11.953   8.529  12.988
72003SOL    HW117783  11.869   8.482  12.984
72003SOL    HW217784  11.990   8.503  13.073
72004SOL     OW17785   6.811   6.177   1.460
72004SOL    HW117786   6.873   6.150   1.527
72004SOL    HW217787   6.764   6.096   1.437
72005SOL     OW17788   7.972  13.469   0.485
72005SOL    HW117789   7.878  13.456   0.492
72005SOL    HW217790   7.988  13.477   0.391
72006SOL     OW17791  11.211  12.502   8.952
72006SOL    HW117792  11.198  12.582   9.003
72006SOL    HW217793  11.170  12.433   9.005
72007SOL     OW17794  14.087   1.298   2.277
72007SOL    HW117795  14.080   1.211   2.237
72007SOL    HW217796  14.087   1.358   2.203
72008SOL     OW17797  11.290   4.911  13.000
72008SOL    HW117798  11.275   4.840  13.062
72008SOL    HW217799  11.229   4.894  12.928
72009SOL     OW17800   1.376   8.713   9.579
72009SOL    HW117801   1.413   8.658   9.649
72009SOL    HW217802   1.283   8.691   9.578
72010SOL     OW17803   7.609   9.198   3.005
72010SOL    HW117804   7.522   9.206   3.043
72010SOL    HW217805   7.669   9.211   3.078
72011SOL     OW17806   4.464   7.489   0.497
72011SOL    HW117807   4.370   7.482   0.483
72011SOL    HW217808   4.478   7.580   0.522
72012SOL     OW17809   6.904  10.085   2.334
72012SOL    HW117810   6.825  10.130   2.303
72012SOL    HW217811   6.952  10.064   2.254
72013SOL     OW17812   6.820   5.556   8.361
72013SOL    HW117813   6.900   5.536   8.312
72013SOL    HW217814   6.753   5.569   8.293
72014SOL     OW17815   3.769   5.507   8.518
72014SOL    HW117816   3.730   5.591   8.493
72014SOL    HW217817   3.848   5.531   8.567
72015SOL     OW17818   7.501  13.874   3.869
72015SOL    HW117819   7.497  13.791   3.917
72015SOL    HW217820   7.592  13.880   3.839
72016SOL     OW17821  11.915   6.100  13.921
72016SOL    HW117822  12.005   6.098  13.954
72016SOL    HW217823  11.891   6.008  13.910
72017SOL     OW17824   3.646   5.469  13.182
72017SOL    HW117825   3.708   5.402  13.155
72017SOL    HW217826   3.564   5.445  13.140
72018SOL     OW17827   8.860  12.338  13.052
72018SOL    HW117828   8.942  12.303  13.015
72018SOL    HW217829   8.804  12.352  12.976
72019SOL     OW17830   4.246  12.536  12.215
72019SOL    HW117831   4.241  12.518  12.309
72019SOL    HW217832   4.335  12.566  12.200
72020SOL     OW17833   1.506   0.769  12.205
72020SOL    HW117834   1.592   0.734  12.185
72020SOL    HW217835   1.447   0.725  12.143
72021SOL     OW17836   8.925  11.209   6.296
72021SOL    HW117837   8.979  11.133   6.275
72021SOL    HW217838   8.861  11.214   6.225
72022SOL     OW17839   7.726  11.618   7.909
72022SOL    HW117840   7.632  11.608   7.920
72022SOL    HW217841   7.756  11.532   7.880
72023SOL     OW17842  14.001   5.615   7.698
72023SOL    HW117843  14.090   5.646   7.680
72023SOL    HW217844  14.012   5.524   7.725
72024SOL     OW17845   0.376  10.734  12.058
72024SOL    HW117846   0.411  10.736  11.969
72024SOL    HW217847   0.436  10.788  12.109
72025SOL     OW17848   2.650   9.704   5.700
72025SOL    HW117849   2.653   9.701   5.604
72025SOL    HW217850   2.739   9.685   5.727
72026SOL     OW17851   5.556   8.393   8.949
72026SOL    HW117852   5.568   8.487   8.961
72026SOL    HW217853   5.599   8.354   9.026
72027SOL     OW17854   0.416   2.403   6.911
72027SOL    HW117855   0.442   2.311   6.911
72027SOL    HW217856   0.493   2.450   6.879
72028SOL     OW17857  10.030   5.310   5.798
72028SOL    HW117858   9.974   5.385   5.777
72028SOL    HW217859  10.080   5.294   5.718
72029SOL     OW17860   4.558   0.826   2.787
72029SOL    HW117861   4.633   0.768   2.802
72029SOL    HW217862   4.574   0.863   2.700
72030SOL     OW17863   3.441  14.446   1.552
72030SOL    HW117864   3.529  14.429   1.517
72030SOL    HW217865   3.444  14.413   1.642
72031SOL     OW17866   7.584  14.434   9.104
72031SOL    HW117867   7.641  14.496   9.058
72031SOL    HW217868   7.549  14.483   9.178
72032SOL     OW17869   2.603   9.912   4.451
72032SOL    HW117870   2.524   9.962   4.432
72032SOL    HW217871   2.673   9.977   4.457
72033SOL     OW17872   7.839   3.061   9.354
72033SOL    HW117873   7.818   3.154   9.347
72033SOL    HW217874   7.934   3.057   9.340
72034SOL     OW17875  11.968  11.674   6.938
72034SOL    HW117876  12.046  11.695   6.886
72034SOL    HW217877  11.982  11.583   6.966
72035SOL     OW17878  13.512   5.174   3.641
72035SOL    HW117879  13.502   5.111   3.570
72035SOL    HW217880  13.423   5.190   3.672
72036SOL     OW17881   6.296  12.225   7.781
72036SOL    HW117882   6.374  12.194   7.827
72036SOL    HW217883   6.275  12.308   7.823
72037SOL     OW17884  11.117   0.312   1.147
72037SOL    HW117885  11.065   0.318   1.067
72037SOL    HW217886  11.208   0.322   1.118
72038SOL     OW17887   0.784   4.312   4.113
72038SOL    HW117888   0.716   4.373   4.139
72038SOL    HW217889   0.858   4.367   4.090
72039SOL     OW17890   6.007   1.905  14.089
72039SOL    HW117891   5.997   1.993  14.052
72039SOL    HW217892   5.922   1.864  14.075
72040SOL     OW17893   9.122   8.277  11.660
72040SOL    HW117894   9.154   8.301  11.573
72040SOL    HW217895   9.058   8.345  11.682
72041SOL     OW17896   2.345   7.459   2.084
72041SOL    HW117897   2.347   7.466   2.180
72041SOL    HW217898   2.392   7.378   2.065
72042SOL     OW17899   6.143  10.951   6.678
72042SOL    HW117900   6.123  10.876   6.622
72042SOL    HW217901   6.065  11.007   6.671
72043SOL     OW17902   9.064  14.044   7.351
72043SOL    HW117903   8.980  14.039   7.305
72043SOL    HW217904   9.117  13.974   7.312
72044SOL     OW17905   5.525   3.133  12.478
72044SOL    HW117906   5.496   3.221  12.500
72044SOL    HW217907   5.618   3.144  12.455
72045SOL     OW17908   7.960   6.428  12.846
72045SOL    HW117909   7.927   6.516  12.826
72045SOL    HW217910   8.024   6.411  12.777
72046SOL     OW17911  11.717  11.076  14.169
72046SOL    HW117912  11.689  11.138  14.101
72046SOL    HW217913  11.667  11.102  14.247
72047SOL     OW17914   3.765   0.543   6.282
72047SOL    HW117915   3.702   0.613   6.299
72047SOL    HW217916   3.768   0.494   6.365
72048SOL     OW17917   1.255   1.235  14.747
72048SOL    HW117918   1.248   1.194  14.661
72048SOL    HW217919   1.210   1.319  14.738
72049SOL     OW17920  13.149   7.477   6.590
72049SOL    HW117921  13.082   7.497   6.525
72049SOL    HW217922  13.103   7.481   6.674
72050SOL     OW17923  11.607   4.554   9.951
72050SOL    HW117924  11.598   4.649   9.953
72050SOL    HW217925  11.523   4.522   9.919
72051SOL     OW17926   9.395  14.319  13.090
72051SOL    HW117927   9.488  14.309  13.110
72051SOL    HW217928   9.350  14.269  13.158
72052SOL     OW17929   8.443  13.251  10.271
72052SOL    HW117930   8.494  13.287  10.199
72052SOL    HW217931   8.377  13.196  10.229
72053SOL     OW17932  11.383   3.461  10.914
72053SOL    HW117933  11.317   3.425  10.855
72053SOL    HW217934  11.417   3.538  10.868
72054SOL     OW17935  12.713  11.077   0.529
72054SOL    HW117936  12.785  11.080   0.593
72054SOL    HW217937  12.751  11.114   0.449
72055SOL     OW17938  14.607   5.897   0.540
72055SOL    HW117939  14.560   5.903   0.456
72055SOL    HW217940  14.631   5.988   0.559
72056SOL     OW17941   9.312   6.181   4.801
72056SOL    HW117942   9.222   6.188   4.771
72056SOL    HW217943   9.328   6.262   4.850
72057SOL     OW17944   9.936  11.993  14.769
72057SOL    HW117945  10.020  12.030  14.799
72057SOL    HW217946   9.870  12.054  14.803
72058SOL     OW17947  10.478   9.289  11.927
72058SOL    HW117948  10.571   9.268  11.928
72058SOL    HW217949  10.435   9.209  11.959
72059SOL     OW17950   4.319  10.396   4.604
72059SOL    HW117951   4.324  10.406   4.509
72059SOL    HW217952   4.348  10.480   4.639
72060SOL     OW17953  14.163   3.309  14.772
72060SOL    HW117954  14.145   3.333  14.681
72060SOL    HW217955  14.116   3.375  14.824
72061SOL     OW17956   0.462  14.062   7.798
72061SOL    HW117957   0.398  14.133   7.800
72061SOL    HW217958   0.538  14.096   7.844
72062SOL     OW17959   2.456   9.433   1.080
72062SOL    HW117960   2.443   9.527   1.076
72062SOL    HW217961   2.376   9.399   1.120
72063SOL     OW17962  14.184   0.542   0.095
72063SOL    HW117963  14.241   0.509   0.164
72063SOL    HW217964  14.109   0.579   0.141
72064SOL     OW17965   3.523   7.868  11.356
72064SOL    HW117966   3.607   7.880  11.312
72064SOL    HW217967   3.462   7.842  11.287
72065SOL     OW17968  13.438   6.362   3.801
72065SOL    HW117969  13.452   6.322   3.887
72065SOL    HW217970  13.365   6.314   3.764
72066SOL     OW17971   1.897   6.714  10.341
72066SOL    HW117972   1.870   6.724  10.433
72066SOL    HW217973   1.884   6.621  10.323
72067SOL     OW17974  10.806  12.378   2.582
72067SOL    HW117975  10.888  12.418   2.613
72067SOL    HW217976  10.824  12.284   2.582
72068SOL     OW17977   1.601  10.573   6.315
72068SOL    HW117978   1.589  10.494   6.261
72068SOL    HW217979   1.522  10.624   6.300
72069SOL     OW17980   1.979   2.332   6.952
72069SOL    HW117981   1.885   2.343   6.960
72069SOL    HW217982   2.012   2.340   7.042
72070SOL     OW17983   3.020  11.867   7.101
72070SOL    HW117984   3.071  11.860   7.182
72070SOL    HW217985   2.930  11.846   7.127
72071SOL     OW17986   2.334   6.643   2.374
72071SOL    HW117987   2.344   6.737   2.388
72071SOL    HW217988   2.295   6.610   2.455
72072SOL     OW17989   6.920   1.394   5.007
72072SOL    HW117990   6.894   1.306   4.978
72072SOL    HW217991   6.837   1.439   5.025
72073SOL     OW17992  12.213   3.034   3.778
72073SOL    HW117993  12.141   3.039   3.714
72073SOL    HW217994  12.204   3.113   3.831
72074SOL     OW17995   0.857  14.471   3.532
72074SOL    HW117996   0.816  14.400   3.482
72074SOL    HW217997   0.850  14.547   3.474
72075SOL     OW17998   6.000   1.616  11.786
72075SOL    HW117999   5.951   1.558  11.728
72075SOL    HW218000   6.011   1.697  11.735
72076SOL     OW18001  14.633   9.148   5.847
72076SOL    HW118002  14.568   9.161   5.778
72076SOL    HW218003  14.651   9.236   5.880
72077SOL     OW18004   3.104   2.878   1.979
72077SOL    HW118005   3.061   2.797   1.949
72077SOL    HW218006   3.140   2.917   1.900
72078SOL     OW18007   4.103   6.198   0.890
72078SOL    HW118008   4.134   6.114   0.924
72078SOL    HW218009   4.141   6.203   0.802
72079SOL     OW18010   1.381   9.618   9.442
72079SOL    HW118011   1.350   9.657   9.524
72079SOL    HW218012   1.385   9.690   9.380
72080SOL     OW18013   8.054  11.093   4.722
72080SOL    HW118014   7.966  11.123   4.699
72080SOL    HW218015   8.057  11.001   4.694
72081SOL     OW18016  11.869  14.051  13.213
72081SOL    HW118017  11.810  14.002  13.155
72081SOL    HW218018  11.946  13.995  13.223
72082SOL     OW18019  13.740  13.761   8.921
72082SOL    HW118020  13.657  13.785   8.880
72082SOL    HW218021  13.723  13.768   9.015
72083SOL     OW18022   4.145   6.153   5.145
72083SOL    HW118023   4.062   6.160   5.191
72083SOL    HW218024   4.177   6.066   5.166
72084SOL     OW18025   6.126   4.519   4.845
72084SOL    HW118026   6.103   4.597   4.896
72084SOL    HW218027   6.052   4.507   4.785
72085SOL     OW18028   8.741  10.839   7.950
72085SOL    HW118029   8.777  10.802   8.031
72085SOL    HW218030   8.646  10.826   7.958
72086SOL     OW18031  12.261   4.949  11.432
72086SOL    HW118032  12.321   5.008  11.386
72086SOL    HW218033  12.266   4.867  11.383
72087SOL     OW18034   8.456   0.361  10.448
72087SOL    HW118035   8.442   0.449  10.413
72087SOL    HW218036   8.370   0.319  10.442
72088SOL     OW18037   6.583   9.848  13.375
72088SOL    HW118038   6.543   9.860  13.461
72088SOL    HW218039   6.673   9.879  13.386
72089SOL     OW18040   3.770  13.228   3.382
72089SOL    HW118041   3.756  13.259   3.293
72089SOL    HW218042   3.793  13.135   3.371
72090SOL     OW18043   0.336   3.794   9.212
72090SOL    HW118044   0.393   3.748   9.150
72090SOL    HW218045   0.375   3.881   9.221
72091SOL     OW18046  10.963   7.531  11.509
72091SOL    HW118047  10.919   7.574  11.582
72091SOL    HW218048  10.996   7.602  11.455
72092SOL     OW18049  11.908   8.358   2.572
72092SOL    HW118050  11.906   8.389   2.481
72092SOL    HW218051  11.966   8.419   2.617
72093SOL     OW18052  10.372   2.862   5.327
72093SOL    HW118053  10.302   2.823   5.276
72093SOL    HW218054  10.424   2.788   5.358
72094SOL     OW18055   1.699  13.523  14.742
72094SOL    HW118056   1.784  13.525  14.700
72094SOL    HW218057   1.696  13.439  14.788
72095SOL     OW18058   6.242   3.883   1.046
72095SOL    HW118059   6.298   3.813   1.011
72095SOL    HW218060   6.167   3.837   1.083
72096SOL     OW18061   9.120   1.006   7.635
72096SOL    HW118062   9.041   1.011   7.582
72096SOL    HW218063   9.191   1.031   7.575
72097SOL     OW18064  12.155  11.236   6.318
72097SOL    HW118065  12.195  11.156   6.283
72097SOL    HW218066  12.207  11.307   6.281
72098SOL     OW18067  11.200  14.436   0.484
72098SOL    HW118068  11.177  14.396   0.568
72098SOL    HW218069  11.192  14.530   0.500
72099SOL     OW18070   6.414   0.460   1.229
72099SOL    HW118071   6.454   0.537   1.269
72099SOL    HW218072   6.405   0.398   1.302
72100SOL     OW18073   0.357   8.771  11.811
72100SOL    HW118074   0.375   8.683  11.844
72100SOL    HW218075   0.328   8.757  11.721
72101SOL     OW18076   2.923  10.438   7.634
72101SOL    HW118077   2.857  10.380   7.597
72101SOL    HW218078   2.977  10.464   7.560
72102SOL     OW18079   1.859   7.342  12.109
72102SOL    HW118080   1.763   7.344  12.100
72102SOL    HW218081   1.884   7.255  12.078
72103SOL     OW18082  13.996   0.510  11.974
72103SOL    HW118083  13.960   0.474  12.054
72103SOL    HW218084  14.067   0.449  11.950
72104SOL     OW18085   4.782   2.112   9.440
72104SOL    HW118086   4.697   2.084   9.407
72104SOL    HW218087   4.836   2.123   9.362
72105SOL     OW18088  13.591  14.697   8.710
72105SOL    HW118089  13.568  14.614   8.751
72105SOL    HW218090  13.531  14.761   8.749
72106SOL     OW18091  12.371   4.260   8.003
72106SOL    HW118092  12.286   4.298   8.026
72106SOL    HW218093  12.384   4.190   8.066
72107SOL     OW18094  11.195  11.547  14.773
72107SOL    HW118095  11.263  11.575  14.711
72107SOL    HW218096  11.201  11.610  14.845
72108SOL     OW18097   8.768   9.808   6.215
72108SOL    HW118098   8.713   9.789   6.291
72108SOL    HW218099   8.715   9.784   6.140
72109SOL     OW18100   3.852   4.138   9.535
72109SOL    HW118101   3.857   4.094   9.620
72109SOL    HW218102   3.943   4.146   9.507
72110SOL     OW18103  10.998   6.657   5.511
72110SOL    HW118104  10.926   6.594   5.500
72110SOL    HW218105  10.987   6.719   5.439
72111SOL     OW18106  12.379   1.943   1.147
72111SOL    HW118107  12.432   2.017   1.115
72111SOL    HW218108  12.391   1.875   1.080
72112SOL     OW18109   1.961   3.967   5.963
72112SOL    HW118110   1.901   4.014   6.021
72112SOL    HW218111   2.029   4.031   5.942
72113SOL     OW18112   4.056   2.983  12.031
72113SOL    HW118113   3.985   2.930  11.994
72113SOL    HW218114   4.131   2.965  11.975
72114SOL     OW18115  10.544  14.052   9.856
72114SOL    HW118116  10.511  14.037   9.945
72114SOL    HW218117  10.589  13.970   9.834
72115SOL     OW18118   1.484  14.645   7.508
72115SOL    HW118119   1.564  14.645   7.561
72115SOL    HW218120   1.429  14.714   7.547
72116SOL     OW18121   9.962   8.839  13.075
72116SOL    HW118122  10.038   8.894  13.093
72116SOL    HW218123   9.896   8.900  13.040
72117SOL     OW18124   8.375   6.228   2.222
72117SOL    HW118125   8.464   6.192   2.214
72117SOL    HW218126   8.377   6.308   2.169
72118SOL     OW18127   1.790   2.524   2.225
72118SOL    HW118128   1.728   2.455   2.249
72118SOL    HW218129   1.780   2.591   2.292
72119SOL     OW18130   7.020   2.936   4.327
72119SOL    HW118131   7.079   3.002   4.362
72119SOL    HW218132   7.061   2.906   4.246
72120SOL     OW18133   6.097   1.967  10.963
72120SOL    HW118134   6.157   1.897  10.990
72120SOL    HW218135   6.153   2.043  10.948
72121SOL     OW18136  11.433   3.686  10.713
72121SOL    HW118137  11.491   3.716  10.643
72121SOL    HW218138  11.458   3.739  10.789
72122SOL     OW18139   3.382  10.897   3.418
72122SOL    HW118140   3.437  10.922   3.343
72122SOL    HW218141   3.371  10.802   3.409
72123SOL     OW18142   1.979  10.880   2.108
72123SOL    HW118143   2.029  10.927   2.174
72123SOL    HW218144   1.948  10.948   2.048
72124SOL     OW18145  10.018   5.623   1.788
72124SOL    HW118146  10.016   5.622   1.883
72124SOL    HW218147  10.085   5.559   1.764
72125SOL     OW18148  14.185   3.305  12.441
72125SOL    HW118149  14.103   3.340  12.476
72125SOL    HW218150  14.168   3.212  12.428
72126SOL     OW18151   8.312   5.645   2.191
72126SOL    HW118152   8.385   5.625   2.250
72126SOL    HW218153   8.249   5.574   2.207
72127SOL     OW18154   8.903   1.369   3.477
72127SOL    HW118155   8.891   1.387   3.384
72127SOL    HW218156   8.901   1.455   3.519
72128SOL     OW18157  11.210   7.921   6.148
72128SOL    HW118158  11.128   7.872   6.159
72128SOL    HW218159  11.240   7.938   6.237
72129SOL     OW18160   4.064  12.444  13.380
72129SOL    HW118161   4.038  12.408  13.295
72129SOL    HW218162   4.047  12.538  13.371
72130SOL     OW18163   3.987  11.530   0.423
72130SOL    HW118164   3.908  11.534   0.370
72130SOL    HW218165   3.957  11.550   0.512
72131SOL     OW18166   4.231   7.776  14.585
72131SOL    HW118167   4.197   7.707  14.642
72131SOL    HW218168   4.168   7.781  14.513
72132SOL     OW18169  12.444   1.795  11.052
72132SOL    HW118170  12.398   1.879  11.051
72132SOL    HW218171  12.474   1.785  11.142
72133SOL     OW18172   6.449  13.150  10.035
72133SOL    HW118173   6.472  13.226   9.982
72133SOL    HW218174   6.360  13.168  10.065
72134SOL     OW18175   2.696   5.693  11.867
72134SOL    HW118176   2.766   5.652  11.918
72134SOL    HW218177   2.637   5.729  11.933
72135SOL     OW18178  14.169   8.085  14.281
72135SOL    HW118179  14.180   8.085  14.376
72135SOL    HW218180  14.078   8.111  14.267
72136SOL     OW18181   8.919  14.327   7.914
72136SOL    HW118182   8.953  14.369   7.835
72136SOL    HW218183   8.833  14.293   7.889
72137SOL     OW18184   9.455   6.144   0.261
72137SOL    HW118185   9.462   6.097   0.344
72137SOL    HW218186   9.458   6.076   0.194
72138SOL     OW18187  10.117   4.756  10.834
72138SOL    HW118188  10.156   4.763  10.921
72138SOL    HW218189  10.188   4.779  10.774
72139SOL     OW18190   7.449   8.905  12.803
72139SOL    HW118191   7.368   8.918  12.853
72139SOL    HW218192   7.422   8.851  12.728
72140SOL     OW18193   7.440   6.566   6.329
72140SOL    HW118194   7.365   6.544   6.275
72140SOL    HW218195   7.428   6.658   6.351
72141SOL     OW18196  14.654  12.674   5.390
72141SOL    HW118197  14.620  12.759   5.418
72141SOL    HW218198  14.749  12.682   5.401
72142SOL     OW18199   2.445  12.590   7.873
72142SOL    HW118200   2.492  12.575   7.955
72142SOL    HW218201   2.432  12.502   7.837
72143SOL     OW18202  10.537   4.359   2.537
72143SOL    HW118203  10.591   4.382   2.613
72143SOL    HW218204  10.594   4.372   2.462
72144SOL     OW18205   5.222   3.357  11.662
72144SOL    HW118206   5.247   3.279  11.712
72144SOL    HW218207   5.262   3.345  11.576
72145SOL     OW18208   4.575  14.195   3.350
72145SOL    HW118209   4.557  14.134   3.279
72145SOL    HW218210   4.504  14.181   3.413
72146SOL     OW18211  12.968   9.286   8.084
72146SOL    HW118212  13.005   9.358   8.032
72146SOL    HW218213  12.937   9.328   8.164
72147SOL     OW18214   9.472   0.686   1.769
72147SOL    HW118215   9.545   0.646   1.816
72147SOL    HW218216   9.491   0.671   1.677
72148SOL     OW18217   9.363   1.984   7.882
72148SOL    HW118218   9.308   1.911   7.853
72148SOL    HW218219   9.386   2.029   7.801
72149SOL     OW18220  10.095   9.687  11.623
72149SOL    HW118221  10.186   9.666  11.645
72149SOL    HW218222  10.088   9.669  11.529
72150SOL     OW18223   3.129  12.175  11.970
72150SOL    HW118224   3.116  12.147  11.880
72150SOL    HW218225   3.060  12.239  11.987
72151SOL     OW18226  13.613  14.422   6.407
72151SOL    HW118227  13.544  14.370   6.450
72151SOL    HW218228  13.649  14.477   6.476
72152SOL     OW18229   0.484   2.573   9.238
72152SOL    HW118230   0.444   2.487   9.250
72152SOL    HW218231   0.416   2.626   9.197
72153SOL     OW18232   9.192   7.382  12.785
72153SOL    HW118233   9.256   7.396  12.855
72153SOL    HW218234   9.161   7.292  12.799
72154SOL     OW18235  10.541   4.271   1.013
72154SOL    HW118236  10.621   4.323   1.007
72154SOL    HW218237  10.532   4.251   1.106
72155SOL     OW18238   1.147   8.065   0.982
72155SOL    HW118239   1.224   8.063   1.038
72155SOL    HW218240   1.082   8.114   1.032
72156SOL     OW18241   4.623  10.610   2.652
72156SOL    HW118242   4.590  10.593   2.564
72156SOL    HW218243   4.715  10.635   2.638
72157SOL     OW18244   6.568   8.526   8.261
72157SOL    HW118245   6.577   8.502   8.169
72157SOL    HW218246   6.646   8.578   8.281
72158SOL     OW18247  14.808   8.432   5.590
72158SOL    HW118248  14.718   8.464   5.585
72158SOL    HW218249  14.860   8.498   5.546
72159SOL     OW18250  14.622   4.561   4.693
72159SOL    HW118251  14.701   4.507   4.693
72159SOL    HW218252  14.592   4.560   4.784
72160SOL     OW18253   8.408   2.737  13.376
72160SOL    HW118254   8.451   2.665  13.421
72160SOL    HW218255   8.438   2.730  13.285
72161SOL     OW18256   9.075   3.818   2.016
72161SOL    HW118257   9.058   3.875   2.091
72161SOL    HW218258   9.050   3.871   1.940
72162SOL     OW18259   7.861   2.469   7.933
72162SOL    HW118260   7.780   2.441   7.890
72162SOL    HW218261   7.885   2.550   7.889
72163SOL     OW18262  14.826   0.322  13.441
72163SOL    HW118263  14.853   0.284  13.357
72163SOL    HW218264   0.007   0.396  13.453
72164SOL     OW18265   7.812  12.436   6.831
72164SOL    HW118266   7.897  12.455   6.792
72164SOL    HW218267   7.793  12.346   6.803
72165SOL     OW18268   2.409   9.985   3.924
72165SOL    HW118269   2.450   9.965   4.009
72165SOL    HW218270   2.331  10.036   3.947
72166SOL     OW18271   3.340   9.795   4.151
72166SOL    HW118272   3.336   9.882   4.192
72166SOL    HW218273   3.305   9.736   4.217
72167SOL     OW18274   7.192  11.420  14.188
72167SOL    HW118275   7.250  11.490  14.219
72167SOL    HW218276   7.216  11.409  14.096
72168SOL     OW18277   0.891   6.083  14.527
72168SOL    HW118278   0.929   6.099  14.441
72168SOL    HW218279   0.857   6.168  14.554
72169SOL     OW18280   3.875  11.610   7.648
72169SOL    HW118281   3.782  11.588   7.640
72169SOL    HW218282   3.900  11.579   7.735
72170SOL     OW18283   4.489   7.516   5.837
72170SOL    HW118284   4.492   7.515   5.933
72170SOL    HW218285   4.424   7.583   5.816
72171SOL     OW18286  13.956   7.536  11.950
72171SOL    HW118287  13.947   7.631  11.949
72171SOL    HW218288  13.895   7.505  11.883
72172SOL     OW18289  14.000   4.037  10.528
72172SOL    HW118290  13.928   3.995  10.480
72172SOL    HW218291  14.011   4.122  10.486
72173SOL     OW18292  13.280   5.929   3.109
72173SOL    HW118293  13.230   5.994   3.158
72173SOL    HW218294  13.214   5.879   3.060
72174SOL     OW18295   0.300  13.970  11.023
72174SOL    HW118296   0.358  13.998  10.953
72174SOL    HW218297   0.358  13.946  11.095
72175SOL     OW18298  11.940  12.432   9.274
72175SOL    HW118299  11.928  12.495   9.203
72175SOL    HW218300  11.853  12.393   9.286
72176SOL     OW18301  14.134   9.026   0.487
72176SOL    HW118302  14.193   8.974   0.541
72176SOL    HW218303  14.180   9.108   0.471
72177SOL     OW18304  11.444   1.575   9.146
72177SOL    HW118305  11.413   1.648   9.093
72177SOL    HW218306  11.478   1.511   9.083
72178SOL     OW18307  11.894   4.914   0.985
72178SOL    HW118308  11.925   4.831   0.949
72178SOL    HW218309  11.844   4.889   1.063
72179SOL     OW18310  10.763   8.258   8.032
72179SOL    HW118311  10.833   8.272   7.968
72179SOL    HW218312  10.684   8.292   7.989
72180SOL     OW18313  10.965   0.659   2.203
72180SOL    HW118314  10.986   0.689   2.292
72180SOL    HW218315  10.886   0.708   2.180
72181SOL     OW18316   0.872   1.865   7.327
72181SOL    HW118317   0.877   1.925   7.253
72181SOL    HW218318   0.876   1.778   7.288
72182SOL     OW18319   8.703  12.299  14.808
72182SOL    HW118320   8.739  12.213  14.785
72182SOL    HW218321   8.745  12.319   0.014
72183SOL     OW18322   9.174   7.370  10.407
72183SOL    HW118323   9.234   7.411  10.345
72183SOL    HW218324   9.111   7.439  10.429
72184SOL     OW18325  12.735  14.724  14.776
72184SOL    HW118326  12.639  14.717  14.773
72184SOL    HW218327  12.756  14.713  14.869
72185SOL     OW18328  11.562  10.925   7.139
72185SOL    HW118329  11.656  10.939   7.150
72185SOL    HW218330  11.524  11.012   7.154
72186SOL     OW18331  13.796   7.130   4.403
72186SOL    HW118332  13.844   7.081   4.470
72186SOL    HW218333  13.727   7.176   4.452
72187SOL     OW18334   6.217   2.315  11.979
72187SOL    HW118335   6.149   2.333  11.914
72187SOL    HW218336   6.176   2.253  12.039
72188SOL     OW18337   3.885   2.597  10.761
72188SOL    HW118338   3.892   2.603  10.666
72188SOL    HW218339   3.966   2.556  10.789
72189SOL     OW18340  10.036   9.507   0.574
72189SOL    HW118341  10.031   9.420   0.534
72189SOL    HW218342   9.953   9.516   0.621
72190SOL     OW18343   1.790   2.337   6.656
72190SOL    HW118344   1.841   2.295   6.586
72190SOL    HW218345   1.708   2.362   6.613
72191SOL     OW18346   6.149   4.643   2.104
72191SOL    HW118347   6.202   4.719   2.080
72191SOL    HW218348   6.207   4.568   2.089
72192SOL     OW18349   6.531   3.145   3.872
72192SOL    HW118350   6.483   3.065   3.893
72192SOL    HW218351   6.617   3.133   3.912
72193SOL     OW18352   6.047   6.850   1.883
72193SOL    HW118353   6.141   6.859   1.871
72193SOL    HW218354   6.018   6.793   1.812
72194SOL     OW18355   8.532   3.658  14.638
72194SOL    HW118356   8.571   3.710  14.568
72194SOL    HW218357   8.559   3.568  14.618
72195SOL     OW18358   3.712  14.080   1.849
72195SOL    HW118359   3.775  14.025   1.894
72195SOL    HW218360   3.747  14.169   1.856
72196SOL     OW18361  10.913   8.210   7.781
72196SOL    HW118362  10.913   8.119   7.751
72196SOL    HW218363  10.879   8.259   7.707
72197SOL     OW18364   3.427   8.641  10.316
72197SOL    HW118365   3.383   8.714  10.272
72197SOL    HW218366   3.493   8.682  10.371
72198SOL     OW18367   8.646  11.660   2.838
72198SOL    HW118368   8.647  11.703   2.923
72198SOL    HW218369   8.558  11.624   2.829
72199SOL     OW18370   3.651   6.357  13.523
72199SOL    HW118371   3.610   6.443  13.510
72199SOL    HW218372   3.677   6.357  13.615
72200SOL     OW18373  11.982  12.023   7.262
72200SOL    HW118374  11.891  12.019   7.232
72200SOL    HW218375  11.998  11.938   7.302
72201SOL     OW18376  14.812  10.066   7.759
72201SOL    HW118377  14.718  10.061   7.778
72201SOL    HW218378  14.837   9.976   7.739
72202SOL     OW18379   0.386   7.606   8.700
72202SOL    HW118380   0.372   7.608   8.794
72202SOL    HW218381   0.472   7.565   8.689
72203SOL     OW18382   5.688   4.655  13.760
72203SOL    HW118383   5.758   4.718  13.778
72203SOL    HW218384   5.607   4.706  13.766
72204SOL     OW18385   7.423   1.872   1.786
72204SOL    HW118386   7.485   1.867   1.860
72204SOL    HW218387   7.452   1.804   1.726
72205SOL     OW18388  13.847   9.797  12.088
72205SOL    HW118389  13.782   9.799  12.158
72205SOL    HW218390  13.861   9.889  12.066
72206SOL     OW18391   6.059   3.136   3.605
72206SOL    HW118392   5.979   3.188   3.607
72206SOL    HW218393   6.105   3.166   3.526
72207SOL     OW18394  13.099   7.995   6.213
72207SOL    HW118395  13.131   8.077   6.250
72207SOL    HW218396  13.152   7.981   6.135
72208SOL     OW18397   2.733  14.194  11.193
72208SOL    HW118398   2.693  14.167  11.276
72208SOL    HW218399   2.694  14.279  11.175
72209SOL     OW18400   5.910   0.363   4.098
72209SOL    HW118401   5.827   0.324   4.126
72209SOL    HW218402   5.973   0.334   4.164
72210SOL     OW18403   9.778   7.609   6.071
72210SOL    HW118404   9.839   7.560   6.126
72210SOL    HW218405   9.698   7.556   6.071
72211SOL     OW18406  11.718   0.664   4.311
72211SOL    HW118407  11.737   0.743   4.361
72211SOL    HW218408  11.786   0.601   4.339
72212SOL     OW18409   5.078  14.792   2.767
72212SOL    HW118410   5.111  14.853   2.701
72212SOL    HW218411   4.994  14.829   2.793
72213SOL     OW18412  11.773   3.440   6.056
72213SOL    HW118413  11.695   3.411   6.104
72213SOL    HW218414  11.759   3.534   6.042
72214SOL     OW18415   0.411   5.061   3.063
72214SOL    HW118416   0.355   5.139   3.069
72214SOL    HW218417   0.479   5.076   3.129
72215SOL     OW18418  12.355   9.201   0.540
72215SOL    HW118419  12.272   9.175   0.500
72215SOL    HW218420  12.330   9.262   0.609
72216SOL     OW18421   9.172   3.784   2.840
72216SOL    HW118422   9.152   3.869   2.800
72216SOL    HW218423   9.232   3.741   2.778
72217SOL     OW18424   6.631  12.998   4.945
72217SOL    HW118425   6.643  13.092   4.955
72217SOL    HW218426   6.536  12.985   4.945
72218SOL     OW18427   5.166  10.248   3.216
72218SOL    HW118428   5.107  10.186   3.173
72218SOL    HW218429   5.226  10.194   3.266
72219SOL     OW18430  13.135   7.339  13.695
72219SOL    HW118431  13.071   7.374  13.757
72219SOL    HW218432  13.117   7.245  13.693
72220SOL     OW18433   0.266   0.156   3.499
72220SOL    HW118434   0.348   0.198   3.474
72220SOL    HW218435   0.199   0.203   3.450
72221SOL     OW18436   5.764   0.053   4.082
72221SOL    HW118437   5.728   0.138   4.107
72221SOL    HW218438   5.695   0.012   4.030
72222SOL     OW18439   9.489  11.471   8.340
72222SOL    HW118440   9.572  11.427   8.357
72222SOL    HW218441   9.443  11.413   8.279
72223SOL     OW18442   9.562  13.263   4.895
72223SOL    HW118443   9.594  13.204   4.963
72223SOL    HW218444   9.624  13.251   4.823
72224SOL     OW18445  11.711   7.812   9.410
72224SOL    HW118446  11.754   7.897   9.400
72224SOL    HW218447  11.623   7.825   9.375
72225SOL     OW18448   2.613   7.731  12.317
72225SOL    HW118449   2.671   7.744  12.242
72225SOL    HW218450   2.670   7.739  12.394
72226SOL     OW18451   5.322  14.877   0.251
72226SOL    HW118452   5.383   0.004   0.324
72226SOL    HW218453   5.277  14.794   0.262
72227SOL     OW18454   3.269  10.647   4.519
72227SOL    HW118455   3.283  10.553   4.531
72227SOL    HW218456   3.328  10.671   4.447
72228SOL     OW18457   1.379  12.138  12.739
72228SOL    HW118458   1.290  12.102  12.749
72228SOL    HW218459   1.378  12.180  12.653
72229SOL     OW18460   1.172   7.885   2.283
72229SOL    HW118461   1.164   7.859   2.375
72229SOL    HW218462   1.212   7.809   2.240
72230SOL     OW18463   2.619   1.741   8.198
72230SOL    HW118464   2.642   1.720   8.288
72230SOL    HW218465   2.566   1.667   8.169
72231SOL     OW18466   2.490   9.232  11.381
72231SOL    HW118467   2.490   9.226  11.476
72231SOL    HW218468   2.531   9.316  11.362
72232SOL     OW18469   1.666  11.638   9.030
72232SOL    HW118470   1.616  11.708   8.987
72232SOL    HW218471   1.613  11.559   9.015
72233SOL     OW18472   5.712  13.152   5.044
72233SOL    HW118473   5.751  13.232   5.080
72233SOL    HW218474   5.618  13.164   5.055
72234SOL     OW18475   0.035  14.250  14.611
72234SOL    HW118476   0.081  14.192  14.672
72234SOL    HW218477   0.032  14.201  14.529
72235SOL     OW18478   5.512  10.515   3.870
72235SOL    HW118479   5.573  10.501   3.797
72235SOL    HW218480   5.456  10.587   3.840
72236SOL     OW18481  14.727  12.800  12.519
72236SOL    HW118482  14.649  12.811  12.572
72236SOL    HW218483  14.785  12.744  12.571
72237SOL     OW18484   2.665   8.668   5.445
72237SOL    HW118485   2.728   8.715   5.390
72237SOL    HW218486   2.654   8.584   5.403
72238SOL     OW18487   6.541   8.360  12.006
72238SOL    HW118488   6.481   8.421  12.049
72238SOL    HW218489   6.579   8.410  11.934
72239SOL     OW18490   4.432  12.406   5.763
72239SOL    HW118491   4.520  12.377   5.739
72239SOL    HW218492   4.373  12.355   5.706
72240SOL     OW18493   5.664   3.052  13.022
72240SOL    HW118494   5.758   3.069  13.026
72240SOL    HW218495   5.645   2.999  13.099
72241SOL     OW18496   9.364  11.251   5.161
72241SOL    HW118497   9.321  11.287   5.238
72241SOL    HW218498   9.457  11.247   5.184
72242SOL     OW18499   8.182  12.645   8.819
72242SOL    HW118500   8.116  12.587   8.857
72242SOL    HW218501   8.169  12.638   8.725
72243SOL     OW18502   1.137  13.781   6.176
72243SOL    HW118503   1.230  13.776   6.152
72243SOL    HW218504   1.117  13.875   6.172
72244SOL     OW18505   2.714   2.087   2.468
72244SOL    HW118506   2.730   1.997   2.496
72244SOL    HW218507   2.720   2.138   2.548
72245SOL     OW18508  14.416   6.592   5.702
72245SOL    HW118509  14.352   6.538   5.748
72245SOL    HW218510  14.492   6.536   5.692
72246SOL     OW18511   2.396  13.265   1.978
72246SOL    HW118512   2.467  13.296   1.922
72246SOL    HW218513   2.316  13.280   1.928
72247SOL     OW18514  10.379   7.927   0.356
72247SOL    HW118515  10.328   7.869   0.412
72247SOL    HW218516  10.469   7.918   0.387
72248SOL     OW18517  14.290  14.729   1.985
72248SOL    HW118518  14.278  14.652   1.930
72248SOL    HW218519  14.385  14.745   1.984
72249SOL     OW18520   2.708   5.622  13.912
72249SOL    HW118521   2.634   5.565  13.930
72249SOL    HW218522   2.701   5.692  13.977
72250SOL     OW18523  10.073  13.423   5.066
72250SOL    HW118524   9.995  13.377   5.097
72250SOL    HW218525  10.071  13.507   5.112
72251SOL     OW18526   0.850   0.058  14.865
72251SOL    HW118527   0.823   0.077   0.078
72251SOL    HW218528   0.944   0.044  14.870
72252SOL     OW18529   4.615  12.744   6.712
72252SOL    HW118530   4.571  12.826   6.734
72252SOL    HW218531   4.549  12.677   6.725
72253SOL     OW18532   8.281   8.843   1.347
72253SOL    HW118533   8.186   8.832   1.345
72253SOL    HW218534   8.299   8.883   1.432
72254SOL     OW18535   9.038   2.992   3.065
72254SOL    HW118536   9.027   2.941   3.145
72254SOL    HW218537   9.107   3.056   3.086
72255SOL     OW18538  14.066  11.981  10.147
72255SOL    HW118539  14.115  12.000  10.068
72255SOL    HW218540  14.015  12.060  10.164
72256SOL     OW18541   6.137  11.142   3.103
72256SOL    HW118542   6.169  11.187   3.182
72256SOL    HW218543   6.148  11.049   3.123
72257SOL     OW18544   3.189  12.452   0.659
72257SOL    HW118545   3.245  12.427   0.733
72257SOL    HW218546   3.251  12.483   0.592
72258SOL     OW18547  13.512   0.403   2.404
72258SOL    HW118548  13.451   0.455   2.352
72258SOL    HW218549  13.485   0.313   2.390
72259SOL     OW18550  14.345   6.737  14.166
72259SOL    HW118551  14.312   6.714  14.253
72259SOL    HW218552  14.390   6.658  14.136
72260SOL     OW18553   6.374   0.353  10.837
72260SOL    HW118554   6.363   0.381  10.746
72260SOL    HW218555   6.464   0.377  10.859
72261SOL     OW18556   4.184   8.143  14.060
72261SOL    HW118557   4.183   8.069  14.000
72261SOL    HW218558   4.276   8.153  14.084
72262SOL     OW18559   2.084  10.541   0.977
72262SOL    HW118560   2.005  10.581   1.015
72262SOL    HW218561   2.052  10.494   0.900
72263SOL     OW18562   7.095   9.251   3.161
72263SOL    HW118563   7.090   9.177   3.221
72263SOL    HW218564   7.031   9.314   3.196
72264SOL     OW18565   6.879  14.179   2.490
72264SOL    HW118566   6.797  14.136   2.514
72264SOL    HW218567   6.877  14.262   2.539
72265SOL     OW18568   7.579  10.446  13.523
72265SOL    HW118569   7.660  10.442  13.574
72265SOL    HW218570   7.522  10.503  13.573
72266SOL     OW18571   0.394   7.600   9.006
72266SOL    HW118572   0.344   7.676   9.037
72266SOL    HW218573   0.336   7.526   9.022
72267SOL     OW18574  12.930   5.780   6.005
72267SOL    HW118575  12.928   5.853   6.066
72267SOL    HW218576  12.929   5.820   5.919
72268SOL     OW18577   9.867   1.781   0.605
72268SOL    HW118578   9.882   1.687   0.617
72268SOL    HW218579   9.776   1.795   0.632
72269SOL     OW18580  13.254   7.305   3.237
72269SOL    HW118581  13.333   7.308   3.291
72269SOL    HW218582  13.278   7.249   3.163
72270SOL     OW18583  12.199  12.732  14.027
72270SOL    HW118584  12.225  12.669  13.960
72270SOL    HW218585  12.112  12.761  14.001
72271SOL     OW18586  14.861   3.822   9.813
72271SOL    HW118587   0.026   3.747   9.769
72271SOL    HW218588  14.768   3.812   9.792
72272SOL     OW18589   1.598   1.970   7.693
72272SOL    HW118590   1.526   2.031   7.706
72272SOL    HW218591   1.568   1.888   7.732
72273SOL     OW18592  13.339  14.394  12.614
72273SOL    HW118593  13.372  14.397  12.524
72273SOL    HW218594  13.390  14.461  12.660
72274SOL     OW18595   4.262  14.166   0.163
72274SOL    HW118596   4.265  14.099   0.095
72274SOL    HW218597   4.171  14.197   0.162
72275SOL     OW18598   9.322  12.186   5.394
72275SOL    HW118599   9.348  12.278   5.393
72275SOL    HW218600   9.401  12.139   5.368
72276SOL     OW18601   4.450   9.952   8.363
72276SOL    HW118602   4.419   9.870   8.325
72276SOL    HW218603   4.540   9.933   8.391
72277SOL     OW18604   0.517  13.217   7.067
72277SOL    HW118605   0.479  13.276   7.132
72277SOL    HW218606   0.443  13.192   7.012
72278SOL     OW18607   3.426   7.863   8.387
72278SOL    HW118608   3.487   7.934   8.367
72278SOL    HW218609   3.478   7.783   8.375
72279SOL     OW18610  13.638   4.913   0.302
72279SOL    HW118611  13.683   4.996   0.289
72279SOL    HW218612  13.546   4.938   0.317
72280SOL     OW18613   7.140   1.102   8.055
72280SOL    HW118614   7.213   1.125   8.112
72280SOL    HW218615   7.067   1.155   8.087
72281SOL     OW18616   4.769   4.791  10.576
72281SOL    HW118617   4.689   4.764  10.620
72281SOL    HW218618   4.827   4.715  10.581
72282SOL     OW18619   0.474  13.836  12.840
72282SOL    HW118620   0.569  13.826  12.828
72282SOL    HW218621   0.465  13.864  12.931
72283SOL     OW18622   0.549  11.098  12.615
72283SOL    HW118623   0.526  11.005  12.610
72283SOL    HW218624   0.472  11.140  12.651
72284SOL     OW18625   9.420   9.669   6.126
72284SOL    HW118626   9.396   9.761   6.142
72284SOL    HW218627   9.456   9.639   6.209
72285SOL     OW18628  13.059   8.142   0.740
72285SOL    HW118629  12.965   8.144   0.759
72285SOL    HW218630  13.096   8.207   0.799
72286SOL     OW18631   0.037   5.059   6.719
72286SOL    HW118632   0.125   5.069   6.755
72286SOL    HW218633   0.002   5.148   6.717
72287SOL     OW18634   5.147  12.946  10.135
72287SOL    HW118635   5.162  12.972  10.226
72287SOL    HW218636   5.087  13.013  10.101
72288SOL     OW18637   5.092  10.054   7.065
72288SOL    HW118638   5.168  10.083   7.014
72288SOL    HW218639   5.126   9.983   7.119
72289SOL     OW18640   1.912   2.724   4.582
72289SOL    HW118641   2.003   2.720   4.610
72289SOL    HW218642   1.863   2.746   4.661
72290SOL     OW18643  11.789   6.431   5.334
72290SOL    HW118644  11.864   6.459   5.387
72290SOL    HW218645  11.828   6.399   5.252
72291SOL     OW18646   8.358  10.951  10.944
72291SOL    HW118647   8.337  10.859  10.961
72291SOL    HW218648   8.440  10.966  10.990
72292SOL     OW18649   0.460  12.966   6.755
72292SOL    HW118650   0.380  12.918   6.732
72292SOL    HW218651   0.434  13.020   6.829
72293SOL     OW18652  12.058  10.670  11.658
72293SOL    HW118653  11.972  10.688  11.697
72293SOL    HW218654  12.111  10.639  11.731
72294SOL     OW18655   3.164  13.628   5.450
72294SOL    HW118656   3.073  13.625   5.422
72294SOL    HW218657   3.198  13.711   5.417
72295SOL     OW18658   1.787  12.294   9.936
72295SOL    HW118659   1.706  12.311   9.889
72295SOL    HW218660   1.849  12.359   9.902
72296SOL     OW18661   9.729   8.930   7.232
72296SOL    HW118662   9.740   8.880   7.313
72296SOL    HW218663   9.782   8.882   7.168
72297SOL     OW18664  13.560   8.077   3.009
72297SOL    HW118665  13.480   8.103   2.963
72297SOL    HW218666  13.563   8.136   3.085
72298SOL     OW18667  11.458   9.367  13.719
72298SOL    HW118668  11.387   9.402  13.773
72298SOL    HW218669  11.526   9.343  13.782
72299SOL     OW18670   9.932   8.533   0.496
72299SOL    HW118671   9.922   8.611   0.550
72299SOL    HW218672   9.915   8.460   0.555
72300SOL     OW18673  12.283   4.710  12.896
72300SOL    HW118674  12.374   4.732  12.916
72300SOL    HW218675  12.245   4.689  12.982
72301SOL     OW18676  13.000   1.718   4.192
72301SOL    HW118677  13.070   1.699   4.130
72301SOL    HW218678  12.928   1.661   4.165
72302SOL     OW18679   6.367   2.732   2.688
72302SOL    HW118680   6.376   2.821   2.653
72302SOL    HW218681   6.455   2.711   2.721
72303SOL     OW18682   8.192   2.572  11.694
72303SOL    HW118683   8.239   2.508  11.641
72303SOL    HW218684   8.261   2.621  11.739
72304SOL     OW18685   6.833   8.120   5.183
72304SOL    HW118686   6.782   8.125   5.102
72304SOL    HW218687   6.823   8.030   5.213
72305SOL     OW18688   5.889  11.856   1.021
72305SOL    HW118689   5.867  11.792   1.088
72305SOL    HW218690   5.886  11.940   1.067
72306SOL     OW18691   0.366   4.048   5.052
72306SOL    HW118692   0.325   4.071   4.969
72306SOL    HW218693   0.386   4.131   5.094
72307SOL     OW18694  10.618  13.132  14.621
72307SOL    HW118695  10.678  13.191  14.666
72307SOL    HW218696  10.556  13.105  14.688
72308SOL     OW18697   5.462   8.294  13.510
72308SOL    HW118698   5.376   8.333  13.503
72308SOL    HW218699   5.491   8.313  13.600
72309SOL     OW18700  13.995  10.976  13.788
72309SOL    HW118701  13.924  10.948  13.845
72309SOL    HW218702  13.979  11.069  13.773
72310SOL     OW18703  11.653   8.614  14.799
72310SOL    HW118704  11.643   8.621   0.017
72310SOL    HW218705  11.614   8.529  14.777
72311SOL     OW18706   6.236   6.530  14.520
72311SOL    HW118707   6.289   6.504  14.444
72311SOL    HW218708   6.298   6.532  14.593
72312SOL     OW18709   1.871  13.568   8.180
72312SOL    HW118710   1.806  13.499   8.186
72312SOL    HW218711   1.955  13.522   8.187
72313SOL     OW18712   6.131   8.955   4.892
72313SOL    HW118713   6.093   9.042   4.885
72313SOL    HW218714   6.225   8.971   4.906
72314SOL     OW18715   2.833   9.688  12.727
72314SOL    HW118716   2.820   9.781  12.705
72314SOL    HW218717   2.828   9.642  12.643
72315SOL     OW18718  13.558   4.497   7.934
72315SOL    HW118719  13.551   4.402   7.936
72315SOL    HW218720  13.531   4.525   8.021
72316SOL     OW18721   7.787   8.781  14.194
72316SOL    HW118722   7.854   8.718  14.164
72316SOL    HW218723   7.813   8.864  14.153
72317SOL     OW18724   2.076   7.180   8.288
72317SOL    HW118725   2.073   7.263   8.336
72317SOL    HW218726   1.996   7.135   8.314
72318SOL     OW18727  12.813   9.793  14.322
72318SOL    HW118728  12.800   9.832  14.236
72318SOL    HW218729  12.767   9.709  14.318
72319SOL     OW18730   3.446   6.172  11.502
72319SOL    HW118731   3.502   6.242  11.469
72319SOL    HW218732   3.376   6.217  11.549
72320SOL     OW18733   9.881   3.374   8.204
72320SOL    HW118734   9.867   3.279   8.206
72320SOL    HW218735   9.796   3.412   8.225
72321SOL     OW18736  14.748   4.374   1.455
72321SOL    HW118737  14.719   4.302   1.511
72321SOL    HW218738  14.791   4.332   1.380
72322SOL     OW18739   3.939   8.380   2.297
72322SOL    HW118740   3.886   8.377   2.218
72322SOL    HW218741   3.935   8.291   2.332
72323SOL     OW18742   3.702   8.800   3.530
72323SOL    HW118743   3.621   8.755   3.554
72323SOL    HW218744   3.676   8.890   3.511
72324SOL     OW18745  12.158   7.959  11.036
72324SOL    HW118746  12.133   7.869  11.016
72324SOL    HW218747  12.156   7.964  11.131
72325SOL     OW18748   1.723   4.872   1.197
72325SOL    HW118749   1.684   4.953   1.164
72325SOL    HW218750   1.649   4.813   1.211
72326SOL     OW18751   8.418   7.361   7.522
72326SOL    HW118752   8.486   7.295   7.505
72326SOL    HW218753   8.466   7.443   7.527
72327SOL     OW18754   1.559  14.616   1.380
72327SOL    HW118755   1.580  14.572   1.462
72327SOL    HW218756   1.614  14.573   1.315
72328SOL     OW18757   1.916  10.732   3.084
72328SOL    HW118758   1.952  10.751   3.170
72328SOL    HW218759   1.907  10.818   3.043
72329SOL     OW18760   8.033   0.179   1.763
72329SOL    HW118761   8.050   0.163   1.856
72329SOL    HW218762   7.939   0.198   1.759
72330SOL     OW18763   6.937   3.474   4.353
72330SOL    HW118764   6.883   3.474   4.274
72330SOL    HW218765   6.882   3.517   4.419
72331SOL     OW18766   7.894   6.448   5.309
72331SOL    HW118767   7.942   6.449   5.226
72331SOL    HW218768   7.901   6.358   5.340
72332SOL     OW18769   7.571   3.074   1.453
72332SOL    HW118770   7.567   2.979   1.442
72332SOL    HW218771   7.639   3.088   1.518
72333SOL     OW18772   5.355   9.898   3.814
72333SOL    HW118773   5.371   9.818   3.763
72333SOL    HW218774   5.426   9.957   3.790
72334SOL     OW18775   2.160   1.727   4.446
72334SOL    HW118776   2.214   1.715   4.368
72334SOL    HW218777   2.214   1.779   4.505
72335SOL     OW18778   0.098   0.544  14.678
72335SOL    HW118779   0.035   0.602  14.722
72335SOL    HW218780   0.064   0.456  14.694
72336SOL     OW18781  14.476   5.524   0.812
72336SOL    HW118782  14.560   5.570   0.813
72336SOL    HW218783  14.441   5.539   0.724
72337SOL     OW18784   3.521  13.236  12.664
72337SOL    HW118785   3.519  13.300  12.735
72337SOL    HW218786   3.542  13.288  12.586
72338SOL     OW18787   6.038  11.324   2.364
72338SOL    HW118788   5.957  11.286   2.397
72338SOL    HW218789   6.105  11.257   2.379
72339SOL     OW18790   3.774   8.026   0.843
72339SOL    HW118791   3.722   8.030   0.762
72339SOL    HW218792   3.858   8.065   0.819
72340SOL     OW18793  12.164   7.195   1.855
72340SOL    HW118794  12.244   7.155   1.821
72340SOL    HW218795  12.125   7.127   1.910
72341SOL     OW18796  13.818  12.562   9.875
72341SOL    HW118797  13.882  12.632   9.886
72341SOL    HW218798  13.810  12.522   9.961
72342SOL     OW18799   1.083   1.637  11.481
72342SOL    HW118800   1.120   1.711  11.528
72342SOL    HW218801   1.143   1.564  11.500
72343SOL     OW18802  14.809  12.853   1.745
72343SOL    HW118803  14.827  12.947   1.742
72343SOL    HW218804  14.873  12.819   1.809
72344SOL     OW18805   6.622  12.074   3.454
72344SOL    HW118806   6.659  12.121   3.529
72344SOL    HW218807   6.596  11.989   3.489
72345SOL     OW18808   6.570   6.103   9.280
72345SOL    HW118809   6.485   6.118   9.239
72345SOL    HW218810   6.567   6.153   9.361
72346SOL     OW18811  13.882   3.203   0.741
72346SOL    HW118812  13.797   3.226   0.779
72346SOL    HW218813  13.933   3.284   0.745
72347SOL     OW18814   4.581   5.301   1.790
72347SOL    HW118815   4.600   5.381   1.740
72347SOL    HW218816   4.510   5.326   1.848
72348SOL     OW18817   0.688   9.612  10.869
72348SOL    HW118818   0.683   9.533  10.922
72348SOL    HW218819   0.648   9.680  10.924
72349SOL     OW18820  14.272  13.188   4.474
72349SOL    HW118821  14.207  13.229   4.531
72349SOL    HW218822  14.340  13.254   4.464
72350SOL     OW18823   9.496   6.478   7.487
72350SOL    HW118824   9.502   6.417   7.560
72350SOL    HW218825   9.505   6.423   7.409
72351SOL     OW18826   0.934  11.346   5.147
72351SOL    HW118827   0.905  11.423   5.195
72351SOL    HW218828   0.960  11.284   5.214
72352SOL     OW18829  12.649   5.292   7.679
72352SOL    HW118830  12.593   5.345   7.622
72352SOL    HW218831  12.735   5.294   7.638
72353SOL     OW18832   1.052  11.875   8.262
72353SOL    HW118833   1.049  11.892   8.167
72353SOL    HW218834   1.134  11.915   8.291
72354SOL     OW18835   9.413  10.130   3.373
72354SOL    HW118836   9.507  10.142   3.388
72354SOL    HW218837   9.378  10.105   3.459
72355SOL     OW18838  14.252  13.199   7.441
72355SOL    HW118839  14.258  13.188   7.536
72355SOL    HW218840  14.259  13.110   7.406
72356SOL     OW18841   0.482   6.393   2.409
72356SOL    HW118842   0.484   6.488   2.397
72356SOL    HW218843   0.542   6.376   2.481
72357SOL     OW18844   2.301   1.831   9.462
72357SOL    HW118845   2.369   1.870   9.517
72357SOL    HW218846   2.219   1.869   9.494
72358SOL     OW18847   9.282   2.297   8.465
72358SOL    HW118848   9.224   2.247   8.522
72358SOL    HW218849   9.224   2.355   8.416
72359SOL     OW18850   9.416  14.042   0.889
72359SOL    HW118851   9.410  14.028   0.983
72359SOL    HW218852   9.459  14.127   0.879
72360SOL     OW18853   2.164   1.493   7.826
72360SOL    HW118854   2.223   1.419   7.815
72360SOL    HW218855   2.092   1.459   7.879
72361SOL     OW18856   0.330  14.627  13.869
72361SOL    HW118857   0.267  14.566  13.831
72361SOL    HW218858   0.279  14.705  13.890
72362SOL     OW18859   7.368  10.575   4.596
72362SOL    HW118860   7.384  10.522   4.518
72362SOL    HW218861   7.273  10.571   4.609
72363SOL     OW18862   2.471   5.068  10.313
72363SOL    HW118863   2.400   5.128  10.288
72363SOL    HW218864   2.440   5.027  10.394
72364SOL     OW18865   7.895   7.205  13.387
72364SOL    HW118866   7.982   7.184  13.355
72364SOL    HW218867   7.910   7.268  13.458
72365SOL     OW18868   2.648   9.820   0.373
72365SOL    HW118869   2.625   9.823   0.280
72365SOL    HW218870   2.636   9.728   0.398
72366SOL     OW18871  13.069  12.779  10.809
72366SOL    HW118872  13.009  12.760  10.736
72366SOL    HW218873  13.153  12.798  10.766
72367SOL     OW18874   2.626   6.084  14.131
72367SOL    HW118875   2.720   6.099  14.122
72367SOL    HW218876   2.591   6.165  14.166
72368SOL     OW18877   5.991  14.035   6.132
72368SOL    HW118878   5.900  14.028   6.106
72368SOL    HW218879   6.023  13.945   6.133
72369SOL     OW18880  10.231   8.267  14.822
72369SOL    HW118881  10.257   8.216   0.021
72369SOL    HW218882  10.199   8.202  14.760
72370SOL     OW18883   0.527  12.196   1.622
72370SOL    HW118884   0.594  12.190   1.554
72370SOL    HW218885   0.508  12.105   1.645
72371SOL     OW18886   9.631   2.726  10.354
72371SOL    HW118887   9.563   2.790  10.373
72371SOL    HW218888   9.708   2.758  10.400
72372SOL     OW18889   3.450  14.636   0.093
72372SOL    HW118890   3.528  14.654   0.041
72372SOL    HW218891   3.418  14.722   0.120
72373SOL     OW18892   3.486   1.991  13.180
72373SOL    HW118893   3.482   1.925  13.110
72373SOL    HW218894   3.406   1.978  13.230
72374SOL     OW18895  14.646  11.726   0.797
72374SOL    HW118896  14.641  11.776   0.878
72374SOL    HW218897  14.666  11.791   0.730
72375SOL     OW18898   9.971   0.947   2.974
72375SOL    HW118899  10.014   0.964   3.058
72375SOL    HW218900   9.968   1.033   2.931
72376SOL     OW18901   2.831   0.033  11.372
72376SOL    HW118902   2.896   0.086  11.417
72376SOL    HW218903   2.844  14.822  11.407
72377SOL     OW18904   2.292   4.019   0.563
72377SOL    HW118905   2.302   4.087   0.496
72377SOL    HW218906   2.343   3.945   0.529
72378SOL     OW18907   2.679  11.368   2.672
72378SOL    HW118908   2.594  11.395   2.639
72378SOL    HW218909   2.731  11.448   2.672
72379SOL     OW18910   0.529   9.318   7.311
72379SOL    HW118911   0.516   9.405   7.272
72379SOL    HW218912   0.529   9.334   7.405
72380SOL     OW18913   0.704   7.943   4.169
72380SOL    HW118914   0.691   7.921   4.076
72380SOL    HW218915   0.639   7.891   4.215
72381SOL     OW18916   7.650  11.736   5.453
72381SOL    HW118917   7.599  11.657   5.436
72381SOL    HW218918   7.720  11.707   5.512
72382SOL     OW18919   2.827   7.677   7.973
72382SOL    HW118920   2.841   7.622   8.050
72382SOL    HW218921   2.791   7.759   8.008
72383SOL     OW18922   5.547   9.105   0.551
72383SOL    HW118923   5.493   9.137   0.479
72383SOL    HW218924   5.606   9.042   0.511
72384SOL     OW18925   4.069   9.969   0.002
72384SOL    HW118926   4.020   9.979   0.084
72384SOL    HW218927   4.019  10.017  14.815
72385SOL     OW18928  10.937   3.239  13.398
72385SOL    HW118929  10.999   3.301  13.358
72385SOL    HW218930  10.958   3.241  13.491
72386SOL     OW18931   2.568   9.817   0.114
72386SOL    HW118932   2.551   9.895   0.060
72386SOL    HW218933   2.492   9.760   0.098
72387SOL     OW18934  10.128  10.251   3.662
72387SOL    HW118935  10.090  10.207   3.739
72387SOL    HW218936  10.174  10.181   3.616
72388SOL     OW18937  14.833   5.969   2.321
72388SOL    HW118938  14.799   6.055   2.347
72388SOL    HW218939  14.824   5.916   2.400
72389SOL     OW18940   1.088  14.002   7.762
72389SOL    HW118941   1.137  14.038   7.836
72389SOL    HW218942   1.022  14.068   7.743
72390SOL     OW18943   5.661  14.619  14.726
72390SOL    HW118944   5.721  14.610  14.652
72390SOL    HW218945   5.705  14.676  14.788
72391SOL     OW18946   2.111   0.842  11.553
72391SOL    HW118947   2.077   0.908  11.492
72391SOL    HW218948   2.044   0.774  11.554
72392SOL     OW18949  14.116   3.681   5.093
72392SOL    HW118950  14.141   3.591   5.071
72392SOL    HW218951  14.193   3.717   5.137
72393SOL     OW18952   9.986  14.763   1.803
72393SOL    HW118953   9.965  14.791   1.892
72393SOL    HW218954   9.941  14.679   1.793
72394SOL     OW18955   8.660  12.240   2.384
72394SOL    HW118956   8.691  12.260   2.296
72394SOL    HW218957   8.596  12.309   2.403
72395SOL     OW18958  11.686   6.754  13.845
72395SOL    HW118959  11.652   6.819  13.907
72395SOL    HW218960  11.755   6.709  13.894
72396SOL     OW18961   3.511   0.775   0.457
72396SOL    HW118962   3.565   0.852   0.473
72396SOL    HW218963   3.421   0.804   0.473
72397SOL     OW18964   2.193  12.546   4.337
72397SOL    HW118965   2.119  12.599   4.308
72397SOL    HW218966   2.176  12.530   4.429
72398SOL     OW18967  12.015   8.299   7.292
72398SOL    HW118968  11.953   8.265   7.356
72398SOL    HW218969  11.972   8.377   7.256
72399SOL     OW18970   1.387  10.614   6.917
72399SOL    HW118971   1.374  10.530   6.959
72399SOL    HW218972   1.342  10.607   6.833
72400SOL     OW18973   0.975  11.925   7.737
72400SOL    HW118974   0.993  11.907   7.645
72400SOL    HW218975   0.880  11.930   7.742
72401SOL     OW18976   3.816   6.482   0.666
72401SOL    HW118977   3.878   6.440   0.607
72401SOL    HW218978   3.753   6.524   0.607
72402SOL     OW18979  10.490   6.525   3.639
72402SOL    HW118980  10.528   6.576   3.567
72402SOL    HW218981  10.424   6.470   3.597
72403SOL     OW18982  11.219   3.655   2.518
72403SOL    HW118983  11.191   3.715   2.449
72403SOL    HW218984  11.153   3.585   2.518
72404SOL     OW18985  13.305   0.056   7.767
72404SOL    HW118986  13.362   0.082   7.839
72404SOL    HW218987  13.277  14.845   7.789
72405SOL     OW18988   8.203   7.649   1.452
72405SOL    HW118989   8.166   7.561   1.450
72405SOL    HW218990   8.284   7.642   1.401
72406SOL     OW18991   6.460   6.473   5.149
72406SOL    HW118992   6.390   6.495   5.210
72406SOL    HW218993   6.530   6.535   5.170
72407SOL     OW18994   7.950   7.940  10.275
72407SOL    HW118995   7.912   7.987  10.349
72407SOL    HW218996   7.969   7.852  10.308
72408SOL     OW18997   6.699   8.501   4.091
72408SOL    HW118998   6.618   8.543   4.122
72408SOL    HW218999   6.706   8.529   4.000
72409SOL     OW19000  11.717   5.354   2.838
72409SOL    HW119001  11.640   5.405   2.865
72409SOL    HW219002  11.780   5.421   2.810
72410SOL     OW19003  10.723   1.598   7.391
72410SOL    HW119004  10.814   1.596   7.364
72410SOL    HW219005  10.700   1.506   7.405
72411SOL     OW19006   3.790   4.351   4.714
72411SOL    HW119007   3.790   4.302   4.631
72411SOL    HW219008   3.817   4.440   4.689
72412SOL     OW19009   2.615   6.133   6.416
72412SOL    HW119010   2.655   6.059   6.462
72412SOL    HW219011   2.589   6.193   6.486
72413SOL     OW19012   4.781   9.023  13.583
72413SOL    HW119013   4.808   8.932  13.570
72413SOL    HW219014   4.832   9.053  13.658
72414SOL     OW19015  14.772   0.701   8.272
72414SOL    HW119016  14.742   0.682   8.183
72414SOL    HW219017  14.866   0.714   8.263
72415SOL     OW19018   7.818   1.590  14.048
72415SOL    HW119019   7.762   1.515  14.071
72415SOL    HW219020   7.762   1.645  13.991
72416SOL     OW19021   2.091   4.821  13.189
72416SOL    HW119022   2.016   4.880  13.186
72416SOL    HW219023   2.147   4.848  13.116
72417SOL     OW19024   1.824  12.289   1.526
72417SOL    HW119025   1.738  12.304   1.564
72417SOL    HW219026   1.885  12.307   1.598
72418SOL     OW19027   0.324   8.674   7.415
72418SOL    HW119028   0.229   8.684   7.422
72418SOL    HW219029   0.353   8.752   7.368
72419SOL     OW19030   4.408  10.940   4.269
72419SOL    HW119031   4.340  10.892   4.222
72419SOL    HW219032   4.412  11.025   4.226
72420SOL     OW19033   2.350   4.891   6.237
72420SOL    HW119034   2.322   4.959   6.298
72420SOL    HW219035   2.275   4.877   6.180
72421SOL     OW19036   9.056   4.340   3.631
72421SOL    HW119037   8.973   4.305   3.662
72421SOL    HW219038   9.079   4.407   3.696
72422SOL     OW19039   7.882   4.359   8.251
72422SOL    HW119040   7.962   4.407   8.228
72422SOL    HW219041   7.814   4.396   8.195
72423SOL     OW19042  11.923  11.356  10.949
72423SOL    HW119043  11.859  11.346  10.879
72423SOL    HW219044  12.003  11.315  10.914
72424SOL     OW19045   6.142   3.189   3.133
72424SOL    HW119046   6.076   3.247   3.094
72424SOL    HW219047   6.210   3.249   3.165
72425SOL     OW19048   3.065  10.001   2.306
72425SOL    HW119049   3.087   9.930   2.366
72425SOL    HW219050   3.146  10.018   2.258
72426SOL     OW19051  14.507   8.135   9.659
72426SOL    HW119052  14.577   8.105   9.716
72426SOL    HW219053  14.446   8.060   9.654
72427SOL     OW19054   4.063   9.469   3.473
72427SOL    HW119055   4.157   9.479   3.484
72427SOL    HW219056   4.043   9.515   3.392
72428SOL     OW19057   9.652   1.345   9.032
72428SOL    HW119058   9.583   1.400   8.993
72428SOL    HW219059   9.615   1.257   9.028
72429SOL     OW19060   6.298  12.607  10.465
72429SOL    HW119061   6.231  12.546  10.437
72429SOL    HW219062   6.250  12.676  10.512
72430SOL     OW19063   8.342   5.964   5.321
72430SOL    HW119064   8.370   6.001   5.237
72430SOL    HW219065   8.404   6.000   5.385
72431SOL     OW19066   3.379   6.612   2.119
72431SOL    HW119067   3.417   6.527   2.140
72431SOL    HW219068   3.324   6.633   2.194
72432SOL     OW19069   4.061   1.542   1.034
72432SOL    HW119070   4.022   1.468   0.988
72432SOL    HW219071   4.153   1.518   1.044
72433SOL     OW19072   0.853   2.773   6.775
72433SOL    HW119073   0.886   2.849   6.727
72433SOL    HW219074   0.862   2.798   6.867
72434SOL     OW19075  11.844  13.453  12.583
72434SOL    HW119076  11.821  13.430  12.493
72434SOL    HW219077  11.763  13.489  12.620
72435SOL     OW19078  11.109   3.696   9.248
72435SOL    HW119079  11.157   3.750   9.311
72435SOL    HW219080  11.123   3.740   9.164
72436SOL     OW19081   6.862   0.364  13.441
72436SOL    HW119082   6.880   0.420  13.365
72436SOL    HW219083   6.898   0.413  13.515
72437SOL     OW19084   3.560   4.258  12.697
72437SOL    HW119085   3.552   4.221  12.785
72437SOL    HW219086   3.470   4.278  12.672
72438SOL     OW19087   1.020   2.447   7.423
72438SOL    HW119088   1.005   2.357   7.395
72438SOL    HW219089   1.115   2.455   7.430
72439SOL     OW19090   7.105   0.403   9.651
72439SOL    HW119091   7.176   0.378   9.593
72439SOL    HW219092   7.146   0.456   9.719
72440SOL     OW19093   2.470   5.805  12.029
72440SOL    HW119094   2.462   5.877  11.967
72440SOL    HW219095   2.391   5.810  12.082
72441SOL     OW19096  10.425  10.324   7.132
72441SOL    HW119097  10.508  10.370   7.147
72441SOL    HW219098  10.359  10.393   7.131
72442SOL     OW19099   5.555  10.726   4.808
72442SOL    HW119100   5.504  10.690   4.880
72442SOL    HW219101   5.645  10.701   4.827
72443SOL     OW19102  10.312   2.520   8.407
72443SOL    HW119103  10.263   2.476   8.338
72443SOL    HW219104  10.277   2.483   8.488
72444SOL     OW19105  10.058   1.028  12.370
72444SOL    HW119106  10.086   0.948  12.325
72444SOL    HW219107  10.127   1.045  12.434
72445SOL     OW19108   0.436  13.960  14.440
72445SOL    HW119109   0.396  13.916  14.515
72445SOL    HW219110   0.367  13.962  14.373
72446SOL     OW19111   9.170   8.665  14.339
72446SOL    HW119112   9.262   8.654  14.363
72446SOL    HW219113   9.172   8.723  14.263
72447SOL     OW19114   7.057   6.974   2.136
72447SOL    HW119115   7.012   7.055   2.113
72447SOL    HW219116   7.033   6.957   2.227
72448SOL     OW19117  13.355   8.781  10.634
72448SOL    HW119118  13.359   8.725  10.711
72448SOL    HW219119  13.445   8.811  10.621
72449SOL     OW19120   0.254   9.108  14.829
72449SOL    HW119121   0.350   9.108  14.825
72449SOL    HW219122   0.227   9.114  14.737
72450SOL     OW19123   5.361   6.725   9.682
72450SOL    HW119124   5.394   6.648   9.636
72450SOL    HW219125   5.282   6.750   9.634
72451SOL     OW19126   2.369   5.934   4.245
72451SOL    HW119127   2.441   5.989   4.215
72451SOL    HW219128   2.391   5.846   4.214
72452SOL     OW19129   2.213   1.223   7.925
72452SOL    HW119130   2.182   1.232   8.015
72452SOL    HW219131   2.134   1.229   7.872
72453SOL     OW19132  14.717   1.768   8.032
72453SOL    HW119133  14.685   1.770   8.122
72453SOL    HW219134  14.761   1.683   8.024
72454SOL     OW19135  10.567   0.976  11.054
72454SOL    HW119136  10.621   1.036  11.004
72454SOL    HW219137  10.626   0.939  11.120
72455SOL     OW19138  13.096   3.929   1.489
72455SOL    HW119139  13.105   3.918   1.584
72455SOL    HW219140  13.138   3.852   1.452
72456SOL     OW19141   1.314  14.780  12.745
72456SOL    HW119142   1.308  14.875  12.729
72456SOL    HW219143   1.304  14.741  12.658
72457SOL     OW19144  12.857   7.092  13.223
72457SOL    HW119145  12.887   7.181  13.238
72457SOL    HW219146  12.762   7.095  13.237
72458SOL     OW19147  11.179   6.852   4.438
72458SOL    HW119148  11.116   6.887   4.500
72458SOL    HW219149  11.254   6.911   4.443
72459SOL     OW19150  13.603  11.214  12.108
72459SOL    HW119151  13.527  11.173  12.067
72459SOL    HW219152  13.677  11.159  12.083
72460SOL     OW19153   8.174  14.084   8.585
72460SOL    HW119154   8.132  14.044   8.508
72460SOL    HW219155   8.263  14.048   8.585
72461SOL     OW19156   3.468  11.979   6.153
72461SOL    HW119157   3.385  11.935   6.173
72461SOL    HW219158   3.452  12.071   6.174
72462SOL     OW19159  13.137   5.095  12.549
72462SOL    HW119160  13.228   5.101  12.579
72462SOL    HW219161  13.115   5.002  12.555
72463SOL     OW19162  10.367   2.573   4.147
72463SOL    HW119163  10.391   2.660   4.180
72463SOL    HW219164  10.275   2.563   4.169
72464SOL     OW19165   6.940   6.370   0.649
72464SOL    HW119166   6.864   6.363   0.706
72464SOL    HW219167   6.917   6.319   0.572
72465SOL     OW19168  11.444   0.122   1.071
72465SOL    HW119169  11.356   0.087   1.061
72465SOL    HW219170  11.486   0.064   1.135
72466SOL     OW19171   2.339  11.058   3.608
72466SOL    HW119172   2.420  11.090   3.567
72466SOL    HW219173   2.284  11.031   3.534
72467SOL     OW19174   3.338   0.847   3.997
72467SOL    HW119175   3.332   0.932   3.954
72467SOL    HW219176   3.380   0.790   3.932
72468SOL     OW19177   4.708  13.122   2.944
72468SOL    HW119178   4.766  13.197   2.956
72468SOL    HW219179   4.740  13.080   2.863
72469SOL     OW19180   3.999   2.874  13.272
72469SOL    HW119181   3.967   2.813  13.338
72469SOL    HW219182   3.947   2.953  13.286
72470SOL     OW19183  12.320  14.153   1.414
72470SOL    HW119184  12.238  14.115   1.382
72470SOL    HW219185  12.296  14.203   1.491
72471SOL     OW19186   3.356   6.532   1.087
72471SOL    HW119187   3.277   6.568   1.127
72471SOL    HW219188   3.349   6.438   1.100
72472SOL     OW19189  14.099   0.739   5.425
72472SOL    HW119190  14.078   0.825   5.461
72472SOL    HW219191  14.138   0.758   5.339
72473SOL     OW19192  14.657   6.082  14.549
72473SOL    HW119193  14.569   6.116  14.567
72473SOL    HW219194  14.705   6.157  14.513
72474SOL     OW19195   3.319   5.756   5.576
72474SOL    HW119196   3.318   5.712   5.662
72474SOL    HW219197   3.378   5.702   5.523
72475SOL     OW19198   7.314   0.790   3.601
72475SOL    HW119199   7.400   0.808   3.564
72475SOL    HW219200   7.313   0.837   3.685
72476SOL     OW19201   3.930   5.000  10.881
72476SOL    HW119202   3.859   5.053  10.846
72476SOL    HW219203   3.888   4.941  10.944
72477SOL     OW19204   9.537  13.797   9.448
72477SOL    HW119205   9.619  13.846   9.441
72477SOL    HW219206   9.561  13.716   9.493
72478SOL     OW19207   6.728  14.845  12.009
72478SOL    HW119208   6.734  14.824  12.103
72478SOL    HW219209   6.738   0.063  12.006
72479SOL     OW19210  14.275  13.572   5.715
72479SOL    HW119211  14.332  13.639   5.753
72479SOL    HW219212  14.294  13.493   5.765
72480SOL     OW19213  13.343  10.921  11.459
72480SOL    HW119214  13.381  10.995  11.412
72480SOL    HW219215  13.291  10.961  11.529
72481SOL     OW19216   0.450  12.526  12.358
72481SOL    HW119217   0.451  12.562  12.269
72481SOL    HW219218   0.357  12.521  12.381
72482SOL     OW19219  12.195   8.757   0.066
72482SOL    HW119220  12.208   8.677   0.117
72482SOL    HW219221  12.283   8.781   0.036
72483SOL     OW19222  11.234   6.480   9.988
72483SOL    HW119223  11.222   6.566   9.948
72483SOL    HW219224  11.157   6.430   9.962
72484SOL     OW19225   2.516   2.989   3.460
72484SOL    HW119226   2.480   3.001   3.548
72484SOL    HW219227   2.558   2.902   3.463
72485SOL     OW19228  11.187   4.771   3.337
72485SOL    HW119229  11.119   4.708   3.312
72485SOL    HW219230  11.215   4.743   3.424
72486SOL     OW19231  12.486   8.479   5.204
72486SOL    HW119232  12.393   8.493   5.224
72486SOL    HW219233  12.488   8.395   5.159
72487SOL     OW19234   2.010   9.375  11.898
72487SOL    HW119235   2.101   9.363  11.926
72487SOL    HW219236   2.017   9.407  11.808
72488SOL     OW19237  13.567   5.122   8.184
72488SOL    HW119238  13.531   5.042   8.145
72488SOL    HW219239  13.556   5.110   8.278
72489SOL     OW19240  10.636   1.997  10.772
72489SOL    HW119241  10.634   1.916  10.721
72489SOL    HW219242  10.728   2.023  10.773
72490SOL     OW19243  11.191  12.124  11.635
72490SOL    HW119244  11.185  12.133  11.540
72490SOL    HW219245  11.222  12.034  11.648
72491SOL     OW19246   1.100   0.985   8.575
72491SOL    HW119247   1.039   1.046   8.533
72491SOL    HW219248   1.044   0.920   8.618
72492SOL     OW19249   3.101  12.047  10.649
72492SOL    HW119250   3.066  12.063  10.736
72492SOL    HW219251   3.182  12.099  10.645
72493SOL     OW19252   5.906   9.827  14.528
72493SOL    HW119253   5.861   9.902  14.566
72493SOL    HW219254   5.889   9.835  14.434
72494SOL     OW19255  13.690   3.516   8.798
72494SOL    HW119256  13.711   3.423   8.786
72494SOL    HW219257  13.690   3.552   8.710
72495SOL     OW19258   2.384   5.830   8.554
72495SOL    HW119259   2.380   5.867   8.466
72495SOL    HW219260   2.463   5.775   8.553
72496SOL     OW19261   9.068  12.763  11.505
72496SOL    HW119262   9.024  12.712  11.573
72496SOL    HW219263   9.044  12.719  11.423
72497SOL     OW19264  10.785  13.810   1.430
72497SOL    HW119265  10.861  13.866   1.446
72497SOL    HW219266  10.751  13.790   1.517
72498SOL     OW19267   5.167  14.415   5.447
72498SOL    HW119268   5.146  14.331   5.407
72498SOL    HW219269   5.128  14.480   5.389
72499SOL     OW19270   7.374   0.833   5.864
72499SOL    HW119271   7.388   0.745   5.830
72499SOL    HW219272   7.313   0.822   5.937
72500SOL     OW19273   3.433   0.800   5.669
72500SOL    HW119274   3.429   0.824   5.576
72500SOL    HW219275   3.352   0.751   5.684
72501SOL     OW19276   1.393  13.522   8.960
72501SOL    HW119277   1.327  13.570   8.911
72501SOL    HW219278   1.380  13.548   9.051
72502SOL     OW19279   4.125   5.691   1.935
72502SOL    HW119280   4.174   5.767   1.903
72502SOL    HW219281   4.126   5.701   2.030
72503SOL     OW19282   6.356   3.320  13.370
72503SOL    HW119283   6.377   3.382  13.440
72503SOL    HW219284   6.398   3.239  13.396
72504SOL     OW19285  10.367  14.550  10.966
72504SOL    HW119286  10.329  14.629  11.004
72504SOL    HW219287  10.450  14.579  10.928
72505SOL     OW19288  11.958   3.111   6.515
72505SOL    HW119289  11.888   3.046   6.514
72505SOL    HW219290  11.936   3.171   6.444
72506SOL     OW19291   5.068  11.481  12.998
72506SOL    HW119292   5.032  11.429  13.069
72506SOL    HW219293   5.133  11.424  12.957
72507SOL     OW19294   9.311   3.021   5.928
72507SOL    HW119295   9.372   2.949   5.948
72507SOL    HW219296   9.364   3.100   5.934
72508SOL     OW19297   2.718   5.966   6.606
72508SOL    HW119298   2.787   5.899   6.605
72508SOL    HW219299   2.746   6.028   6.674
72509SOL     OW19300   6.889   6.578   7.810
72509SOL    HW119301   6.861   6.603   7.898
72509SOL    HW219302   6.967   6.632   7.793
72510SOL     OW19303   8.475   3.887  11.344
72510SOL    HW119304   8.407   3.820  11.334
72510SOL    HW219305   8.428   3.964  11.376
72511SOL     OW19306  10.364   5.640   5.382
72511SOL    HW119307  10.379   5.579   5.455
72511SOL    HW219308  10.449   5.681   5.367
72512SOL     OW19309   0.560   2.818   4.576
72512SOL    HW119310   0.652   2.812   4.550
72512SOL    HW219311   0.512   2.815   4.494
72513SOL     OW19312  12.778  13.847   8.237
72513SOL    HW119313  12.699  13.862   8.288
72513SOL    HW219314  12.849  13.846   8.301
72514SOL     OW19315   2.578   5.040  12.256
72514SOL    HW119316   2.499   5.070  12.211
72514SOL    HW219317   2.585   5.096  12.333
72515SOL     OW19318   2.647  11.543   5.212
72515SOL    HW119319   2.673  11.634   5.225
72515SOL    HW219320   2.591  11.523   5.287
72516SOL     OW19321  12.691   9.671   1.917
72516SOL    HW119322  12.636   9.696   1.991
72516SOL    HW219323  12.774   9.715   1.933
72517SOL     OW19324   6.361   7.683  13.650
72517SOL    HW119325   6.275   7.641  13.644
72517SOL    HW219326   6.421   7.611  13.671
72518SOL     OW19327   3.326   3.813   0.716
72518SOL    HW119328   3.275   3.840   0.792
72518SOL    HW219329   3.261   3.786   0.651
72519SOL     OW19330  13.108  12.160   8.468
72519SOL    HW119331  13.187  12.130   8.423
72519SOL    HW219332  13.079  12.084   8.518
72520SOL     OW19333  14.349   9.421  10.472
72520SOL    HW119334  14.306   9.463  10.398
72520SOL    HW219335  14.313   9.464  10.549
72521SOL     OW19336  13.740   1.680   9.691
72521SOL    HW119337  13.780   1.728   9.619
72521SOL    HW219338  13.773   1.591   9.682
72522SOL     OW19339   1.925  13.117   3.876
72522SOL    HW119340   1.876  13.126   3.957
72522SOL    HW219341   1.868  13.068   3.818
72523SOL     OW19342  13.521   1.911  13.368
72523SOL    HW119343  13.566   1.832  13.398
72523SOL    HW219344  13.532   1.910  13.273
72524SOL     OW19345  14.265   1.798   1.664
72524SOL    HW119346  14.200   1.728   1.658
72524SOL    HW219347  14.213   1.879   1.664
72525SOL     OW19348   8.970  11.803  14.207
72525SOL    HW119349   8.963  11.874  14.144
72525SOL    HW219350   9.033  11.742  14.168
72526SOL     OW19351   1.001   3.267  10.145
72526SOL    HW119352   1.091   3.241  10.167
72526SOL    HW219353   0.961   3.186  10.111
72527SOL     OW19354   1.310   1.427  12.534
72527SOL    HW119355   1.269   1.341  12.548
72527SOL    HW219356   1.241   1.490  12.552
72528SOL     OW19357   5.392   1.959   6.740
72528SOL    HW119358   5.360   2.047   6.761
72528SOL    HW219359   5.424   1.966   6.650
72529SOL     OW19360   0.714   4.865   4.642
72529SOL    HW119361   0.674   4.947   4.615
72529SOL    HW219362   0.808   4.884   4.645
72530SOL     OW19363   1.575  10.920   9.498
72530SOL    HW119364   1.563  11.010   9.467
72530SOL    HW219365   1.492  10.877   9.479
72531SOL     OW19366   6.668  10.312   8.152
72531SOL    HW119367   6.708  10.225   8.150
72531SOL    HW219368   6.583  10.299   8.195
72532SOL     OW19369   0.933  10.412  13.434
72532SOL    HW119370   0.920  10.499  13.398
72532SOL    HW219371   0.946  10.356  13.357
72533SOL     OW19372   5.644  14.830   2.851
72533SOL    HW119373   5.564   0.005   2.846
72533SOL    HW219374   5.705  14.874   2.792
72534SOL     OW19375   7.141   0.991  13.320
72534SOL    HW119376   7.193   0.981  13.241
72534SOL    HW219377   7.051   0.976  13.292
72535SOL     OW19378   6.785  13.079   8.731
72535SOL    HW119379   6.853  13.135   8.695
72535SOL    HW219380   6.833  13.008   8.774
72536SOL     OW19381   0.414  11.302   6.474
72536SOL    HW119382   0.358  11.348   6.536
72536SOL    HW219383   0.481  11.261   6.528
72537SOL     OW19384   0.907   6.536   1.536
72537SOL    HW119385   1.001   6.529   1.552
72537SOL    HW219386   0.867   6.510   1.619
72538SOL     OW19387   3.932  13.898   4.035
72538SOL    HW119388   3.964  13.821   3.988
72538SOL    HW219389   3.873  13.861   4.101
72539SOL     OW19390  12.254   8.866   5.224
72539SOL    HW119391  12.233   8.811   5.149
72539SOL    HW219392  12.310   8.811   5.279
72540SOL     OW19393   9.046   2.855   2.530
72540SOL    HW119394   8.992   2.931   2.508
72540SOL    HW219395   9.015   2.786   2.472
72541SOL     OW19396   6.046   8.020   7.639
72541SOL    HW119397   5.977   8.014   7.705
72541SOL    HW219398   6.123   7.981   7.681
72542SOL     OW19399  13.693   2.701   8.442
72542SOL    HW119400  13.640   2.652   8.504
72542SOL    HW219401  13.779   2.659   8.445
72543SOL     OW19402   3.542   3.717   2.666
72543SOL    HW119403   3.557   3.649   2.732
72543SOL    HW219404   3.526   3.796   2.717
72544SOL     OW19405  10.787  13.852  10.789
72544SOL    HW119406  10.711  13.793  10.786
72544SOL    HW219407  10.769  13.917  10.722
72545SOL     OW19408   2.109   8.947   1.859
72545SOL    HW119409   2.032   8.931   1.804
72545SOL    HW219410   2.085   8.909   1.944
72546SOL     OW19411   8.476  11.662   8.882
72546SOL    HW119412   8.404  11.659   8.945
72546SOL    HW219413   8.545  11.711   8.927
72547SOL     OW19414   2.279  14.530  11.606
72547SOL    HW119415   2.292  14.624  11.623
72547SOL    HW219416   2.224  14.501  11.680
72548SOL     OW19417   5.376  10.413   6.538
72548SOL    HW119418   5.345  10.323   6.547
72548SOL    HW219419   5.387  10.426   6.444
72549SOL     OW19420  13.793   8.524  13.733
72549SOL    HW119421  13.875   8.570  13.751
72549SOL    HW219422  13.728   8.570  13.786
72550SOL     OW19423   1.996   2.815   5.232
72550SOL    HW119424   2.054   2.885   5.203
72550SOL    HW219425   1.948   2.852   5.305
72551SOL     OW19426   8.485   5.037   5.972
72551SOL    HW119427   8.464   4.961   6.026
72551SOL    HW219428   8.459   5.112   6.026
72552SOL     OW19429  10.206   5.978   0.941
72552SOL    HW119430  10.177   6.069   0.931
72552SOL    HW219431  10.176   5.935   0.861
72553SOL     OW19432   6.369   6.334   9.109
72553SOL    HW119433   6.346   6.416   9.154
72553SOL    HW219434   6.337   6.265   9.167
72554SOL     OW19435  10.167  13.515  11.435
72554SOL    HW119436  10.221  13.449  11.477
72554SOL    HW219437  10.114  13.551  11.506
72555SOL     OW19438   2.455   3.480  12.430
72555SOL    HW119439   2.550   3.479  12.439
72555SOL    HW219440   2.432   3.391  12.403
72556SOL     OW19441   0.533  12.070  14.189
72556SOL    HW119442   0.448  12.088  14.148
72556SOL    HW219443   0.513  12.008  14.259
72557SOL     OW19444   1.475   7.100   2.152
72557SOL    HW119445   1.428   7.181   2.136
72557SOL    HW219446   1.408   7.038   2.181
72558SOL     OW19447  12.670   8.880  11.956
72558SOL    HW119448  12.606   8.822  11.915
72558SOL    HW219449  12.656   8.965  11.913
72559SOL     OW19450  10.225  12.796   1.186
72559SOL    HW119451  10.300  12.766   1.238
72559SOL    HW219452  10.247  12.773   1.096
72560SOL     OW19453   7.034  12.567  10.583
72560SOL    HW119454   6.950  12.592  10.545
72560SOL    HW219455   7.082  12.526  10.511
72561SOL     OW19456   2.777  13.766  10.545
72561SOL    HW119457   2.795  13.760  10.451
72561SOL    HW219458   2.714  13.696  10.561
72562SOL     OW19459   8.068   4.591   2.856
72562SOL    HW119460   8.017   4.578   2.776
72562SOL    HW219461   8.130   4.518   2.857
72563SOL     OW19462   2.292   4.618   2.406
72563SOL    HW119463   2.295   4.644   2.498
72563SOL    HW219464   2.212   4.658   2.372
72564SOL     OW19465   1.122   6.277   4.427
72564SOL    HW119466   1.081   6.335   4.363
72564SOL    HW219467   1.114   6.323   4.511
72565SOL     OW19468  10.038   3.142   2.347
72565SOL    HW119469   9.976   3.197   2.396
72565SOL    HW219470   9.990   3.060   2.332
72566SOL     OW19471   9.354  11.096   2.792
72566SOL    HW119472   9.272  11.143   2.803
72566SOL    HW219473   9.419  11.165   2.777
72567SOL     OW19474   9.304   6.019   3.522
72567SOL    HW119475   9.326   5.934   3.484
72567SOL    HW219476   9.345   6.017   3.609
72568SOL     OW19477   8.438   5.366   5.450
72568SOL    HW119478   8.467   5.289   5.401
72568SOL    HW219479   8.437   5.436   5.385
72569SOL     OW19480   2.655  12.437  11.989
72569SOL    HW119481   2.585  12.387  12.030
72569SOL    HW219482   2.644  12.526  12.022
72570SOL     OW19483   4.362  13.393  10.219
72570SOL    HW119484   4.368  13.447  10.298
72570SOL    HW219485   4.307  13.319  10.245
72571SOL     OW19486  10.467  11.765   6.712
72571SOL    HW119487  10.458  11.853   6.677
72571SOL    HW219488  10.557  11.739   6.689
72572SOL     OW19489  10.027  14.846  14.674
72572SOL    HW119490   9.985  14.765  14.705
72572SOL    HW219491  10.111  14.817  14.638
72573SOL     OW19492  14.703   6.991  13.992
72573SOL    HW119493  14.613   6.973  14.019
72573SOL    HW219494  14.730   7.066  14.045
72574SOL     OW19495  13.029  13.393   8.799
72574SOL    HW119496  13.009  13.327   8.732
72574SOL    HW219497  13.071  13.344   8.869
72575SOL     OW19498   0.323   3.080  13.964
72575SOL    HW119499   0.411   3.053  13.937
72575SOL    HW219500   0.327   3.175  13.970
72576SOL     OW19501   9.076  12.039   7.558
72576SOL    HW119502   8.994  12.081   7.584
72576SOL    HW219503   9.115  12.010   7.640
72577SOL     OW19504   7.362   5.868  12.094
72577SOL    HW119505   7.294   5.844  12.157
72577SOL    HW219506   7.376   5.961  12.108
72578SOL     OW19507  14.401  10.722   2.608
72578SOL    HW119508  14.412  10.809   2.570
72578SOL    HW219509  14.473  10.671   2.570
72579SOL     OW19510   3.817  13.724  13.509
72579SOL    HW119511   3.802  13.785  13.437
72579SOL    HW219512   3.759  13.754  13.579
72580SOL     OW19513   7.236   1.931  14.447
72580SOL    HW119514   7.230   1.837  14.467
72580SOL    HW219515   7.238   1.934  14.351
72581SOL     OW19516   8.058   1.514   1.420
72581SOL    HW119517   7.994   1.451   1.388
72581SOL    HW219518   8.091   1.558   1.341
72582SOL     OW19519   0.860   5.218   3.885
72582SOL    HW119520   0.899   5.295   3.927
72582SOL    HW219521   0.804   5.180   3.953
72583SOL     OW19522   6.812  12.576   2.138
72583SOL    HW119523   6.819  12.629   2.217
72583SOL    HW219524   6.901  12.576   2.101
72584SOL     OW19525   3.909   0.248   1.011
72584SOL    HW119526   3.937   0.339   1.000
72584SOL    HW219527   3.814   0.251   0.998
72585SOL     OW19528   9.298   9.982   4.717
72585SOL    HW119529   9.332  10.014   4.800
72585SOL    HW219530   9.221   9.930   4.740
72586SOL     OW19531   3.650   0.376   6.475
72586SOL    HW119532   3.720   0.345   6.533
72586SOL    HW219533   3.582   0.407   6.534
72587SOL     OW19534   7.135  11.762  14.538
72587SOL    HW119535   7.085  11.823  14.592
72587SOL    HW219536   7.213  11.743  14.590
72588SOL     OW19537   9.922  12.998   5.266
72588SOL    HW119538   9.974  13.026   5.342
72588SOL    HW219539   9.979  12.937   5.219
72589SOL     OW19540  12.219   3.725   5.333
72589SOL    HW119541  12.139   3.732   5.386
72589SOL    HW219542  12.212   3.640   5.290
72590SOL     OW19543  11.825   2.021   1.882
72590SOL    HW119544  11.886   2.093   1.864
72590SOL    HW219545  11.817   2.019   1.978
72591SOL     OW19546   2.823   7.785   0.252
72591SOL    HW119547   2.849   7.874   0.230
72591SOL    HW219548   2.853   7.773   0.342
72592SOL     OW19549   3.227  10.577   8.212
72592SOL    HW119550   3.238  10.640   8.141
72592SOL    HW219551   3.189  10.628   8.283
72593SOL     OW19552   8.502   5.866   3.227
72593SOL    HW119553   8.589   5.836   3.203
72593SOL    HW219554   8.506   5.962   3.219
72594SOL     OW19555  13.962  11.502  10.550
72594SOL    HW119556  13.946  11.586  10.593
72594SOL    HW219557  13.924  11.438  10.610
72595SOL     OW19558   7.241   1.306   1.367
72595SOL    HW119559   7.175   1.236   1.371
72595SOL    HW219560   7.283   1.304   1.453
72596SOL     OW19561   8.280  13.497   4.301
72596SOL    HW119562   8.273  13.414   4.349
72596SOL    HW219563   8.373  13.518   4.302
72597SOL     OW19564   3.505  13.447   0.006
72597SOL    HW119565   3.444  13.449  14.810
72597SOL    HW219566   3.483  13.366   0.054
72598SOL     OW19567   0.242  13.034  12.917
72598SOL    HW119568   0.318  13.068  12.870
72598SOL    HW219569   0.177  13.018  12.849
72599SOL     OW19570  10.083   2.893  10.477
72599SOL    HW119571  10.114   2.864  10.391
72599SOL    HW219572  10.147   2.857  10.539
72600SOL     OW19573   8.146  14.285  13.468
72600SOL    HW119574   8.119  14.272  13.377
72600SOL    HW219575   8.231  14.328  13.463
72601SOL     OW19576   9.810  13.754  14.035
72601SOL    HW119577   9.879  13.820  14.042
72601SOL    HW219578   9.807  13.713  14.121
72602SOL     OW19579   7.682   7.372   7.203
72602SOL    HW119580   7.754   7.313   7.182
72602SOL    HW219581   7.659   7.350   7.294
72603SOL     OW19582   1.422   1.045  13.247
72603SOL    HW119583   1.397   1.117  13.305
72603SOL    HW219584   1.383   1.067  13.163
72604SOL     OW19585   5.197   6.298   1.314
72604SOL    HW119586   5.153   6.257   1.239
72604SOL    HW219587   5.137   6.368   1.341
72605SOL     OW19588  14.031  10.352   7.613
72605SOL    HW119589  14.107  10.323   7.663
72605SOL    HW219590  14.067  10.376   7.527
72606SOL     OW19591   9.510   7.723   7.551
72606SOL    HW119592   9.552   7.637   7.540
72606SOL    HW219593   9.466   7.739   7.468
72607SOL     OW19594   0.945  14.360  14.628
72607SOL    HW119595   0.935  14.305  14.550
72607SOL    HW219596   1.002  14.431  14.600
72608SOL     OW19597  11.862  13.118   9.446
72608SOL    HW119598  11.913  13.180   9.394
72608SOL    HW219599  11.927  13.062   9.488
72609SOL     OW19600   6.369  11.032   5.076
72609SOL    HW119601   6.349  11.099   5.141
72609SOL    HW219602   6.308  11.049   5.004
72610SOL     OW19603   0.073  14.845   3.149
72610SOL    HW119604   0.075  14.756   3.115
72610SOL    HW219605   0.024  14.839   3.231
72611SOL     OW19606   4.438   8.156  12.242
72611SOL    HW119607   4.447   8.225  12.175
72611SOL    HW219608   4.387   8.198  12.312
72612SOL     OW19609   5.380   2.556  12.548
72612SOL    HW119610   5.331   2.499  12.488
72612SOL    HW219611   5.356   2.525  12.635
72613SOL     OW19612   1.634   2.743  10.963
72613SOL    HW119613   1.688   2.793  10.902
72613SOL    HW219614   1.544   2.772  10.945
72614SOL     OW19615   8.619   5.370  10.593
72614SOL    HW119616   8.616   5.328  10.508
72614SOL    HW219617   8.708   5.404  10.600
72615SOL     OW19618  13.402   3.020   2.547
72615SOL    HW119619  13.462   2.945   2.553
72615SOL    HW219620  13.446   3.090   2.595
72616SOL     OW19621   2.093  13.455   0.050
72616SOL    HW119622   2.176  13.470   0.096
72616SOL    HW219623   2.103  13.368   0.010
72617SOL     OW19624   4.416  12.225  13.615
72617SOL    HW119625   4.358  12.157  13.649
72617SOL    HW219626   4.422  12.206  13.521
72618SOL     OW19627  12.956   8.417   0.588
72618SOL    HW119628  12.937   8.348   0.524
72618SOL    HW219629  12.912   8.495   0.553
72619SOL     OW19630   7.527   3.877   9.155
72619SOL    HW119631   7.491   3.884   9.067
72619SOL    HW219632   7.622   3.880   9.143
72620SOL     OW19633   6.124   4.982   5.231
72620SOL    HW119634   6.100   5.006   5.142
72620SOL    HW219635   6.097   4.891   5.240
72621SOL     OW19636   1.808   7.341   7.687
72621SOL    HW119637   1.864   7.318   7.613
72621SOL    HW219638   1.722   7.307   7.663
72622SOL     OW19639  10.430   3.961  14.452
72622SOL    HW119640  10.403   4.051  14.434
72622SOL    HW219641  10.515   3.971  14.497
72623SOL     OW19642  13.039   5.485   0.837
72623SOL    HW119643  13.078   5.536   0.908
72623SOL    HW219644  13.110   5.428   0.807
72624SOL     OW19645   6.206   5.098   7.224
72624SOL    HW119646   6.234   5.185   7.250
72624SOL    HW219647   6.239   5.040   7.293
72625SOL     OW19648  14.736   9.745  14.216
72625SOL    HW119649  14.738   9.726  14.310
72625SOL    HW219650  14.678   9.821  14.208
72626SOL     OW19651  11.615   4.000   2.487
72626SOL    HW119652  11.592   3.908   2.486
72626SOL    HW219653  11.709   4.002   2.469
72627SOL     OW19654   8.276  12.861   8.579
72627SOL    HW119655   8.256  12.879   8.671
72627SOL    HW219656   8.364  12.824   8.580
72628SOL     OW19657   5.532  13.004  14.385
72628SOL    HW119658   5.471  13.078  14.385
72628SOL    HW219659   5.609  13.035  14.432
72629SOL     OW19660   7.841  13.811  13.797
72629SOL    HW119661   7.760  13.795  13.748
72629SOL    HW219662   7.909  13.815  13.729
72630SOL     OW19663  11.945   8.287  11.121
72630SOL    HW119664  11.966   8.380  11.129
72630SOL    HW219665  11.897   8.267  11.201
72631SOL     OW19666   3.190   8.223   6.969
72631SOL    HW119667   3.164   8.217   6.877
72631SOL    HW219668   3.110   8.248   7.015
72632SOL     OW19669   9.650   7.350   4.551
72632SOL    HW119670   9.642   7.412   4.479
72632SOL    HW219671   9.730   7.376   4.597
72633SOL     OW19672  13.425  11.141   5.581
72633SOL    HW119673  13.466  11.226   5.567
72633SOL    HW219674  13.331  11.159   5.576
72634SOL     OW19675  12.470  12.075   4.617
72634SOL    HW119676  12.441  12.031   4.697
72634SOL    HW219677  12.458  12.168   4.636
72635SOL     OW19678  11.790   5.172   2.383
72635SOL    HW119679  11.734   5.132   2.318
72635SOL    HW219680  11.743   5.161   2.466
72636SOL     OW19681   6.829   1.568  11.573
72636SOL    HW119682   6.736   1.587  11.567
72636SOL    HW219683   6.840   1.525  11.658
72637SOL     OW19684   3.190   7.893   0.759
72637SOL    HW119685   3.190   7.988   0.766
72637SOL    HW219686   3.248   7.874   0.684
72638SOL     OW19687  14.751  13.751   7.537
72638SOL    HW119688  14.664  13.781   7.512
72638SOL    HW219689  14.744  13.655   7.535
72639SOL     OW19690   5.395  13.119   5.169
72639SOL    HW119691   5.323  13.132   5.231
72639SOL    HW219692   5.468  13.090   5.224
72640SOL     OW19693   1.508   1.640   0.607
72640SOL    HW119694   1.595   1.607   0.585
72640SOL    HW219695   1.450   1.601   0.542
72641SOL     OW19696   3.684  11.906  13.994
72641SOL    HW119697   3.660  11.895  13.901
72641SOL    HW219698   3.699  12.000  14.004
72642SOL     OW19699   6.191   0.009   2.000
72642SOL    HW119700   6.164  14.845   2.082
72642SOL    HW219701   6.157  14.829   1.932
72643SOL     OW19702   1.729   3.795   9.886
72643SOL    HW119703   1.748   3.710   9.925
72643SOL    HW219704   1.770   3.793   9.800
72644SOL     OW19705   7.474   9.427  12.692
72644SOL    HW119706   7.418   9.400  12.765
72644SOL    HW219707   7.552   9.371  12.701
72645SOL     OW19708   0.109   4.724   9.961
72645SOL    HW119709   0.149   4.685   9.883
72645SOL    HW219710   0.081   4.811   9.933
72646SOL     OW19711   8.494  11.233  10.864
72646SOL    HW119712   8.496  11.321  10.827
72646SOL    HW219713   8.406  11.225  10.903
72647SOL     OW19714   6.394   7.981  10.227
72647SOL    HW119715   6.342   8.012  10.302
72647SOL    HW219716   6.482   8.013  10.244
72648SOL     OW19717   1.149   1.896   5.989
72648SOL    HW119718   1.193   1.814   6.010
72648SOL    HW219719   1.205   1.965   6.025
72649SOL     OW19720   4.642   7.072  10.668
72649SOL    HW119721   4.729   7.108  10.684
72649SOL    HW219722   4.612   7.044  10.754
72650SOL     OW19723   2.026   0.395   2.795
72650SOL    HW119724   2.087   0.347   2.739
72650SOL    HW219725   2.079   0.466   2.832
72651SOL     OW19726   7.137   7.283  12.329
72651SOL    HW119727   7.094   7.367  12.312
72651SOL    HW219728   7.231   7.303  12.323
72652SOL     OW19729  12.255   5.102   6.537
72652SOL    HW119730  12.237   5.186   6.496
72652SOL    HW219731  12.319   5.060   6.479
72653SOL     OW19732   0.064  14.183   9.936
72653SOL    HW119733  14.856  14.144   9.918
72653SOL    HW219734   0.060  14.269   9.896
72654SOL     OW19735   5.771   2.381   7.118
72654SOL    HW119736   5.842   2.339   7.167
72654SOL    HW219737   5.767   2.469   7.154
72655SOL     OW19738   3.774  10.539   1.665
72655SOL    HW119739   3.832  10.464   1.651
72655SOL    HW219740   3.686  10.500   1.667
72656SOL     OW19741   2.013   6.642   3.990
72656SOL    HW119742   2.067   6.564   4.007
72656SOL    HW219743   1.934   6.628   4.042
72657SOL     OW19744   4.741   4.722  14.212
72657SOL    HW119745   4.701   4.639  14.189
72657SOL    HW219746   4.675   4.766  14.267
72658SOL     OW19747   3.059   1.610  10.549
72658SOL    HW119748   3.059   1.702  10.525
72658SOL    HW219749   3.098   1.565  10.474
72659SOL     OW19750  11.036  10.729   1.756
72659SOL    HW119751  11.104  10.667   1.729
72659SOL    HW219752  10.957  10.698   1.712
72660SOL     OW19753   1.069  11.437   4.086
72660SOL    HW119754   1.155  11.424   4.047
72660SOL    HW219755   1.018  11.483   4.019
72661SOL     OW19756   6.108  11.475   6.822
72661SOL    HW119757   6.172  11.418   6.865
72661SOL    HW219758   6.100  11.550   6.880
72662SOL     OW19759   6.950   2.927   0.521
72662SOL    HW119760   6.973   2.926   0.428
72662SOL    HW219761   7.017   2.981   0.562
72663SOL     OW19762  12.694   2.240  11.708
72663SOL    HW119763  12.673   2.325  11.669
72663SOL    HW219764  12.631   2.180  11.668
72664SOL     OW19765   2.289   3.826   4.192
72664SOL    HW119766   2.346   3.776   4.134
72664SOL    HW219767   2.249   3.892   4.135
72665SOL     OW19768   0.435   5.329   4.676
72665SOL    HW119769   0.440   5.371   4.591
72665SOL    HW219770   0.411   5.238   4.656
72666SOL     OW19771  11.879  11.336  11.569
72666SOL    HW119772  11.919  11.392  11.636
72666SOL    HW219773  11.869  11.392  11.493
72667SOL     OW19774   5.042   9.696   6.612
72667SOL    HW119775   5.066   9.606   6.591
72667SOL    HW219776   5.107   9.724   6.676
72668SOL     OW19777   2.274  10.032   9.600
72668SOL    HW119778   2.278   9.957   9.541
72668SOL    HW219779   2.203  10.011   9.661
72669SOL     OW19780  14.122   8.594  14.480
72669SOL    HW119781  14.133   8.629  14.569
72669SOL    HW219782  14.060   8.521  14.490
72670SOL     OW19783   3.549   3.743   0.786
72670SOL    HW119784   3.590   3.827   0.805
72670SOL    HW219785   3.465   3.765   0.746
72671SOL     OW19786   6.290  11.014   0.637
72671SOL    HW119787   6.268  11.100   0.673
72671SOL    HW219788   6.361  10.982   0.694
72672SOL     OW19789   2.633  10.772   0.170
72672SOL    HW119790   2.570  10.705   0.197
72672SOL    HW219791   2.579  10.849   0.150
72673SOL     OW19792   7.423   7.617   5.235
72673SOL    HW119793   7.421   7.618   5.140
72673SOL    HW219794   7.503   7.570   5.258
72674SOL     OW19795   4.433   4.349   1.824
72674SOL    HW119796   4.452   4.326   1.915
72674SOL    HW219797   4.437   4.266   1.777
72675SOL     OW19798  14.290   2.281   8.258
72675SOL    HW119799  14.236   2.203   8.270
72675SOL    HW219800  14.290   2.297   8.164
72676SOL     OW19801   0.231   0.478   6.175
72676SOL    HW119802   0.247   0.485   6.080
72676SOL    HW219803   0.168   0.548   6.194
72677SOL     OW19804   2.983   2.388   7.870
72677SOL    HW119805   2.916   2.442   7.827
72677SOL    HW219806   2.938   2.350   7.946
72678SOL     OW19807  13.993   2.444   6.704
72678SOL    HW119808  13.949   2.500   6.640
72678SOL    HW219809  14.025   2.369   6.652
72679SOL     OW19810   4.467   9.961  13.853
72679SOL    HW119811   4.496  10.041  13.809
72679SOL    HW219812   4.443   9.901  13.782
72680SOL     OW19813   9.616   6.478  10.926
72680SOL    HW119814   9.705   6.443  10.923
72680SOL    HW219815   9.561   6.407  10.892
72681SOL     OW19816   4.359  10.828  12.867
72681SOL    HW119817   4.265  10.842  12.858
72681SOL    HW219818   4.395  10.843  12.780
72682SOL     OW19819  13.506   0.316  10.869
72682SOL    HW119820  13.592   0.350  10.849
72682SOL    HW219821  13.445   0.379  10.830
72683SOL     OW19822  13.257  11.367   1.847
72683SOL    HW119823  13.164  11.351   1.865
72683SOL    HW219824  13.286  11.424   1.918
72684SOL     OW19825   9.179   5.594   4.978
72684SOL    HW119826   9.238   5.520   4.991
72684SOL    HW219827   9.097   5.555   4.949
72685SOL     OW19828   8.198   7.382  12.829
72685SOL    HW119829   8.174   7.465  12.787
72685SOL    HW219830   8.254   7.338  12.764
72686SOL     OW19831  12.108  13.070   8.459
72686SOL    HW119832  12.053  13.131   8.410
72686SOL    HW219833  12.046  13.013   8.504
72687SOL     OW19834  13.390  10.462   6.642
72687SOL    HW119835  13.315  10.451   6.700
72687SOL    HW219836  13.352  10.481   6.557
72688SOL     OW19837   5.410  11.194   1.300
72688SOL    HW119838   5.503  11.174   1.308
72688SOL    HW219839   5.407  11.272   1.244
72689SOL     OW19840   5.793   1.111  10.291
72689SOL    HW119841   5.788   1.159  10.373
72689SOL    HW219842   5.705   1.118  10.254
72690SOL     OW19843   2.663   1.187   9.572
72690SOL    HW119844   2.658   1.124   9.643
72690SOL    HW219845   2.573   1.219   9.563
72691SOL     OW19846   2.527   8.389  13.898
72691SOL    HW119847   2.540   8.483  13.888
72691SOL    HW219848   2.512   8.376  13.991
72692SOL     OW19849  14.134   4.576  12.811
72692SOL    HW119850  14.191   4.622  12.750
72692SOL    HW219851  14.193   4.524  12.865
72693SOL     OW19852  11.483   9.299   4.409
72693SOL    HW119853  11.510   9.390   4.396
72693SOL    HW219854  11.494   9.258   4.323
72694SOL     OW19855  12.128  11.249   4.783
72694SOL    HW119856  12.168  11.292   4.709
72694SOL    HW219857  12.162  11.160   4.781
72695SOL     OW19858   4.096   4.809   7.245
72695SOL    HW119859   4.112   4.803   7.339
72695SOL    HW219860   4.157   4.746   7.206
72696SOL     OW19861   0.038  10.825   4.542
72696SOL    HW119862  14.833  10.793   4.505
72696SOL    HW219863   0.100  10.754   4.526
72697SOL     OW19864   6.421   4.353   6.642
72697SOL    HW119865   6.453   4.298   6.570
72697SOL    HW219866   6.396   4.292   6.710
72698SOL     OW19867   6.362   3.955   1.499
72698SOL    HW119868   6.399   3.953   1.411
72698SOL    HW219869   6.382   3.868   1.535
72699SOL     OW19870   6.793   8.611   6.399
72699SOL    HW119871   6.868   8.618   6.340
72699SOL    HW219872   6.746   8.694   6.390
72700SOL     OW19873  11.619   1.529   7.836
72700SOL    HW119874  11.564   1.464   7.880
72700SOL    HW219875  11.565   1.561   7.764
72701SOL     OW19876   0.122   1.938   5.161
72701SOL    HW119877   0.170   1.999   5.105
72701SOL    HW219878   0.143   1.966   5.251
72702SOL     OW19879   1.304   4.944   3.271
72702SOL    HW119880   1.305   4.947   3.175
72702SOL    HW219881   1.359   4.869   3.293
72703SOL     OW19882  11.253   8.457   4.034
72703SOL    HW119883  11.194   8.382   4.039
72703SOL    HW219884  11.218   8.520   4.097
72704SOL     OW19885   8.452   9.956  10.496
72704SOL    HW119886   8.371   9.990  10.456
72704SOL    HW219887   8.441   9.861  10.492
72705SOL     OW19888   2.058   2.602   8.597
72705SOL    HW119889   2.130   2.633   8.651
72705SOL    HW219890   2.042   2.674   8.536
72706SOL     OW19891   8.085   2.448   1.826
72706SOL    HW119892   8.131   2.494   1.757
72706SOL    HW219893   8.032   2.382   1.780
72707SOL     OW19894   0.269   8.282  13.250
72707SOL    HW119895   0.198   8.227  13.282
72707SOL    HW219896   0.314   8.227  13.185
72708SOL     OW19897  13.125   6.373  10.287
72708SOL    HW119898  13.155   6.300  10.342
72708SOL    HW219899  13.205   6.409  10.249
72709SOL     OW19900   5.888   8.059   4.482
72709SOL    HW119901   5.835   7.981   4.466
72709SOL    HW219902   5.979   8.027   4.480
72710SOL     OW19903  11.104  12.659   3.097
72710SOL    HW119904  11.060  12.658   3.011
72710SOL    HW219905  11.036  12.686   3.158
72711SOL     OW19906   7.760   8.710   5.412
72711SOL    HW119907   7.816   8.768   5.362
72711SOL    HW219908   7.676   8.711   5.366
72712SOL     OW19909   4.647  11.925   8.762
72712SOL    HW119910   4.570  11.888   8.719
72712SOL    HW219911   4.710  11.940   8.692
72713SOL     OW19912   2.451  14.514   8.610
72713SOL    HW119913   2.454  14.583   8.677
72713SOL    HW219914   2.369  14.468   8.626
72714SOL     OW19915   2.212  13.852   6.627
72714SOL    HW119916   2.141  13.909   6.596
72714SOL    HW219917   2.261  13.907   6.688
72715SOL     OW19918   8.827   3.585   8.214
72715SOL    HW119919   8.866   3.583   8.127
72715SOL    HW219920   8.869   3.660   8.257
72716SOL     OW19921   9.111   5.217   7.782
72716SOL    HW119922   9.065   5.142   7.745
72716SOL    HW219923   9.131   5.273   7.707
72717SOL     OW19924   5.389  12.629  14.227
72717SOL    HW119925   5.414  12.636  14.319
72717SOL    HW219926   5.443  12.696  14.183
72718SOL     OW19927  10.147   5.115   3.614
72718SOL    HW119928  10.238   5.084   3.619
72718SOL    HW219929  10.147   5.177   3.540
72719SOL     OW19930   6.086   7.757   5.335
72719SOL    HW119931   6.124   7.675   5.369
72719SOL    HW219932   6.066   7.808   5.414
72720SOL     OW19933   5.302   0.991   6.835
72720SOL    HW119934   5.394   1.018   6.826
72720SOL    HW219935   5.281   1.008   6.927
72721SOL     OW19936   4.580   0.997  12.030
72721SOL    HW119937   4.563   1.082  12.071
72721SOL    HW219938   4.604   0.939  12.103
72722SOL     OW19939   6.339   0.608   0.725
72722SOL    HW119940   6.319   0.592   0.817
72722SOL    HW219941   6.397   0.684   0.726
72723SOL     OW19942  12.051  10.447   3.410
72723SOL    HW119943  12.003  10.401   3.341
72723SOL    HW219944  12.097  10.378   3.457
72724SOL     OW19945   1.975   2.723  12.326
72724SOL    HW119946   1.918   2.784  12.374
72724SOL    HW219947   2.064   2.747  12.352
72725SOL     OW19948   7.589   6.111   6.990
72725SOL    HW119949   7.574   6.167   7.066
72725SOL    HW219950   7.623   6.029   7.026
72726SOL     OW19951   7.508  13.829  12.550
72726SOL    HW119952   7.559  13.904  12.582
72726SOL    HW219953   7.512  13.836  12.455
72727SOL     OW19954   1.638   5.963   6.025
72727SOL    HW119955   1.596   6.049   6.031
72727SOL    HW219956   1.717   5.972   6.078
72728SOL     OW19957  11.307  11.577   9.192
72728SOL    HW119958  11.268  11.501   9.235
72728SOL    HW219959  11.298  11.559   9.098
72729SOL     OW19960   0.557   3.105   0.602
72729SOL    HW119961   0.503   3.091   0.524
72729SOL    HW219962   0.538   3.195   0.628
72730SOL     OW19963  10.096  11.860   3.571
72730SOL    HW119964  10.019  11.877   3.625
72730SOL    HW219965  10.169  11.858   3.633
72731SOL     OW19966   2.834   1.864  14.779
72731SOL    HW119967   2.883   1.842  14.700
72731SOL    HW219968   2.895   1.914  14.832
72732SOL     OW19969   0.112  11.907   3.158
72732SOL    HW119970   0.199  11.880   3.126
72732SOL    HW219971   0.069  11.944   3.081
72733SOL     OW19972   4.008   6.249  12.757
72733SOL    HW119973   3.993   6.234  12.850
72733SOL    HW219974   4.024   6.162  12.720
72734SOL     OW19975   4.601   2.022   9.956
72734SOL    HW119976   4.636   2.070   9.880
72734SOL    HW219977   4.512   2.000   9.931
72735SOL     OW19978  14.298   3.459   2.417
72735SOL    HW119979  14.322   3.520   2.487
72735SOL    HW219980  14.268   3.515   2.346
72736SOL     OW19981   2.201   8.411  13.179
72736SOL    HW119982   2.153   8.333  13.150
72736SOL    HW219983   2.134   8.474  13.202
72737SOL     OW19984   4.501  12.569  11.188
72737SOL    HW119985   4.434  12.557  11.255
72737SOL    HW219986   4.453  12.567  11.105
72738SOL     OW19987  10.841  11.097   9.057
72738SOL    HW119988  10.765  11.070   9.108
72738SOL    HW219989  10.882  11.015   9.028
72739SOL     OW19990   1.388   9.953   3.048
72739SOL    HW119991   1.470   9.994   3.020
72739SOL    HW219992   1.320  10.005   3.006
72740SOL     OW19993   8.042   3.542  13.094
72740SOL    HW119994   8.081   3.456  13.077
72740SOL    HW219995   8.006   3.535  13.182
72741SOL     OW19996  14.396   6.970  11.669
72741SOL    HW119997  14.353   7.018  11.740
72741SOL    HW219998  14.456   7.033  11.630
72742SOL     OW19999   3.143   1.254   7.111
72742SOL    HW120000   3.236   1.271   7.094
72742SOL    HW220001   3.135   1.159   7.103
72743SOL     OW20002   0.135  10.615   3.093
72743SOL    HW120003   0.128  10.585   3.183
72743SOL    HW220004   0.208  10.565   3.056
72744SOL     OW20005   0.001   5.343   3.292
72744SOL    HW120006  14.793   5.386   3.288
72744SOL    HW220007   0.065   5.415   3.294
72745SOL     OW20008  14.375  12.275  11.067
72745SOL    HW120009  14.363  12.266  11.161
72745SOL    HW220010  14.448  12.336  11.058
72746SOL     OW20011  14.776   6.744  13.904
72746SOL    HW120012  14.826   6.737  13.823
72746SOL    HW220013  14.730   6.828  13.897
72747SOL     OW20014   8.550   1.571   6.526
72747SOL    HW120015   8.635   1.530   6.544
72747SOL    HW220016   8.567   1.631   6.454
72748SOL     OW20017   7.761  11.745  14.418
72748SOL    HW120018   7.800  11.806  14.481
72748SOL    HW220019   7.690  11.702  14.466
72749SOL     OW20020   5.270   0.243   9.523
72749SOL    HW120021   5.308   0.192   9.452
72749SOL    HW220022   5.176   0.247   9.503
72750SOL     OW20023   6.571  11.475   4.677
72750SOL    HW120024   6.506  11.475   4.607
72750SOL    HW220025   6.610  11.387   4.673
72751SOL     OW20026   6.813   8.504   2.100
72751SOL    HW120027   6.832   8.442   2.029
72751SOL    HW220028   6.816   8.590   2.058
72752SOL     OW20029  14.229  11.285   4.385
72752SOL    HW120030  14.267  11.199   4.403
72752SOL    HW220031  14.303  11.346   4.390
72753SOL     OW20032   8.565   6.212   9.760
72753SOL    HW120033   8.526   6.286   9.808
72753SOL    HW220034   8.490   6.157   9.737
72754SOL     OW20035   1.257   8.525   4.507
72754SOL    HW120036   1.323   8.528   4.438
72754SOL    HW220037   1.179   8.490   4.463
72755SOL     OW20038  14.436   8.257  12.458
72755SOL    HW120039  14.473   8.345  12.458
72755SOL    HW220040  14.367   8.260  12.525
72756SOL     OW20041   1.284   1.972  14.488
72756SOL    HW120042   1.372   1.978  14.526
72756SOL    HW220043   1.265   2.060  14.457
72757SOL     OW20044   2.137   4.525   9.574
72757SOL    HW120045   2.204   4.512   9.507
72757SOL    HW220046   2.089   4.603   9.546
72758SOL     OW20047   0.488   3.387   2.259
72758SOL    HW120048   0.566   3.333   2.270
72758SOL    HW220049   0.517   3.476   2.280
72759SOL     OW20050   7.437  10.787  10.809
72759SOL    HW120051   7.493  10.791  10.732
72759SOL    HW220052   7.480  10.725  10.867
72760SOL     OW20053   7.881   5.612   7.121
72760SOL    HW120054   7.856   5.546   7.057
72760SOL    HW220055   7.849   5.579   7.205
72761SOL     OW20056   1.204   0.533   7.788
72761SOL    HW120057   1.165   0.617   7.762
72761SOL    HW220058   1.131   0.471   7.783
72762SOL     OW20059  12.377   3.450  14.718
72762SOL    HW120060  12.288   3.477  14.740
72762SOL    HW220061  12.391   3.483  14.629
72763SOL     OW20062   5.797   9.441  14.345
72763SOL    HW120063   5.880   9.399  14.320
72763SOL    HW220064   5.787   9.513  14.283
72764SOL     OW20065   7.228  13.724   0.530
72764SOL    HW120066   7.237  13.747   0.438
72764SOL    HW220067   7.281  13.645   0.541
72765SOL     OW20068   3.642   1.900   7.298
72765SOL    HW120069   3.562   1.931   7.256
72765SOL    HW220070   3.711   1.955   7.260
72766SOL     OW20071   3.400   4.688  12.230
72766SOL    HW120072   3.431   4.630  12.160
72766SOL    HW220073   3.472   4.750  12.242
72767SOL     OW20074   5.240  10.180   6.457
72767SOL    HW120075   5.287  10.165   6.374
72767SOL    HW220076   5.252  10.099   6.506
72768SOL     OW20077   7.971  12.845   0.369
72768SOL    HW120078   8.056  12.836   0.325
72768SOL    HW220079   7.937  12.929   0.339
72769SOL     OW20080   0.069   9.995   0.670
72769SOL    HW120081   0.120  10.054   0.615
72769SOL    HW220082   0.119   9.988   0.752
72770SOL     OW20083   2.678  10.733  12.042
72770SOL    HW120084   2.640  10.801  12.097
72770SOL    HW220085   2.772  10.737  12.060
72771SOL     OW20086  14.074   8.774   1.608
72771SOL    HW120087  14.040   8.840   1.548
72771SOL    HW220088  14.101   8.824   1.685
72772SOL     OW20089   1.004   1.237   0.102
72772SOL    HW120090   0.913   1.230   0.072
72772SOL    HW220091   1.056   1.242   0.021
72773SOL     OW20092   6.594   4.600  12.382
72773SOL    HW120093   6.602   4.508  12.359
72773SOL    HW220094   6.681   4.624  12.414
72774SOL     OW20095   4.697  10.192  10.168
72774SOL    HW120096   4.689  10.179  10.073
72774SOL    HW220097   4.787  10.222  10.181
72775SOL     OW20098   1.202   6.010  13.252
72775SOL    HW120099   1.269   6.045  13.194
72775SOL    HW220100   1.153   5.948  13.198
72776SOL     OW20101   4.334   2.391   1.463
72776SOL    HW120102   4.317   2.327   1.532
72776SOL    HW220103   4.312   2.345   1.382
72777SOL     OW20104  12.518   0.061  14.364
72777SOL    HW120105  12.606   0.095  14.348
72777SOL    HW220106  12.469   0.137  14.395
72778SOL     OW20107  14.308  10.261   0.195
72778SOL    HW120108  14.321  10.300   0.282
72778SOL    HW220109  14.283  10.335   0.139
72779SOL     OW20110   5.714   1.795   6.168
72779SOL    HW120111   5.664   1.790   6.250
72779SOL    HW220112   5.780   1.726   6.176
72780SOL     OW20113   2.414  14.639   6.395
72780SOL    HW120114   2.485  14.647   6.331
72780SOL    HW220115   2.344  14.593   6.348
72781SOL     OW20116  14.479   5.357   9.875
72781SOL    HW120117  14.484   5.380   9.782
72781SOL    HW220118  14.537   5.421   9.918
72782SOL     OW20119   3.319  10.944  11.183
72782SOL    HW120120   3.224  10.960  11.180
72782SOL    HW220121   3.349  10.994  11.259
72783SOL     OW20122   5.652   1.721  10.686
72783SOL    HW120123   5.743   1.724  10.715
72783SOL    HW220124   5.614   1.804  10.715
72784SOL     OW20125  11.874  11.609  10.623
72784SOL    HW120126  11.884  11.671  10.695
72784SOL    HW220127  11.920  11.649  10.550
72785SOL     OW20128   9.768   8.688  14.612
72785SOL    HW120129   9.848   8.740  14.603
72785SOL    HW220130   9.797   8.607  14.654
72786SOL     OW20131   3.225   3.478   9.133
72786SOL    HW120132   3.161   3.549   9.138
72786SOL    HW220133   3.306   3.520   9.103
72787SOL     OW20134   0.530   9.617   6.885
72787SOL    HW120135   0.523   9.673   6.808
72787SOL    HW220136   0.577   9.670   6.949
72788SOL     OW20137  10.671   0.208   7.377
72788SOL    HW120138  10.617   0.129   7.370
72788SOL    HW220139  10.646   0.261   7.301
72789SOL     OW20140   4.421   8.482  13.753
72789SOL    HW120141   4.368   8.440  13.685
72789SOL    HW220142   4.361   8.491  13.827
72790SOL     OW20143   6.995   2.683   8.283
72790SOL    HW120144   7.006   2.594   8.316
72790SOL    HW220145   7.084   2.712   8.262
72791SOL     OW20146   7.618   1.503   3.272
72791SOL    HW120147   7.631   1.576   3.211
72791SOL    HW220148   7.693   1.509   3.332
72792SOL     OW20149   2.954   4.397   0.669
72792SOL    HW120150   2.947   4.326   0.605
72792SOL    HW220151   2.864   4.424   0.686
72793SOL     OW20152  14.654   2.803   2.962
72793SOL    HW120153  14.736   2.851   2.971
72793SOL    HW220154  14.638   2.799   2.868
72794SOL     OW20155   9.955   0.712   2.076
72794SOL    HW120156  10.043   0.675   2.070
72794SOL    HW220157   9.949   0.744   2.166
72795SOL     OW20158  12.003   5.315   7.320
72795SOL    HW120159  12.077   5.357   7.363
72795SOL    HW220160  12.000   5.227   7.357
72796SOL     OW20161   3.567   8.566   6.149
72796SOL    HW120162   3.609   8.499   6.095
72796SOL    HW220163   3.499   8.519   6.197
72797SOL     OW20164   8.980   5.092   1.717
72797SOL    HW120165   8.959   5.118   1.806
72797SOL    HW220166   9.065   5.048   1.724
72798SOL     OW20167   9.573   0.488   4.733
72798SOL    HW120168   9.619   0.476   4.816
72798SOL    HW220169   9.627   0.551   4.685
72799SOL     OW20170   0.432   3.008   2.348
72799SOL    HW120171   0.519   2.969   2.348
72799SOL    HW220172   0.430   3.061   2.268
72800SOL     OW20173  13.183   6.665   5.762
72800SOL    HW120174  13.114   6.710   5.810
72800SOL    HW220175  13.232   6.734   5.719
72801SOL     OW20176   1.962   7.143   9.625
72801SOL    HW120177   1.976   7.205   9.554
72801SOL    HW220178   2.048   7.103   9.639
72802SOL     OW20179   5.128  13.946   2.699
72802SOL    HW120180   5.206  13.998   2.715
72802SOL    HW220181   5.158  13.875   2.641
72803SOL     OW20182   2.278  12.244   3.641
72803SOL    HW120183   2.279  12.151   3.667
72803SOL    HW220184   2.205  12.281   3.689
72804SOL     OW20185  14.256   7.288   8.241
72804SOL    HW120186  14.162   7.302   8.252
72804SOL    HW220187  14.263   7.226   8.169
72805SOL     OW20188   2.853   6.383   4.296
72805SOL    HW120189   2.853   6.326   4.374
72805SOL    HW220190   2.760   6.397   4.278
72806SOL     OW20191   8.229  13.704   8.204
72806SOL    HW120192   8.286  13.754   8.262
72806SOL    HW220193   8.157  13.676   8.261
72807SOL     OW20194  12.415   2.149   7.109
72807SOL    HW120195  12.433   2.106   7.025
72807SOL    HW220196  12.338   2.204   7.092
72808SOL     OW20197  10.493  12.612  10.717
72808SOL    HW120198  10.404  12.618  10.751
72808SOL    HW220199  10.488  12.547  10.647
72809SOL     OW20200   9.771   9.952   8.970
72809SOL    HW120201   9.693   9.897   8.961
72809SOL    HW220202   9.759   9.997   9.054
72810SOL     OW20203   7.224   9.842  12.670
72810SOL    HW120204   7.236   9.778  12.741
72810SOL    HW220205   7.160   9.802  12.612
72811SOL     OW20206   0.905  12.994   7.606
72811SOL    HW120207   0.899  12.991   7.511
72811SOL    HW220208   0.820  13.026   7.635
72812SOL     OW20209  13.476   3.690  14.866
72812SOL    HW120210  13.459   3.722   0.077
72812SOL    HW220211  13.413   3.619  14.853
72813SOL     OW20212   2.412   7.870   9.211
72813SOL    HW120213   2.429   7.922   9.290
72813SOL    HW220214   2.467   7.910   9.144
72814SOL     OW20215  11.949  10.403   7.497
72814SOL    HW120216  11.909  10.444   7.574
72814SOL    HW220217  12.016  10.345   7.534
72815SOL     OW20218   4.875   6.345  14.435
72815SOL    HW120219   4.805   6.281  14.422
72815SOL    HW220220   4.903   6.331  14.525
72816SOL     OW20221  10.968   0.923   5.140
72816SOL    HW120222  10.987   1.016   5.154
72816SOL    HW220223  11.030   0.896   5.072
72817SOL     OW20224   1.353  11.611  13.405
72817SOL    HW120225   1.346  11.647  13.317
72817SOL    HW220226   1.329  11.684  13.463
72818SOL     OW20227  12.465  10.549  12.280
72818SOL    HW120228  12.394  10.610  12.259
72818SOL    HW220229  12.479  10.500  12.199
72819SOL     OW20230   8.091   7.932  13.638
72819SOL    HW120231   8.135   7.905  13.557
72819SOL    HW220232   8.142   7.891  13.708
72820SOL     OW20233  13.780   5.557  13.094
72820SOL    HW120234  13.856   5.576  13.038
72820SOL    HW220235  13.811   5.488  13.153
72821SOL     OW20236   8.670   0.276  12.288
72821SOL    HW120237   8.654   0.370  12.282
72821SOL    HW220238   8.658   0.244  12.198
72822SOL     OW20239   1.379   5.890   8.272
72822SOL    HW120240   1.386   5.985   8.262
72822SOL    HW220241   1.459   5.856   8.231
72823SOL     OW20242  11.597  12.992   2.622
72823SOL    HW120243  11.630  13.047   2.693
72823SOL    HW220244  11.502  13.003   2.626
72824SOL     OW20245  10.537   3.855   5.721
72824SOL    HW120246  10.465   3.845   5.658
72824SOL    HW220247  10.523   3.784   5.783
72825SOL     OW20248   1.827   7.356   4.817
72825SOL    HW120249   1.835   7.449   4.837
72825SOL    HW220250   1.757   7.351   4.752
72826SOL     OW20251  13.446   6.045   6.916
72826SOL    HW120252  13.375   6.100   6.883
72826SOL    HW220253  13.428   6.036   7.010
72827SOL     OW20254   8.064   8.352   1.026
72827SOL    HW120255   8.157   8.358   1.004
72827SOL    HW220256   8.063   8.348   1.122
72828SOL     OW20257   9.916  11.966   1.309
72828SOL    HW120258   9.859  12.010   1.373
72828SOL    HW220259   9.889  11.875   1.312
72829SOL     OW20260   1.279   6.722   2.417
72829SOL    HW120261   1.224   6.653   2.453
72829SOL    HW220262   1.312   6.687   2.334
72830SOL     OW20263   2.538   4.723   0.097
72830SOL    HW120264   2.511   4.638   0.061
72830SOL    HW220265   2.621   4.742   0.055
72831SOL     OW20266   7.922   4.122   1.449
72831SOL    HW120267   7.834   4.125   1.411
72831SOL    HW220268   7.908   4.140   1.543
72832SOL     OW20269   4.786   6.751  10.881
72832SOL    HW120270   4.729   6.760  10.805
72832SOL    HW220271   4.826   6.664  10.871
72833SOL     OW20272   7.849   6.508   2.151
72833SOL    HW120273   7.867   6.601   2.140
72833SOL    HW220274   7.840   6.496   2.245
72834SOL     OW20275  12.429  12.328   4.732
72834SOL    HW120276  12.437  12.370   4.818
72834SOL    HW220277  12.440  12.399   4.669
72835SOL     OW20278   9.899   4.761  13.612
72835SOL    HW120279   9.944   4.681  13.638
72835SOL    HW220280   9.856   4.739  13.529
72836SOL     OW20281   4.971  14.321  14.593
72836SOL    HW120282   5.056  14.330  14.637
72836SOL    HW220283   4.932  14.408  14.597
72837SOL     OW20284   5.720   4.258   2.995
72837SOL    HW120285   5.676   4.232   3.076
72837SOL    HW220286   5.788   4.192   2.983
72838SOL     OW20287   5.471   2.842  11.844
72838SOL    HW120288   5.416   2.777  11.800
72838SOL    HW220289   5.409   2.899  11.889
72839SOL     OW20290  11.055   0.887   1.634
72839SOL    HW120291  11.017   0.814   1.586
72839SOL    HW220292  11.149   0.873   1.629
72840SOL     OW20293  12.038  11.739   7.629
72840SOL    HW120294  11.988  11.811   7.667
72840SOL    HW220295  11.974  11.671   7.610
72841SOL     OW20296   6.059   1.363   2.837
72841SOL    HW120297   6.049   1.450   2.797
72841SOL    HW220298   6.083   1.306   2.764
72842SOL     OW20299  13.038   4.315  13.385
72842SOL    HW120300  13.131   4.325  13.409
72842SOL    HW220301  13.035   4.233  13.337
72843SOL     OW20302   6.633  10.242  11.881
72843SOL    HW120303   6.723  10.253  11.909
72843SOL    HW220304   6.589  10.203  11.957
72844SOL     OW20305   0.879   9.453   4.971
72844SOL    HW120306   0.786   9.451   4.991
72844SOL    HW220307   0.919   9.498   5.046
72845SOL     OW20308   6.185  11.941  12.219
72845SOL    HW120309   6.264  11.977  12.180
72845SOL    HW220310   6.193  11.960  12.312
72846SOL     OW20311   0.120  11.681  14.549
72846SOL    HW120312   0.129  11.593  14.585
72846SOL    HW220313   0.100  11.668  14.457
72847SOL     OW20314  13.032   3.086   8.853
72847SOL    HW120315  13.050   3.169   8.809
72847SOL    HW220316  12.952   3.102   8.903
72848SOL     OW20317   6.276  10.212   9.166
72848SOL    HW120318   6.245  10.253   9.085
72848SOL    HW220319   6.197  10.205   9.221
72849SOL     OW20320   7.250   8.731  13.331
72849SOL    HW120321   7.322   8.669  13.350
72849SOL    HW220322   7.265   8.758  13.241
72850SOL     OW20323  10.451   6.111   9.689
72850SOL    HW120324  10.443   6.179   9.622
72850SOL    HW220325  10.448   6.158   9.772
72851SOL     OW20326  13.441  12.170   3.051
72851SOL    HW120327  13.499  12.247   3.051
72851SOL    HW220328  13.365  12.197   2.999
72852SOL     OW20329  13.690   9.726   2.377
72852SOL    HW120330  13.769   9.703   2.327
72852SOL    HW220331  13.692   9.822   2.382
72853SOL     OW20332   7.466   9.910  11.075
72853SOL    HW120333   7.421   9.927  11.158
72853SOL    HW220334   7.496   9.996  11.046
72854SOL     OW20335   3.216  10.015   1.928
72854SOL    HW120336   3.237  10.020   1.835
72854SOL    HW220337   3.237   9.924   1.952
72855SOL     OW20338   6.614   2.303   6.507
72855SOL    HW120339   6.620   2.208   6.492
72855SOL    HW220340   6.701   2.336   6.483
72856SOL     OW20341   7.111  12.726  11.371
72856SOL    HW120342   7.022  12.692  11.365
72856SOL    HW220343   7.139  12.739  11.281
72857SOL     OW20344  13.123  14.607  14.132
72857SOL    HW120345  13.110  14.621  14.226
72857SOL    HW220346  13.134  14.695  14.096
72858SOL     OW20347  12.066   5.253   2.468
72858SOL    HW120348  12.064   5.344   2.439
72858SOL    HW220349  11.978   5.220   2.451
72859SOL     OW20350   3.365   1.669  13.264
72859SOL    HW120351   3.335   1.634  13.180
72859SOL    HW220352   3.341   1.762  13.261
72860SOL     OW20353   1.932   0.328   8.347
72860SOL    HW120354   1.988   0.264   8.302
72860SOL    HW220355   1.959   0.322   8.439
72861SOL     OW20356   5.031  14.620  13.910
72861SOL    HW120357   4.996  14.632  13.822
72861SOL    HW220358   5.114  14.574  13.898
72862SOL     OW20359   2.480  10.927   9.700
72862SOL    HW120360   2.537  10.924   9.776
72862SOL    HW220361   2.392  10.942   9.736
72863SOL     OW20362  13.291  10.757   1.835
72863SOL    HW120363  13.332  10.683   1.791
72863SOL    HW220364  13.269  10.819   1.765
72864SOL     OW20365  11.827  13.011   7.582
72864SOL    HW120366  11.736  13.041   7.587
72864SOL    HW220367  11.868  13.070   7.519
72865SOL     OW20368  12.625   7.214   9.546
72865SOL    HW120369  12.714   7.245   9.559
72865SOL    HW220370  12.606   7.161   9.623
72866SOL     OW20371   4.993   9.806   5.396
72866SOL    HW120372   4.976   9.855   5.315
72866SOL    HW220373   5.083   9.829   5.419
72867SOL     OW20374   7.105  13.691   9.535
72867SOL    HW120375   7.132  13.600   9.524
72867SOL    HW220376   7.187  13.740   9.539
72868SOL     OW20377  13.669   8.922   4.148
72868SOL    HW120378  13.718   9.004   4.157
72868SOL    HW220379  13.598   8.929   4.212
72869SOL     OW20380  11.764   3.401   4.218
72869SOL    HW120381  11.766   3.308   4.196
72869SOL    HW220382  11.855   3.423   4.240
72870SOL     OW20383   6.662   4.225   4.932
72870SOL    HW120384   6.755   4.242   4.942
72870SOL    HW220385   6.630   4.298   4.879
72871SOL     OW20386  13.732   3.504   5.243
72871SOL    HW120387  13.646   3.525   5.208
72871SOL    HW220388  13.743   3.564   5.317
72872SOL     OW20389   0.593  14.565  10.990
72872SOL    HW120390   0.615  14.592  10.901
72872SOL    HW220391   0.543  14.638  11.026
72873SOL     OW20392   1.166   4.613   4.725
72873SOL    HW120393   1.134   4.522   4.730
72873SOL    HW220394   1.092   4.661   4.687
72874SOL     OW20395   0.960   4.742   1.915
72874SOL    HW120396   0.955   4.819   1.971
72874SOL    HW220397   0.969   4.669   1.975
72875SOL     OW20398   1.252   7.438   3.558
72875SOL    HW120399   1.291   7.351   3.550
72875SOL    HW220400   1.170   7.433   3.509
72876SOL     OW20401   1.306   8.402   9.577
72876SOL    HW120402   1.248   8.477   9.588
72876SOL    HW220403   1.255   8.339   9.525
72877SOL     OW20404  10.258   4.264   4.228
72877SOL    HW120405  10.255   4.174   4.197
72877SOL    HW220406  10.169   4.282   4.259
72878SOL     OW20407  10.530  13.228   4.697
72878SOL    HW120408  10.473  13.176   4.641
72878SOL    HW220409  10.504  13.319   4.680
72879SOL     OW20410   6.253   5.469  14.687
72879SOL    HW120411   6.162   5.445  14.704
72879SOL    HW220412   6.257   5.563  14.706
72880SOL     OW20413   6.575   4.563   0.420
72880SOL    HW120414   6.669   4.545   0.421
72880SOL    HW220415   6.557   4.594   0.332
72881SOL     OW20416  14.130   2.625  13.579
72881SOL    HW120417  14.185   2.700  13.601
72881SOL    HW220418  14.144   2.563  13.651
72882SOL     OW20419  14.385   0.641   8.750
72882SOL    HW120420  14.421   0.725   8.777
72882SOL    HW220421  14.293   0.659   8.731
72883SOL     OW20422   0.356   9.638  13.496
72883SOL    HW120423   0.274   9.680  13.471
72883SOL    HW220424   0.342   9.545  13.478
72884SOL     OW20425  13.067  11.592  13.987
72884SOL    HW120426  13.123  11.614  13.913
72884SOL    HW220427  13.128  11.568  14.057
72885SOL     OW20428   5.564   1.397   4.760
72885SOL    HW120429   5.531   1.461   4.823
72885SOL    HW220430   5.497   1.393   4.692
72886SOL     OW20431   8.345   2.295   7.870
72886SOL    HW120432   8.394   2.286   7.788
72886SOL    HW220433   8.322   2.206   7.895
72887SOL     OW20434   0.428   1.454   4.493
72887SOL    HW120435   0.417   1.360   4.474
72887SOL    HW220436   0.341   1.484   4.516
72888SOL     OW20437   4.432   7.790   5.880
72888SOL    HW120438   4.399   7.856   5.941
72888SOL    HW220439   4.527   7.794   5.889
72889SOL     OW20440   4.903   8.391   2.825
72889SOL    HW120441   4.835   8.324   2.831
72889SOL    HW220442   4.968   8.365   2.891
72890SOL     OW20443   7.037   3.721   2.079
72890SOL    HW120444   6.949   3.756   2.062
72890SOL    HW220445   7.096   3.793   2.059
72891SOL     OW20446  13.636   5.817   2.654
72891SOL    HW120447  13.619   5.731   2.616
72891SOL    HW220448  13.718   5.806   2.703
72892SOL     OW20449   2.732   1.815   4.609
72892SOL    HW120450   2.649   1.831   4.564
72892SOL    HW220451   2.791   1.882   4.574
72893SOL     OW20452  14.062  10.374   1.533
72893SOL    HW120453  14.143  10.348   1.489
72893SOL    HW220454  14.070  10.338   1.621
72894SOL     OW20455  13.311   3.080   7.982
72894SOL    HW120456  13.349   3.049   7.900
72894SOL    HW220457  13.324   3.007   8.043
72895SOL     OW20458   5.945  14.779   0.343
72895SOL    HW120459   5.931  14.701   0.290
72895SOL    HW220460   6.028  14.763   0.388
72896SOL     OW20461  13.625   7.666   6.654
72896SOL    HW120462  13.668   7.632   6.576
72896SOL    HW220463  13.549   7.714   6.620
72897SOL     OW20464   7.786   0.692   6.997
72897SOL    HW120465   7.852   0.682   6.928
72897SOL    HW220466   7.836   0.691   7.078
72898SOL     OW20467   7.013   5.071  11.422
72898SOL    HW120468   7.072   5.000  11.396
72898SOL    HW220469   7.051   5.150  11.382
72899SOL     OW20470  12.639   2.210  11.984
72899SOL    HW120471  12.658   2.222  11.891
72899SOL    HW220472  12.551   2.171  11.986
72900SOL     OW20473  13.756  13.045   5.361
72900SOL    HW120474  13.837  13.066   5.408
72900SOL    HW220475  13.687  13.051   5.428
72901SOL     OW20476  12.631  14.537  14.027
72901SOL    HW120477  12.588  14.543  13.942
72901SOL    HW220478  12.558  14.529  14.089
72902SOL     OW20479  14.733   8.373  14.110
72902SOL    HW120480  14.727   8.458  14.155
72902SOL    HW220481  14.663   8.321  14.148
72903SOL     OW20482  12.279   7.718  11.452
72903SOL    HW120483  12.332   7.649  11.492
72903SOL    HW220484  12.334   7.752  11.381
72904SOL     OW20485   2.875  13.180  12.895
72904SOL    HW120486   2.879  13.096  12.942
72904SOL    HW220487   2.794  13.221  12.926
72905SOL     OW20488  12.083   1.886   2.590
72905SOL    HW120489  12.036   1.803   2.591
72905SOL    HW220490  12.163   1.870   2.640
72906SOL     OW20491   8.957  13.379  11.836
72906SOL    HW120492   8.960  13.457  11.891
72906SOL    HW220493   8.902  13.317  11.884
72907SOL     OW20494  13.272  13.626   2.098
72907SOL    HW120495  13.312  13.585   2.175
72907SOL    HW220496  13.188  13.659   2.130
72908SOL     OW20497   1.258   5.379  12.926
72908SOL    HW120498   1.265   5.284  12.913
72908SOL    HW220499   1.178   5.403  12.879
72909SOL     OW20500  11.330   3.567   8.571
72909SOL    HW120501  11.340   3.641   8.512
72909SOL    HW220502  11.388   3.500   8.535
72910SOL     OW20503  11.429   7.458   1.858
72910SOL    HW120504  11.404   7.550   1.866
72910SOL    HW220505  11.522   7.461   1.834
72911SOL     OW20506  12.775  13.936   1.101
72911SOL    HW120507  12.867  13.943   1.124
72911SOL    HW220508  12.749  14.025   1.077
72912SOL     OW20509   6.225   8.927   6.465
72912SOL    HW120510   6.245   8.833   6.469
72912SOL    HW220511   6.134   8.930   6.437
72913SOL     OW20512   3.821   8.831   7.594
72913SOL    HW120513   3.799   8.790   7.511
72913SOL    HW220514   3.863   8.762   7.645
72914SOL     OW20515   1.531  12.471   5.693
72914SOL    HW120516   1.469  12.475   5.619
72914SOL    HW220517   1.546  12.377   5.706
72915SOL     OW20518   7.168  13.083   2.705
72915SOL    HW120519   7.221  13.088   2.785
72915SOL    HW220520   7.160  13.174   2.677
72916SOL     OW20521   1.070  13.287   4.578
72916SOL    HW120522   0.985  13.329   4.590
72916SOL    HW220523   1.081  13.285   4.483
72917SOL     OW20524   6.860  11.012  10.687
72917SOL    HW120525   6.772  10.975  10.683
72917SOL    HW220526   6.913  10.944  10.728
72918SOL     OW20527  12.443   4.541   1.342
72918SOL    HW120528  12.509   4.605   1.315
72918SOL    HW220529  12.365   4.593   1.358
72919SOL     OW20530  11.849   4.204  11.750
72919SOL    HW120531  11.776   4.144  11.738
72919SOL    HW220532  11.812   4.279  11.797
72920SOL     OW20533  10.591  12.869   0.152
72920SOL    HW120534  10.650  12.798   0.126
72920SOL    HW220535  10.639  12.918   0.218
72921SOL     OW20536   1.768  14.481   5.371
72921SOL    HW120537   1.692  14.461   5.426
72921SOL    HW220538   1.816  14.399   5.366
72922SOL     OW20539   5.500   1.521  10.556
72922SOL    HW120540   5.567   1.481  10.501
72922SOL    HW220541   5.549   1.571  10.621
72923SOL     OW20542  13.387   9.858   6.562
72923SOL    HW120543  13.337   9.935   6.588
72923SOL    HW220544  13.444   9.888   6.491
72924SOL     OW20545  13.517   4.953   3.925
72924SOL    HW120546  13.559   4.868   3.911
72924SOL    HW220547  13.502   4.958   4.020
72925SOL     OW20548   1.610   7.764   6.951
72925SOL    HW120549   1.576   7.845   6.991
72925SOL    HW220550   1.608   7.700   7.022
72926SOL     OW20551   6.962   5.272  11.980
72926SOL    HW120552   7.045   5.305  11.947
72926SOL    HW220553   6.947   5.322  12.060
72927SOL     OW20554   0.602   8.845   2.753
72927SOL    HW120555   0.529   8.822   2.811
72927SOL    HW220556   0.673   8.870   2.812
72928SOL     OW20557   4.314  11.113   8.167
72928SOL    HW120558   4.245  11.047   8.170
72928SOL    HW220559   4.268  11.196   8.173
72929SOL     OW20560   1.847  12.925   7.210
72929SOL    HW120561   1.886  13.012   7.201
72929SOL    HW220562   1.899  12.870   7.152
72930SOL     OW20563  12.934  14.354   0.954
72930SOL    HW120564  12.883  14.418   0.905
72930SOL    HW220565  13.020  14.354   0.912
72931SOL     OW20566  13.349   0.637   7.271
72931SOL    HW120567  13.386   0.563   7.223
72931SOL    HW220568  13.387   0.629   7.359
72932SOL     OW20569  10.284   1.478   8.866
72932SOL    HW120570  10.277   1.399   8.919
72932SOL    HW220571  10.285   1.447   8.776
72933SOL     OW20572   6.151  12.311  14.358
72933SOL    HW120573   6.217  12.256  14.317
72933SOL    HW220574   6.199  12.356  14.429
72934SOL     OW20575   4.910   0.089   8.520
72934SOL    HW120576   4.818   0.066   8.509
72934SOL    HW220577   4.916   0.120   8.610
72935SOL     OW20578   7.822  12.673  11.266
72935SOL    HW120579   7.866  12.604  11.316
72935SOL    HW220580   7.770  12.626  11.201
72936SOL     OW20581   0.638  12.881   0.976
72936SOL    HW120582   0.718  12.934   0.968
72936SOL    HW220583   0.662  12.797   0.936
72937SOL     OW20584   9.397   9.190   2.850
72937SOL    HW120585   9.426   9.106   2.815
72937SOL    HW220586   9.418   9.253   2.782
72938SOL     OW20587  14.261  12.330   0.815
72938SOL    HW120588  14.271  12.421   0.788
72938SOL    HW220589  14.348  12.303   0.844
72939SOL     OW20590   8.669   7.311   6.663
72939SOL    HW120591   8.755   7.322   6.624
72939SOL    HW220592   8.608   7.344   6.597
72940SOL     OW20593   6.490  10.243   0.849
72940SOL    HW120594   6.443  10.177   0.900
72940SOL    HW220595   6.439  10.324   0.861
72941SOL     OW20596   6.261   9.201   7.632
72941SOL    HW120597   6.231   9.111   7.646
72941SOL    HW220598   6.338   9.210   7.688
72942SOL     OW20599  12.445   1.459  12.530
72942SOL    HW120600  12.503   1.417  12.593
72942SOL    HW220601  12.360   1.461  12.573
72943SOL     OW20602  13.221   7.679   3.165
72943SOL    HW120603  13.282   7.651   3.234
72943SOL    HW220604  13.139   7.637   3.187
72944SOL     OW20605   9.722   0.659   4.593
72944SOL    HW120606   9.674   0.671   4.512
72944SOL    HW220607   9.705   0.738   4.644
72945SOL     OW20608  10.789   1.112   4.506
72945SOL    HW120609  10.767   1.107   4.599
72945SOL    HW220610  10.824   1.025   4.486
72946SOL     OW20611   4.463  13.063  14.324
72946SOL    HW120612   4.483  13.131  14.389
72946SOL    HW220613   4.408  13.108  14.259
72947SOL     OW20614  14.400   4.907   5.467
72947SOL    HW120615  14.424   4.995   5.438
72947SOL    HW220616  14.343   4.922   5.543
72948SOL     OW20617   3.268   2.339  12.877
72948SOL    HW120618   3.320   2.259  12.884
72948SOL    HW220619   3.179   2.309  12.860
72949SOL     OW20620  13.103  13.550   7.497
72949SOL    HW120621  13.125  13.497   7.574
72949SOL    HW220622  13.022  13.511   7.464
72950SOL     OW20623   1.324   1.601   7.687
72950SOL    HW120624   1.317   1.571   7.596
72950SOL    HW220625   1.307   1.522   7.739
72951SOL     OW20626   3.839  14.323  10.771
72951SOL    HW120627   3.753  14.283  10.777
72951SOL    HW220628   3.851  14.368  10.855
72952SOL     OW20629   7.045   8.986   6.337
72952SOL    HW120630   7.059   8.992   6.242
72952SOL    HW220631   7.117   8.930   6.368
72953SOL     OW20632   4.512   1.591   0.320
72953SOL    HW120633   4.463   1.672   0.302
72953SOL    HW220634   4.577   1.616   0.385
72954SOL     OW20635   7.840  13.551  11.164
72954SOL    HW120636   7.918  13.568  11.111
72954SOL    HW220637   7.787  13.630  11.156
72955SOL     OW20638   0.620   0.261  14.846
72955SOL    HW120639   0.535   0.218  14.840
72955SOL    HW220640   0.683   0.189  14.849
72956SOL     OW20641   3.211  12.965   0.594
72956SOL    HW120642   3.237  12.978   0.685
72956SOL    HW220643   3.215  13.052   0.555
72957SOL     OW20644   9.846   3.170   1.297
72957SOL    HW120645   9.880   3.081   1.312
72957SOL    HW220646   9.826   3.202   1.385
72958SOL     OW20647   7.075  12.607   6.208
72958SOL    HW120648   7.111  12.521   6.229
72958SOL    HW220649   7.119  12.667   6.268
72959SOL     OW20650   8.601  10.117   3.807
72959SOL    HW120651   8.565  10.030   3.795
72959SOL    HW220652   8.684  10.116   3.758
72960SOL     OW20653  13.096   9.657   8.899
72960SOL    HW120654  13.059   9.662   8.987
72960SOL    HW220655  13.020   9.645   8.842
72961SOL     OW20656   6.244   2.426   8.865
72961SOL    HW120657   6.225   2.468   8.949
72961SOL    HW220658   6.340   2.423   8.860
72962SOL     OW20659   4.216   2.402   5.281
72962SOL    HW120660   4.302   2.444   5.278
72962SOL    HW220661   4.227   2.322   5.228
72963SOL     OW20662   6.461   3.862   8.898
72963SOL    HW120663   6.371   3.882   8.925
72963SOL    HW220664   6.488   3.791   8.956
72964SOL     OW20665   5.127  12.632   8.412
72964SOL    HW120666   5.073  12.555   8.429
72964SOL    HW220667   5.195  12.629   8.480
72965SOL     OW20668   6.098  12.523   7.449
72965SOL    HW120669   6.143  12.572   7.518
72965SOL    HW220670   6.040  12.463   7.497
72966SOL     OW20671   0.208   3.579  11.811
72966SOL    HW120672   0.204   3.514  11.742
72966SOL    HW220673   0.136   3.558  11.870
72967SOL     OW20674   5.078   2.816   7.849
72967SOL    HW120675   5.173   2.807   7.839
72967SOL    HW220676   5.062   2.811   7.943
72968SOL     OW20677   5.360   9.892  12.457
72968SOL    HW120678   5.321   9.977  12.435
72968SOL    HW220679   5.374   9.849  12.372
72969SOL     OW20680  11.183   0.703   1.210
72969SOL    HW120681  11.176   0.798   1.202
72969SOL    HW220682  11.234   0.689   1.291
72970SOL     OW20683   2.188   0.884   5.505
72970SOL    HW120684   2.120   0.816   5.510
72970SOL    HW220685   2.141   0.966   5.511
72971SOL     OW20686   6.487   5.841  11.207
72971SOL    HW120687   6.549   5.810  11.272
72971SOL    HW220688   6.403   5.841  11.253
72972SOL     OW20689   8.242   9.144   2.390
72972SOL    HW120690   8.288   9.175   2.468
72972SOL    HW220691   8.235   9.049   2.402
72973SOL     OW20692  13.969   7.978  10.365
72973SOL    HW120693  13.933   8.046  10.309
72973SOL    HW220694  14.064   7.991  10.361
72974SOL     OW20695   2.416   8.633   4.252
72974SOL    HW120696   2.415   8.556   4.309
72974SOL    HW220697   2.503   8.632   4.212
72975SOL     OW20698   6.358   4.836   4.846
72975SOL    HW120699   6.371   4.772   4.776
72975SOL    HW220700   6.287   4.892   4.814
72976SOL     OW20701   7.961   6.337   2.979
72976SOL    HW120702   8.015   6.347   2.901
72976SOL    HW220703   8.009   6.383   3.047
72977SOL     OW20704   7.163  14.714  11.935
72977SOL    HW120705   7.164  14.770  12.013
72977SOL    HW220706   7.078  14.670  11.938
72978SOL     OW20707  10.666  14.001   8.127
72978SOL    HW120708  10.753  14.005   8.168
72978SOL    HW220709  10.668  14.067   8.058
72979SOL     OW20710   2.928  10.150   9.005
72979SOL    HW120711   2.950  10.128   9.096
72979SOL    HW220712   2.908  10.243   9.007
72980SOL     OW20713   6.331  12.350  14.602
72980SOL    HW120714   6.421  12.343  14.571
72980SOL    HW220715   6.339  12.350  14.698
72981SOL     OW20716  12.766   8.903   9.707
72981SOL    HW120717  12.779   8.837   9.639
72981SOL    HW220718  12.683   8.880   9.747
72982SOL     OW20719  11.575   6.117  13.165
72982SOL    HW120720  11.534   6.095  13.081
72982SOL    HW220721  11.644   6.051  13.176
72983SOL     OW20722   6.560  13.086  10.275
72983SOL    HW120723   6.534  13.107  10.186
72983SOL    HW220724   6.651  13.115  10.281
72984SOL     OW20725   2.000  12.703   0.907
72984SOL    HW120726   2.035  12.646   0.839
72984SOL    HW220727   1.916  12.733   0.872
72985SOL     OW20728   0.023   0.309   0.420
72985SOL    HW120729   0.097   0.309   0.359
72985SOL    HW220730  14.841   0.375   0.386
72986SOL     OW20731   7.645   1.554  13.604
72986SOL    HW120732   7.577   1.519  13.545
72986SOL    HW220733   7.597   1.582  13.682
72987SOL     OW20734   7.614  12.094   0.150
72987SOL    HW120735   7.583  12.184   0.135
72987SOL    HW220736   7.675  12.102   0.223
72988SOL     OW20737   8.480   0.891   2.421
72988SOL    HW120738   8.418   0.960   2.395
72988SOL    HW220739   8.485   0.834   2.345
72989SOL     OW20740   0.553   2.543  11.591
72989SOL    HW120741   0.646   2.565  11.582
72989SOL    HW220742   0.507   2.627  11.587
72990SOL     OW20743  10.176   6.736  12.380
72990SOL    HW120744  10.245   6.679  12.415
72990SOL    HW220745  10.096   6.685  12.387
72991SOL     OW20746  12.920   0.943  11.327
72991SOL    HW120747  12.923   1.028  11.371
72991SOL    HW220748  12.901   0.880  11.396
72992SOL     OW20749   9.086   3.907  11.256
72992SOL    HW120750   9.173   3.876  11.281
72992SOL    HW220751   9.046   3.833  11.210
72993SOL     OW20752  14.600  11.711  11.731
72993SOL    HW120753  14.560  11.660  11.801
72993SOL    HW220754  14.693  11.689  11.734
72994SOL     OW20755   5.583   0.441  11.389
72994SOL    HW120756   5.668   0.429  11.432
72994SOL    HW220757   5.533   0.364  11.413
72995SOL     OW20758  10.235   6.974   4.388
72995SOL    HW120759  10.266   7.064   4.386
72995SOL    HW220760  10.307   6.923   4.349
72996SOL     OW20761   3.374  10.055   8.979
72996SOL    HW120762   3.417  10.135   9.011
72996SOL    HW220763   3.326  10.084   8.901
72997SOL     OW20764   2.150   1.779  10.411
72997SOL    HW120765   2.240   1.782  10.379
72997SOL    HW220766   2.140   1.691  10.447
72998SOL     OW20767  10.833   1.843   7.299
72998SOL    HW120768  10.911   1.790   7.282
72998SOL    HW220769  10.760   1.788   7.270
72999SOL     OW20770   3.835   9.513  11.282
72999SOL    HW120771   3.905   9.576  11.270
72999SOL    HW220772   3.782   9.549  11.354
73000SOL     OW20773   5.659   8.163   7.505
73000SOL    HW120774   5.675   8.257   7.493
73000SOL    HW220775   5.565   8.156   7.518
73001SOL     OW20776   4.057   1.678   6.882
73001SOL    HW120777   4.053   1.604   6.942
73001SOL    HW220778   3.972   1.676   6.837
73002SOL     OW20779   9.418   3.101   4.304
73002SOL    HW120780   9.446   3.089   4.213
73002SOL    HW220781   9.468   3.177   4.334
73003SOL     OW20782  12.906   1.247   0.673
73003SOL    HW120783  12.905   1.336   0.637
73003SOL    HW220784  12.886   1.259   0.766
73004SOL     OW20785   2.973   6.068  10.769
73004SOL    HW120786   3.029   6.131  10.723
73004SOL    HW220787   2.958   6.107  10.855
73005SOL     OW20788   1.077   6.219   1.581
73005SOL    HW120789   1.153   6.223   1.522
73005SOL    HW220790   1.017   6.159   1.538
73006SOL     OW20791   3.068   9.961   7.235
73006SOL    HW120792   3.027  10.030   7.183
73006SOL    HW220793   3.032   9.879   7.200
73007SOL     OW20794  11.252  13.484   1.584
73007SOL    HW120795  11.210  13.571   1.588
73007SOL    HW220796  11.343  13.502   1.561
73008SOL     OW20797  11.866   0.508   4.489
73008SOL    HW120798  11.932   0.450   4.453
73008SOL    HW220799  11.843   0.469   4.573
73009SOL     OW20800   6.036   1.636   5.002
73009SOL    HW120801   6.123   1.610   5.032
73009SOL    HW220802   6.017   1.575   4.930
73010SOL     OW20803   6.894   6.593   4.183
73010SOL    HW120804   6.892   6.652   4.108
73010SOL    HW220805   6.929   6.511   4.149
73011SOL     OW20806   3.247   2.152   6.879
73011SOL    HW120807   3.303   2.083   6.844
73011SOL    HW220808   3.188   2.107   6.940
73012SOL     OW20809   9.169   0.625  11.828
73012SOL    HW120810   9.177   0.683  11.904
73012SOL    HW220811   9.248   0.642  11.777
73013SOL     OW20812  13.798   2.545  13.726
73013SOL    HW120813  13.845   2.461  13.732
73013SOL    HW220814  13.836   2.598  13.795
73014SOL     OW20815   3.886  12.422  12.809
73014SOL    HW120816   3.819  12.438  12.875
73014SOL    HW220817   3.886  12.327  12.798
73015SOL     OW20818   2.302   9.683   9.663
73015SOL    HW120819   2.237   9.625   9.701
73015SOL    HW220820   2.367   9.696   9.732
73016SOL     OW20821  14.836   3.923   4.664
73016SOL    HW120822  14.758   3.928   4.608
73016SOL    HW220823  14.804   3.947   4.751
73017SOL     OW20824  12.208  11.500   7.544
73017SOL    HW120825  12.136  11.437   7.543
73017SOL    HW220826  12.172  11.576   7.590
73018SOL     OW20827   5.799   7.808   5.725
73018SOL    HW120828   5.778   7.718   5.749
73018SOL    HW220829   5.714   7.849   5.708
73019SOL     OW20830  10.116  13.046  14.653
73019SOL    HW120831  10.115  12.950  14.664
73019SOL    HW220832  10.141  13.079  14.740
73020SOL     OW20833   6.353  11.109   0.383
73020SOL    HW120834   6.435  11.130   0.427
73020SOL    HW220835   6.296  11.075   0.453
73021SOL     OW20836   4.553  10.391   4.421
73021SOL    HW120837   4.579  10.310   4.377
73021SOL    HW220838   4.476  10.421   4.372
73022SOL     OW20839  14.824  12.311  13.814
73022SOL    HW120840  14.763  12.276  13.878
73022SOL    HW220841   0.033  12.285  13.847
73023SOL     OW20842   1.922   4.640  13.710
73023SOL    HW120843   1.885   4.724  13.683
73023SOL    HW220844   1.960   4.656  13.796
73024SOL     OW20845   1.220  10.473   7.811
73024SOL    HW120846   1.169  10.545   7.848
73024SOL    HW220847   1.164  10.396   7.821
73025SOL     OW20848   7.946   8.916   7.244
73025SOL    HW120849   7.872   8.897   7.303
73025SOL    HW220850   7.962   9.010   7.256
73026SOL     OW20851   3.722   6.836   7.687
73026SOL    HW120852   3.723   6.870   7.598
73026SOL    HW220853   3.689   6.908   7.741
73027SOL     OW20854  13.435   3.199  14.150
73027SOL    HW120855  13.381   3.122  14.132
73027SOL    HW220856  13.482   3.177  14.230
73028SOL     OW20857   6.272  10.570  13.506
73028SOL    HW120858   6.218  10.607  13.436
73028SOL    HW220859   6.210  10.555  13.578
73029SOL     OW20860   8.413   9.902   4.361
73029SOL    HW120861   8.418   9.955   4.282
73029SOL    HW220862   8.424   9.964   4.433
73030SOL     OW20863   6.315   9.672   5.002
73030SOL    HW120864   6.354   9.745   5.050
73030SOL    HW220865   6.221   9.686   5.009
73031SOL     OW20866   8.807   9.039   0.201
73031SOL    HW120867   8.808   9.126   0.241
73031SOL    HW220868   8.799   9.055   0.107
73032SOL     OW20869   0.872  12.040   5.108
73032SOL    HW120870   0.882  12.019   5.201
73032SOL    HW220871   0.788  12.001   5.083
73033SOL     OW20872  11.517   8.237   0.510
73033SOL    HW120873  11.525   8.208   0.601
73033SOL    HW220874  11.581   8.184   0.462
73034SOL     OW20875   1.296   9.054   5.209
73034SOL    HW120876   1.370   9.028   5.154
73034SOL    HW220877   1.272   9.141   5.178
73035SOL     OW20878  13.160  12.103  11.132
73035SOL    HW120879  13.187  12.095  11.224
73035SOL    HW220880  13.221  12.047  11.084
73036SOL     OW20881   2.358   0.863   0.415
73036SOL    HW120882   2.415   0.919   0.468
73036SOL    HW220883   2.318   0.923   0.352
73037SOL     OW20884  14.487   8.984   7.590
73037SOL    HW120885  14.544   8.932   7.646
73037SOL    HW220886  14.469   9.063   7.641
73038SOL     OW20887  13.096   7.499   2.207
73038SOL    HW120888  13.075   7.431   2.143
73038SOL    HW220889  13.190   7.513   2.197
73039SOL     OW20890   0.513  12.251   3.658
73039SOL    HW120891   0.433  12.303   3.656
73039SOL    HW220892   0.544  12.251   3.567
73040SOL     OW20893   6.392   6.977  10.704
73040SOL    HW120894   6.307   7.008  10.672
73040SOL    HW220895   6.439   6.952  10.625
73041SOL     OW20896   2.581  14.604  10.289
73041SOL    HW120897   2.514  14.671  10.305
73041SOL    HW220898   2.646  14.647  10.234
73042SOL     OW20899   8.397   8.141   8.219
73042SOL    HW120900   8.373   8.158   8.128
73042SOL    HW220901   8.475   8.085   8.214
73043SOL     OW20902   5.612  11.710   0.458
73043SOL    HW120903   5.534  11.760   0.434
73043SOL    HW220904   5.675  11.776   0.487
73044SOL     OW20905   0.837   7.110   7.562
73044SOL    HW120906   0.923   7.150   7.563
73044SOL    HW220907   0.854   7.016   7.568
73045SOL     OW20908  14.278   9.764  11.675
73045SOL    HW120909  14.211   9.712  11.721
73045SOL    HW220910  14.299   9.834  11.737
73046SOL     OW20911  10.279   9.667   4.545
73046SOL    HW120912  10.234   9.740   4.589
73046SOL    HW220913  10.209   9.617   4.503
73047SOL     OW20914  14.754   6.439  13.955
73047SOL    HW120915  14.811   6.515  13.943
73047SOL    HW220916  14.731   6.440  14.048
73048SOL     OW20917   3.308   3.598   3.021
73048SOL    HW120918   3.283   3.662   2.955
73048SOL    HW220919   3.237   3.600   3.085
73049SOL     OW20920   1.437   4.593  13.416
73049SOL    HW120921   1.414   4.507  13.453
73049SOL    HW220922   1.489   4.572  13.338
73050SOL     OW20923  11.219   8.112   0.163
73050SOL    HW120924  11.311   8.139   0.163
73050SOL    HW220925  11.218   8.030   0.115
73051SOL     OW20926   6.721  10.213   2.190
73051SOL    HW120927   6.639  10.173   2.160
73051SOL    HW220928   6.697  10.302   2.214
73052SOL     OW20929   0.015   9.642   3.308
73052SOL    HW120930  14.852   9.563   3.274
73052SOL    HW220931   0.021   9.629   3.402
73053SOL     OW20932   8.568   1.893   3.519
73053SOL    HW120933   8.661   1.903   3.500
73053SOL    HW220934   8.552   1.950   3.594
73054SOL     OW20935   5.330  11.857  13.436
73054SOL    HW120936   5.292  11.859  13.348
73054SOL    HW220937   5.259  11.826  13.492
73055SOL     OW20938  13.971   1.004   8.621
73055SOL    HW120939  13.896   1.063   8.608
73055SOL    HW220940  14.047   1.055   8.591
73056SOL     OW20941   5.325  14.393   2.415
73056SOL    HW120942   5.329  14.444   2.496
73056SOL    HW220943   5.298  14.455   2.348
73057SOL     OW20944   3.476  11.647   9.556
73057SOL    HW120945   3.415  11.610   9.492
73057SOL    HW220946   3.499  11.572   9.612
73058SOL     OW20947   4.706   2.299   7.145
73058SOL    HW120948   4.686   2.208   7.168
73058SOL    HW220949   4.658   2.314   7.064
73059SOL     OW20950   6.129   4.059   2.814
73059SOL    HW120951   6.141   3.977   2.767
73059SOL    HW220952   6.212   4.105   2.804
73060SOL     OW20953  11.164   0.584   9.146
73060SOL    HW120954  11.075   0.550   9.141
73060SOL    HW220955  11.204   0.559   9.063
73061SOL     OW20956   5.157  12.470  14.174
73061SOL    HW120957   5.235  12.519  14.201
73061SOL    HW220958   5.156  12.394  14.231
73062SOL     OW20959   7.082  11.692   0.418
73062SOL    HW120960   7.054  11.752   0.487
73062SOL    HW220961   7.004  11.684   0.362
73063SOL     OW20962   3.449  13.520   2.987
73063SOL    HW120963   3.394  13.597   2.968
73063SOL    HW220964   3.524  13.530   2.929
73064SOL     OW20965   5.471  11.390  14.357
73064SOL    HW120966   5.427  11.309  14.383
73064SOL    HW220967   5.564  11.367  14.354
73065SOL     OW20968   6.100  11.620   4.949
73065SOL    HW120969   6.024  11.596   4.895
73065SOL    HW220970   6.175  11.586   4.900
73066SOL     OW20971   6.038   1.106   4.896
73066SOL    HW120972   5.955   1.072   4.863
73066SOL    HW220973   6.080   1.030   4.936
73067SOL     OW20974   0.692   1.389   1.079
73067SOL    HW120975   0.724   1.325   1.015
73067SOL    HW220976   0.744   1.467   1.064
73068SOL     OW20977  13.002  12.341   7.596
73068SOL    HW120978  13.067  12.300   7.538
73068SOL    HW220979  12.920  12.335   7.548
73069SOL     OW20980   3.006   8.270   1.388
73069SOL    HW120981   3.076   8.207   1.401
73069SOL    HW220982   2.926   8.220   1.401
73070SOL     OW20983   1.993   1.268   1.474
73070SOL    HW120984   2.013   1.196   1.534
73070SOL    HW220985   2.075   1.317   1.466
73071SOL     OW20986  10.362   9.125   8.432
73071SOL    HW120987  10.368   9.031   8.445
73071SOL    HW220988  10.272   9.139   8.402
73072SOL     OW20989  10.620   6.469   1.019
73072SOL    HW120990  10.613   6.488   0.925
73072SOL    HW220991  10.714   6.463   1.036
73073SOL     OW20992  13.993   9.337   8.317
73073SOL    HW120993  14.049   9.262   8.296
73073SOL    HW220994  13.980   9.331   8.412
73074SOL     OW20995   2.114   3.154  14.740
73074SOL    HW120996   2.110   3.105  14.822
73074SOL    HW220997   2.026   3.147  14.703
73075SOL     OW20998   8.648   9.141   1.790
73075SOL    HW120999   8.666   9.102   1.704
73075SOL    HW221000   8.734   9.166   1.823
73076SOL     OW21001   9.044  12.111  10.973
73076SOL    HW121002   9.098  12.182  10.936
73076SOL    HW221003   8.962  12.117  10.925
73077SOL     OW21004   6.558   3.093   6.145
73077SOL    HW121005   6.538   3.185   6.127
73077SOL    HW221006   6.653   3.086   6.134
73078SOL     OW21007   3.908   4.318   4.989
73078SOL    HW121008   3.955   4.394   5.024
73078SOL    HW221009   3.912   4.328   4.894
73079SOL     OW21010  11.724   6.347   3.705
73079SOL    HW121011  11.680   6.393   3.777
73079SOL    HW221012  11.668   6.361   3.629
73080SOL     OW21013   8.208   4.566   9.820
73080SOL    HW121014   8.174   4.477   9.826
73080SOL    HW221015   8.150   4.610   9.759
73081SOL     OW21016  14.863   0.994   3.316
73081SOL    HW121017  14.852   0.905   3.284
73081SOL    HW221018   0.069   0.992   3.363
73082SOL     OW21019  13.134   4.421   6.697
73082SOL    HW121020  13.081   4.497   6.674
73082SOL    HW221021  13.186   4.403   6.619
73083SOL     OW21022  13.219  12.811   9.232
73083SOL    HW121023  13.177  12.790   9.149
73083SOL    HW221024  13.303  12.849   9.208
73084SOL     OW21025   8.945   5.001   7.661
73084SOL    HW121026   8.893   4.940   7.713
73084SOL    HW221027   8.943   4.965   7.573
73085SOL     OW21028  14.227   8.449  10.483
73085SOL    HW121029  14.168   8.505  10.433
73085SOL    HW221030  14.315   8.482  10.463
73086SOL     OW21031   2.386   9.458  14.420
73086SOL    HW121032   2.445   9.386  14.395
73086SOL    HW221033   2.410   9.530  14.362
73087SOL     OW21034  12.091   5.815   8.114
73087SOL    HW121035  12.054   5.901   8.096
73087SOL    HW221036  12.129   5.788   8.030
73088SOL     OW21037   7.514  11.703   6.193
73088SOL    HW121038   7.528  11.611   6.217
73088SOL    HW221039   7.537  11.707   6.100
73089SOL     OW21040   9.756  14.379  12.835
73089SOL    HW121041   9.756  14.377  12.739
73089SOL    HW221042   9.745  14.471  12.857
73090SOL     OW21043  10.992  12.633   3.441
73090SOL    HW121044  10.950  12.669   3.519
73090SOL    HW221045  10.925  12.638   3.373
73091SOL     OW21046   0.521   5.762   7.898
73091SOL    HW121047   0.453   5.829   7.891
73091SOL    HW221048   0.560   5.757   7.811
73092SOL     OW21049  13.374   8.571   2.835
73092SOL    HW121050  13.349   8.577   2.743
73092SOL    HW221051  13.307   8.621   2.882
73093SOL     OW21052   8.254   2.630   8.064
73093SOL    HW121053   8.228   2.697   8.001
73093SOL    HW221054   8.174   2.612   8.114
73094SOL     OW21055   9.445  13.004   3.804
73094SOL    HW121056   9.410  13.091   3.827
73094SOL    HW221057   9.535  13.021   3.777
73095SOL     OW21058   0.871   3.892  10.144
73095SOL    HW121059   0.888   3.920  10.234
73095SOL    HW221060   0.811   3.958  10.109
73096SOL     OW21061  11.129  13.787  11.273
73096SOL    HW121062  11.102  13.819  11.187
73096SOL    HW221063  11.154  13.865  11.322
73097SOL     OW21064   1.486   7.945   0.918
73097SOL    HW121065   1.469   8.019   0.976
73097SOL    HW221066   1.504   7.984   0.833
73098SOL     OW21067   7.719   5.378   1.403
73098SOL    HW121068   7.792   5.398   1.462
73098SOL    HW221069   7.761   5.354   1.320
73099SOL     OW21070   9.122   2.732   4.947
73099SOL    HW121071   9.050   2.758   4.889
73099SOL    HW221072   9.196   2.716   4.889
73100SOL     OW21073   0.701  13.903   7.043
73100SOL    HW121074   0.789  13.931   7.067
73100SOL    HW221075   0.702  13.808   7.051
73101SOL     OW21076   3.285   2.763   5.217
73101SOL    HW121077   3.270   2.850   5.180
73101SOL    HW221078   3.274   2.775   5.312
73102SOL     OW21079  13.490  14.044   3.157
73102SOL    HW121080  13.477  13.950   3.147
73102SOL    HW221081  13.514  14.056   3.249
73103SOL     OW21082   9.994   4.448   2.684
73103SOL    HW121083  10.042   4.376   2.726
73103SOL    HW221084  10.045   4.468   2.605
73104SOL     OW21085  11.475   6.102   6.142
73104SOL    HW121086  11.428   6.177   6.105
73104SOL    HW221087  11.410   6.031   6.141
73105SOL     OW21088   0.157   8.096   6.856
73105SOL    HW121089   0.156   8.191   6.842
73105SOL    HW221090   0.194   8.060   6.775
73106SOL     OW21091  12.840  11.535   0.665
73106SOL    HW121092  12.792  11.490   0.596
73106SOL    HW221093  12.847  11.626   0.634
73107SOL     OW21094   8.235   3.720   5.766
73107SOL    HW121095   8.261   3.808   5.740
73107SOL    HW221096   8.297   3.696   5.835
73108SOL     OW21097   4.444   1.779  11.577
73108SOL    HW121098   4.481   1.805  11.662
73108SOL    HW221099   4.350   1.796  11.586
73109SOL     OW21100   0.719   3.358  12.960
73109SOL    HW121101   0.767   3.327  12.883
73109SOL    HW221102   0.646   3.296  12.969
73110SOL     OW21103  11.725   9.803   8.052
73110SOL    HW121104  11.695   9.845   7.972
73110SOL    HW221105  11.802   9.752   8.026
73111SOL     OW21106   4.948   5.606   7.363
73111SOL    HW121107   5.020   5.668   7.371
73111SOL    HW221108   4.871   5.656   7.392
73112SOL     OW21109   3.971   3.226   8.534
73112SOL    HW121110   3.940   3.304   8.579
73112SOL    HW221111   3.939   3.153   8.587
73113SOL     OW21112  13.695  11.925   7.453
73113SOL    HW121113  13.640  11.972   7.390
73113SOL    HW221114  13.781  11.920   7.410
73114SOL     OW21115   8.692   4.348   0.534
73114SOL    HW121116   8.627   4.300   0.586
73114SOL    HW221117   8.687   4.438   0.567
73115SOL     OW21118   3.364   2.630   6.324
73115SOL    HW121119   3.400   2.675   6.247
73115SOL    HW221120   3.289   2.683   6.350
73116SOL     OW21121  11.418   9.399   6.805
73116SOL    HW121122  11.369   9.371   6.883
73116SOL    HW221123  11.488   9.335   6.796
73117SOL     OW21124  10.678   7.696   3.415
73117SOL    HW121125  10.610   7.734   3.360
73117SOL    HW221126  10.753   7.687   3.356
73118SOL     OW21127   2.894   4.564  10.434
73118SOL    HW121128   2.839   4.488  10.415
73118SOL    HW221129   2.935   4.586  10.350
73119SOL     OW21130   7.059  11.265   2.177
73119SOL    HW121131   7.142  11.301   2.145
73119SOL    HW221132   7.070  11.170   2.170
73120SOL     OW21133   1.735   2.071  11.402
73120SOL    HW121134   1.802   2.139  11.410
73120SOL    HW221135   1.653   2.120  11.400
73121SOL     OW21136   3.634   1.292   0.781
73121SOL    HW121137   3.591   1.353   0.841
73121SOL    HW221138   3.619   1.329   0.694
73122SOL     OW21139   6.795   3.393   7.325
73122SOL    HW121140   6.838   3.465   7.372
73122SOL    HW221141   6.811   3.316   7.380
73123SOL     OW21142  10.430   5.395   2.995
73123SOL    HW121143  10.399   5.351   2.915
73123SOL    HW221144  10.370   5.469   3.005
73124SOL     OW21145   3.351   6.687   8.789
73124SOL    HW121146   3.338   6.769   8.741
73124SOL    HW221147   3.278   6.684   8.851
73125SOL     OW21148   1.617  11.661   5.700
73125SOL    HW121149   1.647  11.750   5.679
73125SOL    HW221150   1.687  11.604   5.669
73126SOL     OW21151   0.062  14.728  12.057
73126SOL    HW121152   0.030  14.710  11.969
73126SOL    HW221153  14.877  14.685  12.115
73127SOL     OW21154  13.203  11.040  11.670
73127SOL    HW121155  13.200  11.016  11.762
73127SOL    HW221156  13.115  11.074  11.651
73128SOL     OW21157   6.131  13.420   0.315
73128SOL    HW121158   6.187  13.351   0.351
73128SOL    HW221159   6.190  13.471   0.259
73129SOL     OW21160   9.611   5.779   1.333
73129SOL    HW121161   9.617   5.712   1.401
73129SOL    HW221162   9.694   5.826   1.338
73130SOL     OW21163  11.445   4.027  10.803
73130SOL    HW121164  11.530   3.990  10.779
73130SOL    HW221165  11.442   4.018  10.899
73131SOL     OW21166   9.497   0.240  12.278
73131SOL    HW121167   9.424   0.260  12.337
73131SOL    HW221168   9.472   0.281  12.195
73132SOL     OW21169  11.836  10.114   9.474
73132SOL    HW121170  11.817  10.020   9.486
73132SOL    HW221171  11.928  10.122   9.499
73133SOL     OW21172  14.452   7.503  14.122
73133SOL    HW121173  14.477   7.446  14.050
73133SOL    HW221174  14.498   7.586  14.105
73134SOL     OW21175   2.962  13.936  13.568
73134SOL    HW121176   2.935  14.017  13.611
73134SOL    HW221177   2.904  13.929  13.492
73135SOL     OW21178  11.069  10.630   0.870
73135SOL    HW121179  11.159  10.619   0.903
73135SOL    HW221180  11.015  10.630   0.949
73136SOL     OW21181  10.552   2.738   6.188
73136SOL    HW121182  10.561   2.673   6.118
73136SOL    HW221183  10.575   2.689   6.267
73137SOL     OW21184  14.336   2.973  13.119
73137SOL    HW121185  14.398   2.900  13.118
73137SOL    HW221186  14.373   3.036  13.058
73138SOL     OW21187   6.483  13.943  12.035
73138SOL    HW121188   6.553  13.881  12.014
73138SOL    HW221189   6.517  13.993  12.109
73139SOL     OW21190   1.963  13.746   6.266
73139SOL    HW121191   2.044  13.796   6.254
73139SOL    HW221192   1.907  13.775   6.194
73140SOL     OW21193  11.007  13.423   6.177
73140SOL    HW121194  11.063  13.482   6.127
73140SOL    HW221195  10.940  13.479   6.215
73141SOL     OW21196  11.814   0.965  10.406
73141SOL    HW121197  11.809   0.871  10.386
73141SOL    HW221198  11.904   0.977  10.437
73142SOL     OW21199  10.221   1.386   7.371
73142SOL    HW121200  10.245   1.476   7.395
73142SOL    HW221201  10.132   1.375   7.404
73143SOL     OW21202  11.939  11.970   1.572
73143SOL    HW121203  11.939  11.907   1.499
73143SOL    HW221204  11.984  12.047   1.537
73144SOL     OW21205   4.824  12.574   2.828
73144SOL    HW121206   4.906  12.595   2.874
73144SOL    HW221207   4.827  12.479   2.817
73145SOL     OW21208  10.002   7.572   5.403
73145SOL    HW121209  10.004   7.509   5.476
73145SOL    HW221210  10.089   7.564   5.363
73146SOL     OW21211   6.107   2.804   6.145
73146SOL    HW121212   6.074   2.735   6.202
73146SOL    HW221213   6.122   2.878   6.204
73147SOL     OW21214  11.162   7.624   2.642
73147SOL    HW121215  11.070   7.608   2.621
73147SOL    HW221216  11.171   7.599   2.734
73148SOL     OW21217  11.874   8.762  12.167
73148SOL    HW121218  11.835   8.840  12.128
73148SOL    HW221219  11.801   8.701  12.178
73149SOL     OW21220   9.459  12.742  11.025
73149SOL    HW121221   9.397  12.814  11.012
73149SOL    HW221222   9.460  12.728  11.120
73150SOL     OW21223  13.807   6.291   7.738
73150SOL    HW121224  13.778   6.379   7.713
73150SOL    HW221225  13.801   6.290   7.833
73151SOL     OW21226   3.125   9.954  10.283
73151SOL    HW121227   3.184  10.029  10.286
73151SOL    HW221228   3.102   9.938  10.375
73152SOL     OW21229   7.638   6.150  10.206
73152SOL    HW121230   7.597   6.206  10.272
73152SOL    HW221231   7.725   6.187  10.194
73153SOL     OW21232   8.796   2.263   9.767
73153SOL    HW121233   8.879   2.245   9.724
73153SOL    HW221234   8.774   2.182   9.812
73154SOL     OW21235   9.447   1.531  11.198
73154SOL    HW121236   9.408   1.617  11.212
73154SOL    HW221237   9.525   1.531  11.252
73155SOL     OW21238   5.287  12.743  11.678
73155SOL    HW121239   5.214  12.681  11.674
73155SOL    HW221240   5.267  12.800  11.752
73156SOL     OW21241   1.062  11.961   1.744
73156SOL    HW121242   0.972  11.993   1.735
73156SOL    HW221243   1.076  11.954   1.839
73157SOL     OW21244  10.662  11.377  14.105
73157SOL    HW121245  10.635  11.380  14.013
73157SOL    HW221246  10.592  11.328  14.148
73158SOL     OW21247   4.525  14.532   1.512
73158SOL    HW121248   4.531  14.509   1.604
73158SOL    HW221249   4.613  14.514   1.477
73159SOL     OW21250  12.478   1.536   7.390
73159SOL    HW121251  12.465   1.586   7.309
73159SOL    HW221252  12.418   1.461   7.381
73160SOL     OW21253  11.272  11.226   7.749
73160SOL    HW121254  11.272  11.135   7.776
73160SOL    HW221255  11.188  11.261   7.780
73161SOL     OW21256   9.241   9.452  10.528
73161SOL    HW121257   9.328   9.427  10.496
73161SOL    HW221258   9.201   9.370  10.557
73162SOL     OW21259   2.685  12.178   8.695
73162SOL    HW121260   2.691  12.165   8.601
73162SOL    HW221261   2.774  12.200   8.722
73163SOL     OW21262   0.126  12.863  11.051
73163SOL    HW121263   0.159  12.943  11.009
73163SOL    HW221264   0.032  12.865  11.035
73164SOL     OW21265   1.026   9.952   3.876
73164SOL    HW121266   0.973   9.935   3.954
73164SOL    HW221267   1.096  10.009   3.907
73165SOL     OW21268  14.618   2.459   5.476
73165SOL    HW121269  14.629   2.436   5.568
73165SOL    HW221270  14.592   2.551   5.477
73166SOL     OW21271  13.101  10.387   3.475
73166SOL    HW121272  13.061  10.448   3.412
73166SOL    HW221273  13.056  10.405   3.557
73167SOL     OW21274   1.634  12.361  14.677
73167SOL    HW121275   1.720  12.390  14.648
73167SOL    HW221276   1.573  12.393  14.610
73168SOL     OW21277   9.012   6.750   0.061
73168SOL    HW121278   8.987   6.831   0.017
73168SOL    HW221279   8.980   6.760   0.151
73169SOL     OW21280  13.491   5.421   4.475
73169SOL    HW121281  13.511   5.436   4.382
73169SOL    HW221282  13.476   5.327   4.482
73170SOL     OW21283   6.725   4.973  12.733
73170SOL    HW121284   6.713   4.887  12.773
73170SOL    HW221285   6.725   4.956  12.639
73171SOL     OW21286   2.121  10.792   4.163
73171SOL    HW121287   2.214  10.812   4.153
73171SOL    HW221288   2.116  10.697   4.150
73172SOL     OW21289   7.273  11.683   9.492
73172SOL    HW121290   7.264  11.762   9.546
73172SOL    HW221291   7.309  11.714   9.409
73173SOL     OW21292   0.310   1.380   5.598
73173SOL    HW121293   0.225   1.379   5.642
73173SOL    HW221294   0.290   1.394   5.506
73174SOL     OW21295  12.389   5.562   5.393
73174SOL    HW121296  12.472   5.545   5.437
73174SOL    HW221297  12.356   5.642   5.435
73175SOL     OW21298   2.907   1.987   1.504
73175SOL    HW121299   2.890   1.917   1.567
73175SOL    HW221300   2.859   2.062   1.538
73176SOL     OW21301  11.529   4.517   2.933
73176SOL    HW121302  11.541   4.422   2.922
73176SOL    HW221303  11.586   4.540   3.006
73177SOL     OW21304   1.218   6.751  10.270
73177SOL    HW121305   1.212   6.846  10.261
73177SOL    HW221306   1.197   6.734  10.362
73178SOL     OW21307   3.450  13.300   3.193
73178SOL    HW121308   3.439  13.350   3.112
73178SOL    HW221309   3.525  13.243   3.176
73179SOL     OW21310   7.359   1.695   2.187
73179SOL    HW121311   7.386   1.611   2.224
73179SOL    HW221312   7.305   1.736   2.254
73180SOL     OW21313  11.840  12.473   7.478
73180SOL    HW121314  11.823  12.458   7.571
73180SOL    HW221315  11.935  12.474   7.470
73181SOL     OW21316   5.500   4.566   9.707
73181SOL    HW121317   5.485   4.471   9.702
73181SOL    HW221318   5.556   4.577   9.783
73182SOL     OW21319   9.225   7.756   4.754
73182SOL    HW121320   9.317   7.761   4.781
73182SOL    HW221321   9.197   7.668   4.778
73183SOL     OW21322   7.425  10.348   9.565
73183SOL    HW121323   7.376  10.267   9.546
73183SOL    HW221324   7.419  10.358   9.660
73184SOL     OW21325   9.977  10.134   3.888
73184SOL    HW121326   9.923  10.055   3.894
73184SOL    HW221327   9.914  10.204   3.869
73185SOL     OW21328   1.732   1.632   1.546
73185SOL    HW121329   1.731   1.701   1.480
73185SOL    HW221330   1.820   1.633   1.582
73186SOL     OW21331   9.003  11.063   5.821
73186SOL    HW121332   9.090  11.072   5.861
73186SOL    HW221333   9.003  10.974   5.785
73187SOL     OW21334  13.450   2.009   4.839
73187SOL    HW121335  13.459   2.012   4.744
73187SOL    HW221336  13.426   2.099   4.864
73188SOL     OW21337   4.557   2.973   9.166
73188SOL    HW121338   4.485   2.912   9.179
73188SOL    HW221339   4.569   3.015   9.251
73189SOL     OW21340  14.442   8.020  11.856
73189SOL    HW121341  14.440   7.926  11.876
73189SOL    HW221342  14.487   8.026  11.772
73190SOL     OW21343  12.173  14.699   0.175
73190SOL    HW121344  12.264  14.681   0.152
73190SOL    HW221345  12.178  14.738   0.262
73191SOL     OW21346   9.085  14.190  10.707
73191SOL    HW121347   9.139  14.120  10.743
73191SOL    HW221348   9.148  14.255  10.676
73192SOL     OW21349  10.662   7.187   8.667
73192SOL    HW121350  10.718   7.196   8.589
73192SOL    HW221351  10.610   7.267   8.669
73193SOL     OW21352  11.515   2.265  10.317
73193SOL    HW121353  11.427   2.255  10.280
73193SOL    HW221354  11.563   2.189  10.284
73194SOL     OW21355   2.741  10.517   5.350
73194SOL    HW121356   2.686  10.571   5.293
73194SOL    HW221357   2.719  10.427   5.327
73195SOL     OW21358   2.147   2.552   0.661
73195SOL    HW121359   2.077   2.494   0.632
73195SOL    HW221360   2.225   2.496   0.661
73196SOL     OW21361   1.285  12.896   2.193
73196SOL    HW121362   1.239  12.930   2.117
73196SOL    HW221363   1.248  12.943   2.267
73197SOL     OW21364   8.996   6.173  14.835
73197SOL    HW121365   8.901   6.165  14.837
73197SOL    HW221366   9.023   6.155   0.047
73198SOL     OW21367  10.433   1.419  10.847
73198SOL    HW121368  10.523   1.414  10.878
73198SOL    HW221369  10.438   1.473  10.768
73199SOL     OW21370  12.970   0.674   1.467
73199SOL    HW121371  12.976   0.763   1.501
73199SOL    HW221372  13.011   0.678   1.380
73200SOL     OW21373   4.044  11.546   8.415
73200SOL    HW121374   4.038  11.617   8.351
73200SOL    HW221375   4.110  11.575   8.477
73201SOL     OW21376   8.026   1.969  10.538
73201SOL    HW121377   7.934   1.945  10.549
73201SOL    HW221378   8.057   1.913  10.466
73202SOL     OW21379   4.462   0.671  11.571
73202SOL    HW121380   4.383   0.631  11.534
73202SOL    HW221381   4.473   0.626  11.655
73203SOL     OW21382   4.309   8.558   2.601
73203SOL    HW121383   4.344   8.566   2.689
73203SOL    HW221384   4.221   8.521   2.613
73204SOL     OW21385   5.867   6.221  11.324
73204SOL    HW121386   5.869   6.168  11.244
73204SOL    HW221387   5.790   6.277  11.314
73205SOL     OW21388   1.538   9.504   8.295
73205SOL    HW121389   1.477   9.566   8.333
73205SOL    HW221390   1.495   9.419   8.303
73206SOL     OW21391  13.144  13.878  11.504
73206SOL    HW121392  13.107  13.962  11.531
73206SOL    HW221393  13.086  13.848  11.434
73207SOL     OW21394   5.310   6.051  10.385
73207SOL    HW121395   5.288   5.988  10.317
73207SOL    HW221396   5.286   6.136  10.348
73208SOL     OW21397   0.625  12.551   1.337
73208SOL    HW121398   0.572  12.589   1.408
73208SOL    HW221399   0.681  12.487   1.380
73209SOL     OW21400   6.174   3.552   1.640
73209SOL    HW121401   6.172   3.626   1.579
73209SOL    HW221402   6.098   3.565   1.696
73210SOL     OW21403   9.303   5.937  13.167
73210SOL    HW121404   9.285   5.959  13.258
73210SOL    HW221405   9.222   5.961  13.120
73211SOL     OW21406  12.712  12.285   7.797
73211SOL    HW121407  12.666  12.241   7.725
73211SOL    HW221408  12.746  12.213   7.850
73212SOL     OW21409   5.328   2.126  14.316
73212SOL    HW121410   5.416   2.121  14.278
73212SOL    HW221411   5.321   2.215  14.349
73213SOL     OW21412  13.027   6.536  11.656
73213SOL    HW121413  13.097   6.542  11.720
73213SOL    HW221414  12.947   6.554  11.706
73214SOL     OW21415   4.433   5.285   2.696
73214SOL    HW121416   4.366   5.222   2.669
73214SOL    HW221417   4.390   5.370   2.686
73215SOL     OW21418   4.520  10.839   0.599
73215SOL    HW121419   4.455  10.769   0.596
73215SOL    HW221420   4.579  10.815   0.671
73216SOL     OW21421   3.931  14.608   1.872
73216SOL    HW121422   3.974  14.650   1.797
73216SOL    HW221423   3.998  14.606   1.939
73217SOL     OW21424   0.682  14.714   9.432
73217SOL    HW121425   0.737  14.777   9.385
73217SOL    HW221426   0.709  14.721   9.523
73218SOL     OW21427   0.581   0.891   5.969
73218SOL    HW121428   0.635   0.900   6.047
73218SOL    HW221429   0.597   0.802   5.938
73219SOL     OW21430   5.700  14.444   0.134
73219SOL    HW121431   5.732  14.369   0.083
73219SOL    HW221432   5.666  14.405   0.214
73220SOL     OW21433   0.357   0.075   2.409
73220SOL    HW121434   0.355  14.866   2.449
73220SOL    HW221435   0.450   0.095   2.399
73221SOL     OW21436   6.938  11.641  11.621
73221SOL    HW121437   7.011  11.590  11.657
73221SOL    HW221438   6.975  11.687  11.546
73222SOL     OW21439   3.299   2.609   9.486
73222SOL    HW121440   3.293   2.541   9.418
73222SOL    HW221441   3.207   2.627   9.509
73223SOL     OW21442   1.230   8.588  10.032
73223SOL    HW121443   1.238   8.565  10.124
73223SOL    HW221444   1.142   8.625  10.023
73224SOL     OW21445  12.674   8.781  14.284
73224SOL    HW121446  12.583   8.797  14.260
73224SOL    HW221447  12.682   8.818  14.372
73225SOL     OW21448  11.694   3.893   6.826
73225SOL    HW121449  11.731   3.959   6.767
73225SOL    HW221450  11.627   3.941   6.875
73226SOL     OW21451   4.915   1.542   7.574
73226SOL    HW121452   4.884   1.552   7.484
73226SOL    HW221453   4.837   1.553   7.629
73227SOL     OW21454   8.652   8.555   6.188
73227SOL    HW121455   8.629   8.647   6.176
73227SOL    HW221456   8.664   8.545   6.282
73228SOL     OW21457  10.905  10.218  14.483
73228SOL    HW121458  10.923  10.125  14.472
73228SOL    HW221459  10.918  10.235  14.576
73229SOL     OW21460  10.000  13.917   9.250
73229SOL    HW121461  10.053  13.852   9.296
73229SOL    HW221462  10.061  13.986   9.226
73230SOL     OW21463   8.340   8.330   5.350
73230SOL    HW121464   8.403   8.257   5.350
73230SOL    HW221465   8.269   8.300   5.407
73231SOL     OW21466  11.423  10.861   0.119
73231SOL    HW121467  11.462  10.948   0.113
73231SOL    HW221468  11.414  10.832   0.028
73232SOL     OW21469   1.771   8.470   2.744
73232SOL    HW121470   1.837   8.448   2.679
73232SOL    HW221471   1.777   8.565   2.754
73233SOL     OW21472   2.052   7.276   9.386
73233SOL    HW121473   2.085   7.366   9.384
73233SOL    HW221474   1.957   7.285   9.373
73234SOL     OW21475  10.826   1.491   4.593
73234SOL    HW121476  10.862   1.534   4.670
73234SOL    HW221477  10.861   1.542   4.519
73235SOL     OW21478   2.711   2.635  12.976
73235SOL    HW121479   2.762   2.698  12.925
73235SOL    HW221480   2.668   2.580  12.911
73236SOL     OW21481   0.084  10.511   9.933
73236SOL    HW121482   0.026  10.529  10.008
73236SOL    HW221483   0.024  10.492   9.861
73237SOL     OW21484  14.191   5.355   4.905
73237SOL    HW121485  14.133   5.370   4.979
73237SOL    HW221486  14.277   5.339   4.944
73238SOL     OW21487  13.673  11.742   4.964
73238SOL    HW121488  13.759  11.700   4.964
73238SOL    HW221489  13.671  11.793   4.883
73239SOL     OW21490  10.562   0.637   9.684
73239SOL    HW121491  10.640   0.585   9.702
73239SOL    HW221492  10.545   0.623   9.591
73240SOL     OW21493  10.422   8.273  11.804
73240SOL    HW121494  10.446   8.248  11.714
73240SOL    HW221495  10.505   8.302  11.843
73241SOL     OW21496   1.184   2.817   5.213
73241SOL    HW121497   1.134   2.818   5.132
73241SOL    HW221498   1.152   2.894   5.261
73242SOL     OW21499  13.223   2.137   3.846
73242SOL    HW121500  13.144   2.094   3.880
73242SOL    HW221501  13.264   2.071   3.790
73243SOL     OW21502   7.664   3.929  11.506
73243SOL    HW121503   7.753   3.956  11.481
73243SOL    HW221504   7.607   3.970  11.441
73244SOL     OW21505  14.496   8.051   2.481
73244SOL    HW121506  14.472   8.026   2.570
73244SOL    HW221507  14.436   8.001   2.425
73245SOL     OW21508   9.557   7.265   9.018
73245SOL    HW121509   9.637   7.283   8.969
73245SOL    HW221510   9.525   7.350   9.046
73246SOL     OW21511   7.901  12.052   3.685
73246SOL    HW121512   7.930  12.131   3.639
73246SOL    HW221513   7.839  12.011   3.626
73247SOL     OW21514  11.193   1.999  14.322
73247SOL    HW121515  11.266   2.010  14.384
73247SOL    HW221516  11.233   2.011  14.236
73248SOL     OW21517  10.458  11.561  10.335
73248SOL    HW121518  10.523  11.492  10.323
73248SOL    HW221519  10.426  11.579  10.247
73249SOL     OW21520   0.329  12.564   8.612
73249SOL    HW121521   0.328  12.500   8.683
73249SOL    HW221522   0.350  12.647   8.655
73250SOL     OW21523   0.887   3.895  12.430
73250SOL    HW121524   0.839   3.852  12.359
73250SOL    HW221525   0.979   3.878  12.410
73251SOL     OW21526   0.012   0.942   2.030
73251SOL    HW121527   0.003   0.917   2.122
73251SOL    HW221528  14.801   0.970   2.004
73252SOL     OW21529   7.387   4.816  10.282
73252SOL    HW121530   7.322   4.799  10.351
73252SOL    HW221531   7.354   4.894  10.237
73253SOL     OW21532   3.087   1.412   8.819
73253SOL    HW121533   3.131   1.464   8.886
73253SOL    HW221534   3.097   1.321   8.847
73254SOL     OW21535  14.439   5.397   1.139
73254SOL    HW121536  14.357   5.382   1.091
73254SOL    HW221537  14.493   5.321   1.120
73255SOL     OW21538   6.931  14.434   9.581
73255SOL    HW121539   6.907  14.344   9.559
73255SOL    HW221540   6.989  14.426   9.656
73256SOL     OW21541   8.041   3.383  11.304
73256SOL    HW121542   7.964   3.438  11.288
73256SOL    HW221543   8.063   3.348  11.218
73257SOL     OW21544  10.848  11.468   6.119
73257SOL    HW121545  10.791  11.399   6.084
73257SOL    HW221546  10.895  11.500   6.042
73258SOL     OW21547   6.987   2.875   8.478
73258SOL    HW121548   7.003   2.851   8.569
73258SOL    HW221549   7.004   2.794   8.429
73259SOL     OW21550  13.427   2.428  13.976
73259SOL    HW121551  13.482   2.461  13.905
73259SOL    HW221552  13.364   2.370  13.934
73260SOL     OW21553   3.110   3.936   0.123
73260SOL    HW121554   3.087   3.979   0.040
73260SOL    HW221555   3.026   3.909   0.160
73261SOL     OW21556  12.446  14.114  14.031
73261SOL    HW121557  12.377  14.105  14.096
73261SOL    HW221558  12.451  14.208  14.014
73262SOL     OW21559   5.914   9.457  10.008
73262SOL    HW121560   5.828   9.488  10.037
73262SOL    HW221561   5.964   9.537   9.992
73263SOL     OW21562  10.605   5.104   3.463
73263SOL    HW121563  10.640   5.190   3.484
73263SOL    HW221564  10.510   5.117   3.459
73264SOL     OW21565   9.002   3.137  13.612
73264SOL    HW121566   8.968   3.221  13.642
73264SOL    HW221567   9.092   3.134  13.644
73265SOL     OW21568  11.871  10.173  13.543
73265SOL    HW121569  11.942  10.231  13.517
73265SOL    HW221570  11.795  10.204  13.492
73266SOL     OW21571   6.774   4.692   7.410
73266SOL    HW121572   6.742   4.603   7.419
73266SOL    HW221573   6.698   4.743   7.383
73267SOL     OW21574   2.049  12.785   8.233
73267SOL    HW121575   2.003  12.753   8.311
73267SOL    HW221576   2.066  12.706   8.181
73268SOL     OW21577   0.991   4.426  10.023
73268SOL    HW121578   1.011   4.418   9.930
73268SOL    HW221579   1.036   4.352  10.064
73269SOL     OW21580  13.962   7.928   3.242
73269SOL    HW121581  14.054   7.913   3.264
73269SOL    HW221582  13.916   7.854   3.280
73270SOL     OW21583   7.762   8.602   0.348
73270SOL    HW121584   7.831   8.559   0.399
73270SOL    HW221585   7.805   8.677   0.308
73271SOL     OW21586   4.860   7.481   3.896
73271SOL    HW121587   4.802   7.492   3.821
73271SOL    HW221588   4.818   7.413   3.949
73272SOL     OW21589   5.457  13.251  14.456
73272SOL    HW121590   5.485  13.252  14.548
73272SOL    HW221591   5.379  13.306  14.454
73273SOL     OW21592   9.170   8.074  13.647
73273SOL    HW121593   9.110   8.145  13.672
73273SOL    HW221594   9.113   8.005  13.614
73274SOL     OW21595   9.857  10.540   4.326
73274SOL    HW121596   9.901  10.561   4.408
73274SOL    HW221597   9.814  10.456   4.342
73275SOL     OW21598   1.702  13.133   6.043
73275SOL    HW121599   1.626  13.133   5.986
73275SOL    HW221600   1.697  13.050   6.090
73276SOL     OW21601   4.928   7.247   7.982
73276SOL    HW121602   4.965   7.335   7.988
73276SOL    HW221603   4.958   7.202   8.061
73277SOL     OW21604   6.984   5.862   5.288
73277SOL    HW121605   6.945   5.912   5.360
73277SOL    HW221606   6.928   5.880   5.213
73278SOL     OW21607   6.729   1.926   2.020
73278SOL    HW121608   6.675   1.889   1.951
73278SOL    HW221609   6.670   1.986   2.066
73279SOL     OW21610   3.597  13.317  12.968
73279SOL    HW121611   3.626  13.304  13.058
73279SOL    HW221612   3.510  13.356  12.975
73280SOL     OW21613   7.302   9.687   1.079
73280SOL    HW121614   7.350   9.623   1.026
73280SOL    HW221615   7.349   9.688   1.162
73281SOL     OW21616   4.021  12.285   5.987
73281SOL    HW121617   4.011  12.258   5.896
73281SOL    HW221618   4.077  12.363   5.982
73282SOL     OW21619  10.868   7.914   7.787
73282SOL    HW121620  10.929   7.928   7.859
73282SOL    HW221621  10.891   7.828   7.752
73283SOL     OW21622   6.616  10.627   0.592
73283SOL    HW121623   6.607  10.679   0.671
73283SOL    HW221624   6.526  10.603   0.569
73284SOL     OW21625   2.106  11.218  13.960
73284SOL    HW121626   2.119  11.197  14.053
73284SOL    HW221627   2.127  11.137  13.914
73285SOL     OW21628  13.814  12.664  12.204
73285SOL    HW121629  13.805  12.570  12.222
73285SOL    HW221630  13.734  12.687  12.157
73286SOL     OW21631   6.059  14.132   3.628
73286SOL    HW121632   6.009  14.192   3.572
73286SOL    HW221633   6.109  14.078   3.567
73287SOL     OW21634  13.858   6.471  13.154
73287SOL    HW121635  13.829   6.459  13.245
73287SOL    HW221636  13.890   6.561  13.151
73288SOL     OW21637  10.556  12.658  12.185
73288SOL    HW121638  10.563  12.608  12.104
73288SOL    HW221639  10.548  12.749  12.157
73289SOL     OW21640  12.195   8.544   8.672
73289SOL    HW121641  12.161   8.633   8.682
73289SOL    HW221642  12.290   8.555   8.675
73290SOL     OW21643  14.368  10.353   2.496
73290SOL    HW121644  14.431  10.287   2.466
73290SOL    HW221645  14.383  10.359   2.590
73291SOL     OW21646   3.948   2.656   1.155
73291SOL    HW121647   3.951   2.626   1.064
73291SOL    HW221648   4.028   2.707   1.166
73292SOL     OW21649  13.543  14.665   7.813
73292SOL    HW121650  13.577  14.725   7.880
73292SOL    HW221651  13.493  14.600   7.863
73293SOL     OW21652   6.136   3.832   9.192
73293SOL    HW121653   6.051   3.844   9.233
73293SOL    HW221654   6.115   3.804   9.103
73294SOL     OW21655   3.387  12.505   6.193
73294SOL    HW121656   3.365  12.556   6.270
73294SOL    HW221657   3.419  12.570   6.130
73295SOL     OW21658   4.237   6.720   1.289
73295SOL    HW121659   4.184   6.788   1.331
73295SOL    HW221660   4.327   6.750   1.301
73296SOL     OW21661  10.298   1.112   6.831
73296SOL    HW121662  10.237   1.175   6.793
73296SOL    HW221663  10.377   1.163   6.849
73297SOL     OW21664   2.533   4.541  14.469
73297SOL    HW121665   2.443   4.515  14.490
73297SOL    HW221666   2.579   4.458  14.457
73298SOL     OW21667  13.060   0.715   3.051
73298SOL    HW121668  13.055   0.634   3.102
73298SOL    HW221669  12.981   0.764   3.076
73299SOL     OW21670   9.082  13.921   0.647
73299SOL    HW121671   9.070  13.881   0.734
73299SOL    HW221672   9.010  13.983   0.640
73300SOL     OW21673  14.138   0.148   6.789
73300SOL    HW121674  14.149   0.104   6.872
73300SOL    HW221675  14.183   0.093   6.725
73301SOL     OW21676   8.728   9.920   1.227
73301SOL    HW121677   8.797   9.895   1.166
73301SOL    HW221678   8.701  10.007   1.198
73302SOL     OW21679  12.041   1.807   9.060
73302SOL    HW121680  11.955   1.774   9.087
73302SOL    HW221681  12.043   1.898   9.090
73303SOL     OW21682  14.231   1.758  14.443
73303SOL    HW121683  14.189   1.695  14.385
73303SOL    HW221684  14.296   1.802  14.388
73304SOL     OW21685   3.329  12.575  10.660
73304SOL    HW121686   3.383  12.576  10.581
73304SOL    HW221687   3.392  12.565  10.732
73305SOL     OW21688   2.375   2.553   6.446
73305SOL    HW121689   2.462   2.556   6.407
73305SOL    HW221690   2.371   2.630   6.502
73306SOL     OW21691   2.373   6.462   7.417
73306SOL    HW121692   2.462   6.489   7.440
73306SOL    HW221693   2.368   6.370   7.445
73307SOL     OW21694   3.417   5.405  12.355
73307SOL    HW121695   3.430   5.389  12.262
73307SOL    HW221696   3.329   5.440  12.362
73308SOL     OW21697   8.856   8.041   2.752
73308SOL    HW121698   8.782   8.101   2.739
73308SOL    HW221699   8.923   8.072   2.691
73309SOL     OW21700  13.587   4.443   6.098
73309SOL    HW121701  13.492   4.449   6.095
73309SOL    HW221702  13.618   4.521   6.053
73310SOL     OW21703   6.117   2.772  11.043
73310SOL    HW121704   6.067   2.736  10.970
73310SOL    HW221705   6.209   2.765  11.015
73311SOL     OW21706  11.737  12.773   3.665
73311SOL    HW121707  11.761  12.695   3.614
73311SOL    HW221708  11.788  12.765   3.746
73312SOL     OW21709   3.486   6.516   2.744
73312SOL    HW121710   3.546   6.488   2.813
73312SOL    HW221711   3.414   6.453   2.748
73313SOL     OW21712   6.308   9.140  10.477
73313SOL    HW121713   6.235   9.193  10.445
73313SOL    HW221714   6.269   9.084  10.545
73314SOL     OW21715   2.137  11.221  14.692
73314SOL    HW121716   2.178  11.298  14.731
73314SOL    HW221717   2.065  11.256  14.640
73315SOL     OW21718   4.430   5.857   7.156
73315SOL    HW121719   4.520   5.888   7.147
73315SOL    HW221720   4.390   5.917   7.219
73316SOL     OW21721   3.206   9.977   5.795
73316SOL    HW121722   3.175   9.910   5.734
73316SOL    HW221723   3.280  10.018   5.750
73317SOL     OW21724   4.039  14.656   1.267
73317SOL    HW121725   4.054  14.572   1.310
73317SOL    HW221726   3.944  14.670   1.275
73318SOL     OW21727   5.842  13.958   4.800
73318SOL    HW121728   5.880  13.967   4.888
73318SOL    HW221729   5.753  13.928   4.815
73319SOL     OW21730   0.987   0.036   2.823
73319SOL    HW121731   1.058   0.090   2.859
73319SOL    HW221732   1.018   0.013   2.735
73320SOL     OW21733   5.603   3.446  13.516
73320SOL    HW121734   5.615   3.537  13.543
73320SOL    HW221735   5.510   3.440  13.494
73321SOL     OW21736  14.646   0.341   0.011
73321SOL    HW121737  14.571   0.283  14.875
73321SOL    HW221738  14.674   0.364  14.800
73322SOL     OW21739   8.953   4.842  12.073
73322SOL    HW121740   8.979   4.897  11.999
73322SOL    HW221741   8.947   4.903  12.147
73323SOL     OW21742   6.574   2.947   4.127
73323SOL    HW121743   6.621   2.884   4.071
73323SOL    HW221744   6.629   2.955   4.205
73324SOL     OW21745   3.242   3.649   4.068
73324SOL    HW121746   3.302   3.608   4.006
73324SOL    HW221747   3.168   3.677   4.014
73325SOL     OW21748   2.298   8.827   5.528
73325SOL    HW121749   2.234   8.756   5.534
73325SOL    HW221750   2.267   8.881   5.455
73326SOL     OW21751   5.497  10.154   2.145
73326SOL    HW121752   5.567  10.181   2.086
73326SOL    HW221753   5.528  10.176   2.232
73327SOL     OW21754   4.599   5.662   1.232
73327SOL    HW121755   4.606   5.651   1.137
73327SOL    HW221756   4.525   5.608   1.257
73328SOL     OW21757   2.815   9.980  14.347
73328SOL    HW121758   2.848  10.009  14.431
73328SOL    HW221759   2.892   9.948  14.300
73329SOL     OW21760   0.210   8.355   4.697
73329SOL    HW121761   0.246   8.415   4.763
73329SOL    HW221762   0.168   8.286   4.748
73330SOL     OW21763   1.138   0.745   9.730
73330SOL    HW121764   1.217   0.693   9.720
73330SOL    HW221765   1.168   0.831   9.759
73331SOL     OW21766  14.412   7.082   3.188
73331SOL    HW121767  14.474   7.146   3.223
73331SOL    HW221768  14.326   7.114   3.216
73332SOL     OW21769  11.859   1.076   0.199
73332SOL    HW121770  11.787   1.068   0.137
73332SOL    HW221771  11.830   1.143   0.261
73333SOL     OW21772   4.455   5.234  13.189
73333SOL    HW121773   4.533   5.188  13.218
73333SOL    HW221774   4.486   5.294  13.122
73334SOL     OW21775  13.924   1.180   2.784
73334SOL    HW121776  13.898   1.088   2.777
73334SOL    HW221777  13.948   1.191   2.876
73335SOL     OW21778   5.239   6.126   0.939
73335SOL    HW121779   5.184   6.112   1.016
73335SOL    HW221780   5.178   6.160   0.873
73336SOL     OW21781   0.179   5.187  12.711
73336SOL    HW121782   0.151   5.209  12.800
73336SOL    HW221783   0.100   5.156  12.667
73337SOL     OW21784   6.216   9.371   0.339
73337SOL    HW121785   6.238   9.319   0.262
73337SOL    HW221786   6.296   9.374   0.391
73338SOL     OW21787   4.854   3.477   3.766
73338SOL    HW121788   4.922   3.489   3.699
73338SOL    HW221789   4.775   3.460   3.716
73339SOL     OW21790   9.377   5.167   5.466
73339SOL    HW121791   9.340   5.213   5.390
73339SOL    HW221792   9.375   5.075   5.442
73340SOL     OW21793  14.468   2.045  13.165
73340SOL    HW121794  14.499   2.129  13.200
73340SOL    HW221795  14.407   2.012  13.232
73341SOL     OW21796  12.214   4.750   6.006
73341SOL    HW121797  12.301   4.790   6.005
73341SOL    HW221798  12.229   4.658   5.983
73342SOL     OW21799  12.077  12.673  13.562
73342SOL    HW121800  12.000  12.689  13.616
73342SOL    HW221801  12.069  12.582  13.534
73343SOL     OW21802   6.752   1.630  14.653
73343SOL    HW121803   6.843   1.636  14.624
73343SOL    HW221804   6.717   1.554  14.606
73344SOL     OW21805   5.220  11.167  12.283
73344SOL    HW121806   5.285  11.236  12.296
73344SOL    HW221807   5.196  11.141  12.372
73345SOL     OW21808   7.940  11.103   7.736
73345SOL    HW121809   7.957  11.014   7.706
73345SOL    HW221810   7.967  11.159   7.663
73346SOL     OW21811   4.246   0.000  13.329
73346SOL    HW121812   4.292  14.826  13.396
73346SOL    HW221813   4.172  14.822  13.302
73347SOL     OW21814  11.932  10.396   3.147
73347SOL    HW121815  11.957  10.373   3.057
73347SOL    HW221816  11.952  10.317   3.198
73348SOL     OW21817   3.827   1.033   2.120
73348SOL    HW121818   3.849   0.948   2.084
73348SOL    HW221819   3.907   1.085   2.113
73349SOL     OW21820  11.078   7.316   3.812
73349SOL    HW121821  11.120   7.384   3.759
73349SOL    HW221822  11.059   7.246   3.750
73350SOL     OW21823   8.029  10.355   1.504
73350SOL    HW121824   8.046  10.267   1.538
73350SOL    HW221825   8.035  10.345   1.409
73351SOL     OW21826  14.009   7.839  14.713
73351SOL    HW121827  13.924   7.880  14.701
73351SOL    HW221828  13.991   7.745  14.711
73352SOL     OW21829   0.361   4.669  10.065
73352SOL    HW121830   0.409   4.742  10.027
73352SOL    HW221831   0.272   4.703  10.078
73353SOL     OW21832  12.051   6.220   5.370
73353SOL    HW121833  12.008   6.221   5.284
73353SOL    HW221834  12.099   6.303   5.374
73354SOL     OW21835  10.409   1.385  13.525
73354SOL    HW121836  10.363   1.469  13.521
73354SOL    HW221837  10.342   1.322  13.554
73355SOL     OW21838   3.322   7.513   1.651
73355SOL    HW121839   3.332   7.485   1.561
73355SOL    HW221840   3.278   7.598   1.645
73356SOL     OW21841  14.554   8.115  14.143
73356SOL    HW121842  14.555   8.077  14.230
73356SOL    HW221843  14.460   8.123  14.122
73357SOL     OW21844   9.968   2.535   9.246
73357SOL    HW121845   9.983   2.622   9.282
73357SOL    HW221846   9.876   2.517   9.265
73358SOL     OW21847   0.238   2.498  10.409
73358SOL    HW121848   0.327   2.534  10.408
73358SOL    HW221849   0.250   2.404  10.395
73359SOL     OW21850  13.473   4.469  10.645
73359SOL    HW121851  13.541   4.492  10.582
73359SOL    HW221852  13.513   4.487  10.731
73360SOL     OW21853  14.374   0.011  12.163
73360SOL    HW121854  14.448   0.071  12.152
73360SOL    HW221855  14.376  14.834  12.084
73361SOL     OW21856  12.401   1.836   5.431
73361SOL    HW121857  12.337   1.825   5.362
73361SOL    HW221858  12.448   1.753   5.435
73362SOL     OW21859  11.518  13.027   0.798
73362SOL    HW121860  11.468  13.108   0.811
73362SOL    HW221861  11.474  12.984   0.725
73363SOL     OW21862  12.049   1.151   0.038
73363SOL    HW121863  11.974   1.132   0.095
73363SOL    HW221864  12.109   1.202   0.093
73364SOL     OW21865   4.464   4.924  12.525
73364SOL    HW121866   4.539   4.872  12.554
73364SOL    HW221867   4.492   4.961  12.441
73365SOL     OW21868   6.863   0.317  11.550
73365SOL    HW121869   6.770   0.339  11.555
73365SOL    HW221870   6.907   0.389  11.595
73366SOL     OW21871   4.928  14.830   1.696
73366SOL    HW121872   4.921  14.758   1.633
73366SOL    HW221873   4.864  14.809   1.764
73367SOL     OW21874  11.424   1.553  11.048
73367SOL    HW121875  11.519   1.550  11.034
73367SOL    HW221876  11.395   1.627  10.995
73368SOL     OW21877   1.802  12.330  12.908
73368SOL    HW121878   1.835  12.322  12.818
73368SOL    HW221879   1.715  12.368  12.898
73369SOL     OW21880   6.570  10.556  14.353
73369SOL    HW121881   6.503  10.622  14.369
73369SOL    HW221882   6.650  10.593  14.392
73370SOL     OW21883   2.138   2.360  12.284
73370SOL    HW121884   2.123   2.333  12.375
73370SOL    HW221885   2.071   2.314  12.234
73371SOL     OW21886  12.690   8.508  10.717
73371SOL    HW121887  12.683   8.413  10.728
73371SOL    HW221888  12.603   8.535  10.687
73372SOL     OW21889  14.637   6.335   8.514
73372SOL    HW121890  14.657   6.331   8.420
73372SOL    HW221891  14.543   6.322   8.518
73373SOL     OW21892   5.442   5.083   8.000
73373SOL    HW121893   5.386   5.080   8.077
73373SOL    HW221894   5.447   5.175   7.977
73374SOL     OW21895   5.796   6.456   4.682
73374SOL    HW121896   5.791   6.523   4.750
73374SOL    HW221897   5.787   6.505   4.600
73375SOL     OW21898  10.052   2.794  14.137
73375SOL    HW121899  10.115   2.820  14.070
73375SOL    HW221900  10.093   2.819  14.220
73376SOL     OW21901   0.851   9.884   4.939
73376SOL    HW121902   0.769   9.862   4.895
73376SOL    HW221903   0.870   9.974   4.911
73377SOL     OW21904   0.924   7.746  12.246
73377SOL    HW121905   0.921   7.817  12.311
73377SOL    HW221906   0.955   7.789  12.166
73378SOL     OW21907  10.141  14.135   7.678
73378SOL    HW121908  10.149  14.174   7.765
73378SOL    HW221909  10.145  14.209   7.617
73379SOL     OW21910   7.503  13.062   9.630
73379SOL    HW121911   7.545  13.085   9.547
73379SOL    HW221912   7.568  13.009   9.676
73380SOL     OW21913   1.906  10.555  14.541
73380SOL    HW121914   1.894  10.509  14.624
73380SOL    HW221915   1.817  10.580  14.514
73381SOL     OW21916   3.198   7.022  12.508
73381SOL    HW121917   3.258   7.095  12.490
73381SOL    HW221918   3.227   6.952  12.450
73382SOL     OW21919   1.300  12.161  12.029
73382SOL    HW121920   1.381  12.195  11.990
73382SOL    HW221921   1.264  12.235  12.077
73383SOL     OW21922   1.336  10.517   4.047
73383SOL    HW121923   1.255  10.551   4.085
73383SOL    HW221924   1.346  10.430   4.085
73384SOL     OW21925  14.300   3.270   7.816
73384SOL    HW121926  14.324   3.268   7.723
73384SOL    HW221927  14.309   3.361   7.841
73385SOL     OW21928  11.488   8.540   5.209
73385SOL    HW121929  11.551   8.531   5.280
73385SOL    HW221930  11.411   8.580   5.249
73386SOL     OW21931  10.670   1.890  13.855
73386SOL    HW121932  10.664   1.840  13.937
73386SOL    HW221933  10.724   1.835  13.798
73387SOL     OW21934   1.872  10.529   1.625
73387SOL    HW121935   1.932  10.514   1.698
73387SOL    HW221936   1.929  10.555   1.552
73388SOL     OW21937   2.645  12.575   3.831
73388SOL    HW121938   2.575  12.635   3.855
73388SOL    HW221939   2.710  12.584   3.901
73389SOL     OW21940   5.926  13.474  14.078
73389SOL    HW121941   5.918  13.419  14.156
73389SOL    HW221942   5.924  13.563  14.111
73390SOL     OW21943  10.778   6.779   3.841
73390SOL    HW121944  10.782   6.870   3.872
73390SOL    HW221945  10.717   6.782   3.767
73391SOL     OW21946  11.481  13.261   1.297
73391SOL    HW121947  11.512  13.172   1.318
73391SOL    HW221948  11.392  13.248   1.264
73392SOL     OW21949   0.839   8.954  13.903
73392SOL    HW121950   0.826   9.048  13.898
73392SOL    HW221951   0.900   8.942  13.976
73393SOL     OW21952   5.970   3.863   8.114
73393SOL    HW121953   5.925   3.891   8.194
73393SOL    HW221954   6.030   3.935   8.094
73394SOL     OW21955  10.472   6.470   9.153
73394SOL    HW121956  10.425   6.484   9.071
73394SOL    HW221957  10.560   6.443   9.126
73395SOL     OW21958   6.487   5.705   0.488
73395SOL    HW121959   6.521   5.764   0.422
73395SOL    HW221960   6.490   5.755   0.570
73396SOL     OW21961  11.481   8.791   9.086
73396SOL    HW121962  11.562   8.835   9.111
73396SOL    HW221963  11.448   8.842   9.011
73397SOL     OW21964  13.622  12.386  14.486
73397SOL    HW121965  13.679  12.462  14.501
73397SOL    HW221966  13.608  12.348  14.572
73398SOL     OW21967   0.691   3.098  13.425
73398SOL    HW121968   0.746   3.169  13.391
73398SOL    HW221969   0.696   3.107  13.520
73399SOL     OW21970   1.774   9.083   9.067
73399SOL    HW121971   1.754   9.044   8.982
73399SOL    HW221972   1.867   9.064   9.080
73400SOL     OW21973  13.251   8.181  13.969
73400SOL    HW121974  13.161   8.149  13.965
73400SOL    HW221975  13.293   8.145  13.891
73401SOL     OW21976  12.221   0.898   0.487
73401SOL    HW121977  12.148   0.853   0.530
73401SOL    HW221978  12.227   0.857   0.401
73402SOL     OW21979   4.856   1.718   5.858
73402SOL    HW121980   4.837   1.682   5.944
73402SOL    HW221981   4.850   1.643   5.798
73403SOL     OW21982  10.304   8.034  11.360
73403SOL    HW121983  10.351   8.034  11.444
73403SOL    HW221984  10.268   7.945  11.353
73404SOL     OW21985  12.045   6.273   3.288
73404SOL    HW121986  11.997   6.277   3.371
73404SOL    HW221987  11.995   6.211   3.235
73405SOL     OW21988   5.632   2.849   2.952
73405SOL    HW121989   5.610   2.927   3.002
73405SOL    HW221990   5.710   2.874   2.902
73406SOL     OW21991   4.534   2.939   2.766
73406SOL    HW121992   4.451   2.963   2.724
73406SOL    HW221993   4.532   2.985   2.850
73407SOL     OW21994  11.171   9.921   3.669
73407SOL    HW121995  11.170   9.958   3.757
73407SOL    HW221996  11.079   9.900   3.651
73408SOL     OW21997  13.002   6.413   8.213
73408SOL    HW121998  13.030   6.340   8.159
73408SOL    HW221999  13.024   6.491   8.161
73409SOL     OW22000   1.013  10.845   0.495
73409SOL    HW122001   1.058  10.770   0.456
73409SOL    HW222002   0.925  10.813   0.514
73410SOL     OW22003   6.109   0.923   9.499
73410SOL    HW122004   6.030   0.872   9.481
73410SOL    HW222005   6.175   0.857   9.522
73411SOL     OW22006  11.905  14.871   0.646
73411SOL    HW122007  11.930  14.820   0.723
73411SOL    HW222008  11.911   0.085   0.674
73412SOL     OW22009   9.399   5.761  11.390
73412SOL    HW122010   9.327   5.813  11.354
73412SOL    HW222011   9.404   5.685  11.331
73413SOL     OW22012   7.117   7.227  13.022
73413SOL    HW122013   7.057   7.272  13.082
73413SOL    HW222014   7.205   7.249  13.055
73414SOL     OW22015  14.085  10.889  10.573
73414SOL    HW122016  14.155  10.859  10.515
73414SOL    HW222017  14.052  10.810  10.615
73415SOL     OW22018   5.246   0.492   0.648
73415SOL    HW122019   5.233   0.579   0.609
73415SOL    HW222020   5.216   0.432   0.579
73416SOL     OW22021  11.928  10.323   8.701
73416SOL    HW122022  11.989  10.322   8.775
73416SOL    HW222023  11.905  10.231   8.688
73417SOL     OW22024   0.642   7.155  14.461
73417SOL    HW122025   0.717   7.214  14.457
73417SOL    HW222026   0.628   7.141  14.554
73418SOL     OW22027   8.643  11.895   0.275
73418SOL    HW122028   8.555  11.914   0.241
73418SOL    HW222029   8.646  11.800   0.283
73419SOL     OW22030   6.613  11.584   4.196
73419SOL    HW122031   6.690  11.639   4.188
73419SOL    HW222032   6.555  11.612   4.125
73420SOL     OW22033  11.996   7.546   1.588
73420SOL    HW122034  12.073   7.531   1.643
73420SOL    HW222035  11.995   7.472   1.527
73421SOL     OW22036  14.286   2.371  12.004
73421SOL    HW122037  14.228   2.415  12.066
73421SOL    HW222038  14.227   2.321  11.947
73422SOL     OW22039   1.824   5.156   5.310
73422SOL    HW122040   1.870   5.112   5.382
73422SOL    HW222041   1.742   5.186   5.348
73423SOL     OW22042   6.817  11.882  13.472
73423SOL    HW122043   6.735  11.832  13.476
73423SOL    HW222044   6.868  11.838  13.404
73424SOL     OW22045   6.414   5.236   7.656
73424SOL    HW122046   6.458   5.295   7.596
73424SOL    HW222047   6.363   5.177   7.600
73425SOL     OW22048  10.182   9.477   4.870
73425SOL    HW122049  10.113   9.430   4.824
73425SOL    HW222050  10.139   9.555   4.905
73426SOL     OW22051   9.757  10.484   7.006
73426SOL    HW122052   9.681  10.489   6.948
73426SOL    HW222053   9.832  10.505   6.949
73427SOL     OW22054   7.615   0.274   1.497
73427SOL    HW122055   7.572   0.247   1.579
73427SOL    HW222056   7.548   0.265   1.430
73428SOL     OW22057  14.499  10.261   1.902
73428SOL    HW122058  14.495  10.213   1.985
73428SOL    HW222059  14.512  10.194   1.836
73429SOL     OW22060  10.848   3.775   2.942
73429SOL    HW122061  10.842   3.716   3.018
73429SOL    HW222062  10.855   3.862   2.980
73430SOL     OW22063   0.211   2.619  13.647
73430SOL    HW122064   0.178   2.707  13.628
73430SOL    HW222065   0.155   2.561  13.597
73431SOL     OW22066  10.291   4.398   5.280
73431SOL    HW122067  10.386   4.396   5.269
73431SOL    HW222068  10.259   4.444   5.202
73432SOL     OW22069   5.983   1.929   5.720
73432SOL    HW122070   6.038   2.006   5.730
73432SOL    HW222071   6.020   1.882   5.645
73433SOL     OW22072   6.360   7.757   2.651
73433SOL    HW122073   6.452   7.780   2.642
73433SOL    HW222074   6.360   7.662   2.659
73434SOL     OW22075   6.342   1.468   9.269
73434SOL    HW122076   6.320   1.558   9.245
73434SOL    HW222077   6.377   1.474   9.358
73435SOL     OW22078   6.289   4.054   0.716
73435SOL    HW122079   6.259   4.106   0.791
73435SOL    HW222080   6.220   3.988   0.705
73436SOL     OW22081  11.456   5.701  14.536
73436SOL    HW122082  11.510   5.681  14.460
73436SOL    HW222083  11.440   5.617  14.577
73437SOL     OW22084   6.868   5.552   4.049
73437SOL    HW122085   6.939   5.551   3.984
73437SOL    HW222086   6.859   5.460   4.075
73438SOL     OW22087  10.364   9.563  14.605
73438SOL    HW122088  10.322   9.644  14.635
73438SOL    HW222089  10.451   9.591  14.577
73439SOL     OW22090   5.912  10.769   3.040
73439SOL    HW122091   5.979  10.784   2.974
73439SOL    HW222092   5.922  10.842   3.101
73440SOL     OW22093   7.264  11.219   5.690
73440SOL    HW122094   7.324  11.196   5.618
73440SOL    HW222095   7.236  11.135   5.726
73441SOL     OW22096   4.344   3.443   9.403
73441SOL    HW122097   4.283   3.510   9.374
73441SOL    HW222098   4.416   3.448   9.340
73442SOL     OW22099   3.842   8.665   1.209
73442SOL    HW122100   3.833   8.700   1.120
73442SOL    HW222101   3.752   8.652   1.239
73443SOL     OW22102  13.067   3.530   4.813
73443SOL    HW122103  12.987   3.575   4.784
73443SOL    HW222104  13.062   3.444   4.772
73444SOL     OW22105   7.618   6.112  11.923
73444SOL    HW122106   7.639   6.145  11.836
73444SOL    HW222107   7.608   6.018  11.912
73445SOL     OW22108  12.243   9.425   8.547
73445SOL    HW122109  12.268   9.359   8.611
73445SOL    HW222110  12.167   9.387   8.502
73446SOL     OW22111   7.029   1.480   1.472
73446SOL    HW122112   6.989   1.414   1.528
73446SOL    HW222113   7.117   1.445   1.454
73447SOL     OW22114  13.877  10.707   8.763
73447SOL    HW122115  13.865  10.789   8.714
73447SOL    HW222116  13.881  10.639   8.695
73448SOL     OW22117   2.934   1.908   2.716
73448SOL    HW122118   2.918   2.003   2.711
73448SOL    HW222119   2.866   1.870   2.661
73449SOL     OW22120   9.575   7.778   6.443
73449SOL    HW122121   9.510   7.708   6.434
73449SOL    HW222122   9.598   7.802   6.354
73450SOL     OW22123   4.230  13.577  12.739
73450SOL    HW122124   4.241  13.664  12.776
73450SOL    HW222125   4.144  13.580  12.696
73451SOL     OW22126   5.127   8.544  12.122
73451SOL    HW122127   5.221   8.551  12.107
73451SOL    HW222128   5.098   8.475  12.063
73452SOL     OW22129  14.641   5.166   7.574
73452SOL    HW122130  14.557   5.161   7.530
73452SOL    HW222131  14.634   5.104   7.646
73453SOL     OW22132   3.896  10.759  10.964
73453SOL    HW122133   3.836  10.694  10.927
73453SOL    HW222134   3.898  10.830  10.900
73454SOL     OW22135   3.159   0.949  14.768
73454SOL    HW122136   3.160   0.912  14.857
73454SOL    HW222137   3.241   0.920  14.729
73455SOL     OW22138   8.118  10.687   6.771
73455SOL    HW122139   8.067  10.638   6.835
73455SOL    HW222140   8.203  10.701   6.814
73456SOL     OW22141   3.639  12.102   2.834
73456SOL    HW122142   3.607  12.163   2.901
73456SOL    HW222143   3.567  12.040   2.822
73457SOL     OW22144   1.207  13.714   6.584
73457SOL    HW122145   1.257  13.661   6.522
73457SOL    HW222146   1.121  13.723   6.544
73458SOL     OW22147  13.291   5.698   9.171
73458SOL    HW122148  13.338   5.757   9.112
73458SOL    HW222149  13.301   5.612   9.131
73459SOL     OW22150   8.636   2.518   9.771
73459SOL    HW122151   8.700   2.571   9.819
73459SOL    HW222152   8.679   2.433   9.762
73460SOL     OW22153   9.102  11.405  11.801
73460SOL    HW122154   9.143  11.372  11.721
73460SOL    HW222155   9.149  11.361  11.872
73461SOL     OW22156   7.949  10.259  13.313
73461SOL    HW122157   7.935  10.228  13.224
73461SOL    HW222158   7.941  10.181  13.368
73462SOL     OW22159  10.937   6.552  11.051
73462SOL    HW122160  10.921   6.586  10.963
73462SOL    HW222161  11.029   6.524  11.049
73463SOL     OW22162  13.742   0.311  13.770
73463SOL    HW122163  13.764   0.397  13.736
73463SOL    HW222164  13.666   0.327  13.827
73464SOL     OW22165  10.287   3.310   1.994
73464SOL    HW122166  10.320   3.309   1.905
73464SOL    HW222167  10.192   3.299   1.985
73465SOL     OW22168  14.552  14.115  12.292
73465SOL    HW122169  14.520  14.094  12.205
73465SOL    HW222170  14.564  14.029  12.334
73466SOL     OW22171  11.226  10.597   7.242
73466SOL    HW122172  11.210  10.560   7.155
73466SOL    HW222173  11.191  10.532   7.303
73467SOL     OW22174   7.376   1.249   7.539
73467SOL    HW122175   7.407   1.164   7.572
73467SOL    HW222176   7.396   1.247   7.445
73468SOL     OW22177   4.491   9.001  14.464
73468SOL    HW122178   4.410   8.961  14.433
73468SOL    HW222179   4.469   9.093  14.476
73469SOL     OW22180   0.221  14.213  11.740
73469SOL    HW122181   0.217  14.185  11.649
73469SOL    HW222182   0.272  14.145  11.784
73470SOL     OW22183   4.992   0.815   3.842
73470SOL    HW122184   4.980   0.829   3.748
73470SOL    HW222185   5.046   0.736   3.848
73471SOL     OW22186   5.921   5.472   0.744
73471SOL    HW122187   6.000   5.442   0.789
73471SOL    HW222188   5.860   5.493   0.814
73472SOL     OW22189  13.683   1.976   1.280
73472SOL    HW122190  13.729   2.015   1.354
73472SOL    HW222191  13.738   1.997   1.204
73473SOL     OW22192  13.156  10.681   9.955
73473SOL    HW122193  13.071  10.695   9.996
73473SOL    HW222194  13.197  10.768   9.954
73474SOL     OW22195   7.241   4.425   2.364
73474SOL    HW122196   7.284   4.465   2.439
73474SOL    HW222197   7.287   4.343   2.350
73475SOL     OW22198  14.219   8.904   4.468
73475SOL    HW122199  14.277   8.910   4.544
73475SOL    HW222200  14.141   8.861   4.502
73476SOL     OW22201   4.997   7.001   9.070
73476SOL    HW122202   4.995   6.964   8.981
73476SOL    HW222203   4.911   7.041   9.082
73477SOL     OW22204   8.896  12.830   9.223
73477SOL    HW122205   8.802  12.816   9.214
73477SOL    HW222206   8.904  12.890   9.297
73478SOL     OW22207   6.786   4.237   6.524
73478SOL    HW122208   6.706   4.283   6.495
73478SOL    HW222209   6.761   4.196   6.607
73479SOL     OW22210  14.154   9.974  11.430
73479SOL    HW122211  14.189   9.961  11.518
73479SOL    HW222212  14.114  10.061  11.433
73480SOL     OW22213   6.880   0.755   0.830
73480SOL    HW122214   6.894   0.745   0.735
73480SOL    HW222215   6.809   0.694   0.850
73481SOL     OW22216  11.065  10.766  11.922
73481SOL    HW122217  11.139  10.717  11.957
73481SOL    HW222218  11.027  10.708  11.856
73482SOL     OW22219   6.337  10.339   7.464
73482SOL    HW122220   6.335  10.244   7.455
73482SOL    HW222221   6.382  10.354   7.548
73483SOL     OW22222   1.710   0.837  13.485
73483SOL    HW122223   1.767   0.907  13.453
73483SOL    HW222224   1.651   0.819  13.412
73484SOL     OW22225   2.590  12.411  12.961
73484SOL    HW122226   2.600  12.488  12.906
73484SOL    HW222227   2.604  12.443  13.050
73485SOL     OW22228   7.543  12.935   0.680
73485SOL    HW122229   7.562  13.005   0.742
73485SOL    HW222230   7.464  12.893   0.715
73486SOL     OW22231  13.527   4.111   1.724
73486SOL    HW122232  13.617   4.081   1.737
73486SOL    HW222233  13.510   4.167   1.801
73487SOL     OW22234  12.299   2.024   0.038
73487SOL    HW122235  12.312   1.959  14.846
73487SOL    HW222236  12.281   1.973   0.116
73488SOL     OW22237  11.872  10.993   6.206
73488SOL    HW122238  11.922  11.021   6.282
73488SOL    HW222239  11.885  10.898   6.202
73489SOL     OW22240   5.668  12.583   0.194
73489SOL    HW122241   5.678  12.487   0.196
73489SOL    HW222242   5.709  12.609   0.111
73490SOL     OW22243  10.617   1.788   7.534
73490SOL    HW122244  10.674   1.719   7.502
73490SOL    HW222245  10.577   1.751   7.613
73491SOL     OW22246   9.587  11.851  10.539
73491SOL    HW122247   9.545  11.768  10.514
73491SOL    HW222248   9.582  11.852  10.634
73492SOL     OW22249   3.307   0.925   1.957
73492SOL    HW122250   3.287   1.018   1.968
73492SOL    HW222251   3.317   0.891   2.045
73493SOL     OW22252  10.100   1.170   0.804
73493SOL    HW122253  10.181   1.162   0.854
73493SOL    HW222254  10.107   1.255   0.761
73494SOL     OW22255  13.235   5.628   3.850
73494SOL    HW122256  13.210   5.546   3.894
73494SOL    HW222257  13.316   5.606   3.804
73495SOL     OW22258  10.498   0.272  11.421
73495SOL    HW122259  10.513   0.366  11.424
73495SOL    HW222260  10.477   0.247  11.511
73496SOL     OW22261   2.745  11.748  10.020
73496SOL    HW122262   2.824  11.725  10.068
73496SOL    HW222263   2.755  11.841   9.999
73497SOL     OW22264   7.190   6.525   1.721
73497SOL    HW122265   7.139   6.606   1.719
73497SOL    HW222266   7.173   6.484   1.636
73498SOL     OW22267   6.634   5.650   3.323
73498SOL    HW122268   6.638   5.740   3.290
73498SOL    HW222269   6.624   5.596   3.245
73499SOL     OW22270   7.685   8.989  10.187
73499SOL    HW122271   7.601   9.000  10.143
73499SOL    HW222272   7.750   9.020  10.123
73500SOL     OW22273   1.793  11.397  10.736
73500SOL    HW122274   1.772  11.365  10.649
73500SOL    HW222275   1.721  11.457  10.758
73501SOL     OW22276  14.441  14.597  11.879
73501SOL    HW122277  14.487  14.527  11.833
73501SOL    HW222278  14.462  14.583  11.972
73502SOL     OW22279   2.969   1.088  12.508
73502SOL    HW122280   2.884   1.086  12.465
73502SOL    HW222281   2.981   1.000  12.543
73503SOL     OW22282   8.665   6.560   6.020
73503SOL    HW122283   8.640   6.588   5.932
73503SOL    HW222284   8.689   6.467   6.010
73504SOL     OW22285   0.852  11.736  10.571
73504SOL    HW122286   0.908  11.796  10.619
73504SOL    HW222287   0.763  11.758  10.600
73505SOL     OW22288   4.488  10.473   1.067
73505SOL    HW122289   4.556  10.478   1.134
73505SOL    HW222290   4.433  10.550   1.083
73506SOL     OW22291   2.011  10.722   6.163
73506SOL    HW122292   2.090  10.768   6.134
73506SOL    HW222293   1.984  10.670   6.087
73507SOL     OW22294   4.783  10.255   7.704
73507SOL    HW122295   4.740  10.299   7.631
73507SOL    HW222296   4.728  10.179   7.722
73508SOL     OW22297   9.869   4.715   0.642
73508SOL    HW122298   9.819   4.733   0.562
73508SOL    HW222299   9.810   4.664   0.697
73509SOL     OW22300   5.370   1.434  10.862
73509SOL    HW122301   5.346   1.365  10.923
73509SOL    HW222302   5.413   1.500  10.916
73510SOL     OW22303   9.793  12.045   5.358
73510SOL    HW122304   9.807  11.954   5.383
73510SOL    HW222305   9.881  12.084   5.356
73511SOL     OW22306  12.217   9.073  13.447
73511SOL    HW122307  12.221   9.119  13.531
73511SOL    HW222308  12.146   9.117  13.400
73512SOL     OW22309   4.179   0.984  11.469
73512SOL    HW122310   4.141   1.018  11.549
73512SOL    HW222311   4.269   1.018  11.468
73513SOL     OW22312  10.970   6.501   7.467
73513SOL    HW122313  10.932   6.538   7.546
73513SOL    HW222314  10.981   6.408   7.486
73514SOL     OW22315   8.278   0.002   0.817
73514SOL    HW122316   8.276   0.095   0.840
73514SOL    HW222317   8.363  14.867   0.774
73515SOL     OW22318   7.909  11.357  13.617
73515SOL    HW122319   7.993  11.323  13.587
73515SOL    HW222320   7.864  11.386  13.538
73516SOL     OW22321   7.366  12.470   6.919
73516SOL    HW122322   7.319  12.552   6.933
73516SOL    HW222323   7.369  12.460   6.824
73517SOL     OW22324   6.503   8.258   7.571
73517SOL    HW122325   6.557   8.299   7.503
73517SOL    HW222326   6.545   8.284   7.653
73518SOL     OW22327   9.481  11.694  10.001
73518SOL    HW122328   9.425  11.760   9.961
73518SOL    HW222329   9.526  11.739  10.072
73519SOL     OW22330   5.955   8.121   3.527
73519SOL    HW122331   6.033   8.093   3.574
73519SOL    HW222332   5.984   8.194   3.472
73520SOL     OW22333   9.972   5.269   5.017
73520SOL    HW122334   9.889   5.298   5.055
73520SOL    HW222335  10.038   5.326   5.056
73521SOL     OW22336  10.046  10.906  14.363
73521SOL    HW122337  10.025  10.890  14.271
73521SOL    HW222338   9.964  10.937  14.401
73522SOL     OW22339   8.498  10.686   3.463
73522SOL    HW122340   8.574  10.741   3.446
73522SOL    HW222341   8.529  10.597   3.449
73523SOL     OW22342  12.071   7.319   9.606
73523SOL    HW122343  12.123   7.246   9.571
73523SOL    HW222344  12.027   7.355   9.529
73524SOL     OW22345   7.608   4.568  12.316
73524SOL    HW122346   7.598   4.648  12.265
73524SOL    HW222347   7.591   4.497  12.254
73525SOL     OW22348   2.392   4.107  13.510
73525SOL    HW122349   2.392   4.149  13.424
73525SOL    HW222350   2.458   4.038  13.504
73526SOL     OW22351   9.693  13.181   4.142
73526SOL    HW122352   9.620  13.162   4.200
73526SOL    HW222353   9.656  13.239   4.075
73527SOL     OW22354  10.919  13.520  10.919
73527SOL    HW122355  10.983  13.480  10.977
73527SOL    HW222356  10.971  13.572  10.858
73528SOL     OW22357   5.307  11.587   2.940
73528SOL    HW122358   5.316  11.597   2.845
73528SOL    HW222359   5.388  11.545   2.968
73529SOL     OW22360  10.086  12.848   5.886
73529SOL    HW122361  10.031  12.923   5.907
73529SOL    HW222362  10.171  12.870   5.925
73530SOL     OW22363  11.619   0.763  12.299
73530SOL    HW122364  11.550   0.731  12.242
73530SOL    HW222365  11.687   0.794  12.240
73531SOL     OW22366   9.381   2.374   9.894
73531SOL    HW122367   9.369   2.320   9.972
73531SOL    HW222368   9.292   2.399   9.869
73532SOL     OW22369   6.870  13.025   5.076
73532SOL    HW122370   6.814  13.015   4.998
73532SOL    HW222371   6.808  13.043   5.147
73533SOL     OW22372  13.470   9.944   9.298
73533SOL    HW122373  13.520  10.009   9.248
73533SOL    HW222374  13.474   9.865   9.244
73534SOL     OW22375   5.592   9.263  14.032
73534SOL    HW122376   5.563   9.239  13.944
73534SOL    HW222377   5.676   9.218  14.043
73535SOL     OW22378  12.824  13.817  14.386
73535SOL    HW122379  12.770  13.854  14.317
73535SOL    HW222380  12.779  13.735  14.410
73536SOL     OW22381   5.856   4.890   8.377
73536SOL    HW122382   5.898   4.872   8.293
73536SOL    HW222383   5.767   4.918   8.354
73537SOL     OW22384   6.562   4.378  13.163
73537SOL    HW122385   6.477   4.377  13.207
73537SOL    HW222386   6.612   4.444  13.211
73538SOL     OW22387   6.213   3.775  12.038
73538SOL    HW122388   6.161   3.855  12.030
73538SOL    HW222389   6.225   3.745  11.948
73539SOL     OW22390   7.195   7.124   4.401
73539SOL    HW122391   7.128   7.171   4.451
73539SOL    HW222392   7.164   7.034   4.398
73540SOL     OW22393   9.513  10.846  11.976
73540SOL    HW122394   9.446  10.871  11.913
73540SOL    HW222395   9.587  10.818  11.922
73541SOL     OW22396   5.307   7.135   9.459
73541SOL    HW122397   5.247   7.089   9.401
73541SOL    HW222398   5.255   7.209   9.492
73542SOL     OW22399   6.271   9.711   6.924
73542SOL    HW122400   6.351   9.658   6.922
73542SOL    HW222401   6.293   9.785   6.981
73543SOL     OW22402   0.325   8.393  14.604
73543SOL    HW122403   0.409   8.402  14.559
73543SOL    HW222404   0.306   8.299  14.602
73544SOL     OW22405   0.826   5.161   6.566
73544SOL    HW122406   0.807   5.248   6.531
73544SOL    HW222407   0.799   5.166   6.658
73545SOL     OW22408  10.896  14.557   7.938
73545SOL    HW122409  10.918  14.559   7.845
73545SOL    HW222410  10.803  14.533   7.940
73546SOL     OW22411   5.054  11.303   2.346
73546SOL    HW122412   5.125  11.357   2.381
73546SOL    HW222413   4.988  11.367   2.319
73547SOL     OW22414   9.823   9.976  10.647
73547SOL    HW122415   9.887   9.998  10.715
73547SOL    HW222416   9.772   9.905  10.685
73548SOL     OW22417   8.868  14.078  12.039
73548SOL    HW122418   8.819  14.020  12.097
73548SOL    HW222419   8.921  14.132  12.098
73549SOL     OW22420   7.240   2.926   6.463
73549SOL    HW122421   7.325   2.955   6.433
73549SOL    HW222422   7.177   2.964   6.401
73550SOL     OW22423  11.629   4.069   7.404
73550SOL    HW122424  11.547   4.020   7.398
73550SOL    HW222425  11.612   4.150   7.356
73551SOL     OW22426   7.442  11.534   8.615
73551SOL    HW122427   7.521  11.554   8.565
73551SOL    HW222428   7.429  11.440   8.602
73552SOL     OW22429   3.320  13.615   2.587
73552SOL    HW122430   3.275  13.547   2.638
73552SOL    HW222431   3.273  13.695   2.608
73553SOL     OW22432   9.489   9.611   5.673
73553SOL    HW122433   9.536   9.672   5.617
73553SOL    HW222434   9.528   9.623   5.760
73554SOL     OW22435  13.016   7.094   6.570
73554SOL    HW122436  12.949   7.160   6.587
73554SOL    HW222437  12.968   7.011   6.572
73555SOL     OW22438   9.110   7.455   5.678
73555SOL    HW122439   9.140   7.545   5.690
73555SOL    HW222440   9.015   7.461   5.681
73556SOL     OW22441   5.523   7.683  10.825
73556SOL    HW122442   5.612   7.705  10.852
73556SOL    HW222443   5.472   7.762  10.843
73557SOL     OW22444   7.580  11.576   1.984
73557SOL    HW122445   7.617  11.659   1.953
73557SOL    HW222446   7.621  11.510   1.928
73558SOL     OW22447   2.551   9.742   2.873
73558SOL    HW122448   2.506   9.694   2.803
73558SOL    HW222449   2.612   9.799   2.828
73559SOL     OW22450  11.885  11.883  13.634
73559SOL    HW122451  11.812  11.917  13.687
73559SOL    HW222452  11.962  11.929  13.667
73560SOL     OW22453   6.511   8.468   5.781
73560SOL    HW122454   6.472   8.518   5.709
73560SOL    HW222455   6.477   8.508   5.860
73561SOL     OW22456   6.528   1.311   4.917
73561SOL    HW122457   6.576   1.229   4.920
73561SOL    HW222458   6.527   1.335   4.824
73562SOL     OW22459   0.097   4.909   1.828
73562SOL    HW122460   0.077   5.002   1.840
73562SOL    HW222461   0.124   4.879   1.914
73563SOL     OW22462   5.094  10.453  14.868
73563SOL    HW122463   5.107  10.548  14.876
73563SOL    HW222464   5.182  10.419  14.848
73564SOL     OW22465   2.979  14.435   1.925
73564SOL    HW122466   2.912  14.497   1.897
73564SOL    HW222467   2.930  14.359   1.956
73565SOL     OW22468  11.875   5.431   1.494
73565SOL    HW122469  11.851   5.371   1.565
73565SOL    HW222470  11.933   5.380   1.438
73566SOL     OW22471   6.982   4.627  10.735
73566SOL    HW122472   6.933   4.671  10.666
73566SOL    HW222473   6.935   4.650  10.815
73567SOL     OW22474   2.096  11.193  12.042
73567SOL    HW122475   2.160  11.130  12.078
73567SOL    HW222476   2.071  11.155  11.958
73568SOL     OW22477  11.781   2.670   8.360
73568SOL    HW122478  11.832   2.737   8.316
73568SOL    HW222479  11.832   2.648   8.438
73569SOL     OW22480   6.885   0.466   5.000
73569SOL    HW122481   6.816   0.442   5.061
73569SOL    HW222482   6.865   0.556   4.976
73570SOL     OW22483   3.848  13.782   0.628
73570SOL    HW122484   3.890  13.788   0.542
73570SOL    HW222485   3.826  13.690   0.638
73571SOL     OW22486  14.173   1.413  10.238
73571SOL    HW122487  14.139   1.494  10.276
73571SOL    HW222488  14.152   1.345  10.302
73572SOL     OW22489   2.330   7.830   0.408
73572SOL    HW122490   2.247   7.800   0.444
73572SOL    HW222491   2.309   7.858   0.319
73573SOL     OW22492   0.475   6.777   4.971
73573SOL    HW122493   0.503   6.836   4.901
73573SOL    HW222494   0.556   6.739   5.004
73574SOL     OW22495   7.478  12.123   0.579
73574SOL    HW122496   7.545  12.133   0.511
73574SOL    HW222497   7.397  12.152   0.537
73575SOL     OW22498   6.291   7.799   4.867
73575SOL    HW122499   6.289   7.894   4.852
73575SOL    HW222500   6.315   7.790   4.959
73576SOL     OW22501   3.323   8.343   9.391
73576SOL    HW122502   3.408   8.337   9.434
73576SOL    HW222503   3.332   8.418   9.332
73577SOL     OW22504  14.148  14.650   1.510
73577SOL    HW122505  14.116  14.600   1.435
73577SOL    HW222506  14.095  14.621   1.584
73578SOL     OW22507  13.032  10.786  14.408
73578SOL    HW122508  13.098  10.736  14.456
73578SOL    HW222509  13.015  10.734  14.329
73579SOL     OW22510   3.953  13.928  11.632
73579SOL    HW122511   3.871  13.952  11.675
73579SOL    HW222512   4.013  14.000  11.652
73580SOL     OW22513  13.984  14.236   7.745
73580SOL    HW122514  13.999  14.303   7.812
73580SOL    HW222515  14.068  14.193   7.736
73581SOL     OW22516   9.492   3.824   8.153
73581SOL    HW122517   9.491   3.913   8.189
73581SOL    HW222518   9.403   3.792   8.167
73582SOL     OW22519   8.078  10.579  13.637
73582SOL    HW122520   8.173  10.573  13.647
73582SOL    HW222521   8.058  10.519  13.565
73583SOL     OW22522  11.252  14.573   5.763
73583SOL    HW122523  11.190  14.617   5.706
73583SOL    HW222524  11.224  14.596   5.852
73584SOL     OW22525  10.803   3.633   1.507
73584SOL    HW122526  10.888   3.611   1.469
73584SOL    HW222527  10.823   3.669   1.593
73585SOL     OW22528  11.872  14.688  10.639
73585SOL    HW122529  11.961  14.663  10.666
73585SOL    HW222530  11.817  14.617  10.671
73586SOL     OW22531   6.963  13.685  10.782
73586SOL    HW122532   6.975  13.704  10.689
73586SOL    HW222533   6.992  13.594  10.792
73587SOL     OW22534   9.287  12.809   3.902
73587SOL    HW122535   9.343  12.874   3.860
73587SOL    HW222536   9.251  12.758   3.829
73588SOL     OW22537   0.060   5.254   3.684
73588SOL    HW122538   0.069   5.297   3.769
73588SOL    HW222539   0.047   5.162   3.705
73589SOL     OW22540  13.956   5.354   7.773
73589SOL    HW122541  13.943   5.380   7.864
73589SOL    HW222542  13.868   5.338   7.739
73590SOL     OW22543   9.069   6.726   5.097
73590SOL    HW122544   9.152   6.701   5.056
73590SOL    HW222545   9.063   6.670   5.175
73591SOL     OW22546   5.681  11.544   2.944
73591SOL    HW122547   5.706  11.631   2.915
73591SOL    HW222548   5.731  11.485   2.887
73592SOL     OW22549   8.024  12.600   6.721
73592SOL    HW122550   7.980  12.667   6.773
73592SOL    HW222551   8.061  12.647   6.647
73593SOL     OW22552  11.514  10.615   5.683
73593SOL    HW122553  11.534  10.543   5.742
73593SOL    HW222554  11.419  10.618   5.679
73594SOL     OW22555   6.121   4.014  12.214
73594SOL    HW122556   6.103   4.084  12.151
73594SOL    HW222557   6.210   4.032  12.246
73595SOL     OW22558   9.769   5.826   9.654
73595SOL    HW122559   9.695   5.877   9.620
73595SOL    HW222560   9.846   5.873   9.623
73596SOL     OW22561   1.280  12.084  14.375
73596SOL    HW122562   1.362  12.043  14.350
73596SOL    HW222563   1.271  12.159  14.317
73597SOL     OW22564   4.987  14.163   7.128
73597SOL    HW122565   4.956  14.073   7.134
73597SOL    HW222566   4.922  14.214   7.175
73598SOL     OW22567  13.061  14.614  14.405
73598SOL    HW122568  13.044  14.551  14.474
73598SOL    HW222569  12.976  14.655  14.388
73599SOL     OW22570   0.366   5.893   9.180
73599SOL    HW122571   0.274   5.877   9.157
73599SOL    HW222572   0.403   5.933   9.102
73600SOL     OW22573   9.683   0.591   0.980
73600SOL    HW122574   9.596   0.562   1.008
73600SOL    HW222575   9.705   0.533   0.908
73601SOL     OW22576   7.587  13.144   1.902
73601SOL    HW122577   7.670  13.182   1.931
73601SOL    HW222578   7.600  13.127   1.809
73602SOL     OW22579  14.250  13.180   8.705
73602SOL    HW122580  14.176  13.169   8.765
73602SOL    HW222581  14.231  13.121   8.632
73603SOL     OW22582   1.870   0.974   1.205
73603SOL    HW122583   1.916   0.938   1.281
73603SOL    HW222584   1.781   0.991   1.236
73604SOL     OW22585   1.304   8.152  14.787
73604SOL    HW122586   1.294   8.246  14.767
73604SOL    HW222587   1.390   8.145  14.828
73605SOL     OW22588  13.773   0.689   2.283
73605SOL    HW122589  13.808   0.613   2.237
73605SOL    HW222590  13.851   0.737   2.312
73606SOL     OW22591   2.038   1.636   1.290
73606SOL    HW122592   2.042   1.561   1.349
73606SOL    HW222593   1.993   1.603   1.212
73607SOL     OW22594   3.138   4.290   9.835
73607SOL    HW122595   3.085   4.240   9.897
73607SOL    HW222596   3.119   4.250   9.750
73608SOL     OW22597   9.315   7.422   5.319
73608SOL    HW122598   9.281   7.365   5.388
73608SOL    HW222599   9.390   7.465   5.359
73609SOL     OW22600   2.085   8.066   4.741
73609SOL    HW122601   2.093   7.985   4.691
73609SOL    HW222602   2.004   8.054   4.792
73610SOL     OW22603  11.513  11.644   0.951
73610SOL    HW122604  11.454  11.614   1.021
73610SOL    HW222605  11.590  11.677   0.997
73611SOL     OW22606   2.308   8.480  13.420
73611SOL    HW122607   2.271   8.438  13.342
73611SOL    HW222608   2.394   8.440  13.430
73612SOL     OW22609  10.045   9.651  13.270
73612SOL    HW122610  10.080   9.732  13.307
73612SOL    HW222611   9.976   9.680  13.211
73613SOL     OW22612   0.574   4.987   3.794
73613SOL    HW122613   0.597   4.987   3.887
73613SOL    HW222614   0.537   4.901   3.778
73614SOL     OW22615  14.234   2.639  11.773
73614SOL    HW122616  14.297   2.571  11.752
73614SOL    HW222617  14.149   2.595  11.769
73615SOL     OW22618   1.771   0.289  13.414
73615SOL    HW122619   1.708   0.238  13.363
73615SOL    HW222620   1.754   0.263  13.505
73616SOL     OW22621  11.544  11.419   2.823
73616SOL    HW122622  11.598  11.468   2.761
73616SOL    HW222623  11.556  11.466   2.906
73617SOL     OW22624   2.370   0.960   5.804
73617SOL    HW122625   2.462   0.941   5.787
73617SOL    HW222626   2.344   1.019   5.734
73618SOL     OW22627  13.651   0.235   0.478
73618SOL    HW122628  13.618   0.298   0.542
73618SOL    HW222629  13.587   0.237   0.407
73619SOL     OW22630  14.218   8.339   8.332
73619SOL    HW122631  14.301   8.347   8.284
73619SOL    HW222632  14.186   8.429   8.339
73620SOL     OW22633  12.875   3.314   0.496
73620SOL    HW122634  12.958   3.314   0.448
73620SOL    HW222635  12.900   3.319   0.588
73621SOL     OW22636  14.418  14.580  11.342
73621SOL    HW122637  14.411  14.643  11.414
73621SOL    HW222638  14.510  14.583  11.316
73622SOL     OW22639  11.716   9.612   1.499
73622SOL    HW122640  11.703   9.518   1.491
73622SOL    HW222641  11.629   9.650   1.482
73623SOL     OW22642  14.121  13.388   2.811
73623SOL    HW122643  14.176  13.406   2.735
73623SOL    HW222644  14.180  13.347   2.874
73624SOL     OW22645  12.721   0.076   2.787
73624SOL    HW122646  12.646   0.084   2.728
73624SOL    HW222647  12.682   0.053   2.871
73625SOL     OW22648  12.008   5.479   2.345
73625SOL    HW122649  11.974   5.444   2.263
73625SOL    HW222650  12.065   5.551   2.318
73626SOL     OW22651   9.384   0.880   3.658
73626SOL    HW122652   9.458   0.912   3.606
73626SOL    HW222653   9.423   0.815   3.716
73627SOL     OW22654   1.050   1.893  13.937
73627SOL    HW122655   0.981   1.883  14.003
73627SOL    HW222656   1.053   1.808  13.892
73628SOL     OW22657  10.237  12.643  12.279
73628SOL    HW122658  10.311  12.634  12.219
73628SOL    HW222659  10.162  12.613  12.228
73629SOL     OW22660  14.012  12.336   6.650
73629SOL    HW122661  13.922  12.316   6.676
73629SOL    HW222662  14.055  12.251   6.645
73630SOL     OW22663   7.138   7.914   5.235
73630SOL    HW122664   7.102   8.002   5.239
73630SOL    HW222665   7.128   7.888   5.143
73631SOL     OW22666  10.186   3.802  11.949
73631SOL    HW122667  10.100   3.763  11.932
73631SOL    HW222668  10.170   3.896  11.948
73632SOL     OW22669   0.439   3.479   5.744
73632SOL    HW122670   0.438   3.524   5.660
73632SOL    HW222671   0.383   3.532   5.802
73633SOL     OW22672   9.319   7.676  12.391
73633SOL    HW122673   9.359   7.763  12.384
73633SOL    HW222674   9.380   7.617  12.348
73634SOL     OW22675   7.122  11.418   3.488
73634SOL    HW122676   7.026  11.419   3.486
73634SOL    HW222677   7.143  11.338   3.537
73635SOL     OW22678   7.503   7.603   9.102
73635SOL    HW122679   7.573   7.572   9.159
73635SOL    HW222680   7.474   7.685   9.144
73636SOL     OW22681   6.456   9.376  10.211
73636SOL    HW122682   6.499   9.312  10.156
73636SOL    HW222683   6.366   9.344  10.219
73637SOL     OW22684   8.453   4.519   5.958
73637SOL    HW122685   8.537   4.475   5.977
73637SOL    HW222686   8.398   4.498   6.034
73638SOL     OW22687  12.282  10.009   7.806
73638SOL    HW122688  12.255  10.072   7.873
73638SOL    HW222689  12.202   9.989   7.758
73639SOL     OW22690   1.379  14.578   7.998
73639SOL    HW122691   1.385  14.564   7.903
73639SOL    HW222692   1.286  14.597   8.013
73640SOL     OW22693  11.612  12.623   1.310
73640SOL    HW122694  11.664  12.578   1.377
73640SOL    HW222695  11.676  12.667   1.255
73641SOL     OW22696  11.569   4.183   2.689
73641SOL    HW122697  11.513   4.257   2.665
73641SOL    HW222698  11.560   4.121   2.616
73642SOL     OW22699   6.658   6.777   2.502
73642SOL    HW122700   6.619   6.793   2.588
73642SOL    HW222701   6.672   6.865   2.465
73643SOL     OW22702  14.221  11.706  14.752
73643SOL    HW122703  14.127  11.716  14.768
73643SOL    HW222704  14.257  11.794  14.762
73644SOL     OW22705   4.074   1.188   8.364
73644SOL    HW122706   4.120   1.128   8.305
73644SOL    HW222707   3.989   1.201   8.322
73645SOL     OW22708  14.233  12.509  11.036
73645SOL    HW122709  14.317  12.465  11.020
73645SOL    HW222710  14.171  12.438  11.053
73646SOL     OW22711   1.954   0.415  14.287
73646SOL    HW122712   2.050   0.415  14.279
73646SOL    HW222713   1.934   0.340  14.343
73647SOL     OW22714  13.191   5.214   2.921
73647SOL    HW122715  13.118   5.219   2.859
73647SOL    HW222716  13.241   5.294   2.904
73648SOL     OW22717   2.171   9.875   3.677
73648SOL    HW122718   2.168   9.882   3.772
73648SOL    HW222719   2.087   9.907   3.647
73649SOL     OW22720   4.237   6.104   1.410
73649SOL    HW122721   4.302   6.059   1.464
73649SOL    HW222722   4.281   6.184   1.382
73650SOL     OW22723   4.525   9.426  11.151
73650SOL    HW122724   4.548   9.473  11.230
73650SOL    HW222725   4.543   9.487  11.080
73651SOL     OW22726   2.022  12.881   9.911
73651SOL    HW122727   2.096  12.930   9.949
73651SOL    HW222728   1.967  12.860   9.987
73652SOL     OW22729  13.761   7.391   4.555
73652SOL    HW122730  13.810   7.349   4.626
73652SOL    HW222731  13.694   7.443   4.600
73653SOL     OW22732   6.447   8.401   2.560
73653SOL    HW122733   6.522   8.376   2.505
73653SOL    HW222734   6.475   8.482   2.603
73654SOL     OW22735   0.641   9.100   4.589
73654SOL    HW122736   0.553   9.121   4.557
73654SOL    HW222737   0.698   9.162   4.542
73655SOL     OW22738   0.947  14.438   7.057
73655SOL    HW122739   0.928  14.368   6.995
73655SOL    HW222740   0.995  14.395   7.128
73656SOL     OW22741   1.116   5.692   5.877
73656SOL    HW122742   1.086   5.780   5.851
73656SOL    HW222743   1.158   5.705   5.962
73657SOL     OW22744  10.042  10.182   9.185
73657SOL    HW122745  10.094  10.114   9.230
73657SOL    HW222746  10.043  10.256   9.246
73658SOL     OW22747  13.509  14.128   8.932
73658SOL    HW122748  13.582  14.184   8.957
73658SOL    HW222749  13.450  14.131   9.008
73659SOL     OW22750  13.209   3.298   1.159
73659SOL    HW122751  13.200   3.206   1.184
73659SOL    HW222752  13.273   3.297   1.088
73660SOL     OW22753   1.651   0.743   7.899
73660SOL    HW122754   1.624   0.707   7.983
73660SOL    HW222755   1.584   0.712   7.837
73661SOL     OW22756   9.806  13.801   1.258
73661SOL    HW122757   9.843  13.887   1.239
73661SOL    HW222758   9.869  13.760   1.318
73662SOL     OW22759   3.618  13.407  10.100
73662SOL    HW122760   3.663  13.485  10.068
73662SOL    HW222761   3.533  13.439  10.130
73663SOL     OW22762   0.125   8.623   3.056
73663SOL    HW122763   0.179   8.587   3.127
73663SOL    HW222764   0.038   8.632   3.095
73664SOL     OW22765   4.119   7.780   1.459
73664SOL    HW122766   4.168   7.780   1.542
73664SOL    HW222767   4.185   7.798   1.392
73665SOL     OW22768   5.306   4.950   4.378
73665SOL    HW122769   5.319   4.911   4.292
73665SOL    HW222770   5.218   4.923   4.404
73666SOL     OW22771  10.964   3.223  11.585
73666SOL    HW122772  10.982   3.216  11.491
73666SOL    HW222773  10.965   3.133  11.617
73667SOL     OW22774  14.503  12.355  14.069
73667SOL    HW122775  14.432  12.295  14.048
73667SOL    HW222776  14.476  12.397  14.151
73668SOL     OW22777   0.050   1.759   2.085
73668SOL    HW122778   0.129   1.757   2.139
73668SOL    HW222779   0.083   1.754   1.995
73669SOL     OW22780   9.904   3.816  11.876
73669SOL    HW122781   9.813   3.840  11.896
73669SOL    HW222782   9.926   3.868  11.799
73670SOL     OW22783   4.410  10.566  11.189
73670SOL    HW122784   4.317  10.574  11.171
73670SOL    HW222785   4.418  10.492  11.248
73671SOL     OW22786   8.722  12.388  12.774
73671SOL    HW122787   8.722  12.484  12.775
73671SOL    HW222788   8.795  12.365  12.717
73672SOL     OW22789   2.682   7.318   0.443
73672SOL    HW122790   2.740   7.274   0.505
73672SOL    HW222791   2.626   7.374   0.496
73673SOL     OW22792  14.211  14.011  13.125
73673SOL    HW122793  14.262  14.046  13.052
73673SOL    HW222794  14.172  14.088  13.166
73674SOL     OW22795  13.211  10.004  13.178
73674SOL    HW122796  13.177  10.083  13.136
73674SOL    HW222797  13.133   9.957  13.207
73675SOL     OW22798   1.301  14.803   9.795
73675SOL    HW122799   1.240  14.815   9.722
73675SOL    HW222800   1.379  14.765   9.755
73676SOL     OW22801  14.418   5.027   2.486
73676SOL    HW122802  14.418   4.971   2.408
73676SOL    HW222803  14.392   5.113   2.453
73677SOL     OW22804   9.649   6.343  11.228
73677SOL    HW122805   9.581   6.410  11.228
73677SOL    HW222806   9.635   6.295  11.147
73678SOL     OW22807   1.880  14.017   4.817
73678SOL    HW122808   1.798  13.984   4.779
73678SOL    HW222809   1.930  13.939   4.839
73679SOL     OW22810   0.372  14.324   6.998
73679SOL    HW122811   0.439  14.259   6.974
73679SOL    HW222812   0.404  14.406   6.960
73680SOL     OW22813  11.078   2.266   2.804
73680SOL    HW122814  11.166   2.231   2.808
73680SOL    HW222815  11.076   2.335   2.870
73681SOL     OW22816   5.363   9.842   6.272
73681SOL    HW122817   5.418   9.768   6.299
73681SOL    HW222818   5.315   9.865   6.352
73682SOL     OW22819   2.473   4.579  12.532
73682SOL    HW122820   2.426   4.644  12.480
73682SOL    HW222821   2.524   4.630  12.595
73683SOL     OW22822  11.444  12.837  10.696
73683SOL    HW122823  11.388  12.772  10.740
73683SOL    HW222824  11.391  12.916  10.692
73684SOL     OW22825  12.331  10.508   0.054
73684SOL    HW122826  12.243  10.537   0.029
73684SOL    HW222827  12.374  10.485  14.849
73685SOL     OW22828   1.201   2.848   6.494
73685SOL    HW122829   1.212   2.770   6.440
73685SOL    HW222830   1.245   2.828   6.576
73686SOL     OW22831   3.381   3.089  14.414
73686SOL    HW122832   3.468   3.051  14.397
73686SOL    HW222833   3.343   3.101  14.327
73687SOL     OW22834   4.618   6.216   6.871
73687SOL    HW122835   4.701   6.182   6.903
73687SOL    HW222836   4.632   6.311   6.864
73688SOL     OW22837   3.062  11.952   5.193
73688SOL    HW122838   3.087  11.860   5.194
73688SOL    HW222839   3.134  11.997   5.238
73689SOL     OW22840  13.708   3.580   4.002
73689SOL    HW122841  13.685   3.670   4.027
73689SOL    HW222842  13.803   3.581   3.991
73690SOL     OW22843  12.884   2.863  12.145
73690SOL    HW122844  12.932   2.919  12.206
73690SOL    HW222845  12.804   2.912  12.125
73691SOL     OW22846   0.187  14.433   5.104
73691SOL    HW122847   0.196  14.427   5.199
73691SOL    HW222848   0.093  14.433   5.088
73692SOL     OW22849   2.876   9.498   1.838
73692SOL    HW122850   2.805   9.557   1.863
73692SOL    HW222851   2.876   9.502   1.742
73693SOL     OW22852  13.853   1.848   7.068
73693SOL    HW122853  13.804   1.834   6.988
73693SOL    HW222854  13.787   1.871   7.133
73694SOL     OW22855   7.151   6.927   1.034
73694SOL    HW122856   7.126   6.850   1.086
73694SOL    HW222857   7.102   6.917   0.952
73695SOL     OW22858   1.523   8.282   3.131
73695SOL    HW122859   1.556   8.352   3.188
73695SOL    HW222860   1.446   8.320   3.089
73696SOL     OW22861   1.744   6.277   4.982
73696SOL    HW122862   1.718   6.311   5.068
73696SOL    HW222863   1.727   6.183   4.987
73697SOL     OW22864   3.226  10.575   9.862
73697SOL    HW122865   3.250  10.487   9.891
73697SOL    HW222866   3.146  10.595   9.912
73698SOL     OW22867   6.674   0.375   6.936
73698SOL    HW122868   6.696   0.464   6.908
73698SOL    HW222869   6.757   0.338   6.968
73699SOL     OW22870   3.797  13.275   4.907
73699SOL    HW122871   3.793  13.339   4.836
73699SOL    HW222872   3.848  13.202   4.872
73700SOL     OW22873  10.582   8.005  11.107
73700SOL    HW122874  10.489   8.026  11.095
73700SOL    HW222875  10.607   7.960  11.026
73701SOL     OW22876   1.202   4.227   7.292
73701SOL    HW122877   1.124   4.269   7.256
73701SOL    HW222878   1.203   4.140   7.253
73702SOL     OW22879   7.622   5.629   7.621
73702SOL    HW122880   7.561   5.593   7.557
73702SOL    HW222881   7.661   5.705   7.578
73703SOL     OW22882  10.005   0.235   9.726
73703SOL    HW122883  10.029   0.300   9.792
73703SOL    HW222884   9.915   0.257   9.701
73704SOL     OW22885  14.031   8.180   6.566
73704SOL    HW122886  14.105   8.150   6.619
73704SOL    HW222887  13.975   8.227   6.627
73705SOL     OW22888   0.023  12.269   1.883
73705SOL    HW122889   0.010  12.354   1.840
73705SOL    HW222890   0.041  12.209   1.811
73706SOL     OW22891  12.932  10.690   3.460
73706SOL    HW122892  12.862  10.749   3.489
73706SOL    HW222893  12.948  10.633   3.536
73707SOL     OW22894   4.076   5.990  10.308
73707SOL    HW122895   3.996   6.017  10.353
73707SOL    HW222896   4.141   5.979  10.378
73708SOL     OW22897   1.552   8.059  13.031
73708SOL    HW122898   1.590   8.002  12.964
73708SOL    HW222899   1.593   8.030  13.113
73709SOL     OW22900   9.820   0.777  10.733
73709SOL    HW122901   9.815   0.764  10.639
73709SOL    HW222902   9.909   0.749  10.756
73710SOL     OW22903   8.049  10.676   2.028
73710SOL    HW122904   7.971  10.644   2.073
73710SOL    HW222905   8.117  10.679   2.096
73711SOL     OW22906  13.716   0.100   7.051
73711SOL    HW122907  13.655   0.123   7.121
73711SOL    HW222908  13.802   0.110   7.091
73712SOL     OW22909   3.703   5.096   1.061
73712SOL    HW122910   3.658   5.156   1.120
73712SOL    HW222911   3.698   5.011   1.104
73713SOL     OW22912   1.118   1.107   7.050
73713SOL    HW122913   1.124   1.177   6.986
73713SOL    HW222914   1.079   1.034   7.002
73714SOL     OW22915  13.027   6.494   9.764
73714SOL    HW122916  12.964   6.566   9.767
73714SOL    HW222917  13.077   6.502   9.845
73715SOL     OW22918  14.758   5.996  13.058
73715SOL    HW122919  14.672   5.981  13.017
73715SOL    HW222920  14.737   6.028  13.146
73716SOL     OW22921   7.005  11.392   4.214
73716SOL    HW122922   7.089  11.363   4.251
73716SOL    HW222923   6.962  11.439   4.286
73717SOL     OW22924   8.261  10.865   7.383
73717SOL    HW122925   8.257  10.816   7.465
73717SOL    HW222926   8.333  10.927   7.396
73718SOL     OW22927   5.091   3.305   2.364
73718SOL    HW122928   5.148   3.379   2.342
73718SOL    HW222929   5.029   3.341   2.428
73719SOL     OW22930   3.994   9.405  14.772
73719SOL    HW122931   4.078   9.367  14.797
73719SOL    HW222932   4.012   9.498  14.759
73720SOL     OW22933   5.172   4.885  10.107
73720SOL    HW122934   5.224   4.835  10.043
73720SOL    HW222935   5.195   4.976  10.091
73721SOL     OW22936   2.358   7.995   6.781
73721SOL    HW122937   2.316   8.079   6.762
73721SOL    HW222938   2.336   7.977   6.872
73722SOL     OW22939   5.374  10.885   7.457
73722SOL    HW122940   5.297  10.860   7.508
73722SOL    HW222941   5.339  10.928   7.379
73723SOL     OW22942   6.049   4.233  12.053
73723SOL    HW122943   5.999   4.314  12.057
73723SOL    HW222944   6.083   4.229  11.964
73724SOL     OW22945   9.802   2.920  10.691
73724SOL    HW122946   9.778   3.013  10.682
73724SOL    HW222947   9.819   2.891  10.602
73725SOL     OW22948   4.340   0.946   0.285
73725SOL    HW122949   4.370   1.033   0.259
73725SOL    HW222950   4.353   0.944   0.380
73726SOL     OW22951   0.425   0.955   7.502
73726SOL    HW122952   0.436   1.043   7.539
73726SOL    HW222953   0.387   0.970   7.416
73727SOL     OW22954   7.702   9.066   5.797
73727SOL    HW122955   7.760   8.993   5.771
73727SOL    HW222956   7.616   9.026   5.806
73728SOL     OW22957   0.096  14.020   9.653
73728SOL    HW122958   0.003  14.041   9.644
73728SOL    HW222959   0.097  13.938   9.703
73729SOL     OW22960   5.346  10.695   4.162
73729SOL    HW122961   5.357  10.620   4.102
73729SOL    HW222962   5.252  10.713   4.160
73730SOL     OW22963   2.587  14.846   2.987
73730SOL    HW122964   2.525   0.040   2.974
73730SOL    HW222965   2.673   0.008   2.979
73731SOL     OW22966   3.684   3.330   0.953
73731SOL    HW122967   3.695   3.310   1.046
73731SOL    HW222968   3.769   3.365   0.926
73732SOL     OW22969   5.794   2.975   8.650
73732SOL    HW122970   5.770   2.917   8.577
73732SOL    HW222971   5.794   2.918   8.727
73733SOL     OW22972   7.379   6.880   5.028
73733SOL    HW122973   7.352   6.914   4.943
73733SOL    HW222974   7.413   6.956   5.075
73734SOL     OW22975   1.376   9.063   4.940
73734SOL    HW122976   1.471   9.071   4.931
73734SOL    HW222977   1.344   9.153   4.940
73735SOL     OW22978  14.420   5.070   4.684
73735SOL    HW122979  14.430   5.006   4.613
73735SOL    HW222980  14.326   5.074   4.699
73736SOL     OW22981  14.165   6.804  11.866
73736SOL    HW122982  14.187   6.879  11.811
73736SOL    HW222983  14.191   6.831  11.954
73737SOL     OW22984  14.648   2.367   3.894
73737SOL    HW122985  14.742   2.352   3.908
73737SOL    HW222986  14.607   2.282   3.910
73738SOL     OW22987  12.054  14.067  10.511
73738SOL    HW122988  12.082  14.081  10.421
73738SOL    HW222989  12.020  13.978  10.512
73739SOL     OW22990  14.858   5.145   4.077
73739SOL    HW122991   0.004   5.135   4.169
73739SOL    HW222992   0.064   5.159   4.032
73740SOL     OW22993   3.311   4.805  13.944
73740SOL    HW122994   3.220   4.783  13.926
73740SOL    HW222995   3.321   4.794  14.038
73741SOL     OW22996   9.620   1.838   6.491
73741SOL    HW122997   9.643   1.916   6.541
73741SOL    HW222998   9.676   1.769   6.527
73742SOL     OW22999   5.808  10.101  13.120
73742SOL    HW123000   5.892  10.055  13.123
73742SOL    HW223001   5.826  10.187  13.159
73743SOL     OW23002   6.669  12.244   7.835
73743SOL    HW123003   6.709  12.186   7.900
73743SOL    HW223004   6.650  12.185   7.761
73744SOL     OW23005  14.412  11.532   7.011
73744SOL    HW123006  14.476  11.506   7.077
73744SOL    HW223007  14.388  11.450   6.968
73745SOL     OW23008   6.232  11.101   5.936
73745SOL    HW123009   6.278  11.150   5.868
73745SOL    HW223010   6.212  11.166   6.003
73746SOL     OW23011   1.033  11.269   8.999
73746SOL    HW123012   0.957  11.322   9.022
73746SOL    HW223013   1.005  11.179   9.014
73747SOL     OW23014   0.385   1.618   6.752
73747SOL    HW123015   0.411   1.574   6.672
73747SOL    HW223016   0.292   1.597   6.763
73748SOL     OW23017  14.209  11.219   7.809
73748SOL    HW123018  14.139  11.191   7.750
73748SOL    HW223019  14.208  11.154   7.879
73749SOL     OW23020   6.957  13.286   8.611
73749SOL    HW123021   6.867  13.317   8.596
73749SOL    HW223022   7.007  13.365   8.631
73750SOL     OW23023   7.274  11.898  11.245
73750SOL    HW123024   7.308  11.811  11.226
73750SOL    HW223025   7.281  11.907  11.340
73751SOL     OW23026   1.070  13.831  12.255
73751SOL    HW123027   1.147  13.885  12.270
73751SOL    HW223028   1.001  13.893  12.232
73752SOL     OW23029   1.199  10.758  13.576
73752SOL    HW123030   1.175  10.850  13.570
73752SOL    HW223031   1.172  10.731  13.664
73753SOL     OW23032   6.126  14.026   0.576
73753SOL    HW123033   6.032  14.010   0.577
73753SOL    HW223034   6.135  14.115   0.611
73754SOL     OW23035   7.686   9.925   0.371
73754SOL    HW123036   7.774   9.910   0.337
73754SOL    HW223037   7.696   9.919   0.466
73755SOL     OW23038   9.690   6.790   4.267
73755SOL    HW123039   9.635   6.715   4.243
73755SOL    HW223040   9.775   6.751   4.289
73756SOL     OW23041   7.039   7.989   5.787
73756SOL    HW123042   7.027   7.966   5.880
73756SOL    HW223043   7.130   8.018   5.782
73757SOL     OW23044   3.011  11.018  10.903
73757SOL    HW123045   3.083  11.076  10.881
73757SOL    HW223046   3.011  11.014  10.999
73758SOL     OW23047   2.478   1.384  11.229
73758SOL    HW123048   2.422   1.456  11.199
73758SOL    HW223049   2.417   1.314  11.251
73759SOL     OW23050   6.682   1.627   6.180
73759SOL    HW123051   6.719   1.710   6.211
73759SOL    HW223052   6.608   1.653   6.125
73760SOL     OW23053   4.332   6.686   8.743
73760SOL    HW123054   4.292   6.663   8.659
73760SOL    HW223055   4.393   6.614   8.760
73761SOL     OW23056   2.809  10.435   4.504
73761SOL    HW123057   2.898  10.409   4.528
73761SOL    HW223058   2.779  10.366   4.446
73762SOL     OW23059  10.624   6.777   7.969
73762SOL    HW123060  10.647   6.691   7.934
73762SOL    HW223061  10.582   6.822   7.896
73763SOL     OW23062  11.069   4.996   8.314
73763SOL    HW123063  10.996   5.045   8.276
73763SOL    HW223064  11.082   4.922   8.254
73764SOL     OW23065   9.476   8.774  11.364
73764SOL    HW123066   9.476   8.730  11.279
73764SOL    HW223067   9.562   8.756  11.401
73765SOL     OW23068  10.549   7.114   9.865
73765SOL    HW123069  10.486   7.087   9.932
73765SOL    HW223070  10.630   7.129   9.913
73766SOL     OW23071   8.789  10.202   9.577
73766SOL    HW123072   8.863  10.146   9.601
73766SOL    HW223073   8.763  10.244   9.659
73767SOL     OW23074  10.486   5.607   3.333
73767SOL    HW123075  10.498   5.678   3.269
73767SOL    HW223076  10.449   5.650   3.410
73768SOL     OW23077  13.006   7.423   8.800
73768SOL    HW123078  13.028   7.352   8.740
73768SOL    HW223079  12.918   7.450   8.774
73769SOL     OW23080   3.003   6.211   1.875
73769SOL    HW123081   3.055   6.203   1.795
73769SOL    HW223082   2.981   6.304   1.880
73770SOL     OW23083   8.866   3.447   4.171
73770SOL    HW123084   8.927   3.410   4.234
73770SOL    HW223085   8.816   3.371   4.140
73771SOL     OW23086   4.625  14.075   1.840
73771SOL    HW123087   4.692  14.019   1.802
73771SOL    HW223088   4.549  14.018   1.850
73772SOL     OW23089   6.091   6.979  12.244
73772SOL    HW123090   6.154   7.029  12.297
73772SOL    HW223091   6.127   6.890  12.242
73773SOL     OW23092   5.854  10.452  13.121
73773SOL    HW123093   5.874  10.487  13.207
73773SOL    HW223094   5.880  10.521  13.060
73774SOL     OW23095   1.363   2.083  11.546
73774SOL    HW123096   1.269   2.100  11.548
73774SOL    HW223097   1.383   2.049  11.633
73775SOL     OW23098   2.043  14.326  13.707
73775SOL    HW123099   1.984  14.254  13.731
73775SOL    HW223100   1.995  14.375  13.641
73776SOL     OW23101   6.273  11.292   7.809
73776SOL    HW123102   6.254  11.199   7.797
73776SOL    HW223103   6.309  11.298   7.897
73777SOL     OW23104   6.409   2.210   2.727
73777SOL    HW123105   6.500   2.234   2.712
73777SOL    HW223106   6.359   2.275   2.676
73778SOL     OW23107   7.551  14.109   5.206
73778SOL    HW123108   7.617  14.178   5.202
73778SOL    HW223109   7.467  14.155   5.208
73779SOL     OW23110  11.478  10.444   2.926
73779SOL    HW123111  11.430  10.487   2.997
73779SOL    HW223112  11.570  10.459   2.946
73780SOL     OW23113   3.621   0.016   2.840
73780SOL    HW123114   3.550  14.859   2.785
73780SOL    HW223115   3.663  14.815   2.876
73781SOL     OW23116   1.648   9.362  13.489
73781SOL    HW123117   1.604   9.294  13.439
73781SOL    HW223118   1.621   9.444  13.449
73782SOL     OW23119   0.237   3.064   6.392
73782SOL    HW123120   0.232   3.075   6.487
73782SOL    HW223121   0.245   3.153   6.358
73783SOL     OW23122  14.116   6.379   7.369
73783SOL    HW123123  14.197   6.334   7.344
73783SOL    HW223124  14.145   6.461   7.410
73784SOL     OW23125   3.980  13.765   8.513
73784SOL    HW123126   4.023  13.751   8.428
73784SOL    HW223127   4.052  13.772   8.576
73785SOL     OW23128   8.227  11.405  12.175
73785SOL    HW123129   8.220  11.460  12.097
73785SOL    HW223130   8.145  11.354  12.175
73786SOL     OW23131  12.755  11.725   2.835
73786SOL    HW123132  12.839  11.771   2.835
73786SOL    HW223133  12.754  11.678   2.919
73787SOL     OW23134  14.299  12.714  10.845
73787SOL    HW123135  14.275  12.664  10.923
73787SOL    HW223136  14.219  12.714  10.791
73788SOL     OW23137  12.745   4.035   0.623
73788SOL    HW123138  12.666   4.030   0.677
73788SOL    HW223139  12.713   4.038   0.533
73789SOL     OW23140  14.681   4.502   7.669
73789SOL    HW123141  14.711   4.449   7.743
73789SOL    HW223142  14.585   4.497   7.672
73790SOL     OW23143  11.144  13.736  11.629
73790SOL    HW123144  11.206  13.684  11.578
73790SOL    HW223145  11.096  13.671  11.680
73791SOL     OW23146   6.023   8.722  12.933
73791SOL    HW123147   6.051   8.683  13.016
73791SOL    HW223148   6.047   8.658  12.866
73792SOL     OW23149  12.969   2.585  10.987
73792SOL    HW123150  12.938   2.618  10.902
73792SOL    HW223151  12.914   2.631  11.051
73793SOL     OW23152   8.204   0.107  10.270
73793SOL    HW123153   8.165   0.022  10.250
73793SOL    HW223154   8.289   0.105  10.226
73794SOL     OW23155   2.612   6.214   5.178
73794SOL    HW123156   2.577   6.297   5.210
73794SOL    HW223157   2.707   6.227   5.176
73795SOL     OW23158   0.530   4.251   8.515
73795SOL    HW123159   0.579   4.197   8.454
73795SOL    HW223160   0.511   4.193   8.589
73796SOL     OW23161   9.733  14.097   3.406
73796SOL    HW123162   9.769  14.185   3.397
73796SOL    HW223163   9.755  14.053   3.324
73797SOL     OW23164   3.014   5.616   9.794
73797SOL    HW123165   3.078   5.612   9.723
73797SOL    HW223166   2.939   5.567   9.763
73798SOL     OW23167  13.799  13.396  10.697
73798SOL    HW123168  13.876  13.453  10.693
73798SOL    HW223169  13.754  13.410  10.614
73799SOL     OW23170   4.721   1.361   8.682
73799SOL    HW123171   4.673   1.289   8.722
73799SOL    HW223172   4.655   1.410   8.633
73800SOL     OW23173  12.643   0.221   8.002
73800SOL    HW123174  12.610   0.259   8.084
73800SOL    HW223175  12.606   0.133   8.000
73801SOL     OW23176   4.546  13.327  11.636
73801SOL    HW123177   4.568  13.318  11.544
73801SOL    HW223178   4.623  13.370  11.675
73802SOL     OW23179   4.239   0.578  11.486
73802SOL    HW123180   4.178   0.522  11.438
73802SOL    HW223181   4.190   0.604  11.565
73803SOL     OW23182  12.428   4.678   4.209
73803SOL    HW123183  12.468   4.631   4.136
73803SOL    HW223184  12.375   4.746   4.167
73804SOL     OW23185   0.292   0.440   6.666
73804SOL    HW123186   0.359   0.468   6.728
73804SOL    HW223187   0.277   0.348   6.686
73805SOL     OW23188  13.715   7.824   1.201
73805SOL    HW123189  13.663   7.757   1.157
73805SOL    HW223190  13.802   7.815   1.162
73806SOL     OW23191   0.240  11.552   9.514
73806SOL    HW123192   0.199  11.552   9.427
73806SOL    HW223193   0.249  11.459   9.536
73807SOL     OW23194   6.525   0.293  10.310
73807SOL    HW123195   6.579   0.262  10.238
73807SOL    HW223196   6.435   0.287  10.277
73808SOL     OW23197   7.424   7.825  12.748
73808SOL    HW123198   7.453   7.838  12.838
73808SOL    HW223199   7.500   7.785  12.704
73809SOL     OW23200   3.979  10.615   7.608
73809SOL    HW123201   3.884  10.615   7.609
73809SOL    HW223202   4.004  10.676   7.677
73810SOL     OW23203  10.052  10.248   8.101
73810SOL    HW123204  10.054  10.275   8.010
73810SOL    HW223205  10.048  10.152   8.098
73811SOL     OW23206  12.992   4.905   4.776
73811SOL    HW123207  12.978   4.891   4.870
73811SOL    HW223208  13.069   4.852   4.756
73812SOL     OW23209  10.467  13.215  11.027
73812SOL    HW123210  10.561  13.229  11.027
73812SOL    HW223211  10.455  13.125  10.997
73813SOL     OW23212   6.299  11.109   8.039
73813SOL    HW123213   6.286  11.048   8.111
73813SOL    HW223214   6.277  11.059   7.961
73814SOL     OW23215   7.343   6.023   8.160
73814SOL    HW123216   7.413   5.961   8.178
73814SOL    HW223217   7.344   6.033   8.065
73815SOL     OW23218   4.273   5.322   2.342
73815SOL    HW123219   4.271   5.227   2.349
73815SOL    HW223220   4.182   5.346   2.324
73816SOL     OW23221  14.148   9.779   5.278
73816SOL    HW123222  14.056   9.773   5.253
73816SOL    HW223223  14.196   9.772   5.196
73817SOL     OW23224  13.949   3.230  11.263
73817SOL    HW123225  13.919   3.319  11.281
73817SOL    HW223226  14.043   3.239  11.250
73818SOL     OW23227  11.103   0.043  14.707
73818SOL    HW123228  11.197   0.026  14.710
73818SOL    HW223229  11.076   0.015  14.620
73819SOL     OW23230   9.698   7.227   2.321
73819SOL    HW123231   9.729   7.306   2.275
73819SOL    HW223232   9.745   7.155   2.279
73820SOL     OW23233   4.173   2.971   0.591
73820SOL    HW123234   4.121   2.893   0.575
73820SOL    HW223235   4.113   3.044   0.574
73821SOL     OW23236  10.874   5.179   0.963
73821SOL    HW123237  10.806   5.239   0.993
73821SOL    HW223238  10.851   5.159   0.873
73822SOL     OW23239   6.615  12.348   8.114
73822SOL    HW123240   6.577  12.261   8.101
73822SOL    HW223241   6.682  12.356   8.046
73823SOL     OW23242   7.169   0.767   6.369
73823SOL    HW123243   7.107   0.697   6.388
73823SOL    HW223244   7.137   0.808   6.289
73824SOL     OW23245   3.344   9.193  14.280
73824SOL    HW123246   3.368   9.212  14.190
73824SOL    HW223247   3.409   9.128  14.309
73825SOL     OW23248   4.590  14.195   2.888
73825SOL    HW123249   4.663  14.169   2.945
73825SOL    HW223250   4.621  14.173   2.800
73826SOL     OW23251   3.334   4.568   9.140
73826SOL    HW123252   3.248   4.593   9.106
73826SOL    HW223253   3.387   4.550   9.062
73827SOL     OW23254   7.698   6.620   8.588
73827SOL    HW123255   7.734   6.694   8.540
73827SOL    HW223256   7.650   6.570   8.522
73828SOL     OW23257   3.706   3.651  13.185
73828SOL    HW123258   3.694   3.630  13.278
73828SOL    HW223259   3.732   3.568  13.145
73829SOL     OW23260  13.653   3.318  13.723
73829SOL    HW123261  13.590   3.324  13.795
73829SOL    HW223262  13.721   3.382  13.744
73830SOL     OW23263   3.872   5.767  14.655
73830SOL    HW123264   3.867   5.862  14.639
73830SOL    HW223265   3.963   5.745  14.637
73831SOL     OW23266   3.494   5.811   0.987
73831SOL    HW123267   3.477   5.905   0.977
73831SOL    HW223268   3.581   5.807   1.027
73832SOL     OW23269   2.332   7.577   0.027
73832SOL    HW123270   2.390   7.617   0.092
73832SOL    HW223271   2.244   7.602   0.056
73833SOL     OW23272   4.512  11.927   2.668
73833SOL    HW123273   4.581  11.987   2.642
73833SOL    HW223274   4.445  11.983   2.708
73834SOL     OW23275  12.711   4.304   6.193
73834SOL    HW123276  12.695   4.397   6.204
73834SOL    HW223277  12.708   4.269   6.282
73835SOL     OW23278   5.238   9.289   8.519
73835SOL    HW123279   5.286   9.370   8.504
73835SOL    HW223280   5.206   9.264   8.432
73836SOL     OW23281   2.596   8.256   1.296
73836SOL    HW123282   2.666   8.194   1.314
73836SOL    HW223283   2.602   8.320   1.366
73837SOL     OW23284   7.538  13.915  12.308
73837SOL    HW123285   7.552  14.005  12.337
73837SOL    HW223286   7.582  13.911  12.223
73838SOL     OW23287   3.171   1.067   5.519
73838SOL    HW123288   3.203   1.048   5.607
73838SOL    HW223289   3.219   1.007   5.463
73839SOL     OW23290   8.676   0.370   7.283
73839SOL    HW123291   8.622   0.438   7.243
73839SOL    HW223292   8.725   0.415   7.352
73840SOL     OW23293   3.228  12.322   1.106
73840SOL    HW123294   3.135  12.332   1.084
73840SOL    HW223295   3.238  12.370   1.188
73841SOL     OW23296   0.993   5.998  10.160
73841SOL    HW123297   0.999   5.910  10.123
73841SOL    HW223298   1.066   6.004  10.221
73842SOL     OW23299  13.233   4.147   5.305
73842SOL    HW123300  13.170   4.143   5.234
73842SOL    HW223301  13.218   4.231   5.347
73843SOL     OW23302   8.183   7.025   7.040
73843SOL    HW123303   8.205   6.941   7.081
73843SOL    HW223304   8.234   7.024   6.958
73844SOL     OW23305   4.700  10.567   0.720
73844SOL    HW123306   4.751  10.635   0.763
73844SOL    HW223307   4.700  10.494   0.783
73845SOL     OW23308   7.226   4.249  12.508
73845SOL    HW123309   7.135   4.222  12.495
73845SOL    HW223310   7.278   4.175  12.477
73846SOL     OW23311  11.174   8.344   4.716
73846SOL    HW123312  11.179   8.424   4.664
73846SOL    HW223313  11.095   8.353   4.769
73847SOL     OW23314   7.173  10.325  13.028
73847SOL    HW123315   7.129  10.240  13.029
73847SOL    HW223316   7.155  10.361  12.942
73848SOL     OW23317   5.556   9.550   2.217
73848SOL    HW123318   5.617   9.526   2.147
73848SOL    HW223319   5.514   9.468   2.243
73849SOL     OW23320   8.199   7.811  14.711
73849SOL    HW123321   8.226   7.790  14.621
73849SOL    HW223322   8.244   7.893  14.731
73850SOL     OW23323   6.200   7.894   2.271
73850SOL    HW123324   6.126   7.857   2.319
73850SOL    HW223325   6.206   7.841   2.192
73851SOL     OW23326   7.481  12.543  10.075
73851SOL    HW123327   7.461  12.631  10.044
73851SOL    HW223328   7.577  12.538  10.072
73852SOL     OW23329   4.947   0.262   5.230
73852SOL    HW123330   4.884   0.201   5.270
73852SOL    HW223331   5.008   0.283   5.301
73853SOL     OW23332   6.143   6.858   3.733
73853SOL    HW123333   6.184   6.936   3.769
73853SOL    HW223334   6.144   6.872   3.638
73854SOL     OW23335   2.218   4.770   4.270
73854SOL    HW123336   2.172   4.854   4.271
73854SOL    HW223337   2.309   4.793   4.247
73855SOL     OW23338   3.234  10.754   8.027
73855SOL    HW123339   3.289  10.770   7.950
73855SOL    HW223340   3.194  10.839   8.046
73856SOL     OW23341   8.935  14.006   0.997
73856SOL    HW123342   8.868  14.020   1.064
73856SOL    HW223343   9.008  13.967   1.045
73857SOL     OW23344   9.381   3.669   5.484
73857SOL    HW123345   9.325   3.744   5.505
73857SOL    HW223346   9.435   3.698   5.411
73858SOL     OW23347   8.591   3.135  14.640
73858SOL    HW123348   8.611   3.200  14.573
73858SOL    HW223349   8.520   3.174  14.691
73859SOL     OW23350   6.265   6.591   0.558
73859SOL    HW123351   6.270   6.513   0.503
73859SOL    HW223352   6.212   6.653   0.509
73860SOL     OW23353   5.670   2.111   1.928
73860SOL    HW123354   5.720   2.078   2.003
73860SOL    HW223355   5.587   2.140   1.965
73861SOL     OW23356  10.274   1.170  11.622
73861SOL    HW123357  10.301   1.262  11.622
73861SOL    HW223358  10.185   1.172  11.658
73862SOL     OW23359  14.040  12.147   2.528
73862SOL    HW123360  14.052  12.238   2.501
73862SOL    HW223361  14.123  12.122   2.568
73863SOL     OW23362   1.105   1.541  13.145
73863SOL    HW123363   1.034   1.484  13.175
73863SOL    HW223364   1.104   1.614  13.207
73864SOL     OW23365   5.922   1.667  11.074
73864SOL    HW123366   5.862   1.738  11.100
73864SOL    HW223367   5.864   1.596  11.045
73865SOL     OW23368   2.183   4.101   4.850
73865SOL    HW123369   2.215   4.135   4.766
73865SOL    HW223370   2.209   4.009   4.850
73866SOL     OW23371   5.562   0.835  12.481
73866SOL    HW123372   5.513   0.916  12.491
73866SOL    HW223373   5.555   0.815  12.388
73867SOL     OW23374   7.735  11.275   0.624
73867SOL    HW123375   7.805  11.224   0.583
73867SOL    HW223376   7.732  11.356   0.574
73868SOL     OW23377   6.735   2.486   3.841
73868SOL    HW123378   6.739   2.404   3.792
73868SOL    HW223379   6.826   2.509   3.858
73869SOL     OW23380   8.419   8.628   1.804
73869SOL    HW123381   8.480   8.685   1.851
73869SOL    HW223382   8.416   8.663   1.715
73870SOL     OW23383   5.441  14.331  14.145
73870SOL    HW123384   5.519  14.287  14.112
73870SOL    HW223385   5.379  14.327  14.073
73871SOL     OW23386  11.370   7.442  11.568
73871SOL    HW123387  11.429   7.414  11.638
73871SOL    HW223388  11.426   7.454  11.492
73872SOL     OW23389   5.146  10.731   3.821
73872SOL    HW123390   5.130  10.642   3.853
73872SOL    HW223391   5.235  10.727   3.784
73873SOL     OW23392   6.972  10.720   3.920
73873SOL    HW123393   7.056  10.765   3.916
73873SOL    HW223394   6.920  10.758   3.849
73874SOL     OW23395  13.626  14.285  14.229
73874SOL    HW123396  13.612  14.380  14.236
73874SOL    HW223397  13.685  14.265  14.302
73875SOL     OW23398   0.809  14.245   6.902
73875SOL    HW123399   0.758  14.191   6.842
73875SOL    HW223400   0.747  14.267   6.973
73876SOL     OW23401   4.255   7.975   8.525
73876SOL    HW123402   4.257   8.014   8.613
73876SOL    HW223403   4.334   7.922   8.521
73877SOL     OW23404  13.866  10.657  10.394
73877SOL    HW123405  13.956  10.626  10.397
73877SOL    HW223406  13.822  10.599  10.331
73878SOL     OW23407   7.994   2.531   5.041
73878SOL    HW123408   7.929   2.568   5.100
73878SOL    HW223409   8.075   2.579   5.061
73879SOL     OW23410  11.150   5.425   5.433
73879SOL    HW123411  11.236   5.392   5.459
73879SOL    HW223412  11.112   5.460   5.513
73880SOL     OW23413  13.326   1.664   7.911
73880SOL    HW123414  13.354   1.585   7.957
73880SOL    HW223415  13.403   1.721   7.911
73881SOL     OW23416   5.712   2.333  14.379
73881SOL    HW123417   5.654   2.353  14.452
73881SOL    HW223418   5.799   2.360  14.409
73882SOL     OW23419   0.040   5.024  10.525
73882SOL    HW123420   0.102   5.005  10.454
73882SOL    HW223421   0.021   5.118  10.516
73883SOL     OW23422   6.011   6.281  13.692
73883SOL    HW123423   5.978   6.293  13.781
73883SOL    HW223424   5.983   6.360  13.645
73884SOL     OW23425  10.959  13.064   0.896
73884SOL    HW123426  10.990  12.979   0.928
73884SOL    HW223427  11.030  13.096   0.840
73885SOL     OW23428   9.417   9.891  11.686
73885SOL    HW123429   9.389   9.802  11.662
73885SOL    HW223430   9.419   9.891  11.781
73886SOL     OW23431   0.596   9.945   8.625
73886SOL    HW123432   0.539   9.922   8.698
73886SOL    HW223433   0.595   9.868   8.569
73887SOL     OW23434  11.990   8.552   2.995
73887SOL    HW123435  12.043   8.486   2.950
73887SOL    HW223436  11.936   8.590   2.925
73888SOL     OW23437   0.929  10.511   9.106
73888SOL    HW123438   1.010  10.546   9.068
73888SOL    HW223439   0.864  10.580   9.092
73889SOL     OW23440   1.097   8.126   4.266
73889SOL    HW123441   1.122   8.145   4.176
73889SOL    HW223442   1.174   8.082   4.303
73890SOL     OW23443   5.207  11.933   1.381
73890SOL    HW123444   5.125  11.930   1.431
73890SOL    HW223445   5.235  11.842   1.376
73891SOL     OW23446   5.389   8.654   0.688
73891SOL    HW123447   5.455   8.698   0.742
73891SOL    HW223448   5.338   8.601   0.750
73892SOL     OW23449   5.737   6.784  14.579
73892SOL    HW123450   5.685   6.709  14.607
73892SOL    HW223451   5.828   6.753  14.582
73893SOL     OW23452  13.276   4.415   5.426
73893SOL    HW123453  13.209   4.481   5.410
73893SOL    HW223454  13.264   4.390   5.517
73894SOL     OW23455  12.958   3.281   4.661
73894SOL    HW123456  12.986   3.328   4.582
73894SOL    HW223457  13.038   3.239   4.694
73895SOL     OW23458   2.394   9.691   2.646
73895SOL    HW123459   2.451   9.669   2.572
73895SOL    HW223460   2.315   9.726   2.605
73896SOL     OW23461   1.367   4.067   3.516
73896SOL    HW123462   1.446   4.040   3.470
73896SOL    HW223463   1.392   4.071   3.608
73897SOL     OW23464   7.160  11.686   7.052
73897SOL    HW123465   7.166  11.676   6.957
73897SOL    HW223466   7.155  11.781   7.066
73898SOL     OW23467  11.372   8.350  11.450
73898SOL    HW123468  11.407   8.267  11.484
73898SOL    HW223469  11.296   8.368  11.504
73899SOL     OW23470   1.323  10.821   2.922
73899SOL    HW123471   1.418  10.823   2.921
73899SOL    HW223472   1.298  10.860   3.005
73900SOL     OW23473   9.057   0.122   5.300
73900SOL    HW123474   9.079   0.124   5.207
73900SOL    HW223475   9.034   0.212   5.321
73901SOL     OW23476   5.049   2.673  14.002
73901SOL    HW123477   5.093   2.704  14.082
73901SOL    HW223478   5.060   2.578  14.004
73902SOL     OW23479  10.090   6.726   3.098
73902SOL    HW123480  10.057   6.807   3.137
73902SOL    HW223481  10.078   6.739   3.003
73903SOL     OW23482   3.364   9.628   5.524
73903SOL    HW123483   3.460   9.624   5.516
73903SOL    HW223484   3.345   9.576   5.601
73904SOL     OW23485   3.630   8.133  12.158
73904SOL    HW123486   3.666   8.057  12.204
73904SOL    HW223487   3.542   8.143  12.196
73905SOL     OW23488  13.766  10.190  11.503
73905SOL    HW123489  13.831  10.209  11.571
73905SOL    HW223490  13.690  10.158  11.551
73906SOL     OW23491  11.182  11.008   6.525
73906SOL    HW123492  11.218  11.039   6.609
73906SOL    HW223493  11.137  10.927   6.548
73907SOL     OW23494   2.953   0.414  14.667
73907SOL    HW123495   3.005   0.393  14.745
73907SOL    HW223496   2.977   0.504  14.645
73908SOL     OW23497   8.553  12.886   9.949
73908SOL    HW123498   8.523  12.858  10.036
73908SOL    HW223499   8.618  12.953   9.966
73909SOL     OW23500  10.122  11.149   7.337
73909SOL    HW123501  10.113  11.206   7.413
73909SOL    HW223502  10.060  11.078   7.353
73910SOL     OW23503   3.267  10.794   2.459
73910SOL    HW123504   3.278  10.803   2.364
73910SOL    HW223505   3.356  10.803   2.494
73911SOL     OW23506  10.035  14.655   9.527
73911SOL    HW123507  10.057  14.717   9.596
73911SOL    HW223508  10.119  14.618   9.500
73912SOL     OW23509   4.148   9.325   3.901
73912SOL    HW123510   4.094   9.252   3.932
73912SOL    HW223511   4.237   9.292   3.902
73913SOL     OW23512   4.575   6.562   6.541
73913SOL    HW123513   4.563   6.467   6.544
73913SOL    HW223514   4.517   6.596   6.609
73914SOL     OW23515  12.120   6.280   0.627
73914SOL    HW123516  12.152   6.320   0.546
73914SOL    HW223517  12.045   6.226   0.599
73915SOL     OW23518   4.958   6.384   7.202
73915SOL    HW123519   4.956   6.392   7.107
73915SOL    HW223520   4.879   6.334   7.223
73916SOL     OW23521  14.715   8.403   6.299
73916SOL    HW123522  14.683   8.478   6.350
73916SOL    HW223523  14.810   8.403   6.314
73917SOL     OW23524   2.485  11.773   7.445
73917SOL    HW123525   2.491  11.678   7.438
73917SOL    HW223526   2.546  11.806   7.379
73918SOL     OW23527   1.086  13.779  10.721
73918SOL    HW123528   1.052  13.754  10.807
73918SOL    HW223529   1.173  13.814  10.739
73919SOL     OW23530  14.840   3.102  12.312
73919SOL    HW123531   0.045   3.055  12.308
73919SOL    HW223532  14.830   3.126  12.404
73920SOL     OW23533   8.189   2.832  12.060
73920SOL    HW123534   8.169   2.913  12.108
73920SOL    HW223535   8.151   2.846  11.973
73921SOL     OW23536   6.222   0.033   9.799
73921SOL    HW123537   6.277   0.052   9.722
73921SOL    HW223538   6.156  14.849   9.766
73922SOL     OW23539   4.755   2.540   8.183
73922SOL    HW123540   4.765   2.624   8.228
73922SOL    HW223541   4.661   2.524   8.182
73923SOL     OW23542   6.817  10.321   2.831
73923SOL    HW123543   6.756  10.262   2.875
73923SOL    HW223544   6.895  10.268   2.817
73924SOL     OW23545   8.364   9.170   3.900
73924SOL    HW123546   8.420   9.104   3.941
73924SOL    HW223547   8.347   9.233   3.971
73925SOL     OW23548   6.601   5.109  11.190
73925SOL    HW123549   6.578   5.016  11.189
73925SOL    HW223550   6.519   5.154  11.167
73926SOL     OW23551   4.257   7.333   0.212
73926SOL    HW123552   4.249   7.403   0.276
73926SOL    HW223553   4.186   7.272   0.233
73927SOL     OW23554  14.291   9.411  10.947
73927SOL    HW123555  14.206   9.380  10.979
73927SOL    HW223556  14.326   9.464  11.019
73928SOL     OW23557   3.782   6.791   3.423
73928SOL    HW123558   3.712   6.812   3.360
73928SOL    HW223559   3.860   6.829   3.383
73929SOL     OW23560   3.537   5.908   7.633
73929SOL    HW123561   3.482   5.948   7.701
73929SOL    HW223562   3.477   5.888   7.562
73930SOL     OW23563   2.630   4.125   3.966
73930SOL    HW123564   2.583   4.134   3.883
73930SOL    HW223565   2.561   4.109   4.031
73931SOL     OW23566   8.462   0.946   9.251
73931SOL    HW123567   8.513   1.026   9.237
73931SOL    HW223568   8.526   0.883   9.284
73932SOL     OW23569  12.024   3.153   4.903
73932SOL    HW123570  12.108   3.123   4.938
73932SOL    HW223571  11.959   3.097   4.947
73933SOL     OW23572   8.559   9.749  11.383
73933SOL    HW123573   8.597   9.806  11.450
73933SOL    HW223574   8.465   9.770  11.386
73934SOL     OW23575  14.441  11.478   2.595
73934SOL    HW123576  14.358  11.467   2.641
73934SOL    HW223577  14.421  11.539   2.524
73935SOL     OW23578   3.819   2.453   1.343
73935SOL    HW123579   3.777   2.407   1.271
73935SOL    HW223580   3.878   2.516   1.302
73936SOL     OW23581   0.434   8.207   9.658
73936SOL    HW123582   0.469   8.272   9.720
73936SOL    HW223583   0.352   8.178   9.698
73937SOL     OW23584   6.694   4.432   3.436
73937SOL    HW123585   6.680   4.432   3.341
73937SOL    HW223586   6.763   4.367   3.451
73938SOL     OW23587  14.527   8.323   7.395
73938SOL    HW123588  14.562   8.305   7.307
73938SOL    HW223589  14.432   8.319   7.384
73939SOL     OW23590   9.742   6.709   2.807
73939SOL    HW123591   9.761   6.616   2.792
73939SOL    HW223592   9.813   6.739   2.864
73940SOL     OW23593   9.698  12.697   7.311
73940SOL    HW123594   9.658  12.620   7.352
73940SOL    HW223595   9.690  12.766   7.377
73941SOL     OW23596  11.746   3.005   2.848
73941SOL    HW123597  11.760   2.923   2.895
73941SOL    HW223598  11.803   2.999   2.772
73942SOL     OW23599   1.983   3.751  12.069
73942SOL    HW123600   1.992   3.672  12.016
73942SOL    HW223601   1.911   3.731  12.129
73943SOL     OW23602   8.904   7.362   1.376
73943SOL    HW123603   8.885   7.375   1.469
73943SOL    HW223604   8.818   7.351   1.336
73944SOL     OW23605   7.460   7.451  13.409
73944SOL    HW123606   7.542   7.461  13.360
73944SOL    HW223607   7.410   7.530  13.390
73945SOL     OW23608  11.645   3.482   5.636
73945SOL    HW123609  11.625   3.426   5.711
73945SOL    HW223610  11.690   3.558   5.675
73946SOL     OW23611   1.847  13.453   1.468
73946SOL    HW123612   1.846  13.415   1.380
73946SOL    HW223613   1.939  13.472   1.485
73947SOL     OW23614   3.306  11.848   3.151
73947SOL    HW123615   3.236  11.797   3.192
73947SOL    HW223616   3.262  11.923   3.112
73948SOL     OW23617   8.966   5.637  10.707
73948SOL    HW123618   8.900   5.706  10.701
73948SOL    HW223619   8.935   5.568  10.649
73949SOL     OW23620   3.676   4.396   7.802
73949SOL    HW123621   3.744   4.331   7.787
73949SOL    HW223622   3.684   4.455   7.727
73950SOL     OW23623   0.066  14.817   7.975
73950SOL    HW123624   0.126   0.012   7.993
73950SOL    HW223625   0.011  14.811   8.053
73951SOL     OW23626  11.925  13.552  13.682
73951SOL    HW123627  11.965  13.505  13.755
73951SOL    HW223628  11.832  13.553  13.702
73952SOL     OW23629   2.215   0.838  14.386
73952SOL    HW123630   2.251   0.919  14.422
73952SOL    HW223631   2.120   0.849  14.395
73953SOL     OW23632   9.277   5.420  10.687
73953SOL    HW123633   9.358   5.469  10.671
73953SOL    HW223634   9.221   5.483  10.733
73954SOL     OW23635   1.841   5.387  14.123
73954SOL    HW123636   1.840   5.419  14.033
73954SOL    HW223637   1.926   5.345  14.132
73955SOL     OW23638   7.320  14.273   2.877
73955SOL    HW123639   7.383  14.272   2.949
73955SOL    HW223640   7.253  14.336   2.905
73956SOL     OW23641  10.342   5.457  12.172
73956SOL    HW123642  10.434   5.459  12.199
73956SOL    HW223643  10.328   5.542  12.130
73957SOL     OW23644   8.913   4.238   2.996
73957SOL    HW123645   8.978   4.217   3.063
73957SOL    HW223646   8.945   4.318   2.955
73958SOL     OW23647  13.174   1.239   9.740
73958SOL    HW123648  13.082   1.221   9.757
73958SOL    HW223649  13.205   1.283   9.819
73959SOL     OW23650   2.727   8.623  11.493
73959SOL    HW123651   2.656   8.597  11.552
73959SOL    HW223652   2.718   8.565  11.418
73960SOL     OW23653   0.795   6.474  10.585
73960SOL    HW123654   0.834   6.386  10.589
73960SOL    HW223655   0.854   6.524  10.529
73961SOL     OW23656   5.345  14.230   3.798
73961SOL    HW123657   5.300  14.228   3.883
73961SOL    HW223658   5.421  14.174   3.810
73962SOL     OW23659  10.752   9.171  10.022
73962SOL    HW123660  10.677   9.141   9.970
73962SOL    HW223661  10.716   9.237  10.081
73963SOL     OW23662   0.285   4.300   6.552
73963SOL    HW123663   0.213   4.283   6.613
73963SOL    HW223664   0.332   4.373   6.591
73964SOL     OW23665   8.915  14.186   9.022
73964SOL    HW123666   8.976  14.228   9.082
73964SOL    HW223667   8.830  14.228   9.040
73965SOL     OW23668   1.048   4.354  14.657
73965SOL    HW123669   1.107   4.417  14.615
73965SOL    HW223670   1.051   4.276  14.602
73966SOL     OW23671  13.517   1.277  13.467
73966SOL    HW123672  13.453   1.217  13.428
73966SOL    HW223673  13.481   1.296  13.554
73967SOL     OW23674  12.714   3.848  11.016
73967SOL    HW123675  12.676   3.807  11.094
73967SOL    HW223676  12.700   3.942  11.030
73968SOL     OW23677  13.216   3.012  11.390
73968SOL    HW123678  13.210   3.043  11.299
73968SOL    HW223679  13.301   2.969  11.395
73969SOL     OW23680  10.987   6.762   6.306
73969SOL    HW123681  11.014   6.847   6.271
73969SOL    HW223682  10.892   6.760   6.295
73970SOL     OW23683   2.804   0.204   2.996
73970SOL    HW123684   2.785   0.288   2.954
73970SOL    HW223685   2.795   0.221   3.090
73971SOL     OW23686   2.102   5.200   1.433
73971SOL    HW123687   2.090   5.168   1.343
73971SOL    HW223688   2.102   5.295   1.425
73972SOL     OW23689   5.803   7.895   3.438
73972SOL    HW123690   5.836   7.949   3.365
73972SOL    HW223691   5.838   7.937   3.516
73973SOL     OW23692  12.154   5.917   5.021
73973SOL    HW123693  12.241   5.877   5.028
73973SOL    HW223694  12.170   6.011   5.029
73974SOL     OW23695   3.072   2.946  13.765
73974SOL    HW123696   3.088   2.949  13.671
73974SOL    HW223697   3.159   2.945  13.805
73975SOL     OW23698   6.420   8.730   4.456
73975SOL    HW123699   6.326   8.711   4.458
73975SOL    HW223700   6.439   8.746   4.363
73976SOL     OW23701  11.718   0.453   3.557
73976SOL    HW123702  11.706   0.548   3.570
73976SOL    HW223703  11.813   0.440   3.566
73977SOL     OW23704  10.755   9.194  14.353
73977SOL    HW123705  10.767   9.180  14.259
73977SOL    HW223706  10.765   9.289  14.365
73978SOL     OW23707   8.155   5.095  13.269
73978SOL    HW123708   8.077   5.057  13.309
73978SOL    HW223709   8.190   5.026  13.213
73979SOL     OW23710  10.245  11.431  12.405
73979SOL    HW123711  10.338  11.451  12.400
73979SOL    HW223712  10.210  11.456  12.319
73980SOL     OW23713   3.995  14.730   9.785
73980SOL    HW123714   3.924  14.677   9.747
73980SOL    HW223715   3.957  14.768   9.864
73981SOL     OW23716  10.521   4.965  11.463
73981SOL    HW123717  10.430   4.972  11.434
73981SOL    HW223718  10.522   5.014  11.546
73982SOL     OW23719   4.027   9.564   7.272
73982SOL    HW123720   3.990   9.597   7.190
73982SOL    HW223721   4.004   9.471   7.274
73983SOL     OW23722  14.039   6.891  10.084
73983SOL    HW123723  14.001   6.914   9.999
73983SOL    HW223724  14.000   6.807  10.106
73984SOL     OW23725   8.158   4.660  14.404
73984SOL    HW123726   8.179   4.590  14.465
73984SOL    HW223727   8.132   4.734  14.460
73985SOL     OW23728   3.731   6.671   1.266
73985SOL    HW123729   3.817   6.708   1.245
73985SOL    HW223730   3.710   6.616   1.190
73986SOL     OW23731   9.673   4.943   3.199
73986SOL    HW123732   9.668   5.034   3.230
73986SOL    HW223733   9.583   4.911   3.205
73987SOL     OW23734  10.668  10.111   9.867
73987SOL    HW123735  10.610  10.155   9.805
73987SOL    HW223736  10.630  10.024   9.879
73988SOL     OW23737   9.217  12.867   1.176
73988SOL    HW123738   9.253  12.855   1.088
73988SOL    HW223739   9.184  12.781   1.201
73989SOL     OW23740   2.340   2.424   1.538
73989SOL    HW123741   2.310   2.504   1.581
73989SOL    HW223742   2.347   2.360   1.609
73990SOL     OW23743   9.273  12.687  13.919
73990SOL    HW123744   9.255  12.747  13.991
73990SOL    HW223745   9.222  12.720  13.846
73991SOL     OW23746   6.348   2.939   6.049
73991SOL    HW123747   6.306   2.984   5.975
73991SOL    HW223748   6.412   3.002   6.081
73992SOL     OW23749   9.218  12.376  14.472
73992SOL    HW123750   9.309  12.383  14.445
73992SOL    HW223751   9.215  12.416  14.559
73993SOL     OW23752   6.266   9.487  12.057
73993SOL    HW123753   6.349   9.493  12.105
73993SOL    HW223754   6.292   9.483  11.965
73994SOL     OW23755   3.558   9.562  13.216
73994SOL    HW123756   3.555   9.621  13.291
73994SOL    HW223757   3.507   9.486  13.243
73995SOL     OW23758   9.771   7.604   0.820
73995SOL    HW123759   9.820   7.555   0.753
73995SOL    HW223760   9.702   7.648   0.771
73996SOL     OW23761  11.931   3.720   2.517
73996SOL    HW123762  11.898   3.633   2.539
73996SOL    HW223763  11.918   3.728   2.423
73997SOL     OW23764   0.724   8.034  11.411
73997SOL    HW123765   0.777   8.061  11.486
73997SOL    HW223766   0.740   7.940  11.403
73998SOL     OW23767  11.672   8.229  13.860
73998SOL    HW123768  11.639   8.155  13.911
73998SOL    HW223769  11.767   8.225  13.871
73999SOL     OW23770   6.839   2.915   4.752
73999SOL    HW123771   6.810   2.825   4.738
73999SOL    HW223772   6.824   2.930   4.845
74000SOL     OW23773   6.428  14.020   5.004
74000SOL    HW123774   6.463  14.095   4.955
74000SOL    HW223775   6.367  13.979   4.943
74001SOL     OW23776  13.152   2.605   4.345
74001SOL    HW123777  13.188   2.566   4.425
74001SOL    HW223778  13.229   2.623   4.291
74002SOL     OW23779   7.036   1.086   3.142
74002SOL    HW123780   7.000   1.018   3.200
74002SOL    HW223781   7.039   1.045   3.056
74003SOL     OW23782  11.067   8.722   3.749
74003SOL    HW123783  11.032   8.671   3.821
74003SOL    HW223784  11.036   8.678   3.670
74004SOL     OW23785   2.224   8.932   0.281
74004SOL    HW123786   2.258   8.943   0.370
74004SOL    HW223787   2.236   9.018   0.240
74005SOL     OW23788   8.713   6.607  10.941
74005SOL    HW123789   8.725   6.627  10.848
74005SOL    HW223790   8.649   6.670  10.971
74006SOL     OW23791   6.109  11.908   1.298
74006SOL    HW123792   6.197  11.946   1.300
74006SOL    HW223793   6.055  11.974   1.254
74007SOL     OW23794   5.692   4.886   7.745
74007SOL    HW123795   5.655   4.802   7.773
74007SOL    HW223796   5.772   4.864   7.697
74008SOL     OW23797   1.769  11.796   5.126
74008SOL    HW123798   1.851  11.797   5.176
74008SOL    HW223799   1.788  11.738   5.052
74009SOL     OW23800   3.520   3.816  12.597
74009SOL    HW123801   3.528   3.742  12.537
74009SOL    HW223802   3.426   3.819  12.618
74010SOL     OW23803  11.589  12.494   5.585
74010SOL    HW123804  11.672  12.445   5.588
74010SOL    HW223805  11.600  12.556   5.513
74011SOL     OW23806   7.001   0.911   3.481
74011SOL    HW123807   6.969   0.829   3.443
74011SOL    HW223808   7.029   0.887   3.569
74012SOL     OW23809   5.641   4.528   4.361
74012SOL    HW123810   5.596   4.608   4.389
74012SOL    HW223811   5.571   4.468   4.336
74013SOL     OW23812  10.533   6.215  11.415
74013SOL    HW123813  10.468   6.181  11.477
74013SOL    HW223814  10.496   6.197  11.329
74014SOL     OW23815  10.237  11.796   3.225
74014SOL    HW123816  10.195  11.713   3.199
74014SOL    HW223817  10.284  11.775   3.306
74015SOL     OW23818   2.739  13.860  14.365
74015SOL    HW123819   2.647  13.885  14.364
74015SOL    HW223820   2.787  13.943  14.369
74016SOL     OW23821   3.204   2.266  14.732
74016SOL    HW123822   3.255   2.236  14.657
74016SOL    HW223823   3.113   2.256  14.703
74017SOL     OW23824   0.251   5.770   2.962
74017SOL    HW123825   0.221   5.742   2.876
74017SOL    HW223826   0.213   5.705   3.022
74018SOL     OW23827  10.592   5.692  10.024
74018SOL    HW123828  10.523   5.758  10.033
74018SOL    HW223829  10.626   5.705   9.936
74019SOL     OW23830   9.402   5.672   9.680
74019SOL    HW123831   9.385   5.766   9.695
74019SOL    HW223832   9.412   5.636   9.768
74020SOL     OW23833  10.314  14.134  14.300
74020SOL    HW123834  10.325  14.090  14.385
74020SOL    HW223835  10.383  14.200  14.298
74021SOL     OW23836  11.910  14.569  13.542
74021SOL    HW123837  11.868  14.500  13.595
74021SOL    HW223838  11.960  14.620  13.606
74022SOL     OW23839  11.249   6.124  13.908
74022SOL    HW123840  11.330   6.108  13.859
74022SOL    HW223841  11.215   6.206  13.872
74023SOL     OW23842   6.467  10.812   8.121
74023SOL    HW123843   6.485  10.798   8.028
74023SOL    HW223844   6.462  10.724   8.158
74024SOL     OW23845  14.675   5.321   4.010
74024SOL    HW123846  14.711   5.409   4.001
74024SOL    HW223847  14.752   5.264   4.014
74025SOL     OW23848  12.551   7.466  12.059
74025SOL    HW123849  12.486   7.515  12.108
74025SOL    HW223850  12.567   7.388  12.112
74026SOL     OW23851   4.976  12.322   4.070
74026SOL    HW123852   4.910  12.257   4.046
74026SOL    HW223853   5.051  12.304   4.013
74027SOL     OW23854   4.316   8.601  14.523
74027SOL    HW123855   4.355   8.525  14.480
74027SOL    HW223856   4.234   8.616  14.476
74028SOL     OW23857   8.065   8.604   9.162
74028SOL    HW123858   8.121   8.571   9.232
74028SOL    HW223859   8.082   8.698   9.161
74029SOL     OW23860  13.602   7.952  14.472
74029SOL    HW123861  13.545   8.022  14.505
74029SOL    HW223862  13.685   7.965  14.517
74030SOL     OW23863  11.186  10.189  11.865
74030SOL    HW123864  11.159  10.260  11.808
74030SOL    HW223865  11.273  10.215  11.897
74031SOL     OW23866   9.341   9.279   0.544
74031SOL    HW123867   9.283   9.231   0.604
74031SOL    HW223868   9.281   9.327   0.487
74032SOL     OW23869   8.714   2.364   9.498
74032SOL    HW123870   8.662   2.285   9.509
74032SOL    HW223871   8.791   2.350   9.554
74033SOL     OW23872   2.612   7.976  12.979
74033SOL    HW123873   2.610   8.072  12.979
74033SOL    HW223874   2.543   7.950  12.919
74034SOL     OW23875   6.692   3.060  14.735
74034SOL    HW123876   6.678   3.107  14.817
74034SOL    HW223877   6.613   3.008  14.722
74035SOL     OW23878   6.426   6.650  10.715
74035SOL    HW123879   6.379   6.575  10.679
74035SOL    HW223880   6.471   6.688  10.640
74036SOL     OW23881  12.450  11.179   0.614
74036SOL    HW123882  12.389  11.113   0.581
74036SOL    HW223883  12.537  11.144   0.591
74037SOL     OW23884  12.222   9.080   7.297
74037SOL    HW123885  12.222   9.077   7.392
74037SOL    HW223886  12.137   9.116   7.273
74038SOL     OW23887   5.495   0.519  11.113
74038SOL    HW123888   5.435   0.592  11.130
74038SOL    HW223889   5.549   0.514  11.192
74039SOL     OW23890   5.093   2.050  10.022
74039SOL    HW123891   5.116   2.113  10.090
74039SOL    HW223892   5.176   2.009   9.997
74040SOL     OW23893   8.493   2.313  11.746
74040SOL    HW123894   8.421   2.342  11.690
74040SOL    HW223895   8.481   2.219  11.754
74041SOL     OW23896   9.921  11.692   3.417
74041SOL    HW123897   9.887  11.740   3.341
74041SOL    HW223898   9.929  11.758   3.486
74042SOL     OW23899   0.592   0.580   0.219
74042SOL    HW123900   0.624   0.586   0.129
74042SOL    HW223901   0.512   0.528   0.212
74043SOL     OW23902  14.507  14.775   0.765
74043SOL    HW123903  14.549  14.748   0.683
74043SOL    HW223904  14.573  14.759   0.832
74044SOL     OW23905  10.938   9.346  13.281
74044SOL    HW123906  10.939   9.269  13.225
74044SOL    HW223907  10.848   9.378  13.275
74045SOL     OW23908   5.843   4.955   6.479
74045SOL    HW123909   5.848   5.002   6.562
74045SOL    HW223910   5.900   4.879   6.491
74046SOL     OW23911  14.784   5.492   2.537
74046SOL    HW123912  14.691   5.487   2.559
74046SOL    HW223913  14.787   5.475   2.443
74047SOL     OW23914   8.181  10.757  13.902
74047SOL    HW123915   8.222  10.748  13.817
74047SOL    HW223916   8.132  10.840  13.897
74048SOL     OW23917  12.212   8.043  13.268
74048SOL    HW123918  12.199   7.965  13.322
74048SOL    HW223919  12.234   8.112  13.331
74049SOL     OW23920   7.058   8.596  11.119
74049SOL    HW123921   6.987   8.536  11.096
74049SOL    HW223922   7.014   8.667  11.166
74050SOL     OW23923   0.386   7.005  10.768
74050SOL    HW123924   0.446   6.947  10.723
74050SOL    HW223925   0.358   7.068  10.702
74051SOL     OW23926   0.590   0.637   7.180
74051SOL    HW123927   0.496   0.650   7.193
74051SOL    HW223928   0.628   0.725   7.186
74052SOL     OW23929   7.650   3.426   2.223
74052SOL    HW123930   7.590   3.500   2.231
74052SOL    HW223931   7.724   3.460   2.172
74053SOL     OW23932   1.210  11.005   2.783
74053SOL    HW123933   1.290  11.047   2.751
74053SOL    HW223934   1.240  10.921   2.818
74054SOL     OW23935   0.355   1.765   3.867
74054SOL    HW123936   0.305   1.809   3.798
74054SOL    HW223937   0.446   1.780   3.843
74055SOL     OW23938  10.890  13.404   6.723
74055SOL    HW123939  10.949  13.401   6.648
74055SOL    HW223940  10.898  13.318   6.764
74056SOL     OW23941   8.741   2.774  12.041
74056SOL    HW123942   8.719   2.796  11.950
74056SOL    HW223943   8.832   2.747  12.038
74057SOL     OW23944  12.732   4.027   4.154
74057SOL    HW123945  12.658   4.023   4.215
74057SOL    HW223946  12.744   4.120   4.137
74058SOL     OW23947   2.452   5.347  14.636
74058SOL    HW123948   2.516   5.297  14.687
74058SOL    HW223949   2.373   5.349  14.691
74059SOL     OW23950   2.859   3.754   1.026
74059SOL    HW123951   2.924   3.733   1.094
74059SOL    HW223952   2.871   3.847   1.008
74060SOL     OW23953  10.277  10.453   0.947
74060SOL    HW123954  10.280  10.534   0.998
74060SOL    HW223955  10.206  10.466   0.884
74061SOL     OW23956  12.603  11.577   7.910
74061SOL    HW123957  12.574  11.667   7.924
74061SOL    HW223958  12.560  11.551   7.828
74062SOL     OW23959   8.667  12.970  13.105
74062SOL    HW123960   8.601  13.039  13.101
74062SOL    HW223961   8.625  12.899  13.154
74063SOL     OW23962   9.739  13.064   9.633
74063SOL    HW123963   9.784  13.012   9.700
74063SOL    HW223964   9.808  13.093   9.574
74064SOL     OW23965  14.185   0.464   7.814
74064SOL    HW123966  14.257   0.527   7.812
74064SOL    HW223967  14.228   0.379   7.824
74065SOL     OW23968   6.642   2.773   4.551
74065SOL    HW123969   6.685   2.768   4.466
74065SOL    HW223970   6.570   2.710   4.545
74066SOL     OW23971  14.496   9.668   3.693
74066SOL    HW123972  14.402   9.653   3.696
74066SOL    HW223973  14.522   9.644   3.604
74067SOL     OW23974   7.467   3.536   7.718
74067SOL    HW123975   7.469   3.629   7.742
74067SOL    HW223976   7.397   3.529   7.654
74068SOL     OW23977  14.583  11.976   7.760
74068SOL    HW123978  14.623  11.908   7.705
74068SOL    HW223979  14.594  11.943   7.850
74069SOL     OW23980  12.818  10.884  13.869
74069SOL    HW123981  12.825  10.974  13.901
74069SOL    HW223982  12.783  10.834  13.943
74070SOL     OW23983   2.176   5.477   2.732
74070SOL    HW123984   2.253   5.424   2.751
74070SOL    HW223985   2.164   5.531   2.811
74071SOL     OW23986   2.099   8.163   2.549
74071SOL    HW123987   2.181   8.178   2.503
74071SOL    HW223988   2.036   8.141   2.481
74072SOL     OW23989   3.104   8.847  14.136
74072SOL    HW123990   3.169   8.778  14.147
74072SOL    HW223991   3.128   8.890  14.054
74073SOL     OW23992  14.634  12.609   6.315
74073SOL    HW123993  14.546  12.611   6.277
74073SOL    HW223994  14.651  12.517   6.333
74074SOL     OW23995   0.482   7.917   9.805
74074SOL    HW123996   0.447   7.829   9.799
74074SOL    HW223997   0.490   7.947   9.715
74075SOL     OW23998  13.518   0.063  13.695
74075SOL    HW123999  13.564   0.146  13.702
74075SOL    HW224000  13.456   0.064  13.768
74076SOL     OW24001   9.684   6.350  11.793
74076SOL    HW124002   9.773   6.355  11.757
74076SOL    HW224003   9.635   6.414  11.742
74077SOL     OW24004  14.409   8.322   6.059
74077SOL    HW124005  14.471   8.389   6.032
74077SOL    HW224006  14.462   8.255   6.101
74078SOL     OW24007  12.743   4.351   1.436
74078SOL    HW124008  12.787   4.430   1.469
74078SOL    HW224009  12.814   4.289   1.419
74079SOL     OW24010  11.869   9.888   7.446
74079SOL    HW124011  11.916   9.868   7.364
74079SOL    HW224012  11.791   9.936   7.417
74080SOL     OW24013   6.624  14.215  14.177
74080SOL    HW124014   6.719  14.217  14.182
74080SOL    HW224015   6.595  14.260  14.257
74081SOL     OW24016   6.959   5.061  12.837
74081SOL    HW124017   6.874   5.030  12.807
74081SOL    HW224018   6.949   5.155  12.847
74082SOL     OW24019   4.030  11.738  10.322
74082SOL    HW124020   4.008  11.827  10.294
74082SOL    HW224021   3.964  11.683  10.281
74083SOL     OW24022   4.228   4.908   2.414
74083SOL    HW124023   4.148   4.930   2.366
74083SOL    HW224024   4.249   4.819   2.385
74084SOL     OW24025   7.494   1.649  11.331
74084SOL    HW124026   7.531   1.733  11.357
74084SOL    HW224027   7.464   1.609  11.413
74085SOL     OW24028   9.400   2.641   0.598
74085SOL    HW124029   9.357   2.704   0.540
74085SOL    HW224030   9.490   2.636   0.567
74086SOL     OW24031   6.869   1.720   0.221
74086SOL    HW124032   6.862   1.790   0.155
74086SOL    HW224033   6.935   1.751   0.282
74087SOL     OW24034   6.742   8.789  14.642
74087SOL    HW124035   6.724   8.883  14.639
74087SOL    HW224036   6.656   8.748  14.652
74088SOL     OW24037   9.556  11.170   5.845
74088SOL    HW124038   9.619  11.143   5.778
74088SOL    HW224039   9.516  11.249   5.809
74089SOL     OW24040   6.589   5.183   2.142
74089SOL    HW124041   6.566   5.113   2.081
74089SOL    HW224042   6.684   5.173   2.155
74090SOL     OW24043  13.322   3.992  14.766
74090SOL    HW124044  13.409   4.033  14.773
74090SOL    HW224045  13.315   3.967  14.674
74091SOL     OW24046   6.433  10.304   7.745
74091SOL    HW124047   6.367  10.355   7.793
74091SOL    HW224048   6.440  10.222   7.794
74092SOL     OW24049  14.876   6.508  10.414
74092SOL    HW124050   0.069   6.446  10.432
74092SOL    HW224051  14.844   6.533  10.500
74093SOL     OW24052   7.249   7.228   2.031
74093SOL    HW124053   7.286   7.141   2.043
74093SOL    HW224054   7.306   7.270   1.965
74094SOL     OW24055  13.353   4.817  14.598
74094SOL    HW124056  13.418   4.855  14.538
74094SOL    HW224057  13.344   4.726  14.569
74095SOL     OW24058   7.492   2.830   7.217
74095SOL    HW124059   7.405   2.803   7.186
74095SOL    HW224060   7.528   2.881   7.145
74096SOL     OW24061   0.849  12.872  13.321
74096SOL    HW124062   0.824  12.916  13.402
74096SOL    HW224063   0.853  12.779  13.344
74097SOL     OW24064   3.422   0.734  10.237
74097SOL    HW124065   3.333   0.723  10.270
74097SOL    HW224066   3.463   0.795  10.299
74098SOL     OW24067   4.403  13.205   1.707
74098SOL    HW124068   4.476  13.246   1.660
74098SOL    HW224069   4.334  13.196   1.641
74099SOL     OW24070   7.160   5.099   2.279
74099SOL    HW124071   7.097   5.028   2.282
74099SOL    HW224072   7.246   5.056   2.281
74100SOL     OW24073   0.585   8.272   2.218
74100SOL    HW124074   0.506   8.266   2.272
74100SOL    HW224075   0.597   8.366   2.204
74101SOL     OW24076   0.588  11.835  11.402
74101SOL    HW124077   0.628  11.918  11.376
74101SOL    HW224078   0.501  11.836  11.362
74102SOL     OW24079  11.468  10.641   4.185
74102SOL    HW124080  11.529  10.693   4.237
74102SOL    HW224081  11.507  10.554   4.182
74103SOL     OW24082  10.369   1.252  14.307
74103SOL    HW124083  10.439   1.282  14.365
74103SOL    HW224084  10.354   1.325  14.247
74104SOL     OW24085   6.040   1.580  14.170
74104SOL    HW124086   6.027   1.601  14.077
74104SOL    HW224087   6.115   1.633  14.196
74105SOL     OW24088  10.121   2.629   7.782
74105SOL    HW124089  10.029   2.637   7.804
74105SOL    HW224090  10.143   2.538   7.798
74106SOL     OW24091   9.720   6.102  10.168
74106SOL    HW124092   9.776   6.177  10.151
74106SOL    HW224093   9.634   6.139  10.186
74107SOL     OW24094  12.720   9.665  13.042
74107SOL    HW124095  12.808   9.641  13.012
74107SOL    HW224096  12.735   9.707  13.127
74108SOL     OW24097   3.366   3.633  10.325
74108SOL    HW124098   3.349   3.624  10.231
74108SOL    HW224099   3.440   3.694  10.331
74109SOL     OW24100  12.944   2.740  11.895
74109SOL    HW124101  12.852   2.717  11.885
74109SOL    HW224102  12.945   2.805  11.966
74110SOL     OW24103   4.292   9.047   0.861
74110SOL    HW124104   4.311   9.067   0.953
74110SOL    HW224105   4.199   9.021   0.862
74111SOL     OW24106   7.897   1.450   0.131
74111SOL    HW124107   7.948   1.530   0.144
74111SOL    HW224108   7.806   1.481   0.126
74112SOL     OW24109   0.014   8.575  13.114
74112SOL    HW124110   0.108   8.563  13.099
74112SOL    HW224111  14.851   8.557  13.030
74113SOL     OW24112  11.688   9.391   0.731
74113SOL    HW124113  11.710   9.480   0.758
74113SOL    HW224114  11.719   9.384   0.641
74114SOL     OW24115   9.389   9.890   7.244
74114SOL    HW124116   9.418   9.971   7.287
74114SOL    HW224117   9.467   9.835   7.241
74115SOL     OW24118   3.849   7.888   4.294
74115SOL    HW124119   3.819   7.818   4.236
74115SOL    HW224120   3.781   7.955   4.288
74116SOL     OW24121   1.919  14.595  10.094
74116SOL    HW124122   1.912  14.643  10.176
74116SOL    HW224123   1.883  14.654  10.028
74117SOL     OW24124   5.999   6.407  11.638
74117SOL    HW124125   5.982   6.482  11.695
74117SOL    HW224126   5.923   6.404  11.579
74118SOL     OW24127   9.170   5.645   2.098
74118SOL    HW124128   9.231   5.718   2.094
74118SOL    HW224129   9.144   5.629   2.007
74119SOL     OW24130   5.976   9.339   8.005
74119SOL    HW124131   5.930   9.383   8.076
74119SOL    HW224132   6.040   9.403   7.974
74120SOL     OW24133   1.743   6.277   9.135
74120SOL    HW124134   1.654   6.312   9.126
74120SOL    HW224135   1.799   6.343   9.094
74121SOL     OW24136   1.886   8.691  11.501
74121SOL    HW124137   1.791   8.691  11.515
74121SOL    HW224138   1.915   8.777  11.533
74122SOL     OW24139   4.949   4.259   2.139
74122SOL    HW124140   4.927   4.293   2.225
74122SOL    HW224141   5.028   4.208   2.153
74123SOL     OW24142  12.587   8.706   5.815
74123SOL    HW124143  12.543   8.774   5.867
74123SOL    HW224144  12.535   8.627   5.830
74124SOL     OW24145   4.582   5.992   2.184
74124SOL    HW124146   4.605   6.078   2.220
74124SOL    HW224147   4.651   5.934   2.215
74125SOL     OW24148   6.328   6.759   1.549
74125SOL    HW124149   6.363   6.672   1.529
74125SOL    HW224150   6.287   6.789   1.468
74126SOL     OW24151  10.853   9.684   3.220
74126SOL    HW124152  10.820   9.671   3.310
74126SOL    HW224153  10.941   9.719   3.232
74127SOL     OW24154   7.684  14.382   5.156
74127SOL    HW124155   7.675  14.470   5.118
74127SOL    HW224156   7.767  14.385   5.204
74128SOL     OW24157   2.479   8.110  13.276
74128SOL    HW124158   2.451   8.050  13.207
74128SOL    HW224159   2.551   8.064  13.320
74129SOL     OW24160  12.298   2.286   3.066
74129SOL    HW124161  12.376   2.260   3.017
74129SOL    HW224162  12.257   2.204   3.093
74130SOL     OW24163  13.186   5.668   5.575
74130SOL    HW124164  13.208   5.594   5.519
74130SOL    HW224165  13.126   5.722   5.523
74131SOL     OW24166   9.061   8.416   3.549
74131SOL    HW124167   9.133   8.366   3.587
74131SOL    HW224168   9.072   8.504   3.584
74132SOL     OW24169  10.372   1.552  12.156
74132SOL    HW124170  10.365   1.464  12.193
74132SOL    HW224171  10.315   1.606  12.212
74133SOL     OW24172  14.013  14.242  14.420
74133SOL    HW124173  14.073  14.215  14.490
74133SOL    HW224174  14.069  14.257  14.344
74134SOL     OW24175   5.145   8.178   8.001
74134SOL    HW124176   5.170   8.086   7.999
74134SOL    HW224177   5.050   8.178   7.989
74135SOL     OW24178  12.097  10.773   2.188
74135SOL    HW124179  12.187  10.800   2.169
74135SOL    HW224180  12.052  10.780   2.104
74136SOL     OW24181   5.286   4.299   0.497
74136SOL    HW124182   5.374   4.324   0.467
74136SOL    HW224183   5.236   4.287   0.417
74137SOL     OW24184  10.479   4.073  13.051
74137SOL    HW124185  10.454   4.165  13.049
74137SOL    HW224186  10.475   4.045  12.959
74138SOL     OW24187   4.120   8.073  11.243
74138SOL    HW124188   4.132   8.091  11.336
74138SOL    HW224189   4.147   7.981  11.233
74139SOL     OW24190  12.241   6.903   1.225
74139SOL    HW124191  12.191   6.838   1.274
74139SOL    HW224192  12.328   6.903   1.265
74140SOL     OW24193  14.221   6.109  13.902
74140SOL    HW124194  14.247   6.026  13.861
74140SOL    HW224195  14.271   6.175  13.855
74141SOL     OW24196   2.798   6.690   7.889
74141SOL    HW124197   2.745   6.737   7.825
74141SOL    HW224198   2.734   6.648   7.946
74142SOL     OW24199   8.404   6.060   3.677
74142SOL    HW124200   8.421   5.967   3.666
74142SOL    HW224201   8.333   6.063   3.741
74143SOL     OW24202  11.496   2.536   5.099
74143SOL    HW124203  11.574   2.546   5.153
74143SOL    HW224204  11.482   2.441   5.094
74144SOL     OW24205  12.807   0.503   6.707
74144SOL    HW124206  12.895   0.539   6.720
74144SOL    HW224207  12.792   0.511   6.613
74145SOL     OW24208   3.386  14.475  10.387
74145SOL    HW124209   3.389  14.381  10.371
74145SOL    HW224210   3.302  14.490  10.429
74146SOL     OW24211   8.029   8.650  12.773
74146SOL    HW124212   7.944   8.648  12.816
74146SOL    HW224213   8.017   8.713  12.701
74147SOL     OW24214   0.179   8.824   2.683
74147SOL    HW124215   0.189   8.814   2.588
74147SOL    HW224216   0.130   8.906   2.693
74148SOL     OW24217   4.813   8.283   3.664
74148SOL    HW124218   4.813   8.345   3.737
74148SOL    HW224219   4.749   8.216   3.689
74149SOL     OW24220   3.433   6.921   7.260
74149SOL    HW124221   3.394   6.835   7.249
74149SOL    HW224222   3.369   6.981   7.221
74150SOL     OW24223   6.950   1.826  11.300
74150SOL    HW124224   7.007   1.880  11.244
74150SOL    HW224225   7.010   1.777  11.356
74151SOL     OW24226  11.242   4.527  13.672
74151SOL    HW124227  11.223   4.440  13.706
74151SOL    HW224228  11.329   4.547  13.704
74152SOL     OW24229  14.543   7.430   8.006
74152SOL    HW124230  14.517   7.412   7.916
74152SOL    HW224231  14.574   7.521   8.004
74153SOL     OW24232  12.539   6.752   6.369
74153SOL    HW124233  12.581   6.720   6.449
74153SOL    HW224234  12.450   6.717   6.374
74154SOL     OW24235   2.506   9.161   4.319
74154SOL    HW124236   2.522   9.242   4.367
74154SOL    HW224237   2.524   9.091   4.382
74155SOL     OW24238   1.126   5.311  11.047
74155SOL    HW124239   1.178   5.334  10.970
74155SOL    HW224240   1.185   5.261  11.102
74156SOL     OW24241   3.100   1.909   0.388
74156SOL    HW124242   3.128   1.999   0.370
74156SOL    HW224243   3.062   1.913   0.476
74157SOL     OW24244   3.093   7.120  13.512
74157SOL    HW124245   3.128   7.059  13.447
74157SOL    HW224246   3.123   7.086  13.596
74158SOL     OW24247   7.645   3.227   8.320
74158SOL    HW124248   7.595   3.264   8.247
74158SOL    HW224249   7.680   3.304   8.366
74159SOL     OW24250   6.091   2.546   3.329
74159SOL    HW124251   6.160   2.509   3.274
74159SOL    HW224252   6.061   2.623   3.281
74160SOL     OW24253  12.254   1.007   2.766
74160SOL    HW124254  12.293   1.019   2.852
74160SOL    HW224255  12.316   0.952   2.718
74161SOL     OW24256   6.508   3.686   9.110
74161SOL    HW124257   6.457   3.686   9.191
74161SOL    HW224258   6.586   3.737   9.132
74162SOL     OW24259   9.344   0.463   4.902
74162SOL    HW124260   9.360   0.525   4.831
74162SOL    HW224261   9.394   0.385   4.876
74163SOL     OW24262   9.286  11.447  12.229
74163SOL    HW124263   9.204  11.421  12.269
74163SOL    HW224264   9.287  11.542  12.235
74164SOL     OW24265  12.419  13.526   7.317
74164SOL    HW124266  12.426  13.585   7.242
74164SOL    HW224267  12.452  13.578   7.391
74165SOL     OW24268  11.313   5.056   5.432
74165SOL    HW124269  11.312   5.131   5.491
74165SOL    HW224270  11.323   4.980   5.491
74166SOL     OW24271   1.274   0.651  11.339
74166SOL    HW124272   1.307   0.664  11.428
74166SOL    HW224273   1.323   0.713  11.285
74167SOL     OW24274   2.598   6.567  13.676
74167SOL    HW124275   2.588   6.650  13.722
74167SOL    HW224276   2.690   6.545  13.685
74168SOL     OW24277   5.533  10.789   4.331
74168SOL    HW124278   5.468  10.771   4.264
74168SOL    HW224279   5.483  10.810   4.409
74169SOL     OW24280   2.875   0.162  14.592
74169SOL    HW124281   2.908   0.249  14.613
74169SOL    HW224282   2.917   0.140  14.508
74170SOL     OW24283   1.021   1.336  12.794
74170SOL    HW124284   1.060   1.422  12.805
74170SOL    HW224285   0.940   1.339  12.845
74171SOL     OW24286  11.127   7.986  12.297
74171SOL    HW124287  11.093   7.897  12.297
74171SOL    HW224288  11.077   8.031  12.228
74172SOL     OW24289  11.581   1.152   3.839
74172SOL    HW124290  11.521   1.142   3.912
74172SOL    HW224291  11.563   1.077   3.783
74173SOL     OW24292  11.423   1.031   0.524
74173SOL    HW124293  11.451   1.103   0.581
74173SOL    HW224294  11.383   0.968   0.583
74174SOL     OW24295   3.745  14.423   3.307
74174SOL    HW124296   3.716  14.392   3.221
74174SOL    HW224297   3.687  14.378   3.369
74175SOL     OW24298  14.835   6.800   2.064
74175SOL    HW124299  14.832   6.860   1.989
74175SOL    HW224300   0.051   6.778   2.072
74176SOL     OW24301   8.257   8.576  14.796
74176SOL    HW124302   8.206   8.601  14.719
74176SOL    HW224303   8.278   8.658  14.839
74177SOL     OW24304  13.669   8.245   3.764
74177SOL    HW124305  13.656   8.244   3.669
74177SOL    HW224306  13.730   8.318   3.779
74178SOL     OW24307  11.255   7.189   7.158
74178SOL    HW124308  11.309   7.242   7.100
74178SOL    HW224309  11.317   7.144   7.215
74179SOL     OW24310  14.868   7.169  10.201
74179SOL    HW124311  14.862   7.095  10.141
74179SOL    HW224312  14.801   7.230  10.170
74180SOL     OW24313   7.836   4.104  10.658
74180SOL    HW124314   7.885   4.173  10.614
74180SOL    HW224315   7.745   4.120  10.633
74181SOL     OW24316   9.807  14.006   0.693
74181SOL    HW124317   9.754  13.928   0.707
74181SOL    HW224318   9.834  14.001   0.602
74182SOL     OW24319   9.658   6.095  13.322
74182SOL    HW124320   9.687   6.172  13.372
74182SOL    HW224321   9.737   6.042  13.312
74183SOL     OW24322   2.747  13.364   7.171
74183SOL    HW124323   2.742  13.281   7.217
74183SOL    HW224324   2.839  13.372   7.145
74184SOL     OW24325   2.203  14.287   8.846
74184SOL    HW124326   2.154  14.307   8.925
74184SOL    HW224327   2.177  14.198   8.823
74185SOL     OW24328   8.342   6.467   9.425
74185SOL    HW124329   8.345   6.472   9.520
74185SOL    HW224330   8.434   6.458   9.398
74186SOL     OW24331   8.797   9.032  11.447
74186SOL    HW124332   8.731   9.094  11.478
74186SOL    HW224333   8.789   9.034  11.352
74187SOL     OW24334   7.798  10.530   3.039
74187SOL    HW124335   7.749  10.610   3.055
74187SOL    HW224336   7.858  10.552   2.968
74188SOL     OW24337   7.198  10.023  14.099
74188SOL    HW124338   7.129   9.961  14.122
74188SOL    HW224339   7.266   9.969  14.058
74189SOL     OW24340  10.169   4.177  14.401
74189SOL    HW124341  10.095   4.156  14.343
74189SOL    HW224342  10.147   4.262  14.438
74190SOL     OW24343  12.270   6.219   6.517
74190SOL    HW124344  12.220   6.176   6.587
74190SOL    HW224345  12.203   6.251   6.457
74191SOL     OW24346   0.462  12.945   7.705
74191SOL    HW124347   0.484  12.969   7.796
74191SOL    HW224348   0.529  12.882   7.680
74192SOL     OW24349   7.826   9.434   1.433
74192SOL    HW124350   7.854   9.515   1.476
74192SOL    HW224351   7.831   9.367   1.501
74193SOL     OW24352  13.297   2.072  12.990
74193SOL    HW124353  13.349   2.012  13.043
74193SOL    HW224354  13.359   2.110  12.928
74194SOL     OW24355   0.428   6.020   1.064
74194SOL    HW124356   0.355   5.967   1.034
74194SOL    HW224357   0.492   6.015   0.994
74195SOL     OW24358   3.210  12.835   6.799
74195SOL    HW124359   3.117  12.816   6.816
74195SOL    HW224360   3.218  12.929   6.816
74196SOL     OW24361   3.728  14.474   6.306
74196SOL    HW124362   3.797  14.476   6.372
74196SOL    HW224363   3.754  14.538   6.240
74197SOL     OW24364  11.109   0.219  12.385
74197SOL    HW124365  11.166   0.229  12.308
74197SOL    HW224366  11.158   0.260  12.456
74198SOL     OW24367   1.631   1.948  10.582
74198SOL    HW124368   1.537   1.958  10.599
74198SOL    HW224369   1.663   2.038  10.576
74199SOL     OW24370  13.002   0.499  11.134
74199SOL    HW124371  13.027   0.531  11.221
74199SOL    HW224372  13.050   0.416  11.124
74200SOL     OW24373   1.497   4.874   6.203
74200SOL    HW124374   1.475   4.965   6.223
74200SOL    HW224375   1.541   4.842   6.281
74201SOL     OW24376   6.623  10.381  11.271
74201SOL    HW124377   6.638  10.327  11.349
74201SOL    HW224378   6.571  10.455  11.303
74202SOL     OW24379   7.302   2.418  12.672
74202SOL    HW124380   7.359   2.433  12.747
74202SOL    HW224381   7.357   2.436  12.596
74203SOL     OW24382   5.670  12.578  10.188
74203SOL    HW124383   5.733  12.599  10.120
74203SOL    HW224384   5.714  12.512  10.242
74204SOL     OW24385  12.810   0.979   7.656
74204SOL    HW124386  12.844   1.067   7.670
74204SOL    HW224387  12.748   0.987   7.583
74205SOL     OW24388   0.551  14.230  10.197
74205SOL    HW124389   0.470  14.282  10.201
74205SOL    HW224390   0.534  14.154  10.252
74206SOL     OW24391   0.675   1.459   8.543
74206SOL    HW124392   0.759   1.478   8.502
74206SOL    HW224393   0.695   1.396   8.612
74207SOL     OW24394   5.210   7.820  13.115
74207SOL    HW124395   5.230   7.740  13.165
74207SOL    HW224396   5.129   7.852  13.155
74208SOL     OW24397  10.598   3.490   5.736
74208SOL    HW124398  10.661   3.543   5.688
74208SOL    HW224399  10.565   3.548   5.804
74209SOL     OW24400   2.267   6.566  12.529
74209SOL    HW124401   2.199   6.628  12.555
74209SOL    HW224402   2.246   6.485  12.575
74210SOL     OW24403   5.897   8.160   9.203
74210SOL    HW124404   5.909   8.139   9.111
74210SOL    HW224405   5.964   8.109   9.249
74211SOL     OW24406  11.963  12.117   1.827
74211SOL    HW124407  11.976  12.208   1.800
74211SOL    HW224408  11.972  12.067   1.746
74212SOL     OW24409   1.295   8.356  13.970
74212SOL    HW124410   1.207   8.345  13.936
74212SOL    HW224411   1.325   8.440  13.935
74213SOL     OW24412   0.317   4.129  14.777
74213SOL    HW124413   0.372   4.199  14.740
74213SOL    HW224414   0.263   4.174  14.842
74214SOL     OW24415  10.712  13.182   2.444
74214SOL    HW124416  10.729  13.088   2.452
74214SOL    HW224417  10.796  13.224   2.459
74215SOL     OW24418   7.912  10.952   2.963
74215SOL    HW124419   8.002  10.975   2.985
74215SOL    HW224420   7.870  11.037   2.945
74216SOL     OW24421  12.616  14.536   5.813
74216SOL    HW124422  12.705  14.551   5.784
74216SOL    HW224423  12.624  14.479   5.890
74217SOL     OW24424  11.907   2.637   6.332
74217SOL    HW124425  11.862   2.608   6.252
74217SOL    HW224426  11.883   2.572   6.398
74218SOL     OW24427  12.799  14.154  11.729
74218SOL    HW124428  12.883  14.157  11.773
74218SOL    HW224429  12.744  14.214  11.779
74219SOL     OW24430   9.719   3.518  10.754
74219SOL    HW124431   9.630   3.553  10.752
74219SOL    HW224432   9.721   3.461  10.831
74220SOL     OW24433   6.857   4.390  13.753
74220SOL    HW124434   6.841   4.296  13.747
74220SOL    HW224435   6.844   4.411  13.846
74221SOL     OW24436   8.788   0.011   0.641
74221SOL    HW124437   8.827  14.850   0.719
74221SOL    HW224438   8.714  14.831   0.620
74222SOL     OW24439  12.299   4.545  14.158
74222SOL    HW124440  12.344   4.522  14.077
74222SOL    HW224441  12.259   4.463  14.187
74223SOL     OW24442   7.219   0.548   7.694
74223SOL    HW124443   7.141   0.493   7.701
74223SOL    HW224444   7.292   0.491   7.719
74224SOL     OW24445   8.897   2.367   2.300
74224SOL    HW124446   8.955   2.294   2.323
74224SOL    HW224447   8.836   2.372   2.374
74225SOL     OW24448  14.747  11.879   0.479
74225SOL    HW124449  14.819  11.939   0.499
74225SOL    HW224450  14.672  11.937   0.465
74226SOL     OW24451   3.055   5.458   8.181
74226SOL    HW124452   3.015   5.378   8.214
74226SOL    HW224453   3.013   5.471   8.095
74227SOL     OW24454   4.167   2.953  11.139
74227SOL    HW124455   4.144   2.893  11.068
74227SOL    HW224456   4.210   3.026  11.095
74228SOL     OW24457   3.313   2.401   3.593
74228SOL    HW124458   3.346   2.479   3.548
74228SOL    HW224459   3.274   2.348   3.523
74229SOL     OW24460  10.160  11.055  10.919
74229SOL    HW124461  10.133  10.974  10.877
74229SOL    HW224462  10.228  11.028  10.981
74230SOL     OW24463  14.171   6.792   9.789
74230SOL    HW124464  14.083   6.754   9.783
74230SOL    HW224465  14.189   6.796   9.882
74231SOL     OW24466  13.157   7.611   2.466
74231SOL    HW124467  13.179   7.700   2.439
74231SOL    HW224468  13.110   7.574   2.390
74232SOL     OW24469   7.482   6.148   7.840
74232SOL    HW124470   7.526   6.121   7.921
74232SOL    HW224471   7.418   6.079   7.823
74233SOL     OW24472   2.521   0.149   5.838
74233SOL    HW124473   2.556   0.101   5.763
74233SOL    HW224474   2.495   0.234   5.803
74234SOL     OW24475  13.071   8.817  11.539
74234SOL    HW124476  13.160   8.807  11.572
74234SOL    HW224477  13.082   8.853  11.451
74235SOL     OW24478   9.133   2.211   9.904
74235SOL    HW124479   9.168   2.159   9.832
74235SOL    HW224480   9.062   2.157   9.940
74236SOL     OW24481  12.653  14.421   7.873
74236SOL    HW124482  12.590  14.470   7.821
74236SOL    HW224483  12.730  14.479   7.877
74237SOL     OW24484   6.428   1.944  11.318
74237SOL    HW124485   6.391   1.954  11.406
74237SOL    HW224486   6.427   2.033  11.282
74238SOL     OW24487  13.643   0.551   9.762
74238SOL    HW124488  13.581   0.568   9.833
74238SOL    HW224489  13.726   0.534   9.806
74239SOL     OW24490   7.029   3.082   9.425
74239SOL    HW124491   7.053   3.074   9.333
74239SOL    HW224492   7.020   3.176   9.440
74240SOL     OW24493  14.211   4.603  13.164
74240SOL    HW124494  14.130   4.575  13.208
74240SOL    HW224495  14.273   4.617  13.235
74241SOL     OW24496   8.145   5.781   2.540
74241SOL    HW124497   8.192   5.706   2.578
74241SOL    HW224498   8.204   5.813   2.471
74242SOL     OW24499   3.005   1.757   2.933
74242SOL    HW124500   3.020   1.775   3.025
74242SOL    HW224501   2.989   1.842   2.894
74243SOL     OW24502   9.748  10.885   4.929
74243SOL    HW124503   9.840  10.858   4.933
74243SOL    HW224504   9.699  10.805   4.947
74244SOL     OW24505  12.177   0.240   0.856
74244SOL    HW124506  12.151   0.324   0.818
74244SOL    HW224507  12.215   0.191   0.783
74245SOL     OW24508   8.623   1.034   9.810
74245SOL    HW124509   8.686   1.044   9.881
74245SOL    HW224510   8.676   1.028   9.731
74246SOL     OW24511   3.620  13.966   5.500
74246SOL    HW124512   3.595  13.881   5.536
74246SOL    HW224513   3.679  14.004   5.566
74247SOL     OW24514  12.922  11.258   9.841
74247SOL    HW124515  12.869  11.186   9.875
74247SOL    HW224516  12.934  11.317   9.916
74248SOL     OW24517   5.449   6.710  14.427
74248SOL    HW124518   5.461   6.618  14.404
74248SOL    HW224519   5.509   6.724  14.500
74249SOL     OW24520   8.997   5.288   9.142
74249SOL    HW124521   8.907   5.258   9.154
74249SOL    HW224522   9.024   5.319   9.229
74250SOL     OW24523  14.224   0.801   4.843
74250SOL    HW124524  14.293   0.738   4.823
74250SOL    HW224525  14.187   0.772   4.926
74251SOL     OW24526   6.986   8.523   6.201
74251SOL    HW124527   7.077   8.535   6.174
74251SOL    HW224528   6.942   8.492   6.122
74252SOL     OW24529  11.703   4.613   9.430
74252SOL    HW124530  11.711   4.559   9.352
74252SOL    HW224531  11.647   4.562   9.489
74253SOL     OW24532   8.783   0.727   7.459
74253SOL    HW124533   8.819   0.638   7.455
74253SOL    HW224534   8.697   0.717   7.498
74254SOL     OW24535   5.480   9.866  11.116
74254SOL    HW124536   5.510   9.881  11.026
74254SOL    HW224537   5.545   9.808  11.154
74255SOL     OW24538   3.121   4.452   6.209
74255SOL    HW124539   3.037   4.486   6.177
74255SOL    HW224540   3.181   4.526   6.203
74256SOL     OW24541  12.480   2.517   0.099
74256SOL    HW124542  12.491   2.541   0.007
74256SOL    HW224543  12.443   2.429   0.098
74257SOL     OW24544   9.111   9.340  13.138
74257SOL    HW124545   9.088   9.425  13.101
74257SOL    HW224546   9.203   9.328  13.115
74258SOL     OW24547   9.897   3.943   1.522
74258SOL    HW124548   9.908   3.861   1.569
74258SOL    HW224549   9.939   3.928   1.437
74259SOL     OW24550   0.993   4.476   4.047
74259SOL    HW124551   1.035   4.409   3.992
74259SOL    HW224552   1.052   4.486   4.122
74260SOL     OW24553   4.449   5.820   0.335
74260SOL    HW124554   4.494   5.737   0.321
74260SOL    HW224555   4.358   5.795   0.350
74261SOL     OW24556   3.578   2.428   8.026
74261SOL    HW124557   3.661   2.406   7.983
74261SOL    HW224558   3.532   2.483   7.964
74262SOL     OW24559   0.521   8.795   1.908
74262SOL    HW124560   0.440   8.766   1.867
74262SOL    HW224561   0.535   8.883   1.874
74263SOL     OW24562   4.485   5.545   8.766
74263SOL    HW124563   4.556   5.544   8.701
74263SOL    HW224564   4.463   5.453   8.779
74264SOL     OW24565   9.651   2.032  13.096
74264SOL    HW124566   9.576   1.978  13.119
74264SOL    HW224567   9.612   2.115  13.067
74265SOL     OW24568   0.575  11.233   9.537
74265SOL    HW124569   0.577  11.298   9.607
74265SOL    HW224570   0.667  11.212   9.521
74266SOL     OW24571  14.514  10.996   2.501
74266SOL    HW124572  14.450  11.065   2.487
74266SOL    HW224573  14.531  10.960   2.414
74267SOL     OW24574  10.862  11.719   6.233
74267SOL    HW124575  10.878  11.632   6.197
74267SOL    HW224576  10.773  11.741   6.205
74268SOL     OW24577   7.133   9.039   1.676
74268SOL    HW124578   7.120   9.086   1.594
74268SOL    HW224579   7.217   9.070   1.710
74269SOL     OW24580  13.887   2.291  10.686
74269SOL    HW124581  13.855   2.216  10.636
74269SOL    HW224582  13.809   2.344  10.702
74270SOL     OW24583   0.091  14.713  12.834
74270SOL    HW124584   0.169  14.689  12.783
74270SOL    HW224585   0.034  14.757  12.771
74271SOL     OW24586  10.279   5.137   8.770
74271SOL    HW124587  10.248   5.160   8.682
74271SOL    HW224588  10.287   5.221   8.815
74272SOL     OW24589  12.819  14.653   5.010
74272SOL    HW124590  12.758  14.591   4.970
74272SOL    HW224591  12.768  14.694   5.080
74273SOL     OW24592  14.605   1.002  10.225
74273SOL    HW124593  14.596   1.043  10.311
74273SOL    HW224594  14.631   1.073  10.166
74274SOL     OW24595   6.583  10.549  12.862
74274SOL    HW124596   6.572  10.490  12.787
74274SOL    HW224597   6.677  10.548  12.880
74275SOL     OW24598   1.398   2.576  12.000
74275SOL    HW124599   1.467   2.510  12.007
74275SOL    HW224600   1.353   2.555  11.918
74276SOL     OW24601  10.203   7.197  11.796
74276SOL    HW124602  10.114   7.166  11.777
74276SOL    HW224603  10.232   7.144  11.870
74277SOL     OW24604   5.473   7.344  12.801
74277SOL    HW124605   5.504   7.420  12.752
74277SOL    HW224606   5.498   7.363  12.892
74278SOL     OW24607  14.722  10.479   6.265
74278SOL    HW124608  14.814  10.481   6.291
74278SOL    HW224609  14.696  10.387   6.278
74279SOL     OW24610   5.176  14.642   5.264
74279SOL    HW124611   5.172  14.728   5.223
74279SOL    HW224612   5.160  14.580   5.192
74280SOL     OW24613   0.430  12.586   3.057
74280SOL    HW124614   0.436  12.491   3.067
74280SOL    HW224615   0.433  12.620   3.146
74281SOL     OW24616   2.444   1.731  12.919
74281SOL    HW124617   2.355   1.721  12.954
74281SOL    HW224618   2.474   1.642  12.904
74282SOL     OW24619   7.529   4.734  14.190
74282SOL    HW124620   7.552   4.641  14.184
74282SOL    HW224621   7.438   4.738  14.160
74283SOL     OW24622   5.593  14.736  10.232
74283SOL    HW124623   5.581  14.685  10.313
74283SOL    HW224624   5.504  14.762  10.208
74284SOL     OW24625  11.231   6.532   6.601
74284SOL    HW124626  11.213   6.552   6.693
74284SOL    HW224627  11.277   6.448   6.604
74285SOL     OW24628   9.162   4.177   6.712
74285SOL    HW124629   9.237   4.117   6.710
74285SOL    HW224630   9.199   4.259   6.745
74286SOL     OW24631   0.308   9.469  12.485
74286SOL    HW124632   0.347   9.408  12.422
74286SOL    HW224633   0.379   9.487  12.548
74287SOL     OW24634  10.149   4.385  12.241
74287SOL    HW124635  10.234   4.343  12.225
74287SOL    HW224636  10.156   4.470  12.199
74288SOL     OW24637   3.374   5.218   1.873
74288SOL    HW124638   3.287   5.242   1.841
74288SOL    HW224639   3.398   5.289   1.932
74289SOL     OW24640   6.286  13.965   6.627
74289SOL    HW124641   6.361  13.907   6.642
74289SOL    HW224642   6.231  13.917   6.565
74290SOL     OW24643   1.669   4.688  14.564
74290SOL    HW124644   1.669   4.627  14.491
74290SOL    HW224645   1.673   4.775  14.524
74291SOL     OW24646   3.756  11.317   0.646
74291SOL    HW124647   3.768  11.312   0.551
74291SOL    HW224648   3.662  11.323   0.658
74292SOL     OW24649  12.543  10.134   3.919
74292SOL    HW124650  12.616  10.154   3.861
74292SOL    HW224651  12.581  10.082   3.990
74293SOL     OW24652   3.484   4.755   5.592
74293SOL    HW124653   3.548   4.702   5.545
74293SOL    HW224654   3.406   4.755   5.537
74294SOL     OW24655  10.114  10.339   7.080
74294SOL    HW124656  10.060  10.397   7.027
74294SOL    HW224657  10.066  10.330   7.162
74295SOL     OW24658  13.710   7.031   9.235
74295SOL    HW124659  13.729   7.085   9.158
74295SOL    HW224660  13.697   7.094   9.306
74296SOL     OW24661  13.817   0.176   0.781
74296SOL    HW124662  13.824   0.253   0.724
74296SOL    HW224663  13.892   0.183   0.840
74297SOL     OW24664   2.877  11.518   3.400
74297SOL    HW124665   2.883  11.605   3.361
74297SOL    HW224666   2.807  11.475   3.352
74298SOL     OW24667   8.930  11.684   8.133
74298SOL    HW124668   8.978  11.766   8.145
74298SOL    HW224669   8.977  11.621   8.188
74299SOL     OW24670   6.709   2.490   4.395
74299SOL    HW124671   6.793   2.478   4.438
74299SOL    HW224672   6.644   2.471   4.464
74300SOL     OW24673   7.279  10.434   3.164
74300SOL    HW124674   7.355  10.491   3.159
74300SOL    HW224675   7.312  10.347   3.141
74301SOL     OW24676   9.935   3.788   4.892
74301SOL    HW124677   9.998   3.817   4.958
74301SOL    HW224678   9.855   3.836   4.912
74302SOL     OW24679   8.445   9.523   4.636
74302SOL    HW124680   8.422   9.461   4.705
74302SOL    HW224681   8.449   9.608   4.680
74303SOL     OW24682   1.564  10.105  12.468
74303SOL    HW124683   1.565  10.011  12.485
74303SOL    HW224684   1.630  10.141  12.527
74304SOL     OW24685  14.173   6.181   5.964
74304SOL    HW124686  14.155   6.109   6.023
74304SOL    HW224687  14.186   6.140   5.878
74305SOL     OW24688   4.203   8.642  12.395
74305SOL    HW124689   4.171   8.616  12.309
74305SOL    HW224690   4.125   8.669  12.443
74306SOL     OW24691  14.335  12.493   3.008
74306SOL    HW124692  14.379  12.481   3.093
74306SOL    HW224693  14.258  12.546   3.028
74307SOL     OW24694   9.819  13.514   5.188
74307SOL    HW124695   9.785  13.425   5.194
74307SOL    HW224696   9.743  13.567   5.165
74308SOL     OW24697   6.581   9.126  12.333
74308SOL    HW124698   6.622   9.198  12.381
74308SOL    HW224699   6.632   9.049  12.357
74309SOL     OW24700   0.265   8.570   9.670
74309SOL    HW124701   0.328   8.522   9.723
74309SOL    HW224702   0.315   8.597   9.592
74310SOL     OW24703  13.371   6.217   5.185
74310SOL    HW124704  13.368   6.312   5.182
74310SOL    HW224705  13.461   6.196   5.207
74311SOL     OW24706  11.732  12.767   0.063
74311SOL    HW124707  11.826  12.784   0.063
74311SOL    HW224708  11.712  12.740  14.851
74312SOL     OW24709   0.305   0.546   8.588
74312SOL    HW124710   0.294   0.630   8.542
74312SOL    HW224711   0.385   0.558   8.639
74313SOL     OW24712   8.250   4.431   0.173
74313SOL    HW124713   8.196   4.483   0.233
74313SOL    HW224714   8.187   4.385   0.118
74314SOL     OW24715   9.929   3.350   5.909
74314SOL    HW124716   9.957   3.258   5.913
74314SOL    HW224717   9.931   3.371   5.816
74315SOL     OW24718   1.928   5.992   1.494
74315SOL    HW124719   1.969   6.078   1.506
74315SOL    HW224720   1.975   5.934   1.553
74316SOL     OW24721   3.155   8.919   9.300
74316SOL    HW124722   3.157   8.879   9.213
74316SOL    HW224723   3.247   8.933   9.322
74317SOL     OW24724   6.894   9.473  14.723
74317SOL    HW124725   6.902   9.458  14.628
74317SOL    HW224726   6.917   9.388  14.762
74318SOL     OW24727  13.289  11.934   6.564
74318SOL    HW124728  13.198  11.919   6.539
74318SOL    HW224729  13.301  11.883   6.644
74319SOL     OW24730  12.755   5.039  11.660
74319SOL    HW124731  12.744   5.083  11.744
74319SOL    HW224732  12.677   4.985  11.651
74320SOL     OW24733   6.918   6.826   9.299
74320SOL    HW124734   6.975   6.849   9.227
74320SOL    HW224735   6.974   6.827   9.376
74321SOL     OW24736   0.878  14.525  13.692
74321SOL    HW124737   0.913  14.600  13.740
74321SOL    HW224738   0.920  14.449  13.732
74322SOL     OW24739   7.226  12.276   3.482
74322SOL    HW124740   7.201  12.367   3.463
74322SOL    HW224741   7.299  12.284   3.544
74323SOL     OW24742  11.903  14.401   1.069
74323SOL    HW124743  11.990  14.372   1.095
74323SOL    HW224744  11.913  14.429   0.978
74324SOL     OW24745   2.218  11.222   0.901
74324SOL    HW124746   2.218  11.313   0.930
74324SOL    HW224747   2.263  11.174   0.971
74325SOL     OW24748  10.936  14.334   1.215
74325SOL    HW124749  10.962  14.342   1.307
74325SOL    HW224750  11.005  14.379   1.166
74326SOL     OW24751  14.301   5.550   5.146
74326SOL    HW124752  14.261   5.620   5.094
74326SOL    HW224753  14.227   5.495   5.171
74327SOL     OW24754  14.118   1.739   7.130
74327SOL    HW124755  14.026   1.763   7.121
74327SOL    HW224756  14.163   1.792   7.064
74328SOL     OW24757  12.921   7.449  13.565
74328SOL    HW124758  12.942   7.542  13.563
74328SOL    HW224759  12.998   7.407  13.603
74329SOL     OW24760   2.280   4.389   5.823
74329SOL    HW124761   2.203   4.433   5.788
74329SOL    HW224762   2.338   4.379   5.748
74330SOL     OW24763   1.487   8.542  12.798
74330SOL    HW124764   1.401   8.502  12.784
74330SOL    HW224765   1.532   8.482  12.858
74331SOL     OW24766   7.618   4.208   5.268
74331SOL    HW124767   7.680   4.281   5.266
74331SOL    HW224768   7.663   4.137   5.223
74332SOL     OW24769   2.771  10.264   0.992
74332SOL    HW124770   2.867  10.262   1.002
74332SOL    HW224771   2.748  10.176   0.962
74333SOL     OW24772  12.715   1.829   0.330
74333SOL    HW124773  12.646   1.873   0.280
74333SOL    HW224774  12.703   1.736   0.311
74334SOL     OW24775   1.305   6.330  11.130
74334SOL    HW124776   1.384   6.285  11.161
74334SOL    HW224777   1.246   6.330  11.205
74335SOL     OW24778   8.659   1.810  11.352
74335SOL    HW124779   8.573   1.842  11.326
74335SOL    HW224780   8.642   1.752  11.426
74336SOL     OW24781  10.486   0.008   9.650
74336SOL    HW124782  10.565   0.044   9.609
74336SOL    HW224783  10.499   0.021   9.744
74337SOL     OW24784   2.366   1.406  12.276
74337SOL    HW124785   2.408   1.397  12.190
74337SOL    HW224786   2.431   1.452  12.329
74338SOL     OW24787   8.666  11.246  10.615
74338SOL    HW124788   8.671  11.200  10.699
74338SOL    HW224789   8.717  11.326  10.629
74339SOL     OW24790   2.914   9.131   1.306
74339SOL    HW124791   2.879   9.163   1.390
74339SOL    HW224792   2.900   9.037   1.309
74340SOL     OW24793   2.153   6.331   2.315
74340SOL    HW124794   2.083   6.332   2.381
74340SOL    HW224795   2.160   6.238   2.290
74341SOL     OW24796   4.579   0.390  11.121
74341SOL    HW124797   4.507   0.345  11.077
74341SOL    HW224798   4.554   0.482  11.122
74342SOL     OW24799  13.623  13.018   0.650
74342SOL    HW124800  13.600  13.070   0.727
74342SOL    HW224801  13.539  12.998   0.608
74343SOL     OW24802   5.605   5.202   6.923
74343SOL    HW124803   5.679   5.247   6.962
74343SOL    HW224804   5.530   5.225   6.978
74344SOL     OW24805  10.724  10.698  11.376
74344SOL    HW124806  10.659  10.630  11.362
74344SOL    HW224807  10.782  10.691  11.300
74345SOL     OW24808   7.554   0.173  13.964
74345SOL    HW124809   7.558   0.112  14.038
74345SOL    HW224810   7.583   0.121  13.889
74346SOL     OW24811   2.257   8.634  12.286
74346SOL    HW124812   2.239   8.578  12.361
74346SOL    HW224813   2.278   8.573  12.215
74347SOL     OW24814   7.053   0.855   0.183
74347SOL    HW124815   7.005   0.823   0.106
74347SOL    HW224816   7.074   0.776   0.233
74348SOL     OW24817  12.274   5.015  14.347
74348SOL    HW124818  12.230   4.976  14.422
74348SOL    HW224819  12.367   5.011  14.369
74349SOL     OW24820   9.593   1.857  14.516
74349SOL    HW124821   9.541   1.925  14.559
74349SOL    HW224822   9.574   1.777  14.566
74350SOL     OW24823   6.998   7.031   2.581
74350SOL    HW124824   6.931   7.076   2.633
74350SOL    HW224825   7.077   7.035   2.635
74351SOL     OW24826  10.231   0.223   9.573
74351SOL    HW124827  10.142   0.245   9.598
74351SOL    HW224828  10.280   0.222   9.656
74352SOL     OW24829  13.729   1.869   6.823
74352SOL    HW124830  13.662   1.838   6.762
74352SOL    HW224831  13.807   1.881   6.767
74353SOL     OW24832  10.815   4.479  10.775
74353SOL    HW124833  10.765   4.502  10.697
74353SOL    HW224834  10.813   4.383  10.777
74354SOL     OW24835   0.076   7.586   0.480
74354SOL    HW124836   0.101   7.675   0.504
74354SOL    HW224837   0.033   7.551   0.558
74355SOL     OW24838   1.944   4.998   2.782
74355SOL    HW124839   1.909   5.086   2.787
74355SOL    HW224840   2.018   5.005   2.721
74356SOL     OW24841  11.168   1.058   4.268
74356SOL    HW124842  11.244   1.061   4.325
74356SOL    HW224843  11.149   0.964   4.259
74357SOL     OW24844   8.242   4.786   4.023
74357SOL    HW124845   8.158   4.796   4.067
74357SOL    HW224846   8.294   4.861   4.052
74358SOL     OW24847  11.116   7.973  14.297
74358SOL    HW124848  11.082   7.977  14.386
74358SOL    HW224849  11.146   7.883  14.287
74359SOL     OW24850  11.851   6.307   3.470
74359SOL    HW124851  11.811   6.222   3.487
74359SOL    HW224852  11.817   6.364   3.538
74360SOL     OW24853   0.258  14.632   2.838
74360SOL    HW124854   0.332  14.616   2.896
74360SOL    HW224855   0.184  14.647   2.897
74361SOL     OW24856  11.901   6.822   4.075
74361SOL    HW124857  11.819   6.814   4.027
74361SOL    HW224858  11.949   6.741   4.055
74362SOL     OW24859  11.928  11.695   0.054
74362SOL    HW124860  12.016  11.723   0.030
74362SOL    HW224861  11.938  11.604   0.083
74363SOL     OW24862  11.805   6.805   2.130
74363SOL    HW124863  11.884   6.857   2.146
74363SOL    HW224864  11.839   6.723   2.094
74364SOL     OW24865   1.359  11.511   7.551
74364SOL    HW124866   1.316  11.569   7.614
74364SOL    HW224867   1.452  11.535   7.555
74365SOL     OW24868   1.558   3.685  11.270
74365SOL    HW124869   1.506   3.688  11.350
74365SOL    HW224870   1.649   3.693  11.301
74366SOL     OW24871  14.204  10.518   1.101
74366SOL    HW124872  14.164  10.518   1.014
74366SOL    HW224873  14.185  10.604   1.137
74367SOL     OW24874  10.790  12.503  13.641
74367SOL    HW124875  10.761  12.417  13.610
74367SOL    HW224876  10.878  12.513  13.605
74368SOL     OW24877   8.141   0.895  11.927
74368SOL    HW124878   8.202   0.925  11.860
74368SOL    HW224879   8.197   0.867  12.000
74369SOL     OW24880   3.102  14.703   1.686
74369SOL    HW124881   3.166  14.736   1.622
74369SOL    HW224882   3.132  14.615   1.707
74370SOL     OW24883   0.568  10.813  11.244
74370SOL    HW124884   0.538  10.725  11.223
74370SOL    HW224885   0.488  10.866  11.248
74371SOL     OW24886   6.049   7.685  10.520
74371SOL    HW124887   6.018   7.601  10.555
74371SOL    HW224888   6.021   7.684  10.429
74372SOL     OW24889   2.711  10.917   5.685
74372SOL    HW124890   2.719  10.851   5.754
74372SOL    HW224891   2.655  10.877   5.619
74373SOL     OW24892  10.833  10.347   4.789
74373SOL    HW124893  10.851  10.406   4.863
74373SOL    HW224894  10.818  10.262   4.830
74374SOL     OW24895   2.449   4.443   5.610
74374SOL    HW124896   2.478   4.362   5.568
74374SOL    HW224897   2.524   4.472   5.661
74375SOL     OW24898  13.544   7.242   8.679
74375SOL    HW124899  13.512   7.214   8.764
74375SOL    HW224900  13.621   7.296   8.698
74376SOL     OW24901  13.376  13.922   1.632
74376SOL    HW124902  13.362  13.836   1.670
74376SOL    HW224903  13.302  13.935   1.574
74377SOL     OW24904   9.123   9.974   7.180
74377SOL    HW124905   9.092   9.894   7.137
74377SOL    HW224906   9.215   9.957   7.199
74378SOL     OW24907   3.405  13.981  12.060
74378SOL    HW124908   3.401  13.966  11.965
74378SOL    HW224909   3.487  13.939  12.087
74379SOL     OW24910   2.997   2.471   9.701
74379SOL    HW124911   3.071   2.411   9.711
74379SOL    HW224912   3.009   2.512   9.616
74380SOL     OW24913   1.614  10.031   5.472
74380SOL    HW124914   1.589  10.092   5.541
74380SOL    HW224915   1.681  10.078   5.422
74381SOL     OW24916   7.355  12.139   8.381
74381SOL    HW124917   7.337  12.112   8.291
74381SOL    HW224918   7.318  12.069   8.435
74382SOL     OW24919   0.394   6.860   5.550
74382SOL    HW124920   0.416   6.785   5.606
74382SOL    HW224921   0.381   6.822   5.464
74383SOL     OW24922   2.505   7.240   1.048
74383SOL    HW124923   2.559   7.317   1.028
74383SOL    HW224924   2.420   7.260   1.010
74384SOL     OW24925   0.540  13.352   3.487
74384SOL    HW124926   0.609  13.321   3.546
74384SOL    HW224927   0.524  13.278   3.428
74385SOL     OW24928   1.005   2.220  12.382
74385SOL    HW124929   0.943   2.294  12.387
74385SOL    HW224930   0.949   2.143  12.375
74386SOL     OW24931   7.374   7.452  12.307
74386SOL    HW124932   7.467   7.430  12.313
74386SOL    HW224933   7.357   7.461  12.213
74387SOL     OW24934   9.319  11.488   0.671
74387SOL    HW124935   9.305  11.419   0.737
74387SOL    HW224936   9.373  11.445   0.604
74388SOL     OW24937   3.392   3.233   0.978
74388SOL    HW124938   3.466   3.286   1.007
74388SOL    HW224939   3.314   3.286   1.000
74389SOL     OW24940  13.378  13.596  10.768
74389SOL    HW124941  13.351  13.504  10.770
74389SOL    HW224942  13.304  13.644  10.803
74390SOL     OW24943   7.863  10.749  14.069
74390SOL    HW124944   7.839  10.700  13.990
74390SOL    HW224945   7.803  10.824  14.070
74391SOL     OW24946  10.749   2.798  13.387
74391SOL    HW124947  10.799   2.719  13.369
74391SOL    HW224948  10.708   2.782  13.473
74392SOL     OW24949   2.704   6.933   9.137
74392SOL    HW124950   2.683   6.905   9.047
74392SOL    HW224951   2.733   7.024   9.127
74393SOL     OW24952  12.820   9.265   2.999
74393SOL    HW124953  12.752   9.226   3.054
74393SOL    HW224954  12.814   9.219   2.916
74394SOL     OW24955  12.674   3.459   3.098
74394SOL    HW124956  12.747   3.417   3.143
74394SOL    HW224957  12.597   3.436   3.150
74395SOL     OW24958   5.607  14.657   6.221
74395SOL    HW124959   5.574  14.575   6.183
74395SOL    HW224960   5.592  14.647   6.315
74396SOL     OW24961  11.773   4.165   3.564
74396SOL    HW124962  11.833   4.116   3.508
74396SOL    HW224963  11.708   4.100   3.592
74397SOL     OW24964   5.995   4.238  13.356
74397SOL    HW124965   5.919   4.268  13.406
74397SOL    HW224966   5.959   4.177  13.291
74398SOL     OW24967   6.883  14.272  14.226
74398SOL    HW124968   6.879  14.301  14.317
74398SOL    HW224969   6.977  14.261  14.208
74399SOL     OW24970  13.614   9.233   9.616
74399SOL    HW124971  13.679   9.268   9.556
74399SOL    HW224972  13.530   9.264   9.581
74400SOL     OW24973   5.775  12.002  13.286
74400SOL    HW124974   5.867  11.978  13.277
74400SOL    HW224975   5.728  11.936  13.236
74401SOL     OW24976  10.166  12.787  12.493
74401SOL    HW124977  10.091  12.742  12.532
74401SOL    HW224978  10.192  12.730  12.421
74402SOL     OW24979   3.937   4.169  12.078
74402SOL    HW124980   3.976   4.088  12.111
74402SOL    HW224981   3.992   4.239  12.113
74403SOL     OW24982   9.060   8.208   5.723
74403SOL    HW124983   9.064   8.248   5.810
74403SOL    HW224984   9.099   8.273   5.665
74404SOL     OW24985   0.215   7.420   1.722
74404SOL    HW124986   0.186   7.491   1.780
74404SOL    HW224987   0.310   7.424   1.725
74405SOL     OW24988  13.170  12.026   4.686
74405SOL    HW124989  13.117  12.102   4.660
74405SOL    HW224990  13.112  11.951   4.674
74406SOL     OW24991   6.324   1.628  13.843
74406SOL    HW124992   6.412   1.657  13.869
74406SOL    HW224993   6.266   1.698  13.870
74407SOL     OW24994  10.952  11.142   0.346
74407SOL    HW124995  10.902  11.166   0.267
74407SOL    HW224996  10.888  11.147   0.417
74408SOL     OW24997  13.638   9.934  12.708
74408SOL    HW124998  13.668   9.910  12.620
74408SOL    HW224999  13.718   9.946  12.758
74409SOL     OW25000   1.968   2.251  11.422
74409SOL    HW125001   1.968   2.228  11.515
74409SOL    HW225002   2.003   2.173  11.378
74410SOL     OW25003  11.005  11.645   5.526
74410SOL    HW125004  11.002  11.568   5.583
74410SOL    HW225005  11.011  11.609   5.437
74411SOL     OW25006   1.441   5.438   8.257
74411SOL    HW125007   1.352   5.449   8.290
74411SOL    HW225008   1.485   5.383   8.321
74412SOL     OW25009   6.953   0.691   4.770
74412SOL    HW125010   6.993   0.609   4.799
74412SOL    HW225011   7.024   0.755   4.772
74413SOL     OW25012   2.161  13.860   7.463
74413SOL    HW125013   2.232  13.798   7.446
74413SOL    HW225014   2.191  13.913   7.537
74414SOL     OW25015   8.742   7.269  12.640
74414SOL    HW125016   8.751   7.177  12.664
74414SOL    HW225017   8.778   7.317  12.714
74415SOL     OW25018  13.133  13.867  12.700
74415SOL    HW125019  13.218  13.911  12.703
74415SOL    HW225020  13.140  13.798  12.766
74416SOL     OW25021  11.154   9.130   6.377
74416SOL    HW125022  11.231   9.170   6.336
74416SOL    HW225023  11.087   9.133   6.309
74417SOL     OW25024  12.589  12.699   3.672
74417SOL    HW125025  12.582  12.605   3.659
74417SOL    HW225026  12.642  12.708   3.752
74418SOL     OW25027   5.793   5.060   1.591
74418SOL    HW125028   5.732   5.105   1.532
74418SOL    HW225029   5.742   4.988   1.627
74419SOL     OW25030   7.274   1.505   4.472
74419SOL    HW125031   7.190   1.544   4.497
74419SOL    HW225032   7.277   1.513   4.377
74420SOL     OW25033   5.153  10.830  10.301
74420SOL    HW125034   5.103  10.759  10.340
74420SOL    HW225035   5.100  10.858  10.226
74421SOL     OW25036   2.328  12.332   7.825
74421SOL    HW125037   2.332  12.241   7.853
74421SOL    HW225038   2.367  12.333   7.738
74422SOL     OW25039   1.624   5.414   7.629
74422SOL    HW125040   1.672   5.495   7.642
74422SOL    HW225041   1.668   5.350   7.685
74423SOL     OW25042   9.553   1.059  11.386
74423SOL    HW125043   9.597   1.144  11.382
74423SOL    HW225044   9.461   1.080  11.402
74424SOL     OW25045   0.333  13.815  14.687
74424SOL    HW125046   0.344  13.743  14.624
74424SOL    HW225047   0.380  13.786  14.765
74425SOL     OW25048  11.789   6.273   4.979
74425SOL    HW125049  11.800   6.178   4.983
74425SOL    HW225050  11.864   6.308   5.028
74426SOL     OW25051  12.391  11.611  14.806
74426SOL    HW125052  12.394  11.600  14.711
74426SOL    HW225053  12.441  11.537  14.841
74427SOL     OW25054  12.806   8.052  13.722
74427SOL    HW125055  12.880   8.101  13.686
74427SOL    HW225056  12.729   8.099  13.692
74428SOL     OW25057   2.153   4.831  10.645
74428SOL    HW125058   2.079   4.775  10.666
74428SOL    HW225059   2.122   4.920  10.662
74429SOL     OW25060   3.119   3.821   6.829
74429SOL    HW125061   3.152   3.739   6.792
74429SOL    HW225062   3.083   3.868   6.754
74430SOL     OW25063   5.577   9.903  10.860
74430SOL    HW125064   5.529   9.861  10.789
74430SOL    HW225065   5.663   9.922  10.823
74431SOL     OW25066   8.829   7.375   1.624
74431SOL    HW125067   8.898   7.368   1.691
74431SOL    HW225068   8.756   7.418   1.669
74432SOL     OW25069   9.343   9.705   9.332
74432SOL    HW125070   9.298   9.781   9.368
74432SOL    HW225071   9.375   9.657   9.408
74433SOL     OW25072   9.352   3.918   9.852
74433SOL    HW125073   9.277   3.949   9.801
74433SOL    HW225074   9.340   3.957   9.939
74434SOL     OW25075   8.659   5.215   7.721
74434SOL    HW125076   8.697   5.181   7.640
74434SOL    HW225077   8.734   5.230   7.778
74435SOL     OW25078   4.819  12.793   9.718
74435SOL    HW125079   4.791  12.703   9.734
74435SOL    HW225080   4.913  12.794   9.738
74436SOL     OW25081   9.604  11.412   7.676
74436SOL    HW125082   9.584  11.374   7.590
74436SOL    HW225083   9.608  11.506   7.660
74437SOL     OW25084   7.373   1.805   7.450
74437SOL    HW125085   7.419   1.876   7.405
74437SOL    HW225086   7.319   1.764   7.383
74438SOL     OW25087  11.789   8.943   1.622
74438SOL    HW125088  11.701   8.940   1.587
74438SOL    HW225089  11.792   9.024   1.673
74439SOL     OW25090   1.366   9.830   1.213
74439SOL    HW125091   1.327   9.771   1.147
74439SOL    HW225092   1.291   9.858   1.266
74440SOL     OW25093  11.808  11.199   0.861
74440SOL    HW125094  11.728  11.184   0.910
74440SOL    HW225095  11.801  11.290   0.831
74441SOL     OW25096   3.918   5.662   0.863
74441SOL    HW125097   3.838   5.615   0.887
74441SOL    HW225098   3.947   5.704   0.944
74442SOL     OW25099   1.882  14.855   7.683
74442SOL    HW125100   1.846   0.061   7.655
74442SOL    HW225101   1.935  14.876   7.760
74443SOL     OW25102   3.722  10.616   9.568
74443SOL    HW125103   3.722  10.537   9.514
74443SOL    HW225104   3.797  10.605   9.626
74444SOL     OW25105   9.024   8.197   6.871
74444SOL    HW125106   9.076   8.222   6.794
74444SOL    HW225107   9.089   8.162   6.933
74445SOL     OW25108   8.887   2.066   9.977
74445SOL    HW125109   8.945   2.018  10.036
74445SOL    HW225110   8.801   2.061  10.017
74446SOL     OW25111   5.609   1.576   2.956
74446SOL    HW125112   5.623   1.512   3.026
74446SOL    HW225113   5.591   1.658   3.002
74447SOL     OW25114   5.112   3.576   2.680
74447SOL    HW125115   5.067   3.533   2.607
74447SOL    HW225116   5.053   3.565   2.755
74448SOL     OW25117   5.714   1.051  13.439
74448SOL    HW125118   5.662   0.972  13.455
74448SOL    HW225119   5.736   1.047  13.346
74449SOL     OW25120  10.722   5.361   0.155
74449SOL    HW125121  10.708   5.437   0.212
74449SOL    HW225122  10.716   5.397   0.066
74450SOL     OW25123   3.867   2.751   8.268
74450SOL    HW125124   3.837   2.809   8.338
74450SOL    HW225125   3.941   2.796   8.229
74451SOL     OW25126   9.260   7.193   2.844
74451SOL    HW125127   9.202   7.117   2.835
74451SOL    HW225128   9.347   7.159   2.824
74452SOL     OW25129   7.308   2.563  10.082
74452SOL    HW125130   7.398   2.552  10.053
74452SOL    HW225131   7.307   2.650  10.124
74453SOL     OW25132   5.368   9.542   8.421
74453SOL    HW125133   5.416   9.566   8.342
74453SOL    HW225134   5.278   9.573   8.405
74454SOL     OW25135   3.653  10.881   7.695
74454SOL    HW125136   3.748  10.867   7.702
74454SOL    HW225137   3.645  10.972   7.667
74455SOL     OW25138   5.723   6.553   1.038
74455SOL    HW125139   5.758   6.626   0.987
74455SOL    HW225140   5.659   6.513   0.980
74456SOL     OW25141   2.651   9.675   1.865
74456SOL    HW125142   2.618   9.761   1.838
74456SOL    HW225143   2.618   9.663   1.954
74457SOL     OW25144   3.534   7.692   9.653
74457SOL    HW125145   3.566   7.612   9.612
74457SOL    HW225146   3.501   7.663   9.739
74458SOL     OW25147   6.561   7.290   4.617
74458SOL    HW125148   6.523   7.312   4.532
74458SOL    HW225149   6.618   7.215   4.600
74459SOL     OW25150  12.637   2.859   8.518
74459SOL    HW125151  12.627   2.764   8.529
74459SOL    HW225152  12.731   2.871   8.503
74460SOL     OW25153  10.838   1.139   8.287
74460SOL    HW125154  10.795   1.080   8.349
74460SOL    HW225155  10.790   1.127   8.205
74461SOL     OW25156   4.166  13.720  12.405
74461SOL    HW125157   4.249  13.753  12.440
74461SOL    HW225158   4.103  13.733  12.476
74462SOL     OW25159   6.688  11.174   2.289
74462SOL    HW125160   6.615  11.113   2.296
74462SOL    HW225161   6.649  11.254   2.253
74463SOL     OW25162   4.421   5.984   3.455
74463SOL    HW125163   4.479   6.060   3.465
74463SOL    HW225164   4.462   5.931   3.387
74464SOL     OW25165   1.590  14.050  10.165
74464SOL    HW125166   1.647  14.026  10.092
74464SOL    HW225167   1.515  13.992  10.158
74465SOL     OW25168   5.054   3.918   6.357
74465SOL    HW125169   4.968   3.900   6.395
74465SOL    HW225170   5.106   3.951   6.430
74466SOL     OW25171   1.000  11.551  10.840
74466SOL    HW125172   0.988  11.643  10.865
74466SOL    HW225173   1.013  11.505  10.923
74467SOL     OW25174  11.975   9.258   4.315
74467SOL    HW125175  11.951   9.263   4.407
74467SOL    HW225176  12.070   9.272   4.314
74468SOL     OW25177   9.670   4.994   3.579
74468SOL    HW125178   9.755   4.963   3.547
74468SOL    HW225179   9.672   4.976   3.673
74469SOL     OW25180   5.545   1.266   3.431
74469SOL    HW125181   5.511   1.179   3.411
74469SOL    HW225182   5.505   1.289   3.515
74470SOL     OW25183  11.507  10.064   3.220
74470SOL    HW125184  11.433  10.121   3.195
74470SOL    HW225185  11.522  10.083   3.312
74471SOL     OW25186   0.258   7.106  10.343
74471SOL    HW125187   0.308   7.051  10.283
74471SOL    HW225188   0.167   7.091  10.317
74472SOL     OW25189   2.846  12.485   1.122
74472SOL    HW125190   2.892  12.428   1.061
74472SOL    HW225191   2.772  12.433   1.153
74473SOL     OW25192  14.200   0.750  10.164
74473SOL    HW125193  14.249   0.832  10.158
74473SOL    HW225194  14.226   0.712  10.248
74474SOL     OW25195   5.612   8.355   7.120
74474SOL    HW125196   5.559   8.397   7.187
74474SOL    HW225197   5.663   8.426   7.082
74475SOL     OW25198   3.959   3.575  13.505
74475SOL    HW125199   3.945   3.484  13.480
74475SOL    HW225200   3.996   3.616  13.426
74476SOL     OW25201  14.065   6.251   3.419
74476SOL    HW125202  13.989   6.221   3.469
74476SOL    HW225203  14.113   6.171   3.398
74477SOL     OW25204   8.109   9.851  12.307
74477SOL    HW125205   8.037   9.811  12.356
74477SOL    HW225206   8.066   9.909  12.244
74478SOL     OW25207   1.225   5.158   4.755
74478SOL    HW125208   1.174   5.157   4.674
74478SOL    HW225209   1.316   5.157   4.725
74479SOL     OW25210   9.860  12.892   9.345
74479SOL    HW125211   9.869  12.971   9.398
74479SOL    HW225212   9.876  12.820   9.407
74480SOL     OW25213  13.199   2.012   6.604
74480SOL    HW125214  13.192   1.942   6.670
74480SOL    HW225215  13.236   1.969   6.527
74481SOL     OW25216   5.231   1.760   0.823
74481SOL    HW125217   5.145   1.759   0.866
74481SOL    HW225218   5.212   1.782   0.732
74482SOL     OW25219  12.278   6.881  11.954
74482SOL    HW125220  12.360   6.846  11.918
74482SOL    HW225221  12.274   6.845  12.043
74483SOL     OW25222  13.439   3.554   1.424
74483SOL    HW125223  13.493   3.514   1.492
74483SOL    HW225224  13.352   3.516   1.437
74484SOL     OW25225   1.934   9.412   8.539
74484SOL    HW125226   1.859   9.456   8.501
74484SOL    HW225227   1.935   9.440   8.630
74485SOL     OW25228  13.717   9.816   2.777
74485SOL    HW125229  13.780   9.868   2.726
74485SOL    HW225230  13.711   9.733   2.729
74486SOL     OW25231  14.117  11.054   3.483
74486SOL    HW125232  14.204  11.018   3.465
74486SOL    HW225233  14.112  11.133   3.430
74487SOL     OW25234   3.341  12.223   6.210
74487SOL    HW125235   3.343  12.317   6.196
74487SOL    HW225236   3.263  12.193   6.163
74488SOL     OW25237   1.917  14.757   5.689
74488SOL    HW125238   1.831  14.796   5.704
74488SOL    HW225239   1.914  14.673   5.736
74489SOL     OW25240  14.539   9.170   3.026
74489SOL    HW125241  14.549   9.217   2.944
74489SOL    HW225242  14.504   9.235   3.088
74490SOL     OW25243  14.137   5.550   8.294
74490SOL    HW125244  14.091   5.622   8.252
74490SOL    HW225245  14.086   5.472   8.270
74491SOL     OW25246  13.938  12.311   8.568
74491SOL    HW125247  13.849  12.347   8.571
74491SOL    HW225248  13.939  12.245   8.637
74492SOL     OW25249   4.059  14.407   5.943
74492SOL    HW125250   4.017  14.349   5.879
74492SOL    HW225251   4.007  14.396   6.022
74493SOL     OW25252  13.950   2.624   2.229
74493SOL    HW125253  13.879   2.584   2.178
74493SOL    HW225254  14.030   2.590   2.189
74494SOL     OW25255   2.665   1.153   1.267
74494SOL    HW125256   2.574   1.181   1.254
74494SOL    HW225257   2.714   1.235   1.276
74495SOL     OW25258   0.787  10.208  13.256
74495SOL    HW125259   0.756  10.186  13.168
74495SOL    HW225260   0.745  10.292  13.275
74496SOL     OW25261   1.685   6.058  12.991
74496SOL    HW125262   1.737   6.038  12.913
74496SOL    HW225263   1.627   6.129  12.963
74497SOL     OW25264  11.470  12.213   0.696
74497SOL    HW125265  11.535  12.202   0.765
74497SOL    HW225266  11.486  12.301   0.661
74498SOL     OW25267  14.868   6.450   0.991
74498SOL    HW125268  14.776   6.425   1.002
74498SOL    HW225269  14.870   6.544   1.008
74499SOL     OW25270  10.165   5.901   6.031
74499SOL    HW125271  10.225   5.930   6.100
74499SOL    HW225272  10.106   5.840   6.076
74500SOL     OW25273   6.988   4.497  11.897
74500SOL    HW125274   7.001   4.428  11.962
74500SOL    HW225275   6.902   4.479  11.860
74501SOL     OW25276   3.236   5.081   6.067
74501SOL    HW125277   3.316   5.083   6.015
74501SOL    HW225278   3.254   5.019   6.137
74502SOL     OW25279   1.222   9.310  13.142
74502SOL    HW125280   1.242   9.392  13.097
74502SOL    HW225281   1.215   9.335  13.234
74503SOL     OW25282   1.966   0.168  10.080
74503SOL    HW125283   2.013   0.141  10.001
74503SOL    HW225284   2.017   0.130  10.152
74504SOL     OW25285   8.648   8.092  11.925
74504SOL    HW125286   8.654   8.146  11.845
74504SOL    HW225287   8.670   8.152  11.996
74505SOL     OW25288   9.395   6.022  13.430
74505SOL    HW125289   9.469   6.058  13.381
74505SOL    HW225290   9.360   6.097  13.479
74506SOL     OW25291   7.472  11.009   3.536
74506SOL    HW125292   7.472  11.070   3.462
74506SOL    HW225293   7.507  11.059   3.609
74507SOL     OW25294  12.401  13.648   8.679
74507SOL    HW125295  12.419  13.703   8.755
74507SOL    HW225296  12.359  13.707   8.616
74508SOL     OW25297  13.803   9.925   8.324
74508SOL    HW125298  13.891   9.889   8.330
74508SOL    HW225299  13.802   9.973   8.241
74509SOL     OW25300  14.342  12.543   1.506
74509SOL    HW125301  14.291  12.465   1.527
74509SOL    HW225302  14.277  12.613   1.498
74510SOL     OW25303  11.345  13.918   0.432
74510SOL    HW125304  11.378  13.906   0.521
74510SOL    HW225305  11.356  14.012   0.415
74511SOL     OW25306  11.344   7.760   9.476
74511SOL    HW125307  11.393   7.759   9.394
74511SOL    HW225308  11.355   7.849   9.510
74512SOL     OW25309   7.581   3.505  10.261
74512SOL    HW125310   7.519   3.533  10.194
74512SOL    HW225311   7.539   3.529  10.344
74513SOL     OW25312  14.247   9.463   3.356
74513SOL    HW125313  14.270   9.555   3.340
74513SOL    HW225314  14.162   9.467   3.400
74514SOL     OW25315  12.486   8.682   1.946
74514SOL    HW125316  12.554   8.631   1.991
74514SOL    HW225317  12.444   8.732   2.015
74515SOL     OW25318   0.015   7.343   3.660
74515SOL    HW125319   0.031   7.419   3.715
74515SOL    HW225320  14.826   7.293   3.707
74516SOL     OW25321   8.460   5.918   2.185
74516SOL    HW125322   8.370   5.918   2.217
74516SOL    HW225323   8.502   5.845   2.230
74517SOL     OW25324  10.181   5.352   3.462
74517SOL    HW125325  10.131   5.433   3.465
74517SOL    HW225326  10.198   5.337   3.368
74518SOL     OW25327   3.228   2.836  10.973
74518SOL    HW125328   3.309   2.785  10.969
74518SOL    HW225329   3.216   2.868  10.883
74519SOL     OW25330  13.513   0.311   4.844
74519SOL    HW125331  13.509   0.335   4.752
74519SOL    HW225332  13.487   0.391   4.891
74520SOL     OW25333   8.297   8.360  11.304
74520SOL    HW125334   8.289   8.276  11.349
74520SOL    HW225335   8.381   8.395  11.333
74521SOL     OW25336  12.700  11.454   3.381
74521SOL    HW125337  12.612  11.445   3.417
74521SOL    HW225338  12.702  11.394   3.306
74522SOL     OW25339   4.012   9.415   1.378
74522SOL    HW125340   3.940   9.363   1.341
74522SOL    HW225341   4.088   9.357   1.374
74523SOL     OW25342   3.047  11.016   9.833
74523SOL    HW125343   2.954  11.010   9.857
74523SOL    HW225344   3.050  10.986   9.742
74524SOL     OW25345   1.987   2.147  14.686
74524SOL    HW125346   2.005   2.231  14.643
74524SOL    HW225347   1.893   2.148  14.702
74525SOL     OW25348   8.872   0.463   7.434
74525SOL    HW125349   8.934   0.418   7.377
74525SOL    HW225350   8.904   0.446   7.522
74526SOL     OW25351   7.483   3.788   0.247
74526SOL    HW125352   7.524   3.855   0.302
74526SOL    HW225353   7.482   3.827   0.159
74527SOL     OW25354  11.607  11.936   8.856
74527SOL    HW125355  11.579  12.028   8.862
74527SOL    HW225356  11.664  11.934   8.779
74528SOL     OW25357   7.347   3.706  11.108
74528SOL    HW125358   7.372   3.782  11.057
74528SOL    HW225359   7.420   3.691  11.168
74529SOL     OW25360   4.221   8.999   9.580
74529SOL    HW125361   4.296   8.941   9.592
74529SOL    HW225362   4.195   9.023   9.669
74530SOL     OW25363   9.142  13.782   2.567
74530SOL    HW125364   9.145  13.871   2.530
74530SOL    HW225365   9.231  13.766   2.597
74531SOL     OW25366  11.359  13.932   3.865
74531SOL    HW125367  11.423  13.865   3.842
74531SOL    HW225368  11.344  13.920   3.959
74532SOL     OW25369   7.444   9.825  11.695
74532SOL    HW125370   7.535   9.849  11.712
74532SOL    HW225371   7.404   9.904  11.660
74533SOL     OW25372   8.039   7.030   1.752
74533SOL    HW125373   8.119   7.069   1.716
74533SOL    HW225374   7.995   7.103   1.796
74534SOL     OW25375   5.443   8.719  10.381
74534SOL    HW125376   5.521   8.665  10.392
74534SOL    HW225377   5.439   8.773  10.460
74535SOL     OW25378   9.195   1.849   7.699
74535SOL    HW125379   9.103   1.846   7.727
74535SOL    HW225380   9.191   1.874   7.606
74536SOL     OW25381   9.841  14.495  12.292
74536SOL    HW125382   9.825  14.587  12.271
74536SOL    HW225383   9.927  14.495  12.335
74537SOL     OW25384   0.767   3.830  12.657
74537SOL    HW125385   0.843   3.852  12.712
74537SOL    HW225386   0.800   3.834  12.568
74538SOL     OW25387   0.019   3.477   2.316
74538SOL    HW125388  14.848   3.557   2.338
74538SOL    HW225389   0.085   3.506   2.254
74539SOL     OW25390  13.340   8.860   3.616
74539SOL    HW125391  13.369   8.843   3.526
74539SOL    HW225392  13.257   8.814   3.624
74540SOL     OW25393  10.801   0.219  10.778
74540SOL    HW125394  10.855   0.156  10.827
74540SOL    HW225395  10.862   0.286  10.750
74541SOL     OW25396   8.645   2.531   6.932
74541SOL    HW125397   8.729   2.504   6.969
74541SOL    HW225398   8.663   2.617   6.895
74542SOL     OW25399   4.656   8.002   6.241
74542SOL    HW125400   4.705   8.021   6.161
74542SOL    HW225401   4.720   7.961   6.299
74543SOL     OW25402   4.736   1.786   0.025
74543SOL    HW125403   4.814   1.745   0.060
74543SOL    HW225404   4.730   1.869   0.071
74544SOL     OW25405   7.344  12.902  11.663
74544SOL    HW125406   7.253  12.887  11.638
74544SOL    HW225407   7.372  12.820  11.704
74545SOL     OW25408   2.417  14.634  10.009
74545SOL    HW125409   2.344  14.647  10.070
74545SOL    HW225410   2.438  14.541  10.017
74546SOL     OW25411   9.601   8.185   2.925
74546SOL    HW125412   9.670   8.119   2.926
74546SOL    HW225413   9.524   8.141   2.960
74547SOL     OW25414   4.928   3.788   1.166
74547SOL    HW125415   4.853   3.843   1.143
74547SOL    HW225416   4.905   3.701   1.136
74548SOL     OW25417   8.276   9.553   5.509
74548SOL    HW125418   8.181   9.562   5.514
74548SOL    HW225419   8.292   9.459   5.515
74549SOL     OW25420   3.044   8.047   2.062
74549SOL    HW125421   3.013   8.012   1.979
74549SOL    HW225422   3.135   8.018   2.068
74550SOL     OW25423   5.445   7.534   5.533
74550SOL    HW125424   5.442   7.529   5.629
74550SOL    HW225425   5.539   7.528   5.512
74551SOL     OW25426   6.415  10.030   4.426
74551SOL    HW125427   6.482  10.020   4.358
74551SOL    HW225428   6.360   9.952   4.418
74552SOL     OW25429   9.071   8.778   4.296
74552SOL    HW125430   9.002   8.833   4.259
74552SOL    HW225431   9.090   8.714   4.228
74553SOL     OW25432   1.833  11.825  14.776
74553SOL    HW125433   1.762  11.881  14.745
74553SOL    HW225434   1.799  11.736  14.768
74554SOL     OW25435   3.533   4.785  14.482
74554SOL    HW125436   3.545   4.878  14.469
74554SOL    HW225437   3.558   4.745  14.399
74555SOL     OW25438   5.341  10.196   0.066
74555SOL    HW125439   5.414  10.204   0.004
74555SOL    HW225440   5.378  10.223   0.150
74556SOL     OW25441   3.395   9.165   7.794
74556SOL    HW125442   3.465   9.100   7.782
74556SOL    HW225443   3.432   9.227   7.857
74557SOL     OW25444   2.795   3.140  13.409
74557SOL    HW125445   2.717   3.194  13.399
74557SOL    HW225446   2.778   3.088  13.487
74558SOL     OW25447   3.469   5.823   4.379
74558SOL    HW125448   3.497   5.732   4.390
74558SOL    HW225449   3.445   5.852   4.467
74559SOL     OW25450  10.327   7.317   3.577
74559SOL    HW125451  10.243   7.362   3.569
74559SOL    HW225452  10.392   7.387   3.582
74560SOL     OW25453  14.160  10.403   6.642
74560SOL    HW125454  14.246  10.372   6.613
74560SOL    HW225455  14.124  10.330   6.693
74561SOL     OW25456   7.689   0.857   1.053
74561SOL    HW125457   7.667   0.767   1.073
74561SOL    HW225458   7.719   0.893   1.137
74562SOL     OW25459   2.062   5.893  13.883
74562SOL    HW125460   1.990   5.837  13.855
74562SOL    HW225461   2.020   5.973  13.915
74563SOL     OW25462  14.877  13.546  14.190
74563SOL    HW125463  14.828  13.544  14.108
74563SOL    HW225464   0.086  13.580  14.167
74564SOL     OW25465  13.054  13.496   1.023
74564SOL    HW125466  13.140  13.514   1.062
74564SOL    HW225467  12.992  13.537   1.083
74565SOL     OW25468  10.901  12.730   7.121
74565SOL    HW125469  10.950  12.777   7.054
74565SOL    HW225470  10.963  12.722   7.194
74566SOL     OW25471   2.589  10.928   2.050
74566SOL    HW125472   2.609  10.933   1.957
74566SOL    HW225473   2.641  10.997   2.090
74567SOL     OW25474  14.119   4.400   3.254
74567SOL    HW125475  14.147   4.463   3.321
74567SOL    HW225476  14.080   4.328   3.304
74568SOL     OW25477  14.474   1.268   4.883
74568SOL    HW125478  14.451   1.286   4.975
74568SOL    HW225479  14.394   1.283   4.834
74569SOL     OW25480   1.640  14.719   8.359
74569SOL    HW125481   1.615  14.628   8.342
74569SOL    HW225482   1.567  14.771   8.326
74570SOL     OW25483   0.502  11.885   6.721
74570SOL    HW125484   0.477  11.951   6.656
74570SOL    HW225485   0.533  11.811   6.669
74571SOL     OW25486   1.006  13.866   8.983
74571SOL    HW125487   1.039  13.948   9.020
74571SOL    HW225488   1.011  13.804   9.055
74572SOL     OW25489   1.943   1.808   3.690
74572SOL    HW125490   2.002   1.856   3.633
74572SOL    HW225491   1.956   1.716   3.667
74573SOL     OW25492   9.346   5.422   8.918
74573SOL    HW125493   9.292   5.347   8.893
74573SOL    HW225494   9.311   5.495   8.865
74574SOL     OW25495  12.889  11.739  14.426
74574SOL    HW125496  12.947  11.669  14.395
74574SOL    HW225497  12.804  11.697  14.437
74575SOL     OW25498   7.740   7.621  14.247
74575SOL    HW125499   7.715   7.682  14.178
74575SOL    HW225500   7.673   7.553  14.245
74576SOL     OW25501   9.161   8.627   3.729
74576SOL    HW125502   9.179   8.698   3.668
74576SOL    HW225503   9.241   8.617   3.780
74577SOL     OW25504   3.735   5.754   7.187
74577SOL    HW125505   3.639   5.760   7.183
74577SOL    HW225506   3.765   5.840   7.157
74578SOL     OW25507   6.205  10.156   7.711
74578SOL    HW125508   6.161  10.235   7.743
74578SOL    HW225509   6.295  10.164   7.743
74579SOL     OW25510   3.285   3.833   9.278
74579SOL    HW125511   3.215   3.813   9.216
74579SOL    HW225512   3.296   3.927   9.274
74580SOL     OW25513   8.622   7.058   3.036
74580SOL    HW125514   8.621   6.987   3.099
74580SOL    HW225515   8.542   7.044   2.984
74581SOL     OW25516   4.840   8.544   1.763
74581SOL    HW125517   4.855   8.569   1.854
74581SOL    HW225518   4.923   8.506   1.735
74582SOL     OW25519   9.314   1.213  11.457
74582SOL    HW125520   9.268   1.281  11.507
74582SOL    HW225521   9.323   1.251  11.369
74583SOL     OW25522  11.165   7.880   0.019
74583SOL    HW125523  11.154   7.802  14.842
74583SOL    HW225524  11.180   7.846   0.107
74584SOL     OW25525   2.016   4.455   5.314
74584SOL    HW125526   2.090   4.394   5.318
74584SOL    HW225527   2.054   4.540   5.335
74585SOL     OW25528   9.891   3.025   8.182
74585SOL    HW125529   9.982   3.000   8.196
74585SOL    HW225530   9.880   3.025   8.087
74586SOL     OW25531   9.487   4.589   2.312
74586SOL    HW125532   9.457   4.503   2.282
74586SOL    HW225533   9.581   4.579   2.323
74587SOL     OW25534   3.581   3.306   1.292
74587SOL    HW125535   3.506   3.309   1.352
74587SOL    HW225536   3.598   3.398   1.270
74588SOL     OW25537   2.313   1.090   2.952
74588SOL    HW125538   2.258   1.108   3.028
74588SOL    HW225539   2.324   1.175   2.909
74589SOL     OW25540  13.957   8.129   4.358
74589SOL    HW125541  13.969   8.153   4.266
74589SOL    HW225542  14.001   8.045   4.367
74590SOL     OW25543   1.320   4.011  13.094
74590SOL    HW125544   1.330   4.049  13.006
74590SOL    HW225545   1.309   3.917  13.078
74591SOL     OW25546   9.190  13.852   7.213
74591SOL    HW125547   9.174  13.763   7.183
74591SOL    HW225548   9.278  13.849   7.251
74592SOL     OW25549   9.171   8.015   4.875
74592SOL    HW125550   9.232   7.954   4.833
74592SOL    HW225551   9.117   7.959   4.931
74593SOL     OW25552  13.957   9.877   5.939
74593SOL    HW125553  13.925   9.787   5.940
74593SOL    HW225554  14.045   9.871   5.903
74594SOL     OW25555  11.861   1.631   4.616
74594SOL    HW125556  11.800   1.631   4.543
74594SOL    HW225557  11.873   1.724   4.637
74595SOL     OW25558  10.968   6.850   9.943
74595SOL    HW125559  11.031   6.794   9.899
74595SOL    HW225560  11.020   6.900  10.006
74596SOL     OW25561   8.362   8.849   6.241
74596SOL    HW125562   8.274   8.813   6.249
74596SOL    HW225563   8.355   8.911   6.168
74597SOL     OW25564   4.840  11.711  10.583
74597SOL    HW125565   4.808  11.726  10.672
74597SOL    HW225566   4.901  11.784  10.567
74598SOL     OW25567   8.294   3.779   4.546
74598SOL    HW125568   8.206   3.745   4.564
74598SOL    HW225569   8.322   3.816   4.630
74599SOL     OW25570  14.516   7.045   0.581
74599SOL    HW125571  14.567   7.123   0.601
74599SOL    HW225572  14.464   7.069   0.505
74600SOL     OW25573  11.194   5.334   1.297
74600SOL    HW125574  11.244   5.386   1.235
74600SOL    HW225575  11.257   5.309   1.364
74601SOL     OW25576   1.840  10.564   1.081
74601SOL    HW125577   1.792  10.638   1.044
74601SOL    HW225578   1.773  10.513   1.126
74602SOL     OW25579   5.791   3.066   9.689
74602SOL    HW125580   5.883   3.045   9.705
74602SOL    HW225581   5.770   3.023   9.606
74603SOL     OW25582   4.102  11.802   0.391
74603SOL    HW125583   4.074  11.724   0.438
74603SOL    HW225584   4.197  11.797   0.388
74604SOL     OW25585   6.612   5.439  11.112
74604SOL    HW125586   6.707   5.434  11.106
74604SOL    HW225587   6.586   5.354  11.148
74605SOL     OW25588   7.329  14.570  11.499
74605SOL    HW125589   7.333  14.490  11.447
74605SOL    HW225590   7.420  14.599  11.506
74606SOL     OW25591   9.985  11.308  12.283
74606SOL    HW125592   9.990  11.393  12.240
74606SOL    HW225593  10.015  11.324  12.373
74607SOL     OW25594   4.043   8.859   0.843
74607SOL    HW125595   4.080   8.837   0.929
74607SOL    HW225596   4.058   8.782   0.790
74608SOL     OW25597  14.185  14.788  13.375
74608SOL    HW125598  14.111  14.766  13.431
74608SOL    HW225599  14.146  14.816  13.292
74609SOL     OW25600   4.453   8.264   1.891
74609SOL    HW125601   4.511   8.246   1.965
74609SOL    HW225602   4.374   8.301   1.931
74610SOL     OW25603  14.721   5.554   5.084
74610SOL    HW125604  14.668   5.508   5.019
74610SOL    HW225605  14.658   5.592   5.145
74611SOL     OW25606   0.771  10.703   8.819
74611SOL    HW125607   0.712  10.708   8.894
74611SOL    HW225608   0.772  10.791   8.783
74612SOL     OW25609   7.050  14.712   0.247
74612SOL    HW125610   6.971  14.682   0.291
74612SOL    HW225611   7.040  14.682   0.157
74613SOL     OW25612  14.074   5.139  10.271
74613SOL    HW125613  14.159   5.182  10.265
74613SOL    HW225614  14.038   5.144  10.182
74614SOL     OW25615   0.396   2.011  13.620
74614SOL    HW125616   0.351   2.044  13.698
74614SOL    HW225617   0.449   1.938  13.652
74615SOL     OW25618   5.282   8.449   3.373
74615SOL    HW125619   5.269   8.543   3.365
74615SOL    HW225620   5.304   8.436   3.465
74616SOL     OW25621   6.827   7.373  13.402
74616SOL    HW125622   6.761   7.436  13.433
74616SOL    HW225623   6.875   7.348  13.480
74617SOL     OW25624  12.682  11.557  10.284
74617SOL    HW125625  12.651  11.491  10.223
74617SOL    HW225626  12.772  11.577  10.255
74618SOL     OW25627   4.806  13.275  12.999
74618SOL    HW125628   4.879  13.217  12.976
74618SOL    HW225629   4.755  13.282  12.918
74619SOL     OW25630  12.893  12.061   2.922
74619SOL    HW125631  12.879  12.153   2.947
74619SOL    HW225632  12.866  12.058   2.830
74620SOL     OW25633  14.366   4.204   6.571
74620SOL    HW125634  14.282   4.165   6.547
74620SOL    HW225635  14.356   4.227   6.663
74621SOL     OW25636  10.898   9.761   5.050
74621SOL    HW125637  10.967   9.700   5.078
74621SOL    HW225638  10.821   9.707   5.038
74622SOL     OW25639  13.920  11.381   3.420
74622SOL    HW125640  13.961  11.310   3.370
74622SOL    HW225641  13.938  11.459   3.369
74623SOL     OW25642  12.295   4.383   3.669
74623SOL    HW125643  12.359   4.358   3.735
74623SOL    HW225644  12.211   4.378   3.714
74624SOL     OW25645  13.071  10.219  11.207
74624SOL    HW125646  13.008  10.154  11.238
74624SOL    HW225647  13.036  10.303  11.238
74625SOL     OW25648   2.440  12.257  14.175
74625SOL    HW125649   2.459  12.214  14.092
74625SOL    HW225650   2.517  12.311  14.192
74626SOL     OW25651  11.001   4.343   5.466
74626SOL    HW125652  10.949   4.352   5.546
74626SOL    HW225653  10.984   4.424   5.417
74627SOL     OW25654   4.125   1.255   0.272
74627SOL    HW125655   4.211   1.295   0.261
74627SOL    HW225656   4.090   1.247   0.183
74628SOL     OW25657   0.381  13.605  12.516
74628SOL    HW125658   0.342  13.681  12.474
74628SOL    HW225659   0.454  13.580  12.459
74629SOL     OW25660  10.239   1.286   0.382
74629SOL    HW125661  10.215   1.316   0.294
74629SOL    HW225662  10.234   1.365   0.437
74630SOL     OW25663   9.564  13.623  10.509
74630SOL    HW125664   9.594  13.636  10.419
74630SOL    HW225665   9.492  13.686  10.519
74631SOL     OW25666   2.111   5.353  14.002
74631SOL    HW125667   2.141   5.396  13.922
74631SOL    HW225668   2.147   5.264  13.998
74632SOL     OW25669   3.328   6.215   1.391
74632SOL    HW125670   3.336   6.222   1.296
74632SOL    HW225671   3.344   6.122   1.409
74633SOL     OW25672   0.017   3.985   1.189
74633SOL    HW125673  14.811   3.953   1.223
74633SOL    HW225674  14.875   4.010   1.099
74634SOL     OW25675   7.724   9.082   0.952
74634SOL    HW125676   7.663   9.156   0.950
74634SOL    HW225677   7.669   9.005   0.944
74635SOL     OW25678   8.171   3.102   4.223
74635SOL    HW125679   8.108   3.157   4.270
74635SOL    HW225680   8.154   3.013   4.255
74636SOL     OW25681   3.413  11.522  13.361
74636SOL    HW125682   3.381  11.433  13.344
74636SOL    HW225683   3.390  11.571  13.282
74637SOL     OW25684  14.550   5.870   2.233
74637SOL    HW125685  14.455   5.856   2.240
74637SOL    HW225686  14.558   5.948   2.177
74638SOL     OW25687   7.735  12.327   7.635
74638SOL    HW125688   7.724  12.258   7.570
74638SOL    HW225689   7.824  12.316   7.667
74639SOL     OW25690  11.907   7.657  14.850
74639SOL    HW125691  11.833   7.607   0.009
74639SOL    HW225692  11.945   7.598  14.785
74640SOL     OW25693  10.477  11.145  11.300
74640SOL    HW125694  10.411  11.185  11.357
74640SOL    HW225695  10.497  11.061  11.342
74641SOL     OW25696   0.725   0.573   5.741
74641SOL    HW125697   0.682   0.530   5.667
74641SOL    HW225698   0.808   0.526   5.751
74642SOL     OW25699   0.547   0.683   1.685
74642SOL    HW125700   0.520   0.638   1.764
74642SOL    HW225701   0.599   0.757   1.716
74643SOL     OW25702   2.868   9.665   7.740
74643SOL    HW125703   2.939   9.661   7.676
74643SOL    HW225704   2.900   9.614   7.814
74644SOL     OW25705   1.664  14.324  13.186
74644SOL    HW125706   1.686  14.234  13.212
74644SOL    HW225707   1.656  14.320  13.091
74645SOL     OW25708  14.629  12.510  13.773
74645SOL    HW125709  14.706  12.454  13.775
74645SOL    HW225710  14.650  12.579  13.711
74646SOL     OW25711  11.940   9.145   5.506
74646SOL    HW125712  11.858   9.097   5.501
74646SOL    HW225713  12.008   9.079   5.488
74647SOL     OW25714   3.474  11.801   6.713
74647SOL    HW125715   3.508  11.870   6.655
74647SOL    HW225716   3.552  11.750   6.736
74648SOL     OW25717   3.847   2.509  12.870
74648SOL    HW125718   3.919   2.570  12.883
74648SOL    HW225719   3.888   2.424  12.856
74649SOL     OW25720   3.040   9.620  11.704
74649SOL    HW125721   3.126   9.660  11.717
74649SOL    HW225722   2.983   9.663  11.767
74650SOL     OW25723   9.465  10.503   0.761
74650SOL    HW125724   9.559  10.518   0.760
74650SOL    HW225725   9.454  10.418   0.803
74651SOL     OW25726  11.849  13.333   8.794
74651SOL    HW125727  11.840  13.360   8.703
74651SOL    HW225728  11.923  13.384   8.827
74652SOL     OW25729   1.979   6.518  13.162
74652SOL    HW125730   1.891   6.486  13.182
74652SOL    HW225731   2.001   6.576  13.235
74653SOL     OW25732   9.822   0.543   1.235
74653SOL    HW125733   9.775   0.595   1.170
74653SOL    HW225734   9.844   0.605   1.304
74654SOL     OW25735   3.615   4.450  12.541
74654SOL    HW125736   3.618   4.367  12.588
74654SOL    HW225737   3.704   4.463  12.509
74655SOL     OW25738   3.462   5.481  14.515
74655SOL    HW125739   3.547   5.525  14.510
74655SOL    HW225740   3.410   5.535  14.574
74656SOL     OW25741   1.175   7.902   5.766
74656SOL    HW125742   1.136   7.815   5.759
74656SOL    HW225743   1.211   7.919   5.678
74657SOL     OW25744   5.985  11.160   0.507
74657SOL    HW125745   5.983  11.111   0.589
74657SOL    HW225746   6.013  11.248   0.532
74658SOL     OW25747   5.610   8.010  13.714
74658SOL    HW125748   5.635   8.069  13.785
74658SOL    HW225749   5.561   7.939  13.757
74659SOL     OW25750   7.862   1.475  13.430
74659SOL    HW125751   7.823   1.393  13.398
74659SOL    HW225752   7.797   1.542  13.409
74660SOL     OW25753   1.632   9.924   5.029
74660SOL    HW125754   1.678   9.884   5.103
74660SOL    HW225755   1.667  10.013   5.024
74661SOL     OW25756   9.374  11.370   2.338
74661SOL    HW125757   9.363  11.286   2.293
74661SOL    HW225758   9.462  11.398   2.314
74662SOL     OW25759   6.544   0.499   9.718
74662SOL    HW125760   6.618   0.559   9.712
74662SOL    HW225761   6.516   0.504   9.809
74663SOL     OW25762  12.343  12.131  11.933
74663SOL    HW125763  12.426  12.175  11.955
74663SOL    HW225764  12.370  12.052  11.886
74664SOL     OW25765   5.807   2.450   0.737
74664SOL    HW125766   5.743   2.380   0.746
74664SOL    HW225767   5.855   2.451   0.819
74665SOL     OW25768  10.015   3.220  13.712
74665SOL    HW125769   9.942   3.179  13.665
74665SOL    HW225770  10.092   3.197  13.661
74666SOL     OW25771   7.961   4.919   8.009
74666SOL    HW125772   7.919   4.996   7.971
74666SOL    HW225773   7.922   4.911   8.096
74667SOL     OW25774  14.629   2.098   1.539
74667SOL    HW125775  14.535   2.113   1.528
74667SOL    HW225776  14.651   2.142   1.621
74668SOL     OW25777  11.747  10.455  12.376
74668SOL    HW125778  11.835  10.470  12.340
74668SOL    HW225779  11.729  10.363  12.357
74669SOL     OW25780   0.970   1.988   2.891
74669SOL    HW125781   0.921   2.013   2.969
74669SOL    HW225782   0.903   1.960   2.829
74670SOL     OW25783   6.297   2.561  13.353
74670SOL    HW125784   6.370   2.513  13.393
74670SOL    HW225785   6.261   2.614  13.424
74671SOL     OW25786  13.267  13.515   9.182
74671SOL    HW125787  13.235  13.579   9.117
74671SOL    HW225788  13.351  13.486   9.146
74672SOL     OW25789   1.117   8.908  10.626
74672SOL    HW125790   1.049   8.878  10.566
74672SOL    HW225791   1.080   8.894  10.713
74673SOL     OW25792   3.124   4.282   4.660
74673SOL    HW125793   3.089   4.238   4.738
74673SOL    HW225794   3.191   4.223   4.626
74674SOL     OW25795   0.837  14.723   9.710
74674SOL    HW125796   0.815  14.632   9.731
74674SOL    HW225797   0.828  14.769   9.794
74675SOL     OW25798   0.385  13.249   2.048
74675SOL    HW125799   0.352  13.189   2.114
74675SOL    HW225800   0.330  13.327   2.057
74676SOL     OW25801   7.087   5.795  13.315
74676SOL    HW125802   7.154   5.863  13.315
74676SOL    HW225803   7.044   5.804  13.230
74677SOL     OW25804  13.801   9.920  11.421
74677SOL    HW125805  13.811  10.015  11.426
74677SOL    HW225806  13.831   9.898  11.333
74678SOL     OW25807  10.242  11.771  14.474
74678SOL    HW125808  10.300  11.779  14.398
74678SOL    HW225809  10.301  11.765  14.549
74679SOL     OW25810   0.156  12.662   4.472
74679SOL    HW125811   0.183  12.595   4.535
74679SOL    HW225812   0.236  12.711   4.453
74680SOL     OW25813   5.944   2.689   3.854
74680SOL    HW125814   5.962   2.776   3.819
74680SOL    HW225815   5.868   2.659   3.805
74681SOL     OW25816   5.115   9.775   9.423
74681SOL    HW125817   5.135   9.864   9.396
74681SOL    HW225818   5.161   9.764   9.506
74682SOL     OW25819   3.192  10.981  13.422
74682SOL    HW125820   3.222  11.053  13.366
74682SOL    HW225821   3.272  10.950  13.465
74683SOL     OW25822   7.663   3.776   7.437
74683SOL    HW125823   7.735   3.757   7.497
74683SOL    HW225824   7.660   3.700   7.379
74684SOL     OW25825  14.463  10.913  11.147
74684SOL    HW125826  14.479  10.862  11.226
74684SOL    HW225827  14.516  10.992  11.157
74685SOL     OW25828   5.206   8.915  10.319
74685SOL    HW125829   5.161   8.857  10.258
74685SOL    HW225830   5.292   8.874  10.332
74686SOL     OW25831   0.221  10.626   4.461
74686SOL    HW125832   0.292  10.606   4.522
74686SOL    HW225833   0.256  10.604   4.375
74687SOL     OW25834  10.180   7.182   4.908
74687SOL    HW125835  10.222   7.180   4.994
74687SOL    HW225836  10.179   7.274   4.883
74688SOL     OW25837  11.356  10.369  12.294
74688SOL    HW125838  11.350  10.314  12.372
74688SOL    HW225839  11.420  10.324  12.238
74689SOL     OW25840   6.074   7.391  12.136
74689SOL    HW125841   6.115   7.383  12.223
74689SOL    HW225842   5.982   7.407  12.155
74690SOL     OW25843   8.509  12.217  14.118
74690SOL    HW125844   8.530  12.236  14.026
74690SOL    HW225845   8.586  12.171  14.151
74691SOL     OW25846   0.459   7.788   8.102
74691SOL    HW125847   0.401   7.724   8.143
74691SOL    HW225848   0.468   7.857   8.167
74692SOL     OW25849   4.063   6.327   5.659
74692SOL    HW125850   4.110   6.410   5.655
74692SOL    HW225851   3.981   6.348   5.704
74693SOL     OW25852   1.045   9.721  10.281
74693SOL    HW125853   1.042   9.705  10.375
74693SOL    HW225854   1.138   9.719  10.259
74694SOL     OW25855   0.150   1.836   4.582
74694SOL    HW125856   0.104   1.783   4.648
74694SOL    HW225857   0.086   1.849   4.512
74695SOL     OW25858  11.043   2.782  14.475
74695SOL    HW125859  10.960   2.829  14.477
74695SOL    HW225860  11.022   2.696  14.440
74696SOL     OW25861  12.675   9.160   7.694
74696SOL    HW125862  12.757   9.162   7.743
74696SOL    HW225863  12.640   9.249   7.700
74697SOL     OW25864   5.357   4.849   2.803
74697SOL    HW125865   5.393   4.816   2.721
74697SOL    HW225866   5.411   4.925   2.823
74698SOL     OW25867   9.453   2.843  14.450
74698SOL    HW125868   9.444   2.834  14.355
74698SOL    HW225869   9.543   2.815  14.468
74699SOL     OW25870   1.496   9.089  14.564
74699SOL    HW125871   1.517   8.998  14.545
74699SOL    HW225872   1.573   9.138  14.536
74700SOL     OW25873   4.093  14.830   2.984
74700SOL    HW125874   4.016   0.002   3.011
74700SOL    HW225875   4.088  14.831   2.888
74701SOL     OW25876   7.497   9.616   8.378
74701SOL    HW125877   7.504   9.523   8.358
74701SOL    HW225878   7.443   9.619   8.457
74702SOL     OW25879   0.930   0.566  12.506
74702SOL    HW125880   0.870   0.632  12.472
74702SOL    HW225881   1.013   0.612  12.514
74703SOL     OW25882   7.376   2.540   2.383
74703SOL    HW125883   7.388   2.581   2.297
74703SOL    HW225884   7.439   2.585   2.440
74704SOL     OW25885   5.630   6.853  11.791
74704SOL    HW125886   5.666   6.922  11.847
74704SOL    HW225887   5.671   6.866  11.706
74705SOL     OW25888  14.218  11.718   0.163
74705SOL    HW125889  14.280  11.783   0.194
74705SOL    HW225890  14.272  11.650   0.124
74706SOL     OW25891   4.145   9.305   7.684
74706SOL    HW125892   4.210   9.360   7.640
74706SOL    HW225893   4.079   9.367   7.715
74707SOL     OW25894   3.925   8.028   2.762
74707SOL    HW125895   3.846   7.980   2.741
74707SOL    HW225896   3.970   8.037   2.678
74708SOL     OW25897   7.914   9.025   1.847
74708SOL    HW125898   7.972   8.972   1.792
74708SOL    HW225899   7.827   8.990   1.831
74709SOL     OW25900   9.672   1.758  11.188
74709SOL    HW125901   9.757   1.788  11.155
74709SOL    HW225902   9.615   1.835  11.184
74710SOL     OW25903  10.532  14.282   9.360
74710SOL    HW125904  10.537  14.199   9.314
74710SOL    HW225905  10.569  14.264   9.447
74711SOL     OW25906   3.314   0.501   8.774
74711SOL    HW125907   3.239   0.503   8.834
74711SOL    HW225908   3.377   0.441   8.815
74712SOL     OW25909   6.982   7.613  11.801
74712SOL    HW125910   6.890   7.639  11.800
74712SOL    HW225911   7.020   7.659  11.726
74713SOL     OW25912   3.224   9.142   0.505
74713SOL    HW125913   3.141   9.133   0.456
74713SOL    HW225914   3.280   9.193   0.446
74714SOL     OW25915   0.357   4.576   7.686
74714SOL    HW125916   0.307   4.495   7.694
74714SOL    HW225917   0.293   4.646   7.695
74715SOL     OW25918   9.835   0.429   0.296
74715SOL    HW125919   9.913   0.481   0.277
74715SOL    HW225920   9.810   0.390   0.212
74716SOL     OW25921   4.923   3.252  10.610
74716SOL    HW125922   4.965   3.261  10.525
74716SOL    HW225923   4.936   3.337  10.653
74717SOL     OW25924  13.972  10.279   7.888
74717SOL    HW125925  14.009  10.296   7.802
74717SOL    HW225926  13.965  10.365   7.929
74718SOL     OW25927  13.298  14.149   6.750
74718SOL    HW125928  13.370  14.172   6.692
74718SOL    HW225929  13.317  14.196   6.831
74719SOL     OW25930  10.035   2.386   4.023
74719SOL    HW125931   9.992   2.347   4.099
74719SOL    HW225932   9.968   2.441   3.983
74720SOL     OW25933   4.150   3.334  11.294
74720SOL    HW125934   4.066   3.358  11.255
74720SOL    HW225935   4.131   3.322  11.387
74721SOL     OW25936   6.548  14.736   6.859
74721SOL    HW125937   6.453  14.748   6.868
74721SOL    HW225938   6.584  14.825   6.866
74722SOL     OW25939   4.342   9.886  12.519
74722SOL    HW125940   4.316   9.935  12.441
74722SOL    HW225941   4.437   9.897  12.523
74723SOL     OW25942   5.521  11.385   4.662
74723SOL    HW125943   5.472  11.448   4.609
74723SOL    HW225944   5.461  11.362   4.733
74724SOL     OW25945   2.406  11.936   3.432
74724SOL    HW125946   2.363  11.853   3.413
74724SOL    HW225947   2.470  11.916   3.500
74725SOL     OW25948   8.750   5.268   5.788
74725SOL    HW125949   8.759   5.318   5.707
74725SOL    HW225950   8.731   5.333   5.855
74726SOL     OW25951   0.992   3.896  11.295
74726SOL    HW125952   0.978   3.961  11.364
74726SOL    HW225953   0.913   3.842  11.297
74727SOL     OW25954   1.996  12.507   6.423
74727SOL    HW125955   1.923  12.556   6.461
74727SOL    HW225956   2.058  12.575   6.394
74728SOL     OW25957   3.532  11.222  10.910
74728SOL    HW125958   3.477  11.273  10.850
74728SOL    HW225959   3.595  11.285  10.944
74729SOL     OW25960  11.096   2.263   1.732
74729SOL    HW125961  11.009   2.228   1.748
74729SOL    HW225962  11.090   2.307   1.647
74730SOL     OW25963   6.998  10.646   0.815
74730SOL    HW125964   7.011  10.606   0.729
74730SOL    HW225965   7.016  10.576   0.877
74731SOL     OW25966   2.909  12.784   0.278
74731SOL    HW125967   2.939  12.787   0.188
74731SOL    HW225968   2.844  12.714   0.279
74732SOL     OW25969   2.846  12.361   5.445
74732SOL    HW125970   2.802  12.400   5.521
74732SOL    HW225971   2.914  12.425   5.421
74733SOL     OW25972   0.683   2.524  10.437
74733SOL    HW125973   0.700   2.606  10.391
74733SOL    HW225974   0.619   2.478  10.383
74734SOL     OW25975  13.826  10.453   4.222
74734SOL    HW125976  13.918  10.427   4.217
74734SOL    HW225977  13.818  10.497   4.306
74735SOL     OW25978   5.014   2.917   8.607
74735SOL    HW125979   5.033   2.948   8.518
74735SOL    HW225980   4.935   2.864   8.598
74736SOL     OW25981   8.466   7.083  10.264
74736SOL    HW125982   8.551   7.045  10.242
74736SOL    HW225983   8.486   7.149  10.331
74737SOL     OW25984  11.374   7.837   7.742
74737SOL    HW125985  11.304   7.894   7.774
74737SOL    HW225986  11.370   7.760   7.799
74738SOL     OW25987   9.603   0.363  13.855
74738SOL    HW125988   9.623   0.399  13.769
74738SOL    HW225989   9.591   0.269  13.839
74739SOL     OW25990  12.332   9.707   8.568
74739SOL    HW125991  12.275   9.630   8.564
74739SOL    HW225992  12.416   9.677   8.531
74740SOL     OW25993   9.031  10.081  10.435
74740SOL    HW125994   9.064  10.162  10.397
74740SOL    HW225995   9.012  10.103  10.527
74741SOL     OW25996  12.366  14.533  11.550
74741SOL    HW125997  12.378  14.536  11.645
74741SOL    HW225998  12.450  14.504  11.515
74742SOL     OW25999  11.842   9.936  10.096
74742SOL    HW126000  11.816   9.995  10.167
74742SOL    HW226001  11.761   9.916  10.050
74743SOL     OW26002   1.772   0.239   9.647
74743SOL    HW126003   1.705   0.256   9.712
74743SOL    HW226004   1.837   0.184   9.692
74744SOL     OW26005   0.162  10.578   8.049
74744SOL    HW126006   0.186  10.519   8.121
74744SOL    HW226007   0.238  10.576   7.991
74745SOL     OW26008   3.629   5.946   1.304
74745SOL    HW126009   3.692   6.013   1.330
74745SOL    HW226010   3.652   5.925   1.214
74746SOL     OW26011   6.163   6.016   0.049
74746SOL    HW126012   6.222   6.043   0.119
74746SOL    HW226013   6.191   6.066  14.850
74747SOL     OW26014   1.757   2.289  13.976
74747SOL    HW126015   1.692   2.221  13.992
74747SOL    HW226016   1.821   2.248  13.917
74748SOL     OW26017   2.257   8.143  14.019
74748SOL    HW126018   2.294   8.114  14.102
74748SOL    HW226019   2.187   8.079  14.000
74749SOL     OW26020   3.046   8.404  14.220
74749SOL    HW126021   3.015   8.407  14.130
74749SOL    HW226022   3.109   8.477  14.226
74750SOL     OW26023  13.368  12.431   9.698
74750SOL    HW126024  13.416  12.360   9.741
74750SOL    HW226025  13.281  12.428   9.738
74751SOL     OW26026   6.559   2.648   6.227
74751SOL    HW126027   6.612   2.568   6.232
74751SOL    HW226028   6.616   2.716   6.263
74752SOL     OW26029   0.284   1.208  11.613
74752SOL    HW126030   0.348   1.246  11.673
74752SOL    HW226031   0.213   1.178  11.671
74753SOL     OW26032   7.867   0.738   8.069
74753SOL    HW126033   7.875   0.648   8.039
74753SOL    HW226034   7.855   0.789   7.988
74754SOL     OW26035   7.893  11.438   2.175
74754SOL    HW126036   7.902  11.347   2.145
74754SOL    HW226037   7.975  11.455   2.222
74755SOL     OW26038  14.380   9.818  12.079
74755SOL    HW126039  14.377   9.873  12.001
74755SOL    HW226040  14.467   9.832  12.115
74756SOL     OW26041  12.581  14.206   2.709
74756SOL    HW126042  12.630  14.288   2.723
74756SOL    HW226043  12.616  14.171   2.627
74757SOL     OW26044   9.523  13.337   6.522
74757SOL    HW126045   9.504  13.414   6.469
74757SOL    HW226046   9.451  13.276   6.503
74758SOL     OW26047   2.853   6.369   3.842
74758SOL    HW126048   2.837   6.428   3.916
74758SOL    HW226049   2.922   6.411   3.792
74759SOL     OW26050   5.475  14.512  14.343
74759SOL    HW126051   5.462  14.431  14.294
74759SOL    HW226052   5.468  14.485  14.435
74760SOL     OW26053   3.229   5.842  12.191
74760SOL    HW126054   3.299   5.777  12.194
74760SOL    HW226055   3.275   5.926  12.185
74761SOL     OW26056   2.764  11.375   5.003
74761SOL    HW126057   2.688  11.332   4.963
74761SOL    HW226058   2.726  11.443   5.059
74762SOL     OW26059  12.791   9.487   6.102
74762SOL    HW126060  12.854   9.416   6.092
74762SOL    HW226061  12.816   9.552   6.037
74763SOL     OW26062  12.791   3.567   2.290
74763SOL    HW126063  12.713   3.553   2.236
74763SOL    HW226064  12.811   3.660   2.279
74764SOL     OW26065   3.615  10.123   4.329
74764SOL    HW126066   3.668  10.061   4.278
74764SOL    HW226067   3.586  10.188   4.265
74765SOL     OW26068   7.097   8.289   2.346
74765SOL    HW126069   7.077   8.313   2.256
74765SOL    HW226070   7.126   8.370   2.386
74766SOL     OW26071   5.421   5.234  14.603
74766SOL    HW126072   5.370   5.206  14.526
74766SOL    HW226073   5.503   5.187  14.595
74767SOL     OW26074   6.353  13.741  10.588
74767SOL    HW126075   6.282  13.742  10.653
74767SOL    HW226076   6.417  13.680  10.625
74768SOL     OW26077   7.539  10.960  14.293
74768SOL    HW126078   7.454  10.931  14.327
74768SOL    HW226079   7.522  10.977  14.200
74769SOL     OW26080   1.386  12.457   3.882
74769SOL    HW126081   1.319  12.395   3.913
74769SOL    HW226082   1.468  12.423   3.918
74770SOL     OW26083   2.662   3.545   2.323
74770SOL    HW126084   2.690   3.480   2.258
74770SOL    HW226085   2.684   3.505   2.407
74771SOL     OW26086  12.296   9.573  13.570
74771SOL    HW126087  12.214   9.540  13.534
74771SOL    HW226088  12.364   9.541  13.510
74772SOL     OW26089   5.966   3.425   3.823
74772SOL    HW126090   6.041   3.374   3.851
74772SOL    HW226091   5.950   3.398   3.733
74773SOL     OW26092   0.672   8.635   8.257
74773SOL    HW126093   0.643   8.718   8.294
74773SOL    HW226094   0.666   8.573   8.329
74774SOL     OW26095   2.400  13.919   0.214
74774SOL    HW126096   2.361  13.943   0.298
74774SOL    HW226097   2.451  13.996   0.188
74775SOL     OW26098   1.691   6.433   6.163
74775SOL    HW126099   1.598   6.442   6.185
74775SOL    HW226100   1.732   6.411   6.246
74776SOL     OW26101  14.403   9.792  12.916
74776SOL    HW126102  14.418   9.886  12.929
74776SOL    HW226103  14.471   9.766  12.854
74777SOL     OW26104  11.933   4.921   6.829
74777SOL    HW126105  12.026   4.943   6.825
74777SOL    HW226106  11.888   5.004   6.813
74778SOL     OW26107   4.407   1.786   5.722
74778SOL    HW126108   4.474   1.727   5.758
74778SOL    HW226109   4.435   1.803   5.632
74779SOL     OW26110   3.992   0.167   9.177
74779SOL    HW126111   3.976   0.108   9.251
74779SOL    HW226112   3.914   0.222   9.174
74780SOL     OW26113   8.304  14.876  10.635
74780SOL    HW126114   8.359  14.852  10.560
74780SOL    HW226115   8.229  14.818  10.630
74781SOL     OW26116  11.426   9.388  10.253
74781SOL    HW126117  11.418   9.422  10.164
74781SOL    HW226118  11.399   9.296  10.245
74782SOL     OW26119   1.305   2.755   3.554
74782SOL    HW126120   1.222   2.802   3.556
74782SOL    HW226121   1.368   2.820   3.521
74783SOL     OW26122   4.769   9.625   1.915
74783SOL    HW126123   4.761   9.644   2.009
74783SOL    HW226124   4.801   9.534   1.912
74784SOL     OW26125   1.315   2.274   3.751
74784SOL    HW126126   1.404   2.241   3.743
74784SOL    HW226127   1.324   2.369   3.755
74785SOL     OW26128  13.023  14.185   8.370
74785SOL    HW126129  12.980  14.183   8.284
74785SOL    HW226130  12.985  14.110   8.417
74786SOL     OW26131  13.166   2.867  13.669
74786SOL    HW126132  13.122   2.918  13.737
74786SOL    HW226133  13.247   2.837  13.709
74787SOL     OW26134  12.333   2.845   1.194
74787SOL    HW126135  12.317   2.791   1.116
74787SOL    HW226136  12.423   2.877   1.184
74788SOL     OW26137   4.451   9.382  12.535
74788SOL    HW126138   4.518   9.435  12.491
74788SOL    HW226139   4.450   9.300  12.485
74789SOL     OW26140   3.496  10.767   0.951
74789SOL    HW126141   3.546  10.821   0.890
74789SOL    HW226142   3.561  10.714   0.996
74790SOL     OW26143   5.693  12.408   7.258
74790SOL    HW126144   5.617  12.423   7.202
74790SOL    HW226145   5.657  12.399   7.346
74791SOL     OW26146  11.966   7.805   1.392
74791SOL    HW126147  11.964   7.754   1.310
74791SOL    HW226148  11.911   7.756   1.452
74792SOL     OW26149  14.144   3.568   2.860
74792SOL    HW126150  14.062   3.518   2.857
74792SOL    HW226151  14.207   3.508   2.899
74793SOL     OW26152  12.563   7.519  14.282
74793SOL    HW126153  12.495   7.570  14.327
74793SOL    HW226154  12.535   7.519  14.190
74794SOL     OW26155   4.540  13.977   7.174
74794SOL    HW126156   4.577  13.932   7.250
74794SOL    HW226157   4.450  13.946   7.170
74795SOL     OW26158   3.080   4.594   1.964
74795SOL    HW126159   3.057   4.642   2.044
74795SOL    HW226160   3.170   4.566   1.978
74796SOL     OW26161   3.208   7.927   8.520
74796SOL    HW126162   3.286   7.895   8.475
74796SOL    HW226163   3.203   7.874   8.600
74797SOL     OW26164   9.414  14.266   1.347
74797SOL    HW126165   9.491  14.210   1.359
74797SOL    HW226166   9.445  14.337   1.291
74798SOL     OW26167   2.967   0.742  13.524
74798SOL    HW126168   3.046   0.688  13.521
74798SOL    HW226169   2.953   0.759  13.617
74799SOL     OW26170   6.847  10.531  12.900
74799SOL    HW126171   6.908  10.481  12.847
74799SOL    HW226172   6.831  10.611  12.850
74800SOL     OW26173   8.888   6.393  12.210
74800SOL    HW126174   8.855   6.303  12.205
74800SOL    HW226175   8.977   6.388  12.174
74801SOL     OW26176   1.583   3.530   3.484
74801SOL    HW126177   1.661   3.575   3.452
74801SOL    HW226178   1.580   3.551   3.577
74802SOL     OW26179   8.745   5.494  10.240
74802SOL    HW126180   8.692   5.414  10.240
74802SOL    HW226181   8.836   5.462  10.244
74803SOL     OW26182   8.427   7.524  11.123
74803SOL    HW126183   8.419   7.580  11.200
74803SOL    HW226184   8.522   7.509  11.114
74804SOL     OW26185  14.801   7.981   7.642
74804SOL    HW126186  14.810   7.902   7.696
74804SOL    HW226187   0.003   7.983   7.589
74805SOL     OW26188  13.340   0.322  10.061
74805SOL    HW126189  13.290   0.286   9.987
74805SOL    HW226190  13.333   0.255  10.129
74806SOL     OW26191   9.948  12.283   6.514
74806SOL    HW126192  10.033  12.289   6.558
74806SOL    HW226193   9.963  12.225   6.440
74807SOL     OW26194  13.109   2.762  11.356
74807SOL    HW126195  13.137   2.843  11.399
74807SOL    HW226196  13.034   2.732  11.408
74808SOL     OW26197   4.690   2.445  10.366
74808SOL    HW126198   4.641   2.526  10.347
74808SOL    HW226199   4.769   2.452  10.312
74809SOL     OW26200   7.681   2.443   6.302
74809SOL    HW126201   7.640   2.485   6.226
74809SOL    HW226202   7.653   2.351   6.296
74810SOL     OW26203   2.021   9.212   1.907
74810SOL    HW126204   1.975   9.255   1.835
74810SOL    HW226205   2.072   9.143   1.865
74811SOL     OW26206   9.432  11.911   1.090
74811SOL    HW126207   9.500  11.977   1.096
74811SOL    HW226208   9.447  11.868   1.006
74812SOL     OW26209  14.606   8.469  13.727
74812SOL    HW126210  14.612   8.429  13.814
74812SOL    HW226211  14.645   8.404  13.668
74813SOL     OW26212   7.299  12.802   3.693
74813SOL    HW126213   7.266  12.731   3.638
74813SOL    HW226214   7.223  12.858   3.709
74814SOL     OW26215  11.397   5.319   9.684
74814SOL    HW126216  11.391   5.383   9.612
74814SOL    HW226217  11.488   5.289   9.682
74815SOL     OW26218   2.432   4.858   1.071
74815SOL    HW126219   2.458   4.773   1.036
74815SOL    HW226220   2.476   4.864   1.155
74816SOL     OW26221   1.482   7.566  11.512
74816SOL    HW126222   1.512   7.507  11.582
74816SOL    HW226223   1.390   7.583  11.533
74817SOL     OW26224   6.535  12.343  12.295
74817SOL    HW126225   6.601  12.274  12.307
74817SOL    HW226226   6.549  12.402  12.369
74818SOL     OW26227   0.449   5.467   9.480
74818SOL    HW126228   0.412   5.522   9.411
74818SOL    HW226229   0.388   5.477   9.553
74819SOL     OW26230   2.021  14.177   0.319
74819SOL    HW126231   1.970  14.220   0.251
74819SOL    HW226232   2.008  14.231   0.397
74820SOL     OW26233   0.087  14.757  11.190
74820SOL    HW126234  14.877  14.781  11.159
74820SOL    HW226235   0.106  14.821  11.258
74821SOL     OW26236   9.830   7.478   2.285
74821SOL    HW126237   9.790   7.564   2.295
74821SOL    HW226238   9.802   7.448   2.199
74822SOL     OW26239   9.274   9.244  11.708
74822SOL    HW126240   9.226   9.326  11.696
74822SOL    HW226241   9.357   9.258  11.662
74823SOL     OW26242  12.548   2.351   1.473
74823SOL    HW126243  12.615   2.314   1.415
74823SOL    HW226244  12.466   2.342   1.424
74824SOL     OW26245  10.610   4.602   4.852
74824SOL    HW126246  10.532   4.628   4.803
74824SOL    HW226247  10.631   4.678   4.906
74825SOL     OW26248   3.639   2.923   9.100
74825SOL    HW126249   3.618   3.016   9.100
74825SOL    HW226250   3.627   2.895   9.191
74826SOL     OW26251   7.997   6.082   3.442
74826SOL    HW126252   8.073   6.093   3.384
74826SOL    HW226253   7.942   6.157   3.423
74827SOL     OW26254   7.709   6.487   6.401
74827SOL    HW126255   7.710   6.415   6.338
74827SOL    HW226256   7.641   6.546   6.370
74828SOL     OW26257   7.597   7.539  10.132
74828SOL    HW126258   7.581   7.632  10.122
74828SOL    HW226259   7.516   7.504  10.169
74829SOL     OW26260   9.896   9.767   3.458
74829SOL    HW126261   9.955   9.693   3.473
74829SOL    HW226262   9.828   9.733   3.400
74830SOL     OW26263   7.031   3.939   4.476
74830SOL    HW126264   7.079   3.944   4.558
74830SOL    HW226265   7.083   3.991   4.414
74831SOL     OW26266   6.618   4.281  14.584
74831SOL    HW126267   6.539   4.226  14.582
74831SOL    HW226268   6.690   4.218  14.592
74832SOL     OW26269  10.049  13.840   8.268
74832SOL    HW126270  10.045  13.893   8.348
74832SOL    HW226271  10.119  13.777   8.285
74833SOL     OW26272  12.730   4.083   5.361
74833SOL    HW126273  12.770   4.052   5.280
74833SOL    HW226274  12.735   4.008   5.420
74834SOL     OW26275   0.235  13.859   7.138
74834SOL    HW126276   0.269  13.893   7.221
74834SOL    HW226277   0.174  13.926   7.108
74835SOL     OW26278  12.417  11.467   9.202
74835SOL    HW126279  12.440  11.560   9.203
74835SOL    HW226280  12.449  11.434   9.286
74836SOL     OW26281   9.806   8.074   0.113
74836SOL    HW126282   9.771   8.110   0.032
74836SOL    HW226283   9.899   8.058   0.094
74837SOL     OW26284   8.561   5.023   7.392
74837SOL    HW126285   8.643   5.073   7.398
74837SOL    HW226286   8.540   5.001   7.483
74838SOL     OW26287   1.980   6.178  11.463
74838SOL    HW126288   2.058   6.164  11.516
74838SOL    HW226289   1.907   6.173  11.525
74839SOL     OW26290   1.220   3.501   1.726
74839SOL    HW126291   1.207   3.446   1.649
74839SOL    HW226292   1.244   3.441   1.796
74840SOL     OW26293  12.370   7.609   8.433
74840SOL    HW126294  12.299   7.672   8.420
74840SOL    HW226295  12.330   7.524   8.416
74841SOL     OW26296   8.850  11.997   3.303
74841SOL    HW126297   8.768  11.948   3.313
74841SOL    HW226298   8.845  12.033   3.214
74842SOL     OW26299  12.536  12.599   1.665
74842SOL    HW126300  12.632  12.596   1.664
74842SOL    HW226301  12.515  12.667   1.728
74843SOL     OW26302  13.106   4.351  11.223
74843SOL    HW126303  13.022   4.390  11.247
74843SOL    HW226304  13.115   4.276  11.281
74844SOL     OW26305   3.831   7.010   9.744
74844SOL    HW126306   3.767   6.939   9.750
74844SOL    HW226307   3.782   7.083   9.707
74845SOL     OW26308   9.042  11.693  11.089
74845SOL    HW126309   9.137  11.681  11.095
74845SOL    HW226310   9.008  11.660  11.172
74846SOL     OW26311   2.652   9.443   4.394
74846SOL    HW126312   2.577   9.481   4.348
74846SOL    HW226313   2.728   9.475   4.346
74847SOL     OW26314   0.635  10.993   4.364
74847SOL    HW126315   0.562  10.983   4.303
74847SOL    HW226316   0.641  10.908   4.408
74848SOL     OW26317   8.204  11.090   5.239
74848SOL    HW126318   8.215  11.110   5.146
74848SOL    HW226319   8.218  11.173   5.283
74849SOL     OW26320   3.094   4.514   6.828
74849SOL    HW126321   3.072   4.602   6.799
74849SOL    HW226322   3.138   4.527   6.913
74850SOL     OW26323   1.860   1.756   2.596
74850SOL    HW126324   1.865   1.829   2.659
74850SOL    HW226325   1.889   1.680   2.646
74851SOL     OW26326   4.546  14.309  11.720
74851SOL    HW126327   4.499  14.362  11.656
74851SOL    HW226328   4.515  14.220  11.704
74852SOL     OW26329   7.403   4.383   5.291
74852SOL    HW126330   7.353   4.338   5.359
74852SOL    HW226331   7.484   4.333   5.283
74853SOL     OW26332  11.749   5.754   5.309
74853SOL    HW126333  11.703   5.702   5.375
74853SOL    HW226334  11.721   5.844   5.325
74854SOL     OW26335   0.649  14.077   1.424
74854SOL    HW126336   0.705  14.000   1.422
74854SOL    HW226337   0.697  14.143   1.373
74855SOL     OW26338  13.962   5.232   1.021
74855SOL    HW126339  13.996   5.165   0.961
74855SOL    HW226340  13.962   5.189   1.106
74856SOL     OW26341   0.680   7.199   9.669
74856SOL    HW126342   0.671   7.109   9.698
74856SOL    HW226343   0.611   7.247   9.715
74857SOL     OW26344  13.320  11.893   9.295
74857SOL    HW126345  13.348  11.965   9.238
74857SOL    HW226346  13.270  11.835   9.237
74858SOL     OW26347  12.355  12.800   0.882
74858SOL    HW126348  12.311  12.859   0.943
74858SOL    HW226349  12.295  12.727   0.872
74859SOL     OW26350   3.910   5.947   6.840
74859SOL    HW126351   3.866   5.862   6.835
74859SOL    HW226352   3.926   5.971   6.749
74860SOL     OW26353   9.413   4.756   4.576
74860SOL    HW126354   9.505   4.732   4.586
74860SOL    HW226355   9.410   4.804   4.493
74861SOL     OW26356  12.999  14.849  10.556
74861SOL    HW126357  12.992   0.051  10.609
74861SOL    HW226358  12.909  14.817  10.550
74862SOL     OW26359   7.182   2.216   1.864
74862SOL    HW126360   7.175   2.194   1.957
74862SOL    HW226361   7.097   2.254   1.842
74863SOL     OW26362   7.622   2.407  13.088
74863SOL    HW126363   7.629   2.348  13.012
74863SOL    HW226364   7.657   2.356  13.161
74864SOL     OW26365  14.569  13.778  14.736
74864SOL    HW126366  14.554  13.749  14.646
74864SOL    HW226367  14.482  13.800  14.768
74865SOL     OW26368   7.781   6.115  11.194
74865SOL    HW126369   7.706   6.152  11.241
74865SOL    HW226370   7.818   6.189  11.146
74866SOL     OW26371   5.429   2.818   6.422
74866SOL    HW126372   5.409   2.861   6.339
74866SOL    HW226373   5.347   2.776   6.447
74867SOL     OW26374   5.013  13.177  10.701
74867SOL    HW126375   5.078  13.244  10.722
74867SOL    HW226376   4.976  13.152  10.786
74868SOL     OW26377   7.754   5.462   6.717
74868SOL    HW126378   7.747   5.557   6.732
74868SOL    HW226379   7.815   5.455   6.644
74869SOL     OW26380  13.586  11.639   1.155
74869SOL    HW126381  13.509  11.640   1.212
74869SOL    HW226382  13.572  11.564   1.097
74870SOL     OW26383  14.715   9.588   5.043
74870SOL    HW126384  14.732   9.659   5.105
74870SOL    HW226385  14.661   9.526   5.091
74871SOL     OW26386   8.245  12.384   1.784
74871SOL    HW126387   8.319  12.429   1.744
74871SOL    HW226388   8.196  12.454   1.828
74872SOL     OW26389  10.345   7.515  14.142
74872SOL    HW126390  10.311   7.458  14.073
74872SOL    HW226391  10.280   7.586  14.148
74873SOL     OW26392   0.465   1.974   7.123
74873SOL    HW126393   0.520   1.904   7.087
74873SOL    HW226394   0.404   1.930   7.182
74874SOL     OW26395   4.058  14.825   5.536
74874SOL    HW126396   4.110   0.026   5.520
74874SOL    HW226397   3.975  14.841   5.491
74875SOL     OW26398  11.139   0.318   4.453
74875SOL    HW126399  11.100   0.302   4.367
74875SOL    HW226400  11.067   0.353   4.505
74876SOL     OW26401  12.078   6.459   6.932
74876SOL    HW126402  11.985   6.443   6.946
74876SOL    HW226403  12.090   6.551   6.954
74877SOL     OW26404  13.925   4.233  13.367
74877SOL    HW126405  13.880   4.213  13.284
74877SOL    HW226406  14.015   4.252  13.341
74878SOL     OW26407  13.577   6.243  11.492
74878SOL    HW126408  13.641   6.221  11.559
74878SOL    HW226409  13.504   6.183  11.507
74879SOL     OW26410  10.590  12.956   0.710
74879SOL    HW126411  10.670  12.987   0.667
74879SOL    HW226412  10.617  12.879   0.759
74880SOL     OW26413   9.320  10.523   8.197
74880SOL    HW126414   9.225  10.524   8.199
74880SOL    HW226415   9.345  10.615   8.199
74881SOL     OW26416   4.977  14.115   9.708
74881SOL    HW126417   5.066  14.109   9.674
74881SOL    HW226418   4.955  14.025   9.731
74882SOL     OW26419   1.979  12.881   6.207
74882SOL    HW126420   2.000  12.827   6.131
74882SOL    HW226421   2.053  12.941   6.215
74883SOL     OW26422   4.313  13.869  10.005
74883SOL    HW126423   4.232  13.818  10.005
74883SOL    HW226424   4.319  13.903  10.095
74884SOL     OW26425   0.940  14.239  12.611
74884SOL    HW126426   0.987  14.275  12.536
74884SOL    HW226427   1.001  14.251  12.685
74885SOL     OW26428   5.863   7.130  14.322
74885SOL    HW126429   5.918   7.168  14.253
74885SOL    HW226430   5.786   7.186  14.325
74886SOL     OW26431   8.464   6.547  11.545
74886SOL    HW126432   8.553   6.568  11.515
74886SOL    HW226433   8.426   6.496  11.474
74887SOL     OW26434  13.367   0.418   5.463
74887SOL    HW126435  13.358   0.514   5.457
74887SOL    HW226436  13.462   0.403   5.464
74888SOL     OW26437   3.150  14.526   4.094
74888SOL    HW126438   3.153  14.581   4.172
74888SOL    HW226439   3.176  14.584   4.023
74889SOL     OW26440   0.654   4.696   3.555
74889SOL    HW126441   0.594   4.708   3.629
74889SOL    HW226442   0.617   4.750   3.485
74890SOL     OW26443   8.809   6.085   1.188
74890SOL    HW126444   8.778   6.024   1.255
74890SOL    HW226445   8.904   6.070   1.184
74891SOL     OW26446  14.133  10.064  10.504
74891SOL    HW126447  14.114  10.138  10.446
74891SOL    HW226448  14.109  10.096  10.592
74892SOL     OW26449   3.721  12.700   6.760
74892SOL    HW126450   3.785  12.721   6.827
74892SOL    HW226451   3.669  12.629   6.797
74893SOL     OW26452   1.676   2.624   4.475
74893SOL    HW126453   1.640   2.695   4.421
74893SOL    HW226454   1.760   2.659   4.506
74894SOL     OW26455   6.850   4.318   6.169
74894SOL    HW126456   6.938   4.333   6.205
74894SOL    HW226457   6.799   4.393   6.199
74895SOL     OW26458   2.711   0.297   3.267
74895SOL    HW126459   2.734   0.384   3.301
74895SOL    HW226460   2.761   0.236   3.322
74896SOL     OW26461  13.204   8.924  10.232
74896SOL    HW126462  13.194   9.008  10.187
74896SOL    HW226463  13.202   8.946  10.325
74897SOL     OW26464   2.885   7.960  13.558
74897SOL    HW126465   2.968   8.007  13.552
74897SOL    HW226466   2.897   7.897  13.629
74898SOL     OW26467  10.313  10.466  11.924
74898SOL    HW126468  10.287  10.434  11.838
74898SOL    HW226469  10.250  10.426  11.984
74899SOL     OW26470   7.527  12.731  10.999
74899SOL    HW126471   7.463  12.770  10.939
74899SOL    HW226472   7.565  12.806  11.045
74900SOL     OW26473  10.396  14.467  11.610
74900SOL    HW126474  10.338  14.431  11.678
74900SOL    HW226475  10.480  14.423  11.626
74901SOL     OW26476  12.661  12.987   1.281
74901SOL    HW126477  12.668  13.079   1.305
74901SOL    HW226478  12.747  12.965   1.245
74902SOL     OW26479   6.082   8.976  12.058
74902SOL    HW126480   6.057   9.046  12.119
74902SOL    HW226481   6.025   8.903  12.081
74903SOL     OW26482  10.298  12.371   3.394
74903SOL    HW126483  10.270  12.283   3.369
74903SOL    HW226484  10.272  12.426   3.320
74904SOL     OW26485  10.103  14.519   5.039
74904SOL    HW126486  10.116  14.485   5.127
74904SOL    HW226487  10.180  14.575   5.023
74905SOL     OW26488  10.022  12.598   1.081
74905SOL    HW126489  10.067  12.586   1.165
74905SOL    HW226490  10.075  12.662   1.034
74906SOL     OW26491   4.393   5.622   8.277
74906SOL    HW126492   4.486   5.626   8.296
74906SOL    HW226493   4.351   5.643   8.361
74907SOL     OW26494   8.911  11.481   3.949
74907SOL    HW126495   8.988  11.530   3.920
74907SOL    HW226496   8.892  11.421   3.876
74908SOL     OW26497   2.658   7.555  13.391
74908SOL    HW126498   2.614   7.632  13.355
74908SOL    HW226499   2.633   7.484  13.332
74909SOL     OW26500   8.747   6.303  11.757
74909SOL    HW126501   8.691   6.367  11.800
74909SOL    HW226502   8.702   6.283  11.675
74910SOL     OW26503  12.358  14.438   6.141
74910SOL    HW126504  12.287  14.396   6.092
74910SOL    HW226505  12.328  14.528   6.152
74911SOL     OW26506   8.439   5.333  12.823
74911SOL    HW126507   8.429   5.249  12.869
74911SOL    HW226508   8.432   5.399  12.892
74912SOL     OW26509   4.555   4.424   6.810
74912SOL    HW126510   4.576   4.335   6.783
74912SOL    HW226511   4.502   4.414   6.889
74913SOL     OW26512  10.842   2.828   7.519
74913SOL    HW126513  10.896   2.802   7.594
74913SOL    HW226514  10.893   2.803   7.442
74914SOL     OW26515  10.761  11.861   0.559
74914SOL    HW126516  10.803  11.777   0.580
74914SOL    HW226517  10.823  11.927   0.588
74915SOL     OW26518   9.015  13.971   6.830
74915SOL    HW126519   9.096  13.982   6.880
74915SOL    HW226520   8.955  13.929   6.891
74916SOL     OW26521  12.604   6.337  12.466
74916SOL    HW126522  12.687   6.357  12.509
74916SOL    HW226523  12.619   6.252  12.424
74917SOL     OW26524   2.275  13.972   3.716
74917SOL    HW126525   2.198  14.029   3.718
74917SOL    HW226526   2.288  13.952   3.623
74918SOL     OW26527   5.575   6.426   5.392
74918SOL    HW126528   5.582   6.331   5.396
74918SOL    HW226529   5.655   6.458   5.434
74919SOL     OW26530   1.919   2.550   3.406
74919SOL    HW126531   1.929   2.642   3.426
74919SOL    HW226532   1.913   2.547   3.310
74920SOL     OW26533   5.731  10.883   2.019
74920SOL    HW126534   5.760  10.799   2.054
74920SOL    HW226535   5.684  10.861   1.939
74921SOL     OW26536   0.889   8.845   7.472
74921SOL    HW126537   0.888   8.819   7.564
74921SOL    HW226538   0.833   8.922   7.468
74922SOL     OW26539  14.538   8.425   5.354
74922SOL    HW126540  14.508   8.339   5.381
74922SOL    HW226541  14.547   8.418   5.259
74923SOL     OW26542   0.913   9.524  14.794
74923SOL    HW126543   0.947   9.471  14.722
74923SOL    HW226544   0.861   9.592  14.752
74924SOL     OW26545   4.631  13.447   1.999
74924SOL    HW126546   4.687  13.412   1.929
74924SOL    HW226547   4.640  13.384   2.070
74925SOL     OW26548   1.725   9.802   0.596
74925SOL    HW126549   1.796   9.828   0.654
74925SOL    HW226550   1.715   9.875   0.535
74926SOL     OW26551   3.894   1.890   2.197
74926SOL    HW126552   3.895   1.916   2.105
74926SOL    HW226553   3.889   1.794   2.195
74927SOL     OW26554  11.358   3.466  11.329
74927SOL    HW126555  11.344   3.560  11.344
74927SOL    HW226556  11.356   3.427  11.416
74928SOL     OW26557  11.416   9.398  14.565
74928SOL    HW126558  11.455   9.373  14.481
74928SOL    HW226559  11.348   9.332  14.580
74929SOL     OW26560   0.316  13.460  12.112
74929SOL    HW126561   0.253  13.519  12.154
74929SOL    HW226562   0.346  13.508  12.034
74930SOL     OW26563   1.803   2.906  12.411
74930SOL    HW126564   1.714   2.911  12.445
74930SOL    HW226565   1.818   2.991  12.369
74931SOL     OW26566  12.445   4.621   0.923
74931SOL    HW126567  12.364   4.608   0.973
74931SOL    HW226568  12.416   4.630   0.832
74932SOL     OW26569   1.121   9.625  10.541
74932SOL    HW126570   1.163   9.709  10.561
74932SOL    HW226571   1.097   9.589  10.626
74933SOL     OW26572   8.663   1.274   3.835
74933SOL    HW126573   8.668   1.196   3.891
74933SOL    HW226574   8.754   1.297   3.816
74934SOL     OW26575   8.374   5.142   6.673
74934SOL    HW126576   8.388   5.059   6.628
74934SOL    HW226577   8.447   5.149   6.734
74935SOL     OW26578  10.512   5.833   0.923
74935SOL    HW126579  10.544   5.822   0.834
74935SOL    HW226580  10.591   5.845   0.976
74936SOL     OW26581  10.368   2.601  13.779
74936SOL    HW126582  10.331   2.623  13.865
74936SOL    HW226583  10.330   2.666  13.720
74937SOL     OW26584   4.685   2.691  10.927
74937SOL    HW126585   4.752   2.727  10.985
74937SOL    HW226586   4.670   2.760  10.863
74938SOL     OW26587   2.963   4.629  13.033
74938SOL    HW126588   3.024   4.601  13.101
74938SOL    HW226589   3.017   4.680  12.972
74939SOL     OW26590   2.749   9.970  12.448
74939SOL    HW126591   2.775   9.878  12.445
74939SOL    HW226592   2.654   9.968  12.434
74940SOL     OW26593  13.297  11.883  10.646
74940SOL    HW126594  13.224  11.929  10.604
74940SOL    HW226595  13.345  11.952  10.692
74941SOL     OW26596  12.282   8.141  13.996
74941SOL    HW126597  12.306   8.177  14.081
74941SOL    HW226598  12.195   8.102  14.010
74942SOL     OW26599   5.656   7.411   9.849
74942SOL    HW126600   5.589   7.359   9.805
74942SOL    HW226601   5.622   7.501   9.847
74943SOL     OW26602   5.430   3.852  11.395
74943SOL    HW126603   5.428   3.936  11.348
74943SOL    HW226604   5.522   3.840  11.417
74944SOL     OW26605  13.592   2.747  13.099
74944SOL    HW126606  13.650   2.789  13.162
74944SOL    HW226607  13.562   2.668  13.143
74945SOL     OW26608   4.978  11.676   7.330
74945SOL    HW126609   4.965  11.629   7.413
74945SOL    HW226610   5.053  11.632   7.290
74946SOL     OW26611  14.665   6.371   3.273
74946SOL    HW126612  14.721   6.449   3.279
74946SOL    HW226613  14.715   6.311   3.216
74947SOL     OW26614   4.786   1.524   7.014
74947SOL    HW126615   4.792   1.545   6.921
74947SOL    HW226616   4.816   1.603   7.059
74948SOL     OW26617   3.981  13.633   1.390
74948SOL    HW126618   3.909  13.658   1.449
74948SOL    HW226619   3.937  13.599   1.312
74949SOL     OW26620  13.535   8.475   0.593
74949SOL    HW126621  13.502   8.545   0.650
74949SOL    HW226622  13.575   8.412   0.653
74950SOL     OW26623   3.431   5.564   7.878
74950SOL    HW126624   3.380   5.502   7.930
74950SOL    HW226625   3.448   5.519   7.796
74951SOL     OW26626   6.237   0.052   4.297
74951SOL    HW126627   6.226   0.018   4.209
74951SOL    HW226628   6.230  14.853   4.354
74952SOL     OW26629   6.986   8.698  13.388
74952SOL    HW126630   6.992   8.676  13.480
74952SOL    HW226631   7.077   8.713  13.361
74953SOL     OW26632  12.018   3.804  11.985
74953SOL    HW126633  12.010   3.876  11.923
74953SOL    HW226634  12.080   3.836  12.050
74954SOL     OW26635  14.721   8.608  12.543
74954SOL    HW126636  14.789   8.614  12.610
74954SOL    HW226637  14.645   8.652  12.582
74955SOL     OW26638  12.086   0.930  12.861
74955SOL    HW126639  11.994   0.950  12.881
74955SOL    HW226640  12.081   0.866  12.790
74956SOL     OW26641  10.053   3.862   7.472
74956SOL    HW126642  10.128   3.805   7.457
74956SOL    HW226643  10.050   3.919   7.395
74957SOL     OW26644   2.056  13.678   6.861
74957SOL    HW126645   2.005  13.741   6.911
74957SOL    HW226646   2.054  13.711   6.771
74958SOL     OW26647  10.827   5.967   2.557
74958SOL    HW126648  10.752   6.024   2.541
74958SOL    HW226649  10.862   5.996   2.641
74959SOL     OW26650   3.149   7.839   7.006
74959SOL    HW126651   3.061   7.874   7.019
74959SOL    HW226652   3.196   7.861   7.086
74960SOL     OW26653  13.715   1.833  12.741
74960SOL    HW126654  13.699   1.923  12.768
74960SOL    HW226655  13.686   1.780  12.815
74961SOL     OW26656  14.197   7.802   4.597
74961SOL    HW126657  14.168   7.839   4.514
74961SOL    HW226658  14.122   7.753   4.629
74962SOL     OW26659  12.097  10.468  14.235
74962SOL    HW126660  12.062  10.433  14.153
74962SOL    HW226661  12.155  10.539  14.209
74963SOL     OW26662   9.784   1.654   5.557
74963SOL    HW126663   9.866   1.641   5.509
74963SOL    HW226664   9.803   1.626   5.646
74964SOL     OW26665  12.589   1.731   1.177
74964SOL    HW126666  12.671   1.760   1.217
74964SOL    HW226667  12.523   1.740   1.246
74965SOL     OW26668   3.813   5.230  12.364
74965SOL    HW126669   3.819   5.136  12.377
74965SOL    HW226670   3.838   5.243  12.272
74966SOL     OW26671  11.792  11.042  14.682
74966SOL    HW126672  11.778  11.137  14.688
74966SOL    HW226673  11.874  11.033  14.633
74967SOL     OW26674  11.201   3.345   5.705
74967SOL    HW126675  11.201   3.260   5.660
74967SOL    HW226676  11.196   3.323   5.798
74968SOL     OW26677   3.614   6.088  10.577
74968SOL    HW126678   3.519   6.091  10.592
74968SOL    HW226679   3.645   6.174  10.604
74969SOL     OW26680   7.236   3.508  10.968
74969SOL    HW126681   7.284   3.591  10.963
74969SOL    HW226682   7.224   3.493  11.061
74970SOL     OW26683   5.813  13.672   9.329
74970SOL    HW126684   5.757  13.715   9.393
74970SOL    HW226685   5.895  13.721   9.332
74971SOL     OW26686   0.971  12.373   8.549
74971SOL    HW126687   1.021  12.340   8.623
74971SOL    HW226688   0.949  12.463   8.571
74972SOL     OW26689   0.889   2.030   0.682
74972SOL    HW126690   0.798   2.014   0.705
74972SOL    HW226691   0.905   2.121   0.709
74973SOL     OW26692   5.015  10.644   6.881
74973SOL    HW126693   5.070  10.712   6.920
74973SOL    HW226694   5.036  10.564   6.930
74974SOL     OW26695  14.505   9.871  11.375
74974SOL    HW126696  14.422   9.863  11.326
74974SOL    HW226697  14.515   9.786  11.418
74975SOL     OW26698   5.536   0.856  13.769
74975SOL    HW126699   5.584   0.776  13.748
74975SOL    HW226700   5.532   0.904  13.686
74976SOL     OW26701  13.615   2.504   4.599
74976SOL    HW126702  13.671   2.555   4.657
74976SOL    HW226703  13.648   2.522   4.511
74977SOL     OW26704   7.971   7.320   8.233
74977SOL    HW126705   7.939   7.240   8.192
74977SOL    HW226706   8.034   7.355   8.170
74978SOL     OW26707   8.631  10.494  10.964
74978SOL    HW126708   8.660  10.440  10.890
74978SOL    HW226709   8.563  10.550  10.929
74979SOL     OW26710   4.800   2.612   3.626
74979SOL    HW126711   4.730   2.619   3.690
74979SOL    HW226712   4.868   2.560   3.670
74980SOL     OW26713  14.247  13.660   0.838
74980SOL    HW126714  14.275  13.584   0.787
74980SOL    HW226715  14.286  13.647   0.925
74981SOL     OW26716   9.805   1.972   4.495
74981SOL    HW126717   9.855   1.893   4.475
74981SOL    HW226718   9.731   1.941   4.548
74982SOL     OW26719  13.934   6.119   7.074
74982SOL    HW126720  13.838   6.125   7.076
74982SOL    HW226721  13.961   6.134   7.165
74983SOL     OW26722  10.465   1.559  13.276
74983SOL    HW126723  10.499   1.546  13.365
74983SOL    HW226724  10.544   1.570  13.222
74984SOL     OW26725   8.222  13.050   4.219
74984SOL    HW126726   8.311  13.018   4.206
74984SOL    HW226727   8.216  13.067   4.313
74985SOL     OW26728  11.425   0.918   0.269
74985SOL    HW126729  11.409   0.977   0.196
74985SOL    HW226730  11.412   0.972   0.347
74986SOL     OW26731   6.909   9.620   2.125
74986SOL    HW126732   6.852   9.678   2.174
74986SOL    HW226733   6.972   9.678   2.082
74987SOL     OW26734   8.281  11.444   3.957
74987SOL    HW126735   8.286  11.495   4.038
74987SOL    HW226736   8.230  11.366   3.981
74988SOL     OW26737   7.496   5.491   1.032
74988SOL    HW126738   7.403   5.480   1.011
74988SOL    HW226739   7.529   5.545   0.960
74989SOL     OW26740   4.948   9.377  11.140
74989SOL    HW126741   5.014   9.386  11.071
74989SOL    HW226742   4.953   9.460  11.188
74990SOL     OW26743  14.386   6.559  11.491
74990SOL    HW126744  14.463   6.503  11.505
74990SOL    HW226745  14.313   6.498  11.484
74991SOL     OW26746  10.359   6.508   6.302
74991SOL    HW126747  10.438   6.530   6.252
74991SOL    HW226748  10.375   6.418   6.331
74992SOL     OW26749  13.171   6.898   4.706
74992SOL    HW126750  13.215   6.869   4.627
74992SOL    HW226751  13.108   6.964   4.676
74993SOL     OW26752   4.152  13.948   0.353
74993SOL    HW126753   4.158  13.984   0.265
74993SOL    HW226754   4.209  14.004   0.406
74994SOL     OW26755   9.633   4.538  10.602
74994SOL    HW126756   9.623   4.620  10.556
74994SOL    HW226757   9.728   4.527  10.611
74995SOL     OW26758   4.938   2.247  13.256
74995SOL    HW126759   4.976   2.334  13.241
74995SOL    HW226760   4.852   2.265  13.294
74996SOL     OW26761  14.152  14.124  12.536
74996SOL    HW126762  14.196  14.043  12.510
74996SOL    HW226763  14.121  14.106  12.625
74997SOL     OW26764  13.587  13.633  14.252
74997SOL    HW126765  13.642  13.679  14.315
74997SOL    HW226766  13.497  13.656  14.277
74998SOL     OW26767  11.213   6.518   4.327
74998SOL    HW126768  11.198   6.537   4.420
74998SOL    HW226769  11.194   6.600   4.282
74999SOL     OW26770   8.657   4.761   0.305
74999SOL    HW126771   8.671   4.851   0.275
74999SOL    HW226772   8.667   4.708   0.226
75000SOL     OW26773   7.635   5.274   5.559
75000SOL    HW126774   7.710   5.239   5.511
75000SOL    HW226775   7.589   5.196   5.591
75001SOL     OW26776   7.715   8.592   4.529
75001SOL    HW126777   7.636   8.646   4.534
75001SOL    HW226778   7.682   8.504   4.510
75002SOL     OW26779   2.451   7.334  10.332
75002SOL    HW126780   2.435   7.258  10.387
75002SOL    HW226781   2.422   7.308  10.245
75003SOL     OW26782   0.119   3.716  13.165
75003SOL    HW126783   0.164   3.636  13.139
75003SOL    HW226784   0.162   3.743  13.246
75004SOL     OW26785   0.950  14.282   0.984
75004SOL    HW126786   0.954  14.187   0.977
75004SOL    HW226787   1.003  14.313   0.910
75005SOL     OW26788   0.611   0.917   7.091
75005SOL    HW126789   0.530   0.967   7.097
75005SOL    HW226790   0.609   0.876   7.005
75006SOL     OW26791   7.805   1.861   3.756
75006SOL    HW126792   7.740   1.794   3.777
75006SOL    HW226793   7.754   1.939   3.736
75007SOL     OW26794   9.712  10.251   6.331
75007SOL    HW126795   9.803  10.222   6.340
75007SOL    HW226796   9.661  10.171   6.343
75008SOL     OW26797   9.640   5.269  12.699
75008SOL    HW126798   9.565   5.296  12.752
75008SOL    HW226799   9.630   5.318  12.617
75009SOL     OW26800   5.937   7.475   0.005
75009SOL    HW126801   5.885   7.464   0.084
75009SOL    HW226802   5.923   7.395  14.833
75010SOL     OW26803   4.427   0.839   5.462
75010SOL    HW126804   4.409   0.816   5.553
75010SOL    HW226805   4.362   0.789   5.412
75011SOL     OW26806   2.416   3.232   0.683
75011SOL    HW126807   2.498   3.229   0.634
75011SOL    HW226808   2.439   3.271   0.767
75012SOL     OW26809  11.992   7.560   6.500
75012SOL    HW126810  11.968   7.630   6.439
75012SOL    HW226811  12.054   7.600   6.560
75013SOL     OW26812  11.640  13.049   0.483
75013SOL    HW126813  11.582  12.988   0.528
75013SOL    HW226814  11.697  12.994   0.430
75014SOL     OW26815   3.156   6.009   2.852
75014SOL    HW126816   3.210   6.060   2.913
75014SOL    HW226817   3.218   5.975   2.788
75015SOL     OW26818   5.192   4.018  12.479
75015SOL    HW126819   5.120   3.964  12.509
75015SOL    HW226820   5.258   3.955  12.448
75016SOL     OW26821  10.098  12.276   2.924
75016SOL    HW126822  10.180  12.327   2.927
75016SOL    HW226823  10.116  12.200   2.979
75017SOL     OW26824  11.615   7.012   7.558
75017SOL    HW126825  11.607   6.933   7.504
75017SOL    HW226826  11.655   6.981   7.640
75018SOL     OW26827  11.653   3.506  11.696
75018SOL    HW126828  11.668   3.453  11.774
75018SOL    HW226829  11.559   3.500  11.681
75019SOL     OW26830   9.262   8.841   8.053
75019SOL    HW126831   9.328   8.795   8.104
75019SOL    HW226832   9.252   8.925   8.097
75020SOL     OW26833   0.996   4.366   7.198
75020SOL    HW126834   0.921   4.360   7.258
75020SOL    HW226835   0.960   4.342   7.112
75021SOL     OW26836  13.546   1.655   3.267
75021SOL    HW126837  13.504   1.684   3.349
75021SOL    HW226838  13.477   1.659   3.202
75022SOL     OW26839  14.804  11.351  14.045
75022SOL    HW126840  14.775  11.411  13.976
75022SOL    HW226841   0.006  11.390  14.079
75023SOL     OW26842  11.819   5.323  13.763
75023SOL    HW126843  11.788   5.234  13.746
75023SOL    HW226844  11.739   5.376  13.765
75024SOL     OW26845  12.499   4.905  14.695
75024SOL    HW126846  12.516   4.972  14.762
75024SOL    HW226847  12.540   4.826  14.730
75025SOL     OW26848  11.131  14.507   4.092
75025SOL    HW126849  11.189  14.579   4.067
75025SOL    HW226850  11.048  14.528   4.049
75026SOL     OW26851   0.776   7.294   8.424
75026SOL    HW126852   0.808   7.296   8.514
75026SOL    HW226853   0.797   7.207   8.392
75027SOL     OW26854   3.165   3.632   6.199
75027SOL    HW126855   3.091   3.576   6.222
75027SOL    HW226856   3.124   3.712   6.165
75028SOL     OW26857   7.224   0.281  11.667
75028SOL    HW126858   7.272   0.199  11.678
75028SOL    HW226859   7.227   0.323  11.753
75029SOL     OW26860  14.576   0.353   9.850
75029SOL    HW126861  14.503   0.415   9.843
75029SOL    HW226862  14.534   0.267   9.849
75030SOL     OW26863  13.004   8.865  12.456
75030SOL    HW126864  12.958   8.798  12.505
75030SOL    HW226865  13.070   8.817  12.405
75031SOL     OW26866   9.448   8.229   2.712
75031SOL    HW126867   9.498   8.251   2.791
75031SOL    HW226868   9.401   8.310   2.690
75032SOL     OW26869  12.254  14.060  11.764
75032SOL    HW126870  12.230  14.009  11.687
75032SOL    HW226871  12.186  14.127  11.771
75033SOL     OW26872   3.941   4.978   2.299
75033SOL    HW126873   3.930   5.070   2.275
75033SOL    HW226874   3.910   4.930   2.222
75034SOL     OW26875   4.222   9.706   2.602
75034SOL    HW126876   4.307   9.749   2.596
75034SOL    HW226877   4.196   9.716   2.694
75035SOL     OW26878   4.851   6.254   2.376
75035SOL    HW126879   4.868   6.236   2.469
75035SOL    HW226880   4.755   6.256   2.369
75036SOL     OW26881   6.073   4.474  10.969
75036SOL    HW126882   6.036   4.407  11.027
75036SOL    HW226883   6.086   4.429  10.885
75037SOL     OW26884   9.331   6.249  13.572
75037SOL    HW126885   9.353   6.327  13.623
75037SOL    HW226886   9.236   6.255  13.558
75038SOL     OW26887   1.690   5.902   7.585
75038SOL    HW126888   1.667   5.940   7.501
75038SOL    HW226889   1.642   5.955   7.649
75039SOL     OW26890   4.848   1.789   0.682
75039SOL    HW126891   4.853   1.872   0.730
75039SOL    HW226892   4.806   1.728   0.743
75040SOL     OW26893   1.383   0.780   9.338
75040SOL    HW126894   1.344   0.709   9.389
75040SOL    HW226895   1.310   0.839   9.318
75041SOL     OW26896   3.413   8.411   2.246
75041SOL    HW126897   3.390   8.403   2.339
75041SOL    HW226898   3.471   8.487   2.243
75042SOL     OW26899   4.157   3.844   5.655
75042SOL    HW126900   4.197   3.759   5.673
75042SOL    HW226901   4.071   3.839   5.697
75043SOL     OW26902  13.831   4.689   3.453
75043SOL    HW126903  13.752   4.637   3.436
75043SOL    HW226904  13.837   4.748   3.377
75044SOL     OW26905  13.555   1.273   6.995
75044SOL    HW126906  13.493   1.334   7.034
75044SOL    HW226907  13.518   1.254   6.908
75045SOL     OW26908  10.970  11.583   6.463
75045SOL    HW126909  10.928  11.622   6.386
75045SOL    HW226910  11.063  11.583   6.442
75046SOL     OW26911  12.803   5.429   0.189
75046SOL    HW126912  12.797   5.335   0.203
75046SOL    HW226913  12.888   5.453   0.227
75047SOL     OW26914   5.980   0.625  10.869
75047SOL    HW126915   6.041   0.561  10.906
75047SOL    HW226916   5.974   0.694  10.935
75048SOL     OW26917  11.018   6.355  10.331
75048SOL    HW126918  10.954   6.370  10.261
75048SOL    HW226919  11.098   6.330  10.286
75049SOL     OW26920   5.846   6.556   8.318
75049SOL    HW126921   5.756   6.529   8.300
75049SOL    HW226922   5.893   6.542   8.235
75050SOL     OW26923   5.811   0.658   1.163
75050SOL    HW126924   5.861   0.594   1.111
75050SOL    HW226925   5.720   0.632   1.151
75051SOL     OW26926  12.671  14.100   9.033
75051SOL    HW126927  12.619  14.089   9.113
75051SOL    HW226928  12.708  14.188   9.040
75052SOL     OW26929  10.292  10.712   3.145
75052SOL    HW126930  10.269  10.804   3.149
75052SOL    HW226931  10.222  10.667   3.193
75053SOL     OW26932  10.182  10.231   5.931
75053SOL    HW126933  10.143  10.291   5.867
75053SOL    HW226934  10.108  10.197   5.980
75054SOL     OW26935   4.629   0.084  13.778
75054SOL    HW126936   4.652   0.043  13.695
75054SOL    HW226937   4.533   0.082  13.780
75055SOL     OW26938  10.814   1.635   9.717
75055SOL    HW126939  10.861   1.551   9.716
75055SOL    HW226940  10.741   1.621   9.777
75056SOL     OW26941   7.413   2.054   0.500
75056SOL    HW126942   7.496   2.043   0.546
75056SOL    HW226943   7.436   2.058   0.408
75057SOL     OW26944  10.359   4.579  11.433
75057SOL    HW126945  10.365   4.617  11.346
75057SOL    HW226946  10.339   4.652  11.491
75058SOL     OW26947   5.718   9.583  10.580
75058SOL    HW126948   5.730   9.498  10.623
75058SOL    HW226949   5.637   9.617  10.618
75059SOL     OW26950   8.379   2.299   4.835
75059SOL    HW126951   8.461   2.284   4.789
75059SOL    HW226952   8.312   2.266   4.775
75060SOL     OW26953  11.472   8.566   6.678
75060SOL    HW126954  11.556   8.521   6.666
75060SOL    HW226955  11.422   8.509   6.737
75061SOL     OW26956   1.915   6.693   3.232
75061SOL    HW126957   1.849   6.736   3.177
75061SOL    HW226958   1.997   6.705   3.185
75062SOL     OW26959   3.667  10.881  12.927
75062SOL    HW126960   3.642  10.958  12.876
75062SOL    HW226961   3.734  10.839  12.874
75063SOL     OW26962   7.697   0.271   7.790
75063SOL    HW126963   7.659   0.322   7.862
75063SOL    HW226964   7.642   0.292   7.715
75064SOL     OW26965  10.363   5.304  13.298
75064SOL    HW126966  10.392   5.367  13.233
75064SOL    HW226967  10.327   5.231  13.247
75065SOL     OW26968   8.071  14.226   9.279
75065SOL    HW126969   8.064  14.238   9.373
75065SOL    HW226970   7.993  14.269   9.243
75066SOL     OW26971   2.284   1.403   7.250
75066SOL    HW126972   2.278   1.446   7.165
75066SOL    HW226973   2.195   1.371   7.267
75067SOL     OW26974   0.524   1.777  13.706
75067SOL    HW126975   0.489   1.744  13.788
75067SOL    HW226976   0.521   1.702  13.646
75068SOL     OW26977   2.057  11.512  13.701
75068SOL    HW126978   2.124  11.444  13.691
75068SOL    HW226979   1.976  11.468  13.676
75069SOL     OW26980   6.179   5.752  14.162
75069SOL    HW126981   6.219   5.839  14.160
75069SOL    HW226982   6.209   5.713  14.244
75070SOL     OW26983  13.701   9.177   4.298
75070SOL    HW126984  13.759   9.240   4.340
75070SOL    HW226985  13.625   9.229   4.270
75071SOL     OW26986   2.299   3.547   9.224
75071SOL    HW126987   2.327   3.471   9.173
75071SOL    HW226988   2.210   3.525   9.253
75072SOL     OW26989   7.180  10.752  12.186
75072SOL    HW126990   7.095  10.781  12.152
75072SOL    HW226991   7.166  10.745  12.281
75073SOL     OW26992   4.534  11.566   9.042
75073SOL    HW126993   4.545  11.657   9.013
75073SOL    HW226994   4.616  11.546   9.088
75074SOL     OW26995   6.946   0.933   2.019
75074SOL    HW126996   7.028   0.923   2.066
75074SOL    HW226997   6.883   0.879   2.067
75075SOL     OW26998   8.729   3.905   5.084
75075SOL    HW126999   8.642   3.934   5.110
75075SOL    HW227000   8.761   3.974   5.025
75076SOL     OW27001   9.815   6.518  13.059
75076SOL    HW127002   9.848   6.443  13.109
75076SOL    HW227003   9.812   6.589  13.123
75077SOL     OW27004   3.963   9.420   2.095
75077SOL    HW127005   3.984   9.382   2.180
75077SOL    HW227006   4.047   9.447   2.059
75078SOL     OW27007   9.938  14.720  11.758
75078SOL    HW127008   9.984  14.699  11.839
75078SOL    HW227009   9.935  14.816  11.756
75079SOL     OW27010  14.716  10.859  12.566
75079SOL    HW127011  14.629  10.899  12.561
75079SOL    HW227012  14.739  10.841  12.475
75080SOL     OW27013   8.161  10.843   5.035
75080SOL    HW127014   8.157  10.936   5.014
75080SOL    HW227015   8.250  10.829   5.066
75081SOL     OW27016   8.924   6.022   6.312
75081SOL    HW127017   8.962   5.991   6.394
75081SOL    HW227018   8.986   6.087   6.280
75082SOL     OW27019   8.514  14.801  12.080
75082SOL    HW127020   8.472  14.870  12.131
75082SOL    HW227021   8.569  14.754  12.143
75083SOL     OW27022   5.861  12.753  10.439
75083SOL    HW127023   5.788  12.741  10.499
75083SOL    HW227024   5.822  12.794  10.361
75084SOL     OW27025   3.279   2.665  10.671
75084SOL    HW127026   3.343   2.733  10.692
75084SOL    HW227027   3.328   2.602  10.618
75085SOL     OW27028  14.644  13.604   2.260
75085SOL    HW127029  14.674  13.560   2.180
75085SOL    HW227030  14.689  13.557   2.331
75086SOL     OW27031   9.246  12.073   6.010
75086SOL    HW127032   9.201  12.008   6.064
75086SOL    HW227033   9.175  12.125   5.972
75087SOL     OW27034   2.140  12.538   4.608
75087SOL    HW127035   2.073  12.474   4.631
75087SOL    HW227036   2.208  12.527   4.674
75088SOL     OW27037   1.600   9.975  13.317
75088SOL    HW127038   1.679   9.971  13.370
75088SOL    HW227039   1.548  10.046  13.356
75089SOL     OW27040  13.485  10.825  14.386
75089SOL    HW127041  13.546  10.874  14.331
75089SOL    HW227042  13.405  10.877  14.386
75090SOL     OW27043   0.149  13.636   4.616
75090SOL    HW127044   0.153  13.697   4.691
75090SOL    HW227045   0.229  13.654   4.567
75091SOL     OW27046   0.782  13.194  11.236
75091SOL    HW127047   0.691  13.225  11.229
75091SOL    HW227048   0.785  13.148  11.320
75092SOL     OW27049  12.683   2.115  10.783
75092SOL    HW127050  12.691   2.021  10.796
75092SOL    HW227051  12.732   2.154  10.855
75093SOL     OW27052  13.991  14.453   3.050
75093SOL    HW127053  13.896  14.446   3.045
75093SOL    HW227054  14.023  14.391   2.983
75094SOL     OW27055   4.941   8.991   4.056
75094SOL    HW127056   4.971   9.076   4.024
75094SOL    HW227057   5.019   8.950   4.091
75095SOL     OW27058   2.363  13.903  14.719
75095SOL    HW127059   2.308  13.930  14.793
75095SOL    HW227060   2.317  13.937  14.642
75096SOL     OW27061  13.348  10.734   2.586
75096SOL    HW127062  13.371  10.733   2.679
75096SOL    HW227063  13.431  10.742   2.541
75097SOL     OW27064   5.368  12.088   2.163
75097SOL    HW127065   5.420  12.163   2.191
75097SOL    HW227066   5.328  12.055   2.243
75098SOL     OW27067  13.181  11.440   8.338
75098SOL    HW127068  13.187  11.402   8.426
75098SOL    HW227069  13.186  11.535   8.354
75099SOL     OW27070   1.168  13.355   8.136
75099SOL    HW127071   1.117  13.416   8.083
75099SOL    HW227072   1.133  13.365   8.225
75100SOL     OW27073   4.690  13.263  10.312
75100SOL    HW127074   4.615  13.227  10.359
75100SOL    HW227075   4.686  13.220  10.226
75101SOL     OW27076   6.586   9.228   2.560
75101SOL    HW127077   6.593   9.248   2.466
75101SOL    HW227078   6.638   9.148   2.572
75102SOL     OW27079   4.579   6.578   1.905
75102SOL    HW127080   4.650   6.562   1.843
75102SOL    HW227081   4.588   6.508   1.970
75103SOL     OW27082   5.875   4.572   0.166
75103SOL    HW127083   5.966   4.581   0.194
75103SOL    HW227084   5.881   4.543   0.075
75104SOL     OW27085   0.126  12.180   5.773
75104SOL    HW127086   0.208  12.148   5.811
75104SOL    HW227087   0.065  12.183   5.847
75105SOL     OW27088   6.918  11.439  10.095
75105SOL    HW127089   6.825  11.460  10.093
75105SOL    HW227090   6.944  11.456  10.186
75106SOL     OW27091   4.222  12.072   4.320
75106SOL    HW127092   4.180  12.053   4.236
75106SOL    HW227093   4.306  12.026   4.315
75107SOL     OW27094  12.791  10.851   9.596
75107SOL    HW127095  12.867  10.885   9.548
75107SOL    HW227096  12.822  10.843   9.686
75108SOL     OW27097  11.038   8.806   4.653
75108SOL    HW127098  11.084   8.872   4.601
75108SOL    HW227099  10.953   8.795   4.611
75109SOL     OW27100   3.164   3.138  14.555
75109SOL    HW127101   3.187   3.174  14.640
75109SOL    HW227102   3.248   3.121  14.512
75110SOL     OW27103   4.090   7.543   4.156
75110SOL    HW127104   4.130   7.478   4.099
75110SOL    HW227105   4.158   7.565   4.219
75111SOL     OW27106   6.277   7.899  12.254
75111SOL    HW127107   6.242   7.979  12.216
75111SOL    HW227108   6.287   7.839  12.180
75112SOL     OW27109  10.949   6.688   4.395
75112SOL    HW127110  10.879   6.680   4.461
75112SOL    HW227111  11.009   6.752   4.432
75113SOL     OW27112  13.320  11.913   2.954
75113SOL    HW127113  13.313  11.958   2.869
75113SOL    HW227114  13.388  11.960   3.001
75114SOL     OW27115  12.980   7.083   7.055
75114SOL    HW127116  13.039   7.132   6.998
75114SOL    HW227117  12.962   7.002   7.008
75115SOL     OW27118   7.623  11.220  12.188
75115SOL    HW127119   7.637  11.210  12.094
75115SOL    HW227120   7.630  11.314  12.203
75116SOL     OW27121   1.231  10.663   4.727
75116SOL    HW127122   1.270  10.575   4.725
75116SOL    HW227123   1.217  10.686   4.636
75117SOL     OW27124  14.480  10.791   8.497
75117SOL    HW127125  14.420  10.846   8.547
75117SOL    HW227126  14.567  10.818   8.527
75118SOL     OW27127   3.848  12.936  13.151
75118SOL    HW127128   3.895  12.876  13.093
75118SOL    HW227129   3.773  12.964  13.099
75119SOL     OW27130   0.203   2.570  12.772
75119SOL    HW127131   0.181   2.580  12.679
75119SOL    HW227132   0.218   2.476  12.783
75120SOL     OW27133   2.901   5.150   6.960
75120SOL    HW127134   2.951   5.091   7.015
75120SOL    HW227135   2.964   5.218   6.933
75121SOL     OW27136  12.887   4.593   1.448
75121SOL    HW127137  12.851   4.660   1.389
75121SOL    HW227138  12.977   4.582   1.419
75122SOL     OW27139   9.360  12.069   0.132
75122SOL    HW127140   9.359  12.040   0.040
75122SOL    HW227141   9.379  12.163   0.127
75123SOL     OW27142  14.628   7.957  12.883
75123SOL    HW127143  14.552   8.014  12.891
75123SOL    HW227144  14.640   7.946  12.789
75124SOL     OW27145  10.210   7.218   7.095
75124SOL    HW127146  10.224   7.124   7.108
75124SOL    HW227147  10.121   7.225   7.060
75125SOL     OW27148   4.439   6.324   5.856
75125SOL    HW127149   4.410   6.400   5.806
75125SOL    HW227150   4.362   6.268   5.862
75126SOL     OW27151   9.856   4.135   9.481
75126SOL    HW127152   9.823   4.062   9.532
75126SOL    HW227153   9.900   4.191   9.545
75127SOL     OW27154  14.417   8.605   6.294
75127SOL    HW127155  14.375   8.691   6.292
75127SOL    HW227156  14.472   8.604   6.215
75128SOL     OW27157   5.921  12.514   4.037
75128SOL    HW127158   5.828  12.535   4.041
75128SOL    HW227159   5.944  12.525   3.945
75129SOL     OW27160   3.103   4.523  13.226
75129SOL    HW127161   3.127   4.442  13.269
75129SOL    HW227162   3.070   4.579  13.297
75130SOL     OW27163  10.039   5.691   6.205
75130SOL    HW127164  10.119   5.699   6.257
75130SOL    HW227165   9.976   5.649   6.264
75131SOL     OW27166   9.227   7.900  10.940
75131SOL    HW127167   9.322   7.910  10.932
75131SOL    HW227168   9.211   7.807  10.924
75132SOL     OW27169  12.072   3.589   0.239
75132SOL    HW127170  12.094   3.503   0.203
75132SOL    HW227171  12.062   3.574   0.333
75133SOL     OW27172   4.667   5.794   3.748
75133SOL    HW127173   4.637   5.763   3.833
75133SOL    HW227174   4.687   5.714   3.698
75134SOL     OW27175   8.482   6.148   5.502
75134SOL    HW127176   8.561   6.134   5.450
75134SOL    HW227177   8.505   6.116   5.589
75135SOL     OW27178   1.836   1.844  11.801
75135SOL    HW127179   1.915   1.897  11.792
75135SOL    HW227180   1.858   1.761  11.760
75136SOL     OW27181   5.265   7.900  11.814
75136SOL    HW127182   5.354   7.880  11.783
75136SOL    HW227183   5.211   7.897  11.736
75137SOL     OW27184  14.386   8.082  12.919
75137SOL    HW127185  14.324   8.035  12.863
75137SOL    HW227186  14.332   8.143  12.969
75138SOL     OW27187   6.988   4.796  11.144
75138SOL    HW127188   7.069   4.812  11.191
75138SOL    HW227189   6.922   4.787  11.212
75139SOL     OW27190   8.169  11.560   6.900
75139SOL    HW127191   8.156  11.571   6.806
75139SOL    HW227192   8.197  11.469   6.909
75140SOL     OW27193   2.701   2.936  11.184
75140SOL    HW127194   2.767   3.006  11.185
75140SOL    HW227195   2.746   2.861  11.222
75141SOL     OW27196   3.183  10.504   0.340
75141SOL    HW127197   3.150  10.544   0.421
75141SOL    HW227198   3.267  10.547   0.325
75142SOL     OW27199   6.414  13.966   2.122
75142SOL    HW127200   6.400  13.871   2.124
75142SOL    HW227201   6.377  13.998   2.205
75143SOL     OW27202   2.189   5.463  14.237
75143SOL    HW127203   2.137   5.474  14.157
75143SOL    HW227204   2.274   5.501  14.216
75144SOL     OW27205   4.097   9.514  11.490
75144SOL    HW127206   4.109   9.507  11.585
75144SOL    HW227207   4.041   9.440  11.467
75145SOL     OW27208   7.710  14.146  14.278
75145SOL    HW127209   7.802  14.159  14.258
75145SOL    HW227210   7.688  14.062  14.239
75146SOL     OW27211  14.075  14.149   6.834
75146SOL    HW127212  14.144  14.089   6.806
75146SOL    HW227213  14.122  14.220   6.877
75147SOL     OW27214  11.905  14.833  13.332
75147SOL    HW127215  11.930  14.741  13.322
75147SOL    HW227216  11.824  14.830  13.383
75148SOL     OW27217  13.157   5.509  13.189
75148SOL    HW127218  13.092   5.575  13.167
75148SOL    HW227219  13.210   5.500  13.111
75149SOL     OW27220   5.577   2.995   6.594
75149SOL    HW127221   5.549   2.918   6.545
75149SOL    HW227222   5.582   2.964   6.685
75150SOL     OW27223  12.616   7.862   0.809
75150SOL    HW127224  12.534   7.862   0.858
75150SOL    HW227225  12.661   7.782   0.836
75151SOL     OW27226   8.715   9.337   0.877
75151SOL    HW127227   8.687   9.381   0.797
75151SOL    HW227228   8.657   9.262   0.885
75152SOL     OW27229   8.901  14.733   1.932
75152SOL    HW127230   8.888  14.686   2.014
75152SOL    HW227231   8.932  14.666   1.871
75153SOL     OW27232   7.915  14.380   5.318
75153SOL    HW127233   7.985  14.438   5.288
75153SOL    HW227234   7.935  14.366   5.411
75154SOL     OW27235   6.166   1.629  12.523
75154SOL    HW127236   6.175   1.605  12.431
75154SOL    HW227237   6.155   1.724  12.522
75155SOL     OW27238   6.845   8.562  12.007
75155SOL    HW127239   6.791   8.566  11.928
75155SOL    HW227240   6.895   8.481  11.999
75156SOL     OW27241  13.871   6.691   4.772
75156SOL    HW127242  13.860   6.780   4.805
75156SOL    HW227243  13.831   6.692   4.685
75157SOL     OW27244  14.273   8.926   6.964
75157SOL    HW127245  14.251   8.903   6.873
75157SOL    HW227246  14.188   8.939   7.006
75158SOL     OW27247   2.724   3.468   8.767
75158SOL    HW127248   2.720   3.422   8.683
75158SOL    HW227249   2.778   3.412   8.822
75159SOL     OW27250  11.313   6.091  14.435
75159SOL    HW127251  11.317   6.002  14.469
75159SOL    HW227252  11.350   6.084  14.346
75160SOL     OW27253  12.549   6.227   8.716
75160SOL    HW127254  12.494   6.237   8.638
75160SOL    HW227255  12.581   6.136   8.711
75161SOL     OW27256   4.020   8.624  11.583
75161SOL    HW127257   4.048   8.678  11.657
75161SOL    HW227258   4.100   8.583  11.551
75162SOL     OW27259   3.625  13.079   4.270
75162SOL    HW127260   3.663  13.136   4.337
75162SOL    HW227261   3.654  12.991   4.295
75163SOL     OW27262  13.174   4.049   8.449
75163SOL    HW127263  13.196   4.069   8.358
75163SOL    HW227264  13.125   4.126   8.479
75164SOL     OW27265   8.967   8.418   8.798
75164SOL    HW127266   8.932   8.497   8.841
75164SOL    HW227267   9.056   8.411   8.832
75165SOL     OW27268   8.821   2.587   8.235
75165SOL    HW127269   8.743   2.553   8.279
75165SOL    HW227270   8.848   2.517   8.176
75166SOL     OW27271  13.338   9.884   5.000
75166SOL    HW127272  13.361   9.964   4.952
75166SOL    HW227273  13.287   9.833   4.937
75167SOL     OW27274   5.945   4.968   6.214
75167SOL    HW127275   5.860   4.994   6.180
75167SOL    HW227276   5.936   4.974   6.310
75168SOL     OW27277   5.224   6.600   4.034
75168SOL    HW127278   5.162   6.669   4.013
75168SOL    HW227279   5.180   6.547   4.101
75169SOL     OW27280   0.018   2.111  11.107
75169SOL    HW127281  14.860   2.051  11.041
75169SOL    HW227282   0.077   2.057  11.159
75170SOL     OW27283  12.837   2.526  13.226
75170SOL    HW127284  12.746   2.519  13.197
75170SOL    HW227285  12.858   2.619  13.217
75171SOL     OW27286  14.350  12.050  10.920
75171SOL    HW127287  14.372  12.111  10.991
75171SOL    HW227288  14.307  12.105  10.855
75172SOL     OW27289   8.288  12.190   3.810
75172SOL    HW127290   8.291  12.284   3.826
75172SOL    HW227291   8.293  12.150   3.897
75173SOL     OW27292  10.140   3.175   6.146
75173SOL    HW127293  10.159   3.171   6.052
75173SOL    HW227294  10.227   3.177   6.187
75174SOL     OW27295  13.890   2.728  11.276
75174SOL    HW127296  13.950   2.765  11.211
75174SOL    HW227297  13.940   2.657  11.316
75175SOL     OW27298   3.420   4.880   0.213
75175SOL    HW127299   3.423   4.969   0.249
75175SOL    HW227300   3.363   4.832   0.273
75176SOL     OW27301   4.529  14.769   9.432
75176SOL    HW127302   4.525  14.757   9.527
75176SOL    HW227303   4.506  14.683   9.397
75177SOL     OW27304  10.990  13.714   5.822
75177SOL    HW127305  11.028  13.704   5.735
75177SOL    HW227306  10.895  13.710   5.808
75178SOL     OW27307   6.433  14.558   2.652
75178SOL    HW127308   6.438  14.548   2.747
75178SOL    HW227309   6.496  14.627   2.632
75179SOL     OW27310  11.972  13.910  12.971
75179SOL    HW127311  11.993  13.994  12.931
75179SOL    HW227312  11.894  13.881  12.924
75180SOL     OW27313  11.431   0.439   4.173
75180SOL    HW127314  11.425   0.511   4.110
75180SOL    HW227315  11.428   0.481   4.259
75181SOL     OW27316   9.209  13.419  11.785
75181SOL    HW127317   9.258  13.339  11.804
75181SOL    HW227318   9.118  13.390  11.773
75182SOL     OW27319   9.339  14.528  12.380
75182SOL    HW127320   9.388  14.530  12.462
75182SOL    HW227321   9.346  14.438  12.350
75183SOL     OW27322   2.825   5.033   3.482
75183SOL    HW127323   2.884   4.961   3.505
75183SOL    HW227324   2.819   5.086   3.561
75184SOL     OW27325   9.455   4.980  11.398
75184SOL    HW127326   9.440   5.047  11.331
75184SOL    HW227327   9.441   5.026  11.481
75185SOL     OW27328  12.993  10.287  10.047
75185SOL    HW127329  13.062  10.225  10.073
75185SOL    HW227330  12.947  10.243   9.976
75186SOL     OW27331  13.722  11.407   5.170
75186SOL    HW127332  13.732  11.324   5.217
75186SOL    HW227333  13.721  11.473   5.239
75187SOL     OW27334   7.992   1.891  12.221
75187SOL    HW127335   8.007   1.985  12.226
75187SOL    HW227336   8.005   1.860  12.310
75188SOL     OW27337   8.994   6.233   2.392
75188SOL    HW127338   9.014   6.171   2.323
75188SOL    HW227339   9.064   6.299   2.387
75189SOL     OW27340   4.230   8.036   6.589
75189SOL    HW127341   4.204   8.073   6.674
75189SOL    HW227342   4.242   8.112   6.533
75190SOL     OW27343  13.434   9.327   0.620
75190SOL    HW127344  13.447   9.391   0.549
75190SOL    HW227345  13.483   9.250   0.591
75191SOL     OW27346   2.487   3.292   5.657
75191SOL    HW127347   2.459   3.372   5.703
75191SOL    HW227348   2.574   3.273   5.693
75192SOL     OW27349  11.636   7.598  14.061
75192SOL    HW127350  11.571   7.547  14.013
75192SOL    HW227351  11.587   7.642  14.130
75193SOL     OW27352   4.692   9.389   0.454
75193SOL    HW127353   4.782   9.360   0.460
75193SOL    HW227354   4.643   9.327   0.508
75194SOL     OW27355   0.456   4.197   4.664
75194SOL    HW127356   0.518   4.267   4.687
75194SOL    HW227357   0.430   4.217   4.574
75195SOL     OW27358   7.016   1.039   7.358
75195SOL    HW127359   7.013   1.009   7.449
75195SOL    HW227360   6.966   0.974   7.309
75196SOL     OW27361   8.608   4.511   9.055
75196SOL    HW127362   8.652   4.594   9.039
75196SOL    HW227363   8.651   4.449   8.997
75197SOL     OW27364  11.624   6.054   3.447
75197SOL    HW127365  11.628   5.967   3.408
75197SOL    HW227366  11.562   6.046   3.519
75198SOL     OW27367  10.742   1.450  12.493
75198SOL    HW127368  10.665   1.465  12.547
75198SOL    HW227369  10.712   1.460  12.403
75199SOL     OW27370   5.431   1.957   7.733
75199SOL    HW127371   5.342   1.927   7.749
75199SOL    HW227372   5.479   1.877   7.708
75200SOL     OW27373   1.276   9.592   4.883
75200SOL    HW127374   1.216   9.566   4.953
75200SOL    HW227375   1.243   9.677   4.853
75201SOL     OW27376   5.949   2.566   9.415
75201SOL    HW127377   5.971   2.594   9.326
75201SOL    HW227378   6.026   2.519   9.445
75202SOL     OW27379   9.444   1.867   5.241
75202SOL    HW127380   9.539   1.875   5.228
75202SOL    HW227381   9.425   1.775   5.220
75203SOL     OW27382   1.680  14.748   0.203
75203SOL    HW127383   1.600  14.699   0.220
75203SOL    HW227384   1.747  14.681   0.190
75204SOL     OW27385   0.702  13.422   7.249
75204SOL    HW127386   0.630  13.363   7.273
75204SOL    HW227387   0.732  13.390   7.164
75205SOL     OW27388   3.330   6.900  11.091
75205SOL    HW127389   3.419   6.910  11.059
75205SOL    HW227390   3.325   6.809  11.121
75206SOL     OW27391   6.337   7.579   0.697
75206SOL    HW127392   6.414   7.636   0.690
75206SOL    HW227393   6.263   7.639   0.707
75207SOL     OW27394  13.683   5.626   8.070
75207SOL    HW127395  13.595   5.617   8.107
75207SOL    HW227396  13.695   5.720   8.059
75208SOL     OW27397  11.122   0.955   1.199
75208SOL    HW127398  11.057   0.957   1.130
75208SOL    HW227399  11.077   0.990   1.276
75209SOL     OW27400   8.302   6.305  10.923
75209SOL    HW127401   8.316   6.237  10.857
75209SOL    HW227402   8.246   6.370  10.880
75210SOL     OW27403   9.542   4.193  12.585
75210SOL    HW127404   9.574   4.184  12.496
75210SOL    HW227405   9.467   4.253  12.578
75211SOL     OW27406   0.020   7.885   4.725
75211SOL    HW127407   0.104   7.859   4.763
75211SOL    HW227408   0.042   7.952   4.661
75212SOL     OW27409   3.777  12.317  11.397
75212SOL    HW127410   3.761  12.243  11.338
75212SOL    HW227411   3.778  12.394  11.340
75213SOL     OW27412  12.981   8.521   2.080
75213SOL    HW127413  12.982   8.427   2.062
75213SOL    HW227414  13.065   8.553   2.046
75214SOL     OW27415  14.187   2.939   8.561
75214SOL    HW127416  14.274   2.979   8.566
75214SOL    HW227417  14.152   2.968   8.476
75215SOL     OW27418  11.063   8.499  14.051
75215SOL    HW127419  10.975   8.463  14.040
75215SOL    HW227420  11.049   8.592  14.068
75216SOL     OW27421   4.509   4.128  10.108
75216SOL    HW127422   4.422   4.091  10.090
75216SOL    HW227423   4.570   4.060  10.081
75217SOL     OW27424  10.975   5.172   7.160
75217SOL    HW127425  11.049   5.112   7.150
75217SOL    HW227426  10.982   5.232   7.086
75218SOL     OW27427   5.465  14.097   8.846
75218SOL    HW127428   5.430  14.051   8.769
75218SOL    HW227429   5.512  14.030   8.894
75219SOL     OW27430   1.540  13.185   6.593
75219SOL    HW127431   1.458  13.231   6.573
75219SOL    HW227432   1.608  13.239   6.553
75220SOL     OW27433   0.963   9.314  12.266
75220SOL    HW127434   0.981   9.361  12.184
75220SOL    HW227435   0.965   9.382  12.333
75221SOL     OW27436  11.885   2.436  12.640
75221SOL    HW127437  11.951   2.412  12.575
75221SOL    HW227438  11.921   2.514  12.683
75222SOL     OW27439   5.528   0.608   3.478
75222SOL    HW127440   5.560   0.692   3.445
75222SOL    HW227441   5.477   0.572   3.406
75223SOL     OW27442   6.769  11.535  12.948
75223SOL    HW127443   6.741  11.444  12.943
75223SOL    HW227444   6.688  11.585  12.939
75224SOL     OW27445   2.872   4.974   6.019
75224SOL    HW127446   2.896   5.066   6.024
75224SOL    HW227447   2.842   4.953   6.108
75225SOL     OW27448   9.912   0.880   1.297
75225SOL    HW127449   9.974   0.876   1.369
75225SOL    HW227450   9.926   0.967   1.259
75226SOL     OW27451   1.892  13.037  10.752
75226SOL    HW127452   1.878  13.122  10.712
75226SOL    HW227453   1.956  12.994  10.695
75227SOL     OW27454   9.958   2.224   0.489
75227SOL    HW127455  10.044   2.207   0.525
75227SOL    HW227456   9.932   2.141   0.449
75228SOL     OW27457   7.907   5.522  12.667
75228SOL    HW127458   7.967   5.586  12.629
75228SOL    HW227459   7.954   5.486  12.742
75229SOL     OW27460  11.307   2.373   8.518
75229SOL    HW127461  11.307   2.448   8.459
75229SOL    HW227462  11.216   2.367   8.549
75230SOL     OW27463   8.332   5.531  14.639
75230SOL    HW127464   8.342   5.535  14.544
75230SOL    HW227465   8.268   5.599  14.660
75231SOL     OW27466   9.784   8.451  13.802
75231SOL    HW127467   9.791   8.528  13.858
75231SOL    HW227468   9.871   8.412  13.802
75232SOL     OW27469   8.707   6.701   3.676
75232SOL    HW127470   8.699   6.702   3.771
75232SOL    HW227471   8.621   6.726   3.644
75233SOL     OW27472  14.563   6.682   4.106
75233SOL    HW127473  14.649   6.717   4.129
75233SOL    HW227474  14.521   6.752   4.056
75234SOL     OW27475   2.587   0.638   7.141
75234SOL    HW127476   2.568   0.719   7.189
75234SOL    HW227477   2.667   0.605   7.181
75235SOL     OW27478  13.500  12.527   3.362
75235SOL    HW127479  13.482  12.619   3.381
75235SOL    HW227480  13.593  12.515   3.385
75236SOL     OW27481   9.391   3.809  14.627
75236SOL    HW127482   9.441   3.739  14.585
75236SOL    HW227483   9.405   3.795  14.721
75237SOL     OW27484  14.738   1.025  12.868
75237SOL    HW127485  14.669   1.017  12.934
75237SOL    HW227486  14.692   1.034  12.785
75238SOL     OW27487  11.088   7.806  11.810
75238SOL    HW127488  11.007   7.833  11.854
75238SOL    HW227489  11.074   7.714  11.789
75239SOL     OW27490  10.825   1.583   7.768
75239SOL    HW127491  10.774   1.646   7.819
75239SOL    HW227492  10.811   1.499   7.812
75240SOL     OW27493   1.699  14.059  13.170
75240SOL    HW127494   1.635  13.987  13.177
75240SOL    HW227495   1.779  14.023  13.207
75241SOL     OW27496   7.778  10.045  11.065
75241SOL    HW127497   7.755   9.978  11.130
75241SOL    HW227498   7.864  10.077  11.093
75242SOL     OW27499   4.938   3.109  12.254
75242SOL    HW127500   4.846   3.085  12.252
75242SOL    HW227501   4.983   3.032  12.288
75243SOL     OW27502  13.527   4.616   4.093
75243SOL    HW127503  13.441   4.653   4.112
75243SOL    HW227504  13.554   4.659   4.011
75244SOL     OW27505   0.510   8.369  13.493
75244SOL    HW127506   0.572   8.397  13.560
75244SOL    HW227507   0.446   8.440  13.489
75245SOL     OW27508  10.409   7.073   8.495
75245SOL    HW127509  10.427   7.164   8.521
75245SOL    HW227510  10.317   7.073   8.468
75246SOL     OW27511   3.244  14.429  10.056
75246SOL    HW127512   3.215  14.342  10.082
75246SOL    HW227513   3.189  14.489  10.106
75247SOL     OW27514  12.966   6.768  11.048
75247SOL    HW127515  13.031   6.740  11.112
75247SOL    HW227516  12.901   6.698  11.048
75248SOL     OW27517   5.806  13.659  12.872
75248SOL    HW127518   5.713  13.667  12.852
75248SOL    HW227519   5.851  13.675  12.789
75249SOL     OW27520   7.339  12.872   6.787
75249SOL    HW127521   7.291  12.953   6.804
75249SOL    HW227522   7.277  12.803   6.809
75250SOL     OW27523   3.070  11.785   2.117
75250SOL    HW127524   3.068  11.864   2.172
75250SOL    HW227525   3.163  11.767   2.104
75251SOL     OW27526   9.056   0.921   9.374
75251SOL    HW127527   9.102   0.939   9.291
75251SOL    HW227528   9.121   0.942   9.441
75252SOL     OW27529   1.008   8.387  12.879
75252SOL    HW127530   0.963   8.467  12.854
75252SOL    HW227531   0.939   8.329  12.909
75253SOL     OW27532  13.577  10.616   6.773
75253SOL    HW127533  13.521  10.691   6.795
75253SOL    HW227534  13.520  10.558   6.722
75254SOL     OW27535   6.385  14.395   8.693
75254SOL    HW127536   6.292  14.391   8.670
75254SOL    HW227537   6.429  14.416   8.611
75255SOL     OW27538   2.647   8.483   6.633
75255SOL    HW127539   2.570   8.473   6.689
75255SOL    HW227540   2.676   8.573   6.648
75256SOL     OW27541   7.971   5.622   1.458
75256SOL    HW127542   7.886   5.591   1.425
75256SOL    HW227543   8.011   5.544   1.496
75257SOL     OW27544  11.517   8.982  13.668
75257SOL    HW127545  11.490   8.947  13.753
75257SOL    HW227546  11.468   8.930  13.605
75258SOL     OW27547  10.707  14.070   5.398
75258SOL    HW127548  10.664  14.020   5.328
75258SOL    HW227549  10.757  14.005   5.446
75259SOL     OW27550  12.110   1.365   2.520
75259SOL    HW127551  12.136   1.449   2.483
75259SOL    HW227552  12.132   1.301   2.453
75260SOL     OW27553   6.936  11.383   1.490
75260SOL    HW127554   7.006  11.318   1.499
75260SOL    HW227555   6.861  11.344   1.536
75261SOL     OW27556   2.228   9.608   1.364
75261SOL    HW127557   2.297   9.673   1.383
75261SOL    HW227558   2.152   9.640   1.412
75262SOL     OW27559   5.853  13.839   8.360
75262SOL    HW127560   5.769  13.793   8.356
75262SOL    HW227561   5.918  13.769   8.362
75263SOL     OW27562   7.488   0.355   9.707
75263SOL    HW127563   7.582   0.342   9.696
75263SOL    HW227564   7.462   0.289   9.772
75264SOL     OW27565   8.861  10.109   3.725
75264SOL    HW127566   8.906  10.189   3.752
75264SOL    HW227567   8.917  10.038   3.756
75265SOL     OW27568  13.461   2.380   1.379
75265SOL    HW127569  13.438   2.471   1.362
75265SOL    HW227570  13.479   2.343   1.293
75266SOL     OW27571   7.854  14.318   9.145
75266SOL    HW127572   7.869  14.278   9.059
75266SOL    HW227573   7.760  14.332   9.148
75267SOL     OW27574  11.638   0.482   0.895
75267SOL    HW127575  11.727   0.449   0.880
75267SOL    HW227576  11.633   0.562   0.844
75268SOL     OW27577   5.437  10.125   9.065
75268SOL    HW127578   5.405  10.202   9.114
75268SOL    HW227579   5.526  10.148   9.041
75269SOL     OW27580  13.739   5.918   5.612
75269SOL    HW127581  13.674   5.909   5.542
75269SOL    HW227582  13.760   5.828   5.636
75270SOL     OW27583   6.658  13.950   6.659
75270SOL    HW127584   6.615  13.867   6.677
75270SOL    HW227585   6.675  13.988   6.745
75271SOL     OW27586   0.308   9.066   8.548
75271SOL    HW127587   0.384   9.091   8.496
75271SOL    HW227588   0.345   9.019   8.623
75272SOL     OW27589   4.272   5.839  10.616
75272SOL    HW127590   4.326   5.839  10.537
75272SOL    HW227591   4.223   5.757  10.611
75273SOL     OW27592   2.846   6.105   8.828
75273SOL    HW127593   2.773   6.048   8.805
75273SOL    HW227594   2.841   6.176   8.763
75274SOL     OW27595   0.508   5.310   3.942
75274SOL    HW127596   0.505   5.401   3.911
75274SOL    HW227597   0.509   5.257   3.862
75275SOL     OW27598  12.090   8.841   3.002
75275SOL    HW127599  12.180   8.827   3.032
75275SOL    HW227600  12.043   8.763   3.031
75276SOL     OW27601   3.138   6.289  14.654
75276SOL    HW127602   3.091   6.297  14.571
75276SOL    HW227603   3.204   6.357  14.652
75277SOL     OW27604   6.183  12.180   4.713
75277SOL    HW127605   6.236  12.114   4.758
75277SOL    HW227606   6.207  12.171   4.621
75278SOL     OW27607  13.197   3.368   1.431
75278SOL    HW127608  13.182   3.289   1.482
75278SOL    HW227609  13.195   3.339   1.340
75279SOL     OW27610   2.132   6.214   4.681
75279SOL    HW127611   2.072   6.141   4.665
75279SOL    HW227612   2.113   6.242   4.770
75280SOL     OW27613   3.366   8.846  10.148
75280SOL    HW127614   3.392   8.939  10.144
75280SOL    HW227615   3.372   8.817  10.057
75281SOL     OW27616  13.026  11.609   1.874
75281SOL    HW127617  12.982  11.601   1.959
75281SOL    HW227618  13.119  11.607   1.896
75282SOL     OW27619  10.165   6.903   3.421
75282SOL    HW127620  10.099   6.921   3.354
75282SOL    HW227621  10.134   6.823   3.464
75283SOL     OW27622  12.501   9.281   4.275
75283SOL    HW127623  12.492   9.266   4.181
75283SOL    HW227624  12.529   9.197   4.310
75284SOL     OW27625   7.683   7.759  11.470
75284SOL    HW127626   7.736   7.820  11.522
75284SOL    HW227627   7.706   7.781  11.379
75285SOL     OW27628   4.336  12.560   5.387
75285SOL    HW127629   4.286  12.601   5.317
75285SOL    HW227630   4.367  12.478   5.350
75286SOL     OW27631   0.388  13.298   4.262
75286SOL    HW127632   0.423  13.315   4.175
75286SOL    HW227633   0.318  13.361   4.273
75287SOL     OW27634   1.352  11.801   1.899
75287SOL    HW127635   1.308  11.767   1.821
75287SOL    HW227636   1.445  11.789   1.882
75288SOL     OW27637   7.209  13.277   7.171
75288SOL    HW127638   7.147  13.238   7.109
75288SOL    HW227639   7.258  13.202   7.204
75289SOL     OW27640  14.526   4.415   1.103
75289SOL    HW127641  14.461   4.457   1.159
75289SOL    HW227642  14.514   4.457   1.017
75290SOL     OW27643  13.666   4.198   8.611
75290SOL    HW127644  13.640   4.200   8.519
75290SOL    HW227645  13.711   4.281   8.626
75291SOL     OW27646   5.576  12.754  10.863
75291SOL    HW127647   5.593  12.694  10.936
75291SOL    HW227648   5.508  12.813  10.896
75292SOL     OW27649  13.625   6.311  10.713
75292SOL    HW127650  13.703   6.261  10.686
75292SOL    HW227651  13.636   6.320  10.808
75293SOL     OW27652  12.813  14.181  10.373
75293SOL    HW127653  12.841  14.096  10.406
75293SOL    HW227654  12.819  14.174  10.278
75294SOL     OW27655   4.600   0.079   2.813
75294SOL    HW127656   4.557  14.872   2.819
75294SOL    HW227657   4.604   0.098   2.720
75295SOL     OW27658   2.596   9.218  10.173
75295SOL    HW127659   2.655   9.286  10.207
75295SOL    HW227660   2.623   9.207  10.082
75296SOL     OW27661   3.894   3.790   7.233
75296SOL    HW127662   3.983   3.805   7.202
75296SOL    HW227663   3.838   3.810   7.157
75297SOL     OW27664   5.538  13.823   4.407
75297SOL    HW127665   5.538  13.892   4.341
75297SOL    HW227666   5.480  13.756   4.371
75298SOL     OW27667   3.132  11.498   2.959
75298SOL    HW127668   3.071  11.458   3.022
75298SOL    HW227669   3.206  11.438   2.957
75299SOL     OW27670   5.314  12.809   5.465
75299SOL    HW127671   5.267  12.730   5.493
75299SOL    HW227672   5.405  12.792   5.490
75300SOL     OW27673  12.808   7.543   1.937
75300SOL    HW127674  12.842   7.623   1.975
75300SOL    HW227675  12.739   7.515   1.997
75301SOL     OW27676   0.226  11.276   1.060
75301SOL    HW127677   0.242  11.347   1.122
75301SOL    HW227678   0.312  11.238   1.044
75302SOL     OW27679  14.066   4.868  11.730
75302SOL    HW127680  13.986   4.818  11.748
75302SOL    HW227681  14.083   4.853  11.637
75303SOL     OW27682   7.852   1.716   9.668
75303SOL    HW127683   7.855   1.650   9.738
75303SOL    HW227684   7.841   1.664   9.588
75304SOL     OW27685   4.613   7.754   1.360
75304SOL    HW127686   4.544   7.813   1.330
75304SOL    HW227687   4.613   7.683   1.296
75305SOL     OW27688  14.601   0.926   8.347
75305SOL    HW127689  14.587   0.839   8.383
75305SOL    HW227690  14.594   0.984   8.423
75306SOL     OW27691  12.477   1.306   1.035
75306SOL    HW127692  12.510   1.299   0.945
75306SOL    HW227693  12.392   1.349   1.026
75307SOL     OW27694  14.178   2.514   2.105
75307SOL    HW127695  14.235   2.521   2.181
75307SOL    HW227696  14.195   2.594   2.054
75308SOL     OW27697  12.992   3.773  12.055
75308SOL    HW127698  12.952   3.734  11.978
75308SOL    HW227699  13.082   3.741  12.054
75309SOL     OW27700  12.293  14.081   0.989
75309SOL    HW127701  12.310  13.990   1.013
75309SOL    HW227702  12.372  14.109   0.943
75310SOL     OW27703  10.433  12.019   1.500
75310SOL    HW127704  10.422  11.947   1.561
75310SOL    HW227705  10.355  12.017   1.445
75311SOL     OW27706   3.763  12.819  11.575
75311SOL    HW127707   3.670  12.819  11.598
75311SOL    HW227708   3.801  12.887  11.630
75312SOL     OW27709   7.850   8.515  11.023
75312SOL    HW127710   7.858   8.524  10.928
75312SOL    HW227711   7.765   8.473  11.036
75313SOL     OW27712   9.994  14.217  12.913
75313SOL    HW127713   9.948  14.281  12.966
75313SOL    HW227714   9.986  14.250  12.823
75314SOL     OW27715  10.931   0.123   8.668
75314SOL    HW127716  10.848   0.090   8.702
75314SOL    HW227717  10.908   0.204   8.622
75315SOL     OW27718  13.233   7.369  12.174
75315SOL    HW127719  13.151   7.328  12.147
75315SOL    HW227720  13.213   7.463  12.175
75316SOL     OW27721  14.658   9.793   2.235
75316SOL    HW127722  14.564   9.781   2.249
75316SOL    HW227723  14.664   9.820   2.143
75317SOL     OW27724   3.942   9.182   1.002
75317SOL    HW127725   3.847   9.187   1.015
75317SOL    HW227726   3.957   9.222   0.917
75318SOL     OW27727   1.580  12.834   7.291
75318SOL    HW127728   1.667  12.865   7.265
75318SOL    HW227729   1.580  12.839   7.386
75319SOL     OW27730  11.399   2.785  10.632
75319SOL    HW127731  11.396   2.817  10.542
75319SOL    HW227732  11.327   2.829  10.676
75320SOL     OW27733   1.982  10.954  11.875
75320SOL    HW127734   2.006  10.918  11.961
75320SOL    HW227735   1.916  10.894  11.842
75321SOL     OW27736   9.271   1.625   0.157
75321SOL    HW127737   9.213   1.640   0.232
75321SOL    HW227738   9.269   1.530   0.144
75322SOL     OW27739  12.898  13.273   7.006
75322SOL    HW127740  12.915  13.298   7.097
75322SOL    HW227741  12.955  13.330   6.955
75323SOL     OW27742   8.628   8.956   6.703
75323SOL    HW127743   8.586   8.895   6.643
75323SOL    HW227744   8.585   9.040   6.685
75324SOL     OW27745   1.030   7.008  11.170
75324SOL    HW127746   0.940   7.039  11.176
75324SOL    HW227747   1.067   7.022  11.257
75325SOL     OW27748  14.330   3.999  10.941
75325SOL    HW127749  14.290   3.981  10.856
75325SOL    HW227750  14.365   3.914  10.970
75326SOL     OW27751   0.563  13.333  14.115
75326SOL    HW127752   0.540  13.315  14.023
75326SOL    HW227753   0.638  13.392  14.109
75327SOL     OW27754   0.065   5.142  11.073
75327SOL    HW127755   0.130   5.092  11.025
75327SOL    HW227756   0.048   5.219  11.019
75328SOL     OW27757   8.543   2.065   5.002
75328SOL    HW127758   8.578   2.055   5.090
75328SOL    HW227759   8.448   2.072   5.014
75329SOL     OW27760   3.567   6.527   9.323
75329SOL    HW127761   3.633   6.475   9.276
75329SOL    HW227762   3.546   6.475   9.400
75330SOL     OW27763   1.200  13.582  12.869
75330SOL    HW127764   1.255  13.622  12.802
75330SOL    HW227765   1.232  13.493  12.877
75331SOL     OW27766  13.535   5.799   6.832
75331SOL    HW127767  13.462   5.754   6.875
75331SOL    HW227768  13.520   5.892   6.850
75332SOL     OW27769  13.145   1.002   3.065
75332SOL    HW127770  13.088   0.927   3.051
75332SOL    HW227771  13.229   0.974   3.028
75333SOL     OW27772   6.674  11.479  12.036
75333SOL    HW127773   6.755  11.479  11.986
75333SOL    HW227774   6.639  11.567  12.025
75334SOL     OW27775   4.965  14.605   6.465
75334SOL    HW127776   4.906  14.679   6.447
75334SOL    HW227777   5.016  14.595   6.384
75335SOL     OW27778   0.669   1.127   6.218
75335SOL    HW127779   0.728   1.088   6.153
75335SOL    HW227780   0.651   1.215   6.185
75336SOL     OW27781   7.619  14.550   5.944
75336SOL    HW127782   7.633  14.456   5.955
75336SOL    HW227783   7.703  14.590   5.967
75337SOL     OW27784   0.566   0.878   6.806
75337SOL    HW127785   0.622   0.922   6.742
75337SOL    HW227786   0.482   0.923   6.800
75338SOL     OW27787   4.905   4.703  12.420
75338SOL    HW127788   4.988   4.688  12.465
75338SOL    HW227789   4.845   4.730  12.489
75339SOL     OW27790   4.287   4.584   1.908
75339SOL    HW127791   4.355   4.648   1.929
75339SOL    HW227792   4.335   4.508   1.875
75340SOL     OW27793   5.326   5.939   7.651
75340SOL    HW127794   5.374   5.856   7.656
75340SOL    HW227795   5.251   5.919   7.595
75341SOL     OW27796   0.972   8.200   1.181
75341SOL    HW127797   0.973   8.114   1.223
75341SOL    HW227798   1.048   8.245   1.217
75342SOL     OW27799  13.423  10.222   0.433
75342SOL    HW127800  13.491  10.206   0.498
75342SOL    HW227801  13.455  10.295   0.381
75343SOL     OW27802   8.301   8.865   6.895
75343SOL    HW127803   8.220   8.859   6.846
75343SOL    HW227804   8.327   8.774   6.910
75344SOL     OW27805  13.141   8.726   8.802
75344SOL    HW127806  13.149   8.796   8.867
75344SOL    HW227807  13.135   8.773   8.718
75345SOL     OW27808   4.322   1.952   3.740
75345SOL    HW127809   4.412   1.955   3.708
75345SOL    HW227810   4.278   2.022   3.692
75346SOL     OW27811   6.514   4.167   8.594
75346SOL    HW127812   6.462   4.199   8.668
75346SOL    HW227813   6.578   4.236   8.579
75347SOL     OW27814   0.428   1.583   0.097
75347SOL    HW127815   0.384   1.663   0.068
75347SOL    HW227816   0.435   1.529   0.019
75348SOL     OW27817   1.809   9.965   5.786
75348SOL    HW127818   1.869   9.892   5.771
75348SOL    HW227819   1.734   9.946   5.729
75349SOL     OW27820   1.736  12.580   8.244
75349SOL    HW127821   1.720  12.620   8.159
75349SOL    HW227822   1.831  12.583   8.255
75350SOL     OW27823   6.684  14.574   0.253
75350SOL    HW127824   6.755  14.551   0.193
75350SOL    HW227825   6.729  14.609   0.330
75351SOL     OW27826  12.397   7.710   5.217
75351SOL    HW127827  12.401   7.630   5.269
75351SOL    HW227828  12.312   7.749   5.240
75352SOL     OW27829   0.397  10.011   2.760
75352SOL    HW127830   0.367  10.001   2.851
75352SOL    HW227831   0.493  10.018   2.768
75353SOL     OW27832   2.075  13.340   9.611
75353SOL    HW127833   2.014  13.386   9.669
75353SOL    HW227834   2.159  13.346   9.655
75354SOL     OW27835   6.966   0.534  10.490
75354SOL    HW127836   6.891   0.590  10.509
75354SOL    HW227837   7.032   0.593  10.454
75355SOL     OW27838   4.094  10.738   3.588
75355SOL    HW127839   4.154  10.805   3.555
75355SOL    HW227840   4.106  10.664   3.529
75356SOL     OW27841   6.455   3.455   3.185
75356SOL    HW127842   6.522   3.415   3.131
75356SOL    HW227843   6.468   3.418   3.272
75357SOL     OW27844   7.059   3.197   1.891
75357SOL    HW127845   7.029   3.288   1.886
75357SOL    HW227846   7.151   3.203   1.917
75358SOL     OW27847  11.159   1.124   3.909
75358SOL    HW127848  11.140   1.211   3.874
75358SOL    HW227849  11.086   1.104   3.967
75359SOL     OW27850   5.680   2.454   2.538
75359SOL    HW127851   5.730   2.437   2.618
75359SOL    HW227852   5.602   2.399   2.545
75360SOL     OW27853   2.884   7.349   7.886
75360SOL    HW127854   2.971   7.387   7.898
75360SOL    HW227855   2.898   7.254   7.888
75361SOL     OW27856  10.000  11.166   5.745
75361SOL    HW127857   9.976  11.209   5.663
75361SOL    HW227858   9.947  11.087   5.748
75362SOL     OW27859  13.442   4.838  12.278
75362SOL    HW127860  13.473   4.928  12.288
75362SOL    HW227861  13.508   4.795  12.223
75363SOL     OW27862  12.756  14.539   6.967
75363SOL    HW127863  12.761  14.619   6.914
75363SOL    HW227864  12.779  14.469   6.906
75364SOL     OW27865   1.289   1.361  13.706
75364SOL    HW127866   1.237   1.389  13.631
75364SOL    HW227867   1.225   1.345  13.775
75365SOL     OW27868   7.716  12.605   0.719
75365SOL    HW127869   7.776  12.676   0.697
75365SOL    HW227870   7.758  12.559   0.792
75366SOL     OW27871   4.171  10.255   8.017
75366SOL    HW127872   4.138  10.196   7.950
75366SOL    HW227873   4.202  10.197   8.087
75367SOL     OW27874   2.684  12.451   3.292
75367SOL    HW127875   2.644  12.537   3.304
75367SOL    HW227876   2.690  12.440   3.197
75368SOL     OW27877   7.629  10.915  12.138
75368SOL    HW127878   7.669  11.002  12.144
75368SOL    HW227879   7.535  10.931  12.151
75369SOL     OW27880   2.301  13.204   0.215
75369SOL    HW127881   2.387  13.213   0.255
75369SOL    HW227882   2.249  13.274   0.255
75370SOL     OW27883   9.108   6.408  10.236
75370SOL    HW127884   9.095   6.318  10.206
75370SOL    HW227885   9.199   6.429  10.214
75371SOL     OW27886  10.867   5.692  10.115
75371SOL    HW127887  10.775   5.679  10.138
75371SOL    HW227888  10.881   5.638  10.038
75372SOL     OW27889   7.387  12.792   9.120
75372SOL    HW127890   7.430  12.781   9.035
75372SOL    HW227891   7.397  12.708   9.163
75373SOL     OW27892  13.791  11.614   6.207
75373SOL    HW127893  13.821  11.694   6.165
75373SOL    HW227894  13.857  11.598   6.275
75374SOL     OW27895  10.674  11.355  13.267
75374SOL    HW127896  10.743  11.406  13.310
75374SOL    HW227897  10.713  11.268  13.256
75375SOL     OW27898  11.784   2.541   2.586
75375SOL    HW127899  11.859   2.541   2.645
75375SOL    HW227900  11.729   2.469   2.617
75376SOL     OW27901   0.792   6.528   6.249
75376SOL    HW127902   0.797   6.439   6.215
75376SOL    HW227903   0.823   6.583   6.176
75377SOL     OW27904   0.537   2.161  10.179
75377SOL    HW127905   0.526   2.066  10.178
75377SOL    HW227906   0.604   2.177  10.112
75378SOL     OW27907   7.131   4.818   6.859
75378SOL    HW127908   7.198   4.886   6.866
75378SOL    HW227909   7.106   4.800   6.950
75379SOL     OW27910   1.313   8.046  11.560
75379SOL    HW127911   1.278   8.085  11.640
75379SOL    HW227912   1.282   7.955  11.561
75380SOL     OW27913   1.942  14.687   9.187
75380SOL    HW127914   1.960  14.713   9.277
75380SOL    HW227915   1.966  14.595   9.182
75381SOL     OW27916   3.041   9.500   6.223
75381SOL    HW127917   3.076   9.588   6.211
75381SOL    HW227918   2.951   9.514   6.251
75382SOL     OW27919   5.056  12.472   0.815
75382SOL    HW127920   4.998  12.482   0.891
75382SOL    HW227921   5.049  12.556   0.770
75383SOL     OW27922   1.663  14.618   4.908
75383SOL    HW127923   1.736  14.591   4.853
75383SOL    HW227924   1.625  14.536   4.939
75384SOL     OW27925   9.218   0.230   1.720
75384SOL    HW127926   9.301   0.225   1.671
75384SOL    HW227927   9.220   0.316   1.761
75385SOL     OW27928   2.230  13.105   4.533
75385SOL    HW127929   2.255  13.140   4.447
75385SOL    HW227930   2.311  13.108   4.584
75386SOL     OW27931   2.181  14.490   2.037
75386SOL    HW127932   2.248  14.529   2.092
75386SOL    HW227933   2.186  14.539   1.955
75387SOL     OW27934   9.462   0.517   9.672
75387SOL    HW127935   9.432   0.607   9.686
75387SOL    HW227936   9.421   0.491   9.589
75388SOL     OW27937  13.031   5.685  14.186
75388SOL    HW127938  13.015   5.654  14.276
75388SOL    HW227939  13.028   5.780  14.192
75389SOL     OW27940  11.721  11.882   4.690
75389SOL    HW127941  11.717  11.844   4.602
75389SOL    HW227942  11.630  11.893   4.715
75390SOL     OW27943  14.545   9.443   0.411
75390SOL    HW127944  14.518   9.429   0.320
75390SOL    HW227945  14.482   9.394   0.463
75391SOL     OW27946   2.893  12.823  12.304
75391SOL    HW127947   2.867  12.873  12.381
75391SOL    HW227948   2.972  12.867  12.272
75392SOL     OW27949  12.322  13.574   3.961
75392SOL    HW127950  12.270  13.645   3.926
75392SOL    HW227951  12.272  13.541   4.035
75393SOL     OW27952   1.122   5.262   3.185
75393SOL    HW127953   1.065   5.236   3.257
75393SOL    HW227954   1.095   5.206   3.112
75394SOL     OW27955   7.458   1.190   9.076
75394SOL    HW127956   7.432   1.268   9.026
75394SOL    HW227957   7.552   1.202   9.092
75395SOL     OW27958  10.157   5.334  10.373
75395SOL    HW127959  10.121   5.270  10.436
75395SOL    HW227960  10.220   5.385  10.424
75396SOL     OW27961   0.603  14.834  11.017
75396SOL    HW127962   0.657   0.036  11.023
75396SOL    HW227963   0.517  14.861  11.050
75397SOL     OW27964   2.129   8.233   7.923
75397SOL    HW127965   2.134   8.207   8.015
75397SOL    HW227966   2.095   8.322   7.925
75398SOL     OW27967   9.498  13.453   2.816
75398SOL    HW127968   9.485  13.399   2.893
75398SOL    HW227969   9.513  13.390   2.745
75399SOL     OW27970   2.256  11.736   7.227
75399SOL    HW127971   2.258  11.641   7.219
75399SOL    HW227972   2.342  11.760   7.263
75400SOL     OW27973   6.511   4.644   1.750
75400SOL    HW127974   6.417   4.655   1.761
75400SOL    HW227975   6.529   4.679   1.662
75401SOL     OW27976   4.106   1.603  13.020
75401SOL    HW127977   4.158   1.668  13.068
75401SOL    HW227978   4.015   1.630  13.034
75402SOL     OW27979   9.363  12.957   7.625
75402SOL    HW127980   9.452  12.927   7.612
75402SOL    HW227981   9.308  12.881   7.607
75403SOL     OW27982   0.261   7.432   0.004
75403SOL    HW127983   0.304   7.492  14.821
75403SOL    HW227984   0.314   7.434   0.083
75404SOL     OW27985   1.279  10.938   6.885
75404SOL    HW127986   1.292  10.884   6.963
75404SOL    HW227987   1.308  11.025   6.911
75405SOL     OW27988  11.541   4.325  14.772
75405SOL    HW127989  11.623   4.283  14.797
75405SOL    HW227990  11.562   4.419  14.767
75406SOL     OW27991  11.753   5.874   4.850
75406SOL    HW127992  11.822   5.818   4.885
75406SOL    HW227993  11.799   5.941   4.799
75407SOL     OW27994   1.961   3.840  12.493
75407SOL    HW127995   2.052   3.850  12.518
75407SOL    HW227996   1.960   3.852  12.398
75408SOL     OW27997  11.249   7.459  14.561
75408SOL    HW127998  11.311   7.387  14.568
75408SOL    HW227999  11.172   7.421  14.519
75409SOL     OW28000   7.171  14.481  12.183
75409SOL    HW128001   7.251  14.456  12.230
75409SOL    HW228002   7.128  14.543  12.241
75410SOL     OW28003   6.672   9.485   6.099
75410SOL    HW128004   6.692   9.398   6.133
75410SOL    HW228005   6.719   9.489   6.015
75411SOL     OW28006   0.283   2.660  12.507
75411SOL    HW128007   0.199   2.701  12.488
75411SOL    HW228008   0.289   2.587  12.446
75412SOL     OW28009  10.818   2.615   1.548
75412SOL    HW128010  10.754   2.680   1.578
75412SOL    HW228011  10.872   2.597   1.625
75413SOL     OW28012   7.315   2.640   0.131
75413SOL    HW128013   7.367   2.648   0.211
75413SOL    HW228014   7.233   2.685   0.151
75414SOL     OW28015   3.487  11.680   4.432
75414SOL    HW128016   3.522  11.720   4.352
75414SOL    HW228017   3.420  11.619   4.400
75415SOL     OW28018   4.025   3.024   1.084
75415SOL    HW128019   4.018   3.052   0.993
75415SOL    HW228020   4.106   3.066   1.115
75416SOL     OW28021  11.682  11.558   4.164
75416SOL    HW128022  11.682  11.508   4.246
75416SOL    HW228023  11.739  11.633   4.181
75417SOL     OW28024   2.110   4.108  13.104
75417SOL    HW128025   2.110   4.137  13.195
75417SOL    HW228026   2.053   4.170  13.058
75418SOL     OW28027   9.741  11.076  12.333
75418SOL    HW128028   9.751  11.171  12.328
75418SOL    HW228029   9.760  11.046  12.244
75419SOL     OW28030   8.811   3.132  13.405
75419SOL    HW128031   8.804   3.046  13.363
75419SOL    HW228032   8.864   3.117  13.483
75420SOL     OW28033  13.374   7.383   5.087
75420SOL    HW128034  13.404   7.349   5.172
75420SOL    HW228035  13.285   7.350   5.079
75421SOL     OW28036  10.788  12.232  10.996
75421SOL    HW128037  10.700  12.194  10.995
75421SOL    HW228038  10.774  12.325  11.007
75422SOL     OW28039  11.929   0.151   7.642
75422SOL    HW128040  11.834   0.159   7.647
75422SOL    HW228041  11.951   0.179   7.553
75423SOL     OW28042  14.370   9.911   0.443
75423SOL    HW128043  14.379   9.890   0.536
75423SOL    HW228044  14.311   9.986   0.441
75424SOL     OW28045  12.092   5.955  12.945
75424SOL    HW128046  12.029   6.026  12.943
75424SOL    HW228047  12.081   5.910  12.861
75425SOL     OW28048   6.345  12.117   3.399
75425SOL    HW128049   6.318  12.208   3.392
75425SOL    HW228050   6.437  12.121   3.425
75426SOL     OW28051   8.216   9.344   5.702
75426SOL    HW128052   8.297   9.383   5.735
75426SOL    HW228053   8.158   9.342   5.778
75427SOL     OW28054   3.686  11.953   1.606
75427SOL    HW128055   3.752  11.947   1.537
75427SOL    HW228056   3.608  11.987   1.562
75428SOL     OW28057   1.617   3.354   1.610
75428SOL    HW128058   1.595   3.436   1.565
75428SOL    HW228059   1.712   3.351   1.609
75429SOL     OW28060   1.229   4.302  11.781
75429SOL    HW128061   1.287   4.377  11.766
75429SOL    HW228062   1.288   4.232  11.809
75430SOL     OW28063   0.151   5.790  13.505
75430SOL    HW128064   0.203   5.724  13.550
75430SOL    HW228065   0.072   5.799  13.558
75431SOL     OW28066  11.248   5.950   8.740
75431SOL    HW128067  11.318   5.893   8.772
75431SOL    HW228068  11.209   5.987   8.820
75432SOL     OW28069   1.162  12.243  14.597
75432SOL    HW128070   1.199  12.201  14.519
75432SOL    HW228071   1.068  12.227  14.591
75433SOL     OW28072  12.864   6.021   1.345
75433SOL    HW128073  12.873   6.107   1.386
75433SOL    HW228074  12.813   6.038   1.266
75434SOL     OW28075   7.368   2.908   3.733
75434SOL    HW128076   7.360   2.819   3.697
75434SOL    HW228077   7.406   2.895   3.820
75435SOL     OW28078   8.967  12.399   9.969
75435SOL    HW128079   8.912  12.360  10.036
75435SOL    HW228080   8.957  12.341   9.893
75436SOL     OW28081  12.706   5.938   5.879
75436SOL    HW128082  12.768   5.964   5.812
75436SOL    HW228083  12.623   5.929   5.832
75437SOL     OW28084  13.348  11.157  10.578
75437SOL    HW128085  13.348  11.187  10.487
75437SOL    HW228086  13.269  11.104  10.587
75438SOL     OW28087  10.028   5.042   6.418
75438SOL    HW128088  10.062   4.952   6.417
75438SOL    HW228089  10.083   5.089   6.355
75439SOL     OW28090   8.130   1.089  12.832
75439SOL    HW128091   8.073   1.071  12.906
75439SOL    HW228092   8.204   1.029  12.843
75440SOL     OW28093   1.155  12.784   2.536
75440SOL    HW128094   1.222  12.725   2.570
75440SOL    HW228095   1.204  12.860   2.505
75441SOL     OW28096  12.377  14.062  10.286
75441SOL    HW128097  12.282  14.074  10.289
75441SOL    HW228098  12.406  14.123  10.219
75442SOL     OW28099   7.984   1.518   4.866
75442SOL    HW128100   7.901   1.526   4.912
75442SOL    HW228101   7.983   1.430   4.828
75443SOL     OW28102   8.024   3.713   5.168
75443SOL    HW128103   8.041   3.630   5.214
75443SOL    HW228104   8.108   3.758   5.169
75444SOL     OW28105   9.469  11.146   9.679
75444SOL    HW128106   9.563  11.159   9.687
75444SOL    HW228107   9.452  11.148   9.585
75445SOL     OW28108  13.508  11.008  11.927
75445SOL    HW128109  13.431  11.062  11.908
75445SOL    HW228110  13.576  11.044  11.871
75446SOL     OW28111   7.794  12.646   3.262
75446SOL    HW128112   7.791  12.615   3.172
75446SOL    HW228113   7.714  12.697   3.273
75447SOL     OW28114   3.350   9.483   3.508
75447SOL    HW128115   3.426   9.523   3.550
75447SOL    HW228116   3.277   9.505   3.566
75448SOL     OW28117   1.770   6.248   0.137
75448SOL    HW128118   1.848   6.290   0.172
75448SOL    HW228119   1.710   6.321   0.119
75449SOL     OW28120  12.226  10.275   1.371
75449SOL    HW128121  12.219  10.180   1.378
75449SOL    HW228122  12.136  10.306   1.372
75450SOL     OW28123   8.880  13.316   5.675
75450SOL    HW128124   8.860  13.323   5.768
75450SOL    HW228125   8.800  13.345   5.631
75451SOL     OW28126   6.969   4.810   5.939
75451SOL    HW128127   7.001   4.860   6.014
75451SOL    HW228128   6.991   4.863   5.863
75452SOL     OW28129  13.758   1.915   1.993
75452SOL    HW128130  13.838   1.879   2.031
75452SOL    HW228131  13.774   2.010   1.989
75453SOL     OW28132   5.230  12.976  11.195
75453SOL    HW128133   5.311  12.953  11.242
75453SOL    HW228134   5.197  13.052  11.241
75454SOL     OW28135   2.843  13.765   7.094
75454SOL    HW128136   2.779  13.704   7.129
75454SOL    HW228137   2.817  13.779   7.003
75455SOL     OW28138   0.523  13.765  14.875
75455SOL    HW128139   0.489  13.832   0.057
75455SOL    HW228140   0.588  13.811  14.822
75456SOL     OW28141   9.355   1.298  14.467
75456SOL    HW128142   9.312   1.315  14.383
75456SOL    HW228143   9.427   1.362  14.470
75457SOL     OW28144   0.904   8.495  14.866
75457SOL    HW128145   0.994   8.512  14.838
75457SOL    HW228146   0.912   8.428   0.056
75458SOL     OW28147   4.947  11.694   1.800
75458SOL    HW128148   4.946  11.743   1.718
75458SOL    HW228149   4.883  11.740   1.855
75459SOL     OW28150  10.476   0.383   6.071
75459SOL    HW128151  10.524   0.431   6.139
75459SOL    HW228152  10.433   0.311   6.117
75460SOL     OW28153   0.618  10.180   3.557
75460SOL    HW128154   0.565  10.129   3.496
75460SOL    HW228155   0.560  10.250   3.587
75461SOL     OW28156  10.615   2.315   5.261
75461SOL    HW128157  10.648   2.400   5.232
75461SOL    HW228158  10.642   2.308   5.352
75462SOL     OW28159   9.412   0.354   2.355
75462SOL    HW128160   9.432   0.437   2.398
75462SOL    HW228161   9.327   0.369   2.313
75463SOL     OW28162   4.541   9.890  14.121
75463SOL    HW128163   4.520   9.918  14.032
75463SOL    HW228164   4.590   9.809  14.109
75464SOL     OW28165   4.508   5.211  13.543
75464SOL    HW128166   4.508   5.289  13.599
75464SOL    HW228167   4.578   5.228  13.480
75465SOL     OW28168   0.489   4.936   1.858
75465SOL    HW128169   0.575   4.935   1.814
75465SOL    HW228170   0.427   4.913   1.789
75466SOL     OW28171  13.440  11.175   4.191
75466SOL    HW128172  13.346  11.190   4.186
75466SOL    HW228173  13.477  11.227   4.120
75467SOL     OW28174   1.437   2.438  12.392
75467SOL    HW128175   1.383   2.410  12.318
75467SOL    HW228176   1.404   2.525  12.414
75468SOL     OW28177   0.834   8.239   9.339
75468SOL    HW128178   0.862   8.237   9.430
75468SOL    HW228179   0.739   8.243   9.343
75469SOL     OW28180  13.592   0.214  14.432
75469SOL    HW128181  13.567   0.266  14.508
75469SOL    HW228182  13.681   0.183  14.452
75470SOL     OW28183  14.089   5.225   8.372
75470SOL    HW128184  14.098   5.130   8.362
75470SOL    HW228185  14.090   5.259   8.282
75471SOL     OW28186   2.015  14.585  12.519
75471SOL    HW128187   1.933  14.629  12.544
75471SOL    HW228188   2.044  14.631  12.440
75472SOL     OW28189  13.727   9.856  10.880
75472SOL    HW128190  13.669   9.878  10.807
75472SOL    HW228191  13.675   9.794  10.933
75473SOL     OW28192   3.881  11.245  12.986
75473SOL    HW128193   3.788  11.263  13.001
75473SOL    HW228194   3.917  11.231  13.073
75474SOL     OW28195   6.741   0.462  10.171
75474SOL    HW128196   6.745   0.380  10.220
75474SOL    HW228197   6.830   0.475  10.138
75475SOL     OW28198   6.781   9.067   3.303
75475SOL    HW128199   6.739   9.113   3.230
75475SOL    HW228200   6.788   9.132   3.372
75476SOL     OW28201  14.316  11.270   2.739
75476SOL    HW128202  14.229  11.292   2.706
75476SOL    HW228203  14.362  11.232   2.664
75477SOL     OW28204   4.659   4.880   5.548
75477SOL    HW128205   4.723   4.940   5.511
75477SOL    HW228206   4.710   4.805   5.578
75478SOL     OW28207   5.286  13.738   4.797
75478SOL    HW128208   5.273  13.680   4.872
75478SOL    HW228209   5.280  13.826   4.833
75479SOL     OW28210  12.646  13.116   0.414
75479SOL    HW128211  12.638  13.033   0.366
75479SOL    HW228212  12.691  13.092   0.495
75480SOL     OW28213   7.771  10.390   9.633
75480SOL    HW128214   7.699  10.351   9.683
75480SOL    HW228215   7.744  10.381   9.542
75481SOL     OW28216   6.035   7.989   9.347
75481SOL    HW128217   6.116   7.991   9.397
75481SOL    HW228218   5.981   7.924   9.390
75482SOL     OW28219   4.335   9.652   4.226
75482SOL    HW128220   4.404   9.634   4.162
75482SOL    HW228221   4.277   9.576   4.219
75483SOL     OW28222   4.380   3.738   1.196
75483SOL    HW128223   4.386   3.748   1.291
75483SOL    HW228224   4.348   3.823   1.166
75484SOL     OW28225   1.783   5.018  14.144
75484SOL    HW128226   1.867   4.974  14.156
75484SOL    HW228227   1.782   5.044  14.052
75485SOL     OW28228   2.538  12.435  10.276
75485SOL    HW128229   2.470  12.441  10.344
75485SOL    HW228230   2.498  12.381  10.207
75486SOL     OW28231  10.036   8.726   3.087
75486SOL    HW128232  10.008   8.672   3.161
75486SOL    HW228233   9.958   8.735   3.032
75487SOL     OW28234  11.073  14.228  12.019
75487SOL    HW128235  11.125  14.219  12.099
75487SOL    HW228236  11.025  14.310  12.031
75488SOL     OW28237  13.249  10.960  14.339
75488SOL    HW128238  13.211  11.011  14.267
75488SOL    HW228239  13.176  10.907  14.371
75489SOL     OW28240   2.364  14.853   2.496
75489SOL    HW128241   2.421  14.846   2.572
75489SOL    HW228242   2.360   0.069   2.477
75490SOL     OW28243   6.428   0.193   5.236
75490SOL    HW128244   6.511   0.145   5.239
75490SOL    HW228245   6.453   0.283   5.216
75491SOL     OW28246   2.442  11.809  10.506
75491SOL    HW128247   2.531  11.811  10.470
75491SOL    HW228248   2.415  11.717  10.496
75492SOL     OW28249   6.085   5.284   6.635
75492SOL    HW128250   6.072   5.247   6.548
75492SOL    HW228251   6.010   5.253   6.686
75493SOL     OW28252   8.230  13.075  13.364
75493SOL    HW128253   8.194  12.993  13.398
75493SOL    HW228254   8.186  13.087  13.280
75494SOL     OW28255   2.973   2.948   0.979
75494SOL    HW128256   3.057   2.902   0.981
75494SOL    HW228257   2.921   2.898   0.915
75495SOL     OW28258   3.051  14.062  13.819
75495SOL    HW128259   3.139  14.052  13.783
75495SOL    HW228260   3.014  14.136  13.771
75496SOL     OW28261   4.064  12.090  14.852
75496SOL    HW128262   3.983  12.046  14.827
75496SOL    HW228263   4.042  12.137   0.055
75497SOL     OW28264  12.883   5.317   2.190
75497SOL    HW128265  12.820   5.322   2.118
75497SOL    HW228266  12.838   5.267   2.258
75498SOL     OW28267   1.172   6.816   3.533
75498SOL    HW128268   1.083   6.824   3.567
75498SOL    HW228269   1.194   6.723   3.545
75499SOL     OW28270   0.977   7.840   4.728
75499SOL    HW128271   0.883   7.854   4.727
75499SOL    HW228272   0.995   7.804   4.815
75500SOL     OW28273   4.869  13.944   3.324
75500SOL    HW128274   4.918  14.023   3.349
75500SOL    HW228275   4.813  13.926   3.399
75501SOL     OW28276   9.215   8.710   4.096
75501SOL    HW128277   9.213   8.770   4.021
75501SOL    HW228278   9.306   8.710   4.125
75502SOL     OW28279   7.389   2.697  11.371
75502SOL    HW128280   7.382   2.670  11.279
75502SOL    HW228281   7.451   2.769  11.370
75503SOL     OW28282   0.153  11.280   9.227
75503SOL    HW128283   0.242  11.291   9.260
75503SOL    HW228284   0.164  11.267   9.133
75504SOL     OW28285   9.759   6.924   1.911
75504SOL    HW128286   9.772   6.856   1.844
75504SOL    HW228287   9.713   6.880   1.982
75505SOL     OW28288   8.124   4.287   9.758
75505SOL    HW128289   8.198   4.270   9.700
75505SOL    HW228290   8.051   4.308   9.699
75506SOL     OW28291   5.381  10.350  11.159
75506SOL    HW128292   5.409  10.358  11.068
75506SOL    HW228293   5.463  10.339  11.207
75507SOL     OW28294   8.528   9.610  14.283
75507SOL    HW128295   8.548   9.666  14.358
75507SOL    HW228296   8.476   9.665  14.225
75508SOL     OW28297  12.454   3.690   8.592
75508SOL    HW128298  12.496   3.709   8.676
75508SOL    HW228299  12.401   3.612   8.609
75509SOL     OW28300   6.486  11.666   3.407
75509SOL    HW128301   6.467  11.584   3.452
75509SOL    HW228302   6.483  11.644   3.314
75510SOL     OW28303   6.165   9.723  10.322
75510SOL    HW128304   6.076   9.688  10.328
75510SOL    HW228305   6.216   9.671  10.384
75511SOL     OW28306   9.290  14.075  10.132
75511SOL    HW128307   9.342  14.047  10.208
75511SOL    HW228308   9.242  14.152  10.162
75512SOL     OW28309   2.447  10.083  11.749
75512SOL    HW128310   2.435  10.161  11.695
75512SOL    HW228311   2.383  10.093  11.819
75513SOL     OW28312   2.137  10.561  14.381
75513SOL    HW128313   2.057  10.590  14.423
75513SOL    HW228314   2.207  10.592  14.438
75514SOL     OW28315  14.533   6.922   4.992
75514SOL    HW128316  14.483   6.842   5.009
75514SOL    HW228317  14.563   6.914   4.902
75515SOL     OW28318   6.123  13.056  13.621
75515SOL    HW128319   6.082  13.134  13.657
75515SOL    HW228320   6.054  13.013  13.570
75516SOL     OW28321   5.838  10.538   6.760
75516SOL    HW128322   5.833  10.454   6.715
75516SOL    HW228323   5.906  10.526   6.826
75517SOL     OW28324  10.736   6.269  11.605
75517SOL    HW128325  10.671   6.255  11.536
75517SOL    HW228326  10.719   6.201  11.669
75518SOL     OW28327  13.206  13.749   6.974
75518SOL    HW128328  13.182  13.832   6.934
75518SOL    HW228329  13.300  13.754   6.987
75519SOL     OW28330  14.228  13.823   0.132
75519SOL    HW128331  14.241  13.821   0.226
75519SOL    HW228332  14.157  13.886   0.118
75520SOL     OW28333   1.626   8.256  13.760
75520SOL    HW128334   1.607   8.256  13.853
75520SOL    HW228335   1.595   8.342  13.729
75521SOL     OW28336  14.262   2.516  10.230
75521SOL    HW128337  14.215   2.565  10.297
75521SOL    HW228338  14.344   2.565  10.217
75522SOL     OW28339   7.875   6.025   0.063
75522SOL    HW128340   7.868   5.930   0.068
75522SOL    HW228341   7.968   6.041   0.044
75523SOL     OW28342  11.291   5.240   0.677
75523SOL    HW128343  11.251   5.174   0.734
75523SOL    HW228344  11.385   5.222   0.681
75524SOL     OW28345   2.187   8.219   6.735
75524SOL    HW128346   2.173   8.211   6.641
75524SOL    HW228347   2.166   8.310   6.755
75525SOL     OW28348   0.464   7.051  12.739
75525SOL    HW128349   0.507   7.131  12.711
75525SOL    HW228350   0.378   7.054  12.697
75526SOL     OW28351   2.317  10.295  11.571
75526SOL    HW128352   2.314  10.349  11.650
75526SOL    HW228353   2.394  10.327  11.524
75527SOL     OW28354   7.198  11.520   7.259
75527SOL    HW128355   7.222  11.565   7.178
75527SOL    HW228356   7.139  11.450   7.232
75528SOL     OW28357   3.950   4.580   3.815
75528SOL    HW128358   3.921   4.671   3.816
75528SOL    HW228359   3.994   4.570   3.730
75529SOL     OW28360   1.387   3.584  13.428
75529SOL    HW128361   1.342   3.601  13.511
75529SOL    HW228362   1.345   3.643  13.365
75530SOL     OW28363  13.747  11.549  10.369
75530SOL    HW128364  13.808  11.563  10.442
75530SOL    HW228365  13.800  11.563  10.291
75531SOL     OW28366   0.678  13.020  13.871
75531SOL    HW128367   0.637  12.947  13.825
75531SOL    HW228368   0.736  12.978  13.936
75532SOL     OW28369   3.150  10.573   2.844
75532SOL    HW128370   3.244  10.587   2.830
75532SOL    HW228371   3.125  10.510   2.775
75533SOL     OW28372  10.737   6.773   1.190
75533SOL    HW128373  10.824   6.752   1.156
75533SOL    HW228374  10.702   6.837   1.128
75534SOL     OW28375   0.785   1.445   3.622
75534SOL    HW128376   0.770   1.489   3.706
75534SOL    HW228377   0.769   1.353   3.640
75535SOL     OW28378   4.929  10.901   8.455
75535SOL    HW128379   4.852  10.846   8.474
75535SOL    HW228380   4.986  10.890   8.531
75536SOL     OW28381   4.091   5.891  10.040
75536SOL    HW128382   4.067   5.969   9.988
75536SOL    HW228383   4.129   5.927  10.120
75537SOL     OW28384   1.428   3.155  11.010
75537SOL    HW128385   1.445   3.185  11.099
75537SOL    HW228386   1.450   3.229  10.954
75538SOL     OW28387   8.637  12.982  10.954
75538SOL    HW128388   8.578  13.031  10.896
75538SOL    HW228389   8.619  12.890  10.934
75539SOL     OW28390   4.144  14.812  12.539
75539SOL    HW128391   4.202   0.003  12.571
75539SOL    HW228392   4.072  14.859  12.497
75540SOL     OW28393  14.344   8.326   3.220
75540SOL    HW128394  14.388   8.360   3.297
75540SOL    HW228395  14.266   8.380   3.210
75541SOL     OW28396   6.276  13.450  13.200
75541SOL    HW128397   6.253  13.393  13.273
75541SOL    HW228398   6.197  13.456  13.147
75542SOL     OW28399  13.744  12.868  13.160
75542SOL    HW128400  13.824  12.917  13.141
75542SOL    HW228401  13.722  12.892  13.250
75543SOL     OW28402   0.798   2.075  13.368
75543SOL    HW128403   0.743   2.020  13.312
75543SOL    HW228404   0.859   2.116  13.308
75544SOL     OW28405   6.498  12.809  13.756
75544SOL    HW128406   6.453  12.892  13.740
75544SOL    HW228407   6.591  12.833  13.765
75545SOL     OW28408   8.469  13.858   9.863
75545SOL    HW128409   8.438  13.794   9.927
75545SOL    HW228410   8.556  13.883   9.894
75546SOL     OW28411  12.001   3.083  10.490
75546SOL    HW128412  11.977   3.174  10.509
75546SOL    HW228413  12.057   3.057  10.563
75547SOL     OW28414   6.781  10.440  11.697
75547SOL    HW128415   6.718  10.503  11.662
75547SOL    HW228416   6.732  10.391  11.763
75548SOL     OW28417  10.252   0.782   2.308
75548SOL    HW128418  10.187   0.774   2.378
75548SOL    HW228419  10.302   0.860   2.330
75549SOL     OW28420   5.197  12.465  11.575
75549SOL    HW128421   5.154  12.451  11.491
75549SOL    HW228422   5.285  12.428  11.564
75550SOL     OW28423   8.084   9.557   2.289
75550SOL    HW128424   8.135   9.582   2.366
75550SOL    HW228425   8.054   9.468   2.308
75551SOL     OW28426   9.363   0.403   9.891
75551SOL    HW128427   9.338   0.310   9.896
75551SOL    HW228428   9.389   0.416   9.800
75552SOL     OW28429   3.611   6.639   8.837
75552SOL    HW128430   3.656   6.702   8.892
75552SOL    HW228431   3.519   6.665   8.840
75553SOL     OW28432  14.623  10.854   7.695
75553SOL    HW128433  14.695  10.901   7.653
75553SOL    HW228434  14.656  10.834   7.783
75554SOL     OW28435   3.251   2.630   0.302
75554SOL    HW128436   3.232   2.571   0.229
75554SOL    HW228437   3.334   2.600   0.338
75555SOL     OW28438   6.996   3.440  11.529
75555SOL    HW128439   7.056   3.422  11.456
75555SOL    HW228440   6.915   3.468  11.486
75556SOL     OW28441   7.620  13.126   1.637
75556SOL    HW128442   7.615  13.221   1.639
75556SOL    HW228443   7.695  13.108   1.580
75557SOL     OW28444   1.279  13.073   6.143
75557SOL    HW128445   1.338  13.005   6.176
75557SOL    HW228446   1.192  13.032   6.142
75558SOL     OW28447  14.425  12.905   2.897
75558SOL    HW128448  14.332  12.917   2.916
75558SOL    HW228449  14.449  12.826   2.945
75559SOL     OW28450  14.534   9.422   2.331
75559SOL    HW128451  14.485   9.345   2.359
75559SOL    HW228452  14.590   9.390   2.260
75560SOL     OW28453  12.997  12.955   8.887
75560SOL    HW128454  12.954  12.953   8.802
75560SOL    HW228455  12.926  12.948   8.950
75561SOL     OW28456   9.786   8.085   1.525
75561SOL    HW128457   9.739   8.101   1.607
75561SOL    HW228458   9.743   8.007   1.488
75562SOL     OW28459   0.415  14.745   9.352
75562SOL    HW128460   0.410  14.677   9.284
75562SOL    HW228461   0.509  14.761   9.361
75563SOL     OW28462   9.506   3.168   8.663
75563SOL    HW128463   9.481   3.256   8.634
75563SOL    HW228464   9.578   3.183   8.724
75564SOL     OW28465  11.224   8.787  14.787
75564SOL    HW128466  11.275   8.865  14.807
75564SOL    HW228467  11.244   8.726  14.859
75565SOL     OW28468  11.097   7.910   1.093
75565SOL    HW128469  11.108   7.829   1.143
75565SOL    HW228470  11.138   7.978   1.146
75566SOL     OW28471   0.989   7.380   0.542
75566SOL    HW128472   1.050   7.349   0.610
75566SOL    HW228473   0.993   7.312   0.474
75567SOL     OW28474   4.089   9.914   3.883
75567SOL    HW128475   4.113   9.837   3.934
75567SOL    HW228476   4.035   9.879   3.812
75568SOL     OW28477   3.132   9.135   1.731
75568SOL    HW128478   3.037   9.126   1.743
75568SOL    HW228479   3.169   9.063   1.782
75569SOL     OW28480  10.456   8.449   1.884
75569SOL    HW128481  10.398   8.478   1.813
75569SOL    HW228482  10.398   8.400   1.943
75570SOL     OW28483   6.064   9.644   3.747
75570SOL    HW128484   6.007   9.684   3.812
75570SOL    HW228485   6.128   9.712   3.726
75571SOL     OW28486   2.158   7.924   8.680
75571SOL    HW128487   2.114   8.002   8.646
75571SOL    HW228488   2.089   7.874   8.723
75572SOL     OW28489  10.422  13.214  11.986
75572SOL    HW128490  10.490  13.148  11.975
75572SOL    HW228491  10.448  13.263  12.064
75573SOL     OW28492   9.698   9.886   0.872
75573SOL    HW128493   9.609   9.914   0.852
75573SOL    HW228494   9.744   9.892   0.788
75574SOL     OW28495   9.581   0.978  14.782
75574SOL    HW128496   9.525   0.912  14.821
75574SOL    HW228497   9.657   0.982  14.839
75575SOL     OW28498  11.116   2.618   0.247
75575SOL    HW128499  11.181   2.586   0.309
75575SOL    HW228500  11.130   2.566   0.168
75576SOL     OW28501   4.629   1.867   1.449
75576SOL    HW128502   4.567   1.913   1.506
75576SOL    HW228503   4.709   1.861   1.501
75577SOL     OW28504  10.939   5.420  13.480
75577SOL    HW128505  10.904   5.332  13.466
75577SOL    HW228506  10.863   5.473  13.504
75578SOL     OW28507   3.298   0.621  10.716
75578SOL    HW128508   3.386   0.651  10.737
75578SOL    HW228509   3.250   0.700  10.693
75579SOL     OW28510   0.559  13.520  13.330
75579SOL    HW128511   0.598  13.435  13.310
75579SOL    HW228512   0.539  13.558  13.245
75580SOL     OW28513  13.822   6.821   5.859
75580SOL    HW128514  13.789   6.731   5.851
75580SOL    HW228515  13.910   6.811   5.893
75581SOL     OW28516   8.409   1.990   4.539
75581SOL    HW128517   8.392   1.931   4.613
75581SOL    HW228518   8.398   1.934   4.462
75582SOL     OW28519  11.752   8.616   6.468
75582SOL    HW128520  11.714   8.591   6.553
75582SOL    HW228521  11.681   8.662   6.423
75583SOL     OW28522  12.721   8.059   3.860
75583SOL    HW128523  12.764   8.016   3.786
75583SOL    HW228524  12.783   8.049   3.932
75584SOL     OW28525  12.395   1.067   4.747
75584SOL    HW128526  12.391   1.153   4.704
75584SOL    HW228527  12.355   1.007   4.685
75585SOL     OW28528   0.523   0.172   0.669
75585SOL    HW128529   0.600   0.222   0.693
75585SOL    HW228530   0.494   0.130   0.750
75586SOL     OW28531   5.714   6.935   1.207
75586SOL    HW128532   5.772   6.989   1.261
75586SOL    HW228533   5.709   6.982   1.124
75587SOL     OW28534  12.670   2.723   4.441
75587SOL    HW128535  12.762   2.698   4.440
75587SOL    HW228536  12.644   2.721   4.349
75588SOL     OW28537   2.793   7.635   2.354
75588SOL    HW128538   2.749   7.586   2.284
75588SOL    HW228539   2.745   7.612   2.433
75589SOL     OW28540   5.474  13.280   8.482
75589SOL    HW128541   5.404  13.343   8.498
75589SOL    HW228542   5.544  13.332   8.441
75590SOL     OW28543   4.751  13.317   5.238
75590SOL    HW128544   4.714  13.272   5.314
75590SOL    HW228545   4.800  13.250   5.192
75591SOL     OW28546  10.179   7.592   0.665
75591SOL    HW128547  10.110   7.537   0.702
75591SOL    HW228548  10.208   7.646   0.739
75592SOL     OW28549   4.906   4.420  11.998
75592SOL    HW128550   4.824   4.390  11.959
75592SOL    HW228551   4.957   4.452  11.923
75593SOL     OW28552   2.780   8.034   2.602
75593SOL    HW128553   2.860   8.038   2.550
75593SOL    HW228554   2.803   7.982   2.679
75594SOL     OW28555  13.025  13.762   8.415
75594SOL    HW128556  13.047  13.724   8.500
75594SOL    HW228557  13.075  13.710   8.352
75595SOL     OW28558   7.268   3.552   1.924
75595SOL    HW128559   7.312   3.632   1.955
75595SOL    HW228560   7.174   3.573   1.930
75596SOL     OW28561   7.470  11.830  10.514
75596SOL    HW128562   7.511  11.891  10.576
75596SOL    HW228563   7.414  11.774  10.569
75597SOL     OW28564   9.334   5.611  12.590
75597SOL    HW128565   9.417   5.619  12.544
75597SOL    HW228566   9.354   5.630  12.681
75598SOL     OW28567   3.130   1.962   6.635
75598SOL    HW128568   3.102   2.024   6.568
75598SOL    HW228569   3.071   1.888   6.625
75599SOL     OW28570  13.394   9.745   3.889
75599SOL    HW128571  13.356   9.827   3.920
75599SOL    HW228572  13.320   9.684   3.886
75600SOL     OW28573  11.557   5.732  11.901
75600SOL    HW128574  11.613   5.806  11.877
75600SOL    HW228575  11.606   5.654  11.875
75601SOL     OW28576   4.831   1.914  11.306
75601SOL    HW128577   4.851   1.836  11.254
75601SOL    HW228578   4.852   1.987  11.248
75602SOL     OW28579  13.108  12.971   6.171
75602SOL    HW128580  13.113  12.877   6.152
75602SOL    HW228581  13.085  13.011   6.088
75603SOL     OW28582   3.243  12.299   1.913
75603SOL    HW128583   3.279  12.357   1.846
75603SOL    HW228584   3.260  12.210   1.880
75604SOL     OW28585   6.734   1.432   9.880
75604SOL    HW128586   6.746   1.361   9.817
75604SOL    HW228587   6.823   1.462   9.900
75605SOL     OW28588   8.545  14.244  12.540
75605SOL    HW128589   8.551  14.153  12.510
75605SOL    HW228590   8.550  14.239  12.635
75606SOL     OW28591  14.187   8.154   6.059
75606SOL    HW128592  14.190   8.078   6.116
75606SOL    HW228593  14.274   8.194   6.069
75607SOL     OW28594  12.860   5.815   8.728
75607SOL    HW128595  12.865   5.810   8.632
75607SOL    HW228596  12.927   5.755   8.759
75608SOL     OW28597   7.700   1.743   2.028
75608SOL    HW128598   7.744   1.808   1.973
75608SOL    HW228599   7.657   1.795   2.096
75609SOL     OW28600   6.916   0.257   9.475
75609SOL    HW128601   6.955   0.274   9.389
75609SOL    HW228602   6.991   0.255   9.535
75610SOL     OW28603  11.725   3.274   7.567
75610SOL    HW128604  11.694   3.364   7.555
75610SOL    HW228605  11.782   3.258   7.491
75611SOL     OW28606   3.075  12.793   6.037
75611SOL    HW128607   3.140  12.863   6.022
75611SOL    HW228608   3.108  12.719   5.987
75612SOL     OW28609  10.830   8.212   7.232
75612SOL    HW128610  10.857   8.120   7.236
75612SOL    HW228611  10.853   8.240   7.144
75613SOL     OW28612   8.188   4.722  10.314
75613SOL    HW128613   8.223   4.798  10.268
75613SOL    HW228614   8.264   4.667  10.330
75614SOL     OW28615   7.740   5.004   9.881
75614SOL    HW128616   7.826   4.982   9.844
75614SOL    HW228617   7.679   4.944   9.838
75615SOL     OW28618   3.302  13.294   5.285
75615SOL    HW128619   3.212  13.304   5.253
75615SOL    HW228620   3.307  13.204   5.315
75616SOL     OW28621  10.114   0.123   5.421
75616SOL    HW128622  10.206   0.134   5.399
75616SOL    HW228623  10.066   0.162   5.348
75617SOL     OW28624  12.367  14.296  13.850
75617SOL    HW128625  12.380  14.389  13.868
75617SOL    HW228626  12.448  14.268  13.807
75618SOL     OW28627   2.920   5.047  12.756
75618SOL    HW128628   2.897   5.134  12.789
75618SOL    HW228629   2.928   4.994  12.835
75619SOL     OW28630  12.587   9.928  13.037
75619SOL    HW128631  12.632   9.850  13.004
75619SOL    HW228632  12.505   9.895  13.074
75620SOL     OW28633  11.415   5.913   2.042
75620SOL    HW128634  11.432   5.896   1.949
75620SOL    HW228635  11.332   5.961   2.042
75621SOL     OW28636  12.697   9.573  10.271
75621SOL    HW128637  12.786   9.593  10.299
75621SOL    HW228638  12.648   9.563  10.352
75622SOL     OW28639   1.239   3.176   4.969
75622SOL    HW128640   1.145   3.158   4.959
75622SOL    HW228641   1.281   3.115   4.908
75623SOL     OW28642   8.288  13.721  14.136
75623SOL    HW128643   8.352  13.659  14.101
75623SOL    HW228644   8.270  13.690  14.224
75624SOL     OW28645  14.234  11.813  10.579
75624SOL    HW128646  14.202  11.903  10.587
75624SOL    HW228647  14.213  11.789  10.489
75625SOL     OW28648  11.564   3.501   0.485
75625SOL    HW128649  11.650   3.506   0.444
75625SOL    HW228650  11.502   3.505   0.412
75626SOL     OW28651   0.814   5.661  13.102
75626SOL    HW128652   0.754   5.587  13.118
75626SOL    HW228653   0.792   5.690  13.014
75627SOL     OW28654  12.631  11.707   4.061
75627SOL    HW128655  12.567  11.751   4.006
75627SOL    HW228656  12.707  11.766   4.061
75628SOL     OW28657  11.879  10.888   4.531
75628SOL    HW128658  11.848  10.823   4.468
75628SOL    HW228659  11.893  10.967   4.480
75629SOL     OW28660   9.327  11.149   9.243
75629SOL    HW128661   9.349  11.240   9.225
75629SOL    HW228662   9.391  11.121   9.308
75630SOL     OW28663   7.654  13.064  13.933
75630SOL    HW128664   7.645  13.003  13.860
75630SOL    HW228665   7.644  13.150  13.893
75631SOL     OW28666   3.136  12.126   0.833
75631SOL    HW128667   3.154  12.032   0.825
75631SOL    HW228668   3.212  12.168   0.792
75632SOL     OW28669   3.643   8.246   7.593
75632SOL    HW128670   3.645   8.324   7.648
75632SOL    HW228671   3.625   8.174   7.654
75633SOL     OW28672  13.032   7.821  14.613
75633SOL    HW128673  13.127   7.833  14.625
75633SOL    HW228674  12.996   7.827  14.701
75634SOL     OW28675   9.265   6.532   2.668
75634SOL    HW128676   9.276   6.439   2.689
75634SOL    HW228677   9.188   6.535   2.611
75635SOL     OW28678   3.182  13.305   4.756
75635SOL    HW128679   3.192  13.210   4.759
75635SOL    HW228680   3.225  13.331   4.675
75636SOL     OW28681   8.066   1.304   8.348
75636SOL    HW128682   8.161   1.316   8.347
75636SOL    HW228683   8.041   1.309   8.256
75637SOL     OW28684  12.320   5.596  12.749
75637SOL    HW128685  12.366   5.525  12.793
75637SOL    HW228686  12.229   5.568  12.748
75638SOL     OW28687   7.065   1.557   0.054
75638SOL    HW128688   7.160   1.567   0.046
75638SOL    HW228689   7.045   1.592   0.140
75639SOL     OW28690  13.260   7.948   4.660
75639SOL    HW128691  13.203   7.932   4.736
75639SOL    HW228692  13.204   7.928   4.585
75640SOL     OW28693   0.729   0.005   3.249
75640SOL    HW128694   0.820   0.034   3.243
75640SOL    HW228695   0.729  14.815   3.317
75641SOL     OW28696   7.433   2.857  12.496
75641SOL    HW128697   7.397   2.809  12.421
75641SOL    HW228698   7.498   2.915  12.457
75642SOL     OW28699   6.358  13.279   3.530
75642SOL    HW128700   6.386  13.188   3.534
75642SOL    HW228701   6.306  13.291   3.610
75643SOL     OW28702   9.535   4.987  10.741
75643SOL    HW128703   9.533   5.068  10.792
75643SOL    HW228704   9.510   5.014  10.652
75644SOL     OW28705  13.485  10.299   5.303
75644SOL    HW128706  13.521  10.226   5.252
75644SOL    HW228707  13.393  10.303   5.278
75645SOL     OW28708   0.009   3.350   7.987
75645SOL    HW128709  14.804   3.396   8.005
75645SOL    HW228710  14.859   3.263   7.958
75646SOL     OW28711   1.546   1.756   8.178
75646SOL    HW128712   1.526   1.849   8.168
75646SOL    HW228713   1.482   1.724   8.242
75647SOL     OW28714   7.340   6.033   3.500
75647SOL    HW128715   7.268   5.979   3.532
75647SOL    HW228716   7.406   5.970   3.471
75648SOL     OW28717   6.474   4.059   2.479
75648SOL    HW128718   6.548   4.021   2.432
75648SOL    HW228719   6.481   4.153   2.464
75649SOL     OW28720   4.405   4.355   2.354
75649SOL    HW128721   4.462   4.282   2.329
75649SOL    HW228722   4.348   4.368   2.278
75650SOL     OW28723   6.243  12.684  10.849
75650SOL    HW128724   6.155  12.659  10.821
75650SOL    HW228725   6.302  12.631  10.796
75651SOL     OW28726   0.640  12.587   2.764
75651SOL    HW128727   0.693  12.596   2.685
75651SOL    HW228728   0.702  12.601   2.836
75652SOL     OW28729   7.663   8.016   1.567
75652SOL    HW128730   7.683   8.079   1.637
75652SOL    HW228731   7.745   8.007   1.519
75653SOL     OW28732  13.635   3.920   3.687
75653SOL    HW128733  13.542   3.897   3.683
75653SOL    HW228734  13.680   3.836   3.681
75654SOL     OW28735   5.386   8.449   5.959
75654SOL    HW128736   5.391   8.503   5.880
75654SOL    HW228737   5.339   8.370   5.931
75655SOL     OW28738   5.427   0.045  11.960
75655SOL    HW128739   5.345   0.013  11.923
75655SOL    HW228740   5.493  14.857  11.935
75656SOL     OW28741   4.550   9.734   7.300
75656SOL    HW128742   4.607   9.673   7.253
75656SOL    HW228743   4.488   9.765   7.233
75657SOL     OW28744   7.939  11.209  10.792
75657SOL    HW128745   8.031  11.194  10.815
75657SOL    HW228746   7.910  11.277  10.853
75658SOL     OW28747   6.476   4.135   0.512
75658SOL    HW128748   6.422   4.087   0.574
75658SOL    HW228749   6.531   4.069   0.470
75659SOL     OW28750   7.225   0.660  11.501
75659SOL    HW128751   7.309   0.670  11.457
75659SOL    HW228752   7.208   0.746  11.540
75660SOL     OW28753   4.205   4.096   6.100
75660SOL    HW128754   4.127   4.151   6.107
75660SOL    HW228755   4.175   4.018   6.054
75661SOL     OW28756   0.976   8.668   8.851
75661SOL    HW128757   0.959   8.599   8.916
75661SOL    HW228758   1.008   8.742   8.902
75662SOL     OW28759   4.686   2.672   0.911
75662SOL    HW128760   4.620   2.740   0.925
75662SOL    HW228761   4.759   2.717   0.869
75663SOL     OW28762   8.573   8.144   2.286
75663SOL    HW128763   8.485   8.113   2.264
75663SOL    HW228764   8.558   8.217   2.347
75664SOL     OW28765  13.650  13.676  12.481
75664SOL    HW128766  13.729  13.699  12.432
75664SOL    HW228767  13.665  13.710  12.569
75665SOL     OW28768   1.372   0.011  13.961
75665SOL    HW128769   1.438   0.079  13.969
75665SOL    HW228770   1.349  14.867  14.052
75666SOL     OW28771   1.033   5.855   7.589
75666SOL    HW128772   1.004   5.866   7.498
75666SOL    HW228773   1.046   5.761   7.598
75667SOL     OW28774   7.052   4.608  12.890
75667SOL    HW128775   7.109   4.631  12.817
75667SOL    HW228776   7.089   4.653  12.966
75668SOL     OW28777   7.546   7.483   6.943
75668SOL    HW128778   7.490   7.407   6.931
75668SOL    HW228779   7.589   7.468   7.027
75669SOL     OW28780   0.977   9.606  13.251
75669SOL    HW128781   0.927   9.688  13.250
75669SOL    HW228782   0.931   9.549  13.190
75670SOL     OW28783   1.364   8.313   6.641
75670SOL    HW128784   1.444   8.366   6.646
75670SOL    HW228785   1.392   8.225   6.669
75671SOL     OW28786   2.181  11.122   4.066
75671SOL    HW128787   2.223  11.037   4.072
75671SOL    HW228788   2.239  11.181   4.115
75672SOL     OW28789   2.259  13.367  13.025
75672SOL    HW128790   2.188  13.429  13.006
75672SOL    HW228791   2.227  13.284  12.990
75673SOL     OW28792   0.186   7.666   9.762
75673SOL    HW128793   0.132   7.590   9.744
75673SOL    HW228794   0.230   7.685   9.678
75674SOL     OW28795  13.328   1.388  10.827
75674SOL    HW128796  13.398   1.422  10.882
75674SOL    HW228797  13.249   1.429  10.860
75675SOL     OW28798   9.891  10.985   3.626
75675SOL    HW128799   9.953  10.982   3.700
75675SOL    HW228800   9.944  11.015   3.552
75676SOL     OW28801   0.002  10.290  13.767
75676SOL    HW128802   0.093  10.312  13.787
75676SOL    HW228803  14.864  10.328  13.680
75677SOL     OW28804   4.309   9.224   7.292
75677SOL    HW128805   4.398   9.189   7.302
75677SOL    HW228806   4.303   9.293   7.358
75678SOL     OW28807   9.449   0.357   1.843
75678SOL    HW128808   9.429   0.369   1.936
75678SOL    HW228809   9.484   0.268   1.837
75679SOL     OW28810   2.602   4.517   9.894
75679SOL    HW128811   2.578   4.535   9.803
75679SOL    HW228812   2.525   4.542   9.945
75680SOL     OW28813   5.972   0.590   8.750
75680SOL    HW128814   5.993   0.668   8.698
75680SOL    HW228815   5.895   0.553   8.708
75681SOL     OW28816   7.706   5.217   2.679
75681SOL    HW128817   7.737   5.261   2.600
75681SOL    HW228818   7.724   5.279   2.749
75682SOL     OW28819  10.546   2.915   5.636
75682SOL    HW128820  10.611   2.857   5.598
75682SOL    HW228821  10.578   3.003   5.616
75683SOL     OW28822   4.205  13.541   7.469
75683SOL    HW128823   4.202  13.593   7.550
75683SOL    HW228824   4.222  13.452   7.498
75684SOL     OW28825   2.937  10.146   5.777
75684SOL    HW128826   2.940  10.102   5.862
75684SOL    HW228827   2.891  10.229   5.794
75685SOL     OW28828  10.863  10.817   8.947
75685SOL    HW128829  10.781  10.768   8.955
75685SOL    HW228830  10.918  10.762   8.891
75686SOL     OW28831   1.131   4.239   1.519
75686SOL    HW128832   1.119   4.181   1.594
75686SOL    HW228833   1.048   4.287   1.512
75687SOL     OW28834  10.563   6.448   5.231
75687SOL    HW128835  10.542   6.519   5.171
75687SOL    HW228836  10.568   6.370   5.175
75688SOL     OW28837  13.880  14.086   8.363
75688SOL    HW128838  13.814  14.125   8.421
75688SOL    HW228839  13.916  14.013   8.414
75689SOL     OW28840   4.411  14.499   4.224
75689SOL    HW128841   4.371  14.567   4.278
75689SOL    HW228842   4.478  14.460   4.280
75690SOL     OW28843  13.687   2.223   8.793
75690SOL    HW128844  13.739   2.182   8.862
75690SOL    HW228845  13.634   2.152   8.758
75691SOL     OW28846   9.006   7.173   5.379
75691SOL    HW128847   9.045   7.134   5.300
75691SOL    HW228848   8.912   7.177   5.359
75692SOL     OW28849   8.278   9.229   3.054
75692SOL    HW128850   8.345   9.176   3.096
75692SOL    HW228851   8.279   9.201   2.962
75693SOL     OW28852   7.467   7.935   3.101
75693SOL    HW128853   7.411   7.956   3.026
75693SOL    HW228854   7.549   7.981   3.083
75694SOL     OW28855  12.191   2.514  13.525
75694SOL    HW128856  12.210   2.455  13.597
75694SOL    HW228857  12.096   2.506  13.512
75695SOL     OW28858  12.380  13.563   7.654
75695SOL    HW128859  12.410  13.473   7.641
75695SOL    HW228860  12.461  13.615   7.659
75696SOL     OW28861   8.690  10.326   7.686
75696SOL    HW128862   8.595  10.321   7.696
75696SOL    HW228863   8.724  10.326   7.776
75697SOL     OW28864   2.016   8.470   7.081
75697SOL    HW128865   2.110   8.490   7.083
75697SOL    HW228866   2.011   8.378   7.056
75698SOL     OW28867  14.348  14.346  12.208
75698SOL    HW128868  14.353  14.253  12.186
75698SOL    HW228869  14.415  14.387  12.154
75699SOL     OW28870   1.413   4.060   6.890
75699SOL    HW128871   1.355   4.136   6.896
75699SOL    HW228872   1.426   4.047   6.796
75700SOL     OW28873   5.719  13.040   7.207
75700SOL    HW128874   5.645  13.055   7.266
75700SOL    HW228875   5.689  12.972   7.146
75701SOL     OW28876   1.406   7.627   1.829
75701SOL    HW128877   1.460   7.633   1.908
75701SOL    HW228878   1.463   7.659   1.758
75702SOL     OW28879  13.692   2.376  11.653
75702SOL    HW128880  13.636   2.300  11.635
75702SOL    HW228881  13.778   2.350  11.621
75703SOL     OW28882  11.823  12.878   6.097
75703SOL    HW128883  11.742  12.929   6.092
75703SOL    HW228884  11.853  12.872   6.007
75704SOL     OW28885   8.019   1.652   0.237
75704SOL    HW128886   7.974   1.736   0.237
75704SOL    HW228887   8.110   1.674   0.256
75705SOL     OW28888  12.099   3.676  10.870
75705SOL    HW128889  12.028   3.622  10.905
75705SOL    HW228890  12.178   3.638  10.908
75706SOL     OW28891   6.644   1.919   6.066
75706SOL    HW128892   6.616   1.985   6.002
75706SOL    HW228893   6.570   1.858   6.072
75707SOL     OW28894   7.279  10.784  10.147
75707SOL    HW128895   7.266  10.840  10.070
75707SOL    HW228896   7.196  10.789  10.194
75708SOL     OW28897  12.911   8.409  12.181
75708SOL    HW128898  12.823   8.421  12.217
75708SOL    HW228899  12.914   8.466  12.104
75709SOL     OW28900  14.043  12.778   4.860
75709SOL    HW128901  13.967  12.747   4.910
75709SOL    HW228902  14.015  12.864   4.827
75710SOL     OW28903   0.794   3.532  11.104
75710SOL    HW128904   0.781   3.492  11.190
75710SOL    HW228905   0.815   3.459  11.046
75711SOL     OW28906  10.421   7.767  10.212
75711SOL    HW128907  10.431   7.833  10.144
75711SOL    HW228908  10.361   7.806  10.275
75712SOL     OW28909   8.972   5.009   8.551
75712SOL    HW128910   8.923   5.064   8.611
75712SOL    HW228911   8.911   4.990   8.480
75713SOL     OW28912   6.686   5.322   5.497
75713SOL    HW128913   6.694   5.277   5.412
75713SOL    HW228914   6.670   5.413   5.474
75714SOL     OW28915  10.532  14.421   4.897
75714SOL    HW128916  10.543  14.509   4.860
75714SOL    HW228917  10.541  14.362   4.822
75715SOL     OW28918  11.421  10.330  10.593
75715SOL    HW128919  11.507  10.371  10.585
75715SOL    HW228920  11.405  10.291  10.507
75716SOL     OW28921  11.250   9.959  12.506
75716SOL    HW128922  11.226   9.894  12.572
75716SOL    HW228923  11.339   9.935  12.480
75717SOL     OW28924   2.509  13.302   8.106
75717SOL    HW128925   2.420  13.273   8.129
75717SOL    HW228926   2.511  13.394   8.131
75718SOL     OW28927  11.211  11.448   7.303
75718SOL    HW128928  11.217  11.465   7.209
75718SOL    HW228929  11.276  11.508   7.341
75719SOL     OW28930  10.046  10.766  13.544
75719SOL    HW128931  10.068  10.858  13.529
75719SOL    HW228932  10.047  10.727  13.457
75720SOL     OW28933   3.939   1.749   9.832
75720SOL    HW128934   3.864   1.730   9.888
75720SOL    HW228935   3.909   1.819   9.774
75721SOL     OW28936   3.723  12.422  10.486
75721SOL    HW128937   3.803  12.471  10.504
75721SOL    HW228938   3.743  12.333  10.514
75722SOL     OW28939   7.403   5.524   4.185
75722SOL    HW128940   7.354   5.548   4.264
75722SOL    HW228941   7.493   5.511   4.216
75723SOL     OW28942   1.460  14.624   7.178
75723SOL    HW128943   1.523  14.656   7.113
75723SOL    HW228944   1.493  14.655   7.262
75724SOL     OW28945  13.382  13.947   8.335
75724SOL    HW128946  13.465  13.977   8.297
75724SOL    HW228947  13.348  14.024   8.381
75725SOL     OW28948  12.896  14.478  13.662
75725SOL    HW128949  12.877  14.471  13.756
75725SOL    HW228950  12.961  14.411  13.645
75726SOL     OW28951   8.442   9.289  11.082
75726SOL    HW128952   8.486   9.327  11.158
75726SOL    HW228953   8.365   9.344  11.069
75727SOL     OW28954   0.463  10.526   2.546
75727SOL    HW128955   0.415  10.602   2.577
75727SOL    HW228956   0.411  10.492   2.473
75728SOL     OW28957  11.741   0.168  11.251
75728SOL    HW128958  11.793   0.159  11.330
75728SOL    HW228959  11.805   0.176  11.180
75729SOL     OW28960   3.583  10.107   7.726
75729SOL    HW128961   3.516  10.165   7.762
75729SOL    HW228962   3.585  10.127   7.632
75730SOL     OW28963   5.197   4.320  12.205
75730SOL    HW128964   5.229   4.411  12.204
75730SOL    HW228965   5.113   4.325  12.250
75731SOL     OW28966   9.538   1.886   0.885
75731SOL    HW128967   9.542   1.799   0.845
75731SOL    HW228968   9.505   1.943   0.815
75732SOL     OW28969  12.605   2.139   7.487
75732SOL    HW128970  12.525   2.180   7.519
75732SOL    HW228971  12.618   2.175   7.400
75733SOL     OW28972   7.000   0.191   3.525
75733SOL    HW128973   7.085   0.197   3.480
75733SOL    HW228974   6.964   0.280   3.519
75734SOL     OW28975  11.367   1.968   7.974
75734SOL    HW128976  11.393   1.888   7.929
75734SOL    HW228977  11.443   1.992   8.027
75735SOL     OW28978  12.275   7.952   1.364
75735SOL    HW128979  12.277   8.006   1.443
75735SOL    HW228980  12.316   8.007   1.297
75736SOL     OW28981   9.195   0.377   7.747
75736SOL    HW128982   9.242   0.396   7.828
75736SOL    HW228983   9.238   0.300   7.712
75737SOL     OW28984  11.612   5.280  14.837
75737SOL    HW128985  11.535   5.333  14.858
75737SOL    HW228986  11.686   5.328  14.875
75738SOL     OW28987  12.548   4.604  11.551
75738SOL    HW128988  12.473   4.596  11.492
75738SOL    HW228989  12.528   4.679  11.606
75739SOL     OW28990   0.108  12.544  10.125
75739SOL    HW128991   0.182  12.556  10.185
75739SOL    HW228992   0.148  12.534  10.039
75740SOL     OW28993  11.869   4.745   6.547
75740SOL    HW128994  11.904   4.832   6.568
75740SOL    HW228995  11.863   4.700   6.631
75741SOL     OW28996  12.752   4.767   4.027
75741SOL    HW128997  12.838   4.730   4.049
75741SOL    HW228998  12.697   4.691   4.007
75742SOL     OW28999   9.695   9.417  11.045
75742SOL    HW129000   9.627   9.457  11.099
75742SOL    HW229001   9.649   9.389  10.966
75743SOL     OW29002   4.414  14.847   5.515
75743SOL    HW129003   4.419   0.053   5.468
75743SOL    HW229004   4.372  14.869   5.598
75744SOL     OW29005   0.142   6.132   9.065
75744SOL    HW129006   0.132   6.037   9.055
75744SOL    HW229007   0.223   6.143   9.114
75745SOL     OW29008   1.614   0.836   6.229
75745SOL    HW129009   1.535   0.784   6.245
75745SOL    HW229010   1.684   0.786   6.270
75746SOL     OW29011  11.490   2.803   9.597
75746SOL    HW129012  11.544   2.844   9.530
75746SOL    HW229013  11.404   2.841   9.585
75747SOL     OW29014   4.165   7.208  10.802
75747SOL    HW129015   4.135   7.195  10.892
75747SOL    HW229016   4.228   7.280  10.807
75748SOL     OW29017   6.874   9.892   8.590
75748SOL    HW129018   6.903   9.964   8.646
75748SOL    HW229019   6.868   9.817   8.649
75749SOL     OW29020  10.717  14.639  12.045
75749SOL    HW129021  10.661  14.589  12.104
75749SOL    HW229022  10.689  14.613  11.958
75750SOL     OW29023   6.159  13.246   4.285
75750SOL    HW129024   6.066  13.268   4.279
75750SOL    HW229025   6.159  13.154   4.312
75751SOL     OW29026  11.053   9.577  11.696
75751SOL    HW129027  11.106   9.570  11.616
75751SOL    HW229028  11.113   9.614  11.760
75752SOL     OW29029   6.782   0.716  10.536
75752SOL    HW129030   6.737   0.734  10.619
75752SOL    HW229031   6.720   0.745  10.469
75753SOL     OW29032   7.807  10.275  12.775
75753SOL    HW129033   7.751  10.323  12.713
75753SOL    HW229034   7.834  10.197  12.727
75754SOL     OW29035   1.831   7.548   6.416
75754SOL    HW129036   1.786   7.632   6.420
75754SOL    HW229037   1.879   7.542   6.498
75755SOL     OW29038   4.039  12.786  10.098
75755SOL    HW129039   4.030  12.875  10.132
75755SOL    HW229040   3.951  12.749  10.105
75756SOL     OW29041   7.937   3.875   0.258
75756SOL    HW129042   8.007   3.918   0.307
75756SOL    HW229043   7.872   3.852   0.325
75757SOL     OW29044   9.593   8.130   0.888
75757SOL    HW129045   9.686   8.109   0.897
75757SOL    HW229046   9.563   8.145   0.978
75758SOL     OW29047  11.003   7.647  14.182
75758SOL    HW129048  10.960   7.605  14.257
75758SOL    HW229049  11.095   7.622  14.191
75759SOL     OW29050   5.539   1.359  14.631
75759SOL    HW129051   5.501   1.417  14.564
75759SOL    HW229052   5.633   1.365  14.616
75760SOL     OW29053   3.463  14.678  12.892
75760SOL    HW129054   3.507  14.752  12.935
75760SOL    HW229055   3.440  14.620  12.965
75761SOL     OW29056   0.046   6.200   1.845
75761SOL    HW129057   0.120   6.247   1.883
75761SOL    HW229058   0.049   6.222   1.752
75762SOL     OW29059   4.390  13.798   2.001
75762SOL    HW129060   4.414  13.714   2.040
75762SOL    HW229061   4.382  13.857   2.075
75763SOL     OW29062  14.431  10.261   6.103
75763SOL    HW129063  14.430  10.167   6.117
75763SOL    HW229064  14.340  10.283   6.079
75764SOL     OW29065   2.053  10.890   2.538
75764SOL    HW129066   2.118  10.865   2.472
75764SOL    HW229067   2.097  10.877   2.622
75765SOL     OW29068   2.194   6.062  12.323
75765SOL    HW129069   2.110   6.086  12.364
75765SOL    HW229070   2.227   6.145  12.287
75766SOL     OW29071   8.270   4.120   7.813
75766SOL    HW129072   8.247   4.175   7.738
75766SOL    HW229073   8.260   4.177   7.889
75767SOL     OW29074  12.339   2.075   1.704
75767SOL    HW129075  12.405   2.021   1.749
75767SOL    HW229076  12.359   2.065   1.611
75768SOL     OW29077   8.004   0.678   0.998
75768SOL    HW129078   7.916   0.670   1.034
75768SOL    HW229079   7.996   0.647   0.908
75769SOL     OW29080   5.803   1.543   4.731
75769SOL    HW129081   5.880   1.488   4.743
75769SOL    HW229082   5.730   1.482   4.717
75770SOL     OW29083   2.230  11.465   3.181
75770SOL    HW129084   2.307  11.483   3.235
75770SOL    HW229085   2.195  11.551   3.161
75771SOL     OW29086  11.604  13.721  11.187
75771SOL    HW129087  11.517  13.735  11.150
75771SOL    HW229088  11.605  13.775  11.266
75772SOL     OW29089   3.193   5.862  14.306
75772SOL    HW129090   3.247   5.792  14.341
75772SOL    HW229091   3.152   5.824  14.228
75773SOL     OW29092  10.122   2.484   8.205
75773SOL    HW129093  10.067   2.409   8.225
75773SOL    HW229094  10.061   2.557   8.195
75774SOL     OW29095   7.664   0.061   9.914
75774SOL    HW129096   7.685   0.079  10.006
75774SOL    HW229097   7.590   0.117   9.894
75775SOL     OW29098   4.841   0.724  12.259
75775SOL    HW129099   4.907   0.690  12.321
75775SOL    HW229100   4.870   0.691  12.174
75776SOL     OW29101   0.409   7.259   9.833
75776SOL    HW129102   0.437   7.350   9.843
75776SOL    HW229103   0.359   7.240   9.912
75777SOL     OW29104   4.151   6.126   9.235
75777SOL    HW129105   4.167   6.219   9.217
75777SOL    HW229106   4.123   6.091   9.150
75778SOL     OW29107   1.093   5.517   3.065
75778SOL    HW129108   1.121   5.434   3.104
75778SOL    HW229109   1.122   5.511   2.974
75779SOL     OW29110   7.257   5.096  10.479
75779SOL    HW129111   7.311   5.031  10.524
75779SOL    HW229112   7.167   5.075  10.504
75780SOL     OW29113   9.466  11.640   4.361
75780SOL    HW129114   9.399  11.707   4.371
75780SOL    HW229115   9.418  11.562   4.332
75781SOL     OW29116  13.597   5.967   5.200
75781SOL    HW129117  13.622   5.904   5.132
75781SOL    HW229118  13.645   6.047   5.177
75782SOL     OW29119   9.826   8.669  13.946
75782SOL    HW129120   9.770   8.744  13.924
75782SOL    HW229121   9.915   8.706  13.950
75783SOL     OW29122   7.653  10.500   4.137
75783SOL    HW129123   7.580  10.447   4.104
75783SOL    HW229124   7.699  10.529   4.058
75784SOL     OW29125   3.772   5.844   0.362
75784SOL    HW129126   3.867   5.857   0.365
75784SOL    HW229127   3.741   5.875   0.447
75785SOL     OW29128   7.161  11.178   3.640
75785SOL    HW129129   7.188  11.096   3.599
75785SOL    HW229130   7.240  11.211   3.683
75786SOL     OW29131  14.455  10.257  14.399
75786SOL    HW129132  14.513  10.189  14.432
75786SOL    HW229133  14.394  10.211  14.342
75787SOL     OW29134  10.119   3.907  14.213
75787SOL    HW129135  10.092   3.984  14.262
75787SOL    HW229136  10.060   3.837  14.243
75788SOL     OW29137  12.297  13.183   1.736
75788SOL    HW129138  12.297  13.133   1.654
75788SOL    HW229139  12.262  13.122   1.801
75789SOL     OW29140   5.232   6.717   9.977
75789SOL    HW129141   5.165   6.784   9.988
75789SOL    HW229142   5.244   6.708   9.883
75790SOL     OW29143   9.181  10.950   7.481
75790SOL    HW129144   9.145  10.870   7.444
75790SOL    HW229145   9.156  11.019   7.420
75791SOL     OW29146   0.608   8.215  11.754
75791SOL    HW129147   0.569   8.152  11.815
75791SOL    HW229148   0.669   8.163  11.703
75792SOL     OW29149  12.341   4.492  12.676
75792SOL    HW129150  12.299   4.571  12.641
75792SOL    HW229151  12.429   4.494  12.639
75793SOL     OW29152   2.859   1.448   8.710
75793SOL    HW129153   2.936   1.448   8.766
75793SOL    HW229154   2.892   1.468   8.623
75794SOL     OW29155   8.916   6.494   9.129
75794SOL    HW129156   9.002   6.467   9.158
75794SOL    HW229157   8.863   6.498   9.208
75795SOL     OW29158   0.032   1.981  11.562
75795SOL    HW129159   0.089   2.042  11.514
75795SOL    HW229160   0.073   1.971  11.647
75796SOL     OW29161  10.317  12.377   0.676
75796SOL    HW129162  10.278  12.442   0.618
75796SOL    HW229163  10.410  12.397   0.675
75797SOL     OW29164  13.508  12.657   5.083
75797SOL    HW129165  13.427  12.707   5.086
75797SOL    HW229166  13.555  12.682   5.162
75798SOL     OW29167  12.805   3.058  11.534
75798SOL    HW129168  12.713   3.076  11.515
75798SOL    HW229169  12.854   3.120  11.480
75799SOL     OW29170   2.541   6.525   5.061
75799SOL    HW129171   2.604   6.514   4.990
75799SOL    HW229172   2.456   6.504   5.022
75800SOL     OW29173   8.772   4.846   2.483
75800SOL    HW129174   8.814   4.811   2.404
75800SOL    HW229175   8.841   4.894   2.529
75801SOL     OW29176  12.718  12.790  10.902
75801SOL    HW129177  12.765  12.867  10.934
75801SOL    HW229178  12.772  12.716  10.929
75802SOL     OW29179   0.884   8.502   0.592
75802SOL    HW129180   0.921   8.481   0.677
75802SOL    HW229181   0.913   8.592   0.575
75803SOL     OW29182  13.978   7.334   4.082
75803SOL    HW129183  14.063   7.376   4.079
75803SOL    HW229184  13.954   7.322   3.990
75804SOL     OW29185  12.196   4.667   1.694
75804SOL    HW129186  12.208   4.703   1.606
75804SOL    HW229187  12.153   4.582   1.680
75805SOL     OW29188   3.443   8.559   9.604
75805SOL    HW129189   3.443   8.655   9.598
75805SOL    HW229190   3.352   8.536   9.622
75806SOL     OW29191   0.093   8.498   6.087
75806SOL    HW129192   0.027   8.557   6.051
75806SOL    HW229193   0.169   8.554   6.102
75807SOL     OW29194   1.705   2.262   7.866
75807SOL    HW129195   1.624   2.255   7.917
75807SOL    HW229196   1.769   2.295   7.928
75808SOL     OW29197  13.854   9.940  11.133
75808SOL    HW129198  13.824   9.901  11.051
75808SOL    HW229199  13.907  10.015  11.106
75809SOL     OW29200   5.885  12.656  14.549
75809SOL    HW129201   5.880  12.584  14.612
75809SOL    HW229202   5.928  12.618  14.473
75810SOL     OW29203   1.423   6.153   4.417
75810SOL    HW129204   1.418   6.248   4.419
75810SOL    HW229205   1.511   6.134   4.385
75811SOL     OW29206  13.405   6.292   2.359
75811SOL    HW129207  13.392   6.210   2.312
75811SOL    HW229208  13.378   6.360   2.296
75812SOL     OW29209   5.203   8.925   4.158
75812SOL    HW129210   5.219   9.002   4.102
75812SOL    HW229211   5.281   8.919   4.213
75813SOL     OW29212  14.688   8.777   6.697
75813SOL    HW129213  14.662   8.738   6.781
75813SOL    HW229214  14.724   8.862   6.720
75814SOL     OW29215  12.886   7.604  11.573
75814SOL    HW129216  12.887   7.696  11.597
75814SOL    HW229217  12.806   7.593  11.521
75815SOL     OW29218   8.869  11.612  13.892
75815SOL    HW129219   8.774  11.617  13.894
75815SOL    HW229220   8.888  11.520  13.871
75816SOL     OW29221   3.296   2.303   0.668
75816SOL    HW129222   3.351   2.317   0.591
75816SOL    HW229223   3.353   2.260   0.731
75817SOL     OW29224   8.201   7.731   8.518
75817SOL    HW129225   8.288   7.690   8.523
75817SOL    HW229226   8.209   7.796   8.448
75818SOL     OW29227  14.450  10.201  12.153
75818SOL    HW129228  14.475  10.287  12.119
75818SOL    HW229229  14.479  10.140  12.085
75819SOL     OW29230   3.555   9.105  12.571
75819SOL    HW129231   3.587   9.195  12.567
75819SOL    HW229232   3.584   9.065  12.489
75820SOL     OW29233  14.805   2.313   2.209
75820SOL    HW129234   0.014   2.307   2.249
75820SOL    HW229235  14.797   2.234   2.155
75821SOL     OW29236   8.760   5.273  10.985
75821SOL    HW129237   8.765   5.226  10.902
75821SOL    HW229238   8.819   5.347  10.975
75822SOL     OW29239  10.970   1.446  14.227
75822SOL    HW129240  11.024   1.420  14.152
75822SOL    HW229241  11.018   1.415  14.304
75823SOL     OW29242  12.594   1.561  14.790
75823SOL    HW129243  12.524   1.536  14.730
75823SOL    HW229244  12.667   1.587  14.732
75824SOL     OW29245   9.969  13.799  10.685
75824SOL    HW129246   9.975  13.765  10.774
75824SOL    HW229247   9.926  13.729  10.636
75825SOL     OW29248   0.131   4.944   9.377
75825SOL    HW129249   0.139   4.852   9.351
75825SOL    HW229250   0.071   4.982   9.313
75826SOL     OW29251   7.091   0.177   5.674
75826SOL    HW129252   7.134   0.094   5.693
75826SOL    HW229253   7.102   0.189   5.580
75827SOL     OW29254   1.306   0.192  13.405
75827SOL    HW129255   1.362   0.265  13.378
75827SOL    HW229256   1.365   0.134  13.453
75828SOL     OW29257   6.800   3.792   3.869
75828SOL    HW129258   6.774   3.731   3.800
75828SOL    HW229259   6.883   3.830   3.838
75829SOL     OW29260  10.316   5.731  12.037
75829SOL    HW129261  10.325   5.714  11.943
75829SOL    HW229262  10.343   5.822  12.047
75830SOL     OW29263  13.797  13.182   6.388
75830SOL    HW129264  13.713  13.146   6.359
75830SOL    HW229265  13.824  13.239   6.316
75831SOL     OW29266   5.276  11.656   5.859
75831SOL    HW129267   5.215  11.728   5.877
75831SOL    HW229268   5.301  11.667   5.768
75832SOL     OW29269   7.647  12.872   7.751
75832SOL    HW129270   7.742  12.885   7.744
75832SOL    HW229271   7.637  12.779   7.771
75833SOL     OW29272  13.765  12.982  14.360
75833SOL    HW129273  13.726  12.896  14.373
75833SOL    HW229274  13.812  13.000  14.442
75834SOL     OW29275  13.278   7.931  10.737
75834SOL    HW129276  13.256   7.966  10.650
75834SOL    HW229277  13.279   8.008  10.794
75835SOL     OW29278  13.256   6.977  11.064
75835SOL    HW129279  13.257   6.960  10.970
75835SOL    HW229280  13.228   7.069  11.071
75836SOL     OW29281   1.601   4.728   7.156
75836SOL    HW129282   1.675   4.768   7.110
75836SOL    HW229283   1.524   4.771   7.119
75837SOL     OW29284  11.270  14.132   9.402
75837SOL    HW129285  11.195  14.073   9.401
75837SOL    HW229286  11.318  14.111   9.322
75838SOL     OW29287  11.022   2.497  11.967
75838SOL    HW129288  11.009   2.590  11.945
75838SOL    HW229289  11.047   2.456  11.884
75839SOL     OW29290   8.987   4.247   5.392
75839SOL    HW129291   8.999   4.207   5.305
75839SOL    HW229292   9.051   4.317   5.395
75840SOL     OW29293  12.235   4.289  10.462
75840SOL    HW129294  12.216   4.382  10.453
75840SOL    HW229295  12.308   4.273  10.402
75841SOL     OW29296   9.424   6.874   6.855
75841SOL    HW129297   9.516   6.903   6.857
75841SOL    HW229298   9.413   6.833   6.769
75842SOL     OW29299  12.590   3.732   6.318
75842SOL    HW129300  12.676   3.698   6.344
75842SOL    HW229301  12.534   3.654   6.316
75843SOL     OW29302   7.089   8.470   9.457
75843SOL    HW129303   7.078   8.565   9.447
75843SOL    HW229304   7.029   8.447   9.528
75844SOL     OW29305   9.644  14.420   6.487
75844SOL    HW129306   9.608  14.332   6.475
75844SOL    HW229307   9.737  14.410   6.467
75845SOL     OW29308   5.984   9.227   9.395
75845SOL    HW129309   5.912   9.225   9.333
75845SOL    HW229310   6.055   9.178   9.352
75846SOL     OW29311   3.641   0.244   3.367
75846SOL    HW129312   3.682   0.157   3.363
75846SOL    HW229313   3.701   0.297   3.419
75847SOL     OW29314   8.855   1.289  13.962
75847SOL    HW129315   8.880   1.344  13.887
75847SOL    HW229316   8.935   1.242  13.984
75848SOL     OW29317  14.271   9.970   7.871
75848SOL    HW129318  14.250   9.957   7.964
75848SOL    HW229319  14.218   9.905   7.825
75849SOL     OW29320  13.383   1.813  11.783
75849SOL    HW129321  13.409   1.904  11.795
75849SOL    HW229322  13.457   1.762  11.815
75850SOL     OW29323   2.318   7.702   0.917
75850SOL    HW129324   2.398   7.732   0.960
75850SOL    HW229325   2.257   7.775   0.926
75851SOL     OW29326   7.738   3.352   4.046
75851SOL    HW129327   7.775   3.290   4.109
75851SOL    HW229328   7.654   3.379   4.085
75852SOL     OW29329  13.673   6.304   5.616
75852SOL    HW129330  13.677   6.223   5.667
75852SOL    HW229331  13.737   6.291   5.546
75853SOL     OW29332  12.756   7.575   8.785
75853SOL    HW129333  12.718   7.518   8.852
75853SOL    HW229334  12.686   7.636   8.763
75854SOL     OW29335   9.631   3.100   2.101
75854SOL    HW129336   9.629   3.111   2.196
75854SOL    HW229337   9.720   3.069   2.082
75855SOL     OW29338   9.041   9.685  10.787
75855SOL    HW129339   9.117   9.682  10.729
75855SOL    HW229340   9.043   9.772  10.825
75856SOL     OW29341  11.802   9.845   2.791
75856SOL    HW129342  11.857   9.906   2.741
75856SOL    HW229343  11.851   9.831   2.872
75857SOL     OW29344   5.502  13.530  11.544
75857SOL    HW129345   5.536  13.460  11.599
75857SOL    HW229346   5.529  13.611  11.587
75858SOL     OW29347   7.863  13.299   5.585
75858SOL    HW129348   7.776  13.281   5.549
75858SOL    HW229349   7.923  13.245   5.533
75859SOL     OW29350   9.963   6.409   5.318
75859SOL    HW129351  10.038   6.384   5.371
75859SOL    HW229352   9.912   6.467   5.374
75860SOL     OW29353   0.733  12.190   8.476
75860SOL    HW129354   0.768  12.111   8.434
75860SOL    HW229355   0.808  12.250   8.481
75861SOL     OW29356  13.619   7.624   2.635
75861SOL    HW129357  13.581   7.670   2.560
75861SOL    HW229358  13.619   7.532   2.609
75862SOL     OW29359   8.025   8.101  13.835
75862SOL    HW129360   8.030   8.035  13.766
75862SOL    HW229361   8.113   8.105  13.872
75863SOL     OW29362   6.900   5.792  13.595
75863SOL    HW129363   6.885   5.807  13.688
75863SOL    HW229364   6.813   5.777  13.558
75864SOL     OW29365   4.871  10.396  14.160
75864SOL    HW129366   4.796  10.391  14.219
75864SOL    HW229367   4.900  10.487  14.167
75865SOL     OW29368   3.885   6.378   7.926
75865SOL    HW129369   3.815   6.313   7.917
75865SOL    HW229370   3.940   6.366   7.849
75866SOL     OW29371  13.348  11.180  13.264
75866SOL    HW129372  13.311  11.138  13.342
75866SOL    HW229373  13.273  11.224  13.223
75867SOL     OW29374   7.589   5.733   9.126
75867SOL    HW129375   7.598   5.723   9.220
75867SOL    HW229376   7.561   5.824   9.114
75868SOL     OW29377   0.271   5.883   0.065
75868SOL    HW129378   0.247   5.969   0.032
75868SOL    HW229379   0.328   5.846  14.875
75869SOL     OW29380  12.773  10.430   9.606
75869SOL    HW129381  12.781  10.487   9.682
75869SOL    HW229382  12.844  10.366   9.617
75870SOL     OW29383   6.733  12.615  13.900
75870SOL    HW129384   6.728  12.703  13.937
75870SOL    HW229385   6.788  12.625  13.822
75871SOL     OW29386  12.738  14.353   5.143
75871SOL    HW129387  12.736  14.362   5.239
75871SOL    HW229388  12.751  14.259   5.128
75872SOL     OW29389  11.767  13.731   0.872
75872SOL    HW129390  11.681  13.741   0.914
75872SOL    HW229391  11.770  13.801   0.807
75873SOL     OW29392   8.854  13.966   4.439
75873SOL    HW129393   8.890  13.879   4.457
75873SOL    HW229394   8.842  13.969   4.344
75874SOL     OW29395   4.063  13.493  13.209
75874SOL    HW129396   4.040  13.401  13.227
75874SOL    HW229397   4.150  13.488  13.170
75875SOL     OW29398   8.266   9.670   7.167
75875SOL    HW129399   8.305   9.632   7.245
75875SOL    HW229400   8.207   9.603   7.133
75876SOL     OW29401  12.118   6.362  13.388
75876SOL    HW129402  12.076   6.405  13.313
75876SOL    HW229403  12.208   6.394  13.387
75877SOL     OW29404   9.378   7.705  10.728
75877SOL    HW129405   9.415   7.748  10.805
75877SOL    HW229406   9.455   7.678  10.677
75878SOL     OW29407   9.705   6.495  12.529
75878SOL    HW129408   9.609   6.499  12.529
75878SOL    HW229409   9.728   6.473  12.619
75879SOL     OW29410   0.967  10.990  12.335
75879SOL    HW129411   0.968  10.895  12.350
75879SOL    HW229412   1.018  11.003  12.256
75880SOL     OW29413   5.767  11.225   8.086
75880SOL    HW129414   5.692  11.167   8.075
75880SOL    HW229415   5.768  11.247   8.179
75881SOL     OW29416  14.869   2.580  12.510
75881SOL    HW129417  14.776   2.563  12.524
75881SOL    HW229418   0.032   2.494  12.507
75882SOL     OW29419   2.481  13.235   6.389
75882SOL    HW129420   2.562  13.263   6.345
75882SOL    HW229421   2.502  13.243   6.482
75883SOL     OW29422   7.358   5.247   2.471
75883SOL    HW129423   7.383   5.234   2.379
75883SOL    HW229424   7.354   5.159   2.507
75884SOL     OW29425   6.200   9.825   2.766
75884SOL    HW129426   6.232   9.743   2.729
75884SOL    HW229427   6.189   9.807   2.859
75885SOL     OW29428   0.534  14.550   1.622
75885SOL    HW129429   0.490  14.549   1.707
75885SOL    HW229430   0.627  14.538   1.643
75886SOL     OW29431   4.731   0.866   3.490
75886SOL    HW129432   4.670   0.933   3.520
75886SOL    HW229433   4.710   0.854   3.398
75887SOL     OW29434   3.826  10.281   6.949
75887SOL    HW129435   3.847  10.335   7.025
75887SOL    HW229436   3.907  10.281   6.897
75888SOL     OW29437   5.308  11.043   5.156
75888SOL    HW129438   5.393  10.999   5.154
75888SOL    HW229439   5.255  10.991   5.216
75889SOL     OW29440   5.952   0.800   6.112
75889SOL    HW129441   5.990   0.886   6.097
75889SOL    HW229442   6.019   0.738   6.082
75890SOL     OW29443  14.088   1.688  11.064
75890SOL    HW129444  14.159   1.740  11.026
75890SOL    HW229445  14.071   1.729  11.148
75891SOL     OW29446  14.170   4.015   6.366
75891SOL    HW129447  14.227   3.983   6.436
75891SOL    HW229448  14.117   4.083   6.408
75892SOL     OW29449   5.131   6.283   6.064
75892SOL    HW129450   5.160   6.372   6.044
75892SOL    HW229451   5.203   6.227   6.035
75893SOL     OW29452   3.614   8.017   1.762
75893SOL    HW129453   3.634   8.106   1.733
75893SOL    HW229454   3.654   7.961   1.695
75894SOL     OW29455   2.621   3.698   9.632
75894SOL    HW129456   2.703   3.716   9.587
75894SOL    HW229457   2.555   3.693   9.563
75895SOL     OW29458   1.354  12.718  11.578
75895SOL    HW129459   1.351  12.809  11.548
75895SOL    HW229460   1.311  12.668  11.508
75896SOL     OW29461   3.648   0.644   2.958
75896SOL    HW129462   3.713   0.609   3.018
75896SOL    HW229463   3.644   0.738   2.978
75897SOL     OW29464  11.531   9.910   9.333
75897SOL    HW129465  11.491   9.981   9.382
75897SOL    HW229466  11.615   9.894   9.378
75898SOL     OW29467   0.738   2.800  14.623
75898SOL    HW129468   0.742   2.717  14.576
75898SOL    HW229469   0.725   2.867  14.555
75899SOL     OW29470   8.010   7.970   1.198
75899SOL    HW129471   8.021   8.064   1.211
75899SOL    HW229472   7.973   7.962   1.110
75900SOL     OW29473  13.427  13.207   0.206
75900SOL    HW129474  13.389  13.286   0.245
75900SOL    HW229475  13.402  13.211   0.114
75901SOL     OW29476   3.081   3.919   6.351
75901SOL    HW129477   3.001   3.967   6.326
75901SOL    HW229478   3.145   3.942   6.284
75902SOL     OW29479   2.181   7.275   6.664
75902SOL    HW129480   2.132   7.247   6.741
75902SOL    HW229481   2.272   7.255   6.685
75903SOL     OW29482  10.475   8.932   6.322
75903SOL    HW129483  10.431   8.913   6.405
75903SOL    HW229484  10.414   8.902   6.255
75904SOL     OW29485   0.128   5.761   5.323
75904SOL    HW129486   0.200   5.820   5.302
75904SOL    HW229487   0.086   5.800   5.400
75905SOL     OW29488   8.474   1.068  11.271
75905SOL    HW129489   8.391   1.115  11.278
75905SOL    HW229490   8.471   1.003  11.341
75906SOL     OW29491   3.837   9.534  13.136
75906SOL    HW129492   3.746   9.552  13.159
75906SOL    HW229493   3.838   9.441  13.112
75907SOL     OW29494  13.842  13.975  10.958
75907SOL    HW129495  13.934  13.980  10.980
75907SOL    HW229496  13.829  13.885  10.928
75908SOL     OW29497  13.284   3.977  14.132
75908SOL    HW129498  13.365   3.959  14.085
75908SOL    HW229499  13.300   4.061  14.176
75909SOL     OW29500  10.635  13.016  11.967
75909SOL    HW129501  10.716  12.977  11.933
75909SOL    HW229502  10.572  12.944  11.965
75910SOL     OW29503  10.379  12.086   1.140
75910SOL    HW129504  10.284  12.073   1.146
75910SOL    HW229505  10.390  12.153   1.073
75911SOL     OW29506   0.509  12.099   7.449
75911SOL    HW129507   0.424  12.094   7.493
75911SOL    HW229508   0.515  12.017   7.400
75912SOL     OW29509   6.228   0.433   0.341
75912SOL    HW129510   6.181   0.471   0.414
75912SOL    HW229511   6.227   0.339   0.358
75913SOL     OW29512   8.317   7.603   9.785
75913SOL    HW129513   8.348   7.567   9.702
75913SOL    HW229514   8.340   7.696   9.780
75914SOL     OW29515  14.180   3.621  11.098
75914SOL    HW129516  14.253   3.641  11.157
75914SOL    HW229517  14.102   3.638  11.150
75915SOL     OW29518   1.815  14.691  10.347
75915SOL    HW129519   1.772  14.626  10.402
75915SOL    HW229520   1.892  14.718  10.398
75916SOL     OW29521  14.774   4.351   7.892
75916SOL    HW129522  14.780   4.359   7.987
75916SOL    HW229523  14.775   4.256   7.875
75917SOL     OW29524   4.417   5.163   3.795
75917SOL    HW129525   4.362   5.240   3.781
75917SOL    HW229526   4.357   5.097   3.830
75918SOL     OW29527   1.541   1.808   6.398
75918SOL    HW129528   1.554   1.717   6.370
75918SOL    HW229529   1.590   1.860   6.334
75919SOL     OW29530   2.002   9.680   9.320
75919SOL    HW129531   2.044   9.765   9.306
75919SOL    HW229532   1.956   9.689   9.404
75920SOL     OW29533  11.805  14.472   4.774
75920SOL    HW129534  11.741  14.478   4.704
75920SOL    HW229535  11.756  14.497   4.853
75921SOL     OW29536  13.520   4.007  13.508
75921SOL    HW129537  13.505   3.914  13.491
75921SOL    HW229538  13.614   4.018  13.496
75922SOL     OW29539   4.959   4.279   5.886
75922SOL    HW129540   4.961   4.375   5.890
75922SOL    HW229541   4.880   4.258   5.836
75923SOL     OW29542   4.507   7.968   1.829
75923SOL    HW129543   4.602   7.975   1.843
75923SOL    HW229544   4.472   8.050   1.864
75924SOL     OW29545  13.026  11.927   3.913
75924SOL    HW129546  13.087  11.936   3.986
75924SOL    HW229547  13.082  11.925   3.835
75925SOL     OW29548   5.240   7.259  14.496
75925SOL    HW129549   5.191   7.179  14.518
75925SOL    HW229550   5.211   7.323  14.561
75926SOL     OW29551   4.749   7.169   5.757
75926SOL    HW129552   4.734   7.075   5.744
75926SOL    HW229553   4.694   7.192   5.832
75927SOL     OW29554   1.988   1.474  13.830
75927SOL    HW129555   1.943   1.545  13.876
75927SOL    HW229556   2.081   1.491  13.846
75928SOL     OW29557   4.792   2.758   7.129
75928SOL    HW129558   4.759   2.709   7.205
75928SOL    HW229559   4.815   2.691   7.065
75929SOL     OW29560   4.430  14.773   6.565
75929SOL    HW129561   4.369  14.775   6.639
75929SOL    HW229562   4.374  14.757   6.489
75930SOL     OW29563   3.438   2.957   3.157
75930SOL    HW129564   3.393   2.954   3.242
75930SOL    HW229565   3.524   2.993   3.177
75931SOL     OW29566   3.999  13.445   6.570
75931SOL    HW129567   3.952  13.362   6.575
75931SOL    HW229568   3.934  13.511   6.595
75932SOL     OW29569   6.918   5.418   8.884
75932SOL    HW129570   6.905   5.429   8.789
75932SOL    HW229571   6.852   5.353   8.909
75933SOL     OW29572   1.277  13.282   5.727
75933SOL    HW129573   1.325  13.363   5.708
75933SOL    HW229574   1.279  13.234   5.644
75934SOL     OW29575   0.558  12.080  10.018
75934SOL    HW129576   0.587  11.989  10.013
75934SOL    HW229577   0.630  12.130   9.979
75935SOL     OW29578  12.823   5.388   2.972
75935SOL    HW129579  12.740   5.411   2.930
75935SOL    HW229580  12.807   5.402   3.065
75936SOL     OW29581   8.751  13.622   9.543
75936SOL    HW129582   8.843  13.632   9.518
75936SOL    HW229583   8.702  13.654   9.467
75937SOL     OW29584   6.075   3.723   2.899
75937SOL    HW129585   6.096   3.765   2.982
75937SOL    HW229586   6.132   3.646   2.896
75938SOL     OW29587  13.984   8.775   0.505
75938SOL    HW129588  13.995   8.870   0.500
75938SOL    HW229589  13.896   8.763   0.540
75939SOL     OW29590  10.303   0.024  13.393
75939SOL    HW129591  10.359   0.086  13.347
75939SOL    HW229592  10.232   0.006  13.331
75940SOL     OW29593   5.904   0.959   2.820
75940SOL    HW129594   5.820   0.995   2.850
75940SOL    HW229595   5.910   0.987   2.729
75941SOL     OW29596   8.227  13.855  12.802
75941SOL    HW129597   8.181  13.883  12.882
75941SOL    HW229598   8.282  13.929  12.779
75942SOL     OW29599   4.561  11.281   2.725
75942SOL    HW129600   4.503  11.244   2.658
75942SOL    HW229601   4.525  11.369   2.741
75943SOL     OW29602   8.714   9.067   4.397
75943SOL    HW129603   8.700   9.156   4.430
75943SOL    HW229604   8.763   9.023   4.466
75944SOL     OW29605   0.945   7.773   6.825
75944SOL    HW129606   1.030   7.728   6.828
75944SOL    HW229607   0.932   7.795   6.733
75945SOL     OW29608  14.805   7.524   1.909
75945SOL    HW129609  14.792   7.570   1.992
75945SOL    HW229610  14.817   7.594   1.844
75946SOL     OW29611   8.934   0.173   3.758
75946SOL    HW129612   8.901   0.180   3.668
75946SOL    HW229613   9.029   0.169   3.749
75947SOL     OW29614   3.758   8.735  11.557
75947SOL    HW129615   3.728   8.766  11.471
75947SOL    HW229616   3.839   8.688  11.538
75948SOL     OW29617  14.223  11.319   1.389
75948SOL    HW129618  14.169  11.336   1.467
75948SOL    HW229619  14.306  11.363   1.408
75949SOL     OW29620  14.090   3.337  10.220
75949SOL    HW129621  14.047   3.267  10.172
75949SOL    HW229622  14.099   3.409  10.156
75950SOL     OW29623   1.107  13.955   5.221
75950SOL    HW129624   1.053  14.033   5.226
75950SOL    HW229625   1.166  13.971   5.148
75951SOL     OW29626   0.456   5.507   3.097
75951SOL    HW129627   0.488   5.520   3.008
75951SOL    HW229628   0.362   5.491   3.087
75952SOL     OW29629   8.617   1.743   6.301
75952SOL    HW129630   8.536   1.777   6.264
75952SOL    HW229631   8.686   1.792   6.256
75953SOL     OW29632   9.722   2.753   0.160
75953SOL    HW129633   9.656   2.778   0.096
75953SOL    HW229634   9.752   2.667   0.132
75954SOL     OW29635   4.648   4.830  13.496
75954SOL    HW129636   4.605   4.905  13.537
75954SOL    HW229637   4.692   4.785  13.569
75955SOL     OW29638   9.704  13.954  10.380
75955SOL    HW129639   9.610  13.969  10.391
75955SOL    HW229640   9.713  13.928  10.289
75956SOL     OW29641  11.494   9.644   8.262
75956SOL    HW129642  11.450   9.585   8.324
75956SOL    HW229643  11.479   9.732   8.298
75957SOL     OW29644   2.845   1.378   0.311
75957SOL    HW129645   2.871   1.407   0.399
75957SOL    HW229646   2.922   1.392   0.257
75958SOL     OW29647  12.687   4.759  14.822
75958SOL    HW129648  12.716   4.668  14.821
75958SOL    HW229649  12.688   4.785   0.036
75959SOL     OW29650  14.346   1.888   4.447
75959SOL    HW129651  14.350   1.965   4.505
75959SOL    HW229652  14.278   1.910   4.383
75960SOL     OW29653   4.238  12.683  10.265
75960SOL    HW129654   4.172  12.709  10.200
75960SOL    HW229655   4.292  12.618  10.220
75961SOL     OW29656   8.265   7.993  11.092
75961SOL    HW129657   8.211   8.041  11.156
75961SOL    HW229658   8.281   8.057  11.022
75962SOL     OW29659   5.733   2.071   8.847
75962SOL    HW129660   5.786   1.992   8.833
75962SOL    HW229661   5.783   2.122   8.911
75963SOL     OW29662  10.538   9.787   6.638
75963SOL    HW129663  10.610   9.787   6.574
75963SOL    HW229664  10.576   9.747   6.716
75964SOL     OW29665   3.532  11.564   5.614
75964SOL    HW129666   3.501  11.567   5.704
75964SOL    HW229667   3.626  11.549   5.621
75965SOL     OW29668   4.357   4.266   7.055
75965SOL    HW129669   4.355   4.321   7.133
75965SOL    HW229670   4.417   4.195   7.076
75966SOL     OW29671   7.216  11.473   5.357
75966SOL    HW129672   7.165  11.464   5.438
75966SOL    HW229673   7.217  11.385   5.319
75967SOL     OW29674   1.743   1.668   2.364
75967SOL    HW129675   1.813   1.619   2.320
75967SOL    HW229676   1.787   1.716   2.434
75968SOL     OW29677   4.959  13.507   4.173
75968SOL    HW129678   4.940  13.598   4.195
75968SOL    HW229679   5.051  13.507   4.149
75969SOL     OW29680   1.687  11.742   9.298
75969SOL    HW129681   1.723  11.706   9.217
75969SOL    HW229682   1.635  11.670   9.335
75970SOL     OW29683   5.326   9.681   1.684
75970SOL    HW129684   5.376   9.761   1.696
75970SOL    HW229685   5.306   9.679   1.590
75971SOL     OW29686   3.372  12.495   0.861
75971SOL    HW129687   3.326  12.426   0.909
75971SOL    HW229688   3.463  12.487   0.890
75972SOL     OW29689  14.341   1.078   3.461
75972SOL    HW129690  14.413   1.015   3.452
75972SOL    HW229691  14.347   1.133   3.383
75973SOL     OW29692   3.673  14.688   7.901
75973SOL    HW129693   3.720  14.607   7.883
75973SOL    HW229694   3.650  14.723   7.815
75974SOL     OW29695   5.604   6.025   3.195
75974SOL    HW129696   5.681   6.060   3.239
75974SOL    HW229697   5.619   5.930   3.194
75975SOL     OW29698  12.700   9.727  11.319
75975SOL    HW129699  12.707   9.765  11.406
75975SOL    HW229700  12.642   9.652  11.330
75976SOL     OW29701   3.427   6.817   0.185
75976SOL    HW129702   3.515   6.789   0.160
75976SOL    HW229703   3.441   6.881   0.254
75977SOL     OW29704   2.134  12.871  13.085
75977SOL    HW129705   2.115  12.781  13.111
75977SOL    HW229706   2.211  12.863  13.029
75978SOL     OW29707   7.778   3.874   9.487
75978SOL    HW129708   7.769   3.779   9.497
75978SOL    HW229709   7.776   3.889   9.392
75979SOL     OW29710   6.097   0.355  12.578
75979SOL    HW129711   6.174   0.408  12.559
75979SOL    HW229712   6.120   0.267  12.548
75980SOL     OW29713   7.593   8.806   8.628
75980SOL    HW129714   7.560   8.870   8.692
75980SOL    HW229715   7.523   8.799   8.563
75981SOL     OW29716  13.061   3.003  13.876
75981SOL    HW129717  13.076   3.091  13.911
75981SOL    HW229718  12.971   2.983  13.901
75982SOL     OW29719   2.978   4.191  10.367
75982SOL    HW129720   2.955   4.260  10.429
75982SOL    HW229721   2.999   4.115  10.421
75983SOL     OW29722   3.218   9.435   8.576
75983SOL    HW129723   3.221   9.383   8.656
75983SOL    HW229724   3.307   9.467   8.564
75984SOL     OW29725  12.799   1.861   5.862
75984SOL    HW129726  12.772   1.871   5.954
75984SOL    HW229727  12.717   1.868   5.813
75985SOL     OW29728  10.270   9.334  14.473
75985SOL    HW129729  10.340   9.390  14.506
75985SOL    HW229730  10.288   9.325  14.380
75986SOL     OW29731  11.013   2.108   3.482
75986SOL    HW129732  11.071   2.033   3.465
75986SOL    HW229733  11.070   2.173   3.523
75987SOL     OW29734   5.831   2.155   4.587
75987SOL    HW129735   5.825   2.138   4.681
75987SOL    HW229736   5.840   2.069   4.548
75988SOL     OW29737  13.766  13.943   6.330
75988SOL    HW129738  13.692  13.890   6.360
75988SOL    HW229739  13.727  14.026   6.303
75989SOL     OW29740   5.152   4.472  11.522
75989SOL    HW129741   5.242   4.476  11.555
75989SOL    HW229742   5.157   4.413  11.447
75990SOL     OW29743   8.283   6.362  12.600
75990SOL    HW129744   8.296   6.308  12.678
75990SOL    HW229745   8.362   6.416  12.596
75991SOL     OW29746   2.815   1.544   3.830
75991SOL    HW129747   2.731   1.574   3.795
75991SOL    HW229748   2.881   1.598   3.786
75992SOL     OW29749   6.579   8.998   3.609
75992SOL    HW129750   6.528   9.052   3.549
75992SOL    HW229751   6.619   8.930   3.554
75993SOL     OW29752  14.667  13.797   3.221
75993SOL    HW129753  14.708  13.869   3.172
75993SOL    HW229754  14.685  13.719   3.167
75994SOL     OW29755   7.195   4.977   1.177
75994SOL    HW129756   7.259   4.906   1.168
75994SOL    HW229757   7.114   4.941   1.141
75995SOL     OW29758  12.117   8.661  12.275
75995SOL    HW129759  12.033   8.692  12.242
75995SOL    HW229760  12.138   8.719  12.348
75996SOL     OW29761  12.489   7.799   5.727
75996SOL    HW129762  12.545   7.721   5.720
75996SOL    HW229763  12.426   7.777   5.796
75997SOL     OW29764  13.947  11.830   0.188
75997SOL    HW129765  13.930  11.836   0.282
75997SOL    HW229766  14.042  11.840   0.180
75998SOL     OW29767   8.122  10.149   2.183
75998SOL    HW129768   8.167  10.068   2.159
75998SOL    HW229769   8.095  10.136   2.274
75999SOL     OW29770   2.326   7.731   2.029
75999SOL    HW129771   2.324   7.635   2.037
75999SOL    HW229772   2.418   7.754   2.038
76000SOL     OW29773   6.954   8.851   8.608
76000SOL    HW129774   6.896   8.869   8.534
76000SOL    HW229775   7.003   8.932   8.620
76001SOL     OW29776  11.075   8.147   8.764
76001SOL    HW129777  11.082   8.205   8.688
76001SOL    HW229778  11.136   8.076   8.746
76002SOL     OW29779   1.708  12.898   6.164
76002SOL    HW129780   1.793  12.863   6.138
76002SOL    HW229781   1.713  12.904   6.260
76003SOL     OW29782   4.169   3.051  13.435
76003SOL    HW129783   4.140   2.985  13.372
76003SOL    HW229784   4.263   3.035  13.445
76004SOL     OW29785  13.706   9.636  13.470
76004SOL    HW129786  13.627   9.661  13.518
76004SOL    HW229787  13.678   9.634  13.378
76005SOL     OW29788   8.505  14.483   3.595
76005SOL    HW129789   8.563  14.529   3.655
76005SOL    HW229790   8.505  14.536   3.515
76006SOL     OW29791  10.875   8.898   9.143
76006SOL    HW129792  10.788   8.895   9.183
76006SOL    HW229793  10.927   8.952   9.202
76007SOL     OW29794  12.328   9.383   8.065
76007SOL    HW129795  12.420   9.361   8.054
76007SOL    HW229796  12.329   9.464   8.117
76008SOL     OW29797  11.187  11.148   2.889
76008SOL    HW129798  11.153  11.194   2.966
76008SOL    HW229799  11.233  11.072   2.924
76009SOL     OW29800   6.393   2.348   9.369
76009SOL    HW129801   6.369   2.426   9.319
76009SOL    HW229802   6.417   2.382   9.456
76010SOL     OW29803   8.094   1.975   4.272
76010SOL    HW129804   8.131   1.891   4.300
76010SOL    HW229805   8.106   1.977   4.177
76011SOL     OW29806   3.554  12.355   6.562
76011SOL    HW129807   3.647  12.362   6.542
76011SOL    HW229808   3.545  12.392   6.650
76012SOL     OW29809   0.348  12.649  11.423
76012SOL    HW129810   0.325  12.567  11.379
76012SOL    HW229811   0.429  12.629  11.471
76013SOL     OW29812  12.489   0.569   0.266
76013SOL    HW129813  12.495   0.623   0.345
76013SOL    HW229814  12.396   0.554   0.255
76014SOL     OW29815   5.455   9.871  12.751
76014SOL    HW129816   5.442   9.878  12.656
76014SOL    HW229817   5.446   9.778  12.770
76015SOL     OW29818   4.030   6.400  14.388
76015SOL    HW129819   4.051   6.451  14.466
76015SOL    HW229820   3.936   6.383  14.395
76016SOL     OW29821   2.136   1.887   1.198
76016SOL    HW129822   2.112   1.816   1.257
76016SOL    HW229823   2.089   1.963   1.232
76017SOL     OW29824   7.110   0.129  10.389
76017SOL    HW129825   7.125   0.179  10.469
76017SOL    HW229826   7.016   0.138  10.372
76018SOL     OW29827  12.051   9.174   9.735
76018SOL    HW129828  12.032   9.082   9.749
76018SOL    HW229829  12.036   9.188   9.642
76019SOL     OW29830  12.049   1.113  10.278
76019SOL    HW129831  12.109   1.185  10.296
76019SOL    HW229832  11.968   1.156  10.249
76020SOL     OW29833  14.023  13.563  10.644
76020SOL    HW129834  14.102  13.533  10.598
76020SOL    HW229835  13.971  13.606  10.576
76021SOL     OW29836  12.977   1.819  12.541
76021SOL    HW129837  12.970   1.914  12.536
76021SOL    HW229838  13.071   1.801  12.532
76022SOL     OW29839   9.785  14.467   3.883
76022SOL    HW129840   9.868  14.514   3.880
76022SOL    HW229841   9.780  14.432   3.973
76023SOL     OW29842   5.287  12.740   9.992
76023SOL    HW129843   5.222  12.805  10.018
76023SOL    HW229844   5.265  12.662  10.043
76024SOL     OW29845   1.244   0.363  11.500
76024SOL    HW129846   1.321   0.421  11.498
76024SOL    HW229847   1.185   0.405  11.563
76025SOL     OW29848   9.726   6.849  14.624
76025SOL    HW129849   9.763   6.772  14.666
76025SOL    HW229850   9.795   6.881  14.567
76026SOL     OW29851   0.632  12.545   8.395
76026SOL    HW129852   0.703  12.590   8.349
76026SOL    HW229853   0.613  12.468   8.341
76027SOL     OW29854   6.549   3.929   9.893
76027SOL    HW129855   6.608   3.874   9.944
76027SOL    HW229856   6.468   3.930   9.943
76028SOL     OW29857  13.576   7.365   6.350
76028SOL    HW129858  13.517   7.347   6.423
76028SOL    HW229859  13.620   7.281   6.334
76029SOL     OW29860   3.706  11.816   3.587
76029SOL    HW129861   3.742  11.727   3.588
76029SOL    HW229862   3.722  11.850   3.675
76030SOL     OW29863  12.533   2.009   8.707
76030SOL    HW129864  12.442   2.039   8.710
76030SOL    HW229865  12.555   1.991   8.798
76031SOL     OW29866   2.981   1.406  13.468
76031SOL    HW129867   2.968   1.312  13.469
76031SOL    HW229868   3.040   1.423  13.542
76032SOL     OW29869  11.116   5.150   1.084
76032SOL    HW129870  11.128   5.206   1.160
76032SOL    HW229871  11.028   5.172   1.051
76033SOL     OW29872   0.520  10.404   5.084
76033SOL    HW129873   0.454  10.462   5.120
76033SOL    HW229874   0.600  10.425   5.133
76034SOL     OW29875  13.870   7.637  13.768
76034SOL    HW129876  13.842   7.694  13.696
76034SOL    HW229877  13.819   7.667  13.843
76035SOL     OW29878   7.740   3.123  11.396
76035SOL    HW129879   7.811   3.090  11.342
76035SOL    HW229880   7.779   3.196  11.446
76036SOL     OW29881   5.982   9.260   1.840
76036SOL    HW129882   6.000   9.310   1.919
76036SOL    HW229883   5.892   9.228   1.852
76037SOL     OW29884  14.500   6.790  10.477
76037SOL    HW129885  14.566   6.852  10.508
76037SOL    HW229886  14.420   6.813  10.525
76038SOL     OW29887  10.520   2.882  13.793
76038SOL    HW129888  10.581   2.956  13.787
76038SOL    HW229889  10.433   2.921  13.783
76039SOL     OW29890   2.727  10.248   7.549
76039SOL    HW129891   2.808  10.216   7.510
76039SOL    HW229892   2.659  10.193   7.511
76040SOL     OW29893   4.062  13.573   0.185
76040SOL    HW129894   4.033  13.594   0.097
76040SOL    HW229895   4.082  13.479   0.183
76041SOL     OW29896   7.888  12.605  13.989
76041SOL    HW129897   7.870  12.585  14.081
76041SOL    HW229898   7.869  12.699  13.982
76042SOL     OW29899  12.774  10.557   2.640
76042SOL    HW129900  12.826  10.538   2.718
76042SOL    HW229901  12.685  10.568   2.673
76043SOL     OW29902   1.967   7.334   4.083
76043SOL    HW129903   1.884   7.286   4.077
76043SOL    HW229904   1.943   7.425   4.067
76044SOL     OW29905  11.927  10.328   5.772
76044SOL    HW129906  11.884  10.321   5.857
76044SOL    HW229907  12.014  10.363   5.792
76045SOL     OW29908   5.411   2.746  11.145
76045SOL    HW129909   5.477   2.741  11.215
76045SOL    HW229910   5.401   2.840  11.129
76046SOL     OW29911   5.068   7.547  13.417
76046SOL    HW129912   5.128   7.622  13.415
76046SOL    HW229913   5.078   7.511  13.505
76047SOL     OW29914   4.959   1.801  13.084
76047SOL    HW129915   5.045   1.759  13.078
76047SOL    HW229916   4.976   1.894  13.066
76048SOL     OW29917   3.910   0.716   6.068
76048SOL    HW129918   3.895   0.629   6.105
76048SOL    HW229919   3.822   0.752   6.056
76049SOL     OW29920   9.209   7.290   5.522
76049SOL    HW129921   9.172   7.350   5.587
76049SOL    HW229922   9.132   7.256   5.476
76050SOL     OW29923   5.642   4.410  10.755
76050SOL    HW129924   5.654   4.496  10.796
76050SOL    HW229925   5.701   4.352  10.803
76051SOL     OW29926   6.098   6.200  12.118
76051SOL    HW129927   6.046   6.122  12.137
76051SOL    HW229928   6.187   6.166  12.106
76052SOL     OW29929   7.965   0.680  11.046
76052SOL    HW129930   7.989   0.611  11.109
76052SOL    HW229931   8.049   0.717  11.019
76053SOL     OW29932   5.173  11.438   4.341
76053SOL    HW129933   5.245  11.382   4.312
76053SOL    HW229934   5.212  11.525   4.351
76054SOL     OW29935  13.001   7.274   2.452
76054SOL    HW129936  13.086   7.317   2.461
76054SOL    HW229937  12.969   7.264   2.542
76055SOL     OW29938   2.893  11.959   0.001
76055SOL    HW129939   2.818  11.904  14.857
76055SOL    HW229940   2.968  11.900  14.872
76056SOL     OW29941   3.927   5.263  13.297
76056SOL    HW129942   3.910   5.310  13.216
76056SOL    HW229943   3.998   5.312  13.339
76057SOL     OW29944   9.336  11.412   4.248
76057SOL    HW129945   9.375  11.394   4.163
76057SOL    HW229946   9.243  11.427   4.228
76058SOL     OW29947   6.750   0.644   8.764
76058SOL    HW129948   6.667   0.661   8.808
76058SOL    HW229949   6.779   0.730   8.734
76059SOL     OW29950  12.652  12.754  14.504
76059SOL    HW129951  12.644  12.786  14.594
76059SOL    HW229952  12.648  12.833  14.450
76060SOL     OW29953   9.779   6.019  11.878
76060SOL    HW129954   9.719   6.052  11.944
76060SOL    HW229955   9.728   6.019  11.797
76061SOL     OW29956  13.952   7.891   2.973
76061SOL    HW129957  13.960   7.796   2.986
76061SOL    HW229958  13.921   7.924   3.057
76062SOL     OW29959   2.619  12.430   6.151
76062SOL    HW129960   2.679  12.372   6.106
76062SOL    HW229961   2.665  12.458   6.230
76063SOL     OW29962   4.487  14.124   9.151
76063SOL    HW129963   4.574  14.137   9.189
76063SOL    HW229964   4.434  14.090   9.222
76064SOL     OW29965  11.094  12.646   7.336
76064SOL    HW129966  11.154  12.588   7.383
76064SOL    HW229967  11.020  12.590   7.313
76065SOL     OW29968  12.513  10.325   7.353
76065SOL    HW129969  12.437  10.377   7.380
76065SOL    HW229970  12.588  10.382   7.369
76066SOL     OW29971  11.389   9.278  11.087
76066SOL    HW129972  11.342   9.214  11.033
76066SOL    HW229973  11.340   9.359  11.076
76067SOL     OW29974  13.822   4.638   4.112
76067SOL    HW129975  13.728   4.646   4.129
76067SOL    HW229976  13.857   4.725   4.129
76068SOL     OW29977   9.268   7.798   8.067
76068SOL    HW129978   9.248   7.722   8.121
76068SOL    HW229979   9.308   7.861   8.127
76069SOL     OW29980   2.457  11.316  12.559
76069SOL    HW129981   2.497  11.350  12.479
76069SOL    HW229982   2.432  11.394  12.609
76070SOL     OW29983  10.558   0.710  12.917
76070SOL    HW129984  10.508   0.668  12.846
76070SOL    HW229985  10.598   0.786  12.876
76071SOL     OW29986  11.412   6.738   5.325
76071SOL    HW129987  11.420   6.680   5.249
76071SOL    HW229988  11.493   6.725   5.374
76072SOL     OW29989   8.831  11.042   3.351
76072SOL    HW129990   8.781  11.022   3.272
76072SOL    HW229991   8.920  11.054   3.321
76073SOL     OW29992   5.456   6.632  12.699
76073SOL    HW129993   5.392   6.564  12.720
76073SOL    HW229994   5.462   6.685  12.778
76074SOL     OW29995   7.329   4.753  10.558
76074SOL    HW129996   7.407   4.743  10.503
76074SOL    HW229997   7.350   4.827  10.615
76075SOL     OW29998   6.476   9.442   2.851
76075SOL    HW129999   6.426   9.500   2.794
76075SOL    HW230000   6.418   9.427   2.926
76076SOL     OW30001   5.266   8.894  11.599
76076SOL    HW130002   5.199   8.894  11.531
76076SOL    HW230003   5.261   8.982  11.637
76077SOL     OW30004   4.197   4.082  11.088
76077SOL    HW130005   4.109   4.057  11.116
76077SOL    HW230006   4.204   4.175  11.110
76078SOL     OW30007   1.494  10.729   4.663
76078SOL    HW130008   1.534  10.644   4.644
76078SOL    HW230009   1.415  10.707   4.713
76079SOL     OW30010   2.834   3.267  10.081
76079SOL    HW130011   2.898   3.265  10.152
76079SOL    HW230012   2.883   3.239  10.004
76080SOL     OW30013  12.286   4.901   6.976
76080SOL    HW130014  12.330   4.819   6.950
76080SOL    HW230015  12.262   4.942   6.893
76081SOL     OW30016   0.446   9.909   4.626
76081SOL    HW130017   0.483   9.841   4.682
76081SOL    HW230018   0.460   9.877   4.537
76082SOL     OW30019  14.307   5.588  13.977
76082SOL    HW130020  14.336   5.591  14.068
76082SOL    HW230021  14.374   5.536  13.933
76083SOL     OW30022   9.370  11.532  11.479
76083SOL    HW130023   9.318  11.524  11.560
76083SOL    HW230024   9.384  11.627  11.470
76084SOL     OW30025   0.836  11.385   4.744
76084SOL    HW130026   0.925  11.410   4.767
76084SOL    HW230027   0.826  11.414   4.653
76085SOL     OW30028   3.825   9.021  12.714
76085SOL    HW130029   3.732   9.046  12.709
76085SOL    HW230030   3.823   8.926  12.727
76086SOL     OW30031  11.271  12.670   5.844
76086SOL    HW130032  11.211  12.596   5.857
76086SOL    HW230033  11.334  12.663   5.915
76087SOL     OW30034  11.131   8.033   3.139
76087SOL    HW130035  11.148   8.122   3.108
76087SOL    HW230036  11.194   7.979   3.091
76088SOL     OW30037   5.383   0.103   9.335
76088SOL    HW130038   5.403   0.132   9.246
76088SOL    HW230039   5.457   0.048   9.359
76089SOL     OW30040  11.341  10.162   0.273
76089SOL    HW130041  11.293  10.223   0.329
76089SOL    HW230042  11.353  10.209   0.191
76090SOL     OW30043   8.133   8.216  13.470
76090SOL    HW130044   8.216   8.174  13.446
76090SOL    HW230045   8.116   8.188  13.559
76091SOL     OW30046  10.631  11.386  11.278
76091SOL    HW130047  10.592  11.423  11.200
76091SOL    HW230048  10.569  11.319  11.307
76092SOL     OW30049   7.862   7.044  11.290
76092SOL    HW130050   7.901   6.960  11.267
76092SOL    HW230051   7.923   7.109  11.255
76093SOL     OW30052   5.667  10.939   1.413
76093SOL    HW130053   5.598  10.878   1.387
76093SOL    HW230054   5.713  10.894   1.484
76094SOL     OW30055  13.529  12.214   1.096
76094SOL    HW130056  13.615  12.193   1.060
76094SOL    HW230057  13.540  12.207   1.191
76095SOL     OW30058  11.710   8.436   0.560
76095SOL    HW130059  11.636   8.385   0.526
76095SOL    HW230060  11.760   8.373   0.612
76096SOL     OW30061   4.822   3.314   0.635
76096SOL    HW130062   4.843   3.339   0.725
76096SOL    HW230063   4.828   3.395   0.585
76097SOL     OW30064  12.260   0.626   4.871
76097SOL    HW130065  12.319   0.644   4.945
76097SOL    HW230066  12.224   0.711   4.847
76098SOL     OW30067   2.307  12.137   7.365
76098SOL    HW130068   2.252  12.107   7.293
76098SOL    HW230069   2.391  12.093   7.352
76099SOL     OW30070  10.926   2.096   4.991
76099SOL    HW130071  10.997   2.098   5.055
76099SOL    HW230072  10.954   2.029   4.928
76100SOL     OW30073   3.322   3.947  12.409
76100SOL    HW130074   3.360   3.953  12.497
76100SOL    HW230075   3.232   3.979  12.420
76101SOL     OW30076  12.597  13.020  12.083
76101SOL    HW130077  12.655  13.015  12.159
76101SOL    HW230078  12.510  13.030  12.121
76102SOL     OW30079   7.202   8.584   9.014
76102SOL    HW130080   7.162   8.513   8.964
76102SOL    HW230081   7.191   8.558   9.106
76103SOL     OW30082   0.680  12.247  11.118
76103SOL    HW130083   0.598  12.267  11.072
76103SOL    HW230084   0.741  12.315  11.089
76104SOL     OW30085   1.366   2.849  12.032
76104SOL    HW130086   1.271   2.855  12.015
76104SOL    HW230087   1.386   2.756  12.024
76105SOL     OW30088  10.019  11.735  14.853
76105SOL    HW130089  10.026  11.742   0.071
76105SOL    HW230090  10.002  11.825  14.824
76106SOL     OW30091   6.323  13.604   9.492
76106SOL    HW130092   6.352  13.565   9.574
76106SOL    HW230093   6.359  13.546   9.424
76107SOL     OW30094  11.694   6.029   5.304
76107SOL    HW130095  11.622   6.088   5.282
76107SOL    HW230096  11.713   6.049   5.396
76108SOL     OW30097   9.943   2.318   8.038
76108SOL    HW130098  10.027   2.346   8.001
76108SOL    HW230099   9.891   2.398   8.042
76109SOL     OW30100   8.667   6.128   7.074
76109SOL    HW130101   8.663   6.126   6.978
76109SOL    HW230102   8.726   6.057   7.097
76110SOL     OW30103  13.581   4.515  11.087
76110SOL    HW130104  13.612   4.483  11.172
76110SOL    HW230105  13.485   4.515  11.095
76111SOL     OW30106   7.293   9.389   8.495
76111SOL    HW130107   7.289   9.380   8.400
76111SOL    HW230108   7.213   9.436   8.518
76112SOL     OW30109   8.721   1.176  10.138
76112SOL    HW130110   8.630   1.206  10.143
76112SOL    HW230111   8.757   1.194  10.225
76113SOL     OW30112   1.870   8.182   7.562
76113SOL    HW130113   1.882   8.236   7.483
76113SOL    HW230114   1.953   8.135   7.571
76114SOL     OW30115   6.843  13.407   0.400
76114SOL    HW130116   6.781  13.389   0.329
76114SOL    HW230117   6.808  13.486   0.443
76115SOL     OW30118   3.669   2.115   9.213
76115SOL    HW130119   3.593   2.170   9.193
76115SOL    HW230120   3.684   2.065   9.132
76116SOL     OW30121  13.595   3.202   0.529
76116SOL    HW130122  13.600   3.296   0.542
76116SOL    HW230123  13.649   3.184   0.452
76117SOL     OW30124  12.156   0.860   4.800
76117SOL    HW130125  12.092   0.927   4.778
76117SOL    HW230126  12.201   0.840   4.718
76118SOL     OW30127   6.844   4.703   4.324
76118SOL    HW130128   6.903   4.638   4.287
76118SOL    HW230129   6.901   4.772   4.356
76119SOL     OW30130  12.853  10.233  11.626
76119SOL    HW130131  12.895  10.316  11.647
76119SOL    HW230132  12.859  10.182  11.707
76120SOL     OW30133   6.193   1.234   2.312
76120SOL    HW130134   6.196   1.161   2.250
76120SOL    HW230135   6.274   1.282   2.295
76121SOL     OW30136   1.530   9.160   1.543
76121SOL    HW130137   1.508   9.077   1.502
76121SOL    HW230138   1.482   9.159   1.626
76122SOL     OW30139   3.514   2.688   3.021
76122SOL    HW130140   3.575   2.646   3.082
76122SOL    HW230141   3.511   2.780   3.049
76123SOL     OW30142   1.411   5.762   3.137
76123SOL    HW130143   1.369   5.677   3.125
76123SOL    HW230144   1.391   5.811   3.058
76124SOL     OW30145   1.861  14.376  12.020
76124SOL    HW130146   1.908  14.439  12.074
76124SOL    HW230147   1.902  14.292  12.041
76125SOL     OW30148   5.145   5.072  11.395
76125SOL    HW130149   5.081   5.111  11.454
76125SOL    HW230150   5.146   5.130  11.319
76126SOL     OW30151  14.657   8.744   7.473
76126SOL    HW130152  14.661   8.763   7.566
76126SOL    HW230153  14.563   8.746   7.452
76127SOL     OW30154   0.080   4.960  12.398
76127SOL    HW130155   0.115   5.043  12.368
76127SOL    HW230156   0.063   4.973  12.491
76128SOL     OW30157   1.622   2.468  14.131
76128SOL    HW130158   1.666   2.407  14.072
76128SOL    HW230159   1.543   2.495  14.084
76129SOL     OW30160   5.496   4.944   0.172
76129SOL    HW130161   5.523   4.908   0.088
76129SOL    HW230162   5.577   4.973   0.214
76130SOL     OW30163   9.922   9.585  10.949
76130SOL    HW130164   9.857   9.518  10.965
76130SOL    HW230165   9.958   9.564  10.863
76131SOL     OW30166   9.570   4.253   1.694
76131SOL    HW130167   9.504   4.186   1.715
76131SOL    HW230168   9.613   4.220   1.615
76132SOL     OW30169  10.947   4.174   2.671
76132SOL    HW130170  10.933   4.133   2.586
76132SOL    HW230171  11.042   4.187   2.675
76133SOL     OW30172   7.777   5.900   7.104
76133SOL    HW130173   7.835   5.828   7.078
76133SOL    HW230174   7.833   5.958   7.156
76134SOL     OW30175   4.855  10.479  13.243
76134SOL    HW130176   4.901  10.420  13.303
76134SOL    HW230177   4.887  10.566  13.267
76135SOL     OW30178   4.268   7.094   6.780
76135SOL    HW130179   4.248   7.166   6.720
76135SOL    HW230180   4.271   7.016   6.725
76136SOL     OW30181   1.962  14.031   9.671
76136SOL    HW130182   1.874  14.064   9.689
76136SOL    HW230183   1.973  13.957   9.731
76137SOL     OW30184   8.132   3.455   2.036
76137SOL    HW130185   8.108   3.511   1.962
76137SOL    HW230186   8.206   3.500   2.077
76138SOL     OW30187   5.653   4.974   4.765
76138SOL    HW130188   5.577   5.003   4.715
76138SOL    HW230189   5.725   4.979   4.702
76139SOL     OW30190   4.831  11.092  12.344
76139SOL    HW130191   4.878  11.090  12.261
76139SOL    HW230192   4.894  11.058  12.408
76140SOL     OW30193  13.499   1.162   8.283
76140SOL    HW130194  13.407   1.176   8.306
76140SOL    HW230195  13.508   1.198   8.195
76141SOL     OW30196   5.163  11.585   0.433
76141SOL    HW130197   5.125  11.504   0.466
76141SOL    HW230198   5.106  11.654   0.465
76142SOL     OW30199  12.629   4.238  11.773
76142SOL    HW130200  12.658   4.146  11.771
76142SOL    HW230201  12.533   4.232  11.777
76143SOL     OW30202   2.761   7.914   3.067
76143SOL    HW130203   2.776   7.828   3.025
76143SOL    HW230204   2.667   7.916   3.084
76144SOL     OW30205  10.597   5.440   6.134
76144SOL    HW130206  10.599   5.536   6.129
76144SOL    HW230207  10.581   5.421   6.226
76145SOL     OW30208   3.189  11.115   7.782
76145SOL    HW130209   3.233  11.048   7.729
76145SOL    HW230210   3.171  11.071   7.865
76146SOL     OW30211  11.021  10.843   8.705
76146SOL    HW130212  11.101  10.847   8.757
76146SOL    HW230213  11.049  10.803   8.622
76147SOL     OW30214   5.401   5.112   9.922
76147SOL    HW130215   5.426   5.132  10.013
76147SOL    HW230216   5.419   5.193   9.874
76148SOL     OW30217  11.954  13.093   7.919
76148SOL    HW130218  11.958  13.182   7.884
76148SOL    HW230219  12.031  13.049   7.884
76149SOL     OW30220  12.031  12.407   1.940
76149SOL    HW130221  11.980  12.446   2.011
76149SOL    HW230222  12.079  12.336   1.981
76150SOL     OW30223   5.368  11.964  11.244
76150SOL    HW130224   5.298  11.919  11.292
76150SOL    HW230225   5.447  11.949  11.296
76151SOL     OW30226   1.284   5.049  13.832
76151SOL    HW130227   1.307   4.998  13.754
76151SOL    HW230228   1.215   5.108  13.802
76152SOL     OW30229   2.091   8.554   6.365
76152SOL    HW130230   2.044   8.548   6.282
76152SOL    HW230231   2.178   8.588   6.342
76153SOL     OW30232   2.858   7.122  11.606
76153SOL    HW130233   2.792   7.090  11.668
76153SOL    HW230234   2.807   7.149  11.529
76154SOL     OW30235   7.579   0.437  10.789
76154SOL    HW130236   7.589   0.405  10.699
76154SOL    HW230237   7.669   0.453  10.818
76155SOL     OW30238   0.416  14.134   9.128
76155SOL    HW130239   0.485  14.199   9.115
76155SOL    HW230240   0.392  14.144   9.220
76156SOL     OW30241   0.595   2.296   2.700
76156SOL    HW130242   0.682   2.337   2.707
76156SOL    HW230243   0.535   2.364   2.729
76157SOL     OW30244   2.564   5.219   4.201
76157SOL    HW130245   2.599   5.222   4.290
76157SOL    HW230246   2.496   5.152   4.204
76158SOL     OW30247   6.252   9.907   3.639
76158SOL    HW130248   6.184   9.951   3.588
76158SOL    HW230249   6.329   9.964   3.632
76159SOL     OW30250  14.640   9.489   5.690
76159SOL    HW130251  14.708   9.437   5.733
76159SOL    HW230252  14.620   9.441   5.610
76160SOL     OW30253  14.087   4.746  12.147
76160SOL    HW130254  13.996   4.751  12.176
76160SOL    HW230255  14.087   4.678  12.079
76161SOL     OW30256   5.273  10.261   6.156
76161SOL    HW130257   5.356  10.213   6.147
76161SOL    HW230258   5.265  10.309   6.074
76162SOL     OW30259   9.068   5.991   4.894
76162SOL    HW130260   9.075   5.928   4.965
76162SOL    HW230261   9.061   5.937   4.815
76163SOL     OW30262  13.794   2.971  14.660
76163SOL    HW130263  13.760   3.057  14.685
76163SOL    HW230264  13.725   2.910  14.683
76164SOL     OW30265   5.875   9.037   1.348
76164SOL    HW130266   5.928   9.079   1.417
76164SOL    HW230267   5.925   8.959   1.325
76165SOL     OW30268   0.141   7.494   8.487
76165SOL    HW130269   0.153   7.476   8.580
76165SOL    HW230270   0.046   7.505   8.477
76166SOL     OW30271   2.226  13.299   9.381
76166SOL    HW130272   2.226  13.206   9.401
76166SOL    HW230273   2.177  13.339   9.454
76167SOL     OW30274   0.949  12.918  11.306
76167SOL    HW130275   1.005  12.989  11.337
76167SOL    HW230276   1.009  12.858  11.261
76168SOL     OW30277  12.836   1.163  13.906
76168SOL    HW130278  12.848   1.235  13.844
76168SOL    HW230279  12.815   1.206  13.988
76169SOL     OW30280   8.680  13.264   3.168
76169SOL    HW130281   8.738  13.289   3.097
76169SOL    HW230282   8.596  13.306   3.147
76170SOL     OW30283   2.578   6.812  10.621
76170SOL    HW130284   2.650   6.748  10.624
76170SOL    HW230285   2.500   6.760  10.603
76171SOL     OW30286   4.620  10.232   5.968
76171SOL    HW130287   4.710  10.208   5.945
76171SOL    HW230288   4.629  10.300   6.034
76172SOL     OW30289   6.770  14.105   1.308
76172SOL    HW130290   6.787  14.119   1.215
76172SOL    HW230291   6.775  14.192   1.347
76173SOL     OW30292   6.414   5.158   0.418
76173SOL    HW130293   6.396   5.124   0.506
76173SOL    HW230294   6.445   5.248   0.434
76174SOL     OW30295   1.501   6.565   3.401
76174SOL    HW130296   1.563   6.493   3.412
76174SOL    HW230297   1.552   6.644   3.418
76175SOL     OW30298  12.195  10.114   8.499
76175SOL    HW130299  12.179  10.036   8.552
76175SOL    HW230300  12.108  10.153   8.487
76176SOL     OW30301   5.904   7.593  11.591
76176SOL    HW130302   5.895   7.643  11.672
76176SOL    HW230303   5.955   7.650  11.533
76177SOL     OW30304   4.890   0.981   8.889
76177SOL    HW130305   4.950   0.953   8.959
76177SOL    HW230306   4.871   0.901   8.840
76178SOL     OW30307   2.133   8.182   4.435
76178SOL    HW130308   2.224   8.174   4.464
76178SOL    HW230309   2.082   8.137   4.502
76179SOL     OW30310   7.110   3.115   8.435
76179SOL    HW130311   7.098   3.145   8.525
76179SOL    HW230312   7.050   3.041   8.426
76180SOL     OW30313   3.985   6.657  11.839
76180SOL    HW130314   4.021   6.635  11.753
76180SOL    HW230315   4.047   6.619  11.901
76181SOL     OW30316  12.112  11.010   5.422
76181SOL    HW130317  12.185  10.950   5.410
76181SOL    HW230318  12.096  11.048   5.336
76182SOL     OW30319  11.831   6.489  13.458
76182SOL    HW130320  11.862   6.411  13.412
76182SOL    HW230321  11.850   6.562  13.398
76183SOL     OW30322   3.565   3.669   3.851
76183SOL    HW130323   3.555   3.574   3.849
76183SOL    HW230324   3.640   3.684   3.910
76184SOL     OW30325   7.188  11.718   3.951
76184SOL    HW130326   7.171  11.724   4.045
76184SOL    HW230327   7.283  11.714   3.944
76185SOL     OW30328   4.432   8.092  10.793
76185SOL    HW130329   4.435   8.018  10.854
76185SOL    HW230330   4.363   8.149  10.827
76186SOL     OW30331  12.982   9.689  13.390
76186SOL    HW130332  12.987   9.641  13.307
76186SOL    HW230333  12.902   9.658  13.431
76187SOL     OW30334   6.535  10.405   3.423
76187SOL    HW130335   6.551  10.427   3.514
76187SOL    HW230336   6.595  10.462   3.374
76188SOL     OW30337   2.196   2.280   4.212
76188SOL    HW130338   2.226   2.192   4.186
76188SOL    HW230339   2.254   2.339   4.164
76189SOL     OW30340   1.726  10.318   4.764
76189SOL    HW130341   1.821  10.303   4.758
76189SOL    HW230342   1.701  10.274   4.846
76190SOL     OW30343  10.942   7.274   8.615
76190SOL    HW130344  10.872   7.269   8.551
76190SOL    HW230345  11.022   7.263   8.563
76191SOL     OW30346   3.558   4.599   5.150
76191SOL    HW130347   3.619   4.618   5.078
76191SOL    HW230348   3.511   4.681   5.165
76192SOL     OW30349  12.019  14.731   0.878
76192SOL    HW130350  12.082  14.726   0.950
76192SOL    HW230351  12.020  14.643   0.839
76193SOL     OW30352  13.014  12.799   1.061
76193SOL    HW130353  13.106  12.827   1.063
76193SOL    HW230354  13.016  12.719   1.008
76194SOL     OW30355   8.207   8.647   2.318
76194SOL    HW130356   8.172   8.562   2.291
76194SOL    HW230357   8.254   8.679   2.241
76195SOL     OW30358   6.088   3.759   1.451
76195SOL    HW130359   6.114   3.851   1.459
76195SOL    HW230360   5.992   3.760   1.457
76196SOL     OW30361   4.091  11.376  10.256
76196SOL    HW130362   4.166  11.396  10.201
76196SOL    HW230363   4.074  11.283  10.240
76197SOL     OW30364   2.213   3.430   3.400
76197SOL    HW130365   2.234   3.360   3.338
76197SOL    HW230366   2.194   3.506   3.345
76198SOL     OW30367   6.609   9.866   8.702
76198SOL    HW130368   6.618   9.827   8.788
76198SOL    HW230369   6.666   9.943   8.705
76199SOL     OW30370  10.318   3.722   7.493
76199SOL    HW130371  10.384   3.716   7.424
76199SOL    HW230372  10.300   3.631   7.518
76200SOL     OW30373   4.973   4.473  12.768
76200SOL    HW130374   4.971   4.378  12.755
76200SOL    HW230375   5.059   4.491  12.807
76201SOL     OW30376  12.274   7.860   7.243
76201SOL    HW130377  12.248   7.948   7.218
76201SOL    HW230378  12.331   7.872   7.319
76202SOL     OW30379  13.239  10.792   7.038
76202SOL    HW130380  13.171  10.846   7.077
76202SOL    HW230381  13.200  10.704   7.032
76203SOL     OW30382   5.960  13.389   7.315
76203SOL    HW130383   6.046  13.348   7.331
76203SOL    HW230384   5.936  13.360   7.227
76204SOL     OW30385   3.727  10.475   7.828
76204SOL    HW130386   3.653  10.489   7.768
76204SOL    HW230387   3.772  10.559   7.831
76205SOL     OW30388   4.601   7.684   7.499
76205SOL    HW130389   4.617   7.595   7.469
76205SOL    HW230390   4.556   7.674   7.583
76206SOL     OW30391   3.872   6.418   5.880
76206SOL    HW130392   3.903   6.507   5.898
76206SOL    HW230393   3.885   6.370   5.961
76207SOL     OW30394   6.113   6.336   0.548
76207SOL    HW130395   6.156   6.335   0.634
76207SOL    HW230396   6.054   6.260   0.550
76208SOL     OW30397  11.034   3.816   4.697
76208SOL    HW130398  11.089   3.824   4.775
76208SOL    HW230399  11.063   3.735   4.655
76209SOL     OW30400   6.126   5.886   9.990
76209SOL    HW130401   6.076   5.935   9.925
76209SOL    HW230402   6.122   5.940  10.069
76210SOL     OW30403  11.510   1.261  11.340
76210SOL    HW130404  11.474   1.237  11.426
76210SOL    HW230405  11.602   1.280  11.357
76211SOL     OW30406  10.451   0.091   5.717
76211SOL    HW130407  10.380   0.071   5.777
76211SOL    HW230408  10.491   0.170   5.753
76212SOL     OW30409   1.393   1.893  11.316
76212SOL    HW130410   1.398   1.955  11.389
76212SOL    HW230411   1.299   1.889  11.295
76213SOL     OW30412   9.899  10.996  12.903
76213SOL    HW130413   9.986  10.978  12.940
76213SOL    HW230414   9.852  10.914  12.911
76214SOL     OW30415   7.371   4.005   7.915
76214SOL    HW130416   7.450   3.973   7.958
76214SOL    HW230417   7.403   4.065   7.847
76215SOL     OW30418  10.229   7.431  14.562
76215SOL    HW130419  10.195   7.492  14.627
76215SOL    HW230420  10.170   7.441  14.487
76216SOL     OW30421   1.894   7.445   6.120
76216SOL    HW130422   1.811   7.493   6.121
76216SOL    HW230423   1.957   7.507   6.082
76217SOL     OW30424   7.815   1.380   8.378
76217SOL    HW130425   7.785   1.290   8.388
76217SOL    HW230426   7.907   1.373   8.353
76218SOL     OW30427   8.103   1.915  10.800
76218SOL    HW130428   8.116   1.959  10.715
76218SOL    HW230429   8.085   1.824  10.777
76219SOL     OW30430   8.026   4.672   7.329
76219SOL    HW130431   8.061   4.621   7.402
76219SOL    HW230432   8.001   4.756   7.368
76220SOL     OW30433  10.925   2.247   8.997
76220SOL    HW130434  10.925   2.325   9.053
76220SOL    HW230435  10.846   2.199   9.022
76221SOL     OW30436  11.712   2.092   2.847
76221SOL    HW130437  11.651   2.022   2.872
76221SOL    HW230438  11.796   2.064   2.882
76222SOL     OW30439  12.774   7.852   2.516
76222SOL    HW130440  12.862   7.855   2.554
76222SOL    HW230441  12.722   7.910   2.571
76223SOL     OW30442  11.564   1.365   8.996
76223SOL    HW130443  11.551   1.270   9.004
76223SOL    HW230444  11.531   1.387   8.909
76224SOL     OW30445  12.720   9.860   4.854
76224SOL    HW130446  12.727   9.778   4.901
76224SOL    HW230447  12.693   9.924   4.920
76225SOL     OW30448   2.154   5.890  10.753
76225SOL    HW130449   2.247   5.881  10.775
76225SOL    HW230450   2.110   5.897  10.838
76226SOL     OW30451   0.604  10.160   2.049
76226SOL    HW130452   0.678  10.187   1.995
76226SOL    HW230453   0.600  10.065   2.038
76227SOL     OW30454   2.277  13.035   4.101
76227SOL    HW130455   2.332  13.062   4.028
76227SOL    HW230456   2.233  12.955   4.070
76228SOL     OW30457  12.385   9.168  13.161
76228SOL    HW130458  12.467   9.136  13.123
76228SOL    HW230459  12.385   9.135  13.251
76229SOL     OW30460  10.165   5.428   0.205
76229SOL    HW130461  10.248   5.476   0.205
76229SOL    HW230462  10.177   5.356   0.266
76230SOL     OW30463  13.318   9.136  13.573
76230SOL    HW130464  13.401   9.089  13.579
76230SOL    HW230465  13.251   9.069  13.583
76231SOL     OW30466  13.770  13.958   3.661
76231SOL    HW130467  13.765  13.863   3.663
76231SOL    HW230468  13.720  13.987   3.737
76232SOL     OW30469  11.254  10.782  11.548
76232SOL    HW130470  11.305  10.863  11.544
76232SOL    HW230471  11.188  10.792  11.479
76233SOL     OW30472  11.198   0.327   3.054
76233SOL    HW130473  11.239   0.269   3.119
76233SOL    HW230474  11.271   0.366   3.007
76234SOL     OW30475   6.872   0.931  12.850
76234SOL    HW130476   6.846   0.921  12.758
76234SOL    HW230477   6.789   0.941  12.897
76235SOL     OW30478   4.570   1.679   1.149
76235SOL    HW130479   4.552   1.761   1.196
76235SOL    HW230480   4.487   1.633   1.148
76236SOL     OW30481   3.136   9.412   1.815
76236SOL    HW130482   3.044   9.420   1.837
76236SOL    HW230483   3.154   9.318   1.823
76237SOL     OW30484  10.433   3.273   5.716
76237SOL    HW130485  10.469   3.231   5.638
76237SOL    HW230486  10.489   3.349   5.730
76238SOL     OW30487   9.087  13.284   5.038
76238SOL    HW130488   9.166  13.331   5.064
76238SOL    HW230489   9.118  13.210   4.987
76239SOL     OW30490   8.712  14.375   5.227
76239SOL    HW130491   8.618  14.355   5.226
76239SOL    HW230492   8.748  14.320   5.297
76240SOL     OW30493  14.433  12.268   6.231
76240SOL    HW130494  14.389  12.199   6.181
76240SOL    HW230495  14.522  12.235   6.245
76241SOL     OW30496   1.375   0.935  13.582
76241SOL    HW130497   1.404   0.912  13.493
76241SOL    HW230498   1.304   0.998  13.568
76242SOL     OW30499   8.930   5.473   8.860
76242SOL    HW130500   8.845   5.432   8.845
76242SOL    HW230501   8.987   5.402   8.890
76243SOL     OW30502   1.886  12.575   5.947
76243SOL    HW130503   1.845  12.633   5.883
76243SOL    HW230504   1.966  12.621   5.973
76244SOL     OW30505   0.146   4.930   2.085
76244SOL    HW130506   0.117   4.888   2.166
76244SOL    HW230507   0.095   5.011   2.081
76245SOL     OW30508   4.849  13.981   1.720
76245SOL    HW130509   4.898  14.063   1.714
76245SOL    HW230510   4.915  13.913   1.705
76246SOL     OW30511   0.758   6.670   5.681
76246SOL    HW130512   0.785   6.682   5.590
76246SOL    HW230513   0.822   6.608   5.717
76247SOL     OW30514   9.708   8.419  14.475
76247SOL    HW130515   9.786   8.391  14.428
76247SOL    HW230516   9.725   8.510  14.498
76248SOL     OW30517   1.197  12.668   0.641
76248SOL    HW130518   1.194  12.716   0.558
76248SOL    HW230519   1.247  12.724   0.700
76249SOL     OW30520   3.806  13.656   6.898
76249SOL    HW130521   3.730  13.675   6.952
76249SOL    HW230522   3.825  13.563   6.914
76250SOL     OW30523   0.933   5.639   3.864
76250SOL    HW130524   0.962   5.695   3.792
76250SOL    HW230525   0.978   5.556   3.849
76251SOL     OW30526  10.610   9.277   3.774
76251SOL    HW130527  10.617   9.342   3.704
76251SOL    HW230528  10.553   9.209   3.737
76252SOL     OW30529   4.685   6.999   3.180
76252SOL    HW130530   4.715   6.933   3.242
76252SOL    HW230531   4.639   6.949   3.112
76253SOL     OW30532   9.095   8.128   0.158
76253SOL    HW130533   9.007   8.120   0.195
76253SOL    HW230534   9.081   8.165   0.071
76254SOL     OW30535   4.478   2.058   4.937
76254SOL    HW130536   4.536   2.026   4.868
76254SOL    HW230537   4.444   2.141   4.902
76255SOL     OW30538   2.943  13.113   7.554
76255SOL    HW130539   3.033  13.147   7.556
76255SOL    HW230540   2.913  13.122   7.645
76256SOL     OW30541  11.323  12.171  10.877
76256SOL    HW130542  11.401  12.207  10.836
76256SOL    HW230543  11.330  12.076  10.864
76257SOL     OW30544   4.741  10.189   6.624
76257SOL    HW130545   4.703  10.273   6.650
76257SOL    HW230546   4.678  10.124   6.655
76258SOL     OW30547   5.449   9.239   5.697
76258SOL    HW130548   5.487   9.286   5.622
76258SOL    HW230549   5.460   9.147   5.676
76259SOL     OW30550   7.085  12.628   9.033
76259SOL    HW130551   7.015  12.671   8.984
76259SOL    HW230552   7.064  12.535   9.029
76260SOL     OW30553   2.380   5.100   0.504
76260SOL    HW130554   2.447   5.114   0.570
76260SOL    HW230555   2.427   5.104   0.421
76261SOL     OW30556   3.697   5.096  13.731
76261SOL    HW130557   3.697   5.154  13.655
76261SOL    HW230558   3.606   5.097  13.762
76262SOL     OW30559  10.806   6.617   1.421
76262SOL    HW130560  10.770   6.529   1.409
76262SOL    HW230561  10.785   6.663   1.339
76263SOL     OW30562   9.243   8.167   8.024
76263SOL    HW130563   9.313   8.203   8.079
76263SOL    HW230564   9.173   8.146   8.085
76264SOL     OW30565   2.041  14.246  13.130
76264SOL    HW130566   2.115  14.215  13.182
76264SOL    HW230567   1.998  14.311  13.186
76265SOL     OW30568  13.928   2.859   9.322
76265SOL    HW130569  13.864   2.837   9.390
76265SOL    HW230570  13.875   2.893   9.249
76266SOL     OW30571   2.291   5.502  13.790
76266SOL    HW130572   2.241   5.578  13.761
76266SOL    HW230573   2.333   5.468  13.711
76267SOL     OW30574  10.939   9.543   1.597
76267SOL    HW130575  11.030   9.523   1.616
76267SOL    HW230576  10.942   9.627   1.551
76268SOL     OW30577   8.920   4.546   3.880
76268SOL    HW130578   8.918   4.639   3.901
76268SOL    HW230579   8.831   4.527   3.848
76269SOL     OW30580   4.198   1.759  10.467
76269SOL    HW130581   4.130   1.723  10.525
76269SOL    HW230582   4.231   1.836  10.515
76270SOL     OW30583   0.473  12.198   5.098
76270SOL    HW130584   0.400  12.227   5.153
76270SOL    HW230585   0.551  12.212   5.152
76271SOL     OW30586  13.048   0.962   4.696
76271SOL    HW130587  13.097   0.999   4.770
76271SOL    HW230588  13.116   0.936   4.634
76272SOL     OW30589   1.647  12.524   7.361
76272SOL    HW130590   1.589  12.554   7.291
76272SOL    HW230591   1.636  12.429   7.362
76273SOL     OW30592   3.052   5.633   1.724
76273SOL    HW130593   2.958   5.636   1.704
76273SOL    HW230594   3.094   5.676   1.650
76274SOL     OW30595   4.752  11.195   1.867
76274SOL    HW130596   4.840  11.165   1.891
76274SOL    HW230597   4.766  11.280   1.825
76275SOL     OW30598   1.815   7.603  13.507
76275SOL    HW130599   1.762   7.661  13.453
76275SOL    HW230600   1.800   7.516  13.471
76276SOL     OW30601   2.024  11.097   2.344
76276SOL    HW130602   2.064  11.019   2.383
76276SOL    HW230603   2.080  11.169   2.371
76277SOL     OW30604   1.327  12.075   1.835
76277SOL    HW130605   1.256  12.132   1.862
76277SOL    HW230606   1.299  11.987   1.862
76278SOL     OW30607   3.044  11.671   8.586
76278SOL    HW130608   2.994  11.695   8.508
76278SOL    HW230609   3.100  11.599   8.558
76279SOL     OW30610   3.860   3.968   8.898
76279SOL    HW130611   3.952   3.977   8.874
76279SOL    HW230612   3.812   4.014   8.829
76280SOL     OW30613   6.321   9.529   4.042
76280SOL    HW130614   6.252   9.474   4.002
76280SOL    HW230615   6.385   9.541   3.972
76281SOL     OW30616  12.422  13.195   3.483
76281SOL    HW130617  12.334  13.169   3.455
76281SOL    HW230618  12.411  13.227   3.572
76282SOL     OW30619   1.782  13.763  12.260
76282SOL    HW130620   1.751  13.793  12.175
76282SOL    HW230621   1.862  13.714  12.241
76283SOL     OW30622   8.128   5.846   6.392
76283SOL    HW130623   8.153   5.891   6.311
76283SOL    HW230624   8.032   5.847   6.391
76284SOL     OW30625   8.158   8.895   2.040
76284SOL    HW130626   8.142   8.811   1.996
76284SOL    HW230627   8.226   8.937   1.988
76285SOL     OW30628   2.678  12.924   7.586
76285SOL    HW130629   2.705  13.004   7.632
76285SOL    HW230630   2.656  12.863   7.656
76286SOL     OW30631   9.026  13.170   3.057
76286SOL    HW130632   8.990  13.175   2.968
76286SOL    HW230633   9.064  13.257   3.072
76287SOL     OW30634  11.139   3.126   9.998
76287SOL    HW130635  11.133   3.165   9.910
76287SOL    HW230636  11.092   3.043   9.989
76288SOL     OW30637  13.857   7.752   0.297
76288SOL    HW130638  13.782   7.693   0.304
76288SOL    HW230639  13.822   7.838   0.316
76289SOL     OW30640  12.983   9.647  10.746
76289SOL    HW130641  13.031   9.708  10.802
76289SOL    HW230642  13.011   9.669  10.657
76290SOL     OW30643  13.429  10.988   1.177
76290SOL    HW130644  13.421  11.071   1.129
76290SOL    HW230645  13.351  10.938   1.153
76291SOL     OW30646  13.054  14.651   9.669
76291SOL    HW130647  13.135  14.695   9.694
76291SOL    HW230648  13.016  14.622   9.752
76292SOL     OW30649  12.007   2.299  14.864
76292SOL    HW130650  11.957   2.376  14.838
76292SOL    HW230651  12.064   2.330   0.057
76293SOL     OW30652   2.816   1.065   8.136
76293SOL    HW130653   2.775   0.997   8.189
76293SOL    HW230654   2.909   1.041   8.133
76294SOL     OW30655   3.213   1.534  10.810
76294SOL    HW130656   3.143   1.532  10.876
76294SOL    HW230657   3.167   1.543  10.727
76295SOL     OW30658  12.906   4.625   1.106
76295SOL    HW130659  12.859   4.654   1.028
76295SOL    HW230660  12.857   4.548   1.135
76296SOL     OW30661   7.609   9.268   9.373
76296SOL    HW130662   7.523   9.307   9.389
76296SOL    HW230663   7.624   9.211   9.448
76297SOL     OW30664   0.127   3.431  10.365
76297SOL    HW130665   0.219   3.410  10.350
76297SOL    HW230666   0.128   3.493  10.438
76298SOL     OW30667   8.690   8.338  13.366
76298SOL    HW130668   8.699   8.432  13.381
76298SOL    HW230669   8.598   8.326  13.345
76299SOL     OW30670   9.818   8.347   2.948
76299SOL    HW130671   9.807   8.383   3.035
76299SOL    HW230672   9.731   8.316   2.923
76300SOL     OW30673  11.117  13.956  11.039
76300SOL    HW130674  11.079  13.952  10.952
76300SOL    HW230675  11.087  14.040  11.075
76301SOL     OW30676   0.552   3.573   3.201
76301SOL    HW130677   0.523   3.664   3.205
76301SOL    HW230678   0.645   3.579   3.179
76302SOL     OW30679  12.924   8.291   3.353
76302SOL    HW130680  12.892   8.334   3.433
76302SOL    HW230681  12.979   8.357   3.311
76303SOL     OW30682   2.086  10.307   7.514
76303SOL    HW130683   2.117  10.243   7.578
76303SOL    HW230684   2.003  10.272   7.483
76304SOL     OW30685   3.904  10.634   5.174
76304SOL    HW130686   3.893  10.555   5.121
76304SOL    HW230687   3.879  10.607   5.262
76305SOL     OW30688  12.805   7.943  12.173
76305SOL    HW130689  12.793   7.893  12.092
76305SOL    HW230690  12.769   8.029  12.154
76306SOL     OW30691   1.041  14.630   3.046
76306SOL    HW130692   1.006  14.581   3.120
76306SOL    HW230693   0.964  14.655   2.995
76307SOL     OW30694   3.014   8.028  11.332
76307SOL    HW130695   3.049   8.011  11.420
76307SOL    HW230696   2.960   8.106  11.343
76308SOL     OW30697   8.891   1.822   2.943
76308SOL    HW130698   8.799   1.851   2.946
76308SOL    HW230699   8.909   1.791   3.032
76309SOL     OW30700   9.433  12.815   7.889
76309SOL    HW130701   9.423  12.893   7.834
76309SOL    HW230702   9.403  12.843   7.975
76310SOL     OW30703   6.460  11.458   9.277
76310SOL    HW130704   6.513  11.402   9.220
76310SOL    HW230705   6.417  11.397   9.337
76311SOL     OW30706   3.494  10.301   9.558
76311SOL    HW130707   3.486  10.359   9.634
76311SOL    HW230708   3.563  10.341   9.505
76312SOL     OW30709   2.566   9.593   2.458
76312SOL    HW130710   2.526   9.512   2.426
76312SOL    HW230711   2.622   9.565   2.530
76313SOL     OW30712   2.932  13.100   7.276
76313SOL    HW130713   3.019  13.140   7.270
76313SOL    HW230714   2.939  13.040   7.351
76314SOL     OW30715   3.739   9.201   3.715
76314SOL    HW130716   3.755   9.294   3.733
76314SOL    HW230717   3.695   9.168   3.794
76315SOL     OW30718   3.185   6.711  13.278
76315SOL    HW130719   3.203   6.736  13.187
76315SOL    HW230720   3.217   6.785  13.329
76316SOL     OW30721   5.160   4.065   1.293
76316SOL    HW130722   5.232   4.115   1.255
76316SOL    HW230723   5.098   4.055   1.220
76317SOL     OW30724   5.641   6.557  14.646
76317SOL    HW130725   5.637   6.502  14.724
76317SOL    HW230726   5.638   6.496  14.573
76318SOL     OW30727   1.511  10.549   3.809
76318SOL    HW130728   1.458  10.618   3.769
76318SOL    HW230729   1.460  10.519   3.884
76319SOL     OW30730   1.114   2.770   5.737
76319SOL    HW130731   1.184   2.828   5.705
76319SOL    HW230732   1.051   2.830   5.776
76320SOL     OW30733  14.348   6.795  12.097
76320SOL    HW130734  14.347   6.724  12.033
76320SOL    HW230735  14.425   6.779  12.150
76321SOL     OW30736  10.745   9.767  11.606
76321SOL    HW130737  10.694   9.813  11.673
76321SOL    HW230738  10.745   9.675  11.635
76322SOL     OW30739   8.053  14.511   7.502
76322SOL    HW130740   8.038  14.578   7.435
76322SOL    HW230741   7.968  14.501   7.544
76323SOL     OW30742   2.766  10.718   0.630
76323SOL    HW130743   2.827  10.760   0.569
76323SOL    HW230744   2.714  10.659   0.575
76324SOL     OW30745   7.857   2.036   8.410
76324SOL    HW130746   7.916   2.043   8.335
76324SOL    HW230747   7.886   2.106   8.470
76325SOL     OW30748   1.493   2.622   0.522
76325SOL    HW130749   1.516   2.680   0.594
76325SOL    HW230750   1.398   2.618   0.523
76326SOL     OW30751   8.235   7.614  10.296
76326SOL    HW130752   8.279   7.698  10.311
76326SOL    HW230753   8.203   7.620  10.206
76327SOL     OW30754   7.345  14.703   5.201
76327SOL    HW130755   7.306  14.791   5.204
76327SOL    HW230756   7.433  14.715   5.238
76328SOL     OW30757   8.168   6.335   5.805
76328SOL    HW130758   8.089   6.389   5.802
76328SOL    HW230759   8.137   6.246   5.820
76329SOL     OW30760   2.788   3.751  12.122
76329SOL    HW130761   2.736   3.776  12.046
76329SOL    HW230762   2.857   3.695  12.086
76330SOL     OW30763   6.398  12.123   0.459
76330SOL    HW130764   6.473  12.081   0.416
76330SOL    HW230765   6.329  12.057   0.456
76331SOL     OW30766   5.869  10.656   4.535
76331SOL    HW130767   5.960  10.685   4.534
76331SOL    HW230768   5.825  10.710   4.469
76332SOL     OW30769   2.088   2.019   5.678
76332SOL    HW130770   2.132   1.973   5.607
76332SOL    HW230771   2.123   2.108   5.674
76333SOL     OW30772   1.332   6.063  14.257
76333SOL    HW130773   1.284   6.026  14.331
76333SOL    HW230774   1.314   6.004  14.184
76334SOL     OW30775   7.910   8.706  10.330
76334SOL    HW130776   7.967   8.750  10.393
76334SOL    HW230777   7.969   8.660  10.271
76335SOL     OW30778   8.804   4.633  12.639
76335SOL    HW130779   8.789   4.724  12.661
76335SOL    HW230780   8.875   4.635  12.574
76336SOL     OW30781   3.813   0.154  13.762
76336SOL    HW130782   3.833   0.072  13.717
76336SOL    HW230783   3.745   0.131  13.825
76337SOL     OW30784  10.684   4.969  13.371
76337SOL    HW130785  10.736   5.041  13.405
76337SOL    HW230786  10.714   4.891  13.419
76338SOL     OW30787   4.269   7.888   1.250
76338SOL    HW130788   4.220   7.969   1.233
76338SOL    HW230789   4.359   7.908   1.223
76339SOL     OW30790  14.444   7.944   8.056
76339SOL    HW130791  14.449   8.009   8.125
76339SOL    HW230792  14.476   7.989   7.978
76340SOL     OW30793  13.507   5.091  10.593
76340SOL    HW130794  13.432   5.148  10.609
76340SOL    HW230795  13.505   5.028  10.664
76341SOL     OW30796  12.183  11.678   6.764
76341SOL    HW130797  12.270  11.657   6.800
76341SOL    HW230798  12.201  11.724   6.683
76342SOL     OW30799  13.045  14.337   3.388
76342SOL    HW130800  12.966  14.318   3.439
76342SOL    HW230801  13.056  14.432   3.396
76343SOL     OW30802   3.459   8.933   3.054
76343SOL    HW130803   3.457   9.027   3.034
76343SOL    HW230804   3.427   8.891   2.974
76344SOL     OW30805   4.704  10.954  14.741
76344SOL    HW130806   4.731  11.041  14.711
76344SOL    HW230807   4.688  10.905  14.661
76345SOL     OW30808  13.497  10.417   9.535
76345SOL    HW130809  13.526  10.371   9.614
76345SOL    HW230810  13.535  10.368   9.462
76346SOL     OW30811   0.039   7.135   6.010
76346SOL    HW130812   0.132   7.145   5.991
76346SOL    HW230813   0.035   7.125   6.105
76347SOL     OW30814   0.431   7.051   3.515
76347SOL    HW130815   0.428   7.027   3.422
76347SOL    HW230816   0.354   7.009   3.553
76348SOL     OW30817   9.285   0.128   8.398
76348SOL    HW130818   9.320   0.216   8.416
76348SOL    HW230819   9.350   0.088   8.341
76349SOL     OW30820   8.765   5.249   4.707
76349SOL    HW130821   8.735   5.166   4.669
76349SOL    HW230822   8.701   5.269   4.775
76350SOL     OW30823  11.285   7.385   8.721
76350SOL    HW130824  11.219   7.443   8.760
76350SOL    HW230825  11.281   7.404   8.627
76351SOL     OW30826   4.908   0.922   7.242
76351SOL    HW130827   4.872   0.842   7.203
76351SOL    HW230828   4.995   0.931   7.203
76352SOL     OW30829   9.618   8.853   2.339
76352SOL    HW130830   9.590   8.887   2.254
76352SOL    HW230831   9.656   8.767   2.318
76353SOL     OW30832  12.503   7.441  12.459
76353SOL    HW130833  12.433   7.465  12.398
76353SOL    HW230834  12.550   7.523  12.474
76354SOL     OW30835   5.216   5.288   4.221
76354SOL    HW130836   5.156   5.224   4.259
76354SOL    HW230837   5.162   5.365   4.206
76355SOL     OW30838   8.940   8.684  10.507
76355SOL    HW130839   8.948   8.729  10.591
76355SOL    HW230840   8.872   8.618  10.521
76356SOL     OW30841   7.139   7.789  10.044
76356SOL    HW130842   7.206   7.793   9.976
76356SOL    HW230843   7.167   7.854  10.109
76357SOL     OW30844  12.373  11.366   4.013
76357SOL    HW130845  12.327  11.442   3.977
76357SOL    HW230846  12.373  11.302   3.943
76358SOL     OW30847   3.516  10.892   6.111
76358SOL    HW130848   3.577  10.819   6.096
76358SOL    HW230849   3.459  10.891   6.034
76359SOL     OW30850   0.874   7.188  12.642
76359SOL    HW130851   0.905   7.268  12.599
76359SOL    HW230852   0.954   7.141  12.666
76360SOL     OW30853   2.572   7.531   6.383
76360SOL    HW130854   2.480   7.555   6.391
76360SOL    HW230855   2.618   7.614   6.372
76361SOL     OW30856   6.887  10.411   9.045
76361SOL    HW130857   6.924  10.394   9.131
76361SOL    HW230858   6.942  10.361   8.985
76362SOL     OW30859   3.111   5.365  10.860
76362SOL    HW130860   3.076   5.329  10.778
76362SOL    HW230861   3.103   5.294  10.923
76363SOL     OW30862   5.701   6.443  12.791
76363SOL    HW130863   5.639   6.500  12.744
76363SOL    HW230864   5.672   6.446  12.882
76364SOL     OW30865   3.436   5.656   5.308
76364SOL    HW130866   3.363   5.652   5.245
76364SOL    HW230867   3.513   5.671   5.253
76365SOL     OW30868   7.359  10.417   5.317
76365SOL    HW130869   7.294  10.438   5.250
76365SOL    HW230870   7.379  10.325   5.303
76366SOL     OW30871   2.103  14.356   4.905
76366SOL    HW130872   2.036  14.378   4.840
76366SOL    HW230873   2.130  14.267   4.882
76367SOL     OW30874  10.987   2.582   9.976
76367SOL    HW130875  10.976   2.668  10.017
76367SOL    HW230876  10.986   2.599   9.882
76368SOL     OW30877   3.637   7.628   8.012
76368SOL    HW130878   3.669   7.539   8.032
76368SOL    HW230879   3.708   7.685   8.039
76369SOL     OW30880  14.695   1.243   1.762
76369SOL    HW130881  14.710   1.336   1.746
76369SOL    HW230882  14.662   1.210   1.679
76370SOL     OW30883  14.620   0.256  14.186
76370SOL    HW130884  14.664   0.338  14.207
76370SOL    HW230885  14.548   0.251  14.249
76371SOL     OW30886   7.606   7.433   6.042
76371SOL    HW130887   7.651   7.506   5.999
76371SOL    HW230888   7.587   7.371   5.971
76372SOL     OW30889  11.084   0.357   6.775
76372SOL    HW130890  11.087   0.422   6.845
76372SOL    HW230891  11.100   0.406   6.695
76373SOL     OW30892   6.805   5.902  11.552
76373SOL    HW130893   6.819   5.996  11.544
76373SOL    HW230894   6.745   5.893  11.626
76374SOL     OW30895  12.955  10.007   0.521
76374SOL    HW130896  12.961  10.037   0.430
76374SOL    HW230897  12.936  10.085   0.572
76375SOL     OW30898   5.811   4.440   8.385
76375SOL    HW130899   5.898   4.408   8.409
76375SOL    HW230900   5.755   4.414   8.458
76376SOL     OW30901  10.362   3.450   2.787
76376SOL    HW130902  10.300   3.411   2.849
76376SOL    HW230903  10.339   3.410   2.703
76377SOL     OW30904   0.068   6.286   3.410
76377SOL    HW130905   0.075   6.227   3.485
76377SOL    HW230906   0.040   6.230   3.338
76378SOL     OW30907   1.350  11.374  14.144
76378SOL    HW130908   1.443  11.394  14.133
76378SOL    HW230909   1.323  11.338  14.060
76379SOL     OW30910   6.178   1.887   1.071
76379SOL    HW130911   6.180   1.800   1.031
76379SOL    HW230912   6.228   1.942   1.011
76380SOL     OW30913  10.551  13.875  12.529
76380SOL    HW130914  10.620  13.865  12.595
76380SOL    HW230915  10.598  13.871  12.446
76381SOL     OW30916   3.514  13.206   8.521
76381SOL    HW130917   3.592  13.262   8.515
76381SOL    HW230918   3.480  13.202   8.432
76382SOL     OW30919   1.611  11.678   0.419
76382SOL    HW130920   1.523  11.713   0.432
76382SOL    HW230921   1.659  11.750   0.378
76383SOL     OW30922  13.299   6.234   4.590
76383SOL    HW130923  13.318   6.150   4.548
76383SOL    HW230924  13.204   6.237   4.597
76384SOL     OW30925   9.346   7.726  14.251
76384SOL    HW130926   9.394   7.719  14.333
76384SOL    HW230927   9.413   7.742  14.184
76385SOL     OW30928  11.188   7.411   4.424
76385SOL    HW130929  11.158   7.364   4.347
76385SOL    HW230930  11.241   7.483   4.389
76386SOL     OW30931  14.261  12.105   8.445
76386SOL    HW130932  14.195  12.086   8.378
76386SOL    HW230933  14.335  12.048   8.423
76387SOL     OW30934   2.306   8.850   9.768
76387SOL    HW130935   2.228   8.848   9.823
76387SOL    HW230936   2.379   8.835   9.828
76388SOL     OW30937   1.174   3.499   6.657
76388SOL    HW130938   1.250   3.509   6.714
76388SOL    HW230939   1.106   3.554   6.697
76389SOL     OW30940  11.171  11.154   1.572
76389SOL    HW130941  11.079  11.182   1.578
76389SOL    HW230942  11.167  11.066   1.534
76390SOL     OW30943   8.799  10.520   5.431
76390SOL    HW130944   8.738  10.593   5.436
76390SOL    HW230945   8.875  10.549   5.482
76391SOL     OW30946   5.588  13.409  14.288
76391SOL    HW130947   5.546  13.336  14.333
76391SOL    HW230948   5.556  13.403  14.198
76392SOL     OW30949  14.558   8.301  12.752
76392SOL    HW130950  14.511   8.257  12.823
76392SOL    HW230951  14.491   8.352  12.707
76393SOL     OW30952   5.650  14.110  14.259
76393SOL    HW130953   5.649  14.123  14.164
76393SOL    HW230954   5.563  14.139  14.288
76394SOL     OW30955   3.686   1.632   8.447
76394SOL    HW130956   3.695   1.687   8.525
76394SOL    HW230957   3.749   1.561   8.460
76395SOL     OW30958  10.725   2.953   1.349
76395SOL    HW130959  10.642   2.907   1.340
76395SOL    HW230960  10.704   3.031   1.401
76396SOL     OW30961   0.865   8.976   5.143
76396SOL    HW130962   0.852   9.044   5.077
76396SOL    HW230963   0.877   8.896   5.093
76397SOL     OW30964   8.766   1.702   5.845
76397SOL    HW130965   8.818   1.675   5.921
76397SOL    HW230966   8.824   1.758   5.795
76398SOL     OW30967   9.993  11.780   6.533
76398SOL    HW130968   9.983  11.819   6.619
76398SOL    HW230969  10.043  11.700   6.548
76399SOL     OW30970   1.301   5.160  11.182
76399SOL    HW130971   1.397   5.157  11.177
76399SOL    HW230972   1.283   5.188  11.272
76400SOL     OW30973  14.806  13.126   2.246
76400SOL    HW130974  14.809  13.221   2.257
76400SOL    HW230975  14.838  13.111   2.157
76401SOL     OW30976  12.827   6.347   1.760
76401SOL    HW130977  12.741   6.354   1.719
76401SOL    HW230978  12.855   6.258   1.741
76402SOL     OW30979   7.446   0.791   4.532
76402SOL    HW130980   7.497   0.713   4.507
76402SOL    HW230981   7.355   0.762   4.529
76403SOL     OW30982   2.812   9.931   3.188
76403SOL    HW130983   2.754   9.997   3.150
76403SOL    HW230984   2.753   9.862   3.218
76404SOL     OW30985   4.570   2.978   1.301
76404SOL    HW130986   4.515   3.040   1.349
76404SOL    HW230987   4.645   2.962   1.359
76405SOL     OW30988  13.578   6.783   9.652
76405SOL    HW130989  13.570   6.870   9.692
76405SOL    HW230990  13.489   6.759   9.629
76406SOL     OW30991   5.587  13.880   4.107
76406SOL    HW130992   5.516  13.902   4.047
76406SOL    HW230993   5.632  13.807   4.065
76407SOL     OW30994   0.335  10.638   9.951
76407SOL    HW130995   0.249  10.596   9.954
76407SOL    HW230996   0.328  10.710  10.013
76408SOL     OW30997   1.321   3.631   5.923
76408SOL    HW130998   1.362   3.603   6.005
76408SOL    HW230999   1.297   3.550   5.878
76409SOL     OW31000  14.698   8.545  10.518
76409SOL    HW131001  14.777   8.536  10.464
76409SOL    HW231002  14.676   8.456  10.544
76410SOL     OW31003  12.976   6.778   4.853
76410SOL    HW131004  13.056   6.815   4.815
76410SOL    HW231005  12.909   6.791   4.786
76411SOL     OW31006   1.335   3.460   3.393
76411SOL    HW131007   1.342   3.460   3.297
76411SOL    HW231008   1.419   3.492   3.423
76412SOL     OW31009   0.028   5.987   7.279
76412SOL    HW131010   0.041   6.079   7.255
76412SOL    HW231011   0.079   5.938   7.215
76413SOL     OW31012  11.600   2.695   0.060
76413SOL    HW131013  11.662   2.684   0.132
76413SOL    HW231014  11.530   2.634   0.079
76414SOL     OW31015   7.928   3.787   8.846
76414SOL    HW131016   7.884   3.704   8.861
76414SOL    HW231017   7.858   3.852   8.849
76415SOL     OW31018  12.832   7.255  11.000
76415SOL    HW131019  12.854   7.173  11.045
76415SOL    HW231020  12.820   7.229  10.909
76416SOL     OW31021   0.890  12.627   8.588
76416SOL    HW131022   0.913  12.690   8.655
76416SOL    HW231023   0.795  12.615   8.597
76417SOL     OW31024  13.656  10.460   2.286
76417SOL    HW131025  13.632  10.370   2.265
76417SOL    HW231026  13.716  10.486   2.216
76418SOL     OW31027   1.090  12.414   1.785
76418SOL    HW131028   1.014  12.356   1.775
76418SOL    HW231029   1.069  12.467   1.862
76419SOL     OW31030   7.642   2.514  13.619
76419SOL    HW131031   7.644   2.599  13.575
76419SOL    HW231032   7.662   2.533  13.710
76420SOL     OW31033   8.091  13.864   3.839
76420SOL    HW131034   8.047  13.947   3.820
76420SOL    HW231035   8.184  13.886   3.845
76421SOL     OW31036  12.432   8.808  14.834
76421SOL    HW131037  12.457   8.738  14.774
76421SOL    HW231038  12.505   8.870  14.831
76422SOL     OW31039   6.166  11.508   1.787
76422SOL    HW131040   6.115  11.546   1.715
76422SOL    HW231041   6.222  11.442   1.744
76423SOL     OW31042   0.595   7.199   3.712
76423SOL    HW131043   0.593   7.149   3.794
76423SOL    HW231044   0.570   7.135   3.645
76424SOL     OW31045   6.070   2.490   4.023
76424SOL    HW131046   6.017   2.411   4.010
76424SOL    HW231047   6.021   2.560   3.980
76425SOL     OW31048   8.605   6.234   2.844
76425SOL    HW131049   8.691   6.212   2.807
76425SOL    HW231050   8.611   6.204   2.935
76426SOL     OW31051  11.631  12.773  11.127
76426SOL    HW131052  11.701  12.752  11.065
76426SOL    HW231053  11.553  12.732  11.090
76427SOL     OW31054   8.701   4.385   1.302
76427SOL    HW131055   8.643   4.318   1.265
76427SOL    HW231056   8.779   4.336   1.330
76428SOL     OW31057   4.413   9.317   1.966
76428SOL    HW131058   4.484   9.328   1.903
76428SOL    HW231059   4.349   9.384   1.943
76429SOL     OW31060   5.106   8.105   3.973
76429SOL    HW131061   5.178   8.065   3.923
76429SOL    HW231062   5.093   8.190   3.932
76430SOL     OW31063   5.556   7.129  12.273
76430SOL    HW131064   5.558   7.039  12.307
76430SOL    HW231065   5.648   7.149  12.254
76431SOL     OW31066   2.275  12.464   5.886
76431SOL    HW131067   2.182  12.453   5.905
76431SOL    HW231068   2.315  12.482   5.971
76432SOL     OW31069   7.196   6.214   5.300
76432SOL    HW131070   7.201   6.128   5.342
76432SOL    HW231071   7.175   6.275   5.371
76433SOL     OW31072  13.344  13.220   1.427
76433SOL    HW131073  13.414  13.157   1.415
76433SOL    HW231074  13.384  13.305   1.407
76434SOL     OW31075   1.867   8.893  13.364
76434SOL    HW131076   1.879   8.798  13.361
76434SOL    HW231077   1.901   8.925  13.280
76435SOL     OW31078   1.597   5.136  10.287
76435SOL    HW131079   1.540   5.186  10.345
76435SOL    HW231080   1.549   5.055  10.270
76436SOL     OW31081  13.237  11.514   6.307
76436SOL    HW131082  13.272  11.555   6.228
76436SOL    HW231083  13.181  11.443   6.275
76437SOL     OW31084   8.655   8.622   9.619
76437SOL    HW131085   8.736   8.671   9.606
76437SOL    HW231086   8.618   8.614   9.531
76438SOL     OW31087   3.352   1.167   4.919
76438SOL    HW131088   3.429   1.130   4.876
76438SOL    HW231089   3.376   1.171   5.012
76439SOL     OW31090   9.895   3.046  12.245
76439SOL    HW131091   9.858   2.998  12.319
76439SOL    HW231092   9.980   3.005  12.229
76440SOL     OW31093  11.795   6.989   4.845
76440SOL    HW131094  11.761   7.055   4.785
76440SOL    HW231095  11.861   6.942   4.795
76441SOL     OW31096   4.029  14.649   6.869
76441SOL    HW131097   3.939  14.618   6.879
76441SOL    HW231098   4.082  14.585   6.916
76442SOL     OW31099   3.021   2.436   6.412
76442SOL    HW131100   2.992   2.345   6.421
76442SOL    HW231101   2.968   2.471   6.341
76443SOL     OW31102   3.406   9.878   9.474
76443SOL    HW131103   3.375   9.943   9.412
76443SOL    HW231104   3.462   9.820   9.422
76444SOL     OW31105  13.178  11.006   0.004
76444SOL    HW131106  13.132  10.981  14.801
76444SOL    HW231107  13.154  10.937   0.067
76445SOL     OW31108  14.253  13.163  11.986
76445SOL    HW131109  14.165  13.126  11.976
76445SOL    HW231110  14.256  13.196  12.076
76446SOL     OW31111  12.340  12.826   5.388
76446SOL    HW131112  12.297  12.741   5.397
76446SOL    HW231113  12.288  12.872   5.321
76447SOL     OW31114   9.493   8.782   4.142
76447SOL    HW131115   9.505   8.751   4.232
76447SOL    HW231116   9.571   8.751   4.095
76448SOL     OW31117  14.220   4.506   8.025
76448SOL    HW131118  14.291   4.442   8.021
76448SOL    HW231119  14.145   4.455   8.058
76449SOL     OW31120   5.631  12.855   6.235
76449SOL    HW131121   5.623  12.819   6.323
76449SOL    HW231122   5.563  12.811   6.184
76450SOL     OW31123   4.498   2.336   9.870
76450SOL    HW131124   4.549   2.262   9.835
76450SOL    HW231125   4.513   2.332   9.964
76451SOL     OW31126  10.323  11.198   4.846
76451SOL    HW131127  10.358  11.287   4.845
76451SOL    HW231128  10.260  11.198   4.918
76452SOL     OW31129   2.311   8.697  10.156
76452SOL    HW131130   2.384   8.663  10.207
76452SOL    HW231131   2.334   8.788  10.139
76453SOL     OW31132   9.947   1.793   1.860
76453SOL    HW131133   9.958   1.875   1.907
76453SOL    HW231134   9.854   1.788   1.840
76454SOL     OW31135   3.600   6.485  11.166
76454SOL    HW131136   3.665   6.540  11.122
76454SOL    HW231137   3.639   6.463  11.250
76455SOL     OW31138  13.494   0.967   4.437
76455SOL    HW131139  13.554   0.906   4.393
76455SOL    HW231140  13.412   0.918   4.446
76456SOL     OW31141  12.302   1.624   1.285
76456SOL    HW131142  12.266   1.644   1.372
76456SOL    HW231143  12.257   1.685   1.226
76457SOL     OW31144  10.965   6.261   3.321
76457SOL    HW131145  10.874   6.265   3.350
76457SOL    HW231146  11.001   6.347   3.340
76458SOL     OW31147   3.377   2.262   2.323
76458SOL    HW131148   3.335   2.300   2.246
76458SOL    HW231149   3.400   2.173   2.296
76459SOL     OW31150   9.714   6.517   1.119
76459SOL    HW131151   9.707   6.422   1.119
76459SOL    HW231152   9.754   6.538   1.203
76460SOL     OW31153  10.533   1.645  11.472
76460SOL    HW131154  10.599   1.693  11.421
76460SOL    HW231155  10.565   1.650  11.562
76461SOL     OW31156   1.449   6.964  11.768
76461SOL    HW131157   1.542   6.946  11.750
76461SOL    HW231158   1.415   6.880  11.800
76462SOL     OW31159   5.733   0.940   0.614
76462SOL    HW131160   5.723   1.023   0.660
76462SOL    HW231161   5.653   0.892   0.634
76463SOL     OW31162   5.796  11.505  10.270
76463SOL    HW131163   5.867  11.482  10.211
76463SOL    HW231164   5.837  11.510  10.356
76464SOL     OW31165   5.809  13.134   8.070
76464SOL    HW131166   5.810  13.053   8.122
76464SOL    HW231167   5.873  13.191   8.112
76465SOL     OW31168   5.503   5.376  14.845
76465SOL    HW131169   5.476   5.353  14.756
76465SOL    HW231170   5.489   5.297   0.019
76466SOL     OW31171  14.235   4.571   8.804
76466SOL    HW131172  14.200   4.505   8.864
76466SOL    HW231173  14.280   4.634   8.861
76467SOL     OW31174   7.670  12.827   9.374
76467SOL    HW131175   7.732  12.888   9.335
76467SOL    HW231176   7.673  12.846   9.468
76468SOL     OW31177   0.454   7.701   7.559
76468SOL    HW131178   0.495   7.682   7.643
76468SOL    HW231179   0.469   7.795   7.546
76469SOL     OW31180   0.791   4.161  14.533
76469SOL    HW131181   0.726   4.120  14.476
76469SOL    HW231182   0.874   4.151  14.486
76470SOL     OW31183   8.991   6.514   2.119
76470SOL    HW131184   9.008   6.461   2.196
76470SOL    HW231185   8.989   6.604   2.151
76471SOL     OW31186  14.794  13.382   7.843
76471SOL    HW131187  14.718  13.380   7.784
76471SOL    HW231188  14.812  13.290   7.862
76472SOL     OW31189   6.932   1.739   7.850
76472SOL    HW131190   6.838   1.742   7.829
76472SOL    HW231191   6.952   1.645   7.854
76473SOL     OW31192   4.944  13.896  14.506
76473SOL    HW131193   4.909  13.843  14.435
76473SOL    HW231194   4.868  13.916  14.561
76474SOL     OW31195   7.306   8.810  12.596
76474SOL    HW131196   7.295   8.827  12.503
76474SOL    HW231197   7.226   8.843  12.637
76475SOL     OW31198   5.009   2.463   2.999
76475SOL    HW131199   4.934   2.520   3.018
76475SOL    HW231200   5.008   2.398   3.069
76476SOL     OW31201  14.351   9.897   9.063
76476SOL    HW131202  14.443   9.922   9.058
76476SOL    HW231203  14.320   9.935   9.145
76477SOL     OW31204   6.444   5.816   2.808
76477SOL    HW131205   6.423   5.797   2.899
76477SOL    HW231206   6.537   5.792   2.800
76478SOL     OW31207   7.802   2.903   3.166
76478SOL    HW131208   7.823   2.889   3.074
76478SOL    HW231209   7.877   2.951   3.201
76479SOL     OW31210   1.799  11.144   6.715
76479SOL    HW131211   1.783  11.085   6.641
76479SOL    HW231212   1.747  11.108   6.786
76480SOL     OW31213   7.712  11.715   6.789
76480SOL    HW131214   7.723  11.806   6.816
76480SOL    HW231215   7.781  11.667   6.834
76481SOL     OW31216  14.132   2.612   7.313
76481SOL    HW131217  14.037   2.611   7.326
76481SOL    HW231218  14.144   2.649   7.225
76482SOL     OW31219  14.699   1.915   3.991
76482SOL    HW131220  14.792   1.894   3.981
76482SOL    HW231221  14.654   1.844   3.945
76483SOL     OW31222  11.669   3.737  11.500
76483SOL    HW131223  11.627   3.658  11.534
76483SOL    HW231224  11.760   3.729  11.527
76484SOL     OW31225   4.583  13.495  12.318
76484SOL    HW131226   4.564  13.565  12.380
76484SOL    HW231227   4.541  13.417  12.356
76485SOL     OW31228   9.896  10.354  10.042
76485SOL    HW131229   9.836  10.308  10.101
76485SOL    HW231230   9.854  10.348   9.956
76486SOL     OW31231  12.208   8.368   2.153
76486SOL    HW131232  12.164   8.452   2.145
76486SOL    HW231233  12.262   8.375   2.232
76487SOL     OW31234   9.584  10.391  13.138
76487SOL    HW131235   9.665  10.346  13.115
76487SOL    HW231236   9.520  10.360  13.073
76488SOL     OW31237  12.201   3.082   3.408
76488SOL    HW131238  12.259   3.147   3.449
76488SOL    HW231239  12.234   3.073   3.319
76489SOL     OW31240   1.956  10.928  13.257
76489SOL    HW131241   1.936  10.858  13.319
76489SOL    HW231242   1.876  10.939  13.207
76490SOL     OW31243   6.250   6.892  14.629
76490SOL    HW131244   6.274   6.844  14.708
76490SOL    HW231245   6.317   6.867  14.564
76491SOL     OW31246   6.453   9.368   0.442
76491SOL    HW131247   6.530   9.425   0.443
76491SOL    HW231248   6.479   9.292   0.390
76492SOL     OW31249  13.694   8.472   1.313
76492SOL    HW131250  13.690   8.498   1.221
76492SOL    HW231251  13.613   8.505   1.351
76493SOL     OW31252  10.089  12.881  10.055
76493SOL    HW131253  10.094  12.938   9.978
76493SOL    HW231254  10.180  12.857  10.072
76494SOL     OW31255  13.326   0.482   7.011
76494SOL    HW131256  13.356   0.392   7.016
76494SOL    HW231257  13.237   0.480   7.046
76495SOL     OW31258   3.401   4.621   5.846
76495SOL    HW131259   3.361   4.548   5.799
76495SOL    HW231260   3.448   4.670   5.779
76496SOL     OW31261  10.020   1.959   1.256
76496SOL    HW131262  10.031   1.882   1.200
76496SOL    HW231263   9.946   1.937   1.313
76497SOL     OW31264   1.556   9.834   9.447
76497SOL    HW131265   1.604   9.873   9.521
76497SOL    HW231266   1.561   9.740   9.463
76498SOL     OW31267  13.213   8.638  14.023
76498SOL    HW131268  13.155   8.663  14.095
76498SOL    HW231269  13.214   8.542  14.024
76499SOL     OW31270   2.140  14.201   5.543
76499SOL    HW131271   2.178  14.192   5.630
76499SOL    HW231272   2.197  14.149   5.486
76500SOL     OW31273   0.662   6.933  12.285
76500SOL    HW131274   0.731   6.998  12.274
76500SOL    HW231275   0.674   6.899  12.373
76501SOL     OW31276  11.866   8.620   4.656
76501SOL    HW131277  11.777   8.584   4.657
76501SOL    HW231278  11.854   8.714   4.650
76502SOL     OW31279   3.526   1.581   3.962
76502SOL    HW131280   3.513   1.543   3.875
76502SOL    HW231281   3.446   1.559   4.010
76503SOL     OW31282   0.210   0.168   7.869
76503SOL    HW131283   0.140   0.160   7.805
76503SOL    HW231284   0.166   0.194   7.950
76504SOL     OW31285   9.565   6.224   4.344
76504SOL    HW131286   9.472   6.217   4.326
76504SOL    HW231287   9.585   6.146   4.396
76505SOL     OW31288   5.773   4.135  11.874
76505SOL    HW131289   5.739   4.186  11.947
76505SOL    HW231290   5.766   4.193  11.799
76506SOL     OW31291  12.976   2.957   7.414
76506SOL    HW131292  12.950   3.047   7.395
76506SOL    HW231293  12.917   2.904   7.360
76507SOL     OW31294  10.296   4.557   5.034
76507SOL    HW131295  10.380   4.596   5.010
76507SOL    HW231296  10.244   4.630   5.069
76508SOL     OW31297   2.333  13.663  11.823
76508SOL    HW131298   2.353  13.749  11.787
76508SOL    HW231299   2.382  13.602  11.769
76509SOL     OW31300   4.899   1.120   2.724
76509SOL    HW131301   4.964   1.063   2.765
76509SOL    HW231302   4.933   1.137   2.637
76510SOL     OW31303   7.639   4.475  14.215
76510SOL    HW131304   7.669   4.512  14.298
76510SOL    HW231305   7.707   4.412  14.192
76511SOL     OW31306  14.194   4.706   7.306
76511SOL    HW131307  14.284   4.740   7.305
76511SOL    HW231308  14.142   4.776   7.266
76512SOL     OW31309   0.434  10.207  11.914
76512SOL    HW131310   0.422  10.121  11.954
76512SOL    HW231311   0.436  10.268  11.988
76513SOL     OW31312   6.011  11.330   5.554
76513SOL    HW131313   5.984  11.344   5.645
76513SOL    HW231314   5.984  11.410   5.509
76514SOL     OW31315   5.821  14.583   6.860
76514SOL    HW131316   5.867  14.549   6.783
76514SOL    HW231317   5.729  14.583   6.835
76515SOL     OW31318  13.980  14.482   7.165
76515SOL    HW131319  13.951  14.524   7.084
76515SOL    HW231320  13.919  14.513   7.232
76516SOL     OW31321   3.539   7.999  11.790
76516SOL    HW131322   3.496   7.996  11.876
76516SOL    HW231323   3.627   7.967  11.807
76517SOL     OW31324   6.046   3.986   6.002
76517SOL    HW131325   6.111   3.979   5.932
76517SOL    HW231326   6.040   3.898   6.039
76518SOL     OW31327   8.831   3.237   6.159
76518SOL    HW131328   8.917   3.211   6.194
76518SOL    HW231329   8.848   3.318   6.111
76519SOL     OW31330   5.844   6.314   8.777
76519SOL    HW131331   5.900   6.368   8.722
76519SOL    HW231332   5.875   6.331   8.866
76520SOL     OW31333  10.364  13.587   5.588
76520SOL    HW131334  10.350  13.528   5.514
76520SOL    HW231335  10.419  13.657   5.553
76521SOL     OW31336   3.718   7.590   6.078
76521SOL    HW131337   3.755   7.510   6.042
76521SOL    HW231338   3.630   7.565   6.106
76522SOL     OW31339   9.458   2.181   2.457
76522SOL    HW131340   9.523   2.113   2.442
76522SOL    HW231341   9.481   2.217   2.542
76523SOL     OW31342   1.143  11.746   0.854
76523SOL    HW131343   1.159  11.763   0.947
76523SOL    HW231344   1.086  11.818   0.826
76524SOL     OW31345  13.068  14.426  12.928
76524SOL    HW131346  13.065  14.520  12.911
76524SOL    HW231347  13.160  14.407  12.944
76525SOL     OW31348  12.775   1.104  12.613
76525SOL    HW131349  12.857   1.061  12.588
76525SOL    HW231350  12.756   1.164  12.541
76526SOL     OW31351  10.751   9.242   7.406
76526SOL    HW131352  10.695   9.187   7.460
76526SOL    HW231353  10.785   9.309   7.466
76527SOL     OW31354   9.628   3.786  10.077
76527SOL    HW131355   9.680   3.859  10.111
76527SOL    HW231356   9.543   3.795  10.119
76528SOL     OW31357   2.575   8.237   7.540
76528SOL    HW131358   2.650   8.178   7.541
76528SOL    HW231359   2.587   8.291   7.462
76529SOL     OW31360  13.520  14.809   9.260
76529SOL    HW131361  13.587   0.001   9.262
76529SOL    HW231362  13.442  14.850   9.296
76530SOL     OW31363   9.189  12.897   5.976
76530SOL    HW131364   9.187  12.988   5.947
76530SOL    HW231365   9.274  12.864   5.948
76531SOL     OW31366   4.605   6.208  12.946
76531SOL    HW131367   4.619   6.280  13.008
76531SOL    HW231368   4.553   6.246  12.875
76532SOL     OW31369   1.433   0.687   7.748
76532SOL    HW131370   1.409   0.595   7.740
76532SOL    HW231371   1.366   0.733   7.697
76533SOL     OW31372   7.280   2.037   6.929
76533SOL    HW131373   7.328   2.113   6.961
76533SOL    HW231374   7.240   2.067   6.847
76534SOL     OW31375   5.625   8.364  10.603
76534SOL    HW131376   5.666   8.444  10.637
76534SOL    HW231377   5.661   8.294  10.658
76535SOL     OW31378   2.777   0.841  13.119
76535SOL    HW131379   2.738   0.921  13.084
76535SOL    HW231380   2.819   0.799  13.044
76536SOL     OW31381  14.047   3.540   9.084
76536SOL    HW131382  14.053   3.468   9.021
76536SOL    HW231383  14.104   3.608   9.047
76537SOL     OW31384  13.231  12.668   5.466
76537SOL    HW131385  13.217  12.588   5.517
76537SOL    HW231386  13.318  12.698   5.492
76538SOL     OW31387  14.389  14.079   3.067
76538SOL    HW131388  14.464  14.086   3.008
76538SOL    HW231389  14.313  14.079   3.009
76539SOL     OW31390  12.337   0.086  13.745
76539SOL    HW131391  12.284   0.157  13.709
76539SOL    HW231392  12.411   0.078  13.686
76540SOL     OW31393   2.471  11.170   8.180
76540SOL    HW131394   2.540  11.171   8.246
76540SOL    HW231395   2.392  11.144   8.229
76541SOL     OW31396  12.950   0.924   8.222
76541SOL    HW131397  13.019   0.858   8.232
76541SOL    HW231398  12.910   0.930   8.308
76542SOL     OW31399  14.368   4.812  10.498
76542SOL    HW131400  14.438   4.799  10.434
76542SOL    HW231401  14.403   4.775  10.579
76543SOL     OW31402   1.259   1.947   7.506
76543SOL    HW131403   1.267   1.972   7.414
76543SOL    HW231404   1.335   1.892   7.523
76544SOL     OW31405   0.269   3.846  14.810
76544SOL    HW131406   0.280   3.940  14.823
76544SOL    HW231407   0.197   3.822  14.868
76545SOL     OW31408  14.352   1.067   1.887
76545SOL    HW131409  14.374   1.008   1.815
76545SOL    HW231410  14.337   1.152   1.845
76546SOL     OW31411  12.878   8.704   8.540
76546SOL    HW131412  12.797   8.740   8.503
76546SOL    HW231413  12.875   8.611   8.516
76547SOL     OW31414  10.814  10.356   3.047
76547SOL    HW131415  10.719  10.346   3.037
76547SOL    HW231416  10.825  10.444   3.082
76548SOL     OW31417   9.833   7.710  11.744
76548SOL    HW131418   9.827   7.638  11.681
76548SOL    HW231419   9.904   7.765  11.710
76549SOL     OW31420   7.057   3.109  14.146
76549SOL    HW131421   6.995   3.162  14.095
76549SOL    HW231422   7.002   3.045  14.192
76550SOL     OW31423  12.785  13.251  14.465
76550SOL    HW131424  12.856  13.219  14.521
76550SOL    HW231425  12.715  13.274  14.526
76551SOL     OW31426   3.697  12.184  13.970
76551SOL    HW131427   3.706  12.278  13.986
76551SOL    HW231428   3.633  12.178  13.899
76552SOL     OW31429  10.371   7.859   3.787
76552SOL    HW131430  10.422   7.936   3.763
76552SOL    HW231431  10.282   7.893   3.800
76553SOL     OW31432   3.206   6.728   9.782
76553SOL    HW131433   3.156   6.709   9.861
76553SOL    HW231434   3.286   6.676   9.791
76554SOL     OW31435   8.981  13.244   4.536
76554SOL    HW131436   8.908  13.190   4.505
76554SOL    HW231437   9.052  13.182   4.553
76555SOL     OW31438   8.993   2.181  10.852
76555SOL    HW131439   8.972   2.265  10.891
76555SOL    HW231440   9.042   2.134  10.919
76556SOL     OW31441  14.843   4.561  12.683
76556SOL    HW131442  14.812   4.651  12.692
76556SOL    HW231443  14.875   4.555  12.594
76557SOL     OW31444  10.120   5.866   5.295
76557SOL    HW131445  10.116   5.774   5.318
76557SOL    HW231446  10.213   5.882   5.275
76558SOL     OW31447   5.175   9.395   4.757
76558SOL    HW131448   5.187   9.447   4.837
76558SOL    HW231449   5.154   9.307   4.789
76559SOL     OW31450   9.700   0.118   7.395
76559SOL    HW131451   9.693   0.138   7.301
76559SOL    HW231452   9.673   0.026   7.402
76560SOL     OW31453  12.754   2.612   9.958
76560SOL    HW131454  12.759   2.539  10.020
76560SOL    HW231455  12.736   2.688  10.014
76561SOL     OW31456  10.883   3.997  13.326
76561SOL    HW131457  10.833   4.020  13.247
76561SOL    HW231458  10.816   3.971  13.389
76562SOL     OW31459  11.919   6.512  11.940
76562SOL    HW131460  11.975   6.533  11.865
76562SOL    HW231461  11.979   6.477  12.005
76563SOL     OW31462   1.347  12.702   8.699
76563SOL    HW131463   1.318  12.654   8.621
76563SOL    HW231464   1.327  12.793   8.680
76564SOL     OW31465   7.952  14.359  10.102
76564SOL    HW131466   7.968  14.416  10.028
76564SOL    HW231467   7.956  14.416  10.178
76565SOL     OW31468   9.757  13.228  10.569
76565SOL    HW131469   9.731  13.265  10.653
76565SOL    HW231470   9.827  13.166  10.591
76566SOL     OW31471  11.137  11.695  10.196
76566SOL    HW131472  11.215  11.694  10.250
76566SOL    HW231473  11.087  11.771  10.227
76567SOL     OW31474  10.763   9.710  10.274
76567SOL    HW131475  10.789   9.799  10.250
76567SOL    HW231476  10.758   9.663  10.191
76568SOL     OW31477   8.033  12.790   4.281
76568SOL    HW131478   8.035  12.867   4.224
76568SOL    HW231479   7.953  12.744   4.256
76569SOL     OW31480  13.657   9.309  11.752
76569SOL    HW131481  13.643   9.247  11.824
76569SOL    HW231482  13.571   9.349  11.738
76570SOL     OW31483   8.763   3.302   0.515
76570SOL    HW131484   8.846   3.293   0.561
76570SOL    HW231485   8.783   3.359   0.441
76571SOL     OW31486   5.630   7.690   8.510
76571SOL    HW131487   5.687   7.754   8.553
76571SOL    HW231488   5.681   7.656   8.437
76572SOL     OW31489  11.253  12.168   0.878
76572SOL    HW131490  11.272  12.080   0.911
76572SOL    HW231491  11.329  12.190   0.823
76573SOL     OW31492   0.646   2.943   6.056
76573SOL    HW131493   0.591   2.889   6.112
76573SOL    HW231494   0.658   3.024   6.106
76574SOL     OW31495   2.836   9.851   9.105
76574SOL    HW131496   2.801   9.917   9.165
76574SOL    HW231497   2.809   9.881   9.018
76575SOL     OW31498   7.197   3.548  12.711
76575SOL    HW131499   7.128   3.521  12.651
76575SOL    HW231500   7.188   3.489  12.786
76576SOL     OW31501  10.926   9.771   1.389
76576SOL    HW131502  10.988   9.802   1.322
76576SOL    HW231503  10.901   9.684   1.360
76577SOL     OW31504   6.688  13.008   9.755
76577SOL    HW131505   6.774  13.029   9.718
76577SOL    HW231506   6.626  13.058   9.702
76578SOL     OW31507  12.916   7.524   6.444
76578SOL    HW131508  12.822   7.542   6.443
76578SOL    HW231509  12.952   7.581   6.377
76579SOL     OW31510   1.448   1.285  12.830
76579SOL    HW131511   1.540   1.262  12.843
76579SOL    HW231512   1.446   1.381  12.836
76580SOL     OW31513  13.107   4.163  12.703
76580SOL    HW131514  13.042   4.168  12.634
76580SOL    HW231515  13.168   4.235  12.685
76581SOL     OW31516   3.738  14.853   0.156
76581SOL    HW131517   3.823   0.013   0.130
76581SOL    HW231518   3.702  14.819   0.074
76582SOL     OW31519   9.738   7.655  14.847
76582SOL    HW131520   9.724   7.605  14.767
76582SOL    HW231521   9.667   7.626   0.028
76583SOL     OW31522   7.315  14.234   5.160
76583SOL    HW131523   7.230  14.195   5.178
76583SOL    HW231524   7.320  14.238   5.064
76584SOL     OW31525  10.349   7.659   2.914
76584SOL    HW131526  10.285   7.611   2.966
76584SOL    HW231527  10.347   7.748   2.951
76585SOL     OW31528  12.496   7.315   1.784
76585SOL    HW131529  12.575   7.265   1.763
76585SOL    HW231530  12.482   7.299   1.877
76586SOL     OW31531   3.527   2.543   0.301
76586SOL    HW131532   3.552   2.582   0.218
76586SOL    HW231533   3.574   2.595   0.367
76587SOL     OW31534  12.398   7.505   0.316
76587SOL    HW131535  12.379   7.488   0.408
76587SOL    HW231536  12.316   7.489   0.270
76588SOL     OW31537   9.594   5.799  12.618
76588SOL    HW131538   9.574   5.825  12.708
76588SOL    HW231539   9.574   5.877  12.566
76589SOL     OW31540  14.724   3.340   5.995
76589SOL    HW131541  14.722   3.422   6.044
76589SOL    HW231542  14.792   3.353   5.930
76590SOL     OW31543  12.407   8.107   4.453
76590SOL    HW131544  12.436   8.197   4.437
76590SOL    HW231545  12.395   8.071   4.365
76591SOL     OW31546   4.418   1.979   9.575
76591SOL    HW131547   4.323   1.976   9.565
76591SOL    HW231548   4.433   1.961   9.668
76592SOL     OW31549  14.665   8.295   8.504
76592SOL    HW131550  14.571   8.286   8.516
76592SOL    HW231551  14.697   8.206   8.489
76593SOL     OW31552   0.697   4.227   1.764
76593SOL    HW131553   0.675   4.316   1.736
76593SOL    HW231554   0.785   4.235   1.801
76594SOL     OW31555   0.336  13.725   9.828
76594SOL    HW131556   0.240  13.727   9.831
76594SOL    HW231557   0.357  13.770   9.746
76595SOL     OW31558   6.087   1.620   0.332
76595SOL    HW131559   6.045   1.660   0.408
76595SOL    HW231560   6.055   1.529   0.331
76596SOL     OW31561   3.331   1.100   8.185
76596SOL    HW131562   3.312   1.194   8.192
76596SOL    HW231563   3.356   1.087   8.094
76597SOL     OW31564   4.394  10.042   9.885
76597SOL    HW131565   4.323  10.105   9.876
76597SOL    HW231566   4.357   9.970   9.937
76598SOL     OW31567   4.450  14.520   9.302
76598SOL    HW131568   4.382  14.548   9.240
76598SOL    HW231569   4.525  14.498   9.246
76599SOL     OW31570   6.317   9.840   8.978
76599SOL    HW131571   6.362   9.762   8.947
76599SOL    HW231572   6.334   9.841   9.073
76600SOL     OW31573   3.136  11.538   0.260
76600SOL    HW131574   3.229  11.561   0.261
76600SOL    HW231575   3.136  11.442   0.260
76601SOL     OW31576   4.313   5.349   3.501
76601SOL    HW131577   4.378   5.280   3.489
76601SOL    HW231578   4.304   5.390   3.415
76602SOL     OW31579   2.467   8.770   2.849
76602SOL    HW131580   2.420   8.707   2.903
76602SOL    HW231581   2.459   8.853   2.896
76603SOL     OW31582  11.715   9.126  14.387
76603SOL    HW131583  11.783   9.092  14.445
76603SOL    HW231584  11.739   9.094  14.300
76604SOL     OW31585  11.661   1.070  11.019
76604SOL    HW131586  11.613   1.041  11.097
76604SOL    HW231587  11.596   1.116  10.966
76605SOL     OW31588  12.597  13.113  12.354
76605SOL    HW131589  12.540  13.059  12.407
76605SOL    HW231590  12.624  13.184  12.412
76606SOL     OW31591  12.852   6.152   3.984
76606SOL    HW131592  12.942   6.120   3.977
76606SOL    HW231593  12.851   6.234   3.936
76607SOL     OW31594  12.667   5.747  11.581
76607SOL    HW131595  12.608   5.677  11.609
76607SOL    HW231596  12.630   5.827  11.619
76608SOL     OW31597  10.442   8.797   0.244
76608SOL    HW131598  10.496   8.876   0.249
76608SOL    HW231599  10.443   8.762   0.333
76609SOL     OW31600   0.368   6.525   4.579
76609SOL    HW131601   0.299   6.481   4.627
76609SOL    HW231602   0.408   6.456   4.526
76610SOL     OW31603   8.406  14.420   0.296
76610SOL    HW131604   8.382  14.487   0.233
76610SOL    HW231605   8.501  14.428   0.305
76611SOL     OW31606   2.867   8.769   9.926
76611SOL    HW131607   2.826   8.853   9.909
76611SOL    HW231608   2.805   8.723   9.982
76612SOL     OW31609   4.765   8.781   6.116
76612SOL    HW131610   4.697   8.792   6.183
76612SOL    HW231611   4.722   8.733   6.046
76613SOL     OW31612  13.391   2.551   6.993
76613SOL    HW131613  13.364   2.632   6.950
76613SOL    HW231614  13.344   2.551   7.076
76614SOL     OW31615   0.342   1.825  12.665
76614SOL    HW131616   0.409   1.799  12.729
76614SOL    HW231617   0.261   1.788  12.698
76615SOL     OW31618   4.036  12.814   4.868
76615SOL    HW131619   4.121  12.773   4.853
76615SOL    HW231620   4.038  12.841   4.960
76616SOL     OW31621   9.534  13.416  11.083
76616SOL    HW131622   9.618  13.401  11.038
76616SOL    HW231623   9.542  13.368  11.165
76617SOL     OW31624  13.356  13.721  10.087
76617SOL    HW131625  13.345  13.811  10.115
76617SOL    HW231626  13.284  13.674  10.129
76618SOL     OW31627   1.812   3.865   5.550
76618SOL    HW131628   1.877   3.834   5.487
76618SOL    HW231629   1.803   3.958   5.531
76619SOL     OW31630   3.425  14.471   4.390
76619SOL    HW131631   3.499  14.445   4.334
76619SOL    HW231632   3.352  14.416   4.361
76620SOL     OW31633  12.417  11.070  11.419
76620SOL    HW131634  12.377  11.119  11.491
76620SOL    HW231635  12.350  11.069  11.351
76621SOL     OW31636   6.451   0.359   8.367
76621SOL    HW131637   6.511   0.317   8.307
76621SOL    HW231638   6.451   0.451   8.341
76622SOL     OW31639   2.223  14.634   8.992
76622SOL    HW131640   2.218  14.556   9.047
76622SOL    HW231641   2.141  14.632   8.941
76623SOL     OW31642   9.153   4.605  10.359
76623SOL    HW131643   9.096   4.545  10.407
76623SOL    HW231644   9.197   4.548  10.295
76624SOL     OW31645   9.882  14.084  11.456
76624SOL    HW131646   9.959  14.141  11.463
76624SOL    HW231647   9.821  14.119  11.521
76625SOL     OW31648  12.450   7.364   4.060
76625SOL    HW131649  12.379   7.427   4.074
76625SOL    HW231650  12.435   7.329   3.972
76626SOL     OW31651  14.075  14.494   6.767
76626SOL    HW131652  14.033  14.470   6.685
76626SOL    HW231653  14.003  14.509   6.828
76627SOL     OW31654   5.169   8.649   7.683
76627SOL    HW131655   5.074   8.659   7.675
76627SOL    HW231656   5.181   8.616   7.772
76628SOL     OW31657   0.781   1.905  13.730
76628SOL    HW131658   0.726   1.832  13.759
76628SOL    HW231659   0.722   1.980  13.729
76629SOL     OW31660   1.569   7.953   3.165
76629SOL    HW131661   1.623   8.019   3.122
76629SOL    HW231662   1.559   7.985   3.255
76630SOL     OW31663   8.645   8.724   3.403
76630SOL    HW131664   8.597   8.730   3.320
76630SOL    HW231665   8.714   8.789   3.395
76631SOL     OW31666   1.879   1.669   3.340
76631SOL    HW131667   1.865   1.741   3.401
76631SOL    HW231668   1.817   1.602   3.368
76632SOL     OW31669   1.929  14.309   6.590
76632SOL    HW131670   1.933  14.404   6.594
76632SOL    HW231671   1.920  14.281   6.681
76633SOL     OW31672   2.530  14.022  13.335
76633SOL    HW131673   2.469  14.093  13.352
76633SOL    HW231674   2.475  13.950  13.304
76634SOL     OW31675  11.567  11.114   6.594
76634SOL    HW131676  11.566  11.073   6.507
76634SOL    HW231677  11.597  11.044   6.652
76635SOL     OW31678   0.150  13.197   1.302
76635SOL    HW131679   0.173  13.127   1.364
76635SOL    HW231680   0.062  13.173   1.271
76636SOL     OW31681   4.884   4.876   9.987
76636SOL    HW131682   4.888   4.909   9.897
76636SOL    HW231683   4.952   4.924  10.034
76637SOL     OW31684   4.225   4.432  14.355
76637SOL    HW131685   4.301   4.383  14.388
76637SOL    HW231686   4.156   4.366  14.345
76638SOL     OW31687   4.314   9.800   1.068
76638SOL    HW131688   4.279   9.816   1.156
76638SOL    HW231689   4.376   9.871   1.054
76639SOL     OW31690  14.300   6.772   0.531
76639SOL    HW131691  14.218   6.807   0.495
76639SOL    HW231692  14.369   6.823   0.490
76640SOL     OW31693  14.295   0.122   4.801
76640SOL    HW131694  14.249   0.206   4.812
76640SOL    HW231695  14.247   0.062   4.859
76641SOL     OW31696   8.218   0.414  10.976
76641SOL    HW131697   8.190   0.431  10.886
76641SOL    HW231698   8.225   0.319  10.982
76642SOL     OW31699   4.336   2.453   8.360
76642SOL    HW131700   4.326   2.547   8.368
76642SOL    HW231701   4.275   2.416   8.424
76643SOL     OW31702   0.365  11.531   4.646
76643SOL    HW131703   0.370  11.602   4.710
76643SOL    HW231704   0.447  11.483   4.657
76644SOL     OW31705   6.288   5.119   3.182
76644SOL    HW131706   6.381   5.135   3.165
76644SOL    HW231707   6.244   5.138   3.099
76645SOL     OW31708   8.226  13.277  14.310
76645SOL    HW131709   8.235  13.277  14.405
76645SOL    HW231710   8.296  13.219  14.280
76646SOL     OW31711   1.378   8.250   6.951
76646SOL    HW131712   1.284   8.266   6.956
76646SOL    HW231713   1.413   8.286   7.032
76647SOL     OW31714   4.586  13.883  14.129
76647SOL    HW131715   4.573  13.830  14.050
76647SOL    HW231716   4.625  13.823  14.193
76648SOL     OW31717  12.287   5.955   3.744
76648SOL    HW131718  12.253   5.908   3.820
76648SOL    HW231719  12.223   6.024   3.728
76649SOL     OW31720   2.079   7.334   9.893
76649SOL    HW131721   2.012   7.369   9.834
76649SOL    HW231722   2.031   7.314   9.973
76650SOL     OW31723   1.087   9.320   9.475
76650SOL    HW131724   1.130   9.355   9.553
76650SOL    HW231725   1.125   9.232   9.464
76651SOL     OW31726   6.718   8.898   4.793
76651SOL    HW131727   6.714   8.833   4.864
76651SOL    HW231728   6.666   8.859   4.723
76652SOL     OW31729   2.754   2.160   1.650
76652SOL    HW131730   2.739   2.251   1.673
76652SOL    HW231731   2.706   2.109   1.715
76653SOL     OW31732   0.991  14.469  10.796
76653SOL    HW131733   1.024  14.385  10.766
76653SOL    HW231734   0.950  14.451  10.880
76654SOL     OW31735  12.703   1.826  10.909
76654SOL    HW131736  12.769   1.785  10.964
76654SOL    HW231737  12.621   1.783  10.934
76655SOL     OW31738   6.339  11.020   9.809
76655SOL    HW131739   6.269  11.010   9.874
76655SOL    HW231740   6.321  11.104   9.768
76656SOL     OW31741   8.957   9.555   2.396
76656SOL    HW131742   8.963   9.634   2.449
76656SOL    HW231743   9.016   9.571   2.323
76657SOL     OW31744   4.185   6.752   7.662
76657SOL    HW131745   4.135   6.782   7.587
76657SOL    HW231746   4.121   6.743   7.733
76658SOL     OW31747   4.673   6.113   7.658
76658SOL    HW131748   4.654   6.205   7.673
76658SOL    HW231749   4.701   6.079   7.743
76659SOL     OW31750   7.250   7.051  10.969
76659SOL    HW131751   7.176   7.073  10.912
76659SOL    HW231752   7.325   7.094  10.927
76660SOL     OW31753   0.803  11.737   8.858
76660SOL    HW131754   0.743  11.672   8.822
76660SOL    HW231755   0.795  11.813   8.801
76661SOL     OW31756  10.474   4.757   0.345
76661SOL    HW131757  10.405   4.697   0.316
76661SOL    HW231758  10.555   4.718   0.310
76662SOL     OW31759   1.932  12.459  11.111
76662SOL    HW131760   1.942  12.491  11.021
76662SOL    HW231761   1.842  12.427  11.116
76663SOL     OW31762   6.412   5.551   0.047
76663SOL    HW131763   6.418   5.539  14.830
76663SOL    HW231764   6.450   5.637   0.063
76664SOL     OW31765   5.633  12.757   5.264
76664SOL    HW131766   5.604  12.848   5.266
76664SOL    HW231767   5.645  12.734   5.356
76665SOL     OW31768   1.011   6.795  13.193
76665SOL    HW131769   0.925   6.753  13.196
76665SOL    HW231770   1.069   6.729  13.156
76666SOL     OW31771   8.854  12.864   6.752
76666SOL    HW131772   8.818  12.952   6.743
76666SOL    HW231773   8.925  12.861   6.688
76667SOL     OW31774   8.855   3.328   3.678
76667SOL    HW131775   8.806   3.402   3.644
76667SOL    HW231776   8.946   3.356   3.676
76668SOL     OW31777  14.083  11.145   3.994
76668SOL    HW131778  14.078  11.157   3.899
76668SOL    HW231779  14.120  11.058   4.005
76669SOL     OW31780  13.424   9.102   4.333
76669SOL    HW131781  13.441   9.029   4.393
76669SOL    HW231782  13.375   9.064   4.261
76670SOL     OW31783   2.284  14.314   2.891
76670SOL    HW131784   2.328  14.364   2.823
76670SOL    HW231785   2.207  14.366   2.914
76671SOL     OW31786   7.867   2.565   5.278
76671SOL    HW131787   7.943   2.597   5.328
76671SOL    HW231788   7.853   2.476   5.310
76672SOL     OW31789  10.819   0.671   8.056
76672SOL    HW131790  10.842   0.762   8.037
76672SOL    HW231791  10.874   0.620   7.997
76673SOL     OW31792   8.547  13.653   7.833
76673SOL    HW131793   8.466  13.692   7.865
76673SOL    HW231794   8.552  13.680   7.741
76674SOL     OW31795   5.000   0.181   2.276
76674SOL    HW131796   5.008   0.209   2.185
76674SOL    HW231797   4.911   0.204   2.301
76675SOL     OW31798   3.432  14.149  11.069
76675SOL    HW131799   3.490  14.074  11.083
76675SOL    HW231800   3.347  14.121  11.103
76676SOL     OW31801   5.972  14.380  13.855
76676SOL    HW131802   5.885  14.405  13.884
76676SOL    HW231803   5.963  14.364  13.761
76677SOL     OW31804   4.361  13.735  14.308
76677SOL    HW131805   4.376  13.755  14.216
76677SOL    HW231806   4.396  13.646  14.319
76678SOL     OW31807  11.895   5.427   9.699
76678SOL    HW131808  11.913   5.432   9.605
76678SOL    HW231809  11.974   5.462   9.740
76679SOL     OW31810   9.270   8.680   5.089
76679SOL    HW131811   9.193   8.631   5.119
76679SOL    HW231812   9.305   8.626   5.017
76680SOL     OW31813   6.103  14.199   7.504
76680SOL    HW131814   6.153  14.243   7.435
76680SOL    HW231815   6.023  14.251   7.513
76681SOL     OW31816   1.238   2.563  13.818
76681SOL    HW131817   1.214   2.475  13.790
76681SOL    HW231818   1.334   2.565  13.811
76682SOL     OW31819   1.010   0.362   3.300
76682SOL    HW131820   0.924   0.354   3.258
76682SOL    HW231821   1.045   0.445   3.267
76683SOL     OW31822   0.875  12.421  13.857
76683SOL    HW131823   0.858  12.449  13.947
76683SOL    HW231824   0.879  12.503  13.807
76684SOL     OW31825  12.363   5.412   8.338
76684SOL    HW131826  12.342   5.350   8.268
76684SOL    HW231827  12.454   5.437   8.321
76685SOL     OW31828   6.076   7.493   6.744
76685SOL    HW131829   6.074   7.570   6.687
76685SOL    HW231830   6.128   7.522   6.820
76686SOL     OW31831   6.028   9.292  12.129
76686SOL    HW131832   5.954   9.319  12.183
76686SOL    HW231833   6.100   9.348  12.156
76687SOL     OW31834   8.455  14.773   7.627
76687SOL    HW131835   8.508  14.800   7.552
76687SOL    HW231836   8.417  14.855   7.660
76688SOL     OW31837   5.882   4.131   9.757
76688SOL    HW131838   5.938   4.178   9.817
76688SOL    HW231839   5.900   4.038   9.774
76689SOL     OW31840   0.993  12.977   4.662
76689SOL    HW131841   1.074  12.931   4.638
76689SOL    HW231842   1.021  13.042   4.727
76690SOL     OW31843   1.090  11.874  13.811
76690SOL    HW131844   1.046  11.958  13.821
76690SOL    HW231845   1.157  11.873  13.880
76691SOL     OW31846  13.918  14.587   5.770
76691SOL    HW131847  13.981  14.638   5.820
76691SOL    HW231848  13.962  14.504   5.753
76692SOL     OW31849  12.035   0.014  13.594
76692SOL    HW131850  12.100  14.834  13.635
76692SOL    HW231851  12.028  14.858  13.504
76693SOL     OW31852   2.877   7.033   5.483
76693SOL    HW131853   2.878   7.058   5.576
76693SOL    HW231854   2.804   6.971   5.477
76694SOL     OW31855   3.564   3.006   6.404
76694SOL    HW131856   3.591   3.089   6.442
76694SOL    HW231857   3.605   2.939   6.458
76695SOL     OW31858   2.152  14.510   0.986
76695SOL    HW131859   2.226  14.513   1.045
76695SOL    HW231860   2.143  14.600   0.955
76696SOL     OW31861  14.154   0.772   8.620
76696SOL    HW131862  14.185   0.823   8.545
76696SOL    HW231863  14.090   0.829   8.662
76697SOL     OW31864   7.584   7.068   5.533
76697SOL    HW131865   7.654   7.038   5.591
76697SOL    HW231866   7.515   7.002   5.542
76698SOL     OW31867   6.490   7.117  13.557
76698SOL    HW131868   6.546   7.179  13.604
76698SOL    HW231869   6.538   7.034  13.561
76699SOL     OW31870   1.331   9.531  14.492
76699SOL    HW131871   1.328   9.626  14.504
76699SOL    HW231872   1.348   9.496  14.579
76700SOL     OW31873  10.416  12.271   2.982
76700SOL    HW131874  10.440  12.224   3.061
76700SOL    HW231875  10.491  12.260   2.923
76701SOL     OW31876   9.245   5.889   7.355
76701SOL    HW131877   9.279   5.890   7.266
76701SOL    HW231878   9.177   5.956   7.356
76702SOL     OW31879  13.358   2.977   7.746
76702SOL    HW131880  13.264   2.959   7.746
76702SOL    HW231881  13.367   3.054   7.689
76703SOL     OW31882   5.525   1.152   0.235
76703SOL    HW131883   5.505   1.245   0.242
76703SOL    HW231884   5.451   1.109   0.277
76704SOL     OW31885  12.559   0.080   9.397
76704SOL    HW131886  12.567   0.111   9.307
76704SOL    HW231887  12.488   0.016   9.394
76705SOL     OW31888  10.953   3.646   0.327
76705SOL    HW131889  10.881   3.693   0.286
76705SOL    HW231890  11.032   3.687   0.291
76706SOL     OW31891   8.383   5.211   6.160
76706SOL    HW131892   8.456   5.235   6.216
76706SOL    HW231893   8.351   5.294   6.125
76707SOL     OW31894  13.257  11.598   0.686
76707SOL    HW131895  13.192  11.535   0.719
76707SOL    HW231896  13.341  11.565   0.717
76708SOL     OW31897  13.320  12.264  13.031
76708SOL    HW131898  13.392  12.325  13.048
76708SOL    HW231899  13.259  12.279  13.103
76709SOL     OW31900   7.567   3.245   4.428
76709SOL    HW131901   7.617   3.324   4.407
76709SOL    HW231902   7.627   3.189   4.476
76710SOL     OW31903   9.783   2.396   6.096
76710SOL    HW131904   9.781   2.405   6.191
76710SOL    HW231905   9.699   2.357   6.073
76711SOL     OW31906   8.050   7.258   9.804
76711SOL    HW131907   8.131   7.284   9.849
76711SOL    HW231908   8.046   7.163   9.816
76712SOL     OW31909   7.962   7.092   0.051
76712SOL    HW131910   8.017   7.015   0.059
76712SOL    HW231911   7.902   7.072  14.856
76713SOL     OW31912   6.781   0.761  13.974
76713SOL    HW131913   6.746   0.723  14.054
76713SOL    HW231914   6.874   0.774  13.992
76714SOL     OW31915   5.991   6.248   4.627
76714SOL    HW131916   5.950   6.241   4.541
76714SOL    HW231917   5.949   6.324   4.668
76715SOL     OW31918   1.708   3.038   9.979
76715SOL    HW131919   1.800   3.016   9.964
76715SOL    HW231920   1.698   3.036  10.074
76716SOL     OW31921   2.036   4.533  14.417
76716SOL    HW131922   2.103   4.473  14.450
76716SOL    HW231923   1.970   4.536  14.486
76717SOL     OW31924   2.542  10.437   1.588
76717SOL    HW131925   2.603  10.504   1.558
76717SOL    HW231926   2.484  10.421   1.513
76718SOL     OW31927   9.925   6.735   9.410
76718SOL    HW131928   9.961   6.679   9.341
76718SOL    HW231929   9.933   6.824   9.376
76719SOL     OW31930  12.290  10.796   1.254
76719SOL    HW131931  12.318  10.882   1.224
76719SOL    HW231932  12.354  10.736   1.216
76720SOL     OW31933   8.479   1.367   0.149
76720SOL    HW131934   8.508   1.443   0.201
76720SOL    HW231935   8.465   1.402   0.061
76721SOL     OW31936   3.706   9.371   1.564
76721SOL    HW131937   3.694   9.413   1.479
76721SOL    HW231938   3.736   9.283   1.544
76722SOL     OW31939   7.360  12.270   6.543
76722SOL    HW131940   7.302  12.338   6.509
76722SOL    HW231941   7.440  12.278   6.491
76723SOL     OW31942  10.915   7.661   7.709
76723SOL    HW131943  10.844   7.600   7.687
76723SOL    HW231944  10.994   7.618   7.678
76724SOL     OW31945   5.459  11.520   7.225
76724SOL    HW131946   5.469  11.570   7.307
76724SOL    HW231947   5.469  11.429   7.251
76725SOL     OW31948   2.334  12.878  12.883
76725SOL    HW131949   2.274  12.934  12.835
76725SOL    HW231950   2.412  12.931  12.897
76726SOL     OW31951  14.267   1.874   6.948
76726SOL    HW131952  14.195   1.923   6.909
76726SOL    HW231953  14.341   1.934   6.946
76727SOL     OW31954  11.981   0.174  10.773
76727SOL    HW131955  11.917   0.215  10.715
76727SOL    HW231956  12.062   0.171  10.722
76728SOL     OW31957  13.800   1.790   9.415
76728SOL    HW131958  13.780   1.725   9.348
76728SOL    HW231959  13.895   1.801   9.411
76729SOL     OW31960   3.100  14.820   9.571
76729SOL    HW131961   3.129  14.732   9.596
76729SOL    HW231962   3.177  14.858   9.529
76730SOL     OW31963   8.230  12.518  12.221
76730SOL    HW131964   8.260  12.589  12.165
76730SOL    HW231965   8.220  12.559  12.308
76731SOL     OW31966   1.575   6.568  12.558
76731SOL    HW131967   1.545   6.578  12.649
76731SOL    HW231968   1.520   6.499  12.522
76732SOL     OW31969   0.114  13.640  11.691
76732SOL    HW131970   0.170  13.576  11.648
76732SOL    HW231971   0.037  13.590  11.718
76733SOL     OW31972   4.819  11.540   1.522
76733SOL    HW131973   4.797  11.521   1.431
76733SOL    HW231974   4.846  11.631   1.522
76734SOL     OW31975  14.390  12.573  12.895
76734SOL    HW131976  14.469  12.545  12.849
76734SOL    HW231977  14.390  12.668  12.887
76735SOL     OW31978   5.347  10.912   1.196
76735SOL    HW131979   5.307  10.922   1.110
76735SOL    HW231980   5.335  10.997   1.239
76736SOL     OW31981  14.316   0.228   3.196
76736SOL    HW131982  14.300   0.146   3.241
76736SOL    HW231983  14.365   0.281   3.259
76737SOL     OW31984   4.806   0.245  14.268
76737SOL    HW131985   4.890   0.205  14.247
76737SOL    HW231986   4.756   0.238  14.187
76738SOL     OW31987  10.560   5.309  11.335
76738SOL    HW131988  10.472   5.278  11.355
76738SOL    HW231989  10.582   5.267  11.251
76739SOL     OW31990   8.621   9.370  14.281
76739SOL    HW131991   8.572   9.308  14.335
76739SOL    HW231992   8.568   9.449  14.280
76740SOL     OW31993  11.641   5.252   1.947
76740SOL    HW131994  11.567   5.217   1.898
76740SOL    HW231995  11.658   5.188   2.016
76741SOL     OW31996   5.400  11.476   0.671
76741SOL    HW131997   5.346  11.548   0.638
76741SOL    HW231998   5.486  11.491   0.631
76742SOL     OW31999   7.690   8.098  12.375
76742SOL    HW132000   7.740   8.139  12.446
76742SOL    HW232001   7.728   8.010  12.368
76743SOL     OW32002  11.638   2.051   4.539
76743SOL    HW132003  11.545   2.030   4.529
76743SOL    HW232004  11.683   1.994   4.476
76744SOL     OW32005   7.425   1.553   3.927
76744SOL    HW132006   7.454   1.641   3.954
76744SOL    HW232007   7.418   1.559   3.832
76745SOL     OW32008   9.277  12.382  12.283
76745SOL    HW132009   9.330  12.305  12.265
76745SOL    HW232010   9.195  12.367  12.236
76746SOL     OW32011   9.166   4.703  12.159
76746SOL    HW132012   9.155   4.612  12.133
76746SOL    HW232013   9.096   4.750  12.114
76747SOL     OW32014   4.196  13.876   3.665
76747SOL    HW132015   4.126  13.810   3.669
76747SOL    HW232016   4.161  13.951   3.714
76748SOL     OW32017   9.001  10.623  11.427
76748SOL    HW132018   9.080  10.602  11.378
76748SOL    HW232019   8.952  10.541  11.430
76749SOL     OW32020  11.079   5.497   6.092
76749SOL    HW132021  11.070   5.406   6.065
76749SOL    HW232022  10.989   5.531   6.091
76750SOL     OW32023   3.982  10.664   1.786
76750SOL    HW132024   3.912  10.623   1.736
76750SOL    HW232025   3.967  10.758   1.777
76751SOL     OW32026   2.590  12.947  10.648
76751SOL    HW132027   2.618  12.857  10.629
76751SOL    HW232028   2.619  12.962  10.738
76752SOL     OW32029   0.717   6.711   2.855
76752SOL    HW132030   0.734   6.648   2.925
76752SOL    HW232031   0.738   6.663   2.775
76753SOL     OW32032   9.467   5.436   1.174
76753SOL    HW132033   9.428   5.352   1.147
76753SOL    HW232034   9.445   5.444   1.266
76754SOL     OW32035  10.653   9.129   2.539
76754SOL    HW132036  10.718   9.171   2.596
76754SOL    HW232037  10.622   9.200   2.482
76755SOL     OW32038   0.640   3.803   5.830
76755SOL    HW132039   0.658   3.866   5.761
76755SOL    HW232040   0.562   3.757   5.801
76756SOL     OW32041   1.289   1.269   1.676
76756SOL    HW132042   1.198   1.298   1.680
76756SOL    HW232043   1.338   1.335   1.724
76757SOL     OW32044   2.269  10.346   0.527
76757SOL    HW132045   2.321  10.399   0.467
76757SOL    HW232046   2.179  10.373   0.511
76758SOL     OW32047   6.938   8.546   9.843
76758SOL    HW132048   7.012   8.508   9.890
76758SOL    HW232049   6.861   8.509   9.886
76759SOL     OW32050   4.805   9.305  10.138
76759SOL    HW132051   4.797   9.397  10.167
76759SOL    HW232052   4.849   9.261  10.211
76760SOL     OW32053   0.309   7.756  14.084
76760SOL    HW132054   0.381   7.813  14.059
76760SOL    HW232055   0.342   7.707  14.159
76761SOL     OW32056   3.193   2.998   7.064
76761SOL    HW132057   3.211   3.087   7.033
76761SOL    HW232058   3.098   2.989   7.061
76762SOL     OW32059   3.845   8.100   6.660
76762SOL    HW132060   3.790   8.176   6.682
76762SOL    HW232061   3.824   8.035   6.727
76763SOL     OW32062  11.005   2.982   1.437
76763SOL    HW132063  10.942   3.049   1.462
76763SOL    HW232064  11.000   2.977   1.342
76764SOL     OW32065   5.255   5.006  13.727
76764SOL    HW132066   5.262   5.088  13.679
76764SOL    HW232067   5.190   4.955  13.679
76765SOL     OW32068   5.892   7.707   6.589
76765SOL    HW132069   5.895   7.681   6.681
76765SOL    HW232070   5.966   7.767   6.580
76766SOL     OW32071   1.015   8.604   3.583
76766SOL    HW132072   1.059   8.683   3.554
76766SOL    HW232073   1.013   8.547   3.506
76767SOL     OW32074   1.334  10.913   7.987
76767SOL    HW132075   1.240  10.913   7.972
76767SOL    HW232076   1.351  10.834   8.037
76768SOL     OW32077   5.319  10.989   4.851
76768SOL    HW132078   5.394  11.039   4.818
76768SOL    HW232079   5.333  10.985   4.946
76769SOL     OW32080   9.533  10.920   1.746
76769SOL    HW132081   9.547  11.002   1.794
76769SOL    HW232082   9.578  10.933   1.663
76770SOL     OW32083   8.281  13.355  10.485
76770SOL    HW132084   8.358  13.355  10.429
76770SOL    HW232085   8.216  13.304  10.436
76771SOL     OW32086   1.363   3.065   9.132
76771SOL    HW132087   1.300   2.998   9.106
76771SOL    HW232088   1.329   3.146   9.095
76772SOL     OW32089  11.794   6.993  12.914
76772SOL    HW132090  11.874   6.964  12.960
76772SOL    HW232091  11.723   6.948  12.960
76773SOL     OW32092   6.892   4.038   5.714
76773SOL    HW132093   6.871   4.130   5.731
76773SOL    HW232094   6.928   4.038   5.625
76774SOL     OW32095  12.986   9.028   6.204
76774SOL    HW132096  13.078   9.003   6.199
76774SOL    HW232097  12.938   8.946   6.195
76775SOL     OW32098  13.827   3.402   1.460
76775SOL    HW132099  13.910   3.387   1.416
76775SOL    HW232100  13.807   3.318   1.502
76776SOL     OW32101   2.158   5.714   9.102
76776SOL    HW132102   2.071   5.754   9.099
76776SOL    HW232103   2.206   5.764   9.168
76777SOL     OW32104   3.166  10.452  11.908
76777SOL    HW132105   3.251  10.488  11.936
76777SOL    HW232106   3.125  10.524  11.860
76778SOL     OW32107  12.808  12.723   2.549
76778SOL    HW132108  12.766  12.657   2.494
76778SOL    HW232109  12.889  12.681   2.579
76779SOL     OW32110   2.044  10.269   5.403
76779SOL    HW132111   2.092  10.194   5.438
76779SOL    HW232112   2.109  10.318   5.353
76780SOL     OW32113   6.754   7.077   8.844
76780SOL    HW132114   6.721   7.080   8.934
76780SOL    HW232115   6.837   7.031   8.850
76781SOL     OW32116   2.349   5.855   8.262
76781SOL    HW132117   2.331   5.767   8.293
76781SOL    HW232118   2.263   5.896   8.253
76782SOL     OW32119   4.016   3.444   2.470
76782SOL    HW132120   3.988   3.356   2.446
76782SOL    HW232121   3.964   3.466   2.547
76783SOL     OW32122   0.619   1.762   7.410
76783SOL    HW132123   0.693   1.816   7.384
76783SOL    HW232124   0.650   1.714   7.488
76784SOL     OW32125  13.879   4.020   8.174
76784SOL    HW132126  13.820   4.032   8.099
76784SOL    HW232127  13.867   3.929   8.199
76785SOL     OW32128   7.837  14.620  14.537
76785SOL    HW132129   7.899  14.656  14.600
76785SOL    HW232130   7.817  14.532  14.570
76786SOL     OW32131   0.750   5.581   6.157
76786SOL    HW132132   0.844   5.591   6.149
76786SOL    HW232133   0.733   5.490   6.134
76787SOL     OW32134   5.349   0.251   4.171
76787SOL    HW132135   5.298   0.311   4.225
76787SOL    HW232136   5.334   0.165   4.211
76788SOL     OW32137  14.820   6.059   4.732
76788SOL    HW132138  14.811   5.987   4.794
76788SOL    HW232139  14.808   6.138   4.785
76789SOL     OW32140   1.987   0.287   0.622
76789SOL    HW132141   2.023   0.214   0.672
76789SOL    HW232142   1.910   0.314   0.671
76790SOL     OW32143   8.076  11.384   2.475
76790SOL    HW132144   8.130  11.463   2.472
76790SOL    HW232145   8.111  11.335   2.550
76791SOL     OW32146   7.831   6.862  11.796
76791SOL    HW132147   7.842   6.957  11.804
76791SOL    HW232148   7.916   6.825  11.819
76792SOL     OW32149   5.606   0.839   3.356
76792SOL    HW132150   5.679   0.804   3.305
76792SOL    HW232151   5.633   0.927   3.381
76793SOL     OW32152  14.102   3.692   5.461
76793SOL    HW132153  14.014   3.726   5.447
76793SOL    HW232154  14.134   3.671   5.373
76794SOL     OW32155   5.572   8.821   3.361
76794SOL    HW132156   5.632   8.858   3.427
76794SOL    HW232157   5.609   8.736   3.341
76795SOL     OW32158   1.118   7.038  14.205
76795SOL    HW132159   1.135   6.952  14.167
76795SOL    HW232160   1.056   7.021  14.276
76796SOL     OW32161   2.521  14.286  11.710
76796SOL    HW132162   2.546  14.203  11.670
76796SOL    HW232163   2.478  14.262  11.792
76797SOL     OW32164   7.536   7.477   1.084
76797SOL    HW132165   7.465   7.423   1.050
76797SOL    HW232166   7.615   7.443   1.041
76798SOL     OW32167   9.231   8.619  10.419
76798SOL    HW132168   9.150   8.615  10.469
76798SOL    HW232169   9.205   8.600  10.329
76799SOL     OW32170   6.987  10.087   7.815
76799SOL    HW132171   6.925  10.122   7.751
76799SOL    HW232172   7.052  10.157   7.825
76800SOL     OW32173   1.924   8.131   9.911
76800SOL    HW132174   1.910   8.193   9.982
76800SOL    HW232175   1.837   8.095   9.893
76801SOL     OW32176  11.569   2.966   0.131
76801SOL    HW132177  11.587   2.878   0.097
76801SOL    HW232178  11.494   2.955   0.189
76802SOL     OW32179  13.458  14.102  11.310
76802SOL    HW132180  13.476  14.013  11.338
76802SOL    HW232181  13.513  14.115  11.233
76803SOL     OW32182   0.789   7.643   0.933
76803SOL    HW132183   0.867   7.652   0.878
76803SOL    HW232184   0.805   7.564   0.985
76804SOL     OW32185   8.580  13.242   4.459
76804SOL    HW132186   8.643  13.286   4.517
76804SOL    HW232187   8.628  13.169   4.422
76805SOL     OW32188   0.486   0.081  11.367
76805SOL    HW132189   0.522  14.873  11.344
76805SOL    HW232190   0.541   0.144  11.321
76806SOL     OW32191  14.110   6.370  12.950
76806SOL    HW132192  14.177   6.428  12.914
76806SOL    HW232193  14.060   6.339  12.874
76807SOL     OW32194  10.083   6.455  10.056
76807SOL    HW132195  10.072   6.461   9.961
76807SOL    HW232196  10.177   6.459  10.070
76808SOL     OW32197   9.267  13.962  10.789
76808SOL    HW132198   9.178  13.958  10.824
76808SOL    HW232199   9.322  13.975  10.866
76809SOL     OW32200   3.758   0.097   3.670
76809SOL    HW132201   3.722   0.066   3.587
76809SOL    HW232202   3.823   0.031   3.694
76810SOL     OW32203   0.097   6.841  11.918
76810SOL    HW132204   0.152   6.917  11.897
76810SOL    HW232205   0.107   6.784  11.841
76811SOL     OW32206  14.035   9.892   8.032
76811SOL    HW132207  14.081   9.915   8.113
76811SOL    HW232208  13.989   9.810   8.053
76812SOL     OW32209   5.669   6.710   5.501
76812SOL    HW132210   5.640   6.740   5.414
76812SOL    HW232211   5.755   6.750   5.513
76813SOL     OW32212   7.877  14.282  13.527
76813SOL    HW132213   7.971  14.290  13.514
76813SOL    HW232214   7.866  14.282  13.622
76814SOL     OW32215   1.904   9.366   1.660
76814SOL    HW132216   1.876   9.308   1.589
76814SOL    HW232217   1.849   9.444   1.651
76815SOL     OW32218   6.238   9.838   8.524
76815SOL    HW132219   6.210   9.759   8.570
76815SOL    HW232220   6.159   9.891   8.518
76816SOL     OW32221   2.394   5.287   2.686
76816SOL    HW132222   2.440   5.295   2.603
76816SOL    HW232223   2.463   5.272   2.751
76817SOL     OW32224   9.360   7.199  10.525
76817SOL    HW132225   9.331   7.167  10.611
76817SOL    HW232226   9.290   7.257  10.497
76818SOL     OW32227  11.955   3.800   4.619
76818SOL    HW132228  11.880   3.773   4.673
76818SOL    HW232229  11.924   3.878   4.573
76819SOL     OW32230  12.375   0.570  12.984
76819SOL    HW132231  12.407   0.480  12.995
76819SOL    HW232232  12.449   0.616  12.944
76820SOL     OW32233   8.127   5.736  10.446
76820SOL    HW132234   8.168   5.742  10.360
76820SOL    HW232235   8.200   5.741  10.508
76821SOL     OW32236   7.446   2.441   5.744
76821SOL    HW132237   7.464   2.347   5.752
76821SOL    HW232238   7.472   2.462   5.654
76822SOL     OW32239   3.955   2.331  13.956
76822SOL    HW132240   4.012   2.255  13.969
76822SOL    HW232241   3.986   2.395  14.020
76823SOL     OW32242   5.480  13.529   0.790
76823SOL    HW132243   5.541  13.457   0.807
76823SOL    HW232244   5.441  13.548   0.875
76824SOL     OW32245  10.143  14.365   9.757
76824SOL    HW132246  10.184  14.440   9.712
76824SOL    HW232247  10.104  14.403   9.835
76825SOL     OW32248   6.762   5.878  12.282
76825SOL    HW132249   6.822   5.952  12.289
76825SOL    HW232250   6.716   5.876  12.366
76826SOL     OW32251   4.771   5.017   0.842
76826SOL    HW132252   4.814   5.073   0.906
76826SOL    HW232253   4.823   5.028   0.762
76827SOL     OW32254   4.961  11.498   6.251
76827SOL    HW132255   5.037  11.442   6.236
76827SOL    HW232256   4.911  11.491   6.170
76828SOL     OW32257   7.309  11.650   0.543
76828SOL    HW132258   7.301  11.600   0.624
76828SOL    HW232259   7.221  11.649   0.506
76829SOL     OW32260   9.745   3.022   6.071
76829SOL    HW132261   9.704   3.109   6.079
76829SOL    HW232262   9.700   2.968   6.135
76830SOL     OW32263   1.417   6.820   1.096
76830SOL    HW132264   1.425   6.747   1.034
76830SOL    HW232265   1.504   6.826   1.136
76831SOL     OW32266   6.842  13.938  14.295
76831SOL    HW132267   6.767  13.917  14.240
76831SOL    HW232268   6.916  13.947  14.234
76832SOL     OW32269  14.273   0.719   5.142
76832SOL    HW132270  14.213   0.650   5.113
76832SOL    HW232271  14.360   0.681   5.136
76833SOL     OW32272   2.496   5.201   8.394
76833SOL    HW132273   2.472   5.230   8.306
76833SOL    HW232274   2.557   5.129   8.380
76834SOL     OW32275   3.200   4.551   4.348
76834SOL    HW132276   3.185   4.613   4.278
76834SOL    HW232277   3.112   4.530   4.381
76835SOL     OW32278  14.776   0.302   2.677
76835SOL    HW132279  14.800   0.310   2.770
76835SOL    HW232280  14.857   0.274   2.634
76836SOL     OW32281   6.519   4.388   2.690
76836SOL    HW132282   6.459   4.376   2.763
76836SOL    HW232283   6.490   4.468   2.646
76837SOL     OW32284  14.638   4.419   2.502
76837SOL    HW132285  14.636   4.487   2.434
76837SOL    HW232286  14.552   4.426   2.545
76838SOL     OW32287  13.007   2.027   2.421
76838SOL    HW132288  13.050   2.106   2.387
76838SOL    HW232289  12.920   2.027   2.380
76839SOL     OW32290  10.178  12.271  14.464
76839SOL    HW132291  10.203  12.276  14.556
76839SOL    HW232292  10.086  12.245  14.465
76840SOL     OW32293   1.637   0.107   3.423
76840SOL    HW132294   1.619   0.155   3.504
76840SOL    HW232295   1.718   0.147   3.389
76841SOL     OW32296   6.139   2.095   1.582
76841SOL    HW132297   6.182   2.177   1.557
76841SOL    HW232298   6.053   2.100   1.539
76842SOL     OW32299   6.317   7.287   6.941
76842SOL    HW132300   6.400   7.244   6.923
76842SOL    HW232301   6.271   7.286   6.857
76843SOL     OW32302   8.289   1.150   2.654
76843SOL    HW132303   8.324   1.069   2.691
76843SOL    HW232304   8.304   1.141   2.560
76844SOL     OW32305   3.710   7.169   6.138
76844SOL    HW132306   3.755   7.088   6.116
76844SOL    HW232307   3.636   7.173   6.078
76845SOL     OW32308   4.176  11.987   7.588
76845SOL    HW132309   4.173  11.999   7.493
76845SOL    HW232310   4.216  12.067   7.621
76846SOL     OW32311  12.823  14.687  11.599
76846SOL    HW132312  12.870  14.641  11.668
76846SOL    HW232313  12.868  14.771  11.591
76847SOL     OW32314   3.925   3.521   5.201
76847SOL    HW132315   4.019   3.521   5.217
76847SOL    HW232316   3.917   3.487   5.112
76848SOL     OW32317   0.174  11.584   4.193
76848SOL    HW132318   0.179  11.497   4.233
76848SOL    HW232319   0.083  11.592   4.165
76849SOL     OW32320  13.482   6.531  14.793
76849SOL    HW132321  13.461   6.470  14.722
76849SOL    HW232322  13.451   6.616  14.761
76850SOL     OW32323   0.690   8.712   4.373
76850SOL    HW132324   0.680   8.805   4.351
76850SOL    HW232325   0.759   8.711   4.439
76851SOL     OW32326   3.059  10.971   1.177
76851SOL    HW132327   3.144  10.932   1.156
76851SOL    HW232328   3.081  11.059   1.209
76852SOL     OW32329   7.966   5.756   6.143
76852SOL    HW132330   8.046   5.733   6.094
76852SOL    HW232331   7.974   5.710   6.226
76853SOL     OW32332  10.896   3.058  10.240
76853SOL    HW132333  10.985   3.071  10.271
76853SOL    HW232334  10.895   3.094  10.152
76854SOL     OW32335  12.426   3.795   7.486
76854SOL    HW132336  12.472   3.831   7.562
76854SOL    HW232337  12.385   3.715   7.518
76855SOL     OW32338   1.985   2.882   0.590
76855SOL    HW132339   2.010   2.827   0.664
76855SOL    HW232340   1.980   2.821   0.516
76856SOL     OW32341  13.538   9.119   9.883
76856SOL    HW132342  13.443   9.131   9.874
76856SOL    HW232343  13.573   9.141   9.797
76857SOL     OW32344   6.109  10.281   8.884
76857SOL    HW132345   6.090  10.373   8.903
76857SOL    HW232346   6.024  10.238   8.884
76858SOL     OW32347  12.361   4.486  12.021
76858SOL    HW132348  12.404   4.409  12.060
76858SOL    HW232349  12.433   4.546  12.000
76859SOL     OW32350   1.697   3.012   1.498
76859SOL    HW132351   1.607   3.040   1.480
76859SOL    HW232352   1.748   3.093   1.495
76860SOL     OW32353   6.465  12.723   1.093
76860SOL    HW132354   6.425  12.702   1.009
76860SOL    HW232355   6.506  12.641   1.122
76861SOL     OW32356   0.565  11.638   6.547
76861SOL    HW132357   0.509  11.635   6.469
76861SOL    HW232358   0.638  11.581   6.527
76862SOL     OW32359  12.976   5.959   2.623
76862SOL    HW132360  13.062   5.945   2.663
76862SOL    HW232361  12.946   6.043   2.657
76863SOL     OW32362   8.542   8.749  12.560
76863SOL    HW132363   8.498   8.820  12.607
76863SOL    HW232364   8.473   8.711  12.504
76864SOL     OW32365   3.230   7.007   8.142
76864SOL    HW132366   3.204   7.039   8.229
76864SOL    HW232367   3.154   6.959   8.111
76865SOL     OW32368  14.387   3.707   0.033
76865SOL    HW132369  14.333   3.664  14.844
76865SOL    HW232370  14.373   3.656   0.113
76866SOL     OW32371   6.165   0.348  13.709
76866SOL    HW132372   6.238   0.310  13.758
76866SOL    HW232373   6.163   0.298  13.627
76867SOL     OW32374   6.777  12.777   5.356
76867SOL    HW132375   6.744  12.693   5.323
76867SOL    HW232376   6.699  12.832   5.362
76868SOL     OW32377   5.739   1.409  12.967
76868SOL    HW132378   5.781   1.493  12.947
76868SOL    HW232379   5.798   1.366  13.028
76869SOL     OW32380   5.943  10.583   1.511
76869SOL    HW132381   5.879  10.650   1.537
76869SOL    HW232382   6.008  10.631   1.460
76870SOL     OW32383   5.552  13.785   8.456
76870SOL    HW132384   5.512  13.761   8.373
76870SOL    HW232385   5.479  13.798   8.516
76871SOL     OW32386   2.198   4.329   8.157
76871SOL    HW132387   2.198   4.293   8.068
76871SOL    HW232388   2.173   4.420   8.145
76872SOL     OW32389   3.810  10.599  14.315
76872SOL    HW132390   3.823  10.694  14.315
76872SOL    HW232391   3.890  10.564  14.356
76873SOL     OW32392  11.435   7.661   3.484
76873SOL    HW132393  11.418   7.750   3.454
76873SOL    HW232394  11.516   7.635   3.441
76874SOL     OW32395   0.118   9.914  13.137
76874SOL    HW132396   0.141   9.881  13.050
76874SOL    HW232397   0.150   9.847  13.197
76875SOL     OW32398   0.989   3.067   9.178
76875SOL    HW132399   1.050   3.060   9.252
76875SOL    HW232400   1.009   2.992   9.123
76876SOL     OW32401   8.674   8.596  14.419
76876SOL    HW132402   8.769   8.589  14.425
76876SOL    HW232403   8.650   8.658  14.488
76877SOL     OW32404   2.722   2.660   0.120
76877SOL    HW132405   2.796   2.599   0.128
76877SOL    HW232406   2.647   2.604   0.104
76878SOL     OW32407   2.954   9.287   4.051
76878SOL    HW132408   2.866   9.267   4.085
76878SOL    HW232409   2.998   9.203   4.049
76879SOL     OW32410  14.604   3.856  11.668
76879SOL    HW132411  14.620   3.919  11.597
76879SOL    HW232412  14.672   3.877  11.733
76880SOL     OW32413   3.577  13.497  12.778
76880SOL    HW132414   3.624  13.580  12.784
76880SOL    HW232415   3.607  13.446  12.853
76881SOL     OW32416  11.906   5.193   0.259
76881SOL    HW132417  11.891   5.233   0.173
76881SOL    HW232418  11.941   5.264   0.313
76882SOL     OW32419  10.552   6.695   4.141
76882SOL    HW132420  10.549   6.652   4.056
76882SOL    HW232421  10.646   6.705   4.160
76883SOL     OW32422   5.405  14.698  13.860
76883SOL    HW132423   5.362  14.630  13.808
76883SOL    HW232424   5.420  14.657  13.945
76884SOL     OW32425   2.429   2.040  11.427
76884SOL    HW132426   2.519   2.071  11.435
76884SOL    HW232427   2.377   2.108  11.469
76885SOL     OW32428   5.932   7.100   4.942
76885SOL    HW132429   5.839   7.084   4.925
76885SOL    HW232430   5.940   7.196   4.940
76886SOL     OW32431  13.899  14.312  11.633
76886SOL    HW132432  13.808  14.294  11.608
76886SOL    HW232433  13.908  14.272  11.720
76887SOL     OW32434   8.698   9.483   4.835
76887SOL    HW132435   8.758   9.473   4.910
76887SOL    HW232436   8.611   9.487   4.874
76888SOL     OW32437   9.433   1.186  13.360
76888SOL    HW132438   9.449   1.281  13.364
76888SOL    HW232439   9.408   1.170  13.270
76889SOL     OW32440   2.004   0.329   9.560
76889SOL    HW132441   2.006   0.286   9.475
76889SOL    HW232442   1.913   0.320   9.589
76890SOL     OW32443   7.800   5.944   6.046
76890SOL    HW132444   7.865   5.882   6.079
76890SOL    HW232445   7.815   5.946   5.951
76891SOL     OW32446  11.778   9.533  13.599
76891SOL    HW132447  11.699   9.582  13.619
76891SOL    HW232448  11.763   9.497  13.512
76892SOL     OW32449  13.196   4.711  13.390
76892SOL    HW132450  13.145   4.778  13.435
76892SOL    HW232451  13.275   4.701  13.443
76893SOL     OW32452   6.835  12.675   7.599
76893SOL    HW132453   6.832  12.607   7.665
76893SOL    HW232454   6.888  12.638   7.528
76894SOL     OW32455   5.997   3.558   9.071
76894SOL    HW132456   5.914   3.536   9.113
76894SOL    HW232457   5.978   3.560   8.978
76895SOL     OW32458   6.498  13.090  13.520
76895SOL    HW132459   6.461  13.137  13.595
76895SOL    HW232460   6.571  13.040  13.557
76896SOL     OW32461   5.187   8.218  12.653
76896SOL    HW132462   5.159   8.265  12.575
76896SOL    HW232463   5.111   8.217  12.711
76897SOL     OW32464   2.980   4.742   4.941
76897SOL    HW132465   2.892   4.720   4.910
76897SOL    HW232466   3.007   4.816   4.886
76898SOL     OW32467  12.273  13.313  11.279
76898SOL    HW132468  12.298  13.403  11.257
76898SOL    HW232469  12.297  13.304  11.371
76899SOL     OW32470   4.675   7.511  13.600
76899SOL    HW132471   4.702   7.451  13.668
76899SOL    HW232472   4.682   7.460  13.519
76900SOL     OW32473   6.237  13.940   3.288
76900SOL    HW132474   6.326  13.970   3.309
76900SOL    HW232475   6.249  13.879   3.215
76901SOL     OW32476  13.204  12.662   5.019
76901SOL    HW132477  13.125  12.653   5.072
76901SOL    HW232478  13.178  12.632   4.932
76902SOL     OW32479  12.928   2.388  14.405
76902SOL    HW132480  12.839   2.356  14.390
76902SOL    HW232481  12.944   2.372  14.498
76903SOL     OW32482  13.587   3.730   0.507
76903SOL    HW132483  13.503   3.688   0.522
76903SOL    HW232484  13.576   3.778   0.425
76904SOL     OW32485   5.454   1.591   5.389
76904SOL    HW132486   5.455   1.500   5.419
76904SOL    HW232487   5.524   1.596   5.324
76905SOL     OW32488   2.169  10.483   7.792
76905SOL    HW132489   2.144  10.401   7.749
76905SOL    HW232490   2.132  10.552   7.736
76906SOL     OW32491   4.869  11.525   9.874
76906SOL    HW132492   4.948  11.471   9.864
76906SOL    HW232493   4.885  11.602   9.820
76907SOL     OW32494   0.853   4.258   4.799
76907SOL    HW132495   0.886   4.298   4.879
76907SOL    HW232496   0.800   4.185   4.829
76908SOL     OW32497   5.766   9.874   9.100
76908SOL    HW132498   5.740   9.966   9.105
76908SOL    HW232499   5.703   9.828   9.155
76909SOL     OW32500  13.479  13.720   3.489
76909SOL    HW132501  13.386  13.719   3.467
76909SOL    HW232502  13.485  13.774   3.568
76910SOL     OW32503   6.345   7.447   7.420
76910SOL    HW132504   6.299   7.413   7.343
76910SOL    HW232505   6.398   7.519   7.386
76911SOL     OW32506  14.528  12.396  10.661
76911SOL    HW132507  14.527  12.447  10.581
76911SOL    HW232508  14.475  12.319  10.642
76912SOL     OW32509   3.908   9.439   6.613
76912SOL    HW132510   3.851   9.365   6.636
76912SOL    HW232511   3.932   9.423   6.522
76913SOL     OW32512  13.145   3.382  14.647
76913SOL    HW132513  13.133   3.287  14.659
76913SOL    HW232514  13.089   3.404  14.573
76914SOL     OW32515  13.677   4.145  11.149
76914SOL    HW132516  13.725   4.221  11.117
76914SOL    HW232517  13.719   4.071  11.105
76915SOL     OW32518  11.808   9.431   3.901
76915SOL    HW132519  11.861   9.382   3.964
76915SOL    HW232520  11.737   9.468   3.953
76916SOL     OW32521  12.810  10.761   4.550
76916SOL    HW132522  12.732  10.775   4.604
76916SOL    HW232523  12.780  10.778   4.460
76917SOL     OW32524   3.178   7.160  12.187
76917SOL    HW132525   3.190   7.248  12.152
76917SOL    HW232526   3.219   7.162  12.273
76918SOL     OW32527   0.236   1.853   9.073
76918SOL    HW132528   0.218   1.845   8.980
76918SOL    HW232529   0.268   1.767   9.099
76919SOL     OW32530  11.200   6.248   4.705
76919SOL    HW132531  11.117   6.296   4.696
76919SOL    HW232532  11.212   6.238   4.799
76920SOL     OW32533   1.809   8.847   7.049
76920SOL    HW132534   1.872   8.864   7.119
76920SOL    HW232535   1.733   8.810   7.093
76921SOL     OW32536   0.385   8.257   6.319
76921SOL    HW132537   0.332   8.179   6.336
76921SOL    HW232538   0.471   8.223   6.296
76922SOL     OW32539   4.674   9.499   3.937
76922SOL    HW132540   4.712   9.471   4.020
76922SOL    HW232541   4.748   9.509   3.879
76923SOL     OW32542   7.822   2.779  13.306
76923SOL    HW132543   7.868   2.701  13.277
76923SOL    HW232544   7.763   2.801  13.234
76924SOL     OW32545   7.453   2.802  11.709
76924SOL    HW132546   7.406   2.742  11.767
76924SOL    HW232547   7.511   2.746  11.657
76925SOL     OW32548   3.552  13.693   6.998
76925SOL    HW132549   3.529  13.776   7.040
76925SOL    HW232550   3.515  13.700   6.910
76926SOL     OW32551   1.480   5.644   2.212
76926SOL    HW132552   1.464   5.576   2.147
76926SOL    HW232553   1.575   5.657   2.211
76927SOL     OW32554  13.057  12.851  12.155
76927SOL    HW132555  13.034  12.921  12.094
76927SOL    HW232556  13.055  12.893  12.241
76928SOL     OW32557   5.130   3.778   7.071
76928SOL    HW132558   5.071   3.849   7.095
76928SOL    HW232559   5.127   3.776   6.975
76929SOL     OW32560   3.736  11.984   1.208
76929SOL    HW132561   3.789  11.904   1.207
76929SOL    HW232562   3.648  11.955   1.232
76930SOL     OW32563   1.292   5.424   1.531
76930SOL    HW132564   1.287   5.410   1.437
76930SOL    HW232565   1.378   5.390   1.556
76931SOL     OW32566  11.675   8.879   7.874
76931SOL    HW132567  11.645   8.930   7.949
76931SOL    HW232568  11.607   8.891   7.808
76932SOL     OW32569   5.312   0.381   5.871
76932SOL    HW132570   5.329   0.407   5.961
76932SOL    HW232571   5.391   0.334   5.844
76933SOL     OW32572   5.100   0.579  10.146
76933SOL    HW132573   5.110   0.488  10.120
76933SOL    HW232574   5.047   0.618  10.077
76934SOL     OW32575   1.445   1.874  13.774
76934SOL    HW132576   1.533   1.850  13.803
76934SOL    HW232577   1.395   1.793  13.777
76935SOL     OW32578  10.889   3.702  11.900
76935SOL    HW132579  10.903   3.713  11.994
76935SOL    HW232580  10.806   3.746  11.882
76936SOL     OW32581   3.707   3.988   6.570
76936SOL    HW132582   3.614   3.980   6.589
76936SOL    HW232583   3.751   3.947   6.645
76937SOL     OW32584  10.147   8.969   0.529
76937SOL    HW132585  10.078   8.921   0.576
76937SOL    HW232586  10.113   8.979   0.440
76938SOL     OW32587   5.822   8.491   9.753
76938SOL    HW132588   5.784   8.574   9.723
76938SOL    HW232589   5.916   8.504   9.750
76939SOL     OW32590   2.378  10.648   5.787
76939SOL    HW132591   2.294  10.603   5.781
76939SOL    HW232592   2.437  10.598   5.731
76940SOL     OW32593  11.193   4.969   1.958
76940SOL    HW132594  11.184   4.914   2.035
76940SOL    HW232595  11.120   5.031   1.964
76941SOL     OW32596   8.548  13.429   4.228
76941SOL    HW132597   8.543  13.381   4.311
76941SOL    HW232598   8.628  13.397   4.186
76942SOL     OW32599   9.163   4.761  13.324
76942SOL    HW132600   9.098   4.774  13.394
76942SOL    HW232601   9.157   4.840  13.270
76943SOL     OW32602  11.573  11.358  11.766
76943SOL    HW132603  11.641  11.333  11.829
76943SOL    HW232604  11.506  11.400  11.820
76944SOL     OW32605   4.382   2.276  10.601
76944SOL    HW132606   4.303   2.227  10.580
76944SOL    HW232607   4.366   2.364  10.565
76945SOL     OW32608  11.533   0.435  13.797
76945SOL    HW132609  11.625   0.423  13.777
76945SOL    HW232610  11.495   0.347  13.786
76946SOL     OW32611  10.734   7.589   1.636
76946SOL    HW132612  10.647   7.599   1.597
76946SOL    HW232613  10.716   7.560   1.725
76947SOL     OW32614   2.490   3.957   0.968
76947SOL    HW132615   2.431   4.011   0.917
76947SOL    HW232616   2.542   3.909   0.903
76948SOL     OW32617   1.331   6.084   5.923
76948SOL    HW132618   1.331   6.028   5.845
76948SOL    HW232619   1.409   6.139   5.914
76949SOL     OW32620   7.956   3.341  12.394
76949SOL    HW132621   7.994   3.413  12.344
76949SOL    HW232622   7.947   3.270  12.330
76950SOL     OW32623   5.235   6.523   5.981
76950SOL    HW132624   5.295   6.597   5.972
76950SOL    HW232625   5.155   6.552   5.938
76951SOL     OW32626   8.145  10.180   5.819
76951SOL    HW132627   8.195  10.100   5.800
76951SOL    HW232628   8.207  10.251   5.801
76952SOL     OW32629   4.086   6.820   3.794
76952SOL    HW132630   4.052   6.765   3.865
76952SOL    HW232631   4.012   6.875   3.768
76953SOL     OW32632   1.346  10.599  11.770
76953SOL    HW132633   1.268  10.608  11.714
76953SOL    HW232634   1.362  10.505  11.774
76954SOL     OW32635   4.861   2.371  13.932
76954SOL    HW132636   4.789   2.397  13.873
76954SOL    HW232637   4.940   2.384  13.880
76955SOL     OW32638   8.162   3.007  10.337
76955SOL    HW132639   8.126   2.920  10.353
76955SOL    HW232640   8.085   3.062  10.322
76956SOL     OW32641   4.452   7.432   0.027
76956SOL    HW132642   4.372   7.409   0.074
76956SOL    HW232643   4.512   7.462   0.094
76957SOL     OW32644  13.246   4.907  12.812
76957SOL    HW132645  13.270   4.988  12.766
76957SOL    HW232646  13.160   4.925  12.848
76958SOL     OW32647  10.937  13.059   4.859
76958SOL    HW132648  10.896  13.021   4.936
76958SOL    HW232649  11.031  13.058   4.879
76959SOL     OW32650  11.012   7.939   6.375
76959SOL    HW132651  11.055   8.013   6.417
76959SOL    HW232652  10.935   7.977   6.332
76960SOL     OW32653  10.659  10.562   4.860
76960SOL    HW132654  10.605  10.537   4.786
76960SOL    HW232655  10.734  10.607   4.821
76961SOL     OW32656  14.671   1.777   2.032
76961SOL    HW132657  14.758   1.743   2.050
76961SOL    HW232658  14.645   1.821   2.113
76962SOL     OW32659   2.240   0.529   4.684
76962SOL    HW132660   2.282   0.474   4.618
76962SOL    HW232661   2.286   0.613   4.677
76963SOL     OW32662   3.352   0.404   7.349
76963SOL    HW132663   3.259   0.401   7.372
76963SOL    HW232664   3.392   0.456   7.419
76964SOL     OW32665  13.426   6.154   6.274
76964SOL    HW132666  13.503   6.209   6.261
76964SOL    HW232667  13.461   6.068   6.298
76965SOL     OW32668   9.508   6.025   9.221
76965SOL    HW132669   9.534   6.002   9.132
76965SOL    HW232670   9.512   6.120   9.224
76966SOL     OW32671   9.723   9.732  10.651
76966SOL    HW132672   9.699   9.663  10.713
76966SOL    HW232673   9.684   9.704  10.568
76967SOL     OW32674   9.278   9.951  13.880
76967SOL    HW132675   9.329   9.986  13.807
76967SOL    HW232676   9.217  10.022  13.903
76968SOL     OW32677   8.559   4.413   5.625
76968SOL    HW132678   8.554   4.503   5.659
76968SOL    HW232679   8.647   4.405   5.590
76969SOL     OW32680   9.108  13.812   4.068
76969SOL    HW132681   9.029  13.771   4.032
76969SOL    HW232682   9.113  13.779   4.158
76970SOL     OW32683   6.237   3.802   7.431
76970SOL    HW132684   6.229   3.744   7.506
76970SOL    HW232685   6.150   3.803   7.392
76971SOL     OW32686  12.576   2.628   1.307
76971SOL    HW132687  12.563   2.709   1.258
76971SOL    HW232688  12.541   2.560   1.250
76972SOL     OW32689   1.953   7.658  10.052
76972SOL    HW132690   1.890   7.604  10.004
76972SOL    HW232691   2.005   7.700   9.984
76973SOL     OW32692  12.465   5.505   6.404
76973SOL    HW132693  12.486   5.587   6.360
76973SOL    HW232694  12.520   5.440   6.360
76974SOL     OW32695   8.446  14.182  14.385
76974SOL    HW132696   8.534  14.149  14.403
76974SOL    HW232697   8.421  14.140  14.303
76975SOL     OW32698   9.088   1.198  11.794
76975SOL    HW132699   9.058   1.287  11.775
76975SOL    HW232700   9.088   1.154  11.709
76976SOL     OW32701   5.067   6.721  11.369
76976SOL    HW132702   4.974   6.698  11.373
76976SOL    HW232703   5.112   6.637  11.362
76977SOL     OW32704   5.854   5.940   3.974
76977SOL    HW132705   5.792   6.006   4.005
76977SOL    HW232706   5.925   5.941   4.038
76978SOL     OW32707   9.050   0.362  11.038
76978SOL    HW132708   8.980   0.332  10.980
76978SOL    HW232709   9.102   0.284  11.057
76979SOL     OW32710  14.831  14.858   1.482
76979SOL    HW132711  14.872  14.771   1.485
76979SOL    HW232712  14.872   0.024   1.408
76980SOL     OW32713  14.761   1.615   2.278
76980SOL    HW132714  14.837   1.633   2.222
76980SOL    HW232715  14.756   1.690   2.338
76981SOL     OW32716   1.472  14.661   5.454
76981SOL    HW132717   1.450  14.627   5.367
76981SOL    HW232718   1.448  14.753   5.451
76982SOL     OW32719   6.320  11.232   5.718
76982SOL    HW132720   6.281  11.213   5.632
76982SOL    HW232721   6.408  11.195   5.713
76983SOL     OW32722  14.569   0.215   0.395
76983SOL    HW132723  14.491   0.159   0.399
76983SOL    HW232724  14.642   0.155   0.381
76984SOL     OW32725   0.818   8.096   9.080
76984SOL    HW132726   0.791   8.178   9.039
76984SOL    HW232727   0.822   8.116   9.174
76985SOL     OW32728   6.443   7.547   6.972
76985SOL    HW132729   6.534   7.544   6.940
76985SOL    HW232730   6.407   7.461   6.949
76986SOL     OW32731   5.453   2.127   8.966
76986SOL    HW132732   5.545   2.137   8.942
76986SOL    HW232733   5.454   2.115   9.061
76987SOL     OW32734   0.482   1.464   7.389
76987SOL    HW132735   0.539   1.392   7.362
76987SOL    HW232736   0.536   1.516   7.448
76988SOL     OW32737   7.263   0.954  11.549
76988SOL    HW132738   7.276   0.915  11.636
76988SOL    HW232739   7.350   0.981  11.522
76989SOL     OW32740  10.842  11.740  11.601
76989SOL    HW132741  10.908  11.778  11.542
76989SOL    HW232742  10.876  11.652  11.620
76990SOL     OW32743   3.841   9.224   5.409
76990SOL    HW132744   3.900   9.165   5.456
76990SOL    HW232745   3.767   9.169   5.383
76991SOL     OW32746   5.174  13.735  11.399
76991SOL    HW132747   5.095  13.733  11.453
76991SOL    HW232748   5.143  13.756  11.311
76992SOL     OW32749  11.644   5.852   1.121
76992SOL    HW132750  11.677   5.940   1.139
76992SOL    HW232751  11.713   5.794   1.152
76993SOL     OW32752   1.991   7.513  11.200
76993SOL    HW132753   1.944   7.468  11.270
76993SOL    HW232754   2.069   7.458  11.185
76994SOL     OW32755   3.560  14.776  13.491
76994SOL    HW132756   3.649  14.795  13.462
76994SOL    HW232757   3.504  14.816  13.424
76995SOL     OW32758   2.600  10.106   3.150
76995SOL    HW132759   2.566  10.179   3.201
76995SOL    HW232760   2.542  10.033   3.171
76996SOL     OW32761  13.865   6.285   6.018
76996SOL    HW132762  13.948   6.305   6.060
76996SOL    HW232763  13.877   6.196   5.983
76997SOL     OW32764   9.466  13.203  14.120
76997SOL    HW132765   9.519  13.153  14.183
76997SOL    HW232766   9.425  13.137  14.065
76998SOL     OW32767  14.193   6.251   2.509
76998SOL    HW132768  14.106   6.212   2.518
76998SOL    HW232769  14.202   6.308   2.585
76999SOL     OW32770   8.903   7.022  13.054
76999SOL    HW132771   8.941   7.042  12.969
76999SOL    HW232772   8.976   7.029  13.115
77000SOL     OW32773   9.606   9.417   6.063
77000SOL    HW132774   9.566   9.471   5.995
77000SOL    HW232775   9.633   9.337   6.017
77001SOL     OW32776  12.030   1.507  13.385
77001SOL    HW132777  12.087   1.514  13.462
77001SOL    HW232778  12.043   1.589  13.338
77002SOL     OW32779   5.007   8.411  13.211
77002SOL    HW132780   4.954   8.354  13.155
77002SOL    HW232781   5.083   8.358  13.234
77003SOL     OW32782  14.289   4.705  12.338
77003SOL    HW132783  14.378   4.716  12.303
77003SOL    HW232784  14.232   4.725  12.265
77004SOL     OW32785  13.293   4.024   4.603
77004SOL    HW132786  13.384   3.995   4.609
77004SOL    HW232787  13.253   3.994   4.685
77005SOL     OW32788  13.868   6.601   1.002
77005SOL    HW132789  13.810   6.641   0.937
77005SOL    HW232790  13.945   6.657   1.003
77006SOL     OW32791  11.716   8.449   6.693
77006SOL    HW132792  11.691   8.370   6.741
77006SOL    HW232793  11.787   8.421   6.636
77007SOL     OW32794  12.268   4.296   4.665
77007SOL    HW132795  12.220   4.276   4.745
77007SOL    HW232796  12.236   4.382   4.637
77008SOL     OW32797   6.217   4.334   3.747
77008SOL    HW132798   6.205   4.317   3.840
77008SOL    HW232799   6.297   4.386   3.742
77009SOL     OW32800  13.556   8.429   8.526
77009SOL    HW132801  13.465   8.449   8.546
77009SOL    HW232802  13.555   8.339   8.494
77010SOL     OW32803  11.779  13.741   0.437
77010SOL    HW132804  11.807  13.650   0.427
77010SOL    HW232805  11.689  13.742   0.406
77011SOL     OW32806   3.607  11.202   9.749
77011SOL    HW132807   3.598  11.145   9.825
77011SOL    HW232808   3.700  11.201   9.728
77012SOL     OW32809  10.529   8.866  10.381
77012SOL    HW132810  10.613   8.820  10.380
77012SOL    HW232811  10.466   8.800  10.354
77013SOL     OW32812  13.637   1.785   3.752
77013SOL    HW132813  13.716   1.808   3.801
77013SOL    HW232814  13.635   1.848   3.680
77014SOL     OW32815   8.901   3.877   0.623
77014SOL    HW132816   8.897   3.972   0.616
77014SOL    HW232817   8.981   3.853   0.576
77015SOL     OW32818  11.139   3.670  13.318
77015SOL    HW132819  11.222   3.655  13.363
77015SOL    HW232820  11.123   3.764  13.326
77016SOL     OW32821   7.242   9.156   2.220
77016SOL    HW132822   7.188   9.235   2.215
77016SOL    HW232823   7.312   9.171   2.156
77017SOL     OW32824  14.752  10.456  13.214
77017SOL    HW132825  14.772  10.467  13.121
77017SOL    HW232826  14.769  10.542  13.252
77018SOL     OW32827   8.507   0.351  14.839
77018SOL    HW132828   8.521   0.333  14.746
77018SOL    HW232829   8.594   0.350   0.000
77019SOL     OW32830   8.185  11.454  14.206
77019SOL    HW132831   8.110  11.499  14.246
77019SOL    HW232832   8.193  11.495  14.120
77020SOL     OW32833  11.795  13.035   2.119
77020SOL    HW132834  11.769  13.030   2.211
77020SOL    HW232835  11.737  13.101   2.082
77021SOL     OW32836   6.574   4.024  11.290
77021SOL    HW132837   6.591   4.111  11.324
77021SOL    HW232838   6.618   4.022  11.205
77022SOL     OW32839   5.347   9.398   8.086
77022SOL    HW132840   5.391   9.416   8.003
77022SOL    HW232841   5.392   9.455   8.149
77023SOL     OW32842  13.426   1.734   3.932
77023SOL    HW132843  13.481   1.700   4.003
77023SOL    HW232844  13.483   1.730   3.855
77024SOL     OW32845   2.928  13.703   6.025
77024SOL    HW132846   2.969  13.749   6.099
77024SOL    HW232847   2.967  13.743   5.947
77025SOL     OW32848   1.958   3.194  12.000
77025SOL    HW132849   1.954   3.218  11.907
77025SOL    HW232850   2.036   3.138  12.007
77026SOL     OW32851   8.937   0.888  12.158
77026SOL    HW132852   8.850   0.876  12.196
77026SOL    HW232853   8.921   0.926  12.071
77027SOL     OW32854   2.189  10.174   3.981
77027SOL    HW132855   2.124  10.210   3.921
77027SOL    HW232856   2.258  10.240   3.983
77028SOL     OW32857   7.532   2.189   4.047
77028SOL    HW132858   7.613   2.143   4.068
77028SOL    HW232859   7.551   2.235   3.965
77029SOL     OW32860  14.374   4.168   3.819
77029SOL    HW132861  14.330   4.111   3.882
77029SOL    HW232862  14.465   4.171   3.848
77030SOL     OW32863   8.519   4.965   3.858
77030SOL    HW132864   8.525   4.932   3.947
77030SOL    HW232865   8.490   5.056   3.868
77031SOL     OW32866   8.527  12.745   8.585
77031SOL    HW132867   8.531  12.770   8.492
77031SOL    HW232868   8.616  12.758   8.618
77032SOL     OW32869   0.903   5.950   8.789
77032SOL    HW132870   0.965   5.991   8.849
77032SOL    HW232871   0.957   5.905   8.725
77033SOL     OW32872   8.676   9.761  13.984
77033SOL    HW132873   8.708   9.722  13.903
77033SOL    HW232874   8.704   9.853  13.979
77034SOL     OW32875   1.304   5.386   9.338
77034SOL    HW132876   1.262   5.440   9.406
77034SOL    HW232877   1.280   5.296   9.361
77035SOL     OW32878  10.781   3.963   3.421
77035SOL    HW132879  10.763   3.973   3.328
77035SOL    HW232880  10.751   4.045   3.460
77036SOL     OW32881  11.800   9.540  12.789
77036SOL    HW132882  11.865   9.481  12.827
77036SOL    HW232883  11.716   9.498  12.808
77037SOL     OW32884  12.521   0.535   6.807
77037SOL    HW132885  12.586   0.468   6.823
77037SOL    HW232886  12.454   0.520   6.874
77038SOL     OW32887  12.682   1.906   9.591
77038SOL    HW132888  12.689   1.999   9.570
77038SOL    HW232889  12.644   1.904   9.678
77039SOL     OW32890  14.651  14.079   0.993
77039SOL    HW132891  14.721  14.092   0.928
77039SOL    HW232892  14.586  14.146   0.972
77040SOL     OW32893   4.595   6.503  11.208
77040SOL    HW132894   4.545   6.507  11.290
77040SOL    HW232895   4.671   6.449  11.228
77041SOL     OW32896   6.083   8.129   4.140
77041SOL    HW132897   6.008   8.177   4.103
77041SOL    HW232898   6.160   8.173   4.104
77042SOL     OW32899   1.691   1.454  11.890
77042SOL    HW132900   1.779   1.475  11.922
77042SOL    HW232901   1.645   1.423  11.968
77043SOL     OW32902  14.818   0.490   8.437
77043SOL    HW132903  14.801   0.557   8.372
77043SOL    HW232904  14.816   0.536   8.521
77044SOL     OW32905  10.294  10.719   2.155
77044SOL    HW132906  10.385  10.746   2.144
77044SOL    HW232907  10.265  10.763   2.234
77045SOL     OW32908   9.925  13.693   1.492
77045SOL    HW132909   9.947  13.600   1.488
77045SOL    HW232910   9.861  13.699   1.563
77046SOL     OW32911   4.623  14.751   0.787
77046SOL    HW132912   4.635  14.682   0.722
77046SOL    HW232913   4.576  14.708   0.859
77047SOL     OW32914  13.694  14.589   2.027
77047SOL    HW132915  13.698  14.564   2.119
77047SOL    HW232916  13.601  14.605   2.011
77048SOL     OW32917   7.642   4.120   0.606
77048SOL    HW132918   7.690   4.202   0.622
77048SOL    HW232919   7.590   4.138   0.528
77049SOL     OW32920   9.749  10.533  12.725
77049SOL    HW132921   9.768  10.621  12.691
77049SOL    HW232922   9.663  10.541  12.765
77050SOL     OW32923   7.050  12.426  14.773
77050SOL    HW132924   7.137  12.462  14.785
77050SOL    HW232925   7.058  12.334  14.798
77051SOL     OW32926   6.975  14.493   5.396
77051SOL    HW132927   6.983  14.568   5.454
77051SOL    HW232928   7.062  14.484   5.356
77052SOL     OW32929   5.117   9.287   9.250
77052SOL    HW132930   5.150   9.232   9.179
77052SOL    HW232931   5.044   9.238   9.287
77053SOL     OW32932  13.534  12.715   8.744
77053SOL    HW132933  13.608  12.776   8.738
77053SOL    HW232934  13.565  12.647   8.804
77054SOL     OW32935  14.019   8.666  11.072
77054SOL    HW132936  14.027   8.570  11.075
77054SOL    HW232937  14.049   8.689  10.984
77055SOL     OW32938  11.312   5.517   8.524
77055SOL    HW132939  11.399   5.505   8.561
77055SOL    HW232940  11.301   5.443   8.464
77056SOL     OW32941   5.979  12.752   7.350
77056SOL    HW132942   6.017  12.667   7.374
77056SOL    HW232943   5.920  12.731   7.278
77057SOL     OW32944  12.896   4.250   5.541
77057SOL    HW132945  12.859   4.205   5.465
77057SOL    HW232946  12.829   4.242   5.609
77058SOL     OW32947  12.401  14.311   2.236
77058SOL    HW132948  12.389  14.235   2.293
77058SOL    HW232949  12.477  14.357   2.273
77059SOL     OW32950   5.844   0.047   4.851
77059SOL    HW132951   5.869  14.855   4.913
77059SOL    HW232952   5.901   0.120   4.872
77060SOL     OW32953  12.766   6.589  13.405
77060SOL    HW132954  12.712   6.626  13.334
77060SOL    HW232955  12.719   6.614  13.485
77061SOL     OW32956  12.829   3.351   2.054
77061SOL    HW132957  12.838   3.407   2.130
77061SOL    HW232958  12.819   3.263   2.089
77062SOL     OW32959   2.937   5.089   4.403
77062SOL    HW132960   2.911   5.073   4.313
77062SOL    HW232961   3.028   5.117   4.398
77063SOL     OW32962  10.724  14.774   5.178
77063SOL    HW132963  10.761  14.786   5.266
77063SOL    HW232964  10.661  14.846   5.168
77064SOL     OW32965  11.774  13.931   9.191
77064SOL    HW132966  11.796  13.838   9.192
77064SOL    HW232967  11.792  13.959   9.101
77065SOL     OW32968  11.401   1.167   7.490
77065SOL    HW132969  11.404   1.247   7.437
77065SOL    HW232970  11.442   1.100   7.436
77066SOL     OW32971  12.042   4.871  12.919
77066SOL    HW132972  11.996   4.820  12.985
77066SOL    HW232973  12.096   4.808  12.872
77067SOL     OW32974   7.783   5.463  14.167
77067SOL    HW132975   7.720   5.420  14.225
77067SOL    HW232976   7.804   5.396  14.101
77068SOL     OW32977  14.196  10.334   0.682
77068SOL    HW132978  14.244  10.280   0.745
77068SOL    HW232979  14.255  10.342   0.607
77069SOL     OW32980  12.589   0.683   3.799
77069SOL    HW132981  12.541   0.748   3.747
77069SOL    HW232982  12.662   0.731   3.837
77070SOL     OW32983   0.243  12.703   9.942
77070SOL    HW132984   0.283  12.675   9.860
77070SOL    HW232985   0.156  12.734   9.917
77071SOL     OW32986   0.886  14.767   4.400
77071SOL    HW132987   0.869  14.807   4.314
77071SOL    HW232988   0.808  14.787   4.451
77072SOL     OW32989   2.299   7.888   4.204
77072SOL    HW132990   2.360   7.959   4.187
77072SOL    HW232991   2.352   7.821   4.248
77073SOL     OW32992   6.020   4.270  11.130
77073SOL    HW132993   5.976   4.312  11.204
77073SOL    HW232994   6.053   4.188  11.166
77074SOL     OW32995   2.394  14.163  13.701
77074SOL    HW132996   2.385  14.229  13.769
77074SOL    HW232997   2.483  14.174  13.668
77075SOL     OW32998   6.157   7.979   0.840
77075SOL    HW132999   6.087   8.044   0.842
77075SOL    HW233000   6.237   8.030   0.829
77076SOL     OW33001   3.139   9.695   6.576
77076SOL    HW133002   3.175   9.773   6.617
77076SOL    HW233003   3.210   9.631   6.578
77077SOL     OW33004   3.867  13.277   5.162
77077SOL    HW133005   3.846  13.271   5.068
77077SOL    HW233006   3.783  13.268   5.206
77078SOL     OW33007   4.192   8.452  14.784
77078SOL    HW133008   4.233   8.385  14.838
77078SOL    HW233009   4.237   8.447  14.700
77079SOL     OW33010  11.303   4.961  14.239
77079SOL    HW133011  11.236   5.007  14.189
77079SOL    HW233012  11.291   4.869  14.216
77080SOL     OW33013   1.613   3.801   8.429
77080SOL    HW133014   1.698   3.820   8.389
77080SOL    HW233015   1.599   3.874   8.490
77081SOL     OW33016  12.242   6.268   6.032
77081SOL    HW133017  12.205   6.184   6.007
77081SOL    HW233018  12.218   6.279   6.124
77082SOL     OW33019   1.329   4.130  12.845
77082SOL    HW133020   1.410   4.096  12.808
77082SOL    HW233021   1.267   4.129  12.772
77083SOL     OW33022   6.269   7.998   6.834
77083SOL    HW133023   6.280   7.906   6.856
77083SOL    HW233024   6.354   8.038   6.851
77084SOL     OW33025  14.405   5.110   9.848
77084SOL    HW133026  14.488   5.072   9.821
77084SOL    HW233027  14.428   5.193   9.889
77085SOL     OW33028   4.367   1.153  12.982
77085SOL    HW133029   4.333   1.145  12.893
77085SOL    HW233030   4.293   1.127  13.037
77086SOL     OW33031  14.825  10.459   8.685
77086SOL    HW133032  14.831  10.382   8.742
77086SOL    HW233033  14.764  10.517   8.731
77087SOL     OW33034   0.143   1.291  11.867
77087SOL    HW133035   0.157   1.363  11.806
77087SOL    HW233036   0.048   1.277  11.866
77088SOL     OW33037   6.958   7.820  12.257
77088SOL    HW133038   6.899   7.873  12.311
77088SOL    HW233039   7.045   7.835  12.295
77089SOL     OW33040   5.072   7.066  12.286
77089SOL    HW133041   5.159   7.104  12.279
77089SOL    HW233042   5.041   7.060  12.196
77090SOL     OW33043   9.604  10.702  10.752
77090SOL    HW133044   9.539  10.670  10.814
77090SOL    HW233045   9.633  10.786  10.788
77091SOL     OW33046  11.292   4.359   5.238
77091SOL    HW133047  11.280   4.440   5.288
77091SOL    HW233048  11.318   4.294   5.304
77092SOL     OW33049  14.580   8.227   2.815
77092SOL    HW133050  14.535   8.142   2.810
77092SOL    HW233051  14.672   8.205   2.828
77093SOL     OW33052   3.045   2.143   4.111
77093SOL    HW133053   3.095   2.196   4.048
77093SOL    HW233054   3.071   2.177   4.197
77094SOL     OW33055   1.524   4.421   5.339
77094SOL    HW133056   1.515   4.514   5.361
77094SOL    HW233057   1.605   4.393   5.382
77095SOL     OW33058   2.017   4.199  11.287
77095SOL    HW133059   2.052   4.125  11.237
77095SOL    HW233060   1.963   4.247  11.224
77096SOL     OW33061   8.938   0.381   7.696
77096SOL    HW133062   9.020   0.427   7.711
77096SOL    HW233063   8.895   0.380   7.781
77097SOL     OW33064   6.277  13.119  10.653
77097SOL    HW133065   6.309  13.208  10.646
77097SOL    HW233066   6.310  13.075  10.574
77098SOL     OW33067  12.576   5.139  14.169
77098SOL    HW133068  12.625   5.086  14.232
77098SOL    HW233069  12.598   5.229  14.191
77099SOL     OW33070   2.752   6.617  10.595
77099SOL    HW133071   2.721   6.585  10.510
77099SOL    HW233072   2.770   6.538  10.646
77100SOL     OW33073  14.445  13.029   8.221
77100SOL    HW133074  14.541  13.035   8.223
77100SOL    HW233075  14.422  12.973   8.295
77101SOL     OW33076  11.951   0.978   8.694
77101SOL    HW133077  11.896   0.978   8.772
77101SOL    HW233078  12.027   1.030   8.718
77102SOL     OW33079  12.168  14.672   9.862
77102SOL    HW133080  12.196  14.583   9.842
77102SOL    HW233081  12.174  14.719   9.779
77103SOL     OW33082   8.826   3.517  12.864
77103SOL    HW133083   8.912   3.530  12.905
77103SOL    HW233084   8.810   3.598  12.817
77104SOL     OW33085   4.475   1.746   8.304
77104SOL    HW133086   4.524   1.681   8.254
77104SOL    HW233087   4.405   1.773   8.245
77105SOL     OW33088  14.207  11.430   7.507
77105SOL    HW133089  14.116  11.419   7.481
77105SOL    HW233090  14.217  11.374   7.584
77106SOL     OW33091   0.776  10.566  13.713
77106SOL    HW133092   0.795  10.474  13.694
77106SOL    HW233093   0.697  10.563  13.768
77107SOL     OW33094   1.745   2.475   7.021
77107SOL    HW133095   1.655   2.445   7.010
77107SOL    HW233096   1.773   2.438   7.105
77108SOL     OW33097   4.753   4.401  11.583
77108SOL    HW133098   4.702   4.433  11.657
77108SOL    HW233099   4.725   4.456  11.509
77109SOL     OW33100  13.619   1.637  10.931
77109SOL    HW133101  13.680   1.565  10.919
77109SOL    HW233102  13.588   1.657  10.842
77110SOL     OW33103  13.660  13.601   0.763
77110SOL    HW133104  13.599  13.534   0.793
77110SOL    HW233105  13.690  13.643   0.844
77111SOL     OW33106   6.061   9.324   5.624
77111SOL    HW133107   6.047   9.323   5.530
77111SOL    HW233108   6.153   9.349   5.634
77112SOL     OW33109  14.410   9.448  13.569
77112SOL    HW133110  14.474   9.421  13.503
77112SOL    HW233111  14.451   9.426  13.652
77113SOL     OW33112   0.857  14.348   0.016
77113SOL    HW133113   0.834  14.256   0.013
77113SOL    HW233114   0.895  14.366  14.807
77114SOL     OW33115   1.972   1.295  14.208
77114SOL    HW133116   1.884   1.321  14.237
77114SOL    HW233117   1.961   1.273  14.116
77115SOL     OW33118   7.494   0.029   1.175
77115SOL    HW133119   7.427  14.849   1.138
77115SOL    HW233120   7.535  14.855   1.244
77116SOL     OW33121   7.819   7.535   6.803
77116SOL    HW133122   7.857   7.607   6.853
77116SOL    HW233123   7.731   7.525   6.839
77117SOL     OW33124  11.962  11.785  12.319
77117SOL    HW133125  11.993  11.816  12.234
77117SOL    HW233126  11.985  11.855  12.381
77118SOL     OW33127  13.981   5.803  11.538
77118SOL    HW133128  13.935   5.887  11.536
77118SOL    HW233129  14.006   5.787  11.447
77119SOL     OW33130   8.703   2.547   7.910
77119SOL    HW133131   8.778   2.526   7.855
77119SOL    HW233132   8.698   2.476   7.973
77120SOL     OW33133   2.618   8.507   1.914
77120SOL    HW133134   2.638   8.423   1.873
77120SOL    HW233135   2.529   8.528   1.884
77121SOL     OW33136   1.894   2.617   9.846
77121SOL    HW133137   1.849   2.637   9.928
77121SOL    HW233138   1.836   2.555   9.802
77122SOL     OW33139   1.531  10.957   9.864
77122SOL    HW133140   1.602  11.011   9.831
77122SOL    HW233141   1.574  10.886   9.912
77123SOL     OW33142   9.435  11.369   5.712
77123SOL    HW133143   9.353  11.371   5.761
77123SOL    HW233144   9.465  11.461   5.710
77124SOL     OW33145  13.381   1.759   0.882
77124SOL    HW133146  13.420   1.840   0.913
77124SOL    HW233147  13.446   1.692   0.902
77125SOL     OW33148   9.457   0.479   1.113
77125SOL    HW133149   9.382   0.440   1.068
77125SOL    HW233150   9.433   0.476   1.206
77126SOL     OW33151   8.090   3.330  10.042
77126SOL    HW133152   8.145   3.262  10.004
77126SOL    HW233153   8.019   3.282  10.086
77127SOL     OW33154  11.467  11.218   8.624
77127SOL    HW133155  11.371  11.215   8.626
77127SOL    HW233156  11.490  11.277   8.696
77128SOL     OW33157   0.989   0.456   7.591
77128SOL    HW133158   1.004   0.363   7.607
77128SOL    HW233159   0.903   0.460   7.550
77129SOL     OW33160   9.609  12.477   3.249
77129SOL    HW133161   9.582  12.562   3.215
77129SOL    HW233162   9.532  12.421   3.236
77130SOL     OW33163   3.898  11.370   0.055
77130SOL    HW133164   3.943  11.451   0.080
77130SOL    HW233165   3.961  11.324  14.876
77131SOL     OW33166   1.068   7.242   8.856
77131SOL    HW133167   1.106   7.156   8.875
77131SOL    HW233168   1.107   7.300   8.922
77132SOL     OW33169   9.301  13.090   0.155
77132SOL    HW133170   9.245  13.055   0.085
77132SOL    HW233171   9.322  13.013   0.209
77133SOL     OW33172   1.891   8.942   1.098
77133SOL    HW133173   1.836   8.906   1.028
77133SOL    HW233174   1.959   8.877   1.111
77134SOL     OW33175   3.103   6.922   6.183
77134SOL    HW133176   3.115   6.827   6.170
77134SOL    HW233177   3.143   6.940   6.268
77135SOL     OW33178   5.615   6.832   6.786
77135SOL    HW133179   5.523   6.805   6.783
77135SOL    HW233180   5.619   6.908   6.728
77136SOL     OW33181   1.453  11.231   9.790
77136SOL    HW133182   1.493  11.145   9.806
77136SOL    HW233183   1.488  11.287   9.859
77137SOL     OW33184   1.707  12.445   0.609
77137SOL    HW133185   1.770  12.397   0.663
77137SOL    HW233186   1.636  12.382   0.595
77138SOL     OW33187   7.331   2.350   9.347
77138SOL    HW133188   7.398   2.350   9.416
77138SOL    HW233189   7.258   2.302   9.385
77139SOL     OW33190  14.854   4.950   9.849
77139SOL    HW133191   0.005   4.977   9.762
77139SOL    HW233192  14.854   5.031   9.900
77140SOL     OW33193   9.421   0.033   8.908
77140SOL    HW133194   9.444   0.125   8.920
77140SOL    HW233195   9.483  14.863   8.963
77141SOL     OW33196   3.480  11.729  10.945
77141SOL    HW133197   3.466  11.705  10.853
77141SOL    HW233198   3.402  11.780  10.967
77142SOL     OW33199  10.892   0.687  12.887
77142SOL    HW133200  10.880   0.708  12.980
77142SOL    HW233201  10.847   0.758  12.841
77143SOL     OW33202   5.830   2.294   8.573
77143SOL    HW133203   5.915   2.252   8.589
77143SOL    HW233204   5.798   2.317   8.660
77144SOL     OW33205   4.809   4.922   3.019
77144SOL    HW133206   4.791   5.011   3.050
77144SOL    HW233207   4.876   4.890   3.079
77145SOL     OW33208   4.246  10.469  11.806
77145SOL    HW133209   4.299  10.427  11.738
77145SOL    HW233210   4.299  10.544  11.833
77146SOL     OW33211   6.871  13.662  14.389
77146SOL    HW133212   6.804  13.621  14.444
77146SOL    HW233213   6.830  13.743  14.359
77147SOL     OW33214  12.477   6.614   3.780
77147SOL    HW133215  12.506   6.525   3.799
77147SOL    HW233216  12.434   6.643   3.861
77148SOL     OW33217   2.948  11.205   3.913
77148SOL    HW133218   2.894  11.283   3.927
77148SOL    HW233219   3.005  11.230   3.840
77149SOL     OW33220  14.138   8.196   5.176
77149SOL    HW133221  14.071   8.192   5.244
77149SOL    HW233222  14.146   8.105   5.146
77150SOL     OW33223  10.504   8.172   5.026
77150SOL    HW133224  10.469   8.252   5.065
77150SOL    HW233225  10.454   8.160   4.946
77151SOL     OW33226  14.406  14.507   8.342
77151SOL    HW133227  14.435  14.417   8.328
77151SOL    HW233228  14.343  14.523   8.271
77152SOL     OW33229  10.612   4.510  11.418
77152SOL    HW133230  10.646   4.422  11.404
77152SOL    HW233231  10.517   4.498  11.423
77153SOL     OW33232   4.401   6.814   3.726
77153SOL    HW133233   4.416   6.893   3.777
77153SOL    HW233234   4.307   6.816   3.707
77154SOL     OW33235  10.371  12.913   3.386
77154SOL    HW133236  10.412  12.908   3.472
77154SOL    HW233237  10.418  12.849   3.332
77155SOL     OW33238   5.298  10.271  10.716
77155SOL    HW133239   5.214  10.304  10.683
77155SOL    HW233240   5.315  10.324  10.794
77156SOL     OW33241   7.206   2.991   0.648
77156SOL    HW133242   7.184   2.899   0.634
77156SOL    HW233243   7.212   3.001   0.743
77157SOL     OW33244  10.540   3.344  11.157
77157SOL    HW133245  10.473   3.384  11.103
77157SOL    HW233246  10.520   3.250  11.154
77158SOL     OW33247   9.576   7.087   6.229
77158SOL    HW133248   9.596   7.150   6.298
77158SOL    HW233249   9.517   7.025   6.269
77159SOL     OW33250   8.630   0.593   5.038
77159SOL    HW133251   8.681   0.637   4.970
77159SOL    HW233252   8.545   0.638   5.036
77160SOL     OW33253  12.178   7.365  14.360
77160SOL    HW133254  12.265   7.368  14.400
77160SOL    HW233255  12.191   7.398  14.272
77161SOL     OW33256  11.119  10.074  13.421
77161SOL    HW133257  11.128   9.994  13.472
77161SOL    HW233258  11.177  10.061  13.346
77162SOL     OW33259   0.802   9.466  14.221
77162SOL    HW133260   0.898   9.472  14.214
77162SOL    HW233261   0.773   9.557  14.229
77163SOL     OW33262   3.956   2.330   3.372
77163SOL    HW133263   3.970   2.319   3.278
77163SOL    HW233264   3.995   2.415   3.393
77164SOL     OW33265   6.500   7.457   0.900
77164SOL    HW133266   6.437   7.451   0.971
77164SOL    HW233267   6.448   7.484   0.824
77165SOL     OW33268   4.889  12.987   4.732
77165SOL    HW133269   4.899  13.081   4.715
77165SOL    HW233270   4.892  12.948   4.645
77166SOL     OW33271   2.253  14.833   4.719
77166SOL    HW133272   2.295   0.003   4.790
77166SOL    HW233273   2.209  14.759   4.762
77167SOL     OW33274  11.050   3.250   0.004
77167SOL    HW133275  11.059   3.321  14.817
77167SOL    HW233276  11.140   3.220   0.019
77168SOL     OW33277   1.432   5.334   2.339
77168SOL    HW133278   1.376   5.326   2.261
77168SOL    HW233279   1.521   5.322   2.306
77169SOL     OW33280   8.751   8.747   3.694
77169SOL    HW133281   8.669   8.744   3.645
77169SOL    HW233282   8.748   8.670   3.751
77170SOL     OW33283  14.306   2.019  11.890
77170SOL    HW133284  14.322   1.976  11.806
77170SOL    HW233285  14.225   2.068  11.878
77171SOL     OW33286  13.984   1.234   7.766
77171SOL    HW133287  14.005   1.161   7.707
77171SOL    HW233288  14.000   1.312   7.714
77172SOL     OW33289  12.834  12.710   3.800
77172SOL    HW133290  12.918  12.711   3.845
77172SOL    HW233291  12.855  12.681   3.711
77173SOL     OW33292  12.191  12.387  11.363
77173SOL    HW133293  12.189  12.482  11.378
77173SOL    HW233294  12.107  12.356  11.395
77174SOL     OW33295   6.693  12.892  13.387
77174SOL    HW133296   6.657  12.885  13.476
77174SOL    HW233297   6.780  12.929  13.399
77175SOL     OW33298   8.284  11.411  10.429
77175SOL    HW133299   8.195  11.448  10.426
77175SOL    HW233300   8.271  11.322  10.462
77176SOL     OW33301   3.690  13.964   1.064
77176SOL    HW133302   3.659  13.933   1.149
77176SOL    HW233303   3.720  14.053   1.080
77177SOL     OW33304  12.826   0.539  13.900
77177SOL    HW133305  12.885   0.602  13.943
77177SOL    HW233306  12.742   0.584  13.896
77178SOL     OW33307   2.798   0.990   6.928
77178SOL    HW133308   2.777   1.079   6.899
77178SOL    HW233309   2.735   0.971   6.998
77179SOL     OW33310  14.461   1.973   1.084
77179SOL    HW133311  14.393   2.018   1.135
77179SOL    HW233312  14.453   1.881   1.111
77180SOL     OW33313   0.596  14.224   3.081
77180SOL    HW133314   0.560  14.142   3.046
77180SOL    HW233315   0.546  14.293   3.038
77181SOL     OW33316   8.682  13.942  13.593
77181SOL    HW133317   8.702  13.883  13.520
77181SOL    HW233318   8.724  13.902  13.669
77182SOL     OW33319   4.526  11.323  14.012
77182SOL    HW133320   4.478  11.296  13.934
77182SOL    HW233321   4.614  11.288  14.000
77183SOL     OW33322   5.948  13.276  11.426
77183SOL    HW133323   5.995  13.255  11.506
77183SOL    HW233324   6.009  13.329  11.375
77184SOL     OW33325  10.575   0.779  14.016
77184SOL    HW133326  10.538   0.793  14.103
77184SOL    HW233327  10.635   0.704  14.027
77185SOL     OW33328   1.218  11.699  11.725
77185SOL    HW133329   1.154  11.708  11.654
77185SOL    HW233330   1.186  11.757  11.794
77186SOL     OW33331   5.090   2.307   1.951
77186SOL    HW133332   5.040   2.308   2.033
77186SOL    HW233333   5.182   2.305   1.978
77187SOL     OW33334  10.206   0.696   5.341
77187SOL    HW133335  10.231   0.672   5.431
77187SOL    HW233336  10.239   0.624   5.287
77188SOL     OW33337   2.725  13.303   8.641
77188SOL    HW133338   2.723  13.233   8.576
77188SOL    HW233339   2.794  13.278   8.703
77189SOL     OW33340   5.535  12.051  12.883
77189SOL    HW133341   5.620  12.088  12.859
77189SOL    HW233342   5.516  12.090  12.969
77190SOL     OW33343  11.340   9.194   9.613
77190SOL    HW133344  11.349   9.129   9.543
77190SOL    HW233345  11.250   9.224   9.607
77191SOL     OW33346   1.581  11.897   0.634
77191SOL    HW133347   1.578  11.935   0.546
77191SOL    HW233348   1.639  11.822   0.625
77192SOL     OW33349  12.088  12.895   9.216
77192SOL    HW133350  12.175  12.898   9.257
77192SOL    HW233351  12.105  12.896   9.122
77193SOL     OW33352   2.735  13.818   8.630
77193SOL    HW133353   2.828  13.827   8.652
77193SOL    HW233354   2.711  13.903   8.591
77194SOL     OW33355   2.466   5.699   0.160
77194SOL    HW133356   2.392   5.754   0.133
77194SOL    HW233357   2.462   5.701   0.256
77195SOL     OW33358  11.607   2.451  11.126
77195SOL    HW133359  11.640   2.412  11.207
77195SOL    HW233360  11.685   2.484  11.082
77196SOL     OW33361   6.316  13.876   9.579
77196SOL    HW133362   6.322  13.784   9.552
77196SOL    HW233363   6.404  13.910   9.568
77197SOL     OW33364  12.136   9.951   6.298
77197SOL    HW133365  12.223   9.929   6.332
77197SOL    HW233366  12.141  10.044   6.276
77198SOL     OW33367   4.011  14.072  13.397
77198SOL    HW133368   4.024  14.078  13.491
77198SOL    HW233369   4.099  14.079  13.360
77199SOL     OW33370  13.609   3.351   8.461
77199SOL    HW133371  13.595   3.444   8.481
77199SOL    HW233372  13.683   3.325   8.515
77200SOL     OW33373  10.809   8.428  14.068
77200SOL    HW133374  10.722   8.464  14.083
77200SOL    HW233375  10.822   8.367  14.141
77201SOL     OW33376   8.387   8.727  10.870
77201SOL    HW133377   8.397   8.816  10.836
77201SOL    HW233378   8.351   8.677  10.797
77202SOL     OW33379  14.201   7.360  13.131
77202SOL    HW133380  14.155   7.278  13.149
77202SOL    HW233381  14.261   7.371  13.204
77203SOL     OW33382   6.993   1.282   2.705
77203SOL    HW133383   6.990   1.338   2.628
77203SOL    HW233384   6.927   1.319   2.764
77204SOL     OW33385   7.825  12.186  10.135
77204SOL    HW133386   7.736  12.217  10.120
77204SOL    HW233387   7.824  12.153  10.225
77205SOL     OW33388   2.641  12.431  14.236
77205SOL    HW133389   2.597  12.512  14.211
77205SOL    HW233390   2.733  12.447  14.219
77206SOL     OW33391  13.698   4.384   1.694
77206SOL    HW133392  13.781   4.373   1.740
77206SOL    HW233393  13.680   4.478   1.699
77207SOL     OW33394   0.218   5.041   8.499
77207SOL    HW133395   0.183   5.112   8.552
77207SOL    HW233396   0.223   4.966   8.558
77208SOL     OW33397   0.200   9.757   5.916
77208SOL    HW133398   0.279   9.731   5.964
77208SOL    HW233399   0.185   9.848   5.943
77209SOL     OW33400   2.710   0.717   4.074
77209SOL    HW133401   2.761   0.639   4.056
77209SOL    HW233402   2.751   0.786   4.021
77210SOL     OW33403   6.724   5.526  14.602
77210SOL    HW133404   6.770   5.484  14.529
77210SOL    HW233405   6.632   5.529  14.573
77211SOL     OW33406   2.502  13.490  13.516
77211SOL    HW133407   2.441  13.474  13.444
77211SOL    HW233408   2.543  13.405  13.532
77212SOL     OW33409   3.602   1.800   3.698
77212SOL    HW133410   3.654   1.791   3.618
77212SOL    HW233411   3.625   1.723   3.751
77213SOL     OW33412   4.267   6.414   6.680
77213SOL    HW133413   4.179   6.394   6.712
77213SOL    HW233414   4.285   6.502   6.712
77214SOL     OW33415   0.189   6.325  10.408
77214SOL    HW133416   0.225   6.401  10.361
77214SOL    HW233417   0.249   6.254  10.388
77215SOL     OW33418  11.470  13.853   1.989
77215SOL    HW133419  11.453  13.785   1.924
77215SOL    HW233420  11.561  13.839   2.015
77216SOL     OW33421   7.852  12.098   8.884
77216SOL    HW133422   7.930  12.105   8.829
77216SOL    HW233423   7.780  12.128   8.829
77217SOL     OW33424   0.627  13.764   3.047
77217SOL    HW133425   0.714  13.792   3.020
77217SOL    HW233426   0.626  13.670   3.031
77218SOL     OW33427   5.859  13.912   3.993
77218SOL    HW133428   5.935  13.946   3.947
77218SOL    HW233429   5.785  13.962   3.959
77219SOL     OW33430  10.459   9.595  12.214
77219SOL    HW133431  10.510   9.548  12.280
77219SOL    HW233432  10.443   9.681  12.253
77220SOL     OW33433  10.584   9.125  14.019
77220SOL    HW133434  10.672   9.163  14.026
77220SOL    HW233435  10.591   9.043  14.068
77221SOL     OW33436   9.502   0.368   6.349
77221SOL    HW133437   9.493   0.272   6.349
77221SOL    HW233438   9.594   0.383   6.371
77222SOL     OW33439   4.055  13.088   1.801
77222SOL    HW133440   4.012  13.124   1.723
77222SOL    HW233441   4.091  13.164   1.846
77223SOL     OW33442   9.858  13.478  13.656
77223SOL    HW133443   9.931  13.525  13.697
77223SOL    HW233444   9.790  13.545  13.643
77224SOL     OW33445  14.185   8.496   5.938
77224SOL    HW133446  14.105   8.452   5.966
77224SOL    HW233447  14.255   8.440   5.970
77225SOL     OW33448   1.959   9.098   6.344
77225SOL    HW133449   1.885   9.157   6.353
77225SOL    HW233450   1.968   9.057   6.430
77226SOL     OW33451   6.886   7.840   1.949
77226SOL    HW133452   6.851   7.928   1.940
77226SOL    HW233453   6.969   7.841   1.901
77227SOL     OW33454   8.217   1.366  13.088
77227SOL    HW133455   8.204   1.310  13.164
77227SOL    HW233456   8.185   1.452  13.115
77228SOL     OW33457   6.227  11.464  14.165
77228SOL    HW133458   6.199  11.555  14.153
77228SOL    HW233459   6.188  11.438  14.248
77229SOL     OW33460   1.392  14.806  13.692
77229SOL    HW133461   1.320  14.744  13.694
77229SOL    HW233462   1.410  14.826  13.784
77230SOL     OW33463   3.869  12.243   0.732
77230SOL    HW133464   3.871  12.288   0.648
77230SOL    HW233465   3.958  12.253   0.766
77231SOL     OW33466   3.736   0.522  10.926
77231SOL    HW133467   3.753   0.484  11.012
77231SOL    HW233468   3.820   0.556  10.897
77232SOL     OW33469   6.069   7.345  12.640
77232SOL    HW133470   6.043   7.409  12.706
77232SOL    HW233471   6.021   7.370  12.562
77233SOL     OW33472   7.969   5.960   8.724
77233SOL    HW133473   7.973   6.055   8.708
77233SOL    HW233474   7.966   5.953   8.819
77234SOL     OW33475   8.417  14.361  13.492
77234SOL    HW133476   8.429  14.304  13.568
77234SOL    HW233477   8.501  14.360  13.448
77235SOL     OW33478   2.971  13.116  14.697
77235SOL    HW133479   2.963  13.203  14.734
77235SOL    HW233480   2.924  13.121  14.613
77236SOL     OW33481   8.708   7.066  11.141
77236SOL    HW133482   8.731   7.114  11.221
77236SOL    HW233483   8.666   6.986  11.172
77237SOL     OW33484   7.642   4.710   4.095
77237SOL    HW133485   7.613   4.620   4.114
77237SOL    HW233486   7.645   4.752   4.181
77238SOL     OW33487   8.228  14.765   1.341
77238SOL    HW133488   8.276  14.843   1.369
77238SOL    HW233489   8.160  14.798   1.282
77239SOL     OW33490  11.551   1.075  12.806
77239SOL    HW133491  11.489   1.007  12.780
77239SOL    HW233492  11.506   1.122  12.876
77240SOL     OW33493  12.218   2.474   2.536
77240SOL    HW133494  12.280   2.404   2.561
77240SOL    HW233495  12.178   2.442   2.456
77241SOL     OW33496   7.774   4.937   0.981
77241SOL    HW133497   7.696   4.993   0.975
77241SOL    HW233498   7.847   4.997   0.971
77242SOL     OW33499   1.220   6.333   3.867
77242SOL    HW133500   1.188   6.282   3.793
77242SOL    HW233501   1.313   6.344   3.851
77243SOL     OW33502  14.698   9.615   9.632
77243SOL    HW133503  14.621   9.661   9.601
77243SOL    HW233504  14.669   9.568   9.710
77244SOL     OW33505  10.269   7.393  12.153
77244SOL    HW133506  10.288   7.434  12.237
77244SOL    HW233507  10.174   7.386  12.151
77245SOL     OW33508  14.094  14.247   8.749
77245SOL    HW133509  14.009  14.227   8.712
77245SOL    HW233510  14.137  14.301   8.683
77246SOL     OW33511  11.008   6.642   1.734
77246SOL    HW133512  11.031   6.559   1.775
77246SOL    HW233513  10.914   6.652   1.752
77247SOL     OW33514  12.592  12.716   8.366
77247SOL    HW133515  12.653  12.687   8.298
77247SOL    HW233516  12.505  12.694   8.332
77248SOL     OW33517   7.534   3.005   9.194
77248SOL    HW133518   7.563   3.088   9.234
77248SOL    HW233519   7.616   2.964   9.164
77249SOL     OW33520  13.301   6.510   3.419
77249SOL    HW133521  13.377   6.455   3.441
77249SOL    HW233522  13.323   6.597   3.454
77250SOL     OW33523  13.579   3.070  10.741
77250SOL    HW133524  13.524   3.006  10.785
77250SOL    HW233525  13.518   3.132  10.702
77251SOL     OW33526   9.862   4.060  10.859
77251SOL    HW133527   9.944   4.099  10.830
77251SOL    HW233528   9.794   4.121  10.832
77252SOL     OW33529   0.104   5.731  14.351
77252SOL    HW133530   0.171   5.717  14.284
77252SOL    HW233531   0.153   5.758  14.429
77253SOL     OW33532   2.988   1.837   8.158
77253SOL    HW133533   3.022   1.771   8.219
77253SOL    HW233534   2.954   1.786   8.084
77254SOL     OW33535  11.276   8.052  11.092
77254SOL    HW133536  11.356   8.105  11.097
77254SOL    HW233537  11.206   8.115  11.077
77255SOL     OW33538  12.857   7.412   3.586
77255SOL    HW133539  12.838   7.460   3.506
77255SOL    HW233540  12.886   7.325   3.556
77256SOL     OW33541   8.481   7.916  11.548
77256SOL    HW133542   8.570   7.940  11.571
77256SOL    HW233543   8.468   7.829  11.585
77257SOL     OW33544   4.947   4.484   1.411
77257SOL    HW133545   4.925   4.477   1.318
77257SOL    HW233546   4.983   4.398   1.434
77258SOL     OW33547   1.042  13.962  11.084
77258SOL    HW133548   0.983  13.960  11.160
77258SOL    HW233549   1.075  14.052  11.082
77259SOL     OW33550   5.072  14.352  14.245
77259SOL    HW133551   5.136  14.333  14.313
77259SOL    HW233552   5.122  14.355  14.164
77260SOL     OW33553   8.256  10.360   9.004
77260SOL    HW133554   8.262  10.455   9.001
77260SOL    HW233555   8.329  10.332   9.059
77261SOL     OW33556   9.069   1.570   7.505
77261SOL    HW133557   9.055   1.479   7.530
77261SOL    HW233558   9.014   1.620   7.565
77262SOL     OW33559   0.026   9.502   6.711
77262SOL    HW133560   0.062   9.415   6.728
77262SOL    HW233561  14.851   9.492   6.632
77263SOL     OW33562   7.924   1.259  10.073
77263SOL    HW133563   7.853   1.254  10.137
77263SOL    HW233564   7.897   1.197  10.004
77264SOL     OW33565   3.979   8.644   4.648
77264SOL    HW133566   3.994   8.654   4.742
77264SOL    HW233567   4.039   8.575   4.622
77265SOL     OW33568   3.969   3.079   7.047
77265SOL    HW133569   4.009   2.997   7.018
77265SOL    HW233570   3.913   3.054   7.121
77266SOL     OW33571  14.211  12.919   0.411
77266SOL    HW133572  14.188  13.012   0.406
77266SOL    HW233573  14.128  12.873   0.403
77267SOL     OW33574  14.832   4.368   4.414
77267SOL    HW133575  14.742   4.337   4.426
77267SOL    HW233576  14.823   4.454   4.374
77268SOL     OW33577  10.466   2.703  13.336
77268SOL    HW133578  10.498   2.715  13.426
77268SOL    HW233579  10.371   2.708  13.343
77269SOL     OW33580  10.264   1.693   0.260
77269SOL    HW133581  10.285   1.777   0.300
77269SOL    HW233582  10.344   1.642   0.268
77270SOL     OW33583   0.756   6.825   0.122
77270SOL    HW133584   0.676   6.795   0.079
77270SOL    HW233585   0.749   6.792   0.212
77271SOL     OW33586   2.616   6.268   7.337
77271SOL    HW133587   2.654   6.245   7.422
77271SOL    HW233588   2.532   6.224   7.336
77272SOL     OW33589   4.023  11.331   4.703
77272SOL    HW133590   4.086  11.272   4.744
77272SOL    HW233591   4.058  11.347   4.616
77273SOL     OW33592   4.262   1.078   4.169
77273SOL    HW133593   4.244   1.113   4.082
77273SOL    HW233594   4.186   1.023   4.188
77274SOL     OW33595   3.697   6.835   8.527
77274SOL    HW133596   3.614   6.859   8.568
77274SOL    HW233597   3.755   6.817   8.601
77275SOL     OW33598   1.968  11.900   0.782
77275SOL    HW133599   1.940  11.944   0.702
77275SOL    HW233600   1.892  11.902   0.840
77276SOL     OW33601   8.796   4.825  14.168
77276SOL    HW133602   8.727   4.761  14.148
77276SOL    HW233603   8.749   4.903  14.196
77277SOL     OW33604  10.000  11.220  11.290
77277SOL    HW133605  10.031  11.164  11.362
77277SOL    HW233606  10.079  11.259  11.254
77278SOL     OW33607   6.264   4.614  13.599
77278SOL    HW133608   6.201   4.684  13.579
77278SOL    HW233609   6.339   4.660  13.637
77279SOL     OW33610   3.061   4.723   5.427
77279SOL    HW133611   3.032   4.642   5.385
77279SOL    HW233612   2.986   4.750   5.479
77280SOL     OW33613  10.164   3.494  14.337
77280SOL    HW133614  10.195   3.457  14.254
77280SOL    HW233615  10.209   3.443  14.405
77281SOL     OW33616  13.666  13.083   0.308
77281SOL    HW133617  13.593  13.143   0.294
77281SOL    HW233618  13.646  13.040   0.391
77282SOL     OW33619   8.467  13.996   7.833
77282SOL    HW133620   8.433  14.072   7.785
77282SOL    HW233621   8.535  14.031   7.890
77283SOL     OW33622  14.310  10.185  14.613
77283SOL    HW133623  14.337  10.236  14.536
77283SOL    HW233624  14.392  10.151  14.649
77284SOL     OW33625  12.429  11.683   5.978
77284SOL    HW133626  12.341  11.694   5.942
77284SOL    HW233627  12.471  11.620   5.920
77285SOL     OW33628   5.224  10.236  11.339
77285SOL    HW133629   5.275  10.296  11.285
77285SOL    HW233630   5.226  10.152  11.292
77286SOL     OW33631   8.860   1.494  10.169
77286SOL    HW133632   8.932   1.553  10.191
77286SOL    HW233633   8.841   1.448  10.251
77287SOL     OW33634  13.054   2.395   9.457
77287SOL    HW133635  13.009   2.336   9.517
77287SOL    HW233636  13.010   2.381   9.373
77288SOL     OW33637   4.842   8.949   8.149
77288SOL    HW133638   4.768   8.991   8.105
77288SOL    HW233639   4.873   9.013   8.211
77289SOL     OW33640  11.819   0.179  13.175
77289SOL    HW133641  11.797   0.168  13.083
77289SOL    HW233642  11.849   0.092  13.203
77290SOL     OW33643   9.822  11.559  11.084
77290SOL    HW133644   9.871  11.568  11.003
77290SOL    HW233645   9.889  11.542  11.151
77291SOL     OW33646  10.196   6.356   1.330
77291SOL    HW133647  10.283   6.380   1.364
77291SOL    HW233648  10.148   6.439   1.329
77292SOL     OW33649   0.187   1.139   8.271
77292SOL    HW133650   0.155   1.214   8.320
77292SOL    HW233651   0.122   1.071   8.285
77293SOL     OW33652   9.576   6.228   2.560
77293SOL    HW133653   9.666   6.226   2.592
77293SOL    HW233654   9.526   6.181   2.627
77294SOL     OW33655   0.034   5.297   9.486
77294SOL    HW133656   0.097   5.366   9.461
77294SOL    HW233657  14.844   5.301   9.419
77295SOL     OW33658   0.897   2.310  11.693
77295SOL    HW133659   0.869   2.377  11.756
77295SOL    HW233660   0.825   2.247  11.692
77296SOL     OW33661   1.551   3.638   1.604
77296SOL    HW133662   1.534   3.655   1.696
77296SOL    HW233663   1.643   3.664   1.592
77297SOL     OW33664   9.724  10.964   2.838
77297SOL    HW133665   9.687  10.974   2.750
77297SOL    HW233666   9.650  10.934   2.892
77298SOL     OW33667   4.995   5.271   2.832
77298SOL    HW133668   5.011   5.282   2.738
77298SOL    HW233669   5.079   5.241   2.867
77299SOL     OW33670   2.038   3.962   0.465
77299SOL    HW133671   2.129   3.974   0.491
77299SOL    HW233672   2.030   3.867   0.450
77300SOL     OW33673  13.177   2.013  12.479
77300SOL    HW133674  13.241   2.069  12.522
77300SOL    HW233675  13.100   2.069  12.468
77301SOL     OW33676   3.242   7.008   3.936
77301SOL    HW133677   3.182   7.011   4.010
77301SOL    HW233678   3.235   7.095   3.896
77302SOL     OW33679  12.496   8.130  14.651
77302SOL    HW133680  12.485   8.224  14.632
77302SOL    HW233681  12.430   8.111  14.718
77303SOL     OW33682   6.390   1.056   3.579
77303SOL    HW133683   6.387   1.151   3.569
77303SOL    HW233684   6.343   1.039   3.661
77304SOL     OW33685  11.242  12.610  10.153
77304SOL    HW133686  11.168  12.667  10.131
77304SOL    HW233687  11.286  12.656  10.225
77305SOL     OW33688   6.535   3.485   4.673
77305SOL    HW133689   6.519   3.394   4.701
77305SOL    HW233690   6.561   3.530   4.753
77306SOL     OW33691   3.494   7.103  12.643
77306SOL    HW133692   3.565   7.068  12.697
77306SOL    HW233693   3.435   7.029  12.629
77307SOL     OW33694   1.249   8.643   5.105
77307SOL    HW133695   1.194   8.655   5.182
77307SOL    HW233696   1.189   8.659   5.031
77308SOL     OW33697   3.275   3.972  11.780
77308SOL    HW133698   3.228   3.891  11.800
77308SOL    HW233699   3.350   3.971  11.839
77309SOL     OW33700   5.331   7.678   9.847
77309SOL    HW133701   5.259   7.680   9.784
77309SOL    HW233702   5.408   7.653   9.796
77310SOL     OW33703   4.164  12.014   7.061
77310SOL    HW133704   4.160  11.958   6.984
77310SOL    HW233705   4.158  12.103   7.027
77311SOL     OW33706  12.124   9.339   6.950
77311SOL    HW133707  12.107   9.325   6.857
77311SOL    HW233708  12.220   9.339   6.956
77312SOL     OW33709  12.031   1.050  10.538
77312SOL    HW133710  12.050   1.064  10.445
77312SOL    HW233711  12.096   0.986  10.566
77313SOL     OW33712   1.689   6.949   7.344
77313SOL    HW133713   1.770   6.907   7.316
77313SOL    HW233714   1.711   6.992   7.427
77314SOL     OW33715  10.761   2.949   8.829
77314SOL    HW133716  10.815   2.937   8.751
77314SOL    HW233717  10.688   3.003   8.800
77315SOL     OW33718  14.254   7.562   4.310
77315SOL    HW133719  14.326   7.576   4.371
77315SOL    HW233720  14.186   7.518   4.362
77316SOL     OW33721   4.958   0.790   1.683
77316SOL    HW133722   4.992   0.715   1.633
77316SOL    HW233723   4.984   0.772   1.774
77317SOL     OW33724   6.550   1.669   0.080
77317SOL    HW133725   6.623   1.646   0.137
77317SOL    HW233726   6.474   1.629   0.120
77318SOL     OW33727   7.831   1.786  14.358
77318SOL    HW133728   7.829   1.701  14.401
77318SOL    HW233729   7.749   1.789  14.308
77319SOL     OW33730  13.015   5.396   6.815
77319SOL    HW133731  13.025   5.329   6.883
77319SOL    HW233732  13.058   5.358   6.738
77320SOL     OW33733   1.220   9.168  10.600
77320SOL    HW133734   1.203   9.074  10.593
77320SOL    HW233735   1.224   9.199  10.510
77321SOL     OW33736  14.114   9.260   0.677
77321SOL    HW133737  14.032   9.292   0.714
77321SOL    HW233738  14.168   9.339   0.668
77322SOL     OW33739  13.033   5.717   0.017
77322SOL    HW133740  12.942   5.747   0.020
77322SOL    HW233741  13.034   5.650  14.826
77323SOL     OW33742   1.122  11.178   2.290
77323SOL    HW133743   1.190  11.244   2.295
77323SOL    HW233744   1.123  11.149   2.199
77324SOL     OW33745   7.632   7.406   9.826
77324SOL    HW133746   7.555   7.459   9.804
77324SOL    HW233747   7.602   7.348   9.896
77325SOL     OW33748   8.516   4.206   0.686
77325SOL    HW133749   8.462   4.279   0.716
77325SOL    HW233750   8.549   4.165   0.767
77326SOL     OW33751   3.460  11.655  12.198
77326SOL    HW133752   3.495  11.581  12.149
77326SOL    HW233753   3.390  11.618  12.252
77327SOL     OW33754   2.232   8.572   4.745
77327SOL    HW133755   2.281   8.525   4.813
77327SOL    HW233756   2.169   8.508   4.713
77328SOL     OW33757   6.478   4.238   4.420
77328SOL    HW133758   6.417   4.169   4.394
77328SOL    HW233759   6.424   4.303   4.466
77329SOL     OW33760  13.622  12.567   4.338
77329SOL    HW133761  13.585  12.646   4.376
77329SOL    HW233762  13.684  12.599   4.272
77330SOL     OW33763   4.227   0.820  13.749
77330SOL    HW133764   4.274   0.835  13.666
77330SOL    HW233765   4.295   0.791  13.809
77331SOL     OW33766  14.495  11.989   8.352
77331SOL    HW133767  14.530  11.904   8.380
77331SOL    HW233768  14.560  12.053   8.382
77332SOL     OW33769  11.574  13.985  10.102
77332SOL    HW133770  11.498  13.970  10.046
77332SOL    HW233771  11.549  14.059  10.157
77333SOL     OW33772   1.685   9.853   3.655
77333SOL    HW133773   1.746   9.779   3.653
77333SOL    HW233774   1.640   9.849   3.571
77334SOL     OW33775   3.072  12.911   2.871
77334SOL    HW133776   3.115  12.882   2.791
77334SOL    HW233777   3.001  12.848   2.885
77335SOL     OW33778   4.551   0.256  12.726
77335SOL    HW133779   4.531   0.345  12.697
77335SOL    HW233780   4.646   0.256  12.738
77336SOL     OW33781  10.714   3.006   9.735
77336SOL    HW133782  10.727   2.933   9.674
77336SOL    HW233783  10.711   3.083   9.679
77337SOL     OW33784  12.921  11.829  12.719
77337SOL    HW133785  12.846  11.807  12.663
77337SOL    HW233786  12.997  11.793  12.673
77338SOL     OW33787   1.541  10.112  11.551
77338SOL    HW133788   1.580  10.186  11.504
77338SOL    HW233789   1.594  10.037  11.524
77339SOL     OW33790   8.003   3.958   7.577
77339SOL    HW133791   8.052   3.878   7.559
77339SOL    HW233792   8.005   3.967   7.672
77340SOL     OW33793   6.950  13.949   4.985
77340SOL    HW133794   6.874  13.905   4.947
77340SOL    HW233795   7.021  13.885   4.977
77341SOL     OW33796   1.771   3.991  13.034
77341SOL    HW133797   1.726   3.911  13.062
77341SOL    HW233798   1.859   3.983  13.070
77342SOL     OW33799   2.540   8.006   7.245
77342SOL    HW133800   2.452   8.044   7.253
77342SOL    HW233801   2.530   7.939   7.177
77343SOL     OW33802   6.520   7.827   5.821
77343SOL    HW133803   6.463   7.790   5.889
77343SOL    HW233804   6.461   7.881   5.768
77344SOL     OW33805  13.439   0.430   0.164
77344SOL    HW133806  13.484   0.423   0.080
77344SOL    HW233807  13.460   0.517   0.196
77345SOL     OW33808   5.158   1.707  11.085
77345SOL    HW133809   5.153   1.646  11.158
77345SOL    HW233810   5.077   1.757  11.090
77346SOL     OW33811  11.325   2.882   4.311
77346SOL    HW133812  11.416   2.865   4.289
77346SOL    HW233813  11.327   2.964   4.360
77347SOL     OW33814   6.155   7.885   0.452
77347SOL    HW133815   6.155   7.830   0.530
77347SOL    HW233816   6.063   7.896   0.430
77348SOL     OW33817   2.712   9.436   7.961
77348SOL    HW133818   2.725   9.358   8.015
77348SOL    HW233819   2.786   9.493   7.983
77349SOL     OW33820  14.086   5.277   4.545
77349SOL    HW133821  14.092   5.188   4.579
77349SOL    HW233822  13.993   5.300   4.553
77350SOL     OW33823   6.328   4.802   4.405
77350SOL    HW133824   6.305   4.715   4.374
77350SOL    HW233825   6.260   4.859   4.369
77351SOL     OW33826   0.582   9.704   6.340
77351SOL    HW133827   0.676   9.721   6.348
77351SOL    HW233828   0.568   9.625   6.394
77352SOL     OW33829   9.153  11.424   5.549
77352SOL    HW133830   9.108  11.391   5.627
77352SOL    HW233831   9.176  11.514   5.571
77353SOL     OW33832   6.077   1.472  14.595
77353SOL    HW133833   6.035   1.553  14.625
77353SOL    HW233834   6.171   1.491  14.602
77354SOL     OW33835   1.535  10.510   2.574
77354SOL    HW133836   1.471  10.449   2.539
77354SOL    HW233837   1.483  10.573   2.624
77355SOL     OW33838  13.699   0.277   2.036
77355SOL    HW133839  13.690   0.354   2.092
77355SOL    HW233840  13.793   0.262   2.030
77356SOL     OW33841   4.663  13.375  11.352
77356SOL    HW133842   4.660  13.319  11.275
77356SOL    HW233843   4.747  13.356  11.393
77357SOL     OW33844   2.383  13.117   3.878
77357SOL    HW133845   2.317  13.155   3.819
77357SOL    HW233846   2.459  13.102   3.822
77358SOL     OW33847  13.548  13.001   3.134
77358SOL    HW133848  13.633  13.043   3.148
77358SOL    HW233849  13.561  12.912   3.166
77359SOL     OW33850   8.939   1.643  13.292
77359SOL    HW133851   9.034   1.647  13.288
77359SOL    HW233852   8.918   1.669  13.382
77360SOL     OW33853   8.364  11.866   6.701
77360SOL    HW133854   8.385  11.844   6.792
77360SOL    HW233855   8.342  11.959   6.703
77361SOL     OW33856   7.673  14.247   1.848
77361SOL    HW133857   7.673  14.316   1.781
77361SOL    HW233858   7.646  14.292   1.928
77362SOL     OW33859   3.911   5.633   6.469
77362SOL    HW133860   3.992   5.625   6.519
77362SOL    HW233861   3.937   5.613   6.379
77363SOL     OW33862   3.398   4.939   4.121
77363SOL    HW133863   3.419   4.876   4.053
77363SOL    HW233864   3.483   4.965   4.157
77364SOL     OW33865   7.645   6.671   4.808
77364SOL    HW133866   7.682   6.751   4.844
77364SOL    HW233867   7.613   6.695   4.721
77365SOL     OW33868   6.910   0.252   1.458
77365SOL    HW133869   6.985   0.203   1.492
77365SOL    HW233870   6.842   0.186   1.444
77366SOL     OW33871   2.746   6.434   2.805
77366SOL    HW133872   2.758   6.383   2.885
77366SOL    HW233873   2.654   6.418   2.780
77367SOL     OW33874  14.461   5.484  14.577
77367SOL    HW133875  14.555   5.467  14.591
77367SOL    HW233876  14.442   5.442  14.493
77368SOL     OW33877  13.757   9.682   9.290
77368SOL    HW133878  13.815   9.638   9.227
77368SOL    HW233879  13.768   9.775   9.272
77369SOL     OW33880  13.091  13.402   5.141
77369SOL    HW133881  13.017  13.460   5.155
77369SOL    HW233882  13.163  13.459   5.116
77370SOL     OW33883   7.932  10.185   9.272
77370SOL    HW133884   7.950  10.211   9.182
77370SOL    HW233885   7.998  10.231   9.324
77371SOL     OW33886   4.623   8.490   9.157
77371SOL    HW133887   4.705   8.459   9.196
77371SOL    HW233888   4.641   8.579   9.129
77372SOL     OW33889   6.518  13.811  13.074
77372SOL    HW133890   6.425  13.799  13.053
77372SOL    HW233891   6.533  13.752  13.149
77373SOL     OW33892   1.580   3.373   8.549
77373SOL    HW133893   1.602   3.281   8.533
77373SOL    HW233894   1.576   3.412   8.462
77374SOL     OW33895   7.398   1.157   4.994
77374SOL    HW133896   7.405   1.241   4.948
77374SOL    HW233897   7.367   1.095   4.927
77375SOL     OW33898   5.200   6.461  14.612
77375SOL    HW133899   5.155   6.376  14.613
77375SOL    HW233900   5.268   6.452  14.678
77376SOL     OW33901   6.376  12.186  14.255
77376SOL    HW133902   6.465  12.181  14.222
77376SOL    HW233903   6.324  12.134  14.194
77377SOL     OW33904   0.405   1.589  11.371
77377SOL    HW133905   0.440   1.507  11.406
77377SOL    HW233906   0.480   1.633  11.332
77378SOL     OW33907   7.883  13.892  10.809
77378SOL    HW133908   7.882  13.812  10.757
77378SOL    HW233909   7.975  13.911  10.824
77379SOL     OW33910   8.684   0.932  14.203
77379SOL    HW133911   8.775   0.949  14.224
77379SOL    HW233912   8.669   0.842  14.231
77380SOL     OW33913  10.481   7.089   3.513
77380SOL    HW133914  10.517   7.126   3.432
77380SOL    HW233915  10.437   7.163   3.555
77381SOL     OW33916   9.606   5.030  11.154
77381SOL    HW133917   9.628   4.940  11.179
77381SOL    HW233918   9.671   5.053  11.088
77382SOL     OW33919   4.956   9.058   8.604
77382SOL    HW133920   4.886   9.123   8.610
77382SOL    HW233921   4.924   8.995   8.540
77383SOL     OW33922  10.508   8.658   5.623
77383SOL    HW133923  10.505   8.622   5.712
77383SOL    HW233924  10.567   8.733   5.629
77384SOL     OW33925   1.916  13.730  11.557
77384SOL    HW133926   1.880  13.728  11.469
77384SOL    HW233927   2.004  13.694  11.548
77385SOL     OW33928  13.617   0.310   5.371
77385SOL    HW133929  13.586   0.220   5.371
77385SOL    HW233930  13.712   0.303   5.363
77386SOL     OW33931   0.049   6.685  12.980
77386SOL    HW133932   0.043   6.775  12.949
77386SOL    HW233933   0.093   6.691  13.065
77387SOL     OW33934   7.458   7.802  13.025
77387SOL    HW133935   7.403   7.877  13.003
77387SOL    HW233936   7.517   7.834  13.093
77388SOL     OW33937   5.352   1.603   4.586
77388SOL    HW133938   5.448   1.607   4.593
77388SOL    HW233939   5.336   1.526   4.530
77389SOL     OW33940   9.066  11.133   3.935
77389SOL    HW133941   9.002  11.189   3.891
77389SOL    HW233942   9.029  11.045   3.930
77390SOL     OW33943   2.159  12.170   3.186
77390SOL    HW133944   2.214  12.157   3.263
77390SOL    HW233945   2.210  12.229   3.131
77391SOL     OW33946  10.343   8.937   9.161
77391SOL    HW133947  10.268   8.884   9.137
77391SOL    HW233948  10.414   8.874   9.174
77392SOL     OW33949   7.479   1.857   2.452
77392SOL    HW133950   7.546   1.791   2.467
77392SOL    HW233951   7.406   1.832   2.509
77393SOL     OW33952   7.176   3.083  13.815
77393SOL    HW133953   7.115   3.036  13.871
77393SOL    HW233954   7.128   3.160  13.786
77394SOL     OW33955   5.966   2.380   3.667
77394SOL    HW133956   5.933   2.293   3.692
77394SOL    HW233957   6.061   2.371   3.669
77395SOL     OW33958   6.708  10.186   3.036
77395SOL    HW133959   6.652  10.198   3.113
77395SOL    HW233960   6.730  10.093   3.037
77396SOL     OW33961   6.112   2.641   4.572
77396SOL    HW133962   6.044   2.653   4.639
77396SOL    HW233963   6.141   2.550   4.584
77397SOL     OW33964  10.161  14.574   2.950
77397SOL    HW133965  10.185  14.550   2.860
77397SOL    HW233966  10.106  14.651   2.939
77398SOL     OW33967  13.046   3.589  14.117
77398SOL    HW133968  13.066   3.609  14.025
77398SOL    HW233969  13.016   3.498  14.115
77399SOL     OW33970  10.011   0.976  12.755
77399SOL    HW133971  10.089   0.954  12.805
77399SOL    HW233972  10.039   0.975  12.663
77400SOL     OW33973   7.507   4.999  14.666
77400SOL    HW133974   7.422   4.984  14.708
77400SOL    HW233975   7.505   4.944  14.588
77401SOL     OW33976  11.640   8.115   5.003
77401SOL    HW133977  11.575   8.142   5.068
77401SOL    HW233978  11.696   8.053   5.051
77402SOL     OW33979  14.448   6.528   3.137
77402SOL    HW133980  14.405   6.540   3.221
77402SOL    HW233981  14.539   6.509   3.160
77403SOL     OW33982   2.297   0.170   8.687
77403SOL    HW133983   2.273   0.085   8.651
77403SOL    HW233984   2.377   0.193   8.641
77404SOL     OW33985  14.845  11.465   9.009
77404SOL    HW133986  14.826  11.482   8.917
77404SOL    HW233987   0.014  11.382   9.009
77405SOL     OW33988  13.638   7.586   4.700
77405SOL    HW133989  13.608   7.603   4.789
77405SOL    HW233990  13.590   7.648   4.646
77406SOL     OW33991  10.094   0.387  10.913
77406SOL    HW133992  10.181   0.421  10.892
77406SOL    HW233993  10.035   0.461  10.899
77407SOL     OW33994   5.340  11.432  11.239
77407SOL    HW133995   5.393  11.373  11.186
77407SOL    HW233996   5.399  11.505  11.259
77408SOL     OW33997   0.156  10.953  13.985
77408SOL    HW133998   0.107  10.972  13.905
77408SOL    HW233999   0.090  10.936  14.051
77409SOL     OW34000   5.006  14.210  12.858
77409SOL    HW134001   5.067  14.137  12.869
77409SOL    HW234002   4.962  14.218  12.943
77410SOL     OW34003   2.216  11.747   6.817
77410SOL    HW134004   2.172  11.798   6.884
77410SOL    HW234005   2.167  11.664   6.814
77411SOL     OW34006  11.501   6.681   9.608
77411SOL    HW134007  11.473   6.630   9.684
77411SOL    HW234008  11.438   6.659   9.540
77412SOL     OW34009   1.606   4.684   6.733
77412SOL    HW134010   1.583   4.627   6.807
77412SOL    HW234011   1.527   4.687   6.680
77413SOL     OW34012   5.324   5.997   3.752
77413SOL    HW134013   5.344   5.904   3.741
77413SOL    HW234014   5.228   6.001   3.756
77414SOL     OW34015  10.313   2.609   9.043
77414SOL    HW134016  10.280   2.675   9.104
77414SOL    HW234017  10.235   2.566   9.008
77415SOL     OW34018  11.763  13.473  11.779
77415SOL    HW134019  11.829  13.423  11.730
77415SOL    HW234020  11.710  13.406  11.822
77416SOL     OW34021   3.201  12.863   1.907
77416SOL    HW134022   3.251  12.835   1.984
77416SOL    HW234023   3.258  12.842   1.833
77417SOL     OW34024  13.179   4.921  13.566
77417SOL    HW134025  13.110   4.955  13.508
77417SOL    HW234026  13.132   4.897  13.646
77418SOL     OW34027  13.266   9.660   7.793
77418SOL    HW134028  13.352   9.627   7.765
77418SOL    HW234029  13.228   9.696   7.713
77419SOL     OW34030   5.326   6.732   1.759
77419SOL    HW134031   5.386   6.659   1.777
77419SOL    HW234032   5.295   6.760   1.845
77420SOL     OW34033   6.687   2.879   7.281
77420SOL    HW134034   6.768   2.924   7.258
77420SOL    HW234035   6.660   2.917   7.364
77421SOL     OW34036   3.666   2.310  11.077
77421SOL    HW134037   3.638   2.280  11.163
77421SOL    HW234038   3.661   2.405  11.082
77422SOL     OW34039   4.696   5.912  14.106
77422SOL    HW134040   4.605   5.914  14.077
77422SOL    HW234041   4.736   5.844  14.051
77423SOL     OW34042   1.466  10.726   3.555
77423SOL    HW134043   1.463  10.632   3.540
77423SOL    HW234044   1.375  10.755   3.545
77424SOL     OW34045  11.045  11.430   1.764
77424SOL    HW134046  11.038  11.362   1.831
77424SOL    HW234047  10.995  11.397   1.690
77425SOL     OW34048   4.536   7.571   3.999
77425SOL    HW134049   4.463   7.630   4.021
77425SOL    HW234050   4.524   7.496   4.058
77426SOL     OW34051  11.954  10.691   7.678
77426SOL    HW134052  11.886  10.729   7.623
77426SOL    HW234053  11.980  10.763   7.736
77427SOL     OW34054   1.318   0.266   4.639
77427SOL    HW134055   1.347   0.356   4.656
77427SOL    HW234056   1.387   0.229   4.584
77428SOL     OW34057   5.576  12.611   7.678
77428SOL    HW134058   5.565  12.686   7.620
77428SOL    HW234059   5.538  12.639   7.761
77429SOL     OW34060   7.423   9.265  12.050
77429SOL    HW134061   7.373   9.186  12.068
77429SOL    HW234062   7.390   9.329  12.113
77430SOL     OW34063   3.506  14.147  10.100
77430SOL    HW134064   3.435  14.097  10.062
77430SOL    HW234065   3.507  14.230  10.052
77431SOL     OW34066  13.568   9.677  11.883
77431SOL    HW134067  13.602   9.764  11.860
77431SOL    HW234068  13.603   9.620  11.815
77432SOL     OW34069   7.232   5.309   6.338
77432SOL    HW134070   7.181   5.229   6.327
77432SOL    HW234071   7.225   5.329   6.432
77433SOL     OW34072   6.965   4.126   0.296
77433SOL    HW134073   6.958   4.198   0.359
77433SOL    HW234074   7.045   4.081   0.321
77434SOL     OW34075  13.805   5.161   4.037
77434SOL    HW134076  13.767   5.129   3.955
77434SOL    HW234077  13.899   5.160   4.023
77435SOL     OW34078   8.681   4.971   2.066
77435SOL    HW134079   8.671   5.057   2.025
77435SOL    HW234080   8.727   4.918   2.001
77436SOL     OW34081  12.424   2.409   1.105
77436SOL    HW134082  12.407   2.369   1.191
77436SOL    HW234083  12.345   2.389   1.055
77437SOL     OW34084   3.305   8.654   8.809
77437SOL    HW134085   3.240   8.626   8.874
77437SOL    HW234086   3.264   8.637   8.725
77438SOL     OW34087   7.922  12.383   1.323
77438SOL    HW134088   7.896  12.395   1.415
77438SOL    HW234089   7.855  12.430   1.274
77439SOL     OW34090  12.809   6.788   8.169
77439SOL    HW134091  12.758   6.859   8.131
77439SOL    HW234092  12.757   6.710   8.154
77440SOL     OW34093   7.236   6.344   1.506
77440SOL    HW134094   7.204   6.295   1.430
77440SOL    HW234095   7.330   6.356   1.489
77441SOL     OW34096   1.566  13.080   0.901
77441SOL    HW134097   1.574  13.176   0.899
77441SOL    HW234098   1.543  13.056   0.811
77442SOL     OW34099   9.254  12.539   7.957
77442SOL    HW134100   9.287  12.626   7.981
77442SOL    HW234101   9.218  12.504   8.038
77443SOL     OW34102   5.759  11.266   9.488
77443SOL    HW134103   5.669  11.246   9.511
77443SOL    HW234104   5.777  11.211   9.412
77444SOL     OW34105  11.691  13.006   9.788
77444SOL    HW134106  11.769  13.061   9.791
77444SOL    HW234107  11.618  13.067   9.803
77445SOL     OW34108   5.859   5.447   4.381
77445SOL    HW134109   5.946   5.472   4.350
77445SOL    HW234110   5.871   5.427   4.473
77446SOL     OW34111   0.884  14.275   9.564
77446SOL    HW134112   0.882  14.206   9.631
77446SOL    HW234113   0.963  14.258   9.514
77447SOL     OW34114   1.943  13.173   0.226
77447SOL    HW134115   1.979  13.206   0.143
77447SOL    HW234116   2.013  13.120   0.263
77448SOL     OW34117   0.714  10.470   0.326
77448SOL    HW134118   0.795  10.451   0.374
77448SOL    HW234119   0.709  10.401   0.260
77449SOL     OW34120   4.101  14.760  11.029
77449SOL    HW134121   4.022  14.781  10.977
77449SOL    HW234122   4.104  14.828  11.096
77450SOL     OW34123   5.513   6.928   0.400
77450SOL    HW134124   5.498   7.020   0.421
77450SOL    HW234125   5.474   6.880   0.473
77451SOL     OW34126  12.030   0.190   2.717
77451SOL    HW134127  11.992   0.110   2.683
77451SOL    HW234128  12.003   0.258   2.656
77452SOL     OW34129   3.084   0.643  14.607
77452SOL    HW134130   3.090   0.738  14.605
77452SOL    HW234131   3.159   0.614  14.556
77453SOL     OW34132   0.763   3.395   0.768
77453SOL    HW134133   0.850   3.434   0.756
77453SOL    HW234134   0.703   3.469   0.758
77454SOL     OW34135   7.468  10.031   4.997
77454SOL    HW134136   7.382  10.049   5.035
77454SOL    HW234137   7.466   9.937   4.976
77455SOL     OW34138   6.003  10.729   3.680
77455SOL    HW134139   5.937  10.798   3.686
77455SOL    HW234140   6.087  10.776   3.679
77456SOL     OW34141   3.297  11.841   4.066
77456SOL    HW134142   3.242  11.832   4.144
77456SOL    HW234143   3.246  11.894   4.006
77457SOL     OW34144  11.603  12.983   6.406
77457SOL    HW134145  11.551  12.907   6.433
77457SOL    HW234146  11.617  12.971   6.312
77458SOL     OW34147   1.049   2.103   5.448
77458SOL    HW134148   1.022   2.138   5.363
77458SOL    HW234149   1.039   2.177   5.509
77459SOL     OW34150   2.249   8.847  11.061
77459SOL    HW134151   2.244   8.754  11.038
77459SOL    HW234152   2.204   8.854  11.145
77460SOL     OW34153  12.006   1.640  11.017
77460SOL    HW134154  12.008   1.550  10.987
77460SOL    HW234155  11.965   1.636  11.103
77461SOL     OW34156   9.171   6.982   2.562
77461SOL    HW134157   9.087   6.988   2.607
77461SOL    HW234158   9.223   6.922   2.616
77462SOL     OW34159  13.830   8.919   2.631
77462SOL    HW134160  13.785   9.002   2.642
77462SOL    HW234161  13.819   8.873   2.714
77463SOL     OW34162   1.047  12.515   4.482
77463SOL    HW134163   0.978  12.452   4.500
77463SOL    HW234164   1.001  12.592   4.449
77464SOL     OW34165   4.954   4.778   1.195
77464SOL    HW134166   4.946   4.867   1.230
77464SOL    HW234167   5.049   4.762   1.193
77465SOL     OW34168   6.680   5.312  10.107
77465SOL    HW134169   6.773   5.335  10.102
77465SOL    HW234170   6.659   5.319  10.200
77466SOL     OW34171  11.134   1.677  11.623
77466SOL    HW134172  11.227   1.659  11.636
77466SOL    HW234173  11.090   1.597  11.652
77467SOL     OW34174   7.339  12.796   2.356
77467SOL    HW134175   7.327  12.871   2.297
77467SOL    HW234176   7.299  12.722   2.310
77468SOL     OW34177   8.042   8.170  14.211
77468SOL    HW134178   8.021   8.223  14.288
77468SOL    HW234179   8.065   8.084  14.246
77469SOL     OW34180  10.479  12.462   5.588
77469SOL    HW134181  10.450  12.403   5.518
77469SOL    HW234182  10.554  12.509   5.551
77470SOL     OW34183   2.068   2.336   3.228
77470SOL    HW134184   2.002   2.349   3.159
77470SOL    HW234185   2.099   2.424   3.248
77471SOL     OW34186   8.778   9.100   2.322
77471SOL    HW134187   8.848   9.158   2.293
77471SOL    HW234188   8.822   9.019   2.347
77472SOL     OW34189   4.029   4.519  11.628
77472SOL    HW134190   4.083   4.462  11.574
77472SOL    HW234191   4.060   4.505  11.717
77473SOL     OW34192   6.476   1.242   3.223
77473SOL    HW134193   6.493   1.202   3.138
77473SOL    HW234194   6.479   1.336   3.205
77474SOL     OW34195   1.383   2.904   7.716
77474SOL    HW134196   1.309   2.930   7.660
77474SOL    HW234197   1.451   2.969   7.696
77475SOL     OW34198  10.425   3.993   6.095
77475SOL    HW134199  10.342   4.018   6.133
77475SOL    HW234200  10.426   3.897   6.099
77476SOL     OW34201   6.988   7.072  13.832
77476SOL    HW134202   7.050   7.032  13.893
77476SOL    HW234203   7.036   7.081  13.750
77477SOL     OW34204  10.510   9.020   7.820
77477SOL    HW134205  10.496   9.009   7.726
77477SOL    HW234206  10.426   9.053   7.853
77478SOL     OW34207  10.428   8.849  13.377
77478SOL    HW134208  10.483   8.779  13.410
77478SOL    HW234209  10.489   8.911  13.336
77479SOL     OW34210  12.292   9.208   9.935
77479SOL    HW134211  12.251   9.282   9.890
77479SOL    HW234212  12.378   9.242   9.963
77480SOL     OW34213  11.473   5.468   1.856
77480SOL    HW134214  11.522   5.536   1.902
77480SOL    HW234215  11.496   5.387   1.902
77481SOL     OW34216  13.748   0.020   7.705
77481SOL    HW134217  13.703   0.083   7.760
77481SOL    HW234218  13.692   0.010   7.628
77482SOL     OW34219   5.216   7.349  13.832
77482SOL    HW134220   5.151   7.378  13.768
77482SOL    HW234221   5.224   7.423  13.893
77483SOL     OW34222   4.261   0.240  11.271
77483SOL    HW134223   4.329   0.173  11.264
77483SOL    HW234224   4.288   0.309  11.210
77484SOL     OW34225   5.223   4.038   4.631
77484SOL    HW134226   5.306   4.085   4.645
77484SOL    HW234227   5.183   4.034   4.718
77485SOL     OW34228  13.018  14.443   3.776
77485SOL    HW134229  13.079  14.457   3.703
77485SOL    HW234230  12.991  14.531   3.802
77486SOL     OW34231  12.163  11.761  11.928
77486SOL    HW134232  12.175  11.797  12.016
77486SOL    HW234233  12.221  11.685  11.925
77487SOL     OW34234   8.111  11.776  14.686
77487SOL    HW134235   8.143  11.865  14.670
77487SOL    HW234236   8.173  11.740  14.750
77488SOL     OW34237  10.988   9.566  12.693
77488SOL    HW134238  11.054   9.578  12.625
77488SOL    HW234239  10.942   9.650  12.697
77489SOL     OW34240   4.737   5.142   6.365
77489SOL    HW134241   4.686   5.223   6.377
77489SOL    HW234242   4.671   5.073   6.357
77490SOL     OW34243   1.029   7.352   2.617
77490SOL    HW134244   1.027   7.343   2.522
77490SOL    HW234245   0.996   7.268   2.650
77491SOL     OW34246   2.904   3.812   4.116
77491SOL    HW134247   2.996   3.837   4.109
77491SOL    HW234248   2.861   3.888   4.155
77492SOL     OW34249   1.888   2.878   3.077
77492SOL    HW134250   1.974   2.918   3.061
77492SOL    HW234251   1.826   2.937   3.034
77493SOL     OW34252  11.062  11.497   8.255
77493SOL    HW134253  11.108  11.413   8.260
77493SOL    HW234254  11.100  11.541   8.179
77494SOL     OW34255  10.175  13.081   1.510
77494SOL    HW134256  10.157  13.157   1.456
77494SOL    HW234257  10.113  13.014   1.481
77495SOL     OW34258  13.132   7.879  13.224
77495SOL    HW134259  13.197   7.821  13.185
77495SOL    HW234260  13.137   7.959  13.172
77496SOL     OW34261   5.351  12.020   7.524
77496SOL    HW134262   5.437  11.986   7.548
77496SOL    HW234263   5.346  12.008   7.429
77497SOL     OW34264  12.280  14.568   6.975
77497SOL    HW134265  12.238  14.556   7.060
77497SOL    HW234266  12.296  14.478   6.944
77498SOL     OW34267  12.807   0.751  12.332
77498SOL    HW134268  12.770   0.718  12.250
77498SOL    HW234269  12.889   0.793  12.307
77499SOL     OW34270   5.227  12.881  10.451
77499SOL    HW134271   5.260  12.791  10.442
77499SOL    HW234272   5.274  12.916  10.526
77500SOL     OW34273   5.542   3.739   9.935
77500SOL    HW134274   5.527   3.645   9.944
77500SOL    HW234275   5.559   3.751   9.841
77501SOL     OW34276  10.618   1.899   4.180
77501SOL    HW134277  10.651   1.816   4.147
77501SOL    HW234278  10.565   1.875   4.256
77502SOL     OW34279  12.992   0.950  12.503
77502SOL    HW134280  13.053   0.880  12.527
77502SOL    HW234281  13.011   0.968  12.411
77503SOL     OW34282  12.637   2.759   0.476
77503SOL    HW134283  12.699   2.832   0.481
77503SOL    HW234284  12.557   2.797   0.440
77504SOL     OW34285  10.237  14.197   8.862
77504SOL    HW134286  10.153  14.151   8.863
77504SOL    HW234287  10.251  14.219   8.770
77505SOL     OW34288  11.270  11.578   3.071
77505SOL    HW134289  11.181  11.594   3.100
77505SOL    HW234290  11.263  11.505   3.010
77506SOL     OW34291  11.304   6.342  13.021
77506SOL    HW134292  11.253   6.271  12.982
77506SOL    HW234293  11.340   6.304  13.101
77507SOL     OW34294   5.061  10.402   7.005
77507SOL    HW134295   5.133  10.361   7.052
77507SOL    HW234296   5.077  10.380   6.913
77508SOL     OW34297  10.376  12.243  13.642
77508SOL    HW134298  10.350  12.190  13.567
77508SOL    HW234299  10.375  12.182  13.716
77509SOL     OW34300   7.288   6.684   0.734
77509SOL    HW134301   7.334   6.609   0.772
77509SOL    HW234302   7.196   6.659   0.737
77510SOL     OW34303  12.849  10.507   1.359
77510SOL    HW134304  12.776  10.569   1.358
77510SOL    HW234305  12.858  10.484   1.452
77511SOL     OW34306   5.431   5.171   9.282
77511SOL    HW134307   5.475   5.089   9.258
77511SOL    HW234308   5.440   5.227   9.205
77512SOL     OW34309   1.539   7.984   2.795
77512SOL    HW134310   1.498   7.962   2.711
77512SOL    HW234311   1.569   7.900   2.830
77513SOL     OW34312  11.800  13.944   2.342
77513SOL    HW134313  11.877  14.001   2.347
77513SOL    HW234314  11.813  13.881   2.413
77514SOL     OW34315  13.299   0.274   5.249
77514SOL    HW134316  13.295   0.332   5.324
77514SOL    HW234317  13.308   0.332   5.173
77515SOL     OW34318   8.789   0.776   5.661
77515SOL    HW134319   8.883   0.793   5.661
77515SOL    HW234320   8.751   0.853   5.704
77516SOL     OW34321  12.940   3.797  10.880
77516SOL    HW134322  12.952   3.882  10.838
77516SOL    HW234323  12.863   3.808  10.936
77517SOL     OW34324  11.454   9.664  11.615
77517SOL    HW134325  11.420   9.720  11.685
77517SOL    HW234326  11.383   9.659  11.551
77518SOL     OW34327  13.533   9.497   4.432
77518SOL    HW134328  13.620   9.461   4.450
77518SOL    HW234329  13.548   9.590   4.418
77519SOL     OW34330   3.115   5.533   6.675
77519SOL    HW134331   3.105   5.618   6.716
77519SOL    HW234332   3.189   5.543   6.616
77520SOL     OW34333   4.937   0.137  12.230
77520SOL    HW134334   4.987   0.208  12.271
77520SOL    HW234335   4.995   0.104  12.162
77521SOL     OW34336   5.674   9.989   9.412
77521SOL    HW134337   5.719   9.932   9.474
77521SOL    HW234338   5.601  10.026   9.462
77522SOL     OW34339   5.246  13.416  14.494
77522SOL    HW134340   5.212  13.501  14.465
77522SOL    HW234341   5.204  13.401  14.578
77523SOL     OW34342  14.165  11.395   6.509
77523SOL    HW134343  14.122  11.446   6.579
77523SOL    HW234344  14.199  11.318   6.554
77524SOL     OW34345  14.792   0.012  14.134
77524SOL    HW134346   0.006   0.028  14.157
77524SOL    HW234347  14.752   0.099  14.130
77525SOL     OW34348   8.722   2.519   6.481
77525SOL    HW134349   8.803   2.492   6.438
77525SOL    HW234350   8.704   2.606   6.447
77526SOL     OW34351   6.411   8.577   3.804
77526SOL    HW134352   6.411   8.560   3.710
77526SOL    HW234353   6.472   8.650   3.816
77527SOL     OW34354   5.468  12.733   1.384
77527SOL    HW134355   5.449  12.821   1.350
77527SOL    HW234356   5.448  12.738   1.477
77528SOL     OW34357   8.944  13.107  13.752
77528SOL    HW134358   8.992  13.080  13.830
77528SOL    HW234359   8.855  13.076  13.766
77529SOL     OW34360   6.469  10.927  11.234
77529SOL    HW134361   6.387  10.973  11.215
77529SOL    HW234362   6.526  10.949  11.160
77530SOL     OW34363   8.067  11.418   8.002
77530SOL    HW134364   8.138  11.369   8.044
77530SOL    HW234365   7.993  11.408   8.062
77531SOL     OW34366  12.209   9.630   1.072
77531SOL    HW134367  12.131   9.586   1.104
77531SOL    HW234368  12.269   9.631   1.147
77532SOL     OW34369  11.801   4.096   9.714
77532SOL    HW134370  11.762   4.181   9.732
77532SOL    HW234371  11.850   4.074   9.794
77533SOL     OW34372  14.300   8.147   3.473
77533SOL    HW134373  14.320   8.187   3.388
77533SOL    HW234374  14.370   8.083   3.486
77534SOL     OW34375   8.981  14.116  11.605
77534SOL    HW134376   8.905  14.131  11.660
77534SOL    HW234377   9.054  14.110  11.666
77535SOL     OW34378   7.627  11.644  11.965
77535SOL    HW134379   7.687  11.716  11.985
77535SOL    HW234380   7.543  11.673  12.001
77536SOL     OW34381   5.399   6.700  10.600
77536SOL    HW134382   5.408   6.656  10.516
77536SOL    HW234383   5.487   6.696  10.638
77537SOL     OW34384   6.346  10.476  12.160
77537SOL    HW134385   6.274  10.539  12.151
77537SOL    HW234386   6.425  10.527  12.140
77538SOL     OW34387   2.572   1.718   2.324
77538SOL    HW134388   2.479   1.734   2.315
77538SOL    HW234389   2.614   1.792   2.280
77539SOL     OW34390   0.620   0.734  10.643
77539SOL    HW134391   0.696   0.792  10.648
77539SOL    HW234392   0.570   0.753  10.723
77540SOL     OW34393   9.057   0.125  10.773
77540SOL    HW134394   9.042   0.188  10.702
77540SOL    HW234395   9.137   0.155  10.815
77541SOL     OW34396   2.030   6.788   2.563
77541SOL    HW134397   2.057   6.816   2.475
77541SOL    HW234398   1.990   6.866   2.601
77542SOL     OW34399   5.415   9.116   1.013
77542SOL    HW134400   5.354   9.102   1.085
77542SOL    HW234401   5.377   9.067   0.940
77543SOL     OW34402   1.424   9.062   3.346
77543SOL    HW134403   1.508   9.088   3.307
77543SOL    HW234404   1.424   9.104   3.432
77544SOL     OW34405   1.001  12.659  12.673
77544SOL    HW134406   0.911  12.665  12.639
77544SOL    HW234407   1.000  12.712  12.752
77545SOL     OW34408   0.144  13.392   9.126
77545SOL    HW134409   0.109  13.442   9.052
77545SOL    HW234410   0.070  13.339   9.156
77546SOL     OW34411   9.429   6.859   9.771
77546SOL    HW134412   9.494   6.921   9.739
77546SOL    HW234413   9.428   6.789   9.706
77547SOL     OW34414   7.275   3.567  11.848
77547SOL    HW134415   7.245   3.484  11.811
77547SOL    HW234416   7.212   3.585  11.918
77548SOL     OW34417   8.481   9.398   3.444
77548SOL    HW134418   8.568   9.358   3.442
77548SOL    HW234419   8.421   9.324   3.442
77549SOL     OW34420   5.827   5.490   6.381
77549SOL    HW134421   5.824   5.399   6.350
77549SOL    HW234422   5.735   5.518   6.382
77550SOL     OW34423   9.420   7.234   4.657
77550SOL    HW134424   9.497   7.282   4.629
77550SOL    HW234425   9.440   7.142   4.636
77551SOL     OW34426   7.668   3.274  11.141
77551SOL    HW134427   7.684   3.193  11.190
77551SOL    HW234428   7.674   3.247  11.049
77552SOL     OW34429   1.624   8.132   3.980
77552SOL    HW134430   1.708   8.153   4.022
77552SOL    HW234431   1.576   8.214   3.979
77553SOL     OW34432   0.234  10.532   1.539
77553SOL    HW134433   0.314  10.484   1.562
77553SOL    HW234434   0.187  10.473   1.480
77554SOL     OW34435   5.811   2.553   3.518
77554SOL    HW134436   5.876   2.514   3.577
77554SOL    HW234437   5.782   2.480   3.463
77555SOL     OW34438   7.935   3.822   7.143
77555SOL    HW134439   7.918   3.776   7.224
77555SOL    HW234440   7.914   3.759   7.074
77556SOL     OW34441   2.551   7.084   4.554
77556SOL    HW134442   2.549   7.057   4.462
77556SOL    HW234443   2.481   7.149   4.561
77557SOL     OW34444   2.461   0.486   9.160
77557SOL    HW134445   2.412   0.404   9.157
77557SOL    HW234446   2.542   0.464   9.205
77558SOL     OW34447   5.996   3.647   0.539
77558SOL    HW134448   6.023   3.556   0.527
77558SOL    HW234449   6.023   3.691   0.458
77559SOL     OW34450  12.021   6.901   4.694
77559SOL    HW134451  12.088   6.961   4.661
77559SOL    HW234452  12.043   6.889   4.787
77560SOL     OW34453   4.227   8.499   4.613
77560SOL    HW134454   4.270   8.571   4.568
77560SOL    HW234455   4.285   8.479   4.687
77561SOL     OW34456   7.841  13.504   3.039
77561SOL    HW134457   7.820  13.511   2.946
77561SOL    HW234458   7.774  13.557   3.083
77562SOL     OW34459   3.380  12.136   3.659
77562SOL    HW134460   3.366  12.042   3.649
77562SOL    HW234461   3.357  12.173   3.573
77563SOL     OW34462   5.575  11.495   0.950
77563SOL    HW134463   5.589  11.446   0.869
77563SOL    HW234464   5.484  11.523   0.946
77564SOL     OW34465   7.828  11.788  13.232
77564SOL    HW134466   7.773  11.795  13.154
77564SOL    HW234467   7.807  11.867  13.282
77565SOL     OW34468   0.420  13.575   6.767
77565SOL    HW134469   0.477  13.498   6.759
77565SOL    HW234470   0.408  13.586   6.861
77566SOL     OW34471   1.861   0.241   1.955
77566SOL    HW134472   1.875   0.228   2.049
77566SOL    HW234473   1.781   0.192   1.935
77567SOL     OW34474   5.534   6.594   0.524
77567SOL    HW134475   5.570   6.548   0.600
77567SOL    HW234476   5.504   6.679   0.558
77568SOL     OW34477  13.860   8.867  13.106
77568SOL    HW134478  13.950   8.889  13.131
77568SOL    HW234479  13.868   8.812  13.028
77569SOL     OW34480   6.336  14.874   5.726
77569SOL    HW134481   6.287   0.078   5.740
77569SOL    HW234482   6.315  14.849   5.636
77570SOL     OW34483  13.306   2.592  10.513
77570SOL    HW134484  13.337   2.675  10.548
77570SOL    HW234485  13.254   2.617  10.437
77571SOL     OW34486  11.622   6.298   8.642
77571SOL    HW134487  11.624   6.202   8.635
77571SOL    HW234488  11.702   6.320   8.688
77572SOL     OW34489  14.758   4.346   2.176
77572SOL    HW134490  14.670   4.379   2.193
77572SOL    HW234491  14.756   4.321   2.083
77573SOL     OW34492  11.843   6.256  13.278
77573SOL    HW134493  11.810   6.166  13.282
77573SOL    HW234494  11.826   6.283  13.187
77574SOL     OW34495  13.724   5.667   1.700
77574SOL    HW134496  13.640   5.690   1.659
77574SOL    HW234497  13.780   5.643   1.627
77575SOL     OW34498  10.001  14.319  13.265
77575SOL    HW134499   9.977  14.391  13.207
77575SOL    HW234500   9.938  14.249  13.244
77576SOL     OW34501  13.862   9.374   5.025
77576SOL    HW134502  13.904   9.404   4.944
77576SOL    HW234503  13.769   9.379   5.007
77577SOL     OW34504   3.430   5.181   6.800
77577SOL    HW134505   3.472   5.107   6.844
77577SOL    HW234506   3.428   5.156   6.708
77578SOL     OW34507  10.789   4.710  14.301
77578SOL    HW134508  10.801   4.669  14.387
77578SOL    HW234509  10.877   4.732  14.272
77579SOL     OW34510   3.304   9.187   3.507
77579SOL    HW134511   3.250   9.244   3.562
77579SOL    HW234512   3.295   9.224   3.419
77580SOL     OW34513  11.092   6.833   5.162
77580SOL    HW134514  11.187   6.836   5.161
77580SOL    HW234515  11.070   6.740   5.157
77581SOL     OW34516   7.024   9.883   7.361
77581SOL    HW134517   6.947   9.863   7.414
77581SOL    HW234518   6.995   9.950   7.300
77582SOL     OW34519   9.652  11.993   0.202
77582SOL    HW134520   9.668  11.902   0.226
77582SOL    HW234521   9.558  11.999   0.189
77583SOL     OW34522  12.236   2.099  14.289
77583SOL    HW134523  12.288   2.077  14.366
77583SOL    HW234524  12.162   2.038  14.292
77584SOL     OW34525   3.184   6.429  12.286
77584SOL    HW134526   3.124   6.490  12.328
77584SOL    HW234527   3.158   6.428  12.194
77585SOL     OW34528  10.091  11.324   0.270
77585SOL    HW134529  10.174  11.276   0.266
77585SOL    HW234530  10.045  11.299   0.189
77586SOL     OW34531   4.598   7.375   5.352
77586SOL    HW134532   4.630   7.432   5.421
77586SOL    HW234533   4.617   7.286   5.384
77587SOL     OW34534   5.597  11.138   2.103
77587SOL    HW134535   5.657  11.197   2.057
77587SOL    HW234536   5.621  11.051   2.074
77588SOL     OW34537   5.780  10.961   2.437
77588SOL    HW134538   5.721  10.890   2.464
77588SOL    HW234539   5.853  10.955   2.499
77589SOL     OW34540   0.522   8.882   5.692
77589SOL    HW134541   0.482   8.937   5.625
77589SOL    HW234542   0.600   8.930   5.719
77590SOL     OW34543   7.828   3.729  10.575
77590SOL    HW134544   7.864   3.641  10.576
77590SOL    HW234545   7.865   3.769  10.496
77591SOL     OW34546   7.723   9.639   7.039
77591SOL    HW134547   7.681   9.712   7.085
77591SOL    HW234548   7.684   9.641   6.951
77592SOL     OW34549   3.585  11.431   7.384
77592SOL    HW134550   3.603  11.515   7.342
77592SOL    HW234551   3.620  11.441   7.473
77593SOL     OW34552   2.391  13.075   7.682
77593SOL    HW134553   2.425  13.155   7.722
77593SOL    HW234554   2.445  13.005   7.719
77594SOL     OW34555  13.065   3.014   9.506
77594SOL    HW134556  13.085   3.005   9.599
77594SOL    HW234557  13.128   2.956   9.462
77595SOL     OW34558  13.966   9.014   1.508
77595SOL    HW134559  14.019   9.092   1.488
77595SOL    HW234560  13.889   9.048   1.552
77596SOL     OW34561   7.452   0.603   6.607
77596SOL    HW134562   7.387   0.627   6.673
77596SOL    HW234563   7.491   0.522   6.639
77597SOL     OW34564  13.212   2.449  10.737
77597SOL    HW134565  13.118   2.456  10.718
77597SOL    HW234566  13.255   2.474  10.655
77598SOL     OW34567   9.952  14.760   2.339
77598SOL    HW134568  10.043  14.758   2.369
77598SOL    HW234569   9.913  14.681   2.376
77599SOL     OW34570  13.631   8.024   8.194
77599SOL    HW134571  13.669   8.086   8.132
77599SOL    HW234572  13.577   7.966   8.140
77600SOL     OW34573   7.013   4.654  14.598
77600SOL    HW134574   7.053   4.636  14.513
77600SOL    HW234575   6.940   4.592  14.604
77601SOL     OW34576  12.221   1.947  11.266
77601SOL    HW134577  12.258   1.915  11.348
77601SOL    HW234578  12.126   1.934  11.276
77602SOL     OW34579   9.908   7.868  12.649
77602SOL    HW134580   9.892   7.865  12.744
77602SOL    HW234581   9.836   7.921  12.615
77603SOL     OW34582   0.965  13.459   1.429
77603SOL    HW134583   0.943  13.548   1.402
77603SOL    HW234584   0.885  13.409   1.416
77604SOL     OW34585   4.591   0.988   4.687
77604SOL    HW134586   4.526   0.995   4.617
77604SOL    HW234587   4.644   1.067   4.679
77605SOL     OW34588   4.906   8.438   9.181
77605SOL    HW134589   4.962   8.515   9.187
77605SOL    HW234590   4.956   8.374   9.130
77606SOL     OW34591   2.251  12.850  11.705
77606SOL    HW134592   2.282  12.897  11.783
77606SOL    HW234593   2.303  12.886  11.633
77607SOL     OW34594   7.862  14.679   3.007
77607SOL    HW134595   7.894  14.660   3.095
77607SOL    HW234596   7.790  14.741   3.021
77608SOL     OW34597   9.645  14.843   1.925
77608SOL    HW134598   9.632  14.848   1.830
77608SOL    HW234599   9.725   0.017   1.940
77609SOL     OW34600   1.212  11.613   3.820
77609SOL    HW134601   1.281  11.635   3.757
77609SOL    HW234602   1.199  11.694   3.870
77610SOL     OW34603   5.810  10.810  14.761
77610SOL    HW134604   5.898  10.832  14.790
77610SOL    HW234605   5.782  10.887  14.710
77611SOL     OW34606   2.607  12.093   7.284
77611SOL    HW134607   2.644  12.076   7.198
77611SOL    HW234608   2.674  12.062   7.346
77612SOL     OW34609   0.146  10.840  11.981
77612SOL    HW134610   0.227  10.811  12.023
77612SOL    HW234611   0.174  10.905  11.917
77613SOL     OW34612  11.409   5.969  11.564
77613SOL    HW134613  11.425   5.879  11.538
77613SOL    HW234614  11.357   5.962  11.644
77614SOL     OW34615  14.305   8.387   0.036
77614SOL    HW134616  14.319   8.376  14.819
77614SOL    HW234617  14.393   8.386   0.073
77615SOL     OW34618  13.059   8.579   1.215
77615SOL    HW134619  13.024   8.559   1.128
77615SOL    HW234620  13.060   8.494   1.261
77616SOL     OW34621   1.351  13.925   9.179
77616SOL    HW134622   1.328  14.003   9.230
77616SOL    HW234623   1.273  13.905   9.129
77617SOL     OW34624   3.376   6.328  10.441
77617SOL    HW134625   3.283   6.315  10.459
77617SOL    HW234626   3.413   6.240  10.442
77618SOL     OW34627   3.156   4.215  11.740
77618SOL    HW134628   3.184   4.125  11.753
77618SOL    HW234629   3.148   4.251  11.828
77619SOL     OW34630  14.803  12.478   2.939
77619SOL    HW134631  14.712  12.484   2.908
77619SOL    HW234632  14.794  12.466   3.034
77620SOL     OW34633   4.597   7.383  11.691
77620SOL    HW134634   4.616   7.359  11.600
77620SOL    HW234635   4.501   7.376  11.698
77621SOL     OW34636   6.981   0.758  13.075
77621SOL    HW134637   7.033   0.681  13.054
77621SOL    HW234638   6.990   0.814  12.998
77622SOL     OW34639   4.685  14.660   6.131
77622SOL    HW134640   4.661  14.574   6.165
77622SOL    HW234641   4.775  14.649   6.100
77623SOL     OW34642   4.111   4.840  14.823
77623SOL    HW134643   4.204   4.837  14.801
77623SOL    HW234644   4.066   4.829  14.739
77624SOL     OW34645  13.280   3.673   4.458
77624SOL    HW134646  13.196   3.669   4.503
77624SOL    HW234647  13.258   3.663   4.365
77625SOL     OW34648   6.346   1.111   6.103
77625SOL    HW134649   6.429   1.068   6.126
77625SOL    HW234650   6.280   1.066   6.156
77626SOL     OW34651   7.728   8.678   1.936
77626SOL    HW134652   7.634   8.693   1.925
77626SOL    HW234653   7.753   8.736   2.007
77627SOL     OW34654  10.507  13.346   5.094
77627SOL    HW134655  10.436  13.292   5.058
77627SOL    HW234656  10.533  13.403   5.022
77628SOL     OW34657   6.858   5.445   6.607
77628SOL    HW134658   6.942   5.407   6.633
77628SOL    HW234659   6.882   5.526   6.561
77629SOL     OW34660  10.678   8.795   9.368
77629SOL    HW134661  10.615   8.779   9.298
77629SOL    HW234662  10.697   8.709   9.404
77630SOL     OW34663  12.335  10.061   4.513
77630SOL    HW134664  12.322  10.055   4.608
77630SOL    HW234665  12.385  10.142   4.501
77631SOL     OW34666   1.244   8.423  11.217
77631SOL    HW134667   1.311   8.419  11.285
77631SOL    HW234668   1.169   8.465  11.259
77632SOL     OW34669   4.552   1.492   4.611
77632SOL    HW134670   4.497   1.570   4.615
77632SOL    HW234671   4.580   1.478   4.702
77633SOL     OW34672  10.050   3.660   3.109
77633SOL    HW134673  10.100   3.643   3.029
77633SOL    HW234674  10.093   3.735   3.149
77634SOL     OW34675  14.791   2.008   4.942
77634SOL    HW134676  14.871   1.979   4.986
77634SOL    HW234677  14.822   2.047   4.860
77635SOL     OW34678   5.140   8.033   9.250
77635SOL    HW134679   5.066   7.979   9.224
77635SOL    HW234680   5.178   8.063   9.167
77636SOL     OW34681   8.373   4.996   6.377
77636SOL    HW134682   8.466   5.001   6.397
77636SOL    HW234683   8.361   5.053   6.300
77637SOL     OW34684   3.777  13.293  13.853
77637SOL    HW134685   3.853  13.300  13.795
77637SOL    HW234686   3.814  13.304  13.941
77638SOL     OW34687   5.388  14.122   5.116
77638SOL    HW134688   5.400  14.061   5.189
77638SOL    HW234689   5.411  14.208   5.153
77639SOL     OW34690  12.614   0.019   9.106
77639SOL    HW134691  12.559  14.838   9.054
77639SOL    HW234692  12.663   0.070   9.042
77640SOL     OW34693   6.092  14.217   3.347
77640SOL    HW134694   6.113  14.133   3.306
77640SOL    HW234695   6.177  14.259   3.358
77641SOL     OW34696   4.241   3.041   3.749
77641SOL    HW134697   4.264   3.033   3.841
77641SOL    HW234698   4.326   3.041   3.703
77642SOL     OW34699  10.185   4.794   9.255
77642SOL    HW134700  10.263   4.814   9.307
77642SOL    HW234701  10.120   4.858   9.285
77643SOL     OW34702  12.299   9.137  11.733
77643SOL    HW134703  12.294   9.184  11.650
77643SOL    HW234704  12.303   9.206  11.799
77644SOL     OW34705   0.611   5.211   1.839
77644SOL    HW134706   0.533   5.243   1.794
77644SOL    HW234707   0.586   5.125   1.873
77645SOL     OW34708  13.285  13.195  14.812
77645SOL    HW134709  13.192  13.197  14.793
77645SOL    HW234710  13.322  13.267  14.761
77646SOL     OW34711   7.151  14.736  14.794
77646SOL    HW134712   7.161  14.829  14.773
77646SOL    HW234713   7.228  14.715  14.848
77647SOL     OW34714  14.246   8.084   4.825
77647SOL    HW134715  14.331   8.128   4.831
77647SOL    HW234716  14.244   8.049   4.736
77648SOL     OW34717  13.255   5.176  13.817
77648SOL    HW134718  13.285   5.098  13.864
77648SOL    HW234719  13.160   5.174  13.825
77649SOL     OW34720   5.215  11.603  11.016
77649SOL    HW134721   5.154  11.532  10.996
77649SOL    HW234722   5.294  11.559  11.048
77650SOL     OW34723   3.054   0.241   4.588
77650SOL    HW134724   3.099   0.160   4.563
77650SOL    HW234725   3.103   0.273   4.664
77651SOL     OW34726   0.716   4.421  14.594
77651SOL    HW134727   0.792   4.465  14.631
77651SOL    HW234728   0.748   4.333  14.571
77652SOL     OW34729  13.744   1.224  14.239
77652SOL    HW134730  13.705   1.249  14.155
77652SOL    HW234731  13.835   1.254  14.233
77653SOL     OW34732   4.039   0.765   9.256
77653SOL    HW134733   3.963   0.818   9.230
77653SOL    HW234734   4.073   0.809   9.333
77654SOL     OW34735   3.208   9.540  12.791
77654SOL    HW134736   3.207   9.589  12.708
77654SOL    HW234737   3.116   9.535  12.816
77655SOL     OW34738   7.082   1.068   1.776
77655SOL    HW134739   7.025   1.084   1.851
77655SOL    HW234740   7.106   0.975   1.784
77656SOL     OW34741   6.632  11.918   4.189
77656SOL    HW134742   6.699  11.872   4.138
77656SOL    HW234743   6.556  11.922   4.131
77657SOL     OW34744   4.168   8.841   3.444
77657SOL    HW134745   4.246   8.843   3.500
77657SOL    HW234746   4.157   8.932   3.417
77658SOL     OW34747  12.911  11.199   4.700
77658SOL    HW134748  12.941  11.128   4.757
77658SOL    HW234749  12.985  11.216   4.643
77659SOL     OW34750   8.807   8.216  12.576
77659SOL    HW134751   8.833   8.192  12.665
77659SOL    HW234752   8.711   8.216  12.579
77660SOL     OW34753   2.824  10.433   7.024
77660SOL    HW134754   2.764  10.491   6.978
77660SOL    HW234755   2.769  10.362   7.057
77661SOL     OW34756  13.448   3.044  13.861
77661SOL    HW134757  13.415   3.128  13.831
77661SOL    HW234758  13.395   3.022  13.937
77662SOL     OW34759   1.117   0.561  12.847
77662SOL    HW134760   1.041   0.619  12.852
77662SOL    HW234761   1.111   0.519  12.761
77663SOL     OW34762  11.112   6.049   8.983
77663SOL    HW134763  11.032   6.098   8.962
77663SOL    HW234764  11.179   6.117   8.993
77664SOL     OW34765  10.224   7.279   3.170
77664SOL    HW134766  10.261   7.195   3.197
77664SOL    HW234767  10.164   7.302   3.241
77665SOL     OW34768  12.348  10.112   7.455
77665SOL    HW134769  12.395  10.068   7.526
77665SOL    HW234770  12.417  10.148   7.399
77666SOL     OW34771   9.419   9.944  14.275
77666SOL    HW134772   9.466   9.897  14.205
77666SOL    HW234773   9.349   9.990  14.229
77667SOL     OW34774   6.684   1.427   6.678
77667SOL    HW134775   6.666   1.448   6.587
77667SOL    HW234776   6.615   1.472   6.727
77668SOL     OW34777   2.781   5.463   2.457
77668SOL    HW134778   2.756   5.524   2.387
77668SOL    HW234779   2.863   5.424   2.426
77669SOL     OW34780  14.046   5.685   7.134
77669SOL    HW134781  14.021   5.717   7.047
77669SOL    HW234782  14.047   5.763   7.189
77670SOL     OW34783  14.381   0.514   1.272
77670SOL    HW134784  14.430   0.503   1.354
77670SOL    HW234785  14.325   0.436   1.267
77671SOL     OW34786   3.591  10.941  10.352
77671SOL    HW134787   3.533  11.015  10.331
77671SOL    HW234788   3.636  10.921  10.270
77672SOL     OW34789   1.310  12.011   5.450
77672SOL    HW134790   1.403  12.034   5.451
77672SOL    HW234791   1.308  11.916   5.439
77673SOL     OW34792   2.443  12.746  13.136
77673SOL    HW134793   2.374  12.686  13.163
77673SOL    HW234794   2.430  12.757  13.042
77674SOL     OW34795  10.322   7.547   6.212
77674SOL    HW134796  10.301   7.457   6.239
77674SOL    HW234797  10.417   7.547   6.204
77675SOL     OW34798   5.931  12.458  12.345
77675SOL    HW134799   5.930  12.370  12.382
77675SOL    HW234800   6.013  12.497  12.377
77676SOL     OW34801  11.211  14.625   8.507
77676SOL    HW134802  11.192  14.717   8.489
77676SOL    HW234803  11.253  14.593   8.427
77677SOL     OW34804   8.277   9.321  13.141
77677SOL    HW134805   8.183   9.337  13.147
77677SOL    HW234806   8.292   9.303  13.048
77678SOL     OW34807   4.418   4.018   5.696
77678SOL    HW134808   4.329   3.985   5.690
77678SOL    HW234809   4.443   4.036   5.605
77679SOL     OW34810   5.444   4.155   3.750
77679SOL    HW134811   5.530   4.159   3.792
77679SOL    HW234812   5.382   4.174   3.821
77680SOL     OW34813   3.394   4.086   8.181
77680SOL    HW134814   3.488   4.074   8.188
77680SOL    HW234815   3.372   4.059   8.092
77681SOL     OW34816   6.613   5.015   7.770
77681SOL    HW134817   6.703   4.994   7.792
77681SOL    HW234818   6.562   4.981   7.844
77682SOL     OW34819  12.798   0.568   2.762
77682SOL    HW134820  12.730   0.509   2.796
77682SOL    HW234821  12.877   0.542   2.810
77683SOL     OW34822  12.728   6.755   5.330
77683SOL    HW134823  12.739   6.768   5.424
77683SOL    HW234824  12.813   6.781   5.293
77684SOL     OW34825   9.570  10.743  10.120
77684SOL    HW134826   9.628  10.816  10.142
77684SOL    HW234827   9.488  10.785  10.093
77685SOL     OW34828   5.995  12.151  12.182
77685SOL    HW134829   5.982  12.188  12.270
77685SOL    HW234830   6.051  12.074  12.196
77686SOL     OW34831  14.328   5.895   7.456
77686SOL    HW134832  14.255   5.887   7.395
77686SOL    HW234833  14.307   5.972   7.509
77687SOL     OW34834  14.692   4.309  14.014
77687SOL    HW134835  14.685   4.228  14.064
77687SOL    HW234836  14.611   4.356  14.032
77688SOL     OW34837  13.309  13.542  11.195
77688SOL    HW134838  13.387  13.485  11.194
77688SOL    HW234839  13.291  13.555  11.288
77689SOL     OW34840  14.508   2.770  12.020
77689SOL    HW134841  14.528   2.697  11.961
77689SOL    HW234842  14.416   2.789  12.005
77690SOL     OW34843   0.712   8.044   9.635
77690SOL    HW134844   0.653   8.108   9.676
77690SOL    HW234845   0.794   8.092   9.625
77691SOL     OW34846   4.336   1.436   5.246
77691SOL    HW134847   4.364   1.502   5.182
77691SOL    HW234848   4.417   1.403   5.284
77692SOL     OW34849  12.467   4.879   3.828
77692SOL    HW134850  12.387   4.878   3.776
77692SOL    HW234851  12.531   4.923   3.772
77693SOL     OW34852  12.040   4.517   8.688
77693SOL    HW134853  12.086   4.519   8.604
77693SOL    HW234854  12.008   4.606   8.699
77694SOL     OW34855   3.058  14.215  10.377
77694SOL    HW134856   3.042  14.135  10.428
77694SOL    HW234857   3.098  14.184  10.296
77695SOL     OW34858  10.510   3.834  10.153
77695SOL    HW134859  10.478   3.749  10.121
77695SOL    HW234860  10.554   3.873  10.078
77696SOL     OW34861  11.140  13.091   4.139
77696SOL    HW134862  11.094  13.169   4.171
77696SOL    HW234863  11.076  13.020   4.150
77697SOL     OW34864   2.719   4.250  13.804
77697SOL    HW134865   2.633   4.254  13.764
77697SOL    HW234866   2.766   4.326  13.770
77698SOL     OW34867   6.361   6.652  11.375
77698SOL    HW134868   6.327   6.728  11.421
77698SOL    HW234869   6.419   6.688  11.308
77699SOL     OW34870   6.729  13.498  12.611
77699SOL    HW134871   6.786  13.422  12.596
77699SOL    HW234872   6.773  13.570  12.566
77700SOL     OW34873   9.896   1.804   6.200
77700SOL    HW134874   9.841   1.734   6.237
77700SOL    HW234875   9.964   1.758   6.151
77701SOL     OW34876   7.759   3.684  11.633
77701SOL    HW134877   7.746   3.777  11.615
77701SOL    HW234878   7.678   3.655  11.674
77702SOL     OW34879  12.529  10.127  10.096
77702SOL    HW134880  12.564  10.058  10.152
77702SOL    HW234881  12.464  10.172  10.151
77703SOL     OW34882   4.040   2.075  10.114
77703SOL    HW134883   3.986   2.020  10.171
77703SOL    HW234884   4.127   2.072  10.154
77704SOL     OW34885   9.447   7.621   4.204
77704SOL    HW134886   9.359   7.621   4.165
77704SOL    HW234887   9.451   7.705   4.251
77705SOL     OW34888   7.197  14.172   8.598
77705SOL    HW134889   7.282  14.128   8.605
77705SOL    HW234890   7.138  14.105   8.563
77706SOL     OW34891   5.538   5.864  13.951
77706SOL    HW134892   5.616   5.847  13.898
77706SOL    HW234893   5.565   5.933  14.011
77707SOL     OW34894  12.950   5.772   1.264
77707SOL    HW134895  13.032   5.760   1.312
77707SOL    HW234896  12.918   5.857   1.293
77708SOL     OW34897  11.497   5.899  13.961
77708SOL    HW134898  11.562   5.846  14.008
77708SOL    HW234899  11.500   5.867  13.871
77709SOL     OW34900   5.444   2.885   8.500
77709SOL    HW134901   5.487   2.969   8.482
77709SOL    HW234902   5.403   2.861   8.416
77710SOL     OW34903  11.678  13.945  10.972
77710SOL    HW134904  11.595  13.934  11.018
77710SOL    HW234905  11.712  14.029  11.004
77711SOL     OW34906  10.326   6.033  12.054
77711SOL    HW134907  10.234   6.055  12.067
77711SOL    HW234908  10.366   6.042  12.141
77712SOL     OW34909   5.801   9.687   8.094
77712SOL    HW134910   5.824   9.687   8.002
77712SOL    HW234911   5.768   9.775   8.112
77713SOL     OW34912   3.045   2.708   5.635
77713SOL    HW134913   3.030   2.644   5.565
77713SOL    HW234914   2.996   2.786   5.607
77714SOL     OW34915  14.273   8.724  13.612
77714SOL    HW134916  14.299   8.632  13.617
77714SOL    HW234917  14.355   8.773  13.623
77715SOL     OW34918   1.830   7.415   5.812
77715SOL    HW134919   1.810   7.362   5.889
77715SOL    HW234920   1.794   7.502   5.833
77716SOL     OW34921  11.039  12.087   4.164
77716SOL    HW134922  11.038  12.113   4.256
77716SOL    HW234923  11.103  12.145   4.124
77717SOL     OW34924   6.988   2.088   9.166
77717SOL    HW134925   7.028   2.150   9.105
77717SOL    HW234926   6.998   2.003   9.124
77718SOL     OW34927   2.368  14.121   5.022
77718SOL    HW134928   2.340  14.192   5.080
77718SOL    HW234929   2.309  14.128   4.947
77719SOL     OW34930   2.940   1.995   5.070
77719SOL    HW134931   3.036   1.990   5.075
77719SOL    HW234932   2.920   1.981   4.978
77720SOL     OW34933   9.350  13.581   5.067
77720SOL    HW134934   9.328  13.507   5.010
77720SOL    HW234935   9.312  13.657   5.024
77721SOL     OW34936   9.340   8.487   2.794
77721SOL    HW134937   9.265   8.434   2.823
77721SOL    HW234938   9.300   8.568   2.763
77722SOL     OW34939  13.763  10.426   2.799
77722SOL    HW134940  13.739  10.451   2.710
77722SOL    HW234941  13.821  10.495   2.829
77723SOL     OW34942  14.504   1.031  14.367
77723SOL    HW134943  14.545   1.115  14.349
77723SOL    HW234944  14.413   1.052  14.389
77724SOL     OW34945  14.035   9.499   9.572
77724SOL    HW134946  14.075   9.489   9.486
77724SOL    HW234947  14.053   9.416   9.617
77725SOL     OW34948  10.455  11.923  11.564
77725SOL    HW134949  10.482  11.912  11.656
77725SOL    HW234950  10.414  12.009  11.562
77726SOL     OW34951  12.774   1.326   9.952
77726SOL    HW134952  12.694   1.369   9.984
77726SOL    HW234953  12.842   1.355  10.013
77727SOL     OW34954   8.025  10.921   0.385
77727SOL    HW134955   8.018  10.852   0.451
77727SOL    HW234956   7.962  10.897   0.318
77728SOL     OW34957   8.594   5.641  12.083
77728SOL    HW134958   8.621   5.594  12.004
77728SOL    HW234959   8.527   5.586  12.122
77729SOL     OW34960   5.865   1.926   1.532
77729SOL    HW134961   5.914   1.843   1.524
77729SOL    HW234962   5.893   1.977   1.456
77730SOL     OW34963   7.108   0.246  10.655
77730SOL    HW134964   7.173   0.316  10.652
77730SOL    HW234965   7.048   0.272  10.725
77731SOL     OW34966  11.409   6.793   1.316
77731SOL    HW134967  11.326   6.764   1.280
77731SOL    HW234968  11.396   6.791   1.411
77732SOL     OW34969   7.946  12.510  13.280
77732SOL    HW134970   7.909  12.513  13.192
77732SOL    HW234971   8.012  12.580  13.281
77733SOL     OW34972   9.665   4.525  12.538
77733SOL    HW134973   9.689   4.615  12.556
77733SOL    HW234974   9.638   4.525  12.446
77734SOL     OW34975   4.593   1.661  10.560
77734SOL    HW134976   4.637   1.744  10.543
77734SOL    HW234977   4.655   1.594  10.533
77735SOL     OW34978   4.554  14.048   5.436
77735SOL    HW134979   4.560  13.959   5.401
77735SOL    HW234980   4.596  14.043   5.521
77736SOL     OW34981   3.781   4.543   3.506
77736SOL    HW134982   3.767   4.599   3.430
77736SOL    HW234983   3.868   4.506   3.493
77737SOL     OW34984   6.299   5.832   3.339
77737SOL    HW134985   6.345   5.890   3.400
77737SOL    HW234986   6.212   5.822   3.377
77738SOL     OW34987   0.197  14.347   3.761
77738SOL    HW134988   0.253  14.270   3.761
77738SOL    HW234989   0.214  14.390   3.677
77739SOL     OW34990   2.068   8.668   5.129
77739SOL    HW134991   2.136   8.620   5.177
77739SOL    HW234992   1.993   8.609   5.129
77740SOL     OW34993   2.536   3.325   5.066
77740SOL    HW134994   2.474   3.383   5.022
77740SOL    HW234995   2.603   3.306   5.000
77741SOL     OW34996  14.017   0.030   9.832
77741SOL    HW134997  14.079  14.848   9.789
77741SOL    HW234998  13.985   0.086   9.761
77742SOL     OW34999   8.412   1.583   9.400
77742SOL    HW135000   8.466   1.542   9.333
77742SOL    HW235001   8.350   1.638   9.352
77743SOL     OW35002   5.645   7.509  12.414
77743SOL    HW135003   5.684   7.585  12.372
77743SOL    HW235004   5.716   7.445  12.417
77744SOL     OW35005   6.207   9.848  13.694
77744SOL    HW135006   6.284   9.890  13.732
77744SOL    HW235007   6.232   9.756  13.684
77745SOL     OW35008   1.410  13.546   8.074
77745SOL    HW135009   1.472  13.483   8.111
77745SOL    HW235010   1.334  13.541   8.132
77746SOL     OW35011  12.512   9.257  12.399
77746SOL    HW135012  12.492   9.261  12.492
77746SOL    HW235013  12.596   9.209  12.394
77747SOL     OW35014   8.186   4.126  10.184
77747SOL    HW135015   8.180   4.217  10.154
77747SOL    HW235016   8.267   4.093  10.145
77748SOL     OW35017   1.896  12.009   1.467
77748SOL    HW135018   1.854  12.086   1.504
77748SOL    HW235019   1.976  11.998   1.518
77749SOL     OW35020  10.995  14.036   7.257
77749SOL    HW135021  11.078  14.080   7.276
77749SOL    HW235022  10.990  14.033   7.162
77750SOL     OW35023  10.832   3.908   9.803
77750SOL    HW135024  10.927   3.914   9.814
77750SOL    HW235025  10.816   3.815   9.785
77751SOL     OW35026  12.078   6.139   1.670
77751SOL    HW135027  12.090   6.049   1.639
77751SOL    HW235028  12.066   6.131   1.764
77752SOL     OW35029  12.623  13.355   2.186
77752SOL    HW135030  12.649  13.273   2.143
77752SOL    HW235031  12.553  13.329   2.246
77753SOL     OW35032   4.644   2.082  11.612
77753SOL    HW135033   4.625   2.014  11.678
77753SOL    HW235034   4.613   2.163  11.651
77754SOL     OW35035  12.804   3.932  13.536
77754SOL    HW135036  12.819   4.013  13.585
77754SOL    HW235037  12.818   3.862  13.599
77755SOL     OW35038   1.220   0.485   7.380
77755SOL    HW135039   1.144   0.493   7.322
77755SOL    HW235040   1.185   0.499   7.468
77756SOL     OW35041   2.997  12.279   0.621
77756SOL    HW135042   3.057  12.349   0.643
77756SOL    HW235043   2.971  12.241   0.705
77757SOL     OW35044   1.170   0.557  12.185
77757SOL    HW135045   1.181   0.593  12.273
77757SOL    HW235046   1.186   0.463  12.196
77758SOL     OW35047   7.166   0.451   5.462
77758SOL    HW135048   7.157   0.478   5.371
77758SOL    HW235049   7.261   0.447   5.477
77759SOL     OW35050  10.925   5.822   4.185
77759SOL    HW135051  10.991   5.753   4.178
77759SOL    HW235052  10.962   5.885   4.247
77760SOL     OW35053   9.592   4.909  13.647
77760SOL    HW135054   9.624   4.836  13.700
77760SOL    HW235055   9.644   4.984  13.675
77761SOL     OW35056  14.864   0.532   0.849
77761SOL    HW135057  14.867   0.624   0.877
77761SOL    HW235058  14.820   0.535   0.764
77762SOL     OW35059  12.854  11.378   5.068
77762SOL    HW135060  12.915  11.420   5.130
77762SOL    HW235061  12.786  11.444   5.054
77763SOL     OW35062   3.328  13.738   1.720
77763SOL    HW135063   3.271  13.688   1.777
77763SOL    HW235064   3.371  13.801   1.778
77764SOL     OW35065  13.771   4.201   5.697
77764SOL    HW135066  13.819   4.138   5.750
77764SOL    HW235067  13.683   4.163   5.689
77765SOL     OW35068   3.913   5.988   9.340
77765SOL    HW135069   3.856   6.009   9.267
77765SOL    HW235070   3.994   6.036   9.322
77766SOL     OW35071   1.795   4.195   3.923
77766SOL    HW135072   1.880   4.227   3.954
77766SOL    HW235073   1.769   4.130   3.988
77767SOL     OW35074   1.755  13.013   8.463
77767SOL    HW135075   1.692  13.071   8.504
77767SOL    HW235076   1.839  13.037   8.503
77768SOL     OW35077  14.058   8.626   1.952
77768SOL    HW135078  14.041   8.618   2.046
77768SOL    HW235079  13.976   8.658   1.915
77769SOL     OW35080   6.037   4.527  11.780
77769SOL    HW135081   6.078   4.442  11.799
77769SOL    HW235082   6.082   4.588  11.839
77770SOL     OW35083   0.954  13.164   2.352
77770SOL    HW135084   0.882  13.110   2.385
77770SOL    HW235085   0.911  13.239   2.310
77771SOL     OW35086  12.420  12.569   2.199
77771SOL    HW135087  12.377  12.488   2.226
77771SOL    HW235088  12.464  12.600   2.278
77772SOL     OW35089   6.396  10.330   2.039
77772SOL    HW135090   6.441  10.303   1.958
77772SOL    HW235091   6.381  10.423   2.028
77773SOL     OW35092   6.586   2.776  13.009
77773SOL    HW135093   6.550   2.742  13.091
77773SOL    HW235094   6.528   2.848  12.986
77774SOL     OW35095   5.260   7.913   1.687
77774SOL    HW135096   5.339   7.936   1.735
77774SOL    HW235097   5.192   7.907   1.755
77775SOL     OW35098  10.313   6.414   2.772
77775SOL    HW135099  10.278   6.327   2.751
77775SOL    HW235100  10.408   6.403   2.768
77776SOL     OW35101   8.436   9.666   2.198
77776SOL    HW135102   8.366   9.606   2.223
77776SOL    HW235103   8.437   9.732   2.267
77777SOL     OW35104   8.724  10.686  10.211
77777SOL    HW135105   8.646  10.644  10.248
77777SOL    HW235106   8.709  10.684  10.116
77778SOL     OW35107  10.623   2.171  10.223
77778SOL    HW135108  10.594   2.257  10.192
77778SOL    HW235109  10.549   2.138  10.275
77779SOL     OW35110  12.626   7.381   1.025
77779SOL    HW135111  12.629   7.455   1.086
77779SOL    HW235112  12.718   7.355   1.015
77780SOL     OW35113   1.901   1.705  11.116
77780SOL    HW135114   1.845   1.763  11.166
77780SOL    HW235115   1.990   1.728  11.142
77781SOL     OW35116   1.627   2.045   1.148
77781SOL    HW135117   1.545   2.068   1.193
77781SOL    HW235118   1.670   2.129   1.132
77782SOL     OW35119   0.410  11.066   7.502
77782SOL    HW135120   0.433  10.974   7.486
77782SOL    HW235121   0.491  11.114   7.484
77783SOL     OW35122   7.992   8.960   6.039
77783SOL    HW135123   7.906   9.000   6.051
77783SOL    HW235124   7.985   8.875   6.082
77784SOL     OW35125  10.570  10.016   8.351
77784SOL    HW135126  10.509  10.075   8.395
77784SOL    HW235127  10.599   9.955   8.419
77785SOL     OW35128  14.127  10.207   8.469
77785SOL    HW135129  14.136  10.148   8.544
77785SOL    HW235130  14.063  10.163   8.413
77786SOL     OW35131  11.149   4.068   4.224
77786SOL    HW135132  11.188   4.004   4.164
77786SOL    HW235133  11.138   4.020   4.306
77787SOL     OW35134   8.696   4.156  13.723
77787SOL    HW135135   8.731   4.238  13.689
77787SOL    HW235136   8.663   4.110  13.645
77788SOL     OW35137   9.717   4.919   6.061
77788SOL    HW135138   9.738   4.988   6.125
77788SOL    HW235139   9.780   4.849   6.080
77789SOL     OW35140   1.402   1.424   4.883
77789SOL    HW135141   1.318   1.385   4.908
77789SOL    HW235142   1.379   1.484   4.812
77790SOL     OW35143   2.208  11.238   6.416
77790SOL    HW135144   2.247  11.251   6.330
77790SOL    HW235145   2.228  11.318   6.464
77791SOL     OW35146   2.955   0.910   9.172
77791SOL    HW135147   3.005   0.941   9.247
77791SOL    HW235148   2.954   0.984   9.111
77792SOL     OW35149   1.065   7.842   7.483
77792SOL    HW135150   1.095   7.883   7.402
77792SOL    HW235151   1.094   7.751   7.478
77793SOL     OW35152  11.508   1.959   6.666
77793SOL    HW135153  11.414   1.976   6.664
77793SOL    HW235154  11.519   1.877   6.617
77794SOL     OW35155   1.747   2.772  13.466
77794SOL    HW135156   1.814   2.782  13.398
77794SOL    HW235157   1.763   2.685  13.503
77795SOL     OW35158   3.284   3.275   2.463
77795SOL    HW135159   3.366   3.236   2.431
77795SOL    HW235160   3.311   3.356   2.506
77796SOL     OW35161  14.043  12.225  13.103
77796SOL    HW135162  14.041  12.139  13.060
77796SOL    HW235163  14.052  12.287  13.030
77797SOL     OW35164   2.501   0.403   9.867
77797SOL    HW135165   2.512   0.409   9.772
77797SOL    HW235166   2.590   0.388   9.900
77798SOL     OW35167  10.468   9.109   0.301
77798SOL    HW135168  10.446   9.111   0.394
77798SOL    HW235169  10.388   9.138   0.257
77799SOL     OW35170   6.295  12.593  14.237
77799SOL    HW135171   6.261  12.518  14.188
77799SOL    HW235172   6.387  12.570  14.252
77800SOL     OW35173   8.947  10.059  11.227
77800SOL    HW135174   8.895   9.991  11.184
77800SOL    HW235175   8.942  10.038  11.320
77801SOL     OW35176   8.278  11.850   0.656
77801SOL    HW135177   8.283  11.942   0.632
77801SOL    HW235178   8.200  11.842   0.710
77802SOL     OW35179   4.787   3.125   4.241
77802SOL    HW135180   4.761   3.077   4.162
77802SOL    HW235181   4.868   3.170   4.217
77803SOL     OW35182   5.469   0.458   1.451
77803SOL    HW135183   5.551   0.450   1.402
77803SOL    HW235184   5.406   0.405   1.401
77804SOL     OW35185   8.123  14.506   3.936
77804SOL    HW135186   8.142  14.432   3.880
77804SOL    HW235187   8.038  14.538   3.907
77805SOL     OW35188   9.911  14.011  10.513
77805SOL    HW135189   9.825  14.001  10.471
77805SOL    HW235190   9.940  13.922  10.531
77806SOL     OW35191   7.549   1.659  11.747
77806SOL    HW135192   7.541   1.602  11.822
77806SOL    HW235193   7.532   1.603  11.671
77807SOL     OW35194   6.966   2.318   3.975
77807SOL    HW135195   7.050   2.305   4.020
77807SOL    HW235196   6.914   2.370   4.037
77808SOL     OW35197   1.618   5.828   5.782
77808SOL    HW135198   1.674   5.757   5.748
77808SOL    HW235199   1.641   5.834   5.875
77809SOL     OW35200   6.948  11.353  13.855
77809SOL    HW135201   6.895  11.417  13.903
77809SOL    HW235202   6.954  11.389  13.766
77810SOL     OW35203   7.530  13.848   4.201
77810SOL    HW135204   7.613  13.810   4.231
77810SOL    HW235205   7.555  13.915   4.137
77811SOL     OW35206   1.999   7.304   4.466
77811SOL    HW135207   2.075   7.310   4.407
77811SOL    HW235208   1.961   7.218   4.447
77812SOL     OW35209   1.837   4.368   2.840
77812SOL    HW135210   1.806   4.326   2.920
77812SOL    HW235211   1.915   4.417   2.867
77813SOL     OW35212   1.164   4.308   0.118
77813SOL    HW135213   1.179   4.250   0.193
77813SOL    HW235214   1.196   4.258   0.043
77814SOL     OW35215  14.711  12.448  10.863
77814SOL    HW135216  14.644  12.413  10.804
77814SOL    HW235217  14.756  12.515  10.810
77815SOL     OW35218   4.283   6.163   2.200
77815SOL    HW135219   4.317   6.138   2.286
77815SOL    HW235220   4.356   6.208   2.158
77816SOL     OW35221   8.943   0.284  13.950
77816SOL    HW135222   8.869   0.229  13.926
77816SOL    HW235223   8.931   0.364  13.899
77817SOL     OW35224   4.387   6.364   0.527
77817SOL    HW135225   4.356   6.455   0.526
77817SOL    HW235226   4.469   6.367   0.576
77818SOL     OW35227   0.563  14.304   2.820
77818SOL    HW135228   0.493  14.258   2.774
77818SOL    HW235229   0.635  14.241   2.826
77819SOL     OW35230   2.900  10.428  12.909
77819SOL    HW135231   2.845  10.366  12.861
77819SOL    HW235232   2.843  10.504  12.922
77820SOL     OW35233   2.567   7.097  14.651
77820SOL    HW135234   2.658   7.102  14.622
77820SOL    HW235235   2.556   7.170  14.711
77821SOL     OW35236  12.023   4.058  12.582
77821SOL    HW135237  12.098   4.045  12.641
77821SOL    HW235238  12.044   4.138  12.534
77822SOL     OW35239   1.119  13.194   7.571
77822SOL    HW135240   1.203  13.166   7.608
77822SOL    HW235241   1.056  13.129   7.601
77823SOL     OW35242   3.033   4.785   7.775
77823SOL    HW135243   2.971   4.819   7.710
77823SOL    HW235244   3.116   4.830   7.755
77824SOL     OW35245   8.168  11.653   1.035
77824SOL    HW135246   8.152  11.563   1.064
77824SOL    HW235247   8.252  11.676   1.075
77825SOL     OW35248   0.670  11.251   1.647
77825SOL    HW135249   0.741  11.192   1.621
77825SOL    HW235250   0.707  11.338   1.638
77826SOL     OW35251  12.217   5.869   6.156
77826SOL    HW135252  12.264   5.795   6.118
77826SOL    HW235253  12.281   5.913   6.211
77827SOL     OW35254   7.072   6.513   8.616
77827SOL    HW135255   7.133   6.506   8.689
77827SOL    HW235256   7.108   6.456   8.549
77828SOL     OW35257  10.826   1.691  11.929
77828SOL    HW135258  10.739   1.683  11.889
77828SOL    HW235259  10.838   1.609  11.976
77829SOL     OW35260   6.459   9.564   1.095
77829SOL    HW135261   6.399   9.527   1.159
77829SOL    HW235262   6.536   9.507   1.097
77830SOL     OW35263   5.794   6.224   2.188
77830SOL    HW135264   5.800   6.303   2.241
77830SOL    HW235265   5.871   6.173   2.212
77831SOL     OW35266   7.822  10.941   4.924
77831SOL    HW135267   7.792  10.939   5.015
77831SOL    HW235268   7.843  11.033   4.908
77832SOL     OW35269  14.296   9.022   8.936
77832SOL    HW135270  14.305   9.002   8.843
77832SOL    HW235271  14.204   9.003   8.955
77833SOL     OW35272   0.814  10.091   7.580
77833SOL    HW135273   0.746  10.024   7.582
77833SOL    HW235274   0.767  10.174   7.590
77834SOL     OW35275   6.684   4.798  10.366
77834SOL    HW135276   6.608   4.742  10.380
77834SOL    HW235277   6.648   4.887  10.362
77835SOL     OW35278   2.171  12.154   2.339
77835SOL    HW135279   2.170  12.076   2.285
77835SOL    HW235280   2.092  12.202   2.314
77836SOL     OW35281   4.728  13.654   6.859
77836SOL    HW135282   4.722  13.641   6.764
77836SOL    HW235283   4.683  13.737   6.874
77837SOL     OW35284   7.832   5.918   5.768
77837SOL    HW135285   7.902   5.862   5.734
77837SOL    HW235286   7.788   5.950   5.690
77838SOL     OW35287   9.831   2.437  12.466
77838SOL    HW135288   9.853   2.390  12.546
77838SOL    HW235289   9.741   2.468  12.480
77839SOL     OW35290  11.196  14.058   8.918
77839SOL    HW135291  11.164  14.138   8.960
77839SOL    HW235292  11.193  14.077   8.824
77840SOL     OW35293  12.524   8.477   9.793
77840SOL    HW135294  12.535   8.422   9.715
77840SOL    HW235295  12.612   8.511   9.810
77841SOL     OW35296  12.573  13.540   5.093
77841SOL    HW135297  12.566  13.605   5.163
77841SOL    HW235298  12.631  13.473   5.129
77842SOL     OW35299   7.647   6.826   6.733
77842SOL    HW135300   7.739   6.829   6.708
77842SOL    HW235301   7.620   6.736   6.713
77843SOL     OW35302   2.917  10.703   0.208
77843SOL    HW135303   2.909  10.607   0.204
77843SOL    HW235304   2.833  10.735   0.176
77844SOL     OW35305  11.407   3.649   7.284
77844SOL    HW135306  11.341   3.642   7.215
77844SOL    HW235307  11.403   3.740   7.312
77845SOL     OW35308   3.612   1.443  14.643
77845SOL    HW135309   3.705   1.425  14.658
77845SOL    HW235310   3.567   1.406  14.718
77846SOL     OW35311   9.682  14.579   9.778
77846SOL    HW135312   9.778  14.577   9.769
77846SOL    HW235313   9.652  14.504   9.726
77847SOL     OW35314  11.214   8.417   5.159
77847SOL    HW135315  11.243   8.403   5.068
77847SOL    HW235316  11.134   8.468   5.151
77848SOL     OW35317   0.427  14.601  13.442
77848SOL    HW135318   0.340  14.577  13.410
77848SOL    HW235319   0.424  14.583  13.536
77849SOL     OW35320   8.263  10.983   6.292
77849SOL    HW135321   8.251  11.077   6.303
77849SOL    HW235322   8.235  10.965   6.202
77850SOL     OW35323   9.748  10.299   2.527
77850SOL    HW135324   9.661  10.324   2.558
77850SOL    HW235325   9.808  10.349   2.582
77851SOL     OW35326   3.920  12.416   7.728
77851SOL    HW135327   3.884  12.383   7.810
77851SOL    HW235328   4.009  12.442   7.749
77852SOL     OW35329  14.661   2.708   8.963
77852SOL    HW135330  14.586   2.746   9.009
77852SOL    HW235331  14.730   2.704   9.028
77853SOL     OW35332   1.883   3.743   5.770
77853SOL    HW135333   1.861   3.786   5.687
77853SOL    HW235334   1.898   3.816   5.830
77854SOL     OW35335   3.802  13.444   9.609
77854SOL    HW135336   3.753  13.414   9.685
77854SOL    HW235337   3.753  13.521   9.579
77855SOL     OW35338   6.548   8.900   2.654
77855SOL    HW135339   6.626   8.923   2.705
77855SOL    HW235340   6.583   8.874   2.569
77856SOL     OW35341   4.916   4.045  11.863
77856SOL    HW135342   5.004   4.071  11.888
77856SOL    HW235343   4.906   4.077  11.773
77857SOL     OW35344   3.346  12.662   6.979
77857SOL    HW135345   3.309  12.662   7.067
77857SOL    HW235346   3.289  12.720   6.929
77858SOL     OW35347   3.595  12.441   1.064
77858SOL    HW135348   3.671  12.430   1.121
77858SOL    HW235349   3.630  12.484   0.985
77859SOL     OW35350   6.564   2.199   5.222
77859SOL    HW135351   6.532   2.172   5.136
77859SOL    HW235352   6.659   2.193   5.215
77860SOL     OW35353   0.878   3.673  10.687
77860SOL    HW135354   0.883   3.712  10.774
77860SOL    HW235355   0.807   3.721  10.643
77861SOL     OW35356   9.681   6.748   0.474
77861SOL    HW135357   9.616   6.812   0.447
77861SOL    HW235358   9.699   6.768   0.566
77862SOL     OW35359   3.388   9.802   1.331
77862SOL    HW135360   3.371   9.720   1.284
77862SOL    HW235361   3.371   9.871   1.266
77863SOL     OW35362   2.945   1.051   5.945
77863SOL    HW135363   2.869   1.091   5.904
77863SOL    HW235364   2.939   1.076   6.037
77864SOL     OW35365   1.790  12.956   1.048
77864SOL    HW135366   1.726  13.004   0.996
77864SOL    HW235367   1.871  12.961   0.997
77865SOL     OW35368   4.712   4.359   0.657
77865SOL    HW135369   4.704   4.427   0.589
77865SOL    HW235370   4.664   4.284   0.621
77866SOL     OW35371   9.758  13.056   9.119
77866SOL    HW135372   9.812  13.134   9.113
77866SOL    HW235373   9.782  13.017   9.203
77867SOL     OW35374  12.103   8.125   0.362
77867SOL    HW135375  12.199   8.123   0.363
77867SOL    HW235376  12.080   8.092   0.275
77868SOL     OW35377  12.404   1.800   8.886
77868SOL    HW135378  12.464   1.729   8.863
77868SOL    HW235379  12.327   1.787   8.830
77869SOL     OW35380  11.996   2.208   5.231
77869SOL    HW135381  12.059   2.238   5.296
77869SOL    HW235382  12.004   2.113   5.233
77870SOL     OW35383  10.334   2.151  13.415
77870SOL    HW135384  10.389   2.176  13.489
77870SOL    HW235385  10.371   2.197  13.340
77871SOL     OW35386  10.244  11.399   0.908
77871SOL    HW135387  10.231  11.387   0.814
77871SOL    HW235388  10.170  11.453   0.937
77872SOL     OW35389  13.827  10.772  14.455
77872SOL    HW135390  13.818  10.866  14.473
77872SOL    HW235391  13.771  10.730  14.519
77873SOL     OW35392   8.517   6.453   7.842
77873SOL    HW135393   8.594   6.406   7.875
77873SOL    HW235394   8.492   6.511   7.914
77874SOL     OW35395  12.605   4.411  14.456
77874SOL    HW135396  12.691   4.382  14.487
77874SOL    HW235397  12.588   4.359  14.378
77875SOL     OW35398  12.035  12.927  11.609
77875SOL    HW135399  11.998  12.874  11.538
77875SOL    HW235400  12.044  13.014  11.573
77876SOL     OW35401   1.020  14.854  12.309
77876SOL    HW135402   1.083   0.005  12.242
77876SOL    HW235403   0.969   0.055  12.328
77877SOL     OW35404   3.501   5.391   0.065
77877SOL    HW135405   3.504   5.457  14.872
77877SOL    HW235406   3.425   5.415   0.117
77878SOL     OW35407   7.428  10.236   2.808
77878SOL    HW135408   7.347  10.184   2.805
77878SOL    HW235409   7.398  10.325   2.828
77879SOL     OW35410   8.169   8.197   5.482
77879SOL    HW135411   8.136   8.121   5.529
77879SOL    HW235412   8.122   8.271   5.521
77880SOL     OW35413   1.715   9.989   1.664
77880SOL    HW135414   1.743  10.045   1.737
77880SOL    HW235415   1.773   9.913   1.668
77881SOL     OW35416  10.153  13.205  13.487
77881SOL    HW135417  10.168  13.181  13.579
77881SOL    HW235418  10.064  13.238  13.485
77882SOL     OW35419   4.082   8.723   7.335
77882SOL    HW135420   4.056   8.815   7.328
77882SOL    HW235421   4.010   8.675   7.295
77883SOL     OW35422   5.616   0.914   8.460
77883SOL    HW135423   5.651   0.942   8.376
77883SOL    HW235424   5.555   0.844   8.438
77884SOL     OW35425  13.738   7.640   4.134
77884SOL    HW135426  13.696   7.572   4.186
77884SOL    HW235427  13.722   7.615   4.043
77885SOL     OW35428  10.402  12.909  12.636
77885SOL    HW135429  10.466  12.859  12.586
77885SOL    HW235430  10.322  12.904  12.584
77886SOL     OW35431   7.005   1.578   2.615
77886SOL    HW135432   7.014   1.633   2.537
77886SOL    HW235433   6.914   1.591   2.643
77887SOL     OW35434   9.596  10.073   5.285
77887SOL    HW135435   9.663  10.116   5.336
77887SOL    HW235436   9.513  10.105   5.322
77888SOL     OW35437   3.385   4.375  13.298
77888SOL    HW135438   3.376   4.396  13.391
77888SOL    HW235439   3.354   4.285  13.290
77889SOL     OW35440   8.064   5.120   7.494
77889SOL    HW135441   8.109   5.185   7.440
77889SOL    HW235442   8.028   5.170   7.568
77890SOL     OW35443   1.567   4.277   5.745
77890SOL    HW135444   1.494   4.324   5.703
77890SOL    HW235445   1.554   4.292   5.839
77891SOL     OW35446   4.729  10.096  14.702
77891SOL    HW135447   4.661  10.028  14.704
77891SOL    HW235448   4.749  10.111  14.794
77892SOL     OW35449  12.771  12.283   7.432
77892SOL    HW135450  12.775  12.337   7.353
77892SOL    HW235451  12.691  12.231   7.421
77893SOL     OW35452   8.606  10.013  10.705
77893SOL    HW135453   8.696   9.985  10.687
77893SOL    HW235454   8.555   9.977  10.633
77894SOL     OW35455   5.735   4.756   2.362
77894SOL    HW135456   5.806   4.695   2.338
77894SOL    HW235457   5.728   4.748   2.457
77895SOL     OW35458  13.073  11.047   9.595
77895SOL    HW135459  13.117  11.002   9.668
77895SOL    HW235460  13.077  11.140   9.618
77896SOL     OW35461   9.904  13.201   3.805
77896SOL    HW135462   9.935  13.266   3.742
77896SOL    HW235463   9.963  13.210   3.880
77897SOL     OW35464   7.598  14.734   1.420
77897SOL    HW135465   7.693  14.739   1.430
77897SOL    HW235466   7.581  14.643   1.395
77898SOL     OW35467  13.807   4.615   7.214
77898SOL    HW135468  13.821   4.581   7.126
77898SOL    HW235469  13.722   4.580   7.241
77899SOL     OW35470   6.842   2.926  12.455
77899SOL    HW135471   6.747   2.918  12.457
77899SOL    HW235472   6.873   2.835  12.453
77900SOL     OW35473   0.658   1.535   0.677
77900SOL    HW135474   0.578   1.554   0.628
77900SOL    HW235475   0.660   1.602   0.745
77901SOL     OW35476   4.822  14.377   9.570
77901SOL    HW135477   4.862  14.426   9.498
77901SOL    HW235478   4.851  14.422   9.649
77902SOL     OW35479  13.668   2.795  10.622
77902SOL    HW135480  13.716   2.874  10.648
77902SOL    HW235481  13.700   2.726  10.679
77903SOL     OW35482  12.276   3.161   4.094
77903SOL    HW135483  12.223   3.216   4.152
77903SOL    HW235484  12.313   3.222   4.031
77904SOL     OW35485   9.354   5.050  11.660
77904SOL    HW135486   9.367   5.070  11.753
77904SOL    HW235487   9.296   5.120  11.629
77905SOL     OW35488  13.826   4.365   4.791
77905SOL    HW135489  13.827   4.279   4.833
77905SOL    HW235490  13.896   4.414   4.836
77906SOL     OW35491   7.469   2.032   4.650
77906SOL    HW135492   7.452   1.938   4.659
77906SOL    HW235493   7.516   2.040   4.567
77907SOL     OW35494   9.382   8.244   8.581
77907SOL    HW135495   9.463   8.195   8.591
77907SOL    HW235496   9.393   8.321   8.637
77908SOL     OW35497   7.522   8.147  12.184
77908SOL    HW135498   7.494   8.065  12.143
77908SOL    HW235499   7.601   8.123  12.233
77909SOL     OW35500   8.114   6.580  13.337
77909SOL    HW135501   8.199   6.621  13.352
77909SOL    HW235502   8.112   6.560  13.244
77910SOL     OW35503   5.958   5.501   9.447
77910SOL    HW135504   5.916   5.484   9.531
77910SOL    HW235505   5.928   5.430   9.390
77911SOL     OW35506  13.210  12.804  11.294
77911SOL    HW135507  13.301  12.835  11.292
77911SOL    HW235508  13.197  12.763  11.208
77912SOL     OW35509   7.463   0.046   9.391
77912SOL    HW135510   7.497   0.115   9.333
77912SOL    HW235511   7.532   0.032   9.455
77913SOL     OW35512   1.522   0.556  10.559
77913SOL    HW135513   1.441   0.521  10.597
77913SOL    HW235514   1.564   0.480  10.518
77914SOL     OW35515   9.697  12.912  12.831
77914SOL    HW135516   9.671  12.858  12.907
77914SOL    HW235517   9.622  12.970  12.816
77915SOL     OW35518   2.113   1.520   5.845
77915SOL    HW135519   2.126   1.512   5.939
77915SOL    HW235520   2.178   1.460   5.807
77916SOL     OW35521   1.798  12.495   1.071
77916SOL    HW135522   1.806  12.406   1.107
77916SOL    HW235523   1.832  12.551   1.141
77917SOL     OW35524   8.333  12.735  12.115
77917SOL    HW135525   8.391  12.787  12.171
77917SOL    HW235526   8.352  12.764  12.026
77918SOL     OW35527   5.104  14.250   9.987
77918SOL    HW135528   5.075  14.174  10.037
77918SOL    HW235529   5.061  14.242   9.902
77919SOL     OW35530   0.361   1.013   6.872
77919SOL    HW135531   0.367   1.094   6.922
77919SOL    HW235532   0.311   1.036   6.794
77920SOL     OW35533  14.082   9.800   4.054
77920SOL    HW135534  14.054   9.729   4.111
77920SOL    HW235535  14.168   9.772   4.022
77921SOL     OW35536  11.849   6.634  12.964
77921SOL    HW135537  11.829   6.635  12.871
77921SOL    HW235538  11.781   6.688  13.004
77922SOL     OW35539  12.539   6.200  10.551
77922SOL    HW135540  12.519   6.197  10.644
77922SOL    HW235541  12.456   6.185  10.507
77923SOL     OW35542   4.166  12.218  14.630
77923SOL    HW135543   4.155  12.175  14.715
77923SOL    HW235544   4.231  12.287  14.646
77924SOL     OW35545   6.261   8.722   7.126
77924SOL    HW135546   6.240   8.676   7.207
77924SOL    HW235547   6.355   8.710   7.114
77925SOL     OW35548  13.263   3.359   5.691
77925SOL    HW135549  13.298   3.360   5.602
77925SOL    HW235550  13.311   3.288   5.734
77926SOL     OW35551   9.717   8.415   6.195
77926SOL    HW135552   9.643   8.469   6.166
77926SOL    HW235553   9.677   8.337   6.234
77927SOL     OW35554  13.531  14.830   0.577
77927SOL    HW135555  13.479   0.032   0.588
77927SOL    HW235556  13.571  14.816   0.663
77928SOL     OW35557   7.415   0.903  10.002
77928SOL    HW135558   7.320   0.903   9.989
77928SOL    HW235559   7.436   0.993  10.026
77929SOL     OW35560  11.348  10.107  11.635
77929SOL    HW135561  11.310  10.098  11.547
77929SOL    HW235562  11.347  10.018  11.670
77930SOL     OW35563  13.262   4.416   8.872
77930SOL    HW135564  13.310   4.436   8.953
77930SOL    HW235565  13.314   4.346   8.831
77931SOL     OW35566   3.590   6.950  12.294
77931SOL    HW135567   3.597   6.996  12.377
77931SOL    HW235568   3.561   7.017  12.232
77932SOL     OW35569   6.767   2.239   1.207
77932SOL    HW135570   6.825   2.214   1.279
77932SOL    HW235571   6.732   2.156   1.175
77933SOL     OW35572   5.151  11.922   3.327
77933SOL    HW135573   5.098  11.928   3.247
77933SOL    HW235574   5.241  11.936   3.296
77934SOL     OW35575   2.571  10.978  13.260
77934SOL    HW135576   2.606  10.893  13.288
77934SOL    HW235577   2.642  11.039  13.275
77935SOL     OW35578   0.989  12.709  12.196
77935SOL    HW135579   0.964  12.770  12.265
77935SOL    HW235580   0.931  12.634  12.208
77936SOL     OW35581   6.591  12.419   5.472
77936SOL    HW135582   6.625  12.334   5.503
77936SOL    HW235583   6.664  12.457   5.424
77937SOL     OW35584   6.219   9.286   1.671
77937SOL    HW135585   6.174   9.264   1.753
77937SOL    HW235586   6.267   9.206   1.649
77938SOL     OW35587  14.490   7.078   3.564
77938SOL    HW135588  14.473   7.096   3.656
77938SOL    HW235589  14.458   7.156   3.518
77939SOL     OW35590   9.469   3.449   2.795
77939SOL    HW135591   9.412   3.436   2.871
77939SOL    HW235592   9.471   3.364   2.752
77940SOL     OW35593  14.169  11.348  13.031
77940SOL    HW135594  14.172  11.294  13.110
77940SOL    HW235595  14.087  11.323  12.988
77941SOL     OW35596   6.714   2.887   9.049
77941SOL    HW135597   6.645   2.952   9.036
77941SOL    HW235598   6.795   2.936   9.039
77942SOL     OW35599   7.164   7.011  14.772
77942SOL    HW135600   7.100   6.962  14.824
77942SOL    HW235601   7.233   6.948  14.753
77943SOL     OW35602   1.923  13.926  13.265
77943SOL    HW135603   1.961  13.852  13.312
77943SOL    HW235604   1.946  13.912  13.174
77944SOL     OW35605   2.755   6.924   4.790
77944SOL    HW135606   2.777   7.016   4.805
77944SOL    HW235607   2.804   6.877   4.857
77945SOL     OW35608  12.981   8.067   7.846
77945SOL    HW135609  13.027   8.055   7.763
77945SOL    HW235610  13.040   8.122   7.898
77946SOL     OW35611   8.624   8.003   8.186
77946SOL    HW135612   8.660   7.981   8.100
77946SOL    HW235613   8.644   7.927   8.241
77947SOL     OW35614   3.179  13.507   9.297
77947SOL    HW135615   3.265  13.542   9.320
77947SOL    HW235616   3.199  13.430   9.243
77948SOL     OW35617  10.877   3.505  10.642
77948SOL    HW135618  10.918   3.568  10.702
77948SOL    HW235619  10.943   3.437  10.630
77949SOL     OW35620  12.194   4.383   2.014
77949SOL    HW135621  12.193   4.478   2.013
77949SOL    HW235622  12.135   4.359   2.085
77950SOL     OW35623   0.915   0.148   9.816
77950SOL    HW135624   0.825   0.179   9.822
77950SOL    HW235625   0.931   0.103   9.899
77951SOL     OW35626   4.600  12.316  14.822
77951SOL    HW135627   4.680  12.361  14.795
77951SOL    HW235628   4.586  12.249  14.756
77952SOL     OW35629   2.434  10.775   2.694
77952SOL    HW135630   2.365  10.827   2.736
77952SOL    HW235631   2.396  10.687   2.686
77953SOL     OW35632   1.528  11.176   9.397
77953SOL    HW135633   1.544  11.166   9.303
77953SOL    HW235634   1.465  11.248   9.403
77954SOL     OW35635   7.784   7.434   0.975
77954SOL    HW135636   7.854   7.488   0.939
77954SOL    HW235637   7.779   7.358   0.917
77955SOL     OW35638   4.257   3.235  12.309
77955SOL    HW135639   4.193   3.257  12.377
77955SOL    HW235640   4.206   3.235  12.228
77956SOL     OW35641   8.007   9.338   9.831
77956SOL    HW135642   8.082   9.283   9.852
77956SOL    HW235643   7.997   9.395   9.907
77957SOL     OW35644   9.918   8.847   8.069
77957SOL    HW135645  10.002   8.832   8.027
77957SOL    HW235646   9.911   8.777   8.135
77958SOL     OW35647   3.988   0.990  12.753
77958SOL    HW135648   4.083   1.001  12.764
77958SOL    HW235649   3.953   1.079  12.752
77959SOL     OW35650  14.561   7.883  10.277
77959SOL    HW135651  14.627   7.946  10.304
77959SOL    HW235652  14.576   7.870  10.184
77960SOL     OW35653  13.107  14.195   3.167
77960SOL    HW135654  13.116  14.256   3.240
77960SOL    HW235655  13.106  14.250   3.089
77961SOL     OW35656  10.920   7.273  10.551
77961SOL    HW135657  10.893   7.349  10.500
77961SOL    HW235658  10.905   7.299  10.642
77962SOL     OW35659   3.434  10.660   5.573
77962SOL    HW135660   3.497  10.728   5.552
77962SOL    HW235661   3.348  10.701   5.562
77963SOL     OW35662   2.487  11.844  11.132
77963SOL    HW135663   2.448  11.775  11.080
77963SOL    HW235664   2.464  11.822  11.223
77964SOL     OW35665   2.422   2.251  10.144
77964SOL    HW135666   2.447   2.201  10.066
77964SOL    HW235667   2.462   2.337  10.132
77965SOL     OW35668   1.528   2.478  10.861
77965SOL    HW135669   1.567   2.541  10.921
77965SOL    HW235670   1.541   2.393  10.903
77966SOL     OW35671  10.435   9.808   5.006
77966SOL    HW135672  10.480   9.725   4.991
77966SOL    HW235673  10.485   9.872   4.956
77967SOL     OW35674   9.773   7.355  10.856
77967SOL    HW135675   9.680   7.349  10.873
77967SOL    HW235676   9.795   7.275  10.810
77968SOL     OW35677   8.554  14.762   0.233
77968SOL    HW135678   8.524  14.743   0.322
77968SOL    HW235679   8.641  14.723   0.228
77969SOL     OW35680   9.743   1.998   2.899
77969SOL    HW135681   9.820   1.964   2.945
77969SOL    HW235682   9.762   2.091   2.886
77970SOL     OW35683  13.961   8.270   5.928
77970SOL    HW135684  14.033   8.217   5.962
77970SOL    HW235685  13.974   8.269   5.833
77971SOL     OW35686   8.193   4.482   4.514
77971SOL    HW135687   8.287   4.497   4.502
77971SOL    HW235688   8.188   4.407   4.572
77972SOL     OW35689  10.594   6.572   3.893
77972SOL    HW135690  10.651   6.641   3.859
77972SOL    HW235691  10.549   6.538   3.816
77973SOL     OW35692  14.202   3.281   2.632
77973SOL    HW135693  14.198   3.325   2.547
77973SOL    HW235694  14.250   3.200   2.615
77974SOL     OW35695  12.584   8.181  11.300
77974SOL    HW135696  12.616   8.122  11.233
77974SOL    HW235697  12.502   8.216  11.264
77975SOL     OW35698  10.551   0.894   1.719
77975SOL    HW135699  10.480   0.853   1.669
77975SOL    HW235700  10.518   0.981   1.742
77976SOL     OW35701   4.121  12.089   0.984
77976SOL    HW135702   4.153  12.175   1.012
77976SOL    HW235703   4.154  12.079   0.895
77977SOL     OW35704   6.711   5.271   7.798
77977SOL    HW135705   6.678   5.185   7.771
77977SOL    HW235706   6.632   5.321   7.817
77978SOL     OW35707   4.245  10.937   9.371
77978SOL    HW135708   4.332  10.916   9.403
77978SOL    HW235709   4.226  10.870   9.305
77979SOL     OW35710  11.910   7.620   9.718
77979SOL    HW135711  11.982   7.608   9.780
77979SOL    HW235712  11.841   7.561   9.748
77980SOL     OW35713  11.679   8.031  10.796
77980SOL    HW135714  11.680   8.034  10.892
77980SOL    HW235715  11.769   8.013  10.772
77981SOL     OW35716  11.378   3.329   1.713
77981SOL    HW135717  11.298   3.336   1.662
77981SOL    HW235718  11.385   3.412   1.760
77982SOL     OW35719  11.010  12.761   0.994
77982SOL    HW135720  11.048  12.743   1.080
77982SOL    HW235721  11.077  12.731   0.931
77983SOL     OW35722  11.349  14.522   9.704
77983SOL    HW135723  11.338  14.549   9.796
77983SOL    HW235724  11.283  14.453   9.691
77984SOL     OW35725   6.549   4.160  10.138
77984SOL    HW135726   6.576   4.080  10.092
77984SOL    HW235727   6.583   4.231  10.084
77985SOL     OW35728   8.001  12.676   5.522
77985SOL    HW135729   8.053  12.729   5.582
77985SOL    HW235730   7.911  12.688   5.551
77986SOL     OW35731   9.820   6.024   0.756
77986SOL    HW135732   9.818   6.105   0.807
77986SOL    HW235733   9.778   5.959   0.813
77987SOL     OW35734   3.554  13.628  11.760
77987SOL    HW135735   3.639  13.612  11.800
77987SOL    HW235736   3.500  13.554  11.787
77988SOL     OW35737   3.330   2.752   2.605
77988SOL    HW135738   3.417   2.788   2.588
77988SOL    HW235739   3.345   2.682   2.669
77989SOL     OW35740  13.061   5.577   4.207
77989SOL    HW135741  13.105   5.532   4.279
77989SOL    HW235742  12.970   5.586   4.237
77990SOL     OW35743  13.739   4.424   0.310
77990SOL    HW135744  13.727   4.386   0.223
77990SOL    HW235745  13.719   4.517   0.298
77991SOL     OW35746   3.458   7.951  14.721
77991SOL    HW135747   3.511   8.014  14.671
77991SOL    HW235748   3.486   7.865  14.688
77992SOL     OW35749   7.195   1.715  11.875
77992SOL    HW135750   7.191   1.794  11.929
77992SOL    HW235751   7.271   1.667  11.910
77993SOL     OW35752   7.291   0.733  13.262
77993SOL    HW135753   7.200   0.746  13.287
77993SOL    HW235754   7.307   0.798  13.194
77994SOL     OW35755   6.012  12.791   2.068
77994SOL    HW135756   5.965  12.868   2.036
77994SOL    HW235757   6.048  12.750   1.989
77995SOL     OW35758   6.390  14.810   4.527
77995SOL    HW135759   6.453  14.843   4.463
77995SOL    HW235760   6.357  14.729   4.489
77996SOL     OW35761   4.140   6.907  13.458
77996SOL    HW135762   4.211   6.935  13.401
77996SOL    HW235763   4.072   6.874  13.399
77997SOL     OW35764   3.423   1.266   9.578
77997SOL    HW135765   3.388   1.226   9.498
77997SOL    HW235766   3.391   1.211   9.649
77998SOL     OW35767  12.485  10.783   2.432
77998SOL    HW135768  12.431  10.720   2.386
77998SOL    HW235769  12.542  10.820   2.365
77999SOL     OW35770  12.629   7.942  11.088
77999SOL    HW135771  12.677   7.973  11.012
77999SOL    HW235772  12.694   7.937  11.158
78000SOL     OW35773   9.670  12.193   4.409
78000SOL    HW135774   9.760  12.225   4.418
78000SOL    HW235775   9.627  12.258   4.353
78001SOL     OW35776   5.890   3.842   3.328
78001SOL    HW135777   5.826   3.846   3.257
78001SOL    HW235778   5.846   3.792   3.397
78002SOL     OW35779  13.385   0.247   1.519
78002SOL    HW135780  13.456   0.185   1.501
78002SOL    HW235781  13.306   0.202   1.489
78003SOL     OW35782   2.236   8.012   4.970
78003SOL    HW135783   2.220   7.919   4.984
78003SOL    HW235784   2.186   8.033   4.891
78004SOL     OW35785   6.415  12.807   5.942
78004SOL    HW135786   6.348  12.775   6.002
78004SOL    HW235787   6.497  12.776   5.980
78005SOL     OW35788   3.122   9.268   1.487
78005SOL    HW135789   3.043   9.322   1.497
78005SOL    HW235790   3.129   9.221   1.570
78006SOL     OW35791   5.693   3.381   0.670
78006SOL    HW135792   5.728   3.296   0.644
78006SOL    HW235793   5.616   3.393   0.613
78007SOL     OW35794  11.384   3.403  12.177
78007SOL    HW135795  11.310   3.347  12.202
78007SOL    HW235796  11.354   3.447  12.097
78008SOL     OW35797   6.871  13.663   2.092
78008SOL    HW135798   6.940  13.685   2.030
78008SOL    HW235799   6.790  13.683   2.046
78009SOL     OW35800  10.661   8.461   6.465
78009SOL    HW135801  10.648   8.525   6.534
78009SOL    HW235802  10.683   8.513   6.388
78010SOL     OW35803   7.116   1.676  10.311
78010SOL    HW135804   7.061   1.652  10.385
78010SOL    HW235805   7.123   1.772  10.316
78011SOL     OW35806   9.042  11.516   4.760
78011SOL    HW135807   8.962  11.510   4.813
78011SOL    HW235808   9.053  11.429   4.723
78012SOL     OW35809   1.005   3.582   0.900
78012SOL    HW135810   0.989   3.588   0.995
78012SOL    HW235811   1.067   3.510   0.891
78013SOL     OW35812   9.792   8.413  12.519
78013SOL    HW135813   9.806   8.366  12.601
78013SOL    HW235814   9.832   8.358  12.452
78014SOL     OW35815  12.669   5.263   5.709
78014SOL    HW135816  12.589   5.216   5.687
78014SOL    HW235817  12.728   5.246   5.635
78015SOL     OW35818   9.182  13.975   8.658
78015SOL    HW135819   9.116  14.032   8.698
78015SOL    HW235820   9.166  13.982   8.564
78016SOL     OW35821  12.604   5.890   1.955
78016SOL    HW135822  12.573   5.838   2.029
78016SOL    HW235823  12.688   5.926   1.984
78017SOL     OW35824   8.970  12.495   7.792
78017SOL    HW135825   9.005  12.412   7.822
78017SOL    HW235826   8.918  12.473   7.714
78018SOL     OW35827   1.265   3.336  13.017
78018SOL    HW135828   1.225   3.415  13.052
78018SOL    HW235829   1.196   3.270  13.022
78019SOL     OW35830  11.089  14.773   1.912
78019SOL    HW135831  11.065  14.820   1.832
78019SOL    HW235832  11.007  14.735   1.943
78020SOL     OW35833   5.237  14.484  13.763
78020SOL    HW135834   5.291  14.407  13.773
78020SOL    HW235835   5.196  14.474  13.677
78021SOL     OW35836  13.581   7.665   9.284
78021SOL    HW135837  13.603   7.757   9.270
78021SOL    HW235838  13.517   7.645   9.215
78022SOL     OW35839  12.044  10.037   5.446
78022SOL    HW135840  11.973  10.073   5.498
78022SOL    HW235841  12.053   9.946   5.475
78023SOL     OW35842   8.349   7.928  13.822
78023SOL    HW135843   8.351   7.935  13.917
78023SOL    HW235844   8.413   7.859  13.802
78024SOL     OW35845   2.942  12.587   2.342
78024SOL    HW135846   2.905  12.528   2.276
78024SOL    HW235847   3.033  12.600   2.314
78025SOL     OW35848   4.992   8.653   9.696
78025SOL    HW135849   4.963   8.692   9.778
78025SOL    HW235850   4.913   8.647   9.643
78026SOL     OW35851   3.495  11.442   9.732
78026SOL    HW135852   3.403  11.448   9.759
78026SOL    HW235853   3.512  11.348   9.728
78027SOL     OW35854   7.097   5.158   0.927
78027SOL    HW135855   7.033   5.090   0.909
78027SOL    HW235856   7.055   5.213   0.993
78028SOL     OW35857   7.411   5.514   8.535
78028SOL    HW135858   7.365   5.515   8.451
78028SOL    HW235859   7.484   5.574   8.524
78029SOL     OW35860  12.395   7.586   7.245
78029SOL    HW135861  12.446   7.570   7.324
78029SOL    HW235862  12.367   7.678   7.253
78030SOL     OW35863  13.686   5.190   2.858
78030SOL    HW135864  13.605   5.140   2.850
78030SOL    HW235865  13.681   5.230   2.945
78031SOL     OW35866   8.264  10.005  12.492
78031SOL    HW135867   8.216  10.087  12.504
78031SOL    HW235868   8.196   9.938  12.489
78032SOL     OW35869   0.354   6.041   7.401
78032SOL    HW135870   0.391   6.115   7.449
78032SOL    HW235871   0.262   6.039   7.427
78033SOL     OW35872  11.712   0.100   5.133
78033SOL    HW135873  11.625   0.133   5.154
78033SOL    HW235874  11.737   0.047   5.209
78034SOL     OW35875   7.292   5.844  14.361
78034SOL    HW135876   7.338   5.798  14.431
78034SOL    HW235877   7.342   5.924  14.348
78035SOL     OW35878   7.444  14.657  14.448
78035SOL    HW135879   7.525  14.701  14.421
78035SOL    HW235880   7.456  14.642  14.542
78036SOL     OW35881   1.931   3.425   5.890
78036SOL    HW135882   1.965   3.460   5.972
78036SOL    HW235883   1.836   3.434   5.899
78037SOL     OW35884   3.007   6.004   8.272
78037SOL    HW135885   3.036   5.923   8.231
78037SOL    HW235886   2.942   5.976   8.336
78038SOL     OW35887   9.970   9.384   0.078
78038SOL    HW135888   9.902   9.325   0.111
78038SOL    HW235889   9.953   9.390  14.861
78039SOL     OW35890  11.247   9.971   3.015
78039SOL    HW135891  11.303   9.947   2.941
78039SOL    HW235892  11.295  10.041   3.060
78040SOL     OW35893   0.142   0.238   2.546
78040SOL    HW135894   0.188   0.196   2.474
78040SOL    HW235895   0.194   0.218   2.624
78041SOL     OW35896   8.938   0.500   0.943
78041SOL    HW135897   8.922   0.425   1.000
78041SOL    HW235898   8.938   0.464   0.855
78042SOL     OW35899   1.726   0.326   2.556
78042SOL    HW135900   1.808   0.279   2.537
78042SOL    HW235901   1.683   0.271   2.622
78043SOL     OW35902   9.934   1.880  11.092
78043SOL    HW135903  10.029   1.882  11.100
78043SOL    HW235904   9.918   1.859  11.000
78044SOL     OW35905   5.256   7.389  11.282
78044SOL    HW135906   5.209   7.455  11.231
78044SOL    HW235907   5.187   7.334  11.319
78045SOL     OW35908  11.509  10.823  10.199
78045SOL    HW135909  11.581  10.826  10.136
78045SOL    HW235910  11.547  10.781  10.276
78046SOL     OW35911  13.581  12.327   9.232
78046SOL    HW135912  13.558  12.321   9.324
78046SOL    HW235913  13.667  12.285   9.225
78047SOL     OW35914   1.696   0.146   6.630
78047SOL    HW135915   1.689   0.204   6.706
78047SOL    HW235916   1.621   0.168   6.575
78048SOL     OW35917  10.507   7.466   1.547
78048SOL    HW135918  10.574   7.420   1.497
78048SOL    HW235919  10.450   7.506   1.481
78049SOL     OW35920  13.946  14.370   1.518
78049SOL    HW135921  13.898  14.422   1.454
78049SOL    HW235922  13.980  14.295   1.468
78050SOL     OW35923   6.865   3.293  10.855
78050SOL    HW135924   6.868   3.199  10.843
78050SOL    HW235925   6.799   3.306  10.924
78051SOL     OW35926   0.906   2.964   9.595
78051SOL    HW135927   0.916   2.946   9.688
78051SOL    HW235928   0.898   3.060   9.590
78052SOL     OW35929   9.946   4.628   8.131
78052SOL    HW135930  10.016   4.600   8.190
78052SOL    HW235931   9.921   4.547   8.085
78053SOL     OW35932   9.034  14.219  11.040
78053SOL    HW135933   9.081  14.139  11.015
78053SOL    HW235934   9.102  14.282  11.062
78054SOL     OW35935   8.414   8.416   3.564
78054SOL    HW135936   8.452   8.413   3.652
78054SOL    HW235937   8.349   8.486   3.568
78055SOL     OW35938  11.677  10.322   7.149
78055SOL    HW135939  11.756  10.299   7.198
78055SOL    HW235940  11.636  10.390   7.201
78056SOL     OW35941   9.527   2.914   9.431
78056SOL    HW135942   9.511   2.976   9.360
78056SOL    HW235943   9.594   2.854   9.397
78057SOL     OW35944  11.757   0.960   2.609
78057SOL    HW135945  11.841   1.004   2.602
78057SOL    HW235946  11.776   0.867   2.595
78058SOL     OW35947   0.904   5.608   0.961
78058SOL    HW135948   0.947   5.530   0.927
78058SOL    HW235949   0.851   5.577   1.034
78059SOL     OW35950  12.012   6.123  11.747
78059SOL    HW135951  12.060   6.189  11.797
78059SOL    HW235952  11.924   6.158  11.737
78060SOL     OW35953  13.312   9.745  11.526
78060SOL    HW135954  13.279   9.812  11.467
78060SOL    HW235955  13.407   9.748  11.516
78061SOL     OW35956  13.974   1.701   7.743
78061SOL    HW135957  14.027   1.777   7.768
78061SOL    HW235958  13.943   1.722   7.655
78062SOL     OW35959   3.018  12.861  13.956
78062SOL    HW135960   3.024  12.774  13.917
78062SOL    HW235961   3.075  12.857  14.033
78063SOL     OW35962  12.334  11.754   9.009
78063SOL    HW135963  12.417  11.787   8.975
78063SOL    HW235964  12.271  11.825   8.992
78064SOL     OW35965   8.066  11.594  11.416
78064SOL    HW135966   8.049  11.515  11.365
78064SOL    HW235967   7.999  11.594  11.484
78065SOL     OW35968   3.969   7.720  10.277
78065SOL    HW135969   4.009   7.654  10.334
78065SOL    HW235970   3.967   7.800  10.330
78066SOL     OW35971   2.771  10.569  14.266
78066SOL    HW135972   2.772  10.535  14.177
78066SOL    HW235973   2.771  10.491  14.322
78067SOL     OW35974  14.662   2.006   5.760
78067SOL    HW135975  14.627   2.075   5.816
78067SOL    HW235976  14.688   1.937   5.821
78068SOL     OW35977   9.187   8.629   5.691
78068SOL    HW135978   9.156   8.551   5.645
78068SOL    HW235979   9.273   8.647   5.651
78069SOL     OW35980   3.813   4.181   7.670
78069SOL    HW135981   3.876   4.209   7.604
78069SOL    HW235982   3.861   4.183   7.752
78070SOL     OW35983   4.567   1.688  11.302
78070SOL    HW135984   4.521   1.612  11.336
78070SOL    HW235985   4.538   1.760  11.357
78071SOL     OW35986   2.170   8.406   3.220
78071SOL    HW135987   2.171   8.404   3.125
78071SOL    HW235988   2.081   8.433   3.243
78072SOL     OW35989   5.284   3.052  14.832
78072SOL    HW135990   5.254   2.986   0.017
78072SOL    HW235991   5.206   3.105  14.815
78073SOL     OW35992   8.802   3.622  13.826
78073SOL    HW135993   8.815   3.676  13.904
78073SOL    HW235994   8.766   3.540  13.860
78074SOL     OW35995  11.444   0.090   3.441
78074SOL    HW135996  11.435   0.002   3.477
78074SOL    HW235997  11.478   0.142   3.514
78075SOL     OW35998  10.090   0.238   5.016
78075SOL    HW135999  10.007   0.250   4.970
78075SOL    HW236000  10.066   0.232   5.108
78076SOL     OW36001  10.054  14.851   2.977
78076SOL    HW136002  10.114   0.048   2.971
78076SOL    HW236003  10.078  14.807   3.058
78077SOL     OW36004  13.575   4.418  11.872
78077SOL    HW136005  13.489   4.459  11.882
78077SOL    HW236006  13.600   4.436  11.781
78078SOL     OW36007   3.756   2.276   6.040
78078SOL    HW136008   3.786   2.289   6.129
78078SOL    HW236009   3.804   2.342   5.989
78079SOL     OW36010   8.185   9.254  12.837
78079SOL    HW136011   8.157   9.333  12.883
78079SOL    HW236012   8.104   9.205  12.824
78080SOL     OW36013   6.549  11.697   6.574
78080SOL    HW136014   6.640  11.727   6.578
78080SOL    HW236015   6.498  11.778   6.570
78081SOL     OW36016   0.464   7.417   4.742
78081SOL    HW136017   0.438   7.331   4.708
78081SOL    HW236018   0.547   7.436   4.699
78082SOL     OW36019  12.470  12.622   1.175
78082SOL    HW136020  12.558  12.607   1.141
78082SOL    HW236021  12.469  12.578   1.260
78083SOL     OW36022   3.697   6.813  13.267
78083SOL    HW136023   3.748   6.786  13.344
78083SOL    HW236024   3.757   6.865  13.215
78084SOL     OW36025   4.753  10.484   8.071
78084SOL    HW136026   4.779  10.575   8.082
78084SOL    HW236027   4.658  10.487   8.060
78085SOL     OW36028  14.186   1.318  13.631
78085SOL    HW136029  14.255   1.362  13.581
78085SOL    HW236030  14.168   1.378  13.704
78086SOL     OW36031   8.072   9.514  13.311
78086SOL    HW136032   8.022   9.438  13.341
78086SOL    HW236033   8.006   9.578  13.286
78087SOL     OW36034  12.773   4.524   0.374
78087SOL    HW136035  12.781   4.535   0.279
78087SOL    HW236036  12.833   4.453   0.395
78088SOL     OW36037  10.245   8.373   3.654
78088SOL    HW136038  10.191   8.316   3.600
78088SOL    HW236039  10.222   8.349   3.744
78089SOL     OW36040   3.754  12.130   6.759
78089SOL    HW136041   3.769  12.215   6.720
78089SOL    HW236042   3.839  12.087   6.760
78090SOL     OW36043   7.495   6.609   4.473
78090SOL    HW136044   7.575   6.565   4.445
78090SOL    HW236045   7.455   6.550   4.537
78091SOL     OW36046   6.079  14.135  11.361
78091SOL    HW136047   6.113  14.068  11.420
78091SOL    HW236048   6.157  14.169  11.316
78092SOL     OW36049  12.249   6.341  11.430
78092SOL    HW136050  12.273   6.406  11.364
78092SOL    HW236051  12.154   6.333  11.422
78093SOL     OW36052   5.855   3.118  10.130
78093SOL    HW136053   5.840   3.030  10.164
78093SOL    HW236054   5.869   3.172  10.208
78094SOL     OW36055   2.034   6.334   0.015
78094SOL    HW136056   1.973   6.352  14.821
78094SOL    HW236057   2.117   6.371  14.862
78095SOL     OW36058  10.068   1.564   2.072
78095SOL    HW136059  10.124   1.621   2.124
78095SOL    HW236060  10.030   1.622   2.006
78096SOL     OW36061   0.391   5.415  10.946
78096SOL    HW136062   0.462   5.433  11.008
78096SOL    HW236063   0.420   5.336  10.900
78097SOL     OW36064  12.874  14.784   8.144
78097SOL    HW136065  12.803  14.747   8.196
78097SOL    HW236066  12.831  14.841   8.081
78098SOL     OW36067   8.229   1.770  10.445
78098SOL    HW136068   8.248   1.676  10.443
78098SOL    HW236069   8.229   1.797  10.353
78099SOL     OW36070  13.461  10.206   7.530
78099SOL    HW136071  13.525  10.186   7.461
78099SOL    HW236072  13.497  10.281   7.576
78100SOL     OW36073   4.575   5.184   7.686
78100SOL    HW136074   4.539   5.201   7.599
78100SOL    HW236075   4.519   5.234   7.745
78101SOL     OW36076   5.571  13.097   2.185
78101SOL    HW136077   5.519  13.157   2.239
78101SOL    HW236078   5.651  13.083   2.236
78102SOL     OW36079   0.710   1.140   9.397
78102SOL    HW136080   0.730   1.048   9.384
78102SOL    HW236081   0.620   1.141   9.429
78103SOL     OW36082   3.138   3.129   0.235
78103SOL    HW136083   3.089   3.048   0.222
78103SOL    HW236084   3.227   3.109   0.208
78104SOL     OW36085   8.693  13.641  14.579
78104SOL    HW136086   8.653  13.726  14.563
78104SOL    HW236087   8.621  13.585  14.608
78105SOL     OW36088  13.065  14.607   3.389
78105SOL    HW136089  12.974  14.635   3.380
78105SOL    HW236090  13.106  14.675   3.442
78106SOL     OW36091   7.988   4.860  10.725
78106SOL    HW136092   7.976   4.778  10.676
78106SOL    HW236093   8.055   4.907  10.676
78107SOL     OW36094  12.851  11.997   2.622
78107SOL    HW136095  12.926  11.938   2.634
78107SOL    HW236096  12.890  12.077   2.585
78108SOL     OW36097   5.671   3.128   4.673
78108SOL    HW136098   5.707   3.211   4.704
78108SOL    HW236099   5.737   3.094   4.612
78109SOL     OW36100  11.228   8.648  10.677
78109SOL    HW136101  11.238   8.717  10.743
78109SOL    HW236102  11.284   8.576  10.709
78110SOL     OW36103   2.335   2.010   3.378
78110SOL    HW136104   2.268   2.075   3.355
78110SOL    HW236105   2.378   1.989   3.295
78111SOL     OW36106   5.098  11.634  10.272
78111SOL    HW136107   5.008  11.653  10.246
78111SOL    HW236108   5.129  11.715  10.313
78112SOL     OW36109   4.165   2.847  13.056
78112SOL    HW136110   4.104   2.870  13.127
78112SOL    HW236111   4.251   2.868  13.092
78113SOL     OW36112   8.537  14.484   5.674
78113SOL    HW136113   8.606  14.517   5.618
78113SOL    HW236114   8.492  14.562   5.706
78114SOL     OW36115   9.122  10.310  10.297
78114SOL    HW136116   9.060  10.382  10.306
78114SOL    HW236117   9.207  10.353  10.289
78115SOL     OW36118  10.428  12.361   6.281
78115SOL    HW136119  10.334  12.344   6.271
78115SOL    HW236120  10.467  12.332   6.199
78116SOL     OW36121   9.483   9.839   3.718
78116SOL    HW136122   9.547   9.827   3.648
78116SOL    HW236123   9.481   9.933   3.732
78117SOL     OW36124   1.585   5.094   1.130
78117SOL    HW136125   1.598   5.187   1.117
78117SOL    HW236126   1.498   5.087   1.169
78118SOL     OW36127  10.832   5.175   6.241
78118SOL    HW136128  10.766   5.239   6.266
78118SOL    HW236129  10.822   5.167   6.146
78119SOL     OW36130   5.886   5.220  10.788
78119SOL    HW136131   5.825   5.261  10.727
78119SOL    HW236132   5.887   5.279  10.864
78120SOL     OW36133  11.689   7.181   4.641
78120SOL    HW136134  11.617   7.119   4.635
78120SOL    HW236135  11.761   7.141   4.592
78121SOL     OW36136  11.081   8.225  11.007
78121SOL    HW136137  11.074   8.240  10.913
78121SOL    HW236138  11.001   8.177  11.029
78122SOL     OW36139   7.374  10.650  10.511
78122SOL    HW136140   7.359  10.730  10.461
78122SOL    HW236141   7.412  10.589  10.447
78123SOL     OW36142   0.925  14.423   6.662
78123SOL    HW136143   0.888  14.335   6.652
78123SOL    HW236144   0.892  14.453   6.747
78124SOL     OW36145  10.063  10.731   0.883
78124SOL    HW136146   9.993  10.743   0.947
78124SOL    HW236147  10.136  10.695   0.933
78125SOL     OW36148   2.007   6.994  11.764
78125SOL    HW136149   1.975   6.907  11.790
78125SOL    HW236150   2.069   6.978  11.693
78126SOL     OW36151   8.795  13.335   3.438
78126SOL    HW136152   8.830  13.330   3.349
78126SOL    HW236153   8.812  13.249   3.475
78127SOL     OW36154   5.408  11.351   4.266
78127SOL    HW136155   5.499  11.372   4.246
78127SOL    HW236156   5.407  11.255   4.276
78128SOL     OW36157   4.888   6.441   5.286
78128SOL    HW136158   4.821   6.461   5.351
78128SOL    HW236159   4.967   6.422   5.338
78129SOL     OW36160   3.304   5.533  14.218
78129SOL    HW136161   3.356   5.455  14.234
78129SOL    HW236162   3.368   5.604  14.208
78130SOL     OW36163  13.862  11.434   8.429
78130SOL    HW136164  13.849  11.499   8.360
78130SOL    HW236165  13.815  11.470   8.504
78131SOL     OW36166   0.696  11.828   0.642
78131SOL    HW136167   0.752  11.843   0.566
78131SOL    HW236168   0.684  11.915   0.681
78132SOL     OW36169   8.198   1.485   1.667
78132SOL    HW136170   8.159   1.510   1.583
78132SOL    HW236171   8.286   1.524   1.665
78133SOL     OW36172  13.357   3.466   5.987
78133SOL    HW136173  13.412   3.524   5.934
78133SOL    HW236174  13.374   3.379   5.952
78134SOL     OW36175   5.630  11.468  13.120
78134SOL    HW136176   5.718  11.433  13.134
78134SOL    HW236177   5.640  11.563  13.126
78135SOL     OW36178   5.223  14.463  10.145
78135SOL    HW136179   5.132  14.490  10.159
78135SOL    HW236180   5.217  14.391  10.082
78136SOL     OW36181  10.555   6.739   5.219
78136SOL    HW136182  10.532   6.755   5.310
78136SOL    HW236183  10.514   6.811   5.171
78137SOL     OW36184  14.601   6.070  13.870
78137SOL    HW136185  14.557   6.121  13.938
78137SOL    HW236186  14.594   5.980  13.900
78138SOL     OW36187  11.920   2.512   6.016
78138SOL    HW136188  11.832   2.518   6.051
78138SOL    HW236189  11.946   2.421   6.032
78139SOL     OW36190   0.725   8.332  12.164
78139SOL    HW136191   0.726   8.251  12.113
78139SOL    HW236192   0.725   8.402  12.098
78140SOL     OW36193   3.519   4.280  10.121
78140SOL    HW136194   3.566   4.337  10.059
78140SOL    HW236195   3.588   4.241  10.174
78141SOL     OW36196   1.952   9.547   4.802
78141SOL    HW136197   1.982   9.506   4.721
78141SOL    HW236198   1.909   9.476   4.850
78142SOL     OW36199   3.352   7.072   8.961
78142SOL    HW136200   3.399   7.047   9.041
78142SOL    HW236201   3.280   7.127   8.992
78143SOL     OW36202   0.150   6.087  14.827
78143SOL    HW136203   0.192   6.148  14.767
78143SOL    HW236204   0.080   6.138  14.868
78144SOL     OW36205   9.648  12.450   5.425
78144SOL    HW136206   9.615  12.408   5.504
78144SOL    HW236207   9.738  12.472   5.446
78145SOL     OW36208   5.328  14.737  10.127
78145SOL    HW136209   5.297  14.650  10.151
78145SOL    HW236210   5.309  14.744  10.033
78146SOL     OW36211   6.003   7.809  11.442
78146SOL    HW136212   6.015   7.810  11.347
78146SOL    HW236213   6.053   7.884  11.473
78147SOL     OW36214   8.796  10.879   9.123
78147SOL    HW136215   8.826  10.821   9.193
78147SOL    HW236216   8.844  10.851   9.045
78148SOL     OW36217  10.575  12.358   0.987
78148SOL    HW136218  10.569  12.422   0.915
78148SOL    HW236219  10.484  12.335   1.006
78149SOL     OW36220  13.672   5.840  13.925
78149SOL    HW136221  13.596   5.783  13.913
78149SOL    HW236222  13.742   5.782  13.955
78150SOL     OW36223   8.473   1.365   3.667
78150SOL    HW136224   8.519   1.373   3.583
78150SOL    HW236225   8.542   1.352   3.732
78151SOL     OW36226   1.922   6.033   9.594
78151SOL    HW136227   2.003   6.066   9.555
78151SOL    HW236228   1.946   6.009   9.683
78152SOL     OW36229   1.945   3.331   3.721
78152SOL    HW136230   1.928   3.397   3.789
78152SOL    HW236231   2.039   3.316   3.725
78153SOL     OW36232  10.914   7.315   1.291
78153SOL    HW136233  10.996   7.284   1.253
78153SOL    HW236234  10.941   7.372   1.363
78154SOL     OW36235   8.962   1.982   1.773
78154SOL    HW136236   8.958   1.967   1.867
78154SOL    HW236237   9.049   1.953   1.748
78155SOL     OW36238  12.810   6.110  10.527
78155SOL    HW136239  12.715   6.120  10.527
78155SOL    HW236240  12.831   6.077  10.439
78156SOL     OW36241  12.321   5.555   2.557
78156SOL    HW136242  12.378   5.601   2.618
78156SOL    HW236243  12.290   5.479   2.606
78157SOL     OW36244   3.327   5.920  12.613
78157SOL    HW136245   3.265   5.989  12.638
78157SOL    HW236246   3.375   5.957  12.538
78158SOL     OW36247   9.216   7.420   0.566
78158SOL    HW136248   9.204   7.474   0.644
78158SOL    HW236249   9.277   7.470   0.511
78159SOL     OW36250   1.315  11.175  11.178
78159SOL    HW136251   1.244  11.180  11.115
78159SOL    HW236252   1.395  11.182  11.125
78160SOL     OW36253  13.576   8.256   6.184
78160SOL    HW136254  13.587   8.162   6.196
78160SOL    HW236255  13.593   8.294   6.271
78161SOL     OW36256  13.213   2.843   7.291
78161SOL    HW136257  13.202   2.893   7.210
78161SOL    HW236258  13.134   2.862   7.341
78162SOL     OW36259  10.728  12.809   4.815
78162SOL    HW136260  10.810  12.837   4.857
78162SOL    HW236261  10.668  12.882   4.828
78163SOL     OW36262   9.391   8.381   3.486
78163SOL    HW136263   9.460   8.358   3.424
78163SOL    HW236264   9.340   8.449   3.443
78164SOL     OW36265   6.293  11.860   9.185
78164SOL    HW136266   6.344  11.794   9.232
78164SOL    HW236267   6.205  11.822   9.177
78165SOL     OW36268   8.707  12.518   3.795
78165SOL    HW136269   8.677  12.441   3.746
78165SOL    HW236270   8.774  12.484   3.855
78166SOL     OW36271   2.596   2.134   2.854
78166SOL    HW136272   2.619   2.207   2.797
78166SOL    HW236273   2.533   2.171   2.916
78167SOL     OW36274   1.100  12.440  10.323
78167SOL    HW136275   1.132  12.528  10.305
78167SOL    HW236276   1.103  12.395  10.238
78168SOL     OW36277   4.935  10.501   0.405
78168SOL    HW136278   5.004  10.567   0.408
78168SOL    HW236279   4.853  10.551   0.412
78169SOL     OW36280   2.589   6.398   4.014
78169SOL    HW136281   2.557   6.429   3.930
78169SOL    HW236282   2.660   6.459   4.037
78170SOL     OW36283   0.274  13.537   6.001
78170SOL    HW136284   0.306  13.471   6.062
78170SOL    HW236285   0.291  13.499   5.914
78171SOL     OW36286   3.918  14.281  11.451
78171SOL    HW136287   3.905  14.367  11.410
78171SOL    HW236288   3.930  14.221  11.377
78172SOL     OW36289   7.381  13.933   0.672
78172SOL    HW136290   7.438  13.858   0.658
78172SOL    HW236291   7.301  13.896   0.709
78173SOL     OW36292   8.590  12.447  13.691
78173SOL    HW136293   8.628  12.417  13.773
78173SOL    HW236294   8.582  12.368  13.638
78174SOL     OW36295  14.393   4.238   0.931
78174SOL    HW136296  14.329   4.225   1.001
78174SOL    HW236297  14.462   4.291   0.971
78175SOL     OW36298  11.388   9.200   8.353
78175SOL    HW136299  11.331   9.161   8.287
78175SOL    HW236300  11.386   9.138   8.427
78176SOL     OW36301   6.013   7.834   4.711
78176SOL    HW136302   6.045   7.837   4.621
78176SOL    HW236303   6.085   7.797   4.761
78177SOL     OW36304  12.737   2.146   1.332
78177SOL    HW136305  12.749   2.054   1.356
78177SOL    HW236306  12.824   2.175   1.305
78178SOL     OW36307  10.481  13.741  11.803
78178SOL    HW136308  10.567  13.703  11.820
78178SOL    HW236309  10.422  13.666  11.805
78179SOL     OW36310  12.571  14.523   2.372
78179SOL    HW136311  12.501  14.582   2.343
78179SOL    HW236312  12.649  14.557   2.327
78180SOL     OW36313   0.061   1.446   1.155
78180SOL    HW136314   0.033   1.532   1.125
78180SOL    HW236315   0.070   1.394   1.076
78181SOL     OW36316  11.730  11.229   6.220
78181SOL    HW136317  11.767  11.141   6.211
78181SOL    HW236318  11.636  11.215   6.226
78182SOL     OW36319   4.931   7.416  12.753
78182SOL    HW136320   5.007   7.361  12.772
78182SOL    HW236321   4.936   7.432  12.658
78183SOL     OW36322   2.987   1.467   3.470
78183SOL    HW136323   2.917   1.476   3.535
78183SOL    HW236324   2.989   1.374   3.448
78184SOL     OW36325   9.932   7.658   4.066
78184SOL    HW136326  10.017   7.644   4.025
78184SOL    HW236327   9.888   7.573   4.062
78185SOL     OW36328   2.964   4.308  14.279
78185SOL    HW136329   2.944   4.401  14.273
78185SOL    HW236330   2.947   4.273  14.192
78186SOL     OW36331   3.045   6.435   8.046
78186SOL    HW136332   3.047   6.370   8.116
78186SOL    HW236333   3.132   6.475   8.048
78187SOL     OW36334   1.981  14.209   6.159
78187SOL    HW136335   2.061  14.243   6.200
78187SOL    HW236336   2.012  14.169   6.078
78188SOL     OW36337   6.838  12.950   4.404
78188SOL    HW136338   6.784  12.939   4.326
78188SOL    HW236339   6.775  12.965   4.474
78189SOL     OW36340   7.339   9.331   6.792
78189SOL    HW136341   7.332   9.400   6.858
78189SOL    HW236342   7.357   9.377   6.710
78190SOL     OW36343  10.178   7.923  10.252
78190SOL    HW136344  10.153   7.868  10.178
78190SOL    HW236345  10.096   7.939  10.299
78191SOL     OW36346   7.256  11.012   6.594
78191SOL    HW136347   7.343  11.005   6.634
78191SOL    HW236348   7.263  11.087   6.535
78192SOL     OW36349  13.743   3.360  14.566
78192SOL    HW136350  13.727   3.344  14.658
78192SOL    HW236351  13.726   3.276  14.523
78193SOL     OW36352   9.610  11.626   7.154
78193SOL    HW136353   9.514  11.621   7.148
78193SOL    HW236354   9.640  11.541   7.120
78194SOL     OW36355   7.124   7.451  10.385
78194SOL    HW136356   7.170   7.473  10.466
78194SOL    HW236357   7.076   7.371  10.405
78195SOL     OW36358   4.930   8.874   7.194
78195SOL    HW136359   4.926   8.831   7.108
78195SOL    HW236360   4.973   8.958   7.177
78196SOL     OW36361  11.380  12.486  12.627
78196SOL    HW136362  11.295  12.485  12.669
78196SOL    HW236363  11.369  12.543  12.551
78197SOL     OW36364   8.266   9.414   6.811
78197SOL    HW136365   8.291   9.322   6.805
78197SOL    HW236366   8.215   9.420   6.892
78198SOL     OW36367  11.981   9.600   6.415
78198SOL    HW136368  12.060   9.622   6.465
78198SOL    HW236369  11.943   9.685   6.392
78199SOL     OW36370  14.060  13.050   6.626
78199SOL    HW136371  14.079  13.144   6.622
78199SOL    HW236372  14.026  13.037   6.714
78200SOL     OW36373   1.740   3.338  13.775
78200SOL    HW136374   1.646   3.332  13.789
78200SOL    HW236375   1.777   3.262  13.821
78201SOL     OW36376   7.310   1.354  11.715
78201SOL    HW136377   7.354   1.290  11.772
78201SOL    HW236378   7.217   1.334  11.724
78202SOL     OW36379   0.401  10.517   6.692
78202SOL    HW136380   0.444  10.445   6.645
78202SOL    HW236381   0.471  10.578   6.714
78203SOL     OW36382   1.600   9.608  12.250
78203SOL    HW136383   1.664   9.570  12.310
78203SOL    HW236384   1.652   9.643  12.178
78204SOL     OW36385   6.208   3.275   3.841
78204SOL    HW136386   6.205   3.197   3.784
78204SOL    HW236387   6.241   3.242   3.924
78205SOL     OW36388   8.153   4.714   8.678
78205SOL    HW136389   8.213   4.789   8.677
78205SOL    HW236390   8.122   4.708   8.588
78206SOL     OW36391  13.796   8.345   8.335
78206SOL    HW136392  13.801   8.415   8.400
78206SOL    HW236393  13.720   8.367   8.281
78207SOL     OW36394  13.146   1.293  13.585
78207SOL    HW136395  13.235   1.289  13.619
78207SOL    HW236396  13.151   1.355  13.512
78208SOL     OW36397   5.966   9.004  12.684
78208SOL    HW136398   6.020   8.955  12.622
78208SOL    HW236399   6.016   9.004  12.765
78209SOL     OW36400   8.998   1.845   9.535
78209SOL    HW136401   8.951   1.904   9.477
78209SOL    HW236402   8.930   1.799   9.584
78210SOL     OW36403   9.917  11.029   9.905
78210SOL    HW136404   9.837  11.018   9.957
78210SOL    HW236405   9.890  11.004   9.816
78211SOL     OW36406  10.311  14.725  12.500
78211SOL    HW136407  10.346  14.798  12.551
78211SOL    HW236408  10.228  14.757  12.466
78212SOL     OW36409   8.162   3.435   1.284
78212SOL    HW136410   8.138   3.442   1.192
78212SOL    HW236411   8.087   3.390   1.325
78213SOL     OW36412   2.031   4.614   3.366
78213SOL    HW136413   2.113   4.657   3.342
78213SOL    HW236414   2.035   4.606   3.462
78214SOL     OW36415   3.052   9.582   9.908
78214SOL    HW136416   3.095   9.602   9.825
78214SOL    HW236417   3.098   9.636   9.972
78215SOL     OW36418  13.870   9.152   0.499
78215SOL    HW136419  13.841   9.136   0.409
78215SOL    HW236420  13.959   9.117   0.502
78216SOL     OW36421  11.546   0.570   7.459
78216SOL    HW136422  11.516   0.482   7.482
78216SOL    HW236423  11.489   0.629   7.510
78217SOL     OW36424   9.212   5.251   0.761
78217SOL    HW136425   9.272   5.179   0.744
78217SOL    HW236426   9.173   5.231   0.846
78218SOL     OW36427   0.450   5.946  11.779
78218SOL    HW136428   0.510   6.021  11.783
78218SOL    HW236429   0.492   5.880  11.835
78219SOL     OW36430   8.259  13.849  11.553
78219SOL    HW136431   8.193  13.916  11.537
78219SOL    HW236432   8.248  13.786  11.482
78220SOL     OW36433  12.412   9.027  12.629
78220SOL    HW136434  12.480   9.092  12.611
78220SOL    HW236435  12.457   8.958  12.677
78221SOL     OW36436   4.077   0.990  11.032
78221SOL    HW136437   4.014   1.050  10.993
78221SOL    HW236438   4.046   0.978  11.122
78222SOL     OW36439  14.575   9.551  12.677
78222SOL    HW136440  14.592   9.625  12.735
78222SOL    HW236441  14.488   9.520  12.703
78223SOL     OW36442   5.695   7.264  13.296
78223SOL    HW136443   5.701   7.278  13.391
78223SOL    HW236444   5.762   7.199  13.277
78224SOL     OW36445   8.715  10.980   2.307
78224SOL    HW136446   8.767  11.053   2.340
78224SOL    HW236447   8.719  10.990   2.211
78225SOL     OW36448   1.959   4.210  11.559
78225SOL    HW136449   1.994   4.217  11.470
78225SOL    HW236450   2.036   4.198  11.614
78226SOL     OW36451   1.701   6.481   8.909
78226SOL    HW136452   1.613   6.492   8.874
78226SOL    HW236453   1.731   6.398   8.874
78227SOL     OW36454   8.668   5.532  13.004
78227SOL    HW136455   8.656   5.438  13.007
78227SOL    HW236456   8.735   5.550  13.071
78228SOL     OW36457   9.933   9.358  12.625
78228SOL    HW136458   9.932   9.385  12.717
78228SOL    HW236459  10.001   9.413  12.585
78229SOL     OW36460  14.563   8.594   6.063
78229SOL    HW136461  14.651   8.559   6.056
78229SOL    HW236462  14.567   8.679   6.020
78230SOL     OW36463   4.114   8.692  13.051
78230SOL    HW136464   4.150   8.638  13.121
78230SOL    HW236465   4.191   8.724  13.003
78231SOL     OW36466  10.714  12.332   2.323
78231SOL    HW136467  10.703  12.237   2.325
78231SOL    HW236468  10.720  12.358   2.415
78232SOL     OW36469   1.959   7.765   8.535
78232SOL    HW136470   1.890   7.773   8.601
78232SOL    HW236471   1.948   7.843   8.480
78233SOL     OW36472  13.027   6.172  13.433
78233SOL    HW136473  12.982   6.088  13.441
78233SOL    HW236474  12.957   6.237  13.427
78234SOL     OW36475   3.941  14.632  10.753
78234SOL    HW136476   3.866  14.678  10.790
78234SOL    HW236477   3.989  14.600  10.830
78235SOL     OW36478  14.621   1.148   9.451
78235SOL    HW136479  14.678   1.178   9.522
78235SOL    HW236480  14.582   1.228   9.416
78236SOL     OW36481   1.635   0.952  10.251
78236SOL    HW136482   1.695   0.892  10.295
78236SOL    HW236483   1.564   0.896  10.219
78237SOL     OW36484  14.509   7.724   2.934
78237SOL    HW136485  14.451   7.650   2.916
78237SOL    HW236486  14.451   7.793   2.966
78238SOL     OW36487   9.627   9.280   6.353
78238SOL    HW136488   9.686   9.345   6.316
78238SOL    HW236489   9.682   9.201   6.363
78239SOL     OW36490   3.488   0.392   1.369
78239SOL    HW136491   3.556   0.415   1.306
78239SOL    HW236492   3.509   0.303   1.397
78240SOL     OW36493   8.484  14.624   3.378
78240SOL    HW136494   8.528  14.587   3.302
78240SOL    HW236495   8.454  14.710   3.349
78241SOL     OW36496   4.473   0.137   1.232
78241SOL    HW136497   4.417   0.061   1.218
78241SOL    HW236498   4.548   0.122   1.173
78242SOL     OW36499   3.760  10.865   5.135
78242SOL    HW136500   3.816  10.787   5.129
78242SOL    HW236501   3.698  10.855   5.063
78243SOL     OW36502   1.648   4.497  14.360
78243SOL    HW136503   1.669   4.414  14.317
78243SOL    HW236504   1.597   4.546  14.295
78244SOL     OW36505   8.164  14.791  13.874
78244SOL    HW136506   8.241  14.829  13.832
78244SOL    HW236507   8.122  14.739  13.806
78245SOL     OW36508   1.996   7.528   8.384
78245SOL    HW136509   1.980   7.561   8.296
78245SOL    HW236510   1.966   7.598   8.442
78246SOL     OW36511  12.997  10.278   9.604
78246SOL    HW136512  13.084  10.303   9.572
78246SOL    HW236513  12.980  10.193   9.562
78247SOL     OW36514  14.020   1.299   3.595
78247SOL    HW136515  14.104   1.271   3.631
78247SOL    HW236516  13.960   1.227   3.612
78248SOL     OW36517  12.194   8.165  11.233
78248SOL    HW136518  12.268   8.197  11.181
78248SOL    HW236519  12.118   8.181  11.177
78249SOL     OW36520   7.091  12.988   3.739
78249SOL    HW136521   7.124  13.077   3.741
78249SOL    HW236522   7.044  12.982   3.656
78250SOL     OW36523   5.204  13.674   7.497
78250SOL    HW136524   5.134  13.642   7.555
78250SOL    HW236525   5.267  13.602   7.493
78251SOL     OW36526   8.940  12.064   7.116
78251SOL    HW136527   8.960  12.014   7.037
78251SOL    HW236528   9.007  12.132   7.119
78252SOL     OW36529   5.655   7.549   3.643
78252SOL    HW136530   5.636   7.513   3.730
78252SOL    HW236531   5.702   7.478   3.598
78253SOL     OW36532   4.328   3.615  12.174
78253SOL    HW136533   4.314   3.686  12.111
78253SOL    HW236534   4.319   3.535  12.122
78254SOL     OW36535   1.908  14.450   8.526
78254SOL    HW136536   1.874  14.484   8.609
78254SOL    HW236537   2.000  14.431   8.544
78255SOL     OW36538  10.466   1.264   4.849
78255SOL    HW136539  10.506   1.190   4.895
78255SOL    HW236540  10.485   1.247   4.757
78256SOL     OW36541   7.455   2.841   4.003
78256SOL    HW136542   7.512   2.764   4.007
78256SOL    HW236543   7.421   2.850   4.091
78257SOL     OW36544  14.867   5.861   0.964
78257SOL    HW136545  14.834   5.786   1.012
78257SOL    HW236546  14.809   5.933   0.990
78258SOL     OW36547   2.050   0.800  13.979
78258SOL    HW136548   2.068   0.707  13.983
78258SOL    HW236549   2.100   0.838  14.051
78259SOL     OW36550   5.978   3.384   7.426
78259SOL    HW136551   6.019   3.391   7.513
78259SOL    HW236552   5.978   3.473   7.392
78260SOL     OW36553  11.334   9.961   8.829
78260SOL    HW136554  11.269   9.984   8.895
78260SOL    HW236555  11.417   9.961   8.876
78261SOL     OW36556   0.766   7.970  12.642
78261SOL    HW136557   0.788   8.031  12.712
78261SOL    HW236558   0.705   7.908  12.682
78262SOL     OW36559  14.544   4.724   3.320
78262SOL    HW136560  14.523   4.816   3.302
78262SOL    HW236561  14.470   4.694   3.373
78263SOL     OW36562  10.557   9.277   7.639
78263SOL    HW136563  10.542   9.309   7.728
78263SOL    HW236564  10.472   9.244   7.611
78264SOL     OW36565   1.384   3.118   0.649
78264SOL    HW136566   1.359   3.210   0.643
78264SOL    HW236567   1.376   3.084   0.560
78265SOL     OW36568   2.630  13.911  12.943
78265SOL    HW136569   2.670  13.990  12.980
78265SOL    HW236570   2.676  13.839  12.985
78266SOL     OW36571  10.599  12.912   7.792
78266SOL    HW136572  10.575  13.003   7.807
78266SOL    HW236573  10.548  12.886   7.715
78267SOL     OW36574   5.199  10.318   8.633
78267SOL    HW136575   5.271  10.327   8.695
78267SOL    HW236576   5.164  10.406   8.623
78268SOL     OW36577   1.937  11.539   3.111
78268SOL    HW136578   1.930  11.522   3.205
78268SOL    HW236579   1.974  11.628   3.106
78269SOL     OW36580  12.194   5.206  10.693
78269SOL    HW136581  12.284   5.197  10.661
78269SOL    HW236582  12.153   5.267  10.633
78270SOL     OW36583   3.880  10.064   0.194
78270SOL    HW136584   3.787  10.048   0.213
78270SOL    HW236585   3.883  10.154   0.164
78271SOL     OW36586   9.161  14.496  13.918
78271SOL    HW136587   9.161  14.466  13.827
78271SOL    HW236588   9.149  14.591  13.912
78272SOL     OW36589  12.207  13.943   2.278
78272SOL    HW136590  12.159  13.884   2.336
78272SOL    HW236591  12.286  13.966   2.327
78273SOL     OW36592   3.692   2.047   8.942
78273SOL    HW136593   3.753   2.119   8.927
78273SOL    HW236594   3.731   1.973   8.895
78274SOL     OW36595  11.076   6.995   6.221
78274SOL    HW136596  11.022   7.072   6.239
78274SOL    HW236597  11.117   7.015   6.137
78275SOL     OW36598  14.415   8.339   4.264
78275SOL    HW136599  14.417   8.245   4.245
78275SOL    HW236600  14.464   8.347   4.346
78276SOL     OW36601   6.973   2.878  11.191
78276SOL    HW136602   6.908   2.807  11.191
78276SOL    HW236603   6.948   2.933  11.265
78277SOL     OW36604   8.974   1.005  11.311
78277SOL    HW136605   8.889   0.995  11.269
78277SOL    HW236606   9.035   1.020  11.238
78278SOL     OW36607   3.115   3.571  11.644
78278SOL    HW136608   3.209   3.569  11.627
78278SOL    HW236609   3.098   3.492  11.695
78279SOL     OW36610   9.794  13.229  12.927
78279SOL    HW136611   9.816  13.137  12.912
78279SOL    HW236612   9.876  13.269  12.955
78280SOL     OW36613  14.714  10.331   2.624
78280SOL    HW136614  14.757  10.252   2.592
78280SOL    HW236615  14.631  10.300   2.662
78281SOL     OW36616   2.205   9.924   4.541
78281SOL    HW136617   2.230   9.927   4.634
78281SOL    HW236618   2.236   9.839   4.511
78282SOL     OW36619   2.990   1.669   4.825
78282SOL    HW136620   2.955   1.643   4.740
78282SOL    HW236621   3.003   1.586   4.872
78283SOL     OW36622  10.073  11.574  14.351
78283SOL    HW136623  10.106  11.660  14.379
78283SOL    HW236624  10.049  11.530  14.433
78284SOL     OW36625  10.189   8.819   7.534
78284SOL    HW136626  10.111   8.871   7.551
78284SOL    HW236627  10.164   8.758   7.465
78285SOL     OW36628   6.386  14.206  12.460
78285SOL    HW136629   6.436  14.184  12.381
78285SOL    HW236630   6.446  14.260  12.511
78286SOL     OW36631   7.968  13.685   3.395
78286SOL    HW136632   8.000  13.611   3.344
78286SOL    HW236633   7.986  13.661   3.486
78287SOL     OW36634  10.767   7.304   2.332
78287SOL    HW136635  10.682   7.343   2.316
78287SOL    HW236636  10.787   7.255   2.251
78288SOL     OW36637  11.474   0.685   3.290
78288SOL    HW136638  11.566   0.685   3.317
78288SOL    HW236639  11.462   0.769   3.247
78289SOL     OW36640  12.036   1.087   3.585
78289SOL    HW136641  11.957   1.056   3.629
78289SOL    HW236642  12.032   1.049   3.497
78290SOL     OW36643  10.200   1.580  13.516
78290SOL    HW136644  10.190   1.663  13.470
78290SOL    HW236645  10.140   1.520  13.470
78291SOL     OW36646   1.911   7.843   2.939
78291SOL    HW136647   1.819   7.844   2.913
78291SOL    HW236648   1.914   7.784   3.014
78292SOL     OW36649   8.079  13.278   6.208
78292SOL    HW136650   8.079  13.321   6.294
78292SOL    HW236651   7.989  13.248   6.196
78293SOL     OW36652   4.428  13.892  12.800
78293SOL    HW136653   4.396  13.831  12.866
78293SOL    HW236654   4.521  13.872  12.792
78294SOL     OW36655   9.884   1.797   4.784
78294SOL    HW136656   9.885   1.711   4.743
78294SOL    HW236657   9.974   1.810   4.815
78295SOL     OW36658  10.842   6.001  13.661
78295SOL    HW136659  10.910   6.012  13.595
78295SOL    HW236660  10.863   6.066  13.728
78296SOL     OW36661  14.742   4.534   2.909
78296SOL    HW136662  14.832   4.537   2.877
78296SOL    HW236663  14.716   4.443   2.901
78297SOL     OW36664  10.142   5.009   0.417
78297SOL    HW136665  10.116   5.097   0.444
78297SOL    HW236666  10.216   4.987   0.474
78298SOL     OW36667  14.828  13.303  13.163
78298SOL    HW136668  14.869  13.338  13.242
78298SOL    HW236669  14.875  13.222  13.145
78299SOL     OW36670   8.497  11.072   9.782
78299SOL    HW136671   8.519  11.147   9.727
78299SOL    HW236672   8.582  11.033   9.804
78300SOL     OW36673   9.742   1.774   1.573
78300SOL    HW136674   9.747   1.694   1.625
78300SOL    HW236675   9.833   1.796   1.553
78301SOL     OW36676   7.972  10.635  14.774
78301SOL    HW136677   7.989  10.564  14.712
78301SOL    HW236678   7.905  10.601  14.832
78302SOL     OW36679  10.657   8.833   4.568
78302SOL    HW136680  10.711   8.801   4.640
78302SOL    HW236681  10.676   8.773   4.496
78303SOL     OW36682  14.571   6.867   1.854
78303SOL    HW136683  14.562   6.809   1.930
78303SOL    HW236684  14.481   6.884   1.827
78304SOL     OW36685   1.934  11.946   5.968
78304SOL    HW136686   1.993  11.871   5.972
78304SOL    HW236687   1.955  11.990   5.886
78305SOL     OW36688   3.492  12.442   8.172
78305SOL    HW136689   3.520  12.375   8.235
78305SOL    HW236690   3.472  12.394   8.092
78306SOL     OW36691   3.757  10.616  12.081
78306SOL    HW136692   3.852  10.604  12.071
78306SOL    HW236693   3.737  10.585  12.169
78307SOL     OW36694   5.926  12.693   1.597
78307SOL    HW136695   5.914  12.626   1.529
78307SOL    HW236696   5.968  12.766   1.552
78308SOL     OW36697   7.481  11.335   5.141
78308SOL    HW136698   7.457  11.368   5.054
78308SOL    HW236699   7.410  11.274   5.163
78309SOL     OW36700   2.784   3.388   3.506
78309SOL    HW136701   2.762   3.328   3.436
78309SOL    HW236702   2.699   3.414   3.543
78310SOL     OW36703   6.267   3.553   8.356
78310SOL    HW136704   6.183   3.527   8.319
78310SOL    HW236705   6.283   3.490   8.426
78311SOL     OW36706  11.078  12.297   9.060
78311SOL    HW136707  11.042  12.261   9.141
78311SOL    HW236708  11.107  12.221   9.011
78312SOL     OW36709   2.153   4.287  12.500
78312SOL    HW136710   2.226   4.338  12.536
78312SOL    HW236711   2.112   4.247  12.577
78313SOL     OW36712   8.148   7.461   5.985
78313SOL    HW136713   8.231   7.491   5.950
78313SOL    HW236714   8.087   7.468   5.912
78314SOL     OW36715   7.781   6.873   1.298
78314SOL    HW136716   7.809   6.938   1.233
78314SOL    HW236717   7.850   6.807   1.296
78315SOL     OW36718   2.828   9.016   6.689
78315SOL    HW136719   2.920   9.038   6.703
78315SOL    HW236720   2.818   8.931   6.732
78316SOL     OW36721   8.590  10.445  12.413
78316SOL    HW136722   8.605  10.420  12.322
78316SOL    HW236723   8.595  10.362  12.461
78317SOL     OW36724  10.653   5.105   8.685
78317SOL    HW136725  10.727   5.057   8.722
78317SOL    HW236726  10.663   5.097   8.591
78318SOL     OW36727  12.539   8.987   9.370
78318SOL    HW136728  12.481   9.019   9.439
78318SOL    HW236729  12.481   8.962   9.299
78319SOL     OW36730   4.177  14.721   0.778
78319SOL    HW136731   4.136  14.692   0.860
78319SOL    HW236732   4.178  14.643   0.723
78320SOL     OW36733   4.299   1.980   4.291
78320SOL    HW136734   4.325   2.003   4.202
78320SOL    HW236735   4.259   2.060   4.325
78321SOL     OW36736  12.995   6.174   7.173
78321SOL    HW136737  13.062   6.234   7.139
78321SOL    HW236738  12.997   6.100   7.112
78322SOL     OW36739   9.255   1.513   9.245
78322SOL    HW136740   9.326   1.570   9.213
78322SOL    HW236741   9.297   1.460   9.313
78323SOL     OW36742   4.464  12.337   6.131
78323SOL    HW136743   4.414  12.280   6.190
78323SOL    HW236744   4.521  12.387   6.188
78324SOL     OW36745  11.314   9.798  14.189
78324SOL    HW136746  11.237   9.777  14.135
78324SOL    HW236747  11.335   9.716  14.233
78325SOL     OW36748  11.026  12.685   2.849
78325SOL    HW136749  11.096  12.635   2.807
78325SOL    HW236750  10.947  12.660   2.801
78326SOL     OW36751   8.777  10.585   7.227
78326SOL    HW136752   8.781  10.671   7.269
78326SOL    HW236753   8.779  10.604   7.133
78327SOL     OW36754  14.606  12.966  10.806
78327SOL    HW136755  14.532  12.980  10.864
78327SOL    HW236756  14.573  12.909  10.737
78328SOL     OW36757  13.900   5.697   0.965
78328SOL    HW136758  13.840   5.766   0.938
78328SOL    HW236759  13.944   5.671   0.884
78329SOL     OW36760   6.590   1.875  10.080
78329SOL    HW136761   6.574   1.956  10.031
78329SOL    HW236762   6.684   1.876  10.098
78330SOL     OW36763  13.448   7.982   8.662
78330SOL    HW136764  13.359   7.987   8.629
78330SOL    HW236765  13.475   8.073   8.673
78331SOL     OW36766   6.858   7.134   9.248
78331SOL    HW136767   6.931   7.134   9.185
78331SOL    HW236768   6.782   7.105   9.197
78332SOL     OW36769  11.000   9.139  11.152
78332SOL    HW136770  11.073   9.108  11.099
78332SOL    HW236771  11.026   9.120  11.243
78333SOL     OW36772   8.865   0.244   4.098
78333SOL    HW136773   8.955   0.218   4.114
78333SOL    HW236774   8.851   0.320   4.153
78334SOL     OW36775  12.722   0.940  14.546
78334SOL    HW136776  12.657   0.989  14.596
78334SOL    HW236777  12.806   0.976  14.574
78335SOL     OW36778  13.817   3.685   9.004
78335SOL    HW136779  13.778   3.629   8.937
78335SOL    HW236780  13.908   3.657   9.009
78336SOL     OW36781   5.904   1.687   2.265
78336SOL    HW136782   5.932   1.702   2.174
78336SOL    HW236783   5.843   1.758   2.283
78337SOL     OW36784   4.076   8.517   7.856
78337SOL    HW136785   4.164   8.495   7.888
78337SOL    HW236786   4.090   8.546   7.766
78338SOL     OW36787  10.329   2.575  10.466
78338SOL    HW136788  10.311   2.647  10.526
78338SOL    HW236789  10.244   2.533  10.453
78339SOL     OW36790   1.871   9.189  10.591
78339SOL    HW136791   1.897   9.281  10.597
78339SOL    HW236792   1.948   9.145  10.556
78340SOL     OW36793  12.095  11.006   6.824
78340SOL    HW136794  12.013  11.052   6.841
78340SOL    HW236795  12.068  10.922   6.787
78341SOL     OW36796  12.988  10.772   8.334
78341SOL    HW136797  13.033  10.779   8.418
78341SOL    HW236798  13.018  10.690   8.297
78342SOL     OW36799   1.852  12.540   7.559
78342SOL    HW136800   1.786  12.550   7.490
78342SOL    HW236801   1.809  12.573   7.638
78343SOL     OW36802   2.228   7.582   8.638
78343SOL    HW136803   2.228   7.630   8.555
78343SOL    HW236804   2.165   7.630   8.692
78344SOL     OW36805  13.413   1.752   2.121
78344SOL    HW136806  13.369   1.688   2.177
78344SOL    HW236807  13.485   1.786   2.175
78345SOL     OW36808   4.251   9.859   5.090
78345SOL    HW136809   4.263   9.940   5.140
78345SOL    HW236810   4.240   9.792   5.157
78346SOL     OW36811   0.457   0.559   4.191
78346SOL    HW136812   0.414   0.519   4.115
78346SOL    HW236813   0.429   0.507   4.265
78347SOL     OW36814   7.042  10.489   1.690
78347SOL    HW136815   6.988  10.417   1.656
78347SOL    HW236816   7.115  10.494   1.629
78348SOL     OW36817   3.680  13.336   7.121
78348SOL    HW136818   3.633  13.397   7.178
78348SOL    HW236819   3.614  13.306   7.059
78349SOL     OW36820  13.210   4.934   4.457
78349SOL    HW136821  13.210   5.016   4.506
78349SOL    HW236822  13.167   4.955   4.375
78350SOL     OW36823  10.693  14.761   6.863
78350SOL    HW136824  10.749  14.691   6.898
78350SOL    HW236825  10.677  14.818   6.939
78351SOL     OW36826  14.864  11.676  12.792
78351SOL    HW136827   0.045  11.613  12.834
78351SOL    HW236828   0.026  11.762  12.810
78352SOL     OW36829   7.984  11.764  13.919
78352SOL    HW136830   7.948  11.733  14.002
78352SOL    HW236831   7.921  11.734  13.853
78353SOL     OW36832  12.017   3.330   8.055
78353SOL    HW136833  11.948   3.309   7.992
78353SOL    HW236834  12.092   3.277   8.027
78354SOL     OW36835  13.470  13.225   3.677
78354SOL    HW136836  13.561  13.245   3.696
78354SOL    HW236837  13.474  13.143   3.627
78355SOL     OW36838   2.131   3.303   0.636
78355SOL    HW136839   2.204   3.262   0.681
78355SOL    HW236840   2.127   3.391   0.673
78356SOL     OW36841  13.778   8.687   4.673
78356SOL    HW136842  13.689   8.712   4.699
78356SOL    HW236843  13.777   8.591   4.675
78357SOL     OW36844   8.640   2.144   2.366
78357SOL    HW136845   8.720   2.131   2.416
78357SOL    HW236846   8.623   2.060   2.324
78358SOL     OW36847  10.059   8.569   6.017
78358SOL    HW136848   9.991   8.551   6.082
78358SOL    HW236849  10.135   8.595   6.068
78359SOL     OW36850   4.141   6.441   9.594
78359SOL    HW136851   4.174   6.522   9.558
78359SOL    HW236852   4.175   6.438   9.684
78360SOL     OW36853   6.027   8.201  12.973
78360SOL    HW136854   5.949   8.243  13.009
78360SOL    HW236855   6.009   8.107  12.979
78361SOL     OW36856   8.358   0.092   8.594
78361SOL    HW136857   8.423   0.123   8.531
78361SOL    HW236858   8.296   0.164   8.603
78362SOL     OW36859  14.099   4.748   8.033
78362SOL    HW136860  14.007   4.724   8.023
78362SOL    HW236861  14.147   4.667   8.017
78363SOL     OW36862   9.712   1.744  14.305
78363SOL    HW136863   9.653   1.774  14.374
78363SOL    HW236864   9.760   1.671  14.345
78364SOL     OW36865  10.626  11.814   6.124
78364SOL    HW136866  10.567  11.864   6.067
78364SOL    HW236867  10.606  11.722   6.105
78365SOL     OW36868   9.655  11.235   1.307
78365SOL    HW136869   9.616  11.268   1.226
78365SOL    HW236870   9.678  11.313   1.357
78366SOL     OW36871   2.013   9.583  13.848
78366SOL    HW136872   1.960   9.623  13.917
78366SOL    HW236873   2.102   9.611  13.868
78367SOL     OW36874  14.812   7.504   4.048
78367SOL    HW136875   0.024   7.474   4.031
78367SOL    HW236876  14.820   7.599   4.056
78368SOL     OW36877  14.790   8.132   1.055
78368SOL    HW136878  14.777   8.152   0.963
78368SOL    HW236879  14.854   8.061   1.056
78369SOL     OW36880   3.534   9.417   6.626
78369SOL    HW136881   3.442   9.438   6.644
78369SOL    HW236882   3.570   9.498   6.591
78370SOL     OW36883  13.761   0.062  13.102
78370SOL    HW136884  13.680   0.098  13.139
78370SOL    HW236885  13.732  14.866  13.048
78371SOL     OW36886   3.108   6.748  14.722
78371SOL    HW136887   3.092   6.746  14.628
78371SOL    HW236888   3.149   6.834  14.738
78372SOL     OW36889   9.814  12.879   9.803
78372SOL    HW136890   9.783  12.835   9.881
78372SOL    HW236891   9.908  12.891   9.818
78373SOL     OW36892  14.604   7.920  12.612
78373SOL    HW136893  14.569   8.000  12.572
78373SOL    HW236894  14.552   7.849  12.575
78374SOL     OW36895  11.826   3.592  12.075
78374SOL    HW136896  11.872   3.665  12.035
78374SOL    HW236897  11.817   3.617  12.167
78375SOL     OW36898  13.977   0.684   1.998
78375SOL    HW136899  13.916   0.643   1.936
78375SOL    HW236900  13.957   0.777   1.992
78376SOL     OW36901   2.202  12.027  12.661
78376SOL    HW136902   2.220  12.038  12.567
78376SOL    HW236903   2.152  11.945  12.666
78377SOL     OW36904  10.167   7.656   3.939
78377SOL    HW136905  10.189   7.563   3.932
78377SOL    HW236906  10.239   7.694   3.989
78378SOL     OW36907   9.609   1.658   9.842
78378SOL    HW136908   9.675   1.620   9.784
78378SOL    HW236909   9.526   1.643   9.797
78379SOL     OW36910   7.494   0.508   3.268
78379SOL    HW136911   7.574   0.489   3.317
78379SOL    HW236912   7.486   0.603   3.271
78380SOL     OW36913  10.399  10.076  11.585
78380SOL    HW136914  10.468  10.011  11.599
78380SOL    HW236915  10.318  10.029  11.604
78381SOL     OW36916  12.135  11.563  12.472
78381SOL    HW136917  12.098  11.479  12.500
78381SOL    HW236918  12.098  11.627  12.532
78382SOL     OW36919   5.842  13.999   7.531
78382SOL    HW136920   5.773  13.981   7.595
78382SOL    HW236921   5.892  13.918   7.525
78383SOL     OW36922   3.826   2.519   8.111
78383SOL    HW136923   3.733   2.504   8.127
78383SOL    HW236924   3.853   2.576   8.183
78384SOL     OW36925   9.951   6.472  13.908
78384SOL    HW136926  10.013   6.406  13.939
78384SOL    HW236927   9.936   6.528  13.984
78385SOL     OW36928  10.882   6.523   8.360
78385SOL    HW136929  10.809   6.555   8.412
78385SOL    HW236930  10.843   6.464   8.296
78386SOL     OW36931   1.872   7.335  12.432
78386SOL    HW136932   1.915   7.377  12.358
78386SOL    HW236933   1.781   7.324  12.403
78387SOL     OW36934   3.461   7.840   5.873
78387SOL    HW136935   3.460   7.885   5.789
78387SOL    HW236936   3.430   7.752   5.853
78388SOL     OW36937   3.766  13.481   6.071
78388SOL    HW136938   3.705  13.411   6.095
78388SOL    HW236939   3.831  13.480   6.141
78389SOL     OW36940   7.481   5.749  14.064
78389SOL    HW136941   7.505   5.780  13.977
78389SOL    HW236942   7.559   5.765  14.117
78390SOL     OW36943  14.419   3.224   2.348
78390SOL    HW136944  14.396   3.171   2.425
78390SOL    HW236945  14.382   3.310   2.366
78391SOL     OW36946  14.810   6.323   7.338
78391SOL    HW136947  14.773   6.406   7.309
78391SOL    HW236948  14.734   6.265   7.348
78392SOL     OW36949   1.891   7.900   6.324
78392SOL    HW136950   1.972   7.933   6.362
78392SOL    HW236951   1.851   7.849   6.395
78393SOL     OW36952   3.402   3.428   1.969
78393SOL    HW136953   3.443   3.358   2.021
78393SOL    HW236954   3.429   3.411   1.879
78394SOL     OW36955  12.649   8.095   8.521
78394SOL    HW136956  12.637   8.177   8.473
78394SOL    HW236957  12.701   8.120   8.598
78395SOL     OW36958   6.303  12.742   5.296
78395SOL    HW136959   6.310  12.734   5.201
78395SOL    HW236960   6.214  12.774   5.311
78396SOL     OW36961   5.750   3.636  13.747
78396SOL    HW136962   5.754   3.557  13.801
78396SOL    HW236963   5.804   3.615  13.670
78397SOL     OW36964   5.069   4.055   4.870
78397SOL    HW136965   4.976   4.054   4.851
78397SOL    HW236966   5.084   3.980   4.928
78398SOL     OW36967   4.872   4.895  10.927
78398SOL    HW136968   4.938   4.883  10.859
78398SOL    HW236969   4.855   4.989  10.928
78399SOL     OW36970   8.995  12.545   9.697
78399SOL    HW136971   8.944  12.583   9.625
78399SOL    HW236972   8.947  12.570   9.776
78400SOL     OW36973   7.586   7.947  13.485
78400SOL    HW136974   7.620   7.974  13.400
78400SOL    HW236975   7.640   7.994  13.549
78401SOL     OW36976   9.478  10.084  14.562
78401SOL    HW136977   9.548  10.127  14.514
78401SOL    HW236978   9.510   9.995  14.578
78402SOL     OW36979   5.459   1.220  12.774
78402SOL    HW136980   5.519   1.178  12.713
78402SOL    HW236981   5.514   1.283  12.822
78403SOL     OW36982  10.416  14.799   4.932
78403SOL    HW136983  10.460  14.860   4.991
78403SOL    HW236984  10.485  14.771   4.872
78404SOL     OW36985   8.391   1.347  11.718
78404SOL    HW136986   8.400   1.317  11.808
78404SOL    HW236987   8.363   1.438  11.726
78405SOL     OW36988  10.702  14.680   0.445
78405SOL    HW136989  10.678  14.772   0.449
78405SOL    HW236990  10.640  14.641   0.383
78406SOL     OW36991   5.707   9.099   1.646
78406SOL    HW136992   5.636   9.036   1.633
78406SOL    HW236993   5.668   9.184   1.622
78407SOL     OW36994  11.718   9.173   3.814
78407SOL    HW136995  11.758   9.251   3.852
78407SOL    HW236996  11.681   9.127   3.888
78408SOL     OW36997   2.308   9.104   1.939
78408SOL    HW136998   2.236   9.051   1.905
78408SOL    HW236999   2.377   9.041   1.960
78409SOL     OW37000   5.642   6.929   1.784
78409SOL    HW137001   5.586   6.902   1.858
78409SOL    HW237002   5.702   6.856   1.772
78410SOL     OW37003   3.304  12.252   6.485
78410SOL    HW137004   3.300  12.242   6.390
78410SOL    HW237005   3.394  12.277   6.504
78411SOL     OW37006   7.493   5.784   3.065
78411SOL    HW137007   7.496   5.705   3.011
78411SOL    HW237008   7.407   5.823   3.046
78412SOL     OW37009  11.393   8.597   3.436
78412SOL    HW137010  11.451   8.636   3.502
78412SOL    HW237011  11.453   8.566   3.368
78413SOL     OW37012   4.868   8.021   9.795
78413SOL    HW137013   4.860   7.973   9.877
78413SOL    HW237014   4.789   8.075   9.791
78414SOL     OW37015   4.424  13.901   6.266
78414SOL    HW137016   4.342  13.852   6.269
78414SOL    HW237017   4.398  13.992   6.279
78415SOL     OW37018  11.691  13.497  13.808
78415SOL    HW137019  11.638  13.469  13.882
78415SOL    HW237020  11.630  13.501  13.734
78416SOL     OW37021  12.416   2.033  14.025
78416SOL    HW137022  12.325   2.065  14.031
78416SOL    HW237023  12.447   2.031  14.115
78417SOL     OW37024   0.369   9.105   2.122
78417SOL    HW137025   0.397   9.191   2.092
78417SOL    HW237026   0.338   9.060   2.043
78418SOL     OW37027   3.614  11.473   7.683
78418SOL    HW137028   3.607  11.492   7.777
78418SOL    HW237029   3.530  11.433   7.661
78419SOL     OW37030   1.307  11.630  11.430
78419SOL    HW137031   1.235  11.668  11.480
78419SOL    HW237032   1.280  11.540  11.414
78420SOL     OW37033   8.395   0.923   2.748
78420SOL    HW137034   8.486   0.902   2.731
78420SOL    HW237035   8.374   0.878   2.830
78421SOL     OW37036   2.851   7.885   4.365
78421SOL    HW137037   2.826   7.941   4.292
78421SOL    HW237038   2.784   7.900   4.431
78422SOL     OW37039   9.433  10.740   6.299
78422SOL    HW137040   9.446  10.645   6.291
78422SOL    HW237041   9.517  10.777   6.272
78423SOL     OW37042   3.193  12.009   2.650
78423SOL    HW137043   3.205  11.930   2.596
78423SOL    HW237044   3.113  11.992   2.700
78424SOL     OW37045  12.614   3.873   9.829
78424SOL    HW137046  12.709   3.886   9.824
78424SOL    HW237047  12.597   3.859   9.922
78425SOL     OW37048  12.534   9.579  10.519
78425SOL    HW137049  12.452   9.603  10.563
78425SOL    HW237050  12.601   9.589  10.586
78426SOL     OW37051   9.718   0.055   4.799
78426SOL    HW137052   9.771   0.134   4.788
78426SOL    HW237053   9.730   0.005   4.718
78427SOL     OW37054  12.134  11.358   8.424
78427SOL    HW137055  12.049  11.377   8.386
78427SOL    HW237056  12.163  11.441   8.462
78428SOL     OW37057   3.861   7.028   9.433
78428SOL    HW137058   3.833   7.085   9.361
78428SOL    HW237059   3.902   7.088   9.495
78429SOL     OW37060   7.690  10.070   6.054
78429SOL    HW137061   7.597  10.046   6.053
78429SOL    HW237062   7.693  10.155   6.010
78430SOL     OW37063  10.995   2.319  10.099
78430SOL    HW137064  10.996   2.401  10.050
78430SOL    HW237065  11.043   2.258  10.044
78431SOL     OW37066   6.714   1.573   7.381
78431SOL    HW137067   6.785   1.636   7.368
78431SOL    HW237068   6.676   1.596   7.466
78432SOL     OW37069   8.800   0.119  12.927
78432SOL    HW137070   8.873   0.152  12.874
78432SOL    HW237071   8.801   0.175  13.005
78433SOL     OW37072   9.600   6.419   5.783
78433SOL    HW137073   9.693   6.412   5.764
78433SOL    HW237074   9.563   6.462   5.706
78434SOL     OW37075   9.254   1.963   2.545
78434SOL    HW137076   9.342   1.977   2.512
78434SOL    HW237077   9.225   1.881   2.504
78435SOL     OW37078  13.139  14.623  10.635
78435SOL    HW137079  13.114  14.712  10.611
78435SOL    HW237080  13.066  14.590  10.687
78436SOL     OW37081   9.066  13.273   2.762
78436SOL    HW137082   9.077  13.177   2.763
78436SOL    HW237083   9.131  13.305   2.824
78437SOL     OW37084   9.081   7.099   9.289
78437SOL    HW137085   9.097   7.033   9.222
78437SOL    HW237086   9.147   7.166   9.274
78438SOL     OW37087   6.544   0.771  10.113
78438SOL    HW137088   6.524   0.834  10.044
78438SOL    HW237089   6.541   0.685  10.070
78439SOL     OW37090  14.432   1.034   2.779
78439SOL    HW137091  14.523   1.063   2.792
78439SOL    HW237092  14.437   0.938   2.783
78440SOL     OW37093  11.077   8.279  14.374
78440SOL    HW137094  11.050   8.304  14.462
78440SOL    HW237095  11.152   8.335  14.354
78441SOL     OW37096   2.675   2.322  14.327
78441SOL    HW137097   2.656   2.240  14.281
78441SOL    HW237098   2.612   2.325  14.398
78442SOL     OW37099   4.911   5.055   6.546
78442SOL    HW137100   4.864   5.105   6.479
78442SOL    HW237101   4.856   5.063   6.625
78443SOL     OW37102   6.069   7.894   2.574
78443SOL    HW137103   6.037   7.841   2.501
78443SOL    HW237104   6.161   7.870   2.583
78444SOL     OW37105   8.879  14.258   3.386
78444SOL    HW137106   8.908  14.343   3.353
78444SOL    HW237107   8.955  14.224   3.432
78445SOL     OW37108  10.307  14.326  12.294
78445SOL    HW137109  10.346  14.372  12.369
78445SOL    HW237110  10.379  14.314  12.233
78446SOL     OW37111   4.028   3.709  13.262
78446SOL    HW137112   4.066   3.778  13.207
78446SOL    HW237113   3.935   3.711  13.242
78447SOL     OW37114   2.120   5.459   9.916
78447SOL    HW137115   2.120   5.367   9.892
78447SOL    HW237116   2.063   5.501   9.851
78448SOL     OW37117  10.780  13.567   4.526
78448SOL    HW137118  10.812  13.613   4.604
78448SOL    HW237119  10.803  13.475   4.542
78449SOL     OW37120   9.511  12.274   0.911
78449SOL    HW137121   9.557  12.357   0.926
78449SOL    HW237122   9.580  12.208   0.909
78450SOL     OW37123  12.290   2.269   9.494
78450SOL    HW137124  12.306   2.189   9.545
78450SOL    HW237125  12.285   2.339   9.559
78451SOL     OW37126  11.983   8.041  12.487
78451SOL    HW137127  11.945   7.982  12.552
78451SOL    HW237128  12.071   8.058  12.519
78452SOL     OW37129   6.936   1.571  14.066
78452SOL    HW137130   6.874   1.641  14.046
78452SOL    HW237131   6.951   1.578  14.161
78453SOL     OW37132   9.842  13.949   6.945
78453SOL    HW137133   9.858  14.043   6.949
78453SOL    HW237134   9.927  13.909   6.965
78454SOL     OW37135  14.849   1.466  10.473
78454SOL    HW137136  14.828   1.416  10.394
78454SOL    HW237137   0.041   1.526  10.446
78455SOL     OW37138   9.501   1.162   6.366
78455SOL    HW137139   9.547   1.097   6.313
78455SOL    HW237140   9.477   1.115   6.446
78456SOL     OW37141  10.276  14.516   8.692
78456SOL    HW137142  10.268  14.548   8.781
78456SOL    HW237143  10.364  14.480   8.687
78457SOL     OW37144  14.038   4.858  13.336
78457SOL    HW137145  13.979   4.783  13.353
78457SOL    HW237146  14.017   4.885  13.247
78458SOL     OW37147  10.696   7.936  13.670
78458SOL    HW137148  10.774   7.920  13.724
78458SOL    HW237149  10.732   7.967  13.586
78459SOL     OW37150  12.441   1.857   2.985
78459SOL    HW137151  12.394   1.902   3.055
78459SOL    HW237152  12.524   1.904   2.978
78460SOL     OW37153   6.494   2.178  10.751
78460SOL    HW137154   6.487   2.225  10.668
78460SOL    HW237155   6.504   2.086  10.725
78461SOL     OW37156   3.578   7.042   9.501
78461SOL    HW137157   3.666   7.022   9.469
78461SOL    HW237158   3.556   7.126   9.459
78462SOL     OW37159   3.408  12.156   7.801
78462SOL    HW137160   3.419  12.250   7.817
78462SOL    HW237161   3.335  12.130   7.857
78463SOL     OW37162   0.945  12.894   5.476
78463SOL    HW137163   0.858  12.861   5.451
78463SOL    HW237164   1.006  12.846   5.419
78464SOL     OW37165   9.825  13.885   2.048
78464SOL    HW137166   9.863  13.814   2.100
78464SOL    HW237167   9.829  13.961   2.105
78465SOL     OW37168   4.348   0.454   6.949
78465SOL    HW137169   4.409   0.509   6.999
78465SOL    HW237170   4.326   0.507   6.872
78466SOL     OW37171  10.089   7.978   0.618
78466SOL    HW137172   9.993   7.973   0.616
78466SOL    HW237173  10.109   8.070   0.602
78467SOL     OW37174   1.522  11.436  13.320
78467SOL    HW137175   1.453  11.492  13.356
78467SOL    HW237176   1.518  11.357  13.373
78468SOL     OW37177  14.020  11.209  13.321
78468SOL    HW137178  13.941  11.157  13.305
78468SOL    HW237179  14.090  11.145  13.328
78469SOL     OW37180  11.377   9.035   8.585
78469SOL    HW137181  11.294   8.996   8.611
78469SOL    HW237182  11.430   8.961   8.555
78470SOL     OW37183   2.248   6.092  14.350
78470SOL    HW137184   2.295   6.062  14.428
78470SOL    HW237185   2.211   6.013  14.312
78471SOL     OW37186   4.054   4.067   0.929
78471SOL    HW137187   3.999   4.042   0.855
78471SOL    HW237188   4.078   4.158   0.911
78472SOL     OW37189  10.140   8.439   1.183
78472SOL    HW137190  10.110   8.348   1.177
78472SOL    HW237191  10.192   8.442   1.263
78473SOL     OW37192   0.619   7.636   7.363
78473SOL    HW137193   0.555   7.645   7.433
78473SOL    HW237194   0.583   7.568   7.306
78474SOL     OW37195   2.294  10.428  14.189
78474SOL    HW137196   2.261  10.445  14.100
78474SOL    HW237197   2.225  10.458  14.247
78475SOL     OW37198  14.773   1.945   1.392
78475SOL    HW137199  14.866   1.968   1.397
78475SOL    HW237200  14.736   1.982   1.472
78476SOL     OW37201   9.337   8.637   3.377
78476SOL    HW137202   9.264   8.696   3.396
78476SOL    HW237203   9.326   8.614   3.285
78477SOL     OW37204   9.822   4.917   5.652
78477SOL    HW137205   9.819   5.012   5.647
78477SOL    HW237206   9.896   4.892   5.595
78478SOL     OW37207  11.433   1.303  11.869
78478SOL    HW137208  11.412   1.229  11.925
78478SOL    HW237209  11.410   1.380  11.921
78479SOL     OW37210   7.904   1.246   4.594
78479SOL    HW137211   7.944   1.324   4.557
78479SOL    HW237212   7.822   1.236   4.547
78480SOL     OW37213   3.497   2.606   8.295
78480SOL    HW137214   3.522   2.546   8.225
78480SOL    HW237215   3.439   2.669   8.252
78481SOL     OW37216  13.015  13.558   9.980
78481SOL    HW137217  13.053  13.592   9.899
78481SOL    HW237218  13.014  13.463   9.968
78482SOL     OW37219  14.222  10.888   3.977
78482SOL    HW137220  14.246  10.863   3.887
78482SOL    HW237221  14.219  10.805   4.025
78483SOL     OW37222  13.970  12.319  12.059
78483SOL    HW137223  14.050  12.295  12.107
78483SOL    HW237224  13.900  12.274  12.105
78484SOL     OW37225   5.308  10.204   1.345
78484SOL    HW137226   5.273  10.192   1.433
78484SOL    HW237227   5.243  10.257   1.300
78485SOL     OW37228   2.435  13.153  11.337
78485SOL    HW137229   2.432  13.057  11.342
78485SOL    HW237230   2.522  13.176  11.371
78486SOL     OW37231   3.123   5.968   1.242
78486SOL    HW137232   3.153   5.974   1.152
78486SOL    HW237233   3.200   5.937   1.291
78487SOL     OW37234   8.579  11.509   7.654
78487SOL    HW137235   8.499  11.457   7.669
78487SOL    HW237236   8.649  11.444   7.648
78488SOL     OW37237   5.218   0.363  13.639
78488SOL    HW137238   5.190   0.319  13.719
78488SOL    HW237239   5.137   0.395  13.599
78489SOL     OW37240   5.265  12.242   5.656
78489SOL    HW137241   5.312  12.192   5.722
78489SOL    HW237242   5.232  12.319   5.702
78490SOL     OW37243   9.966   4.415   8.985
78490SOL    HW137244   9.989   4.449   9.072
78490SOL    HW237245   9.899   4.348   9.003
78491SOL     OW37246   9.476   2.539  11.711
78491SOL    HW137247   9.436   2.510  11.792
78491SOL    HW237248   9.520   2.621  11.734
78492SOL     OW37249   5.385   5.889  12.744
78492SOL    HW137250   5.340   5.836  12.810
78492SOL    HW237251   5.444   5.945  12.795
78493SOL     OW37252  10.864   5.997  14.100
78493SOL    HW137253  10.777   6.031  14.081
78493SOL    HW237254  10.893   5.956  14.018
78494SOL     OW37255   5.668   0.747  10.950
78494SOL    HW137256   5.677   0.681  10.881
78494SOL    HW237257   5.663   0.696  11.031
78495SOL     OW37258  10.952  13.318   2.464
78495SOL    HW137259  10.921  13.386   2.404
78495SOL    HW237260  10.996  13.366   2.534
78496SOL     OW37261   9.672   4.091  11.125
78496SOL    HW137262   9.694   4.173  11.082
78496SOL    HW237263   9.676   4.026  11.055
78497SOL     OW37264   7.878   6.565  11.450
78497SOL    HW137265   7.835   6.480  11.456
78497SOL    HW237266   7.816   6.627  11.488
78498SOL     OW37267  13.941   8.736   4.206
78498SOL    HW137268  13.928   8.740   4.300
78498SOL    HW237269  14.035   8.743   4.194
78499SOL     OW37270   4.808  14.095   3.883
78499SOL    HW137271   4.797  14.004   3.855
78499SOL    HW237272   4.768  14.147   3.813
78500SOL     OW37273  12.770   7.166  11.855
78500SOL    HW137274  12.822   7.215  11.791
78500SOL    HW237275  12.835   7.123  11.911
78501SOL     OW37276   4.996   1.374   8.614
78501SOL    HW137277   5.034   1.342   8.696
78501SOL    HW237278   4.903   1.381   8.631
78502SOL     OW37279   2.803   3.422   3.898
78502SOL    HW137280   2.872   3.487   3.893
78502SOL    HW237281   2.836   3.347   3.849
78503SOL     OW37282   7.605   5.187  11.202
78503SOL    HW137283   7.659   5.110  11.187
78503SOL    HW237284   7.662   5.261  11.182
78504SOL     OW37285   1.470  13.948   0.756
78504SOL    HW137286   1.562  13.946   0.785
78504SOL    HW237287   1.470  13.895   0.677
78505SOL     OW37288   9.177   4.047  11.754
78505SOL    HW137289   9.228   3.987  11.699
78505SOL    HW237290   9.226   4.129  11.753
78506SOL     OW37291  10.550   0.776  14.739
78506SOL    HW137292  10.492   0.731  14.678
78506SOL    HW237293  10.500   0.853  14.767
78507SOL     OW37294  10.409  13.402   6.472
78507SOL    HW137295  10.491  13.356   6.488
78507SOL    HW237296  10.434  13.479   6.421
78508SOL     OW37297   3.977  12.205   0.205
78508SOL    HW137298   4.016  12.261   0.272
78508SOL    HW237299   3.910  12.260   0.164
78509SOL     OW37300  11.875  12.505   0.816
78509SOL    HW137301  11.900  12.430   0.762
78509SOL    HW237302  11.869  12.470   0.905
78510SOL     OW37303   2.031  14.225  14.373
78510SOL    HW137304   2.081  14.252  14.450
78510SOL    HW237305   2.092  14.238  14.300
78511SOL     OW37306   3.109  10.882   6.431
78511SOL    HW137307   3.181  10.827   6.398
78511SOL    HW237308   3.030  10.830   6.414
78512SOL     OW37309   9.559   2.392   4.140
78512SOL    HW137310   9.557   2.304   4.179
78512SOL    HW237311   9.479   2.396   4.087
78513SOL     OW37312   1.890   8.977  12.538
78513SOL    HW137313   1.864   9.069  12.547
78513SOL    HW237314   1.901   8.964  12.444
78514SOL     OW37315   9.207   6.419   9.553
78514SOL    HW137316   9.129   6.395   9.603
78514SOL    HW237317   9.179   6.411   9.462
78515SOL     OW37318   4.457   1.271  14.755
78515SOL    HW137319   4.394   1.204  14.727
78515SOL    HW237320   4.531   1.220  14.788
78516SOL     OW37321   3.776  11.903   7.128
78516SOL    HW137322   3.695  11.890   7.080
78516SOL    HW237323   3.834  11.833   7.097
78517SOL     OW37324  14.451   8.767  13.173
78517SOL    HW137325  14.542   8.755  13.201
78517SOL    HW237326  14.422   8.845  13.220
78518SOL     OW37327   2.676  10.168  11.416
78518SOL    HW137328   2.629  10.246  11.386
78518SOL    HW237329   2.764  10.177  11.380
78519SOL     OW37330  12.343  13.709   8.959
78519SOL    HW137331  12.287  13.686   9.033
78519SOL    HW237332  12.357  13.803   8.968
78520SOL     OW37333  10.154   0.208   0.346
78520SOL    HW137334  10.162   0.127   0.396
78520SOL    HW237335  10.154   0.180   0.255
78521SOL     OW37336   1.748   9.829  11.807
78521SOL    HW137337   1.805   9.905  11.803
78521SOL    HW237338   1.789   9.765  11.749
78522SOL     OW37339  10.075   0.017   0.154
78522SOL    HW137340  10.166   0.005   0.126
78522SOL    HW237341  10.025  14.837   0.096
78523SOL     OW37342   8.712   7.562  10.509
78523SOL    HW137343   8.737   7.544  10.600
78523SOL    HW237344   8.702   7.476  10.469
78524SOL     OW37345  10.592  11.531  13.061
78524SOL    HW137346  10.612  11.494  13.147
78524SOL    HW237347  10.497  11.524  13.053
78525SOL     OW37348   5.007   3.265  13.332
78525SOL    HW137349   5.058   3.340  13.362
78525SOL    HW237350   4.967   3.229  13.411
78526SOL     OW37351   5.469   9.711  10.668
78526SOL    HW137352   5.492   9.783  10.609
78526SOL    HW237353   5.390   9.674  10.631
78527SOL     OW37354   1.123   6.960  13.514
78527SOL    HW137355   1.077   6.890  13.468
78527SOL    HW237356   1.213   6.956  13.480
78528SOL     OW37357  12.425  10.551  11.203
78528SOL    HW137358  12.503  10.587  11.161
78528SOL    HW237359  12.404  10.473  11.151
78529SOL     OW37360   5.820  14.822   8.683
78529SOL    HW137361   5.743  14.769   8.701
78529SOL    HW237362   5.867  14.824   8.767
78530SOL     OW37363  12.559  12.384  13.466
78530SOL    HW137364  12.626  12.334  13.420
78530SOL    HW237365  12.538  12.332  13.543
78531SOL     OW37366   6.489  10.519   8.472
78531SOL    HW137367   6.397  10.496   8.459
78531SOL    HW237368   6.534  10.434   8.473
78532SOL     OW37369  14.213  13.009   6.170
78532SOL    HW137370  14.146  12.948   6.203
78532SOL    HW237371  14.246  13.053   6.249
78533SOL     OW37372   3.325   8.819   9.105
78533SOL    HW137373   3.373   8.773   9.036
78533SOL    HW237374   3.394   8.860   9.159
78534SOL     OW37375   0.458   0.543   3.450
78534SOL    HW137376   0.554   0.551   3.457
78534SOL    HW237377   0.438   0.570   3.360
78535SOL     OW37378   3.607  11.605   8.941
78535SOL    HW137379   3.639  11.625   9.028
78535SOL    HW237380   3.532  11.547   8.955
78536SOL     OW37381   8.869   7.831   7.418
78536SOL    HW137382   8.839   7.759   7.363
78536SOL    HW237383   8.890   7.789   7.502
78537SOL     OW37384   0.168   9.451  11.155
78537SOL    HW137385   0.239   9.453  11.219
78537SOL    HW237386   0.131   9.539  11.157
78538SOL     OW37387   0.817   1.878   5.227
78538SOL    HW137388   0.804   1.964   5.268
78538SOL    HW237389   0.777   1.887   5.140
78539SOL     OW37390   3.059  10.502  13.691
78539SOL    HW137391   3.092  10.578  13.644
78539SOL    HW237392   3.002  10.539  13.759
78540SOL     OW37393  11.788  10.567   5.327
78540SOL    HW137394  11.817  10.652   5.294
78540SOL    HW237395  11.726  10.536   5.261
78541SOL     OW37396   7.907  12.803  13.169
78541SOL    HW137397   7.877  12.855  13.244
78541SOL    HW237398   7.999  12.786  13.187
78542SOL     OW37399   0.263   0.753  13.202
78542SOL    HW137400   0.308   0.827  13.241
78542SOL    HW237401   0.177   0.751  13.244
78543SOL     OW37402   8.318  10.766   7.637
78543SOL    HW137403   8.408  10.734   7.633
78543SOL    HW237404   8.320  10.838   7.699
78544SOL     OW37405   9.976   1.503   4.670
78544SOL    HW137406   9.942   1.525   4.584
78544SOL    HW237407  10.068   1.530   4.668
78545SOL     OW37408  14.813   4.768  14.306
78545SOL    HW137409   0.005   4.824  14.340
78545SOL    HW237410  14.800   4.703  14.375
78546SOL     OW37411   2.425  11.272   3.844
78546SOL    HW137412   2.379  11.308   3.768
78546SOL    HW237413   2.511  11.247   3.810
78547SOL     OW37414  11.362   0.420  14.006
78547SOL    HW137415  11.421   0.428  13.931
78547SOL    HW237416  11.320   0.506  14.014
78548SOL     OW37417   9.455  11.666   6.840
78548SOL    HW137418   9.496  11.653   6.754
78548SOL    HW237419   9.458  11.761   6.854
78549SOL     OW37420  12.560   0.329  11.075
78549SOL    HW137421  12.521   0.295  10.994
78549SOL    HW237422  12.644   0.282  11.082
78550SOL     OW37423   4.385   1.993  10.496
78550SOL    HW137424   4.478   2.014  10.484
78550SOL    HW237425   4.362   2.033  10.579
78551SOL     OW37426   7.382   8.739   5.665
78551SOL    HW137427   7.476   8.724   5.652
78551SOL    HW237428   7.373   8.834   5.665
78552SOL     OW37429   8.825   4.174   3.709
78552SOL    HW137430   8.737   4.146   3.733
78552SOL    HW237431   8.878   4.094   3.716
78553SOL     OW37432  13.655   4.863   2.363
78553SOL    HW137433  13.645   4.771   2.337
78553SOL    HW237434  13.565   4.893   2.380
78554SOL     OW37435   4.009   3.220   0.494
78554SOL    HW137436   3.947   3.233   0.566
78554SOL    HW237437   3.957   3.235   0.415
78555SOL     OW37438   2.272   9.701  13.970
78555SOL    HW137439   2.319   9.674  14.049
78555SOL    HW237440   2.340   9.715  13.905
78556SOL     OW37441   5.225   5.871   6.876
78556SOL    HW137442   5.163   5.882   6.949
78556SOL    HW237443   5.308   5.853   6.918
78557SOL     OW37444   3.020   0.458   0.196
78557SOL    HW137445   2.992   0.549   0.202
78557SOL    HW237446   2.940   0.410   0.171
78558SOL     OW37447  10.454  14.587   8.049
78558SOL    HW137448  10.493  14.675   8.044
78558SOL    HW237449  10.372  14.595   8.000
78559SOL     OW37450   5.559  10.247   2.419
78559SOL    HW137451   5.505  10.324   2.434
78559SOL    HW237452   5.545  10.192   2.497
78560SOL     OW37453   0.211   2.775   4.645
78560SOL    HW137454   0.189   2.700   4.701
78560SOL    HW237455   0.297   2.802   4.676
78561SOL     OW37456   0.751   1.999   2.696
78561SOL    HW137457   0.723   1.930   2.637
78561SOL    HW237458   0.796   2.062   2.640
78562SOL     OW37459   5.240  13.405   2.115
78562SOL    HW137460   5.230  13.338   2.048
78562SOL    HW237461   5.295  13.472   2.075
78563SOL     OW37462  11.785   3.824  13.487
78563SOL    HW137463  11.824   3.852  13.570
78563SOL    HW237464  11.820   3.736  13.473
78564SOL     OW37465  11.797   8.150   1.932
78564SOL    HW137466  11.763   8.075   1.884
78564SOL    HW237467  11.842   8.203   1.865
78565SOL     OW37468  11.848   8.219   0.199
78565SOL    HW137469  11.863   8.147   0.138
78565SOL    HW237470  11.861   8.299   0.147
78566SOL     OW37471   9.076   4.036   2.240
78566SOL    HW137472   9.032   4.121   2.240
78566SOL    HW237473   9.009   3.974   2.266
78567SOL     OW37474   4.405   7.018  10.089
78567SOL    HW137475   4.313   6.999  10.110
78567SOL    HW237476   4.445   6.931  10.080
78568SOL     OW37477  12.533   1.407   9.846
78568SOL    HW137478  12.621   1.377   9.824
78568SOL    HW237479  12.481   1.326   9.849
78569SOL     OW37480   1.420  10.471  10.709
78569SOL    HW137481   1.474  10.492  10.785
78569SOL    HW237482   1.425  10.375  10.702
78570SOL     OW37483   8.692   5.274  13.858
78570SOL    HW137484   8.617   5.271  13.917
78570SOL    HW237485   8.699   5.366  13.832
78571SOL     OW37486   5.016   9.185  13.198
78571SOL    HW137487   5.055   9.224  13.120
78571SOL    HW237488   5.085   9.188  13.264
78572SOL     OW37489  12.081   7.154   5.812
78572SOL    HW137490  12.012   7.213   5.840
78572SOL    HW237491  12.140   7.209   5.760
78573SOL     OW37492   0.755  11.126   4.700
78573SOL    HW137493   0.797  11.122   4.614
78573SOL    HW237494   0.742  11.219   4.717
78574SOL     OW37495   2.803   6.740  12.014
78574SOL    HW137496   2.888   6.785  12.009
78574SOL    HW237497   2.739   6.811  12.016
78575SOL     OW37498   7.338  14.230  12.516
78575SOL    HW137499   7.303  14.172  12.584
78575SOL    HW237500   7.360  14.311  12.562
78576SOL     OW37501  10.043   2.567   4.797
78576SOL    HW137502  10.099   2.575   4.875
78576SOL    HW237503   9.955   2.587   4.829
78577SOL     OW37504   4.158  12.653   6.885
78577SOL    HW137505   4.072  12.672   6.923
78577SOL    HW237506   4.139  12.606   6.804
78578SOL     OW37507   5.364   4.458   6.995
78578SOL    HW137508   5.371   4.364   7.016
78578SOL    HW237509   5.395   4.502   7.073
78579SOL     OW37510   9.077   2.267   8.255
78579SOL    HW137511   8.993   2.251   8.212
78579SOL    HW237512   9.081   2.362   8.267
78580SOL     OW37513   4.634   2.027   6.110
78580SOL    HW137514   4.554   2.070   6.142
78580SOL    HW237515   4.628   2.034   6.015
78581SOL     OW37516  10.333   6.911  10.304
78581SOL    HW137517  10.290   6.830  10.277
78581SOL    HW237518  10.427   6.890  10.299
78582SOL     OW37519   5.840   2.980   4.496
78582SOL    HW137520   5.929   3.014   4.502
78582SOL    HW237521   5.831   2.953   4.405
78583SOL     OW37522   3.636   3.443   5.809
78583SOL    HW137523   3.719   3.449   5.763
78583SOL    HW237524   3.646   3.368   5.867
78584SOL     OW37525   4.401  11.300   1.448
78584SOL    HW137526   4.452  11.317   1.369
78584SOL    HW237527   4.311  11.292   1.418
78585SOL     OW37528   3.115   6.928   4.539
78585SOL    HW137529   3.117   6.835   4.515
78585SOL    HW237530   3.022   6.949   4.545
78586SOL     OW37531  11.894   2.577  13.530
78586SOL    HW137532  11.874   2.521  13.605
78586SOL    HW237533  11.811   2.584  13.482
78587SOL     OW37534   9.673  11.505   9.885
78587SOL    HW137535   9.618  11.548   9.950
78587SOL    HW237536   9.648  11.413   9.890
78588SOL     OW37537   5.255   9.286  11.935
78588SOL    HW137538   5.262   9.238  12.018
78588SOL    HW237539   5.233   9.376  11.961
78589SOL     OW37540  11.155   6.146   2.491
78589SOL    HW137541  11.065   6.172   2.473
78589SOL    HW237542  11.204   6.174   2.414
78590SOL     OW37543   4.677  10.867   2.462
78590SOL    HW137544   4.669  10.905   2.550
78590SOL    HW237545   4.738  10.794   2.473
78591SOL     OW37546  13.021   9.025  13.595
78591SOL    HW137547  13.028   8.940  13.550
78591SOL    HW237548  12.956   9.011  13.663
78592SOL     OW37549   9.151  12.699   8.331
78592SOL    HW137550   9.132  12.697   8.237
78592SOL    HW237551   9.245  12.717   8.336
78593SOL     OW37552  10.090   7.330   1.280
78593SOL    HW137553  10.183   7.355   1.279
78593SOL    HW237554  10.044   7.413   1.292
78594SOL     OW37555  10.819   5.749  13.399
78594SOL    HW137556  10.878   5.820  13.425
78594SOL    HW237557  10.797   5.768  13.308
78595SOL     OW37558  13.012  14.592   7.411
78595SOL    HW137559  12.988  14.671   7.362
78595SOL    HW237560  12.948  14.527   7.383
78596SOL     OW37561   4.120   3.299  13.876
78596SOL    HW137562   4.036   3.305  13.922
78596SOL    HW237563   4.107   3.232  13.810
78597SOL     OW37564   1.534   1.532   4.632
78597SOL    HW137565   1.563   1.585   4.707
78597SOL    HW237566   1.565   1.444   4.653
78598SOL     OW37567   3.883   7.814   1.652
78598SOL    HW137568   3.917   7.744   1.708
78598SOL    HW237569   3.932   7.804   1.570
78599SOL     OW37570   6.620  14.741   6.224
78599SOL    HW137571   6.600  14.734   6.317
78599SOL    HW237572   6.695  14.684   6.210
78600SOL     OW37573   8.655  12.919  14.693
78600SOL    HW137574   8.608  13.003  14.698
78600SOL    HW237575   8.628  12.872  14.771
78601SOL     OW37576  12.717   7.353   5.836
78601SOL    HW137577  12.625   7.367   5.858
78601SOL    HW237578  12.765   7.384   5.913
78602SOL     OW37579   9.799   9.048  10.295
78602SOL    HW137580   9.885   9.058  10.335
78602SOL    HW237581   9.762   9.136  10.294
78603SOL     OW37582   4.568  11.862   0.715
78603SOL    HW137583   4.492  11.806   0.701
78603SOL    HW237584   4.623  11.849   0.637
78604SOL     OW37585   9.256  11.562  10.872
78604SOL    HW137586   9.210  11.630  10.823
78604SOL    HW237587   9.313  11.610  10.933
78605SOL     OW37588  14.360  10.635  11.128
78605SOL    HW137589  14.333  10.719  11.166
78605SOL    HW237590  14.383  10.581  11.204
78606SOL     OW37591   8.897  10.509   0.408
78606SOL    HW137592   8.985  10.500   0.373
78606SOL    HW237593   8.877  10.602   0.400
78607SOL     OW37594  12.551   2.947   6.956
78607SOL    HW137595  12.483   2.983   6.900
78607SOL    HW237596  12.633   2.967   6.911
78608SOL     OW37597   9.287   2.403   7.217
78608SOL    HW137598   9.268   2.461   7.143
78608SOL    HW237599   9.381   2.386   7.210
78609SOL     OW37600   7.506   8.600   4.862
78609SOL    HW137601   7.571   8.566   4.924
78609SOL    HW237602   7.520   8.695   4.862
78610SOL     OW37603   4.225   9.500  10.823
78610SOL    HW137604   4.273   9.473  10.744
78610SOL    HW237605   4.261   9.586  10.844
78611SOL     OW37606   6.710   7.067  12.281
78611SOL    HW137607   6.648   7.135  12.256
78611SOL    HW237608   6.782   7.115  12.322
78612SOL     OW37609  13.126   3.543   2.166
78612SOL    HW137610  13.110   3.495   2.247
78612SOL    HW237611  13.129   3.635   2.193
78613SOL     OW37612   9.670   1.014   1.467
78613SOL    HW137613   9.693   0.922   1.455
78613SOL    HW237614   9.748   1.053   1.506
78614SOL     OW37615   0.153  14.421   4.161
78614SOL    HW137616   0.225  14.483   4.167
78614SOL    HW237617   0.122  14.427   4.071
78615SOL     OW37618  14.262  11.208  10.608
78615SOL    HW137619  14.309  11.151  10.670
78615SOL    HW237620  14.297  11.182  10.522
78616SOL     OW37621   1.715   6.612  11.952
78616SOL    HW137622   1.668   6.568  12.023
78616SOL    HW237623   1.667   6.589  11.873
78617SOL     OW37624   0.580   2.994  13.817
78617SOL    HW137625   0.627   2.923  13.861
78617SOL    HW237626   0.648   3.056  13.793
78618SOL     OW37627  12.112  11.753  13.109
78618SOL    HW137628  12.064  11.672  13.094
78618SOL    HW237629  12.046  11.822  13.102
78619SOL     OW37630   9.208   2.610   9.219
78619SOL    HW137631   9.236   2.537   9.163
78619SOL    HW237632   9.267   2.607   9.294
78620SOL     OW37633  10.411   8.486   0.781
78620SOL    HW137634  10.385   8.557   0.722
78620SOL    HW237635  10.489   8.518   0.825
78621SOL     OW37636   3.207  11.961   7.865
78621SOL    HW137637   3.147  11.892   7.836
78621SOL    HW237638   3.251  11.923   7.942
78622SOL     OW37639   5.113   3.746   8.249
78622SOL    HW137640   5.093   3.660   8.212
78622SOL    HW237641   5.080   3.743   8.339
78623SOL     OW37642   9.728  13.287   4.639
78623SOL    HW137643   9.780  13.209   4.619
78623SOL    HW237644   9.790  13.348   4.678
78624SOL     OW37645   7.044   9.964   0.804
78624SOL    HW137646   7.019   9.892   0.746
78624SOL    HW237647   6.965   9.981   0.857
78625SOL     OW37648   8.331   7.187   2.068
78625SOL    HW137649   8.387   7.200   1.992
78625SOL    HW237650   8.305   7.095   2.065
78626SOL     OW37651  13.317   2.473   4.640
78626SOL    HW137652  13.266   2.393   4.633
78626SOL    HW237653  13.408   2.444   4.641
78627SOL     OW37654  12.760   3.813  12.832
78627SOL    HW137655  12.842   3.845  12.796
78627SOL    HW237656  12.735   3.741  12.774
78628SOL     OW37657  13.602  12.516  11.567
78628SOL    HW137658  13.624  12.577  11.638
78628SOL    HW237659  13.516  12.481  11.592
78629SOL     OW37660   6.864   2.234   5.410
78629SOL    HW137661   6.867   2.241   5.506
78629SOL    HW237662   6.892   2.321   5.380
78630SOL     OW37663  11.336   5.373   0.332
78630SOL    HW137664  11.255   5.340   0.370
78630SOL    HW237665  11.405   5.334   0.385
78631SOL     OW37666   1.211   2.733  11.455
78631SOL    HW137667   1.141   2.712  11.516
78631SOL    HW237668   1.173   2.798  11.396
78632SOL     OW37669  10.573   3.397   8.136
78632SOL    HW137670  10.609   3.440   8.058
78632SOL    HW237671  10.483   3.431   8.141
78633SOL     OW37672   6.866   6.137   5.394
78633SOL    HW137673   6.893   6.152   5.304
78633SOL    HW237674   6.907   6.208   5.444
78634SOL     OW37675   9.328   7.470  13.115
78634SOL    HW137676   9.381   7.401  13.075
78634SOL    HW237677   9.330   7.542  13.052
78635SOL     OW37678   3.422  12.665   7.929
78635SOL    HW137679   3.419  12.673   7.834
78635SOL    HW237680   3.484  12.732   7.957
78636SOL     OW37681   8.371  14.557  12.231
78636SOL    HW137682   8.405  14.501  12.162
78636SOL    HW237683   8.343  14.637  12.186
78637SOL     OW37684   7.206  13.837  13.390
78637SOL    HW137685   7.226  13.810  13.480
78637SOL    HW237686   7.289  13.827  13.343
78638SOL     OW37687   9.565  12.264  14.574
78638SOL    HW137688   9.604  12.196  14.520
78638SOL    HW237689   9.496  12.302  14.519
78639SOL     OW37690   4.095   8.799  12.640
78639SOL    HW137691   4.033   8.802  12.714
78639SOL    HW237692   4.047   8.838  12.567
78640SOL     OW37693  12.786   8.805   1.548
78640SOL    HW137694  12.707   8.795   1.602
78640SOL    HW237695  12.753   8.820   1.459
78641SOL     OW37696  12.846   1.461   5.162
78641SOL    HW137697  12.838   1.490   5.071
78641SOL    HW237698  12.756   1.451   5.192
78642SOL     OW37699   6.586  11.274   9.052
78642SOL    HW137700   6.599  11.311   8.964
78642SOL    HW237701   6.653  11.207   9.060
78643SOL     OW37702   4.021   6.349   1.335
78643SOL    HW137703   3.946   6.394   1.374
78643SOL    HW237704   4.097   6.400   1.364
78644SOL     OW37705  12.461  12.338  10.061
78644SOL    HW137706  12.552  12.361  10.041
78644SOL    HW237707  12.450  12.367  10.152
78645SOL     OW37708  13.144   9.720  10.948
78645SOL    HW137709  13.132   9.806  10.989
78645SOL    HW237710  13.161   9.661  11.022
78646SOL     OW37711   8.238  14.118  12.156
78646SOL    HW137712   8.325  14.133  12.118
78646SOL    HW237713   8.256  14.088  12.245
78647SOL     OW37714   8.218   8.248   6.192
78647SOL    HW137715   8.231   8.193   6.269
78647SOL    HW237716   8.202   8.335   6.228
78648SOL     OW37717   2.274  12.788   9.368
78648SOL    HW137718   2.202  12.763   9.310
78648SOL    HW237719   2.346  12.809   9.310
78649SOL     OW37720  14.830   3.397   5.298
78649SOL    HW137721  14.820   3.479   5.249
78649SOL    HW237722   0.047   3.383   5.301
78650SOL     OW37723   5.962  11.544   2.944
78650SOL    HW137724   5.942  11.579   3.031
78650SOL    HW237725   6.051  11.575   2.926
78651SOL     OW37726   4.990  10.605  13.539
78651SOL    HW137727   4.949  10.691  13.527
78651SOL    HW237728   4.944  10.567  13.614
78652SOL     OW37729   2.713   0.721   2.066
78652SOL    HW137730   2.796   0.700   2.108
78652SOL    HW237731   2.701   0.653   1.999
78653SOL     OW37732   1.976   0.239  13.969
78653SOL    HW137733   1.970   0.295  13.892
78653SOL    HW237734   1.902   0.264  14.024
78654SOL     OW37735   1.266   2.500   0.857
78654SOL    HW137736   1.231   2.589   0.866
78654SOL    HW237737   1.190   2.447   0.834
78655SOL     OW37738   8.152   8.946   4.641
78655SOL    HW137739   8.217   9.014   4.658
78655SOL    HW237740   8.200   8.876   4.597
78656SOL     OW37741   6.520   0.620   9.398
78656SOL    HW137742   6.599   0.660   9.363
78656SOL    HW237743   6.504   0.666   9.481
78657SOL     OW37744   8.852  12.613   6.448
78657SOL    HW137745   8.766  12.654   6.453
78657SOL    HW237746   8.847  12.538   6.507
78658SOL     OW37747  11.999  13.223   4.894
78658SOL    HW137748  11.918  13.194   4.935
78658SOL    HW237749  12.018  13.307   4.936
78659SOL     OW37750  14.320  11.065   5.670
78659SOL    HW137751  14.280  11.116   5.600
78659SOL    HW237752  14.329  10.977   5.634
78660SOL     OW37753  10.723   7.133   9.158
78660SOL    HW137754  10.661   7.065   9.184
78660SOL    HW237755  10.749   7.110   9.069
78661SOL     OW37756   7.642  13.478   6.813
78661SOL    HW137757   7.551  13.473   6.843
78661SOL    HW237758   7.692  13.430   6.879
78662SOL     OW37759  13.684   7.886   9.767
78662SOL    HW137760  13.688   7.964   9.713
78662SOL    HW237761  13.649   7.916   9.851
78663SOL     OW37762  10.325  11.303  11.474
78663SOL    HW137763  10.371  11.363  11.533
78663SOL    HW237764  10.280  11.242  11.532
78664SOL     OW37765  11.516  13.812  12.719
78664SOL    HW137766  11.460  13.866  12.774
78664SOL    HW237767  11.505  13.847  12.630
78665SOL     OW37768   2.484   0.341   4.897
78665SOL    HW137769   2.471   0.307   4.808
78665SOL    HW237770   2.417   0.296   4.949
78666SOL     OW37771  14.212   9.732   1.164
78666SOL    HW137772  14.297   9.705   1.130
78666SOL    HW237773  14.180   9.655   1.212
78667SOL     OW37774   8.769   9.902   9.241
78667SOL    HW137775   8.777   9.811   9.214
78667SOL    HW237776   8.752   9.898   9.335
78668SOL     OW37777   1.918  10.968   8.281
78668SOL    HW137778   1.882  10.978   8.369
78668SOL    HW237779   1.937  10.874   8.273
78669SOL     OW37780   8.548   1.982   1.118
78669SOL    HW137781   8.528   1.901   1.070
78669SOL    HW237782   8.482   1.986   1.187
78670SOL     OW37783   7.252   6.579   3.623
78670SOL    HW137784   7.212   6.630   3.552
78670SOL    HW237785   7.235   6.488   3.599
78671SOL     OW37786   9.076   9.628  13.022
78671SOL    HW137787   8.985   9.618  12.994
78671SOL    HW237788   9.128   9.614  12.943
78672SOL     OW37789   3.586  12.323   1.415
78672SOL    HW137790   3.608  12.410   1.379
78672SOL    HW237791   3.668  12.274   1.410
78673SOL     OW37792  11.133   0.612   6.324
78673SOL    HW137793  11.100   0.536   6.277
78673SOL    HW237794  11.188   0.658   6.261
78674SOL     OW37795   7.895   0.022   9.768
78674SOL    HW137796   7.840   0.060   9.836
78674SOL    HW237797   7.982   0.017   9.808
78675SOL     OW37798   6.035   3.592  13.870
78675SOL    HW137799   5.966   3.607  13.935
78675SOL    HW237800   6.022   3.502  13.841
78676SOL     OW37801   3.328   1.399   4.664
78676SOL    HW137802   3.311   1.323   4.720
78676SOL    HW237803   3.290   1.472   4.712
78677SOL     OW37804   3.047  12.077   7.385
78677SOL    HW137805   3.095  12.000   7.416
78677SOL    HW237806   2.968  12.042   7.344
78678SOL     OW37807  12.454   2.544   0.590
78678SOL    HW137808  12.473   2.528   0.497
78678SOL    HW237809  12.539   2.536   0.633
78679SOL     OW37810   2.424   0.484  14.330
78679SOL    HW137811   2.493   0.420  14.311
78679SOL    HW237812   2.344   0.431  14.340
78680SOL     OW37813  12.312  13.092   6.832
78680SOL    HW137814  12.400  13.122   6.855
78680SOL    HW237815  12.278  13.055   6.913
78681SOL     OW37816   2.699   8.722   1.041
78681SOL    HW137817   2.620   8.669   1.041
78681SOL    HW237818   2.770   8.659   1.030
78682SOL     OW37819  13.378  10.706  13.957
78682SOL    HW137820  13.429  10.631  13.925
78682SOL    HW237821  13.385  10.702  14.052
78683SOL     OW37822  11.120   8.230   7.356
78683SOL    HW137823  11.214   8.213   7.356
78683SOL    HW237824  11.081   8.152   7.397
78684SOL     OW37825   4.168   0.569   8.653
78684SOL    HW137826   4.200   0.568   8.743
78684SOL    HW237827   4.248   0.574   8.600
78685SOL     OW37828   5.238   9.720   6.783
78685SOL    HW137829   5.297   9.784   6.822
78685SOL    HW237830   5.214   9.663   6.856
78686SOL     OW37831  14.574   1.733   3.486
78686SOL    HW137832  14.635   1.669   3.448
78686SOL    HW237833  14.561   1.798   3.418
78687SOL     OW37834  10.046  12.748   0.343
78687SOL    HW137835   9.990  12.676   0.315
78687SOL    HW237836   9.997  12.791   0.414
78688SOL     OW37837   5.684   4.614   7.817
78688SOL    HW137838   5.749   4.553   7.783
78688SOL    HW237839   5.632   4.561   7.878
78689SOL     OW37840   3.487   7.878   6.246
78689SOL    HW137841   3.509   7.948   6.308
78689SOL    HW237842   3.529   7.800   6.282
78690SOL     OW37843  12.070   5.377  10.506
78690SOL    HW137844  12.100   5.369  10.415
78690SOL    HW237845  11.989   5.427  10.500
78691SOL     OW37846  11.684   5.757   0.186
78691SOL    HW137847  11.729   5.821   0.131
78691SOL    HW237848  11.722   5.769   0.273
78692SOL     OW37849  10.712   1.774   7.914
78692SOL    HW137850  10.739   1.761   8.005
78692SOL    HW237851  10.650   1.847   7.918
78693SOL     OW37852  10.098  12.683   7.187
78693SOL    HW137853  10.193  12.690   7.198
78693SOL    HW237854  10.086  12.608   7.129
78694SOL     OW37855  14.020   9.567   6.882
78694SOL    HW137856  13.944   9.511   6.896
78694SOL    HW237857  13.984   9.649   6.849
78695SOL     OW37858   3.570   2.068   3.439
78695SOL    HW137859   3.485   2.110   3.439
78695SOL    HW237860   3.567   2.008   3.513
78696SOL     OW37861   7.464  13.336   7.693
78696SOL    HW137862   7.498  13.363   7.779
78696SOL    HW237863   7.482  13.411   7.636
78697SOL     OW37864   1.633   2.743  12.206
78697SOL    HW137865   1.666   2.827  12.175
78697SOL    HW237866   1.592   2.703  12.129
78698SOL     OW37867  10.395   2.341  10.971
78698SOL    HW137868  10.400   2.280  10.897
78698SOL    HW237869  10.303   2.364  10.977
78699SOL     OW37870  13.544  13.185   7.248
78699SOL    HW137871  13.615  13.234   7.291
78699SOL    HW237872  13.467  13.203   7.303
78700SOL     OW37873  12.341   6.879  12.579
78700SOL    HW137874  12.392   6.803  12.552
78700SOL    HW237875  12.259   6.844  12.611
78701SOL     OW37876  11.954   9.600   0.598
78701SOL    HW137877  11.894   9.642   0.659
78701SOL    HW237878  11.957   9.659   0.523
78702SOL     OW37879  10.956  10.253   5.191
78702SOL    HW137880  10.960  10.348   5.181
78702SOL    HW237881  11.044  10.223   5.168
78703SOL     OW37882   8.282   2.301  10.122
78703SOL    HW137883   8.324   2.216  10.135
78703SOL    HW237884   8.329   2.340  10.049
78704SOL     OW37885   7.044  12.160  14.831
78704SOL    HW137886   7.130  12.120  14.841
78704SOL    HW237887   7.004  12.113  14.757
78705SOL     OW37888   1.007   0.921  14.638
78705SOL    HW137889   1.079   0.889  14.582
78705SOL    HW237890   1.039   0.907  14.727
78706SOL     OW37891   7.799  11.077  11.882
78706SOL    HW137892   7.864  11.104  11.819
78706SOL    HW237893   7.849  11.039  11.954
78707SOL     OW37894  14.237   9.135   5.779
78707SOL    HW137895  14.253   9.043   5.757
78707SOL    HW237896  14.306   9.183   5.732
78708SOL     OW37897  11.772   4.734   3.305
78708SOL    HW137898  11.696   4.777   3.343
78708SOL    HW237899  11.847   4.782   3.341
78709SOL     OW37900  10.226  14.250  11.676
78709SOL    HW137901  10.208  14.160  11.705
78709SOL    HW237902  10.181  14.257  11.592
78710SOL     OW37903   9.452   5.044  11.960
78710SOL    HW137904   9.451   4.999  12.044
78710SOL    HW237905   9.386   5.113  11.969
78711SOL     OW37906   6.854   7.741  13.628
78711SOL    HW137907   6.910   7.738  13.550
78711SOL    HW237908   6.891   7.812  13.681
78712SOL     OW37909  13.087   8.677  13.021
78712SOL    HW137910  13.107   8.714  12.935
78712SOL    HW237911  13.144   8.725  13.082
78713SOL     OW37912   2.273   6.208   2.039
78713SOL    HW137913   2.272   6.284   2.097
78713SOL    HW237914   2.342   6.152   2.074
78714SOL     OW37915  13.633   6.645   9.071
78714SOL    HW137916  13.651   6.681   9.157
78714SOL    HW237917  13.697   6.686   9.013
78715SOL     OW37918   1.772  12.373   8.012
78715SOL    HW137919   1.755  12.291   8.058
78715SOL    HW237920   1.852  12.356   7.962
78716SOL     OW37921  13.072   6.708   8.138
78716SOL    HW137922  13.008   6.732   8.205
78716SOL    HW237923  13.104   6.792   8.105
78717SOL     OW37924  12.021   0.186  12.258
78717SOL    HW137925  11.930   0.174  12.283
78717SOL    HW237926  12.028   0.147  12.171
78718SOL     OW37927  14.018  10.415   1.879
78718SOL    HW137928  13.976  10.336   1.913
78718SOL    HW237929  14.099  10.383   1.839
78719SOL     OW37930  10.296   2.937  14.014
78719SOL    HW137931  10.304   2.992  14.092
78719SOL    HW237932  10.281   2.999  13.942
78720SOL     OW37933  14.637  13.800   5.112
78720SOL    HW137934  14.597  13.736   5.171
78720SOL    HW237935  14.652  13.752   5.031
78721SOL     OW37936   5.245   2.172   3.966
78721SOL    HW137937   5.299   2.153   4.043
78721SOL    HW237938   5.308   2.185   3.895
78722SOL     OW37939   0.536   9.345   8.507
78722SOL    HW137940   0.485   9.364   8.586
78722SOL    HW237941   0.505   9.409   8.443
78723SOL     OW37942   2.560  11.446  13.027
78723SOL    HW137943   2.473  11.447  13.066
78723SOL    HW237944   2.558  11.372  12.966
78724SOL     OW37945   4.184   1.008   5.591
78724SOL    HW137946   4.228   1.047   5.667
78724SOL    HW237947   4.168   0.917   5.617
78725SOL     OW37948   6.437   5.558   7.115
78725SOL    HW137949   6.505   5.624   7.104
78725SOL    HW237950   6.484   5.478   7.141
78726SOL     OW37951   7.664  13.774   1.716
78726SOL    HW137952   7.651  13.718   1.639
78726SOL    HW237953   7.580  13.817   1.730
78727SOL     OW37954  12.008   5.293   7.737
78727SOL    HW137955  12.081   5.294   7.675
78727SOL    HW237956  12.046   5.322   7.820
78728SOL     OW37957  14.741   3.297  13.183
78728SOL    HW137958  14.646   3.307  13.176
78728SOL    HW237959  14.776   3.347  13.110
78729SOL     OW37960   0.572   2.818   8.316
78729SOL    HW137961   0.665   2.797   8.308
78729SOL    HW237962   0.563   2.902   8.272
78730SOL     OW37963   7.559  12.042  10.625
78730SOL    HW137964   7.610  12.121  10.642
78730SOL    HW237965   7.472  12.074  10.601
78731SOL     OW37966  13.103   7.604   3.455
78731SOL    HW137967  13.179   7.620   3.510
78731SOL    HW237968  13.078   7.691   3.422
78732SOL     OW37969  14.296   3.320   2.875
78732SOL    HW137970  14.255   3.331   2.789
78732SOL    HW237971  14.233   3.268   2.924
78733SOL     OW37972   8.642  13.012   3.080
78733SOL    HW137973   8.657  13.102   3.108
78733SOL    HW237974   8.724  12.966   3.099
78734SOL     OW37975   1.043   3.314   6.490
78734SOL    HW137976   1.094   3.369   6.549
78734SOL    HW237977   0.997   3.253   6.547
78735SOL     OW37978   1.503   8.183   7.811
78735SOL    HW137979   1.562   8.175   7.885
78735SOL    HW237980   1.415   8.185   7.850
78736SOL     OW37981   5.582   6.545  14.119
78736SOL    HW137982   5.549   6.597  14.046
78736SOL    HW237983   5.504   6.516  14.166
78737SOL     OW37984  13.756  14.353   8.015
78737SOL    HW137985  13.723  14.344   7.926
78737SOL    HW237986  13.793  14.267   8.036
78738SOL     OW37987   2.367   8.022  12.342
78738SOL    HW137988   2.385   7.928  12.330
78738SOL    HW237989   2.274   8.025  12.363
78739SOL     OW37990   5.007   6.469   8.733
78739SOL    HW137991   4.918   6.433   8.733
78739SOL    HW237992   5.004   6.540   8.668
78740SOL     OW37993   4.080   7.575   3.759
78740SOL    HW137994   4.013   7.588   3.692
78740SOL    HW237995   4.065   7.645   3.822
78741SOL     OW37996  12.155   6.636   6.587
78741SOL    HW137997  12.077   6.593   6.623
78741SOL    HW237998  12.196   6.678   6.663
78742SOL     OW37999   9.027   5.035  11.015
78742SOL    HW138000   9.103   5.076  10.974
78742SOL    HW238001   8.991   5.103  11.072
78743SOL     OW38002  12.965  13.004  11.643
78743SOL    HW138003  12.930  12.920  11.673
78743SOL    HW238004  12.902  13.034  11.578
78744SOL     OW38005   5.755  14.574   3.595
78744SOL    HW138006   5.784  14.528   3.517
78744SOL    HW238007   5.664  14.546   3.607
78745SOL     OW38008  14.559  14.646   5.164
78745SOL    HW138009  14.617  14.710   5.122
78745SOL    HW238010  14.471  14.675   5.142
78746SOL     OW38011   3.778   4.613   2.257
78746SOL    HW138012   3.852   4.555   2.278
78746SOL    HW238013   3.795   4.693   2.306
78747SOL     OW38014   4.601   3.281   7.920
78747SOL    HW138015   4.539   3.261   7.850
78747SOL    HW238016   4.593   3.375   7.934
78748SOL     OW38017   7.389  12.331  11.925
78748SOL    HW138018   7.370  12.269  11.996
78748SOL    HW238019   7.485  12.335  11.922
78749SOL     OW38020   7.254  14.836   5.815
78749SOL    HW138021   7.252  14.876   5.902
78749SOL    HW238022   7.336  14.787   5.813
78750SOL     OW38023  12.893   2.860   7.972
78750SOL    HW138024  12.857   2.904   7.895
78750SOL    HW238025  12.899   2.929   8.038
78751SOL     OW38026   1.209   2.870  10.499
78751SOL    HW138027   1.131   2.918  10.469
78751SOL    HW238028   1.282   2.921  10.465
78752SOL     OW38029   3.006  14.587  13.217
78752SOL    HW138030   2.945  14.655  13.189
78752SOL    HW238031   2.951  14.521  13.258
78753SOL     OW38032  10.919   8.843   6.586
78753SOL    HW138033  10.991   8.865   6.646
78753SOL    HW238034  10.851   8.806   6.642
78754SOL     OW38035   0.313  14.048  10.002
78754SOL    HW138036   0.231  14.095   9.989
78754SOL    HW238037   0.380  14.105   9.964
78755SOL     OW38038   3.120  11.188   3.024
78755SOL    HW138039   3.095  11.166   2.934
78755SOL    HW238040   3.053  11.250   3.053
78756SOL     OW38041  13.545  13.347   2.641
78756SOL    HW138042  13.573  13.270   2.691
78756SOL    HW238043  13.522  13.412   2.707
78757SOL     OW38044   8.897   8.516   4.160
78757SOL    HW138045   8.853   8.459   4.098
78757SOL    HW238046   8.828   8.545   4.220
78758SOL     OW38047  14.010   0.778   1.086
78758SOL    HW138048  14.093   0.784   1.040
78758SOL    HW238049  14.019   0.837   1.161
78759SOL     OW38050   6.320  12.982   6.919
78759SOL    HW138051   6.267  13.018   6.990
78759SOL    HW238052   6.380  13.052   6.895
78760SOL     OW38053   6.798   2.123   3.878
78760SOL    HW138054   6.739   2.164   3.815
78760SOL    HW238055   6.855   2.195   3.907
78761SOL     OW38056   5.643   8.268   5.066
78761SOL    HW138057   5.623   8.303   5.153
78761SOL    HW238058   5.692   8.338   5.023
78762SOL     OW38059  10.144   0.755   2.840
78762SOL    HW138060  10.102   0.673   2.865
78762SOL    HW238061  10.091   0.823   2.882
78763SOL     OW38062   0.465  11.873   4.516
78763SOL    HW138063   0.384  11.870   4.567
78763SOL    HW238064   0.479  11.967   4.500
78764SOL     OW38065   2.263  11.419  10.737
78764SOL    HW138066   2.171  11.423  10.764
78764SOL    HW238067   2.312  11.434  10.818
78765SOL     OW38068   4.526   3.697   4.512
78765SOL    HW138069   4.487   3.618   4.474
78765SOL    HW238070   4.507   3.766   4.449
78766SOL     OW38071  13.714  10.317   9.313
78766SOL    HW138072  13.706  10.410   9.291
78766SOL    HW238073  13.788  10.313   9.374
78767SOL     OW38074  13.834   7.203   1.445
78767SOL    HW138075  13.830   7.218   1.350
78767SOL    HW238076  13.918   7.161   1.459
78768SOL     OW38077   9.969  13.013  10.906
78768SOL    HW138078   9.877  13.016  10.879
78768SOL    HW238079  10.010  12.956  10.841
78769SOL     OW38080  12.569   9.105  11.834
78769SOL    HW138081  12.589   9.183  11.885
78769SOL    HW238082  12.477   9.114  11.810
78770SOL     OW38083  12.912   1.588  13.448
78770SOL    HW138084  12.868   1.668  13.421
78770SOL    HW238085  12.995   1.589  13.402
78771SOL     OW38086   5.933   1.765   4.762
78771SOL    HW138087   6.024   1.735   4.751
78771SOL    HW238088   5.880   1.685   4.754
78772SOL     OW38089  13.199  11.524   4.047
78772SOL    HW138090  13.275  11.477   4.012
78772SOL    HW238091  13.160  11.462   4.109
78773SOL     OW38092  11.644  12.998  10.637
78773SOL    HW138093  11.565  12.943  10.645
78773SOL    HW238094  11.700  12.970  10.709
78774SOL     OW38095   4.561  12.168  14.296
78774SOL    HW138096   4.492  12.181  14.230
78774SOL    HW238097   4.583  12.257  14.325
78775SOL     OW38098  14.195   9.783  12.456
78775SOL    HW138099  14.133   9.732  12.508
78775SOL    HW238100  14.210   9.862  12.508
78776SOL     OW38101  12.712  14.609   9.231
78776SOL    HW138102  12.770  14.685   9.228
78776SOL    HW238103  12.629  14.640   9.195
78777SOL     OW38104   1.862   9.375   3.506
78777SOL    HW138105   1.807   9.314   3.456
78777SOL    HW238106   1.898   9.322   3.577
78778SOL     OW38107   8.166   6.622  11.512
78778SOL    HW138108   8.097   6.568  11.471
78778SOL    HW238109   8.204   6.566  11.579
78779SOL     OW38110  12.975  10.622  14.206
78779SOL    HW138111  12.997  10.634  14.114
78779SOL    HW238112  13.017  10.540  14.231
78780SOL     OW38113   8.770   0.335   8.149
78780SOL    HW138114   8.856   0.351   8.187
78780SOL    HW238115   8.754   0.242   8.165
78781SOL     OW38116  13.039   8.278  14.625
78781SOL    HW138117  12.986   8.200  14.611
78781SOL    HW238118  12.978   8.343  14.658
78782SOL     OW38119   5.443   0.117   2.784
78782SOL    HW138120   5.455   0.211   2.794
78782SOL    HW238121   5.416   0.106   2.693
78783SOL     OW38122   6.391   0.134   4.891
78783SOL    HW138123   6.311   0.087   4.866
78783SOL    HW238124   6.422   0.089   4.969
78784SOL     OW38125  11.634   4.730   0.559
78784SOL    HW138126  11.648   4.651   0.507
78784SOL    HW238127  11.579   4.701   0.632
78785SOL     OW38128  13.438  12.072   1.624
78785SOL    HW138129  13.505  12.075   1.693
78785SOL    HW238130  13.452  11.987   1.582
78786SOL     OW38131  10.288  14.681  14.203
78786SOL    HW138132  10.199  14.649  14.211
78786SOL    HW238133  10.333  14.617  14.148
78787SOL     OW38134  14.305  12.496   4.099
78787SOL    HW138135  14.353  12.482   4.181
78787SOL    HW238136  14.213  12.486   4.124
78788SOL     OW38137   1.799   5.454   7.890
78788SOL    HW138138   1.793   5.529   7.830
78788SOL    HW238139   1.832   5.492   7.972
78789SOL     OW38140   0.720   6.727   5.178
78789SOL    HW138141   0.804   6.757   5.213
78789SOL    HW238142   0.657   6.793   5.208
78790SOL     OW38143  10.047   2.439  11.434
78790SOL    HW138144   9.969   2.410  11.482
78790SOL    HW238145  10.111   2.459  11.502
78791SOL     OW38146   2.753  10.710   3.716
78791SOL    HW138147   2.762  10.641   3.651
78791SOL    HW238148   2.833  10.761   3.707
78792SOL     OW38149   4.704   3.037   0.609
78792SOL    HW138150   4.776   3.014   0.669
78792SOL    HW238151   4.718   3.129   0.590
78793SOL     OW38152   4.752   1.439  10.963
78793SOL    HW138153   4.771   1.422  11.056
78793SOL    HW238154   4.664   1.476  10.963
78794SOL     OW38155  12.737   8.720  10.427
78794SOL    HW138156  12.700   8.663  10.359
78794SOL    HW238157  12.666   8.730  10.490
78795SOL     OW38158   8.649   3.537   1.389
78795SOL    HW138159   8.584   3.466   1.390
78795SOL    HW238160   8.710   3.513   1.459
78796SOL     OW38161   9.364   4.893   9.498
78796SOL    HW138162   9.298   4.825   9.511
78796SOL    HW238163   9.354   4.918   9.406
78797SOL     OW38164   4.602   0.369  11.993
78797SOL    HW138165   4.679   0.402  11.947
78797SOL    HW238166   4.635   0.299  12.049
78798SOL     OW38167  11.573   7.196   5.451
78798SOL    HW138168  11.647   7.218   5.507
78798SOL    HW238169  11.569   7.268   5.387
78799SOL     OW38170   0.625  10.076  14.504
78799SOL    HW138171   0.652  10.096  14.415
78799SOL    HW238172   0.529  10.072  14.501
78800SOL     OW38173   9.268  11.145   8.069
78800SOL    HW138174   9.316  11.214   8.023
78800SOL    HW238175   9.175  11.166   8.053
78801SOL     OW38176   0.818  10.148   0.495
78801SOL    HW138177   0.729  10.166   0.527
78801SOL    HW238178   0.857  10.234   0.483
78802SOL     OW38179   7.804  12.565   7.067
78802SOL    HW138180   7.781  12.485   7.115
78802SOL    HW238181   7.811  12.537   6.976
78803SOL     OW38182  10.616  13.513   4.903
78803SOL    HW138183  10.580  13.529   4.816
78803SOL    HW238184  10.694  13.460   4.888
78804SOL     OW38185   3.363   6.970   5.613
78804SOL    HW138186   3.442   6.967   5.667
78804SOL    HW238187   3.388   7.020   5.536
78805SOL     OW38188   4.234   7.550   2.394
78805SOL    HW138189   4.183   7.618   2.439
78805SOL    HW238190   4.218   7.566   2.301
78806SOL     OW38191   8.374   2.605   9.162
78806SOL    HW138192   8.390   2.661   9.238
78806SOL    HW238193   8.370   2.666   9.088
78807SOL     OW38194  11.795  14.316   3.376
78807SOL    HW138195  11.855  14.277   3.440
78807SOL    HW238196  11.707  14.296   3.410
78808SOL     OW38197   0.964   3.479   4.989
78808SOL    HW138198   1.042   3.480   5.045
78808SOL    HW238199   0.938   3.570   4.982
78809SOL     OW38200   0.987   4.056  13.794
78809SOL    HW138201   1.004   4.121  13.725
78809SOL    HW238202   1.055   4.073  13.859
78810SOL     OW38203  11.382   2.762   3.414
78810SOL    HW138204  11.410   2.678   3.451
78810SOL    HW238205  11.445   2.825   3.449
78811SOL     OW38206  11.593  10.196   8.661
78811SOL    HW138207  11.668  10.137   8.649
78811SOL    HW238208  11.528  10.163   8.599
78812SOL     OW38209   1.674   7.390  11.160
78812SOL    HW138210   1.589   7.397  11.202
78812SOL    HW238211   1.683   7.472  11.111
78813SOL     OW38212  11.975   5.984   5.984
78813SOL    HW138213  11.882   5.972   5.964
78813SOL    HW238214  12.005   5.898   6.013
78814SOL     OW38215  13.742  10.924   8.648
78814SOL    HW138216  13.650  10.939   8.626
78814SOL    HW238217  13.788  10.998   8.608
78815SOL     OW38218  12.945   3.109  13.305
78815SOL    HW138219  12.922   3.187  13.255
78815SOL    HW238220  12.921   3.129  13.395
78816SOL     OW38221   3.848   8.862   8.571
78816SOL    HW138222   3.875   8.854   8.662
78816SOL    HW238223   3.868   8.952   8.548
78817SOL     OW38224   3.582  10.796  14.120
78817SOL    HW138225   3.514  10.739  14.155
78817SOL    HW238226   3.542  10.835  14.042
78818SOL     OW38227   3.650  11.458   1.200
78818SOL    HW138228   3.634  11.423   1.112
78818SOL    HW238229   3.646  11.381   1.257
78819SOL     OW38230  12.531   5.776   8.136
78819SOL    HW138231  12.517   5.701   8.194
78819SOL    HW238232  12.614   5.756   8.092
78820SOL     OW38233  11.811   8.949   6.960
78820SOL    HW138234  11.813   8.854   6.949
78820SOL    HW238235  11.893   8.979   6.920
78821SOL     OW38236  13.217  12.146   9.457
78821SOL    HW138237  13.294  12.171   9.508
78821SOL    HW238238  13.236  12.058   9.426
78822SOL     OW38239   2.630  12.833  13.593
78822SOL    HW138240   2.567  12.764  13.614
78822SOL    HW238241   2.654  12.817  13.502
78823SOL     OW38242   7.264  11.222   0.387
78823SOL    HW138243   7.267  11.127   0.389
78823SOL    HW238244   7.224  11.246   0.471
78824SOL     OW38245   7.212   4.567  11.346
78824SOL    HW138246   7.261   4.648  11.334
78824SOL    HW238247   7.276   4.503  11.375
78825SOL     OW38248   8.440   4.747  11.043
78825SOL    HW138249   8.363   4.790  11.007
78825SOL    HW238250   8.497   4.820  11.070
78826SOL     OW38251   7.521  14.823  10.196
78826SOL    HW138252   7.514  14.747  10.254
78826SOL    HW238253   7.528  14.785  10.108
78827SOL     OW38254   0.952   0.544   6.973
78827SOL    HW138255   0.944   0.519   7.065
78827SOL    HW238256   1.025   0.491   6.941
78828SOL     OW38257  10.554   8.539  12.434
78828SOL    HW138258  10.539   8.477  12.363
78828SOL    HW238259  10.479   8.528  12.492
78829SOL     OW38260  10.602  11.103   7.248
78829SOL    HW138261  10.691  11.070   7.263
78829SOL    HW238262  10.599  11.122   7.154
78830SOL     OW38263   7.506  12.606   0.527
78830SOL    HW138264   7.587  12.622   0.575
78830SOL    HW238265   7.465  12.532   0.573
78831SOL     OW38266   4.535  14.513   0.252
78831SOL    HW138267   4.485  14.584   0.293
78831SOL    HW238268   4.598  14.558   0.196
78832SOL     OW38269  13.805   0.917   2.802
78832SOL    HW138270  13.729   0.862   2.785
78832SOL    HW238271  13.860   0.865   2.861
78833SOL     OW38272   6.428  10.190   6.691
78833SOL    HW138273   6.414  10.114   6.747
78833SOL    HW238274   6.506  10.233   6.728
78834SOL     OW38275   0.859   8.871   2.568
78834SOL    HW138276   0.899   8.956   2.553
78834SOL    HW238277   0.786   8.888   2.627
78835SOL     OW38278   1.384  11.836  14.284
78835SOL    HW138279   1.468  11.819  14.243
78835SOL    HW238280   1.337  11.753  14.281
78836SOL     OW38281  14.162   5.065   2.664
78836SOL    HW138282  14.098   5.101   2.726
78836SOL    HW238283  14.245   5.104   2.689
78837SOL     OW38284   8.736   9.703  13.503
78837SOL    HW138285   8.657   9.649  13.500
78837SOL    HW238286   8.796   9.661  13.442
78838SOL     OW38287   0.519  12.524  13.784
78838SOL    HW138288   0.430  12.544  13.814
78838SOL    HW238289   0.547  12.452  13.840
78839SOL     OW38290  12.565   0.512   2.128
78839SOL    HW138291  12.611   0.581   2.080
78839SOL    HW238292  12.472   0.529   2.109
78840SOL     OW38293   6.771   8.477   0.662
78840SOL    HW138294   6.742   8.392   0.629
78840SOL    HW238295   6.867   8.469   0.666
78841SOL     OW38296   4.474   3.802   3.457
78841SOL    HW138297   4.424   3.877   3.424
78841SOL    HW238298   4.513   3.832   3.538
78842SOL     OW38299   6.300   8.856  13.994
78842SOL    HW138300   6.308   8.761  13.982
78842SOL    HW238301   6.391   8.888  13.989
78843SOL     OW38302   5.023   9.573  13.071
78843SOL    HW138303   4.944   9.549  13.023
78843SOL    HW238304   4.992   9.594  13.159
78844SOL     OW38305   4.183  13.690  12.126
78844SOL    HW138306   4.190  13.731  12.213
78844SOL    HW238307   4.125  13.748  12.077
78845SOL     OW38308   2.210   1.358   2.914
78845SOL    HW138309   2.191   1.340   3.006
78845SOL    HW238310   2.136   1.321   2.867
78846SOL     OW38311   7.471  13.680   5.118
78846SOL    HW138312   7.442  13.722   5.037
78846SOL    HW238313   7.534  13.741   5.156
78847SOL     OW38314   6.563   2.450   6.737
78847SOL    HW138315   6.577   2.380   6.674
78847SOL    HW238316   6.536   2.525   6.685
78848SOL     OW38317   7.462  13.493  13.372
78848SOL    HW138318   7.464  13.559  13.303
78848SOL    HW238319   7.370  13.481  13.391
78849SOL     OW38320  12.061  10.387  11.865
78849SOL    HW138321  12.128  10.435  11.915
78849SOL    HW238322  12.111  10.322  11.815
78850SOL     OW38323   0.586   3.223  14.213
78850SOL    HW138324   0.558   3.311  14.236
78850SOL    HW238325   0.647   3.235  14.140
78851SOL     OW38326   0.842  12.677  13.772
78851SOL    HW138327   0.873  12.698  13.684
78851SOL    HW238328   0.759  12.724  13.780
78852SOL     OW38329  11.591  10.340   9.346
78852SOL    HW138330  11.652  10.304   9.282
78852SOL    HW238331  11.505  10.308   9.319
78853SOL     OW38332  13.203   2.982  10.375
78853SOL    HW138333  13.219   2.977  10.281
78853SOL    HW238334  13.283   2.947  10.415
78854SOL     OW38335  10.978  11.579   0.322
78854SOL    HW138336  10.974  11.597   0.228
78854SOL    HW238337  11.042  11.508   0.331
78855SOL     OW38338  13.840   3.667   5.875
78855SOL    HW138339  13.807   3.577   5.877
78855SOL    HW238340  13.911   3.666   5.811
78856SOL     OW38341   7.030  11.292   7.237
78856SOL    HW138342   6.995  11.203   7.229
78856SOL    HW238343   6.992  11.340   7.163
78857SOL     OW38344  14.606  14.128  14.555
78857SOL    HW138345  14.702  14.125  14.548
78857SOL    HW238346  14.581  14.206  14.506
78858SOL     OW38347  10.692   3.550   3.971
78858SOL    HW138348  10.678   3.636   3.931
78858SOL    HW238349  10.689   3.489   3.898
78859SOL     OW38350   3.429   0.116  10.185
78859SOL    HW138351   3.502   0.170  10.155
78859SOL    HW238352   3.395   0.075  10.106
78860SOL     OW38353   4.067   5.348  10.207
78860SOL    HW138354   4.067   5.415  10.275
78860SOL    HW238355   3.976   5.324  10.196
78861SOL     OW38356   1.094   1.485   1.684
78861SOL    HW138357   1.165   1.505   1.746
78861SOL    HW238358   1.098   1.555   1.619
78862SOL     OW38359   1.570   0.217   0.882
78862SOL    HW138360   1.644   0.191   0.828
78862SOL    HW238361   1.531   0.292   0.836
78863SOL     OW38362   6.654   0.691   0.532
78863SOL    HW138363   6.692   0.755   0.472
78863SOL    HW238364   6.603   0.744   0.593
78864SOL     OW38365   6.411   6.391   3.935
78864SOL    HW138366   6.443   6.419   4.021
78864SOL    HW238367   6.374   6.471   3.896
78865SOL     OW38368   2.593  13.822  14.867
78865SOL    HW138369   2.626  13.787  14.784
78865SOL    HW238370   2.506  13.856  14.845
78866SOL     OW38371   6.278   6.649   7.868
78866SOL    HW138372   6.204   6.603   7.907
78866SOL    HW238373   6.355   6.613   7.912
78867SOL     OW38374  13.079   6.102  12.418
78867SOL    HW138375  12.990   6.069  12.423
78867SOL    HW238376  13.134   6.023  12.417
78868SOL     OW38377  14.307   8.851   9.168
78868SOL    HW138378  14.400   8.825   9.170
78868SOL    HW238379  14.308   8.941   9.137
78869SOL     OW38380  14.560   2.030   8.223
78869SOL    HW138381  14.631   2.091   8.242
78869SOL    HW238382  14.595   1.944   8.245
78870SOL     OW38383   6.608  10.596  12.552
78870SOL    HW138384   6.524  10.618  12.591
78870SOL    HW238385   6.587  10.563  12.465
78871SOL     OW38386  12.874   7.728  11.320
78871SOL    HW138387  12.948   7.679  11.355
78871SOL    HW238388  12.886   7.726  11.225
78872SOL     OW38389   2.737   5.285   9.932
78872SOL    HW138390   2.737   5.283  10.028
78872SOL    HW238391   2.653   5.248   9.907
78873SOL     OW38392  10.244   7.738  12.857
78873SOL    HW138393  10.181   7.694  12.914
78873SOL    HW238394  10.325   7.739  12.907
78874SOL     OW38395   8.932  12.331   8.132
78874SOL    HW138396   8.866  12.399   8.151
78874SOL    HW238397   8.919  12.310   8.040
78875SOL     OW38398   8.337   7.779   2.435
78875SOL    HW138399   8.417   7.827   2.456
78875SOL    HW238400   8.278   7.799   2.508
78876SOL     OW38401   3.828   9.271  11.063
78876SOL    HW138402   3.772   9.348  11.053
78876SOL    HW238403   3.906   9.304  11.107
78877SOL     OW38404   0.959   2.316  10.561
78877SOL    HW138405   0.887   2.331  10.622
78877SOL    HW238406   1.018   2.255  10.607
78878SOL     OW38407   0.709  11.237  12.817
78878SOL    HW138408   0.707  11.182  12.738
78878SOL    HW238409   0.617  11.255  12.836
78879SOL     OW38410  13.245  13.057   9.937
78879SOL    HW138411  13.248  13.006   9.856
78879SOL    HW238412  13.168  13.023   9.984
78880SOL     OW38413   3.299  13.651  10.545
78880SOL    HW138414   3.279  13.619  10.456
78880SOL    HW238415   3.386  13.691  10.537
78881SOL     OW38416   1.344   4.232   5.264
78881SOL    HW138417   1.392   4.314   5.278
78881SOL    HW238418   1.388   4.191   5.190
78882SOL     OW38419   0.372   3.063   3.885
78882SOL    HW138420   0.340   3.150   3.908
78882SOL    HW238421   0.296   3.019   3.848
78883SOL     OW38422   0.715  13.792   8.053
78883SOL    HW138423   0.657  13.867   8.039
78883SOL    HW238424   0.754  13.776   7.967
78884SOL     OW38425   2.524  11.427  11.006
78884SOL    HW138426   2.549  11.517  10.984
78884SOL    HW238427   2.560  11.375  10.934
78885SOL     OW38428   4.787  14.381  12.391
78885SOL    HW138429   4.839  14.359  12.468
78885SOL    HW238430   4.754  14.469  12.409
78886SOL     OW38431   7.121   3.800  10.497
78886SOL    HW138432   7.171   3.793  10.415
78886SOL    HW238433   7.188   3.803  10.565
78887SOL     OW38434  11.064  13.989   4.616
78887SOL    HW138435  11.103  14.015   4.699
78887SOL    HW238436  10.976  14.027   4.618
78888SOL     OW38437   4.692   7.750   2.377
78888SOL    HW138438   4.771   7.718   2.421
78888SOL    HW238439   4.624   7.687   2.402
78889SOL     OW38440   4.687   8.812   3.385
78889SOL    HW138441   4.753   8.855   3.331
78889SOL    HW238442   4.737   8.766   3.452
78890SOL     OW38443   8.887  10.006  10.653
78890SOL    HW138444   8.944  10.005  10.729
78890SOL    HW238445   8.926   9.942  10.592
78891SOL     OW38446  11.030   9.996  11.752
78891SOL    HW138447  11.088  10.048  11.808
78891SOL    HW238448  10.946  10.042  11.754
78892SOL     OW38449   6.688   7.808  14.374
78892SOL    HW138450   6.769   7.837  14.417
78892SOL    HW238451   6.707   7.814  14.281
78893SOL     OW38452   3.300  11.686  11.367
78893SOL    HW138453   3.208  11.682  11.342
78893SOL    HW238454   3.323  11.778  11.359
78894SOL     OW38455  14.376   1.464   2.148
78894SOL    HW138456  14.421   1.511   2.078
78894SOL    HW238457  14.445   1.437   2.208
78895SOL     OW38458   1.216   2.219  14.402
78895SOL    HW138459   1.264   2.226  14.319
78895SOL    HW238460   1.129   2.252  14.382
78896SOL     OW38461   5.379   2.702   0.500
78896SOL    HW138462   5.464   2.665   0.524
78896SOL    HW238463   5.318   2.666   0.564
78897SOL     OW38464   6.896   5.942   1.763
78897SOL    HW138465   6.843   5.901   1.832
78897SOL    HW238466   6.986   5.937   1.796
78898SOL     OW38467   5.806   6.990   5.742
78898SOL    HW138468   5.803   6.916   5.803
78898SOL    HW238469   5.872   6.966   5.677
78899SOL     OW38470   0.344   0.133  10.998
78899SOL    HW138471   0.266   0.186  10.981
78899SOL    HW238472   0.392   0.181  11.065
78900SOL     OW38473   2.624  11.986   4.588
78900SOL    HW138474   2.704  12.037   4.577
78900SOL    HW238475   2.558  12.033   4.536
78901SOL     OW38476   0.440   3.697   5.569
78901SOL    HW138477   0.377   3.721   5.501
78901SOL    HW238478   0.415   3.750   5.644
78902SOL     OW38479   7.910   9.662   5.217
78902SOL    HW138480   7.941   9.577   5.186
78902SOL    HW238481   7.971   9.725   5.179
78903SOL     OW38482  13.050   3.998   8.873
78903SOL    HW138483  13.066   3.956   8.958
78903SOL    HW238484  13.022   4.087   8.895
78904SOL     OW38485  13.692  14.862  11.626
78904SOL    HW138486  13.665   0.077  11.624
78904SOL    HW238487  13.654  14.828  11.707
78905SOL     OW38488  11.389   2.911   2.294
78905SOL    HW138489  11.335   2.976   2.250
78905SOL    HW238490  11.426   2.957   2.368
78906SOL     OW38491  10.563  10.287   5.492
78906SOL    HW138492  10.611  10.249   5.418
78906SOL    HW238493  10.623  10.353   5.528
78907SOL     OW38494   2.901   2.021   9.769
78907SOL    HW138495   2.871   1.931   9.763
78907SOL    HW238496   2.928   2.032   9.861
78908SOL     OW38497   2.590   5.295  11.914
78908SOL    HW138498   2.550   5.354  11.978
78908SOL    HW238499   2.628   5.225  11.967
78909SOL     OW38500   7.579   7.288  14.801
78909SOL    HW138501   7.495   7.276  14.846
78909SOL    HW238502   7.599   7.381  14.812
78910SOL     OW38503   3.219   1.931   9.113
78910SOL    HW138504   3.296   1.970   9.071
78910SOL    HW238505   3.242   1.839   9.124
78911SOL     OW38506  11.512   6.767   9.236
78911SOL    HW138507  11.558   6.822   9.300
78911SOL    HW238508  11.421   6.766   9.267
78912SOL     OW38509   2.034  13.653   6.516
78912SOL    HW138510   1.971  13.671   6.447
78912SOL    HW238511   2.106  13.714   6.501
78913SOL     OW38512   2.439   0.336   2.599
78913SOL    HW138513   2.480   0.254   2.625
78913SOL    HW238514   2.512   0.396   2.584
78914SOL     OW38515   9.099  13.814  13.218
78914SOL    HW138516   9.161  13.753  13.178
78914SOL    HW238517   9.151  13.863  13.282
78915SOL     OW38518   9.075   3.312   1.329
78915SOL    HW138519   9.096   3.334   1.238
78915SOL    HW238520   9.085   3.216   1.334
78916SOL     OW38521  10.673   1.877  11.336
78916SOL    HW138522  10.756   1.924  11.334
78916SOL    HW238523  10.607   1.946  11.336
78917SOL     OW38524   7.169  13.414   7.715
78917SOL    HW138525   7.257  13.438   7.746
78917SOL    HW238526   7.151  13.331   7.758
78918SOL     OW38527  13.941   7.747   7.929
78918SOL    HW138528  14.031   7.777   7.937
78918SOL    HW238529  13.937   7.667   7.982
78919SOL     OW38530   5.188   2.479   0.282
78919SOL    HW138531   5.121   2.449   0.344
78919SOL    HW238532   5.223   2.559   0.321
78920SOL     OW38533   2.701   1.484  14.055
78920SOL    HW138534   2.765   1.554  14.048
78920SOL    HW238535   2.629   1.523  14.105
78921SOL     OW38536   7.721  12.302  13.729
78921SOL    HW138537   7.775  12.329  13.655
78921SOL    HW238538   7.634  12.287  13.692
78922SOL     OW38539   4.036   7.472  14.462
78922SOL    HW138540   4.098   7.470  14.390
78922SOL    HW238541   3.984   7.392  14.452
78923SOL     OW38542   9.309   5.573   3.768
78923SOL    HW138543   9.219   5.573   3.737
78923SOL    HW238544   9.321   5.660   3.806
78924SOL     OW38545   9.285  11.150   6.591
78924SOL    HW138546   9.290  11.173   6.684
78924SOL    HW238547   9.204  11.192   6.560
78925SOL     OW38548   8.879   4.272  12.196
78925SOL    HW138549   8.833   4.264  12.112
78925SOL    HW238550   8.936   4.349  12.185
78926SOL     OW38551  11.524   5.014   3.816
78926SOL    HW138552  11.467   5.076   3.770
78926SOL    HW238553  11.471   4.982   3.889
78927SOL     OW38554  13.009   4.213  12.981
78927SOL    HW138555  12.952   4.148  13.022
78927SOL    HW238556  13.031   4.176  12.896
78928SOL     OW38557  11.696   1.679  11.833
78928SOL    HW138558  11.657   1.592  11.845
78928SOL    HW238559  11.780   1.662  11.790
78929SOL     OW38560   2.392   9.856  10.964
78929SOL    HW138561   2.303   9.820  10.970
78929SOL    HW238562   2.423   9.856  11.055
78930SOL     OW38563  12.025   7.751   5.505
78930SOL    HW138564  11.933   7.772   5.490
78930SOL    HW238565  12.047   7.796   5.587
78931SOL     OW38566  14.298   8.548  13.160
78931SOL    HW138567  14.368   8.613  13.158
78931SOL    HW238568  14.255   8.562  13.244
78932SOL     OW38569   0.810   8.005  12.929
78932SOL    HW138570   0.777   8.035  13.013
78932SOL    HW238571   0.750   7.936  12.902
78933SOL     OW38572   5.472  11.101  11.642
78933SOL    HW138573   5.561  11.074  11.616
78933SOL    HW238574   5.435  11.140  11.563
78934SOL     OW38575   9.652  14.376  13.463
78934SOL    HW138576   9.632  14.333  13.379
78934SOL    HW238577   9.717  14.442  13.442
78935SOL     OW38578   5.347   9.460   1.288
78935SOL    HW138579   5.376   9.369   1.283
78935SOL    HW238580   5.288   9.463   1.363
78936SOL     OW38581   6.280   2.615   8.217
78936SOL    HW138582   6.224   2.677   8.264
78936SOL    HW238583   6.239   2.605   8.131
78937SOL     OW38584   8.415  13.980   2.801
78937SOL    HW138585   8.422  14.038   2.877
78937SOL    HW238586   8.487  14.007   2.743
78938SOL     OW38587   1.708   2.123   4.443
78938SOL    HW138588   1.705   2.218   4.435
78938SOL    HW238589   1.798   2.105   4.471
78939SOL     OW38590  14.003  12.518   6.867
78939SOL    HW138591  14.013  12.476   6.782
78939SOL    HW238592  13.958  12.600   6.847
78940SOL     OW38593   9.012   9.249   2.283
78940SOL    HW138594   9.053   9.324   2.327
78940SOL    HW238595   9.082   9.184   2.276
78941SOL     OW38596  10.224   7.243  10.015
78941SOL    HW138597  10.315   7.257  10.039
78941SOL    HW238598  10.204   7.315   9.955
78942SOL     OW38599   7.253  10.200  12.554
78942SOL    HW138600   7.184  10.146  12.517
78942SOL    HW238601   7.257  10.277  12.498
78943SOL     OW38602   4.984   5.351   1.551
78943SOL    HW138603   4.958   5.408   1.624
78943SOL    HW238604   5.010   5.269   1.594
78944SOL     OW38605   7.891  11.143   4.433
78944SOL    HW138606   7.919  11.234   4.424
78944SOL    HW238607   7.970  11.091   4.421
78945SOL     OW38608   2.622   0.035   4.686
78945SOL    HW138609   2.536   0.058   4.650
78945SOL    HW238610   2.664   0.119   4.701
78946SOL     OW38611  12.058   6.774   1.940
78946SOL    HW138612  12.028   6.689   1.973
78946SOL    HW238613  12.111   6.752   1.863
78947SOL     OW38614   0.934  13.697   9.715
78947SOL    HW138615   0.861  13.636   9.714
78947SOL    HW238616   0.903  13.773   9.665
78948SOL     OW38617   7.445   5.841   8.872
78948SOL    HW138618   7.475   5.754   8.845
78948SOL    HW238619   7.392   5.872   8.799
78949SOL     OW38620   7.497   4.303   3.135
78949SOL    HW138621   7.503   4.208   3.125
78949SOL    HW238622   7.567   4.325   3.195
78950SOL     OW38623   3.713  13.540   3.622
78950SOL    HW138624   3.654  13.516   3.550
78950SOL    HW238625   3.707  13.467   3.683
78951SOL     OW38626   0.634  12.555  10.674
78951SOL    HW138627   0.667  12.518  10.592
78951SOL    HW238628   0.659  12.648  10.670
78952SOL     OW38629   9.226   9.555   0.670
78952SOL    HW138630   9.144   9.547   0.622
78952SOL    HW238631   9.204   9.536   0.761
78953SOL     OW38632  14.557   1.206   7.686
78953SOL    HW138633  14.603   1.142   7.632
78953SOL    HW238634  14.548   1.283   7.630
78954SOL     OW38635   3.599  11.285   8.441
78954SOL    HW138636   3.630  11.246   8.522
78954SOL    HW238637   3.567  11.212   8.389
78955SOL     OW38638  14.762  13.990   3.057
78955SOL    HW138639  14.734  14.054   3.122
78955SOL    HW238640  14.706  14.005   2.981
78956SOL     OW38641   8.203   4.405   1.152
78956SOL    HW138642   8.180   4.498   1.159
78956SOL    HW238643   8.220   4.379   1.243
78957SOL     OW38644   9.626   1.270   4.319
78957SOL    HW138645   9.712   1.305   4.297
78957SOL    HW238646   9.640   1.176   4.331
78958SOL     OW38647  10.155   0.513  11.398
78958SOL    HW138648  10.120   0.602  11.400
78958SOL    HW238649  10.207   0.507  11.478
78959SOL     OW38650  14.710   0.937   4.541
78959SOL    HW138651  14.681   1.006   4.600
78959SOL    HW238652  14.796   0.966   4.511
78960SOL     OW38653  12.565   3.218  14.640
78960SOL    HW138654  12.524   3.278  14.578
78960SOL    HW238655  12.576   3.136  14.591
78961SOL     OW38656  13.922   9.568  11.971
78961SOL    HW138657  13.991   9.596  11.911
78961SOL    HW238658  13.885   9.649  12.006
78962SOL     OW38659  11.806   4.159  12.779
78962SOL    HW138660  11.833   4.099  12.849
78962SOL    HW238661  11.874   4.148  12.712
78963SOL     OW38662   6.818   2.584   1.760
78963SOL    HW138663   6.815   2.503   1.709
78963SOL    HW238664   6.827   2.556   1.851
78964SOL     OW38665  13.930  11.663  14.504
78964SOL    HW138666  14.020  11.678  14.476
78964SOL    HW238667  13.896  11.750  14.524
78965SOL     OW38668   6.273  14.798   8.768
78965SOL    HW138669   6.248  14.849   8.691
78965SOL    HW238670   6.193  14.789   8.819
78966SOL     OW38671  10.675  10.934   2.510
78966SOL    HW138672  10.703  10.941   2.419
78966SOL    HW238673  10.697  10.844   2.535
78967SOL     OW38674  11.024   0.459  12.663
78967SOL    HW138675  11.015   0.546  12.623
78967SOL    HW238676  11.048   0.402  12.590
78968SOL     OW38677   6.151   3.375   7.652
78968SOL    HW138678   6.224   3.317   7.633
78968SOL    HW238679   6.128   3.355   7.743
78969SOL     OW38680  10.399  10.811   8.956
78969SOL    HW138681  10.329  10.753   8.926
78969SOL    HW238682  10.371  10.840   9.043
78970SOL     OW38683   8.734   3.598   2.829
78970SOL    HW138684   8.670   3.657   2.788
78970SOL    HW238685   8.799   3.657   2.867
78971SOL     OW38686   7.086   9.609  11.541
78971SOL    HW138687   7.167   9.588  11.587
78971SOL    HW238688   7.021   9.550  11.579
78972SOL     OW38689  14.762   4.661   7.980
78972SOL    HW138690  14.668   4.674   7.990
78972SOL    HW238691  14.787   4.722   7.910
78973SOL     OW38692  10.118   4.893  10.272
78973SOL    HW138693  10.181   4.834  10.231
78973SOL    HW238694  10.160   4.979  10.270
78974SOL     OW38695   6.705   6.871   6.963
78974SOL    HW138696   6.656   6.790   6.972
78974SOL    HW238697   6.746   6.885   7.048
78975SOL     OW38698  12.929   8.118   2.493
78975SOL    HW138699  12.934   8.197   2.546
78975SOL    HW238700  12.957   8.048   2.552
78976SOL     OW38701   6.409   7.012  12.876
78976SOL    HW138702   6.332   7.007  12.818
78976SOL    HW238703   6.415   7.104  12.899
78977SOL     OW38704   7.231   0.104   5.201
78977SOL    HW138705   7.180   0.154   5.137
78977SOL    HW238706   7.314   0.152   5.208
78978SOL     OW38707  13.048   2.451  12.198
78978SOL    HW138708  12.972   2.482  12.248
78978SOL    HW238709  13.097   2.530  12.177
78979SOL     OW38710   5.131  10.704   0.478
78979SOL    HW138711   5.147  10.791   0.514
78979SOL    HW238712   5.215  10.679   0.438
78980SOL     OW38713   8.060   6.568  10.122
78980SOL    HW138714   8.131   6.564  10.186
78980SOL    HW238715   8.103   6.560  10.038
78981SOL     OW38716   7.162   5.968   7.407
78981SOL    HW138717   7.227   5.918   7.456
78981SOL    HW238718   7.078   5.936   7.439
78982SOL     OW38719   6.455  12.043   9.069
78982SOL    HW138720   6.394  11.977   9.102
78982SOL    HW238721   6.457  12.110   9.137
78983SOL     OW38722   2.144   3.007   0.998
78983SOL    HW138723   2.158   3.028   1.091
78983SOL    HW238724   2.230   2.983   0.966
78984SOL     OW38725  13.989   0.002   3.150
78984SOL    HW138726  13.896   0.003   3.128
78984SOL    HW238727  14.025  14.807   3.098
78985SOL     OW38728   0.650   0.143   1.625
78985SOL    HW138729   0.578   0.128   1.686
78985SOL    HW238730   0.611   0.196   1.555
78986SOL     OW38731   1.970  13.116   9.730
78986SOL    HW138732   2.008  13.179   9.669
78986SOL    HW238733   2.044  13.062   9.758
78987SOL     OW38734   6.841  12.774   5.828
78987SOL    HW138735   6.880  12.861   5.824
78987SOL    HW238736   6.909  12.716   5.795
78988SOL     OW38737   0.124   3.599  12.834
78988SOL    HW138738   0.094   3.689  12.844
78988SOL    HW238739   0.219   3.606  12.825
78989SOL     OW38740  10.994  12.041  13.861
78989SOL    HW138741  10.965  11.980  13.929
78989SOL    HW238742  10.937  12.021  13.786
78990SOL     OW38743   2.603   5.538  10.606
78990SOL    HW138744   2.566   5.625  10.594
78990SOL    HW238745   2.546   5.496  10.670
78991SOL     OW38746   2.950   9.111  14.642
78991SOL    HW138747   2.905   9.195  14.657
78991SOL    HW238748   2.880   9.052  14.614
78992SOL     OW38749   9.882  10.926   6.674
78992SOL    HW138750   9.977  10.923   6.665
78992SOL    HW238751   9.849  10.928   6.584
78993SOL     OW38752   6.520   0.629   8.954
78993SOL    HW138753   6.429   0.603   8.939
78993SOL    HW238754   6.561   0.553   8.996
78994SOL     OW38755   2.987   5.938   4.293
78994SOL    HW138756   3.039   5.910   4.218
78994SOL    HW238757   2.991   6.034   4.292
78995SOL     OW38758  11.168   7.462  13.772
78995SOL    HW138759  11.114   7.511  13.710
78995SOL    HW238760  11.216   7.400  13.717
78996SOL     OW38761   2.587   6.533  12.089
78996SOL    HW138762   2.575   6.543  11.994
78996SOL    HW238763   2.643   6.607  12.114
78997SOL     OW38764   7.280   5.757   9.495
78997SOL    HW138765   7.364   5.718   9.471
78997SOL    HW238766   7.225   5.745   9.418
78998SOL     OW38767   9.121   6.391   9.256
78998SOL    HW138768   9.062   6.321   9.286
78998SOL    HW238769   9.194   6.345   9.216
78999SOL     OW38770   8.952   2.760   9.229
78999SOL    HW138771   9.034   2.715   9.205
78999SOL    HW238772   8.890   2.689   9.245
79000SOL     OW38773  12.106   7.476  13.094
79000SOL    HW138774  12.083   7.567  13.074
79000SOL    HW238775  12.201   7.472  13.086
79001SOL     OW38776  12.196   7.725   6.360
79001SOL    HW138777  12.278   7.764   6.331
79001SOL    HW238778  12.193   7.743   6.454
79002SOL     OW38779   0.062   4.019   9.200
79002SOL    HW138780   0.086   4.066   9.121
79002SOL    HW238781  14.845   4.032   9.208
79003SOL     OW38782  11.068   9.390  13.537
79003SOL    HW138783  11.028   9.371  13.452
79003SOL    HW238784  11.089   9.303  13.573
79004SOL     OW38785   5.243   0.662   8.079
79004SOL    HW138786   5.228   0.675   8.173
79004SOL    HW238787   5.236   0.567   8.067
79005SOL     OW38788   9.490   6.555  11.148
79005SOL    HW138789   9.534   6.569  11.064
79005SOL    HW238790   9.412   6.504  11.126
79006SOL     OW38791   4.808  11.615   0.424
79006SOL    HW138792   4.770  11.559   0.357
79006SOL    HW238793   4.746  11.687   0.434
79007SOL     OW38794  10.328   2.571   8.031
79007SOL    HW138795  10.291   2.606   7.950
79007SOL    HW238796  10.253   2.540   8.081
79008SOL     OW38797   0.309  14.076   6.222
79008SOL    HW138798   0.378  14.029   6.269
79008SOL    HW238799   0.229  14.057   6.272
79009SOL     OW38800   8.764   7.317   2.994
79009SOL    HW138801   8.708   7.241   2.976
79009SOL    HW238802   8.828   7.285   3.057
79010SOL     OW38803   5.864   3.336   6.085
79010SOL    HW138804   5.829   3.260   6.131
79010SOL    HW238805   5.882   3.400   6.153
79011SOL     OW38806   5.528   6.604  11.618
79011SOL    HW138807   5.456   6.581  11.677
79011SOL    HW238808   5.587   6.656  11.673
79012SOL     OW38809   0.425   1.880   2.516
79012SOL    HW138810   0.352   1.831   2.553
79012SOL    HW238811   0.425   1.963   2.563
79013SOL     OW38812   3.214   2.293   7.167
79013SOL    HW138813   3.182   2.362   7.109
79013SOL    HW238814   3.170   2.214   7.136
79014SOL     OW38815  11.141   2.864   8.538
79014SOL    HW138816  11.114   2.956   8.535
79014SOL    HW238817  11.088   2.821   8.471
79015SOL     OW38818   6.495   9.481   8.153
79015SOL    HW138819   6.553   9.479   8.228
79015SOL    HW238820   6.461   9.392   8.146
79016SOL     OW38821  12.110   7.672  14.311
79016SOL    HW138822  12.135   7.636  14.226
79016SOL    HW238823  12.194   7.698  14.351
79017SOL     OW38824   1.646  12.387   4.469
79017SOL    HW138825   1.604  12.376   4.555
79017SOL    HW238826   1.602  12.325   4.412
79018SOL     OW38827   9.893   6.755  12.853
79018SOL    HW138828   9.977   6.756  12.808
79018SOL    HW238829   9.910   6.796  12.937
79019SOL     OW38830   7.211   5.554  12.063
79019SOL    HW138831   7.170   5.519  11.984
79019SOL    HW238832   7.301   5.520  12.060
79020SOL     OW38833   3.718   9.444   3.831
79020SOL    HW138834   3.785   9.469   3.895
79020SOL    HW238835   3.640   9.424   3.883
79021SOL     OW38836  11.574   4.428   1.291
79021SOL    HW138837  11.488   4.416   1.251
79021SOL    HW238838  11.561   4.499   1.354
79022SOL     OW38839  10.790   6.514   5.392
79022SOL    HW138840  10.699   6.504   5.361
79022SOL    HW238841  10.840   6.532   5.312
79023SOL     OW38842   9.896  10.979   4.583
79023SOL    HW138843   9.892  11.071   4.558
79023SOL    HW238844   9.963  10.941   4.526
79024SOL     OW38845   9.261   8.021  13.959
79024SOL    HW138846   9.333   7.976  13.915
79024SOL    HW238847   9.289   8.028  14.051
79025SOL     OW38848   6.855  12.767   0.726
79025SOL    HW138849   6.824  12.838   0.671
79025SOL    HW238850   6.927  12.728   0.676
79026SOL     OW38851   2.714  11.963  12.749
79026SOL    HW138852   2.619  11.963  12.738
79026SOL    HW238853   2.748  12.008  12.671
79027SOL     OW38854   1.603  11.148   0.230
79027SOL    HW138855   1.546  11.224   0.237
79027SOL    HW238856   1.692  11.185   0.233
79028SOL     OW38857   1.792  12.269   3.113
79028SOL    HW138858   1.713  12.231   3.151
79028SOL    HW238859   1.858  12.264   3.182
79029SOL     OW38860  10.545   4.993   5.864
79029SOL    HW138861  10.510   5.014   5.951
79029SOL    HW238862  10.632   5.033   5.863
79030SOL     OW38863   1.444   6.075  10.216
79030SOL    HW138864   1.476   6.160  10.188
79030SOL    HW238865   1.495   6.012  10.165
79031SOL     OW38866  13.457  11.724  11.527
79031SOL    HW138867  13.544  11.694  11.503
79031SOL    HW238868  13.402  11.702  11.451
79032SOL     OW38869   3.151  13.770   4.463
79032SOL    HW138870   3.102  13.851   4.479
79032SOL    HW238871   3.232  13.799   4.420
79033SOL     OW38872   4.878  10.144  13.186
79033SOL    HW138873   4.918  10.194  13.114
79033SOL    HW238874   4.869  10.208  13.257
79034SOL     OW38875   7.680  10.931   5.931
79034SOL    HW138876   7.675  10.836   5.931
79034SOL    HW238877   7.715  10.954   5.845
79035SOL     OW38878   7.675   7.448  11.682
79035SOL    HW138879   7.597   7.494  11.651
79035SOL    HW238880   7.642   7.374  11.732
79036SOL     OW38881   6.561   9.660   4.216
79036SOL    HW138882   6.471   9.672   4.187
79036SOL    HW238883   6.599   9.599   4.152
79037SOL     OW38884   4.342   2.874   5.772
79037SOL    HW138885   4.332   2.916   5.687
79037SOL    HW238886   4.373   2.944   5.830
79038SOL     OW38887  13.867   0.179   3.473
79038SOL    HW138888  13.827   0.184   3.560
79038SOL    HW238889  13.837   0.095   3.438
79039SOL     OW38890   0.523  11.163   8.167
79039SOL    HW138891   0.598  11.160   8.107
79039SOL    HW238892   0.508  11.256   8.182
79040SOL     OW38893  12.251   6.063   4.153
79040SOL    HW138894  12.159   6.091   4.148
79040SOL    HW238895  12.271   6.032   4.065
79041SOL     OW38896   5.513   7.782   3.465
79041SOL    HW138897   5.473   7.834   3.536
79041SOL    HW238898   5.605   7.809   3.464
79042SOL     OW38899   8.005   4.467  11.485
79042SOL    HW138900   8.069   4.414  11.437
79042SOL    HW238901   7.920   4.432  11.457
79043SOL     OW38902   4.009   5.108  11.296
79043SOL    HW138903   4.091   5.082  11.255
79043SOL    HW238904   3.964   5.026  11.315
79044SOL     OW38905  13.614   1.674  10.596
79044SOL    HW138906  13.528   1.652  10.561
79044SOL    HW238907  13.670   1.602  10.569
79045SOL     OW38908   7.390  14.725   0.351
79045SOL    HW138909   7.453  14.654   0.368
79045SOL    HW238910   7.442  14.794   0.310
79046SOL     OW38911   7.170   1.779   9.338
79046SOL    HW138912   7.086   1.807   9.373
79046SOL    HW238913   7.228   1.775   9.414
79047SOL     OW38914  11.701  11.853   0.650
79047SOL    HW138915  11.635  11.899   0.598
79047SOL    HW238916  11.721  11.774   0.599
79048SOL     OW38917   2.394   2.922  13.236
79048SOL    HW138918   2.344   2.981  13.180
79048SOL    HW238919   2.485   2.951  13.225
79049SOL     OW38920   9.243   3.369   6.977
79049SOL    HW138921   9.274   3.281   6.954
79049SOL    HW238922   9.287   3.427   6.915
79050SOL     OW38923   4.576   8.949   8.869
79050SOL    HW138924   4.557   8.895   8.792
79050SOL    HW238925   4.515   8.916   8.936
79051SOL     OW38926   6.896  14.577  12.416
79051SOL    HW138927   6.890  14.671  12.428
79051SOL    HW238928   6.868  14.539  12.499
79052SOL     OW38929   9.248   7.713   0.696
79052SOL    HW138930   9.289   7.662   0.766
79052SOL    HW238931   9.307   7.788   0.683
79053SOL     OW38932  14.823   0.707  12.490
79053SOL    HW138933  14.755   0.773  12.504
79053SOL    HW238934   0.018   0.755  12.451
79054SOL     OW38935   4.273   3.559  13.319
79054SOL    HW138936   4.313   3.523  13.240
79054SOL    HW238937   4.186   3.589  13.291
79055SOL     OW38938   5.844   1.833   8.798
79055SOL    HW138939   5.888   1.755   8.766
79055SOL    HW238940   5.786   1.801   8.868
79056SOL     OW38941   5.107   8.387   7.120
79056SOL    HW138942   5.164   8.456   7.155
79056SOL    HW238943   5.020   8.426   7.120
79057SOL     OW38944   7.084   0.825   0.531
79057SOL    HW138945   7.101   0.765   0.458
79057SOL    HW238946   7.150   0.803   0.596
79058SOL     OW38947  14.391   0.200  10.043
79058SOL    HW138948  14.302   0.209  10.078
79058SOL    HW238949  14.403   0.106  10.031
79059SOL     OW38950   0.612  13.711  13.514
79059SOL    HW138951   0.705  13.688  13.523
79059SOL    HW238952   0.582  13.659  13.440
79060SOL     OW38953   7.628   4.212  10.113
79060SOL    HW138954   7.620   4.185  10.022
79060SOL    HW238955   7.644   4.306  10.109
79061SOL     OW38956   6.733   8.025   9.747
79061SOL    HW138957   6.753   8.071   9.666
79061SOL    HW238958   6.792   8.065   9.811
79062SOL     OW38959   3.127  11.763   2.556
79062SOL    HW138960   3.202  11.706   2.540
79062SOL    HW238961   3.051  11.705   2.557
79063SOL     OW38962   1.784  14.711  12.593
79063SOL    HW138963   1.766  14.794  12.638
79063SOL    HW238964   1.698  14.673  12.577
79064SOL     OW38965   5.983   7.695   2.045
79064SOL    HW138966   6.075   7.703   2.070
79064SOL    HW238967   5.950   7.621   2.095
79065SOL     OW38968   0.519   1.369  11.480
79065SOL    HW138969   0.453   1.302  11.464
79065SOL    HW238970   0.601   1.330  11.448
79066SOL     OW38971   2.767   9.274   8.215
79066SOL    HW138972   2.732   9.259   8.303
79066SOL    HW238973   2.800   9.189   8.187
79067SOL     OW38974  12.707   5.373  11.715
79067SOL    HW138975  12.786   5.422  11.691
79067SOL    HW238976  12.643   5.440  11.737
79068SOL     OW38977  10.003  14.603   3.961
79068SOL    HW138978  10.038  14.583   4.048
79068SOL    HW238979   9.999  14.699   3.959
79069SOL     OW38980   5.492   9.754  14.336
79069SOL    HW138981   5.496   9.709  14.252
79069SOL    HW238982   5.455   9.690  14.397
79070SOL     OW38983   8.336  14.103  13.950
79070SOL    HW138984   8.331  14.030  13.888
79070SOL    HW238985   8.354  14.062  14.034
79071SOL     OW38986   4.345   4.687  11.452
79071SOL    HW138987   4.432   4.691  11.491
79071SOL    HW238988   4.295   4.753  11.499
79072SOL     OW38989   0.748  13.480   7.810
79072SOL    HW138990   0.673  13.452   7.862
79072SOL    HW238991   0.711  13.540   7.745
79073SOL     OW38992  10.166  12.952   2.738
79073SOL    HW138993  10.078  12.949   2.701
79073SOL    HW238994  10.224  12.960   2.663
79074SOL     OW38995  13.630   3.224  10.393
79074SOL    HW138996  13.670   3.273  10.465
79074SOL    HW238997  13.539   3.253  10.392
79075SOL     OW38998   7.076   5.834   3.271
79075SOL    HW138999   7.062   5.773   3.199
79075SOL    HW239000   7.141   5.790   3.327
79076SOL     OW39001   2.813   6.950  13.726
79076SOL    HW139002   2.777   6.899  13.653
79076SOL    HW239003   2.857   7.024  13.685
79077SOL     OW39004   7.096  10.791   1.871
79077SOL    HW139005   7.077  10.707   1.828
79077SOL    HW239006   7.019  10.844   1.855
79078SOL     OW39007  12.576   3.980  14.243
79078SOL    HW139008  12.556   4.037  14.318
79078SOL    HW239009  12.613   3.901  14.282
79079SOL     OW39010   1.458   9.849   3.281
79079SOL    HW139011   1.414   9.875   3.200
79079SOL    HW239012   1.390   9.805   3.332
79080SOL     OW39013   9.240   9.590   9.087
79080SOL    HW139014   9.245   9.496   9.106
79080SOL    HW239015   9.279   9.632   9.164
79081SOL     OW39016  14.837   7.040  14.657
79081SOL    HW139017   0.024   7.083  14.714
79081SOL    HW239018  14.859   6.947  14.661
79082SOL     OW39019   1.735   8.232   2.082
79082SOL    HW139020   1.690   8.195   2.159
79082SOL    HW239021   1.826   8.206   2.092
79083SOL     OW39022  13.085   0.931   0.070
79083SOL    HW139023  13.067   0.858   0.129
79083SOL    HW239024  13.106   1.004   0.129
79084SOL     OW39025  10.048   8.629  12.860
79084SOL    HW139026  10.132   8.656  12.825
79084SOL    HW239027  10.015   8.706  12.906
79085SOL     OW39028  13.413   8.702   1.698
79085SOL    HW139029  13.334   8.661   1.735
79085SOL    HW239030  13.485   8.661   1.745
79086SOL     OW39031   3.824  13.983  13.087
79086SOL    HW139032   3.774  14.016  13.013
79086SOL    HW239033   3.914  14.013  13.070
79087SOL     OW39034   3.060   4.198  10.094
79087SOL    HW139035   3.036   4.195  10.187
79087SOL    HW239036   3.045   4.109  10.063
79088SOL     OW39037   4.610   0.839  12.246
79088SOL    HW139038   4.701   0.808  12.246
79088SOL    HW239039   4.558   0.759  12.256
79089SOL     OW39040   5.244  10.229  12.112
79089SOL    HW139041   5.289  10.310  12.137
79089SOL    HW239042   5.151  10.251  12.114
79090SOL     OW39043  14.579  11.469   8.304
79090SOL    HW139044  14.526  11.489   8.382
79090SOL    HW239045  14.517  11.469   8.232
79091SOL     OW39046   1.648   4.472   6.479
79091SOL    HW139047   1.648   4.393   6.425
79091SOL    HW239048   1.710   4.453   6.550
79092SOL     OW39049   7.274   6.164   6.800
79092SOL    HW139050   7.234   6.087   6.840
79092SOL    HW239051   7.325   6.204   6.871
79093SOL     OW39052  11.542   6.817   2.075
79093SOL    HW139053  11.530   6.776   2.161
79093SOL    HW239054  11.637   6.822   2.064
79094SOL     OW39055  10.274   4.053  10.476
79094SOL    HW139056  10.286   3.975  10.422
79094SOL    HW239057  10.211   4.106  10.427
79095SOL     OW39058  12.765   6.024   8.017
79095SOL    HW139059  12.763   5.929   8.005
79095SOL    HW239060  12.850   6.041   8.058
79096SOL     OW39061   0.293   2.491  10.086
79096SOL    HW139062   0.243   2.560  10.132
79096SOL    HW239063   0.277   2.509   9.993
79097SOL     OW39064   3.011   8.698   2.270
79097SOL    HW139065   2.953   8.768   2.298
79097SOL    HW239066   2.978   8.619   2.314
79098SOL     OW39067   9.206  11.939  12.211
79098SOL    HW139068   9.146  11.931  12.137
79098SOL    HW239069   9.231  11.849  12.230
79099SOL     OW39070   8.690   9.056  11.195
79099SOL    HW139071   8.653   9.051  11.106
79099SOL    HW239072   8.681   9.148  11.220
79100SOL     OW39073  10.030  12.685   6.262
79100SOL    HW139074  10.123  12.691   6.280
79100SOL    HW239075  10.007  12.593   6.281
79101SOL     OW39076   2.367   7.594  13.784
79101SOL    HW139077   2.355   7.689  13.779
79101SOL    HW239078   2.280   7.560  13.805
79102SOL     OW39079  10.893  14.360  11.622
79102SOL    HW139080  10.873  14.437  11.569
79102SOL    HW239081  10.810  14.337  11.664
79103SOL     OW39082   0.556  11.118   2.949
79103SOL    HW139083   0.645  11.135   2.918
79103SOL    HW239084   0.563  11.036   2.998
79104SOL     OW39085   1.988  12.739   4.855
79104SOL    HW139086   2.050  12.778   4.793
79104SOL    HW239087   1.955  12.813   4.905
79105SOL     OW39088   3.011  13.545   0.983
79105SOL    HW139089   3.020  13.639   1.000
79105SOL    HW239090   3.001  13.539   0.888
79106SOL     OW39091   3.033   4.167   0.261
79106SOL    HW139092   3.093   4.242   0.253
79106SOL    HW239093   3.078   4.096   0.215
79107SOL     OW39094   6.885  12.414   1.339
79107SOL    HW139095   6.975  12.433   1.365
79107SOL    HW239096   6.869  12.325   1.371
79108SOL     OW39097   9.873  12.684   5.085
79108SOL    HW139098   9.965  12.667   5.107
79108SOL    HW239099   9.843  12.602   5.045
79109SOL     OW39100   7.943  10.080   7.058
79109SOL    HW139101   7.957   9.999   7.009
79109SOL    HW239102   8.023  10.131   7.043
79110SOL     OW39103  11.849   7.466   2.391
79110SOL    HW139104  11.868   7.559   2.407
79110SOL    HW239105  11.867   7.423   2.475
79111SOL     OW39106   3.146   4.238   5.995
79111SOL    HW139107   3.128   4.307   6.058
79111SOL    HW239108   3.207   4.179   6.041
79112SOL     OW39109   5.599   6.496   9.838
79112SOL    HW139110   5.543   6.570   9.861
79112SOL    HW239111   5.669   6.534   9.785
79113SOL     OW39112  10.378  14.306   3.265
79113SOL    HW139113  10.354  14.299   3.172
79113SOL    HW239114  10.432  14.385   3.270
79114SOL     OW39115   8.960   8.849   6.865
79114SOL    HW139116   8.978   8.828   6.773
79114SOL    HW239117   9.018   8.791   6.914
79115SOL     OW39118  11.912   4.829  11.228
79115SOL    HW139119  11.965   4.804  11.152
79115SOL    HW239120  11.827   4.854  11.191
79116SOL     OW39121   3.312   6.380   0.634
79116SOL    HW139122   3.313   6.434   0.555
79116SOL    HW239123   3.226   6.396   0.673
79117SOL     OW39124   0.067   0.427  14.404
79117SOL    HW139125   0.160   0.407  14.392
79117SOL    HW239126   0.049   0.407  14.495
79118SOL     OW39127   0.808   2.810   1.832
79118SOL    HW139128   0.797   2.876   1.763
79118SOL    HW239129   0.791   2.858   1.913
79119SOL     OW39130  12.413   4.245   1.936
79119SOL    HW139131  12.339   4.301   1.959
79119SOL    HW239132  12.481   4.267   2.000
79120SOL     OW39133   2.174  13.718   3.260
79120SOL    HW139134   2.129  13.684   3.182
79120SOL    HW239135   2.111  13.705   3.330
79121SOL     OW39136   5.499   1.043  14.247
79121SOL    HW139137   5.558   1.066  14.318
79121SOL    HW239138   5.421   1.009  14.290
79122SOL     OW39139   8.059   0.986  14.087
79122SOL    HW139140   8.056   0.890  14.093
79122SOL    HW239141   8.034   1.005  13.997
79123SOL     OW39142   1.238  13.200   3.714
79123SOL    HW139143   1.227  13.228   3.805
79123SOL    HW239144   1.331  13.216   3.696
79124SOL     OW39145   1.137   6.335  11.562
79124SOL    HW139146   1.053   6.347  11.518
79124SOL    HW239147   1.141   6.241  11.580
79125SOL     OW39148  11.696  12.705  11.812
79125SOL    HW139149  11.640  12.634  11.842
79125SOL    HW239150  11.785  12.674  11.829
79126SOL     OW39151  10.400   6.561   4.915
79126SOL    HW139152  10.337   6.490   4.923
79126SOL    HW239153  10.351   6.640   4.939
79127SOL     OW39154  11.650  12.924   3.024
79127SOL    HW139155  11.627  12.934   3.116
79127SOL    HW239156  11.742  12.897   3.025
79128SOL     OW39157  10.153   1.720  14.341
79128SOL    HW139158  10.075   1.691  14.388
79128SOL    HW239159  10.166   1.810  14.370
79129SOL     OW39160   5.865  13.110   6.886
79129SOL    HW139161   5.816  13.028   6.889
79129SOL    HW239162   5.920  13.102   6.808
79130SOL     OW39163   4.605   6.223   5.657
79130SOL    HW139164   4.553   6.237   5.736
79130SOL    HW239165   4.548   6.252   5.585
79131SOL     OW39166   0.609  12.747  11.998
79131SOL    HW139167   0.516  12.761  11.981
79131SOL    HW239168   0.617  12.653  12.008
79132SOL     OW39169   5.739  14.568   1.666
79132SOL    HW139170   5.673  14.553   1.599
79132SOL    HW239171   5.820  14.533   1.629
79133SOL     OW39172  10.629   5.279   5.430
79133SOL    HW139173  10.720   5.272   5.459
79133SOL    HW239174  10.578   5.273   5.511
79134SOL     OW39175   2.595   9.832  12.808
79134SOL    HW139176   2.671   9.788  12.846
79134SOL    HW239177   2.528   9.764  12.803
79135SOL     OW39178   4.046   2.620   6.414
79135SOL    HW139179   4.074   2.530   6.435
79135SOL    HW239180   4.103   2.646   6.342
79136SOL     OW39181  10.956   1.609  12.485
79136SOL    HW139182  10.919   1.691  12.451
79136SOL    HW239183  10.892   1.543  12.460
79137SOL     OW39184   6.879   0.772   1.719
79137SOL    HW139185   6.829   0.850   1.742
79137SOL    HW239186   6.822   0.699   1.741
79138SOL     OW39187   1.427   5.252   3.701
79138SOL    HW139188   1.450   5.168   3.743
79138SOL    HW239189   1.434   5.234   3.607
79139SOL     OW39190  10.251   2.927  13.129
79139SOL    HW139191  10.167   2.965  13.156
79139SOL    HW239192  10.269   2.969  13.045
79140SOL     OW39193   3.023   1.831  13.445
79140SOL    HW139194   3.005   1.804  13.355
79140SOL    HW239195   3.021   1.749  13.495
79141SOL     OW39196  13.898   5.211  12.416
79141SOL    HW139197  13.979   5.181  12.375
79141SOL    HW239198  13.849   5.251  12.344
79142SOL     OW39199   7.734   8.570   3.148
79142SOL    HW139200   7.682   8.625   3.090
79142SOL    HW239201   7.706   8.594   3.236
79143SOL     OW39202  11.998   8.910   4.876
79143SOL    HW139203  11.997   8.837   4.938
79143SOL    HW239204  12.013   8.988   4.931
79144SOL     OW39205   8.306   0.701   4.789
79144SOL    HW139206   8.349   0.698   4.875
79144SOL    HW239207   8.245   0.628   4.791
79145SOL     OW39208   8.807   8.780   4.587
79145SOL    HW139209   8.860   8.743   4.657
79145SOL    HW239210   8.808   8.874   4.604
79146SOL     OW39211   2.843   5.605   8.283
79146SOL    HW139212   2.884   5.541   8.225
79146SOL    HW239213   2.878   5.585   8.369
79147SOL     OW39214  12.670   9.370   6.406
79147SOL    HW139215  12.663   9.387   6.499
79147SOL    HW239216  12.672   9.457   6.365
79148SOL     OW39217   0.097  12.139  13.263
79148SOL    HW139218   0.105  12.078  13.337
79148SOL    HW239219   0.003  12.149  13.251
79149SOL     OW39220   9.790   0.712   5.037
79149SOL    HW139221   9.855   0.744   5.099
79149SOL    HW239222   9.842   0.673   4.966
79150SOL     OW39223   1.576  10.067   7.714
79150SOL    HW139224   1.545  10.153   7.744
79150SOL    HW239225   1.502  10.009   7.727
79151SOL     OW39226   3.262  10.522   1.448
79151SOL    HW139227   3.179  10.525   1.496
79151SOL    HW239228   3.323  10.572   1.502
79152SOL     OW39229  12.805   6.398   7.207
79152SOL    HW139230  12.889   6.387   7.164
79152SOL    HW239231  12.820   6.465   7.274
79153SOL     OW39232  11.549   0.737   9.699
79153SOL    HW139233  11.642   0.758   9.715
79153SOL    HW239234  11.506   0.823   9.701
79154SOL     OW39235  14.823   4.774  10.915
79154SOL    HW139236  14.770   4.852  10.895
79154SOL    HW239237   0.013   4.773  10.846
79155SOL     OW39238  14.206   3.208   5.584
79155SOL    HW139239  14.299   3.226   5.572
79155SOL    HW239240  14.204   3.119   5.621
79156SOL     OW39241  10.422  11.959   3.129
79156SOL    HW139242  10.343  11.912   3.157
79156SOL    HW239243  10.462  11.990   3.211
79157SOL     OW39244   4.098   3.445   9.021
79157SOL    HW139245   4.074   3.526   8.976
79157SOL    HW239246   4.080   3.463   9.114
79158SOL     OW39247  13.068  13.121   6.380
79158SOL    HW139248  13.064  13.065   6.458
79158SOL    HW239249  13.056  13.061   6.307
79159SOL     OW39250  10.069  11.338   6.139
79159SOL    HW139251  10.018  11.335   6.058
79159SOL    HW239252  10.139  11.401   6.122
79160SOL     OW39253   6.554  13.625   2.418
79160SOL    HW139254   6.594  13.542   2.389
79160SOL    HW239255   6.629  13.681   2.438
79161SOL     OW39256   8.170   2.673  13.479
79161SOL    HW139257   8.175   2.658  13.573
79161SOL    HW239258   8.255   2.709  13.456
79162SOL     OW39259  13.661   5.466   9.786
79162SOL    HW139260  13.727   5.472   9.717
79162SOL    HW239261  13.702   5.412   9.854
79163SOL     OW39262   4.484   4.479   5.057
79163SOL    HW139263   4.510   4.526   5.137
79163SOL    HW239264   4.389   4.487   5.054
79164SOL     OW39265   0.268   8.237  13.775
79164SOL    HW139266   0.347   8.209  13.729
79164SOL    HW239267   0.240   8.159  13.823
79165SOL     OW39268   7.119   7.703  14.521
79165SOL    HW139269   7.109   7.798  14.526
79165SOL    HW239270   7.178   7.681  14.594
79166SOL     OW39271  12.436   1.056   6.074
79166SOL    HW139272  12.523   1.016   6.069
79166SOL    HW239273  12.454   1.149   6.090
79167SOL     OW39274   7.074   8.690   3.203
79167SOL    HW139275   7.117   8.674   3.120
79167SOL    HW239276   7.016   8.764   3.187
79168SOL     OW39277   0.740   7.327   5.286
79168SOL    HW139278   0.693   7.297   5.363
79168SOL    HW239279   0.832   7.319   5.309
79169SOL     OW39280   5.546  10.435   5.102
79169SOL    HW139281   5.614  10.480   5.152
79169SOL    HW239282   5.590  10.359   5.064
79170SOL     OW39283  11.546  10.501   2.007
79170SOL    HW139284  11.599  10.456   1.941
79170SOL    HW239285  11.481  10.550   1.955
79171SOL     OW39286   3.261  13.884  11.049
79171SOL    HW139287   3.170  13.899  11.074
79171SOL    HW239288   3.256  13.850  10.960
79172SOL     OW39289   1.913  12.406   2.883
79172SOL    HW139290   1.877  12.361   2.959
79172SOL    HW239291   1.920  12.338   2.816
79173SOL     OW39292   8.211   9.160   9.936
79173SOL    HW139293   8.305   9.160   9.950
79173SOL    HW239294   8.187   9.068   9.925
79174SOL     OW39295   2.992   4.047   3.784
79174SOL    HW139296   3.067   4.024   3.729
79174SOL    HW239297   2.927   3.980   3.765
79175SOL     OW39298   9.136   0.868   0.004
79175SOL    HW139299   9.160   0.948  14.835
79175SOL    HW239300   9.041   0.862  14.871
79176SOL     OW39301   4.584  11.697   6.825
79176SOL    HW139302   4.662  11.679   6.878
79176SOL    HW239303   4.514  11.711   6.889
79177SOL     OW39304  14.690   7.031   7.401
79177SOL    HW139305  14.698   7.095   7.330
79177SOL    HW239306  14.775   6.988   7.405
79178SOL     OW39307   8.694   0.274   0.668
79178SOL    HW139308   8.601   0.259   0.651
79178SOL    HW239309   8.729   0.188   0.690
79179SOL     OW39310   6.544  14.794  14.554
79179SOL    HW139311   6.526  14.873  14.504
79179SOL    HW239312   6.471  14.786  14.614
79180SOL     OW39313  13.406   7.836   4.232
79180SOL    HW139314  13.410   7.762   4.292
79180SOL    HW239315  13.497   7.861   4.217
79181SOL     OW39316  12.446  14.334   6.394
79181SOL    HW139317  12.398  14.389   6.457
79181SOL    HW239318  12.412  14.361   6.309
79182SOL     OW39319   9.751  14.583  13.975
79182SOL    HW139320   9.735  14.545  13.889
79182SOL    HW239321   9.704  14.526  14.036
79183SOL     OW39322   9.050   9.862  12.546
79183SOL    HW139323   9.114   9.883  12.614
79183SOL    HW239324   8.966   9.892  12.581
79184SOL     OW39325   6.833   2.478   0.191
79184SOL    HW139326   6.772   2.491   0.263
79184SOL    HW239327   6.821   2.387   0.165
79185SOL     OW39328  13.405   6.563   1.121
79185SOL    HW139329  13.475   6.625   1.100
79185SOL    HW239330  13.427   6.531   1.209
79186SOL     OW39331   3.339   4.616  10.257
79186SOL    HW139332   3.425   4.657  10.266
79186SOL    HW239333   3.339   4.578  10.169
79187SOL     OW39334   9.237  14.798  12.859
79187SOL    HW139335   9.256  14.705  12.855
79187SOL    HW239336   9.259  14.823  12.949
79188SOL     OW39337  12.836   9.991   9.034
79188SOL    HW139338  12.881   9.924   9.085
79188SOL    HW239339  12.905  10.054   9.012
79189SOL     OW39340  14.247   8.781  11.481
79189SOL    HW139341  14.270   8.870  11.507
79189SOL    HW239342  14.177   8.793  11.416
79190SOL     OW39343   0.141  11.213  13.051
79190SOL    HW139344   0.126  11.303  13.022
79190SOL    HW239345   0.128  11.216  13.146
79191SOL     OW39346   1.722  10.780   0.941
79191SOL    HW139347   1.660  10.818   0.879
79191SOL    HW239348   1.779  10.852   0.965
79192SOL     OW39349   5.874   0.791   3.286
79192SOL    HW139350   5.922   0.789   3.204
79192SOL    HW239351   5.933   0.834   3.348
79193SOL     OW39352  11.004  10.967  11.727
79193SOL    HW139353  11.034  10.903  11.792
79193SOL    HW239354  11.057  11.044  11.744
79194SOL     OW39355   7.726   5.264   0.742
79194SOL    HW139356   7.655   5.218   0.786
79194SOL    HW239357   7.793   5.276   0.810
79195SOL     OW39358  10.081   4.560  13.654
79195SOL    HW139359  10.057   4.482  13.603
79195SOL    HW239360  10.170   4.542  13.684
79196SOL     OW39361  10.613   8.201   8.265
79196SOL    HW139362  10.657   8.218   8.182
79196SOL    HW239363  10.522   8.222   8.248
79197SOL     OW39364   1.181   8.463   0.233
79197SOL    HW139365   1.150   8.384   0.276
79197SOL    HW239366   1.264   8.438   0.193
79198SOL     OW39367   9.038   1.410  10.552
79198SOL    HW139368   8.976   1.461  10.500
79198SOL    HW239369   9.055   1.464  10.630
79199SOL     OW39370   7.119  14.423   9.777
79199SOL    HW139371   7.149  14.501   9.825
79199SOL    HW239372   7.198  14.371   9.764
79200SOL     OW39373   1.883  10.326   2.157
79200SOL    HW139374   1.847  10.415   2.156
79200SOL    HW239375   1.822  10.275   2.103
79201SOL     OW39376  14.820   7.373  10.638
79201SOL    HW139377  14.795   7.308  10.573
79201SOL    HW239378   0.031   7.399  10.613
79202SOL     OW39379   3.394   0.037   4.113
79202SOL    HW139380   3.479   0.007   4.146
79202SOL    HW239381   3.378   0.119   4.161
79203SOL     OW39382   4.670  13.130  12.596
79203SOL    HW139383   4.638  13.164  12.680
79203SOL    HW239384   4.683  13.036  12.612
79204SOL     OW39385   8.631  13.364   5.227
79204SOL    HW139386   8.637  13.331   5.137
79204SOL    HW239387   8.694  13.312   5.276
79205SOL     OW39388  13.228  11.649   4.519
79205SOL    HW139389  13.204  11.636   4.610
79205SOL    HW239390  13.296  11.584   4.503
79206SOL     OW39391   3.272   0.512  14.439
79206SOL    HW139392   3.354   0.562  14.438
79206SOL    HW239393   3.233   0.528  14.353
79207SOL     OW39394   6.724   6.023   0.146
79207SOL    HW139395   6.639   6.036   0.103
79207SOL    HW239396   6.785   6.076   0.094
79208SOL     OW39397   1.451   9.296   3.024
79208SOL    HW139398   1.467   9.367   3.086
79208SOL    HW239399   1.431   9.340   2.941
79209SOL     OW39400   4.714   6.697   9.208
79209SOL    HW139401   4.803   6.677   9.178
79209SOL    HW239402   4.694   6.627   9.271
79210SOL     OW39403   6.960   3.474   1.910
79210SOL    HW139404   6.897   3.508   1.847
79210SOL    HW239405   6.907   3.441   1.982
79211SOL     OW39406  11.894  10.224   2.256
79211SOL    HW139407  11.893  10.288   2.185
79211SOL    HW239408  11.847  10.266   2.327
79212SOL     OW39409  13.406   2.420   8.580
79212SOL    HW139410  13.349   2.398   8.654
79212SOL    HW239411  13.346   2.452   8.512
79213SOL     OW39412   6.481   0.495  10.049
79213SOL    HW139413   6.556   0.493  10.108
79213SOL    HW239414   6.486   0.412  10.001
79214SOL     OW39415   5.768   1.758   3.975
79214SOL    HW139416   5.695   1.707   4.008
79214SOL    HW239417   5.781   1.728   3.885
79215SOL     OW39418  13.454   6.501   7.626
79215SOL    HW139419  13.451   6.417   7.673
79215SOL    HW239420  13.366   6.538   7.636
79216SOL     OW39421   4.799   7.760   5.065
79216SOL    HW139422   4.857   7.796   4.999
79216SOL    HW239423   4.781   7.833   5.124
79217SOL     OW39424  11.130  14.448  10.506
79217SOL    HW139425  11.087  14.382  10.560
79217SOL    HW239426  11.092  14.531  10.535
79218SOL     OW39427   6.057   9.902   9.162
79218SOL    HW139428   5.967   9.928   9.145
79218SOL    HW239429   6.103   9.920   9.080
79219SOL     OW39430   9.890   6.312   3.369
79219SOL    HW139431   9.973   6.271   3.394
79219SOL    HW239432   9.916   6.388   3.318
79220SOL     OW39433   6.777   7.108   8.583
79220SOL    HW139434   6.767   7.110   8.679
79220SOL    HW239435   6.687   7.112   8.550
79221SOL     OW39436   4.965   7.303  10.670
79221SOL    HW139437   4.913   7.281  10.747
79221SOL    HW239438   5.050   7.329  10.705
79222SOL     OW39439  10.388   4.755  13.371
79222SOL    HW139440  10.302   4.757  13.330
79222SOL    HW239441  10.397   4.840  13.413
79223SOL     OW39442   4.779   7.358   1.275
79223SOL    HW139443   4.852   7.296   1.277
79223SOL    HW239444   4.813   7.436   1.318
79224SOL     OW39445   3.598   7.286   1.293
79224SOL    HW139446   3.617   7.347   1.221
79224SOL    HW239447   3.540   7.220   1.254
79225SOL     OW39448   0.317  11.714  13.355
79225SOL    HW139449   0.367  11.792  13.332
79225SOL    HW239450   0.307  11.718  13.450
79226SOL     OW39451  12.480   6.125   7.379
79226SOL    HW139452  12.420   6.097   7.310
79226SOL    HW239453  12.561   6.146   7.333
79227SOL     OW39454   1.583   8.375  13.258
79227SOL    HW139455   1.497   8.336  13.275
79227SOL    HW239456   1.642   8.300  13.253
79228SOL     OW39457   9.079   2.781  12.379
79228SOL    HW139458   9.041   2.853  12.328
79228SOL    HW239459   9.160   2.759  12.333
79229SOL     OW39460   8.695  10.750  14.297
79229SOL    HW139461   8.759  10.740  14.368
79229SOL    HW239462   8.723  10.829  14.251
79230SOL     OW39463   0.572   4.863   6.080
79230SOL    HW139464   0.482   4.872   6.050
79230SOL    HW239465   0.607   4.952   6.078
79231SOL     OW39466  10.703   9.373   0.830
79231SOL    HW139467  10.652   9.357   0.751
79231SOL    HW239468  10.791   9.340   0.808
79232SOL     OW39469   8.067   4.504   5.628
79232SOL    HW139470   8.065   4.408   5.620
79232SOL    HW239471   8.143   4.522   5.682
79233SOL     OW39472  11.020  12.048   5.448
79233SOL    HW139473  11.068  12.121   5.409
79233SOL    HW239474  10.931  12.058   5.415
79234SOL     OW39475   7.283   8.733   9.766
79234SOL    HW139476   7.338   8.795   9.718
79234SOL    HW239477   7.333   8.652   9.768
79235SOL     OW39478   9.151   3.093   7.086
79235SOL    HW139479   9.142   3.030   7.014
79235SOL    HW239480   9.061   3.110   7.114
79236SOL     OW39481  12.640   4.474   3.101
79236SOL    HW139482  12.656   4.387   3.138
79236SOL    HW239483  12.551   4.469   3.064
79237SOL     OW39484  12.469  12.286  10.623
79237SOL    HW139485  12.525  12.251  10.553
79237SOL    HW239486  12.380  12.270  10.593
79238SOL     OW39487   2.054   1.206   6.585
79238SOL    HW139488   2.118   1.260   6.633
79238SOL    HW239489   1.981   1.197   6.646
79239SOL     OW39490  12.820   7.442   8.190
79239SOL    HW139491  12.908   7.478   8.204
79239SOL    HW239492  12.761   7.508   8.224
79240SOL     OW39493   4.540   8.697  12.035
79240SOL    HW139494   4.500   8.777  12.070
79240SOL    HW239495   4.558   8.643  12.111
79241SOL     OW39496   4.481   7.574  14.484
79241SOL    HW139497   4.413   7.558  14.418
79241SOL    HW239498   4.448   7.533  14.563
79242SOL     OW39499   0.784   5.407   6.749
79242SOL    HW139500   0.731   5.339   6.792
79242SOL    HW239501   0.874   5.376   6.757
79243SOL     OW39502   7.194   4.294   8.998
79243SOL    HW139503   7.132   4.228   9.028
79243SOL    HW239504   7.250   4.311   9.074
79244SOL     OW39505   4.485   6.996   6.216
79244SOL    HW139506   4.564   6.977   6.266
79244SOL    HW239507   4.417   6.944   6.259
79245SOL     OW39508   3.611   1.052   0.887
79245SOL    HW139509   3.516   1.043   0.885
79245SOL    HW239510   3.628   1.143   0.863
79246SOL     OW39511  13.348   6.076  13.234
79246SOL    HW139512  13.327   6.168  13.249
79246SOL    HW239513  13.405   6.052  13.307
79247SOL     OW39514   4.463   0.373   2.193
79247SOL    HW139515   4.449   0.467   2.177
79247SOL    HW239516   4.377   0.340   2.219
79248SOL     OW39517   0.386  11.533   3.155
79248SOL    HW139518   0.384  11.495   3.243
79248SOL    HW239519   0.380  11.458   3.096
79249SOL     OW39520  10.938  11.562   9.490
79249SOL    HW139521  11.005  11.498   9.512
79249SOL    HW239522  10.987  11.644   9.475
79250SOL     OW39523   9.489   6.450   9.942
79250SOL    HW139524   9.467   6.426   9.852
79250SOL    HW239525   9.584   6.446   9.945
79251SOL     OW39526   3.494   5.420   8.826
79251SOL    HW139527   3.584   5.389   8.836
79251SOL    HW239528   3.465   5.436   8.916
79252SOL     OW39529   8.952  12.617  12.042
79252SOL    HW139530   9.047  12.623  12.027
79252SOL    HW239531   8.914  12.676  11.977
79253SOL     OW39532  11.354  13.825   8.173
79253SOL    HW139533  11.429  13.791   8.220
79253SOL    HW239534  11.389  13.893   8.116
79254SOL     OW39535   4.255   5.486  11.695
79254SOL    HW139536   4.332   5.531  11.660
79254SOL    HW239537   4.270   5.394  11.676
79255SOL     OW39538  12.317   3.791  12.177
79255SOL    HW139539  12.271   3.808  12.259
79255SOL    HW239540  12.289   3.704  12.150
79256SOL     OW39541   8.319   4.038  12.128
79256SOL    HW139542   8.298   3.952  12.163
79256SOL    HW239543   8.392   4.024  12.069
79257SOL     OW39544   8.582   9.422   3.120
79257SOL    HW139545   8.608   9.333   3.094
79257SOL    HW239546   8.563   9.415   3.213
79258SOL     OW39547   1.007   0.085   5.039
79258SOL    HW139548   1.090   0.129   5.024
79258SOL    HW239549   0.943   0.140   4.993
79259SOL     OW39550  10.746  10.736  13.772
79259SOL    HW139551  10.664  10.712  13.816
79259SOL    HW239552  10.805  10.663  13.791
79260SOL     OW39553   9.715   7.062   9.957
79260SOL    HW139554   9.728   6.968   9.946
79260SOL    HW239555   9.799   7.101   9.930
79261SOL     OW39556   3.583   7.807   3.853
79261SOL    HW139557   3.614   7.793   3.763
79261SOL    HW239558   3.566   7.901   3.858
79262SOL     OW39559  13.494   6.531  12.807
79262SOL    HW139560  13.403   6.503  12.804
79262SOL    HW239561  13.544   6.454  12.780
79263SOL     OW39562   8.602   8.502  10.256
79263SOL    HW139563   8.555   8.441  10.312
79263SOL    HW239564   8.694   8.488  10.277
79264SOL     OW39565   6.484   8.656   1.575
79264SOL    HW139566   6.435   8.734   1.549
79264SOL    HW239567   6.437   8.623   1.652
79265SOL     OW39568   0.521   5.624   8.155
79265SOL    HW139569   0.425   5.627   8.162
79265SOL    HW239570   0.541   5.682   8.081
79266SOL     OW39571  14.822  13.970   6.947
79266SOL    HW139572  14.785  14.028   6.880
79266SOL    HW239573  14.837  13.887   6.901
79267SOL     OW39574   9.462  11.418   4.959
79267SOL    HW139575   9.411  11.497   4.975
79267SOL    HW239576   9.421  11.351   5.014
79268SOL     OW39577   5.437  12.605  11.184
79268SOL    HW139578   5.516  12.580  11.137
79268SOL    HW239579   5.369  12.549  11.147
79269SOL     OW39580   4.898   6.209  14.174
79269SOL    HW139581   4.832   6.187  14.109
79269SOL    HW239582   4.867   6.291  14.213
79270SOL     OW39583   3.073   6.988   9.387
79270SOL    HW139584   3.025   6.909   9.361
79270SOL    HW239585   3.006   7.045   9.424
79271SOL     OW39586   3.132   7.543   4.378
79271SOL    HW139587   3.211   7.592   4.355
79271SOL    HW239588   3.094   7.592   4.451
79272SOL     OW39589   8.499  11.328   6.594
79272SOL    HW139590   8.581  11.291   6.562
79272SOL    HW239591   8.525  11.405   6.644
79273SOL     OW39592  12.242  12.603   3.367
79273SOL    HW139593  12.270  12.682   3.412
79273SOL    HW239594  12.322  12.551   3.357
79274SOL     OW39595   0.499   1.501   1.270
79274SOL    HW139596   0.535   1.516   1.357
79274SOL    HW239597   0.556   1.434   1.232
79275SOL     OW39598  10.355   2.627   1.672
79275SOL    HW139599  10.406   2.687   1.726
79275SOL    HW239600  10.316   2.566   1.735
79276SOL     OW39601   3.084   4.363   1.786
79276SOL    HW139602   3.030   4.429   1.828
79276SOL    HW239603   3.158   4.351   1.846
79277SOL     OW39604   0.514   2.749   9.417
79277SOL    HW139605   0.523   2.680   9.351
79277SOL    HW239606   0.577   2.816   9.390
79278SOL     OW39607   4.965  14.438   4.619
79278SOL    HW139608   4.936  14.363   4.671
79278SOL    HW239609   5.061  14.432   4.620
79279SOL     OW39610   9.810   0.040  12.996
79279SOL    HW139611   9.860   0.121  12.989
79279SOL    HW239612   9.720   0.066  12.975
79280SOL     OW39613   6.963  14.305   7.880
79280SOL    HW139614   7.051  14.277   7.855
79280SOL    HW239615   6.975  14.393   7.916
79281SOL     OW39616   8.977  10.512  13.733
79281SOL    HW139617   8.937  10.426  13.748
79281SOL    HW239618   9.049  10.495  13.672
79282SOL     OW39619  12.146   0.958   4.045
79282SOL    HW139620  12.233   0.986   4.016
79282SOL    HW239621  12.086   1.022   4.007
79283SOL     OW39622  13.252   0.955  10.355
79283SOL    HW139623  13.243   1.014  10.430
79283SOL    HW239624  13.317   0.997  10.298
79284SOL     OW39625   4.734  13.369   6.511
79284SOL    HW139626   4.684  13.336   6.586
79284SOL    HW239627   4.673  13.362   6.437
79285SOL     OW39628  14.539   5.340   6.269
79285SOL    HW139629  14.616   5.378   6.311
79285SOL    HW239630  14.554   5.245   6.272
79286SOL     OW39631   1.327  12.641   3.277
79286SOL    HW139632   1.405  12.683   3.314
79286SOL    HW239633   1.254  12.692   3.311
79287SOL     OW39634   6.907  11.065   7.214
79287SOL    HW139635   6.835  11.018   7.257
79287SOL    HW239636   6.952  10.998   7.162
79288SOL     OW39637  12.200  11.089   0.309
79288SOL    HW139638  12.231  11.175   0.337
79288SOL    HW239639  12.191  11.039   0.389
79289SOL     OW39640   5.129   1.213   8.203
79289SOL    HW139641   5.179   1.133   8.186
79289SOL    HW239642   5.163   1.276   8.140
79290SOL     OW39643   6.162   1.728   3.979
79290SOL    HW139644   6.111   1.797   3.937
79290SOL    HW239645   6.245   1.770   4.001
79291SOL     OW39646   1.117   1.716   4.808
79291SOL    HW139647   1.166   1.740   4.887
79291SOL    HW239648   1.145   1.779   4.742
79292SOL     OW39649   1.387   1.067   7.397
79292SOL    HW139650   1.459   1.108   7.349
79292SOL    HW239651   1.392   1.104   7.485
79293SOL     OW39652   6.990  10.557   6.895
79293SOL    HW139653   7.064  10.577   6.953
79293SOL    HW239654   7.014  10.594   6.810
79294SOL     OW39655   0.137   3.476   7.338
79294SOL    HW139656   0.133   3.395   7.286
79294SOL    HW239657   0.150   3.545   7.272
79295SOL     OW39658  11.047  13.988   5.723
79295SOL    HW139659  11.076  14.075   5.693
79295SOL    HW239660  11.113  13.961   5.786
79296SOL     OW39661   5.265  10.849   8.052
79296SOL    HW139662   5.259  10.943   8.070
79296SOL    HW239663   5.185  10.812   8.089
79297SOL     OW39664  11.443   7.488  13.902
79297SOL    HW139665  11.461   7.509  13.811
79297SOL    HW239666  11.347   7.482  13.907
79298SOL     OW39667  10.748  13.640   9.762
79298SOL    HW139668  10.653  13.647   9.749
79298SOL    HW239669  10.758  13.624   9.856
79299SOL     OW39670  14.069   9.628   4.896
79299SOL    HW139671  14.145   9.634   4.838
79299SOL    HW239672  14.012   9.563   4.855
79300SOL     OW39673   9.247   0.565   3.430
79300SOL    HW139674   9.276   0.654   3.409
79300SOL    HW239675   9.152   0.571   3.432
79301SOL     OW39676   3.895   2.728  13.477
79301SOL    HW139677   3.811   2.690  13.502
79301SOL    HW239678   3.959   2.662  13.502
79302SOL     OW39679  12.207   5.125   0.246
79302SOL    HW139680  12.193   5.118   0.340
79302SOL    HW239681  12.251   5.043   0.222
79303SOL     OW39682   1.759  12.207   0.069
79303SOL    HW139683   1.785  12.211   0.161
79303SOL    HW239684   1.702  12.283   0.057
79304SOL     OW39685   9.097  14.187   5.863
79304SOL    HW139686   9.075  14.169   5.954
79304SOL    HW239687   9.184  14.228   5.867
79305SOL     OW39688  13.635   7.262  10.896
79305SOL    HW139689  13.565   7.196  10.895
79305SOL    HW239690  13.589   7.345  10.909
79306SOL     OW39691   5.059   4.712  12.092
79306SOL    HW139692   5.062   4.673  12.004
79306SOL    HW239693   5.123   4.783  12.089
79307SOL     OW39694   6.228  14.721   9.145
79307SOL    HW139695   6.170  14.730   9.220
79307SOL    HW239696   6.220  14.629   9.119
79308SOL     OW39697  11.370  12.383   6.398
79308SOL    HW139698  11.393  12.315   6.462
79308SOL    HW239699  11.450  12.399   6.349
79309SOL     OW39700   5.405  12.226   8.138
79309SOL    HW139701   5.379  12.303   8.190
79309SOL    HW239702   5.337  12.218   8.071
79310SOL     OW39703  11.074   1.254   8.363
79310SOL    HW139704  10.994   1.233   8.315
79310SOL    HW239705  11.044   1.286   8.448
79311SOL     OW39706  13.206   2.221   2.021
79311SOL    HW139707  13.235   2.131   2.022
79311SOL    HW239708  13.174   2.235   1.932
79312SOL     OW39709  14.421  14.309   8.141
79312SOL    HW139710  14.511  14.341   8.127
79312SOL    HW239711  14.382  14.309   8.054
79313SOL     OW39712   8.566  11.447  10.434
79313SOL    HW139713   8.580  11.366  10.484
79313SOL    HW239714   8.471  11.458  10.433
79314SOL     OW39715   6.479   9.277   4.740
79314SOL    HW139716   6.515   9.224   4.811
79314SOL    HW239717   6.487   9.367   4.771
79315SOL     OW39718  13.555  11.173  13.090
79315SOL    HW139719  13.497  11.164  13.166
79315SOL    HW239720  13.544  11.265  13.063
79316SOL     OW39721   7.035  10.109  13.016
79316SOL    HW139722   7.068  10.090  12.928
79316SOL    HW239723   6.993  10.029  13.044
79317SOL     OW39724   8.001   3.848   6.107
79317SOL    HW139725   7.950   3.819   6.032
79317SOL    HW239726   7.938   3.851   6.179
79318SOL     OW39727   8.103  10.234   3.672
79318SOL    HW139728   8.055  10.154   3.693
79318SOL    HW239729   8.170  10.241   3.740
79319SOL     OW39730   6.544   4.009   2.096
79319SOL    HW139731   6.450   4.024   2.102
79319SOL    HW239732   6.556   3.919   2.123
79320SOL     OW39733   6.972  13.175   0.488
79320SOL    HW139734   6.957  13.263   0.455
79320SOL    HW239735   7.048  13.143   0.439
79321SOL     OW39736   6.501  11.950   2.884
79321SOL    HW139737   6.440  12.020   2.909
79321SOL    HW239738   6.520  11.904   2.966
79322SOL     OW39739  11.502   9.288  14.813
79322SOL    HW139740  11.598   9.290  14.816
79322SOL    HW239741  11.480   9.339  14.735
79323SOL     OW39742   9.644   3.805  12.370
79323SOL    HW139743   9.688   3.887  12.344
79323SOL    HW239744   9.637   3.811  12.465
79324SOL     OW39745  10.097   0.802   0.172
79324SOL    HW139746  10.055   0.873   0.220
79324SOL    HW239747  10.078   0.822   0.080
79325SOL     OW39748   2.438  11.615   3.925
79325SOL    HW139749   2.428  11.672   4.001
79325SOL    HW239750   2.381  11.653   3.858
79326SOL     OW39751   0.837   1.880   8.029
79326SOL    HW139752   0.833   1.807   8.090
79326SOL    HW239753   0.817   1.840   7.944
79327SOL     OW39754   6.830  14.749   5.688
79327SOL    HW139755   6.755  14.796   5.724
79327SOL    HW239756   6.799  14.714   5.605
79328SOL     OW39757   0.138  14.087   5.014
79328SOL    HW139758   0.084  14.049   5.083
79328SOL    HW239759   0.103  14.176   5.002
79329SOL     OW39760  10.486  11.585   9.332
79329SOL    HW139761  10.443  11.598   9.417
79329SOL    HW239762  10.418  11.546   9.277
79330SOL     OW39763   1.043  12.087   4.692
79330SOL    HW139764   0.951  12.063   4.697
79330SOL    HW239765   1.058  12.139   4.771
79331SOL     OW39766   6.702  10.285  10.149
79331SOL    HW139767   6.686  10.198  10.112
79331SOL    HW239768   6.666  10.279  10.238
79332SOL     OW39769  12.617   0.488  12.783
79332SOL    HW139770  12.556   0.427  12.742
79332SOL    HW239771  12.698   0.478  12.734
79333SOL     OW39772   2.930   3.121   4.025
79333SOL    HW139773   2.937   3.215   4.043
79333SOL    HW239774   2.842   3.098   4.051
79334SOL     OW39775   6.033  10.078   0.059
79334SOL    HW139776   6.110  10.128   0.029
79334SOL    HW239777   5.960  10.117   0.012
79335SOL     OW39778  14.070   8.000   0.364
79335SOL    HW139779  14.032   8.034   0.444
79335SOL    HW239780  14.017   8.039   0.294
79336SOL     OW39781   8.492   9.266  13.766
79336SOL    HW139782   8.541   9.196  13.724
79336SOL    HW239783   8.516   9.261  13.858
79337SOL     OW39784  11.402  14.854   6.916
79337SOL    HW139785  11.421   0.040   6.985
79337SOL    HW239786  11.485  14.809   6.901
79338SOL     OW39787  12.442   3.788   5.552
79338SOL    HW139788  12.358   3.764   5.592
79338SOL    HW239789  12.417   3.839   5.474
79339SOL     OW39790   9.535   6.627  11.434
79339SOL    HW139791   9.545   6.722  11.446
79339SOL    HW239792   9.522   6.616  11.340
79340SOL     OW39793   6.695   1.180  13.539
79340SOL    HW139794   6.747   1.164  13.617
79340SOL    HW239795   6.609   1.205  13.572
79341SOL     OW39796  14.660   6.224  12.011
79341SOL    HW139797  14.640   6.289  11.943
79341SOL    HW239798  14.706   6.155  11.964
79342SOL     OW39799   5.285  10.475   9.822
79342SOL    HW139800   5.345  10.542   9.854
79342SOL    HW239801   5.212  10.525   9.783
79343SOL     OW39802   6.166   0.234   5.212
79343SOL    HW139803   6.120   0.156   5.244
79343SOL    HW239804   6.258   0.212   5.222
79344SOL     OW39805  10.145  12.561   9.750
79344SOL    HW139806  10.050  12.554   9.762
79344SOL    HW239807  10.176  12.470   9.755
79345SOL     OW39808  13.645  12.007   5.846
79345SOL    HW139809  13.590  12.027   5.921
79345SOL    HW239810  13.699  12.085   5.833
79346SOL     OW39811  13.641  14.199  11.569
79346SOL    HW139812  13.662  14.106  11.568
79346SOL    HW239813  13.558  14.206  11.521
79347SOL     OW39814   9.835   4.546   5.891
79347SOL    HW139815   9.751   4.579   5.921
79347SOL    HW239816   9.864   4.488   5.962
79348SOL     OW39817  13.690   4.085   7.974
79348SOL    HW139818  13.621   4.145   7.945
79348SOL    HW239819  13.720   4.042   7.894
79349SOL     OW39820   4.773   5.749   9.537
79349SOL    HW139821   4.836   5.708   9.478
79349SOL    HW239822   4.729   5.675   9.580
79350SOL     OW39823   6.941   5.325  12.937
79350SOL    HW139824   6.924   5.406  12.890
79350SOL    HW239825   6.989   5.351  13.015
79351SOL     OW39826   6.749   3.281   6.756
79351SOL    HW139827   6.719   3.242   6.839
79351SOL    HW239828   6.799   3.211   6.714
79352SOL     OW39829   9.676   2.593   7.318
79352SOL    HW139830   9.681   2.646   7.238
79352SOL    HW239831   9.609   2.636   7.372
79353SOL     OW39832  13.039   4.085   0.426
79353SOL    HW139833  13.079   3.998   0.430
79353SOL    HW239834  13.021   4.107   0.517
79354SOL     OW39835  11.277  11.864   2.015
79354SOL    HW139836  11.185  11.849   2.034
79354SOL    HW239837  11.277  11.937   1.952
79355SOL     OW39838   3.816   3.387   8.964
79355SOL    HW139839   3.910   3.376   8.979
79355SOL    HW239840   3.781   3.413   9.049
79356SOL     OW39841   5.727   1.116   9.768
79356SOL    HW139842   5.814   1.087   9.794
79356SOL    HW239843   5.730   1.120   9.673
79357SOL     OW39844   6.524   3.911  10.366
79357SOL    HW139845   6.445   3.884  10.321
79357SOL    HW239846   6.497   3.986  10.420
79358SOL     OW39847   8.359   6.839  10.659
79358SOL    HW139848   8.280   6.833  10.607
79358SOL    HW239849   8.426   6.795  10.607
79359SOL     OW39850   1.962   1.166   8.607
79359SOL    HW139851   1.938   1.240   8.551
79359SOL    HW239852   1.896   1.168   8.676
79360SOL     OW39853   6.667   4.057   4.504
79360SOL    HW139854   6.612   4.131   4.478
79360SOL    HW239855   6.635   3.984   4.452
79361SOL     OW39856   6.182  11.216  13.835
79361SOL    HW139857   6.098  11.200  13.879
79361SOL    HW239858   6.240  11.247  13.904
79362SOL     OW39859  13.580   6.604  11.256
79362SOL    HW139860  13.661   6.648  11.281
79362SOL    HW239861  13.558   6.641  11.170
79363SOL     OW39862   4.059  10.297   1.997
79363SOL    HW139863   4.115  10.242   1.943
79363SOL    HW239864   4.039  10.242   2.073
79364SOL     OW39865   3.027   9.056   5.727
79364SOL    HW139866   2.953   9.077   5.784
79364SOL    HW239867   3.094   9.021   5.785
79365SOL     OW39868   9.634   9.357   2.600
79365SOL    HW139869   9.644   9.320   2.512
79365SOL    HW239870   9.541   9.348   2.619
79366SOL     OW39871   9.596   2.913   0.839
79366SOL    HW139872   9.638   2.832   0.868
79366SOL    HW239873   9.575   2.960   0.920
79367SOL     OW39874  12.259   1.615  10.067
79367SOL    HW139875  12.310   1.550  10.115
79367SOL    HW239876  12.235   1.572   9.985
79368SOL     OW39877   7.391   6.869   5.570
79368SOL    HW139878   7.362   6.841   5.483
79368SOL    HW239879   7.368   6.796   5.628
79369SOL     OW39880   1.211   0.947  14.261
79369SOL    HW139881   1.303   0.971  14.254
79369SOL    HW239882   1.196   0.885  14.189
79370SOL     OW39883   2.301   6.213  12.002
79370SOL    HW139884   2.325   6.305  11.984
79370SOL    HW239885   2.208   6.208  11.980
79371SOL     OW39886   7.609   9.252   4.610
79371SOL    HW139887   7.526   9.298   4.622
79371SOL    HW239888   7.672   9.322   4.589
79372SOL     OW39889   6.707   3.540   6.739
79372SOL    HW139890   6.701   3.562   6.646
79372SOL    HW239891   6.706   3.445   6.741
79373SOL     OW39892  12.341   7.263  12.095
79373SOL    HW139893  12.422   7.234  12.053
79373SOL    HW239894  12.303   7.325  12.032
79374SOL     OW39895   0.461  10.121   3.188
79374SOL    HW139896   0.473  10.216   3.199
79374SOL    HW239897   0.455  10.087   3.277
79375SOL     OW39898  13.106  11.744  13.575
79375SOL    HW139899  13.112  11.831  13.535
79375SOL    HW239900  13.088  11.686  13.501
79376SOL     OW39901   0.928   7.034  14.407
79376SOL    HW139902   0.924   7.063  14.498
79376SOL    HW239903   0.867   6.959  14.404
79377SOL     OW39904   7.034   7.399   1.158
79377SOL    HW139905   7.093   7.455   1.209
79377SOL    HW239906   6.948   7.412   1.199
79378SOL     OW39907   5.299   6.048   7.282
79378SOL    HW139908   5.334   6.080   7.199
79378SOL    HW239909   5.256   5.966   7.260
79379SOL     OW39910   8.672   2.675   8.929
79379SOL    HW139911   8.668   2.747   8.992
79379SOL    HW239912   8.686   2.718   8.844
79380SOL     OW39913  11.691  10.178  11.538
79380SOL    HW139914  11.688  10.115  11.610
79380SOL    HW239915  11.641  10.138  11.468
79381SOL     OW39916   2.536   4.804  11.088
79381SOL    HW139917   2.628   4.786  11.104
79381SOL    HW239918   2.502   4.724  11.049
79382SOL     OW39919   2.822   6.557   4.019
79382SOL    HW139920   2.892   6.568   4.084
79382SOL    HW239921   2.796   6.646   3.996
79383SOL     OW39922   1.522   7.255  14.248
79383SOL    HW139923   1.551   7.263  14.339
79383SOL    HW239924   1.535   7.163  14.227
79384SOL     OW39925  14.237  11.315   9.934
79384SOL    HW139926  14.307  11.329   9.871
79384SOL    HW239927  14.209  11.225   9.918
79385SOL     OW39928   0.753   2.801   4.854
79385SOL    HW139929   0.673   2.844   4.885
79385SOL    HW239930   0.740   2.793   4.759
79386SOL     OW39931  11.194   1.359   8.869
79386SOL    HW139932  11.169   1.437   8.918
79386SOL    HW239933  11.135   1.358   8.794
79387SOL     OW39934  11.906  10.684  13.610
79387SOL    HW139935  11.931  10.742  13.682
79387SOL    HW239936  11.939  10.598  13.636
79388SOL     OW39937   1.904  14.326  10.048
79388SOL    HW139938   1.994  14.298  10.066
79388SOL    HW239939   1.907  14.421  10.059
79389SOL     OW39940   2.969  10.883   5.737
79389SOL    HW139941   2.876  10.891   5.715
79389SOL    HW239942   2.976  10.921   5.824
79390SOL     OW39943  11.689   6.903  11.728
79390SOL    HW139944  11.684   6.955  11.648
79390SOL    HW239945  11.666   6.964  11.798
79391SOL     OW39946   0.276  12.395  14.721
79391SOL    HW139947   0.271  12.358  14.810
79391SOL    HW239948   0.359  12.361  14.686
79392SOL     OW39949   0.555  14.350   3.869
79392SOL    HW139950   0.537  14.395   3.787
79392SOL    HW239951   0.471  14.312   3.896
79393SOL     OW39952   2.568   6.049   8.777
79393SOL    HW139953   2.551   6.015   8.865
79393SOL    HW239954   2.573   5.972   8.722
79394SOL     OW39955   4.213   7.224   6.538
79394SOL    HW139956   4.205   7.198   6.446
79394SOL    HW239957   4.213   7.320   6.536
79395SOL     OW39958  11.007   8.490  10.302
79395SOL    HW139959  11.101   8.500  10.289
79395SOL    HW239960  10.969   8.507  10.216
79396SOL     OW39961   2.091   2.250  12.536
79396SOL    HW139962   2.007   2.214  12.563
79396SOL    HW239963   2.116   2.309  12.608
79397SOL     OW39964   8.624   6.212  11.487
79397SOL    HW139965   8.599   6.227  11.395
79397SOL    HW239966   8.628   6.117  11.496
79398SOL     OW39967   0.060  12.635   5.388
79398SOL    HW139968   0.114  12.606   5.461
79398SOL    HW239969   0.103  12.715   5.356
79399SOL     OW39970   2.066   6.709  12.647
79399SOL    HW139971   1.989   6.655  12.627
79399SOL    HW239972   2.077   6.700  12.742
79400SOL     OW39973   3.268   1.186  12.451
79400SOL    HW139974   3.181   1.205  12.416
79400SOL    HW239975   3.256   1.108  12.504
79401SOL     OW39976   0.440  12.394   6.434
79401SOL    HW139977   0.361  12.361   6.475
79401SOL    HW239978   0.486  12.441   6.503
79402SOL     OW39979  12.333   4.131   6.375
79402SOL    HW139980  12.249   4.110   6.333
79402SOL    HW239981  12.395   4.071   6.334
79403SOL     OW39982   8.821   9.752   8.180
79403SOL    HW139983   8.760   9.748   8.253
79403SOL    HW239984   8.878   9.677   8.192
79404SOL     OW39985   5.037  14.529   7.347
79404SOL    HW139986   5.004  14.570   7.268
79404SOL    HW239987   4.993  14.576   7.418
79405SOL     OW39988  11.175   4.935   7.739
79405SOL    HW139989  11.211   5.023   7.727
79405SOL    HW239990  11.138   4.913   7.653
79406SOL     OW39991   8.594  13.834   6.271
79406SOL    HW139992   8.565  13.923   6.294
79406SOL    HW239993   8.529  13.777   6.313
79407SOL     OW39994   4.371  12.480   4.047
79407SOL    HW139995   4.366  12.423   3.970
79407SOL    HW239996   4.416  12.428   4.113
79408SOL     OW39997   5.873   0.116   0.124
79408SOL    HW139998   5.907   0.089   0.209
79408SOL    HW239999   5.855   0.210   0.135
79409SOL     OW40000  10.213   9.004  10.172
79409SOL    HW140001  10.249   8.916  10.175
79409SOL    HW240002  10.173   9.010  10.085
79410SOL     OW40003  11.472  11.161   0.047
79410SOL    HW140004  11.379  11.138   0.042
79410SOL    HW240005  11.474  11.237   0.106
79411SOL     OW40006   8.933   6.550   7.463
79411SOL    HW140007   8.850   6.538   7.509
79411SOL    HW240008   8.941   6.473   7.407
79412SOL     OW40009  10.536   0.378   7.867
79412SOL    HW140010  10.532   0.442   7.938
79412SOL    HW240011  10.541   0.432   7.788
79413SOL     OW40012  14.873  13.763  14.716
79413SOL    HW140013   0.043  13.743  14.636
79413SOL    HW240014  14.783  13.738  14.697
79414SOL     OW40015   8.852   5.383   2.500
79414SOL    HW140016   8.926   5.386   2.560
79414SOL    HW240017   8.875   5.442   2.429
79415SOL     OW40018   8.894  13.632   0.948
79415SOL    HW140019   8.929  13.599   0.865
79415SOL    HW240020   8.968  13.675   0.990
79416SOL     OW40021  12.733   7.623   0.837
79416SOL    HW140022  12.693   7.542   0.805
79416SOL    HW240023  12.823   7.619   0.804
79417SOL     OW40024  12.297  12.872   6.366
79417SOL    HW140025  12.231  12.836   6.306
79417SOL    HW240026  12.381  12.853   6.324
79418SOL     OW40027  13.638  11.186  12.646
79418SOL    HW140028  13.702  11.205  12.715
79418SOL    HW240029  13.562  11.150  12.692
79419SOL     OW40030  11.604  12.203  13.526
79419SOL    HW140031  11.697  12.185  13.540
79419SOL    HW240032  11.564  12.117  13.518
79420SOL     OW40033   0.720   0.361   4.309
79420SOL    HW140034   0.705   0.396   4.222
79420SOL    HW240035   0.806   0.395   4.334
79421SOL     OW40036  10.011  11.039   3.858
79421SOL    HW140037  10.103  11.063   3.848
79421SOL    HW240038   9.969  11.118   3.893
79422SOL     OW40039   2.618  14.177  14.373
79422SOL    HW140040   2.563  14.250  14.402
79422SOL    HW240041   2.627  14.122  14.450
79423SOL     OW40042  10.203   7.650   1.402
79423SOL    HW140043  10.241   7.650   1.314
79423SOL    HW240044  10.189   7.742   1.423
79424SOL     OW40045   2.850   2.747  13.803
79424SOL    HW140046   2.845   2.751  13.898
79424SOL    HW240047   2.916   2.812  13.779
79425SOL     OW40048  12.328   6.930   5.731
79425SOL    HW140049  12.354   6.907   5.820
79425SOL    HW240050  12.234   6.913   5.729
79426SOL     OW40051  11.573  11.026   5.258
79426SOL    HW140052  11.593  10.933   5.258
79426SOL    HW240053  11.560  11.048   5.350
79427SOL     OW40054  10.064   5.654   5.691
79427SOL    HW140055  10.136   5.715   5.704
79427SOL    HW240056  10.043   5.623   5.780
79428SOL     OW40057   4.434  12.287  13.175
79428SOL    HW140058   4.461  12.230  13.102
79428SOL    HW240059   4.346  12.315  13.151
79429SOL     OW40060   3.392  10.233   7.921
79429SOL    HW140061   3.395  10.140   7.947
79429SOL    HW240062   3.363  10.278   8.000
79430SOL     OW40063   7.740  13.169   2.250
79430SOL    HW140064   7.824  13.145   2.212
79430SOL    HW240065   7.684  13.092   2.235
79431SOL     OW40066   6.063   1.244  10.670
79431SOL    HW140067   6.136   1.216  10.615
79431SOL    HW240068   6.104   1.293  10.742
79432SOL     OW40069   5.771  11.346   6.517
79432SOL    HW140070   5.855  11.341   6.562
79432SOL    HW240071   5.734  11.430   6.545
79433SOL     OW40072  13.864  11.781   8.397
79433SOL    HW140073  13.939  11.768   8.339
79433SOL    HW240074  13.892  11.745   8.481
79434SOL     OW40075  11.202  13.956   3.401
79434SOL    HW140076  11.160  13.880   3.361
79434SOL    HW240077  11.151  13.973   3.480
79435SOL     OW40078  14.281  13.556   3.679
79435SOL    HW140079  14.302  13.582   3.589
79435SOL    HW240080  14.242  13.469   3.670
79436SOL     OW40081   8.713   0.664   2.755
79436SOL    HW140082   8.638   0.669   2.696
79436SOL    HW240083   8.748   0.753   2.757
79437SOL     OW40084  12.682  11.024  14.361
79437SOL    HW140085  12.736  11.100  14.382
79437SOL    HW240086  12.739  10.968  14.309
79438SOL     OW40087   3.789  10.781   2.079
79438SOL    HW140088   3.808  10.687   2.078
79438SOL    HW240089   3.874  10.823   2.091
79439SOL     OW40090   3.007   4.383   5.713
79439SOL    HW140091   2.981   4.339   5.632
79439SOL    HW240092   2.948   4.348   5.779
79440SOL     OW40093  11.675  11.145  11.554
79440SOL    HW140094  11.637  11.191  11.629
79440SOL    HW240095  11.758  11.190  11.538
79441SOL     OW40096   0.390   0.312  10.637
79441SOL    HW140097   0.482   0.338  10.626
79441SOL    HW240098   0.393   0.217  10.646
79442SOL     OW40099   0.079   3.563  14.618
79442SOL    HW140100   0.023   3.640  14.626
79442SOL    HW240101   0.024   3.496  14.577
79443SOL     OW40102   1.709  13.459   0.416
79443SOL    HW140103   1.666  13.393   0.471
79443SOL    HW240104   1.688  13.542   0.458
79444SOL     OW40105  13.715   2.130  11.241
79444SOL    HW140106  13.652   2.125  11.170
79444SOL    HW240107  13.683   2.068  11.307
79445SOL     OW40108  14.540   0.379   2.546
79445SOL    HW140109  14.608   0.335   2.597
79445SOL    HW240110  14.486   0.307   2.511
79446SOL     OW40111   9.227   7.686   5.901
79446SOL    HW140112   9.244   7.764   5.848
79446SOL    HW240113   9.305   7.632   5.890
79447SOL     OW40114  14.164  10.093   4.326
79447SOL    HW140115  14.219  10.085   4.249
79447SOL    HW240116  14.204  10.035   4.391
79448SOL     OW40117  10.827   0.020   4.522
79448SOL    HW140118  10.807   0.078   4.596
79448SOL    HW240119  10.843   0.078   4.448
79449SOL     OW40120   3.547   4.671  14.209
79449SOL    HW140121   3.453   4.691  14.216
79449SOL    HW240122   3.549   4.582  14.175
79450SOL     OW40123  14.708   5.578  11.009
79450SOL    HW140124  14.789   5.615  11.046
79450SOL    HW240125  14.682   5.511  11.073
79451SOL     OW40126   4.951   5.907   9.907
79451SOL    HW140127   4.905   5.955   9.838
79451SOL    HW240128   4.882   5.861   9.955
79452SOL     OW40129  13.590  10.163   1.740
79452SOL    HW140130  13.686  10.154   1.734
79452SOL    HW240131  13.557  10.075   1.724
79453SOL     OW40132   8.504   1.971  11.067
79453SOL    HW140133   8.447   1.919  11.124
79453SOL    HW240134   8.516   2.053  11.114
79454SOL     OW40135   6.411  10.771   2.378
79454SOL    HW140136   6.375  10.693   2.337
79454SOL    HW240137   6.429  10.745   2.468
79455SOL     OW40138   5.659  11.582   4.954
79455SOL    HW140139   5.596  11.646   4.921
79455SOL    HW240140   5.606  11.522   5.006
79456SOL     OW40141  12.187   0.246  12.450
79456SOL    HW140142  12.137   0.247  12.368
79456SOL    HW240143  12.124   0.271  12.517
79457SOL     OW40144   5.543   6.493   7.872
79457SOL    HW140145   5.626   6.493   7.824
79457SOL    HW240146   5.531   6.583   7.900
79458SOL     OW40147   2.068   7.545   3.449
79458SOL    HW140148   2.043   7.484   3.380
79458SOL    HW240149   1.987   7.592   3.470
79459SOL     OW40150   5.901   9.081   8.957
79459SOL    HW140151   5.897   9.163   8.908
79459SOL    HW240152   5.970   9.095   9.022
79460SOL     OW40153  14.207   2.227   7.091
79460SOL    HW140154  14.135   2.237   7.030
79460SOL    HW240155  14.188   2.288   7.162
79461SOL     OW40156  13.959   4.397  13.631
79461SOL    HW140157  13.914   4.380  13.713
79461SOL    HW240158  13.898   4.368  13.563
79462SOL     OW40159   4.410   2.170   6.137
79462SOL    HW140160   4.340   2.154   6.201
79462SOL    HW240161   4.375   2.238   6.080
79463SOL     OW40162  12.045   4.762  13.661
79463SOL    HW140163  12.003   4.843  13.691
79463SOL    HW240164  12.131   4.762  13.702
79464SOL     OW40165   3.045  11.180  12.769
79464SOL    HW140166   3.126  11.171  12.720
79464SOL    HW240167   3.000  11.254  12.728
79465SOL     OW40168   5.080   2.716   0.414
79465SOL    HW140169   5.120   2.776   0.477
79465SOL    HW240170   5.032   2.653   0.469
79466SOL     OW40171  14.159  14.483  12.622
79466SOL    HW140172  14.229  14.420  12.603
79466SOL    HW240173  14.203  14.568  12.619
79467SOL     OW40174  11.331  10.605  10.064
79467SOL    HW140175  11.247  10.645  10.084
79467SOL    HW240176  11.396  10.671  10.089
79468SOL     OW40177   3.474   4.767   1.853
79468SOL    HW140178   3.560   4.727   1.860
79468SOL    HW240179   3.484   4.853   1.895
79469SOL     OW40180   9.841  13.871   4.647
79469SOL    HW140181   9.857  13.894   4.739
79469SOL    HW240182   9.747  13.856   4.642
79470SOL     OW40183   7.368   9.967   2.388
79470SOL    HW140184   7.358  10.057   2.420
79470SOL    HW240185   7.299   9.918   2.433
79471SOL     OW40186   0.237  13.804  12.729
79471SOL    HW140187   0.328  13.822  12.749
79471SOL    HW240188   0.188  13.866  12.783
79472SOL     OW40189  14.366  14.153   9.929
79472SOL    HW140190  14.391  14.194  10.012
79472SOL    HW240191  14.289  14.100   9.950
79473SOL     OW40192   3.011  14.117  12.427
79473SOL    HW140193   2.928  14.154  12.395
79473SOL    HW240194   2.990  14.084  12.514
79474SOL     OW40195  14.595   9.065  14.121
79474SOL    HW140196  14.528   9.050  14.054
79474SOL    HW240197  14.596   9.160  14.133
79475SOL     OW40198  14.761   6.303   9.635
79475SOL    HW140199  14.692   6.244   9.665
79475SOL    HW240200  14.754   6.378   9.694
79476SOL     OW40201  11.951   1.734  14.194
79476SOL    HW140202  11.872   1.708  14.146
79476SOL    HW240203  11.979   1.654  14.239
79477SOL     OW40204   3.568   2.099   8.177
79477SOL    HW140205   3.609   2.014   8.195
79477SOL    HW240206   3.584   2.114   8.084
79478SOL     OW40207   7.029   9.597   9.927
79478SOL    HW140208   7.019   9.630   9.838
79478SOL    HW240209   7.000   9.506   9.922
79479SOL     OW40210  14.675   7.851   0.344
79479SOL    HW140211  14.627   7.933   0.348
79479SOL    HW240212  14.757   7.873   0.299
79480SOL     OW40213  13.222   8.235  10.665
79480SOL    HW140214  13.316   8.249  10.675
79480SOL    HW240215  13.190   8.316  10.626
79481SOL     OW40216   3.498   0.704   7.926
79481SOL    HW140217   3.576   0.728   7.876
79481SOL    HW240218   3.453   0.641   7.871
79482SOL     OW40219  13.217   0.619   8.502
79482SOL    HW140220  13.296   0.665   8.474
79482SOL    HW240221  13.243   0.527   8.506
79483SOL     OW40222  10.545   4.117   9.710
79483SOL    HW140223  10.529   4.209   9.729
79483SOL    HW240224  10.596   4.085   9.785
79484SOL     OW40225  12.396  13.766  11.774
79484SOL    HW140226  12.326  13.831  11.772
79484SOL    HW240227  12.453  13.793  11.845
79485SOL     OW40228   8.019  12.755  14.271
79485SOL    HW140229   8.014  12.790  14.182
79485SOL    HW240230   7.932  12.768  14.307
79486SOL     OW40231   0.965   2.890   3.229
79486SOL    HW140232   0.979   2.976   3.269
79486SOL    HW240233   0.870   2.885   3.215
79487SOL     OW40234  11.268  11.247   5.097
79487SOL    HW140235  11.265  11.275   5.006
79487SOL    HW240236  11.261  11.151   5.093
79488SOL     OW40237   9.469  12.678   9.284
79488SOL    HW140238   9.534  12.610   9.266
79488SOL    HW240239   9.498  12.753   9.234
79489SOL     OW40240   2.186   3.904  14.431
79489SOL    HW140241   2.239   3.834  14.392
79489SOL    HW240242   2.141   3.861  14.504
79490SOL     OW40243   0.970   5.427   8.262
79490SOL    HW140244   0.925   5.439   8.345
79490SOL    HW240245   1.060   5.454   8.279
79491SOL     OW40246  11.721  14.594   6.001
79491SOL    HW140247  11.683  14.646   5.930
79491SOL    HW240248  11.678  14.627   6.080
79492SOL     OW40249   9.542  10.122  12.257
79492SOL    HW140250   9.594  10.061  12.205
79492SOL    HW240251   9.600  10.148  12.329
79493SOL     OW40252   2.990   1.879  12.810
79493SOL    HW140253   2.939   1.950  12.772
79493SOL    HW240254   2.927   1.808  12.824
79494SOL     OW40255   2.787   2.791  13.216
79494SOL    HW140256   2.785   2.715  13.159
79494SOL    HW240257   2.753   2.759  13.300
79495SOL     OW40258   6.312   3.828  10.947
79495SOL    HW140259   6.374   3.827  10.874
79495SOL    HW240260   6.354   3.773  11.014
79496SOL     OW40261  12.669   7.741  10.776
79496SOL    HW140262  12.581   7.753  10.741
79496SOL    HW240263  12.693   7.827  10.809
79497SOL     OW40264   6.327  14.566  14.317
79497SOL    HW140265   6.271  14.644  14.319
79497SOL    HW240266   6.345  14.553  14.224
79498SOL     OW40267   9.517   0.888  13.358
79498SOL    HW140268   9.490   0.980  13.362
79498SOL    HW240269   9.444   0.840  13.397
79499SOL     OW40270   6.848  12.695   2.387
79499SOL    HW140271   6.820  12.693   2.478
79499SOL    HW240272   6.891  12.780   2.377
79500SOL     OW40273  12.671  11.143  10.315
79500SOL    HW140274  12.620  11.064  10.299
79500SOL    HW240275  12.608  11.215  10.310
79501SOL     OW40276  14.146  11.898   3.021
79501SOL    HW140277  14.128  11.853   2.938
79501SOL    HW240278  14.101  11.982   3.013
79502SOL     OW40279  11.788   1.348  10.770
79502SOL    HW140280  11.853   1.389  10.713
79502SOL    HW240281  11.799   1.254  10.756
79503SOL     OW40282   3.134   4.153  12.384
79503SOL    HW140283   3.040   4.147  12.404
79503SOL    HW240284   3.140   4.225  12.321
79504SOL     OW40285   5.355   8.820   6.158
79504SOL    HW140286   5.401   8.815   6.242
79504SOL    HW240287   5.420   8.793   6.093
79505SOL     OW40288  10.395   7.210  11.101
79505SOL    HW140289  10.454   7.220  11.026
79505SOL    HW240290  10.308   7.228  11.066
79506SOL     OW40291   5.921  11.587   4.014
79506SOL    HW140292   5.864  11.664   4.022
79506SOL    HW240293   6.007  11.618   4.043
79507SOL     OW40294   3.762   8.359   2.033
79507SOL    HW140295   3.713   8.299   2.089
79507SOL    HW240296   3.850   8.321   2.029
79508SOL     OW40297  13.714   9.177   3.151
79508SOL    HW140298  13.672   9.169   3.237
79508SOL    HW240299  13.772   9.101   3.147
79509SOL     OW40300   5.563  13.543   2.472
79509SOL    HW140301   5.499  13.581   2.412
79509SOL    HW240302   5.620  13.616   2.497
79510SOL     OW40303   7.860   5.598   5.068
79510SOL    HW140304   7.829   5.508   5.070
79510SOL    HW240305   7.956   5.590   5.070
79511SOL     OW40306  12.715   0.528   6.430
79511SOL    HW140307  12.704   0.441   6.392
79511SOL    HW240308  12.639   0.578   6.401
79512SOL     OW40309   8.063   2.556   6.954
79512SOL    HW140310   8.141   2.598   6.988
79512SOL    HW240311   8.091   2.514   6.873
79513SOL     OW40312   3.214   0.321   4.823
79513SOL    HW140313   3.287   0.321   4.885
79513SOL    HW240314   3.162   0.244   4.848
79514SOL     OW40315  13.065   9.418  10.879
79514SOL    HW140316  12.994   9.448  10.822
79514SOL    HW240317  13.029   9.424  10.967
79515SOL     OW40318  12.813  10.326  13.701
79515SOL    HW140319  12.873  10.293  13.768
79515SOL    HW240320  12.870  10.366  13.635
79516SOL     OW40321   0.350   6.000  12.361
79516SOL    HW140322   0.316   5.915  12.332
79516SOL    HW240323   0.444   5.987  12.367
79517SOL     OW40324  14.375   7.787   2.657
79517SOL    HW140325  14.305   7.722   2.653
79517SOL    HW240326  14.444   7.754   2.600
79518SOL     OW40327   0.793   7.348   1.762
79518SOL    HW140328   0.702   7.331   1.784
79518SOL    HW240329   0.790   7.385   1.674
79519SOL     OW40330   1.937   0.376   0.349
79519SOL    HW140331   1.973   0.357   0.435
79519SOL    HW240332   2.009   0.359   0.288
79520SOL     OW40333   6.042   6.354  14.850
79520SOL    HW140334   6.067   6.438   0.013
79520SOL    HW240335   6.005   6.303   0.045
79521SOL     OW40336  13.997   8.417   1.702
79521SOL    HW140337  14.069   8.355   1.691
79521SOL    HW240338  14.035   8.489   1.753
79522SOL     OW40339   2.832   3.526   5.233
79522SOL    HW140340   2.744   3.527   5.194
79522SOL    HW240341   2.830   3.456   5.298
79523SOL     OW40342  12.820   2.469   4.759
79523SOL    HW140343  12.725   2.476   4.764
79523SOL    HW240344  12.842   2.394   4.815
79524SOL     OW40345   1.612   7.687  12.665
79524SOL    HW140346   1.610   7.734  12.582
79524SOL    HW240347   1.683   7.624  12.655
79525SOL     OW40348   2.143  13.137  12.973
79525SOL    HW140349   2.146  13.139  12.877
79525SOL    HW240350   2.126  13.045  12.994
79526SOL     OW40351   8.954   3.885   3.225
79526SOL    HW140352   8.916   3.833   3.154
79526SOL    HW240353   9.023   3.829   3.261
79527SOL     OW40354  14.671   0.764   8.857
79527SOL    HW140355  14.654   0.853   8.827
79527SOL    HW240356  14.695   0.774   8.949
79528SOL     OW40357   4.571   6.861  14.007
79528SOL    HW140358   4.642   6.799  14.024
79528SOL    HW240359   4.520   6.822  13.937
79529SOL     OW40360   1.050   0.325   3.745
79529SOL    HW140361   1.048   0.382   3.667
79529SOL    HW240362   1.079   0.383   3.816
79530SOL     OW40363   6.149   0.594   3.348
79530SOL    HW140364   6.155   0.527   3.417
79530SOL    HW240365   6.240   0.615   3.329
79531SOL     OW40366  14.754  12.142   2.259
79531SOL    HW140367  14.720  12.151   2.170
79531SOL    HW240368  14.829  12.202   2.263
79532SOL     OW40369   1.947  13.298   2.723
79532SOL    HW140370   1.926  13.244   2.799
79532SOL    HW240371   1.912  13.385   2.744
79533SOL     OW40372   0.041   9.990   3.320
79533SOL    HW140373   0.057  10.020   3.231
79533SOL    HW240374  14.856   9.918   3.311
79534SOL     OW40375   4.174   1.221   3.551
79534SOL    HW140376   4.245   1.218   3.615
79534SOL    HW240377   4.110   1.158   3.584
79535SOL     OW40378   5.938   7.707  10.210
79535SOL    HW140379   5.914   7.799  10.208
79535SOL    HW240380   5.882   7.669  10.278
79536SOL     OW40381   8.091  11.467   8.398
79536SOL    HW140382   8.076  11.438   8.308
79536SOL    HW240383   8.097  11.386   8.448
79537SOL     OW40384   3.552   4.348   0.654
79537SOL    HW140385   3.546   4.257   0.683
79537SOL    HW240386   3.629   4.382   0.700
79538SOL     OW40387   4.061   2.085  12.604
79538SOL    HW140388   4.061   2.175  12.571
79538SOL    HW240389   4.032   2.033  12.530
79539SOL     OW40390   4.658   2.083   2.287
79539SOL    HW140391   4.652   1.993   2.255
79539SOL    HW240392   4.674   2.135   2.208
79540SOL     OW40393   9.791  12.309   3.730
79540SOL    HW140394   9.761  12.304   3.639
79540SOL    HW240395   9.886  12.317   3.723
79541SOL     OW40396  14.431   3.266   3.928
79541SOL    HW140397  14.358   3.287   3.986
79541SOL    HW240398  14.509   3.288   3.979
79542SOL     OW40399   8.876   4.471  11.802
79542SOL    HW140400   8.957   4.468  11.750
79542SOL    HW240401   8.822   4.536  11.757
79543SOL     OW40402   2.917   4.930   1.560
79543SOL    HW140403   2.981   4.997   1.536
79543SOL    HW240404   2.963   4.874   1.622
79544SOL     OW40405  13.679   0.226   8.025
79544SOL    HW140406  13.694   0.280   8.103
79544SOL    HW240407  13.753   0.166   8.023
79545SOL     OW40408   4.709   2.029   7.191
79545SOL    HW140409   4.702   1.934   7.189
79545SOL    HW240410   4.761   2.048   7.269
79546SOL     OW40411  13.843   1.218   4.273
79546SOL    HW140412  13.877   1.298   4.231
79546SOL    HW240413  13.922   1.174   4.306
79547SOL     OW40414   9.355  14.363   6.646
79547SOL    HW140415   9.380  14.292   6.588
79547SOL    HW240416   9.436  14.412   6.661
79548SOL     OW40417   1.697   0.583   1.133
79548SOL    HW140418   1.697   0.634   1.052
79548SOL    HW240419   1.655   0.500   1.110
79549SOL     OW40420   7.554   6.252   1.379
79549SOL    HW140421   7.617   6.192   1.419
79549SOL    HW240422   7.545   6.324   1.442
79550SOL     OW40423   6.454   9.974  11.871
79550SOL    HW140424   6.370  10.020  11.883
79550SOL    HW240425   6.515  10.042  11.843
79551SOL     OW40426   7.154   1.009  14.761
79551SOL    HW140427   7.153   0.953  14.683
79551SOL    HW240428   7.238   0.990  14.803
79552SOL     OW40429   4.186  13.707   6.303
79552SOL    HW140430   4.210  13.691   6.394
79552SOL    HW240431   4.159  13.622   6.270
79553SOL     OW40432  10.135   4.898   8.320
79553SOL    HW140433  10.196   4.911   8.392
79553SOL    HW240434  10.183   4.845   8.257
79554SOL     OW40435   1.994   9.527   5.952
79554SOL    HW140436   1.914   9.535   6.006
79554SOL    HW240437   2.062   9.504   6.015
79555SOL     OW40438  12.530   0.237   2.202
79555SOL    HW140439  12.471   0.225   2.276
79555SOL    HW240440  12.524   0.331   2.182
79556SOL     OW40441   7.017   2.706  12.194
79556SOL    HW140442   6.965   2.772  12.148
79556SOL    HW240443   7.008   2.727  12.287
79557SOL     OW40444   2.977  11.965   2.843
79557SOL    HW140445   2.957  12.025   2.915
79557SOL    HW240446   2.981  11.879   2.884
79558SOL     OW40447   9.333  10.042   9.465
79558SOL    HW140448   9.426  10.047   9.490
79558SOL    HW240449   9.296  10.124   9.497
79559SOL     OW40450  12.336  11.558  11.931
79559SOL    HW140451  12.343  11.511  12.014
79559SOL    HW240452  12.423  11.596  11.918
79560SOL     OW40453  10.610   5.163   2.705
79560SOL    HW140454  10.660   5.143   2.784
79560SOL    HW240455  10.677   5.176   2.638
79561SOL     OW40456  12.763   4.552  10.745
79561SOL    HW140457  12.850   4.565  10.709
79561SOL    HW240458  12.769   4.471  10.795
79562SOL     OW40459   0.594   7.390  11.907
79562SOL    HW140460   0.544   7.369  11.828
79562SOL    HW240461   0.527   7.407  11.973
79563SOL     OW40462  11.017   3.252   2.131
79563SOL    HW140463  10.925   3.245   2.158
79563SOL    HW240464  11.042   3.341   2.157
79564SOL     OW40465   3.534  13.448  13.447
79564SOL    HW140466   3.472  13.375  13.444
79564SOL    HW240467   3.480  13.524  13.468
79565SOL     OW40468   8.429  14.410   0.562
79565SOL    HW140469   8.406  14.385   0.472
79565SOL    HW240470   8.493  14.345   0.590
79566SOL     OW40471   9.968   2.673  14.478
79566SOL    HW140472  10.037   2.613  14.504
79566SOL    HW240473  10.014   2.751  14.446
79567SOL     OW40474   3.669  11.876  11.389
79567SOL    HW140475   3.759  11.848  11.371
79567SOL    HW240476   3.614  11.806  11.355
79568SOL     OW40477   5.822   1.947  12.393
79568SOL    HW140478   5.823   2.040  12.414
79568SOL    HW240479   5.882   1.908  12.456
79569SOL     OW40480   0.417  13.214   5.034
79569SOL    HW140481   0.483  13.265   5.082
79569SOL    HW240482   0.412  13.256   4.948
79570SOL     OW40483   2.727   7.965   4.865
79570SOL    HW140484   2.633   7.979   4.859
79570SOL    HW240485   2.738   7.870   4.862
79571SOL     OW40486   9.707  11.048   6.842
79571SOL    HW140487   9.730  11.014   6.929
79571SOL    HW240488   9.761  10.998   6.781
79572SOL     OW40489   8.313   9.255  14.047
79572SOL    HW140490   8.251   9.249  14.120
79572SOL    HW240491   8.359   9.337  14.062
79573SOL     OW40492   3.440   2.321   0.416
79573SOL    HW140493   3.471   2.400   0.371
79573SOL    HW240494   3.515   2.261   0.414
79574SOL     OW40495  13.591   4.012  12.189
79574SOL    HW140496  13.647   3.945  12.229
79574SOL    HW240497  13.638   4.037  12.109
79575SOL     OW40498  14.588   2.239  14.084
79575SOL    HW140499  14.562   2.158  14.128
79575SOL    HW240500  14.511   2.265  14.033
79576SOL     OW40501   9.229  11.220  11.592
79576SOL    HW140502   9.228  11.124  11.597
79576SOL    HW240503   9.317  11.244  11.622
79577SOL     OW40504   3.947  11.329   9.168
79577SOL    HW140505   3.987  11.358   9.086
79577SOL    HW240506   3.991  11.380   9.236
79578SOL     OW40507   6.843   4.030   1.097
79578SOL    HW140508   6.813   3.993   1.181
79578SOL    HW240509   6.851   3.954   1.039
79579SOL     OW40510   6.251  10.956   3.414
79579SOL    HW140511   6.288  10.884   3.363
79579SOL    HW240512   6.221  10.915   3.495
79580SOL     OW40513  13.288   9.077  11.842
79580SOL    HW140514  13.201   9.057  11.808
79580SOL    HW240515  13.274   9.095  11.935
79581SOL     OW40516  13.540   9.391   7.489
79581SOL    HW140517  13.623   9.345   7.472
79581SOL    HW240518  13.544   9.469   7.434
79582SOL     OW40519   1.335  14.474   4.034
79582SOL    HW140520   1.352  14.424   4.114
79582SOL    HW240521   1.395  14.549   4.040
79583SOL     OW40522  13.218  12.782   4.227
79583SOL    HW140523  13.268  12.725   4.286
79583SOL    HW240524  13.280  12.849   4.199
79584SOL     OW40525   0.375   0.937   0.145
79584SOL    HW140526   0.304   0.882   0.113
79584SOL    HW240527   0.389   0.910   0.235
79585SOL     OW40528   6.166  13.837  13.966
79585SOL    HW140529   6.200  13.837  14.056
79585SOL    HW240530   6.237  13.875  13.914
79586SOL     OW40531   4.016  14.424  12.365
79586SOL    HW140532   4.061  14.508  12.366
79586SOL    HW240533   4.032  14.390  12.277
79587SOL     OW40534   0.344   6.241  14.344
79587SOL    HW140535   0.288   6.316  14.323
79587SOL    HW240536   0.283   6.170  14.362
79588SOL     OW40537   7.662   7.998   0.896
79588SOL    HW140538   7.657   7.913   0.939
79588SOL    HW240539   7.753   8.025   0.907
79589SOL     OW40540   7.811   8.083  13.573
79589SOL    HW140541   7.809   8.138  13.651
79589SOL    HW240542   7.892   8.032  13.582
79590SOL     OW40543   0.176  10.042  11.875
79590SOL    HW140544   0.229   9.963  11.865
79590SOL    HW240545   0.107  10.032  11.809
79591SOL     OW40546   2.236  11.878  12.184
79591SOL    HW140547   2.152  11.839  12.206
79591SOL    HW240548   2.265  11.832  12.105
79592SOL     OW40549  13.011   2.156   6.442
79592SOL    HW140550  13.050   2.100   6.508
79592SOL    HW240551  12.960   2.220   6.491
79593SOL     OW40552   1.523   2.374   8.296
79593SOL    HW140553   1.471   2.369   8.215
79593SOL    HW240554   1.480   2.443   8.347
79594SOL     OW40555   6.564  14.241   3.827
79594SOL    HW140556   6.564  14.253   3.922
79594SOL    HW240557   6.655  14.221   3.805
79595SOL     OW40558   7.745   6.355   2.439
79595SOL    HW140559   7.778   6.269   2.465
79595SOL    HW240560   7.701   6.389   2.517
79596SOL     OW40561   1.621   9.212  10.189
79596SOL    HW140562   1.598   9.171  10.273
79596SOL    HW240563   1.546   9.196  10.133
79597SOL     OW40564   1.094   4.867   0.538
79597SOL    HW140565   1.188   4.883   0.547
79597SOL    HW240566   1.053   4.926   0.601
79598SOL     OW40567  14.092   0.841  11.946
79598SOL    HW140568  14.040   0.866  12.022
79598SOL    HW240569  14.030   0.798  11.887
79599SOL     OW40570   2.506   8.911  11.258
79599SOL    HW140571   2.458   8.837  11.297
79599SOL    HW240572   2.559   8.944  11.330
79600SOL     OW40573   3.202   7.938   5.376
79600SOL    HW140574   3.173   8.013   5.323
79600SOL    HW240575   3.121   7.901   5.411
79601SOL     OW40576   3.780   1.634   4.535
79601SOL    HW140577   3.755   1.723   4.513
79601SOL    HW240578   3.709   1.603   4.592
79602SOL     OW40579  10.016   8.739   8.931
79602SOL    HW140580  10.064   8.773   8.856
79602SOL    HW240581   9.925   8.760   8.912
79603SOL     OW40582   1.432  13.707  11.009
79603SOL    HW140583   1.445  13.801  11.016
79603SOL    HW240584   1.353  13.690  11.060
79604SOL     OW40585  13.626   8.107   4.678
79604SOL    HW140586  13.667   8.171   4.619
79604SOL    HW240587  13.699   8.056   4.712
79605SOL     OW40588   0.791  13.846   1.426
79605SOL    HW140589   0.882  13.835   1.455
79605SOL    HW240590   0.754  13.757   1.429
79606SOL     OW40591   0.142   6.317   2.699
79606SOL    HW140592   0.204   6.387   2.722
79606SOL    HW240593   0.081   6.314   2.773
79607SOL     OW40594   3.084  12.676  13.463
79607SOL    HW140595   2.991  12.702  13.460
79607SOL    HW240596   3.125  12.728  13.394
79608SOL     OW40597   8.944   9.110   7.314
79608SOL    HW140598   8.985   9.023   7.314
79608SOL    HW240599   8.893   9.113   7.233
79609SOL     OW40600  10.252  12.873   8.700
79609SOL    HW140601  10.334  12.834   8.733
79609SOL    HW240602  10.192  12.868   8.774
79610SOL     OW40603  13.364   4.258  10.326
79610SOL    HW140604  13.323   4.341  10.351
79610SOL    HW240605  13.408   4.277  10.243
79611SOL     OW40606   6.691   2.923   0.217
79611SOL    HW140607   6.683   2.875   0.135
79611SOL    HW240608   6.684   3.015   0.191
79612SOL     OW40609  12.563  10.951   5.521
79612SOL    HW140610  12.601  10.893   5.587
79612SOL    HW240611  12.615  11.031   5.525
79613SOL     OW40612   5.022   5.330   0.286
79613SOL    HW140613   5.032   5.377   0.203
79613SOL    HW240614   4.929   5.335   0.306
79614SOL     OW40615  11.135  12.218   5.648
79614SOL    HW140616  11.103  12.138   5.604
79614SOL    HW240617  11.128  12.198   5.741
79615SOL     OW40618   4.954   9.058   3.643
79615SOL    HW140619   4.946   9.149   3.615
79615SOL    HW240620   4.990   9.013   3.567
79616SOL     OW40621   1.378   6.446  13.929
79616SOL    HW140622   1.353   6.353  13.931
79616SOL    HW240623   1.420   6.461  14.013
79617SOL     OW40624   2.949  11.372   3.135
79617SOL    HW140625   2.977  11.347   3.223
79617SOL    HW240626   2.886  11.305   3.109
79618SOL     OW40627   4.758   9.725   5.774
79618SOL    HW140628   4.664   9.745   5.775
79618SOL    HW240629   4.769   9.660   5.843
79619SOL     OW40630  11.984   2.272   2.578
79619SOL    HW140631  12.004   2.254   2.670
79619SOL    HW240632  11.988   2.187   2.536
79620SOL     OW40633   5.570   3.976   5.429
79620SOL    HW140634   5.554   4.059   5.474
79620SOL    HW240635   5.497   3.968   5.368
79621SOL     OW40636   3.640   5.130   4.118
79621SOL    HW140637   3.722   5.178   4.112
79621SOL    HW240638   3.623   5.099   4.028
79622SOL     OW40639   7.512  10.435   7.024
79622SOL    HW140640   7.582  10.488   7.061
79622SOL    HW240641   7.478  10.383   7.097
79623SOL     OW40642   3.150  14.082   2.043
79623SOL    HW140643   3.216  14.147   2.021
79623SOL    HW240644   3.113  14.055   1.959
79624SOL     OW40645   2.615   1.557   1.495
79624SOL    HW140646   2.664   1.624   1.447
79624SOL    HW240647   2.683   1.508   1.542
79625SOL     OW40648   0.125   4.764  10.683
79625SOL    HW140649   0.049   4.729  10.637
79625SOL    HW240650   0.123   4.858  10.666
79626SOL     OW40651   8.520   2.263   1.012
79626SOL    HW140652   8.527   2.173   1.042
79626SOL    HW240653   8.430   2.289   1.034
79627SOL     OW40654  11.311   6.114   9.740
79627SOL    HW140655  11.283   6.041   9.684
79627SOL    HW240656  11.265   6.099   9.823
79628SOL     OW40657  14.186   8.623   8.528
79628SOL    HW140658  14.271   8.628   8.572
79628SOL    HW240659  14.126   8.592   8.595
79629SOL     OW40660   7.106   6.376   2.411
79629SOL    HW140661   7.027   6.360   2.360
79629SOL    HW240662   7.151   6.446   2.365
79630SOL     OW40663   0.333   0.143   4.920
79630SOL    HW140664   0.291   0.143   4.834
79630SOL    HW240665   0.408   0.201   4.909
79631SOL     OW40666   9.246  13.213   1.511
79631SOL    HW140667   9.328  13.215   1.462
79631SOL    HW240668   9.188  13.159   1.458
79632SOL     OW40669  12.133   5.450  10.032
79632SOL    HW140670  12.056   5.481  10.080
79632SOL    HW240671  12.203   5.451  10.097
79633SOL     OW40672   2.663   9.583   7.584
79633SOL    HW140673   2.733   9.595   7.648
79633SOL    HW240674   2.692   9.508   7.531
79634SOL     OW40675   7.967   0.651  12.825
79634SOL    HW140676   7.954   0.568  12.870
79634SOL    HW240677   7.942   0.717  12.889
79635SOL     OW40678  10.281  14.294   4.929
79635SOL    HW140679  10.315  14.249   5.006
79635SOL    HW240680  10.356  14.344   4.896
79636SOL     OW40681   2.169   3.608  12.782
79636SOL    HW140682   2.237   3.541  12.787
79636SOL    HW240683   2.108   3.577  12.715
79637SOL     OW40684   4.264   8.814   0.385
79637SOL    HW140685   4.185   8.786   0.432
79637SOL    HW240686   4.335   8.764   0.425
79638SOL     OW40687   3.737   8.669   3.124
79638SOL    HW140688   3.832   8.671   3.130
79638SOL    HW240689   3.719   8.619   3.044
79639SOL     OW40690  11.675   7.675   1.863
79639SOL    HW140691  11.693   7.669   1.956
79639SOL    HW240692  11.695   7.588   1.828
79640SOL     OW40693   8.303  14.229  10.186
79640SOL    HW140694   8.332  14.268  10.269
79640SOL    HW240695   8.223  14.181  10.208
79641SOL     OW40696   2.058   1.552  12.749
79641SOL    HW140697   1.966   1.576  12.735
79641SOL    HW240698   2.082   1.502  12.671
79642SOL     OW40699   5.456  11.466   5.124
79642SOL    HW140700   5.524  11.407   5.155
79642SOL    HW240701   5.401  11.484   5.201
79643SOL     OW40702  14.146   3.639  12.877
79643SOL    HW140703  14.114   3.643  12.967
79643SOL    HW240704  14.232   3.599  12.884
79644SOL     OW40705   9.545  12.965   5.544
79644SOL    HW140706   9.621  12.938   5.595
79644SOL    HW240707   9.482  12.893   5.554
79645SOL     OW40708   1.590  14.490   6.750
79645SOL    HW140709   1.621  14.421   6.808
79645SOL    HW240710   1.620  14.464   6.663
79646SOL     OW40711   9.861   5.076   7.461
79646SOL    HW140712   9.854   5.063   7.556
79646SOL    HW240713   9.775   5.051   7.428
79647SOL     OW40714   7.728   9.156   4.186
79647SOL    HW140715   7.772   9.211   4.122
79647SOL    HW240716   7.769   9.069   4.176
79648SOL     OW40717   9.390  11.413  14.730
79648SOL    HW140718   9.334  11.447  14.800
79648SOL    HW240719   9.330  11.403  14.655
79649SOL     OW40720   3.287   8.742   6.154
79649SOL    HW140721   3.223   8.792   6.103
79649SOL    HW240722   3.291   8.788   6.238
79650SOL     OW40723  14.540   9.659   1.763
79650SOL    HW140724  14.629   9.643   1.730
79650SOL    HW240725  14.483   9.634   1.690
79651SOL     OW40726   8.286   8.727  11.178
79651SOL    HW140727   8.336   8.747  11.099
79651SOL    HW240728   8.345   8.749  11.250
79652SOL     OW40729  13.497   9.988  14.194
79652SOL    HW140730  13.485   9.929  14.269
79652SOL    HW240731  13.591   9.985  14.176
79653SOL     OW40732   3.920  11.929   0.220
79653SOL    HW140733   3.980  11.894   0.286
79653SOL    HW240734   3.959  12.013   0.194
79654SOL     OW40735  14.640   0.991   2.544
79654SOL    HW140736  14.632   1.031   2.458
79654SOL    HW240737  14.561   0.939   2.555
79655SOL     OW40738   1.857  11.296   0.992
79655SOL    HW140739   1.792  11.225   0.993
79655SOL    HW240740   1.920  11.272   1.060
79656SOL     OW40741  14.431  14.778  12.809
79656SOL    HW140742  14.369  14.800  12.879
79656SOL    HW240743  14.378  14.775  12.730
79657SOL     OW40744   4.228   1.101  14.706
79657SOL    HW140745   4.260   1.014  14.731
79657SOL    HW240746   4.150   1.083  14.653
79658SOL     OW40747  11.623  11.075  12.164
79658SOL    HW140748  11.691  11.130  12.202
79658SOL    HW240749  11.548  11.086  12.222
79659SOL     OW40750   0.264   2.993   5.362
79659SOL    HW140751   0.312   2.923   5.407
79659SOL    HW240752   0.175   2.960   5.355
79660SOL     OW40753   8.227   7.433   8.397
79660SOL    HW140754   8.134   7.418   8.379
79660SOL    HW240755   8.269   7.351   8.374
79661SOL     OW40756   2.186   8.751  11.861
79661SOL    HW140757   2.153   8.677  11.913
79661SOL    HW240758   2.209   8.818  11.925
79662SOL     OW40759   5.498   6.349   8.464
79662SOL    HW140760   5.566   6.294   8.426
79662SOL    HW240761   5.532   6.375   8.550
79663SOL     OW40762  10.262   5.115   0.186
79663SOL    HW140763  10.305   5.163   0.257
79663SOL    HW240764  10.239   5.031   0.225
79664SOL     OW40765  13.848   1.482  11.370
79664SOL    HW140766  13.842   1.421  11.444
79664SOL    HW240767  13.769   1.466  11.319
79665SOL     OW40768  13.583   8.220   3.254
79665SOL    HW140769  13.647   8.214   3.324
79665SOL    HW240770  13.606   8.299   3.206
79666SOL     OW40771   1.660   8.888   5.448
79666SOL    HW140772   1.643   8.925   5.361
79666SOL    HW240773   1.585   8.831   5.466
79667SOL     OW40774   8.229   1.624   5.915
79667SOL    HW140775   8.193   1.562   5.852
79667SOL    HW240776   8.314   1.586   5.939
79668SOL     OW40777   6.682   8.020   7.443
79668SOL    HW140778   6.721   7.955   7.502
79668SOL    HW240779   6.588   8.015   7.460
79669SOL     OW40780   8.846   6.330  13.264
79669SOL    HW140781   8.869   6.420  13.287
79669SOL    HW240782   8.750   6.329  13.263
79670SOL     OW40783   3.719  13.925   1.625
79670SOL    HW140784   3.701  13.985   1.697
79670SOL    HW240785   3.739  13.841   1.667
79671SOL     OW40786   7.322  10.103   6.460
79671SOL    HW140787   7.287  10.154   6.533
79671SOL    HW240788   7.283  10.141   6.382
79672SOL     OW40789  10.181   0.969   1.707
79672SOL    HW140790  10.156   0.877   1.714
79672SOL    HW240791  10.097   1.016   1.713
79673SOL     OW40792   3.713  12.416   4.812
79673SOL    HW140793   3.761  12.336   4.790
79673SOL    HW240794   3.642  12.387   4.870
79674SOL     OW40795   7.805   1.163   9.370
79674SOL    HW140796   7.817   1.213   9.289
79674SOL    HW240797   7.719   1.121   9.360
79675SOL     OW40798   6.900   6.805   6.565
79675SOL    HW140799   6.931   6.850   6.643
79675SOL    HW240800   6.828   6.750   6.596
79676SOL     OW40801   9.743   4.467   1.136
79676SOL    HW140802   9.774   4.377   1.143
79676SOL    HW240803   9.823   4.520   1.135
79677SOL     OW40804   8.272   8.416   1.734
79677SOL    HW140805   8.345   8.368   1.696
79677SOL    HW240806   8.312   8.489   1.781
79678SOL     OW40807   9.761  14.589  14.637
79678SOL    HW140808   9.798  14.588  14.549
79678SOL    HW240809   9.693  14.522  14.635
79679SOL     OW40810   1.315   0.870   8.400
79679SOL    HW140811   1.307   0.810   8.474
79679SOL    HW240812   1.237   0.926   8.406
79680SOL     OW40813  10.268   4.927  11.351
79680SOL    HW140814  10.266   4.873  11.273
79680SOL    HW240815  10.181   4.916  11.390
79681SOL     OW40816   6.913  12.952  10.139
79681SOL    HW140817   6.997  12.935  10.182
79681SOL    HW240818   6.928  12.928  10.048
79682SOL     OW40819  13.887   4.301  11.277
79682SOL    HW140820  13.903   4.273  11.186
79682SOL    HW240821  13.923   4.231  11.330
79683SOL     OW40822  10.314   8.705   0.640
79683SOL    HW140823  10.242   8.767   0.644
79683SOL    HW240824  10.387   8.756   0.605
79684SOL     OW40825   7.017  12.580   0.593
79684SOL    HW140826   7.056  12.578   0.506
79684SOL    HW240827   7.055  12.505   0.638
79685SOL     OW40828  12.893   5.772   7.097
79685SOL    HW140829  12.908   5.815   7.182
79685SOL    HW240830  12.872   5.843   7.038
79686SOL     OW40831   5.702   8.930   0.413
79686SOL    HW140832   5.787   8.895   0.387
79686SOL    HW240833   5.646   8.853   0.424
79687SOL     OW40834   2.990   8.629   9.347
79687SOL    HW140835   3.082   8.608   9.331
79687SOL    HW240836   2.960   8.672   9.268
79688SOL     OW40837   5.082   4.315   6.190
79688SOL    HW140838   5.142   4.253   6.148
79688SOL    HW240839   5.065   4.381   6.123
79689SOL     OW40840   8.204   8.540   5.746
79689SOL    HW140841   8.282   8.539   5.800
79689SOL    HW240842   8.234   8.569   5.660
79690SOL     OW40843   7.190  14.217  10.041
79690SOL    HW140844   7.248  14.265   9.982
79690SOL    HW240845   7.192  14.266  10.123
79691SOL     OW40846  14.020  12.041   0.990
79691SOL    HW140847  14.086  12.070   0.927
79691SOL    HW240848  14.045  11.951   1.012
79692SOL     OW40849   4.675   1.191   1.578
79692SOL    HW140850   4.663   1.182   1.673
79692SOL    HW240851   4.671   1.101   1.545
79693SOL     OW40852   2.004  12.423  13.300
79693SOL    HW140853   1.933  12.476  13.263
79693SOL    HW240854   2.017  12.352  13.237
79694SOL     OW40855  11.484   9.322  12.343
79694SOL    HW140856  11.393   9.350  12.349
79694SOL    HW240857  11.530   9.396  12.303
79695SOL     OW40858   6.777  10.093   9.684
79695SOL    HW140859   6.824  10.156   9.738
79695SOL    HW240860   6.791  10.122   9.594
79696SOL     OW40861   3.808  14.758   1.135
79696SOL    HW140862   3.769  14.683   1.180
79696SOL    HW240863   3.829  14.724   1.047
79697SOL     OW40864   7.183   8.926   4.498
79697SOL    HW140865   7.090   8.935   4.516
79697SOL    HW240866   7.218   8.884   4.577
79698SOL     OW40867   2.502   1.161  11.564
79698SOL    HW140868   2.480   1.210  11.484
79698SOL    HW240869   2.550   1.085  11.532
79699SOL     OW40870   6.874  12.736   1.027
79699SOL    HW140871   6.793  12.783   1.047
79699SOL    HW240872   6.881  12.742   0.931
79700SOL     OW40873   6.667  12.193   1.221
79700SOL    HW140874   6.691  12.223   1.309
79700SOL    HW240875   6.627  12.107   1.234
79701SOL     OW40876  10.770  10.116   8.913
79701SOL    HW140877  10.734  10.067   8.987
79701SOL    HW240878  10.819  10.188   8.953
79702SOL     OW40879  10.038   1.868   5.253
79702SOL    HW140880   9.962   1.891   5.199
79702SOL    HW240881  10.109   1.856   5.190
79703SOL     OW40882   6.325   1.587  14.580
79703SOL    HW140883   6.396   1.633  14.625
79703SOL    HW240884   6.250   1.647  14.587
79704SOL     OW40885   3.380  10.898  12.214
79704SOL    HW140886   3.295  10.862  12.237
79704SOL    HW240887   3.360  10.971  12.155
79705SOL     OW40888   8.696   2.671   2.458
79705SOL    HW140889   8.705   2.585   2.498
79705SOL    HW240890   8.630   2.716   2.511
79706SOL     OW40891   3.676   3.644   7.300
79706SOL    HW140892   3.624   3.713   7.342
79706SOL    HW240893   3.764   3.681   7.293
79707SOL     OW40894  13.498   1.543   9.015
79707SOL    HW140895  13.574   1.547   8.958
79707SOL    HW240896  13.496   1.452   9.045
79708SOL     OW40897   2.378  13.556   7.875
79708SOL    HW140898   2.408  13.504   7.800
79708SOL    HW240899   2.292  13.588   7.850
79709SOL     OW40900   2.592   8.384  11.076
79709SOL    HW140901   2.586   8.478  11.059
79709SOL    HW240902   2.674   8.357  11.036
79710SOL     OW40903   2.147   4.908  13.855
79710SOL    HW140904   2.159   4.964  13.778
79710SOL    HW240905   2.222   4.848  13.853
79711SOL     OW40906   6.652  13.749   3.057
79711SOL    HW140907   6.618  13.733   3.145
79711SOL    HW240908   6.747  13.757   3.069
79712SOL     OW40909   5.381   3.743  10.655
79712SOL    HW140910   5.346   3.657  10.675
79712SOL    HW240911   5.313   3.785  10.603
79713SOL     OW40912  12.612   9.852   9.405
79713SOL    HW140913  12.533   9.799   9.420
79713SOL    HW240914  12.595   9.934   9.452
79714SOL     OW40915   6.992  14.223   8.298
79714SOL    HW140916   7.025  14.274   8.372
79714SOL    HW240917   7.000  14.132   8.327
79715SOL     OW40918  12.336  14.544   3.640
79715SOL    HW140919  12.415  14.599   3.644
79715SOL    HW240920  12.334  14.512   3.550
79716SOL     OW40921   5.052  13.815   5.208
79716SOL    HW140922   5.074  13.772   5.290
79716SOL    HW240923   4.965  13.782   5.186
79717SOL     OW40924   1.608   2.926  13.822
79717SOL    HW140925   1.650   2.880  13.895
79717SOL    HW240926   1.680   2.953  13.766
79718SOL     OW40927   8.572   2.005   9.872
79718SOL    HW140928   8.488   1.961   9.868
79718SOL    HW240929   8.636   1.936   9.851
79719SOL     OW40930   0.582   7.921   1.532
79719SOL    HW140931   0.627   7.900   1.614
79719SOL    HW240932   0.570   7.836   1.489
79720SOL     OW40933  12.299  10.468   7.425
79720SOL    HW140934  12.224  10.409   7.427
79720SOL    HW240935  12.324  10.477   7.517
79721SOL     OW40936   0.348   7.909   8.324
79721SOL    HW140937   0.378   7.996   8.350
79721SOL    HW240938   0.287   7.882   8.393
79722SOL     OW40939   3.852   2.280   9.962
79722SOL    HW140940   3.929   2.233   9.993
79722SOL    HW240941   3.810   2.220   9.901
79723SOL     OW40942   7.933   9.441  12.629
79723SOL    HW140943   7.855   9.426  12.682
79723SOL    HW240944   7.994   9.372  12.657
79724SOL     OW40945   5.901  10.884   1.217
79724SOL    HW140946   5.815  10.918   1.243
79724SOL    HW240947   5.884  10.836   1.136
79725SOL     OW40948   7.305   4.511  14.617
79725SOL    HW140949   7.226   4.513  14.670
79725SOL    HW240950   7.274   4.487  14.529
79726SOL     OW40951   7.354   0.624   4.970
79726SOL    HW140952   7.346   0.529   4.984
79726SOL    HW240953   7.364   0.660   5.058
79727SOL     OW40954   7.702  14.649   8.536
79727SOL    HW140955   7.609  14.628   8.542
79727SOL    HW240956   7.706  14.744   8.537
79728SOL     OW40957   7.942   7.134   5.368
79728SOL    HW140958   7.935   7.158   5.460
79728SOL    HW240959   8.034   7.109   5.356
79729SOL     OW40960  11.867   5.852  14.856
79729SOL    HW140961  11.840   5.872  14.766
79729SOL    HW240962  11.905   5.764  14.850
79730SOL     OW40963   0.707   7.887   0.523
79730SOL    HW140964   0.742   7.917   0.439
79730SOL    HW240965   0.682   7.796   0.507
79731SOL     OW40966  10.615  13.829   6.103
79731SOL    HW140967  10.550  13.804   6.038
79731SOL    HW240968  10.642  13.917   6.077
79732SOL     OW40969  14.415  11.151   7.291
79732SOL    HW140970  14.469  11.205   7.350
79732SOL    HW240971  14.478  11.103   7.238
79733SOL     OW40972  13.002   9.153   1.406
79733SOL    HW140973  12.963   9.233   1.369
79733SOL    HW240974  12.990   9.087   1.338
79734SOL     OW40975  10.570   6.635   9.677
79734SOL    HW140976  10.604   6.724   9.672
79734SOL    HW240977  10.477   6.646   9.695
79735SOL     OW40978  12.193   0.123  14.286
79735SOL    HW140979  12.242   0.157  14.361
79735SOL    HW240980  12.105   0.109  14.320
79736SOL     OW40981   9.421   6.534   9.663
79736SOL    HW140982   9.355   6.478   9.622
79736SOL    HW240983   9.491   6.541   9.599
79737SOL     OW40984  10.218  14.170   6.595
79737SOL    HW140985  10.132  14.155   6.555
79737SOL    HW240986  10.239  14.087   6.638
79738SOL     OW40987  10.943   2.327   9.795
79738SOL    HW140988  11.003   2.256   9.774
79738SOL    HW240989  10.984   2.405   9.756
79739SOL     OW40990  10.746  12.726   4.053
79739SOL    HW140991  10.831  12.694   4.021
79739SOL    HW240992  10.716  12.659   4.113
79740SOL     OW40993  12.806   8.821  11.190
79740SOL    HW140994  12.895   8.786  11.185
79740SOL    HW240995  12.753   8.758  11.141
79741SOL     OW40996   8.914   0.138   1.893
79741SOL    HW140997   8.994   0.181   1.922
79741SOL    HW240998   8.931   0.045   1.904
79742SOL     OW40999   4.370  10.989   7.071
79742SOL    HW141000   4.360  10.905   7.026
79742SOL    HW241001   4.424  11.041   7.011
79743SOL     OW41002  10.628   0.558   7.360
79743SOL    HW141003  10.619   0.499   7.285
79743SOL    HW241004  10.721   0.579   7.362
79744SOL     OW41005   3.269   0.526   7.982
79744SOL    HW141006   3.336   0.465   8.011
79744SOL    HW241007   3.240   0.570   8.062
79745SOL     OW41008   5.143   1.382   5.523
79745SOL    HW141009   5.234   1.356   5.539
79745SOL    HW241010   5.131   1.459   5.578
79746SOL     OW41011   1.539   2.424   9.612
79746SOL    HW141012   1.550   2.518   9.630
79746SOL    HW241013   1.619   2.384   9.647
79747SOL     OW41014  10.846  13.226  13.114
79747SOL    HW141015  10.785  13.157  13.139
79747SOL    HW241016  10.792  13.290  13.067
79748SOL     OW41017  14.602   8.663  10.230
79748SOL    HW141018  14.664   8.726  10.268
79748SOL    HW241019  14.528   8.665  10.290
79749SOL     OW41020   2.005   2.421  11.122
79749SOL    HW141021   1.999   2.501  11.175
79749SOL    HW241022   1.962   2.354  11.175
79750SOL     OW41023   2.054  13.097  13.240
79750SOL    HW141024   1.963  13.067  13.236
79750SOL    HW241025   2.086  13.089  13.150
79751SOL     OW41026   1.136  13.840   6.829
79751SOL    HW141027   1.176  13.815   6.912
79751SOL    HW241028   1.190  13.799   6.762
79752SOL     OW41029  12.548   8.926   7.979
79752SOL    HW141030  12.602   8.962   8.049
79752SOL    HW241031  12.496   9.000   7.947
79753SOL     OW41032   0.114   7.670  11.652
79753SOL    HW141033   0.079   7.591  11.610
79753SOL    HW241034   0.176   7.637  11.716
79754SOL     OW41035   1.977   9.913   9.707
79754SOL    HW141036   1.960   9.836   9.654
79754SOL    HW241037   1.997   9.879   9.794
79755SOL     OW41038   8.746  12.753   7.249
79755SOL    HW141039   8.736  12.848   7.251
79755SOL    HW241040   8.720  12.728   7.160
79756SOL     OW41041   8.343   3.830   4.275
79756SOL    HW141042   8.365   3.738   4.264
79756SOL    HW241043   8.328   3.840   4.370
79757SOL     OW41044   6.600   8.146   3.033
79757SOL    HW141045   6.510   8.140   3.000
79757SOL    HW241046   6.627   8.055   3.044
79758SOL     OW41047  12.354   3.057   4.372
79758SOL    HW141048  12.290   3.062   4.301
79758SOL    HW241049  12.365   3.147   4.401
79759SOL     OW41050  12.719   2.886  10.322
79759SOL    HW141051  12.648   2.944  10.347
79759SOL    HW241052  12.736   2.906  10.230
79760SOL     OW41053  11.277   5.112  12.007
79760SOL    HW141054  11.209   5.083  12.068
79760SOL    HW241055  11.356   5.119  12.061
79761SOL     OW41056  12.902  12.958   9.284
79761SOL    HW141057  12.964  12.889   9.309
79761SOL    HW241058  12.891  13.009   9.364
79762SOL     OW41059  11.479   6.959   3.003
79762SOL    HW141060  11.405   6.901   2.984
79762SOL    HW241061  11.445   7.020   3.068
79763SOL     OW41062   5.474  12.201  14.223
79763SOL    HW141063   5.531  12.145  14.276
79763SOL    HW241064   5.391  12.154  14.218
79764SOL     OW41065   5.775   9.156   2.566
79764SOL    HW141066   5.687   9.161   2.529
79764SOL    HW241067   5.787   9.240   2.611
79765SOL     OW41068   2.919   9.185   6.388
79765SOL    HW141069   2.993   9.227   6.432
79765SOL    HW241070   2.851   9.252   6.386
79766SOL     OW41071   9.290   9.930  10.479
79766SOL    HW141072   9.308   9.883  10.398
79766SOL    HW241073   9.224   9.995  10.456
79767SOL     OW41074  13.884   6.320   7.987
79767SOL    HW141075  13.961   6.267   8.007
79767SOL    HW241076  13.913   6.411   8.001
79768SOL     OW41077   7.675  11.193   5.369
79768SOL    HW141078   7.764  11.227   5.370
79768SOL    HW241079   7.641  11.215   5.282
79769SOL     OW41080   9.926   7.204   2.650
79769SOL    HW141081   9.860   7.211   2.719
79769SOL    HW241082   9.920   7.113   2.620
79770SOL     OW41083  14.107   8.672   9.038
79770SOL    HW141084  14.024   8.689   9.082
79770SOL    HW241085  14.171   8.724   9.087
79771SOL     OW41086  13.265   5.403   9.411
79771SOL    HW141087  13.319   5.481   9.404
79771SOL    HW241088  13.278   5.373   9.501
79772SOL     OW41089   7.053   3.096   4.693
79772SOL    HW141090   7.097   3.108   4.609
79772SOL    HW241091   6.983   3.032   4.675
79773SOL     OW41092   7.008  12.256   7.476
79773SOL    HW141093   6.925  12.270   7.430
79773SOL    HW241094   7.000  12.168   7.513
79774SOL     OW41095  13.329  13.018   0.649
79774SOL    HW141096  13.277  13.012   0.729
79774SOL    HW241097  13.336  13.111   0.631
79775SOL     OW41098   3.439  11.537   5.880
79775SOL    HW141099   3.463  11.444   5.880
79775SOL    HW241100   3.375  11.545   5.951
79776SOL     OW41101  10.162   0.436  14.195
79776SOL    HW141102  10.068   0.421  14.190
79776SOL    HW241103  10.200   0.367  14.141
79777SOL     OW41104   1.708   2.873   1.124
79777SOL    HW141105   1.623   2.905   1.156
79777SOL    HW241106   1.723   2.793   1.174
79778SOL     OW41107   1.594   0.088   0.339
79778SOL    HW141108   1.546   0.137   0.272
79778SOL    HW241109   1.641   0.021   0.289
79779SOL     OW41110   1.942   2.822  13.264
79779SOL    HW141111   2.024   2.862  13.294
79779SOL    HW241112   1.880   2.895  13.261
79780SOL     OW41113   5.400   5.749   3.621
79780SOL    HW141114   5.402   5.761   3.527
79780SOL    HW241115   5.382   5.655   3.633
79781SOL     OW41116   0.938   8.853   9.756
79781SOL    HW141117   0.970   8.938   9.729
79781SOL    HW241118   0.842   8.861   9.755
79782SOL     OW41119   7.362   1.151   8.759
79782SOL    HW141120   7.273   1.168   8.730
79782SOL    HW241121   7.356   1.067   8.805
79783SOL     OW41122  13.898   5.432   2.599
79783SOL    HW141123  13.992   5.412   2.591
79783SOL    HW241124  13.855   5.358   2.557
79784SOL     OW41125   2.807   4.046  12.901
79784SOL    HW141126   2.791   4.067  12.809
79784SOL    HW241127   2.868   3.972  12.899
79785SOL     OW41128  13.402   8.215  12.639
79785SOL    HW141129  13.384   8.307  12.621
79785SOL    HW241130  13.395   8.208  12.734
79786SOL     OW41131   8.151   3.975  14.102
79786SOL    HW141132   8.136   3.887  14.069
79786SOL    HW241133   8.094   4.031  14.049
79787SOL     OW41134   1.449  11.088   4.519
79787SOL    HW141135   1.535  11.106   4.481
79787SOL    HW241136   1.439  10.993   4.511
79788SOL     OW41137   9.422   5.174   7.090
79788SOL    HW141138   9.507   5.185   7.133
79788SOL    HW241139   9.366   5.242   7.128
79789SOL     OW41140   0.964   4.758   2.771
79789SOL    HW141141   0.979   4.779   2.863
79789SOL    HW241142   1.041   4.793   2.725
79790SOL     OW41143  11.344   3.597  13.505
79790SOL    HW141144  11.352   3.503  13.491
79790SOL    HW241145  11.348   3.608  13.600
79791SOL     OW41146   0.963   7.378  13.685
79791SOL    HW141147   0.974   7.310  13.752
79791SOL    HW241148   0.943   7.331  13.605
79792SOL     OW41149  14.662   0.539   6.152
79792SOL    HW141150  14.694   0.489   6.077
79792SOL    HW241151  14.612   0.475   6.204
79793SOL     OW41152  10.132   1.525  10.290
79793SOL    HW141153  10.169   1.501  10.375
79793SOL    HW241154  10.204   1.512  10.228
79794SOL     OW41155  11.225  12.548   1.472
79794SOL    HW141156  11.259  12.621   1.525
79794SOL    HW241157  11.142  12.525   1.514
79795SOL     OW41158   5.513   2.090   4.030
79795SOL    HW141159   5.586   2.078   4.090
79795SOL    HW241160   5.547   2.145   3.960
79796SOL     OW41161   6.416  12.800   7.920
79796SOL    HW141162   6.470  12.865   7.876
79796SOL    HW241163   6.477  12.730   7.943
79797SOL     OW41164  11.390   3.924  10.493
79797SOL    HW141165  11.475   3.955  10.459
79797SOL    HW241166  11.381   3.968  10.577
79798SOL     OW41167   9.417   8.879   5.230
79798SOL    HW141168   9.390   8.797   5.187
79798SOL    HW241169   9.446   8.935   5.158
79799SOL     OW41170  13.091  10.918   0.506
79799SOL    HW141171  13.082  10.909   0.411
79799SOL    HW241172  13.132  11.004   0.517
79800SOL     OW41173   6.098  10.365   0.268
79800SOL    HW141174   6.072  10.414   0.191
79800SOL    HW241175   6.148  10.428   0.320
79801SOL     OW41176   8.583  13.554   6.839
79801SOL    HW141177   8.678  13.540   6.843
79801SOL    HW241178   8.574  13.639   6.795
79802SOL     OW41179   5.814   2.859  10.194
79802SOL    HW141180   5.737   2.819  10.234
79802SOL    HW241181   5.798   2.854  10.100
79803SOL     OW41182   3.338  11.307   4.479
79803SOL    HW141183   3.367  11.335   4.566
79803SOL    HW241184   3.314  11.388   4.434
79804SOL     OW41185   0.854   9.940   8.115
79804SOL    HW141186   0.787  10.003   8.088
79804SOL    HW241187   0.805   9.863   8.145
79805SOL     OW41188   7.822   8.028   8.123
79805SOL    HW141189   7.910   7.994   8.107
79805SOL    HW241190   7.828   8.121   8.100
79806SOL     OW41191  11.089   0.019  11.827
79806SOL    HW141192  11.058   0.107  11.805
79806SOL    HW241193  11.142   0.031  11.905
79807SOL     OW41194   9.443  13.478  12.756
79807SOL    HW141195   9.367  13.419  12.756
79807SOL    HW241196   9.432  13.530  12.835
79808SOL     OW41197   0.465  12.977  12.310
79808SOL    HW141198   0.406  13.052  12.320
79808SOL    HW241199   0.414  12.913  12.260
79809SOL     OW41200   9.239  13.448   0.862
79809SOL    HW141201   9.303  13.439   0.933
79809SOL    HW241202   9.206  13.537   0.870
79810SOL     OW41203   9.853   3.617  10.439
79810SOL    HW141204   9.909   3.592  10.365
79810SOL    HW241205   9.771   3.569  10.424
79811SOL     OW41206   7.790  14.819  10.487
79811SOL    HW141207   7.731  14.749  10.515
79811SOL    HW241208   7.736  14.875  10.431
79812SOL     OW41209   4.491  14.454   2.796
79812SOL    HW141210   4.458  14.429   2.710
79812SOL    HW241211   4.521  14.372   2.835
79813SOL     OW41212   7.979   6.209   0.761
79813SOL    HW141213   8.006   6.117   0.751
79813SOL    HW241214   7.897   6.204   0.811
79814SOL     OW41215  10.098   9.782   0.444
79814SOL    HW141216  10.192   9.786   0.462
79814SOL    HW241217  10.077   9.688   0.446
79815SOL     OW41218   7.678  10.438   4.955
79815SOL    HW141219   7.722  10.408   5.034
79815SOL    HW241220   7.604  10.490   4.988
79816SOL     OW41221   0.876   2.017   5.906
79816SOL    HW141222   0.862   1.951   5.838
79816SOL    HW241223   0.971   2.025   5.912
79817SOL     OW41224   5.562  14.034   5.609
79817SOL    HW141225   5.618  13.961   5.580
79817SOL    HW241226   5.621  14.090   5.658
79818SOL     OW41227  13.398   0.950  11.626
79818SOL    HW141228  13.491   0.964  11.644
79818SOL    HW241229  13.390   0.855  11.619
79819SOL     OW41230  12.180   0.780   3.532
79819SOL    HW141231  12.188   0.807   3.623
79819SOL    HW241232  12.270   0.764   3.503
79820SOL     OW41233   2.154   0.181  14.605
79820SOL    HW141234   2.107   0.231  14.671
79820SOL    HW241235   2.228   0.142  14.652
79821SOL     OW41236  13.418  13.103   5.400
79821SOL    HW141237  13.326  13.111   5.376
79821SOL    HW241238  13.464  13.162   5.340
79822SOL     OW41239   0.489   1.347  10.089
79822SOL    HW141240   0.516   1.400  10.164
79822SOL    HW241241   0.516   1.397  10.012
79823SOL     OW41242   9.119  12.578  12.916
79823SOL    HW141243   9.079  12.579  12.828
79823SOL    HW241244   9.178  12.652  12.916
79824SOL     OW41245   1.572   1.251  12.418
79824SOL    HW141246   1.570   1.159  12.443
79824SOL    HW241247   1.481   1.278  12.416
79825SOL     OW41248   3.939   8.399  14.262
79825SOL    HW141249   3.870   8.411  14.198
79825SOL    HW241250   3.897   8.418  14.346
79826SOL     OW41251   6.634   4.113   7.420
79826SOL    HW141252   6.585   4.119   7.338
79826SOL    HW241253   6.693   4.039   7.406
79827SOL     OW41254   1.309  13.566  14.067
79827SOL    HW141255   1.298  13.538  14.158
79827SOL    HW241256   1.261  13.501  14.016
79828SOL     OW41257   4.086  14.407  14.549
79828SOL    HW141258   4.140  14.364  14.615
79828SOL    HW241259   4.144  14.473  14.510
79829SOL     OW41260   3.062   3.513  10.036
79829SOL    HW141261   3.105   3.428  10.043
79829SOL    HW241262   3.133   3.577  10.050
79830SOL     OW41263   3.581   9.020   8.587
79830SOL    HW141264   3.549   9.002   8.499
79830SOL    HW241265   3.586   8.935   8.629
79831SOL     OW41266  12.155   2.249   1.597
79831SOL    HW141267  12.071   2.215   1.627
79831SOL    HW241268  12.220   2.205   1.652
79832SOL     OW41269   8.558   5.681   2.349
79832SOL    HW141270   8.642   5.727   2.342
79832SOL    HW241271   8.517   5.720   2.426
79833SOL     OW41272  13.284  13.570   5.086
79833SOL    HW141273  13.297  13.647   5.141
79833SOL    HW241274  13.373  13.539   5.068
79834SOL     OW41275   3.828  12.352   5.081
79834SOL    HW141276   3.828  12.411   5.157
79834SOL    HW241277   3.841  12.410   5.006
79835SOL     OW41278   8.581   1.271   5.072
79835SOL    HW141279   8.576   1.365   5.090
79835SOL    HW241280   8.501   1.253   5.021
79836SOL     OW41281  10.624   4.109   2.075
79836SOL    HW141282  10.620   4.193   2.028
79836SOL    HW241283  10.605   4.043   2.008
79837SOL     OW41284  10.096   5.526   4.176
79837SOL    HW141285  10.120   5.438   4.207
79837SOL    HW241286  10.173   5.580   4.192
79838SOL     OW41287   3.284  10.308   6.446
79838SOL    HW141288   3.301  10.235   6.506
79838SOL    HW241289   3.341  10.291   6.371
79839SOL     OW41290   4.446   9.656   5.561
79839SOL    HW141291   4.364   9.677   5.516
79839SOL    HW241292   4.459   9.729   5.622
79840SOL     OW41293   5.869   1.664  12.946
79840SOL    HW141294   5.812   1.734  12.975
79840SOL    HW241295   5.957   1.703  12.943
79841SOL     OW41296  12.737   8.389  11.757
79841SOL    HW141297  12.684   8.415  11.681
79841SOL    HW241298  12.690   8.424  11.832
79842SOL     OW41299  12.642   2.959  14.576
79842SOL    HW141300  12.672   2.879  14.618
79842SOL    HW241301  12.721   2.996  14.537
79843SOL     OW41302   2.845   3.407  14.819
79843SOL    HW141303   2.863   3.501  14.813
79843SOL    HW241304   2.780   3.400   0.012
79844SOL     OW41305   2.479   0.457   0.846
79844SOL    HW141306   2.385   0.466   0.830
79844SOL    HW241307   2.509   0.546   0.862
79845SOL     OW41308  12.375   6.834   6.010
79845SOL    HW141309  12.396   6.754   6.057
79845SOL    HW241310  12.298   6.869   6.055
79846SOL     OW41311   1.197  12.061  11.686
79846SOL    HW141312   1.275  12.103  11.721
79846SOL    HW241313   1.175  11.993  11.750
79847SOL     OW41314   8.250  11.301   8.190
79847SOL    HW141315   8.308  11.368   8.226
79847SOL    HW241316   8.253  11.230   8.255
79848SOL     OW41317  12.855  10.589   5.574
79848SOL    HW141318  12.950  10.597   5.571
79848SOL    HW241319  12.834  10.590   5.667
79849SOL     OW41320   6.831   3.187   0.926
79849SOL    HW141321   6.922   3.213   0.940
79849SOL    HW241322   6.830   3.092   0.944
79850SOL     OW41323   3.687   3.636   1.723
79850SOL    HW141324   3.735   3.655   1.804
79850SOL    HW241325   3.670   3.542   1.726
79851SOL     OW41326   9.663  13.732   4.249
79851SOL    HW141327   9.731  13.796   4.227
79851SOL    HW241328   9.581  13.778   4.234
79852SOL     OW41329   3.350  14.233  11.561
79852SOL    HW141330   3.273  14.286  11.539
79852SOL    HW241331   3.333  14.148  11.522
79853SOL     OW41332   1.102  11.714   5.753
79853SOL    HW141333   1.087  11.644   5.817
79853SOL    HW241334   1.169  11.769   5.793
79854SOL     OW41335  11.043   7.243  14.504
79854SOL    HW141336  10.993   7.275  14.579
79854SOL    HW241337  11.101   7.176  14.540
79855SOL     OW41338   1.054   7.618   6.326
79855SOL    HW141339   1.148   7.600   6.323
79855SOL    HW241340   1.022   7.564   6.398
79856SOL     OW41341  11.030   2.681  10.766
79856SOL    HW141342  10.987   2.654  10.685
79856SOL    HW241343  11.017   2.608  10.826
79857SOL     OW41344  10.335   3.147   2.363
79857SOL    HW141345  10.363   3.068   2.317
79857SOL    HW241346  10.241   3.154   2.343
79858SOL     OW41347   3.423   3.897   0.052
79858SOL    HW141348   3.403   3.875   0.144
79858SOL    HW241349   3.420   3.993   0.050
79859SOL     OW41350   1.388   9.035   2.015
79859SOL    HW141351   1.297   9.009   2.024
79859SOL    HW241352   1.438   8.955   2.035
79860SOL     OW41353   6.164   2.826   0.271
79860SOL    HW141354   6.198   2.914   0.283
79860SOL    HW241355   6.116   2.830   0.188
79861SOL     OW41356   5.048   3.033   9.574
79861SOL    HW141357   4.978   3.086   9.538
79861SOL    HW241358   5.012   2.944   9.576
79862SOL     OW41359   5.644  10.573  13.953
79862SOL    HW141360   5.616  10.482  13.963
79862SOL    HW241361   5.658  10.603  14.043
79863SOL     OW41362   2.869   7.279  14.421
79863SOL    HW141363   2.907   7.324  14.346
79863SOL    HW241364   2.810   7.214  14.383
79864SOL     OW41365  13.903   1.496   8.666
79864SOL    HW141366  13.986   1.543   8.660
79864SOL    HW241367  13.856   1.521   8.586
79865SOL     OW41368   8.368   6.523   9.696
79865SOL    HW141369   8.309   6.515   9.770
79865SOL    HW241370   8.441   6.576   9.729
79866SOL     OW41371  10.770  14.473   5.519
79866SOL    HW141372  10.791  14.388   5.479
79866SOL    HW241373  10.855  14.510   5.542
79867SOL     OW41374   2.193   6.186   3.018
79867SOL    HW141375   2.251   6.111   3.030
79867SOL    HW241376   2.158   6.204   3.105
79868SOL     OW41377   4.576   5.937   2.545
79868SOL    HW141378   4.668   5.928   2.521
79868SOL    HW241379   4.577   5.982   2.629
79869SOL     OW41380  11.995  10.012  13.886
79869SOL    HW141381  12.041   9.947  13.938
79869SOL    HW241382  12.061  10.079  13.867
79870SOL     OW41383   8.792   5.755  12.400
79870SOL    HW141384   8.718   5.694  12.405
79870SOL    HW241385   8.828   5.742  12.312
79871SOL     OW41386  13.949   1.306   5.129
79871SOL    HW141387  13.866   1.353   5.119
79871SOL    HW241388  13.923   1.217   5.153
79872SOL     OW41389  13.862   7.644  13.362
79872SOL    HW141390  13.806   7.575  13.399
79872SOL    HW241391  13.951   7.619  13.387
79873SOL     OW41392   4.146   4.323  13.200
79873SOL    HW141393   4.099   4.313  13.117
79873SOL    HW241394   4.090   4.379  13.254
79874SOL     OW41395  11.094  11.856   9.731
79874SOL    HW141396  11.125  11.885   9.646
79874SOL    HW241397  11.172  11.826   9.777
79875SOL     OW41398   4.429   7.157  10.525
79875SOL    HW141399   4.508   7.117  10.563
79875SOL    HW241400   4.357   7.104  10.560
79876SOL     OW41401   9.584   1.410   6.285
79876SOL    HW141402   9.560   1.322   6.312
79876SOL    HW241403   9.500   1.457   6.278
79877SOL     OW41404   9.121   4.714   7.293
79877SOL    HW141405   9.125   4.638   7.351
79877SOL    HW241406   9.206   4.756   7.302
79878SOL     OW41407   1.669   6.868   1.158
79878SOL    HW141408   1.701   6.899   1.073
79878SOL    HW241409   1.727   6.795   1.180
79879SOL     OW41410   5.766   1.797   7.684
79879SOL    HW141411   5.775   1.741   7.761
79879SOL    HW241412   5.749   1.884   7.719
79880SOL     OW41413   5.438  13.903  12.822
79880SOL    HW141414   5.492  13.978  12.849
79880SOL    HW241415   5.351  13.940  12.809
79881SOL     OW41416   4.043  11.705   5.643
79881SOL    HW141417   4.114  11.660   5.597
79881SOL    HW241418   3.965  11.651   5.623
79882SOL     OW41419   3.256  11.297  14.605
79882SOL    HW141420   3.324  11.301  14.537
79882SOL    HW241421   3.292  11.349  14.677
79883SOL     OW41422  11.587   0.077  14.451
79883SOL    HW141423  11.573  14.868  14.490
79883SOL    HW241424  11.598   0.136  14.525
79884SOL     OW41425   9.845  13.127  12.141
79884SOL    HW141426   9.821  13.219  12.147
79884SOL    HW241427   9.935  13.128  12.107
79885SOL     OW41428   3.122   9.024   0.226
79885SOL    HW141429   3.214   9.004   0.211
79885SOL    HW241430   3.077   8.994   0.147
79886SOL     OW41431   7.494  11.858   1.028
79886SOL    HW141432   7.425  11.922   1.013
79886SOL    HW241433   7.506  11.857   1.124
79887SOL     OW41434   9.569   8.396   1.047
79887SOL    HW141435   9.614   8.321   1.086
79887SOL    HW241436   9.476   8.381   1.066
79888SOL     OW41437   0.353  13.106   0.334
79888SOL    HW141438   0.354  13.158   0.414
79888SOL    HW241439   0.273  13.054   0.340
79889SOL     OW41440   3.553  14.089   7.590
79889SOL    HW141441   3.469  14.131   7.571
79889SOL    HW241442   3.551  14.075   7.685
79890SOL     OW41443   8.328  12.317   1.466
79890SOL    HW141444   8.392  12.247   1.464
79890SOL    HW241445   8.313  12.334   1.559
79891SOL     OW41446   2.503   8.173   3.316
79891SOL    HW141447   2.582   8.136   3.356
79891SOL    HW241448   2.439   8.102   3.317
79892SOL     OW41449   8.309  12.180  11.097
79892SOL    HW141450   8.387  12.125  11.090
79892SOL    HW241451   8.259  12.142  11.169
79893SOL     OW41452  11.284  14.848   0.310
79893SOL    HW141453  11.224  14.782   0.273
79893SOL    HW241454  11.312   0.022   0.234
79894SOL     OW41455   0.934   7.732   1.177
79894SOL    HW141456   0.900   7.681   1.251
79894SOL    HW241457   0.880   7.704   1.103
79895SOL     OW41458   6.178  13.080   9.955
79895SOL    HW141459   6.206  13.112   9.869
79895SOL    HW241460   6.200  12.987   9.953
79896SOL     OW41461   7.689   3.437   5.234
79896SOL    HW141462   7.707   3.525   5.200
79896SOL    HW241463   7.702   3.446   5.329
79897SOL     OW41464  12.119  13.077  11.225
79897SOL    HW141465  12.169  13.153  11.198
79897SOL    HW241466  12.073  13.106  11.304
79898SOL     OW41467  14.809   3.278  12.065
79898SOL    HW141468  14.809   3.220  12.141
79898SOL    HW241469  14.784   3.363  12.100
79899SOL     OW41470   8.995  13.473   4.658
79899SOL    HW141471   8.999  13.384   4.624
79899SOL    HW241472   8.967  13.464   4.749
79900SOL     OW41473   2.089   8.741   6.027
79900SOL    HW141474   2.019   8.760   6.090
79900SOL    HW241475   2.115   8.826   5.994
79901SOL     OW41476   2.292   6.458  14.652
79901SOL    HW141477   2.300   6.408  14.733
79901SOL    HW241478   2.245   6.400  14.592
79902SOL     OW41479   5.079   8.216  11.719
79902SOL    HW141480   5.027   8.287  11.681
79902SOL    HW241481   5.015   8.155  11.754
79903SOL     OW41482   4.358  14.541   7.321
79903SOL    HW141483   4.391  14.595   7.393
79903SOL    HW241484   4.287  14.490   7.359
79904SOL     OW41485   5.063   5.017   5.221
79904SOL    HW141486   4.984   4.964   5.237
79904SOL    HW241487   5.037   5.106   5.244
79905SOL     OW41488   5.638   5.300  10.226
79905SOL    HW141489   5.669   5.266  10.142
79905SOL    HW241490   5.715   5.342  10.264
79906SOL     OW41491   1.352   7.491   2.423
79906SOL    HW141492   1.305   7.519   2.502
79906SOL    HW241493   1.324   7.401   2.409
79907SOL     OW41494   6.940  11.568  11.972
79907SOL    HW141495   6.945  11.477  11.943
79907SOL    HW241496   7.029  11.601  11.960
79908SOL     OW41497  13.007  14.202  14.067
79908SOL    HW141498  12.996  14.140  13.994
79908SOL    HW241499  13.072  14.160  14.124
79909SOL     OW41500   4.086   3.180   8.932
79909SOL    HW141501   4.111   3.271   8.949
79909SOL    HW241502   4.168   3.132   8.934
79910SOL     OW41503  11.429  14.419  13.044
79910SOL    HW141504  11.343  14.459  13.036
79910SOL    HW241505  11.486  14.491  13.073
79911SOL     OW41506   9.616  14.241   3.766
79911SOL    HW141507   9.533  14.265   3.724
79911SOL    HW241508   9.658  14.325   3.786
79912SOL     OW41509  10.875   4.469  13.157
79912SOL    HW141510  10.923   4.386  13.146
79912SOL    HW241511  10.786   4.442  13.180
79913SOL     OW41512   1.035   3.027   8.881
79913SOL    HW141513   1.005   3.046   8.792
79913SOL    HW241514   1.100   3.096   8.898
79914SOL     OW41515   8.760   9.635   7.091
79914SOL    HW141516   8.679   9.592   7.119
79914SOL    HW241517   8.730   9.707   7.035
79915SOL     OW41518  13.235   2.724  13.110
79915SOL    HW141519  13.312   2.667  13.105
79915SOL    HW241520  13.232   2.766  13.024
79916SOL     OW41521   8.165  11.920   0.206
79916SOL    HW141522   8.142  11.995   0.153
79916SOL    HW241523   8.255  11.899   0.181
79917SOL     OW41524   6.550   7.850   9.398
79917SOL    HW141525   6.488   7.883   9.333
79917SOL    HW241526   6.524   7.892   9.480
79918SOL     OW41527   5.631   5.400   2.782
79918SOL    HW141528   5.636   5.397   2.877
79918SOL    HW241529   5.587   5.318   2.758
79919SOL     OW41530  11.429   2.508   3.539
79919SOL    HW141531  11.334   2.499   3.547
79919SOL    HW241532  11.451   2.461   3.459
79920SOL     OW41533  10.106  13.856   2.791
79920SOL    HW141534  10.128  13.802   2.867
79920SOL    HW241535  10.125  13.800   2.715
79921SOL     OW41536   8.215   7.004   4.819
79921SOL    HW141537   8.123   6.991   4.843
79921SOL    HW241538   8.249   7.063   4.886
79922SOL     OW41539   3.170   9.187   6.160
79922SOL    HW141540   3.110   9.193   6.085
79922SOL    HW241541   3.156   9.268   6.209
79923SOL     OW41542  12.754   2.745   6.275
79923SOL    HW141543  12.677   2.769   6.224
79923SOL    HW241544  12.728   2.665   6.321
79924SOL     OW41545  14.667  14.394  13.822
79924SOL    HW141546  14.586  14.344  13.832
79924SOL    HW241547  14.708  14.390  13.908
79925SOL     OW41548   1.405   8.652  11.129
79925SOL    HW141549   1.372   8.687  11.212
79925SOL    HW241550   1.328   8.649  11.072
79926SOL     OW41551   5.904   2.178   4.904
79926SOL    HW141552   5.866   2.266   4.903
79926SOL    HW241553   5.968   2.180   4.975
79927SOL     OW41554   0.756  13.827  12.546
79927SOL    HW141555   0.759  13.747  12.494
79927SOL    HW241556   0.680  13.875  12.512
79928SOL     OW41557   3.921  14.439   8.290
79928SOL    HW141558   3.877  14.505   8.343
79928SOL    HW241559   3.876  14.358   8.311
79929SOL     OW41560  11.464   6.008   0.535
79929SOL    HW141561  11.507   6.022   0.620
79929SOL    HW241562  11.478   5.916   0.516
79930SOL     OW41563   0.026  12.005  14.536
79930SOL    HW141564   0.097  11.942  14.550
79930SOL    HW241565   0.014  12.048  14.621
79931SOL     OW41566   1.844   2.429  11.670
79931SOL    HW141567   1.837   2.460  11.579
79931SOL    HW241568   1.762   2.455  11.710
79932SOL     OW41569   9.563  13.166   7.263
79932SOL    HW141570   9.522  13.229   7.205
79932SOL    HW241571   9.523  13.183   7.349
79933SOL     OW41572  12.870   6.668   9.919
79933SOL    HW141573  12.900   6.757   9.904
79933SOL    HW241574  12.942   6.626   9.967
79934SOL     OW41575   4.392  12.973   2.751
79934SOL    HW141576   4.480  12.934   2.749
79934SOL    HW241577   4.393  13.027   2.831
79935SOL     OW41578   4.209   0.864  10.037
79935SOL    HW141579   4.240   0.881  10.126
79935SOL    HW241580   4.162   0.943  10.013
79936SOL     OW41581  10.592   8.714  14.427
79936SOL    HW141582  10.580   8.728  14.521
79936SOL    HW241583  10.505   8.692  14.395
79937SOL     OW41584   8.129  10.148   3.254
79937SOL    HW141585   8.046  10.179   3.289
79937SOL    HW241586   8.119  10.155   3.159
79938SOL     OW41587   2.906   9.468  11.486
79938SOL    HW141588   2.976   9.519  11.528
79938SOL    HW241589   2.900   9.505  11.398
79939SOL     OW41590   7.383   5.031  12.854
79939SOL    HW141591   7.353   4.980  12.928
79939SOL    HW241592   7.329   5.109  12.854
79940SOL     OW41593   5.942   8.026  12.558
79940SOL    HW141594   5.854   8.015  12.595
79940SOL    HW241595   5.929   8.017  12.464
79941SOL     OW41596   1.118   7.281  11.792
79941SOL    HW141597   1.196   7.280  11.737
79941SOL    HW241598   1.046   7.302  11.732
79942SOL     OW41599   0.118   0.048   1.914
79942SOL    HW141600   0.171   0.031   1.991
79942SOL    HW241601   0.137   0.139   1.892
79943SOL     OW41602  11.499   0.025  13.226
79943SOL    HW141603  11.431   0.033  13.160
79943SOL    HW241604  11.574   0.072  13.190
79944SOL     OW41605   9.653  11.915  11.577
79944SOL    HW141606   9.680  11.832  11.539
79944SOL    HW241607   9.701  11.981  11.526
79945SOL     OW41608  12.303   8.264  10.105
79945SOL    HW141609  12.234   8.273  10.040
79945SOL    HW241610  12.336   8.353  10.118
79946SOL     OW41611   0.174   4.387   5.878
79946SOL    HW141612   0.263   4.355   5.892
79946SOL    HW241613   0.184   4.461   5.818
79947SOL     OW41614   5.607   9.296   9.483
79947SOL    HW141615   5.681   9.240   9.509
79947SOL    HW241616   5.646   9.362   9.425
79948SOL     OW41617  14.630  14.855  13.162
79948SOL    HW141618  14.621  14.819  13.074
79948SOL    HW241619  14.557   0.040  13.169
79949SOL     OW41620   5.297   6.142  13.963
79949SOL    HW141621   5.391   6.127  13.949
79949SOL    HW241622   5.286   6.141  14.058
79950SOL     OW41623   6.267   0.225   5.909
79950SOL    HW141624   6.317   0.194   5.984
79950SOL    HW241625   6.328   0.279   5.859
79951SOL     OW41626   3.697   6.935  11.114
79951SOL    HW141627   3.673   7.009  11.169
79951SOL    HW241628   3.656   6.953  11.029
79952SOL     OW41629   0.275   7.327  13.229
79952SOL    HW141630   0.307   7.414  13.209
79952SOL    HW241631   0.185   7.326  13.199
79953SOL     OW41632  11.400  10.967   1.983
79953SOL    HW141633  11.427  11.018   2.060
79953SOL    HW241634  11.317  11.007   1.956
79954SOL     OW41635   9.604   3.886   0.602
79954SOL    HW141636   9.547   3.815   0.631
79954SOL    HW241637   9.689   3.844   0.588
79955SOL     OW41638  10.331   2.291  11.714
79955SOL    HW141639  10.317   2.237  11.636
79955SOL    HW241640  10.330   2.229  11.787
79956SOL     OW41641   8.008   5.122   2.360
79956SOL    HW141642   8.076   5.100   2.296
79956SOL    HW241643   8.051   5.184   2.420
79957SOL     OW41644   4.202   5.628   1.121
79957SOL    HW141645   4.182   5.568   1.048
79957SOL    HW241646   4.228   5.570   1.192
79958SOL     OW41647   6.110  14.495  14.113
79958SOL    HW141648   6.042  14.442  14.071
79958SOL    HW241649   6.137  14.558  14.045
79959SOL     OW41650   9.759  12.092   7.220
79959SOL    HW141651   9.698  12.034   7.266
79959SOL    HW241652   9.708  12.171   7.202
79960SOL     OW41653   9.340   9.659  11.878
79960SOL    HW141654   9.309   9.596  11.943
79960SOL    HW241655   9.407   9.611  11.828
79961SOL     OW41656   6.403   7.980   7.516
79961SOL    HW141657   6.398   7.903   7.574
79961SOL    HW241658   6.358   8.049   7.564
79962SOL     OW41659   9.893   1.773   2.344
79962SOL    HW141660   9.943   1.852   2.326
79962SOL    HW241661   9.833   1.798   2.414
79963SOL     OW41662   2.233   0.662   9.085
79963SOL    HW141663   2.312   0.610   9.101
79963SOL    HW241664   2.225   0.718   9.162
79964SOL     OW41665   9.577   5.938  14.762
79964SOL    HW141666   9.590   5.844  14.776
79964SOL    HW241667   9.552   5.945  14.670
79965SOL     OW41668   2.584   2.587   0.931
79965SOL    HW141669   2.497   2.586   0.892
79965SOL    HW241670   2.609   2.494   0.937
79966SOL     OW41671   9.731   1.957   4.204
79966SOL    HW141672   9.784   1.974   4.126
79966SOL    HW241673   9.791   1.915   4.266
79967SOL     OW41674   5.708  12.986   1.499
79967SOL    HW141675   5.705  13.076   1.530
79967SOL    HW241676   5.652  12.938   1.561
79968SOL     OW41677   4.221   4.577   5.027
79968SOL    HW141678   4.168   4.563   5.105
79968SOL    HW241679   4.209   4.670   5.006
79969SOL     OW41680   1.960   4.746  11.510
79969SOL    HW141681   1.964   4.688  11.434
79969SOL    HW241682   1.950   4.687  11.585
79970SOL     OW41683   1.637  12.527  12.786
79970SOL    HW141684   1.694  12.601  12.807
79970SOL    HW241685   1.586  12.557  12.711
79971SOL     OW41686   5.914   5.690  12.216
79971SOL    HW141687   5.837   5.701  12.272
79971SOL    HW241688   5.973   5.633  12.265
79972SOL     OW41689   8.101   4.857   1.159
79972SOL    HW141690   8.023   4.909   1.176
79972SOL    HW241691   8.166   4.920   1.128
79973SOL     OW41692   7.062  11.847  12.887
79973SOL    HW141693   7.082  11.774  12.945
79973SOL    HW241694   7.077  11.925  12.941
79974SOL     OW41695   8.511   0.577   0.600
79974SOL    HW141696   8.548   0.655   0.641
79974SOL    HW241697   8.429   0.607   0.562
79975SOL     OW41698  14.865   2.748   5.282
79975SOL    HW141699   0.072   2.756   5.237
79975SOL    HW241700  14.852   2.653   5.293
79976SOL     OW41701   5.924   8.221  10.339
79976SOL    HW141702   5.872   8.156  10.385
79976SOL    HW241703   5.953   8.281  10.408
79977SOL     OW41704   9.066   6.211   4.707
79977SOL    HW141705   9.005   6.270   4.750
79977SOL    HW241706   9.033   6.123   4.727
79978SOL     OW41707  13.377   8.671  13.507
79978SOL    HW141708  13.444   8.639  13.447
79978SOL    HW241709  13.413   8.655  13.594
79979SOL     OW41710   1.980   2.217   5.055
79979SOL    HW141711   1.973   2.292   4.996
79979SOL    HW241712   1.900   2.219   5.107
79980SOL     OW41713   8.781   2.533   9.297
79980SOL    HW141714   8.743   2.464   9.352
79980SOL    HW241715   8.777   2.497   9.209
79981SOL     OW41716   0.429   6.206  13.616
79981SOL    HW141717   0.479   6.126  13.634
79981SOL    HW241718   0.343   6.174  13.586
79982SOL     OW41719   0.896  12.908  12.416
79982SOL    HW141720   0.810  12.917  12.458
79982SOL    HW241721   0.930  12.998  12.412
79983SOL     OW41722   9.427  11.986  14.274
79983SOL    HW141723   9.385  11.957  14.355
79983SOL    HW241724   9.369  11.952  14.205
79984SOL     OW41725   7.743   6.212   0.884
79984SOL    HW141726   7.665   6.159   0.866
79984SOL    HW241727   7.763   6.196   0.976
79985SOL     OW41728   6.061  11.445  13.873
79985SOL    HW141729   6.066  11.437  13.969
79985SOL    HW241730   6.134  11.392  13.841
79986SOL     OW41731   4.437   9.767  13.144
79986SOL    HW141732   4.498   9.701  13.178
79986SOL    HW241733   4.387   9.721  13.077
79987SOL     OW41734   7.326   3.083   7.060
79987SOL    HW141735   7.292   3.077   7.149
79987SOL    HW241736   7.313   2.995   7.024
79988SOL     OW41737   1.516   3.991   7.890
79988SOL    HW141738   1.425   3.989   7.921
79988SOL    HW241739   1.560   4.049   7.952
79989SOL     OW41740   0.954  12.635   4.804
79989SOL    HW141741   1.042  12.627   4.767
79989SOL    HW241742   0.916  12.710   4.759
79990SOL     OW41743  11.126   2.807   4.143
79990SOL    HW141744  11.034   2.829   4.161
79990SOL    HW241745  11.172   2.836   4.222
79991SOL     OW41746   9.334  10.256   5.688
79991SOL    HW141747   9.245  10.286   5.671
79991SOL    HW241748   9.343  10.263   5.783
79992SOL     OW41749  13.034   3.488   5.088
79992SOL    HW141750  13.077   3.496   5.003
79992SOL    HW241751  13.089   3.428   5.138
79993SOL     OW41752  12.947   3.389  10.811
79993SOL    HW141753  12.971   3.361  10.722
79993SOL    HW241754  12.878   3.453  10.798
79994SOL     OW41755   9.075   7.689  14.259
79994SOL    HW141756   9.082   7.646  14.173
79994SOL    HW241757   9.163   7.718  14.278
79995SOL     OW41758   9.501  11.918   5.075
79995SOL    HW141759   9.508  11.959   5.161
79995SOL    HW241760   9.552  11.974   5.017
79996SOL     OW41761   2.840   0.162  10.267
79996SOL    HW141762   2.925   0.184  10.307
79996SOL    HW241763   2.808   0.245  10.232
79997SOL     OW41764   2.493   9.982  11.487
79997SOL    HW141765   2.568  10.036  11.461
79997SOL    HW241766   2.477  10.005  11.578
79998SOL     OW41767   3.842   3.394  13.913
79998SOL    HW141768   3.818   3.326  13.850
79998SOL    HW241769   3.880   3.464  13.859
79999SOL     OW41770   8.166   8.845  10.055
79999SOL    HW141771   8.145   8.754  10.035
79999SOL    HW241772   8.256   8.857  10.024
80000SOL     OW41773   8.866  11.551   7.061
80000SOL    HW141774   8.888  11.594   7.144
80000SOL    HW241775   8.771  11.557   7.056
80001SOL     OW41776   9.837  12.490   7.088
80001SOL    HW141777   9.931  12.495   7.105
80001SOL    HW241778   9.811  12.579   7.067
80002SOL     OW41779   5.072   3.761   6.130
80002SOL    HW141780   5.095   3.774   6.222
80002SOL    HW241781   5.061   3.850   6.096
80003SOL     OW41782  12.241  14.563   1.751
80003SOL    HW141783  12.216  14.619   1.677
80003SOL    HW241784  12.249  14.624   1.825
80004SOL     OW41785   5.938   1.125   9.314
80004SOL    HW141786   6.003   1.058   9.292
80004SOL    HW241787   5.884   1.133   9.235
80005SOL     OW41788   8.532  13.517  13.449
80005SOL    HW141789   8.481  13.558  13.379
80005SOL    HW241790   8.503  13.426  13.451
80006SOL     OW41791   9.315   6.553   3.639
80006SOL    HW141792   9.318   6.462   3.668
80006SOL    HW241793   9.223   6.578   3.646
80007SOL     OW41794   6.277  10.813   3.656
80007SOL    HW141795   6.334  10.829   3.732
80007SOL    HW241796   6.335  10.775   3.590
80008SOL     OW41797  12.973  14.662   1.540
80008SOL    HW141798  13.062  14.626   1.542
80008SOL    HW241799  12.931  14.624   1.617
80009SOL     OW41800   6.513   2.453   7.346
80009SOL    HW141801   6.547   2.508   7.417
80009SOL    HW241802   6.569   2.375   7.349
80010SOL     OW41803   9.292   2.048   8.256
80010SOL    HW141804   9.212   1.997   8.269
80010SOL    HW241805   9.264   2.126   8.209
80011SOL     OW41806  14.266   4.579   5.022
80011SOL    HW141807  14.272   4.673   5.037
80011SOL    HW241808  14.239   4.542   5.106
80012SOL     OW41809   5.249  14.082   7.066
80012SOL    HW141810   5.171  14.127   7.099
80012SOL    HW241811   5.215  14.014   7.008
80013SOL     OW41812   5.207   5.199   2.963
80013SOL    HW141813   5.261   5.253   3.021
80013SOL    HW241814   5.207   5.113   3.003
80014SOL     OW41815  12.571   5.051   2.058
80014SOL    HW141816  12.506   5.106   2.015
80014SOL    HW241817  12.576   5.084   2.148
80015SOL     OW41818  13.177  11.627   5.930
80015SOL    HW141819  13.174  11.679   5.849
80015SOL    HW241820  13.202  11.540   5.901
80016SOL     OW41821  11.342   3.473  10.542
80016SOL    HW141822  11.290   3.414  10.596
80016SOL    HW241823  11.353   3.551  10.595
80017SOL     OW41824   1.221  12.039   7.437
80017SOL    HW141825   1.293  12.017   7.378
80017SOL    HW241826   1.160  12.089   7.383
80018SOL     OW41827   8.812  12.792  11.871
80018SOL    HW141828   8.747  12.808  11.802
80018SOL    HW241829   8.864  12.872  11.874
80019SOL     OW41830  13.325  13.427   0.317
80019SOL    HW141831  13.387  13.492   0.284
80019SOL    HW241832  13.241  13.471   0.319
80020SOL     OW41833   0.797  12.053  14.130
80020SOL    HW141834   0.814  11.968  14.089
80020SOL    HW241835   0.702  12.056  14.140
80021SOL     OW41836   4.242   2.036  12.340
80021SOL    HW141837   4.281   2.008  12.423
80021SOL    HW241838   4.148   2.031  12.355
80022SOL     OW41839   6.703  10.256   0.050
80022SOL    HW141840   6.617  10.218   0.069
80022SOL    HW241841   6.690  10.351   0.058
80023SOL     OW41842   1.657   6.742   0.326
80023SOL    HW141843   1.692   6.756   0.238
80023SOL    HW241844   1.575   6.792   0.328
80024SOL     OW41845   0.150  14.560   8.973
80024SOL    HW141846   0.073  14.525   8.928
80024SOL    HW241847   0.218  14.561   8.906
80025SOL     OW41848   8.300  10.813   1.042
80025SOL    HW141849   8.230  10.767   0.995
80025SOL    HW241850   8.258  10.892   1.075
80026SOL     OW41851  12.227   7.741   9.873
80026SOL    HW141852  12.167   7.755   9.946
80026SOL    HW241853  12.230   7.646   9.862
80027SOL     OW41854   9.062  10.277   2.735
80027SOL    HW141855   9.012  10.322   2.667
80027SOL    HW241856   9.097  10.199   2.692
80028SOL     OW41857   8.951   6.771   5.748
80028SOL    HW141858   8.963   6.692   5.696
80028SOL    HW241859   9.008   6.836   5.707
80029SOL     OW41860   3.648   9.107   2.765
80029SOL    HW141861   3.574   9.053   2.737
80029SOL    HW241862   3.655   9.175   2.697
80030SOL     OW41863   6.108  14.011  10.460
80030SOL    HW141864   6.135  14.022  10.369
80030SOL    HW241865   6.055  13.931  10.459
80031SOL     OW41866   4.128   3.047   0.269
80031SOL    HW141867   4.192   3.064   0.338
80031SOL    HW241868   4.073   2.977   0.303
80032SOL     OW41869  14.255   0.412  11.895
80032SOL    HW141870  14.335   0.452  11.930
80032SOL    HW241871  14.287   0.341  11.838
80033SOL     OW41872  12.778   0.409   4.599
80033SOL    HW141873  12.775   0.314   4.582
80033SOL    HW241874  12.715   0.423   4.669
80034SOL     OW41875  12.025   8.323  12.758
80034SOL    HW141876  12.021   8.344  12.851
80034SOL    HW241877  11.935   8.299  12.735
80035SOL     OW41878  10.077   2.838  11.896
80035SOL    HW141879  10.116   2.885  11.822
80035SOL    HW241880   9.997   2.887  11.916
80036SOL     OW41881   2.428  11.514   4.886
80036SOL    HW141882   2.411  11.574   4.813
80036SOL    HW241883   2.413  11.566   4.965
80037SOL     OW41884   8.737   3.843   5.398
80037SOL    HW141885   8.770   3.799   5.320
80037SOL    HW241886   8.815   3.878   5.441
80038SOL     OW41887   8.157   1.908  11.599
80038SOL    HW141888   8.154   2.004  11.602
80038SOL    HW241889   8.247   1.886  11.620
80039SOL     OW41890   6.975   7.518  10.837
80039SOL    HW141891   6.982   7.427  10.809
80039SOL    HW241892   6.881   7.535  10.843
80040SOL     OW41893   7.335   4.140   2.426
80040SOL    HW141894   7.384   4.092   2.492
80040SOL    HW241895   7.245   4.107   2.434
80041SOL     OW41896   7.127  10.819  11.820
80041SOL    HW141897   7.218  10.811  11.849
80041SOL    HW241898   7.132  10.867  11.737
80042SOL     OW41899   1.661   4.513   1.526
80042SOL    HW141900   1.623   4.435   1.486
80042SOL    HW241901   1.749   4.487   1.551
80043SOL     OW41902   7.915   9.085   2.969
80043SOL    HW141903   7.892   9.047   2.884
80043SOL    HW241904   7.935   9.176   2.950
80044SOL     OW41905   6.911  13.067   9.576
80044SOL    HW141906   6.879  13.111   9.498
80044SOL    HW241907   6.959  12.991   9.543
80045SOL     OW41908  13.569   1.366  11.368
80045SOL    HW141909  13.573   1.437  11.304
80045SOL    HW241910  13.534   1.291  11.320
80046SOL     OW41911   9.425  13.507   7.838
80046SOL    HW141912   9.449  13.509   7.745
80046SOL    HW241913   9.329  13.498   7.838
80047SOL     OW41914  13.155   7.124   5.689
80047SOL    HW141915  13.183   7.186   5.756
80047SOL    HW241916  13.060   7.121   5.696
80048SOL     OW41917  13.389  13.854  11.390
80048SOL    HW141918  13.305  13.877  11.428
80048SOL    HW241919  13.402  13.762  11.413
80049SOL     OW41920  10.890  10.655  12.806
80049SOL    HW141921  10.930  10.728  12.853
80049SOL    HW241922  10.874  10.689  12.718
80050SOL     OW41923  11.500   0.233   1.861
80050SOL    HW141924  11.430   0.170   1.878
80050SOL    HW241925  11.455   0.312   1.832
80051SOL     OW41926  14.158   9.054   4.911
80051SOL    HW141927  14.095   8.994   4.871
80051SOL    HW241928  14.109   9.098   4.980
80052SOL     OW41929  14.555  10.797  13.118
80052SOL    HW141930  14.530  10.886  13.093
80052SOL    HW241931  14.648  10.804  13.139
80053SOL     OW41932  10.222   6.640   4.357
80053SOL    HW141933  10.208   6.595   4.440
80053SOL    HW241934  10.269   6.577   4.303
80054SOL     OW41935   7.385  11.917  13.043
80054SOL    HW141936   7.403  11.839  13.094
80054SOL    HW241937   7.414  11.896  12.954
80055SOL     OW41938   3.897   1.777  12.185
80055SOL    HW141939   3.947   1.811  12.111
80055SOL    HW241940   3.805   1.784  12.158
80056SOL     OW41941  12.042  11.588  13.539
80056SOL    HW141942  12.112  11.642  13.502
80056SOL    HW241943  11.989  11.562  13.463
80057SOL     OW41944   4.952  12.835  12.410
80057SOL    HW141945   4.878  12.820  12.350
80057SOL    HW241946   4.993  12.749  12.418
80058SOL     OW41947   4.553   1.231  10.644
80058SOL    HW141948   4.636   1.250  10.687
80058SOL    HW241949   4.577   1.212  10.553
80059SOL     OW41950   9.024  12.146  12.343
80059SOL    HW141951   9.003  12.183  12.257
80059SOL    HW241952   9.108  12.102  12.330
80060SOL     OW41953   6.821  12.420  11.069
80060SOL    HW141954   6.732  12.389  11.085
80060SOL    HW241955   6.828  12.427  10.974
80061SOL     OW41956   8.532   1.753  14.551
80061SOL    HW141957   8.554   1.803  14.630
80061SOL    HW241958   8.524   1.663  14.580
80062SOL     OW41959   0.561  13.175  13.503
80062SOL    HW141960   0.489  13.113  13.491
80062SOL    HW241961   0.560  13.229  13.424
80063SOL     OW41962   1.066   5.684  13.636
80063SOL    HW141963   1.084   5.728  13.552
80063SOL    HW241964   1.149   5.687  13.682
80064SOL     OW41965   8.864   0.001  10.126
80064SOL    HW141966   8.808  14.801  10.136
80064SOL    HW241967   8.815   0.057  10.066
80065SOL     OW41968  11.097   5.469   1.535
80065SOL    HW141969  11.146   5.408   1.481
80065SOL    HW241970  11.150   5.480   1.614
80066SOL     OW41971   7.997  10.374  12.054
80066SOL    HW141972   8.027  10.459  12.021
80066SOL    HW241973   7.989  10.386  12.149
80067SOL     OW41974  12.743  11.313   1.261
80067SOL    HW141975  12.760  11.262   1.340
80067SOL    HW241976  12.786  11.398   1.277
80068SOL     OW41977   0.472   7.254  13.520
80068SOL    HW141978   0.476   7.204  13.439
80068SOL    HW241979   0.444   7.191  13.587
80069SOL     OW41980   3.210   1.001   7.061
80069SOL    HW141981   3.226   0.953   6.980
80069SOL    HW241982   3.220   0.935   7.130
80070SOL     OW41983   6.039   5.114   4.302
80070SOL    HW141984   6.023   5.187   4.243
80070SOL    HW241985   6.089   5.152   4.374
80071SOL     OW41986   3.219   5.001   0.837
80071SOL    HW141987   3.181   4.947   0.768
80071SOL    HW241988   3.297   5.040   0.798
80072SOL     OW41989   1.144   4.652   9.410
80072SOL    HW141990   1.089   4.648   9.489
80072SOL    HW241991   1.126   4.569   9.366
80073SOL     OW41992   7.649   1.384   9.883
80073SOL    HW141993   7.735   1.418   9.860
80073SOL    HW241994   7.652   1.292   9.858
80074SOL     OW41995  10.200  14.684  11.220
80074SOL    HW141996  10.250  14.618  11.268
80074SOL    HW241997  10.218  14.766  11.266
80075SOL     OW41998   1.756  10.236  11.197
80075SOL    HW141999   1.671  10.203  11.167
80075SOL    HW242000   1.817  10.212  11.127
80076SOL     OW42001   7.473   4.903   7.458
80076SOL    HW142002   7.428   4.981   7.426
80076SOL    HW242003   7.518   4.932   7.538
80077SOL     OW42004   6.078   9.471   9.579
80077SOL    HW142005   6.032   9.408   9.524
80077SOL    HW242006   6.025   9.551   9.574
80078SOL     OW42007   3.086   5.204   5.478
80078SOL    HW142008   3.064   5.294   5.452
80078SOL    HW242009   3.181   5.198   5.462
80079SOL     OW42010  10.859   9.012   9.433
80079SOL    HW142011  10.872   8.924   9.469
80079SOL    HW242012  10.767   9.031   9.449
80080SOL     OW42013  10.806  14.009  13.845
80080SOL    HW142014  10.893  13.976  13.826
80080SOL    HW242015  10.806  14.098  13.811
80081SOL     OW42016   4.579   5.196   5.661
80081SOL    HW142017   4.552   5.248   5.736
80081SOL    HW242018   4.502   5.142   5.640
80082SOL     OW42019  12.875   3.295  13.554
80082SOL    HW142020  12.807   3.228  13.557
80082SOL    HW242021  12.930   3.277  13.630
80083SOL     OW42022  13.801  14.721  12.790
80083SOL    HW142023  13.804  14.816  12.802
80083SOL    HW242024  13.803  14.685  12.879
80084SOL     OW42025   6.836   9.889   0.039
80084SOL    HW142026   6.806   9.798   0.035
80084SOL    HW242027   6.781   9.928   0.107
80085SOL     OW42028  13.516   6.380   3.497
80085SOL    HW142029  13.549   6.313   3.438
80085SOL    HW242030  13.515   6.339   3.583
80086SOL     OW42031  13.187   9.066  12.584
80086SOL    HW142032  13.192   9.030  12.673
80086SOL    HW242033  13.130   9.006  12.537
80087SOL     OW42034   8.114  14.238   0.046
80087SOL    HW142035   8.075  14.154   0.023
80087SOL    HW242036   8.128  14.282  14.839
80088SOL     OW42037   4.556   9.861  11.850
80088SOL    HW142038   4.599   9.776  11.846
80088SOL    HW242039   4.514   9.871  11.765
80089SOL     OW42040   5.802   1.097   7.472
80089SOL    HW142041   5.855   1.171   7.501
80089SOL    HW242042   5.839   1.021   7.518
80090SOL     OW42043   8.623   1.005   4.990
80090SOL    HW142044   8.611   1.095   5.019
80090SOL    HW242045   8.703   1.006   4.938
80091SOL     OW42046  11.245  10.052   7.088
80091SOL    HW142047  11.156  10.032   7.118
80091SOL    HW242048  11.239  10.045   6.993
80092SOL     OW42049  12.232  11.326   7.934
80092SOL    HW142050  12.206  11.402   7.882
80092SOL    HW242051  12.242  11.361   8.023
80093SOL     OW42052   1.352   6.045   0.847
80093SOL    HW142053   1.306   6.003   0.920
80093SOL    HW242054   1.295   6.030   0.771
80094SOL     OW42055   1.821   9.141   1.237
80094SOL    HW142056   1.855   9.071   1.181
80094SOL    HW242057   1.872   9.218   1.212
80095SOL     OW42058   0.850   3.599  10.083
80095SOL    HW142059   0.853   3.695  10.089
80095SOL    HW242060   0.941   3.572  10.092
80096SOL     OW42061   1.876   0.161   7.346
80096SOL    HW142062   1.844   0.202   7.427
80096SOL    HW242063   1.808   0.097   7.324
80097SOL     OW42064  12.211   7.299   9.997
80097SOL    HW142065  12.226   7.314  10.090
80097SOL    HW242066  12.241   7.209   9.982
80098SOL     OW42067   8.929   1.360   8.193
80098SOL    HW142068   8.965   1.300   8.258
80098SOL    HW242069   8.861   1.409   8.240
80099SOL     OW42070  10.554  12.881   3.941
80099SOL    HW142071  10.538  12.945   4.010
80099SOL    HW242072  10.622  12.823   3.978
80100SOL     OW42073   2.468  11.509   7.430
80100SOL    HW142074   2.528  11.442   7.462
80100SOL    HW242075   2.442  11.479   7.343
80101SOL     OW42076   3.621   8.548  13.815
80101SOL    HW142077   3.586   8.535  13.727
80101SOL    HW242078   3.545   8.538  13.873
80102SOL     OW42079   8.615   8.203   9.450
80102SOL    HW142080   8.585   8.283   9.406
80102SOL    HW242081   8.636   8.230   9.539
80103SOL     OW42082   0.849   1.596   0.396
80103SOL    HW142083   0.878   1.542   0.470
80103SOL    HW242084   0.929   1.613   0.346
80104SOL     OW42085   6.961   9.488  11.153
80104SOL    HW142086   6.988   9.423  11.088
80104SOL    HW242087   6.963   9.441  11.236
80105SOL     OW42088   3.745   9.411   9.130
80105SOL    HW142089   3.798   9.457   9.066
80105SOL    HW242090   3.662   9.459   9.132
80106SOL     OW42091   4.173   5.445   1.830
80106SOL    HW142092   4.143   5.534   1.844
80106SOL    HW242093   4.154   5.428   1.737
80107SOL     OW42094  10.351  10.653   6.277
80107SOL    HW142095  10.419  10.719   6.292
80107SOL    HW242096  10.315  10.676   6.191
80108SOL     OW42097   5.376   7.746  11.405
80108SOL    HW142098   5.388   7.841  11.402
80108SOL    HW242099   5.411   7.714  11.322
80109SOL     OW42100   8.807   7.554   0.276
80109SOL    HW142101   8.835   7.645   0.285
80109SOL    HW242102   8.859   7.506   0.340
80110SOL     OW42103   0.440   4.738   3.746
80110SOL    HW142104   0.371   4.795   3.779
80110SOL    HW242105   0.394   4.657   3.722
80111SOL     OW42106   2.149   5.919   0.689
80111SOL    HW142107   2.065   5.911   0.645
80111SOL    HW242108   2.201   5.976   0.631
80112SOL     OW42109   4.899  13.431   0.104
80112SOL    HW142110   4.840  13.497   0.065
80112SOL    HW242111   4.878  13.433   0.197
80113SOL     OW42112   2.707   2.271   8.507
80113SOL    HW142113   2.671   2.308   8.427
80113SOL    HW242114   2.714   2.177   8.489
80114SOL     OW42115   8.610   8.378   1.321
80114SOL    HW142116   8.605   8.408   1.231
80114SOL    HW242117   8.665   8.442   1.365
80115SOL     OW42118   8.678  14.215   8.713
80115SOL    HW142119   8.718  14.294   8.677
80115SOL    HW242120   8.667  14.234   8.806
80116SOL     OW42121   9.670  12.476   1.098
80116SOL    HW142122   9.629  12.548   1.145
80116SOL    HW242123   9.682  12.509   1.009
80117SOL     OW42124   9.671   8.490  10.350
80117SOL    HW142125   9.763   8.516  10.354
80117SOL    HW242126   9.673   8.396  10.369
80118SOL     OW42127   0.340   9.226  10.582
80118SOL    HW142128   0.271   9.201  10.644
80118SOL    HW242129   0.416   9.244  10.637
80119SOL     OW42130   9.371   3.476   0.275
80119SOL    HW142131   9.454   3.523   0.273
80119SOL    HW242132   9.383   3.407   0.340
80120SOL     OW42133   4.406   7.867   7.409
80120SOL    HW142134   4.481   7.815   7.437
80120SOL    HW242135   4.350   7.873   7.487
80121SOL     OW42136  13.855  10.961  10.397
80121SOL    HW142137  13.884  10.871  10.416
80121SOL    HW242138  13.920  11.016  10.440
80122SOL     OW42139   0.407  11.381   3.378
80122SOL    HW142140   0.427  11.390   3.471
80122SOL    HW242141   0.464  11.310   3.348
80123SOL     OW42142   8.271   8.277   7.170
80123SOL    HW142143   8.260   8.190   7.210
80123SOL    HW242144   8.364   8.281   7.148
80124SOL     OW42145  14.530   1.176   6.446
80124SOL    HW142146  14.622   1.200   6.454
80124SOL    HW242147  14.485   1.234   6.507
80125SOL     OW42148   9.175   2.414  14.713
80125SOL    HW142149   9.156   2.503  14.742
80125SOL    HW242150   9.224   2.426  14.632
80126SOL     OW42151   9.073  10.522   6.161
80126SOL    HW142152   9.060  10.430   6.183
80126SOL    HW242153   9.083  10.565   6.246
80127SOL     OW42154  13.487   0.921  10.613
80127SOL    HW142155  13.517   0.844  10.660
80127SOL    HW242156  13.453   0.979  10.681
80128SOL     OW42157   2.898   0.571  10.410
80128SOL    HW142158   2.966   0.639  10.404
80128SOL    HW242159   2.852   0.577  10.326
80129SOL     OW42160   7.247   7.483   6.510
80129SOL    HW142161   7.312   7.546   6.542
80129SOL    HW242162   7.227   7.513   6.421
80130SOL     OW42163   3.861   7.077  10.228
80130SOL    HW142164   3.877   6.990  10.193
80130SOL    HW242165   3.815   7.124  10.158
80131SOL     OW42166   1.061  14.752  10.890
80131SOL    HW142167   1.120  14.724  10.961
80131SOL    HW242168   1.028  14.670  10.853
80132SOL     OW42169  13.931   0.222  11.608
80132SOL    HW142170  13.854   0.258  11.566
80132SOL    HW242171  13.990   0.296  11.618
80133SOL     OW42172  14.224   4.443   2.291
80133SOL    HW142173  14.278   4.517   2.319
80133SOL    HW242174  14.244   4.431   2.199
80134SOL     OW42175   3.156  10.515   9.592
80134SOL    HW142176   3.174  10.533   9.684
80134SOL    HW242177   3.179  10.595   9.546
80135SOL     OW42178   5.299   8.648  11.110
80135SOL    HW142179   5.276   8.587  11.181
80135SOL    HW242180   5.216   8.665  11.065
80136SOL     OW42181   0.086   1.009  14.034
80136SOL    HW142182   0.091   1.103  14.053
80136SOL    HW242183   0.070   0.968  14.119
80137SOL     OW42184   0.518  10.408   5.402
80137SOL    HW142185   0.604  10.406   5.360
80137SOL    HW242186   0.529  10.466   5.477
80138SOL     OW42187   1.816   8.109   1.077
80138SOL    HW142188   1.753   8.170   1.041
80138SOL    HW242189   1.817   8.127   1.171
80139SOL     OW42190   8.705  12.454   2.743
80139SOL    HW142191   8.750  12.443   2.659
80139SOL    HW242192   8.740  12.384   2.798
80140SOL     OW42193   8.152   5.750   4.737
80140SOL    HW142194   8.227   5.810   4.741
80140SOL    HW242195   8.181   5.672   4.785
80141SOL     OW42196  13.063  12.563   1.247
80141SOL    HW142197  13.057  12.595   1.157
80141SOL    HW242198  13.008  12.622   1.297
80142SOL     OW42199  10.050   6.607  10.697
80142SOL    HW142200  10.006   6.611  10.612
80142SOL    HW242201  10.001   6.666  10.753
80143SOL     OW42202   5.965   6.212   1.417
80143SOL    HW142203   5.884   6.237   1.460
80143SOL    HW242204   5.948   6.124   1.383
80144SOL     OW42205  13.683  11.482  14.196
80144SOL    HW142206  13.693  11.532  14.277
80144SOL    HW242207  13.609  11.522  14.152
80145SOL     OW42208  14.671  11.859  10.110
80145SOL    HW142209  14.664  11.779  10.163
80145SOL    HW242210  14.599  11.853  10.048
80146SOL     OW42211  12.880  14.678   8.910
80146SOL    HW142212  12.800  14.651   8.955
80146SOL    HW242213  12.898  14.608   8.847
80147SOL     OW42214  13.863   2.464  10.385
80147SOL    HW142215  13.862   2.559  10.370
80147SOL    HW242216  13.773   2.437  10.368
80148SOL     OW42217   4.145   5.725   0.348
80148SOL    HW142218   4.084   5.717   0.421
80148SOL    HW242219   4.159   5.635   0.318
80149SOL     OW42220  14.158   7.761   7.582
80149SOL    HW142221  14.151   7.785   7.489
80149SOL    HW242222  14.243   7.796   7.609
80150SOL     OW42223  13.561   9.812   8.080
80150SOL    HW142224  13.475   9.819   8.040
80150SOL    HW242225  13.605   9.893   8.055
80151SOL     OW42226   4.516   6.314   7.375
80151SOL    HW142227   4.484   6.396   7.337
80151SOL    HW242228   4.539   6.336   7.465
80152SOL     OW42229   2.246  14.418   6.002
80152SOL    HW142230   2.269  14.505   5.971
80152SOL    HW242231   2.198  14.378   5.929
80153SOL     OW42232   0.201  13.410   2.494
80153SOL    HW142233   0.292  13.421   2.468
80153SOL    HW242234   0.165  13.498   2.497
80154SOL     OW42235  10.467   7.630   9.731
80154SOL    HW142236  10.509   7.597   9.652
80154SOL    HW242237  10.488   7.566   9.798
80155SOL     OW42238   0.046   7.589   8.855
80155SOL    HW142239   0.046   7.504   8.810
80155SOL    HW242240   0.004   7.571   8.939
80156SOL     OW42241   3.754  13.893  11.849
80156SOL    HW142242   3.687  13.918  11.911
80156SOL    HW242243   3.745  13.798  11.841
80157SOL     OW42244   2.362   8.591   1.881
80157SOL    HW142245   2.290   8.619   1.937
80157SOL    HW242246   2.321   8.535   1.815
80158SOL     OW42247   5.312   8.193   7.639
80158SOL    HW142248   5.285   8.283   7.626
80158SOL    HW242249   5.392   8.199   7.692
80159SOL     OW42250  11.052   6.100  10.487
80159SOL    HW142251  11.073   6.116  10.395
80159SOL    HW242252  10.967   6.057  10.486
80160SOL     OW42253   4.120  12.175   9.068
80160SOL    HW142254   4.168  12.101   9.105
80160SOL    HW242255   4.138  12.171   8.974
80161SOL     OW42256  12.498  11.163   9.991
80161SOL    HW142257  12.419  11.214  10.011
80161SOL    HW242258  12.527  11.131  10.077
80162SOL     OW42259   8.327  12.075   4.057
80162SOL    HW142260   8.304  11.990   4.094
80162SOL    HW242261   8.417  12.064   4.025
80163SOL     OW42262  11.534   4.498  12.642
80163SOL    HW142263  11.601   4.534  12.700
80163SOL    HW242264  11.452   4.510  12.689
80164SOL     OW42265   6.632   9.866   5.589
80164SOL    HW142266   6.543   9.862   5.626
80164SOL    HW242267   6.690   9.856   5.665
80165SOL     OW42268   5.527  11.092   9.897
80165SOL    HW142269   5.493  11.132   9.977
80165SOL    HW242270   5.610  11.053   9.923
80166SOL     OW42271   5.274   2.743  13.883
80166SOL    HW142272   5.183   2.718  13.898
80166SOL    HW242273   5.323   2.698  13.952
80167SOL     OW42274  13.043  10.052  12.709
80167SOL    HW142275  13.029  10.145  12.729
80167SOL    HW242276  13.016  10.043  12.618
80168SOL     OW42277   5.698   7.886  14.616
80168SOL    HW142278   5.690   7.821  14.546
80168SOL    HW242279   5.770   7.854  14.670
80169SOL     OW42280  10.367  10.465   2.661
80169SOL    HW142281  10.444  10.414   2.686
80169SOL    HW242282  10.311  10.463   2.740
80170SOL     OW42283  11.827  10.125   5.622
80170SOL    HW142284  11.747  10.078   5.648
80170SOL    HW242285  11.840  10.190   5.691
80171SOL     OW42286  11.742   0.509   8.888
80171SOL    HW142287  11.748   0.603   8.874
80171SOL    HW242288  11.831   0.482   8.910
80172SOL     OW42289   4.259   6.773  12.378
80172SOL    HW142290   4.293   6.711  12.444
80172SOL    HW242291   4.164   6.761  12.381
80173SOL     OW42292   8.441   3.452   1.892
80173SOL    HW142293   8.464   3.410   1.809
80173SOL    HW242294   8.352   3.485   1.878
80174SOL     OW42295   5.031   0.223  13.854
80174SOL    HW142296   4.984   0.212  13.771
80174SOL    HW242297   5.027   0.137  13.895
80175SOL     OW42298   7.706   6.986  11.518
80175SOL    HW142299   7.747   7.031  11.591
80175SOL    HW242300   7.756   7.013  11.441
80176SOL     OW42301  11.993   6.709  10.045
80176SOL    HW142302  11.920   6.754  10.005
80176SOL    HW242303  12.020   6.766  10.117
80177SOL     OW42304   2.692   2.079  10.833
80177SOL    HW142305   2.750   2.005  10.851
80177SOL    HW242306   2.655   2.060  10.746
80178SOL     OW42307  10.467   3.972  10.662
80178SOL    HW142308  10.384   3.999  10.623
80178SOL    HW242309  10.521   3.944  10.588
80179SOL     OW42310   5.583   9.748  11.783
80179SOL    HW142311   5.540   9.663  11.770
80179SOL    HW242312   5.624   9.767  11.699
80180SOL     OW42313  10.471  11.329   2.791
80180SOL    HW142314  10.490  11.235   2.786
80180SOL    HW242315  10.555  11.371   2.770
80181SOL     OW42316   9.691   6.520   3.631
80181SOL    HW142317   9.679   6.429   3.603
80181SOL    HW242318   9.784   6.537   3.619
80182SOL     OW42319  12.949   5.568   8.191
80182SOL    HW142320  13.018   5.635   8.183
80182SOL    HW242321  12.993   5.486   8.170
80183SOL     OW42322   5.502   1.174  10.391
80183SOL    HW142323   5.523   1.260  10.354
80183SOL    HW242324   5.468   1.123  10.317
80184SOL     OW42325   5.193   5.406  11.325
80184SOL    HW142326   5.276   5.376  11.287
80184SOL    HW242327   5.127   5.380  11.260
80185SOL     OW42328   2.050   4.633   6.882
80185SOL    HW142329   2.140   4.611   6.907
80185SOL    HW242330   2.053   4.640   6.787
80186SOL     OW42331   7.939   8.600   9.788
80186SOL    HW142332   7.908   8.674   9.840
80186SOL    HW242333   7.959   8.638   9.702
80187SOL     OW42334   3.542  11.498   1.553
80187SOL    HW142335   3.479  11.473   1.485
80187SOL    HW242336   3.610  11.546   1.507
80188SOL     OW42337   3.612   0.279   7.233
80188SOL    HW142338   3.636   0.369   7.215
80188SOL    HW242339   3.517   0.276   7.220
80189SOL     OW42340  10.501   7.223  10.578
80189SOL    HW142341  10.563   7.285  10.615
80189SOL    HW242342  10.448   7.275  10.518
80190SOL     OW42343   3.872   2.019   0.162
80190SOL    HW142344   3.853   1.985   0.074
80190SOL    HW242345   3.885   2.113   0.150
80191SOL     OW42346   4.841  11.845   3.415
80191SOL    HW142347   4.893  11.787   3.359
80191SOL    HW242348   4.806  11.787   3.483
80192SOL     OW42349  13.322   9.883   3.012
80192SOL    HW142350  13.411   9.906   2.987
80192SOL    HW242351  13.328   9.791   3.037
80193SOL     OW42352   8.004   4.557  13.480
80193SOL    HW142353   7.953   4.537  13.559
80193SOL    HW242354   7.991   4.480  13.424
80194SOL     OW42355  14.154  10.839   0.764
80194SOL    HW142356  14.227  10.778   0.757
80194SOL    HW242357  14.191  10.924   0.742
80195SOL     OW42358   7.318  12.173  11.221
80195SOL    HW142359   7.228  12.204  11.215
80195SOL    HW242360   7.311  12.085  11.258
80196SOL     OW42361   3.532   8.920   7.740
80196SOL    HW142362   3.545   8.860   7.813
80196SOL    HW242363   3.619   8.952   7.719
80197SOL     OW42364   7.721  14.875   3.757
80197SOL    HW142365   7.665  14.816   3.807
80197SOL    HW242366   7.794   0.017   3.816
80198SOL     OW42367  12.068   6.695   4.497
80198SOL    HW142368  12.050   6.748   4.575
80198SOL    HW242369  12.023   6.741   4.426
80199SOL     OW42370  10.951  10.698   9.426
80199SOL    HW142371  10.935  10.779   9.378
80199SOL    HW242372  10.883  10.697   9.494
80200SOL     OW42373  14.025  10.305   9.029
80200SOL    HW142374  13.986  10.248   8.962
80200SOL    HW242375  13.967  10.381   9.032
80201SOL     OW42376   3.467  12.384   7.370
80201SOL    HW142377   3.524  12.328   7.423
80201SOL    HW242378   3.382  12.340   7.371
80202SOL     OW42379   4.829   1.129   5.103
80202SOL    HW142380   4.863   1.066   5.039
80202SOL    HW242381   4.815   1.077   5.182
80203SOL     OW42382   6.589  14.169  12.231
80203SOL    HW142383   6.592  14.230  12.157
80203SOL    HW242384   6.667  14.190  12.282
80204SOL     OW42385   5.305   0.123  14.364
80204SOL    HW142386   5.348   0.196  14.408
80204SOL    HW242387   5.350   0.116  14.280
80205SOL     OW42388   5.751   6.803   6.283
80205SOL    HW142389   5.776   6.780   6.194
80205SOL    HW242390   5.766   6.898   6.288
80206SOL     OW42391  13.346   6.889   1.809
80206SOL    HW142392  13.322   6.981   1.814
80206SOL    HW242393  13.397   6.873   1.888
80207SOL     OW42394   6.769   9.653  13.111
80207SOL    HW142395   6.714   9.727  13.085
80207SOL    HW242396   6.708   9.589  13.147
80208SOL     OW42397   4.310   6.070  11.782
80208SOL    HW142398   4.218   6.055  11.803
80208SOL    HW242399   4.310   6.143  11.721
80209SOL     OW42400   1.098   3.859   6.125
80209SOL    HW142401   1.015   3.872   6.079
80209SOL    HW242402   1.165   3.860   6.057
80210SOL     OW42403  13.823   8.312   8.798
80210SOL    HW142404  13.845   8.255   8.872
80210SOL    HW242405  13.807   8.252   8.725
80211SOL     OW42406  13.932   9.350   9.867
80211SOL    HW142407  14.011   9.310   9.832
80211SOL    HW242408  13.895   9.285   9.926
80212SOL     OW42409   0.379   8.749   7.937
80212SOL    HW142410   0.379   8.808   8.012
80212SOL    HW242411   0.453   8.690   7.952
80213SOL     OW42412   4.841  12.101   0.491
80213SOL    HW142413   4.855  12.183   0.443
80213SOL    HW242414   4.919  12.090   0.544
80214SOL     OW42415   8.579  12.212  10.655
80214SOL    HW142416   8.634  12.263  10.715
80214SOL    HW242417   8.629  12.211  10.573
80215SOL     OW42418  10.591  14.530   1.083
80215SOL    HW142419  10.682  14.561   1.082
80215SOL    HW242420  10.539  14.610   1.093
80216SOL     OW42421  13.514   4.114  11.780
80216SOL    HW142422  13.536   4.206  11.794
80216SOL    HW242423  13.467   4.113  11.697
80217SOL     OW42424   3.365   8.068  12.286
80217SOL    HW142425   3.271   8.087  12.293
80217SOL    HW242426   3.376   8.032  12.197
80218SOL     OW42427   6.758   6.518  11.720
80218SOL    HW142428   6.780   6.520  11.627
80218SOL    HW242429   6.669   6.483  11.722
80219SOL     OW42430   8.121  11.647   8.611
80219SOL    HW142431   8.100  11.607   8.527
80219SOL    HW242432   8.066  11.600   8.675
80220SOL     OW42433   6.991   9.038   7.336
80220SOL    HW142434   7.049   9.087   7.278
80220SOL    HW242435   6.939   8.983   7.278
80221SOL     OW42436   0.195   3.739  13.433
80221SOL    HW142437   0.275   3.705  13.475
80221SOL    HW242438   0.156   3.796  13.499
80222SOL     OW42439  13.562   9.011   1.828
80222SOL    HW142440  13.533   8.980   1.914
80222SOL    HW242441  13.596   8.933   1.785
80223SOL     OW42442  13.943  14.324   1.122
80223SOL    HW142443  13.989  14.287   1.047
80223SOL    HW242444  14.003  14.312   1.196
80224SOL     OW42445   3.549   2.876   3.479
80224SOL    HW142446   3.461   2.899   3.450
80224SOL    HW242447   3.542   2.867   3.574
80225SOL     OW42448  14.586  11.264   1.741
80225SOL    HW142449  14.675  11.280   1.710
80225SOL    HW242450  14.598  11.230   1.830
80226SOL     OW42451   2.640   1.675   5.171
80226SOL    HW142452   2.577   1.612   5.206
80226SOL    HW242453   2.620   1.679   5.077
80227SOL     OW42454  14.426  11.963  11.821
80227SOL    HW142455  14.349  11.916  11.787
80227SOL    HW242456  14.500  11.923  11.776
80228SOL     OW42457   7.375   3.834   4.480
80228SOL    HW142458   7.360   3.814   4.573
80228SOL    HW242459   7.324   3.769   4.432
80229SOL     OW42460  12.617  10.867   3.970
80229SOL    HW142461  12.598  10.846   4.062
80229SOL    HW242462  12.532  10.884   3.931
80230SOL     OW42463   8.817   8.821   1.064
80230SOL    HW142464   8.872   8.743   1.072
80230SOL    HW242465   8.758   8.816   1.139
80231SOL     OW42466   8.161   0.551   4.430
80231SOL    HW142467   8.164   0.564   4.336
80231SOL    HW242468   8.234   0.604   4.464
80232SOL     OW42469  13.216   7.013  13.073
80232SOL    HW142470  13.246   6.978  12.990
80232SOL    HW242471  13.160   7.087  13.049
80233SOL     OW42472   0.590   9.637  13.399
80233SOL    HW142473   0.502   9.639  13.437
80233SOL    HW242474   0.616   9.545  13.406
80234SOL     OW42475   5.033   9.605   7.440
80234SOL    HW142476   4.990   9.684   7.474
80234SOL    HW242477   5.085   9.572   7.514
80235SOL     OW42478   5.646   6.707   8.437
80235SOL    HW142479   5.628   6.787   8.388
80235SOL    HW242480   5.734   6.681   8.410
80236SOL     OW42481   8.238   0.490   2.856
80236SOL    HW142482   8.244   0.551   2.782
80236SOL    HW242483   8.211   0.407   2.816
80237SOL     OW42484  10.699   7.217   1.457
80237SOL    HW142485  10.679   7.125   1.438
80237SOL    HW242486  10.774   7.237   1.401
80238SOL     OW42487  14.547   4.015  10.293
80238SOL    HW142488  14.640   3.996  10.277
80238SOL    HW242489  14.520   3.949  10.357
80239SOL     OW42490   0.606  12.196   6.652
80239SOL    HW142491   0.651  12.174   6.570
80239SOL    HW242492   0.561  12.279   6.633
80240SOL     OW42493  13.686  11.219   3.917
80240SOL    HW142494  13.752  11.162   3.877
80240SOL    HW242495  13.609  11.209   3.862
80241SOL     OW42496  11.734  13.199   5.848
80241SOL    HW142497  11.723  13.259   5.923
80241SOL    HW242498  11.762  13.117   5.888
80242SOL     OW42499   6.033   2.231   1.006
80242SOL    HW142500   6.020   2.145   1.046
80242SOL    HW242501   6.108   2.268   1.054
80243SOL     OW42502   8.842  10.602   3.623
80243SOL    HW142503   8.908  10.650   3.573
80243SOL    HW242504   8.892  10.555   3.690
80244SOL     OW42505   2.381  14.857  10.789
80244SOL    HW142506   2.454  14.803  10.820
80244SOL    HW242507   2.413   0.018  10.707
80245SOL     OW42508   2.766  14.350   5.645
80245SOL    HW142509   2.824  14.322   5.574
80245SOL    HW242510   2.801  14.307   5.723
80246SOL     OW42511  14.210   6.113   5.697
80246SOL    HW142512  14.163   6.148   5.622
80246SOL    HW242513  14.277   6.178   5.716
80247SOL     OW42514  10.591  11.121   8.517
80247SOL    HW142515  10.563  11.030   8.528
80247SOL    HW242516  10.634  11.143   8.599
80248SOL     OW42517   0.821   3.397   3.453
80248SOL    HW142518   0.767   3.465   3.493
80248SOL    HW242519   0.771   3.368   3.377
80249SOL     OW42520   6.879  10.361   1.381
80249SOL    HW142521   6.808  10.408   1.425
80249SOL    HW242522   6.876  10.273   1.418
80250SOL     OW42523   4.223   0.974   4.657
80250SOL    HW142524   4.144   0.978   4.604
80250SOL    HW242525   4.291   1.015   4.603
80251SOL     OW42526  13.271   6.364   1.432
80251SOL    HW142527  13.238   6.329   1.349
80251SOL    HW242528  13.367   6.361   1.422
80252SOL     OW42529  10.028  14.112   7.989
80252SOL    HW142530  10.041  14.206   7.976
80252SOL    HW242531   9.999  14.104   8.080
80253SOL     OW42532   6.745   3.169   0.569
80253SOL    HW142533   6.837   3.193   0.580
80253SOL    HW242534   6.739   3.134   0.481
80254SOL     OW42535  14.860   2.490   8.225
80254SOL    HW142536  14.808   2.539   8.161
80254SOL    HW242537  14.867   2.549   8.300
80255SOL     OW42538  10.862   5.441   7.287
80255SOL    HW142539  10.887   5.365   7.235
80255SOL    HW242540  10.823   5.502   7.223
80256SOL     OW42541   2.860   6.910  13.047
80256SOL    HW142542   2.938   6.912  12.991
80256SOL    HW242543   2.879   6.973  13.116
80257SOL     OW42544  13.533   4.865  14.384
80257SOL    HW142545  13.612   4.906  14.350
80257SOL    HW242546  13.482   4.840  14.307
80258SOL     OW42547  10.005   5.091   2.781
80258SOL    HW142548  10.090   5.059   2.751
80258SOL    HW242549  10.026   5.156   2.848
80259SOL     OW42550   5.115  13.576   0.521
80259SOL    HW142551   5.115  13.567   0.425
80259SOL    HW242552   5.085  13.491   0.553
80260SOL     OW42553  13.511   5.087   5.689
80260SOL    HW142554  13.468   5.172   5.699
80260SOL    HW242555  13.471   5.031   5.755
80261SOL     OW42556  14.299   5.792  14.468
80261SOL    HW142557  14.279   5.777  14.560
80261SOL    HW242558  14.258   5.876  14.447
80262SOL     OW42559   2.062   9.808  14.121
80262SOL    HW142560   2.126   9.778  14.056
80262SOL    HW242561   1.983   9.756  14.102
80263SOL     OW42562  13.882   0.144   8.227
80263SOL    HW142563  13.887   0.054   8.259
80263SOL    HW242564  13.823   0.189   8.288
80264SOL     OW42565  10.173   0.184   4.670
80264SOL    HW142566  10.170   0.114   4.735
80264SOL    HW242567  10.103   0.244   4.696
80265SOL     OW42568   4.532  13.829   4.261
80265SOL    HW142569   4.466  13.898   4.268
80265SOL    HW242570   4.610  13.873   4.228
80266SOL     OW42571   0.516  11.176   1.845
80266SOL    HW142572   0.577  11.207   1.779
80266SOL    HW242573   0.508  11.082   1.828
80267SOL     OW42574   6.609   9.559  10.394
80267SOL    HW142575   6.611   9.465  10.380
80267SOL    HW242576   6.530   9.575  10.445
80268SOL     OW42577   0.233  11.470   4.914
80268SOL    HW142578   0.265  11.558   4.896
80268SOL    HW242579   0.310  11.414   4.909
80269SOL     OW42580   4.916  14.748   3.153
80269SOL    HW142581   4.884  14.684   3.089
80269SOL    HW242582   5.009  14.728   3.162
80270SOL     OW42583   3.268   0.912  12.557
80270SOL    HW142584   3.190   0.917  12.613
80270SOL    HW242585   3.285   0.818  12.549
80271SOL     OW42586  13.782   2.415   3.329
80271SOL    HW142587  13.727   2.338   3.338
80271SOL    HW242588  13.862   2.383   3.287
80272SOL     OW42589  10.109   9.647   5.684
80272SOL    HW142590  10.185   9.600   5.648
80272SOL    HW242591  10.052   9.578   5.719
80273SOL     OW42592  14.611   0.920  13.435
80273SOL    HW142593  14.656   0.993  13.477
80273SOL    HW242594  14.520   0.949  13.427
80274SOL     OW42595   3.362  11.087   0.374
80274SOL    HW142596   3.421  11.025   0.416
80274SOL    HW242597   3.281  11.083   0.425
80275SOL     OW42598  12.809  13.662   1.008
80275SOL    HW142599  12.807  13.755   1.031
80275SOL    HW242600  12.815  13.660   0.913
80276SOL     OW42601   7.627   1.921   5.892
80276SOL    HW142602   7.712   1.901   5.853
80276SOL    HW242603   7.612   2.013   5.870
80277SOL     OW42604   7.736  13.207  12.506
80277SOL    HW142605   7.746  13.274  12.437
80277SOL    HW242606   7.665  13.151  12.474
80278SOL     OW42607  14.218   3.014  14.725
80278SOL    HW142608  14.302   3.041  14.761
80278SOL    HW242609  14.161   3.091  14.735
80279SOL     OW42610  13.187   9.539   2.386
80279SOL    HW142611  13.251   9.610   2.393
80279SOL    HW242612  13.120   9.573   2.327
80280SOL     OW42613  11.843   6.025  12.136
80280SOL    HW142614  11.885   6.024  12.050
80280SOL    HW242615  11.891   6.091  12.186
80281SOL     OW42616   6.094   2.529   2.462
80281SOL    HW142617   6.186   2.542   2.441
80281SOL    HW242618   6.065   2.613   2.498
80282SOL     OW42619   3.823   5.174   6.306
80282SOL    HW142620   3.809   5.264   6.277
80282SOL    HW242621   3.918   5.163   6.306
80283SOL     OW42622   8.951   0.812  11.507
80283SOL    HW142623   8.994   0.880  11.455
80283SOL    HW242624   8.890   0.770  11.446
80284SOL     OW42625  10.764   6.032   1.567
80284SOL    HW142626  10.707   5.958   1.588
80284SOL    HW242627  10.796   6.012   1.478
80285SOL     OW42628  11.021  10.062  12.844
80285SOL    HW142629  11.059  10.130  12.900
80285SOL    HW242630  11.025   9.982  12.896
80286SOL     OW42631   0.555   7.023   3.916
80286SOL    HW142632   0.557   6.935   3.879
80286SOL    HW242633   0.516   7.012   4.003
80287SOL     OW42634   2.499  13.647   8.640
80287SOL    HW142635   2.581  13.696   8.640
80287SOL    HW242636   2.506  13.589   8.565
80288SOL     OW42637   7.025   0.156   1.861
80288SOL    HW142638   6.970   0.157   1.939
80288SOL    HW242639   7.022   0.245   1.827
80289SOL     OW42640   5.826   5.336   9.750
80289SOL    HW142641   5.881   5.384   9.812
80289SOL    HW242642   5.778   5.405   9.704
80290SOL     OW42643  11.533  10.004   7.835
80290SOL    HW142644  11.510   9.913   7.855
80290SOL    HW242645  11.480  10.056   7.896
80291SOL     OW42646   0.817   8.979   6.419
80291SOL    HW142647   0.888   9.011   6.364
80291SOL    HW242648   0.859   8.919   6.481
80292SOL     OW42649   9.859   7.957   5.305
80292SOL    HW142650   9.813   7.885   5.262
80292SOL    HW242651   9.946   7.922   5.325
80293SOL     OW42652   7.024   5.521  10.775
80293SOL    HW142653   7.081   5.544  10.702
80293SOL    HW242654   6.951   5.583  10.768
80294SOL     OW42655   5.095   9.183   5.859
80294SOL    HW142656   5.035   9.217   5.925
80294SOL    HW242657   5.182   9.213   5.888
80295SOL     OW42658   2.987  11.556   3.749
80295SOL    HW142659   2.967  11.645   3.777
80295SOL    HW242660   3.062  11.530   3.802
80296SOL     OW42661   4.925  10.457   7.215
80296SOL    HW142662   4.973  10.435   7.135
80296SOL    HW242663   4.881  10.375   7.239
80297SOL     OW42664   8.488  10.530   7.207
80297SOL    HW142665   8.573  10.530   7.252
80297SOL    HW242666   8.430  10.482   7.266
80298SOL     OW42667   7.058   0.112  13.159
80298SOL    HW142668   7.096   0.170  13.225
80298SOL    HW242669   7.063   0.024  13.198
80299SOL     OW42670   6.509  11.889   3.842
80299SOL    HW142671   6.465  11.972   3.859
80299SOL    HW242672   6.501  11.876   3.747
80300SOL     OW42673   7.021   9.817   4.717
80300SOL    HW142674   6.968   9.828   4.638
80300SOL    HW242675   7.108   9.795   4.685
80301SOL     OW42676  14.671  14.111   5.031
80301SOL    HW142677  14.722  14.109   4.950
80301SOL    HW242678  14.701  14.035   5.080
80302SOL     OW42679   6.537  14.339  13.488
80302SOL    HW142680   6.509  14.353  13.397
80302SOL    HW242681   6.631  14.321  13.482
80303SOL     OW42682   0.716   0.121  11.769
80303SOL    HW142683   0.763   0.072  11.702
80303SOL    HW242684   0.641   0.066  11.792
80304SOL     OW42685  12.561   6.632  14.410
80304SOL    HW142686  12.495   6.633  14.341
80304SOL    HW242687  12.631   6.689  14.378
80305SOL     OW42688   7.542   1.180   1.544
80305SOL    HW142689   7.536   1.158   1.451
80305SOL    HW242690   7.452   1.175   1.576
80306SOL     OW42691   1.722  12.972   9.772
80306SOL    HW142692   1.804  12.985   9.820
80306SOL    HW242693   1.684  13.060   9.763
80307SOL     OW42694   0.655  13.812  13.864
80307SOL    HW142695   0.572  13.819  13.817
80307SOL    HW242696   0.702  13.741  13.820
80308SOL     OW42697   7.393  11.446   4.202
80308SOL    HW142698   7.383  11.522   4.260
80308SOL    HW242699   7.471  11.465   4.151
80309SOL     OW42700   8.543   0.308  10.195
80309SOL    HW142701   8.502   0.357  10.266
80309SOL    HW242702   8.604   0.370  10.155
80310SOL     OW42703   0.981   4.453  11.469
80310SOL    HW142704   0.932   4.532  11.446
80310SOL    HW242705   0.966   4.393  11.396
80311SOL     OW42706   5.844   2.137  14.248
80311SOL    HW142707   5.794   2.208  14.287
80311SOL    HW242708   5.918   2.180  14.205
80312SOL     OW42709   5.363  14.873  13.648
80312SOL    HW142710   5.418   0.066  13.612
80312SOL    HW242711   5.404  14.852  13.732
80313SOL     OW42712   2.411   7.626   9.572
80313SOL    HW142713   2.335   7.685   9.570
80313SOL    HW242714   2.373   7.538   9.567
80314SOL     OW42715   2.977  11.525   8.108
80314SOL    HW142716   2.921  11.597   8.079
80314SOL    HW242717   2.951  11.451   8.052
80315SOL     OW42718  14.659   6.489   8.975
80315SOL    HW142719  14.608   6.408   8.978
80315SOL    HW242720  14.651   6.520   8.885
80316SOL     OW42721   0.620   7.704  11.887
80316SOL    HW142722   0.691   7.700  11.822
80316SOL    HW242723   0.657   7.662  11.965
80317SOL     OW42724   7.329  14.469   6.815
80317SOL    HW142725   7.277  14.391   6.794
80317SOL    HW242726   7.301  14.534   6.750
80318SOL     OW42727   6.476  12.441   9.913
80318SOL    HW142728   6.421  12.474   9.843
80318SOL    HW242729   6.545  12.507   9.922
80319SOL     OW42730   8.511   3.816   0.925
80319SOL    HW142731   8.537   3.908   0.927
80319SOL    HW242732   8.583   3.769   0.968
80320SOL     OW42733   8.710   1.307   6.578
80320SOL    HW142734   8.784   1.312   6.516
80320SOL    HW242735   8.732   1.371   6.646
80321SOL     OW42736   1.568   1.429   6.778
80321SOL    HW142737   1.496   1.453   6.721
80321SOL    HW242738   1.530   1.369   6.841
80322SOL     OW42739  14.463   9.702   5.000
80322SOL    HW142740  14.509   9.656   5.070
80322SOL    HW242741  14.504   9.670   4.920
80323SOL     OW42742   3.479  11.444   5.062
80323SOL    HW142743   3.447  11.428   5.151
80323SOL    HW242744   3.455  11.365   5.014
80324SOL     OW42745   5.113  12.737   3.264
80324SOL    HW142746   5.064  12.656   3.275
80324SOL    HW242747   5.047  12.802   3.238
80325SOL     OW42748   4.405   7.256   2.171
80325SOL    HW142749   4.467   7.212   2.230
80325SOL    HW242750   4.324   7.261   2.222
80326SOL     OW42751   8.544  13.408   3.505
80326SOL    HW142752   8.631  13.374   3.487
80326SOL    HW242753   8.519  13.367   3.588
80327SOL     OW42754  13.869  14.323   0.267
80327SOL    HW142755  13.957  14.350   0.242
80327SOL    HW242756  13.840  14.390   0.329
80328SOL     OW42757   7.197   4.194   0.630
80328SOL    HW142758   7.228   4.198   0.539
80328SOL    HW242759   7.224   4.107   0.660
80329SOL     OW42760  13.445   7.430  12.493
80329SOL    HW142761  13.455   7.342  12.531
80329SOL    HW242762  13.372   7.469  12.541
80330SOL     OW42763   5.138   1.546  13.044
80330SOL    HW142764   5.217   1.599  13.050
80330SOL    HW242765   5.150   1.494  12.965
80331SOL     OW42766   2.188  14.586   6.581
80331SOL    HW142767   2.255  14.590   6.650
80331SOL    HW242768   2.236  14.565   6.502
80332SOL     OW42769   1.035   4.924   9.323
80332SOL    HW142770   1.088   4.845   9.334
80332SOL    HW242771   0.947   4.898   9.349
80333SOL     OW42772   1.574   1.376   6.147
80333SOL    HW142773   1.616   1.377   6.061
80333SOL    HW242774   1.605   1.295   6.188
80334SOL     OW42775  11.171  13.184   6.162
80334SOL    HW142776  11.121  13.261   6.190
80334SOL    HW242777  11.255  13.221   6.132
80335SOL     OW42778  12.186   7.288   2.818
80335SOL    HW142779  12.281   7.287   2.824
80335SOL    HW242780  12.158   7.348   2.888
80336SOL     OW42781  12.933   8.257   6.366
80336SOL    HW142782  13.025   8.270   6.343
80336SOL    HW242783  12.921   8.307   6.447
80337SOL     OW42784   1.567   5.480   4.690
80337SOL    HW142785   1.501   5.522   4.745
80337SOL    HW242786   1.638   5.544   4.684
80338SOL     OW42787   5.678   6.805  13.853
80338SOL    HW142788   5.699   6.881  13.908
80338SOL    HW242789   5.761   6.756  13.848
80339SOL     OW42790  13.719   6.373  11.262
80339SOL    HW142791  13.669   6.455  11.264
80339SOL    HW242792  13.684   6.322  11.335
80340SOL     OW42793   0.924   5.552   4.876
80340SOL    HW142794   0.858   5.556   4.808
80340SOL    HW242795   1.006   5.535   4.830
80341SOL     OW42796   0.549   2.915   6.636
80341SOL    HW142797   0.569   2.902   6.728
80341SOL    HW242798   0.467   2.868   6.622
80342SOL     OW42799   4.476   2.807   6.993
80342SOL    HW142800   4.464   2.782   7.085
80342SOL    HW242801   4.527   2.888   6.998
80343SOL     OW42802  12.003   7.334   1.428
80343SOL    HW142803  11.973   7.252   1.466
80343SOL    HW242804  12.054   7.308   1.351
80344SOL     OW42805   8.885  14.372   1.148
80344SOL    HW142806   8.902  14.422   1.228
80344SOL    HW242807   8.828  14.429   1.096
80345SOL     OW42808   3.136  14.419   0.682
80345SOL    HW142809   3.122  14.495   0.738
80345SOL    HW242810   3.110  14.344   0.736
80346SOL     OW42811   0.994  11.757  10.978
80346SOL    HW142812   0.943  11.760  11.059
80346SOL    HW242813   0.979  11.842  10.937
80347SOL     OW42814   7.583   3.909  13.580
80347SOL    HW142815   7.515   3.941  13.520
80347SOL    HW242816   7.543   3.917  13.667
80348SOL     OW42817  13.083   1.414  11.963
80348SOL    HW142818  13.169   1.383  11.934
80348SOL    HW242819  13.067   1.367  12.045
80349SOL     OW42820  11.876   3.537  13.337
80349SOL    HW142821  11.968   3.516  13.323
80349SOL    HW242822  11.847   3.575  13.254
80350SOL     OW42823  10.936  14.586   0.980
80350SOL    HW142824  10.889  14.518   0.932
80350SOL    HW242825  11.023  14.549   0.996
80351SOL     OW42826   0.337   3.644   9.424
80351SOL    HW142827   0.312   3.690   9.504
80351SOL    HW242828   0.335   3.711   9.355
80352SOL     OW42829   3.095   0.379   6.978
80352SOL    HW142830   3.046   0.313   7.027
80352SOL    HW242831   3.035   0.408   6.909
80353SOL     OW42832   6.012  13.088   4.482
80353SOL    HW142833   5.945  13.064   4.546
80353SOL    HW242834   5.988  13.039   4.403
80354SOL     OW42835   6.807  10.741   7.012
80354SOL    HW142836   6.866  10.801   7.057
80354SOL    HW242837   6.866  10.681   6.965
80355SOL     OW42838   2.108  12.080   8.079
80355SOL    HW142839   2.081  12.009   8.138
80355SOL    HW242840   2.036  12.088   8.017
80356SOL     OW42841  10.885   5.425   3.070
80356SOL    HW142842  10.810   5.366   3.077
80356SOL    HW242843  10.959   5.375   3.102
80357SOL     OW42844  12.593  11.945  10.282
80357SOL    HW142845  12.504  11.980  10.279
80357SOL    HW242846  12.619  11.938  10.191
80358SOL     OW42847   4.986   6.055   9.517
80358SOL    HW142848   4.927   6.014   9.581
80358SOL    HW242849   5.024   6.130   9.564
80359SOL     OW42850  10.327   1.340  12.438
80359SOL    HW142851  10.383   1.295  12.375
80359SOL    HW242852  10.285   1.269  12.488
80360SOL     OW42853  13.042   3.226  11.667
80360SOL    HW142854  12.949   3.211  11.646
80360SOL    HW242855  13.086   3.228  11.582
80361SOL     OW42856  10.901  12.525   1.077
80361SOL    HW142857  10.914  12.602   1.023
80361SOL    HW242858  10.985  12.479   1.075
80362SOL     OW42859  12.261   7.008  10.688
80362SOL    HW142860  12.294   6.961  10.764
80362SOL    HW242861  12.177   7.045  10.717
80363SOL     OW42862   8.999  11.974  11.220
80363SOL    HW142863   8.976  11.997  11.130
80363SOL    HW242864   9.020  11.880  11.216
80364SOL     OW42865   6.756  13.777  10.483
80364SOL    HW142866   6.751  13.690  10.444
80364SOL    HW242867   6.806  13.828  10.420
80365SOL     OW42868   1.200   8.347   5.008
80365SOL    HW142869   1.196   8.387   4.921
80365SOL    HW242870   1.236   8.416   5.064
80366SOL     OW42871   7.821  14.492  13.997
80366SOL    HW142872   7.764  14.420  13.970
80366SOL    HW242873   7.906  14.452  14.012
80367SOL     OW42874   5.320   5.125   8.992
80367SOL    HW142875   5.341   5.068   8.918
80367SOL    HW242876   5.380   5.199   8.983
80368SOL     OW42877   7.200   4.205   9.497
80368SOL    HW142878   7.151   4.154   9.562
80368SOL    HW242879   7.223   4.142   9.429
80369SOL     OW42880   3.670  14.393   7.478
80369SOL    HW142881   3.680  14.320   7.418
80369SOL    HW242882   3.725  14.462   7.441
80370SOL     OW42883   8.564  14.764   0.774
80370SOL    HW142884   8.565  14.800   0.862
80370SOL    HW242885   8.506  14.688   0.779
80371SOL     OW42886   3.045  12.336  13.715
80371SOL    HW142887   2.951  12.350  13.712
80371SOL    HW242888   3.082  12.423  13.730
80372SOL     OW42889   4.090  12.765  14.748
80372SOL    HW142890   4.162  12.704  14.762
80372SOL    HW242891   4.073  12.802  14.835
80373SOL     OW42892   5.817   2.474   4.875
80373SOL    HW142893   5.753   2.485   4.945
80373SOL    HW242894   5.847   2.562   4.855
80374SOL     OW42895  14.473  14.814   2.665
80374SOL    HW142896  14.405  14.772   2.717
80374SOL    HW242897  14.536  14.846   2.731
80375SOL     OW42898  13.381   6.748  11.458
80375SOL    HW142899  13.468   6.787  11.463
80375SOL    HW242900  13.397   6.655  11.442
80376SOL     OW42901  14.576  12.484   3.523
80376SOL    HW142902  14.660  12.439   3.513
80376SOL    HW242903  14.586  12.535   3.603
80377SOL     OW42904  13.852   6.212   1.095
80377SOL    HW142905  13.892   6.230   1.180
80377SOL    HW242906  13.762   6.185   1.116
80378SOL     OW42907   9.030   6.133   9.402
80378SOL    HW142908   8.966   6.191   9.444
80378SOL    HW242909   9.068   6.083   9.474
80379SOL     OW42910  11.412  11.929   3.357
80379SOL    HW142911  11.327  11.954   3.394
80379SOL    HW242912  11.428  11.841   3.392
80380SOL     OW42913   6.383   3.056   0.149
80380SOL    HW142914   6.344   3.031   0.065
80380SOL    HW242915   6.461   3.107   0.126
80381SOL     OW42916   9.506   8.923  14.250
80381SOL    HW142917   9.486   8.831  14.267
80381SOL    HW242918   9.498   8.966  14.335
80382SOL     OW42919  10.709   5.118   4.352
80382SOL    HW142920  10.664   5.172   4.287
80382SOL    HW242921  10.673   5.031   4.340
80383SOL     OW42922   4.039   9.571  14.383
80383SOL    HW142923   4.090   9.559  14.463
80383SOL    HW242924   4.049   9.664  14.363
80384SOL     OW42925   2.132   0.310   7.000
80384SOL    HW142926   2.162   0.230   6.955
80384SOL    HW242927   2.085   0.278   7.077
80385SOL     OW42928   8.265   0.058   9.223
80385SOL    HW142929   8.290   0.052   9.131
80385SOL    HW242930   8.348   0.064   9.270
80386SOL     OW42931   6.321   9.615  10.080
80386SOL    HW142932   6.281   9.650  10.160
80386SOL    HW242933   6.362   9.533  10.107
80387SOL     OW42934   1.992  10.578   7.336
80387SOL    HW142935   2.082  10.552   7.316
80387SOL    HW242936   1.945  10.567   7.253
80388SOL     OW42937  10.831   0.108   9.448
80388SOL    HW142938  10.742   0.115   9.414
80388SOL    HW242939  10.834   0.021   9.489
80389SOL     OW42940  13.351   5.229   8.494
80389SOL    HW142941  13.306   5.165   8.550
80389SOL    HW242942  13.350   5.188   8.407
80390SOL     OW42943   8.266   1.541   7.294
80390SOL    HW142944   8.304   1.588   7.220
80390SOL    HW242945   8.176   1.520   7.266
80391SOL     OW42946  12.064  14.016   6.970
80391SOL    HW142947  11.981  14.022   6.924
80391SOL    HW242948  12.074  13.922   6.989
80392SOL     OW42949   9.664  12.747  10.339
80392SOL    HW142950   9.684  12.836  10.369
80392SOL    HW242951   9.727  12.692  10.385
80393SOL     OW42952   8.924   6.595   7.151
80393SOL    HW142953   8.917   6.506   7.186
80393SOL    HW242954   9.003   6.631   7.191
80394SOL     OW42955   1.579   0.224   4.476
80394SOL    HW142956   1.511   0.157   4.473
80394SOL    HW242957   1.658   0.179   4.445
80395SOL     OW42958   8.246   1.751   4.335
80395SOL    HW142959   8.271   1.671   4.381
80395SOL    HW242960   8.327   1.779   4.290
80396SOL     OW42961  10.035  10.424   1.549
80396SOL    HW142962  10.010  10.355   1.611
80396SOL    HW242963   9.952  10.450   1.508
80397SOL     OW42964  13.150  13.341   4.408
80397SOL    HW142965  13.108  13.261   4.439
80397SOL    HW242966  13.192  13.315   4.326
80398SOL     OW42967   8.281   2.363  11.548
80398SOL    HW142968   8.186   2.352  11.536
80398SOL    HW242969   8.310   2.404  11.467
80399SOL     OW42970  10.060   4.312   6.571
80399SOL    HW142971  10.146   4.315   6.528
80399SOL    HW242972  10.048   4.219   6.594
80400SOL     OW42973   3.389   9.903   3.917
80400SOL    HW142974   3.378   9.843   3.991
80400SOL    HW242975   3.460   9.962   3.945
80401SOL     OW42976  13.766   7.418  13.457
80401SOL    HW142977  13.687   7.363  13.452
80401SOL    HW242978  13.834   7.359  13.488
80402SOL     OW42979  13.225   2.998   7.039
80402SOL    HW142980  13.144   3.017   6.992
80402SOL    HW242981  13.259   3.085   7.063
80403SOL     OW42982   7.212  12.537  11.927
80403SOL    HW142983   7.231  12.561  12.018
80403SOL    HW242984   7.275  12.468  11.907
80404SOL     OW42985   0.670   6.815   8.555
80404SOL    HW142986   0.636   6.838   8.642
80404SOL    HW242987   0.631   6.879   8.496
80405SOL     OW42988   2.366   1.682   1.792
80405SOL    HW142989   2.417   1.762   1.776
80405SOL    HW242990   2.351   1.646   1.704
80406SOL     OW42991   5.543  14.048   4.679
80406SOL    HW142992   5.592  14.089   4.607
80406SOL    HW242993   5.588  13.965   4.694
80407SOL     OW42994  14.151   7.722   4.119
80407SOL    HW142995  14.154   7.691   4.210
80407SOL    HW242996  14.218   7.671   4.074
80408SOL     OW42997   9.550   5.849   0.340
80408SOL    HW142998   9.483   5.788   0.309
80408SOL    HW242999   9.621   5.839   0.276
80409SOL     OW43000   7.084   1.056   1.376
80409SOL    HW143001   7.045   1.016   1.454
80409SOL    HW243002   7.161   1.003   1.358
80410SOL     OW43003   6.911   2.436  11.004
80410SOL    HW143004   6.897   2.447  11.098
80410SOL    HW243005   6.846   2.494  10.963
80411SOL     OW43006   9.128  12.314   8.481
80411SOL    HW143007   9.091  12.226   8.492
80411SOL    HW243008   9.052  12.369   8.461
80412SOL     OW43009  14.637  10.218   6.309
80412SOL    HW143010  14.618  10.140   6.362
80412SOL    HW243011  14.596  10.201   6.225
80413SOL     OW43012   8.060   9.866  14.871
80413SOL    HW143013   8.039   9.778  14.839
80413SOL    HW243014   8.020   9.925  14.807
80414SOL     OW43015   6.034   5.321   7.664
80414SOL    HW143016   6.075   5.387   7.720
80414SOL    HW243017   5.990   5.262   7.725
80415SOL     OW43018   8.847  13.641   5.795
80415SOL    HW143019   8.759  13.674   5.780
80415SOL    HW243020   8.902  13.719   5.800
80416SOL     OW43021   1.057  12.221   7.263
80416SOL    HW143022   0.972  12.263   7.271
80416SOL    HW243023   1.100  12.267   7.191
80417SOL     OW43024   1.717  11.747   6.083
80417SOL    HW143025   1.672  11.822   6.045
80417SOL    HW243026   1.808  11.774   6.091
80418SOL     OW43027  11.541   8.688   6.335
80418SOL    HW143028  11.490   8.615   6.300
80418SOL    HW243029  11.475   8.753   6.360
80419SOL     OW43030  12.879   8.568   4.669
80419SOL    HW143031  12.826   8.605   4.598
80419SOL    HW243032  12.968   8.568   4.635
80420SOL     OW43033  14.170  10.471   3.163
80420SOL    HW143034  14.101  10.474   3.228
80420SOL    HW243035  14.233  10.408   3.197
80421SOL     OW43036   5.935   4.284   0.390
80421SOL    HW143037   5.865   4.309   0.451
80421SOL    HW243038   5.894   4.221   0.331
80422SOL     OW43039  14.846   5.429   2.235
80422SOL    HW143040   0.002   5.374   2.165
80422SOL    HW243041  14.818   5.509   2.192
80423SOL     OW43042   1.134   1.315  14.230
80423SOL    HW143043   1.074   1.347  14.163
80423SOL    HW243044   1.218   1.305  14.184
80424SOL     OW43045  10.713  13.875   3.449
80424SOL    HW143046  10.724  13.883   3.544
80424SOL    HW243047  10.677  13.960   3.422
80425SOL     OW43048   0.174  14.151   1.462
80425SOL    HW143049   0.161  14.162   1.368
80425SOL    HW243050   0.092  14.180   1.502
80426SOL     OW43051   2.902  11.469   5.446
80426SOL    HW143052   2.871  11.478   5.536
80426SOL    HW243053   2.829  11.498   5.392
80427SOL     OW43054   5.368  11.690  10.452
80427SOL    HW143055   5.356  11.757  10.520
80427SOL    HW243056   5.382  11.609  10.500
80428SOL     OW43057  13.473   0.509   1.011
80428SOL    HW143058  13.557   0.535   0.974
80428SOL    HW243059  13.491   0.432   1.065
80429SOL     OW43060   1.203  14.304  12.809
80429SOL    HW143061   1.261  14.313  12.885
80429SOL    HW243062   1.161  14.219  12.821
80430SOL     OW43063  13.212  14.171  12.771
80430SOL    HW143064  13.300  14.136  12.757
80430SOL    HW243065  13.215  14.259  12.733
80431SOL     OW43066   3.826   1.149   0.405
80431SOL    HW143067   3.854   1.239   0.423
80431SOL    HW243068   3.904   1.096   0.421
80432SOL     OW43069   6.543  12.242   2.142
80432SOL    HW143070   6.522  12.316   2.085
80432SOL    HW243071   6.495  12.168   2.105
80433SOL     OW43072  13.856   2.653  13.972
80433SOL    HW143073  13.781   2.612  14.014
80433SOL    HW243074  13.925   2.653  14.038
80434SOL     OW43075   6.877  13.054   5.676
80434SOL    HW143076   6.916  13.094   5.599
80434SOL    HW243077   6.860  13.127   5.736
80435SOL     OW43078   5.786  12.076  14.078
80435SOL    HW143079   5.854  12.144  14.078
80435SOL    HW243080   5.705  12.123  14.058
80436SOL     OW43081  11.595   5.985   0.800
80436SOL    HW143082  11.552   5.902   0.820
80436SOL    HW243083  11.608   6.027   0.886
80437SOL     OW43084   5.181   2.488   8.033
80437SOL    HW143085   5.113   2.555   8.035
80437SOL    HW243086   5.139   2.410   8.069
80438SOL     OW43087   6.456   4.607   2.499
80438SOL    HW143088   6.523   4.652   2.447
80438SOL    HW243089   6.393   4.675   2.521
80439SOL     OW43090  10.344   5.339   3.697
80439SOL    HW143091  10.299   5.363   3.616
80439SOL    HW243092  10.349   5.243   3.695
80440SOL     OW43093  12.964   8.065   6.694
80440SOL    HW143094  12.931   8.030   6.777
80440SOL    HW243095  13.009   8.146   6.719
80441SOL     OW43096   2.794   4.573   1.879
80441SOL    HW143097   2.778   4.487   1.918
80441SOL    HW243098   2.816   4.630   1.953
80442SOL     OW43099   1.244   6.182  12.541
80442SOL    HW143100   1.292   6.198  12.622
80442SOL    HW243101   1.152   6.196  12.563
80443SOL     OW43102  13.072  10.607  10.918
80443SOL    HW143103  13.150  10.566  10.955
80443SOL    HW243104  13.101  10.642  10.834
80444SOL     OW43105   0.449   0.334   4.753
80444SOL    HW143106   0.356   0.342   4.733
80444SOL    HW243107   0.460   0.385   4.833
80445SOL     OW43108  12.622  12.524  12.406
80445SOL    HW143109  12.663  12.571  12.478
80445SOL    HW243110  12.545  12.576  12.384
80446SOL     OW43111   8.950   4.998  12.300
80446SOL    HW143112   9.023   5.022  12.358
80446SOL    HW243113   8.947   5.069  12.235
80447SOL     OW43114   0.628   1.542   2.403
80447SOL    HW143115   0.647   1.623   2.450
80447SOL    HW243116   0.701   1.484   2.425
80448SOL     OW43117   7.748   6.549   1.294
80448SOL    HW143118   7.789   6.522   1.211
80448SOL    HW243119   7.798   6.502   1.361
80449SOL     OW43120   0.070  10.874   0.381
80449SOL    HW143121   0.091  10.965   0.401
80449SOL    HW243122   0.079  10.828   0.465
80450SOL     OW43123   1.714   7.733   9.729
80450SOL    HW143124   1.797   7.772   9.754
80450SOL    HW243125   1.695   7.770   9.642
80451SOL     OW43126   6.127   2.134   6.070
80451SOL    HW143127   6.137   2.189   6.147
80451SOL    HW243128   6.043   2.089   6.083
80452SOL     OW43129   4.673   5.534   8.569
80452SOL    HW143130   4.751   5.582   8.597
80452SOL    HW243131   4.668   5.550   8.474
80453SOL     OW43132  13.458   9.928   7.026
80453SOL    HW143133  13.415   9.843   7.040
80453SOL    HW243134  13.388   9.985   6.994
80454SOL     OW43135  14.500   4.237  11.481
80454SOL    HW143136  14.468   4.220  11.392
80454SOL    HW243137  14.421   4.237  11.535
80455SOL     OW43138  10.873   3.331  12.435
80455SOL    HW143139  10.877   3.298  12.345
80455SOL    HW243140  10.789   3.300  12.469
80456SOL     OW43141  14.740   3.398   9.629
80456SOL    HW143142  14.736   3.464   9.560
80456SOL    HW243143  14.656   3.408   9.675
80457SOL     OW43144  10.675  12.762   8.010
80457SOL    HW143145  10.664  12.678   7.966
80457SOL    HW243146  10.670  12.827   7.940
80458SOL     OW43147  12.072   4.995   2.340
80458SOL    HW143148  12.070   5.079   2.385
80458SOL    HW243149  12.159   4.960   2.357
80459SOL     OW43150  11.944   0.233   2.986
80459SOL    HW143151  11.972   0.200   2.901
80459SOL    HW243152  12.002   0.191   3.049
80460SOL     OW43153   5.558   9.273   8.719
80460SOL    HW143154   5.489   9.339   8.724
80460SOL    HW243155   5.516   9.193   8.751
80461SOL     OW43156  10.751  13.345  12.459
80461SOL    HW143157  10.820  13.287  12.492
80461SOL    HW243158  10.697  13.364  12.536
80462SOL     OW43159  10.782   9.669   3.491
80462SOL    HW143160  10.864   9.657   3.538
80462SOL    HW243161  10.765   9.763   3.496
80463SOL     OW43162   6.531   7.119   7.281
80463SOL    HW143163   6.547   7.211   7.301
80463SOL    HW243164   6.496   7.083   7.362
80464SOL     OW43165  13.052   4.293   3.991
80464SOL    HW143166  13.091   4.209   4.014
80464SOL    HW243167  13.014   4.324   4.073
80465SOL     OW43168   5.549   8.182   7.773
80465SOL    HW143169   5.528   8.206   7.863
80465SOL    HW243170   5.573   8.090   7.778
80466SOL     OW43171   0.970   2.438   2.272
80466SOL    HW143172   1.046   2.496   2.273
80466SOL    HW243173   0.970   2.397   2.359
80467SOL     OW43174   1.839   9.384   6.898
80467SOL    HW143175   1.888   9.306   6.871
80467SOL    HW243176   1.834   9.377   6.993
80468SOL     OW43177  10.644   1.909   3.016
80468SOL    HW143178  10.553   1.914   2.986
80468SOL    HW243179  10.637   1.889   3.110
80469SOL     OW43180   1.512  10.896   5.947
80469SOL    HW143181   1.518  10.991   5.958
80469SOL    HW243182   1.482  10.884   5.857
80470SOL     OW43183   1.382   7.159   4.502
80470SOL    HW143184   1.346   7.132   4.586
80470SOL    HW243185   1.323   7.121   4.437
80471SOL     OW43186   9.974   6.098   5.985
80471SOL    HW143187   9.942   6.125   6.071
80471SOL    HW243188  10.021   6.016   6.001
80472SOL     OW43189  13.817  12.183   1.305
80472SOL    HW143190  13.884  12.192   1.373
80472SOL    HW243191  13.741  12.230   1.341
80473SOL     OW43192  11.966   0.543  14.422
80473SOL    HW143193  11.918   0.497  14.354
80473SOL    HW243194  11.985   0.476  14.488
80474SOL     OW43195  13.316   0.444   2.941
80474SOL    HW143196  13.363   0.523   2.969
80474SOL    HW243197  13.262   0.473   2.868
80475SOL     OW43198  13.850   7.628   6.825
80475SOL    HW143199  13.826   7.679   6.902
80475SOL    HW243200  13.789   7.657   6.757
80476SOL     OW43201   3.209   2.079  10.336
80476SOL    HW143202   3.166   2.111  10.415
80476SOL    HW243203   3.254   2.155  10.300
80477SOL     OW43204  14.833   9.497   4.216
80477SOL    HW143205  14.772   9.565   4.189
80477SOL    HW243206   0.041   9.540   4.217
80478SOL     OW43207   3.487   5.120   0.847
80478SOL    HW143208   3.459   5.175   0.919
80478SOL    HW243209   3.582   5.116   0.855
80479SOL     OW43210   6.708   4.686  10.044
80479SOL    HW143211   6.803   4.692  10.037
80479SOL    HW243212   6.689   4.715  10.134
80480SOL     OW43213   9.878   3.346  12.560
80480SOL    HW143214   9.883   3.280  12.490
80480SOL    HW243215   9.866   3.429  12.514
80481SOL     OW43216   0.151  14.159   1.189
80481SOL    HW143217   0.233  14.186   1.148
80481SOL    HW243218   0.093  14.137   1.115
80482SOL     OW43219   9.416   3.053   9.162
80482SOL    HW143220   9.367   3.116   9.108
80482SOL    HW243221   9.377   2.968   9.141
80483SOL     OW43222   9.748  13.362  10.828
80483SOL    HW143223   9.653  13.353  10.827
80483SOL    HW243224   9.764  13.456  10.823
80484SOL     OW43225   6.240   0.284   9.894
80484SOL    HW143226   6.334   0.275   9.912
80484SOL    HW243227   6.214   0.198   9.864
80485SOL     OW43228   3.433   8.825   3.790
80485SOL    HW143229   3.380   8.902   3.771
80485SOL    HW243230   3.418   8.767   3.715
80486SOL     OW43231   2.993   5.119  13.904
80486SOL    HW143232   2.979   5.110  13.998
80486SOL    HW243233   2.978   5.031  13.869
80487SOL     OW43234  11.947   2.200  11.259
80487SOL    HW143235  11.952   2.105  11.255
80487SOL    HW243236  11.997   2.230  11.183
80488SOL     OW43237   8.217   8.659   2.850
80488SOL    HW143238   8.218   8.573   2.894
80488SOL    HW243239   8.308   8.688   2.854
80489SOL     OW43240  13.849   4.662  11.508
80489SOL    HW143241  13.831   4.699  11.594
80489SOL    HW243242  13.903   4.728  11.465
80490SOL     OW43243   8.706   9.563   4.122
80490SOL    HW143244   8.682   9.601   4.206
80490SOL    HW243245   8.781   9.507   4.141
80491SOL     OW43246   9.303  12.464   5.344
80491SOL    HW143247   9.260  12.549   5.337
80491SOL    HW243248   9.385  12.475   5.295
80492SOL     OW43249   0.543  12.357   2.622
80492SOL    HW143250   0.538  12.445   2.661
80492SOL    HW243251   0.555  12.373   2.529
80493SOL     OW43252   1.227   4.995  10.105
80493SOL    HW143253   1.250   4.965  10.017
80493SOL    HW243254   1.150   5.051  10.092
80494SOL     OW43255   0.160  11.893   2.611
80494SOL    HW143256   0.071  11.864   2.628
80494SOL    HW243257   0.161  11.985   2.636
80495SOL     OW43258   4.987  13.631  13.401
80495SOL    HW143259   5.047  13.705  13.404
80495SOL    HW243260   5.043  13.555  13.387
80496SOL     OW43261   1.590   4.209   8.137
80496SOL    HW143262   1.676   4.238   8.105
80496SOL    HW243263   1.532   4.283   8.121
80497SOL     OW43264   3.512   7.058   1.497
80497SOL    HW143265   3.470   6.986   1.450
80497SOL    HW243266   3.484   7.046   1.588
80498SOL     OW43267   0.077   3.453   9.355
80498SOL    HW143268   0.096   3.523   9.293
80498SOL    HW243269   0.011   3.489   9.413
80499SOL     OW43270   0.100   7.837  10.759
80499SOL    HW143271   0.192   7.859  10.742
80499SOL    HW243272   0.052   7.874  10.686
80500SOL     OW43273   1.181   5.690   1.964
80500SOL    HW143274   1.180   5.605   1.919
80500SOL    HW243275   1.273   5.716   1.963
80501SOL     OW43276   3.429   4.889  11.421
80501SOL    HW143277   3.347   4.870  11.375
80501SOL    HW243278   3.409   4.964  11.477
80502SOL     OW43279   1.725  10.418   2.422
80502SOL    HW143280   1.654  10.464   2.466
80502SOL    HW243281   1.683  10.369   2.352
80503SOL     OW43282   4.557   8.521   9.569
80503SOL    HW143283   4.642   8.559   9.548
80503SOL    HW243284   4.535   8.468   9.492
80504SOL     OW43285   3.050   3.173   4.981
80504SOL    HW143286   3.091   3.153   4.897
80504SOL    HW243287   3.119   3.214   5.032
80505SOL     OW43288   2.641  10.641   4.597
80505SOL    HW143289   2.603  10.671   4.514
80505SOL    HW243290   2.693  10.565   4.573
80506SOL     OW43291   8.353  14.531  14.766
80506SOL    HW143292   8.278  14.474  14.751
80506SOL    HW243293   8.351  14.550  14.859
80507SOL     OW43294  12.458   8.750  11.823
80507SOL    HW143295  12.487   8.659  11.823
80507SOL    HW243296  12.455   8.774  11.730
80508SOL     OW43297   5.250   3.034   1.926
80508SOL    HW143298   5.341   3.025   1.899
80508SOL    HW243299   5.214   2.945   1.921
80509SOL     OW43300   2.335  13.235   6.144
80509SOL    HW143301   2.401  13.264   6.082
80509SOL    HW243302   2.358  13.281   6.226
80510SOL     OW43303  14.348  13.146   0.897
80510SOL    HW143304  14.308  13.130   0.982
80510SOL    HW243305  14.318  13.074   0.842
80511SOL     OW43306   2.091  14.010   8.793
80511SOL    HW143307   2.168  13.955   8.779
80511SOL    HW243308   2.031  13.956   8.843
80512SOL     OW43309   6.810  10.306   4.823
80512SOL    HW143310   6.736  10.361   4.846
80512SOL    HW243311   6.777  10.251   4.752
80513SOL     OW43312   7.646  12.739   5.474
80513SOL    HW143313   7.706  12.707   5.407
80513SOL    HW243314   7.633  12.664   5.533
80514SOL     OW43315  14.816   2.488   3.139
80514SOL    HW143316  14.771   2.473   3.222
80514SOL    HW243317  14.849   2.578   3.145
80515SOL     OW43318  10.978   2.782   0.038
80515SOL    HW143319  10.994   2.742  14.830
80515SOL    HW243320  10.898   2.833   0.026
80516SOL     OW43321   1.404   3.971   8.881
80516SOL    HW143322   1.309   3.965   8.884
80516SOL    HW243323   1.429   4.010   8.965
80517SOL     OW43324   7.996  10.163   7.826
80517SOL    HW143325   8.050  10.201   7.896
80517SOL    HW243326   7.908  10.197   7.842
80518SOL     OW43327   0.110   3.936  10.019
80518SOL    HW143328   0.066   3.913   9.937
80518SOL    HW243329   0.172   4.004   9.994
80519SOL     OW43330   6.209  10.220   7.016
80519SOL    HW143331   6.274  10.254   7.077
80519SOL    HW243332   6.257  10.155   6.964
80520SOL     OW43333   3.779   3.038   8.136
80520SOL    HW143334   3.836   2.966   8.110
80520SOL    HW243335   3.838   3.102   8.177
80521SOL     OW43336  11.746   0.918  12.112
80521SOL    HW143337  11.818   0.980  12.097
80521SOL    HW243338  11.671   0.973  12.134
80522SOL     OW43339   5.664  10.363   7.856
80522SOL    HW143340   5.607  10.431   7.818
80522SOL    HW243341   5.751  10.403   7.857
80523SOL     OW43342  14.148  11.817   3.781
80523SOL    HW143343  14.234  11.839   3.744
80523SOL    HW243344  14.107  11.902   3.797
80524SOL     OW43345  13.431  10.142   8.566
80524SOL    HW143346  13.510  10.161   8.515
80524SOL    HW243347  13.388  10.071   8.519
80525SOL     OW43348  11.269   8.064   6.689
80525SOL    HW143349  11.202   8.095   6.628
80525SOL    HW243350  11.294   7.978   6.655
80526SOL     OW43351   4.175  13.923  14.288
80526SOL    HW143352   4.230  13.848  14.314
80526SOL    HW243353   4.129  13.948  14.369
80527SOL     OW43354  13.369  14.417  12.961
80527SOL    HW143355  13.405  14.439  13.047
80527SOL    HW243356  13.409  14.480  12.901
80528SOL     OW43357   0.194   0.705   9.234
80528SOL    HW143358   0.275   0.700   9.286
80528SOL    HW243359   0.171   0.613   9.217
80529SOL     OW43360   6.012   6.455   4.407
80529SOL    HW143361   5.980   6.368   4.386
80529SOL    HW243362   6.041   6.491   4.323
80530SOL     OW43363  13.325   8.299   2.025
80530SOL    HW143364  13.230   8.283   2.028
80530SOL    HW243365  13.360   8.227   1.974
80531SOL     OW43366   3.929   3.022  11.554
80531SOL    HW143367   3.851   2.967  11.559
80531SOL    HW243368   3.905   3.094  11.495
80532SOL     OW43369   6.877   2.432  10.574
80532SOL    HW143370   6.800   2.381  10.597
80532SOL    HW243371   6.855   2.473  10.490
80533SOL     OW43372   6.819   2.162  12.937
80533SOL    HW143373   6.826   2.239  12.994
80533SOL    HW243374   6.732   2.127  12.955
80534SOL     OW43375   4.956  10.073   8.072
80534SOL    HW143376   4.987  10.163   8.062
80534SOL    HW243377   4.867  10.074   8.039
80535SOL     OW43378   3.015   9.909   3.920
80535SOL    HW143379   3.095   9.864   3.893
80535SOL    HW243380   2.949   9.840   3.922
80536SOL     OW43381   8.448   9.294   0.102
80536SOL    HW143382   8.533   9.332   0.077
80536SOL    HW243383   8.470   9.212   0.146
80537SOL     OW43384   1.204  10.660   3.177
80537SOL    HW143385   1.267  10.600   3.138
80537SOL    HW243386   1.257  10.735   3.205
80538SOL     OW43387   9.581  14.865   6.051
80538SOL    HW143388   9.623  14.797   6.103
80538SOL    HW243389   9.652   0.049   6.030
80539SOL     OW43390   2.366   6.956   1.608
80539SOL    HW143391   2.342   6.873   1.566
80539SOL    HW243392   2.371   7.019   1.536
80540SOL     OW43393   2.795  11.377   9.339
80540SOL    HW143394   2.778  11.456   9.389
80540SOL    HW243395   2.723  11.371   9.277
80541SOL     OW43396   1.422   4.649   9.476
80541SOL    HW143397   1.338   4.665   9.433
80541SOL    HW243398   1.480   4.620   9.406
80542SOL     OW43399   1.752   1.451   9.777
80542SOL    HW143400   1.741   1.366   9.735
80542SOL    HW243401   1.677   1.458   9.836
80543SOL     OW43402   9.448   8.548   7.242
80543SOL    HW143403   9.417   8.633   7.274
80543SOL    HW243404   9.486   8.567   7.156
80544SOL     OW43405  11.114   3.691   0.925
80544SOL    HW143406  11.200   3.723   0.954
80544SOL    HW243407  11.069   3.769   0.895
80545SOL     OW43408   9.468  10.141  13.710
80545SOL    HW143409   9.385  10.163  13.667
80545SOL    HW243410   9.527  10.120  13.637
80546SOL     OW43411   2.143   7.299  11.442
80546SOL    HW143412   2.209   7.233  11.423
80546SOL    HW243413   2.060   7.253  11.433
80547SOL     OW43414   6.808   8.841  13.276
80547SOL    HW143415   6.735   8.789  13.242
80547SOL    HW243416   6.857   8.781  13.332
80548SOL     OW43417   1.955   3.920  10.281
80548SOL    HW143418   2.014   3.918  10.206
80548SOL    HW243419   1.991   3.987  10.339
80549SOL     OW43420   0.108   1.213  13.758
80549SOL    HW143421   0.060   1.137  13.723
80549SOL    HW243422   0.179   1.175  13.809
80550SOL     OW43423  11.195   5.701   2.043
80550SOL    HW143424  11.127   5.761   2.073
80550SOL    HW243425  11.277   5.742   2.071
80551SOL     OW43426   0.728   5.268   2.490
80551SOL    HW143427   0.704   5.184   2.528
80551SOL    HW243428   0.656   5.290   2.432
80552SOL     OW43429   4.932   1.724   7.189
80552SOL    HW143430   4.863   1.673   7.230
80552SOL    HW243431   4.984   1.757   7.262
80553SOL     OW43432   6.057  11.398   9.717
80553SOL    HW143433   5.971  11.437   9.729
80553SOL    HW243434   6.040  11.315   9.672
80554SOL     OW43435   9.578   8.374   6.636
80554SOL    HW143436   9.602   8.427   6.560
80554SOL    HW243437   9.634   8.407   6.706
80555SOL     OW43438   5.423  14.530   0.786
80555SOL    HW143439   5.439  14.447   0.741
80555SOL    HW243440   5.451  14.597   0.724
80556SOL     OW43441   3.996   6.088   4.318
80556SOL    HW143442   4.038   6.131   4.393
80556SOL    HW243443   3.915   6.052   4.353
80557SOL     OW43444  11.578   5.200  12.735
80557SOL    HW143445  11.648   5.264  12.722
80557SOL    HW243446  11.508   5.228  12.676
80558SOL     OW43447  13.826   9.390   0.324
80558SOL    HW143448  13.827   9.342   0.407
80558SOL    HW243449  13.871   9.333   0.262
80559SOL     OW43450   9.054   9.575  13.494
80559SOL    HW143451   9.055   9.480  13.507
80559SOL    HW243452   9.082   9.611  13.579
80560SOL     OW43453   1.850  10.045   7.846
80560SOL    HW143454   1.843  10.113   7.913
80560SOL    HW243455   1.784  10.070   7.781
80561SOL     OW43456   6.559   0.326   1.461
80561SOL    HW143457   6.621   0.384   1.416
80561SOL    HW243458   6.569   0.348   1.554
80562SOL     OW43459  12.091   4.917  14.858
80562SOL    HW143460  12.057   4.976   0.048
80562SOL    HW243461  12.160   4.868   0.025
80563SOL     OW43462   6.225   8.430   8.179
80563SOL    HW143463   6.272   8.508   8.208
80563SOL    HW243464   6.132   8.454   8.185
80564SOL     OW43465   2.832  13.969   9.756
80564SOL    HW143466   2.744  13.983   9.789
80564SOL    HW243467   2.824  13.975   9.661
80565SOL     OW43468   6.186  13.101   0.794
80565SOL    HW143469   6.118  13.081   0.858
80565SOL    HW243470   6.176  13.035   0.726
80566SOL     OW43471  10.504  12.792   8.806
80566SOL    HW143472  10.525  12.725   8.871
80566SOL    HW243473  10.590  12.823   8.775
80567SOL     OW43474   1.334   1.773   0.759
80567SOL    HW143475   1.396   1.728   0.703
80567SOL    HW243476   1.388   1.811   0.829
80568SOL     OW43477   3.099   8.220   5.351
80568SOL    HW143478   3.028   8.253   5.407
80568SOL    HW243479   3.164   8.290   5.352
80569SOL     OW43480  14.874  11.645  10.264
80569SOL    HW143481  14.798  11.598  10.230
80569SOL    HW243482   0.030  11.694  10.188
80570SOL     OW43483   4.192   4.479  13.669
80570SOL    HW143484   4.187   4.567  13.708
80570SOL    HW243485   4.119   4.431  13.707
80571SOL     OW43486  11.132  11.207  11.767
80571SOL    HW143487  11.146  11.302  11.770
80571SOL    HW243488  11.179  11.174  11.844
80572SOL     OW43489   7.023   0.400   0.953
80572SOL    HW143490   7.055   0.314   0.980
80572SOL    HW243491   6.953   0.420   1.016
80573SOL     OW43492  14.247   3.144   1.309
80573SOL    HW143493  14.302   3.093   1.369
80573SOL    HW243494  14.244   3.090   1.230
80574SOL     OW43495   8.338   1.340   1.949
80574SOL    HW143496   8.417   1.392   1.931
80574SOL    HW243497   8.331   1.280   1.875
80575SOL     OW43498  12.756   7.431   3.849
80575SOL    HW143499  12.770   7.429   3.755
80575SOL    HW243500  12.685   7.369   3.864
80576SOL     OW43501   0.598  13.185   2.378
80576SOL    HW143502   0.641  13.126   2.440
80576SOL    HW243503   0.557  13.252   2.433
80577SOL     OW43504  12.869  12.540   6.342
80577SOL    HW143505  12.937  12.473   6.345
80577SOL    HW243506  12.897  12.606   6.406
80578SOL     OW43507   8.996   9.338  11.816
80578SOL    HW143508   8.996   9.260  11.871
80578SOL    HW243509   9.022   9.409  11.875
80579SOL     OW43510  10.566   2.618   0.578
80579SOL    HW143511  10.655   2.583   0.586
80579SOL    HW243512  10.570   2.703   0.621
80580SOL     OW43513   3.437   8.982   1.054
80580SOL    HW143514   3.472   8.944   0.974
80580SOL    HW243515   3.364   9.037   1.025
80581SOL     OW43516   5.890  13.495   3.210
80581SOL    HW143517   5.863  13.465   3.297
80581SOL    HW243518   5.984  13.477   3.206
80582SOL     OW43519   9.105   3.866   7.873
80582SOL    HW143520   9.062   3.848   7.789
80582SOL    HW243521   9.181   3.920   7.849
80583SOL     OW43522  10.854   3.361   5.318
80583SOL    HW143523  10.912   3.324   5.251
80583SOL    HW243524  10.894   3.338   5.401
80584SOL     OW43525   5.158   7.840  10.239
80584SOL    HW143526   5.164   7.782  10.315
80584SOL    HW243527   5.249   7.849  10.209
80585SOL     OW43528   1.433  11.653   7.082
80585SOL    HW143529   1.500  11.711   7.118
80585SOL    HW243530   1.401  11.699   7.004
80586SOL     OW43531  12.714   6.975   9.730
80586SOL    HW143532  12.708   6.889   9.688
80586SOL    HW243533  12.808   6.995   9.730
80587SOL     OW43534  13.423   5.112  13.282
80587SOL    HW143535  13.407   5.132  13.374
80587SOL    HW243536  13.491   5.175  13.256
80588SOL     OW43537  10.091  13.741   0.091
80588SOL    HW143538  10.063  13.654   0.061
80588SOL    HW243539  10.048  13.752   0.176
80589SOL     OW43540  14.120   0.152  10.075
80589SOL    HW143541  14.146   0.082  10.135
80589SOL    HW243542  14.090   0.107   9.997
80590SOL     OW43543   9.990  14.065   6.302
80590SOL    HW143544  10.017  13.985   6.347
80590SOL    HW243545   9.959  14.035   6.216
80591SOL     OW43546   2.995   8.706   2.699
80591SOL    HW143547   2.923   8.713   2.762
80591SOL    HW243548   3.014   8.796   2.674
80592SOL     OW43549   2.318   0.170   7.784
80592SOL    HW143550   2.269   0.251   7.793
80592SOL    HW243551   2.295   0.119   7.862
80593SOL     OW43552   0.843   9.542   7.301
80593SOL    HW143553   0.813   9.467   7.249
80593SOL    HW243554   0.855   9.507   7.389
80594SOL     OW43555  11.480   7.185  11.218
80594SOL    HW143556  11.523   7.140  11.290
80594SOL    HW243557  11.545   7.188  11.148
80595SOL     OW43558  11.115  11.390   9.570
80595SOL    HW143559  11.171  11.350   9.636
80595SOL    HW243560  11.154  11.362   9.486
80596SOL     OW43561   8.952   6.647  12.140
80596SOL    HW143562   8.962   6.652  12.235
80596SOL    HW243563   8.935   6.554  12.122
80597SOL     OW43564   3.099  12.413   7.874
80597SOL    HW143565   3.072  12.448   7.790
80597SOL    HW243566   3.029  12.437   7.934
80598SOL     OW43567   0.863   4.061   3.479
80598SOL    HW143568   0.955   4.037   3.465
80598SOL    HW243569   0.838   4.107   3.398
80599SOL     OW43570   1.686   7.077  11.999
80599SOL    HW143571   1.698   7.003  11.940
80599SOL    HW243572   1.710   7.043  12.085
80600SOL     OW43573  13.555  11.831   5.648
80600SOL    HW143574  13.564  11.885   5.726
80600SOL    HW243575  13.611  11.872   5.583
80601SOL     OW43576   4.672  11.253  12.944
80601SOL    HW143577   4.677  11.210  13.029
80601SOL    HW243578   4.610  11.200  12.893
80602SOL     OW43579   3.186   3.397  10.909
80602SOL    HW143580   3.176   3.348  10.828
80602SOL    HW243581   3.272   3.371  10.943
80603SOL     OW43582  11.227   4.378  14.023
80603SOL    HW143583  11.225   4.284  14.041
80603SOL    HW243584  11.134   4.403  14.016
80604SOL     OW43585  12.469   7.636   8.670
80604SOL    HW143586  12.419   7.569   8.717
80604SOL    HW243587  12.434   7.633   8.581
80605SOL     OW43588  10.150   3.482   8.432
80605SOL    HW143589  10.073   3.463   8.486
80605SOL    HW243590  10.128   3.563   8.386
80606SOL     OW43591   9.625   7.090  14.713
80606SOL    HW143592   9.541   7.052  14.739
80606SOL    HW243593   9.667   7.021  14.661
80607SOL     OW43594   6.249   0.605  10.174
80607SOL    HW143595   6.307   0.553  10.119
80607SOL    HW243596   6.230   0.683  10.121
80608SOL     OW43597  12.741   1.361   3.023
80608SOL    HW143598  12.775   1.272   3.034
80608SOL    HW243599  12.673   1.352   2.956
80609SOL     OW43600   7.809   9.106   0.317
80609SOL    HW143601   7.904   9.092   0.322
80609SOL    HW243602   7.775   9.027   0.275
80610SOL     OW43603   0.699   1.771   2.545
80610SOL    HW143604   0.625   1.827   2.524
80610SOL    HW243605   0.774   1.812   2.502
80611SOL     OW43606   3.132   1.413  12.189
80611SOL    HW143607   3.202   1.383  12.247
80611SOL    HW243608   3.153   1.504  12.170
80612SOL     OW43609  11.795   7.250   6.302
80612SOL    HW143610  11.742   7.299   6.239
80612SOL    HW243611  11.877   7.232   6.255
80613SOL     OW43612  14.266  10.164  13.563
80613SOL    HW143613  14.359  10.182  13.578
80613SOL    HW243614  14.265  10.080  13.518
80614SOL     OW43615   6.672   2.976  11.873
80614SOL    HW143616   6.662   2.986  11.967
80614SOL    HW243617   6.602   3.030  11.836
80615SOL     OW43618   8.304   9.405   2.132
80615SOL    HW143619   8.259   9.337   2.082
80615SOL    HW243620   8.234   9.456   2.172
80616SOL     OW43621  14.612  11.698  12.925
80616SOL    HW143622  14.689  11.687  12.870
80616SOL    HW243623  14.548  11.741  12.869
80617SOL     OW43624   5.034  11.690  12.649
80617SOL    HW143625   5.052  11.693  12.743
80617SOL    HW243626   4.951  11.643  12.642
80618SOL     OW43627   7.325  10.029  14.435
80618SOL    HW143628   7.349  10.087  14.363
80618SOL    HW243629   7.231  10.039  14.445
80619SOL     OW43630   0.161   3.714   5.427
80619SOL    HW143631   0.085   3.772   5.435
80619SOL    HW243632   0.143   3.661   5.350
80620SOL     OW43633   3.547   2.335   5.502
80620SOL    HW143634   3.568   2.308   5.592
80620SOL    HW243635   3.616   2.295   5.449
80621SOL     OW43636  12.882   3.043   8.168
80621SOL    HW143637  12.882   3.138   8.159
80621SOL    HW243638  12.944   3.025   8.238
80622SOL     OW43639   7.612   3.281   0.686
80622SOL    HW143640   7.661   3.290   0.768
80622SOL    HW243641   7.524   3.310   0.708
80623SOL     OW43642   8.147   6.550   3.441
80623SOL    HW143643   8.141   6.640   3.472
80623SOL    HW243644   8.120   6.497   3.516
80624SOL     OW43645   7.068  10.249   0.750
80624SOL    HW143646   7.036  10.159   0.737
80624SOL    HW243647   7.091  10.252   0.843
80625SOL     OW43648   4.604   6.471  10.915
80625SOL    HW143649   4.519   6.511  10.901
80625SOL    HW243650   4.610   6.461  11.010
80626SOL     OW43651   1.736   1.560   7.536
80626SOL    HW143652   1.805   1.558   7.603
80626SOL    HW243653   1.762   1.494   7.473
80627SOL     OW43654   3.713   3.481  11.178
80627SOL    HW143655   3.714   3.576  11.194
80627SOL    HW243656   3.742   3.472  11.088
80628SOL     OW43657   5.534  12.543   1.191
80628SOL    HW143658   5.522  12.599   1.268
80628SOL    HW243659   5.525  12.603   1.117
80629SOL     OW43660   8.156   0.730   2.764
80629SOL    HW143661   8.199   0.814   2.744
80629SOL    HW243662   8.066   0.742   2.734
80630SOL     OW43663  14.593   4.145   8.914
80630SOL    HW143664  14.622   4.123   9.003
80630SOL    HW243665  14.581   4.240   8.915
80631SOL     OW43666  14.859   3.449   3.233
80631SOL    HW143667   0.056   3.490   3.189
80631SOL    HW243668  14.865   3.480   3.324
80632SOL     OW43669   9.008   4.352   0.043
80632SOL    HW143670   8.970   4.320   0.125
80632SOL    HW243671   8.985   4.285  14.856
80633SOL     OW43672   9.257  12.456  12.537
80633SOL    HW143673   9.321  12.394  12.573
80633SOL    HW243674   9.251  12.433  12.444
80634SOL     OW43675   5.176   7.523   1.422
80634SOL    HW143676   5.141   7.484   1.501
80634SOL    HW243677   5.109   7.585   1.393
80635SOL     OW43678  14.005  13.911   7.150
80635SOL    HW143679  14.067  13.983   7.164
80635SOL    HW243680  14.030  13.875   7.065
80636SOL     OW43681   9.891   9.253   6.137
80636SOL    HW143682   9.917   9.161   6.142
80636SOL    HW243683   9.838   9.259   6.058
80637SOL     OW43684  14.756   8.649   1.780
80637SOL    HW143685  14.662   8.629   1.776
80637SOL    HW243686  14.790   8.620   1.695
80638SOL     OW43687   6.861   1.684   3.282
80638SOL    HW143688   6.911   1.638   3.350
80638SOL    HW243689   6.841   1.616   3.217
80639SOL     OW43690   8.174   1.341   3.166
80639SOL    HW143691   8.247   1.371   3.112
80639SOL    HW243692   8.213   1.277   3.225
80640SOL     OW43693   0.252   8.040   6.620
80640SOL    HW143694   0.279   7.951   6.599
80640SOL    HW243695   0.217   8.074   6.538
80641SOL     OW43696   9.589  14.205   5.765
80641SOL    HW143697   9.647  14.257   5.709
80641SOL    HW243698   9.618  14.224   5.854
80642SOL     OW43699   8.232  13.382  11.613
80642SOL    HW143700   8.150  13.430  11.622
80642SOL    HW243701   8.281  13.402  11.693
80643SOL     OW43702   9.724   4.206   8.993
80643SOL    HW143703   9.782   4.189   9.068
80643SOL    HW243704   9.681   4.289   9.015
80644SOL     OW43705  14.289   1.123  14.767
80644SOL    HW143706  14.246   1.199  14.806
80644SOL    HW243707  14.296   1.060  14.839
80645SOL     OW43708   3.810   7.943  13.291
80645SOL    HW143709   3.738   7.981  13.342
80645SOL    HW243710   3.804   7.849  13.307
80646SOL     OW43711   8.728  13.035   8.324
80646SOL    HW143712   8.660  12.967   8.324
80646SOL    HW243713   8.773  13.024   8.241
80647SOL     OW43714   9.655   7.844   6.182
80647SOL    HW143715   9.698   7.921   6.142
80647SOL    HW243716   9.694   7.769   6.137
80648SOL     OW43717  14.390   0.810  12.080
80648SOL    HW143718  14.305   0.800  12.037
80648SOL    HW243719  14.412   0.723  12.111
80649SOL     OW43720   2.005   5.127   0.163
80649SOL    HW143721   1.936   5.066   0.189
80649SOL    HW243722   2.086   5.085   0.191
80650SOL     OW43723   2.447  10.788  10.082
80650SOL    HW143724   2.419  10.715  10.137
80650SOL    HW243725   2.422  10.763   9.994
80651SOL     OW43726   6.876   1.852   3.874
80651SOL    HW143727   6.955   1.869   3.823
80651SOL    HW243728   6.841   1.938   3.895
80652SOL     OW43729   1.854   9.821   7.428
80652SOL    HW143730   1.916   9.768   7.478
80652SOL    HW243731   1.899   9.839   7.345
80653SOL     OW43732   7.861   3.653   0.113
80653SOL    HW143733   7.919   3.654   0.037
80653SOL    HW243734   7.893   3.725   0.168
80654SOL     OW43735  14.622   6.909   9.875
80654SOL    HW143736  14.630   6.890   9.781
80654SOL    HW243737  14.542   6.961   9.882
80655SOL     OW43738   1.285   8.557   5.759
80655SOL    HW143739   1.243   8.494   5.818
80655SOL    HW243740   1.343   8.608   5.816
80656SOL     OW43741   9.185  14.619   4.163
80656SOL    HW143742   9.169  14.604   4.256
80656SOL    HW243743   9.234  14.701   4.160
80657SOL     OW43744   7.227   6.433   9.919
80657SOL    HW143745   7.171   6.509   9.908
80657SOL    HW243746   7.181   6.362   9.873
80658SOL     OW43747   9.308   3.645   2.674
80658SOL    HW143748   9.251   3.581   2.632
80658SOL    HW243749   9.372   3.594   2.722
80659SOL     OW43750   6.513   0.363   1.751
80659SOL    HW143751   6.552   0.395   1.832
80659SOL    HW243752   6.458   0.289   1.778
80660SOL     OW43753   4.459   8.715  12.437
80660SOL    HW143754   4.370   8.684  12.419
80660SOL    HW243755   4.514   8.673  12.371
80661SOL     OW43756   9.742   9.402   1.701
80661SOL    HW143757   9.650   9.424   1.685
80661SOL    HW243758   9.755   9.417   1.794
80662SOL     OW43759   6.117   8.259   4.794
80662SOL    HW143760   6.151   8.232   4.880
80662SOL    HW243761   6.023   8.238   4.799
80663SOL     OW43762   2.398   1.159  10.415
80663SOL    HW143763   2.358   1.137  10.331
80663SOL    HW243764   2.436   1.246  10.402
80664SOL     OW43765   4.540   7.059   0.746
80664SOL    HW143766   4.545   7.027   0.836
80664SOL    HW243767   4.535   7.154   0.756
80665SOL     OW43768   9.517  12.054   2.044
80665SOL    HW143769   9.462  11.985   2.083
80665SOL    HW243770   9.604  12.038   2.081
80666SOL     OW43771  13.836   2.064   5.168
80666SOL    HW143772  13.819   2.088   5.077
80666SOL    HW243773  13.758   2.017   5.196
80667SOL     OW43774   2.635  12.286   2.583
80667SOL    HW143775   2.635  12.296   2.487
80667SOL    HW243776   2.713  12.233   2.601
80668SOL     OW43777   0.316   6.129   3.600
80668SOL    HW143778   0.333   6.188   3.526
80668SOL    HW243779   0.392   6.071   3.603
80669SOL     OW43780   9.330   4.260  11.434
80669SOL    HW143781   9.238   4.235  11.445
80669SOL    HW243782   9.366   4.257  11.523
80670SOL     OW43783  13.052   9.158  13.140
80670SOL    HW143784  13.126   9.170  13.081
80670SOL    HW243785  12.990   9.106  13.089
80671SOL     OW43786   3.895  14.346   6.669
80671SOL    HW143787   3.990  14.338   6.666
80671SOL    HW243788   3.878  14.440   6.677
80672SOL     OW43789   7.366   4.991   3.868
80672SOL    HW143790   7.446   4.988   3.815
80672SOL    HW243791   7.396   4.975   3.958
80673SOL     OW43792  10.750   2.304   7.938
80673SOL    HW143793  10.758   2.397   7.917
80673SOL    HW243794  10.784   2.259   7.860
80674SOL     OW43795   4.559  12.770   9.213
80674SOL    HW143796   4.572  12.677   9.197
80674SOL    HW243797   4.508  12.774   9.293
80675SOL     OW43798   5.117  10.815  12.438
80675SOL    HW143799   5.186  10.795  12.375
80675SOL    HW243800   5.147  10.894  12.483
80676SOL     OW43801  14.588   6.746  13.468
80676SOL    HW143802  14.600   6.657  13.434
80676SOL    HW243803  14.652   6.754  13.538
80677SOL     OW43804   1.193   1.758   3.927
80677SOL    HW143805   1.201   1.663   3.912
80677SOL    HW243806   1.276   1.794   3.897
80678SOL     OW43807  10.660   9.197   3.190
80678SOL    HW143808  10.728   9.251   3.231
80678SOL    HW243809  10.586   9.202   3.250
80679SOL     OW43810  12.745   1.564   7.356
80679SOL    HW143811  12.653   1.555   7.382
80679SOL    HW243812  12.780   1.630   7.416
80680SOL     OW43813   8.394   3.014   1.857
80680SOL    HW143814   8.425   2.930   1.821
80680SOL    HW243815   8.423   3.079   1.794
80681SOL     OW43816   7.373  12.620   3.995
80681SOL    HW143817   7.372  12.715   3.980
80681SOL    HW243818   7.401  12.611   4.086
80682SOL     OW43819   7.661  14.684   4.000
80682SOL    HW143820   7.628  14.771   4.023
80682SOL    HW243821   7.593  14.623   4.029
80683SOL     OW43822   2.415  12.075  10.620
80683SOL    HW143823   2.397  11.981  10.624
80683SOL    HW243824   2.457  12.088  10.534
80684SOL     OW43825   4.804   7.050  11.903
80684SOL    HW143826   4.881   7.023  11.953
80684SOL    HW243827   4.760   6.969  11.881
80685SOL     OW43828   3.543   0.501   5.916
80685SOL    HW143829   3.623   0.522   5.868
80685SOL    HW243830   3.475   0.552   5.873
80686SOL     OW43831   9.199   5.106   8.011
80686SOL    HW143832   9.180   5.144   7.926
80686SOL    HW243833   9.135   5.147   8.070
80687SOL     OW43834   6.103   7.067   4.669
80687SOL    HW143835   6.050   7.056   4.748
80687SOL    HW243836   6.193   7.066   4.700
80688SOL     OW43837  10.024  13.885  12.618
80688SOL    HW143838  10.109  13.912  12.584
80688SOL    HW243839  10.013  13.936  12.698
80689SOL     OW43840  10.840  12.898  12.192
80689SOL    HW143841  10.766  12.932  12.243
80689SOL    HW243842  10.896  12.855  12.255
80690SOL     OW43843  14.252   6.390   1.722
80690SOL    HW143844  14.294   6.338   1.791
80690SOL    HW243845  14.258   6.334   1.644
80691SOL     OW43846   5.171   0.425  13.988
80691SOL    HW143847   5.192   0.370  14.063
80691SOL    HW243848   5.102   0.376  13.942
80692SOL     OW43849  11.618   6.137   1.063
80692SOL    HW143850  11.523   6.128   1.049
80692SOL    HW243851  11.630   6.127   1.157
80693SOL     OW43852   4.454  11.732   0.961
80693SOL    HW143853   4.488  11.647   0.933
80693SOL    HW243854   4.492  11.795   0.899
80694SOL     OW43855   8.850  10.987   7.528
80694SOL    HW143856   8.943  10.975   7.549
80694SOL    HW243857   8.809  11.014   7.610
80695SOL     OW43858  11.854  12.673  13.756
80695SOL    HW143859  11.896  12.739  13.812
80695SOL    HW243860  11.844  12.597  13.813
80696SOL     OW43861   7.104   0.271   5.004
80696SOL    HW143862   7.029   0.324   4.978
80696SOL    HW243863   7.178   0.310   4.957
80697SOL     OW43864   3.982   5.284   0.172
80697SOL    HW143865   3.896   5.291   0.214
80697SOL    HW243866   3.975   5.207   0.116
80698SOL     OW43867   1.611   9.292   2.716
80698SOL    HW143868   1.569   9.248   2.642
80698SOL    HW243869   1.557   9.369   2.733
80699SOL     OW43870   6.653   6.684   0.169
80699SOL    HW143871   6.593   6.748   0.130
80699SOL    HW243872   6.740   6.719   0.150
80700SOL     OW43873  14.581   8.124  11.560
80700SOL    HW143874  14.655   8.161  11.511
80700SOL    HW243875  14.520   8.197  11.569
80701SOL     OW43876   4.122   8.447   9.305
80701SOL    HW143877   4.204   8.400   9.321
80701SOL    HW243878   4.149   8.526   9.258
80702SOL     OW43879   5.811   3.454   0.881
80702SOL    HW143880   5.905   3.439   0.883
80702SOL    HW243881   5.785   3.430   0.792
80703SOL     OW43882   5.033  10.057   3.045
80703SOL    HW143883   5.003   9.970   3.069
80703SOL    HW243884   4.952  10.107   3.031
80704SOL     OW43885  13.728   7.301   8.284
80704SOL    HW143886  13.753   7.384   8.324
80704SOL    HW243887  13.647   7.321   8.237
80705SOL     OW43888  13.561   6.857   2.033
80705SOL    HW143889  13.630   6.793   2.015
80705SOL    HW243890  13.589   6.936   1.986
80706SOL     OW43891   9.885   2.989   4.000
80706SOL    HW143892   9.941   2.962   4.073
80706SOL    HW243893   9.896   3.084   3.995
80707SOL     OW43894   2.900   4.745  13.465
80707SOL    HW143895   2.964   4.677  13.484
80707SOL    HW243896   2.950   4.827  13.467
80708SOL     OW43897  13.294   4.668   1.676
80708SOL    HW143898  13.351   4.592   1.666
80708SOL    HW243899  13.296   4.711   1.591
80709SOL     OW43900   5.053   1.083  13.273
80709SOL    HW143901   4.991   1.012  13.256
80709SOL    HW243902   5.013   1.160  13.233
80710SOL     OW43903   1.257   5.780  10.048
80710SOL    HW143904   1.172   5.812  10.019
80710SOL    HW243905   1.311   5.783   9.968
80711SOL     OW43906  11.594  14.551   5.331
80711SOL    HW143907  11.506  14.549   5.369
80711SOL    HW243908  11.599  14.471   5.278
80712SOL     OW43909   6.885  14.053  13.929
80712SOL    HW143910   6.820  14.090  13.870
80712SOL    HW243911   6.939  14.128  13.955
80713SOL     OW43912   0.799   4.598   9.220
80713SOL    HW143913   0.859   4.656   9.173
80713SOL    HW243914   0.826   4.510   9.195
80714SOL     OW43915  10.086   4.231   8.701
80714SOL    HW143916  10.096   4.161   8.765
80714SOL    HW243917   9.997   4.263   8.713
80715SOL     OW43918   9.426  10.520   8.973
80715SOL    HW143919   9.431  10.432   8.936
80715SOL    HW243920   9.408  10.506   9.066
80716SOL     OW43921  12.150   2.960   5.708
80716SOL    HW143922  12.123   3.040   5.754
80716SOL    HW243923  12.071   2.906   5.706
80717SOL     OW43924   5.750  12.498   2.538
80717SOL    HW143925   5.676  12.437   2.529
80717SOL    HW243926   5.810  12.453   2.597
80718SOL     OW43927   6.933  10.259   9.849
80718SOL    HW143928   7.000  10.216   9.901
80718SOL    HW243929   6.875  10.299   9.914
80719SOL     OW43930   3.541  10.225   1.066
80719SOL    HW143931   3.487  10.222   1.145
80719SOL    HW243932   3.489  10.274   1.002
80720SOL     OW43933   2.092   3.899   1.906
80720SOL    HW143934   2.177   3.856   1.914
80720SOL    HW243935   2.083   3.949   1.988
80721SOL     OW43936   4.869  14.065   0.823
80721SOL    HW143937   4.845  14.144   0.775
80721SOL    HW243938   4.839  13.993   0.767
80722SOL     OW43939   4.541   6.325  14.672
80722SOL    HW143940   4.539   6.313  14.577
80722SOL    HW243941   4.499   6.247  14.707
80723SOL     OW43942   0.653   9.461  12.204
80723SOL    HW143943   0.633   9.484  12.294
80723SOL    HW243944   0.738   9.502  12.187
80724SOL     OW43945   5.834  11.284   3.755
80724SOL    HW143946   5.901  11.325   3.809
80724SOL    HW243947   5.757  11.341   3.765
80725SOL     OW43948   4.281  12.965   8.655
80725SOL    HW143949   4.247  12.971   8.744
80725SOL    HW243950   4.206  12.988   8.599
80726SOL     OW43951   7.401   3.231   1.287
80726SOL    HW143952   7.466   3.170   1.323
80726SOL    HW243953   7.452   3.288   1.229
80727SOL     OW43954   3.099  11.431   9.308
80727SOL    HW143955   3.044  11.466   9.378
80727SOL    HW243956   3.124  11.344   9.339
80728SOL     OW43957   1.299  10.468   8.525
80728SOL    HW143958   1.356  10.533   8.484
80728SOL    HW243959   1.346  10.439   8.603
80729SOL     OW43960   8.175  10.398   6.865
80729SOL    HW143961   8.202  10.400   6.773
80729SOL    HW243962   8.104  10.334   6.868
80730SOL     OW43963  13.211   1.191   4.165
80730SOL    HW143964  13.154   1.262   4.195
80730SOL    HW243965  13.297   1.230   4.158
80731SOL     OW43966   4.876   1.564   1.667
80731SOL    HW143967   4.950   1.540   1.612
80731SOL    HW243968   4.800   1.523   1.625
80732SOL     OW43969  10.589  11.776   5.088
80732SOL    HW143970  10.541  11.796   5.168
80732SOL    HW243971  10.522  11.767   5.021
80733SOL     OW43972   9.203   3.882   3.540
80733SOL    HW143973   9.188   3.858   3.449
80733SOL    HW243974   9.298   3.878   3.551
80734SOL     OW43975  13.052  13.173  14.655
80734SOL    HW143976  13.079  13.092  14.612
80734SOL    HW243977  13.071  13.242  14.591
80735SOL     OW43978   6.875   4.763   9.535
80735SOL    HW143979   6.814   4.767   9.461
80735SOL    HW243980   6.822   4.738   9.610
80736SOL     OW43981   0.236  12.363  13.303
80736SOL    HW143982   0.214  12.271  13.286
80736SOL    HW243983   0.209  12.377  13.393
80737SOL     OW43984   5.811   5.358  11.326
80737SOL    HW143985   5.777   5.324  11.409
80737SOL    HW243986   5.900   5.323  11.322
80738SOL     OW43987   7.560  11.791  11.091
80738SOL    HW143988   7.576  11.796  10.996
80738SOL    HW243989   7.617  11.858  11.128
80739SOL     OW43990  11.556  11.427  11.329
80739SOL    HW143991  11.614  11.389  11.264
80739SOL    HW243992  11.502  11.489  11.280
80740SOL     OW43993   9.489  12.496  12.097
80740SOL    HW143994   9.419  12.448  12.141
80740SOL    HW243995   9.465  12.494  12.004
80741SOL     OW43996   4.545  14.061   8.128
80741SOL    HW143997   4.640  14.055   8.137
80741SOL    HW243998   4.523  14.150   8.156
80742SOL     OW43999  10.812  13.755   5.289
80742SOL    HW144000  10.892  13.710   5.261
80742SOL    HW244001  10.818  13.757   5.384
80743SOL     OW44002   5.435   3.527  10.253
80743SOL    HW144003   5.450   3.579  10.332
80743SOL    HW244004   5.520   3.491  10.231
80744SOL     OW44005   6.154   2.609  13.126
80744SOL    HW144006   6.213   2.583  13.197
80744SOL    HW244007   6.187   2.695  13.099
80745SOL     OW44008   7.420  11.641   2.608
80745SOL    HW144009   7.464  11.602   2.533
80745SOL    HW244010   7.489  11.651   2.674
80746SOL     OW44011  13.444   6.617   0.832
80746SOL    HW144012  13.459   6.539   0.885
80746SOL    HW244013  13.427   6.583   0.744
80747SOL     OW44014   6.625   1.042   6.996
80747SOL    HW144015   6.623   1.137   7.002
80747SOL    HW244016   6.536   1.015   7.016
80748SOL     OW44017   7.357   1.558  11.548
80748SOL    HW144018   7.268   1.574  11.517
80748SOL    HW244019   7.352   1.474  11.593
80749SOL     OW44020   8.419  12.721  11.765
80749SOL    HW144021   8.511  12.735  11.741
80749SOL    HW244022   8.377  12.805  11.745
80750SOL     OW44023   5.063   0.510   7.308
80750SOL    HW144024   4.997   0.503   7.239
80750SOL    HW244025   5.016   0.549   7.382
80751SOL     OW44026   3.082   9.218   3.197
80751SOL    HW144027   3.135   9.145   3.230
80751SOL    HW244028   3.143   9.293   3.198
80752SOL     OW44029   4.491  11.859   5.327
80752SOL    HW144030   4.439  11.926   5.370
80752SOL    HW244031   4.427  11.796   5.294
80753SOL     OW44032   2.385  10.541   8.338
80753SOL    HW144033   2.395  10.451   8.369
80753SOL    HW244034   2.353  10.589   8.415
80754SOL     OW44035   8.776   8.307  13.098
80754SOL    HW144036   8.774   8.402  13.084
80754SOL    HW244037   8.756   8.296  13.192
80755SOL     OW44038   2.072   5.043  13.583
80755SOL    HW144039   2.126   5.049  13.504
80755SOL    HW244040   2.070   5.132  13.617
80756SOL     OW44041  11.020  12.997   8.131
80756SOL    HW144042  11.072  13.027   8.056
80756SOL    HW244043  11.002  12.905   8.113
80757SOL     OW44044   0.317   6.422   3.020
80757SOL    HW144045   0.353   6.334   3.030
80757SOL    HW244046   0.269   6.437   3.102
80758SOL     OW44047  10.476   2.261   0.616
80758SOL    HW144048  10.475   2.166   0.613
80758SOL    HW244049  10.542   2.283   0.682
80759SOL     OW44050   0.374   7.023  11.035
80759SOL    HW144051   0.373   7.012  10.940
80759SOL    HW244052   0.466   7.042  11.056
80760SOL     OW44053  12.583   5.010  13.091
80760SOL    HW144054  12.598   5.100  13.120
80760SOL    HW244055  12.517   4.976  13.152
80761SOL     OW44056  13.510   9.103   6.326
80761SOL    HW144057  13.527   9.154   6.247
80761SOL    HW244058  13.595   9.068   6.351
80762SOL     OW44059   3.134  11.886   9.626
80762SOL    HW144060   3.057  11.939   9.643
80762SOL    HW244061   3.100  11.807   9.585
80763SOL     OW44062  12.040   9.643   8.776
80763SOL    HW144063  11.970   9.643   8.841
80763SOL    HW244064  12.004   9.597   8.701
80764SOL     OW44065   2.603   9.412  13.713
80764SOL    HW144066   2.550   9.491  13.716
80764SOL    HW244067   2.576   9.362  13.791
80765SOL     OW44068   9.616  14.871   5.539
80765SOL    HW144069   9.616  14.783   5.500
80765SOL    HW244070   9.702   0.003   5.579
80766SOL     OW44071   0.753   1.838  10.760
80766SOL    HW144072   0.693   1.808  10.691
80766SOL    HW244073   0.776   1.927  10.735
80767SOL     OW44074   0.966   9.878   2.097
80767SOL    HW144075   1.040   9.820   2.115
80767SOL    HW244076   0.966   9.940   2.170
80768SOL     OW44077  13.238   9.216   2.325
80768SOL    HW144078  13.323   9.216   2.370
80768SOL    HW244079  13.190   9.289   2.363
80769SOL     OW44080   3.868  10.024   4.245
80769SOL    HW144081   3.909   9.938   4.242
80769SOL    HW244082   3.925  10.080   4.193
80770SOL     OW44083   6.463   7.677  10.227
80770SOL    HW144084   6.438   7.763  10.262
80770SOL    HW244085   6.414   7.669  10.145
80771SOL     OW44086  11.254   1.023   9.415
80771SOL    HW144087  11.245   1.074   9.334
80771SOL    HW244088  11.349   1.017   9.429
80772SOL     OW44089   0.214   2.929  13.706
80772SOL    HW144090   0.211   3.024  13.695
80772SOL    HW244091   0.298   2.903  13.669
80773SOL     OW44092   3.729  12.194  11.772
80773SOL    HW144093   3.793  12.236  11.715
80773SOL    HW244094   3.778  12.171  11.851
80774SOL     OW44095   2.372   6.165   7.386
80774SOL    HW144096   2.384   6.181   7.479
80774SOL    HW244097   2.278   6.173   7.372
80775SOL     OW44098  13.907   9.678   4.294
80775SOL    HW144099  13.828   9.728   4.312
80775SOL    HW244100  13.875   9.592   4.264
80776SOL     OW44101   3.032   1.000   6.751
80776SOL    HW144102   2.973   0.952   6.693
80776SOL    HW244103   2.979   1.022   6.828
80777SOL     OW44104   1.224  10.725   5.194
80777SOL    HW144105   1.192  10.743   5.106
80777SOL    HW244106   1.314  10.696   5.181
80778SOL     OW44107   3.379  13.087   9.357
80778SOL    HW144108   3.360  13.086   9.263
80778SOL    HW244109   3.448  13.154   9.367
80779SOL     OW44110   2.090   4.784   8.915
80779SOL    HW144111   2.160   4.797   8.852
80779SOL    HW244112   2.020   4.743   8.864
80780SOL     OW44113   0.781  12.451   6.733
80780SOL    HW144114   0.722  12.377   6.722
80780SOL    HW244115   0.765  12.481   6.823
80781SOL     OW44116  10.912   4.709   2.645
80781SOL    HW144117  10.827   4.665   2.645
80781SOL    HW244118  10.973   4.642   2.677
80782SOL     OW44119  14.129  11.101   0.615
80782SOL    HW144120  14.119  11.017   0.571
80782SOL    HW244121  14.204  11.142   0.572
80783SOL     OW44122  13.589   6.086   9.560
80783SOL    HW144123  13.662   6.024   9.567
80783SOL    HW244124  13.555   6.072   9.472
80784SOL     OW44125   5.800   5.967   8.474
80784SOL    HW144126   5.772   6.016   8.551
80784SOL    HW244127   5.832   5.884   8.509
80785SOL     OW44128  14.844  12.200  12.071
80785SOL    HW144129  14.824  12.151  12.152
80785SOL    HW244130  14.764  12.248  12.052
80786SOL     OW44131   5.406   3.199   6.499
80786SOL    HW144132   5.453   3.118   6.519
80786SOL    HW244133   5.384   3.191   6.406
80787SOL     OW44134   9.489  14.193  14.399
80787SOL    HW144135   9.492  14.099  14.418
80787SOL    HW244136   9.531  14.201  14.313
80788SOL     OW44137  10.773  13.052   7.024
80788SOL    HW144138  10.789  13.019   7.112
80788SOL    HW244139  10.750  13.144   7.037
80789SOL     OW44140   7.306  14.721  10.807
80789SOL    HW144141   7.295  14.635  10.768
80789SOL    HW244142   7.228  14.770  10.779
80790SOL     OW44143  13.844   4.998  11.319
80790SOL    HW144144  13.770   4.951  11.282
80790SOL    HW244145  13.817   5.090  11.321
80791SOL     OW44146   9.538   9.802   0.040
80791SOL    HW144147   9.608   9.860   0.007
80791SOL    HW244148   9.582   9.718   0.054
80792SOL     OW44149  14.602   4.990   5.887
80792SOL    HW144150  14.543   5.065   5.874
80792SOL    HW244151  14.576   4.954   5.972
80793SOL     OW44152  13.562   8.177   4.192
80793SOL    HW144153  13.634   8.233   4.162
80793SOL    HW244154  13.522   8.227   4.263
80794SOL     OW44155  10.243  14.546   2.693
80794SOL    HW144156  10.162  14.511   2.655
80794SOL    HW244157  10.297  14.468   2.709
80795SOL     OW44158   8.307  12.582   5.766
80795SOL    HW144159   8.382  12.630   5.802
80795SOL    HW244160   8.243  12.580   5.837
80796SOL     OW44161   6.260  12.804  11.715
80796SOL    HW144162   6.346  12.767  11.694
80796SOL    HW244163   6.218  12.738  11.770
80797SOL     OW44164  10.371   0.052  13.650
80797SOL    HW144165  10.311   0.006  13.710
80797SOL    HW244166  10.337   0.033  13.563
80798SOL     OW44167   4.809   0.482   0.081
80798SOL    HW144168   4.852   0.481   0.167
80798SOL    HW244169   4.843   0.561   0.039
80799SOL     OW44170  14.688  11.854   7.437
80799SOL    HW144171  14.665  11.917   7.370
80799SOL    HW244172  14.778  11.830   7.418
80800SOL     OW44173   5.616   2.822   7.567
80800SOL    HW144174   5.620   2.772   7.486
80800SOL    HW244175   5.589   2.910   7.541
80801SOL     OW44176   3.949   0.423  13.982
80801SOL    HW144177   4.010   0.495  13.963
80801SOL    HW244178   4.001   0.362  14.035
80802SOL     OW44179   1.813  11.232   4.675
80802SOL    HW144180   1.764  11.314   4.675
80802SOL    HW244181   1.900  11.256   4.644
80803SOL     OW44182   8.856   5.685  12.138
80803SOL    HW144183   8.896   5.729  12.063
80803SOL    HW244184   8.768   5.662  12.108
80804SOL     OW44185   2.783  14.266   0.051
80804SOL    HW144186   2.863  14.291   0.006
80804SOL    HW244187   2.795  14.299   0.141
80805SOL     OW44188  10.986   0.145   2.498
80805SOL    HW144189  10.962   0.227   2.540
80805SOL    HW244190  11.077   0.158   2.470
80806SOL     OW44191   6.751   0.766   6.085
80806SOL    HW144192   6.825   0.715   6.051
80806SOL    HW244193   6.681   0.753   6.020
80807SOL     OW44194   8.931  12.220   9.716
80807SOL    HW144195   8.861  12.266   9.670
80807SOL    HW244196   8.953  12.147   9.658
80808SOL     OW44197  14.231   7.087  10.937
80808SOL    HW144198  14.300   7.025  10.961
80808SOL    HW244199  14.151   7.047  10.973
80809SOL     OW44200   8.799   4.413  13.711
80809SOL    HW144201   8.750   4.488  13.677
80809SOL    HW244202   8.862   4.452  13.772
80810SOL     OW44203   9.647   2.297   5.744
80810SOL    HW144204   9.620   2.286   5.835
80810SOL    HW244205   9.677   2.210   5.718
80811SOL     OW44206   0.572   0.522   1.451
80811SOL    HW144207   0.573   0.591   1.516
80811SOL    HW244208   0.514   0.455   1.488
80812SOL     OW44209   5.236   5.267  10.524
80812SOL    HW144210   5.226   5.338  10.461
80812SOL    HW244211   5.173   5.287  10.593
80813SOL     OW44212   8.705   4.033  12.751
80813SOL    HW144213   8.707   4.043  12.846
80813SOL    HW244214   8.790   4.065  12.721
80814SOL     OW44215   5.514   7.721   6.827
80814SOL    HW144216   5.580   7.712   6.759
80814SOL    HW244217   5.452   7.785   6.793
80815SOL     OW44218   7.171   3.751   7.121
80815SOL    HW144219   7.184   3.746   7.026
80815SOL    HW244220   7.202   3.839   7.144
80816SOL     OW44221   1.713   3.935  14.853
80816SOL    HW144222   1.745   4.017   0.015
80816SOL    HW244223   1.758   3.930  14.768
80817SOL     OW44224   4.072   3.764  10.724
80817SOL    HW144225   4.136   3.825  10.760
80817SOL    HW244226   4.113   3.730  10.644
80818SOL     OW44227   2.469   3.937  11.307
80818SOL    HW144228   2.470   3.842  11.301
80818SOL    HW244229   2.545   3.965  11.256
80819SOL     OW44230   8.437   0.765  13.885
80819SOL    HW144231   8.532   0.755  13.895
80819SOL    HW244232   8.422   0.859  13.889
80820SOL     OW44233   4.801   4.531   7.512
80820SOL    HW144234   4.750   4.512   7.434
80820SOL    HW244235   4.866   4.596   7.483
80821SOL     OW44236  13.242  14.539   9.374
80821SOL    HW144237  13.244  14.501   9.462
80821SOL    HW244238  13.149  14.545   9.354
80822SOL     OW44239   0.791   5.460   1.190
80822SOL    HW144240   0.864   5.471   1.251
80822SOL    HW244241   0.718   5.431   1.245
80823SOL     OW44242   5.927  12.123   9.533
80823SOL    HW144243   5.910  12.031   9.510
80823SOL    HW244244   6.000  12.118   9.596
80824SOL     OW44245   5.191   1.986   8.995
80824SOL    HW144246   5.257   2.051   9.017
80824SOL    HW244247   5.199   1.919   9.063
80825SOL     OW44248   6.306   7.607   1.302
80825SOL    HW144249   6.363   7.536   1.332
80825SOL    HW244250   6.228   7.599   1.357
80826SOL     OW44251   0.631   0.635   8.207
80826SOL    HW144252   0.560   0.641   8.271
80826SOL    HW244253   0.594   0.582   8.136
80827SOL     OW44254  11.291   5.415  10.905
80827SOL    HW144255  11.253   5.330  10.882
80827SOL    HW244256  11.363   5.427  10.843
80828SOL     OW44257  10.980   7.438  11.827
80828SOL    HW144258  10.885   7.429  11.826
80828SOL    HW244259  11.006   7.432  11.735
80829SOL     OW44260   1.238   4.847   8.671
80829SOL    HW144261   1.225   4.895   8.590
80829SOL    HW244262   1.315   4.792   8.655
80830SOL     OW44263   9.853   7.948   2.160
80830SOL    HW144264   9.856   8.025   2.104
80830SOL    HW244265   9.924   7.892   2.128
80831SOL     OW44266  11.638  12.126   5.442
80831SOL    HW144267  11.726  12.160   5.458
80831SOL    HW244268  11.645  12.032   5.458
80832SOL     OW44269   3.648   1.654   0.898
80832SOL    HW144270   3.621   1.588   0.962
80832SOL    HW244271   3.578   1.654   0.833
80833SOL     OW44272  14.033   0.969  12.191
80833SOL    HW144273  14.052   1.051  12.145
80833SOL    HW244274  14.118   0.934  12.215
80834SOL     OW44275   0.189  10.657   4.928
80834SOL    HW144276   0.187  10.746   4.894
80834SOL    HW244277   0.273  10.650   4.973
80835SOL     OW44278  14.837   4.710  11.227
80835SOL    HW144279  14.817   4.802  11.245
80835SOL    HW244280  14.850   4.706  11.133
80836SOL     OW44281   9.883   2.064  10.386
80836SOL    HW144282   9.867   2.154  10.356
80836SOL    HW244283   9.938   2.026  10.318
80837SOL     OW44284   4.913   9.197   1.813
80837SOL    HW144285   4.848   9.203   1.743
80837SOL    HW244286   4.862   9.195   1.894
80838SOL     OW44287   2.404   7.123  13.251
80838SOL    HW144288   2.331   7.170  13.211
80838SOL    HW244289   2.415   7.046  13.197
80839SOL     OW44290   1.259  13.126   0.854
80839SOL    HW144291   1.290  13.188   0.787
80839SOL    HW244292   1.251  13.179   0.933
80840SOL     OW44293   1.870   5.096  12.739
80840SOL    HW144294   1.799   5.032  12.743
80840SOL    HW244295   1.826   5.181  12.745
80841SOL     OW44296   1.120   7.840  11.614
80841SOL    HW144297   1.123   7.838  11.709
80841SOL    HW244298   1.154   7.755  11.586
80842SOL     OW44299   5.526  14.654   9.788
80842SOL    HW144300   5.431  14.661   9.784
80842SOL    HW244301   5.554  14.738   9.824
80843SOL     OW44302   0.571   9.364   8.181
80843SOL    HW144303   0.558   9.401   8.094
80843SOL    HW244304   0.518   9.419   8.239
80844SOL     OW44305   5.900   3.260  10.373
80844SOL    HW144306   5.977   3.220  10.412
80844SOL    HW244307   5.917   3.355  10.378
80845SOL     OW44308   5.676   7.868   5.081
80845SOL    HW144309   5.704   7.851   5.171
80845SOL    HW244310   5.676   7.963   5.074
80846SOL     OW44311   5.754   5.682   1.913
80846SOL    HW144312   5.839   5.645   1.888
80846SOL    HW244313   5.775   5.748   1.979
80847SOL     OW44314   2.839   3.325   9.011
80847SOL    HW144315   2.901   3.305   9.082
80847SOL    HW244316   2.813   3.239   8.977
80848SOL     OW44317   0.636   9.885   6.764
80848SOL    HW144318   0.717   9.843   6.736
80848SOL    HW244319   0.662   9.944   6.835
80849SOL     OW44320   0.464   5.051   4.548
80849SOL    HW144321   0.387   5.007   4.583
80849SOL    HW244322   0.461   5.033   4.454
80850SOL     OW44323   3.573   3.497  13.867
80850SOL    HW144324   3.537   3.556  13.933
80850SOL    HW244325   3.660   3.475  13.900
80851SOL     OW44326   8.987   3.267  12.738
80851SOL    HW144327   9.022   3.217  12.812
80851SOL    HW244328   8.972   3.202  12.669
80852SOL     OW44329   2.810  11.190   4.289
80852SOL    HW144330   2.717  11.208   4.284
80852SOL    HW244331   2.833  11.205   4.381
80853SOL     OW44332  14.401   2.866   1.130
80853SOL    HW144333  14.443   2.865   1.044
80853SOL    HW244334  14.471   2.841   1.191
80854SOL     OW44335   5.128  13.266   9.609
80854SOL    HW144336   5.216  13.303   9.611
80854SOL    HW244337   5.141  13.176   9.579
80855SOL     OW44338   1.687   9.715  14.500
80855SOL    HW144339   1.595   9.703  14.477
80855SOL    HW244340   1.736   9.667  14.433
80856SOL     OW44341   7.741   7.971  11.790
80856SOL    HW144342   7.775   8.057  11.817
80856SOL    HW244343   7.779   7.910  11.853
80857SOL     OW44344   3.656   8.605   6.787
80857SOL    HW144345   3.676   8.669   6.719
80857SOL    HW244346   3.585   8.645   6.837
80858SOL     OW44347   4.413   1.504  11.439
80858SOL    HW144348   4.320   1.503  11.418
80858SOL    HW244349   4.418   1.552  11.522
80859SOL     OW44350   1.085  11.942   7.979
80859SOL    HW144351   1.038  11.936   7.896
80859SOL    HW244352   1.123  12.030   7.979
80860SOL     OW44353   0.503   9.412   4.169
80860SOL    HW144354   0.562   9.430   4.241
80860SOL    HW244355   0.552   9.354   4.111
80861SOL     OW44356   9.689   0.253   2.484
80861SOL    HW144357   9.612   0.305   2.462
80861SOL    HW244358   9.687   0.179   2.424
80862SOL     OW44359   2.485   0.448   3.186
80862SOL    HW144360   2.543   0.371   3.188
80862SOL    HW244361   2.452   0.451   3.097
80863SOL     OW44362  13.446   6.028  11.590
80863SOL    HW144363  13.457   6.023  11.685
80863SOL    HW244364  13.354   6.007  11.575
80864SOL     OW44365   9.865   2.757   9.040
80864SOL    HW144366   9.929   2.819   9.075
80864SOL    HW244367   9.801   2.813   8.995
80865SOL     OW44368  13.654  12.476   6.664
80865SOL    HW144369  13.615  12.559   6.694
80865SOL    HW244370  13.639  12.475   6.570
80866SOL     OW44371   1.013  13.328   1.689
80866SOL    HW144372   1.078  13.267   1.654
80866SOL    HW244373   0.965  13.358   1.612
80867SOL     OW44374   4.563   5.342   3.149
80867SOL    HW144375   4.621   5.314   3.078
80867SOL    HW244376   4.546   5.262   3.199
80868SOL     OW44377   8.035  13.838   9.274
80868SOL    HW144378   8.075  13.795   9.198
80868SOL    HW244379   8.107  13.850   9.335
80869SOL     OW44380   2.491   3.257   9.037
80869SOL    HW144381   2.551   3.328   9.061
80869SOL    HW244382   2.429   3.298   8.976
80870SOL     OW44383   8.412   8.544   9.837
80870SOL    HW144384   8.374   8.620   9.793
80870SOL    HW244385   8.497   8.574   9.869
80871SOL     OW44386   7.908  13.564   4.459
80871SOL    HW144387   7.856  13.592   4.534
80871SOL    HW244388   7.990  13.613   4.467
80872SOL     OW44389   8.758   0.372   5.494
80872SOL    HW144390   8.838   0.365   5.442
80872SOL    HW244391   8.787   0.414   5.575
80873SOL     OW44392  11.426   3.100   4.493
80873SOL    HW144393  11.339   3.075   4.525
80873SOL    HW244394  11.487   3.053   4.550
80874SOL     OW44395   9.032   7.627  13.078
80874SOL    HW144396   8.965   7.616  13.145
80874SOL    HW244397   9.114   7.603  13.122
80875SOL     OW44398  10.586   6.483   6.169
80875SOL    HW144399  10.660   6.436   6.209
80875SOL    HW244400  10.527   6.413   6.139
80876SOL     OW44401  12.057  11.131  10.463
80876SOL    HW144402  11.980  11.186  10.475
80876SOL    HW244403  12.069  11.087  10.547
80877SOL     OW44404   6.286  13.868   3.908
80877SOL    HW144405   6.293  13.773   3.901
80877SOL    HW244406   6.376  13.899   3.898
80878SOL     OW44407   1.348   1.345   2.736
80878SOL    HW144408   1.408   1.418   2.752
80878SOL    HW244409   1.270   1.386   2.698
80879SOL     OW44410  12.012  13.870  12.324
80879SOL    HW144411  12.018  13.965  12.320
80879SOL    HW244412  12.098  13.841  12.352
80880SOL     OW44413  12.179   3.453   2.463
80880SOL    HW144414  12.113   3.446   2.395
80880SOL    HW244415  12.229   3.372   2.457
80881SOL     OW44416  14.346   7.174   4.944
80881SOL    HW144417  14.390   7.259   4.942
80881SOL    HW244418  14.407   7.116   4.991
80882SOL     OW44419  11.215  10.501  14.202
80882SOL    HW144420  11.142  10.552  14.165
80882SOL    HW244421  11.182  10.411  14.205
80883SOL     OW44422  11.227  10.643  12.676
80883SOL    HW144423  11.289  10.589  12.725
80883SOL    HW244424  11.153  10.584  12.658
80884SOL     OW44425   7.153   3.116   1.209
80884SOL    HW144426   7.227   3.127   1.268
80884SOL    HW244427   7.135   3.022   1.209
80885SOL     OW44428   5.887  13.238  14.270
80885SOL    HW144429   5.795  13.225  14.246
80885SOL    HW244430   5.935  13.172  14.220
80886SOL     OW44431   8.761   2.655   1.368
80886SOL    HW144432   8.721   2.702   1.442
80886SOL    HW244433   8.793   2.573   1.407
80887SOL     OW44434  10.240  11.812   7.849
80887SOL    HW144435  10.295  11.827   7.772
80887SOL    HW244436  10.273  11.731   7.886
80888SOL     OW44437  14.268   4.124  14.631
80888SOL    HW144438  14.248   4.203  14.682
80888SOL    HW244439  14.363   4.127  14.619
80889SOL     OW44440  13.805   5.245   4.460
80889SOL    HW144441  13.732   5.185   4.447
80889SOL    HW244442  13.815   5.290   4.376
80890SOL     OW44443  14.866   1.936  10.868
80890SOL    HW144444  14.869   1.973  10.780
80890SOL    HW244445   0.080   1.912  10.887
80891SOL     OW44446   5.484   3.495   1.306
80891SOL    HW144447   5.545   3.489   1.380
80891SOL    HW244448   5.498   3.414   1.257
80892SOL     OW44449   6.204   5.742   8.929
80892SOL    HW144450   6.114   5.771   8.913
80892SOL    HW244451   6.203   5.649   8.908
80893SOL     OW44452   9.188   7.961   5.744
80893SOL    HW144453   9.141   8.045   5.737
80893SOL    HW244454   9.142   7.903   5.683
80894SOL     OW44455   9.061  10.286   8.406
80894SOL    HW144456   9.108  10.210   8.441
80894SOL    HW244457   8.982  10.292   8.460
80895SOL     OW44458  12.543   1.363  11.872
80895SOL    HW144459  12.578   1.439  11.918
80895SOL    HW244460  12.597   1.355  11.793
80896SOL     OW44461  10.956  10.897  13.911
80896SOL    HW144462  10.962  10.989  13.937
80896SOL    HW244463  10.892  10.896  13.840
80897SOL     OW44464  11.695   6.296   0.150
80897SOL    HW144465  11.681   6.202   0.138
80897SOL    HW244466  11.649   6.316   0.232
80898SOL     OW44467   4.501   4.589  12.361
80898SOL    HW144468   4.531   4.556  12.277
80898SOL    HW244469   4.570   4.565  12.423
80899SOL     OW44470   6.243   8.590   1.798
80899SOL    HW144471   6.221   8.682   1.815
80899SOL    HW244472   6.223   8.545   1.881
80900SOL     OW44473   5.151   9.156   4.891
80900SOL    HW144474   5.214   9.086   4.903
80900SOL    HW244475   5.168   9.217   4.963
80901SOL     OW44476   2.370   9.137   9.915
80901SOL    HW144477   2.413   9.105   9.994
80901SOL    HW244478   2.389   9.231   9.915
80902SOL     OW44479  12.187  12.737   3.780
80902SOL    HW144480  12.242  12.671   3.736
80902SOL    HW244481  12.241  12.816   3.781
80903SOL     OW44482   3.542   3.192   6.821
80903SOL    HW144483   3.526   3.098   6.825
80903SOL    HW244484   3.637   3.200   6.824
80904SOL     OW44485   7.039   5.253  10.057
80904SOL    HW144486   7.132   5.257  10.079
80904SOL    HW244487   7.012   5.164  10.080
80905SOL     OW44488   6.872  14.875   2.770
80905SOL    HW144489   6.815   0.072   2.749
80905SOL    HW244490   6.899   0.013   2.860
80906SOL     OW44491  14.567   6.059   3.984
80906SOL    HW144492  14.643   6.064   3.926
80906SOL    HW244493  14.494   6.088   3.930
80907SOL     OW44494   7.873  13.170  12.753
80907SOL    HW144495   7.852  13.159  12.660
80907SOL    HW244496   7.912  13.257  12.759
80908SOL     OW44497   6.069   0.223   5.543
80908SOL    HW144498   6.055   0.195   5.633
80908SOL    HW244499   6.164   0.235   5.536
80909SOL     OW44500   1.114   9.806   3.650
80909SOL    HW144501   1.098   9.839   3.738
80909SOL    HW244502   1.027   9.785   3.616
80910SOL     OW44503   6.744   4.606   1.859
80910SOL    HW144504   6.651   4.589   1.849
80910SOL    HW244505   6.769   4.652   1.778
80911SOL     OW44506  12.610   9.610   5.594
80911SOL    HW144507  12.626   9.702   5.573
80911SOL    HW244508  12.592   9.610   5.688
80912SOL     OW44509  14.231  14.295  12.860
80912SOL    HW144510  14.287  14.341  12.797
80912SOL    HW244511  14.193  14.365  12.914
80913SOL     OW44512   5.230   9.983  10.895
80913SOL    HW144513   5.198   9.911  10.950
80913SOL    HW244514   5.217  10.061  10.948
80914SOL     OW44515   4.086  11.063   4.381
80914SOL    HW144516   4.163  11.067   4.437
80914SOL    HW244517   4.043  10.981   4.405
80915SOL     OW44518   6.507   8.624   2.737
80915SOL    HW144519   6.521   8.710   2.698
80915SOL    HW244520   6.591   8.603   2.780
80916SOL     OW44521   5.123   4.545  14.483
80916SOL    HW144522   5.064   4.547  14.408
80916SOL    HW244523   5.065   4.539  14.559
80917SOL     OW44524   5.660   5.544   4.223
80917SOL    HW144525   5.668   5.638   4.237
80917SOL    HW244526   5.718   5.505   4.289
80918SOL     OW44527  12.718   9.663   5.199
80918SOL    HW144528  12.763   9.605   5.260
80918SOL    HW244529  12.713   9.612   5.118
80919SOL     OW44530   8.855   5.981   4.643
80919SOL    HW144531   8.919   5.911   4.658
80919SOL    HW244532   8.797   5.976   4.719
80920SOL     OW44533   9.418   9.324   2.245
80920SOL    HW144534   9.510   9.323   2.271
80920SOL    HW244535   9.395   9.417   2.245
80921SOL     OW44536  11.974   5.255  12.056
80921SOL    HW144537  11.910   5.229  11.990
80921SOL    HW244538  11.925   5.308  12.119
80922SOL     OW44539  13.613   4.630   2.251
80922SOL    HW144540  13.643   4.542   2.273
80922SOL    HW244541  13.661   4.653   2.172
80923SOL     OW44542  10.058  10.332   9.408
80923SOL    HW144543  10.021  10.283   9.481
80923SOL    HW244544   9.989  10.395   9.385
80924SOL     OW44545   1.088   5.243  13.527
80924SOL    HW144546   1.030   5.311  13.561
80924SOL    HW244547   1.081   5.171  13.590
80925SOL     OW44548   3.254  12.787  12.342
80925SOL    HW144549   3.209  12.860  12.299
80925SOL    HW244550   3.337  12.779  12.295
80926SOL     OW44551   8.519   3.577  10.215
80926SOL    HW144552   8.444   3.629  10.185
80926SOL    HW244553   8.547   3.529  10.137
80927SOL     OW44554  14.232  12.510   8.928
80927SOL    HW144555  14.159  12.492   8.988
80927SOL    HW244556  14.300  12.549   8.984
80928SOL     OW44557   4.558   9.229  13.232
80928SOL    HW144558   4.573   9.268  13.145
80928SOL    HW244559   4.630   9.167  13.243
80929SOL     OW44560  13.417   3.575  10.596
80929SOL    HW144561  13.346   3.620  10.641
80929SOL    HW244562  13.425   3.620  10.512
80930SOL     OW44563   1.889  12.249  11.578
80930SOL    HW144564   1.883  12.332  11.531
80930SOL    HW244565   1.946  12.268  11.653
80931SOL     OW44566   1.901   2.283  12.104
80931SOL    HW144567   1.844   2.219  12.062
80931SOL    HW244568   1.842   2.349  12.140
80932SOL     OW44569   2.903   1.795  13.712
80932SOL    HW144570   2.838   1.746  13.762
80932SOL    HW244571   2.852   1.846  13.649
80933SOL     OW44572   5.642   4.822  12.156
80933SOL    HW144573   5.576   4.772  12.204
80933SOL    HW244574   5.724   4.805  12.203
80934SOL     OW44575   0.788   3.789   3.804
80934SOL    HW144576   0.804   3.881   3.784
80934SOL    HW244577   0.721   3.790   3.872
80935SOL     OW44578  12.485  14.485  12.417
80935SOL    HW144579  12.468  14.575  12.445
80935SOL    HW244580  12.550  14.493  12.348
80936SOL     OW44581  11.570   4.788  11.413
80936SOL    HW144582  11.561   4.836  11.495
80936SOL    HW244583  11.516   4.710  11.425
80937SOL     OW44584   9.043  11.127   1.404
80937SOL    HW144585   9.110  11.174   1.454
80937SOL    HW244586   8.966  11.185   1.408
80938SOL     OW44587  13.723   7.838  12.149
80938SOL    HW144588  13.789   7.837  12.079
80938SOL    HW244589  13.685   7.751  12.147
80939SOL     OW44590  14.710   9.036   6.782
80939SOL    HW144591  14.640   9.065   6.723
80939SOL    HW244592  14.666   9.020   6.865
80940SOL     OW44593   0.374   1.029  11.440
80940SOL    HW144594   0.363   1.071  11.354
80940SOL    HW244595   0.345   1.095  11.503
80941SOL     OW44596   1.632   9.021   5.227
80941SOL    HW144597   1.696   9.087   5.198
80941SOL    HW244598   1.637   8.953   5.160
80942SOL     OW44599   0.007   6.795   8.171
80942SOL    HW144600   0.088   6.767   8.129
80942SOL    HW244601  14.832   6.831   8.099
80943SOL     OW44602   3.310  11.216   9.580
80943SOL    HW144603   3.319  11.217   9.676
80943SOL    HW244604   3.221  11.245   9.564
80944SOL     OW44605   1.534   5.768   1.865
80944SOL    HW144606   1.482   5.849   1.871
80944SOL    HW244607   1.606   5.790   1.807
80945SOL     OW44608  14.647   3.637  14.789
80945SOL    HW144609  14.572   3.658  14.844
80945SOL    HW244610  14.609   3.614  14.704
80946SOL     OW44611   3.033   1.862   4.279
80946SOL    HW144612   3.005   1.829   4.193
80946SOL    HW244613   3.063   1.784   4.326
80947SOL     OW44614  13.210   5.344   0.589
80947SOL    HW144615  13.226   5.438   0.587
80947SOL    HW244616  13.296   5.305   0.573
80948SOL     OW44617   1.397   3.435   6.800
80948SOL    HW144618   1.370   3.354   6.843
80948SOL    HW244619   1.492   3.427   6.792
80949SOL     OW44620   3.130  12.585  13.707
80949SOL    HW144621   3.099  12.616  13.622
80949SOL    HW244622   3.225  12.591  13.702
80950SOL     OW44623  10.854   7.523   1.131
80950SOL    HW144624  10.831   7.498   1.041
80950SOL    HW244625  10.854   7.441   1.179
80951SOL     OW44626   6.863   5.037   3.175
80951SOL    HW144627   6.892   5.094   3.104
80951SOL    HW244628   6.882   4.949   3.144
80952SOL     OW44629   4.533   3.361  10.571
80952SOL    HW144630   4.444   3.336  10.596
80952SOL    HW244631   4.527   3.381  10.477
80953SOL     OW44632   0.244   2.780  10.260
80953SOL    HW144633   0.317   2.760  10.319
80953SOL    HW244634   0.197   2.851  10.304
80954SOL     OW44635   3.470  12.137   4.086
80954SOL    HW144636   3.480  12.103   4.174
80954SOL    HW244637   3.518  12.075   4.031
80955SOL     OW44638  13.378   8.533  11.878
80955SOL    HW144639  13.356   8.454  11.926
80955SOL    HW244640  13.315   8.598  11.908
80956SOL     OW44641   7.556  11.718   3.810
80956SOL    HW144642   7.552  11.647   3.875
80956SOL    HW244643   7.647  11.748   3.814
80957SOL     OW44644   4.230   6.173   0.619
80957SOL    HW144645   4.210   6.106   0.554
80957SOL    HW244646   4.278   6.240   0.571
80958SOL     OW44647   2.754   6.991  14.870
80958SOL    HW144648   2.749   7.021   0.083
80958SOL    HW244649   2.808   7.055  14.825
80959SOL     OW44650   7.179  12.492   5.860
80959SOL    HW144651   7.248  12.468   5.798
80959SOL    HW244652   7.132  12.564   5.818
80960SOL     OW44653   6.317   8.386   6.914
80960SOL    HW144654   6.370   8.329   6.968
80960SOL    HW244655   6.237   8.335   6.896
80961SOL     OW44656   7.002  14.480   4.047
80961SOL    HW144657   7.069  14.462   4.113
80961SOL    HW244658   7.020  14.419   3.976
80962SOL     OW44659  13.345   0.006   5.518
80962SOL    HW144660  13.436   0.026   5.542
80962SOL    HW244661  13.338  14.789   5.526
80963SOL     OW44662   9.302  11.619  11.735
80963SOL    HW144663   9.280  11.709  11.756
80963SOL    HW244664   9.241  11.567  11.787
80964SOL     OW44665   8.541   2.268   6.186
80964SOL    HW144666   8.599   2.247   6.259
80964SOL    HW244667   8.558   2.360   6.167
80965SOL     OW44668  12.980   7.182  12.993
80965SOL    HW144669  12.951   7.135  13.072
80965SOL    HW244670  12.911   7.246  12.977
80966SOL     OW44671   6.517   5.809  13.279
80966SOL    HW144672   6.566   5.855  13.211
80966SOL    HW244673   6.431   5.850  13.278
80967SOL     OW44674   6.387   5.848   3.068
80967SOL    HW144675   6.394   5.840   3.163
80967SOL    HW244676   6.321   5.915   3.054
80968SOL     OW44677   1.490   0.008  13.023
80968SOL    HW144678   1.574   0.050  13.004
80968SOL    HW244679   1.491  14.806  12.970
80969SOL     OW44680  14.222   2.821  10.632
80969SOL    HW144681  14.171   2.865  10.699
80969SOL    HW244682  14.290   2.884  10.608
80970SOL     OW44683   9.316   2.782  14.671
80970SOL    HW144684   9.333   2.800  14.578
80970SOL    HW244685   9.402   2.766  14.709
80971SOL     OW44686   6.476   0.420   6.624
80971SOL    HW144687   6.528   0.500   6.639
80971SOL    HW244688   6.405   0.449   6.567
80972SOL     OW44689   4.988  13.119  10.393
80972SOL    HW144690   5.001  13.160  10.478
80972SOL    HW244691   5.076  13.108  10.358
80973SOL     OW44692   7.790   1.237   9.628
80973SOL    HW144693   7.803   1.216   9.535
80973SOL    HW244694   7.754   1.157   9.666
80974SOL     OW44695   7.160  13.929   1.867
80974SOL    HW144696   7.084  13.988   1.870
80974SOL    HW244697   7.231  13.982   1.903
80975SOL     OW44698   2.279  14.793   8.254
80975SOL    HW144699   2.194  14.776   8.294
80975SOL    HW244700   2.342  14.782   8.326
80976SOL     OW44701   8.134   8.277   1.554
80976SOL    HW144702   8.140   8.335   1.630
80976SOL    HW244703   8.210   8.219   1.562
80977SOL     OW44704   9.808  11.708   1.046
80977SOL    HW144705   9.787  11.706   1.140
80977SOL    HW244706   9.735  11.662   1.005
80978SOL     OW44707   3.894   9.361  14.280
80978SOL    HW144708   3.954   9.426  14.318
80978SOL    HW244709   3.920   9.356  14.188
80979SOL     OW44710  11.167   2.799  12.700
80979SOL    HW144711  11.105   2.833  12.636
80979SOL    HW244712  11.120   2.727  12.743
80980SOL     OW44713   3.904   1.328  13.836
80980SOL    HW144714   3.898   1.245  13.791
80980SOL    HW244715   3.835   1.382  13.797
80981SOL     OW44716  11.821   2.100  10.177
80981SOL    HW144717  11.821   2.187  10.136
80981SOL    HW244718  11.900   2.058  10.144
80982SOL     OW44719   0.971   1.736  14.594
80982SOL    HW144720   1.053   1.701  14.558
80982SOL    HW244721   0.967   1.700  14.683
80983SOL     OW44722   9.817  11.163  10.287
80983SOL    HW144723   9.845  11.255  10.295
80983SOL    HW244724   9.894  11.118  10.253
80984SOL     OW44725   7.255  13.032   4.868
80984SOL    HW144726   7.178  13.049   4.815
80984SOL    HW244727   7.233  13.067   4.955
80985SOL     OW44728   6.175   7.830  13.783
80985SOL    HW144729   6.173   7.753  13.840
80985SOL    HW244730   6.232   7.805  13.711
80986SOL     OW44731  12.969  12.675   5.185
80986SOL    HW144732  12.898  12.614   5.204
80986SOL    HW244733  12.960  12.744   5.251
80987SOL     OW44734   1.458   7.192   6.676
80987SOL    HW144735   1.416   7.137   6.611
80987SOL    HW244736   1.493   7.131   6.741
80988SOL     OW44737   6.328   7.732   7.585
80988SOL    HW144738   6.301   7.672   7.515
80988SOL    HW244739   6.246   7.763   7.623
80989SOL     OW44740   0.325   2.015   9.898
80989SOL    HW144741   0.372   2.031   9.979
80989SOL    HW244742   0.369   2.070   9.833
80990SOL     OW44743  12.707   5.657   9.251
80990SOL    HW144744  12.765   5.623   9.183
80990SOL    HW244745  12.722   5.752   9.250
80991SOL     OW44746   2.828   8.643  10.271
80991SOL    HW144747   2.909   8.599  10.246
80991SOL    HW244748   2.830   8.644  10.367
80992SOL     OW44749   7.378  14.849   4.658
80992SOL    HW144750   7.371  14.796   4.737
80992SOL    HW244751   7.469  14.837   4.629
80993SOL     OW44752   5.508   1.435   2.347
80993SOL    HW144753   5.576   1.391   2.398
80993SOL    HW244754   5.431   1.434   2.404
80994SOL     OW44755   2.402   2.747  10.900
80994SOL    HW144756   2.358   2.709  10.976
80994SOL    HW244757   2.333   2.755  10.834
80995SOL     OW44758   6.861  13.795   6.131
80995SOL    HW144759   6.878  13.823   6.221
80995SOL    HW244760   6.942  13.816   6.084
80996SOL     OW44761   0.769   4.281   9.692
80996SOL    HW144762   0.847   4.307   9.741
80996SOL    HW244763   0.766   4.186   9.700
80997SOL     OW44764   4.146  11.062  11.502
80997SOL    HW144765   4.186  11.053  11.589
80997SOL    HW244766   4.095  10.982  11.491
80998SOL     OW44767   5.004   0.883   6.851
80998SOL    HW144768   5.068   0.943   6.812
80998SOL    HW244769   4.922   0.932   6.848
80999SOL     OW44770   8.852   4.749   1.019
80999SOL    HW144771   8.802   4.745   1.100
80999SOL    HW244772   8.909   4.672   1.021
81000SOL     OW44773  11.578   6.598   2.242
81000SOL    HW144774  11.605   6.523   2.295
81000SOL    HW244775  11.523   6.560   2.173
81001SOL     OW44776   6.849   4.795  10.925
81001SOL    HW144777   6.912   4.797  10.998
81001SOL    HW244778   6.863   4.878  10.879
81002SOL     OW44779  11.982   9.609   9.675
81002SOL    HW144780  12.001   9.676   9.741
81002SOL    HW244781  11.946   9.536   9.725
81003SOL     OW44782  14.501  13.291  14.388
81003SOL    HW144783  14.412  13.260  14.405
81003SOL    HW244784  14.493  13.387  14.385
81004SOL     OW44785   5.023  13.533   2.801
81004SOL    HW144786   5.032  13.605   2.864
81004SOL    HW244787   5.030  13.576   2.715
81005SOL     OW44788   8.917   7.919  11.955
81005SOL    HW144789   8.972   7.915  12.033
81005SOL    HW244790   8.869   8.001  11.964
81006SOL     OW44791  11.998   6.398   2.879
81006SOL    HW144792  11.944   6.354   2.945
81006SOL    HW244793  11.992   6.491   2.901
81007SOL     OW44794   9.129   8.659   1.303
81007SOL    HW144795   9.062   8.630   1.242
81007SOL    HW244796   9.098   8.630   1.389
81008SOL     OW44797  11.524  12.599   8.138
81008SOL    HW144798  11.583  12.587   8.212
81008SOL    HW244799  11.527  12.693   8.119
81009SOL     OW44800   0.295   4.998   9.787
81009SOL    HW144801   0.323   4.907   9.779
81009SOL    HW244802   0.232   5.010   9.716
81010SOL     OW44803   3.150   9.387   2.142
81010SOL    HW144804   3.230   9.363   2.096
81010SOL    HW244805   3.084   9.326   2.109
81011SOL     OW44806  12.650  14.337   5.408
81011SOL    HW144807  12.591  14.362   5.479
81011SOL    HW244808  12.721  14.290   5.451
81012SOL     OW44809  14.246   8.837   6.410
81012SOL    HW144810  14.280   8.851   6.499
81012SOL    HW244811  14.190   8.760   6.419
81013SOL     OW44812  12.511   0.237  12.716
81013SOL    HW144813  12.496   0.228  12.621
81013SOL    HW244814  12.434   0.195  12.756
81014SOL     OW44815  10.293   9.617   8.614
81014SOL    HW144816  10.297   9.541   8.671
81014SOL    HW244817  10.202   9.648   8.622
81015SOL     OW44818  12.223   2.834   9.827
81015SOL    HW144819  12.165   2.901   9.864
81015SOL    HW244820  12.286   2.884   9.775
81016SOL     OW44821   3.758   2.054   6.394
81016SOL    HW144822   3.771   2.048   6.489
81016SOL    HW244823   3.780   1.966   6.361
81017SOL     OW44824   3.405   7.332  13.642
81017SOL    HW144825   3.371   7.350  13.554
81017SOL    HW244826   3.452   7.413  13.667
81018SOL     OW44827   1.826   7.842   5.780
81018SOL    HW144828   1.824   7.812   5.689
81018SOL    HW244829   1.850   7.934   5.774
81019SOL     OW44830  13.029  12.410  10.608
81019SOL    HW144831  13.005  12.487  10.659
81019SOL    HW244832  12.959  12.401  10.543
81020SOL     OW44833  13.450  13.659   0.236
81020SOL    HW144834  13.373  13.709   0.261
81020SOL    HW244835  13.503  13.721   0.186
81021SOL     OW44836   4.932   5.411  11.713
81021SOL    HW144837   4.947   5.347  11.782
81021SOL    HW244838   4.919   5.494  11.759
81022SOL     OW44839   2.535   4.517   6.253
81022SOL    HW144840   2.455   4.516   6.200
81022SOL    HW244841   2.597   4.567   6.200
81023SOL     OW44842   1.516  11.938   5.997
81023SOL    HW144843   1.596  11.981   5.969
81023SOL    HW244844   1.504  11.966   6.088
81024SOL     OW44845   6.639   4.812   5.317
81024SOL    HW144846   6.571   4.805   5.250
81024SOL    HW244847   6.714   4.850   5.271
81025SOL     OW44848   0.814  11.960   8.369
81025SOL    HW144849   0.888  11.904   8.345
81025SOL    HW244850   0.774  11.984   8.285
81026SOL     OW44851   9.307   9.789   4.349
81026SOL    HW144852   9.397   9.795   4.317
81026SOL    HW244853   9.287   9.696   4.346
81027SOL     OW44854  12.606   9.350   8.070
81027SOL    HW144855  12.618   9.262   8.105
81027SOL    HW244856  12.608   9.407   8.147
81028SOL     OW44857  14.282   8.871   2.466
81028SOL    HW144858  14.330   8.929   2.407
81028SOL    HW244859  14.281   8.918   2.549
81029SOL     OW44860   3.919  13.876   5.266
81029SOL    HW144861   3.946  13.966   5.287
81029SOL    HW244862   3.986  13.844   5.206
81030SOL     OW44863  13.456  11.861   7.811
81030SOL    HW144864  13.502  11.804   7.872
81030SOL    HW244865  13.524  11.918   7.776
81031SOL     OW44866   8.420  11.852   0.118
81031SOL    HW144867   8.460  11.880   0.036
81031SOL    HW244868   8.399  11.760   0.104
81032SOL     OW44869   2.895   3.512   9.831
81032SOL    HW144870   2.968   3.519   9.769
81032SOL    HW244871   2.936   3.514   9.917
81033SOL     OW44872   3.699  13.659   3.229
81033SOL    HW144873   3.686  13.625   3.140
81033SOL    HW244874   3.687  13.584   3.286
81034SOL     OW44875   4.046   0.141  10.873
81034SOL    HW144876   4.132   0.167  10.839
81034SOL    HW244877   4.052   0.158  10.967
81035SOL     OW44878   8.811  12.215   2.844
81035SOL    HW144879   8.800  12.128   2.805
81035SOL    HW244880   8.799  12.201   2.938
81036SOL     OW44881   3.363   2.891  10.490
81036SOL    HW144882   3.409   2.809  10.471
81036SOL    HW244883   3.430   2.959  10.479
81037SOL     OW44884   4.628   0.202   8.802
81037SOL    HW144885   4.635   0.157   8.718
81037SOL    HW244886   4.585   0.138   8.859
81038SOL     OW44887   9.314   7.412   1.425
81038SOL    HW144888   9.277   7.329   1.454
81038SOL    HW244889   9.406   7.406   1.448
81039SOL     OW44890   5.818  10.439   8.251
81039SOL    HW144891   5.794  10.531   8.250
81039SOL    HW244892   5.802  10.411   8.341
81040SOL     OW44893  12.538   5.152   0.696
81040SOL    HW144894  12.599   5.160   0.769
81040SOL    HW244895  12.592   5.119   0.624
81041SOL     OW44896  12.516   1.239  13.989
81041SOL    HW144897  12.466   1.210  14.066
81041SOL    HW244898  12.543   1.328  14.011
81042SOL     OW44899   6.380   6.101  11.715
81042SOL    HW144900   6.429   6.183  11.718
81042SOL    HW244901   6.445   6.034  11.732
81043SOL     OW44902   4.269   8.807  13.711
81043SOL    HW144903   4.261   8.735  13.648
81043SOL    HW244904   4.357   8.800  13.746
81044SOL     OW44905   1.658   7.864   6.191
81044SOL    HW144906   1.587   7.860   6.255
81044SOL    HW244907   1.737   7.876   6.243
81045SOL     OW44908  10.531  11.928   6.955
81045SOL    HW144909  10.618  11.910   6.920
81045SOL    HW244910  10.473  11.868   6.908
81046SOL     OW44911   2.109  14.788   2.604
81046SOL    HW144912   2.194  14.820   2.573
81046SOL    HW244913   2.063  14.764   2.524
81047SOL     OW44914  11.003   1.037  10.423
81047SOL    HW144915  11.050   1.050  10.505
81047SOL    HW244916  11.037   0.954  10.388
81048SOL     OW44917   3.857   0.061   7.635
81048SOL    HW144918   3.825   0.064   7.545
81048SOL    HW244919   3.789   0.012   7.682
81049SOL     OW44920   5.278  10.606  11.609
81049SOL    HW144921   5.286  10.701  11.596
81049SOL    HW244922   5.254  10.596  11.701
81050SOL     OW44923   1.066   1.432  14.716
81050SOL    HW144924   1.086   1.470  14.631
81050SOL    HW244925   1.026   1.503  14.766
81051SOL     OW44926   7.807   3.831   8.483
81051SOL    HW144927   7.838   3.820   8.393
81051SOL    HW244928   7.718   3.867   8.474
81052SOL     OW44929   9.163   2.814   2.164
81052SOL    HW144930   9.074   2.786   2.180
81052SOL    HW244931   9.193   2.850   2.247
81053SOL     OW44932   9.560  10.683  13.528
81053SOL    HW144933   9.621  10.661  13.457
81053SOL    HW244934   9.556  10.778  13.527
81054SOL     OW44935   1.719   8.223   3.322
81054SOL    HW144936   1.714   8.319   3.326
81054SOL    HW244937   1.750   8.204   3.234
81055SOL     OW44938   9.115  12.046   9.521
81055SOL    HW144939   9.181  12.033   9.589
81055SOL    HW244940   9.143  12.125   9.475
81056SOL     OW44941   4.656   4.247   6.387
81056SOL    HW144942   4.722   4.199   6.336
81056SOL    HW244943   4.672   4.339   6.366
81057SOL     OW44944  12.358   6.071   2.467
81057SOL    HW144945  12.439   6.045   2.512
81057SOL    HW244946  12.297   5.999   2.483
81058SOL     OW44947  11.707   3.767   0.864
81058SOL    HW144948  11.668   3.844   0.906
81058SOL    HW244949  11.652   3.694   0.891
81059SOL     OW44950  10.102   7.693  10.667
81059SOL    HW144951  10.075   7.721  10.579
81059SOL    HW244952  10.144   7.608  10.653
81060SOL     OW44953   2.888   0.413   5.748
81060SOL    HW144954   2.893   0.464   5.667
81060SOL    HW244955   2.945   0.460   5.809
81061SOL     OW44956  12.130   7.972   1.916
81061SOL    HW144957  12.124   7.925   1.999
81061SOL    HW244958  12.054   7.944   1.866
81062SOL     OW44959   5.942   0.630  11.190
81062SOL    HW144960   5.973   0.717  11.164
81062SOL    HW244961   5.850   0.644  11.214
81063SOL     OW44962  13.432  12.615   2.961
81063SOL    HW144963  13.412  12.559   2.887
81063SOL    HW244964  13.501  12.569   3.008
81064SOL     OW44965  10.718   5.429  10.966
81064SOL    HW144966  10.745   5.337  10.974
81064SOL    HW244967  10.648   5.427  10.901
81065SOL     OW44968   0.869   7.084   0.033
81065SOL    HW144969   0.786   7.122   0.004
81065SOL    HW244970   0.847   6.995   0.058
81066SOL     OW44971  13.680   7.732  12.693
81066SOL    HW144972  13.589   7.703  12.688
81066SOL    HW244973  13.729   7.666  12.643
81067SOL     OW44974   8.764   8.789   5.190
81067SOL    HW144975   8.744   8.864   5.246
81067SOL    HW244976   8.783   8.827   5.105
81068SOL     OW44977  11.582  13.248   2.014
81068SOL    HW144978  11.582  13.343   2.023
81068SOL    HW244979  11.512  13.217   2.071
81069SOL     OW44980  11.525   3.949   8.232
81069SOL    HW144981  11.443   3.995   8.215
81069SOL    HW244982  11.593   4.016   8.221
81070SOL     OW44983   6.715   6.350   9.316
81070SOL    HW144984   6.636   6.341   9.369
81070SOL    HW244985   6.776   6.285   9.352
81071SOL     OW44986   8.655  11.101  11.060
81071SOL    HW144987   8.738  11.079  11.018
81071SOL    HW244988   8.612  11.161  10.999
81072SOL     OW44989  14.772   7.028   6.562
81072SOL    HW144990  14.794   6.941   6.595
81072SOL    HW244991  14.742   7.076   6.639
81073SOL     OW44992   5.143   4.468   2.101
81073SOL    HW144993   5.051   4.456   2.124
81073SOL    HW244994   5.180   4.380   2.104
81074SOL     OW44995   6.399   9.180   8.079
81074SOL    HW144996   6.383   9.194   7.986
81074SOL    HW244997   6.455   9.102   8.082
81075SOL     OW44998  10.005  13.746   2.336
81075SOL    HW144999   9.940  13.718   2.272
81075SOL    HW245000  10.076  13.785   2.283
81076SOL     OW45001  14.106   7.213   4.609
81076SOL    HW145002  14.146   7.216   4.522
81076SOL    HW245003  14.124   7.299   4.647
81077SOL     OW45004   0.162   2.626  14.742
81077SOL    HW145005   0.254   2.652  14.741
81077SOL    HW245006   0.157   2.553  14.680
81078SOL     OW45007   9.202   0.360   6.210
81078SOL    HW145008   9.153   0.442   6.208
81078SOL    HW245009   9.290   0.384   6.180
81079SOL     OW45010   8.814   4.241  14.734
81079SOL    HW145011   8.743   4.251  14.670
81079SOL    HW245012   8.769   4.218  14.815
81080SOL     OW45013   8.880  13.545   6.817
81080SOL    HW145014   8.910  13.479   6.755
81080SOL    HW245015   8.919  13.627   6.786
81081SOL     OW45016   6.609   3.512   7.615
81081SOL    HW145017   6.600   3.608   7.619
81081SOL    HW245018   6.681   3.498   7.553
81082SOL     OW45019  13.418   2.694   8.357
81082SOL    HW145020  13.513   2.705   8.361
81082SOL    HW245021  13.384   2.759   8.419
81083SOL     OW45022  12.068   5.732   0.368
81083SOL    HW145023  11.979   5.732   0.404
81083SOL    HW245024  12.070   5.810   0.312
81084SOL     OW45025  12.162  10.296   6.606
81084SOL    HW145026  12.117  10.212   6.612
81084SOL    HW245027  12.217  10.287   6.527
81085SOL     OW45028   9.553   5.416   5.248
81085SOL    HW145029   9.629   5.397   5.303
81085SOL    HW245030   9.511   5.491   5.290
81086SOL     OW45031   1.284  14.321   1.079
81086SOL    HW145032   1.247  14.346   0.994
81086SOL    HW245033   1.365  14.274   1.056
81087SOL     OW45034   2.786   1.494   9.496
81087SOL    HW145035   2.800   1.580   9.457
81087SOL    HW245036   2.849   1.490   9.568
81088SOL     OW45037  13.844   2.515  14.823
81088SOL    HW145038  13.763   2.469  14.800
81088SOL    HW245039  13.843   2.517   0.042
81089SOL     OW45040   2.158   8.285   6.467
81089SOL    HW145041   2.155   8.373   6.430
81089SOL    HW245042   2.134   8.227   6.395
81090SOL     OW45043   5.703  14.289   6.586
81090SOL    HW145044   5.763  14.237   6.532
81090SOL    HW245045   5.745  14.294   6.671
81091SOL     OW45046   6.836   1.568   3.750
81091SOL    HW145047   6.926   1.540   3.765
81091SOL    HW245048   6.838   1.662   3.767
81092SOL     OW45049  10.161   0.864   3.201
81092SOL    HW145050  10.117   0.886   3.283
81092SOL    HW245051  10.223   0.935   3.187
81093SOL     OW45052  11.975   9.514   3.223
81093SOL    HW145053  11.993   9.608   3.230
81093SOL    HW245054  11.974   9.497   3.129
81094SOL     OW45055  10.053  13.248   4.006
81094SOL    HW145056  10.009  13.208   4.082
81094SOL    HW245057  10.048  13.342   4.022
81095SOL     OW45058   6.811  11.371   7.935
81095SOL    HW145059   6.744  11.359   7.868
81095SOL    HW245060   6.764  11.360   8.018
81096SOL     OW45061   9.141   0.029  13.457
81096SOL    HW145062   9.194  14.846  13.509
81096SOL    HW245063   9.055   0.029  13.500
81097SOL     OW45064  13.331  13.541  11.470
81097SOL    HW145065  13.338  13.586  11.554
81097SOL    HW245066  13.286  13.459  11.490
81098SOL     OW45067   7.322   0.642   8.596
81098SOL    HW145068   7.276   0.610   8.518
81098SOL    HW245069   7.411   0.660   8.565
81099SOL     OW45070   4.569   0.388  14.337
81099SOL    HW145071   4.650   0.344  14.311
81099SOL    HW245072   4.554   0.362  14.428
81100SOL     OW45073   8.615   3.002   1.059
81100SOL    HW145074   8.686   2.989   0.997
81100SOL    HW245075   8.568   2.919   1.060
81101SOL     OW45076   5.525   7.618   4.457
81101SOL    HW145077   5.443   7.629   4.503
81101SOL    HW245078   5.592   7.621   4.525
81102SOL     OW45079  11.156  10.187   5.521
81102SOL    HW145080  11.196  10.101   5.505
81102SOL    HW245081  11.222  10.236   5.570
81103SOL     OW45082   8.030   1.639   5.626
81103SOL    HW145083   8.083   1.716   5.649
81103SOL    HW245084   7.987   1.664   5.544
81104SOL     OW45085   4.028   1.558   1.300
81104SOL    HW145086   4.103   1.501   1.321
81104SOL    HW245087   4.035   1.574   1.206
81105SOL     OW45088   9.137   0.598   1.592
81105SOL    HW145089   9.102   0.685   1.573
81105SOL    HW245090   9.096   0.541   1.527
81106SOL     OW45091  12.262   3.092  13.630
81106SOL    HW145092  12.173   3.075  13.662
81106SOL    HW245093  12.319   3.050  13.694
81107SOL     OW45094  11.755   8.636   0.988
81107SOL    HW145095  11.826   8.580   0.956
81107SOL    HW245096  11.706   8.580   1.049
81108SOL     OW45097  12.030   6.191   2.737
81108SOL    HW145098  12.018   6.253   2.808
81108SOL    HW245099  12.112   6.217   2.696
81109SOL     OW45100   5.304  11.024   8.343
81109SOL    HW145101   5.210  11.040   8.330
81109SOL    HW245102   5.340  11.109   8.366
81110SOL     OW45103  13.230   0.748  10.900
81110SOL    HW145104  13.195   0.742  10.989
81110SOL    HW245105  13.200   0.833  10.868
81111SOL     OW45106   2.292   3.940  13.010
81111SOL    HW145107   2.280   3.847  13.031
81111SOL    HW245108   2.228   3.985  13.065
81112SOL     OW45109  12.225   4.959  14.609
81112SOL    HW145110  12.283   4.883  14.618
81112SOL    HW245111  12.168   4.955  14.686
81113SOL     OW45112  13.007   9.822  13.786
81113SOL    HW145113  12.976   9.735  13.810
81113SOL    HW245114  13.086   9.835  13.838
81114SOL     OW45115  10.186   9.119   5.502
81114SOL    HW145116  10.146   9.033   5.510
81114SOL    HW245117  10.256   9.119   5.568
81115SOL     OW45118  10.920   0.471  14.708
81115SOL    HW145119  10.904   0.445  14.617
81115SOL    HW245120  10.980   0.405  14.742
81116SOL     OW45121  14.670   2.218   3.048
81116SOL    HW145122  14.587   2.178   3.022
81116SOL    HW245123  14.685   2.286   2.984
81117SOL     OW45124   6.111   5.568   4.287
81117SOL    HW145125   6.161   5.537   4.212
81117SOL    HW245126   6.161   5.538   4.363
81118SOL     OW45127   2.183   1.048   4.279
81118SOL    HW145128   2.187   1.117   4.214
81118SOL    HW245129   2.210   1.090   4.361
81119SOL     OW45130   7.209   1.078  14.068
81119SOL    HW145131   7.242   1.035  13.990
81119SOL    HW245132   7.176   1.163  14.037
81120SOL     OW45133   4.002  11.040   9.189
81120SOL    HW145134   4.067  11.032   9.259
81120SOL    HW245135   3.956  11.122   9.208
81121SOL     OW45136   3.944   2.634  11.508
81121SOL    HW145137   3.918   2.621  11.599
81121SOL    HW245138   3.913   2.721  11.486
81122SOL     OW45139  12.592   7.847   0.113
81122SOL    HW145140  12.601   7.760   0.073
81122SOL    HW245141  12.498   7.856   0.128
81123SOL     OW45142   6.654   8.401   0.246
81123SOL    HW145143   6.589   8.391   0.176
81123SOL    HW245144   6.651   8.494   0.268
81124SOL     OW45145   6.853  12.682  10.809
81124SOL    HW145146   6.814  12.694  10.722
81124SOL    HW245147   6.907  12.604  10.800
81125SOL     OW45148  13.122   5.517   4.708
81125SOL    HW145149  13.053   5.568   4.664
81125SOL    HW245150  13.074   5.457   4.766
81126SOL     OW45151   8.021   3.301  14.361
81126SOL    HW145152   8.064   3.247  14.427
81126SOL    HW245153   7.959   3.241  14.318
81127SOL     OW45154  12.985  11.821  14.691
81127SOL    HW145155  13.066  11.862  14.660
81127SOL    HW245156  12.949  11.778  14.613
81128SOL     OW45157   6.334   5.858  12.303
81128SOL    HW145158   6.336   5.940  12.253
81128SOL    HW245159   6.375   5.879  12.386
81129SOL     OW45160   2.810   5.173  12.210
81129SOL    HW145161   2.808   5.080  12.188
81129SOL    HW245162   2.747   5.182  12.281
81130SOL     OW45163   5.851   8.086  11.947
81130SOL    HW145164   5.888   8.123  12.027
81130SOL    HW245165   5.926   8.048  11.901
81131SOL     OW45166   1.886   2.284   4.703
81131SOL    HW145167   1.795   2.257   4.717
81131SOL    HW245168   1.929   2.204   4.671
81132SOL     OW45169   5.783  13.505  14.444
81132SOL    HW145170   5.724  13.542  14.509
81132SOL    HW245171   5.725  13.464  14.380
81133SOL     OW45172  10.373  11.368   5.912
81133SOL    HW145173  10.390  11.376   5.818
81133SOL    HW245174  10.389  11.276   5.931
81134SOL     OW45175  10.493   9.561   0.292
81134SOL    HW145176  10.496   9.629   0.225
81134SOL    HW245177  10.476   9.609   0.374
81135SOL     OW45178  11.831  13.367   1.927
81135SOL    HW145179  11.738  13.356   1.946
81135SOL    HW245180  11.875  13.358   2.012
81136SOL     OW45181  10.387   3.958  13.607
81136SOL    HW145182  10.342   3.880  13.573
81136SOL    HW245183  10.332   4.031  13.580
81137SOL     OW45184  14.135   0.193   2.417
81137SOL    HW145185  14.225   0.180   2.446
81137SOL    HW245186  14.081   0.157   2.488
81138SOL     OW45187   3.599  10.174   7.090
81138SOL    HW145188   3.561  10.089   7.071
81138SOL    HW245189   3.669  10.184   7.024
81139SOL     OW45190   3.851   5.308   0.787
81139SOL    HW145191   3.809   5.332   0.705
81139SOL    HW245192   3.874   5.216   0.777
81140SOL     OW45193  13.842   6.686   1.445
81140SOL    HW145194  13.794   6.614   1.486
81140SOL    HW245195  13.921   6.695   1.497
81141SOL     OW45196   5.452  11.656   7.908
81141SOL    HW145197   5.495  11.704   7.837
81141SOL    HW245198   5.470  11.708   7.986
81142SOL     OW45199  10.578   7.405   4.102
81142SOL    HW145200  10.655   7.368   4.061
81142SOL    HW245201  10.513   7.411   4.032
81143SOL     OW45202   9.958   0.876   6.832
81143SOL    HW145203   9.912   0.806   6.879
81143SOL    HW245204   9.989   0.935   6.901
81144SOL     OW45205  14.234  12.986  13.142
81144SOL    HW145206  14.281  13.027  13.215
81144SOL    HW245207  14.142  12.998  13.163
81145SOL     OW45208   0.414   2.087  11.246
81145SOL    HW145209   0.373   2.153  11.190
81145SOL    HW245210   0.499   2.125  11.270
81146SOL     OW45211   2.269  13.415  11.599
81146SOL    HW145212   2.186  13.367  11.606
81146SOL    HW245213   2.246  13.498  11.557
81147SOL     OW45214  12.836   0.345  14.605
81147SOL    HW145215  12.764   0.296  14.566
81147SOL    HW245216  12.914   0.310  14.561
81148SOL     OW45217   0.732   8.311  12.666
81148SOL    HW145218   0.668   8.374  12.632
81148SOL    HW245219   0.788   8.291  12.591
81149SOL     OW45220   6.918  11.103   6.887
81149SOL    HW145221   6.993  11.082   6.942
81149SOL    HW245222   6.878  11.179   6.929
81150SOL     OW45223  11.100   4.153   4.706
81150SOL    HW145224  11.174   4.116   4.754
81150SOL    HW245225  11.022   4.121   4.752
81151SOL     OW45226   2.631  13.520   2.832
81151SOL    HW145227   2.541  13.515   2.799
81151SOL    HW245228   2.636  13.451   2.898
81152SOL     OW45229   1.882   9.462   2.614
81152SOL    HW145230   1.827   9.521   2.666
81152SOL    HW245231   1.832   9.380   2.610
81153SOL     OW45232   3.981   1.859   1.324
81153SOL    HW145233   3.971   1.784   1.382
81153SOL    HW245234   3.931   1.836   1.246
81154SOL     OW45235   6.372  10.328   7.200
81154SOL    HW145236   6.359  10.314   7.294
81154SOL    HW245237   6.410  10.415   7.193
81155SOL     OW45238   4.942   3.128   3.558
81155SOL    HW145239   4.848   3.140   3.567
81155SOL    HW245240   4.954   3.099   3.468
81156SOL     OW45241   1.194  14.290   8.517
81156SOL    HW145242   1.281  14.253   8.531
81156SOL    HW245243   1.150  14.280   8.601
81157SOL     OW45244   1.243   2.525  14.581
81157SOL    HW145245   1.199   2.440  14.585
81157SOL    HW245246   1.204   2.575  14.653
81158SOL     OW45247   8.441   4.144   7.054
81158SOL    HW145248   8.372   4.199   7.091
81158SOL    HW245249   8.414   4.054   7.075
81159SOL     OW45250   6.693   2.275   4.789
81159SOL    HW145251   6.648   2.269   4.705
81159SOL    HW245252   6.784   2.292   4.766
81160SOL     OW45253   0.878   0.301   4.899
81160SOL    HW145254   0.862   0.367   4.967
81160SOL    HW245255   0.869   0.350   4.817
81161SOL     OW45256   0.665  10.123  11.754
81161SOL    HW145257   0.693  10.034  11.733
81161SOL    HW245258   0.595  10.111  11.818
81162SOL     OW45259  13.719  13.336   5.059
81162SOL    HW145260  13.687  13.381   4.980
81162SOL    HW245261  13.721  13.404   5.126
81163SOL     OW45262   2.849   5.895  10.599
81163SOL    HW145263   2.911   5.822  10.592
81163SOL    HW245264   2.880   5.946  10.673
81164SOL     OW45265  11.578  14.560  11.290
81164SOL    HW145266  11.600  14.631  11.229
81164SOL    HW245267  11.642  14.567  11.360
81165SOL     OW45268   8.192   7.179   5.057
81165SOL    HW145269   8.236   7.259   5.085
81165SOL    HW245270   8.190   7.124   5.135
81166SOL     OW45271   4.602   2.004  13.240
81166SOL    HW145272   4.521   1.976  13.284
81166SOL    HW245273   4.625   1.930  13.184
81167SOL     OW45274  14.586  12.836   4.258
81167SOL    HW145275  14.583  12.931   4.251
81167SOL    HW245276  14.679  12.814   4.252
81168SOL     OW45277   3.585   9.312   7.468
81168SOL    HW145278   3.630   9.262   7.536
81168SOL    HW245279   3.576   9.400   7.504
81169SOL     OW45280   5.541  13.671   5.009
81169SOL    HW145281   5.446  13.665   4.996
81169SOL    HW245282   5.570  13.580   5.008
81170SOL     OW45283   3.015   8.150   2.853
81170SOL    HW145284   3.012   8.193   2.768
81170SOL    HW245285   3.032   8.058   2.833
81171SOL     OW45286   8.347   6.122   8.617
81171SOL    HW145287   8.433   6.162   8.602
81171SOL    HW245288   8.284   6.189   8.591
81172SOL     OW45289   2.958  12.835   4.042
81172SOL    HW145290   2.903  12.760   4.065
81172SOL    HW245291   3.025  12.799   3.983
81173SOL     OW45292  14.373  10.434   8.243
81173SOL    HW145293  14.324  10.502   8.195
81173SOL    HW245294  14.354  10.353   8.196
81174SOL     OW45295   3.001  12.623   6.654
81174SOL    HW145296   3.086  12.578   6.657
81174SOL    HW245297   2.967  12.617   6.743
81175SOL     OW45298   8.580   3.974   1.495
81175SOL    HW145299   8.526   3.930   1.429
81175SOL    HW245300   8.556   3.933   1.578
81176SOL     OW45301   5.322  13.777   8.277
81176SOL    HW145302   5.363  13.766   8.192
81176SOL    HW245303   5.228  13.772   8.260
81177SOL     OW45304   5.427  13.236  10.559
81177SOL    HW145305   5.483  13.265  10.631
81177SOL    HW245306   5.393  13.317  10.521
81178SOL     OW45307   2.996  13.239   6.716
81178SOL    HW145308   2.962  13.280   6.637
81178SOL    HW245309   2.940  13.162   6.730
81179SOL     OW45310   7.736  10.301   5.922
81179SOL    HW145311   7.815  10.338   5.963
81179SOL    HW245312   7.765  10.273   5.836
81180SOL     OW45313   7.410   2.181  12.035
81180SOL    HW145314   7.445   2.255  11.985
81180SOL    HW245315   7.430   2.202  12.126
81181SOL     OW45316  10.740  10.569  14.788
81181SOL    HW145317  10.644  10.577  14.785
81181SOL    HW245318  10.759  10.494  14.731
81182SOL     OW45319  11.740   1.789   8.302
81182SOL    HW145320  11.765   1.785   8.210
81182SOL    HW245321  11.790   1.718   8.343
81183SOL     OW45322   4.269   4.640   6.889
81183SOL    HW145323   4.252   4.621   6.981
81183SOL    HW245324   4.327   4.716   6.890
81184SOL     OW45325   4.149   9.539  13.518
81184SOL    HW145326   4.088   9.473  13.552
81184SOL    HW245327   4.236   9.506  13.542
81185SOL     OW45328   0.008   2.030   3.145
81185SOL    HW145329  14.824   2.104   3.143
81185SOL    HW245330   0.047   2.029   3.058
81186SOL     OW45331   4.260   3.895   1.883
81186SOL    HW145332   4.312   3.969   1.916
81186SOL    HW245333   4.321   3.846   1.828
81187SOL     OW45334   7.182  14.239  14.700
81187SOL    HW145335   7.251  14.299  14.674
81187SOL    HW245336   7.152  14.199  14.619
81188SOL     OW45337   7.313  12.511   2.744
81188SOL    HW145338   7.363  12.591   2.734
81188SOL    HW245339   7.360  12.446   2.692
81189SOL     OW45340   8.859  10.625  12.266
81189SOL    HW145341   8.935  10.567  12.275
81189SOL    HW245342   8.786  10.566  12.248
81190SOL     OW45343   4.652  13.606   2.781
81190SOL    HW145344   4.676  13.680   2.837
81190SOL    HW245345   4.647  13.532   2.841
81191SOL     OW45346   5.147   9.880   7.249
81191SOL    HW145347   5.201   9.806   7.220
81191SOL    HW245348   5.185   9.906   7.333
81192SOL     OW45349   5.876   4.205   9.257
81192SOL    HW145350   5.810   4.260   9.215
81192SOL    HW245351   5.888   4.131   9.197
81193SOL     OW45352   4.183   2.269   7.725
81193SOL    HW145353   4.267   2.228   7.745
81193SOL    HW245354   4.175   2.260   7.630
81194SOL     OW45355  12.707  10.815   1.001
81194SOL    HW145356  12.650  10.859   0.937
81194SOL    HW245357  12.677  10.847   1.086
81195SOL     OW45358   4.445   2.533   2.443
81195SOL    HW145359   4.395   2.592   2.385
81195SOL    HW245360   4.380   2.472   2.476
81196SOL     OW45361   3.269   6.074   6.354
81196SOL    HW145362   3.183   6.066   6.394
81196SOL    HW245363   3.251   6.104   6.264
81197SOL     OW45364   0.068   1.146   5.428
81197SOL    HW145365   0.024   1.118   5.508
81197SOL    HW245366   0.156   1.109   5.435
81198SOL     OW45367   5.757   5.007   3.877
81198SOL    HW145368   5.797   4.920   3.882
81198SOL    HW245369   5.830   5.068   3.887
81199SOL     OW45370   1.298  14.853  13.231
81199SOL    HW145371   1.371  14.855  13.169
81199SOL    HW245372   1.285   0.067  13.255
81200SOL     OW45373   8.705   1.599  13.169
81200SOL    HW145374   8.777   1.591  13.231
81200SOL    HW245375   8.687   1.509  13.141
81201SOL     OW45376   3.191   2.804  11.788
81201SOL    HW145377   3.263   2.860  11.816
81201SOL    HW245378   3.233   2.726  11.754
81202SOL     OW45379   2.724   0.262   9.943
81202SOL    HW145380   2.677   0.230  10.020
81202SOL    HW245381   2.811   0.286   9.976
81203SOL     OW45382   7.635  13.377   3.947
81203SOL    HW145383   7.726  13.348   3.938
81203SOL    HW245384   7.587  13.297   3.967
81204SOL     OW45385  13.634  10.404   6.155
81204SOL    HW145386  13.643  10.462   6.231
81204SOL    HW245387  13.676  10.452   6.084
81205SOL     OW45388   7.445   4.029  14.312
81205SOL    HW145389   7.535   3.998  14.310
81205SOL    HW245390   7.450   4.115  14.355
81206SOL     OW45391   9.836   1.973   9.207
81206SOL    HW145392   9.886   2.000   9.283
81206SOL    HW245393   9.753   2.019   9.214
81207SOL     OW45394  14.384   2.596   1.434
81207SOL    HW145395  14.357   2.635   1.517
81207SOL    HW245396  14.465   2.640   1.411
81208SOL     OW45397  14.184  11.561   3.519
81208SOL    HW145398  14.145  11.500   3.582
81208SOL    HW245399  14.111  11.618   3.494
81209SOL     OW45400   7.904  12.798   1.179
81209SOL    HW145401   7.907  12.735   1.251
81209SOL    HW245402   7.995  12.823   1.165
81210SOL     OW45403   2.529  10.154  13.392
81210SOL    HW145404   2.478  10.082  13.354
81210SOL    HW245405   2.484  10.173  13.474
81211SOL     OW45406  10.852   5.492   6.424
81211SOL    HW145407  10.805   5.537   6.494
81211SOL    HW245408  10.788   5.431   6.387
81212SOL     OW45409   3.899  14.279   1.359
81212SOL    HW145410   3.960  14.328   1.304
81212SOL    HW245411   3.952  14.245   1.431
81213SOL     OW45412  13.326   4.529  13.680
81213SOL    HW145413  13.396   4.592  13.697
81213SOL    HW245414  13.354   4.483  13.601
81214SOL     OW45415  10.482   8.628   2.608
81214SOL    HW145416  10.576   8.648   2.599
81214SOL    HW245417  10.442   8.710   2.635
81215SOL     OW45418   7.475   9.606   4.990
81215SOL    HW145419   7.524   9.678   4.951
81215SOL    HW245420   7.385   9.638   4.996
81216SOL     OW45421   4.984   8.227  10.278
81216SOL    HW145422   4.922   8.299  10.290
81216SOL    HW245423   4.930   8.149  10.273
81217SOL     OW45424   5.974   8.175   2.164
81217SOL    HW145425   6.063   8.157   2.131
81217SOL    HW245426   5.918   8.166   2.086
81218SOL     OW45427   1.216   7.119   5.822
81218SOL    HW145428   1.180   7.110   5.911
81218SOL    HW245429   1.139   7.127   5.766
81219SOL     OW45430  10.546   2.071  11.105
81219SOL    HW145431  10.510   2.147  11.060
81219SOL    HW245432  10.637   2.066  11.077
81220SOL     OW45433   9.223  12.671   3.638
81220SOL    HW145434   9.295  12.636   3.586
81220SOL    HW245435   9.177  12.594   3.672
81221SOL     OW45436  13.455   9.501   7.708
81221SOL    HW145437  13.494   9.480   7.623
81221SOL    HW245438  13.518   9.469   7.772
81222SOL     OW45439   7.568   5.814  12.721
81222SOL    HW145440   7.474   5.797  12.716
81222SOL    HW245441   7.604   5.735  12.762
81223SOL     OW45442  11.318  14.551   0.009
81223SOL    HW145443  11.307  14.501   0.090
81223SOL    HW245444  11.394  14.606   0.025
81224SOL     OW45445  13.973   9.145   5.135
81224SOL    HW145446  13.956   9.231   5.096
81224SOL    HW245447  13.926   9.146   5.218
81225SOL     OW45448  10.886   8.893   6.316
81225SOL    HW145449  10.893   8.923   6.407
81225SOL    HW245450  10.826   8.956   6.275
81226SOL     OW45451   3.117  10.911  12.594
81226SOL    HW145452   3.191  10.948  12.641
81226SOL    HW245453   3.058  10.879  12.662
81227SOL     OW45454  13.318   5.117   9.427
81227SOL    HW145455  13.334   5.025   9.404
81227SOL    HW245456  13.315   5.162   9.343
81228SOL     OW45457   7.694  13.208  11.209
81228SOL    HW145458   7.734  13.249  11.286
81228SOL    HW245459   7.757  13.141  11.182
81229SOL     OW45460   0.398   1.687   7.254
81229SOL    HW145461   0.396   1.599   7.291
81229SOL    HW245462   0.471   1.730   7.298
81230SOL     OW45463   0.320  11.714   1.043
81230SOL    HW145464   0.301  11.769   0.966
81230SOL    HW245465   0.238  11.670   1.062
81231SOL     OW45466   6.138   4.515   9.762
81231SOL    HW145467   6.052   4.475   9.749
81231SOL    HW245468   6.199   4.454   9.721
81232SOL     OW45469   4.357   1.729  14.541
81232SOL    HW145470   4.436   1.771  14.573
81232SOL    HW245471   4.382   1.638  14.527
81233SOL     OW45472  10.113  10.427   5.729
81233SOL    HW145473  10.110  10.387   5.641
81233SOL    HW245474  10.028  10.468   5.740
81234SOL     OW45475  11.579  12.460   3.617
81234SOL    HW145476  11.581  12.375   3.573
81234SOL    HW245477  11.551  12.441   3.706
81235SOL     OW45478  12.372  11.960   6.385
81235SOL    HW145479  12.448  11.945   6.442
81235SOL    HW245480  12.360  12.054   6.385
81236SOL     OW45481  13.371  14.270   7.019
81236SOL    HW145482  13.445  14.289   7.077
81236SOL    HW245483  13.340  14.184   7.047
81237SOL     OW45484   5.421   7.749   3.215
81237SOL    HW145485   5.442   7.780   3.303
81237SOL    HW245486   5.469   7.666   3.207
81238SOL     OW45487  12.479  14.526   5.290
81238SOL    HW145488  12.390  14.527   5.326
81238SOL    HW245489  12.520  14.449   5.330
81239SOL     OW45490   0.702  10.669   4.181
81239SOL    HW145491   0.746  10.633   4.104
81239SOL    HW245492   0.610  10.646   4.169
81240SOL     OW45493  14.485   3.518   2.892
81240SOL    HW145494  14.418   3.451   2.878
81240SOL    HW245495  14.505   3.551   2.805
81241SOL     OW45496   4.664   8.817   4.699
81241SOL    HW145497   4.616   8.867   4.633
81241SOL    HW245498   4.748   8.798   4.658
81242SOL     OW45499  14.238   1.112   8.515
81242SOL    HW145500  14.331   1.121   8.535
81242SOL    HW245501  14.235   1.091   8.422
81243SOL     OW45502  14.875   8.340  10.744
81243SOL    HW145503   0.061   8.402  10.708
81243SOL    HW245504  14.801   8.344  10.684
81244SOL     OW45505   9.004   1.268  14.389
81244SOL    HW145506   8.912   1.244  14.398
81244SOL    HW245507   9.051   1.199  14.435
81245SOL     OW45508   2.959  12.894   0.855
81245SOL    HW145509   2.988  12.819   0.803
81245SOL    HW245510   2.944  12.963   0.790
81246SOL     OW45511   6.628   6.292   8.426
81246SOL    HW145512   6.620   6.375   8.379
81246SOL    HW245513   6.707   6.301   8.480
81247SOL     OW45514   5.008   0.552   8.583
81247SOL    HW145515   4.929   0.511   8.549
81247SOL    HW245516   5.072   0.546   8.512
81248SOL     OW45517  12.402  11.192   3.827
81248SOL    HW145518  12.323  11.171   3.777
81248SOL    HW245519  12.470  11.202   3.761
81249SOL     OW45520   3.600   1.495   7.453
81249SOL    HW145521   3.541   1.565   7.425
81249SOL    HW245522   3.651   1.533   7.524
81250SOL     OW45523   5.792   2.767   8.473
81250SOL    HW145524   5.808   2.746   8.381
81250SOL    HW245525   5.850   2.708   8.521
81251SOL     OW45526   5.363   5.472  12.283
81251SOL    HW145527   5.317   5.450  12.201
81251SOL    HW245528   5.456   5.465  12.260
81252SOL     OW45529   3.242   9.817  12.164
81252SOL    HW145530   3.283   9.841  12.081
81252SOL    HW245531   3.300   9.854  12.231
81253SOL     OW45532   4.998   1.318   4.082
81253SOL    HW145533   5.023   1.233   4.117
81253SOL    HW245534   4.909   1.305   4.049
81254SOL     OW45535   4.486  12.675  12.372
81254SOL    HW145536   4.544  12.695  12.446
81254SOL    HW245537   4.508  12.741  12.306
81255SOL     OW45538   2.268  11.817  14.864
81255SOL    HW145539   2.303  11.901  14.834
81255SOL    HW245540   2.174  11.822  14.844
81256SOL     OW45541   6.681   1.291   2.553
81256SOL    HW145542   6.699   1.215   2.607
81256SOL    HW245543   6.697   1.366   2.610
81257SOL     OW45544   4.925   8.077   3.020
81257SOL    HW145545   4.988   8.108   3.084
81257SOL    HW245546   4.966   8.000   2.980
81258SOL     OW45547   9.486   4.812  14.077
81258SOL    HW145548   9.393   4.829  14.066
81258SOL    HW245549   9.518   4.887  14.126
81259SOL     OW45550   7.882   6.101   2.536
81259SOL    HW145551   7.826   6.057   2.601
81259SOL    HW245552   7.966   6.111   2.580
81260SOL     OW45553   1.091   5.400  12.050
81260SOL    HW145554   1.183   5.378  12.033
81260SOL    HW245555   1.046   5.378  11.968
81261SOL     OW45556  10.405   9.428  12.540
81261SOL    HW145557  10.352   9.507  12.551
81261SOL    HW245558  10.410   9.391  12.628
81262SOL     OW45559  11.968  13.155   9.113
81262SOL    HW145560  11.992  13.100   9.039
81262SOL    HW245561  11.981  13.100   9.190
81263SOL     OW45562   8.954   8.821  11.618
81263SOL    HW145563   9.035   8.840  11.570
81263SOL    HW245564   8.899   8.898  11.604
81264SOL     OW45565   2.633   3.337   2.492
81264SOL    HW145566   2.561   3.286   2.455
81264SOL    HW245567   2.702   3.273   2.508
81265SOL     OW45568  12.368   7.172   6.330
81265SOL    HW145569  12.306   7.121   6.382
81265SOL    HW245570  12.330   7.259   6.327
81266SOL     OW45571   6.823   4.674   5.539
81266SOL    HW145572   6.877   4.684   5.461
81266SOL    HW245573   6.872   4.720   5.607
81267SOL     OW45574   2.691  10.090  13.136
81267SOL    HW145575   2.659  10.179  13.155
81267SOL    HW245576   2.782  10.103  13.107
81268SOL     OW45577  14.260   8.369   2.640
81268SOL    HW145578  14.297   8.457   2.628
81268SOL    HW245579  14.286   8.345   2.729
81269SOL     OW45580  12.959   6.737   6.715
81269SOL    HW145581  12.911   6.774   6.641
81269SOL    HW245582  12.970   6.645   6.693
81270SOL     OW45583   1.911   9.420  12.727
81270SOL    HW145584   1.822   9.431  12.692
81270SOL    HW245585   1.907   9.337  12.775
81271SOL     OW45586   7.021  13.309   2.972
81271SOL    HW145587   6.967  13.365   3.027
81271SOL    HW245588   7.068  13.370   2.915
81272SOL     OW45589  12.486   7.404   9.394
81272SOL    HW145590  12.523   7.331   9.444
81272SOL    HW245591  12.483   7.476   9.457
81273SOL     OW45592   2.395  12.918   5.343
81273SOL    HW145593   2.409  12.989   5.280
81273SOL    HW245594   2.461  12.932   5.411
81274SOL     OW45595   8.844   8.124  12.197
81274SOL    HW145596   8.919   8.165  12.240
81274SOL    HW245597   8.809   8.063  12.262
81275SOL     OW45598   8.147   0.376   6.200
81275SOL    HW145599   8.218   0.322   6.165
81275SOL    HW245600   8.168   0.465   6.171
81276SOL     OW45601   0.653  12.889  14.388
81276SOL    HW145602   0.605  12.962  14.350
81276SOL    HW245603   0.586  12.823  14.406
81277SOL     OW45604  13.363  14.831   7.236
81277SOL    HW145605  13.342  14.738   7.242
81277SOL    HW245606  13.336  14.868   7.320
81278SOL     OW45607   8.070   1.194   5.225
81278SOL    HW145608   8.148   1.237   5.189
81278SOL    HW245609   8.105   1.131   5.288
81279SOL     OW45610   5.211   9.200  13.771
81279SOL    HW145611   5.182   9.239  13.689
81279SOL    HW245612   5.294   9.158  13.749
81280SOL     OW45613  14.001   2.616   7.656
81280SOL    HW145614  13.924   2.601   7.600
81280SOL    HW245615  14.042   2.530   7.663
81281SOL     OW45616   2.139   4.695   5.866
81281SOL    HW145617   2.052   4.656   5.855
81281SOL    HW245618   2.129   4.756   5.938
81282SOL     OW45619  13.852   1.413   2.688
81282SOL    HW145620  13.901   1.338   2.721
81282SOL    HW245621  13.909   1.451   2.621
81283SOL     OW45622  12.354  14.865   3.659
81283SOL    HW145623  12.271  14.819   3.645
81283SOL    HW245624  12.347   0.022   3.748
81284SOL     OW45625  11.327  14.309   5.837
81284SOL    HW145626  11.275  14.380   5.801
81284SOL    HW245627  11.402  14.302   5.777
81285SOL     OW45628  14.661   3.698   7.516
81285SOL    HW145629  14.725   3.637   7.553
81285SOL    HW245630  14.698   3.723   7.431
81286SOL     OW45631   9.604  14.143   1.760
81286SOL    HW145632   9.513  14.162   1.784
81286SOL    HW245633   9.656  14.210   1.805
81287SOL     OW45634  13.575   8.332   9.550
81287SOL    HW145635  13.632   8.387   9.496
81287SOL    HW245636  13.487   8.363   9.529
81288SOL     OW45637  14.767   3.846  10.700
81288SOL    HW145638  14.696   3.910  10.709
81288SOL    HW245639  14.724   3.766  10.670
81289SOL     OW45640   4.638   9.004   6.419
81289SOL    HW145641   4.620   9.031   6.509
81289SOL    HW245642   4.730   9.026   6.405
81290SOL     OW45643   4.199  11.180   7.198
81290SOL    HW145644   4.257  11.117   7.155
81290SOL    HW245645   4.112  11.141   7.193
81291SOL     OW45646   7.374   4.593   6.889
81291SOL    HW145647   7.285   4.624   6.877
81291SOL    HW245648   7.365   4.515   6.944
81292SOL     OW45649  10.077   0.913   6.026
81292SOL    HW145650  10.091   0.821   6.050
81292SOL    HW245651  10.156   0.936   5.977
81293SOL     OW45652   4.027  11.120   9.830
81293SOL    HW145653   4.011  11.201   9.878
81293SOL    HW245654   4.118  11.126   9.801
81294SOL     OW45655   8.460   1.219  12.314
81294SOL    HW145656   8.378   1.241  12.269
81294SOL    HW245657   8.433   1.162  12.386
81295SOL     OW45658   8.597   8.171  14.154
81295SOL    HW145659   8.538   8.215  14.093
81295SOL    HW245660   8.673   8.146  14.101
81296SOL     OW45661   1.507   9.025   3.727
81296SOL    HW145662   1.588   9.066   3.756
81296SOL    HW245663   1.443   9.050   3.794
81297SOL     OW45664   4.931   4.544  14.297
81297SOL    HW145665   4.913   4.464  14.248
81297SOL    HW245666   4.890   4.613  14.245
81298SOL     OW45667   4.006   0.834   3.561
81298SOL    HW145668   3.969   0.802   3.479
81298SOL    HW245669   3.965   0.779   3.629
81299SOL     OW45670  12.231  14.836   7.470
81299SOL    HW145671  12.297   0.024   7.493
81299SOL    HW245672  12.276  14.752   7.477
81300SOL     OW45673   5.687   1.967   9.300
81300SOL    HW145674   5.671   2.009   9.385
81300SOL    HW245675   5.602   1.930   9.276
81301SOL     OW45676   9.863  14.542   2.904
81301SOL    HW145677   9.908  14.537   2.988
81301SOL    HW245678   9.780  14.585   2.924
81302SOL     OW45679   9.180   0.576   3.018
81302SOL    HW145680   9.149   0.570   2.928
81302SOL    HW245681   9.138   0.654   3.053
81303SOL     OW45682   1.497   5.521   5.483
81303SOL    HW145683   1.577   5.552   5.524
81303SOL    HW245684   1.515   5.430   5.461
81304SOL     OW45685   8.246   1.275  11.310
81304SOL    HW145686   8.158   1.301  11.338
81304SOL    HW245687   8.294   1.263  11.392
81305SOL     OW45688  13.103   2.780   2.177
81305SOL    HW145689  13.158   2.843   2.224
81305SOL    HW245690  13.044   2.835   2.124
81306SOL     OW45691   2.390   8.944  14.005
81306SOL    HW145692   2.368   9.037  14.009
81306SOL    HW245693   2.305   8.900  13.998
81307SOL     OW45694  12.719   7.422   4.730
81307SOL    HW145695  12.684   7.389   4.813
81307SOL    HW245696  12.800   7.372   4.718
81308SOL     OW45697   9.171   2.131   6.620
81308SOL    HW145698   9.266   2.139   6.614
81308SOL    HW245699   9.153   2.044   6.584
81309SOL     OW45700   8.355  12.270  11.929
81309SOL    HW145701   8.405  12.349  11.909
81309SOL    HW245702   8.387  12.242  12.015
81310SOL     OW45703   5.457  13.229   6.688
81310SOL    HW145704   5.384  13.193   6.637
81310SOL    HW245705   5.468  13.318   6.653
81311SOL     OW45706   1.929   2.734  10.434
81311SOL    HW145707   2.019   2.752  10.406
81311SOL    HW245708   1.900   2.815  10.476
81312SOL     OW45709   2.687   2.223   9.789
81312SOL    HW145710   2.726   2.141   9.758
81312SOL    HW245711   2.755   2.264   9.842
81313SOL     OW45712   7.767   9.838   3.671
81313SOL    HW145713   7.796   9.771   3.610
81313SOL    HW245714   7.680   9.863   3.641
81314SOL     OW45715   8.643   3.117   0.655
81314SOL    HW145716   8.651   3.180   0.584
81314SOL    HW245717   8.673   3.164   0.733
81315SOL     OW45718   5.147   6.719   9.492
81315SOL    HW145719   5.072   6.659   9.492
81315SOL    HW245720   5.177   6.719   9.401
81316SOL     OW45721  10.374   5.194  14.439
81316SOL    HW145722  10.358   5.284  14.413
81316SOL    HW245723  10.466   5.192  14.465
81317SOL     OW45724  12.350  13.089   2.734
81317SOL    HW145725  12.414  13.130   2.792
81317SOL    HW245726  12.353  12.996   2.756
81318SOL     OW45727   4.019  13.914   6.783
81318SOL    HW145728   4.012  13.832   6.832
81318SOL    HW245729   4.094  13.959   6.824
81319SOL     OW45730   0.941  10.943  14.666
81319SOL    HW145731   0.915  10.946  14.758
81319SOL    HW245732   1.020  10.890  14.665
81320SOL     OW45733   0.024   1.412   2.156
81320SOL    HW145734  14.827   1.412   2.217
81320SOL    HW245735  14.871   1.363   2.080
81321SOL     OW45736   8.604   2.610   3.923
81321SOL    HW145737   8.618   2.522   3.887
81321SOL    HW245738   8.511   2.626   3.910
81322SOL     OW45739   1.669  10.921   3.467
81322SOL    HW145740   1.692  10.950   3.555
81322SOL    HW245741   1.614  10.844   3.481
81323SOL     OW45742   2.574   6.841   2.285
81323SOL    HW145743   2.636   6.829   2.213
81323SOL    HW245744   2.495   6.875   2.243
81324SOL     OW45745  14.436   7.101   9.938
81324SOL    HW145746  14.442   7.113  10.032
81324SOL    HW245747  14.347   7.128   9.915
81325SOL     OW45748  14.621  12.664   4.629
81325SOL    HW145749  14.684  12.594   4.609
81325SOL    HW245750  14.557  12.661   4.558
81326SOL     OW45751   1.450   3.415   5.800
81326SOL    HW145752   1.514   3.455   5.859
81326SOL    HW245753   1.476   3.322   5.797
81327SOL     OW45754   8.225  10.563   9.244
81327SOL    HW145755   8.289  10.629   9.221
81327SOL    HW245756   8.145  10.612   9.265
81328SOL     OW45757   6.886   6.934   1.570
81328SOL    HW145758   6.874   6.917   1.477
81328SOL    HW245759   6.966   6.987   1.575
81329SOL     OW45760   1.008   1.034  13.128
81329SOL    HW145761   0.995   0.957  13.072
81329SOL    HW245762   1.095   1.066  13.106
81330SOL     OW45763   9.227   5.431   6.936
81330SOL    HW145764   9.217   5.350   6.986
81330SOL    HW245765   9.320   5.436   6.915
81331SOL     OW45766  10.651   1.172   5.248
81331SOL    HW145767  10.558   1.194   5.258
81331SOL    HW245768  10.651   1.091   5.197
81332SOL     OW45769   0.878   2.736   9.200
81332SOL    HW145770   0.969   2.729   9.230
81332SOL    HW245771   0.871   2.671   9.130
81333SOL     OW45772  14.213  10.534   7.136
81333SOL    HW145773  14.292  10.524   7.189
81333SOL    HW245774  14.229  10.612   7.084
81334SOL     OW45775  10.439   8.255  11.534
81334SOL    HW145776  10.483   8.309  11.468
81334SOL    HW245777  10.484   8.171  11.529
81335SOL     OW45778   2.852  14.089   6.111
81335SOL    HW145779   2.797  14.049   6.179
81335SOL    HW245780   2.893  14.164   6.154
81336SOL     OW45781   7.861  13.399  12.065
81336SOL    HW145782   7.947  13.358  12.055
81336SOL    HW245783   7.857  13.464  11.994
81337SOL     OW45784  14.836   9.239  14.389
81337SOL    HW145785  14.799   9.315  14.344
81337SOL    HW245786   0.001   9.189  14.319
81338SOL     OW45787   2.720   0.618   0.497
81338SOL    HW145788   2.738   0.532   0.457
81338SOL    HW245789   2.625   0.626   0.493
81339SOL     OW45790  11.213   1.917   4.223
81339SOL    HW145791  11.197   1.900   4.130
81339SOL    HW245792  11.286   1.860   4.246
81340SOL     OW45793  13.854  11.140   8.500
81340SOL    HW145794  13.837  11.082   8.427
81340SOL    HW245795  13.882  11.223   8.460
81341SOL     OW45796   8.460   1.008   7.967
81341SOL    HW145797   8.486   0.921   7.937
81341SOL    HW245798   8.392   1.036   7.905
81342SOL     OW45799  11.805  14.056  14.090
81342SOL    HW145800  11.792  14.037  13.997
81342SOL    HW245801  11.784  14.149  14.099
81343SOL     OW45802   7.686   6.875   1.928
81343SOL    HW145803   7.675   6.969   1.912
81343SOL    HW245804   7.770   6.854   1.888
81344SOL     OW45805   1.559  13.319  12.355
81344SOL    HW145806   1.556  13.382  12.426
81344SOL    HW245807   1.505  13.246  12.385
81345SOL     OW45808   8.072   4.910  14.511
81345SOL    HW145809   7.976   4.907  14.504
81345SOL    HW245810   8.102   4.937  14.424
81346SOL     OW45811   4.206   8.978   6.564
81346SOL    HW145812   4.116   8.972   6.596
81346SOL    HW245813   4.215   9.068   6.535
81347SOL     OW45814  10.824   0.478  10.046
81347SOL    HW145815  10.742   0.449  10.006
81347SOL    HW245816  10.852   0.403  10.099
81348SOL     OW45817   4.613  12.111   0.149
81348SOL    HW145818   4.531  12.062   0.148
81348SOL    HW245819   4.605  12.173   0.077
81349SOL     OW45820   3.368   2.236   6.489
81349SOL    HW145821   3.325   2.153   6.470
81349SOL    HW245822   3.436   2.243   6.421
81350SOL     OW45823  11.999   0.063   4.076
81350SOL    HW145824  11.925   0.021   4.119
81350SOL    HW245825  12.033   0.125   4.141
81351SOL     OW45826   5.657   4.766  10.507
81351SOL    HW145827   5.605   4.844  10.489
81351SOL    HW245828   5.747   4.793  10.490
81352SOL     OW45829   9.808  13.920  11.764
81352SOL    HW145830   9.741  13.943  11.701
81352SOL    HW245831   9.762  13.912  11.848
81353SOL     OW45832   2.068   6.938   0.778
81353SOL    HW145833   2.068   6.849   0.743
81353SOL    HW245834   2.114   6.990   0.713
81354SOL     OW45835   6.528  11.504  11.634
81354SOL    HW145836   6.450  11.523  11.685
81354SOL    HW245837   6.501  11.436  11.572
81355SOL     OW45838  10.411   8.968   7.541
81355SOL    HW145839  10.339   8.908   7.525
81355SOL    HW245840  10.438   8.997   7.454
81356SOL     OW45841   2.228   4.086   9.669
81356SOL    HW145842   2.214   4.007   9.618
81356SOL    HW245843   2.140   4.122   9.682
81357SOL     OW45844  13.275   6.804   9.892
81357SOL    HW145845  13.271   6.900   9.891
81357SOL    HW245846  13.354   6.784   9.942
81358SOL     OW45847   1.217  14.460   1.802
81358SOL    HW145848   1.215  14.505   1.718
81358SOL    HW245849   1.182  14.523   1.865
81359SOL     OW45850   1.513   9.082  10.404
81359SOL    HW145851   1.420   9.082  10.380
81359SOL    HW245852   1.514   9.108  10.496
81360SOL     OW45853  14.016  12.808  13.351
81360SOL    HW145854  14.089  12.833  13.408
81360SOL    HW245855  13.984  12.891  13.317
81361SOL     OW45856   7.997   1.876  11.086
81361SOL    HW145857   8.040   1.904  11.005
81361SOL    HW245858   7.914   1.923  11.087
81362SOL     OW45859  11.405  13.766   3.278
81362SOL    HW145860  11.375  13.689   3.326
81362SOL    HW245861  11.392  13.839   3.338
81363SOL     OW45862   3.679   3.215  11.151
81363SOL    HW145863   3.669   3.308  11.172
81363SOL    HW245864   3.769   3.207  11.119
81364SOL     OW45865   3.600   7.668   3.119
81364SOL    HW145866   3.632   7.584   3.086
81364SOL    HW245867   3.674   7.728   3.105
81365SOL     OW45868   2.963   0.402   0.589
81365SOL    HW145869   2.963   0.497   0.577
81365SOL    HW245870   3.048   0.373   0.556
81366SOL     OW45871   0.067  14.875   6.220
81366SOL    HW145872   0.130  14.833   6.279
81366SOL    HW245873   0.109   0.080   6.195
81367SOL     OW45874   9.835   9.542   8.312
81367SOL    HW145875   9.814   9.451   8.293
81367SOL    HW245876   9.836   9.547   8.407
81368SOL     OW45877  11.385   6.259   7.267
81368SOL    HW145878  11.457   6.322   7.266
81368SOL    HW245879  11.390   6.218   7.354
81369SOL     OW45880   6.904  10.696   2.842
81369SOL    HW145881   6.816  10.729   2.860
81369SOL    HW245882   6.962  10.769   2.862
81370SOL     OW45883  11.535   4.746   5.959
81370SOL    HW145884  11.517   4.756   5.866
81370SOL    HW245885  11.607   4.806   5.976
81371SOL     OW45886  12.659   2.512  11.626
81371SOL    HW145887  12.699   2.581  11.573
81371SOL    HW245888  12.565   2.525  11.615
81372SOL     OW45889   8.342   7.332   5.248
81372SOL    HW145890   8.309   7.247   5.276
81372SOL    HW245891   8.326   7.390   5.323
81373SOL     OW45892  12.411  14.025   2.851
81373SOL    HW145893  12.422  14.099   2.792
81373SOL    HW245894  12.338  14.050   2.908
81374SOL     OW45895   3.561   4.897   3.052
81374SOL    HW145896   3.622   4.880   3.123
81374SOL    HW245897   3.489   4.835   3.067
81375SOL     OW45898   1.892   4.996  13.135
81375SOL    HW145899   1.799   4.995  13.114
81375SOL    HW245900   1.913   5.088  13.149
81376SOL     OW45901  11.281   6.501   8.206
81376SOL    HW145902  11.242   6.581   8.241
81376SOL    HW245903  11.219   6.472   8.139
81377SOL     OW45904  13.084   3.516   0.918
81377SOL    HW145905  13.156   3.543   0.975
81377SOL    HW245906  13.033   3.596   0.905
81378SOL     OW45907   9.686   9.448  12.264
81378SOL    HW145908   9.638   9.531  12.270
81378SOL    HW245909   9.638   9.397  12.199
81379SOL     OW45910  10.532   1.983   9.719
81379SOL    HW145911  10.519   1.913   9.654
81379SOL    HW245912  10.488   2.059   9.681
81380SOL     OW45913   8.534   6.608   8.755
81380SOL    HW145914   8.497   6.672   8.694
81380SOL    HW245915   8.596   6.659   8.808
81381SOL     OW45916  12.953   1.065  13.592
81381SOL    HW145917  12.867   1.047  13.630
81381SOL    HW245918  12.970   1.157  13.612
81382SOL     OW45919   7.125   0.634   2.566
81382SOL    HW145920   7.071   0.703   2.605
81382SOL    HW245921   7.109   0.642   2.471
81383SOL     OW45922   8.007   1.412   4.022
81383SOL    HW145923   7.953   1.386   4.097
81383SOL    HW245924   8.073   1.343   4.015
81384SOL     OW45925   1.968  10.736   5.143
81384SOL    HW145926   2.046  10.756   5.092
81384SOL    HW245927   1.896  10.766   5.088
81385SOL     OW45928   4.843  11.619   0.107
81385SOL    HW145929   4.898  11.644   0.181
81385SOL    HW245930   4.877  11.670   0.033
81386SOL     OW45931   8.386   9.342   7.979
81386SOL    HW145932   8.318   9.405   8.002
81386SOL    HW245933   8.447   9.345   8.053
81387SOL     OW45934   0.418  14.266   2.505
81387SOL    HW145935   0.357  14.222   2.446
81387SOL    HW245936   0.363  14.328   2.554
81388SOL     OW45937   7.750   4.377  11.402
81388SOL    HW145938   7.723   4.318  11.332
81388SOL    HW245939   7.752   4.463  11.360
81389SOL     OW45940   3.617  12.789   7.365
81389SOL    HW145941   3.703  12.762   7.397
81389SOL    HW245942   3.614  12.757   7.274
81390SOL     OW45943   5.586   7.986   2.619
81390SOL    HW145944   5.631   8.028   2.692
81390SOL    HW245945   5.577   8.055   2.554
81391SOL     OW45946   2.141   2.441   6.023
81391SOL    HW145947   2.229   2.463   6.053
81391SOL    HW245948   2.153   2.416   5.931
81392SOL     OW45949   2.080  11.950  10.298
81392SOL    HW145950   2.017  12.011  10.335
81392SOL    HW245951   2.072  11.871  10.352
81393SOL     OW45952  12.252  10.805  11.973
81393SOL    HW145953  12.243  10.899  11.961
81393SOL    HW245954  12.257  10.769  11.885
81394SOL     OW45955  14.675   4.661   6.513
81394SOL    HW145956  14.759   4.618   6.533
81394SOL    HW245957  14.696   4.722   6.442
81395SOL     OW45958   6.748   5.918   2.153
81395SOL    HW145959   6.836   5.899   2.187
81395SOL    HW245960   6.734   6.010   2.175
81396SOL     OW45961   0.253   4.645   6.443
81396SOL    HW145962   0.272   4.739   6.449
81396SOL    HW245963   0.240   4.629   6.350
81397SOL     OW45964   9.472   5.466  11.379
81397SOL    HW145965   9.483   5.377  11.412
81397SOL    HW245966   9.449   5.518  11.456
81398SOL     OW45967   5.645   9.084   3.737
81398SOL    HW145968   5.613   9.159   3.787
81398SOL    HW245969   5.681   9.024   3.803
81399SOL     OW45970   8.937  11.852   6.549
81399SOL    HW145971   8.853  11.895   6.565
81399SOL    HW245972   8.947  11.791   6.622
81400SOL     OW45973  13.736   1.373  10.900
81400SOL    HW145974  13.707   1.339  10.816
81400SOL    HW245975  13.748   1.295  10.954
81401SOL     OW45976   1.706   6.102  13.508
81401SOL    HW145977   1.703   6.102  13.412
81401SOL    HW245978   1.624   6.144  13.534
81402SOL     OW45979  13.657   0.887  14.224
81402SOL    HW145980  13.583   0.928  14.268
81402SOL    HW245981  13.645   0.907  14.131
81403SOL     OW45982   8.763   6.661   0.728
81403SOL    HW145983   8.671   6.687   0.725
81403SOL    HW245984   8.791   6.680   0.817
81404SOL     OW45985   7.969  13.646   7.830
81404SOL    HW145986   7.966  13.661   7.736
81404SOL    HW245987   7.899  13.583   7.846
81405SOL     OW45988  11.444   1.566  10.469
81405SOL    HW145989  11.453   1.653  10.432
81405SOL    HW245990  11.533   1.530  10.466
81406SOL     OW45991   8.298   0.580   8.060
81406SOL    HW145992   8.242   0.657   8.053
81406SOL    HW245993   8.316   0.572   8.154
81407SOL     OW45994   0.690   5.038   4.031
81407SOL    HW145995   0.738   5.002   4.105
81407SOL    HW245996   0.600   5.047   4.063
81408SOL     OW45997   3.559   4.358   3.590
81408SOL    HW145998   3.618   4.395   3.524
81408SOL    HW245999   3.608   4.366   3.672
81409SOL     OW46000   7.096   0.300   2.924
81409SOL    HW146001   7.162   0.286   2.992
81409SOL    HW246002   7.050   0.216   2.916
81410SOL     OW46003   3.630   5.217   8.099
81410SOL    HW146004   3.629   5.237   8.005
81410SOL    HW246005   3.542   5.184   8.117
81411SOL     OW46006   0.647  12.932   8.663
81411SOL    HW146007   0.605  12.862   8.713
81411SOL    HW246008   0.603  13.012   8.693
81412SOL     OW46009   9.839   6.570   0.278
81412SOL    HW146010   9.869   6.626   0.206
81412SOL    HW246011   9.760   6.613   0.310
81413SOL     OW46012   4.323   0.252   7.955
81413SOL    HW146013   4.257   0.275   7.890
81413SOL    HW246014   4.405   0.248   7.905
81414SOL     OW46015   9.939   0.857   3.382
81414SOL    HW146016   9.889   0.906   3.316
81414SOL    HW246017   9.885   0.861   3.461
81415SOL     OW46018  11.626   7.431   8.510
81415SOL    HW146019  11.631   7.523   8.482
81415SOL    HW246020  11.587   7.435   8.597
81416SOL     OW46021   3.000   3.345   3.133
81416SOL    HW146022   2.917   3.313   3.169
81416SOL    HW246023   2.981   3.366   3.042
81417SOL     OW46024   4.255   4.311   5.791
81417SOL    HW146025   4.336   4.292   5.839
81417SOL    HW246026   4.203   4.231   5.800
81418SOL     OW46027   6.411  13.159   3.970
81418SOL    HW146028   6.429  13.116   3.886
81418SOL    HW246029   6.478  13.125   4.029
81419SOL     OW46030  14.623   8.802   7.758
81419SOL    HW146031  14.598   8.712   7.778
81419SOL    HW246032  14.686   8.826   7.826
81420SOL     OW46033   9.347   0.790   3.292
81420SOL    HW146034   9.440   0.791   3.270
81420SOL    HW246035   9.302   0.786   3.208
81421SOL     OW46036   0.067   0.681   6.254
81421SOL    HW146037   0.095   0.768   6.285
81421SOL    HW246038  14.859   0.668   6.296
81422SOL     OW46039  14.274   7.735   9.146
81422SOL    HW146040  14.217   7.810   9.129
81422SOL    HW246041  14.249   7.671   9.080
81423SOL     OW46042   9.712  10.271   6.065
81423SOL    HW146043   9.626  10.277   6.023
81423SOL    HW246044   9.693  10.257   6.157
81424SOL     OW46045   7.430   8.056  13.195
81424SOL    HW146046   7.510   8.085  13.238
81424SOL    HW246047   7.365   8.055  13.266
81425SOL     OW46048  12.938   7.131   4.082
81425SOL    HW146049  13.022   7.153   4.043
81425SOL    HW246050  12.881   7.204   4.060
81426SOL     OW46051  11.709   1.112   1.508
81426SOL    HW146052  11.756   1.192   1.485
81426SOL    HW246053  11.694   1.068   1.424
81427SOL     OW46054  10.014   6.080   4.668
81427SOL    HW146055   9.965   6.016   4.618
81427SOL    HW246056  10.044   6.032   4.746
81428SOL     OW46057   9.933   1.087  13.816
81428SOL    HW146058   9.887   1.153  13.764
81428SOL    HW246059   9.882   1.080  13.897
81429SOL     OW46060   7.176   3.109   4.461
81429SOL    HW146061   7.180   3.178   4.395
81429SOL    HW246062   7.266   3.098   4.490
81430SOL     OW46063   4.888  14.779   0.422
81430SOL    HW146064   4.879  14.826   0.339
81430SOL    HW246065   4.899  14.848   0.487
81431SOL     OW46066   2.928   9.049   3.670
81431SOL    HW146067   2.889   9.015   3.750
81431SOL    HW246068   2.949   8.972   3.618
81432SOL     OW46069   3.097   9.343  11.844
81432SOL    HW146070   3.182   9.385  11.856
81432SOL    HW246071   3.043   9.410  11.802
81433SOL     OW46072   2.046   3.299   1.215
81433SOL    HW146073   1.969   3.255   1.178
81433SOL    HW246074   2.079   3.238   1.280
81434SOL     OW46075  10.674   7.741   2.786
81434SOL    HW146076  10.754   7.782   2.753
81434SOL    HW246077  10.668   7.770   2.877
81435SOL     OW46078   5.459   9.052  13.783
81435SOL    HW146079   5.419   9.017  13.862
81435SOL    HW246080   5.488   8.975  13.734
81436SOL     OW46081  10.362   6.080   1.133
81436SOL    HW146082  10.388   6.169   1.107
81436SOL    HW246083  10.318   6.044   1.056
81437SOL     OW46084   7.392   9.476   6.574
81437SOL    HW146085   7.473   9.458   6.526
81437SOL    HW246086   7.326   9.489   6.505
81438SOL     OW46087  12.075   3.663  10.579
81438SOL    HW146088  11.998   3.719  10.570
81438SOL    HW246089  12.088   3.655  10.674
81439SOL     OW46090  12.970   6.077  14.281
81439SOL    HW146091  13.018   6.040  14.207
81439SOL    HW246092  12.986   6.171  14.276
81440SOL     OW46093  12.851   7.228   5.639
81440SOL    HW146094  12.816   7.144   5.669
81440SOL    HW246095  12.821   7.292   5.703
81441SOL     OW46096   3.166  13.488   4.967
81441SOL    HW146097   3.249  13.525   4.998
81441SOL    HW246098   3.185  13.454   4.880
81442SOL     OW46099   4.728   3.393   9.617
81442SOL    HW146100   4.709   3.465   9.557
81442SOL    HW246101   4.710   3.314   9.565
81443SOL     OW46102   2.620   3.560  11.659
81443SOL    HW146103   2.687   3.593  11.599
81443SOL    HW246104   2.544   3.616  11.641
81444SOL     OW46105   4.123   1.919  12.801
81444SOL    HW146106   4.086   1.993  12.751
81444SOL    HW246107   4.119   1.948  12.892
81445SOL     OW46108  13.465   7.497   2.402
81445SOL    HW146109  13.431   7.416   2.363
81445SOL    HW246110  13.496   7.548   2.327
81446SOL     OW46111   4.585   4.652   0.123
81446SOL    HW146112   4.493   4.629   0.138
81446SOL    HW246113   4.584   4.748   0.114
81447SOL     OW46114   5.049   0.433  14.804
81447SOL    HW146115   4.969   0.473  14.837
81447SOL    HW246116   5.068   0.363  14.866
81448SOL     OW46117   2.051   8.481  11.596
81448SOL    HW146118   2.000   8.400  11.591
81448SOL    HW246119   1.998   8.545  11.548
81449SOL     OW46120  11.099  10.634   4.648
81449SOL    HW146121  11.175  10.687   4.671
81449SOL    HW246122  11.109  10.554   4.699
81450SOL     OW46123   1.416   3.673  11.524
81450SOL    HW146124   1.406   3.581  11.549
81450SOL    HW246125   1.338   3.716  11.560
81451SOL     OW46126   1.555   6.168   9.852
81451SOL    HW146127   1.531   6.239   9.911
81451SOL    HW246128   1.647   6.149   9.873
81452SOL     OW46129  10.016   3.677   0.868
81452SOL    HW146130  10.076   3.660   0.795
81452SOL    HW246131   9.960   3.748   0.837
81453SOL     OW46132  11.216   3.181  12.203
81453SOL    HW146133  11.179   3.123  12.269
81453SOL    HW246134  11.160   3.169  12.126
81454SOL     OW46135  10.056  12.357   8.637
81454SOL    HW146136  10.019  12.444   8.655
81454SOL    HW246137  10.150  12.372   8.634
81455SOL     OW46138  12.753   2.786  14.256
81455SOL    HW146139  12.712   2.832  14.182
81455SOL    HW246140  12.699   2.708  14.269
81456SOL     OW46141  14.522   1.652   4.986
81456SOL    HW146142  14.532   1.616   5.074
81456SOL    HW246143  14.588   1.722   4.982
81457SOL     OW46144   6.371  10.497   8.147
81457SOL    HW146145   6.297  10.474   8.204
81457SOL    HW246146   6.441  10.438   8.174
81458SOL     OW46147  13.403  13.164  11.936
81458SOL    HW146148  13.405  13.223  11.861
81458SOL    HW246149  13.425  13.078  11.900
81459SOL     OW46150  10.282  11.783   6.228
81459SOL    HW146151  10.276  11.719   6.156
81459SOL    HW246152  10.196  11.780   6.269
81460SOL     OW46153  13.234   2.215   6.799
81460SOL    HW146154  13.222   2.141   6.740
81460SOL    HW246155  13.185   2.287   6.759
81461SOL     OW46156   8.001   1.723   8.110
81461SOL    HW146157   7.926   1.761   8.157
81461SOL    HW246158   8.060   1.694   8.180
81462SOL     OW46159   1.841  13.866   4.498
81462SOL    HW146160   1.773  13.868   4.565
81462SOL    HW246161   1.916  13.827   4.542
81463SOL     OW46162   8.007   8.637   1.634
81463SOL    HW146163   7.946   8.584   1.686
81463SOL    HW246164   8.024   8.714   1.688
81464SOL     OW46165   2.487  13.538   8.891
81464SOL    HW146166   2.398  13.504   8.903
81464SOL    HW246167   2.487  13.573   8.802
81465SOL     OW46168   2.855  13.412   6.504
81465SOL    HW146169   2.932  13.463   6.528
81465SOL    HW246170   2.781  13.470   6.521
81466SOL     OW46171  11.093  14.013   2.541
81466SOL    HW146172  11.097  13.955   2.465
81466SOL    HW246173  11.000  14.037   2.548
81467SOL     OW46174   3.527  12.430  13.979
81467SOL    HW146175   3.506  12.431  13.885
81467SOL    HW246176   3.442  12.433  14.023
81468SOL     OW46177   2.213   1.931   6.642
81468SOL    HW146178   2.295   1.902   6.681
81468SOL    HW246179   2.165   1.973   6.713
81469SOL     OW46180   3.637  11.403   1.786
81469SOL    HW146181   3.611  11.451   1.708
81469SOL    HW246182   3.732  11.393   1.778
81470SOL     OW46183  14.238  12.028   2.724
81470SOL    HW146184  14.331  12.007   2.733
81470SOL    HW246185  14.194  11.944   2.736
81471SOL     OW46186  14.626  11.937   2.868
81471SOL    HW146187  14.590  12.025   2.877
81471SOL    HW246188  14.550  11.880   2.861
81472SOL     OW46189   3.626  10.209   0.270
81472SOL    HW146190   3.587  10.248   0.192
81472SOL    HW246191   3.558  10.151   0.304
81473SOL     OW46192   3.609   7.229   3.211
81473SOL    HW146193   3.637   7.199   3.298
81473SOL    HW246194   3.597   7.148   3.161
81474SOL     OW46195   6.450  12.720   6.929
81474SOL    HW146196   6.444  12.815   6.944
81474SOL    HW246197   6.399  12.705   6.850
81475SOL     OW46198   7.487  13.374   5.812
81475SOL    HW146199   7.554  13.307   5.818
81475SOL    HW246200   7.483  13.396   5.719
81476SOL     OW46201   9.150   3.434   8.369
81476SOL    HW146202   9.214   3.373   8.406
81476SOL    HW246203   9.096   3.459   8.444
81477SOL     OW46204   9.915   1.319   8.781
81477SOL    HW146205   9.843   1.281   8.731
81477SOL    HW246206   9.873   1.384   8.838
81478SOL     OW46207   1.142  11.714   5.143
81478SOL    HW146208   1.168  11.637   5.093
81478SOL    HW246209   1.144  11.685   5.234
81479SOL     OW46210   4.732   7.145  11.122
81479SOL    HW146211   4.668   7.157  11.193
81479SOL    HW246212   4.817   7.155  11.165
81480SOL     OW46213   2.243   2.882   2.546
81480SOL    HW146214   2.278   2.795   2.527
81480SOL    HW246215   2.320   2.939   2.549
81481SOL     OW46216  12.073  10.054   2.339
81481SOL    HW146217  12.132  10.128   2.345
81481SOL    HW246218  11.989  10.092   2.312
81482SOL     OW46219   3.454  14.579   8.429
81482SOL    HW146220   3.505  14.531   8.364
81482SOL    HW246221   3.514  14.593   8.501
81483SOL     OW46222   6.260  11.193   3.520
81483SOL    HW146223   6.255  11.107   3.479
81483SOL    HW246224   6.173  11.231   3.506
81484SOL     OW46225   9.854   0.514  10.384
81484SOL    HW146226   9.939   0.530  10.343
81484SOL    HW246227   9.868   0.436  10.438
81485SOL     OW46228   4.825   4.437  13.584
81485SOL    HW146229   4.900   4.451  13.641
81485SOL    HW246230   4.820   4.342  13.573
81486SOL     OW46231  14.835   5.340   7.577
81486SOL    HW146232  14.749   5.302   7.558
81486SOL    HW246233  14.819   5.401   7.649
81487SOL     OW46234  14.301   6.178   7.923
81487SOL    HW146235  14.278   6.241   7.854
81487SOL    HW246236  14.249   6.207   7.999
81488SOL     OW46237   3.174  11.658   0.861
81488SOL    HW146238   3.171  11.566   0.836
81488SOL    HW246239   3.087  11.692   0.840
81489SOL     OW46240   8.755  12.554  12.378
81489SOL    HW146241   8.805  12.485  12.421
81489SOL    HW246242   8.677  12.565  12.432
81490SOL     OW46243   3.259   0.770   7.245
81490SOL    HW146244   3.206   0.711   7.192
81490SOL    HW246245   3.207   0.784   7.325
81491SOL     OW46246   7.972  13.286   2.463
81491SOL    HW146247   7.945  13.325   2.546
81491SOL    HW246248   7.943  13.195   2.468
81492SOL     OW46249   0.331   1.420  12.390
81492SOL    HW146250   0.326   1.326  12.376
81492SOL    HW246251   0.363   1.455  12.306
81493SOL     OW46252  13.028   5.974  14.657
81493SOL    HW146253  13.013   5.958  14.750
81493SOL    HW246254  13.107   6.028  14.655
81494SOL     OW46255   0.342   8.432   1.395
81494SOL    HW146256   0.359   8.489   1.470
81494SOL    HW246257   0.425   8.386   1.380
81495SOL     OW46258   1.370   4.554   5.643
81495SOL    HW146259   1.326   4.470   5.656
81495SOL    HW246260   1.372   4.566   5.548
81496SOL     OW46261   1.365   8.854   7.782
81496SOL    HW146262   1.321   8.938   7.772
81496SOL    HW246263   1.310   8.792   7.734
81497SOL     OW46264  10.786   2.845  10.854
81497SOL    HW146265  10.749   2.843  10.766
81497SOL    HW246266  10.874   2.808  10.844
81498SOL     OW46267   7.766  12.796  14.387
81498SOL    HW146268   7.754  12.772  14.479
81498SOL    HW246269   7.697  12.860  14.370
81499SOL     OW46270  13.928   1.634   1.059
81499SOL    HW146271  13.881   1.550   1.064
81499SOL    HW246272  13.989   1.631   1.133
81500SOL     OW46273  14.802  10.070   2.295
81500SOL    HW146274  14.794  10.156   2.255
81500SOL    HW246275  14.789  10.009   2.222
81501SOL     OW46276   1.427   8.257   4.498
81501SOL    HW146277   1.418   8.348   4.469
81501SOL    HW246278   1.399   8.205   4.423
81502SOL     OW46279   5.674  10.495   1.266
81502SOL    HW146280   5.767  10.490   1.246
81502SOL    HW246281   5.643  10.571   1.217
81503SOL     OW46282  12.755   2.284  11.408
81503SOL    HW146283  12.726   2.348  11.473
81503SOL    HW246284  12.677   2.232  11.389
81504SOL     OW46285   9.564   6.041   6.559
81504SOL    HW146286   9.574   6.078   6.647
81504SOL    HW246287   9.542   5.949   6.575
81505SOL     OW46288   3.162   4.666  14.856
81505SOL    HW146289   3.163   4.759   0.001
81505SOL    HW246290   3.213   4.660  14.776
81506SOL     OW46291   0.598  12.076   2.525
81506SOL    HW146292   0.584  12.083   2.619
81506SOL    HW246293   0.615  12.166   2.497
81507SOL     OW46294   0.031  13.064  13.123
81507SOL    HW146295   0.058  13.027  13.207
81507SOL    HW246296   0.096  13.033  13.061
81508SOL     OW46297   3.672   6.623   8.349
81508SOL    HW146298   3.583   6.595   8.327
81508SOL    HW246299   3.661   6.686   8.420
81509SOL     OW46300   2.614   1.821  13.162
81509SOL    HW146301   2.537   1.840  13.216
81509SOL    HW246302   2.581   1.816  13.073
81510SOL     OW46303   1.316  13.341   6.573
81510SOL    HW146304   1.261  13.389   6.636
81510SOL    HW246305   1.261  13.269   6.544
81511SOL     OW46306   4.558  11.849   4.691
81511SOL    HW146307   4.544  11.762   4.653
81511SOL    HW246308   4.601  11.832   4.775
81512SOL     OW46309   0.780   9.248   5.539
81512SOL    HW146310   0.759   9.216   5.627
81512SOL    HW246311   0.760   9.175   5.481
81513SOL     OW46312   9.917  11.860   6.777
81513SOL    HW146313   9.970  11.929   6.817
81513SOL    HW246314   9.867  11.823   6.850
81514SOL     OW46315   0.080   5.101   3.378
81514SOL    HW146316   0.055   5.053   3.300
81514SOL    HW246317   0.083   5.193   3.350
81515SOL     OW46318   8.365  14.788  12.808
81515SOL    HW146319   8.274  14.773  12.833
81515SOL    HW246320   8.359  14.833  12.724
81516SOL     OW46321   0.978   0.690   0.272
81516SOL    HW146322   0.954   0.664   0.183
81516SOL    HW246323   0.973   0.785   0.272
81517SOL     OW46324   7.442  11.269  12.533
81517SOL    HW146325   7.456  11.329  12.460
81517SOL    HW246326   7.380  11.314  12.590
81518SOL     OW46327   5.981   2.281   6.512
81518SOL    HW146328   6.035   2.226   6.569
81518SOL    HW246329   5.891   2.260   6.537
81519SOL     OW46330  13.062   5.825  10.839
81519SOL    HW146331  13.114   5.745  10.842
81519SOL    HW246332  13.089   5.874  10.917
81520SOL     OW46333  13.974   3.070  13.497
81520SOL    HW146334  13.959   3.081  13.590
81520SOL    HW246335  13.925   3.142  13.456
81521SOL     OW46336   4.446  11.497   9.955
81521SOL    HW146337   4.421  11.460   9.871
81521SOL    HW246338   4.455  11.591   9.939
81522SOL     OW46339  11.572   9.473   4.640
81522SOL    HW146340  11.482   9.506   4.643
81522SOL    HW246341  11.626   9.551   4.628
81523SOL     OW46342   1.088   4.769  11.302
81523SOL    HW146343   1.107   4.679  11.277
81523SOL    HW246344   0.998   4.767  11.335
81524SOL     OW46345   2.824   9.719   3.921
81524SOL    HW146346   2.777   9.728   3.838
81524SOL    HW246347   2.754   9.703   3.985
81525SOL     OW46348   2.820  11.025  12.042
81525SOL    HW146349   2.746  11.036  11.984
81525SOL    HW246350   2.783  11.035  12.130
81526SOL     OW46351   9.366  13.723   3.804
81526SOL    HW146352   9.360  13.665   3.880
81526SOL    HW246353   9.320  13.803   3.832
81527SOL     OW46354   4.066  12.804   2.085
81527SOL    HW146355   3.987  12.778   2.133
81527SOL    HW246356   4.137  12.797   2.150
81528SOL     OW46357   5.024  14.025   8.657
81528SOL    HW146358   5.001  14.109   8.619
81528SOL    HW246359   4.985  14.025   8.744
81529SOL     OW46360   4.968   6.512  10.789
81529SOL    HW146361   5.014   6.430  10.768
81529SOL    HW246362   5.037   6.578  10.793
81530SOL     OW46363   9.947  10.924  11.307
81530SOL    HW146364   9.904  10.908  11.391
81530SOL    HW246365   9.910  11.006  11.276
81531SOL     OW46366   8.510  14.797  14.136
81531SOL    HW146367   8.578  14.733  14.116
81531SOL    HW246368   8.535  14.876  14.088
81532SOL     OW46369   9.537   9.748   8.660
81532SOL    HW146370   9.487   9.695   8.722
81532SOL    HW246371   9.556   9.688   8.587
81533SOL     OW46372   9.537   4.525  11.664
81533SOL    HW146373   9.559   4.543  11.755
81533SOL    HW246374   9.580   4.595  11.614
81534SOL     OW46375   5.967  13.939   9.116
81534SOL    HW146376   6.037  14.005   9.112
81534SOL    HW246377   5.930  13.949   9.204
81535SOL     OW46378   0.407  13.250   3.055
81535SOL    HW146379   0.342  13.187   3.025
81535SOL    HW246380   0.396  13.253   3.150
81536SOL     OW46381  11.688   5.196   4.762
81536SOL    HW146382  11.637   5.254   4.818
81536SOL    HW246383  11.775   5.238   4.757
81537SOL     OW46384   2.658   7.205   7.238
81537SOL    HW146385   2.672   7.257   7.318
81537SOL    HW246386   2.644   7.270   7.170
81538SOL     OW46387  12.952  14.337   0.279
81538SOL    HW146388  12.884  14.278   0.247
81538SOL    HW246389  12.964  14.401   0.208
81539SOL     OW46390  14.263   9.964  11.871
81539SOL    HW146391  14.344  10.014  11.860
81539SOL    HW246392  14.194  10.030  11.880
81540SOL     OW46393   0.957   5.749  13.346
81540SOL    HW146394   0.920   5.735  13.259
81540SOL    HW246395   0.937   5.668  13.394
81541SOL     OW46396  11.663  10.074   2.025
81541SOL    HW146397  11.716  10.020   2.084
81541SOL    HW246398  11.675  10.163   2.057
81542SOL     OW46399   8.532  12.799  13.294
81542SOL    HW146400   8.470  12.756  13.236
81542SOL    HW246401   8.589  12.728  13.325
81543SOL     OW46402   4.761   3.862  13.403
81543SOL    HW146403   4.746   3.821  13.488
81543SOL    HW246404   4.754   3.956  13.419
81544SOL     OW46405   3.934   3.237  11.718
81544SOL    HW146406   3.909   3.189  11.797
81544SOL    HW246407   3.925   3.173  11.647
81545SOL     OW46408   3.283   3.293   5.867
81545SOL    HW146409   3.280   3.374   5.816
81545SOL    HW246410   3.321   3.319   5.951
81546SOL     OW46411   6.113  14.540   5.698
81546SOL    HW146412   6.049  14.604   5.667
81546SOL    HW246413   6.175  14.590   5.750
81547SOL     OW46414   3.172   4.695  14.467
81547SOL    HW146415   3.085   4.735  14.465
81547SOL    HW246416   3.217   4.739  14.539
81548SOL     OW46417  10.508   8.755  11.064
81548SOL    HW146418  10.437   8.710  11.110
81548SOL    HW246419  10.509   8.843  11.101
81549SOL     OW46420   4.236   7.672   3.356
81549SOL    HW146421   4.219   7.706   3.444
81549SOL    HW246422   4.148   7.657   3.320
81550SOL     OW46423  11.617   4.360   6.041
81550SOL    HW146424  11.630   4.268   6.064
81550SOL    HW246425  11.535   4.385   6.084
81551SOL     OW46426   6.105   0.365   6.839
81551SOL    HW146427   6.109   0.427   6.766
81551SOL    HW246428   6.015   0.371   6.871
81552SOL     OW46429   2.611  11.375   4.657
81552SOL    HW146430   2.601  11.462   4.697
81552SOL    HW246431   2.574  11.386   4.569
81553SOL     OW46432   1.329  14.804   3.867
81553SOL    HW146433   1.327  14.834   3.776
81553SOL    HW246434   1.259  14.739   3.873
81554SOL     OW46435  11.917  11.862   5.890
81554SOL    HW146436  11.949  11.896   5.806
81554SOL    HW246437  11.829  11.830   5.870
81555SOL     OW46438   0.849   7.652   5.540
81555SOL    HW146439   0.820   7.644   5.631
81555SOL    HW246440   0.902   7.574   5.524
81556SOL     OW46441   6.059  14.285   0.148
81556SOL    HW146442   6.051  14.349   0.077
81556SOL    HW246443   6.015  14.207   0.115
81557SOL     OW46444   8.358   4.158  14.070
81557SOL    HW146445   8.413   4.128  13.997
81557SOL    HW246446   8.294   4.088  14.082
81558SOL     OW46447  12.343   1.647   4.998
81558SOL    HW146448  12.337   1.599   4.915
81558SOL    HW246449  12.294   1.593   5.060
81559SOL     OW46450   9.819   6.511  14.537
81559SOL    HW146451   9.893   6.453  14.517
81559SOL    HW246452   9.742   6.456  14.529
81560SOL     OW46453   9.758   2.515   5.564
81560SOL    HW146454   9.850   2.534   5.582
81560SOL    HW246455   9.729   2.462   5.638
81561SOL     OW46456  13.490   0.804   1.955
81561SOL    HW146457  13.497   0.714   1.987
81561SOL    HW246458  13.469   0.795   1.862
81562SOL     OW46459   0.040   2.184   0.647
81562SOL    HW146460   0.100   2.235   0.701
81562SOL    HW246461   0.090   2.107   0.622
81563SOL     OW46462   2.158  10.936   7.756
81563SOL    HW146463   2.130  10.990   7.830
81563SOL    HW246464   2.129  10.985   7.679
81564SOL     OW46465   1.453   1.939   2.919
81564SOL    HW146466   1.494   1.945   2.832
81564SOL    HW246467   1.373   1.888   2.904
81565SOL     OW46468  10.983   5.898   5.117
81565SOL    HW146469  10.971   5.850   5.198
81565SOL    HW246470  11.051   5.850   5.070
81566SOL     OW46471   0.524  10.597   3.875
81566SOL    HW146472   0.467  10.536   3.922
81566SOL    HW246473   0.481  10.682   3.883
81567SOL     OW46474   2.261  11.689   5.728
81567SOL    HW146475   2.324  11.729   5.788
81567SOL    HW246476   2.214  11.624   5.780
81568SOL     OW46477  14.873  10.432   4.849
81568SOL    HW146478  14.840  10.452   4.761
81568SOL    HW246479   0.043  10.511   4.875
81569SOL     OW46480   2.393   9.704  14.251
81569SOL    HW146481   2.306   9.720  14.289
81569SOL    HW246482   2.442   9.784  14.268
81570SOL     OW46483  12.850   9.333   5.737
81570SOL    HW146484  12.909   9.399   5.701
81570SOL    HW246485  12.900   9.252   5.732
81571SOL     OW46486   5.150  13.390  13.750
81571SOL    HW146487   5.107  13.361  13.830
81571SOL    HW246488   5.120  13.329  13.683
81572SOL     OW46489   2.747  11.396   5.984
81572SOL    HW146490   2.826  11.367   5.938
81572SOL    HW246491   2.688  11.321   5.981
81573SOL     OW46492  13.910   8.228  11.437
81573SOL    HW146493  13.823   8.197  11.463
81573SOL    HW246494  13.903   8.323  11.439
81574SOL     OW46495   0.513   5.248  10.793
81574SOL    HW146496   0.500   5.163  10.833
81574SOL    HW246497   0.608   5.255  10.781
81575SOL     OW46498   1.436  10.168   9.203
81575SOL    HW146499   1.433  10.188   9.297
81575SOL    HW246500   1.528  10.149   9.185
81576SOL     OW46501  10.166   4.604   8.288
81576SOL    HW146502  10.202   4.670   8.229
81576SOL    HW246503  10.208   4.522   8.262
81577SOL     OW46504   5.491  14.295   6.399
81577SOL    HW146505   5.517  14.382   6.429
81577SOL    HW246506   5.508  14.238   6.475
81578SOL     OW46507  10.579  11.251  13.619
81578SOL    HW146508  10.526  11.331  13.611
81578SOL    HW246509  10.571  11.209  13.534
81579SOL     OW46510   2.007  14.850   0.155
81579SOL    HW146511   2.024  14.846   0.249
81579SOL    HW246512   1.977  14.762   0.132
81580SOL     OW46513   7.270  13.037   1.079
81580SOL    HW146514   7.281  13.131   1.063
81580SOL    HW246515   7.191  13.031   1.132
81581SOL     OW46516   2.610   4.624  14.030
81581SOL    HW146517   2.701   4.619  14.001
81581SOL    HW246518   2.563   4.663  13.957
81582SOL     OW46519   6.208   2.125   6.352
81582SOL    HW146520   6.247   2.070   6.420
81582SOL    HW246521   6.246   2.212   6.367
81583SOL     OW46522  13.947   6.102  13.891
81583SOL    HW146523  14.040   6.090  13.909
81583SOL    HW246524  13.903   6.081  13.974
81584SOL     OW46525   8.654   2.678  11.204
81584SOL    HW146526   8.586   2.745  11.197
81584SOL    HW246527   8.736   2.728  11.209
81585SOL     OW46528   3.846   4.507   4.086
81585SOL    HW146529   3.915   4.505   4.020
81585SOL    HW246530   3.764   4.503   4.036
81586SOL     OW46531  11.411   7.722   4.901
81586SOL    HW146532  11.385   7.805   4.861
81586SOL    HW246533  11.505   7.732   4.918
81587SOL     OW46534   3.815   2.451   3.571
81587SOL    HW146535   3.791   2.404   3.491
81587SOL    HW246536   3.831   2.541   3.543
81588SOL     OW46537   1.389   4.334  11.539
81588SOL    HW146538   1.460   4.375  11.589
81588SOL    HW246539   1.353   4.268  11.599
81589SOL     OW46540   7.998   5.794   2.801
81589SOL    HW146541   8.055   5.807   2.724
81589SOL    HW246542   7.974   5.882   2.828
81590SOL     OW46543  12.684  11.058   7.139
81590SOL    HW146544  12.733  11.066   7.220
81590SOL    HW246545  12.716  10.976   7.100
81591SOL     OW46546  12.632   3.155   7.166
81591SOL    HW146547  12.562   3.137   7.228
81591SOL    HW246548  12.632   3.079   7.108
81592SOL     OW46549  12.683  14.550   9.491
81592SOL    HW146550  12.683  14.592   9.405
81592SOL    HW246551  12.591  14.550   9.518
81593SOL     OW46552  11.872   5.805   2.129
81593SOL    HW146553  11.810   5.877   2.116
81593SOL    HW246554  11.824   5.727   2.101
81594SOL     OW46555  13.967  14.097   9.059
81594SOL    HW146556  14.023  14.170   9.082
81594SOL    HW246557  14.010  14.056   8.984
81595SOL     OW46558   6.891   5.823  12.859
81595SOL    HW146559   6.805   5.805  12.821
81595SOL    HW246560   6.932   5.737  12.868
81596SOL     OW46561  13.602   1.026   6.036
81596SOL    HW146562  13.608   1.030   6.132
81596SOL    HW246563  13.583   0.934   6.017
81597SOL     OW46564  12.948   7.558   3.177
81597SOL    HW146565  12.960   7.467   3.151
81597SOL    HW246566  12.859   7.561   3.213
81598SOL     OW46567   0.173  11.137   3.924
81598SOL    HW146568   0.221  11.161   3.845
81598SOL    HW246569   0.081  11.152   3.903
81599SOL     OW46570  12.378  11.059   1.230
81599SOL    HW146571  12.370  11.110   1.150
81599SOL    HW246572  12.317  11.099   1.291
81600SOL     OW46573  10.047  11.299  14.819
81600SOL    HW146574  10.138  11.273  14.805
81600SOL    HW246575  10.031  11.367  14.753
81601SOL     OW46576   8.323   9.632   4.175
81601SOL    HW146577   8.357   9.574   4.243
81601SOL    HW246578   8.388   9.703   4.170
81602SOL     OW46579   1.666   1.041   5.299
81602SOL    HW146580   1.721   1.064   5.374
81602SOL    HW246581   1.596   1.106   5.299
81603SOL     OW46582   2.459   6.786   0.679
81603SOL    HW146583   2.436   6.851   0.745
81603SOL    HW246584   2.534   6.740   0.715
81604SOL     OW46585  12.157   8.565  10.163
81604SOL    HW146586  12.091   8.615  10.114
81604SOL    HW246587  12.225   8.546  10.099
81605SOL     OW46588  14.194   1.533   9.519
81605SOL    HW146589  14.161   1.445   9.534
81605SOL    HW246590  14.288   1.526   9.535
81606SOL     OW46591   6.662   7.934   6.706
81606SOL    HW146592   6.665   7.860   6.646
81606SOL    HW246593   6.743   7.926   6.757
81607SOL     OW46594  10.113  11.136   1.705
81607SOL    HW146595  10.142  11.098   1.788
81607SOL    HW246596  10.030  11.093   1.687
81608SOL     OW46597   2.417   9.079   7.016
81608SOL    HW146598   2.430   9.023   7.092
81608SOL    HW246599   2.335   9.125   7.034
81609SOL     OW46600   6.426   6.769  13.435
81609SOL    HW146601   6.490   6.840  13.428
81609SOL    HW246602   6.356   6.795  13.374
81610SOL     OW46603  12.357   1.822  14.746
81610SOL    HW146604  12.417   1.779  14.686
81610SOL    HW246605  12.305   1.750  14.783
81611SOL     OW46606   8.270  10.016  11.616
81611SOL    HW146607   8.221  10.099  11.620
81611SOL    HW246608   8.288   9.995  11.707
81612SOL     OW46609  10.603   7.541   6.156
81612SOL    HW146610  10.624   7.553   6.249
81612SOL    HW246611  10.643   7.457   6.133
81613SOL     OW46612   8.801   9.975   8.044
81613SOL    HW146613   8.864   9.943   7.979
81613SOL    HW246614   8.793   9.902   8.106
81614SOL     OW46615   4.319  14.380  10.441
81614SOL    HW146616   4.266  14.446  10.485
81614SOL    HW246617   4.359  14.329  10.511
81615SOL     OW46618  12.136  11.991  13.695
81615SOL    HW146619  12.148  11.923  13.761
81615SOL    HW246620  12.169  11.952  13.614
81616SOL     OW46621   7.256   9.565  13.520
81616SOL    HW146622   7.234   9.512  13.444
81616SOL    HW246623   7.250   9.656  13.488
81617SOL     OW46624  10.309  13.923  14.032
81617SOL    HW146625  10.299  13.902  14.125
81617SOL    HW246626  10.401  13.949  14.024
81618SOL     OW46627   5.776   4.295   0.636
81618SOL    HW146628   5.764   4.356   0.709
81618SOL    HW246629   5.815   4.217   0.676
81619SOL     OW46630   5.292   4.419  10.204
81619SOL    HW146631   5.273   4.459  10.288
81619SOL    HW246632   5.303   4.326  10.223
81620SOL     OW46633   7.163  10.811   1.159
81620SOL    HW146634   7.107  10.862   1.101
81620SOL    HW246635   7.104  10.747   1.198
81621SOL     OW46636   5.948   5.963  14.503
81621SOL    HW146637   5.931   5.913  14.583
81621SOL    HW246638   5.904   6.047  14.518
81622SOL     OW46639   5.941   5.009   1.864
81622SOL    HW146640   5.849   4.998   1.841
81622SOL    HW246641   5.977   4.921   1.864
81623SOL     OW46642   7.415  14.371  14.627
81623SOL    HW146643   7.430  14.356  14.534
81623SOL    HW246644   7.441  14.462  14.642
81624SOL     OW46645   0.113   1.537  11.718
81624SOL    HW146646   0.034   1.551  11.667
81624SOL    HW246647   0.178   1.595  11.678
81625SOL     OW46648   6.998   4.825   7.502
81625SOL    HW146649   7.068   4.787   7.448
81625SOL    HW246650   6.918   4.784   7.470
81626SOL     OW46651   5.854   8.366  13.141
81626SOL    HW146652   5.780   8.336  13.088
81626SOL    HW246653   5.830   8.344  13.231
81627SOL     OW46654  11.129   5.360   9.311
81627SOL    HW146655  11.058   5.371   9.248
81627SOL    HW246656  11.145   5.266   9.314
81628SOL     OW46657   6.781   3.485  10.557
81628SOL    HW146658   6.797   3.527  10.641
81628SOL    HW246659   6.868   3.478  10.517
81629SOL     OW46660  13.563  12.350  14.764
81629SOL    HW146661  13.473  12.345  14.794
81629SOL    HW246662  13.608  12.400  14.833
81630SOL     OW46663   4.228   0.809  13.062
81630SOL    HW146664   4.228   0.842  12.972
81630SOL    HW246665   4.171   0.870  13.110
81631SOL     OW46666   7.448  13.466   4.829
81631SOL    HW146667   7.371  13.410   4.820
81631SOL    HW246668   7.498  13.428   4.901
81632SOL     OW46669   6.097   8.760  13.775
81632SOL    HW146670   6.069   8.850  13.788
81632SOL    HW246671   6.149   8.763  13.694
81633SOL     OW46672   0.354   7.170   8.840
81633SOL    HW146673   0.346   7.083   8.878
81633SOL    HW246674   0.325   7.230   8.908
81634SOL     OW46675   4.462   1.789  13.861
81634SOL    HW146676   4.536   1.844  13.885
81634SOL    HW246677   4.489   1.701  13.885
81635SOL     OW46678   7.149   1.318   4.117
81635SOL    HW146679   7.185   1.398   4.155
81635SOL    HW246680   7.226   1.272   4.082
81636SOL     OW46681  10.248  11.528   6.106
81636SOL    HW146682  10.308  11.480   6.163
81636SOL    HW246683  10.261  11.489   6.019
81637SOL     OW46684   4.808   3.849   7.787
81637SOL    HW146685   4.903   3.849   7.789
81637SOL    HW246686   4.786   3.859   7.694
81638SOL     OW46687   2.304  14.306  14.200
81638SOL    HW146688   2.255  14.340  14.125
81638SOL    HW246689   2.393  14.293  14.168
81639SOL     OW46690   5.034   2.219   8.970
81639SOL    HW146691   4.977   2.245   8.897
81639SOL    HW246692   5.079   2.141   8.939
81640SOL     OW46693   1.554   9.538   3.459
81640SOL    HW146694   1.575   9.558   3.550
81640SOL    HW246695   1.477   9.481   3.465
81641SOL     OW46696  13.648   5.125  14.217
81641SOL    HW146697  13.603   5.069  14.153
81641SOL    HW246698  13.738   5.094  14.218
81642SOL     OW46699  11.565  14.584   2.211
81642SOL    HW146700  11.639  14.640   2.187
81642SOL    HW246701  11.543  14.538   2.130
81643SOL     OW46702  14.315   2.970   8.944
81643SOL    HW146703  14.333   2.924   9.026
81643SOL    HW246704  14.324   2.904   8.876
81644SOL     OW46705   8.843   8.123   4.856
81644SOL    HW146706   8.756   8.138   4.820
81644SOL    HW246707   8.842   8.031   4.881
81645SOL     OW46708   0.589   5.517   8.404
81645SOL    HW146709   0.649   5.577   8.447
81645SOL    HW246710   0.589   5.543   8.312
81646SOL     OW46711   2.186   4.043   4.036
81646SOL    HW146712   2.241   4.086   4.100
81646SOL    HW246713   2.243   4.028   3.961
81647SOL     OW46714   3.255   5.324   5.190
81647SOL    HW146715   3.178   5.378   5.175
81647SOL    HW246716   3.286   5.349   5.277
81648SOL     OW46717   5.884   7.965   7.914
81648SOL    HW146718   5.949   7.923   7.969
81648SOL    HW246719   5.887   8.058   7.940
81649SOL     OW46720   0.795  10.324   7.825
81649SOL    HW146721   0.767  10.312   7.734
81649SOL    HW246722   0.802  10.419   7.835
81650SOL     OW46723   6.768   7.003   2.816
81650SOL    HW146724   6.855   6.964   2.813
81650SOL    HW246725   6.776   7.075   2.879
81651SOL     OW46726   4.050   7.605   1.813
81651SOL    HW146727   4.069   7.568   1.900
81651SOL    HW246728   4.024   7.529   1.761
81652SOL     OW46729  12.595   9.791   8.787
81652SOL    HW146730  12.594   9.701   8.756
81652SOL    HW246731  12.552   9.787   8.873
81653SOL     OW46732   3.375  13.511   4.298
81653SOL    HW146733   3.369  13.605   4.282
81653SOL    HW246734   3.311  13.495   4.368
81654SOL     OW46735  11.832   7.198   7.918
81654SOL    HW146736  11.796   7.235   7.838
81654SOL    HW246737  11.756   7.186   7.975
81655SOL     OW46738   6.164   4.215  13.038
81655SOL    HW146739   6.231   4.236  12.974
81655SOL    HW246740   6.098   4.283  13.027
81656SOL     OW46741   5.588  12.476   8.552
81656SOL    HW146742   5.572  12.385   8.577
81656SOL    HW246743   5.535  12.489   8.474
81657SOL     OW46744  10.669   5.780  11.986
81657SOL    HW146745  10.683   5.686  12.001
81657SOL    HW246746  10.652   5.786  11.892
81658SOL     OW46747   1.224   2.180   8.459
81658SOL    HW146748   1.256   2.178   8.369
81658SOL    HW246749   1.135   2.216   8.452
81659SOL     OW46750   1.394   9.251   8.636
81659SOL    HW146751   1.320   9.289   8.684
81659SOL    HW246752   1.379   9.278   8.545
81660SOL     OW46753   3.710  12.558  13.300
81660SOL    HW146754   3.698  12.515  13.215
81660SOL    HW246755   3.800  12.589  13.299
81661SOL     OW46756   9.979   3.133   0.368
81661SOL    HW146757  10.040   3.101   0.301
81661SOL    HW246758   9.915   3.064   0.377
81662SOL     OW46759  14.130   8.138   5.721
81662SOL    HW146760  14.097   8.159   5.634
81662SOL    HW246761  14.212   8.187   5.729
81663SOL     OW46762   9.335   4.925   5.372
81663SOL    HW146763   9.304   4.877   5.448
81663SOL    HW246764   9.382   4.860   5.320
81664SOL     OW46765   5.434   8.749   6.398
81664SOL    HW146766   5.388   8.666   6.386
81664SOL    HW246767   5.511   8.726   6.449
81665SOL     OW46768   5.034   4.275  10.269
81665SOL    HW146769   4.976   4.347  10.244
81665SOL    HW246770   5.100   4.316  10.325
81666SOL     OW46771   7.128   0.070  13.536
81666SOL    HW146772   7.036   0.046  13.528
81666SOL    HW246773   7.136   0.102  13.626
81667SOL     OW46774  13.936   1.090   3.277
81667SOL    HW146775  13.891   1.013   3.243
81667SOL    HW246776  13.905   1.100   3.366
81668SOL     OW46777   6.278  13.485   3.061
81668SOL    HW146778   6.240  13.413   3.011
81668SOL    HW246779   6.316  13.442   3.138
81669SOL     OW46780   8.130  13.682   1.889
81669SOL    HW146781   8.198  13.747   1.875
81669SOL    HW246782   8.078  13.717   1.961
81670SOL     OW46783   1.492   0.272  10.376
81670SOL    HW146784   1.456   0.315  10.453
81670SOL    HW246785   1.489   0.340  10.308
81671SOL     OW46786   2.658  13.611   7.225
81671SOL    HW146787   2.676  13.516   7.224
81671SOL    HW246788   2.659  13.634   7.318
81672SOL     OW46789   7.234  10.111   4.646
81672SOL    HW146790   7.315  10.157   4.627
81672SOL    HW246791   7.234  10.036   4.586
81673SOL     OW46792   3.334  10.324   8.193
81673SOL    HW146793   3.276  10.259   8.232
81673SOL    HW246794   3.287  10.407   8.200
81674SOL     OW46795   1.838   7.715   3.528
81674SOL    HW146796   1.794   7.700   3.445
81674SOL    HW246797   1.820   7.807   3.548
81675SOL     OW46798   0.734   3.677   2.690
81675SOL    HW146799   0.805   3.735   2.717
81675SOL    HW246800   0.658   3.735   2.682
81676SOL     OW46801   9.589   5.117  14.494
81676SOL    HW146802   9.643   5.151  14.566
81676SOL    HW246803   9.528   5.058  14.537
81677SOL     OW46804   3.965   0.258   4.583
81677SOL    HW146805   3.928   0.275   4.669
81677SOL    HW246806   3.956   0.163   4.571
81678SOL     OW46807   5.808   7.871   8.670
81678SOL    HW146808   5.843   7.950   8.629
81678SOL    HW246809   5.756   7.903   8.743
81679SOL     OW46810   6.073   6.562   2.132
81679SOL    HW146811   5.979   6.555   2.115
81679SOL    HW246812   6.085   6.651   2.164
81680SOL     OW46813   4.021   1.348   1.914
81680SOL    HW146814   3.996   1.267   1.870
81680SOL    HW246815   4.020   1.414   1.845
81681SOL     OW46816   3.665   4.644   5.419
81681SOL    HW146817   3.610   4.594   5.360
81681SOL    HW246818   3.723   4.694   5.361
81682SOL     OW46819  12.492  13.653   7.088
81682SOL    HW146820  12.423  13.642   7.022
81682SOL    HW246821  12.535  13.735   7.064
81683SOL     OW46822   6.894   6.340   3.372
81683SOL    HW146823   6.945   6.406   3.325
81683SOL    HW246824   6.933   6.256   3.345
81684SOL     OW46825   8.355   5.257  10.339
81684SOL    HW146826   8.275   5.305  10.360
81684SOL    HW246827   8.364   5.193  10.409
81685SOL     OW46828   4.665   3.652   6.717
81685SOL    HW146829   4.656   3.624   6.808
81685SOL    HW246830   4.734   3.597   6.681
81686SOL     OW46831   5.705  10.236   9.289
81686SOL    HW146832   5.714  10.143   9.312
81686SOL    HW246833   5.705  10.282   9.373
81687SOL     OW46834   4.855   7.403   8.760
81687SOL    HW146835   4.793   7.407   8.833
81687SOL    HW246836   4.870   7.495   8.736
81688SOL     OW46837  11.297  13.231   7.663
81688SOL    HW146838  11.357  13.157   7.656
81688SOL    HW246839  11.209  13.192   7.658
81689SOL     OW46840   6.633  11.758  12.003
81689SOL    HW146841   6.646  11.831  11.942
81689SOL    HW246842   6.672  11.789  12.085
81690SOL     OW46843   4.236   2.962   6.772
81690SOL    HW146844   4.310   3.001   6.818
81690SOL    HW246845   4.180   2.928   6.841
81691SOL     OW46846   5.792   1.008   4.847
81691SOL    HW146847   5.703   1.028   4.873
81691SOL    HW246848   5.822   0.942   4.909
81692SOL     OW46849   5.443   7.989  12.874
81692SOL    HW146850   5.492   7.942  12.806
81692SOL    HW246851   5.365   7.935  12.889
81693SOL     OW46852   6.763   6.825   1.313
81693SOL    HW146853   6.818   6.752   1.340
81693SOL    HW246854   6.707   6.789   1.244
81694SOL     OW46855  10.293  13.881  13.469
81694SOL    HW146856  10.296  13.970  13.435
81694SOL    HW246857  10.251  13.830  13.400
81695SOL     OW46858   3.602   4.073   5.258
81695SOL    HW146859   3.533   4.049   5.197
81695SOL    HW246860   3.603   4.169   5.257
81696SOL     OW46861   2.489  13.670  13.717
81696SOL    HW146862   2.533  13.632  13.793
81696SOL    HW246863   2.515  13.614  13.644
81697SOL     OW46864   9.377   1.172  13.087
81697SOL    HW146865   9.330   1.089  13.096
81697SOL    HW246866   9.418   1.167  13.000
81698SOL     OW46867   1.975   4.209   0.562
81698SOL    HW146868   1.916   4.207   0.637
81698SOL    HW246869   1.975   4.120   0.529
81699SOL     OW46870   8.947   4.768   5.938
81699SOL    HW146871   8.972   4.753   6.029
81699SOL    HW246872   8.946   4.863   5.928
81700SOL     OW46873  13.372   7.310  14.475
81700SOL    HW146874  13.419   7.387  14.443
81700SOL    HW246875  13.284   7.318  14.438
81701SOL     OW46876   6.240   8.638  12.451
81701SOL    HW146877   6.330   8.653  12.482
81701SOL    HW246878   6.243   8.662  12.358
81702SOL     OW46879   8.711   4.393  13.060
81702SOL    HW146880   8.729   4.301  13.080
81702SOL    HW246881   8.717   4.398  12.965
81703SOL     OW46882  11.575   5.176   9.185
81703SOL    HW146883  11.651   5.209   9.136
81703SOL    HW246884  11.582   5.219   9.270
81704SOL     OW46885   2.947  10.210   3.550
81704SOL    HW146886   2.987  10.125   3.533
81704SOL    HW246887   2.853  10.191   3.554
81705SOL     OW46888  13.874  12.162   7.115
81705SOL    HW146889  13.892  12.085   7.169
81705SOL    HW246890  13.938  12.158   7.045
81706SOL     OW46891  10.650  13.836   4.061
81706SOL    HW146892  10.580  13.881   4.108
81706SOL    HW246893  10.691  13.904   4.007
81707SOL     OW46894   1.128  11.238  12.288
81707SOL    HW146895   1.135  11.324  12.330
81707SOL    HW246896   1.036  11.215  12.297
81708SOL     OW46897   4.809   4.031  10.894
81708SOL    HW146898   4.814   3.956  10.955
81708SOL    HW246899   4.716   4.052  10.891
81709SOL     OW46900  10.902   9.068  13.189
81709SOL    HW146901  10.969   9.044  13.254
81709SOL    HW246902  10.945   9.053  13.105
81710SOL     OW46903   5.962   8.944   2.517
81710SOL    HW146904   5.925   8.888   2.585
81710SOL    HW246905   5.899   9.016   2.509
81711SOL     OW46906   2.368  11.381   6.895
81711SOL    HW146907   2.320  11.337   6.825
81711SOL    HW246908   2.446  11.327   6.908
81712SOL     OW46909   8.033   0.566   1.742
81712SOL    HW146910   8.015   0.569   1.836
81712SOL    HW246911   7.947   0.566   1.700
81713SOL     OW46912   9.754  10.492   0.707
81713SOL    HW146913   9.801  10.504   0.625
81713SOL    HW246914   9.761  10.398   0.725
81714SOL     OW46915   4.283   2.649  12.723
81714SOL    HW146916   4.294   2.571  12.776
81714SOL    HW246917   4.367   2.695  12.729
81715SOL     OW46918   5.605  10.240   6.425
81715SOL    HW146919   5.545  10.198   6.363
81715SOL    HW246920   5.627  10.171   6.488
81716SOL     OW46921   2.063   4.949   7.922
81716SOL    HW146922   2.102   4.971   7.838
81716SOL    HW246923   2.059   5.031   7.970
81717SOL     OW46924   0.122  12.591   3.216
81717SOL    HW146925   0.186  12.537   3.262
81717SOL    HW246926   0.077  12.640   3.284
81718SOL     OW46927   8.072   8.773   6.263
81718SOL    HW146928   8.094   8.820   6.344
81718SOL    HW246929   7.979   8.750   6.274
81719SOL     OW46930   4.871  14.655   7.133
81719SOL    HW146931   4.859  14.560   7.136
81719SOL    HW246932   4.910  14.672   7.048
81720SOL     OW46933   2.011  14.740   3.101
81720SOL    HW146934   2.028  14.768   3.011
81720SOL    HW246935   1.916  14.733   3.107
81721SOL     OW46936   3.075   4.965   4.802
81721SOL    HW146937   3.163   5.001   4.810
81721SOL    HW246938   3.021   5.019   4.860
81722SOL     OW46939   9.824   6.232   5.179
81722SOL    HW146940   9.860   6.306   5.227
81722SOL    HW246941   9.855   6.155   5.225
81723SOL     OW46942   8.996  11.975  11.687
81723SOL    HW146943   9.029  12.039  11.624
81723SOL    HW246944   8.901  11.981  11.680
81724SOL     OW46945   8.557   1.259  11.069
81724SOL    HW146946   8.510   1.179  11.095
81724SOL    HW246947   8.648   1.243  11.096
81725SOL     OW46948  11.409   5.482   3.209
81725SOL    HW146949  11.379   5.416   3.272
81725SOL    HW246950  11.337   5.544   3.202
81726SOL     OW46951  10.377  13.339   8.249
81726SOL    HW146952  10.287  13.324   8.219
81726SOL    HW246953  10.421  13.256   8.234
81727SOL     OW46954   3.325  14.228  14.762
81727SOL    HW146955   3.311  14.230  14.668
81727SOL    HW246956   3.352  14.318  14.784
81728SOL     OW46957   4.568   5.584   3.432
81728SOL    HW146958   4.611   5.607   3.349
81728SOL    HW246959   4.634   5.603   3.499
81729SOL     OW46960   4.349  10.357  10.981
81729SOL    HW146961   4.425  10.411  10.960
81729SOL    HW246962   4.360  10.336  11.074
81730SOL     OW46963  14.804   0.017  10.797
81730SOL    HW146964  14.860   0.075  10.847
81730SOL    HW246965  14.715   0.049  10.813
81731SOL     OW46966   3.961   8.009   9.865
81731SOL    HW146967   3.916   8.094   9.867
81731SOL    HW246968   3.897   7.948   9.829
81732SOL     OW46969  14.047   8.713  12.497
81732SOL    HW146970  13.973   8.657  12.521
81732SOL    HW246971  14.044   8.717  12.402
81733SOL     OW46972   6.424   8.082  10.760
81733SOL    HW146973   6.432   8.008  10.820
81733SOL    HW246974   6.503   8.134  10.776
81734SOL     OW46975   5.303   4.572   6.733
81734SOL    HW146976   5.317   4.545   6.824
81734SOL    HW246977   5.212   4.602   6.731
81735SOL     OW46978  14.350   8.467  12.647
81735SOL    HW146979  14.255   8.470  12.649
81735SOL    HW246980  14.378   8.548  12.690
81736SOL     OW46981  11.031  11.938   8.368
81736SOL    HW146982  11.083  12.011   8.400
81736SOL    HW246983  11.088  11.893   8.306
81737SOL     OW46984   2.306  13.525  12.537
81737SOL    HW146985   2.287  13.619  12.540
81737SOL    HW246986   2.235  13.484  12.586
81738SOL     OW46987  10.161   7.538   3.080
81738SOL    HW146988  10.124   7.565   3.164
81738SOL    HW246989  10.210   7.458   3.100
81739SOL     OW46990   3.725  13.066  13.612
81739SOL    HW146991   3.808  13.022  13.598
81739SOL    HW246992   3.748  13.149  13.654
81740SOL     OW46993   5.906   5.706  10.993
81740SOL    HW146994   5.884   5.736  11.081
81740SOL    HW246995   6.002   5.704  10.992
81741SOL     OW46996   1.384   5.776   0.337
81741SOL    HW146997   1.295   5.743   0.323
81741SOL    HW246998   1.436   5.697   0.356
81742SOL     OW46999   5.850   1.358  10.115
81742SOL    HW147000   5.942   1.379  10.130
81742SOL    HW247001   5.841   1.266  10.139
81743SOL     OW47002   4.984   4.146   0.886
81743SOL    HW147003   4.985   4.066   0.940
81743SOL    HW247004   5.076   4.173   0.883
81744SOL     OW47005   4.559  14.248  13.588
81744SOL    HW147006   4.589  14.270  13.500
81744SOL    HW247007   4.598  14.162  13.606
81745SOL     OW47008   1.219  10.022   1.746
81745SOL    HW147009   1.313  10.024   1.763
81745SOL    HW247010   1.180  10.063   1.823
81746SOL     OW47011   3.256   6.832  14.214
81746SOL    HW147012   3.299   6.917  14.201
81746SOL    HW247013   3.325   6.776  14.250
81747SOL     OW47014   1.610  10.154   6.393
81747SOL    HW147015   1.551  10.100   6.342
81747SOL    HW247016   1.674  10.186   6.329
81748SOL     OW47017   0.654   0.430   5.261
81748SOL    HW147018   0.658   0.337   5.283
81748SOL    HW247019   0.742   0.463   5.281
81749SOL     OW47020   8.996   0.149   7.041
81749SOL    HW147021   9.077   0.104   7.018
81749SOL    HW247022   8.966   0.187   6.958
81750SOL     OW47023   3.767   1.629   0.522
81750SOL    HW147024   3.767   1.597   0.613
81750SOL    HW247025   3.848   1.594   0.485
81751SOL     OW47026   9.338   8.370   2.030
81751SOL    HW147027   9.348   8.459   2.061
81751SOL    HW247028   9.244   8.361   2.013
81752SOL     OW47029   5.510   7.554  13.324
81752SOL    HW147030   5.492   7.460  13.325
81752SOL    HW247031   5.476   7.586  13.408
81753SOL     OW47032  14.494  13.451  12.169
81753SOL    HW147033  14.410  13.496  12.179
81753SOL    HW247034  14.490  13.413  12.081
81754SOL     OW47035  11.616  14.554   0.654
81754SOL    HW147036  11.577  14.629   0.611
81754SOL    HW247037  11.641  14.586   0.741
81755SOL     OW47038  11.047   5.802  11.836
81755SOL    HW147039  11.025   5.789  11.929
81755SOL    HW247040  11.140   5.779  11.831
81756SOL     OW47041  14.165  11.891  13.320
81756SOL    HW147042  14.165  11.982  13.288
81756SOL    HW247043  14.189  11.899  13.412
81757SOL     OW47044   5.248   9.956   7.474
81757SOL    HW147045   5.253   9.999   7.559
81757SOL    HW247046   5.338   9.957   7.442
81758SOL     OW47047  14.396   2.583   7.429
81758SOL    HW147048  14.456   2.546   7.364
81758SOL    HW247049  14.320   2.612   7.378
81759SOL     OW47050   6.274   0.996   6.699
81759SOL    HW147051   6.357   1.044   6.706
81759SOL    HW247052   6.288   0.934   6.627
81760SOL     OW47053   2.722   9.432   7.028
81760SOL    HW147054   2.758   9.510   7.071
81760SOL    HW247055   2.686   9.380   7.100
81761SOL     OW47056   7.760  12.147   3.965
81761SOL    HW147057   7.811  12.101   3.898
81761SOL    HW247058   7.681  12.094   3.975
81762SOL     OW47059   3.497   0.505   5.512
81762SOL    HW147060   3.435   0.572   5.482
81762SOL    HW247061   3.457   0.469   5.591
81763SOL     OW47062   4.237   4.882  10.174
81763SOL    HW147063   4.175   4.899  10.245
81763SOL    HW247064   4.246   4.966  10.129
81764SOL     OW47065   2.582   4.035   1.613
81764SOL    HW147066   2.671   4.039   1.646
81764SOL    HW247067   2.590   4.048   1.518
81765SOL     OW47068   3.074   9.749   9.188
81765SOL    HW147069   2.987   9.780   9.165
81765SOL    HW247070   3.060   9.657   9.213
81766SOL     OW47071   3.679   6.266   3.307
81766SOL    HW147072   3.768   6.231   3.310
81766SOL    HW247073   3.684   6.348   3.357
81767SOL     OW47074   4.112   6.292  10.540
81767SOL    HW147075   4.201   6.301  10.507
81767SOL    HW247076   4.104   6.200  10.563
81768SOL     OW47077  11.705   1.149   2.412
81768SOL    HW147078  11.673   1.074   2.461
81768SOL    HW247079  11.662   1.225   2.451
81769SOL     OW47080  11.771  13.224  14.779
81769SOL    HW147081  11.753  13.317  14.768
81769SOL    HW247082  11.690  13.180  14.752
81770SOL     OW47083   4.584   1.626   3.203
81770SOL    HW147084   4.589   1.695   3.137
81770SOL    HW247085   4.494   1.626   3.233
81771SOL     OW47086   8.370  13.567   1.355
81771SOL    HW147087   8.318  13.561   1.275
81771SOL    HW247088   8.307  13.593   1.422
81772SOL     OW47089   8.491  13.617   0.018
81772SOL    HW147090   8.426  13.638   0.085
81772SOL    HW247091   8.531  13.701  14.873
81773SOL     OW47092  11.519   7.902  11.868
81773SOL    HW147093  11.590   7.872  11.811
81773SOL    HW247094  11.528   7.997  11.870
81774SOL     OW47095  11.497   1.426   5.241
81774SOL    HW147096  11.444   1.486   5.188
81774SOL    HW247097  11.453   1.426   5.327
81775SOL     OW47098  13.382  12.908   2.909
81775SOL    HW147099  13.422  12.823   2.929
81775SOL    HW247100  13.416  12.967   2.976
81776SOL     OW47101  14.575   6.453   1.062
81776SOL    HW147102  14.612   6.479   1.146
81776SOL    HW247103  14.486   6.424   1.083
81777SOL     OW47104  11.151   6.550   7.787
81777SOL    HW147105  11.150   6.465   7.744
81777SOL    HW247106  11.074   6.595   7.753
81778SOL     OW47107   8.695  13.123  11.694
81778SOL    HW147108   8.788  13.102  11.692
81778SOL    HW247109   8.679  13.173  11.614
81779SOL     OW47110   4.072   5.297   9.826
81779SOL    HW147111   3.979   5.303   9.850
81779SOL    HW247112   4.078   5.218   9.773
81780SOL     OW47113   3.751  13.981   9.193
81780SOL    HW147114   3.788  13.914   9.251
81780SOL    HW247115   3.658  13.959   9.188
81781SOL     OW47116   6.247  14.772   0.409
81781SOL    HW147117   6.242  14.732   0.496
81781SOL    HW247118   6.305  14.715   0.359
81782SOL     OW47119   0.966   5.943   6.333
81782SOL    HW147120   0.936   5.984   6.251
81782SOL    HW247121   0.886   5.925   6.381
81783SOL     OW47122   9.426   0.707  12.638
81783SOL    HW147123   9.477   0.777  12.597
81783SOL    HW247124   9.355   0.689  12.577
81784SOL     OW47125  10.421   1.040  14.857
81784SOL    HW147126  10.359   0.967  14.856
81784SOL    HW247127  10.418   1.072   0.070
81785SOL     OW47128   1.151   5.721  11.900
81785SOL    HW147129   1.113   5.776  11.831
81785SOL    HW247130   1.226   5.679  11.858
81786SOL     OW47131   6.448   8.823  11.278
81786SOL    HW147132   6.387   8.842  11.350
81786SOL    HW247133   6.418   8.878  11.206
81787SOL     OW47134   6.082  11.860   2.569
81787SOL    HW147135   6.069  11.884   2.477
81787SOL    HW247136   6.176  11.848   2.577
81788SOL     OW47137   3.699  13.230  11.524
81788SOL    HW147138   3.610  13.265  11.522
81788SOL    HW247139   3.695  13.160  11.588
81789SOL     OW47140  10.935  14.843  10.284
81789SOL    HW147141  10.846  14.850  10.250
81789SOL    HW247142  10.987  14.813  10.209
81790SOL     OW47143   2.807  14.084  10.686
81790SOL    HW147144   2.767  14.037  10.760
81790SOL    HW247145   2.737  14.142  10.655
81791SOL     OW47146   9.109   1.868   0.986
81791SOL    HW147147   9.147   1.898   0.904
81791SOL    HW247148   9.069   1.783   0.964
81792SOL     OW47149   4.140   4.430   4.457
81792SOL    HW147150   4.084   4.354   4.471
81792SOL    HW247151   4.100   4.475   4.382
81793SOL     OW47152  12.495   1.892   1.886
81793SOL    HW147153  12.476   1.854   1.971
81793SOL    HW247154  12.590   1.903   1.886
81794SOL     OW47155  12.606   1.771  14.582
81794SOL    HW147156  12.641   1.860  14.575
81794SOL    HW247157  12.547   1.763  14.507
81795SOL     OW47158  13.299  11.707   9.505
81795SOL    HW147159  13.215  11.739   9.537
81795SOL    HW247160  13.318  11.762   9.429
81796SOL     OW47161   9.783  11.027   0.564
81796SOL    HW147162   9.742  11.025   0.477
81796SOL    HW247163   9.859  10.969   0.555
81797SOL     OW47164  11.771  10.603   1.617
81797SOL    HW147165  11.710  10.670   1.647
81797SOL    HW247166  11.717  10.525   1.604
81798SOL     OW47167   4.499   9.129  10.677
81798SOL    HW147168   4.407   9.106  10.685
81798SOL    HW247169   4.533   9.122  10.766
81799SOL     OW47170   2.757   1.158   3.668
81799SOL    HW147171   2.738   1.244   3.630
81799SOL    HW247172   2.673   1.113   3.669
81800SOL     OW47173   9.720  13.435  10.333
81800SOL    HW147174   9.783  13.438  10.260
81800SOL    HW247175   9.747  13.360  10.385
81801SOL     OW47176   3.765   1.649   0.251
81801SOL    HW147177   3.682   1.697   0.245
81801SOL    HW247178   3.760   1.603   0.335
81802SOL     OW47179   7.688   9.275   9.108
81802SOL    HW147180   7.775   9.265   9.145
81802SOL    HW247181   7.629   9.274   9.184
81803SOL     OW47182   5.502   3.480  13.892
81803SOL    HW147183   5.587   3.436  13.880
81803SOL    HW247184   5.462   3.433  13.965
81804SOL     OW47185  13.902   5.405  13.289
81804SOL    HW147186  13.961   5.480  13.279
81804SOL    HW247187  13.955   5.329  13.266
81805SOL     OW47188   4.156   0.947  13.978
81805SOL    HW147189   4.062   0.941  13.992
81805SOL    HW247190   4.171   0.900  13.896
81806SOL     OW47191   7.681  14.281  13.907
81806SOL    HW147192   7.727  14.202  13.880
81806SOL    HW247193   7.611  14.250  13.964
81807SOL     OW47194   0.204  13.292   1.660
81807SOL    HW147195   0.155  13.362   1.702
81807SOL    HW247196   0.226  13.232   1.732
81808SOL     OW47197   6.759   6.420  11.991
81808SOL    HW147198   6.760   6.448  11.899
81808SOL    HW247199   6.773   6.326  11.988
81809SOL     OW47200   0.511   7.843  13.831
81809SOL    HW147201   0.549   7.924  13.796
81809SOL    HW247202   0.520   7.852  13.926
81810SOL     OW47203   5.775   1.214   0.438
81810SOL    HW147204   5.799   1.154   0.509
81810SOL    HW247205   5.724   1.159   0.377
81811SOL     OW47206  11.646  14.084   4.131
81811SOL    HW147207  11.735  14.079   4.168
81811SOL    HW247208  11.598  14.015   4.177
81812SOL     OW47209  13.367   6.068   3.430
81812SOL    HW147210  13.431   6.122   3.384
81812SOL    HW247211  13.402   5.979   3.424
81813SOL     OW47212   6.064  12.433  12.612
81813SOL    HW147213   6.144  12.485  12.612
81813SOL    HW247214   6.005  12.481  12.671
81814SOL     OW47215   0.992   7.729   0.011
81814SOL    HW147216   1.045   7.786   0.066
81814SOL    HW247217   0.941   7.789  14.834
81815SOL     OW47218   0.582  10.034  13.964
81815SOL    HW147219   0.665  10.013  13.920
81815SOL    HW247220   0.516  10.027  13.895
81816SOL     OW47221   2.563  13.843   2.829
81816SOL    HW147222   2.594  13.865   2.917
81816SOL    HW247223   2.528  13.755   2.838
81817SOL     OW47224  14.039   2.363  12.649
81817SOL    HW147225  14.045   2.430  12.581
81817SOL    HW247226  14.117   2.375  12.703
81818SOL     OW47227  12.384  11.843  14.106
81818SOL    HW147228  12.299  11.878  14.132
81818SOL    HW247229  12.446  11.880  14.170
81819SOL     OW47230   7.619   8.676  13.156
81819SOL    HW147231   7.555   8.605  13.158
81819SOL    HW247232   7.659   8.669  13.069
81820SOL     OW47233  10.181   6.847  11.123
81820SOL    HW147234  10.155   6.761  11.157
81820SOL    HW247235  10.099   6.888  11.095
81821SOL     OW47236  11.499   3.091  12.227
81821SOL    HW147237  11.410   3.118  12.204
81821SOL    HW247238  11.515   3.131  12.312
81822SOL     OW47239  14.276   6.477   0.222
81822SOL    HW147240  14.190   6.457   0.186
81822SOL    HW247241  14.288   6.570   0.205
81823SOL     OW47242   6.944   8.713  11.515
81823SOL    HW147243   6.910   8.801  11.497
81823SOL    HW247244   7.039   8.723  11.507
81824SOL     OW47245   2.744   4.573   4.245
81824SOL    HW147246   2.721   4.656   4.203
81824SOL    HW247247   2.824   4.593   4.294
81825SOL     OW47248   5.863  12.835   7.660
81825SOL    HW147249   5.896  12.923   7.644
81825SOL    HW247250   5.840  12.834   7.753
81826SOL     OW47251  11.809  11.356   9.297
81826SOL    HW147252  11.849  11.422   9.352
81826SOL    HW247253  11.859  11.276   9.315
81827SOL     OW47254   0.269   1.024   1.707
81827SOL    HW147255   0.341   0.961   1.697
81827SOL    HW247256   0.306   1.095   1.760
81828SOL     OW47257   0.005  12.537   3.698
81828SOL    HW147258  14.858  12.445   3.705
81828SOL    HW247259  14.800  12.585   3.707
81829SOL     OW47260   8.219   0.589   7.139
81829SOL    HW147261   8.167   0.637   7.203
81829SOL    HW247262   8.171   0.508   7.124
81830SOL     OW47263  13.868  14.809  12.322
81830SOL    HW147264  13.960  14.824  12.344
81830SOL    HW247265  13.830  14.771  12.401
81831SOL     OW47266   6.964   9.184  14.735
81831SOL    HW147267   7.042   9.165  14.683
81831SOL    HW247268   6.895   9.131  14.695
81832SOL     OW47269  11.572   9.335  13.447
81832SOL    HW147270  11.555   9.423  13.413
81832SOL    HW247271  11.532   9.334  13.534
81833SOL     OW47272   8.502   8.025   4.030
81833SOL    HW147273   8.546   8.023   3.945
81833SOL    HW247274   8.411   8.045   4.009
81834SOL     OW47275  13.781   7.005   2.534
81834SOL    HW147276  13.791   6.911   2.519
81834SOL    HW247277  13.778   7.014   2.629
81835SOL     OW47278  12.548  14.568  12.970
81835SOL    HW147279  12.585  14.656  12.956
81835SOL    HW247280  12.619  14.509  12.944
81836SOL     OW47281   4.224   5.177  10.100
81836SOL    HW147282   4.186   5.171  10.012
81836SOL    HW247283   4.163   5.231  10.150
81837SOL     OW47284   0.883  12.895   9.030
81837SOL    HW147285   0.910  12.932   8.945
81837SOL    HW247286   0.791  12.871   9.016
81838SOL     OW47287   5.742   9.601   8.452
81838SOL    HW147288   5.789   9.594   8.369
81838SOL    HW247289   5.747   9.513   8.489
81839SOL     OW47290   4.664   7.649   3.112
81839SOL    HW147291   4.679   7.599   3.031
81839SOL    HW247292   4.656   7.740   3.083
81840SOL     OW47293   8.404   6.064   9.091
81840SOL    HW147294   8.463   6.140   9.088
81840SOL    HW247295   8.320   6.099   9.063
81841SOL     OW47296   2.977  13.179   4.916
81841SOL    HW147297   2.927  13.124   4.856
81841SOL    HW247298   3.031  13.234   4.859
81842SOL     OW47299  11.091   1.823  13.422
81842SOL    HW147300  11.037   1.891  13.461
81842SOL    HW247301  11.146   1.869  13.359
81843SOL     OW47302   9.019   6.374  12.794
81843SOL    HW147303   9.053   6.360  12.883
81843SOL    HW247304   8.991   6.287  12.765
81844SOL     OW47305   8.816  13.605  14.218
81844SOL    HW147306   8.775  13.573  14.138
81844SOL    HW247307   8.909  13.605  14.199
81845SOL     OW47308   4.714   1.350   9.173
81845SOL    HW147309   4.803   1.383   9.159
81845SOL    HW247310   4.712   1.267   9.125
81846SOL     OW47311   6.256   5.496  12.222
81846SOL    HW147312   6.282   5.495  12.129
81846SOL    HW247313   6.168   5.461  12.222
81847SOL     OW47314   8.990  13.409  11.347
81847SOL    HW147315   8.931  13.451  11.409
81847SOL    HW247316   9.016  13.327  11.390
81848SOL     OW47317   6.564   1.295   8.618
81848SOL    HW147318   6.577   1.303   8.523
81848SOL    HW247319   6.611   1.370   8.654
81849SOL     OW47320  12.915   5.848   4.945
81849SOL    HW147321  12.908   5.943   4.951
81849SOL    HW247322  13.004   5.832   4.914
81850SOL     OW47323  13.133  10.811   8.953
81850SOL    HW147324  13.210  10.820   8.896
81850SOL    HW247325  13.065  10.777   8.895
81851SOL     OW47326   7.004   4.384  11.185
81851SOL    HW147327   6.970   4.469  11.158
81851SOL    HW247328   7.082   4.404  11.236
81852SOL     OW47329   6.801  13.881   9.946
81852SOL    HW147330   6.748  13.827  10.005
81852SOL    HW247331   6.844  13.944  10.004
81853SOL     OW47332   9.217   0.004   5.513
81853SOL    HW147333   9.139   0.027   5.464
81853SOL    HW247334   9.288   0.050   5.468
81854SOL     OW47335  12.684  10.864  12.103
81854SOL    HW147336  12.635  10.874  12.022
81854SOL    HW247337  12.761  10.814  12.079
81855SOL     OW47338   4.212   0.513   0.952
81855SOL    HW147339   4.245   0.602   0.965
81855SOL    HW247340   4.268   0.458   1.006
81856SOL     OW47341   2.926   2.886   4.782
81856SOL    HW147342   2.971   2.820   4.834
81856SOL    HW247343   2.996   2.940   4.746
81857SOL     OW47344  13.894   7.023   6.396
81857SOL    HW147345  13.946   6.966   6.339
81857SOL    HW247346  13.919   7.111   6.370
81858SOL     OW47347   5.650   4.092   2.130
81858SOL    HW147348   5.691   4.055   2.208
81858SOL    HW247349   5.621   4.179   2.156
81859SOL     OW47350   9.868  10.755   2.015
81859SOL    HW147351   9.848  10.757   2.109
81859SOL    HW247352   9.784  10.739   1.973
81860SOL     OW47353  10.647  13.820   1.694
81860SOL    HW147354  10.684  13.763   1.761
81860SOL    HW247355  10.649  13.907   1.732
81861SOL     OW47356  10.193   3.320  10.816
81861SOL    HW147357  10.190   3.224  10.817
81861SOL    HW247358  10.235   3.343  10.733
81862SOL     OW47359   7.304   3.734  12.420
81862SOL    HW147360   7.223   3.696  12.384
81862SOL    HW247361   7.373   3.705  12.360
81863SOL     OW47362   5.415   7.874  14.699
81863SOL    HW147363   5.327   7.870  14.662
81863SOL    HW247364   5.465   7.810  14.649
81864SOL     OW47365   1.506  11.892  11.862
81864SOL    HW147366   1.474  11.860  11.946
81864SOL    HW247367   1.565  11.965  11.885
81865SOL     OW47368   5.949  12.004   9.941
81865SOL    HW147369   6.026  12.009   9.883
81865SOL    HW247370   5.975  11.944  10.010
81866SOL     OW47371   6.991   3.707   4.978
81866SOL    HW147372   6.945   3.780   4.937
81866SOL    HW247373   6.970   3.715   5.071
81867SOL     OW47374   4.140   8.776   4.118
81867SOL    HW147375   4.203   8.825   4.171
81867SOL    HW247376   4.146   8.686   4.151
81868SOL     OW47377   1.183  11.990   1.483
81868SOL    HW147378   1.133  11.994   1.565
81868SOL    HW247379   1.228  12.074   1.478
81869SOL     OW47380  10.321  12.195   3.799
81869SOL    HW147381  10.244  12.220   3.748
81869SOL    HW247382  10.375  12.274   3.802
81870SOL     OW47383  13.212   5.813  12.428
81870SOL    HW147384  13.228   5.718  12.430
81870SOL    HW247385  13.189   5.835  12.518
81871SOL     OW47386   2.453  12.654  12.048
81871SOL    HW147387   2.376  12.681  12.097
81871SOL    HW247388   2.504  12.734  12.037
81872SOL     OW47389   6.986   6.775  10.304
81872SOL    HW147390   7.051   6.837  10.270
81872SOL    HW247391   6.998   6.777  10.399
81873SOL     OW47392   7.904   8.487   5.412
81873SOL    HW147393   7.851   8.567   5.421
81873SOL    HW247394   7.863   8.425   5.472
81874SOL     OW47395  11.731   9.839   4.776
81874SOL    HW147396  11.703   9.926   4.749
81874SOL    HW247397  11.796   9.855   4.844
81875SOL     OW47398   6.628   6.038   4.181
81875SOL    HW147399   6.689   5.964   4.180
81875SOL    HW247400   6.672   6.107   4.133
81876SOL     OW47401   9.750   9.416   1.327
81876SOL    HW147402   9.769   9.488   1.386
81876SOL    HW247403   9.791   9.441   1.244
81877SOL     OW47404   2.850  12.440   1.662
81877SOL    HW147405   2.873  12.531   1.642
81877SOL    HW247406   2.908  12.417   1.735
81878SOL     OW47407   1.099  11.941   3.676
81878SOL    HW147408   1.021  11.956   3.623
81878SOL    HW247409   1.148  11.874   3.627
81879SOL     OW47410   8.576   0.734   9.862
81879SOL    HW147411   8.665   0.748   9.828
81879SOL    HW247412   8.521   0.790   9.807
81880SOL     OW47413   9.031  10.510  13.449
81880SOL    HW147414   9.041  10.601  13.476
81880SOL    HW247415   9.120  10.474  13.450
81881SOL     OW47416   9.802   2.236  11.660
81881SOL    HW147417   9.769   2.237  11.570
81881SOL    HW247418   9.846   2.321  11.671
81882SOL     OW47419   9.668  11.016   5.170
81882SOL    HW147420   9.685  10.931   5.131
81882SOL    HW247421   9.590  11.048   5.124
81883SOL     OW47422   3.972   9.199   0.488
81883SOL    HW147423   3.986   9.287   0.453
81883SOL    HW247424   3.911   9.158   0.428
81884SOL     OW47425   8.014   8.859   7.960
81884SOL    HW147426   8.018   8.828   8.051
81884SOL    HW247427   7.960   8.793   7.915
81885SOL     OW47428   8.370   9.485  12.672
81885SOL    HW147429   8.452   9.449  12.705
81885SOL    HW247430   8.308   9.475  12.744
81886SOL     OW47431   1.002  14.476   0.203
81886SOL    HW147432   1.069  14.530   0.161
81886SOL    HW247433   0.957  14.433   0.130
81887SOL     OW47434   7.141  10.266   1.016
81887SOL    HW147435   7.119  10.206   1.086
81887SOL    HW247436   7.231  10.293   1.033
81888SOL     OW47437   5.347   3.408   6.655
81888SOL    HW147438   5.368   3.345   6.586
81888SOL    HW247439   5.334   3.355   6.733
81889SOL     OW47440  10.435   6.251  10.934
81889SOL    HW147441  10.347   6.253  10.895
81889SOL    HW247442  10.423   6.284  11.023
81890SOL     OW47443   6.230  10.704   3.981
81890SOL    HW147444   6.210  10.634   3.919
81890SOL    HW247445   6.315  10.680   4.017
81891SOL     OW47446  14.434   5.525   8.375
81891SOL    HW147447  14.343   5.516   8.348
81891SOL    HW247448  14.430   5.546   8.468
81892SOL     OW47449  14.835   9.306   0.021
81892SOL    HW147450   0.028   9.305  14.834
81892SOL    HW247451  14.777   9.377  14.871
81893SOL     OW47452  12.008   8.539   0.284
81893SOL    HW147453  11.977   8.459   0.326
81893SOL    HW247454  12.045   8.591   0.356
81894SOL     OW47455  13.555   4.128   8.376
81894SOL    HW147456  13.567   4.205   8.320
81894SOL    HW247457  13.506   4.067   8.322
81895SOL     OW47458   1.347  12.204   6.678
81895SOL    HW147459   1.368  12.267   6.746
81895SOL    HW247460   1.252  12.210   6.667
81896SOL     OW47461   9.251  10.951   1.714
81896SOL    HW147462   9.291  10.869   1.741
81896SOL    HW247463   9.314  10.991   1.654
81897SOL     OW47464  14.242  11.194   8.422
81897SOL    HW147465  14.304  11.257   8.384
81897SOL    HW247466  14.297  11.127   8.463
81898SOL     OW47467   8.792  13.077   0.257
81898SOL    HW147468   8.881  13.044   0.270
81898SOL    HW247469   8.803  13.172   0.252
81899SOL     OW47470   0.069   9.863   4.259
81899SOL    HW147471   0.125   9.918   4.205
81899SOL    HW247472   0.129   9.824   4.323
81900SOL     OW47473   3.187   6.905   3.046
81900SOL    HW147474   3.108   6.949   3.014
81900SOL    HW247475   3.157   6.858   3.124
81901SOL     OW47476  12.147   0.476   8.675
81901SOL    HW147477  12.058   0.461   8.643
81901SOL    HW247478  12.143   0.562   8.717
81902SOL     OW47479   5.014  14.629  14.383
81902SOL    HW147480   5.039  14.688  14.311
81902SOL    HW247481   5.001  14.544  14.341
81903SOL     OW47482  12.271   4.289   5.128
81903SOL    HW147483  12.366   4.303   5.128
81903SOL    HW247484  12.247   4.278   5.220
81904SOL     OW47485  12.385   8.349   2.628
81904SOL    HW147486  12.416   8.354   2.538
81904SOL    HW247487  12.462   8.368   2.682
81905SOL     OW47488   5.107   4.067  12.962
81905SOL    HW147489   5.050   4.010  13.013
81905SOL    HW247490   5.186   4.077  13.015
81906SOL     OW47491   4.687   4.460   6.169
81906SOL    HW147492   4.605   4.485   6.127
81906SOL    HW247493   4.732   4.406   6.104
81907SOL     OW47494  13.598   4.179  10.830
81907SOL    HW147495  13.535   4.196  10.760
81907SOL    HW247496  13.656   4.255  10.829
81908SOL     OW47497  14.308  10.627   7.480
81908SOL    HW147498  14.332  10.702   7.425
81908SOL    HW247499  14.213  10.632   7.486
81909SOL     OW47500  10.641  10.204   8.683
81909SOL    HW147501  10.681  10.185   8.767
81909SOL    HW247502  10.674  10.135   8.624
81910SOL     OW47503  10.454  12.944  10.952
81910SOL    HW147504  10.492  12.903  11.030
81910SOL    HW247505  10.518  12.931  10.883
81911SOL     OW47506   8.540  13.539   0.386
81911SOL    HW147507   8.553  13.511   0.476
81911SOL    HW247508   8.598  13.615   0.376
81912SOL     OW47509   8.768   9.409  13.838
81912SOL    HW147510   8.860   9.382  13.840
81912SOL    HW247511   8.721   9.340  13.885
81913SOL     OW47512  12.860   1.859   6.514
81913SOL    HW147513  12.921   1.891   6.448
81913SOL    HW247514  12.777   1.902   6.492
81914SOL     OW47515  13.241   1.586  11.620
81914SOL    HW147516  13.198   1.645  11.682
81914SOL    HW247517  13.314   1.548  11.669
81915SOL     OW47518   2.596   1.943  14.842
81915SOL    HW147519   2.579   1.910   0.053
81915SOL    HW247520   2.686   1.919  14.824
81916SOL     OW47521   0.511   5.254   9.248
81916SOL    HW147522   0.431   5.305   9.239
81916SOL    HW247523   0.532   5.258   9.342
81917SOL     OW47524  14.692  14.739   3.990
81917SOL    HW147525  14.656  14.653   3.969
81917SOL    HW247526  14.784  14.734   3.963
81918SOL     OW47527   1.830  12.807   5.770
81918SOL    HW147528   1.911  12.816   5.720
81918SOL    HW247529   1.779  12.885   5.746
81919SOL     OW47530   2.702  13.057   9.280
81919SOL    HW147531   2.751  13.000   9.221
81919SOL    HW247532   2.768  13.098   9.335
81920SOL     OW47533  12.463   0.937   0.226
81920SOL    HW147534  12.477   1.014   0.171
81920SOL    HW247535  12.490   0.965   0.314
81921SOL     OW47536  10.107  13.270   6.770
81921SOL    HW147537  10.035  13.331   6.788
81921SOL    HW247538  10.185  13.313   6.804
81922SOL     OW47539   9.259  13.544   3.984
81922SOL    HW147540   9.311  13.483   4.036
81922SOL    HW247541   9.212  13.597   4.049
81923SOL     OW47542   4.758  14.140  14.244
81923SOL    HW147543   4.773  14.074  14.177
81923SOL    HW247544   4.740  14.221  14.196
81924SOL     OW47545   0.224  13.251   9.381
81924SOL    HW147546   0.199  13.322   9.322
81924SOL    HW247547   0.294  13.289   9.435
81925SOL     OW47548  12.644   1.357  11.588
81925SOL    HW147549  12.641   1.342  11.494
81925SOL    HW247550  12.639   1.452  11.597
81926SOL     OW47551  10.860  11.370   3.918
81926SOL    HW147552  10.825  11.361   4.007
81926SOL    HW247553  10.910  11.452   3.920
81927SOL     OW47554  11.424  12.635  11.793
81927SOL    HW147555  11.438  12.644  11.699
81927SOL    HW247556  11.464  12.551  11.815
81928SOL     OW47557   8.881  14.727   1.572
81928SOL    HW147558   8.816  14.796   1.583
81928SOL    HW247559   8.857  14.683   1.491
81929SOL     OW47560   6.919   4.803   1.108
81929SOL    HW147561   6.930   4.826   1.016
81929SOL    HW247562   6.942   4.710   1.113
81930SOL     OW47563  11.749  11.690   3.007
81930SOL    HW147564  11.687  11.670   3.078
81930SOL    HW247565  11.762  11.784   3.013
81931SOL     OW47566   7.683  10.201   8.694
81931SOL    HW147567   7.627  10.124   8.708
81931SOL    HW247568   7.685  10.246   8.778
81932SOL     OW47569   2.096   7.102   2.178
81932SOL    HW147570   2.069   7.083   2.089
81932SOL    HW247571   2.077   7.195   2.190
81933SOL     OW47572  11.955  11.292   3.881
81933SOL    HW147573  11.887  11.225   3.885
81933SOL    HW247574  11.966  11.321   3.972
81934SOL     OW47575   3.809  11.002  12.432
81934SOL    HW147576   3.764  10.930  12.387
81934SOL    HW247577   3.750  11.077  12.423
81935SOL     OW47578   8.878   7.273   1.967
81935SOL    HW147579   8.824   7.335   1.918
81935SOL    HW247580   8.818   7.237   2.034
81936SOL     OW47581   2.230   8.723  13.524
81936SOL    HW147582   2.255   8.634  13.499
81936SOL    HW247583   2.312   8.766  13.546
81937SOL     OW47584   9.910   7.193   1.452
81937SOL    HW147585   9.829   7.239   1.428
81937SOL    HW247586   9.979   7.243   1.408
81938SOL     OW47587   7.073   4.063   2.766
81938SOL    HW147588   7.009   4.112   2.817
81938SOL    HW247589   7.069   3.974   2.802
81939SOL     OW47590   9.356   6.606   1.414
81939SOL    HW147591   9.428   6.566   1.462
81939SOL    HW247592   9.277   6.570   1.454
81940SOL     OW47593   2.890   3.545   7.461
81940SOL    HW147594   2.943   3.465   7.453
81940SOL    HW247595   2.854   3.559   7.374
81941SOL     OW47596   1.945   9.215   6.668
81941SOL    HW147597   2.029   9.186   6.702
81941SOL    HW247598   1.895   9.134   6.655
81942SOL     OW47599   2.509   4.889   9.830
81942SOL    HW147600   2.436   4.945   9.802
81942SOL    HW247601   2.528   4.917   9.919
81943SOL     OW47602  14.252   8.389   5.577
81943SOL    HW147603  14.301   8.373   5.496
81943SOL    HW247604  14.286   8.324   5.639
81944SOL     OW47605   1.483  14.573  11.256
81944SOL    HW147606   1.493  14.661  11.219
81944SOL    HW247607   1.395  14.546  11.229
81945SOL     OW47608   8.200   3.797   7.857
81945SOL    HW147609   8.244   3.846   7.926
81945SOL    HW247610   8.174   3.863   7.792
81946SOL     OW47611  11.316  12.473   9.254
81946SOL    HW147612  11.380  12.516   9.311
81946SOL    HW247613  11.259  12.424   9.314
81947SOL     OW47614   7.455  11.668  13.184
81947SOL    HW147615   7.435  11.729  13.255
81947SOL    HW247616   7.451  11.581  13.225
81948SOL     OW47617   2.338   7.066  13.506
81948SOL    HW147618   2.357   7.077  13.413
81948SOL    HW247619   2.346   7.153  13.543
81949SOL     OW47620   9.633  11.554   2.816
81949SOL    HW147621   9.710  11.611   2.808
81949SOL    HW247622   9.655  11.494   2.887
81950SOL     OW47623   9.455   2.063   1.375
81950SOL    HW147624   9.446   1.980   1.328
81950SOL    HW247625   9.489   2.124   1.310
81951SOL     OW47626   8.053   9.603   6.037
81951SOL    HW147627   7.975   9.659   6.027
81951SOL    HW247628   8.045   9.569   6.126
81952SOL     OW47629  12.974   3.329   8.294
81952SOL    HW147630  12.923   3.377   8.229
81952SOL    HW247631  13.050   3.298   8.246
81953SOL     OW47632  13.510   0.574  14.462
81953SOL    HW147633  13.578   0.630  14.500
81953SOL    HW247634  13.532   0.568  14.369
81954SOL     OW47635   6.629   1.967   3.685
81954SOL    HW147636   6.687   1.988   3.757
81954SOL    HW247637   6.681   1.911   3.627
81955SOL     OW47638   6.650   9.702   1.315
81955SOL    HW147639   6.628   9.689   1.223
81955SOL    HW247640   6.646   9.797   1.328
81956SOL     OW47641   4.956   2.042   8.079
81956SOL    HW147642   4.924   2.125   8.115
81956SOL    HW247643   4.906   1.975   8.125
81957SOL     OW47644   4.447   3.353   6.785
81957SOL    HW147645   4.365   3.353   6.735
81957SOL    HW247646   4.502   3.418   6.741
81958SOL     OW47647   5.732   2.137   2.561
81958SOL    HW147648   5.785   2.119   2.482
81958SOL    HW247649   5.655   2.183   2.528
81959SOL     OW47650   6.168  13.889   5.400
81959SOL    HW147651   6.223  13.920   5.327
81959SOL    HW247652   6.114  13.964   5.423
81960SOL     OW47653   4.214   3.816   8.652
81960SOL    HW147654   4.214   3.903   8.693
81960SOL    HW247655   4.270   3.825   8.576
81961SOL     OW47656   8.678   5.159   0.683
81961SOL    HW147657   8.648   5.156   0.592
81961SOL    HW247658   8.765   5.120   0.681
81962SOL     OW47659  10.342   0.936   9.473
81962SOL    HW147660  10.306   0.973   9.553
81962SOL    HW247661  10.431   0.909   9.497
81963SOL     OW47662   2.392   6.735   2.728
81963SOL    HW147663   2.482   6.704   2.741
81963SOL    HW247664   2.397   6.788   2.648
81964SOL     OW47665   8.918   5.142  12.576
81964SOL    HW147666   8.889   5.200  12.507
81964SOL    HW247667   8.990   5.091  12.537
81965SOL     OW47668   6.051  13.683  13.726
81965SOL    HW147669   6.106  13.744  13.774
81965SOL    HW247670   5.962  13.717  13.737
81966SOL     OW47671  11.525   1.737  10.707
81966SOL    HW147672  11.527   1.712  10.615
81966SOL    HW247673  11.613   1.771  10.725
81967SOL     OW47674  10.611  11.934   1.209
81967SOL    HW147675  10.517  11.951   1.200
81967SOL    HW247676  10.618  11.877   1.285
81968SOL     OW47677  14.736  10.728   1.322
81968SOL    HW147678  14.706  10.773   1.401
81968SOL    HW247679  14.666  10.743   1.258
81969SOL     OW47680   7.370  14.855   2.452
81969SOL    HW147681   7.282  14.841   2.418
81969SOL    HW247682   7.372   0.070   2.475
81970SOL     OW47683   8.844  13.947   0.267
81970SOL    HW147684   8.832  13.876   0.204
81970SOL    HW247685   8.923  13.923   0.315
81971SOL     OW47686   1.065  10.150   6.104
81971SOL    HW147687   1.141  10.096   6.082
81971SOL    HW247688   0.997  10.087   6.127
81972SOL     OW47689   9.736   4.089   3.834
81972SOL    HW147690   9.715   4.104   3.926
81972SOL    HW247691   9.777   4.170   3.804
81973SOL     OW47692  13.442   5.676  13.253
81973SOL    HW147693  13.385   5.753  13.248
81973SOL    HW247694  13.515   5.702  13.309
81974SOL     OW47695  10.624  13.126   0.307
81974SOL    HW147696  10.579  13.107   0.389
81974SOL    HW247697  10.567  13.189   0.262
81975SOL     OW47698  13.789  10.728  12.111
81975SOL    HW147699  13.698  10.756  12.116
81975SOL    HW247700  13.839  10.807  12.131
81976SOL     OW47701   5.109   2.536   3.750
81976SOL    HW147702   5.099   2.569   3.840
81976SOL    HW247703   5.203   2.542   3.733
81977SOL     OW47704   2.592   2.224   5.367
81977SOL    HW147705   2.578   2.220   5.462
81977SOL    HW247706   2.593   2.133   5.339
81978SOL     OW47707   7.796   0.547   1.622
81978SOL    HW147708   7.758   0.634   1.640
81978SOL    HW247709   7.724   0.486   1.638
81979SOL     OW47710  11.457   5.322   8.655
81979SOL    HW147711  11.383   5.292   8.708
81979SOL    HW247712  11.453   5.269   8.576
81980SOL     OW47713   1.503   9.083   4.128
81980SOL    HW147714   1.448   9.033   4.189
81980SOL    HW247715   1.584   9.033   4.121
81981SOL     OW47716   0.163   0.922  10.920
81981SOL    HW147717   0.162   0.882  11.007
81981SOL    HW247718   0.164   0.847  10.860
81982SOL     OW47719   5.236   8.809   2.544
81982SOL    HW147720   5.289   8.843   2.616
81982SOL    HW247721   5.242   8.714   2.552
81983SOL     OW47722  12.570   7.677   4.586
81983SOL    HW147723  12.488   7.628   4.583
81983SOL    HW247724  12.610   7.650   4.669
81984SOL     OW47725   5.495   1.007  10.151
81984SOL    HW147726   5.487   0.912  10.159
81984SOL    HW247727   5.506   1.022  10.057
81985SOL     OW47728   6.519   4.661   8.923
81985SOL    HW147729   6.528   4.749   8.960
81985SOL    HW247730   6.599   4.648   8.873
81986SOL     OW47731  11.053   6.081   0.249
81986SOL    HW147732  11.068   6.098   0.156
81986SOL    HW247733  10.988   6.146   0.274
81987SOL     OW47734   3.991   2.629  14.024
81987SOL    HW147735   4.084   2.622  14.048
81987SOL    HW247736   3.950   2.672  14.100
81988SOL     OW47737   5.364   3.635  12.634
81988SOL    HW147738   5.273   3.614  12.612
81988SOL    HW247739   5.359   3.675  12.720
81989SOL     OW47740   9.140   4.579   4.909
81989SOL    HW147741   9.186   4.508   4.865
81989SOL    HW247742   9.073   4.535   4.962
81990SOL     OW47743   7.909   4.509   3.400
81990SOL    HW147744   7.981   4.446   3.402
81990SOL    HW247745   7.950   4.592   3.374
81991SOL     OW47746   6.073   9.097   4.541
81991SOL    HW147747   6.127   9.078   4.464
81991SOL    HW247748   6.029   9.014   4.559
81992SOL     OW47749   7.480   2.711   6.195
81992SOL    HW147750   7.569   2.745   6.201
81992SOL    HW247751   7.488   2.630   6.145
81993SOL     OW47752   1.029   4.401   5.858
81993SOL    HW147753   1.079   4.413   5.939
81993SOL    HW247754   0.998   4.489   5.836
81994SOL     OW47755   4.513   1.881   0.770
81994SOL    HW147756   4.562   1.898   0.850
81994SOL    HW247757   4.427   1.850   0.801
81995SOL     OW47758   0.391   3.900   8.019
81995SOL    HW147759   0.403   3.836   8.090
81995SOL    HW247760   0.317   3.865   7.969
81996SOL     OW47761   4.873   5.026   4.781
81996SOL    HW147762   4.801   5.056   4.725
81996SOL    HW247763   4.873   5.088   4.854
81997SOL     OW47764   5.259   2.865   3.846
81997SOL    HW147765   5.181   2.901   3.804
81997SOL    HW247766   5.320   2.848   3.774
81998SOL     OW47767   2.812   7.967  10.333
81998SOL    HW147768   2.828   8.021  10.256
81998SOL    HW247769   2.744   7.906  10.305
81999SOL     OW47770   0.557   7.261  10.580
81999SOL    HW147771   0.539   7.312  10.501
81999SOL    HW247772   0.560   7.170  10.549
82000SOL     OW47773   3.138  13.135   4.425
82000SOL    HW147774   3.079  13.201   4.461
82000SOL    HW247775   3.080  13.069   4.386
82001SOL     OW47776   9.798   4.142   3.460
82001SOL    HW147777   9.861   4.158   3.530
82001SOL    HW247778   9.721   4.194   3.485
82002SOL     OW47779   5.074   5.994   8.469
82002SOL    HW147780   5.049   6.069   8.415
82002SOL    HW247781   5.167   5.981   8.451
82003SOL     OW47782  14.665  14.150   9.974
82003SOL    HW147783  14.673  14.101  10.056
82003SOL    HW247784  14.582  14.120   9.936
82004SOL     OW47785  12.871   8.196   9.421
82004SOL    HW147786  12.789   8.158   9.388
82004SOL    HW247787  12.934   8.125   9.419
82005SOL     OW47788   6.756  12.284   3.384
82005SOL    HW147789   6.754  12.316   3.294
82005SOL    HW247790   6.683  12.222   3.389
82006SOL     OW47791   5.633   5.166   4.297
82006SOL    HW147792   5.686   5.131   4.369
82006SOL    HW247793   5.543   5.167   4.332
82007SOL     OW47794   7.684   2.089   6.583
82007SOL    HW147795   7.752   2.135   6.535
82007SOL    HW247796   7.720   2.002   6.598
82008SOL     OW47797  13.419   2.604   2.857
82008SOL    HW147798  13.388   2.525   2.814
82008SOL    HW247799  13.496   2.577   2.906
82009SOL     OW47800   0.529   8.099   0.885
82009SOL    HW147801   0.520   8.017   0.836
82009SOL    HW247802   0.623   8.117   0.885
82010SOL     OW47803   9.323   7.167   9.102
82010SOL    HW147804   9.254   7.204   9.047
82010SOL    HW247805   9.402   7.176   9.049
82011SOL     OW47806  10.260   1.133   3.272
82011SOL    HW147807  10.222   1.135   3.359
82011SOL    HW247808  10.338   1.189   3.279
82012SOL     OW47809   8.565   0.438   6.719
82012SOL    HW147810   8.630   0.370   6.732
82012SOL    HW247811   8.488   0.392   6.686
82013SOL     OW47812   6.374   9.828  12.990
82013SOL    HW147813   6.368   9.784  12.905
82013SOL    HW247814   6.421   9.909  12.973
82014SOL     OW47815   5.623   5.985   0.629
82014SOL    HW147816   5.633   5.896   0.597
82014SOL    HW247817   5.682   5.990   0.704
82015SOL     OW47818   0.660   2.096  12.729
82015SOL    HW147819   0.649   2.065  12.819
82015SOL    HW247820   0.704   2.024  12.685
82016SOL     OW47821   0.827   9.535  13.917
82016SOL    HW147822   0.909   9.559  13.874
82016SOL    HW247823   0.841   9.553  14.009
82017SOL     OW47824   0.934  12.425   8.188
82017SOL    HW147825   0.947  12.370   8.110
82017SOL    HW247826   0.952  12.366   8.261
82018SOL     OW47827  10.712   4.992   9.227
82018SOL    HW147828  10.691   5.085   9.228
82018SOL    HW247829  10.674   4.959   9.146
82019SOL     OW47830   6.490   0.273  12.580
82019SOL    HW147831   6.412   0.312  12.541
82019SOL    HW247832   6.563   0.307  12.528
82020SOL     OW47833   0.391  11.010   8.370
82020SOL    HW147834   0.434  11.014   8.455
82020SOL    HW247835   0.457  11.038   8.308
82021SOL     OW47836   9.382   9.755  14.029
82021SOL    HW147837   9.365   9.665  14.000
82021SOL    HW247838   9.336   9.809  13.965
82022SOL     OW47839  14.666   8.929   6.392
82022SOL    HW147840  14.628   8.998   6.447
82022SOL    HW247841  14.604   8.918   6.321
82023SOL     OW47842   3.756  11.042   4.245
82023SOL    HW147843   3.768  10.947   4.246
82023SOL    HW247844   3.776  11.070   4.334
82024SOL     OW47845   6.697   1.061   3.315
82024SOL    HW147846   6.765   1.111   3.359
82024SOL    HW247847   6.631   1.127   3.291
82025SOL     OW47848   2.926   1.733  13.205
82025SOL    HW147849   2.846   1.735  13.153
82025SOL    HW247850   2.924   1.648  13.249
82026SOL     OW47851  14.428   1.055   0.303
82026SOL    HW147852  14.509   1.004   0.303
82026SOL    HW247853  14.359   0.990   0.287
82027SOL     OW47854   6.349  12.390   5.068
82027SOL    HW147855   6.416  12.326   5.091
82027SOL    HW247856   6.335  12.440   5.149
82028SOL     OW47857   1.162   4.509  13.222
82028SOL    HW147858   1.184   4.416  13.227
82028SOL    HW247859   1.196   4.537  13.136
82029SOL     OW47860   6.004   5.371   4.629
82029SOL    HW147861   6.063   5.420   4.686
82029SOL    HW247862   5.951   5.319   4.690
82030SOL     OW47863   7.052  11.483   2.860
82030SOL    HW147864   7.004  11.554   2.817
82030SOL    HW247865   6.986  11.438   2.912
82031SOL     OW47866   8.801   8.849  12.534
82031SOL    HW147867   8.801   8.930  12.585
82031SOL    HW247868   8.712   8.814  12.544
82032SOL     OW47869   8.214   2.071   7.272
82032SOL    HW147870   8.220   2.003   7.205
82032SOL    HW247871   8.300   2.114   7.269
82033SOL     OW47872   6.193  11.211  10.250
82033SOL    HW147873   6.186  11.258  10.167
82033SOL    HW247874   6.154  11.271  10.314
82034SOL     OW47875   4.751  13.043   6.462
82034SOL    HW147876   4.792  13.130   6.461
82034SOL    HW247877   4.813  12.987   6.509
82035SOL     OW47878   4.024   6.421  11.644
82035SOL    HW147879   3.940   6.382  11.617
82035SOL    HW247880   4.059   6.360  11.709
82036SOL     OW47881   6.940  11.263  14.128
82036SOL    HW147882   6.913  11.196  14.065
82036SOL    HW247883   7.019  11.302  14.089
82037SOL     OW47884  14.164  13.460   7.092
82037SOL    HW147885  14.162  13.541   7.144
82037SOL    HW247886  14.256  13.449   7.069
82038SOL     OW47887   1.563  14.095   1.056
82038SOL    HW147888   1.615  14.135   1.126
82038SOL    HW247889   1.628  14.064   0.993
82039SOL     OW47890   8.054   2.970  13.054
82039SOL    HW147891   8.068   2.901  13.119
82039SOL    HW247892   7.971   2.948  13.013
82040SOL     OW47893   5.338   2.895  10.710
82040SOL    HW147894   5.284   2.835  10.763
82040SOL    HW247895   5.336   2.977  10.758
82041SOL     OW47896   1.567   4.918   7.367
82041SOL    HW147897   1.592   4.830   7.338
82041SOL    HW247898   1.615   4.977   7.310
82042SOL     OW47899  12.842   4.492   5.620
82042SOL    HW147900  12.926   4.535   5.635
82042SOL    HW247901  12.863   4.415   5.568
82043SOL     OW47902  11.175   8.786  10.940
82043SOL    HW147903  11.087   8.750  10.950
82043SOL    HW247904  11.161   8.877  10.911
82044SOL     OW47905   6.724   0.971  14.340
82044SOL    HW147906   6.672   0.917  14.399
82044SOL    HW247907   6.815   0.951  14.363
82045SOL     OW47908   7.402   0.971   0.013
82045SOL    HW147909   7.491   1.007   0.014
82045SOL    HW247910   7.384   0.950   0.105
82046SOL     OW47911   1.201   2.854   8.543
82046SOL    HW147912   1.278   2.806   8.571
82046SOL    HW247913   1.223   2.947   8.555
82047SOL     OW47914   5.335  14.661   3.541
82047SOL    HW147915   5.305  14.601   3.473
82047SOL    HW247916   5.368  14.737   3.493
82048SOL     OW47917   6.794   1.939   3.188
82048SOL    HW147918   6.830   1.854   3.213
82048SOL    HW247919   6.765   1.928   3.098
82049SOL     OW47920   6.429   9.023  10.235
82049SOL    HW147921   6.396   9.037  10.324
82049SOL    HW247922   6.351   9.027  10.179
82050SOL     OW47923   1.534   1.710   3.461
82050SOL    HW147924   1.535   1.795   3.504
82050SOL    HW247925   1.533   1.730   3.367
82051SOL     OW47926   6.036   6.489   1.837
82051SOL    HW147927   6.129   6.513   1.838
82051SOL    HW247928   6.016   6.478   1.744
82052SOL     OW47929   6.755  13.465   5.218
82052SOL    HW147930   6.698  13.488   5.145
82052SOL    HW247931   6.704  13.400   5.267
82053SOL     OW47932   2.504   8.222   2.007
82053SOL    HW147933   2.543   8.137   2.030
82053SOL    HW247934   2.522   8.233   1.914
82054SOL     OW47935   0.276   2.730  13.926
82054SOL    HW147936   0.300   2.701  13.838
82054SOL    HW247937   0.207   2.795  13.912
82055SOL     OW47938   9.514   7.175   2.816
82055SOL    HW147939   9.521   7.186   2.721
82055SOL    HW247940   9.589   7.121   2.840
82056SOL     OW47941   7.504   2.905   7.652
82056SOL    HW147942   7.550   2.848   7.589
82056SOL    HW247943   7.547   2.886   7.736
82057SOL     OW47944   0.867   3.079  11.264
82057SOL    HW147945   0.785   3.089  11.217
82057SOL    HW247946   0.928   3.045  11.199
82058SOL     OW47947  14.198   6.485   8.569
82058SOL    HW147948  14.129   6.540   8.605
82058SOL    HW247949  14.276   6.540   8.569
82059SOL     OW47950  12.098   1.010  13.740
82059SOL    HW147951  12.073   0.993  13.649
82059SOL    HW247952  12.024   1.058  13.777
82060SOL     OW47953   4.731   1.382   5.965
82060SOL    HW147954   4.664   1.448   5.948
82060SOL    HW247955   4.744   1.338   5.881
82061SOL     OW47956  12.425   8.666  10.404
82061SOL    HW147957  12.460   8.755  10.398
82061SOL    HW247958  12.332   8.674  10.381
82062SOL     OW47959  10.226   3.880  10.241
82062SOL    HW147960  10.190   3.792  10.240
82062SOL    HW247961  10.308   3.873  10.192
82063SOL     OW47962  13.701   7.688   2.897
82063SOL    HW147963  13.678   7.692   2.804
82063SOL    HW247964  13.670   7.772   2.933
82064SOL     OW47965   2.980   0.709   3.742
82064SOL    HW147966   3.067   0.676   3.722
82064SOL    HW247967   2.974   0.793   3.696
82065SOL     OW47968   7.714  10.693   0.620
82065SOL    HW147969   7.690  10.618   0.675
82065SOL    HW247970   7.724  10.765   0.682
82066SOL     OW47971  14.789   8.570   8.925
82066SOL    HW147972  14.737   8.639   8.884
82066SOL    HW247973  14.845   8.616   8.988
82067SOL     OW47974   8.124  11.224   2.735
82067SOL    HW147975   8.130  11.239   2.830
82067SOL    HW247976   8.053  11.161   2.726
82068SOL     OW47977   5.666   9.032  10.901
82068SOL    HW147978   5.761   9.034  10.915
82068SOL    HW247979   5.638   9.122  10.917
82069SOL     OW47980   1.385  14.284  11.375
82069SOL    HW147981   1.429  14.276  11.460
82069SOL    HW247982   1.346  14.198  11.360
82070SOL     OW47983  12.273   1.173   3.671
82070SOL    HW147984  12.343   1.152   3.608
82070SOL    HW247985  12.197   1.124   3.639
82071SOL     OW47986   2.570  12.239   8.170
82071SOL    HW147987   2.504  12.283   8.224
82071SOL    HW247988   2.593  12.160   8.220
82072SOL     OW47989  11.508   3.943   0.678
82072SOL    HW147990  11.461   3.873   0.721
82072SOL    HW247991  11.556   3.900   0.607
82073SOL     OW47992   2.944   1.403   4.839
82073SOL    HW147993   2.958   1.309   4.853
82073SOL    HW247994   2.953   1.415   4.744
82074SOL     OW47995   1.129   2.359   6.904
82074SOL    HW147996   1.128   2.329   6.995
82074SOL    HW247997   1.042   2.337   6.871
82075SOL     OW47998   4.116   3.258   1.623
82075SOL    HW147999   4.143   3.168   1.606
82075SOL    HW248000   4.027   3.262   1.589
82076SOL     OW48001   5.967   9.819   7.104
82076SOL    HW148002   5.971   9.835   7.010
82076SOL    HW248003   5.878   9.844   7.129
82077SOL     OW48004  11.571   9.725   6.151
82077SOL    HW148005  11.497   9.755   6.099
82077SOL    HW248006  11.623   9.672   6.091
82078SOL     OW48007   2.781  11.385  14.001
82078SOL    HW148008   2.815  11.457  14.054
82078SOL    HW248009   2.686  11.391  14.011
82079SOL     OW48010   7.700  12.020   4.571
82079SOL    HW148011   7.619  11.974   4.593
82079SOL    HW248012   7.673  12.110   4.552
82080SOL     OW48013  13.393   3.818   9.618
82080SOL    HW148014  13.436   3.830   9.703
82080SOL    HW248015  13.338   3.895   9.608
82081SOL     OW48016   8.906   1.723  11.605
82081SOL    HW148017   8.812   1.732  11.617
82081SOL    HW248018   8.932   1.803  11.560
82082SOL     OW48019  12.266  10.311   0.420
82082SOL    HW148020  12.208  10.254   0.469
82082SOL    HW248021  12.335  10.335   0.483
82083SOL     OW48022  11.450   6.698   1.813
82083SOL    HW148023  11.545   6.693   1.799
82083SOL    HW248024  11.439   6.765   1.880
82084SOL     OW48025   7.355  11.480  14.398
82084SOL    HW148026   7.276  11.446  14.439
82084SOL    HW248027   7.399  11.404  14.362
82085SOL     OW48028   3.626   8.084   4.304
82085SOL    HW148029   3.696   8.129   4.351
82085SOL    HW248030   3.582   8.154   4.256
82086SOL     OW48031   2.702  11.191   2.424
82086SOL    HW148032   2.735  11.206   2.512
82086SOL    HW248033   2.676  11.099   2.423
82087SOL     OW48034   6.554   2.389  13.023
82087SOL    HW148035   6.539   2.470  12.975
82087SOL    HW248036   6.485   2.330  12.994
82088SOL     OW48037   3.364  11.462  11.788
82088SOL    HW148038   3.293  11.423  11.737
82088SOL    HW248039   3.424  11.497  11.722
82089SOL     OW48040  13.057   5.377  13.586
82089SOL    HW148041  13.137   5.426  13.605
82089SOL    HW248042  13.002   5.391  13.663
82090SOL     OW48043   6.531  14.634  12.357
82090SOL    HW148044   6.596  14.630  12.287
82090SOL    HW248045   6.518  14.727  12.373
82091SOL     OW48046  10.495  10.680   8.230
82091SOL    HW148047  10.492  10.677   8.134
82091SOL    HW248048  10.486  10.773   8.251
82092SOL     OW48049   0.235  12.679   6.322
82092SOL    HW148050   0.171  12.620   6.363
82092SOL    HW248051   0.312  12.624   6.307
82093SOL     OW48052   6.337   9.681  12.752
82093SOL    HW148053   6.332   9.752  12.688
82093SOL    HW248054   6.397   9.617  12.714
82094SOL     OW48055  13.476   9.724   1.562
82094SOL    HW148056  13.546   9.789   1.565
82094SOL    HW248057  13.430   9.741   1.480
82095SOL     OW48058   1.325   4.166   8.654
82095SOL    HW148059   1.232   4.184   8.637
82095SOL    HW248060   1.342   4.207   8.739
82096SOL     OW48061   6.321  13.280   7.809
82096SOL    HW148062   6.277  13.284   7.894
82096SOL    HW248063   6.358  13.192   7.806
82097SOL     OW48064   6.763   1.010   2.929
82097SOL    HW148065   6.855   1.009   2.905
82097SOL    HW248066   6.759   0.964   3.013
82098SOL     OW48067  13.814   4.770  12.224
82098SOL    HW148068  13.734   4.727  12.194
82098SOL    HW248069  13.813   4.759  12.319
82099SOL     OW48070   7.220  11.890   7.346
82099SOL    HW148071   7.145  11.911   7.401
82099SOL    HW248072   7.182  11.874   7.259
82100SOL     OW48073  14.847   5.938   6.946
82100SOL    HW148074  14.765   5.889   6.951
82100SOL    HW248075  14.822   6.024   6.914
82101SOL     OW48076  11.321   7.936   4.741
82101SOL    HW148077  11.306   7.979   4.825
82101SOL    HW248078  11.337   8.008   4.679
82102SOL     OW48079   6.947   7.537  14.348
82102SOL    HW148080   7.011   7.597  14.387
82102SOL    HW248081   6.907   7.493  14.423
82103SOL     OW48082  12.915   1.171  13.312
82103SOL    HW148083  12.961   1.166  13.396
82103SOL    HW248084  12.830   1.209  13.334
82104SOL     OW48085   5.964  10.656   4.222
82104SOL    HW148086   6.012  10.738   4.220
82104SOL    HW248087   5.883  10.674   4.173
82105SOL     OW48088   7.360  14.827  11.244
82105SOL    HW148089   7.323  14.741  11.224
82105SOL    HW248090   7.341   0.003  11.167
82106SOL     OW48091  13.980   0.490   3.537
82106SOL    HW148092  13.974   0.416   3.598
82106SOL    HW248093  14.009   0.450   3.455
82107SOL     OW48094   1.223  13.049  12.687
82107SOL    HW148095   1.181  13.135  12.689
82107SOL    HW248096   1.211  13.015  12.775
82108SOL     OW48097   4.349   5.620   0.837
82108SOL    HW148098   4.391   5.656   0.759
82108SOL    HW248099   4.283   5.559   0.803
82109SOL     OW48100  10.909   4.246  11.322
82109SOL    HW148101  10.820   4.282  11.331
82109SOL    HW248102  10.896   4.152  11.312
82110SOL     OW48103  12.656   3.653   8.128
82110SOL    HW148104  12.663   3.558   8.121
82110SOL    HW248105  12.656   3.671   8.222
82111SOL     OW48106  10.618   2.680  10.650
82111SOL    HW148107  10.619   2.633  10.566
82111SOL    HW248108  10.598   2.612  10.715
82112SOL     OW48109   1.343   6.829   9.887
82112SOL    HW148110   1.376   6.790   9.968
82112SOL    HW248111   1.405   6.898   9.866
82113SOL     OW48112   4.673  14.498   7.480
82113SOL    HW148113   4.682  14.584   7.439
82113SOL    HW248114   4.689  14.514   7.573
82114SOL     OW48115  12.420   3.155  14.191
82114SOL    HW148116  12.405   3.241  14.152
82114SOL    HW248117  12.513   3.137  14.174
82115SOL     OW48118  11.096   7.452   5.092
82115SOL    HW148119  11.154   7.484   5.023
82115SOL    HW248120  11.154   7.422   5.162
82116SOL     OW48121  11.198  14.870  13.215
82116SOL    HW148122  11.227  14.860  13.124
82116SOL    HW248123  11.106  14.842  13.213
82117SOL     OW48124   7.239   6.322   2.883
82117SOL    HW148125   7.205   6.351   2.967
82117SOL    HW248126   7.221   6.395   2.823
82118SOL     OW48127  10.617   1.020  14.193
82118SOL    HW148128  10.528   1.036  14.161
82118SOL    HW248129  10.623   1.071  14.274
82119SOL     OW48130   9.948   2.772  13.638
82119SOL    HW148131   9.877   2.708  13.630
82119SOL    HW248132   9.911   2.843  13.691
82120SOL     OW48133   8.939   8.608   7.965
82120SOL    HW148134   8.903   8.690   8.000
82120SOL    HW248135   8.969   8.560   8.043
82121SOL     OW48136   5.327   5.637   7.204
82121SOL    HW148137   5.247   5.682   7.180
82121SOL    HW248138   5.389   5.658   7.134
82122SOL     OW48139   3.717   4.643   9.945
82122SOL    HW148140   3.739   4.556   9.914
82122SOL    HW248141   3.763   4.703   9.886
82123SOL     OW48142   6.422   1.822   4.077
82123SOL    HW148143   6.441   1.831   4.170
82123SOL    HW248144   6.461   1.899   4.037
82124SOL     OW48145   4.936  14.185  11.897
82124SOL    HW148146   4.952  14.137  11.816
82124SOL    HW248147   4.848  14.158  11.925
82125SOL     OW48148   8.233   1.083   4.212
82125SOL    HW148149   8.229   1.120   4.300
82125SOL    HW248150   8.285   1.146   4.162
82126SOL     OW48151   6.609   4.394   3.175
82126SOL    HW148152   6.525   4.423   3.140
82126SOL    HW248153   6.633   4.318   3.123
82127SOL     OW48154  13.603   6.868   1.124
82127SOL    HW148155  13.524   6.917   1.145
82127SOL    HW248156  13.666   6.894   1.191
82128SOL     OW48157   9.072  12.162   3.465
82128SOL    HW148158   9.038  12.090   3.411
82128SOL    HW248159   9.082  12.235   3.403
82129SOL     OW48160   3.078   1.371   4.070
82129SOL    HW148161   2.999   1.339   4.027
82129SOL    HW248162   3.134   1.293   4.077
82130SOL     OW48163  13.776   7.178  11.120
82130SOL    HW148164  13.733   7.226  11.049
82130SOL    HW248165  13.721   7.193  11.197
82131SOL     OW48166   2.006   7.737  10.774
82131SOL    HW148167   1.953   7.669  10.816
82131SOL    HW248168   2.085   7.742  10.828
82132SOL     OW48169  10.247  13.895  14.848
82132SOL    HW148170  10.176  13.838   0.000
82132SOL    HW248171  10.297  13.915   0.050
82133SOL     OW48172   6.007   1.865   9.827
82133SOL    HW148173   6.041   1.794   9.882
82133SOL    HW248174   5.968   1.821   9.752
82134SOL     OW48175  13.423  11.497   9.239
82134SOL    HW148176  13.357  11.541   9.185
82134SOL    HW248177  13.377  11.474   9.319
82135SOL     OW48178   2.562   2.397   7.159
82135SOL    HW148179   2.653   2.411   7.132
82135SOL    HW248180   2.547   2.460   7.230
82136SOL     OW48181   9.851  12.486  13.694
82136SOL    HW148182   9.893  12.560  13.738
82136SOL    HW248183   9.800  12.443  13.763
82137SOL     OW48184   9.093   0.146  12.815
82137SOL    HW148185   9.070   0.126  12.725
82137SOL    HW248186   9.146   0.071  12.843
82138SOL     OW48187  14.482  12.241  10.279
82138SOL    HW148188  14.545  12.313  10.280
82138SOL    HW248189  14.531  12.165  10.308
82139SOL     OW48190  12.182   8.725  11.139
82139SOL    HW148191  12.257   8.671  11.164
82139SOL    HW248192  12.151   8.762  11.221
82140SOL     OW48193   1.174   3.389   0.955
82140SOL    HW148194   1.268   3.408   0.963
82140SOL    HW248195   1.159   3.317   1.017
82141SOL     OW48196   0.571   7.591   7.796
82141SOL    HW148197   0.616   7.626   7.873
82141SOL    HW248198   0.493   7.548   7.830
82142SOL     OW48199   0.593   7.221   1.945
82142SOL    HW148200   0.498   7.239   1.946
82142SOL    HW248201   0.602   7.136   1.986
82143SOL     OW48202   6.269   7.078   4.067
82143SOL    HW148203   6.252   6.986   4.086
82143SOL    HW248204   6.279   7.119   4.154
82144SOL     OW48205   7.134   1.907   3.779
82144SOL    HW148206   7.176   1.992   3.768
82144SOL    HW248207   7.190   1.846   3.731
82145SOL     OW48208  14.670  12.500  12.618
82145SOL    HW148209  14.612  12.574  12.596
82145SOL    HW248210  14.750  12.541  12.649
82146SOL     OW48211   8.915   9.863   7.653
82146SOL    HW148212   8.913   9.767   7.650
82146SOL    HW248213   8.823   9.889   7.646
82147SOL     OW48214  11.081  14.108  13.227
82147SOL    HW148215  11.080  14.046  13.154
82147SOL    HW248216  11.172  14.134  13.236
82148SOL     OW48217   4.393   6.617  14.753
82148SOL    HW148218   4.394   6.604  14.658
82148SOL    HW248219   4.481   6.592  14.782
82149SOL     OW48220   9.375   4.087   9.248
82149SOL    HW148221   9.345   4.037   9.325
82149SOL    HW248222   9.317   4.059   9.177
82150SOL     OW48223   1.739  10.652   5.698
82150SOL    HW148224   1.809  10.708   5.663
82150SOL    HW248225   1.733  10.676   5.790
82151SOL     OW48226   5.101   4.307   3.005
82151SOL    HW148227   5.165   4.377   2.995
82151SOL    HW248228   5.026   4.335   2.952
82152SOL     OW48229   6.815   5.408   6.971
82152SOL    HW148230   6.886   5.457   6.930
82152SOL    HW248231   6.742   5.415   6.910
82153SOL     OW48232   9.185   5.164   6.051
82153SOL    HW148233   9.218   5.074   6.063
82153SOL    HW248234   9.259   5.211   6.013
82154SOL     OW48235   2.581   9.406   5.412
82154SOL    HW148236   2.579   9.355   5.331
82154SOL    HW248237   2.662   9.457   5.406
82155SOL     OW48238  13.572   4.660   7.477
82155SOL    HW148239  13.665   4.660   7.498
82155SOL    HW248240  13.567   4.619   7.391
82156SOL     OW48241  12.844   6.537   4.978
82156SOL    HW148242  12.870   6.618   4.934
82156SOL    HW248243  12.925   6.505   5.019
82157SOL     OW48244   5.621  14.149  10.864
82157SOL    HW148245   5.561  14.209  10.908
82157SOL    HW248246   5.564  14.088  10.817
82158SOL     OW48247   0.351  10.483   2.953
82158SOL    HW148248   0.323  10.408   2.901
82158SOL    HW248249   0.375  10.549   2.888
82159SOL     OW48250   8.948   4.409   4.548
82159SOL    HW148251   8.858   4.381   4.565
82159SOL    HW248252   8.995   4.328   4.530
82160SOL     OW48253  11.462  10.037  12.778
82160SOL    HW148254  11.475  10.003  12.690
82160SOL    HW248255  11.544  10.080  12.800
82161SOL     OW48256   7.628   4.990   1.977
82161SOL    HW148257   7.672   5.020   2.056
82161SOL    HW248258   7.695   4.996   1.908
82162SOL     OW48259   2.100   3.949   7.836
82162SOL    HW148260   2.045   3.915   7.765
82162SOL    HW248261   2.179   3.896   7.833
82163SOL     OW48262   1.716   9.524   2.902
82163SOL    HW148263   1.760   9.604   2.872
82163SOL    HW248264   1.659   9.554   2.973
82164SOL     OW48265  14.863   6.687   3.709
82164SOL    HW148266   0.050   6.624   3.675
82164SOL    HW248267  14.789   6.681   3.649
82165SOL     OW48268   2.994  12.102  13.203
82165SOL    HW148269   3.007  12.152  13.284
82165SOL    HW248270   2.933  12.155  13.152
82166SOL     OW48271   2.888   5.084   2.308
82166SOL    HW148272   2.882   5.080   2.213
82166SOL    HW248273   2.813   5.034   2.339
82167SOL     OW48274  13.691   0.531   7.078
82167SOL    HW148275  13.639   0.558   7.002
82167SOL    HW248276  13.773   0.499   7.041
82168SOL     OW48277   0.394  10.641  14.718
82168SOL    HW148278   0.462  10.709  14.721
82168SOL    HW248279   0.386  10.611  14.809
82169SOL     OW48280   5.183  12.125   8.005
82169SOL    HW148281   5.208  12.100   7.916
82169SOL    HW248282   5.142  12.211   7.996
82170SOL     OW48283   3.523   1.244  13.749
82170SOL    HW148284   3.558   1.333  13.754
82170SOL    HW248285   3.543   1.215  13.660
82171SOL     OW48286  10.124  11.092  11.539
82171SOL    HW148287  10.120  11.002  11.570
82171SOL    HW248288  10.059  11.139  11.592
82172SOL     OW48289   2.032  11.820   4.784
82172SOL    HW148290   2.011  11.895   4.841
82172SOL    HW248291   2.109  11.780   4.825
82173SOL     OW48292  11.388  13.239  11.922
82173SOL    HW148293  11.478  13.212  11.902
82173SOL    HW248294  11.396  13.290  12.002
82174SOL     OW48295   0.273   3.489  13.104
82174SOL    HW148296   0.300   3.443  13.184
82174SOL    HW248297   0.249   3.418  13.044
82175SOL     OW48298   8.777  10.167   0.417
82175SOL    HW148299   8.793  10.114   0.338
82175SOL    HW248300   8.865  10.190   0.448
82176SOL     OW48301   1.643   7.641   8.299
82176SOL    HW148302   1.656   7.607   8.211
82176SOL    HW248303   1.701   7.589   8.354
82177SOL     OW48304  12.460  12.495   3.970
82177SOL    HW148305  12.394  12.559   3.997
82177SOL    HW248306  12.469  12.438   4.046
82178SOL     OW48307   9.815   6.695  11.047
82178SOL    HW148308   9.743   6.738  11.094
82178SOL    HW248309   9.827   6.747  10.968
82179SOL     OW48310   5.135   7.641   9.670
82179SOL    HW148311   5.194   7.710   9.639
82179SOL    HW248312   5.048   7.677   9.660
82180SOL     OW48313  11.644   2.874   5.141
82180SOL    HW148314  11.590   2.911   5.070
82180SOL    HW248315  11.626   2.930   5.216
82181SOL     OW48316  10.689  10.079   7.078
82181SOL    HW148317  10.683  10.034   6.994
82181SOL    HW248318  10.614  10.139   7.078
82182SOL     OW48319   2.115   7.753  12.388
82182SOL    HW148320   2.080   7.722  12.305
82182SOL    HW248321   2.203   7.716  12.393
82183SOL     OW48322   2.399  11.225  11.115
82183SOL    HW148323   2.441  11.300  11.072
82183SOL    HW248324   2.471  11.164  11.132
82184SOL     OW48325  14.371   9.284   3.194
82184SOL    HW148326  14.304   9.224   3.227
82184SOL    HW248327  14.347   9.369   3.231
82185SOL     OW48328   4.156   4.323   6.393
82185SOL    HW148329   4.107   4.405   6.394
82185SOL    HW248330   4.141   4.288   6.305
82186SOL     OW48331  14.321   9.414  12.713
82186SOL    HW148332  14.316   9.342  12.776
82186SOL    HW248333  14.280   9.488  12.759
82187SOL     OW48334  11.713  12.796   7.766
82187SOL    HW148335  11.655  12.816   7.693
82187SOL    HW248336  11.799  12.825   7.737
82188SOL     OW48337   4.516   2.261   5.846
82188SOL    HW148338   4.421   2.262   5.837
82188SOL    HW248339   4.539   2.168   5.844
82189SOL     OW48340   9.965   8.406   0.265
82189SOL    HW148341   9.902   8.341   0.296
82189SOL    HW248342   9.982   8.462   0.340
82190SOL     OW48343   4.187   7.752   5.761
82190SOL    HW148344   4.269   7.769   5.807
82190SOL    HW248345   4.187   7.814   5.688
82191SOL     OW48346   1.698  11.248  10.473
82191SOL    HW148347   1.618  11.294  10.449
82191SOL    HW248348   1.669  11.160  10.497
82192SOL     OW48349   7.488  12.622   9.316
82192SOL    HW148350   7.554  12.673   9.362
82192SOL    HW248351   7.416  12.613   9.378
82193SOL     OW48352   1.137   8.353  13.187
82193SOL    HW148353   1.048   8.332  13.158
82193SOL    HW248354   1.193   8.301  13.129
82194SOL     OW48355  14.578   7.546  12.733
82194SOL    HW148356  14.600   7.498  12.813
82194SOL    HW248357  14.487   7.525  12.716
82195SOL     OW48358   2.987   5.424   5.208
82195SOL    HW148359   2.933   5.439   5.285
82195SOL    HW248360   2.942   5.354   5.160
82196SOL     OW48361   5.945  14.290  12.374
82196SOL    HW148362   5.860  14.303  12.415
82196SOL    HW248363   5.952  14.195  12.361
82197SOL     OW48364   7.040   6.959   3.066
82197SOL    HW148365   6.971   6.894   3.053
82197SOL    HW248366   7.039   7.011   2.986
82198SOL     OW48367   2.254  13.767  12.390
82198SOL    HW148368   2.274  13.843  12.445
82198SOL    HW248369   2.267  13.798  12.300
82199SOL     OW48370  13.807   0.048   7.391
82199SOL    HW148371  13.789   0.142   7.389
82199SOL    HW248372  13.723   0.008   7.414
82200SOL     OW48373  10.397   8.002   7.449
82200SOL    HW148374  10.450   7.929   7.417
82200SOL    HW248375  10.317   7.961   7.484
82201SOL     OW48376   2.871  13.945   7.642
82201SOL    HW148377   2.779  13.946   7.670
82201SOL    HW248378   2.907  13.867   7.684
82202SOL     OW48379   3.202  13.084  10.428
82202SOL    HW148380   3.188  12.989  10.428
82202SOL    HW248381   3.150  13.117  10.501
82203SOL     OW48382   7.331   1.372   8.305
82203SOL    HW148383   7.355   1.286   8.269
82203SOL    HW248384   7.409   1.401   8.352
82204SOL     OW48385   4.804   7.856   1.170
82204SOL    HW148386   4.790   7.901   1.087
82204SOL    HW248387   4.726   7.878   1.222
82205SOL     OW48388   4.879   8.700   7.841
82205SOL    HW148389   4.805   8.724   7.784
82205SOL    HW248390   4.887   8.605   7.831
82206SOL     OW48391  12.552   2.358   3.988
82206SOL    HW148392  12.503   2.434   3.955
82206SOL    HW248393  12.492   2.284   3.977
82207SOL     OW48394  13.640   0.268  11.190
82207SOL    HW148395  13.650   0.189  11.243
82207SOL    HW248396  13.656   0.239  11.101
82208SOL     OW48397  10.144   0.264   9.290
82208SOL    HW148398  10.056   0.227   9.285
82208SOL    HW248399  10.179   0.233   9.373
82209SOL     OW48400  13.715   0.260  12.353
82209SOL    HW148401  13.682   0.241  12.265
82209SOL    HW248402  13.661   0.208  12.412
82210SOL     OW48403  10.624  13.291   3.085
82210SOL    HW148404  10.690  13.233   3.049
82210SOL    HW248405  10.541  13.250   3.060
82211SOL     OW48406   7.853   4.173   9.010
82211SOL    HW148407   7.941   4.208   8.995
82211SOL    HW248408   7.794   4.245   8.988
82212SOL     OW48409   6.149  12.714   4.499
82212SOL    HW148410   6.173  12.778   4.565
82212SOL    HW248411   6.058  12.692   4.518
82213SOL     OW48412  10.947  10.414  12.914
82213SOL    HW148413  10.925  10.487  12.857
82213SOL    HW248414  11.033  10.384  12.883
82214SOL     OW48415   2.384   3.143   9.263
82214SOL    HW148416   2.419   3.173   9.179
82214SOL    HW248417   2.454   3.160   9.326
82215SOL     OW48418   0.936   4.336   6.917
82215SOL    HW148419   0.924   4.272   6.846
82215SOL    HW248420   0.902   4.418   6.882
82216SOL     OW48421  13.556   4.704  12.978
82216SOL    HW148422  13.513   4.688  12.894
82216SOL    HW248423  13.598   4.790  12.967
82217SOL     OW48424  11.652   9.902  11.633
82217SOL    HW148425  11.556   9.896  11.624
82217SOL    HW248426  11.678   9.815  11.665
82218SOL     OW48427  14.023   4.801   6.164
82218SOL    HW148428  13.982   4.745   6.230
82218SOL    HW248429  14.101   4.836   6.208
82219SOL     OW48430   9.096   0.830   2.696
82219SOL    HW148431   9.117   0.847   2.604
82219SOL    HW248432   9.002   0.841   2.702
82220SOL     OW48433   1.494   5.536   0.345
82220SOL    HW148434   1.555   5.499   0.282
82220SOL    HW248435   1.433   5.464   0.365
82221SOL     OW48436   4.690  11.927   9.097
82221SOL    HW148437   4.753  11.993   9.124
82221SOL    HW248438   4.606  11.972   9.098
82222SOL     OW48439   8.255  11.255  13.124
82222SOL    HW148440   8.163  11.280  13.121
82222SOL    HW248441   8.270  11.210  13.041
82223SOL     OW48442   9.131   1.411  14.677
82223SOL    HW148443   9.126   1.399  14.582
82223SOL    HW248444   9.214   1.372  14.702
82224SOL     OW48445   0.406   7.548   9.900
82224SOL    HW148446   0.339   7.598   9.853
82224SOL    HW248447   0.451   7.613   9.954
82225SOL     OW48448   6.585  14.301   1.060
82225SOL    HW148449   6.651  14.248   1.016
82225SOL    HW248450   6.582  14.267   1.149
82226SOL     OW48451  10.091   1.919   5.518
82226SOL    HW148452  10.048   1.894   5.436
82226SOL    HW248453  10.182   1.934   5.492
82227SOL     OW48454  11.928   8.540   8.780
82227SOL    HW148455  11.917   8.449   8.754
82227SOL    HW248456  12.023   8.555   8.774
82228SOL     OW48457   2.376   4.283   8.590
82228SOL    HW148458   2.379   4.374   8.560
82228SOL    HW248459   2.304   4.244   8.539
82229SOL     OW48460   5.521   8.175   0.318
82229SOL    HW148461   5.426   8.161   0.319
82229SOL    HW248462   5.533   8.258   0.272
82230SOL     OW48463   9.804  11.207   4.890
82230SOL    HW148464   9.727  11.180   4.841
82230SOL    HW248465   9.810  11.301   4.876
82231SOL     OW48466   8.923   3.760   2.969
82231SOL    HW148467   8.881   3.842   2.941
82231SOL    HW248468   9.004   3.757   2.918
82232SOL     OW48469  14.457  14.572  14.007
82232SOL    HW148470  14.404  14.506  13.962
82232SOL    HW248471  14.429  14.566  14.099
82233SOL     OW48472   1.748   7.492   5.105
82233SOL    HW148473   1.656   7.516   5.112
82233SOL    HW248474   1.764   7.437   5.182
82234SOL     OW48475   8.050  14.426   4.607
82234SOL    HW148476   7.975  14.476   4.575
82234SOL    HW248477   8.038  14.338   4.571
82235SOL     OW48478   3.527  14.402   7.183
82235SOL    HW148479   3.524  14.472   7.117
82235SOL    HW248480   3.599  14.346   7.155
82236SOL     OW48481   8.048   3.132  12.563
82236SOL    HW148482   7.979   3.146  12.629
82236SOL    HW248483   8.028   3.196  12.495
82237SOL     OW48484   0.038   1.035   8.588
82237SOL    HW148485  14.872   1.119   8.574
82237SOL    HW248486   0.037   0.994   8.501
82238SOL     OW48487  11.758   5.480   0.083
82238SOL    HW148488  11.745   5.573   0.068
82238SOL    HW248489  11.785   5.474   0.175
82239SOL     OW48490   9.375   7.331  12.566
82239SOL    HW148491   9.293   7.326  12.615
82239SOL    HW248492   9.350   7.367  12.481
82240SOL     OW48493   6.189   5.317  13.812
82240SOL    HW148494   6.164   5.285  13.725
82240SOL    HW248495   6.216   5.238  13.860
82241SOL     OW48496   0.097   8.982   6.071
82241SOL    HW148497   0.146   8.901   6.073
82241SOL    HW248498   0.074   8.995   5.979
82242SOL     OW48499   2.725   9.415   2.149
82242SOL    HW148500   2.673   9.494   2.130
82242SOL    HW248501   2.782   9.441   2.221
82243SOL     OW48502   6.904   1.877   1.071
82243SOL    HW148503   6.953   1.915   0.998
82243SOL    HW248504   6.946   1.914   1.149
82244SOL     OW48505   8.484  10.282   0.924
82244SOL    HW148506   8.530  10.357   0.887
82244SOL    HW248507   8.456  10.231   0.848
82245SOL     OW48508   5.106   7.667   0.201
82245SOL    HW148509   5.066   7.610   0.267
82245SOL    HW248510   5.089   7.755   0.233
82246SOL     OW48511  10.224   4.830  13.989
82246SOL    HW148512  10.268   4.866  13.912
82246SOL    HW248513  10.139   4.873  13.990
82247SOL     OW48514   3.236   5.849  10.669
82247SOL    HW148515   3.187   5.793  10.609
82247SOL    HW248516   3.186   5.846  10.751
82248SOL     OW48517   7.341   3.657   4.023
82248SOL    HW148518   7.343   3.684   3.931
82248SOL    HW248519   7.432   3.636   4.044
82249SOL     OW48520   6.087  11.086   1.331
82249SOL    HW148521   6.023  11.061   1.264
82249SOL    HW248522   6.068  11.178   1.348
82250SOL     OW48523  13.925   9.258   8.910
82250SOL    HW148524  14.000   9.199   8.899
82250SOL    HW248525  13.900   9.248   9.001
82251SOL     OW48526   0.571   1.350   6.036
82251SOL    HW148527   0.582   1.427   6.091
82251SOL    HW248528   0.617   1.372   5.954
82252SOL     OW48529   4.169   3.928   3.351
82252SOL    HW148530   4.164   3.960   3.261
82252SOL    HW248531   4.244   3.974   3.389
82253SOL     OW48532  12.926  14.604   9.912
82253SOL    HW148533  13.006  14.586   9.962
82253SOL    HW248534  12.918  14.699   9.914
82254SOL     OW48535   6.459   1.255   0.588
82254SOL    HW148536   6.435   1.340   0.551
82254SOL    HW248537   6.488   1.204   0.512
82255SOL     OW48538   3.909  10.653   7.050
82255SOL    HW148539   4.000  10.681   7.057
82255SOL    HW248540   3.905  10.572   7.102
82256SOL     OW48541  13.342  12.961   2.622
82256SOL    HW148542  13.258  12.914   2.615
82256SOL    HW248543  13.354  12.973   2.716
82257SOL     OW48544   9.877   2.265   1.566
82257SOL    HW148545   9.800   2.211   1.549
82257SOL    HW248546   9.933   2.251   1.489
82258SOL     OW48547   3.903   4.171  10.520
82258SOL    HW148548   3.848   4.211  10.453
82258SOL    HW248549   3.851   4.097  10.552
82259SOL     OW48550   8.793   9.406  12.176
82259SOL    HW148551   8.731   9.339  12.147
82259SOL    HW248552   8.874   9.358  12.192
82260SOL     OW48553   3.805  12.981   8.702
82260SOL    HW148554   3.749  12.959   8.627
82260SOL    HW248555   3.829  13.072   8.688
82261SOL     OW48556  10.351   7.467   4.941
82261SOL    HW148557  10.425   7.456   5.001
82261SOL    HW248558  10.383   7.432   4.857
82262SOL     OW48559   6.771   2.672   1.429
82262SOL    HW148560   6.771   2.757   1.472
82262SOL    HW248561   6.850   2.628   1.461
82263SOL     OW48562   7.157   9.863   3.980
82263SOL    HW148563   7.252   9.863   3.974
82263SOL    HW248564   7.136   9.780   4.022
82264SOL     OW48565   3.727  11.243  14.255
82264SOL    HW148566   3.761  11.316  14.202
82264SOL    HW248567   3.678  11.285  14.325
82265SOL     OW48568  10.419   7.341   8.520
82265SOL    HW148569  10.413   7.399   8.444
82265SOL    HW248570  10.454   7.396   8.590
82266SOL     OW48571   6.229   2.977   7.404
82266SOL    HW148572   6.285   2.904   7.376
82266SOL    HW248573   6.145   2.935   7.426
82267SOL     OW48574   2.450   4.237   7.917
82267SOL    HW148575   2.456   4.257   8.011
82267SOL    HW248576   2.356   4.231   7.900
82268SOL     OW48577   7.880   2.151  13.049
82268SOL    HW148578   7.897   2.245  13.038
82268SOL    HW248579   7.919   2.111  12.971
82269SOL     OW48580  11.273  11.700   4.813
82269SOL    HW148581  11.183  11.670   4.819
82269SOL    HW248582  11.308  11.689   4.901
82270SOL     OW48583  10.561  13.288   9.123
82270SOL    HW148584  10.601  13.325   9.044
82270SOL    HW248585  10.467  13.307   9.114
82271SOL     OW48586   4.844  12.032   3.212
82271SOL    HW148587   4.787  12.100   3.248
82271SOL    HW248588   4.850  11.966   3.281
82272SOL     OW48589   5.771   3.699   5.294
82272SOL    HW148590   5.865   3.686   5.289
82272SOL    HW248591   5.733   3.621   5.254
82273SOL     OW48592   0.581   0.953   8.040
82273SOL    HW148593   0.494   0.976   8.007
82273SOL    HW248594   0.616   0.894   7.973
82274SOL     OW48595   4.832  13.846   2.684
82274SOL    HW148596   4.749  13.852   2.731
82274SOL    HW248597   4.840  13.931   2.640
82275SOL     OW48598   2.738  13.018   0.138
82275SOL    HW148599   2.744  13.013   0.042
82275SOL    HW248600   2.791  12.944   0.169
82276SOL     OW48601   7.425   0.713  11.289
82276SOL    HW148602   7.397   0.666  11.210
82276SOL    HW248603   7.386   0.800  11.280
82277SOL     OW48604   2.788   6.928  11.095
82277SOL    HW148605   2.846   7.004  11.103
82277SOL    HW248606   2.793   6.903  11.003
82278SOL     OW48607  11.774   1.091  10.711
82278SOL    HW148608  11.767   1.011  10.764
82278SOL    HW248609  11.849   1.074  10.653
82279SOL     OW48610   1.890   7.065   1.311
82279SOL    HW148611   1.856   6.988   1.266
82279SOL    HW248612   1.888   7.135   1.245
82280SOL     OW48613   6.091  14.752   9.413
82280SOL    HW148614   6.073  14.842   9.440
82280SOL    HW248615   6.145  14.716   9.484
82281SOL     OW48616  11.934   4.165   4.164
82281SOL    HW148617  11.892   4.200   4.242
82281SOL    HW248618  12.004   4.109   4.198
82282SOL     OW48619   8.505   6.627  10.119
82282SOL    HW148620   8.443   6.674  10.063
82282SOL    HW248621   8.591   6.658  10.091
82283SOL     OW48622  13.311  12.784   3.931
82283SOL    HW148623  13.377  12.773   4.000
82283SOL    HW248624  13.272  12.869   3.949
82284SOL     OW48625  12.415  13.196   7.705
82284SOL    HW148626  12.395  13.244   7.785
82284SOL    HW248627  12.474  13.125   7.733
82285SOL     OW48628   3.959  13.462  12.711
82285SOL    HW148629   3.900  13.533  12.738
82285SOL    HW248630   3.933  13.387  12.764
82286SOL     OW48631  10.219   5.593   8.256
82286SOL    HW148632  10.180   5.620   8.339
82286SOL    HW248633  10.301   5.641   8.252
82287SOL     OW48634   9.328   5.267   8.456
82287SOL    HW148635   9.342   5.193   8.514
82287SOL    HW248636   9.410   5.316   8.458
82288SOL     OW48637  14.043   1.641   1.574
82288SOL    HW148638  14.023   1.551   1.546
82288SOL    HW248639  14.099   1.675   1.504
82289SOL     OW48640   6.698   9.966   9.032
82289SOL    HW148641   6.735  10.011   8.956
82289SOL    HW248642   6.659  10.037   9.084
82290SOL     OW48643   2.941   0.045   6.356
82290SOL    HW148644   2.868   0.094   6.393
82290SOL    HW248645   2.913   0.023   6.267
82291SOL     OW48646   9.493  10.323   8.240
82291SOL    HW148647   9.551  10.367   8.303
82291SOL    HW248648   9.423  10.386   8.223
82292SOL     OW48649   2.184   0.357   3.198
82292SOL    HW148650   2.180   0.281   3.139
82292SOL    HW248651   2.256   0.337   3.258
82293SOL     OW48652   8.057   3.067   4.647
82293SOL    HW148653   8.127   3.084   4.710
82293SOL    HW248654   8.056   2.971   4.638
82294SOL     OW48655   7.125   3.854   7.903
82294SOL    HW148656   7.197   3.915   7.915
82294SOL    HW248657   7.136   3.790   7.973
82295SOL     OW48658   9.358  10.427  10.397
82295SOL    HW148659   9.329  10.510  10.435
82295SOL    HW248660   9.387  10.450  10.309
82296SOL     OW48661   3.794   1.623   2.465
82296SOL    HW148662   3.842   1.682   2.405
82296SOL    HW248663   3.782   1.543   2.414
82297SOL     OW48664   3.683   2.806   3.965
82297SOL    HW148665   3.683   2.877   4.029
82297SOL    HW248666   3.664   2.849   3.882
82298SOL     OW48667  12.730   3.836   5.190
82298SOL    HW148668  12.751   3.751   5.150
82298SOL    HW248669  12.707   3.814   5.280
82299SOL     OW48670   1.622   4.198  14.510
82299SOL    HW148671   1.531   4.188  14.480
82299SOL    HW248672   1.673   4.142  14.451
82300SOL     OW48673   3.872   8.645  11.974
82300SOL    HW148674   3.941   8.687  11.924
82300SOL    HW248675   3.854   8.564  11.926
82301SOL     OW48676   2.078   0.287   4.249
82301SOL    HW148677   2.088   0.382   4.241
82301SOL    HW248678   1.991   0.275   4.288
82302SOL     OW48679   6.480   2.422  13.506
82302SOL    HW148680   6.569   2.412  13.539
82302SOL    HW248681   6.434   2.345  13.539
82303SOL     OW48682   4.522   2.652  10.288
82303SOL    HW148683   4.538   2.662  10.194
82303SOL    HW248684   4.537   2.739  10.324
82304SOL     OW48685   6.814   9.902  12.568
82304SOL    HW148686   6.764   9.846  12.509
82304SOL    HW248687   6.838   9.845  12.641
82305SOL     OW48688   8.144  11.534  12.839
82305SOL    HW148689   8.133  11.559  12.931
82305SOL    HW248690   8.232  11.562  12.816
82306SOL     OW48691   4.850   2.812   9.502
82306SOL    HW148692   4.901   2.846   9.428
82306SOL    HW248693   4.760   2.811   9.469
82307SOL     OW48694   5.169   2.536   3.400
82307SOL    HW148695   5.222   2.506   3.326
82307SOL    HW248696   5.158   2.458   3.455
82308SOL     OW48697   7.452   0.474   5.510
82308SOL    HW148698   7.483   0.536   5.443
82308SOL    HW248699   7.524   0.413   5.522
82309SOL     OW48700   7.559   5.322  10.627
82309SOL    HW148701   7.641   5.278  10.652
82309SOL    HW248702   7.581   5.415  10.625
82310SOL     OW48703   7.898  14.073  14.593
82310SOL    HW148704   7.850  14.025  14.525
82310SOL    HW248705   7.990  14.049  14.579
82311SOL     OW48706   3.048  14.356   2.388
82311SOL    HW148707   3.017  14.426   2.445
82311SOL    HW248708   3.094  14.401   2.317
82312SOL     OW48709  14.104  14.204  12.254
82312SOL    HW148710  14.156  14.279  12.223
82312SOL    HW248711  14.149  14.176  12.334
82313SOL     OW48712   4.276   3.833   4.728
82313SOL    HW148713   4.216   3.795   4.791
82313SOL    HW248714   4.239   3.920   4.710
82314SOL     OW48715   6.405  10.182   1.797
82314SOL    HW148716   6.406  10.094   1.758
82314SOL    HW248717   6.399  10.241   1.722
82315SOL     OW48718   5.815   8.954  10.658
82315SOL    HW148719   5.757   8.993  10.723
82315SOL    HW248720   5.793   8.999  10.576
82316SOL     OW48721   6.478   5.623   2.498
82316SOL    HW148722   6.556   5.677   2.508
82316SOL    HW248723   6.506   5.551   2.441
82317SOL     OW48724   8.774   8.242   7.515
82317SOL    HW148725   8.837   8.281   7.453
82317SOL    HW248726   8.811   8.260   7.601
82318SOL     OW48727  14.286   7.293  11.589
82318SOL    HW148728  14.252   7.228  11.527
82318SOL    HW248729  14.219   7.299  11.657
82319SOL     OW48730   8.847  14.564   8.849
82319SOL    HW148731   8.937  14.535   8.828
82319SOL    HW248732   8.794  14.528   8.778
82320SOL     OW48733   5.623  12.198   9.621
82320SOL    HW148734   5.618  12.146   9.700
82320SOL    HW248735   5.707  12.176   9.582
82321SOL     OW48736   3.607  12.874   7.963
82321SOL    HW148737   3.566  12.956   7.933
82321SOL    HW248738   3.689  12.903   8.002
82322SOL     OW48739   7.189  10.991  11.619
82322SOL    HW148740   7.238  10.931  11.563
82322SOL    HW248741   7.150  11.054  11.558
82323SOL     OW48742  13.141   3.778   0.726
82323SOL    HW148743  13.138   3.770   0.821
82323SOL    HW248744  13.118   3.870   0.708
82324SOL     OW48745   9.400   8.616   6.424
82324SOL    HW148746   9.348   8.549   6.468
82324SOL    HW248747   9.345   8.694   6.426
82325SOL     OW48748   1.647  13.828   9.414
82325SOL    HW148749   1.609  13.740   9.419
82325SOL    HW248750   1.701  13.826   9.335
82326SOL     OW48751   2.153   6.262   0.808
82326SOL    HW148752   2.141   6.173   0.775
82326SOL    HW248753   2.065   6.301   0.804
82327SOL     OW48754   8.233   4.363  13.632
82327SOL    HW148755   8.293   4.302  13.674
82327SOL    HW248756   8.273   4.382  13.547
82328SOL     OW48757  11.940   1.542  11.277
82328SOL    HW148758  12.023   1.533  11.324
82328SOL    HW248759  11.915   1.452  11.255
82329SOL     OW48760  11.426  12.841  13.495
82329SOL    HW148761  11.377  12.773  13.540
82329SOL    HW248762  11.494  12.867  13.558
82330SOL     OW48763  13.838  12.216   5.890
82330SOL    HW148764  13.796  12.242   5.971
82330SOL    HW248765  13.861  12.298   5.846
82331SOL     OW48766  13.734  12.625  13.734
82331SOL    HW148767  13.649  12.628  13.778
82331SOL    HW248768  13.753  12.716  13.713
82332SOL     OW48769   9.933   8.536   4.966
82332SOL    HW148770   9.926   8.508   5.058
82332SOL    HW248771   9.996   8.609   4.968
82333SOL     OW48772   8.946  14.392   2.292
82333SOL    HW148773   9.033  14.372   2.326
82333SOL    HW248774   8.956  14.387   2.197
82334SOL     OW48775   6.882   0.197   6.468
82334SOL    HW148776   6.792   0.230   6.476
82334SOL    HW248777   6.926   0.229   6.546
82335SOL     OW48778   4.902   4.703   4.603
82335SOL    HW148779   4.879   4.637   4.669
82335SOL    HW248780   4.824   4.759   4.597
82336SOL     OW48781   2.293   1.027   1.060
82336SOL    HW148782   2.366   1.045   1.000
82336SOL    HW248783   2.335   1.007   1.143
82337SOL     OW48784   6.242   9.382   2.293
82337SOL    HW148785   6.196   9.313   2.340
82337SOL    HW248786   6.254   9.348   2.205
82338SOL     OW48787   5.243   8.482  13.716
82338SOL    HW148788   5.250   8.480  13.812
82338SOL    HW248789   5.332   8.498  13.686
82339SOL     OW48790   6.412  14.025   8.704
82339SOL    HW148791   6.399  14.043   8.611
82339SOL    HW248792   6.337  14.065   8.747
82340SOL     OW48793  10.869   8.552   1.544
82340SOL    HW148794  10.933   8.604   1.495
82340SOL    HW248795  10.832   8.613   1.607
82341SOL     OW48796  13.863   3.739   8.447
82341SOL    HW148797  13.861   3.823   8.493
82341SOL    HW248798  13.956   3.726   8.427
82342SOL     OW48799  13.446  12.833   1.295
82342SOL    HW148800  13.504  12.879   1.355
82342SOL    HW248801  13.395  12.774   1.351
82343SOL     OW48802  14.668   0.580   7.553
82343SOL    HW148803  14.673   0.578   7.458
82343SOL    HW248804  14.753   0.548   7.582
82344SOL     OW48805   5.734   2.079  10.562
82344SOL    HW148806   5.781   2.087  10.479
82344SOL    HW248807   5.780   2.008  10.608
82345SOL     OW48808  14.431   7.642  11.293
82345SOL    HW148809  14.445   7.732  11.264
82345SOL    HW248810  14.470   7.588  11.224
82346SOL     OW48811  14.545   4.821  14.774
82346SOL    HW148812  14.624   4.770  14.794
82346SOL    HW248813  14.573   4.882  14.706
82347SOL     OW48814  13.036  13.047   6.858
82347SOL    HW148815  12.960  13.097   6.886
82347SOL    HW248816  13.110  13.092   6.898
82348SOL     OW48817   4.495   0.076   3.866
82348SOL    HW148818   4.500  14.859   3.856
82348SOL    HW248819   4.421   0.102   3.811
82349SOL     OW48820  14.628   3.937   1.224
82349SOL    HW148821  14.564   3.866   1.222
82349SOL    HW248822  14.577   4.015   1.244
82350SOL     OW48823  11.982   2.598   3.003
82350SOL    HW148824  12.052   2.551   3.048
82350SOL    HW248825  11.997   2.580   2.910
82351SOL     OW48826  13.249   8.004  11.553
82351SOL    HW148827  13.230   8.095  11.576
82351SOL    HW248828  13.330   7.984  11.600
82352SOL     OW48829   7.580   3.569   0.661
82352SOL    HW148830   7.613   3.508   0.595
82352SOL    HW248831   7.652   3.577   0.724
82353SOL     OW48832   7.241  10.099   3.840
82353SOL    HW148833   7.237  10.009   3.873
82353SOL    HW248834   7.240  10.090   3.745
82354SOL     OW48835   4.753  12.653   0.460
82354SOL    HW148836   4.692  12.711   0.415
82354SOL    HW248837   4.822  12.711   0.492
82355SOL     OW48838  12.868   6.840   4.614
82355SOL    HW148839  12.830   6.783   4.548
82355SOL    HW248840  12.820   6.923   4.604
82356SOL     OW48841   1.757  12.104   6.456
82356SOL    HW148842   1.817  12.076   6.387
82356SOL    HW248843   1.774  12.197   6.467
82357SOL     OW48844  12.633   3.132  13.525
82357SOL    HW148845  12.605   3.116  13.435
82357SOL    HW248846  12.667   3.048  13.555
82358SOL     OW48847  14.803  14.871  13.633
82358SOL    HW148848  14.799  14.852  13.539
82358SOL    HW248849   0.008   0.041  13.644
82359SOL     OW48850  12.996   0.016  11.536
82359SOL    HW148851  12.997   0.009  11.440
82359SOL    HW248852  13.082  14.861  11.563
82360SOL     OW48853   5.982   1.786   1.263
82360SOL    HW148854   6.047   1.808   1.196
82360SOL    HW248855   5.907   1.842   1.244
82361SOL     OW48856   1.402   5.202   5.228
82361SOL    HW148857   1.347   5.273   5.194
82361SOL    HW248858   1.341   5.132   5.251
82362SOL     OW48859   2.571   6.786   6.016
82362SOL    HW148860   2.590   6.790   5.923
82362SOL    HW248861   2.481   6.817   6.024
82363SOL     OW48862   9.575  13.881   2.611
82363SOL    HW148863   9.643  13.844   2.668
82363SOL    HW248864   9.610  13.966   2.584
82364SOL     OW48865   1.085  10.804   6.132
82364SOL    HW148866   1.074  10.860   6.055
82364SOL    HW248867   1.123  10.723   6.097
82365SOL     OW48868   9.344  13.230   3.898
82365SOL    HW148869   9.298  13.184   3.968
82365SOL    HW248870   9.388  13.303   3.942
82366SOL     OW48871   2.307   0.132   5.634
82366SOL    HW148872   2.377   0.070   5.617
82366SOL    HW248873   2.337   0.214   5.594
82367SOL     OW48874   0.333  11.524   5.346
82367SOL    HW148875   0.380  11.583   5.404
82367SOL    HW248876   0.346  11.437   5.385
82368SOL     OW48877   2.156   1.860   2.249
82368SOL    HW148878   2.233   1.873   2.305
82368SOL    HW248879   2.191   1.815   2.172
82369SOL     OW48880   7.806  12.195   9.722
82369SOL    HW148881   7.893  12.223   9.694
82369SOL    HW248882   7.815  12.101   9.739
82370SOL     OW48883   6.322   9.612   2.662
82370SOL    HW148884   6.247   9.556   2.642
82370SOL    HW248885   6.382   9.598   2.589
82371SOL     OW48886  10.503   3.075  10.404
82371SOL    HW148887  10.527   3.017  10.475
82371SOL    HW248888  10.417   3.110  10.429
82372SOL     OW48889  12.927  14.495   8.704
82372SOL    HW148890  12.965  14.484   8.616
82372SOL    HW248891  12.861  14.426   8.710
82373SOL     OW48892   2.303   6.517   4.931
82373SOL    HW148893   2.218   6.482   4.956
82373SOL    HW248894   2.292   6.612   4.933
82374SOL     OW48895  12.662   1.287   4.895
82374SOL    HW148896  12.697   1.198   4.890
82374SOL    HW248897  12.688   1.326   4.811
82375SOL     OW48898   0.679  12.793   2.087
82375SOL    HW148899   0.640  12.880   2.095
82375SOL    HW248900   0.773  12.809   2.082
82376SOL     OW48901  12.944   8.238   8.397
82376SOL    HW148902  12.882   8.228   8.325
82376SOL    HW248903  12.908   8.310   8.449
82377SOL     OW48904   3.297  10.698   9.160
82377SOL    HW148905   3.220  10.641   9.158
82377SOL    HW248906   3.370  10.640   9.136
82378SOL     OW48907   0.619   2.635   7.074
82378SOL    HW148908   0.609   2.637   6.978
82378SOL    HW248909   0.634   2.543   7.095
82379SOL     OW48910   8.739   8.069   5.234
82379SOL    HW148911   8.736   7.992   5.290
82379SOL    HW248912   8.798   8.129   5.279
82380SOL     OW48913   6.724  11.901  10.300
82380SOL    HW148914   6.781  11.978  10.310
82380SOL    HW248915   6.784  11.831  10.275
82381SOL     OW48916  11.781  13.191   5.588
82381SOL    HW148917  11.749  13.185   5.678
82381SOL    HW248918  11.838  13.114   5.578
82382SOL     OW48919   9.604  10.956   1.454
82382SOL    HW148920   9.533  11.015   1.429
82382SOL    HW248921   9.594  10.881   1.396
82383SOL     OW48922   2.736   9.335   3.637
82383SOL    HW148923   2.780   9.276   3.574
82383SOL    HW248924   2.796   9.409   3.646
82384SOL     OW48925   1.621   0.235   3.686
82384SOL    HW148926   1.645   0.328   3.694
82384SOL    HW248927   1.541   0.227   3.738
82385SOL     OW48928   4.343   9.038  10.979
82385SOL    HW148929   4.276   9.021  10.912
82385SOL    HW248930   4.325   9.127  11.009
82386SOL     OW48931   3.291   4.916   6.273
82386SOL    HW148932   3.269   4.860   6.348
82386SOL    HW248933   3.328   4.856   6.208
82387SOL     OW48934  12.915  10.716   6.235
82387SOL    HW148935  12.903  10.693   6.327
82387SOL    HW248936  12.959  10.802   6.238
82388SOL     OW48937   0.468  11.657   0.734
82388SOL    HW148938   0.527  11.725   0.702
82388SOL    HW248939   0.385  11.703   0.750
82389SOL     OW48940   6.927  13.560   8.878
82389SOL    HW148941   6.944  13.622   8.949
82389SOL    HW248942   6.939  13.612   8.798
82390SOL     OW48943  10.106   8.395   4.233
82390SOL    HW148944  10.198   8.419   4.221
82390SOL    HW248945  10.108   8.323   4.296
82391SOL     OW48946  11.816   6.373   1.804
82391SOL    HW148947  11.760   6.353   1.879
82391SOL    HW248948  11.860   6.290   1.784
82392SOL     OW48949   0.325   9.221   5.858
82392SOL    HW148950   0.357   9.203   5.770
82392SOL    HW248951   0.402   9.211   5.914
82393SOL     OW48952   7.444   1.462   3.008
82393SOL    HW148953   7.375   1.481   3.072
82393SOL    HW248954   7.502   1.538   3.012
82394SOL     OW48955   3.401   1.398   7.064
82394SOL    HW148956   3.381   1.432   7.151
82394SOL    HW248957   3.361   1.461   7.004
82395SOL     OW48958  11.950  11.363   4.144
82395SOL    HW148959  12.032  11.413   4.144
82395SOL    HW248960  11.883  11.428   4.162
82396SOL     OW48961   4.905   9.959   5.764
82396SOL    HW148962   4.997   9.934   5.753
82396SOL    HW248963   4.860   9.878   5.787
82397SOL     OW48964  12.218  10.419   4.792
82397SOL    HW148965  12.240  10.332   4.824
82397SOL    HW248966  12.167  10.404   4.713
82398SOL     OW48967   2.378   9.478   3.128
82398SOL    HW148968   2.385   9.460   3.222
82398SOL    HW248969   2.469   9.489   3.099
82399SOL     OW48970   9.756  14.876   2.621
82399SOL    HW148971   9.715   0.015   2.536
82399SOL    HW248972   9.698   0.040   2.685
82400SOL     OW48973   2.926   1.629   4.107
82400SOL    HW148974   3.006   1.577   4.117
82400SOL    HW248975   2.899   1.615   4.017
82401SOL     OW48976   8.670   4.298   7.745
82401SOL    HW148977   8.622   4.244   7.682
82401SOL    HW248978   8.672   4.246   7.825
82402SOL     OW48979   7.741   0.489  12.184
82402SOL    HW148980   7.824   0.472  12.139
82402SOL    HW248981   7.683   0.521  12.115
82403SOL     OW48982  12.138  10.479  12.703
82403SOL    HW148983  12.174  10.565  12.723
82403SOL    HW248984  12.212  10.430  12.667
82404SOL     OW48985   0.529   9.667  10.320
82404SOL    HW148986   0.480   9.749  10.311
82404SOL    HW248987   0.616   9.694  10.349
82405SOL     OW48988   9.373   9.829  12.465
82405SOL    HW148989   9.294   9.883  12.471
82405SOL    HW248990   9.430   9.862  12.535
82406SOL     OW48991  13.719  13.430   2.208
82406SOL    HW148992  13.676  13.489   2.270
82406SOL    HW248993  13.792  13.482   2.174
82407SOL     OW48994  11.987  12.735   1.794
82407SOL    HW148995  12.013  12.676   1.722
82407SOL    HW248996  11.892  12.745   1.783
82408SOL     OW48997  10.043   3.350  13.939
82408SOL    HW148998   9.985   3.411  13.892
82408SOL    HW248999  10.055   3.277  13.879
82409SOL     OW49000   2.885  10.777   1.809
82409SOL    HW149001   2.838  10.694   1.819
82409SOL    HW249002   2.831  10.828   1.749
82410SOL     OW49003   9.210  10.473   2.205
82410SOL    HW149004   9.165  10.538   2.151
82410SOL    HW249005   9.169  10.482   2.292
82411SOL     OW49006  12.379   8.175   6.740
82411SOL    HW149007  12.364   8.203   6.830
82411SOL    HW249008  12.429   8.094   6.747
82412SOL     OW49009   8.859  10.925   0.964
82412SOL    HW149010   8.834  10.925   0.872
82412SOL    HW249011   8.798  10.864   1.005
82413SOL     OW49012   0.853   5.998  12.352
82413SOL    HW149013   0.791   6.024  12.420
82413SOL    HW249014   0.799   5.967  12.280
82414SOL     OW49015  12.414   4.056  14.811
82414SOL    HW149016  12.502   4.049  14.774
82414SOL    HW249017  12.423   4.025   0.023
82415SOL     OW49018   9.362  12.537   1.235
82415SOL    HW149019   9.423  12.596   1.191
82415SOL    HW249020   9.277  12.557   1.197
82416SOL     OW49021   5.738   9.518  11.560
82416SOL    HW149022   5.675   9.585  11.533
82416SOL    HW249023   5.708   9.438  11.519
82417SOL     OW49024  12.913   9.831   8.734
82417SOL    HW149025  12.878   9.919   8.747
82417SOL    HW249026  12.857   9.775   8.787
82418SOL     OW49027   1.394   1.941  13.100
82418SOL    HW149028   1.474   1.931  13.153
82418SOL    HW249029   1.417   2.008  13.036
82419SOL     OW49030   8.832   3.742   7.035
82419SOL    HW149031   8.851   3.805   6.966
82419SOL    HW249032   8.917   3.727   7.077
82420SOL     OW49033   0.191   0.083  13.758
82420SOL    HW149034   0.113   0.128  13.790
82420SOL    HW249035   0.249   0.078  13.834
82421SOL     OW49036  10.782   2.738   7.134
82421SOL    HW149037  10.732   2.722   7.054
82421SOL    HW249038  10.859   2.786   7.104
82422SOL     OW49039   8.673  14.315   7.055
82422SOL    HW149040   8.582  14.318   7.028
82422SOL    HW249041   8.689  14.224   7.078
82423SOL     OW49042   9.368   4.002   0.076
82423SOL    HW149043   9.372   4.066   0.146
82423SOL    HW249044   9.421   3.929   0.107
82424SOL     OW49045  14.718   4.266  10.577
82424SOL    HW149046  14.800   4.315  10.581
82424SOL    HW249047  14.692   4.270  10.485
82425SOL     OW49048   4.549   3.764   8.250
82425SOL    HW149049   4.636   3.740   8.283
82425SOL    HW249050   4.496   3.773   8.329
82426SOL     OW49051  13.279   8.929   2.552
82426SOL    HW149052  13.372   8.932   2.575
82426SOL    HW249053  13.278   8.914   2.457
82427SOL     OW49054   0.995   7.788  11.989
82427SOL    HW149055   0.901   7.769  11.997
82427SOL    HW249056   1.025   7.731  11.918
82428SOL     OW49057   3.893   1.089   2.639
82428SOL    HW149058   3.899   1.026   2.567
82428SOL    HW249059   3.942   1.165   2.609
82429SOL     OW49060   0.787  13.167   8.316
82429SOL    HW149061   0.742  13.082   8.317
82429SOL    HW249062   0.849  13.160   8.243
82430SOL     OW49063   8.752  13.571   2.222
82430SOL    HW149064   8.766  13.609   2.309
82430SOL    HW249065   8.722  13.482   2.240
82431SOL     OW49066  11.323   3.376   8.055
82431SOL    HW149067  11.327   3.322   7.977
82431SOL    HW249068  11.231   3.372   8.083
82432SOL     OW49069   3.889   2.217   4.543
82432SOL    HW149070   3.811   2.164   4.525
82432SOL    HW249071   3.863   2.306   4.520
82433SOL     OW49072   4.747   2.331  10.816
82433SOL    HW149073   4.808   2.266  10.852
82433SOL    HW249074   4.803   2.402  10.786
82434SOL     OW49075  13.322   3.291   3.352
82434SOL    HW149076  13.288   3.249   3.273
82434SOL    HW249077  13.277   3.247   3.424
82435SOL     OW49078  12.871   2.457   9.232
82435SOL    HW149079  12.809   2.387   9.212
82435SOL    HW249080  12.834   2.535   9.191
82436SOL     OW49081   8.539   7.642   5.557
82436SOL    HW149082   8.562   7.640   5.649
82436SOL    HW249083   8.471   7.710   5.551
82437SOL     OW49084   7.087   1.934  10.387
82437SOL    HW149085   7.025   1.952  10.459
82437SOL    HW249086   7.147   2.008  10.389
82438SOL     OW49087   4.000   4.011  14.142
82438SOL    HW149088   3.946   3.965  14.206
82438SOL    HW249089   3.941   4.034  14.071
82439SOL     OW49090  12.634   1.436   5.658
82439SOL    HW149091  12.670   1.415   5.744
82439SOL    HW249092  12.677   1.375   5.598
82440SOL     OW49093  14.461  12.624   5.181
82440SOL    HW149094  14.393  12.657   5.240
82440SOL    HW249095  14.535  12.605   5.238
82441SOL     OW49096  10.419  11.284  14.177
82441SOL    HW149097  10.350  11.348  14.160
82441SOL    HW249098  10.386  11.202  14.140
82442SOL     OW49099  12.635   6.601   2.517
82442SOL    HW149100  12.610   6.593   2.425
82442SOL    HW249101  12.630   6.694   2.536
82443SOL     OW49102   2.148   8.594  10.641
82443SOL    HW149103   2.119   8.677  10.604
82443SOL    HW249104   2.086   8.577  10.712
82444SOL     OW49105   8.533  10.880  13.475
82444SOL    HW149106   8.542  10.812  13.408
82444SOL    HW249107   8.475  10.945  13.436
82445SOL     OW49108   5.561   4.662   5.680
82445SOL    HW149109   5.468   4.642   5.676
82445SOL    HW249110   5.598   4.596   5.738
82446SOL     OW49111   1.340   6.640   7.748
82446SOL    HW149112   1.397   6.600   7.683
82446SOL    HW249113   1.332   6.573   7.817
82447SOL     OW49114   3.316   9.270   2.635
82447SOL    HW149115   3.287   9.238   2.550
82447SOL    HW249116   3.281   9.208   2.698
82448SOL     OW49117  14.052  11.309   9.167
82448SOL    HW149118  14.057  11.343   9.077
82448SOL    HW249119  14.086  11.380   9.221
82449SOL     OW49120  14.647  12.798   9.156
82449SOL    HW149121  14.711  12.833   9.094
82449SOL    HW249122  14.656  12.853   9.234
82450SOL     OW49123   2.377  14.719   7.462
82450SOL    HW149124   2.353  14.780   7.393
82450SOL    HW249125   2.458  14.678   7.431
82451SOL     OW49126   5.042   5.752   6.686
82451SOL    HW149127   5.137   5.767   6.692
82451SOL    HW249128   5.004   5.839   6.690
82452SOL     OW49129   4.782  10.212   4.518
82452SOL    HW149130   4.749  10.288   4.567
82452SOL    HW249131   4.742  10.137   4.563
82453SOL     OW49132  11.534   7.524   7.597
82453SOL    HW149133  11.494   7.454   7.647
82453SOL    HW249134  11.488   7.523   7.513
82454SOL     OW49135  13.047   5.266  13.314
82454SOL    HW149136  13.125   5.312  13.281
82454SOL    HW249137  13.031   5.306  13.399
82455SOL     OW49138   6.830  11.113  12.716
82455SOL    HW149139   6.793  11.090  12.631
82455SOL    HW249140   6.923  11.094  12.708
82456SOL     OW49141   8.414  12.285   1.186
82456SOL    HW149142   8.468  12.225   1.237
82456SOL    HW249143   8.335  12.234   1.166
82457SOL     OW49144  12.002  12.269  10.093
82457SOL    HW149145  12.000  12.219  10.012
82457SOL    HW249146  11.930  12.332  10.085
82458SOL     OW49147  11.834   6.221   9.877
82458SOL    HW149148  11.741   6.198   9.871
82458SOL    HW249149  11.837   6.288   9.946
82459SOL     OW49150   5.434  12.959   2.595
82459SOL    HW149151   5.468  12.887   2.542
82459SOL    HW249152   5.501  13.027   2.589
82460SOL     OW49153   0.236  10.680   7.532
82460SOL    HW149154   0.180  10.731   7.591
82460SOL    HW249155   0.311  10.736   7.516
82461SOL     OW49156  10.606  11.960  13.127
82461SOL    HW149157  10.599  11.890  13.061
82461SOL    HW249158  10.667  12.023  13.088
82462SOL     OW49159   6.588  13.908   1.686
82462SOL    HW149160   6.538  13.831   1.660
82462SOL    HW249161   6.657  13.917   1.620
82463SOL     OW49162   0.252   5.080  11.580
82463SOL    HW149163   0.215   5.007  11.532
82463SOL    HW249164   0.199   5.087  11.659
82464SOL     OW49165   7.520   9.927   3.259
82464SOL    HW149166   7.436   9.917   3.215
82464SOL    HW249167   7.573   9.854   3.227
82465SOL     OW49168  10.872   8.062  13.513
82465SOL    HW149169  10.945   8.029  13.461
82465SOL    HW249170  10.875   8.157  13.501
82466SOL     OW49171   0.470   4.143   8.807
82466SOL    HW149172   0.401   4.166   8.745
82466SOL    HW249173   0.449   4.193   8.886
82467SOL     OW49174   5.952  10.907  12.181
82467SOL    HW149175   6.002  10.882  12.259
82467SOL    HW249176   5.941  10.826  12.132
82468SOL     OW49177   7.384   3.868   1.351
82468SOL    HW149178   7.386   3.939   1.415
82468SOL    HW249179   7.473   3.834   1.350
82469SOL     OW49180   4.192  13.351   6.907
82469SOL    HW149181   4.190  13.271   6.959
82469SOL    HW249182   4.285  13.370   6.897
82470SOL     OW49183  12.608   4.326   2.105
82470SOL    HW149184  12.598   4.327   2.200
82470SOL    HW249185  12.688   4.377   2.089
82471SOL     OW49186   9.903   8.230  10.033
82471SOL    HW149187   9.936   8.152   9.988
82471SOL    HW249188   9.972   8.296  10.021
82472SOL     OW49189  11.400   1.721   5.516
82472SOL    HW149190  11.389   1.636   5.559
82472SOL    HW249191  11.312   1.756   5.509
82473SOL     OW49192  12.122   1.633   2.424
82473SOL    HW149193  12.187   1.686   2.377
82473SOL    HW249194  12.053   1.618   2.359
82474SOL     OW49195  13.242   8.178   9.109
82474SOL    HW149196  13.213   8.269   9.099
82474SOL    HW249197  13.167   8.132   9.147
82475SOL     OW49198   7.790   0.787   3.430
82475SOL    HW149199   7.789   0.723   3.359
82475SOL    HW249200   7.819   0.737   3.507
82476SOL     OW49201  13.145   6.793   7.036
82476SOL    HW149202  13.180   6.856   7.099
82476SOL    HW249203  13.209   6.722   7.035
82477SOL     OW49204   7.314  13.112   1.923
82477SOL    HW149205   7.328  13.030   1.876
82477SOL    HW249206   7.375  13.173   1.882
82478SOL     OW49207   8.840  10.236  12.445
82478SOL    HW149208   8.784  10.224  12.522
82478SOL    HW249209   8.786  10.206  12.372
82479SOL     OW49210   7.916   0.827   1.928
82479SOL    HW149211   7.968   0.748   1.938
82479SOL    HW249212   7.897   0.856   2.017
82480SOL     OW49213   3.225  11.405   8.036
82480SOL    HW149214   3.136  11.372   8.023
82480SOL    HW249215   3.220  11.497   8.011
82481SOL     OW49216   4.983   1.920   9.242
82481SOL    HW149217   4.947   2.008   9.255
82481SOL    HW249218   5.043   1.907   9.315
82482SOL     OW49219  13.157   0.863  14.299
82482SOL    HW149220  13.164   0.957  14.285
82482SOL    HW249221  13.229   0.826  14.248
82483SOL     OW49222   5.380   0.828   4.923
82483SOL    HW149223   5.425   0.753   4.960
82483SOL    HW249224   5.349   0.797   4.838
82484SOL     OW49225  14.045  10.954   5.872
82484SOL    HW149226  14.009  11.017   5.809
82484SOL    HW249227  14.131  10.990   5.895
82485SOL     OW49228   7.959   6.490   7.825
82485SOL    HW149229   7.975   6.423   7.892
82485SOL    HW249230   8.031   6.480   7.763
82486SOL     OW49231   0.129   0.944  10.300
82486SOL    HW149232   0.089   1.025  10.333
82486SOL    HW249233   0.223   0.962  10.301
82487SOL     OW49234   7.919   8.886   5.731
82487SOL    HW149235   7.939   8.820   5.797
82487SOL    HW249236   7.989   8.878   5.667
82488SOL     OW49237  13.155   6.942   2.689
82488SOL    HW149238  13.201   6.939   2.605
82488SOL    HW249239  13.180   7.027   2.727
82489SOL     OW49240   4.824   0.457   3.814
82489SOL    HW149241   4.765   0.474   3.740
82489SOL    HW249242   4.811   0.364   3.833
82490SOL     OW49243   7.797  14.078  12.936
82490SOL    HW149244   7.837  14.100  13.020
82490SOL    HW249245   7.805  14.158  12.884
82491SOL     OW49246   6.041   6.086  14.131
82491SOL    HW149247   5.992   6.014  14.171
82491SOL    HW249248   6.069   6.052  14.046
82492SOL     OW49249   9.467   5.487   2.630
82492SOL    HW149250   9.499   5.483   2.720
82492SOL    HW249251   9.462   5.396   2.602
82493SOL     OW49252  12.958   6.981  13.969
82493SOL    HW149253  12.996   7.062  14.004
82493SOL    HW249254  12.864   6.995  13.971
82494SOL     OW49255   8.439   1.666  13.445
82494SOL    HW149256   8.487   1.715  13.378
82494SOL    HW249257   8.491   1.676  13.525
82495SOL     OW49258   5.811   3.058  13.364
82495SOL    HW149259   5.771   2.983  13.320
82495SOL    HW249260   5.904   3.051  13.343
82496SOL     OW49261   5.218   2.741   5.250
82496SOL    HW149262   5.172   2.666   5.287
82496SOL    HW249263   5.213   2.809   5.318
82497SOL     OW49264  14.169  10.411  13.035
82497SOL    HW149265  14.167  10.410  12.939
82497SOL    HW249266  14.254  10.450  13.057
82498SOL     OW49267   0.496  11.626   9.395
82498SOL    HW149268   0.577  11.641   9.443
82498SOL    HW249269   0.426  11.658   9.452
82499SOL     OW49270   2.819   6.156   9.337
82499SOL    HW149271   2.778   6.106   9.407
82499SOL    HW249272   2.759   6.146   9.262
82500SOL     OW49273   9.546   5.487   3.352
82500SOL    HW149274   9.574   5.485   3.443
82500SOL    HW249275   9.503   5.403   3.338
82501SOL     OW49276  14.800  14.315  12.060
82501SOL    HW149277  14.872  14.252  12.055
82501SOL    HW249278  14.722  14.263  12.041
82502SOL     OW49279   6.037   2.371   6.277
82502SOL    HW149280   5.999   2.452   6.311
82502SOL    HW249281   6.037   2.311   6.351
82503SOL     OW49282   5.380   1.344   4.507
82503SOL    HW149283   5.429   1.288   4.447
82503SOL    HW249284   5.318   1.285   4.550
82504SOL     OW49285   0.548   7.069   9.402
82504SOL    HW149286   0.575   6.978   9.408
82504SOL    HW249287   0.478   7.078   9.467
82505SOL     OW49288   0.384  12.193  14.480
82505SOL    HW149289   0.389  12.114  14.533
82505SOL    HW249290   0.464  12.241  14.500
82506SOL     OW49291   9.142  12.878   5.554
82506SOL    HW149292   9.234  12.878   5.578
82506SOL    HW249293   9.110  12.964   5.580
82507SOL     OW49294   3.656   0.054   9.589
82507SOL    HW149295   3.626   0.136   9.551
82507SOL    HW249296   3.643   0.065   9.683
82508SOL     OW49297   8.444   0.558   1.811
82508SOL    HW149298   8.380   0.597   1.752
82508SOL    HW249299   8.526   0.559   1.762
82509SOL     OW49300  13.757  13.161   3.116
82509SOL    HW149301  13.835  13.120   3.077
82509SOL    HW249302  13.792  13.222   3.182
82510SOL     OW49303  11.374   7.500   4.102
82510SOL    HW149304  11.356   7.594   4.092
82510SOL    HW249305  11.453   7.485   4.050
82511SOL     OW49306  12.310  14.100   5.184
82511SOL    HW149307  12.269  14.119   5.099
82511SOL    HW249308  12.244  14.122   5.248
82512SOL     OW49309  10.775   2.045  14.200
82512SOL    HW149310  10.832   1.969  14.199
82512SOL    HW249311  10.770   2.070  14.293
82513SOL     OW49312  10.966   1.604   4.797
82513SOL    HW149313  11.045   1.602   4.851
82513SOL    HW249314  10.903   1.549   4.844
82514SOL     OW49315   5.608   8.018  10.962
82514SOL    HW149316   5.653   7.952  11.015
82514SOL    HW249317   5.519   7.984  10.950
82515SOL     OW49318   5.966   5.854   0.091
82515SOL    HW149319   5.901   5.893   0.149
82515SOL    HW249320   6.029   5.923   0.074
82516SOL     OW49321   4.307  13.810  13.623
82516SOL    HW149322   4.251  13.752  13.570
82516SOL    HW249323   4.350  13.751  13.685
82517SOL     OW49324   2.855   5.095   5.397
82517SOL    HW149325   2.914   5.157   5.439
82517SOL    HW249326   2.910   5.044   5.338
82518SOL     OW49327  14.386   6.754   3.000
82518SOL    HW149328  14.408   6.666   3.030
82518SOL    HW249329  14.449   6.773   2.931
82519SOL     OW49330   0.363   9.770   8.284
82519SOL    HW149331   0.403   9.807   8.205
82519SOL    HW249332   0.306   9.840   8.317
82520SOL     OW49333   6.998   0.526   6.958
82520SOL    HW149334   7.013   0.551   7.049
82520SOL    HW249335   6.974   0.608   6.915
82521SOL     OW49336   9.059   4.196   1.961
82521SOL    HW149337   9.102   4.145   2.029
82521SOL    HW249338   9.072   4.287   1.988
82522SOL     OW49339  10.276   5.358   9.656
82522SOL    HW149340  10.238   5.423   9.597
82522SOL    HW249341  10.302   5.408   9.733
82523SOL     OW49342   7.679   7.650   0.103
82523SOL    HW149343   7.692   7.719   0.038
82523SOL    HW249344   7.605   7.600   0.070
82524SOL     OW49345   3.883  11.173   4.024
82524SOL    HW149346   3.826  11.140   4.094
82524SOL    HW249347   3.932  11.097   3.995
82525SOL     OW49348   7.885   6.203  14.154
82525SOL    HW149349   7.910   6.128  14.207
82525SOL    HW249350   7.886   6.278  14.214
82526SOL     OW49351   7.287   6.201   7.253
82526SOL    HW149352   7.254   6.120   7.292
82526SOL    HW249353   7.349   6.235   7.318
82527SOL     OW49354   9.767  13.334   7.334
82527SOL    HW149355   9.780  13.327   7.239
82527SOL    HW249356   9.700  13.268   7.353
82528SOL     OW49357  10.627   7.005   4.532
82528SOL    HW149358  10.549   6.973   4.487
82528SOL    HW249359  10.610   7.098   4.548
82529SOL     OW49360   9.502  12.636   0.424
82529SOL    HW149361   9.499  12.683   0.507
82529SOL    HW249362   9.553  12.693   0.366
82530SOL     OW49363  12.990   0.080   6.326
82530SOL    HW149364  13.081   0.088   6.356
82530SOL    HW249365  12.998   0.055   6.234
82531SOL     OW49366  14.642  13.523  10.046
82531SOL    HW149367  14.584  13.447  10.055
82531SOL    HW249368  14.597  13.579   9.983
82532SOL     OW49369   8.017  11.349   1.489
82532SOL    HW149370   8.099  11.323   1.448
82532SOL    HW249371   8.022  11.445   1.495
82533SOL     OW49372   8.936   6.719  12.876
82533SOL    HW149373   9.017   6.728  12.825
82533SOL    HW249374   8.963   6.672  12.955
82534SOL     OW49375   4.069  12.036   0.604
82534SOL    HW149376   3.981  12.071   0.612
82534SOL    HW249377   4.057  11.941   0.598
82535SOL     OW49378   3.296   9.002   2.130
82535SOL    HW149379   3.203   8.981   2.117
82535SOL    HW249380   3.336   8.917   2.150
82536SOL     OW49381   9.419   0.437   6.026
82536SOL    HW149382   9.473   0.466   6.100
82536SOL    HW249383   9.477   0.444   5.950
82537SOL     OW49384  12.601  14.821   7.762
82537SOL    HW149385  12.617   0.032   7.728
82537SOL    HW249386  12.681  14.773   7.742
82538SOL     OW49387   7.784   3.671   9.779
82538SOL    HW149388   7.824   3.620   9.709
82538SOL    HW249389   7.833   3.646   9.858
82539SOL     OW49390  11.110   6.489  11.381
82539SOL    HW149391  11.204   6.487  11.366
82539SOL    HW249392  11.084   6.397  11.384
82540SOL     OW49393  14.076   1.675   4.028
82540SOL    HW149394  14.043   1.595   3.986
82540SOL    HW249395  14.032   1.746   3.981
82541SOL     OW49396  10.468   2.712   3.732
82541SOL    HW149397  10.543   2.707   3.791
82541SOL    HW249398  10.473   2.799   3.693
82542SOL     OW49399   1.463  10.717   0.825
82542SOL    HW149400   1.423  10.752   0.905
82542SOL    HW249401   1.460  10.789   0.763
82543SOL     OW49402  13.453   4.245   7.914
82543SOL    HW149403  13.410   4.159   7.913
82543SOL    HW249404  13.415   4.291   7.839
82544SOL     OW49405   8.380   9.124   3.439
82544SOL    HW149406   8.433   9.050   3.470
82544SOL    HW249407   8.332   9.153   3.517
82545SOL     OW49408   3.227  14.770  13.602
82545SOL    HW149409   3.263  14.842  13.551
82545SOL    HW249410   3.207  14.808  13.687
82546SOL     OW49411   2.452   3.059   5.982
82546SOL    HW149412   2.468   3.071   5.888
82546SOL    HW249413   2.513   3.119   6.025
82547SOL     OW49414  10.667  12.523  10.919
82547SOL    HW149415  10.602  12.493  10.982
82547SOL    HW249416  10.616  12.562  10.848
82548SOL     OW49417   6.257   9.386  12.414
82548SOL    HW149418   6.180   9.433  12.380
82548SOL    HW249419   6.240   9.377  12.508
82549SOL     OW49420   5.859   1.612   5.548
82549SOL    HW149421   5.897   1.678   5.606
82549SOL    HW249422   5.912   1.617   5.468
82550SOL     OW49423   5.214   9.117   7.856
82550SOL    HW149424   5.231   9.167   7.936
82550SOL    HW249425   5.159   9.044   7.885
82551SOL     OW49426   2.823   8.595   7.372
82551SOL    HW149427   2.747   8.629   7.420
82551SOL    HW249428   2.816   8.635   7.285
82552SOL     OW49429   5.045  12.556   7.260
82552SOL    HW149430   4.999  12.546   7.177
82552SOL    HW249431   5.079  12.469   7.279
82553SOL     OW49432  13.276   6.496   3.143
82553SOL    HW149433  13.369   6.480   3.131
82553SOL    HW249434  13.265   6.506   3.238
82554SOL     OW49435   6.629  12.159   1.801
82554SOL    HW149436   6.549  12.107   1.804
82554SOL    HW249437   6.699  12.095   1.786
82555SOL     OW49438   1.188   8.907   5.964
82555SOL    HW149439   1.169   8.841   6.030
82555SOL    HW249440   1.137   8.881   5.887
82556SOL     OW49441   7.198   2.694   6.097
82556SOL    HW149442   7.177   2.625   6.159
82556SOL    HW249443   7.293   2.704   6.102
82557SOL     OW49444   7.194   7.382  11.124
82557SOL    HW149445   7.258   7.417  11.062
82557SOL    HW249446   7.134   7.331  11.070
82558SOL     OW49447   6.858   5.587  11.836
82558SOL    HW149448   6.801   5.591  11.913
82558SOL    HW249449   6.888   5.677  11.825
82559SOL     OW49450  10.638  10.978  14.102
82559SOL    HW149451  10.733  10.976  14.089
82559SOL    HW249452  10.627  10.990  14.196
82560SOL     OW49453   5.030  14.081  10.408
82560SOL    HW149454   4.977  14.019  10.358
82560SOL    HW249455   4.996  14.167  10.384
82561SOL     OW49456   2.056   7.147  11.980
82561SOL    HW149457   2.025   7.103  11.901
82561SOL    HW249458   2.149   7.126  11.986
82562SOL     OW49459  10.525   6.103   0.888
82562SOL    HW149460  10.496   6.118   0.798
82562SOL    HW249461  10.498   6.013   0.906
82563SOL     OW49462  10.179   2.764  13.354
82563SOL    HW149463  10.095   2.718  13.348
82563SOL    HW249464  10.196   2.793  13.264
82564SOL     OW49465  12.336   6.014   7.192
82564SOL    HW149466  12.314   6.069   7.117
82564SOL    HW249467  12.252   5.979   7.221
82565SOL     OW49468   0.991   9.143   9.776
82565SOL    HW149469   1.014   9.225   9.820
82565SOL    HW249470   0.903   9.122   9.809
82566SOL     OW49471   6.428   7.228   1.164
82566SOL    HW149472   6.424   7.156   1.227
82566SOL    HW249473   6.483   7.293   1.207
82567SOL     OW49474   8.413  14.858   3.270
82567SOL    HW149475   8.396   0.039   3.196
82567SOL    HW249476   8.431   0.040   3.343
82568SOL     OW49477   8.388  12.852   6.343
82568SOL    HW149478   8.359  12.937   6.375
82568SOL    HW249479   8.316  12.822   6.287
82569SOL     OW49480   5.047  14.291   6.304
82569SOL    HW149481   5.026  14.362   6.243
82569SOL    HW249482   5.011  14.320   6.388
82570SOL     OW49483   6.800  10.621   1.754
82570SOL    HW149484   6.805  10.567   1.833
82570SOL    HW249485   6.872  10.590   1.699
82571SOL     OW49486   9.565  14.641   2.289
82571SOL    HW149487   9.614  14.559   2.287
82571SOL    HW249488   9.516  14.643   2.207
82572SOL     OW49489   2.833   8.898   2.364
82572SOL    HW149490   2.762   8.941   2.317
82572SOL    HW249491   2.828   8.933   2.453
82573SOL     OW49492   3.766   6.625  11.391
82573SOL    HW149493   3.743   6.657  11.304
82573SOL    HW249494   3.713   6.678  11.450
82574SOL     OW49495  14.000  13.270   4.578
82574SOL    HW149496  14.066  13.301   4.640
82574SOL    HW249497  13.917  13.307   4.610
82575SOL     OW49498   5.203   5.461  11.618
82575SOL    HW149499   5.108   5.473  11.624
82575SOL    HW249500   5.223   5.477  11.526
82576SOL     OW49501  11.062   4.568   0.518
82576SOL    HW149502  11.095   4.654   0.546
82576SOL    HW249503  10.997   4.545   0.584
82577SOL     OW49504   8.488  13.590   4.545
82577SOL    HW149505   8.584  13.596   4.545
82577SOL    HW249506   8.466  13.544   4.625
82578SOL     OW49507  14.043  11.845  13.037
82578SOL    HW149508  14.093  11.765  13.026
82578SOL    HW249509  14.012  11.842  13.128
82579SOL     OW49510  11.729   2.375  12.862
82579SOL    HW149511  11.762   2.453  12.906
82579SOL    HW249512  11.770   2.379  12.775
82580SOL     OW49513  14.116   6.205   0.381
82580SOL    HW149514  14.205   6.239   0.374
82580SOL    HW249515  14.066   6.275   0.424
82581SOL     OW49516  11.169   8.898   5.008
82581SOL    HW149517  11.202   8.974   4.960
82581SOL    HW249518  11.153   8.832   4.940
82582SOL     OW49519   9.086   2.210   5.881
82582SOL    HW149520   9.056   2.215   5.971
82582SOL    HW249521   9.182   2.212   5.887
82583SOL     OW49522   1.642   9.544  10.783
82583SOL    HW149523   1.701   9.492  10.837
82583SOL    HW249524   1.589   9.479  10.736
82584SOL     OW49525   6.391   3.867   9.589
82584SOL    HW149526   6.463   3.917   9.626
82584SOL    HW249527   6.409   3.776   9.613
82585SOL     OW49528   3.931   8.031  11.874
82585SOL    HW149529   4.021   8.012  11.902
82585SOL    HW249530   3.936   8.116  11.831
82586SOL     OW49531  13.623   1.923   5.279
82586SOL    HW149532  13.610   1.921   5.373
82586SOL    HW249533  13.581   1.842   5.247
82587SOL     OW49534   9.226   2.459  14.426
82587SOL    HW149535   9.188   2.546  14.430
82587SOL    HW249536   9.206   2.428  14.337
82588SOL     OW49537   6.639  10.755  10.837
82588SOL    HW149538   6.653  10.670  10.796
82588SOL    HW249539   6.673  10.745  10.926
82589SOL     OW49540   0.683  13.499  14.759
82589SOL    HW149541   0.721  13.412  14.771
82589SOL    HW249542   0.607  13.484  14.701
82590SOL     OW49543   7.872  13.001   9.853
82590SOL    HW149544   7.881  13.030   9.944
82590SOL    HW249545   7.944  13.043   9.807
82591SOL     OW49546  12.435   6.291   4.603
82591SOL    HW149547  12.383   6.262   4.678
82591SOL    HW249548  12.404   6.237   4.530
82592SOL     OW49549   5.405   5.569   2.215
82592SOL    HW149550   5.377   5.491   2.167
82592SOL    HW249551   5.437   5.534   2.299
82593SOL     OW49552   2.202   2.046  10.964
82593SOL    HW149553   2.138   2.109  10.930
82593SOL    HW249554   2.286   2.092  10.958
82594SOL     OW49555  11.999   3.041  13.707
82594SOL    HW149556  11.955   3.080  13.631
82594SOL    HW249557  11.975   2.948  13.704
82595SOL     OW49558   2.836   5.673   0.239
82595SOL    HW149559   2.787   5.687   0.159
82595SOL    HW249560   2.928   5.680   0.213
82596SOL     OW49561  13.765   6.435  13.403
82596SOL    HW149562  13.720   6.517  13.426
82596SOL    HW249563  13.763   6.383  13.483
82597SOL     OW49564  10.952  11.765  14.301
82597SOL    HW149565  11.033  11.762  14.352
82597SOL    HW249566  10.889  11.715  14.352
82598SOL     OW49567  12.232   5.296  14.250
82598SOL    HW149568  12.248   5.206  14.277
82598SOL    HW249569  12.303   5.346  14.288
82599SOL     OW49570   3.175   7.835   6.420
82599SOL    HW149571   3.236   7.798   6.484
82599SOL    HW249572   3.229   7.893   6.366
82600SOL     OW49573  10.016  11.133   7.631
82600SOL    HW149574  10.047  11.097   7.714
82600SOL    HW249575   9.928  11.096   7.621
82601SOL     OW49576   4.031   5.302  10.988
82601SOL    HW149577   4.071   5.354  11.058
82601SOL    HW249578   4.072   5.216  10.997
82602SOL     OW49579   5.074   6.246   8.350
82602SOL    HW149580   5.158   6.201   8.341
82602SOL    HW249581   5.086   6.327   8.300
82603SOL     OW49582   2.429   0.660   1.136
82603SOL    HW149583   2.409   0.585   1.192
82603SOL    HW249584   2.347   0.709   1.130
82604SOL     OW49585   0.443   6.473   0.090
82604SOL    HW149586   0.353   6.465   0.123
82604SOL    HW249587   0.492   6.406   0.138
82605SOL     OW49588  11.846   8.189   3.010
82605SOL    HW149589  11.843   8.124   2.940
82605SOL    HW249590  11.869   8.139   3.088
82606SOL     OW49591   4.816   5.605   3.625
82606SOL    HW149592   4.904   5.643   3.627
82606SOL    HW249593   4.828   5.515   3.655
82607SOL     OW49594  11.054  10.661  13.627
82607SOL    HW149595  11.012  10.604  13.562
82607SOL    HW249596  11.053  10.609  13.707
82608SOL     OW49597  12.773   7.073   0.477
82608SOL    HW149598  12.864   7.102   0.486
82608SOL    HW249599  12.726   7.119   0.547
82609SOL     OW49600   2.368   2.060   9.652
82609SOL    HW149601   2.308   2.111   9.597
82609SOL    HW249602   2.315   2.034   9.727
82610SOL     OW49603   2.259   5.970   7.714
82610SOL    HW149604   2.351   5.998   7.715
82610SOL    HW249605   2.255   5.905   7.644
82611SOL     OW49606  14.499  13.839   7.515
82611SOL    HW149607  14.454  13.768   7.560
82611SOL    HW249608  14.442  13.858   7.440
82612SOL     OW49609   0.071  13.648   6.895
82612SOL    HW149610   0.091  13.608   6.810
82612SOL    HW249611   0.141  13.713   6.908
82613SOL     OW49612   5.097   9.491   2.534
82613SOL    HW149613   5.008   9.500   2.502
82613SOL    HW249614   5.090   9.499   2.629
82614SOL     OW49615   2.956  10.182   6.304
82614SOL    HW149616   2.962  10.229   6.221
82614SOL    HW249617   3.044  10.148   6.320
82615SOL     OW49618  12.552   2.965   4.557
82615SOL    HW149619  12.574   2.873   4.540
82615SOL    HW249620  12.497   2.990   4.483
82616SOL     OW49621  13.263  12.268   0.696
82616SOL    HW149622  13.241  12.192   0.642
82616SOL    HW249623  13.265  12.233   0.785
82617SOL     OW49624  10.126   2.268   2.887
82617SOL    HW149625  10.220   2.266   2.874
82617SOL    HW249626  10.089   2.234   2.806
82618SOL     OW49627   3.833   6.142  10.871
82618SOL    HW149628   3.883   6.176  10.945
82618SOL    HW249629   3.841   6.047  10.878
82619SOL     OW49630  14.823   0.118  10.078
82619SOL    HW149631  14.765   0.184  10.114
82619SOL    HW249632  14.791   0.035  10.114
82620SOL     OW49633   9.339   0.803   0.198
82620SOL    HW149634   9.284   0.858   0.141
82620SOL    HW249635   9.405   0.766   0.139
82621SOL     OW49636   7.858   9.150  11.979
82621SOL    HW149637   7.874   9.165  11.886
82621SOL    HW249638   7.856   9.237  12.018
82622SOL     OW49639   1.997  14.095  10.273
82622SOL    HW149640   1.937  14.145  10.217
82622SOL    HW249641   2.008  14.151  10.350
82623SOL     OW49642   9.205  11.587   4.001
82623SOL    HW149643   9.236  11.651   4.065
82623SOL    HW249644   9.227  11.626   3.916
82624SOL     OW49645   9.158  10.929   9.640
82624SOL    HW149646   9.140  10.949   9.548
82624SOL    HW249647   9.075  10.895   9.674
82625SOL     OW49648  10.561   6.840   2.541
82625SOL    HW149649  10.514   6.773   2.592
82625SOL    HW249650  10.500   6.913   2.536
82626SOL     OW49651   0.776   6.472   1.316
82626SOL    HW149652   0.835   6.464   1.242
82626SOL    HW249653   0.833   6.490   1.391
82627SOL     OW49654   6.492  14.335  10.726
82627SOL    HW149655   6.449  14.420  10.718
82627SOL    HW249656   6.565  14.340  10.663
82628SOL     OW49657   2.978   0.696   0.570
82628SOL    HW149658   2.889   0.670   0.545
82628SOL    HW249659   2.969   0.729   0.659
82629SOL     OW49660   0.643  10.238   1.253
82629SOL    HW149661   0.585  10.243   1.329
82629SOL    HW249662   0.683  10.151   1.259
82630SOL     OW49663  14.208  14.400  11.276
82630SOL    HW149664  14.266  14.468  11.310
82630SOL    HW249665  14.126  14.412  11.325
82631SOL     OW49666  13.628   2.351   5.810
82631SOL    HW149667  13.699   2.346   5.874
82631SOL    HW249668  13.629   2.442   5.780
82632SOL     OW49669   2.483   6.058   2.140
82632SOL    HW149670   2.541   6.080   2.067
82632SOL    HW249671   2.538   6.006   2.199
82633SOL     OW49672   1.757   2.212  10.567
82633SOL    HW149673   1.797   2.209  10.480
82633SOL    HW249674   1.821   2.256  10.622
82634SOL     OW49675  12.687  14.182   7.674
82634SOL    HW149676  12.694  14.264   7.723
82634SOL    HW249677  12.769  14.136   7.692
82635SOL     OW49678  12.440   1.300   7.050
82635SOL    HW149679  12.385   1.309   7.128
82635SOL    HW249680  12.378   1.281   6.980
82636SOL     OW49681   2.363  10.758  13.511
82636SOL    HW149682   2.431  10.825  13.505
82636SOL    HW249683   2.393  10.699  13.581
82637SOL     OW49684  12.459  12.700   0.281
82637SOL    HW149685  12.381  12.687   0.335
82637SOL    HW249686  12.433  12.672   0.194
82638SOL     OW49687   8.694  12.325   8.406
82638SOL    HW149688   8.667  12.271   8.332
82638SOL    HW249689   8.671  12.415   8.380
82639SOL     OW49690   4.860   4.010  11.197
82639SOL    HW149691   4.775   3.967  11.205
82639SOL    HW249692   4.874   4.050  11.283
82640SOL     OW49693  11.322  10.846   4.672
82640SOL    HW149694  11.244  10.891   4.704
82640SOL    HW249695  11.393  10.908   4.689
82641SOL     OW49696   3.147   7.309   9.393
82641SOL    HW149697   3.071   7.352   9.356
82641SOL    HW249698   3.177   7.368   9.462
82642SOL     OW49699  13.553  13.165   1.235
82642SOL    HW149700  13.613  13.225   1.190
82642SOL    HW249701  13.467  13.186   1.199
82643SOL     OW49702   3.587   8.545   7.658
82643SOL    HW149703   3.493   8.540   7.678
82643SOL    HW249704   3.629   8.550   7.744
82644SOL     OW49705   5.701  10.486  13.525
82644SOL    HW149706   5.740  10.425  13.587
82644SOL    HW249707   5.617  10.447  13.502
82645SOL     OW49708   1.418  10.666  14.225
82645SOL    HW149709   1.335  10.663  14.178
82645SOL    HW249710   1.457  10.750  14.200
82646SOL     OW49711  12.049  12.219   9.407
82646SOL    HW149712  12.135  12.190   9.378
82646SOL    HW249713  12.013  12.268   9.333
82647SOL     OW49714   5.236  13.493   8.372
82647SOL    HW149715   5.290  13.547   8.314
82647SOL    HW249716   5.250  13.529   8.459
82648SOL     OW49717   1.004   5.611   8.643
82648SOL    HW149718   1.016   5.576   8.731
82648SOL    HW249719   1.091   5.639   8.616
82649SOL     OW49720   9.689  10.288   7.440
82649SOL    HW149721   9.636  10.208   7.442
82649SOL    HW249722   9.700  10.310   7.533
82650SOL     OW49723   0.901  13.377   2.565
82650SOL    HW149724   0.970  13.374   2.498
82650SOL    HW249725   0.922  13.305   2.624
82651SOL     OW49726   3.633  11.491  10.317
82651SOL    HW149727   3.602  11.546  10.245
82651SOL    HW249728   3.727  11.510  10.322
82652SOL     OW49729   0.934  12.823   1.749
82652SOL    HW149730   0.933  12.896   1.810
82652SOL    HW249731   1.006  12.843   1.689
82653SOL     OW49732   8.124   5.715  14.685
82653SOL    HW149733   8.085   5.730  14.771
82653SOL    HW249734   8.094   5.789  14.632
82654SOL     OW49735   9.283  11.584   2.209
82654SOL    HW149736   9.188  11.582   2.222
82654SOL    HW249737   9.314  11.505   2.254
82655SOL     OW49738   4.363   8.762  10.150
82655SOL    HW149739   4.432   8.726  10.205
82655SOL    HW249740   4.306   8.811  10.210
82656SOL     OW49741   5.592  12.374  12.162
82656SOL    HW149742   5.610  12.438  12.231
82656SOL    HW249743   5.623  12.291  12.197
82657SOL     OW49744   7.238   1.004   5.677
82657SOL    HW149745   7.189   1.031   5.754
82657SOL    HW249746   7.311   0.952   5.711
82658SOL     OW49747  11.118  13.110   6.787
82658SOL    HW149748  11.111  13.182   6.850
82658SOL    HW249749  11.211  13.089   6.785
82659SOL     OW49750   4.132   4.338   9.548
82659SOL    HW149751   4.212   4.388   9.534
82659SOL    HW249752   4.160   4.246   9.546
82660SOL     OW49753  11.474   8.157   3.311
82660SOL    HW149754  11.402   8.213   3.337
82660SOL    HW249755  11.476   8.164   3.215
82661SOL     OW49756   3.635   4.249   2.929
82661SOL    HW149757   3.688   4.287   2.859
82661SOL    HW249758   3.669   4.288   3.009
82662SOL     OW49759  10.709   1.580   3.803
82662SOL    HW149760  10.659   1.640   3.748
82662SOL    HW249761  10.646   1.546   3.866
82663SOL     OW49762   1.195   4.096   0.287
82663SOL    HW149763   1.255   4.022   0.287
82663SOL    HW249764   1.172   4.109   0.379
82664SOL     OW49765   4.538   3.546   1.774
82664SOL    HW149766   4.491   3.483   1.720
82664SOL    HW249767   4.630   3.533   1.751
82665SOL     OW49768   2.866   1.172   0.567
82665SOL    HW149769   2.862   1.267   0.566
82665SOL    HW249770   2.942   1.152   0.622
82666SOL     OW49771   7.957  14.590   0.733
82666SOL    HW149772   7.959  14.549   0.647
82666SOL    HW249773   8.007  14.671   0.723
82667SOL     OW49774   1.704   6.936   2.074
82667SOL    HW149775   1.626   6.991   2.072
82667SOL    HW249776   1.730   6.934   2.167
82668SOL     OW49777   9.278  14.390   2.037
82668SOL    HW149778   9.234  14.386   2.123
82668SOL    HW249779   9.240  14.467   1.995
82669SOL     OW49780  10.012  10.010   5.437
82669SOL    HW149781   9.929   9.966   5.457
82669SOL    HW249782  10.072   9.938   5.415
82670SOL     OW49783   2.338   6.980   1.885
82670SOL    HW149784   2.299   6.900   1.919
82670SOL    HW249785   2.349   6.964   1.791
82671SOL     OW49786   3.506   2.269   0.837
82671SOL    HW149787   3.497   2.364   0.827
82671SOL    HW249788   3.600   2.253   0.828
82672SOL     OW49789  10.371   1.029  14.093
82672SOL    HW149790  10.379   1.046  13.999
82672SOL    HW249791  10.276   1.029  14.109
82673SOL     OW49792   0.376   4.255   7.373
82673SOL    HW149793   0.295   4.236   7.421
82673SOL    HW249794   0.379   4.188   7.304
82674SOL     OW49795  13.870   5.364  10.334
82674SOL    HW149796  13.914   5.280  10.350
82674SOL    HW249797  13.940   5.429  10.335
82675SOL     OW49798   1.255   3.724  10.970
82675SOL    HW149799   1.266   3.777  10.891
82675SOL    HW249800   1.287   3.780  11.041
82676SOL     OW49801  10.851  11.714   3.432
82676SOL    HW149802  10.844  11.629   3.475
82676SOL    HW249803  10.914  11.700   3.361
82677SOL     OW49804   0.286   3.457   2.522
82677SOL    HW149805   0.319   3.371   2.546
82677SOL    HW249806   0.208   3.439   2.469
82678SOL     OW49807  12.552  13.070   8.310
82678SOL    HW149808  12.488  13.127   8.354
82678SOL    HW249809  12.498  13.010   8.258
82679SOL     OW49810  12.866   9.344   5.102
82679SOL    HW149811  12.789   9.291   5.123
82679SOL    HW249812  12.923   9.334   5.178
82680SOL     OW49813   6.352  14.524  12.172
82680SOL    HW149814   6.264  14.488  12.168
82680SOL    HW249815   6.363  14.551  12.263
82681SOL     OW49816  11.060   1.847   9.914
82681SOL    HW149817  11.057   1.841   9.819
82681SOL    HW249818  10.972   1.874   9.940
82682SOL     OW49819   4.835   3.313   1.210
82682SOL    HW149820   4.847   3.323   1.305
82682SOL    HW249821   4.901   3.370   1.171
82683SOL     OW49822   2.359   6.389   7.862
82683SOL    HW149823   2.376   6.318   7.923
82683SOL    HW249824   2.284   6.436   7.899
82684SOL     OW49825  11.685   8.025   6.422
82684SOL    HW149826  11.778   8.007   6.431
82684SOL    HW249827  11.657   8.052   6.510
82685SOL     OW49828   4.127   6.508   7.330
82685SOL    HW149829   4.175   6.587   7.305
82685SOL    HW249830   4.046   6.513   7.279
82686SOL     OW49831   6.881   2.808  11.792
82686SOL    HW149832   6.803   2.845  11.833
82686SOL    HW249833   6.943   2.797  11.865
82687SOL     OW49834   0.239  12.926   6.355
82687SOL    HW149835   0.226  12.832   6.341
82687SOL    HW249836   0.179  12.968   6.294
82688SOL     OW49837  12.920   5.888  13.467
82688SOL    HW149838  12.946   5.901  13.558
82688SOL    HW249839  12.839   5.938  13.457
82689SOL     OW49840  13.726   9.662   0.265
82689SOL    HW149841  13.781   9.611   0.325
82689SOL    HW249842  13.772   9.746   0.256
82690SOL     OW49843   0.332  10.341   1.327
82690SOL    HW149844   0.239  10.318   1.332
82690SOL    HW249845   0.362  10.340   1.418
82691SOL     OW49846   8.368   4.028   9.988
82691SOL    HW149847   8.293   4.018   9.929
82691SOL    HW249848   8.405   4.113   9.964
82692SOL     OW49849   9.717  13.978  13.616
82692SOL    HW149850   9.812  13.973  13.626
82692SOL    HW249851   9.682  13.960  13.703
82693SOL     OW49852   5.834   1.058   6.867
82693SOL    HW149853   5.901   1.082   6.803
82693SOL    HW249854   5.851   1.113   6.943
82694SOL     OW49855   3.878  12.042   9.573
82694SOL    HW149856   3.796  12.092   9.567
82694SOL    HW249857   3.894  12.034   9.667
82695SOL     OW49858   7.655  14.781  13.816
82695SOL    HW149859   7.702  14.716  13.764
82695SOL    HW249860   7.664  14.751  13.907
82696SOL     OW49861   7.788   0.119   4.613
82696SOL    HW149862   7.850   0.157   4.551
82696SOL    HW249863   7.838   0.107   4.694
82697SOL     OW49864   8.914  10.558   2.945
82697SOL    HW149865   8.990  10.499   2.950
82697SOL    HW249866   8.867  10.544   3.027
82698SOL     OW49867   6.568   2.707   7.494
82698SOL    HW149868   6.544   2.731   7.583
82698SOL    HW249869   6.664   2.704   7.495
82699SOL     OW49870   8.352  12.033   4.695
82699SOL    HW149871   8.430  12.087   4.706
82699SOL    HW249872   8.381  11.945   4.716
82700SOL     OW49873  14.456   3.643   7.998
82700SOL    HW149874  14.444   3.728   8.040
82700SOL    HW249875  14.406   3.582   8.052
82701SOL     OW49876   9.463   1.109   2.426
82701SOL    HW149877   9.498   1.130   2.512
82701SOL    HW249878   9.455   1.193   2.381
82702SOL     OW49879   0.309   5.027   5.258
82702SOL    HW149880   0.331   5.114   5.293
82702SOL    HW249881   0.393   4.982   5.251
82703SOL     OW49882  12.227   6.043   8.871
82703SOL    HW149883  12.314   6.051   8.832
82703SOL    HW249884  12.221   5.951   8.898
82704SOL     OW49885  11.813  12.854  14.631
82704SOL    HW149886  11.828  12.912  14.556
82704SOL    HW249887  11.739  12.893  14.678
82705SOL     OW49888  10.821   0.931  13.897
82705SOL    HW149889  10.750   0.948  13.959
82705SOL    HW249890  10.805   0.843  13.865
82706SOL     OW49891   9.935   3.332   8.936
82706SOL    HW149892   9.993   3.263   8.903
82706SOL    HW249893   9.968   3.349   9.025
82707SOL     OW49894   6.868  11.656   1.558
82707SOL    HW149895   6.891  11.571   1.521
82707SOL    HW249896   6.932  11.670   1.627
82708SOL     OW49897  11.624  11.759   4.453
82708SOL    HW149898  11.607  11.666   4.467
82708SOL    HW249899  11.684  11.762   4.379
82709SOL     OW49900  10.818   9.915   9.584
82709SOL    HW149901  10.867   9.903   9.502
82709SOL    HW249902  10.761   9.990   9.567
82710SOL     OW49903  14.127  12.181   8.789
82710SOL    HW149904  14.194  12.148   8.849
82710SOL    HW249905  14.176  12.223   8.719
82711SOL     OW49906  14.825  14.251  11.774
82711SOL    HW149907  14.781  14.219  11.853
82711SOL    HW249908   0.038  14.267  11.802
82712SOL     OW49909   2.613  12.399   8.425
82712SOL    HW149910   2.690  12.452   8.446
82712SOL    HW249911   2.644  12.309   8.432
82713SOL     OW49912   5.923   3.141   8.298
82713SOL    HW149913   5.841   3.093   8.292
82713SOL    HW249914   5.905   3.212   8.359
82714SOL     OW49915   5.984  12.234   4.029
82714SOL    HW149916   5.901  12.198   3.999
82714SOL    HW249917   5.961  12.318   4.068
82715SOL     OW49918   7.734  10.410   1.557
82715SOL    HW149919   7.819  10.398   1.515
82715SOL    HW249920   7.707  10.499   1.531
82716SOL     OW49921   6.485  13.404   1.848
82716SOL    HW149922   6.497  13.357   1.766
82716SOL    HW249923   6.528  13.348   1.914
82717SOL     OW49924   6.413  10.009   1.573
82717SOL    HW149925   6.400   9.920   1.539
82717SOL    HW249926   6.401  10.066   1.497
82718SOL     OW49927   3.980  10.183  11.597
82718SOL    HW149928   4.036  10.114  11.633
82718SOL    HW249929   3.997  10.259  11.651
82719SOL     OW49930   9.876   4.735  12.398
82719SOL    HW149931   9.909   4.817  12.433
82719SOL    HW249932   9.950   4.675  12.405
82720SOL     OW49933  11.765   7.486   3.067
82720SOL    HW149934  11.703   7.450   3.130
82720SOL    HW249935  11.712   7.512   2.992
82721SOL     OW49936   1.307   6.363  10.178
82721SOL    HW149937   1.260   6.427  10.124
82721SOL    HW249938   1.296   6.396  10.268
82722SOL     OW49939   2.529  11.818   9.659
82722SOL    HW149940   2.574  11.734   9.665
82722SOL    HW249941   2.485  11.827   9.744
82723SOL     OW49942   0.609   5.828   9.473
82723SOL    HW149943   0.643   5.840   9.384
82723SOL    HW249944   0.686   5.800   9.524
82724SOL     OW49945   4.927  14.114  11.186
82724SOL    HW149946   4.884  14.132  11.102
82724SOL    HW249947   5.015  14.151  11.176
82725SOL     OW49948  14.290  13.432   5.125
82725SOL    HW149949  14.195  13.429   5.137
82725SOL    HW249950  14.322  13.352   5.167
82726SOL     OW49951  14.159  11.537   4.712
82726SOL    HW149952  14.163  11.629   4.688
82726SOL    HW249953  14.120  11.494   4.636
82727SOL     OW49954   0.295  12.733  10.851
82727SOL    HW149955   0.220  12.754  10.795
82727SOL    HW249956   0.275  12.776  10.934
82728SOL     OW49957   4.543   8.822   4.074
82728SOL    HW149958   4.457   8.837   4.034
82728SOL    HW249959   4.577   8.745   4.028
82729SOL     OW49960   7.646   5.620  13.487
82729SOL    HW149961   7.734   5.617  13.525
82729SOL    HW249962   7.636   5.536  13.443
82730SOL     OW49963  13.736   8.990   6.420
82730SOL    HW149964  13.786   9.072   6.411
82730SOL    HW249965  13.791   8.924   6.378
82731SOL     OW49966   7.044  12.565   3.854
82731SOL    HW149967   7.089  12.572   3.938
82731SOL    HW249968   7.100  12.506   3.802
82732SOL     OW49969   5.752   0.073   2.630
82732SOL    HW149970   5.743   0.160   2.669
82732SOL    HW249971   5.846   0.059   2.624
82733SOL     OW49972   7.397   0.133   6.472
82733SOL    HW149973   7.367   0.046   6.445
82733SOL    HW249974   7.367   0.191   6.403
82734SOL     OW49975  12.941   6.326   1.180
82734SOL    HW149976  12.881   6.393   1.147
82734SOL    HW249977  12.968   6.360   1.266
82735SOL     OW49978   4.896   8.217  12.136
82735SOL    HW149979   4.890   8.206  12.231
82735SOL    HW249980   4.980   8.179  12.113
82736SOL     OW49981  10.553   3.657  13.966
82736SOL    HW149982  10.510   3.740  13.944
82736SOL    HW249983  10.483   3.603  14.005
82737SOL     OW49984   9.924  13.787  13.369
82737SOL    HW149985   9.926  13.808  13.462
82737SOL    HW249986  10.012  13.756  13.349
82738SOL     OW49987  11.470   0.926   7.327
82738SOL    HW149988  11.457   0.946   7.235
82738SOL    HW249989  11.552   0.970   7.350
82739SOL     OW49990   5.084   8.823   3.726
82739SOL    HW149991   5.173   8.860   3.721
82739SOL    HW249992   5.027   8.897   3.705
82740SOL     OW49993  10.423  12.292  12.148
82740SOL    HW149994  10.496  12.233  12.166
82740SOL    HW249995  10.465  12.378  12.135
82741SOL     OW49996   4.332  11.723   0.678
82741SOL    HW149997   4.321  11.676   0.595
82741SOL    HW249998   4.247  11.713   0.722
82742SOL     OW49999   4.262   5.109  12.367
82742SOL    HW150000   4.193   5.045  12.349
82742SOL    HW250001   4.268   5.161  12.287
82743SOL     OW50002  11.137  14.483   1.112
82743SOL    HW150003  11.213  14.448   1.065
82743SOL    HW250004  11.169  14.561   1.156
82744SOL     OW50005   3.300   0.144  12.832
82744SOL    HW150006   3.289   0.134  12.926
82744SOL    HW250007   3.262   0.065  12.794
82745SOL     OW50008   4.292   9.050  11.781
82745SOL    HW150009   4.253   9.109  11.845
82745SOL    HW250010   4.386   9.054  11.799
82746SOL     OW50011   1.827   8.577   6.247
82746SOL    HW150012   1.786   8.515   6.187
82746SOL    HW250013   1.827   8.660   6.199
82747SOL     OW50014   4.893   8.692   4.949
82747SOL    HW150015   4.988   8.700   4.954
82747SOL    HW250016   4.869   8.737   4.868
82748SOL     OW50017  11.849  12.000   3.151
82748SOL    HW150018  11.765  12.036   3.180
82748SOL    HW250019  11.852  11.913   3.190
82749SOL     OW50020   0.019  11.953   2.915
82749SOL    HW150021  14.810  11.966   2.878
82749SOL    HW250022   0.079  12.001   2.857
82750SOL     OW50023   7.097  11.317  10.966
82750SOL    HW150024   7.130  11.234  11.000
82750SOL    HW250025   7.059  11.295  10.881
82751SOL     OW50026  12.062  10.461   8.052
82751SOL    HW150027  12.144  10.468   8.101
82751SOL    HW250028  12.087  10.476   7.961
82752SOL     OW50029   3.044   4.159   7.273
82752SOL    HW150030   3.002   4.107   7.205
82752SOL    HW250031   2.975   4.218   7.304
82753SOL     OW50032  14.351   8.504   8.934
82753SOL    HW150033  14.390   8.449   9.003
82753SOL    HW250034  14.260   8.514   8.960
82754SOL     OW50035   5.106   7.411   1.640
82754SOL    HW150036   5.037   7.389   1.703
82754SOL    HW250037   5.186   7.415   1.693
82755SOL     OW50038  14.306  13.480   8.138
82755SOL    HW150039  14.401  13.476   8.146
82755SOL    HW250040  14.278  13.537   8.210
82756SOL     OW50041   0.786  10.721   0.558
82756SOL    HW150042   0.733  10.704   0.480
82756SOL    HW250043   0.742  10.671   0.627
82757SOL     OW50044   2.255   3.396   4.709
82757SOL    HW150045   2.233   3.312   4.748
82757SOL    HW250046   2.172   3.430   4.677
82758SOL     OW50047  10.315   0.718   8.564
82758SOL    HW150048  10.269   0.654   8.510
82758SOL    HW250049  10.407   0.711   8.536
82759SOL     OW50050   9.801  12.006   2.093
82759SOL    HW150051   9.844  12.064   2.156
82759SOL    HW250052   9.838  12.032   2.008
82760SOL     OW50053  12.144   7.593   7.129
82760SOL    HW150054  12.072   7.602   7.191
82760SOL    HW250055  12.214   7.647   7.164
82761SOL     OW50056   8.695   5.940   0.582
82761SOL    HW150057   8.765   5.989   0.539
82761SOL    HW250058   8.682   5.863   0.527
82762SOL     OW50059   8.013   9.020  11.094
82762SOL    HW150060   8.025   9.105  11.052
82762SOL    HW250061   8.099   9.000  11.131
82763SOL     OW50062   1.337  12.089   3.336
82763SOL    HW150063   1.307  12.180   3.337
82763SOL    HW250064   1.407  12.086   3.401
82764SOL     OW50065   4.602  12.906   4.050
82764SOL    HW150066   4.642  12.861   3.975
82764SOL    HW250067   4.629  12.854   4.126
82765SOL     OW50068   8.267   8.989   4.192
82765SOL    HW150069   8.202   9.035   4.139
82765SOL    HW250070   8.239   8.898   4.191
82766SOL     OW50071   7.604  13.187   3.328
82766SOL    HW150072   7.691  13.149   3.316
82766SOL    HW250073   7.597  13.254   3.261
82767SOL     OW50074  11.701   6.751   4.991
82767SOL    HW150075  11.742   6.823   4.943
82767SOL    HW250076  11.723   6.672   4.942
82768SOL     OW50077  11.161   0.928  12.625
82768SOL    HW150078  11.098   0.889  12.686
82768SOL    HW250079  11.214   0.985  12.679
82769SOL     OW50080  14.098   7.148  13.306
82769SOL    HW150081  14.127   7.211  13.372
82769SOL    HW250082  14.159   7.075  13.314
82770SOL     OW50083   0.596  13.255   4.482
82770SOL    HW150084   0.568  13.286   4.396
82770SOL    HW250085   0.583  13.161   4.479
82771SOL     OW50086   9.094  11.494   9.890
82771SOL    HW150087   9.044  11.466   9.813
82771SOL    HW250088   9.104  11.588   9.879
82772SOL     OW50089  10.370   8.275   4.687
82772SOL    HW150090  10.395   8.241   4.601
82772SOL    HW250091  10.305   8.212   4.719
82773SOL     OW50092   5.660  13.587   0.244
82773SOL    HW150093   5.749  13.553   0.246
82773SOL    HW250094   5.663  13.664   0.301
82774SOL     OW50095   2.445  11.198   4.171
82774SOL    HW150096   2.485  11.148   4.100
82774SOL    HW250097   2.463  11.146   4.250
82775SOL     OW50098   2.079  12.415  14.518
82775SOL    HW150099   2.125  12.437  14.599
82775SOL    HW250100   2.150  12.395  14.456
82776SOL     OW50101   7.366  13.435   3.426
82776SOL    HW150102   7.433  13.500   3.406
82776SOL    HW250103   7.329  13.412   3.341
82777SOL     OW50104   6.887   7.536  12.730
82777SOL    HW150105   6.847   7.570  12.650
82777SOL    HW250106   6.968   7.587  12.740
82778SOL     OW50107   0.299   7.186  14.047
82778SOL    HW150108   0.375   7.167  14.101
82778SOL    HW250109   0.333   7.239  13.975
82779SOL     OW50110  10.282  11.703   4.416
82779SOL    HW150111  10.288  11.793   4.383
82779SOL    HW250112  10.216  11.707   4.485
82780SOL     OW50113  10.874   3.591  13.421
82780SOL    HW150114  10.969   3.603  13.422
82780SOL    HW250115  10.844   3.639  13.344
82781SOL     OW50116   5.106   7.781   1.174
82781SOL    HW150117   5.058   7.699   1.159
82781SOL    HW250118   5.048   7.833   1.230
82782SOL     OW50119  12.575   6.323   4.949
82782SOL    HW150120  12.508   6.387   4.923
82782SOL    HW250121  12.653   6.375   4.966
82783SOL     OW50122   9.495   5.594   4.850
82783SOL    HW150123   9.558   5.522   4.846
82783SOL    HW250124   9.450   5.581   4.934
82784SOL     OW50125   5.447   0.467   0.833
82784SOL    HW150126   5.385   0.462   0.759
82784SOL    HW250127   5.408   0.410   0.900
82785SOL     OW50128  10.329  11.314   4.447
82785SOL    HW150129  10.339  11.351   4.535
82785SOL    HW250130  10.343  11.220   4.459
82786SOL     OW50131   9.129   2.505   8.392
82786SOL    HW150132   9.183   2.540   8.321
82786SOL    HW250133   9.105   2.583   8.443
82787SOL     OW50134   2.248  10.319   1.189
82787SOL    HW150135   2.159  10.354   1.182
82787SOL    HW250136   2.252  10.278   1.275
82788SOL     OW50137  14.524   4.316   0.190
82788SOL    HW150138  14.616   4.307   0.218
82788SOL    HW250139  14.508   4.410   0.191
82789SOL     OW50140  12.174   1.462   8.701
82789SOL    HW150141  12.142   1.483   8.789
82789SOL    HW250142  12.126   1.383   8.676
82790SOL     OW50143   3.636   5.084  10.238
82790SOL    HW150144   3.543   5.079  10.213
82790SOL    HW250145   3.669   4.996  10.224
82791SOL     OW50146   4.440   3.496   2.758
82791SOL    HW150147   4.387   3.562   2.714
82791SOL    HW250148   4.377   3.437   2.800
82792SOL     OW50149   6.651   9.493  11.933
82792SOL    HW150150   6.593   9.555  11.889
82792SOL    HW250151   6.717   9.548  11.975
82793SOL     OW50152   6.942   6.309  12.866
82793SOL    HW150153   6.983   6.387  12.830
82793SOL    HW250154   6.958   6.314  12.960
82794SOL     OW50155   4.284   4.291  10.680
82794SOL    HW150156   4.297   4.308  10.587
82794SOL    HW250157   4.202   4.335  10.702
82795SOL     OW50158  13.743   0.505   0.868
82795SOL    HW150159  13.804   0.493   0.796
82795SOL    HW250160  13.791   0.559   0.932
82796SOL     OW50161  13.307   2.931   8.915
82796SOL    HW150162  13.324   2.857   8.856
82796SOL    HW250163  13.220   2.963   8.890
82797SOL     OW50164  11.550  12.475   2.627
82797SOL    HW150165  11.586  12.563   2.637
82797SOL    HW250166  11.605  12.434   2.561
82798SOL     OW50167  14.408  14.032   9.700
82798SOL    HW150168  14.357  13.953   9.717
82798SOL    HW250169  14.378  14.095   9.766
82799SOL     OW50170   4.040  10.953  14.837
82799SOL    HW150171   4.010  11.031  14.790
82799SOL    HW250172   4.018  10.971   0.051
82800SOL     OW50173   1.320   5.539   3.762
82800SOL    HW150174   1.366   5.554   3.679
82800SOL    HW250175   1.272   5.458   3.749
82801SOL     OW50176   8.225  14.877  13.493
82801SOL    HW150177   8.317  14.876  13.522
82801SOL    HW250178   8.186   0.072  13.542
82802SOL     OW50179   9.875  14.558   7.292
82802SOL    HW150180   9.933  14.624   7.330
82802SOL    HW250181   9.787  14.597   7.298
82803SOL     OW50182  12.151  13.119   6.038
82803SOL    HW150183  12.214  13.179   6.075
82803SOL    HW250184  12.077  13.121   6.098
82804SOL     OW50185   6.749   3.869  12.460
82804SOL    HW150186   6.796   3.872  12.376
82804SOL    HW250187   6.760   3.779  12.490
82805SOL     OW50188  11.354   6.447  12.528
82805SOL    HW150189  11.277   6.498  12.504
82805SOL    HW250190  11.426   6.510  12.528
82806SOL     OW50191   0.124  12.823  10.679
82806SOL    HW150192   0.180  12.815  10.602
82806SOL    HW250193   0.099  12.916  10.681
82807SOL     OW50194   4.009   7.503   7.635
82807SOL    HW150195   4.023   7.434   7.700
82807SOL    HW250196   3.930   7.477   7.588
82808SOL     OW50197   9.976   4.558  12.717
82808SOL    HW150198  10.005   4.584  12.630
82808SOL    HW250199   9.979   4.639  12.769
82809SOL     OW50200   3.107   4.046   3.155
82809SOL    HW150201   3.145   4.095   3.228
82809SOL    HW250202   3.072   4.114   3.096
82810SOL     OW50203  14.627   0.010   4.219
82810SOL    HW150204  14.661  14.824   4.282
82810SOL    HW250205  14.664  14.861   4.135
82811SOL     OW50206  12.508  10.220   7.986
82811SOL    HW150207  12.426  10.170   7.979
82811SOL    HW250208  12.518  10.234   8.080
82812SOL     OW50209   0.780  11.809   6.151
82812SOL    HW150210   0.769  11.836   6.243
82812SOL    HW250211   0.854  11.862   6.120
82813SOL     OW50212   3.541   0.683   8.914
82813SOL    HW150213   3.500   0.623   8.852
82813SOL    HW250214   3.586   0.625   8.976
82814SOL     OW50215   8.132   5.195   8.138
82814SOL    HW150216   8.146   5.289   8.132
82814SOL    HW250217   8.069   5.185   8.209
82815SOL     OW50218  14.376  12.053   9.662
82815SOL    HW150219  14.284  12.029   9.655
82815SOL    HW250220  14.418  11.977   9.703
82816SOL     OW50221   3.737   4.094   4.933
82816SOL    HW150222   3.784   4.173   4.959
82816SOL    HW250223   3.802   4.024   4.938
82817SOL     OW50224   1.586  12.758  13.645
82817SOL    HW150225   1.677  12.765  13.674
82817SOL    HW250226   1.534  12.772  13.725
82818SOL     OW50227   9.256  11.528   1.685
82818SOL    HW150228   9.300  11.611   1.668
82818SOL    HW250229   9.307  11.487   1.755
82819SOL     OW50230  13.424   7.279   1.477
82819SOL    HW150231  13.456   7.363   1.510
82819SOL    HW250232  13.387   7.300   1.391
82820SOL     OW50233  13.115   0.099  10.882
82820SOL    HW150234  13.050   0.033  10.906
82820SOL    HW250235  13.198   0.052  10.879
82821SOL     OW50236   2.793   2.885   1.329
82821SOL    HW150237   2.756   2.818   1.272
82821SOL    HW250238   2.872   2.845   1.365
82822SOL     OW50239  13.352   7.619   0.650
82822SOL    HW150240  13.291   7.551   0.677
82822SOL    HW250241  13.334   7.633   0.557
82823SOL     OW50242   5.963   2.019  10.384
82823SOL    HW150243   6.002   1.935  10.408
82823SOL    HW250244   5.952   2.013  10.289
82824SOL     OW50245   9.790  12.189   0.472
82824SOL    HW150246   9.859  12.168   0.409
82824SOL    HW250247   9.737  12.109   0.476
82825SOL     OW50248   2.409   5.661   3.692
82825SOL    HW150249   2.496   5.641   3.727
82825SOL    HW250250   2.390   5.750   3.723
82826SOL     OW50251   1.283   6.029   4.197
82826SOL    HW150252   1.362   6.015   4.145
82826SOL    HW250253   1.307   6.098   4.259
82827SOL     OW50254  10.859   3.138   7.941
82827SOL    HW150255  10.817   3.162   8.023
82827SOL    HW250256  10.832   3.206   7.879
82828SOL     OW50257   3.116   5.505   7.343
82828SOL    HW150258   3.022   5.522   7.348
82828SOL    HW250259   3.143   5.544   7.260
82829SOL     OW50260   1.599   1.561   7.862
82829SOL    HW150261   1.654   1.637   7.880
82829SOL    HW250262   1.523   1.597   7.816
82830SOL     OW50263  11.478   0.947   3.700
82830SOL    HW150264  11.442   0.929   3.786
82830SOL    HW250265  11.422   0.899   3.639
82831SOL     OW50266   6.787   6.690   7.436
82831SOL    HW150267   6.837   6.756   7.388
82831SOL    HW250268   6.730   6.741   7.494
82832SOL     OW50269   7.521   9.753  14.120
82832SOL    HW150270   7.460   9.752  14.046
82832SOL    HW250271   7.588   9.817  14.095
82833SOL     OW50272  14.188  14.150   7.554
82833SOL    HW150273  14.183  14.246   7.555
82833SOL    HW250274  14.109  14.123   7.507
82834SOL     OW50275   2.181   5.492  11.529
82834SOL    HW150276   2.138   5.486  11.443
82834SOL    HW250277   2.216   5.581  11.532
82835SOL     OW50278   4.399   3.786   7.617
82835SOL    HW150279   4.390   3.860   7.678
82835SOL    HW250280   4.328   3.726   7.641
82836SOL     OW50281  13.194  12.366   9.136
82836SOL    HW150282  13.210  12.433   9.069
82836SOL    HW250283  13.216  12.409   9.219
82837SOL     OW50284   5.282  12.469   2.085
82837SOL    HW150285   5.212  12.526   2.052
82837SOL    HW250286   5.276  12.478   2.180
82838SOL     OW50287   9.918   4.599  14.283
82838SOL    HW150288   9.838   4.643  14.313
82838SOL    HW250289   9.888   4.533  14.221
82839SOL     OW50290   7.946  13.558   3.902
82839SOL    HW150291   7.911  13.472   3.876
82839SOL    HW250292   7.947  13.555   3.998
82840SOL     OW50293   9.920   9.015  12.363
82840SOL    HW150294   9.957   8.931  12.335
82840SOL    HW250295   9.908   9.064  12.282
82841SOL     OW50296   0.460  13.895   0.576
82841SOL    HW150297   0.488  13.986   0.566
82841SOL    HW250298   0.542  13.845   0.576
82842SOL     OW50299   7.666   2.019   4.918
82842SOL    HW150300   7.656   1.961   4.993
82842SOL    HW250301   7.590   2.001   4.863
82843SOL     OW50302   2.808  12.412   2.131
82843SOL    HW150303   2.801  12.505   2.114
82843SOL    HW250304   2.880  12.382   2.076
82844SOL     OW50305   4.745   0.812   9.572
82844SOL    HW150306   4.773   0.772   9.490
82844SOL    HW250307   4.824   0.818   9.624
82845SOL     OW50308  10.621   7.036   5.981
82845SOL    HW150309  10.561   6.973   5.941
82845SOL    HW250310  10.662   7.080   5.906
82846SOL     OW50311   2.577  14.701  10.848
82846SOL    HW150312   2.626  14.654  10.781
82846SOL    HW250313   2.644  14.750  10.896
82847SOL     OW50314   9.746   4.459  13.726
82847SOL    HW150315   9.799   4.383  13.703
82847SOL    HW250316   9.810   4.529  13.741
82848SOL     OW50317  10.492  10.848   4.344
82848SOL    HW150318  10.563  10.905   4.316
82848SOL    HW250319  10.488  10.780   4.276
82849SOL     OW50320  11.548  14.031  14.373
82849SOL    HW150321  11.607  13.971  14.328
82849SOL    HW250322  11.604  14.101  14.406
82850SOL     OW50323   9.974   3.364   3.180
82850SOL    HW150324   9.942   3.371   3.090
82850SOL    HW250325  10.016   3.448   3.197
82851SOL     OW50326   8.831   1.026   0.573
82851SOL    HW150327   8.875   1.013   0.490
82851SOL    HW250328   8.900   1.052   0.634
82852SOL     OW50329   9.365   5.775   3.438
82852SOL    HW150330   9.437   5.724   3.475
82852SOL    HW250331   9.296   5.710   3.420
82853SOL     OW50332   3.730   0.797  14.364
82853SOL    HW150333   3.727   0.714  14.412
82853SOL    HW250334   3.791   0.781  14.292
82854SOL     OW50335   6.281   0.678  13.102
82854SOL    HW150336   6.195   0.719  13.089
82854SOL    HW250337   6.283   0.607  13.037
82855SOL     OW50338  14.326  10.092   0.839
82855SOL    HW150339  14.304  10.154   0.908
82855SOL    HW250340  14.421  10.098   0.832
82856SOL     OW50341   0.963  12.233   3.397
82856SOL    HW150342   0.971  12.284   3.478
82856SOL    HW250343   0.932  12.147   3.425
82857SOL     OW50344   6.398   6.892  11.632
82857SOL    HW150345   6.389   6.966  11.572
82857SOL    HW250346   6.492   6.876  11.637
82858SOL     OW50347   1.936   3.370  14.847
82858SOL    HW150348   1.899   3.359   0.057
82858SOL    HW250349   1.897   3.300  14.795
82859SOL     OW50350   9.883  11.622   8.485
82859SOL    HW150351   9.803  11.573   8.505
82859SOL    HW250352   9.886  11.624   8.389
82860SOL     OW50353   5.360  13.247   2.293
82860SOL    HW150354   5.312  13.311   2.240
82860SOL    HW250355   5.309  13.240   2.374
82861SOL     OW50356  14.364  10.432  12.559
82861SOL    HW150357  14.390  10.344  12.533
82861SOL    HW250358  14.447  10.481  12.564
82862SOL     OW50359   7.326  11.896   0.621
82862SOL    HW150360   7.338  11.816   0.571
82862SOL    HW250361   7.409  11.943   0.612
82863SOL     OW50362   1.527  12.212   0.541
82863SOL    HW150363   1.455  12.168   0.586
82863SOL    HW250364   1.519  12.184   0.450
82864SOL     OW50365   5.503  13.722   5.955
82864SOL    HW150366   5.520  13.812   5.929
82864SOL    HW250367   5.581  13.694   6.002
82865SOL     OW50368  11.849   8.478   6.230
82865SOL    HW150369  11.794   8.399   6.236
82865SOL    HW250370  11.809   8.539   6.293
82866SOL     OW50371  12.270  10.562   1.986
82866SOL    HW150372  12.320  10.539   1.908
82866SOL    HW250373  12.231  10.647   1.966
82867SOL     OW50374   4.962   1.185   2.420
82867SOL    HW150375   5.055   1.180   2.401
82867SOL    HW250376   4.944   1.279   2.431
82868SOL     OW50377  13.606  14.412   8.389
82868SOL    HW150378  13.610  14.507   8.394
82868SOL    HW250379  13.561  14.394   8.307
82869SOL     OW50380   7.821  12.499  14.253
82869SOL    HW150381   7.742  12.445  14.249
82869SOL    HW250382   7.793  12.579  14.297
82870SOL     OW50383   0.638   6.214   9.172
82870SOL    HW150384   0.715   6.217   9.230
82870SOL    HW250385   0.569   6.258   9.223
82871SOL     OW50386   7.692   1.125  10.538
82871SOL    HW150387   7.681   1.165  10.452
82871SOL    HW250388   7.766   1.172  10.577
82872SOL     OW50389   0.425   6.625   7.163
82872SOL    HW150390   0.491   6.561   7.189
82872SOL    HW250391   0.386   6.588   7.084
82873SOL     OW50392   2.764   0.385   7.266
82873SOL    HW150393   2.812   0.306   7.239
82873SOL    HW250394   2.832   0.453   7.271
82874SOL     OW50395   5.380   2.392  13.947
82874SOL    HW150396   5.467   2.427  13.969
82874SOL    HW250397   5.319   2.451  13.991
82875SOL     OW50398  14.422   2.381  13.893
82875SOL    HW150399  14.496   2.356  13.837
82875SOL    HW250400  14.385   2.459  13.851
82876SOL     OW50401   8.769   8.267   5.913
82876SOL    HW150402   8.683   8.302   5.938
82876SOL    HW250403   8.832   8.329   5.950
82877SOL     OW50404   3.927  11.601   1.816
82877SOL    HW150405   3.874  11.597   1.895
82877SOL    HW250406   3.898  11.681   1.772
82878SOL     OW50407   9.420   8.721  10.657
82878SOL    HW150408   9.399   8.686  10.743
82878SOL    HW250409   9.357   8.792  10.644
82879SOL     OW50410   1.806   7.343   9.034
82879SOL    HW150411   1.885   7.301   9.002
82879SOL    HW250412   1.736   7.279   9.015
82880SOL     OW50413   5.417   2.999  13.125
82880SOL    HW150414   5.482   3.054  13.082
82880SOL    HW250415   5.339   3.055  13.133
82881SOL     OW50416   9.655  12.303   1.874
82881SOL    HW150417   9.683  12.303   1.966
82881SOL    HW250418   9.655  12.395   1.848
82882SOL     OW50419   5.866   6.154   3.221
82882SOL    HW150420   5.847   6.205   3.299
82882SOL    HW250421   5.958   6.173   3.201
82883SOL     OW50422  14.348   7.889   3.707
82883SOL    HW150423  14.309   7.852   3.628
82883SOL    HW250424  14.419   7.829   3.730
82884SOL     OW50425   8.634   5.233   2.612
82884SOL    HW150426   8.662   5.194   2.694
82884SOL    HW250427   8.712   5.278   2.579
82885SOL     OW50428  12.431  12.279   6.191
82885SOL    HW150429  12.383  12.269   6.273
82885SOL    HW250430  12.457  12.189   6.167
82886SOL     OW50431   2.524   5.831   3.206
82886SOL    HW150432   2.543   5.765   3.273
82886SOL    HW250433   2.476   5.899   3.252
82887SOL     OW50434  10.060  12.269   5.945
82887SOL    HW150435  10.024  12.181   5.956
82887SOL    HW250436  10.004  12.309   5.879
82888SOL     OW50437   9.502   3.951   1.310
82888SOL    HW150438   9.554   3.993   1.378
82888SOL    HW250439   9.566   3.927   1.242
82889SOL     OW50440   6.182   0.215  11.954
82889SOL    HW150441   6.151   0.124  11.947
82889SOL    HW250442   6.195   0.228  12.048
82890SOL     OW50443   5.223   3.604   4.153
82890SOL    HW150444   5.195   3.652   4.231
82890SOL    HW250445   5.308   3.567   4.176
82891SOL     OW50446   7.167   9.648  13.751
82891SOL    HW150447   7.217   9.633  13.671
82891SOL    HW250448   7.092   9.699  13.724
82892SOL     OW50449   7.544  13.539  12.601
82892SOL    HW150450   7.522  13.632  12.608
82892SOL    HW250451   7.617  13.537  12.539
82893SOL     OW50452   2.639   5.748   8.791
82893SOL    HW150453   2.556   5.761   8.838
82893SOL    HW250454   2.688   5.688   8.846
82894SOL     OW50455   8.625   6.810   6.899
82894SOL    HW150456   8.703   6.769   6.864
82894SOL    HW250457   8.618   6.775   6.988
82895SOL     OW50458   2.375   1.689  10.103
82895SOL    HW150459   2.378   1.595  10.083
82895SOL    HW250460   2.282   1.708  10.116
82896SOL     OW50461  14.271   6.453  10.435
82896SOL    HW150462  14.335   6.455  10.364
82896SOL    HW250463  14.221   6.534  10.424
82897SOL     OW50464  12.912  13.929  10.444
82897SOL    HW150465  13.003  13.926  10.413
82897SOL    HW250466  12.910  13.869  10.519
82898SOL     OW50467   2.804  14.188   8.113
82898SOL    HW150468   2.723  14.205   8.161
82898SOL    HW250469   2.818  14.093   8.122
82899SOL     OW50470   9.480   1.623   0.520
82899SOL    HW150471   9.519   1.666   0.444
82899SOL    HW250472   9.539   1.643   0.592
82900SOL     OW50473   1.971   7.187   4.989
82900SOL    HW150474   1.945   7.274   4.959
82900SOL    HW250475   1.888   7.141   5.002
82901SOL     OW50476   5.272   6.596   1.069
82901SOL    HW150477   5.180   6.591   1.095
82901SOL    HW250478   5.312   6.518   1.108
82902SOL     OW50479   3.639  10.507   1.057
82902SOL    HW150480   3.560  10.499   1.002
82902SOL    HW250481   3.620  10.453   1.134
82903SOL     OW50482   9.024   7.631  11.219
82903SOL    HW150483   9.030   7.550  11.168
82903SOL    HW250484   9.110   7.638  11.262
82904SOL     OW50485   6.271   5.068   7.863
82904SOL    HW150486   6.186   5.057   7.820
82904SOL    HW250487   6.333   5.080   7.791
82905SOL     OW50488   6.399   7.242   5.197
82905SOL    HW150489   6.450   7.259   5.276
82905SOL    HW250490   6.327   7.186   5.227
82906SOL     OW50491   5.594  14.055  12.372
82906SOL    HW150492   5.500  14.041  12.356
82906SOL    HW250493   5.629  13.968  12.391
82907SOL     OW50494   4.780   6.577   0.376
82907SOL    HW150495   4.691   6.569   0.340
82907SOL    HW250496   4.818   6.490   0.363
82908SOL     OW50497   8.855   6.775   7.350
82908SOL    HW150498   8.875   6.812   7.264
82908SOL    HW250499   8.893   6.688   7.349
82909SOL     OW50500   5.086   0.159   1.244
82909SOL    HW150501   5.082   0.073   1.200
82909SOL    HW250502   4.994   0.187   1.249
82910SOL     OW50503   2.459   1.222   0.381
82910SOL    HW150504   2.497   1.266   0.305
82910SOL    HW250505   2.381   1.178   0.346
82911SOL     OW50506   1.727   5.606  10.089
82911SOL    HW150507   1.669   5.554  10.145
82911SOL    HW250508   1.790   5.645  10.150
82912SOL     OW50509   6.829   8.346  14.432
82912SOL    HW150510   6.884   8.400  14.489
82912SOL    HW250511   6.743   8.388  14.435
82913SOL     OW50512   3.212   9.202   4.258
82913SOL    HW150513   3.139   9.162   4.210
82913SOL    HW250514   3.269   9.236   4.189
82914SOL     OW50515   5.355   7.033   8.548
82914SOL    HW150516   5.306   6.951   8.558
82914SOL    HW250517   5.398   7.046   8.632
82915SOL     OW50518   9.497  10.121   7.391
82915SOL    HW150519   9.433  10.113   7.462
82915SOL    HW250520   9.461  10.189   7.334
82916SOL     OW50521  10.778  11.718  12.335
82916SOL    HW150522  10.844  11.754  12.276
82916SOL    HW250523  10.752  11.793  12.390
82917SOL     OW50524   2.233  11.023   8.548
82917SOL    HW150525   2.225  10.947   8.491
82917SOL    HW250526   2.169  11.007   8.618
82918SOL     OW50527   2.827  12.890   3.707
82918SOL    HW150528   2.918  12.896   3.735
82918SOL    HW250529   2.828  12.828   3.635
82919SOL     OW50530   6.035  13.127   3.493
82919SOL    HW150531   6.029  13.214   3.531
82919SOL    HW250532   6.105  13.134   3.428
82920SOL     OW50533   8.268   5.660   0.829
82920SOL    HW150534   8.174   5.671   0.813
82920SOL    HW250535   8.309   5.728   0.775
82921SOL     OW50536   7.061  10.857  12.904
82921SOL    HW150537   7.076  10.906  12.822
82921SOL    HW250538   6.974  10.885  12.932
82922SOL     OW50539   1.009   4.640   8.444
82922SOL    HW150540   0.989   4.657   8.352
82922SOL    HW250541   0.951   4.568   8.468
82923SOL     OW50542   5.189  14.280   7.816
82923SOL    HW150543   5.157  14.312   7.732
82923SOL    HW250544   5.283  14.300   7.815
82924SOL     OW50545  14.601   2.746   5.430
82924SOL    HW150546  14.540   2.805   5.385
82924SOL    HW250547  14.687   2.768   5.393
82925SOL     OW50548   1.927   4.865   8.192
82925SOL    HW150549   1.846   4.825   8.160
82925SOL    HW250550   1.979   4.879   8.112
82926SOL     OW50551   4.644   8.214   7.062
82926SOL    HW150552   4.639   8.302   7.025
82926SOL    HW250553   4.717   8.172   7.015
82927SOL     OW50554   1.651   9.153   8.606
82927SOL    HW150555   1.633   9.089   8.674
82927SOL    HW250556   1.569   9.202   8.596
82928SOL     OW50557   4.036   8.797   2.969
82928SOL    HW150558   3.984   8.868   2.932
82928SOL    HW250559   4.094   8.840   3.031
82929SOL     OW50560   7.663   5.900   7.544
82929SOL    HW150561   7.748   5.914   7.502
82929SOL    HW250562   7.635   5.987   7.571
82930SOL     OW50563  14.519  13.887   4.811
82930SOL    HW150564  14.512  13.915   4.902
82930SOL    HW250565  14.591  13.824   4.811
82931SOL     OW50566  11.525  10.119   3.507
82931SOL    HW150567  11.529  10.084   3.596
82931SOL    HW250568  11.609  10.161   3.493
82932SOL     OW50569   3.942  12.865  13.571
82932SOL    HW150570   4.001  12.842  13.642
82932SOL    HW250571   3.865  12.810  13.584
82933SOL     OW50572  14.785   8.057   6.476
82933SOL    HW150573  14.773   8.138   6.525
82933SOL    HW250574  14.706   8.006   6.493
82934SOL     OW50575  11.628   0.658   5.340
82934SOL    HW150576  11.708   0.654   5.394
82934SOL    HW250577  11.588   0.742   5.363
82935SOL     OW50578   2.588   6.527  11.795
82935SOL    HW150579   2.583   6.442  11.750
82935SOL    HW250580   2.650   6.578  11.743
82936SOL     OW50581   0.451  12.359  13.116
82936SOL    HW150582   0.400  12.350  13.196
82936SOL    HW250583   0.475  12.452  13.112
82937SOL     OW50584   0.100   8.346   8.475
82937SOL    HW150585   0.100   8.261   8.519
82937SOL    HW250586   0.028   8.341   8.412
82938SOL     OW50587   1.109   5.116   5.882
82938SOL    HW150588   1.141   5.183   5.942
82938SOL    HW250589   1.047   5.162   5.825
82939SOL     OW50590  13.473  14.579  14.288
82939SOL    HW150591  13.508  14.602  14.374
82939SOL    HW250592  13.404  14.515  14.306
82940SOL     OW50593  13.883   0.835  12.382
82940SOL    HW150594  13.934   0.889  12.321
82940SOL    HW250595  13.818   0.792  12.326
82941SOL     OW50596  13.682   5.231   1.007
82941SOL    HW150597  13.639   5.269   0.931
82941SOL    HW250598  13.776   5.243   0.990
82942SOL     OW50599   7.862   2.542   3.648
82942SOL    HW150600   7.773   2.508   3.642
82942SOL    HW250601   7.858   2.630   3.610
82943SOL     OW50602   8.105   7.145  13.232
82943SOL    HW150603   8.078   7.055  13.212
82943SOL    HW250604   8.173   7.164  13.167
82944SOL     OW50605  10.658   2.257  12.082
82944SOL    HW150606  10.751   2.278  12.074
82944SOL    HW250607  10.613   2.338  12.060
82945SOL     OW50608  14.439   5.906   3.489
82945SOL    HW150609  14.533   5.920   3.475
82945SOL    HW250610  14.404   5.893   3.401
82946SOL     OW50611   5.169  13.921   3.864
82946SOL    HW150612   5.182  14.013   3.889
82946SOL    HW250613   5.255  13.892   3.833
82947SOL     OW50614   6.671   1.560  10.693
82947SOL    HW150615   6.766   1.547  10.693
82947SOL    HW250616   6.644   1.540  10.604
82948SOL     OW50617  13.887  11.873   1.943
82948SOL    HW150618  13.956  11.861   2.008
82948SOL    HW250619  13.894  11.797   1.885
82949SOL     OW50620  10.983   7.509   8.288
82949SOL    HW150621  10.909   7.452   8.308
82949SOL    HW250622  10.947   7.597   8.292
82950SOL     OW50623   8.879   6.888   3.592
82950SOL    HW150624   8.792   6.850   3.578
82950SOL    HW250625   8.874   6.931   3.677
82951SOL     OW50626  14.717   2.437   3.404
82951SOL    HW150627  14.657   2.368   3.375
82951SOL    HW250628  14.699   2.447   3.497
82952SOL     OW50629  13.014  13.498   6.132
82952SOL    HW150630  13.064  13.452   6.064
82952SOL    HW250631  12.923  13.493   6.101
82953SOL     OW50632   0.177   8.628  14.550
82953SOL    HW150633   0.204   8.540  14.576
82953SOL    HW250634   0.093   8.615  14.506
82954SOL     OW50635   8.669   5.153   1.848
82954SOL    HW150636   8.660   5.244   1.822
82954SOL    HW250637   8.706   5.109   1.771
82955SOL     OW50638   4.928  12.471   4.747
82955SOL    HW150639   4.976  12.514   4.818
82955SOL    HW250640   4.941  12.377   4.762
82956SOL     OW50641   4.163  10.777   4.249
82956SOL    HW150642   4.176  10.707   4.186
82956SOL    HW250643   4.117  10.845   4.200
82957SOL     OW50644   5.702   0.538   4.324
82957SOL    HW150645   5.620   0.577   4.293
82957SOL    HW250646   5.698   0.546   4.419
82958SOL     OW50647   1.755   4.815  10.513
82958SOL    HW150648   1.691   4.802  10.583
82958SOL    HW250649   1.738   4.743  10.452
82959SOL     OW50650   5.378   9.158   5.100
82959SOL    HW150651   5.384   9.238   5.151
82959SOL    HW250652   5.469   9.134   5.082
82960SOL     OW50653   8.928   9.684   4.394
82960SOL    HW150654   9.015   9.644   4.392
82960SOL    HW250655   8.869   9.611   4.413
82961SOL     OW50656   3.492   0.737   2.737
82961SOL    HW150657   3.541   0.702   2.811
82961SOL    HW250658   3.520   0.684   2.662
82962SOL     OW50659   1.630   4.809  13.972
82962SOL    HW150660   1.662   4.875  14.033
82962SOL    HW250661   1.632   4.853  13.887
82963SOL     OW50662   5.114   1.222   1.272
82963SOL    HW150663   5.130   1.135   1.308
82963SOL    HW250664   5.045   1.259   1.327
82964SOL     OW50665   7.170  14.094   0.320
82964SOL    HW150666   7.259  14.086   0.352
82964SOL    HW250667   7.146  14.006   0.292
82965SOL     OW50668   7.214   7.939  10.552
82965SOL    HW150669   7.188   8.022  10.513
82965SOL    HW250670   7.186   7.945  10.643
82966SOL     OW50671  10.079  10.788   4.434
82966SOL    HW150672  10.141  10.725   4.469
82966SOL    HW250673  10.005  10.735   4.404
82967SOL     OW50674   2.444   9.550   4.182
82967SOL    HW150675   2.414   9.528   4.093
82967SOL    HW250676   2.519   9.608   4.168
82968SOL     OW50677  11.260   1.748   9.438
82968SOL    HW150678  11.356   1.750   9.436
82968SOL    HW250679  11.239   1.716   9.526
82969SOL     OW50680   0.344   5.914   8.424
82969SOL    HW150681   0.435   5.893   8.402
82969SOL    HW250682   0.351   5.988   8.485
82970SOL     OW50683   1.712   1.580   0.869
82970SOL    HW150684   1.618   1.589   0.853
82970SOL    HW250685   1.720   1.498   0.918
82971SOL     OW50686   2.025   6.726   8.522
82971SOL    HW150687   2.037   6.821   8.520
82971SOL    HW250688   2.109   6.692   8.491
82972SOL     OW50689  10.473  12.427   3.838
82972SOL    HW150690  10.440  12.453   3.752
82972SOL    HW250691  10.440  12.495   3.897
82973SOL     OW50692   2.874   5.307   5.701
82973SOL    HW150693   2.813   5.324   5.773
82973SOL    HW250694   2.954   5.278   5.744
82974SOL     OW50695   3.766  14.417   2.439
82974SOL    HW150696   3.775  14.506   2.404
82974SOL    HW250697   3.706  14.425   2.513
82975SOL     OW50698  11.415  10.848   0.779
82975SOL    HW150699  11.431  10.919   0.717
82975SOL    HW250700  11.502  10.812   0.797
82976SOL     OW50701  13.851   4.324   6.008
82976SOL    HW150702  13.869   4.248   6.064
82976SOL    HW250703  13.762   4.349   6.029
82977SOL     OW50704   7.888   4.828   6.341
82977SOL    HW150705   7.846   4.897   6.289
82977SOL    HW250706   7.874   4.749   6.289
82978SOL     OW50707   0.424  14.241   8.416
82978SOL    HW150708   0.412  14.238   8.511
82978SOL    HW250709   0.492  14.176   8.398
82979SOL     OW50710   6.263  14.591   1.533
82979SOL    HW150711   6.248  14.503   1.497
82979SOL    HW250712   6.216  14.649   1.474
82980SOL     OW50713   6.213  13.656   5.757
82980SOL    HW150714   6.265  13.698   5.827
82980SOL    HW250715   6.215  13.563   5.779
82981SOL     OW50716   6.896   2.818   6.586
82981SOL    HW150717   6.933   2.900   6.617
82981SOL    HW250718   6.881   2.767   6.666
82982SOL     OW50719  12.222   2.254   9.903
82982SOL    HW150720  12.145   2.243   9.847
82982SOL    HW250721  12.262   2.167   9.906
82983SOL     OW50722  10.873   8.281  11.310
82983SOL    HW150723  10.939   8.336  11.267
82983SOL    HW250724  10.915   8.196  11.319
82984SOL     OW50725   6.711  14.703  12.829
82984SOL    HW150726   6.726  14.772  12.893
82984SOL    HW250727   6.620  14.678  12.841
82985SOL     OW50728   0.230   3.919   3.233
82985SOL    HW150729   0.281   3.842   3.256
82985SOL    HW250730   0.176   3.937   3.311
82986SOL     OW50731   7.203   1.675   5.698
82986SOL    HW150732   7.191   1.666   5.792
82986SOL    HW250733   7.297   1.663   5.684
82987SOL     OW50734   3.934   9.017   6.692
82987SOL    HW150735   3.886   9.082   6.641
82987SOL    HW250736   3.885   9.010   6.773
82988SOL     OW50737   6.334   1.872  13.424
82988SOL    HW150738   6.356   1.782  13.449
82988SOL    HW250739   6.400   1.895  13.359
82989SOL     OW50740   2.526   6.626   4.192
82989SOL    HW150741   2.592   6.646   4.125
82989SOL    HW250742   2.534   6.531   4.206
82990SOL     OW50743  10.111   3.311   4.474
82990SOL    HW150744  10.131   3.387   4.529
82990SOL    HW250745  10.178   3.247   4.496
82991SOL     OW50746  10.053   3.985   9.965
82991SOL    HW150747  10.148   3.987   9.972
82991SOL    HW250748  10.028   3.898   9.996
82992SOL     OW50749  10.113  10.549  14.515
82992SOL    HW150750  10.043  10.525  14.454
82992SOL    HW250751  10.152  10.465  14.542
82993SOL     OW50752   7.021   5.921  13.068
82993SOL    HW150753   6.956   5.884  13.008
82993SOL    HW250754   6.981   6.002  13.100
82994SOL     OW50755   2.070   4.910   5.145
82994SOL    HW150756   2.073   4.975   5.216
82994SOL    HW250757   2.021   4.954   5.075
82995SOL     OW50758  13.281  10.200  14.366
82995SOL    HW150759  13.217  10.137  14.401
82995SOL    HW250760  13.363  10.151  14.362
82996SOL     OW50761   1.445   2.785   4.068
82996SOL    HW150762   1.473   2.803   3.978
82996SOL    HW250763   1.410   2.696   4.065
82997SOL     OW50764   7.831   8.557   0.040
82997SOL    HW150765   7.802   8.584  14.830
82997SOL    HW250766   7.837   8.638   0.090
82998SOL     OW50767  11.141  10.099   9.610
82998SOL    HW150768  11.192  10.133   9.684
82998SOL    HW250769  11.050  10.103   9.640
82999SOL     OW50770  14.437   5.109   8.830
82999SOL    HW150771  14.493   5.187   8.828
82999SOL    HW250772  14.464   5.060   8.752
83000SOL     OW50773   9.679   0.282   1.124
83000SOL    HW150774   9.621   0.350   1.092
83000SOL    HW250775   9.758   0.290   1.071
83001SOL     OW50776   1.569   5.202   3.216
83001SOL    HW150777   1.625   5.129   3.244
83001SOL    HW250778   1.543   5.179   3.127
83002SOL     OW50779  13.955   4.160  10.783
83002SOL    HW150780  13.978   4.093  10.848
83002SOL    HW250781  13.964   4.115  10.699
83003SOL     OW50782   7.305   1.742   7.974
83003SOL    HW150783   7.386   1.752   8.024
83003SOL    HW250784   7.266   1.661   8.007
83004SOL     OW50785   7.673   6.552   7.966
83004SOL    HW150786   7.758   6.572   8.006
83004SOL    HW250787   7.627   6.501   8.032
83005SOL     OW50788   3.297  11.514   1.371
83005SOL    HW150789   3.269  11.541   1.284
83005SOL    HW250790   3.218  11.480   1.413
83006SOL     OW50791   9.184  14.470   9.629
83006SOL    HW150792   9.205  14.461   9.536
83006SOL    HW250793   9.184  14.380   9.662
83007SOL     OW50794   6.654   9.953  14.648
83007SOL    HW150795   6.672   9.949  14.742
83007SOL    HW250796   6.644   9.861  14.622
83008SOL     OW50797   1.212   0.627  12.451
83008SOL    HW150798   1.246   0.679  12.524
83008SOL    HW250799   1.273   0.554  12.444
83009SOL     OW50800   1.156   6.167  13.847
83009SOL    HW150801   1.134   6.083  13.886
83009SOL    HW250802   1.251   6.165  13.836
83010SOL     OW50803   5.864  12.286   7.916
83010SOL    HW150804   5.772  12.259   7.905
83010SOL    HW250805   5.871  12.368   7.867
83011SOL     OW50806   8.457   6.068   1.945
83011SOL    HW150807   8.454   6.022   2.029
83011SOL    HW250808   8.472   5.999   1.880
83012SOL     OW50809  13.119   0.917   9.491
83012SOL    HW150810  13.186   0.942   9.556
83012SOL    HW250811  13.038   0.914   9.541
83013SOL     OW50812  13.551   3.522  11.747
83013SOL    HW150813  13.562   3.606  11.792
83013SOL    HW250814  13.481   3.478  11.794
83014SOL     OW50815   2.822  11.506   4.283
83014SOL    HW150816   2.841  11.414   4.301
83014SOL    HW250817   2.727  11.510   4.276
83015SOL     OW50818   1.922   2.019  12.708
83015SOL    HW150819   1.834   2.017  12.746
83015SOL    HW250820   1.908   2.000  12.615
83016SOL     OW50821   2.889  12.653   8.308
83016SOL    HW150822   2.872  12.622   8.397
83016SOL    HW250823   2.825  12.722   8.294
83017SOL     OW50824  10.825   3.834   1.706
83017SOL    HW150825  10.828   3.901   1.637
83017SOL    HW250826  10.916   3.814   1.725
83018SOL     OW50827   2.488   2.157  12.669
83018SOL    HW150828   2.488   2.246  12.704
83018SOL    HW250829   2.448   2.165  12.582
83019SOL     OW50830   3.815   9.517   8.487
83019SOL    HW150831   3.883   9.569   8.530
83019SOL    HW250832   3.854   9.494   8.402
83020SOL     OW50833   1.648  10.547   3.279
83020SOL    HW150834   1.726  10.595   3.308
83020SOL    HW250835   1.618  10.501   3.357
83021SOL     OW50836   2.544   5.710   6.681
83021SOL    HW150837   2.565   5.802   6.697
83021SOL    HW250838   2.626   5.663   6.695
83022SOL     OW50839  10.389  13.486   1.975
83022SOL    HW150840  10.463  13.428   1.955
83022SOL    HW250841  10.418  13.572   1.945
83023SOL     OW50842   6.150  12.764   7.904
83023SOL    HW150843   6.147  12.752   7.809
83023SOL    HW250844   6.244  12.771   7.924
83024SOL     OW50845   9.529   3.739  13.454
83024SOL    HW150846   9.526   3.828  13.488
83024SOL    HW250847   9.615   3.706  13.479
83025SOL     OW50848   9.791  14.227   5.078
83025SOL    HW150849   9.766  14.151   5.131
83025SOL    HW250850   9.830  14.287   5.141
83026SOL     OW50851  11.769  10.356   1.854
83026SOL    HW150852  11.846  10.326   1.806
83026SOL    HW250853  11.695  10.316   1.808
83027SOL     OW50854  13.466  11.230   4.839
83027SOL    HW150855  13.549  11.268   4.809
83027SOL    HW250856  13.445  11.278   4.920
83028SOL     OW50857  10.325   2.681   1.036
83028SOL    HW150858  10.294   2.758   0.988
83028SOL    HW250859  10.362   2.624   0.968
83029SOL     OW50860   7.247  14.055   1.528
83029SOL    HW150861   7.203  14.044   1.444
83029SOL    HW250862   7.183  14.100   1.584
83030SOL     OW50863   3.651  14.471   2.715
83030SOL    HW150864   3.597  14.392   2.722
83030SOL    HW250865   3.628  14.521   2.793
83031SOL     OW50866  13.103   7.252   0.839
83031SOL    HW150867  13.170   7.200   0.796
83031SOL    HW250868  13.118   7.342   0.809
83032SOL     OW50869  12.680   2.713  11.841
83032SOL    HW150870  12.668   2.648  11.772
83032SOL    HW250871  12.599   2.711  11.891
83033SOL     OW50872   3.139   5.689   0.215
83033SOL    HW150873   3.232   5.698   0.193
83033SOL    HW250874   3.139   5.631   0.292
83034SOL     OW50875  11.001   2.624  12.899
83034SOL    HW150876  10.931   2.559  12.895
83034SOL    HW250877  10.994   2.660  12.988
83035SOL     OW50878   8.642   3.303  10.233
83035SOL    HW150879   8.590   3.223  10.237
83035SOL    HW250880   8.633   3.342  10.320
83036SOL     OW50881   5.094   2.075  12.091
83036SOL    HW150882   5.186   2.048  12.086
83036SOL    HW250883   5.062   2.064  12.001
83037SOL     OW50884  11.126   7.790  12.565
83037SOL    HW150885  11.189   7.817  12.499
83037SOL    HW250886  11.041   7.807  12.525
83038SOL     OW50887   2.192  14.206   6.621
83038SOL    HW150888   2.261  14.259   6.581
83038SOL    HW250889   2.111  14.250   6.596
83039SOL     OW50890   5.049   0.246  11.169
83039SOL    HW150891   5.051   0.338  11.196
83039SOL    HW250892   5.126   0.237  11.112
83040SOL     OW50893   5.414   7.467   3.568
83040SOL    HW150894   5.500   7.488   3.606
83040SOL    HW250895   5.377   7.551   3.543
83041SOL     OW50896   2.493   8.410   2.600
83041SOL    HW150897   2.505   8.343   2.532
83041SOL    HW250898   2.575   8.460   2.598
83042SOL     OW50899   8.693   6.520   7.597
83042SOL    HW150900   8.744   6.585   7.646
83042SOL    HW250901   8.627   6.490   7.658
83043SOL     OW50902  11.967   9.621  12.244
83043SOL    HW150903  11.959   9.716  12.235
83043SOL    HW250904  12.052   9.600  12.206
83044SOL     OW50905   5.345  12.416   6.081
83044SOL    HW150906   5.367  12.474   6.154
83044SOL    HW250907   5.378  12.330   6.107
83045SOL     OW50908  14.339   7.728  14.629
83045SOL    HW150909  14.281   7.724  14.705
83045SOL    HW250910  14.281   7.752  14.556
83046SOL     OW50911  13.277   7.368  10.674
83046SOL    HW150912  13.292   7.427  10.601
83046SOL    HW250913  13.207   7.310  10.644
83047SOL     OW50914  12.534   3.295   4.900
83047SOL    HW150915  12.555   3.214   4.855
83047SOL    HW250916  12.595   3.298   4.974
83048SOL     OW50917   7.878   9.032   2.714
83048SOL    HW150918   7.820   9.099   2.679
83048SOL    HW250919   7.912   8.987   2.637
83049SOL     OW50920   8.492  11.552   1.772
83049SOL    HW150921   8.422  11.547   1.707
83049SOL    HW250922   8.492  11.466   1.814
83050SOL     OW50923   1.498   2.592   5.832
83050SOL    HW150924   1.415   2.559   5.798
83050SOL    HW250925   1.535   2.644   5.760
83051SOL     OW50926   5.331   1.188  13.336
83051SOL    HW150927   5.237   1.188  13.319
83051SOL    HW250928   5.358   1.278  13.321
83052SOL     OW50929   7.805   9.172  14.262
83052SOL    HW150930   7.806   9.265  14.237
83052SOL    HW250931   7.891   9.140  14.236
83053SOL     OW50932   7.508   9.850   7.145
83053SOL    HW150933   7.575   9.913   7.118
83053SOL    HW250934   7.531   9.828   7.236
83054SOL     OW50935  13.144  14.227   5.451
83054SOL    HW150936  13.087  14.279   5.394
83054SOL    HW250937  13.102  14.142   5.455
83055SOL     OW50938   7.382  14.750   4.920
83055SOL    HW150939   7.417  14.664   4.894
83055SOL    HW250940   7.375  14.745   5.015
83056SOL     OW50941   4.211  11.636   1.928
83056SOL    HW150942   4.147  11.613   1.861
83056SOL    HW250943   4.231  11.553   1.971
83057SOL     OW50944   3.243   1.640   2.826
83057SOL    HW150945   3.320   1.679   2.868
83057SOL    HW250946   3.170   1.696   2.855
83058SOL     OW50947  13.340  14.180   4.527
83058SOL    HW150948  13.285  14.101   4.528
83058SOL    HW250949  13.398  14.170   4.602
83059SOL     OW50950   4.331   2.281  11.207
83059SOL    HW150951   4.272   2.338  11.159
83059SOL    HW250952   4.274   2.221  11.256
83060SOL     OW50953   0.478   6.511   9.191
83060SOL    HW150954   0.533   6.492   9.267
83060SOL    HW250955   0.389   6.489   9.220
83061SOL     OW50956   8.647  13.017   0.778
83061SOL    HW150957   8.632  13.045   0.688
83061SOL    HW250958   8.598  13.080   0.831
83062SOL     OW50959  11.149   7.112   4.183
83062SOL    HW150960  11.164   7.204   4.162
83062SOL    HW250961  11.075   7.113   4.243
83063SOL     OW50962   0.419  11.560   2.042
83063SOL    HW150963   0.476  11.636   2.035
83063SOL    HW250964   0.331  11.597   2.046
83064SOL     OW50965   9.572   5.489   7.491
83064SOL    HW150966   9.531   5.419   7.541
83064SOL    HW250967   9.499   5.542   7.459
83065SOL     OW50968   3.845   6.624  12.406
83065SOL    HW150969   3.870   6.608  12.315
83065SOL    HW250970   3.912   6.685  12.439
83066SOL     OW50971  10.868   6.257   9.679
83066SOL    HW150972  10.885   6.343   9.640
83066SOL    HW250973  10.908   6.261   9.766
83067SOL     OW50974   8.553   9.986   6.706
83067SOL    HW150975   8.546   9.988   6.610
83067SOL    HW250976   8.547  10.078   6.732
83068SOL     OW50977   8.075  12.840  10.815
83068SOL    HW150978   7.987  12.861  10.848
83068SOL    HW250979   8.091  12.905  10.747
83069SOL     OW50980  13.318  14.868   2.859
83069SOL    HW150981  13.261   0.044   2.915
83069SOL    HW250982  13.394   0.046   2.843
83070SOL     OW50983  11.890   8.698   5.302
83070SOL    HW150984  11.809   8.698   5.353
83070SOL    HW250985  11.940   8.772   5.336
83071SOL     OW50986   9.082   3.793   4.935
83071SOL    HW150987   9.023   3.721   4.915
83071SOL    HW250988   9.168   3.752   4.946
83072SOL     OW50989   1.211  10.137   9.632
83072SOL    HW150990   1.143  10.070   9.644
83072SOL    HW250991   1.230  10.135   9.538
83073SOL     OW50992   3.155   9.092  13.197
83073SOL    HW150993   3.136   9.037  13.121
83073SOL    HW250994   3.207   9.164  13.162
83074SOL     OW50995  12.738   2.740   3.015
83074SOL    HW150996  12.727   2.707   3.105
83074SOL    HW250997  12.828   2.771   3.012
83075SOL     OW50998   6.976   9.097  12.049
83075SOL    HW150999   6.972   9.002  12.055
83075SOL    HW251000   6.890   9.128  12.079
83076SOL     OW51001   4.722   4.099   1.484
83076SOL    HW151002   4.708   4.186   1.448
83076SOL    HW251003   4.706   4.039   1.411
83077SOL     OW51004   5.359   2.182  13.754
83077SOL    HW151005   5.391   2.249  13.816
83077SOL    HW251006   5.389   2.212  13.669
83078SOL     OW51007   2.723   2.395   6.807
83078SOL    HW151008   2.719   2.472   6.750
83078SOL    HW251009   2.635   2.389   6.845
83079SOL     OW51010   4.278  14.527  14.045
83079SOL    HW151011   4.297  14.539  13.952
83079SOL    HW251012   4.218  14.452  14.047
83080SOL     OW51013   9.905  11.559   9.457
83080SOL    HW151014   9.832  11.498   9.455
83080SOL    HW251015   9.979  11.509   9.423
83081SOL     OW51016   6.331   6.807   4.941
83081SOL    HW151017   6.277   6.743   4.987
83081SOL    HW251018   6.401   6.756   4.901
83082SOL     OW51019  12.411  14.262  11.942
83082SOL    HW151020  12.347  14.218  11.886
83082SOL    HW251021  12.378  14.352  11.951
83083SOL     OW51022  14.329   9.220  12.899
83083SOL    HW151023  14.263   9.240  12.965
83083SOL    HW251024  14.291   9.147  12.849
83084SOL     OW51025   5.682   7.318   2.396
83084SOL    HW151026   5.735   7.289   2.470
83084SOL    HW251027   5.708   7.260   2.324
83085SOL     OW51028   2.385   9.792  11.985
83085SOL    HW151029   2.303   9.822  12.024
83085SOL    HW251030   2.426   9.871  11.950
83086SOL     OW51031   9.284   8.274  12.034
83086SOL    HW151032   9.227   8.283  12.111
83086SOL    HW251033   9.258   8.191  11.995
83087SOL     OW51034   3.914  11.349   7.136
83087SOL    HW151035   3.840  11.304   7.096
83087SOL    HW251036   3.912  11.321   7.228
83088SOL     OW51037   1.815   0.545  13.306
83088SOL    HW151038   1.835   0.503  13.222
83088SOL    HW251039   1.798   0.471  13.365
83089SOL     OW51040   1.037  10.555   5.786
83089SOL    HW151041   1.053  10.465   5.815
83089SOL    HW251042   0.945  10.571   5.803
83090SOL     OW51043   7.917  11.518  14.292
83090SOL    HW151044   7.954  11.524  14.380
83090SOL    HW251045   7.842  11.578  14.293
83091SOL     OW51046   0.091   8.083   4.548
83091SOL    HW151047   0.115   8.163   4.502
83091SOL    HW251048  14.876   8.070   4.527
83092SOL     OW51049   3.352   6.330   5.940
83092SOL    HW151050   3.267   6.328   5.984
83092SOL    HW251051   3.381   6.421   5.948
83093SOL     OW51052   7.548  12.627  11.913
83093SOL    HW151053   7.572  12.585  11.830
83093SOL    HW251054   7.599  12.708  11.915
83094SOL     OW51055  14.039   6.643   7.815
83094SOL    HW151056  14.130   6.660   7.841
83094SOL    HW251057  13.997   6.611   7.894
83095SOL     OW51058  11.994  11.418   0.105
83095SOL    HW151059  11.924  11.361   0.072
83095SOL    HW251060  12.074  11.373   0.081
83096SOL     OW51061   0.521   5.288   0.236
83096SOL    HW151062   0.480   5.364   0.277
83096SOL    HW251063   0.462   5.264   0.165
83097SOL     OW51064   5.723  11.798  10.438
83097SOL    HW151065   5.724  11.761  10.527
83097SOL    HW251066   5.662  11.742  10.390
83098SOL     OW51067  13.524   4.908   1.571
83098SOL    HW151068  13.455   4.957   1.527
83098SOL    HW251069  13.580   4.975   1.610
83099SOL     OW51070   1.234   9.404   2.067
83099SOL    HW151071   1.246   9.378   1.976
83099SOL    HW251072   1.151   9.364   2.092
83100SOL     OW51073  11.404  11.747  12.504
83100SOL    HW151074  11.357  11.675  12.461
83100SOL    HW251075  11.448  11.706  12.578
83101SOL     OW51076  10.977   0.869  11.891
83101SOL    HW151077  10.949   0.784  11.924
83101SOL    HW251078  11.052   0.850  11.834
83102SOL     OW51079   2.569   2.779   1.505
83102SOL    HW151080   2.489   2.826   1.481
83102SOL    HW251081   2.640   2.834   1.473
83103SOL     OW51082   1.075   4.026   8.418
83103SOL    HW151083   1.098   4.115   8.446
83103SOL    HW251084   1.029   4.039   8.335
83104SOL     OW51085   0.437   1.189   4.469
83104SOL    HW151086   0.394   1.145   4.396
83104SOL    HW251087   0.526   1.153   4.470
83105SOL     OW51088   9.077   1.550  12.878
83105SOL    HW151089   9.038   1.630  12.914
83105SOL    HW251090   9.105   1.500  12.955
83106SOL     OW51091   1.646   7.892   5.430
83106SOL    HW151092   1.684   7.974   5.461
83106SOL    HW251093   1.657   7.894   5.335
83107SOL     OW51094   7.180   9.285   3.596
83107SOL    HW151095   7.148   9.375   3.593
83107SOL    HW251096   7.275   9.293   3.605
83108SOL     OW51097   1.799   8.368   9.340
83108SOL    HW151098   1.844   8.451   9.361
83108SOL    HW251099   1.729   8.362   9.405
83109SOL     OW51100   6.940  10.202   6.134
83109SOL    HW151101   6.984  10.280   6.100
83109SOL    HW251102   6.870  10.237   6.190
83110SOL     OW51103   4.534   5.805   8.904
83110SOL    HW151104   4.528   5.728   8.847
83110SOL    HW251105   4.486   5.874   8.858
83111SOL     OW51106   3.707  11.482   4.951
83111SOL    HW151107   3.621  11.512   4.980
83111SOL    HW251108   3.696  11.387   4.940
83112SOL     OW51109  10.809   8.034  14.006
83112SOL    HW151110  10.845   8.099  14.066
83112SOL    HW251111  10.815   7.951  14.055
83113SOL     OW51112   9.930  14.447   6.413
83113SOL    HW151113  10.017  14.455   6.374
83113SOL    HW251114   9.945  14.403   6.496
83114SOL     OW51115  10.374  11.791  13.184
83114SOL    HW151116  10.440  11.848  13.223
83114SOL    HW251117  10.316  11.769  13.257
83115SOL     OW51118   2.678   5.733  12.799
83115SOL    HW151119   2.591   5.714  12.764
83115SOL    HW251120   2.674   5.825  12.826
83116SOL     OW51121   0.497   0.992  11.929
83116SOL    HW151122   0.434   1.057  11.961
83116SOL    HW251123   0.580   1.039  11.926
83117SOL     OW51124   1.048   0.394   2.842
83117SOL    HW151125   1.132   0.355   2.868
83117SOL    HW251126   1.068   0.486   2.824
83118SOL     OW51127  13.260   3.777   4.038
83118SOL    HW151128  13.308   3.710   3.989
83118SOL    HW251129  13.197   3.728   4.091
83119SOL     OW51130   3.347   0.585  13.301
83119SOL    HW151131   3.377   0.589  13.210
83119SOL    HW251132   3.408   0.524  13.343
83120SOL     OW51133   6.649   0.145   2.670
83120SOL    HW151134   6.585   0.208   2.637
83120SOL    HW251135   6.655   0.078   2.602
83121SOL     OW51136   4.341   1.201   2.155
83121SOL    HW151137   4.364   1.291   2.177
83121SOL    HW251138   4.389   1.147   2.218
83122SOL     OW51139   2.198   9.841   7.891
83122SOL    HW151140   2.109   9.833   7.924
83122SOL    HW251141   2.194   9.808   7.801
83123SOL     OW51142  14.829   0.522   3.391
83123SOL    HW151143  14.734   0.535   3.387
83123SOL    HW251144  14.865   0.588   3.333
83124SOL     OW51145   4.681   4.744   1.317
83124SOL    HW151146   4.666   4.798   1.239
83124SOL    HW251147   4.775   4.724   1.314
83125SOL     OW51148   6.971   9.650   8.757
83125SOL    HW151149   6.960   9.705   8.835
83125SOL    HW251150   6.890   9.600   8.751
83126SOL     OW51151   8.619   6.620  13.539
83126SOL    HW151152   8.679   6.608  13.612
83126SOL    HW251153   8.669   6.671  13.475
83127SOL     OW51154   9.732   8.346  11.418
83127SOL    HW151155   9.768   8.395  11.492
83127SOL    HW251156   9.722   8.257  11.450
83128SOL     OW51157   5.893  11.979   6.820
83128SOL    HW151158   5.944  11.901   6.795
83128SOL    HW251159   5.947  12.022   6.886
83129SOL     OW51160   7.970   0.792   6.279
83129SOL    HW151161   7.928   0.707   6.290
83129SOL    HW251162   7.984   0.799   6.184
83130SOL     OW51163  10.722  10.156   5.290
83130SOL    HW151164  10.726  10.067   5.255
83130SOL    HW251165  10.809  10.193   5.271
83131SOL     OW51166   2.692  13.922  12.573
83131SOL    HW151167   2.713  13.875  12.493
83131SOL    HW251168   2.774  13.927  12.622
83132SOL     OW51169   0.124   1.064   0.003
83132SOL    HW151170   0.206   1.081  14.834
83132SOL    HW251171   0.118   0.968   0.007
83133SOL     OW51172   4.182   1.948   0.784
83133SOL    HW151173   4.089   1.959   0.801
83133SOL    HW251174   4.201   1.857   0.808
83134SOL     OW51175  11.456   8.378   8.647
83134SOL    HW151176  11.445   8.304   8.586
83134SOL    HW251177  11.410   8.451   8.606
83135SOL     OW51178  10.824  10.879   1.275
83135SOL    HW151179  10.857  10.861   1.187
83135SOL    HW251180  10.732  10.852   1.271
83136SOL     OW51181   3.942   8.056   6.158
83136SOL    HW151182   3.877   7.987   6.154
83136SOL    HW251183   3.914   8.112   6.231
83137SOL     OW51184  11.837   0.034  12.021
83137SOL    HW151185  11.899   0.106  12.008
83137SOL    HW251186  11.884  14.849  12.076
83138SOL     OW51187  13.155   7.922   3.254
83138SOL    HW151188  13.240   7.966   3.245
83138SOL    HW251189  13.163   7.842   3.202
83139SOL     OW51190   6.747   7.769   4.428
83139SOL    HW151191   6.715   7.702   4.489
83139SOL    HW251192   6.779   7.720   4.353
83140SOL     OW51193   5.916   7.727   4.957
83140SOL    HW151194   5.923   7.753   4.865
83140SOL    HW251195   5.836   7.770   4.988
83141SOL     OW51196   2.855   3.985  11.675
83141SOL    HW151197   2.761   3.969  11.668
83141SOL    HW251198   2.864   4.080  11.668
83142SOL     OW51199   4.496   4.175   0.598
83142SOL    HW151200   4.498   4.148   0.506
83142SOL    HW251201   4.424   4.125   0.636
83143SOL     OW51202   7.904  14.135   2.649
83143SOL    HW151203   7.997  14.128   2.627
83143SOL    HW251204   7.886  14.230   2.649
83144SOL     OW51205   5.335  13.491   1.051
83144SOL    HW151206   5.371  13.575   1.081
83144SOL    HW251207   5.411  13.436   1.037
83145SOL     OW51208   8.841  12.035   5.420
83145SOL    HW151209   8.778  11.993   5.477
83145SOL    HW251210   8.879  12.105   5.474
83146SOL     OW51211   1.462  10.876   5.099
83146SOL    HW151212   1.459  10.886   5.003
83146SOL    HW251213   1.471  10.781   5.112
83147SOL     OW51214   5.272   3.198   2.941
83147SOL    HW151215   5.308   3.284   2.964
83147SOL    HW251216   5.295   3.186   2.849
83148SOL     OW51217  10.699   5.892   3.817
83148SOL    HW151218  10.616   5.864   3.857
83148SOL    HW251219  10.752   5.812   3.815
83149SOL     OW51220  12.666   1.499   3.243
83149SOL    HW151221  12.578   1.528   3.221
83149SOL    HW251222  12.690   1.439   3.173
83150SOL     OW51223   1.345  12.769  13.484
83150SOL    HW151224   1.386  12.769  13.570
83150SOL    HW251225   1.270  12.709  13.493
83151SOL     OW51226   2.961  12.305   0.947
83151SOL    HW151227   2.884  12.334   0.898
83151SOL    HW251228   3.000  12.236   0.893
83152SOL     OW51229  13.052  12.569   4.825
83152SOL    HW151230  13.052  12.524   4.740
83152SOL    HW251231  12.970  12.541   4.866
83153SOL     OW51232   1.994  13.987   1.606
83153SOL    HW151233   1.916  14.016   1.653
83153SOL    HW251234   2.067  14.011   1.663
83154SOL     OW51235   8.897   3.094   3.536
83154SOL    HW151236   8.898   3.166   3.599
83154SOL    HW251237   8.834   3.032   3.572
83155SOL     OW51238   2.549  10.378   6.766
83155SOL    HW151239   2.627  10.336   6.730
83155SOL    HW251240   2.581  10.461   6.801
83156SOL     OW51241   1.083   5.244   8.532
83156SOL    HW151242   1.000   5.291   8.534
83156SOL    HW251243   1.088   5.201   8.618
83157SOL     OW51244   2.054   9.008   5.902
83157SOL    HW151245   2.071   9.028   5.994
83157SOL    HW251246   2.119   9.060   5.854
83158SOL     OW51247   4.732   0.682   4.703
83158SOL    HW151248   4.819   0.720   4.713
83158SOL    HW251249   4.675   0.737   4.757
83159SOL     OW51250   7.639   0.943   9.108
83159SOL    HW151251   7.583   0.995   9.167
83159SOL    HW251252   7.687   1.009   9.057
83160SOL     OW51253   4.721   2.877   2.581
83160SOL    HW151254   4.670   2.805   2.544
83160SOL    HW251255   4.666   2.912   2.651
83161SOL     OW51256   6.569   9.600   8.575
83161SOL    HW151257   6.476   9.584   8.556
83161SOL    HW251258   6.576   9.695   8.584
83162SOL     OW51259   3.271   0.888   6.795
83162SOL    HW151260   3.189   0.922   6.758
83162SOL    HW251261   3.316   0.850   6.720
83163SOL     OW51262   8.333   4.777   4.625
83163SOL    HW151263   8.370   4.742   4.707
83163SOL    HW251264   8.278   4.707   4.592
83164SOL     OW51265   1.438  14.717   4.214
83164SOL    HW151266   1.402  14.760   4.292
83164SOL    HW251267   1.487  14.642   4.247
83165SOL     OW51268   7.713   8.391   7.486
83165SOL    HW151269   7.703   8.328   7.414
83165SOL    HW251270   7.631   8.440   7.486
83166SOL     OW51271   1.870   1.169  11.962
83166SOL    HW151272   1.843   1.101  12.024
83166SOL    HW251273   1.885   1.246  12.017
83167SOL     OW51274   0.333   5.826   4.630
83167SOL    HW151275   0.352   5.780   4.711
83167SOL    HW251276   0.249   5.791   4.600
83168SOL     OW51277  14.126  12.643   6.318
83168SOL    HW151278  14.063  12.601   6.377
83168SOL    HW251279  14.154  12.721   6.365
83169SOL     OW51280   9.494  14.365   7.627
83169SOL    HW151281   9.452  14.433   7.679
83169SOL    HW251282   9.576  14.347   7.672
83170SOL     OW51283   8.864   4.035  13.902
83170SOL    HW151284   8.792   4.051  13.840
83170SOL    HW251285   8.939   4.079  13.863
83171SOL     OW51286   1.572   7.102   2.473
83171SOL    HW151287   1.596   7.080   2.383
83171SOL    HW251288   1.513   7.032   2.500
83172SOL     OW51289   6.141   4.952   9.281
83172SOL    HW151290   6.115   5.035   9.240
83172SOL    HW251291   6.087   4.946   9.359
83173SOL     OW51292   5.862  13.870  10.686
83173SOL    HW151293   5.806  13.814  10.741
83173SOL    HW251294   5.894  13.938  10.745
83174SOL     OW51295  14.530   3.183   5.862
83174SOL    HW151296  14.572   3.097   5.863
83174SOL    HW251297  14.586   3.237   5.918
83175SOL     OW51298  11.292  14.419   7.797
83175SOL    HW151299  11.278  14.397   7.889
83175SOL    HW251300  11.270  14.339   7.750
83176SOL     OW51301   7.078  13.555  11.781
83176SOL    HW151302   7.153  13.516  11.826
83176SOL    HW251303   7.097  13.649  11.779
83177SOL     OW51304   0.694   5.324   9.012
83177SOL    HW151305   0.657   5.388   9.073
83177SOL    HW251306   0.661   5.239   9.043
83178SOL     OW51307   1.477   2.077  12.865
83178SOL    HW151308   1.404   2.102  12.808
83178SOL    HW251309   1.537   2.151  12.862
83179SOL     OW51310   5.645  13.330   7.599
83179SOL    HW151311   5.627  13.408   7.651
83179SOL    HW251312   5.688  13.270   7.660
83180SOL     OW51313   6.925   7.377   7.355
83180SOL    HW151314   6.829   7.379   7.347
83180SOL    HW251315   6.947   7.459   7.398
83181SOL     OW51316   7.292   7.438  14.540
83181SOL    HW151317   7.380   7.469  14.560
83181SOL    HW251318   7.249   7.431  14.625
83182SOL     OW51319  14.640   0.568   2.274
83182SOL    HW151320  14.719   0.552   2.222
83182SOL    HW251321  14.650   0.511   2.351
83183SOL     OW51322   2.558   2.465  10.031
83183SOL    HW151323   2.584   2.539  10.086
83183SOL    HW251324   2.627   2.459   9.965
83184SOL     OW51325   3.770   4.191   1.426
83184SOL    HW151326   3.841   4.234   1.377
83184SOL    HW251327   3.812   4.115   1.466
83185SOL     OW51328   3.031  12.545   9.920
83185SOL    HW151329   2.971  12.577   9.987
83185SOL    HW251330   3.102  12.609   9.919
83186SOL     OW51331   6.071   7.665  12.030
83186SOL    HW151332   6.081   7.570  12.037
83186SOL    HW251333   6.051   7.693  12.119
83187SOL     OW51334   4.551   7.648   1.600
83187SOL    HW151335   4.556   7.560   1.564
83187SOL    HW251336   4.576   7.705   1.527
83188SOL     OW51337   9.434   8.013   5.853
83188SOL    HW151338   9.477   7.930   5.832
83188SOL    HW251339   9.346   8.004   5.819
83189SOL     OW51340  10.399   2.199   5.131
83189SOL    HW151341  10.469   2.260   5.155
83189SOL    HW251342  10.439   2.141   5.066
83190SOL     OW51343  10.383   4.597   8.804
83190SOL    HW151344  10.381   4.666   8.870
83190SOL    HW251345  10.476   4.583   8.785
83191SOL     OW51346   8.512  12.399   4.021
83191SOL    HW151347   8.454  12.464   3.981
83191SOL    HW251348   8.600  12.431   4.002
83192SOL     OW51349   0.179   6.803  12.191
83192SOL    HW151350   0.161   6.840  12.104
83192SOL    HW251351   0.274   6.797  12.196
83193SOL     OW51352   3.478   7.898  13.928
83193SOL    HW151353   3.549   7.867  13.872
83193SOL    HW251354   3.412   7.828  13.923
83194SOL     OW51355  11.811  12.019   5.196
83194SOL    HW151356  11.859  11.973   5.265
83194SOL    HW251357  11.818  11.962   5.119
83195SOL     OW51358   3.223  12.121   3.025
83195SOL    HW151359   3.203  12.072   2.946
83195SOL    HW251360   3.159  12.193   3.025
83196SOL     OW51361  12.501  14.162  11.666
83196SOL    HW151362  12.548  14.232  11.711
83196SOL    HW251363  12.441  14.128  11.732
83197SOL     OW51364   8.615  10.964   4.081
83197SOL    HW151365   8.623  11.058   4.067
83197SOL    HW251366   8.635  10.925   3.996
83198SOL     OW51367   6.076   2.867   7.046
83198SOL    HW151368   6.142   2.806   7.080
83198SOL    HW251369   6.038   2.907   7.125
83199SOL     OW51370   3.910  13.776   7.387
83199SOL    HW151371   3.919  13.776   7.292
83199SOL    HW251372   3.917  13.684   7.412
83200SOL     OW51373   8.922  12.321  12.562
83200SOL    HW151374   8.954  12.283  12.644
83200SOL    HW251375   8.930  12.251  12.498
83201SOL     OW51376   7.289   8.223   7.518
83201SOL    HW151377   7.256   8.310   7.542
83201SOL    HW251378   7.238   8.163   7.572
83202SOL     OW51379  11.519   9.666   0.305
83202SOL    HW151380  11.537   9.644   0.214
83202SOL    HW251381  11.553   9.754   0.316
83203SOL     OW51382   1.939   2.673   1.468
83203SOL    HW151383   1.872   2.625   1.419
83203SOL    HW251384   2.021   2.629   1.445
83204SOL     OW51385   2.246   5.807   9.729
83204SOL    HW151386   2.327   5.846   9.696
83204SOL    HW251387   2.204   5.768   9.652
83205SOL     OW51388   2.795  10.772   4.792
83205SOL    HW151389   2.733  10.715   4.747
83205SOL    HW251390   2.842  10.816   4.722
83206SOL     OW51391  10.361  12.640  13.145
83206SOL    HW151392  10.434  12.694  13.115
83206SOL    HW251393  10.321  12.690  13.216
83207SOL     OW51394   7.061  12.164   3.821
83207SOL    HW151395   7.042  12.085   3.771
83207SOL    HW251396   7.150  12.188   3.797
83208SOL     OW51397   3.731  13.223   8.063
83208SOL    HW151398   3.679  13.295   8.099
83208SOL    HW251399   3.735  13.241   7.969
83209SOL     OW51400   9.382   1.495   8.703
83209SOL    HW151401   9.406   1.420   8.648
83209SOL    HW251402   9.444   1.564   8.678
83210SOL     OW51403  14.681   1.642   6.102
83210SOL    HW151404  14.650   1.680   6.185
83210SOL    HW251405  14.611   1.658   6.040
83211SOL     OW51406   1.904  14.760   6.949
83211SOL    HW151407   1.925  14.746   7.041
83211SOL    HW251408   1.810  14.779   6.948
83212SOL     OW51409   9.829  10.469   1.376
83212SOL    HW151410   9.760  10.415   1.338
83212SOL    HW251411   9.783  10.533   1.430
83213SOL     OW51412   6.833  12.234   4.299
83213SOL    HW151413   6.896  12.229   4.228
83213SOL    HW251414   6.765  12.294   4.267
83214SOL     OW51415   6.446   3.924   1.232
83214SOL    HW151416   6.451   3.987   1.160
83214SOL    HW251417   6.380   3.861   1.204
83215SOL     OW51418   6.198   3.078   2.172
83215SOL    HW151419   6.255   3.125   2.111
83215SOL    HW251420   6.178   3.143   2.240
83216SOL     OW51421   1.211   8.094   8.097
83216SOL    HW151422   1.146   8.126   8.035
83216SOL    HW251423   1.253   8.021   8.052
83217SOL     OW51424  13.843   6.484   9.944
83217SOL    HW151425  13.772   6.503   9.883
83217SOL    HW251426  13.909   6.440   9.890
83218SOL     OW51427   4.634   5.583   2.297
83218SOL    HW151428   4.706   5.544   2.347
83218SOL    HW251429   4.555   5.559   2.345
83219SOL     OW51430   5.310  11.524   5.362
83219SOL    HW151431   5.273  11.438   5.340
83219SOL    HW251432   5.338  11.515   5.453
83220SOL     OW51433   1.184   4.577  11.594
83220SOL    HW151434   1.113   4.541  11.542
83220SOL    HW251435   1.262   4.531  11.564
83221SOL     OW51436  14.443   0.649   9.111
83221SOL    HW151437  14.435   0.571   9.055
83221SOL    HW251438  14.530   0.684   9.091
83222SOL     OW51439   2.435   0.777  10.714
83222SOL    HW151440   2.502   0.784  10.782
83222SOL    HW251441   2.473   0.821  10.638
83223SOL     OW51442   9.410   2.874   8.626
83223SOL    HW151443   9.466   2.951   8.634
83223SOL    HW251444   9.438   2.831   8.546
83224SOL     OW51445   4.425   3.511   1.476
83224SOL    HW151446   4.474   3.591   1.489
83224SOL    HW251447   4.336   3.531   1.506
83225SOL     OW51448   7.085  12.003   5.789
83225SOL    HW151449   7.104  12.001   5.882
83225SOL    HW251450   7.012  11.942   5.778
83226SOL     OW51451   6.363  10.745  14.756
83226SOL    HW151452   6.378  10.654  14.782
83226SOL    HW251453   6.415  10.796  14.819
83227SOL     OW51454  10.230   6.274   6.786
83227SOL    HW151455  10.263   6.186   6.803
83227SOL    HW251456  10.185   6.267   6.702
83228SOL     OW51457   4.426  11.022  13.410
83228SOL    HW151458   4.522  11.025  13.414
83228SOL    HW251459   4.403  10.937  13.447
83229SOL     OW51460   0.104  13.089  14.264
83229SOL    HW151461   0.015  13.122  14.272
83229SOL    HW251462   0.148  13.120  14.343
83230SOL     OW51463   3.280  10.514   7.785
83230SOL    HW151464   3.187  10.498   7.774
83230SOL    HW251465   3.286  10.570   7.863
83231SOL     OW51466   6.607  13.655  10.717
83231SOL    HW151467   6.626  13.680  10.807
83231SOL    HW251468   6.665  13.711  10.664
83232SOL     OW51469   0.722  10.541   5.215
83232SOL    HW151470   0.655  10.597   5.254
83232SOL    HW251471   0.757  10.592   5.142
83233SOL     OW51472   3.323  10.873   2.930
83233SOL    HW151473   3.237  10.879   2.972
83233SOL    HW251474   3.318  10.934   2.857
83234SOL     OW51475   8.795  10.271   0.870
83234SOL    HW151476   8.736  10.325   0.817
83234SOL    HW251477   8.755  10.184   0.869
83235SOL     OW51478   3.982   1.530   2.649
83235SOL    HW151479   4.013   1.616   2.678
83235SOL    HW251480   3.911   1.549   2.588
83236SOL     OW51481   3.034  11.623   5.916
83236SOL    HW151482   3.001  11.637   5.828
83236SOL    HW251483   3.017  11.705   5.962
83237SOL     OW51484   5.579  14.530  10.400
83237SOL    HW151485   5.574  14.435  10.397
83237SOL    HW251486   5.627  14.549  10.481
83238SOL     OW51487  12.286  10.894   6.599
83238SOL    HW151488  12.320  10.958   6.662
83238SOL    HW251489  12.289  10.941   6.515
83239SOL     OW51490   7.006  11.975   0.219
83239SOL    HW151491   7.061  11.944   0.147
83239SOL    HW251492   6.929  12.012   0.175
83240SOL     OW51493   8.175   5.365   1.365
83240SOL    HW151494   8.192   5.362   1.459
83240SOL    HW251495   8.211   5.283   1.332
83241SOL     OW51496  10.915   5.921   9.147
83241SOL    HW151497  10.935   5.851   9.085
83241SOL    HW251498  10.958   5.998   9.111
83242SOL     OW51499   3.630  10.898  10.833
83242SOL    HW151500   3.605  10.985  10.801
83242SOL    HW251501   3.548  10.862  10.868
83243SOL     OW51502   3.274   8.812   7.272
83243SOL    HW151503   3.352   8.856   7.308
83243SOL    HW251504   3.262   8.735   7.327
83244SOL     OW51505  10.909  10.435  13.425
83244SOL    HW151506  10.877  10.456  13.338
83244SOL    HW251507  11.003  10.420  13.413
83245SOL     OW51508  10.547  14.323  14.322
83245SOL    HW151509  10.629  14.328  14.273
83245SOL    HW251510  10.574  14.323  14.414
83246SOL     OW51511  11.197   4.008  10.322
83246SOL    HW151512  11.189   4.091  10.370
83246SOL    HW251513  11.255   3.955  10.375
83247SOL     OW51514   7.218   3.225  13.265
83247SOL    HW151515   7.224   3.316  13.293
83247SOL    HW251516   7.156   3.185  13.327
83248SOL     OW51517   5.919   7.067   1.330
83248SOL    HW151518   6.013   7.081   1.338
83248SOL    HW251519   5.888   7.066   1.421
83249SOL     OW51520   1.714   1.729   2.882
83249SOL    HW151521   1.782   1.764   2.939
83249SOL    HW251522   1.757   1.657   2.835
83250SOL     OW51523  11.289   6.438  14.594
83250SOL    HW151524  11.312   6.357  14.548
83250SOL    HW251525  11.354   6.445  14.664
83251SOL     OW51526  14.078   7.209   2.546
83251SOL    HW151527  14.159   7.164   2.524
83251SOL    HW251528  14.062   7.268   2.472
83252SOL     OW51529   7.962   7.264   4.927
83252SOL    HW151530   8.030   7.230   4.985
83252SOL    HW251531   7.938   7.190   4.872
83253SOL     OW51532   6.183   7.540   5.432
83253SOL    HW151533   6.209   7.549   5.524
83253SOL    HW251534   6.171   7.445   5.420
83254SOL     OW51535   0.484  11.270   4.360
83254SOL    HW151536   0.545  11.324   4.310
83254SOL    HW251537   0.539  11.197   4.392
83255SOL     OW51538   9.454   6.836   0.733
83255SOL    HW151539   9.450   6.839   0.637
83255SOL    HW251540   9.504   6.757   0.753
83256SOL     OW51541   2.132   5.040   7.172
83256SOL    HW151542   2.185   5.084   7.238
83256SOL    HW251543   2.125   5.102   7.100
83257SOL     OW51544   9.464  10.612   5.445
83257SOL    HW151545   9.497  10.640   5.360
83257SOL    HW251546   9.502  10.525   5.458
83258SOL     OW51547   8.759   9.991  12.887
83258SOL    HW151548   8.778   9.921  12.950
83258SOL    HW251549   8.734  10.066  12.941
83259SOL     OW51550   6.741   5.761   2.839
83259SOL    HW151551   6.818   5.798   2.796
83259SOL    HW251552   6.734   5.672   2.803
83260SOL     OW51553   7.200  10.970   9.948
83260SOL    HW151554   7.183  11.061   9.973
83260SOL    HW251555   7.124  10.944   9.897
83261SOL     OW51556   2.697  11.704   6.472
83261SOL    HW151557   2.714  11.798   6.468
83261SOL    HW251558   2.784  11.664   6.477
83262SOL     OW51559   8.443   1.629   7.951
83262SOL    HW151560   8.484   1.677   7.879
83262SOL    HW251561   8.491   1.547   7.955
83263SOL     OW51562  13.389   3.592  13.968
83263SOL    HW151563  13.383   3.626  14.057
83263SOL    HW251564  13.450   3.519  13.974
83264SOL     OW51565   8.288   8.021  14.459
83264SOL    HW151566   8.302   8.092  14.396
83264SOL    HW251567   8.354   7.956  14.436
83265SOL     OW51568   8.820  11.895   4.537
83265SOL    HW151569   8.805  11.822   4.477
83265SOL    HW251570   8.758  11.962   4.510
83266SOL     OW51571  14.100  12.175   9.425
83266SOL    HW151572  14.132  12.085   9.430
83266SOL    HW251573  14.177  12.226   9.400
83267SOL     OW51574   7.780  14.510   8.852
83267SOL    HW151575   7.800  14.438   8.912
83267SOL    HW251576   7.828  14.487   8.772
83268SOL     OW51577   4.803   9.223  13.411
83268SOL    HW151578   4.871   9.212  13.345
83268SOL    HW251579   4.809   9.143  13.464
83269SOL     OW51580   0.446   5.098   8.039
83269SOL    HW151581   0.519   5.081   7.979
83269SOL    HW251582   0.382   5.145   7.986
83270SOL     OW51583   4.167   4.792   5.584
83270SOL    HW151584   4.231   4.722   5.573
83270SOL    HW251585   4.138   4.783   5.675
83271SOL     OW51586   6.963   7.433   8.091
83271SOL    HW151587   7.004   7.516   8.068
83271SOL    HW251588   6.953   7.436   8.186
83272SOL     OW51589   3.827   3.502  14.512
83272SOL    HW151590   3.843   3.548  14.594
83272SOL    HW251591   3.878   3.550  14.447
83273SOL     OW51592   3.505   5.727  10.686
83273SOL    HW151593   3.533   5.718  10.595
83273SOL    HW251594   3.425   5.780  10.682
83274SOL     OW51595  14.274   4.884   6.289
83274SOL    HW151596  14.262   4.963   6.341
83274SOL    HW251597  14.304   4.818   6.351
83275SOL     OW51598   9.824   4.452   2.095
83275SOL    HW151599   9.902   4.501   2.120
83275SOL    HW251600   9.826   4.452   1.999
83276SOL     OW51601   5.195   0.593   2.991
83276SOL    HW151602   5.218   0.521   2.932
83276SOL    HW251603   5.230   0.671   2.948
83277SOL     OW51604   7.114  14.051   1.198
83277SOL    HW151605   7.050  13.980   1.189
83277SOL    HW251606   7.110  14.098   1.114
83278SOL     OW51607   0.682   1.151   8.289
83278SOL    HW151608   0.728   1.094   8.228
83278SOL    HW251609   0.616   1.196   8.235
83279SOL     OW51610   2.703   9.244   4.114
83279SOL    HW151611   2.646   9.253   4.037
83279SOL    HW251612   2.648   9.198   4.178
83280SOL     OW51613   6.626   7.275   3.749
83280SOL    HW151614   6.543   7.234   3.725
83280SOL    HW251615   6.620   7.286   3.844
83281SOL     OW51616   0.735   5.150   4.495
83281SOL    HW151617   0.644   5.165   4.521
83281SOL    HW251618   0.776   5.236   4.502
83282SOL     OW51619  10.344   8.014  14.560
83282SOL    HW151620  10.338   8.091  14.504
83282SOL    HW251621  10.255   8.003  14.595
83283SOL     OW51622  14.632   1.883   5.521
83283SOL    HW151623  14.659   1.792   5.533
83283SOL    HW251624  14.630   1.920   5.609
83284SOL     OW51625  12.094  12.932   3.215
83284SOL    HW151626  12.180  12.894   3.195
83284SOL    HW251627  12.044  12.859   3.252
83285SOL     OW51628   6.290   8.506  13.153
83285SOL    HW151629   6.282   8.458  13.235
83285SOL    HW251630   6.216   8.475  13.099
83286SOL     OW51631   0.750   4.422   7.752
83286SOL    HW151632   0.781   4.484   7.686
83286SOL    HW251633   0.709   4.351   7.702
83287SOL     OW51634  10.424  11.324   0.083
83287SOL    HW151635  10.407  11.241   0.127
83287SOL    HW251636  10.422  11.304  14.867
83288SOL     OW51637   2.247  13.759   2.524
83288SOL    HW151638   2.177  13.823   2.532
83288SOL    HW251639   2.232  13.699   2.597
83289SOL     OW51640   8.034   2.674   9.776
83289SOL    HW151641   7.954   2.720   9.802
83289SOL    HW251642   8.099   2.703   9.840
83290SOL     OW51643   4.974   3.130  13.809
83290SOL    HW151644   5.053   3.116  13.861
83290SOL    HW251645   4.992   3.085  13.726
83291SOL     OW51646  10.993   6.404   4.651
83291SOL    HW151647  11.036   6.479   4.610
83291SOL    HW251648  10.907   6.400   4.610
83292SOL     OW51649   5.286   6.397  12.725
83292SOL    HW151650   5.238   6.428  12.647
83292SOL    HW251651   5.217   6.381  12.790
83293SOL     OW51652   7.746   4.218  13.226
83293SOL    HW151653   7.841   4.226  13.229
83293SOL    HW251654   7.723   4.230  13.134
83294SOL     OW51655   4.594   4.404   4.631
83294SOL    HW151656   4.602   4.326   4.686
83294SOL    HW251657   4.607   4.477   4.692
83295SOL     OW51658   6.793  14.097   4.513
83295SOL    HW151659   6.850  14.079   4.438
83295SOL    HW251660   6.727  14.027   4.511
83296SOL     OW51661   9.430   7.097  13.571
83296SOL    HW151662   9.479   7.033  13.519
83296SOL    HW251663   9.380   7.044  13.633
83297SOL     OW51664  11.452   6.782   3.608
83297SOL    HW151665  11.379   6.735   3.648
83297SOL    HW251666  11.528   6.762   3.663
83298SOL     OW51667   0.074   7.750   2.020
83298SOL    HW151668   0.045   7.825   2.072
83298SOL    HW251669   0.146   7.785   1.967
83299SOL     OW51670   4.284   9.615  10.472
83299SOL    HW151671   4.209   9.645  10.523
83299SOL    HW251672   4.351   9.683  10.486
83300SOL     OW51673  13.299  10.246   7.997
83300SOL    HW151674  13.390  10.218   7.987
83300SOL    HW251675  13.297  10.336   7.964
83301SOL     OW51676   6.028  12.734   4.150
83301SOL    HW151677   6.114  12.708   4.184
83301SOL    HW251678   5.994  12.655   4.108
83302SOL     OW51679   9.652   5.922   2.528
83302SOL    HW151680   9.574   5.875   2.557
83302SOL    HW251681   9.619   5.986   2.465
83303SOL     OW51682   0.573  11.063  13.126
83303SOL    HW151683   0.534  11.116  13.056
83303SOL    HW251684   0.502  11.051  13.189
83304SOL     OW51685  11.966   1.311  14.571
83304SOL    HW151686  12.033   1.345  14.629
83304SOL    HW251687  11.942   1.226  14.608
83305SOL     OW51688   0.120  10.884   9.611
83305SOL    HW151689   0.199  10.858   9.657
83305SOL    HW251690   0.051  10.877   9.677
83306SOL     OW51691   6.465  13.286   7.361
83306SOL    HW151692   6.480  13.379   7.344
83306SOL    HW251693   6.523  13.240   7.300
83307SOL     OW51694   5.904  12.502   3.097
83307SOL    HW151695   5.939  12.590   3.096
83307SOL    HW251696   5.830  12.504   3.036
83308SOL     OW51697  11.378   8.760  13.495
83308SOL    HW151698  11.472   8.754  13.477
83308SOL    HW251699  11.360   8.686  13.553
83309SOL     OW51700   6.318  13.390   4.458
83309SOL    HW151701   6.314  13.477   4.417
83309SOL    HW251702   6.262  13.335   4.403
83310SOL     OW51703   3.463   0.463  11.653
83310SOL    HW151704   3.532   0.505  11.601
83310SOL    HW251705   3.394   0.530  11.660
83311SOL     OW51706  13.967  11.872   6.883
83311SOL    HW151707  13.942  11.834   6.798
83311SOL    HW251708  13.891  11.855   6.939
83312SOL     OW51709   2.044   5.760   3.732
83312SOL    HW151710   2.012   5.673   3.710
83312SOL    HW251711   1.967   5.817   3.725
83313SOL     OW51712   0.373  14.396   3.218
83313SOL    HW151713   0.433  14.327   3.244
83313SOL    HW251714   0.309  14.353   3.161
83314SOL     OW51715   9.395   5.345   4.634
83314SOL    HW151716   9.318   5.324   4.688
83314SOL    HW251717   9.464   5.362   4.697
83315SOL     OW51718   3.909   7.999  14.475
83315SOL    HW151719   3.959   8.032  14.400
83315SOL    HW251720   3.938   7.908  14.485
83316SOL     OW51721  14.315   9.723  14.604
83316SOL    HW151722  14.298   9.764  14.519
83316SOL    HW251723  14.372   9.648  14.584
83317SOL     OW51724  14.868   7.938  12.590
83317SOL    HW151725  14.778   7.930  12.621
83317SOL    HW251726  14.877   8.031  12.568
83318SOL     OW51727   5.314   2.122   3.240
83318SOL    HW151728   5.267   2.075   3.308
83318SOL    HW251729   5.280   2.085   3.158
83319SOL     OW51730   7.359  13.017   1.583
83319SOL    HW151731   7.388  12.926   1.593
83319SOL    HW251732   7.441  13.067   1.578
83320SOL     OW51733   5.027   8.540  13.534
83320SOL    HW151734   5.057   8.505  13.450
83320SOL    HW251735   5.101   8.527  13.593
83321SOL     OW51736   4.235   9.704   2.346
83321SOL    HW151737   4.213   9.703   2.439
83321SOL    HW251738   4.283   9.622   2.332
83322SOL     OW51739  14.353   0.586   3.597
83322SOL    HW151740  14.446   0.582   3.622
83322SOL    HW251741  14.348   0.657   3.533
83323SOL     OW51742  12.939   5.116   1.125
83323SOL    HW151743  13.002   5.163   1.179
83323SOL    HW251744  12.991   5.073   1.058
83324SOL     OW51745  11.672   4.931   4.270
83324SOL    HW151746  11.669   4.856   4.329
83324SOL    HW251747  11.727   4.995   4.315
83325SOL     OW51748   6.782   5.794  14.663
83325SOL    HW151749   6.803   5.796  14.756
83325SOL    HW251750   6.774   5.701  14.642
83326SOL     OW51751   2.376   3.302   1.046
83326SOL    HW151752   2.418   3.229   1.092
83326SOL    HW251753   2.361   3.368   1.113
83327SOL     OW51754   6.380  13.421  10.908
83327SOL    HW151755   6.408  13.393  10.821
83327SOL    HW251756   6.443  13.380  10.967
83328SOL     OW51757   9.605   7.540   0.188
83328SOL    HW151758   9.662   7.604   0.229
83328SOL    HW251759   9.522   7.548   0.234
83329SOL     OW51760   2.044   5.687   6.228
83329SOL    HW151761   2.074   5.611   6.277
83329SOL    HW251762   1.951   5.670   6.211
83330SOL     OW51763  11.034   8.058  12.039
83330SOL    HW151764  11.119   8.060  11.996
83330SOL    HW251765  10.972   8.086  11.972
83331SOL     OW51766   0.299   6.541   5.320
83331SOL    HW151767   0.232   6.512   5.382
83331SOL    HW251768   0.333   6.461   5.281
83332SOL     OW51769  13.188   7.520  12.954
83332SOL    HW151770  13.223   7.445  13.003
83332SOL    HW251771  13.222   7.597  13.000
83333SOL     OW51772  10.167   0.028   3.578
83333SOL    HW151773  10.253   0.036   3.536
83333SOL    HW251774  10.136   0.119   3.587
83334SOL     OW51775   1.214   0.226   9.030
83334SOL    HW151776   1.248   0.149   8.984
83334SOL    HW251777   1.120   0.209   9.039
83335SOL     OW51778   1.382   9.294   8.375
83335SOL    HW151779   1.290   9.282   8.349
83335SOL    HW251780   1.425   9.214   8.347
83336SOL     OW51781   8.623  14.716  12.584
83336SOL    HW151782   8.577  14.776  12.525
83336SOL    HW251783   8.553  14.672  12.633
83337SOL     OW51784   4.607  14.175  12.741
83337SOL    HW151785   4.608  14.150  12.649
83337SOL    HW251786   4.625  14.094  12.788
83338SOL     OW51787   7.830  13.350  13.834
83338SOL    HW151788   7.886  13.427  13.851
83338SOL    HW251789   7.874  13.305  13.761
83339SOL     OW51790  11.903   4.273  13.492
83339SOL    HW151791  11.963   4.226  13.434
83339SOL    HW251792  11.818   4.234  13.476
83340SOL     OW51793   6.478   2.584  11.118
83340SOL    HW151794   6.415   2.653  11.095
83340SOL    HW251795   6.513   2.556  11.034
83341SOL     OW51796   7.993   8.245   1.269
83341SOL    HW151797   7.898   8.242   1.280
83341SOL    HW251798   8.025   8.288   1.349
83342SOL     OW51799  14.338  11.222  13.684
83342SOL    HW151800  14.388  11.166  13.625
83342SOL    HW251801  14.393  11.300  13.695
83343SOL     OW51802   4.677   4.511  14.584
83343SOL    HW151803   4.707   4.442  14.525
83343SOL    HW251804   4.612   4.559  14.534
83344SOL     OW51805  11.415   0.474   3.571
83344SOL    HW151806  11.431   0.383   3.598
83344SOL    HW251807  11.501   0.516   3.576
83345SOL     OW51808   5.045  11.049   7.106
83345SOL    HW151809   5.061  10.998   7.186
83345SOL    HW251810   5.079  10.993   7.036
83346SOL     OW51811   6.971   0.939  14.125
83346SOL    HW151812   7.044   1.001  14.131
83346SOL    HW251813   7.006   0.866  14.074
83347SOL     OW51814   8.937   9.311   8.334
83347SOL    HW151815   8.906   9.226   8.367
83347SOL    HW251816   9.028   9.315   8.362
83348SOL     OW51817   5.330   2.455  12.796
83348SOL    HW151818   5.405   2.396  12.785
83348SOL    HW251819   5.259   2.398  12.826
83349SOL     OW51820   8.044   6.134   1.534
83349SOL    HW151821   8.012   6.044   1.530
83349SOL    HW251822   8.081   6.143   1.621
83350SOL     OW51823   8.760   6.369   6.510
83350SOL    HW151824   8.744   6.325   6.593
83350SOL    HW251825   8.716   6.454   6.518
83351SOL     OW51826   1.451   4.627  12.334
83351SOL    HW151827   1.417   4.594  12.417
83351SOL    HW251828   1.506   4.701  12.359
83352SOL     OW51829   5.825   8.322   1.498
83352SOL    HW151830   5.823   8.395   1.559
83352SOL    HW251831   5.749   8.336   1.442
83353SOL     OW51832  14.672  13.116   7.907
83353SOL    HW151833  14.645  13.024   7.914
83353SOL    HW251834  14.687  13.129   7.813
83354SOL     OW51835   3.502  14.571   6.973
83354SOL    HW151836   3.493  14.490   6.921
83354SOL    HW251837   3.429  14.626   6.945
83355SOL     OW51838   6.287  12.860  14.071
83355SOL    HW151839   6.320  12.790  14.015
83355SOL    HW251840   6.281  12.821  14.158
83356SOL     OW51841   4.036  14.361   3.871
83356SOL    HW151842   4.065  14.440   3.826
83356SOL    HW251843   3.958  14.333   3.823
83357SOL     OW51844  11.639  10.270   5.491
83357SOL    HW151845  11.636  10.176   5.473
83357SOL    HW251846  11.726  10.285   5.528
83358SOL     OW51847   2.713   6.916   1.787
83358SOL    HW151848   2.654   6.964   1.729
83358SOL    HW251849   2.670   6.831   1.799
83359SOL     OW51850   2.895   6.188  14.139
83359SOL    HW151851   2.986   6.195  14.168
83359SOL    HW251852   2.887   6.254  14.070
83360SOL     OW51853   7.648  10.319  10.194
83360SOL    HW151854   7.704  10.251  10.231
83360SOL    HW251855   7.698  10.400  10.202
83361SOL     OW51856  14.273   6.696   2.336
83361SOL    HW151857  14.182   6.675   2.316
83361SOL    HW251858  14.318   6.612   2.334
83362SOL     OW51859   1.860   9.837  14.663
83362SOL    HW151860   1.791   9.822  14.599
83362SOL    HW251861   1.860   9.758  14.717
83363SOL     OW51862   9.702   8.256   2.169
83363SOL    HW151863   9.778   8.308   2.196
83363SOL    HW251864   9.721   8.231   2.079
83364SOL     OW51865  12.091  12.863  11.061
83364SOL    HW151866  12.087  12.914  10.980
83364SOL    HW251867  12.112  12.927  11.129
83365SOL     OW51868   0.576  12.806  10.073
83365SOL    HW151869   0.497  12.853  10.098
83365SOL    HW251870   0.645  12.872  10.076
83366SOL     OW51871  14.171   0.819  11.092
83366SOL    HW151872  14.165   0.906  11.133
83366SOL    HW251873  14.088   0.777  11.115
83367SOL     OW51874  11.139   1.140  12.356
83367SOL    HW151875  11.165   1.213  12.412
83367SOL    HW251876  11.045   1.154  12.340
83368SOL     OW51877   9.151   0.676   6.232
83368SOL    HW151878   9.189   0.738   6.293
83368SOL    HW251879   9.062   0.662   6.264
83369SOL     OW51880  13.664  12.636   8.506
83369SOL    HW151881  13.697  12.546   8.507
83369SOL    HW251882  13.645  12.656   8.597
83370SOL     OW51883  12.215  13.547  14.240
83370SOL    HW151884  12.271  13.624  14.247
83370SOL    HW251885  12.130  13.581  14.213
83371SOL     OW51886   2.059   6.708  11.331
83371SOL    HW151887   2.046   6.613  11.332
83371SOL    HW251888   2.150   6.719  11.305
83372SOL     OW51889  10.493  14.311   0.953
83372SOL    HW151890  10.490  14.405   0.970
83372SOL    HW251891  10.566  14.279   1.006
83373SOL     OW51892  12.115   3.025  14.751
83373SOL    HW151893  12.183   3.050  14.814
83373SOL    HW251894  12.125   3.087  14.679
83374SOL     OW51895  12.144   1.921  13.641
83374SOL    HW151896  12.070   1.909  13.581
83374SOL    HW251897  12.109   1.900  13.727
83375SOL     OW51898   6.940   8.154   1.356
83375SOL    HW151899   6.875   8.179   1.422
83375SOL    HW251900   7.002   8.098   1.402
83376SOL     OW51901  12.124   8.366  10.352
83376SOL    HW151902  12.133   8.450  10.306
83376SOL    HW251903  12.121   8.301  10.283
83377SOL     OW51904   8.006   7.952  12.657
83377SOL    HW151905   7.924   7.908  12.636
83377SOL    HW251906   8.021   7.931  12.749
83378SOL     OW51907   8.556   9.603   0.489
83378SOL    HW151908   8.552   9.687   0.442
83378SOL    HW251909   8.512   9.542   0.430
83379SOL     OW51910  12.373   4.874   8.650
83379SOL    HW151911  12.293   4.900   8.605
83379SOL    HW251912  12.377   4.779   8.639
83380SOL     OW51913   7.922   7.993  13.280
83380SOL    HW151914   7.944   8.023  13.192
83380SOL    HW251915   8.002   8.006  13.331
83381SOL     OW51916   5.725   6.116   2.977
83381SOL    HW151917   5.706   6.085   3.065
83381SOL    HW251918   5.643   6.106   2.929
83382SOL     OW51919  14.858  13.165   5.151
83382SOL    HW151920  14.772  13.191   5.119
83382SOL    HW251921  14.843  13.081   5.195
83383SOL     OW51922  12.159   8.098   3.963
83383SOL    HW151923  12.205   8.074   3.883
83383SOL    HW251924  12.066   8.100   3.938
83384SOL     OW51925   7.763   7.865   5.395
83384SOL    HW151926   7.721   7.878   5.310
83384SOL    HW251927   7.832   7.800   5.379
83385SOL     OW51928   9.290   7.153  14.448
83385SOL    HW151929   9.302   7.205  14.368
83385SOL    HW251930   9.202   7.118  14.441
83386SOL     OW51931  11.290   0.435   8.059
83386SOL    HW151932  11.321   0.425   8.149
83386SOL    HW251933  11.256   0.348   8.036
83387SOL     OW51934  10.551  11.168   9.999
83387SOL    HW151935  10.569  11.258  10.025
83387SOL    HW251936  10.475  11.143  10.053
83388SOL     OW51937   8.682   3.399  13.955
83388SOL    HW151938   8.680   3.432  14.045
83388SOL    HW251939   8.593   3.369  13.939
83389SOL     OW51940  13.313   8.928   4.168
83389SOL    HW151941  13.345   8.845   4.205
83389SOL    HW251942  13.328   8.919   4.074
83390SOL     OW51943   4.520   5.387   7.432
83390SOL    HW151944   4.527   5.331   7.356
83390SOL    HW251945   4.512   5.476   7.396
83391SOL     OW51946   7.759   0.702   6.515
83391SOL    HW151947   7.667   0.724   6.499
83391SOL    HW251948   7.787   0.655   6.436
83392SOL     OW51949  13.504   5.686   9.908
83392SOL    HW151950  13.422   5.637   9.907
83392SOL    HW251951  13.561   5.637   9.848
83393SOL     OW51952  11.688   5.606  11.048
83393SOL    HW151953  11.695   5.515  11.074
83393SOL    HW251954  11.595   5.628  11.058
83394SOL     OW51955  12.243   0.635   9.396
83394SOL    HW151956  12.165   0.625   9.450
83394SOL    HW251957  12.312   0.592   9.446
83395SOL     OW51958  13.156   2.630  13.518
83395SOL    HW151959  13.159   2.700  13.583
83395SOL    HW251960  13.238   2.638  13.470
83396SOL     OW51961   8.890   3.398  13.499
83396SOL    HW151962   8.830   3.464  13.532
83396SOL    HW251963   8.844   3.358  13.426
83397SOL     OW51964  11.803   1.704   9.193
83397SOL    HW151965  11.786   1.610   9.200
83397SOL    HW251966  11.719   1.745   9.217
83398SOL     OW51967   2.850   3.435   2.653
83398SOL    HW151968   2.755   3.429   2.653
83398SOL    HW251969   2.875   3.438   2.561
83399SOL     OW51970  12.642  14.395  11.771
83399SOL    HW151971  12.730  14.430  11.768
83399SOL    HW251972  12.599  14.443  11.841
83400SOL     OW51973   5.046   6.254  12.613
83400SOL    HW151974   5.050   6.275  12.519
83400SOL    HW251975   5.099   6.175  12.621
83401SOL     OW51976  12.228   8.750   5.860
83401SOL    HW151977  12.200   8.818   5.799
83401SOL    HW251978  12.310   8.782   5.896
83402SOL     OW51979   5.023   8.365   3.869
83402SOL    HW151980   5.007   8.305   3.796
83402SOL    HW251981   4.948   8.352   3.927
83403SOL     OW51982   9.539  10.974  13.263
83403SOL    HW151983   9.528  10.940  13.174
83403SOL    HW251984   9.455  10.957  13.305
83404SOL     OW51985  10.883  11.131   3.795
83404SOL    HW151986  10.863  11.210   3.845
83404SOL    HW251987  10.802  11.079   3.800
83405SOL     OW51988   5.315  10.446   3.335
83405SOL    HW151989   5.255  10.372   3.330
83405SOL    HW251990   5.270  10.516   3.288
83406SOL     OW51991   9.659  10.433  10.681
83406SOL    HW151992   9.752  10.453  10.673
83406SOL    HW251993   9.619  10.515  10.709
83407SOL     OW51994  10.248  11.475   9.229
83407SOL    HW151995  10.221  11.419   9.156
83407SOL    HW251996  10.215  11.562   9.206
83408SOL     OW51997  13.797   9.426  14.833
83408SOL    HW151998  13.882   9.384  14.843
83408SOL    HW251999  13.737   9.369   0.004
83409SOL     OW52000   3.753   6.867  13.926
83409SOL    HW152001   3.807   6.811  13.981
83409SOL    HW252002   3.663   6.845  13.950
83410SOL     OW52003   1.887   3.526  14.261
83410SOL    HW152004   1.849   3.613  14.257
83410SOL    HW252005   1.924   3.519  14.349
83411SOL     OW52006  10.940   1.408   9.648
83411SOL    HW152007  10.965   1.357   9.726
83411SOL    HW252008  10.998   1.376   9.579
83412SOL     OW52009   5.546  13.099   7.432
83412SOL    HW152010   5.462  13.062   7.458
83412SOL    HW252011   5.567  13.162   7.500
83413SOL     OW52012  11.663  14.011   0.242
83413SOL    HW152013  11.743  13.978   0.200
83413SOL    HW252014  11.617  14.058   0.172
83414SOL     OW52015  11.350   0.366  13.085
83414SOL    HW152016  11.257   0.354  13.065
83414SOL    HW252017  11.353   0.444  13.139
83415SOL     OW52018  10.031  10.072  12.365
83415SOL    HW152019   9.990  10.126  12.297
83415SOL    HW252020  10.049  10.133  12.436
83416SOL     OW52021  14.352  11.232   5.170
83416SOL    HW152022  14.424  11.171   5.155
83416SOL    HW252023  14.308  11.239   5.085
83417SOL     OW52024   5.606  14.076   0.226
83417SOL    HW152025   5.562  14.007   0.276
83417SOL    HW252026   5.700  14.059   0.239
83418SOL     OW52027   4.379   6.449   4.162
83418SOL    HW152028   4.322   6.385   4.118
83418SOL    HW252029   4.451   6.396   4.196
83419SOL     OW52030   2.622   3.338  12.799
83419SOL    HW152031   2.600   3.294  12.881
83419SOL    HW252032   2.663   3.270  12.745
83420SOL     OW52033   9.952   6.823   6.236
83420SOL    HW152034   9.909   6.738   6.249
83420SOL    HW252035  10.023   6.824   6.300
83421SOL     OW52036   7.867  12.958   1.646
83421SOL    HW152037   7.881  12.998   1.560
83421SOL    HW252038   7.949  12.971   1.693
83422SOL     OW52039   6.081   1.920   3.776
83422SOL    HW152040   6.071   1.835   3.733
83422SOL    HW252041   6.172   1.945   3.757
83423SOL     OW52042   9.562  11.815  13.717
83423SOL    HW152043   9.551  11.875  13.643
83423SOL    HW252044   9.474  11.780  13.732
83424SOL     OW52045   3.487  13.751  13.728
83424SOL    HW152046   3.572  13.788  13.754
83424SOL    HW252047   3.461  13.698  13.802
83425SOL     OW52048  10.396   9.219  11.664
83425SOL    HW152049  10.471   9.163  11.648
83425SOL    HW252050  10.415   9.263  11.746
83426SOL     OW52051   6.452   2.828  14.007
83426SOL    HW152052   6.387   2.898  14.002
83426SOL    HW252053   6.475   2.810  13.916
83427SOL     OW52054  11.662  10.450  10.573
83427SOL    HW152055  11.722  10.425  10.503
83427SOL    HW252056  11.719  10.471  10.647
83428SOL     OW52057   1.595  10.207  10.184
83428SOL    HW152058   1.611  10.230  10.275
83428SOL    HW252059   1.680  10.176  10.151
83429SOL     OW52060   6.292   2.970   0.737
83429SOL    HW152061   6.216   3.028   0.740
83429SOL    HW252062   6.322   2.974   0.646
83430SOL     OW52063   6.924  14.081  10.098
83430SOL    HW152064   6.861  14.149  10.120
83430SOL    HW252065   7.000  14.128  10.064
83431SOL     OW52066   3.067   0.002   8.971
83431SOL    HW152067   3.113   0.024   8.891
83431SOL    HW252068   3.006   0.075   8.985
83432SOL     OW52069   5.730   9.227  14.721
83432SOL    HW152070   5.767   9.154  14.671
83432SOL    HW252071   5.798   9.293  14.720
83433SOL     OW52072  10.437   3.678  10.719
83433SOL    HW152073  10.418   3.771  10.711
83433SOL    HW252074  10.391   3.651  10.798
83434SOL     OW52075   7.116  12.336   0.667
83434SOL    HW152076   7.196  12.342   0.720
83434SOL    HW252077   7.134  12.265   0.606
83435SOL     OW52078   0.501   8.312  12.342
83435SOL    HW152079   0.521   8.371  12.415
83435SOL    HW252080   0.586   8.294  12.301
83436SOL     OW52081   4.931   5.970   7.285
83436SOL    HW152082   4.908   6.063   7.291
83436SOL    HW252083   4.892   5.931   7.363
83437SOL     OW52084   0.763   8.673   6.872
83437SOL    HW152085   0.746   8.763   6.844
83437SOL    HW252086   0.676   8.636   6.888
83438SOL     OW52087   8.530  12.278   2.118
83438SOL    HW152088   8.624  12.261   2.109
83438SOL    HW252089   8.523  12.374   2.113
83439SOL     OW52090  12.241  13.503  14.491
83439SOL    HW152091  12.307  13.557  14.535
83439SOL    HW252092  12.264  13.509  14.398
83440SOL     OW52093   7.146  11.431   1.820
83440SOL    HW152094   7.055  11.460   1.826
83440SOL    HW252095   7.145  11.366   1.750
83441SOL     OW52096   2.103  11.226  12.814
83441SOL    HW152097   2.171  11.226  12.747
83441SOL    HW252098   2.052  11.305  12.796
83442SOL     OW52099  11.269   6.816   7.016
83442SOL    HW152100  11.314   6.822   6.931
83442SOL    HW252101  11.339   6.797   7.079
83443SOL     OW52102   0.262   1.977   1.169
83443SOL    HW152103   0.213   1.926   1.106
83443SOL    HW252104   0.251   1.931   1.252
83444SOL     OW52105   8.282   2.505  14.267
83444SOL    HW152106   8.245   2.416  14.266
83444SOL    HW252107   8.208   2.561  14.243
83445SOL     OW52108   8.561   3.143   6.769
83445SOL    HW152109   8.630   3.191   6.724
83445SOL    HW252110   8.588   3.052   6.767
83446SOL     OW52111   8.024   5.942   9.904
83446SOL    HW152112   7.930   5.960   9.900
83446SOL    HW252113   8.043   5.937   9.998
83447SOL     OW52114   4.651   9.397  13.034
83447SOL    HW152115   4.612   9.343  12.964
83447SOL    HW252116   4.723   9.443  12.992
83448SOL     OW52117   2.557   4.398   0.899
83448SOL    HW152118   2.558   4.328   0.963
83448SOL    HW252119   2.580   4.355   0.816
83449SOL     OW52120   3.677   2.578  13.529
83449SOL    HW152121   3.635   2.521  13.465
83449SOL    HW252122   3.698   2.521  13.602
83450SOL     OW52123  10.637   4.289  11.267
83450SOL    HW152124  10.624   4.352  11.196
83450SOL    HW252125  10.551   4.250  11.281
83451SOL     OW52126  11.532  10.908  10.715
83451SOL    HW152127  11.475  10.867  10.780
83451SOL    HW252128  11.481  10.904  10.633
83452SOL     OW52129   7.922   8.660   3.864
83452SOL    HW152130   7.908   8.568   3.888
83452SOL    HW252131   8.016   8.673   3.872
83453SOL     OW52132  10.120   1.157   5.868
83453SOL    HW152133  10.167   1.239   5.884
83453SOL    HW252134  10.175   1.110   5.807
83454SOL     OW52135   8.093   1.252   9.415
83454SOL    HW152136   8.071   1.316   9.346
83454SOL    HW252137   8.132   1.179   9.368
83455SOL     OW52138   9.752   8.332  10.642
83455SOL    HW152139   9.674   8.305  10.690
83455SOL    HW252140   9.737   8.301  10.553
83456SOL     OW52141   1.470  11.143  11.812
83456SOL    HW152142   1.501  11.233  11.802
83456SOL    HW252143   1.443  11.118  11.724
83457SOL     OW52144   4.551   3.357   3.278
83457SOL    HW152145   4.571   3.437   3.327
83457SOL    HW252146   4.573   3.379   3.187
83458SOL     OW52147   7.605   8.250   4.156
83458SOL    HW152148   7.577   8.164   4.125
83458SOL    HW252149   7.527   8.289   4.193
83459SOL     OW52150   7.218   3.037   2.975
83459SOL    HW152151   7.183   3.080   3.054
83459SOL    HW252152   7.195   3.096   2.904
83460SOL     OW52153   9.855  10.436  14.367
83460SOL    HW152154   9.889  10.359  14.413
83460SOL    HW252155   9.768  10.450  14.403
83461SOL     OW52156   9.638   1.556   3.893
83461SOL    HW152157   9.678   1.476   3.858
83461SOL    HW252158   9.650   1.550   3.987
83462SOL     OW52159   3.364   4.141   4.625
83462SOL    HW152160   3.321   4.056   4.611
83462SOL    HW252161   3.391   4.140   4.716
83463SOL     OW52162  11.276  12.670   0.177
83463SOL    HW152163  11.320  12.614   0.113
83463SOL    HW252164  11.347  12.720   0.218
83464SOL     OW52165  14.687  10.788   6.271
83464SOL    HW152166  14.640  10.707   6.292
83464SOL    HW252167  14.626  10.858   6.295
83465SOL     OW52168  14.546   4.756   3.987
83465SOL    HW152169  14.627   4.806   3.992
83465SOL    HW252170  14.541   4.727   3.896
83466SOL     OW52171   3.226   5.504   6.282
83466SOL    HW152172   3.204   5.583   6.232
83466SOL    HW252173   3.145   5.454   6.283
83467SOL     OW52174  12.303  10.032  14.826
83467SOL    HW152175  12.304  10.096   0.020
83467SOL    HW252176  12.210  10.020  14.806
83468SOL     OW52177   4.715  13.302  14.280
83468SOL    HW152178   4.643  13.355  14.246
83468SOL    HW252179   4.697  13.214  14.248
83469SOL     OW52180   2.351  14.021  10.043
83469SOL    HW152181   2.353  14.060  10.130
83469SOL    HW252182   2.353  14.096   9.983
83470SOL     OW52183   4.225   1.606   7.199
83470SOL    HW152184   4.165   1.664   7.245
83470SOL    HW252185   4.169   1.546   7.151
83471SOL     OW52186   7.554   4.059   1.540
83471SOL    HW152187   7.613   4.065   1.464
83471SOL    HW252188   7.555   4.147   1.577
83472SOL     OW52189   9.334  10.466  11.479
83472SOL    HW152190   9.367  10.514  11.404
83472SOL    HW252191   9.307  10.534  11.541
83473SOL     OW52192  11.023   1.384   8.665
83473SOL    HW152193  10.945   1.365   8.613
83473SOL    HW252194  11.034   1.479   8.658
83474SOL     OW52195  11.303   9.075   3.016
83474SOL    HW152196  11.336   9.155   3.059
83474SOL    HW252197  11.363   9.006   3.045
83475SOL     OW52198   9.176   4.430   5.404
83475SOL    HW152199   9.226   4.432   5.323
83475SOL    HW252200   9.229   4.480   5.466
83476SOL     OW52201  14.025   9.362  10.770
83476SOL    HW152202  14.050   9.352  10.862
83476SOL    HW252203  14.067   9.287  10.727
83477SOL     OW52204  13.868  12.766   6.886
83477SOL    HW152205  13.917  12.813   6.953
83477SOL    HW252206  13.779  12.801   6.893
83478SOL     OW52207   6.182   6.591   4.995
83478SOL    HW152208   6.181   6.524   5.064
83478SOL    HW252209   6.210   6.544   4.917
83479SOL     OW52210   9.182  13.232  13.527
83479SOL    HW152211   9.268  13.254  13.564
83479SOL    HW252212   9.139  13.316  13.516
83480SOL     OW52213   7.973   4.919   9.791
83480SOL    HW152214   7.971   4.828   9.819
83480SOL    HW252215   7.957   4.915   9.696
83481SOL     OW52216  14.749   6.636   2.659
83481SOL    HW152217  14.806   6.708   2.632
83481SOL    HW252218  14.772   6.563   2.601
83482SOL     OW52219  14.435  10.397  10.095
83482SOL    HW152220  14.441  10.488  10.064
83482SOL    HW252221  14.388  10.404  10.178
83483SOL     OW52222   3.430  10.724  11.789
83483SOL    HW152223   3.343  10.722  11.831
83483SOL    HW252224   3.415  10.689  11.701
83484SOL     OW52225   2.773  12.955   0.446
83484SOL    HW152226   2.814  12.880   0.404
83484SOL    HW252227   2.828  12.973   0.522
83485SOL     OW52228   9.897   5.548  11.767
83485SOL    HW152229   9.992   5.545  11.763
83485SOL    HW252230   9.876   5.641  11.777
83486SOL     OW52231   1.141   9.074   6.537
83486SOL    HW152232   1.211   9.129   6.573
83486SOL    HW252233   1.187   9.003   6.492
83487SOL     OW52234   7.395  14.696   9.758
83487SOL    HW152235   7.411  14.778   9.712
83487SOL    HW252236   7.478  14.675   9.800
83488SOL     OW52237   3.543  14.119   5.057
83488SOL    HW152238   3.591  14.061   5.116
83488SOL    HW252239   3.456  14.128   5.097
83489SOL     OW52240   4.277   9.656   1.337
83489SOL    HW152241   4.254   9.653   1.430
83489SOL    HW252242   4.196   9.682   1.293
83490SOL     OW52243   5.962   9.028  13.732
83490SOL    HW152244   6.014   9.089  13.680
83490SOL    HW252245   5.907   8.983  13.667
83491SOL     OW52246   8.397   6.580   3.756
83491SOL    HW152247   8.309   6.545   3.741
83491SOL    HW252248   8.447   6.506   3.789
83492SOL     OW52249   8.035   3.235  13.045
83492SOL    HW152250   8.049   3.141  13.034
83492SOL    HW252251   8.057   3.273  12.960
83493SOL     OW52252   3.558   6.987   8.796
83493SOL    HW152253   3.613   6.957   8.868
83493SOL    HW252254   3.473   7.007   8.836
83494SOL     OW52255  10.912   4.051   8.346
83494SOL    HW152256  10.981   3.991   8.317
83494SOL    HW252257  10.898   4.110   8.272
83495SOL     OW52258   1.894  13.317   4.641
83495SOL    HW152259   1.909  13.264   4.719
83495SOL    HW252260   1.852  13.258   4.579
83496SOL     OW52261  12.565   4.209   8.916
83496SOL    HW152262  12.577   4.294   8.959
83496SOL    HW252263  12.599   4.222   8.827
83497SOL     OW52264   0.928   6.813   1.391
83497SOL    HW152265   1.019   6.785   1.395
83497SOL    HW252266   0.878   6.731   1.400
83498SOL     OW52267   9.935   6.830  10.797
83498SOL    HW152268   9.973   6.912  10.827
83498SOL    HW252269   9.881   6.855  10.722
83499SOL     OW52270  13.773  11.370   5.563
83499SOL    HW152271  13.777  11.280   5.594
83499SOL    HW252272  13.752  11.421   5.641
83500SOL     OW52273   4.638   2.262   5.445
83500SOL    HW152274   4.635   2.346   5.491
83500SOL    HW252275   4.724   2.226   5.467
83501SOL     OW52276   7.056   6.684  14.358
83501SOL    HW152277   7.119   6.618  14.328
83501SOL    HW252278   7.008   6.641  14.429
83502SOL     OW52279   4.604   2.668   4.090
83502SOL    HW152280   4.622   2.615   4.012
83502SOL    HW252281   4.615   2.758   4.060
83503SOL     OW52282  10.015   0.988   3.756
83503SOL    HW152283   9.981   1.026   3.837
83503SOL    HW252284  10.043   0.900   3.781
83504SOL     OW52285  11.077   8.800  14.088
83504SOL    HW152286  11.160   8.767  14.055
83504SOL    HW252287  11.093   8.816  14.181
83505SOL     OW52288   4.816   6.694   6.499
83505SOL    HW152289   4.833   6.697   6.405
83505SOL    HW252290   4.730   6.651   6.507
83506SOL     OW52291   2.038   3.531   8.564
83506SOL    HW152292   2.035   3.532   8.468
83506SOL    HW252293   1.995   3.612   8.591
83507SOL     OW52294   8.660   4.375   1.934
83507SOL    HW152295   8.741   4.422   1.913
83507SOL    HW252296   8.630   4.414   2.016
83508SOL     OW52297   7.633  14.084   7.033
83508SOL    HW152298   7.682  14.058   7.112
83508SOL    HW252299   7.622  14.178   7.042
83509SOL     OW52300   0.389   8.045   2.394
83509SOL    HW152301   0.390   7.978   2.325
83509SOL    HW252302   0.354   8.123   2.351
83510SOL     OW52303  11.767   4.821  12.064
83510SOL    HW152304  11.827   4.783  11.999
83510SOL    HW252305  11.767   4.915  12.046
83511SOL     OW52306   5.959  14.334  13.588
83511SOL    HW152307   6.014  14.308  13.514
83511SOL    HW252308   5.879  14.368  13.549
83512SOL     OW52309   3.219   7.963  12.853
83512SOL    HW152310   3.238   8.057  12.851
83512SOL    HW252311   3.173   7.950  12.936
83513SOL     OW52312   5.811   4.524   9.927
83513SOL    HW152313   5.793   4.617   9.938
83513SOL    HW252314   5.752   4.480   9.988
83514SOL     OW52315   1.698   5.076   7.993
83514SOL    HW152316   1.781   5.062   8.039
83514SOL    HW252317   1.700   5.168   7.968
83515SOL     OW52318   1.896  10.262   8.017
83515SOL    HW152319   1.813  10.258   8.064
83515SOL    HW252320   1.960  10.285   8.084
83516SOL     OW52321   7.747   1.376   5.980
83516SOL    HW152322   7.779   1.308   6.039
83516SOL    HW252323   7.680   1.332   5.926
83517SOL     OW52324  13.074   0.224  14.411
83517SOL    HW152325  13.072   0.237  14.316
83517SOL    HW252326  13.102   0.309  14.446
83518SOL     OW52327   2.236   9.357   0.614
83518SOL    HW152328   2.308   9.374   0.675
83518SOL    HW252329   2.183   9.437   0.616
83519SOL     OW52330   8.515  10.551  13.073
83519SOL    HW152331   8.524  10.616  13.003
83519SOL    HW252332   8.474  10.475  13.031
83520SOL     OW52333   0.355   9.812   2.572
83520SOL    HW152334   0.342   9.856   2.656
83520SOL    HW252335   0.334   9.721   2.589
83521SOL     OW52336   9.744   8.366   5.923
83521SOL    HW152337   9.738   8.380   6.017
83521SOL    HW252338   9.659   8.327   5.900
83522SOL     OW52339   6.458   0.115   7.487
83522SOL    HW152340   6.448   0.036   7.540
83522SOL    HW252341   6.371   0.129   7.449
83523SOL     OW52342   4.343   4.571   9.919
83523SOL    HW152343   4.295   4.506   9.868
83523SOL    HW252344   4.418   4.524   9.954
83524SOL     OW52345   8.680   0.061   1.601
83524SOL    HW152346   8.672   0.100   1.688
83524SOL    HW252347   8.694   0.136   1.543
83525SOL     OW52348   3.539   6.255   5.610
83525SOL    HW152349   3.487   6.333   5.591
83525SOL    HW252350   3.491   6.184   5.568
83526SOL     OW52351   9.919   0.936   9.694
83526SOL    HW152352   9.991   0.950   9.634
83526SOL    HW252353   9.886   0.848   9.673
83527SOL     OW52354   4.778   4.895  14.540
83527SOL    HW152355   4.737   4.871  14.624
83527SOL    HW252356   4.854   4.947  14.565
83528SOL     OW52357  12.127  13.690   6.426
83528SOL    HW152358  12.044  13.736   6.414
83528SOL    HW252359  12.180  13.716   6.350
83529SOL     OW52360  11.853  12.981   4.982
83529SOL    HW152361  11.938  12.944   4.960
83529SOL    HW252362  11.836  12.953   5.071
83530SOL     OW52363   6.508   1.141  14.874
83530SOL    HW152364   6.477   1.051  14.861
83530SOL    HW252365   6.476   1.188  14.797
83531SOL     OW52366   3.414  12.369   8.924
83531SOL    HW152367   3.428  12.464   8.929
83531SOL    HW252368   3.490  12.332   8.969
83532SOL     OW52369   9.839   0.921  12.467
83532SOL    HW152370   9.910   0.976  12.434
83532SOL    HW252371   9.793   0.976  12.530
83533SOL     OW52372  12.014  13.571   8.935
83533SOL    HW152373  12.002  13.664   8.952
83533SOL    HW252374  12.070  13.568   8.857
83534SOL     OW52375   9.875   9.769   5.005
83534SOL    HW152376   9.867   9.771   4.910
83534SOL    HW252377   9.923   9.850   5.027
83535SOL     OW52378   3.598   2.883   1.756
83535SOL    HW152379   3.643   2.896   1.840
83535SOL    HW252380   3.612   2.965   1.709
83536SOL     OW52381   9.760  11.141  14.186
83536SOL    HW152382   9.854  11.134  14.175
83536SOL    HW252383   9.742  11.099  14.270
83537SOL     OW52384   4.844   1.478   1.245
83537SOL    HW152385   4.752   1.493   1.268
83537SOL    HW252386   4.879   1.430   1.319
83538SOL     OW52387   8.540  12.439   5.296
83538SOL    HW152388   8.516  12.364   5.241
83538SOL    HW252389   8.633  12.426   5.315
83539SOL     OW52390  11.135   5.389  12.062
83539SOL    HW152391  11.139   5.351  12.150
83539SOL    HW252392  11.083   5.328  12.011
83540SOL     OW52393   8.988   7.348  10.818
83540SOL    HW152394   8.930   7.422  10.835
83540SOL    HW252395   9.058   7.384  10.764
83541SOL     OW52396   9.676   9.348  13.200
83541SOL    HW152397   9.707   9.414  13.261
83541SOL    HW252398   9.746   9.341  13.135
83542SOL     OW52399   6.738   8.558   3.806
83542SOL    HW152400   6.754   8.497   3.733
83542SOL    HW252401   6.644   8.577   3.802
83543SOL     OW52402   4.266  14.623  14.677
83543SOL    HW152403   4.345  14.671  14.703
83543SOL    HW252404   4.279  14.535  14.710
83544SOL     OW52405   8.650  13.677   8.999
83544SOL    HW152406   8.709  13.751   8.985
83544SOL    HW252407   8.679  13.612   8.935
83545SOL     OW52408   4.495   7.827   9.772
83545SOL    HW152409   4.515   7.766   9.701
83545SOL    HW252410   4.478   7.771   9.848
83546SOL     OW52411   6.936  10.732   7.565
83546SOL    HW152412   6.843  10.708   7.574
83546SOL    HW252413   6.984  10.655   7.597
83547SOL     OW52414  12.198   5.337  10.931
83547SOL    HW152415  12.205   5.278  10.856
83547SOL    HW252416  12.104   5.354  10.939
83548SOL     OW52417   3.655  13.377   2.492
83548SOL    HW152418   3.629  13.437   2.422
83548SOL    HW252419   3.749  13.364   2.480
83549SOL     OW52420  13.885   4.293   7.559
83549SOL    HW152421  13.946   4.361   7.532
83549SOL    HW252422  13.826   4.337   7.620
83550SOL     OW52423   7.052   3.987   8.585
83550SOL    HW152424   6.986   4.010   8.520
83550SOL    HW252425   7.023   4.032   8.665
83551SOL     OW52426  12.348  11.930   5.493
83551SOL    HW152427  12.414  11.882   5.444
83551SOL    HW252428  12.396  11.973   5.563
83552SOL     OW52429   7.603  12.599   6.372
83552SOL    HW152430   7.610  12.634   6.461
83552SOL    HW252431   7.684  12.626   6.330
83553SOL     OW52432   1.344   8.594   3.795
83553SOL    HW152433   1.323   8.573   3.886
83553SOL    HW252434   1.369   8.686   3.796
83554SOL     OW52435   0.420   5.313   8.199
83554SOL    HW152436   0.482   5.313   8.272
83554SOL    HW252437   0.425   5.224   8.163
83555SOL     OW52438   4.014   8.115  13.356
83555SOL    HW152439   3.987   8.199  13.393
83555SOL    HW252440   3.933   8.064  13.349
83556SOL     OW52441   4.212  12.080   1.751
83556SOL    HW152442   4.122  12.062   1.777
83556SOL    HW252443   4.234  12.162   1.794
83557SOL     OW52444   2.180   6.750   5.135
83557SOL    HW152445   2.223   6.783   5.056
83557SOL    HW252446   2.086   6.755   5.114
83558SOL     OW52447  10.642   1.790   1.821
83558SOL    HW152448  10.697   1.736   1.878
83558SOL    HW252449  10.660   1.880   1.849
83559SOL     OW52450  14.771  13.052   9.770
83559SOL    HW152451  14.712  13.124   9.747
83559SOL    HW252452  14.847  13.065   9.713
83560SOL     OW52453   1.285   5.235   6.083
83560SOL    HW152454   1.370   5.244   6.041
83560SOL    HW252455   1.233   5.307   6.048
83561SOL     OW52456   1.900   3.675   7.929
83561SOL    HW152457   1.839   3.657   8.000
83561SOL    HW252458   1.861   3.632   7.853
83562SOL     OW52459  11.074  11.753  11.959
83562SOL    HW152460  11.154  11.722  11.916
83562SOL    HW252461  11.003  11.712  11.910
83563SOL     OW52462  11.244  13.568  11.403
83563SOL    HW152463  11.259  13.487  11.354
83563SOL    HW252464  11.191  13.622  11.345
83564SOL     OW52465  12.862  12.220   5.040
83564SOL    HW152466  12.854  12.315   5.033
83564SOL    HW252467  12.950  12.206   5.077
83565SOL     OW52468  11.800  12.277   8.280
83565SOL    HW152469  11.733  12.295   8.346
83565SOL    HW252470  11.835  12.364   8.258
83566SOL     OW52471   1.687   2.431  13.400
83566SOL    HW152472   1.599   2.410  13.368
83566SOL    HW252473   1.731   2.468  13.324
83567SOL     OW52474   2.534  13.652  11.057
83567SOL    HW152475   2.519  13.739  11.019
83567SOL    HW252476   2.478  13.594  11.005
83568SOL     OW52477   0.368   2.216  14.103
83568SOL    HW152478   0.447   2.265  14.126
83568SOL    HW252479   0.296   2.275  14.123
83569SOL     OW52480  11.960  11.744  11.733
83569SOL    HW152481  11.936  11.741  11.640
83569SOL    HW252482  12.051  11.715  11.736
83570SOL     OW52483  11.485   1.358  14.141
83570SOL    HW152484  11.434   1.425  14.096
83570SOL    HW252485  11.422   1.290  14.164
83571SOL     OW52486  10.345  13.478  11.864
83571SOL    HW152487  10.365  13.410  11.928
83571SOL    HW252488  10.251  13.471  11.850
83572SOL     OW52489  14.697   1.170   4.156
83572SOL    HW152490  14.741   1.210   4.231
83572SOL    HW252491  14.645   1.241   4.119
83573SOL     OW52492   2.733   3.230  11.443
83573SOL    HW152493   2.770   3.215  11.357
83573SOL    HW252494   2.785   3.302  11.480
83574SOL     OW52495   2.562   9.079   0.859
83574SOL    HW152496   2.522   9.165   0.877
83574SOL    HW252497   2.488   9.018   0.861
83575SOL     OW52498  10.923   0.205   4.024
83575SOL    HW152499  10.842   0.227   3.977
83575SOL    HW252500  10.899   0.131   4.080
83576SOL     OW52501   6.420   2.156   3.955
83576SOL    HW152502   6.406   2.137   3.862
83576SOL    HW252503   6.332   2.162   3.992
83577SOL     OW52504   7.956  11.357   4.988
83577SOL    HW152505   7.891  11.308   4.938
83577SOL    HW252506   8.040  11.320   4.961
83578SOL     OW52507   2.011  11.849   1.154
83578SOL    HW152508   1.919  11.829   1.171
83578SOL    HW252509   2.057  11.766   1.168
83579SOL     OW52510   1.780   9.481   6.101
83579SOL    HW152511   1.727   9.433   6.038
83579SOL    HW252512   1.730   9.560   6.120
83580SOL     OW52513   8.467  11.828   2.226
83580SOL    HW152514   8.523  11.867   2.293
83580SOL    HW252515   8.469  11.891   2.154
83581SOL     OW52516   2.352   9.430   9.877
83581SOL    HW152517   2.299   9.418   9.799
83581SOL    HW252518   2.439   9.453   9.843
83582SOL     OW52519  10.789  11.395   7.019
83582SOL    HW152520  10.864  11.374   6.963
83582SOL    HW252521  10.828  11.413   7.104
83583SOL     OW52522   6.593   3.499   1.471
83583SOL    HW152523   6.687   3.496   1.454
83583SOL    HW252524   6.559   3.416   1.438
83584SOL     OW52525   1.116  10.141   1.977
83584SOL    HW152526   1.066  10.108   2.052
83584SOL    HW252527   1.053  10.196   1.930
83585SOL     OW52528   6.731   9.265   6.264
83585SOL    HW152529   6.809   9.229   6.306
83585SOL    HW252530   6.675   9.293   6.337
83586SOL     OW52531  13.698  11.843  12.544
83586SOL    HW152532  13.754  11.920  12.543
83586SOL    HW252533  13.618  11.871  12.499
83587SOL     OW52534   6.714   1.035  13.949
83587SOL    HW152535   6.677   0.992  13.871
83587SOL    HW252536   6.781   0.974  13.981
83588SOL     OW52537   3.150  12.328   8.910
83588SOL    HW152538   3.244  12.313   8.919
83588SOL    HW252539   3.134  12.408   8.960
83589SOL     OW52540   5.949   2.234   8.174
83589SOL    HW152541   5.957   2.196   8.261
83589SOL    HW252542   5.869   2.286   8.177
83590SOL     OW52543   2.799  10.425   2.545
83590SOL    HW152544   2.790  10.358   2.477
83590SOL    HW252545   2.860  10.489   2.508
83591SOL     OW52546   7.732  14.490   6.388
83591SOL    HW152547   7.678  14.538   6.451
83591SOL    HW252548   7.790  14.557   6.350
83592SOL     OW52549   8.444   2.122  13.744
83592SOL    HW152550   8.390   2.044  13.755
83592SOL    HW252551   8.432   2.146  13.652
83593SOL     OW52552   8.626   9.567  10.046
83593SOL    HW152553   8.599   9.659  10.052
83593SOL    HW252554   8.630   9.549   9.952
83594SOL     OW52555  10.817   0.497   2.854
83594SOL    HW152556  10.733   0.515   2.814
83594SOL    HW252557  10.825   0.562   2.925
83595SOL     OW52558   5.178  14.505   0.952
83595SOL    HW152559   5.188  14.600   0.958
83595SOL    HW252560   5.209  14.483   0.865
83596SOL     OW52561   2.516   1.365   4.114
83596SOL    HW152562   2.532   1.270   4.117
83596SOL    HW252563   2.598   1.404   4.143
83597SOL     OW52564   6.837   8.371   1.107
83597SOL    HW152565   6.779   8.298   1.084
83597SOL    HW252566   6.916   8.356   1.055
83598SOL     OW52567  13.076   8.362   1.483
83598SOL    HW152568  13.096   8.357   1.577
83598SOL    HW252569  13.004   8.424   1.477
83599SOL     OW52570   1.193   7.989  13.872
83599SOL    HW152571   1.242   7.950  13.945
83599SOL    HW252572   1.196   7.923  13.803
83600SOL     OW52573  11.249  13.782   1.617
83600SOL    HW152574  11.243  13.854   1.680
83600SOL    HW252575  11.262  13.825   1.533
83601SOL     OW52576  12.300  13.357   2.602
83601SOL    HW152577  12.316  13.263   2.597
83601SOL    HW252578  12.256  13.369   2.686
83602SOL     OW52579  13.409   5.531   7.411
83602SOL    HW152580  13.388   5.535   7.504
83602SOL    HW252581  13.387   5.442   7.384
83603SOL     OW52582  14.130  10.045   9.851
83603SOL    HW152583  14.078   9.992   9.791
83603SOL    HW252584  14.103  10.135   9.832
83604SOL     OW52585  11.198   4.680  14.494
83604SOL    HW152586  11.185   4.601  14.441
83604SOL    HW252587  11.203   4.647  14.584
83605SOL     OW52588  12.317  14.326   6.877
83605SOL    HW152589  12.270  14.265   6.820
83605SOL    HW252590  12.409  14.302   6.865
83606SOL     OW52591   0.410   2.428   3.258
83606SOL    HW152592   0.326   2.386   3.241
83606SOL    HW252593   0.472   2.382   3.200
83607SOL     OW52594   0.487   7.083   7.858
83607SOL    HW152595   0.406   7.067   7.907
83607SOL    HW252596   0.548   7.117   7.922
83608SOL     OW52597   0.275   5.786   3.564
83608SOL    HW152598   0.277   5.822   3.653
83608SOL    HW252599   0.251   5.694   3.575
83609SOL     OW52600   2.908   5.415   4.034
83609SOL    HW152601   2.980   5.412   3.971
83609SOL    HW252602   2.921   5.498   4.081
83610SOL     OW52603   4.623   1.672   3.942
83610SOL    HW152604   4.560   1.629   3.999
83610SOL    HW252605   4.678   1.724   4.001
83611SOL     OW52606   1.171   8.596  13.009
83611SOL    HW152607   1.112   8.562  12.942
83611SOL    HW252608   1.166   8.532  13.080
83612SOL     OW52609   0.258   5.984   8.773
83612SOL    HW152610   0.291   6.065   8.733
83612SOL    HW252611   0.318   5.966   8.845
83613SOL     OW52612  12.901   4.551   8.381
83613SOL    HW152613  12.937   4.627   8.426
83613SOL    HW252614  12.891   4.579   8.290
83614SOL     OW52615   1.713   6.218   8.745
83614SOL    HW152616   1.713   6.164   8.665
83614SOL    HW252617   1.655   6.171   8.804
83615SOL     OW52618   1.062  10.108   8.117
83615SOL    HW152619   0.985  10.054   8.102
83615SOL    HW252620   1.051  10.143   8.206
83616SOL     OW52621   4.196   9.961  13.709
83616SOL    HW152622   4.223   9.901  13.640
83616SOL    HW252623   4.250  10.039  13.696
83617SOL     OW52624  12.006   9.974   7.679
83617SOL    HW152625  11.943  10.001   7.746
83617SOL    HW252626  11.953   9.929   7.613
83618SOL     OW52627   9.778  13.369   6.381
83618SOL    HW152628   9.797  13.455   6.418
83618SOL    HW252629   9.690  13.348   6.412
83619SOL     OW52630  11.644   6.537   4.398
83619SOL    HW152631  11.636   6.632   4.390
83619SOL    HW252632  11.554   6.505   4.388
83620SOL     OW52633   5.412   3.345   8.685
83620SOL    HW152634   5.390   3.253   8.700
83620SOL    HW252635   5.347   3.375   8.622
83621SOL     OW52636   9.432   7.139   9.882
83621SOL    HW152637   9.403   7.048   9.877
83621SOL    HW252638   9.387   7.182   9.808
83622SOL     OW52639  10.879   8.120   3.725
83622SOL    HW152640  10.923   8.104   3.642
83622SOL    HW252641  10.912   8.052   3.783
83623SOL     OW52642   6.344   5.128  14.268
83623SOL    HW152643   6.249   5.121  14.284
83623SOL    HW252644   6.371   5.039  14.246
83624SOL     OW52645   5.087  13.844   1.123
83624SOL    HW152646   5.063  13.785   1.051
83624SOL    HW252647   5.180  13.859   1.110
83625SOL     OW52648   0.153   5.599   3.856
83625SOL    HW152649   0.182   5.690   3.848
83625SOL    HW252650   0.233   5.548   3.865
83626SOL     OW52651  10.313  13.337   9.571
83626SOL    HW152652  10.375  13.332   9.644
83626SOL    HW252653  10.334  13.261   9.516
83627SOL     OW52654   2.075   5.190   9.298
83627SOL    HW152655   2.019   5.150   9.232
83627SOL    HW252656   2.163   5.156   9.279
83628SOL     OW52657   9.554   0.775   5.451
83628SOL    HW152658   9.568   0.682   5.439
83628SOL    HW252659   9.519   0.806   5.367
83629SOL     OW52660  13.022  12.653   3.069
83629SOL    HW152661  13.031  12.560   3.089
83629SOL    HW252662  12.937  12.661   3.027
83630SOL     OW52663  10.022   5.981  14.512
83630SOL    HW152664  10.006   6.035  14.590
83630SOL    HW252665   9.939   5.982  14.465
83631SOL     OW52666  12.840   9.371   8.646
83631SOL    HW152667  12.812   9.405   8.731
83631SOL    HW252668  12.935   9.380   8.646
83632SOL     OW52669   0.405   3.608   1.289
83632SOL    HW152670   0.371   3.563   1.366
83632SOL    HW252671   0.355   3.689   1.285
83633SOL     OW52672   5.131   6.803   8.538
83633SOL    HW152673   5.140   6.772   8.448
83633SOL    HW252674   5.051   6.761   8.570
83634SOL     OW52675   6.224   2.132   3.238
83634SOL    HW152676   6.231   2.037   3.244
83634SOL    HW252677   6.275   2.165   3.312
83635SOL     OW52678   0.750  14.532   7.651
83635SOL    HW152679   0.762  14.499   7.562
83635SOL    HW252680   0.687  14.472   7.691
83636SOL     OW52681  11.721   9.777   8.652
83636SOL    HW152682  11.639   9.735   8.678
83636SOL    HW252683  11.787   9.708   8.660
83637SOL     OW52684  12.971   3.815   5.381
83637SOL    HW152685  12.895   3.758   5.388
83637SOL    HW252686  13.006   3.819   5.471
83638SOL     OW52687   5.342   8.934   8.187
83638SOL    HW152688   5.307   9.021   8.166
83638SOL    HW252689   5.268   8.886   8.222
83639SOL     OW52690  12.050   4.075   7.834
83639SOL    HW152691  11.986   4.111   7.895
83639SOL    HW252692  11.998   4.022   7.773
83640SOL     OW52693   6.015   6.028   3.675
83640SOL    HW152694   6.058   5.964   3.617
83640SOL    HW252695   6.004   5.981   3.758
83641SOL     OW52696   9.511   2.244  13.961
83641SOL    HW152697   9.455   2.179  13.918
83641SOL    HW252698   9.490   2.237  14.054
83642SOL     OW52699  10.891   9.565   8.185
83642SOL    HW152700  10.914   9.509   8.111
83642SOL    HW252701  10.798   9.549   8.201
83643SOL     OW52702   9.669   3.421   0.892
83643SOL    HW152703   9.746   3.441   0.945
83643SOL    HW252704   9.705   3.385   0.811
83644SOL     OW52705  13.463   6.491   8.052
83644SOL    HW152706  13.425   6.515   8.136
83644SOL    HW252707  13.391   6.500   7.989
83645SOL     OW52708   9.919   7.329   4.964
83645SOL    HW152709   9.894   7.416   4.994
83645SOL    HW252710   9.882   7.270   5.029
83646SOL     OW52711  11.950   0.477  11.513
83646SOL    HW152712  11.880   0.494  11.449
83646SOL    HW252713  11.913   0.504  11.597
83647SOL     OW52714   9.558   2.043  12.759
83647SOL    HW152715   9.568   2.058  12.665
83647SOL    HW252716   9.471   2.003  12.767
83648SOL     OW52717  14.632   9.494   8.445
83648SOL    HW152718  14.561   9.511   8.507
83648SOL    HW252719  14.711   9.500   8.497
83649SOL     OW52720  14.233   2.386   6.420
83649SOL    HW152721  14.156   2.329   6.424
83649SOL    HW252722  14.280   2.369   6.502
83650SOL     OW52723  12.259   8.427  10.851
83650SOL    HW152724  12.292   8.469  10.771
83650SOL    HW252725  12.173   8.392  10.826
83651SOL     OW52726   0.264  12.606   4.163
83651SOL    HW152727   0.337  12.611   4.102
83651SOL    HW252728   0.301  12.567   4.242
83652SOL     OW52729   2.926  12.423  13.321
83652SOL    HW152730   2.998  12.484  13.340
83652SOL    HW252731   2.857  12.478  13.284
83653SOL     OW52732   3.588   9.325  10.184
83653SOL    HW152733   3.524   9.357  10.247
83653SOL    HW252734   3.671   9.364  10.212
83654SOL     OW52735   8.978   6.207   4.055
83654SOL    HW152736   8.930   6.126   4.067
83654SOL    HW252737   8.912   6.276   4.058
83655SOL     OW52738  13.678   2.454   8.621
83655SOL    HW152739  13.691   2.364   8.651
83655SOL    HW252740  13.583   2.466   8.620
83656SOL     OW52741  11.902   6.855   4.345
83656SOL    HW152742  11.906   6.868   4.250
83656SOL    HW252743  11.810   6.842   4.365
83657SOL     OW52744  10.798  14.482   8.456
83657SOL    HW152745  10.722  14.460   8.510
83657SOL    HW252746  10.850  14.402   8.455
83658SOL     OW52747   1.547   1.288  11.056
83658SOL    HW152748   1.469   1.233  11.053
83658SOL    HW252749   1.605   1.245  11.119
83659SOL     OW52750   0.379   3.067  14.267
83659SOL    HW152751   0.436   3.141  14.288
83659SOL    HW252752   0.364   3.074  14.173
83660SOL     OW52753  14.581   1.146   3.726
83660SOL    HW152754  14.598   1.052   3.723
83660SOL    HW252755  14.600   1.171   3.816
83661SOL     OW52756   5.655  11.907  11.212
83661SOL    HW152757   5.695  11.969  11.152
83661SOL    HW252758   5.727  11.878  11.268
83662SOL     OW52759   5.745   3.849   7.510
83662SOL    HW152760   5.746   3.799   7.428
83662SOL    HW252761   5.789   3.931   7.489
83663SOL     OW52762   8.655  13.583  11.141
83663SOL    HW152763   8.681  13.667  11.105
83663SOL    HW252764   8.589  13.605  11.208
83664SOL     OW52765  12.191  13.824   4.073
83664SOL    HW152766  12.265  13.819   4.134
83664SOL    HW252767  12.119  13.858   4.126
83665SOL     OW52768  11.987   1.514  10.661
83665SOL    HW152769  12.081   1.531  10.655
83665SOL    HW252770  11.948   1.571  10.595
83666SOL     OW52771  11.527   3.094   4.130
83666SOL    HW152772  11.523   3.189   4.131
83666SOL    HW252773  11.446   3.067   4.087
83667SOL     OW52774   7.917   1.793   1.093
83667SOL    HW152775   7.845   1.799   1.030
83667SOL    HW252776   7.961   1.878   1.088
83668SOL     OW52777   4.770   3.943   5.277
83668SOL    HW152778   4.694   3.958   5.221
83668SOL    HW252779   4.815   3.868   5.238
83669SOL     OW52780  10.975  11.622  12.795
83669SOL    HW152781  11.033  11.549  12.813
83669SOL    HW252782  10.918  11.591  12.724
83670SOL     OW52783  10.960  10.009  12.586
83670SOL    HW152784  10.979  10.061  12.664
83670SOL    HW252785  11.040  10.012  12.535
83671SOL     OW52786   9.900   0.622   4.087
83671SOL    HW152787   9.968   0.652   4.027
83671SOL    HW252788   9.847   0.562   4.035
83672SOL     OW52789  13.891   3.178   6.749
83672SOL    HW152790  13.837   3.213   6.820
83672SOL    HW252791  13.908   3.087   6.774
83673SOL     OW52792   9.001   6.778   2.199
83673SOL    HW152793   9.064   6.849   2.184
83673SOL    HW252794   9.000   6.767   2.294
83674SOL     OW52795  12.332  10.310  13.370
83674SOL    HW152796  12.372  10.223  13.371
83674SOL    HW252797  12.397  10.367  13.329
83675SOL     OW52798   5.374  10.412   6.931
83675SOL    HW152799   5.457  10.395   6.885
83675SOL    HW252800   5.307  10.372   6.876
83676SOL     OW52801   9.611  14.133   2.188
83676SOL    HW152802   9.583  14.224   2.181
83676SOL    HW252803   9.542  14.083   2.144
83677SOL     OW52804   3.721  13.043  12.753
83677SOL    HW152805   3.685  12.995  12.828
83677SOL    HW252806   3.647  13.093  12.719
83678SOL     OW52807   0.436   0.335  11.142
83678SOL    HW152808   0.395   0.349  11.228
83678SOL    HW252809   0.483   0.417  11.125
83679SOL     OW52810  12.753   7.522  14.502
83679SOL    HW152811  12.723   7.608  14.533
83679SOL    HW252812  12.745   7.527  14.407
83680SOL     OW52813  11.147   1.807  11.906
83680SOL    HW152814  11.109   1.780  11.822
83680SOL    HW252815  11.076   1.795  11.969
83681SOL     OW52816   9.857   4.998   0.172
83681SOL    HW152817   9.935   5.007   0.226
83681SOL    HW252818   9.794   4.951   0.226
83682SOL     OW52819  11.064   7.102  13.843
83682SOL    HW152820  11.016   7.139  13.769
83682SOL    HW252821  11.113   7.176  13.879
83683SOL     OW52822   5.340   0.334   1.036
83683SOL    HW152823   5.302   0.355   1.121
83683SOL    HW252824   5.279   0.272   0.997
83684SOL     OW52825  11.984   0.487   9.365
83684SOL    HW152826  12.046   0.420   9.393
83684SOL    HW252827  11.945   0.453   9.284
83685SOL     OW52828   8.062  10.170  13.843
83685SOL    HW152829   8.074  10.198  13.934
83685SOL    HW252830   7.981  10.119  13.844
83686SOL     OW52831   1.893   6.489   2.253
83686SOL    HW152832   1.929   6.508   2.340
83686SOL    HW252833   1.802   6.518   2.259
83687SOL     OW52834   4.721  12.943   5.748
83687SOL    HW152835   4.801  12.907   5.710
83687SOL    HW252836   4.685  12.872   5.801
83688SOL     OW52837  10.645   1.902  14.697
83688SOL    HW152838  10.579   1.878  14.632
83688SOL    HW252839  10.595   1.945  14.766
83689SOL     OW52840   4.218   4.727   6.314
83689SOL    HW152841   4.305   4.688   6.307
83689SOL    HW252842   4.163   4.656   6.350
83690SOL     OW52843  11.066  12.664   0.015
83690SOL    HW152844  11.071  12.755  14.865
83690SOL    HW252845  11.141  12.652   0.074
83691SOL     OW52846  14.804   0.326   1.011
83691SOL    HW152847  14.794   0.265   0.937
83691SOL    HW252848  14.830   0.408   0.971
83692SOL     OW52849   4.502   8.561   1.357
83692SOL    HW152850   4.433   8.496   1.341
83692SOL    HW252851   4.580   8.508   1.374
83693SOL     OW52852   6.997   8.124   7.524
83693SOL    HW152853   7.068   8.060   7.520
83693SOL    HW252854   6.960   8.124   7.436
83694SOL     OW52855   9.249   0.453   4.448
83694SOL    HW152856   9.241   0.392   4.521
83694SOL    HW252857   9.262   0.538   4.489
83695SOL     OW52858   5.167  13.289   2.782
83695SOL    HW152859   5.194  13.280   2.874
83695SOL    HW252860   5.119  13.372   2.780
83696SOL     OW52861   1.416  10.198   4.804
83696SOL    HW152862   1.467  10.149   4.868
83696SOL    HW252863   1.348  10.242   4.855
83697SOL     OW52864   8.754   9.318   3.793
83697SOL    HW152865   8.818   9.344   3.858
83697SOL    HW252866   8.677   9.371   3.812
83698SOL     OW52867  11.829   8.191   1.653
83698SOL    HW152868  11.884   8.269   1.648
83698SOL    HW252869  11.869   8.129   1.593
83699SOL     OW52870   5.740   6.001   9.948
83699SOL    HW152871   5.661   5.950   9.928
83699SOL    HW252872   5.713   6.092   9.935
83700SOL     OW52873  13.207  10.242   7.202
83700SOL    HW152874  13.268  10.237   7.276
83700SOL    HW252875  13.121  10.234   7.243
83701SOL     OW52876   4.761   0.455   2.295
83701SOL    HW152877   4.681   0.471   2.346
83701SOL    HW252878   4.738   0.382   2.238
83702SOL     OW52879   4.122  12.853   4.003
83702SOL    HW152880   4.111  12.764   4.036
83702SOL    HW252881   4.207  12.851   3.959
83703SOL     OW52882   7.961   2.822   7.192
83703SOL    HW152883   7.883   2.783   7.154
83703SOL    HW252884   8.018   2.841   7.117
83704SOL     OW52885   9.987   9.760   6.775
83704SOL    HW152886  10.071   9.723   6.749
83704SOL    HW252887  10.004   9.853   6.790
83705SOL     OW52888  11.094   4.861   1.120
83705SOL    HW152889  11.010   4.867   1.167
83705SOL    HW252890  11.115   4.951   1.098
83706SOL     OW52891   5.696   6.059  12.311
83706SOL    HW152892   5.606   6.080  12.287
83706SOL    HW252893   5.730   6.140  12.349
83707SOL     OW52894   0.917   8.536   7.051
83707SOL    HW152895   0.880   8.576   7.130
83707SOL    HW252896   0.876   8.584   6.979
83708SOL     OW52897   2.275   0.682   7.076
83708SOL    HW152898   2.368   0.662   7.069
83708SOL    HW252899   2.243   0.681   6.986
83709SOL     OW52900   0.811   3.854   0.340
83709SOL    HW152901   0.863   3.903   0.276
83709SOL    HW252902   0.785   3.774   0.294
83710SOL     OW52903  14.149   2.703   1.264
83710SOL    HW152904  14.214   2.690   1.333
83710SOL    HW252905  14.198   2.741   1.191
83711SOL     OW52906   9.861   1.137   2.679
83711SOL    HW152907   9.877   1.219   2.726
83711SOL    HW252908   9.923   1.139   2.606
83712SOL     OW52909   1.822  10.833  14.343
83712SOL    HW152910   1.817  10.799  14.254
83712SOL    HW252911   1.731  10.835  14.373
83713SOL     OW52912   3.229   2.907   2.999
83713SOL    HW152913   3.297   2.914   3.067
83713SOL    HW252914   3.261   2.962   2.928
83714SOL     OW52915   8.880   5.969   7.772
83714SOL    HW152916   8.916   5.884   7.798
83714SOL    HW252917   8.885   6.022   7.851
83715SOL     OW52918   1.773   1.791   7.910
83715SOL    HW152919   1.749   1.882   7.896
83715SOL    HW252920   1.849   1.777   7.853
83716SOL     OW52921   2.418   9.610  10.672
83716SOL    HW152922   2.477   9.545  10.634
83716SOL    HW252923   2.461   9.637  10.754
83717SOL     OW52924   3.170  12.598   2.183
83717SOL    HW152925   3.247  12.643   2.148
83717SOL    HW252926   3.186  12.505   2.165
83718SOL     OW52927   8.821   0.135   9.320
83718SOL    HW152928   8.754   0.082   9.362
83718SOL    HW252929   8.864   0.182   9.392
83719SOL     OW52930   1.654   2.401   2.866
83719SOL    HW152931   1.631   2.326   2.920
83719SOL    HW252932   1.613   2.475   2.910
83720SOL     OW52933   7.050  10.471  14.509
83720SOL    HW152934   7.025  10.563  14.516
83720SOL    HW252935   7.135  10.473  14.465
83721SOL     OW52936  12.451   5.875   8.852
83721SOL    HW152937  12.364   5.846   8.881
83721SOL    HW252938  12.499   5.794   8.836
83722SOL     OW52939   3.106  11.316  10.612
83722SOL    HW152940   3.041  11.367  10.563
83722SOL    HW252941   3.104  11.230  10.571
83723SOL     OW52942   4.374  14.252  12.400
83723SOL    HW152943   4.409  14.341  12.407
83723SOL    HW252944   4.329  14.237  12.483
83724SOL     OW52945   7.025  10.768  10.215
83724SOL    HW152946   6.987  10.782  10.128
83724SOL    HW252947   7.026  10.673  10.225
83725SOL     OW52948  11.566  10.781   1.649
83725SOL    HW152949  11.502  10.793   1.579
83725SOL    HW252950  11.618  10.862   1.647
83726SOL     OW52951   0.785   0.537   6.467
83726SOL    HW152952   0.696   0.565   6.446
83726SOL    HW252953   0.799   0.569   6.556
83727SOL     OW52954  14.552  14.185   8.677
83727SOL    HW152955  14.497  14.184   8.755
83727SOL    HW252956  14.564  14.278   8.657
83728SOL     OW52957   3.948   9.255  12.055
83728SOL    HW152958   3.929   9.326  11.994
83728SOL    HW252959   3.894   9.276  12.132
83729SOL     OW52960  12.929   6.143   4.922
83729SOL    HW152961  12.987   6.168   4.994
83729SOL    HW252962  12.945   6.208   4.854
83730SOL     OW52963   3.170   4.480   2.840
83730SOL    HW152964   3.080   4.450   2.834
83730SOL    HW252965   3.179   4.543   2.768
83731SOL     OW52966   1.682   5.933   1.415
83731SOL    HW152967   1.685   5.848   1.370
83731SOL    HW252968   1.773   5.952   1.437
83732SOL     OW52969   6.615  11.511   1.541
83732SOL    HW152970   6.688  11.563   1.576
83732SOL    HW252971   6.584  11.459   1.615
83733SOL     OW52972   7.429   9.766  14.371
83733SOL    HW152973   7.463   9.774  14.281
83733SOL    HW252974   7.401   9.854  14.394
83734SOL     OW52975   2.682   7.846   9.672
83734SOL    HW152976   2.697   7.925   9.620
83734SOL    HW252977   2.599   7.862   9.717
83735SOL     OW52978   8.302   4.505  11.130
83735SOL    HW152979   8.236   4.520  11.062
83735SOL    HW252980   8.351   4.587  11.134
83736SOL     OW52981   5.170   6.804  13.303
83736SOL    HW152982   5.106   6.840  13.364
83736SOL    HW252983   5.125   6.808  13.218
83737SOL     OW52984   8.814  14.179   0.408
83737SOL    HW152985   8.789  14.102   0.357
83737SOL    HW252986   8.754  14.180   0.483
83738SOL     OW52987   6.368   8.941   7.881
83738SOL    HW152988   6.325   8.862   7.848
83738SOL    HW252989   6.299   8.990   7.924
83739SOL     OW52990  10.308  13.955  12.749
83739SOL    HW152991  10.300  13.933  12.656
83739SOL    HW252992  10.306  13.871  12.794
83740SOL     OW52993   3.931  10.039   7.975
83740SOL    HW152994   3.928  10.099   7.900
83740SOL    HW252995   3.841  10.035   8.007
83741SOL     OW52996   7.419   4.984  10.705
83741SOL    HW152997   7.398   5.048  10.772
83741SOL    HW252998   7.506   4.951  10.728
83742SOL     OW52999   0.206   0.528   2.768
83742SOL    HW153000   0.135   0.535   2.705
83742SOL    HW253001   0.211   0.435   2.788
83743SOL     OW53002   9.352   2.386   0.688
83743SOL    HW153003   9.256   2.387   0.696
83743SOL    HW253004   9.373   2.470   0.647
83744SOL     OW53005   9.901  14.324   7.468
83744SOL    HW153006   9.914  14.362   7.555
83744SOL    HW253007   9.902  14.400   7.408
83745SOL     OW53008   1.877   7.908   4.448
83745SOL    HW153009   1.831   7.982   4.487
83745SOL    HW253010   1.815   7.835   4.453
83746SOL     OW53011   7.016   4.130   9.171
83746SOL    HW153012   6.997   4.037   9.179
83746SOL    HW253013   6.948   4.174   9.222
83747SOL     OW53014   1.091   0.881   0.001
83747SOL    HW153015   1.069   0.901   0.092
83747SOL    HW253016   1.181   0.912  14.869
83748SOL     OW53017  12.519  13.701   5.287
83748SOL    HW153018  12.581  13.719   5.358
83748SOL    HW253019  12.493  13.787   5.255
83749SOL     OW53020   7.741  13.305  10.173
83749SOL    HW153021   7.718  13.215  10.150
83749SOL    HW253022   7.747  13.350  10.088
83750SOL     OW53023  10.568  14.712  14.600
83750SOL    HW153024  10.626  14.785  14.578
83750SOL    HW253025  10.565  14.659  14.521
83751SOL     OW53026  13.709   5.701   6.305
83751SOL    HW153027  13.718   5.674   6.396
83751SOL    HW253028  13.664   5.628   6.263
83752SOL     OW53029  12.277   8.597   5.357
83752SOL    HW153030  12.278   8.638   5.443
83752SOL    HW253031  12.256   8.505   5.375
83753SOL     OW53032   4.342   5.461  12.682
83753SOL    HW153033   4.365   5.374  12.649
83753SOL    HW253034   4.294   5.502  12.611
83754SOL     OW53035   8.734   0.691  13.922
83754SOL    HW153036   8.801   0.726  13.981
83754SOL    HW253037   8.766   0.604  13.899
83755SOL     OW53038   3.152   7.906   2.809
83755SOL    HW153039   3.176   7.906   2.717
83755SOL    HW253040   3.224   7.861   2.853
83756SOL     OW53041   5.280   2.495   5.678
83756SOL    HW153042   5.375   2.492   5.681
83756SOL    HW253043   5.255   2.551   5.751
83757SOL     OW53044  10.560   1.551   9.853
83757SOL    HW153045  10.521   1.500   9.782
83757SOL    HW253046  10.573   1.487   9.924
83758SOL     OW53047  10.771  13.094   3.632
83758SOL    HW153048  10.721  13.080   3.712
83758SOL    HW253049  10.851  13.139   3.661
83759SOL     OW53050   1.402   3.408  10.905
83759SOL    HW153051   1.314   3.430  10.873
83759SOL    HW253052   1.434   3.490  10.944
83760SOL     OW53053  11.837  11.212   1.675
83760SOL    HW153054  11.760  11.256   1.711
83760SOL    HW253055  11.909  11.240   1.731
83761SOL     OW53056  14.637  14.127   4.024
83761SOL    HW153057  14.637  14.084   3.938
83761SOL    HW253058  14.730  14.132   4.048
83762SOL     OW53059   4.378   6.870   9.774
83762SOL    HW153060   4.290   6.885   9.808
83762SOL    HW253061   4.401   6.782   9.805
83763SOL     OW53062  13.998   8.433   5.105
83763SOL    HW153063  14.030   8.447   5.016
83763SOL    HW253064  14.055   8.364   5.140
83764SOL     OW53065  10.996   9.560  11.377
83764SOL    HW153066  10.950   9.494  11.429
83764SOL    HW253067  10.986   9.531  11.287
83765SOL     OW53068  11.962   9.812   9.873
83765SOL    HW153069  11.921   9.843   9.954
83765SOL    HW253070  12.050   9.787   9.899
83766SOL     OW53071   5.212  10.698  14.499
83766SOL    HW153072   5.208  10.607  14.527
83766SOL    HW253073   5.305  10.719  14.497
83767SOL     OW53074  12.251   1.905   7.793
83767SOL    HW153075  12.180   1.842   7.800
83767SOL    HW253076  12.331   1.853   7.794
83768SOL     OW53077   3.202   2.478   0.053
83768SOL    HW153078   3.278   2.531   0.028
83768SOL    HW253079   3.208   2.400  14.876
83769SOL     OW53080  12.020  14.627   4.318
83769SOL    HW153081  12.031  14.636   4.413
83769SOL    HW253082  11.944  14.682   4.297
83770SOL     OW53083   6.845   3.850   6.824
83770SOL    HW153084   6.809   3.855   6.736
83770SOL    HW253085   6.832   3.759   6.851
83771SOL     OW53086  14.664   9.797  12.246
83771SOL    HW153087  14.654   9.702  12.245
83771SOL    HW253088  14.613   9.826  12.322
83772SOL     OW53089   9.221   0.648   5.489
83772SOL    HW153090   9.259   0.630   5.575
83772SOL    HW253091   9.258   0.581   5.432
83773SOL     OW53092   9.364  10.649   5.686
83773SOL    HW153093   9.403  10.645   5.599
83773SOL    HW253094   9.274  10.678   5.672
83774SOL     OW53095  10.770   1.677  13.532
83774SOL    HW153096  10.823   1.701  13.608
83774SOL    HW253097  10.831   1.633  13.473
83775SOL     OW53098   8.451   5.833   7.042
83775SOL    HW153099   8.452   5.911   6.988
83775SOL    HW253100   8.507   5.770   6.996
83776SOL     OW53101   1.913  11.549   1.072
83776SOL    HW153102   1.875  11.471   1.031
83776SOL    HW253103   1.911  11.529   1.166
83777SOL     OW53104  10.752   4.110  10.378
83777SOL    HW153105  10.693   4.172  10.336
83777SOL    HW253106  10.699   4.032  10.393
83778SOL     OW53107   0.135   3.050  12.693
83778SOL    HW153108   0.119   2.959  12.717
83778SOL    HW253109   0.048   3.084  12.671
83779SOL     OW53110   3.533  14.811   6.737
83779SOL    HW153111   3.449  14.772   6.762
83779SOL    HW253112   3.551  14.875   6.806
83780SOL     OW53113   5.437   3.410   2.803
83780SOL    HW153114   5.472   3.321   2.793
83780SOL    HW253115   5.513   3.464   2.823
83781SOL     OW53116   6.926   7.169  12.463
83781SOL    HW153117   6.995   7.219  12.419
83781SOL    HW253118   6.926   7.203  12.552
83782SOL     OW53119   7.580   4.372  12.157
83782SOL    HW153120   7.615   4.293  12.200
83782SOL    HW253121   7.627   4.377  12.074
83783SOL     OW53122   3.307  10.229   1.547
83783SOL    HW153123   3.277  10.139   1.551
83783SOL    HW253124   3.228  10.282   1.558
83784SOL     OW53125   3.691   9.567   2.432
83784SOL    HW153126   3.741   9.648   2.418
83784SOL    HW253127   3.681   9.530   2.344
83785SOL     OW53128   7.345   2.969   9.366
83785SOL    HW153129   7.403   2.991   9.293
83785SOL    HW253130   7.341   2.874   9.366
83786SOL     OW53131   7.724  13.181   3.706
83786SOL    HW153132   7.642  13.223   3.680
83786SOL    HW253133   7.697  13.117   3.772
83787SOL     OW53134   5.588   2.278  12.785
83787SOL    HW153135   5.553   2.191  12.764
83787SOL    HW253136   5.677   2.277  12.750
83788SOL     OW53137   7.933  12.128   5.511
83788SOL    HW153138   7.906  12.112   5.421
83788SOL    HW253139   8.018  12.172   5.504
83789SOL     OW53140   5.123  10.602   2.701
83789SOL    HW153141   5.212  10.566   2.705
83789SOL    HW253142   5.136  10.693   2.674
83790SOL     OW53143   5.118   1.265  13.700
83790SOL    HW153144   5.090   1.181  13.663
83790SOL    HW253145   5.114   1.326  13.627
83791SOL     OW53146   2.999   1.764  14.582
83791SOL    HW153147   3.012   1.819  14.505
83791SOL    HW253148   3.044   1.682  14.561
83792SOL     OW53149   2.699  12.643  12.509
83792SOL    HW153150   2.696  12.632  12.604
83792SOL    HW253151   2.680  12.736  12.496
83793SOL     OW53152   2.547   6.343  11.134
83793SOL    HW153153   2.462   6.331  11.174
83793SOL    HW253154   2.598   6.266  11.159
83794SOL     OW53155   1.535   4.891   3.514
83794SOL    HW153156   1.573   4.803   3.519
83794SOL    HW253157   1.464   4.890   3.578
83795SOL     OW53158   3.421   3.440  13.651
83795SOL    HW153159   3.486   3.452  13.720
83795SOL    HW253160   3.415   3.345  13.639
83796SOL     OW53161  11.256   9.184  14.598
83796SOL    HW153162  11.330   9.124  14.587
83796SOL    HW253163  11.201   9.143  14.664
83797SOL     OW53164   0.975  14.073  12.204
83797SOL    HW153165   1.030  14.123  12.144
83797SOL    HW253166   0.928  14.140  12.255
83798SOL     OW53167   4.409   0.583  11.866
83798SOL    HW153168   4.480   0.528  11.900
83798SOL    HW253169   4.424   0.668  11.906
83799SOL     OW53170  10.115  14.141   0.265
83799SOL    HW153171  10.152  14.178   0.186
83799SOL    HW253172  10.025  14.118   0.241
83800SOL     OW53173   8.905   7.689   3.887
83800SOL    HW153174   8.948   7.620   3.836
83800SOL    HW253175   8.977   7.739   3.925
83801SOL     OW53176  11.393  11.684  10.749
83801SOL    HW153177  11.323  11.619  10.751
83801SOL    HW253178  11.451  11.655  10.679
83802SOL     OW53179   1.653  10.536   7.886
83802SOL    HW153180   1.648  10.506   7.795
83802SOL    HW253181   1.567  10.513   7.923
83803SOL     OW53182   8.409   6.417   0.793
83803SOL    HW153183   8.352   6.470   0.737
83803SOL    HW253184   8.376   6.328   0.784
83804SOL     OW53185   4.429  14.545  12.455
83804SOL    HW153186   4.407  14.637  12.440
83804SOL    HW253187   4.410  14.530  12.548
83805SOL     OW53188  11.711   5.017   1.641
83805SOL    HW153189  11.799   4.985   1.622
83805SOL    HW253190  11.671   4.946   1.693
83806SOL     OW53191   2.934  12.407   2.770
83806SOL    HW153192   2.892  12.335   2.724
83806SOL    HW253193   3.001  12.439   2.708
83807SOL     OW53194   5.463   3.346   7.589
83807SOL    HW153195   5.409   3.357   7.667
83807SOL    HW253196   5.551   3.372   7.617
83808SOL     OW53197   8.123  11.188   5.782
83808SOL    HW153198   8.157  11.144   5.860
83808SOL    HW253199   8.114  11.119   5.717
83809SOL     OW53200   5.841   3.430  14.622
83809SOL    HW153201   5.839   3.457  14.714
83809SOL    HW253202   5.760   3.380  14.610
83810SOL     OW53203   1.302   0.753   3.982
83810SOL    HW153204   1.319   0.658   3.985
83810SOL    HW253205   1.261   0.773   4.066
83811SOL     OW53206  13.370  13.420   8.760
83811SOL    HW153207  13.297  13.460   8.808
83811SOL    HW253208  13.382  13.335   8.803
83812SOL     OW53209   5.263   0.803  12.315
83812SOL    HW153210   5.353   0.824  12.289
83812SOL    HW253211   5.240   0.871  12.378
83813SOL     OW53212   3.072   0.495   8.939
83813SOL    HW153213   3.046   0.587   8.940
83813SOL    HW253214   2.990   0.447   8.929
83814SOL     OW53215  12.999  11.338  13.466
83814SOL    HW153216  12.944  11.396  13.413
83814SOL    HW253217  13.072  11.393  13.493
83815SOL     OW53218  10.959   0.437   3.162
83815SOL    HW153219  10.981   0.503   3.096
83815SOL    HW253220  11.018   0.364   3.143
83816SOL     OW53221   6.691   8.200   9.530
83816SOL    HW153222   6.599   8.178   9.513
83816SOL    HW253223   6.740   8.145   9.469
83817SOL     OW53224   6.216   1.693   9.172
83817SOL    HW153225   6.243   1.782   9.148
83817SOL    HW253226   6.166   1.662   9.096
83818SOL     OW53227  13.573   9.361  12.998
83818SOL    HW153228  13.534   9.318  12.922
83818SOL    HW253229  13.608   9.443  12.964
83819SOL     OW53230  14.191   3.062   4.461
83819SOL    HW153231  14.229   3.083   4.375
83819SOL    HW253232  14.160   2.972   4.453
83820SOL     OW53233   3.506   5.105   5.930
83820SOL    HW153234   3.544   5.193   5.919
83820SOL    HW253235   3.526   5.061   5.847
83821SOL     OW53236   8.171  12.794   6.165
83821SOL    HW153237   8.163  12.732   6.093
83821SOL    HW253238   8.174  12.879   6.123
83822SOL     OW53239  10.990   5.955  14.659
83822SOL    HW153240  11.070   5.923  14.616
83822SOL    HW253241  11.021   6.019  14.723
83823SOL     OW53242  10.808   2.786   5.562
83823SOL    HW153243  10.814   2.691   5.553
83823SOL    HW253244  10.818   2.802   5.655
83824SOL     OW53245  10.063   9.084  10.371
83824SOL    HW153246  10.112   9.059  10.293
83824SOL    HW253247  10.114   9.155  10.410
83825SOL     OW53248  14.515  11.044   6.310
83825SOL    HW153249  14.435  11.019   6.265
83825SOL    HW253250  14.570  11.084   6.242
83826SOL     OW53251  11.283   7.128   2.301
83826SOL    HW153252  11.325   7.187   2.237
83826SOL    HW253253  11.301   7.169   2.386
83827SOL     OW53254  10.569   5.031   0.654
83827SOL    HW153255  10.512   5.034   0.730
83827SOL    HW253256  10.626   5.107   0.663
83828SOL     OW53257   1.956   2.342   3.587
83828SOL    HW153258   1.937   2.399   3.513
83828SOL    HW253259   1.905   2.378   3.660
83829SOL     OW53260   7.359   6.113   5.542
83829SOL    HW153261   7.302   6.186   5.562
83829SOL    HW253262   7.444   6.153   5.522
83830SOL     OW53263  12.862   0.754   6.314
83830SOL    HW153264  12.820   0.670   6.335
83830SOL    HW253265  12.910   0.777   6.393
83831SOL     OW53266   1.687   7.401   1.213
83831SOL    HW153267   1.773   7.375   1.179
83831SOL    HW253268   1.691   7.497   1.216
83832SOL     OW53269  12.131   2.111   1.890
83832SOL    HW153270  12.209   2.102   1.835
83832SOL    HW253271  12.144   2.047   1.960
83833SOL     OW53272  14.667   8.351   3.088
83833SOL    HW153273  14.665   8.426   3.028
83833SOL    HW253274  14.578   8.345   3.122
83834SOL     OW53275   6.318   4.050   9.137
83834SOL    HW153276   6.390   4.009   9.089
83834SOL    HW253277   6.264   3.976   9.166
83835SOL     OW53278  13.247   4.910  13.933
83835SOL    HW153279  13.243   4.867  13.848
83835SOL    HW253280  13.200   4.851  13.992
83836SOL     OW53281  14.131   5.022  14.299
83836SOL    HW153282  14.150   5.054  14.387
83836SOL    HW253283  14.048   5.064  14.276
83837SOL     OW53284   9.835   1.304  10.051
83837SOL    HW153285   9.929   1.319  10.040
83837SOL    HW253286   9.793   1.365   9.991
83838SOL     OW53287   0.050  14.628   9.538
83838SOL    HW153288   0.124  14.670   9.581
83838SOL    HW253289  14.851  14.656   9.589
83839SOL     OW53290  14.709  10.157   1.004
83839SOL    HW153291  14.663  10.086   0.958
83839SOL    HW253292  14.694  10.234   0.950
83840SOL     OW53293  12.426   7.388   5.650
83840SOL    HW153294  12.493   7.320   5.640
83840SOL    HW253295  12.440   7.422   5.738
83841SOL     OW53296   6.488   2.727   5.212
83841SOL    HW153297   6.553   2.797   5.216
83841SOL    HW253298   6.445   2.740   5.127
83842SOL     OW53299   6.279   0.174   6.498
83842SOL    HW153300   6.265   0.149   6.407
83842SOL    HW253301   6.258   0.268   6.500
83843SOL     OW53302   7.158   7.267  11.568
83843SOL    HW153303   7.086   7.206  11.552
83843SOL    HW253304   7.213   7.260  11.490
83844SOL     OW53305   6.681   9.054   0.580
83844SOL    HW153306   6.597   9.085   0.614
83844SOL    HW253307   6.738   9.050   0.656
83845SOL     OW53308   2.897   3.379  12.138
83845SOL    HW153309   2.961   3.311  12.115
83845SOL    HW253310   2.950   3.452  12.171
83846SOL     OW53311  12.612   3.377   9.609
83846SOL    HW153312  12.666   3.299   9.598
83846SOL    HW253313  12.670   3.450   9.586
83847SOL     OW53314  12.176  14.417   0.578
83847SOL    HW153315  12.201  14.333   0.616
83847SOL    HW253316  12.253  14.445   0.529
83848SOL     OW53317   1.107   6.027  11.005
83848SOL    HW153318   1.077   5.937  11.014
83848SOL    HW253319   1.054   6.076  11.068
83849SOL     OW53320   6.153   5.093   0.150
83849SOL    HW153321   6.191   5.011   0.118
83849SOL    HW253322   6.226   5.155   0.150
83850SOL     OW53323  13.370  11.483   7.662
83850SOL    HW153324  13.404  11.407   7.616
83850SOL    HW253325  13.437  11.550   7.651
83851SOL     OW53326   4.877   7.447   6.928
83851SOL    HW153327   4.922   7.438   7.012
83851SOL    HW253328   4.799   7.391   6.937
83852SOL     OW53329  12.303  10.870   8.336
83852SOL    HW153330  12.283  10.946   8.281
83852SOL    HW253331  12.336  10.804   8.274
83853SOL     OW53332  12.427   9.263   3.363
83853SOL    HW153333  12.371   9.242   3.288
83853SOL    HW253334  12.381   9.226   3.439
83854SOL     OW53335  10.686  11.021   9.785
83854SOL    HW153336  10.633  11.063   9.852
83854SOL    HW253337  10.647  11.049   9.702
83855SOL     OW53338   0.358   5.296   7.023
83855SOL    HW153339   0.279   5.254   7.055
83855SOL    HW253340   0.386   5.242   6.949
83856SOL     OW53341  13.587  11.259   2.654
83856SOL    HW153342  13.512  11.240   2.597
83856SOL    HW253343  13.587  11.188   2.718
83857SOL     OW53344  12.312  14.076   8.024
83857SOL    HW153345  12.239  14.016   8.031
83857SOL    HW253346  12.337  14.073   7.932
83858SOL     OW53347   5.562   0.631   1.025
83858SOL    HW153348   5.612   0.575   0.966
83858SOL    HW253349   5.473   0.628   0.992
83859SOL     OW53350   3.051   6.613   6.612
83859SOL    HW153351   2.998   6.547   6.568
83859SOL    HW253352   3.003   6.695   6.600
83860SOL     OW53353   9.554   2.639   5.453
83860SOL    HW153354   9.612   2.579   5.499
83860SOL    HW253355   9.504   2.683   5.522
83861SOL     OW53356   3.143   6.513  14.345
83861SOL    HW153357   3.238   6.523  14.334
83861SOL    HW253358   3.116   6.588  14.398
83862SOL     OW53359   9.987   0.801   0.825
83862SOL    HW153360   9.894   0.812   0.804
83862SOL    HW253361  10.022   0.890   0.824
83863SOL     OW53362   1.557   8.443   9.436
83863SOL    HW153363   1.530   8.449   9.344
83863SOL    HW253364   1.475   8.439   9.485
83864SOL     OW53365   1.172  10.823  13.848
83864SOL    HW153366   1.171  10.759  13.919
83864SOL    HW253367   1.113  10.892  13.878
83865SOL     OW53368   7.534   0.890  14.186
83865SOL    HW153369   7.624   0.906  14.215
83865SOL    HW253370   7.484   0.963  14.222
83866SOL     OW53371   7.120   9.512   5.349
83866SOL    HW153372   7.055   9.572   5.314
83866SOL    HW253373   7.202   9.561   5.347
83867SOL     OW53374   3.809  13.143   0.904
83867SOL    HW153375   3.743  13.169   0.968
83867SOL    HW253376   3.835  13.054   0.930
83868SOL     OW53377   2.683   0.605  11.318
83868SOL    HW153378   2.646   0.519  11.338
83868SOL    HW253379   2.694   0.647  11.403
83869SOL     OW53380  14.269  12.914   4.428
83869SOL    HW153381  14.258  12.874   4.514
83869SOL    HW253382  14.286  13.006   4.448
83870SOL     OW53383   3.312  12.328  10.320
83870SOL    HW153384   3.375  12.285  10.377
83870SOL    HW253385   3.361  12.400  10.280
83871SOL     OW53386   1.238  14.507  12.589
83871SOL    HW153387   1.221  14.436  12.651
83871SOL    HW253388   1.158  14.558  12.587
83872SOL     OW53389   2.095  10.742  10.892
83872SOL    HW153390   2.089  10.705  10.980
83872SOL    HW253391   2.011  10.722  10.851
83873SOL     OW53392   3.605   5.821  11.783
83873SOL    HW153393   3.568   5.855  11.702
83873SOL    HW253394   3.606   5.895  11.843
83874SOL     OW53395   9.325  14.553   5.316
83874SOL    HW153396   9.343  14.647   5.309
83874SOL    HW253397   9.389  14.512   5.258
83875SOL     OW53398   4.909   2.980  11.978
83875SOL    HW153399   4.981   2.922  11.951
83875SOL    HW253400   4.925   2.997  12.071
83876SOL     OW53401   4.596  10.132   0.619
83876SOL    HW153402   4.582  10.158   0.528
83876SOL    HW253403   4.680  10.086   0.618
83877SOL     OW53404  13.547  11.939   3.155
83877SOL    HW153405  13.517  12.026   3.128
83877SOL    HW253406  13.619  11.956   3.215
83878SOL     OW53407   4.318   9.938   5.576
83878SOL    HW153408   4.387   9.978   5.524
83878SOL    HW253409   4.248   9.919   5.513
83879SOL     OW53410   9.334  10.969  11.827
83879SOL    HW153411   9.362  11.059  11.809
83879SOL    HW253412   9.281  10.945  11.752
83880SOL     OW53413   5.496  10.896   2.914
83880SOL    HW153414   5.440  10.938   2.848
83880SOL    HW253415   5.511  10.963   2.980
83881SOL     OW53416  12.289  13.974  13.823
83881SOL    HW153417  12.276  13.995  13.730
83881SOL    HW253418  12.342  14.045  13.857
83882SOL     OW53419   4.603  12.330   2.272
83882SOL    HW153420   4.508  12.319   2.268
83882SOL    HW253421   4.621  12.405   2.215
83883SOL     OW53422   6.259  13.176  14.673
83883SOL    HW153423   6.251  13.241  14.603
83883SOL    HW253424   6.244  13.226  14.754
83884SOL     OW53425   2.361   7.291   3.936
83884SOL    HW153426   2.385   7.336   3.855
83884SOL    HW253427   2.269   7.269   3.926
83885SOL     OW53428   2.466   7.695  11.563
83885SOL    HW153429   2.503   7.737  11.485
83885SOL    HW253430   2.401   7.633  11.528
83886SOL     OW53431   1.000   7.409  12.090
83886SOL    HW153432   0.927   7.467  12.067
83886SOL    HW253433   0.995   7.338  12.025
83887SOL     OW53434   2.539   4.643  12.862
83887SOL    HW153435   2.496   4.558  12.873
83887SOL    HW253436   2.545   4.679  12.950
83888SOL     OW53437   3.992   0.679   9.699
83888SOL    HW153438   3.949   0.643   9.622
83888SOL    HW253439   3.953   0.633   9.773
83889SOL     OW53440  14.046  11.392   2.849
83889SOL    HW153441  13.998  11.382   2.767
83889SOL    HW253442  13.981  11.427   2.910
83890SOL     OW53443   8.575  13.527   0.674
83890SOL    HW153444   8.501  13.470   0.656
83890SOL    HW253445   8.632  13.476   0.731
83891SOL     OW53446   6.820  11.935  12.777
83891SOL    HW153447   6.883  11.884  12.828
83891SOL    HW253448   6.842  12.026  12.796
83892SOL     OW53449  10.217  12.075   8.966
83892SOL    HW153450  10.221  12.166   8.938
83892SOL    HW253451  10.147  12.073   9.031
83893SOL     OW53452   4.107  11.636   9.974
83893SOL    HW153453   4.166  11.684  10.031
83893SOL    HW253454   4.139  11.653   9.885
83894SOL     OW53455   7.602   6.681   1.513
83894SOL    HW153456   7.524   6.728   1.485
83894SOL    HW253457   7.651   6.666   1.432
83895SOL     OW53458  13.314   3.705  14.256
83895SOL    HW153459  13.239   3.763  14.242
83895SOL    HW253460  13.293   3.657  14.336
83896SOL     OW53461   3.544   7.635   8.307
83896SOL    HW153462   3.615   7.670   8.254
83896SOL    HW253463   3.569   7.545   8.325
83897SOL     OW53464   1.653   5.649   9.414
83897SOL    HW153465   1.745   5.640   9.392
83897SOL    HW253466   1.648   5.729   9.466
83898SOL     OW53467   6.595   0.376   8.869
83898SOL    HW153468   6.629   0.425   8.794
83898SOL    HW253469   6.547   0.303   8.830
83899SOL     OW53470   5.446   5.533  11.359
83899SOL    HW153471   5.469   5.496  11.274
83899SOL    HW253472   5.417   5.622  11.339
83900SOL     OW53473  11.669   8.643   9.792
83900SOL    HW153474  11.686   8.551   9.773
83900SOL    HW253475  11.711   8.690   9.720
83901SOL     OW53476   2.802   3.218   3.240
83901SOL    HW153477   2.794   3.123   3.235
83901SOL    HW253478   2.717   3.247   3.274
83902SOL     OW53479  10.119  13.999  11.738
83902SOL    HW153480  10.152  13.912  11.715
83902SOL    HW253481  10.025  13.993  11.721
83903SOL     OW53482   6.344   4.330   5.743
83903SOL    HW153483   6.352   4.298   5.653
83903SOL    HW253484   6.368   4.255   5.797
83904SOL     OW53485   9.349   1.180   5.974
83904SOL    HW153486   9.286   1.216   5.912
83904SOL    HW253487   9.374   1.095   5.937
83905SOL     OW53488  13.410  12.568  12.374
83905SOL    HW153489  13.435  12.660  12.359
83905SOL    HW253490  13.457  12.543  12.453
83906SOL     OW53491   9.714   1.425   3.548
83906SOL    HW153492   9.750   1.366   3.482
83906SOL    HW253493   9.679   1.366   3.615
83907SOL     OW53494   8.163  13.770  12.441
83907SOL    HW153495   8.080  13.802  12.475
83907SOL    HW253496   8.222  13.845  12.444
83908SOL     OW53497  11.859  10.570   1.233
83908SOL    HW153498  11.903  10.645   1.275
83908SOL    HW253499  11.887  10.494   1.285
83909SOL     OW53500  12.648   9.904   4.080
83909SOL    HW153501  12.619   9.940   4.165
83909SOL    HW253502  12.638   9.809   4.091
83910SOL     OW53503  10.330  12.696   9.914
83910SOL    HW153504  10.285  12.649   9.844
83910SOL    HW253505  10.279  12.676   9.992
83911SOL     OW53506   4.520  14.067   0.065
83911SOL    HW153507   4.449  14.130   0.055
83911SOL    HW253508   4.491  14.009   0.136
83912SOL     OW53509  12.039   0.645  14.161
83912SOL    HW153510  11.953   0.637  14.119
83912SOL    HW253511  12.019   0.644  14.255
83913SOL     OW53512   6.837   0.241   8.192
83913SOL    HW153513   6.839   0.172   8.258
83913SOL    HW253514   6.866   0.320   8.238
83914SOL     OW53515   2.164  13.641   3.740
83914SOL    HW153516   2.109  13.571   3.776
83914SOL    HW253517   2.205  13.680   3.817
83915SOL     OW53518   8.290   1.711   0.802
83915SOL    HW153519   8.269   1.689   0.711
83915SOL    HW253520   8.230   1.657   0.853
83916SOL     OW53521   5.996  14.064   0.874
83916SOL    HW153522   6.044  14.123   0.932
83916SOL    HW253523   5.930  14.120   0.832
83917SOL     OW53524   3.275   9.830  12.817
83917SOL    HW153525   3.266   9.757  12.879
83917SOL    HW253526   3.192   9.876  12.822
83918SOL     OW53527   3.653   7.729   6.403
83918SOL    HW153528   3.683   7.638   6.411
83918SOL    HW253529   3.655   7.763   6.492
83919SOL     OW53530   6.392  12.113   3.903
83919SOL    HW153531   6.331  12.183   3.882
83919SOL    HW253532   6.452  12.152   3.966
83920SOL     OW53533   8.912   7.549   4.904
83920SOL    HW153534   8.897   7.460   4.874
83920SOL    HW253535   9.007   7.554   4.914
83921SOL     OW53536  10.525   2.693   8.323
83921SOL    HW153537  10.574   2.629   8.271
83921SOL    HW253538  10.447   2.646   8.351
83922SOL     OW53539  10.868  10.005   8.684
83922SOL    HW153540  10.784   9.972   8.651
83922SOL    HW253541  10.849  10.032   8.774
83923SOL     OW53542   1.937   9.117   4.595
83923SOL    HW153543   1.884   9.194   4.575
83923SOL    HW253544   1.987   9.142   4.673
83924SOL     OW53545   7.738   0.737  11.291
83924SOL    HW153546   7.696   0.822  11.277
83924SOL    HW253547   7.702   0.681  11.223
83925SOL     OW53548  10.700   2.796  14.680
83925SOL    HW153549  10.660   2.767  14.762
83925SOL    HW253550  10.626   2.809  14.621
83926SOL     OW53551   2.624   0.024   6.880
83926SOL    HW153552   2.706  14.871   6.843
83926SOL    HW253553   2.558  14.842   6.845
83927SOL     OW53554   8.075  13.331   8.107
83927SOL    HW153555   8.124  13.377   8.039
83927SOL    HW253556   8.130  13.337   8.185
83928SOL     OW53557   9.571   7.243   4.187
83928SOL    HW153558   9.481   7.258   4.218
83928SOL    HW253559   9.564   7.241   4.092
83929SOL     OW53560   5.788   7.289  10.431
83929SOL    HW153561   5.816   7.197  10.433
83929SOL    HW253562   5.760   7.303  10.341
83930SOL     OW53563   1.536  12.323   2.178
83930SOL    HW153564   1.482  12.400   2.197
83930SOL    HW253565   1.608  12.357   2.126
83931SOL     OW53566   5.281   6.651  11.800
83931SOL    HW153567   5.194   6.627  11.767
83931SOL    HW253568   5.285   6.746  11.790
83932SOL     OW53569   8.221  12.211   9.283
83932SOL    HW153570   8.270  12.162   9.216
83932SOL    HW253571   8.280  12.211   9.359
83933SOL     OW53572  12.071   4.163  13.324
83933SOL    HW153573  12.071   4.067  13.315
83933SOL    HW253574  12.135   4.193  13.261
83934SOL     OW53575   2.503   0.718   9.340
83934SOL    HW153576   2.503   0.800   9.290
83934SOL    HW253577   2.509   0.650   9.273
83935SOL     OW53578  10.965  12.003   9.948
83935SOL    HW153579  10.987  11.954   9.869
83935SOL    HW253580  11.049  12.033   9.982
83936SOL     OW53581  14.047  14.374   8.355
83936SOL    HW153582  14.098  14.337   8.427
83936SOL    HW253583  14.000  14.300   8.318
83937SOL     OW53584  12.110   2.281  11.065
83937SOL    HW153585  12.072   2.268  10.978
83937SOL    HW253586  12.128   2.375  11.069
83938SOL     OW53587   9.238   9.922  12.790
83938SOL    HW153588   9.237   9.951  12.881
83938SOL    HW253589   9.268   9.831  12.794
83939SOL     OW53590   7.136  10.093  10.785
83939SOL    HW153591   7.184  10.042  10.851
83939SOL    HW253592   7.061  10.128  10.832
83940SOL     OW53593   4.322   1.201   1.872
83940SOL    HW153594   4.324   1.202   1.968
83940SOL    HW253595   4.265   1.273   1.848
83941SOL     OW53596   0.790   0.013  10.770
83941SOL    HW153597   0.752  14.808  10.799
83941SOL    HW253598   0.884  14.872  10.764
83942SOL     OW53599   3.756  11.662   7.347
83942SOL    HW153600   3.780  11.672   7.255
83942SOL    HW253601   3.814  11.594   7.380
83943SOL     OW53602   5.997  12.836  13.939
83943SOL    HW153603   6.054  12.910  13.960
83943SOL    HW253604   5.953  12.815  14.021
83944SOL     OW53605  12.157  14.740   3.322
83944SOL    HW153606  12.224  14.705   3.264
83944SOL    HW253607  12.091  14.671   3.327
83945SOL     OW53608   9.002   8.468  12.071
83945SOL    HW153609   8.914   8.476  12.108
83945SOL    HW253610   9.052   8.421  12.138
83946SOL     OW53611   3.858   5.287   6.021
83946SOL    HW153612   3.821   5.200   6.036
83946SOL    HW253613   3.950   5.279   6.045
83947SOL     OW53614   6.136  13.363   3.348
83947SOL    HW153615   6.098  13.390   3.431
83947SOL    HW253616   6.228  13.387   3.355
83948SOL     OW53617  14.675   4.177   6.724
83948SOL    HW153618  14.639   4.092   6.748
83948SOL    HW253619  14.652   4.235   6.797
83949SOL     OW53620   7.895  13.913   7.768
83949SOL    HW153621   7.917  13.829   7.809
83949SOL    HW253622   7.980  13.948   7.739
83950SOL     OW53623   7.401   3.116   5.246
83950SOL    HW153624   7.404   3.168   5.326
83950SOL    HW253625   7.438   3.173   5.179
83951SOL     OW53626   9.787   9.784   7.085
83951SOL    HW153627   9.724   9.751   7.149
83951SOL    HW253628   9.766   9.877   7.077
83952SOL     OW53629   7.380   6.252   8.533
83952SOL    HW153630   7.419   6.335   8.506
83952SOL    HW253631   7.454   6.192   8.543
83953SOL     OW53632   3.373   1.573  12.319
83953SOL    HW153633   3.411   1.543  12.402
83953SOL    HW253634   3.341   1.661  12.340
83954SOL     OW53635   3.668   9.213  12.924
83954SOL    HW153636   3.731   9.243  12.990
83954SOL    HW253637   3.670   9.117  12.931
83955SOL     OW53638   1.342   9.726  12.243
83955SOL    HW153639   1.382   9.813  12.250
83955SOL    HW253640   1.405   9.667  12.285
83956SOL     OW53641   2.969   9.563   7.985
83956SOL    HW153642   2.960   9.583   8.079
83956SOL    HW253643   3.047   9.509   7.979
83957SOL     OW53644   5.086  13.812   0.270
83957SOL    HW153645   5.107  13.728   0.229
83957SOL    HW253646   5.068  13.790   0.362
83958SOL     OW53647   2.327   8.848   7.457
83958SOL    HW153648   2.259   8.912   7.476
83958SOL    HW253649   2.370   8.832   7.541
83959SOL     OW53650   9.694   6.121  12.125
83959SOL    HW153651   9.673   6.181  12.197
83959SOL    HW253652   9.767   6.068  12.157
83960SOL     OW53653   6.054   0.187   7.355
83960SOL    HW153654   6.069   0.179   7.261
83960SOL    HW253655   6.108   0.119   7.394
83961SOL     OW53656   0.038   8.069   4.158
83961SOL    HW153657   0.074   8.155   4.138
83961SOL    HW253658   0.095   8.035   4.227
83962SOL     OW53659   0.323  10.509  10.757
83962SOL    HW153660   0.399  10.506  10.699
83962SOL    HW253661   0.261  10.447  10.719
83963SOL     OW53662   9.857   1.888   5.928
83963SOL    HW153663   9.864   1.891   6.023
83963SOL    HW253664   9.947   1.896   5.896
83964SOL     OW53665   9.795   0.712   9.906
83964SOL    HW153666   9.759   0.737   9.822
83964SOL    HW253667   9.758   0.626   9.924
83965SOL     OW53668   8.404  11.587   4.318
83965SOL    HW153669   8.313  11.563   4.332
83965SOL    HW253670   8.429  11.636   4.396
83966SOL     OW53671   2.831  14.861   0.500
83966SOL    HW153672   2.849   0.004   0.409
83966SOL    HW253673   2.754  14.803   0.497
83967SOL     OW53674   8.593  12.332   9.857
83967SOL    HW153675   8.657  12.341   9.928
83967SOL    HW253676   8.637  12.366   9.780
83968SOL     OW53677   5.524  12.545   1.914
83968SOL    HW153678   5.579  12.619   1.938
83968SOL    HW253679   5.443  12.557   1.963
83969SOL     OW53680   7.322   8.427  12.713
83969SOL    HW153681   7.271   8.346  12.717
83969SOL    HW253682   7.294   8.477  12.790
83970SOL     OW53683  12.566   6.444   2.282
83970SOL    HW153684  12.633   6.390   2.241
83970SOL    HW253685  12.486   6.423   2.234
83971SOL     OW53686   3.158   6.377   2.718
83971SOL    HW153687   3.230   6.339   2.668
83971SOL    HW253688   3.082   6.322   2.697
83972SOL     OW53689   7.489  14.350   7.998
83972SOL    HW153690   7.402  14.381   8.023
83972SOL    HW253691   7.485  14.255   8.007
83973SOL     OW53692  14.229   1.120   5.366
83973SOL    HW153693  14.265   1.153   5.448
83973SOL    HW253694  14.150   1.071   5.392
83974SOL     OW53695   4.260  11.364   5.723
83974SOL    HW153696   4.266  11.374   5.628
83974SOL    HW253697   4.166  11.374   5.742
83975SOL     OW53698   5.330   2.185   8.364
83975SOL    HW153699   5.240   2.183   8.396
83975SOL    HW253700   5.371   2.257   8.412
83976SOL     OW53701   0.594  12.480   7.552
83976SOL    HW153702   0.502  12.454   7.563
83976SOL    HW253703   0.598  12.512   7.462
83977SOL     OW53704   4.086  13.269   0.037
83977SOL    HW153705   4.066  13.353  14.874
83977SOL    HW253706   4.170  13.282   0.080
83978SOL     OW53707   9.002  11.171   9.717
83978SOL    HW153708   9.090  11.136   9.699
83978SOL    HW253709   8.977  11.216   9.636
83979SOL     OW53710   9.101  14.182   1.672
83979SOL    HW153711   9.038  14.178   1.744
83979SOL    HW253712   9.081  14.105   1.618
83980SOL     OW53713  12.314   0.850  13.368
83980SOL    HW153714  12.372   0.917  13.404
83980SOL    HW253715  12.302   0.875  13.277
83981SOL     OW53716   6.279   8.096   9.771
83981SOL    HW153717   6.206   8.040   9.798
83981SOL    HW253718   6.268   8.175   9.823
83982SOL     OW53719   6.523   2.998   4.654
83982SOL    HW153720   6.548   2.937   4.584
83982SOL    HW253721   6.606   3.023   4.694
83983SOL     OW53722  11.855   8.557  10.814
83983SOL    HW153723  11.824   8.489  10.755
83983SOL    HW253724  11.814   8.638  10.782
83984SOL     OW53725   4.749  10.635   1.870
83984SOL    HW153726   4.789  10.710   1.912
83984SOL    HW253727   4.778  10.560   1.922
83985SOL     OW53728   6.539  14.238   6.574
83985SOL    HW153729   6.531  14.163   6.515
83985SOL    HW253730   6.543  14.314   6.516
83986SOL     OW53731   5.752   8.095  11.261
83986SOL    HW153732   5.731   8.164  11.198
83986SOL    HW253733   5.692   8.110  11.334
83987SOL     OW53734   6.043  12.276   0.111
83987SOL    HW153735   6.052  12.360   0.155
83987SOL    HW253736   6.128  12.234   0.120
83988SOL     OW53737   4.894   7.026   3.457
83988SOL    HW153738   4.806   7.052   3.485
83988SOL    HW253739   4.950   7.050   3.531
83989SOL     OW53740   3.923   8.354  13.428
83989SOL    HW153741   3.903   8.432  13.480
83989SOL    HW253742   3.840   8.334  13.383
83990SOL     OW53743   0.721   4.529  11.705
83990SOL    HW153744   0.687   4.461  11.647
83990SOL    HW253745   0.702   4.496  11.793
83991SOL     OW53746   2.653   3.727   6.560
83991SOL    HW153747   2.571   3.757   6.520
83991SOL    HW253748   2.698   3.808   6.584
83992SOL     OW53749   7.927  11.815   2.566
83992SOL    HW153750   7.919  11.888   2.504
83992SOL    HW253751   7.860  11.753   2.538
83993SOL     OW53752   2.651  10.507   1.083
83993SOL    HW153753   2.721  10.451   1.048
83993SOL    HW253754   2.627  10.563   1.009
83994SOL     OW53755  11.152   6.329   7.657
83994SOL    HW153756  11.186   6.274   7.728
83994SOL    HW253757  11.124   6.267   7.590
83995SOL     OW53758   5.524  14.738   9.386
83995SOL    HW153759   5.573  14.656   9.375
83995SOL    HW253760   5.579  14.790   9.445
83996SOL     OW53761  11.438  13.563  10.327
83996SOL    HW153762  11.489  13.624  10.273
83996SOL    HW253763  11.422  13.488  10.270
83997SOL     OW53764  14.306   9.014  11.090
83997SOL    HW153765  14.222   9.015  11.135
83997SOL    HW253766  14.347   8.932  11.116
83998SOL     OW53767  12.321   9.678   4.571
83998SOL    HW153768  12.252   9.741   4.590
83998SOL    HW253769  12.351   9.648   4.657
83999SOL     OW53770   4.151   6.625   3.449
83999SOL    HW153771   4.096   6.702   3.431
83999SOL    HW253772   4.139   6.609   3.543
84000SOL     OW53773   5.434  13.788   7.622
84000SOL    HW153774   5.437  13.860   7.558
84000SOL    HW253775   5.342  13.764   7.627
84001SOL     OW53776   3.485   5.631   1.406
84001SOL    HW153777   3.421   5.633   1.334
84001SOL    HW253778   3.570   5.642   1.362
84002SOL     OW53779   6.967  12.413  14.201
84002SOL    HW153780   6.969  12.403  14.296
84002SOL    HW253781   7.014  12.336  14.168
84003SOL     OW53782   8.224   6.629   5.895
84003SOL    HW153783   8.268   6.670   5.821
84003SOL    HW253784   8.231   6.535   5.878
84004SOL     OW53785   2.482   2.052   4.373
84004SOL    HW153786   2.507   2.113   4.442
84004SOL    HW253787   2.405   2.008   4.407
84005SOL     OW53788   8.356   2.795   7.371
84005SOL    HW153789   8.405   2.768   7.448
84005SOL    HW253790   8.286   2.729   7.363
84006SOL     OW53791  14.626   1.929  10.599
84006SOL    HW153792  14.537   1.912  10.627
84006SOL    HW253793  14.679   1.863  10.645
84007SOL     OW53794   1.910  10.983   8.551
84007SOL    HW153795   1.888  10.890   8.553
84007SOL    HW253796   1.847  11.024   8.610
84008SOL     OW53797   6.081  12.336  13.069
84008SOL    HW153798   6.114  12.341  13.159
84008SOL    HW253799   6.102  12.247  13.041
84009SOL     OW53800   0.333   2.757   2.325
84009SOL    HW153801   0.333   2.850   2.348
84009SOL    HW253802   0.401   2.750   2.258
84010SOL     OW53803  10.496   6.552  11.727
84010SOL    HW153804  10.581   6.575  11.690
84010SOL    HW253805  10.434   6.572  11.658
84011SOL     OW53806   2.476   7.749   5.665
84011SOL    HW153807   2.464   7.674   5.723
84011SOL    HW253808   2.387   7.780   5.647
84012SOL     OW53809  12.122   3.720   7.719
84012SOL    HW153810  12.099   3.688   7.806
84012SOL    HW253811  12.195   3.663   7.691
84013SOL     OW53812   5.531  14.275  11.879
84013SOL    HW153813   5.582  14.289  11.799
84013SOL    HW253814   5.596  14.271  11.949
84014SOL     OW53815  14.660   2.489   6.168
84014SOL    HW153816  14.571   2.456   6.172
84014SOL    HW253817  14.712   2.424   6.215
84015SOL     OW53818   5.470   1.645   7.004
84015SOL    HW153819   5.498   1.727   7.046
84015SOL    HW253820   5.499   1.654   6.913
84016SOL     OW53821   3.926   5.837   4.240
84016SOL    HW153822   3.959   5.927   4.245
84016SOL    HW253823   3.833   5.848   4.217
84017SOL     OW53824  13.230   5.847  13.272
84017SOL    HW153825  13.259   5.935  13.245
84017SOL    HW253826  13.136   5.855  13.284
84018SOL     OW53827   9.962   6.510   5.931
84018SOL    HW153828   9.936   6.423   5.900
84018SOL    HW253829  10.015   6.493   6.009
84019SOL     OW53830  11.788   8.207   8.288
84019SOL    HW153831  11.774   8.287   8.338
84019SOL    HW253832  11.847   8.154   8.342
84020SOL     OW53833  14.330   6.402   5.940
84020SOL    HW153834  14.360   6.413   6.030
84020SOL    HW253835  14.271   6.327   5.943
84021SOL     OW53836   3.341   6.441  14.102
84021SOL    HW153837   3.299   6.523  14.076
84021SOL    HW253838   3.377   6.459  14.188
84022SOL     OW53839  12.080  10.181   4.989
84022SOL    HW153840  12.171  10.162   4.968
84022SOL    HW253841  12.078  10.275   5.008
84023SOL     OW53842   6.450   3.683  14.410
84023SOL    HW153843   6.521   3.723  14.460
84023SOL    HW253844   6.449   3.592  14.439
84024SOL     OW53845   0.548   2.035   8.990
84024SOL    HW153846   0.561   1.941   8.980
84024SOL    HW253847   0.488   2.044   9.064
84025SOL     OW53848  14.286  12.756  14.553
84025SOL    HW153849  14.226  12.764  14.479
84025SOL    HW253850  14.230  12.753  14.630
84026SOL     OW53851   0.851   1.458  11.788
84026SOL    HW153852   0.831   1.452  11.694
84026SOL    HW253853   0.934   1.412  11.798
84027SOL     OW53854   5.213  13.418  13.367
84027SOL    HW153855   5.205  13.368  13.286
84027SOL    HW253856   5.272  13.490  13.346
84028SOL     OW53857   7.442   5.197   5.813
84028SOL    HW153858   7.352   5.167   5.827
84028SOL    HW253859   7.435   5.292   5.805
84029SOL     OW53860   9.117   3.580  13.958
84029SOL    HW153861   9.103   3.577  13.864
84029SOL    HW253862   9.030   3.601  13.994
84030SOL     OW53863   3.996   0.438  11.761
84030SOL    HW153864   4.046   0.393  11.693
84030SOL    HW253865   4.016   0.530  11.748
84031SOL     OW53866   2.277   9.560  11.682
84031SOL    HW153867   2.230   9.592  11.759
84031SOL    HW253868   2.269   9.631  11.618
84032SOL     OW53869   0.735   2.337   6.218
84032SOL    HW153870   0.772   2.277   6.153
84032SOL    HW253871   0.646   2.354   6.187
84033SOL     OW53872   2.402   5.454   3.278
84033SOL    HW153873   2.419   5.466   3.185
84033SOL    HW253874   2.484   5.418   3.313
84034SOL     OW53875   5.749  10.341  12.445
84034SOL    HW153876   5.788  10.390  12.373
84034SOL    HW253877   5.675  10.295  12.406
84035SOL     OW53878   8.341   5.445   8.771
84035SOL    HW153879   8.342   5.429   8.677
84035SOL    HW253880   8.407   5.386   8.806
84036SOL     OW53881   3.763   2.141   2.364
84036SOL    HW153882   3.760   2.045   2.357
84036SOL    HW253883   3.740   2.172   2.276
84037SOL     OW53884   1.104   0.934  11.869
84037SOL    HW153885   1.122   0.932  11.775
84037SOL    HW253886   1.067   0.847  11.887
84038SOL     OW53887   2.432  13.010   8.425
84038SOL    HW153888   2.386  12.969   8.352
84038SOL    HW253889   2.510  13.050   8.386
84039SOL     OW53890  10.169   2.529  11.217
84039SOL    HW153891  10.115   2.583  11.158
84039SOL    HW253892  10.119   2.527  11.299
84040SOL     OW53893   4.639   0.877   2.531
84040SOL    HW153894   4.715   0.867   2.474
84040SOL    HW253895   4.625   0.972   2.536
84041SOL     OW53896  12.996  11.276   1.882
84041SOL    HW153897  12.922  11.329   1.851
84041SOL    HW253898  12.975  11.258   1.973
84042SOL     OW53899  11.988   5.414   5.480
84042SOL    HW153900  12.046   5.448   5.548
84042SOL    HW253901  11.967   5.491   5.426
84043SOL     OW53902   5.730  14.100   9.550
84043SOL    HW153903   5.674  14.166   9.589
84043SOL    HW253904   5.671  14.029   9.526
84044SOL     OW53905   5.596   8.191   8.477
84044SOL    HW153906   5.531   8.252   8.443
84044SOL    HW253907   5.631   8.234   8.555
84045SOL     OW53908  13.432  13.924  14.261
84045SOL    HW153909  13.488  13.911  14.184
84045SOL    HW253910  13.493  13.920  14.335
84046SOL     OW53911   7.464   8.961   2.982
84046SOL    HW153912   7.537   9.022   2.990
84046SOL    HW253913   7.407   9.000   2.916
84047SOL     OW53914   7.915   1.793  13.445
84047SOL    HW153915   7.895   1.777  13.537
84047SOL    HW253916   8.010   1.783  13.439
84048SOL     OW53917  12.982   6.636   7.862
84048SOL    HW153918  13.006   6.681   7.943
84048SOL    HW253919  12.988   6.543   7.883
84049SOL     OW53920   9.620   3.714   1.958
84049SOL    HW153921   9.626   3.800   1.999
84049SOL    HW253922   9.529   3.687   1.971
84050SOL     OW53923   0.395   6.621   3.740
84050SOL    HW153924   0.352   6.658   3.663
84050SOL    HW253925   0.377   6.528   3.736
84051SOL     OW53926  14.844  11.239   1.689
84051SOL    HW153927  14.858  11.253   1.596
84051SOL    HW253928   0.030  11.298   1.732
84052SOL     OW53929  13.881   2.022  13.693
84052SOL    HW153930  13.824   2.022  13.770
84052SOL    HW253931  13.823   2.042  13.620
84053SOL     OW53932   5.035   4.318   4.276
84053SOL    HW153933   5.114   4.266   4.289
84053SOL    HW253934   4.968   4.274   4.328
84054SOL     OW53935  11.263   1.537  12.172
84054SOL    HW153936  11.338   1.484  12.198
84054SOL    HW253937  11.276   1.553  12.079
84055SOL     OW53938   5.505   0.551  12.466
84055SOL    HW153939   5.535   0.641  12.463
84055SOL    HW253940   5.536   0.512  12.384
84056SOL     OW53941   1.244   4.304   5.713
84056SOL    HW153942   1.258   4.247   5.789
84056SOL    HW253943   1.169   4.358   5.737
84057SOL     OW53944   4.811  11.912  11.361
84057SOL    HW153945   4.879  11.847  11.379
84057SOL    HW253946   4.793  11.903  11.267
84058SOL     OW53947   0.707   1.950   6.278
84058SOL    HW153948   0.629   1.943   6.333
84058SOL    HW253949   0.675   1.972   6.191
84059SOL     OW53950   7.408   2.485   7.321
84059SOL    HW153951   7.494   2.498   7.281
84059SOL    HW253952   7.420   2.506   7.414
84060SOL     OW53953   0.384   1.957  11.796
84060SOL    HW153954   0.346   2.045  11.789
84060SOL    HW253955   0.315   1.899  11.763
84061SOL     OW53956  10.057   8.784   5.805
84061SOL    HW153957  10.056   8.716   5.873
84061SOL    HW253958   9.965   8.802   5.788
84062SOL     OW53959   7.541   5.840   8.230
84062SOL    HW153960   7.534   5.905   8.300
84062SOL    HW253961   7.629   5.805   8.238
84063SOL     OW53962   9.089  13.647   2.324
84063SOL    HW153963   9.107  13.681   2.412
84063SOL    HW253964   9.007  13.600   2.333
84064SOL     OW53965  12.486  10.966   2.670
84064SOL    HW153966  12.471  10.924   2.585
84064SOL    HW253967  12.576  10.943   2.693
84065SOL     OW53968   8.063   9.228   4.109
84065SOL    HW153969   7.991   9.250   4.050
84065SOL    HW253970   8.031   9.251   4.196
84066SOL     OW53971   4.981   8.153   0.998
84066SOL    HW153972   4.967   8.170   1.091
84066SOL    HW253973   4.984   8.240   0.958
84067SOL     OW53974   9.444   6.470  13.391
84067SOL    HW153975   9.494   6.439  13.467
84067SOL    HW253976   9.497   6.443  13.316
84068SOL     OW53977   2.447  12.256  10.094
84068SOL    HW153978   2.443  12.180  10.151
84068SOL    HW253979   2.358  12.265  10.060
84069SOL     OW53980   9.699   4.803  12.661
84069SOL    HW153981   9.612   4.821  12.696
84069SOL    HW253982   9.721   4.880  12.608
84070SOL     OW53983   1.970  13.790   8.341
84070SOL    HW153984   2.065  13.781   8.326
84070SOL    HW253985   1.932  13.710   8.305
84071SOL     OW53986   4.256   0.373   6.508
84071SOL    HW153987   4.183   0.368   6.447
84071SOL    HW253988   4.329   0.330   6.462
84072SOL     OW53989   7.717   3.021  10.077
84072SOL    HW153990   7.652   2.969  10.029
84072SOL    HW253991   7.682   3.110  10.076
84073SOL     OW53992   4.848  11.299   4.833
84073SOL    HW153993   4.934  11.256   4.834
84073SOL    HW253994   4.825  11.303   4.740
84074SOL     OW53995  13.132  12.777   0.678
84074SOL    HW153996  13.041  12.787   0.706
84074SOL    HW253997  13.163  12.867   0.666
84075SOL     OW53998   7.967   9.698  13.630
84075SOL    HW153999   7.984   9.734  13.543
84075SOL    HW254000   8.054   9.684  13.668
84076SOL     OW54001  10.681   7.023   0.784
84076SOL    HW154002  10.752   6.961   0.765
84076SOL    HW254003  10.713   7.107   0.751
84077SOL     OW54004  10.276  11.982   0.240
84077SOL    HW154005  10.311  11.895   0.219
84077SOL    HW254006  10.199  11.965   0.293
84078SOL     OW54007  14.771  14.571   3.601
84078SOL    HW154008  14.765  14.527   3.517
84078SOL    HW254009  14.865  14.584   3.615
84079SOL     OW54010   0.982   9.817   7.055
84079SOL    HW154011   1.048   9.749   7.043
84079SOL    HW254012   1.010   9.864   7.134
84080SOL     OW54013  10.967   4.249   5.995
84080SOL    HW154014  10.935   4.288   6.076
84080SOL    HW254015  10.889   4.214   5.952
84081SOL     OW54016   4.006   3.279  12.430
84081SOL    HW154017   4.012   3.358  12.483
84081SOL    HW254018   3.945   3.223  12.478
84082SOL     OW54019  10.898   0.450   8.752
84082SOL    HW154020  10.845   0.419   8.678
84082SOL    HW254021  10.882   0.387   8.821
84083SOL     OW54022  14.509   5.174  14.750
84083SOL    HW154023  14.458   5.169  14.831
84083SOL    HW254024  14.459   5.232  14.693
84084SOL     OW54025   6.503  12.704   8.855
84084SOL    HW154026   6.564  12.770   8.890
84084SOL    HW254027   6.437  12.755   8.809
84085SOL     OW54028  12.636   4.867  13.488
84085SOL    HW154029  12.698   4.925  13.532
84085SOL    HW254030  12.559   4.922  13.471
84086SOL     OW54031   8.626   7.791   9.411
84086SOL    HW154032   8.593   7.868   9.365
84086SOL    HW254033   8.719   7.789   9.392
84087SOL     OW54034  13.880  12.559  14.327
84087SOL    HW154035  13.851  12.555  14.418
84087SOL    HW254036  13.961  12.609  14.330
84088SOL     OW54037   1.463   7.494   4.023
84088SOL    HW154038   1.393   7.499   3.957
84088SOL    HW254039   1.514   7.574   4.010
84089SOL     OW54040   8.208   3.446  10.686
84089SOL    HW154041   8.195   3.352  10.699
84089SOL    HW254042   8.120   3.483  10.680
84090SOL     OW54043   2.961   7.798   8.415
84090SOL    HW154044   2.930   7.811   8.504
84090SOL    HW254045   3.050   7.835   8.415
84091SOL     OW54046   6.504   2.950  12.794
84091SOL    HW154047   6.542   3.020  12.847
84091SOL    HW254048   6.410   2.966  12.796
84092SOL     OW54049   3.540   4.244   5.829
84092SOL    HW154050   3.472   4.301   5.795
84092SOL    HW254051   3.493   4.178   5.880
84093SOL     OW54052   5.155  11.984   2.741
84093SOL    HW154053   5.122  11.902   2.705
84093SOL    HW254054   5.209  11.958   2.815
84094SOL     OW54055  14.501   5.126   3.909
84094SOL    HW154056  14.452   5.058   3.956
84094SOL    HW254057  14.569   5.154   3.971
84095SOL     OW54058   6.168  10.396  10.232
84095SOL    HW154059   6.210  10.330  10.287
84095SOL    HW254060   6.230  10.469  10.232
84096SOL     OW54061   5.491   0.406   4.727
84096SOL    HW154062   5.416   0.423   4.670
84096SOL    HW254063   5.500   0.311   4.729
84097SOL     OW54064   8.489   0.186   3.444
84097SOL    HW154065   8.526   0.149   3.524
84097SOL    HW254066   8.564   0.205   3.388
84098SOL     OW54067  13.709   4.489   3.015
84098SOL    HW154068  13.616   4.467   3.009
84098SOL    HW254069  13.745   4.421   3.072
84099SOL     OW54070  11.221   4.883   6.021
84099SOL    HW154071  11.276   4.807   6.040
84099SOL    HW254072  11.149   4.878   6.084
84100SOL     OW54073  13.631   3.067   1.303
84100SOL    HW154074  13.683   3.062   1.222
84100SOL    HW254075  13.697   3.081   1.372
84101SOL     OW54076   6.306   2.006  11.564
84101SOL    HW154077   6.342   2.053  11.639
84101SOL    HW254078   6.264   2.074  11.512
84102SOL     OW54079   5.394   2.658   8.215
84102SOL    HW154080   5.380   2.752   8.230
84102SOL    HW254081   5.334   2.637   8.143
84103SOL     OW54082  13.182   4.486  14.311
84103SOL    HW154083  13.114   4.494  14.244
84103SOL    HW254084  13.242   4.419  14.276
84104SOL     OW54085   9.944  12.942   0.485
84104SOL    HW154086   9.987  13.003   0.545
84104SOL    HW254087   9.942  12.988   0.401
84105SOL     OW54088   2.457   1.567   0.134
84105SOL    HW154089   2.364   1.557   0.158
84105SOL    HW254090   2.495   1.480   0.150
84106SOL     OW54091   2.269  12.071   6.939
84106SOL    HW154092   2.197  12.129   6.963
84106SOL    HW254093   2.348  12.119   6.962
84107SOL     OW54094   0.793   0.337   3.638
84107SOL    HW154095   0.790   0.280   3.561
84107SOL    HW254096   0.874   0.313   3.683
84108SOL     OW54097  11.623   2.087   8.485
84108SOL    HW154098  11.605   1.992   8.489
84108SOL    HW254099  11.554   2.121   8.428
84109SOL     OW54100   5.297  14.218  13.004
84109SOL    HW154101   5.216  14.257  13.037
84109SOL    HW254102   5.297  14.238  12.910
84110SOL     OW54103  14.431   8.471  11.836
84110SOL    HW154104  14.420   8.402  11.771
84110SOL    HW254105  14.401   8.550  11.792
84111SOL     OW54106   4.149   4.056   9.522
84111SOL    HW154107   4.129   3.975   9.475
84111SOL    HW254108   4.240   4.045   9.550
84112SOL     OW54109  10.542   4.264  10.258
84112SOL    HW154110  10.604   4.337  10.257
84112SOL    HW254111  10.495   4.270  10.175
84113SOL     OW54112   9.343   6.518  10.193
84113SOL    HW154113   9.423   6.523  10.140
84113SOL    HW254114   9.356   6.582  10.263
84114SOL     OW54115  14.520   9.472   3.418
84114SOL    HW154116  14.567   9.414   3.479
84114SOL    HW254117  14.434   9.432   3.408
84115SOL     OW54118   8.280  13.544  12.630
84115SOL    HW154119   8.315  13.471  12.579
84115SOL    HW254120   8.232  13.596  12.567
84116SOL     OW54121   1.840   4.098   7.775
84116SOL    HW154122   1.889   4.034   7.826
84116SOL    HW254123   1.834   4.060   7.687
84117SOL     OW54124   9.952  11.221  14.509
84117SOL    HW154125  10.014  11.196  14.578
84117SOL    HW254126  10.006  11.225  14.430
84118SOL     OW54127  13.409   2.705   2.341
84118SOL    HW154128  13.377   2.789   2.308
84118SOL    HW254129  13.458   2.727   2.420
84119SOL     OW54130  13.087   5.271  10.548
84119SOL    HW154131  13.084   5.309  10.460
84119SOL    HW254132  13.001   5.290  10.585
84120SOL     OW54133   0.847  13.374   1.950
84120SOL    HW154134   0.770  13.370   1.893
84120SOL    HW254135   0.921  13.379   1.889
84121SOL     OW54136   1.196   6.877   3.947
84121SOL    HW154137   1.166   6.862   4.036
84121SOL    HW254138   1.210   6.789   3.911
84122SOL     OW54139   1.752  10.576   7.481
84122SOL    HW154140   1.770  10.488   7.512
84122SOL    HW254141   1.794  10.580   7.395
84123SOL     OW54142   8.589  10.628   9.698
84123SOL    HW154143   8.612  10.693   9.765
84123SOL    HW254144   8.508  10.660   9.660
84124SOL     OW54145  13.322  11.522   2.074
84124SOL    HW154146  13.257  11.474   2.126
84124SOL    HW254147  13.323  11.609   2.112
84125SOL     OW54148   4.304  10.736   9.984
84125SOL    HW154149   4.386  10.778  10.008
84125SOL    HW254150   4.240  10.807   9.986
84126SOL     OW54151   0.229   4.098   7.052
84126SOL    HW154152   0.202   4.190   7.054
84126SOL    HW254153   0.314   4.097   7.096
84127SOL     OW54154  12.791  11.862   5.570
84127SOL    HW154155  12.752  11.781   5.536
84127SOL    HW254156  12.883  11.856   5.546
84128SOL     OW54157   3.690   6.725   5.626
84128SOL    HW154158   3.633   6.800   5.644
84128SOL    HW254159   3.764   6.736   5.686
84129SOL     OW54160   1.459  12.614   9.374
84129SOL    HW154161   1.386  12.635   9.316
84129SOL    HW254162   1.526  12.577   9.315
84130SOL     OW54163  10.675   6.311  10.822
84130SOL    HW154164  10.671   6.392  10.872
84130SOL    HW254165  10.601   6.259  10.854
84131SOL     OW54166   7.561   5.995   5.822
84131SOL    HW154167   7.656   5.981   5.817
84131SOL    HW254168   7.523   5.914   5.788
84132SOL     OW54169   3.992   8.012   3.157
84132SOL    HW154170   4.033   8.015   3.243
84132SOL    HW254171   4.052   7.961   3.103
84133SOL     OW54172   8.315   1.551   6.286
84133SOL    HW154173   8.223   1.527   6.282
84133SOL    HW254174   8.322   1.629   6.230
84134SOL     OW54175  14.041  14.633  10.109
84134SOL    HW154176  13.953  14.608  10.136
84134SOL    HW254177  14.049  14.599  10.019
84135SOL     OW54178   5.124   3.451   5.851
84135SOL    HW154179   5.066   3.520   5.820
84135SOL    HW254180   5.072   3.370   5.845
84136SOL     OW54181  11.347  11.184  13.801
84136SOL    HW154182  11.374  11.255  13.742
84136SOL    HW254183  11.253  11.198  13.815
84137SOL     OW54184  11.110   4.178  14.437
84137SOL    HW154185  11.180   4.211  14.492
84137SOL    HW254186  11.061   4.119  14.494
84138SOL     OW54187   6.704   4.126   6.740
84138SOL    HW154188   6.672   4.212   6.766
84138SOL    HW254189   6.795   4.123   6.772
84139SOL     OW54190   1.410   2.463  10.150
84139SOL    HW154191   1.344   2.467  10.220
84139SOL    HW254192   1.371   2.407  10.083
84140SOL     OW54193  12.415  10.798   4.925
84140SOL    HW154194  12.320  10.785   4.928
84140SOL    HW254195  12.447  10.763   5.008
84141SOL     OW54196   6.390  12.376  14.867
84141SOL    HW154197   6.465  12.347   0.042
84141SOL    HW254198   6.406  12.468  14.851
84142SOL     OW54199  13.140  14.177   2.467
84142SOL    HW154200  13.203  14.161   2.537
84142SOL    HW254201  13.059  14.136   2.498
84143SOL     OW54202   6.322   1.888  10.807
84143SOL    HW154203   6.354   1.872  10.895
84143SOL    HW254204   6.401   1.903  10.755
84144SOL     OW54205   7.252   9.692   0.004
84144SOL    HW154206   7.226   9.679  14.790
84144SOL    HW254207   7.280   9.784   0.008
84145SOL     OW54208   4.755   6.699   8.806
84145SOL    HW154209   4.784   6.641   8.877
84145SOL    HW254210   4.671   6.733   8.835
84146SOL     OW54211   2.441   7.032   6.611
84146SOL    HW154212   2.439   7.051   6.705
84146SOL    HW254213   2.429   6.938   6.605
84147SOL     OW54214   7.930   1.022   1.621
84147SOL    HW154215   7.889   1.033   1.707
84147SOL    HW254216   7.983   1.100   1.608
84148SOL     OW54217  12.397   7.328   4.324
84148SOL    HW154218  12.414   7.328   4.230
84148SOL    HW254219  12.483   7.320   4.365
84149SOL     OW54220   5.585   4.399   7.967
84149SOL    HW154221   5.495   4.377   7.941
84149SOL    HW254222   5.621   4.317   8.000
84150SOL     OW54223   1.553  13.420  12.912
84150SOL    HW154224   1.460  13.398  12.906
84150SOL    HW254225   1.585  13.370  12.987
84151SOL     OW54226   3.934   5.448  12.816
84151SOL    HW154227   3.913   5.373  12.760
84151SOL    HW254228   3.877   5.518  12.784
84152SOL     OW54229   8.661   8.930   7.112
84152SOL    HW154230   8.725   8.987   7.069
84152SOL    HW254231   8.712   8.881   7.176
84153SOL     OW54232   9.422   9.088   5.012
84153SOL    HW154233   9.453   9.091   4.921
84153SOL    HW254234   9.423   9.180   5.041
84154SOL     OW54235   3.752   6.361   5.459
84154SOL    HW154236   3.665   6.338   5.493
84154SOL    HW254237   3.739   6.444   5.414
84155SOL     OW54238   4.528  11.419  10.677
84155SOL    HW154239   4.577  11.414  10.595
84155SOL    HW254240   4.532  11.331  10.713
84156SOL     OW54241  12.802  11.932   6.636
84156SOL    HW154242  12.763  12.008   6.680
84156SOL    HW254243  12.879  11.967   6.591
84157SOL     OW54244   4.918  13.296   2.950
84157SOL    HW154245   5.010  13.273   2.932
84157SOL    HW254246   4.909  13.385   2.916
84158SOL     OW54247   9.213   8.370   5.913
84158SOL    HW154248   9.244   8.332   5.996
84158SOL    HW254249   9.203   8.463   5.933
84159SOL     OW54250  11.349   3.363   9.956
84159SOL    HW154251  11.392   3.302   9.896
84159SOL    HW254252  11.325   3.310  10.031
84160SOL     OW54253   3.955   7.591   0.964
84160SOL    HW154254   4.041   7.630   0.981
84160SOL    HW254255   3.895   7.665   0.962
84161SOL     OW54256   6.584   1.208  13.101
84161SOL    HW154257   6.515   1.257  13.146
84161SOL    HW254258   6.664   1.229  13.149
84162SOL     OW54259   2.802   0.588   1.632
84162SOL    HW154260   2.734   0.611   1.568
84162SOL    HW254261   2.869   0.655   1.620
84163SOL     OW54262  13.739   2.577   2.044
84163SOL    HW154263  13.656   2.537   2.016
84163SOL    HW254264  13.794   2.574   1.966
84164SOL     OW54265  11.141   9.474   7.013
84164SOL    HW154266  11.206   9.526   7.060
84164SOL    HW254267  11.126   9.398   7.069
84165SOL     OW54268   9.032   8.969  12.742
84165SOL    HW154269   9.086   9.038  12.781
84165SOL    HW254270   8.991   8.925  12.817
84166SOL     OW54271   5.875   2.290  12.712
84166SOL    HW154272   5.945   2.228  12.733
84166SOL    HW254273   5.885   2.360  12.776
84167SOL     OW54274   6.411   0.243   4.317
84167SOL    HW154275   6.455   0.266   4.399
84167SOL    HW254276   6.378   0.154   4.332
84168SOL     OW54277  10.825   2.421  13.576
84168SOL    HW154278  10.730   2.425  13.592
84168SOL    HW254279  10.833   2.391  13.486
84169SOL     OW54280   2.994  13.856   8.691
84169SOL    HW154281   3.002  13.928   8.629
84169SOL    HW254282   3.021  13.893   8.775
84170SOL     OW54283  12.384   7.292   7.467
84170SOL    HW154284  12.403   7.385   7.479
84170SOL    HW254285  12.291   7.289   7.447
84171SOL     OW54286  11.228  11.570   8.047
84171SOL    HW154287  11.310  11.525   8.069
84171SOL    HW254288  11.234  11.587   7.953
84172SOL     OW54289   7.378   6.363   4.887
84172SOL    HW154290   7.419   6.433   4.937
84172SOL    HW254291   7.382   6.287   4.945
84173SOL     OW54292   6.831  11.352   9.355
84173SOL    HW154293   6.916  11.383   9.383
84173SOL    HW254294   6.769  11.386   9.420
84174SOL     OW54295   2.502  11.896  11.811
84174SOL    HW154296   2.573  11.850  11.766
84174SOL    HW254297   2.510  11.986  11.782
84175SOL     OW54298   5.305   6.072   5.040
84175SOL    HW154299   5.354   6.019   4.977
84175SOL    HW254300   5.346   6.053   5.124
84176SOL     OW54301   7.575  13.477   1.224
84176SOL    HW154302   7.489  13.516   1.209
84176SOL    HW254303   7.559  13.383   1.222
84177SOL     OW54304   3.239   6.148   4.951
84177SOL    HW154305   3.162   6.135   5.007
84177SOL    HW254306   3.202   6.157   4.863
84178SOL     OW54307   9.719   7.912   1.285
84178SOL    HW154308   9.679   7.848   1.225
84178SOL    HW254309   9.744   7.860   1.361
84179SOL     OW54310  13.449   7.547   3.684
84179SOL    HW154311  13.511   7.614   3.654
84179SOL    HW254312  13.379   7.597   3.726
84180SOL     OW54313   4.501   1.051   3.478
84180SOL    HW154314   4.523   1.072   3.387
84180SOL    HW254315   4.436   0.981   3.471
84181SOL     OW54316  12.576   5.982   9.846
84181SOL    HW154317  12.626   6.051   9.802
84181SOL    HW254318  12.527   6.028   9.914
84182SOL     OW54319   8.260  14.773  11.433
84182SOL    HW154320   8.279  14.695  11.485
84182SOL    HW254321   8.196  14.744  11.368
84183SOL     OW54322  12.385  12.568   9.585
84183SOL    HW154323  12.464  12.533   9.542
84183SOL    HW254324  12.388  12.530   9.673
84184SOL     OW54325   9.768   1.090   0.687
84184SOL    HW154326   9.740   1.008   0.728
84184SOL    HW254327   9.819   1.062   0.611
84185SOL     OW54328  11.077  11.942   1.693
84185SOL    HW154329  11.080  11.911   1.603
84185SOL    HW254330  11.055  11.865   1.745
84186SOL     OW54331   2.808   8.470   8.418
84186SOL    HW154332   2.891   8.424   8.420
84186SOL    HW254333   2.753   8.423   8.481
84187SOL     OW54334   8.603   1.613   9.199
84187SOL    HW154335   8.593   1.681   9.133
84187SOL    HW254336   8.596   1.530   9.151
84188SOL     OW54337   4.102  11.355  11.640
84188SOL    HW154338   4.038  11.401  11.694
84188SOL    HW254339   4.084  11.262  11.654
84189SOL     OW54340   8.030   9.287   2.297
84189SOL    HW154341   8.013   9.254   2.209
84189SOL    HW254342   8.108   9.240   2.326
84190SOL     OW54343   3.979   1.890  14.060
84190SOL    HW154344   3.959   1.853  14.145
84190SOL    HW254345   4.052   1.838  14.027
84191SOL     OW54346   0.961   4.843  13.537
84191SOL    HW154347   0.908   4.889  13.471
84191SOL    HW254348   1.051   4.849  13.504
84192SOL     OW54349   1.283   9.121   7.838
84192SOL    HW154350   1.353   9.162   7.789
84192SOL    HW254351   1.244   9.192   7.889
84193SOL     OW54352   8.114   3.868   1.665
84193SOL    HW154353   8.123   3.921   1.586
84193SOL    HW254354   8.136   3.926   1.737
84194SOL     OW54355   7.930   8.063   5.845
84194SOL    HW154356   7.856   8.067   5.905
84194SOL    HW254357   7.897   8.098   5.763
84195SOL     OW54358  13.570   4.924   4.619
84195SOL    HW154359  13.567   4.886   4.706
84195SOL    HW254360  13.607   4.855   4.564
84196SOL     OW54361   1.713   9.583   2.410
84196SOL    HW154362   1.764   9.645   2.359
84196SOL    HW254363   1.777   9.517   2.439
84197SOL     OW54364   9.340   1.294  11.193
84197SOL    HW154365   9.383   1.224  11.144
84197SOL    HW254366   9.396   1.371  11.178
84198SOL     OW54367  12.349   4.910   0.149
84198SOL    HW154368  12.390   4.852   0.084
84198SOL    HW254369  12.366   4.868   0.233
84199SOL     OW54370   1.327  10.853   1.850
84199SOL    HW154371   1.389  10.884   1.784
84199SOL    HW254372   1.365  10.880   1.934
84200SOL     OW54373   6.034  11.786   6.652
84200SOL    HW154374   5.998  11.724   6.589
84200SOL    HW254375   6.125  11.758   6.664
84201SOL     OW54376   2.866   1.076   8.956
84201SOL    HW154377   2.786   1.053   9.005
84201SOL    HW254378   2.834   1.102   8.870
84202SOL     OW54379   7.756   6.468  14.213
84202SOL    HW154380   7.725   6.506  14.131
84202SOL    HW254381   7.715   6.381  14.217
84203SOL     OW54382  14.176   7.520  14.445
84203SOL    HW154383  14.189   7.614  14.437
84203SOL    HW254384  14.253   7.489  14.492
84204SOL     OW54385   4.721  11.443   6.990
84204SOL    HW154386   4.639  11.397   6.972
84204SOL    HW254387   4.782  11.411   6.924
84205SOL     OW54388   6.573  10.724  13.241
84205SOL    HW154389   6.529  10.645  13.210
84205SOL    HW254390   6.590  10.775  13.162
84206SOL     OW54391   7.126  11.060  12.702
84206SOL    HW154392   7.199  11.050  12.641
84206SOL    HW254393   7.154  11.127  12.764
84207SOL     OW54394  10.927   5.247   7.699
84207SOL    HW154395  10.953   5.240   7.607
84207SOL    HW254396  10.913   5.157   7.727
84208SOL     OW54397   9.280   5.232   0.448
84208SOL    HW154398   9.355   5.264   0.498
84208SOL    HW254399   9.206   5.242   0.507
84209SOL     OW54400   6.203   7.758  14.536
84209SOL    HW154401   6.262   7.749  14.461
84209SOL    HW254402   6.223   7.844  14.573
84210SOL     OW54403   1.583  13.700  10.556
84210SOL    HW154404   1.512  13.676  10.616
84210SOL    HW254405   1.584  13.630  10.491
84211SOL     OW54406   3.333  14.406   4.870
84211SOL    HW154407   3.341  14.477   4.806
84211SOL    HW254408   3.246  14.420   4.909
84212SOL     OW54409   1.934  12.678   1.195
84212SOL    HW154410   1.933  12.685   1.100
84212SOL    HW254411   2.007  12.734   1.223
84213SOL     OW54412  10.587  12.919   2.351
84213SOL    HW154413  10.516  12.934   2.289
84213SOL    HW254414  10.659  12.972   2.318
84214SOL     OW54415   8.372  10.148   5.161
84214SOL    HW154416   8.410  10.120   5.244
84214SOL    HW254417   8.435  10.122   5.095
84215SOL     OW54418   2.771  13.780   7.977
84215SOL    HW154419   2.681  13.811   7.971
84215SOL    HW254420   2.816  13.845   8.031
84216SOL     OW54421   9.689   0.834  11.332
84216SOL    HW154422   9.774   0.867  11.305
84216SOL    HW254423   9.636   0.912  11.347
84217SOL     OW54424   2.636  13.674   7.473
84217SOL    HW154425   2.548  13.660   7.508
84217SOL    HW254426   2.639  13.768   7.456
84218SOL     OW54427   3.743   6.932  12.755
84218SOL    HW154428   3.699   6.849  12.769
84218SOL    HW254429   3.836   6.913  12.768
84219SOL     OW54430  12.765  13.801   4.019
84219SOL    HW154431  12.689  13.745   4.001
84219SOL    HW254432  12.728  13.880   4.059
84220SOL     OW54433  13.572   1.073   7.708
84220SOL    HW154434  13.500   1.034   7.757
84220SOL    HW254435  13.538   1.081   7.618
84221SOL     OW54436  13.720   3.645   2.450
84221SOL    HW154437  13.735   3.701   2.374
84221SOL    HW254438  13.731   3.702   2.526
84222SOL     OW54439   1.384  10.157   7.264
84222SOL    HW154440   1.377  10.233   7.323
84222SOL    HW254441   1.420  10.087   7.319
84223SOL     OW54442  13.220   2.027   7.200
84223SOL    HW154443  13.133   2.027   7.240
84223SOL    HW254444  13.231   2.116   7.166
84224SOL     OW54445  13.814  13.291   8.972
84224SOL    HW154446  13.758  13.362   8.940
84224SOL    HW254447  13.832  13.313   9.063
84225SOL     OW54448  13.815   4.891  14.267
84225SOL    HW154449  13.821   4.856  14.178
84225SOL    HW254450  13.873   4.835  14.319
84226SOL     OW54451   4.493   5.388  14.560
84226SOL    HW154452   4.433   5.363  14.489
84226SOL    HW254453   4.532   5.305  14.588
84227SOL     OW54454   4.971   5.920   8.707
84227SOL    HW154455   5.050   5.933   8.759
84227SOL    HW254456   4.993   5.954   8.621
84228SOL     OW54457   3.772   3.194   0.242
84228SOL    HW154458   3.762   3.103   0.270
84228SOL    HW254459   3.686   3.234   0.257
84229SOL     OW54460   5.255   2.370  12.406
84229SOL    HW154461   5.181   2.310  12.422
84229SOL    HW254462   5.307   2.327  12.339
84230SOL     OW54463   3.203   9.449  10.662
84230SOL    HW154464   3.127   9.437  10.606
84230SOL    HW254465   3.171   9.500  10.736
84231SOL     OW54466   1.866   9.999   9.400
84231SOL    HW154467   1.953  10.033   9.422
84231SOL    HW254468   1.828  10.068   9.345
84232SOL     OW54469  13.536   4.860  13.227
84232SOL    HW154470  13.482   4.829  13.154
84232SOL    HW254471  13.501   4.947  13.246
84233SOL     OW54472  14.345   7.543   1.301
84233SOL    HW154473  14.261   7.541   1.255
84233SOL    HW254474  14.396   7.472   1.263
84234SOL     OW54475  13.117   4.817   7.189
84234SOL    HW154476  13.082   4.840   7.275
84234SOL    HW254477  13.138   4.724   7.196
84235SOL     OW54478   8.847  13.616   0.286
84235SOL    HW154479   8.917  13.656   0.338
84235SOL    HW254480   8.839  13.672   0.209
84236SOL     OW54481   6.656   6.125  10.875
84236SOL    HW154482   6.685   6.216  10.888
84236SOL    HW254483   6.588   6.130  10.808
84237SOL     OW54484  10.130  13.876   0.653
84237SOL    HW154485  10.086  13.816   0.713
84237SOL    HW254486  10.102  13.849   0.566
84238SOL     OW54487   3.410   5.924   4.628
84238SOL    HW154488   3.323   5.957   4.608
84238SOL    HW254489   3.441   5.981   4.699
84239SOL     OW54490   4.573   3.684  12.316
84239SOL    HW154491   4.648   3.651  12.268
84239SOL    HW254492   4.497   3.640  12.277
84240SOL     OW54493   5.556   0.417  12.238
84240SOL    HW154494   5.572   0.457  12.152
84240SOL    HW254495   5.501   0.342  12.220
84241SOL     OW54496   0.115  10.482  12.140
84241SOL    HW154497   0.187  10.456  12.197
84241SOL    HW254498   0.132  10.436  12.057
84242SOL     OW54499   9.171   7.277   8.902
84242SOL    HW154500   9.220   7.329   8.838
84242SOL    HW254501   9.091   7.327   8.917
84243SOL     OW54502  14.485  10.019   1.427
84243SOL    HW154503  14.531   9.936   1.444
84243SOL    HW254504  14.472  10.058   1.514
84244SOL     OW54505  12.538   4.132  14.471
84244SOL    HW154506  12.443   4.125  14.469
84244SOL    HW254507  12.565   4.075  14.543
84245SOL     OW54508   9.130  13.049   6.307
84245SOL    HW154509   9.105  12.958   6.322
84245SOL    HW254510   9.226  13.046   6.299
84246SOL     OW54511   9.775   6.168   0.463
84246SOL    HW154512   9.713   6.101   0.436
84246SOL    HW254513   9.787   6.223   0.385
84247SOL     OW54514  10.730  12.370   0.054
84247SOL    HW154515  10.789  12.391   0.126
84247SOL    HW254516  10.772  12.296   0.010
84248SOL     OW54517   1.986  10.718   6.821
84248SOL    HW154518   2.039  10.683   6.749
84248SOL    HW254519   2.037  10.791   6.856
84249SOL     OW54520   8.584   0.003   7.418
84249SOL    HW154521   8.637  14.822   7.363
84249SOL    HW254522   8.530   0.052   7.355
84250SOL     OW54523   0.355   6.527  11.111
84250SOL    HW154524   0.424   6.487  11.058
84250SOL    HW254525   0.292   6.456  11.126
84251SOL     OW54526   1.441   2.519  10.606
84251SOL    HW154527   1.475   2.506  10.694
84251SOL    HW254528   1.508   2.481  10.549
84252SOL     OW54529  10.264  13.900  12.470
84252SOL    HW154530  10.356  13.925  12.465
84252SOL    HW254531  10.217  13.971  12.426
84253SOL     OW54532   3.496   1.761   7.526
84253SOL    HW154533   3.495   1.815   7.605
84253SOL    HW254534   3.527   1.820   7.457
84254SOL     OW54535   1.363   7.903   4.964
84254SOL    HW154536   1.389   7.959   5.036
84254SOL    HW254537   1.367   7.959   4.887
84255SOL     OW54538   8.158   7.016   1.358
84255SOL    HW154539   8.088   6.963   1.398
84255SOL    HW254540   8.237   6.993   1.407
84256SOL     OW54541  11.822  13.733   8.659
84256SOL    HW154542  11.729  13.722   8.642
84256SOL    HW254543  11.839  13.679   8.736
84257SOL     OW54544   3.334   9.507  11.794
84257SOL    HW154545   3.310   9.539  11.881
84257SOL    HW254546   3.407   9.564  11.767
84258SOL     OW54547   4.491   7.113   5.360
84258SOL    HW154548   4.556   7.081   5.297
84258SOL    HW254549   4.407   7.102   5.316
84259SOL     OW54550   2.125  10.883  14.770
84259SOL    HW154551   2.189  10.954  14.779
84259SOL    HW254552   2.067  10.894  14.846
84260SOL     OW54553   1.810   3.157   8.899
84260SOL    HW154554   1.759   3.077   8.914
84260SOL    HW254555   1.745   3.226   8.890
84261SOL     OW54556   7.320   9.109   8.577
84261SOL    HW154557   7.385   9.107   8.647
84261SOL    HW254558   7.319   9.199   8.547
84262SOL     OW54559  10.226   7.676   5.002
84262SOL    HW154560  10.286   7.604   4.988
84262SOL    HW254561  10.205   7.708   4.914
84263SOL     OW54562   2.837   6.231   4.931
84263SOL    HW154563   2.752   6.187   4.926
84263SOL    HW254564   2.901   6.160   4.939
84264SOL     OW54565  12.398   8.327  11.150
84264SOL    HW154566  12.361   8.345  11.063
84264SOL    HW254567  12.385   8.408  11.199
84265SOL     OW54568   2.894   8.640  14.054
84265SOL    HW154569   2.951   8.713  14.080
84265SOL    HW254570   2.955   8.573  14.023
84266SOL     OW54571   5.926   7.339   7.960
84266SOL    HW154572   5.856   7.332   7.895
84266SOL    HW254573   6.005   7.310   7.913
84267SOL     OW54574  10.767   7.642  10.501
84267SOL    HW154575  10.731   7.561  10.464
84267SOL    HW254576  10.698   7.707  10.488
84268SOL     OW54577   1.744   1.737  14.534
84268SOL    HW154578   1.660   1.699  14.558
84268SOL    HW254579   1.792   1.745  14.616
84269SOL     OW54580  11.111   0.524  14.400
84269SOL    HW154581  11.021   0.518  14.368
84269SOL    HW254582  11.158   0.567  14.329
84270SOL     OW54583   6.885  10.239  11.957
84270SOL    HW154584   6.954  10.201  11.903
84270SOL    HW254585   6.927  10.312  12.003
84271SOL     OW54586   8.436  10.437   9.956
84271SOL    HW154587   8.530  10.451   9.964
84271SOL    HW254588   8.425  10.394   9.871
84272SOL     OW54589   5.663   4.332  11.625
84272SOL    HW154590   5.700   4.386  11.694
84272SOL    HW254591   5.737   4.308  11.569
84273SOL     OW54592   5.628   7.574   1.727
84273SOL    HW154593   5.721   7.559   1.709
84273SOL    HW254594   5.614   7.539   1.814
84274SOL     OW54595  13.194   3.843   0.104
84274SOL    HW154596  13.166   3.767   0.054
84274SOL    HW254597  13.245   3.896   0.041
84275SOL     OW54598   7.253   2.752   8.283
84275SOL    HW154599   7.274   2.709   8.366
84275SOL    HW254600   7.310   2.708   8.219
84276SOL     OW54601   4.519  14.064   8.871
84276SOL    HW154602   4.524  14.148   8.826
84276SOL    HW254603   4.522  14.087   8.964
84277SOL     OW54604   6.238   1.988  10.049
84277SOL    HW154605   6.158   2.016  10.093
84277SOL    HW254606   6.308   2.035  10.093
84278SOL     OW54607  13.519  13.765   6.985
84278SOL    HW154608  13.583  13.701   7.016
84278SOL    HW254609  13.534  13.842   7.040
84279SOL     OW54610  12.812   2.361   1.006
84279SOL    HW154611  12.793   2.394   1.094
84279SOL    HW254612  12.906   2.345   1.007
84280SOL     OW54613   2.181  12.642   7.715
84280SOL    HW154614   2.119  12.714   7.701
84280SOL    HW254615   2.238  12.673   7.786
84281SOL     OW54616  14.251  12.707  11.789
84281SOL    HW154617  14.296  12.672  11.712
84281SOL    HW254618  14.313  12.770  11.826
84282SOL     OW54619   2.867  10.843  11.783
84282SOL    HW154620   2.903  10.863  11.870
84282SOL    HW254621   2.860  10.929  11.741
84283SOL     OW54622  11.504  10.280  14.070
84283SOL    HW154623  11.442  10.208  14.083
84283SOL    HW254624  11.451  10.350  14.030
84284SOL     OW54625   1.741   2.527   5.105
84284SOL    HW154626   1.699   2.600   5.151
84284SOL    HW254627   1.688   2.515   5.027
84285SOL     OW54628  13.695   0.828   2.505
84285SOL    HW154629  13.720   0.768   2.435
84285SOL    HW254630  13.767   0.890   2.511
84286SOL     OW54631   2.983  12.148   7.894
84286SOL    HW154632   3.062  12.096   7.903
84286SOL    HW254633   3.012  12.228   7.850
84287SOL     OW54634  12.710   8.339  13.064
84287SOL    HW154635  12.776   8.280  13.028
84287SOL    HW254636  12.643   8.282  13.100
84288SOL     OW54637   3.883   0.880  10.557
84288SOL    HW154638   3.900   0.871  10.651
84288SOL    HW254639   3.942   0.816  10.516
84289SOL     OW54640   7.682   1.687   9.200
84289SOL    HW154641   7.601   1.660   9.157
84289SOL    HW254642   7.661   1.771   9.240
84290SOL     OW54643   0.060   2.510  13.104
84290SOL    HW154644  14.873   2.580  13.104
84290SOL    HW254645   0.135   2.547  13.058
84291SOL     OW54646  10.772   9.858  12.276
84291SOL    HW154647  10.809   9.889  12.194
84291SOL    HW254648  10.826   9.783  12.300
84292SOL     OW54649   7.260   4.927  13.071
84292SOL    HW154650   7.201   4.993  13.107
84292SOL    HW254651   7.212   4.844  13.080
84293SOL     OW54652  12.575  10.054   6.596
84293SOL    HW154653  12.514   9.991   6.559
84293SOL    HW254654  12.616  10.095   6.519
84294SOL     OW54655  14.087   1.869   8.807
84294SOL    HW154656  14.147   1.865   8.882
84294SOL    HW254657  14.079   1.778   8.777
84295SOL     OW54658  10.750   6.674   5.033
84295SOL    HW154659  10.678   6.687   5.095
84295SOL    HW254660  10.757   6.756   4.985
84296SOL     OW54661  13.591   1.602   3.565
84296SOL    HW154662  13.597   1.661   3.640
84296SOL    HW254663  13.513   1.633   3.517
84297SOL     OW54664   2.115   4.989   9.108
84297SOL    HW154665   2.145   4.936   9.035
84297SOL    HW254666   2.022   5.004   9.092
84298SOL     OW54667   0.575  10.211   9.006
84298SOL    HW154668   0.600  10.186   9.094
84298SOL    HW254669   0.490  10.169   8.991
84299SOL     OW54670   5.205  13.275   1.231
84299SOL    HW154671   5.171  13.282   1.142
84299SOL    HW254672   5.299  13.290   1.222
84300SOL     OW54673   8.839   4.691   1.952
84300SOL    HW154674   8.921   4.729   1.920
84300SOL    HW254675   8.813   4.629   1.884
84301SOL     OW54676  14.483   9.185   5.624
84301SOL    HW154677  14.536   9.234   5.561
84301SOL    HW254678  14.506   9.093   5.609
84302SOL     OW54679   6.388   6.774   9.419
84302SOL    HW154680   6.456   6.841   9.423
84302SOL    HW254681   6.430   6.700   9.374
84303SOL     OW54682  10.164   8.099   2.005
84303SOL    HW154683  10.134   8.064   2.089
84303SOL    HW254684  10.250   8.058   1.992
84304SOL     OW54685   9.878   8.711   1.899
84304SOL    HW154686   9.964   8.717   1.857
84304SOL    HW254687   9.873   8.787   1.957
84305SOL     OW54688  14.068  13.586  12.700
84305SOL    HW154689  14.020  13.540  12.632
84305SOL    HW254690  14.039  13.546  12.782
84306SOL     OW54691   6.325   4.612  12.575
84306SOL    HW154692   6.413   4.577  12.592
84306SOL    HW254693   6.336   4.667  12.498
84307SOL     OW54694   8.432  14.270   5.246
84307SOL    HW154695   8.348  14.224   5.238
84307SOL    HW254696   8.475  14.228   5.321
84308SOL     OW54697   7.033   4.386   8.789
84308SOL    HW154698   6.954   4.435   8.811
84308SOL    HW254699   7.093   4.401   8.863
84309SOL     OW54700  13.642  12.386   4.589
84309SOL    HW154701  13.611  12.454   4.528
84309SOL    HW254702  13.637  12.427   4.675
84310SOL     OW54703   9.017   2.287   9.610
84310SOL    HW154704   9.060   2.208   9.644
84310SOL    HW254705   9.022   2.276   9.515
84311SOL     OW54706  13.732  14.271   4.498
84311SOL    HW154707  13.771  14.185   4.517
84311SOL    HW254708  13.682  14.292   4.577
84312SOL     OW54709   5.219  13.957   4.243
84312SOL    HW154710   5.139  13.975   4.293
84312SOL    HW254711   5.283  13.932   4.309
84313SOL     OW54712   3.194   7.336   6.336
84313SOL    HW154713   3.266   7.281   6.305
84313SOL    HW254714   3.236   7.417   6.363
84314SOL     OW54715  14.780   5.810   9.587
84314SOL    HW154716  14.718   5.881   9.573
84314SOL    HW254717  14.860   5.853   9.618
84315SOL     OW54718   5.231   7.669   2.503
84315SOL    HW154719   5.282   7.736   2.550
84315SOL    HW254720   5.226   7.701   2.413
84316SOL     OW54721  14.370   2.826   9.207
84316SOL    HW154722  14.451   2.864   9.240
84316SOL    HW254723  14.304   2.849   9.272
84317SOL     OW54724  12.326  14.545   1.285
84317SOL    HW154725  12.399  14.501   1.329
84317SOL    HW254726  12.297  14.484   1.217
84318SOL     OW54727   8.155   8.588   9.977
84318SOL    HW154728   8.073   8.582   9.927
84318SOL    HW254729   8.221   8.549   9.920
84319SOL     OW54730  11.859  13.786   6.299
84319SOL    HW154731  11.800  13.823   6.233
84319SOL    HW254732  11.935  13.755   6.250
84320SOL     OW54733  13.992  12.474   9.089
84320SOL    HW154734  13.968  12.392   9.133
84320SOL    HW254735  13.943  12.542   9.134
84321SOL     OW54736  14.760   7.153   0.151
84321SOL    HW154737  14.758   7.152   0.247
84321SOL    HW254738  14.724   7.238   0.127
84322SOL     OW54739   2.781   0.502   3.427
84322SOL    HW154740   2.876   0.497   3.426
84322SOL    HW254741   2.759   0.524   3.517
84323SOL     OW54742   4.073   0.755  12.092
84323SOL    HW154743   4.025   0.728  12.170
84323SOL    HW254744   4.149   0.802  12.127
84324SOL     OW54745   3.680   9.484   9.873
84324SOL    HW154746   3.672   9.549   9.803
84324SOL    HW254747   3.772   9.457   9.869
84325SOL     OW54748  14.222   6.806   6.435
84325SOL    HW154749  14.273   6.729   6.457
84325SOL    HW254750  14.169   6.824   6.512
84326SOL     OW54751  14.616  14.584   6.267
84326SOL    HW154752  14.635  14.569   6.174
84326SOL    HW254753  14.562  14.509   6.292
84327SOL     OW54754  14.114  14.827   0.331
84327SOL    HW154755  14.136  14.778   0.411
84327SOL    HW254756  14.052   0.016   0.361
84328SOL     OW54757  10.064   5.996   3.915
84328SOL    HW154758  10.101   6.010   4.002
84328SOL    HW254759   9.972   5.975   3.931
84329SOL     OW54760   8.861  13.767   6.278
84329SOL    HW154761   8.774  13.804   6.264
84329SOL    HW254762   8.852  13.716   6.359
84330SOL     OW54763   6.059   8.750  14.123
84330SOL    HW154764   5.964   8.740  14.122
84330SOL    HW254765   6.084   8.754  14.031
84331SOL     OW54766  14.189   7.576  12.913
84331SOL    HW154767  14.253   7.645  12.934
84331SOL    HW254768  14.201   7.511  12.982
84332SOL     OW54769  11.175   1.835  12.640
84332SOL    HW154770  11.085   1.806  12.655
84332SOL    HW254771  11.190   1.900  12.709
84333SOL     OW54772   7.071  14.563   8.992
84333SOL    HW154773   7.077  14.652   8.955
84333SOL    HW254774   7.120  14.509   8.929
84334SOL     OW54775  10.626   2.121   3.954
84334SOL    HW154776  10.673   2.158   4.028
84334SOL    HW254777  10.679   2.144   3.877
84335SOL     OW54778   5.399   4.412  11.660
84335SOL    HW154779   5.424   4.400  11.751
84335SOL    HW254780   5.476   4.383  11.610
84336SOL     OW54781   9.268   8.780   0.821
84336SOL    HW154782   9.305   8.696   0.794
84336SOL    HW254783   9.205   8.801   0.752
84337SOL     OW54784  11.520  13.496   6.094
84337SOL    HW154785  11.544  13.580   6.132
84337SOL    HW254786  11.447  13.466   6.148
84338SOL     OW54787  10.891   3.504   4.165
84338SOL    HW154788  10.846   3.534   4.244
84338SOL    HW254789  10.825   3.511   4.096
84339SOL     OW54790   4.192   3.541   6.659
84339SOL    HW154791   4.147   3.464   6.693
84339SOL    HW254792   4.236   3.578   6.736
84340SOL     OW54793   4.818  13.776   9.157
84340SOL    HW154794   4.810  13.847   9.221
84340SOL    HW254795   4.829  13.697   9.209
84341SOL     OW54796   9.063   4.163   4.591
84341SOL    HW154797   9.097   4.081   4.555
84341SOL    HW254798   9.033   4.139   4.679
84342SOL     OW54799   2.506   9.978   6.029
84342SOL    HW154800   2.562  10.054   6.016
84342SOL    HW254801   2.547   9.928   6.099
84343SOL     OW54802   9.876   6.309   2.288
84343SOL    HW154803   9.955   6.255   2.293
84343SOL    HW254804   9.900   6.381   2.229
84344SOL     OW54805   1.564   9.600   6.525
84344SOL    HW154806   1.488   9.541   6.521
84344SOL    HW254807   1.638   9.542   6.542
84345SOL     OW54808   9.753   1.963   1.067
84345SOL    HW154809   9.752   1.884   1.120
84345SOL    HW254810   9.677   1.955   1.010
84346SOL     OW54811  10.884   6.714   5.941
84346SOL    HW154812  10.875   6.620   5.924
84346SOL    HW254813  10.826   6.730   6.016
84347SOL     OW54814   5.815   1.128   3.413
84347SOL    HW154815   5.752   1.127   3.340
84347SOL    HW254816   5.893   1.086   3.378
84348SOL     OW54817   9.082  13.577  10.323
84348SOL    HW154818   9.155  13.598  10.266
84348SOL    HW254819   9.117  13.586  10.412
84349SOL     OW54820   0.569  14.427   5.910
84349SOL    HW154821   0.498  14.363   5.918
84349SOL    HW254822   0.631  14.385   5.850
84350SOL     OW54823   8.032   7.410   4.561
84350SOL    HW154824   8.072   7.329   4.530
84350SOL    HW254825   8.046   7.473   4.490
84351SOL     OW54826   9.144  14.098  11.868
84351SOL    HW154827   9.138  14.177  11.922
84351SOL    HW254828   9.189  14.034  11.923
84352SOL     OW54829   0.696  12.229   9.424
84352SOL    HW154830   0.706  12.160   9.489
84352SOL    HW254831   0.610  12.267   9.443
84353SOL     OW54832   8.457  14.390   6.073
84353SOL    HW154833   8.371  14.378   6.033
84353SOL    HW254834   8.505  14.446   6.011
84354SOL     OW54835  14.074  11.156   3.731
84354SOL    HW154836  14.087  11.097   3.657
84354SOL    HW254837  14.003  11.214   3.703
84355SOL     OW54838   7.091   5.937   5.967
84355SOL    HW154839   7.152   5.980   5.907
84355SOL    HW254840   7.062   5.859   5.921
84356SOL     OW54841  13.892  10.892   0.785
84356SOL    HW154842  13.986  10.876   0.777
84356SOL    HW254843  13.882  10.935   0.870
84357SOL     OW54844  13.930   6.858  12.143
84357SOL    HW154845  13.984   6.780  12.133
84357SOL    HW254846  13.856   6.830  12.197
84358SOL     OW54847   2.971   3.012   5.270
84358SOL    HW154848   2.942   2.934   5.222
84358SOL    HW254849   3.018   3.064   5.205
84359SOL     OW54850   6.011   1.325   0.381
84359SOL    HW154851   5.919   1.301   0.392
84359SOL    HW254852   6.049   1.254   0.330
84360SOL     OW54853  14.482  13.775   9.043
84360SOL    HW154854  14.568  13.782   9.084
84360SOL    HW254855  14.478  13.685   9.010
84361SOL     OW54856  13.131   7.210   2.805
84361SOL    HW154857  13.130   7.284   2.745
84361SOL    HW254858  13.039   7.196   2.829
84362SOL     OW54859   8.632  10.281   2.403
84362SOL    HW154860   8.596  10.230   2.475
84362SOL    HW254861   8.592  10.367   2.411
84363SOL     OW54862  13.187  11.545  11.806
84363SOL    HW154863  13.118  11.610  11.818
84363SOL    HW254864  13.145  11.461  11.826
84364SOL     OW54865   7.284  12.458   3.784
84364SOL    HW154866   7.324  12.504   3.857
84364SOL    HW254867   7.298  12.365   3.804
84365SOL     OW54868   6.654   1.701  13.400
84365SOL    HW154869   6.647   1.641  13.326
84365SOL    HW254870   6.747   1.722  13.404
84366SOL     OW54871   7.405   7.297   9.393
84366SOL    HW154872   7.374   7.334   9.310
84366SOL    HW254873   7.339   7.323   9.457
84367SOL     OW54874  11.757  11.756  10.058
84367SOL    HW154875  11.773  11.796  10.143
84367SOL    HW254876  11.844  11.745  10.019
84368SOL     OW54877  14.371   9.066  14.819
84368SOL    HW154878  14.436   9.094   0.006
84368SOL    HW254879  14.412   8.993  14.773
84369SOL     OW54880  10.283   9.927  12.119
84369SOL    HW154881  10.211   9.942  12.180
84369SOL    HW254882  10.350   9.882  12.170
84370SOL     OW54883   7.740   6.182   8.340
84370SOL    HW154884   7.687   6.117   8.387
84370SOL    HW254885   7.737   6.260   8.395
84371SOL     OW54886  10.227   8.962   6.445
84371SOL    HW154887  10.216   9.053   6.472
84371SOL    HW254888  10.216   8.911   6.525
84372SOL     OW54889   1.628   3.476  14.555
84372SOL    HW154890   1.678   3.414  14.609
84372SOL    HW254891   1.605   3.425  14.477
84373SOL     OW54892   9.114   1.641   8.735
84373SOL    HW154893   9.190   1.587   8.714
84373SOL    HW254894   9.096   1.623   8.827
84374SOL     OW54895   4.365   2.490   7.442
84374SOL    HW154896   4.300   2.460   7.379
84374SOL    HW254897   4.429   2.419   7.448
84375SOL     OW54898   5.219  12.502  13.542
84375SOL    HW154899   5.162  12.569  13.578
84375SOL    HW254900   5.283  12.549  13.490
84376SOL     OW54901  11.796   3.380   2.917
84376SOL    HW154902  11.752   3.304   2.955
84376SOL    HW254903  11.861   3.343   2.858
84377SOL     OW54904   5.956   9.911   2.300
84377SOL    HW154905   5.902   9.899   2.221
84377SOL    HW254906   5.905   9.970   2.355
84378SOL     OW54907   6.112  10.448  14.494
84378SOL    HW154908   6.195  10.495  14.486
84378SOL    HW254909   6.137  10.356  14.495
84379SOL     OW54910   9.022   8.868   5.636
84379SOL    HW154911   8.942   8.831   5.599
84379SOL    HW254912   9.079   8.793   5.653
84380SOL     OW54913   2.919   3.269   8.195
84380SOL    HW154914   2.960   3.199   8.246
84380SOL    HW254915   2.835   3.284   8.238
84381SOL     OW54916   7.748   9.163  11.154
84381SOL    HW154917   7.797   9.245  11.153
84381SOL    HW254918   7.815   9.095  11.168
84382SOL     OW54919   8.498   9.793   3.030
84382SOL    HW154920   8.583   9.817   3.066
84382SOL    HW254921   8.434   9.829   3.092
84383SOL     OW54922  14.585   8.112   1.474
84383SOL    HW154923  14.591   8.179   1.542
84383SOL    HW254924  14.508   8.060   1.499
84384SOL     OW54925  13.345   8.771  12.122
84384SOL    HW154926  13.271   8.718  12.094
84384SOL    HW254927  13.422   8.720  12.097
84385SOL     OW54928   9.273  12.325   5.026
84385SOL    HW154929   9.366  12.313   5.043
84385SOL    HW254930   9.268  12.354   4.935
84386SOL     OW54931  10.754  11.129   5.579
84386SOL    HW154932  10.699  11.178   5.640
84386SOL    HW254933  10.841  11.132   5.617
84387SOL     OW54934   8.184   0.250   2.741
84387SOL    HW154935   8.187   0.213   2.653
84387SOL    HW254936   8.132   0.187   2.792
84388SOL     OW54937   7.498  12.728   2.729
84388SOL    HW154938   7.569  12.694   2.674
84388SOL    HW254939   7.543  12.782   2.794
84389SOL     OW54940   0.212   8.890   3.484
84389SOL    HW154941   0.117   8.903   3.489
84389SOL    HW254942   0.232   8.894   3.391
84390SOL     OW54943   0.283   3.383   8.516
84390SOL    HW154944   0.254   3.333   8.592
84390SOL    HW254945   0.325   3.319   8.459
84391SOL     OW54946   1.792   8.982   6.594
84391SOL    HW154947   1.736   9.049   6.633
84391SOL    HW254948   1.787   8.908   6.654
84392SOL     OW54949  10.738   8.782  10.896
84392SOL    HW154950  10.704   8.848  10.835
84392SOL    HW254951  10.679   8.786  10.971
84393SOL     OW54952   7.796   1.673   1.338
84393SOL    HW154953   7.774   1.582   1.322
84393SOL    HW254954   7.832   1.704   1.255
84394SOL     OW54955  14.818   3.788   6.586
84394SOL    HW154956   0.028   3.825   6.579
84394SOL    HW254957  14.760   3.864   6.584
84395SOL     OW54958   7.364  11.659   1.520
84395SOL    HW154959   7.432  11.654   1.587
84395SOL    HW254960   7.282  11.670   1.569
84396SOL     OW54961   4.416   9.357   4.167
84396SOL    HW154962   4.329   9.358   4.207
84396SOL    HW254963   4.470   9.413   4.224
84397SOL     OW54964   6.301   0.939   4.074
84397SOL    HW154965   6.362   0.866   4.062
84397SOL    HW254966   6.215   0.897   4.081
84398SOL     OW54967  11.288   1.345  14.805
84398SOL    HW154968  11.199   1.379  14.799
84398SOL    HW254969  11.344   1.417  14.776
84399SOL     OW54970   5.908  10.569  14.325
84399SOL    HW154971   5.950  10.650  14.295
84399SOL    HW254972   5.970  10.531  14.386
84400SOL     OW54973   8.751  10.700   6.209
84400SOL    HW154974   8.768  10.712   6.115
84400SOL    HW254975   8.832  10.730   6.251
84401SOL     OW54976   5.851   4.329   8.895
84401SOL    HW154977   5.913   4.397   8.922
84401SOL    HW254978   5.785   4.375   8.844
84402SOL     OW54979   5.208   1.279   9.115
84402SOL    HW154980   5.198   1.279   9.020
84402SOL    HW254981   5.238   1.191   9.137
84403SOL     OW54982  10.724  10.462   7.591
84403SOL    HW154983  10.672  10.383   7.577
84403SOL    HW254984  10.800  10.450   7.533
84404SOL     OW54985   5.689  12.618   5.807
84404SOL    HW154986   5.760  12.649   5.863
84404SOL    HW254987   5.714  12.528   5.785
84405SOL     OW54988   6.807   4.860   6.924
84405SOL    HW154989   6.848   4.906   6.852
84405SOL    HW254990   6.864   4.785   6.942
84406SOL     OW54991   8.750   5.166   9.540
84406SOL    HW154992   8.776   5.091   9.593
84406SOL    HW254993   8.659   5.181   9.563
84407SOL     OW54994   5.057   5.561   5.383
84407SOL    HW154995   5.022   5.580   5.469
84407SOL    HW254996   5.138   5.513   5.400
84408SOL     OW54997   9.507   0.021   1.692
84408SOL    HW154998   9.583   0.020   1.634
84408SOL    HW254999   9.441   0.072   1.645
84409SOL     OW55000   8.329   6.977   8.905
84409SOL    HW155001   8.348   7.048   8.966
84409SOL    HW255002   8.352   7.011   8.819
84410SOL     OW55003  11.384   0.504  11.025
84410SOL    HW155004  11.448   0.534  11.091
84410SOL    HW255005  11.438   0.472  10.953
84411SOL     OW55006   6.647   1.612   0.331
84411SOL    HW155007   6.733   1.648   0.307
84411SOL    HW255008   6.659   1.517   0.325
84412SOL     OW55009  11.448   2.026   7.517
84412SOL    HW155010  11.472   2.071   7.435
84412SOL    HW255011  11.531   2.014   7.563
84413SOL     OW55012  10.183   1.858   7.205
84413SOL    HW155013  10.118   1.852   7.276
84413SOL    HW255014  10.267   1.850   7.250
84414SOL     OW55015   1.323   1.324   3.385
84414SOL    HW155016   1.292   1.347   3.297
84414SOL    HW255017   1.323   1.407   3.433
84415SOL     OW55018   0.519   4.537   8.945
84415SOL    HW155019   0.613   4.535   8.927
84415SOL    HW255020   0.483   4.601   8.884
84416SOL     OW55021   8.204  10.943   7.903
84416SOL    HW155022   8.161  10.971   7.984
84416SOL    HW255023   8.245  11.022   7.869
84417SOL     OW55024   9.740  11.014   8.357
84417SOL    HW155025   9.758  11.105   8.333
84417SOL    HW255026   9.662  10.991   8.306
84418SOL     OW55027   7.236   3.338   9.233
84418SOL    HW155028   7.315   3.346   9.179
84418SOL    HW255029   7.163   3.346   9.172
84419SOL     OW55030   8.668   7.584   9.617
84419SOL    HW155031   8.661   7.639   9.538
84419SOL    HW255032   8.756   7.546   9.611
84420SOL     OW55033  10.101  13.902  10.040
84420SOL    HW155034  10.112  13.919   9.947
84420SOL    HW255035  10.140  13.979  10.083
84421SOL     OW55036   6.004   1.050   8.944
84421SOL    HW155037   5.937   1.039   8.877
84421SOL    HW255038   6.019   1.144   8.947
84422SOL     OW55039  14.689  14.848   5.417
84422SOL    HW155040  14.737  14.814   5.343
84422SOL    HW255041  14.615  14.788   5.429
84423SOL     OW55042   3.836   9.922   4.797
84423SOL    HW155043   3.837   9.952   4.707
84423SOL    HW255044   3.929   9.920   4.822
84424SOL     OW55045   1.448   7.090  12.152
84424SOL    HW155046   1.395   7.011  12.165
84424SOL    HW255047   1.527   7.060  12.108
84425SOL     OW55048  11.858   2.310   7.465
84425SOL    HW155049  11.948   2.281   7.455
84425SOL    HW255050  11.862   2.405   7.450
84426SOL     OW55051   7.895   0.091   3.160
84426SOL    HW155052   7.932   0.064   3.075
84426SOL    HW255053   7.812   0.043   3.165
84427SOL     OW55054   0.630   2.559  14.420
84427SOL    HW155055   0.601   2.537  14.509
84427SOL    HW255056   0.722   2.531  14.418
84428SOL     OW55057   0.380   7.228   3.917
84428SOL    HW155058   0.455   7.169   3.930
84428SOL    HW255059   0.419   7.311   3.888
84429SOL     OW55060  11.979   0.697   3.978
84429SOL    HW155061  12.006   0.751   4.052
84429SOL    HW255062  11.948   0.615   4.018
84430SOL     OW55063  11.986   0.146   8.390
84430SOL    HW155064  11.980   0.082   8.319
84430SOL    HW255065  11.896   0.160   8.418
84431SOL     OW55066   7.022  13.571   2.488
84431SOL    HW155067   6.962  13.628   2.536
84431SOL    HW255068   7.034  13.495   2.545
84432SOL     OW55069   5.480   8.580   3.859
84432SOL    HW155070   5.456   8.599   3.768
84432SOL    HW255071   5.448   8.656   3.909
84433SOL     OW55072  10.937   0.128   9.781
84433SOL    HW155073  10.934   0.049   9.728
84433SOL    HW255074  11.004   0.183   9.739
84434SOL     OW55075   5.513   8.056  12.137
84434SOL    HW155076   5.512   7.962  12.157
84434SOL    HW255077   5.528   8.060  12.043
84435SOL     OW55078  11.429   5.663  11.018
84435SOL    HW155079  11.426   5.722  10.942
84435SOL    HW255080  11.417   5.576  10.980
84436SOL     OW55081   0.173  12.383   7.888
84436SOL    HW155082   0.083  12.393   7.857
84436SOL    HW255083   0.171  12.416   7.978
84437SOL     OW55084  12.519   8.263   5.489
84437SOL    HW155085  12.544   8.354   5.504
84437SOL    HW255086  12.535   8.220   5.573
84438SOL     OW55087   0.844   3.844   9.487
84438SOL    HW155088   0.926   3.797   9.470
84438SOL    HW255089   0.780   3.802   9.429
84439SOL     OW55090   9.095   2.501   1.133
84439SOL    HW155091   9.166   2.437   1.131
84439SOL    HW255092   9.117   2.560   1.205
84440SOL     OW55093   2.020   4.581   9.308
84440SOL    HW155094   2.115   4.588   9.321
84440SOL    HW255095   1.989   4.671   9.314
84441SOL     OW55096   8.722   8.932   8.964
84441SOL    HW155097   8.780   8.922   9.038
84441SOL    HW255098   8.637   8.956   9.002
84442SOL     OW55099   4.451   7.006   7.955
84442SOL    HW155100   4.467   7.099   7.938
84442SOL    HW255101   4.517   6.982   8.020
84443SOL     OW55102  11.863  12.986   4.512
84443SOL    HW155103  11.877  12.921   4.581
84443SOL    HW255104  11.879  13.070   4.554
84444SOL     OW55105  11.513   6.219   8.129
84444SOL    HW155106  11.481   6.130   8.146
84444SOL    HW255107  11.565   6.240   8.206
84445SOL     OW55108   3.751   2.260   5.301
84445SOL    HW155109   3.802   2.337   5.276
84445SOL    HW255110   3.682   2.255   5.235
84446SOL     OW55111  11.349  13.140   9.616
84446SOL    HW155112  11.439  13.124   9.644
84446SOL    HW255113  11.320  13.214   9.669
84447SOL     OW55114   6.290   1.519   2.301
84447SOL    HW155115   6.205   1.487   2.273
84447SOL    HW255116   6.329   1.557   2.222
84448SOL     OW55117  10.280  10.752   0.670
84448SOL    HW155118  10.328  10.824   0.630
84448SOL    HW255119  10.203  10.794   0.709
84449SOL     OW55120   7.369   0.647   2.985
84449SOL    HW155121   7.300   0.671   2.924
84449SOL    HW255122   7.322   0.609   3.060
84450SOL     OW55123  12.335   7.095  10.230
84450SOL    HW155124  12.265   7.049  10.277
84450SOL    HW255125  12.340   7.180  10.273
84451SOL     OW55126   9.626   5.709  10.142
84451SOL    HW155127   9.565   5.780  10.123
84451SOL    HW255128   9.702   5.751  10.182
84452SOL     OW55129   7.485   2.713   1.779
84452SOL    HW155130   7.466   2.619   1.787
84452SOL    HW255131   7.422   2.755   1.837
84453SOL     OW55132   9.306   8.726   6.818
84453SOL    HW155133   9.294   8.813   6.858
84453SOL    HW255134   9.400   8.714   6.814
84454SOL     OW55135  11.702   3.817   6.432
84454SOL    HW155136  11.629   3.866   6.468
84454SOL    HW255137  11.692   3.729   6.468
84455SOL     OW55138  12.364   0.949   1.287
84455SOL    HW155139  12.325   0.905   1.363
84455SOL    HW255140  12.396   0.877   1.232
84456SOL     OW55141   4.480  11.533   2.604
84456SOL    HW155142   4.442  11.576   2.527
84456SOL    HW255143   4.567  11.506   2.576
84457SOL     OW55144  14.128  13.231   3.877
84457SOL    HW155145  14.092  13.234   3.966
84457SOL    HW255146  14.139  13.137   3.859
84458SOL     OW55147   0.758   2.471   0.834
84458SOL    HW155148   0.720   2.475   0.921
84458SOL    HW255149   0.801   2.556   0.822
84459SOL     OW55150   2.034   3.273   6.865
84459SOL    HW155151   2.088   3.224   6.927
84459SOL    HW255152   2.035   3.220   6.786
84460SOL     OW55153   5.359   3.805  12.409
84460SOL    HW155154   5.448   3.833  12.389
84460SOL    HW255155   5.367   3.750  12.486
84461SOL     OW55156  13.163  11.653  14.837
84461SOL    HW155157  13.223  11.648  14.763
84461SOL    HW255158  13.098  11.718  14.812
84462SOL     OW55159   2.035  13.355   3.514
84462SOL    HW155160   1.946  13.391   3.518
84462SOL    HW255161   2.044  13.322   3.425
84463SOL     OW55162   4.650  11.995  13.683
84463SOL    HW155163   4.608  12.060  13.626
84463SOL    HW255164   4.577  11.945  13.720
84464SOL     OW55165  13.763   3.815  12.253
84464SOL    HW155166  13.854   3.815  12.224
84464SOL    HW255167  13.755   3.740  12.311
84465SOL     OW55168   2.206   2.827  12.406
84465SOL    HW155169   2.204   2.842  12.501
84465SOL    HW255170   2.296   2.803  12.388
84466SOL     OW55171  13.278  11.847   8.074
84466SOL    HW155172  13.276  11.835   7.979
84466SOL    HW255173  13.307  11.937   8.086
84467SOL     OW55174   1.198   9.446   4.475
84467SOL    HW155175   1.286   9.409   4.482
84467SOL    HW255176   1.184   9.460   4.382
84468SOL     OW55177  12.743   2.095   7.913
84468SOL    HW155178  12.820   2.066   7.962
84468SOL    HW255179  12.678   2.026   7.928
84469SOL     OW55180   2.521   8.872  14.712
84469SOL    HW155181   2.478   8.796  14.674
84469SOL    HW255182   2.512   8.941  14.647
84470SOL     OW55183   0.085   3.074  14.097
84470SOL    HW155184   0.017   3.078  14.029
84470SOL    HW255185   0.167   3.070  14.049
84471SOL     OW55186   7.555   1.988   9.947
84471SOL    HW155187   7.647   1.993   9.919
84471SOL    HW255188   7.557   2.015  10.039
84472SOL     OW55189   0.290  12.931  14.173
84472SOL    HW155190   0.364  12.990  14.157
84472SOL    HW255191   0.227  12.985  14.220
84473SOL     OW55192  11.988   2.350   1.954
84473SOL    HW155193  12.032   2.376   2.035
84473SOL    HW255194  12.041   2.279   1.920
84474SOL     OW55195   6.322   6.867   8.136
84474SOL    HW155196   6.405   6.873   8.089
84474SOL    HW255197   6.295   6.958   8.148
84475SOL     OW55198   5.138  13.315   4.027
84475SOL    HW155199   5.151  13.345   3.938
84475SOL    HW255200   5.058  13.261   4.023
84476SOL     OW55201   8.612  12.798  11.354
84476SOL    HW155202   8.561  12.738  11.300
84476SOL    HW255203   8.581  12.885  11.329
84477SOL     OW55204  10.897  13.041  12.742
84477SOL    HW155205  10.955  13.034  12.818
84477SOL    HW255206  10.808  13.040  12.779
84478SOL     OW55207  14.543   8.954   6.981
84478SOL    HW155208  14.450   8.965   6.962
84478SOL    HW255209  14.548   8.950   7.077
84479SOL     OW55210   0.924   1.196  14.563
84479SOL    HW155211   0.961   1.108  14.573
84479SOL    HW255212   0.969   1.248  14.630
84480SOL     OW55213   6.192   8.269  11.730
84480SOL    HW155214   6.288   8.264  11.722
84480SOL    HW255215   6.178   8.315  11.813
84481SOL     OW55216   0.445   3.227   1.386
84481SOL    HW155217   0.441   3.185   1.472
84481SOL    HW255218   0.513   3.179   1.339
84482SOL     OW55219  10.740  12.374   9.350
84482SOL    HW155220  10.715  12.462   9.380
84482SOL    HW255221  10.657  12.329   9.337
84483SOL     OW55222   5.878   2.684   2.417
84483SOL    HW155223   5.867   2.589   2.420
84483SOL    HW255224   5.946   2.699   2.352
84484SOL     OW55225   4.409  14.848   4.106
84484SOL    HW155226   4.377  14.807   4.187
84484SOL    HW255227   4.432  14.775   4.049
84485SOL     OW55228   9.927   6.436   2.736
84485SOL    HW155229   9.980   6.434   2.815
84485SOL    HW255230   9.887   6.349   2.731
84486SOL     OW55231   8.723   1.040   9.495
84486SOL    HW155232   8.817   1.058   9.486
84486SOL    HW255233   8.682   1.098   9.430
84487SOL     OW55234   7.498   0.360   0.776
84487SOL    HW155235   7.502   0.269   0.747
84487SOL    HW255236   7.588   0.383   0.798
84488SOL     OW55237   6.104   6.097   8.597
84488SOL    HW155238   6.161   6.138   8.533
84488SOL    HW255239   6.019   6.139   8.585
84489SOL     OW55240   9.950   9.429  14.316
84489SOL    HW155241   9.965   9.337  14.293
84489SOL    HW255242  10.030   9.456  14.361
84490SOL     OW55243   9.943  10.402  10.707
84490SOL    HW155244  10.034  10.433  10.716
84490SOL    HW255245   9.950  10.307  10.703
84491SOL     OW55246   0.193   9.983   4.710
84491SOL    HW155247   0.275   9.971   4.662
84491SOL    HW255248   0.140  10.038   4.653
84492SOL     OW55249   9.105   6.686   3.431
84492SOL    HW155250   9.116   6.615   3.368
84492SOL    HW255251   9.163   6.755   3.398
84493SOL     OW55252   5.047  14.712   5.847
84493SOL    HW155253   5.011  14.770   5.780
84493SOL    HW255254   5.114  14.661   5.801
84494SOL     OW55255   7.430   8.908   9.570
84494SOL    HW155256   7.440   8.910   9.475
84494SOL    HW255257   7.382   8.989   9.591
84495SOL     OW55258   4.924  11.223   9.962
84495SOL    HW155259   4.920  11.270  10.046
84495SOL    HW255260   4.838  11.238   9.922
84496SOL     OW55261   2.147   2.426   2.000
84496SOL    HW155262   2.143   2.503   2.058
84496SOL    HW255263   2.055   2.400   1.989
84497SOL     OW55264   0.670  13.061   9.997
84497SOL    HW155265   0.709  13.125  10.056
84497SOL    HW255266   0.712  13.078   9.912
84498SOL     OW55267   1.014  13.424   3.347
84498SOL    HW155268   1.033  13.444   3.439
84498SOL    HW255269   0.984  13.333   3.348
84499SOL     OW55270   7.928   9.430   0.760
84499SOL    HW155271   7.901   9.360   0.701
84499SOL    HW255272   8.003   9.394   0.808
84500SOL     OW55273   2.070   8.420   2.948
84500SOL    HW155274   1.987   8.373   2.956
84500SOL    HW255275   2.083   8.429   2.854
84501SOL     OW55276   4.796   6.671  11.406
84501SOL    HW155277   4.799   6.640  11.497
84501SOL    HW255278   4.704   6.665  11.382
84502SOL     OW55279   2.746  10.220   4.039
84502SOL    HW155280   2.756  10.172   3.957
84502SOL    HW255281   2.725  10.309   4.011
84503SOL     OW55282   8.353   2.125   5.578
84503SOL    HW155283   8.368   2.034   5.601
84503SOL    HW255284   8.435   2.154   5.539
84504SOL     OW55285  11.808   5.471  10.438
84504SOL    HW155286  11.760   5.553  10.450
84504SOL    HW255287  11.740   5.405  10.428
84505SOL     OW55288  10.309   9.219   5.022
84505SOL    HW155289  10.306   9.220   4.926
84505SOL    HW255290  10.366   9.292   5.045
84506SOL     OW55291  10.719  13.145   1.984
84506SOL    HW155292  10.793  13.204   1.981
84506SOL    HW255293  10.645  13.196   1.950
84507SOL     OW55294   7.655  12.587   2.565
84507SOL    HW155295   7.727  12.597   2.503
84507SOL    HW255296   7.673  12.505   2.611
84508SOL     OW55297   8.220  14.098   6.960
84508SOL    HW155298   8.167  14.164   7.004
84508SOL    HW255299   8.158  14.030   6.935
84509SOL     OW55300   0.092  11.268  13.666
84509SOL    HW155301   0.078  11.334  13.734
84509SOL    HW255302   0.036  11.195  13.693
84510SOL     OW55303   0.558  13.438  10.468
84510SOL    HW155304   0.534  13.526  10.438
84510SOL    HW255305   0.613  13.403  10.399
84511SOL     OW55306   3.868   0.538  10.227
84511SOL    HW155307   3.882   0.452  10.189
84511SOL    HW255308   3.774   0.555  10.216
84512SOL     OW55309   9.002  13.161   7.513
84512SOL    HW155310   8.918  13.162   7.467
84512SOL    HW255311   9.067  13.166   7.443
84513SOL     OW55312   3.042   4.057   0.513
84513SOL    HW155313   3.018   4.108   0.436
84513SOL    HW255314   3.137   4.064   0.518
84514SOL     OW55315   9.643  13.744   7.372
84514SOL    HW155316   9.692  13.737   7.289
84514SOL    HW255317   9.705  13.787   7.432
84515SOL     OW55318   4.956  13.850   9.844
84515SOL    HW155319   5.017  13.821   9.912
84515SOL    HW255320   4.872  13.812   9.870
84516SOL     OW55321   3.088   5.147   1.501
84516SOL    HW155322   3.088   5.167   1.407
84516SOL    HW255323   3.180   5.134   1.523
84517SOL     OW55324   3.713   1.800  11.370
84517SOL    HW155325   3.771   1.779  11.297
84517SOL    HW255326   3.738   1.889  11.395
84518SOL     OW55327   0.694  14.294   6.548
84518SOL    HW155328   0.676  14.387   6.546
84518SOL    HW255329   0.703  14.269   6.456
84519SOL     OW55330   4.624   9.770   6.568
84519SOL    HW155331   4.694   9.790   6.505
84519SOL    HW255332   4.670   9.763   6.652
84520SOL     OW55333  13.315   8.133   9.475
84520SOL    HW155334  13.359   8.124   9.391
84520SOL    HW255335  13.233   8.084   9.465
84521SOL     OW55336   6.499   0.322   5.809
84521SOL    HW155337   6.540   0.345   5.726
84521SOL    HW255338   6.559   0.355   5.876
84522SOL     OW55339  11.936   6.547   2.025
84522SOL    HW155340  11.925   6.494   1.946
84522SOL    HW255341  11.934   6.484   2.097
84523SOL     OW55342  14.173  10.530  13.717
84523SOL    HW155343  14.207  10.617  13.693
84523SOL    HW255344  14.229  10.501  13.789
84524SOL     OW55345   9.150   0.647   2.046
84524SOL    HW155346   9.169   0.597   1.966
84524SOL    HW255347   9.061   0.681   2.032
84525SOL     OW55348   6.472   5.418   1.876
84525SOL    HW155349   6.442   5.503   1.844
84525SOL    HW255350   6.461   5.422   1.971
84526SOL     OW55351   0.818   0.594   0.800
84526SOL    HW155352   0.775   0.680   0.794
84526SOL    HW255353   0.807   0.556   0.713
84527SOL     OW55354   3.076   0.069   5.177
84527SOL    HW155355   3.027  14.867   5.198
84527SOL    HW255356   3.163   0.054   5.214
84528SOL     OW55357   8.516   8.672   3.178
84528SOL    HW155358   8.477   8.711   3.100
84528SOL    HW255359   8.455   8.602   3.203
84529SOL     OW55360  13.673   7.535   6.080
84529SOL    HW155361  13.712   7.453   6.051
84529SOL    HW255362  13.597   7.509   6.131
84530SOL     OW55363   0.041  10.076   9.046
84530SOL    HW155364  14.864  10.076   9.124
84530SOL    HW255365   0.025  10.162   9.005
84531SOL     OW55366   2.555  13.815   1.155
84531SOL    HW155367   2.527  13.739   1.205
84531SOL    HW255368   2.636  13.844   1.196
84532SOL     OW55369  10.728  10.680   7.247
84532SOL    HW155370  10.818  10.706   7.226
84532SOL    HW255371  10.730  10.585   7.251
84533SOL     OW55372  11.871   5.610   2.838
84533SOL    HW155373  11.960   5.589   2.867
84533SOL    HW255374  11.877   5.614   2.743
84534SOL     OW55375   1.640   5.467  12.793
84534SOL    HW155376   1.580   5.423  12.732
84534SOL    HW255377   1.586   5.485  12.870
84535SOL     OW55378  10.749   5.144  10.062
84535SOL    HW155379  10.721   5.056  10.085
84535SOL    HW255380  10.683   5.174   9.998
84536SOL     OW55381   2.541   3.960   7.710
84536SOL    HW155382   2.616   3.908   7.740
84536SOL    HW255383   2.561   4.049   7.737
84537SOL     OW55384   9.087  13.061   1.822
84537SOL    HW155385   9.129  12.978   1.800
84537SOL    HW255386   9.146  13.128   1.785
84538SOL     OW55387   3.498   9.086  10.096
84538SOL    HW155388   3.573   9.145  10.103
84538SOL    HW255389   3.456   9.111  10.013
84539SOL     OW55390  13.362   7.735   7.019
84539SOL    HW155391  13.324   7.712   6.934
84539SOL    HW255392  13.389   7.826   7.009
84540SOL     OW55393   8.052   9.758   1.753
84540SOL    HW155394   7.981   9.775   1.815
84540SOL    HW255395   8.109   9.696   1.799
84541SOL     OW55396   8.862   8.578   7.096
84541SOL    HW155397   8.956   8.597   7.098
84541SOL    HW255398   8.851   8.521   7.020
84542SOL     OW55399  11.395  12.404   7.115
84542SOL    HW155400  11.413  12.350   7.038
84542SOL    HW255401  11.302  12.387   7.134
84543SOL     OW55402  11.138   9.045   4.070
84543SOL    HW155403  11.165   8.955   4.050
84543SOL    HW255404  11.075   9.035   4.141
84544SOL     OW55405   7.870   5.671  10.019
84544SOL    HW155406   7.776   5.687  10.017
84544SOL    HW255407   7.883   5.599   9.957
84545SOL     OW55408   9.577   1.996  10.278
84545SOL    HW155409   9.498   1.990  10.223
84545SOL    HW255410   9.649   2.002  10.216
84546SOL     OW55411   6.956  13.820   1.603
84546SOL    HW155412   6.985  13.911   1.607
84546SOL    HW255413   6.869  13.824   1.565
84547SOL     OW55414   5.829   2.168   0.810
84547SOL    HW155415   5.893   2.211   0.865
84547SOL    HW255416   5.877   2.099   0.765
84548SOL     OW55417  14.837  12.359   1.361
84548SOL    HW155418  14.747  12.389   1.375
84548SOL    HW255419   0.009  12.439   1.343
84549SOL     OW55420   4.595   7.339   8.440
84549SOL    HW155421   4.521   7.281   8.426
84549SOL    HW255422   4.601   7.390   8.359
84550SOL     OW55423  14.251   9.805   6.655
84550SOL    HW155424  14.192   9.751   6.602
84550SOL    HW255425  14.197   9.878   6.684
84551SOL     OW55426  14.346   3.728   9.476
84551SOL    HW155427  14.259   3.689   9.473
84551SOL    HW255428  14.379   3.720   9.386
84552SOL     OW55429  14.559   4.449  11.776
84552SOL    HW155430  14.597   4.387  11.839
84552SOL    HW255431  14.466   4.428  11.774
84553SOL     OW55432   6.292   0.076   1.644
84553SOL    HW155433   6.283   0.135   1.719
84553SOL    HW255434   6.256  14.870   1.675
84554SOL     OW55435  13.269   7.279   8.615
84554SOL    HW155436  13.361   7.266   8.638
84554SOL    HW255437  13.270   7.307   8.524
84555SOL     OW55438  14.363  10.381   3.369
84555SOL    HW155439  14.310  10.399   3.446
84555SOL    HW255440  14.376  10.286   3.370
84556SOL     OW55441   9.635   7.483   4.328
84556SOL    HW155442   9.585   7.533   4.264
84556SOL    HW255443   9.641   7.395   4.291
84557SOL     OW55444   6.184   0.027   8.022
84557SOL    HW155445   6.218   0.104   8.068
84557SOL    HW255446   6.166  14.841   8.092
84558SOL     OW55447   4.470   5.229   6.772
84558SOL    HW155448   4.526   5.303   6.796
84558SOL    HW255449   4.522   5.178   6.709
84559SOL     OW55450   0.395  13.493   0.593
84559SOL    HW155451   0.433  13.405   0.598
84559SOL    HW255452   0.372  13.503   0.500
84560SOL     OW55453   9.975   5.846  12.985
84560SOL    HW155454  10.028   5.793  12.925
84560SOL    HW255455   9.928   5.782  13.038
84561SOL     OW55456   2.192   5.620   0.432
84561SOL    HW155457   2.282   5.651   0.432
84561SOL    HW255458   2.192   5.544   0.490
84562SOL     OW55459  11.024  10.727   2.030
84562SOL    HW155460  11.118  10.713   2.045
84562SOL    HW255461  11.017  10.748   1.937
84563SOL     OW55462  12.241   8.084  14.366
84563SOL    HW155463  12.322   8.046  14.331
84563SOL    HW255464  12.240   8.174  14.333
84564SOL     OW55465  10.057   5.980   4.905
84564SOL    HW155466  10.052   6.002   4.998
84564SOL    HW255467  10.019   5.892   4.899
84565SOL     OW55468  10.341  14.546   0.038
84565SOL    HW155469  10.254  14.511   0.023
84565SOL    HW255470  10.334  14.594   0.121
84566SOL     OW55471   2.503   7.404   2.635
84566SOL    HW155472   2.460   7.453   2.705
84566SOL    HW255473   2.597   7.411   2.656
84567SOL     OW55474   9.045   5.427  11.422
84567SOL    HW155475   8.978   5.455  11.484
84567SOL    HW255476   9.044   5.495  11.354
84568SOL     OW55477  10.641   8.900   1.929
84568SOL    HW155478  10.621   8.900   2.023
84568SOL    HW255479  10.642   8.992   1.904
84569SOL     OW55480  14.270  13.411   0.305
84569SOL    HW155481  14.331  13.475   0.267
84569SOL    HW255482  14.190  13.461   0.322
84570SOL     OW55483  14.418  13.484   3.892
84570SOL    HW155484  14.447  13.561   3.941
84570SOL    HW255485  14.378  13.519   3.813
84571SOL     OW55486  11.819   4.033   8.317
84571SOL    HW155487  11.778   4.110   8.357
84571SOL    HW255488  11.803   3.962   8.380
84572SOL     OW55489   0.267   7.166  10.041
84572SOL    HW155490   0.279   7.072  10.051
84572SOL    HW255491   0.209   7.191  10.114
84573SOL     OW55492   9.331  14.609   6.193
84573SOL    HW155493   9.331  14.701   6.165
84573SOL    HW255494   9.242  14.593   6.224
84574SOL     OW55495   0.240  10.883   3.753
84574SOL    HW155496   0.240  10.970   3.712
84574SOL    HW255497   0.161  10.882   3.807
84575SOL     OW55498   7.805  11.726  14.739
84575SOL    HW155499   7.847  11.749  14.822
84575SOL    HW255500   7.825  11.799  14.681
84576SOL     OW55501  13.680   2.106   6.956
84576SOL    HW155502  13.618   2.170   6.921
84576SOL    HW255503  13.689   2.041   6.886
84577SOL     OW55504  14.703   1.943   9.572
84577SOL    HW155505  14.660   1.957   9.488
84577SOL    HW255506  14.631   1.924   9.633
84578SOL     OW55507  10.378  14.438   8.271
84578SOL    HW155508  10.301  14.386   8.246
84578SOL    HW255509  10.393  14.496   8.196
84579SOL     OW55510   5.842   4.520   7.201
84579SOL    HW155511   5.836   4.615   7.210
84579SOL    HW255512   5.812   4.503   7.112
84580SOL     OW55513   3.720   1.800  12.454
84580SOL    HW155514   3.725   1.729  12.518
84580SOL    HW255515   3.767   1.766  12.378
84581SOL     OW55516   7.342  10.497   0.633
84581SOL    HW155517   7.328  10.582   0.675
84581SOL    HW255518   7.318  10.512   0.541
84582SOL     OW55519   2.760   8.531   4.345
84582SOL    HW155520   2.742   8.614   4.302
84582SOL    HW255521   2.691   8.472   4.314
84583SOL     OW55522  13.447  12.680   8.347
84583SOL    HW155523  13.439  12.776   8.343
84583SOL    HW255524  13.519  12.664   8.407
84584SOL     OW55525  10.365  11.669   1.595
84584SOL    HW155526  10.448  11.709   1.619
84584SOL    HW255527  10.311  11.676   1.674
84585SOL     OW55528   5.505  14.200   2.336
84585SOL    HW155529   5.553  14.236   2.262
84585SOL    HW255530   5.439  14.266   2.357
84586SOL     OW55531   0.618  14.539  11.910
84586SOL    HW155532   0.549  14.490  11.954
84586SOL    HW255533   0.630  14.494  11.826
84587SOL     OW55534   4.489   0.369  10.645
84587SOL    HW155535   4.507   0.398  10.555
84587SOL    HW255536   4.559   0.307  10.665
84588SOL     OW55537   8.522   3.186  12.478
84588SOL    HW155538   8.487   3.222  12.559
84588SOL    HW255539   8.615   3.210  12.479
84589SOL     OW55540   9.809   1.684   8.788
84589SOL    HW155541   9.892   1.673   8.743
84589SOL    HW255542   9.811   1.618   8.858
84590SOL     OW55543   8.398   7.249  12.684
84590SOL    HW155544   8.473   7.302  12.658
84590SOL    HW255545   8.392   7.181  12.618
84591SOL     OW55546  13.131   5.442   6.433
84591SOL    HW155547  13.216   5.426   6.391
84591SOL    HW255548  13.153   5.492   6.512
84592SOL     OW55549  14.529  14.599  10.991
84592SOL    HW155550  14.613  14.569  11.026
84592SOL    HW255551  14.520  14.555  10.907
84593SOL     OW55552   3.540  14.656   3.530
84593SOL    HW155553   3.478  14.722   3.562
84593SOL    HW255554   3.509  14.574   3.567
84594SOL     OW55555   9.571   2.722   6.554
84594SOL    HW155556   9.598   2.812   6.569
84594SOL    HW255557   9.652   2.674   6.539
84595SOL     OW55558   7.708   1.398   5.375
84595SOL    HW155559   7.785   1.420   5.427
84595SOL    HW255560   7.736   1.322   5.323
84596SOL     OW55561  11.263  13.069   0.569
84596SOL    HW155562  11.305  13.132   0.629
84596SOL    HW255563  11.223  13.124   0.502
84597SOL     OW55564   7.828  11.799   3.847
84597SOL    HW155565   7.857  11.714   3.813
84597SOL    HW255566   7.883  11.862   3.802
84598SOL     OW55567  14.205   8.630   0.836
84598SOL    HW155568  14.198   8.557   0.897
84598SOL    HW255569  14.259   8.597   0.764
84599SOL     OW55570  14.432  10.589   1.386
84599SOL    HW155571  14.445  10.650   1.313
84599SOL    HW255572  14.392  10.642   1.454
84600SOL     OW55573   2.649   7.282   6.251
84600SOL    HW155574   2.575   7.225   6.274
84600SOL    HW255575   2.617   7.371   6.269
84601SOL     OW55576  10.652   3.067  14.838
84601SOL    HW155577  10.686   3.043  14.751
84601SOL    HW255578  10.729   3.076   0.015
84602SOL     OW55579   3.268  11.323  10.193
84602SOL    HW155580   3.188  11.282  10.160
84602SOL    HW255581   3.238  11.400  10.240
84603SOL     OW55582   8.608   2.800  11.616
84603SOL    HW155583   8.587   2.710  11.642
84603SOL    HW255584   8.523   2.845  11.617
84604SOL     OW55585   2.146   9.552   6.216
84604SOL    HW155586   2.137   9.471   6.265
84604SOL    HW255587   2.137   9.622   6.281
84605SOL     OW55588  10.441  10.455   5.211
84605SOL    HW155589  10.457  10.549   5.204
84605SOL    HW255590  10.512  10.423   5.268
84606SOL     OW55591   8.048   5.341   2.053
84606SOL    HW155592   8.130   5.307   2.018
84606SOL    HW255593   8.032   5.288   2.131
84607SOL     OW55594   4.480   2.876   7.913
84607SOL    HW155595   4.498   2.783   7.925
84607SOL    HW255596   4.425   2.880   7.835
84608SOL     OW55597   6.746  13.940  10.735
84608SOL    HW155598   6.798  14.007  10.691
84608SOL    HW255599   6.757  13.862  10.681
84609SOL     OW55600  11.044  12.777   3.756
84609SOL    HW155601  11.075  12.865   3.734
84609SOL    HW255602  11.119  12.720   3.741
84610SOL     OW55603  10.049  12.478  10.685
84610SOL    HW155604   9.980  12.415  10.705
84610SOL    HW255605  10.077  12.454  10.596
84611SOL     OW55606   2.080   4.619  12.153
84611SOL    HW155607   2.167   4.583  12.134
84611SOL    HW255608   2.056   4.580  12.237
84612SOL     OW55609  12.981   2.945  12.366
84612SOL    HW155610  13.075   2.941  12.381
84612SOL    HW255611  12.944   2.959  12.453
84613SOL     OW55612  10.455   2.666  10.192
84613SOL    HW155613  10.545   2.691  10.172
84613SOL    HW255614  10.461   2.619  10.275
84614SOL     OW55615  14.871   3.137   3.688
84614SOL    HW155616  14.795   3.119   3.633
84614SOL    HW255617  14.848   3.218   3.735
84615SOL     OW55618   9.687   3.438  13.347
84615SOL    HW155619   9.695   3.414  13.255
84615SOL    HW255620   9.744   3.515  13.357
84616SOL     OW55621   0.286   6.247   2.319
84616SOL    HW155622   0.234   6.243   2.399
84616SOL    HW255623   0.359   6.305   2.342
84617SOL     OW55624   0.034   6.350  13.594
84617SOL    HW155625  14.836   6.336  13.651
84617SOL    HW255626   0.096   6.282  13.618
84618SOL     OW55627   2.704   3.089   8.941
84618SOL    HW155628   2.676   3.009   8.897
84618SOL    HW255629   2.623   3.140   8.952
84619SOL     OW55630  11.055  11.136  11.462
84619SOL    HW155631  11.065  11.134  11.557
84619SOL    HW255632  10.971  11.179  11.448
84620SOL     OW55633  10.461   2.720  11.009
84620SOL    HW155634  10.535   2.681  10.962
84620SOL    HW255635  10.387   2.712  10.948
84621SOL     OW55636   2.758   5.289  13.921
84621SOL    HW155637   2.818   5.220  13.894
84621SOL    HW255638   2.779   5.305  14.013
84622SOL     OW55639   0.613   0.937   4.447
84622SOL    HW155640   0.680   0.988   4.402
84622SOL    HW255641   0.643   0.931   4.537
84623SOL     OW55642  13.084   7.002   7.571
84623SOL    HW155643  13.081   7.040   7.483
84623SOL    HW255644  13.057   6.910   7.558
84624SOL     OW55645  12.089  10.936   8.514
84624SOL    HW155646  12.156  10.901   8.455
84624SOL    HW255647  12.022  10.972   8.457
84625SOL     OW55648   8.447   3.335   5.459
84625SOL    HW155649   8.404   3.251   5.442
84625SOL    HW255650   8.438   3.347   5.553
84626SOL     OW55651  11.731   0.187   4.120
84626SOL    HW155652  11.679   0.222   4.048
84626SOL    HW255653  11.740   0.259   4.182
84627SOL     OW55654   3.555  12.511   3.123
84627SOL    HW155655   3.466  12.530   3.153
84627SOL    HW255656   3.545  12.436   3.065
84628SOL     OW55657  11.301   2.939   5.787
84628SOL    HW155658  11.368   2.944   5.855
84628SOL    HW255659  11.310   2.850   5.751
84629SOL     OW55660  14.747   5.825  10.799
84629SOL    HW155661  14.838   5.847  10.780
84629SOL    HW255662  14.752   5.742  10.846
84630SOL     OW55663   1.686  11.391  12.874
84630SOL    HW155664   1.624  11.462  12.889
84630SOL    HW255665   1.741  11.390  12.952
84631SOL     OW55666  12.001   5.594   1.860
84631SOL    HW155667  11.936   5.565   1.925
84631SOL    HW255668  11.949   5.628   1.787
84632SOL     OW55669   9.170   0.439   9.271
84632SOL    HW155670   9.183   0.507   9.338
84632SOL    HW255671   9.255   0.397   9.262
84633SOL     OW55672  14.375  13.428  10.044
84633SOL    HW155673  14.319  13.448  10.119
84633SOL    HW255674  14.368  13.333  10.034
84634SOL     OW55675   3.760  10.504   9.232
84634SOL    HW155676   3.796  10.438   9.173
84634SOL    HW255677   3.789  10.587   9.196
84635SOL     OW55678   4.111  14.012  10.442
84635SOL    HW155679   4.037  14.032  10.385
84635SOL    HW255680   4.126  14.093  10.490
84636SOL     OW55681   6.613   5.456   5.050
84636SOL    HW155682   6.526   5.467   5.089
84636SOL    HW255683   6.630   5.539   5.004
84637SOL     OW55684  14.712   1.402   4.755
84637SOL    HW155685  14.754   1.440   4.832
84637SOL    HW255686  14.629   1.368   4.787
84638SOL     OW55687   7.902   4.605   1.869
84638SOL    HW155688   7.825   4.566   1.911
84638SOL    HW255689   7.967   4.612   1.939
84639SOL     OW55690   0.261  10.646   0.330
84639SOL    HW155691   0.337  10.704   0.322
84639SOL    HW255692   0.187  10.698   0.299
84640SOL     OW55693  12.682  12.635   3.311
84640SOL    HW155694  12.765  12.597   3.340
84640SOL    HW255695  12.705  12.722   3.279
84641SOL     OW55696   9.941   6.715   4.373
84641SOL    HW155697  10.025   6.697   4.329
84641SOL    HW255698   9.965   6.754   4.456
84642SOL     OW55699   2.610   2.666   5.858
84642SOL    HW155700   2.584   2.717   5.935
84642SOL    HW255701   2.673   2.602   5.893
84643SOL     OW55702   1.207  13.426   2.656
84643SOL    HW155703   1.126  13.435   2.606
84643SOL    HW255704   1.276  13.421   2.590
84644SOL     OW55705  11.368   4.231   2.020
84644SOL    HW155706  11.306   4.251   1.950
84644SOL    HW255707  11.337   4.147   2.055
84645SOL     OW55708  14.729   9.479   7.191
84645SOL    HW155709  14.645   9.507   7.156
84645SOL    HW255710  14.711   9.393   7.229
84646SOL     OW55711   1.010  12.847   9.859
84646SOL    HW155712   0.953  12.788   9.810
84646SOL    HW255713   0.996  12.823   9.950
84647SOL     OW55714  12.486  14.603  13.808
84647SOL    HW155715  12.525  14.628  13.725
84647SOL    HW255716  12.411  14.661  13.818
84648SOL     OW55717   4.121  11.668   5.180
84648SOL    HW155718   4.063  11.598   5.149
84648SOL    HW255719   4.204  11.652   5.136
84649SOL     OW55720   4.549   1.850   3.079
84649SOL    HW155721   4.476   1.908   3.062
84649SOL    HW255722   4.588   1.835   2.992
84650SOL     OW55723   4.227   2.539  14.708
84650SOL    HW155724   4.317   2.532  14.678
84650SOL    HW255725   4.174   2.505  14.636
84651SOL     OW55726   0.692   9.706   0.374
84651SOL    HW155727   0.762   9.742   0.427
84651SOL    HW255728   0.613   9.716   0.427
84652SOL     OW55729   0.881  12.331  13.600
84652SOL    HW155730   0.848  12.340  13.690
84652SOL    HW255731   0.973  12.305  13.611
84653SOL     OW55732  11.478   3.330  13.667
84653SOL    HW155733  11.428   3.346  13.587
84653SOL    HW255734  11.569   3.338  13.640
84654SOL     OW55735   1.694   4.809   4.530
84654SOL    HW155736   1.660   4.829   4.618
84654SOL    HW255737   1.784   4.840   4.533
84655SOL     OW55738   2.574   1.485   6.672
84655SOL    HW155739   2.581   1.421   6.743
84655SOL    HW255740   2.616   1.442   6.597
84656SOL     OW55741   2.361   2.620   8.656
84656SOL    HW155742   2.360   2.638   8.750
84656SOL    HW255743   2.407   2.536   8.650
84657SOL     OW55744  13.179   6.849   3.208
84657SOL    HW155745  13.224   6.835   3.292
84657SOL    HW255746  13.223   6.789   3.147
84658SOL     OW55747   3.001   3.966   8.509
84658SOL    HW155748   3.065   4.005   8.450
84658SOL    HW255749   3.011   3.872   8.495
84659SOL     OW55750  10.352   1.520  10.121
84659SOL    HW155751  10.398   1.439  10.100
84659SOL    HW255752  10.419   1.588  10.116
84660SOL     OW55753  12.868   9.687   7.343
84660SOL    HW155754  12.880   9.781   7.356
84660SOL    HW255755  12.856   9.651   7.431
84661SOL     OW55756   5.629   2.237   8.124
84661SOL    HW155757   5.538   2.209   8.115
84661SOL    HW255758   5.666   2.226   8.036
84662SOL     OW55759   0.758  12.348   0.612
84662SOL    HW155760   0.830  12.388   0.661
84662SOL    HW255761   0.729  12.417   0.552
84663SOL     OW55762  12.563   4.192   7.617
84663SOL    HW155763  12.561   4.287   7.631
84663SOL    HW255764  12.480   4.160   7.652
84664SOL     OW55765   1.241   2.230   2.705
84664SOL    HW155766   1.263   2.192   2.790
84664SOL    HW255767   1.261   2.161   2.642
84665SOL     OW55768   0.220  14.526   7.290
84665SOL    HW155769   0.221  14.521   7.386
84665SOL    HW255770   0.297  14.578   7.267
84666SOL     OW55771   3.617  13.893  12.408
84666SOL    HW155772   3.551  13.828  12.430
84666SOL    HW255773   3.680  13.890  12.480
84667SOL     OW55774  10.874   6.275   2.447
84667SOL    HW155775  10.794   6.223   2.451
84667SOL    HW255776  10.843   6.366   2.440
84668SOL     OW55777   4.867  12.364   6.155
84668SOL    HW155778   4.816  12.422   6.211
84668SOL    HW255779   4.891  12.418   6.080
84669SOL     OW55780   9.648   5.444  11.123
84669SOL    HW155781   9.722   5.480  11.172
84669SOL    HW255782   9.588   5.413  11.190
84670SOL     OW55783   0.337   1.434  14.103
84670SOL    HW155784   0.338   1.353  14.155
84670SOL    HW255785   0.251   1.472  14.119
84671SOL     OW55786   1.583   7.030   4.191
84671SOL    HW155787   1.559   7.014   4.100
84671SOL    HW255788   1.603   7.124   4.195
84672SOL     OW55789  13.918   2.747  12.124
84672SOL    HW155790  13.882   2.717  12.040
84672SOL    HW255791  13.855   2.718  12.189
84673SOL     OW55792   9.619  10.756   0.432
84673SOL    HW155793   9.575  10.784   0.352
84673SOL    HW255794   9.568  10.796   0.502
84674SOL     OW55795   0.234   7.793   3.642
84674SOL    HW155796   0.276   7.879   3.644
84674SOL    HW255797   0.270   7.750   3.564
84675SOL     OW55798   0.136  11.060   8.720
84675SOL    HW155799   0.093  11.064   8.634
84675SOL    HW255800   0.110  10.975   8.756
84676SOL     OW55801   4.873  12.630  13.550
84676SOL    HW155802   4.828  12.692  13.608
84676SOL    HW255803   4.902  12.683  13.476
84677SOL     OW55804  11.898   7.883  11.878
84677SOL    HW155805  11.976   7.891  11.823
84677SOL    HW255806  11.842   7.955  11.851
84678SOL     OW55807  14.250  10.670  14.851
84678SOL    HW155808  14.302  10.733   0.023
84678SOL    HW255809  14.188  10.724  14.802
84679SOL     OW55810  10.523  11.080   4.987
84679SOL    HW155811  10.505  11.063   5.079
84679SOL    HW255812  10.441  11.113   4.952
84680SOL     OW55813  12.584  14.243   6.829
84680SOL    HW155814  12.676  14.233   6.807
84680SOL    HW255815  12.554  14.318   6.778
84681SOL     OW55816   9.802  12.411   2.946
84681SOL    HW155817   9.840  12.356   2.877
84681SOL    HW255818   9.874  12.427   3.006
84682SOL     OW55819  13.390  13.471   1.358
84682SOL    HW155820  13.371  13.516   1.276
84682SOL    HW255821  13.451  13.529   1.404
84683SOL     OW55822   9.378  11.081   1.359
84683SOL    HW155823   9.333  11.153   1.402
84683SOL    HW255824   9.391  11.112   1.269
84684SOL     OW55825  14.559   3.526   8.643
84684SOL    HW155826  14.579   3.620   8.646
84684SOL    HW255827  14.465   3.523   8.625
84685SOL     OW55828   1.725  10.326   7.567
84685SOL    HW155829   1.730  10.259   7.498
84685SOL    HW255830   1.653  10.297   7.622
84686SOL     OW55831   1.746   5.488  14.427
84686SOL    HW155832   1.820   5.546  14.409
84686SOL    HW255833   1.773   5.439  14.505
84687SOL     OW55834  13.240  14.357   5.684
84687SOL    HW155835  13.157  14.350   5.731
84687SOL    HW255836  13.235  14.289   5.616
84688SOL     OW55837   4.954   9.261   6.571
84688SOL    HW155838   5.029   9.320   6.565
84688SOL    HW255839   4.962   9.220   6.657
84689SOL     OW55840   0.172   8.178  11.496
84689SOL    HW155841   0.153   8.095  11.541
84689SOL    HW255842   0.089   8.202  11.455
84690SOL     OW55843   9.084   1.191   3.600
84690SOL    HW155844   9.031   1.118   3.632
84690SOL    HW255845   9.021   1.252   3.562
84691SOL     OW55846   7.593  10.680  13.037
84691SOL    HW155847   7.652  10.606  13.020
84691SOL    HW255848   7.577  10.717  12.950
84692SOL     OW55849   1.007   2.856   3.578
84692SOL    HW155850   1.000   2.921   3.648
84692SOL    HW255851   0.960   2.895   3.504
84693SOL     OW55852   9.200   0.235   0.811
84693SOL    HW155853   9.194   0.330   0.801
84693SOL    HW255854   9.254   0.207   0.737
84694SOL     OW55855   6.067   6.413   2.903
84694SOL    HW155856   6.101   6.393   2.816
84694SOL    HW255857   6.036   6.503   2.897
84695SOL     OW55858   5.027  11.118   8.279
84695SOL    HW155859   4.973  11.042   8.297
84695SOL    HW255860   5.050  11.153   8.365
84696SOL     OW55861   9.774  14.496   0.974
84696SOL    HW155862   9.825  14.554   0.919
84696SOL    HW255863   9.839  14.449   1.027
84697SOL     OW55864  14.754   3.327   0.394
84697SOL    HW155865  14.694   3.333   0.320
84697SOL    HW255866  14.837   3.362   0.361
84698SOL     OW55867   9.513  14.236   9.401
84698SOL    HW155868   9.578  14.179   9.359
84698SOL    HW255869   9.440  14.178   9.423
84699SOL     OW55870  12.776   3.554  12.226
84699SOL    HW155871  12.763   3.630  12.169
84699SOL    HW255872  12.852   3.577  12.278
84700SOL     OW55873  11.543   0.014   5.979
84700SOL    HW155874  11.539  14.799   6.004
84700SOL    HW255875  11.485   0.021   5.903
84701SOL     OW55876   2.803   9.290   9.324
84701SOL    HW155877   2.854   9.210   9.336
84701SOL    HW255878   2.712   9.261   9.321
84702SOL     OW55879   6.908   9.616  10.171
84702SOL    HW155880   6.843   9.546  10.159
84702SOL    HW255881   6.958   9.616  10.089
84703SOL     OW55882  14.623  13.472   9.402
84703SOL    HW155883  14.623  13.458   9.307
84703SOL    HW255884  14.696  13.532   9.417
84704SOL     OW55885   3.280  14.247   0.913
84704SOL    HW155886   3.358  14.284   0.871
84704SOL    HW255887   3.252  14.313   0.975
84705SOL     OW55888   8.788  12.664  13.646
84705SOL    HW155889   8.781  12.644  13.552
84705SOL    HW255890   8.747  12.590  13.689
84706SOL     OW55891  10.054  12.120   5.298
84706SOL    HW155892  10.134  12.070   5.280
84706SOL    HW255893  10.070  12.205   5.257
84707SOL     OW55894   3.876   8.794   2.404
84707SOL    HW155895   3.875   8.735   2.478
84707SOL    HW255896   3.784   8.821   2.393
84708SOL     OW55897   8.058  10.039   8.352
84708SOL    HW155898   8.032   9.958   8.393
84708SOL    HW255899   8.154  10.035   8.348
84709SOL     OW55900   0.181   8.154   2.048
84709SOL    HW155901   0.231   8.180   2.125
84709SOL    HW255902   0.228   8.194   1.975
84710SOL     OW55903   6.348   8.251   0.191
84710SOL    HW155904   6.270   8.306   0.188
84710SOL    HW255905   6.355   8.215   0.102
84711SOL     OW55906  14.563  13.111   7.600
84711SOL    HW155907  14.607  13.149   7.524
84711SOL    HW255908  14.526  13.029   7.568
84712SOL     OW55909   1.239   2.400   1.541
84712SOL    HW155910   1.253   2.325   1.599
84712SOL    HW255911   1.177   2.456   1.589
84713SOL     OW55912   4.014  10.928   7.393
84713SOL    HW155913   3.995  10.940   7.300
84713SOL    HW255914   4.105  10.899   7.395
84714SOL     OW55915   2.034   5.805   1.645
84714SOL    HW155916   1.991   5.768   1.723
84714SOL    HW255917   2.094   5.736   1.616
84715SOL     OW55918  11.671   5.135   3.161
84715SOL    HW155919  11.745   5.129   3.101
84715SOL    HW255920  11.611   5.196   3.119
84716SOL     OW55921   6.853  14.183   7.409
84716SOL    HW155922   6.799  14.133   7.470
84716SOL    HW255923   6.862  14.269   7.450
84717SOL     OW55924   9.960   3.237   0.095
84717SOL    HW155925   9.902   3.194   0.158
84717SOL    HW255926   9.959   3.329   0.121
84718SOL     OW55927   9.579  10.437   7.212
84718SOL    HW155928   9.656  10.461   7.160
84718SOL    HW255929   9.616  10.400   7.293
84719SOL     OW55930  13.308   1.362   9.987
84719SOL    HW155931  13.303   1.388  10.079
84719SOL    HW255932  13.387   1.404   9.954
84720SOL     OW55933  12.880   5.469   5.003
84720SOL    HW155934  12.891   5.392   5.059
84720SOL    HW255935  12.862   5.433   4.916
84721SOL     OW55936  14.380   8.488  11.121
84721SOL    HW155937  14.300   8.450  11.086
84721SOL    HW255938  14.432   8.510  11.043
84722SOL     OW55939   2.906   9.884   2.096
84722SOL    HW155940   2.962   9.814   2.063
84722SOL    HW255941   2.955   9.922   2.169
84723SOL     OW55942   7.964   5.102   6.699
84723SOL    HW155943   7.993   5.028   6.645
84723SOL    HW255944   8.040   5.122   6.754
84724SOL     OW55945   9.929   0.120   3.292
84724SOL    HW155946   9.935   0.205   3.335
84724SOL    HW255947  10.015   0.107   3.253
84725SOL     OW55948   6.889   4.031   8.061
84725SOL    HW155949   6.876   3.939   8.041
84725SOL    HW255950   6.969   4.054   8.014
84726SOL     OW55951   4.965   5.717  12.403
84726SOL    HW155952   4.951   5.625  12.425
84726SOL    HW255953   5.052   5.720  12.364
84727SOL     OW55954   4.085   6.050   1.158
84727SOL    HW155955   4.081   6.144   1.141
84727SOL    HW255956   4.123   6.042   1.245
84728SOL     OW55957  11.146   8.410  13.806
84728SOL    HW155958  11.146   8.438  13.898
84728SOL    HW255959  11.122   8.318  13.810
84729SOL     OW55960   9.285   9.535   5.388
84729SOL    HW155961   9.241   9.482   5.454
84729SOL    HW255962   9.303   9.474   5.317
84730SOL     OW55963   0.146   6.009  11.737
84730SOL    HW155964   0.151   6.092  11.690
84730SOL    HW255965   0.234   5.995  11.770
84731SOL     OW55966  14.631   8.746  10.692
84731SOL    HW155967  14.650   8.684  10.622
84731SOL    HW255968  14.689   8.820  10.676
84732SOL     OW55969   4.226   2.643  12.061
84732SOL    HW155970   4.151   2.657  12.119
84732SOL    HW255971   4.295   2.610  12.118
84733SOL     OW55972   2.134   9.602  12.726
84733SOL    HW155973   2.076   9.527  12.713
84733SOL    HW255974   2.090   9.655  12.792
84734SOL     OW55975   1.869   3.210  13.566
84734SOL    HW155976   1.833   3.260  13.640
84734SOL    HW255977   1.844   3.259  13.489
84735SOL     OW55978   3.609   8.495  10.661
84735SOL    HW155979   3.630   8.508  10.753
84735SOL    HW255980   3.639   8.575  10.618
84736SOL     OW55981  10.279   1.070   9.247
84736SOL    HW155982  10.295   1.002   9.313
84736SOL    HW255983  10.222   1.133   9.291
84737SOL     OW55984   0.329   4.702  11.084
84737SOL    HW155985   0.273   4.776  11.061
84737SOL    HW255986   0.282   4.625  11.052
84738SOL     OW55987   2.829   5.484   4.476
84738SOL    HW155988   2.756   5.544   4.490
84738SOL    HW255989   2.897   5.538   4.436
84739SOL     OW55990   5.534  10.204   0.586
84739SOL    HW155991   5.590  10.134   0.551
84739SOL    HW255992   5.515  10.177   0.675
84740SOL     OW55993  13.381  10.917   5.052
84740SOL    HW155994  13.379  10.836   5.001
84740SOL    HW255995  13.334  10.895   5.133
84741SOL     OW55996   4.112  10.385  10.835
84741SOL    HW155997   4.131  10.384  10.741
84741SOL    HW255998   4.198  10.372  10.876
84742SOL     OW55999   2.296   7.637   3.340
84742SOL    HW156000   2.212   7.620   3.382
84742SOL    HW256001   2.328   7.551   3.314
84743SOL     OW56002  11.722   1.533   9.779
84743SOL    HW156003  11.774   1.454   9.764
84743SOL    HW256004  11.785   1.605   9.775
84744SOL     OW56005   9.103   0.525   9.876
84744SOL    HW156006   9.190   0.485   9.874
84744SOL    HW256007   9.090   0.560   9.788
84745SOL     OW56008  14.337  14.130   2.120
84745SOL    HW156009  14.270  14.099   2.182
84745SOL    HW256010  14.338  14.063   2.051
84746SOL     OW56011  14.586   7.201   8.449
84746SOL    HW156012  14.503   7.246   8.463
84746SOL    HW256013  14.620   7.237   8.367
84747SOL     OW56014   6.750   8.473   9.326
84747SOL    HW156015   6.795   8.392   9.304
84747SOL    HW256016   6.799   8.541   9.281
84748SOL     OW56017  13.385  10.139  12.332
84748SOL    HW156018  13.347  10.224  12.314
84748SOL    HW256019  13.457  10.131  12.269
84749SOL     OW56020   9.299   3.324  11.264
84749SOL    HW156021   9.300   3.415  11.236
84749SOL    HW256022   9.275   3.327  11.357
84750SOL     OW56023  10.815  11.686   0.872
84750SOL    HW156024  10.721  11.699   0.872
84750SOL    HW256025  10.851  11.774   0.884
84751SOL     OW56026   5.296   9.973  10.567
84751SOL    HW156027   5.290  10.011  10.655
84751SOL    HW256028   5.390   9.966  10.551
84752SOL     OW56029   7.118   5.790   5.733
84752SOL    HW156030   7.071   5.855   5.680
84752SOL    HW256031   7.206   5.788   5.695
84753SOL     OW56032   3.033  10.011   8.754
84753SOL    HW156033   3.031  10.014   8.849
84753SOL    HW256034   3.109  10.065   8.729
84754SOL     OW56035  14.050   4.599  10.045
84754SOL    HW156036  14.106   4.526  10.069
84754SOL    HW256037  13.963   4.560  10.032
84755SOL     OW56038   5.747   5.161   2.099
84755SOL    HW156039   5.840   5.168   2.117
84755SOL    HW256040   5.718   5.252   2.087
84756SOL     OW56041   6.760   2.654  10.929
84756SOL    HW156042   6.724   2.715  10.865
84756SOL    HW256043   6.735   2.692  11.014
84757SOL     OW56044  14.158   4.032   5.276
84757SOL    HW156045  14.141   4.041   5.370
84757SOL    HW256046  14.073   4.006   5.239
84758SOL     OW56047   8.533   2.680  13.117
84758SOL    HW156048   8.488   2.632  13.047
84758SOL    HW256049   8.622   2.693  13.084
84759SOL     OW56050   0.598   7.486  13.513
84759SOL    HW156051   0.601   7.510  13.606
84759SOL    HW256052   0.545   7.406  13.511
84760SOL     OW56053   7.171  10.376   3.906
84760SOL    HW156054   7.119  10.389   3.827
84760SOL    HW256055   7.204  10.286   3.898
84761SOL     OW56056   8.714   7.874  11.740
84761SOL    HW156057   8.777   7.935  11.701
84761SOL    HW256058   8.673   7.925  11.811
84762SOL     OW56059   0.973   2.091   8.073
84762SOL    HW156060   1.007   2.067   8.159
84762SOL    HW256061   0.925   2.014   8.042
84763SOL     OW56062   1.455  14.094   8.411
84763SOL    HW156063   1.525  14.063   8.468
84763SOL    HW256064   1.493  14.093   8.323
84764SOL     OW56065  10.489   0.405  13.692
84764SOL    HW156066  10.401   0.440  13.682
84764SOL    HW256067  10.480   0.333  13.754
84765SOL     OW56068  12.545   7.967   1.220
84765SOL    HW156069  12.546   7.957   1.315
84765SOL    HW256070  12.630   7.932   1.192
84766SOL     OW56071   6.807   3.729   8.815
84766SOL    HW156072   6.734   3.680   8.778
84766SOL    HW256073   6.787   3.821   8.794
84767SOL     OW56074   3.529   1.801   0.231
84767SOL    HW156075   3.511   1.725   0.176
84767SOL    HW256076   3.487   1.874   0.186
84768SOL     OW56077   7.176   3.575   1.639
84768SOL    HW156078   7.089   3.537   1.625
84768SOL    HW256079   7.182   3.588   1.734
84769SOL     OW56080   8.449   8.797   2.942
84769SOL    HW156081   8.445   8.833   2.853
84769SOL    HW256082   8.439   8.873   2.999
84770SOL     OW56083   0.494   7.436   7.207
84770SOL    HW156084   0.510   7.351   7.249
84770SOL    HW256085   0.400   7.450   7.218
84771SOL     OW56086   3.384  10.019  11.114
84771SOL    HW156087   3.469  10.063  11.101
84771SOL    HW256088   3.331  10.046  11.039
84772SOL     OW56089  11.426  12.021   6.904
84772SOL    HW156090  11.493  12.049   6.966
84772SOL    HW256091  11.344  12.029   6.952
84773SOL     OW56092  14.512   6.156   3.378
84773SOL    HW156093  14.552   6.228   3.330
84773SOL    HW256094  14.582   6.123   3.434
84774SOL     OW56095  10.183   7.954  11.870
84774SOL    HW156096  10.156   7.924  11.783
84774SOL    HW256097  10.255   7.896  11.894
84775SOL     OW56098  10.650  12.128  12.212
84775SOL    HW156099  10.596  12.050  12.202
84775SOL    HW256100  10.670  12.132  12.306
84776SOL     OW56101   6.677  11.508   6.857
84776SOL    HW156102   6.671  11.445   6.785
84776SOL    HW256103   6.587  11.532   6.876
84777SOL     OW56104  11.797  10.427  14.687
84777SOL    HW156105  11.750  10.379  14.756
84777SOL    HW256106  11.733  10.490  14.653
84778SOL     OW56107   4.131   8.657   6.577
84778SOL    HW156108   4.159   8.566   6.577
84778SOL    HW256109   4.167   8.694   6.658
84779SOL     OW56110   2.106   6.312  14.481
84779SOL    HW156111   2.012   6.303  14.469
84779SOL    HW256112   2.145   6.249  14.421
84780SOL     OW56113   1.258   1.762   5.306
84780SOL    HW156114   1.347   1.784   5.281
84780SOL    HW256115   1.250   1.668   5.290
84781SOL     OW56116   6.783   9.578   7.220
84781SOL    HW156117   6.688   9.575   7.231
84781SOL    HW256118   6.815   9.497   7.260
84782SOL     OW56119  11.428   3.582  14.045
84782SOL    HW156120  11.431   3.567  13.951
84782SOL    HW256121  11.459   3.672  14.056
84783SOL     OW56122  14.126   7.054  12.136
84783SOL    HW156123  14.068   7.100  12.196
84783SOL    HW256124  14.073   6.983  12.101
84784SOL     OW56125   9.549   9.361  10.781
84784SOL    HW156126   9.522   9.273  10.808
84784SOL    HW256127   9.564   9.353  10.687
84785SOL     OW56128   7.538   7.925   2.505
84785SOL    HW156129   7.586   7.989   2.558
84785SOL    HW256130   7.602   7.856   2.486
84786SOL     OW56131  13.479   8.281   0.803
84786SOL    HW156132  13.449   8.263   0.892
84786SOL    HW256133  13.406   8.255   0.747
84787SOL     OW56134  10.910   4.250   0.505
84787SOL    HW156135  10.936   4.326   0.454
84787SOL    HW256136  10.892   4.182   0.440
84788SOL     OW56137  10.981  13.818  12.183
84788SOL    HW156138  11.025  13.738  12.208
84788SOL    HW256139  11.021  13.843  12.100
84789SOL     OW56140  13.104   8.854   8.556
84789SOL    HW156141  13.153   8.837   8.476
84789SOL    HW256142  13.027   8.797   8.550
84790SOL     OW56143  13.816   2.853  13.234
84790SOL    HW156144  13.873   2.799  13.180
84790SOL    HW256145  13.871   2.880  13.307
84791SOL     OW56146   8.189  12.900   1.483
84791SOL    HW156147   8.177  12.922   1.575
84791SOL    HW256148   8.170  12.806   1.478
84792SOL     OW56149  13.578   9.081   0.560
84792SOL    HW156150  13.607   9.068   0.470
84792SOL    HW256151  13.656   9.064   0.613
84793SOL     OW56152  12.153   9.977   2.933
84793SOL    HW156153  12.139   9.988   2.839
84793SOL    HW256154  12.087   9.914   2.960
84794SOL     OW56155   7.303   1.165  13.463
84794SOL    HW156156   7.236   1.196  13.524
84794SOL    HW256157   7.253   1.120  13.394
84795SOL     OW56158   4.259   0.136   0.149
84795SOL    HW156159   4.167   0.130   0.175
84795SOL    HW256160   4.302   0.176   0.224
84796SOL     OW56161   7.645   1.280  12.950
84796SOL    HW156162   7.674   1.194  12.918
84796SOL    HW256163   7.726   1.328  12.967
84797SOL     OW56164  14.775   8.571   9.464
84797SOL    HW156165  14.710   8.620   9.514
84797SOL    HW256166  14.826   8.525   9.531
84798SOL     OW56167   7.561  12.037  13.501
84798SOL    HW156168   7.497  12.103  13.530
84798SOL    HW256169   7.607  12.013  13.582
84799SOL     OW56170   3.394   0.261   0.227
84799SOL    HW156171   3.401   0.329   0.160
84799SOL    HW256172   3.483   0.253   0.263
84800SOL     OW56173   2.079  12.893   5.637
84800SOL    HW156174   2.105  12.834   5.566
84800SOL    HW256175   2.081  12.980   5.597
84801SOL     OW56176   8.233   8.593   3.623
84801SOL    HW156177   8.242   8.683   3.654
84801SOL    HW256178   8.177   8.551   3.688
84802SOL     OW56179   9.428   2.109  12.035
84802SOL    HW156180   9.479   2.029  12.046
84802SOL    HW256181   9.476   2.159  11.969
84803SOL     OW56182   0.304  12.383   8.806
84803SOL    HW156183   0.228  12.364   8.860
84803SOL    HW256184   0.370  12.320   8.834
84804SOL     OW56185   6.669   3.830   8.088
84804SOL    HW156186   6.667   3.816   8.183
84804SOL    HW256187   6.699   3.747   8.052
84805SOL     OW56188   7.988  14.591   2.779
84805SOL    HW156189   8.076  14.569   2.807
84805SOL    HW256190   7.942  14.615   2.859
84806SOL     OW56191   3.057   0.095   4.904
84806SOL    HW156192   3.024   0.023   4.849
84806SOL    HW256193   3.038   0.067   4.994
84807SOL     OW56194   5.337  13.808   3.205
84807SOL    HW156195   5.272  13.738   3.211
84807SOL    HW256196   5.288  13.882   3.170
84808SOL     OW56197   6.160  12.458  13.777
84808SOL    HW156198   6.066  12.469  13.792
84808SOL    HW256199   6.187  12.538  13.733
84809SOL     OW56200   5.090   5.300   8.942
84809SOL    HW156201   5.004   5.310   8.902
84809SOL    HW256202   5.106   5.205   8.940
84810SOL     OW56203   5.367   7.471   5.074
84810SOL    HW156204   5.398   7.555   5.109
84810SOL    HW256205   5.394   7.406   5.139
84811SOL     OW56206   9.073   7.132   4.842
84811SOL    HW156207   9.044   7.073   4.912
84811SOL    HW256208   9.161   7.160   4.869
84812SOL     OW56209  10.581  11.080  13.383
84812SOL    HW156210  10.669  11.081  13.344
84812SOL    HW256211  10.579  11.001  13.436
84813SOL     OW56212  12.881   3.789   2.176
84813SOL    HW156213  12.974   3.792   2.199
84813SOL    HW256214  12.856   3.881   2.165
84814SOL     OW56215  11.244   6.629   6.171
84814SOL    HW156216  11.206   6.651   6.086
84814SOL    HW256217  11.171   6.637   6.232
84815SOL     OW56218   2.561   1.210   9.981
84815SOL    HW156219   2.577   1.191  10.074
84815SOL    HW256220   2.637   1.174   9.936
84816SOL     OW56221  10.716   7.435  11.793
84816SOL    HW156222  10.716   7.349  11.751
84816SOL    HW256223  10.627   7.468  11.781
84817SOL     OW56224  10.852  12.152   0.359
84817SOL    HW156225  10.761  12.154   0.330
84817SOL    HW256226  10.897  12.215   0.303
84818SOL     OW56227   6.748  13.520   6.143
84818SOL    HW156228   6.776  13.611   6.141
84818SOL    HW256229   6.795  13.479   6.070
84819SOL     OW56230   0.429   4.052   1.115
84819SOL    HW156231   0.522   4.029   1.120
84819SOL    HW256232   0.424   4.142   1.145
84820SOL     OW56233   3.984  10.349   3.548
84820SOL    HW156234   3.943  10.436   3.552
84820SOL    HW256235   4.073  10.366   3.519
84821SOL     OW56236   6.854   5.369   5.993
84821SOL    HW156237   6.789   5.307   6.025
84821SOL    HW256238   6.812   5.411   5.918
84822SOL     OW56239   7.913   8.859   2.170
84822SOL    HW156240   7.872   8.945   2.163
84822SOL    HW256241   8.000   8.871   2.132
84823SOL     OW56242  12.171   6.766   5.378
84823SOL    HW156243  12.195   6.810   5.296
84823SOL    HW256244  12.119   6.831   5.426
84824SOL     OW56245   0.496   7.713   1.373
84824SOL    HW156246   0.402   7.722   1.358
84824SOL    HW256247   0.537   7.745   1.293
84825SOL     OW56248   9.011   6.693  12.399
84825SOL    HW156249   8.947   6.759  12.427
84825SOL    HW256250   9.027   6.640  12.477
84826SOL     OW56251   4.427  12.011   1.254
84826SOL    HW156252   4.336  11.981   1.255
84826SOL    HW256253   4.431  12.071   1.180
84827SOL     OW56254  13.731   0.861   2.075
84827SOL    HW156255  13.701   0.837   2.162
84827SOL    HW256256  13.659   0.837   2.017
84828SOL     OW56257   2.669   1.713   1.037
84828SOL    HW156258   2.708   1.719   1.124
84828SOL    HW256259   2.614   1.634   1.041
84829SOL     OW56260  10.868  12.552   3.736
84829SOL    HW156261  10.923  12.623   3.768
84829SOL    HW256262  10.778  12.583   3.750
84830SOL     OW56263  12.785  12.346   8.628
84830SOL    HW156264  12.868  12.383   8.598
84830SOL    HW256265  12.734  12.336   8.548
84831SOL     OW56266   6.758  11.070   3.993
84831SOL    HW156267   6.717  11.154   4.016
84831SOL    HW256268   6.807  11.045   4.071
84832SOL     OW56269   7.503  11.669   6.597
84832SOL    HW156270   7.547  11.724   6.532
84832SOL    HW256271   7.566  11.660   6.668
84833SOL     OW56272   1.987   9.456  10.526
84833SOL    HW156273   2.029   9.422  10.447
84833SOL    HW256274   1.929   9.525  10.494
84834SOL     OW56275   5.661  10.290   7.480
84834SOL    HW156276   5.632  10.275   7.571
84834SOL    HW256277   5.634  10.380   7.461
84835SOL     OW56278   4.498   6.117   6.269
84835SOL    HW156279   4.408   6.118   6.236
84835SOL    HW256280   4.541   6.188   6.223
84836SOL     OW56281   6.877   9.588   6.812
84836SOL    HW156282   6.929   9.661   6.845
84836SOL    HW256283   6.786   9.615   6.826
84837SOL     OW56284  13.300  11.396  14.673
84837SOL    HW156285  13.255  11.335  14.731
84837SOL    HW256286  13.393  11.379  14.688
84838SOL     OW56287   9.392   3.982   0.996
84838SOL    HW156288   9.446   4.025   1.062
84838SOL    HW256289   9.305   3.978   1.035
84839SOL     OW56290  11.601  14.779   1.155
84839SOL    HW156291  11.633  14.727   1.229
84839SOL    HW256292  11.625  14.728   1.077
84840SOL     OW56293   8.782   3.672  13.257
84840SOL    HW156294   8.822   3.591  13.227
84840SOL    HW256295   8.704   3.681  13.202
84841SOL     OW56296  13.084   8.593   9.678
84841SOL    HW156297  13.087   8.501   9.655
84841SOL    HW256298  13.058   8.595   9.770
84842SOL     OW56299   0.806   2.356  12.737
84842SOL    HW156300   0.882   2.332  12.790
84842SOL    HW256301   0.738   2.295  12.765
84843SOL     OW56302  13.730   6.676  10.199
84843SOL    HW156303  13.810   6.650  10.153
84843SOL    HW256304  13.675   6.598  10.196
84844SOL     OW56305   0.007   2.713  13.364
84844SOL    HW156306   0.001   2.808  13.371
84844SOL    HW256307   0.098   2.696  13.339
84845SOL     OW56308   2.880   2.113   9.479
84845SOL    HW156309   2.798   2.078   9.444
84845SOL    HW256310   2.881   2.083   9.570
84846SOL     OW56311   7.277   7.886   0.984
84846SOL    HW156312   7.365   7.852   1.003
84846SOL    HW256313   7.222   7.809   0.977
84847SOL     OW56314   7.211  13.188   1.416
84847SOL    HW156315   7.161  13.139   1.350
84847SOL    HW256316   7.226  13.125   1.486
84848SOL     OW56317  11.151   7.088  14.862
84848SOL    HW156318  11.177   7.056  14.776
84848SOL    HW256319  11.058   7.109  14.853
84849SOL     OW56320  10.974   8.870   5.590
84849SOL    HW156321  10.886   8.854   5.555
84849SOL    HW256322  10.961   8.934   5.660
84850SOL     OW56323   4.420   1.915  13.423
84850SOL    HW156324   4.474   1.960  13.489
84850SOL    HW256325   4.387   1.838  13.469
84851SOL     OW56326   6.786   9.098   8.736
84851SOL    HW156327   6.875   9.098   8.703
84851SOL    HW256328   6.737   9.044   8.675
84852SOL     OW56329   5.799  11.982   4.762
84852SOL    HW156330   5.824  12.069   4.731
84852SOL    HW256331   5.818  11.924   4.689
84853SOL     OW56332   1.922   9.940  12.144
84853SOL    HW156333   1.935  10.025  12.102
84853SOL    HW256334   2.008   9.919  12.182
84854SOL     OW56335   1.885   8.358   7.330
84854SOL    HW156336   1.792   8.372   7.345
84854SOL    HW256337   1.903   8.402   7.247
84855SOL     OW56338   2.351  10.525   1.365
84855SOL    HW156339   2.293  10.465   1.318
84855SOL    HW256340   2.387  10.582   1.297
84856SOL     OW56341   0.131  11.014   7.922
84856SOL    HW156342   0.077  11.093   7.932
84856SOL    HW256343   0.200  11.040   7.861
84857SOL     OW56344   7.457   0.245   6.005
84857SOL    HW156345   7.438   0.333   6.038
84857SOL    HW256346   7.433   0.248   5.913
84858SOL     OW56347  11.903  11.685   4.556
84858SOL    HW156348  11.991  11.721   4.563
84858SOL    HW256349  11.873  11.675   4.646
84859SOL     OW56350   0.590   2.943   6.902
84859SOL    HW156351   0.583   2.933   6.997
84859SOL    HW256352   0.583   3.037   6.887
84860SOL     OW56353  12.239   0.549   3.999
84860SOL    HW156354  12.238   0.598   3.917
84860SOL    HW256355  12.332   0.543   4.023
84861SOL     OW56356   1.318  12.488   1.688
84861SOL    HW156357   1.239  12.448   1.725
84861SOL    HW256358   1.295  12.505   1.596
84862SOL     OW56359   8.679  12.665   9.116
84862SOL    HW156360   8.673  12.734   9.051
84862SOL    HW256361   8.739  12.601   9.078
84863SOL     OW56362   2.225  12.250   1.468
84863SOL    HW156363   2.283  12.246   1.392
84863SOL    HW256364   2.166  12.323   1.449
84864SOL     OW56365  12.300  13.968   6.373
84864SOL    HW156366  12.248  14.040   6.335
84864SOL    HW256367  12.341  13.927   6.297
84865SOL     OW56368   5.440   4.470   1.836
84865SOL    HW156369   5.480   4.448   1.752
84865SOL    HW256370   5.457   4.563   1.848
84866SOL     OW56371   8.189  12.675  12.458
84866SOL    HW156372   8.104  12.704  12.491
84866SOL    HW256373   8.209  12.735  12.387
84867SOL     OW56374   9.068   7.543   1.755
84867SOL    HW156375   9.142   7.492   1.787
84867SOL    HW256376   9.002   7.535   1.823
84868SOL     OW56377   1.233   4.030   4.030
84868SOL    HW156378   1.312   3.982   4.005
84868SOL    HW256379   1.167   3.963   4.042
84869SOL     OW56380   2.740   8.561   2.552
84869SOL    HW156381   2.826   8.552   2.511
84869SOL    HW256382   2.759   8.598   2.639
84870SOL     OW56383   0.114   6.891   0.680
84870SOL    HW156384   0.087   6.915   0.769
84870SOL    HW256385   0.047   6.928   0.623
84871SOL     OW56386   0.294   3.356   1.137
84871SOL    HW156387   0.343   3.344   1.218
84871SOL    HW256388   0.283   3.450   1.129
84872SOL     OW56389   1.018   1.519   7.479
84872SOL    HW156390   0.929   1.542   7.505
84872SOL    HW256391   1.016   1.424   7.469
84873SOL     OW56392   8.602   6.906   1.870
84873SOL    HW156393   8.666   6.860   1.925
84873SOL    HW256394   8.518   6.868   1.893
84874SOL     OW56395  11.051  12.021  14.683
84874SOL    HW156396  11.126  12.034  14.739
84874SOL    HW256397  11.070  12.072  14.604
84875SOL     OW56398   5.954  11.169   1.048
84875SOL    HW156399   6.032  11.127   1.011
84875SOL    HW256400   5.964  11.262   1.024
84876SOL     OW56401   6.983  12.446   2.422
84876SOL    HW156402   7.027  12.435   2.506
84876SOL    HW256403   6.935  12.529   2.431
84877SOL     OW56404  11.756   3.898   2.896
84877SOL    HW156405  11.683   3.924   2.953
84877SOL    HW256406  11.731   3.811   2.864
84878SOL     OW56407   2.210  11.245  14.378
84878SOL    HW156408   2.214  11.151  14.398
84878SOL    HW256409   2.121  11.271  14.403
84879SOL     OW56410   1.090  10.896   1.511
84879SOL    HW156411   1.172  10.944   1.501
84879SOL    HW256412   1.076  10.855   1.426
84880SOL     OW56413   7.349   9.688   0.419
84880SOL    HW156414   7.338   9.650   0.506
84880SOL    HW256415   7.341   9.782   0.433
84881SOL     OW56416   9.026  12.547  14.819
84881SOL    HW156417   9.006  12.582  14.732
84881SOL    HW256418   8.949  12.566  14.871
84882SOL     OW56419   1.453   8.925   8.520
84882SOL    HW156420   1.358   8.917   8.512
84882SOL    HW256421   1.468   9.018   8.536
84883SOL     OW56422   6.783  11.288   1.719
84883SOL    HW156423   6.839  11.235   1.775
84883SOL    HW256424   6.704  11.303   1.771
84884SOL     OW56425   6.997   0.632   2.029
84884SOL    HW156426   6.907   0.656   2.051
84884SOL    HW256427   7.007   0.657   1.937
84885SOL     OW56428  10.756   7.122   5.762
84885SOL    HW156429  10.848   7.100   5.771
84885SOL    HW256430  10.754   7.198   5.704
84886SOL     OW56431   3.221   6.727  10.686
84886SOL    HW156432   3.142   6.707  10.636
84886SOL    HW256433   3.290   6.737  10.620
84887SOL     OW56434   3.874   7.181  10.978
84887SOL    HW156435   3.799   7.198  11.036
84887SOL    HW256436   3.911   7.099  11.011
84888SOL     OW56437   7.310  13.492  11.917
84888SOL    HW156438   7.384  13.553  11.920
84888SOL    HW256439   7.350  13.406  11.932
84889SOL     OW56440   4.987   9.989  12.154
84889SOL    HW156441   5.020   9.960  12.239
84889SOL    HW256442   4.926   9.921  12.127
84890SOL     OW56443   7.433  14.276   2.625
84890SOL    HW156444   7.409  14.255   2.715
84890SOL    HW256445   7.442  14.191   2.582
84891SOL     OW56446   3.919   5.669  11.347
84891SOL    HW156447   3.832   5.661  11.387
84891SOL    HW256448   3.978   5.688  11.420
84892SOL     OW56449   5.014   7.094   4.384
84892SOL    HW156450   5.046   7.056   4.302
84892SOL    HW256451   5.070   7.170   4.399
84893SOL     OW56452   0.176  12.539  12.429
84893SOL    HW156453   0.175  12.449  12.463
84893SOL    HW256454   0.103  12.542  12.368
84894SOL     OW56455  11.068   7.928   7.987
84894SOL    HW156456  11.049   7.986   8.061
84894SOL    HW256457  11.117   7.856   8.026
84895SOL     OW56458   2.466   9.310   5.999
84895SOL    HW156459   2.561   9.295   5.999
84895SOL    HW256460   2.455   9.392   6.047
84896SOL     OW56461   8.845   9.026   5.491
84896SOL    HW156462   8.783   9.006   5.560
84896SOL    HW256463   8.928   8.990   5.522
84897SOL     OW56464   7.933  12.424   2.943
84897SOL    HW156465   7.966  12.438   2.855
84897SOL    HW256466   7.852  12.475   2.947
84898SOL     OW56467  13.983   8.842  11.818
84898SOL    HW156468  13.893   8.873  11.808
84898SOL    HW256469  13.986   8.762  11.766
84899SOL     OW56470  13.580   8.955  12.193
84899SOL    HW156471  13.515   9.019  12.164
84899SOL    HW256472  13.562   8.878  12.140
84900SOL     OW56473  14.749   1.224  12.463
84900SOL    HW156474  14.706   1.143  12.435
84900SOL    HW256475  14.841   1.200  12.472
84901SOL     OW56476   1.230  13.974   0.913
84901SOL    HW156477   1.235  14.006   1.003
84901SOL    HW256478   1.317  13.991   0.877
84902SOL     OW56479   0.546   0.260   6.611
84902SOL    HW156480   0.600   0.330   6.648
84902SOL    HW256481   0.603   0.184   6.609
84903SOL     OW56482   7.600   1.646   5.317
84903SOL    HW156483   7.652   1.589   5.374
84903SOL    HW256484   7.548   1.586   5.264
84904SOL     OW56485   9.270   9.970   2.636
84904SOL    HW156486   9.254   9.928   2.720
84904SOL    HW256487   9.353  10.017   2.648
84905SOL     OW56488   6.521   6.383   5.820
84905SOL    HW156489   6.603   6.337   5.839
84905SOL    HW256490   6.478   6.329   5.754
84906SOL     OW56491  10.518   3.398   0.172
84906SOL    HW156492  10.474   3.334   0.117
84906SOL    HW256493  10.553   3.346   0.245
84907SOL     OW56494   3.880  13.866   0.165
84907SOL    HW156495   3.867  13.927   0.237
84907SOL    HW256496   3.801  13.813   0.164
84908SOL     OW56497   5.936   6.482   8.598
84908SOL    HW156498   5.921   6.569   8.635
84908SOL    HW256499   5.895   6.486   8.512
84909SOL     OW56500   4.958   4.318   9.227
84909SOL    HW156501   4.955   4.392   9.287
84909SOL    HW256502   5.006   4.250   9.274
84910SOL     OW56503   4.021   6.241   2.176
84910SOL    HW156504   4.111   6.208   2.181
84910SOL    HW256505   4.016   6.281   2.089
84911SOL     OW56506   3.612   2.582   1.626
84911SOL    HW156507   3.592   2.627   1.543
84911SOL    HW256508   3.634   2.653   1.687
84912SOL     OW56509  12.601   4.048  12.723
84912SOL    HW156510  12.526   4.020  12.775
84912SOL    HW256511  12.652   3.968  12.710
84913SOL     OW56512   8.047   4.941   8.489
84913SOL    HW156513   8.060   4.876   8.420
84913SOL    HW256514   7.994   5.010   8.448
84914SOL     OW56515   1.134  10.352   4.480
84914SOL    HW156516   1.202  10.391   4.535
84914SOL    HW256517   1.076  10.307   4.541
84915SOL     OW56518  12.538  13.500  12.465
84915SOL    HW156519  12.456  13.470  12.425
84915SOL    HW256520  12.516  13.512  12.558
84916SOL     OW56521   2.590   0.651   7.663
84916SOL    HW156522   2.607   0.596   7.587
84916SOL    HW256523   2.600   0.741   7.630
84917SOL     OW56524   2.881   6.302   1.559
84917SOL    HW156525   2.881   6.393   1.529
84917SOL    HW256526   2.819   6.301   1.632
84918SOL     OW56527  13.634   0.162  10.345
84918SOL    HW156528  13.590   0.122  10.420
84918SOL    HW256529  13.618   0.256  10.355
84919SOL     OW56530   4.120   2.375   4.041
84919SOL    HW156531   4.067   2.377   3.961
84919SOL    HW256532   4.181   2.448   4.031
84920SOL     OW56533  14.628  10.829  11.378
84920SOL    HW156534  14.573  10.759  11.414
84920SOL    HW256535  14.713  10.787  11.363
84921SOL     OW56536   3.052   9.808   5.641
84921SOL    HW156537   2.985   9.869   5.609
84921SOL    HW256538   3.001   9.734   5.676
84922SOL     OW56539  13.259  11.184   9.806
84922SOL    HW156540  13.184  11.188   9.866
84922SOL    HW256541  13.311  11.262   9.828
84923SOL     OW56542   1.289  11.641   0.661
84923SOL    HW156543   1.372  11.623   0.706
84923SOL    HW256544   1.232  11.676   0.729
84924SOL     OW56545   2.675  12.369  14.673
84924SOL    HW156546   2.616  12.293  14.671
84924SOL    HW256547   2.757  12.334  14.707
84925SOL     OW56548   3.015   0.188  11.490
84925SOL    HW156549   3.069   0.252  11.443
84925SOL    HW256550   3.078   0.123  11.522
84926SOL     OW56551   8.647   8.037   0.889
84926SOL    HW156552   8.659   7.950   0.927
84926SOL    HW256553   8.600   8.086   0.956
84927SOL     OW56554   0.569   6.952   5.231
84927SOL    HW156555   0.544   7.010   5.159
84927SOL    HW256556   0.486   6.914   5.261
84928SOL     OW56557   9.313   1.970  14.785
84928SOL    HW156558   9.386   2.007  14.736
84928SOL    HW256559   9.277   1.903  14.727
84929SOL     OW56560   4.289  13.117   7.822
84929SOL    HW156561   4.273  13.024   7.806
84929SOL    HW256562   4.344  13.118   7.900
84930SOL     OW56563   0.993   4.708   6.419
84930SOL    HW156564   0.916   4.758   6.392
84930SOL    HW256565   0.962   4.655   6.492
84931SOL     OW56566   3.915   0.378   7.055
84931SOL    HW156567   3.922   0.430   6.975
84931SOL    HW256568   3.848   0.421   7.107
84932SOL     OW56569   1.978   5.324  12.530
84932SOL    HW156570   2.027   5.306  12.450
84932SOL    HW256571   1.894   5.280  12.517
84933SOL     OW56572   7.114   9.811   9.760
84933SOL    HW156573   7.059   9.842   9.688
84933SOL    HW256574   7.086   9.861   9.836
84934SOL     OW56575  14.523  14.083  10.452
84934SOL    HW156576  14.572  14.001  10.445
84934SOL    HW256577  14.548  14.133  10.374
84935SOL     OW56578   7.909   2.813   0.004
84935SOL    HW156579   7.922   2.761  14.801
84935SOL    HW256580   7.816   2.836   0.003
84936SOL     OW56581   6.855   8.615   9.092
84936SOL    HW156582   6.810   8.532   9.077
84936SOL    HW256583   6.841   8.665   9.012
84937SOL     OW56584   4.650   9.061   4.103
84937SOL    HW156585   4.737   9.036   4.074
84937SOL    HW256586   4.601   8.979   4.108
84938SOL     OW56587   8.618  13.335   2.181
84938SOL    HW156588   8.686  13.288   2.133
84938SOL    HW256589   8.562  13.267   2.218
84939SOL     OW56590   0.343   9.955  11.550
84939SOL    HW156591   0.309   9.876  11.507
84939SOL    HW256592   0.365   9.926  11.639
84940SOL     OW56593   7.561  13.452   9.201
84940SOL    HW156594   7.531  13.471   9.290
84940SOL    HW256595   7.484  13.466   9.146
84941SOL     OW56596   4.876   6.430   6.658
84941SOL    HW156597   4.868   6.404   6.750
84941SOL    HW256598   4.904   6.351   6.612
84942SOL     OW56599   1.228   7.908  11.891
84942SOL    HW156600   1.278   7.974  11.940
84942SOL    HW256601   1.157   7.884  11.950
84943SOL     OW56602   2.866   1.523   5.173
84943SOL    HW156603   2.783   1.562   5.203
84943SOL    HW256604   2.846   1.489   5.086
84944SOL     OW56605   6.090   2.952  10.714
84944SOL    HW156606   6.009   2.995  10.687
84944SOL    HW256607   6.061   2.870  10.755
84945SOL     OW56608   4.051   8.779  14.518
84945SOL    HW156609   4.101   8.796  14.597
84945SOL    HW256610   3.991   8.708  14.543
84946SOL     OW56611   9.466   1.919   6.291
84946SOL    HW156612   9.510   1.994   6.250
84946SOL    HW256613   9.528   1.888   6.357
84947SOL     OW56614   4.818   4.847   5.000
84947SOL    HW156615   4.768   4.912   4.950
84947SOL    HW256616   4.903   4.843   4.957
84948SOL     OW56617   1.495   8.896   0.325
84948SOL    HW156618   1.575   8.846   0.308
84948SOL    HW256619   1.425   8.839   0.292
84949SOL     OW56620   5.974  13.813  11.849
84949SOL    HW156621   5.928  13.745  11.801
84949SOL    HW256622   6.024  13.766  11.916
84950SOL     OW56623  14.568   4.527  11.172
84950SOL    HW156624  14.623   4.543  11.249
84950SOL    HW256625  14.629   4.497  11.105
84951SOL     OW56626  10.818  14.318   3.869
84951SOL    HW156627  10.795  14.323   3.776
84951SOL    HW256628  10.823  14.224   3.888
84952SOL     OW56629  12.687  10.785   0.601
84952SOL    HW156630  12.673  10.879   0.609
84952SOL    HW256631  12.766  10.768   0.653
84953SOL     OW56632  12.826   0.793  11.783
84953SOL    HW156633  12.753   0.735  11.764
84953SOL    HW256634  12.786   0.877  11.803
84954SOL     OW56635  10.035  13.504  14.579
84954SOL    HW156636  10.046  13.448  14.656
84954SOL    HW256637  10.115  13.557  14.575
84955SOL     OW56638   8.448   2.359  12.195
84955SOL    HW156639   8.446   2.278  12.145
84955SOL    HW256640   8.507   2.416  12.144
84956SOL     OW56641  14.811   4.567  11.451
84956SOL    HW156642  14.736   4.591  11.505
84956SOL    HW256643  14.814   4.634  11.382
84957SOL     OW56644   8.656   7.785   7.179
84957SOL    HW156645   8.718   7.761   7.111
84957SOL    HW256646   8.638   7.703   7.225
84958SOL     OW56647   2.023   3.479  13.137
84958SOL    HW156648   2.091   3.456  13.201
84958SOL    HW256649   2.040   3.571  13.116
84959SOL     OW56650  14.163   9.780   7.724
84959SOL    HW156651  14.121   9.708   7.771
84959SOL    HW256652  14.093   9.821   7.674
84960SOL     OW56653  11.848  10.265   1.104
84960SOL    HW156654  11.764  10.224   1.083
84960SOL    HW256655  11.846  10.349   1.059
84961SOL     OW56656   8.059  13.426   0.878
84961SOL    HW156657   7.989  13.487   0.900
84961SOL    HW256658   8.014  13.347   0.847
84962SOL     OW56659   9.720   2.604   4.673
84962SOL    HW156660   9.748   2.652   4.751
84962SOL    HW256661   9.751   2.658   4.600
84963SOL     OW56662   6.113   0.662   9.433
84963SOL    HW156663   6.150   0.636   9.349
84963SOL    HW256664   6.173   0.626   9.498
84964SOL     OW56665   6.670   5.521   9.902
84964SOL    HW156666   6.760   5.513   9.934
84964SOL    HW256667   6.620   5.459   9.956
84965SOL     OW56668   0.228   8.325  10.010
84965SOL    HW156669   0.215   8.250   9.952
84965SOL    HW256670   0.323   8.326  10.027
84966SOL     OW56671   1.260   0.425   6.445
84966SOL    HW156672   1.171   0.416   6.412
84966SOL    HW256673   1.293   0.505   6.404
84967SOL     OW56674   6.224   1.047  14.757
84967SOL    HW156675   6.256   1.128  14.719
84967SOL    HW256676   6.253   0.979  14.695
84968SOL     OW56677  13.649   5.359   1.533
84968SOL    HW156678  13.614   5.355   1.444
84968SOL    HW256679  13.670   5.268   1.555
84969SOL     OW56680   9.328  10.569  13.004
84969SOL    HW156681   9.396  10.527  12.951
84969SOL    HW256682   9.271  10.498  13.031
84970SOL     OW56683   2.313   3.524  11.736
84970SOL    HW156684   2.311   3.519  11.832
84970SOL    HW256685   2.340   3.436  11.709
84971SOL     OW56686   1.863   4.283  13.578
84971SOL    HW156687   1.787   4.315  13.627
84971SOL    HW256688   1.841   4.301  13.486
84972SOL     OW56689   4.642   7.222  13.452
84972SOL    HW156690   4.701   7.292  13.424
84972SOL    HW256691   4.667   7.147  13.400
84973SOL     OW56692  11.004  14.577   9.271
84973SOL    HW156693  11.038  14.494   9.306
84973SOL    HW256694  11.064  14.644   9.304
84974SOL     OW56695  14.521  11.159  11.308
84974SOL    HW156696  14.444  11.182  11.255
84974SOL    HW256697  14.515  11.216  11.385
84975SOL     OW56698   5.898  12.515   0.980
84975SOL    HW156699   5.948  12.517   1.061
84975SOL    HW256700   5.950  12.566   0.918
84976SOL     OW56701   7.676   1.963   0.266
84976SOL    HW156702   7.658   1.876   0.302
84976SOL    HW256703   7.687   2.019   0.343
84977SOL     OW56704  14.713   7.426   3.350
84977SOL    HW156705  14.653   7.355   3.374
84977SOL    HW256706  14.695   7.443   3.258
84978SOL     OW56707   3.790   1.780   4.212
84978SOL    HW156708   3.787   1.833   4.292
84978SOL    HW256709   3.715   1.810   4.161
84979SOL     OW56710   4.420   8.437  14.190
84979SOL    HW156711   4.462   8.523  14.195
84979SOL    HW256712   4.326   8.456  14.193
84980SOL     OW56713   3.893   7.397  14.179
84980SOL    HW156714   3.943   7.340  14.237
84980SOL    HW256715   3.959   7.440  14.124
84981SOL     OW56716   0.025   4.723   5.198
84981SOL    HW156717   0.098   4.678   5.242
84981SOL    HW256718  14.857   4.769   5.269
84982SOL     OW56719  10.279   3.650  14.860
84982SOL    HW156720  10.258   3.615   0.070
84982SOL    HW256721  10.287   3.572  14.805
84983SOL     OW56722  11.753  14.769   7.857
84983SOL    HW156723  11.692  14.766   7.783
84983SOL    HW256724  11.781  14.861   7.861
84984SOL     OW56725   4.532  11.208   8.652
84984SOL    HW156726   4.612  11.201   8.600
84984SOL    HW256727   4.556  11.174   8.738
84985SOL     OW56728  10.033   5.809   8.140
84985SOL    HW156729   9.945   5.787   8.111
84985SOL    HW256730  10.090   5.747   8.095
84986SOL     OW56731  10.277   3.892   1.294
84986SOL    HW156732  10.315   3.875   1.208
84986SOL    HW256733  10.185   3.870   1.285
84987SOL     OW56734   4.151   8.437  11.331
84987SOL    HW156735   4.101   8.402  11.257
84987SOL    HW256736   4.241   8.443  11.297
84988SOL     OW56737  10.355   5.435  14.040
84988SOL    HW156738  10.356   5.343  14.067
84988SOL    HW256739  10.318   5.434  13.952
84989SOL     OW56740   2.164   5.472   6.403
84989SOL    HW156741   2.223   5.459   6.478
84989SOL    HW256742   2.076   5.462   6.441
84990SOL     OW56743   4.586  11.483   4.318
84990SOL    HW156744   4.553  11.555   4.265
84990SOL    HW256745   4.677  11.471   4.289
84991SOL     OW56746  14.038  14.308   5.827
84991SOL    HW156747  14.091  14.336   5.752
84991SOL    HW256748  14.095  14.249   5.877
84992SOL     OW56749   3.161   0.088  10.329
84992SOL    HW156750   3.250   0.092  10.296
84992SOL    HW256751   3.141   0.178  10.355
84993SOL     OW56752   5.691   6.586   3.858
84993SOL    HW156753   5.688   6.582   3.954
84993SOL    HW256754   5.740   6.667   3.840
84994SOL     OW56755  13.824   0.334  10.931
84994SOL    HW156756  13.824   0.394  10.857
84994SOL    HW256757  13.885   0.373  10.994
84995SOL     OW56758   7.283   6.861  14.415
84995SOL    HW156759   7.240   6.788  14.370
84995SOL    HW256760   7.266   6.845  14.508
84996SOL     OW56761  14.207  13.125   7.697
84996SOL    HW156762  14.217  13.193   7.763
84996SOL    HW256763  14.277  13.062   7.716
84997SOL     OW56764  11.516   6.363  12.189
84997SOL    HW156765  11.592   6.421  12.196
84997SOL    HW256766  11.441   6.422  12.192
84998SOL     OW56767   5.738   0.526   3.719
84998SOL    HW156768   5.793   0.526   3.641
84998SOL    HW256769   5.648   0.528   3.685
84999SOL     OW56770   6.604   9.723   6.394
84999SOL    HW156771   6.620   9.669   6.471
84999SOL    HW256772   6.612   9.813   6.425
85000SOL     OW56773  11.783  14.871   6.930
85000SOL    HW156774  11.804   0.001   6.837
85000SOL    HW256775  11.733  14.790   6.938
85001SOL     OW56776   9.617  10.782   6.654
85001SOL    HW156777   9.695  10.741   6.690
85001SOL    HW256778   9.651  10.852   6.598
85002SOL     OW56779   2.408  11.772  13.178
85002SOL    HW156780   2.484  11.718  13.200
85002SOL    HW256781   2.396  11.758  13.084
85003SOL     OW56782  11.445  12.200   7.517
85003SOL    HW156783  11.510  12.239   7.459
85003SOL    HW256784  11.371  12.261   7.515
85004SOL     OW56785  10.987  11.992   7.845
85004SOL    HW156786  11.077  12.008   7.875
85004SOL    HW256787  10.965  12.069   7.792
85005SOL     OW56788   2.930   6.498   1.915
85005SOL    HW156789   2.893   6.517   1.829
85005SOL    HW256790   3.002   6.561   1.924
85006SOL     OW56791  10.635   0.942  13.298
85006SOL    HW156792  10.682   0.904  13.223
85006SOL    HW256793  10.696   0.934  13.371
85007SOL     OW56794   2.353  13.377   9.651
85007SOL    HW156795   2.415  13.312   9.619
85007SOL    HW256796   2.406  13.453   9.673
85008SOL     OW56797  12.997   0.071  13.160
85008SOL    HW156798  12.955   0.128  13.224
85008SOL    HW256799  12.948  14.867  13.164
85009SOL     OW56800   1.562   8.007   7.060
85009SOL    HW156801   1.589   8.026   7.149
85009SOL    HW256802   1.576   8.090   7.013
85010SOL     OW56803   8.279   6.653  12.410
85010SOL    HW156804   8.291   6.621  12.321
85010SOL    HW256805   8.356   6.708  12.427
85011SOL     OW56806  13.853  14.711  11.440
85011SOL    HW156807  13.805  14.742  11.517
85011SOL    HW256808  13.923  14.776  11.428
85012SOL     OW56809  14.108   3.342   6.810
85012SOL    HW156810  14.187   3.288   6.798
85012SOL    HW256811  14.037   3.288   6.775
85013SOL     OW56812   8.877   7.642  12.118
85013SOL    HW156813   8.921   7.570  12.073
85013SOL    HW256814   8.798   7.658  12.067
85014SOL     OW56815   9.569  11.777   3.734
85014SOL    HW156816   9.557  11.841   3.804
85014SOL    HW256817   9.567  11.692   3.778
85015SOL     OW56818   0.031   6.905   7.492
85015SOL    HW156819   0.119   6.903   7.531
85015SOL    HW256820   0.000   6.814   7.499
85016SOL     OW56821  12.039  14.148   0.941
85016SOL    HW156822  12.126  14.108   0.945
85016SOL    HW256823  12.004  14.120   0.856
85017SOL     OW56824   0.692   5.864   6.421
85017SOL    HW156825   0.723   5.808   6.492
85017SOL    HW256826   0.634   5.809   6.370
85018SOL     OW56827   6.674   0.933   6.739
85018SOL    HW156828   6.703   0.850   6.774
85018SOL    HW256829   6.648   0.984   6.816
85019SOL     OW56830   6.880  14.018   1.976
85019SOL    HW156831   6.808  14.061   2.021
85019SOL    HW256832   6.933  13.979   2.045
85020SOL     OW56833  11.252  13.866  10.163
85020SOL    HW156834  11.250  13.867  10.067
85020SOL    HW256835  11.290  13.780  10.184
85021SOL     OW56836   5.600   4.954   6.784
85021SOL    HW156837   5.693   4.939   6.770
85021SOL    HW256838   5.596   5.034   6.836
85022SOL     OW56839  11.626   2.312   3.947
85022SOL    HW156840  11.653   2.392   3.991
85022SOL    HW256841  11.568   2.268   4.009
85023SOL     OW56842   5.858   4.525   6.548
85023SOL    HW156843   5.871   4.530   6.642
85023SOL    HW256844   5.906   4.601   6.513
85024SOL     OW56845   8.467   4.224   7.557
85024SOL    HW156846   8.495   4.290   7.494
85024SOL    HW256847   8.506   4.143   7.525
85025SOL     OW56848   0.107   5.400   6.065
85025SOL    HW156849   0.107   5.316   6.019
85025SOL    HW256850   0.090   5.464   5.996
85026SOL     OW56851   1.065   1.339   3.529
85026SOL    HW156852   1.157   1.316   3.513
85026SOL    HW256853   1.019   1.255   3.527
85027SOL     OW56854   7.099   4.241   7.160
85027SOL    HW156855   7.109   4.148   7.177
85027SOL    HW256856   7.185   4.279   7.181
85028SOL     OW56857   1.157  12.452   9.458
85028SOL    HW156858   1.099  12.384   9.424
85028SOL    HW256859   1.195  12.492   9.380
85029SOL     OW56860   2.740   2.121   1.080
85029SOL    HW156861   2.682   2.066   1.132
85029SOL    HW256862   2.712   2.210   1.100
85030SOL     OW56863   2.790  11.958   0.266
85030SOL    HW156864   2.877  11.974   0.301
85030SOL    HW256865   2.793  11.991   0.176
85031SOL     OW56866  14.875   8.894   3.262
85031SOL    HW156867  14.786   8.930   3.265
85031SOL    HW256868  14.861   8.801   3.246
85032SOL     OW56869   7.228   1.035   9.842
85032SOL    HW156870   7.204   1.002   9.755
85032SOL    HW256871   7.144   1.059   9.883
85033SOL     OW56872   0.029   5.440  14.796
85033SOL    HW156873  14.831   5.472  14.747
85033SOL    HW256874  14.870   5.378  14.859
85034SOL     OW56875   1.321   9.685  10.206
85034SOL    HW156876   1.329   9.658  10.114
85034SOL    HW256877   1.369   9.618  10.255
85035SOL     OW56878   9.584   3.369  10.028
85035SOL    HW156879   9.515   3.307  10.050
85035SOL    HW256880   9.646   3.319   9.977
85036SOL     OW56881   9.217   5.050  13.838
85036SOL    HW156882   9.123   5.056  13.817
85036SOL    HW256883   9.253   4.996  13.769
85037SOL     OW56884   2.454  13.572  12.997
85037SOL    HW156885   2.462  13.576  12.902
85037SOL    HW256886   2.383  13.509  13.012
85038SOL     OW56887   1.453  10.519   7.672
85038SOL    HW156888   1.371  10.514   7.721
85038SOL    HW256889   1.490  10.604   7.696
85039SOL     OW56890   2.838   5.735   6.135
85039SOL    HW156891   2.827   5.689   6.052
85039SOL    HW256892   2.932   5.735   6.150
85040SOL     OW56893   3.430   8.662  14.625
85040SOL    HW156894   3.390   8.738  14.667
85040SOL    HW256895   3.517   8.693  14.599
85041SOL     OW56896  12.414   0.006  11.176
85041SOL    HW156897  12.397   0.088  11.223
85041SOL    HW256898  12.488   0.026  11.119
85042SOL     OW56899  13.146   2.924   8.638
85042SOL    HW156900  13.080   2.903   8.571
85042SOL    HW256901  13.100   2.981   8.700
85043SOL     OW56902  13.006   0.582  11.395
85043SOL    HW156903  12.917   0.594  11.429
85043SOL    HW256904  13.056   0.550  11.470
85044SOL     OW56905   6.938  11.296   5.153
85044SOL    HW156906   6.843  11.290   5.137
85044SOL    HW256907   6.944  11.309   5.248
85045SOL     OW56908   8.792   8.470   0.866
85045SOL    HW156909   8.871   8.470   0.812
85045SOL    HW256910   8.721   8.448   0.805
85046SOL     OW56911   6.427  13.071  13.039
85046SOL    HW156912   6.472  13.075  12.954
85046SOL    HW256913   6.422  12.978  13.060
85047SOL     OW56914   1.070   5.049   1.704
85047SOL    HW156915   1.036   5.116   1.762
85047SOL    HW256916   1.159   5.032   1.735
85048SOL     OW56917   4.610   4.421   2.936
85048SOL    HW156918   4.534   4.387   2.984
85048SOL    HW256919   4.625   4.508   2.974
85049SOL     OW56920   3.680  12.201   7.499
85049SOL    HW156921   3.724  12.173   7.579
85049SOL    HW256922   3.653  12.119   7.457
85050SOL     OW56923  10.366  11.340   1.281
85050SOL    HW156924  10.377  11.429   1.248
85050SOL    HW256925  10.417  11.285   1.221
85051SOL     OW56926   3.808  10.435   8.575
85051SOL    HW156927   3.828  10.414   8.484
85051SOL    HW256928   3.751  10.512   8.570
85052SOL     OW56929  11.298   0.453   4.656
85052SOL    HW156930  11.373   0.393   4.661
85052SOL    HW256931  11.291   0.475   4.563
85053SOL     OW56932   0.459   4.641   0.556
85053SOL    HW156933   0.411   4.723   0.565
85053SOL    HW256934   0.535   4.663   0.503
85054SOL     OW56935   9.243  13.973   5.251
85054SOL    HW156936   9.237  14.009   5.162
85054SOL    HW256937   9.191  14.033   5.304
85055SOL     OW56938   6.820  12.870  12.053
85055SOL    HW156939   6.861  12.787  12.077
85055SOL    HW256940   6.789  12.907  12.136
85056SOL     OW56941   2.623   1.907   4.850
85056SOL    HW156942   2.697   1.874   4.799
85056SOL    HW256943   2.630   2.003   4.843
85057SOL     OW56944   9.225  10.433   4.143
85057SOL    HW156945   9.300  10.491   4.158
85057SOL    HW256946   9.239  10.360   4.203
85058SOL     OW56947   6.872   6.723  13.616
85058SOL    HW156948   6.855   6.645  13.564
85058SOL    HW256949   6.960   6.711  13.651
85059SOL     OW56950   0.098   2.674   6.015
85059SOL    HW156951   0.085   2.678   6.110
85059SOL    HW256952   0.043   2.601   5.986
85060SOL     OW56953   0.122  11.443   4.581
85060SOL    HW156954   0.148  11.412   4.494
85060SOL    HW256955   0.203  11.476   4.620
85061SOL     OW56956   8.954   6.288   5.503
85061SOL    HW156957   9.013   6.297   5.578
85061SOL    HW256958   8.960   6.196   5.479
85062SOL     OW56959   0.707   6.582  11.537
85062SOL    HW156960   0.725   6.667  11.497
85062SOL    HW256961   0.742   6.589  11.626
85063SOL     OW56962   4.846   0.829   0.945
85063SOL    HW156963   4.820   0.873   0.864
85063SOL    HW256964   4.898   0.754   0.916
85064SOL     OW56965  14.690   2.929   7.659
85064SOL    HW156966  14.609   2.883   7.635
85064SOL    HW256967  14.756   2.860   7.663
85065SOL     OW56968  10.370   4.883   4.874
85065SOL    HW156969  10.406   4.843   4.795
85065SOL    HW256970  10.347   4.972   4.848
85066SOL     OW56971  11.751   0.898  13.818
85066SOL    HW156972  11.723   0.981  13.858
85066SOL    HW256973  11.672   0.863  13.777
85067SOL     OW56974  12.076  11.694  10.459
85067SOL    HW156975  12.105  11.701  10.550
85067SOL    HW256976  12.142  11.639  10.417
85068SOL     OW56977   8.232   2.329  10.867
85068SOL    HW156978   8.314   2.284  10.850
85068SOL    HW256979   8.203   2.296  10.952
85069SOL     OW56980   8.874  12.258  11.698
85069SOL    HW156981   8.890  12.260  11.603
85069SOL    HW256982   8.779  12.265  11.706
85070SOL     OW56983   0.589   9.999   2.974
85070SOL    HW156984   0.553  10.069   3.029
85070SOL    HW256985   0.630  10.046   2.901
85071SOL     OW56986   4.427   4.402  11.422
85071SOL    HW156987   4.515   4.373  11.396
85071SOL    HW256988   4.433   4.497  11.425
85072SOL     OW56989   2.427   5.622  14.254
85072SOL    HW156990   2.387   5.666  14.329
85072SOL    HW256991   2.483   5.689  14.214
85073SOL     OW56992   9.372   3.532   6.785
85073SOL    HW156993   9.365   3.520   6.691
85073SOL    HW256994   9.357   3.626   6.798
85074SOL     OW56995   6.198  14.806  14.293
85074SOL    HW156996   6.179  14.852  14.375
85074SOL    HW256997   6.188  14.873  14.225
85075SOL     OW56998   3.177  10.422   5.309
85075SOL    HW156999   3.183  10.494   5.247
85075SOL    HW257000   3.145  10.348   5.256
85076SOL     OW57001  14.528   0.867   8.076
85076SOL    HW157002  14.537   0.891   8.168
85076SOL    HW257003  14.573   0.783   8.069
85077SOL     OW57004   7.479  13.101   4.758
85077SOL    HW157005   7.507  13.011   4.744
85077SOL    HW257006   7.397  13.094   4.806
85078SOL     OW57007   0.589  14.766   7.986
85078SOL    HW157008   0.614  14.674   7.992
85078SOL    HW257009   0.554  14.787   8.072
85079SOL     OW57010  12.351   4.006   6.009
85079SOL    HW157011  12.335   3.916   5.979
85079SOL    HW257012  12.383   3.996   6.099
85080SOL     OW57013   5.822   8.822   1.585
85080SOL    HW157014   5.870   8.787   1.510
85080SOL    HW257015   5.803   8.913   1.561
85081SOL     OW57016  11.763   9.105   5.019
85081SOL    HW157017  11.685   9.148   4.984
85081SOL    HW257018  11.733   9.018   5.046
85082SOL     OW57019  14.046   9.112  13.595
85082SOL    HW157020  14.141   9.118  13.602
85082SOL    HW257021  14.025   9.149  13.510
85083SOL     OW57022   7.943   3.519  11.782
85083SOL    HW157023   7.925   3.438  11.736
85083SOL    HW257024   7.877   3.581  11.749
85084SOL     OW57025   7.269  13.776   0.270
85084SOL    HW157026   7.311  13.850   0.226
85084SOL    HW257027   7.312  13.699   0.233
85085SOL     OW57028  13.565   9.204  14.760
85085SOL    HW157029  13.587   9.201  14.853
85085SOL    HW257030  13.515   9.123  14.746
85086SOL     OW57031   3.074   5.758  13.398
85086SOL    HW157032   3.101   5.711  13.319
85086SOL    HW257033   3.082   5.851  13.374
85087SOL     OW57034  12.037   2.014  11.884
85087SOL    HW157035  12.032   2.106  11.907
85087SOL    HW257036  12.049   2.013  11.789
85088SOL     OW57037   2.118   6.600   6.592
85088SOL    HW157038   2.135   6.534   6.525
85088SOL    HW257039   2.033   6.577   6.628
85089SOL     OW57040   8.300   5.981   7.231
85089SOL    HW157041   8.322   5.923   7.159
85089SOL    HW257042   8.315   6.069   7.196
85090SOL     OW57043   5.200   8.603   6.086
85090SOL    HW157044   5.249   8.684   6.101
85090SOL    HW257045   5.264   8.543   6.049
85091SOL     OW57046   4.055  12.278   6.249
85091SOL    HW157047   4.041  12.264   6.155
85091SOL    HW257048   4.076  12.371   6.257
85092SOL     OW57049  10.105   2.673   3.390
85092SOL    HW157050  10.192   2.637   3.375
85092SOL    HW257051  10.074   2.698   3.303
85093SOL     OW57052   8.599   1.389   8.104
85093SOL    HW157053   8.660   1.420   8.171
85093SOL    HW257054   8.656   1.356   8.034
85094SOL     OW57055   3.050   9.121  11.281
85094SOL    HW157056   3.102   9.136  11.202
85094SOL    HW257057   2.995   9.045  11.259
85095SOL     OW57058   4.802   5.067   1.535
85095SOL    HW157059   4.871   5.017   1.579
85095SOL    HW257060   4.729   5.066   1.597
85096SOL     OW57061   6.553   3.529  12.340
85096SOL    HW157062   6.504   3.557  12.263
85096SOL    HW257063   6.488   3.524  12.410
85097SOL     OW57064   4.458   4.854  10.619
85097SOL    HW157065   4.363   4.869  10.624
85097SOL    HW257066   4.468   4.783  10.556
85098SOL     OW57067  12.302  14.779  13.400
85098SOL    HW157068  12.352  14.751  13.324
85098SOL    HW257069  12.270  14.697  13.439
85099SOL     OW57070   3.116  14.542  12.786
85099SOL    HW157071   3.054  14.611  12.764
85099SOL    HW257072   3.167  14.529  12.706
85100SOL     OW57073  12.414  12.706   3.041
85100SOL    HW157074  12.490  12.748   3.080
85100SOL    HW257075  12.401  12.627   3.092
85101SOL     OW57076  14.597   2.055  11.146
85101SOL    HW157077  14.522   2.112  11.158
85101SOL    HW257078  14.621   2.027  11.234
85102SOL     OW57079   4.353   2.456   8.800
85102SOL    HW157080   4.354   2.361   8.812
85102SOL    HW257081   4.262   2.478   8.783
85103SOL     OW57082   7.016   6.432   9.513
85103SOL    HW157083   6.982   6.354   9.555
85103SOL    HW257084   7.032   6.493   9.585
85104SOL     OW57085   5.087  13.788   0.689
85104SOL    HW157086   5.098  13.715   0.629
85104SOL    HW257087   5.149  13.854   0.658
85105SOL     OW57088   4.467   1.790  10.755
85105SOL    HW157089   4.534   1.849  10.790
85105SOL    HW257090   4.508   1.753  10.676
85106SOL     OW57091  13.170   0.488  14.411
85106SOL    HW157092  13.177   0.570  14.460
85106SOL    HW257093  13.214   0.506  14.327
85107SOL     OW57094  13.981   4.449  12.227
85107SOL    HW157095  13.995   4.533  12.270
85107SOL    HW257096  13.895   4.457  12.184
85108SOL     OW57097   7.497   8.567   7.439
85108SOL    HW157098   7.459   8.621   7.508
85108SOL    HW257099   7.425   8.555   7.376
85109SOL     OW57100   1.745  14.723  12.050
85109SOL    HW157101   1.674  14.708  12.113
85109SOL    HW257102   1.813  14.661  12.076
85110SOL     OW57103  14.219   3.358   9.599
85110SOL    HW157104  14.248   3.295   9.666
85110SOL    HW257105  14.301   3.388   9.558
85111SOL     OW57106   5.098   3.220  14.684
85111SOL    HW157107   5.046   3.194  14.760
85111SOL    HW257108   5.044   3.285  14.639
85112SOL     OW57109   4.653  10.799  13.743
85112SOL    HW157110   4.657  10.892  13.765
85112SOL    HW257111   4.590  10.794  13.671
85113SOL     OW57112   3.895  14.400   0.657
85113SOL    HW157113   3.928  14.462   0.593
85113SOL    HW257114   3.883  14.451   0.737
85114SOL     OW57115  14.640   8.801   1.418
85114SOL    HW157116  14.595   8.850   1.487
85114SOL    HW257117  14.580   8.804   1.343
85115SOL     OW57118   2.188   3.994  10.651
85115SOL    HW157119   2.278   4.000  10.619
85115SOL    HW257120   2.188   4.047  10.731
85116SOL     OW57121   5.629   9.983   6.613
85116SOL    HW157122   5.628   9.893   6.581
85116SOL    HW257123   5.717   9.995   6.648
85117SOL     OW57124   3.395  12.445   1.736
85117SOL    HW157125   3.319  12.445   1.676
85117SOL    HW257126   3.468  12.472   1.681
85118SOL     OW57127  12.190   0.100   1.102
85118SOL    HW157128  12.169   0.160   1.031
85118SOL    HW257129  12.105   0.067   1.132
85119SOL     OW57130  12.425   5.503   2.268
85119SOL    HW157131  12.517   5.484   2.287
85119SOL    HW257132  12.382   5.500   2.353
85120SOL     OW57133   2.847   9.327   5.754
85120SOL    HW157134   2.824   9.252   5.809
85120SOL    HW257135   2.764   9.373   5.740
85121SOL     OW57136   5.609   3.496   3.677
85121SOL    HW157137   5.662   3.461   3.749
85121SOL    HW257138   5.543   3.551   3.720
85122SOL     OW57139   2.463   2.744  12.389
85122SOL    HW157140   2.500   2.739  12.301
85122SOL    HW257141   2.487   2.661  12.430
85123SOL     OW57142   2.601   1.106   4.531
85123SOL    HW157143   2.600   1.014   4.506
85123SOL    HW257144   2.647   1.150   4.460
85124SOL     OW57145   0.899   7.029  13.283
85124SOL    HW157146   0.889   7.066  13.196
85124SOL    HW257147   0.936   6.942  13.268
85125SOL     OW57148   9.760   7.733   4.265
85125SOL    HW157149   9.802   7.723   4.180
85125SOL    HW257150   9.712   7.651   4.278
85126SOL     OW57151   9.061   3.461  12.079
85126SOL    HW157152   9.082   3.383  12.130
85126SOL    HW257153   8.979   3.492  12.115
85127SOL     OW57154  11.165   0.112  10.688
85127SOL    HW157155  11.250   0.071  10.672
85127SOL    HW257156  11.130   0.065  10.764
85128SOL     OW57157   9.766  12.201   1.490
85128SOL    HW157158   9.775  12.295   1.471
85128SOL    HW257159   9.825  12.186   1.564
85129SOL     OW57160  13.248  12.424   7.140
85129SOL    HW157161  13.229  12.368   7.215
85129SOL    HW257162  13.294  12.499   7.177
85130SOL     OW57163   1.452   0.320   7.329
85130SOL    HW157164   1.449   0.272   7.412
85130SOL    HW257165   1.376   0.378   7.332
85131SOL     OW57166   8.177  11.104   4.973
85131SOL    HW157167   8.242  11.169   4.945
85131SOL    HW257168   8.139  11.071   4.891
85132SOL     OW57169  13.350  10.686   1.584
85132SOL    HW157170  13.350  10.781   1.593
85132SOL    HW257171  13.329  10.671   1.492
85133SOL     OW57172   1.374   8.580  13.857
85133SOL    HW157173   1.386   8.583  13.762
85133SOL    HW257174   1.455   8.617  13.893
85134SOL     OW57175   2.212   5.262   1.176
85134SOL    HW157176   2.261   5.232   1.253
85134SOL    HW257177   2.172   5.183   1.141
85135SOL     OW57178   4.293  12.843  11.660
85135SOL    HW157179   4.349  12.915  11.689
85135SOL    HW257180   4.317  12.829  11.568
85136SOL     OW57181   3.213   9.702   9.678
85136SOL    HW157182   3.244   9.619   9.643
85136SOL    HW257183   3.269   9.768   9.638
85137SOL     OW57184   2.373  12.784  10.950
85137SOL    HW157185   2.385  12.712  10.887
85137SOL    HW257186   2.278  12.799  10.949
85138SOL     OW57187   3.207  13.272   3.648
85138SOL    HW157188   3.228  13.364   3.636
85138SOL    HW257189   3.189  13.240   3.559
85139SOL     OW57190  11.986  10.908   6.461
85139SOL    HW157191  11.914  10.846   6.460
85139SOL    HW257192  12.056  10.865   6.412
85140SOL     OW57193  14.444   0.581   4.797
85140SOL    HW157194  14.468   0.525   4.871
85140SOL    HW257195  14.510   0.651   4.798
85141SOL     OW57196   6.855   5.599  13.366
85141SOL    HW157197   6.930   5.658  13.369
85141SOL    HW257198   6.811   5.611  13.450
85142SOL     OW57199  14.331   2.610   1.717
85142SOL    HW157200  14.355   2.678   1.780
85142SOL    HW257201  14.377   2.532   1.747
85143SOL     OW57202   4.960   6.656   7.792
85143SOL    HW157203   4.962   6.561   7.806
85143SOL    HW257204   4.882   6.671   7.739
85144SOL     OW57205   2.547   7.894   7.504
85144SOL    HW157206   2.617   7.834   7.529
85144SOL    HW257207   2.586   7.948   7.435
85145SOL     OW57208   8.239  14.429  11.116
85145SOL    HW157209   8.250  14.507  11.061
85145SOL    HW257210   8.278  14.358  11.065
85146SOL     OW57211  10.164   4.877  12.090
85146SOL    HW157212  10.143   4.912  12.176
85146SOL    HW257213  10.226   4.940  12.053
85147SOL     OW57214   3.718  10.332   4.490
85147SOL    HW157215   3.649  10.341   4.555
85147SOL    HW257216   3.703  10.247   4.449
85148SOL     OW57217   0.470   8.888   9.622
85148SOL    HW157218   0.443   8.814   9.567
85148SOL    HW257219   0.437   8.965   9.576
85149SOL     OW57220   4.347   6.761   4.532
85149SOL    HW157221   4.311   6.737   4.447
85149SOL    HW257222   4.439   6.736   4.527
85150SOL     OW57223   9.343  14.292  14.017
85150SOL    HW157224   9.416  14.322  13.964
85150SOL    HW257225   9.270  14.350  13.994
85151SOL     OW57226   2.625  12.212   4.860
85151SOL    HW157227   2.663  12.210   4.773
85151SOL    HW257228   2.697  12.187   4.918
85152SOL     OW57229  13.667  10.233  11.937
85152SOL    HW157230  13.670  10.286  11.858
85152SOL    HW257231  13.574  10.212  11.949
85153SOL     OW57232   8.558   1.815  13.225
85153SOL    HW157233   8.607   1.738  13.197
85153SOL    HW257234   8.623   1.871  13.268
85154SOL     OW57235   4.413   8.193  11.394
85154SOL    HW157236   4.415   8.257  11.323
85154SOL    HW257237   4.329   8.209  11.438
85155SOL     OW57238   8.579  10.311  11.914
85155SOL    HW157239   8.605  10.388  11.863
85155SOL    HW257240   8.599  10.237  11.858
85156SOL     OW57241   6.784  11.861   2.311
85156SOL    HW157242   6.784  11.916   2.233
85156SOL    HW257243   6.851  11.899   2.368
85157SOL     OW57244   2.942   2.306  11.733
85157SOL    HW157245   2.971   2.305  11.642
85157SOL    HW257246   2.846   2.302  11.727
85158SOL     OW57247   7.489  11.601  11.633
85158SOL    HW157248   7.408  11.644  11.662
85158SOL    HW257249   7.554  11.671  11.630
85159SOL     OW57250  10.607   1.851   3.280
85159SOL    HW157251  10.627   1.765   3.317
85159SOL    HW257252  10.678   1.907   3.311
85160SOL     OW57253  11.511   6.682  12.510
85160SOL    HW157254  11.426   6.720  12.533
85160SOL    HW257255  11.550   6.744  12.448
85161SOL     OW57256  11.888   2.363   8.759
85161SOL    HW157257  11.795   2.363   8.736
85161SOL    HW257258  11.930   2.315   8.688
85162SOL     OW57259   4.101   7.165  12.454
85162SOL    HW157260   4.058   7.080  12.440
85162SOL    HW257261   4.159   7.175  12.379
85163SOL     OW57262   1.322  13.256  11.559
85163SOL    HW157263   1.326  13.344  11.598
85163SOL    HW257264   1.354  13.268  11.470
85164SOL     OW57265   4.150  13.877   2.580
85164SOL    HW157266   4.062  13.847   2.558
85164SOL    HW257267   4.208  13.810   2.545
85165SOL     OW57268   8.939   1.702  14.229
85165SOL    HW157269   8.867   1.762  14.248
85165SOL    HW257270   9.012   1.758  14.204
85166SOL     OW57271   9.415   7.562   6.283
85166SOL    HW157272   9.388   7.627   6.218
85166SOL    HW257273   9.349   7.570   6.353
85167SOL     OW57274  10.823  10.523   5.287
85167SOL    HW157275  10.759  10.551   5.353
85167SOL    HW257276  10.903  10.507   5.337
85168SOL     OW57277  13.983   6.136   5.286
85168SOL    HW157278  13.953   6.154   5.197
85168SOL    HW257279  14.074   6.163   5.287
85169SOL     OW57280   8.320  13.248  11.401
85169SOL    HW157281   8.295  13.297  11.480
85169SOL    HW257282   8.237  13.213  11.368
85170SOL     OW57283   0.220   0.799   7.858
85170SOL    HW157284   0.274   0.723   7.838
85170SOL    HW257285   0.201   0.837   7.772
85171SOL     OW57286  13.835   3.278   8.628
85171SOL    HW157287  13.836   3.187   8.658
85171SOL    HW257288  13.910   3.283   8.568
85172SOL     OW57289   1.791  13.660   4.302
85172SOL    HW157290   1.824  13.745   4.331
85172SOL    HW257291   1.846  13.597   4.349
85173SOL     OW57292   4.840  10.267   2.621
85173SOL    HW157293   4.908  10.215   2.663
85173SOL    HW257294   4.856  10.356   2.651
85174SOL     OW57295   4.291   4.626   7.152
85174SOL    HW157296   4.278   4.577   7.233
85174SOL    HW257297   4.385   4.644   7.151
85175SOL     OW57298   2.606   1.290  14.362
85175SOL    HW157299   2.701   1.296  14.373
85175SOL    HW257300   2.588   1.196  14.365
85176SOL     OW57301   8.551   8.418  12.401
85176SOL    HW157302   8.520   8.352  12.339
85176SOL    HW257303   8.504   8.399  12.482
85177SOL     OW57304   2.676  10.197   4.611
85177SOL    HW157305   2.735  10.172   4.540
85177SOL    HW257306   2.727  10.259   4.664
85178SOL     OW57307   1.821   6.932   1.676
85178SOL    HW157308   1.752   6.993   1.654
85178SOL    HW257309   1.825   6.871   1.603
85179SOL     OW57310   8.881   9.928   7.311
85179SOL    HW157311   8.961   9.963   7.271
85179SOL    HW257312   8.844  10.002   7.360
85180SOL     OW57313  11.822   0.521   3.071
85180SOL    HW157314  11.886   0.479   3.014
85180SOL    HW257315  11.737   0.491   3.037
85181SOL     OW57316   1.257   2.445   9.932
85181SOL    HW157317   1.220   2.392   9.862
85181SOL    HW257318   1.196   2.518   9.943
85182SOL     OW57319  12.218   5.754   1.955
85182SOL    HW157320  12.147   5.702   1.916
85182SOL    HW257321  12.207   5.841   1.918
85183SOL     OW57322  10.695   7.057   3.845
85183SOL    HW157323  10.600   7.044   3.840
85183SOL    HW257324  10.708   7.144   3.807
85184SOL     OW57325   7.354   5.500   9.847
85184SOL    HW157326   7.356   5.487   9.941
85184SOL    HW257327   7.268   5.469   9.819
85185SOL     OW57328   2.038   2.595   2.784
85185SOL    HW157329   2.044   2.538   2.860
85185SOL    HW257330   2.054   2.538   2.709
85186SOL     OW57331   6.184   8.427  11.952
85186SOL    HW157332   6.190   8.521  11.936
85186SOL    HW257333   6.250   8.410  12.019
85187SOL     OW57334   5.332   3.107   9.534
85187SOL    HW157335   5.251   3.056   9.539
85187SOL    HW257336   5.304   3.192   9.499
85188SOL     OW57337  14.306   5.150  11.557
85188SOL    HW157338  14.278   5.196  11.478
85188SOL    HW257339  14.340   5.066  11.525
85189SOL     OW57340   5.502   6.507   1.739
85189SOL    HW157341   5.528   6.461   1.819
85189SOL    HW257342   5.444   6.446   1.694
85190SOL     OW57343   1.770  12.093   7.203
85190SOL    HW157344   1.834  12.023   7.213
85190SOL    HW257345   1.769  12.111   7.109
85191SOL     OW57346   0.395   1.524   9.892
85191SOL    HW157347   0.394   1.557   9.982
85191SOL    HW257348   0.303   1.507   9.873
85192SOL     OW57349  10.367   3.415  13.714
85192SOL    HW157350  10.293   3.414  13.653
85192SOL    HW257351  10.349   3.489  13.772
85193SOL     OW57352   1.186   0.778  14.475
85193SOL    HW157353   1.262   0.723  14.458
85193SOL    HW257354   1.194   0.850  14.413
85194SOL     OW57355  11.153  12.699   4.633
85194SOL    HW157356  11.217  12.647   4.585
85194SOL    HW257357  11.112  12.754   4.566
85195SOL     OW57358   3.826  13.573   5.645
85195SOL    HW157359   3.789  13.538   5.564
85195SOL    HW257360   3.918  13.544   5.643
85196SOL     OW57361   7.422  14.119   0.437
85196SOL    HW157362   7.390  14.086   0.521
85196SOL    HW257363   7.518  14.116   0.445
85197SOL     OW57364   9.199   2.572   4.517
85197SOL    HW157365   9.177   2.548   4.607
85197SOL    HW257366   9.290   2.603   4.521
85198SOL     OW57367   8.359   1.246   4.878
85198SOL    HW157368   8.349   1.312   4.809
85198SOL    HW257369   8.394   1.169   4.832
85199SOL     OW57370   4.531  12.087   4.550
85199SOL    HW157371   4.522  11.998   4.586
85199SOL    HW257372   4.573  12.074   4.465
85200SOL     OW57373   2.188   6.631   6.858
85200SOL    HW157374   2.149   6.620   6.772
85200SOL    HW257375   2.244   6.554   6.869
85201SOL     OW57376  10.826   7.046   1.732
85201SOL    HW157377  10.859   7.106   1.666
85201SOL    HW257378  10.734   7.071   1.744
85202SOL     OW57379  12.759  13.101   9.839
85202SOL    HW157380  12.685  13.098   9.899
85202SOL    HW257381  12.722  13.133   9.757
85203SOL     OW57382  10.920   5.337   2.439
85203SOL    HW157383  10.979   5.371   2.506
85203SOL    HW257384  10.856   5.407   2.426
85204SOL     OW57385  10.654  12.045  14.259
85204SOL    HW157386  10.707  12.015  14.333
85204SOL    HW257387  10.572  12.073  14.298
85205SOL     OW57388   0.199   0.991  12.743
85205SOL    HW157389   0.171   0.926  12.808
85205SOL    HW257390   0.295   0.991  12.750
85206SOL     OW57391   8.683   2.415   0.001
85206SOL    HW157392   8.603   2.432  14.829
85206SOL    HW257393   8.660   2.348   0.064
85207SOL     OW57394   6.979   2.627   3.886
85207SOL    HW157395   7.011   2.714   3.865
85207SOL    HW257396   7.014   2.608   3.973
85208SOL     OW57397   8.407  10.333  11.058
85208SOL    HW157398   8.399  10.293  10.972
85208SOL    HW257399   8.480  10.395  11.048
85209SOL     OW57400  11.388   2.688  11.741
85209SOL    HW157401  11.321   2.757  11.746
85209SOL    HW257402  11.348   2.620  11.687
85210SOL     OW57403  14.340   0.969  10.138
85210SOL    HW157404  14.314   1.054  10.104
85210SOL    HW257405  14.435   0.974  10.143
85211SOL     OW57406  13.146   9.694   5.893
85211SOL    HW157407  13.065   9.723   5.935
85211SOL    HW257408  13.158   9.604   5.923
85212SOL     OW57409  10.651   2.142   4.981
85212SOL    HW157410  10.639   2.227   4.939
85212SOL    HW257411  10.745   2.134   4.995
85213SOL     OW57412   2.444   0.731   4.059
85213SOL    HW157413   2.423   0.778   4.139
85213SOL    HW257414   2.535   0.705   4.069
85214SOL     OW57415  12.703  10.806   5.031
85214SOL    HW157416  12.645  10.761   5.092
85214SOL    HW257417  12.770  10.741   5.010
85215SOL     OW57418   6.333   6.129   3.896
85215SOL    HW157419   6.250   6.122   3.849
85215SOL    HW257420   6.345   6.223   3.910
85216SOL     OW57421   4.332   9.356  12.168
85216SOL    HW157422   4.311   9.304  12.245
85216SOL    HW257423   4.365   9.439  12.203
85217SOL     OW57424   5.126  14.792   8.613
85217SOL    HW157425   5.072  14.720   8.645
85217SOL    HW257426   5.068  14.842   8.556
85218SOL     OW57427   8.043  14.414  13.152
85218SOL    HW157428   8.065  14.417  13.058
85218SOL    HW257429   8.128  14.406  13.196
85219SOL     OW57430   2.565  13.288  11.049
85219SOL    HW157431   2.505  13.343  10.999
85219SOL    HW257432   2.521  13.204  11.057
85220SOL     OW57433  10.985  12.778  12.406
85220SOL    HW157434  10.938  12.743  12.481
85220SOL    HW257435  11.045  12.708  12.381
85221SOL     OW57436   4.994   5.850   3.006
85221SOL    HW157437   4.961   5.766   3.036
85221SOL    HW257438   4.942   5.871   2.928
85222SOL     OW57439   0.661   9.681  14.351
85222SOL    HW157440   0.604   9.702  14.425
85222SOL    HW257441   0.702   9.764  14.329
85223SOL     OW57442   1.325   3.679   7.388
85223SOL    HW157443   1.336   3.752   7.449
85223SOL    HW257444   1.402   3.624   7.403
85224SOL     OW57445   3.198   1.279   9.385
85224SOL    HW157446   3.140   1.210   9.354
85224SOL    HW257447   3.154   1.360   9.362
85225SOL     OW57448   9.760   1.737   1.272
85225SOL    HW157449   9.681   1.688   1.250
85225SOL    HW257450   9.746   1.765   1.363
85226SOL     OW57451  11.863  10.053   2.616
85226SOL    HW157452  11.913  10.132   2.636
85226SOL    HW257453  11.783  10.061   2.668
85227SOL     OW57454   1.230  12.906   1.713
85227SOL    HW157455   1.296  12.840   1.693
85227SOL    HW257456   1.231  12.911   1.809
85228SOL     OW57457   9.191  11.917   1.510
85228SOL    HW157458   9.124  11.859   1.472
85228SOL    HW257459   9.267  11.860   1.522
85229SOL     OW57460   0.140   0.889   5.875
85229SOL    HW157461   0.192   0.924   5.947
85229SOL    HW257462   0.087   0.820   5.914
85230SOL     OW57463  12.867  13.697   5.919
85230SOL    HW157464  12.948  13.727   5.960
85230SOL    HW257465  12.811  13.669   5.992
85231SOL     OW57466  12.823   6.021   7.000
85231SOL    HW157467  12.811   6.089   6.935
85231SOL    HW257468  12.738   5.977   7.005
85232SOL     OW57469   8.454  12.949  12.250
85232SOL    HW157470   8.378  12.998  12.280
85232SOL    HW257471   8.521  12.966  12.316
85233SOL     OW57472  10.009  13.872   1.842
85233SOL    HW157473   9.994  13.781   1.817
85233SOL    HW257474   9.940  13.891   1.906
85234SOL     OW57475   1.433   6.642   7.367
85234SOL    HW157476   1.452   6.570   7.429
85234SOL    HW257477   1.359   6.610   7.316
85235SOL     OW57478   0.858  10.203  10.918
85235SOL    HW157479   0.882  10.261  10.846
85235SOL    HW257480   0.938  10.156  10.939
85236SOL     OW57481   2.656   3.482  13.527
85236SOL    HW157482   2.700   3.440  13.601
85236SOL    HW257483   2.609   3.411  13.483
85237SOL     OW57484   4.767  11.143  13.189
85237SOL    HW157485   4.742  11.099  13.270
85237SOL    HW257486   4.779  11.072  13.126
85238SOL     OW57487   1.822  10.308  13.943
85238SOL    HW157488   1.823  10.215  13.918
85238SOL    HW257489   1.901  10.319  13.997
85239SOL     OW57490   5.882   6.740  12.267
85239SOL    HW157491   5.878   6.650  12.299
85239SOL    HW257492   5.959   6.741  12.211
85240SOL     OW57493   3.094   4.436   1.276
85240SOL    HW157494   3.003   4.440   1.245
85240SOL    HW257495   3.146   4.424   1.197
85241SOL     OW57496   9.716   1.895   8.583
85241SOL    HW157497   9.753   1.857   8.663
85241SOL    HW257498   9.753   1.983   8.579
85242SOL     OW57499   2.548   2.698   4.059
85242SOL    HW157500   2.617   2.739   4.111
85242SOL    HW257501   2.591   2.674   3.977
85243SOL     OW57502   9.506   5.694  13.166
85243SOL    HW157503   9.437   5.756  13.144
85243SOL    HW257504   9.514   5.699  13.261
85244SOL     OW57505  10.055   1.070  13.410
85244SOL    HW157506  10.014   1.156  13.399
85244SOL    HW257507   9.984   1.008  13.397
85245SOL     OW57508   1.690   1.415   8.666
85245SOL    HW157509   1.662   1.333   8.708
85245SOL    HW257510   1.763   1.389   8.609
85246SOL     OW57511  10.451   6.649  14.027
85246SOL    HW157512  10.404   6.677  14.106
85246SOL    HW257513  10.472   6.557  14.043
85247SOL     OW57514   3.981   2.363   5.876
85247SOL    HW157515   3.971   2.449   5.837
85247SOL    HW257516   3.948   2.302   5.810
85248SOL     OW57517   1.404   3.877   2.166
85248SOL    HW157518   1.337   3.933   2.128
85248SOL    HW257519   1.441   3.830   2.092
85249SOL     OW57520   5.335  13.868   1.076
85249SOL    HW157521   5.360  13.856   0.985
85249SOL    HW257522   5.407  13.831   1.126
85250SOL     OW57523   5.930   2.411   7.584
85250SOL    HW157524   5.961   2.495   7.617
85250SOL    HW257525   5.836   2.411   7.601
85251SOL     OW57526  11.778  10.724  11.408
85251SOL    HW157527  11.792  10.634  11.378
85251SOL    HW257528  11.701  10.719  11.464
85252SOL     OW57529   7.823  14.394   7.587
85252SOL    HW157530   7.783  14.423   7.669
85252SOL    HW257531   7.790  14.305   7.574
85253SOL     OW57532  12.634  12.304   8.371
85253SOL    HW157533  12.539  12.313   8.368
85253SOL    HW257534  12.657  12.264   8.287
85254SOL     OW57535  11.996   2.165   7.654
85254SOL    HW157536  11.905   2.180   7.626
85254SOL    HW257537  12.020   2.082   7.614
85255SOL     OW57538   4.337   7.027   3.896
85255SOL    HW157539   4.263   7.082   3.871
85255SOL    HW257540   4.365   7.062   3.981
85256SOL     OW57541  12.963   3.505   3.432
85256SOL    HW157542  12.927   3.444   3.367
85256SOL    HW257543  12.932   3.470   3.516
85257SOL     OW57544  13.755   8.472   7.199
85257SOL    HW157545  13.770   8.405   7.131
85257SOL    HW257546  13.661   8.469   7.215
85258SOL     OW57547  14.707   5.685   7.581
85258SOL    HW157548  14.754   5.626   7.640
85258SOL    HW257549  14.638   5.725   7.635
85259SOL     OW57550   9.124  10.224   0.094
85259SOL    HW157551   9.177  10.151   0.063
85259SOL    HW257552   9.034  10.192   0.089
85260SOL     OW57553   8.029   9.136   3.214
85260SOL    HW157554   8.020   9.052   3.259
85260SOL    HW257555   7.989   9.121   3.128
85261SOL     OW57556   0.499   5.520  11.559
85261SOL    HW157557   0.442   5.595  11.572
85261SOL    HW257558   0.472   5.482  11.476
85262SOL     OW57559   4.516   6.038   1.900
85262SOL    HW157560   4.436   5.986   1.890
85262SOL    HW257561   4.571   5.988   1.960
85263SOL     OW57562   3.399   4.789   1.285
85263SOL    HW157563   3.427   4.700   1.267
85263SOL    HW257564   3.324   4.780   1.343
85264SOL     OW57565   7.374   4.158  13.156
85264SOL    HW157566   7.341   4.073  13.128
85264SOL    HW257567   7.355   4.216  13.082
85265SOL     OW57568  12.897   8.625   7.381
85265SOL    HW157569  12.815   8.657   7.419
85265SOL    HW257570  12.956   8.700   7.386
85266SOL     OW57571   7.971  11.662   1.478
85266SOL    HW157572   7.923  11.647   1.559
85266SOL    HW257573   7.957  11.755   1.459
85267SOL     OW57574   1.061  12.205   6.695
85267SOL    HW157575   1.048  12.163   6.780
85267SOL    HW257576   1.054  12.299   6.713
85268SOL     OW57577   5.078  14.381   0.349
85268SOL    HW157578   5.012  14.339   0.294
85268SOL    HW257579   5.142  14.313   0.367
85269SOL     OW57580   1.224  14.558   7.123
85269SOL    HW157581   1.317  14.567   7.145
85269SOL    HW257582   1.221  14.481   7.066
85270SOL     OW57583   3.238   7.349   8.995
85270SOL    HW157584   3.217   7.414   9.062
85270SOL    HW257585   3.333   7.339   9.001
85271SOL     OW57586  12.082   4.079   6.290
85271SOL    HW157587  12.026   4.144   6.249
85271SOL    HW257588  12.021   4.018   6.332
85272SOL     OW57589   5.506   9.042  12.925
85272SOL    HW157590   5.547   9.089  12.998
85272SOL    HW257591   5.568   8.972  12.904
85273SOL     OW57592   2.649   2.438  13.926
85273SOL    HW157593   2.704   2.455  14.003
85273SOL    HW257594   2.630   2.345  13.930
85274SOL     OW57595  10.738  10.516   8.262
85274SOL    HW157596  10.682  10.441   8.280
85274SOL    HW257597  10.678  10.590   8.252
85275SOL     OW57598  12.961  14.756   2.012
85275SOL    HW157599  13.033  14.787   2.066
85275SOL    HW257600  12.890  14.818   2.028
85276SOL     OW57601   3.095   5.220   9.288
85276SOL    HW157602   3.058   5.163   9.220
85276SOL    HW257603   3.149   5.283   9.240
85277SOL     OW57604   2.296   9.532   9.047
85277SOL    HW157605   2.299   9.613   9.098
85277SOL    HW257606   2.205   9.524   9.019
85278SOL     OW57607  12.178   0.675  12.770
85278SOL    HW157608  12.231   0.636  12.840
85278SOL    HW257609  12.241   0.705  12.706
85279SOL     OW57610   6.850   6.950   0.560
85279SOL    HW157611   6.823   7.022   0.503
85279SOL    HW257612   6.814   6.973   0.646
85280SOL     OW57613  12.157   3.449   8.265
85280SOL    HW157614  12.253   3.454   8.262
85280SOL    HW257615  12.133   3.395   8.189
85281SOL     OW57616  11.409   4.537  12.988
85281SOL    HW157617  11.433   4.597  12.917
85281SOL    HW257618  11.479   4.472  12.989
85282SOL     OW57619  14.550   4.553   4.960
85282SOL    HW157620  14.569   4.541   5.053
85282SOL    HW257621  14.455   4.557   4.955
85283SOL     OW57622   6.304   4.849   1.985
85283SOL    HW157623   6.387   4.893   1.966
85283SOL    HW257624   6.269   4.825   1.900
85284SOL     OW57625   4.988   6.214   6.511
85284SOL    HW157626   5.054   6.275   6.479
85284SOL    HW257627   4.908   6.239   6.464
85285SOL     OW57628   4.749   7.828   5.838
85285SOL    HW157629   4.822   7.767   5.828
85285SOL    HW257630   4.697   7.816   5.759
85286SOL     OW57631   6.344  12.778   3.961
85286SOL    HW157632   6.321  12.823   4.042
85286SOL    HW257633   6.289  12.820   3.894
85287SOL     OW57634  11.266  12.965  14.220
85287SOL    HW157635  11.258  12.906  14.145
85287SOL    HW257636  11.179  13.004  14.229
85288SOL     OW57637   1.459  11.253   5.610
85288SOL    HW157638   1.479  11.163   5.636
85288SOL    HW257639   1.544  11.298   5.613
85289SOL     OW57640  10.103   6.935  13.338
85289SOL    HW157641  10.169   6.931  13.407
85289SOL    HW257642  10.026   6.974  13.380
85290SOL     OW57643   3.823  12.299   3.404
85290SOL    HW157644   3.913  12.304   3.437
85290SOL    HW257645   3.781  12.234   3.461
85291SOL     OW57646   7.642  12.985  12.759
85291SOL    HW157647   7.647  12.926  12.683
85291SOL    HW257648   7.709  13.051  12.743
85292SOL     OW57649  14.700   9.011   8.679
85292SOL    HW157650  14.784   9.056   8.663
85292SOL    HW257651  14.650   9.072   8.734
85293SOL     OW57652   5.969  10.242   2.735
85293SOL    HW157653   6.022  10.177   2.689
85293SOL    HW257654   5.952  10.310   2.670
85294SOL     OW57655  10.620   6.582   4.784
85294SOL    HW157656  10.673   6.574   4.864
85294SOL    HW257657  10.530   6.589   4.815
85295SOL     OW57658   5.986   7.187  13.991
85295SOL    HW157659   6.042   7.172  14.068
85295SOL    HW257660   5.982   7.282  13.983
85296SOL     OW57661   4.379  12.773   3.927
85296SOL    HW157662   4.455  12.813   3.968
85296SOL    HW257663   4.365  12.692   3.976
85297SOL     OW57664   5.714   2.055   7.838
85297SOL    HW157665   5.637   2.110   7.827
85297SOL    HW257666   5.776   2.086   7.771
85298SOL     OW57667  14.306   2.888   7.859
85298SOL    HW157668  14.261   2.865   7.777
85298SOL    HW257669  14.279   2.978   7.876
85299SOL     OW57670  13.679  12.347  10.844
85299SOL    HW157671  13.603  12.299  10.810
85299SOL    HW257672  13.710  12.399  10.769
85300SOL     OW57673   7.200  12.858  13.884
85300SOL    HW157674   7.248  12.924  13.933
85300SOL    HW257675   7.201  12.781  13.940
85301SOL     OW57676  10.851  11.659   1.546
85301SOL    HW157677  10.891  11.683   1.629
85301SOL    HW257678  10.785  11.594   1.569
85302SOL     OW57679   7.642   0.986   4.467
85302SOL    HW157680   7.589   0.955   4.541
85302SOL    HW257681   7.612   0.934   4.393
85303SOL     OW57682   8.340   2.551   0.899
85303SOL    HW157683   8.306   2.479   0.952
85303SOL    HW257684   8.268   2.615   0.897
85304SOL     OW57685   9.719   2.751   8.734
85304SOL    HW157686   9.749   2.667   8.699
85304SOL    HW257687   9.657   2.727   8.802
85305SOL     OW57688   1.216  14.628  11.084
85305SOL    HW157689   1.199  14.682  11.160
85305SOL    HW257690   1.151  14.558  11.088
85306SOL     OW57691  14.343   2.343  10.040
85306SOL    HW157692  14.327   2.411  10.105
85306SOL    HW257693  14.256   2.316  10.010
85307SOL     OW57694  13.180   7.389   5.847
85307SOL    HW157695  13.262   7.367   5.892
85307SOL    HW257696  13.124   7.426   5.916
85308SOL     OW57697  14.585   5.430  13.838
85308SOL    HW157698  14.661   5.423  13.780
85308SOL    HW257699  14.622   5.441  13.925
85309SOL     OW57700  11.537   5.743   6.095
85309SOL    HW157701  11.529   5.650   6.117
85309SOL    HW257702  11.457   5.783   6.130
85310SOL     OW57703  10.271   5.913   2.195
85310SOL    HW157704  10.356   5.876   2.171
85310SOL    HW257705  10.293   5.985   2.255
85311SOL     OW57706  10.853   6.455   8.746
85311SOL    HW157707  10.775   6.496   8.711
85311SOL    HW257708  10.874   6.385   8.684
85312SOL     OW57709  14.038   9.879   1.314
85312SOL    HW157710  14.094   9.830   1.253
85312SOL    HW257711  13.949   9.855   1.288
85313SOL     OW57712  14.300   4.115  10.199
85313SOL    HW157713  14.317   4.188  10.139
85313SOL    HW257714  14.387   4.076  10.214
85314SOL     OW57715  12.780   6.183   7.760
85314SOL    HW157716  12.690   6.189   7.730
85314SOL    HW257717  12.778   6.117   7.830
85315SOL     OW57718  14.334   3.244   3.454
85315SOL    HW157719  14.328   3.193   3.373
85315SOL    HW257720  14.246   3.241   3.491
85316SOL     OW57721   2.053  13.526   1.187
85316SOL    HW157722   2.118  13.492   1.126
85316SOL    HW257723   2.005  13.448   1.215
85317SOL     OW57724   5.152   2.916   0.604
85317SOL    HW157725   5.102   2.994   0.629
85317SOL    HW257726   5.226   2.914   0.665
85318SOL     OW57727  10.614   0.427   0.509
85318SOL    HW157728  10.529   0.442   0.549
85318SOL    HW257729  10.667   0.386   0.577
85319SOL     OW57730   7.519  11.146   5.867
85319SOL    HW157731   7.517  11.136   5.772
85319SOL    HW257732   7.566  11.068   5.897
85320SOL     OW57733   7.135   2.391  10.001
85320SOL    HW157734   7.145   2.416   9.909
85320SOL    HW257735   7.190   2.453  10.048
85321SOL     OW57736  10.826   4.912  11.617
85321SOL    HW157737  10.862   4.961  11.542
85321SOL    HW257738  10.805   4.826  11.581
85322SOL     OW57739   0.243   6.470   3.281
85322SOL    HW157740   0.165   6.426   3.316
85322SOL    HW257741   0.315   6.436   3.335
85323SOL     OW57742   7.071   3.972  14.087
85323SOL    HW157743   7.119   3.893  14.112
85323SOL    HW257744   7.133   4.043  14.100
85324SOL     OW57745   7.173  11.225   5.280
85324SOL    HW157746   7.164  11.150   5.340
85324SOL    HW257747   7.111  11.207   5.210
85325SOL     OW57748   8.343  13.014   3.298
85325SOL    HW157749   8.342  13.027   3.393
85325SOL    HW257750   8.404  12.941   3.284
85326SOL     OW57751   1.976  12.178   5.234
85326SOL    HW157752   2.017  12.263   5.248
85326SOL    HW257753   1.977  12.136   5.321
85327SOL     OW57754  11.546   0.685  13.191
85327SOL    HW157755  11.590   0.604  13.162
85327SOL    HW257756  11.616   0.738  13.229
85328SOL     OW57757  12.510  14.504   6.702
85328SOL    HW157758  12.526  14.584   6.752
85328SOL    HW257759  12.434  14.524   6.648
85329SOL     OW57760  13.186  14.081  11.168
85329SOL    HW157761  13.230  14.130  11.099
85329SOL    HW257762  13.249  14.077  11.239
85330SOL     OW57763  10.459   8.512  10.068
85330SOL    HW157764  10.531   8.469  10.022
85330SOL    HW257765  10.404   8.548   9.998
85331SOL     OW57766   5.951   6.115  11.819
85331SOL    HW157767   5.921   6.124  11.728
85331SOL    HW257768   5.901   6.181  11.867
85332SOL     OW57769   8.601   6.405   0.983
85332SOL    HW157770   8.602   6.327   1.039
85332SOL    HW257771   8.533   6.387   0.918
85333SOL     OW57772   6.519  13.652   7.000
85333SOL    HW157773   6.456  13.719   7.026
85333SOL    HW257774   6.537  13.603   7.081
85334SOL     OW57775   3.118   4.523  13.520
85334SOL    HW157776   3.116   4.434  13.486
85334SOL    HW257777   3.168   4.516  13.602
85335SOL     OW57778   3.436   0.084   8.673
85335SOL    HW157779   3.354   0.127   8.694
85335SOL    HW257780   3.451   0.023   8.745
85336SOL     OW57781   5.773   3.220  13.590
85336SOL    HW157782   5.708   3.273  13.544
85336SOL    HW257783   5.785   3.143  13.534
85337SOL     OW57784  13.551   8.787   8.951
85337SOL    HW157785  13.468   8.801   8.995
85337SOL    HW257786  13.528   8.767   8.861
85338SOL     OW57787  10.159   6.195   5.496
85338SOL    HW157788  10.244   6.152   5.483
85338SOL    HW257789  10.167   6.239   5.581
85339SOL     OW57790   9.048   5.655   5.598
85339SOL    HW157791   9.125   5.712   5.593
85339SOL    HW257792   9.038   5.638   5.692
85340SOL     OW57793  12.661  12.865  12.553
85340SOL    HW157794  12.644  12.786  12.604
85340SOL    HW257795  12.585  12.921  12.568
85341SOL     OW57796   2.753   7.339  13.023
85341SOL    HW157797   2.703   7.281  12.965
85341SOL    HW257798   2.820   7.378  12.967
85342SOL     OW57799   8.964   1.175   0.920
85342SOL    HW157800   8.945   1.240   0.852
85342SOL    HW257801   9.030   1.216   0.976
85343SOL     OW57802   8.731   6.750   3.941
85343SOL    HW157803   8.807   6.764   3.998
85343SOL    HW257804   8.660   6.730   4.001
85344SOL     OW57805   7.796   9.365   4.017
85344SOL    HW157806   7.807   9.445   3.966
85344SOL    HW257807   7.709   9.333   3.994
85345SOL     OW57808  10.292   9.467   0.642
85345SOL    HW157809  10.288   9.465   0.738
85345SOL    HW257810  10.208   9.504   0.615
85346SOL     OW57811   4.941  13.369  11.436
85346SOL    HW157812   4.952  13.440  11.372
85346SOL    HW257813   4.907  13.411  11.514
85347SOL     OW57814   4.162   5.251   5.525
85347SOL    HW157815   4.215   5.171   5.528
85347SOL    HW257816   4.187   5.293   5.443
85348SOL     OW57817   1.188  11.766   7.291
85348SOL    HW157818   1.267  11.815   7.312
85348SOL    HW257819   1.219  11.694   7.235
85349SOL     OW57820  12.175   6.099  13.985
85349SOL    HW157821  12.213   6.158  14.050
85349SOL    HW257822  12.191   6.142  13.901
85350SOL     OW57823   3.891   1.369   4.425
85350SOL    HW157824   3.887   1.464   4.424
85350SOL    HW257825   3.954   1.348   4.494
85351SOL     OW57826   9.955   7.170   9.838
85351SOL    HW157827  10.003   7.235   9.786
85351SOL    HW257828   9.993   7.086   9.814
85352SOL     OW57829   8.448   1.315   9.440
85352SOL    HW157830   8.429   1.406   9.460
85352SOL    HW257831   8.423   1.267   9.519
85353SOL     OW57832   8.025   2.276   7.246
85353SOL    HW157833   7.982   2.284   7.332
85353SOL    HW257834   8.083   2.201   7.256
85354SOL     OW57835  14.686   2.457   4.187
85354SOL    HW157836  14.595   2.466   4.156
85354SOL    HW257837  14.678   2.415   4.272
85355SOL     OW57838   2.352   8.365   1.525
85355SOL    HW157839   2.282   8.380   1.461
85355SOL    HW257840   2.312   8.382   1.610
85356SOL     OW57841  10.790  14.474   0.124
85356SOL    HW157842  10.725  14.477   0.054
85356SOL    HW257843  10.781  14.387   0.162
85357SOL     OW57844   4.415   1.349   5.982
85357SOL    HW157845   4.450   1.301   6.057
85357SOL    HW257846   4.395   1.436   6.016
85358SOL     OW57847  14.429  12.629   5.793
85358SOL    HW157848  14.479  12.591   5.720
85358SOL    HW257849  14.491  12.687   5.837
85359SOL     OW57850   0.749   3.061  10.319
85359SOL    HW157851   0.761   3.084  10.227
85359SOL    HW257852   0.733   3.144  10.363
85360SOL     OW57853   5.034   4.125  10.517
85360SOL    HW157854   5.121   4.090  10.533
85360SOL    HW257855   5.041   4.170  10.433
85361SOL     OW57856  11.686   5.541   3.206
85361SOL    HW157857  11.605   5.489   3.205
85361SOL    HW257858  11.687   5.582   3.293
85362SOL     OW57859   3.153   2.795   6.446
85362SOL    HW157860   3.068   2.817   6.484
85362SOL    HW257861   3.189   2.728   6.505
85363SOL     OW57862   5.201   3.836   1.971
85363SOL    HW157863   5.214   3.912   1.915
85363SOL    HW257864   5.247   3.765   1.927
85364SOL     OW57865   1.700   0.340   4.727
85364SOL    HW157866   1.781   0.361   4.682
85364SOL    HW257867   1.634   0.340   4.658
85365SOL     OW57868  10.953   8.406   2.200
85365SOL    HW157869  11.031   8.358   2.172
85365SOL    HW257870  10.880   8.352   2.169
85366SOL     OW57871   8.300   3.921   3.711
85366SOL    HW157872   8.322   3.861   3.782
85366SOL    HW257873   8.217   3.960   3.738
85367SOL     OW57874   9.067   1.650   2.100
85367SOL    HW157875   9.020   1.731   2.081
85367SOL    HW257876   9.011   1.581   2.065
85368SOL     OW57877   8.495   0.576   6.310
85368SOL    HW157878   8.581   0.590   6.348
85368SOL    HW257879   8.485   0.481   6.307
85369SOL     OW57880  11.649   8.909  14.814
85369SOL    HW157881  11.666   8.843   0.004
85369SOL    HW257882  11.556   8.931  14.825
85370SOL     OW57883   3.941   6.480   6.497
85370SOL    HW157884   3.959   6.408   6.557
85370SOL    HW257885   3.897   6.546   6.550
85371SOL     OW57886  11.948   4.840   2.932
85371SOL    HW157887  11.868   4.792   2.913
85371SOL    HW257888  12.009   4.775   2.964
85372SOL     OW57889   7.190   8.724   6.943
85372SOL    HW157890   7.247   8.656   6.906
85372SOL    HW257891   7.129   8.676   6.999
85373SOL     OW57892  11.429  10.780   3.272
85373SOL    HW157893  11.441  10.733   3.354
85373SOL    HW257894  11.430  10.712   3.205
85374SOL     OW57895   6.247  12.822   6.192
85374SOL    HW157896   6.314  12.813   6.260
85374SOL    HW257897   6.170  12.778   6.228
85375SOL     OW57898   6.133   1.898   4.979
85375SOL    HW157899   6.097   1.875   4.894
85375SOL    HW257900   6.104   1.828   5.038
85376SOL     OW57901   4.808   7.733   9.384
85376SOL    HW157902   4.712   7.733   9.388
85376SOL    HW257903   4.834   7.802   9.445
85377SOL     OW57904   3.407   8.282  13.475
85377SOL    HW157905   3.383   8.298  13.566
85377SOL    HW257906   3.328   8.303  13.425
85378SOL     OW57907   8.502  12.492  11.897
85378SOL    HW157908   8.558  12.507  11.973
85378SOL    HW257909   8.454  12.574  11.886
85379SOL     OW57910   5.395   5.341   2.070
85379SOL    HW157911   5.413   5.339   1.976
85379SOL    HW257912   5.354   5.256   2.089
85380SOL     OW57913  10.104  13.713   1.085
85380SOL    HW157914  10.168  13.783   1.074
85380SOL    HW257915  10.119  13.679   1.173
85381SOL     OW57916   0.198   0.110   5.513
85381SOL    HW157917   0.118   0.149   5.476
85381SOL    HW257918   0.176   0.019   5.528
85382SOL     OW57919   2.522  14.403   3.472
85382SOL    HW157920   2.501  14.487   3.513
85382SOL    HW257921   2.440  14.375   3.432
85383SOL     OW57922   6.715  14.541   8.771
85383SOL    HW157923   6.634  14.589   8.791
85383SOL    HW257924   6.749  14.516   8.857
85384SOL     OW57925  11.715   1.363  13.990
85384SOL    HW157926  11.771   1.440  13.995
85384SOL    HW257927  11.629   1.393  14.021
85385SOL     OW57928   2.960   3.015   7.275
85385SOL    HW157929   2.918   2.937   7.311
85385SOL    HW257930   2.938   3.015   7.182
85386SOL     OW57931  13.374   3.105   0.228
85386SOL    HW157932  13.333   3.058   0.301
85386SOL    HW257933  13.459   3.063   0.217
85387SOL     OW57934   7.788   9.330   5.815
85387SOL    HW157935   7.731   9.254   5.821
85387SOL    HW257936   7.830   9.322   5.730
85388SOL     OW57937  12.523  10.274   8.262
85388SOL    HW157938  12.610  10.297   8.294
85388SOL    HW257939  12.504  10.189   8.302
85389SOL     OW57940  11.127   0.822   8.865
85389SOL    HW157941  11.200   0.763   8.846
85389SOL    HW257942  11.063   0.804   8.796
85390SOL     OW57943  12.556   9.609   3.150
85390SOL    HW157944  12.467   9.589   3.178
85390SOL    HW257945  12.545   9.665   3.073
85391SOL     OW57946  11.588   8.348   1.945
85391SOL    HW157947  11.598   8.253   1.948
85391SOL    HW257948  11.642   8.380   2.017
85392SOL     OW57949   6.531  13.945   3.816
85392SOL    HW157950   6.569  14.034   3.817
85392SOL    HW257951   6.491  13.938   3.730
85393SOL     OW57952   0.697  13.375   9.909
85393SOL    HW157953   0.709  13.417   9.994
85393SOL    HW257954   0.783  13.336   9.890
85394SOL     OW57955   9.214   5.000   1.848
85394SOL    HW157956   9.251   5.061   1.912
85394SOL    HW257957   9.176   4.930   1.901
85395SOL     OW57958   9.074  13.626   1.186
85395SOL    HW157959   9.150  13.590   1.231
85395SOL    HW257960   8.999  13.577   1.223
85396SOL     OW57961   4.049   4.985  10.370
85396SOL    HW157962   3.998   4.948  10.442
85396SOL    HW257963   4.057   5.078  10.390
85397SOL     OW57964   2.522   7.117  12.157
85397SOL    HW157965   2.477   7.143  12.237
85397SOL    HW257966   2.605   7.164  12.159
85398SOL     OW57967   0.895   0.294   9.505
85398SOL    HW157968   0.983   0.284   9.543
85398SOL    HW257969   0.849   0.350   9.566
85399SOL     OW57970   2.374   3.218   1.593
85399SOL    HW157971   2.361   3.302   1.638
85399SOL    HW257972   2.292   3.203   1.547
85400SOL     OW57973  13.926  14.064  11.287
85400SOL    HW157974  13.893  14.085  11.375
85400SOL    HW257975  13.904  13.972  11.275
85401SOL     OW57976  11.179  12.041  12.013
85401SOL    HW157977  11.155  11.948  12.016
85401SOL    HW257978  11.130  12.080  12.086
85402SOL     OW57979   4.531  12.850   8.962
85402SOL    HW157980   4.457  12.911   8.960
85402SOL    HW257981   4.558  12.849   9.054
85403SOL     OW57982   8.861  13.842   9.016
85403SOL    HW157983   8.864  13.907   8.946
85403SOL    HW257984   8.907  13.883   9.089
85404SOL     OW57985   6.347  10.841   1.184
85404SOL    HW157986   6.298  10.920   1.159
85404SOL    HW257987   6.438  10.870   1.189
85405SOL     OW57988   9.909   5.963  12.201
85405SOL    HW157989   9.984   6.013  12.172
85405SOL    HW257990   9.927   5.873  12.172
85406SOL     OW57991  14.793   6.208  11.660
85406SOL    HW157992  14.698   6.212  11.650
85406SOL    HW257993  14.807   6.133  11.718
85407SOL     OW57994   3.436   1.029  13.924
85407SOL    HW157995   3.451   1.091  13.854
85407SOL    HW257996   3.480   0.949  13.896
85408SOL     OW57997  12.389   1.598   8.153
85408SOL    HW157998  12.445   1.619   8.227
85408SOL    HW257999  12.430   1.642   8.078
85409SOL     OW58000   1.066  12.580   0.326
85409SOL    HW158001   1.148  12.545   0.362
85409SOL    HW258002   1.061  12.670   0.359
85410SOL     OW58003   4.172  12.076   2.906
85410SOL    HW158004   4.155  11.991   2.945
85410SOL    HW258005   4.090  12.124   2.914
85411SOL     OW58006   7.203  13.453   8.663
85411SOL    HW158007   7.221  13.380   8.722
85411SOL    HW258008   7.194  13.529   8.721
85412SOL     OW58009  13.661  10.516   8.361
85412SOL    HW158010  13.607  10.437   8.361
85412SOL    HW258011  13.640  10.560   8.279
85413SOL     OW58012   7.050   8.446  13.288
85413SOL    HW158013   7.032   8.538  13.307
85413SOL    HW258014   7.023   8.399  13.367
85414SOL     OW58015   1.573   9.879   2.288
85414SOL    HW158016   1.534   9.921   2.364
85414SOL    HW258017   1.498   9.857   2.232
85415SOL     OW58018   5.968  10.692   7.332
85415SOL    HW158019   5.923  10.613   7.362
85415SOL    HW258020   6.061  10.672   7.340
85416SOL     OW58021  12.799  13.931   0.428
85416SOL    HW158022  12.719  13.935   0.480
85416SOL    HW258023  12.833  13.843   0.443
85417SOL     OW58024   7.205  14.278   6.299
85417SOL    HW158025   7.280  14.303   6.245
85417SOL    HW258026   7.209  14.338   6.374
85418SOL     OW58027  12.597   9.102   8.191
85418SOL    HW158028  12.689   9.080   8.184
85418SOL    HW258029  12.580   9.109   8.285
85419SOL     OW58030   1.267   3.755   5.363
85419SOL    HW158031   1.330   3.689   5.391
85419SOL    HW258032   1.305   3.838   5.394
85420SOL     OW58033   8.295   4.363   5.764
85420SOL    HW158034   8.265   4.337   5.851
85420SOL    HW258035   8.376   4.410   5.780
85421SOL     OW58036   8.961   5.083  13.745
85421SOL    HW158037   8.981   5.165  13.700
85421SOL    HW258038   8.866   5.073  13.735
85422SOL     OW58039   8.313  14.371  13.878
85422SOL    HW158040   8.294  14.285  13.916
85422SOL    HW258041   8.382  14.353  13.814
85423SOL     OW58042  14.376   3.779  14.494
85423SOL    HW158043  14.438   3.811  14.428
85423SOL    HW258044  14.398   3.687  14.504
85424SOL     OW58045   9.449   6.217   3.338
85424SOL    HW158046   9.536   6.207   3.377
85424SOL    HW258047   9.397   6.146   3.376
85425SOL     OW58048   8.190  12.890   1.204
85425SOL    HW158049   8.256  12.822   1.192
85425SOL    HW258050   8.182  12.899   1.299
85426SOL     OW58051   4.142  11.337   0.525
85426SOL    HW158052   4.198  11.302   0.456
85426SOL    HW258053   4.110  11.420   0.490
85427SOL     OW58054  13.268   0.614  12.466
85427SOL    HW158055  13.331   0.685  12.476
85427SOL    HW258056  13.260   0.576  12.554
85428SOL     OW58057   3.108   0.935   3.379
85428SOL    HW158058   3.178   0.975   3.326
85428SOL    HW258059   3.111   0.842   3.356
85429SOL     OW58060   4.665   2.947  11.826
85429SOL    HW158061   4.758   2.945  11.852
85429SOL    HW258062   4.631   3.026  11.869
85430SOL     OW58063  13.219  10.863   2.305
85430SOL    HW158064  13.305  10.827   2.326
85430SOL    HW258065  13.192  10.816   2.226
85431SOL     OW58066   1.255   3.696   5.024
85431SOL    HW158067   1.177   3.701   4.969
85431SOL    HW258068   1.264   3.783   5.062
85432SOL     OW58069   0.765  11.912   8.634
85432SOL    HW158070   0.814  11.984   8.672
85432SOL    HW258071   0.783  11.918   8.540
85433SOL     OW58072  10.591   3.968   1.861
85433SOL    HW158073  10.517   3.907   1.866
85433SOL    HW258074  10.654   3.925   1.804
85434SOL     OW58075   8.658   8.317   1.825
85434SOL    HW158076   8.635   8.230   1.859
85434SOL    HW258077   8.600   8.331   1.751
85435SOL     OW58078   7.282   8.336   3.907
85435SOL    HW158079   7.218   8.290   3.962
85435SOL    HW258080   7.317   8.405   3.963
85436SOL     OW58081   3.799   4.751   6.497
85436SOL    HW158082   3.739   4.815   6.460
85436SOL    HW258083   3.743   4.681   6.529
85437SOL     OW58084   4.160   5.162   7.962
85437SOL    HW158085   4.156   5.178   8.057
85437SOL    HW258086   4.148   5.248   7.922
85438SOL     OW58087   1.393   7.554   6.276
85438SOL    HW158088   1.434   7.508   6.350
85438SOL    HW258089   1.385   7.487   6.208
85439SOL     OW58090  11.358   4.488   9.846
85439SOL    HW158091  11.267   4.492   9.876
85439SOL    HW258092  11.365   4.559   9.782
85440SOL     OW58093   3.458  11.373   1.999
85440SOL    HW158094   3.526  11.423   1.954
85440SOL    HW258095   3.506  11.319   2.062
85441SOL     OW58096  11.507   8.622   1.868
85441SOL    HW158097  11.539   8.532   1.862
85441SOL    HW258098  11.580   8.676   1.836
85442SOL     OW58099   3.113  13.133   3.886
85442SOL    HW158100   3.192  13.137   3.940
85442SOL    HW258101   3.121  13.206   3.825
85443SOL     OW58102   5.646   9.545  10.073
85443SOL    HW158103   5.569   9.494  10.098
85443SOL    HW258104   5.661   9.602  10.148
85444SOL     OW58105  12.118  12.161   2.052
85444SOL    HW158106  12.068  12.130   1.976
85444SOL    HW258107  12.180  12.091   2.071
85445SOL     OW58108  11.190   8.047   2.135
85445SOL    HW158109  11.234   8.025   2.218
85445SOL    HW258110  11.203   8.141   2.126
85446SOL     OW58111   8.387   8.099   6.379
85446SOL    HW158112   8.450   8.081   6.311
85446SOL    HW258113   8.435   8.086   6.461
85447SOL     OW58114  11.691   1.924   6.903
85447SOL    HW158115  11.670   1.953   6.814
85447SOL    HW258116  11.632   1.975   6.958
85448SOL     OW58117   3.645   2.206  12.499
85448SOL    HW158118   3.620   2.235  12.586
85448SOL    HW258119   3.703   2.274  12.466
85449SOL     OW58120   2.919   0.653   7.592
85449SOL    HW158121   2.911   0.674   7.685
85449SOL    HW258122   2.860   0.579   7.579
85450SOL     OW58123   8.971  13.426  13.138
85450SOL    HW158124   8.888  13.473  13.148
85450SOL    HW258125   8.950  13.335  13.160
85451SOL     OW58126   0.977   8.592   4.198
85451SOL    HW158127   1.015   8.530   4.261
85451SOL    HW258128   1.035   8.668   4.202
85452SOL     OW58129  13.270  14.371  14.262
85452SOL    HW158130  13.225  14.431  14.203
85452SOL    HW258131  13.216  14.369  14.341
85453SOL     OW58132  12.637   8.166   5.742
85453SOL    HW158133  12.670   8.150   5.830
85453SOL    HW258134  12.660   8.088   5.692
85454SOL     OW58135  10.955   4.296   1.411
85454SOL    HW158136  10.949   4.377   1.360
85454SOL    HW258137  11.036   4.304   1.461
85455SOL     OW58138   5.569   4.866   5.995
85455SOL    HW158139   5.608   4.794   6.045
85455SOL    HW258140   5.634   4.886   5.927
85456SOL     OW58141  14.193   9.087   6.045
85456SOL    HW158142  14.180   8.993   6.058
85456SOL    HW258143  14.224   9.095   5.955
85457SOL     OW58144  12.993   1.688   2.248
85457SOL    HW158145  13.024   1.751   2.182
85457SOL    HW258146  13.030   1.719   2.330
85458SOL     OW58147   9.482  10.235  11.499
85458SOL    HW158148   9.407  10.176  11.499
85458SOL    HW258149   9.446  10.321  11.480
85459SOL     OW58150  11.111  10.383   1.372
85459SOL    HW158151  11.083  10.466   1.333
85459SOL    HW258152  11.088  10.391   1.464
85460SOL     OW58153   4.308   3.082  12.513
85460SOL    HW158154   4.311   3.147  12.583
85460SOL    HW258155   4.330   3.131  12.433
85461SOL     OW58156   7.815  10.887   1.477
85461SOL    HW158157   7.766  10.935   1.543
85461SOL    HW258158   7.791  10.928   1.394
85462SOL     OW58159   5.984  13.728   1.223
85462SOL    HW158160   5.968  13.822   1.209
85462SOL    HW258161   6.075  13.723   1.250
85463SOL     OW58162   0.836   8.843  11.864
85463SOL    HW158163   0.755   8.855  11.914
85463SOL    HW258164   0.862   8.931  11.839
85464SOL     OW58165  10.664  14.797  12.407
85464SOL    HW158166  10.685  14.706  12.384
85464SOL    HW258167  10.668  14.798  12.503
85465SOL     OW58168  11.146  10.150   4.986
85465SOL    HW158169  11.111  10.176   4.900
85465SOL    HW258170  11.222  10.095   4.965
85466SOL     OW58171   5.045  13.896   8.939
85466SOL    HW158172   5.081  13.945   9.013
85466SOL    HW258173   4.951  13.899   8.952
85467SOL     OW58174  10.766  13.211  12.143
85467SOL    HW158175  10.743  13.186  12.232
85467SOL    HW258176  10.710  13.157  12.087
85468SOL     OW58177   9.766  14.854   0.864
85468SOL    HW158178   9.678  14.858   0.827
85468SOL    HW258179   9.753  14.867   0.958
85469SOL     OW58180   1.465   8.709   5.939
85469SOL    HW158181   1.453   8.734   6.031
85469SOL    HW258182   1.482   8.791   5.894
85470SOL     OW58183  14.672   1.651   7.111
85470SOL    HW158184  14.590   1.690   7.141
85470SOL    HW258185  14.704   1.711   7.043
85471SOL     OW58186   2.335   8.781   9.500
85471SOL    HW158187   2.345   8.839   9.575
85471SOL    HW258188   2.354   8.835   9.424
85472SOL     OW58189   6.512   7.895   2.081
85472SOL    HW158190   6.559   7.930   2.156
85472SOL    HW258191   6.569   7.828   2.045
85473SOL     OW58192  11.545   1.358   2.526
85473SOL    HW158193  11.485   1.307   2.580
85473SOL    HW258194  11.488   1.420   2.480
85474SOL     OW58195   0.264  14.853   2.143
85474SOL    HW158196   0.352  14.832   2.113
85474SOL    HW258197   0.278   0.026   2.224
85475SOL     OW58198  12.938   8.996  12.034
85475SOL    HW158199  12.843   8.985  12.036
85475SOL    HW258200  12.957   9.055  12.107
85476SOL     OW58201   1.714  10.267   0.808
85476SOL    HW158202   1.746  10.341   0.756
85476SOL    HW258203   1.624  10.255   0.778
85477SOL     OW58204   2.301   3.545   8.678
85477SOL    HW158205   2.313   3.640   8.679
85477SOL    HW258206   2.210   3.532   8.653
85478SOL     OW58207  12.305  14.362   3.431
85478SOL    HW158208  12.327  14.287   3.376
85478SOL    HW258209  12.218  14.389   3.401
85479SOL     OW58210  10.179  13.727   3.035
85479SOL    HW158211  10.156  13.743   3.127
85479SOL    HW258212  10.206  13.635   3.033
85480SOL     OW58213   9.586   6.054   9.672
85480SOL    HW158214   9.503   6.037   9.715
85480SOL    HW258215   9.562   6.089   9.586
85481SOL     OW58216   7.817   1.076   5.917
85481SOL    HW158217   7.725   1.103   5.918
85481SOL    HW258218   7.849   1.100   6.004
85482SOL     OW58219  10.441   5.550  13.232
85482SOL    HW158220  10.523   5.531  13.187
85482SOL    HW258221  10.464   5.615  13.299
85483SOL     OW58222   1.927  12.183   3.634
85483SOL    HW158223   1.886  12.188   3.547
85483SOL    HW258224   1.939  12.275   3.660
85484SOL     OW58225   6.340   7.299  10.437
85484SOL    HW158226   6.417   7.257  10.399
85484SOL    HW258227   6.290   7.228  10.476
85485SOL     OW58228   3.248   0.576   3.678
85485SOL    HW158229   3.215   0.559   3.767
85485SOL    HW258230   3.343   0.582   3.688
85486SOL     OW58231   9.295   9.841   8.294
85486SOL    HW158232   9.365   9.902   8.317
85486SOL    HW258233   9.269   9.803   8.378
85487SOL     OW58234  10.971   8.519   6.770
85487SOL    HW158235  11.024   8.518   6.690
85487SOL    HW258236  10.915   8.596   6.760
85488SOL     OW58237  12.555   9.775   0.200
85488SOL    HW158238  12.574   9.840   0.133
85488SOL    HW258239  12.562   9.691   0.154
85489SOL     OW58240   1.632   9.136  10.679
85489SOL    HW158241   1.649   9.057  10.730
85489SOL    HW258242   1.717   9.159  10.641
85490SOL     OW58243   9.730   9.684   6.751
85490SOL    HW158244   9.816   9.725   6.743
85490SOL    HW258245   9.669   9.752   6.724
85491SOL     OW58246  14.286  14.711  11.108
85491SOL    HW158247  14.284  14.672  11.196
85491SOL    HW258248  14.353  14.660  11.061
85492SOL     OW58249   5.348   3.274   3.818
85492SOL    HW158250   5.366   3.367   3.831
85492SOL    HW258251   5.293   3.270   3.740
85493SOL     OW58252   4.326  10.331   7.304
85493SOL    HW158253   4.329  10.238   7.285
85493SOL    HW258254   4.417  10.359   7.302
85494SOL     OW58255  14.409  13.517   2.195
85494SOL    HW158256  14.498  13.553   2.194
85494SOL    HW258257  14.364  13.567   2.262
85495SOL     OW58258   7.385   3.571  10.503
85495SOL    HW158259   7.358   3.480  10.517
85495SOL    HW258260   7.434   3.594  10.582
85496SOL     OW58261   9.402   1.080   1.217
85496SOL    HW158262   9.397   1.175   1.207
85496SOL    HW258263   9.374   1.045   1.133
85497SOL     OW58264   4.735  11.000   7.931
85497SOL    HW158265   4.744  10.956   7.846
85497SOL    HW258266   4.641  11.010   7.943
85498SOL     OW58267   8.458   7.335   4.658
85498SOL    HW158268   8.530   7.367   4.712
85498SOL    HW258269   8.380   7.344   4.713
85499SOL     OW58270   2.771   3.028   6.537
85499SOL    HW158271   2.853   3.079   6.534
85499SOL    HW258272   2.800   2.937   6.544
85500SOL     OW58273   5.207  14.855   6.647
85500SOL    HW158274   5.236   0.067   6.660
85500SOL    HW258275   5.209  14.816   6.734
85501SOL     OW58276   1.533  12.352   7.107
85501SOL    HW158277   1.500  12.441   7.112
85501SOL    HW258278   1.524  12.318   7.196
85502SOL     OW58279   4.634   2.485   5.686
85502SOL    HW158280   4.574   2.431   5.739
85502SOL    HW258281   4.709   2.501   5.744
85503SOL     OW58282   7.532  14.166  14.775
85503SOL    HW158283   7.504  14.242  14.725
85503SOL    HW258284   7.463  14.101  14.762
85504SOL     OW58285   4.424   4.773   5.434
85504SOL    HW158286   4.429   4.824   5.353
85504SOL    HW258287   4.491   4.812   5.490
85505SOL     OW58288  14.526  12.563   3.959
85505SOL    HW158289  14.574  12.481   3.965
85505SOL    HW258290  14.451  12.552   4.017
85506SOL     OW58291   2.566   6.333  11.485
85506SOL    HW158292   2.590   6.287  11.405
85506SOL    HW258293   2.559   6.424  11.459
85507SOL     OW58294   8.814   7.243   0.513
85507SOL    HW158295   8.829   7.169   0.572
85507SOL    HW258296   8.776   7.311   0.570
85508SOL     OW58297   2.939   4.172   2.032
85508SOL    HW158298   2.964   4.244   2.091
85508SOL    HW258299   2.854   4.199   1.997
85509SOL     OW58300  12.994   7.065   1.564
85509SOL    HW158301  13.049   6.987   1.563
85509SOL    HW258302  13.038   7.125   1.624
85510SOL     OW58303   8.925   6.581  13.328
85510SOL    HW158304   8.981   6.613  13.399
85510SOL    HW258305   8.858   6.649  13.319
85511SOL     OW58306  14.196   6.267   9.372
85511SOL    HW158307  14.178   6.355   9.338
85511SOL    HW258308  14.172   6.209   9.300
85512SOL     OW58309   8.138   3.872  11.012
85512SOL    HW158310   8.201   3.940  11.038
85512SOL    HW258311   8.101   3.841  11.094
85513SOL     OW58312   4.771   4.708  13.686
85513SOL    HW158313   4.733   4.743  13.766
85513SOL    HW258314   4.777   4.614  13.701
85514SOL     OW58315   4.890  13.227   6.161
85514SOL    HW158316   4.916  13.210   6.071
85514SOL    HW258317   4.950  13.296   6.190
85515SOL     OW58318   2.556  10.046   6.566
85515SOL    HW158319   2.494  10.016   6.633
85515SOL    HW258320   2.502  10.094   6.503
85516SOL     OW58321  12.449   2.440   8.000
85516SOL    HW158322  12.443   2.468   8.091
85516SOL    HW258323  12.540   2.412   7.990
85517SOL     OW58324   1.088   0.791   5.315
85517SOL    HW158325   1.169   0.749   5.345
85517SOL    HW258326   1.117   0.872   5.273
85518SOL     OW58327  12.086   0.832  12.279
85518SOL    HW158328  12.011   0.887  12.258
85518SOL    HW258329  12.157   0.894  12.296
85519SOL     OW58330   6.599   8.816   3.816
85519SOL    HW158331   6.585   8.887   3.754
85519SOL    HW258332   6.693   8.819   3.834
85520SOL     OW58333   7.795  12.356   0.544
85520SOL    HW158334   7.877  12.384   0.583
85520SOL    HW258335   7.741  12.327   0.618
85521SOL     OW58336  11.121  10.077   1.906
85521SOL    HW158337  11.208  10.103   1.875
85521SOL    HW258338  11.075  10.052   1.826
85522SOL     OW58339   1.662   3.808   0.976
85522SOL    HW158340   1.700   3.720   0.976
85522SOL    HW258341   1.568   3.793   0.988
85523SOL     OW58342   3.122   1.108   7.401
85523SOL    HW158343   3.140   1.015   7.410
85523SOL    HW258344   3.068   1.115   7.323
85524SOL     OW58345   2.441  10.570   3.611
85524SOL    HW158346   2.502  10.532   3.674
85524SOL    HW258347   2.378  10.499   3.593
85525SOL     OW58348   1.462   2.211   1.324
85525SOL    HW158349   1.474   2.166   1.408
85525SOL    HW258350   1.445   2.302   1.348
85526SOL     OW58351  14.739  14.171   1.528
85526SOL    HW158352  14.738  14.129   1.442
85526SOL    HW258353  14.731  14.264   1.509
85527SOL     OW58354  13.702  11.709   3.472
85527SOL    HW158355  13.660  11.623   3.471
85527SOL    HW258356  13.739  11.716   3.560
85528SOL     OW58357   7.681   1.259   4.444
85528SOL    HW158358   7.645   1.170   4.441
85528SOL    HW258359   7.614   1.309   4.491
85529SOL     OW58360   5.019  10.689   5.377
85529SOL    HW158361   5.099  10.660   5.421
85529SOL    HW258362   5.050  10.747   5.307
85530SOL     OW58363  12.588  14.378   7.111
85530SOL    HW158364  12.638  14.442   7.061
85530SOL    HW258365  12.603  14.295   7.065
85531SOL     OW58366   4.120   7.180   4.276
85531SOL    HW158367   4.147   7.243   4.343
85531SOL    HW258368   4.048   7.131   4.317
85532SOL     OW58369  11.310  10.783  12.384
85532SOL    HW158370  11.388  10.733  12.360
85532SOL    HW258371  11.295  10.761  12.476
85533SOL     OW58372   4.353   0.871  14.755
85533SOL    HW158373   4.352   0.837  14.665
85533SOL    HW258374   4.411   0.812  14.803
85534SOL     OW58375   2.951   0.401   8.110
85534SOL    HW158376   3.005   0.336   8.156
85534SOL    HW258377   2.909   0.351   8.040
85535SOL     OW58378   9.180  14.048  11.377
85535SOL    HW158379   9.179  14.041  11.473
85535SOL    HW258380   9.123  14.123  11.358
85536SOL     OW58381   4.393  12.308   4.944
85536SOL    HW158382   4.357  12.220   4.935
85536SOL    HW258383   4.476  12.304   4.896
85537SOL     OW58384  10.719  14.600   0.741
85537SOL    HW158385  10.766  14.636   0.666
85537SOL    HW258386  10.628  14.592   0.712
85538SOL     OW58387  14.301   1.911   8.327
85538SOL    HW158388  14.394   1.905   8.306
85538SOL    HW258389  14.294   1.875   8.415
85539SOL     OW58390  10.964   1.906   7.804
85539SOL    HW158391  10.942   1.917   7.712
85539SOL    HW258392  10.879   1.907   7.849
85540SOL     OW58393  14.089   7.520   1.176
85540SOL    HW158394  14.094   7.593   1.115
85540SOL    HW258395  14.072   7.444   1.121
85541SOL     OW58396   0.077   6.385   4.989
85541SOL    HW158397   0.017   6.344   4.927
85541SOL    HW258398   0.022   6.445   5.039
85542SOL     OW58399   8.774  14.072  11.093
85542SOL    HW158400   8.776  14.088  11.187
85542SOL    HW258401   8.845  14.126  11.058
85543SOL     OW58402  11.304   2.510  13.235
85543SOL    HW158403  11.226   2.558  13.264
85543SOL    HW258404  11.292   2.422  13.270
85544SOL     OW58405   0.302   3.039  14.546
85544SOL    HW158406   0.342   3.075  14.467
85544SOL    HW258407   0.241   3.106  14.575
85545SOL     OW58408   1.074  10.322  10.071
85545SOL    HW158409   1.122  10.351   9.994
85545SOL    HW258410   1.136  10.265  10.117
85546SOL     OW58411   8.238   9.197   4.435
85546SOL    HW158412   8.289   9.147   4.371
85546SOL    HW258413   8.148   9.192   4.402
85547SOL     OW58414   4.964   1.786   8.882
85547SOL    HW158415   5.030   1.855   8.882
85547SOL    HW258416   4.912   1.803   8.961
85548SOL     OW58417   9.176   6.414   2.316
85548SOL    HW158418   9.227   6.455   2.246
85548SOL    HW258419   9.203   6.322   2.314
85549SOL     OW58420   0.593   8.985   2.263
85549SOL    HW158421   0.601   9.033   2.346
85549SOL    HW258422   0.529   9.036   2.213
85550SOL     OW58423   1.951   4.651  14.197
85550SOL    HW158424   1.962   4.582  14.262
85550SOL    HW258425   2.022   4.713  14.215
85551SOL     OW58426   8.366   8.259   0.978
85551SOL    HW158427   8.387   8.270   0.885
85551SOL    HW258428   8.349   8.165   0.987
85552SOL     OW58429   9.351   3.206   3.584
85552SOL    HW158430   9.424   3.214   3.523
85552SOL    HW258431   9.336   3.112   3.593
85553SOL     OW58432  13.173  12.628  13.887
85553SOL    HW158433  13.149  12.659  13.800
85553SOL    HW258434  13.101  12.655  13.943
85554SOL     OW58435   6.285   2.457   2.217
85554SOL    HW158436   6.293   2.392   2.147
85554SOL    HW258437   6.226   2.524   2.182
85555SOL     OW58438  12.983   7.706   0.758
85555SOL    HW158439  12.984   7.743   0.847
85555SOL    HW258440  12.958   7.779   0.702
85556SOL     OW58441   2.053   9.083  14.062
85556SOL    HW158442   2.093   8.999  14.042
85556SOL    HW258443   2.112   9.122  14.127
85557SOL     OW58444  12.700  10.876   9.189
85557SOL    HW158445  12.767  10.933   9.224
85557SOL    HW258446  12.662  10.832   9.265
85558SOL     OW58447   2.958   9.795   8.601
85558SOL    HW158448   2.981   9.884   8.627
85558SOL    HW258449   2.871   9.802   8.563
85559SOL     OW58450   2.314  12.637  10.504
85559SOL    HW158451   2.278  12.664  10.419
85559SOL    HW258452   2.288  12.706  10.564
85560SOL     OW58453  11.184  14.298   9.599
85560SOL    HW158454  11.093  14.302   9.570
85560SOL    HW258455  11.224  14.229   9.546
85561SOL     OW58456  14.411   7.476   2.853
85561SOL    HW158457  14.386   7.500   2.764
85561SOL    HW258458  14.436   7.384   2.847
85562SOL     OW58459  11.120  10.728   6.429
85562SOL    HW158460  11.199  10.676   6.444
85562SOL    HW258461  11.073  10.680   6.361
85563SOL     OW58462   3.818  11.102  11.610
85563SOL    HW158463   3.751  11.034  11.609
85563SOL    HW258464   3.886  11.068  11.668
85564SOL     OW58465   3.748   9.118   2.304
85564SOL    HW158466   3.684   9.047   2.313
85564SOL    HW258467   3.697   9.194   2.277
85565SOL     OW58468  14.105   4.803  10.221
85565SOL    HW158469  14.155   4.850  10.154
85565SOL    HW258470  14.113   4.711  10.197
85566SOL     OW58471   2.227   2.265   8.817
85566SOL    HW158472   2.288   2.311   8.759
85566SOL    HW258473   2.242   2.172   8.799
85567SOL     OW58474   0.343  14.421  10.151
85567SOL    HW158475   0.360  14.502  10.200
85567SOL    HW258476   0.282  14.448  10.082
85568SOL     OW58477   9.847   1.615  13.520
85568SOL    HW158478   9.894   1.697  13.535
85568SOL    HW258479   9.817   1.621  13.429
85569SOL     OW58480  13.927   8.985   3.810
85569SOL    HW158481  13.884   9.067   3.836
85569SOL    HW258482  13.944   8.996   3.716
85570SOL     OW58483  14.584  13.284   9.585
85570SOL    HW158484  14.639  13.318   9.655
85570SOL    HW258485  14.588  13.350   9.517
85571SOL     OW58486  12.548   4.682  11.949
85571SOL    HW158487  12.583   4.719  12.030
85571SOL    HW258488  12.611   4.615  11.924
85572SOL     OW58489   3.785   1.245   7.445
85572SOL    HW158490   3.712   1.306   7.449
85572SOL    HW258491   3.855   1.287   7.495
85573SOL     OW58492  10.453   4.506  13.470
85573SOL    HW158493  10.409   4.586  13.439
85573SOL    HW258494  10.494   4.532  13.552
85574SOL     OW58495   7.488   2.487   6.064
85574SOL    HW158496   7.409   2.438   6.086
85574SOL    HW258497   7.492   2.486   5.969
85575SOL     OW58498   2.715  10.103   8.386
85575SOL    HW158499   2.703  10.157   8.464
85575SOL    HW258500   2.742  10.165   8.318
85576SOL     OW58501   0.927   6.752   3.150
85576SOL    HW158502   0.886   6.795   3.225
85576SOL    HW258503   0.915   6.659   3.167
85577SOL     OW58504  11.824   8.938   3.688
85577SOL    HW158505  11.795   9.029   3.702
85577SOL    HW258506  11.760   8.902   3.627
85578SOL     OW58507   8.961   5.533   1.206
85578SOL    HW158508   8.889   5.514   1.146
85578SOL    HW258509   8.968   5.455   1.261
85579SOL     OW58510   2.803   5.062  14.489
85579SOL    HW158511   2.745   5.046  14.415
85579SOL    HW258512   2.852   5.141  14.465
85580SOL     OW58513   6.624   1.082   4.082
85580SOL    HW158514   6.710   1.075   4.123
85580SOL    HW258515   6.566   1.111   4.153
85581SOL     OW58516   2.494   1.535   7.702
85581SOL    HW158517   2.587   1.527   7.725
85581SOL    HW258518   2.457   1.449   7.722
85582SOL     OW58519  11.892   5.888   3.322
85582SOL    HW158520  11.923   5.878   3.412
85582SOL    HW258521  11.810   5.840   3.318
85583SOL     OW58522   1.686  13.080  11.435
85583SOL    HW158523   1.747  13.045  11.501
85583SOL    HW258524   1.742  13.120  11.369
85584SOL     OW58525  11.836   3.577   1.795
85584SOL    HW158526  11.925   3.585   1.829
85584SOL    HW258527  11.844   3.520   1.718
85585SOL     OW58528   9.413   4.985   3.102
85585SOL    HW158529   9.371   5.018   3.023
85585SOL    HW258530   9.344   4.936   3.147
85586SOL     OW58531   7.875  12.717   1.459
85586SOL    HW158532   7.801  12.659   1.477
85586SOL    HW258533   7.852  12.800   1.501
85587SOL     OW58534   8.779   8.631   8.398
85587SOL    HW158535   8.784   8.688   8.475
85587SOL    HW258536   8.697   8.655   8.356
85588SOL     OW58537  13.295  11.034  12.288
85588SOL    HW158538  13.252  10.996  12.365
85588SOL    HW258539  13.363  11.090  12.324
85589SOL     OW58540   1.824  12.986  11.642
85589SOL    HW158541   1.893  12.920  11.636
85589SOL    HW258542   1.745  12.937  11.665
85590SOL     OW58543   9.161   2.467   6.871
85590SOL    HW158544   9.208   2.527   6.929
85590SOL    HW258545   9.221   2.452   6.798
85591SOL     OW58546  11.949  14.196   5.758
85591SOL    HW158547  11.925  14.167   5.846
85591SOL    HW258548  11.879  14.162   5.702
85592SOL     OW58549   5.097   1.582  14.005
85592SOL    HW158550   5.167   1.594  14.070
85592SOL    HW258551   5.110   1.653  13.942
85593SOL     OW58552   2.223  14.051  10.754
85593SOL    HW158553   2.192  14.039  10.844
85593SOL    HW258554   2.145  14.045  10.700
85594SOL     OW58555  12.494   0.688   2.974
85594SOL    HW158556  12.438   0.744   3.029
85594SOL    HW258557  12.506   0.739   2.893
85595SOL     OW58558  11.884   7.180  12.329
85595SOL    HW158559  11.949   7.126  12.284
85595SOL    HW258560  11.825   7.210  12.260
85596SOL     OW58561   5.921   2.363   5.976
85596SOL    HW158562   5.849   2.421   6.000
85596SOL    HW258563   5.969   2.350   6.058
85597SOL     OW58564   2.657   1.154  10.233
85597SOL    HW158565   2.660   1.213  10.309
85597SOL    HW258566   2.647   1.067  10.271
85598SOL     OW58567  11.119   7.995   7.077
85598SOL    HW158568  11.081   8.083   7.077
85598SOL    HW258569  11.046   7.937   7.057
85599SOL     OW58570   6.189   0.365   8.476
85599SOL    HW158571   6.279   0.355   8.447
85599SOL    HW258572   6.137   0.359   8.395
85600SOL     OW58573   2.628  12.084   6.686
85600SOL    HW158574   2.556  12.145   6.670
85600SOL    HW258575   2.588  11.997   6.682
85601SOL     OW58576  12.363   2.733   4.997
85601SOL    HW158577  12.413   2.760   5.075
85601SOL    HW258578  12.394   2.644   4.979
85602SOL     OW58579  13.998   5.692   8.110
85602SOL    HW158580  13.914   5.735   8.093
85602SOL    HW258581  14.064   5.751   8.074
85603SOL     OW58582   0.207  13.194   7.300
85603SOL    HW158583   0.261  13.115   7.302
85603SOL    HW258584   0.145  13.179   7.229
85604SOL     OW58585   8.972   0.959   3.397
85604SOL    HW158586   9.008   0.871   3.392
85604SOL    HW258587   8.878   0.947   3.411
85605SOL     OW58588   8.819  10.266  11.447
85605SOL    HW158589   8.912  10.256  11.468
85605SOL    HW258590   8.818  10.313  11.364
85606SOL     OW58591  13.985   7.397   0.821
85606SOL    HW158592  13.909   7.448   0.850
85606SOL    HW258593  13.947   7.321   0.777
85607SOL     OW58594   4.109  10.796  13.511
85607SOL    HW158595   4.092  10.705  13.488
85607SOL    HW258596   4.185  10.792  13.570
85608SOL     OW58597  11.750   5.740  11.361
85608SOL    HW158598  11.814   5.776  11.300
85608SOL    HW258599  11.665   5.770  11.327
85609SOL     OW58600  12.091   8.828   8.659
85609SOL    HW158601  12.144   8.903   8.687
85609SOL    HW258602  12.096   8.830   8.563
85610SOL     OW58603  11.088   5.034   5.826
85610SOL    HW158604  11.166   5.004   5.874
85610SOL    HW258605  11.028   4.959   5.829
85611SOL     OW58606  13.500   2.846  12.770
85611SOL    HW158607  13.488   2.941  12.763
85611SOL    HW258608  13.414   2.812  12.794
85612SOL     OW58609  13.705   2.464   6.981
85612SOL    HW158610  13.685   2.539   6.926
85612SOL    HW258611  13.659   2.391   6.940
85613SOL     OW58612   7.485  13.668   2.357
85613SOL    HW158613   7.484  13.654   2.262
85613SOL    HW258614   7.577  13.684   2.378
85614SOL     OW58615   9.105  13.074  14.849
85614SOL    HW158616   9.039  13.009  14.824
85614SOL    HW258617   9.070  13.157  14.816
85615SOL     OW58618  13.009  13.986   7.960
85615SOL    HW158619  12.972  14.041   8.029
85615SOL    HW258620  13.081  13.940   8.002
85616SOL     OW58621   3.618   8.865  14.524
85616SOL    HW158622   3.599   8.958  14.515
85616SOL    HW258623   3.629   8.835  14.434
85617SOL     OW58624   5.828   8.873   7.390
85617SOL    HW158625   5.817   8.790   7.438
85617SOL    HW258626   5.747   8.921   7.407
85618SOL     OW58627   1.551  12.848  10.947
85618SOL    HW158628   1.557  12.851  11.043
85618SOL    HW258629   1.460  12.871  10.928
85619SOL     OW58630  12.351   5.503  10.774
85619SOL    HW158631  12.317   5.421  10.809
85619SOL    HW258632  12.311   5.571  10.828
85620SOL     OW58633   2.856   7.549  12.451
85620SOL    HW158634   2.841   7.460  12.484
85620SOL    HW258635   2.893   7.596  12.526
85621SOL     OW58636  13.784  12.013   4.331
85621SOL    HW158637  13.826  12.050   4.409
85621SOL    HW258638  13.719  12.078   4.305
85622SOL     OW58639   5.929  13.602   0.364
85622SOL    HW158640   5.970  13.678   0.322
85622SOL    HW258641   6.001  13.541   0.379
85623SOL     OW58642  12.874   6.522  10.343
85623SOL    HW158643  12.873   6.603  10.293
85623SOL    HW258644  12.946   6.472  10.305
85624SOL     OW58645   7.515   6.299   5.218
85624SOL    HW158646   7.457   6.241   5.169
85624SOL    HW258647   7.473   6.385   5.212
85625SOL     OW58648  13.351   6.056   6.577
85625SOL    HW158649  13.405   6.000   6.521
85625SOL    HW258650  13.399   6.138   6.582
85626SOL     OW58651   1.312  13.106   9.863
85626SOL    HW158652   1.368  13.183   9.869
85626SOL    HW258653   1.328  13.058   9.944
85627SOL     OW58654   8.096   6.233   9.678
85627SOL    HW158655   8.028   6.256   9.742
85627SOL    HW258656   8.055   6.248   9.593
85628SOL     OW58657   1.667   3.471   6.261
85628SOL    HW158658   1.714   3.552   6.283
85628SOL    HW258659   1.643   3.434   6.346
85629SOL     OW58660   3.801   0.620   2.278
85629SOL    HW158661   3.874   0.559   2.281
85629SOL    HW258662   3.736   0.577   2.222
85630SOL     OW58663  11.912  13.840  10.506
85630SOL    HW158664  11.905  13.783  10.582
85630SOL    HW258665  11.832  13.893  10.508
85631SOL     OW58666   1.930  14.035   1.334
85631SOL    HW158667   2.015  14.047   1.291
85631SOL    HW258668   1.949  13.978   1.408
85632SOL     OW58669   4.104   9.222  13.417
85632SOL    HW158670   4.159   9.184  13.485
85632SOL    HW258671   4.157   9.219  13.338
85633SOL     OW58672  12.773   7.823  10.213
85633SOL    HW158673  12.844   7.813  10.149
85633SOL    HW258674  12.809   7.788  10.295
85634SOL     OW58675   9.061   1.622   1.308
85634SOL    HW158676   9.110   1.597   1.386
85634SOL    HW258677   9.087   1.712   1.290
85635SOL     OW58678  11.165   0.019   1.122
85635SOL    HW158679  11.114   0.081   1.174
85635SOL    HW258680  11.192  14.829   1.184
85636SOL     OW58681  12.677   7.377   7.978
85636SOL    HW158682  12.644   7.465   7.998
85636SOL    HW258683  12.743   7.361   8.046
85637SOL     OW58684  11.670   2.424   8.388
85637SOL    HW158685  11.711   2.509   8.371
85637SOL    HW258686  11.686   2.373   8.309
85638SOL     OW58687   9.490   1.613   5.512
85638SOL    HW158688   9.583   1.615   5.493
85638SOL    HW258689   9.467   1.705   5.529
85639SOL     OW58690  11.778   0.064  13.687
85639SOL    HW158691  11.852   0.019  13.646
85639SOL    HW258692  11.713   0.070  13.618
85640SOL     OW58693   2.636  12.686   2.789
85640SOL    HW158694   2.682  12.675   2.706
85640SOL    HW258695   2.555  12.731   2.766
85641SOL     OW58696   9.364  12.447   2.700
85641SOL    HW158697   9.389  12.489   2.782
85641SOL    HW258698   9.433  12.382   2.685
85642SOL     OW58699   8.716  11.637  12.282
85642SOL    HW158700   8.692  11.725  12.251
85642SOL    HW258701   8.692  11.637  12.375
85643SOL     OW58702   7.645   8.705   3.826
85643SOL    HW158703   7.735   8.681   3.850
85643SOL    HW258704   7.594   8.684   3.904
85644SOL     OW58705  10.962   4.723   8.408
85644SOL    HW158706  10.898   4.663   8.371
85644SOL    HW258707  10.966   4.796   8.345
85645SOL     OW58708   8.738  12.563   3.412
85645SOL    HW158709   8.652  12.560   3.455
85645SOL    HW258710   8.795  12.607   3.475
85646SOL     OW58711  13.394   7.139  10.825
85646SOL    HW158712  13.331   7.082  10.781
85646SOL    HW258713  13.367   7.228  10.800
85647SOL     OW58714   5.808   0.490   7.166
85647SOL    HW158715   5.786   0.583   7.156
85647SOL    HW258716   5.904   0.490   7.177
85648SOL     OW58717   0.767   9.467   3.875
85648SOL    HW158718   0.799   9.517   3.951
85648SOL    HW258719   0.721   9.392   3.914
85649SOL     OW58720   2.797   9.272   2.661
85649SOL    HW158721   2.885   9.273   2.700
85649SOL    HW258722   2.780   9.180   2.643
85650SOL     OW58723   3.370   3.564  11.579
85650SOL    HW158724   3.354   3.542  11.487
85650SOL    HW258725   3.424   3.643  11.575
85651SOL     OW58726  14.517  10.627  11.555
85651SOL    HW158727  14.601  10.645  11.597
85651SOL    HW258728  14.471  10.571  11.617
85652SOL     OW58729   2.751  11.586  10.300
85652SOL    HW158730   2.771  11.678  10.316
85652SOL    HW258731   2.679  11.566  10.360
85653SOL     OW58732  12.072  13.842  13.215
85653SOL    HW158733  12.048  13.749  13.222
85653SOL    HW258734  12.035  13.870  13.131
85654SOL     OW58735   1.820  10.966  13.751
85654SOL    HW158736   1.790  10.954  13.841
85654SOL    HW258737   1.741  10.958  13.698
85655SOL     OW58738   0.504  11.275   1.006
85655SOL    HW158739   0.495  11.369   0.997
85655SOL    HW258740   0.550  11.263   1.089
85656SOL     OW58741   0.445   7.474   3.115
85656SOL    HW158742   0.361   7.463   3.071
85656SOL    HW258743   0.422   7.488   3.207
85657SOL     OW58744   3.986   1.846   1.630
85657SOL    HW158745   4.047   1.785   1.589
85657SOL    HW258746   4.028   1.932   1.620
85658SOL     OW58747  13.774   1.122   7.969
85658SOL    HW158748  13.855   1.172   7.959
85658SOL    HW258749  13.740   1.115   7.880
85659SOL     OW58750   6.105   7.445   8.863
85659SOL    HW158751   6.104   7.480   8.774
85659SOL    HW258752   6.113   7.523   8.919
85660SOL     OW58753  10.229   9.618  10.000
85660SOL    HW158754  10.303   9.589  10.052
85660SOL    HW258755  10.184   9.537   9.975
85661SOL     OW58756   3.266  12.283  13.871
85661SOL    HW158757   3.241  12.283  13.963
85661SOL    HW258758   3.188  12.313  13.825
85662SOL     OW58759  14.130  10.900   1.482
85662SOL    HW158760  14.080  10.971   1.523
85662SOL    HW258761  14.109  10.823   1.535
85663SOL     OW58762   7.968   4.156   6.813
85663SOL    HW158763   8.062   4.144   6.804
85663SOL    HW258764   7.942   4.207   6.736
85664SOL     OW58765   2.259   5.769   6.070
85664SOL    HW158766   2.331   5.710   6.091
85664SOL    HW258767   2.190   5.745   6.132
85665SOL     OW58768  11.688  11.674   7.355
85665SOL    HW158769  11.765  11.629   7.388
85665SOL    HW258770  11.721  11.735   7.290
85666SOL     OW58771  11.044  10.244   0.229
85666SOL    HW158772  11.038  10.334   0.198
85666SOL    HW258773  11.112  10.246   0.296
85667SOL     OW58774   2.465  12.195  14.600
85667SOL    HW158775   2.418  12.198  14.683
85667SOL    HW258776   2.402  12.226  14.535
85668SOL     OW58777   7.389   8.743   3.707
85668SOL    HW158778   7.384   8.827   3.752
85668SOL    HW258779   7.472   8.705   3.736
85669SOL     OW58780   8.571   3.326   7.483
85669SOL    HW158781   8.481   3.359   7.494
85669SOL    HW258782   8.565   3.233   7.506
85670SOL     OW58783  13.031   4.090   6.172
85670SOL    HW158784  13.058   4.175   6.207
85670SOL    HW258785  13.109   4.054   6.131
85671SOL     OW58786   5.924  12.937  10.802
85671SOL    HW158787   6.019  12.932  10.810
85671SOL    HW258788   5.896  12.993  10.874
85672SOL     OW58789  12.600   8.178   9.017
85672SOL    HW158790  12.691   8.191   9.042
85672SOL    HW258791  12.593   8.084   9.000
85673SOL     OW58792   1.046  12.960   6.106
85673SOL    HW158793   1.069  12.895   6.172
85673SOL    HW258794   0.965  12.927   6.067
85674SOL     OW58795   8.329   4.747   0.126
85674SOL    HW158796   8.302   4.740   0.035
85674SOL    HW258797   8.396   4.679   0.136
85675SOL     OW58798  14.770  11.076   7.335
85675SOL    HW158799  14.845  11.093   7.279
85675SOL    HW258800  14.801  11.011   7.398
85676SOL     OW58801  12.590  12.489   9.426
85676SOL    HW158802  12.599  12.421   9.360
85676SOL    HW258803  12.586  12.571   9.376
85677SOL     OW58804   5.186   1.280   0.085
85677SOL    HW158805   5.093   1.288   0.062
85677SOL    HW258806   5.219   1.370   0.083
85678SOL     OW58807   3.567   5.865  12.385
85678SOL    HW158808   3.600   5.793  12.439
85678SOL    HW258809   3.636   5.881  12.321
85679SOL     OW58810   0.515  12.114   5.412
85679SOL    HW158811   0.494  12.037   5.359
85679SOL    HW258812   0.432  12.162   5.417
85680SOL     OW58813  11.332  10.323   2.352
85680SOL    HW158814  11.265  10.271   2.308
85680SOL    HW258815  11.337  10.287   2.441
85681SOL     OW58816   7.560   5.683   0.834
85681SOL    HW158817   7.564   5.763   0.887
85681SOL    HW258818   7.649   5.672   0.800
85682SOL     OW58819  11.223   7.785  10.010
85682SOL    HW158820  11.149   7.836   9.977
85682SOL    HW258821  11.296   7.808   9.952
85683SOL     OW58822  13.401  10.725   9.285
85683SOL    HW158823  13.420  10.740   9.192
85683SOL    HW258824  13.317  10.770   9.299
85684SOL     OW58825  10.633  11.748   1.433
85684SOL    HW158826  10.597  11.768   1.519
85684SOL    HW258827  10.719  11.711   1.451
85685SOL     OW58828  11.511   5.490   4.198
85685SOL    HW158829  11.597   5.522   4.172
85685SOL    HW258830  11.528   5.409   4.246
85686SOL     OW58831   9.832   4.446   4.110
85686SOL    HW158832   9.760   4.398   4.069
85686SOL    HW258833   9.910   4.395   4.087
85687SOL     OW58834   2.525   8.206  10.360
85687SOL    HW158835   2.555   8.242  10.443
85687SOL    HW258836   2.538   8.112  10.368
85688SOL     OW58837   6.196  12.025   4.094
85688SOL    HW158838   6.271  12.052   4.041
85688SOL    HW258839   6.122  12.023   4.033
85689SOL     OW58840   7.203   4.192   1.052
85689SOL    HW158841   7.160   4.263   1.101
85689SOL    HW258842   7.183   4.210   0.961
85690SOL     OW58843   8.792   2.708   5.716
85690SOL    HW158844   8.829   2.766   5.649
85690SOL    HW258845   8.868   2.661   5.752
85691SOL     OW58846   1.822   7.772   0.621
85691SOL    HW158847   1.808   7.680   0.643
85691SOL    HW258848   1.835   7.816   0.705
85692SOL     OW58849  13.346   1.869   3.067
85692SOL    HW158850  13.415   1.812   3.033
85692SOL    HW258851  13.268   1.814   3.072
85693SOL     OW58852   9.860   1.581  10.928
85693SOL    HW158853   9.861   1.514  10.860
85693SOL    HW258854   9.768   1.587  10.955
85694SOL     OW58855   3.729  11.922   2.320
85694SOL    HW158856   3.651  11.867   2.330
85694SOL    HW258857   3.792  11.885   2.382
85695SOL     OW58858   0.555   8.686   0.164
85695SOL    HW158859   0.621   8.719   0.104
85695SOL    HW258860   0.474   8.687   0.113
85696SOL     OW58861   7.130   2.830   2.776
85696SOL    HW158862   7.198   2.871   2.721
85696SOL    HW258863   7.141   2.871   2.862
85697SOL     OW58864   4.008   2.821  13.827
85697SOL    HW158865   3.916   2.833  13.805
85697SOL    HW258866   4.007   2.768  13.906
85698SOL     OW58867   3.000  11.870   6.431
85698SOL    HW158868   3.095  11.873   6.423
85698SOL    HW258869   2.979  11.778   6.443
85699SOL     OW58870  13.406   1.830   7.195
85699SOL    HW158871  13.345   1.768   7.234
85699SOL    HW258872  13.362   1.915   7.203
85700SOL     OW58873  13.375  11.017   1.994
85700SOL    HW158874  13.299  10.974   1.954
85700SOL    HW258875  13.429  11.043   1.920
85701SOL     OW58876   7.168   0.862   6.064
85701SOL    HW158877   7.241   0.897   6.115
85701SOL    HW258878   7.118   0.939   6.037
85702SOL     OW58879   0.399   8.392   7.397
85702SOL    HW158880   0.377   8.484   7.409
85702SOL    HW258881   0.315   8.350   7.376
85703SOL     OW58882   0.435   7.515   8.293
85703SOL    HW158883   0.347   7.553   8.289
85703SOL    HW258884   0.434   7.461   8.371
85704SOL     OW58885   6.508   0.692  14.223
85704SOL    HW158886   6.597   0.658  14.227
85704SOL    HW258887   6.463   0.651  14.297
85705SOL     OW58888  11.176   5.023   3.246
85705SOL    HW158889  11.204   4.955   3.307
85705SOL    HW258890  11.234   5.013   3.170
85706SOL     OW58891  14.861  12.500   4.078
85706SOL    HW158892  14.846  12.576   4.022
85706SOL    HW258893   0.072  12.511   4.112
85707SOL     OW58894  14.244  13.026   5.542
85707SOL    HW158895  14.293  12.945   5.530
85707SOL    HW258896  14.311  13.093   5.553
85708SOL     OW58897  12.520   0.314  13.926
85708SOL    HW158898  12.436   0.268  13.919
85708SOL    HW258899  12.498   0.397  13.970
85709SOL     OW58900   4.486   1.217  12.189
85709SOL    HW158901   4.456   1.165  12.263
85709SOL    HW258902   4.514   1.300  12.228
85710SOL     OW58903   4.401   3.564   5.279
85710SOL    HW158904   4.459   3.534   5.209
85710SOL    HW258905   4.348   3.632   5.239
85711SOL     OW58906   3.233  12.868  12.967
85711SOL    HW158907   3.140  12.892  12.977
85711SOL    HW258908   3.241  12.844  12.875
85712SOL     OW58909   3.535  10.895   5.464
85712SOL    HW158910   3.500  10.881   5.376
85712SOL    HW258911   3.524  10.989   5.479
85713SOL     OW58912   7.660   1.527  10.752
85713SOL    HW158913   7.746   1.490  10.771
85713SOL    HW258914   7.606   1.452  10.726
85714SOL     OW58915   4.571   7.142   2.352
85714SOL    HW158916   4.503   7.086   2.390
85714SOL    HW258917   4.608   7.189   2.427
85715SOL     OW58918  12.938   7.201  12.489
85715SOL    HW158919  13.000   7.169  12.554
85715SOL    HW258920  12.859   7.150  12.503
85716SOL     OW58921   3.830  14.485   4.077
85716SOL    HW158922   3.871  14.429   4.011
85716SOL    HW258923   3.883  14.564   4.080
85717SOL     OW58924   6.924  11.021   1.181
85717SOL    HW158925   6.943  11.106   1.142
85717SOL    HW258926   6.915  10.962   1.106
85718SOL     OW58927   9.856   8.472   2.337
85718SOL    HW158928   9.943   8.433   2.334
85718SOL    HW258929   9.870   8.561   2.370
85719SOL     OW58930   3.262   5.899   9.279
85719SOL    HW158931   3.350   5.927   9.305
85719SOL    HW258932   3.204   5.967   9.314
85720SOL     OW58933  10.080   9.568   6.025
85720SOL    HW158934  10.142   9.629   5.984
85720SOL    HW258935  10.028   9.535   5.953
85721SOL     OW58936  12.306  12.551   6.287
85721SOL    HW158937  12.383  12.599   6.317
85721SOL    HW258938  12.340  12.469   6.252
85722SOL     OW58939   9.974   9.845   6.430
85722SOL    HW158940   9.899   9.841   6.490
85722SOL    HW258941  10.038   9.899   6.476
85723SOL     OW58942   6.725   2.770   3.601
85723SOL    HW158943   6.638   2.747   3.633
85723SOL    HW258944   6.709   2.829   3.527
85724SOL     OW58945   2.303   3.691   7.411
85724SOL    HW158946   2.329   3.649   7.330
85724SOL    HW258947   2.237   3.755   7.384
85725SOL     OW58948   5.340   8.349   2.419
85725SOL    HW158949   5.355   8.441   2.397
85725SOL    HW258950   5.381   8.301   2.348
85726SOL     OW58951  12.732  12.052  12.999
85726SOL    HW158952  12.699  12.032  13.086
85726SOL    HW258953  12.767  11.969  12.967
85727SOL     OW58954  13.452   2.361   5.357
85727SOL    HW158955  13.363   2.335   5.332
85727SOL    HW258956  13.439   2.422   5.430
85728SOL     OW58957  12.968   5.150   9.256
85728SOL    HW158958  12.981   5.103   9.339
85728SOL    HW258959  12.977   5.243   9.279
85729SOL     OW58960   6.310   7.879  11.308
85729SOL    HW158961   6.262   7.813  11.259
85729SOL    HW258962   6.401   7.851  11.302
85730SOL     OW58963  13.845  12.521   4.138
85730SOL    HW158964  13.932  12.481   4.140
85730SOL    HW258965  13.790  12.457   4.092
85731SOL     OW58966   9.423   0.958   6.555
85731SOL    HW158967   9.512   0.932   6.577
85731SOL    HW258968   9.391   0.889   6.497
85732SOL     OW58969  14.797  14.366   7.579
85732SOL    HW158970  14.746  14.292   7.547
85732SOL    HW258971  14.732  14.423   7.621
85733SOL     OW58972   8.991   9.795   0.558
85733SOL    HW158973   8.952   9.860   0.499
85733SOL    HW258974   8.918   9.765   0.613
85734SOL     OW58975   4.181   4.885   9.383
85734SOL    HW158976   4.176   4.817   9.316
85734SOL    HW258977   4.100   4.935   9.373
85735SOL     OW58978   5.484  10.065   2.634
85735SOL    HW158979   5.426  10.029   2.567
85735SOL    HW258980   5.475  10.006   2.709
85736SOL     OW58981   6.551   6.865   2.747
85736SOL    HW158982   6.458   6.888   2.755
85736SOL    HW258983   6.598   6.942   2.778
85737SOL     OW58984  12.911  14.439  10.420
85737SOL    HW158985  12.910  14.448  10.515
85737SOL    HW258986  12.889  14.348  10.404
85738SOL     OW58987  14.292   3.192  10.971
85738SOL    HW158988  14.282   3.174  10.878
85738SOL    HW258989  14.387   3.197  10.984
85739SOL     OW58990   5.848  11.419  12.606
85739SOL    HW158991   5.899  11.491  12.644
85739SOL    HW258992   5.855  11.349  12.671
85740SOL     OW58993   7.778   0.583  10.883
85740SOL    HW158994   7.717   0.655  10.894
85740SOL    HW258995   7.862   0.618  10.913
85741SOL     OW58996   4.636  13.899   2.871
85741SOL    HW158997   4.640  13.934   2.960
85741SOL    HW258998   4.565  13.947   2.829
85742SOL     OW58999   7.961  11.167   2.154
85742SOL    HW159000   7.879  11.124   2.128
85742SOL    HW259001   8.013  11.096   2.192
85743SOL     OW59002   8.392   1.790  10.106
85743SOL    HW159003   8.381   1.707  10.154
85743SOL    HW259004   8.477   1.822  10.133
85744SOL     OW59005  13.388  14.182  14.073
85744SOL    HW159006  13.307  14.152  14.114
85744SOL    HW259007  13.434  14.229  14.142
85745SOL     OW59008  12.585   6.887  11.188
85745SOL    HW159009  12.602   6.793  11.197
85745SOL    HW259010  12.580   6.919  11.278
85746SOL     OW59011   4.479   4.320   5.469
85746SOL    HW159012   4.425   4.241   5.475
85746SOL    HW259013   4.556   4.292   5.419
85747SOL     OW59014  12.857  13.349   1.604
85747SOL    HW159015  12.821  13.415   1.545
85747SOL    HW259016  12.788  13.335   1.669
85748SOL     OW59017   8.341  13.329   1.562
85748SOL    HW159018   8.431  13.362   1.557
85748SOL    HW259019   8.288  13.406   1.583
85749SOL     OW59020   4.827  14.177   5.185
85749SOL    HW159021   4.770  14.178   5.261
85749SOL    HW259022   4.783  14.119   5.122
85750SOL     OW59023  10.179   4.769   1.050
85750SOL    HW159024  10.249   4.703   1.046
85750SOL    HW259025  10.200   4.821   1.128
85751SOL     OW59026   6.886   2.575   5.548
85751SOL    HW159027   6.940   2.554   5.472
85751SOL    HW259028   6.831   2.648   5.520
85752SOL     OW59029  12.476  12.463   3.323
85752SOL    HW159030  12.509  12.389   3.375
85752SOL    HW259031  12.551  12.520   3.311
85753SOL     OW59032   3.666   2.180   0.437
85753SOL    HW159033   3.717   2.107   0.472
85753SOL    HW259034   3.732   2.235   0.393
85754SOL     OW59035   6.146   1.295   8.476
85754SOL    HW159036   6.161   1.213   8.429
85754SOL    HW259037   6.091   1.269   8.551
85755SOL     OW59038  13.199   6.013   7.471
85755SOL    HW159039  13.243   5.973   7.546
85755SOL    HW259040  13.266   6.014   7.402
85756SOL     OW59041   6.257   2.128   2.936
85756SOL    HW159042   6.306   2.174   2.868
85756SOL    HW259043   6.241   2.041   2.898
85757SOL     OW59044   7.979   1.450  14.300
85757SOL    HW159045   7.902   1.398  14.279
85757SOL    HW259046   8.045   1.420  14.237
85758SOL     OW59047   6.219   3.414   5.917
85758SOL    HW159048   6.137   3.376   5.886
85758SOL    HW259049   6.236   3.487   5.858
85759SOL     OW59050   3.439   1.920   6.068
85759SOL    HW159051   3.514   1.965   6.029
85759SOL    HW259052   3.459   1.917   6.162
85760SOL     OW59053   1.413   4.805  14.699
85760SOL    HW159054   1.493   4.754  14.709
85760SOL    HW259055   1.433   4.866  14.628
85761SOL     OW59056   2.032   0.391   9.076
85761SOL    HW159057   2.094   0.462   9.093
85761SOL    HW259058   1.981   0.421   9.001
85762SOL     OW59059   7.784   5.105   0.515
85762SOL    HW159060   7.793   5.166   0.589
85762SOL    HW259061   7.690   5.104   0.497
85763SOL     OW59062   1.384  10.778   6.381
85763SOL    HW159063   1.382  10.810   6.471
85763SOL    HW259064   1.445  10.836   6.336
85764SOL     OW59065  13.848   8.904   2.085
85764SOL    HW159066  13.788   8.845   2.039
85764SOL    HW259067  13.838   8.882   2.177
85765SOL     OW59068   3.156   2.816   9.781
85765SOL    HW159069   3.172   2.875   9.707
85765SOL    HW259070   3.078   2.767   9.757
85766SOL     OW59071   3.518  13.161   6.777
85766SOL    HW159072   3.490  13.223   6.845
85766SOL    HW259073   3.437  13.133   6.735
85767SOL     OW59074   6.609  10.958  10.649
85767SOL    HW159075   6.590  10.895  10.719
85767SOL    HW259076   6.569  11.039  10.679
85768SOL     OW59077  13.341   1.728   3.504
85768SOL    HW159078  13.331   1.760   3.594
85768SOL    HW259079  13.252   1.711   3.474
85769SOL     OW59080   2.681  14.367   5.052
85769SOL    HW159081   2.650  14.299   4.992
85769SOL    HW259082   2.626  14.356   5.130
85770SOL     OW59083  11.097   3.733  12.505
85770SOL    HW159084  11.178   3.780  12.525
85770SOL    HW259085  11.066   3.703  12.590
85771SOL     OW59086   9.280  11.953   2.343
85771SOL    HW159087   9.236  11.983   2.264
85771SOL    HW259088   9.240  12.004   2.414
85772SOL     OW59089   2.999   8.718   8.953
85772SOL    HW159090   2.962   8.729   9.041
85772SOL    HW259091   3.017   8.624   8.946
85773SOL     OW59092  11.282  14.364   9.254
85773SOL    HW159093  11.192  14.370   9.223
85773SOL    HW259094  11.285  14.282   9.303
85774SOL     OW59095   8.236  14.530   3.365
85774SOL    HW159096   8.320  14.577   3.366
85774SOL    HW259097   8.261  14.438   3.351
85775SOL     OW59098  12.047   9.536   5.869
85775SOL    HW159099  12.042   9.604   5.801
85775SOL    HW259100  11.987   9.468   5.839
85776SOL     OW59101  12.150   6.055  10.728
85776SOL    HW159102  12.081   6.033  10.790
85776SOL    HW259103  12.105   6.068  10.645
85777SOL     OW59104  12.754  12.105   4.519
85777SOL    HW159105  12.792  12.071   4.438
85777SOL    HW259106  12.675  12.053   4.532
85778SOL     OW59107  14.837   8.610   1.507
85778SOL    HW159108  14.837   8.548   1.434
85778SOL    HW259109  14.772   8.676   1.482
85779SOL     OW59110  10.243  10.457   2.909
85779SOL    HW159111  10.183  10.408   2.965
85779SOL    HW259112  10.321  10.470   2.963
85780SOL     OW59113   0.693   2.682  13.685
85780SOL    HW159114   0.649   2.626  13.748
85780SOL    HW259115   0.773   2.710  13.728
85781SOL     OW59116  12.742   5.561   3.759
85781SOL    HW159117  12.807   5.609   3.708
85781SOL    HW259118  12.685   5.521   3.694
85782SOL     OW59119  13.504  11.881   1.444
85782SOL    HW159120  13.510  11.787   1.460
85782SOL    HW259121  13.539  11.891   1.355
85783SOL     OW59122  12.895  10.543  10.011
85783SOL    HW159123  12.810  10.520  10.049
85783SOL    HW259124  12.944  10.461  10.013
85784SOL     OW59125   4.946   8.730   0.306
85784SOL    HW159126   4.941   8.638   0.278
85784SOL    HW259127   4.855   8.759   0.308
85785SOL     OW59128  11.109   6.233  13.306
85785SOL    HW159129  11.186   6.235  13.249
85785SOL    HW259130  11.079   6.324  13.310
85786SOL     OW59131   3.074   9.535   2.640
85786SOL    HW159132   3.158   9.501   2.610
85786SOL    HW259133   3.036   9.464   2.692
85787SOL     OW59134  10.921  12.135   2.905
85787SOL    HW159135  10.983  12.156   2.974
85787SOL    HW259136  10.835  12.156   2.942
85788SOL     OW59137   6.814   3.900   2.944
85788SOL    HW159138   6.829   3.869   2.855
85788SOL    HW259139   6.851   3.831   3.000
85789SOL     OW59140  13.522  12.832   9.338
85789SOL    HW159141  13.539  12.744   9.371
85789SOL    HW259142  13.530  12.825   9.243
85790SOL     OW59143  14.820   9.239   8.044
85790SOL    HW159144  14.781   9.305   8.101
85790SOL    HW259145  14.753   9.221   7.979
85791SOL     OW59146   1.180   8.763  13.632
85791SOL    HW159147   1.155   8.722  13.549
85791SOL    HW259148   1.139   8.849  13.630
85792SOL     OW59149  10.260   2.588   7.198
85792SOL    HW159150  10.169   2.620   7.191
85792SOL    HW259151  10.299   2.607   7.113
85793SOL     OW59152   5.639  10.556  11.910
85793SOL    HW159153   5.560  10.514  11.877
85793SOL    HW259154   5.702  10.484  11.921
85794SOL     OW59155   1.349  13.939  12.268
85794SOL    HW159156   1.409  13.884  12.319
85794SOL    HW259157   1.384  14.027  12.277
85795SOL     OW59158  12.722   5.169   2.698
85795SOL    HW159159  12.724   5.107   2.771
85795SOL    HW259160  12.628   5.183   2.681
85796SOL     OW59161   8.153   0.091   5.025
85796SOL    HW159162   8.212   0.166   5.017
85796SOL    HW259163   8.067   0.127   5.003
85797SOL     OW59164   5.694   2.724   5.668
85797SOL    HW159165   5.612   2.774   5.667
85797SOL    HW259166   5.667   2.634   5.650
85798SOL     OW59167   6.499   2.677  11.832
85798SOL    HW159168   6.569   2.719  11.882
85798SOL    HW259169   6.501   2.585  11.860
85799SOL     OW59170   6.051  11.474  13.482
85799SOL    HW159171   5.980  11.433  13.531
85799SOL    HW259172   6.106  11.514  13.550
85800SOL     OW59173   4.885   4.976   6.234
85800SOL    HW159174   4.834   5.040   6.283
85800SOL    HW259175   4.900   4.905   6.296
85801SOL     OW59176  12.916   2.032   6.207
85801SOL    HW159177  12.934   2.063   6.295
85801SOL    HW259178  12.976   1.959   6.193
85802SOL     OW59179   1.812   1.211  14.630
85802SOL    HW159180   1.887   1.175  14.677
85802SOL    HW259181   1.850   1.264  14.560
85803SOL     OW59182   5.491  14.383   5.122
85803SOL    HW159183   5.487  14.369   5.027
85803SOL    HW259184   5.574  14.345   5.148
85804SOL     OW59185   1.225  13.415   2.968
85804SOL    HW159186   1.206  13.420   2.875
85804SOL    HW259187   1.139  13.423   3.010
85805SOL     OW59188   9.041   7.479  10.130
85805SOL    HW159189   9.089   7.429  10.064
85805SOL    HW259190   8.989   7.542  10.079
85806SOL     OW59191  12.891  12.406  12.113
85806SOL    HW159192  12.904  12.326  12.063
85806SOL    HW259193  12.871  12.376  12.202
85807SOL     OW59194  13.823  12.887   4.529
85807SOL    HW159195  13.821  12.982   4.531
85807SOL    HW259196  13.827  12.864   4.436
85808SOL     OW59197   2.833   4.940   7.288
85808SOL    HW159198   2.833   5.028   7.327
85808SOL    HW259199   2.835   4.881   7.363
85809SOL     OW59200  12.294   2.452  10.081
85809SOL    HW159201  12.248   2.386  10.028
85809SOL    HW259202  12.332   2.512  10.017
85810SOL     OW59203   3.906   9.125   8.410
85810SOL    HW159204   3.940   9.214   8.397
85810SOL    HW259205   3.828   9.121   8.355
85811SOL     OW59206   9.319   4.181  10.024
85811SOL    HW159207   9.387   4.204  10.087
85811SOL    HW259208   9.237   4.200  10.068
85812SOL     OW59209   4.064   9.654   9.828
85812SOL    HW159210   4.123   9.645   9.753
85812SOL    HW259211   4.010   9.575   9.825
85813SOL     OW59212  10.224  11.308  10.833
85813SOL    HW159213  10.274  11.288  10.754
85813SOL    HW259214  10.230  11.229  10.887
85814SOL     OW59215   4.096   0.463   0.114
85814SOL    HW159216   4.006   0.464   0.147
85814SOL    HW259217   4.145   0.517   0.177
85815SOL     OW59218   8.118   3.017   0.483
85815SOL    HW159219   8.159   2.963   0.551
85815SOL    HW259220   8.106   3.102   0.524
85816SOL     OW59221   6.365   7.273   6.330
85816SOL    HW159222   6.349   7.201   6.269
85816SOL    HW259223   6.439   7.243   6.383
85817SOL     OW59224   9.187   3.842  12.096
85817SOL    HW159225   9.220   3.806  12.178
85817SOL    HW259226   9.261   3.888  12.058
85818SOL     OW59227  13.211  11.322  13.717
85818SOL    HW159228  13.125  11.293  13.750
85818SOL    HW259229  13.209  11.417  13.726
85819SOL     OW59230  12.124  12.400   8.401
85819SOL    HW159231  12.052  12.427   8.344
85819SOL    HW259232  12.083  12.350   8.471
85820SOL     OW59233   8.122   9.699   7.938
85820SOL    HW159234   8.185   9.650   7.885
85820SOL    HW259235   8.107   9.780   7.890
85821SOL     OW59236   6.287   6.544   5.615
85821SOL    HW159237   6.335   6.463   5.632
85821SOL    HW259238   6.335   6.586   5.544
85822SOL     OW59239  12.716   6.696   9.657
85822SOL    HW159240  12.733   6.620   9.601
85822SOL    HW259241  12.656   6.662   9.724
85823SOL     OW59242  13.877   2.709   1.203
85823SOL    HW159243  13.848   2.657   1.128
85823SOL    HW259244  13.972   2.696   1.206
85824SOL     OW59245  11.370  11.927  10.177
85824SOL    HW159246  11.441  11.992  10.177
85824SOL    HW259247  11.409  11.850  10.218
85825SOL     OW59248   4.753   1.523  14.606
85825SOL    HW159249   4.672   1.496  14.563
85825SOL    HW259250   4.785   1.595  14.551
85826SOL     OW59251   4.302   8.250   6.432
85826SOL    HW159252   4.212   8.261   6.399
85826SOL    HW259253   4.321   8.332   6.478
85827SOL     OW59254   9.811   2.132   5.010
85827SOL    HW159255   9.766   2.201   5.058
85827SOL    HW259256   9.759   2.119   4.931
85828SOL     OW59257   3.321   1.936   4.758
85828SOL    HW159258   3.405   1.897   4.781
85828SOL    HW259259   3.301   1.902   4.671
85829SOL     OW59260   8.904   5.148   0.447
85829SOL    HW159261   8.929   5.240   0.441
85829SOL    HW259262   8.879   5.124   0.357
85830SOL     OW59263   6.094  10.001  10.832
85830SOL    HW159264   6.095   9.905  10.836
85830SOL    HW259265   6.122  10.029  10.919
85831SOL     OW59266  12.682   7.475   8.535
85831SOL    HW159267  12.685   7.553   8.479
85831SOL    HW259268  12.693   7.509   8.624
85832SOL     OW59269  11.325  14.675   5.172
85832SOL    HW159270  11.258  14.648   5.110
85832SOL    HW259271  11.405  14.684   5.120
85833SOL     OW59272   3.524  11.707   2.323
85833SOL    HW159273   3.597  11.645   2.312
85833SOL    HW259274   3.490  11.688   2.410
85834SOL     OW59275  14.748  12.421   8.731
85834SOL    HW159276  14.787  12.449   8.648
85834SOL    HW259277  14.823  12.402   8.786
85835SOL     OW59278   2.174   2.511   4.504
85835SOL    HW159279   2.142   2.567   4.575
85835SOL    HW259280   2.259   2.548   4.481
85836SOL     OW59281  11.769   6.844   0.705
85836SOL    HW159282  11.675   6.859   0.709
85836SOL    HW259283  11.779   6.749   0.697
85837SOL     OW59284   4.135  14.557   6.619
85837SOL    HW159285   4.051  14.593   6.590
85837SOL    HW259286   4.148  14.593   6.706
85838SOL     OW59287  13.181   3.675  12.577
85838SOL    HW159288  13.209   3.763  12.602
85838SOL    HW259289  13.108   3.689  12.516
85839SOL     OW59290   3.302   1.654   9.247
85839SOL    HW159291   3.317   1.583   9.309
85839SOL    HW259292   3.381   1.709   9.253
85840SOL     OW59293   3.120  10.572  11.155
85840SOL    HW159294   3.055  10.641  11.142
85840SOL    HW259295   3.090  10.500  11.099
85841SOL     OW59296  14.426   9.169  11.280
85841SOL    HW159297  14.462   9.100  11.335
85841SOL    HW259298  14.375   9.122  11.213
85842SOL     OW59299   3.597   7.748  10.009
85842SOL    HW159300   3.577   7.693  10.086
85842SOL    HW259301   3.515   7.794   9.990
85843SOL     OW59302   7.804   7.605  12.879
85843SOL    HW159303   7.724   7.556  12.861
85843SOL    HW259304   7.873   7.556  12.834
85844SOL     OW59305   5.284  10.465  10.373
85844SOL    HW159306   5.243  10.380  10.356
85844SOL    HW259307   5.212  10.528  10.361
85845SOL     OW59308  10.672  13.320   7.043
85845SOL    HW159309  10.645  13.392   6.986
85845SOL    HW259310  10.605  13.317   7.111
85846SOL     OW59311   9.086  14.818   7.484
85846SOL    HW159312   9.163  14.771   7.515
85846SOL    HW259313   9.115  14.861   7.404
85847SOL     OW59314   7.964  11.234   9.809
85847SOL    HW159315   7.939  11.160   9.754
85847SOL    HW259316   7.977  11.197   9.896
85848SOL     OW59317  11.359  14.103   6.923
85848SOL    HW159318  11.441  14.136   6.961
85848SOL    HW259319  11.333  14.171   6.860
85849SOL     OW59320   1.455   3.103   2.629
85849SOL    HW159321   1.363   3.100   2.657
85849SOL    HW259322   1.451   3.118   2.534
85850SOL     OW59323  11.942  12.370  14.539
85850SOL    HW159324  11.960  12.451  14.492
85850SOL    HW259325  11.995  12.377  14.619
85851SOL     OW59326  12.098   4.094   0.988
85851SOL    HW159327  12.016   4.051   1.013
85851SOL    HW259328  12.137   4.120   1.072
85852SOL     OW59329   8.530   4.441   3.081
85852SOL    HW159330   8.571   4.381   3.143
85852SOL    HW259331   8.469   4.386   3.031
85853SOL     OW59332   0.054  11.385   6.774
85853SOL    HW159333   0.028  11.301   6.734
85853SOL    HW259334   0.113  11.361   6.845
85854SOL     OW59335  10.732   3.089  11.766
85854SOL    HW159336  10.805   3.133  11.808
85854SOL    HW259337  10.772   3.030  11.702
85855SOL     OW59338   4.175  10.337   3.885
85855SOL    HW159339   4.248  10.325   3.824
85855SOL    HW259340   4.134  10.419   3.857
85856SOL     OW59341   1.758   8.758   0.319
85856SOL    HW159342   1.713   8.749   0.235
85856SOL    HW259343   1.755   8.670   0.357
85857SOL     OW59344  11.795   3.733  14.098
85857SOL    HW159345  11.758   3.648  14.123
85857SOL    HW259346  11.750   3.755  14.016
85858SOL     OW59347   4.131  13.459   3.731
85858SOL    HW159348   4.068  13.505   3.675
85858SOL    HW259349   4.085  13.449   3.814
85859SOL     OW59350   1.227   5.218  13.286
85859SOL    HW159351   1.322   5.209  13.282
85859SOL    HW259352   1.198   5.144  13.339
85860SOL     OW59353  14.676   1.814   0.227
85860SOL    HW159354  14.725   1.741   0.190
85860SOL    HW259355  14.682   1.801   0.321
85861SOL     OW59356   4.358   1.944  11.110
85861SOL    HW159357   4.319   2.025  11.140
85861SOL    HW259358   4.425   1.924  11.175
85862SOL     OW59359   3.343  11.787  10.473
85862SOL    HW159360   3.425  11.827  10.444
85862SOL    HW259361   3.275  11.835  10.426
85863SOL     OW59362   6.687   7.644   1.938
85863SOL    HW159363   6.745   7.720   1.939
85863SOL    HW259364   6.711   7.597   1.858
85864SOL     OW59365   0.249   7.010   3.816
85864SOL    HW159366   0.286   7.091   3.850
85864SOL    HW259367   0.238   7.026   3.722
85865SOL     OW59368   0.683  12.561  14.050
85865SOL    HW159369   0.608  12.606  14.010
85865SOL    HW259370   0.725  12.628  14.104
85866SOL     OW59371   5.277   1.532   0.064
85866SOL    HW159372   5.224   1.563  14.868
85866SOL    HW259373   5.349   1.595   0.069
85867SOL     OW59374   8.581   3.271  12.025
85867SOL    HW159375   8.564   3.310  12.111
85867SOL    HW259376   8.536   3.186  12.028
85868SOL     OW59377   3.095   3.115   4.724
85868SOL    HW159378   3.093   3.188   4.662
85868SOL    HW259379   3.184   3.080   4.716
85869SOL     OW59380  13.862   1.920   4.814
85869SOL    HW159381  13.780   1.871   4.811
85869SOL    HW259382  13.839   2.004   4.855
85870SOL     OW59383   8.055   2.235   9.857
85870SOL    HW159384   8.135   2.222   9.807
85870SOL    HW259385   7.986   2.238   9.791
85871SOL     OW59386   7.335   6.812  12.607
85871SOL    HW159387   7.351   6.718  12.614
85871SOL    HW259388   7.339   6.843  12.697
85872SOL     OW59389   5.400   3.541  10.977
85872SOL    HW159390   5.410   3.608  11.045
85872SOL    HW259391   5.321   3.567  10.929
85873SOL     OW59392   6.872  11.787   7.161
85873SOL    HW159393   6.894  11.744   7.244
85873SOL    HW259394   6.956  11.793   7.114
85874SOL     OW59395   3.010   6.927   9.689
85874SOL    HW159396   2.965   6.947   9.772
85874SOL    HW259397   3.076   6.862   9.713
85875SOL     OW59398   8.328   5.301  11.691
85875SOL    HW159399   8.407   5.253  11.715
85875SOL    HW259400   8.256   5.245  11.719
85876SOL     OW59401   1.514   3.063   6.434
85876SOL    HW159402   1.468   3.048   6.517
85876SOL    HW259403   1.590   3.005   6.437
85877SOL     OW59404  10.840   3.606   1.086
85877SOL    HW159405  10.911   3.581   1.146
85877SOL    HW259406  10.844   3.702   1.083
85878SOL     OW59407  13.747   2.684  12.325
85878SOL    HW159408  13.788   2.715  12.406
85878SOL    HW259409  13.658   2.661  12.350
85879SOL     OW59410   3.707   8.269   6.130
85879SOL    HW159411   3.797   8.289   6.104
85879SOL    HW259412   3.665   8.238   6.050
85880SOL     OW59413  11.220   9.011   3.385
85880SOL    HW159414  11.180   8.924   3.391
85880SOL    HW259415  11.313   8.993   3.369
85881SOL     OW59416  10.880  10.542  10.859
85881SOL    HW159417  10.912  10.607  10.796
85881SOL    HW259418  10.792  10.520  10.828
85882SOL     OW59419   0.706   0.685  12.366
85882SOL    HW159420   0.628   0.669  12.419
85882SOL    HW259421   0.716   0.605  12.313
85883SOL     OW59422   0.697   3.939   8.034
85883SOL    HW159423   0.746   3.871   7.989
85883SOL    HW259424   0.631   3.967   7.971
85884SOL     OW59425  11.711   3.179   0.118
85884SOL    HW159426  11.690   3.235   0.043
85884SOL    HW259427  11.647   3.107   0.113
85885SOL     OW59428   6.391   4.615   5.397
85885SOL    HW159429   6.303   4.613   5.360
85885SOL    HW259430   6.432   4.534   5.366
85886SOL     OW59431  14.111   6.416   3.208
85886SOL    HW159432  14.087   6.346   3.269
85886SOL    HW259433  14.149   6.484   3.264
85887SOL     OW59434  14.767   3.352   7.125
85887SOL    HW159435  14.838   3.305   7.170
85887SOL    HW259436  14.698   3.360   7.190
85888SOL     OW59437   4.787   5.035   8.200
85888SOL    HW159438   4.727   4.964   8.224
85888SOL    HW259439   4.733   5.114   8.204
85889SOL     OW59440  12.144  14.123   7.684
85889SOL    HW159441  12.049  14.109   7.680
85889SOL    HW259442  12.177  14.084   7.603
85890SOL     OW59443   5.259  13.048  14.065
85890SOL    HW159444   5.263  13.099  14.145
85890SOL    HW259445   5.310  12.969  14.084
85891SOL     OW59446   9.172   8.800  14.096
85891SOL    HW159447   9.165   8.856  14.019
85891SOL    HW259448   9.223   8.725  14.067
85892SOL     OW59449   6.330   7.957  10.988
85892SOL    HW159450   6.264   7.952  11.057
85892SOL    HW259451   6.350   7.866  10.967
85893SOL     OW59452   6.850   8.339   5.494
85893SOL    HW159453   6.835   8.244   5.487
85893SOL    HW259454   6.818   8.374   5.410
85894SOL     OW59455   2.140   8.268   5.163
85894SOL    HW159456   2.191   8.208   5.217
85894SOL    HW259457   2.123   8.343   5.219
85895SOL     OW59458  10.048  11.412   7.614
85895SOL    HW159459   9.967  11.427   7.565
85895SOL    HW259460  10.047  11.319   7.636
85896SOL     OW59461  12.327  12.304   7.225
85896SOL    HW159462  12.252  12.261   7.184
85896SOL    HW259463  12.324  12.394   7.193
85897SOL     OW59464   2.002   4.939   3.075
85897SOL    HW159465   1.944   4.877   3.030
85897SOL    HW259466   1.943   5.007   3.109
85898SOL     OW59467  13.503  12.924  10.587
85898SOL    HW159468  13.467  12.968  10.510
85898SOL    HW259469  13.438  12.939  10.656
85899SOL     OW59470   7.143   4.958   1.868
85899SOL    HW159471   7.162   5.050   1.852
85899SOL    HW259472   7.218   4.926   1.917
85900SOL     OW59473   1.357   7.374   2.116
85900SOL    HW159474   1.313   7.320   2.051
85900SOL    HW259475   1.419   7.427   2.066
85901SOL     OW59476   0.879  11.883  11.219
85901SOL    HW159477   0.812  11.935  11.264
85901SOL    HW259478   0.959  11.898  11.270
85902SOL     OW59479   5.051  12.671   1.350
85902SOL    HW159480   5.121  12.607   1.342
85902SOL    HW259481   5.091  12.745   1.396
85903SOL     OW59482   4.116   8.917  11.396
85903SOL    HW159483   4.183   8.883  11.456
85903SOL    HW259484   4.152   9.000  11.365
85904SOL     OW59485   8.679  13.080   4.073
85904SOL    HW159486   8.750  13.145   4.069
85904SOL    HW259487   8.640  13.083   3.986
85905SOL     OW59488   3.277   8.137   6.331
85905SOL    HW159489   3.367   8.167   6.320
85905SOL    HW259490   3.273   8.105   6.421
85906SOL     OW59491   8.498  11.106  12.725
85906SOL    HW159492   8.588  11.098  12.756
85906SOL    HW259493   8.506  11.126  12.632
85907SOL     OW59494   2.099   9.395   2.411
85907SOL    HW159495   2.035   9.360   2.348
85907SOL    HW259496   2.045   9.431   2.482
85908SOL     OW59497   2.598  12.726  13.917
85908SOL    HW159498   2.658  12.796  13.888
85908SOL    HW259499   2.535  12.718  13.845
85909SOL     OW59500   4.694  11.090  10.491
85909SOL    HW159501   4.619  11.085  10.433
85909SOL    HW259502   4.770  11.095  10.432
85910SOL     OW59503   9.864   3.133   0.797
85910SOL    HW159504   9.887   3.132   0.889
85910SOL    HW259505   9.921   3.068   0.756
85911SOL     OW59506  12.776   8.075   0.714
85911SOL    HW159507  12.731   8.159   0.709
85911SOL    HW259508  12.708   8.014   0.743
85912SOL     OW59509   8.002   2.039  14.335
85912SOL    HW159510   7.997   2.110  14.399
85912SOL    HW259511   7.966   1.963  14.381
85913SOL     OW59512   0.960   1.219   8.476
85913SOL    HW159513   0.961   1.303   8.430
85913SOL    HW259514   0.897   1.232   8.547
85914SOL     OW59515   2.493   7.032   5.023
85914SOL    HW159516   2.446   7.092   5.080
85914SOL    HW259517   2.511   7.084   4.944
85915SOL     OW59518  10.577   5.926  13.616
85915SOL    HW159519  10.519   6.002  13.601
85915SOL    HW259520  10.665   5.964  13.622
85916SOL     OW59521   5.190   1.385  12.788
85916SOL    HW159522   5.164   1.338  12.708
85916SOL    HW259523   5.284   1.369  12.797
85917SOL     OW59524  10.759   7.460  12.060
85917SOL    HW159525  10.792   7.382  12.104
85917SOL    HW259526  10.790   7.451  11.969
85918SOL     OW59527   3.063  11.161  11.412
85918SOL    HW159528   3.007  11.201  11.346
85918SOL    HW259529   3.003  11.140  11.484
85919SOL     OW59530  14.470   4.006  12.553
85919SOL    HW159531  14.551   4.045  12.519
85919SOL    HW259532  14.468   3.918  12.514
85920SOL     OW59533  14.034   1.954   6.502
85920SOL    HW159534  13.978   1.888   6.542
85920SOL    HW259535  14.037   1.931   6.409
85921SOL     OW59536   4.572   3.087   7.113
85921SOL    HW159537   4.665   3.107   7.107
85921SOL    HW259538   4.551   3.096   7.206
85922SOL     OW59539   0.977  12.972  14.694
85922SOL    HW159540   0.974  12.987  14.789
85922SOL    HW259541   0.972  12.877  14.685
85923SOL     OW59542   3.084   0.978   8.124
85923SOL    HW159543   3.160   1.030   8.151
85923SOL    HW259544   3.041   0.953   8.205
85924SOL     OW59545  12.016   4.420   5.113
85924SOL    HW159546  11.996   4.498   5.165
85924SOL    HW259547  12.104   4.395   5.140
85925SOL     OW59548   3.336  14.807   7.261
85925SOL    HW159549   3.270  14.747   7.227
85925SOL    HW259550   3.336   0.003   7.200
85926SOL     OW59551   4.408   5.308  14.304
85926SOL    HW159552   4.353   5.384  14.286
85926SOL    HW259553   4.417   5.265  14.218
85927SOL     OW59554   1.332   1.191   1.273
85927SOL    HW159555   1.414   1.241   1.269
85927SOL    HW259556   1.344   1.131   1.347
85928SOL     OW59557   2.933  12.199   3.662
85928SOL    HW159558   3.012  12.192   3.608
85928SOL    HW259559   2.894  12.283   3.638
85929SOL     OW59560   4.585  13.770   3.962
85929SOL    HW159561   4.654  13.708   3.937
85929SOL    HW259562   4.598  13.785   4.056
85930SOL     OW59563   6.322   1.123   1.274
85930SOL    HW159564   6.300   1.145   1.365
85930SOL    HW259565   6.320   1.207   1.228
85931SOL     OW59566   4.191  10.009   4.500
85931SOL    HW159567   4.221  10.057   4.424
85931SOL    HW259568   4.240   9.927   4.497
85932SOL     OW59569  14.016   0.408  10.695
85932SOL    HW159570  14.079   0.374  10.758
85932SOL    HW259571  14.020   0.503  10.707
85933SOL     OW59572  13.151   0.588  12.221
85933SOL    HW159573  13.213   0.624  12.158
85933SOL    HW259574  13.187   0.609  12.306
85934SOL     OW59575   3.066   8.940   0.745
85934SOL    HW159576   3.057   8.907   0.655
85934SOL    HW259577   2.979   8.971   0.768
85935SOL     OW59578  11.075   9.084   1.400
85935SOL    HW159579  11.127   9.015   1.358
85935SOL    HW259580  11.031   9.040   1.473
85936SOL     OW59581   6.302  12.419  12.191
85936SOL    HW159582   6.283  12.499  12.240
85936SOL    HW259583   6.369  12.375  12.242
85937SOL     OW59584   3.916   6.710   5.898
85937SOL    HW159585   3.885   6.757   5.975
85937SOL    HW259586   3.984   6.766   5.861
85938SOL     OW59587   4.989  10.604   9.854
85938SOL    HW159588   5.019  10.513   9.850
85938SOL    HW259589   4.911  10.602   9.909
85939SOL     OW59590   6.528   5.114  14.547
85939SOL    HW159591   6.499   5.137  14.635
85939SOL    HW259592   6.477   5.170  14.489
85940SOL     OW59593   8.357   4.756   5.507
85940SOL    HW159594   8.299   4.778   5.435
85940SOL    HW259595   8.387   4.840   5.542
85941SOL     OW59596   7.440  13.241   1.255
85941SOL    HW159597   7.380  13.239   1.330
85941SOL    HW259598   7.384  13.257   1.179
85942SOL     OW59599  12.953   1.897  11.563
85942SOL    HW159600  13.010   1.974  11.566
85942SOL    HW259601  13.006   1.831  11.518
85943SOL     OW59602  11.310   1.677   1.809
85943SOL    HW159603  11.291   1.600   1.864
85943SOL    HW259604  11.386   1.651   1.757
85944SOL     OW59605   5.453   0.257  11.512
85944SOL    HW159606   5.388   0.187  11.504
85944SOL    HW259607   5.526   0.217  11.558
85945SOL     OW59608   5.136   9.455  10.939
85945SOL    HW159609   5.203   9.387  10.946
85945SOL    HW259610   5.127   9.471  10.845
85946SOL     OW59611  11.320   4.358   3.104
85946SOL    HW159612  11.353   4.311   3.180
85946SOL    HW259613  11.333   4.451   3.125
85947SOL     OW59614   9.108   0.959  12.665
85947SOL    HW159615   9.125   0.953  12.571
85947SOL    HW259616   9.050   0.885  12.684
85948SOL     OW59617   1.165  12.505   7.831
85948SOL    HW159618   1.109  12.498   7.754
85948SOL    HW259619   1.221  12.581   7.814
85949SOL     OW59620   4.419   5.905  10.841
85949SOL    HW159621   4.396   5.988  10.884
85949SOL    HW259622   4.370   5.906  10.759
85950SOL     OW59623   8.002   3.357   0.320
85950SOL    HW159624   8.034   3.317   0.401
85950SOL    HW259625   8.080   3.361   0.263
85951SOL     OW59626  14.281   0.590   8.074
85951SOL    HW159627  14.259   0.591   8.167
85951SOL    HW259628  14.202   0.558   8.031
85952SOL     OW59629   6.868   0.749   8.333
85952SOL    HW159630   6.936   0.772   8.269
85952SOL    HW259631   6.798   0.812   8.317
85953SOL     OW59632  14.284  13.377   0.735
85953SOL    HW159633  14.300  13.329   0.816
85953SOL    HW259634  14.342  13.336   0.670
85954SOL     OW59635   6.142   6.713   5.757
85954SOL    HW159636   6.066   6.750   5.712
85954SOL    HW259637   6.188   6.664   5.689
85955SOL     OW59638  12.362   1.003   3.858
85955SOL    HW159639  12.338   1.066   3.790
85955SOL    HW259640  12.435   1.044   3.904
85956SOL     OW59641   3.454  10.491   4.916
85956SOL    HW159642   3.502  10.430   4.972
85956SOL    HW259643   3.470  10.577   4.955
85957SOL     OW59644   5.212   1.891   3.370
85957SOL    HW159645   5.284   1.858   3.316
85957SOL    HW259646   5.165   1.813   3.398
85958SOL     OW59647   2.794  10.027   5.211
85958SOL    HW159648   2.885  10.048   5.233
85958SOL    HW259649   2.797  10.004   5.118
85959SOL     OW59650  12.047   7.416   3.006
85959SOL    HW159651  12.076   7.481   3.070
85959SOL    HW259652  11.951   7.422   3.007
85960SOL     OW59653   9.750   2.981  13.313
85960SOL    HW159654   9.714   2.900  13.350
85960SOL    HW259655   9.681   3.015  13.258
85961SOL     OW59656  11.959   9.674  13.743
85961SOL    HW159657  11.910   9.608  13.695
85961SOL    HW259658  11.909   9.755  13.731
85962SOL     OW59659   3.172  10.359  13.445
85962SOL    HW159660   3.192  10.278  13.398
85962SOL    HW259661   3.131  10.330  13.527
85963SOL     OW59662  10.706  14.617  14.057
85963SOL    HW159663  10.798  14.641  14.068
85963SOL    HW259664  10.674  14.674  13.987
85964SOL     OW59665  12.365   2.339  10.864
85964SOL    HW159666  12.363   2.402  10.792
85964SOL    HW259667  12.313   2.380  10.933
85965SOL     OW59668  13.547  13.805   1.240
85965SOL    HW159669  13.595  13.786   1.321
85965SOL    HW259670  13.466  13.846   1.270
85966SOL     OW59671   7.629  12.817   1.530
85966SOL    HW159672   7.618  12.882   1.460
85966SOL    HW259673   7.687  12.860   1.593
85967SOL     OW59674   3.105  10.928   0.794
85967SOL    HW159675   3.027  10.881   0.825
85967SOL    HW259676   3.166  10.859   0.768
85968SOL     OW59677  13.970  11.731  14.796
85968SOL    HW159678  13.927  11.799  14.744
85968SOL    HW259679  13.944  11.750   0.008
85969SOL     OW59680   0.600   7.668  10.484
85969SOL    HW159681   0.550   7.606  10.537
85969SOL    HW259682   0.609   7.745  10.540
85970SOL     OW59683   8.145   6.631   9.282
85970SOL    HW159684   8.216   6.568   9.286
85970SOL    HW259685   8.070   6.581   9.249
85971SOL     OW59686  10.611   4.120  13.928
85971SOL    HW159687  10.692   4.139  13.882
85971SOL    HW259688  10.592   4.199  13.978
85972SOL     OW59689   0.642  14.501   0.116
85972SOL    HW159690   0.725  14.488   0.070
85972SOL    HW259691   0.665  14.505   0.208
85973SOL     OW59692   0.966  12.239   4.907
85973SOL    HW159693   1.025  12.302   4.947
85973SOL    HW259694   0.958  12.169   4.971
85974SOL     OW59695  14.171   8.945   9.771
85974SOL    HW159696  14.142   8.876   9.712
85974SOL    HW259697  14.104   8.948   9.840
85975SOL     OW59698   6.562   2.729  12.637
85975SOL    HW159699   6.478   2.721  12.591
85975SOL    HW259700   6.551   2.804  12.694
85976SOL     OW59701   0.130   7.048   9.492
85976SOL    HW159702   0.074   6.991   9.545
85976SOL    HW259703   0.217   7.038   9.528
85977SOL     OW59704   3.233   5.229   2.868
85977SOL    HW159705   3.175   5.198   2.938
85977SOL    HW259706   3.319   5.192   2.889
85978SOL     OW59707   9.702   0.600  11.196
85978SOL    HW159708   9.673   0.557  11.276
85978SOL    HW259709   9.693   0.693  11.214
85979SOL     OW59710   9.297   8.606   9.952
85979SOL    HW159711   9.315   8.609   9.858
85979SOL    HW259712   9.228   8.670   9.965
85980SOL     OW59713   6.452   9.802   7.639
85980SOL    HW159714   6.482   9.712   7.628
85980SOL    HW259715   6.424   9.806   7.731
85981SOL     OW59716  12.080  13.385   9.888
85981SOL    HW159717  12.128  13.311   9.925
85981SOL    HW259718  12.140  13.423   9.824
85982SOL     OW59719   1.622   6.047  11.280
85982SOL    HW159720   1.545   6.015  11.327
85982SOL    HW259721   1.682   5.972  11.277
85983SOL     OW59722   5.042   8.900   7.931
85983SOL    HW159723   4.993   8.940   8.002
85983SOL    HW259724   4.980   8.839   7.890
85984SOL     OW59725  10.089  13.777  14.459
85984SOL    HW159726  10.026  13.796  14.529
85984SOL    HW259727  10.163  13.737  14.504
85985SOL     OW59728  11.706  14.173   1.387
85985SOL    HW159729  11.736  14.251   1.433
85985SOL    HW259730  11.767  14.164   1.313
85986SOL     OW59731   5.622  14.414  12.972
85986SOL    HW159732   5.583  14.327  12.965
85986SOL    HW259733   5.647  14.436  12.883
85987SOL     OW59734   0.013   5.586  10.695
85987SOL    HW159735   0.095   5.538  10.683
85987SOL    HW259736  14.824   5.529  10.656
85988SOL     OW59737   0.030   9.968  11.203
85988SOL    HW159738  14.874  10.037  11.146
85988SOL    HW259739   0.100  10.010  11.253
85989SOL     OW59740   4.544   2.549   1.447
85989SOL    HW159741   4.536   2.557   1.352
85989SOL    HW259742   4.467   2.498   1.473
85990SOL     OW59743   4.990   6.151   3.111
85990SOL    HW159744   4.998   6.061   3.079
85990SOL    HW259745   4.978   6.204   3.032
85991SOL     OW59746  11.580   9.257  12.610
85991SOL    HW159747  11.668   9.271  12.575
85991SOL    HW259748  11.523   9.262  12.533
85992SOL     OW59749  13.420   5.067   1.916
85992SOL    HW159750  13.393   4.978   1.894
85992SOL    HW259751  13.390   5.120   1.843
85993SOL     OW59752   4.361   9.449   9.932
85993SOL    HW159753   4.381   9.425  10.022
85993SOL    HW259754   4.315   9.532   9.939
85994SOL     OW59755   0.972  14.002   0.988
85994SOL    HW159756   1.050  13.983   0.936
85994SOL    HW259757   0.987  13.957   1.071
85995SOL     OW59758   3.863   4.879   6.161
85995SOL    HW159759   3.809   4.925   6.226
85995SOL    HW259760   3.803   4.861   6.089
85996SOL     OW59761   7.391  10.835  11.905
85996SOL    HW159762   7.398  10.931  11.902
85996SOL    HW259763   7.450  10.809  11.976
85997SOL     OW59764  14.179   6.393   0.795
85997SOL    HW159765  14.099   6.386   0.848
85997SOL    HW259766  14.186   6.309   0.751
85998SOL     OW59767   1.990   9.093   3.928
85998SOL    HW159768   1.992   9.114   4.022
85998SOL    HW259769   2.073   9.049   3.912
85999SOL     OW59770   5.585   7.824  10.580
85999SOL    HW159771   5.507   7.862  10.541
85999SOL    HW259772   5.586   7.733  10.550
86000SOL     OW59773  10.186   9.642  13.635
86000SOL    HW159774  10.201   9.623  13.728
86000SOL    HW259775  10.270   9.677  13.604
86001SOL     OW59776  12.117   6.735   5.800
86001SOL    HW159777  12.190   6.704   5.853
86001SOL    HW259778  12.055   6.662   5.800
86002SOL     OW59779   2.797   8.101   1.430
86002SOL    HW159780   2.775   8.092   1.523
86002SOL    HW259781   2.799   8.011   1.398
86003SOL     OW59782  13.003   0.574   7.680
86003SOL    HW159783  12.951   0.573   7.761
86003SOL    HW259784  12.998   0.664   7.649
86004SOL     OW59785   5.952   9.842  13.807
86004SOL    HW159786   5.996   9.873  13.886
86004SOL    HW259787   6.021   9.837  13.741
86005SOL     OW59788   0.883  11.758  11.784
86005SOL    HW159789   0.917  11.734  11.698
86005SOL    HW259790   0.857  11.675  11.824
86006SOL     OW59791   5.907   9.835  12.774
86006SOL    HW159792   5.841   9.816  12.708
86006SOL    HW259793   5.858   9.859  12.852
86007SOL     OW59794   0.282   0.524   7.836
86007SOL    HW159795   0.191   0.501   7.819
86007SOL    HW259796   0.330   0.494   7.759
86008SOL     OW59797  14.170  12.363   1.619
86008SOL    HW159798  14.239  12.326   1.674
86008SOL    HW259799  14.129  12.430   1.673
86009SOL     OW59800  10.941   7.643   8.703
86009SOL    HW159801  10.919   7.614   8.792
86009SOL    HW259802  10.936   7.738   8.707
86010SOL     OW59803  13.074   4.494  12.469
86010SOL    HW159804  13.133   4.535  12.406
86010SOL    HW259805  13.006   4.560  12.484
86011SOL     OW59806   2.306   0.301   9.611
86011SOL    HW159807   2.214   0.328   9.616
86011SOL    HW259808   2.305   0.224   9.555
86012SOL     OW59809   6.624   2.725   1.078
86012SOL    HW159810   6.657   2.649   1.125
86012SOL    HW259811   6.560   2.690   1.016
86013SOL     OW59812  12.623   9.199   3.592
86013SOL    HW159813  12.528   9.199   3.589
86013SOL    HW259814  12.648   9.285   3.557
86014SOL     OW59815  10.515   4.409   8.031
86014SOL    HW159816  10.571   4.403   7.953
86014SOL    HW259817  10.515   4.502   8.053
86015SOL     OW59818   0.552  11.688   8.156
86015SOL    HW159819   0.514  11.674   8.242
86015SOL    HW259820   0.527  11.611   8.105
86016SOL     OW59821  11.962   0.859  14.388
86016SOL    HW159822  11.948   0.777  14.434
86016SOL    HW259823  11.885   0.912  14.408
86017SOL     OW59824  14.244   2.664   6.379
86017SOL    HW159825  14.208   2.576   6.391
86017SOL    HW259826  14.237   2.705   6.465
86018SOL     OW59827  13.271  12.097   3.938
86018SOL    HW159828  13.264  12.135   4.026
86018SOL    HW259829  13.361  12.066   3.932
86019SOL     OW59830  14.362   2.143   1.549
86019SOL    HW159831  14.309   2.077   1.505
86019SOL    HW259832  14.327   2.148   1.638
86020SOL     OW59833   3.110   3.467   1.519
86020SOL    HW159834   3.099   3.500   1.608
86020SOL    HW259835   3.188   3.511   1.486
86021SOL     OW59836  13.126  10.997  10.546
86021SOL    HW159837  13.147  10.926  10.486
86021SOL    HW259838  13.048  11.039  10.508
86022SOL     OW59839   3.031   5.664  12.221
86022SOL    HW159840   3.077   5.727  12.166
86022SOL    HW259841   2.940   5.668  12.191
86023SOL     OW59842   6.052   2.878   0.014
86023SOL    HW159843   6.110   2.945  14.855
86023SOL    HW259844   5.969   2.925   0.029
86024SOL     OW59845  13.776   7.248   7.929
86024SOL    HW159846  13.681   7.251   7.933
86024SOL    HW259847  13.800   7.170   7.978
86025SOL     OW59848  11.281   5.350  13.645
86025SOL    HW159849  11.296   5.299  13.724
86025SOL    HW259850  11.245   5.287  13.582
86026SOL     OW59851  11.156  14.777  14.480
86026SOL    HW159852  11.221  14.711  14.456
86026SOL    HW259853  11.072  14.734  14.463
86027SOL     OW59854   3.699  13.205   7.663
86027SOL    HW159855   3.770  13.267   7.682
86027SOL    HW259856   3.656  13.241   7.585
86028SOL     OW59857   9.561   4.622   5.933
86028SOL    HW159858   9.588   4.705   5.893
86028SOL    HW259859   9.470   4.610   5.905
86029SOL     OW59860   3.074   0.440   7.430
86029SOL    HW159861   3.081   0.358   7.480
86029SOL    HW259862   3.051   0.506   7.495
86030SOL     OW59863   6.665  11.185  14.193
86030SOL    HW159864   6.739  11.229  14.151
86030SOL    HW259865   6.639  11.244  14.263
86031SOL     OW59866   7.174   7.863   1.927
86031SOL    HW159867   7.179   7.941   1.872
86031SOL    HW259868   7.249   7.871   1.986
86032SOL     OW59869   5.875   8.314   0.223
86032SOL    HW159870   5.880   8.263   0.304
86032SOL    HW259871   5.802   8.374   0.237
86033SOL     OW59872  14.317  10.665   0.425
86033SOL    HW159873  14.334  10.625   0.340
86033SOL    HW259874  14.321  10.759   0.409
86034SOL     OW59875   9.735  11.089   5.644
86034SOL    HW159876   9.753  10.996   5.660
86034SOL    HW259877   9.725  11.096   5.549
86035SOL     OW59878  13.017  11.417   8.889
86035SOL    HW159879  12.984  11.355   8.954
86035SOL    HW259880  12.940  11.442   8.838
86036SOL     OW59881   4.856   4.271  13.174
86036SOL    HW159882   4.914   4.229  13.238
86036SOL    HW259883   4.817   4.197  13.126
86037SOL     OW59884   1.218  11.827  13.526
86037SOL    HW159885   1.269  11.884  13.468
86037SOL    HW259886   1.233  11.863  13.613
86038SOL     OW59887   0.366  13.568   3.900
86038SOL    HW159888   0.392  13.608   3.984
86038SOL    HW259889   0.401  13.628   3.834
86039SOL     OW59890   4.434  13.559   6.564
86039SOL    HW159891   4.347  13.599   6.555
86039SOL    HW259892   4.439  13.533   6.656
86040SOL     OW59893  10.464   1.637   4.719
86040SOL    HW159894  10.489   1.600   4.804
86040SOL    HW259895  10.547   1.660   4.677
86041SOL     OW59896   0.227   6.707   7.324
86041SOL    HW159897   0.217   6.800   7.300
86041SOL    HW259898   0.315   6.684   7.294
86042SOL     OW59899   2.008   4.799   9.845
86042SOL    HW159900   2.010   4.772   9.754
86042SOL    HW259901   2.082   4.753   9.886
86043SOL     OW59902   8.847   1.022  10.915
86043SOL    HW159903   8.791   0.957  10.958
86043SOL    HW259904   8.921   0.973  10.882
86044SOL     OW59905   9.455  13.198   8.893
86044SOL    HW159906   9.371  13.180   8.935
86044SOL    HW259907   9.432  13.225   8.804
86045SOL     OW59908   5.363   8.433  12.257
86045SOL    HW159909   5.372   8.473  12.343
86045SOL    HW259910   5.276   8.392  12.258
86046SOL     OW59911   1.275  10.382   5.012
86046SOL    HW159912   1.317  10.331   5.081
86046SOL    HW259913   1.182  10.382   5.036
86047SOL     OW59914   2.388   9.541   6.110
86047SOL    HW159915   2.392   9.567   6.018
86047SOL    HW259916   2.304   9.574   6.141
86048SOL     OW59917   8.012   6.305   8.063
86048SOL    HW159918   8.022   6.212   8.042
86048SOL    HW259919   7.966   6.305   8.147
86049SOL     OW59920  11.783   5.242   5.465
86049SOL    HW159921  11.799   5.202   5.550
86049SOL    HW259922  11.854   5.306   5.455
86050SOL     OW59923   2.756  14.341   3.328
86050SOL    HW159924   2.668  14.355   3.362
86050SOL    HW259925   2.763  14.402   3.254
86051SOL     OW59926  12.963   1.508   3.116
86051SOL    HW159927  13.044   1.468   3.149
86051SOL    HW259928  12.915   1.435   3.076
86052SOL     OW59929  12.288  10.402   8.478
86052SOL    HW159930  12.296  10.446   8.563
86052SOL    HW259931  12.272  10.310   8.500
86053SOL     OW59932   2.438   8.902   2.077
86053SOL    HW159933   2.451   8.828   2.018
86053SOL    HW259934   2.433   8.862   2.164
86054SOL     OW59935   4.125  10.929   0.603
86054SOL    HW159936   4.066  10.988   0.556
86054SOL    HW259937   4.158  10.869   0.536
86055SOL     OW59938  10.113   6.194  11.390
86055SOL    HW159939  10.197   6.233  11.366
86055SOL    HW259940  10.061   6.197  11.309
86056SOL     OW59941   2.290  12.152  11.041
86056SOL    HW159942   2.379  12.180  11.020
86056SOL    HW259943   2.235  12.190  10.972
86057SOL     OW59944   3.890   3.197   5.517
86057SOL    HW159945   3.885   3.285   5.555
86057SOL    HW259946   3.965   3.156   5.561
86058SOL     OW59947  11.883   0.662   4.745
86058SOL    HW159948  11.814   0.717   4.707
86058SOL    HW259949  11.915   0.713   4.820
86059SOL     OW59950  12.264   1.359   9.552
86059SOL    HW159951  12.299   1.427   9.494
86059SOL    HW259952  12.171   1.381   9.562
86060SOL     OW59953   2.434  12.288   6.689
86060SOL    HW159954   2.502  12.354   6.703
86060SOL    HW259955   2.356  12.325   6.730
86061SOL     OW59956   6.207  10.785  10.408
86061SOL    HW159957   6.287  10.778  10.459
86061SOL    HW259958   6.146  10.833  10.464
86062SOL     OW59959  13.811  12.653  14.083
86062SOL    HW159960  13.836  12.617  14.168
86062SOL    HW259961  13.722  12.622  14.069
86063SOL     OW59962  10.922  14.237   9.493
86063SOL    HW159963  10.849  14.268   9.440
86063SOL    HW259964  10.895  14.152   9.525
86064SOL     OW59965  14.047   9.899   6.359
86064SOL    HW159966  14.134   9.859   6.354
86064SOL    HW259967  14.055   9.962   6.431
86065SOL     OW59968  12.060   7.987   1.139
86065SOL    HW159969  12.129   8.049   1.160
86065SOL    HW259970  12.080   7.909   1.191
86066SOL     OW59971   2.414   6.829   6.435
86066SOL    HW159972   2.412   6.733   6.428
86066SOL    HW259973   2.327   6.857   6.408
86067SOL     OW59974  13.513  11.554   0.806
86067SOL    HW159975  13.585  11.551   0.742
86067SOL    HW259976  13.547  11.506   0.882
86068SOL     OW59977   2.108   5.467   9.538
86068SOL    HW159978   2.129   5.460   9.445
86068SOL    HW259979   2.154   5.394   9.579
86069SOL     OW59980  10.475   6.265   9.905
86069SOL    HW159981  10.441   6.277   9.994
86069SOL    HW259982  10.502   6.353   9.878
86070SOL     OW59983   7.252   0.911   9.375
86070SOL    HW159984   7.260   1.000   9.340
86070SOL    HW259985   7.336   0.870   9.357
86071SOL     OW59986   1.967   7.042   4.410
86071SOL    HW159987   2.051   7.003   4.433
86071SOL    HW259988   1.944   7.003   4.327
86072SOL     OW59989  13.419   8.824   9.992
86072SOL    HW159990  13.370   8.901   9.963
86072SOL    HW259991  13.443   8.779   9.911
86073SOL     OW59992   8.886   1.937  12.140
86073SOL    HW159993   8.917   1.891  12.062
86073SOL    HW259994   8.846   2.017  12.106
86074SOL     OW59995  10.240   4.970   2.846
86074SOL    HW159996  10.287   4.889   2.867
86074SOL    HW259997  10.309   5.036   2.838
86075SOL     OW59998  11.860   6.968   3.187
86075SOL    HW159999  11.815   6.976   3.103
86075SOL    HW260000  11.946   6.932   3.165
86076SOL     OW60001  10.609   3.503  12.499
86076SOL    HW160002  10.552   3.434  12.533
86076SOL    HW260003  10.586   3.580  12.551
86077SOL     OW60004   7.166  11.963   6.815
86077SOL    HW160005   7.261  11.967   6.812
86077SOL    HW260006   7.137  12.028   6.751
86078SOL     OW60007  14.106  13.128   5.045
86078SOL    HW160008  14.128  13.064   4.978
86078SOL    HW260009  14.103  13.078   5.127
86079SOL     OW60010   9.847   0.138   3.644
86079SOL    HW160011   9.877   0.065   3.589
86079SOL    HW260012   9.768   0.170   3.600
86080SOL     OW60013   3.494  11.896   1.272
86080SOL    HW160014   3.434  11.968   1.252
86080SOL    HW260015   3.456  11.853   1.348
86081SOL     OW60016   1.153   9.879  11.769
86081SOL    HW160017   1.105   9.962  11.768
86081SOL    HW260018   1.218   9.889  11.700
86082SOL     OW60019  12.630  11.243  12.063
86082SOL    HW160020  12.617  11.168  12.120
86082SOL    HW260021  12.565  11.307  12.092
86083SOL     OW60022   4.442  14.480  10.963
86083SOL    HW160023   4.536  14.476  10.945
86083SOL    HW260024   4.405  14.408  10.911
86084SOL     OW60025   0.658   3.751   9.325
86084SOL    HW160026   0.656   3.759   9.230
86084SOL    HW260027   0.579   3.701   9.347
86085SOL     OW60028   2.494   9.717  10.352
86085SOL    HW160029   2.453   9.658  10.415
86085SOL    HW260030   2.577   9.675  10.330
86086SOL     OW60031  14.604   5.770   3.972
86086SOL    HW160032  14.570   5.730   4.052
86086SOL    HW260033  14.569   5.859   3.973
86087SOL     OW60034  14.420   4.722  13.007
86087SOL    HW160035  14.366   4.715  13.085
86087SOL    HW260036  14.510   4.708  13.038
86088SOL     OW60037   7.255   4.527  10.676
86088SOL    HW160038   7.288   4.602  10.626
86088SOL    HW260039   7.164   4.550  10.697
86089SOL     OW60040  11.208   8.278  12.667
86089SOL    HW160041  11.167   8.319  12.744
86089SOL    HW260042  11.223   8.188  12.693
86090SOL     OW60043   7.150   4.982   6.412
86090SOL    HW160044   7.065   5.025   6.417
86090SOL    HW260045   7.131   4.893   6.382
86091SOL     OW60046   7.824   3.342   3.751
86091SOL    HW160047   7.892   3.276   3.740
86091SOL    HW260048   7.786   3.323   3.837
86092SOL     OW60049   9.752   9.045  14.395
86092SOL    HW160050   9.743   8.953  14.369
86092SOL    HW260051   9.846   9.060  14.399
86093SOL     OW60052   7.348  14.662  11.762
86093SOL    HW160053   7.265  14.683  11.805
86093SOL    HW260054   7.323  14.640  11.672
86094SOL     OW60055   7.244  14.718   0.600
86094SOL    HW160056   7.334  14.750   0.604
86094SOL    HW260057   7.246  14.647   0.535
86095SOL     OW60058   0.115   7.426   6.037
86095SOL    HW160059   0.032   7.428   6.083
86095SOL    HW260060   0.099   7.370   5.960
86096SOL     OW60061   9.383  10.703  10.391
86096SOL    HW160062   9.328  10.740  10.461
86096SOL    HW260063   9.395  10.776  10.330
86097SOL     OW60064   6.364   5.239   4.015
86097SOL    HW160065   6.374   5.144   4.008
86097SOL    HW260066   6.359   5.269   3.924
86098SOL     OW60067   7.228  10.548  14.201
86098SOL    HW160068   7.315  10.529  14.236
86098SOL    HW260069   7.194  10.462  14.175
86099SOL     OW60070   5.117   2.060  13.735
86099SOL    HW160071   5.096   2.064  13.642
86099SOL    HW260072   5.212   2.076  13.739
86100SOL     OW60073   3.824  11.167   4.469
86100SOL    HW160074   3.913  11.133   4.462
86100SOL    HW260075   3.811  11.180   4.563
86101SOL     OW60076  10.756   1.140   3.459
86101SOL    HW160077  10.837   1.147   3.509
86101SOL    HW260078  10.737   1.047   3.455
86102SOL     OW60079   9.235   5.383   6.445
86102SOL    HW160080   9.187   5.324   6.387
86102SOL    HW260081   9.321   5.392   6.405
86103SOL     OW60082   5.472   5.531   8.607
86103SOL    HW160083   5.426   5.447   8.618
86103SOL    HW260084   5.406   5.597   8.627
86104SOL     OW60085   8.228   2.535   1.640
86104SOL    HW160086   8.257   2.533   1.549
86104SOL    HW260087   8.208   2.627   1.657
86105SOL     OW60088   8.419   0.491  12.627
86105SOL    HW160089   8.505   0.513  12.664
86105SOL    HW260090   8.363   0.565  12.649
86106SOL     OW60091   3.140  14.700  14.278
86106SOL    HW160092   3.140  14.612  14.240
86106SOL    HW260093   3.230  14.713  14.308
86107SOL     OW60094  13.053   8.851  14.658
86107SOL    HW160095  12.970   8.899  14.649
86107SOL    HW260096  13.100   8.867  14.576
86108SOL     OW60097   6.674   5.854   4.675
86108SOL    HW160098   6.710   5.822   4.593
86108SOL    HW260099   6.580   5.856   4.661
86109SOL     OW60100   5.831   4.981   4.552
86109SOL    HW160101   5.782   4.940   4.481
86109SOL    HW260102   5.917   4.998   4.516
86110SOL     OW60103  13.976   5.385  11.955
86110SOL    HW160104  14.020   5.462  11.920
86110SOL    HW260105  14.013   5.312  11.906
86111SOL     OW60106   1.864   8.804   6.781
86111SOL    HW160107   1.877   8.824   6.873
86111SOL    HW260108   1.936   8.746   6.757
86112SOL     OW60109  12.569   4.583   9.874
86112SOL    HW160110  12.603   4.502   9.836
86112SOL    HW260111  12.490   4.602   9.824
86113SOL     OW60112  13.380   0.224  12.751
86113SOL    HW160113  13.451   0.284  12.773
86113SOL    HW260114  13.403   0.190  12.665
86114SOL     OW60115   6.866   2.274   5.042
86114SOL    HW160116   6.794   2.264   4.979
86114SOL    HW260117   6.875   2.368   5.054
86115SOL     OW60118   8.259   2.421   7.225
86115SOL    HW160119   8.256   2.440   7.131
86115SOL    HW260120   8.177   2.375   7.242
86116SOL     OW60121  13.933   6.019   3.809
86116SOL    HW160122  13.842   6.024   3.839
86116SOL    HW260123  13.983   5.993   3.886
86117SOL     OW60124   8.961   2.025   4.616
86117SOL    HW160125   9.048   2.019   4.655
86117SOL    HW260126   8.902   2.032   4.691
86118SOL     OW60127   9.308   4.309   3.544
86118SOL    HW160128   9.214   4.318   3.558
86118SOL    HW260129   9.347   4.348   3.622
86119SOL     OW60130   6.917   3.217  11.712
86119SOL    HW160131   6.835   3.263  11.724
86119SOL    HW260132   6.963   3.267  11.644
86120SOL     OW60133  11.449   4.724  12.814
86120SOL    HW160134  11.492   4.802  12.848
86120SOL    HW260135  11.401   4.756  12.737
86121SOL     OW60136   5.136  14.753   1.920
86121SOL    HW160137   5.058  14.748   1.865
86121SOL    HW260138   5.108  14.716   2.004
86122SOL     OW60139  12.845  11.602   5.706
86122SOL    HW160140  12.817  11.692   5.719
86122SOL    HW260141  12.785  11.549   5.758
86123SOL     OW60142   5.733   9.897   7.797
86123SOL    HW160143   5.700   9.986   7.790
86123SOL    HW260144   5.808   9.895   7.737
86124SOL     OW60145  14.815   9.754  13.955
86124SOL    HW160146  14.774   9.772  14.040
86124SOL    HW260147  14.836   9.841  13.920
86125SOL     OW60148   3.415   9.280  13.982
86125SOL    HW160149   3.510   9.283  13.983
86125SOL    HW260150   3.393   9.251  13.893
86126SOL     OW60151   1.670   1.032   4.706
86126SOL    HW160152   1.674   0.966   4.636
86126SOL    HW260153   1.577   1.051   4.716
86127SOL     OW60154   2.790  13.745  12.376
86127SOL    HW160155   2.729  13.707  12.312
86127SOL    HW260156   2.851  13.796  12.324
86128SOL     OW60157  12.155   0.656   1.755
86128SOL    HW160158  12.067   0.666   1.718
86128SOL    HW260159  12.163   0.562   1.773
86129SOL     OW60160  11.798  10.215  10.837
86129SOL    HW160161  11.715  10.263  10.830
86129SOL    HW260162  11.865  10.279  10.816
86130SOL     OW60163  14.685   5.084   1.313
86130SOL    HW160164  14.661   5.155   1.254
86130SOL    HW260165  14.642   5.006   1.276
86131SOL     OW60166  12.698   9.612  14.699
86131SOL    HW160167  12.603   9.600  14.699
86131SOL    HW260168  12.711   9.707  14.689
86132SOL     OW60169   0.526   1.993   1.100
86132SOL    HW160170   0.447   1.958   1.142
86132SOL    HW260171   0.519   2.087   1.112
86133SOL     OW60172   5.484  10.515   7.686
86133SOL    HW160173   5.391  10.523   7.664
86133SOL    HW260174   5.529  10.514   7.602
86134SOL     OW60175   4.644  11.025   4.429
86134SOL    HW160176   4.585  10.983   4.367
86134SOL    HW260177   4.608  11.113   4.440
86135SOL     OW60178   3.085   4.978   8.094
86135SOL    HW160179   3.049   4.890   8.101
86135SOL    HW260180   3.016   5.028   8.051
86136SOL     OW60181   6.130  13.837  12.741
86136SOL    HW160182   6.152  13.900  12.672
86136SOL    HW260183   6.104  13.758  12.693
86137SOL     OW60184   3.869  10.537   4.577
86137SOL    HW160185   3.816  10.459   4.561
86137SOL    HW260186   3.810  10.610   4.556
86138SOL     OW60187   7.101   5.509   7.591
86138SOL    HW160188   7.033   5.443   7.582
86138SOL    HW260189   7.148   5.507   7.507
86139SOL     OW60190   4.031  14.117   0.704
86139SOL    HW160191   4.109  14.079   0.663
86139SOL    HW260192   4.027  14.206   0.670
86140SOL     OW60193   0.343   0.715  12.958
86140SOL    HW160194   0.299   0.717  13.043
86140SOL    HW260195   0.285   0.663  12.902
86141SOL     OW60196   8.913   7.505   3.160
86141SOL    HW160197   8.859   7.542   3.091
86141SOL    HW260198   8.977   7.449   3.115
86142SOL     OW60199   4.308   0.219   4.057
86142SOL    HW160200   4.295   0.131   4.092
86142SOL    HW260201   4.389   0.213   4.006
86143SOL     OW60202   3.739   4.486   0.816
86143SOL    HW160203   3.773   4.545   0.748
86143SOL    HW260204   3.700   4.544   0.881
86144SOL     OW60205   0.699  13.122   7.690
86144SOL    HW160206   0.616  13.080   7.710
86144SOL    HW260207   0.706  13.194   7.753
86145SOL     OW60208   1.700   2.324   4.076
86145SOL    HW160209   1.689   2.333   4.171
86145SOL    HW260210   1.636   2.386   4.040
86146SOL     OW60211   0.623   0.179   2.393
86146SOL    HW160212   0.609   0.187   2.299
86146SOL    HW260213   0.714   0.206   2.406
86147SOL     OW60214  11.564   7.846  10.599
86147SOL    HW160215  11.644   7.794  10.606
86147SOL    HW260216  11.570   7.908  10.672
86148SOL     OW60217   5.787   1.987   1.186
86148SOL    HW160218   5.712   1.955   1.237
86148SOL    HW260219   5.750   2.009   1.100
86149SOL     OW60220  13.761   3.435  12.073
86149SOL    HW160221  13.721   3.350  12.055
86149SOL    HW260222  13.763   3.440  12.169
86150SOL     OW60223   9.263   4.636   3.198
86150SOL    HW160224   9.333   4.649   3.135
86150SOL    HW260225   9.286   4.554   3.243
86151SOL     OW60226  13.690  14.844   4.584
86151SOL    HW160227  13.724  14.755   4.571
86151SOL    HW260228  13.637  14.837   4.663
86152SOL     OW60229   0.761   7.367   3.466
86152SOL    HW160230   0.695   7.432   3.492
86152SOL    HW260231   0.748   7.295   3.527
86153SOL     OW60232   9.806  10.448   3.510
86153SOL    HW160233   9.790  10.402   3.592
86153SOL    HW260234   9.862  10.521   3.534
86154SOL     OW60235   5.302   0.894  13.552
86154SOL    HW160236   5.324   0.826  13.616
86154SOL    HW260237   5.295   0.846  13.469
86155SOL     OW60238  10.998  13.858   9.980
86155SOL    HW160239  11.086  13.841   9.946
86155SOL    HW260240  10.978  13.947   9.952
86156SOL     OW60241   8.517   5.407  10.062
86156SOL    HW160242   8.460   5.385   9.988
86156SOL    HW260243   8.464   5.465  10.116
86157SOL     OW60244   9.061  12.788   6.982
86157SOL    HW160245   9.083  12.709   6.932
86157SOL    HW260246   8.968  12.801   6.967
86158SOL     OW60247   2.227  14.796   8.621
86158SOL    HW160248   2.179  14.817   8.541
86158SOL    HW260249   2.159  14.774   8.684
86159SOL     OW60250   8.633   4.859   8.476
86159SOL    HW160251   8.683   4.790   8.519
86159SOL    HW260252   8.548   4.818   8.456
86160SOL     OW60253  14.300   9.529   6.142
86160SOL    HW160254  14.330   9.531   6.233
86160SOL    HW260255  14.237   9.457   6.139
86161SOL     OW60256  10.812  12.688   2.515
86161SOL    HW160257  10.789  12.613   2.570
86161SOL    HW260258  10.774  12.668   2.430
86162SOL     OW60259   4.072  11.330  14.488
86162SOL    HW160260   4.002  11.377  14.443
86162SOL    HW260261   4.143  11.393  14.496
86163SOL     OW60262   8.658   0.394   4.312
86163SOL    HW160263   8.567   0.381   4.286
86163SOL    HW260264   8.680   0.482   4.283
86164SOL     OW60265   6.957   8.828  12.070
86164SOL    HW160266   6.960   8.733  12.070
86164SOL    HW260267   6.864   8.849  12.065
86165SOL     OW60268   8.150  12.713   7.996
86165SOL    HW160269   8.135  12.749   7.909
86165SOL    HW260270   8.064  12.714   8.038
86166SOL     OW60271   1.544   5.972  11.934
86166SOL    HW160272   1.534   5.924  11.852
86166SOL    HW260273   1.487   6.048  11.925
86167SOL     OW60274  14.583   5.764   4.248
86167SOL    HW160275  14.536   5.750   4.330
86167SOL    HW260276  14.580   5.859   4.234
86168SOL     OW60277  12.378   6.017   1.133
86168SOL    HW160278  12.407   5.941   1.184
86168SOL    HW260279  12.331   5.979   1.058
86169SOL     OW60280   2.658   8.392  12.399
86169SOL    HW160281   2.599   8.397  12.324
86169SOL    HW260282   2.628   8.462  12.458
86170SOL     OW60283   5.048   5.611   4.648
86170SOL    HW160284   5.143   5.600   4.643
86170SOL    HW260285   5.016   5.525   4.675
86171SOL     OW60286   4.835   6.527   4.625
86171SOL    HW160287   4.879   6.443   4.641
86171SOL    HW260288   4.841   6.573   4.709
86172SOL     OW60289  12.926   3.300  14.110
86172SOL    HW160290  13.008   3.269  14.073
86172SOL    HW260291  12.858   3.255  14.059
86173SOL     OW60292   6.227  11.064  14.445
86173SOL    HW160293   6.167  10.994  14.469
86173SOL    HW260294   6.252  11.105  14.528
86174SOL     OW60295   4.443   0.296   1.849
86174SOL    HW160296   4.373   0.266   1.907
86174SOL    HW260297   4.433   0.391   1.847
86175SOL     OW60298   3.620   7.046   3.006
86175SOL    HW160299   3.654   6.973   3.057
86175SOL    HW260300   3.559   7.006   2.944
86176SOL     OW60301   5.789   1.926  13.039
86176SOL    HW160302   5.701   1.935  13.003
86176SOL    HW260303   5.786   1.969  13.124
86177SOL     OW60304  12.274   7.208   4.898
86177SOL    HW160305  12.264   7.281   4.838
86177SOL    HW260306  12.259   7.130   4.844
86178SOL     OW60307   8.273   5.344   8.504
86178SOL    HW160308   8.178   5.335   8.513
86178SOL    HW260309   8.287   5.358   8.411
86179SOL     OW60310   6.042   5.076  14.663
86179SOL    HW160311   6.008   5.165  14.676
86179SOL    HW260312   6.103   5.063  14.735
86180SOL     OW60313   6.410   3.551   8.097
86180SOL    HW160314   6.377   3.584   8.181
86180SOL    HW260315   6.397   3.624   8.036
86181SOL     OW60316   2.643  14.393   6.336
86181SOL    HW160317   2.589  14.342   6.275
86181SOL    HW260318   2.639  14.482   6.302
86182SOL     OW60319  13.192   3.490  11.711
86182SOL    HW160320  13.124   3.423  11.710
86182SOL    HW260321  13.238   3.477  11.794
86183SOL     OW60322   2.202   2.833  10.404
86183SOL    HW160323   2.211   2.841  10.499
86183SOL    HW260324   2.233   2.917  10.370
86184SOL     OW60325  10.311  11.584   2.352
86184SOL    HW160326  10.351  11.500   2.375
86184SOL    HW260327  10.377  11.628   2.298
86185SOL     OW60328   7.313   1.775   3.178
86185SOL    HW160329   7.399   1.798   3.215
86185SOL    HW260330   7.308   1.680   3.187
86186SOL     OW60331   8.931   2.254  11.566
86186SOL    HW160332   8.852   2.203  11.550
86186SOL    HW260333   8.903   2.345  11.558
86187SOL     OW60334   7.922   6.444   5.821
86187SOL    HW160335   7.893   6.395   5.743
86187SOL    HW260336   7.842   6.459   5.871
86188SOL     OW60337   0.458  14.632   2.190
86188SOL    HW160338   0.420  14.547   2.167
86188SOL    HW260339   0.435  14.645   2.282
86189SOL     OW60340   1.419   6.438   5.747
86189SOL    HW160341   1.481   6.478   5.686
86189SOL    HW260342   1.471   6.372   5.793
86190SOL     OW60343   0.937  13.948  12.672
86190SOL    HW160344   0.870  13.895  12.629
86190SOL    HW260345   0.921  14.037  12.640
86191SOL     OW60346  12.141   5.994   3.213
86191SOL    HW160347  12.173   6.043   3.288
86191SOL    HW260348  12.076   5.934   3.249
86192SOL     OW60349  12.480  11.682  12.306
86192SOL    HW160350  12.574  11.674  12.321
86192SOL    HW260351  12.466  11.776  12.291
86193SOL     OW60352   4.546  12.617   2.541
86193SOL    HW160353   4.507  12.533   2.514
86193SOL    HW260354   4.639  12.599   2.549
86194SOL     OW60355   1.205   0.570   3.213
86194SOL    HW160356   1.256   0.577   3.132
86194SOL    HW260357   1.256   0.512   3.269
86195SOL     OW60358  13.871  14.833   9.123
86195SOL    HW160359  13.888   0.035   9.173
86195SOL    HW260360  13.859  14.765   9.190
86196SOL     OW60361   1.447  11.363   1.810
86196SOL    HW160362   1.488  11.418   1.877
86196SOL    HW260363   1.365  11.334   1.850
86197SOL     OW60364  14.570   6.184   6.248
86197SOL    HW160365  14.610   6.098   6.263
86197SOL    HW260366  14.476   6.167   6.247
86198SOL     OW60367   3.044  14.740   2.336
86198SOL    HW160368   2.968  14.724   2.280
86198SOL    HW260369   3.105  14.669   2.314
86199SOL     OW60370   4.563  14.704   8.614
86199SOL    HW160371   4.471  14.715   8.588
86199SOL    HW260372   4.603  14.656   8.542
86200SOL     OW60373   7.589   9.389   2.768
86200SOL    HW160374   7.644   9.440   2.828
86200SOL    HW260375   7.574   9.307   2.814
86201SOL     OW60376   5.879   1.117   4.594
86201SOL    HW160377   5.905   1.054   4.527
86201SOL    HW260378   5.861   1.063   4.672
86202SOL     OW60379  14.228  12.630  14.117
86202SOL    HW160380  14.319  12.652  14.138
86202SOL    HW260381  14.230  12.535  14.105
86203SOL     OW60382   8.379   1.361  12.566
86203SOL    HW160383   8.317   1.365  12.639
86203SOL    HW260384   8.333   1.313  12.498
86204SOL     OW60385  14.242   8.699   7.267
86204SOL    HW160386  14.201   8.779   7.235
86204SOL    HW260387  14.270   8.721   7.356
86205SOL     OW60388   5.968  11.645   3.726
86205SOL    HW160389   5.933  11.597   3.801
86205SOL    HW260390   5.917  11.615   3.651
86206SOL     OW60391   2.681  13.959   8.392
86206SOL    HW160392   2.627  14.011   8.332
86206SOL    HW260393   2.668  13.868   8.363
86207SOL     OW60394   5.137  12.220   6.038
86207SOL    HW160395   5.161  12.150   5.977
86207SOL    HW260396   5.211  12.281   6.034
86208SOL     OW60397   1.262   8.808  12.782
86208SOL    HW160398   1.200   8.747  12.821
86208SOL    HW260399   1.333   8.816  12.847
86209SOL     OW60400   6.999   0.389   1.718
86209SOL    HW160401   6.914   0.427   1.740
86209SOL    HW260402   6.997   0.380   1.623
86210SOL     OW60403   6.821   5.845  13.856
86210SOL    HW160404   6.769   5.812  13.930
86210SOL    HW260405   6.760   5.900  13.807
86211SOL     OW60406   9.065   5.963  10.964
86211SOL    HW160407   9.064   5.977  10.870
86211SOL    HW260408   8.972   5.959  10.989
86212SOL     OW60409  13.323   7.776  11.127
86212SOL    HW160410  13.330   7.789  11.222
86212SOL    HW260411  13.373   7.696  11.110
86213SOL     OW60412   1.387   9.815  13.412
86213SOL    HW160413   1.329   9.837  13.339
86213SOL    HW260414   1.472   9.851  13.386
86214SOL     OW60415  14.555   8.634   3.306
86214SOL    HW160416  14.509   8.714   3.330
86214SOL    HW260417  14.518   8.567   3.363
86215SOL     OW60418   5.151   1.362  10.078
86215SOL    HW160419   5.209   1.386  10.006
86215SOL    HW260420   5.210   1.348  10.152
86216SOL     OW60421   4.572   8.963   2.094
86216SOL    HW160422   4.647   9.017   2.120
86216SOL    HW260423   4.609   8.875   2.084
86217SOL     OW60424   1.591   3.524   4.584
86217SOL    HW160425   1.625   3.485   4.503
86217SOL    HW260426   1.527   3.460   4.616
86218SOL     OW60427   5.321  11.189  11.428
86218SOL    HW160428   5.231  11.219  11.422
86218SOL    HW260429   5.339  11.147  11.344
86219SOL     OW60430   8.432   3.413  13.598
86219SOL    HW160431   8.465   3.471  13.529
86219SOL    HW260432   8.361   3.364  13.556
86220SOL     OW60433   0.975   7.953   8.904
86220SOL    HW160434   0.923   8.004   8.968
86220SOL    HW260435   0.938   7.865   8.908
86221SOL     OW60436  12.273   7.566   8.852
86221SOL    HW160437  12.203   7.604   8.798
86221SOL    HW260438  12.234   7.488   8.890
86222SOL     OW60439   7.942   0.672  13.539
86222SOL    HW160440   7.969   0.741  13.478
86222SOL    HW260441   7.873   0.713  13.591
86223SOL     OW60442  11.613  14.266  13.275
86223SOL    HW160443  11.695  14.278  13.228
86223SOL    HW260444  11.607  14.171  13.289
86224SOL     OW60445  14.716   8.473   4.693
86224SOL    HW160446  14.708   8.409   4.763
86224SOL    HW260447  14.667   8.434   4.620
86225SOL     OW60448  10.939  12.384   3.190
86225SOL    HW160449  11.033  12.395   3.175
86225SOL    HW260450  10.899  12.397   3.104
86226SOL     OW60451  10.638   4.511  14.241
86226SOL    HW160452  10.716   4.567  14.251
86226SOL    HW260453  10.585   4.530  14.319
86227SOL     OW60454   3.148   7.592   7.461
86227SOL    HW160455   3.238   7.584   7.493
86227SOL    HW260456   3.155   7.575   7.367
86228SOL     OW60457  11.845  13.693   2.209
86228SOL    HW160458  11.876  13.666   2.296
86228SOL    HW260459  11.834  13.788   2.216
86229SOL     OW60460  13.777   0.836   1.362
86229SOL    HW160461  13.750   0.899   1.429
86229SOL    HW260462  13.786   0.753   1.409
86230SOL     OW60463   7.162   2.514   6.831
86230SOL    HW160464   7.095   2.522   6.763
86230SOL    HW260465   7.243   2.497   6.783
86231SOL     OW60466   2.180  10.058  10.082
86231SOL    HW160467   2.244  10.056  10.153
86231SOL    HW260468   2.198   9.979  10.031
86232SOL     OW60469   9.160  13.360  13.872
86232SOL    HW160470   9.184  13.418  13.945
86232SOL    HW260471   9.153  13.273  13.911
86233SOL     OW60472   8.364   8.608  13.416
86233SOL    HW160473   8.395   8.686  13.462
86233SOL    HW260474   8.324   8.554  13.484
86234SOL     OW60475   2.423   3.507  14.052
86234SOL    HW160476   2.360   3.455  14.101
86234SOL    HW260477   2.508   3.466  14.072
86235SOL     OW60478   9.442  12.579  10.270
86235SOL    HW160479   9.367  12.630  10.239
86235SOL    HW260480   9.502  12.644  10.308
86236SOL     OW60481  11.584   5.929  13.608
86236SOL    HW160482  11.563   5.886  13.525
86236SOL    HW260483  11.590   5.857  13.671
86237SOL     OW60484  13.518   7.904   2.118
86237SOL    HW160485  13.610   7.886   2.140
86237SOL    HW260486  13.475   7.819   2.121
86238SOL     OW60487  12.977   6.664   4.167
86238SOL    HW160488  12.975   6.657   4.071
86238SOL    HW260489  12.977   6.759   4.184
86239SOL     OW60490  14.155  11.157   2.946
86239SOL    HW160491  14.141  11.244   2.909
86239SOL    HW260492  14.078  11.107   2.918
86240SOL     OW60493  12.218  14.760   0.475
86240SOL    HW160494  12.199  14.779   0.567
86240SOL    HW260495  12.289  14.697   0.479
86241SOL     OW60496  11.209  12.518  14.321
86241SOL    HW160497  11.303  12.531  14.321
86241SOL    HW260498  11.173  12.602  14.353
86242SOL     OW60499  10.223   3.147  10.439
86242SOL    HW160500  10.169   3.089  10.494
86242SOL    HW260501  10.269   3.203  10.501
86243SOL     OW60502   3.886  13.496   1.656
86243SOL    HW160503   3.827  13.542   1.596
86243SOL    HW260504   3.972  13.534   1.637
86244SOL     OW60505   2.624  10.878  11.552
86244SOL    HW160506   2.563  10.909  11.619
86244SOL    HW260507   2.654  10.793  11.585
86245SOL     OW60508   5.880   5.597   5.398
86245SOL    HW160509   5.932   5.531   5.354
86245SOL    HW260510   5.789   5.574   5.378
86246SOL     OW60511   9.889  10.081   5.183
86246SOL    HW160512   9.974  10.062   5.220
86246SOL    HW260513   9.840  10.123   5.254
86247SOL     OW60514  11.842   4.009   6.616
86247SOL    HW160515  11.934   3.986   6.606
86247SOL    HW260516  11.813   4.032   6.527
86248SOL     OW60517   9.754   8.958   3.494
86248SOL    HW160518   9.663   8.930   3.483
86248SOL    HW260519   9.793   8.892   3.552
86249SOL     OW60520   2.965   1.117  13.419
86249SOL    HW160521   3.026   1.075  13.480
86249SOL    HW260522   2.884   1.066  13.428
86250SOL     OW60523   1.517  10.645   2.314
86250SOL    HW160524   1.586  10.711   2.320
86250SOL    HW260525   1.542  10.578   2.379
86251SOL     OW60526   5.872   1.449   7.380
86251SOL    HW160527   5.908   1.459   7.292
86251SOL    HW260528   5.923   1.378   7.419
86252SOL     OW60529   2.409   1.223   3.335
86252SOL    HW160530   2.479   1.163   3.362
86252SOL    HW260531   2.329   1.183   3.369
86253SOL     OW60532   7.418  12.298   5.203
86253SOL    HW160533   7.396  12.214   5.242
86253SOL    HW260534   7.503  12.321   5.240
86254SOL     OW60535   3.106   5.227   4.965
86254SOL    HW160536   3.013   5.206   4.972
86254SOL    HW260537   3.139   5.226   5.055
86255SOL     OW60538   9.321   4.773   3.796
86255SOL    HW160539   9.285   4.692   3.831
86255SOL    HW260540   9.411   4.775   3.826
86256SOL     OW60541   8.237   1.586  11.675
86256SOL    HW160542   8.254   1.680  11.677
86256SOL    HW260543   8.231   1.564  11.582
86257SOL     OW60544   2.483   1.910   2.695
86257SOL    HW160545   2.416   1.904   2.763
86257SOL    HW260546   2.543   1.977   2.727
86258SOL     OW60547  12.217  14.536   3.981
86258SOL    HW160548  12.239  14.542   3.889
86258SOL    HW260549  12.140  14.479   3.984
86259SOL     OW60550   2.564  10.401  14.215
86259SOL    HW160551   2.471  10.417  14.199
86259SOL    HW260552   2.584  10.450  14.294
86260SOL     OW60553   7.461  11.418  11.973
86260SOL    HW160554   7.529  11.480  11.944
86260SOL    HW260555   7.501  11.372  12.047
86261SOL     OW60556   0.714  14.204   1.654
86261SOL    HW160557   0.779  14.142   1.686
86261SOL    HW260558   0.665  14.155   1.588
86262SOL     OW60559   9.652   0.031  12.197
86262SOL    HW160560   9.594   0.096  12.236
86262SOL    HW260561   9.624   0.024  12.106
86263SOL     OW60562   6.043   3.508   6.469
86263SOL    HW160563   6.021   3.482   6.558
86263SOL    HW260564   6.136   3.487   6.460
86264SOL     OW60565  14.352  12.306   4.883
86264SOL    HW160566  14.404  12.250   4.941
86264SOL    HW260567  14.380  12.395   4.906
86265SOL     OW60568   8.038  13.464  14.378
86265SOL    HW160569   8.104  13.533  14.385
86265SOL    HW260570   8.087  13.386  14.353
86266SOL     OW60571  13.739   3.890   3.186
86266SOL    HW160572  13.719   3.797   3.179
86266SOL    HW260573  13.683   3.921   3.258
86267SOL     OW60574   6.238  12.314  10.978
86267SOL    HW160575   6.327  12.336  10.950
86267SOL    HW260576   6.190  12.297  10.897
86268SOL     OW60577  14.797   0.764   2.865
86268SOL    HW160578  14.858   0.723   2.926
86268SOL    HW260579  14.736   0.812   2.921
86269SOL     OW60580   6.193   8.615   0.448
86269SOL    HW160581   6.275   8.572   0.425
86269SOL    HW260582   6.158   8.647   0.365
86270SOL     OW60583  14.410  12.238  10.008
86270SOL    HW160584  14.412  12.215  10.101
86270SOL    HW260585  14.473  12.310  10.000
86271SOL     OW60586  10.382   0.894   1.995
86271SOL    HW160587  10.398   0.940   2.078
86271SOL    HW260588  10.386   0.963   1.928
86272SOL     OW60589  12.690   4.727   0.513
86272SOL    HW160590  12.640   4.667   0.568
86272SOL    HW260591  12.749   4.671   0.463
86273SOL     OW60592  13.254   5.747   2.196
86273SOL    HW160593  13.246   5.722   2.288
86273SOL    HW260594  13.165   5.772   2.171
86274SOL     OW60595  13.758   0.141  12.776
86274SOL    HW160596  13.707   0.220  12.793
86274SOL    HW260597  13.844   0.159  12.813
86275SOL     OW60598   9.226   7.872   4.502
86275SOL    HW160599   9.201   7.819   4.426
86275SOL    HW260600   9.207   7.817   4.577
86276SOL     OW60601   8.168   3.020   5.104
86276SOL    HW160602   8.081   2.984   5.123
86276SOL    HW260603   8.229   2.956   5.140
86277SOL     OW60604  11.225   1.819   2.138
86277SOL    HW160605  11.207   1.811   2.044
86277SOL    HW260606  11.140   1.841   2.176
86278SOL     OW60607   3.641  11.334  11.225
86278SOL    HW160608   3.678  11.317  11.139
86278SOL    HW260609   3.625  11.429  11.225
86279SOL     OW60610  13.609   1.073   3.032
86279SOL    HW160611  13.661   0.996   3.054
86279SOL    HW260612  13.642   1.102   2.947
86280SOL     OW60613   5.652   0.307  12.606
86280SOL    HW160614   5.614   0.380  12.557
86280SOL    HW260615   5.577   0.261  12.642
86281SOL     OW60616   7.105  14.421   8.493
86281SOL    HW160617   7.106  14.349   8.556
86281SOL    HW260618   7.124  14.499   8.545
86282SOL     OW60619  14.768  14.650  14.004
86282SOL    HW160620  14.774  14.725  14.064
86282SOL    HW260621  14.675  14.627  14.003
86283SOL     OW60622   7.109  10.740   0.508
86283SOL    HW160623   7.093  10.659   0.459
86283SOL    HW260624   7.022  10.767   0.537
86284SOL     OW60625   9.464   1.134   3.268
86284SOL    HW160626   9.378   1.122   3.308
86284SOL    HW260627   9.458   1.218   3.222
86285SOL     OW60628   0.966   3.086   3.731
86285SOL    HW160629   0.968   3.177   3.700
86285SOL    HW260630   0.892   3.083   3.791
86286SOL     OW60631   7.823   7.640   9.962
86286SOL    HW160632   7.761   7.707   9.934
86286SOL    HW260633   7.768   7.565   9.984
86287SOL     OW60634  13.158   0.098   0.393
86287SOL    HW160635  13.120   0.186   0.399
86287SOL    HW260636  13.124   0.062   0.311
86288SOL     OW60637  13.106  12.230   5.141
86288SOL    HW160638  13.187  12.274   5.115
86288SOL    HW260639  13.069  12.286   5.209
86289SOL     OW60640   5.628   4.459   3.373
86289SOL    HW160641   5.707   4.491   3.330
86289SOL    HW260642   5.562   4.526   3.355
86290SOL     OW60643   4.632  12.705   7.293
86290SOL    HW160644   4.693  12.745   7.231
86290SOL    HW260645   4.611  12.620   7.256
86291SOL     OW60646  11.946   1.844   7.601
86291SOL    HW160647  11.890   1.914   7.566
86291SOL    HW260648  11.885   1.781   7.639
86292SOL     OW60649  14.215   4.140   3.053
86292SOL    HW160650  14.158   4.182   2.989
86292SOL    HW260651  14.157   4.081   3.101
86293SOL     OW60652  14.002   2.350   0.421
86293SOL    HW160653  14.048   2.416   0.474
86293SOL    HW260654  13.991   2.275   0.479
86294SOL     OW60655  10.805   1.509   2.580
86294SOL    HW160656  10.878   1.469   2.626
86294SOL    HW260657  10.742   1.531   2.649
86295SOL     OW60658   0.058   1.481   1.421
86295SOL    HW160659   0.051   1.460   1.328
86295SOL    HW260660  14.852   1.453   1.458
86296SOL     OW60661  13.170  11.509   7.309
86296SOL    HW160662  13.159  11.507   7.404
86296SOL    HW260663  13.139  11.423   7.280
86297SOL     OW60664   1.398  11.030   3.642
86297SOL    HW160665   1.403  10.943   3.603
86297SOL    HW260666   1.398  11.014   3.736
86298SOL     OW60667   9.693   3.627  11.479
86298SOL    HW160668   9.674   3.666  11.394
86298SOL    HW260669   9.615   3.642  11.531
86299SOL     OW60670   5.113   8.432   1.795
86299SOL    HW160671   5.134   8.343   1.823
86299SOL    HW260672   5.149   8.488   1.864
86300SOL     OW60673   5.297  11.556  14.871
86300SOL    HW160674   5.392  11.560  14.865
86300SOL    HW260675   5.277  11.568   0.086
86301SOL     OW60676   5.548   3.311  12.944
86301SOL    HW160677   5.576   3.344  12.859
86301SOL    HW260678   5.580   3.221  12.946
86302SOL     OW60679   2.731   8.108   6.000
86302SOL    HW160680   2.705   8.163   5.926
86302SOL    HW260681   2.711   8.018   5.972
86303SOL     OW60682   3.172  14.367   6.429
86303SOL    HW160683   3.093  14.313   6.423
86303SOL    HW260684   3.197  14.363   6.521
86304SOL     OW60685   7.177  13.418   2.793
86304SOL    HW160686   7.218  13.407   2.707
86304SOL    HW260687   7.241  13.465   2.845
86305SOL     OW60688   5.244  11.974  10.155
86305SOL    HW160689   5.336  11.969  10.131
86305SOL    HW260690   5.236  12.057  10.202
86306SOL     OW60691   0.110   4.060  14.588
86306SOL    HW160692   0.148   4.098  14.668
86306SOL    HW260693   0.184   4.017  14.546
86307SOL     OW60694  10.359   9.417   0.912
86307SOL    HW160695  10.434   9.398   0.855
86307SOL    HW260696  10.359   9.346   0.976
86308SOL     OW60697   9.813   1.326   3.886
86308SOL    HW160698   9.898   1.348   3.848
86308SOL    HW260699   9.822   1.234   3.911
86309SOL     OW60700  10.263   6.800  13.541
86309SOL    HW160701  10.294   6.879  13.585
86309SOL    HW260702  10.224   6.747  13.610
86310SOL     OW60703  10.837   8.011   6.883
86310SOL    HW160704  10.853   8.001   6.789
86310SOL    HW260705  10.841   7.922   6.918
86311SOL     OW60706   7.798  14.066   0.174
86311SOL    HW160707   7.779  14.012   0.098
86311SOL    HW260708   7.887  14.045   0.199
86312SOL     OW60709   3.366  12.398   7.928
86312SOL    HW160710   3.388  12.491   7.923
86312SOL    HW260711   3.274  12.393   7.901
86313SOL     OW60712   2.270   1.975   8.996
86313SOL    HW160713   2.178   1.964   9.019
86313SOL    HW260714   2.270   1.991   8.902
86314SOL     OW60715   3.957   3.646  12.746
86314SOL    HW160716   3.865   3.661  12.768
86314SOL    HW260717   3.993   3.601  12.823
86315SOL     OW60718   6.662   1.174  14.554
86315SOL    HW160719   6.666   1.107  14.621
86315SOL    HW260720   6.628   1.130  14.476
86316SOL     OW60721  14.241   5.638   6.422
86316SOL    HW160722  14.265   5.650   6.331
86316SOL    HW260723  14.278   5.552   6.445
86317SOL     OW60724   2.468   4.360   7.273
86317SOL    HW160725   2.448   4.276   7.314
86317SOL    HW260726   2.531   4.339   7.204
86318SOL     OW60727  14.622   9.699   6.126
86318SOL    HW160728  14.680   9.626   6.104
86318SOL    HW260729  14.646   9.768   6.065
86319SOL     OW60730   7.696   8.522   7.727
86319SOL    HW160731   7.691   8.476   7.643
86319SOL    HW260732   7.745   8.462   7.784
86320SOL     OW60733   8.605   3.583  10.641
86320SOL    HW160734   8.644   3.668  10.661
86320SOL    HW260735   8.527   3.579  10.696
86321SOL     OW60736  10.033   8.276   8.105
86321SOL    HW160737  10.025   8.198   8.159
86321SOL    HW260738  10.085   8.337   8.158
86322SOL     OW60739   1.836   9.550  12.433
86322SOL    HW160740   1.852   9.510  12.518
86322SOL    HW260741   1.889   9.499  12.371
86323SOL     OW60742   1.158   7.488   2.910
86323SOL    HW160743   1.247   7.458   2.897
86323SOL    HW260744   1.106   7.407   2.918
86324SOL     OW60745   0.643  10.530   3.563
86324SOL    HW160746   0.732  10.532   3.596
86324SOL    HW260747   0.597  10.598   3.613
86325SOL     OW60748   0.320  13.369   1.423
86325SOL    HW160749   0.262  13.311   1.374
86325SOL    HW260750   0.275  13.385   1.506
86326SOL     OW60751   3.544   8.584   2.547
86326SOL    HW160752   3.520   8.670   2.514
86326SOL    HW260753   3.557   8.597   2.641
86327SOL     OW60754   7.081   1.340   3.246
86327SOL    HW160755   7.038   1.389   3.176
86327SOL    HW260756   7.078   1.249   3.216
86328SOL     OW60757   6.928  13.907  10.308
86328SOL    HW160758   6.921  13.994  10.270
86328SOL    HW260759   6.965  13.853  10.239
86329SOL     OW60760  11.193   5.871  10.705
86329SOL    HW160761  11.099   5.860  10.718
86329SOL    HW260762  11.204   5.866  10.610
86330SOL     OW60763   7.815   7.684   8.863
86330SOL    HW160764   7.797   7.593   8.839
86330SOL    HW260765   7.811   7.685   8.958
86331SOL     OW60766   6.821  10.470  13.168
86331SOL    HW160767   6.826  10.510  13.081
86331SOL    HW260768   6.729  10.480  13.193
86332SOL     OW60769   7.852   4.693   7.855
86332SOL    HW160770   7.853   4.764   7.920
86332SOL    HW260771   7.775   4.713   7.800
86333SOL     OW60772  13.651   6.124   7.109
86333SOL    HW160773  13.586   6.115   7.178
86333SOL    HW260774  13.601   6.111   7.028
86334SOL     OW60775   0.586   7.789   9.199
86334SOL    HW160776   0.554   7.701   9.177
86334SOL    HW260777   0.526   7.820   9.267
86335SOL     OW60778   4.671   2.005   5.107
86335SOL    HW160779   4.670   1.911   5.089
86335SOL    HW260780   4.594   2.039   5.062
86336SOL     OW60781  11.156   3.194   3.083
86336SOL    HW160782  11.154   3.281   3.043
86336SOL    HW260783  11.099   3.201   3.160
86337SOL     OW60784  11.844   1.229   4.205
86337SOL    HW160785  11.911   1.230   4.136
86337SOL    HW260786  11.857   1.311   4.252
86338SOL     OW60787  10.555   3.280   0.640
86338SOL    HW160788  10.508   3.357   0.672
86338SOL    HW260789  10.531   3.210   0.701
86339SOL     OW60790   5.912   3.326  12.730
86339SOL    HW160791   5.823   3.327  12.696
86339SOL    HW260792   5.920   3.406  12.782
86340SOL     OW60793   7.144  12.226   3.081
86340SOL    HW160794   7.055  12.259   3.091
86340SOL    HW260795   7.200  12.301   3.101
86341SOL     OW60796  10.965   3.762   5.399
86341SOL    HW160797  11.013   3.679   5.403
86341SOL    HW260798  11.033   3.828   5.387
86342SOL     OW60799   4.157  13.951   6.203
86342SOL    HW160800   4.136  13.864   6.234
86342SOL    HW260801   4.169  13.941   6.108
86343SOL     OW60802   0.705  12.800   5.369
86343SOL    HW160803   0.647  12.868   5.335
86343SOL    HW260804   0.713  12.737   5.297
86344SOL     OW60805   3.255  12.131   5.276
86344SOL    HW160806   3.288  12.126   5.366
86344SOL    HW260807   3.320  12.083   5.225
86345SOL     OW60808   1.169   0.369  14.204
86345SOL    HW160809   1.230   0.439  14.180
86345SOL    HW260810   1.084   0.412  14.210
86346SOL     OW60811  11.819   4.766   3.884
86346SOL    HW160812  11.832   4.859   3.868
86346SOL    HW260813  11.886   4.723   3.831
86347SOL     OW60814   4.924  11.292   1.090
86347SOL    HW160815   4.994  11.351   1.063
86347SOL    HW260816   4.933  11.285   1.185
86348SOL     OW60817   0.855  11.375   7.602
86348SOL    HW160818   0.947  11.351   7.612
86348SOL    HW260819   0.853  11.431   7.524
86349SOL     OW60820   4.370   4.164   2.544
86349SOL    HW160821   4.304   4.214   2.495
86349SOL    HW260822   4.439   4.228   2.562
86350SOL     OW60823  11.876  11.142   6.880
86350SOL    HW160824  11.856  11.132   6.973
86350SOL    HW260825  11.831  11.069   6.837
86351SOL     OW60826   8.532   2.901   4.089
86351SOL    HW160827   8.592   2.880   4.161
86351SOL    HW260828   8.581   2.880   4.010
86352SOL     OW60829  11.582  14.167   0.757
86352SOL    HW160830  11.509  14.228   0.749
86352SOL    HW260831  11.540  14.081   0.767
86353SOL     OW60832   6.691   7.291  10.632
86353SOL    HW160833   6.663   7.258  10.546
86353SOL    HW260834   6.637   7.368  10.647
86354SOL     OW60835  11.938  11.500  11.345
86354SOL    HW160836  11.893  11.488  11.262
86354SOL    HW260837  12.014  11.442  11.339
86355SOL     OW60838  11.202   9.954   2.522
86355SOL    HW160839  11.285   9.906   2.528
86355SOL    HW260840  11.141   9.889   2.487
86356SOL     OW60841  10.084  12.726  14.326
86356SOL    HW160842  10.009  12.744  14.269
86356SOL    HW260843  10.116  12.641  14.297
86357SOL     OW60844   0.204   0.161   0.262
86357SOL    HW160845   0.276   0.161   0.198
86357SOL    HW260846   0.135   0.110   0.219
86358SOL     OW60847   6.164   1.311   6.334
86358SOL    HW160848   6.240   1.257   6.356
86358SOL    HW260849   6.096   1.283   6.395
86359SOL     OW60850   3.535   1.088   0.095
86359SOL    HW160851   3.524   1.183   0.093
86359SOL    HW260852   3.630   1.075   0.095
86360SOL     OW60853   0.762   8.306   6.980
86360SOL    HW160854   0.667   8.291   6.981
86360SOL    HW260855   0.774   8.389   7.026
86361SOL     OW60856  12.380   4.047  10.782
86361SOL    HW160857  12.473   4.069  10.777
86361SOL    HW260858  12.338   4.126  10.817
86362SOL     OW60859   2.539  12.242  12.750
86362SOL    HW160860   2.579  12.286  12.825
86362SOL    HW260861   2.490  12.311  12.705
86363SOL     OW60862   6.188  11.369   8.395
86363SOL    HW160863   6.101  11.377   8.435
86363SOL    HW260864   6.225  11.290   8.432
86364SOL     OW60865   4.380   4.403   3.113
86364SOL    HW160866   4.285   4.414   3.104
86364SOL    HW260867   4.393   4.381   3.205
86365SOL     OW60868   9.362  10.437   1.256
86365SOL    HW160869   9.352  10.513   1.198
86365SOL    HW260870   9.295  10.449   1.323
86366SOL     OW60871   8.122  13.177   5.326
86366SOL    HW160872   8.051  13.219   5.278
86366SOL    HW260873   8.202  13.218   5.292
86367SOL     OW60874   4.172   7.181   6.283
86367SOL    HW160875   4.146   7.151   6.195
86367SOL    HW260876   4.152   7.275   6.282
86368SOL     OW60877   4.244   0.388  13.108
86368SOL    HW160878   4.334   0.359  13.091
86368SOL    HW260879   4.207   0.319  13.163
86369SOL     OW60880  10.902   8.302   5.655
86369SOL    HW160881  10.925   8.392   5.630
86369SOL    HW260882  10.807   8.299   5.647
86370SOL     OW60883   1.226   0.810  10.806
86370SOL    HW160884   1.321   0.822  10.813
86370SOL    HW260885   1.210   0.723  10.841
86371SOL     OW60886  13.185   3.749   6.736
86371SOL    HW160887  13.228   3.699   6.667
86371SOL    HW260888  13.252   3.758   6.804
86372SOL     OW60889  11.255  14.678   1.278
86372SOL    HW160890  11.346  14.701   1.296
86372SOL    HW260891  11.226  14.630   1.356
86373SOL     OW60892  11.354   8.249   2.410
86373SOL    HW160893  11.347   8.156   2.430
86373SOL    HW260894  11.443   8.274   2.436
86374SOL     OW60895   9.544   2.195  14.254
86374SOL    HW160896   9.631   2.215  14.289
86374SOL    HW260897   9.551   2.107  14.218
86375SOL     OW60898   4.524   7.406  10.594
86375SOL    HW160899   4.608   7.423  10.551
86375SOL    HW260900   4.495   7.322  10.558
86376SOL     OW60901  13.045  14.098  14.519
86376SOL    HW160902  13.068  14.009  14.495
86376SOL    HW260903  12.990  14.130  14.447
86377SOL     OW60904  10.308   2.438  13.092
86377SOL    HW160905  10.303   2.526  13.054
86377SOL    HW260906  10.229   2.394  13.059
86378SOL     OW60907  13.089   9.788  14.365
86378SOL    HW160908  12.998   9.795  14.336
86378SOL    HW260909  13.088   9.823  14.455
86379SOL     OW60910   8.509  13.073   1.913
86379SOL    HW160911   8.478  13.034   1.831
86379SOL    HW260912   8.431  13.078   1.968
86380SOL     OW60913  10.037  12.605   1.511
86380SOL    HW160914  10.074  12.551   1.441
86380SOL    HW260915  10.109  12.664   1.536
86381SOL     OW60916  13.180  13.758   2.764
86381SOL    HW160917  13.202  13.666   2.780
86381SOL    HW260918  13.262  13.805   2.779
86382SOL     OW60919   5.563   7.303  13.987
86382SOL    HW160920   5.583   7.344  14.071
86382SOL    HW260921   5.533   7.215  14.009
86383SOL     OW60922   1.482   6.775  12.982
86383SOL    HW160923   1.535   6.853  12.967
86383SOL    HW260924   1.405   6.806  13.028
86384SOL     OW60925   0.436  12.050  10.589
86384SOL    HW160926   0.344  12.024  10.581
86384SOL    HW260927   0.463  12.069  10.500
86385SOL     OW60928  11.559  13.462   5.271
86385SOL    HW160929  11.563  13.389   5.210
86385SOL    HW260930  11.630  13.446   5.333
86386SOL     OW60931   9.000   2.168   1.374
86386SOL    HW160932   8.920   2.218   1.360
86386SOL    HW260933   9.067   2.235   1.392
86387SOL     OW60934   5.066   8.458   1.513
86387SOL    HW160935   5.028   8.371   1.529
86387SOL    HW260936   5.114   8.478   1.593
86388SOL     OW60937   2.393   7.440   2.345
86388SOL    HW160938   2.428   7.414   2.430
86388SOL    HW260939   2.304   7.471   2.365
86389SOL     OW60940  13.236   3.906   9.331
86389SOL    HW160941  13.270   3.818   9.342
86389SOL    HW260942  13.172   3.916   9.402
86390SOL     OW60943   0.769   0.405   3.200
86390SOL    HW160944   0.695   0.420   3.142
86390SOL    HW260945   0.735   0.421   3.288
86391SOL     OW60946  12.819   1.810   4.721
86391SOL    HW160947  12.757   1.769   4.781
86391SOL    HW260948  12.905   1.778   4.750
86392SOL     OW60949   1.650   5.412   3.361
86392SOL    HW160950   1.681   5.486   3.309
86392SOL    HW260951   1.640   5.341   3.298
86393SOL     OW60952   2.421   8.411  11.817
86393SOL    HW160953   2.356   8.402  11.746
86393SOL    HW260954   2.468   8.491  11.796
86394SOL     OW60955   7.448  10.599  13.258
86394SOL    HW160956   7.527  10.560  13.296
86394SOL    HW260957   7.478  10.643  13.179
86395SOL     OW60958   7.025   1.243  11.723
86395SOL    HW160959   7.043   1.153  11.750
86395SOL    HW260960   6.968   1.278  11.792
86396SOL     OW60961  14.206  14.118   5.912
86396SOL    HW160962  14.283  14.063   5.900
86396SOL    HW260963  14.149  14.096   5.838
86397SOL     OW60964   6.408   5.488  10.901
86397SOL    HW160965   6.461   5.476  10.980
86397SOL    HW260966   6.454   5.437  10.834
86398SOL     OW60967  13.359   1.223   8.792
86398SOL    HW160968  13.388   1.172   8.867
86398SOL    HW260969  13.438   1.237   8.741
86399SOL     OW60970   6.209   1.499   4.471
86399SOL    HW160971   6.175   1.418   4.509
86399SOL    HW260972   6.138   1.530   4.415
86400SOL     OW60973   2.061   0.822   1.751
86400SOL    HW160974   2.120   0.765   1.800
86400SOL    HW260975   2.021   0.766   1.685
86401SOL     OW60976   4.024   8.307   3.700
86401SOL    HW160977   3.929   8.316   3.710
86401SOL    HW260978   4.045   8.361   3.624
86402SOL     OW60979  10.511  11.707   3.041
86402SOL    HW160980  10.598  11.678   3.069
86402SOL    HW260981  10.497  11.789   3.087
86403SOL     OW60982   5.527   8.614   4.941
86403SOL    HW160983   5.466   8.647   4.875
86403SOL    HW260984   5.473   8.606   5.021
86404SOL     OW60985  13.620   5.285  13.223
86404SOL    HW160986  13.651   5.266  13.135
86404SOL    HW260987  13.694   5.329  13.266
86405SOL     OW60988   1.550  14.043  12.645
86405SOL    HW160989   1.553  14.137  12.629
86405SOL    HW260990   1.612  14.030  12.717
86406SOL     OW60991  11.132   9.094  12.262
86406SOL    HW160992  11.125   9.037  12.185
86406SOL    HW260993  11.146   9.182  12.226
86407SOL     OW60994   7.759  11.698  10.511
86407SOL    HW160995   7.670  11.735  10.512
86407SOL    HW260996   7.788  11.702  10.602
86408SOL     OW60997  10.423   4.658   1.169
86408SOL    HW160998  10.486   4.703   1.225
86408SOL    HW260999  10.389   4.587   1.225
86409SOL     OW61000   6.595  14.044  12.693
86409SOL    HW161001   6.564  14.007  12.610
86409SOL    HW261002   6.677  14.088  12.670
86410SOL     OW61003  13.869   9.125   9.164
86410SOL    HW161004  13.882   9.135   9.259
86410SOL    HW261005  13.791   9.071   9.155
86411SOL     OW61006   6.161   8.439   6.650
86411SOL    HW161007   6.154   8.409   6.559
86411SOL    HW261008   6.133   8.364   6.702
86412SOL     OW61009  13.176   3.798   8.060
86412SOL    HW161010  13.204   3.714   8.025
86412SOL    HW261011  13.086   3.783   8.089
86413SOL     OW61012  12.418   2.019   3.635
86413SOL    HW161013  12.472   2.045   3.560
86413SOL    HW261014  12.441   1.927   3.650
86414SOL     OW61015   2.261   4.620  14.278
86414SOL    HW161016   2.196   4.577  14.333
86414SOL    HW261017   2.267   4.709  14.314
86415SOL     OW61018   4.071   2.434   8.876
86415SOL    HW161019   3.992   2.481   8.849
86415SOL    HW261020   4.062   2.347   8.838
86416SOL     OW61021   1.521  11.915   1.627
86416SOL    HW161022   1.518  11.883   1.537
86416SOL    HW261023   1.430  11.930   1.650
86417SOL     OW61024   6.643  11.110  11.400
86417SOL    HW161025   6.561  11.067  11.375
86417SOL    HW261026   6.634  11.126  11.494
86418SOL     OW61027   6.278  10.419   3.380
86418SOL    HW161028   6.368  10.441   3.357
86418SOL    HW261029   6.286  10.369   3.461
86419SOL     OW61030   1.627  13.841  14.241
86419SOL    HW161031   1.649  13.753  14.211
86419SOL    HW261032   1.711  13.880  14.265
86420SOL     OW61033  10.043   4.226   2.135
86420SOL    HW161034  10.048   4.269   2.050
86420SOL    HW261035   9.966   4.168   2.127
86421SOL     OW61036   8.949   7.202  11.596
86421SOL    HW161037   9.031   7.195  11.645
86421SOL    HW261038   8.975   7.234  11.510
86422SOL     OW61039   0.393   3.600   2.910
86422SOL    HW161040   0.484   3.569   2.915
86422SOL    HW261041   0.395   3.686   2.951
86423SOL     OW61042   7.734   3.742   0.429
86423SOL    HW161043   7.721   3.651   0.401
86423SOL    HW261044   7.647   3.774   0.451
86424SOL     OW61045  13.268   8.197   0.587
86424SOL    HW161046  13.284   8.108   0.554
86424SOL    HW261047  13.184   8.192   0.631
86425SOL     OW61048   3.680  10.758  10.594
86425SOL    HW161049   3.698  10.820  10.524
86425SOL    HW261050   3.692  10.808  10.675
86426SOL     OW61051  10.312   3.554   2.184
86426SOL    HW161052  10.230   3.510   2.162
86426SOL    HW261053  10.371   3.485   2.214
86427SOL     OW61054   1.467  12.686   4.520
86427SOL    HW161055   1.519  12.766   4.525
86427SOL    HW261056   1.530  12.615   4.528
86428SOL     OW61057   8.339  13.290   5.600
86428SOL    HW161058   8.255  13.247   5.619
86428SOL    HW261059   8.324  13.381   5.624
86429SOL     OW61060  13.606   4.801  10.319
86429SOL    HW161061  13.514   4.789  10.341
86429SOL    HW261062  13.652   4.789  10.402
86430SOL     OW61063   3.289   0.302  13.090
86430SOL    HW161064   3.355   0.356  13.134
86430SOL    HW261065   3.226   0.365  13.055
86431SOL     OW61066   8.815   0.514   5.745
86431SOL    HW161067   8.902   0.488   5.774
86431SOL    HW261068   8.821   0.609   5.733
86432SOL     OW61069   5.601   4.854   6.360
86432SOL    HW161070   5.680   4.901   6.387
86432SOL    HW261071   5.560   4.826   6.442
86433SOL     OW61072   5.082   7.216  10.424
86433SOL    HW161073   5.174   7.243  10.418
86433SOL    HW261074   5.053   7.248  10.509
86434SOL     OW61075   8.826   5.896   5.880
86434SOL    HW161076   8.820   5.985   5.845
86434SOL    HW261077   8.768   5.844   5.824
86435SOL     OW61078  14.576   7.241  12.814
86435SOL    HW161079  14.582   7.225  12.719
86435SOL    HW261080  14.483   7.237  12.833
86436SOL     OW61081   4.131   8.657  10.999
86436SOL    HW161082   4.107   8.703  11.079
86436SOL    HW261083   4.051   8.610  10.973
86437SOL     OW61084   5.217   7.363   5.575
86437SOL    HW161085   5.274   7.433   5.543
86437SOL    HW261086   5.274   7.306   5.626
86438SOL     OW61087   0.391   4.035  11.891
86438SOL    HW161088   0.409   3.942  11.902
86438SOL    HW261089   0.296   4.043  11.898
86439SOL     OW61090  11.263  14.333   2.966
86439SOL    HW161091  11.173  14.362   2.982
86439SOL    HW261092  11.268  14.321   2.872
86440SOL     OW61093   6.665   4.046  11.022
86440SOL    HW161094   6.609   4.113  10.980
86440SOL    HW261095   6.748   4.091  11.036
86441SOL     OW61096   1.122  12.929  13.990
86441SOL    HW161097   1.148  12.856  13.933
86441SOL    HW261098   1.183  12.999  13.967
86442SOL     OW61099   3.204   0.705   3.009
86442SOL    HW161100   3.272   0.661   3.059
86442SOL    HW261101   3.143   0.635   2.984
86443SOL     OW61102  13.383   7.596   9.073
86443SOL    HW161103  13.291   7.594   9.100
86443SOL    HW261104  13.381   7.588   8.978
86444SOL     OW61105   4.873   0.887   9.849
86444SOL    HW161106   4.861   0.982   9.860
86444SOL    HW261107   4.954   0.879   9.800
86445SOL     OW61108   5.968  11.220  12.200
86445SOL    HW161109   6.040  11.282  12.197
86445SOL    HW261110   6.005  11.138  12.168
86446SOL     OW61111   7.442   2.776   9.093
86446SOL    HW161112   7.495   2.708   9.134
86446SOL    HW261113   7.456   2.854   9.147
86447SOL     OW61114  14.819   2.195   8.197
86447SOL    HW161115  14.872   2.255   8.250
86447SOL    HW261116  14.844   2.214   8.107
86448SOL     OW61117  14.197  14.117   4.067
86448SOL    HW161118  14.131  14.128   3.998
86448SOL    HW261119  14.227  14.027   4.056
86449SOL     OW61120   1.887   2.058   9.650
86449SOL    HW161121   1.938   2.103   9.717
86449SOL    HW261122   1.880   2.120   9.578
86450SOL     OW61123  14.071   5.639   9.505
86450SOL    HW161124  14.045   5.729   9.526
86450SOL    HW261125  14.113   5.646   9.419
86451SOL     OW61126   2.805  13.293  11.553
86451SOL    HW161127   2.725  13.343  11.564
86451SOL    HW261128   2.814  13.283  11.458
86452SOL     OW61129   5.208   8.590  13.095
86452SOL    HW161130   5.177   8.501  13.115
86452SOL    HW261131   5.142   8.648  13.132
86453SOL     OW61132   6.040  14.433  10.177
86453SOL    HW161133   6.110  14.376  10.211
86453SOL    HW261134   6.005  14.476  10.254
86454SOL     OW61135  11.941   1.341  12.228
86454SOL    HW161136  12.018   1.394  12.206
86454SOL    HW261137  11.879   1.403  12.266
86455SOL     OW61138   6.476  10.935   0.841
86455SOL    HW161139   6.521  10.851   0.835
86455SOL    HW261140   6.546  10.999   0.853
86456SOL     OW61141  13.722   2.277   5.436
86456SOL    HW161142  13.633   2.282   5.403
86456SOL    HW261143  13.734   2.357   5.487
86457SOL     OW61144   2.021   9.669   2.964
86457SOL    HW161145   2.002   9.596   3.022
86457SOL    HW261146   2.108   9.649   2.927
86458SOL     OW61147   6.904  14.560   1.781
86458SOL    HW161148   6.889  14.586   1.690
86458SOL    HW261149   6.942  14.637   1.822
86459SOL     OW61150  13.287  14.185   1.292
86459SOL    HW161151  13.333  14.253   1.341
86459SOL    HW261152  13.350  14.157   1.225
86460SOL     OW61153   8.742  14.243   7.730
86460SOL    HW161154   8.750  14.305   7.658
86460SOL    HW261155   8.649  14.222   7.734
86461SOL     OW61156   0.772   3.404   9.004
86461SOL    HW161157   0.776   3.429   8.911
86461SOL    HW261158   0.732   3.480   9.047
86462SOL     OW61159   2.913   7.090  12.251
86462SOL    HW161160   3.006   7.086  12.229
86462SOL    HW261161   2.870   7.106  12.167
86463SOL     OW61162   1.354  13.935   7.716
86463SOL    HW161163   1.260  13.932   7.730
86463SOL    HW261164   1.377  14.028   7.719
86464SOL     OW61165   5.329  14.753   4.716
86464SOL    HW161166   5.334  14.714   4.803
86464SOL    HW261167   5.420  14.757   4.686
86465SOL     OW61168   3.111   2.816   7.917
86465SOL    HW161169   3.056   2.803   7.994
86465SOL    HW261170   3.159   2.897   7.934
86466SOL     OW61171  13.114   7.450   4.359
86466SOL    HW161172  13.180   7.397   4.313
86466SOL    HW261173  13.118   7.535   4.316
86467SOL     OW61174   2.736  10.676  13.697
86467SOL    HW161175   2.736  10.765  13.733
86467SOL    HW261176   2.791  10.681  13.620
86468SOL     OW61177  12.880  12.846   9.906
86468SOL    HW161178  12.825  12.924   9.894
86468SOL    HW261179  12.820  12.772   9.899
86469SOL     OW61180  12.438   2.317   5.995
86469SOL    HW161181  12.461   2.236   5.949
86469SOL    HW261182  12.364   2.292   6.051
86470SOL     OW61183  13.826  10.353  12.887
86470SOL    HW161184  13.887  10.282  12.867
86470SOL    HW261185  13.746  10.331  12.838
86471SOL     OW61186   2.860  12.958  10.398
86471SOL    HW161187   2.765  12.945  10.405
86471SOL    HW261188   2.870  13.038  10.346
86472SOL     OW61189   8.616   1.873  13.831
86472SOL    HW161190   8.699   1.829  13.850
86472SOL    HW261191   8.581   1.896  13.917
86473SOL     OW61192  14.295   7.257   4.387
86473SOL    HW161193  14.247   7.264   4.305
86473SOL    HW261194  14.366   7.195   4.369
86474SOL     OW61195   4.972  12.041   3.714
86474SOL    HW161196   4.977  12.106   3.784
86474SOL    HW261197   4.927  11.966   3.753
86475SOL     OW61198   4.977  12.093   4.407
86475SOL    HW161199   4.882  12.100   4.413
86475SOL    HW261200   5.006  12.076   4.497
86476SOL     OW61201   6.036   2.985  14.183
86476SOL    HW161202   6.004   2.897  14.200
86476SOL    HW261203   5.998   3.039  14.252
86477SOL     OW61204   7.770   4.112   3.984
86477SOL    HW161205   7.824   4.062   4.045
86477SOL    HW261206   7.832   4.164   3.934
86478SOL     OW61207  14.467   9.398   8.807
86478SOL    HW161208  14.486   9.308   8.783
86478SOL    HW261209  14.407   9.429   8.739
86479SOL     OW61210   9.297   3.061  14.318
86479SOL    HW161211   9.365   3.066  14.385
86479SOL    HW261212   9.215   3.072  14.367
86480SOL     OW61213   2.287   7.051   5.407
86480SOL    HW161214   2.268   7.124   5.348
86480SOL    HW261215   2.300   6.976   5.350
86481SOL     OW61216  12.190  10.711   9.596
86481SOL    HW161217  12.131  10.654   9.646
86481SOL    HW261218  12.266  10.657   9.578
86482SOL     OW61219  14.865   6.093   4.077
86482SOL    HW161220  14.827   6.110   4.163
86482SOL    HW261221   0.082   6.100   4.092
86483SOL     OW61222   7.365  12.330   4.673
86483SOL    HW161223   7.285  12.286   4.644
86483SOL    HW261224   7.387  12.288   4.756
86484SOL     OW61225   6.985   5.713   4.922
86484SOL    HW161226   7.038   5.698   4.843
86484SOL    HW261227   7.017   5.647   4.984
86485SOL     OW61228   8.002   1.479   4.526
86485SOL    HW161229   7.964   1.503   4.441
86485SOL    HW261230   7.980   1.552   4.583
86486SOL     OW61231  10.293   9.994   5.818
86486SOL    HW161232  10.327  10.057   5.755
86486SOL    HW261233  10.244  10.047   5.881
86487SOL     OW61234   3.925  10.627   0.970
86487SOL    HW161235   3.989  10.655   0.904
86487SOL    HW261236   3.942  10.683   1.045
86488SOL     OW61237  14.520  13.358   7.706
86488SOL    HW161238  14.532  13.271   7.667
86488SOL    HW261239  14.556  13.418   7.640
86489SOL     OW61240   4.482   7.564   1.156
86489SOL    HW161241   4.534   7.483   1.153
86489SOL    HW261242   4.524   7.621   1.091
86490SOL     OW61243   5.634  12.241   1.908
86490SOL    HW161244   5.550  12.197   1.921
86490SOL    HW261245   5.611  12.333   1.897
86491SOL     OW61246  14.495   5.911   0.297
86491SOL    HW161247  14.520   5.893   0.207
86491SOL    HW261248  14.519   6.003   0.311
86492SOL     OW61249   4.811   7.968   0.911
86492SOL    HW161250   4.867   7.893   0.887
86492SOL    HW261251   4.872   8.030   0.951
86493SOL     OW61252  10.108  11.972   2.733
86493SOL    HW161253  10.204  11.971   2.740
86493SOL    HW261254  10.078  11.989   2.822
86494SOL     OW61255   2.160   3.739   2.652
86494SOL    HW161256   2.196   3.732   2.564
86494SOL    HW261257   2.222   3.692   2.707
86495SOL     OW61258   1.884  12.738   9.391
86495SOL    HW161259   1.811  12.764   9.448
86495SOL    HW261260   1.953  12.711   9.451
86496SOL     OW61261  12.377  11.178   9.158
86496SOL    HW161262  12.365  11.271   9.178
86496SOL    HW261263  12.426  11.144   9.233
86497SOL     OW61264  12.308   7.776   4.802
86497SOL    HW161265  12.321   7.716   4.876
86497SOL    HW261266  12.213   7.787   4.797
86498SOL     OW61267   6.980   2.136   8.061
86498SOL    HW161268   7.001   2.113   7.970
86498SOL    HW261269   7.064   2.160   8.100
86499SOL     OW61270   8.190   8.422  13.782
86499SOL    HW161271   8.129   8.496  13.770
86499SOL    HW261272   8.133   8.347  13.799
86500SOL     OW61273   8.909   6.793   8.025
86500SOL    HW161274   8.861   6.710   8.030
86500SOL    HW261275   8.899   6.831   8.112
86501SOL     OW61276   6.657  13.090  13.974
86501SOL    HW161277   6.633  13.182  13.966
86501SOL    HW261278   6.734  13.080  13.919
86502SOL     OW61279   3.216   1.414   1.310
86502SOL    HW161280   3.293   1.377   1.268
86502SOL    HW261281   3.195   1.353   1.381
86503SOL     OW61282  11.036   6.512   0.863
86503SOL    HW161283  11.096   6.582   0.836
86503SOL    HW261284  11.058   6.438   0.806
86504SOL     OW61285   8.838   5.818  11.256
86504SOL    HW161286   8.817   5.854  11.170
86504SOL    HW261287   8.843   5.894  11.314
86505SOL     OW61288  12.503   1.124   1.465
86505SOL    HW161289  12.462   1.063   1.404
86505SOL    HW261290  12.502   1.208   1.420
86506SOL     OW61291  14.643   0.083  13.867
86506SOL    HW161292  14.675   0.054  13.782
86506SOL    HW261293  14.708   0.052  13.929
86507SOL     OW61294   2.153   6.547   2.782
86507SOL    HW161295   2.158   6.621   2.722
86507SOL    HW261296   2.093   6.486   2.740
86508SOL     OW61297   1.258   7.406  12.483
86508SOL    HW161298   1.326   7.411  12.550
86508SOL    HW261299   1.273   7.482  12.427
86509SOL     OW61300   3.979   5.630  10.093
86509SOL    HW161301   4.009   5.720  10.083
86509SOL    HW261302   4.030   5.580  10.029
86510SOL     OW61303   6.466  14.787   5.059
86510SOL    HW161304   6.385  14.776   5.110
86510SOL    HW261305   6.444  14.751   4.973
86511SOL     OW61306   6.466  10.236  10.825
86511SOL    HW161307   6.552  10.233  10.783
86511SOL    HW261308   6.485  10.260  10.915
86512SOL     OW61309  14.191   2.094  14.370
86512SOL    HW161310  14.283   2.109  14.392
86512SOL    HW261311  14.150   2.066  14.452
86513SOL     OW61312   4.484   5.344  10.166
86513SOL    HW161313   4.531   5.261  10.177
86513SOL    HW261314   4.444   5.338  10.079
86514SOL     OW61315   2.010  12.699   3.818
86514SOL    HW161316   2.053  12.688   3.734
86514SOL    HW261317   1.916  12.700   3.797
86515SOL     OW61318   5.511  10.361   6.019
86515SOL    HW161319   5.603  10.383   6.001
86515SOL    HW261320   5.494  10.402   6.104
86516SOL     OW61321   8.269  14.488   1.774
86516SOL    HW161322   8.340  14.491   1.838
86516SOL    HW261323   8.206  14.554   1.804
86517SOL     OW61324   0.902   8.766   1.453
86517SOL    HW161325   0.975   8.721   1.495
86517SOL    HW261326   0.824   8.731   1.496
86518SOL     OW61327  11.405   5.074   6.009
86518SOL    HW161328  11.340   5.011   6.040
86518SOL    HW261329  11.489   5.035   6.032
86519SOL     OW61330   8.654   7.556   3.704
86519SOL    HW161331   8.677   7.627   3.644
86519SOL    HW261332   8.669   7.592   3.792
86520SOL     OW61333  12.976  10.085   3.679
86520SOL    HW161334  12.952  10.174   3.703
86520SOL    HW261335  12.922  10.029   3.735
86521SOL     OW61336   3.013   6.014   3.230
86521SOL    HW161337   2.968   6.010   3.314
86521SOL    HW261338   2.972   5.947   3.177
86522SOL     OW61339  11.952   2.619  10.545
86522SOL    HW161340  11.858   2.639  10.542
86522SOL    HW261341  11.994   2.696  10.509
86523SOL     OW61342  11.601   2.172   9.851
86523SOL    HW161343  11.608   2.111   9.924
86523SOL    HW261344  11.676   2.231   9.861
86524SOL     OW61345   8.486   8.987   9.088
86524SOL    HW161346   8.426   9.051   9.052
86524SOL    HW261347   8.501   9.015   9.178
86525SOL     OW61348   9.178   5.707   9.163
86525SOL    HW161349   9.268   5.739   9.162
86525SOL    HW261350   9.179   5.639   9.231
86526SOL     OW61351  11.926   5.082  14.598
86526SOL    HW161352  11.832   5.098  14.611
86526SOL    HW261353  11.930   5.025  14.522
86527SOL     OW61354  12.572  12.376   5.885
86527SOL    HW161355  12.592  12.386   5.978
86527SOL    HW261356  12.656  12.354   5.844
86528SOL     OW61357  10.274   9.547  13.141
86528SOL    HW161358  10.217   9.606  13.190
86528SOL    HW261359  10.271   9.579  13.051
86529SOL     OW61360  14.198  14.469   7.522
86529SOL    HW161361  14.130  14.528   7.490
86529SOL    HW261362  14.280  14.518   7.510
86530SOL     OW61363  13.794  14.501  10.168
86530SOL    HW161364  13.738  14.570  10.204
86530SOL    HW261365  13.845  14.471  10.243
86531SOL     OW61366   2.776   3.132   1.458
86531SOL    HW161367   2.792   3.045   1.422
86531SOL    HW261368   2.694   3.160   1.417
86532SOL     OW61369   5.706  14.694   5.455
86532SOL    HW161370   5.641  14.668   5.391
86532SOL    HW261371   5.709  14.622   5.519
86533SOL     OW61372   6.616  11.557   0.718
86533SOL    HW161373   6.672  11.539   0.643
86533SOL    HW261374   6.664  11.521   0.793
86534SOL     OW61375   2.409   2.648   2.551
86534SOL    HW161376   2.484   2.658   2.493
86534SOL    HW261377   2.428   2.568   2.600
86535SOL     OW61378  12.838  14.609   2.367
86535SOL    HW161379  12.864  14.540   2.428
86535SOL    HW261380  12.916  14.627   2.315
86536SOL     OW61381  13.733   5.884   4.332
86536SOL    HW161382  13.673   5.871   4.258
86536SOL    HW261383  13.677   5.913   4.403
86537SOL     OW61384  14.820   0.371  13.732
86537SOL    HW161385  14.812   0.375  13.636
86537SOL    HW261386  14.796   0.459  13.761
86538SOL     OW61387  13.672   2.785   1.362
86538SOL    HW161388  13.718   2.743   1.290
86538SOL    HW261389  13.642   2.868   1.326
86539SOL     OW61390   1.198   4.572   1.768
86539SOL    HW161391   1.108   4.569   1.737
86539SOL    HW261392   1.244   4.506   1.716
86540SOL     OW61393  12.700   9.862   5.862
86540SOL    HW161394  12.717   9.914   5.784
86540SOL    HW261395  12.623   9.810   5.840
86541SOL     OW61396  10.939  14.711  11.688
86541SOL    HW161397  10.973  14.777  11.749
86541SOL    HW261398  11.017  14.671  11.650
86542SOL     OW61399  10.582   7.100   2.798
86542SOL    HW161400  10.610   7.175   2.744
86542SOL    HW261401  10.533   7.044   2.737
86543SOL     OW61402  12.220   4.945   5.072
86543SOL    HW161403  12.199   4.914   5.160
86543SOL    HW261404  12.161   5.019   5.058
86544SOL     OW61405  13.482   7.782   1.461
86544SOL    HW161406  13.568   7.824   1.455
86544SOL    HW261407  13.423   7.851   1.489
86545SOL     OW61408   3.009   0.758  10.790
86545SOL    HW161409   3.023   0.838  10.740
86545SOL    HW261410   2.929   0.720  10.754
86546SOL     OW61411   8.882   5.103  10.478
86546SOL    HW161412   8.892   5.014  10.512
86546SOL    HW261413   8.879   5.092  10.383
86547SOL     OW61414   0.914   4.325   2.199
86547SOL    HW161415   1.001   4.339   2.235
86547SOL    HW261416   0.886   4.242   2.236
86548SOL     OW61417   0.789  12.401   6.097
86548SOL    HW161418   0.846  12.391   6.173
86548SOL    HW261419   0.849  12.414   6.023
86549SOL     OW61420  14.562   7.444  13.898
86549SOL    HW161421  14.635   7.410  13.950
86549SOL    HW261422  14.579   7.412  13.810
86550SOL     OW61423   8.060  13.349   5.012
86550SOL    HW161424   8.134  13.408   5.022
86550SOL    HW261425   8.006  13.364   5.090
86551SOL     OW61426   7.186  13.490  13.434
86551SOL    HW161427   7.119  13.456  13.375
86551SOL    HW261428   7.138  13.548  13.493
86552SOL     OW61429  11.117   8.743   0.842
86552SOL    HW161430  11.151   8.832   0.848
86552SOL    HW261431  11.148   8.699   0.921
86553SOL     OW61432   2.435   3.685   9.414
86553SOL    HW161433   2.383   3.637   9.349
86553SOL    HW261434   2.372   3.744   9.455
86554SOL     OW61435   8.174  14.718   4.077
86554SOL    HW161436   8.091  14.730   4.123
86554SOL    HW261437   8.161  14.639   4.025
86555SOL     OW61438   7.725   7.898  11.247
86555SOL    HW161439   7.774   7.977  11.268
86555SOL    HW261440   7.722   7.896  11.151
86556SOL     OW61441  12.273  12.250   2.499
86556SOL    HW161442  12.195  12.195   2.486
86556SOL    HW261443  12.243  12.324   2.552
86557SOL     OW61444   8.375  11.964   7.831
86557SOL    HW161445   8.297  11.926   7.871
86557SOL    HW261446   8.427  11.888   7.803
86558SOL     OW61447   1.387  12.996   9.296
86558SOL    HW161448   1.300  12.991   9.256
86558SOL    HW261449   1.441  13.039   9.230
86559SOL     OW61450   1.560   9.181  12.245
86559SOL    HW161451   1.543   9.177  12.151
86559SOL    HW261452   1.550   9.090  12.275
86560SOL     OW61453   3.083   2.693   6.138
86560SOL    HW161454   3.040   2.641   6.206
86560SOL    HW261455   3.034   2.776   6.137
86561SOL     OW61456  12.969   4.260   8.971
86561SOL    HW161457  12.938   4.316   9.043
86561SOL    HW261458  12.954   4.312   8.892
86562SOL     OW61459   1.485   9.033   9.099
86562SOL    HW161460   1.558   8.988   9.143
86562SOL    HW261461   1.528   9.088   9.033
86563SOL     OW61462  10.759  12.818   8.715
86563SOL    HW161463  10.808  12.736   8.724
86563SOL    HW261464  10.771  12.842   8.623
86564SOL     OW61465   6.438   9.043  11.813
86564SOL    HW161466   6.383   8.974  11.777
86564SOL    HW261467   6.380   9.092  11.871
86565SOL     OW61468   8.676   5.569   9.841
86565SOL    HW161469   8.664   5.489   9.892
86565SOL    HW261470   8.588   5.588   9.806
86566SOL     OW61471   7.599   2.315   0.326
86566SOL    HW161472   7.552   2.259   0.265
86566SOL    HW261473   7.647   2.377   0.271
86567SOL     OW61474   7.511  10.774   2.095
86567SOL    HW161475   7.458  10.845   2.132
86567SOL    HW261476   7.530  10.717   2.169
86568SOL     OW61477   6.376  13.783   5.566
86568SOL    HW161478   6.312  13.750   5.629
86568SOL    HW261479   6.324  13.830   5.501
86569SOL     OW61480   3.842   7.884   5.270
86569SOL    HW161481   3.817   7.947   5.337
86569SOL    HW261482   3.917   7.838   5.307
86570SOL     OW61483  10.629   0.443   4.091
86570SOL    HW161484  10.653   0.476   4.178
86570SOL    HW261485  10.536   0.463   4.081
86571SOL     OW61486  14.493   7.572   2.148
86571SOL    HW161487  14.585   7.557   2.171
86571SOL    HW261488  14.492   7.568   2.052
86572SOL     OW61489  10.709  10.448   9.707
86572SOL    HW161490  10.691  10.463   9.800
86572SOL    HW261491  10.640  10.388   9.679
86573SOL     OW61492  11.954   7.073   1.016
86573SOL    HW161493  11.950   6.978   1.027
86573SOL    HW261494  12.024   7.101   1.075
86574SOL     OW61495   2.080   6.167   7.789
86574SOL    HW161496   2.156   6.114   7.765
86574SOL    HW261497   2.007   6.105   7.794
86575SOL     OW61498  11.609   6.604  14.599
86575SOL    HW161499  11.683   6.600  14.659
86575SOL    HW261500  11.535   6.572  14.650
86576SOL     OW61501   0.913   4.179   5.728
86576SOL    HW161502   0.992   4.124   5.725
86576SOL    HW261503   0.936   4.250   5.788
86577SOL     OW61504   4.975   9.338   4.579
86577SOL    HW161505   5.040   9.364   4.645
86577SOL    HW261506   4.974   9.410   4.516
86578SOL     OW61507  10.376   6.246   3.788
86578SOL    HW161508  10.406   6.249   3.879
86578SOL    HW261509  10.455   6.224   3.738
86579SOL     OW61510   6.677   9.836  13.854
86579SOL    HW161511   6.597   9.848  13.905
86579SOL    HW261512   6.647   9.793  13.773
86580SOL     OW61513   0.410   4.338   5.063
86580SOL    HW161514   0.497   4.357   5.098
86580SOL    HW261515   0.405   4.389   4.982
86581SOL     OW61516   3.148  12.285   8.467
86581SOL    HW161517   3.189  12.215   8.516
86581SOL    HW261518   3.149  12.360   8.526
86582SOL     OW61519  10.783  12.198  12.680
86582SOL    HW161520  10.840  12.171  12.752
86582SOL    HW261521  10.773  12.293  12.690
86583SOL     OW61522  14.025   5.243   3.780
86583SOL    HW161523  13.944   5.195   3.766
86583SOL    HW261524  14.090   5.176   3.802
86584SOL     OW61525   3.479  10.278   9.069
86584SOL    HW161526   3.464  10.372   9.073
86584SOL    HW261527   3.568  10.270   9.034
86585SOL     OW61528  11.665  12.256   8.025
86585SOL    HW161529  11.652  12.162   8.010
86585SOL    HW261530  11.722  12.260   8.101
86586SOL     OW61531  14.080   9.059  13.291
86586SOL    HW161532  14.128   9.141  13.277
86586SOL    HW261533  14.146   8.990  13.278
86587SOL     OW61534   1.652   6.601   9.998
86587SOL    HW161535   1.571   6.637  10.036
86587SOL    HW261536   1.631   6.589   9.905
86588SOL     OW61537   1.077   9.755   8.195
86588SOL    HW161538   1.103   9.774   8.285
86588SOL    HW261539   1.019   9.826   8.170
86589SOL     OW61540  10.753   3.892   8.115
86589SOL    HW161541  10.823   3.841   8.155
86589SOL    HW261542  10.798   3.954   8.058
86590SOL     OW61543   3.441   3.689  11.086
86590SOL    HW161544   3.531   3.682  11.118
86590SOL    HW261545   3.410   3.774  11.118
86591SOL     OW61546   7.557   4.294  12.714
86591SOL    HW161547   7.507   4.247  12.647
86591SOL    HW261548   7.579   4.377  12.673
86592SOL     OW61549   9.974  13.799   0.350
86592SOL    HW161550   9.939  13.885   0.374
86592SOL    HW261551   9.904  13.737   0.372
86593SOL     OW61552   5.806   7.000   8.624
86593SOL    HW161553   5.789   7.037   8.711
86593SOL    HW261554   5.732   6.942   8.607
86594SOL     OW61555   1.093  13.444   7.093
86594SOL    HW161556   1.082  13.377   7.026
86594SOL    HW261557   1.169  13.495   7.064
86595SOL     OW61558   0.699  13.733   0.383
86595SOL    HW161559   0.709  13.746   0.478
86595SOL    HW261560   0.733  13.645   0.367
86596SOL     OW61561   1.991   3.893   2.355
86596SOL    HW161562   1.952   3.908   2.442
86596SOL    HW261563   2.082   3.870   2.373
86597SOL     OW61564   0.180   7.971  14.846
86597SOL    HW161565   0.123   7.906  14.806
86597SOL    HW261566   0.215   7.928   0.046
86598SOL     OW61567  11.435  12.671   6.632
86598SOL    HW161568  11.490  12.596   6.607
86598SOL    HW261569  11.400  12.704   6.549
86599SOL     OW61570   8.819  10.455   7.968
86599SOL    HW161571   8.850  10.377   8.015
86599SOL    HW261572   8.895  10.513   7.965
86600SOL     OW61573  11.159  10.980  12.900
86600SOL    HW161574  11.208  10.947  12.976
86600SOL    HW261575  11.157  11.075  12.912
86601SOL     OW61576   4.226   8.144   8.772
86601SOL    HW161577   4.198   8.060   8.807
86601SOL    HW261578   4.215   8.205   8.845
86602SOL     OW61579   9.779   7.891   3.482
86602SOL    HW161580   9.707   7.908   3.543
86602SOL    HW261581   9.748   7.818   3.428
86603SOL     OW61582   4.959  14.550  11.049
86603SOL    HW161583   5.009  14.470  11.067
86603SOL    HW261584   4.893  14.553  11.118
86604SOL     OW61585   9.030  11.791   3.414
86604SOL    HW161586   9.089  11.785   3.339
86604SOL    HW261587   8.967  11.859   3.389
86605SOL     OW61588   1.035  10.338   2.404
86605SOL    HW161589   1.001  10.343   2.493
86605SOL    HW261590   0.999  10.415   2.360
86606SOL     OW61591   5.861   8.078   1.566
86606SOL    HW161592   5.832   8.166   1.540
86606SOL    HW261593   5.917   8.049   1.493
86607SOL     OW61594   5.866   9.327   8.852
86607SOL    HW161595   5.778   9.328   8.888
86607SOL    HW261596   5.855   9.348   8.759
86608SOL     OW61597   2.022  14.677  11.551
86608SOL    HW161598   2.097  14.628  11.517
86608SOL    HW261599   2.008  14.641  11.639
86609SOL     OW61600   0.113  10.118  10.544
86609SOL    HW161601   0.048  10.158  10.486
86609SOL    HW261602   0.061  10.066  10.605
86610SOL     OW61603   6.856  14.608   7.084
86610SOL    HW161604   6.880  14.676   7.022
86610SOL    HW261605   6.829  14.655   7.163
86611SOL     OW61606  13.360  14.556  11.652
86611SOL    HW161607  13.404  14.549  11.567
86611SOL    HW261608  13.421  14.516  11.714
86612SOL     OW61609   1.304  12.102  10.916
86612SOL    HW161610   1.299  12.100  10.820
86612SOL    HW261611   1.242  12.035  10.945
86613SOL     OW61612   8.793   3.709   0.792
86613SOL    HW161613   8.833   3.780   0.741
86613SOL    HW261614   8.724   3.675   0.735
86614SOL     OW61615   1.290  13.647   8.321
86614SOL    HW161616   1.270  13.721   8.378
86614SOL    HW261617   1.384  13.656   8.303
86615SOL     OW61618  14.237   5.919   3.133
86615SOL    HW161619  14.331   5.902   3.120
86615SOL    HW261620  14.232   5.954   3.222
86616SOL     OW61621   1.902  13.292   0.945
86616SOL    HW161622   1.926  13.203   0.917
86616SOL    HW261623   1.969  13.347   0.905
86617SOL     OW61624   1.987   1.172  10.121
86617SOL    HW161625   1.956   1.081  10.112
86617SOL    HW261626   1.913   1.218  10.160
86618SOL     OW61627   9.983  11.646   1.959
86618SOL    HW161628   9.980  11.627   2.053
86618SOL    HW261629   9.999  11.561   1.918
86619SOL     OW61630   9.216   9.801  13.189
86619SOL    HW161631   9.152   9.862  13.226
86619SOL    HW261632   9.165   9.747  13.129
86620SOL     OW61633   3.317   3.827   7.683
86620SOL    HW161634   3.329   3.913   7.644
86620SOL    HW261635   3.234   3.795   7.647
86621SOL     OW61636   7.772   0.580   1.081
86621SOL    HW161637   7.843   0.517   1.097
86621SOL    HW261638   7.694   0.526   1.069
86622SOL     OW61639   9.738   8.350  13.208
86622SOL    HW161640   9.784   8.432  13.189
86622SOL    HW261641   9.664   8.377  13.262
86623SOL     OW61642  14.829  12.841  12.260
86623SOL    HW161643  14.803  12.836  12.352
86623SOL    HW261644  14.850  12.933  12.245
86624SOL     OW61645   6.813   0.851   5.217
86624SOL    HW161646   6.811   0.818   5.127
86624SOL    HW261647   6.735   0.907   5.224
86625SOL     OW61648  11.511   7.796   8.075
86625SOL    HW161649  11.494   7.702   8.076
86625SOL    HW261650  11.604   7.804   8.052
86626SOL     OW61651   4.629  11.695  14.722
86626SOL    HW161652   4.704  11.725  14.774
86626SOL    HW261653   4.603  11.613  14.764
86627SOL     OW61654   6.347  11.846   2.482
86627SOL    HW161655   6.323  11.923   2.429
86627SOL    HW261656   6.353  11.775   2.419
86628SOL     OW61657   5.835   3.901   4.889
86628SOL    HW161658   5.916   3.854   4.870
86628SOL    HW261659   5.798   3.921   4.803
86629SOL     OW61660  13.043   9.251   6.395
86629SOL    HW161661  13.034   9.262   6.490
86629SOL    HW261662  13.012   9.161   6.379
86630SOL     OW61663   8.767   8.282   2.157
86630SOL    HW161664   8.837   8.232   2.114
86630SOL    HW261665   8.705   8.215   2.186
86631SOL     OW61666  12.833   5.305   8.247
86631SOL    HW161667  12.804   5.282   8.159
86631SOL    HW261668  12.925   5.331   8.236
86632SOL     OW61669   0.514   1.384   8.923
86632SOL    HW161670   0.423   1.413   8.933
86632SOL    HW261671   0.542   1.359   9.011
86633SOL     OW61672   9.324   9.693   5.115
86633SOL    HW161673   9.397   9.751   5.136
86633SOL    HW261674   9.279   9.680   5.199
86634SOL     OW61675   4.884   2.352  12.585
86634SOL    HW161676   4.819   2.392  12.527
86634SOL    HW261677   4.832   2.297  12.644
86635SOL     OW61678   0.547   7.241  11.460
86635SOL    HW161679   0.554   7.174  11.391
86635SOL    HW261680   0.464   7.285  11.441
86636SOL     OW61681   1.790   6.918   2.670
86636SOL    HW161682   1.849   6.889   2.739
86636SOL    HW261683   1.831   6.997   2.636
86637SOL     OW61684   6.861   4.956   3.913
86637SOL    HW161685   6.933   4.992   3.860
86637SOL    HW261686   6.903   4.926   3.993
86638SOL     OW61687   1.824  11.293   3.632
86638SOL    HW161688   1.860  11.236   3.564
86638SOL    HW261689   1.900  11.338   3.668
86639SOL     OW61690  12.016   0.692  11.310
86639SOL    HW161691  12.014   0.701  11.405
86639SOL    HW261692  11.931   0.727  11.281
86640SOL     OW61693   9.385  11.833   8.097
86640SOL    HW161694   9.425  11.919   8.083
86640SOL    HW261695   9.451  11.783   8.144
86641SOL     OW61696   7.713   3.943   8.893
86641SOL    HW161697   7.624   3.961   8.863
86641SOL    HW261698   7.753   4.029   8.902
86642SOL     OW61699  11.442   1.376   8.760
86642SOL    HW161700  11.444   1.454   8.704
86642SOL    HW261701  11.352   1.371   8.792
86643SOL     OW61702   6.419   7.904   7.220
86643SOL    HW161703   6.496   7.847   7.211
86643SOL    HW261704   6.421   7.934   7.311
86644SOL     OW61705   7.522   8.567   0.900
86644SOL    HW161706   7.526   8.483   0.853
86644SOL    HW261707   7.499   8.543   0.990
86645SOL     OW61708   8.483   1.934   8.191
86645SOL    HW161709   8.416   1.893   8.246
86645SOL    HW261710   8.501   2.018   8.235
86646SOL     OW61711   8.115  12.046  14.633
86646SOL    HW161712   8.199  12.067  14.593
86646SOL    HW261713   8.056  12.114  14.601
86647SOL     OW61714   9.934  12.888   8.590
86647SOL    HW161715   9.966  12.888   8.681
86647SOL    HW261716   9.859  12.947   8.591
86648SOL     OW61717   4.796   0.356   4.132
86648SOL    HW161718   4.724   0.298   4.161
86648SOL    HW261719   4.829   0.314   4.052
86649SOL     OW61720  12.053   8.682   9.433
86649SOL    HW161721  12.049   8.607   9.491
86649SOL    HW261722  12.142   8.680   9.397
86650SOL     OW61723   3.974   4.217   0.641
86650SOL    HW161724   3.970   4.300   0.593
86650SOL    HW261725   3.990   4.242   0.732
86651SOL     OW61726   8.311   6.766   9.975
86651SOL    HW161727   8.253   6.695   9.946
86651SOL    HW261728   8.309   6.830   9.904
86652SOL     OW61729  12.364   3.612   2.940
86652SOL    HW161730  12.359   3.554   3.015
86652SOL    HW261731  12.331   3.560   2.867
86653SOL     OW61732   0.361   1.984   0.877
86653SOL    HW161733   0.397   2.061   0.834
86653SOL    HW261734   0.418   1.968   0.951
86654SOL     OW61735   0.450  12.342   9.452
86654SOL    HW161736   0.365  12.342   9.498
86654SOL    HW261737   0.427  12.357   9.361
86655SOL     OW61738   0.313  11.540   6.013
86655SOL    HW161739   0.285  11.623   5.974
86655SOL    HW261740   0.374  11.502   5.949
86656SOL     OW61741   4.965   0.470   0.316
86656SOL    HW161742   5.057   0.489   0.300
86656SOL    HW261743   4.933   0.547   0.362
86657SOL     OW61744   6.123   0.977   4.399
86657SOL    HW161745   6.046   0.932   4.434
86657SOL    HW261746   6.088   1.033   4.329
86658SOL     OW61747   9.612   3.160   3.748
86658SOL    HW161748   9.550   3.173   3.676
86658SOL    HW261749   9.559   3.173   3.827
86659SOL     OW61750   2.812  13.338   5.414
86659SOL    HW161751   2.814  13.333   5.509
86659SOL    HW261752   2.841  13.427   5.394
86660SOL     OW61753   4.085   8.924   2.543
86660SOL    HW161754   4.067   9.018   2.543
86660SOL    HW261755   4.013   8.886   2.493
86661SOL     OW61756   1.512   7.852  13.576
86661SOL    HW161757   1.445   7.911  13.611
86661SOL    HW261758   1.592   7.904  13.575
86662SOL     OW61759  14.391   5.687  10.059
86662SOL    HW161760  14.318   5.631  10.086
86662SOL    HW261761  14.349   5.766  10.026
86663SOL     OW61762   8.515   9.406   7.706
86663SOL    HW161763   8.532   9.474   7.640
86663SOL    HW261764   8.599   9.393   7.750
86664SOL     OW61765   7.586   9.701   9.777
86664SOL    HW161766   7.597   9.796   9.780
86664SOL    HW261767   7.496   9.686   9.807
86665SOL     OW61768  14.314  14.094  12.059
86665SOL    HW161769  14.239  14.124  12.008
86665SOL    HW261770  14.275  14.040  12.128
86666SOL     OW61771   1.438  10.240   3.811
86666SOL    HW161772   1.508  10.259   3.873
86666SOL    HW261773   1.478  10.181   3.747
86667SOL     OW61774   6.026  10.711   8.067
86667SOL    HW161775   6.108  10.707   8.017
86667SOL    HW261776   6.015  10.804   8.086
86668SOL     OW61777  12.531  12.436   3.686
86668SOL    HW161778  12.610  12.382   3.689
86668SOL    HW261779  12.507  12.449   3.777
86669SOL     OW61780   9.763   5.573   8.097
86669SOL    HW161781   9.855   5.550   8.112
86669SOL    HW261782   9.767   5.654   8.046
86670SOL     OW61783   5.322  12.025  10.891
86670SOL    HW161784   5.353  11.949  10.939
86670SOL    HW261785   5.381  12.096  10.918
86671SOL     OW61786   1.842   9.999   8.305
86671SOL    HW161787   1.856   9.906   8.321
86671SOL    HW261788   1.925  10.030   8.269
86672SOL     OW61789  10.398   0.175   2.133
86672SOL    HW161790  10.370   0.238   2.066
86672SOL    HW261791  10.364   0.210   2.215
86673SOL     OW61792   6.387   2.602   6.544
86673SOL    HW161793   6.362   2.661   6.615
86673SOL    HW261794   6.372   2.652   6.464
86674SOL     OW61795  10.160   8.838   1.276
86674SOL    HW161796  10.133   8.915   1.325
86674SOL    HW261797  10.088   8.776   1.288
86675SOL     OW61798   6.490  12.511   1.494
86675SOL    HW161799   6.516  12.420   1.507
86675SOL    HW261800   6.567  12.553   1.457
86676SOL     OW61801  10.688  14.822  11.644
86676SOL    HW161802  10.778  14.791  11.648
86676SOL    HW261803  10.695   0.033  11.607
86677SOL     OW61804   0.081   6.206   8.029
86677SOL    HW161805   0.038   6.121   8.021
86677SOL    HW261806   0.174   6.188   8.015
86678SOL     OW61807  13.853  11.432   0.321
86678SOL    HW161808  13.945  11.460   0.321
86678SOL    HW261809  13.833  11.414   0.229
86679SOL     OW61810   1.324   7.855   9.261
86679SOL    HW161811   1.253   7.902   9.218
86679SOL    HW261812   1.403   7.882   9.214
86680SOL     OW61813   3.916   0.725  14.003
86680SOL    HW161814   3.907   0.815  14.036
86680SOL    HW261815   3.902   0.670  14.081
86681SOL     OW61816   4.253   9.943  14.574
86681SOL    HW161817   4.162   9.913  14.569
86681SOL    HW261818   4.304   9.873  14.533
86682SOL     OW61819   6.068   5.560   3.323
86682SOL    HW161820   6.045   5.570   3.230
86682SOL    HW261821   6.163   5.560   3.324
86683SOL     OW61822   2.874  11.292   4.563
86683SOL    HW161823   2.917  11.377   4.564
86683SOL    HW261824   2.781  11.312   4.573
86684SOL     OW61825   7.277  10.019   6.761
86684SOL    HW161826   7.245  10.012   6.851
86684SOL    HW261827   7.223   9.957   6.711
86685SOL     OW61828  14.002   7.574   6.253
86685SOL    HW161829  14.054   7.634   6.306
86685SOL    HW261830  14.029   7.591   6.163
86686SOL     OW61831  14.523   1.098  13.803
86686SOL    HW161832  14.555   1.183  13.773
86686SOL    HW261833  14.526   1.103  13.898
86687SOL     OW61834  12.537  12.557   0.565
86687SOL    HW161835  12.630  12.544   0.550
86687SOL    HW261836  12.524  12.651   0.559
86688SOL     OW61837   6.803   8.598   3.106
86688SOL    HW161838   6.818   8.504   3.100
86688SOL    HW261839   6.779   8.624   3.017
86689SOL     OW61840   1.268   9.101   0.598
86689SOL    HW161841   1.248   9.156   0.674
86689SOL    HW261842   1.231   9.148   0.523
86690SOL     OW61843  13.561   9.079  11.896
86690SOL    HW161844  13.534   9.108  11.983
86690SOL    HW261845  13.479   9.066  11.848
86691SOL     OW61846   2.186  11.801   2.451
86691SOL    HW161847   2.143  11.834   2.372
86691SOL    HW261848   2.145  11.850   2.523
86692SOL     OW61849  12.487   4.137   0.625
86692SOL    HW161850  12.409   4.191   0.624
86692SOL    HW261851  12.558   4.198   0.643
86693SOL     OW61852   8.494   9.263  12.477
86693SOL    HW161853   8.577   9.305  12.499
86693SOL    HW261854   8.476   9.205  12.550
86694SOL     OW61855   2.040   6.880   9.129
86694SOL    HW161856   2.073   6.874   9.039
86694SOL    HW261857   2.109   6.928   9.176
86695SOL     OW61858  13.913   6.991   9.860
86695SOL    HW161859  13.999   7.019   9.828
86695SOL    HW261860  13.862   6.976   9.781
86696SOL     OW61861  11.172  10.157   7.669
86696SOL    HW161862  11.214  10.109   7.598
86696SOL    HW261863  11.225  10.137   7.746
86697SOL     OW61864  11.477   5.389   9.334
86697SOL    HW161865  11.409   5.328   9.303
86697SOL    HW261866  11.429   5.458   9.380
86698SOL     OW61867   4.428  10.589   0.328
86698SOL    HW161868   4.460  10.537   0.401
86698SOL    HW261869   4.498  10.586   0.262
86699SOL     OW61870   0.316   2.219  10.333
86699SOL    HW161871   0.404   2.201  10.300
86699SOL    HW261872   0.258   2.204  10.259
86700SOL     OW61873   3.315   0.245   9.872
86700SOL    HW161874   3.284   0.335   9.870
86700SOL    HW261875   3.235   0.192   9.874
86701SOL     OW61876   6.842   3.639  13.446
86701SOL    HW161877   6.831   3.710  13.509
86701SOL    HW261878   6.871   3.683  13.366
86702SOL     OW61879  10.533   4.212   6.308
86702SOL    HW161880  10.513   4.122   6.284
86702SOL    HW261881  10.470   4.264   6.258
86703SOL     OW61882  10.965   8.171  13.817
86703SOL    HW161883  10.964   8.133  13.729
86703SOL    HW261884  10.908   8.114  13.868
86704SOL     OW61885   4.384   3.201  14.307
86704SOL    HW161886   4.376   3.267  14.238
86704SOL    HW261887   4.296   3.193  14.344
86705SOL     OW61888  10.594   4.571  13.255
86705SOL    HW161889  10.673   4.623  13.269
86705SOL    HW261890  10.573   4.536  13.341
86706SOL     OW61891  13.381  14.064   0.742
86706SOL    HW161892  13.465  14.109   0.731
86706SOL    HW261893  13.393  13.980   0.696
86707SOL     OW61894   9.567  13.897   7.015
86707SOL    HW161895   9.590  13.804   7.014
86707SOL    HW261896   9.647  13.942   6.990
86708SOL     OW61897   0.234   0.151   3.779
86708SOL    HW161898   0.240   0.114   3.691
86708SOL    HW261899   0.324   0.161   3.808
86709SOL     OW61900   7.457   3.984   9.908
86709SOL    HW161901   7.414   4.065   9.879
86709SOL    HW261902   7.537   3.979   9.855
86710SOL     OW61903   7.905   7.429   0.150
86710SOL    HW161904   7.823   7.474   0.165
86710SOL    HW261905   7.908   7.360   0.216
86711SOL     OW61906   5.378   6.662   2.760
86711SOL    HW161907   5.467   6.690   2.737
86711SOL    HW261908   5.327   6.679   2.681
86712SOL     OW61909   6.925   0.102  10.002
86712SOL    HW161910   7.012   0.143   9.999
86712SOL    HW261911   6.937   0.019   9.956
86713SOL     OW61912  13.858   4.341  14.348
86713SOL    HW161913  13.938   4.288  14.343
86713SOL    HW261914  13.888   4.431  14.351
86714SOL     OW61915   4.847   3.747  13.867
86714SOL    HW161916   4.921   3.799  13.900
86714SOL    HW261917   4.805   3.714  13.946
86715SOL     OW61918  11.339  13.937  12.886
86715SOL    HW161919  11.270  13.933  12.952
86715SOL    HW261920  11.370  14.028  12.890
86716SOL     OW61921   7.734   9.919  11.335
86716SOL    HW161922   7.819   9.936  11.376
86716SOL    HW261923   7.671   9.965  11.391
86717SOL     OW61924   9.711   0.318  12.450
86717SOL    HW161925   9.645   0.286  12.388
86717SOL    HW261926   9.721   0.411  12.428
86718SOL     OW61927   5.919   3.101   2.554
86718SOL    HW161928   5.886   3.080   2.642
86718SOL    HW261929   5.868   3.045   2.496
86719SOL     OW61930   4.684   7.444   5.612
86719SOL    HW161931   4.676   7.362   5.661
86719SOL    HW261932   4.779   7.458   5.606
86720SOL     OW61933  12.453   2.370  12.699
86720SOL    HW161934  12.454   2.354  12.605
86720SOL    HW261935  12.488   2.458  12.709
86721SOL     OW61936   3.927  13.383   2.425
86721SOL    HW161937   3.985  13.335   2.483
86721SOL    HW261938   3.942  13.343   2.339
86722SOL     OW61939   6.363  11.610   2.345
86722SOL    HW161940   6.397  11.543   2.403
86722SOL    HW261941   6.268  11.600   2.350
86723SOL     OW61942  14.246   0.176   8.146
86723SOL    HW161943  14.327   0.174   8.196
86723SOL    HW261944  14.183   0.220   8.203
86724SOL     OW61945   2.729   3.753  10.110
86724SOL    HW161946   2.663   3.722  10.172
86724SOL    HW261947   2.685   3.754  10.025
86725SOL     OW61948   4.904   7.510   6.001
86725SOL    HW161949   4.924   7.422   5.970
86725SOL    HW261950   4.915   7.505   6.096
86726SOL     OW61951   0.848  12.771  10.394
86726SOL    HW161952   0.788  12.783  10.468
86726SOL    HW261953   0.930  12.813  10.424
86727SOL     OW61954   0.764  11.687  14.260
86727SOL    HW161955   0.765  11.601  14.219
86727SOL    HW261956   0.788  11.748  14.189
86728SOL     OW61957  13.727   4.429   3.764
86728SOL    HW161958  13.643   4.394   3.794
86728SOL    HW261959  13.792   4.384   3.819
86729SOL     OW61960   1.048   2.556   4.170
86729SOL    HW161961   1.014   2.480   4.219
86729SOL    HW261962   1.100   2.604   4.234
86730SOL     OW61963  13.310  10.886   9.997
86730SOL    HW161964  13.267  10.939  10.065
86730SOL    HW261965  13.402  10.914  10.001
86731SOL     OW61966  10.663  10.331  12.532
86731SOL    HW161967  10.744  10.380  12.546
86731SOL    HW261968  10.687  10.259  12.474
86732SOL     OW61969  10.613  10.824   1.778
86732SOL    HW161970  10.617  10.730   1.796
86732SOL    HW261971  10.547  10.833   1.709
86733SOL     OW61972  10.032   2.474   5.595
86733SOL    HW161973  10.091   2.506   5.663
86733SOL    HW261974  10.034   2.379   5.604
86734SOL     OW61975   4.987   9.266   4.067
86734SOL    HW161976   4.905   9.279   4.113
86734SOL    HW261977   5.012   9.354   4.038
86735SOL     OW61978   8.187   4.945  12.059
86735SOL    HW161979   8.243   4.948  12.136
86735SOL    HW261980   8.103   4.982  12.087
86736SOL     OW61981   0.337   1.062   4.717
86736SOL    HW161982   0.395   1.120   4.668
86736SOL    HW261983   0.359   1.078   4.809
86737SOL     OW61984  10.677  13.761   2.134
86737SOL    HW161985  10.719  13.821   2.194
86737SOL    HW261986  10.641  13.691   2.189
86738SOL     OW61987   4.501  13.226  12.396
86738SOL    HW161988   4.434  13.157  12.401
86738SOL    HW261989   4.577  13.188  12.440
86739SOL     OW61990   7.686   1.986   0.560
86739SOL    HW161991   7.667   2.034   0.640
86739SOL    HW261992   7.716   1.900   0.590
86740SOL     OW61993   6.177   0.445   1.515
86740SOL    HW161994   6.259   0.455   1.565
86740SOL    HW261995   6.108   0.450   1.581
86741SOL     OW61996   8.402  12.750   0.648
86741SOL    HW161997   8.377  12.659   0.634
86741SOL    HW261998   8.374  12.769   0.738
86742SOL     OW61999  14.692   9.236   8.951
86742SOL    HW162000  14.605   9.216   8.985
86742SOL    HW262001  14.751   9.179   9.000
86743SOL     OW62002   4.992  11.975   0.859
86743SOL    HW162003   5.055  11.972   0.931
86743SOL    HW262004   5.021  12.049   0.805
86744SOL     OW62005   4.366   8.544   3.667
86744SOL    HW162006   4.345   8.634   3.643
86744SOL    HW262007   4.369   8.497   3.583
86745SOL     OW62008  12.054  12.734  14.689
86745SOL    HW162009  12.063  12.671  14.617
86745SOL    HW262010  11.970  12.777  14.674
86746SOL     OW62011   2.695  13.041  10.922
86746SOL    HW162012   2.680  12.960  10.971
86746SOL    HW262013   2.630  13.102  10.956
86747SOL     OW62014   6.734   3.457   2.101
86747SOL    HW162015   6.688   3.375   2.083
86747SOL    HW262016   6.684   3.523   2.054
86748SOL     OW62017   7.330   2.911   0.103
86748SOL    HW162018   7.370   2.848   0.043
86748SOL    HW262019   7.236   2.902   0.089
86749SOL     OW62020   3.119   8.818  11.685
86749SOL    HW162021   3.135   8.902  11.728
86749SOL    HW262022   3.041   8.833  11.631
86750SOL     OW62023   2.151   7.205   0.705
86750SOL    HW162024   2.237   7.189   0.666
86750SOL    HW262025   2.170   7.242   0.791
86751SOL     OW62026   2.016   2.972  12.881
86751SOL    HW162027   1.961   3.051  12.875
86751SOL    HW262028   1.958   2.906  12.918
86752SOL     OW62029   4.774   0.172   3.810
86752SOL    HW162030   4.757   0.123   3.730
86752SOL    HW262031   4.702   0.147   3.869
86753SOL     OW62032  10.149  14.604   6.083
86753SOL    HW162033  10.143  14.555   6.166
86753SOL    HW262034  10.112  14.545   6.018
86754SOL     OW62035  12.535   2.455   4.449
86754SOL    HW162036  12.575   2.383   4.400
86754SOL    HW262037  12.597   2.527   4.443
86755SOL     OW62038  12.664   1.579   0.224
86755SOL    HW162039  12.622   1.493   0.230
86755SOL    HW262040  12.635   1.615   0.140
86756SOL     OW62041   8.653   7.151   2.083
86756SOL    HW162042   8.645   7.070   2.033
86756SOL    HW262043   8.595   7.213   2.038
86757SOL     OW62044   7.375  13.400   7.359
86757SOL    HW162045   7.336  13.452   7.430
86757SOL    HW262046   7.304  13.388   7.296
86758SOL     OW62047   6.087   4.044  12.659
86758SOL    HW162048   6.176   4.076  12.644
86758SOL    HW262049   6.077   4.044  12.754
86759SOL     OW62050   1.449  11.323  13.074
86759SOL    HW162051   1.496  11.375  13.138
86759SOL    HW262052   1.514  11.303  13.006
86760SOL     OW62053   9.424  14.095   0.193
86760SOL    HW162054   9.410  14.128   0.282
86760SOL    HW262055   9.460  14.008   0.205
86761SOL     OW62056   4.432   8.275   3.736
86761SOL    HW162057   4.507   8.257   3.679
86761SOL    HW262058   4.408   8.366   3.716
86762SOL     OW62059   6.712   5.266  14.247
86762SOL    HW162060   6.740   5.319  14.172
86762SOL    HW262061   6.616   5.270  14.244
86763SOL     OW62062  13.490  12.188  10.744
86763SOL    HW162063  13.523  12.180  10.654
86763SOL    HW262064  13.397  12.168  10.737
86764SOL     OW62065   3.093   0.012   6.598
86764SOL    HW162066   3.034   0.019   6.523
86764SOL    HW262067   3.172   0.058   6.571
86765SOL     OW62068   5.065   8.874  11.842
86765SOL    HW162069   4.979   8.915  11.855
86765SOL    HW262070   5.048   8.802  11.781
86766SOL     OW62071   2.802   1.719  11.304
86766SOL    HW162072   2.856   1.737  11.228
86766SOL    HW262073   2.770   1.630  11.290
86767SOL     OW62074   2.949   2.538   4.097
86767SOL    HW162075   2.917   2.455   4.131
86767SOL    HW262076   2.987   2.516   4.012
86768SOL     OW62077   2.330   9.868   9.025
86768SOL    HW162078   2.287   9.903   9.102
86768SOL    HW262079   2.421   9.898   9.032
86769SOL     OW62080   7.630   1.791   6.580
86769SOL    HW162081   7.579   1.827   6.653
86769SOL    HW262082   7.719   1.824   6.596
86770SOL     OW62083   8.990   7.698  10.836
86770SOL    HW162084   8.938   7.665  10.909
86770SOL    HW262085   8.958   7.788  10.823
86771SOL     OW62086   3.822   5.308  13.050
86771SOL    HW162087   3.851   5.358  12.974
86771SOL    HW262088   3.806   5.220  13.016
86772SOL     OW62089   1.630   9.716   4.851
86772SOL    HW162090   1.614   9.796   4.900
86772SOL    HW262091   1.722   9.696   4.867
86773SOL     OW62092   1.293   5.598   8.635
86773SOL    HW162093   1.290   5.526   8.698
86773SOL    HW262094   1.384   5.627   8.636
86774SOL     OW62095  12.810   9.731   0.828
86774SOL    HW162096  12.739   9.771   0.777
86774SOL    HW262097  12.887   9.737   0.772
86775SOL     OW62098   2.976   4.861  11.882
86775SOL    HW162099   2.960   4.842  11.974
86775SOL    HW262100   3.031   4.789  11.852
86776SOL     OW62101   8.025   3.232   6.586
86776SOL    HW162102   7.967   3.171   6.632
86776SOL    HW262103   8.109   3.224   6.631
86777SOL     OW62104   1.708   4.992   0.410
86777SOL    HW162105   1.634   5.053   0.408
86777SOL    HW262106   1.746   4.998   0.323
86778SOL     OW62107  14.176   1.422  10.618
86778SOL    HW162108  14.102   1.482  10.609
86778SOL    HW262109  14.139   1.343  10.656
86779SOL     OW62110   6.253   8.120   1.833
86779SOL    HW162111   6.328   8.131   1.775
86779SOL    HW262112   6.182   8.167   1.790
86780SOL     OW62113   2.377  10.256  13.592
86780SOL    HW162114   2.370  10.238  13.686
86780SOL    HW262115   2.338  10.343  13.582
86781SOL     OW62116   5.137  12.583  14.505
86781SOL    HW162117   5.061  12.621  14.462
86781SOL    HW262118   5.204  12.651  14.502
86782SOL     OW62119   2.839   1.876  11.971
86782SOL    HW162120   2.822   1.783  11.986
86782SOL    HW262121   2.931   1.879  11.945
86783SOL     OW62122  10.130   7.070  13.796
86783SOL    HW162123  10.180   7.075  13.877
86783SOL    HW262124  10.196   7.061  13.727
86784SOL     OW62125   2.204   9.289   3.905
86784SOL    HW162126   2.246   9.287   3.819
86784SOL    HW262127   2.235   9.210   3.948
86785SOL     OW62128   2.186  13.316   6.411
86785SOL    HW162129   2.145  13.231   6.396
86785SOL    HW262130   2.263  13.296   6.466
86786SOL     OW62131   0.700  12.043  11.853
86786SOL    HW162132   0.753  12.035  11.774
86786SOL    HW262133   0.762  12.029  11.925
86787SOL     OW62134   9.194   5.100  10.426
86787SOL    HW162135   9.112   5.147  10.441
86787SOL    HW262136   9.262   5.165  10.441
86788SOL     OW62137   8.729   6.856   2.110
86788SOL    HW162138   8.683   6.878   2.191
86788SOL    HW262139   8.808   6.810   2.138
86789SOL     OW62140   6.794  11.875   7.479
86789SOL    HW162141   6.873  11.824   7.460
86789SOL    HW262142   6.729  11.810   7.505
86790SOL     OW62143  11.613  13.748  10.805
86790SOL    HW162144  11.565  13.776  10.727
86790SOL    HW262145  11.640  13.829  10.848
86791SOL     OW62146  12.642   9.172   4.696
86791SOL    HW162147  12.732   9.145   4.681
86791SOL    HW262148  12.591   9.126   4.630
86792SOL     OW62149   0.654   0.163   5.344
86792SOL    HW162150   0.564   0.136   5.361
86792SOL    HW262151   0.694   0.168   5.430
86793SOL     OW62152   8.342   2.358   2.138
86793SOL    HW162153   8.393   2.289   2.096
86793SOL    HW262154   8.291   2.398   2.068
86794SOL     OW62155   4.469  11.063  14.143
86794SOL    HW162156   4.378  11.045  14.165
86794SOL    HW262157   4.469  11.153  14.112
86795SOL     OW62158  10.050   7.905   3.477
86795SOL    HW162159   9.956   7.906   3.458
86795SOL    HW262160  10.057   7.860   3.561
86796SOL     OW62161   3.679  11.281  13.937
86796SOL    HW162162   3.595  11.239  13.957
86796SOL    HW262163   3.658  11.374  13.927
86797SOL     OW62164   7.464   7.550  14.826
86797SOL    HW162165   7.373   7.580  14.836
86797SOL    HW262166   7.487   7.573  14.737
86798SOL     OW62167   5.029   7.528   0.464
86798SOL    HW162168   5.101   7.485   0.417
86798SOL    HW262169   5.059   7.530   0.555
86799SOL     OW62170   2.129   5.144   9.617
86799SOL    HW162171   2.120   5.146   9.522
86799SOL    HW262172   2.048   5.185   9.650
86800SOL     OW62173   4.024  11.821  12.437
86800SOL    HW162174   4.083  11.752  12.466
86800SOL    HW262175   4.022  11.884  12.509
86801SOL     OW62176  14.520   1.272   0.442
86801SOL    HW162177  14.531   1.344   0.381
86801SOL    HW262178  14.507   1.195   0.386
86802SOL     OW62179   7.129  10.703   4.415
86802SOL    HW162180   7.092  10.787   4.442
86802SOL    HW262181   7.084  10.639   4.470
86803SOL     OW62182   7.473  12.311   7.915
86803SOL    HW162183   7.386  12.279   7.938
86803SOL    HW262184   7.457  12.388   7.862
86804SOL     OW62185   6.037   0.423   6.206
86804SOL    HW162186   6.030   0.330   6.184
86804SOL    HW262187   6.119   0.450   6.165
86805SOL     OW62188  13.326  12.465   1.829
86805SOL    HW162189  13.312  12.371   1.840
86805SOL    HW262190  13.253  12.493   1.774
86806SOL     OW62191   3.391   5.542   6.529
86806SOL    HW162192   3.470   5.576   6.487
86806SOL    HW262193   3.340   5.505   6.457
86807SOL     OW62194  10.410  14.466  12.496
86807SOL    HW162195  10.391  14.560  12.497
86807SOL    HW262196  10.441  14.447  12.585
86808SOL     OW62197   6.044   7.331   3.954
86808SOL    HW162198   6.139   7.329   3.963
86808SOL    HW262199   6.028   7.321   3.860
86809SOL     OW62200   7.509   3.577  11.689
86809SOL    HW162201   7.462   3.571  11.606
86809SOL    HW262202   7.447   3.619  11.749
86810SOL     OW62203  13.554   9.487   6.521
86810SOL    HW162204  13.570   9.474   6.428
86810SOL    HW262205  13.461   9.509   6.528
86811SOL     OW62206   6.799   8.937   6.130
86811SOL    HW162207   6.814   8.870   6.063
86811SOL    HW262208   6.815   9.020   6.084
86812SOL     OW62209   4.820   6.237  14.759
86812SOL    HW162210   4.735   6.239  14.803
86812SOL    HW262211   4.875   6.297  14.809
86813SOL     OW62212   7.846  13.769  14.067
86813SOL    HW162213   7.855  13.753  13.974
86813SOL    HW262214   7.848  13.682  14.107
86814SOL     OW62215   9.473   1.285  10.235
86814SOL    HW162216   9.404   1.280  10.301
86814SOL    HW262217   9.526   1.360  10.261
86815SOL     OW62218   1.891   9.888   6.048
86815SOL    HW162219   1.970   9.834   6.044
86815SOL    HW262220   1.871   9.909   5.957
86816SOL     OW62221   0.324  10.749   9.170
86816SOL    HW162222   0.336  10.797   9.252
86816SOL    HW262223   0.256  10.685   9.189
86817SOL     OW62224   7.689   6.728   5.485
86817SOL    HW162225   7.718   6.780   5.560
86817SOL    HW262226   7.599   6.704   5.505
86818SOL     OW62227   9.923   1.277   1.204
86818SOL    HW162228   9.971   1.360   1.201
86818SOL    HW262229   9.832   1.302   1.215
86819SOL     OW62230   3.478  11.910   5.760
86819SOL    HW162231   3.551  11.893   5.701
86819SOL    HW262232   3.489  12.001   5.786
86820SOL     OW62233  10.917  14.257   5.392
86820SOL    HW162234  10.991  14.211   5.351
86820SOL    HW262235  10.851  14.188   5.405
86821SOL     OW62236   9.569   5.348   9.787
86821SOL    HW162237   9.561   5.256   9.760
86821SOL    HW262238   9.636   5.384   9.730
86822SOL     OW62239   1.833  10.951   1.190
86822SOL    HW162240   1.888  11.020   1.152
86822SOL    HW262241   1.751  10.956   1.141
86823SOL     OW62242   4.972  11.937   2.372
86823SOL    HW162243   5.017  11.866   2.418
86823SOL    HW262244   4.978  12.011   2.432
86824SOL     OW62245  10.208   5.417   1.210
86824SOL    HW162246  10.278   5.424   1.275
86824SOL    HW262247  10.212   5.499   1.161
86825SOL     OW62248   4.322  11.686   8.143
86825SOL    HW162249   4.358  11.621   8.204
86825SOL    HW262250   4.373  11.765   8.159
86826SOL     OW62251  13.435   5.834   6.059
86826SOL    HW162252  13.430   5.757   6.115
86826SOL    HW262253  13.395   5.806   5.976
86827SOL     OW62254  10.513  13.770   3.295
86827SOL    HW162255  10.595  13.798   3.336
86827SOL    HW262256  10.456  13.847   3.298
86828SOL     OW62257   9.174   6.990  13.873
86828SOL    HW162258   9.116   7.066  13.861
86828SOL    HW262259   9.243   7.021  13.932
86829SOL     OW62260   0.622   6.121   8.583
86829SOL    HW162261   0.534   6.137   8.617
86829SOL    HW262262   0.658   6.053   8.641
86830SOL     OW62263   3.494   5.199  13.554
86830SOL    HW162264   3.484   5.289  13.584
86830SOL    HW262265   3.405   5.164  13.554
86831SOL     OW62266   1.047   2.387   1.330
86831SOL    HW162267   1.102   2.375   1.252
86831SOL    HW262268   1.098   2.347   1.401
86832SOL     OW62269  14.654   1.827  11.013
86832SOL    HW162270  14.617   1.898  11.065
86832SOL    HW262271  14.733   1.865  10.975
86833SOL     OW62272   0.154   3.229   5.566
86833SOL    HW162273   0.197   3.205   5.484
86833SOL    HW262274   0.081   3.167   5.574
86834SOL     OW62275  11.689   3.134   9.592
86834SOL    HW162276  11.646   3.089   9.519
86834SOL    HW262277  11.777   3.096   9.595
86835SOL     OW62278   2.973   0.003  10.011
86835SOL    HW162279   2.979  14.788   9.987
86835SOL    HW262280   3.054   0.021  10.058
86836SOL     OW62281   0.842   8.406   2.368
86836SOL    HW162282   0.852   8.317   2.402
86836SOL    HW262283   0.875   8.401   2.278
86837SOL     OW62284  13.627   4.329   9.867
86837SOL    HW162285  13.659   4.419   9.864
86837SOL    HW262286  13.706   4.276   9.882
86838SOL     OW62287   5.252  10.105  14.377
86838SOL    HW162288   5.168  10.071  14.409
86838SOL    HW262289   5.250  10.198  14.397
86839SOL     OW62290   9.137   9.023   2.878
86839SOL    HW162291   9.229   9.022   2.905
86839SOL    HW262292   9.092   8.975   2.947
86840SOL     OW62293   6.768   5.025   4.650
86840SOL    HW162294   6.697   5.016   4.586
86840SOL    HW262295   6.787   4.936   4.678
86841SOL     OW62296   9.530  12.762  12.278
86841SOL    HW162297   9.502  12.700  12.210
86841SOL    HW262298   9.461  12.829  12.279
86842SOL     OW62299   2.115  13.761   0.431
86842SOL    HW162300   2.043  13.709   0.395
86842SOL    HW262301   2.115  13.842   0.380
86843SOL     OW62302   6.395  11.783   1.002
86843SOL    HW162303   6.454  11.760   1.073
86843SOL    HW262304   6.453  11.798   0.927
86844SOL     OW62305  11.711   0.537   9.208
86844SOL    HW162306  11.617   0.547   9.191
86844SOL    HW262307  11.742   0.627   9.221
86845SOL     OW62308   0.734  12.685   3.341
86845SOL    HW162309   0.660  12.705   3.283
86845SOL    HW262310   0.810  12.721   3.297
86846SOL     OW62311   3.736   3.178   4.026
86846SOL    HW162312   3.765   3.264   3.995
86846SOL    HW262313   3.765   3.174   4.117
86847SOL     OW62314   5.238  12.509   1.310
86847SOL    HW162315   5.317  12.534   1.262
86847SOL    HW262316   5.271  12.464   1.388
86848SOL     OW62317  13.530   1.741   6.647
86848SOL    HW162318  13.549   1.647   6.646
86848SOL    HW262319  13.486   1.756   6.730
86849SOL     OW62320   2.085  10.798  12.954
86849SOL    HW162321   2.039  10.863  12.902
86849SOL    HW262322   2.092  10.838  13.041
86850SOL     OW62323  13.880   3.092  11.016
86850SOL    HW162324  13.888   3.158  10.947
86850SOL    HW262325  13.886   3.141  11.098
86851SOL     OW62326  12.734  10.400   3.536
86851SOL    HW162327  12.704  10.476   3.485
86851SOL    HW262328  12.676  10.329   3.508
86852SOL     OW62329   2.318   9.150   5.836
86852SOL    HW162330   2.308   9.204   5.758
86852SOL    HW262331   2.366   9.205   5.897
86853SOL     OW62332   4.869   8.106  11.299
86853SOL    HW162333   4.834   8.042  11.361
86853SOL    HW262334   4.961   8.114  11.322
86854SOL     OW62335  14.353  13.088   6.503
86854SOL    HW162336  14.389  13.013   6.551
86854SOL    HW262337  14.302  13.137   6.568
86855SOL     OW62338   3.618   2.899   5.778
86855SOL    HW162339   3.688   2.932   5.835
86855SOL    HW262340   3.620   2.804   5.791
86856SOL     OW62341   2.710   9.004   9.937
86856SOL    HW162342   2.778   9.020  10.003
86856SOL    HW262343   2.688   9.091   9.904
86857SOL     OW62344   7.071   2.796   5.254
86857SOL    HW162345   7.062   2.787   5.159
86857SOL    HW262346   7.163   2.819   5.268
86858SOL     OW62347   5.636   2.203   0.242
86858SOL    HW162348   5.644   2.112   0.270
86858SOL    HW262349   5.704   2.249   0.291
86859SOL     OW62350  13.789   3.439   6.915
86859SOL    HW162351  13.771   3.514   6.972
86859SOL    HW262352  13.751   3.463   6.831
86860SOL     OW62353   6.679   1.580   3.014
86860SOL    HW162354   6.649   1.545   3.098
86860SOL    HW262355   6.608   1.638   2.986
86861SOL     OW62356   5.980  11.671  14.357
86861SOL    HW162357   6.075  11.675  14.362
86861SOL    HW262358   5.951  11.654  14.447
86862SOL     OW62359   4.318   3.089   8.351
86862SOL    HW162360   4.374   3.088   8.274
86862SOL    HW262361   4.285   3.179   8.356
86863SOL     OW62362   9.937   2.945   3.719
86863SOL    HW162363   9.906   2.944   3.809
86863SOL    HW262364   9.956   3.037   3.701
86864SOL     OW62365   2.910   5.505  13.762
86864SOL    HW162366   2.866   5.546  13.688
86864SOL    HW262367   2.844   5.503  13.831
86865SOL     OW62368   3.294  10.298  11.015
86865SOL    HW162369   3.318  10.313  11.107
86865SOL    HW262370   3.200  10.281  11.018
86866SOL     OW62371   0.255  14.606   7.909
86866SOL    HW162372   0.270  14.630   7.817
86866SOL    HW262373   0.184  14.664   7.936
86867SOL     OW62374  10.307   4.590   2.090
86867SOL    HW162375  10.308   4.497   2.112
86867SOL    HW262376  10.355   4.596   2.007
86868SOL     OW62377   2.522  10.485   5.611
86868SOL    HW162378   2.471  10.404   5.601
86868SOL    HW262379   2.603  10.457   5.652
86869SOL     OW62380   2.548  10.973   7.598
86869SOL    HW162381   2.518  11.049   7.647
86869SOL    HW262382   2.565  10.906   7.664
86870SOL     OW62383  14.582   2.944   4.386
86870SOL    HW162384  14.676   2.928   4.384
86870SOL    HW262385  14.566   2.983   4.472
86871SOL     OW62386   8.838   7.836  10.200
86871SOL    HW162387   8.850   7.922  10.239
86871SOL    HW262388   8.898   7.834  10.126
86872SOL     OW62389   9.686   3.881   4.944
86872SOL    HW162390   9.639   3.812   4.896
86872SOL    HW262391   9.663   3.962   4.898
86873SOL     OW62392   0.373   8.039  10.267
86873SOL    HW162393   0.348   7.948  10.254
86873SOL    HW262394   0.438   8.037  10.337
86874SOL     OW62395   2.866   2.778   3.978
86874SOL    HW162396   2.869   2.707   4.041
86874SOL    HW262397   2.955   2.814   3.979
86875SOL     OW62398  14.112   5.683  10.134
86875SOL    HW162399  14.092   5.635  10.215
86875SOL    HW262400  14.133   5.772  10.164
86876SOL     OW62401  12.530   9.972   9.635
86876SOL    HW162402  12.521  10.014   9.721
86876SOL    HW262403  12.551   9.881   9.654
86877SOL     OW62404   4.118   8.109   6.877
86877SOL    HW162405   4.193   8.059   6.910
86877SOL    HW262406   4.041   8.058   6.905
86878SOL     OW62407  10.962  11.132   7.585
86878SOL    HW162408  10.941  11.221   7.612
86878SOL    HW262409  10.888  11.080   7.617
86879SOL     OW62410   6.949  11.639   3.151
86879SOL    HW162411   6.953  11.684   3.235
86879SOL    HW262412   7.006  11.563   3.161
86880SOL     OW62413  12.171  10.475  10.657
86880SOL    HW162414  12.226  10.497  10.582
86880SOL    HW262415  12.191  10.383  10.676
86881SOL     OW62416  11.097   9.561   8.374
86881SOL    HW162417  11.104   9.644   8.422
86881SOL    HW262418  11.027   9.577   8.311
86882SOL     OW62419   8.767   2.091   4.821
86882SOL    HW162420   8.757   2.170   4.769
86882SOL    HW262421   8.690   2.089   4.877
86883SOL     OW62422   8.064   9.289  14.142
86883SOL    HW162423   8.100   9.275  14.230
86883SOL    HW262424   7.990   9.348  14.156
86884SOL     OW62425   7.383  13.375  10.672
86884SOL    HW162426   7.470  13.408  10.650
86884SOL    HW262427   7.397  13.287  10.706
86885SOL     OW62428  10.543   4.377   7.709
86885SOL    HW162429  10.513   4.289   7.733
86885SOL    HW262430  10.514   4.388   7.618
86886SOL     OW62431   2.917   1.197   9.490
86886SOL    HW162432   2.942   1.286   9.516
86886SOL    HW262433   2.828   1.187   9.523
86887SOL     OW62434  10.178   9.099  11.546
86887SOL    HW162435  10.228   9.035  11.495
86887SOL    HW262436  10.240   9.131  11.611
86888SOL     OW62437   0.733  12.560   4.027
86888SOL    HW162438   0.723  12.574   4.121
86888SOL    HW262439   0.819  12.596   4.006
86889SOL     OW62440   7.090  12.541  12.810
86889SOL    HW162441   7.171  12.496  12.836
86889SOL    HW262442   7.059  12.583  12.890
86890SOL     OW62443   6.934  10.840  12.129
86890SOL    HW162444   6.850  10.861  12.168
86890SOL    HW262445   6.914  10.779  12.058
86891SOL     OW62446  14.194   2.323   4.396
86891SOL    HW162447  14.133   2.251   4.412
86891SOL    HW262448  14.259   2.315   4.467
86892SOL     OW62449  14.052   4.454  10.302
86892SOL    HW162450  14.037   4.451  10.396
86892SOL    HW262451  14.141   4.419  10.291
86893SOL     OW62452   9.523   7.101   6.531
86893SOL    HW162453   9.575   7.096   6.612
86893SOL    HW262454   9.548   7.185   6.492
86894SOL     OW62455  11.145   7.623   3.337
86894SOL    HW162456  11.169   7.634   3.245
86894SOL    HW262457  11.219   7.577   3.376
86895SOL     OW62458   6.808  13.112  12.239
86895SOL    HW162459   6.752  13.123  12.162
86895SOL    HW262460   6.868  13.186  12.237
86896SOL     OW62461  14.328   4.569   4.386
86896SOL    HW162462  14.234   4.562   4.372
86896SOL    HW262463  14.366   4.567   4.298
86897SOL     OW62464   6.620  10.709   0.245
86897SOL    HW162465   6.672  10.660   0.182
86897SOL    HW262466   6.682  10.770   0.285
86898SOL     OW62467  14.489   1.782   4.235
86898SOL    HW162468  14.440   1.822   4.308
86898SOL    HW262469  14.529   1.856   4.190
86899SOL     OW62470  10.038   8.241  10.512
86899SOL    HW162471  10.040   8.266  10.420
86899SOL    HW262472   9.979   8.166  10.515
86900SOL     OW62473   3.376  13.441  13.117
86900SOL    HW162474   3.397  13.534  13.118
86900SOL    HW262475   3.285  13.437  13.087
86901SOL     OW62476  11.454  11.354   1.310
86901SOL    HW162477  11.489  11.359   1.221
86901SOL    HW262478  11.468  11.263   1.336
86902SOL     OW62479   1.417   1.867   4.796
86902SOL    HW162480   1.354   1.856   4.867
86902SOL    HW262481   1.366   1.899   4.722
86903SOL     OW62482   9.924   9.788   0.189
86903SOL    HW162483  10.012   9.765   0.220
86903SOL    HW262484   9.871   9.712   0.211
86904SOL     OW62485   7.386   7.508  10.990
86904SOL    HW162486   7.394   7.480  10.899
86904SOL    HW262487   7.432   7.593  10.993
86905SOL     OW62488   7.186   7.435   8.589
86905SOL    HW162489   7.248   7.377   8.546
86905SOL    HW262490   7.230   7.520   8.592
86906SOL     OW62491   0.144   9.797  12.879
86906SOL    HW162492   0.144   9.811  12.785
86906SOL    HW262493   0.230   9.758  12.897
86907SOL     OW62494   9.828  12.660   6.521
86907SOL    HW162495   9.875  12.655   6.438
86907SOL    HW262496   9.872  12.730   6.570
86908SOL     OW62497  12.308  14.009   3.482
86908SOL    HW162498  12.225  14.022   3.436
86908SOL    HW262499  12.318  13.914   3.486
86909SOL     OW62500   4.217  13.461  13.483
86909SOL    HW162501   4.154  13.495  13.546
86909SOL    HW262502   4.206  13.515  13.405
86910SOL     OW62503   9.857   7.166   0.139
86910SOL    HW162504   9.836   7.233   0.204
86910SOL    HW262505   9.873   7.215   0.058
86911SOL     OW62506  11.014  13.483   3.628
86911SOL    HW162507  10.963  13.530   3.562
86911SOL    HW262508  11.009  13.539   3.706
86912SOL     OW62509   9.576   1.153  14.085
86912SOL    HW162510   9.546   1.136  14.174
86912SOL    HW262511   9.646   1.089  14.071
86913SOL     OW62512   1.116   8.032   7.254
86913SOL    HW162513   1.160   8.114   7.278
86913SOL    HW262514   1.058   8.057   7.181
86914SOL     OW62515   8.153   2.554   1.367
86914SOL    HW162516   8.234   2.502   1.363
86914SOL    HW262517   8.083   2.489   1.371
86915SOL     OW62518   6.506  10.651   9.569
86915SOL    HW162519   6.497  10.573   9.514
86915SOL    HW262520   6.542  10.718   9.510
86916SOL     OW62521   0.924   7.197   4.893
86916SOL    HW162522   0.982   7.261   4.936
86916SOL    HW262523   0.977   7.118   4.887
86917SOL     OW62524  11.831  11.126   4.165
86917SOL    HW162525  11.841  11.100   4.257
86917SOL    HW262526  11.871  11.213   4.160
86918SOL     OW62527   0.348  11.134   4.992
86918SOL    HW162528   0.418  11.192   5.024
86918SOL    HW262529   0.320  11.173   4.910
86919SOL     OW62530   6.515   1.475   1.875
86919SOL    HW162531   6.572   1.534   1.825
86919SOL    HW262532   6.467   1.426   1.809
86920SOL     OW62533   8.500   4.397   4.736
86920SOL    HW162534   8.565   4.328   4.721
86920SOL    HW262535   8.421   4.366   4.692
86921SOL     OW62536  10.629  14.449   1.796
86921SOL    HW162537  10.633  14.356   1.775
86921SOL    HW262538  10.721  14.477   1.799
86922SOL     OW62539   5.493  14.747  13.317
86922SOL    HW162540   5.565  14.758  13.380
86922SOL    HW262541   5.519  14.671  13.264
86923SOL     OW62542   8.465   2.508  12.902
86923SOL    HW162543   8.417   2.525  12.821
86923SOL    HW262544   8.548   2.471  12.873
86924SOL     OW62545   7.942   3.516  13.345
86924SOL    HW162546   7.871   3.566  13.386
86924SOL    HW262547   8.018   3.533  13.401
86925SOL     OW62548   3.185   7.328  12.682
86925SOL    HW162549   3.213   7.302  12.594
86925SOL    HW262550   3.212   7.419  12.689
86926SOL     OW62551   5.160  12.509   7.662
86926SOL    HW162552   5.203  12.580   7.613
86926SOL    HW262553   5.075  12.546   7.688
86927SOL     OW62554   6.531  14.441   2.214
86927SOL    HW162555   6.557  14.382   2.285
86927SOL    HW262556   6.608  14.445   2.157
86928SOL     OW62557  11.491   6.559   0.618
86928SOL    HW162558  11.476   6.534   0.709
86928SOL    HW262559  11.507   6.653   0.621
86929SOL     OW62560   7.507   1.885  10.416
86929SOL    HW162561   7.551   1.938  10.482
86929SOL    HW262562   7.462   1.817  10.467
86930SOL     OW62563   9.238   4.839   4.893
86930SOL    HW162564   9.204   4.859   4.805
86930SOL    HW262565   9.226   4.745   4.902
86931SOL     OW62566   1.945  11.020   0.923
86931SOL    HW162567   1.997  10.999   0.845
86931SOL    HW262568   1.979  11.105   0.951
86932SOL     OW62569   6.703   5.642   5.419
86932SOL    HW162570   6.671   5.677   5.335
86932SOL    HW262571   6.798   5.639   5.408
86933SOL     OW62572   7.107  10.020   6.006
86933SOL    HW162573   7.046  10.074   6.056
86933SOL    HW262574   7.156   9.970   6.072
86934SOL     OW62575  11.590  11.394   3.360
86934SOL    HW162576  11.667  11.409   3.415
86934SOL    HW262577  11.586  11.299   3.352
86935SOL     OW62578   0.106   3.923   3.489
86935SOL    HW162579   0.132   3.898   3.577
86935SOL    HW262580   0.012   3.943   3.496
86936SOL     OW62581  14.267   5.483   2.506
86936SOL    HW162582  14.246   5.410   2.448
86936SOL    HW262583  14.361   5.499   2.491
86937SOL     OW62584   5.549  14.771   7.818
86937SOL    HW162585   5.506  14.695   7.858
86937SOL    HW262586   5.478  14.831   7.796
86938SOL     OW62587  14.724   2.597   6.769
86938SOL    HW162588  14.640   2.605   6.814
86938SOL    HW262589  14.725   2.507   6.736
86939SOL     OW62590   0.929   2.946   0.564
86939SOL    HW162591   0.843   2.929   0.603
86939SOL    HW262592   0.954   2.862   0.525
86940SOL     OW62593   6.592  13.433   7.560
86940SOL    HW162594   6.686  13.423   7.575
86940SOL    HW262595   6.567  13.352   7.515
86941SOL     OW62596  10.320  10.918  14.421
86941SOL    HW162597  10.226  10.910  14.401
86941SOL    HW262598  10.327  11.001  14.468
86942SOL     OW62599   5.006   7.550   8.011
86942SOL    HW162600   5.086   7.496   8.012
86942SOL    HW262601   5.026   7.621   7.951
86943SOL     OW62602   7.948   0.460  12.034
86943SOL    HW162603   7.993   0.541  12.059
86943SOL    HW262604   8.015   0.392  12.042
86944SOL     OW62605  14.837   7.606  12.847
86944SOL    HW162606   0.014   7.576  12.774
86944SOL    HW262607  14.753   7.630  12.807
86945SOL     OW62608   5.684  13.961   7.240
86945SOL    HW162609   5.762  14.015   7.257
86945SOL    HW262610   5.708  13.874   7.273
86946SOL     OW62611   2.599   6.103   8.206
86946SOL    HW162612   2.583   6.197   8.200
86946SOL    HW262613   2.573   6.069   8.121
86947SOL     OW62614   5.188   5.760  14.547
86947SOL    HW162615   5.202   5.821  14.620
86947SOL    HW262616   5.102   5.722  14.564
86948SOL     OW62617   8.121  10.935   1.835
86948SOL    HW162618   8.105  10.880   1.758
86948SOL    HW262619   8.129  10.873   1.907
86949SOL     OW62620  12.938   6.925   4.246
86949SOL    HW162621  12.911   6.988   4.179
86949SOL    HW262622  12.882   6.945   4.321
86950SOL     OW62623   9.586   4.398  11.041
86950SOL    HW162624   9.553   4.468  10.985
86950SOL    HW262625   9.608   4.441  11.123
86951SOL     OW62626  13.829  14.003  14.352
86951SOL    HW162627  13.900  14.068  14.355
86951SOL    HW262628  13.820  13.982  14.259
86952SOL     OW62629   0.440   8.143  10.802
86952SOL    HW162630   0.441   8.131  10.707
86952SOL    HW262631   0.348   8.164  10.822
86953SOL     OW62632   2.526  13.921  13.802
86953SOL    HW162633   2.504  13.834  13.768
86953SOL    HW262634   2.481  13.982  13.743
86954SOL     OW62635   4.594  10.604  12.688
86954SOL    HW162636   4.509  10.642  12.664
86954SOL    HW262637   4.653  10.679  12.691
86955SOL     OW62638  12.531   1.163   0.041
86955SOL    HW162639  12.520   1.119  14.834
86955SOL    HW262640  12.626   1.175   0.049
86956SOL     OW62641   5.597  13.633   3.935
86956SOL    HW162642   5.599  13.578   4.014
86956SOL    HW262643   5.675  13.606   3.886
86957SOL     OW62644   7.513   7.802  10.988
86957SOL    HW162645   7.523   7.770  10.898
86957SOL    HW262646   7.579   7.871  10.996
86958SOL     OW62647   2.329  12.573  11.573
86958SOL    HW162648   2.270  12.519  11.521
86958SOL    HW262649   2.276  12.647  11.601
86959SOL     OW62650   6.035   0.688  12.961
86959SOL    HW162651   6.009   0.649  12.878
86959SOL    HW262652   5.997   0.776  12.960
86960SOL     OW62653   2.348  14.534  12.821
86960SOL    HW162654   2.298  14.484  12.757
86960SOL    HW262655   2.311  14.508  12.906
86961SOL     OW62656   3.606   9.824   6.185
86961SOL    HW162657   3.672   9.822   6.115
86961SOL    HW262658   3.655   9.807   6.265
86962SOL     OW62659   3.170  10.424  12.999
86962SOL    HW162660   3.084  10.432  12.958
86962SOL    HW262661   3.156  10.448  13.090
86963SOL     OW62662   7.884  14.672   1.409
86963SOL    HW162663   7.940  14.605   1.449
86963SOL    HW262664   7.906  14.669   1.316
86964SOL     OW62665   3.878  13.473   4.278
86964SOL    HW162666   3.789  13.503   4.296
86964SOL    HW262667   3.919  13.469   4.364
86965SOL     OW62668  10.417  10.123   6.352
86965SOL    HW162669  10.501  10.077   6.356
86965SOL    HW262670  10.386  10.109   6.262
86966SOL     OW62671   3.474   2.804  10.828
86966SOL    HW162672   3.555   2.828  10.784
86966SOL    HW262673   3.455   2.879  10.886
86967SOL     OW62674  11.102   6.803   1.329
86967SOL    HW162675  11.069   6.747   1.399
86967SOL    HW262676  11.040   6.790   1.257
86968SOL     OW62677   1.541   0.021   8.077
86968SOL    HW162678   1.605   0.052   8.142
86968SOL    HW262679   1.459   0.064   8.102
86969SOL     OW62680   3.318   5.491  10.697
86969SOL    HW162681   3.225   5.475  10.712
86969SOL    HW262682   3.358   5.485  10.783
86970SOL     OW62683   0.631   1.790  11.380
86970SOL    HW162684   0.710   1.763  11.331
86970SOL    HW262685   0.656   1.782  11.472
86971SOL     OW62686   1.307   0.490   4.087
86971SOL    HW162687   1.267   0.434   4.154
86971SOL    HW262688   1.373   0.435   4.046
86972SOL     OW62689   8.141   5.751   0.550
86972SOL    HW162690   8.207   5.801   0.503
86972SOL    HW262691   8.149   5.662   0.516
86973SOL     OW62692   3.196   7.552  10.799
86973SOL    HW162693   3.233   7.503  10.725
86973SOL    HW262694   3.101   7.536  10.793
86974SOL     OW62695  13.197  13.818  11.045
86974SOL    HW162696  13.192  13.907  11.081
86974SOL    HW262697  13.252  13.771  11.107
86975SOL     OW62698  11.088   8.047  11.687
86975SOL    HW162699  11.002   8.051  11.645
86975SOL    HW262700  11.095   7.957  11.719
86976SOL     OW62701  14.203   4.856   5.660
86976SOL    HW162702  14.271   4.790   5.679
86976SOL    HW262703  14.141   4.847   5.733
86977SOL     OW62704  13.345   2.414   5.958
86977SOL    HW162705  13.276   2.369   5.910
86977SOL    HW262706  13.422   2.358   5.947
86978SOL     OW62707  12.697  13.771  10.788
86978SOL    HW162708  12.624  13.833  10.793
86978SOL    HW262709  12.764  13.810  10.844
86979SOL     OW62710   2.876   1.310  12.786
86979SOL    HW162711   2.887   1.384  12.846
86979SOL    HW262712   2.877   1.233  12.843
86980SOL     OW62713   7.056   8.584   5.198
86980SOL    HW162714   6.981   8.527   5.178
86980SOL    HW262715   7.051   8.596   5.293
86981SOL     OW62716  11.013   3.320  14.075
86981SOL    HW162717  10.947   3.252  14.092
86981SOL    HW262718  10.996   3.348  13.985
86982SOL     OW62719   6.086   8.191   6.837
86982SOL    HW162720   6.021   8.153   6.896
86982SOL    HW262721   6.162   8.132   6.843
86983SOL     OW62722  10.620   5.226  14.566
86983SOL    HW162723  10.616   5.290  14.636
86983SOL    HW262724  10.699   5.249  14.517
86984SOL     OW62725   7.514   2.446  12.456
86984SOL    HW162726   7.603   2.418  12.478
86984SOL    HW262727   7.526   2.531  12.413
86985SOL     OW62728  12.219   8.130   8.360
86985SOL    HW162729  12.254   8.203   8.410
86985SOL    HW262730  12.296   8.077   8.338
86986SOL     OW62731   5.200   8.005   1.052
86986SOL    HW162732   5.165   7.922   1.084
86986SOL    HW262733   5.123   8.053   1.021
86987SOL     OW62734   8.763  13.176   1.946
86987SOL    HW162735   8.820  13.107   1.979
86987SOL    HW262736   8.681  13.131   1.924
86988SOL     OW62737   0.775   3.276   1.035
86988SOL    HW162738   0.835   3.238   0.970
86988SOL    HW262739   0.706   3.318   0.984
86989SOL     OW62740  14.248   2.064   6.260
86989SOL    HW162741  14.301   2.099   6.332
86989SOL    HW262742  14.312   2.034   6.196
86990SOL     OW62743   1.763   8.021   3.496
86990SOL    HW162744   1.699   7.952   3.481
86990SOL    HW262745   1.735   8.094   3.440
86991SOL     OW62746   7.135   8.815   6.077
86991SOL    HW162747   7.052   8.795   6.033
86991SOL    HW262748   7.142   8.911   6.073
86992SOL     OW62749  11.209   2.994  14.418
86992SOL    HW162750  11.223   2.992  14.323
86992SOL    HW262751  11.181   2.905  14.439
86993SOL     OW62752   9.936   8.485   6.758
86993SOL    HW162753   9.975   8.432   6.689
86993SOL    HW262754   9.994   8.473   6.833
86994SOL     OW62755   0.264   3.346  14.624
86994SOL    HW162756   0.200   3.416  14.631
86994SOL    HW262757   0.330   3.379  14.563
86995SOL     OW62758  12.951   2.833   4.412
86995SOL    HW162759  12.943   2.770   4.484
86995SOL    HW262760  13.025   2.802   4.360
86996SOL     OW62761   1.451   6.008   2.101
86996SOL    HW162762   1.471   6.024   2.193
86996SOL    HW262763   1.471   6.091   2.057
86997SOL     OW62764   6.290   8.122   0.463
86997SOL    HW162765   6.258   8.034   0.446
86997SOL    HW262766   6.307   8.159   0.376
86998SOL     OW62767   8.485   5.937  10.951
86998SOL    HW162768   8.390   5.920  10.952
86998SOL    HW262769   8.517   5.885  10.878
86999SOL     OW62770   6.323  12.550   2.182
86999SOL    HW162771   6.388  12.572   2.248
86999SOL    HW262772   6.239  12.557   2.228
87000SOL     OW62773   4.563   4.380  10.036
87000SOL    HW162774   4.533   4.293  10.064
87000SOL    HW262775   4.589   4.369   9.945
87001SOL     OW62776   1.237   9.798  13.680
87001SOL    HW162777   1.287   9.834  13.753
87001SOL    HW262778   1.301   9.791  13.609
87002SOL     OW62779   1.696   2.181  14.660
87002SOL    HW162780   1.658   2.178  14.748
87002SOL    HW262781   1.661   2.261  14.621
87003SOL     OW62782  12.771   8.513   5.261
87003SOL    HW162783  12.676   8.508   5.269
87003SOL    HW262784  12.799   8.565   5.337
87004SOL     OW62785   3.596   7.971   2.859
87004SOL    HW162786   3.621   7.980   2.951
87004SOL    HW262787   3.516   7.920   2.860
87005SOL     OW62788   1.383  11.721   5.443
87005SOL    HW162789   1.443  11.716   5.517
87005SOL    HW262790   1.331  11.640   5.448
87006SOL     OW62791  12.940  11.477  14.640
87006SOL    HW162792  12.961  11.401  14.586
87006SOL    HW262793  13.016  11.534  14.633
87007SOL     OW62794  10.412   6.760   5.980
87007SOL    HW162795  10.463   6.686   6.013
87007SOL    HW262796  10.422   6.828   6.047
87008SOL     OW62797   0.961   4.272  11.655
87008SOL    HW162798   0.958   4.342  11.590
87008SOL    HW262799   1.049   4.277  11.692
87009SOL     OW62800   1.951   1.950   2.762
87009SOL    HW162801   1.953   1.959   2.857
87009SOL    HW262802   1.950   2.039   2.729
87010SOL     OW62803  12.447  13.736  14.357
87010SOL    HW162804  12.493  13.662  14.395
87010SOL    HW262805  12.516  13.797  14.332
87011SOL     OW62806  11.319   9.122  12.795
87011SOL    HW162807  11.328   9.164  12.709
87011SOL    HW262808  11.248   9.059  12.784
87012SOL     OW62809  13.041  13.116   5.946
87012SOL    HW162810  12.981  13.184   5.916
87012SOL    HW262811  13.083  13.084   5.866
87013SOL     OW62812  13.492   2.234  11.344
87013SOL    HW162813  13.497   2.179  11.422
87013SOL    HW262814  13.583   2.261  11.329
87014SOL     OW62815  12.925   1.709   9.886
87014SOL    HW162816  12.953   1.696   9.796
87014SOL    HW262817  12.971   1.787   9.916
87015SOL     OW62818   2.697   0.868   0.338
87015SOL    HW162819   2.604   0.862   0.317
87015SOL    HW262820   2.701   0.854   0.433
87016SOL     OW62821   1.752   2.796   0.859
87016SOL    HW162822   1.746   2.844   0.941
87016SOL    HW262823   1.684   2.834   0.803
87017SOL     OW62824  10.290   6.751   9.938
87017SOL    HW162825  10.299   6.729   9.845
87017SOL    HW262826  10.316   6.843   9.943
87018SOL     OW62827  14.588   5.651   1.098
87018SOL    HW162828  14.533   5.573   1.103
87018SOL    HW262829  14.553   5.710   1.165
87019SOL     OW62830  14.685  13.791  11.717
87019SOL    HW162831  14.739  13.726  11.672
87019SOL    HW262832  14.637  13.835  11.647
87020SOL     OW62833   0.187   1.561   9.557
87020SOL    HW162834   0.187   1.518   9.642
87020SOL    HW262835   0.229   1.646   9.573
87021SOL     OW62836   9.858  13.880   3.218
87021SOL    HW162837   9.826  13.834   3.295
87021SOL    HW262838   9.782  13.889   3.162
87022SOL     OW62839  11.496   7.087  13.184
87022SOL    HW162840  11.491   7.162  13.125
87022SOL    HW262841  11.428   7.104  13.249
87023SOL     OW62842   3.651   5.556   8.098
87023SOL    HW162843   3.725   5.497   8.112
87023SOL    HW262844   3.656   5.579   8.005
87024SOL     OW62845  11.565   8.512   7.432
87024SOL    HW162846  11.519   8.596   7.425
87024SOL    HW262847  11.510   8.458   7.488
87025SOL     OW62848   8.936  12.653  14.062
87025SOL    HW162849   8.922  12.586  14.129
87025SOL    HW262850   8.868  12.637  13.997
87026SOL     OW62851   8.773   2.252   5.240
87026SOL    HW162852   8.824   2.332   5.252
87026SOL    HW262853   8.838   2.182   5.230
87027SOL     OW62854   3.845   3.032   6.659
87027SOL    HW162855   3.861   3.050   6.566
87027SOL    HW262856   3.873   2.942   6.672
87028SOL     OW62857   6.453   8.193  14.065
87028SOL    HW162858   6.513   8.122  14.041
87028SOL    HW262859   6.397   8.156  14.133
87029SOL     OW62860   9.909   9.477   7.131
87029SOL    HW162861   9.989   9.504   7.177
87029SOL    HW262862   9.923   9.504   7.041
87030SOL     OW62863   6.164  10.871  12.812
87030SOL    HW162864   6.091  10.918  12.772
87030SOL    HW262865   6.129  10.838  12.894
87031SOL     OW62866   6.054   7.749  14.160
87031SOL    HW162867   6.069   7.673  14.216
87031SOL    HW262868   6.035   7.712  14.074
87032SOL     OW62869  12.986  12.800  14.822
87032SOL    HW162870  13.011  12.749  14.745
87032SOL    HW262871  13.062  12.853  14.842
87033SOL     OW62872   0.830  13.258  13.956
87033SOL    HW162873   0.800  13.175  13.920
87033SOL    HW262874   0.844  13.240  14.049
87034SOL     OW62875  11.432   1.604   4.526
87034SOL    HW162876  11.496   1.547   4.569
87034SOL    HW262877  11.348   1.582   4.567
87035SOL     OW62878   4.814   5.118   2.014
87035SOL    HW162879   4.800   5.039   1.961
87035SOL    HW262880   4.747   5.179   1.984
87036SOL     OW62881   7.312  12.552  13.140
87036SOL    HW162882   7.232  12.601  13.156
87036SOL    HW262883   7.294  12.501  13.061
87037SOL     OW62884   4.120   3.854   6.443
87037SOL    HW162885   4.201   3.803   6.438
87037SOL    HW262886   4.146   3.937   6.484
87038SOL     OW62887   5.436  10.938   6.013
87038SOL    HW162888   5.530  10.921   6.015
87038SOL    HW262889   5.425  11.002   5.943
87039SOL     OW62890  12.425  12.970   2.220
87039SOL    HW162891  12.484  12.954   2.293
87039SOL    HW262892  12.483  12.991   2.147
87040SOL     OW62893   2.037   5.510  13.487
87040SOL    HW162894   2.053   5.471  13.573
87040SOL    HW262895   2.029   5.435  13.428
87041SOL     OW62896  11.676  11.017   1.577
87041SOL    HW162897  11.743  11.063   1.628
87041SOL    HW262898  11.615  11.086   1.550
87042SOL     OW62899   8.087   9.325  10.158
87042SOL    HW162900   8.096   9.420  10.151
87042SOL    HW262901   8.137   9.290  10.085
87043SOL     OW62902   8.638   2.200   2.660
87043SOL    HW162903   8.687   2.145   2.599
87043SOL    HW262904   8.548   2.168   2.655
87044SOL     OW62905   1.202  11.398   0.789
87044SOL    HW162906   1.177  11.355   0.707
87044SOL    HW262907   1.249  11.477   0.761
87045SOL     OW62908   4.104  12.012   9.451
87045SOL    HW162909   4.021  12.016   9.499
87045SOL    HW262910   4.104  11.925   9.412
87046SOL     OW62911   0.154   5.281   2.596
87046SOL    HW162912   0.075   5.327   2.569
87046SOL    HW262913   0.225   5.328   2.551
87047SOL     OW62914   4.867   3.575   2.862
87047SOL    HW162915   4.866   3.563   2.957
87047SOL    HW262916   4.888   3.667   2.850
87048SOL     OW62917   4.436   3.940  14.039
87048SOL    HW162918   4.526   3.972  14.037
87048SOL    HW262919   4.432   3.873  13.971
87049SOL     OW62920   9.842  10.910   8.035
87049SOL    HW162921   9.865  10.872   8.120
87049SOL    HW262922   9.746  10.915   8.036
87050SOL     OW62923  14.382  13.010   5.153
87050SOL    HW162924  14.295  13.001   5.193
87050SOL    HW262925  14.366  12.996   5.060
87051SOL     OW62926  13.246   3.143  14.877
87051SOL    HW162927  13.271   3.138   0.092
87051SOL    HW262928  13.158   3.181   0.001
87052SOL     OW62929  12.939   3.913   5.930
87052SOL    HW162930  13.017   3.970   5.928
87052SOL    HW262931  12.973   3.826   5.949
87053SOL     OW62932   0.862   6.991  11.998
87053SOL    HW162933   0.950   6.984  11.960
87053SOL    HW262934   0.877   7.026  12.086
87054SOL     OW62935  10.374   7.658   1.174
87054SOL    HW162936  10.384   7.570   1.211
87054SOL    HW262937  10.453   7.672   1.123
87055SOL     OW62938   0.196  10.287  10.109
87055SOL    HW162939   0.228  10.207  10.150
87055SOL    HW262940   0.275  10.338  10.092
87056SOL     OW62941   9.206   5.212   5.707
87056SOL    HW162942   9.124   5.256   5.685
87056SOL    HW262943   9.230   5.164   5.628
87057SOL     OW62944  12.945   3.344   1.792
87057SOL    HW162945  12.905   3.339   1.879
87057SOL    HW262946  12.909   3.268   1.745
87058SOL     OW62947   1.662   5.395   6.309
87058SOL    HW162948   1.616   5.449   6.374
87058SOL    HW262949   1.748   5.380   6.347
87059SOL     OW62950  13.680  13.929  13.010
87059SOL    HW162951  13.639  14.014  12.991
87059SOL    HW262952  13.623  13.889  13.075
87060SOL     OW62953   3.570   5.822  14.199
87060SOL    HW162954   3.608   5.901  14.162
87060SOL    HW262955   3.498   5.800  14.140
87061SOL     OW62956   0.197  13.233  14.532
87061SOL    HW162957   0.229  13.318  14.502
87061SOL    HW262958   0.262  13.205  14.597
87062SOL     OW62959   5.252   1.172   9.680
87062SOL    HW162960   5.222   1.116   9.608
87062SOL    HW262961   5.317   1.119   9.726
87063SOL     OW62962   1.771   5.271  11.263
87063SOL    HW162963   1.818   5.254  11.345
87063SOL    HW262964   1.828   5.332  11.215
87064SOL     OW62965   4.948   3.229   8.525
87064SOL    HW162966   4.886   3.179   8.578
87064SOL    HW262967   4.930   3.202   8.435
87065SOL     OW62968  13.183  13.539   9.450
87065SOL    HW162969  13.181  13.451   9.488
87065SOL    HW262970  13.212  13.525   9.359
87066SOL     OW62971  14.021   1.209   3.928
87066SOL    HW162972  14.024   1.134   3.988
87066SOL    HW262973  14.113   1.222   3.903
87067SOL     OW62974  14.611  14.603   3.135
87067SOL    HW162975  14.558  14.527   3.111
87067SOL    HW262976  14.601  14.611   3.229
87068SOL     OW62977  10.865   4.576   9.831
87068SOL    HW162978  10.927   4.504   9.843
87068SOL    HW262979  10.886   4.638   9.900
87069SOL     OW62980   6.473  14.298   8.908
87069SOL    HW162981   6.453  14.312   8.815
87069SOL    HW262982   6.554  14.347   8.923
87070SOL     OW62983   8.056  13.062  14.760
87070SOL    HW162984   8.022  13.137  14.809
87070SOL    HW262985   8.105  13.100  14.688
87071SOL     OW62986   7.198  14.811  11.476
87071SOL    HW162987   7.180  14.872  11.405
87071SOL    HW262988   7.283  14.773  11.456
87072SOL     OW62989   6.896  11.343  11.852
87072SOL    HW162990   6.906  11.337  11.757
87072SOL    HW262991   6.933  11.262  11.886
87073SOL     OW62992  10.592   0.162   9.340
87073SOL    HW162993  10.565   0.228   9.403
87073SOL    HW262994  10.599   0.209   9.257
87074SOL     OW62995  11.318   9.835  10.260
87074SOL    HW162996  11.287   9.887  10.335
87074SOL    HW262997  11.396   9.790  10.293
87075SOL     OW62998   4.340   5.676  13.987
87075SOL    HW162999   4.257   5.630  13.975
87075SOL    HW263000   4.383   5.670  13.902
87076SOL     OW63001   6.506   2.213   4.591
87076SOL    HW163002   6.460   2.274   4.532
87076SOL    HW263003   6.445   2.140   4.600
87077SOL     OW63004   6.322   9.493  13.615
87077SOL    HW163005   6.257   9.424  13.607
87077SOL    HW263006   6.365   9.495  13.529
87078SOL     OW63007   6.882   7.283   0.227
87078SOL    HW163008   6.938   7.301   0.302
87078SOL    HW263009   6.804   7.243   0.265
87079SOL     OW63010   4.196   4.206   5.070
87079SOL    HW163011   4.107   4.241   5.060
87079SOL    HW263012   4.246   4.245   4.998
87080SOL     OW63013   3.858   8.855  10.527
87080SOL    HW163014   3.881   8.830  10.616
87080SOL    HW263015   3.782   8.913  10.537
87081SOL     OW63016   7.611   4.849  11.394
87081SOL    HW163017   7.600   4.899  11.313
87081SOL    HW263018   7.534   4.870  11.447
87082SOL     OW63019  13.723  14.310   0.573
87082SOL    HW163020  13.693  14.393   0.611
87082SOL    HW263021  13.809  14.296   0.611
87083SOL     OW63022   3.899   8.552  10.864
87083SOL    HW163023   3.897   8.644  10.838
87083SOL    HW263024   3.823   8.543  10.921
87084SOL     OW63025   6.166   6.035  13.238
87084SOL    HW163026   6.083   6.014  13.281
87084SOL    HW263027   6.207   6.099  13.296
87085SOL     OW63028   8.050   2.216   2.574
87085SOL    HW163029   7.960   2.205   2.544
87085SOL    HW263030   8.091   2.272   2.508
87086SOL     OW63031  11.892   8.964   3.345
87086SOL    HW163032  11.981   8.950   3.376
87086SOL    HW263033  11.902   9.021   3.269
87087SOL     OW63034  13.722  12.504  13.452
87087SOL    HW163035  13.725  12.517  13.547
87087SOL    HW263036  13.814  12.508  13.425
87088SOL     OW63037   2.585  10.155  10.621
87088SOL    HW163038   2.666  10.195  10.589
87088SOL    HW263039   2.548  10.112  10.544
87089SOL     OW63040  12.768   9.162   0.130
87089SOL    HW163041  12.792   9.252   0.153
87089SOL    HW263042  12.848   9.124   0.095
87090SOL     OW63043   8.537   6.312  12.978
87090SOL    HW163044   8.571   6.223  12.975
87090SOL    HW263045   8.463   6.308  13.038
87091SOL     OW63046  13.014  11.477   3.377
87091SOL    HW163047  12.979  11.560   3.344
87091SOL    HW263048  12.965  11.460   3.457
87092SOL     OW63049  11.833   6.033  11.038
87092SOL    HW163050  11.845   5.945  11.002
87092SOL    HW263051  11.836   6.091  10.962
87093SOL     OW63052   0.576   0.758  12.772
87093SOL    HW163053   0.515   0.735  12.842
87093SOL    HW263054   0.562   0.852  12.759
87094SOL     OW63055   9.000   6.849  13.687
87094SOL    HW163056   8.918   6.845  13.737
87094SOL    HW263057   9.065   6.882  13.749
87095SOL     OW63058   1.860  11.449   8.417
87095SOL    HW163059   1.832  11.466   8.327
87095SOL    HW263060   1.825  11.522   8.468
87096SOL     OW63061  13.706  13.837   3.225
87096SOL    HW163062  13.648  13.813   3.152
87096SOL    HW263063  13.770  13.766   3.229
87097SOL     OW63064  14.291   5.660  14.701
87097SOL    HW163065  14.209   5.614  14.683
87097SOL    HW263066  14.359   5.604  14.661
87098SOL     OW63067  11.978   5.727   4.939
87098SOL    HW163068  12.054   5.695   4.891
87098SOL    HW263069  12.015   5.775   5.013
87099SOL     OW63070  12.649   5.583   1.893
87099SOL    HW163071  12.633   5.664   1.942
87099SOL    HW263072  12.563   5.542   1.888
87100SOL     OW63073  10.209   6.650   4.051
87100SOL    HW163074  10.267   6.588   4.096
87100SOL    HW263075  10.121   6.622   4.075
87101SOL     OW63076   9.881   7.252   3.044
87101SOL    HW163077   9.810   7.311   3.020
87101SOL    HW263078   9.865   7.230   3.136
87102SOL     OW63079   5.103   8.354  14.703
87102SOL    HW163080   5.101   8.445  14.733
87102SOL    HW263081   5.052   8.306  14.767
87103SOL     OW63082  13.623   5.985   0.505
87103SOL    HW163083  13.576   5.910   0.543
87103SOL    HW263084  13.714   5.956   0.501
87104SOL     OW63085   9.703  11.021   0.271
87104SOL    HW163086   9.768  11.053   0.209
87104SOL    HW263087   9.621  11.061   0.242
87105SOL     OW63088   7.188   3.412   4.057
87105SOL    HW163089   7.133   3.434   3.981
87105SOL    HW263090   7.241   3.490   4.072
87106SOL     OW63091  11.068   8.712   9.305
87106SOL    HW163092  11.004   8.765   9.259
87106SOL    HW263093  11.108   8.772   9.368
87107SOL     OW63094   9.882  13.252  13.479
87107SOL    HW163095   9.842  13.172  13.514
87107SOL    HW263096   9.843  13.323  13.530
87108SOL     OW63097   0.695   5.821  10.807
87108SOL    HW163098   0.693   5.848  10.899
87108SOL    HW263099   0.603   5.825  10.779
87109SOL     OW63100   3.956   9.763  10.877
87109SOL    HW163101   3.996   9.716  10.950
87109SOL    HW263102   3.888   9.817  10.917
87110SOL     OW63103  11.971  14.857   3.540
87110SOL    HW163104  11.895  14.835   3.487
87110SOL    HW263105  12.045  14.814   3.497
87111SOL     OW63106   6.303   2.806   5.682
87111SOL    HW163107   6.209   2.792   5.692
87111SOL    HW263108   6.315   2.899   5.701
87112SOL     OW63109   1.330   5.547   0.622
87112SOL    HW163110   1.369   5.462   0.601
87112SOL    HW263111   1.236   5.535   0.608
87113SOL     OW63112  12.886  11.978  10.342
87113SOL    HW163113  12.793  11.974  10.319
87113SOL    HW263114  12.916  11.888  10.336
87114SOL     OW63115   3.132   4.783   9.715
87114SOL    HW163116   3.216   4.768   9.757
87114SOL    HW263117   3.110   4.874   9.737
87115SOL     OW63118  13.742   2.774  12.872
87115SOL    HW163119  13.720   2.737  12.957
87115SOL    HW263120  13.663   2.821  12.845
87116SOL     OW63121   6.258   3.790  10.294
87116SOL    HW163122   6.178   3.841  10.306
87116SOL    HW263123   6.254   3.723  10.363
87117SOL     OW63124   9.428  14.619   8.566
87117SOL    HW163125   9.346  14.645   8.609
87117SOL    HW263126   9.448  14.533   8.603
87118SOL     OW63127   9.005   4.723   1.719
87118SOL    HW163128   9.091   4.730   1.678
87118SOL    HW263129   8.977   4.633   1.703
87119SOL     OW63130   4.506  14.446   5.598
87119SOL    HW163131   4.458  14.388   5.539
87119SOL    HW263132   4.439  14.503   5.636
87120SOL     OW63133   8.574  10.328   5.606
87120SOL    HW163134   8.609  10.375   5.531
87120SOL    HW263135   8.641  10.263   5.627
87121SOL     OW63136   0.817  11.856   7.320
87121SOL    HW163137   0.890  11.860   7.382
87121SOL    HW263138   0.820  11.767   7.286
87122SOL     OW63139   0.982  11.045  10.015
87122SOL    HW163140   1.057  11.103   9.995
87122SOL    HW263141   1.004  10.963   9.971
87123SOL     OW63142  14.689   2.362   0.574
87123SOL    HW163143  14.779   2.331   0.571
87123SOL    HW263144  14.692   2.439   0.631
87124SOL     OW63145   9.722  11.286  11.295
87124SOL    HW163146   9.731  11.369  11.343
87124SOL    HW263147   9.808  11.244  11.304
87125SOL     OW63148  13.502   6.719   1.631
87125SOL    HW163149  13.463   6.776   1.697
87125SOL    HW263150  13.468   6.752   1.548
87126SOL     OW63151   9.611  12.642   4.525
87126SOL    HW163152   9.611  12.671   4.616
87126SOL    HW263153   9.539  12.579   4.520
87127SOL     OW63154   3.990  11.769   7.971
87127SOL    HW163155   3.961  11.810   7.890
87127SOL    HW263156   4.066  11.716   7.944
87128SOL     OW63157  11.586   1.850   3.369
87128SOL    HW163158  11.558   1.876   3.457
87128SOL    HW263159  11.640   1.772   3.384
87129SOL     OW63160  14.397   4.089   1.813
87129SOL    HW163161  14.449   4.098   1.893
87129SOL    HW263162  14.371   3.997   1.811
87130SOL     OW63163  12.655  11.073   4.645
87130SOL    HW163164  12.659  11.055   4.739
87130SOL    HW263165  12.720  11.142   4.630
87131SOL     OW63166  12.544  12.370  11.943
87131SOL    HW163167  12.547  12.384  11.848
87131SOL    HW263168  12.588  12.447  11.979
87132SOL     OW63169   9.179  12.124   0.760
87132SOL    HW163170   9.160  12.117   0.667
87132SOL    HW263171   9.123  12.058   0.801
87133SOL     OW63172  11.529   2.728   8.336
87133SOL    HW163173  11.619   2.700   8.354
87133SOL    HW263174  11.507   2.686   8.253
87134SOL     OW63175   9.619   8.030  10.711
87134SOL    HW163176   9.569   8.093  10.658
87134SOL    HW263177   9.604   7.946  10.667
87135SOL     OW63178  14.049  13.618   3.356
87135SOL    HW163179  13.960  13.587   3.345
87135SOL    HW263180  14.041  13.700   3.406
87136SOL     OW63181   3.831   6.893  13.671
87136SOL    HW163182   3.814   6.899  13.765
87136SOL    HW263183   3.844   6.984  13.643
87137SOL     OW63184   2.357   3.812  13.990
87137SOL    HW163185   2.378   3.719  13.976
87137SOL    HW263186   2.317   3.840  13.908
87138SOL     OW63187   0.394  10.997   1.335
87138SOL    HW163188   0.430  11.067   1.389
87138SOL    HW263189   0.337  10.947   1.394
87139SOL     OW63190   3.283   8.272   7.674
87139SOL    HW163191   3.365   8.247   7.718
87139SOL    HW263192   3.282   8.367   7.678
87140SOL     OW63193   4.318  12.881  14.101
87140SOL    HW163194   4.239  12.932  14.085
87140SOL    HW263195   4.339  12.896  14.194
87141SOL     OW63196   0.894   2.563   7.664
87141SOL    HW163197   0.946   2.520   7.596
87141SOL    HW263198   0.888   2.497   7.734
87142SOL     OW63199  12.932   0.795   6.606
87142SOL    HW163200  12.979   0.753   6.678
87142SOL    HW263201  12.954   0.888   6.614
87143SOL     OW63202  12.698   2.306   2.722
87143SOL    HW163203  12.724   2.265   2.640
87143SOL    HW263204  12.710   2.400   2.707
87144SOL     OW63205   3.782   3.395  14.184
87144SOL    HW163206   3.820   3.397  14.096
87144SOL    HW263207   3.802   3.482  14.220
87145SOL     OW63208   2.371   2.253   8.380
87145SOL    HW163209   2.286   2.282   8.349
87145SOL    HW263210   2.369   2.157   8.372
87146SOL     OW63211   7.914  14.646  11.555
87146SOL    HW163212   7.992  14.694  11.583
87146SOL    HW263213   7.841  14.705  11.578
87147SOL     OW63214   7.079   5.265   1.964
87147SOL    HW163215   7.155   5.264   1.905
87147SOL    HW263216   7.005   5.241   1.908
87148SOL     OW63217   7.436  11.336  10.764
87148SOL    HW163218   7.435  11.252  10.811
87148SOL    HW263219   7.411  11.401  10.830
87149SOL     OW63220   3.676   6.736   3.667
87149SOL    HW163221   3.731   6.762   3.593
87149SOL    HW263222   3.595   6.706   3.626
87150SOL     OW63223  14.334   4.889   4.402
87150SOL    HW163224  14.356   4.797   4.383
87150SOL    HW263225  14.416   4.936   4.388
87151SOL     OW63226   3.898   0.085  13.313
87151SOL    HW163227   3.879  14.868  13.316
87151SOL    HW263228   3.822   0.123  13.270
87152SOL     OW63229   3.843   2.112  12.140
87152SOL    HW163230   3.820   2.030  12.096
87152SOL    HW263231   3.773   2.173  12.116
87153SOL     OW63232   1.356  14.184   6.243
87153SOL    HW163233   1.346  14.229   6.327
87153SOL    HW263234   1.297  14.231   6.183
87154SOL     OW63235   7.446  12.285  13.645
87154SOL    HW163236   7.380  12.221  13.617
87154SOL    HW263237   7.398  12.346  13.702
87155SOL     OW63238   4.821  10.807  13.452
87155SOL    HW163239   4.778  10.770  13.375
87155SOL    HW263240   4.754  10.862  13.493
87156SOL     OW63241   6.491  13.048  11.343
87156SOL    HW163242   6.471  13.000  11.262
87156SOL    HW263243   6.582  13.075  11.333
87157SOL     OW63244  13.625  11.014   6.968
87157SOL    HW163245  13.550  10.964   6.937
87157SOL    HW263246  13.698  10.985   6.913
87158SOL     OW63247   2.164  13.564   8.658
87158SOL    HW163248   2.178  13.602   8.571
87158SOL    HW263249   2.180  13.637   8.719
87159SOL     OW63250   3.714  11.121  14.645
87159SOL    HW163251   3.718  11.202  14.594
87159SOL    HW263252   3.624  11.091  14.635
87160SOL     OW63253  14.174  11.845   7.081
87160SOL    HW163254  14.205  11.929   7.115
87160SOL    HW263255  14.095  11.865   7.032
87161SOL     OW63256   2.577   0.111   0.089
87161SOL    HW163257   2.536   0.151   0.013
87161SOL    HW263258   2.522   0.034   0.108
87162SOL     OW63259  10.121   6.116  12.417
87162SOL    HW163260  10.144   6.129  12.509
87162SOL    HW263261  10.194   6.065  12.381
87163SOL     OW63262   3.389   5.476   8.444
87163SOL    HW163263   3.413   5.535   8.516
87163SOL    HW263264   3.367   5.534   8.371
87164SOL     OW63265   6.729   9.807   3.949
87164SOL    HW163266   6.797   9.848   4.003
87164SOL    HW263267   6.755   9.716   3.942
87165SOL     OW63268   5.120  12.210  13.500
87165SOL    HW163269   5.170  12.286  13.531
87165SOL    HW263270   5.127  12.146  13.570
87166SOL     OW63271   0.046   8.369  13.708
87166SOL    HW163272   0.049   8.430  13.782
87166SOL    HW263273   0.119   8.309  13.723
87167SOL     OW63274  10.097   8.103  10.778
87167SOL    HW163275  10.083   8.130  10.687
87167SOL    HW263276  10.009   8.094  10.815
87168SOL     OW63277   7.416   4.261  14.730
87168SOL    HW163278   7.401   4.330  14.666
87168SOL    HW263279   7.505   4.231  14.713
87169SOL     OW63280   6.777  14.696  10.160
87169SOL    HW163281   6.739  14.654  10.082
87169SOL    HW263282   6.871  14.681  10.152
87170SOL     OW63283   9.087   4.416  12.129
87170SOL    HW163284   9.120   4.382  12.212
87170SOL    HW263285   9.117   4.352  12.064
87171SOL     OW63286  11.792   2.733  11.957
87171SOL    HW163287  11.885   2.758  11.953
87171SOL    HW263288  11.747   2.816  11.976
87172SOL     OW63289   4.996  12.199  10.051
87172SOL    HW163290   5.092  12.202  10.049
87172SOL    HW263291   4.974  12.204  10.144
87173SOL     OW63292  12.756   4.636  14.080
87173SOL    HW163293  12.690   4.636  14.149
87173SOL    HW263294  12.708   4.608  14.002
87174SOL     OW63295   3.362   4.121   6.733
87174SOL    HW163296   3.381   4.088   6.821
87174SOL    HW263297   3.378   4.046   6.676
87175SOL     OW63298  14.668  12.820   1.499
87175SOL    HW163299  14.586  12.869   1.501
87175SOL    HW263300  14.708  12.837   1.584
87176SOL     OW63301  11.223  11.171   9.844
87176SOL    HW163302  11.152  11.159   9.907
87176SOL    HW263303  11.200  11.113   9.771
87177SOL     OW63304   9.849   6.577   5.487
87177SOL    HW163305   9.864   6.621   5.571
87177SOL    HW263306   9.758   6.548   5.490
87178SOL     OW63307   6.339  12.411   7.353
87178SOL    HW163308   6.256  12.448   7.382
87178SOL    HW263309   6.322  12.380   7.264
87179SOL     OW63310   6.158  13.169  12.506
87179SOL    HW163311   6.170  13.217  12.588
87179SOL    HW263312   6.116  13.231  12.447
87180SOL     OW63313   7.010   0.032   3.006
87180SOL    HW163314   7.013  14.814   2.996
87180SOL    HW263315   7.079   0.051   3.070
87181SOL     OW63316   6.380   5.811   5.630
87181SOL    HW163317   6.335   5.894   5.611
87181SOL    HW263318   6.382   5.806   5.726
87182SOL     OW63319   9.170   6.114   3.889
87182SOL    HW163320   9.096   6.150   3.938
87182SOL    HW263321   9.241   6.176   3.904
87183SOL     OW63322   0.414   4.342   7.088
87183SOL    HW163323   0.358   4.351   7.011
87183SOL    HW263324   0.476   4.272   7.065
87184SOL     OW63325  10.385  13.948  10.912
87184SOL    HW163326  10.457  13.908  10.962
87184SOL    HW263327  10.316  13.882  10.913
87185SOL     OW63328   0.521   4.107  12.236
87185SOL    HW163329   0.433   4.087  12.266
87185SOL    HW263330   0.554   4.171  12.298
87186SOL     OW63331   6.004   0.580  12.707
87186SOL    HW163332   5.936   0.627  12.658
87186SOL    HW263333   6.026   0.506  12.651
87187SOL     OW63334   2.386  14.719  13.705
87187SOL    HW163335   2.420  14.636  13.740
87187SOL    HW263336   2.308  14.694  13.655
87188SOL     OW63337   5.184   6.780   6.985
87188SOL    HW163338   5.210   6.696   6.946
87188SOL    HW263339   5.122   6.756   7.054
87189SOL     OW63340   9.364   7.428   3.242
87189SOL    HW163341   9.387   7.517   3.267
87189SOL    HW263342   9.404   7.415   3.156
87190SOL     OW63343   8.656   0.842   8.924
87190SOL    HW163344   8.689   0.870   9.009
87190SOL    HW263345   8.637   0.748   8.935
87191SOL     OW63346  14.046  13.577   9.869
87191SOL    HW163347  14.053  13.481   9.865
87191SOL    HW263348  14.086  13.607   9.788
87192SOL     OW63349   3.616   4.990   7.063
87192SOL    HW163350   3.530   4.956   7.089
87192SOL    HW263351   3.678   4.923   7.092
87193SOL     OW63352   4.437   8.857   0.755
87193SOL    HW163353   4.367   8.915   0.786
87193SOL    HW263354   4.462   8.806   0.832
87194SOL     OW63355  11.338  10.250  12.540
87194SOL    HW163356  11.258  10.196  12.546
87194SOL    HW263357  11.402  10.203  12.593
87195SOL     OW63358   6.872  12.605  11.311
87195SOL    HW163359   6.834  12.593  11.224
87195SOL    HW263360   6.814  12.555  11.369
87196SOL     OW63361   8.062   0.305   1.491
87196SOL    HW163362   8.046   0.231   1.433
87196SOL    HW263363   8.037   0.273   1.578
87197SOL     OW63364   7.220  13.182  12.832
87197SOL    HW163365   7.139  13.170  12.882
87197SOL    HW263366   7.237  13.276  12.837
87198SOL     OW63367   8.937   6.860   8.803
87198SOL    HW163368   8.852   6.892   8.834
87198SOL    HW263369   8.916   6.788   8.744
87199SOL     OW63370  10.703   3.383  13.787
87199SOL    HW163371  10.682   3.455  13.727
87199SOL    HW263372  10.792   3.402  13.818
87200SOL     OW63373  14.621   4.103   7.986
87200SOL    HW163374  14.711   4.092   8.017
87200SOL    HW263375  14.567   4.067   8.056
87201SOL     OW63376   1.163   4.677   6.796
87201SOL    HW163377   1.210   4.643   6.872
87201SOL    HW263378   1.230   4.689   6.730
87202SOL     OW63379  14.761   8.647   4.180
87202SOL    HW163380  14.744   8.557   4.152
87202SOL    HW263381  14.849   8.645   4.216
87203SOL     OW63382  13.880  12.745   0.986
87203SOL    HW163383  13.810  12.691   1.023
87203SOL    HW263384  13.957  12.689   0.989
87204SOL     OW63385   9.062   7.609  14.000
87204SOL    HW163386   9.089   7.602  13.909
87204SOL    HW263387   8.972   7.575  14.001
87205SOL     OW63388   9.562   8.543   2.996
87205SOL    HW163389   9.513   8.509   2.921
87205SOL    HW263390   9.636   8.589   2.957
87206SOL     OW63391  10.472   5.614  12.895
87206SOL    HW163392  10.424   5.669  12.833
87206SOL    HW263393  10.413   5.608  12.971
87207SOL     OW63394   0.270   4.249  13.487
87207SOL    HW163395   0.313   4.333  13.477
87207SOL    HW263396   0.328   4.198  13.543
87208SOL     OW63397   8.267  12.312   3.155
87208SOL    HW163398   8.276  12.383   3.091
87208SOL    HW263399   8.190  12.337   3.207
87209SOL     OW63400  14.491   0.410  11.595
87209SOL    HW163401  14.537   0.327  11.605
87209SOL    HW263402  14.535   0.454  11.523
87210SOL     OW63403   4.840   1.241   0.208
87210SOL    HW163404   4.899   1.274   0.276
87210SOL    HW263405   4.772   1.308   0.200
87211SOL     OW63406  12.397   9.576   9.849
87211SOL    HW163407  12.314   9.531   9.865
87211SOL    HW263408  12.372   9.666   9.829
87212SOL     OW63409   9.712  10.203   3.445
87212SOL    HW163410   9.740  10.294   3.458
87212SOL    HW263411   9.745  10.180   3.358
87213SOL     OW63412   8.889   0.923   5.963
87213SOL    HW163413   8.874   1.012   5.932
87213SOL    HW263414   8.946   0.883   5.897
87214SOL     OW63415   3.488   4.063  12.906
87214SOL    HW163416   3.397   4.085  12.889
87214SOL    HW263417   3.484   3.989  12.967
87215SOL     OW63418   3.736   4.859  13.068
87215SOL    HW163419   3.762   4.773  13.033
87215SOL    HW263420   3.757   4.854  13.161
87216SOL     OW63421   4.568   4.963  12.204
87216SOL    HW163422   4.582   5.041  12.257
87216SOL    HW263423   4.652   4.918  12.204
87217SOL     OW63424   4.997  11.840   0.504
87217SOL    HW163425   5.004  11.814   0.412
87217SOL    HW263426   4.903  11.848   0.519
87218SOL     OW63427   7.818  11.352   2.512
87218SOL    HW163428   7.806  11.257   2.516
87218SOL    HW263429   7.911  11.364   2.494
87219SOL     OW63430   7.768  12.177  11.280
87219SOL    HW163431   7.799  12.220  11.359
87219SOL    HW263432   7.698  12.234  11.247
87220SOL     OW63433   6.115  13.177  11.666
87220SOL    HW163434   6.074  13.112  11.723
87220SOL    HW263435   6.183  13.129  11.619
87221SOL     OW63436   5.872   9.078  13.101
87221SOL    HW163437   5.948   9.069  13.158
87221SOL    HW263438   5.847   8.988  13.079
87222SOL     OW63439  11.311  10.619  10.617
87222SOL    HW163440  11.354  10.534  10.613
87222SOL    HW263441  11.236  10.611  10.558
87223SOL     OW63442  11.082   9.363   8.862
87223SOL    HW163443  11.169   9.324   8.866
87223SOL    HW263444  11.028   9.307   8.917
87224SOL     OW63445   9.823   6.201   8.394
87224SOL    HW163446   9.776   6.121   8.414
87224SOL    HW263447   9.761   6.254   8.345
87225SOL     OW63448  14.184   9.475   3.894
87225SOL    HW163449  14.257   9.414   3.886
87225SOL    HW263450  14.209   9.549   3.839
87226SOL     OW63451  11.098  14.722  10.493
87226SOL    HW163452  11.046  14.755  10.420
87226SOL    HW263453  11.100  14.795  10.555
87227SOL     OW63454  12.794   4.672   5.217
87227SOL    HW163455  12.746   4.735   5.164
87227SOL    HW263456  12.829   4.609   5.153
87228SOL     OW63457   4.211   6.888  11.485
87228SOL    HW163458   4.120   6.859  11.488
87228SOL    HW263459   4.261   6.813  11.517
87229SOL     OW63460   8.722   2.355   2.856
87229SOL    HW163461   8.688   2.304   2.783
87229SOL    HW263462   8.676   2.320   2.933
87230SOL     OW63463   1.545   7.990   0.314
87230SOL    HW163464   1.526   7.932   0.388
87230SOL    HW263465   1.597   8.060   0.352
87231SOL     OW63466  11.731   5.003   8.786
87231SOL    HW163467  11.665   5.036   8.724
87231SOL    HW263468  11.807   5.060   8.772
87232SOL     OW63469   4.455  11.618  10.356
87232SOL    HW163470   4.540  11.589  10.389
87232SOL    HW263471   4.411  11.654  10.433
87233SOL     OW63472  13.743   4.226   9.305
87233SOL    HW163473  13.754   4.131   9.297
87233SOL    HW263474  13.668   4.246   9.249
87234SOL     OW63475   1.491   5.133   0.334
87234SOL    HW163476   1.497   5.202   0.268
87234SOL    HW263477   1.461   5.056   0.286
87235SOL     OW63478   2.174   6.510   8.034
87235SOL    HW163479   2.154   6.589   8.085
87235SOL    HW263480   2.089   6.467   8.023
87236SOL     OW63481   0.894   3.801  14.084
87236SOL    HW163482   0.873   3.884  14.041
87236SOL    HW263483   0.809   3.769  14.116
87237SOL     OW63484  10.619   7.838   7.427
87237SOL    HW163485  10.670   7.759   7.413
87237SOL    HW263486  10.624   7.853   7.522
87238SOL     OW63487   5.617   1.301  11.184
87238SOL    HW163488   5.623   1.275  11.092
87238SOL    HW263489   5.537   1.353  11.189
87239SOL     OW63490  10.846   6.369   5.629
87239SOL    HW163491  10.890   6.285   5.616
87239SOL    HW263492  10.816   6.394   5.541
87240SOL     OW63493   3.101   6.326   9.713
87240SOL    HW163494   3.189   6.290   9.727
87240SOL    HW263495   3.049   6.251   9.683
87241SOL     OW63496   0.596   3.030   3.718
87241SOL    HW163497   0.667   3.022   3.783
87241SOL    HW263498   0.516   3.029   3.770
87242SOL     OW63499  14.784   6.972   9.272
87242SOL    HW163500  14.809   7.064   9.274
87242SOL    HW263501  14.834   6.932   9.343
87243SOL     OW63502  14.445  10.805   6.863
87243SOL    HW163503  14.467  10.799   6.956
87243SOL    HW263504  14.364  10.755   6.854
87244SOL     OW63505  12.051   9.980   9.674
87244SOL    HW163506  12.028   9.944   9.759
87244SOL    HW263507  12.075  10.071   9.691
87245SOL     OW63508   7.146   3.313   4.320
87245SOL    HW163509   7.073   3.372   4.338
87245SOL    HW263510   7.187   3.349   4.242
87246SOL     OW63511   7.583   8.850   1.081
87246SOL    HW163512   7.509   8.818   1.132
87246SOL    HW263513   7.552   8.852   0.991
87247SOL     OW63514   8.198   6.212   9.363
87247SOL    HW163515   8.219   6.301   9.389
87247SOL    HW263516   8.188   6.217   9.268
87248SOL     OW63517   3.649   4.939  10.665
87248SOL    HW163518   3.635   5.022  10.710
87248SOL    HW263519   3.577   4.932  10.603
87249SOL     OW63520  10.120   9.427  14.054
87249SOL    HW163521  10.157   9.341  14.075
87249SOL    HW263522  10.034   9.407  14.017
87250SOL     OW63523  14.393   1.098   3.138
87250SOL    HW163524  14.317   1.134   3.091
87250SOL    HW263525  14.427   1.172   3.188
87251SOL     OW63526   7.396   6.398   4.610
87251SOL    HW163527   7.402   6.309   4.575
87251SOL    HW263528   7.376   6.385   4.703
87252SOL     OW63529  10.355   1.814   3.183
87252SOL    HW163530  10.437   1.832   3.229
87252SOL    HW263531  10.369   1.847   3.094
87253SOL     OW63532   2.129  13.009   2.472
87253SOL    HW163533   2.125  12.915   2.488
87253SOL    HW263534   2.205  13.021   2.415
87254SOL     OW63535  10.460   4.268  13.698
87254SOL    HW163536  10.480   4.244  13.607
87254SOL    HW263537  10.544   4.260  13.744
87255SOL     OW63538  11.074   4.860   9.400
87255SOL    HW163539  11.048   4.851   9.308
87255SOL    HW263540  11.021   4.795   9.446
87256SOL     OW63541  11.142   0.654   3.910
87256SOL    HW163542  11.177   0.567   3.890
87256SOL    HW263543  11.106   0.685   3.827
87257SOL     OW63544  14.250  12.458   5.532
87257SOL    HW163545  14.334  12.483   5.572
87257SOL    HW263546  14.235  12.369   5.563
87258SOL     OW63547   7.246   3.199  12.061
87258SOL    HW163548   7.265   3.212  11.968
87258SOL    HW263549   7.311   3.253  12.106
87259SOL     OW63550   5.661   0.590  13.752
87259SOL    HW163551   5.716   0.518  13.720
87259SOL    HW263552   5.628   0.558  13.836
87260SOL     OW63553   1.242  10.123   6.408
87260SOL    HW163554   1.191  10.043   6.397
87260SOL    HW263555   1.217  10.156   6.495
87261SOL     OW63556  13.047   1.271  13.081
87261SOL    HW163557  12.992   1.245  13.154
87261SOL    HW263558  12.994   1.256  13.004
87262SOL     OW63559   5.939   0.340   3.827
87262SOL    HW163560   5.855   0.375   3.795
87262SOL    HW263561   5.920   0.314   3.917
87263SOL     OW63562   8.402  11.974   3.380
87263SOL    HW163563   8.439  11.918   3.449
87263SOL    HW263564   8.322  12.009   3.418
87264SOL     OW63565   3.649   1.452  10.016
87264SOL    HW163566   3.744   1.455  10.001
87264SOL    HW263567   3.639   1.463  10.110
87265SOL     OW63568  10.545   9.797  11.800
87265SOL    HW163569  10.547   9.881  11.847
87265SOL    HW263570  10.574   9.733  11.864
87266SOL     OW63571  13.343   8.514   3.254
87266SOL    HW163572  13.376   8.439   3.302
87266SOL    HW263573  13.265   8.542   3.302
87267SOL     OW63574   2.548   1.624  10.550
87267SOL    HW163575   2.634   1.646  10.586
87267SOL    HW263576   2.528   1.696  10.491
87268SOL     OW63577   7.246  14.786   6.377
87268SOL    HW163578   7.252  14.715   6.314
87268SOL    HW263579   7.181  14.846   6.340
87269SOL     OW63580   4.541  13.365   8.437
87269SOL    HW163581   4.590  13.426   8.381
87269SOL    HW263582   4.469  13.334   8.383
87270SOL     OW63583   6.957  14.255   4.286
87270SOL    HW163584   6.957  14.160   4.271
87270SOL    HW263585   7.050  14.278   4.289
87271SOL     OW63586  13.859   5.014  12.117
87271SOL    HW163587  13.796   4.992  12.049
87271SOL    HW263588  13.853   4.942  12.179
87272SOL     OW63589  12.586   9.309   0.474
87272SOL    HW163590  12.504   9.265   0.499
87272SOL    HW263591  12.598   9.376   0.542
87273SOL     OW63592   0.167   7.156   2.367
87273SOL    HW163593   0.254   7.157   2.327
87273SOL    HW263594   0.142   7.248   2.373
87274SOL     OW63595   9.291   2.821   2.667
87274SOL    HW163596   9.197   2.822   2.646
87274SOL    HW263597   9.294   2.828   2.762
87275SOL     OW63598   3.641   4.364   1.837
87275SOL    HW163599   3.648   4.269   1.843
87275SOL    HW263600   3.591   4.379   1.757
87276SOL     OW63601   4.720  12.398  11.183
87276SOL    HW163602   4.799  12.452  11.179
87276SOL    HW263603   4.649  12.460  11.203
87277SOL     OW63604   1.417   1.090   2.109
87277SOL    HW163605   1.337   1.124   2.069
87277SOL    HW263606   1.412   1.120   2.200
87278SOL     OW63607   5.791  13.979   1.500
87278SOL    HW163608   5.796  13.892   1.541
87278SOL    HW263609   5.881  14.002   1.481
87279SOL     OW63610  14.333  13.537   9.002
87279SOL    HW163611  14.241  13.545   9.027
87279SOL    HW263612  14.330  13.506   8.911
87280SOL     OW63613   8.710  12.646   5.833
87280SOL    HW163614   8.750  12.730   5.857
87280SOL    HW263615   8.637  12.636   5.893
87281SOL     OW63616   9.137   2.436   4.924
87281SOL    HW163617   9.160   2.500   4.992
87281SOL    HW263618   9.220   2.391   4.905
87282SOL     OW63619   0.937  14.065   5.526
87282SOL    HW163620   1.031  14.066   5.542
87282SOL    HW263621   0.927  14.102   5.438
87283SOL     OW63622   9.123   3.299  12.423
87283SOL    HW163623   9.038   3.323  12.459
87283SOL    HW263624   9.186   3.322  12.492
87284SOL     OW63625   4.080   7.893   7.412
87284SOL    HW163626   4.098   7.815   7.360
87284SOL    HW263627   4.006   7.869   7.468
87285SOL     OW63628   4.233   9.405   5.691
87285SOL    HW163629   4.327   9.425   5.696
87285SOL    HW263630   4.212   9.368   5.777
87286SOL     OW63631   4.756   6.224  13.910
87286SOL    HW163632   4.690   6.291  13.930
87286SOL    HW263633   4.798   6.255  13.829
87287SOL     OW63634   9.271  13.275  12.776
87287SOL    HW163635   9.298  13.249  12.688
87287SOL    HW263636   9.265  13.193  12.824
87288SOL     OW63637   5.733   7.107   4.156
87288SOL    HW163638   5.650   7.142   4.122
87288SOL    HW263639   5.725   7.114   4.251
87289SOL     OW63640   2.814  11.923  10.634
87289SOL    HW163641   2.766  11.924  10.717
87289SOL    HW263642   2.859  12.007  10.630
87290SOL     OW63643   5.508   9.612  13.252
87290SOL    HW163644   5.530   9.700  13.221
87290SOL    HW263645   5.444   9.626  13.322
87291SOL     OW63646   7.327   3.199   0.022
87291SOL    HW163647   7.338   3.112   0.060
87291SOL    HW263648   7.402   3.210  14.841
87292SOL     OW63649  13.501   9.182  12.783
87292SOL    HW163650  13.444   9.222  12.717
87292SOL    HW263651  13.551   9.117  12.735
87293SOL     OW63652   0.978   2.980   4.122
87293SOL    HW163653   1.055   2.942   4.165
87293SOL    HW263654   0.946   3.046   4.183
87294SOL     OW63655  14.649   9.613  13.237
87294SOL    HW163656  14.669   9.611  13.331
87294SOL    HW263657  14.652   9.706  13.214
87295SOL     OW63658   6.509  12.629   2.789
87295SOL    HW163659   6.450  12.575   2.736
87295SOL    HW263660   6.476  12.718   2.780
87296SOL     OW63661   9.282   4.220  14.068
87296SOL    HW163662   9.356   4.280  14.061
87296SOL    HW263663   9.220   4.265  14.125
87297SOL     OW63664  10.087  14.302  11.442
87297SOL    HW163665  10.153  14.320  11.375
87297SOL    HW263666  10.058  14.389  11.471
87298SOL     OW63667  13.481   6.290   4.090
87298SOL    HW163668  13.513   6.249   4.170
87298SOL    HW263669  13.386   6.277   4.093
87299SOL     OW63670  14.127   1.800  13.864
87299SOL    HW163671  14.192   1.800  13.934
87299SOL    HW263672  14.043   1.797  13.910
87300SOL     OW63673   5.547  10.789  11.833
87300SOL    HW163674   5.602  10.804  11.756
87300SOL    HW263675   5.570  10.702  11.863
87301SOL     OW63676  11.229   4.726  13.163
87301SOL    HW163677  11.285   4.692  13.233
87301SOL    HW263678  11.237   4.661  13.093
87302SOL     OW63679   2.026  11.324   7.748
87302SOL    HW163680   2.011  11.235   7.780
87302SOL    HW263681   2.121  11.328   7.732
87303SOL     OW63682   3.889  10.532   2.062
87303SOL    HW163683   3.958  10.465   2.058
87303SOL    HW263684   3.898  10.581   1.980
87304SOL     OW63685  13.860   9.499   6.067
87304SOL    HW163686  13.828   9.551   5.993
87304SOL    HW263687  13.887   9.416   6.027
87305SOL     OW63688  12.210   0.898   9.394
87305SOL    HW163689  12.135   0.911   9.336
87305SOL    HW263690  12.235   0.807   9.381
87306SOL     OW63691   2.523   8.062   4.284
87306SOL    HW163692   2.598   8.064   4.225
87306SOL    HW263693   2.455   8.112   4.239
87307SOL     OW63694   8.528  10.693   5.001
87307SOL    HW163695   8.467  10.680   4.928
87307SOL    HW263696   8.565  10.607   5.017
87308SOL     OW63697   7.194  10.983   5.779
87308SOL    HW163698   7.105  10.964   5.751
87308SOL    HW263699   7.245  10.907   5.752
87309SOL     OW63700   1.533   7.897   3.424
87309SOL    HW163701   1.490   7.981   3.440
87309SOL    HW263702   1.477   7.833   3.468
87310SOL     OW63703   8.022  11.413   6.032
87310SOL    HW163704   8.000  11.324   6.056
87310SOL    HW263705   7.944  11.464   6.053
87311SOL     OW63706  10.354  10.746  12.591
87311SOL    HW163707  10.377  10.823  12.539
87311SOL    HW263708  10.411  10.677  12.557
87312SOL     OW63709   3.066  11.085   2.787
87312SOL    HW163710   3.030  11.124   2.707
87312SOL    HW263711   3.059  10.991   2.772
87313SOL     OW63712  11.040  14.661  11.287
87313SOL    HW163713  11.041  14.753  11.261
87313SOL    HW263714  10.952  14.631  11.265
87314SOL     OW63715   3.231  12.473   6.658
87314SOL    HW163716   3.268  12.509   6.739
87314SOL    HW263717   3.278  12.391   6.644
87315SOL     OW63718   1.449   9.360  11.179
87315SOL    HW163719   1.514   9.289  11.174
87315SOL    HW263720   1.376   9.329  11.126
87316SOL     OW63721  11.895  13.507   0.839
87316SOL    HW163722  11.937  13.507   0.925
87316SOL    HW263723  11.841  13.586   0.839
87317SOL     OW63724   3.746   6.186  13.960
87317SOL    HW163725   3.838   6.159  13.958
87317SOL    HW263726   3.704   6.135  13.891
87318SOL     OW63727   5.915  10.538  13.357
87318SOL    HW163728   5.862  10.514  13.432
87318SOL    HW263729   5.946  10.627  13.377
87319SOL     OW63730   8.500   1.731   3.762
87319SOL    HW163731   8.410   1.698   3.763
87319SOL    HW263732   8.509   1.776   3.679
87320SOL     OW63733   2.391   2.371   2.597
87320SOL    HW163734   2.418   2.389   2.687
87320SOL    HW263735   2.310   2.320   2.606
87321SOL     OW63736  12.433   9.837   2.958
87321SOL    HW163737  12.347   9.812   2.923
87321SOL    HW263738  12.414   9.906   3.021
87322SOL     OW63739   1.062   1.427   4.196
87322SOL    HW163740   1.122   1.500   4.207
87322SOL    HW263741   0.983   1.466   4.157
87323SOL     OW63742   0.945  10.126   2.721
87323SOL    HW163743   0.850  10.114   2.731
87323SOL    HW263744   0.955  10.221   2.711
87324SOL     OW63745   4.547   9.405   7.819
87324SOL    HW163746   4.619   9.401   7.757
87324SOL    HW263747   4.586   9.437   7.900
87325SOL     OW63748  12.640   8.947   0.722
87325SOL    HW163749  12.584   8.965   0.646
87325SOL    HW263750  12.697   9.024   0.728
87326SOL     OW63751   7.896  12.904   5.272
87326SOL    HW163752   7.866  12.957   5.345
87326SOL    HW263753   7.862  12.947   5.194
87327SOL     OW63754   8.632  14.153   8.325
87327SOL    HW163755   8.715  14.169   8.369
87327SOL    HW263756   8.602  14.069   8.361
87328SOL     OW63757   8.023   1.345   9.188
87328SOL    HW163758   8.004   1.439   9.188
87328SOL    HW263759   8.062   1.328   9.102
87329SOL     OW63760   6.021   7.746   3.107
87329SOL    HW163761   6.034   7.652   3.090
87329SOL    HW263762   5.948   7.749   3.169
87330SOL     OW63763  14.802   2.883   2.507
87330SOL    HW163764  14.759   2.966   2.528
87330SOL    HW263765  14.738   2.816   2.531
87331SOL     OW63766   0.938   3.149  12.271
87331SOL    HW163767   0.977   3.125  12.355
87331SOL    HW263768   1.009   3.191  12.222
87332SOL     OW63769   5.775   8.517   6.934
87332SOL    HW163770   5.815   8.534   6.849
87332SOL    HW263771   5.795   8.595   6.987
87333SOL     OW63772  12.581   9.074   2.910
87333SOL    HW163773  12.542   9.162   2.916
87333SOL    HW263774  12.602   9.052   3.001
87334SOL     OW63775   3.499   7.001   0.916
87334SOL    HW163776   3.425   6.975   0.860
87334SOL    HW263777   3.459   7.020   1.001
87335SOL     OW63778   1.830  12.328  10.671
87335SOL    HW163779   1.873  12.411  10.649
87335SOL    HW263780   1.879  12.262  10.621
87336SOL     OW63781   2.197   8.186   1.171
87336SOL    HW163782   2.179   8.254   1.236
87336SOL    HW263783   2.261   8.129   1.213
87337SOL     OW63784  10.930   6.909  13.460
87337SOL    HW163785  10.979   6.978  13.506
87337SOL    HW263786  10.853   6.894  13.515
87338SOL     OW63787   5.176   4.997   2.591
87338SOL    HW163788   5.205   4.945   2.515
87338SOL    HW263789   5.228   4.964   2.664
87339SOL     OW63790  12.480   2.008  11.759
87339SOL    HW163791  12.409   1.950  11.786
87339SOL    HW263792  12.558   1.972  11.802
87340SOL     OW63793   2.806   0.908  10.602
87340SOL    HW163794   2.714   0.924  10.582
87340SOL    HW263795   2.853   0.980  10.561
87341SOL     OW63796  13.943   7.925   8.201
87341SOL    HW163797  13.964   8.019   8.203
87341SOL    HW263798  14.023   7.882   8.231
87342SOL     OW63799   9.988   8.440   7.410
87342SOL    HW163800   9.927   8.385   7.360
87342SOL    HW263801  10.054   8.379   7.442
87343SOL     OW63802   1.268  13.650   1.105
87343SOL    HW163803   1.217  13.726   1.077
87343SOL    HW263804   1.335  13.640   1.037
87344SOL     OW63805   0.206   7.652   8.231
87344SOL    HW163806   0.137   7.655   8.298
87344SOL    HW263807   0.175   7.711   8.162
87345SOL     OW63808   3.717  10.498   4.236
87345SOL    HW163809   3.739  10.439   4.308
87345SOL    HW263810   3.625  10.480   4.218
87346SOL     OW63811   1.528  14.515  12.856
87346SOL    HW163812   1.512  14.497  12.949
87346SOL    HW263813   1.522  14.430  12.814
87347SOL     OW63814   0.312   7.538   2.175
87347SOL    HW163815   0.297   7.542   2.270
87347SOL    HW263816   0.243   7.480   2.142
87348SOL     OW63817  14.756   1.612  12.235
87348SOL    HW163818  14.768   1.517  12.234
87348SOL    HW263819  14.678   1.626  12.290
87349SOL     OW63820   0.229   5.494   1.620
87349SOL    HW163821   0.182   5.444   1.553
87349SOL    HW263822   0.205   5.585   1.604
87350SOL     OW63823   6.997   1.830   5.015
87350SOL    HW163824   6.984   1.875   5.099
87350SOL    HW263825   7.092   1.817   5.009
87351SOL     OW63826   0.609   7.834  12.832
87351SOL    HW163827   0.518   7.864  12.829
87351SOL    HW263828   0.606   7.753  12.884
87352SOL     OW63829   0.259   6.034   4.151
87352SOL    HW163830   0.347   6.066   4.129
87352SOL    HW263831   0.265   5.939   4.141
87353SOL     OW63832   6.603   3.482   6.385
87353SOL    HW163833   6.689   3.441   6.377
87353SOL    HW263834   6.570   3.487   6.296
87354SOL     OW63835   7.833   9.416   4.526
87354SOL    HW163836   7.805   9.454   4.609
87354SOL    HW263837   7.834   9.490   4.465
87355SOL     OW63838   3.506   7.905   0.965
87355SOL    HW163839   3.485   7.814   0.944
87355SOL    HW263840   3.482   7.955   0.888
87356SOL     OW63841  12.384   8.627   2.385
87356SOL    HW163842  12.313   8.690   2.398
87356SOL    HW263843  12.343   8.541   2.399
87357SOL     OW63844  13.333   9.094   9.479
87357SOL    HW163845  13.323   9.023   9.543
87357SOL    HW263846  13.308   9.173   9.526
87358SOL     OW63847  10.468  10.817  10.728
87358SOL    HW163848  10.380  10.784  10.745
87358SOL    HW263849  10.516  10.806  10.810
87359SOL     OW63850  13.600  12.220   7.881
87359SOL    HW163851  13.674  12.280   7.873
87359SOL    HW263852  13.621  12.148   7.822
87360SOL     OW63853  12.027   8.048   1.508
87360SOL    HW163854  12.034   7.966   1.458
87360SOL    HW263855  12.096   8.043   1.573
87361SOL     OW63856   5.624  13.504   9.925
87361SOL    HW163857   5.653  13.573   9.866
87361SOL    HW263858   5.701  13.450   9.939
87362SOL     OW63859   7.484  13.932   3.243
87362SOL    HW163860   7.446  13.863   3.297
87362SOL    HW263861   7.460  14.013   3.286
87363SOL     OW63862  13.957   5.110   2.843
87363SOL    HW163863  13.869   5.133   2.812
87363SOL    HW263864  13.966   5.156   2.926
87364SOL     OW63865   5.682   4.948   0.932
87364SOL    HW163866   5.767   4.945   0.974
87364SOL    HW263867   5.691   5.014   0.863
87365SOL     OW63868   7.995   1.346   8.093
87365SOL    HW163869   8.021   1.258   8.065
87365SOL    HW263870   7.945   1.381   8.019
87366SOL     OW63871  10.046   9.046   0.259
87366SOL    HW163872  10.015   8.964   0.220
87366SOL    HW263873  10.114   9.077   0.199
87367SOL     OW63874   1.763   3.437   1.882
87367SOL    HW163875   1.672   3.463   1.899
87367SOL    HW263876   1.777   3.360   1.937
87368SOL     OW63877   4.073  14.217  10.675
87368SOL    HW163878   4.071  14.168  10.757
87368SOL    HW263879   3.990  14.266  10.674
87369SOL     OW63880   4.262   5.088   3.121
87369SOL    HW163881   4.213   5.158   3.164
87369SOL    HW263882   4.294   5.128   3.039
87370SOL     OW63883   2.037  11.890   6.657
87370SOL    HW163884   2.107  11.836   6.692
87370SOL    HW263885   2.074  11.978   6.652
87371SOL     OW63886  14.874   2.291   5.500
87371SOL    HW163887  14.805   2.357   5.510
87371SOL    HW263888   0.071   2.341   5.468
87372SOL     OW63889   9.704   2.552  10.033
87372SOL    HW163890   9.715   2.647  10.034
87372SOL    HW263891   9.633   2.536  10.095
87373SOL     OW63892   7.405  11.205   8.243
87373SOL    HW163893   7.327  11.151   8.258
87373SOL    HW263894   7.473  11.143   8.219
87374SOL     OW63895  14.074   2.348   3.188
87374SOL    HW163896  14.093   2.298   3.109
87374SOL    HW263897  14.068   2.439   3.158
87375SOL     OW63898  12.316   9.642   1.551
87375SOL    HW163899  12.239   9.588   1.569
87375SOL    HW263900  12.350   9.663   1.638
87376SOL     OW63901   9.765  10.807   5.705
87376SOL    HW163902   9.837  10.748   5.683
87376SOL    HW263903   9.690  10.750   5.719
87377SOL     OW63904   5.366   8.452   9.428
87377SOL    HW163905   5.425   8.396   9.478
87377SOL    HW263906   5.290   8.397   9.411
87378SOL     OW63907   8.624   4.715   3.979
87378SOL    HW163908   8.706   4.763   3.991
87378SOL    HW263909   8.635   4.669   3.896
87379SOL     OW63910   5.809  10.152  11.417
87379SOL    HW163911   5.896  10.169  11.454
87379SOL    HW263912   5.815  10.064  11.380
87380SOL     OW63913   2.365   9.437   7.653
87380SOL    HW163914   2.440   9.381   7.674
87380SOL    HW263915   2.375   9.514   7.710
87381SOL     OW63916   6.025   2.628   2.124
87381SOL    HW163917   5.981   2.710   2.145
87381SOL    HW263918   6.028   2.625   2.028
87382SOL     OW63919   8.687   9.631   2.844
87382SOL    HW163920   8.674   9.609   2.752
87382SOL    HW263921   8.598   9.638   2.880
87383SOL     OW63922   8.117   4.371   8.988
87383SOL    HW163923   8.112   4.362   8.892
87383SOL    HW263924   8.198   4.419   9.003
87384SOL     OW63925   4.564  12.659  12.089
87384SOL    HW163926   4.632  12.594  12.068
87384SOL    HW263927   4.512  12.666  12.009
87385SOL     OW63928   7.223   8.733  11.450
87385SOL    HW163929   7.289   8.690  11.397
87385SOL    HW263930   7.269   8.807  11.491
87386SOL     OW63931  14.822   7.468   6.336
87386SOL    HW163932  14.807   7.474   6.431
87386SOL    HW263933  14.780   7.546   6.300
87387SOL     OW63934   8.402  10.616  12.724
87387SOL    HW163935   8.473  10.587  12.666
87387SOL    HW263936   8.322  10.588  12.679
87388SOL     OW63937   3.273   8.787   8.400
87388SOL    HW163938   3.277   8.695   8.423
87388SOL    HW263939   3.212   8.825   8.463
87389SOL     OW63940   1.970   1.401   5.309
87389SOL    HW163941   1.962   1.323   5.254
87389SOL    HW263942   1.882   1.416   5.342
87390SOL     OW63943   2.950  10.339   1.862
87390SOL    HW163944   3.037  10.323   1.898
87390SOL    HW263945   2.901  10.260   1.881
87391SOL     OW63946   0.201  13.062  11.749
87391SOL    HW163947   0.192  13.147  11.792
87391SOL    HW263948   0.122  13.015  11.773
87392SOL     OW63949   6.603  12.002  14.778
87392SOL    HW163950   6.616  11.948  14.700
87392SOL    HW263951   6.616  12.091  14.747
87393SOL     OW63952  13.576   3.845   6.246
87393SOL    HW163953  13.659   3.866   6.203
87393SOL    HW263954  13.597   3.771   6.303
87394SOL     OW63955   1.436   1.488   1.796
87394SOL    HW163956   1.441   1.522   1.886
87394SOL    HW263957   1.424   1.566   1.742
87395SOL     OW63958   3.749  13.215  11.258
87395SOL    HW163959   3.738  13.215  11.353
87395SOL    HW263960   3.712  13.131  11.230
87396SOL     OW63961   0.416   9.605   6.042
87396SOL    HW163962   0.478   9.538   6.014
87396SOL    HW263963   0.442   9.625   6.132
87397SOL     OW63964   5.048   7.667  10.819
87397SOL    HW163965   5.043   7.762  10.824
87397SOL    HW263966   4.990   7.635  10.888
87398SOL     OW63967   2.635   9.531  10.163
87398SOL    HW163968   2.678   9.513  10.247
87398SOL    HW263969   2.703   9.521  10.098
87399SOL     OW63970   0.536   4.763   2.101
87399SOL    HW163971   0.549   4.829   2.033
87399SOL    HW263972   0.578   4.684   2.067
87400SOL     OW63973   2.639   1.200  14.053
87400SOL    HW163974   2.717   1.156  14.087
87400SOL    HW263975   2.662   1.292  14.050
87401SOL     OW63976   5.476  10.713  14.598
87401SOL    HW163977   5.467  10.773  14.672
87401SOL    HW263978   5.536  10.645  14.629
87402SOL     OW63979  13.683   0.828  13.546
87402SOL    HW163980  13.722   0.849  13.461
87402SOL    HW263981  13.590   0.848  13.535
87403SOL     OW63982   6.692   7.885   8.206
87403SOL    HW163983   6.661   7.973   8.230
87403SOL    HW263984   6.769   7.872   8.262
87404SOL     OW63985   3.183  10.281   1.993
87404SOL    HW163986   3.199  10.188   1.977
87404SOL    HW263987   3.262  10.325   1.959
87405SOL     OW63988  11.951  12.857   9.849
87405SOL    HW163989  11.986  12.879   9.763
87405SOL    HW263990  11.860  12.889   9.847
87406SOL     OW63991   3.204  12.793  10.457
87406SOL    HW163992   3.287  12.796  10.408
87406SOL    HW263993   3.201  12.704  10.493
87407SOL     OW63994   7.159  12.125  11.684
87407SOL    HW163995   7.076  12.090  11.717
87407SOL    HW263996   7.141  12.217  11.664
87408SOL     OW63997   3.059   6.143   2.129
87408SOL    HW163998   3.154   6.146   2.141
87408SOL    HW263999   3.045   6.168   2.037
87409SOL     OW64000  12.724   6.277   9.527
87409SOL    HW164001  12.725   6.292   9.621
87409SOL    HW264002  12.761   6.189   9.516
87410SOL     OW64003  11.911   8.512   2.025
87410SOL    HW164004  11.852   8.565   1.972
87410SOL    HW264005  11.980   8.572   2.051
87411SOL     OW64006   0.533   6.655   2.291
87411SOL    HW164007   0.493   6.725   2.240
87411SOL    HW264008   0.573   6.700   2.365
87412SOL     OW64009   3.658  12.039  10.699
87412SOL    HW164010   3.693  12.026  10.787
87412SOL    HW264011   3.724  12.092  10.654
87413SOL     OW64012   5.714  14.228   5.177
87413SOL    HW164013   5.749  14.144   5.209
87413SOL    HW264014   5.775  14.294   5.212
87414SOL     OW64015  11.086   9.948   5.300
87414SOL    HW164016  11.040  10.009   5.359
87414SOL    HW264017  11.086   9.865   5.347
87415SOL     OW64018   7.298  11.762   2.294
87415SOL    HW164019   7.352  11.701   2.244
87415SOL    HW264020   7.325  11.748   2.385
87416SOL     OW64021   5.638   5.503   3.081
87416SOL    HW164022   5.595   5.426   3.117
87416SOL    HW264023   5.731   5.484   3.088
87417SOL     OW64024   3.744  10.058  13.378
87417SOL    HW164025   3.837  10.045  13.396
87417SOL    HW264026   3.708   9.969  13.371
87418SOL     OW64027   8.843  11.373   1.446
87418SOL    HW164028   8.894  11.449   1.475
87418SOL    HW264029   8.877  11.353   1.359
87419SOL     OW64030  10.015   1.272  12.630
87419SOL    HW164031  10.068   1.205  12.587
87419SOL    HW264032   9.950   1.222  12.680
87420SOL     OW64033  12.189  12.047  10.964
87420SOL    HW164034  12.169  12.098  11.043
87420SOL    HW264035  12.143  12.093  10.894
87421SOL     OW64036  11.741  10.855   8.962
87421SOL    HW164037  11.797  10.778   8.971
87421SOL    HW264038  11.771  10.914   9.032
87422SOL     OW64039  12.378   0.133   6.822
87422SOL    HW164040  12.305   0.093   6.869
87422SOL    HW264041  12.353   0.224   6.811
87423SOL     OW64042   2.907  10.374   9.652
87423SOL    HW164043   2.949  10.451   9.614
87423SOL    HW264044   2.979  10.315   9.673
87424SOL     OW64045   3.210   8.374  12.299
87424SOL    HW164046   3.151   8.299  12.291
87424SOL    HW264047   3.167   8.444  12.249
87425SOL     OW64048   3.075  11.129  10.117
87425SOL    HW164049   3.073  11.057  10.180
87425SOL    HW264050   3.102  11.088  10.035
87426SOL     OW64051   0.126   5.836   9.978
87426SOL    HW164052   0.212   5.828  10.020
87426SOL    HW264053   0.105   5.746   9.952
87427SOL     OW64054  13.587   8.870   1.568
87427SOL    HW164055  13.525   8.799   1.587
87427SOL    HW264056  13.672   8.827   1.568
87428SOL     OW64057   0.968   7.534   3.554
87428SOL    HW164058   0.947   7.612   3.503
87428SOL    HW264059   0.905   7.468   3.524
87429SOL     OW64060  10.662  10.529  11.614
87429SOL    HW164061  10.644  10.441  11.580
87429SOL    HW264062  10.691  10.579  11.538
87430SOL     OW64063   0.503   8.281   3.622
87430SOL    HW164064   0.527   8.225   3.696
87430SOL    HW264065   0.585   8.322   3.596
87431SOL     OW64066   1.028   9.016  14.393
87431SOL    HW164067   0.992   9.103  14.411
87431SOL    HW264068   0.960   8.956  14.421
87432SOL     OW64069   5.902   7.045   8.204
87432SOL    HW164070   5.935   6.977   8.145
87432SOL    HW264071   5.889   7.000   8.288
87433SOL     OW64072  12.109  12.818   1.067
87433SOL    HW164073  12.121  12.724   1.082
87433SOL    HW264074  12.134  12.858   1.150
87434SOL     OW64075   6.091   5.017  13.830
87434SOL    HW164076   6.027   5.062  13.886
87434SOL    HW264077   6.110   5.080  13.761
87435SOL     OW64078   2.908  11.416  12.640
87435SOL    HW164079   2.998  11.442  12.620
87435SOL    HW264080   2.857  11.496  12.634
87436SOL     OW64081   6.492  11.925   6.897
87436SOL    HW164082   6.469  11.839   6.862
87436SOL    HW264083   6.479  11.917   6.992
87437SOL     OW64084   8.769  10.409   8.828
87437SOL    HW164085   8.746  10.317   8.837
87437SOL    HW264086   8.864  10.408   8.811
87438SOL     OW64087   0.291   6.985   1.069
87438SOL    HW164088   0.343   6.904   1.073
87438SOL    HW264089   0.350   7.049   1.029
87439SOL     OW64090  13.783   4.107   3.010
87439SOL    HW164091  13.773   4.027   3.062
87439SOL    HW264092  13.798   4.175   3.075
87440SOL     OW64093   3.775   5.055  12.924
87440SOL    HW164094   3.709   5.033  12.859
87440SOL    HW264095   3.777   4.980  12.983
87441SOL     OW64096   8.559   0.373  13.317
87441SOL    HW164097   8.610   0.431  13.373
87441SOL    HW264098   8.468   0.397  13.335
87442SOL     OW64099   4.369  14.109  11.563
87442SOL    HW164100   4.289  14.105  11.616
87442SOL    HW264101   4.352  14.177  11.499
87443SOL     OW64102   9.174   7.650   0.145
87443SOL    HW164103   9.119   7.605   0.082
87443SOL    HW264104   9.121   7.723   0.176
87444SOL     OW64105   6.192  12.279   3.861
87444SOL    HW164106   6.107  12.262   3.902
87444SOL    HW264107   6.200  12.374   3.860
87445SOL     OW64108  12.860  13.007  10.990
87445SOL    HW164109  12.799  13.027  11.061
87445SOL    HW264110  12.934  12.963  11.033
87446SOL     OW64111   9.036   4.160  11.181
87446SOL    HW164112   9.046   4.176  11.087
87446SOL    HW264113   9.067   4.071  11.194
87447SOL     OW64114  11.436  13.234   5.512
87447SOL    HW164115  11.435  13.161   5.574
87447SOL    HW264116  11.437  13.191   5.426
87448SOL     OW64117  13.459   1.125   3.306
87448SOL    HW164118  13.495   1.209   3.336
87448SOL    HW264119  13.529   1.086   3.254
87449SOL     OW64120  12.419   6.006  12.561
87449SOL    HW164121  12.488   5.949  12.596
87449SOL    HW264122  12.393   5.963  12.479
87450SOL     OW64123   0.255   4.164  12.874
87450SOL    HW164124   0.246   4.205  12.960
87450SOL    HW264125   0.254   4.237  12.813
87451SOL     OW64126   4.568   9.611   9.850
87451SOL    HW164127   4.576   9.668   9.927
87451SOL    HW264128   4.492   9.557   9.868
87452SOL     OW64129  10.083  10.935   7.091
87452SOL    HW164130  10.171  10.924   7.055
87452SOL    HW264131  10.095  10.928   7.185
87453SOL     OW64132   7.985  13.672   8.323
87453SOL    HW164133   7.911  13.693   8.379
87453SOL    HW264134   7.968  13.583   8.292
87454SOL     OW64135   5.556  14.032   1.293
87454SOL    HW164136   5.597  13.978   1.361
87454SOL    HW264137   5.502  14.094   1.340
87455SOL     OW64138   7.396   7.946   8.602
87455SOL    HW164139   7.482   7.987   8.591
87455SOL    HW264140   7.340   8.017   8.635
87456SOL     OW64141   3.877   6.824   0.943
87456SOL    HW164142   3.842   6.910   0.964
87456SOL    HW264143   3.858   6.770   1.020
87457SOL     OW64144   5.873  11.731   7.286
87457SOL    HW164145   5.853  11.667   7.354
87457SOL    HW264146   5.969  11.735   7.284
87458SOL     OW64147   3.697   4.882   1.206
87458SOL    HW164148   3.614   4.856   1.247
87458SOL    HW264149   3.764   4.833   1.253
87459SOL     OW64150   2.100   0.671  12.532
87459SOL    HW164151   2.061   0.680  12.619
87459SOL    HW264152   2.061   0.741  12.481
87460SOL     OW64153   3.823   3.428   7.315
87460SOL    HW164154   3.766   3.505   7.318
87460SOL    HW264155   3.832   3.409   7.222
87461SOL     OW64156  13.459   0.487   4.109
87461SOL    HW164157  13.429   0.404   4.073
87461SOL    HW264158  13.517   0.462   4.181
87462SOL     OW64159  13.401   9.795   0.561
87462SOL    HW164160  13.348   9.851   0.618
87462SOL    HW264161  13.458   9.855   0.514
87463SOL     OW64162   3.391   8.055   3.154
87463SOL    HW164163   3.341   8.083   3.230
87463SOL    HW264164   3.410   7.963   3.169
87464SOL     OW64165   9.307  12.946   7.270
87464SOL    HW164166   9.248  13.021   7.266
87464SOL    HW264167   9.392  12.984   7.290
87465SOL     OW64168  13.674   0.468   3.657
87465SOL    HW164169  13.705   0.467   3.567
87465SOL    HW264170  13.751   0.490   3.709
87466SOL     OW64171  12.582  12.500  14.414
87466SOL    HW164172  12.604  12.478  14.505
87466SOL    HW264173  12.581  12.595  14.412
87467SOL     OW64174  11.944  10.189   6.172
87467SOL    HW164175  12.027  10.209   6.216
87467SOL    HW264176  11.882  10.177   6.244
87468SOL     OW64177   2.589   8.962   7.528
87468SOL    HW164178   2.575   8.867   7.521
87468SOL    HW264179   2.684   8.973   7.521
87469SOL     OW64180   1.235   2.342   6.456
87469SOL    HW164181   1.277   2.330   6.541
87469SOL    HW264182   1.299   2.312   6.392
87470SOL     OW64183   3.470  14.792   8.887
87470SOL    HW164184   3.554  14.764   8.923
87470SOL    HW264185   3.426  14.837   8.959
87471SOL     OW64186   7.277   6.255  13.789
87471SOL    HW164187   7.211   6.289  13.728
87471SOL    HW264188   7.252   6.164  13.803
87472SOL     OW64189   4.583   5.309   1.180
87472SOL    HW164190   4.670   5.342   1.203
87472SOL    HW264191   4.601   5.227   1.134
87473SOL     OW64192  11.540  11.749   7.721
87473SOL    HW164193  11.561  11.756   7.814
87473SOL    HW264194  11.551  11.656   7.701
87474SOL     OW64195   4.924  12.815   3.630
87474SOL    HW164196   5.016  12.834   3.614
87474SOL    HW264197   4.918  12.719   3.626
87475SOL     OW64198   5.965   2.417  12.256
87475SOL    HW164199   5.984   2.477  12.184
87475SOL    HW264200   6.016   2.450  12.330
87476SOL     OW64201  12.406  14.354   2.869
87476SOL    HW164202  12.382  14.388   2.783
87476SOL    HW264203  12.498  14.330   2.861
87477SOL     OW64204   6.953   5.270   7.613
87477SOL    HW164205   6.912   5.195   7.657
87477SOL    HW264206   7.029   5.233   7.568
87478SOL     OW64207   3.402  14.400  13.596
87478SOL    HW164208   3.419  14.425  13.505
87478SOL    HW264209   3.307  14.407  13.605
87479SOL     OW64210   3.665   6.171   7.530
87479SOL    HW164211   3.622   6.086   7.534
87479SOL    HW264212   3.660   6.197   7.438
87480SOL     OW64213  12.484  13.164   2.959
87480SOL    HW164214  12.499  13.258   2.950
87480SOL    HW264215  12.399  13.158   3.002
87481SOL     OW64216   8.480   5.544   5.246
87481SOL    HW164217   8.560   5.593   5.228
87481SOL    HW264218   8.415   5.612   5.266
87482SOL     OW64219   8.991  10.461   3.833
87482SOL    HW164220   9.054  10.521   3.872
87482SOL    HW264221   9.001  10.380   3.883
87483SOL     OW64222   1.232   6.374   6.001
87483SOL    HW164223   1.264   6.450   6.050
87483SOL    HW264224   1.298   6.361   5.932
87484SOL     OW64225   5.468   3.067  11.103
87484SOL    HW164226   5.490   3.153  11.138
87484SOL    HW264227   5.543   3.043  11.049
87485SOL     OW64228  13.446   5.246   7.394
87485SOL    HW164229  13.459   5.155   7.365
87485SOL    HW264230  13.535   5.281   7.403
87486SOL     OW64231   1.033   1.110   3.376
87486SOL    HW164232   1.079   1.071   3.302
87486SOL    HW264233   1.079   1.077   3.454
87487SOL     OW64234  10.745   4.567   5.962
87487SOL    HW164235  10.835   4.551   5.992
87487SOL    HW264236  10.703   4.613   6.034
87488SOL     OW64237  10.564  11.075   1.375
87488SOL    HW164238  10.483  11.079   1.425
87488SOL    HW264239  10.612  11.153   1.400
87489SOL     OW64240   9.749   3.290  11.267
87489SOL    HW164241   9.720   3.223  11.329
87489SOL    HW264242   9.841   3.269  11.252
87490SOL     OW64243   6.390   2.586  11.449
87490SOL    HW164244   6.451   2.513  11.459
87490SOL    HW264245   6.403   2.617  11.360
87491SOL     OW64246   1.012   2.751   0.374
87491SOL    HW164247   0.922   2.731   0.350
87491SOL    HW264248   1.036   2.824   0.318
87492SOL     OW64249   3.491  12.718   4.387
87492SOL    HW164250   3.399  12.741   4.393
87492SOL    HW264251   3.513  12.681   4.472
87493SOL     OW64252  10.330  11.365   6.733
87493SOL    HW164253  10.335  11.324   6.647
87493SOL    HW264254  10.282  11.301   6.787
87494SOL     OW64255   6.869  12.755  14.694
87494SOL    HW164256   6.846  12.844  14.667
87494SOL    HW264257   6.879  12.707  14.611
87495SOL     OW64258   8.805   7.509  12.540
87495SOL    HW164259   8.895   7.503  12.510
87495SOL    HW264260   8.790   7.428  12.589
87496SOL     OW64261   4.452   5.715  13.723
87496SOL    HW164262   4.522   5.780  13.729
87496SOL    HW264263   4.392   5.749  13.657
87497SOL     OW64264   2.118   0.417  11.560
87497SOL    HW164265   2.173   0.481  11.605
87497SOL    HW264266   2.058   0.470  11.508
87498SOL     OW64267  11.304  12.452   5.573
87498SOL    HW164268  11.357  12.444   5.652
87498SOL    HW264269  11.253  12.371   5.570
87499SOL     OW64270   5.986  13.319   5.698
87499SOL    HW164271   5.958  13.367   5.776
87499SOL    HW264272   5.986  13.227   5.724
87500SOL     OW64273   5.399   5.110  14.352
87500SOL    HW164274   5.448   5.114  14.270
87500SOL    HW264275   5.308   5.123  14.326
87501SOL     OW64276   9.980   9.433   3.729
87501SOL    HW164277   9.897   9.471   3.757
87501SOL    HW264278  10.035   9.435   3.807
87502SOL     OW64279  14.538   8.648   4.364
87502SOL    HW164280  14.608   8.668   4.303
87502SOL    HW264281  14.457   8.659   4.313
87503SOL     OW64282  14.638   6.063   1.684
87503SOL    HW164283  14.729   6.055   1.712
87503SOL    HW264284  14.633   6.012   1.603
87504SOL     OW64285   4.516  11.213   4.220
87504SOL    HW164286   4.546  11.298   4.188
87504SOL    HW264287   4.420  11.218   4.217
87505SOL     OW64288   8.040   1.815   7.182
87505SOL    HW164289   8.134   1.831   7.186
87505SOL    HW264290   8.026   1.774   7.097
87506SOL     OW64291  14.077   1.319   7.302
87506SOL    HW164292  14.068   1.235   7.258
87506SOL    HW264293  13.996   1.366   7.282
87507SOL     OW64294  13.326   2.072   1.162
87507SOL    HW164295  13.256   2.029   1.113
87507SOL    HW264296  13.402   2.068   1.104
87508SOL     OW64297  11.949  14.555   3.364
87508SOL    HW164298  11.921  14.511   3.284
87508SOL    HW264299  11.886  14.526   3.430
87509SOL     OW64300   5.114  11.263   4.933
87509SOL    HW164301   5.085  11.266   5.024
87509SOL    HW264302   5.209  11.263   4.938
87510SOL     OW64303  13.257   0.999  11.858
87510SOL    HW164304  13.327   1.037  11.910
87510SOL    HW264305  13.298   0.979  11.773
87511SOL     OW64306  14.085   9.292  10.416
87511SOL    HW164307  14.132   9.375  10.408
87511SOL    HW264308  14.125   9.249  10.492
87512SOL     OW64309   5.642   9.865  12.023
87512SOL    HW164310   5.636   9.801  11.952
87512SOL    HW264311   5.720   9.916  12.004
87513SOL     OW64312   0.268  11.801   2.013
87513SOL    HW164313   0.183  11.844   2.001
87513SOL    HW264314   0.332  11.873   2.011
87514SOL     OW64315   9.335   3.088   0.290
87514SOL    HW164316   9.272   3.125   0.228
87514SOL    HW264317   9.420   3.102   0.249
87515SOL     OW64318  10.172   9.822   2.781
87515SOL    HW164319  10.078   9.806   2.780
87515SOL    HW264320  10.197   9.827   2.689
87516SOL     OW64321   5.670   7.685  13.757
87516SOL    HW164322   5.614   7.631  13.813
87516SOL    HW264323   5.679   7.768  13.806
87517SOL     OW64324   5.946   4.658  11.480
87517SOL    HW164325   6.006   4.733  11.479
87517SOL    HW264326   5.968   4.610  11.560
87518SOL     OW64327  14.637   3.778   8.663
87518SOL    HW164328  14.557   3.801   8.710
87518SOL    HW264329  14.658   3.855   8.611
87519SOL     OW64330   6.508   1.047   8.516
87519SOL    HW164331   6.498   0.975   8.578
87519SOL    HW264332   6.516   1.125   8.572
87520SOL     OW64333   0.282  12.972   2.782
87520SOL    HW164334   0.340  12.901   2.753
87520SOL    HW264335   0.284  12.967   2.877
87521SOL     OW64336   2.728   6.137   2.437
87521SOL    HW164337   2.780   6.080   2.381
87521SOL    HW264338   2.694   6.205   2.378
87522SOL     OW64339   7.245   5.816  11.057
87522SOL    HW164340   7.232   5.789  11.148
87522SOL    HW264341   7.159   5.846  11.029
87523SOL     OW64342   0.029  13.848  11.425
87523SOL    HW164343  14.877  13.937  11.446
87523SOL    HW264344  14.829  13.805  11.389
87524SOL     OW64345  13.828   9.963   3.179
87524SOL    HW164346  13.738   9.976   3.147
87524SOL    HW264347  13.818   9.946   3.273
87525SOL     OW64348  11.996  11.544   0.373
87525SOL    HW164349  12.042  11.624   0.347
87525SOL    HW264350  11.939  11.524   0.298
87526SOL     OW64351   7.453   3.113   1.021
87526SOL    HW164352   7.424   3.111   1.113
87526SOL    HW264353   7.415   3.034   0.982
87527SOL     OW64354  13.403  14.683   1.129
87527SOL    HW164355  13.416  14.668   1.223
87527SOL    HW264356  13.312  14.656   1.113
87528SOL     OW64357  10.770   2.076   5.250
87528SOL    HW164358  10.819   2.070   5.168
87528SOL    HW264359  10.742   2.168   5.254
87529SOL     OW64360   0.841   4.348   9.431
87529SOL    HW164361   0.826   4.330   9.524
87529SOL    HW264362   0.754   4.364   9.395
87530SOL     OW64363  14.534  11.562   0.329
87530SOL    HW164364  14.506  11.565   0.238
87530SOL    HW264365  14.483  11.630   0.373
87531SOL     OW64366   9.171   1.163   5.380
87531SOL    HW164367   9.130   1.109   5.312
87531SOL    HW264368   9.111   1.237   5.391
87532SOL     OW64369   6.899   2.969  10.102
87532SOL    HW164370   6.817   2.921  10.090
87532SOL    HW264371   6.873   3.062  10.098
87533SOL     OW64372  12.525   0.643   7.120
87533SOL    HW164373  12.552   0.566   7.170
87533SOL    HW264374  12.430   0.646   7.131
87534SOL     OW64375  12.115   1.054   9.843
87534SOL    HW164376  12.125   0.962   9.865
87534SOL    HW264377  12.200   1.093   9.860
87535SOL     OW64378  13.708  11.302   4.728
87535SOL    HW164379  13.760  11.358   4.787
87535SOL    HW264380  13.693  11.357   4.651
87536SOL     OW64381   6.951   3.967   0.817
87536SOL    HW164382   6.934   3.912   0.893
87536SOL    HW264383   6.939   4.056   0.847
87537SOL     OW64384   3.829   6.971   3.686
87537SOL    HW164385   3.767   6.904   3.715
87537SOL    HW264386   3.820   7.041   3.750
87538SOL     OW64387   8.363   4.246   1.419
87538SOL    HW164388   8.340   4.319   1.476
87538SOL    HW264389   8.440   4.206   1.461
87539SOL     OW64390   7.369   6.278  13.042
87539SOL    HW164391   7.442   6.309  13.096
87539SOL    HW264392   7.297   6.266  13.104
87540SOL     OW64393   4.115   0.198  13.692
87540SOL    HW164394   4.086   0.245  13.614
87540SOL    HW264395   4.037   0.189  13.746
87541SOL     OW64396   6.171   6.690   7.069
87541SOL    HW164397   6.112   6.688   7.144
87541SOL    HW264398   6.248   6.641   7.097
87542SOL     OW64399   7.516  11.476   3.557
87542SOL    HW164400   7.609  11.487   3.534
87542SOL    HW264401   7.469  11.484   3.474
87543SOL     OW64402   4.075   3.924   6.908
87543SOL    HW164403   4.147   3.876   6.948
87543SOL    HW264404   4.109   4.013   6.896
87544SOL     OW64405  13.334   4.985   0.087
87544SOL    HW164406  13.241   4.987   0.108
87544SOL    HW264407  13.368   5.069   0.119
87545SOL     OW64408  11.358  14.482   0.936
87545SOL    HW164409  11.413  14.472   1.013
87545SOL    HW264410  11.383  14.409   0.879
87546SOL     OW64411   4.761   6.634   4.148
87546SOL    HW164412   4.771   6.697   4.220
87546SOL    HW264413   4.788   6.550   4.186
87547SOL     OW64414  14.537  14.866   4.693
87547SOL    HW164415  14.589   0.068   4.689
87547SOL    HW264416  14.458   0.015   4.740
87548SOL     OW64417  11.312  11.431   9.790
87548SOL    HW164418  11.265  11.485   9.853
87548SOL    HW264419  11.278  11.342   9.803
87549SOL     OW64420   2.334  13.726   5.997
87549SOL    HW164421   2.389  13.666   5.946
87549SOL    HW264422   2.395  13.768   6.058
87550SOL     OW64423   0.427   8.606   1.594
87550SOL    HW164424   0.417   8.674   1.527
87550SOL    HW264425   0.380   8.640   1.670
87551SOL     OW64426   9.066   8.601  10.769
87551SOL    HW164427   9.111   8.664  10.824
87551SOL    HW264428   9.072   8.518  10.817
87552SOL     OW64429  11.347   0.122   0.113
87552SOL    HW164430  11.410   0.190   0.093
87552SOL    HW264431  11.331   0.078   0.029
87553SOL     OW64432   9.680   8.475   1.339
87553SOL    HW164433   9.667   8.537   1.267
87553SOL    HW264434   9.605   8.490   1.397
87554SOL     OW64435   7.870   6.815   8.515
87554SOL    HW164436   7.891   6.873   8.442
87554SOL    HW264437   7.921   6.848   8.589
87555SOL     OW64438   6.231   7.706   2.084
87555SOL    HW164439   6.250   7.707   1.990
87555SOL    HW264440   6.282   7.632   2.118
87556SOL     OW64441   4.146   4.775  13.565
87556SOL    HW164442   4.113   4.694  13.528
87556SOL    HW264443   4.201   4.813  13.496
87557SOL     OW64444   9.449   5.108   1.968
87557SOL    HW164445   9.451   5.131   2.061
87557SOL    HW264446   9.513   5.038   1.959
87558SOL     OW64447   1.568   6.642   4.587
87558SOL    HW164448   1.480   6.619   4.616
87558SOL    HW264449   1.556   6.677   4.498
87559SOL     OW64450  12.853   8.521   8.854
87559SOL    HW164451  12.773   8.479   8.821
87559SOL    HW264452  12.828   8.553   8.941
87560SOL     OW64453  11.925   5.063  10.996
87560SOL    HW164454  12.018   5.042  10.999
87560SOL    HW264455  11.919   5.153  11.028
87561SOL     OW64456   3.472  13.397   0.547
87561SOL    HW164457   3.462  13.350   0.464
87561SOL    HW264458   3.538  13.347   0.595
87562SOL     OW64459   6.928   8.952  11.242
87562SOL    HW164460   6.917   8.902  11.161
87562SOL    HW264461   7.012   8.997  11.232
87563SOL     OW64462  13.404   2.523   5.583
87563SOL    HW164463  13.414   2.570   5.666
87563SOL    HW264464  13.313   2.493   5.583
87564SOL     OW64465   9.965  10.020   0.398
87564SOL    HW164466  10.008  10.086   0.452
87564SOL    HW264467  10.020   9.942   0.408
87565SOL     OW64468   0.225   4.700   9.250
87565SOL    HW164469   0.311   4.674   9.285
87565SOL    HW264470   0.179   4.617   9.236
87566SOL     OW64471   9.243   9.824  12.159
87566SOL    HW164472   9.165   9.778  12.191
87566SOL    HW264473   9.285   9.858  12.238
87567SOL     OW64474  12.467  13.362   0.831
87567SOL    HW164475  12.451  13.456   0.843
87567SOL    HW264476  12.403  13.319   0.888
87568SOL     OW64477   4.684  10.385  13.926
87568SOL    HW164478   4.758  10.410  13.981
87568SOL    HW264479   4.613  10.444  13.952
87569SOL     OW64480   4.566   8.622  14.792
87569SOL    HW164481   4.590   8.668  14.712
87569SOL    HW264482   4.535   8.690  14.851
87570SOL     OW64483   6.945  13.815   8.994
87570SOL    HW164484   6.898  13.886   8.950
87570SOL    HW264485   7.037  13.836   8.981
87571SOL     OW64486   5.320  13.301   9.407
87571SOL    HW164487   5.259  13.374   9.396
87571SOL    HW264488   5.290  13.235   9.345
87572SOL     OW64489   2.825  11.944   1.697
87572SOL    HW164490   2.903  12.000   1.700
87572SOL    HW264491   2.764  11.984   1.758
87573SOL     OW64492   6.496   5.949   6.368
87573SOL    HW164493   6.415   5.986   6.403
87573SOL    HW264494   6.490   5.855   6.385
87574SOL     OW64495   4.653  13.765  13.887
87574SOL    HW164496   4.668  13.707  13.812
87574SOL    HW264497   4.653  13.853  13.849
87575SOL     OW64498  14.545   1.963   9.840
87575SOL    HW164499  14.634   1.934   9.822
87575SOL    HW264500  14.541   1.969   9.935
87576SOL     OW64501   9.134  11.946  14.394
87576SOL    HW164502   9.102  11.907  14.475
87576SOL    HW264503   9.112  12.038  14.401
87577SOL     OW64504  11.900   3.190   0.498
87577SOL    HW164505  11.972   3.243   0.532
87577SOL    HW264506  11.829   3.202   0.561
87578SOL     OW64507  13.724   2.168   7.778
87578SOL    HW164508  13.686   2.235   7.721
87578SOL    HW264509  13.815   2.195   7.789
87579SOL     OW64510   8.079   9.694  11.714
87579SOL    HW164511   8.053   9.614  11.669
87579SOL    HW264512   8.013   9.758  11.689
87580SOL     OW64513   5.771  10.690  10.486
87580SOL    HW164514   5.851  10.685  10.433
87580SOL    HW264515   5.715  10.620  10.452
87581SOL     OW64516  13.543   9.019   4.994
87581SOL    HW164517  13.547   9.047   5.086
87581SOL    HW264518  13.523   8.925   4.999
87582SOL     OW64519   3.164   2.492  13.750
87582SOL    HW164520   3.117   2.475  13.669
87582SOL    HW264521   3.240   2.433  13.747
87583SOL     OW64522   7.183   2.110   5.072
87583SOL    HW164523   7.271   2.076   5.088
87583SOL    HW264524   7.171   2.100   4.977
87584SOL     OW64525  11.771  10.885   7.532
87584SOL    HW164526  11.783  10.880   7.437
87584SOL    HW264527  11.733  10.971   7.547
87585SOL     OW64528  10.580  10.776   2.261
87585SOL    HW164529  10.584  10.727   2.343
87585SOL    HW264530  10.620  10.719   2.196
87586SOL     OW64531   1.855   9.647  14.058
87586SOL    HW164532   1.857   9.554  14.081
87586SOL    HW264533   1.776   9.680  14.100
87587SOL     OW64534  12.179   4.492  14.445
87587SOL    HW164535  12.146   4.576  14.415
87587SOL    HW264536  12.174   4.435  14.368
87588SOL     OW64537   4.819   4.924  13.306
87588SOL    HW164538   4.788   4.918  13.216
87588SOL    HW264539   4.744   4.899  13.360
87589SOL     OW64540   0.743   0.610   3.831
87589SOL    HW164541   0.662   0.660   3.818
87589SOL    HW264542   0.788   0.614   3.747
87590SOL     OW64543  10.250   2.633   0.316
87590SOL    HW164544  10.236   2.574   0.390
87590SOL    HW264545  10.250   2.576   0.239
87591SOL     OW64546   1.606  14.051   7.377
87591SOL    HW164547   1.588  14.041   7.470
87591SOL    HW264548   1.621  13.962   7.345
87592SOL     OW64549  12.775   7.862  13.926
87592SOL    HW164550  12.716   7.916  13.980
87592SOL    HW264551  12.806   7.922  13.858
87593SOL     OW64552   4.749   6.055   3.769
87593SOL    HW164553   4.762   6.055   3.674
87593SOL    HW264554   4.763   5.964   3.795
87594SOL     OW64555   5.771   1.683  12.605
87594SOL    HW164556   5.846   1.631  12.634
87594SOL    HW264557   5.808   1.764  12.573
87595SOL     OW64558   5.409   0.086  13.164
87595SOL    HW164559   5.317   0.063  13.176
87595SOL    HW264560   5.456   0.028  13.223
87596SOL     OW64561   7.932   8.421   6.041
87596SOL    HW164562   7.837   8.407   6.042
87596SOL    HW264563   7.969   8.333   6.045
87597SOL     OW64564  11.860  12.046   8.099
87597SOL    HW164565  11.915  12.051   8.178
87597SOL    HW264566  11.905  12.102   8.035
87598SOL     OW64567  10.242  12.864   9.067
87598SOL    HW164568  10.159  12.822   9.088
87598SOL    HW264569  10.287  12.803   9.009
87599SOL     OW64570  12.227  11.881  12.211
87599SOL    HW164571  12.305  11.919  12.251
87599SOL    HW264572  12.155  11.907  12.268
87600SOL     OW64573   4.271   7.848   4.247
87600SOL    HW164574   4.205   7.817   4.309
87600SOL    HW264575   4.333   7.776   4.240
87601SOL     OW64576  12.594  13.219  10.836
87601SOL    HW164577  12.539  13.285  10.791
87601SOL    HW264578  12.609  13.256  10.922
87602SOL     OW64579   5.894   9.958   1.453
87602SOL    HW164580   5.909   9.901   1.378
87602SOL    HW264581   5.840   9.905   1.512
87603SOL     OW64582  14.192  12.743  12.678
87603SOL    HW164583  14.153  12.656  12.670
87603SOL    HW264584  14.157  12.777  12.760
87604SOL     OW64585   5.694   3.757   8.038
87604SOL    HW164586   5.773   3.779   8.087
87604SOL    HW264587   5.714   3.784   7.948
87605SOL     OW64588   7.681   0.311   5.599
87605SOL    HW164589   7.774   0.324   5.616
87605SOL    HW264590   7.640   0.318   5.685
87606SOL     OW64591  10.029   8.229   6.330
87606SOL    HW164592  10.036   8.188   6.244
87606SOL    HW264593   9.975   8.169   6.381
87607SOL     OW64594   2.709  11.492  11.643
87607SOL    HW164595   2.731  11.502  11.735
87607SOL    HW264596   2.643  11.423  11.642
87608SOL     OW64597   1.145  13.659   8.832
87608SOL    HW164598   1.120  13.659   8.740
87608SOL    HW264599   1.081  13.718   8.874
87609SOL     OW64600   6.399  10.623   7.179
87609SOL    HW164601   6.372  10.619   7.087
87609SOL    HW264602   6.460  10.697   7.184
87610SOL     OW64603   4.122   5.131   6.389
87610SOL    HW164604   4.102   5.041   6.413
87610SOL    HW264605   4.194   5.156   6.446
87611SOL     OW64606   8.650   5.564   8.380
87611SOL    HW164607   8.586   5.610   8.434
87611SOL    HW264608   8.734   5.600   8.407
87612SOL     OW64609   7.565   0.783  12.362
87612SOL    HW164610   7.652   0.789  12.403
87612SOL    HW264611   7.572   0.710  12.302
87613SOL     OW64612  14.128   9.667  11.055
87613SOL    HW164613  14.088   9.754  11.043
87613SOL    HW264614  14.200   9.682  11.116
87614SOL     OW64615   6.601   0.898   2.576
87614SOL    HW164616   6.514   0.878   2.540
87614SOL    HW264617   6.606   0.848   2.657
87615SOL     OW64618   4.181   1.061  11.721
87615SOL    HW164619   4.166   0.975  11.761
87615SOL    HW264620   4.174   1.123  11.793
87616SOL     OW64621  10.594   1.580  14.854
87616SOL    HW164622  10.553   1.523  14.788
87616SOL    HW264623  10.647   1.641  14.803
87617SOL     OW64624  13.853  13.726  14.675
87617SOL    HW164625  13.899  13.689  14.750
87617SOL    HW264626  13.865  13.821  14.685
87618SOL     OW64627  11.552   2.497  10.204
87618SOL    HW164628  11.565   2.481  10.111
87618SOL    HW264629  11.531   2.411  10.240
87619SOL     OW64630   9.544   1.453   6.955
87619SOL    HW164631   9.501   1.465   6.870
87619SOL    HW264632   9.515   1.528   7.007
87620SOL     OW64633   1.110   6.636   1.078
87620SOL    HW164634   1.099   6.730   1.064
87620SOL    HW264635   1.166   6.607   1.006
87621SOL     OW64636   5.685   4.122   3.898
87621SOL    HW164637   5.755   4.106   3.961
87621SOL    HW264638   5.610   4.149   3.952
87622SOL     OW64639   6.212  13.054  11.263
87622SOL    HW164640   6.276  13.038  11.194
87622SOL    HW264641   6.265  13.068  11.342
87623SOL     OW64642  13.768   7.677  14.058
87623SOL    HW164643  13.685   7.651  14.098
87623SOL    HW264644  13.835   7.632  14.110
87624SOL     OW64645  12.222   2.328  11.854
87624SOL    HW164646  12.226   2.421  11.832
87624SOL    HW264647  12.151   2.321  11.918
87625SOL     OW64648   1.667  13.285   2.252
87625SOL    HW164649   1.630  13.200   2.274
87625SOL    HW264650   1.745  13.265   2.199
87626SOL     OW64651   5.742  13.952   2.898
87626SOL    HW164652   5.679  13.881   2.879
87626SOL    HW264653   5.767  13.986   2.813
87627SOL     OW64654   1.989   1.471  10.944
87627SOL    HW164655   1.944   1.540  10.993
87627SOL    HW264656   2.039   1.519  10.877
87628SOL     OW64657   3.587   1.782   2.577
87628SOL    HW164658   3.646   1.713   2.547
87628SOL    HW264659   3.516   1.735   2.620
87629SOL     OW64660   0.446   6.235   7.544
87629SOL    HW164661   0.482   6.237   7.633
87629SOL    HW264662   0.378   6.302   7.544
87630SOL     OW64663  13.110   3.991  11.176
87630SOL    HW164664  13.120   3.904  11.138
87630SOL    HW264665  13.194   4.009  11.219
87631SOL     OW64666  11.005   3.912   5.077
87631SOL    HW164667  11.086   3.917   5.027
87631SOL    HW264668  11.017   3.973   5.150
87632SOL     OW64669   7.660  14.598   7.465
87632SOL    HW164670   7.676  14.572   7.374
87632SOL    HW264671   7.714  14.538   7.517
87633SOL     OW64672   1.186   5.868   3.412
87633SOL    HW164673   1.160   5.796   3.470
87633SOL    HW264674   1.281   5.860   3.405
87634SOL     OW64675   0.847  13.918   4.108
87634SOL    HW164676   0.804  13.908   4.193
87634SOL    HW264677   0.819  14.004   4.077
87635SOL     OW64678   1.820   3.646   5.051
87635SOL    HW164679   1.890   3.692   5.098
87635SOL    HW264680   1.845   3.554   5.056
87636SOL     OW64681   1.111  11.678  12.822
87636SOL    HW164682   1.076  11.610  12.763
87636SOL    HW264683   1.147  11.629  12.896
87637SOL     OW64684  13.383   5.665  11.207
87637SOL    HW164685  13.301   5.694  11.247
87637SOL    HW264686  13.413   5.740  11.155
87638SOL     OW64687  10.997   9.332   6.580
87638SOL    HW164688  10.979   9.341   6.486
87638SOL    HW264689  11.060   9.260   6.584
87639SOL     OW64690   8.647  10.205  11.653
87639SOL    HW164691   8.716  10.219  11.589
87639SOL    HW264692   8.573  10.256  11.621
87640SOL     OW64693   9.281   0.944  13.132
87640SOL    HW164694   9.244   0.888  13.064
87640SOL    HW264695   9.284   0.889  13.210
87641SOL     OW64696  11.143  14.325  13.987
87641SOL    HW164697  11.117  14.316  14.079
87641SOL    HW264698  11.168  14.237  13.960
87642SOL     OW64699   7.253   5.645   4.418
87642SOL    HW164700   7.161   5.621   4.413
87642SOL    HW264701   7.279   5.624   4.508
87643SOL     OW64702  14.378  12.256   1.812
87643SOL    HW164703  14.372  12.186   1.877
87643SOL    HW264704  14.412  12.331   1.861
87644SOL     OW64705   2.261  12.455   7.509
87644SOL    HW164706   2.175  12.429   7.476
87644SOL    HW264707   2.243  12.498   7.593
87645SOL     OW64708  14.747   0.111   0.815
87645SOL    HW164709  14.812   0.102   0.745
87645SOL    HW264710  14.721   0.022   0.836
87646SOL     OW64711   7.661  12.992   7.442
87646SOL    HW164712   7.604  13.066   7.457
87646SOL    HW264713   7.604  12.924   7.406
87647SOL     OW64714   3.289  14.173   4.377
87647SOL    HW164715   3.375  14.131   4.374
87647SOL    HW264716   3.274  14.205   4.289
87648SOL     OW64717   4.124  12.463   8.508
87648SOL    HW164718   4.181  12.431   8.438
87648SOL    HW264719   4.173  12.535   8.548
87649SOL     OW64720   5.119   2.695   4.991
87649SOL    HW164721   5.182   2.695   5.063
87649SOL    HW264722   5.096   2.788   4.980
87650SOL     OW64723  14.569   0.718  13.233
87650SOL    HW164724  14.594   0.795  13.285
87650SOL    HW264725  14.610   0.644  13.279
87651SOL     OW64726   1.739   9.169   3.771
87651SOL    HW164727   1.695   9.225   3.835
87651SOL    HW264728   1.823   9.148   3.812
87652SOL     OW64729   5.696   5.538   0.073
87652SOL    HW164730   5.643   5.483   0.015
87652SOL    HW264731   5.664   5.518   0.161
87653SOL     OW64732   8.689   0.187  13.880
87653SOL    HW164733   8.639   0.230  13.811
87653SOL    HW264734   8.626   0.169  13.949
87654SOL     OW64735   5.787   5.643  14.000
87654SOL    HW164736   5.804   5.589  14.077
87654SOL    HW264737   5.711   5.602  13.958
87655SOL     OW64738   8.126   7.509   5.100
87655SOL    HW164739   8.172   7.545   5.176
87655SOL    HW264740   8.073   7.581   5.068
87656SOL     OW64741   9.597   2.625   9.728
87656SOL    HW164742   9.664   2.664   9.784
87656SOL    HW264743   9.615   2.531   9.729
87657SOL     OW64744   3.430  12.602   7.650
87657SOL    HW164745   3.342  12.577   7.623
87657SOL    HW264746   3.488  12.555   7.589
87658SOL     OW64747   2.843   3.677   1.742
87658SOL    HW164748   2.917   3.700   1.686
87658SOL    HW264749   2.769   3.668   1.682
87659SOL     OW64750   0.495   3.700   6.633
87659SOL    HW164751   0.458   3.659   6.555
87659SOL    HW264752   0.563   3.759   6.600
87660SOL     OW64753   7.214   0.293   9.152
87660SOL    HW164754   7.216   0.198   9.137
87660SOL    HW264755   7.165   0.327   9.077
87661SOL     OW64756  14.050  12.648   2.945
87661SOL    HW164757  13.976  12.606   2.988
87661SOL    HW264758  14.011  12.718   2.892
87662SOL     OW64759  10.219   6.786  14.863
87662SOL    HW164760  10.224   6.870  14.817
87662SOL    HW264761  10.304   6.745  14.850
87663SOL     OW64762   7.084   7.054   6.074
87663SOL    HW164763   7.110   7.082   6.162
87663SOL    HW264764   7.095   6.959   6.075
87664SOL     OW64765   0.275   6.452   5.754
87664SOL    HW164766   0.232   6.459   5.668
87664SOL    HW264767   0.206   6.421   5.812
87665SOL     OW64768   7.128   8.387   9.961
87665SOL    HW164769   7.115   8.407  10.054
87665SOL    HW264770   7.173   8.302   9.961
87666SOL     OW64771   6.792  11.949   3.883
87666SOL    HW164772   6.697  11.935   3.873
87666SOL    HW264773   6.826  11.942   3.794
87667SOL     OW64774   3.211   0.949   2.942
87667SOL    HW164775   3.125   0.984   2.968
87667SOL    HW264776   3.203   0.854   2.957
87668SOL     OW64777   0.464   9.608   7.289
87668SOL    HW164778   0.420   9.632   7.371
87668SOL    HW264779   0.406   9.640   7.220
87669SOL     OW64780  11.330   2.517  10.625
87669SOL    HW164781  11.348   2.611  10.620
87669SOL    HW264782  11.412   2.475  10.600
87670SOL     OW64783  14.123  12.725  14.332
87670SOL    HW164784  14.154  12.677  14.255
87670SOL    HW264785  14.102  12.813  14.299
87671SOL     OW64786  12.933  11.662  11.903
87671SOL    HW164787  12.881  11.703  11.835
87671SOL    HW264788  12.886  11.581  11.924
87672SOL     OW64789   6.808   7.485   2.522
87672SOL    HW164790   6.794   7.567   2.474
87672SOL    HW264791   6.899   7.462   2.505
87673SOL     OW64792  13.597   1.037   6.334
87673SOL    HW164793  13.577   0.947   6.361
87673SOL    HW264794  13.685   1.053   6.368
87674SOL     OW64795  10.855   1.825   8.162
87674SOL    HW164796  10.948   1.812   8.143
87674SOL    HW264797  10.841   1.919   8.151
87675SOL     OW64798   3.445   1.868  12.902
87675SOL    HW164799   3.356   1.838  12.920
87675SOL    HW264800   3.468   1.827  12.819
87676SOL     OW64801  12.540   4.581   4.727
87676SOL    HW164802  12.467   4.639   4.705
87676SOL    HW264803  12.534   4.569   4.821
87677SOL     OW64804  12.048   0.263  13.019
87677SOL    HW164805  11.959   0.243  13.049
87677SOL    HW264806  12.087   0.178  12.999
87678SOL     OW64807   8.232   7.369   8.652
87678SOL    HW164808   8.225   7.418   8.570
87678SOL    HW264809   8.181   7.289   8.637
87679SOL     OW64810   7.146  13.120   6.070
87679SOL    HW164811   7.234  13.148   6.044
87679SOL    HW264812   7.106  13.089   5.988
87680SOL     OW64813  12.072   2.619   0.529
87680SOL    HW164814  12.117   2.538   0.555
87680SOL    HW264815  12.017   2.593   0.456
87681SOL     OW64816   8.335   8.385   9.618
87681SOL    HW164817   8.340   8.440   9.696
87681SOL    HW264818   8.421   8.343   9.614
87682SOL     OW64819   8.108   7.903  14.248
87682SOL    HW164820   8.144   7.910  14.337
87682SOL    HW264821   8.184   7.882  14.194
87683SOL     OW64822   7.218  14.462   5.282
87683SOL    HW164823   7.277  14.387   5.270
87683SOL    HW264824   7.264  14.535   5.241
87684SOL     OW64825  11.057   1.538   3.300
87684SOL    HW164826  11.110   1.526   3.379
87684SOL    HW264827  10.983   1.479   3.311
87685SOL     OW64828  14.011   0.372  11.154
87685SOL    HW164829  14.063   0.419  11.219
87685SOL    HW264830  14.074   0.346  11.087
87686SOL     OW64831  10.901   3.935   9.058
87686SOL    HW164832  10.871   3.911   9.145
87686SOL    HW264833  10.851   3.879   8.999
87687SOL     OW64834  12.992  12.351  14.770
87687SOL    HW164835  12.901  12.370  14.795
87687SOL    HW264836  13.029  12.435  14.746
87688SOL     OW64837   3.635   9.645   5.530
87688SOL    HW164838   3.656   9.659   5.438
87688SOL    HW264839   3.706   9.591   5.564
87689SOL     OW64840  10.034   6.290   8.686
87689SOL    HW164841  10.085   6.359   8.728
87689SOL    HW264842   9.947   6.297   8.725
87690SOL     OW64843   7.892   1.583   5.889
87690SOL    HW164844   7.934   1.551   5.809
87690SOL    HW264845   7.813   1.529   5.897
87691SOL     OW64846  13.638   4.649   4.522
87691SOL    HW164847  13.564   4.588   4.526
87691SOL    HW264848  13.715   4.593   4.517
87692SOL     OW64849  13.982   8.218   4.813
87692SOL    HW164850  13.947   8.137   4.777
87692SOL    HW264851  14.067   8.193   4.851
87693SOL     OW64852   6.760  12.636  12.447
87693SOL    HW164853   6.708  12.670  12.374
87693SOL    HW264854   6.850  12.640  12.416
87694SOL     OW64855   1.714   4.172   4.284
87694SOL    HW164856   1.702   4.081   4.256
87694SOL    HW264857   1.628   4.197   4.319
87695SOL     OW64858   8.774   7.684   2.564
87695SOL    HW164859   8.734   7.757   2.517
87695SOL    HW264860   8.736   7.688   2.652
87696SOL     OW64861   5.225  11.535   7.976
87696SOL    HW164862   5.311  11.577   7.966
87696SOL    HW264863   5.240  11.444   7.951
87697SOL     OW64864   6.015   1.095   0.919
87697SOL    HW164865   6.012   1.153   0.995
87697SOL    HW264866   6.005   1.153   0.843
87698SOL     OW64867   7.782  13.845   1.303
87698SOL    HW164868   7.839  13.922   1.304
87698SOL    HW264869   7.705  13.871   1.352
87699SOL     OW64870   4.081   1.419   8.978
87699SOL    HW164871   4.091   1.395   9.071
87699SOL    HW264872   4.154   1.478   8.960
87700SOL     OW64873   7.945  13.209  14.051
87700SOL    HW164874   8.037  13.229  14.033
87700SOL    HW264875   7.900  13.226  13.968
87701SOL     OW64876  14.471   6.666   7.814
87701SOL    HW164877  14.432   6.729   7.754
87701SOL    HW264878  14.424   6.679   7.896
87702SOL     OW64879   4.503   1.520  12.015
87702SOL    HW164880   4.468   1.456  11.953
87702SOL    HW264881   4.432   1.534  12.078
87703SOL     OW64882  13.427  13.118   6.609
87703SOL    HW164883  13.399  13.207   6.630
87703SOL    HW264884  13.494  13.098   6.675
87704SOL     OW64885   9.167   5.510  11.952
87704SOL    HW164886   9.151   5.525  12.046
87704SOL    HW264887   9.224   5.583  11.926
87705SOL     OW64888  10.590   5.894  12.393
87705SOL    HW164889  10.498   5.889  12.418
87705SOL    HW264890  10.618   5.981  12.422
87706SOL     OW64891   9.348  10.913  13.448
87706SOL    HW164892   9.280  10.926  13.514
87706SOL    HW264893   9.326  10.830  13.406
87707SOL     OW64894   9.069   4.220  11.463
87707SOL    HW164895   9.012   4.153  11.501
87707SOL    HW264896   9.068   4.203  11.369
87708SOL     OW64897  14.090   2.402   2.839
87708SOL    HW164898  14.042   2.355   2.907
87708SOL    HW264899  14.182   2.382   2.857
87709SOL     OW64900  14.690  12.146  13.280
87709SOL    HW164901  14.657  12.093  13.352
87709SOL    HW264902  14.613  12.168  13.229
87710SOL     OW64903  11.650  13.620   3.253
87710SOL    HW164904  11.566  13.662   3.233
87710SOL    HW264905  11.654  13.545   3.194
87711SOL     OW64906  11.168  14.521   7.219
87711SOL    HW164907  11.231  14.477   7.277
87711SOL    HW264908  11.220  14.581   7.167
87712SOL     OW64909   9.666   7.934  12.001
87712SOL    HW164910   9.606   7.875  11.955
87712SOL    HW264911   9.609   7.985  12.059
87713SOL     OW64912   2.047   9.504   6.756
87713SOL    HW164913   1.959   9.471   6.775
87713SOL    HW264914   2.099   9.425   6.741
87714SOL     OW64915   6.885   8.311   8.228
87714SOL    HW164916   6.888   8.313   8.324
87714SOL    HW264917   6.975   8.288   8.202
87715SOL     OW64918  11.491  14.399   2.683
87715SOL    HW164919  11.552  14.463   2.720
87715SOL    HW264920  11.518  14.315   2.721
87716SOL     OW64921   4.697   4.205   9.825
87716SOL    HW164922   4.617   4.155   9.840
87716SOL    HW264923   4.708   4.204   9.730
87717SOL     OW64924  12.128  12.950   1.331
87717SOL    HW164925  12.174  13.002   1.397
87717SOL    HW264926  12.079  12.885   1.382
87718SOL     OW64927  14.834   2.952   9.187
87718SOL    HW164928   0.004   2.975   9.267
87718SOL    HW264929  14.765   2.892   9.216
87719SOL     OW64930   6.059   5.287   1.498
87719SOL    HW164931   6.006   5.357   1.535
87719SOL    HW264932   6.078   5.230   1.573
87720SOL     OW64933   9.506   0.678   6.234
87720SOL    HW164934   9.582   0.621   6.220
87720SOL    HW264935   9.438   0.619   6.266
87721SOL     OW64936   1.951  14.151  11.761
87721SOL    HW164937   1.967  14.097  11.684
87721SOL    HW264938   1.908  14.229  11.727
87722SOL     OW64939   4.812   9.922   0.617
87722SOL    HW164940   4.784   9.833   0.594
87722SOL    HW264941   4.894   9.910   0.664
87723SOL     OW64942   6.087   1.601   7.685
87723SOL    HW164943   6.005   1.552   7.691
87723SOL    HW264944   6.093   1.627   7.593
87724SOL     OW64945   4.537  13.052   7.584
87724SOL    HW164946   4.556  13.139   7.549
87724SOL    HW264947   4.461  13.022   7.535
87725SOL     OW64948   0.586  12.489   9.213
87725SOL    HW164949   0.669  12.492   9.165
87725SOL    HW264950   0.604  12.536   9.294
87726SOL     OW64951   5.063   3.352   6.383
87726SOL    HW164952   5.032   3.427   6.433
87726SOL    HW264953   5.117   3.389   6.313
87727SOL     OW64954   8.839  10.838  13.258
87727SOL    HW164955   8.753  10.820  13.295
87727SOL    HW264956   8.898  10.842  13.334
87728SOL     OW64957   5.469  10.713   7.900
87728SOL    HW164958   5.437  10.670   7.821
87728SOL    HW264959   5.393  10.759   7.935
87729SOL     OW64960   1.542   8.176   5.805
87729SOL    HW164961   1.516   8.087   5.830
87729SOL    HW264962   1.537   8.226   5.887
87730SOL     OW64963  10.457  12.106   8.371
87730SOL    HW164964  10.420  12.027   8.411
87730SOL    HW264965  10.550  12.101   8.390
87731SOL     OW64966   3.102  13.152   6.182
87731SOL    HW164967   3.064  13.189   6.103
87731SOL    HW264968   3.093  13.222   6.247
87732SOL     OW64969   1.284   6.684  13.346
87732SOL    HW164970   1.294   6.761  13.289
87732SOL    HW264971   1.225   6.626  13.298
87733SOL     OW64972   6.830   3.605   1.467
87733SOL    HW164973   6.783   3.687   1.483
87733SOL    HW264974   6.881   3.621   1.388
87734SOL     OW64975  11.486  12.009  14.853
87734SOL    HW164976  11.494  11.914  14.840
87734SOL    HW264977  11.503  12.046  14.766
87735SOL     OW64978   1.315   6.692   9.670
87735SOL    HW164979   1.260   6.760   9.630
87735SOL    HW264980   1.336   6.726   9.757
87736SOL     OW64981   1.431   7.043   6.984
87736SOL    HW164982   1.483   7.005   6.914
87736SOL    HW264983   1.448   6.987   7.060
87737SOL     OW64984   9.824  12.058  10.788
87737SOL    HW164985   9.874  12.008  10.853
87737SOL    HW264986   9.868  12.040  10.705
87738SOL     OW64987   4.534  12.960   8.557
87738SOL    HW164988   4.454  12.985   8.602
87738SOL    HW264989   4.603  12.971   8.622
87739SOL     OW64990  12.483   4.723  13.732
87739SOL    HW164991  12.391   4.745  13.747
87739SOL    HW264992  12.503   4.759  13.646
87740SOL     OW64993  11.610   8.094  14.735
87740SOL    HW164994  11.664   8.019  14.761
87740SOL    HW264995  11.520   8.060  14.739
87741SOL     OW64996   0.334  14.122   9.668
87741SOL    HW164997   0.342  14.195   9.729
87741SOL    HW264998   0.240  14.103   9.666
87742SOL     OW64999   9.475  10.681   7.281
87742SOL    HW165000   9.512  10.592   7.284
87742SOL    HW265001   9.403  10.675   7.217
87743SOL     OW65002   8.610   9.929  11.600
87743SOL    HW165003   8.613  10.017  11.637
87743SOL    HW265004   8.674   9.879  11.650
87744SOL     OW65005  14.599   3.614   1.181
87744SOL    HW165006  14.552   3.662   1.249
87744SOL    HW265007  14.686   3.653   1.179
87745SOL     OW65008   7.163  14.442   4.359
87745SOL    HW165009   7.152  14.381   4.432
87745SOL    HW265010   7.171  14.528   4.401
87746SOL     OW65011  10.170   1.993  13.655
87746SOL    HW165012  10.214   2.070  13.691
87746SOL    HW265013  10.226   1.920  13.679
87747SOL     OW65014   8.153  12.351  12.735
87747SOL    HW165015   8.137  12.350  12.641
87747SOL    HW265016   8.117  12.436  12.764
87748SOL     OW65017   4.128   7.142   6.002
87748SOL    HW165018   4.087   7.202   5.940
87748SOL    HW265019   4.213   7.122   5.963
87749SOL     OW65020   8.327  14.735  11.106
87749SOL    HW165021   8.263  14.688  11.161
87749SOL    HW265022   8.308  14.705  11.018
87750SOL     OW65023   5.563  12.292   2.453
87750SOL    HW165024   5.528  12.313   2.367
87750SOL    HW265025   5.567  12.197   2.455
87751SOL     OW65026  13.340  12.443  14.863
87751SOL    HW165027  13.297  12.483  14.788
87751SOL    HW265028  13.277  12.451   0.057
87752SOL     OW65029  11.235   6.991  12.238
87752SOL    HW165030  11.211   7.045  12.313
87752SOL    HW265031  11.262   7.053  12.171
87753SOL     OW65032   9.511   9.087   8.184
87753SOL    HW165033   9.487   9.122   8.270
87753SOL    HW265034   9.475   9.149   8.121
87754SOL     OW65035   3.118  14.328   4.558
87754SOL    HW165036   3.196  14.283   4.526
87754SOL    HW265037   3.133  14.420   4.536
87755SOL     OW65038   6.395  14.367   3.665
87755SOL    HW165039   6.320  14.411   3.704
87755SOL    HW265040   6.431  14.314   3.737
87756SOL     OW65041  13.526   3.943  14.014
87756SOL    HW165042  13.565   3.891  14.083
87756SOL    HW265043  13.580   4.022  14.010
87757SOL     OW65044   5.211   5.221   7.509
87757SOL    HW165045   5.205   5.259   7.421
87757SOL    HW265046   5.126   5.178   7.523
87758SOL     OW65047  11.139  11.406   0.546
87758SOL    HW165048  11.114  11.443   0.630
87758SOL    HW265049  11.146  11.312   0.561
87759SOL     OW65050  11.726   8.377  10.602
87759SOL    HW165051  11.707   8.298  10.551
87759SOL    HW265052  11.642   8.400  10.643
87760SOL     OW65053  14.099   2.884   3.596
87760SOL    HW165054  14.183   2.923   3.620
87760SOL    HW265055  14.079   2.920   3.510
87761SOL     OW65056   4.982  14.120   4.398
87761SOL    HW165057   5.070  14.145   4.426
87761SOL    HW265058   4.966  14.174   4.320
87762SOL     OW65059   6.109   3.699  13.051
87762SOL    HW165060   6.196   3.665  13.070
87762SOL    HW265061   6.087   3.755  13.125
87763SOL     OW65062   6.282   2.066   4.825
87763SOL    HW165063   6.334   2.127   4.878
87763SOL    HW265064   6.237   2.011   4.889
87764SOL     OW65065   8.833   0.709  10.893
87764SOL    HW165066   8.815   0.714  10.799
87764SOL    HW265067   8.926   0.686  10.899
87765SOL     OW65068   5.474   4.789  13.619
87765SOL    HW165069   5.487   4.855  13.551
87765SOL    HW265070   5.407   4.828  13.677
87766SOL     OW65071  11.214  12.091   8.540
87766SOL    HW165072  11.280  12.133   8.484
87766SOL    HW265073  11.253  12.008   8.565
87767SOL     OW65074  12.749   3.009  11.830
87767SOL    HW165075  12.716   3.031  11.743
87767SOL    HW265076  12.744   2.913  11.834
87768SOL     OW65077  13.342   0.467   8.936
87768SOL    HW165078  13.262   0.415   8.925
87768SOL    HW265079  13.338   0.499   9.026
87769SOL     OW65080   1.192  13.878   2.509
87769SOL    HW165081   1.098  13.865   2.493
87769SOL    HW265082   1.215  13.812   2.574
87770SOL     OW65083  12.213  12.668   6.582
87770SOL    HW165084  12.273  12.595   6.597
87770SOL    HW265085  12.263  12.730   6.529
87771SOL     OW65086   4.982   8.392   9.828
87771SOL    HW165087   4.997   8.484   9.807
87771SOL    HW265088   5.069   8.358   9.849
87772SOL     OW65089   2.584   2.874   9.428
87772SOL    HW165090   2.605   2.816   9.502
87772SOL    HW265091   2.490   2.861   9.415
87773SOL     OW65092   8.741  12.186   3.127
87773SOL    HW165093   8.749  12.281   3.133
87773SOL    HW265094   8.647  12.170   3.134
87774SOL     OW65095   1.386   5.686   7.980
87774SOL    HW165096   1.384   5.590   7.974
87774SOL    HW265097   1.299   5.710   8.010
87775SOL     OW65098  14.056  10.238   2.717
87775SOL    HW165099  14.031  10.319   2.673
87775SOL    HW265100  14.083  10.265   2.804
87776SOL     OW65101   8.627   9.151  10.942
87776SOL    HW165102   8.592   9.170  10.855
87776SOL    HW265103   8.570   9.199  11.002
87777SOL     OW65104  14.099   8.379   3.907
87777SOL    HW165105  14.159   8.440   3.949
87777SOL    HW265106  14.085   8.310   3.972
87778SOL     OW65107   1.278   2.837   2.019
87778SOL    HW165108   1.241   2.849   1.932
87778SOL    HW265109   1.367   2.807   2.004
87779SOL     OW65110  10.582   2.598  12.473
87779SOL    HW165111  10.603   2.684  12.437
87779SOL    HW265112  10.486   2.597  12.481
87780SOL     OW65113   3.213   2.137   5.830
87780SOL    HW165114   3.145   2.131   5.896
87780SOL    HW265115   3.250   2.048   5.826
87781SOL     OW65116   6.443  12.572   3.135
87781SOL    HW165117   6.368  12.615   3.095
87781SOL    HW265118   6.444  12.484   3.097
87782SOL     OW65119   7.938   8.075   1.618
87782SOL    HW165120   7.977   8.162   1.615
87782SOL    HW265121   7.997   8.021   1.565
87783SOL     OW65122   0.062   3.784   0.553
87783SOL    HW165123   0.148   3.783   0.511
87783SOL    HW265124   0.001   3.763   0.483
87784SOL     OW65125   9.448   5.460   6.233
87784SOL    HW165126   9.385   5.492   6.169
87784SOL    HW265127   9.496   5.538   6.261
87785SOL     OW65128   0.397  13.397   7.245
87785SOL    HW165129   0.431  13.417   7.332
87785SOL    HW265130   0.323  13.338   7.261
87786SOL     OW65131  13.169  14.179   9.680
87786SOL    HW165132  13.119  14.228   9.745
87786SOL    HW265133  13.236  14.134   9.731
87787SOL     OW65134  10.006   2.957   3.281
87787SOL    HW165135  10.003   2.867   3.248
87787SOL    HW265136   9.915   2.986   3.283
87788SOL     OW65137   3.503   9.073   5.883
87788SOL    HW165138   3.496   9.104   5.973
87788SOL    HW265139   3.484   8.979   5.888
87789SOL     OW65140   0.183   2.678  11.909
87789SOL    HW165141   0.136   2.683  11.992
87789SOL    HW265142   0.197   2.584  11.895
87790SOL     OW65143   1.029  11.077   7.136
87790SOL    HW165144   1.001  11.045   7.050
87790SOL    HW265145   1.090  11.148   7.116
87791SOL     OW65146  12.647   9.287  10.402
87791SOL    HW165147  12.652   9.374  10.442
87791SOL    HW265148  12.559   9.257  10.423
87792SOL     OW65149   0.008  10.935  11.719
87792SOL    HW165150  14.869  11.027  11.741
87792SOL    HW265151   0.001  10.889  11.802
87793SOL     OW65152  12.622   9.015   4.922
87793SOL    HW165153  12.639   9.081   4.855
87793SOL    HW265154  12.679   8.942   4.898
87794SOL     OW65155   8.277   5.321  13.424
87794SOL    HW165156   8.223   5.245  13.404
87794SOL    HW265157   8.366   5.292  13.403
87795SOL     OW65158  14.088   8.835   9.390
87795SOL    HW165159  14.026   8.784   9.338
87795SOL    HW265160  14.174   8.809   9.359
87796SOL     OW65161   8.635   0.832   0.685
87796SOL    HW165162   8.724   0.812   0.715
87796SOL    HW265163   8.647   0.875   0.601
87797SOL     OW65164   7.352   4.027   5.200
87797SOL    HW165165   7.338   3.971   5.276
87797SOL    HW265166   7.422   4.087   5.226
87798SOL     OW65167   5.858   3.083   3.170
87798SOL    HW165168   5.923   3.145   3.139
87798SOL    HW265169   5.907   3.022   3.226
87799SOL     OW65170   4.070   6.915   9.799
87799SOL    HW165171   3.978   6.942   9.787
87799SOL    HW265172   4.107   6.919   9.710
87800SOL     OW65173   6.437  11.789   1.416
87800SOL    HW165174   6.350  11.770   1.451
87800SOL    HW265175   6.494  11.726   1.460
87801SOL     OW65176  12.023  14.651   1.172
87801SOL    HW165177  11.940  14.633   1.127
87801SOL    HW265178  12.008  14.734   1.218
87802SOL     OW65179   1.822   6.109   2.334
87802SOL    HW165180   1.839   6.168   2.407
87802SOL    HW265181   1.907   6.071   2.312
87803SOL     OW65182   7.524   3.902  10.984
87803SOL    HW165183   7.593   3.886  11.049
87803SOL    HW265184   7.537   3.993  10.958
87804SOL     OW65185   4.470  10.824  13.999
87804SOL    HW165186   4.451  10.887  14.068
87804SOL    HW265187   4.532  10.869  13.941
87805SOL     OW65188   8.572   0.328   6.348
87805SOL    HW165189   8.549   0.256   6.289
87805SOL    HW265190   8.668   0.333   6.343
87806SOL     OW65191   1.756   1.152   2.249
87806SOL    HW165192   1.808   1.072   2.239
87806SOL    HW265193   1.713   1.143   2.334
87807SOL     OW65194  11.680   6.032   6.316
87807SOL    HW165195  11.673   6.093   6.390
87807SOL    HW265196  11.603   6.050   6.263
87808SOL     OW65197  14.510   3.482   6.830
87808SOL    HW165198  14.468   3.428   6.897
87808SOL    HW265199  14.500   3.433   6.749
87809SOL     OW65200   6.203   6.958  14.306
87809SOL    HW165201   6.186   6.887  14.244
87809SOL    HW265202   6.126   6.961  14.362
87810SOL     OW65203   5.780   7.775   0.064
87810SOL    HW165204   5.790   7.763  14.847
87810SOL    HW265205   5.869   7.794   0.095
87811SOL     OW65206   8.497   5.671   1.960
87811SOL    HW165207   8.440   5.630   2.024
87811SOL    HW265208   8.447   5.746   1.927
87812SOL     OW65209   4.752   1.834   2.517
87812SOL    HW165210   4.740   1.914   2.567
87812SOL    HW265211   4.717   1.854   2.430
87813SOL     OW65212   5.348   3.160  13.380
87813SOL    HW165213   5.409   3.199  13.317
87813SOL    HW265214   5.279   3.123  13.325
87814SOL     OW65215  11.502   3.595   1.578
87814SOL    HW165216  11.544   3.517   1.542
87814SOL    HW265217  11.408   3.575   1.576
87815SOL     OW65218   5.915   4.779  10.029
87815SOL    HW165219   5.971   4.786   9.952
87815SOL    HW265220   5.972   4.800  10.102
87816SOL     OW65221   7.473  11.960   6.037
87816SOL    HW165222   7.512  11.894   6.094
87816SOL    HW265223   7.534  12.034   6.041
87817SOL     OW65224   5.665   3.519   2.162
87817SOL    HW165225   5.744   3.568   2.185
87817SOL    HW265226   5.593   3.577   2.186
87818SOL     OW65227   1.223  12.267   4.572
87818SOL    HW165228   1.149  12.224   4.614
87818SOL    HW265229   1.188  12.302   4.490
87819SOL     OW65230   1.735  11.780   6.866
87819SOL    HW165231   1.735  11.771   6.771
87819SOL    HW265232   1.647  11.752   6.893
87820SOL     OW65233  12.284   9.831   9.758
87820SOL    HW165234  12.281   9.896   9.829
87820SOL    HW265235  12.209   9.853   9.702
87821SOL     OW65236   5.645  14.312  12.125
87821SOL    HW165237   5.551  14.326  12.136
87821SOL    HW265238   5.676  14.292  12.214
87822SOL     OW65239   9.810  14.473  13.716
87822SOL    HW165240   9.902  14.474  13.740
87822SOL    HW265241   9.804  14.533  13.642
87823SOL     OW65242   8.303   7.870   9.940
87823SOL    HW165243   8.218   7.912   9.952
87823SOL    HW265244   8.297   7.790   9.993
87824SOL     OW65245   8.794   2.853  12.466
87824SOL    HW165246   8.806   2.766  12.428
87824SOL    HW265247   8.727   2.894  12.411
87825SOL     OW65248   4.483   8.804   0.088
87825SOL    HW165249   4.551   8.864   0.059
87825SOL    HW265250   4.401   8.848   0.067
87826SOL     OW65251   5.536   8.584   5.686
87826SOL    HW165252   5.514   8.578   5.593
87826SOL    HW265253   5.581   8.502   5.706
87827SOL     OW65254  12.501  13.967   9.225
87827SOL    HW165255  12.490  14.026   9.300
87827SOL    HW265256  12.543  13.889   9.263
87828SOL     OW65257  14.365   6.923   0.842
87828SOL    HW165258  14.371   6.983   0.768
87828SOL    HW265259  14.446   6.872   0.838
87829SOL     OW65260   2.668   4.393   8.140
87829SOL    HW165261   2.601   4.327   8.156
87829SOL    HW265262   2.620   4.468   8.105
87830SOL     OW65263   4.302  11.225   0.349
87830SOL    HW165264   4.297  11.228   0.253
87830SOL    HW265265   4.369  11.159   0.368
87831SOL     OW65266   4.871   9.802   2.497
87831SOL    HW165267   4.790   9.771   2.538
87831SOL    HW265268   4.901   9.874   2.553
87832SOL     OW65269   0.753  10.885  10.805
87832SOL    HW165270   0.728  10.975  10.786
87832SOL    HW265271   0.722  10.835  10.729
87833SOL     OW65272   3.986   5.791   5.066
87833SOL    HW165273   4.056   5.846   5.031
87833SOL    HW265274   3.968   5.727   4.997
87834SOL     OW65275   9.970   5.970   8.570
87834SOL    HW165276   9.995   5.980   8.661
87834SOL    HW265277   9.887   5.923   8.572
87835SOL     OW65278   6.102  14.275  12.832
87835SOL    HW165279   6.188  14.233  12.823
87835SOL    HW265280   6.110  14.330  12.910
87836SOL     OW65281   3.719   1.239  11.014
87836SOL    HW165282   3.724   1.258  11.107
87836SOL    HW265283   3.805   1.262  10.980
87837SOL     OW65284  10.613  11.190   7.931
87837SOL    HW165285  10.645  11.163   7.845
87837SOL    HW265286  10.628  11.285   7.933
87838SOL     OW65287   1.151  12.815  14.236
87838SOL    HW165288   1.155  12.880  14.166
87838SOL    HW265289   1.086  12.751  14.206
87839SOL     OW65290   7.290   6.109  14.601
87839SOL    HW165291   7.312   6.026  14.644
87839SOL    HW265292   7.210   6.090  14.552
87840SOL     OW65293   4.297   0.951   6.689
87840SOL    HW165294   4.211   0.988   6.708
87840SOL    HW265295   4.298   0.941   6.593
87841SOL     OW65296   1.145  12.660  13.886
87841SOL    HW165297   1.078  12.655  13.818
87841SOL    HW265298   1.121  12.592  13.948
87842SOL     OW65299  10.811   7.393  12.604
87842SOL    HW165300  10.795   7.433  12.518
87842SOL    HW265301  10.862   7.458  12.652
87843SOL     OW65302   1.899  11.555   1.994
87843SOL    HW165303   1.920  11.511   1.911
87843SOL    HW265304   1.952  11.509   2.059
87844SOL     OW65305   1.534  14.157   5.293
87844SOL    HW165306   1.491  14.101   5.227
87844SOL    HW265307   1.563  14.234   5.243
87845SOL     OW65308   6.556   6.764   4.563
87845SOL    HW165309   6.617   6.720   4.504
87845SOL    HW265310   6.594   6.851   4.576
87846SOL     OW65311   2.921   7.365   3.010
87846SOL    HW165312   3.006   7.355   3.054
87846SOL    HW265313   2.881   7.278   3.015
87847SOL     OW65314   8.973  12.198  14.150
87847SOL    HW165315   8.969  12.227  14.241
87847SOL    HW265316   8.992  12.278  14.100
87848SOL     OW65317   2.034   4.014   8.094
87848SOL    HW165318   2.044   3.974   8.007
87848SOL    HW265319   2.020   3.940   8.153
87849SOL     OW65320   8.621   9.168  11.612
87849SOL    HW165321   8.591   9.224  11.541
87849SOL    HW265322   8.681   9.224  11.662
87850SOL     OW65323   7.883   3.821  13.967
87850SOL    HW165324   7.849   3.781  13.887
87850SOL    HW265325   7.958   3.767  13.991
87851SOL     OW65326   2.812   4.167   2.532
87851SOL    HW165327   2.797   4.128   2.446
87851SOL    HW265328   2.903   4.145   2.553
87852SOL     OW65329   9.307   3.158   8.953
87852SOL    HW165330   9.273   3.117   8.873
87852SOL    HW265331   9.259   3.240   8.960
87853SOL     OW65332  13.884   7.945  11.738
87853SOL    HW165333  13.879   7.916  11.647
87853SOL    HW265334  13.854   8.036  11.737
87854SOL     OW65335  12.943   8.562  10.760
87854SOL    HW165336  12.948   8.653  10.792
87854SOL    HW265337  12.864   8.561  10.706
87855SOL     OW65338   1.990   8.453   8.107
87855SOL    HW165339   1.934   8.513   8.057
87855SOL    HW265340   2.077   8.492   8.102
87856SOL     OW65341   5.648  11.384   7.824
87856SOL    HW165342   5.574  11.419   7.874
87856SOL    HW265343   5.681  11.313   7.878
87857SOL     OW65344  11.857   4.001   2.393
87857SOL    HW165345  11.905   3.918   2.388
87857SOL    HW265346  11.924   4.067   2.407
87858SOL     OW65347   4.366  11.504  13.007
87858SOL    HW165348   4.430  11.486  13.075
87858SOL    HW265349   4.391  11.589  12.971
87859SOL     OW65350  13.653  12.258   4.318
87859SOL    HW165351  13.621  12.328   4.375
87859SOL    HW265352  13.687  12.303   4.241
87860SOL     OW65353  11.407   7.921  13.276
87860SOL    HW165354  11.404   8.007  13.236
87860SOL    HW265355  11.500   7.899  13.281
87861SOL     OW65356   1.204   5.909   7.797
87861SOL    HW165357   1.289   5.893   7.758
87861SOL    HW265358   1.141   5.890   7.727
87862SOL     OW65359   3.122  10.597  14.718
87862SOL    HW165360   3.107  10.629  14.629
87862SOL    HW265361   3.040  10.614  14.764
87863SOL     OW65362   4.317   7.539  11.682
87863SOL    HW165363   4.309   7.509  11.772
87863SOL    HW265364   4.360   7.624  11.688
87864SOL     OW65365   4.863  14.347   6.539
87864SOL    HW165366   4.842  14.320   6.628
87864SOL    HW265367   4.896  14.436   6.548
87865SOL     OW65368   8.987  14.139   5.178
87865SOL    HW165369   9.064  14.187   5.149
87865SOL    HW265370   8.958  14.185   5.257
87866SOL     OW65371   5.365  12.308  12.666
87866SOL    HW165372   5.283  12.356  12.651
87866SOL    HW265373   5.418  12.368  12.719
87867SOL     OW65374   9.043   1.927  13.695
87867SOL    HW165375   8.967   1.968  13.654
87867SOL    HW265376   9.005   1.860  13.752
87868SOL     OW65377   1.767   7.458  14.458
87868SOL    HW165378   1.673   7.465  14.474
87868SOL    HW265379   1.808   7.477  14.542
87869SOL     OW65380   4.690   9.663   2.182
87869SOL    HW165381   4.613   9.611   2.158
87869SOL    HW265382   4.656   9.752   2.193
87870SOL     OW65383  12.217   3.522  12.169
87870SOL    HW165384  12.185   3.498  12.256
87870SOL    HW265385  12.273   3.449  12.143
87871SOL     OW65386   8.417   0.712  13.473
87871SOL    HW165387   8.387   0.800  13.495
87871SOL    HW265388   8.401   0.704  13.379
87872SOL     OW65389   5.943  10.982  12.643
87872SOL    HW165390   5.999  10.951  12.571
87872SOL    HW265391   5.859  10.940  12.628
87873SOL     OW65392   1.072   9.427   2.925
87873SOL    HW165393   1.036   9.395   2.842
87873SOL    HW265394   1.027   9.510   2.940
87874SOL     OW65395   4.575   8.026   9.290
87874SOL    HW165396   4.653   8.073   9.319
87874SOL    HW265397   4.506   8.056   9.349
87875SOL     OW65398   1.132  12.743   5.934
87875SOL    HW165399   1.107  12.674   5.996
87875SOL    HW265400   1.118  12.825   5.982
87876SOL     OW65401   8.883  14.601   3.554
87876SOL    HW165402   8.799  14.557   3.546
87876SOL    HW265403   8.869  14.667   3.623
87877SOL     OW65404   9.825   5.872  13.394
87877SOL    HW165405   9.748   5.898  13.445
87877SOL    HW265406   9.854   5.790  13.435
87878SOL     OW65407   5.666   3.736  14.199
87878SOL    HW165408   5.700   3.825  14.192
87878SOL    HW265409   5.574   3.744  14.173
87879SOL     OW65410   2.048   0.781   8.912
87879SOL    HW165411   2.120   0.750   8.966
87879SOL    HW265412   2.078   0.767   8.822
87880SOL     OW65413   8.692   6.865   5.729
87880SOL    HW165414   8.775   6.816   5.729
87880SOL    HW265415   8.719   6.956   5.725
87881SOL     OW65416   1.590   2.956  10.690
87881SOL    HW165417   1.554   2.895  10.754
87881SOL    HW265418   1.662   2.999  10.736
87882SOL     OW65419   2.393   2.502   9.810
87882SOL    HW165420   2.440   2.490   9.892
87882SOL    HW265421   2.425   2.431   9.754
87883SOL     OW65422   2.787  12.106  10.301
87883SOL    HW165423   2.849  12.152  10.243
87883SOL    HW265424   2.828  12.111  10.387
87884SOL     OW65425   9.860  12.514   4.544
87884SOL    HW165426   9.778  12.562   4.541
87884SOL    HW265427   9.910  12.547   4.469
87885SOL     OW65428   1.261  13.118  14.663
87885SOL    HW165429   1.175  13.081  14.687
87885SOL    HW265430   1.291  13.065  14.590
87886SOL     OW65431   8.854   1.983   3.865
87886SOL    HW165432   8.807   2.007   3.944
87886SOL    HW265433   8.945   1.973   3.894
87887SOL     OW65434   1.828  11.223   8.164
87887SOL    HW165435   1.866  11.140   8.191
87887SOL    HW265436   1.734  11.205   8.156
87888SOL     OW65437  13.908  11.735  12.408
87888SOL    HW165438  13.896  11.641  12.403
87888SOL    HW265439  13.822  11.769  12.433
87889SOL     OW65440   7.021   4.771   6.281
87889SOL    HW165441   6.926   4.782   6.273
87889SOL    HW265442   7.040   4.693   6.228
87890SOL     OW65443  10.594   8.130   2.875
87890SOL    HW165444  10.678   8.104   2.911
87890SOL    HW265445  10.569   8.207   2.926
87891SOL     OW65446   7.190   8.321  14.284
87891SOL    HW165447   7.240   8.260  14.230
87891SOL    HW265448   7.106   8.329  14.240
87892SOL     OW65449   1.543   9.143  11.981
87892SOL    HW165450   1.589   9.095  11.913
87892SOL    HW265451   1.460   9.097  11.992
87893SOL     OW65452   2.294  12.665  14.399
87893SOL    HW165453   2.293  12.656  14.304
87893SOL    HW265454   2.384  12.642  14.424
87894SOL     OW65455   8.592   3.350  10.849
87894SOL    HW165456   8.636   3.428  10.814
87894SOL    HW265457   8.540   3.383  10.922
87895SOL     OW65458  10.039   0.370   8.313
87895SOL    HW165459   9.971   0.416   8.363
87895SOL    HW265460  10.053   0.289   8.361
87896SOL     OW65461   2.465  12.836   6.720
87896SOL    HW165462   2.515  12.873   6.647
87896SOL    HW265463   2.519  12.762   6.750
87897SOL     OW65464   4.747  12.165   5.078
87897SOL    HW165465   4.788  12.241   5.118
87897SOL    HW265466   4.675  12.201   5.026
87898SOL     OW65467   2.175  12.180  10.763
87898SOL    HW165468   2.259  12.164  10.720
87898SOL    HW265469   2.119  12.109  10.735
87899SOL     OW65470   4.016   8.520   3.153
87899SOL    HW165471   4.099   8.567   3.169
87899SOL    HW265472   4.010   8.515   3.058
87900SOL     OW65473   5.302  14.687  10.533
87900SOL    HW165474   5.290  14.635  10.612
87900SOL    HW265475   5.395  14.678  10.513
87901SOL     OW65476  12.449   6.210   2.018
87901SOL    HW165477  12.502   6.165   2.083
87901SOL    HW265478  12.486   6.297   2.012
87902SOL     OW65479   8.189   5.494   8.226
87902SOL    HW165480   8.195   5.576   8.274
87902SOL    HW265481   8.279   5.461   8.221
87903SOL     OW65482   4.251   0.420   1.257
87903SOL    HW165483   4.321   0.458   1.205
87903SOL    HW265484   4.282   0.332   1.278
87904SOL     OW65485   7.053   6.591   1.413
87904SOL    HW165486   7.052   6.497   1.396
87904SOL    HW265487   6.974   6.607   1.465
87905SOL     OW65488   7.035   6.026   7.726
87905SOL    HW165489   6.986   6.108   7.732
87905SOL    HW265490   6.976   5.965   7.682
87906SOL     OW65491  12.860  14.416   1.740
87906SOL    HW165492  12.871  14.447   1.830
87906SOL    HW265493  12.768  14.433   1.719
87907SOL     OW65494   3.242  10.316   9.981
87907SOL    HW165495   3.284  10.234  10.008
87907SOL    HW265496   3.167  10.325  10.040
87908SOL     OW65497  14.174  13.969  10.020
87908SOL    HW165498  14.151  13.998  10.108
87908SOL    HW265499  14.154  13.875  10.019
87909SOL     OW65500  10.713   9.538   7.309
87909SOL    HW165501  10.753   9.531   7.396
87909SOL    HW265502  10.782   9.572   7.253
87910SOL     OW65503  11.397   9.425   9.362
87910SOL    HW165504  11.333   9.358   9.339
87910SOL    HW265505  11.363   9.506   9.325
87911SOL     OW65506   5.479   3.789   0.069
87911SOL    HW165507   5.458   3.876   0.033
87911SOL    HW265508   5.571   3.796   0.094
87912SOL     OW65509   1.454  13.985   6.879
87912SOL    HW165510   1.504  13.905   6.895
87912SOL    HW265511   1.457  13.997   6.784
87913SOL     OW65512   6.549  12.059   5.214
87913SOL    HW165513   6.630  12.025   5.251
87913SOL    HW265514   6.577  12.126   5.152
87914SOL     OW65515  13.768   7.168  14.554
87914SOL    HW165516  13.864   7.170  14.554
87914SOL    HW265517  13.746   7.075  14.559
87915SOL     OW65518   0.046   8.540  14.245
87915SOL    HW165519   0.020   8.526  14.336
87915SOL    HW265520   0.024   8.632  14.228
87916SOL     OW65521   1.601  13.582   1.395
87916SOL    HW165522   1.548  13.510   1.429
87916SOL    HW265523   1.691  13.551   1.405
87917SOL     OW65524  13.467  11.553   8.565
87917SOL    HW165525  13.477  11.558   8.470
87917SOL    HW265526  13.554  11.527   8.597
87918SOL     OW65527  10.835  14.371  14.019
87918SOL    HW165528  10.790  14.453  14.040
87918SOL    HW265529  10.925  14.396  14.002
87919SOL     OW65530  12.733  12.975   7.996
87919SOL    HW165531  12.764  12.910   7.933
87919SOL    HW265532  12.639  12.980   7.982
87920SOL     OW65533   4.727   2.775   5.166
87920SOL    HW165534   4.743   2.747   5.076
87920SOL    HW265535   4.633   2.762   5.179
87921SOL     OW65536   0.460  14.642   7.202
87921SOL    HW165537   0.546  14.608   7.176
87921SOL    HW265538   0.434  14.700   7.130
87922SOL     OW65539   4.449   1.999   4.053
87922SOL    HW165540   4.543   1.985   4.040
87922SOL    HW265541   4.407   1.936   3.994
87923SOL     OW65542   6.785   7.947   7.824
87923SOL    HW165543   6.848   8.016   7.803
87923SOL    HW265544   6.723   7.989   7.884
87924SOL     OW65545  14.323   7.246  10.738
87924SOL    HW165546  14.296   7.178  10.800
87924SOL    HW265547  14.417   7.256  10.752
87925SOL     OW65548   5.490   7.654  11.172
87925SOL    HW165549   5.545   7.732  11.159
87925SOL    HW265550   5.550   7.581  11.162
87926SOL     OW65551   1.440   4.666  12.676
87926SOL    HW165552   1.351   4.667  12.640
87926SOL    HW265553   1.440   4.733  12.744
87927SOL     OW65554  13.460  14.153   2.202
87927SOL    HW165555  13.536  14.155   2.143
87927SOL    HW265556  13.414  14.072   2.178
87928SOL     OW65557  12.901  13.889  12.033
87928SOL    HW165558  12.913  13.798  12.060
87928SOL    HW265559  12.918  13.889  11.939
87929SOL     OW65560   5.641   1.617   5.899
87929SOL    HW165561   5.659   1.707   5.874
87929SOL    HW265562   5.549   1.616   5.923
87930SOL     OW65563   4.895   7.934   4.039
87930SOL    HW165564   4.971   7.990   4.020
87930SOL    HW265565   4.881   7.886   3.958
87931SOL     OW65566   6.475   2.909  10.306
87931SOL    HW165567   6.406   2.973  10.325
87931SOL    HW265568   6.441   2.859  10.231
87932SOL     OW65569  12.053   6.007   1.990
87932SOL    HW165570  12.121   6.036   2.051
87932SOL    HW265571  12.007   5.937   2.037
87933SOL     OW65572   4.378   7.420  13.037
87933SOL    HW165573   4.409   7.337  13.002
87933SOL    HW265574   4.387   7.411  13.132
87934SOL     OW65575   6.938   3.705   4.088
87934SOL    HW165576   6.889   3.673   4.163
87934SOL    HW265577   6.871   3.733   4.025
87935SOL     OW65578  11.810   8.944   0.345
87935SOL    HW165579  11.808   9.030   0.385
87935SOL    HW265580  11.862   8.956   0.265
87936SOL     OW65581  10.240  14.173   0.830
87936SOL    HW165582  10.190  14.111   0.778
87936SOL    HW265583  10.329  14.137   0.831
87937SOL     OW65584   4.377   9.979   3.413
87937SOL    HW165585   4.444   9.929   3.367
87937SOL    HW265586   4.316   9.913   3.445
87938SOL     OW65587   9.194   2.151   5.530
87938SOL    HW165588   9.232   2.145   5.443
87938SOL    HW265589   9.269   2.163   5.588
87939SOL     OW65590   5.646   4.824   1.610
87939SOL    HW165591   5.710   4.753   1.608
87939SOL    HW265592   5.577   4.795   1.551
87940SOL     OW65593   9.493  10.041  10.612
87940SOL    HW165594   9.426   9.991  10.566
87940SOL    HW265595   9.512   9.989  10.690
87941SOL     OW65596   7.179  12.157  12.732
87941SOL    HW165597   7.261  12.196  12.700
87941SOL    HW265598   7.201  12.123  12.818
87942SOL     OW65599  14.159   4.017   2.089
87942SOL    HW165600  14.113   4.000   2.170
87942SOL    HW265601  14.246   4.047   2.117
87943SOL     OW65602   2.776   8.477  13.676
87943SOL    HW165603   2.761   8.518  13.591
87943SOL    HW265604   2.732   8.535  13.739
87944SOL     OW65605  10.751  13.477   5.566
87944SOL    HW165606  10.714  13.397   5.603
87944SOL    HW265607  10.773  13.454   5.476
87945SOL     OW65608   7.348  10.861   2.308
87945SOL    HW165609   7.343  10.785   2.366
87945SOL    HW265610   7.271  10.852   2.251
87946SOL     OW65611   7.487  10.642  11.718
87946SOL    HW165612   7.526  10.565  11.760
87946SOL    HW265613   7.443  10.688  11.789
87947SOL     OW65614   2.139  13.152  12.424
87947SOL    HW165615   2.188  13.136  12.343
87947SOL    HW265616   2.113  13.244  12.418
87948SOL     OW65617   2.280   4.461   9.340
87948SOL    HW165618   2.312   4.438   9.253
87948SOL    HW265619   2.311   4.390   9.397
87949SOL     OW65620  12.737   6.391  10.066
87949SOL    HW165621  12.699   6.335  10.134
87949SOL    HW265622  12.725   6.480  10.098
87950SOL     OW65623   1.990   5.845  10.507
87950SOL    HW165624   2.057   5.861  10.573
87950SOL    HW265625   1.907   5.855  10.554
87951SOL     OW65626   4.045   5.980   4.729
87951SOL    HW165627   4.026   6.028   4.648
87951SOL    HW265628   4.029   6.044   4.799
87952SOL     OW65629   1.267  14.245   4.487
87952SOL    HW165630   1.277  14.197   4.569
87952SOL    HW265631   1.205  14.192   4.436
87953SOL     OW65632  13.585   8.528   5.963
87953SOL    HW165633  13.647   8.488   6.024
87953SOL    HW265634  13.533   8.587   6.017
87954SOL     OW65635  13.139   8.698   8.137
87954SOL    HW165636  13.063   8.649   8.168
87954SOL    HW265637  13.151   8.767   8.202
87955SOL     OW65638  10.278  11.199   6.502
87955SOL    HW165639  10.188  11.166   6.496
87955SOL    HW265640  10.317  11.178   6.417
87956SOL     OW65641   7.350   6.819   7.528
87956SOL    HW165642   7.270   6.792   7.573
87956SOL    HW265643   7.412   6.748   7.544
87957SOL     OW65644   2.027   5.791   1.290
87957SOL    HW165645   2.000   5.859   1.352
87957SOL    HW265646   1.945   5.747   1.266
87958SOL     OW65647   5.074   2.355   0.854
87958SOL    HW165648   5.077   2.303   0.774
87958SOL    HW265649   5.164   2.356   0.885
87959SOL     OW65650   9.790   9.024  11.256
87959SOL    HW165651   9.871   8.977  11.236
87959SOL    HW265652   9.747   8.970  11.323
87960SOL     OW65653   0.490  12.021   9.371
87960SOL    HW165654   0.433  12.013   9.448
87960SOL    HW265655   0.468  12.107   9.335
87961SOL     OW65656   7.287   0.158   4.475
87961SOL    HW165657   7.319   0.096   4.541
87961SOL    HW265658   7.214   0.202   4.518
87962SOL     OW65659   5.901   4.685   1.970
87962SOL    HW165660   5.837   4.633   2.019
87962SOL    HW265661   5.986   4.655   2.002
87963SOL     OW65662   8.426  14.505   7.587
87963SOL    HW165663   8.417  14.595   7.618
87963SOL    HW265664   8.356  14.495   7.523
87964SOL     OW65665   4.946  11.259   9.305
87964SOL    HW165666   4.982  11.346   9.323
87964SOL    HW265667   5.022  11.206   9.281
87965SOL     OW65668   7.436   0.947   6.958
87965SOL    HW165669   7.379   0.985   7.026
87965SOL    HW265670   7.513   1.004   6.957
87966SOL     OW65671   6.457   2.932   1.268
87966SOL    HW165672   6.532   2.974   1.311
87966SOL    HW265673   6.479   2.932   1.175
87967SOL     OW65674   3.930  14.328  10.192
87967SOL    HW165675   3.903  14.413  10.227
87967SOL    HW265676   3.930  14.341  10.097
87968SOL     OW65677  11.995   1.393  10.286
87968SOL    HW165678  11.966   1.472  10.331
87968SOL    HW265679  12.090   1.405  10.278
87969SOL     OW65680  13.835   6.919  14.238
87969SOL    HW165681  13.878   6.991  14.193
87969SOL    HW265682  13.743   6.942  14.238
87970SOL     OW65683   2.679   9.086   5.741
87970SOL    HW165684   2.724   9.044   5.668
87970SOL    HW265685   2.604   9.130   5.702
87971SOL     OW65686   8.514   9.621   9.459
87971SOL    HW165687   8.502   9.630   9.364
87971SOL    HW265688   8.427   9.600   9.493
87972SOL     OW65689   9.892   3.043   2.060
87972SOL    HW165690   9.981   3.049   2.095
87972SOL    HW265691   9.878   2.950   2.044
87973SOL     OW65692   6.511   1.204  11.365
87973SOL    HW165693   6.603   1.227  11.378
87973SOL    HW265694   6.479   1.267  11.300
87974SOL     OW65695   9.098  14.187   3.889
87974SOL    HW165696   9.060  14.259   3.939
87974SOL    HW265697   9.074  14.205   3.798
87975SOL     OW65698   3.841  10.477  12.764
87975SOL    HW165699   3.848  10.573  12.765
87975SOL    HW265700   3.749  10.460  12.784
87976SOL     OW65701   7.079  11.917   2.223
87976SOL    HW165702   7.072  11.961   2.308
87976SOL    HW265703   7.157  11.861   2.231
87977SOL     OW65704  10.314   6.413  11.325
87977SOL    HW165705  10.405   6.443  11.317
87977SOL    HW265706  10.268   6.460  11.256
87978SOL     OW65707  10.740  12.912   5.807
87978SOL    HW165708  10.793  12.836   5.831
87978SOL    HW265709  10.797  12.963   5.749
87979SOL     OW65710  11.247   8.036   2.650
87979SOL    HW165711  11.331   8.068   2.616
87979SOL    HW265712  11.261   7.943   2.664
87980SOL     OW65713   5.535   7.542   1.961
87980SOL    HW165714   5.536   7.465   2.018
87980SOL    HW265715   5.522   7.616   2.020
87981SOL     OW65716   7.800  13.582  14.329
87981SOL    HW165717   7.878  13.533  14.354
87981SOL    HW265718   7.735  13.559  14.396
87982SOL     OW65719  13.804   1.224   8.701
87982SOL    HW165720  13.714   1.256   8.707
87982SOL    HW265721  13.853   1.297   8.663
87983SOL     OW65722   8.425   7.452   8.045
87983SOL    HW165723   8.511   7.490   8.024
87983SOL    HW265724   8.377   7.524   8.086
87984SOL     OW65725  13.581   1.600  11.232
87984SOL    HW165726  13.636   1.669  11.194
87984SOL    HW265727  13.528   1.568  11.159
87985SOL     OW65728   6.465   6.801  10.472
87985SOL    HW165729   6.374   6.828  10.458
87985SOL    HW265730   6.500   6.790  10.384
87986SOL     OW65731   7.300  11.180   7.264
87986SOL    HW165732   7.333  11.194   7.353
87986SOL    HW265733   7.239  11.253   7.250
87987SOL     OW65734   5.842  10.080   5.453
87987SOL    HW165735   5.856  10.161   5.404
87987SOL    HW265736   5.751  10.055   5.433
87988SOL     OW65737   7.634   7.928   7.045
87988SOL    HW165738   7.613   8.018   7.020
87988SOL    HW265739   7.636   7.930   7.141
87989SOL     OW65740  11.269  14.169  10.421
87989SOL    HW165741  11.202  14.150  10.355
87989SOL    HW265742  11.222  14.215  10.491
87990SOL     OW65743  14.582  11.524   2.064
87990SOL    HW165744  14.661  11.575   2.083
87990SOL    HW265745  14.607  11.433   2.083
87991SOL     OW65746   4.949   1.555   9.011
87991SOL    HW165747   4.974   1.621   8.946
87991SOL    HW265748   4.889   1.497   8.964
87992SOL     OW65749   7.059  11.251   7.540
87992SOL    HW165750   7.132  11.189   7.539
87992SOL    HW265751   7.054  11.282   7.449
87993SOL     OW65752   2.307   5.049   9.803
87993SOL    HW165753   2.232   5.046   9.743
87993SOL    HW265754   2.272   5.018   9.886
87994SOL     OW65755  12.529   4.865  11.250
87994SOL    HW165756  12.463   4.925  11.216
87994SOL    HW265757  12.612   4.912  11.242
87995SOL     OW65758   8.032   6.001  14.601
87995SOL    HW165759   8.078   6.075  14.639
87995SOL    HW265760   7.971   6.039  14.539
87996SOL     OW65761   1.113  10.799   7.517
87996SOL    HW165762   1.099  10.780   7.424
87996SOL    HW265763   1.105  10.894   7.524
87997SOL     OW65764   7.213   5.550  13.357
87997SOL    HW165765   7.287   5.544  13.417
87997SOL    HW265766   7.171   5.634  13.378
87998SOL     OW65767   9.398   1.684   7.718
87998SOL    HW165768   9.368   1.599   7.686
87998SOL    HW265769   9.319   1.737   7.725
87999SOL     OW65770  12.876   4.525   0.743
87999SOL    HW165771  12.946   4.570   0.696
87999SOL    HW265772  12.831   4.594   0.791
88000SOL     OW65773   3.349   9.576   1.169
88000SOL    HW165774   3.352   9.513   1.241
88000SOL    HW265775   3.397   9.533   1.098
88001SOL     OW65776  10.906   7.860   2.718
88001SOL    HW165777  10.918   7.841   2.625
88001SOL    HW265778  10.888   7.954   2.722
88002SOL     OW65779  14.622  10.370   0.854
88002SOL    HW165780  14.654  10.447   0.902
88002SOL    HW265781  14.537  10.397   0.820
88003SOL     OW65782   5.745   1.169   7.943
88003SOL    HW165783   5.707   1.102   7.886
88003SOL    HW265784   5.831   1.134   7.967
88004SOL     OW65785   7.088  11.584   4.928
88004SOL    HW165786   7.077  11.600   5.022
88004SOL    HW265787   7.000  11.563   4.897
88005SOL     OW65788   4.799  13.448   2.465
88005SOL    HW165789   4.886  13.479   2.437
88005SOL    HW265790   4.817  13.380   2.529
88006SOL     OW65791   4.977   3.485  14.594
88006SOL    HW165792   4.957   3.550  14.526
88006SOL    HW265793   4.898   3.483  14.649
88007SOL     OW65794  10.065  10.468   4.137
88007SOL    HW165795  10.136  10.416   4.175
88007SOL    HW265796   9.997  10.469   4.205
88008SOL     OW65797  13.524   6.680   4.330
88008SOL    HW165798  13.496   6.771   4.315
88008SOL    HW265799  13.521   6.640   4.243
88009SOL     OW65800   9.942  12.913  10.285
88009SOL    HW165801   9.992  12.967  10.346
88009SOL    HW265802   9.999  12.902  10.209
88010SOL     OW65803   4.508   1.565   1.575
88010SOL    HW165804   4.485   1.531   1.662
88010SOL    HW265805   4.423   1.583   1.534
88011SOL     OW65806   8.702   2.958  11.418
88011SOL    HW165807   8.613   2.984  11.394
88011SOL    HW265808   8.690   2.896  11.490
88012SOL     OW65809   9.040  11.417  14.179
88012SOL    HW165810   9.094  11.463  14.243
88012SOL    HW265811   8.952  11.419  14.215
88013SOL     OW65812   3.406   4.651   0.064
88013SOL    HW165813   3.313   4.656   0.041
88013SOL    HW265814   3.421   4.727   0.119
88014SOL     OW65815   3.882  10.046  14.198
88014SOL    HW165816   3.811  10.083  14.251
88014SOL    HW265817   3.839   9.993  14.132
88015SOL     OW65818   2.189   5.958   7.997
88015SOL    HW165819   2.212   5.982   7.908
88015SOL    HW265820   2.132   5.881   7.988
88016SOL     OW65821   9.194   5.175   0.193
88016SOL    HW165822   9.205   5.212   0.281
88016SOL    HW265823   9.283   5.153   0.166
88017SOL     OW65824   5.346   5.027   8.739
88017SOL    HW165825   5.282   4.961   8.765
88017SOL    HW265826   5.389   4.990   8.662
88018SOL     OW65827   5.207   7.151  14.019
88018SOL    HW165828   5.212   7.213  13.947
88018SOL    HW265829   5.250   7.072  13.986
88019SOL     OW65830  14.729  12.425   4.317
88019SOL    HW165831  14.634  12.423   4.305
88019SOL    HW265832  14.762  12.462   4.236
88020SOL     OW65833   0.486   8.660  10.271
88020SOL    HW165834   0.467   8.753  10.277
88020SOL    HW265835   0.573   8.651  10.310
88021SOL     OW65836   4.999   1.588   1.911
88021SOL    HW165837   4.949   1.569   1.832
88021SOL    HW265838   5.076   1.532   1.905
88022SOL     OW65839   5.608   7.090  12.926
88022SOL    HW165840   5.654   7.158  12.877
88022SOL    HW265841   5.676   7.028  12.949
88023SOL     OW65842   0.719  10.774   7.270
88023SOL    HW165843   0.713  10.680   7.253
88023SOL    HW265844   0.811  10.789   7.290
88024SOL     OW65845   9.708   0.497   3.414
88024SOL    HW165846   9.632   0.472   3.467
88024SOL    HW265847   9.699   0.446   3.333
88025SOL     OW65848   6.480  13.243  14.246
88025SOL    HW165849   6.483  13.311  14.179
88025SOL    HW265850   6.488  13.290  14.329
88026SOL     OW65851   7.842   0.359   1.349
88026SOL    HW165852   7.766   0.354   1.407
88026SOL    HW265853   7.918   0.355   1.407
88027SOL     OW65854   3.776   1.390   2.315
88027SOL    HW165855   3.868   1.365   2.305
88027SOL    HW265856   3.728   1.308   2.304
88028SOL     OW65857   0.093  11.894  12.848
88028SOL    HW165858   0.182  11.917  12.873
88028SOL    HW265859   0.051  11.977  12.829
88029SOL     OW65860  10.920   7.406   4.855
88029SOL    HW165861  10.918   7.448   4.769
88029SOL    HW265862  11.010   7.416   4.886
88030SOL     OW65863   3.973  11.282   5.774
88030SOL    HW165864   4.026  11.231   5.836
88030SOL    HW265865   3.898  11.312   5.826
88031SOL     OW65866   0.445   3.887   7.548
88031SOL    HW165867   0.369   3.936   7.581
88031SOL    HW265868   0.421   3.864   7.459
88032SOL     OW65869   8.134   5.940   6.670
88032SOL    HW165870   8.166   5.865   6.720
88032SOL    HW265871   8.149   5.916   6.579
88033SOL     OW65872  12.179   3.229   1.690
88033SOL    HW165873  12.251   3.262   1.744
88033SOL    HW265874  12.156   3.303   1.634
88034SOL     OW65875  10.969  10.827   2.290
88034SOL    HW165876  10.977  10.782   2.206
88034SOL    HW265877  10.905  10.896   2.275
88035SOL     OW65878   0.889  14.804  13.805
88035SOL    HW165879   0.880  14.875  13.869
88035SOL    HW265880   0.799  14.783  13.780
88036SOL     OW65881  13.325   5.051   9.103
88036SOL    HW165882  13.375   4.976   9.137
88036SOL    HW265883  13.392   5.116   9.080
88037SOL     OW65884   2.113   6.347  13.631
88037SOL    HW165885   2.208   6.336  13.634
88037SOL    HW265886   2.097   6.427  13.682
88038SOL     OW65887  14.614  10.104   8.521
88038SOL    HW165888  14.624  10.198   8.507
88038SOL    HW265889  14.688  10.064   8.476
88039SOL     OW65890  10.785  13.249   1.359
88039SOL    HW165891  10.747  13.337   1.359
88039SOL    HW265892  10.798  13.229   1.266
88040SOL     OW65893   8.283   0.371   7.844
88040SOL    HW165894   8.251   0.458   7.821
88040SOL    HW265895   8.324   0.383   7.930
88041SOL     OW65896   0.778  10.530   3.936
88041SOL    HW165897   0.700  10.569   3.896
88041SOL    HW265898   0.843  10.529   3.865
88042SOL     OW65899   5.537  12.727   2.492
88042SOL    HW165900   5.617  12.680   2.514
88042SOL    HW265901   5.528  12.716   2.397
88043SOL     OW65902  10.262   2.083   2.038
88043SOL    HW165903  10.243   2.018   2.105
88043SOL    HW265904  10.182   2.136   2.033
88044SOL     OW65905   6.061   9.695  10.710
88044SOL    HW165906   6.068   9.778  10.665
88044SOL    HW265907   6.041   9.631  10.641
88045SOL     OW65908  13.952   7.888   7.684
88045SOL    HW165909  14.026   7.836   7.655
88045SOL    HW265910  13.936   7.859   7.774
88046SOL     OW65911   3.501   2.306  10.865
88046SOL    HW165912   3.445   2.379  10.892
88046SOL    HW265913   3.564   2.297  10.937
88047SOL     OW65914   3.434  10.671   4.298
88047SOL    HW165915   3.382  10.717   4.232
88047SOL    HW265916   3.443  10.582   4.264
88048SOL     OW65917  13.376   2.885   8.535
88048SOL    HW165918  13.288   2.905   8.565
88048SOL    HW265919  13.427   2.874   8.615
88049SOL     OW65920  11.035   6.847   5.738
88049SOL    HW165921  11.006   6.805   5.657
88049SOL    HW265922  10.962   6.834   5.799
88050SOL     OW65923  14.587  11.744   8.449
88050SOL    HW165924  14.522  11.678   8.470
88050SOL    HW265925  14.645  11.747   8.525
88051SOL     OW65926  12.218  13.800   4.941
88051SOL    HW165927  12.202  13.737   5.012
88051SOL    HW265928  12.283  13.758   4.885
88052SOL     OW65929   8.618  13.278  12.705
88052SOL    HW165930   8.660  13.207  12.754
88052SOL    HW265931   8.670  13.286  12.624
88053SOL     OW65932   4.645   3.674   1.190
88053SOL    HW165933   4.551   3.692   1.198
88053SOL    HW265934   4.671   3.643   1.277
88054SOL     OW65935   7.002  13.791   0.126
88054SOL    HW165936   6.979  13.731   0.055
88054SOL    HW265937   7.093  13.815   0.110
88055SOL     OW65938   3.864   9.035  13.452
88055SOL    HW165939   3.953   9.068  13.461
88055SOL    HW265940   3.817   9.106  13.409
88056SOL     OW65941  14.252   6.787  11.503
88056SOL    HW165942  14.287   6.702  11.530
88056SOL    HW265943  14.295   6.851  11.560
88057SOL     OW65944   4.998  13.299   0.626
88057SOL    HW165945   5.040  13.215   0.642
88057SOL    HW265946   4.923  13.300   0.685
88058SOL     OW65947   6.597  12.744   4.111
88058SOL    HW165948   6.517  12.750   4.059
88058SOL    HW265949   6.635  12.832   4.107
88059SOL     OW65950   6.456  12.591  11.989
88059SOL    HW165951   6.514  12.559  11.920
88059SOL    HW265952   6.406  12.514  12.017
88060SOL     OW65953   8.297   8.678  11.934
88060SOL    HW165954   8.267   8.635  11.854
88060SOL    HW265955   8.386   8.708  11.913
88061SOL     OW65956  11.981   5.302  11.275
88061SOL    HW165957  11.987   5.215  11.314
88061SOL    HW265958  12.072   5.325  11.253
88062SOL     OW65959   0.809   2.608   4.013
88062SOL    HW165960   0.876   2.584   4.076
88062SOL    HW265961   0.850   2.595   3.927
88063SOL     OW65962   2.819  11.787   1.480
88063SOL    HW165963   2.807  11.840   1.559
88063SOL    HW265964   2.910  11.802   1.455
88064SOL     OW65965   1.718  11.132   4.443
88064SOL    HW165966   1.757  11.157   4.527
88064SOL    HW265967   1.791  11.135   4.381
88065SOL     OW65968   1.492   7.658  13.075
88065SOL    HW165969   1.404   7.667  13.113
88065SOL    HW265970   1.485   7.584  13.014
88066SOL     OW65971   1.271  13.878  11.974
88066SOL    HW165972   1.295  13.964  11.938
88066SOL    HW265973   1.304  13.879  12.063
88067SOL     OW65974  10.927   0.650   1.546
88067SOL    HW165975  10.865   0.603   1.603
88067SOL    HW265976  10.891   0.638   1.458
88068SOL     OW65977   5.240  11.474   8.859
88068SOL    HW165978   5.161  11.528   8.866
88068SOL    HW265979   5.261  11.475   8.766
88069SOL     OW65980   0.855   9.785   3.535
88069SOL    HW165981   0.831   9.766   3.444
88069SOL    HW265982   0.778   9.830   3.571
88070SOL     OW65983   0.362   6.774   9.648
88070SOL    HW165984   0.442   6.766   9.597
88070SOL    HW265985   0.350   6.688   9.688
88071SOL     OW65986   3.009   7.802   3.529
88071SOL    HW165987   3.093   7.756   3.529
88071SOL    HW265988   2.987   7.810   3.436
88072SOL     OW65989  14.377   5.076  10.526
88072SOL    HW165990  14.364   4.983  10.543
88072SOL    HW265991  14.371   5.084  10.431
88073SOL     OW65992  14.219   4.153  13.306
88073SOL    HW165993  14.279   4.097  13.355
88073SOL    HW265994  14.193   4.100  13.231
88074SOL     OW65995   1.708  11.470   5.463
88074SOL    HW165996   1.675  11.541   5.408
88074SOL    HW265997   1.714  11.395   5.405
88075SOL     OW65998  13.382   7.670   1.238
88075SOL    HW165999  13.289   7.679   1.261
88075SOL    HW266000  13.429   7.697   1.317
88076SOL     OW66001   6.092  12.955   5.021
88076SOL    HW166002   6.073  12.920   5.108
88076SOL    HW266003   6.049  12.894   4.961
88077SOL     OW66004  10.865   3.405   3.456
88077SOL    HW166005  10.870   3.499   3.472
88077SOL    HW266006  10.777   3.380   3.485
88078SOL     OW66007   4.944  13.592   9.622
88078SOL    HW166008   4.889  13.611   9.699
88078SOL    HW266009   4.918  13.504   9.595
88079SOL     OW66010   0.794  11.071  14.237
88079SOL    HW166011   0.879  11.045  14.273
88079SOL    HW266012   0.750  10.988  14.217
88080SOL     OW66013  12.993   3.226   5.557
88080SOL    HW166014  12.920   3.165   5.565
88080SOL    HW266015  13.051   3.203   5.630
88081SOL     OW66016   4.279   1.714   0.884
88081SOL    HW166017   4.304   1.626   0.913
88081SOL    HW266018   4.263   1.762   0.965
88082SOL     OW66019   3.111   8.025  11.587
88082SOL    HW166020   3.204   8.005  11.586
88082SOL    HW266021   3.107   8.120  11.573
88083SOL     OW66022   4.706  11.465  10.107
88083SOL    HW166023   4.767  11.493  10.039
88083SOL    HW266024   4.625  11.443  10.060
88084SOL     OW66025  11.780  14.155   9.838
88084SOL    HW166026  11.699  14.155   9.889
88084SOL    HW266027  11.762  14.213   9.764
88085SOL     OW66028   5.310  14.003   4.883
88085SOL    HW166029   5.336  14.034   4.970
88085SOL    HW266030   5.372  14.045   4.823
88086SOL     OW66031   4.970  11.062  13.384
88086SOL    HW166032   5.045  11.056  13.443
88086SOL    HW266033   5.008  11.087  13.300
88087SOL     OW66034  11.079   4.483  10.213
88087SOL    HW166035  11.038   4.459  10.296
88087SOL    HW266036  11.168   4.447  10.219
88088SOL     OW66037   9.759  14.129   4.521
88088SOL    HW166038   9.772  14.162   4.610
88088SOL    HW266039   9.791  14.039   4.525
88089SOL     OW66040  10.631  11.454   8.180
88089SOL    HW166041  10.706  11.431   8.125
88089SOL    HW266042  10.641  11.547   8.197
88090SOL     OW66043   2.160  13.186   3.721
88090SOL    HW166044   2.079  13.169   3.770
88090SOL    HW266045   2.129  13.220   3.636
88091SOL     OW66046  14.505  13.457  13.328
88091SOL    HW166047  14.462  13.494  13.252
88091SOL    HW266048  14.587  13.507  13.336
88092SOL     OW66049   1.180   0.821   7.282
88092SOL    HW166050   1.161   0.914   7.293
88092SOL    HW266051   1.233   0.817   7.202
88093SOL     OW66052  12.714  10.433   6.456
88093SOL    HW166053  12.636  10.453   6.508
88093SOL    HW266054  12.726  10.338   6.468
88094SOL     OW66055  14.602   8.743  11.552
88094SOL    HW166056  14.628   8.810  11.489
88094SOL    HW266057  14.602   8.661  11.501
88095SOL     OW66058   0.735   6.747   0.415
88095SOL    HW166059   0.779   6.704   0.488
88095SOL    HW266060   0.655   6.783   0.453
88096SOL     OW66061  10.145  13.856   9.773
88096SOL    HW166062  10.203  13.922   9.737
88096SOL    HW266063  10.082  13.838   9.704
88097SOL     OW66064   9.788   5.600  12.591
88097SOL    HW166065   9.733   5.678  12.594
88097SOL    HW266066   9.758   5.545  12.663
88098SOL     OW66067   0.536   8.379   4.421
88098SOL    HW166068   0.532   8.441   4.494
88098SOL    HW266069   0.623   8.393   4.383
88099SOL     OW66070  13.255   8.941   1.303
88099SOL    HW166071  13.188   8.967   1.239
88099SOL    HW266072  13.335   8.932   1.251
88100SOL     OW66073   2.927   1.060  11.801
88100SOL    HW166074   2.833   1.044  11.803
88100SOL    HW266075   2.959   1.027  11.885
88101SOL     OW66076   4.742   3.242   4.907
88101SOL    HW166077   4.754   3.237   4.812
88101SOL    HW266078   4.678   3.175   4.928
88102SOL     OW66079   6.143   7.440   3.107
88102SOL    HW166080   6.072   7.429   3.171
88102SOL    HW266081   6.219   7.401   3.149
88103SOL     OW66082  13.627   6.105   1.155
88103SOL    HW166083  13.548   6.086   1.105
88103SOL    HW266084  13.618   6.054   1.236
88104SOL     OW66085   5.304  13.356  12.368
88104SOL    HW166086   5.316  13.265  12.341
88104SOL    HW266087   5.388  13.398  12.350
88105SOL     OW66088   1.320   4.388   1.624
88105SOL    HW166089   1.356   4.317   1.678
88105SOL    HW266090   1.257   4.344   1.567
88106SOL     OW66091   3.576   4.079   3.714
88106SOL    HW166092   3.617   4.077   3.800
88106SOL    HW266093   3.556   4.172   3.699
88107SOL     OW66094   7.274   9.395  12.863
88107SOL    HW166095   7.198   9.356  12.906
88107SOL    HW266096   7.264   9.489  12.879
88108SOL     OW66097   0.182   8.463   2.101
88108SOL    HW166098   0.120   8.416   2.045
88108SOL    HW266099   0.127   8.513   2.160
88109SOL     OW66100  10.001  11.113   4.232
88109SOL    HW166101  10.065  11.057   4.276
88109SOL    HW266102   9.921  11.059   4.228
88110SOL     OW66103   0.693   5.732   1.528
88110SOL    HW166104   0.631   5.751   1.457
88110SOL    HW266105   0.651   5.661   1.577
88111SOL     OW66106   2.980  11.806   3.883
88111SOL    HW166107   2.923  11.882   3.879
88111SOL    HW266108   3.069  11.842   3.884
88112SOL     OW66109   0.961  14.756   1.873
88112SOL    HW166110   0.904  14.751   1.796
88112SOL    HW266111   1.040  14.800   1.842
88113SOL     OW66112   9.074  10.799   8.942
88113SOL    HW166113   9.127  10.878   8.954
88113SOL    HW266114   9.003  10.827   8.885
88114SOL     OW66115  11.829   9.476  12.045
88114SOL    HW166116  11.894   9.415  12.009
88114SOL    HW266117  11.864   9.501  12.130
88115SOL     OW66118  12.548  12.395  13.803
88115SOL    HW166119  12.579  12.395  13.894
88115SOL    HW266120  12.492  12.318  13.798
88116SOL     OW66121   8.860   9.800  11.689
88116SOL    HW166122   8.843   9.813  11.783
88116SOL    HW266123   8.939   9.746  11.687
88117SOL     OW66124   5.793   4.791   9.173
88117SOL    HW166125   5.856   4.798   9.101
88117SOL    HW266126   5.847   4.769   9.249
88118SOL     OW66127  12.767  12.546   5.306
88118SOL    HW166128  12.714  12.615   5.346
88118SOL    HW266129  12.720  12.466   5.326
88119SOL     OW66130  10.935   0.939  12.425
88119SOL    HW166131  10.993   0.982  12.488
88119SOL    HW266132  10.979   0.950  12.340
88120SOL     OW66133  13.241   3.098  14.380
88120SOL    HW166134  13.220   3.029  14.442
88120SOL    HW266135  13.230   3.057  14.294
88121SOL     OW66136   7.530   5.843   3.463
88121SOL    HW166137   7.565   5.917   3.512
88121SOL    HW266138   7.603   5.812   3.411
88122SOL     OW66139   7.743   6.895   5.718
88122SOL    HW166140   7.822   6.849   5.745
88122SOL    HW266141   7.689   6.897   5.797
88123SOL     OW66142   1.944  12.294   3.334
88123SOL    HW166143   2.005  12.226   3.307
88123SOL    HW266144   1.974  12.373   3.288
88124SOL     OW66145   5.042   9.919   3.808
88124SOL    HW166146   5.121   9.876   3.775
88124SOL    HW266147   5.072  10.003   3.841
88125SOL     OW66148  13.683   1.392  13.187
88125SOL    HW166149  13.752   1.372  13.124
88125SOL    HW266150  13.700   1.482  13.215
88126SOL     OW66151   1.208   4.153  10.431
88126SOL    HW166152   1.245   4.206  10.361
88126SOL    HW266153   1.281   4.100  10.463
88127SOL     OW66154   9.332  13.478  12.220
88127SOL    HW166155   9.377  13.493  12.303
88127SOL    HW266156   9.394  13.508  12.153
88128SOL     OW66157  13.241   0.006  14.459
88128SOL    HW166158  13.169   0.068  14.444
88128SOL    HW266159  13.223  14.810  14.401
88129SOL     OW66160  14.347   7.897  13.500
88129SOL    HW166161  14.329   7.837  13.427
88129SOL    HW266162  14.441   7.914  13.494
88130SOL     OW66163   5.715   1.499  11.710
88130SOL    HW166164   5.744   1.451  11.632
88130SOL    HW266165   5.657   1.567  11.676
88131SOL     OW66166   9.615   6.999  10.910
88131SOL    HW166167   9.588   6.914  10.877
88131SOL    HW266168   9.668   7.037  10.840
88132SOL     OW66169  11.205   7.424   8.159
88132SOL    HW166170  11.248   7.474   8.228
88132SOL    HW266171  11.113   7.421   8.184
88133SOL     OW66172   7.214   3.943  11.461
88133SOL    HW166173   7.231   3.883  11.534
88133SOL    HW266174   7.124   3.973  11.475
88134SOL     OW66175  11.722  11.657   2.195
88134SOL    HW166176  11.702  11.574   2.239
88134SOL    HW266177  11.638  11.701   2.187
88135SOL     OW66178   4.191   2.690   6.213
88135SOL    HW166179   4.141   2.683   6.132
88135SOL    HW266180   4.218   2.781   6.217
88136SOL     OW66181   7.951  14.087  10.033
88136SOL    HW166182   7.964  14.179  10.057
88136SOL    HW266183   7.857  14.073  10.043
88137SOL     OW66184   6.270  13.836   1.117
88137SOL    HW166185   6.220  13.828   1.036
88137SOL    HW266186   6.309  13.749   1.130
88138SOL     OW66187   8.204   9.744   4.456
88138SOL    HW166188   8.146   9.750   4.380
88138SOL    HW266189   8.286   9.784   4.428
88139SOL     OW66190   6.770   1.379  11.118
88139SOL    HW166191   6.818   1.347  11.194
88139SOL    HW266192   6.784   1.474  11.118
88140SOL     OW66193   4.315  10.891  12.338
88140SOL    HW166194   4.394  10.934  12.371
88140SOL    HW266195   4.244  10.948  12.366
88141SOL     OW66196  10.424   6.487  13.558
88141SOL    HW166197  10.402   6.550  13.490
88141SOL    HW266198  10.518   6.498  13.572
88142SOL     OW66199   8.715  11.685  13.532
88142SOL    HW166200   8.703  11.659  13.623
88142SOL    HW266201   8.701  11.604  13.482
88143SOL     OW66202  14.521  10.161  11.326
88143SOL    HW166203  14.549  10.237  11.376
88143SOL    HW266204  14.562  10.087  11.371
88144SOL     OW66205   8.979   9.007   1.721
88144SOL    HW166206   8.902   9.007   1.663
88144SOL    HW266207   9.042   8.951   1.676
88145SOL     OW66208   8.054   2.521   6.431
88145SOL    HW166209   8.105   2.595   6.465
88145SOL    HW266210   8.049   2.460   6.504
88146SOL     OW66211   2.293   4.897  13.358
88146SOL    HW166212   2.282   4.844  13.437
88146SOL    HW266213   2.229   4.861  13.297
88147SOL     OW66214  11.230   5.109   9.046
88147SOL    HW166215  11.306   5.072   9.090
88147SOL    HW266216  11.156   5.083   9.101
88148SOL     OW66217   0.578   5.338  14.065
88148SOL    HW166218   0.599   5.431  14.066
88148SOL    HW266219   0.602   5.307  14.152
88149SOL     OW66220  10.551  10.112  13.692
88149SOL    HW166221  10.615  10.064  13.641
88149SOL    HW266222  10.588  10.116  13.780
88150SOL     OW66223   2.391   5.160   1.371
88150SOL    HW166224   2.371   5.185   1.461
88150SOL    HW266225   2.423   5.070   1.377
88151SOL     OW66226   2.931   8.828   5.621
88151SOL    HW166227   2.983   8.898   5.662
88151SOL    HW266228   2.983   8.749   5.634
88152SOL     OW66229   9.453   9.123  10.351
88152SOL    HW166230   9.410   9.182  10.289
88152SOL    HW266231   9.413   9.038  10.335
88153SOL     OW66232   6.405   9.984   3.156
88153SOL    HW166233   6.455  10.065   3.164
88153SOL    HW266234   6.332  10.006   3.099
88154SOL     OW66235   9.462   3.582   2.358
88154SOL    HW166236   9.393   3.646   2.375
88154SOL    HW266237   9.542   3.624   2.387
88155SOL     OW66238   9.632  10.446   4.521
88155SOL    HW166239   9.676  10.506   4.581
88155SOL    HW266240   9.635  10.361   4.566
88156SOL     OW66241   0.487   7.453   1.764
88156SOL    HW166242   0.496   7.538   1.806
88156SOL    HW266243   0.535   7.461   1.682
88157SOL     OW66244  12.062  14.790   2.245
88157SOL    HW166245  12.154  14.771   2.225
88157SOL    HW266246  12.060  14.799   2.340
88158SOL     OW66247  12.526   9.564  13.281
88158SOL    HW166248  12.606   9.610  13.306
88158SOL    HW266249  12.531   9.480  13.326
88159SOL     OW66250   6.347   5.117  13.966
88159SOL    HW166251   6.347   5.021  13.973
88159SOL    HW266252   6.436   5.142  13.992
88160SOL     OW66253   2.589   1.968   7.991
88160SOL    HW166254   2.542   1.946   7.911
88160SOL    HW266255   2.592   1.886   8.041
88161SOL     OW66256  13.522   6.094  12.499
88161SOL    HW166257  13.484   6.037  12.565
88161SOL    HW266258  13.616   6.078  12.504
88162SOL     OW66259   0.837   0.510   5.056
88162SOL    HW166260   0.840   0.598   5.019
88162SOL    HW266261   0.756   0.509   5.107
88163SOL     OW66262   0.614  11.829  10.649
88163SOL    HW166263   0.537  11.796  10.697
88163SOL    HW266264   0.591  11.919  10.626
88164SOL     OW66265   7.321   0.830   5.405
88164SOL    HW166266   7.321   0.900   5.470
88164SOL    HW266267   7.232   0.831   5.369
88165SOL     OW66268  14.321   2.556  10.538
88165SOL    HW166269  14.237   2.513  10.550
88165SOL    HW266270  14.311   2.640  10.583
88166SOL     OW66271  13.604   9.203   7.734
88166SOL    HW166272  13.671   9.272   7.740
88166SOL    HW266273  13.648   9.131   7.689
88167SOL     OW66274  10.999   8.311   1.635
88167SOL    HW166275  10.981   8.397   1.597
88167SOL    HW266276  10.936   8.252   1.594
88168SOL     OW66277  13.712  11.862   4.621
88168SOL    HW166278  13.622  11.893   4.626
88168SOL    HW266279  13.764  11.940   4.605
88169SOL     OW66280  11.658  11.507   0.206
88169SOL    HW166281  11.634  11.590   0.247
88169SOL    HW266282  11.702  11.532   0.124
88170SOL     OW66283  14.513   8.923   4.074
88170SOL    HW166284  14.525   8.940   4.167
88170SOL    HW266285  14.600   8.935   4.036
88171SOL     OW66286   0.188  13.884  14.248
88171SOL    HW166287   0.145  13.938  14.182
88171SOL    HW266288   0.220  13.808  14.200
88172SOL     OW66289  13.684  10.417  12.199
88172SOL    HW166290  13.775  10.396  12.175
88172SOL    HW266291  13.669  10.368  12.280
88173SOL     OW66292  14.237   7.215  10.456
88173SOL    HW166293  14.198   7.166  10.528
88173SOL    HW266294  14.216   7.306  10.474
88174SOL     OW66295   2.160  12.091   4.766
88174SOL    HW166296   2.132  12.110   4.856
88174SOL    HW266297   2.241  12.042   4.777
88175SOL     OW66298  10.704  13.072  10.248
88175SOL    HW166299  10.627  13.072  10.306
88175SOL    HW266300  10.757  12.999  10.279
88176SOL     OW66301   1.497   4.681   3.015
88176SOL    HW166302   1.548   4.723   3.084
88176SOL    HW266303   1.446   4.752   2.976
88177SOL     OW66304  10.815  14.172   1.951
88177SOL    HW166305  10.834  14.265   1.941
88177SOL    HW266306  10.892  14.136   1.994
88178SOL     OW66307  14.416   8.223  13.359
88178SOL    HW166308  14.417   8.127  13.369
88178SOL    HW266309  14.500   8.251  13.395
88179SOL     OW66310   1.152   0.534   0.415
88179SOL    HW166311   1.082   0.567   0.359
88179SOL    HW266312   1.123   0.552   0.504
88180SOL     OW66313   4.385   1.397  10.540
88180SOL    HW166314   4.432   1.353  10.611
88180SOL    HW266315   4.449   1.455  10.500
88181SOL     OW66316   4.534  13.233  13.816
88181SOL    HW166317   4.514  13.217  13.724
88181SOL    HW266318   4.566  13.149  13.850
88182SOL     OW66319  12.818   6.374   5.860
88182SOL    HW166320  12.841   6.298   5.913
88182SOL    HW266321  12.795   6.338   5.775
88183SOL     OW66322  12.403  13.104   4.934
88183SOL    HW166323  12.424  13.196   4.913
88183SOL    HW266324  12.487  13.066   4.958
88184SOL     OW66325   4.077   0.638   3.971
88184SOL    HW166326   4.003   0.685   3.934
88184SOL    HW266327   4.155   0.683   3.938
88185SOL     OW66328   7.303   5.280   7.696
88185SOL    HW166329   7.227   5.337   7.689
88185SOL    HW266330   7.378   5.338   7.685
88186SOL     OW66331   2.344  13.789   3.891
88186SOL    HW166332   2.311  13.856   3.831
88186SOL    HW266333   2.439  13.796   3.884
88187SOL     OW66334   4.205   9.138  10.458
88187SOL    HW166335   4.216   9.141  10.554
88187SOL    HW266336   4.224   9.227  10.430
88188SOL     OW66337   9.534   0.484   7.027
88188SOL    HW166338   9.457   0.538   7.045
88188SOL    HW266339   9.512   0.438   6.946
88189SOL     OW66340  11.139   2.570  11.386
88189SOL    HW166341  11.066   2.508  11.379
88189SOL    HW266342  11.193   2.552  11.308
88190SOL     OW66343   7.967   7.784   2.793
88190SOL    HW166344   8.056   7.782   2.758
88190SOL    HW266345   7.955   7.697   2.831
88191SOL     OW66346   0.600   1.758   5.708
88191SOL    HW166347   0.694   1.751   5.692
88191SOL    HW266348   0.568   1.667   5.704
88192SOL     OW66349   4.425   3.686   4.110
88192SOL    HW166350   4.429   3.649   4.198
88192SOL    HW266351   4.339   3.661   4.077
88193SOL     OW66352   9.233   5.196   1.548
88193SOL    HW166353   9.312   5.235   1.511
88193SOL    HW266354   9.262   5.157   1.631
88194SOL     OW66355   6.481  10.976  12.579
88194SOL    HW166356   6.402  10.991  12.527
88194SOL    HW266357   6.548  11.029  12.536
88195SOL     OW66358   9.231   6.831   4.613
88195SOL    HW166359   9.307   6.888   4.610
88195SOL    HW266360   9.265   6.745   4.589
88196SOL     OW66361   4.688   4.281   9.550
88196SOL    HW166362   4.694   4.371   9.518
88196SOL    HW266363   4.778   4.249   9.548
88197SOL     OW66364   7.687   5.407  14.479
88197SOL    HW166365   7.592   5.417  14.471
88197SOL    HW266366   7.718   5.494  14.504
88198SOL     OW66367   5.924   2.895  10.424
88198SOL    HW166368   5.857   2.933  10.481
88198SOL    HW266369   5.886   2.900  10.336
88199SOL     OW66370   1.675   0.157   8.847
88199SOL    HW166371   1.673   0.097   8.921
88199SOL    HW266372   1.655   0.102   8.771
88200SOL     OW66373   0.121  12.164  10.341
88200SOL    HW166374   0.186  12.128  10.281
88200SOL    HW266375   0.168  12.231  10.390
88201SOL     OW66376   6.243   4.161  10.226
88201SOL    HW166377   6.337   4.160  10.245
88201SOL    HW266378   6.202   4.144  10.311
88202SOL     OW66379  11.943  10.176  12.027
88202SOL    HW166380  11.972  10.265  12.004
88202SOL    HW266381  11.867  10.161  11.971
88203SOL     OW66382   4.895  14.298  10.297
88203SOL    HW166383   4.805  14.333  10.299
88203SOL    HW266384   4.947  14.369  10.258
88204SOL     OW66385   5.860  11.040   9.384
88204SOL    HW166386   5.917  10.966   9.407
88204SOL    HW266387   5.883  11.059   9.293
88205SOL     OW66388  11.427   5.631   1.360
88205SOL    HW166389  11.362   5.686   1.404
88205SOL    HW266390  11.475   5.589   1.431
88206SOL     OW66391  13.030  10.446  11.597
88206SOL    HW166392  13.015  10.522  11.654
88206SOL    HW266393  13.124  10.450  11.577
88207SOL     OW66394   9.842   0.682  13.598
88207SOL    HW166395   9.884   0.696  13.683
88207SOL    HW266396   9.885   0.605  13.562
88208SOL     OW66397   0.286   8.278   4.443
88208SOL    HW166398   0.373   8.309   4.417
88208SOL    HW266399   0.272   8.317   4.529
88209SOL     OW66400   1.416   6.605  12.760
88209SOL    HW166401   1.352   6.659  12.714
88209SOL    HW266402   1.437   6.655  12.839
88210SOL     OW66403  10.621   9.565  14.502
88210SOL    HW166404  10.656   9.476  14.511
88210SOL    HW266405  10.698   9.622  14.513
88211SOL     OW66406   1.150   6.655   8.404
88211SOL    HW166407   1.226   6.713   8.411
88211SOL    HW266408   1.128   6.635   8.495
88212SOL     OW66409  11.458   5.804   2.479
88212SOL    HW166410  11.515   5.840   2.546
88212SOL    HW266411  11.433   5.718   2.512
88213SOL     OW66412  14.354   1.923   0.576
88213SOL    HW166413  14.383   1.985   0.642
88213SOL    HW266414  14.276   1.882   0.613
88214SOL     OW66415  10.365   6.115  11.582
88214SOL    HW166416  10.339   6.032  11.542
88214SOL    HW266417  10.396   6.090  11.669
88215SOL     OW66418  14.386   1.316  11.309
88215SOL    HW166419  14.340   1.314  11.226
88215SOL    HW266420  14.318   1.300  11.375
88216SOL     OW66421   1.031  10.576   3.396
88216SOL    HW166422   0.958  10.520   3.369
88216SOL    HW266423   1.097  10.565   3.327
88217SOL     OW66424   6.972   3.195   5.210
88217SOL    HW166425   7.040   3.255   5.240
88217SOL    HW266426   6.963   3.132   5.282
88218SOL     OW66427   9.693   0.449  14.113
88218SOL    HW166428   9.604   0.448  14.148
88218SOL    HW266429   9.684   0.413  14.024
88219SOL     OW66430   1.554   1.299   9.637
88219SOL    HW166431   1.520   1.340   9.717
88219SOL    HW266432   1.518   1.211   9.639
88220SOL     OW66433   2.169   0.497   5.436
88220SOL    HW166434   2.121   0.416   5.453
88220SOL    HW266435   2.103   0.566   5.446
88221SOL     OW66436   4.541  13.506  10.039
88221SOL    HW166437   4.629  13.479  10.066
88221SOL    HW266438   4.482  13.449  10.087
88222SOL     OW66439  13.861   3.968   5.499
88222SOL    HW166440  13.955   3.980   5.510
88222SOL    HW266441  13.830   4.051   5.463
88223SOL     OW66442  13.232  10.339   9.175
88223SOL    HW166443  13.199  10.427   9.157
88223SOL    HW266444  13.294  10.322   9.104
88224SOL     OW66445   0.332   7.695  14.775
88224SOL    HW166446   0.318   7.717  14.868
88224SOL    HW266447   0.392   7.762  14.743
88225SOL     OW66448  14.870   4.977  14.107
88225SOL    HW166449  14.797   4.960  14.167
88225SOL    HW266450  14.829   5.014  14.029
88226SOL     OW66451  13.048   1.294  12.211
88226SOL    HW166452  13.126   1.350  12.215
88226SOL    HW266453  13.075   1.212  12.251
88227SOL     OW66454  12.158   9.879   7.154
88227SOL    HW166455  12.064   9.867   7.160
88227SOL    HW266456  12.192   9.850   7.239
88228SOL     OW66457   9.991   5.314   9.338
88228SOL    HW166458   9.963   5.370   9.266
88228SOL    HW266459  10.032   5.375   9.401
88229SOL     OW66460   3.085  13.641  12.376
88229SOL    HW166461   3.058  13.725  12.339
88229SOL    HW266462   3.003  13.595  12.393
88230SOL     OW66463   3.477   5.142   0.256
88230SOL    HW166464   3.543   5.211   0.259
88230SOL    HW266465   3.393   5.188   0.257
88231SOL     OW66466   2.341   7.241   4.587
88231SOL    HW166467   2.247   7.227   4.599
88231SOL    HW266468   2.351   7.336   4.585
88232SOL     OW66469   8.916   2.303  10.395
88232SOL    HW166470   8.837   2.314  10.343
88232SOL    HW266471   8.950   2.217  10.368
88233SOL     OW66472   6.885  13.673  12.174
88233SOL    HW166473   6.882  13.629  12.090
88233SOL    HW266474   6.958  13.631  12.220
88234SOL     OW66475   5.432   9.163  12.241
88234SOL    HW166476   5.385   9.097  12.292
88234SOL    HW266477   5.463   9.117  12.163
88235SOL     OW66478  10.047   5.993  11.616
88235SOL    HW166479  10.030   6.039  11.534
88235SOL    HW266480  10.090   6.058  11.672
88236SOL     OW66481   6.574   8.216   5.386
88236SOL    HW166482   6.598   8.301   5.351
88236SOL    HW266483   6.595   8.222   5.479
88237SOL     OW66484  12.630   4.954   6.371
88237SOL    HW166485  12.683   4.881   6.340
88237SOL    HW266486  12.552   4.912   6.408
88238SOL     OW66487   8.832  12.206   0.830
88238SOL    HW166488   8.829  12.167   0.918
88238SOL    HW266489   8.802  12.296   0.842
88239SOL     OW66490   7.461  10.266  14.520
88239SOL    HW166491   7.461  10.207  14.445
88239SOL    HW266492   7.460  10.209  14.596
88240SOL     OW66493  12.632   0.410  11.949
88240SOL    HW166494  12.649   0.479  11.885
88240SOL    HW266495  12.537   0.397  11.947
88241SOL     OW66496   1.624  10.049   6.661
88241SOL    HW166497   1.689  10.115   6.683
88241SOL    HW266498   1.604  10.066   6.569
88242SOL     OW66499   8.176   6.513  10.815
88242SOL    HW166500   8.095   6.473  10.786
88242SOL    HW266501   8.149   6.595  10.856
88243SOL     OW66502   6.248  11.186  10.825
88243SOL    HW166503   6.342  11.193  10.805
88243SOL    HW266504   6.230  11.092  10.822
88244SOL     OW66505   3.726   1.352   5.926
88244SOL    HW166506   3.687   1.285   5.982
88244SOL    HW266507   3.769   1.303   5.856
88245SOL     OW66508   2.265  14.465   5.626
88245SOL    HW166509   2.349  14.420   5.613
88245SOL    HW266510   2.200  14.402   5.596
88246SOL     OW66511   9.592  12.367  10.927
88246SOL    HW166512   9.600  12.272  10.933
88246SOL    HW266513   9.674  12.400  10.963
88247SOL     OW66514  10.410   3.173   0.424
88247SOL    HW166515  10.481   3.115   0.395
88247SOL    HW266516  10.451   3.231   0.488
88248SOL     OW66517   9.493  10.103  12.900
88248SOL    HW166518   9.572  10.076  12.853
88248SOL    HW266519   9.493  10.051  12.980
88249SOL     OW66520   4.502   6.046   4.252
88249SOL    HW166521   4.420   5.996   4.248
88249SOL    HW266522   4.531   6.037   4.343
88250SOL     OW66523   0.235   7.728   6.437
88250SOL    HW166524   0.217   7.742   6.344
88250SOL    HW266525   0.153   7.694   6.473
88251SOL     OW66526   0.969   0.046   7.726
88251SOL    HW166527   1.032  14.853   7.711
88251SOL    HW266528   0.893   0.023   7.672
88252SOL     OW66529   1.226   1.910   5.555
88252SOL    HW166530   1.255   1.851   5.485
88252SOL    HW266531   1.170   1.973   5.511
88253SOL     OW66532  10.809   1.241  14.254
88253SOL    HW166533  10.744   1.280  14.195
88253SOL    HW266534  10.880   1.305  14.256
88254SOL     OW66535   9.764   6.428   9.913
88254SOL    HW166536   9.781   6.352   9.857
88254SOL    HW266537   9.844   6.480   9.906
88255SOL     OW66538   7.767   4.049   5.089
88255SOL    HW166539   7.728   3.970   5.052
88255SOL    HW266540   7.837   4.072   5.028
88256SOL     OW66541   9.878   6.634  14.115
88256SOL    HW166542   9.903   6.721  14.145
88256SOL    HW266543   9.782   6.634  14.116
88257SOL     OW66544   6.432  10.238   4.047
88257SOL    HW166545   6.341  10.254   4.069
88257SOL    HW266546   6.467  10.190   4.122
88258SOL     OW66547   6.761   5.184   7.275
88258SOL    HW166548   6.850   5.211   7.296
88258SOL    HW266549   6.739   5.119   7.342
88259SOL     OW66550  12.071  12.044   2.463
88259SOL    HW166551  12.017  12.000   2.528
88259SOL    HW266552  12.015  12.047   2.385
88260SOL     OW66553  13.967   0.066  14.308
88260SOL    HW166554  13.987   0.074  14.215
88260SOL    HW266555  14.053   0.064  14.351
88261SOL     OW66556  10.022   1.694   6.802
88261SOL    HW166557  10.106   1.658   6.772
88261SOL    HW266558  10.012   1.775   6.753
88262SOL     OW66559   5.963  14.773   5.667
88262SOL    HW166560   5.987  14.853   5.714
88262SOL    HW266561   5.886  14.797   5.617
88263SOL     OW66562  10.198   7.793   4.704
88263SOL    HW166563  10.209   7.712   4.654
88263SOL    HW266564  10.125   7.837   4.662
88264SOL     OW66565   0.718   0.418   4.701
88264SOL    HW166566   0.732   0.478   4.628
88264SOL    HW266567   0.623   0.415   4.713
88265SOL     OW66568   4.711  11.233   0.118
88265SOL    HW166569   4.786  11.182   0.149
88265SOL    HW266570   4.658  11.170   0.069
88266SOL     OW66571   4.954   5.178  11.550
88266SOL    HW166572   4.859   5.167  11.550
88266SOL    HW266573   4.969   5.264  11.588
88267SOL     OW66574  13.525   7.480  13.974
88267SOL    HW166575  13.500   7.470  13.882
88267SOL    HW266576  13.465   7.547  14.007
88268SOL     OW66577   0.637   2.656  12.669
88268SOL    HW166578   0.672   2.621  12.751
88268SOL    HW266579   0.715   2.682  12.620
88269SOL     OW66580  11.437   2.686   9.870
88269SOL    HW166581  11.510   2.628   9.847
88269SOL    HW266582  11.406   2.720   9.786
88270SOL     OW66583  14.179   9.190   1.843
88270SOL    HW166584  14.121   9.114   1.851
88270SOL    HW266585  14.120   9.265   1.840
88271SOL     OW66586   6.254  13.358   6.303
88271SOL    HW166587   6.329  13.371   6.245
88271SOL    HW266588   6.292  13.337   6.388
88272SOL     OW66589  13.126  13.811   6.554
88272SOL    HW166590  13.051  13.870   6.545
88272SOL    HW266591  13.163  13.833   6.640
88273SOL     OW66592   2.432   3.461  10.314
88273SOL    HW166593   2.479   3.429  10.238
88273SOL    HW266594   2.487   3.533  10.347
88274SOL     OW66595  12.811   0.878   0.633
88274SOL    HW166596  12.740   0.815   0.622
88274SOL    HW266597  12.888   0.825   0.653
88275SOL     OW66598   4.671   1.357  11.404
88275SOL    HW166599   4.621   1.426  11.448
88275SOL    HW266600   4.633   1.275  11.436
88276SOL     OW66601   4.065   1.738  14.870
88276SOL    HW166602   3.971   1.723  14.860
88276SOL    HW266603   4.077   1.758   0.085
88277SOL     OW66604  12.011   1.832   9.381
88277SOL    HW166605  11.932   1.830   9.326
88277SOL    HW266606  12.060   1.908   9.349
88278SOL     OW66607   1.514   6.984   9.261
88278SOL    HW166608   1.503   6.902   9.213
88278SOL    HW266609   1.608   6.999   9.262
88279SOL     OW66610   6.277  14.578   0.598
88279SOL    HW166611   6.343  14.510   0.585
88279SOL    HW266612   6.304  14.623   0.678
88280SOL     OW66613   3.976   7.627   3.292
88280SOL    HW166614   3.903   7.595   3.344
88280SOL    HW266615   3.935   7.659   3.211
88281SOL     OW66616  14.300   9.465   1.572
88281SOL    HW166617  14.273   9.556   1.583
88281SOL    HW266618  14.344   9.462   1.487
88282SOL     OW66619   1.065   9.554  14.200
88282SOL    HW166620   1.115   9.483  14.240
88282SOL    HW266621   1.123   9.590  14.134
88283SOL     OW66622   3.583   4.803   7.903
88283SOL    HW166623   3.644   4.874   7.884
88283SOL    HW266624   3.637   4.735   7.944
88284SOL     OW66625   2.352   7.407   7.191
88284SOL    HW166626   2.405   7.473   7.236
88284SOL    HW266627   2.398   7.391   7.109
88285SOL     OW66628  13.429   9.765  12.703
88285SOL    HW166629  13.505   9.817  12.730
88285SOL    HW266630  13.413   9.792  12.613
88286SOL     OW66631   0.540  11.942  11.011
88286SOL    HW166632   0.562  11.852  10.988
88286SOL    HW266633   0.576  11.994  10.939
88287SOL     OW66634   1.392  14.463   9.723
88287SOL    HW166635   1.373  14.456   9.817
88287SOL    HW266636   1.357  14.382   9.685
88288SOL     OW66637   2.534   5.229  13.771
88288SOL    HW166638   2.571   5.261  13.689
88288SOL    HW266639   2.594   5.262  13.839
88289SOL     OW66640  10.001   7.075  10.612
88289SOL    HW166641  10.064   7.120  10.556
88289SOL    HW266642   9.984   6.991  10.568
88290SOL     OW66643  14.195  11.777  10.270
88290SOL    HW166644  14.133  11.718  10.227
88290SOL    HW266645  14.173  11.864  10.237
88291SOL     OW66646  13.576   1.475   6.107
88291SOL    HW166647  13.644   1.447   6.045
88291SOL    HW266648  13.509   1.516   6.053
88292SOL     OW66649  10.060   7.858   4.371
88292SOL    HW166650  10.012   7.887   4.448
88292SOL    HW266651  10.069   7.763   4.382
88293SOL     OW66652  14.364  12.447   4.620
88293SOL    HW166653  14.412  12.510   4.674
88293SOL    HW266654  14.276  12.446   4.657
88294SOL     OW66655   3.948   8.923   9.559
88294SOL    HW166656   3.977   8.841   9.521
88294SOL    HW266657   4.029   8.967   9.587
88295SOL     OW66658   7.194   4.290   0.140
88295SOL    HW166659   7.162   4.210   0.098
88295SOL    HW266660   7.192   4.356   0.070
88296SOL     OW66661  14.157   3.412   5.058
88296SOL    HW166662  14.181   3.404   4.966
88296SOL    HW266663  14.121   3.326   5.081
88297SOL     OW66664   7.868  13.088  13.655
88297SOL    HW166665   7.846  13.013  13.711
88297SOL    HW266666   7.964  13.091  13.656
88298SOL     OW66667  10.135   6.179  13.357
88298SOL    HW166668  10.096   6.105  13.310
88298SOL    HW266669  10.175   6.233  13.288
88299SOL     OW66670  14.421  11.697   9.294
88299SOL    HW166671  14.439  11.623   9.235
88299SOL    HW266672  14.506  11.721   9.330
88300SOL     OW66673   1.982   8.918   5.194
88300SOL    HW166674   1.931   8.923   5.113
88300SOL    HW266675   2.013   8.827   5.197
88301SOL     OW66676   4.721  10.184  13.752
88301SOL    HW166677   4.707  10.256  13.813
88301SOL    HW266678   4.736  10.108  13.808
88302SOL     OW66679  14.425   6.643   8.484
88302SOL    HW166680  14.418   6.737   8.473
88302SOL    HW266681  14.479   6.614   8.411
88303SOL     OW66682   0.900  13.686   6.808
88303SOL    HW166683   0.881  13.699   6.901
88303SOL    HW266684   0.976  13.742   6.791
88304SOL     OW66685  11.110   3.487   4.634
88304SOL    HW166686  11.040   3.467   4.695
88304SOL    HW266687  11.116   3.409   4.578
88305SOL     OW66688   3.929   2.190   8.754
88305SOL    HW166689   3.848   2.224   8.715
88305SOL    HW266690   3.916   2.095   8.757
88306SOL     OW66691   0.503   6.246   6.909
88306SOL    HW166692   0.409   6.249   6.889
88306SOL    HW266693   0.539   6.324   6.867
88307SOL     OW66694  14.310   9.293  10.068
88307SOL    HW166695  14.354   9.375  10.090
88307SOL    HW266696  14.264   9.268  10.149
88308SOL     OW66697   7.748   0.699   9.088
88308SOL    HW166698   7.676   0.644   9.057
88308SOL    HW266699   7.713   0.788   9.084
88309SOL     OW66700   0.836   3.461  12.223
88309SOL    HW166701   0.797   3.379  12.253
88309SOL    HW266702   0.769   3.501  12.168
88310SOL     OW66703  12.361  12.555   8.583
88310SOL    HW166704  12.296  12.586   8.521
88310SOL    HW266705  12.403  12.634   8.617
88311SOL     OW66706   6.545   9.460  14.743
88311SOL    HW166707   6.590   9.396  14.687
88311SOL    HW266708   6.568   9.434  14.832
88312SOL     OW66709   9.809  10.901  13.259
88312SOL    HW166710   9.714  10.894  13.266
88312SOL    HW266711   9.824  10.992  13.234
88313SOL     OW66712   4.915   2.117   7.375
88313SOL    HW166713   4.890   2.100   7.466
88313SOL    HW266714   4.975   2.046   7.352
88314SOL     OW66715  11.121  13.590  14.807
88314SOL    HW166716  11.082  13.631   0.007
88314SOL    HW266717  11.186  13.654  14.777
88315SOL     OW66718  11.646   0.098  12.334
88315SOL    HW166719  11.563   0.101  12.382
88315SOL    HW266720  11.648   0.010  12.296
88316SOL     OW66721  10.177   5.293   1.614
88316SOL    HW166722  10.200   5.266   1.525
88316SOL    HW266723  10.198   5.387   1.617
88317SOL     OW66724  12.191   1.018   6.468
88317SOL    HW166725  12.109   0.972   6.484
88317SOL    HW266726  12.200   1.018   6.373
88318SOL     OW66727   9.714   1.637   6.655
88318SOL    HW166728   9.783   1.660   6.717
88318SOL    HW266729   9.647   1.594   6.708
88319SOL     OW66730   3.089  12.675   1.412
88319SOL    HW166731   3.183  12.690   1.414
88319SOL    HW266732   3.064  12.682   1.320
88320SOL     OW66733  11.098  14.723   3.387
88320SOL    HW166734  11.174  14.671   3.412
88320SOL    HW266735  11.104  14.731   3.292
88321SOL     OW66736   3.684  12.094   4.472
88321SOL    HW166737   3.704  12.094   4.566
88321SOL    HW266738   3.702  12.183   4.443
88322SOL     OW66739  13.195  10.721   2.949
88322SOL    HW166740  13.281  10.704   2.909
88322SOL    HW266741  13.161  10.634   2.969
88323SOL     OW66742  10.029   0.529  14.744
88323SOL    HW166743  10.051   0.509  14.654
88323SOL    HW266744  10.109   0.512  14.794
88324SOL     OW66745   9.678  11.673   5.242
88324SOL    HW166746   9.708  11.742   5.183
88324SOL    HW266747   9.595  11.705   5.276
88325SOL     OW66748  10.377  11.432   8.939
88325SOL    HW166749  10.442  11.499   8.959
88325SOL    HW266750  10.425  11.368   8.887
88326SOL     OW66751   1.488   3.129   1.700
88326SOL    HW166752   1.518   3.214   1.668
88326SOL    HW266753   1.558   3.100   1.759
88327SOL     OW66754   2.303   2.896   3.828
88327SOL    HW166755   2.242   2.957   3.786
88327SOL    HW266756   2.276   2.894   3.920
88328SOL     OW66757  10.639   8.189  10.839
88328SOL    HW166758  10.543   8.195  10.839
88328SOL    HW266759  10.663   8.194  10.746
88329SOL     OW66760   4.387   8.422  10.078
88329SOL    HW166761   4.327   8.435  10.004
88329SOL    HW266762   4.419   8.332  10.067
88330SOL     OW66763   9.031   0.705   4.952
88330SOL    HW166764   9.087   0.660   5.015
88330SOL    HW266765   8.975   0.761   5.006
88331SOL     OW66766   1.142  13.475   5.124
88331SOL    HW166767   1.171  13.461   5.034
88331SOL    HW266768   1.202  13.424   5.177
88332SOL     OW66769   0.238  14.038   6.785
88332SOL    HW166770   0.285  14.100   6.730
88332SOL    HW266771   0.305  13.973   6.810
88333SOL     OW66772   6.227  14.451  13.032
88333SOL    HW166773   6.301  14.457  12.971
88333SOL    HW266774   6.248  14.375  13.086
88334SOL     OW66775   7.727  11.461  12.932
88334SOL    HW166776   7.675  11.391  12.973
88334SOL    HW266777   7.766  11.420  12.855
88335SOL     OW66778   9.002   1.591   6.030
88335SOL    HW166779   9.077   1.637   5.993
88335SOL    HW266780   8.997   1.509   5.981
88336SOL     OW66781   3.785   8.679   8.996
88336SOL    HW166782   3.708   8.735   9.001
88336SOL    HW266783   3.818   8.675   9.086
88337SOL     OW66784  13.712   8.543  13.160
88337SOL    HW166785  13.789   8.575  13.206
88337SOL    HW266786  13.742   8.526  13.071
88338SOL     OW66787  12.777  13.581   2.120
88338SOL    HW166788  12.736  13.510   2.071
88338SOL    HW266789  12.705  13.629   2.159
88339SOL     OW66790   8.484  11.552   6.191
88339SOL    HW166791   8.416  11.615   6.213
88339SOL    HW266792   8.446  11.499   6.121
88340SOL     OW66793   8.795   3.969   2.833
88340SOL    HW166794   8.745   3.989   2.911
88340SOL    HW266795   8.735   3.920   2.776
88341SOL     OW66796   7.858  12.634   8.058
88341SOL    HW166797   7.882  12.582   7.981
88341SOL    HW266798   7.827  12.570   8.122
88342SOL     OW66799   1.678  13.000   3.049
88342SOL    HW166800   1.740  12.927   3.050
88342SOL    HW266801   1.635  12.996   3.135
88343SOL     OW66802  12.962  10.254   4.965
88343SOL    HW166803  13.022  10.180   4.975
88343SOL    HW266804  12.892  10.237   5.028
88344SOL     OW66805   7.688   2.434  11.452
88344SOL    HW166806   7.779   2.449  11.426
88344SOL    HW266807   7.658   2.365  11.392
88345SOL     OW66808   0.962   5.499   1.957
88345SOL    HW166809   1.010   5.500   1.875
88345SOL    HW266810   0.894   5.566   1.946
88346SOL     OW66811  13.706   4.800   6.032
88346SOL    HW166812  13.733   4.873   6.088
88346SOL    HW266813  13.622   4.772   6.068
88347SOL     OW66814   8.502  11.665   9.664
88347SOL    HW166815   8.497  11.689   9.756
88347SOL    HW266816   8.432  11.714   9.622
88348SOL     OW66817  10.990   1.641   4.446
88348SOL    HW166818  11.071   1.622   4.493
88348SOL    HW266819  10.994   1.735   4.428
88349SOL     OW66820  10.986  10.819   3.925
88349SOL    HW166821  10.940  10.857   3.999
88349SOL    HW266822  11.068  10.868   3.920
88350SOL     OW66823   4.452   9.819   9.132
88350SOL    HW166824   4.393   9.886   9.098
88350SOL    HW266825   4.524   9.815   9.069
88351SOL     OW66826   9.364  13.689   2.743
88351SOL    HW166827   9.407  13.612   2.780
88351SOL    HW266828   9.420  13.763   2.769
88352SOL     OW66829   1.406  10.361  12.679
88352SOL    HW166830   1.356  10.423  12.732
88352SOL    HW266831   1.492  10.359  12.721
88353SOL     OW66832   1.817   5.027   1.711
88353SOL    HW166833   1.772   5.112   1.709
88353SOL    HW266834   1.755   4.967   1.670
88354SOL     OW66835   6.920  12.892   9.086
88354SOL    HW166836   6.884  12.831   9.151
88354SOL    HW266837   6.956  12.964   9.138
88355SOL     OW66838   3.602   4.247   2.378
88355SOL    HW166839   3.520   4.284   2.408
88355SOL    HW266840   3.624   4.297   2.300
88356SOL     OW66841   9.052   4.283  14.539
88356SOL    HW166842   8.991   4.271  14.612
88356SOL    HW266843   9.139   4.272  14.577
88357SOL     OW66844   0.876  10.220   3.880
88357SOL    HW166845   0.964  10.190   3.903
88357SOL    HW266846   0.829  10.220   3.963
88358SOL     OW66847   9.695   0.168   9.641
88358SOL    HW166848   9.643   0.162   9.721
88358SOL    HW266849   9.686   0.081   9.600
88359SOL     OW66850   2.786  10.097   7.136
88359SOL    HW166851   2.744  10.152   7.071
88359SOL    HW266852   2.714  10.057   7.184
88360SOL     OW66853   1.065   9.527   9.732
88360SOL    HW166854   1.078   9.620   9.747
88360SOL    HW266855   0.971   9.514   9.745
88361SOL     OW66856   3.448   2.853   3.737
88361SOL    HW166857   3.452   2.934   3.789
88361SOL    HW266858   3.356   2.848   3.709
88362SOL     OW66859   8.541  10.692   3.724
88362SOL    HW166860   8.538  10.657   3.635
88362SOL    HW266861   8.549  10.615   3.780
88363SOL     OW66862   5.977   2.606  12.050
88363SOL    HW166863   6.039   2.638  11.984
88363SOL    HW266864   5.894   2.650  12.029
88364SOL     OW66865   4.558   7.797   8.123
88364SOL    HW166866   4.632   7.755   8.080
88364SOL    HW266867   4.593   7.880   8.157
88365SOL     OW66868   8.408  13.526   4.977
88365SOL    HW166869   8.466  13.514   5.052
88365SOL    HW266870   8.371  13.613   4.989
88366SOL     OW66871   5.157   2.782   1.873
88366SOL    HW166872   5.083   2.807   1.817
88366SOL    HW266873   5.122   2.711   1.928
88367SOL     OW66874   5.532   9.364   4.613
88367SOL    HW166875   5.540   9.314   4.694
88367SOL    HW266876   5.560   9.303   4.545
88368SOL     OW66877   9.641   0.879   4.731
88368SOL    HW166878   9.630   0.920   4.816
88368SOL    HW266879   9.674   0.949   4.674
88369SOL     OW66880   8.330   9.142   4.691
88369SOL    HW166881   8.294   9.158   4.603
88369SOL    HW266882   8.287   9.206   4.747
88370SOL     OW66883  11.216  12.795   9.626
88370SOL    HW166884  11.268  12.835   9.556
88370SOL    HW266885  11.275  12.795   9.702
88371SOL     OW66886   8.929  12.307   0.096
88371SOL    HW166887   8.986  12.270   0.164
88371SOL    HW266888   8.985  12.370   0.050
88372SOL     OW66889   9.483  11.388   0.460
88372SOL    HW166890   9.568  11.376   0.503
88372SOL    HW266891   9.483  11.326   0.387
88373SOL     OW66892  10.341   7.447   7.004
88373SOL    HW166893  10.380   7.487   7.082
88373SOL    HW266894  10.285   7.377   7.038
88374SOL     OW66895   4.123   6.955   1.393
88374SOL    HW166896   4.139   6.957   1.488
88374SOL    HW266897   4.071   7.033   1.376
88375SOL     OW66898   9.887   2.717  13.132
88375SOL    HW166899   9.795   2.722  13.156
88375SOL    HW266900   9.923   2.647  13.185
88376SOL     OW66901   8.168   1.004   8.272
88376SOL    HW166902   8.126   1.001   8.358
88376SOL    HW266903   8.256   1.036   8.290
88377SOL     OW66904   1.238   2.999  12.314
88377SOL    HW166905   1.194   2.918  12.289
88377SOL    HW266906   1.185   3.034  12.385
88378SOL     OW66907   9.479   5.523  13.475
88378SOL    HW166908   9.499   5.616  13.465
88378SOL    HW266909   9.386   5.520  13.500
88379SOL     OW66910  13.194   2.586   7.191
88379SOL    HW166911  13.128   2.534   7.237
88379SOL    HW266912  13.195   2.670   7.237
88380SOL     OW66913   3.546  12.047   6.572
88380SOL    HW166914   3.531  12.139   6.548
88380SOL    HW266915   3.604  12.052   6.648
88381SOL     OW66916   0.814   0.434   8.928
88381SOL    HW166917   0.836   0.344   8.951
88381SOL    HW266918   0.843   0.444   8.838
88382SOL     OW66919  10.465  10.574   4.670
88382SOL    HW166920  10.480  10.668   4.685
88382SOL    HW266921  10.448  10.567   4.576
88383SOL     OW66922   7.086  14.530   7.183
88383SOL    HW166923   7.076  14.486   7.267
88383SOL    HW266924   6.997  14.550   7.155
88384SOL     OW66925  10.645   5.691  11.689
88384SOL    HW166926  10.738   5.668  11.691
88384SOL    HW266927  10.614   5.659  11.604
88385SOL     OW66928  12.995   0.066   1.421
88385SOL    HW166929  12.967   0.148   1.463
88385SOL    HW266930  12.966  14.875   1.481
88386SOL     OW66931   5.168  12.028  13.728
88386SOL    HW166932   5.219  11.963  13.776
88386SOL    HW266933   5.077  12.011  13.752
88387SOL     OW66934  10.698  11.775   9.441
88387SOL    HW166935  10.676  11.707   9.505
88387SOL    HW266936  10.614  11.795   9.398
88388SOL     OW66937   4.340   6.173  14.815
88388SOL    HW166938   4.387   6.147   0.016
88388SOL    HW266939   4.256   6.128  14.819
88389SOL     OW66940   2.441   1.839  11.220
88389SOL    HW166941   2.517   1.888  11.189
88389SOL    HW266942   2.412   1.886  11.298
88390SOL     OW66943   3.615   5.421   3.001
88390SOL    HW166944   3.666   5.501   2.990
88390SOL    HW266945   3.529   5.451   3.030
88391SOL     OW66946   7.480   3.927  11.749
88391SOL    HW166947   7.432   4.004  11.779
88391SOL    HW266948   7.532   3.958  11.675
88392SOL     OW66949   4.155   4.643  12.259
88392SOL    HW166950   4.210   4.716  12.231
88392SOL    HW266951   4.081   4.645  12.198
88393SOL     OW66952   0.921  10.390   2.650
88393SOL    HW166953   0.976  10.407   2.727
88393SOL    HW266954   0.834  10.420   2.676
88394SOL     OW66955   6.597  10.561   5.283
88394SOL    HW166956   6.523  10.603   5.241
88394SOL    HW266957   6.573  10.468   5.287
88395SOL     OW66958   5.530   6.759   7.969
88395SOL    HW166959   5.596   6.792   7.908
88395SOL    HW266960   5.510   6.834   8.025
88396SOL     OW66961   1.871   2.605  12.058
88396SOL    HW166962   1.785   2.584  12.022
88396SOL    HW266963   1.853   2.641  12.145
88397SOL     OW66964   6.457   7.757  12.729
88397SOL    HW166965   6.390   7.765  12.796
88397SOL    HW266966   6.505   7.678  12.751
88398SOL     OW66967  14.646   0.208   4.420
88398SOL    HW166968  14.632   0.141   4.353
88398SOL    HW266969  14.624   0.290   4.377
88399SOL     OW66970  14.709   8.233   2.557
88399SOL    HW166971  14.625   8.224   2.512
88399SOL    HW266972  14.696   8.190   2.642
88400SOL     OW66973  14.038   0.895   3.613
88400SOL    HW166974  14.068   0.951   3.684
88400SOL    HW266975  14.088   0.814   3.623
88401SOL     OW66976  12.600   3.054   9.159
88401SOL    HW166977  12.644   3.089   9.236
88401SOL    HW266978  12.598   2.959   9.173
88402SOL     OW66979  11.687   3.880  13.142
88402SOL    HW166980  11.640   3.833  13.210
88402SOL    HW266981  11.749   3.816  13.106
88403SOL     OW66982   1.643   1.376  10.064
88403SOL    HW166983   1.732   1.396  10.095
88403SOL    HW266984   1.605   1.323  10.134
88404SOL     OW66985   5.784   8.697   7.156
88404SOL    HW166986   5.810   8.718   7.246
88404SOL    HW266987   5.690   8.681   7.162
88405SOL     OW66988  12.635  14.418  13.490
88405SOL    HW166989  12.723  14.456  13.501
88405SOL    HW266990  12.609  14.394  13.579
88406SOL     OW66991   1.939   6.642   8.827
88406SOL    HW166992   1.886   6.577   8.874
88406SOL    HW266993   1.929   6.619   8.735
88407SOL     OW66994  12.017   1.089  12.213
88407SOL    HW166995  11.972   1.170  12.187
88407SOL    HW266996  12.090   1.082  12.151
88408SOL     OW66997   4.402  11.715  11.410
88408SOL    HW166998   4.422  11.796  11.458
88408SOL    HW266999   4.347  11.665  11.469
88409SOL     OW67000   8.823  13.813  13.762
88409SOL    HW167001   8.868  13.887  13.803
88409SOL    HW267002   8.798  13.757  13.835
88410SOL     OW67003  13.298  10.245  13.854
88410SOL    HW167004  13.264  10.182  13.791
88410SOL    HW267005  13.296  10.200  13.938
88411SOL     OW67006   4.846   4.059  11.596
88411SOL    HW167007   4.828   3.969  11.568
88411SOL    HW267008   4.846   4.110  11.515
88412SOL     OW67009   3.366  10.826  10.949
88412SOL    HW167010   3.328  10.865  11.028
88412SOL    HW267011   3.352  10.732  10.960
88413SOL     OW67012   1.623  13.917   9.708
88413SOL    HW167013   1.650  13.901   9.617
88413SOL    HW267014   1.531  13.892   9.711
88414SOL     OW67015   8.928   3.506   7.403
88414SOL    HW167016   9.006   3.479   7.355
88414SOL    HW267017   8.932   3.601   7.404
88415SOL     OW67018   8.218   9.705   5.808
88415SOL    HW167019   8.187   9.673   5.724
88415SOL    HW267020   8.173   9.652   5.874
88416SOL     OW67021   1.475   8.744   2.061
88416SOL    HW167022   1.537   8.711   2.126
88416SOL    HW267023   1.392   8.701   2.085
88417SOL     OW67024   1.168  14.091   4.782
88417SOL    HW167025   1.225  14.168   4.784
88417SOL    HW267026   1.092  14.117   4.834
88418SOL     OW67027  14.408   1.930   4.885
88418SOL    HW167028  14.416   1.915   4.979
88418SOL    HW267029  14.316   1.911   4.865
88419SOL     OW67030  11.393   2.255   2.297
88419SOL    HW167031  11.363   2.324   2.239
88419SOL    HW267032  11.430   2.301   2.372
88420SOL     OW67033   1.048   1.442   0.603
88420SOL    HW167034   1.024   1.532   0.624
88420SOL    HW267035   0.966   1.401   0.576
88421SOL     OW67036   9.342  13.620   0.450
88421SOL    HW167037   9.338  13.594   0.358
88421SOL    HW267038   9.259  13.590   0.487
88422SOL     OW67039   9.815   4.211   8.413
88422SOL    HW167040   9.852   4.275   8.473
88422SOL    HW267041   9.878   4.208   8.340
88423SOL     OW67042  13.753  14.735  13.857
88423SOL    HW167043  13.661  14.754  13.877
88423SOL    HW267044  13.788  14.818  13.826
88424SOL     OW67045   4.549   2.340  11.909
88424SOL    HW167046   4.525   2.401  11.840
88424SOL    HW267047   4.467   2.319  11.952
88425SOL     OW67048   4.400   3.488   0.120
88425SOL    HW167049   4.457   3.502   0.195
88425SOL    HW267050   4.402   3.394   0.104
88426SOL     OW67051  11.734  11.678   6.263
88426SOL    HW167052  11.786  11.601   6.243
88426SOL    HW267053  11.697  11.660   6.350
88427SOL     OW67054   0.103   6.007   9.747
88427SOL    HW167055   0.119   6.093   9.787
88427SOL    HW267056   0.091   5.948   9.821
88428SOL     OW67057   8.536   2.870   0.564
88428SOL    HW167058   8.608   2.820   0.603
88428SOL    HW267059   8.548   2.959   0.596
88429SOL     OW67060   0.484  12.440   5.337
88429SOL    HW167061   0.463  12.433   5.430
88429SOL    HW267062   0.406  12.406   5.292
88430SOL     OW67063   2.954   3.657   8.634
88430SOL    HW167064   2.862   3.630   8.628
88430SOL    HW267065   2.986   3.616   8.714
88431SOL     OW67066   0.914   5.618   5.361
88431SOL    HW167067   0.946   5.664   5.283
88431SOL    HW267068   0.837   5.667   5.388
88432SOL     OW67069  12.810   1.574  14.591
88432SOL    HW167070  12.733   1.616  14.553
88432SOL    HW267071  12.884   1.612  14.545
88433SOL     OW67072   9.077  10.094   6.495
88433SOL    HW167073   9.127  10.020   6.460
88433SOL    HW267074   9.133  10.132   6.562
88434SOL     OW67075  11.275  13.826   9.890
88434SOL    HW167076  11.318  13.772   9.824
88434SOL    HW267077  11.286  13.916   9.857
88435SOL     OW67078   4.441  10.925  10.793
88435SOL    HW167079   4.474  10.887  10.875
88435SOL    HW267080   4.346  10.916  10.799
88436SOL     OW67081   8.621   2.271  10.928
88436SOL    HW167082   8.539   2.230  10.902
88436SOL    HW267083   8.603   2.365  10.927
88437SOL     OW67084   8.485   5.205   8.898
88437SOL    HW167085   8.500   5.274   8.964
88437SOL    HW267086   8.551   5.222   8.831
88438SOL     OW67087  14.309   4.435  10.144
88438SOL    HW167088  14.336   4.392  10.063
88438SOL    HW267089  14.347   4.522  10.138
88439SOL     OW67090   6.155  10.276   5.254
88439SOL    HW167091   6.061  10.296   5.250
88439SOL    HW267092   6.160  10.196   5.307
88440SOL     OW67093   2.870   2.690  14.137
88440SOL    HW167094   2.835   2.775  14.164
88440SOL    HW267095   2.958   2.710  14.105
88441SOL     OW67096   9.797  10.993   7.788
88441SOL    HW167097   9.829  10.936   7.858
88441SOL    HW267098   9.742  11.058   7.832
88442SOL     OW67099   2.737   1.661  12.295
88442SOL    HW167100   2.660   1.611  12.323
88442SOL    HW267101   2.745   1.643  12.202
88443SOL     OW67102   3.063   5.740   0.663
88443SOL    HW167103   2.977   5.742   0.704
88443SOL    HW267104   3.112   5.673   0.711
88444SOL     OW67105   4.785   5.631   4.755
88444SOL    HW167106   4.795   5.550   4.806
88444SOL    HW267107   4.874   5.666   4.749
88445SOL     OW67108   0.050   4.779   5.977
88445SOL    HW167109   0.001   4.764   5.896
88445SOL    HW267110   0.002   4.730   6.044
88446SOL     OW67111   7.890   2.797   0.751
88446SOL    HW167112   7.979   2.819   0.726
88446SOL    HW267113   7.837   2.869   0.717
88447SOL     OW67114  10.451   7.534   0.447
88447SOL    HW167115  10.389   7.603   0.423
88447SOL    HW267116  10.403   7.480   0.511
88448SOL     OW67117   5.283  11.824   8.938
88448SOL    HW167118   5.354  11.778   8.893
88448SOL    HW267119   5.204  11.775   8.915
88449SOL     OW67120   3.249   3.708  12.280
88449SOL    HW167121   3.267   3.797  12.308
88449SOL    HW267122   3.277   3.705  12.188
88450SOL     OW67123   0.675   5.413   5.336
88450SOL    HW167124   0.671   5.477   5.265
88450SOL    HW267125   0.749   5.441   5.389
88451SOL     OW67126   1.296  11.652   9.270
88451SOL    HW167127   1.218  11.656   9.326
88451SOL    HW267128   1.344  11.732   9.289
88452SOL     OW67129  13.349   2.855   1.770
88452SOL    HW167130  13.384   2.871   1.857
88452SOL    HW267131  13.349   2.940   1.727
88453SOL     OW67132   0.057  12.558  14.716
88453SOL    HW167133   0.112  12.483  14.695
88453SOL    HW267134  14.846  12.523  14.719
88454SOL     OW67135   0.034  11.534  12.464
88454SOL    HW167136   0.029  11.628  12.479
88454SOL    HW267137   0.014  11.523  12.371
88455SOL     OW67138  11.973  13.787   9.446
88455SOL    HW167139  11.951  13.880   9.450
88455SOL    HW267140  11.935  13.758   9.364
88456SOL     OW67141   9.649  13.703  13.597
88456SOL    HW167142   9.703  13.777  13.569
88456SOL    HW267143   9.656  13.703  13.692
88457SOL     OW67144   3.042   0.711   9.414
88457SOL    HW167145   2.960   0.664   9.426
88457SOL    HW267146   3.021   0.781   9.351
88458SOL     OW67147  11.164  11.104  13.388
88458SOL    HW167148  11.123  11.067  13.466
88458SOL    HW267149  11.183  11.195  13.411
88459SOL     OW67150   1.336   6.634   0.534
88459SOL    HW167151   1.362   6.549   0.569
88459SOL    HW267152   1.332   6.691   0.610
88460SOL     OW67153  13.912   2.105   5.426
88460SOL    HW167154  13.848   2.172   5.449
88460SOL    HW267155  13.911   2.103   5.330
88461SOL     OW67156   7.917  12.358   5.217
88461SOL    HW167157   7.916  12.322   5.128
88461SOL    HW267158   8.004  12.336   5.250
88462SOL     OW67159   3.878   3.431   1.396
88462SOL    HW167160   3.890   3.376   1.319
88462SOL    HW267161   3.965   3.465   1.415
88463SOL     OW67162   0.933  14.041   1.786
88463SOL    HW167163   0.989  14.096   1.841
88463SOL    HW267164   0.940  13.953   1.824
88464SOL     OW67165   3.038   4.012   6.634
88464SOL    HW167166   3.057   3.987   6.543
88464SOL    HW267167   3.065   4.103   6.640
88465SOL     OW67168   3.694   4.911   9.362
88465SOL    HW167169   3.651   4.896   9.278
88465SOL    HW267170   3.720   4.824   9.392
88466SOL     OW67171   3.227  12.268  13.414
88466SOL    HW167172   3.247  12.301  13.502
88466SOL    HW267173   3.295  12.204  13.396
88467SOL     OW67174  10.039  14.718  13.248
88467SOL    HW167175  10.081  14.717  13.162
88467SOL    HW267176  10.082  14.647  13.296
88468SOL     OW67177   1.641  12.622   2.835
88468SOL    HW167178   1.558  12.661   2.809
88468SOL    HW267179   1.618  12.537   2.871
88469SOL     OW67180   8.646   6.535   8.301
88469SOL    HW167181   8.553   6.551   8.291
88469SOL    HW267182   8.658   6.525   8.396
88470SOL     OW67183   4.617  12.283   4.017
88470SOL    HW167184   4.621  12.262   3.923
88470SOL    HW267185   4.571  12.209   4.056
88471SOL     OW67186  14.179   7.169   9.929
88471SOL    HW167187  14.126   7.119   9.991
88471SOL    HW267188  14.140   7.256   9.929
88472SOL     OW67189   6.286   6.085   6.445
88472SOL    HW167190   6.205   6.055   6.402
88472SOL    HW267191   6.259   6.109   6.533
88473SOL     OW67192  10.847  11.122  13.255
88473SOL    HW167193  10.843  11.121  13.159
88473SOL    HW267194  10.939  11.110  13.276
88474SOL     OW67195   4.722  13.819   3.532
88474SOL    HW167196   4.741  13.824   3.626
88474SOL    HW267197   4.627  13.827   3.527
88475SOL     OW67198  12.390   9.878   3.229
88475SOL    HW167199  12.370   9.784   3.225
88475SOL    HW267200  12.483   9.881   3.249
88476SOL     OW67201  11.269   7.561   5.307
88476SOL    HW167202  11.226   7.645   5.298
88476SOL    HW267203  11.252   7.534   5.397
88477SOL     OW67204   3.662  13.979   5.241
88477SOL    HW167205   3.738  13.940   5.285
88477SOL    HW267206   3.602  14.001   5.312
88478SOL     OW67207  12.609   1.026   0.733
88478SOL    HW167208  12.703   1.007   0.739
88478SOL    HW267209  12.580   1.035   0.824
88479SOL     OW67210   6.432  14.248   0.783
88479SOL    HW167211   6.451  14.325   0.837
88479SOL    HW267212   6.420  14.283   0.695
88480SOL     OW67213   4.682   2.284   3.080
88480SOL    HW167214   4.610   2.279   3.017
88480SOL    HW267215   4.709   2.376   3.077
88481SOL     OW67216  12.454   6.488  12.969
88481SOL    HW167217  12.378   6.430  12.972
88481SOL    HW267218  12.520   6.443  13.022
88482SOL     OW67219   9.119   8.310  12.283
88482SOL    HW167220   9.150   8.223  12.311
88482SOL    HW267221   9.152   8.369  12.351
88483SOL     OW67222  10.063   3.880  13.661
88483SOL    HW167223  10.065   3.906  13.754
88483SOL    HW267224  10.091   3.789  13.661
88484SOL     OW67225   2.481  14.709   6.653
88484SOL    HW167226   2.446  14.706   6.564
88484SOL    HW267227   2.575  14.694   6.642
88485SOL     OW67228  12.187  12.721   9.707
88485SOL    HW167229  12.186  12.662   9.782
88485SOL    HW267230  12.243  12.677   9.643
88486SOL     OW67231   2.663  13.232  14.090
88486SOL    HW167232   2.723  13.161  14.067
88486SOL    HW267233   2.663  13.234  14.185
88487SOL     OW67234  10.419   0.606   3.763
88487SOL    HW167235  10.392   0.589   3.853
88487SOL    HW267236  10.341   0.585   3.710
88488SOL     OW67237   6.310  14.384   1.120
88488SOL    HW167238   6.398  14.361   1.088
88488SOL    HW267239   6.321  14.472   1.156
88489SOL     OW67240   0.899  10.763  14.082
88489SOL    HW167241   0.826  10.731  14.135
88489SOL    HW267242   0.857  10.810  14.009
88490SOL     OW67243   9.151  10.173   0.995
88490SOL    HW167244   9.143  10.119   0.916
88490SOL    HW267245   9.084  10.241   0.984
88491SOL     OW67246   6.865   6.695   8.049
88491SOL    HW167247   6.856   6.653   8.135
88491SOL    HW267248   6.935   6.758   8.061
88492SOL     OW67249   6.060   9.922  11.872
88492SOL    HW167250   6.071   9.869  11.793
88492SOL    HW267251   6.082   9.863  11.944
88493SOL     OW67252  10.112   1.689  10.564
88493SOL    HW167253  10.121   1.652  10.476
88493SOL    HW267254  10.020   1.718  10.569
88494SOL     OW67255   0.546   9.915   0.145
88494SOL    HW167256   0.622   9.972   0.151
88494SOL    HW267257   0.515   9.926   0.055
88495SOL     OW67258   4.916   5.303   6.970
88495SOL    HW167259   4.823   5.323   6.980
88495SOL    HW267260   4.948   5.291   7.059
88496SOL     OW67261   9.382  14.108   8.998
88496SOL    HW167262   9.332  14.156   8.932
88496SOL    HW267263   9.353  14.017   8.987
88497SOL     OW67264   7.034   9.779   1.169
88497SOL    HW167265   7.047   9.770   1.263
88497SOL    HW267266   7.121   9.765   1.131
88498SOL     OW67267   2.506   5.284  11.036
88498SOL    HW167268   2.453   5.286  11.116
88498SOL    HW267269   2.504   5.192  11.009
88499SOL     OW67270   4.166   8.866  10.362
88499SOL    HW167271   4.168   8.941  10.422
88499SOL    HW267272   4.115   8.800  10.408
88500SOL     OW67273   9.368   0.525   0.477
88500SOL    HW167274   9.388   0.606   0.430
88500SOL    HW267275   9.285   0.496   0.440
88501SOL     OW67276   0.066  10.329   1.420
88501SOL    HW167277  14.866  10.375   1.390
88501SOL    HW267278   0.053  10.238   1.393
88502SOL     OW67279   1.446   8.159   1.889
88502SOL    HW167280   1.366   8.106   1.879
88502SOL    HW267281   1.413   8.249   1.899
88503SOL     OW67282  13.563   2.146   5.651
88503SOL    HW167283  13.566   2.213   5.718
88503SOL    HW267284  13.615   2.181   5.579
88504SOL     OW67285   9.175   8.217   3.673
88504SOL    HW167286   9.160   8.193   3.765
88504SOL    HW267287   9.264   8.189   3.655
88505SOL     OW67288   6.993  10.019  13.644
88505SOL    HW167289   7.005  10.025  13.738
88505SOL    HW267290   6.917  10.074  13.626
88506SOL     OW67291   0.767   6.352  14.555
88506SOL    HW167292   0.711   6.323  14.483
88506SOL    HW267293   0.734   6.439  14.577
88507SOL     OW67294   1.013   3.284   7.781
88507SOL    HW167295   1.036   3.191   7.788
88507SOL    HW267296   1.096   3.330   7.786
88508SOL     OW67297  12.576  11.849   6.870
88508SOL    HW167298  12.537  11.919   6.922
88508SOL    HW267299  12.660  11.884   6.842
88509SOL     OW67300   9.678   8.110   8.046
88509SOL    HW167301   9.739   8.043   8.079
88509SOL    HW267302   9.619   8.062   7.989
88510SOL     OW67303   3.554   3.747  11.887
88510SOL    HW167304   3.551   3.729  11.793
88510SOL    HW267305   3.541   3.841  11.894
88511SOL     OW67306   2.153  10.156   1.404
88511SOL    HW167307   2.061  10.129   1.410
88511SOL    HW267308   2.193  10.121   1.484
88512SOL     OW67309   5.243   1.241   4.788
88512SOL    HW167310   5.280   1.226   4.875
88512SOL    HW267311   5.226   1.336   4.785
88513SOL     OW67312   8.388   6.600   1.051
88513SOL    HW167313   8.358   6.542   1.122
88513SOL    HW267314   8.462   6.553   1.013
88514SOL     OW67315  11.765  13.747  11.807
88514SOL    HW167316  11.771  13.652  11.806
88514SOL    HW267317  11.706  13.768  11.734
88515SOL     OW67318   6.187   4.454   2.409
88515SOL    HW167319   6.258   4.517   2.427
88515SOL    HW267320   6.173   4.409   2.492
88516SOL     OW67321  13.300   3.868   2.525
88516SOL    HW167322  13.360   3.926   2.572
88516SOL    HW267323  13.214   3.907   2.538
88517SOL     OW67324  10.552  11.032  11.060
88517SOL    HW167325  10.483  10.965  11.061
88517SOL    HW267326  10.523  11.097  11.124
88518SOL     OW67327   4.136   9.240   2.255
88518SOL    HW167328   4.218   9.192   2.247
88518SOL    HW267329   4.070   9.180   2.220
88519SOL     OW67330  12.213   4.606   0.238
88519SOL    HW167331  12.253   4.614   0.151
88519SOL    HW267332  12.278   4.560   0.290
88520SOL     OW67333   7.026  11.608   5.170
88520SOL    HW167334   7.041  11.699   5.194
88520SOL    HW267335   7.090  11.559   5.221
88521SOL     OW67336   8.857   3.804   1.411
88521SOL    HW167337   8.775   3.818   1.459
88521SOL    HW267338   8.836   3.735   1.349
88522SOL     OW67339   5.488   0.365  13.088
88522SOL    HW167340   5.475   0.286  13.141
88522SOL    HW267341   5.582   0.379  13.090
88523SOL     OW67342   7.178   5.097  10.970
88523SOL    HW167343   7.240   5.087  11.043
88523SOL    HW267344   7.207   5.177  10.925
88524SOL     OW67345   1.440   7.582  11.020
88524SOL    HW167346   1.485   7.617  11.097
88524SOL    HW267347   1.408   7.659  10.974
88525SOL     OW67348   4.235   3.752  13.603
88525SOL    HW167349   4.194   3.744  13.690
88525SOL    HW267350   4.199   3.679  13.553
88526SOL     OW67351  10.710   2.480   3.689
88526SOL    HW167352  10.650   2.406   3.691
88526SOL    HW267353  10.683   2.535   3.762
88527SOL     OW67354  13.178  12.149  10.257
88527SOL    HW167355  13.239  12.203  10.207
88527SOL    HW267356  13.199  12.059  10.231
88528SOL     OW67357  11.418   1.553  11.332
88528SOL    HW167358  11.507   1.583  11.313
88528SOL    HW267359  11.429   1.460  11.351
88529SOL     OW67360  12.685  11.622  13.472
88529SOL    HW167361  12.720  11.615  13.384
88529SOL    HW267362  12.638  11.540  13.486
88530SOL     OW67363  11.555   4.865   1.798
88530SOL    HW167364  11.558   4.838   1.890
88530SOL    HW267365  11.473   4.828   1.765
88531SOL     OW67366  13.816   0.997  13.330
88531SOL    HW167367  13.878   1.057  13.372
88531SOL    HW267368  13.790   1.042  13.250
88532SOL     OW67369  10.960  13.247   9.273
88532SOL    HW167370  10.890  13.200   9.228
88532SOL    HW267371  10.925  13.267   9.360
88533SOL     OW67372   3.264   1.236  13.753
88533SOL    HW167373   3.358   1.238  13.768
88533SOL    HW267374   3.255   1.214  13.660
88534SOL     OW67375   1.798  11.059  11.614
88534SOL    HW167376   1.881  11.087  11.574
88534SOL    HW267377   1.800  11.097  11.702
88535SOL     OW67378   6.775  14.751   4.623
88535SOL    HW167379   6.843  14.697   4.663
88535SOL    HW267380   6.734  14.797   4.696
88536SOL     OW67381   5.969   0.171   6.355
88536SOL    HW167382   5.916   0.091   6.360
88536SOL    HW267383   5.940   0.223   6.430
88537SOL     OW67384   1.656   0.980   3.474
88537SOL    HW167385   1.722   0.917   3.442
88537SOL    HW267386   1.704   1.035   3.536
88538SOL     OW67387   1.162   5.107   0.159
88538SOL    HW167388   1.155   5.014   0.179
88538SOL    HW267389   1.076   5.130   0.123
88539SOL     OW67390  13.999   5.606   2.778
88539SOL    HW167391  14.088   5.570   2.783
88539SOL    HW267392  13.947   5.538   2.736
88540SOL     OW67393   0.604  11.445  11.650
88540SOL    HW167394   0.655  11.469  11.573
88540SOL    HW267395   0.585  11.352  11.637
88541SOL     OW67396   4.811  14.303   7.293
88541SOL    HW167397   4.750  14.343   7.356
88541SOL    HW267398   4.873  14.255   7.347
88542SOL     OW67399   7.193   2.800   1.984
88542SOL    HW167400   7.108   2.770   2.018
88542SOL    HW267401   7.176   2.814   1.890
88543SOL     OW67402   6.952  12.511   4.148
88543SOL    HW167403   7.000  12.594   4.151
88543SOL    HW267404   6.865  12.533   4.181
88544SOL     OW67405   3.134  10.758  12.319
88544SOL    HW167406   3.102  10.815  12.389
88544SOL    HW267407   3.187  10.693  12.365
88545SOL     OW67408   0.547   4.444   7.469
88545SOL    HW167409   0.494   4.375   7.429
88545SOL    HW267410   0.486   4.490   7.527
88546SOL     OW67411  14.035   7.286   0.063
88546SOL    HW167412  14.030   7.368   0.112
88546SOL    HW267413  14.073   7.310  14.856
88547SOL     OW67414  13.793  10.750  11.476
88547SOL    HW167415  13.863  10.813  11.489
88547SOL    HW267416  13.714  10.795  11.505
88548SOL     OW67417   1.581  10.514   9.380
88548SOL    HW167418   1.591  10.511   9.285
88548SOL    HW267419   1.499  10.467   9.397
88549SOL     OW67420   1.003   2.821   4.945
88549SOL    HW167421   0.913   2.832   4.913
88549SOL    HW267422   1.041   2.754   4.889
88550SOL     OW67423   2.359  13.608   2.794
88550SOL    HW167424   2.317  13.522   2.789
88550SOL    HW267425   2.302  13.659   2.852
88551SOL     OW67426  11.928   0.316   5.124
88551SOL    HW167427  11.876   0.261   5.066
88551SOL    HW267428  11.883   0.313   5.209
88552SOL     OW67429   5.322   8.857   9.113
88552SOL    HW167430   5.242   8.905   9.134
88552SOL    HW267431   5.304   8.767   9.136
88553SOL     OW67432   8.864   6.885   6.243
88553SOL    HW167433   8.856   6.980   6.247
88553SOL    HW267434   8.861   6.865   6.149
88554SOL     OW67435  13.635  13.927  11.146
88554SOL    HW167436  13.691  13.960  11.076
88554SOL    HW267437  13.560  13.888  11.101
88555SOL     OW67438  13.379  12.670   0.543
88555SOL    HW167439  13.417  12.585   0.566
88555SOL    HW267440  13.313  12.685   0.611
88556SOL     OW67441   5.936   9.248   3.532
88556SOL    HW167442   5.847   9.217   3.519
88556SOL    HW267443   5.964   9.278   3.445
88557SOL     OW67444  12.815   2.140   0.292
88557SOL    HW167445  12.794   2.136   0.385
88557SOL    HW267446  12.853   2.054   0.273
88558SOL     OW67447   9.229   5.141   4.345
88558SOL    HW167448   9.220   5.129   4.439
88558SOL    HW267449   9.205   5.232   4.330
88559SOL     OW67450   7.379  10.717  12.451
88559SOL    HW167451   7.418  10.678  12.373
88559SOL    HW267452   7.434  10.685  12.523
88560SOL     OW67453  10.094   6.651   3.514
88560SOL    HW167454  10.143   6.582   3.469
88560SOL    HW267455  10.097   6.626   3.607
88561SOL     OW67456  12.795  12.804   7.093
88561SOL    HW167457  12.841  12.870   7.146
88561SOL    HW267458  12.825  12.819   7.004
88562SOL     OW67459   5.371   1.845   3.687
88562SOL    HW167460   5.428   1.769   3.678
88562SOL    HW267461   5.318   1.827   3.765
88563SOL     OW67462   0.065   1.488   0.442
88563SOL    HW167463  14.873   1.476   0.507
88563SOL    HW267464   0.136   1.430   0.472
88564SOL     OW67465   1.322  13.520   0.037
88564SOL    HW167466   1.393  13.505   0.099
88564SOL    HW267467   1.364  13.564  14.840
88565SOL     OW67468   9.572  12.193   8.779
88565SOL    HW167469   9.553  12.124   8.843
88565SOL    HW267470   9.645  12.242   8.817
88566SOL     OW67471   3.358  12.366  12.024
88566SOL    HW167472   3.307  12.419  12.086
88566SOL    HW267473   3.344  12.276  12.052
88567SOL     OW67474  13.526   5.070  10.917
88567SOL    HW167475  13.470   5.144  10.939
88567SOL    HW267476  13.611   5.092  10.956
88568SOL     OW67477   1.485   6.324  14.605
88568SOL    HW167478   1.486   6.240  14.650
88568SOL    HW267479   1.427   6.311  14.530
88569SOL     OW67480  11.348   3.986  11.681
88569SOL    HW167481  11.370   4.078  11.671
88569SOL    HW267482  11.426   3.947  11.721
88570SOL     OW67483   0.047   9.432   1.127
88570SOL    HW167484   0.128   9.478   1.102
88570SOL    HW267485  14.877   9.420   1.045
88571SOL     OW67486   2.058   1.251  13.697
88571SOL    HW167487   2.118   1.260  13.623
88571SOL    HW267488   2.041   1.341  13.725
88572SOL     OW67489   0.135   2.787   5.556
88572SOL    HW167490   0.103   2.699   5.539
88572SOL    HW267491   0.203   2.776   5.623
88573SOL     OW67492   0.021   5.693   9.347
88573SOL    HW167493  14.823   5.751   9.337
88573SOL    HW267494   0.079   5.739   9.409
88574SOL     OW67495   3.113  14.179  10.105
88574SOL    HW167496   3.099  14.136  10.021
88574SOL    HW267497   3.026  14.210  10.131
88575SOL     OW67498   8.157   6.694  14.112
88575SOL    HW167499   8.099   6.656  14.177
88575SOL    HW267500   8.137   6.787  14.113
88576SOL     OW67501   1.922  11.427   9.673
88576SOL    HW167502   1.907  11.343   9.629
88576SOL    HW267503   1.880  11.492   9.616
88577SOL     OW67504   9.707   9.999  13.183
88577SOL    HW167505   9.616  10.011  13.155
88577SOL    HW267506   9.745  10.087  13.176
88578SOL     OW67507  14.514  12.118   0.197
88578SOL    HW167508  14.521  12.111   0.292
88578SOL    HW267509  14.457  12.194   0.183
88579SOL     OW67510   9.814   7.790   1.507
88579SOL    HW167511   9.837   7.697   1.498
88579SOL    HW267512   9.831   7.810   1.599
88580SOL     OW67513  14.228   9.153   1.296
88580SOL    HW167514  14.185   9.069   1.283
88580SOL    HW267515  14.274   9.144   1.379
88581SOL     OW67516   9.378   6.994  13.076
88581SOL    HW167517   9.343   7.081  13.053
88581SOL    HW267518   9.439   7.011  13.148
88582SOL     OW67519   7.386   3.919   6.357
88582SOL    HW167520   7.319   3.975   6.397
88582SOL    HW267521   7.412   3.966   6.278
88583SOL     OW67522   8.418   2.581   4.188
88583SOL    HW167523   8.444   2.663   4.231
88583SOL    HW267524   8.494   2.524   4.196
88584SOL     OW67525   6.457  13.082   8.714
88584SOL    HW167526   6.411  12.998   8.709
88584SOL    HW267527   6.539  13.062   8.759
88585SOL     OW67528  12.816   1.691   8.568
88585SOL    HW167529  12.809   1.609   8.617
88585SOL    HW267530  12.730   1.701   8.526
88586SOL     OW67531  10.971   1.416  11.688
88586SOL    HW167532  10.987   1.322  11.685
88586SOL    HW267533  10.876   1.424  11.696
88587SOL     OW67534   9.175  13.451   0.582
88587SOL    HW167535   9.209  13.433   0.669
88587SOL    HW267536   9.212  13.381   0.527
88588SOL     OW67537   3.870   1.721  13.145
88588SOL    HW167538   3.799   1.732  13.083
88588SOL    HW267539   3.832   1.670  13.217
88589SOL     OW67540   6.343   0.588  13.338
88589SOL    HW167541   6.326   0.631  13.254
88589SOL    HW267542   6.264   0.605  13.389
88590SOL     OW67543  11.505   8.291   6.487
88590SOL    HW167544  11.501   8.257   6.577
88590SOL    HW267545  11.424   8.341   6.477
88591SOL     OW67546  13.222   8.002  12.417
88591SOL    HW167547  13.197   7.925  12.366
88591SOL    HW267548  13.170   8.074  12.380
88592SOL     OW67549   4.944   2.353  14.670
88592SOL    HW167550   5.030   2.317  14.646
88592SOL    HW267551   4.963   2.413  14.743
88593SOL     OW67552   3.745  11.651   8.095
88593SOL    HW167553   3.688  11.726   8.082
88593SOL    HW267554   3.822  11.687   8.138
88594SOL     OW67555  12.870  12.009  10.667
88594SOL    HW167556  12.856  11.915  10.657
88594SOL    HW267557  12.962  12.022  10.645
88595SOL     OW67558  14.023   8.386   6.388
88595SOL    HW167559  14.116   8.371   6.372
88595SOL    HW267560  13.996   8.312   6.443
88596SOL     OW67561   3.076  12.606  10.666
88596SOL    HW167562   3.077  12.511  10.655
88596SOL    HW267563   3.166  12.628  10.690
88597SOL     OW67564   2.230  13.413   8.888
88597SOL    HW167565   2.248  13.324   8.856
88597SOL    HW267566   2.206  13.462   8.810
88598SOL     OW67567  13.887  14.121  13.002
88598SOL    HW167568  13.945  14.155  13.070
88598SOL    HW267569  13.867  14.031  13.030
88599SOL     OW67570   3.757  10.952   0.297
88599SOL    HW167571   3.735  10.970   0.206
88599SOL    HW267572   3.784  10.860   0.298
88600SOL     OW67573  11.851   0.539   9.702
88600SOL    HW167574  11.944   0.516   9.695
88600SOL    HW267575  11.805   0.467   9.658
88601SOL     OW67576   1.156   2.229   6.122
88601SOL    HW167577   1.185   2.278   6.199
88601SOL    HW267578   1.099   2.161   6.156
88602SOL     OW67579   5.448  13.085  13.856
88602SOL    HW167580   5.358  13.070  13.886
88602SOL    HW267581   5.445  13.171  13.815
88603SOL     OW67582  11.418  12.678   4.173
88603SOL    HW167583  11.419  12.773   4.174
88603SOL    HW267584  11.439  12.654   4.083
88604SOL     OW67585   6.184  14.438   2.515
88604SOL    HW167586   6.213  14.431   2.424
88604SOL    HW267587   6.264  14.437   2.567
88605SOL     OW67588  13.212   3.560   7.856
88605SOL    HW167589  13.160   3.480   7.850
88605SOL    HW267590  13.281   3.540   7.919
88606SOL     OW67591   0.321   7.737   9.545
88606SOL    HW167592   0.371   7.807   9.502
88606SOL    HW267593   0.269   7.698   9.475
88607SOL     OW67594  12.367   0.481   3.204
88607SOL    HW167595  12.407   0.540   3.268
88607SOL    HW267596  12.273   0.487   3.222
88608SOL     OW67597  14.757   6.228   2.923
88608SOL    HW167598  14.704   6.166   2.872
88608SOL    HW267599  14.729   6.314   2.893
88609SOL     OW67600   2.521   1.093   3.808
88609SOL    HW167601   2.462   1.168   3.809
88609SOL    HW267602   2.466   1.019   3.784
88610SOL     OW67603   9.338   7.551   0.309
88610SOL    HW167604   9.334   7.457   0.291
88610SOL    HW267605   9.273   7.589   0.250
88611SOL     OW67606  12.511   7.566  10.528
88611SOL    HW167607  12.532   7.659  10.538
88611SOL    HW267608  12.447   7.549  10.597
88612SOL     OW67609   3.752   0.711  12.856
88612SOL    HW167610   3.802   0.736  12.778
88612SOL    HW267611   3.811   0.654  12.905
88613SOL     OW67612   6.525   6.011  13.081
88613SOL    HW167613   6.592   6.041  13.019
88613SOL    HW267614   6.453   6.073  13.070
88614SOL     OW67615  12.893  12.463  13.784
88614SOL    HW167616  12.946  12.493  13.857
88614SOL    HW267617  12.843  12.389  13.819
88615SOL     OW67618   2.200   7.064  13.863
88615SOL    HW167619   2.123   7.011  13.880
88615SOL    HW267620   2.177   7.115  13.785
88616SOL     OW67621   3.327  13.485  14.371
88616SOL    HW167622   3.294  13.458  14.285
88616SOL    HW267623   3.400  13.545  14.350
88617SOL     OW67624  12.974  10.964  14.694
88617SOL    HW167625  12.944  10.934  14.608
88617SOL    HW267626  12.934  11.051  14.704
88618SOL     OW67627   0.917  10.232  13.902
88618SOL    HW167628   0.843  10.255  13.959
88618SOL    HW267629   0.878  10.220  13.816
88619SOL     OW67630  11.969  13.895  13.723
88619SOL    HW167631  12.021  13.942  13.788
88619SOL    HW267632  12.029  13.879  13.651
88620SOL     OW67633   7.344   4.859   5.926
88620SOL    HW167634   7.364   4.798   5.854
88620SOL    HW267635   7.249   4.869   5.923
88621SOL     OW67636   3.113   1.548  10.077
88621SOL    HW167637   3.119   1.642  10.096
88621SOL    HW267638   3.191   1.510  10.119
88622SOL     OW67639  11.690  11.343   7.965
88622SOL    HW167640  11.764  11.341   8.027
88622SOL    HW267641  11.679  11.251   7.939
88623SOL     OW67642   2.007   4.590  13.289
88623SOL    HW167643   2.052   4.625  13.367
88623SOL    HW267644   2.029   4.653  13.220
88624SOL     OW67645   6.120   3.261  12.550
88624SOL    HW167646   6.032   3.273  12.516
88624SOL    HW267647   6.107   3.250  12.645
88625SOL     OW67648   1.275   4.710   6.112
88625SOL    HW167649   1.210   4.780   6.117
88625SOL    HW267650   1.353   4.747   6.154
88626SOL     OW67651   0.885   3.459   2.624
88626SOL    HW167652   0.822   3.531   2.626
88626SOL    HW267653   0.930   3.464   2.708
88627SOL     OW67654  14.810   6.266  12.276
88627SOL    HW167655  14.769   6.245  12.192
88627SOL    HW267656  14.781   6.356  12.295
88628SOL     OW67657   0.800   8.069   5.757
88628SOL    HW167658   0.812   8.009   5.683
88628SOL    HW267659   0.825   8.018   5.834
88629SOL     OW67660   1.569   6.760   5.492
88629SOL    HW167661   1.640   6.696   5.492
88629SOL    HW267662   1.590   6.818   5.565
88630SOL     OW67663  14.768  11.879  13.795
88630SOL    HW167664  14.747  11.792  13.760
88630SOL    HW267665  14.811  11.925  13.722
88631SOL     OW67666   2.084   9.782   1.147
88631SOL    HW167667   2.092   9.687   1.140
88631SOL    HW267668   2.149   9.815   1.084
88632SOL     OW67669   4.762  14.062  14.783
88632SOL    HW167670   4.736  14.090  14.695
88632SOL    HW267671   4.683  14.074  14.836
88633SOL     OW67672  13.107   2.789   6.386
88633SOL    HW167673  13.072   2.838   6.311
88633SOL    HW267674  13.029   2.754   6.429
88634SOL     OW67675   5.124   8.761  14.472
88634SOL    HW167676   5.029   8.758  14.473
88634SOL    HW267677   5.146   8.830  14.535
88635SOL     OW67678   6.030   4.353   3.554
88635SOL    HW167679   6.086   4.341   3.631
88635SOL    HW267680   6.044   4.275   3.501
88636SOL     OW67681  13.975   3.874  14.366
88636SOL    HW167682  13.897   3.839  14.409
88636SOL    HW267683  14.034   3.896  14.438
88637SOL     OW67684  11.145  11.290   6.530
88637SOL    HW167685  11.118  11.341   6.453
88637SOL    HW267686  11.112  11.202   6.514
88638SOL     OW67687  12.821   4.165   6.987
88638SOL    HW167688  12.808   4.259   7.004
88638SOL    HW267689  12.858   4.161   6.899
88639SOL     OW67690  14.588  14.834   7.332
88639SOL    HW167691  14.653  14.778   7.289
88639SOL    HW267692  14.586  14.803   7.422
88640SOL     OW67693   9.517   9.634   6.949
88640SOL    HW167694   9.598   9.633   6.898
88640SOL    HW267695   9.531   9.568   7.017
88641SOL     OW67696   3.040   5.734  14.102
88641SOL    HW167697   3.100   5.710  14.031
88641SOL    HW267698   2.969   5.781  14.058
88642SOL     OW67699   9.564   2.892   7.109
88642SOL    HW167700   9.614   2.969   7.081
88642SOL    HW267701   9.624   2.818   7.094
88643SOL     OW67702   7.599   3.407   1.674
88643SOL    HW167703   7.643   3.398   1.759
88643SOL    HW267704   7.516   3.360   1.685
88644SOL     OW67705   3.159   2.477  12.660
88644SOL    HW167706   3.203   2.441  12.738
88644SOL    HW267707   3.124   2.400  12.615
88645SOL     OW67708   1.749   2.222   6.203
88645SOL    HW167709   1.758   2.247   6.111
88645SOL    HW267710   1.821   2.266   6.248
88646SOL     OW67711  13.090   4.451  13.794
88646SOL    HW167712  13.026   4.446  13.724
88646SOL    HW267713  13.170   4.484  13.751
88647SOL     OW67714  13.389  12.342   7.771
88647SOL    HW167715  13.438  12.330   7.852
88647SOL    HW267716  13.439  12.295   7.705
88648SOL     OW67717  13.396   4.930   0.458
88648SOL    HW167718  13.419   4.850   0.505
88648SOL    HW267719  13.304   4.918   0.434
88649SOL     OW67720   5.380  12.584   7.165
88649SOL    HW167721   5.311  12.540   7.116
88649SOL    HW267722   5.374  12.547   7.253
88650SOL     OW67723  11.604   5.988  12.578
88650SOL    HW167724  11.616   5.965  12.486
88650SOL    HW267725  11.555   5.915  12.614
88651SOL     OW67726   0.594   1.776   2.184
88651SOL    HW167727   0.593   1.785   2.089
88651SOL    HW267728   0.601   1.681   2.198
88652SOL     OW67729   0.093  14.103  10.660
88652SOL    HW167730   0.187  14.103  10.639
88652SOL    HW267731   0.088  14.149  10.744
88653SOL     OW67732   7.436  11.956   4.610
88653SOL    HW167733   7.378  11.882   4.594
88653SOL    HW267734   7.377  12.031   4.621
88654SOL     OW67735   7.172  13.132  10.880
88654SOL    HW167736   7.221  13.079  10.817
88654SOL    HW267737   7.239  13.177  10.932
88655SOL     OW67738   6.129  10.738   1.349
88655SOL    HW167739   6.212  10.781   1.330
88655SOL    HW267740   6.063  10.804   1.329
88656SOL     OW67741  12.341   9.891   6.942
88656SOL    HW167742  12.262   9.893   6.996
88656SOL    HW267743  12.377   9.979   6.949
88657SOL     OW67744   2.890   2.801   6.594
88657SOL    HW167745   2.924   2.812   6.683
88657SOL    HW267746   2.855   2.712   6.592
88658SOL     OW67747  10.502   2.374   0.064
88658SOL    HW167748  10.586   2.330   0.047
88658SOL    HW267749  10.520   2.432   0.138
88659SOL     OW67750   3.906   4.601   6.130
88659SOL    HW167751   3.854   4.571   6.056
88659SOL    HW267752   3.903   4.697   6.124
88660SOL     OW67753   1.284   4.662   4.338
88660SOL    HW167754   1.307   4.579   4.297
88660SOL    HW267755   1.363   4.715   4.331
88661SOL     OW67756   6.260   3.469   9.045
88661SOL    HW167757   6.341   3.518   9.052
88661SOL    HW267758   6.191   3.534   9.056
88662SOL     OW67759   6.058  14.648   3.198
88662SOL    HW167760   6.011  14.565   3.193
88662SOL    HW267761   6.045  14.678   3.288
88663SOL     OW67762   7.566   4.014   1.974
88663SOL    HW167763   7.567   4.100   1.933
88663SOL    HW267764   7.599   3.955   1.906
88664SOL     OW67765   3.763   1.005  13.310
88664SOL    HW167766   3.784   0.995  13.217
88664SOL    HW267767   3.804   0.930  13.352
88665SOL     OW67768   5.229   3.503   0.709
88665SOL    HW167769   5.162   3.532   0.770
88665SOL    HW267770   5.221   3.562   0.634
88666SOL     OW67771   9.562   7.602  12.257
88666SOL    HW167772   9.573   7.508  12.275
88666SOL    HW267773   9.555   7.607  12.162
88667SOL     OW67774   2.997  12.997  10.656
88667SOL    HW167775   2.957  13.060  10.716
88667SOL    HW267776   2.928  12.979  10.592
88668SOL     OW67777   8.561  11.016   9.160
88668SOL    HW167778   8.589  11.104   9.136
88668SOL    HW267779   8.639  10.962   9.151
88669SOL     OW67780  10.403   5.427   1.398
88669SOL    HW167781  10.475   5.487   1.380
88669SOL    HW267782  10.445   5.341   1.403
88670SOL     OW67783   3.386   3.308   5.417
88670SOL    HW167784   3.434   3.237   5.459
88670SOL    HW267785   3.430   3.388   5.447
88671SOL     OW67786  10.058   1.555  13.760
88671SOL    HW167787   9.967   1.576  13.783
88671SOL    HW267788  10.077   1.611  13.685
88672SOL     OW67789   8.475   7.329   1.120
88672SOL    HW167790   8.426   7.385   1.060
88672SOL    HW267791   8.480   7.244   1.075
88673SOL     OW67792  12.938   8.547   8.259
88673SOL    HW167793  12.861   8.519   8.308
88673SOL    HW267794  12.936   8.493   8.179
88674SOL     OW67795   1.270   3.750  13.034
88674SOL    HW167796   1.258   3.729  13.127
88674SOL    HW267797   1.327   3.681  13.001
88675SOL     OW67798   5.980   8.050   1.324
88675SOL    HW167799   6.024   7.988   1.265
88675SOL    HW267800   5.945   8.117   1.266
88676SOL     OW67801   6.632   8.152   8.260
88676SOL    HW167802   6.705   8.214   8.251
88676SOL    HW267803   6.566   8.185   8.199
88677SOL     OW67804   2.052   5.077  10.662
88677SOL    HW167805   1.968   5.078  10.618
88677SOL    HW267806   2.077   5.169  10.670
88678SOL     OW67807  11.887   5.703   1.613
88678SOL    HW167808  11.828   5.759   1.562
88678SOL    HW267809  11.883   5.618   1.571
88679SOL     OW67810   2.224   6.208  11.586
88679SOL    HW167811   2.273   6.288  11.567
88679SOL    HW267812   2.284   6.137  11.563
88680SOL     OW67813   3.284  13.263  10.237
88680SOL    HW167814   3.346  13.305  10.297
88680SOL    HW267815   3.259  13.183  10.282
88681SOL     OW67816   1.541   9.976   7.438
88681SOL    HW167817   1.540  10.012   7.527
88681SOL    HW267818   1.527   9.882   7.449
88682SOL     OW67819   5.115   4.716   4.871
88682SOL    HW167820   5.122   4.782   4.802
88682SOL    HW267821   5.030   4.674   4.856
88683SOL     OW67822   9.881   9.180   6.536
88683SOL    HW167823   9.974   9.193   6.553
88683SOL    HW267824   9.876   9.094   6.494
88684SOL     OW67825   9.901   5.520   6.360
88684SOL    HW167826   9.822   5.522   6.305
88684SOL    HW267827   9.868   5.525   6.450
88685SOL     OW67828   0.710   9.025  14.660
88685SOL    HW167829   0.639   8.999  14.718
88685SOL    HW267830   0.776   8.957  14.672
88686SOL     OW67831  12.660   7.678   6.610
88686SOL    HW167832  12.640   7.771   6.623
88686SOL    HW267833  12.683   7.646   6.697
88687SOL     OW67834   1.429   9.214   6.441
88687SOL    HW167835   1.443   9.150   6.370
88687SOL    HW267836   1.417   9.297   6.396
88688SOL     OW67837   1.216  10.408   9.793
88688SOL    HW167838   1.224  10.503   9.794
88688SOL    HW267839   1.303  10.376   9.768
88689SOL     OW67840   9.611   4.103   5.493
88689SOL    HW167841   9.612   4.037   5.562
88689SOL    HW267842   9.666   4.174   5.526
88690SOL     OW67843  14.834   1.515   7.966
88690SOL    HW167844  14.740   1.511   7.947
88690SOL    HW267845  14.861   1.423   7.969
88691SOL     OW67846   0.905  13.321  10.904
88691SOL    HW167847   0.824  13.369  10.925
88691SOL    HW267848   0.963  13.387  10.866
88692SOL     OW67849  10.787   1.282   4.777
88692SOL    HW167850  10.810   1.324   4.694
88692SOL    HW267851  10.775   1.355   4.838
88693SOL     OW67852  10.694  10.347  10.149
88693SOL    HW167853  10.734  10.273  10.102
88693SOL    HW267854  10.644  10.306  10.220
88694SOL     OW67855   8.117  13.715   4.558
88694SOL    HW167856   8.204  13.748   4.536
88694SOL    HW267857   8.132  13.657   4.633
88695SOL     OW67858   5.754   0.315   9.052
88695SOL    HW167859   5.793   0.400   9.034
88695SOL    HW267860   5.666   0.335   9.083
88696SOL     OW67861  10.415   6.964   6.178
88696SOL    HW167862  10.323   6.963   6.153
88696SOL    HW267863  10.442   7.055   6.165
88697SOL     OW67864   8.366   2.786   8.945
88697SOL    HW167865   8.444   2.749   8.903
88697SOL    HW267866   8.313   2.820   8.873
88698SOL     OW67867   0.522   5.297  10.263
88698SOL    HW167868   0.453   5.271  10.324
88698SOL    HW267869   0.579   5.220  10.258
88699SOL     OW67870   9.521   8.400   1.566
88699SOL    HW167871   9.474   8.321   1.542
88699SOL    HW267872   9.536   8.392   1.661
88700SOL     OW67873  11.166   0.496   9.815
88700SOL    HW167874  11.117   0.559   9.867
88700SOL    HW267875  11.160   0.528   9.725
88701SOL     OW67876   8.843   9.570   6.631
88701SOL    HW167877   8.839   9.477   6.654
88701SOL    HW267878   8.927   9.600   6.668
88702SOL     OW67879  11.989  10.549   6.557
88702SOL    HW167880  12.029  10.559   6.643
88702SOL    HW267881  11.965  10.456   6.554
88703SOL     OW67882   3.054  10.581   2.425
88703SOL    HW167883   3.121  10.641   2.456
88703SOL    HW267884   3.077  10.564   2.334
88704SOL     OW67885   0.432   3.125  10.194
88704SOL    HW167886   0.338   3.141  10.187
88704SOL    HW267887   0.463   3.129  10.104
88705SOL     OW67888   9.869  14.089   2.233
88705SOL    HW167889   9.776  14.109   2.223
88705SOL    HW267890   9.883  14.085   2.328
88706SOL     OW67891   8.604  14.532  11.721
88706SOL    HW167892   8.603  14.624  11.747
88706SOL    HW267893   8.552  14.529  11.641
88707SOL     OW67894   1.753  12.993  13.892
88707SOL    HW167895   1.772  13.016  13.801
88707SOL    HW267896   1.718  13.074  13.929
88708SOL     OW67897   9.363   4.899   5.715
88708SOL    HW167898   9.444   4.860   5.750
88708SOL    HW267899   9.346   4.973   5.772
88709SOL     OW67900  11.889  14.230   6.278
88709SOL    HW167901  11.864  14.318   6.250
88709SOL    HW267902  11.821  14.204   6.339
88710SOL     OW67903   0.621   8.334   1.077
88710SOL    HW167904   0.695   8.296   1.030
88710SOL    HW267905   0.645   8.329   1.169
88711SOL     OW67906  11.741   1.422   5.528
88711SOL    HW167907  11.724   1.516   5.516
88711SOL    HW267908  11.807   1.418   5.597
88712SOL     OW67909  13.917  11.737   8.883
88712SOL    HW167910  13.849  11.771   8.825
88712SOL    HW267911  13.870  11.688   8.950
88713SOL     OW67912   9.852   6.849  10.227
88713SOL    HW167913   9.771   6.848  10.177
88713SOL    HW267914   9.921   6.855  10.160
88714SOL     OW67915   2.736   7.410  11.252
88714SOL    HW167916   2.768   7.439  11.337
88714SOL    HW267917   2.804   7.436  11.190
88715SOL     OW67918   7.053  12.442   7.686
88715SOL    HW167919   7.039  12.386   7.610
88715SOL    HW267920   7.129  12.495   7.662
88716SOL     OW67921   8.731  13.780   0.715
88716SOL    HW167922   8.794  13.708   0.714
88716SOL    HW267923   8.645  13.736   0.713
88717SOL     OW67924   8.719   8.607  10.009
88717SOL    HW167925   8.676   8.598  10.094
88717SOL    HW267926   8.801   8.653  10.028
88718SOL     OW67927   7.498   5.606   8.080
88718SOL    HW167928   7.479   5.700   8.084
88718SOL    HW267929   7.589   5.599   8.107
88719SOL     OW67930  11.732  12.234   9.766
88719SOL    HW167931  11.734  12.194   9.678
88719SOL    HW267932  11.727  12.328   9.749
88720SOL     OW67933   0.209  14.501  11.799
88720SOL    HW167934   0.235  14.416  11.765
88720SOL    HW267935   0.215  14.493  11.894
88721SOL     OW67936   0.790   5.426   0.147
88721SOL    HW167937   0.727   5.466   0.207
88721SOL    HW267938   0.826   5.352   0.195
88722SOL     OW67939  10.824  14.196  10.134
88722SOL    HW167940  10.840  14.285  10.102
88722SOL    HW267941  10.733  14.198  10.165
88723SOL     OW67942   6.054  13.574   6.315
88723SOL    HW167943   5.965  13.542   6.299
88723SOL    HW267944   6.111  13.499   6.298
88724SOL     OW67945   8.105  11.072   0.657
88724SOL    HW167946   8.078  11.105   0.743
88724SOL    HW267947   8.067  10.984   0.652
88725SOL     OW67948  11.520   1.703   9.617
88725SOL    HW167949  11.569   1.769   9.667
88725SOL    HW267950  11.518   1.626   9.674
88726SOL     OW67951   6.676  12.910  11.634
88726SOL    HW167952   6.709  12.888  11.547
88726SOL    HW267953   6.677  12.826  11.681
88727SOL     OW67954   8.004   3.151  12.205
88727SOL    HW167955   7.995   3.121  12.115
88727SOL    HW267956   8.095   3.134  12.228
88728SOL     OW67957   1.073  10.485   0.708
88728SOL    HW167958   1.034  10.406   0.744
88728SOL    HW267959   1.162  10.487   0.742
88729SOL     OW67960   5.992   9.172   1.537
88729SOL    HW167961   5.938   9.168   1.616
88729SOL    HW267962   6.074   9.212   1.565
88730SOL     OW67963   1.069   7.525   0.194
88730SOL    HW167964   1.032   7.581   0.126
88730SOL    HW267965   1.001   7.460   0.210
88731SOL     OW67966  13.216   3.318  11.468
88731SOL    HW167967  13.288   3.315  11.531
88731SOL    HW267968  13.236   3.249  11.405
88732SOL     OW67969   8.679   4.597  10.996
88732SOL    HW167970   8.588   4.621  11.014
88732SOL    HW267971   8.724   4.681  10.988
88733SOL     OW67972   4.907   3.140   6.704
88733SOL    HW167973   4.870   3.074   6.645
88733SOL    HW267974   4.997   3.151   6.674
88734SOL     OW67975  14.707  12.592   9.856
88734SOL    HW167976  14.744  12.531   9.921
88734SOL    HW267977  14.749  12.676   9.876
88735SOL     OW67978  12.442   8.009  12.355
88735SOL    HW167979  12.492   7.945  12.405
88735SOL    HW267980  12.385   7.956  12.299
88736SOL     OW67981   4.791   8.078   1.989
88736SOL    HW167982   4.848   8.031   2.049
88736SOL    HW267983   4.827   8.060   1.902
88737SOL     OW67984  14.041   0.426   7.472
88737SOL    HW167985  13.960   0.400   7.516
88737SOL    HW267986  14.034   0.521   7.464
88738SOL     OW67987   9.933   6.944   2.563
88738SOL    HW167988   9.983   6.982   2.490
88738SOL    HW267989   9.914   6.855   2.534
88739SOL     OW67990   4.700   8.438  12.582
88739SOL    HW167991   4.783   8.443  12.536
88739SOL    HW267992   4.704   8.507  12.648
88740SOL     OW67993   1.780   6.780   9.033
88740SOL    HW167994   1.866   6.821   9.041
88740SOL    HW267995   1.786   6.724   8.956
88741SOL     OW67996   2.565   3.152  10.657
88741SOL    HW167997   2.526   3.239  10.669
88741SOL    HW267998   2.612   3.158  10.574
88742SOL     OW67999   8.134   1.275  12.415
88742SOL    HW168000   8.138   1.240  12.326
88742SOL    HW268001   8.150   1.369  12.405
88743SOL     OW68002   0.119   6.510  11.474
88743SOL    HW168003   0.056   6.531  11.406
88743SOL    HW268004   0.127   6.591  11.525
88744SOL     OW68005   4.614  13.619  12.083
88744SOL    HW168006   4.607  13.550  12.149
88744SOL    HW268007   4.600  13.574  12.000
88745SOL     OW68008   4.773   3.468  11.172
88745SOL    HW168009   4.744   3.394  11.226
88745SOL    HW268010   4.700   3.485  11.113
88746SOL     OW68011   1.509   7.502   5.442
88746SOL    HW168012   1.524   7.540   5.529
88746SOL    HW268013   1.416   7.484   5.439
88747SOL     OW68014   5.057  10.279   7.540
88747SOL    HW168015   4.978  10.332   7.548
88747SOL    HW268016   5.053  10.244   7.451
88748SOL     OW68017   2.582   0.176   4.246
88748SOL    HW168018   2.491   0.205   4.236
88748SOL    HW268019   2.635   0.250   4.217
88749SOL     OW68020   4.415   6.318   1.353
88749SOL    HW168021   4.419   6.404   1.311
88749SOL    HW268022   4.480   6.265   1.307
88750SOL     OW68023   9.547   5.628   3.603
88750SOL    HW168024   9.634   5.601   3.632
88750SOL    HW268025   9.491   5.614   3.680
88751SOL     OW68026  10.335   2.187   8.510
88751SOL    HW168027  10.286   2.263   8.543
88751SOL    HW268028  10.351   2.207   8.418
88752SOL     OW68029   7.590  12.484   9.071
88752SOL    HW168030   7.511  12.457   9.024
88752SOL    HW268031   7.559  12.517   9.155
88753SOL     OW68032   9.965   7.704   8.995
88753SOL    HW168033   9.904   7.710   8.922
88753SOL    HW268034   9.988   7.611   8.999
88754SOL     OW68035   2.761   8.588   2.121
88754SOL    HW168036   2.853   8.585   2.098
88754SOL    HW268037   2.716   8.553   2.045
88755SOL     OW68038   3.710   2.600   4.656
88755SOL    HW168039   3.760   2.556   4.586
88755SOL    HW268040   3.691   2.687   4.621
88756SOL     OW68041   6.440  11.651   6.908
88756SOL    HW168042   6.345  11.647   6.923
88756SOL    HW268043   6.479  11.643   6.995
88757SOL     OW68044   3.604  13.694   7.668
88757SOL    HW168045   3.610  13.682   7.573
88757SOL    HW268046   3.510  13.694   7.686
88758SOL     OW68047  13.443  12.992   7.061
88758SOL    HW168048  13.483  13.052   7.124
88758SOL    HW268049  13.369  12.954   7.108
88759SOL     OW68050   5.367   8.987   4.623
88759SOL    HW168051   5.443   9.039   4.646
88759SOL    HW268052   5.292   9.041   4.647
88760SOL     OW68053  14.114   0.677   9.492
88760SOL    HW168054  14.108   0.657   9.399
88760SOL    HW268055  14.085   0.597   9.535
88761SOL     OW68056   7.435   4.545   3.008
88761SOL    HW168057   7.415   4.592   3.089
88761SOL    HW268058   7.445   4.453   3.036
88762SOL     OW68059  12.000  14.244  13.503
88762SOL    HW168060  12.028  14.261  13.413
88762SOL    HW268061  11.905  14.250  13.500
88763SOL     OW68062   0.649   6.018   7.620
88763SOL    HW168063   0.627   6.098   7.572
88763SOL    HW268064   0.738   6.032   7.651
88764SOL     OW68065  13.552   6.868   8.018
88764SOL    HW168066  13.468   6.890   8.057
88764SOL    HW268067  13.564   6.932   7.948
88765SOL     OW68068   9.055   9.027  14.693
88765SOL    HW168069   8.998   9.091  14.650
88765SOL    HW268070   9.108   8.991  14.622
88766SOL     OW68071   4.533   7.744   9.355
88766SOL    HW168072   4.516   7.709   9.268
88766SOL    HW268073   4.529   7.839   9.344
88767SOL     OW68074   1.788  10.555   7.166
88767SOL    HW168075   1.776  10.552   7.071
88767SOL    HW268076   1.735  10.483   7.200
88768SOL     OW68077   9.832   2.874   1.713
88768SOL    HW168078   9.768   2.932   1.754
88768SOL    HW268079   9.788   2.839   1.636
88769SOL     OW68080   0.372   7.498  12.064
88769SOL    HW168081   0.300   7.487  12.126
88769SOL    HW268082   0.329   7.514  11.980
88770SOL     OW68083  12.729  11.572   9.867
88770SOL    HW168084  12.651  11.565   9.922
88770SOL    HW268085  12.710  11.516   9.792
88771SOL     OW68086   5.157   2.770   6.381
88771SOL    HW168087   5.176   2.678   6.397
88771SOL    HW268088   5.100   2.797   6.453
88772SOL     OW68089   7.145   8.089   1.756
88772SOL    HW168090   7.135   8.184   1.763
88772SOL    HW268091   7.223   8.077   1.701
88773SOL     OW68092   0.432   9.473   9.856
88773SOL    HW168093   0.504   9.409   9.852
88773SOL    HW268094   0.462   9.539   9.918
88774SOL     OW68095   1.903  13.511   7.310
88774SOL    HW168096   1.970  13.474   7.253
88774SOL    HW268097   1.853  13.570   7.254
88775SOL     OW68098   2.416   5.180   1.644
88775SOL    HW168099   2.508   5.158   1.655
88775SOL    HW268100   2.370   5.124   1.706
88776SOL     OW68101   2.459   8.533   8.790
88776SOL    HW168102   2.547   8.552   8.759
88776SOL    HW268103   2.401   8.571   8.723
88777SOL     OW68104  10.297  12.567   0.123
88777SOL    HW168105  10.281  12.495   0.185
88777SOL    HW268106  10.345  12.632   0.174
88778SOL     OW68107   1.686  10.536  14.812
88778SOL    HW168108   1.739  10.461  14.787
88778SOL    HW268109   1.710  10.553   0.026
88779SOL     OW68110  13.624   7.583  12.139
88779SOL    HW168111  13.593   7.577  12.049
88779SOL    HW268112  13.635   7.492  12.167
88780SOL     OW68113   8.736  13.945   3.171
88780SOL    HW168114   8.697  14.017   3.222
88780SOL    HW268115   8.790  13.988   3.106
88781SOL     OW68116  12.965   4.828   7.708
88781SOL    HW168117  12.900   4.891   7.677
88781SOL    HW268118  13.028   4.820   7.636
88782SOL     OW68119  13.141   3.036   1.212
88782SOL    HW168120  13.154   2.975   1.139
88782SOL    HW268121  13.046   3.040   1.223
88783SOL     OW68122   7.005   2.048  11.504
88783SOL    HW168123   6.922   2.003  11.518
88783SOL    HW268124   6.984   2.140  11.518
88784SOL     OW68125  12.719  13.510   7.367
88784SOL    HW168126  12.674  13.587   7.399
88784SOL    HW268127  12.676  13.436   7.410
88785SOL     OW68128   1.241   0.070   3.650
88785SOL    HW168129   1.217   0.146   3.596
88785SOL    HW268130   1.254  14.876   3.587
88786SOL     OW68131   2.110   8.281   0.934
88786SOL    HW168132   2.023   8.285   0.974
88786SOL    HW268133   2.164   8.233   0.997
88787SOL     OW68134   5.969  11.360   7.962
88787SOL    HW168135   6.031  11.360   8.035
88787SOL    HW268136   5.889  11.323   8.000
88788SOL     OW68137   8.400   4.714  10.685
88788SOL    HW168138   8.414   4.789  10.744
88788SOL    HW268139   8.424   4.638  10.738
88789SOL     OW68140   8.488   1.422  14.242
88789SOL    HW168141   8.511   1.330  14.252
88789SOL    HW268142   8.558   1.459  14.188
88790SOL     OW68143   4.127  13.151  12.884
88790SOL    HW168144   4.147  13.154  12.978
88790SOL    HW268145   4.043  13.194  12.876
88791SOL     OW68146  14.300   3.725   2.115
88791SOL    HW168147  14.355   3.785   2.065
88791SOL    HW268148  14.319   3.744   2.207
88792SOL     OW68149   9.630   8.091  13.061
88792SOL    HW168150   9.657   8.180  13.083
88792SOL    HW268151   9.546   8.080  13.107
88793SOL     OW68152   4.631   9.748   2.627
88793SOL    HW168153   4.553   9.803   2.626
88793SOL    HW268154   4.606   9.670   2.677
88794SOL     OW68155   9.315   4.059   7.757
88794SOL    HW168156   9.335   4.023   7.670
88794SOL    HW268157   9.393   4.041   7.809
88795SOL     OW68158  11.684  14.446   0.027
88795SOL    HW168159  11.751  14.449   0.095
88795SOL    HW268160  11.623  14.516   0.049
88796SOL     OW68161  13.065   2.161   9.288
88796SOL    HW168162  12.990   2.103   9.276
88796SOL    HW268163  13.140   2.102   9.294
88797SOL     OW68164   3.177   6.334   9.401
88797SOL    HW168165   3.250   6.379   9.443
88797SOL    HW268166   3.203   6.328   9.309
88798SOL     OW68167   9.757   5.705   4.771
88798SOL    HW168168   9.763   5.688   4.865
88798SOL    HW268169   9.788   5.624   4.730
88799SOL     OW68170   7.428   1.709   1.213
88799SOL    HW168171   7.420   1.706   1.309
88799SOL    HW268172   7.338   1.712   1.182
88800SOL     OW68173   3.773   5.122   7.303
88800SOL    HW168174   3.753   5.066   7.228
88800SOL    HW268175   3.751   5.211   7.272
88801SOL     OW68176   4.879   5.668  11.423
88801SOL    HW168177   4.911   5.654  11.334
88801SOL    HW268178   4.850   5.759  11.424
88802SOL     OW68179   1.620   9.415  14.735
88802SOL    HW168180   1.566   9.341  14.765
88802SOL    HW268181   1.692   9.374  14.688
88803SOL     OW68182   1.977  13.023   8.597
88803SOL    HW168183   2.015  12.940   8.625
88803SOL    HW268184   1.968  13.073   8.678
88804SOL     OW68185   2.965   0.967   3.662
88804SOL    HW168186   3.001   0.967   3.574
88804SOL    HW268187   2.885   1.019   3.656
88805SOL     OW68188  12.504   3.834   0.943
88805SOL    HW168189  12.478   3.742   0.953
88805SOL    HW268190  12.498   3.851   0.849
88806SOL     OW68191  10.199  11.372  13.792
88806SOL    HW168192  10.163  11.399  13.707
88806SOL    HW268193  10.134  11.399  13.856
88807SOL     OW68194  12.850   5.761  10.168
88807SOL    HW168195  12.789   5.711  10.114
88807SOL    HW268196  12.928   5.706  10.175
88808SOL     OW68197   8.267   1.952   1.704
88808SOL    HW168198   8.262   2.031   1.759
88808SOL    HW268199   8.310   1.887   1.760
88809SOL     OW68200   2.706   1.780   1.333
88809SOL    HW168201   2.645   1.853   1.321
88809SOL    HW268202   2.793   1.820   1.332
88810SOL     OW68203  12.296   3.805   1.481
88810SOL    HW168204  12.271   3.764   1.398
88810SOL    HW268205  12.328   3.892   1.457
88811SOL     OW68206   4.844  13.057  13.779
88811SOL    HW168207   4.914  13.055  13.715
88811SOL    HW268208   4.887  13.038  13.863
88812SOL     OW68209   3.494   6.531  10.922
88812SOL    HW168210   3.521   6.502  11.009
88812SOL    HW268211   3.573   6.522  10.868
88813SOL     OW68212  11.672   3.391   4.463
88813SOL    HW168213  11.704   3.397   4.373
88813SOL    HW268214  11.578   3.373   4.454
88814SOL     OW68215   0.784   2.996   8.436
88814SOL    HW168216   0.747   2.957   8.515
88814SOL    HW268217   0.711   3.045   8.398
88815SOL     OW68218  14.860  14.616   3.030
88815SOL    HW168219  14.859  14.533   2.984
88815SOL    HW268220  14.774  14.622   3.071
88816SOL     OW68221  11.327   3.076  13.668
88816SOL    HW168222  11.357   3.160  13.703
88816SOL    HW268223  11.351   3.078  13.575
88817SOL     OW68224   0.215   7.167  10.596
88817SOL    HW168225   0.234   7.172  10.502
88817SOL    HW268226   0.170   7.083  10.607
88818SOL     OW68227   2.192   2.040  12.172
88818SOL    HW168228   2.274   2.027  12.124
88818SOL    HW268229   2.220   2.055  12.262
88819SOL     OW68230   9.686   4.043   4.566
88819SOL    HW168231   9.638   4.030   4.648
88819SOL    HW268232   9.623   4.088   4.509
88820SOL     OW68233   8.704   8.728   6.845
88820SOL    HW168234   8.653   8.807   6.824
88820SOL    HW268235   8.792   8.761   6.865
88821SOL     OW68236  11.456   6.470   9.791
88821SOL    HW168237  11.367   6.444   9.816
88821SOL    HW268238  11.511   6.395   9.817
88822SOL     OW68239   1.660   4.925   8.937
88822SOL    HW168240   1.606   4.865   8.990
88822SOL    HW268241   1.624   4.919   8.849
88823SOL     OW68242   8.763  13.854  12.140
88823SOL    HW168243   8.672  13.835  12.115
88823SOL    HW268244   8.765  13.841  12.235
88824SOL     OW68245  10.875  11.104   0.611
88824SOL    HW168246  10.959  11.121   0.654
88824SOL    HW268247  10.867  11.008   0.613
88825SOL     OW68248  10.853  12.634  13.072
88825SOL    HW168249  10.862  12.661  12.980
88825SOL    HW268250  10.943  12.627  13.104
88826SOL     OW68251  11.634   4.590  14.687
88826SOL    HW168252  11.589   4.673  14.700
88826SOL    HW268253  11.720   4.604  14.726
88827SOL     OW68254   4.393   2.423   0.960
88827SOL    HW168255   4.299   2.407   0.967
88827SOL    HW268256   4.430   2.337   0.937
88828SOL     OW68257  14.336  12.694   8.684
88828SOL    HW168258  14.267  12.638   8.720
88828SOL    HW268259  14.417  12.647   8.701
88829SOL     OW68260  10.838   2.720  11.086
88829SOL    HW168261  10.889   2.643  11.060
88829SOL    HW268262  10.826   2.769  11.005
88830SOL     OW68263  11.200   9.630   0.339
88830SOL    HW168264  11.274   9.649   0.281
88830SOL    HW268265  11.138   9.701   0.323
88831SOL     OW68266   5.636  10.473   0.657
88831SOL    HW168267   5.719  10.492   0.615
88831SOL    HW268268   5.591  10.413   0.597
88832SOL     OW68269   8.836   2.240  13.079
88832SOL    HW168270   8.822   2.330  13.109
88832SOL    HW268271   8.930   2.226  13.089
88833SOL     OW68272   4.267   0.076   6.208
88833SOL    HW168273   4.258  14.871   6.255
88833SOL    HW268274   4.332   0.125   6.257
88834SOL     OW68275   4.531  12.450  10.476
88834SOL    HW168276   4.534  12.497  10.560
88834SOL    HW268277   4.465  12.497  10.425
88835SOL     OW68278   7.769  12.395  12.134
88835SOL    HW168279   7.861  12.378  12.155
88835SOL    HW268280   7.765  12.490  12.120
88836SOL     OW68281   4.007   6.899   3.037
88836SOL    HW168282   4.040   6.809   3.036
88836SOL    HW268283   4.050   6.941   2.963
88837SOL     OW68284  10.744   9.552   8.507
88837SOL    HW168285  10.732   9.526   8.415
88837SOL    HW268286  10.811   9.492   8.540
88838SOL     OW68287   8.407   0.832   9.676
88838SOL    HW168288   8.374   0.921   9.688
88838SOL    HW268289   8.455   0.835   9.593
88839SOL     OW68290  12.531  12.916  13.441
88839SOL    HW168291  12.443  12.882  13.426
88839SOL    HW268292  12.587  12.838  13.437
88840SOL     OW68293   1.264   1.240  12.256
88840SOL    HW168294   1.194   1.286  12.303
88840SOL    HW268295   1.242   1.147  12.266
88841SOL     OW68296   3.722   2.056   7.089
88841SOL    HW168297   3.648   2.107   7.059
88841SOL    HW268298   3.751   2.007   7.012
88842SOL     OW68299   4.334   7.229   3.232
88842SOL    HW168300   4.338   7.279   3.150
88842SOL    HW268301   4.398   7.272   3.290
88843SOL     OW68302  12.611  11.624  11.954
88843SOL    HW168303  12.568  11.640  12.038
88843SOL    HW268304  12.652  11.708  11.932
88844SOL     OW68305   3.290   4.177   0.492
88844SOL    HW168306   3.385   4.178   0.480
88844SOL    HW268307   3.257   4.235   0.424
88845SOL     OW68308   0.964  12.133   6.947
88845SOL    HW168309   1.045  12.160   6.990
88845SOL    HW268310   0.901  12.202   6.969
88846SOL     OW68311  12.619   8.423   2.696
88846SOL    HW168312  12.615   8.483   2.622
88846SOL    HW268313  12.702   8.377   2.685
88847SOL     OW68314   6.686  11.555   9.970
88847SOL    HW168315   6.614  11.529  10.028
88847SOL    HW268316   6.691  11.651   9.979
88848SOL     OW68317   7.262  10.645  11.263
88848SOL    HW168318   7.171  10.653  11.291
88848SOL    HW268319   7.258  10.588  11.185
88849SOL     OW68320   6.682   9.306   0.804
88849SOL    HW168321   6.707   9.216   0.825
88849SOL    HW268322   6.629   9.299   0.725
88850SOL     OW68323   6.809  12.434   5.843
88850SOL    HW168324   6.871  12.461   5.775
88850SOL    HW268325   6.836  12.484   5.921
88851SOL     OW68326   7.800   9.500   0.423
88851SOL    HW168327   7.819   9.422   0.475
88851SOL    HW268328   7.727   9.473   0.367
88852SOL     OW68329   6.814   3.924  12.762
88852SOL    HW168330   6.848   4.011  12.743
88852SOL    HW268331   6.801   3.884  12.676
88853SOL     OW68332   8.210   8.506   4.676
88853SOL    HW168333   8.295   8.465   4.661
88853SOL    HW268334   8.231   8.590   4.718
88854SOL     OW68335   3.354   7.822   1.199
88854SOL    HW168336   3.380   7.803   1.289
88854SOL    HW268337   3.437   7.834   1.153
88855SOL     OW68338  10.443  12.877   8.488
88855SOL    HW168339  10.374  12.879   8.555
88855SOL    HW268340  10.463  12.784   8.477
88856SOL     OW68341   4.891   7.046   0.168
88856SOL    HW168342   4.867   6.970   0.222
88856SOL    HW268343   4.816   7.104   0.174
88857SOL     OW68344  12.061  11.359  14.608
88857SOL    HW168345  12.106  11.358  14.693
88857SOL    HW268346  12.038  11.268  14.593
88858SOL     OW68347   1.537   2.219  11.763
88858SOL    HW168348   1.581   2.151  11.711
88858SOL    HW268349   1.558   2.301  11.718
88859SOL     OW68350   2.079  14.836  13.757
88859SOL    HW168351   2.060  14.769  13.692
88859SOL    HW268352   2.096   0.038  13.706
88860SOL     OW68353   0.872  11.855   4.423
88860SOL    HW168354   0.960  11.832   4.393
88860SOL    HW268355   0.867  11.950   4.411
88861SOL     OW68356   7.144  13.113   9.868
88861SOL    HW168357   7.107  13.025   9.862
88861SOL    HW268358   7.085  13.168   9.817
88862SOL     OW68359   4.294  12.291   1.895
88862SOL    HW168360   4.367  12.351   1.883
88862SOL    HW268361   4.222  12.346   1.925
88863SOL     OW68362   0.055  13.328  10.663
88863SOL    HW168363   0.057  13.407  10.609
88863SOL    HW268364   0.144  13.322  10.698
88864SOL     OW68365  13.130  10.080  12.175
88864SOL    HW168366  13.134  10.075  12.080
88864SOL    HW268367  13.221  10.071  12.203
88865SOL     OW68368   1.469   7.503  10.190
88865SOL    HW168369   1.554   7.508  10.232
88865SOL    HW268370   1.473   7.567  10.118
88866SOL     OW68371   7.877   9.328   8.049
88866SOL    HW168372   7.802   9.330   7.991
88866SOL    HW268373   7.938   9.266   8.007
88867SOL     OW68374   4.074   2.621   3.734
88867SOL    HW168375   4.079   2.550   3.669
88867SOL    HW268376   3.992   2.604   3.781
88868SOL     OW68377   8.219   4.904   7.435
88868SOL    HW168378   8.168   4.981   7.460
88868SOL    HW268379   8.233   4.914   7.341
88869SOL     OW68380  11.294   6.275   6.373
88869SOL    HW168381  11.311   6.182   6.386
88869SOL    HW268382  11.301   6.312   6.461
88870SOL     OW68383   9.729  11.767   2.157
88870SOL    HW168384   9.636  11.768   2.178
88870SOL    HW268385   9.750  11.858   2.134
88871SOL     OW68386   9.155   8.962   5.050
88871SOL    HW168387   9.192   8.874   5.050
88871SOL    HW268388   9.225   9.018   5.015
88872SOL     OW68389  13.585   3.853  11.153
88872SOL    HW168390  13.532   3.827  11.228
88872SOL    HW268391  13.541   3.930  11.118
88873SOL     OW68392   9.991   0.869  14.798
88873SOL    HW168393  10.070   0.829  14.764
88873SOL    HW268394   9.922   0.804  14.783
88874SOL     OW68395   8.766  10.339  10.533
88874SOL    HW168396   8.801  10.272  10.474
88874SOL    HW268397   8.733  10.289  10.608
88875SOL     OW68398   4.540   2.777   6.002
88875SOL    HW168399   4.506   2.750   6.088
88875SOL    HW268400   4.484   2.731   5.939
88876SOL     OW68401   9.672  11.576   8.677
88876SOL    HW168402   9.626  11.654   8.647
88876SOL    HW268403   9.706  11.600   8.764
88877SOL     OW68404  11.741   6.361   9.654
88877SOL    HW168405  11.776   6.293   9.711
88877SOL    HW268406  11.665   6.321   9.613
88878SOL     OW68407  10.461   9.611   7.714
88878SOL    HW168408  10.509   9.632   7.633
88878SOL    HW268409  10.500   9.667   7.780
88879SOL     OW68410   3.838   1.183   5.751
88879SOL    HW168411   3.869   1.094   5.765
88879SOL    HW268412   3.787   1.178   5.669
88880SOL     OW68413  13.816   5.351   4.778
88880SOL    HW168414  13.859   5.346   4.693
88880SOL    HW268415  13.800   5.445   4.791
88881SOL     OW68416  13.636   1.335   3.648
88881SOL    HW168417  13.730   1.320   3.642
88881SOL    HW268418  13.622   1.421   3.609
88882SOL     OW68419   5.919   2.392   9.689
88882SOL    HW168420   5.972   2.395   9.610
88882SOL    HW268421   5.981   2.374   9.759
88883SOL     OW68422   4.479   2.420  13.780
88883SOL    HW168423   4.469   2.327  13.761
88883SOL    HW268424   4.560   2.445  13.736
88884SOL     OW68425   6.265   0.944   9.154
88884SOL    HW168426   6.183   0.988   9.133
88884SOL    HW268427   6.239   0.853   9.172
88885SOL     OW68428   5.926  12.694   3.487
88885SOL    HW168429   5.980  12.761   3.528
88885SOL    HW268430   5.889  12.736   3.410
88886SOL     OW68431   4.005   2.946   2.684
88886SOL    HW168432   3.996   2.925   2.777
88886SOL    HW268433   4.050   2.871   2.647
88887SOL     OW68434   9.878   3.429   5.650
88887SOL    HW168435   9.888   3.385   5.565
88887SOL    HW268436   9.915   3.516   5.636
88888SOL     OW68437  11.775   3.921   9.295
88888SOL    HW168438  11.799   3.843   9.245
88888SOL    HW268439  11.752   3.986   9.229
88889SOL     OW68440   7.426   6.606   4.998
88889SOL    HW168441   7.410   6.695   5.028
88889SOL    HW268442   7.503   6.612   4.942
88890SOL     OW68443   5.269   4.198   4.370
88890SOL    HW168444   5.330   4.242   4.429
88890SOL    HW268445   5.298   4.107   4.370
88891SOL     OW68446   9.589  10.630   7.698
88891SOL    HW168447   9.533  10.671   7.633
88891SOL    HW268448   9.573  10.680   7.778
88892SOL     OW68449  14.232   4.106  12.666
88892SOL    HW168450  14.172   4.034  12.684
88892SOL    HW268451  14.318   4.065  12.659
88893SOL     OW68452   9.287   8.024   1.029
88893SOL    HW168453   9.207   8.016   0.977
88893SOL    HW268454   9.358   8.003   0.968
88894SOL     OW68455   4.924  10.151   7.325
88894SOL    HW168456   4.957  10.084   7.264
88894SOL    HW268457   4.854  10.106   7.373
88895SOL     OW68458   3.102   9.654  14.774
88895SOL    HW168459   3.176   9.715  14.780
88895SOL    HW268460   3.041   9.684  14.842
88896SOL     OW68461  13.742   6.940  13.567
88896SOL    HW168462  13.770   6.933  13.475
88896SOL    HW268463  13.655   6.900  13.568
88897SOL     OW68464   4.046  11.343   3.454
88897SOL    HW168465   4.071  11.428   3.418
88897SOL    HW268466   4.130  11.300   3.473
88898SOL     OW68467   5.650   7.412   9.348
88898SOL    HW168468   5.677   7.463   9.425
88898SOL    HW268469   5.592   7.471   9.300
88899SOL     OW68470   9.883  13.389   0.601
88899SOL    HW168471   9.817  13.324   0.624
88899SOL    HW268472   9.869  13.461   0.663
88900SOL     OW68473  10.299   9.728   2.556
88900SOL    HW168474  10.301   9.640   2.592
88900SOL    HW268475  10.367   9.729   2.489
88901SOL     OW68476   9.425   7.016  11.298
88901SOL    HW168477   9.423   7.003  11.203
88901SOL    HW268478   9.334   7.038  11.320
88902SOL     OW68479   4.506  14.713   2.810
88902SOL    HW168480   4.511  14.618   2.805
88902SOL    HW268481   4.440  14.730   2.877
88903SOL     OW68482   1.203   8.353   0.770
88903SOL    HW168483   1.179   8.262   0.755
88903SOL    HW268484   1.292   8.361   0.733
88904SOL     OW68485   8.913  13.091  10.266
88904SOL    HW168486   8.991  13.090  10.322
88904SOL    HW268487   8.918  13.174  10.219
88905SOL     OW68488   7.400  10.368   0.099
88905SOL    HW168489   7.338  10.440   0.084
88905SOL    HW268490   7.472  10.387   0.038
88906SOL     OW68491   6.072   2.119   5.120
88906SOL    HW168492   6.070   2.038   5.069
88906SOL    HW268493   6.072   2.090   5.211
88907SOL     OW68494   3.617  14.628   8.644
88907SOL    HW168495   3.616  14.717   8.679
88907SOL    HW268496   3.596  14.572   8.719
88908SOL     OW68497  12.637   0.218   7.705
88908SOL    HW168498  12.624   0.308   7.674
88908SOL    HW268499  12.663   0.228   7.797
88909SOL     OW68500   4.922   6.613   6.249
88909SOL    HW168501   4.953   6.524   6.234
88909SOL    HW268502   4.997   6.658   6.287
88910SOL     OW68503  13.231   1.330   0.518
88910SOL    HW168504  13.176   1.307   0.443
88910SOL    HW268505  13.251   1.246   0.560
88911SOL     OW68506  12.105  14.067   1.280
88911SOL    HW168507  12.029  14.038   1.330
88911SOL    HW268508  12.115  14.002   1.211
88912SOL     OW68509  13.035   6.816   0.281
88912SOL    HW168510  12.969   6.869   0.237
88912SOL    HW268511  12.986   6.769   0.350
88913SOL     OW68512   7.794   4.331   5.660
88913SOL    HW168513   7.877   4.370   5.689
88913SOL    HW268514   7.761   4.286   5.738
88914SOL     OW68515  13.505  10.344  10.367
88914SOL    HW168516  13.462  10.369  10.285
88914SOL    HW268517  13.541  10.426  10.401
88915SOL     OW68518   1.488   9.616  11.233
88915SOL    HW168519   1.400   9.639  11.265
88915SOL    HW268520   1.482   9.524  11.209
88916SOL     OW68521   3.497  10.835   9.522
88916SOL    HW168522   3.578  10.791   9.548
88916SOL    HW268523   3.522  10.892   9.450
88917SOL     OW68524   8.314  13.981  12.418
88917SOL    HW168525   8.294  14.021  12.503
88917SOL    HW268526   8.407  13.997  12.405
88918SOL     OW68527   9.829   9.597  11.674
88918SOL    HW168528   9.923   9.611  11.663
88918SOL    HW268529   9.805   9.649  11.751
88919SOL     OW68530  11.301   8.080   5.310
88919SOL    HW168531  11.261   7.999   5.278
88919SOL    HW268532  11.227   8.134   5.338
88920SOL     OW68533   4.709  11.308  11.904
88920SOL    HW168534   4.637  11.352  11.949
88920SOL    HW268535   4.694  11.326  11.811
88921SOL     OW68536   3.650   8.445   3.945
88921SOL    HW168537   3.691   8.370   3.989
88921SOL    HW268538   3.656   8.517   4.008
88922SOL     OW68539  11.842   4.022  10.903
88922SOL    HW168540  11.840   3.986  10.991
88922SOL    HW268541  11.929   3.999  10.869
88923SOL     OW68542   8.927   5.795   2.416
88923SOL    HW168543   8.884   5.797   2.502
88923SOL    HW268544   8.866   5.842   2.358
88924SOL     OW68545   0.834  14.452   9.759
88924SOL    HW168546   0.879  14.402   9.827
88924SOL    HW268547   0.838  14.396   9.682
88925SOL     OW68548  11.009   4.537   3.374
88925SOL    HW168549  11.022   4.509   3.465
88925SOL    HW268550  10.993   4.456   3.326
88926SOL     OW68551   5.422   4.040  11.216
88926SOL    HW168552   5.488   4.105  11.241
88926SOL    HW268553   5.391   4.068  11.130
88927SOL     OW68554   7.346   6.531   4.130
88927SOL    HW168555   7.288   6.523   4.054
88927SOL    HW268556   7.290   6.569   4.199
88928SOL     OW68557   9.120  13.427   9.960
88928SOL    HW168558   9.160  13.495   9.906
88928SOL    HW268559   9.190  13.362   9.974
88929SOL     OW68560  14.008   8.426   7.590
88929SOL    HW168561  13.961   8.467   7.517
88929SOL    HW268562  13.995   8.332   7.577
88930SOL     OW68563   8.192   2.338   7.496
88930SOL    HW168564   8.191   2.245   7.517
88930SOL    HW268565   8.251   2.346   7.422
88931SOL     OW68566   2.134  14.236  12.362
88931SOL    HW168567   2.196  14.237  12.435
88931SOL    HW268568   2.064  14.176  12.390
88932SOL     OW68569   6.086   9.257  13.035
88932SOL    HW168570   6.095   9.164  13.017
88932SOL    HW268571   6.175   9.290  13.041
88933SOL     OW68572   6.539   8.119  12.386
88933SOL    HW168573   6.475   8.166  12.334
88933SOL    HW268574   6.557   8.039  12.337
88934SOL     OW68575   9.086   6.284  10.597
88934SOL    HW168576   9.098   6.379  10.587
88934SOL    HW268577   9.066   6.253  10.509
88935SOL     OW68578   3.772   4.611   7.954
88935SOL    HW168579   3.853   4.618   7.902
88935SOL    HW268580   3.745   4.520   7.944
88936SOL     OW68581  13.306   4.841   9.398
88936SOL    HW168582  13.212   4.847   9.381
88936SOL    HW268583  13.339   4.781   9.330
88937SOL     OW68584   3.605  11.784   4.658
88937SOL    HW168585   3.581  11.737   4.578
88937SOL    HW268586   3.554  11.864   4.656
88938SOL     OW68587  10.024   8.330   7.850
88938SOL    HW168588  10.024   8.310   7.943
88938SOL    HW268589   9.976   8.413   7.843
88939SOL     OW68590  10.152  10.518   8.204
88939SOL    HW168591  10.230  10.464   8.196
88939SOL    HW268592  10.080  10.459   8.181
88940SOL     OW68593   6.288  13.775  13.418
88940SOL    HW168594   6.351  13.719  13.372
88940SOL    HW268595   6.207  13.724  13.417
88941SOL     OW68596   1.145   5.792  11.631
88941SOL    HW168597   1.067   5.820  11.584
88941SOL    HW268598   1.168   5.708  11.591
88942SOL     OW68599   6.956   2.415   9.561
88942SOL    HW168600   6.963   2.360   9.639
88942SOL    HW268601   6.988   2.359   9.490
88943SOL     OW68602  10.311   4.819   3.243
88943SOL    HW168603  10.393   4.802   3.290
88943SOL    HW268604  10.327   4.901   3.196
88944SOL     OW68605   0.244  14.438   3.514
88944SOL    HW168606   0.194  14.395   3.444
88944SOL    HW268607   0.335  14.436   3.484
88945SOL     OW68608   2.900   3.970   7.572
88945SOL    HW168609   2.849   3.928   7.642
88945SOL    HW268610   2.974   3.911   7.558
88946SOL     OW68611   7.068   3.591  12.316
88946SOL    HW168612   6.979   3.605  12.282
88946SOL    HW268613   7.067   3.501  12.348
88947SOL     OW68614   0.223   8.621   0.552
88947SOL    HW168615   0.178   8.655   0.475
88947SOL    HW268616   0.309   8.663   0.550
88948SOL     OW68617   1.268  12.853  10.995
88948SOL    HW168618   1.197  12.903  10.956
88948SOL    HW268619   1.224  12.779  11.037
88949SOL     OW68620  12.019  12.730   8.396
88949SOL    HW168621  12.091  12.731   8.459
88949SOL    HW268622  11.944  12.765   8.444
88950SOL     OW68623   4.055  12.687  12.734
88950SOL    HW168624   4.099  12.673  12.650
88950SOL    HW268625   4.050  12.599  12.773
88951SOL     OW68626  11.144  12.228   5.284
88951SOL    HW168627  11.107  12.200   5.200
88951SOL    HW268628  11.123  12.321   5.289
88952SOL     OW68629  14.623  11.378   3.326
88952SOL    HW168630  14.618  11.466   3.290
88952SOL    HW268631  14.533  11.358   3.353
88953SOL     OW68632  10.985   6.365   3.059
88953SOL    HW168633  11.027   6.293   3.013
88953SOL    HW268634  10.951   6.326   3.140
88954SOL     OW68635  13.947  13.120   9.184
88954SOL    HW168636  14.036  13.153   9.201
88954SOL    HW268637  13.904  13.190   9.135
88955SOL     OW68638   5.842   9.506  14.040
88955SOL    HW168639   5.824   9.545  13.954
88955SOL    HW268640   5.758   9.469  14.068
88956SOL     OW68641  12.055   8.423   5.586
88956SOL    HW168642  12.076   8.339   5.546
88956SOL    HW268643  11.972   8.408   5.631
88957SOL     OW68644  12.609   5.612   0.815
88957SOL    HW168645  12.556   5.655   0.748
88957SOL    HW268646  12.694   5.657   0.811
88958SOL     OW68647  12.513   0.132   0.219
88958SOL    HW168648  12.533   0.214   0.174
88958SOL    HW268649  12.590   0.116   0.274
88959SOL     OW68650   6.261  11.094  11.524
88959SOL    HW168651   6.178  11.048  11.535
88959SOL    HW268652   6.278  11.092  11.430
88960SOL     OW68653  11.888  10.983   5.876
88960SOL    HW168654  11.822  10.915   5.863
88960SOL    HW268655  11.970  10.936   5.888
88961SOL     OW68656   8.858   0.294  13.558
88961SOL    HW168657   8.922   0.325  13.495
88961SOL    HW268658   8.909   0.243  13.621
88962SOL     OW68659   5.771   2.383  13.915
88962SOL    HW168660   5.703   2.392  13.981
88962SOL    HW268661   5.725   2.388  13.831
88963SOL     OW68662   3.991   5.494   0.005
88963SOL    HW168663   4.006   5.422   0.066
88963SOL    HW268664   3.952   5.451  14.805
88964SOL     OW68665  13.746   9.896   7.500
88964SOL    HW168666  13.749   9.820   7.558
88964SOL    HW268667  13.693   9.868   7.425
88965SOL     OW68668  10.787   5.556   2.365
88965SOL    HW168669  10.874   5.579   2.333
88965SOL    HW268670  10.746   5.641   2.383
88966SOL     OW68671   8.866   9.171  14.350
88966SOL    HW168672   8.896   9.086  14.318
88966SOL    HW268673   8.797   9.196  14.288
88967SOL     OW68674  12.673   1.263   6.743
88967SOL    HW168675  12.591   1.309   6.728
88967SOL    HW268676  12.730   1.328   6.783
88968SOL     OW68677   0.272  10.831   2.982
88968SOL    HW168678   0.238  10.779   3.055
88968SOL    HW268679   0.269  10.772   2.907
88969SOL     OW68680   9.962   6.217  10.101
88969SOL    HW168681   9.995   6.299  10.065
88969SOL    HW268682   9.999   6.150  10.044
88970SOL     OW68683   8.770   6.944   1.214
88970SOL    HW168684   8.746   6.887   1.287
88970SOL    HW268685   8.864   6.960   1.226
88971SOL     OW68686  12.932   3.776   0.561
88971SOL    HW168687  12.971   3.779   0.474
88971SOL    HW268688  13.004   3.753   0.619
88972SOL     OW68689  12.657   1.842   1.542
88972SOL    HW168690  12.655   1.911   1.608
88972SOL    HW268691  12.595   1.776   1.574
88973SOL     OW68692  10.683  13.880   2.575
88973SOL    HW168693  10.631  13.810   2.537
88973SOL    HW268694  10.666  13.874   2.669
88974SOL     OW68695  12.315  13.348   0.151
88974SOL    HW168696  12.222  13.331   0.162
88974SOL    HW268697  12.328  13.435   0.190
88975SOL     OW68698   2.458  13.744   0.905
88975SOL    HW168699   2.466  13.649   0.911
88975SOL    HW268700   2.500  13.777   0.985
88976SOL     OW68701   9.971  13.608   1.863
88976SOL    HW168702   9.887  13.563   1.854
88976SOL    HW268703  10.035  13.538   1.867
88977SOL     OW68704  12.417   3.113  12.337
88977SOL    HW168705  12.464   3.192  12.364
88977SOL    HW268706  12.363   3.090  12.413
88978SOL     OW68707   7.318   9.049   2.753
88978SOL    HW168708   7.234   9.081   2.786
88978SOL    HW268709   7.313   9.061   2.659
88979SOL     OW68710   1.180   2.712  14.772
88979SOL    HW168711   1.247   2.697  14.839
88979SOL    HW268712   1.097   2.701  14.817
88980SOL     OW68713   5.732   4.564   8.744
88980SOL    HW168714   5.687   4.639   8.782
88980SOL    HW268715   5.801   4.602   8.691
88981SOL     OW68716   9.025  11.866  13.735
88981SOL    HW168717   9.116  11.841  13.719
88981SOL    HW268718   9.014  11.860  13.830
88982SOL     OW68719   3.009   2.602   1.986
88982SOL    HW168720   3.080   2.570   1.932
88982SOL    HW268721   3.045   2.606   2.074
88983SOL     OW68722   1.947   7.712  13.074
88983SOL    HW168723   1.982   7.790  13.117
88983SOL    HW268724   1.873   7.743  13.023
88984SOL     OW68725   3.365  11.153   1.124
88984SOL    HW168726   3.428  11.084   1.102
88984SOL    HW268727   3.294  11.143   1.061
88985SOL     OW68728   6.719   4.529   6.321
88985SOL    HW168729   6.693   4.577   6.399
88985SOL    HW268730   6.744   4.598   6.258
88986SOL     OW68731   8.960   2.949   9.822
88986SOL    HW168732   8.875   2.935   9.782
88986SOL    HW268733   8.992   2.862   9.844
88987SOL     OW68734   3.389   3.047   8.687
88987SOL    HW168735   3.458   3.030   8.751
88987SOL    HW268736   3.318   2.988   8.711
88988SOL     OW68737   1.471   0.359  11.916
88988SOL    HW168738   1.538   0.381  11.851
88988SOL    HW268739   1.447   0.269  11.896
88989SOL     OW68740   2.022  13.504   7.547
88989SOL    HW168741   1.979  13.498   7.461
88989SOL    HW268742   2.103  13.454   7.537
88990SOL     OW68743  11.164  13.073   9.350
88990SOL    HW168744  11.189  13.083   9.442
88990SOL    HW268745  11.104  13.146   9.333
88991SOL     OW68746  12.819  12.509   7.260
88991SOL    HW168747  12.812  12.555   7.176
88991SOL    HW268748  12.897  12.545   7.301
88992SOL     OW68749   5.737   0.057  12.477
88992SOL    HW168750   5.774   0.075  12.391
88992SOL    HW268751   5.710   0.143  12.510
88993SOL     OW68752   8.383  14.514  12.777
88993SOL    HW168753   8.375  14.610  12.776
88993SOL    HW268754   8.438  14.496  12.853
88994SOL     OW68755  13.548   9.272  12.129
88994SOL    HW168756  13.562   9.365  12.110
88994SOL    HW268757  13.580   9.261  12.219
88995SOL     OW68758  10.594   3.911   2.389
88995SOL    HW168759  10.605   3.986   2.330
88995SOL    HW268760  10.633   3.939   2.471
88996SOL     OW68761   0.692   9.490   6.096
88996SOL    HW168762   0.704   9.456   6.184
88996SOL    HW268763   0.772   9.539   6.078
88997SOL     OW68764   1.456   6.905  13.765
88997SOL    HW168765   1.374   6.883  13.809
88997SOL    HW268766   1.442   6.993  13.731
88998SOL     OW68767  13.836   5.896   8.440
88998SOL    HW168768  13.805   5.947   8.515
88998SOL    HW268769  13.807   5.806   8.458
88999SOL     OW68770   1.820   3.180   2.388
88999SOL    HW168771   1.814   3.103   2.444
88999SOL    HW268772   1.907   3.175   2.349
89000SOL     OW68773   8.407  14.713   8.625
89000SOL    HW168774   8.478  14.705   8.561
89000SOL    HW268775   8.380  14.805   8.618
89001SOL     OW68776  11.039   4.208  10.840
89001SOL    HW168777  10.975   4.138  10.823
89001SOL    HW268778  11.007   4.250  10.920
89002SOL     OW68779   3.931  10.837   5.882
89002SOL    HW168780   3.931  10.753   5.838
89002SOL    HW268781   4.019  10.845   5.919
89003SOL     OW68782   7.565  13.342   2.370
89003SOL    HW168783   7.480  13.322   2.330
89003SOL    HW268784   7.627  13.285   2.324
89004SOL     OW68785  11.589  14.417   0.436
89004SOL    HW168786  11.610  14.456   0.521
89004SOL    HW268787  11.674  14.389   0.401
89005SOL     OW68788   1.025   8.639   6.433
89005SOL    HW168789   1.103   8.585   6.451
89005SOL    HW268790   1.019   8.699   6.507
89006SOL     OW68791  10.725   8.018  12.456
89006SOL    HW168792  10.715   8.037  12.549
89006SOL    HW268793  10.675   8.087  12.412
89007SOL     OW68794  10.763   3.024   3.573
89007SOL    HW168795  10.698   3.094   3.566
89007SOL    HW268796  10.712   2.944   3.584
89008SOL     OW68797   6.597  10.595  12.169
89008SOL    HW168798   6.631  10.683  12.150
89008SOL    HW268799   6.675  10.546  12.196
89009SOL     OW68800  11.993   6.897   9.437
89009SOL    HW168801  12.051   6.876   9.511
89009SOL    HW268802  12.049   6.887   9.360
89010SOL     OW68803  14.765   6.207  10.095
89010SOL    HW168804  14.754   6.215  10.190
89010SOL    HW268805  14.734   6.118  10.075
89011SOL     OW68806  10.212   8.105   8.261
89011SOL    HW168807  10.170   8.054   8.192
89011SOL    HW268808  10.252   8.179   8.215
89012SOL     OW68809  11.985   8.515  10.560
89012SOL    HW168810  12.029   8.476  10.485
89012SOL    HW268811  11.898   8.475  10.561
89013SOL     OW68812   9.056   1.652   7.895
89013SOL    HW168813   9.000   1.675   7.821
89013SOL    HW268814   9.018   1.701   7.969
89014SOL     OW68815   8.874   1.430   3.789
89014SOL    HW168816   8.825   1.510   3.808
89014SOL    HW268817   8.905   1.441   3.700
89015SOL     OW68818  13.213   8.564   6.308
89015SOL    HW168819  13.208   8.650   6.350
89015SOL    HW268820  13.129   8.554   6.264
89016SOL     OW68821   1.230  14.148   7.208
89016SOL    HW168822   1.291  14.216   7.236
89016SOL    HW268823   1.146  14.175   7.244
89017SOL     OW68824  13.927   6.454   3.010
89017SOL    HW168825  13.861   6.397   3.049
89017SOL    HW268826  14.010   6.424   3.050
89018SOL     OW68827   5.562   6.892  12.423
89018SOL    HW168828   5.491   6.905  12.486
89018SOL    HW268829   5.556   6.799  12.400
89019SOL     OW68830  13.743   4.306  12.653
89019SOL    HW168831  13.792   4.345  12.581
89019SOL    HW268832  13.661   4.356  12.656
89020SOL     OW68833  12.816   6.830  10.242
89020SOL    HW168834  12.886   6.870  10.192
89020SOL    HW268835  12.801   6.890  10.315
89021SOL     OW68836  12.258   5.918   8.299
89021SOL    HW168837  12.277   5.848   8.362
89021SOL    HW268838  12.191   5.881   8.242
89022SOL     OW68839   2.513   7.449   3.326
89022SOL    HW168840   2.581   7.482   3.386
89022SOL    HW268841   2.546   7.363   3.298
89023SOL     OW68842   2.611  11.566   6.262
89023SOL    HW168843   2.648  11.626   6.328
89023SOL    HW268844   2.662  11.485   6.272
89024SOL     OW68845  14.089   0.425   9.008
89024SOL    HW168846  14.031   0.437   8.933
89024SOL    HW268847  14.059   0.344   9.049
89025SOL     OW68848   2.254  14.462   0.613
89025SOL    HW168849   2.188  14.528   0.636
89025SOL    HW268850   2.223  14.382   0.656
89026SOL     OW68851  14.406  12.683  13.869
89026SOL    HW168852  14.467  12.610  13.862
89026SOL    HW268853  14.406  12.705  13.962
89027SOL     OW68854   3.838   2.588   5.989
89027SOL    HW168855   3.850   2.644   5.913
89027SOL    HW268856   3.823   2.650   6.061
89028SOL     OW68857   1.204   4.106   0.594
89028SOL    HW168858   1.284   4.151   0.620
89028SOL    HW268859   1.209   4.021   0.637
89029SOL     OW68860   8.708   7.043   7.802
89029SOL    HW168861   8.722   7.138   7.801
89029SOL    HW268862   8.621   7.032   7.762
89030SOL     OW68863  14.785   1.989   0.040
89030SOL    HW168864  14.748   1.947   0.117
89030SOL    HW268865  14.837   2.062   0.075
89031SOL     OW68866   6.900   5.631   5.697
89031SOL    HW168867   6.979   5.685   5.699
89031SOL    HW268868   6.924   5.556   5.642
89032SOL     OW68869   9.313   4.737   4.103
89032SOL    HW168870   9.231   4.766   4.143
89032SOL    HW268871   9.354   4.817   4.070
89033SOL     OW68872   8.222  10.723   3.606
89033SOL    HW168873   8.305  10.757   3.570
89033SOL    HW268874   8.236  10.629   3.613
89034SOL     OW68875   0.096   4.298   7.428
89034SOL    HW168876   0.014   4.251   7.442
89034SOL    HW268877   0.101   4.312   7.334
89035SOL     OW68878   9.908   4.929  13.128
89035SOL    HW168879   9.815   4.911  13.114
89035SOL    HW268880   9.912   4.966  13.216
89036SOL     OW68881  10.499   1.288   2.474
89036SOL    HW168882  10.413   1.331   2.472
89036SOL    HW268883  10.539   1.312   2.390
89037SOL     OW68884   6.390   4.449  13.807
89037SOL    HW168885   6.469   4.441  13.754
89037SOL    HW268886   6.344   4.525  13.771
89038SOL     OW68887   6.998   5.471  11.068
89038SOL    HW168888   6.982   5.560  11.100
89038SOL    HW268889   7.031   5.483  10.979
89039SOL     OW68890   7.985  10.465  11.283
89039SOL    HW168891   8.031  10.549  11.295
89039SOL    HW268892   8.038  10.402  11.331
89040SOL     OW68893   3.227   0.734   2.634
89040SOL    HW168894   3.285   0.746   2.709
89040SOL    HW268895   3.185   0.820   2.622
89041SOL     OW68896   2.570   6.974   7.139
89041SOL    HW168897   2.550   6.982   7.045
89041SOL    HW268898   2.619   7.054   7.160
89042SOL     OW68899  11.663  13.961   3.386
89042SOL    HW168900  11.658  13.901   3.460
89042SOL    HW268901  11.702  13.909   3.316
89043SOL     OW68902  14.486   9.697   6.585
89043SOL    HW168903  14.547   9.719   6.655
89043SOL    HW268904  14.405   9.741   6.609
89044SOL     OW68905   0.967   0.503   0.054
89044SOL    HW168906   1.046   0.449   0.064
89044SOL    HW268907   0.931   0.476  14.847
89045SOL     OW68908  14.591  14.163  12.003
89045SOL    HW168909  14.599  14.147  11.909
89045SOL    HW268910  14.500  14.144  12.023
89046SOL     OW68911   0.634  14.559   1.380
89046SOL    HW168912   0.591  14.632   1.336
89046SOL    HW268913   0.583  14.545   1.460
89047SOL     OW68914   1.674  10.688   8.811
89047SOL    HW168915   1.658  10.778   8.836
89047SOL    HW268916   1.683  10.691   8.715
89048SOL     OW68917   8.299  13.711   0.251
89048SOL    HW168918   8.361  13.776   0.284
89048SOL    HW268919   8.307  13.638   0.313
89049SOL     OW68920   6.391  11.430   0.035
89049SOL    HW168921   6.387  11.524   0.054
89049SOL    HW268922   6.473  11.420  14.863
89050SOL     OW68923   6.987  10.723   6.670
89050SOL    HW168924   7.057  10.784   6.690
89050SOL    HW268925   6.907  10.775   6.679
89051SOL     OW68926   8.965   5.054   0.166
89051SOL    HW168927   8.993   4.962   0.165
89051SOL    HW268928   9.043   5.103   0.138
89052SOL     OW68929   6.041   4.492   6.819
89052SOL    HW168930   6.086   4.461   6.897
89052SOL    HW268931   6.100   4.556   6.780
89053SOL     OW68932   9.662   9.502   3.628
89053SOL    HW168933   9.609   9.566   3.582
89053SOL    HW268934   9.603   9.427   3.641
89054SOL     OW68935   3.801   1.944   2.715
89054SOL    HW168936   3.737   1.878   2.685
89054SOL    HW268937   3.782   1.956   2.808
89055SOL     OW68938  14.027   5.027   5.140
89055SOL    HW168939  14.006   5.056   5.052
89055SOL    HW268940  13.951   5.053   5.193
89056SOL     OW68941  13.359   3.433  11.949
89056SOL    HW168942  13.286   3.377  11.976
89056SOL    HW268943  13.338   3.519  11.986
89057SOL     OW68944  13.212  12.182  12.582
89057SOL    HW168945  13.266  12.201  12.658
89057SOL    HW268946  13.123  12.174  12.617
89058SOL     OW68947  10.091   7.070   3.978
89058SOL    HW168948  10.175   7.025   3.970
89058SOL    HW268949  10.062   7.048   4.067
89059SOL     OW68950   1.941   0.841   2.547
89059SOL    HW168951   1.994   0.891   2.609
89059SOL    HW268952   1.897   0.775   2.600
89060SOL     OW68953   3.172   8.061   1.477
89060SOL    HW168954   3.228   8.078   1.401
89060SOL    HW268955   3.112   7.993   1.448
89061SOL     OW68956   6.661   0.982   2.184
89061SOL    HW168957   6.576   0.981   2.229
89061SOL    HW268958   6.671   1.073   2.155
89062SOL     OW68959  12.930   3.649   9.057
89062SOL    HW168960  12.935   3.634   9.151
89062SOL    HW268961  12.936   3.562   9.018
89063SOL     OW68962  12.394   7.170  11.642
89063SOL    HW168963  12.328   7.129  11.697
89063SOL    HW268964  12.425   7.245  11.693
89064SOL     OW68965   4.189   0.780   5.770
89064SOL    HW168966   4.186   0.686   5.788
89064SOL    HW268967   4.280   0.805   5.782
89065SOL     OW68968   3.355   5.680   7.456
89065SOL    HW168969   3.321   5.591   7.447
89065SOL    HW268970   3.316   5.712   7.538
89066SOL     OW68971   0.928  14.743   9.985
89066SOL    HW168972   0.958  14.795  10.059
89066SOL    HW268973   1.007  14.701   9.952
89067SOL     OW68974  11.812   4.382   9.037
89067SOL    HW168975  11.877   4.387   8.967
89067SOL    HW268976  11.734   4.425   9.001
89068SOL     OW68977   3.576   1.127   4.606
89068SOL    HW168978   3.666   1.148   4.582
89068SOL    HW268979   3.583   1.088   4.693
89069SOL     OW68980   0.717   3.317   6.723
89069SOL    HW168981   0.774   3.254   6.768
89069SOL    HW268982   0.629   3.298   6.757
89070SOL     OW68983   0.119   4.160   8.954
89070SOL    HW168984   0.037   4.209   8.961
89070SOL    HW268985   0.132   4.149   8.860
89071SOL     OW68986   5.053  14.307   1.665
89071SOL    HW168987   5.140  14.268   1.659
89071SOL    HW268988   5.028  14.297   1.757
89072SOL     OW68989   8.665   0.115   3.072
89072SOL    HW168990   8.718   0.163   3.135
89072SOL    HW268991   8.699   0.142   2.987
89073SOL     OW68992   7.982   1.946   0.459
89073SOL    HW168993   7.968   1.970   0.367
89073SOL    HW268994   7.903   1.899   0.484
89074SOL     OW68995  13.339   0.552   7.557
89074SOL    HW168996  13.345   0.458   7.573
89074SOL    HW268997  13.426   0.577   7.526
89075SOL     OW68998   5.241   1.881   8.042
89075SOL    HW168999   5.205   1.967   8.021
89075SOL    HW269000   5.334   1.889   8.025
89076SOL     OW69001  12.489   5.953   1.570
89076SOL    HW169002  12.582   5.932   1.577
89076SOL    HW269003  12.464   5.981   1.658
89077SOL     OW69004   3.859   1.511  14.294
89077SOL    HW169005   3.783   1.530  14.239
89077SOL    HW269006   3.891   1.597  14.321
89078SOL     OW69007   1.776   2.939   6.289
89078SOL    HW169008   1.725   2.902   6.217
89078SOL    HW269009   1.770   2.874   6.358
89079SOL     OW69010   2.439  12.202   6.077
89079SOL    HW169011   2.500  12.154   6.133
89079SOL    HW269012   2.464  12.294   6.087
89080SOL     OW69013   3.275  11.206   3.791
89080SOL    HW169014   3.264  11.124   3.839
89080SOL    HW269015   3.279  11.180   3.699
89081SOL     OW69016   2.644  13.504  10.827
89081SOL    HW169017   2.703  13.556  10.881
89081SOL    HW269018   2.581  13.467  10.889
89082SOL     OW69019   4.002   1.104   1.798
89082SOL    HW169020   3.935   1.041   1.774
89082SOL    HW269021   4.016   1.089   1.892
89083SOL     OW69022  13.560   7.519   9.883
89083SOL    HW169023  13.487   7.566   9.922
89083SOL    HW269024  13.523   7.474   9.807
89084SOL     OW69025   5.865   9.593   7.830
89084SOL    HW169026   5.844   9.631   7.745
89084SOL    HW269027   5.954   9.559   7.821
89085SOL     OW69028  11.024  13.956   9.337
89085SOL    HW169029  10.994  13.971   9.427
89085SOL    HW269030  11.082  13.880   9.344
89086SOL     OW69031   2.653   5.181   6.734
89086SOL    HW169032   2.721   5.206   6.797
89086SOL    HW269033   2.573   5.223   6.767
89087SOL     OW69034   0.458  13.889  11.226
89087SOL    HW169035   0.385  13.885  11.288
89087SOL    HW269036   0.535  13.901  11.281
89088SOL     OW69037   9.281  12.530   7.274
89088SOL    HW169038   9.243  12.474   7.341
89088SOL    HW269039   9.316  12.469   7.208
89089SOL     OW69040  12.072   5.735  14.374
89089SOL    HW169041  12.076   5.740  14.278
89089SOL    HW269042  11.989   5.691  14.391
89090SOL     OW69043  12.629   4.720   6.797
89090SOL    HW169044  12.659   4.653   6.736
89090SOL    HW269045  12.549   4.683   6.835
89091SOL     OW69046   5.463   1.181   1.211
89091SOL    HW169047   5.523   1.250   1.184
89091SOL    HW269048   5.378   1.208   1.177
89092SOL     OW69049   9.843  14.585   9.085
89092SOL    HW169050   9.911  14.529   9.124
89092SOL    HW269051   9.857  14.578   8.991
89093SOL     OW69052  14.497  12.297   9.666
89093SOL    HW169053  14.466  12.207   9.665
89093SOL    HW269054  14.460  12.334   9.746
89094SOL     OW69055   9.531   3.823  12.616
89094SOL    HW169056   9.467   3.857  12.554
89094SOL    HW269057   9.488   3.750  12.659
89095SOL     OW69058   0.025   2.185   9.426
89095SOL    HW169059  14.840   2.126   9.384
89095SOL    HW269060   0.084   2.127   9.474
89096SOL     OW69061   8.257  14.026   8.034
89096SOL    HW169062   8.178  13.974   8.021
89096SOL    HW269063   8.321  13.989   7.973
89097SOL     OW69064   7.979  10.389   8.616
89097SOL    HW169065   8.063  10.347   8.635
89097SOL    HW269066   7.937  10.332   8.552
89098SOL     OW69067   0.195   9.490  10.443
89098SOL    HW169068   0.153   9.557  10.498
89098SOL    HW269069   0.224   9.423  10.505
89099SOL     OW69070   0.458  11.215   6.929
89099SOL    HW169071   0.509  11.172   6.997
89099SOL    HW269072   0.489  11.177   6.847
89100SOL     OW69073   2.733   5.849   7.834
89100SOL    HW169074   2.677   5.788   7.881
89100SOL    HW269075   2.821   5.834   7.869
89101SOL     OW69076  11.393  11.071  10.135
89101SOL    HW169077  11.432  10.988  10.161
89101SOL    HW269078  11.303  11.066  10.165
89102SOL     OW69079   0.969   2.518  10.358
89102SOL    HW169080   0.931   2.489  10.275
89102SOL    HW269081   0.959   2.444  10.417
89103SOL     OW69082   5.453  13.500   6.537
89103SOL    HW169083   5.392  13.542   6.476
89103SOL    HW269084   5.538  13.539   6.516
89104SOL     OW69085   8.515  10.261   6.800
89104SOL    HW169086   8.514  10.276   6.895
89104SOL    HW269087   8.504  10.347   6.761
89105SOL     OW69088  11.809   5.462  14.012
89105SOL    HW169089  11.838   5.420  13.931
89105SOL    HW269090  11.883   5.453  14.071
89106SOL     OW69091   4.616   6.742  10.669
89106SOL    HW169092   4.601   6.659  10.622
89106SOL    HW269093   4.587   6.809  10.608
89107SOL     OW69094   1.514   6.009   7.742
89107SOL    HW169095   1.511   5.932   7.798
89107SOL    HW269096   1.516   6.083   7.802
89108SOL     OW69097   8.016   1.201   8.759
89108SOL    HW169098   7.996   1.114   8.791
89108SOL    HW269099   7.931   1.244   8.753
89109SOL     OW69100   3.333  10.093   6.626
89109SOL    HW169101   3.327  10.009   6.671
89109SOL    HW269102   3.361  10.155   6.694
89110SOL     OW69103  14.180  12.837   6.523
89110SOL    HW169104  14.172  12.793   6.607
89110SOL    HW269105  14.137  12.921   6.536
89111SOL     OW69106   8.752  11.282   6.109
89111SOL    HW169107   8.764  11.324   6.024
89111SOL    HW269108   8.668  11.238   6.103
89112SOL     OW69109  10.397   8.133   1.375
89112SOL    HW169110  10.347   8.202   1.420
89112SOL    HW269111  10.350   8.119   1.293
89113SOL     OW69112   9.674   4.354  11.454
89113SOL    HW169113   9.617   4.405  11.512
89113SOL    HW269114   9.619   4.335  11.378
89114SOL     OW69115   4.423  10.879   2.381
89114SOL    HW169116   4.428  10.786   2.359
89114SOL    HW269117   4.514  10.907   2.389
89115SOL     OW69118   9.484   0.555   4.065
89115SOL    HW169119   9.428   0.530   4.138
89115SOL    HW269120   9.430   0.539   3.987
89116SOL     OW69121  13.849  14.560  11.021
89116SOL    HW169122  13.886  14.486  11.069
89116SOL    HW269123  13.925  14.601  10.979
89117SOL     OW69124   7.624   3.167   6.038
89117SOL    HW169125   7.700   3.214   6.070
89117SOL    HW269126   7.610   3.201   5.950
89118SOL     OW69127   7.152   1.952   1.767
89118SOL    HW169128   7.239   1.912   1.778
89118SOL    HW269129   7.166   2.045   1.785
89119SOL     OW69130   1.829   8.655  10.298
89119SOL    HW169131   1.800   8.615  10.380
89119SOL    HW269132   1.907   8.705  10.322
89120SOL     OW69133   7.845   3.947   0.572
89120SOL    HW169134   7.816   3.862   0.539
89120SOL    HW269135   7.765   3.998   0.580
89121SOL     OW69136   7.957   5.572   9.601
89121SOL    HW169137   8.031   5.627   9.577
89121SOL    HW269138   7.939   5.520   9.522
89122SOL     OW69139   8.017   2.213  10.164
89122SOL    HW169140   8.112   2.226  10.166
89122SOL    HW269141   7.989   2.257  10.083
89123SOL     OW69142   5.142  13.172   1.488
89123SOL    HW169143   5.110  13.082   1.481
89123SOL    HW269144   5.151  13.202   1.398
89124SOL     OW69145  13.523   9.963  10.738
89124SOL    HW169146  13.467   9.925  10.805
89124SOL    HW269147  13.469  10.031  10.698
89125SOL     OW69148   9.835   4.040   5.966
89125SOL    HW169149   9.906   4.089   6.005
89125SOL    HW269150   9.818   3.969   6.028
89126SOL     OW69151   1.807  12.061  13.385
89126SOL    HW169152   1.883  12.033  13.436
89126SOL    HW269153   1.808  12.005  13.307
89127SOL     OW69154   4.150   9.796   6.096
89127SOL    HW169155   4.202   9.732   6.145
89127SOL    HW269156   4.188   9.796   6.009
89128SOL     OW69157   6.798  11.378   8.638
89128SOL    HW169158   6.830  11.466   8.615
89128SOL    HW269159   6.798  11.330   8.556
89129SOL     OW69160  14.553   8.272   7.117
89129SOL    HW169161  14.632   8.219   7.124
89129SOL    HW269162  14.503   8.232   7.047
89130SOL     OW69163   6.321   1.426  13.217
89130SOL    HW169164   6.273   1.406  13.297
89130SOL    HW269165   6.258   1.471  13.161
89131SOL     OW69166   0.071   2.634   6.293
89131SOL    HW169167   0.124   2.554   6.298
89131SOL    HW269168  14.875   2.618   6.353
89132SOL     OW69169   4.021   7.040  14.037
89132SOL    HW169170   4.113   7.014  14.046
89132SOL    HW269171   3.977   7.000  14.112
89133SOL     OW69172   9.691   4.725   4.639
89133SOL    HW169173   9.681   4.694   4.729
89133SOL    HW269174   9.762   4.789   4.644
89134SOL     OW69175   7.795  12.040  13.357
89134SOL    HW169176   7.729  12.093  13.402
89134SOL    HW269177   7.846  12.103  13.305
89135SOL     OW69178   5.331   4.511   2.314
89135SOL    HW169179   5.290   4.505   2.228
89135SOL    HW269180   5.374   4.596   2.315
89136SOL     OW69181   9.255   5.695  11.785
89136SOL    HW169182   9.176   5.702  11.731
89136SOL    HW269183   9.288   5.784  11.792
89137SOL     OW69184  14.701  14.830   1.181
89137SOL    HW169185  14.790  14.852   1.209
89137SOL    HW269186  14.645   0.012   1.231
89138SOL     OW69187  11.104   3.195   3.953
89138SOL    HW169188  11.030   3.170   3.897
89138SOL    HW269189  11.138   3.275   3.912
89139SOL     OW69190   6.825   1.490  12.298
89139SOL    HW169191   6.808   1.424  12.230
89139SOL    HW269192   6.744   1.539  12.305
89140SOL     OW69193   6.595  11.923  14.326
89140SOL    HW169194   6.518  11.871  14.350
89140SOL    HW269195   6.591  11.928  14.230
89141SOL     OW69196   2.850  13.065  12.473
89141SOL    HW169197   2.789  13.122  12.520
89141SOL    HW269198   2.927  13.061  12.530
89142SOL     OW69199  14.861  11.023  13.759
89142SOL    HW169200   0.012  10.956  13.697
89142SOL    HW269201  14.766  11.015  13.761
89143SOL     OW69202  13.997   1.918   2.398
89143SOL    HW169203  14.079   1.967   2.394
89143SOL    HW269204  13.943   1.967   2.460
89144SOL     OW69205  10.130  13.065   4.768
89144SOL    HW169206  10.091  12.991   4.722
89144SOL    HW269207  10.222  13.042   4.777
89145SOL     OW69208  13.867   9.463  13.572
89145SOL    HW169209  13.820   9.393  13.525
89145SOL    HW269210  13.840   9.544  13.528
89146SOL     OW69211   3.284   9.797   2.076
89146SOL    HW169212   3.327   9.852   2.141
89146SOL    HW269213   3.201   9.772   2.117
89147SOL     OW69214   8.365  12.496   4.830
89147SOL    HW169215   8.342  12.530   4.916
89147SOL    HW269216   8.290  12.443   4.804
89148SOL     OW69217   3.622   2.258   2.137
89148SOL    HW169218   3.537   2.303   2.136
89148SOL    HW269219   3.686   2.327   2.121
89149SOL     OW69220  11.966   1.303   2.737
89149SOL    HW169221  11.986   1.310   2.644
89149SOL    HW269222  11.884   1.253   2.740
89150SOL     OW69223   9.618   6.476   1.432
89150SOL    HW169224   9.712   6.491   1.431
89150SOL    HW269225   9.600   6.445   1.521
89151SOL     OW69226  12.940   0.354   2.193
89151SOL    HW169227  12.877   0.341   2.122
89151SOL    HW269228  12.953   0.266   2.228
89152SOL     OW69229   0.178   6.350   2.072
89152SOL    HW169230   0.241   6.420   2.056
89152SOL    HW269231   0.204   6.314   2.157
89153SOL     OW69232  13.494   5.636   3.705
89153SOL    HW169233  13.469   5.728   3.715
89153SOL    HW269234  13.492   5.621   3.611
89154SOL     OW69235  10.348  11.666   0.443
89154SOL    HW169236  10.293  11.709   0.509
89154SOL    HW269237  10.402  11.605   0.493
89155SOL     OW69238   0.222   3.569   8.867
89155SOL    HW169239   0.272   3.511   8.808
89155SOL    HW269240   0.131   3.540   8.856
89156SOL     OW69241   1.764  11.294   7.351
89156SOL    HW169242   1.676  11.329   7.333
89156SOL    HW269243   1.777  11.227   7.285
89157SOL     OW69244  11.304   6.219   9.048
89157SOL    HW169245  11.355   6.253   8.975
89157SOL    HW269246  11.350   6.250   9.126
89158SOL     OW69247  12.167  12.457   4.827
89158SOL    HW169248  12.092  12.405   4.799
89158SOL    HW269249  12.233  12.442   4.759
89159SOL     OW69250  10.303   4.644  12.613
89159SOL    HW169251  10.348   4.596  12.682
89159SOL    HW269252  10.374   4.684  12.561
89160SOL     OW69253   1.869   0.685   6.115
89160SOL    HW169254   1.915   0.766   6.093
89160SOL    HW269255   1.864   0.686   6.211
89161SOL     OW69256  12.234   6.964   4.093
89161SOL    HW169257  12.165   7.030   4.079
89161SOL    HW269258  12.299   7.009   4.147
89162SOL     OW69259   0.455  13.201  11.870
89162SOL    HW169260   0.451  13.140  11.797
89162SOL    HW269261   0.363  13.215  11.895
89163SOL     OW69262  10.091   0.140  13.189
89163SOL    HW169263  10.174   0.188  13.184
89163SOL    HW269264  10.077   0.109  13.100
89164SOL     OW69265  12.188  10.119   1.921
89164SOL    HW169266  12.115  10.073   1.961
89164SOL    HW269267  12.220  10.179   1.989
89165SOL     OW69268   9.798  10.970  11.990
89165SOL    HW169269   9.813  11.055  12.032
89165SOL    HW269270   9.823  10.906  12.057
89166SOL     OW69271   4.636   3.847  11.161
89166SOL    HW169272   4.583   3.922  11.188
89166SOL    HW269273   4.591   3.814  11.083
89167SOL     OW69274   8.659  11.086   7.358
89167SOL    HW169275   8.712  11.058   7.433
89167SOL    HW269276   8.705  11.163   7.324
89168SOL     OW69277  12.705  13.020   2.888
89168SOL    HW169278  12.684  13.003   2.796
89168SOL    HW269279  12.631  13.070   2.921
89169SOL     OW69280   6.814   7.961  12.441
89169SOL    HW169281   6.895   7.989  12.484
89169SOL    HW269282   6.754   8.034  12.455
89170SOL     OW69283  10.095   2.293  12.124
89170SOL    HW169284  10.183   2.320  12.149
89170SOL    HW269285  10.098   2.286  12.029
89171SOL     OW69286  12.667   7.177   2.432
89171SOL    HW169287  12.602   7.139   2.372
89171SOL    HW269288  12.689   7.105   2.491
89172SOL     OW69289   4.225   3.501   8.074
89172SOL    HW169290   4.186   3.477   7.990
89172SOL    HW269291   4.184   3.442   8.138
89173SOL     OW69292   7.700   5.742   9.674
89173SOL    HW169293   7.779   5.692   9.652
89173SOL    HW269294   7.628   5.681   9.662
89174SOL     OW69295   1.897  10.179   2.395
89174SOL    HW169296   1.851  10.257   2.365
89174SOL    HW269297   1.989  10.195   2.377
89175SOL     OW69298  14.089   3.116   9.099
89175SOL    HW169299  14.039   3.193   9.071
89175SOL    HW269300  14.165   3.115   9.041
89176SOL     OW69301   6.837   0.126  14.311
89176SOL    HW169302   6.860   0.165  14.395
89176SOL    HW269303   6.916   0.079  14.284
89177SOL     OW69304   7.758   9.408   2.039
89177SOL    HW169305   7.828   9.473   2.025
89177SOL    HW269306   7.797   9.325   2.011
89178SOL     OW69307   6.858   4.569   6.824
89178SOL    HW169308   6.904   4.503   6.773
89178SOL    HW269309   6.866   4.649   6.772
89179SOL     OW69310   5.597   5.075  11.876
89179SOL    HW169311   5.587   5.043  11.965
89179SOL    HW269312   5.513   5.057  11.834
89180SOL     OW69313   7.791  10.543   2.071
89180SOL    HW169314   7.775  10.491   1.992
89180SOL    HW269315   7.745  10.495   2.140
89181SOL     OW69316   7.695   4.869   2.285
89181SOL    HW169317   7.736   4.953   2.262
89181SOL    HW269318   7.679   4.876   2.379
89182SOL     OW69319   5.163   2.707   2.780
89182SOL    HW169320   5.080   2.753   2.774
89182SOL    HW269321   5.172   2.661   2.697
89183SOL     OW69322   0.099  12.733   9.273
89183SOL    HW169323   0.169  12.738   9.207
89183SOL    HW269324   0.094  12.822   9.309
89184SOL     OW69325  13.617  13.542  14.809
89184SOL    HW169326  13.642  13.462  14.855
89184SOL    HW269327  13.658  13.612  14.859
89185SOL     OW69328   0.620   8.945  11.247
89185SOL    HW169329   0.621   8.879  11.316
89185SOL    HW269330   0.537   8.992  11.259
89186SOL     OW69331   9.751   8.409  10.991
89186SOL    HW169332   9.691   8.353  10.943
89186SOL    HW269333   9.824   8.423  10.930
89187SOL     OW69334  14.605   7.450  13.024
89187SOL    HW169335  14.598   7.365  12.980
89187SOL    HW269336  14.649   7.431  13.107
89188SOL     OW69337   0.797   8.876   4.010
89188SOL    HW169338   0.850   8.944   3.969
89188SOL    HW269339   0.826   8.794   3.970
89189SOL     OW69340  10.353   5.060  10.645
89189SOL    HW169341  10.409   5.082  10.571
89189SOL    HW269342  10.333   4.967  10.634
89190SOL     OW69343   7.704   2.467   1.256
89190SOL    HW169344   7.619   2.429   1.236
89190SOL    HW269345   7.720   2.529   1.185
89191SOL     OW69346   0.180   8.937   4.621
89191SOL    HW169347   0.138   9.023   4.632
89191SOL    HW269348   0.246   8.934   4.691
89192SOL     OW69349  12.475   8.497  11.759
89192SOL    HW169350  12.404   8.443  11.792
89192SOL    HW269351  12.497   8.460  11.674
89193SOL     OW69352   3.021   4.304   3.837
89193SOL    HW169353   2.989   4.213   3.834
89193SOL    HW269354   2.945   4.355   3.862
89194SOL     OW69355   9.096   1.526   0.960
89194SOL    HW169356   9.017   1.504   0.912
89194SOL    HW269357   9.144   1.586   0.903
89195SOL     OW69358   0.921   4.006  12.963
89195SOL    HW169359   0.976   3.938  12.924
89195SOL    HW269360   0.920   4.077  12.898
89196SOL     OW69361  13.195   2.266   5.209
89196SOL    HW169362  13.264   2.216   5.165
89196SOL    HW269363  13.133   2.287   5.139
89197SOL     OW69364   3.442  13.988   1.520
89197SOL    HW169365   3.521  13.970   1.571
89197SOL    HW269366   3.425  13.907   1.472
89198SOL     OW69367   9.689   0.194  14.290
89198SOL    HW169368   9.713   0.202  14.382
89198SOL    HW269369   9.687   0.284  14.258
89199SOL     OW69370  14.833   7.639   4.625
89199SOL    HW169371  14.854   7.727   4.656
89199SOL    HW269372  14.792   7.597   4.701
89200SOL     OW69373  12.123  10.972   5.118
89200SOL    HW169374  12.208  11.006   5.092
89200SOL    HW269375  12.140  10.881   5.142
89201SOL     OW69376   5.808   7.744  10.767
89201SOL    HW169377   5.880   7.795  10.731
89201SOL    HW269378   5.740   7.749  10.700
89202SOL     OW69379  10.719  12.510   6.246
89202SOL    HW169380  10.800  12.558   6.232
89202SOL    HW269381  10.657  12.574   6.281
89203SOL     OW69382   6.993   5.885  10.474
89203SOL    HW169383   7.043   5.808  10.500
89203SOL    HW269384   6.917   5.886  10.532
89204SOL     OW69385   4.548  13.221   6.648
89204SOL    HW169386   4.457  13.221   6.619
89204SOL    HW269387   4.577  13.131   6.637
89205SOL     OW69388   9.943   3.451   0.980
89205SOL    HW169389   9.980   3.522   0.928
89205SOL    HW269390   9.995   3.374   0.956
89206SOL     OW69391   3.754  12.748   1.478
89206SOL    HW169392   3.847  12.752   1.501
89206SOL    HW269393   3.753  12.717   1.388
89207SOL     OW69394   6.203  13.014  12.189
89207SOL    HW169395   6.179  13.053  12.105
89207SOL    HW269396   6.236  12.928  12.167
89208SOL     OW69397  12.929   0.497   9.947
89208SOL    HW169398  12.876   0.575   9.931
89208SOL    HW269399  13.004   0.529   9.997
89209SOL     OW69400   2.037  12.887  12.762
89209SOL    HW169401   1.970  12.893  12.694
89209SOL    HW269402   2.112  12.934  12.726
89210SOL     OW69403   9.166   6.062   0.520
89210SOL    HW169404   9.257   6.036   0.505
89210SOL    HW269405   9.167   6.101   0.607
89211SOL     OW69406   6.696  12.731   5.052
89211SOL    HW169407   6.789  12.739   5.032
89211SOL    HW269408   6.659  12.815   5.024
89212SOL     OW69409   1.188  10.200   3.958
89212SOL    HW169410   1.200  10.213   4.052
89212SOL    HW269411   1.276  10.186   3.924
89213SOL     OW69412   3.413   7.376   1.849
89213SOL    HW169413   3.373   7.424   1.777
89213SOL    HW269414   3.477   7.318   1.807
89214SOL     OW69415   9.911   4.147   5.092
89214SOL    HW169416   9.869   4.061   5.092
89214SOL    HW269417   9.953   4.155   5.177
89215SOL     OW69418  11.808  10.953   1.963
89215SOL    HW169419  11.743  11.019   1.939
89215SOL    HW269420  11.855  10.934   1.882
89216SOL     OW69421  10.886  14.020   8.908
89216SOL    HW169422  10.854  13.930   8.908
89216SOL    HW269423  10.971  14.017   8.950
89217SOL     OW69424   5.966   5.958  12.247
89217SOL    HW169425   5.874   5.979  12.264
89217SOL    HW269426   5.965   5.864  12.226
89218SOL     OW69427  12.857  13.963   7.729
89218SOL    HW169428  12.906  13.977   7.810
89218SOL    HW269429  12.794  13.894   7.751
89219SOL     OW69430   8.816   8.706  11.051
89219SOL    HW169431   8.793   8.694  11.143
89219SOL    HW269432   8.866   8.787  11.049
89220SOL     OW69433   3.587   9.283  11.907
89220SOL    HW169434   3.529   9.343  11.954
89220SOL    HW269435   3.674   9.322  11.917
89221SOL     OW69436   8.363   8.599   7.010
89221SOL    HW169437   8.299   8.530   6.998
89221SOL    HW269438   8.444   8.563   6.975
89222SOL     OW69439  10.673   5.473   5.163
89222SOL    HW169440  10.722   5.444   5.086
89222SOL    HW269441  10.732   5.456   5.237
89223SOL     OW69442   0.367   9.471  10.246
89223SOL    HW169443   0.435   9.525  10.286
89223SOL    HW269444   0.289   9.487  10.299
89224SOL     OW69445  10.296   6.215   6.079
89224SOL    HW169446  10.235   6.289   6.081
89224SOL    HW269447  10.270   6.161   6.154
89225SOL     OW69448   0.840   8.412  10.681
89225SOL    HW169449   0.916   8.356  10.699
89225SOL    HW269450   0.765   8.352  10.685
89226SOL     OW69451   0.484   8.145   5.174
89226SOL    HW169452   0.573   8.149   5.210
89226SOL    HW269453   0.495   8.163   5.081
89227SOL     OW69454  12.440  12.013   0.954
89227SOL    HW169455  12.469  11.931   0.912
89227SOL    HW269456  12.443  12.078   0.883
89228SOL     OW69457  10.384  14.137  11.915
89228SOL    HW169458  10.321  14.180  11.858
89228SOL    HW269459  10.439  14.086  11.855
89229SOL     OW69460   0.626   4.862   2.328
89229SOL    HW169461   0.612   4.954   2.351
89229SOL    HW269462   0.558   4.844   2.262
89230SOL     OW69463   3.453  12.270   3.450
89230SOL    HW169464   3.523  12.204   3.447
89230SOL    HW269465   3.499  12.354   3.444
89231SOL     OW69466  10.489  11.442   5.683
89231SOL    HW169467  10.561  11.483   5.732
89231SOL    HW269468  10.528  11.412   5.601
89232SOL     OW69469  13.595   2.073   2.895
89232SOL    HW169470  13.645   2.131   2.952
89232SOL    HW269471  13.642   1.990   2.899
89233SOL     OW69472   8.352   2.932  10.517
89233SOL    HW169473   8.303   2.969  10.444
89233SOL    HW269474   8.436   2.979  10.516
89234SOL     OW69475   3.064  14.453   4.932
89234SOL    HW169476   3.038  14.361   4.940
89234SOL    HW269477   3.055  14.473   4.839
89235SOL     OW69478   0.951   3.806   5.673
89235SOL    HW169479   1.011   3.789   5.600
89235SOL    HW269480   0.925   3.718   5.703
89236SOL     OW69481   5.908   0.522   9.506
89236SOL    HW169482   5.977   0.569   9.460
89236SOL    HW269483   5.953   0.481   9.580
89237SOL     OW69484   3.365   9.301   0.683
89237SOL    HW169485   3.320   9.226   0.645
89237SOL    HW269486   3.357   9.289   0.777
89238SOL     OW69487  14.111  11.125   1.192
89238SOL    HW169488  14.138  11.206   1.236
89238SOL    HW269489  14.134  11.056   1.255
89239SOL     OW69490   1.764   0.474   4.092
89239SOL    HW169491   1.820   0.545   4.061
89239SOL    HW269492   1.711   0.515   4.161
89240SOL     OW69493   3.380   5.188  11.522
89240SOL    HW169494   3.309   5.180  11.586
89240SOL    HW269495   3.451   5.232  11.571
89241SOL     OW69496   4.246  13.132   7.075
89241SOL    HW169497   4.287  13.182   7.146
89241SOL    HW269498   4.290  13.047   7.078
89242SOL     OW69499   3.041  13.177   2.921
89242SOL    HW169500   3.039  13.082   2.931
89242SOL    HW269501   3.119  13.194   2.869
89243SOL     OW69502   4.749   0.044   7.973
89243SOL    HW169503   4.682   0.059   8.040
89243SOL    HW269504   4.816  14.869   8.017
89244SOL     OW69505  13.479   6.455  13.922
89244SOL    HW169506  13.517   6.368  13.929
89244SOL    HW269507  13.533   6.500  13.857
89245SOL     OW69508   6.236   4.059  11.643
89245SOL    HW169509   6.211   4.081  11.553
89245SOL    HW269510   6.312   4.002  11.633
89246SOL     OW69511   7.778   7.006   3.098
89246SOL    HW169512   7.803   6.966   3.015
89246SOL    HW269513   7.834   6.964   3.163
89247SOL     OW69514   9.061  11.442   4.169
89247SOL    HW169515   9.114  11.474   4.096
89247SOL    HW269516   8.973  11.431   4.131
89248SOL     OW69517  11.831   4.470   4.109
89248SOL    HW169518  11.801   4.381   4.126
89248SOL    HW269519  11.755   4.525   4.124
89249SOL     OW69520  10.605  13.939  14.022
89249SOL    HW169521  10.675  13.968  13.964
89249SOL    HW269522  10.645  13.935  14.109
89250SOL     OW69523   7.386  13.060  12.680
89250SOL    HW169524   7.327  13.109  12.736
89250SOL    HW269525   7.463  13.043  12.735
89251SOL     OW69526   5.437   1.932   7.054
89251SOL    HW169527   5.521   1.974   7.073
89251SOL    HW269528   5.418   1.957   6.963
89252SOL     OW69529   6.625  12.831   7.496
89252SOL    HW169530   6.707  12.813   7.542
89252SOL    HW269531   6.603  12.920   7.521
89253SOL     OW69532   1.478   9.215  13.312
89253SOL    HW169533   1.393   9.252  13.289
89253SOL    HW269534   1.465   9.121  13.310
89254SOL     OW69535   2.016  10.436   8.879
89254SOL    HW169536   2.083  10.485   8.927
89254SOL    HW269537   2.055  10.349   8.869
89255SOL     OW69538   8.024  13.955   8.413
89255SOL    HW169539   7.950  13.909   8.453
89255SOL    HW269540   8.074  13.887   8.369
89256SOL     OW69541  14.588   5.727   7.354
89256SOL    HW169542  14.499   5.705   7.381
89256SOL    HW269543  14.639   5.729   7.435
89257SOL     OW69544   1.662  13.610   6.103
89257SOL    HW169545   1.590  13.622   6.041
89257SOL    HW269546   1.710  13.693   6.100
89258SOL     OW69547   0.577   1.690  11.716
89258SOL    HW169548   0.540   1.691  11.804
89258SOL    HW269549   0.671   1.700  11.729
89259SOL     OW69550  11.814  13.779   2.583
89259SOL    HW169551  11.757  13.845   2.623
89259SOL    HW269552  11.759  13.702   2.575
89260SOL     OW69553   2.465   3.392  10.634
89260SOL    HW169554   2.441   3.429  10.549
89260SOL    HW269555   2.425   3.450  10.698
89261SOL     OW69556   9.700   9.617   9.129
89261SOL    HW169557   9.789   9.651   9.116
89261SOL    HW269558   9.709   9.553   9.200
89262SOL     OW69559   7.018  13.953   2.684
89262SOL    HW169560   6.998  13.960   2.777
89262SOL    HW269561   6.968  14.024   2.644
89263SOL     OW69562  10.099   8.520  14.630
89263SOL    HW169563  10.022   8.517  14.687
89263SOL    HW269564  10.139   8.605  14.649
89264SOL     OW69565  10.396   0.138   7.845
89264SOL    HW169566  10.455   0.063   7.854
89264SOL    HW269567  10.452   0.214   7.856
89265SOL     OW69568  11.921  12.283   0.678
89265SOL    HW169569  11.959  12.205   0.718
89265SOL    HW269570  11.945  12.276   0.585
89266SOL     OW69571  10.663   9.460  13.841
89266SOL    HW169572  10.722   9.535  13.838
89266SOL    HW269573  10.576   9.499  13.848
89267SOL     OW69574   5.309  10.000  13.875
89267SOL    HW169575   5.307   9.999  13.971
89267SOL    HW269576   5.387  10.051  13.853
89268SOL     OW69577   4.253   2.993   1.717
89268SOL    HW169578   4.229   2.957   1.631
89268SOL    HW269579   4.349   2.988   1.718
89269SOL     OW69580  13.442   8.348   5.348
89269SOL    HW169581  13.347   8.350   5.332
89269SOL    HW269582  13.451   8.376   5.439
89270SOL     OW69583   8.234  11.303   6.882
89270SOL    HW169584   8.204  11.212   6.884
89270SOL    HW269585   8.328  11.296   6.866
89271SOL     OW69586   7.307   7.633  13.763
89271SOL    HW169587   7.326   7.540  13.750
89271SOL    HW269588   7.330   7.649  13.855
89272SOL     OW69589  10.292   6.937   2.066
89272SOL    HW169590  10.211   6.917   2.020
89272SOL    HW269591  10.285   6.891   2.149
89273SOL     OW69592   6.904  12.927   7.887
89273SOL    HW169593   6.989  12.957   7.918
89273SOL    HW269594   6.893  12.970   7.802
89274SOL     OW69595   8.933   7.174  12.255
89274SOL    HW169596   8.939   7.085  12.219
89274SOL    HW269597   8.870   7.218  12.199
89275SOL     OW69598   1.490   0.882  10.876
89275SOL    HW169599   1.521   0.968  10.846
89275SOL    HW269600   1.551   0.856  10.944
89276SOL     OW69601  10.993  10.569   3.805
89276SOL    HW169602  10.985  10.643   3.865
89276SOL    HW269603  11.081  10.578   3.768
89277SOL     OW69604   3.918   1.950   1.911
89277SOL    HW169605   3.928   2.045   1.900
89277SOL    HW269606   3.893   1.918   1.825
89278SOL     OW69607  10.477   5.346   3.279
89278SOL    HW169608  10.489   5.437   3.308
89278SOL    HW269609  10.462   5.352   3.185
89279SOL     OW69610   6.466   8.374   9.257
89279SOL    HW169611   6.440   8.438   9.192
89279SOL    HW269612   6.542   8.413   9.301
89280SOL     OW69613  12.045   1.987  10.087
89280SOL    HW169614  12.023   1.925  10.018
89280SOL    HW269615  12.120   1.948  10.132
89281SOL     OW69616   7.529  14.177   9.133
89281SOL    HW169617   7.462  14.175   9.201
89281SOL    HW269618   7.546  14.270   9.119
89282SOL     OW69619   3.755   7.303   7.851
89282SOL    HW169620   3.811   7.349   7.788
89282SOL    HW269621   3.697   7.249   7.796
89283SOL     OW69622   3.484  13.681   8.852
89283SOL    HW169623   3.432  13.633   8.787
89283SOL    HW269624   3.419  13.714   8.914
89284SOL     OW69625   2.428   2.309  12.392
89284SOL    HW169626   2.348   2.360  12.381
89284SOL    HW269627   2.410   2.227  12.347
89285SOL     OW69628   9.824   3.623   2.150
89285SOL    HW169629   9.811   3.667   2.234
89285SOL    HW269630   9.749   3.650   2.097
89286SOL     OW69631  13.015   5.711  13.824
89286SOL    HW169632  12.950   5.770  13.861
89286SOL    HW269633  12.964   5.636  13.792
89287SOL     OW69634   4.686   2.006   3.596
89287SOL    HW169635   4.695   1.975   3.505
89287SOL    HW269636   4.686   1.925   3.648
89288SOL     OW69637   8.703   0.236   6.026
89288SOL    HW169638   8.697   0.156   6.079
89288SOL    HW269639   8.796   0.258   6.028
89289SOL     OW69640  13.219   0.546   6.418
89289SOL    HW169641  13.135   0.557   6.373
89289SOL    HW269642  13.284   0.540   6.347
89290SOL     OW69643   3.774   6.017   5.391
89290SOL    HW169644   3.749   6.015   5.483
89290SOL    HW269645   3.697   5.984   5.344
89291SOL     OW69646   0.427   3.504   3.971
89291SOL    HW169647   0.384   3.584   3.941
89291SOL    HW269648   0.505   3.496   3.916
89292SOL     OW69649   7.525  13.860   1.414
89292SOL    HW169650   7.487  13.846   1.501
89292SOL    HW269651   7.449  13.870   1.356
89293SOL     OW69652   2.790   4.037   4.181
89293SOL    HW169653   2.734   4.061   4.106
89293SOL    HW269654   2.836   4.118   4.203
89294SOL     OW69655   4.299   1.149   5.787
89294SOL    HW169656   4.381   1.148   5.737
89294SOL    HW269657   4.322   1.195   5.868
89295SOL     OW69658  14.832   5.173   1.827
89295SOL    HW169659  14.861   5.146   1.740
89295SOL    HW269660  14.770   5.244   1.810
89296SOL     OW69661   0.548  13.756   6.607
89296SOL    HW169662   0.484  13.697   6.647
89296SOL    HW269663   0.606  13.698   6.557
89297SOL     OW69664   4.915   2.842  13.179
89297SOL    HW169665   4.916   2.904  13.106
89297SOL    HW269666   4.838   2.786  13.162
89298SOL     OW69667   8.391   3.978   4.790
89298SOL    HW169668   8.422   3.889   4.803
89298SOL    HW269669   8.339   3.997   4.868
89299SOL     OW69670  12.745   7.028   4.461
89299SOL    HW169671  12.733   7.120   4.438
89299SOL    HW269672  12.687   6.980   4.402
89300SOL     OW69673   3.591   6.147  14.199
89300SOL    HW169674   3.497   6.133  14.200
89300SOL    HW269675   3.611   6.168  14.108
89301SOL     OW69676  10.301   0.447   8.823
89301SOL    HW169677  10.347   0.526   8.851
89301SOL    HW269678  10.342   0.376   8.873
89302SOL     OW69679   7.037  11.701   8.415
89302SOL    HW169680   7.069  11.612   8.405
89302SOL    HW269681   7.036  11.715   8.510
89303SOL     OW69682  13.237  10.319   9.461
89303SOL    HW169683  13.232  10.333   9.366
89303SOL    HW269684  13.317  10.364   9.488
89304SOL     OW69685  11.638  10.213  13.423
89304SOL    HW169686  11.633  10.213  13.327
89304SOL    HW269687  11.563  10.264  13.452
89305SOL     OW69688  12.962   6.339  14.514
89305SOL    HW169689  12.869   6.331  14.535
89305SOL    HW269690  13.006   6.330  14.598
89306SOL     OW69691   0.939   0.380  10.177
89306SOL    HW169692   0.865   0.335  10.136
89306SOL    HW269693   0.904   0.467  10.200
89307SOL     OW69694   9.874   4.622  13.343
89307SOL    HW169695   9.829   4.539  13.357
89307SOL    HW269696   9.810   4.677  13.299
89308SOL     OW69697  10.033   1.969  10.192
89308SOL    HW169698  10.128   1.968  10.204
89308SOL    HW269699  10.017   1.906  10.122
89309SOL     OW69700   4.556   5.014   2.565
89309SOL    HW169701   4.485   5.052   2.617
89309SOL    HW269702   4.586   4.939   2.616
89310SOL     OW69703   4.586   5.664   0.952
89310SOL    HW169704   4.640   5.669   0.873
89310SOL    HW269705   4.500   5.636   0.920
89311SOL     OW69706   2.764  13.242   6.299
89311SOL    HW169707   2.805  13.277   6.378
89311SOL    HW269708   2.768  13.315   6.236
89312SOL     OW69709   5.179   3.173  10.052
89312SOL    HW169710   5.274   3.182  10.051
89312SOL    HW269711   5.158   3.129   9.969
89313SOL     OW69712   8.447   5.265   2.923
89313SOL    HW169713   8.387   5.191   2.930
89313SOL    HW269714   8.407   5.333   2.977
89314SOL     OW69715  10.961   0.098   0.634
89314SOL    HW169716  11.035   0.112   0.575
89314SOL    HW269717  11.001   0.063   0.714
89315SOL     OW69718   1.881   3.550   3.868
89315SOL    HW169719   1.809   3.568   3.808
89315SOL    HW269720   1.935   3.630   3.866
89316SOL     OW69721   4.047  11.593   1.241
89316SOL    HW169722   4.108  11.539   1.191
89316SOL    HW269723   4.098  11.623   1.316
89317SOL     OW69724   9.526  10.051   2.607
89317SOL    HW169725   9.500  10.076   2.518
89317SOL    HW269726   9.605   9.999   2.596
89318SOL     OW69727   7.098   7.161   8.185
89318SOL    HW169728   7.107   7.246   8.142
89318SOL    HW269729   7.059   7.180   8.270
89319SOL     OW69730  10.606  12.505  11.968
89319SOL    HW169731  10.558  12.524  11.887
89319SOL    HW269732  10.696  12.489  11.940
89320SOL     OW69733   7.996  11.570  14.552
89320SOL    HW169734   8.037  11.639  14.606
89320SOL    HW269735   7.916  11.547  14.599
89321SOL     OW69736  13.139   2.852   3.425
89321SOL    HW169737  13.187   2.784   3.472
89321SOL    HW269738  13.047   2.828   3.434
89322SOL     OW69739   7.655  11.236   6.211
89322SOL    HW169740   7.570  11.268   6.181
89322SOL    HW269741   7.642  11.217   6.304
89323SOL     OW69742  13.170   0.642   1.264
89323SOL    HW169743  13.226   0.704   1.217
89323SOL    HW269744  13.141   0.580   1.197
89324SOL     OW69745   5.342   5.487  11.841
89324SOL    HW169746   5.299   5.467  11.758
89324SOL    HW269747   5.433   5.504  11.817
89325SOL     OW69748   8.404  11.767  12.171
89325SOL    HW169749   8.479  11.816  12.206
89325SOL    HW269750   8.406  11.784  12.076
89326SOL     OW69751   1.638  10.427  12.277
89326SOL    HW169752   1.615  10.352  12.221
89326SOL    HW269753   1.660  10.388  12.362
89327SOL     OW69754   4.965   7.723   6.218
89327SOL    HW169755   5.053   7.688   6.202
89327SOL    HW269756   4.973   7.817   6.201
89328SOL     OW69757   9.794   5.997   9.353
89328SOL    HW169758   9.809   6.091   9.353
89328SOL    HW269759   9.710   5.986   9.308
89329SOL     OW69760   2.908   1.800   7.410
89329SOL    HW169761   2.873   1.770   7.493
89329SOL    HW269762   2.987   1.748   7.397
89330SOL     OW69763   0.014   2.726   3.547
89330SOL    HW169764   0.016   2.807   3.495
89330SOL    HW269765  14.826   2.743   3.614
89331SOL     OW69766  12.308   9.053   8.869
89331SOL    HW169767  12.370   8.981   8.881
89331SOL    HW269768  12.341   9.123   8.926
89332SOL     OW69769  10.703  12.091  10.017
89332SOL    HW169770  10.785  12.042  10.009
89332SOL    HW269771  10.718  12.153  10.088
89333SOL     OW69772  14.474   4.879   7.269
89333SOL    HW169773  14.529   4.853   7.343
89333SOL    HW269774  14.535   4.889   7.196
89334SOL     OW69775   1.548  12.381   1.590
89334SOL    HW169776   1.596  12.434   1.526
89334SOL    HW269777   1.474  12.436   1.616
89335SOL     OW69778  11.973   6.106  14.547
89335SOL    HW169779  11.981   6.090  14.453
89335SOL    HW269780  12.020   6.033  14.588
89336SOL     OW69781   5.081   9.540  11.892
89336SOL    HW169782   5.047   9.506  11.809
89336SOL    HW269783   5.163   9.583  11.870
89337SOL     OW69784   7.800   7.252   1.573
89337SOL    HW169785   7.809   7.165   1.613
89337SOL    HW269786   7.777   7.234   1.482
89338SOL     OW69787   7.366  13.800   1.624
89338SOL    HW169788   7.337  13.732   1.684
89338SOL    HW269789   7.336  13.882   1.664
89339SOL     OW69790   3.588   8.878  14.803
89339SOL    HW169791   3.631   8.957  14.835
89339SOL    HW269792   3.611   8.874  14.710
89340SOL     OW69793  10.609   3.891  10.409
89340SOL    HW169794  10.616   3.799  10.434
89340SOL    HW269795  10.574   3.889  10.320
89341SOL     OW69796   3.214   7.384   4.589
89341SOL    HW169797   3.305   7.356   4.579
89341SOL    HW269798   3.194   7.430   4.507
89342SOL     OW69799   0.107   3.487   5.601
89342SOL    HW169800   0.145   3.518   5.518
89342SOL    HW269801   0.122   3.393   5.600
89343SOL     OW69802   3.363   0.566  12.149
89343SOL    HW169803   3.294   0.621  12.186
89343SOL    HW269804   3.384   0.607  12.065
89344SOL     OW69805  10.548   5.516   1.116
89344SOL    HW169806  10.521   5.426   1.134
89344SOL    HW269807  10.619   5.507   1.053
89345SOL     OW69808   8.879  13.126   8.513
89345SOL    HW169809   8.849  13.209   8.551
89345SOL    HW269810   8.822  13.114   8.436
89346SOL     OW69811   0.790   2.420   4.592
89346SOL    HW169812   0.798   2.324   4.596
89346SOL    HW269813   0.703   2.438   4.626
89347SOL     OW69814   1.022  12.029  13.458
89347SOL    HW169815   1.047  11.952  13.509
89347SOL    HW269816   1.100  12.049  13.406
89348SOL     OW69817   4.076   9.700  10.628
89348SOL    HW169818   4.084   9.793  10.608
89348SOL    HW269819   4.041   9.698  10.717
89349SOL     OW69820  11.889  10.960   2.255
89349SOL    HW169821  11.810  10.914   2.227
89349SOL    HW269822  11.961  10.907   2.221
89350SOL     OW69823   3.966  11.756   2.410
89350SOL    HW169824   4.025  11.760   2.334
89350SOL    HW269825   4.022  11.726   2.482
89351SOL     OW69826   3.086  10.405   2.633
89351SOL    HW169827   3.065  10.475   2.572
89351SOL    HW269828   3.042  10.328   2.597
89352SOL     OW69829  10.924   2.027  10.811
89352SOL    HW169830  11.001   1.989  10.853
89352SOL    HW269831  10.958   2.067  10.731
89353SOL     OW69832   7.788   6.954  13.418
89353SOL    HW169833   7.856   6.902  13.461
89353SOL    HW269834   7.828   7.039  13.405
89354SOL     OW69835   2.877   2.361   5.588
89354SOL    HW169836   2.906   2.270   5.595
89354SOL    HW269837   2.933   2.399   5.522
89355SOL     OW69838   9.737  13.768   5.591
89355SOL    HW169839   9.791  13.747   5.667
89355SOL    HW269840   9.691  13.848   5.616
89356SOL     OW69841   4.266   6.714   8.194
89356SOL    HW169842   4.182   6.751   8.165
89356SOL    HW269843   4.319   6.711   8.114
89357SOL     OW69844  13.282   0.854   1.486
89357SOL    HW169845  13.306   0.762   1.475
89357SOL    HW269846  13.198   0.852   1.532
89358SOL     OW69847   7.022   9.023   2.528
89358SOL    HW169848   7.117   9.027   2.518
89358SOL    HW269849   6.990   9.107   2.495
89359SOL     OW69850  14.765   3.181  11.080
89359SOL    HW169851  14.684   3.230  11.065
89359SOL    HW269852  14.834   3.247  11.075
89360SOL     OW69853  14.415   3.937   7.797
89360SOL    HW169854  14.319   3.944   7.799
89360SOL    HW269855  14.434   3.898   7.712
89361SOL     OW69856   4.631  12.708   4.619
89361SOL    HW169857   4.615  12.636   4.558
89361SOL    HW269858   4.702  12.758   4.580
89362SOL     OW69859  11.925   8.182   9.592
89362SOL    HW169860  11.844   8.168   9.643
89362SOL    HW269861  11.995   8.162   9.653
89363SOL     OW69862   8.402  14.352  10.430
89363SOL    HW169863   8.487  14.312  10.411
89363SOL    HW269864   8.394  14.346  10.525
89364SOL     OW69865   6.945   3.128   6.624
89364SOL    HW169866   6.952   3.098   6.534
89364SOL    HW269867   7.012   3.197   6.632
89365SOL     OW69868  10.337  13.120   9.405
89365SOL    HW169869  10.263  13.100   9.347
89365SOL    HW269870  10.371  13.034   9.430
89366SOL     OW69871  10.151   2.906   3.535
89366SOL    HW169872  10.097   2.936   3.609
89366SOL    HW269873  10.090   2.901   3.462
89367SOL     OW69874   3.766   1.247   9.189
89367SOL    HW169875   3.857   1.224   9.204
89367SOL    HW269876   3.756   1.334   9.228
89368SOL     OW69877  13.482   8.234  12.381
89368SOL    HW169878  13.458   8.213  12.471
89368SOL    HW269879  13.415   8.191  12.328
89369SOL     OW69880  10.396   9.646  12.817
89369SOL    HW169881  10.441   9.684  12.742
89369SOL    HW269882  10.420   9.553  12.815
89370SOL     OW69883  13.392  14.326   2.698
89370SOL    HW169884  13.412  14.322   2.605
89370SOL    HW269885  13.389  14.235   2.726
89371SOL     OW69886  12.125   2.559   2.149
89371SOL    HW169887  12.217   2.533   2.163
89371SOL    HW269888  12.077   2.514   2.218
89372SOL     OW69889   6.507  13.247  13.200
89372SOL    HW169890   6.448  13.321  13.187
89372SOL    HW269891   6.481  13.182  13.135
89373SOL     OW69892   3.415   5.796   6.331
89373SOL    HW169893   3.483   5.729   6.337
89373SOL    HW269894   3.463   5.878   6.326
89374SOL     OW69895  13.117   8.198  11.846
89374SOL    HW169896  13.107   8.123  11.904
89374SOL    HW269897  13.147   8.268  11.904
89375SOL     OW69898  14.508   0.868   5.668
89375SOL    HW169899  14.538   0.782   5.639
89375SOL    HW269900  14.548   0.880   5.754
89376SOL     OW69901   0.621   5.388   3.277
89376SOL    HW169902   0.689   5.455   3.266
89376SOL    HW269903   0.563   5.399   3.203
89377SOL     OW69904  12.053   2.767   1.234
89377SOL    HW169905  11.990   2.798   1.299
89377SOL    HW269906  12.092   2.689   1.274
89378SOL     OW69907   9.053   6.108   5.142
89378SOL    HW169908   9.125   6.084   5.085
89378SOL    HW269909   8.987   6.145   5.083
89379SOL     OW69910   1.216   9.417  10.387
89379SOL    HW169911   1.175   9.490  10.434
89379SOL    HW269912   1.306   9.445  10.372
89380SOL     OW69913   4.525   6.402  13.977
89380SOL    HW169914   4.439   6.383  14.014
89380SOL    HW269915   4.506   6.449  13.895
89381SOL     OW69916  12.042   3.911  14.020
89381SOL    HW169917  11.967   3.856  13.999
89381SOL    HW269918  12.009   4.000  14.014
89382SOL     OW69919  13.384  10.778   0.313
89382SOL    HW169920  13.344  10.865   0.312
89382SOL    HW269921  13.312  10.719   0.334
89383SOL     OW69922   4.314   3.058  11.704
89383SOL    HW169923   4.373   3.013  11.644
89383SOL    HW269924   4.237   3.001  11.709
89384SOL     OW69925  10.132   9.593   0.138
89384SOL    HW169926  10.067   9.527   0.113
89384SOL    HW269927  10.208   9.543   0.168
89385SOL     OW69928   3.216   3.769   9.863
89385SOL    HW169929   3.148   3.814   9.913
89385SOL    HW269930   3.241   3.831   9.794
89386SOL     OW69931  12.548   3.916  13.474
89386SOL    HW169932  12.534   3.825  13.447
89386SOL    HW269933  12.641   3.919  13.499
89387SOL     OW69934   5.371   8.516   8.661
89387SOL    HW169935   5.399   8.608   8.669
89387SOL    HW269936   5.306   8.517   8.592
89388SOL     OW69937   5.870  14.348   7.502
89388SOL    HW169938   5.861  14.443   7.510
89388SOL    HW269939   5.788  14.319   7.463
89389SOL     OW69940  11.818   0.162   3.285
89389SOL    HW169941  11.806   0.202   3.199
89389SOL    HW269942  11.738   0.185   3.333
89390SOL     OW69943  13.141   3.357   3.085
89390SOL    HW169944  13.216   3.417   3.090
89390SOL    HW269945  13.178   3.274   3.057
89391SOL     OW69946  14.000  13.891   8.501
89391SOL    HW169947  14.085  13.852   8.522
89391SOL    HW269948  13.948  13.879   8.580
89392SOL     OW69949   9.314   3.992   4.784
89392SOL    HW169950   9.307   3.921   4.721
89392SOL    HW269951   9.228   3.996   4.826
89393SOL     OW69952  10.647   7.386   9.765
89393SOL    HW169953  10.700   7.422   9.694
89393SOL    HW269954  10.634   7.294   9.741
89394SOL     OW69955   5.964   2.050   8.643
89394SOL    HW169956   6.031   2.055   8.711
89394SOL    HW269957   5.889   2.007   8.685
89395SOL     OW69958   5.244   6.449   6.916
89395SOL    HW169959   5.322   6.448   6.972
89395SOL    HW269960   5.271   6.404   6.836
89396SOL     OW69961   6.682   9.994   0.217
89396SOL    HW169962   6.624  10.042   0.158
89396SOL    HW269963   6.629   9.978   0.295
89397SOL     OW69964   1.844   1.446   4.134
89397SOL    HW169965   1.925   1.396   4.128
89397SOL    HW269966   1.871   1.533   4.163
89398SOL     OW69967   5.348   9.151   6.857
89398SOL    HW169968   5.344   9.084   6.925
89398SOL    HW269969   5.408   9.115   6.791
89399SOL     OW69970  10.816   7.187  11.667
89399SOL    HW169971  10.825   7.149  11.579
89399SOL    HW269972  10.748   7.135  11.709
89400SOL     OW69973   9.141   2.105  12.999
89400SOL    HW169974   9.180   2.148  13.075
89400SOL    HW269975   9.131   2.175  12.934
89401SOL     OW69976  11.000  13.181   7.260
89401SOL    HW169977  10.967  13.270   7.245
89401SOL    HW269978  10.934  13.140   7.315
89402SOL     OW69979   7.690   8.481   5.093
89402SOL    HW169980   7.714   8.389   5.106
89402SOL    HW269981   7.772   8.523   5.066
89403SOL     OW69982   9.799   6.332  14.197
89403SOL    HW169983   9.756   6.396  14.141
89403SOL    HW269984   9.728   6.278  14.231
89404SOL     OW69985   1.629  14.235   9.117
89404SOL    HW169986   1.645  14.150   9.075
89404SOL    HW269987   1.559  14.218   9.180
89405SOL     OW69988   6.362   2.809   4.983
89405SOL    HW169989   6.380   2.784   4.892
89405SOL    HW269990   6.267   2.801   4.991
89406SOL     OW69991   2.758   1.423   1.246
89406SOL    HW169992   2.676   1.449   1.290
89406SOL    HW269993   2.825   1.479   1.286
89407SOL     OW69994   6.484  10.520  10.147
89407SOL    HW169995   6.551  10.464  10.107
89407SOL    HW269996   6.429  10.548  10.074
89408SOL     OW69997  12.343   3.989   1.814
89408SOL    HW169998  12.365   4.082   1.816
89408SOL    HW269999  12.273   3.982   1.749
89409SOL     OW70000  12.054   6.718  14.678
89409SOL    HW170001  12.085   6.746  14.764
89409SOL    HW270002  12.130   6.676  14.637
89410SOL     OW70003  12.384  11.574   1.929
89410SOL    HW170004  12.377  11.661   1.888
89410SOL    HW270005  12.391  11.514   1.855
89411SOL     OW70006   9.368   6.994  11.835
89411SOL    HW170007   9.408   7.032  11.912
89411SOL    HW270008   9.415   6.911  11.822
89412SOL     OW70009   3.209  10.038   6.253
89412SOL    HW170010   3.209  10.101   6.180
89412SOL    HW270011   3.301  10.036   6.282
89413SOL     OW70012  14.563   1.965  14.767
89413SOL    HW170013  14.499   1.949  14.836
89413SOL    HW270014  14.646   1.975  14.812
89414SOL     OW70015   9.967   3.435   9.854
89414SOL    HW170016   9.886   3.417   9.806
89414SOL    HW270017   9.939   3.481   9.934
89415SOL     OW70018   0.491   6.772  12.783
89415SOL    HW170019   0.486   6.750  12.876
89415SOL    HW270020   0.477   6.867  12.780
89416SOL     OW70021  12.564   6.355   1.605
89416SOL    HW170022  12.483   6.312   1.634
89416SOL    HW270023  12.578   6.323   1.516
89417SOL     OW70024   1.419  10.408   7.423
89417SOL    HW170025   1.344  10.466   7.436
89417SOL    HW270026   1.464  10.406   7.507
89418SOL     OW70027   2.145   9.486   1.739
89418SOL    HW170028   2.074   9.426   1.714
89418SOL    HW270029   2.113   9.573   1.715
89419SOL     OW70030  10.467   5.702   3.884
89419SOL    HW170031  10.402   5.636   3.860
89419SOL    HW270032  10.467   5.702   3.980
89420SOL     OW70033   7.532   2.906  13.262
89420SOL    HW170034   7.522   2.919  13.167
89420SOL    HW270035   7.545   2.811  13.271
89421SOL     OW70036   0.637  11.003  13.635
89421SOL    HW170037   0.717  10.999  13.583
89421SOL    HW270038   0.596  11.085  13.608
89422SOL     OW70039  10.289  12.507   3.130
89422SOL    HW170040  10.352  12.461   3.075
89422SOL    HW270041  10.327  12.595   3.141
89423SOL     OW70042  13.182   1.184  14.352
89423SOL    HW170043  13.139   1.162  14.270
89423SOL    HW270044  13.235   1.261  14.332
89424SOL     OW70045  13.977  10.971  10.977
89424SOL    HW170046  13.988  10.971  11.072
89424SOL    HW270047  14.066  10.965  10.942
89425SOL     OW70048   1.165   8.377   5.929
89425SOL    HW170049   1.166   8.382   6.025
89425SOL    HW270050   1.155   8.283   5.910
89426SOL     OW70051  14.518  12.302   8.713
89426SOL    HW170052  14.523  12.223   8.768
89426SOL    HW270053  14.597  12.352   8.735
89427SOL     OW70054  10.006   1.024  11.631
89427SOL    HW170055   9.965   1.109  11.612
89427SOL    HW270056  10.068   1.010  11.559
89428SOL     OW70057   7.922   1.523  12.802
89428SOL    HW170058   7.969   1.443  12.780
89428SOL    HW270059   7.851   1.527  12.738
89429SOL     OW70060   2.208   0.498   6.419
89429SOL    HW170061   2.226   0.524   6.329
89429SOL    HW270062   2.214   0.402   6.418
89430SOL     OW70063   5.780  10.326  11.957
89430SOL    HW170064   5.765  10.264  11.886
89430SOL    HW270065   5.726  10.293  12.029
89431SOL     OW70066   0.639  12.877   3.603
89431SOL    HW170067   0.571  12.859   3.538
89431SOL    HW270068   0.679  12.792   3.619
89432SOL     OW70069   2.674   5.066   1.581
89432SOL    HW170070   2.656   5.003   1.651
89432SOL    HW270071   2.767   5.054   1.561
89433SOL     OW70072   5.138   4.568   4.562
89433SOL    HW170073   5.106   4.488   4.604
89433SOL    HW270074   5.064   4.628   4.562
89434SOL     OW70075   7.249   0.701  10.806
89434SOL    HW170076   7.186   0.681  10.737
89434SOL    HW270077   7.224   0.789  10.836
89435SOL     OW70078   1.215  10.899   3.898
89435SOL    HW170079   1.310  10.900   3.887
89435SOL    HW270080   1.196  10.977   3.950
89436SOL     OW70081   7.298   5.000   7.746
89436SOL    HW170082   7.246   5.023   7.823
89436SOL    HW270083   7.329   5.083   7.712
89437SOL     OW70084   8.694   0.824  13.488
89437SOL    HW170085   8.700   0.884  13.562
89437SOL    HW270086   8.612   0.777  13.502
89438SOL     OW70087  13.813   3.679   1.981
89438SOL    HW170088  13.759   3.642   2.051
89438SOL    HW270089  13.774   3.764   1.962
89439SOL     OW70090  10.506   3.044   5.879
89439SOL    HW170091  10.509   2.998   5.795
89439SOL    HW270092  10.468   3.129   5.858
89440SOL     OW70093  11.869   8.493   9.347
89440SOL    HW170094  11.800   8.524   9.289
89440SOL    HW270095  11.921   8.571   9.366
89441SOL     OW70096   5.971   3.550   2.640
89441SOL    HW170097   6.031   3.595   2.580
89441SOL    HW270098   6.010   3.562   2.726
89442SOL     OW70099   7.261   4.493   2.781
89442SOL    HW170100   7.288   4.564   2.723
89442SOL    HW270101   7.311   4.508   2.862
89443SOL     OW70102   0.322   5.552   8.442
89443SOL    HW170103   0.265   5.595   8.377
89443SOL    HW270104   0.411   5.569   8.411
89444SOL     OW70105   9.986   5.545   9.109
89444SOL    HW170106   9.943   5.628   9.133
89444SOL    HW270107  10.080   5.564   9.115
89445SOL     OW70108  13.028  13.977   5.467
89445SOL    HW170109  13.072  13.919   5.405
89445SOL    HW270110  13.059  13.948   5.553
89446SOL     OW70111   7.889   7.051   4.765
89446SOL    HW170112   7.810   7.005   4.794
89446SOL    HW270113   7.902   7.023   4.675
89447SOL     OW70114   4.466   8.504   7.659
89447SOL    HW170115   4.439   8.447   7.587
89447SOL    HW270116   4.485   8.444   7.731
89448SOL     OW70117   9.370  14.227   8.387
89448SOL    HW170118   9.430  14.154   8.401
89448SOL    HW270119   9.421  14.291   8.338
89449SOL     OW70120   6.652   9.985  13.060
89449SOL    HW170121   6.614   9.973  13.147
89449SOL    HW270122   6.706  10.063  13.068
89450SOL     OW70123  11.588   9.685   0.030
89450SOL    HW170124  11.554   9.772   0.007
89450SOL    HW270125  11.511   9.628   0.030
89451SOL     OW70126  13.934  13.490   6.932
89451SOL    HW170127  13.878  13.505   7.008
89451SOL    HW270128  14.022  13.483   6.968
89452SOL     OW70129  10.636   9.657  11.285
89452SOL    HW170130  10.607   9.631  11.373
89452SOL    HW270131  10.664   9.748  11.295
89453SOL     OW70132   4.179   5.142   8.764
89453SOL    HW170133   4.225   5.104   8.839
89453SOL    HW270134   4.088   5.112   8.773
89454SOL     OW70135   6.617   5.019  14.037
89454SOL    HW170136   6.627   5.067  13.954
89454SOL    HW270137   6.677   4.945  14.029
89455SOL     OW70138   4.145  14.299  14.095
89455SOL    HW170139   4.050  14.304  14.086
89455SOL    HW270140   4.159  14.249  14.176
89456SOL     OW70141   1.025   0.193  14.010
89456SOL    HW170142   1.056   0.174  13.921
89456SOL    HW270143   1.090   0.255  14.045
89457SOL     OW70144   9.489   1.236   0.022
89457SOL    HW170145   9.503   1.175  14.827
89457SOL    HW270146   9.497   1.182   0.101
89458SOL     OW70147   0.064   8.576  12.765
89458SOL    HW170148  14.868   8.531  12.807
89458SOL    HW270149   0.050   8.668  12.785
89459SOL     OW70150   6.091   0.568  13.888
89459SOL    HW170151   6.178   0.600  13.911
89459SOL    HW270152   6.107   0.479  13.856
89460SOL     OW70153  12.582   8.559   9.416
89460SOL    HW170154  12.598   8.476   9.460
89460SOL    HW270155  12.656   8.614   9.440
89461SOL     OW70156  12.918   9.738  11.167
89461SOL    HW170157  12.918   9.834  11.162
89461SOL    HW270158  12.848   9.717  11.229
89462SOL     OW70159   7.853  14.524  11.282
89462SOL    HW170160   7.858  14.571  11.366
89462SOL    HW270161   7.815  14.588  11.222
89463SOL     OW70162   0.628   6.535   7.881
89463SOL    HW170163   0.683   6.520   7.958
89463SOL    HW270164   0.603   6.627   7.888
89464SOL     OW70165   6.969  10.624   8.809
89464SOL    HW170166   7.005  10.676   8.881
89464SOL    HW270167   6.972  10.683   8.734
89465SOL     OW70168   5.348  10.568   5.599
89465SOL    HW170169   5.287  10.586   5.671
89465SOL    HW270170   5.435  10.575   5.638
89466SOL     OW70171   9.968  10.227  13.373
89466SOL    HW170172  10.042  10.282  13.348
89466SOL    HW270173  10.006  10.158  13.427
89467SOL     OW70174  14.577   7.061   1.336
89467SOL    HW170175  14.598   7.021   1.421
89467SOL    HW270176  14.505   7.008   1.302
89468SOL     OW70177   9.984  10.589   3.040
89468SOL    HW170178   9.998  10.629   3.126
89468SOL    HW270179  10.020  10.652   2.978
89469SOL     OW70180   6.984   7.321   0.885
89469SOL    HW170181   7.036   7.355   0.959
89469SOL    HW270182   6.905   7.376   0.884
89470SOL     OW70183   6.046   5.793   1.085
89470SOL    HW170184   6.139   5.796   1.061
89470SOL    HW270185   6.000   5.797   1.001
89471SOL     OW70186   4.803   8.268   3.992
89471SOL    HW170187   4.748   8.319   4.052
89471SOL    HW270188   4.789   8.177   4.019
89472SOL     OW70189   5.630   5.400  12.248
89472SOL    HW170190   5.642   5.378  12.340
89472SOL    HW270191   5.707   5.363  12.205
89473SOL     OW70192   3.853   9.293   4.642
89473SOL    HW170193   3.796   9.370   4.644
89473SOL    HW270194   3.908   9.302   4.720
89474SOL     OW70195   3.669   5.128   3.493
89474SOL    HW170196   3.590   5.084   3.524
89474SOL    HW270197   3.636   5.202   3.442
89475SOL     OW70198   7.317   0.231   6.753
89475SOL    HW170199   7.357   0.214   6.668
89475SOL    HW270200   7.344   0.320   6.775
89476SOL     OW70201  12.825   6.952   1.399
89476SOL    HW170202  12.879   7.021   1.437
89476SOL    HW270203  12.872   6.925   1.320
89477SOL     OW70204   2.280   8.474   0.571
89477SOL    HW170205   2.359   8.526   0.582
89477SOL    HW270206   2.305   8.405   0.509
89478SOL     OW70207  11.650   6.594   3.295
89478SOL    HW170208  11.703   6.618   3.219
89478SOL    HW270209  11.585   6.665   3.301
89479SOL     OW70210   9.741  10.344   9.773
89479SOL    HW170211   9.656  10.352   9.730
89479SOL    HW270212   9.768  10.434   9.791
89480SOL     OW70213  14.851   3.764  13.962
89480SOL    HW170214  14.758   3.748  13.947
89480SOL    HW270215   0.009   3.679  13.986
89481SOL     OW70216   4.058  14.846  14.103
89481SOL    HW170217   4.002  14.805  14.038
89481SOL    HW270218   4.135  14.875  14.054
89482SOL     OW70219   6.635   2.809  10.503
89482SOL    HW170220   6.585   2.818  10.422
89482SOL    HW270221   6.667   2.897  10.521
89483SOL     OW70222   7.096   5.906   1.420
89483SOL    HW170223   7.051   5.963   1.358
89483SOL    HW270224   7.114   5.962   1.496
89484SOL     OW70225   0.236   4.668   4.297
89484SOL    HW170226   0.302   4.712   4.351
89484SOL    HW270227   0.268   4.578   4.288
89485SOL     OW70228   4.922   7.911   2.181
89485SOL    HW170229   4.995   7.854   2.203
89485SOL    HW270230   4.915   7.971   2.256
89486SOL     OW70231  11.654   9.809   6.987
89486SOL    HW170232  11.589   9.870   7.020
89486SOL    HW270233  11.643   9.731   7.042
89487SOL     OW70234   6.952   8.876   9.502
89487SOL    HW170235   6.922   8.843   9.587
89487SOL    HW270236   6.991   8.961   9.521
89488SOL     OW70237   4.349  11.606  12.176
89488SOL    HW170238   4.438  11.622  12.206
89488SOL    HW270239   4.318  11.690  12.143
89489SOL     OW70240   3.066   5.211   8.990
89489SOL    HW170241   3.097   5.297   9.017
89489SOL    HW270242   3.140   5.152   9.005
89490SOL     OW70243   7.422  10.439   4.357
89490SOL    HW170244   7.409  10.530   4.329
89490SOL    HW270245   7.373  10.387   4.294
89491SOL     OW70246  11.214   3.329   1.370
89491SOL    HW170247  11.190   3.239   1.390
89491SOL    HW270248  11.285   3.322   1.306
89492SOL     OW70249   6.667  13.683   8.870
89492SOL    HW170250   6.644  13.744   8.940
89492SOL    HW270251   6.753  13.649   8.896
89493SOL     OW70252   5.749   6.346   6.358
89493SOL    HW170253   5.757   6.259   6.397
89493SOL    HW270254   5.830   6.359   6.309
89494SOL     OW70255  14.579   2.033   1.947
89494SOL    HW170256  14.491   2.028   1.983
89494SOL    HW270257  14.600   1.942   1.923
89495SOL     OW70258   6.153   0.708   4.098
89495SOL    HW170259   6.069   0.677   4.063
89495SOL    HW270260   6.219   0.660   4.048
89496SOL     OW70261   7.699   1.105   4.923
89496SOL    HW170262   7.757   1.178   4.901
89496SOL    HW270263   7.618   1.123   4.875
89497SOL     OW70264   0.252   3.231   0.067
89497SOL    HW170265   0.237   3.311   0.017
89497SOL    HW270266   0.297   3.172   0.005
89498SOL     OW70267   5.372  12.342  12.950
89498SOL    HW170268   5.337  12.257  12.920
89498SOL    HW270269   5.453  12.353  12.900
89499SOL     OW70270  12.584  13.194   4.259
89499SOL    HW170271  12.498  13.202   4.216
89499SOL    HW270272  12.647  13.214   4.190
89500SOL     OW70273   1.016  13.676  10.988
89500SOL    HW170274   0.921  13.671  10.991
89500SOL    HW270275   1.037  13.764  11.017
89501SOL     OW70276   9.577  12.126   1.273
89501SOL    HW170277   9.624  12.131   1.357
89501SOL    HW270278   9.487  12.105   1.298
89502SOL     OW70279   8.089   1.901   9.569
89502SOL    HW170280   8.027   1.885   9.499
89502SOL    HW270281   8.064   1.839   9.638
89503SOL     OW70282   2.684  13.924   3.407
89503SOL    HW170283   2.618  13.864   3.441
89503SOL    HW270284   2.634  13.992   3.362
89504SOL     OW70285  11.908   1.590   4.884
89504SOL    HW170286  12.002   1.601   4.891
89504SOL    HW270287  11.891   1.580   4.790
89505SOL     OW70288   3.769  11.122   0.051
89505SOL    HW170289   3.797  11.213   0.063
89505SOL    HW270290   3.755  11.113  14.834
89506SOL     OW70291   8.543  12.691   4.742
89506SOL    HW170292   8.468  12.631   4.744
89506SOL    HW270293   8.590  12.674   4.823
89507SOL     OW70294   2.810   5.588   1.605
89507SOL    HW170295   2.741   5.654   1.602
89507SOL    HW270296   2.770   5.510   1.568
89508SOL     OW70297   1.322  14.678   2.902
89508SOL    HW170298   1.262  14.677   2.977
89508SOL    HW270299   1.346  14.586   2.890
89509SOL     OW70300   9.367  13.302   4.620
89509SOL    HW170301   9.361  13.217   4.665
89509SOL    HW270302   9.406  13.281   4.535
89510SOL     OW70303   8.140   2.286   5.550
89510SOL    HW170304   8.202   2.216   5.567
89510SOL    HW270305   8.075   2.279   5.620
89511SOL     OW70306   1.974  14.071  12.044
89511SOL    HW170307   2.045  14.010  12.063
89511SOL    HW270308   1.972  14.076  11.948
89512SOL     OW70309   3.597   4.041   3.984
89512SOL    HW170310   3.622   4.006   4.069
89512SOL    HW270311   3.599   4.136   3.996
89513SOL     OW70312   4.663  11.131   6.738
89513SOL    HW170313   4.743  11.107   6.784
89513SOL    HW270314   4.681  11.111   6.646
89514SOL     OW70315  11.569  10.411  12.083
89514SOL    HW170316  11.660  10.441  12.080
89514SOL    HW270317  11.560  10.354  12.007
89515SOL     OW70318   8.616  10.307   5.982
89515SOL    HW170319   8.635  10.284   6.073
89515SOL    HW270320   8.657  10.236   5.931
89516SOL     OW70321   7.546   1.894   5.598
89516SOL    HW170322   7.506   1.860   5.678
89516SOL    HW270323   7.620   1.836   5.581
89517SOL     OW70324   8.557   6.654   4.140
89517SOL    HW170325   8.571   6.668   4.233
89517SOL    HW270326   8.515   6.568   4.135
89518SOL     OW70327   5.213   6.590   8.937
89518SOL    HW170328   5.246   6.631   8.857
89518SOL    HW270329   5.124   6.624   8.947
89519SOL     OW70330   7.856  10.142  11.472
89519SOL    HW170331   7.846  10.206  11.542
89519SOL    HW270332   7.770  10.139  11.430
89520SOL     OW70333   3.544   5.849  13.515
89520SOL    HW170334   3.509   5.794  13.445
89520SOL    HW270335   3.477   5.916  13.529
89521SOL     OW70336  12.309   0.211  10.198
89521SOL    HW170337  12.270   0.185  10.114
89521SOL    HW270338  12.388   0.259  10.173
89522SOL     OW70339  11.967   4.002  12.932
89522SOL    HW170340  11.995   3.911  12.921
89522SOL    HW270341  12.049   4.051  12.942
89523SOL     OW70342   7.473  13.380   9.814
89523SOL    HW170343   7.556  13.364   9.769
89523SOL    HW270344   7.460  13.304   9.870
89524SOL     OW70345   1.376   3.872   0.355
89524SOL    HW170346   1.386   3.808   0.426
89524SOL    HW270347   1.458   3.921   0.355
89525SOL     OW70348   1.986   5.379   3.444
89525SOL    HW170349   2.012   5.321   3.515
89525SOL    HW270350   1.921   5.330   3.395
89526SOL     OW70351   1.937   2.381  14.193
89526SOL    HW170352   1.887   2.375  14.111
89526SOL    HW270353   1.874   2.415  14.256
89527SOL     OW70354   3.131   2.828  10.119
89527SOL    HW170355   3.174   2.820  10.034
89527SOL    HW270356   3.193   2.790  10.181
89528SOL     OW70357   2.714   7.778  13.746
89528SOL    HW170358   2.661   7.698  13.741
89528SOL    HW270359   2.663   7.843  13.698
89529SOL     OW70360   1.393   0.662  11.585
89529SOL    HW170361   1.442   0.581  11.570
89529SOL    HW270362   1.415   0.687  11.675
89530SOL     OW70363   9.156   1.396   9.550
89530SOL    HW170364   9.231   1.373   9.496
89530SOL    HW270365   9.185   1.380   9.640
89531SOL     OW70366   0.732  11.664   9.552
89531SOL    HW170367   0.784  11.726   9.500
89531SOL    HW270368   0.777  11.581   9.541
89532SOL     OW70369   7.997   9.989   2.809
89532SOL    HW170370   7.957   9.934   2.877
89532SOL    HW270371   7.932   9.991   2.739
89533SOL     OW70372   5.245   0.934  14.055
89533SOL    HW170373   5.322   0.882  14.079
89533SOL    HW270374   5.272   0.982  13.978
89534SOL     OW70375   4.564  12.289   6.524
89534SOL    HW170376   4.474  12.259   6.523
89534SOL    HW270377   4.589  12.287   6.616
89535SOL     OW70378  14.042   9.367   1.627
89535SOL    HW170379  14.005   9.339   1.543
89535SOL    HW270380  14.121   9.416   1.603
89536SOL     OW70381   1.572   2.208   3.679
89536SOL    HW170382   1.610   2.293   3.657
89536SOL    HW270383   1.621   2.178   3.755
89537SOL     OW70384   1.266   3.346   9.407
89537SOL    HW170385   1.328   3.389   9.349
89537SOL    HW270386   1.192   3.407   9.413
89538SOL     OW70387   2.973   3.948  14.567
89538SOL    HW170388   2.997   4.014  14.503
89538SOL    HW270389   2.970   3.995  14.650
89539SOL     OW70390   8.717  14.773  13.111
89539SOL    HW170391   8.804  14.765  13.151
89539SOL    HW270392   8.724  14.850  13.055
89540SOL     OW70393   7.564   7.368  11.226
89540SOL    HW170394   7.487   7.418  11.198
89540SOL    HW270395   7.571   7.296  11.163
89541SOL     OW70396   8.886   9.090   6.687
89541SOL    HW170397   8.919   9.014   6.639
89541SOL    HW270398   8.794   9.070   6.703
89542SOL     OW70399   6.507   7.050   5.823
89542SOL    HW170400   6.460   7.077   5.744
89542SOL    HW270401   6.452   6.982   5.862
89543SOL     OW70402   3.094   4.588   8.451
89543SOL    HW170403   3.160   4.565   8.385
89543SOL    HW270404   3.101   4.519   8.517
89544SOL     OW70405  13.227   6.883   3.731
89544SOL    HW170406  13.305   6.931   3.704
89544SOL    HW270407  13.157   6.917   3.676
89545SOL     OW70408   3.482   8.174  13.933
89545SOL    HW170409   3.572   8.148  13.952
89545SOL    HW270410   3.444   8.099  13.888
89546SOL     OW70411   4.781   2.605  12.812
89546SOL    HW170412   4.802   2.531  12.869
89546SOL    HW270413   4.857   2.614  12.755
89547SOL     OW70414   9.893   2.221   5.319
89547SOL    HW170415   9.866   2.190   5.405
89547SOL    HW270416   9.987   2.206   5.317
89548SOL     OW70417   4.555   1.363   0.646
89548SOL    HW170418   4.585   1.339   0.734
89548SOL    HW270419   4.510   1.446   0.658
89549SOL     OW70420   5.633  10.617   6.568
89549SOL    HW170421   5.715  10.618   6.616
89549SOL    HW270422   5.652  10.568   6.488
89550SOL     OW70423   3.960   4.140   1.951
89550SOL    HW170424   3.958   4.235   1.942
89550SOL    HW270425   3.952   4.124   2.045
89551SOL     OW70426   3.657   9.929  11.862
89551SOL    HW170427   3.653   9.989  11.787
89551SOL    HW270428   3.667   9.842  11.822
89552SOL     OW70429   3.376   3.864   2.079
89552SOL    HW170430   3.363   3.905   1.994
89552SOL    HW270431   3.381   3.938   2.141
89553SOL     OW70432   4.631  12.727   5.216
89553SOL    HW170433   4.584  12.644   5.210
89553SOL    HW270434   4.627  12.764   5.127
89554SOL     OW70435   6.204  12.896   1.540
89554SOL    HW170436   6.256  12.879   1.619
89554SOL    HW270437   6.263  12.875   1.468
89555SOL     OW70438   7.373  10.571   8.848
89555SOL    HW170439   7.443  10.616   8.896
89555SOL    HW270440   7.306  10.637   8.835
89556SOL     OW70441   0.792  12.114   8.130
89556SOL    HW170442   0.793  12.117   8.034
89556SOL    HW270443   0.878  12.147   8.156
89557SOL     OW70444   5.875  10.112   5.770
89557SOL    HW170445   5.788  10.073   5.776
89557SOL    HW270446   5.896  10.109   5.677
89558SOL     OW70447   8.544   0.992   0.055
89558SOL    HW170448   8.468   0.940   0.082
89558SOL    HW270449   8.619   0.935   0.071
89559SOL     OW70450  11.005   8.892   2.722
89559SOL    HW170451  10.995   8.985   2.702
89559SOL    HW270452  11.066   8.890   2.794
89560SOL     OW70453   2.228   7.774   9.884
89560SOL    HW170454   2.145   7.769   9.837
89560SOL    HW270455   2.261   7.684   9.885
89561SOL     OW70456   9.247   7.211   1.163
89561SOL    HW170457   9.208   7.298   1.156
89561SOL    HW270458   9.190   7.155   1.110
89562SOL     OW70459   6.075  10.337  11.855
89562SOL    HW170460   5.983  10.354  11.873
89562SOL    HW270461   6.117  10.423  11.859
89563SOL     OW70462  11.572  14.861  12.051
89563SOL    HW170463  11.591  14.768  12.042
89563SOL    HW270464  11.658   0.025  12.060
89564SOL     OW70465   2.475   7.974  14.864
89564SOL    HW170466   2.516   7.887  14.865
89564SOL    HW270467   2.423   7.974  14.783
89565SOL     OW70468   0.286   0.794  11.520
89565SOL    HW170469   0.358   0.843  11.479
89565SOL    HW270470   0.209   0.849  11.506
89566SOL     OW70471   6.080   4.037   1.439
89566SOL    HW170472   5.985   4.043   1.423
89566SOL    HW270473   6.098   4.112   1.496
89567SOL     OW70474  14.791   0.899   9.941
89567SOL    HW170475  14.805   0.806   9.927
89567SOL    HW270476   0.000   0.938   9.935
89568SOL     OW70477   2.203   3.355   0.383
89568SOL    HW170478   2.271   3.421   0.396
89568SOL    HW270479   2.178   3.328   0.471
89569SOL     OW70480  11.411  11.081  12.385
89569SOL    HW170481  11.381  10.990  12.389
89569SOL    HW270482  11.434  11.102  12.476
89570SOL     OW70483   1.422   5.876   0.073
89570SOL    HW170484   1.508   5.919   0.079
89570SOL    HW270485   1.389   5.877   0.163
89571SOL     OW70486   1.903  10.170   7.093
89571SOL    HW170487   1.860  10.237   7.039
89571SOL    HW270488   1.995  10.195   7.093
89572SOL     OW70489   2.028   1.978  10.557
89572SOL    HW170490   2.020   1.963  10.651
89572SOL    HW270491   2.052   1.893  10.521
89573SOL     OW70492  12.236  14.772   1.558
89573SOL    HW170493  12.329  14.757   1.576
89573SOL    HW270494  12.234  14.844   1.495
89574SOL     OW70495  12.958   5.245   5.149
89574SOL    HW170496  12.868   5.212   5.152
89574SOL    HW270497  13.010   5.170   5.122
89575SOL     OW70498  10.628   1.764  14.107
89575SOL    HW170499  10.625   1.685  14.161
89575SOL    HW270500  10.631   1.836  14.171
89576SOL     OW70501  14.423   1.334  12.151
89576SOL    HW170502  14.397   1.411  12.201
89576SOL    HW270503  14.401   1.356  12.060
89577SOL     OW70504  10.572   5.643  12.276
89577SOL    HW170505  10.573   5.732  12.311
89577SOL    HW270506  10.543   5.653  12.186
89578SOL     OW70507   8.358   8.543   4.139
89578SOL    HW170508   8.282   8.579   4.185
89578SOL    HW270509   8.352   8.449   4.152
89579SOL     OW70510   4.070   2.650  12.884
89579SOL    HW170511   4.149   2.660  12.831
89579SOL    HW270512   4.084   2.709  12.958
89580SOL     OW70513  13.074  13.193  14.134
89580SOL    HW170514  12.983  13.191  14.103
89580SOL    HW270515  13.119  13.250  14.071
89581SOL     OW70516   6.433   5.835   2.277
89581SOL    HW170517   6.464   5.760   2.328
89581SOL    HW270518   6.461   5.817   2.188
89582SOL     OW70519   1.531   6.044   9.399
89582SOL    HW170520   1.556   6.131   9.431
89582SOL    HW270521   1.569   5.983   9.463
89583SOL     OW70522  12.301   4.787   8.241
89583SOL    HW170523  12.385   4.808   8.281
89583SOL    HW270524  12.236   4.829   8.299
89584SOL     OW70525   1.694   0.478   1.873
89584SOL    HW170526   1.694   0.497   1.967
89584SOL    HW270527   1.740   0.395   1.865
89585SOL     OW70528   5.155   0.559  10.600
89585SOL    HW170529   5.234   0.543  10.549
89585SOL    HW270530   5.089   0.583  10.535
89586SOL     OW70531   3.001   9.826  11.401
89586SOL    HW170532   2.911   9.814  11.434
89586SOL    HW270533   3.032   9.905  11.446
89587SOL     OW70534   7.836   7.642   1.632
89587SOL    HW170535   7.852   7.628   1.538
89587SOL    HW270536   7.915   7.611   1.675
89588SOL     OW70537  11.555   4.899  13.378
89588SOL    HW170538  11.567   4.944  13.294
89588SOL    HW270539  11.500   4.959  13.429
89589SOL     OW70540   3.207   0.857   7.905
89589SOL    HW170541   3.164   0.888   7.984
89589SOL    HW270542   3.301   0.860   7.925
89590SOL     OW70543   8.210   9.108   2.781
89590SOL    HW170544   8.163   9.163   2.718
89590SOL    HW270545   8.143   9.053   2.820
89591SOL     OW70546  12.653   1.123   1.128
89591SOL    HW170547  12.730   1.179   1.140
89591SOL    HW270548  12.582   1.184   1.110
89592SOL     OW70549   5.299   2.463  11.398
89592SOL    HW170550   5.299   2.559  11.407
89592SOL    HW270551   5.356   2.433  11.469
89593SOL     OW70552  14.526   8.340   0.385
89593SOL    HW170553  14.546   8.336   0.292
89593SOL    HW270554  14.533   8.250   0.416
89594SOL     OW70555  10.127   3.357   2.906
89594SOL    HW170556  10.045   3.405   2.918
89594SOL    HW270557  10.108   3.293   2.837
89595SOL     OW70558  14.137   4.747  14.429
89595SOL    HW170559  14.174   4.803  14.497
89595SOL    HW270560  14.174   4.783  14.347
89596SOL     OW70561   7.292   8.571   7.777
89596SOL    HW170562   7.282   8.492   7.830
89596SOL    HW270563   7.269   8.544   7.688
89597SOL     OW70564  11.018  11.617   3.851
89597SOL    HW170565  11.001  11.694   3.797
89597SOL    HW270566  11.052  11.653   3.934
89598SOL     OW70567   7.245  14.636   2.217
89598SOL    HW170568   7.238  14.716   2.268
89598SOL    HW270569   7.155  14.614   2.194
89599SOL     OW70570  11.051   4.336   1.710
89599SOL    HW170571  11.120   4.276   1.736
89599SOL    HW270572  11.097   4.407   1.665
89600SOL     OW70573   3.340  10.259   1.229
89600SOL    HW170574   3.314  10.281   1.318
89600SOL    HW270575   3.284  10.185   1.206
89601SOL     OW70576  13.764  11.689   3.748
89601SOL    HW170577  13.780  11.761   3.808
89601SOL    HW270578  13.678  11.654   3.775
89602SOL     OW70579  11.395   2.081   5.243
89602SOL    HW170580  11.399   2.083   5.339
89602SOL    HW270581  11.475   2.036   5.217
89603SOL     OW70582   5.261   9.189  11.686
89603SOL    HW170583   5.202   9.234  11.625
89603SOL    HW270584   5.246   9.231  11.770
89604SOL     OW70585   2.122   7.491   2.409
89604SOL    HW170586   2.116   7.579   2.445
89604SOL    HW270587   2.038   7.451   2.430
89605SOL     OW70588   7.949   8.096   7.825
89605SOL    HW170589   7.936   8.181   7.866
89605SOL    HW270590   8.040   8.074   7.843
89606SOL     OW70591   5.614   1.041  12.123
89606SOL    HW170592   5.597   1.128  12.159
89606SOL    HW270593   5.534   1.018  12.077
89607SOL     OW70594   9.163   8.516   8.337
89607SOL    HW170595   9.082   8.493   8.292
89607SOL    HW270596   9.148   8.489   8.427
89608SOL     OW70597   5.903  14.115   3.071
89608SOL    HW170598   5.978  14.142   3.018
89608SOL    HW270599   5.855  14.053   3.017
89609SOL     OW70600   7.644  10.267   7.549
89609SOL    HW170601   7.605  10.184   7.524
89609SOL    HW270602   7.730  10.267   7.507
89610SOL     OW70603   1.119   6.898  12.457
89610SOL    HW170604   1.097   6.807  12.480
89610SOL    HW270605   1.096   6.949  12.535
89611SOL     OW70606   6.139  13.318  13.950
89611SOL    HW170607   6.086  13.363  14.015
89611SOL    HW270608   6.204  13.269  14.001
89612SOL     OW70609   7.545  14.527  12.823
89612SOL    HW170610   7.521  14.612  12.786
89612SOL    HW270611   7.492  14.464  12.775
89613SOL     OW70612   4.076  14.632   2.115
89613SOL    HW170613   4.065  14.722   2.148
89613SOL    HW270614   4.016  14.580   2.169
89614SOL     OW70615  11.041  12.380   2.746
89614SOL    HW170616  11.127  12.341   2.731
89614SOL    HW270617  11.008  12.338   2.825
89615SOL     OW70618   4.771  14.254   9.183
89615SOL    HW170619   4.736  14.337   9.215
89615SOL    HW270620   4.811  14.275   9.099
89616SOL     OW70621   0.977  10.884  13.113
89616SOL    HW170622   0.930  10.800  13.106
89616SOL    HW270623   0.927  10.944  13.059
89617SOL     OW70624   3.652   1.668  13.317
89617SOL    HW170625   3.557   1.671  13.332
89617SOL    HW270626   3.689   1.662  13.405
89618SOL     OW70627   2.314  13.650   7.292
89618SOL    HW170628   2.406  13.654   7.319
89618SOL    HW270629   2.313  13.696   7.208
89619SOL     OW70630  10.184  13.443  12.861
89619SOL    HW170631  10.251  13.460  12.794
89619SOL    HW270632  10.110  13.497  12.835
89620SOL     OW70633  14.574  11.679   4.720
89620SOL    HW170634  14.660  11.646   4.746
89620SOL    HW270635  14.514  11.606   4.735
89621SOL     OW70636  13.821   4.063   6.807
89621SOL    HW170637  13.784   3.990   6.856
89621SOL    HW270638  13.764   4.072   6.730
89622SOL     OW70639   1.635   1.712   4.846
89622SOL    HW170640   1.686   1.761   4.910
89622SOL    HW270641   1.570   1.774   4.815
89623SOL     OW70642  14.514  13.935  11.575
89623SOL    HW170643  14.474  14.012  11.614
89623SOL    HW270644  14.474  13.928  11.488
89624SOL     OW70645  12.563  11.147   9.335
89624SOL    HW170646  12.555  11.212   9.405
89624SOL    HW270647  12.641  11.172   9.287
89625SOL     OW70648  11.477   1.040  14.140
89625SOL    HW170649  11.491   0.949  14.166
89625SOL    HW270650  11.387   1.042  14.108
89626SOL     OW70651   7.328   6.675  10.161
89626SOL    HW170652   7.265   6.669  10.089
89626SOL    HW270653   7.328   6.588  10.200
89627SOL     OW70654   1.718   6.876  11.777
89627SOL    HW170655   1.737   6.803  11.835
89627SOL    HW270656   1.761   6.853  11.695
89628SOL     OW70657   6.976   4.008   3.296
89628SOL    HW170658   7.067   4.035   3.307
89628SOL    HW270659   6.968   3.926   3.343
89629SOL     OW70660  11.763  13.071   8.768
89629SOL    HW170661  11.796  13.160   8.785
89629SOL    HW270662  11.670  13.083   8.751
89630SOL     OW70663   7.369  11.823   3.626
89630SOL    HW170664   7.427  11.772   3.683
89630SOL    HW270665   7.343  11.763   3.557
89631SOL     OW70666  14.475  11.257  12.598
89631SOL    HW170667  14.537  11.330  12.598
89631SOL    HW270668  14.428  11.265  12.681
89632SOL     OW70669  10.429   9.937   2.063
89632SOL    HW170670  10.514   9.970   2.092
89632SOL    HW270671  10.367  10.005   2.085
89633SOL     OW70672   5.286   7.437  13.123
89633SOL    HW170673   5.299   7.441  13.218
89633SOL    HW270674   5.372   7.416  13.088
89634SOL     OW70675  12.721  11.582   5.431
89634SOL    HW170676  12.665  11.521   5.478
89634SOL    HW270677  12.794  11.528   5.399
89635SOL     OW70678   0.530   3.060   4.109
89635SOL    HW170679   0.498   3.023   4.191
89635SOL    HW270680   0.459   3.046   4.047
89636SOL     OW70681   9.960  10.611   2.684
89636SOL    HW170682   9.980  10.517   2.687
89636SOL    HW270683   9.865  10.616   2.697
89637SOL     OW70684   1.273   4.547  10.570
89637SOL    HW170685   1.350   4.496  10.594
89637SOL    HW270686   1.199   4.489  10.587
89638SOL     OW70687   5.286   9.219  10.887
89638SOL    HW170688   5.228   9.160  10.837
89638SOL    HW270689   5.346   9.254  10.821
89639SOL     OW70690   4.111  13.115   8.426
89639SOL    HW170691   4.188  13.168   8.446
89639SOL    HW270692   4.056  13.172   8.372
89640SOL     OW70693  12.895   0.225   7.495
89640SOL    HW170694  12.870   0.230   7.587
89640SOL    HW270695  12.839   0.157   7.458
89641SOL     OW70696   5.574   0.612   5.327
89641SOL    HW170697   5.626   0.531   5.318
89641SOL    HW270698   5.625   0.667   5.386
89642SOL     OW70699   5.658  12.136  12.247
89642SOL    HW170700   5.570  12.134  12.283
89642SOL    HW270701   5.712  12.090  12.312
89643SOL     OW70702   0.625  12.384   9.688
89643SOL    HW170703   0.603  12.426   9.771
89643SOL    HW270704   0.548  12.333   9.665
89644SOL     OW70705   0.844  10.276   3.156
89644SOL    HW170706   0.755  10.284   3.122
89644SOL    HW270707   0.839  10.306   3.247
89645SOL     OW70708   2.838   1.156   8.698
89645SOL    HW170709   2.906   1.101   8.659
89645SOL    HW270710   2.853   1.243   8.662
89646SOL     OW70711  10.399  11.944  14.773
89646SOL    HW170712  10.432  11.878  14.835
89646SOL    HW270713  10.448  11.927  14.693
89647SOL     OW70714   3.691   1.447  11.249
89647SOL    HW170715   3.647   1.475  11.329
89647SOL    HW270716   3.620   1.418  11.192
89648SOL     OW70717   3.385  11.717   4.997
89648SOL    HW170718   3.382  11.732   4.902
89648SOL    HW270719   3.407  11.625   5.006
89649SOL     OW70720  10.317  12.664   5.657
89649SOL    HW170721  10.377  12.705   5.719
89649SOL    HW270722  10.361  12.582   5.632
89650SOL     OW70723   7.678   4.948   3.064
89650SOL    HW170724   7.604   4.951   3.125
89650SOL    HW270725   7.686   4.855   3.041
89651SOL     OW70726   7.390   8.905   6.101
89651SOL    HW170727   7.376   8.978   6.161
89651SOL    HW270728   7.323   8.841   6.125
89652SOL     OW70729   0.390  10.257  11.262
89652SOL    HW170730   0.474  10.265  11.308
89652SOL    HW270731   0.392  10.325  11.195
89653SOL     OW70732   5.243   2.906   7.302
89653SOL    HW170733   5.233   2.995   7.269
89653SOL    HW270734   5.229   2.914   7.397
89654SOL     OW70735   3.030   3.297   9.597
89654SOL    HW170736   3.084   3.372   9.623
89654SOL    HW270737   2.995   3.320   9.511
89655SOL     OW70738   6.355  13.149   9.376
89655SOL    HW170739   6.395  13.084   9.317
89655SOL    HW270740   6.287  13.191   9.323
89656SOL     OW70741   6.058   9.535   6.860
89656SOL    HW170742   6.151   9.539   6.883
89656SOL    HW270743   6.028   9.453   6.898
89657SOL     OW70744   3.432   6.820   4.107
89657SOL    HW170745   3.397   6.813   4.196
89657SOL    HW270746   3.375   6.883   4.063
89658SOL     OW70747  11.609   6.782  13.025
89658SOL    HW170748  11.575   6.715  13.086
89658SOL    HW270749  11.530   6.821  12.987
89659SOL     OW70750   7.579  13.762   0.722
89659SOL    HW170751   7.663  13.760   0.767
89659SOL    HW270752   7.599  13.734   0.633
89660SOL     OW70753   8.862  12.786   7.653
89660SOL    HW170754   8.849  12.788   7.747
89660SOL    HW270755   8.813  12.709   7.624
89661SOL     OW70756  13.688  11.215  14.238
89661SOL    HW170757  13.601  11.207  14.277
89661SOL    HW270758  13.703  11.310  14.231
89662SOL     OW70759  13.017   8.265   1.229
89662SOL    HW170760  12.927   8.238   1.249
89662SOL    HW270761  13.054   8.287   1.315
89663SOL     OW70762   5.049   1.590   0.602
89663SOL    HW170763   4.972   1.645   0.589
89663SOL    HW270764   5.123   1.646   0.581
89664SOL     OW70765  13.035   8.642  13.689
89664SOL    HW170766  13.036   8.701  13.765
89664SOL    HW270767  13.045   8.700  13.614
89665SOL     OW70768   5.158   1.987   5.308
89665SOL    HW170769   5.190   1.917   5.365
89665SOL    HW270770   5.068   1.961   5.286
89666SOL     OW70771   0.417   1.383   1.004
89666SOL    HW170772   0.396   1.300   0.961
89666SOL    HW270773   0.512   1.380   1.016
89667SOL     OW70774   1.039   8.075  12.769
89667SOL    HW170775   0.972   8.060  12.836
89667SOL    HW270776   1.094   8.144  12.805
89668SOL     OW70777  13.163  10.940  11.907
89668SOL    HW170778  13.112  10.892  11.971
89668SOL    HW270779  13.213  11.004  11.958
89669SOL     OW70780   5.227   6.903  11.764
89669SOL    HW170781   5.268   6.980  11.802
89669SOL    HW270782   5.232   6.918  11.669
89670SOL     OW70783  13.931   5.784  14.760
89670SOL    HW170784  13.883   5.703  14.744
89670SOL    HW270785  13.962   5.812  14.674
89671SOL     OW70786  11.496  14.793   3.067
89671SOL    HW170787  11.453  14.712   3.038
89671SOL    HW270788  11.536  14.828   2.987
89672SOL     OW70789   8.432   0.001   4.008
89672SOL    HW170790   8.471  14.857   4.094
89672SOL    HW270791   8.398  14.795   3.976
89673SOL     OW70792  14.391   4.563  13.797
89673SOL    HW170793  14.335   4.607  13.733
89673SOL    HW270794  14.413   4.631  13.861
89674SOL     OW70795  14.382   0.550   2.380
89674SOL    HW170796  14.418   0.617   2.321
89674SOL    HW270797  14.458   0.517   2.428
89675SOL     OW70798  10.319  11.986  13.739
89675SOL    HW170799  10.402  11.961  13.697
89675SOL    HW270800  10.266  12.022  13.668
89676SOL     OW70801  14.452   0.838  13.770
89676SOL    HW170802  14.483   0.928  13.759
89676SOL    HW270803  14.407   0.818  13.687
89677SOL     OW70804   8.858  13.600  11.975
89677SOL    HW170805   8.785  13.600  11.913
89677SOL    HW270806   8.904  13.683  11.960
89678SOL     OW70807  10.591  12.175   0.231
89678SOL    HW170808  10.626  12.227   0.158
89678SOL    HW270809  10.518  12.227   0.265
89679SOL     OW70810   2.115   4.321   9.071
89679SOL    HW170811   2.146   4.412   9.073
89679SOL    HW270812   2.082   4.306   9.159
89680SOL     OW70813   8.516   1.263   7.020
89680SOL    HW170814   8.477   1.237   6.937
89680SOL    HW270815   8.527   1.181   7.068
89681SOL     OW70816   0.084   0.762   7.388
89681SOL    HW170817  14.874   0.796   7.370
89681SOL    HW270818   0.069   0.684   7.442
89682SOL     OW70819   8.877  11.166  11.673
89682SOL    HW170820   8.924  11.109  11.735
89682SOL    HW270821   8.809  11.110  11.637
89683SOL     OW70822   9.967   2.664   3.988
89683SOL    HW170823   9.895   2.687   3.929
89683SOL    HW270824  10.045   2.696   3.944
89684SOL     OW70825   4.425  13.595   2.175
89684SOL    HW170826   4.490  13.526   2.162
89684SOL    HW270827   4.421  13.607   2.270
89685SOL     OW70828  14.225  11.906   6.781
89685SOL    HW170829  14.129  11.902   6.784
89685SOL    HW270830  14.253  11.861   6.861
89686SOL     OW70831   9.002  11.346   5.739
89686SOL    HW170832   8.988  11.253   5.754
89686SOL    HW270833   9.026  11.381   5.825
89687SOL     OW70834   2.489   4.013  12.637
89687SOL    HW170835   2.546   4.089  12.645
89687SOL    HW270836   2.463   4.012  12.545
89688SOL     OW70837   8.841   2.892  11.199
89688SOL    HW170838   8.808   2.930  11.281
89688SOL    HW270839   8.794   2.941  11.131
89689SOL     OW70840  14.297  13.407   4.249
89689SOL    HW170841  14.323  13.338   4.187
89689SOL    HW270842  14.218  13.445   4.212
89690SOL     OW70843   3.106   4.481   7.826
89690SOL    HW170844   3.065   4.565   7.809
89690SOL    HW270845   3.079   4.459   7.915
89691SOL     OW70846   6.835   6.012   9.154
89691SOL    HW170847   6.853   5.928   9.197
89691SOL    HW270848   6.754   6.043   9.195
89692SOL     OW70849   0.781   2.389   5.403
89692SOL    HW170850   0.839   2.361   5.474
89692SOL    HW270851   0.835   2.450   5.351
89693SOL     OW70852   7.912  14.569   1.923
89693SOL    HW170853   7.915  14.522   2.006
89693SOL    HW270854   7.994  14.619   1.921
89694SOL     OW70855   0.650  13.729   5.549
89694SOL    HW170856   0.744  13.716   5.558
89694SOL    HW270857   0.642  13.791   5.476
89695SOL     OW70858   4.195   9.952   9.649
89695SOL    HW170859   4.156   9.944   9.562
89695SOL    HW270860   4.285   9.920   9.638
89696SOL     OW70861  13.292   7.139   3.012
89696SOL    HW170862  13.374   7.091   3.001
89696SOL    HW270863  13.261   7.153   2.922
89697SOL     OW70864   0.039  13.926   6.626
89697SOL    HW170865   0.064  13.835   6.636
89697SOL    HW270866   0.110  13.975   6.667
89698SOL     OW70867  12.487   4.417  13.956
89698SOL    HW170868  12.416   4.403  13.894
89698SOL    HW270869  12.547   4.476  13.911
89699SOL     OW70870   9.807   9.205   0.169
89699SOL    HW170871   9.855   9.126   0.194
89699SOL    HW270872   9.754   9.226   0.246
89700SOL     OW70873  10.749  11.341   0.709
89700SOL    HW170874  10.795  11.262   0.681
89700SOL    HW270875  10.777  11.354   0.800
89701SOL     OW70876  11.301   5.180   7.770
89701SOL    HW170877  11.309   5.269   7.737
89701SOL    HW270878  11.258   5.190   7.855
89702SOL     OW70879   5.792  12.519   6.359
89702SOL    HW170880   5.839  12.597   6.330
89702SOL    HW270881   5.844  12.486   6.432
89703SOL     OW70882   4.857   2.776   3.860
89703SOL    HW170883   4.878   2.751   3.769
89703SOL    HW270884   4.928   2.737   3.911
89704SOL     OW70885  12.150  13.420   6.972
89704SOL    HW170886  12.151  13.515   6.977
89704SOL    HW270887  12.127  13.392   7.061
89705SOL     OW70888  13.654   3.210   6.966
89705SOL    HW170889  13.714   3.284   6.960
89705SOL    HW270890  13.699   3.147   7.022
89706SOL     OW70891  13.560  10.669  14.579
89706SOL    HW170892  13.506  10.598  14.544
89706SOL    HW270893  13.556  10.737  14.511
89707SOL     OW70894  10.660   9.411   9.378
89707SOL    HW170895  10.622   9.448   9.298
89707SOL    HW270896  10.629   9.467   9.448
89708SOL     OW70897  10.803   4.592  14.575
89708SOL    HW170898  10.752   4.623  14.649
89708SOL    HW270899  10.840   4.509  14.604
89709SOL     OW70900   0.635  10.655   6.704
89709SOL    HW170901   0.700  10.585   6.696
89709SOL    HW270902   0.671  10.727   6.653
89710SOL     OW70903   0.049   5.341   8.407
89710SOL    HW170904   0.132   5.375   8.440
89710SOL    HW270905   0.067   5.315   8.317
89711SOL     OW70906   3.773   6.244   0.313
89711SOL    HW170907   3.825   6.245   0.393
89711SOL    HW270908   3.761   6.151   0.294
89712SOL     OW70909  12.200  12.552   1.172
89712SOL    HW170910  12.195  12.545   1.077
89712SOL    HW270911  12.283  12.597   1.189
89713SOL     OW70912   9.044   6.071   1.697
89713SOL    HW170913   9.022   6.004   1.633
89713SOL    HW270914   8.968   6.129   1.698
89714SOL     OW70915   4.565   7.885  12.511
89714SOL    HW170916   4.512   7.935  12.573
89714SOL    HW270917   4.645   7.865  12.560
89715SOL     OW70918   0.744  11.433   3.251
89715SOL    HW170919   0.691  11.503   3.290
89715SOL    HW270920   0.688  11.356   3.254
89716SOL     OW70921   6.267   1.061   8.037
89716SOL    HW170922   6.319   1.044   7.958
89716SOL    HW270923   6.332   1.081   8.105
89717SOL     OW70924   2.726   8.879   7.249
89717SOL    HW170925   2.769   8.868   7.165
89717SOL    HW270926   2.759   8.963   7.283
89718SOL     OW70927   6.641   6.452   0.063
89718SOL    HW170928   6.657   6.541   0.096
89718SOL    HW270929   6.632   6.399   0.142
89719SOL     OW70930   1.894   5.720  10.257
89719SOL    HW170931   1.960   5.661  10.222
89719SOL    HW270932   1.943   5.781  10.312
89720SOL     OW70933   6.276  13.293   4.956
89720SOL    HW170934   6.233  13.316   4.873
89720SOL    HW270935   6.239  13.354   5.020
89721SOL     OW70936   6.473  10.170   4.681
89721SOL    HW170937   6.473  10.106   4.753
89721SOL    HW270938   6.418  10.130   4.614
89722SOL     OW70939  12.690  12.628  13.703
89722SOL    HW170940  12.640  12.547  13.712
89722SOL    HW270941  12.780  12.603  13.723
89723SOL     OW70942  12.629   5.897   7.167
89723SOL    HW170943  12.609   5.809   7.198
89723SOL    HW270944  12.546   5.943   7.170
89724SOL     OW70945  14.777   2.356  11.100
89724SOL    HW170946  14.819   2.271  11.115
89724SOL    HW270947  14.734   2.347  11.015
89725SOL     OW70948   5.261   9.790   8.890
89725SOL    HW170949   5.295   9.829   8.810
89725SOL    HW270950   5.309   9.834   8.961
89726SOL     OW70951   6.277   2.627   1.876
89726SOL    HW170952   6.241   2.578   1.801
89726SOL    HW270953   6.369   2.601   1.880
89727SOL     OW70954   8.041   6.072  13.008
89727SOL    HW170955   8.074   6.162  12.999
89727SOL    HW270956   8.059   6.031  12.924
89728SOL     OW70957   3.858   5.948   1.768
89728SOL    HW170958   3.812   5.951   1.852
89728SOL    HW270959   3.881   5.856   1.756
89729SOL     OW70960   3.720   0.990   7.381
89729SOL    HW170961   3.625   0.981   7.387
89729SOL    HW270962   3.739   1.072   7.427
89730SOL     OW70963   0.739   5.537  10.762
89730SOL    HW170964   0.722   5.625  10.793
89730SOL    HW270965   0.813   5.506  10.814
89731SOL     OW70966   2.021   5.188   4.577
89731SOL    HW170967   2.103   5.221   4.616
89731SOL    HW270968   1.970   5.157   4.651
89732SOL     OW70969  10.170  12.460  11.623
89732SOL    HW170970  10.217  12.541  11.610
89732SOL    HW270971  10.119  12.473  11.703
89733SOL     OW70972  10.196   5.542   5.946
89733SOL    HW170973  10.109   5.552   5.986
89733SOL    HW270974  10.204   5.448   5.929
89734SOL     OW70975   8.999   6.447   6.058
89734SOL    HW170976   9.016   6.541   6.058
89734SOL    HW270977   9.060   6.411   6.123
89735SOL     OW70978   2.791   6.579   5.367
89735SOL    HW170979   2.782   6.620   5.453
89735SOL    HW270980   2.711   6.527   5.357
89736SOL     OW70981   4.773   7.077   6.142
89736SOL    HW170982   4.859   7.111   6.168
89736SOL    HW270983   4.718   7.155   6.134
89737SOL     OW70984  12.624  14.004  14.231
89737SOL    HW170985  12.590  14.056  14.159
89737SOL    HW270986  12.604  14.054  14.310
89738SOL     OW70987   4.078   8.668   2.750
89738SOL    HW170988   4.069   8.702   2.839
89738SOL    HW270989   4.094   8.746   2.696
89739SOL     OW70990   2.534  11.187  14.553
89739SOL    HW170991   2.528  11.185  14.458
89739SOL    HW270992   2.591  11.262  14.572
89740SOL     OW70993  14.380  10.641   9.896
89740SOL    HW170994  14.388  10.663   9.989
89740SOL    HW270995  14.395  10.724   9.850
89741SOL     OW70996   1.510   6.989   8.111
89741SOL    HW170997   1.451   6.958   8.042
89741SOL    HW270998   1.458   6.984   8.191
89742SOL     OW70999  11.932   1.008  11.051
89742SOL    HW171000  11.935   1.016  11.147
89742SOL    HW271001  11.847   1.043  11.027
89743SOL     OW71002   2.125   2.220   0.075
89743SOL    HW171003   2.216   2.191   0.072
89743SOL    HW271004   2.090   2.199  14.865
89744SOL     OW71005   1.696   1.334   4.347
89744SOL    HW171006   1.752   1.386   4.289
89744SOL    HW271007   1.697   1.246   4.309
89745SOL     OW71008   8.634  11.856   1.988
89745SOL    HW171009   8.561  11.915   2.008
89745SOL    HW271010   8.682  11.849   2.071
89746SOL     OW71011   7.512   9.552  13.247
89746SOL    HW171012   7.560   9.620  13.294
89746SOL    HW271013   7.580   9.499  13.206
89747SOL     OW71014  14.008  13.364   5.110
89747SOL    HW171015  14.056  13.290   5.072
89747SOL    HW271016  13.928  13.370   5.059
89748SOL     OW71017   6.653   0.300   4.051
89748SOL    HW171018   6.572   0.295   4.102
89748SOL    HW271019   6.624   0.293   3.960
89749SOL     OW71020   8.238   2.707   9.984
89749SOL    HW171021   8.218   2.756  10.063
89749SOL    HW271022   8.328   2.731   9.961
89750SOL     OW71023  11.903  12.449   5.570
89750SOL    HW171024  11.870  12.441   5.660
89750SOL    HW271025  11.994  12.476   5.580
89751SOL     OW71026   4.447   5.786  13.379
89751SOL    HW171027   4.441   5.877  13.406
89751SOL    HW271028   4.365   5.746  13.406
89752SOL     OW71029  10.903   4.763   3.495
89752SOL    HW171030  10.878   4.732   3.582
89752SOL    HW271031  10.927   4.684   3.447
89753SOL     OW71032  12.670   0.742   5.190
89753SOL    HW171033  12.628   0.682   5.252
89753SOL    HW271034  12.602   0.806   5.169
89754SOL     OW71035   2.358  14.754   7.038
89754SOL    HW171036   2.306  14.723   7.112
89754SOL    HW271037   2.431  14.801   7.079
89755SOL     OW71038  11.647   3.546   7.925
89755SOL    HW171039  11.555   3.571   7.930
89755SOL    HW271040  11.672   3.561   7.834
89756SOL     OW71041   1.658   1.678   4.414
89756SOL    HW171042   1.732   1.708   4.466
89756SOL    HW271043   1.601   1.633   4.476
89757SOL     OW71044  13.253   0.341   0.938
89757SOL    HW171045  13.328   0.397   0.918
89757SOL    HW271046  13.263   0.319   1.031
89758SOL     OW71047   5.478   5.652   0.779
89758SOL    HW171048   5.417   5.725   0.766
89758SOL    HW271049   5.440   5.601   0.850
89759SOL     OW71050   5.512  14.140   1.999
89759SOL    HW171051   5.589  14.115   1.949
89759SOL    HW271052   5.523  14.096   2.084
89760SOL     OW71053   0.879  11.614  12.149
89760SOL    HW171054   0.818  11.561  12.201
89760SOL    HW271055   0.936  11.549  12.106
89761SOL     OW71056   8.486   6.969  10.865
89761SOL    HW171057   8.429   6.947  10.939
89761SOL    HW271058   8.453   6.916  10.793
89762SOL     OW71059   4.953   8.442   7.726
89762SOL    HW171060   4.883   8.472   7.668
89762SOL    HW271061   4.956   8.347   7.713
89763SOL     OW71062   9.705  12.811   5.240
89763SOL    HW171063   9.773  12.787   5.177
89763SOL    HW271064   9.736  12.892   5.280
89764SOL     OW71065   6.783  12.982   0.554
89764SOL    HW171066   6.848  13.049   0.531
89764SOL    HW271067   6.783  12.923   0.479
89765SOL     OW71068   3.447   5.874   1.685
89765SOL    HW171069   3.467   5.782   1.699
89765SOL    HW271070   3.353   5.877   1.670
89766SOL     OW71071  14.818   9.434   0.854
89766SOL    HW171072   0.015   9.457   0.800
89766SOL    HW271073  14.755   9.395   0.794
89767SOL     OW71074  13.087   0.619   5.420
89767SOL    HW171075  13.180   0.631   5.403
89767SOL    HW271076  13.072   0.668   5.501
89768SOL     OW71077  11.818  12.921   5.822
89768SOL    HW171078  11.899  12.914   5.772
89768SOL    HW271079  11.751  12.882   5.765
89769SOL     OW71080   3.842  11.334   8.301
89769SOL    HW171081   3.783  11.308   8.372
89769SOL    HW271082   3.787  11.333   8.223
89770SOL     OW71083   8.782   7.567  10.208
89770SOL    HW171084   8.871   7.559  10.241
89770SOL    HW271085   8.763   7.661  10.213
89771SOL     OW71086   5.759   5.357   7.822
89771SOL    HW171087   5.710   5.409   7.758
89771SOL    HW271088   5.697   5.290   7.851
89772SOL     OW71089   1.667   6.660   2.663
89772SOL    HW171090   1.589   6.625   2.620
89772SOL    HW271091   1.658   6.755   2.655
89773SOL     OW71092   3.429   9.586   0.647
89773SOL    HW171093   3.413   9.492   0.638
89773SOL    HW271094   3.390   9.609   0.731
89774SOL     OW71095   8.081   8.831  10.511
89774SOL    HW171096   8.099   8.836  10.605
89774SOL    HW271097   8.074   8.923  10.483
89775SOL     OW71098   8.083   4.926   4.839
89775SOL    HW171099   8.170   4.922   4.799
89775SOL    HW271100   8.024   4.890   4.772
89776SOL     OW71101  12.004   9.619   4.383
89776SOL    HW171102  11.959   9.596   4.465
89776SOL    HW271103  11.934   9.648   4.325
89777SOL     OW71104   2.129   9.971   8.468
89777SOL    HW171105   2.191   9.978   8.540
89777SOL    HW271106   2.089  10.058   8.461
89778SOL     OW71107   5.494  11.237   7.323
89778SOL    HW171108   5.580  11.200   7.301
89778SOL    HW271109   5.492  11.240   7.418
89779SOL     OW71110  11.587   6.032   8.665
89779SOL    HW171111  11.504   6.061   8.626
89779SOL    HW271112  11.611   5.955   8.615
89780SOL     OW71113   7.242   3.935   0.699
89780SOL    HW171114   7.287   3.887   0.769
89780SOL    HW271115   7.151   3.907   0.705
89781SOL     OW71116   8.717   1.774   8.234
89781SOL    HW171117   8.649   1.811   8.179
89781SOL    HW271118   8.794   1.768   8.177
89782SOL     OW71119   1.288  14.084  13.465
89782SOL    HW171120   1.317  14.161  13.415
89782SOL    HW271121   1.203  14.109  13.501
89783SOL     OW71122  14.117   5.931   3.590
89783SOL    HW171123  14.051   5.985   3.633
89783SOL    HW271124  14.175   5.904   3.661
89784SOL     OW71125  13.304   0.604   7.841
89784SOL    HW171126  13.235   0.660   7.876
89784SOL    HW271127  13.273   0.578   7.755
89785SOL     OW71128  11.910   4.770   0.665
89785SOL    HW171129  11.819   4.796   0.648
89785SOL    HW271130  11.933   4.717   0.588
89786SOL     OW71131  12.002  12.266  13.117
89786SOL    HW171132  11.928  12.274  13.177
89786SOL    HW271133  12.070  12.222  13.169
89787SOL     OW71134  10.195   4.103  13.452
89787SOL    HW171135  10.152   4.180  13.488
89787SOL    HW271136  10.199   4.119  13.358
89788SOL     OW71137  10.740   8.884   3.734
89788SOL    HW171138  10.703   8.909   3.649
89788SOL    HW271139  10.672   8.830   3.774
89789SOL     OW71140   4.554  12.899  10.111
89789SOL    HW171141   4.471  12.943  10.092
89789SOL    HW271142   4.620  12.968  10.104
89790SOL     OW71143   8.722  14.509  13.673
89790SOL    HW171144   8.725  14.599  13.705
89790SOL    HW271145   8.633  14.498  13.640
89791SOL     OW71146   1.255   0.200   0.595
89791SOL    HW171147   1.342   0.241   0.597
89791SOL    HW271148   1.195   0.269   0.620
89792SOL     OW71149  13.606   9.315  11.170
89792SOL    HW171150  13.579   9.397  11.211
89792SOL    HW271151  13.680   9.339  11.115
89793SOL     OW71152  14.651   9.132   7.862
89793SOL    HW171153  14.616   9.184   7.790
89793SOL    HW271154  14.573   9.102   7.910
89794SOL     OW71155   0.609  14.045   8.320
89794SOL    HW171156   0.704  14.051   8.316
89794SOL    HW271157   0.591  13.971   8.377
89795SOL     OW71158   7.707   4.489  12.549
89795SOL    HW171159   7.764   4.413  12.538
89795SOL    HW271160   7.694   4.523  12.460
89796SOL     OW71161  14.046   2.029   9.948
89796SOL    HW171162  14.037   2.125   9.945
89796SOL    HW271163  14.134   2.012   9.915
89797SOL     OW71164   5.327   1.738  13.602
89797SOL    HW171165   5.266   1.746  13.675
89797SOL    HW271166   5.272   1.725  13.525
89798SOL     OW71167  14.674   0.834  10.550
89798SOL    HW171168  14.692   0.790  10.467
89798SOL    HW271169  14.585   0.868  10.540
89799SOL     OW71170  13.696  14.313   9.249
89799SOL    HW171171  13.686  14.320   9.154
89799SOL    HW271172  13.645  14.386   9.284
89800SOL     OW71173   4.921   1.313  12.898
89800SOL    HW171174   4.989   1.335  12.833
89800SOL    HW271175   4.878   1.235  12.863
89801SOL     OW71176  11.563   0.264   2.547
89801SOL    HW171177  11.524   0.344   2.582
89801SOL    HW271178  11.488   0.212   2.518
89802SOL     OW71179   2.257  10.925   1.048
89802SOL    HW171180   2.323  10.870   1.090
89802SOL    HW271181   2.244  10.886   0.962
89803SOL     OW71182  12.451   9.509  13.793
89803SOL    HW171183  12.394   9.524  13.718
89803SOL    HW271184  12.497   9.592  13.806
89804SOL     OW71185  10.619  13.948   5.179
89804SOL    HW171186  10.591  13.917   5.092
89804SOL    HW271187  10.668  13.875   5.216
89805SOL     OW71188  13.923  10.292  14.775
89805SOL    HW171189  13.969  10.280  14.692
89805SOL    HW271190  13.880  10.208  14.790
89806SOL     OW71191   7.048   2.887   0.080
89806SOL    HW171192   7.007   2.822   0.137
89806SOL    HW271193   6.993   2.888   0.002
89807SOL     OW71194   1.809  14.447  11.404
89807SOL    HW171195   1.777  14.483  11.321
89807SOL    HW271196   1.903  14.437  11.392
89808SOL     OW71197   0.232   0.703   5.437
89808SOL    HW171198   0.267   0.789   5.459
89808SOL    HW271199   0.138   0.712   5.449
89809SOL     OW71200   3.253   7.705   3.431
89809SOL    HW171201   3.296   7.622   3.411
89809SOL    HW271202   3.311   7.772   3.394
89810SOL     OW71203   3.873   6.691   6.258
89810SOL    HW171204   3.942   6.738   6.211
89810SOL    HW271205   3.881   6.721   6.349
89811SOL     OW71206  10.649   2.630   0.862
89811SOL    HW171207  10.721   2.691   0.878
89811SOL    HW271208  10.643   2.580   0.943
89812SOL     OW71209   4.852   2.639  11.999
89812SOL    HW171210   4.907   2.697  11.946
89812SOL    HW271211   4.862   2.553  11.958
89813SOL     OW71212  10.842  10.572   3.205
89813SOL    HW171213  10.787  10.639   3.245
89813SOL    HW271214  10.894  10.536   3.278
89814SOL     OW71215   3.654  12.026   5.389
89814SOL    HW171216   3.567  12.029   5.428
89814SOL    HW271217   3.707  11.979   5.453
89815SOL     OW71218   0.465   7.035   1.362
89815SOL    HW171219   0.434   6.987   1.438
89815SOL    HW271220   0.391   7.089   1.335
89816SOL     OW71221   4.452   8.692  12.693
89816SOL    HW171222   4.471   8.695  12.599
89816SOL    HW271223   4.383   8.626  12.702
89817SOL     OW71224  14.767  13.037  13.535
89817SOL    HW171225  14.753  13.065  13.626
89817SOL    HW271226  14.818  13.107  13.496
89818SOL     OW71227   4.755   1.492   7.354
89818SOL    HW171228   4.801   1.408   7.357
89818SOL    HW271229   4.665   1.469   7.335
89819SOL     OW71230   9.183   7.072  11.398
89819SOL    HW171231   9.128   7.150  11.394
89819SOL    HW271232   9.154   7.025  11.476
89820SOL     OW71233   1.294   3.476   5.596
89820SOL    HW171234   1.268   3.568   5.604
89820SOL    HW271235   1.365   3.465   5.659
89821SOL     OW71236  10.680   9.518  12.405
89821SOL    HW171237  10.746   9.473  12.350
89821SOL    HW271238  10.675   9.464  12.484
89822SOL     OW71239   7.498   5.023   1.684
89822SOL    HW171240   7.538   5.063   1.761
89822SOL    HW271241   7.493   4.930   1.705
89823SOL     OW71242  13.769  10.349   0.448
89823SOL    HW171243  13.787  10.320   0.358
89823SOL    HW271244  13.771  10.444   0.442
89824SOL     OW71245  13.798   2.000   2.698
89824SOL    HW171246  13.737   2.072   2.678
89824SOL    HW271247  13.749   1.921   2.677
89825SOL     OW71248  11.317   9.999  13.269
89825SOL    HW171249  11.379   9.928  13.280
89825SOL    HW271250  11.322  10.022  13.177
89826SOL     OW71251  10.555   8.089   3.450
89826SOL    HW171252  10.539   8.030   3.523
89826SOL    HW271253  10.598   8.165   3.489
89827SOL     OW71254   3.395   0.216   5.951
89827SOL    HW171255   3.445   0.137   5.930
89827SOL    HW271256   3.458   0.288   5.942
89828SOL     OW71257  14.776  11.662   7.815
89828SOL    HW171258  14.703  11.676   7.754
89828SOL    HW271259  14.845  11.719   7.783
89829SOL     OW71260  10.474  12.258   9.333
89829SOL    HW171261  10.419  12.188   9.297
89829SOL    HW271262  10.413  12.329   9.351
89830SOL     OW71263  12.775   7.323   9.966
89830SOL    HW171264  12.792   7.305  10.058
89830SOL    HW271265  12.695   7.273   9.946
89831SOL     OW71266   9.494  12.036  13.530
89831SOL    HW171267   9.530  12.102  13.590
89831SOL    HW271268   9.400  12.052  13.530
89832SOL     OW71269   0.925  12.534  11.619
89832SOL    HW171270   0.973  12.564  11.696
89832SOL    HW271271   0.862  12.605  11.601
89833SOL     OW71272   0.572   9.057   4.894
89833SOL    HW171273   0.517   9.086   4.967
89833SOL    HW271274   0.654   9.105   4.906
89834SOL     OW71275  13.226  12.330  13.345
89834SOL    HW171276  13.301  12.385  13.366
89834SOL    HW271277  13.263  12.243  13.330
89835SOL     OW71278   8.703   9.264   3.373
89835SOL    HW171279   8.748   9.221   3.445
89835SOL    HW271280   8.690   9.196   3.307
89836SOL     OW71281   5.389  13.663  12.987
89836SOL    HW171282   5.381  13.592  12.923
89836SOL    HW271283   5.403  13.741  12.935
89837SOL     OW71284  14.044   5.409  14.478
89837SOL    HW171285  14.076   5.464  14.406
89837SOL    HW271286  13.989   5.343  14.436
89838SOL     OW71287   9.382  14.823   5.233
89838SOL    HW171288   9.388  14.811   5.138
89838SOL    HW271289   9.375   0.040   5.245
89839SOL     OW71290   9.032   6.471   1.809
89839SOL    HW171291   8.960   6.453   1.748
89839SOL    HW271292   8.988   6.489   1.892
89840SOL     OW71293  10.943   6.311  10.816
89840SOL    HW171294  10.931   6.367  10.739
89840SOL    HW271295  10.855   6.288  10.844
89841SOL     OW71296  11.210   3.266  12.609
89841SOL    HW171297  11.174   3.341  12.561
89841SOL    HW271298  11.220   3.298  12.699
89842SOL     OW71299   9.087  11.282   4.613
89842SOL    HW171300   9.060  11.257   4.524
89842SOL    HW271301   9.166  11.335   4.600
89843SOL     OW71302  11.324   8.320  12.079
89843SOL    HW171303  11.253   8.332  12.141
89843SOL    HW271304  11.314   8.392  12.017
89844SOL     OW71305   5.477   9.946   4.335
89844SOL    HW171306   5.395   9.906   4.305
89844SOL    HW271307   5.452  10.036   4.359
89845SOL     OW71308   7.515  10.851  13.520
89845SOL    HW171309   7.600  10.818  13.489
89845SOL    HW271310   7.456  10.839  13.446
89846SOL     OW71311   1.448   6.304   1.624
89846SOL    HW171312   1.437   6.290   1.718
89846SOL    HW271313   1.425   6.219   1.585
89847SOL     OW71314  14.857   3.654   1.176
89847SOL    HW171315   0.045   3.652   1.107
89847SOL    HW271316   0.027   3.627   1.255
89848SOL     OW71317   0.731  13.756   0.656
89848SOL    HW171318   0.766  13.820   0.718
89848SOL    HW271319   0.746  13.671   0.698
89849SOL     OW71320   2.086   0.813   0.113
89849SOL    HW171321   2.117   0.789   0.025
89849SOL    HW271322   2.127   0.897   0.130
89850SOL     OW71323  11.515   0.108  13.760
89850SOL    HW171324  11.610   0.109  13.775
89850SOL    HW271325  11.485   0.030  13.806
89851SOL     OW71326  11.797   5.226  13.109
89851SOL    HW171327  11.837   5.207  13.025
89851SOL    HW271328  11.854   5.183  13.173
89852SOL     OW71329   9.141   3.077   4.315
89852SOL    HW171330   9.110   3.031   4.237
89852SOL    HW271331   9.236   3.063   4.314
89853SOL     OW71332  13.127   1.125  12.751
89853SOL    HW171333  13.191   1.175  12.802
89853SOL    HW271334  13.176   1.094  12.675
89854SOL     OW71335   8.334  10.643   1.324
89854SOL    HW171336   8.325  10.702   1.399
89854SOL    HW271337   8.358  10.701   1.252
89855SOL     OW71338   8.386  12.614   3.894
89855SOL    HW171339   8.365  12.668   3.818
89855SOL    HW271340   8.308  12.619   3.950
89856SOL     OW71341   7.170   1.732  12.605
89856SOL    HW171342   7.108   1.672  12.646
89856SOL    HW271343   7.254   1.687  12.610
89857SOL     OW71344   2.947  10.109   4.173
89857SOL    HW171345   3.026  10.153   4.141
89857SOL    HW271346   2.877  10.145   4.119
89858SOL     OW71347  13.910   5.436   8.035
89858SOL    HW171348  13.818   5.422   8.057
89858SOL    HW271349  13.928   5.526   8.063
89859SOL     OW71350   2.630  12.083   6.222
89859SOL    HW171351   2.725  12.085   6.235
89859SOL    HW271352   2.598  12.025   6.292
89860SOL     OW71353  10.674   2.548  10.392
89860SOL    HW171354  10.740   2.482  10.373
89860SOL    HW271355  10.595   2.498  10.415
89861SOL     OW71356   3.784   3.570   9.165
89861SOL    HW171357   3.766   3.602   9.077
89861SOL    HW271358   3.722   3.618   9.221
89862SOL     OW71359   4.676   3.270   7.579
89862SOL    HW171360   4.700   3.362   7.594
89862SOL    HW271361   4.740   3.221   7.630
89863SOL     OW71362   0.032   2.853  14.673
89863SOL    HW171363  14.854   2.803  14.612
89863SOL    HW271364   0.068   2.786  14.732
89864SOL     OW71365  10.967   2.994   9.269
89864SOL    HW171366  11.025   3.068   9.251
89864SOL    HW271367  11.026   2.924   9.297
89865SOL     OW71368   9.265  11.058   0.695
89865SOL    HW171369   9.288  11.148   0.720
89865SOL    HW271370   9.318  11.003   0.751
89866SOL     OW71371  12.029   2.042   9.141
89866SOL    HW171372  12.038   2.119   9.198
89866SOL    HW271373  11.997   2.077   9.058
89867SOL     OW71374  11.294   4.317   3.644
89867SOL    HW171375  11.362   4.384   3.651
89867SOL    HW271376  11.213   4.366   3.627
89868SOL     OW71377  14.015   9.597   7.869
89868SOL    HW171378  13.933   9.628   7.907
89868SOL    HW271379  14.062   9.557   7.943
89869SOL     OW71380   9.756  14.672   6.155
89869SOL    HW171381   9.826  14.699   6.094
89869SOL    HW271382   9.787  14.699   6.241
89870SOL     OW71383   4.120   4.985   1.308
89870SOL    HW171384   4.171   4.905   1.294
89870SOL    HW271385   4.112   5.023   1.220
89871SOL     OW71386   2.438  12.423  12.336
89871SOL    HW171387   2.350  12.457  12.320
89871SOL    HW271388   2.446  12.348  12.276
89872SOL     OW71389  13.315   3.534  13.025
89872SOL    HW171390  13.346   3.623  13.013
89872SOL    HW271391  13.224   3.543  13.054
89873SOL     OW71392   1.831   4.288  12.996
89873SOL    HW171393   1.828   4.259  12.905
89873SOL    HW271394   1.762   4.238  13.039
89874SOL     OW71395   6.538   2.425   8.843
89874SOL    HW171396   6.608   2.415   8.908
89874SOL    HW271397   6.582   2.408   8.759
89875SOL     OW71398   6.724   8.324   6.411
89875SOL    HW171399   6.691   8.280   6.333
89875SOL    HW271400   6.746   8.412   6.382
89876SOL     OW71401   6.513  12.093   0.851
89876SOL    HW171402   6.543  12.006   0.826
89876SOL    HW271403   6.587  12.131   0.899
89877SOL     OW71404   6.258   1.994   8.316
89877SOL    HW171405   6.280   1.902   8.326
89877SOL    HW271406   6.166   2.001   8.343
89878SOL     OW71407  12.776  10.244  14.140
89878SOL    HW171408  12.754  10.182  14.210
89878SOL    HW271409  12.860  10.212  14.107
89879SOL     OW71410   0.077   0.825   9.596
89879SOL    HW171411   0.054   0.733   9.581
89879SOL    HW271412   0.004   0.860   9.647
89880SOL     OW71413   5.160   7.143   2.516
89880SOL    HW171414   5.250   7.174   2.526
89880SOL    HW271415   5.107   7.223   2.520
89881SOL     OW71416  12.592  11.729  10.460
89881SOL    HW171417  12.594  11.807  10.404
89881SOL    HW271418  12.639  11.662  10.410
89882SOL     OW71419  11.038  13.416  14.578
89882SOL    HW171420  11.077  13.455  14.656
89882SOL    HW271421  11.057  13.479  14.508
89883SOL     OW71422  11.266   9.042   0.238
89883SOL    HW171423  11.327   9.052   0.311
89883SOL    HW271424  11.245   8.948   0.239
89884SOL     OW71425  10.197   5.119   2.456
89884SOL    HW171426  10.166   5.144   2.368
89884SOL    HW271427  10.207   5.203   2.501
89885SOL     OW71428   5.443  10.229   0.325
89885SOL    HW171429   5.351  10.209   0.339
89885SOL    HW271430   5.482  10.228   0.412
89886SOL     OW71431   8.679   2.832   3.498
89886SOL    HW171432   8.625   2.895   3.546
89886SOL    HW271433   8.687   2.869   3.410
89887SOL     OW71434   1.690   8.780   7.502
89887SOL    HW171435   1.770   8.736   7.476
89887SOL    HW271436   1.716   8.836   7.576
89888SOL     OW71437   9.376   0.076   6.986
89888SOL    HW171438   9.323   0.123   6.922
89888SOL    HW271439   9.397  14.870   6.943
89889SOL     OW71440  10.967   8.352   3.342
89889SOL    HW171441  10.934   8.408   3.271
89889SOL    HW271442  10.907   8.278   3.345
89890SOL     OW71443   8.955  14.125   8.748
89890SOL    HW171444   8.865  14.112   8.717
89890SOL    HW271445   8.945  14.171   8.831
89891SOL     OW71446   6.285  10.565   4.515
89891SOL    HW171447   6.283  10.491   4.455
89891SOL    HW271448   6.331  10.534   4.592
89892SOL     OW71449   7.812  14.507   2.266
89892SOL    HW171450   7.907  14.514   2.257
89892SOL    HW271451   7.788  14.579   2.325
89893SOL     OW71452  11.489   9.894  11.061
89893SOL    HW171453  11.581   9.921  11.058
89893SOL    HW271454  11.451   9.930  10.981
89894SOL     OW71455  10.327  14.343   7.711
89894SOL    HW171456  10.405  14.394   7.688
89894SOL    HW271457  10.303  14.298   7.630
89895SOL     OW71458   2.310   7.912   2.451
89895SOL    HW171459   2.395   7.928   2.492
89895SOL    HW271460   2.246   7.951   2.511
89896SOL     OW71461  10.497  13.868   5.658
89896SOL    HW171462  10.577  13.901   5.617
89896SOL    HW271463  10.453  13.947   5.691
89897SOL     OW71464   6.260   2.859  12.986
89897SOL    HW171465   6.218   2.945  12.979
89897SOL    HW271466   6.303   2.860  13.071
89898SOL     OW71467   3.482  13.951  13.468
89898SOL    HW171468   3.507  13.873  13.518
89898SOL    HW271469   3.560  13.972  13.417
89899SOL     OW71470  11.777   9.889   6.614
89899SOL    HW171471  11.837   9.907   6.686
89899SOL    HW271472  11.833   9.856   6.544
89900SOL     OW71473   6.873   3.871   0.498
89900SOL    HW171474   6.948   3.811   0.505
89900SOL    HW271475   6.892   3.940   0.562
89901SOL     OW71476  14.424   5.513   7.029
89901SOL    HW171477  14.357   5.539   7.093
89901SOL    HW271478  14.497   5.572   7.046
89902SOL     OW71479   7.892   5.146   8.371
89902SOL    HW171480   7.921   5.185   8.454
89902SOL    HW271481   7.804   5.182   8.358
89903SOL     OW71482   9.199   7.932   9.660
89903SOL    HW171483   9.236   8.019   9.672
89903SOL    HW271484   9.255   7.875   9.712
89904SOL     OW71485   0.212   9.686   7.825
89904SOL    HW171486   0.208   9.638   7.908
89904SOL    HW271487   0.207   9.618   7.758
89905SOL     OW71488   3.928   6.248   9.564
89905SOL    HW171489   4.019   6.268   9.543
89905SOL    HW271490   3.932   6.206   9.651
89906SOL     OW71491  13.411  13.900   7.268
89906SOL    HW171492  13.389  13.842   7.341
89906SOL    HW271493  13.468  13.967   7.306
89907SOL     OW71494   9.650  13.012   1.414
89907SOL    HW171495   9.707  13.047   1.482
89907SOL    HW271496   9.595  13.087   1.388
89908SOL     OW71497   0.550   8.997  10.384
89908SOL    HW171498   0.628   9.053  10.376
89908SOL    HW271499   0.551   8.968  10.475
89909SOL     OW71500   0.668   8.674  12.600
89909SOL    HW171501   0.630   8.597  12.558
89909SOL    HW271502   0.618   8.748  12.564
89910SOL     OW71503   5.529   0.752   8.209
89910SOL    HW171504   5.533   0.682   8.144
89910SOL    HW271505   5.484   0.713   8.283
89911SOL     OW71506   6.718   0.983   1.389
89911SOL    HW171507   6.796   0.931   1.369
89911SOL    HW271508   6.648   0.942   1.338
89912SOL     OW71509  10.955   8.137   4.564
89912SOL    HW171510  11.007   8.135   4.483
89912SOL    HW271511  10.967   8.225   4.598
89913SOL     OW71512  11.740   8.198   3.414
89913SOL    HW171513  11.657   8.191   3.366
89913SOL    HW271514  11.803   8.149   3.362
89914SOL     OW71515   2.567  13.437   8.478
89914SOL    HW171516   2.627  13.458   8.407
89914SOL    HW271517   2.621  13.390   8.541
89915SOL     OW71518  13.248   4.749   4.656
89915SOL    HW171519  13.306   4.779   4.726
89915SOL    HW271520  13.275   4.799   4.579
89916SOL     OW71521   8.772   9.812   8.872
89916SOL    HW171522   8.790   9.761   8.951
89916SOL    HW271523   8.690   9.856   8.889
89917SOL     OW71524   1.925   1.175  11.551
89917SOL    HW171525   2.014   1.207  11.570
89917SOL    HW271526   1.925   1.162  11.456
89918SOL     OW71527   6.580  11.494   2.896
89918SOL    HW171528   6.508  11.527   2.843
89918SOL    HW271529   6.621  11.573   2.932
89919SOL     OW71530   9.196   2.380   6.490
89919SOL    HW171531   9.260   2.438   6.532
89919SOL    HW271532   9.198   2.300   6.544
89920SOL     OW71533  14.775  14.829   3.440
89920SOL    HW171534  14.790  14.873   3.523
89920SOL    HW271535  14.716   0.010   3.392
89921SOL     OW71536   1.133  10.066   5.339
89921SOL    HW171537   1.071  10.102   5.402
89921SOL    HW271538   1.114   9.972   5.338
89922SOL     OW71539   8.965   3.591   9.312
89922SOL    HW171540   8.917   3.582   9.394
89922SOL    HW271541   9.025   3.664   9.327
89923SOL     OW71542   7.655   8.318   3.685
89923SOL    HW171543   7.631   8.230   3.657
89923SOL    HW271544   7.613   8.375   3.620
89924SOL     OW71545   9.544   5.529  10.684
89924SOL    HW171546   9.611   5.554  10.748
89924SOL    HW271547   9.564   5.581  10.606
89925SOL     OW71548   5.126  11.739   0.756
89925SOL    HW171549   5.052  11.775   0.805
89925SOL    HW271550   5.108  11.762   0.665
89926SOL     OW71551  11.242   1.238   6.670
89926SOL    HW171552  11.245   1.329   6.700
89926SOL    HW271553  11.184   1.240   6.594
89927SOL     OW71554  12.056   1.525   8.953
89927SOL    HW171555  12.057   1.617   8.981
89927SOL    HW271556  11.964   1.500   8.955
89928SOL     OW71557   0.124   7.224   0.988
89928SOL    HW171558   0.151   7.206   1.078
89928SOL    HW271559   0.122   7.138   0.946
89929SOL     OW71560   2.115  14.388   9.102
89929SOL    HW171561   2.023  14.365   9.110
89929SOL    HW271562   2.157  14.348   9.178
89930SOL     OW71563   0.344   7.848  11.416
89930SOL    HW171564   0.394   7.871  11.495
89930SOL    HW271565   0.255   7.881  11.434
89931SOL     OW71566   4.811  13.550   9.321
89931SOL    HW171567   4.841  13.468   9.361
89931SOL    HW271568   4.772  13.599   9.393
89932SOL     OW71569  12.347   5.108   2.986
89932SOL    HW171570  12.412   5.178   2.982
89932SOL    HW271571  12.265   5.150   2.959
89933SOL     OW71572  12.431   5.224   7.858
89933SOL    HW171573  12.404   5.143   7.814
89933SOL    HW271574  12.512   5.249   7.815
89934SOL     OW71575   2.894   1.911   2.151
89934SOL    HW171576   2.804   1.943   2.157
89934SOL    HW271577   2.893   1.827   2.197
89935SOL     OW71578   6.167   1.717   9.588
89935SOL    HW171579   6.176   1.810   9.608
89935SOL    HW271580   6.220   1.703   9.510
89936SOL     OW71581   2.956  11.726   2.957
89936SOL    HW171582   2.867  11.699   2.932
89936SOL    HW271583   3.011  11.652   2.935
89937SOL     OW71584   2.948   7.529   5.584
89937SOL    HW171585   2.867   7.484   5.559
89937SOL    HW271586   3.001   7.462   5.627
89938SOL     OW71587   9.388   5.268   2.211
89938SOL    HW171588   9.319   5.293   2.272
89938SOL    HW271589   9.392   5.341   2.148
89939SOL     OW71590   2.313   7.093  11.978
89939SOL    HW171591   2.390   7.112  12.032
89939SOL    HW271592   2.345   7.094  11.888
89940SOL     OW71593   4.169   8.231   8.075
89940SOL    HW171594   4.106   8.301   8.090
89940SOL    HW271595   4.209   8.253   7.990
89941SOL     OW71596  10.298   8.518   9.174
89941SOL    HW171597  10.244   8.595   9.191
89941SOL    HW271598  10.267   8.485   9.090
89942SOL     OW71599   2.043   3.777  10.892
89942SOL    HW171600   2.068   3.767  10.800
89942SOL    HW271601   2.121   3.812  10.934
89943SOL     OW71602  14.734  10.156   9.230
89943SOL    HW171603  14.739  10.186   9.320
89943SOL    HW271604  14.649  10.186   9.198
89944SOL     OW71605  12.070  10.222   9.820
89944SOL    HW171606  12.031  10.271   9.893
89944SOL    HW271607  12.023  10.252   9.742
89945SOL     OW71608  13.413   3.901   2.980
89945SOL    HW171609  13.375   3.850   3.051
89945SOL    HW271610  13.338   3.935   2.932
89946SOL     OW71611   2.860  14.778  13.702
89946SOL    HW171612   2.886  14.807  13.790
89946SOL    HW271613   2.794  14.842  13.675
89947SOL     OW71614   8.832  10.840   5.490
89947SOL    HW171615   8.763  10.788   5.448
89947SOL    HW271616   8.786  10.897   5.552
89948SOL     OW71617  12.273   5.293  11.298
89948SOL    HW171618  12.286   5.253  11.384
89948SOL    HW271619  12.361   5.299  11.260
89949SOL     OW71620   6.145  13.492  11.648
89949SOL    HW171621   6.226  13.489  11.699
89949SOL    HW271622   6.107  13.405  11.657
89950SOL     OW71623   9.016   1.381   4.645
89950SOL    HW171624   9.085   1.348   4.587
89950SOL    HW271625   8.977   1.454   4.597
89951SOL     OW71626  13.713   5.082   9.784
89951SOL    HW171627  13.625   5.091   9.748
89951SOL    HW271628  13.764   5.150   9.739
89952SOL     OW71629  12.697   4.969   9.487
89952SOL    HW171630  12.649   5.009   9.559
89952SOL    HW271631  12.788   4.971   9.515
89953SOL     OW71632  13.480   1.770   1.625
89953SOL    HW171633  13.565   1.812   1.614
89953SOL    HW271634  13.438   1.819   1.697
89954SOL     OW71635  10.835  11.081   2.682
89954SOL    HW171636  10.792  11.166   2.693
89954SOL    HW271637  10.776  11.031   2.626
89955SOL     OW71638   5.963   1.493   0.886
89955SOL    HW171639   5.982   1.461   0.798
89955SOL    HW271640   5.884   1.546   0.876
89956SOL     OW71641  12.964   5.929  13.189
89956SOL    HW171642  12.962   5.914  13.284
89956SOL    HW271643  12.873   5.948  13.166
89957SOL     OW71644   1.236   7.690  14.233
89957SOL    HW171645   1.299   7.663  14.300
89957SOL    HW271646   1.166   7.733  14.281
89958SOL     OW71647  10.630   6.109  12.722
89958SOL    HW171648  10.713   6.139  12.759
89958SOL    HW271649  10.564   6.167  12.760
89959SOL     OW71650   3.901   3.912   5.185
89959SOL    HW171651   3.819   3.956   5.208
89959SOL    HW271652   3.962   3.937   5.255
89960SOL     OW71653   0.073   8.245   5.988
89960SOL    HW171654   0.159   8.203   5.997
89960SOL    HW271655   0.083   8.329   6.032
89961SOL     OW71656   1.660   8.226   6.896
89961SOL    HW171657   1.683   8.303   6.948
89961SOL    HW271658   1.570   8.242   6.868
89962SOL     OW71659   8.138   5.007   6.211
89962SOL    HW171660   8.214   5.055   6.176
89962SOL    HW271661   8.072   5.017   6.143
89963SOL     OW71662   3.762   7.066   0.958
89963SOL    HW171663   3.793   7.138   0.903
89963SOL    HW271664   3.668   7.062   0.940
89964SOL     OW71665  13.088  12.399   6.481
89964SOL    HW171666  13.100  12.320   6.533
89964SOL    HW271667  13.162  12.455   6.505
89965SOL     OW71668  13.589  12.688  10.457
89965SOL    HW171669  13.581  12.773  10.500
89965SOL    HW271670  13.528  12.631  10.504
89966SOL     OW71671   2.389  14.171   1.233
89966SOL    HW171672   2.458  14.213   1.181
89966SOL    HW271673   2.435  14.135   1.309
89967SOL     OW71674   4.512   1.007   2.274
89967SOL    HW171675   4.563   0.930   2.248
89967SOL    HW271676   4.577   1.078   2.276
89968SOL     OW71677  13.490   0.360  13.893
89968SOL    HW171678  13.405   0.330  13.925
89968SOL    HW271679  13.478   0.453  13.875
89969SOL     OW71680   8.107   7.153   8.600
89969SOL    HW171681   8.014   7.132   8.611
89969SOL    HW271682   8.132   7.109   8.519
89970SOL     OW71683  14.722   3.646   9.407
89970SOL    HW171684  14.795   3.701   9.377
89970SOL    HW271685  14.649   3.707   9.417
89971SOL     OW71686   6.826   7.709  11.473
89971SOL    HW171687   6.883   7.754  11.535
89971SOL    HW271688   6.883   7.642  11.434
89972SOL     OW71689  14.607  10.409  10.773
89972SOL    HW171690  14.672  10.463  10.816
89972SOL    HW271691  14.534  10.406  10.834
89973SOL     OW71692   0.769   9.242   8.642
89973SOL    HW171693   0.835   9.308   8.624
89973SOL    HW271694   0.697   9.263   8.582
89974SOL     OW71695   6.014  14.111   5.497
89974SOL    HW171696   6.058  14.078   5.576
89974SOL    HW271697   6.046  14.200   5.488
89975SOL     OW71698   4.737   6.280   6.395
89975SOL    HW171699   4.655   6.251   6.435
89975SOL    HW271700   4.739   6.375   6.410
89976SOL     OW71701   5.018  14.829   9.632
89976SOL    HW171702   4.928  14.860   9.628
89976SOL    HW271703   5.053  14.842   9.544
89977SOL     OW71704  12.135  11.602   2.424
89977SOL    HW171705  12.067  11.535   2.430
89977SOL    HW271706  12.089  11.681   2.394
89978SOL     OW71707   6.703  10.456   7.122
89978SOL    HW171708   6.790  10.490   7.143
89978SOL    HW271709   6.699  10.458   7.026
89979SOL     OW71710   0.734   1.766   3.152
89979SOL    HW171711   0.742   1.674   3.127
89979SOL    HW271712   0.644   1.774   3.182
89980SOL     OW71713  10.164  10.789  10.719
89980SOL    HW171714  10.167  10.817  10.628
89980SOL    HW271715  10.088  10.732  10.724
89981SOL     OW71716   7.618   7.606   8.070
89981SOL    HW171717   7.667   7.545   8.126
89981SOL    HW271718   7.609   7.560   7.987
89982SOL     OW71719   8.269   7.168   2.829
89982SOL    HW171720   8.190   7.146   2.780
89982SOL    HW271721   8.325   7.214   2.767
89983SOL     OW71722  10.757   7.009   6.734
89983SOL    HW171723  10.709   6.954   6.797
89983SOL    HW271724  10.690   7.066   6.696
89984SOL     OW71725   0.486   8.580   7.655
89984SOL    HW171726   0.578   8.553   7.656
89984SOL    HW271727   0.480   8.641   7.581
89985SOL     OW71728   6.461  11.102  12.198
89985SOL    HW171729   6.462  11.149  12.115
89985SOL    HW271730   6.373  11.115  12.233
89986SOL     OW71731   2.584   3.049   1.643
89986SOL    HW171732   2.510   3.107   1.625
89986SOL    HW271733   2.659   3.094   1.603
89987SOL     OW71734   2.787   2.057  12.768
89987SOL    HW171735   2.768   2.101  12.685
89987SOL    HW271736   2.703   2.057  12.815
89988SOL     OW71737   4.384  11.412   9.708
89988SOL    HW171738   4.318  11.460   9.658
89988SOL    HW271739   4.461  11.411   9.651
89989SOL     OW71740  12.541   5.147  11.317
89989SOL    HW171741  12.609   5.109  11.261
89989SOL    HW271742  12.586   5.214  11.368
89990SOL     OW71743   1.491  11.811  11.604
89990SOL    HW171744   1.408  11.763  11.604
89990SOL    HW271745   1.487  11.866  11.683
89991SOL     OW71746   6.181   8.047   8.254
89991SOL    HW171747   6.259   7.997   8.277
89991SOL    HW271748   6.148   8.081   8.337
89992SOL     OW71749   6.676   8.508   8.931
89992SOL    HW171750   6.678   8.471   8.842
89992SOL    HW271751   6.583   8.517   8.951
89993SOL     OW71752   5.682   4.819   7.455
89993SOL    HW171753   5.618   4.853   7.393
89993SOL    HW271754   5.631   4.767   7.517
89994SOL     OW71755   3.989   9.285  11.348
89994SOL    HW171756   3.933   9.272  11.424
89994SOL    HW271757   3.946   9.354  11.298
89995SOL     OW71758   8.670   5.962   6.283
89995SOL    HW171759   8.649   6.049   6.247
89995SOL    HW271760   8.760   5.970   6.313
89996SOL     OW71761   1.831   9.314   4.452
89996SOL    HW171762   1.817   9.246   4.386
89996SOL    HW271763   1.847   9.393   4.401
89997SOL     OW71764   1.219   9.571   0.702
89997SOL    HW171765   1.295   9.628   0.712
89997SOL    HW271766   1.220   9.543   0.611
89998SOL     OW71767   8.077  10.613   1.434
89998SOL    HW171768   8.163  10.604   1.395
89998SOL    HW271769   8.057  10.526   1.469
89999SOL     OW71770   2.438   8.084   0.220
89999SOL    HW171771   2.368   8.023   0.243
89999SOL    HW271772   2.463   8.058   0.131
90000SOL     OW71773   3.048  12.705  10.177
90000SOL    HW171774   3.117  12.771  10.180
90000SOL    HW271775   3.080  12.633  10.231
90001SOL     OW71776   4.184   3.561   1.126
90001SOL    HW171777   4.259   3.613   1.156
90001SOL    HW271778   4.110   3.622   1.129
90002SOL     OW71779   6.658   4.346   3.778
90002SOL    HW171780   6.655   4.271   3.838
90002SOL    HW271781   6.596   4.324   3.709
90003SOL     OW71782  14.518   1.155  10.430
90003SOL    HW171783  14.521   1.204  10.512
90003SOL    HW271784  14.445   1.193  10.382
90004SOL     OW71785  13.466  11.232   2.140
90004SOL    HW171786  13.437  11.151   2.098
90004SOL    HW271787  13.439  11.302   2.080
90005SOL     OW71788   0.382  13.438   5.743
90005SOL    HW171789   0.402  13.479   5.659
90005SOL    HW271790   0.372  13.345   5.723
90006SOL     OW71791   8.964   8.790   8.205
90006SOL    HW171792   9.059   8.798   8.198
90006SOL    HW271793   8.948   8.777   8.299
90007SOL     OW71794   8.741   2.924  11.828
90007SOL    HW171795   8.698   2.899  11.746
90007SOL    HW271796   8.726   3.018  11.836
90008SOL     OW71797  14.466  14.339   4.498
90008SOL    HW171798  14.420  14.292   4.430
90008SOL    HW271799  14.470  14.277   4.572
90009SOL     OW71800  11.158  12.334   0.042
90009SOL    HW171801  11.194  12.246   0.034
90009SOL    HW271802  11.232  12.387   0.072
90010SOL     OW71803  12.708   7.155   6.816
90010SOL    HW171804  12.664   7.150   6.731
90010SOL    HW271805  12.794   7.192   6.795
90011SOL     OW71806   6.985   2.356   7.348
90011SOL    HW171807   7.050   2.335   7.281
90011SOL    HW271808   6.901   2.336   7.307
90012SOL     OW71809   9.985   1.873   6.587
90012SOL    HW171810   9.905   1.922   6.602
90012SOL    HW271811  10.053   1.940   6.574
90013SOL     OW71812   8.252   4.911  11.437
90013SOL    HW171813   8.234   4.928  11.345
90013SOL    HW271814   8.315   4.978  11.462
90014SOL     OW71815   4.045   5.824   9.523
90014SOL    HW171816   4.006   5.742   9.493
90014SOL    HW271817   4.004   5.892   9.469
90015SOL     OW71818  14.142   6.112  12.655
90015SOL    HW171819  14.136   6.053  12.579
90015SOL    HW271820  14.205   6.179  12.628
90016SOL     OW71821   4.387   5.947   5.011
90016SOL    HW171822   4.349   5.928   5.097
90016SOL    HW271823   4.476   5.976   5.030
90017SOL     OW71824   2.492  14.084   6.536
90017SOL    HW171825   2.456  14.029   6.467
90017SOL    HW271826   2.471  14.039   6.618
90018SOL     OW71827   4.948  14.706   2.193
90018SOL    HW171828   4.883  14.659   2.245
90018SOL    HW271829   4.909  14.792   2.178
90019SOL     OW71830  10.649  11.405   5.475
90019SOL    HW171831  10.708  11.347   5.427
90019SOL    HW271832  10.668  11.492   5.441
90020SOL     OW71833   6.226   9.671  11.354
90020SOL    HW171834   6.165   9.621  11.409
90020SOL    HW271835   6.304   9.616  11.349
90021SOL     OW71836  12.984   2.662   3.131
90021SOL    HW171837  12.933   2.603   3.186
90021SOL    HW271838  12.997   2.740   3.184
90022SOL     OW71839   2.537   2.788  11.428
90022SOL    HW171840   2.624   2.825  11.415
90022SOL    HW271841   2.519   2.741  11.347
90023SOL     OW71842   4.253   8.393   2.015
90023SOL    HW171843   4.158   8.385   2.025
90023SOL    HW271844   4.281   8.447   2.089
90024SOL     OW71845   5.222   6.542   0.128
90024SOL    HW171846   5.192   6.531   0.218
90024SOL    HW271847   5.274   6.622   0.129
90025SOL     OW71848   0.799   2.347   1.591
90025SOL    HW171849   0.706   2.364   1.606
90025SOL    HW271850   0.802   2.305   1.505
90026SOL     OW71851  14.269  13.324   6.602
90026SOL    HW171852  14.320  13.360   6.530
90026SOL    HW271853  14.183  13.304   6.564
90027SOL     OW71854   3.756   3.908  13.422
90027SOL    HW171855   3.762   3.980  13.359
90027SOL    HW271856   3.837   3.916  13.474
90028SOL     OW71857  13.778  11.476   8.152
90028SOL    HW171858  13.832  11.406   8.116
90028SOL    HW271859  13.742  11.521   8.076
90029SOL     OW71860   4.514   3.654  14.799
90029SOL    HW171861   4.452   3.595  14.843
90029SOL    HW271862   4.557   3.701  14.871
90030SOL     OW71863   4.148   9.248   5.898
90030SOL    HW171864   4.199   9.176   5.858
90030SOL    HW271865   4.069   9.206   5.931
90031SOL     OW71866   5.828   5.104  12.199
90031SOL    HW171867   5.861   5.081  12.286
90031SOL    HW271868   5.751   5.048  12.187
90032SOL     OW71869  11.712   4.783   6.306
90032SOL    HW171870  11.621   4.800   6.330
90032SOL    HW271871  11.761   4.793   6.388
90033SOL     OW71872  11.087   4.432   9.890
90033SOL    HW171873  11.120   4.368   9.954
90033SOL    HW271874  11.059   4.379   9.815
90034SOL     OW71875   9.855  13.219   1.927
90034SOL    HW171876   9.928  13.268   1.891
90034SOL    HW271877   9.860  13.133   1.884
90035SOL     OW71878  11.434   9.216  11.919
90035SOL    HW171879  11.528   9.225  11.899
90035SOL    HW271880  11.414   9.125  11.900
90036SOL     OW71881  12.487  10.696   3.364
90036SOL    HW171882  12.482  10.767   3.428
90036SOL    HW271883  12.488  10.616   3.416
90037SOL     OW71884   6.364   1.750   8.390
90037SOL    HW171885   6.368   1.689   8.317
90037SOL    HW271886   6.445   1.801   8.383
90038SOL     OW71887   9.519  11.087  12.084
90038SOL    HW171888   9.516  10.998  12.049
90038SOL    HW271889   9.607  11.097  12.118
90039SOL     OW71890   0.602   0.394   7.042
90039SOL    HW171891   0.617   0.327   7.108
90039SOL    HW271892   0.607   0.477   7.091
90040SOL     OW71893   1.002  14.281  13.831
90040SOL    HW171894   1.001  14.188  13.854
90040SOL    HW271895   0.956  14.324  13.904
90041SOL     OW71896  14.839   9.303   5.124
90041SOL    HW171897   0.009   9.308   5.208
90041SOL    HW271898  14.747   9.295   5.149
90042SOL     OW71899   9.091   6.030  13.020
90042SOL    HW171900   9.112   6.080  13.099
90042SOL    HW271901   9.056   6.096  12.959
90043SOL     OW71902   8.499  11.275  12.497
90043SOL    HW171903   8.416  11.234  12.473
90043SOL    HW271904   8.551  11.273  12.417
90044SOL     OW71905  14.712   5.484  10.322
90044SOL    HW171906  14.774   5.511  10.253
90044SOL    HW271907  14.628   5.474  10.276
90045SOL     OW71908   8.602   0.051   2.119
90045SOL    HW171909   8.572   0.033   2.030
90045SOL    HW271910   8.566  14.856   2.171
90046SOL     OW71911  12.580  14.357   6.023
90046SOL    HW171912  12.631  14.281   6.051
90046SOL    HW271913  12.521  14.376   6.096
90047SOL     OW71914   1.488   1.487   5.485
90047SOL    HW171915   1.408   1.507   5.436
90047SOL    HW271916   1.457   1.465   5.573
90048SOL     OW71917   1.809  12.989   4.650
90048SOL    HW171918   1.725  13.033   4.655
90048SOL    HW271919   1.851  13.006   4.735
90049SOL     OW71920   2.330  10.656   0.964
90049SOL    HW171921   2.362  10.605   0.890
90049SOL    HW271922   2.251  10.609   0.992
90050SOL     OW71923   0.390   3.639   6.409
90050SOL    HW171924   0.317   3.648   6.348
90050SOL    HW271925   0.435   3.723   6.406
90051SOL     OW71926   2.066   3.589   4.520
90051SOL    HW171927   2.011   3.592   4.598
90051SOL    HW271928   2.039   3.509   4.474
90052SOL     OW71929  12.773  13.057  12.901
90052SOL    HW171930  12.715  13.082  12.829
90052SOL    HW271931  12.859  13.092  12.876
90053SOL     OW71932   5.974   1.316   9.507
90053SOL    HW171933   5.979   1.258   9.431
90053SOL    HW271934   6.012   1.398   9.476
90054SOL     OW71935   2.191   6.229   0.208
90054SOL    HW171936   2.150   6.172   0.273
90054SOL    HW271937   2.121   6.246   0.144
90055SOL     OW71938   3.045   9.295   0.165
90055SOL    HW171939   3.071   9.210   0.201
90055SOL    HW271940   2.956   9.281   0.134
90056SOL     OW71941   9.865   7.939  14.290
90056SOL    HW171942   9.961   7.943  14.293
90056SOL    HW271943   9.843   7.960  14.199
90057SOL     OW71944  10.588  14.825   7.807
90057SOL    HW171945  10.582  14.742   7.760
90057SOL    HW271946  10.633  14.803   7.888
90058SOL     OW71947   9.182  10.370   1.708
90058SOL    HW171948   9.087  10.362   1.699
90058SOL    HW271949   9.198  10.464   1.709
90059SOL     OW71950  11.688  10.362   9.889
90059SOL    HW171951  11.673  10.270   9.908
90059SOL    HW271952  11.701  10.366   9.794
90060SOL     OW71953  11.052   3.107  11.972
90060SOL    HW171954  11.055   3.025  11.923
90060SOL    HW271955  11.116   3.164  11.929
90061SOL     OW71956  13.205   4.476   4.935
90061SOL    HW171957  13.278   4.536   4.923
90061SOL    HW271958  13.209   4.418   4.859
90062SOL     OW71959  10.573   7.595   9.488
90062SOL    HW171960  10.566   7.635   9.401
90062SOL    HW271961  10.583   7.502   9.471
90063SOL     OW71962   4.270   6.731  11.093
90063SOL    HW171963   4.364   6.736  11.080
90063SOL    HW271964   4.242   6.654  11.043
90064SOL     OW71965   5.524   0.170   7.529
90064SOL    HW171966   5.539   0.147   7.437
90064SOL    HW271967   5.565   0.256   7.540
90065SOL     OW71968  13.631   5.676  10.543
90065SOL    HW171969  13.614   5.663  10.637
90065SOL    HW271970  13.559   5.732  10.514
90066SOL     OW71971   8.080  12.327  12.486
90066SOL    HW171972   8.144  12.256  12.485
90066SOL    HW271973   8.067  12.349  12.394
90067SOL     OW71974   2.179  11.819  14.447
90067SOL    HW171975   2.232  11.846  14.371
90067SOL    HW271976   2.198  11.725  14.456
90068SOL     OW71977   4.145  14.548  12.617
90068SOL    HW171978   4.155  14.643  12.603
90068SOL    HW271979   4.180  14.508  12.538
90069SOL     OW71980  10.558   0.920  12.034
90069SOL    HW171981  10.603   0.924  12.118
90069SOL    HW271982  10.623   0.947  11.970
90070SOL     OW71983   0.410   5.988   5.663
90070SOL    HW171984   0.396   6.071   5.617
90070SOL    HW271985   0.407   5.921   5.595
90071SOL     OW71986  11.779   1.960   1.158
90071SOL    HW171987  11.696   2.008   1.153
90071SOL    HW271988  11.833   2.012   1.217
90072SOL     OW71989   5.746   4.847  10.770
90072SOL    HW171990   5.688   4.886  10.835
90072SOL    HW271991   5.691   4.836  10.692
90073SOL     OW71992   2.120   9.862  11.681
90073SOL    HW171993   2.112   9.957  11.667
90073SOL    HW271994   2.188   9.835  11.618
90074SOL     OW71995  14.653   5.178   2.512
90074SOL    HW171996  14.582   5.122   2.544
90074SOL    HW271997  14.618   5.216   2.431
90075SOL     OW71998   8.103  12.442   8.347
90075SOL    HW171999   8.138  12.489   8.423
90075SOL    HW272000   8.008  12.453   8.354
90076SOL     OW72001   8.723  14.837   3.409
90076SOL    HW172002   8.665  14.795   3.472
90076SOL    HW272003   8.784  14.768   3.384
90077SOL     OW72004   2.333  12.074   5.771
90077SOL    HW172005   2.387  11.997   5.786
90077SOL    HW272006   2.303  12.100   5.859
90078SOL     OW72007   7.847   3.873  10.804
90078SOL    HW172008   7.839   3.812  10.730
90078SOL    HW272009   7.848   3.960  10.763
90079SOL     OW72010   8.331   9.998   4.605
90079SOL    HW172011   8.343  10.080   4.654
90079SOL    HW272012   8.244   9.967   4.632
90080SOL     OW72013   9.630   3.894  11.806
90080SOL    HW172014   9.678   3.852  11.734
90080SOL    HW272015   9.586   3.969  11.765
90081SOL     OW72016   9.300  13.140  11.614
90081SOL    HW172017   9.351  13.146  11.694
90081SOL    HW272018   9.270  13.049  11.611
90082SOL     OW72019  11.709   7.325  14.587
90082SOL    HW172020  11.782   7.334  14.526
90082SOL    HW272021  11.744   7.269  14.657
90083SOL     OW72022   5.272   3.001  10.355
90083SOL    HW172023   5.223   2.967  10.280
90083SOL    HW272024   5.240   2.952  10.430
90084SOL     OW72025   9.145   3.249   2.828
90084SOL    HW172026   9.136   3.307   2.753
90084SOL    HW272027   9.213   3.290   2.882
90085SOL     OW72028   0.486   7.656   2.017
90085SOL    HW172029   0.415   7.635   2.077
90085SOL    HW272030   0.558   7.600   2.044
90086SOL     OW72031   8.066  13.805  12.121
90086SOL    HW172032   8.020  13.888  12.109
90086SOL    HW272033   8.109  13.814  12.206
90087SOL     OW72034  13.288  13.437   6.213
90087SOL    HW172035  13.219  13.503   6.221
90087SOL    HW272036  13.364  13.476   6.256
90088SOL     OW72037   5.278  14.167   9.687
90088SOL    HW172038   5.252  14.240   9.743
90088SOL    HW272039   5.304  14.098   9.747
90089SOL     OW72040   0.526   8.251   7.659
90089SOL    HW172041   0.493   8.313   7.594
90089SOL    HW272042   0.452   8.193   7.676
90090SOL     OW72043  14.164   3.024  12.404
90090SOL    HW172044  14.224   2.952  12.423
90090SOL    HW272045  14.136   3.009  12.314
90091SOL     OW72046   1.678  14.124  11.429
90091SOL    HW172047   1.751  14.173  11.391
90091SOL    HW272048   1.630  14.189  11.481
90092SOL     OW72049   3.952   6.261   0.542
90092SOL    HW172050   3.926   6.182   0.590
90092SOL    HW272051   4.040   6.243   0.511
90093SOL     OW72052   3.185   6.388   2.992
90093SOL    HW172053   3.202   6.357   2.903
90093SOL    HW272054   3.225   6.474   2.996
90094SOL     OW72055  12.801   7.978  12.458
90094SOL    HW172056  12.792   7.966  12.363
90094SOL    HW272057  12.858   7.906  12.486
90095SOL     OW72058   2.090   0.529  14.571
90095SOL    HW172059   2.115   0.447  14.529
90095SOL    HW272060   2.024   0.504  14.636
90096SOL     OW72061   4.264   7.643   0.694
90096SOL    HW172062   4.311   7.725   0.707
90096SOL    HW272063   4.190   7.665   0.638
90097SOL     OW72064   0.735   0.356  12.582
90097SOL    HW172065   0.651   0.394  12.557
90097SOL    HW272066   0.800   0.414  12.543
90098SOL     OW72067  11.194   8.376   7.105
90098SOL    HW172068  11.117   8.351   7.156
90098SOL    HW272069  11.196   8.471   7.109
90099SOL     OW72070  11.783   0.938   5.170
90099SOL    HW172071  11.823   0.900   5.248
90099SOL    HW272072  11.730   1.010   5.203
90100SOL     OW72073   1.156  11.990   5.197
90100SOL    HW172074   1.190  11.981   5.286
90100SOL    HW272075   1.133  11.901   5.171
90101SOL     OW72076  14.424   1.675   2.916
90101SOL    HW172077  14.352   1.612   2.919
90101SOL    HW272078  14.482   1.648   2.987
90102SOL     OW72079  14.252  10.343   1.786
90102SOL    HW172080  14.234  10.255   1.754
90102SOL    HW272081  14.330  10.333   1.841
90103SOL     OW72082  13.172   2.123  10.005
90103SOL    HW172083  13.233   2.049  10.000
90103SOL    HW272084  13.214   2.192   9.955
90104SOL     OW72085  13.216  12.547  11.426
90104SOL    HW172086  13.232  12.520  11.336
90104SOL    HW272087  13.226  12.642  11.425
90105SOL     OW72088   5.549   6.114   6.784
90105SOL    HW172089   5.612   6.148   6.720
90105SOL    HW272090   5.564   6.019   6.783
90106SOL     OW72091   9.428   4.317  14.440
90106SOL    HW172092   9.417   4.223  14.451
90106SOL    HW272093   9.352   4.344  14.388
90107SOL     OW72094   2.430   0.356  11.693
90107SOL    HW172095   2.361   0.422  11.693
90107SOL    HW272096   2.475   0.368  11.609
90108SOL     OW72097   0.967  11.218   4.206
90108SOL    HW172098   1.026  11.288   4.177
90108SOL    HW272099   0.925  11.188   4.126
90109SOL     OW72100  11.758   8.561   1.622
90109SOL    HW172101  11.758   8.577   1.527
90109SOL    HW272102  11.712   8.478   1.632
90110SOL     OW72103   0.603   0.879   1.383
90110SOL    HW172104   0.523   0.834   1.356
90110SOL    HW272105   0.613   0.950   1.320
90111SOL     OW72106  12.431   0.330   5.553
90111SOL    HW172107  12.363   0.383   5.512
90111SOL    HW272108  12.385   0.282   5.622
90112SOL     OW72109   7.061  13.703   7.283
90112SOL    HW172110   7.037  13.672   7.195
90112SOL    HW272111   6.980  13.737   7.320
90113SOL     OW72112  12.057   4.567   8.201
90113SOL    HW172113  12.013   4.542   8.282
90113SOL    HW272114  12.006   4.642   8.169
90114SOL     OW72115   4.919   8.743   9.943
90114SOL    HW172116   4.872   8.821   9.971
90114SOL    HW272117   4.982   8.727  10.014
90115SOL     OW72118   6.405   5.956  12.561
90115SOL    HW172119   6.499   5.945  12.548
90115SOL    HW272120   6.378   5.879  12.611
90116SOL     OW72121   0.127   0.728   4.716
90116SOL    HW172122   0.223   0.732   4.711
90116SOL    HW272123   0.107   0.753   4.806
90117SOL     OW72124   9.419   7.252   6.091
90117SOL    HW172125   9.359   7.205   6.033
90117SOL    HW272126   9.462   7.182   6.142
90118SOL     OW72127  12.104  11.396   3.530
90118SOL    HW172128  12.045  11.470   3.520
90118SOL    HW272129  12.191  11.435   3.534
90119SOL     OW72130   5.954  12.302   7.576
90119SOL    HW172131   5.994  12.265   7.655
90119SOL    HW272132   5.977  12.240   7.507
90120SOL     OW72133  10.750   0.349  13.552
90120SOL    HW172134  10.713   0.267  13.520
90120SOL    HW272135  10.695   0.372  13.627
90121SOL     OW72136  13.994   5.014   9.548
90121SOL    HW172137  14.089   5.005   9.538
90121SOL    HW272138  13.983   5.088   9.608
90122SOL     OW72139   2.240  14.731  14.425
90122SOL    HW172140   2.235  14.737  14.330
90122SOL    HW272141   2.257  14.820  14.454
90123SOL     OW72142   4.044  13.559   0.661
90123SOL    HW172143   4.022  13.596   0.575
90123SOL    HW272144   3.959  13.543   0.702
90124SOL     OW72145  11.892   7.164  11.898
90124SOL    HW172146  11.915   7.076  11.926
90124SOL    HW272147  11.940   7.176  11.816
90125SOL     OW72148  14.403  12.335  13.777
90125SOL    HW172149  14.343  12.354  13.849
90125SOL    HW272150  14.483  12.382  13.799
90126SOL     OW72151  11.204   2.068   0.329
90126SOL    HW172152  11.259   2.129   0.379
90126SOL    HW272153  11.265   2.000   0.301
90127SOL     OW72154   8.770   5.804   6.711
90127SOL    HW172155   8.712   5.810   6.635
90127SOL    HW272156   8.777   5.893   6.743
90128SOL     OW72157  14.204   7.312   6.009
90128SOL    HW172158  14.215   7.359   6.091
90128SOL    HW272159  14.265   7.353   5.948
90129SOL     OW72160  14.147  12.382   2.713
90129SOL    HW172161  14.068  12.418   2.752
90129SOL    HW272162  14.173  12.448   2.647
90130SOL     OW72163   4.295  14.247   5.944
90130SOL    HW172164   4.371  14.305   5.941
90130SOL    HW272165   4.220  14.305   5.940
90131SOL     OW72166   4.022  11.083  14.005
90131SOL    HW172167   4.000  11.047  13.919
90131SOL    HW272168   3.964  11.038  14.066
90132SOL     OW72169  12.930   3.684   6.825
90132SOL    HW172170  12.891   3.642   6.748
90132SOL    HW272171  13.020   3.700   6.799
90133SOL     OW72172   0.588   7.795   0.800
90133SOL    HW172173   0.646   7.738   0.851
90133SOL    HW272174   0.643   7.828   0.730
90134SOL     OW72175   4.842   6.266   9.992
90134SOL    HW172176   4.933   6.240  10.006
90134SOL    HW272177   4.791   6.199  10.037
90135SOL     OW72178   8.677   4.472   9.397
90135SOL    HW172179   8.585   4.452   9.416
90135SOL    HW272180   8.687   4.456   9.303
90136SOL     OW72181   6.710   8.728  13.683
90136SOL    HW172182   6.627   8.716  13.637
90136SOL    HW272183   6.719   8.823  13.692
90137SOL     OW72184  13.254   2.873   9.382
90137SOL    HW172185  13.234   2.780   9.394
90137SOL    HW272186  13.301   2.877   9.298
90138SOL     OW72187   1.486  12.248  12.970
90138SOL    HW172188   1.472  12.198  12.890
90138SOL    HW272189   1.441  12.331  12.955
90139SOL     OW72190   4.000   4.052   4.179
90139SOL    HW172191   3.936   4.116   4.210
90139SOL    HW272192   4.011   3.992   4.253
90140SOL     OW72193   3.376   7.891   9.976
90140SOL    HW172194   3.288   7.870   9.944
90140SOL    HW272195   3.364   7.974  10.023
90141SOL     OW72196  11.246  14.078   4.412
90141SOL    HW172197  11.193  14.056   4.488
90141SOL    HW272198  11.183  14.090   4.341
90142SOL     OW72199   3.393  13.475   8.661
90142SOL    HW172200   3.303  13.444   8.647
90142SOL    HW272201   3.441  13.444   8.584
90143SOL     OW72202   6.547   1.217   9.964
90143SOL    HW172203   6.474   1.235  10.023
90143SOL    HW272204   6.598   1.298   9.964
90144SOL     OW72205   5.432   0.313   6.101
90144SOL    HW172206   5.450   0.219   6.107
90144SOL    HW272207   5.519   0.354   6.108
90145SOL     OW72208  14.742  11.376   7.069
90145SOL    HW172209  14.678  11.306   7.081
90145SOL    HW272210  14.821  11.343   7.112
90146SOL     OW72211   9.228   3.758   0.290
90146SOL    HW172212   9.223   3.826   0.222
90146SOL    HW272213   9.250   3.678   0.242
90147SOL     OW72214   5.242   2.649   9.237
90147SOL    HW172215   5.212   2.559   9.244
90147SOL    HW272216   5.308   2.659   9.305
90148SOL     OW72217   0.992  13.726   6.384
90148SOL    HW172218   1.039  13.757   6.306
90148SOL    HW272219   0.987  13.631   6.372
90149SOL     OW72220   8.204  14.570  11.630
90149SOL    HW172221   8.179  14.490  11.585
90149SOL    HW272222   8.186  14.552  11.723
90150SOL     OW72223  10.247   7.586   7.825
90150SOL    HW172224  10.170   7.637   7.797
90150SOL    HW272225  10.289   7.642   7.890
90151SOL     OW72226   0.574   8.126   0.086
90151SOL    HW172227   0.486   8.159   0.067
90151SOL    HW272228   0.629   8.164   0.019
90152SOL     OW72229   8.074  12.163   1.371
90152SOL    HW172230   8.011  12.231   1.349
90152SOL    HW272231   8.135  12.206   1.431
90153SOL     OW72232   3.996   2.448  13.530
90153SOL    HW172233   3.992   2.365  13.483
90153SOL    HW272234   3.952   2.430  13.613
90154SOL     OW72235   4.017   5.916   8.377
90154SOL    HW172236   4.028   6.011   8.382
90154SOL    HW272237   3.928   5.901   8.409
90155SOL     OW72238   0.361   1.491   7.740
90155SOL    HW172239   0.358   1.582   7.710
90155SOL    HW272240   0.322   1.492   7.827
90156SOL     OW72241   4.342   2.805  12.382
90156SOL    HW172242   4.372   2.859  12.455
90156SOL    HW272243   4.264   2.850  12.350
90157SOL     OW72244   3.261   1.561   8.647
90157SOL    HW172245   3.339   1.574   8.701
90157SOL    HW272246   3.205   1.505   8.700
90158SOL     OW72247   0.476  14.679   5.975
90158SOL    HW172248   0.465  14.728   5.893
90158SOL    HW272249   0.499  14.590   5.946
90159SOL     OW72250   4.670   5.713   7.497
90159SOL    HW172251   4.619   5.671   7.429
90159SOL    HW272252   4.683   5.803   7.465
90160SOL     OW72253   0.392   8.164  13.037
90160SOL    HW172254   0.364   8.088  12.987
90160SOL    HW272255   0.450   8.213  12.978
90161SOL     OW72256  14.351   0.995   1.379
90161SOL    HW172257  14.337   1.053   1.304
90161SOL    HW272258  14.335   0.907   1.345
90162SOL     OW72259   5.995   1.544   7.163
90162SOL    HW172260   6.063   1.510   7.104
90162SOL    HW272261   5.959   1.620   7.118
90163SOL     OW72262   4.920   5.495   0.024
90163SOL    HW172263   5.004   5.491  14.855
90163SOL    HW272264   4.865   5.429  14.859
90164SOL     OW72265   2.577   0.274   7.807
90164SOL    HW172266   2.489   0.242   7.792
90164SOL    HW272267   2.634   0.208   7.768
90165SOL     OW72268   0.964   1.629   0.001
90165SOL    HW172269   1.027   1.644   0.072
90165SOL    HW272270   0.887   1.591   0.044
90166SOL     OW72271   2.998   8.657   0.144
90166SOL    HW172272   3.076   8.712   0.154
90166SOL    HW272273   2.933   8.714   0.103
90167SOL     OW72274  12.353  12.756  12.850
90167SOL    HW172275  12.342  12.765  12.944
90167SOL    HW272276  12.408  12.830  12.825
90168SOL     OW72277   1.249   7.081  11.021
90168SOL    HW172278   1.329   7.071  11.073
90168SOL    HW272279   1.183   7.032  11.069
90169SOL     OW72280   0.615   4.550   1.952
90169SOL    HW172281   0.618   4.554   1.857
90169SOL    HW272282   0.583   4.463   1.972
90170SOL     OW72283   7.414   2.182  12.763
90170SOL    HW172284   7.369   2.222  12.689
90170SOL    HW272285   7.384   2.091  12.764
90171SOL     OW72286   3.379  14.180   7.096
90171SOL    HW172287   3.399  14.273   7.110
90171SOL    HW272288   3.417  14.136   7.172
90172SOL     OW72289   9.496  12.869   8.804
90172SOL    HW172290   9.407  12.833   8.808
90172SOL    HW272291   9.484  12.964   8.806
90173SOL     OW72292  11.960  13.968   9.691
90173SOL    HW172293  11.935  14.042   9.745
90173SOL    HW272294  11.916  13.984   9.607
90174SOL     OW72295   0.930   2.753   8.522
90174SOL    HW172296   0.873   2.826   8.498
90174SOL    HW272297   1.015   2.793   8.537
90175SOL     OW72298   2.285   0.387   4.468
90175SOL    HW172299   2.239   0.455   4.419
90175SOL    HW272300   2.285   0.311   4.410
90176SOL     OW72301   1.466  13.219   2.658
90176SOL    HW172302   1.519  13.155   2.611
90176SOL    HW272303   1.530  13.275   2.702
90177SOL     OW72304   4.291   7.141   7.553
90177SOL    HW172305   4.276   7.231   7.525
90177SOL    HW272306   4.248   7.135   7.638
90178SOL     OW72307   2.734   5.420   0.245
90178SOL    HW172308   2.667   5.408   0.313
90178SOL    HW272309   2.773   5.505   0.265
90179SOL     OW72310   0.717   6.951  12.554
90179SOL    HW172311   0.779   7.023  12.553
90179SOL    HW272312   0.634   6.991  12.580
90180SOL     OW72313  10.413   3.116   0.070
90180SOL    HW172314  10.502   3.084   0.055
90180SOL    HW272315  10.359   3.037   0.072
90181SOL     OW72316   9.948   5.111  11.180
90181SOL    HW172317   9.909   5.138  11.263
90181SOL    HW272318   9.978   5.193  11.140
90182SOL     OW72319   3.683  13.343  11.803
90182SOL    HW172320   3.617  13.326  11.736
90182SOL    HW272321   3.654  13.291  11.878
90183SOL     OW72322   1.228  13.761  11.371
90183SOL    HW172323   1.173  13.796  11.442
90183SOL    HW272324   1.187  13.678  11.348
90184SOL     OW72325   7.964  14.807   3.442
90184SOL    HW172326   7.990  14.739   3.380
90184SOL    HW272327   8.022   0.003   3.423
90185SOL     OW72328  14.059   8.731   5.170
90185SOL    HW172329  14.091   8.749   5.082
90185SOL    HW272330  14.065   8.635   5.178
90186SOL     OW72331   3.825   5.248   5.463
90186SOL    HW172332   3.902   5.235   5.517
90186SOL    HW272333   3.859   5.287   5.382
90187SOL     OW72334   4.598   3.056   2.186
90187SOL    HW172335   4.674   3.050   2.245
90187SOL    HW272336   4.607   2.980   2.129
90188SOL     OW72337   8.702  10.809  12.454
90188SOL    HW172338   8.669  10.879  12.398
90188SOL    HW272339   8.762  10.760  12.397
90189SOL     OW72340  14.481  11.782  12.720
90189SOL    HW172341  14.520  11.858  12.676
90189SOL    HW272342  14.463  11.720  12.649
90190SOL     OW72343   4.397   7.051   5.926
90190SOL    HW172344   4.439   7.013   6.003
90190SOL    HW272345   4.378   6.976   5.869
90191SOL     OW72346   1.150   1.309   2.124
90191SOL    HW172347   1.119   1.396   2.098
90191SOL    HW272348   1.169   1.265   2.041
90192SOL     OW72349   1.091  14.018   9.666
90192SOL    HW172350   1.074  13.988   9.577
90192SOL    HW272351   1.004  14.032   9.703
90193SOL     OW72352  12.751   8.477  14.850
90193SOL    HW172353  12.659   8.452  14.850
90193SOL    HW272354  12.784   8.449   0.058
90194SOL     OW72355   7.581   8.715   6.155
90194SOL    HW172356   7.498   8.757   6.132
90194SOL    HW272357   7.642   8.744   6.087
90195SOL     OW72358   7.008  14.568   7.986
90195SOL    HW172359   7.005  14.656   7.948
90195SOL    HW272360   6.940  14.568   8.053
90196SOL     OW72361   2.544   5.444   7.415
90196SOL    HW172362   2.482   5.500   7.367
90196SOL    HW272363   2.513   5.355   7.400
90197SOL     OW72364   0.496   3.034   7.842
90197SOL    HW172365   0.532   3.086   7.771
90197SOL    HW272366   0.483   3.097   7.914
90198SOL     OW72367   5.612   4.046   8.416
90198SOL    HW172368   5.671   3.973   8.400
90198SOL    HW272369   5.602   4.048   8.512
90199SOL     OW72370   7.751   5.595   8.956
90199SOL    HW172371   7.789   5.519   8.999
90199SOL    HW272372   7.694   5.635   9.022
90200SOL     OW72373   3.958   6.195   3.321
90200SOL    HW172374   3.948   6.256   3.394
90200SOL    HW272375   4.052   6.179   3.316
90201SOL     OW72376  12.182  14.129   5.625
90201SOL    HW172377  12.172  14.190   5.553
90201SOL    HW272378  12.106  14.145   5.681
90202SOL     OW72379  13.807  12.341   5.066
90202SOL    HW172380  13.715  12.326   5.041
90202SOL    HW272381  13.801  12.395   5.145
90203SOL     OW72382   5.288   7.420   2.982
90203SOL    HW172383   5.364   7.364   2.965
90203SOL    HW272384   5.215   7.375   2.939
90204SOL     OW72385  10.627   8.940  12.661
90204SOL    HW172386  10.720   8.952  12.680
90204SOL    HW272387  10.600   9.021  12.618
90205SOL     OW72388   2.067  12.441  13.569
90205SOL    HW172389   2.035  12.423  13.481
90205SOL    HW272390   2.034  12.368  13.622
90206SOL     OW72391   4.155   5.725  13.390
90206SOL    HW172392   4.106   5.781  13.450
90206SOL    HW272393   4.123   5.750  13.303
90207SOL     OW72394   4.074   9.713  13.766
90207SOL    HW172395   4.151   9.658  13.780
90207SOL    HW272396   4.108   9.802  13.763
90208SOL     OW72397   5.238   5.427   6.427
90208SOL    HW172398   5.258   5.358   6.364
90208SOL    HW272399   5.184   5.384   6.494
90209SOL     OW72400   9.627  10.228  10.498
90209SOL    HW172401   9.585  10.152  10.539
90209SOL    HW272402   9.617  10.298  10.562
90210SOL     OW72403   9.787   3.653   7.435
90210SOL    HW172404   9.829   3.661   7.520
90210SOL    HW272405   9.693   3.651   7.454
90211SOL     OW72406  14.461  11.472  13.076
90211SOL    HW172407  14.478  11.566  13.086
90211SOL    HW272408  14.366  11.466  13.064
90212SOL     OW72409   8.885  13.313   9.848
90212SOL    HW172410   8.934  13.265   9.782
90212SOL    HW272411   8.952  13.352   9.904
90213SOL     OW72412  12.755   1.218   7.927
90213SOL    HW172413  12.759   1.142   7.986
90213SOL    HW272414  12.733   1.181   7.842
90214SOL     OW72415  11.029   1.814   9.021
90214SOL    HW172416  11.082   1.844   8.947
90214SOL    HW272417  11.067   1.858   9.097
90215SOL     OW72418  13.603   4.537  10.120
90215SOL    HW172419  13.654   4.611  10.086
90215SOL    HW272420  13.667   4.484  10.168
90216SOL     OW72421   0.297   7.780   4.804
90216SOL    HW172422   0.282   7.693   4.840
90216SOL    HW272423   0.360   7.766   4.732
90217SOL     OW72424   0.674  10.594   7.568
90217SOL    HW172425   0.740  10.658   7.594
90217SOL    HW272426   0.704  10.561   7.483
90218SOL     OW72427   9.008  11.604  12.903
90218SOL    HW172428   9.055  11.521  12.905
90218SOL    HW272429   8.916  11.580  12.900
90219SOL     OW72430  11.702   6.075   3.782
90219SOL    HW172431  11.792   6.060   3.811
90219SOL    HW272432  11.694   6.170   3.775
90220SOL     OW72433  14.106   1.211   4.392
90220SOL    HW172434  14.102   1.284   4.453
90220SOL    HW272435  14.168   1.239   4.324
90221SOL     OW72436  11.990   7.390   8.519
90221SOL    HW172437  12.003   7.481   8.545
90221SOL    HW272438  11.897   7.373   8.536
90222SOL     OW72439  10.481   7.520   5.316
90222SOL    HW172440  10.503   7.433   5.282
90222SOL    HW272441  10.542   7.579   5.273
90223SOL     OW72442   2.638   1.972   7.719
90223SOL    HW172443   2.563   2.030   7.731
90223SOL    HW272444   2.602   1.894   7.677
90224SOL     OW72445  10.812   2.151  10.508
90224SOL    HW172446  10.807   2.207  10.431
90224SOL    HW272447  10.881   2.190  10.562
90225SOL     OW72448  12.751   8.772   0.019
90225SOL    HW172449  12.755   8.784   0.114
90225SOL    HW272450  12.726   8.680   0.008
90226SOL     OW72451   5.172   8.670   2.835
90226SOL    HW172452   5.090   8.663   2.786
90226SOL    HW272453   5.214   8.585   2.822
90227SOL     OW72454   4.382   3.460   7.548
90227SOL    HW172455   4.442   3.526   7.583
90227SOL    HW272456   4.298   3.479   7.590
90228SOL     OW72457  14.424   8.583  14.583
90228SOL    HW172458  14.334   8.592  14.613
90228SOL    HW272459  14.476   8.572  14.663
90229SOL     OW72460   2.921  13.119   0.712
90229SOL    HW172461   2.976  13.186   0.671
90229SOL    HW272462   2.848  13.168   0.750
90230SOL     OW72463   9.641   9.072  10.528
90230SOL    HW172464   9.557   9.102  10.491
90230SOL    HW272465   9.696   9.055  10.452
90231SOL     OW72466  14.592  10.983   0.216
90231SOL    HW172467  14.616  11.071   0.245
90231SOL    HW272468  14.606  10.985   0.121
90232SOL     OW72469   2.607   4.301  14.702
90232SOL    HW172470   2.538   4.274  14.641
90232SOL    HW272471   2.609   4.231  14.767
90233SOL     OW72472   4.011  11.109   0.468
90233SOL    HW172473   3.921  11.138   0.477
90233SOL    HW272474   4.063  11.189   0.476
90234SOL     OW72475  14.739   1.554   2.768
90234SOL    HW172476  14.769   1.464   2.756
90234SOL    HW272477  14.700   1.555   2.856
90235SOL     OW72478  11.353   2.922  12.893
90235SOL    HW172479  11.298   2.892  12.820
90235SOL    HW272480  11.381   2.842  12.936
90236SOL     OW72481   4.334   9.568   6.190
90236SOL    HW172482   4.282   9.488   6.191
90236SOL    HW272483   4.394   9.559   6.264
90237SOL     OW72484   4.021   0.602  13.301
90237SOL    HW172485   4.090   0.619  13.236
90237SOL    HW272486   4.000   0.689  13.336
90238SOL     OW72487   1.388   9.329  11.440
90238SOL    HW172488   1.418   9.416  11.469
90238SOL    HW272489   1.385   9.335  11.345
90239SOL     OW72490   3.965   0.713   8.894
90239SOL    HW172491   3.999   0.648   8.955
90239SOL    HW272492   4.043   0.755   8.858
90240SOL     OW72493   1.683  10.787   1.936
90240SOL    HW172494   1.714  10.861   1.883
90240SOL    HW272495   1.667  10.824   2.022
90241SOL     OW72496   1.348   5.713  11.237
90241SOL    HW172497   1.263   5.703  11.195
90241SOL    HW272498   1.367   5.626  11.273
90242SOL     OW72499  10.553   9.729  13.055
90242SOL    HW172500  10.543   9.703  12.964
90242SOL    HW272501  10.469   9.770  13.078
90243SOL     OW72502  14.561   4.084   9.188
90243SOL    HW172503  14.576   4.038   9.270
90243SOL    HW272504  14.542   4.174   9.214
90244SOL     OW72505   3.090  11.382   1.889
90244SOL    HW172506   3.033  11.317   1.929
90244SOL    HW272507   3.178  11.345   1.896
90245SOL     OW72508   2.447   5.514   3.000
90245SOL    HW172509   2.383   5.584   2.996
90245SOL    HW272510   2.519   5.544   2.944
90246SOL     OW72511   3.103   0.480   3.461
90246SOL    HW172512   3.071   0.403   3.508
90246SOL    HW272513   3.169   0.518   3.519
90247SOL     OW72514   2.944  12.692   2.026
90247SOL    HW172515   3.018  12.654   2.074
90247SOL    HW272516   2.981  12.771   1.985
90248SOL     OW72517   6.178   0.817  12.709
90248SOL    HW172518   6.202   0.832  12.618
90248SOL    HW272519   6.118   0.743  12.707
90249SOL     OW72520  11.873   1.810   0.041
90249SOL    HW172521  11.852   1.774   0.127
90249SOL    HW272522  11.837   1.899   0.043
90250SOL     OW72523   6.544  11.766   0.141
90250SOL    HW172524   6.506  11.792   0.057
90250SOL    HW272525   6.517  11.836   0.201
90251SOL     OW72526  12.561   9.998   3.538
90251SOL    HW172527  12.499   9.927   3.555
90251SOL    HW272528  12.634   9.957   3.491
90252SOL     OW72529   0.166   9.779   1.364
90252SOL    HW172530   0.097   9.713   1.362
90252SOL    HW272531   0.231   9.747   1.302
90253SOL     OW72532  13.886   6.095   1.570
90253SOL    HW172533  13.837   6.076   1.651
90253SOL    HW272534  13.977   6.101   1.598
90254SOL     OW72535  11.680   8.548   3.697
90254SOL    HW172536  11.640   8.632   3.675
90254SOL    HW272537  11.610   8.500   3.742
90255SOL     OW72538   6.524  12.097   8.116
90255SOL    HW172539   6.497  12.010   8.088
90255SOL    HW272540   6.449  12.131   8.166
90256SOL     OW72541  10.984  12.787   5.799
90256SOL    HW172542  11.019  12.826   5.879
90256SOL    HW272543  11.036  12.707   5.787
90257SOL     OW72544   0.269   4.756   0.787
90257SOL    HW172545   0.350   4.790   0.748
90257SOL    HW272546   0.296   4.677   0.834
90258SOL     OW72547   1.003   0.542   6.285
90258SOL    HW172548   1.023   0.457   6.247
90258SOL    HW272549   0.926   0.527   6.340
90259SOL     OW72550  10.408   7.513   4.302
90259SOL    HW172551  10.468   7.482   4.235
90259SOL    HW272552  10.420   7.453   4.376
90260SOL     OW72553   9.326   0.704  14.361
90260SOL    HW172554   9.419   0.720  14.371
90260SOL    HW272555   9.318   0.668  14.272
90261SOL     OW72556   3.387   2.078   9.573
90261SOL    HW172557   3.323   2.142   9.542
90261SOL    HW272558   3.377   2.078   9.668
90262SOL     OW72559  10.710  11.915   0.063
90262SOL    HW172560  10.734  12.007   0.077
90262SOL    HW272561  10.687  11.883   0.150
90263SOL     OW72562   5.485   4.805   6.581
90263SOL    HW172563   5.401   4.765   6.602
90263SOL    HW272564   5.515   4.843   6.664
90264SOL     OW72565  13.422   4.125  10.602
90264SOL    HW172566  13.486   4.060  10.629
90264SOL    HW272567  13.466   4.176  10.534
90265SOL     OW72568   2.990   9.474   0.530
90265SOL    HW172569   2.954   9.554   0.568
90265SOL    HW272570   2.983   9.408   0.599
90266SOL     OW72571   5.360   7.619  14.516
90266SOL    HW172572   5.333   7.697  14.467
90266SOL    HW272573   5.294   7.553  14.494
90267SOL     OW72574   7.498  11.278   8.509
90267SOL    HW172575   7.466  11.194   8.543
90267SOL    HW272576   7.454  11.288   8.425
90268SOL     OW72577  10.283   9.145   1.825
90268SOL    HW172578  10.280   9.136   1.920
90268SOL    HW272579  10.319   9.061   1.794
90269SOL     OW72580   2.276   1.075   2.638
90269SOL    HW172581   2.201   1.017   2.654
90269SOL    HW272582   2.240   1.149   2.590
90270SOL     OW72583  14.317  14.368  11.573
90270SOL    HW172584  14.231  14.348  11.538
90270SOL    HW272585  14.308  14.457  11.609
90271SOL     OW72586   1.435   9.612   6.901
90271SOL    HW172587   1.439   9.589   6.994
90271SOL    HW272588   1.520   9.651   6.883
90272SOL     OW72589   5.968   5.730  13.401
90272SOL    HW172590   6.021   5.702  13.326
90272SOL    HW272591   5.878   5.714  13.374
90273SOL     OW72592  11.691   4.646   5.683
90273SOL    HW172593  11.686   4.553   5.660
90273SOL    HW272594  11.601   4.677   5.675
90274SOL     OW72595  10.154  11.285  13.079
90274SOL    HW172596  10.070  11.260  13.118
90274SOL    HW272597  10.219  11.263  13.146
90275SOL     OW72598   3.824   3.787   2.595
90275SOL    HW172599   3.819   3.883   2.595
90275SOL    HW272600   3.740   3.759   2.629
90276SOL     OW72601  12.655   4.248  10.579
90276SOL    HW172602  12.617   4.328  10.542
90276SOL    HW272603  12.749   4.263  10.575
90277SOL     OW72604   1.448   2.100  14.842
90277SOL    HW172605   1.435   2.139   0.051
90277SOL    HW272606   1.436   2.173  14.781
90278SOL     OW72607   4.930  12.883   6.593
90278SOL    HW172608   4.873  12.811   6.565
90278SOL    HW272609   5.013  12.841   6.613
90279SOL     OW72610   2.723  10.242   5.336
90279SOL    HW172611   2.699  10.195   5.415
90279SOL    HW272612   2.765  10.176   5.281
90280SOL     OW72613  12.111  11.505   5.555
90280SOL    HW172614  12.082  11.413   5.559
90280SOL    HW272615  12.062  11.542   5.482
90281SOL     OW72616  14.729   1.747   5.229
90281SOL    HW172617  14.815   1.768   5.191
90281SOL    HW272618  14.750   1.700   5.309
90282SOL     OW72619   5.232   9.156   8.112
90282SOL    HW172620   5.269   9.244   8.103
90282SOL    HW272621   5.151   9.169   8.160
90283SOL     OW72622  10.150   3.071  11.364
90283SOL    HW172623  10.091   3.137  11.402
90283SOL    HW272624  10.196   3.117  11.294
90284SOL     OW72625  14.383   3.429   2.003
90284SOL    HW172626  14.472   3.448   1.972
90284SOL    HW272627  14.373   3.482   2.082
90285SOL     OW72628  14.597   4.409  13.047
90285SOL    HW172629  14.648   4.381  12.971
90285SOL    HW272630  14.638   4.491  13.075
90286SOL     OW72631   7.757   9.002   7.660
90286SOL    HW172632   7.808   8.950   7.722
90286SOL    HW272633   7.668   9.000   7.695
90287SOL     OW72634   3.006  10.588   7.863
90287SOL    HW172635   3.057  10.662   7.829
90287SOL    HW272636   2.964  10.551   7.785
90288SOL     OW72637   4.175   9.273   0.031
90288SOL    HW172638   4.100   9.218   0.053
90288SOL    HW272639   4.220   9.286   0.115
90289SOL     OW72640  10.578  11.991   0.773
90289SOL    HW172641  10.584  11.998   0.678
90289SOL    HW272642  10.643  12.053   0.806
90290SOL     OW72643   4.383   5.025   1.043
90290SOL    HW172644   4.354   5.116   1.042
90290SOL    HW272645   4.301   4.975   1.045
90291SOL     OW72646   7.431  13.234   2.620
90291SOL    HW172647   7.464  13.272   2.538
90291SOL    HW272648   7.421  13.141   2.600
90292SOL     OW72649   0.019  14.355   2.912
90292SOL    HW172650  14.869  14.293   2.845
90292SOL    HW272651   0.067  14.303   2.976
90293SOL     OW72652   5.756   7.361  13.817
90293SOL    HW172653   5.764   7.456  13.816
90293SOL    HW272654   5.695   7.344  13.889
90294SOL     OW72655   6.720   6.735   3.482
90294SOL    HW172656   6.759   6.648   3.493
90294SOL    HW272657   6.734   6.757   3.390
90295SOL     OW72658   5.720   8.087   9.704
90295SOL    HW172659   5.738   8.110   9.613
90295SOL    HW272660   5.793   8.029   9.729
90296SOL     OW72661   3.383   2.936   7.763
90296SOL    HW172662   3.319   2.940   7.692
90296SOL    HW272663   3.336   2.968   7.840
90297SOL     OW72664   8.174   7.673  14.432
90297SOL    HW172665   8.201   7.669  14.340
90297SOL    HW272666   8.228   7.607  14.475
90298SOL     OW72667  14.230   4.918  12.522
90298SOL    HW172668  14.159   4.907  12.586
90298SOL    HW272669  14.233   4.835  12.474
90299SOL     OW72670  10.531  12.929   1.962
90299SOL    HW172671  10.606  12.983   1.987
90299SOL    HW272672  10.560  12.885   1.882
90300SOL     OW72673  12.790  12.197   9.847
90300SOL    HW172674  12.819  12.241   9.767
90300SOL    HW272675  12.750  12.267   9.899
90301SOL     OW72676   1.485  10.404   1.237
90301SOL    HW172677   1.477  10.363   1.151
90301SOL    HW272678   1.437  10.346   1.296
90302SOL     OW72679  14.050   1.846   5.693
90302SOL    HW172680  14.081   1.903   5.763
90302SOL    HW272681  14.102   1.766   5.701
90303SOL     OW72682   6.284  10.196  10.390
90303SOL    HW172683   6.273  10.106  10.419
90303SOL    HW272684   6.283  10.248  10.470
90304SOL     OW72685   7.109  13.489   0.234
90304SOL    HW172686   7.133  13.581   0.225
90304SOL    HW272687   7.035  13.490   0.296
90305SOL     OW72688  10.886  11.351   0.970
90305SOL    HW172689  10.826  11.359   1.044
90305SOL    HW272690  10.927  11.265   0.981
90306SOL     OW72691   7.990  10.265   9.020
90306SOL    HW172692   8.077  10.305   9.023
90306SOL    HW272693   8.001  10.188   8.965
90307SOL     OW72694   7.138   3.649   8.085
90307SOL    HW172695   7.063   3.593   8.104
90307SOL    HW272696   7.201   3.590   8.043
90308SOL     OW72697   5.536   0.431   9.293
90308SOL    HW172698   5.474   0.435   9.365
90308SOL    HW272699   5.488   0.387   9.223
90309SOL     OW72700  11.689   3.958  12.607
90309SOL    HW172701  11.619   4.006  12.563
90309SOL    HW272702  11.708   4.008  12.685
90310SOL     OW72703  12.584   8.628  12.192
90310SOL    HW172704  12.583   8.552  12.250
90310SOL    HW272705  12.669   8.622  12.147
90311SOL     OW72706  11.867   9.176   1.766
90311SOL    HW172707  11.869   9.259   1.813
90311SOL    HW272708  11.916   9.192   1.686
90312SOL     OW72709   6.468  13.368   5.280
90312SOL    HW172710   6.411  13.419   5.337
90312SOL    HW272711   6.424  13.284   5.271
90313SOL     OW72712   4.307  11.138   7.544
90313SOL    HW172713   4.251  11.141   7.621
90313SOL    HW272714   4.297  11.049   7.510
90314SOL     OW72715   5.379   8.670   5.204
90314SOL    HW172716   5.336   8.586   5.218
90314SOL    HW272717   5.309   8.728   5.173
90315SOL     OW72718   4.800  14.412   4.398
90315SOL    HW172719   4.726  14.467   4.422
90315SOL    HW272720   4.860  14.417   4.472
90316SOL     OW72721   8.400   3.696   2.948
90316SOL    HW172722   8.425   3.714   3.039
90316SOL    HW272723   8.333   3.761   2.929
90317SOL     OW72724   2.106  13.206  14.837
90317SOL    HW172725   2.099  13.173  14.747
90317SOL    HW272726   2.180  13.157  14.874
90318SOL     OW72727   6.265   1.880   7.534
90318SOL    HW172728   6.189   1.889   7.591
90318SOL    HW272729   6.246   1.803   7.480
90319SOL     OW72730   2.783   4.073   2.263
90319SOL    HW172731   2.863   4.083   2.212
90319SOL    HW272732   2.746   3.989   2.234
90320SOL     OW72733  14.593   9.747   2.776
90320SOL    HW172734  14.663   9.694   2.736
90320SOL    HW272735  14.595   9.722   2.869
90321SOL     OW72736  11.254   9.188   0.661
90321SOL    HW172737  11.312   9.264   0.674
90321SOL    HW272738  11.280   9.152   0.577
90322SOL     OW72739  11.973   0.860   0.306
90322SOL    HW172740  11.920   0.922   0.255
90322SOL    HW272741  11.956   0.883   0.397
90323SOL     OW72742   0.398   9.410  14.178
90323SOL    HW172743   0.480   9.407  14.130
90323SOL    HW272744   0.423   9.433  14.267
90324SOL     OW72745  14.719   4.909  11.636
90324SOL    HW172746  14.676   4.828  11.610
90324SOL    HW272747  14.660   4.978  11.605
90325SOL     OW72748   7.030   7.804  11.601
90325SOL    HW172749   7.085   7.859  11.657
90325SOL    HW272750   7.088   7.777  11.530
90326SOL     OW72751  13.450   3.143   5.539
90326SOL    HW172752  13.517   3.180   5.597
90326SOL    HW272753  13.416   3.068   5.586
90327SOL     OW72754   9.809   0.051  10.651
90327SOL    HW172755   9.836  14.842  10.620
90327SOL    HW272756   9.716   0.057  10.627
90328SOL     OW72757   6.759  12.334   2.655
90328SOL    HW172758   6.843  12.289   2.651
90328SOL    HW272759   6.705  12.280   2.713
90329SOL     OW72760   0.433   2.673   7.480
90329SOL    HW172761   0.475   2.727   7.413
90329SOL    HW272762   0.425   2.731   7.556
90330SOL     OW72763   1.088   1.225  11.601
90330SOL    HW172764   1.001   1.189  11.587
90330SOL    HW272765   1.090   1.248  11.694
90331SOL     OW72766   5.988   2.638   6.339
90331SOL    HW172767   6.018   2.635   6.430
90331SOL    HW272768   5.895   2.660   6.345
90332SOL     OW72769   6.919  12.316   0.252
90332SOL    HW172770   6.898  12.404   0.220
90332SOL    HW272771   6.883  12.257   0.186
90333SOL     OW72772  14.361   2.002   3.700
90333SOL    HW172773  14.440   2.056   3.694
90333SOL    HW272774  14.366   1.963   3.788
90334SOL     OW72775   0.339  13.869   9.301
90334SOL    HW172776   0.356  13.862   9.207
90334SOL    HW272777   0.247  13.892   9.308
90335SOL     OW72778   4.686  11.435  11.356
90335SOL    HW172779   4.656  11.519  11.321
90335SOL    HW272780   4.732  11.394  11.282
90336SOL     OW72781   2.199   4.793   7.085
90336SOL    HW172782   2.105   4.775   7.078
90336SOL    HW272783   2.204   4.880   7.125
90337SOL     OW72784   8.278  10.600   9.795
90337SOL    HW172785   8.318  10.617   9.880
90337SOL    HW272786   8.292  10.506   9.780
90338SOL     OW72787  12.242   1.468   1.013
90338SOL    HW172788  12.300   1.544   1.006
90338SOL    HW272789  12.168   1.499   1.066
90339SOL     OW72790  13.337   7.504   8.813
90339SOL    HW172791  13.251   7.528   8.780
90339SOL    HW272792  13.337   7.408   8.816
90340SOL     OW72793   5.925   6.595   0.593
90340SOL    HW172794   5.935   6.611   0.686
90340SOL    HW272795   5.929   6.500   0.584
90341SOL     OW72796  11.314   4.806  10.304
90341SOL    HW172797  11.242   4.812  10.241
90341SOL    HW272798  11.393   4.810  10.250
90342SOL     OW72799   6.185   5.386  12.775
90342SOL    HW172800   6.233   5.416  12.699
90342SOL    HW272801   6.155   5.466  12.818
90343SOL     OW72802  12.005   8.817  13.695
90343SOL    HW172803  12.050   8.817  13.611
90343SOL    HW272804  11.994   8.724  13.717
90344SOL     OW72805   0.263   6.702   0.161
90344SOL    HW172806   0.228   6.617   0.135
90344SOL    HW272807   0.194   6.764   0.136
90345SOL     OW72808  12.617   8.403   8.774
90345SOL    HW172809  12.526   8.403   8.802
90345SOL    HW272810  12.648   8.315   8.794
90346SOL     OW72811   6.468   5.925   8.910
90346SOL    HW172812   6.427   5.875   8.839
90346SOL    HW272813   6.435   6.014   8.898
90347SOL     OW72814  11.544  14.166  10.360
90347SOL    HW172815  11.562  14.260  10.357
90347SOL    HW272816  11.452  14.160  10.387
90348SOL     OW72817  12.070  11.819   9.236
90348SOL    HW172818  12.098  11.732   9.209
90348SOL    HW272819  12.053  11.866   9.154
90349SOL     OW72820   3.980   8.811   8.831
90349SOL    HW172821   4.041   8.738   8.844
90349SOL    HW272822   3.900   8.783   8.876
90350SOL     OW72823  11.158   2.196  13.343
90350SOL    HW172824  11.207   2.226  13.420
90350SOL    HW272825  11.205   2.117  13.315
90351SOL     OW72826   5.484   0.584   4.959
90351SOL    HW172827   5.421   0.550   5.022
90351SOL    HW272828   5.490   0.517   4.891
90352SOL     OW72829   7.863   2.794   8.454
90352SOL    HW172830   7.789   2.771   8.397
90352SOL    HW272831   7.852   2.887   8.473
90353SOL     OW72832   3.339   5.075   5.475
90353SOL    HW172833   3.340   5.089   5.380
90353SOL    HW272834   3.410   5.130   5.509
90354SOL     OW72835  14.644  13.895  14.286
90354SOL    HW172836  14.597  13.826  14.333
90354SOL    HW272837  14.610  13.977  14.323
90355SOL     OW72838   6.491   3.901   0.816
90355SOL    HW172839   6.507   3.944   0.900
90355SOL    HW272840   6.426   3.957   0.772
90356SOL     OW72841  12.560  14.226   8.072
90356SOL    HW172842  12.488  14.179   8.030
90356SOL    HW272843  12.580  14.298   8.012
90357SOL     OW72844   6.801  12.088   9.475
90357SOL    HW172845   6.714  12.049   9.482
90357SOL    HW272846   6.846  12.060   9.555
90358SOL     OW72847   1.059   2.722  10.920
90358SOL    HW172848   1.101   2.784  10.861
90358SOL    HW272849   1.048   2.642  10.867
90359SOL     OW72850   9.071   5.963   6.557
90359SOL    HW172851   9.092   6.018   6.632
90359SOL    HW272852   9.108   5.877   6.580
90360SOL     OW72853   7.171   6.913  13.967
90360SOL    HW172854   7.126   6.855  14.027
90360SOL    HW272855   7.204   6.856  13.898
90361SOL     OW72856   1.431   8.308   0.646
90361SOL    HW172857   1.519   8.331   0.675
90361SOL    HW272858   1.427   8.213   0.658
90362SOL     OW72859   5.003  12.125   2.571
90362SOL    HW172860   5.032  12.071   2.644
90362SOL    HW272861   5.012  12.215   2.604
90363SOL     OW72862   0.932  12.138  11.710
90363SOL    HW172863   0.962  12.198  11.778
90363SOL    HW272864   1.010  12.088  11.686
90364SOL     OW72865   3.248   2.811   8.596
90364SOL    HW172866   3.333   2.805   8.553
90364SOL    HW272867   3.227   2.722   8.622
90365SOL     OW72868   2.881   7.391   4.351
90365SOL    HW172869   2.885   7.368   4.444
90365SOL    HW272870   2.943   7.464   4.342
90366SOL     OW72871  11.289   5.312   4.375
90366SOL    HW172872  11.358   5.307   4.441
90366SOL    HW272873  11.257   5.402   4.380
90367SOL     OW72874   7.564  13.415  11.128
90367SOL    HW172875   7.595  13.439  11.041
90367SOL    HW272876   7.619  13.341  11.154
90368SOL     OW72877   3.062  12.731   5.669
90368SOL    HW172878   3.122  12.763   5.601
90368SOL    HW272879   2.992  12.797   5.671
90369SOL     OW72880   4.712  12.818  13.663
90369SOL    HW172881   4.652  12.795  13.734
90369SOL    HW272882   4.749  12.902  13.690
90370SOL     OW72883  10.110   0.963   9.879
90370SOL    HW172884  10.040   0.943   9.818
90370SOL    HW272885  10.077   0.934   9.964
90371SOL     OW72886   1.910   7.410  14.724
90371SOL    HW172887   1.898   7.465  14.802
90371SOL    HW272888   2.000   7.427  14.696
90372SOL     OW72889   1.228   2.653   9.631
90372SOL    HW172890   1.155   2.594   9.613
90372SOL    HW272891   1.200   2.738   9.597
90373SOL     OW72892   0.380  12.682   8.015
90373SOL    HW172893   0.429  12.664   7.934
90373SOL    HW272894   0.441  12.732   8.069
90374SOL     OW72895   0.001   5.322   6.748
90374SOL    HW172896   0.005   5.372   6.830
90374SOL    HW272897   0.062   5.367   6.690
90375SOL     OW72898   4.058   1.651  11.032
90375SOL    HW172899   4.144   1.608  11.036
90375SOL    HW272900   4.065   1.713  10.960
90376SOL     OW72901   6.816   5.715   7.387
90376SOL    HW172902   6.869   5.763   7.323
90376SOL    HW272903   6.804   5.628   7.349
90377SOL     OW72904   7.781  10.555  10.226
90377SOL    HW172905   7.815  10.592  10.307
90377SOL    HW272906   7.844  10.580  10.159
90378SOL     OW72907  13.199  10.653   4.395
90378SOL    HW172908  13.278  10.604   4.369
90378SOL    HW272909  13.136  10.585   4.419
90379SOL     OW72910  13.542   0.771   7.839
90379SOL    HW172911  13.528   0.838   7.772
90379SOL    HW272912  13.466   0.713   7.832
90380SOL     OW72913   3.624   8.721   8.072
90380SOL    HW172914   3.713   8.732   8.038
90380SOL    HW272915   3.631   8.745   8.165
90381SOL     OW72916   2.726   2.930   5.723
90381SOL    HW172917   2.669   2.862   5.758
90381SOL    HW272918   2.761   2.892   5.642
90382SOL     OW72919   6.215  13.490   1.913
90382SOL    HW172920   6.310  13.483   1.903
90382SOL    HW272921   6.192  13.415   1.968
90383SOL     OW72922  10.094   7.531   2.709
90383SOL    HW172923  10.094   7.483   2.626
90383SOL    HW272924  10.091   7.463   2.776
90384SOL     OW72925   0.444  13.234   9.899
90384SOL    HW172926   0.443  13.139   9.890
90384SOL    HW272927   0.537  13.257   9.903
90385SOL     OW72928  12.704  13.303  12.524
90385SOL    HW172929  12.655  13.379  12.491
90385SOL    HW272930  12.795  13.321  12.501
90386SOL     OW72931   5.047   1.919   7.030
90386SOL    HW172932   5.022   1.844   7.084
90386SOL    HW272933   5.073   1.987   7.092
90387SOL     OW72934   0.583  11.900   2.320
90387SOL    HW172935   0.612  11.952   2.396
90387SOL    HW272936   0.490  11.922   2.311
90388SOL     OW72937   6.504   4.779  12.198
90388SOL    HW172938   6.554   4.826  12.131
90388SOL    HW272939   6.570   4.727  12.243
90389SOL     OW72940  12.565   9.642  12.567
90389SOL    HW172941  12.550   9.648  12.662
90389SOL    HW272942  12.491   9.591  12.534
90390SOL     OW72943  13.223   5.513   8.780
90390SOL    HW172944  13.301   5.551   8.739
90390SOL    HW272945  13.151   5.569   8.752
90391SOL     OW72946  13.810   2.107   1.495
90391SOL    HW172947  13.868   2.166   1.542
90391SOL    HW272948  13.736   2.093   1.554
90392SOL     OW72949   4.731   3.261   2.845
90392SOL    HW172950   4.673   3.317   2.897
90392SOL    HW272951   4.677   3.232   2.772
90393SOL     OW72952   9.089   9.187  10.545
90393SOL    HW172953   9.092   9.198  10.450
90393SOL    HW272954   9.011   9.234  10.572
90394SOL     OW72955   6.670  14.812  14.130
90394SOL    HW172956   6.709  14.843  14.211
90394SOL    HW272957   6.706  14.724  14.117
90395SOL     OW72958   0.260  10.406   2.105
90395SOL    HW172959   0.193  10.346   2.139
90395SOL    HW272960   0.210  10.473   2.058
90396SOL     OW72961   9.368   1.721  14.226
90396SOL    HW172962   9.422   1.801  14.230
90396SOL    HW272963   9.284   1.751  14.193
90397SOL     OW72964  12.880   5.703   0.477
90397SOL    HW172965  12.964   5.748   0.476
90397SOL    HW272966  12.858   5.694   0.569
90398SOL     OW72967   1.824   6.005  11.709
90398SOL    HW172968   1.868   5.930  11.669
90398SOL    HW272969   1.852   6.002  11.801
90399SOL     OW72970   8.861  10.531  10.693
90399SOL    HW172971   8.820  10.473  10.629
90399SOL    HW272972   8.788  10.570  10.741
90400SOL     OW72973   0.017  11.996   0.778
90400SOL    HW172974   0.068  12.025   0.853
90400SOL    HW272975   0.061  12.033   0.702
90401SOL     OW72976   6.864   9.593   4.036
90401SOL    HW172977   6.787   9.548   4.068
90401SOL    HW272978   6.937   9.553   4.082
90402SOL     OW72979   9.747  10.748  12.452
90402SOL    HW172980   9.758  10.808  12.525
90402SOL    HW272981   9.653  10.736  12.444
90403SOL     OW72982   0.683  10.458   2.748
90403SOL    HW172983   0.713  10.532   2.801
90403SOL    HW272984   0.591  10.478   2.728
90404SOL     OW72985  11.891   6.284   7.956
90404SOL    HW172986  11.833   6.353   7.922
90404SOL    HW272987  11.978   6.324   7.956
90405SOL     OW72988   6.413  12.139   5.881
90405SOL    HW172989   6.405  12.053   5.922
90405SOL    HW272990   6.324  12.161   5.853
90406SOL     OW72991   5.344   0.975  12.041
90406SOL    HW172992   5.377   0.962  11.952
90406SOL    HW272993   5.265   0.922  12.046
90407SOL     OW72994   5.980   6.168  11.019
90407SOL    HW172995   6.018   6.114  11.089
90407SOL    HW272996   6.055   6.192  10.964
90408SOL     OW72997   1.352   3.116   6.675
90408SOL    HW172998   1.306   3.061   6.739
90408SOL    HW272999   1.293   3.191   6.661
90409SOL     OW73000  14.099   0.895   8.903
90409SOL    HW173001  14.006   0.872   8.905
90409SOL    HW273002  14.144   0.821   8.945
90410SOL     OW73003   3.829   0.415   3.483
90410SOL    HW173004   3.839   0.418   3.578
90410SOL    HW273005   3.916   0.390   3.451
90411SOL     OW73006   1.104   2.789   3.950
90411SOL    HW173007   1.044   2.833   4.010
90411SOL    HW273008   1.139   2.860   3.896
90412SOL     OW73009  14.199   1.159  12.705
90412SOL    HW173010  14.133   1.097  12.674
90412SOL    HW273011  14.212   1.218  12.630
90413SOL     OW73012   0.452  13.600   2.713
90413SOL    HW173013   0.544  13.626   2.720
90413SOL    HW273014   0.453  13.526   2.652
90414SOL     OW73015  10.289  14.191  10.887
90414SOL    HW173016  10.333  14.108  10.903
90414SOL    HW273017  10.225  14.172  10.819
90415SOL     OW73018   4.794   4.231   6.936
90415SOL    HW173019   4.832   4.266   6.855
90415SOL    HW273020   4.743   4.155   6.908
90416SOL     OW73021   3.835   5.802   6.027
90416SOL    HW173022   3.899   5.812   5.956
90416SOL    HW273023   3.864   5.724   6.074
90417SOL     OW73024  13.927   6.438   6.854
90417SOL    HW173025  13.995   6.493   6.817
90417SOL    HW273026  13.923   6.463   6.946
90418SOL     OW73027   1.032  13.404   6.050
90418SOL    HW173028   0.981  13.334   6.092
90418SOL    HW273029   1.121  13.389   6.080
90419SOL     OW73030   8.115   2.785  13.243
90419SOL    HW173031   8.075   2.856  13.293
90419SOL    HW273032   8.122   2.713  13.306
90420SOL     OW73033   4.056   8.609   1.990
90420SOL    HW173034   4.002   8.635   2.065
90420SOL    HW273035   4.145   8.606   2.025
90421SOL     OW73036   9.924   3.574   4.009
90421SOL    HW173037   9.980   3.531   4.073
90421SOL    HW273038   9.835   3.553   4.038
90422SOL     OW73039   6.022  13.575  14.318
90422SOL    HW173040   5.955  13.526  14.366
90422SOL    HW273041   6.019  13.663  14.355
90423SOL     OW73042   7.746   3.439  10.903
90423SOL    HW173043   7.721   3.348  10.916
90423SOL    HW273044   7.672   3.478  10.857
90424SOL     OW73045   6.406   1.994   8.676
90424SOL    HW173046   6.492   1.973   8.711
90424SOL    HW273047   6.422   2.066   8.614
90425SOL     OW73048   2.228   5.816   7.125
90425SOL    HW173049   2.263   5.809   7.036
90425SOL    HW273050   2.288   5.875   7.170
90426SOL     OW73051   9.477  14.347  11.775
90426SOL    HW173052   9.539  14.353  11.702
90426SOL    HW273053   9.463  14.438  11.802
90427SOL     OW73054  12.585  13.843  11.944
90427SOL    HW173055  12.678  13.860  11.963
90427SOL    HW273056  12.538  13.893  12.011
90428SOL     OW73057   3.340   0.541   6.470
90428SOL    HW173058   3.392   0.485   6.528
90428SOL    HW273059   3.386   0.537   6.386
90429SOL     OW73060   6.112   9.162  11.117
90429SOL    HW173061   6.023   9.128  11.115
90429SOL    HW273062   6.134   9.169  11.210
90430SOL     OW73063   9.687   5.338   6.527
90430SOL    HW173064   9.643   5.278   6.587
90430SOL    HW273065   9.772   5.355   6.569
90431SOL     OW73066   0.331   5.746   4.931
90431SOL    HW173067   0.241   5.713   4.932
90431SOL    HW273068   0.346   5.776   5.021
90432SOL     OW73069   5.951   1.647  13.936
90432SOL    HW173070   5.856   1.659  13.929
90432SOL    HW273071   5.975   1.597  13.858
90433SOL     OW73072   7.680   1.245  12.583
90433SOL    HW173073   7.659   1.192  12.506
90433SOL    HW273074   7.769   1.218  12.607
90434SOL     OW73075   1.352   3.098   3.718
90434SOL    HW173076   1.393   3.184   3.728
90434SOL    HW273077   1.270   3.116   3.673
90435SOL     OW73078   5.223  14.870  11.006
90435SOL    HW173079   5.198   0.071  10.958
90435SOL    HW273080   5.319  14.872  11.008
90436SOL     OW73081   4.270   6.636   9.897
90436SOL    HW173082   4.286   6.561   9.954
90436SOL    HW273083   4.183   6.667   9.923
90437SOL     OW73084   0.090  13.456   3.642
90437SOL    HW173085   0.025  13.434   3.575
90437SOL    HW273086   0.174  13.447   3.598
90438SOL     OW73087   4.888  11.155  14.510
90438SOL    HW173088   4.867  11.238  14.468
90438SOL    HW273089   4.860  11.088  14.447
90439SOL     OW73090  10.024  12.927   1.346
90439SOL    HW173091   9.936  12.891   1.339
90439SOL    HW273092  10.081  12.860   1.309
90440SOL     OW73093   7.069  12.101  13.262
90440SOL    HW173094   7.072  12.015  13.304
90440SOL    HW273095   7.154  12.141  13.282
90441SOL     OW73096   0.199  11.275   1.496
90441SOL    HW173097   0.134  11.286   1.428
90441SOL    HW273098   0.195  11.183   1.520
90442SOL     OW73099  13.530  13.644   9.893
90442SOL    HW173100  13.615  13.651   9.936
90442SOL    HW273101  13.467  13.673   9.959
90443SOL     OW73102   2.141   8.989   6.163
90443SOL    HW173103   2.086   9.025   6.233
90443SOL    HW273104   2.219   9.043   6.164
90444SOL     OW73105  12.554   0.428   0.715
90444SOL    HW173106  12.530   0.369   0.787
90444SOL    HW273107  12.608   0.374   0.657
90445SOL     OW73108  11.852   8.926   9.809
90445SOL    HW173109  11.916   8.879   9.755
90445SOL    HW273110  11.878   8.907   9.899
90446SOL     OW73111  11.366   2.866   0.291
90446SOL    HW173112  11.363   2.888   0.384
90446SOL    HW273113  11.386   2.772   0.290
90447SOL     OW73114  14.039   5.162   9.993
90447SOL    HW173115  14.107   5.161   9.926
90447SOL    HW273116  14.015   5.254  10.002
90448SOL     OW73117  10.438   6.564   1.669
90448SOL    HW173118  10.475   6.522   1.591
90448SOL    HW273119  10.397   6.493   1.718
90449SOL     OW73120  12.777   0.152  11.964
90449SOL    HW173121  12.834   0.171  11.889
90449SOL    HW273122  12.730   0.234  11.979
90450SOL     OW73123   4.975  12.873   8.439
90450SOL    HW173124   4.924  12.873   8.519
90450SOL    HW273125   4.995  12.781   8.422
90451SOL     OW73126  13.856   1.672   2.413
90451SOL    HW173127  13.907   1.753   2.408
90451SOL    HW273128  13.921   1.603   2.419
90452SOL     OW73129  13.374   0.168   0.649
90452SOL    HW173130  13.396   0.237   0.587
90452SOL    HW273131  13.279   0.167   0.651
90453SOL     OW73132   0.566  11.522  13.787
90453SOL    HW173133   0.648  11.502  13.742
90453SOL    HW273134   0.529  11.436  13.808
90454SOL     OW73135   1.965  12.011   5.449
90454SOL    HW173136   2.001  11.975   5.368
90454SOL    HW273137   2.032  11.992   5.516
90455SOL     OW73138   8.563   2.593   3.617
90455SOL    HW173139   8.592   2.671   3.569
90455SOL    HW273140   8.473   2.613   3.642
90456SOL     OW73141   2.698   0.534   2.856
90456SOL    HW173142   2.752   0.499   2.785
90456SOL    HW273143   2.754   0.599   2.899
90457SOL     OW73144  10.319   3.708  14.461
90457SOL    HW173145  10.279   3.668  14.384
90457SOL    HW273146  10.301   3.802  14.451
90458SOL     OW73147  13.816   6.941   4.861
90458SOL    HW173148  13.736   6.977   4.900
90458SOL    HW273149  13.878   6.935   4.934
90459SOL     OW73150   3.136   1.343   0.907
90459SOL    HW173151   3.051   1.330   0.949
90459SOL    HW273152   3.133   1.286   0.829
90460SOL     OW73153  10.288   5.605   0.733
90460SOL    HW173154  10.208   5.609   0.681
90460SOL    HW273155  10.268   5.540   0.801
90461SOL     OW73156  14.518  13.109   4.235
90461SOL    HW173157  14.504  13.156   4.317
90461SOL    HW273158  14.444  13.134   4.180
90462SOL     OW73159   8.432  13.933   6.928
90462SOL    HW173160   8.365  14.000   6.920
90462SOL    HW273161   8.438  13.893   6.841
90463SOL     OW73162  14.308   1.227   9.344
90463SOL    HW173163  14.274   1.211   9.432
90463SOL    HW273164  14.277   1.152   9.292
90464SOL     OW73165  10.322  13.141  12.800
90464SOL    HW173166  10.372  13.068  12.763
90464SOL    HW273167  10.307  13.199  12.725
90465SOL     OW73168   1.951   7.847   9.818
90465SOL    HW173169   1.946   7.901   9.898
90465SOL    HW273170   1.963   7.911   9.748
90466SOL     OW73171   5.661  13.806   2.309
90466SOL    HW173172   5.679  13.806   2.403
90466SOL    HW273173   5.649  13.713   2.287
90467SOL     OW73174  14.197   2.084   0.133
90467SOL    HW173175  14.272   2.024   0.135
90467SOL    HW273176  14.146   2.061   0.211
90468SOL     OW73177   7.890   0.925  10.460
90468SOL    HW173178   7.968   0.942  10.512
90468SOL    HW273179   7.817   0.950  10.517
90469SOL     OW73180   4.617   5.270   2.254
90469SOL    HW173181   4.541   5.322   2.229
90469SOL    HW273182   4.641   5.301   2.341
90470SOL     OW73183   4.995   3.224  11.469
90470SOL    HW173184   4.983   3.279  11.546
90470SOL    HW273185   4.926   3.251  11.409
90471SOL     OW73186   8.393   2.043   3.744
90471SOL    HW173187   8.323   2.069   3.685
90471SOL    HW273188   8.350   2.025   3.827
90472SOL     OW73189   0.536   6.998   3.248
90472SOL    HW173190   0.542   7.087   3.211
90472SOL    HW273191   0.624   6.962   3.238
90473SOL     OW73192   7.994   6.307   4.021
90473SOL    HW173193   7.984   6.245   3.949
90473SOL    HW273194   8.057   6.372   3.988
90474SOL     OW73195  14.515   8.813   3.081
90474SOL    HW173196  14.464   8.733   3.095
90474SOL    HW273197  14.596   8.782   3.040
90475SOL     OW73198   8.704   0.968  13.247
90475SOL    HW173199   8.731   0.930  13.331
90475SOL    HW273200   8.778   0.953  13.189
90476SOL     OW73201  10.230  13.454   8.963
90476SOL    HW173202  10.262  13.469   9.052
90476SOL    HW273203  10.208  13.542   8.931
90477SOL     OW73204   1.959   6.316   8.678
90477SOL    HW173205   1.909   6.279   8.605
90477SOL    HW273206   1.892   6.343   8.741
90478SOL     OW73207   9.484   2.574   9.290
90478SOL    HW173208   9.497   2.484   9.258
90478SOL    HW273209   9.573   2.608   9.301
90479SOL     OW73210  10.280  11.124   3.833
90479SOL    HW173211  10.345  11.063   3.799
90479SOL    HW273212  10.331  11.187   3.884
90480SOL     OW73213   5.544   9.459   3.587
90480SOL    HW173214   5.531   9.380   3.639
90480SOL    HW273215   5.634   9.485   3.605
90481SOL     OW73216   1.878   4.039   1.812
90481SOL    HW173217   1.834   3.983   1.749
90481SOL    HW273218   1.947   3.985   1.849
90482SOL     OW73219  14.060   2.459   0.967
90482SOL    HW173220  13.988   2.482   0.909
90482SOL    HW273221  14.123   2.530   0.956
90483SOL     OW73222   3.093  11.809  14.219
90483SOL    HW173223   3.185  11.789  14.198
90483SOL    HW273224   3.099  11.868  14.294
90484SOL     OW73225  11.807   7.517   9.040
90484SOL    HW173226  11.803   7.512   9.136
90484SOL    HW273227  11.807   7.611   9.021
90485SOL     OW73228   1.435   3.627   8.328
90485SOL    HW173229   1.361   3.685   8.348
90485SOL    HW273230   1.512   3.684   8.333
90486SOL     OW73231   3.945   3.840  14.584
90486SOL    HW173232   3.952   3.767  14.645
90486SOL    HW273233   3.918   3.915  14.639
90487SOL     OW73234   1.208   8.057   8.533
90487SOL    HW173235   1.145   8.088   8.468
90487SOL    HW273236   1.237   8.137   8.578
90488SOL     OW73237   4.950  10.910  10.081
90488SOL    HW173238   4.900  10.971  10.027
90488SOL    HW273239   5.002  10.860  10.019
90489SOL     OW73240   1.140   5.407  10.040
90489SOL    HW173241   1.221   5.357  10.052
90489SOL    HW273242   1.132   5.459  10.120
90490SOL     OW73243   9.612   1.114   3.526
90490SOL    HW173244   9.605   1.161   3.443
90490SOL    HW273245   9.699   1.076   3.525
90491SOL     OW73246  14.524   7.630  12.188
90491SOL    HW173247  14.531   7.611  12.281
90491SOL    HW273248  14.491   7.549  12.149
90492SOL     OW73249  10.515  12.847   5.364
90492SOL    HW173250  10.452  12.902   5.317
90492SOL    HW273251  10.567  12.806   5.295
90493SOL     OW73252   7.706  12.152   7.416
90493SOL    HW173253   7.742  12.211   7.350
90493SOL    HW273254   7.689  12.070   7.369
90494SOL     OW73255   3.668  14.367   4.250
90494SOL    HW173256   3.737  14.346   4.314
90494SOL    HW273257   3.711  14.428   4.190
90495SOL     OW73258   3.729   9.057   6.262
90495SOL    HW173259   3.727   8.962   6.271
90495SOL    HW273260   3.656   9.077   6.203
90496SOL     OW73261  13.713  12.301   6.108
90496SOL    HW173262  13.739  12.287   6.199
90496SOL    HW273263  13.668  12.385   6.108
90497SOL     OW73264  14.520   4.990   6.895
90497SOL    HW173265  14.528   4.900   6.863
90497SOL    HW273266  14.569   5.043   6.831
90498SOL     OW73267   8.428   7.885  12.331
90498SOL    HW173268   8.411   7.818  12.397
90498SOL    HW273269   8.516   7.866  12.298
90499SOL     OW73270   0.224  14.714   6.385
90499SOL    HW173271   0.168  14.642   6.414
90499SOL    HW273272   0.280  14.675   6.318
90500SOL     OW73273   0.080   4.064   5.120
90500SOL    HW173274   0.034   4.108   5.192
90500SOL    HW273275   0.163   4.035   5.159
90501SOL     OW73276   9.663   9.325  12.580
90501SOL    HW173277   9.667   9.350  12.488
90501SOL    HW273278   9.755   9.325  12.609
90502SOL     OW73279   2.390  13.812  10.788
90502SOL    HW173280   2.345  13.887  10.751
90502SOL    HW273281   2.450  13.850  10.852
90503SOL     OW73282   1.458   6.489  13.473
90503SOL    HW173283   1.440   6.520  13.562
90503SOL    HW273284   1.380   6.514  13.424
90504SOL     OW73285  10.715  12.071   9.739
90504SOL    HW173286  10.716  12.084   9.833
90504SOL    HW273287  10.622  12.067   9.716
90505SOL     OW73288   8.235  11.134  12.451
90505SOL    HW173289   8.141  11.150  12.454
90505SOL    HW273290   8.244  11.041  12.475
90506SOL     OW73291  12.145   6.305   4.974
90506SOL    HW173292  12.101   6.287   4.891
90506SOL    HW273293  12.109   6.389   5.003
90507SOL     OW73294  10.819   3.277   3.006
90507SOL    HW173295  10.879   3.315   2.941
90507SOL    HW273296  10.869   3.277   3.087
90508SOL     OW73297  12.582   3.493   8.845
90508SOL    HW173298  12.493   3.483   8.879
90508SOL    HW273299  12.595   3.588   8.842
90509SOL     OW73300  10.442   8.857   4.731
90509SOL    HW173301  10.363   8.868   4.679
90509SOL    HW273302  10.512   8.850   4.667
90510SOL     OW73303  14.122  10.863  12.249
90510SOL    HW173304  14.192  10.856  12.184
90510SOL    HW273305  14.136  10.789  12.308
90511SOL     OW73306   1.127   5.563   6.877
90511SOL    HW173307   1.106   5.616   6.801
90511SOL    HW273308   1.191   5.614   6.926
90512SOL     OW73309   4.120   8.774   1.092
90512SOL    HW173310   4.139   8.828   1.168
90512SOL    HW273311   4.093   8.690   1.128
90513SOL     OW73312   3.653   7.469   2.634
90513SOL    HW173313   3.711   7.396   2.657
90513SOL    HW273314   3.699   7.513   2.562
90514SOL     OW73315   9.159  11.158  10.650
90514SOL    HW173316   9.104  11.087  10.618
90514SOL    HW273317   9.185  11.131  10.738
90515SOL     OW73318  12.560   1.613  12.316
90515SOL    HW173319  12.505   1.582  12.388
90515SOL    HW273320  12.645   1.571  12.331
90516SOL     OW73321  14.071  10.534  14.391
90516SOL    HW173322  14.146  10.573  14.435
90516SOL    HW273323  13.997  10.588  14.418
90517SOL     OW73324  11.161   6.638  11.677
90517SOL    HW173325  11.149   6.675  11.764
90517SOL    HW273326  11.092   6.573  11.668
90518SOL     OW73327  11.653   8.128   6.686
90518SOL    HW173328  11.604   8.054   6.723
90518SOL    HW273329  11.701   8.165   6.760
90519SOL     OW73330   1.674   7.785  10.639
90519SOL    HW173331   1.686   7.748  10.552
90519SOL    HW273332   1.685   7.711  10.698
90520SOL     OW73333   7.097   8.545  11.782
90520SOL    HW173334   7.162   8.529  11.850
90520SOL    HW273335   7.090   8.641  11.778
90521SOL     OW73336   3.989   9.669   3.261
90521SOL    HW173337   3.914   9.716   3.225
90521SOL    HW273338   4.065   9.720   3.232
90522SOL     OW73339  14.717   2.485   1.390
90522SOL    HW173340  14.655   2.414   1.377
90522SOL    HW273341  14.798   2.442   1.416
90523SOL     OW73342   7.179   5.105   2.746
90523SOL    HW173343   7.242   5.056   2.694
90523SOL    HW273344   7.230   5.141   2.819
90524SOL     OW73345   4.158   5.117  12.981
90524SOL    HW173346   4.143   5.212  12.982
90524SOL    HW273347   4.118   5.088  12.899
90525SOL     OW73348   6.753   6.882   7.812
90525SOL    HW173349   6.782   6.807   7.864
90525SOL    HW273350   6.829   6.939   7.806
90526SOL     OW73351   5.487   6.742  10.881
90526SOL    HW173352   5.521   6.831  10.872
90526SOL    HW273353   5.562   6.685  10.865
90527SOL     OW73354  13.497   3.131   3.959
90527SOL    HW173355  13.563   3.075   3.919
90527SOL    HW273356  13.522   3.136   4.052
90528SOL     OW73357  12.456   7.651   9.538
90528SOL    HW173358  12.401   7.690   9.606
90528SOL    HW273359  12.471   7.722   9.476
90529SOL     OW73360   5.230  14.135   4.035
90529SOL    HW173361   5.162  14.202   4.043
90529SOL    HW273362   5.217  14.080   4.113
90530SOL     OW73363   5.293   7.352   4.842
90530SOL    HW173364   5.326   7.400   4.918
90530SOL    HW273365   5.367   7.297   4.816
90531SOL     OW73366   7.707  10.727  13.834
90531SOL    HW173367   7.641  10.721  13.766
90531SOL    HW273368   7.734  10.819  13.834
90532SOL     OW73369   6.218   6.874  13.306
90532SOL    HW173370   6.237   6.967  13.295
90532SOL    HW273371   6.147   6.856  13.243
90533SOL     OW73372   0.930  10.817   9.310
90533SOL    HW173373   0.983  10.770   9.245
90533SOL    HW273374   0.842  10.780   9.301
90534SOL     OW73375   5.350  14.674   7.317
90534SOL    HW173376   5.338  14.590   7.274
90534SOL    HW273377   5.264  14.717   7.310
90535SOL     OW73378   3.162  14.392   5.194
90535SOL    HW173379   3.169  14.453   5.121
90535SOL    HW273380   3.068  14.386   5.211
90536SOL     OW73381   5.314   6.888   6.578
90536SOL    HW173382   5.333   6.945   6.653
90536SOL    HW273383   5.336   6.800   6.610
90537SOL     OW73384   9.978  11.852   8.933
90537SOL    HW173385   9.938  11.840   8.847
90537SOL    HW273386  10.047  11.917   8.920
90538SOL     OW73387   9.198   4.169   1.490
90538SOL    HW173388   9.260   4.218   1.436
90538SOL    HW273389   9.128   4.145   1.431
90539SOL     OW73390   3.208  14.052  13.238
90539SOL    HW173391   3.278  14.093  13.287
90539SOL    HW273392   3.151  14.124  13.212
90540SOL     OW73393   0.751  12.609  10.206
90540SOL    HW173394   0.782  12.673  10.271
90540SOL    HW273395   0.673  12.650  10.168
90541SOL     OW73396   0.034   3.730   3.188
90541SOL    HW173397   0.042   3.825   3.196
90541SOL    HW273398  14.831   3.716   3.138
90542SOL     OW73399   9.599   3.219   9.254
90542SOL    HW173400   9.531   3.164   9.214
90542SOL    HW273401   9.552   3.296   9.286
90543SOL     OW73402  14.398   5.634  11.489
90543SOL    HW173403  14.317   5.583  11.488
90543SOL    HW273404  14.459   5.580  11.539
90544SOL     OW73405   4.616   3.622  10.674
90544SOL    HW173406   4.690   3.637  10.616
90544SOL    HW273407   4.592   3.531  10.660
90545SOL     OW73408   9.636  13.356   1.652
90545SOL    HW173409   9.563  13.403   1.691
90545SOL    HW273410   9.634  13.269   1.693
90546SOL     OW73411   1.988   5.964  12.516
90546SOL    HW173412   2.002   5.899  12.447
90546SOL    HW273413   1.958   6.042  12.469
90547SOL     OW73414   4.718  14.527   9.224
90547SOL    HW173415   4.796  14.529   9.280
90547SOL    HW273416   4.728  14.602   9.166
90548SOL     OW73417  14.382   1.877   2.190
90548SOL    HW173418  14.362   1.849   2.100
90548SOL    HW273419  14.376   1.796   2.242
90549SOL     OW73420   8.503   4.502   7.666
90549SOL    HW173421   8.567   4.437   7.696
90549SOL    HW273422   8.458   4.460   7.592
90550SOL     OW73423   9.478   8.219  12.711
90550SOL    HW173424   9.460   8.263  12.628
90550SOL    HW273425   9.483   8.289  12.775
90551SOL     OW73426   8.382   5.138  13.009
90551SOL    HW173427   8.445   5.066  13.008
90551SOL    HW273428   8.297   5.095  13.021
90552SOL     OW73429   0.770  10.444   6.439
90552SOL    HW173430   0.815  10.417   6.519
90552SOL    HW273431   0.841  10.469   6.379
90553SOL     OW73432   4.870   1.388  10.256
90553SOL    HW173433   4.801   1.322  10.250
90553SOL    HW273434   4.938   1.357  10.197
90554SOL     OW73435   6.367   4.653   9.762
90554SOL    HW173436   6.289   4.598   9.761
90554SOL    HW273437   6.340   4.733   9.807
90555SOL     OW73438   2.146   3.982   2.797
90555SOL    HW173439   2.124   3.903   2.747
90555SOL    HW273440   2.220   4.020   2.750
90556SOL     OW73441  10.218  11.642   9.805
90556SOL    HW173442  10.147  11.600   9.757
90556SOL    HW273443  10.180  11.722   9.840
90557SOL     OW73444   8.970   3.728   5.553
90557SOL    HW173445   9.030   3.701   5.623
90557SOL    HW273446   8.959   3.649   5.499
90558SOL     OW73447   9.085  11.313   6.493
90558SOL    HW173448   9.026  11.260   6.440
90558SOL    HW273449   9.116  11.381   6.434
90559SOL     OW73450   3.153   6.124  12.699
90559SOL    HW173451   3.155   6.070  12.779
90559SOL    HW273452   3.137   6.213  12.731
90560SOL     OW73453   9.618   6.885   5.027
90560SOL    HW173454   9.643   6.976   5.012
90560SOL    HW273455   9.640   6.869   5.119
90561SOL     OW73456   9.682  12.169  10.449
90561SOL    HW173457   9.668  12.263  10.452
90561SOL    HW273458   9.643  12.141  10.366
90562SOL     OW73459   9.377   7.972   1.653
90562SOL    HW173460   9.379   7.903   1.718
90562SOL    HW273461   9.455   8.025   1.671
90563SOL     OW73462   5.589   3.749   9.662
90563SOL    HW173463   5.501   3.712   9.657
90563SOL    HW273464   5.642   3.691   9.607
90564SOL     OW73465   3.424   4.435   7.490
90564SOL    HW173466   3.332   4.420   7.513
90564SOL    HW273467   3.465   4.459   7.574
90565SOL     OW73468   7.842  13.065   4.355
90565SOL    HW173469   7.926  13.063   4.401
90565SOL    HW273470   7.778  13.083   4.424
90566SOL     OW73471   8.649   7.341  10.292
90566SOL    HW173472   8.663   7.278  10.221
90566SOL    HW273473   8.708   7.414  10.271
90567SOL     OW73474  10.466   9.064   3.651
90567SOL    HW173475  10.476   9.009   3.574
90567SOL    HW273476  10.375   9.051   3.679
90568SOL     OW73477   6.771   3.045  10.493
90568SOL    HW173478   6.847   3.100  10.479
90568SOL    HW273479   6.697   3.106  10.499
90569SOL     OW73480   8.941  10.603   5.646
90569SOL    HW173481   9.023  10.633   5.606
90569SOL    HW273482   8.968  10.557   5.726
90570SOL     OW73483  13.754  10.833   1.651
90570SOL    HW173484  13.675  10.781   1.633
90570SOL    HW273485  13.822  10.768   1.667
90571SOL     OW73486   7.315   7.057   2.249
90571SOL    HW173487   7.378   7.017   2.309
90571SOL    HW273488   7.303   6.992   2.180
90572SOL     OW73489   6.437   3.258   9.841
90572SOL    HW173490   6.370   3.317   9.808
90572SOL    HW273491   6.479   3.223   9.762
90573SOL     OW73492  11.791   3.164   7.958
90573SOL    HW173493  11.771   3.128   8.044
90573SOL    HW273494  11.706   3.168   7.913
90574SOL     OW73495  11.530   3.486  10.167
90574SOL    HW173496  11.579   3.559  10.130
90574SOL    HW273497  11.442   3.495  10.129
90575SOL     OW73498   7.232   5.291   6.606
90575SOL    HW173499   7.322   5.258   6.609
90575SOL    HW273500   7.186   5.242   6.673
90576SOL     OW73501   4.285   6.271  14.038
90576SOL    HW173502   4.297   6.181  14.006
90576SOL    HW273503   4.234   6.314  13.970
90577SOL     OW73504  13.246   1.769   8.261
90577SOL    HW173505  13.195   1.831   8.209
90577SOL    HW273506  13.181   1.723   8.314
90578SOL     OW73507   9.267   2.242  14.251
90578SOL    HW173508   9.239   2.166  14.199
90578SOL    HW273509   9.361   2.249  14.235
90579SOL     OW73510   6.643   2.493   0.381
90579SOL    HW173511   6.589   2.571   0.396
90579SOL    HW273512   6.624   2.435   0.455
90580SOL     OW73513   9.782  14.742   4.611
90580SOL    HW173514   9.871  14.723   4.640
90580SOL    HW273515   9.792  14.769   4.519
90581SOL     OW73516   7.826  14.107   1.167
90581SOL    HW173517   7.787  14.106   1.254
90581SOL    HW273518   7.888  14.181   1.169
90582SOL     OW73519   8.982  11.013   6.688
90582SOL    HW173520   9.063  10.990   6.733
90582SOL    HW273521   8.913  10.992   6.750
90583SOL     OW73522   2.905  11.907  11.816
90583SOL    HW173523   2.905  11.887  11.722
90583SOL    HW273524   2.862  11.992  11.822
90584SOL     OW73525   3.022   3.892  11.882
90584SOL    HW173526   2.957   3.918  11.817
90584SOL    HW273527   3.003   3.799  11.899
90585SOL     OW73528   9.665  13.251   8.447
90585SOL    HW173529   9.595  13.188   8.464
90585SOL    HW273530   9.728  13.236   8.517
90586SOL     OW73531   4.591   2.111   3.309
90586SOL    HW173532   4.646   2.033   3.310
90586SOL    HW273533   4.632   2.168   3.243
90587SOL     OW73534   2.707  11.438   2.305
90587SOL    HW173535   2.800  11.432   2.282
90587SOL    HW273536   2.691  11.363   2.362
90588SOL     OW73537   7.044  14.129   4.795
90588SOL    HW173538   6.993  14.098   4.720
90588SOL    HW273539   6.995  14.098   4.871
90589SOL     OW73540   9.968   9.248   0.485
90589SOL    HW173541   9.997   9.194   0.412
90589SOL    HW273542   9.877   9.222   0.500
90590SOL     OW73543   8.502   1.113   1.018
90590SOL    HW173544   8.460   1.060   0.950
90590SOL    HW273545   8.593   1.084   1.018
90591SOL     OW73546   2.396   3.045  12.622
90591SOL    HW173547   2.340   3.009  12.691
90591SOL    HW273548   2.480   3.062  12.666
90592SOL     OW73549   4.596   8.956   2.721
90592SOL    HW173550   4.500   8.958   2.729
90592SOL    HW273551   4.611   8.966   2.627
90593SOL     OW73552  10.400   8.389  12.636
90593SOL    HW173553  10.429   8.302  12.610
90593SOL    HW273554  10.306   8.388  12.623
90594SOL     OW73555  11.122   7.066  11.655
90594SOL    HW173556  11.126   7.162  11.659
90594SOL    HW273557  11.077   7.041  11.735
90595SOL     OW73558  13.604   9.942  14.734
90595SOL    HW173559  13.682   9.925  14.787
90595SOL    HW273560  13.630   9.917  14.646
90596SOL     OW73561  10.211  13.045   6.282
90596SOL    HW173562  10.242  12.977   6.342
90596SOL    HW273563  10.287  13.067   6.229
90597SOL     OW73564  12.977  13.615  10.351
90597SOL    HW173565  12.902  13.594  10.406
90597SOL    HW273566  13.007  13.701  10.382
90598SOL     OW73567  14.201   5.167   7.818
90598SOL    HW173568  14.211   5.256   7.853
90598SOL    HW273569  14.227   5.174   7.727
90599SOL     OW73570   5.963  13.320   8.203
90599SOL    HW173571   6.007  13.308   8.288
90599SOL    HW273572   5.952  13.415   8.195
90600SOL     OW73573  11.614  11.283   8.302
90600SOL    HW173574  11.544  11.291   8.367
90600SOL    HW273575  11.632  11.189   8.297
90601SOL     OW73576  10.187   9.127   4.079
90601SOL    HW173577  10.117   9.063   4.064
90601SOL    HW273578  10.260   9.096   4.026
90602SOL     OW73579   3.694   1.285  11.912
90602SOL    HW173580   3.785   1.300  11.936
90602SOL    HW273581   3.662   1.371  11.883
90603SOL     OW73582   2.438   5.420   0.181
90603SOL    HW173583   2.348   5.435   0.151
90603SOL    HW273584   2.478   5.506   0.183
90604SOL     OW73585   0.067  11.555   3.353
90604SOL    HW173586   0.006  11.488   3.384
90604SOL    HW273587   0.149  11.535   3.398
90605SOL     OW73588   8.147  13.976  10.871
90605SOL    HW173589   8.216  14.042  10.871
90605SOL    HW273590   8.192  13.895  10.847
90606SOL     OW73591  10.294   6.482  13.830
90606SOL    HW173592  10.358   6.548  13.856
90606SOL    HW273593  10.321   6.456  13.742
90607SOL     OW73594   6.658   0.330   5.566
90607SOL    HW173595   6.721   0.272   5.524
90607SOL    HW273596   6.694   0.418   5.554
90608SOL     OW73597   4.100   6.303   7.728
90608SOL    HW173598   4.187   6.315   7.765
90608SOL    HW273599   4.080   6.211   7.742
90609SOL     OW73600  14.137   2.716  10.353
90609SOL    HW173601  14.093   2.788  10.310
90609SOL    HW273602  14.128   2.735  10.447
90610SOL     OW73603  10.519   0.334   5.818
90610SOL    HW173604  10.508   0.346   5.912
90610SOL    HW273605  10.451   0.389   5.779
90611SOL     OW73606   3.020   0.029  14.816
90611SOL    HW173607   3.090   0.092  14.832
90611SOL    HW273608   2.961   0.074  14.755
90612SOL     OW73609   0.915   1.186   5.118
90612SOL    HW173610   0.937   1.279   5.128
90612SOL    HW273611   0.886   1.159   5.205
90613SOL     OW73612   8.610   6.389   9.536
90613SOL    HW173613   8.628   6.350   9.621
90613SOL    HW273614   8.615   6.315   9.475
90614SOL     OW73615   8.266  13.516   4.727
90614SOL    HW173616   8.238  13.431   4.694
90614SOL    HW273617   8.291  13.500   4.818
90615SOL     OW73618   9.233   2.468  11.041
90615SOL    HW173619   9.139   2.455  11.026
90615SOL    HW273620   9.255   2.403  11.108
90616SOL     OW73621  10.857  11.286   3.398
90616SOL    HW173622  10.946  11.252   3.386
90616SOL    HW273623  10.866  11.354   3.464
90617SOL     OW73624   8.902   3.085   6.790
90617SOL    HW173625   8.962   3.157   6.768
90617SOL    HW273626   8.862   3.061   6.707
90618SOL     OW73627   7.347   0.707  14.834
90618SOL    HW173628   7.362   0.798  14.859
90618SOL    HW273629   7.334   0.661   0.040
90619SOL     OW73630  11.086   1.360   2.579
90619SOL    HW173631  11.047   1.297   2.639
90619SOL    HW273632  11.115   1.432   2.634
90620SOL     OW73633   3.726   6.557  10.377
90620SOL    HW173634   3.663   6.559  10.449
90620SOL    HW273635   3.800   6.609  10.407
90621SOL     OW73636   6.111   5.161  13.597
90621SOL    HW173637   6.202   5.139  13.576
90621SOL    HW273638   6.079   5.207  13.520
90622SOL     OW73639   9.021  10.439  12.419
90622SOL    HW173640   9.031  10.499  12.494
90622SOL    HW273641   8.952  10.379  12.445
90623SOL     OW73642  13.616  13.815   9.151
90623SOL    HW173643  13.525  13.834   9.129
90623SOL    HW273644  13.660  13.901   9.147
90624SOL     OW73645  11.791   6.572  14.031
90624SOL    HW173646  11.718   6.613  14.078
90624SOL    HW273647  11.786   6.480  14.055
90625SOL     OW73648  11.652  11.555  12.077
90625SOL    HW173649  11.716  11.620  12.046
90625SOL    HW273650  11.665  11.479  12.020
90626SOL     OW73651  11.469   5.046  12.170
90626SOL    HW173652  11.537   5.113  12.163
90626SOL    HW273653  11.491   4.999  12.251
90627SOL     OW73654  12.111  14.279   2.821
90627SOL    HW173655  12.109  14.238   2.907
90627SOL    HW273656  12.147  14.212   2.763
90628SOL     OW73657   9.488   4.404   7.760
90628SOL    HW173658   9.573   4.437   7.788
90628SOL    HW273659   9.490   4.311   7.783
90629SOL     OW73660   2.172   6.540   8.333
90629SOL    HW173661   2.096   6.556   8.278
90629SOL    HW273662   2.190   6.446   8.323
90630SOL     OW73663  10.491  11.802  12.717
90630SOL    HW173664  10.534  11.792  12.802
90630SOL    HW273665  10.539  11.743  12.659
90631SOL     OW73666   7.269   9.890   3.156
90631SOL    HW173667   7.298   9.835   3.083
90631SOL    HW273668   7.174   9.880   3.157
90632SOL     OW73669  13.430   8.097  14.153
90632SOL    HW173670  13.483   8.173  14.129
90632SOL    HW273671  13.351   8.105  14.099
90633SOL     OW73672  13.133   4.690   2.880
90633SOL    HW173673  13.188   4.673   2.956
90633SOL    HW273674  13.100   4.778   2.892
90634SOL     OW73675   2.972   2.013  10.030
90634SOL    HW173676   3.025   1.959  10.088
90634SOL    HW273677   2.882   1.984  10.046
90635SOL     OW73678   4.108   2.172   2.023
90635SOL    HW173679   4.042   2.229   1.982
90635SOL    HW273680   4.143   2.120   1.951
90636SOL     OW73681   7.716   0.799   8.280
90636SOL    HW173682   7.781   0.838   8.338
90636SOL    HW273683   7.766   0.772   8.203
90637SOL     OW73684  13.561   7.465  11.302
90637SOL    HW173685  13.468   7.479  11.321
90637SOL    HW273686  13.577   7.374  11.327
90638SOL     OW73687  14.231  11.085   2.100
90638SOL    HW173688  14.180  11.085   2.019
90638SOL    HW273689  14.247  10.992   2.118
90639SOL     OW73690   5.075   1.975  12.563
90639SOL    HW173691   5.005   1.942  12.506
90639SOL    HW273692   5.034   1.982  12.649
90640SOL     OW73693   2.745   9.375   7.403
90640SOL    HW173694   2.707   9.343   7.321
90640SOL    HW273695   2.830   9.412   7.377
90641SOL     OW73696   1.371  14.564   9.117
90641SOL    HW173697   1.289  14.568   9.067
90641SOL    HW273698   1.369  14.643   9.171
90642SOL     OW73699   2.018  12.169   0.935
90642SOL    HW173700   2.074  12.164   1.012
90642SOL    HW273701   1.930  12.150   0.968
90643SOL     OW73702   7.233  10.462  11.036
90643SOL    HW173703   7.191  10.500  10.958
90643SOL    HW273704   7.181  10.383  11.055
90644SOL     OW73705   0.717   5.563   2.889
90644SOL    HW173706   0.785   5.515   2.842
90644SOL    HW273707   0.650   5.580   2.823
90645SOL     OW73708   5.705  11.350  12.045
90645SOL    HW173709   5.776  11.287  12.038
90645SOL    HW273710   5.626  11.299  12.027
90646SOL     OW73711   3.368   6.482   3.330
90646SOL    HW173712   3.307   6.498   3.402
90646SOL    HW273713   3.425   6.412   3.362
90647SOL     OW73714   3.846   5.138   4.966
90647SOL    HW173715   3.851   5.114   4.874
90647SOL    HW273716   3.924   5.098   5.005
90648SOL     OW73717   6.397   0.487  14.393
90648SOL    HW173718   6.331   0.494  14.462
90648SOL    HW273719   6.434   0.400  14.404
90649SOL     OW73720   7.534   9.720  14.825
90649SOL    HW173721   7.480   9.645  14.852
90649SOL    HW273722   7.508   9.791   0.006
90650SOL     OW73723   0.253  13.680  14.095
90650SOL    HW173724   0.251  13.735  14.016
90650SOL    HW273725   0.345  13.655  14.104
90651SOL     OW73726   8.853  14.455   3.872
90651SOL    HW173727   8.762  14.463   3.902
90651SOL    HW273728   8.904  14.440   3.951
90652SOL     OW73729   6.057  11.112   5.232
90652SOL    HW173730   6.027  11.180   5.171
90652SOL    HW273731   6.137  11.148   5.271
90653SOL     OW73732   6.402   3.171   2.023
90653SOL    HW173733   6.477   3.174   2.083
90653SOL    HW273734   6.414   3.088   1.975
90654SOL     OW73735   2.540  14.622   5.913
90654SOL    HW173736   2.596  14.620   5.835
90654SOL    HW273737   2.454  14.649   5.880
90655SOL     OW73738   5.398   6.631  13.605
90655SOL    HW173739   5.318   6.599  13.563
90655SOL    HW273740   5.467   6.615  13.541
90656SOL     OW73741   8.562   1.794   7.764
90656SOL    HW173742   8.597   1.783   7.676
90656SOL    HW273743   8.482   1.844   7.752
90657SOL     OW73744   7.307   8.749  14.794
90657SOL    HW173745   7.256   8.825  14.822
90657SOL    HW273746   7.263   8.719  14.714
90658SOL     OW73747   7.604   2.352  10.860
90658SOL    HW173748   7.605   2.365  10.955
90658SOL    HW273749   7.514   2.373  10.834
90659SOL     OW73750  12.282   5.291  14.709
90659SOL    HW173751  12.215   5.231  14.676
90659SOL    HW273752  12.265   5.296  14.803
90660SOL     OW73753  12.412   4.675   0.018
90660SOL    HW173754  12.503   4.643   0.017
90660SOL    HW273755  12.364   4.611  14.843
90661SOL     OW73756   7.920   9.354   6.972
90661SOL    HW173757   7.826   9.350   6.956
90661SOL    HW273758   7.959   9.360   6.885
90662SOL     OW73759  12.462  13.651   6.282
90662SOL    HW173760  12.389  13.589   6.291
90662SOL    HW273761  12.444  13.719   6.347
90663SOL     OW73762  13.201   0.915  12.972
90663SOL    HW173763  13.106   0.902  12.974
90663SOL    HW273764  13.235   0.860  13.043
90664SOL     OW73765   8.139  11.516   1.803
90664SOL    HW173766   8.111  11.432   1.839
90664SOL    HW273767   8.073  11.578   1.833
90665SOL     OW73768   7.258   3.811   3.627
90665SOL    HW173769   7.268   3.723   3.663
90665SOL    HW273770   7.337   3.826   3.576
90666SOL     OW73771  12.555   5.971  11.700
90666SOL    HW173772  12.561   6.042  11.636
90666SOL    HW273773  12.488   5.999  11.762
90667SOL     OW73774   5.974   5.609   6.043
90667SOL    HW173775   5.937   5.522   6.032
90667SOL    HW273776   6.002   5.612   6.134
90668SOL     OW73777   0.626   0.837  11.746
90668SOL    HW173778   0.592   0.896  11.812
90668SOL    HW273779   0.629   0.890  11.666
90669SOL     OW73780   4.821   1.489   9.530
90669SOL    HW173781   4.770   1.568   9.548
90669SOL    HW273782   4.858   1.502   9.443
90670SOL     OW73783   3.432   9.933  12.339
90670SOL    HW173784   3.399  10.022  12.323
90670SOL    HW273785   3.412   9.916  12.431
90671SOL     OW73786  13.479   3.846   1.456
90671SOL    HW173787  13.447   3.762   1.423
90671SOL    HW273788  13.564   3.858   1.413
90672SOL     OW73789   0.488   8.684   5.009
90672SOL    HW173790   0.558   8.733   5.052
90672SOL    HW273791   0.421   8.750   4.990
90673SOL     OW73792   6.209  12.667   7.658
90673SOL    HW173793   6.198  12.759   7.633
90673SOL    HW273794   6.298  12.646   7.632
90674SOL     OW73795   8.727   8.144  13.737
90674SOL    HW173796   8.782   8.198  13.679
90674SOL    HW273797   8.769   8.058  13.737
90675SOL     OW73798   7.801   5.539   5.985
90675SOL    HW173799   7.802   5.450   5.950
90675SOL    HW273800   7.842   5.532   6.071
90676SOL     OW73801   9.739   2.886   4.747
90676SOL    HW173802   9.688   2.865   4.669
90676SOL    HW273803   9.827   2.902   4.715
90677SOL     OW73804   3.475   8.951  14.145
90677SOL    HW173805   3.391   8.906  14.137
90677SOL    HW273806   3.478   9.010  14.069
90678SOL     OW73807   4.363   4.771  12.865
90678SOL    HW173808   4.330   4.690  12.905
90678SOL    HW273809   4.374   4.749  12.773
90679SOL     OW73810   4.136   9.858   7.235
90679SOL    HW173811   4.113   9.767   7.252
90679SOL    HW273812   4.101   9.907   7.310
90680SOL     OW73813   3.908   9.495   0.860
90680SOL    HW173814   3.948   9.581   0.870
90680SOL    HW273815   3.970   9.445   0.806
90681SOL     OW73816   4.097  12.558   3.668
90681SOL    HW173817   4.187  12.588   3.653
90681SOL    HW273818   4.043  12.632   3.639
90682SOL     OW73819   0.482   5.581  14.225
90682SOL    HW173820   0.488   5.599  14.319
90682SOL    HW273821   0.573   5.580  14.195
90683SOL     OW73822   6.394  14.424  12.794
90683SOL    HW173823   6.437  14.451  12.713
90683SOL    HW273824   6.400  14.328  12.792
90684SOL     OW73825  10.829  11.200  12.142
90684SOL    HW173826  10.759  11.254  12.104
90684SOL    HW273827  10.865  11.153  12.067
90685SOL     OW73828   5.720   8.723  11.543
90685SOL    HW173829   5.635   8.686  11.518
90685SOL    HW273830   5.756   8.661  11.605
90686SOL     OW73831   3.616   9.093   5.324
90686SOL    HW173832   3.573   9.009   5.308
90686SOL    HW273833   3.549   9.147   5.367
90687SOL     OW73834   5.224   5.528  10.339
90687SOL    HW173835   5.285   5.587  10.293
90687SOL    HW273836   5.216   5.566  10.426
90688SOL     OW73837   1.564   2.476  11.660
90688SOL    HW173838   1.508   2.550  11.683
90688SOL    HW273839   1.543   2.456  11.569
90689SOL     OW73840   7.363   6.826   1.584
90689SOL    HW173841   7.379   6.783   1.668
90689SOL    HW273842   7.386   6.918   1.599
90690SOL     OW73843   0.610   4.013   6.501
90690SOL    HW173844   0.631   4.009   6.408
90690SOL    HW273845   0.598   4.106   6.519
90691SOL     OW73846   7.601   0.088   2.352
90691SOL    HW173847   7.596   0.174   2.393
90691SOL    HW273848   7.522   0.043   2.382
90692SOL     OW73849   4.158   8.639   7.614
90692SOL    HW173850   4.113   8.634   7.529
90692SOL    HW273851   4.225   8.707   7.601
90693SOL     OW73852   5.554  13.090   9.190
90693SOL    HW173853   5.571  13.167   9.243
90693SOL    HW273854   5.483  13.116   9.131
90694SOL     OW73855  14.485   7.774   1.365
90694SOL    HW173856  14.480   7.827   1.286
90694SOL    HW273857  14.436   7.694   1.343
90695SOL     OW73858   4.488   2.353  10.865
90695SOL    HW173859   4.450   2.304  10.792
90695SOL    HW273860   4.583   2.346  10.851
90696SOL     OW73861   5.355  10.435  14.113
90696SOL    HW173862   5.288  10.494  14.145
90696SOL    HW273863   5.342  10.432  14.018
90697SOL     OW73864   4.132   8.421  13.222
90697SOL    HW173865   4.142   8.326  13.209
90697SOL    HW273866   4.066   8.429  13.290
90698SOL     OW73867   7.941  12.245   0.997
90698SOL    HW173868   7.885  12.311   1.040
90698SOL    HW273869   7.881  12.198   0.938
90699SOL     OW73870   2.587   2.429   2.423
90699SOL    HW173871   2.661   2.430   2.483
90699SOL    HW273872   2.516   2.389   2.473
90700SOL     OW73873  10.136  13.326   6.308
90700SOL    HW173874  10.186  13.361   6.381
90700SOL    HW273875  10.185  13.247   6.282
90701SOL     OW73876   5.874   6.232  13.304
90701SOL    HW173877   5.915   6.161  13.353
90701SOL    HW273878   5.934   6.305  13.313
90702SOL     OW73879  11.211   1.863   2.535
90702SOL    HW173880  11.150   1.804   2.491
90702SOL    HW273881  11.274   1.805   2.578
90703SOL     OW73882   0.147  12.841   4.155
90703SOL    HW173883   0.174  12.750   4.140
90703SOL    HW273884   0.072  12.834   4.214
90704SOL     OW73885   9.405   1.873   5.531
90704SOL    HW173886   9.460   1.950   5.546
90704SOL    HW273887   9.393   1.869   5.436
90705SOL     OW73888   4.706  12.870   8.051
90705SOL    HW173889   4.694  12.926   7.974
90705SOL    HW273890   4.701  12.929   8.125
90706SOL     OW73891   0.908   7.823   9.638
90706SOL    HW173892   0.841   7.757   9.626
90706SOL    HW273893   0.919   7.863   9.551
90707SOL     OW73894   2.088   4.879   6.077
90707SOL    HW173895   2.026   4.830   6.131
90707SOL    HW273896   2.035   4.947   6.035
90708SOL     OW73897   7.288  12.112   7.829
90708SOL    HW173898   7.343  12.098   7.751
90708SOL    HW273899   7.205  12.069   7.807
90709SOL     OW73900  13.830   0.137  14.529
90709SOL    HW173901  13.858   0.223  14.561
90709SOL    HW273902  13.883   0.123  14.451
90710SOL     OW73903   0.597   1.685   4.242
90710SOL    HW173904   0.512   1.701   4.200
90710SOL    HW273905   0.602   1.750   4.312
90711SOL     OW73906   8.016  10.783  13.475
90711SOL    HW173907   8.037  10.862  13.525
90711SOL    HW273908   8.032  10.712  13.537
90712SOL     OW73909  10.881   1.739  14.708
90712SOL    HW173910  10.800   1.786  14.688
90712SOL    HW273911  10.918   1.716  14.623
90713SOL     OW73912   5.443   1.691   7.623
90713SOL    HW173913   5.492   1.618   7.661
90713SOL    HW273914   5.464   1.689   7.530
90714SOL     OW73915   6.277   8.664   6.470
90714SOL    HW173916   6.217   8.605   6.424
90714SOL    HW273917   6.328   8.607   6.527
90715SOL     OW73918   7.869   7.468  14.743
90715SOL    HW173919   7.868   7.470  14.838
90715SOL    HW273920   7.910   7.551  14.718
90716SOL     OW73921   5.879   4.868  14.726
90716SOL    HW173922   5.937   4.939  14.698
90716SOL    HW273923   5.884   4.871  14.822
90717SOL     OW73924   8.234   1.160   1.483
90717SOL    HW173925   8.287   1.159   1.563
90717SOL    HW273926   8.296   1.143   1.413
90718SOL     OW73927   6.061   4.267   4.093
90718SOL    HW173928   6.157   4.272   4.097
90718SOL    HW273929   6.043   4.194   4.035
90719SOL     OW73930  12.429   5.794   8.507
90719SOL    HW173931  12.336   5.793   8.528
90719SOL    HW273932  12.459   5.705   8.525
90720SOL     OW73933   3.589   1.778   8.890
90720SOL    HW173934   3.587   1.831   8.810
90720SOL    HW273935   3.540   1.698   8.867
90721SOL     OW73936   8.242   5.278   0.303
90721SOL    HW173937   8.239   5.264   0.209
90721SOL    HW273938   8.280   5.365   0.313
90722SOL     OW73939   4.914   5.502  12.672
90722SOL    HW173940   4.910   5.481  12.578
90722SOL    HW273941   4.980   5.571  12.678
90723SOL     OW73942  14.451   1.120  12.810
90723SOL    HW173943  14.359   1.139  12.792
90723SOL    HW273944  14.475   1.055  12.744
90724SOL     OW73945   2.752   2.701  11.632
90724SOL    HW173946   2.710   2.736  11.710
90724SOL    HW273947   2.681   2.655  11.586
90725SOL     OW73948   6.035   1.532  11.278
90725SOL    HW173949   6.128   1.556  11.284
90725SOL    HW273950   6.005   1.576  11.198
90726SOL     OW73951   2.340  12.769   8.533
90726SOL    HW173952   2.349  12.851   8.484
90726SOL    HW273953   2.371  12.701   8.473
90727SOL     OW73954   5.586   7.858  13.493
90727SOL    HW173955   5.593   7.914  13.571
90727SOL    HW273956   5.650   7.895  13.432
90728SOL     OW73957  10.486  11.897   5.911
90728SOL    HW173958  10.418  11.836   5.884
90728SOL    HW273959  10.455  11.982   5.880
90729SOL     OW73960   9.298   0.453  13.774
90729SOL    HW173961   9.238   0.433  13.702
90729SOL    HW273962   9.382   0.416  13.746
90730SOL     OW73963  12.631   0.597   2.420
90730SOL    HW173964  12.645   0.526   2.357
90730SOL    HW273965  12.538   0.617   2.414
90731SOL     OW73966  13.002   0.387   0.318
90731SOL    HW173967  12.907   0.383   0.308
90731SOL    HW273968  13.035   0.399   0.229
90732SOL     OW73969   5.013  13.770   8.525
90732SOL    HW173970   4.982  13.781   8.435
90732SOL    HW273971   4.980  13.848   8.571
90733SOL     OW73972   6.373  11.271  14.007
90733SOL    HW173973   6.329  11.324  14.074
90733SOL    HW273974   6.409  11.197  14.056
90734SOL     OW73975   9.231   8.094   2.405
90734SOL    HW173976   9.281   8.044   2.469
90734SOL    HW273977   9.264   8.183   2.412
90735SOL     OW73978   3.280   1.616   4.828
90735SOL    HW173979   3.187   1.634   4.811
90735SOL    HW273980   3.289   1.621   4.923
90736SOL     OW73981  11.495   9.069   2.068
90736SOL    HW173982  11.566   9.134   2.077
90736SOL    HW273983  11.436   9.089   2.140
90737SOL     OW73984   9.489   0.614   3.710
90737SOL    HW173985   9.398   0.616   3.680
90737SOL    HW273986   9.501   0.526   3.745
90738SOL     OW73987   9.745  13.290   7.035
90738SOL    HW173988   9.735  13.296   6.940
90738SOL    HW273989   9.663  13.252   7.066
90739SOL     OW73990   7.638   9.430   6.067
90739SOL    HW173991   7.627   9.525   6.064
90739SOL    HW273992   7.724   9.415   6.027
90740SOL     OW73993   8.051   6.017  11.129
90740SOL    HW173994   8.076   6.000  11.220
90740SOL    HW273995   7.959   6.042  11.133
90741SOL     OW73996   8.587   3.933   2.069
90741SOL    HW173997   8.562   3.848   2.032
90741SOL    HW273998   8.632   3.978   1.997
90742SOL     OW73999   6.343   0.685   7.040
90742SOL    HW174000   6.330   0.777   7.017
90742SOL    HW274001   6.327   0.637   6.959
90743SOL     OW74002  12.242   3.040  10.924
90743SOL    HW174003  12.213   3.116  10.976
90743SOL    HW274004  12.243   2.967  10.987
90744SOL     OW74005   0.477  14.875   9.755
90744SOL    HW174006   0.414   0.018   9.824
90744SOL    HW274007   0.541  14.817   9.797
90745SOL     OW74008   7.686  12.181   6.088
90745SOL    HW174009   7.610  12.236   6.066
90745SOL    HW274010   7.757  12.216   6.034
90746SOL     OW74011   2.617   0.631   5.571
90746SOL    HW174012   2.590   0.541   5.552
90746SOL    HW274013   2.552   0.685   5.525
90747SOL     OW74014   3.741   5.556   0.326
90747SOL    HW174015   3.732   5.574   0.233
90747SOL    HW274016   3.701   5.632   0.369
90748SOL     OW74017  14.290  14.714   5.160
90748SOL    HW174018  14.251  14.628   5.173
90748SOL    HW274019  14.227  14.762   5.107
90749SOL     OW74020  13.455  12.609   2.643
90749SOL    HW174021  13.462  12.617   2.548
90749SOL    HW274022  13.458  12.699   2.675
90750SOL     OW74023   7.061   9.284  12.643
90750SOL    HW174024   7.007   9.279  12.722
90750SOL    HW274025   7.045   9.371  12.608
90751SOL     OW74026   2.566   6.909  13.582
90751SOL    HW174027   2.485   6.940  13.623
90751SOL    HW274028   2.604   6.987  13.542
90752SOL     OW74029   4.738  14.416   1.158
90752SOL    HW174030   4.654  14.393   1.197
90752SOL    HW274031   4.767  14.337   1.112
90753SOL     OW74032  13.800  13.445   4.661
90753SOL    HW174033  13.743  13.477   4.731
90753SOL    HW274034  13.739  13.417   4.592
90754SOL     OW74035   6.301   3.686   8.618
90754SOL    HW174036   6.228   3.664   8.560
90754SOL    HW274037   6.310   3.781   8.611
90755SOL     OW74038   9.272   8.186   5.073
90755SOL    HW174039   9.364   8.199   5.047
90755SOL    HW274040   9.240   8.117   5.015
90756SOL     OW74041  11.405   0.050  12.477
90756SOL    HW174042  11.337   0.117  12.470
90756SOL    HW274043  11.365  14.849  12.439
90757SOL     OW74044   9.681   5.988  13.015
90757SOL    HW174045   9.768   5.949  13.010
90757SOL    HW274046   9.696   6.081  12.999
90758SOL     OW74047  11.124   5.731  13.588
90758SOL    HW174048  11.035   5.698  13.578
90758SOL    HW274049  11.133   5.748  13.682
90759SOL     OW74050   4.396   1.190   7.589
90759SOL    HW174051   4.328   1.196   7.522
90759SOL    HW274052   4.361   1.239   7.663
90760SOL     OW74053   0.228  14.874   1.601
90760SOL    HW174054   0.279   0.050   1.662
90760SOL    HW274055   0.161   0.055   1.567
90761SOL     OW74056   1.919  13.316  14.486
90761SOL    HW174057   1.824  13.312  14.500
90761SOL    HW274058   1.946  13.397  14.529
90762SOL     OW74059   0.775  10.092   0.234
90762SOL    HW174060   0.851  10.070   0.180
90762SOL    HW274061   0.812  10.115   0.319
90763SOL     OW74062   1.487   5.655   3.975
90763SOL    HW174063   1.531   5.574   3.999
90763SOL    HW274064   1.419   5.627   3.914
90764SOL     OW74065  10.572   2.961   0.405
90764SOL    HW174066  10.650   2.919   0.370
90764SOL    HW274067  10.571   2.936   0.498
90765SOL     OW74068   3.403  10.962   6.507
90765SOL    HW174069   3.310  10.983   6.496
90765SOL    HW274070   3.447  11.017   6.442
90766SOL     OW74071  12.777  12.632   8.186
90766SOL    HW174072  12.857  12.595   8.148
90766SOL    HW274073  12.706  12.585   8.143
90767SOL     OW74074   6.588  12.185   4.094
90767SOL    HW174075   6.658  12.229   4.046
90767SOL    HW274076   6.633  12.120   4.148
90768SOL     OW74077   8.173   1.529   2.865
90768SOL    HW174078   8.087   1.570   2.859
90768SOL    HW274079   8.221   1.581   2.929
90769SOL     OW74080   7.020   8.759   7.818
90769SOL    HW174081   7.005   8.820   7.890
90769SOL    HW274082   7.115   8.751   7.814
90770SOL     OW74083   6.851   6.514   8.266
90770SOL    HW174084   6.765   6.502   8.224
90770SOL    HW274085   6.879   6.426   8.287
90771SOL     OW74086  14.259   7.305   1.434
90771SOL    HW174087  14.311   7.270   1.362
90771SOL    HW274088  14.274   7.400   1.431
90772SOL     OW74089   8.500   9.596   6.794
90772SOL    HW174090   8.515   9.567   6.704
90772SOL    HW274091   8.432   9.538   6.827
90773SOL     OW74092   4.173   7.519   0.376
90773SOL    HW174093   4.212   7.599   0.410
90773SOL    HW274094   4.103   7.549   0.318
90774SOL     OW74095   5.999   5.627  11.941
90774SOL    HW174096   5.946   5.639  12.020
90774SOL    HW274097   6.087   5.654  11.967
90775SOL     OW74098   0.203   6.734   4.236
90775SOL    HW174099   0.186   6.738   4.142
90775SOL    HW274100   0.117   6.719   4.275
90776SOL     OW74101  10.530   4.541   8.313
90776SOL    HW174102  10.523   4.610   8.247
90776SOL    HW274103  10.457   4.558   8.373
90777SOL     OW74104   1.527   2.979  14.095
90777SOL    HW174105   1.479   2.947  14.018
90777SOL    HW274106   1.480   2.943  14.170
90778SOL     OW74107  11.015   9.023   9.815
90778SOL    HW174108  11.013   9.052   9.724
90778SOL    HW274109  11.007   9.104   9.866
90779SOL     OW74110   6.141   4.586  14.444
90779SOL    HW174111   6.101   4.500  14.432
90779SOL    HW274112   6.067   4.646  14.450
90780SOL     OW74113   8.857   1.809  11.855
90780SOL    HW174114   8.883   1.744  11.790
90780SOL    HW274115   8.770   1.782  11.884
90781SOL     OW74116   8.644   5.848  14.827
90781SOL    HW174117   8.638   5.788   0.024
90781SOL    HW274118   8.685   5.927  14.864
90782SOL     OW74119  13.020  13.603   4.421
90782SOL    HW174120  13.047  13.517   4.388
90782SOL    HW274121  13.101  13.654   4.424
90783SOL     OW74122   0.559   0.721   7.568
90783SOL    HW174123   0.590   0.738   7.657
90783SOL    HW274124   0.530   0.806   7.536
90784SOL     OW74125  14.383  11.379   3.436
90784SOL    HW174126  14.351  11.297   3.474
90784SOL    HW274127  14.314  11.442   3.454
90785SOL     OW74128   0.620   8.273  14.666
90785SOL    HW174129   0.638   8.359  14.628
90785SOL    HW274130   0.613   8.214  14.591
90786SOL     OW74131   9.225  11.899   5.364
90786SOL    HW174132   9.146  11.918   5.313
90786SOL    HW274133   9.282  11.975   5.350
90787SOL     OW74134   6.341  10.613   1.505
90787SOL    HW174135   6.323  10.645   1.416
90787SOL    HW274136   6.270  10.649   1.558
90788SOL     OW74137   1.921   8.242  13.536
90788SOL    HW174138   1.970   8.174  13.583
90788SOL    HW274139   1.966   8.324  13.560
90789SOL     OW74140   3.065   3.159  12.023
90789SOL    HW174141   3.100   3.094  12.084
90789SOL    HW274142   3.029   3.108  11.951
90790SOL     OW74143   5.425   5.720   0.119
90790SOL    HW174144   5.471   5.645   0.083
90790SOL    HW274145   5.360   5.682   0.178
90791SOL     OW74146   1.642   8.553   8.326
90791SOL    HW174147   1.618   8.552   8.234
90791SOL    HW274148   1.643   8.645   8.351
90792SOL     OW74149  10.426   6.641   9.365
90792SOL    HW174150  10.336   6.665   9.343
90792SOL    HW274151  10.453   6.580   9.296
90793SOL     OW74152   4.536   7.205  12.513
90793SOL    HW174153   4.499   7.119  12.492
90793SOL    HW274154   4.573   7.236  12.431
90794SOL     OW74155   8.016  14.372   9.501
90794SOL    HW174156   8.031  14.334   9.587
90794SOL    HW274157   8.093  14.428   9.486
90795SOL     OW74158  13.869   2.774   3.741
90795SOL    HW174159  13.906   2.797   3.656
90795SOL    HW274160  13.936   2.800   3.804
90796SOL     OW74161   4.867   5.250   8.786
90796SOL    HW174162   4.821   5.166   8.783
90796SOL    HW274163   4.917   5.253   8.705
90797SOL     OW74164   2.883  14.148   8.872
90797SOL    HW174165   2.856  14.127   8.782
90797SOL    HW274166   2.959  14.092   8.888
90798SOL     OW74167   9.099   3.639   6.660
90798SOL    HW174168   9.159   3.618   6.588
90798SOL    HW274169   9.154   3.683   6.725
90799SOL     OW74170   5.983   1.916   9.257
90799SOL    HW174171   6.012   1.891   9.169
90799SOL    HW274172   5.890   1.896   9.259
90800SOL     OW74173  12.223   8.730   1.540
90800SOL    HW174174  12.196   8.802   1.484
90800SOL    HW274175  12.184   8.652   1.500
90801SOL     OW74176   4.898  12.226   5.910
90801SOL    HW174177   4.827  12.212   5.972
90801SOL    HW274178   4.978  12.216   5.963
90802SOL     OW74179  10.582   9.921   2.575
90802SOL    HW174180  10.628   9.918   2.491
90802SOL    HW274181  10.500   9.875   2.560
90803SOL     OW74182  14.742   3.961   1.566
90803SOL    HW174183  14.690   3.901   1.512
90803SOL    HW274184  14.820   3.979   1.514
90804SOL     OW74185   3.072   6.456   0.702
90804SOL    HW174186   3.039   6.504   0.626
90804SOL    HW274187   3.085   6.522   0.769
90805SOL     OW74188  11.645   0.885   0.534
90805SOL    HW174189  11.582   0.950   0.505
90805SOL    HW274190  11.730   0.919   0.505
90806SOL     OW74191   4.406  14.253   7.555
90806SOL    HW174192   4.411  14.260   7.650
90806SOL    HW274193   4.388  14.343   7.526
90807SOL     OW74194  10.817  10.493  14.501
90807SOL    HW174195  10.819  10.404  14.465
90807SOL    HW274196  10.748  10.537  14.451
90808SOL     OW74197  10.252   8.824   3.808
90808SOL    HW174198  10.216   8.783   3.887
90808SOL    HW274199  10.319   8.884   3.841
90809SOL     OW74200  13.272  13.297   2.555
90809SOL    HW174201  13.238  13.219   2.512
90809SOL    HW274202  13.362  13.274   2.577
90810SOL     OW74203   0.928  13.092  11.029
90810SOL    HW174204   0.870  13.124  11.098
90810SOL    HW274205   0.941  13.167  10.971
90811SOL     OW74206  11.801   9.696   5.763
90811SOL    HW174207  11.710   9.669   5.780
90811SOL    HW274208  11.854   9.626   5.801
90812SOL     OW74209   5.809   6.008   0.320
90812SOL    HW174210   5.721   5.974   0.302
90812SOL    HW274211   5.854   5.936   0.365
90813SOL     OW74212   7.514  10.338   6.127
90813SOL    HW174213   7.583  10.318   6.063
90813SOL    HW274214   7.546  10.416   6.173
90814SOL     OW74215   5.263  11.079   4.041
90814SOL    HW174216   5.207  11.046   4.111
90814SOL    HW274217   5.351  11.083   4.080
90815SOL     OW74218  14.005  12.145   7.907
90815SOL    HW174219  14.007  12.158   7.813
90815SOL    HW274220  14.079  12.196   7.940
90816SOL     OW74221   2.958   0.772  14.243
90816SOL    HW174222   2.979   0.692  14.195
90816SOL    HW274223   3.012   0.767  14.322
90817SOL     OW74224   3.387   2.390   2.050
90817SOL    HW174225   3.313   2.392   1.989
90817SOL    HW274226   3.409   2.482   2.063
90818SOL     OW74227   0.309  11.768   3.075
90818SOL    HW174228   0.330  11.676   3.092
90818SOL    HW274229   0.343  11.784   2.987
90819SOL     OW74230   6.775   0.474   1.359
90819SOL    HW174231   6.789   0.454   1.267
90819SOL    HW274232   6.831   0.412   1.406
90820SOL     OW74233   4.314   0.911   1.310
90820SOL    HW174234   4.299   0.959   1.229
90820SOL    HW274235   4.235   0.857   1.321
90821SOL     OW74236   9.723   0.646   8.517
90821SOL    HW174237   9.641   0.695   8.519
90821SOL    HW274238   9.722   0.601   8.432
90822SOL     OW74239   0.237   2.860  11.328
90822SOL    HW174240   0.295   2.929  11.295
90822SOL    HW274241   0.149   2.895  11.318
90823SOL     OW74242   4.952  12.131  14.456
90823SOL    HW174243   4.889  12.126  14.384
90823SOL    HW274244   4.925  12.061  14.516
90824SOL     OW74245  12.341   6.222   5.143
90824SOL    HW174246  12.427   6.255   5.118
90824SOL    HW274247  12.284   6.244   5.070
90825SOL     OW74248   9.570  13.117   1.776
90825SOL    HW174249   9.548  13.039   1.725
90825SOL    HW274250   9.486  13.161   1.789
90826SOL     OW74251   5.229  14.232   1.981
90826SOL    HW174252   5.244  14.327   1.981
90826SOL    HW274253   5.317  14.194   1.974
90827SOL     OW74254  13.199   5.429   5.397
90827SOL    HW174255  13.293   5.416   5.383
90827SOL    HW274256  13.180   5.386   5.481
90828SOL     OW74257  14.060   1.584   6.203
90828SOL    HW174258  14.072   1.679   6.196
90828SOL    HW274259  14.001   1.573   6.278
90829SOL     OW74260   4.115   6.107   7.998
90829SOL    HW174261   4.088   6.018   7.974
90829SOL    HW274262   4.063   6.164   7.941
90830SOL     OW74263   3.271   4.153   7.731
90830SOL    HW174264   3.232   4.227   7.684
90830SOL    HW274265   3.197   4.101   7.761
90831SOL     OW74266  13.553   1.976   8.685
90831SOL    HW174267  13.614   1.939   8.621
90831SOL    HW274268  13.468   1.974   8.641
90832SOL     OW74269   0.021   5.040  13.783
90832SOL    HW174270   0.073   5.072  13.710
90832SOL    HW274271  14.814   5.085  13.775
90833SOL     OW74272   1.289  10.994   1.259
90833SOL    HW174273   1.203  10.953   1.270
90833SOL    HW274274   1.294  11.058   1.331
90834SOL     OW74275  13.339   9.276   3.607
90834SOL    HW174276  13.280   9.266   3.681
90834SOL    HW274277  13.385   9.359   3.624
90835SOL     OW74278   8.916   9.561   0.919
90835SOL    HW174279   8.876   9.483   0.880
90835SOL    HW274280   9.010   9.543   0.916
90836SOL     OW74281   0.913   3.912   5.035
90836SOL    HW174282   0.880   3.831   5.073
90836SOL    HW274283   0.834   3.960   5.010
90837SOL     OW74284   4.428   7.039   1.499
90837SOL    HW174285   4.450   7.060   1.408
90837SOL    HW274286   4.499   6.983   1.529
90838SOL     OW74287   4.841   5.756  13.935
90838SOL    HW174288   4.928   5.795  13.924
90838SOL    HW274289   4.854   5.664  13.912
90839SOL     OW74290   6.017   9.216  13.561
90839SOL    HW174291   5.975   9.280  13.619
90839SOL    HW274292   6.073   9.269  13.504
90840SOL     OW74293  12.862   3.812   7.792
90840SOL    HW174294  12.910   3.742   7.750
90840SOL    HW274295  12.813   3.855   7.721
90841SOL     OW74296   2.406   9.950   0.347
90841SOL    HW174297   2.470   9.957   0.418
90841SOL    HW274298   2.449   9.896   0.281
90842SOL     OW74299   6.225   4.970  12.949
90842SOL    HW174300   6.133   4.954  12.971
90842SOL    HW274301   6.239   4.918  12.870
90843SOL     OW74302   7.569  13.350  14.199
90843SOL    HW174303   7.595  13.390  14.115
90843SOL    HW274304   7.495  13.294  14.176
90844SOL     OW74305  11.055   6.472   3.785
90844SOL    HW174306  11.017   6.384   3.785
90844SOL    HW274307  11.069   6.493   3.877
90845SOL     OW74308   4.470   6.114   4.780
90845SOL    HW174309   4.522   6.106   4.859
90845SOL    HW274310   4.483   6.204   4.751
90846SOL     OW74311   3.796   7.778   7.503
90846SOL    HW174312   3.802   7.757   7.597
90846SOL    HW274313   3.748   7.862   7.501
90847SOL     OW74314  12.145   9.265   9.435
90847SOL    HW174315  12.052   9.246   9.441
90847SOL    HW274316  12.150   9.360   9.446
90848SOL     OW74317   1.823   4.530  11.735
90848SOL    HW174318   1.917   4.518  11.746
90848SOL    HW274319   1.796   4.585  11.809
90849SOL     OW74320   5.184  12.850   3.573
90849SOL    HW174321   5.192  12.855   3.478
90849SOL    HW274322   5.227  12.928   3.606
90850SOL     OW74323   5.831   9.180   9.619
90850SOL    HW174324   5.901   9.162   9.556
90850SOL    HW274325   5.875   9.185   9.704
90851SOL     OW74326  11.640   3.865   1.756
90851SOL    HW174327  11.583   3.810   1.809
90851SOL    HW274328  11.713   3.887   1.814
90852SOL     OW74329  11.176   5.515   8.963
90852SOL    HW174330  11.201   5.423   8.958
90852SOL    HW274331  11.104   5.517   9.026
90853SOL     OW74332   8.882   3.786  14.340
90853SOL    HW174333   8.906   3.864  14.389
90853SOL    HW274334   8.902   3.713  14.399
90854SOL     OW74335  10.966   9.824  11.955
90854SOL    HW174336  10.903   9.889  11.985
90854SOL    HW274337  11.003   9.860  11.875
90855SOL     OW74338   6.750   1.453   0.027
90855SOL    HW174339   6.677   1.506  14.872
90855SOL    HW274340   6.827   1.509   0.015
90856SOL     OW74341   0.373  13.321   6.120
90856SOL    HW174342   0.446  13.316   6.058
90856SOL    HW274343   0.356  13.230   6.145
90857SOL     OW74344  14.626   9.112  13.593
90857SOL    HW174345  14.636   9.181  13.527
90857SOL    HW274346  14.685   9.139  13.664
90858SOL     OW74347   9.958  11.294   5.506
90858SOL    HW174348   9.903  11.264   5.433
90858SOL    HW274349  10.047  11.295   5.471
90859SOL     OW74350   0.659   8.276  14.224
90859SOL    HW174351   0.590   8.286  14.158
90859SOL    HW274352   0.738   8.305  14.180
90860SOL     OW74353  12.151  13.866   3.200
90860SOL    HW174354  12.106  13.817   3.269
90860SOL    HW274355  12.200  13.800   3.151
90861SOL     OW74356  10.841  13.380  10.261
90861SOL    HW174357  10.751  13.389  10.231
90861SOL    HW274358  10.891  13.439  10.205
90862SOL     OW74359   0.657  14.855   7.429
90862SOL    HW174360   0.679  14.830   7.519
90862SOL    HW274361   0.568   0.013   7.436
90863SOL     OW74362  14.483   2.269  13.507
90863SOL    HW174363  14.437   2.185  13.516
90863SOL    HW274364  14.532   2.279  13.588
90864SOL     OW74365   9.199  11.568  13.632
90864SOL    HW174366   9.243  11.484  13.643
90864SOL    HW274367   9.135  11.552  13.562
90865SOL     OW74368   2.670   9.094   7.895
90865SOL    HW174369   2.598   9.112   7.955
90865SOL    HW274370   2.680   8.999   7.899
90866SOL     OW74371  10.389  13.480   7.620
90866SOL    HW174372  10.459  13.482   7.685
90866SOL    HW274373  10.315  13.524   7.662
90867SOL     OW74374   6.077  12.660   1.118
90867SOL    HW174375   6.097  12.753   1.116
90867SOL    HW274376   6.151  12.621   1.164
90868SOL     OW74377   7.492   2.543  11.922
90868SOL    HW174378   7.456   2.459  11.895
90868SOL    HW274379   7.587   2.528  11.928
90869SOL     OW74380   8.695  12.163  13.845
90869SOL    HW174381   8.730  12.212  13.771
90869SOL    HW274382   8.729  12.075  13.834
90870SOL     OW74383   0.452   3.082   1.671
90870SOL    HW174384   0.432   3.153   1.732
90870SOL    HW274385   0.369   3.037   1.658
90871SOL     OW74386  13.011   4.487   3.274
90871SOL    HW174387  12.934   4.523   3.316
90871SOL    HW274388  12.991   4.489   3.181
90872SOL     OW74389   0.987   6.886  10.855
90872SOL    HW174390   0.896   6.883  10.825
90872SOL    HW274391   0.985   6.944  10.932
90873SOL     OW74392  12.986   5.468   2.645
90873SOL    HW174393  13.068   5.461   2.597
90873SOL    HW274394  12.919   5.481   2.577
90874SOL     OW74395  13.473  13.671   4.158
90874SOL    HW174396  13.406  13.638   4.098
90874SOL    HW274397  13.451  13.763   4.172
90875SOL     OW74398   0.607   4.054   0.119
90875SOL    HW174399   0.675   4.112   0.086
90875SOL    HW274400   0.625   3.969   0.077
90876SOL     OW74401   4.216  11.139  13.549
90876SOL    HW174402   4.289  11.108  13.495
90876SOL    HW274403   4.138  11.102  13.506
90877SOL     OW74404   7.669   6.371   9.160
90877SOL    HW174405   7.607   6.344   9.093
90877SOL    HW274406   7.629   6.341   9.242
90878SOL     OW74407  11.931  13.166   9.767
90878SOL    HW174408  11.969  13.254   9.766
90878SOL    HW274409  12.001  13.110   9.801
90879SOL     OW74410  13.726   9.887  14.496
90879SOL    HW174411  13.769   9.966  14.462
90879SOL    HW274412  13.794   9.842  14.546
90880SOL     OW74413  10.563  12.705   6.372
90880SOL    HW174414  10.544  12.687   6.464
90880SOL    HW274415  10.629  12.774   6.374
90881SOL     OW74416  12.275  10.195  12.857
90881SOL    HW174417  12.296  10.146  12.937
90881SOL    HW274418  12.360  10.214  12.818
90882SOL     OW74419  11.640   2.852   9.396
90882SOL    HW174420  11.585   2.817   9.326
90882SOL    HW274421  11.683   2.928   9.357
90883SOL     OW74422   7.312  11.736   8.324
90883SOL    HW174423   7.376  11.736   8.396
90883SOL    HW274424   7.227  11.739   8.368
90884SOL     OW74425   6.326   0.266   3.456
90884SOL    HW174426   6.239   0.249   3.493
90884SOL    HW274427   6.369   0.322   3.520
90885SOL     OW74428  14.124  11.017   8.668
90885SOL    HW174429  14.218  11.027   8.651
90885SOL    HW274430  14.084  11.023   8.581
90886SOL     OW74431   5.837   7.610   4.618
90886SOL    HW174432   5.910   7.552   4.594
90886SOL    HW274433   5.793   7.565   4.689
90887SOL     OW74434  11.379   7.778   6.552
90887SOL    HW174435  11.458   7.725   6.550
90887SOL    HW274436  11.393   7.845   6.484
90888SOL     OW74437   9.758   7.714  13.971
90888SOL    HW174438   9.663   7.725  13.964
90888SOL    HW274439   9.789   7.717  13.881
90889SOL     OW74440  14.553  11.394   6.225
90889SOL    HW174441  14.580  11.303   6.214
90889SOL    HW274442  14.632  11.440   6.255
90890SOL     OW74443   7.477   5.310   7.038
90890SOL    HW174444   7.479   5.240   6.973
90890SOL    HW274445   7.566   5.344   7.038
90891SOL     OW74446  14.647   7.905  11.001
90891SOL    HW174447  14.718   7.958  11.038
90891SOL    HW274448  14.622   7.952  10.921
90892SOL     OW74449   8.775  10.356  10.221
90892SOL    HW174450   8.689  10.320  10.246
90892SOL    HW274451   8.797  10.308  10.141
90893SOL     OW74452   7.296   9.672   8.957
90893SOL    HW174453   7.260   9.619   8.886
90893SOL    HW274454   7.348   9.740   8.913
90894SOL     OW74455   9.907  13.963  14.267
90894SOL    HW174456   9.914  13.872  14.297
90894SOL    HW274457   9.940  14.015  14.340
90895SOL     OW74458   4.262   6.206  11.554
90895SOL    HW174459   4.189   6.149  11.530
90895SOL    HW274460   4.238   6.292  11.521
90896SOL     OW74461   2.750   6.654   7.020
90896SOL    HW174462   2.666   6.655   6.974
90896SOL    HW274463   2.728   6.630   7.110
90897SOL     OW74464   7.341   8.803  10.822
90897SOL    HW174465   7.430   8.837  10.820
90897SOL    HW274466   7.347   8.725  10.878
90898SOL     OW74467   8.629  12.302   6.221
90898SOL    HW174468   8.690  12.358   6.174
90898SOL    HW274469   8.683  12.233   6.258
90899SOL     OW74470  10.034  11.037  10.175
90899SOL    HW174471  10.127  11.032  10.194
90899SOL    HW274472  10.029  11.059  10.082
90900SOL     OW74473   6.189   8.001   2.800
90900SOL    HW174474   6.277   7.983   2.767
90900SOL    HW274475   6.133   8.001   2.722
90901SOL     OW74476   2.620   3.816   1.899
90901SOL    HW174477   2.664   3.886   1.852
90901SOL    HW274478   2.689   3.775   1.952
90902SOL     OW74479   8.265   3.116  12.293
90902SOL    HW174480   8.269   3.116  12.388
90902SOL    HW274481   8.334   3.177  12.266
90903SOL     OW74482  14.260   2.413  12.814
90903SOL    HW174483  14.253   2.508  12.812
90903SOL    HW274484  14.350   2.396  12.841
90904SOL     OW74485   4.290   5.555   4.388
90904SOL    HW174486   4.237   5.604   4.450
90904SOL    HW274487   4.348   5.501   4.442
90905SOL     OW74488   9.071  11.465   0.130
90905SOL    HW174489   8.990  11.420   0.103
90905SOL    HW274490   9.041  11.533   0.190
90906SOL     OW74491   5.198   8.914  14.706
90906SOL    HW174492   5.113   8.943  14.738
90906SOL    HW274493   5.262   8.958  14.762
90907SOL     OW74494   7.368  12.406   8.606
90907SOL    HW174495   7.454  12.398   8.565
90907SOL    HW274496   7.346  12.499   8.599
90908SOL     OW74497   1.248   7.308   7.553
90908SOL    HW174498   1.331   7.281   7.513
90908SOL    HW274499   1.197   7.228   7.559
90909SOL     OW74500   5.274  11.150   9.240
90909SOL    HW174501   5.254  11.228   9.187
90909SOL    HW274502   5.368  11.137   9.228
90910SOL     OW74503   8.573   5.753   3.513
90910SOL    HW174504   8.561   5.797   3.428
90910SOL    HW274505   8.658   5.784   3.544
90911SOL     OW74506   7.921  14.523   0.019
90911SOL    HW174507   7.856  14.453   0.027
90911SOL    HW274508   7.975  14.516   0.097
90912SOL     OW74509  12.759   6.104   3.317
90912SOL    HW174510  12.837   6.155   3.339
90912SOL    HW274511  12.758   6.033   3.380
90913SOL     OW74512   3.055  12.771   0.030
90913SOL    HW174513   3.065  12.684  14.870
90913SOL    HW274514   2.996  12.816  14.847
90914SOL     OW74515   4.950   7.519   5.307
90914SOL    HW174516   4.986   7.568   5.233
90914SOL    HW274517   4.911   7.440   5.268
90915SOL     OW74518   2.291  14.713   4.332
90915SOL    HW174519   2.347  14.689   4.406
90915SOL    HW274520   2.203  14.721   4.370
90916SOL     OW74521   9.749   4.612   2.398
90916SOL    HW174522   9.817   4.557   2.359
90916SOL    HW274523   9.790   4.647   2.477
90917SOL     OW74524   8.038  14.313   7.036
90917SOL    HW174525   7.960  14.278   6.992
90917SOL    HW274526   8.062  14.390   6.985
90918SOL     OW74527  13.631   9.633  14.872
90918SOL    HW174528  13.673   9.653   0.078
90918SOL    HW274529  13.692   9.574  14.827
90919SOL     OW74530  12.563  11.003   3.155
90919SOL    HW174531  12.507  10.929   3.136
90919SOL    HW274532  12.577  11.046   3.071
90920SOL     OW74533   5.500   6.487   3.678
90920SOL    HW174534   5.418   6.464   3.722
90920SOL    HW274535   5.562   6.502   3.750
90921SOL     OW74536   0.053   2.645   1.560
90921SOL    HW174537   0.071   2.552   1.543
90921SOL    HW274538   0.133   2.678   1.600
90922SOL     OW74539   0.873  12.391   0.302
90922SOL    HW174540   0.804  12.450   0.333
90922SOL    HW274541   0.955  12.437   0.322
90923SOL     OW74542   9.879  13.648  14.279
90923SOL    HW174543   9.937  13.595  14.223
90923SOL    HW274544   9.923  13.650  14.364
90924SOL     OW74545  11.858   9.065  14.157
90924SOL    HW174546  11.943   9.036  14.189
90924SOL    HW274547  11.877   9.142  14.104
90925SOL     OW74548   4.710   0.531   9.297
90925SOL    HW174549   4.750   0.615   9.322
90925SOL    HW274550   4.779   0.484   9.252
90926SOL     OW74551   6.726  12.630   2.958
90926SOL    HW174552   6.655  12.617   2.895
90926SOL    HW274553   6.691  12.598   3.041
90927SOL     OW74554   4.647   1.247   2.282
90927SOL    HW174555   4.715   1.239   2.215
90927SOL    HW274556   4.621   1.339   2.278
90928SOL     OW74557   2.611  11.450   1.055
90928SOL    HW174558   2.611  11.460   0.960
90928SOL    HW274559   2.549  11.517   1.086
90929SOL     OW74560  10.263   5.531   3.883
90929SOL    HW174561  10.253   5.490   3.969
90929SOL    HW274562  10.314   5.469   3.832
90930SOL     OW74563  13.186   1.946   6.058
90930SOL    HW174564  13.185   1.850   6.055
90930SOL    HW274565  13.170   1.973   5.968
90931SOL     OW74566  12.668   8.766  13.970
90931SOL    HW174567  12.635   8.787  14.057
90931SOL    HW274568  12.683   8.672  13.971
90932SOL     OW74569   7.413   6.485   6.591
90932SOL    HW174570   7.498   6.472   6.632
90932SOL    HW274571   7.432   6.507   6.500
90933SOL     OW74572  14.236   1.156   3.717
90933SOL    HW174573  14.285   1.131   3.638
90933SOL    HW274574  14.258   1.088   3.781
90934SOL     OW74575   5.444  11.280   8.383
90934SOL    HW174576   5.530  11.268   8.421
90934SOL    HW274577   5.446  11.369   8.347
90935SOL     OW74578   3.418   3.114   2.006
90935SOL    HW174579   3.365   3.088   1.932
90935SOL    HW274580   3.508   3.098   1.978
90936SOL     OW74581   6.532  14.698  13.317
90936SOL    HW174582   6.535  14.681  13.411
90936SOL    HW274583   6.569  14.786  13.307
90937SOL     OW74584   7.918   9.432   3.402
90937SOL    HW174585   8.001   9.447   3.357
90937SOL    HW274586   7.858   9.497   3.364
90938SOL     OW74587  12.095  12.929   7.595
90938SOL    HW174588  12.002  12.938   7.613
90938SOL    HW274589  12.138  12.961   7.674
90939SOL     OW74590   0.351   3.929  10.735
90939SOL    HW174591   0.334   4.004  10.677
90939SOL    HW274592   0.445   3.917  10.731
90940SOL     OW74593   7.961  12.314   7.271
90940SOL    HW174594   7.909  12.390   7.296
90940SOL    HW274595   8.002  12.285   7.353
90941SOL     OW74596  12.941   9.260   9.947
90941SOL    HW174597  13.028   9.257   9.988
90941SOL    HW274598  12.882   9.287  10.017
90942SOL     OW74599   5.391   2.237  11.932
90942SOL    HW174600   5.303   2.252  11.969
90942SOL    HW274601   5.377   2.169  11.866
90943SOL     OW74602   6.848  10.018  10.797
90943SOL    HW174603   6.769   9.990  10.751
90943SOL    HW274604   6.917   9.961  10.764
90944SOL     OW74605   6.625   3.759   0.625
90944SOL    HW174606   6.718   3.766   0.603
90944SOL    HW274607   6.613   3.814   0.702
90945SOL     OW74608   0.131  12.874   8.243
90945SOL    HW174609   0.197  12.941   8.228
90945SOL    HW274610   0.181  12.796   8.268
90946SOL     OW74611   2.265   4.111   4.550
90946SOL    HW174612   2.307   4.155   4.475
90946SOL    HW274613   2.171   4.122   4.535
90947SOL     OW74614   4.234  13.280   4.306
90947SOL    HW174615   4.326  13.304   4.317
90947SOL    HW274616   4.236  13.193   4.265
90948SOL     OW74617  10.805   8.402  10.851
90948SOL    HW174618  10.878   8.340  10.839
90948SOL    HW274619  10.728   8.346  10.864
90949SOL     OW74620   8.783   7.727   0.761
90949SOL    HW174621   8.866   7.716   0.807
90949SOL    HW274622   8.786   7.816   0.727
90950SOL     OW74623  11.731  13.089  10.386
90950SOL    HW174624  11.820  13.099  10.353
90950SOL    HW274625  11.743  13.061  10.477
90951SOL     OW74626  10.723   9.906   5.221
90951SOL    HW174627  10.737   9.894   5.315
90951SOL    HW274628  10.768   9.833   5.180
90952SOL     OW74629  11.618   2.173   2.142
90952SOL    HW174630  11.554   2.166   2.213
90952SOL    HW274631  11.568   2.155   2.063
90953SOL     OW74632   1.199   7.009   9.344
90953SOL    HW174633   1.269   7.028   9.407
90953SOL    HW274634   1.119   7.036   9.388
90954SOL     OW74635   8.892  10.808   4.194
90954SOL    HW174636   8.803  10.810   4.230
90954SOL    HW274637   8.949  10.820   4.270
90955SOL     OW74638   0.627  12.953  12.526
90955SOL    HW174639   0.575  12.944  12.446
90955SOL    HW274640   0.614  13.044  12.553
90956SOL     OW74641   2.323  11.529   1.405
90956SOL    HW174642   2.416  11.532   1.383
90956SOL    HW274643   2.289  11.613   1.376
90957SOL     OW74644   8.061   0.534   8.603
90957SOL    HW174645   8.141   0.483   8.587
90957SOL    HW274646   8.089   0.605   8.660
90958SOL     OW74647   9.912   0.133   9.372
90958SOL    HW174648   9.963   0.064   9.414
90958SOL    HW274649   9.830   0.136   9.421
90959SOL     OW74650  11.523   3.727   2.480
90959SOL    HW174651  11.558   3.667   2.414
90959SOL    HW274652  11.443   3.683   2.511
90960SOL     OW74653   1.823   9.356   4.967
90960SOL    HW174654   1.864   9.318   5.045
90960SOL    HW274655   1.739   9.311   4.960
90961SOL     OW74656   2.494   0.493  13.902
90961SOL    HW174657   2.471   0.401  13.892
90961SOL    HW274658   2.413   0.535  13.932
90962SOL     OW74659   4.813  10.184  13.492
90962SOL    HW174660   4.894  10.233  13.479
90962SOL    HW274661   4.785  10.206  13.581
90963SOL     OW74662  13.179  12.888   8.168
90963SOL    HW174663  13.131  12.963   8.133
90963SOL    HW274664  13.117  12.845   8.227
90964SOL     OW74665   5.421  14.747   1.797
90964SOL    HW174666   5.416  14.842   1.807
90964SOL    HW274667   5.346  14.725   1.742
90965SOL     OW74668   2.570  10.659   7.329
90965SOL    HW174669   2.612  10.576   7.307
90965SOL    HW274670   2.528  10.643   7.413
90966SOL     OW74671  13.696  14.771   1.669
90966SOL    HW174672  13.637  14.698   1.689
90966SOL    HW274673  13.765  14.765   1.735
90967SOL     OW74674   3.129   1.792   3.200
90967SOL    HW174675   3.201   1.850   3.175
90967SOL    HW274676   3.168   1.705   3.202
90968SOL     OW74677   8.447  10.815   8.009
90968SOL    HW174678   8.380  10.844   7.947
90968SOL    HW274679   8.409  10.834   8.095
90969SOL     OW74680   9.324   2.026  10.645
90969SOL    HW174681   9.363   2.089  10.585
90969SOL    HW274682   9.398   1.974  10.677
90970SOL     OW74683  12.700   4.888   1.883
90970SOL    HW174684  12.762   4.945   1.838
90970SOL    HW274685  12.677   4.935   1.963
90971SOL     OW74686   6.158   6.765  13.906
90971SOL    HW174687   6.129   6.835  13.847
90971SOL    HW274688   6.250   6.785  13.924
90972SOL     OW74689   4.833   9.746  12.265
90972SOL    HW174690   4.892   9.716  12.334
90972SOL    HW274691   4.774   9.672  12.250
90973SOL     OW74692   9.167   9.903   4.085
90973SOL    HW174693   9.086   9.907   4.136
90973SOL    HW274694   9.237   9.909   4.150
90974SOL     OW74695   1.293   1.497   3.883
90974SOL    HW174696   1.358   1.483   3.814
90974SOL    HW274697   1.282   1.411   3.923
90975SOL     OW74698   3.516   3.605  12.374
90975SOL    HW174699   3.427   3.604  12.341
90975SOL    HW274700   3.539   3.513  12.386
90976SOL     OW74701  12.514  11.310   0.292
90976SOL    HW174702  12.520  11.268   0.378
90976SOL    HW274703  12.421  11.332   0.282
90977SOL     OW74704  13.301  12.625   1.388
90977SOL    HW174705  13.327  12.534   1.401
90977SOL    HW274706  13.209  12.621   1.361
90978SOL     OW74707   6.517   4.057   4.135
90978SOL    HW174708   6.567   4.114   4.194
90978SOL    HW274709   6.577   4.040   4.062
90979SOL     OW74710  13.316   3.416   0.506
90979SOL    HW174711  13.227   3.411   0.471
90979SOL    HW274712  13.365   3.353   0.454
90980SOL     OW74713  11.816   6.503   0.698
90980SOL    HW174714  11.747   6.443   0.729
90980SOL    HW274715  11.797   6.515   0.605
90981SOL     OW74716  14.103   6.489   9.235
90981SOL    HW174717  14.185   6.488   9.187
90981SOL    HW274718  14.056   6.565   9.201
90982SOL     OW74719  14.579   1.385   4.363
90982SOL    HW174720  14.651   1.412   4.421
90982SOL    HW274721  14.520   1.461   4.361
90983SOL     OW74722   7.282   1.478   9.257
90983SOL    HW174723   7.312   1.510   9.342
90983SOL    HW274724   7.201   1.526   9.241
90984SOL     OW74725   0.133   5.617  11.819
90984SOL    HW174726   0.119   5.526  11.792
90984SOL    HW274727   0.053   5.640  11.867
90985SOL     OW74728   2.441   5.998  14.526
90985SOL    HW174729   2.525   5.955  14.505
90985SOL    HW274730   2.467   6.081  14.565
90986SOL     OW74731   4.969   0.815   4.304
90986SOL    HW174732   4.891   0.786   4.351
90986SOL    HW274733   5.004   0.735   4.264
90987SOL     OW74734   5.610  13.483  10.695
90987SOL    HW174735   5.664  13.434  10.758
90987SOL    HW274736   5.637  13.450  10.610
90988SOL     OW74737  14.294  13.866   1.139
90988SOL    HW174738  14.312  13.772   1.131
90988SOL    HW274739  14.367  13.909   1.093
90989SOL     OW74740  14.063  11.263  13.726
90989SOL    HW174741  14.153  11.239  13.706
90989SOL    HW274742  14.069  11.316  13.805
90990SOL     OW74743   1.877   9.320   7.617
90990SOL    HW174744   1.881   9.386   7.686
90990SOL    HW274745   1.963   9.322   7.576
90991SOL     OW74746   3.317   8.931   3.443
90991SOL    HW174747   3.308   9.022   3.472
90991SOL    HW274748   3.411   8.919   3.430
90992SOL     OW74749  13.709   2.191  12.479
90992SOL    HW174750  13.711   2.238  12.395
90992SOL    HW274751  13.770   2.118  12.467
90993SOL     OW74752   6.279   9.601   9.372
90993SOL    HW174753   6.203   9.633   9.323
90993SOL    HW274754   6.241   9.556   9.447
90994SOL     OW74755  11.413  11.479  11.969
90994SOL    HW174756  11.415  11.420  12.045
90994SOL    HW274757  11.463  11.555  11.997
90995SOL     OW74758   7.302   9.316   0.034
90995SOL    HW174759   7.306   9.391   0.092
90995SOL    HW274760   7.272   9.352  14.827
90996SOL     OW74761  13.246   8.388   3.525
90996SOL    HW174762  13.309   8.454   3.556
90996SOL    HW274763  13.195   8.366   3.603
90997SOL     OW74764   8.414   9.386   8.941
90997SOL    HW174765   8.493   9.380   8.888
90997SOL    HW274766   8.391   9.479   8.940
90998SOL     OW74767   3.537   6.615  13.460
90998SOL    HW174768   3.519   6.581  13.373
90998SOL    HW274769   3.593   6.691  13.446
90999SOL     OW74770  14.090   3.675   5.745
90999SOL    HW174771  14.118   3.588   5.774
90999SOL    HW274772  14.117   3.679   5.653
91000SOL     OW74773   6.473  11.696   7.563
91000SOL    HW174774   6.445  11.787   7.559
91000SOL    HW274775   6.423  11.659   7.636
91001SOL     OW74776   4.245   9.349   9.717
91001SOL    HW174777   4.215   9.272   9.765
91001SOL    HW274778   4.293   9.401   9.782
91002SOL     OW74779   5.950   8.925   3.126
91002SOL    HW174780   5.994   8.995   3.174
91002SOL    HW274781   5.913   8.969   3.049
91003SOL     OW74782  10.075  12.381  12.958
91003SOL    HW174783   9.983  12.403  12.949
91003SOL    HW274784  10.081  12.337  13.043
91004SOL     OW74785  13.186   6.053  12.017
91004SOL    HW174786  13.262   6.074  12.072
91004SOL    HW274787  13.216   5.983  11.960
91005SOL     OW74788  13.226   1.489   3.242
91005SOL    HW174789  13.276   1.538   3.178
91005SOL    HW274790  13.209   1.552   3.312
91006SOL     OW74791   8.671   1.565   4.438
91006SOL    HW174792   8.734   1.527   4.377
91006SOL    HW274793   8.725   1.604   4.506
91007SOL     OW74794   4.091   4.685   9.192
91007SOL    HW174795   4.107   4.592   9.203
91007SOL    HW274796   4.063   4.695   9.101
91008SOL     OW74797   5.804  14.215   6.258
91008SOL    HW174798   5.734  14.150   6.260
91008SOL    HW274799   5.856  14.197   6.336
91009SOL     OW74800   1.682   0.435   3.335
91009SOL    HW174801   1.748   0.460   3.400
91009SOL    HW274802   1.723   0.363   3.286
91010SOL     OW74803   9.286   7.706   1.172
91010SOL    HW174804   9.280   7.801   1.177
91010SOL    HW274805   9.338   7.681   1.248
91011SOL     OW74806   6.996   8.498   0.062
91011SOL    HW174807   6.925   8.530   0.008
91011SOL    HW274808   7.054   8.451   0.002
91012SOL     OW74809  13.831  10.630   0.436
91012SOL    HW174810  13.777  10.708   0.422
91012SOL    HW274811  13.912  10.647   0.387
91013SOL     OW74812   4.798  12.528   1.272
91013SOL    HW174813   4.886  12.493   1.258
91013SOL    HW274814   4.745  12.451   1.293
91014SOL     OW74815  13.195  13.650   8.180
91014SOL    HW174816  13.192  13.742   8.153
91014SOL    HW274817  13.286  13.624   8.166
91015SOL     OW74818   0.168   6.272   0.308
91015SOL    HW174819   0.190   6.214   0.235
91015SOL    HW274820   0.252   6.307   0.337
91016SOL     OW74821   7.964   1.277   1.880
91016SOL    HW174822   8.004   1.229   1.808
91016SOL    HW274823   7.887   1.319   1.841
91017SOL     OW74824   6.298   1.221   1.781
91017SOL    HW174825   6.360   1.238   1.711
91017SOL    HW274826   6.213   1.213   1.737
91018SOL     OW74827   1.405   3.642   0.484
91018SOL    HW174828   1.369   3.564   0.441
91018SOL    HW274829   1.499   3.624   0.491
91019SOL     OW74830   6.089  10.321   0.870
91019SOL    HW174831   6.004  10.344   0.834
91019SOL    HW274832   6.073  10.310   0.964
91020SOL     OW74833   6.382  13.239  12.113
91020SOL    HW174834   6.385  13.276  12.201
91020SOL    HW274835   6.343  13.152  12.124
91021SOL     OW74836  10.535   7.015  12.430
91021SOL    HW174837  10.587   7.067  12.491
91021SOL    HW274838  10.597   6.984  12.364
91022SOL     OW74839   1.628  13.207   1.873
91022SOL    HW174840   1.689  13.259   1.820
91022SOL    HW274841   1.682  13.136   1.907
91023SOL     OW74842  13.147   3.974  12.383
91023SOL    HW174843  13.096   4.050  12.355
91023SOL    HW274844  13.152   3.983  12.479
91024SOL     OW74845   6.825  10.108   9.341
91024SOL    HW174846   6.749  10.167   9.335
91024SOL    HW274847   6.900  10.165   9.325
91025SOL     OW74848   9.259   2.229   4.598
91025SOL    HW174849   9.282   2.298   4.660
91025SOL    HW274850   9.258   2.149   4.651
91026SOL     OW74851   6.769   4.055   2.415
91026SOL    HW174852   6.831   4.104   2.360
91026SOL    HW274853   6.768   4.104   2.498
91027SOL     OW74854   4.082   5.218  10.505
91027SOL    HW174855   4.055   5.297  10.459
91027SOL    HW274856   4.026   5.213  10.582
91028SOL     OW74857  10.190  12.707   4.097
91028SOL    HW174858  10.229  12.753   4.171
91028SOL    HW274859  10.104  12.747   4.087
91029SOL     OW74860   5.591   2.946   9.148
91029SOL    HW174861   5.675   2.957   9.102
91029SOL    HW274862   5.525   2.962   9.080
91030SOL     OW74863   4.859  12.479  14.258
91030SOL    HW174864   4.781  12.482  14.202
91030SOL    HW274865   4.930  12.455  14.200
91031SOL     OW74866   1.705   8.475  10.657
91031SOL    HW174867   1.789   8.512  10.686
91031SOL    HW274868   1.730   8.397  10.607
91032SOL     OW74869   5.275  12.538  14.854
91032SOL    HW174870   5.265  12.466  14.791
91032SOL    HW274871   5.367  12.562  14.848
91033SOL     OW74872  14.115   7.738   6.583
91033SOL    HW174873  14.128   7.684   6.661
91033SOL    HW274874  14.024   7.767   6.589
91034SOL     OW74875   8.887   2.519   3.145
91034SOL    HW174876   8.901   2.614   3.145
91034SOL    HW274877   8.805   2.507   3.192
91035SOL     OW74878  13.112   8.675   3.647
91035SOL    HW174879  13.110   8.581   3.665
91035SOL    HW274880  13.114   8.717   3.733
91036SOL     OW74881   0.245  13.243   2.799
91036SOL    HW174882   0.251  13.148   2.790
91036SOL    HW274883   0.151  13.261   2.807
91037SOL     OW74884   2.457   8.282   3.600
91037SOL    HW174885   2.425   8.338   3.529
91037SOL    HW274886   2.396   8.208   3.602
91038SOL     OW74887  10.866  10.940   3.319
91038SOL    HW174888  10.932  10.967   3.383
91038SOL    HW274889  10.906  10.962   3.234
91039SOL     OW74890  11.528   6.254   7.772
91039SOL    HW174891  11.557   6.327   7.827
91039SOL    HW274892  11.594   6.186   7.786
91040SOL     OW74893  11.645  13.571  12.763
91040SOL    HW174894  11.636  13.586  12.857
91040SOL    HW274895  11.596  13.642  12.722
91041SOL     OW74896   7.282  14.326   4.059
91041SOL    HW174897   7.314  14.319   4.149
91041SOL    HW274898   7.303  14.241   4.019
91042SOL     OW74899   6.819  12.468   0.031
91042SOL    HW174900   6.790  12.559   0.039
91042SOL    HW274901   6.904  12.473  14.866
91043SOL     OW74902   1.574   0.624   0.696
91043SOL    HW174903   1.628   0.696   0.662
91043SOL    HW274904   1.530   0.660   0.772
91044SOL     OW74905   9.256   9.046   1.481
91044SOL    HW174906   9.345   9.056   1.516
91044SOL    HW274907   9.218   8.975   1.532
91045SOL     OW74908  10.474   3.115   5.278
91045SOL    HW174909  10.398   3.167   5.254
91045SOL    HW274910  10.441   3.025   5.287
91046SOL     OW74911   4.431  13.585  13.252
91046SOL    HW174912   4.491  13.611  13.182
91046SOL    HW274913   4.401  13.498  13.225
91047SOL     OW74914   9.181  13.835   6.245
91047SOL    HW174915   9.162  13.741   6.246
91047SOL    HW274916   9.111  13.874   6.298
91048SOL     OW74917   6.464   3.474  13.577
91048SOL    HW174918   6.464   3.425  13.659
91048SOL    HW274919   6.551   3.460  13.540
91049SOL     OW74920   9.200  14.038   7.019
91049SOL    HW174921   9.156  14.118   7.048
91049SOL    HW274922   9.211  13.987   7.099
91050SOL     OW74923   4.014  10.312   2.849
91050SOL    HW174924   4.016  10.286   2.941
91050SOL    HW274925   4.094  10.363   2.838
91051SOL     OW74926   4.387  10.489  10.060
91051SOL    HW174927   4.330  10.433  10.113
91051SOL    HW274928   4.326  10.546  10.012
91052SOL     OW74929   2.651   7.517  12.782
91052SOL    HW174930   2.686   7.485  12.865
91052SOL    HW274931   2.617   7.604  12.803
91053SOL     OW74932   0.390  13.702   4.533
91053SOL    HW174933   0.471  13.700   4.482
91053SOL    HW274934   0.395  13.784   4.582
91054SOL     OW74935  14.731   7.156  10.995
91054SOL    HW174936  14.684   7.206  11.061
91054SOL    HW274937  14.751   7.073  11.038
91055SOL     OW74938   5.993  14.466   8.859
91055SOL    HW174939   6.002  14.561   8.872
91055SOL    HW274940   6.038  14.449   8.777
91056SOL     OW74941  10.276  13.245   4.996
91056SOL    HW174942  10.289  13.308   4.924
91056SOL    HW274943  10.223  13.292   5.060
91057SOL     OW74944  13.330  11.426  11.379
91057SOL    HW174945  13.362  11.485  11.311
91057SOL    HW274946  13.370  11.342  11.359
91058SOL     OW74947   9.417  12.783   8.323
91058SOL    HW174948   9.431  12.841   8.249
91058SOL    HW274949   9.502  12.777   8.366
91059SOL     OW74950  11.110   0.719   2.792
91059SOL    HW174951  11.111   0.814   2.785
91059SOL    HW274952  11.039   0.700   2.853
91060SOL     OW74953   4.321   8.370  12.404
91060SOL    HW174954   4.300   8.461  12.381
91060SOL    HW274955   4.247   8.319  12.370
91061SOL     OW74956   9.887   7.332   7.870
91061SOL    HW174957   9.817   7.277   7.836
91061SOL    HW274958   9.950   7.338   7.798
91062SOL     OW74959   0.715   4.336  10.001
91062SOL    HW174960   0.687   4.355  10.090
91062SOL    HW274961   0.794   4.389   9.988
91063SOL     OW74962  11.042  14.828  13.663
91063SOL    HW174963  11.099  14.752  13.680
91063SOL    HW274964  11.103   0.023  13.650
91064SOL     OW74965   0.381   5.923   8.118
91064SOL    HW174966   0.334   5.843   8.140
91064SOL    HW274967   0.445   5.933   8.188
91065SOL     OW74968  10.215  13.769   4.787
91065SOL    HW174969  10.178  13.809   4.708
91065SOL    HW274970  10.254  13.843   4.834
91066SOL     OW74971   3.930   2.164   8.190
91066SOL    HW174972   3.892   2.189   8.274
91066SOL    HW274973   3.981   2.241   8.163
91067SOL     OW74974   5.928   6.602   2.541
91067SOL    HW174975   5.901   6.602   2.633
91067SOL    HW274976   6.023   6.593   2.544
91068SOL     OW74977   7.928  11.131  14.783
91068SOL    HW174978   8.009  11.147  14.734
91068SOL    HW274979   7.862  11.183  14.738
91069SOL     OW74980   0.862   2.203   7.836
91069SOL    HW174981   0.910   2.151   7.899
91069SOL    HW274982   0.926   2.224   7.768
91070SOL     OW74983  10.862  10.030   4.963
91070SOL    HW174984  10.888  10.082   5.038
91070SOL    HW274985  10.874   9.939   4.991
91071SOL     OW74986  10.823   2.085   8.148
91071SOL    HW174987  10.797   2.156   8.089
91071SOL    HW274988  10.850   2.130   8.228
91072SOL     OW74989   3.285   8.146   0.608
91072SOL    HW174990   3.201   8.180   0.637
91072SOL    HW274991   3.291   8.171   0.516
91073SOL     OW74992  11.010   7.324  13.181
91073SOL    HW174993  10.951   7.381  13.133
91073SOL    HW274994  11.051   7.269  13.114
91074SOL     OW74995   9.439   3.706   3.283
91074SOL    HW174996   9.401   3.619   3.288
91074SOL    HW274997   9.426   3.732   3.191
91075SOL     OW74998   8.314  11.306   5.343
91075SOL    HW174999   8.355  11.392   5.349
91075SOL    HW275000   8.355  11.254   5.411
91076SOL     OW75001   4.674  10.669   2.159
91076SOL    HW175002   4.737  10.603   2.187
91076SOL    HW275003   4.601  10.661   2.221
91077SOL     OW75004   6.561   4.531  11.849
91077SOL    HW175005   6.642   4.540  11.798
91077SOL    HW275006   6.565   4.442  11.884
91078SOL     OW75007   8.672   4.558  11.347
91078SOL    HW175008   8.727   4.495  11.300
91078SOL    HW275009   8.689   4.642  11.303
91079SOL     OW75010  10.717   0.560   0.891
91079SOL    HW175011  10.734   0.479   0.842
91079SOL    HW275012  10.790   0.567   0.952
91080SOL     OW75013   1.248   9.250  11.650
91080SOL    HW175014   1.314   9.289  11.707
91080SOL    HW275015   1.274   9.275  11.562
91081SOL     OW75016  14.074   4.055  10.024
91081SOL    HW175017  14.144   4.045  10.089
91081SOL    HW275018  14.112   4.111   9.957
91082SOL     OW75019   7.185   5.469  13.796
91082SOL    HW175020   7.121   5.408  13.830
91082SOL    HW275021   7.242   5.416  13.741
91083SOL     OW75022  14.730  10.926   5.601
91083SOL    HW175023  14.676  10.937   5.522
91083SOL    HW275024  14.673  10.951   5.673
91084SOL     OW75025   7.986   4.498   9.378
91084SOL    HW175026   8.018   4.411   9.354
91084SOL    HW275027   7.941   4.529   9.299
91085SOL     OW75028  10.717   2.542   8.168
91085SOL    HW175029  10.676   2.570   8.086
91085SOL    HW275030  10.708   2.447   8.167
91086SOL     OW75031   8.011   7.277   3.055
91086SOL    HW175032   7.947   7.239   3.116
91086SOL    HW275033   7.957   7.319   2.988
91087SOL     OW75034   3.912   3.083   9.154
91087SOL    HW175035   3.874   3.156   9.204
91087SOL    HW275036   3.945   3.123   9.074
91088SOL     OW75037   3.095   6.837   6.834
91088SOL    HW175038   3.071   6.804   6.747
91088SOL    HW275039   3.058   6.926   6.836
91089SOL     OW75040   7.224   9.348  14.650
91089SOL    HW175041   7.216   9.255  14.629
91089SOL    HW275042   7.261   9.387  14.570
91090SOL     OW75043  10.729   9.961   2.268
91090SOL    HW175044  10.717  10.053   2.246
91090SOL    HW275045  10.823   9.946   2.255
91091SOL     OW75046   9.117  13.228   4.233
91091SOL    HW175047   9.150  13.153   4.184
91091SOL    HW275048   9.092  13.192   4.318
91092SOL     OW75049   5.354   8.840   7.283
91092SOL    HW175050   5.273   8.865   7.326
91092SOL    HW275051   5.423   8.868   7.342
91093SOL     OW75052  12.929   8.611   3.858
91093SOL    HW175053  12.873   8.679   3.822
91093SOL    HW275054  12.871   8.557   3.912
91094SOL     OW75055   0.719   3.143   4.668
91094SOL    HW175056   0.742   3.235   4.666
91094SOL    HW275057   0.785   3.103   4.726
91095SOL     OW75058   2.014   4.269   4.075
91095SOL    HW175059   2.054   4.184   4.058
91095SOL    HW275060   1.992   4.266   4.169
91096SOL     OW75061   2.800  11.934   2.195
91096SOL    HW175062   2.815  11.860   2.254
91096SOL    HW275063   2.886  11.975   2.186
91097SOL     OW75064   9.596   3.793  11.015
91097SOL    HW175065   9.514   3.833  10.987
91097SOL    HW275066   9.654   3.800  10.939
91098SOL     OW75067  13.650   1.831   7.324
91098SOL    HW175068  13.652   1.791   7.411
91098SOL    HW275069  13.559   1.855   7.311
91099SOL     OW75070  13.166  11.419  12.760
91099SOL    HW175071  13.231  11.451  12.698
91099SOL    HW275072  13.209  11.424  12.845
91100SOL     OW75073  11.591  14.649   6.884
91100SOL    HW175074  11.571  14.668   6.792
91100SOL    HW275075  11.640  14.567   6.881
91101SOL     OW75076   4.565  11.664   6.295
91101SOL    HW175077   4.551  11.607   6.371
91101SOL    HW275078   4.608  11.742   6.332
91102SOL     OW75079   0.235   3.777   9.634
91102SOL    HW175080   0.274   3.813   9.714
91102SOL    HW275081   0.228   3.683   9.650
91103SOL     OW75082   5.206  14.191  10.730
91103SOL    HW175083   5.134  14.254  10.737
91103SOL    HW275084   5.163  14.106  10.736
91104SOL     OW75085   1.192   5.708   9.308
91104SOL    HW175086   1.105   5.747   9.299
91104SOL    HW275087   1.245   5.752   9.241
91105SOL     OW75088  10.947  11.973   4.687
91105SOL    HW175089  10.880  12.013   4.632
91105SOL    HW275090  10.925  12.002   4.776
91106SOL     OW75091   1.078   8.367   6.352
91106SOL    HW175092   1.049   8.303   6.288
91106SOL    HW275093   1.018   8.441   6.341
91107SOL     OW75094  11.416  11.439  10.232
91107SOL    HW175095  11.437  11.531  10.217
91107SOL    HW275096  11.497  11.400  10.266
91108SOL     OW75097   6.167  11.596  13.029
91108SOL    HW175098   6.238  11.582  12.966
91108SOL    HW275099   6.191  11.676  13.075
91109SOL     OW75100  10.143  10.776  11.949
91109SOL    HW175101  10.214  10.774  12.013
91109SOL    HW275102  10.073  10.724  11.988
91110SOL     OW75103   3.020   4.293   5.265
91110SOL    HW175104   2.957   4.361   5.290
91110SOL    HW275105   3.102   4.320   5.306
91111SOL     OW75106  12.748  13.484   9.797
91111SOL    HW175107  12.820  13.450   9.850
91111SOL    HW275108  12.781  13.482   9.707
91112SOL     OW75109  13.353   6.324  10.980
91112SOL    HW175110  13.326   6.235  10.961
91112SOL    HW275111  13.421   6.343  10.915
91113SOL     OW75112   6.682  10.022   2.751
91113SOL    HW175113   6.698  10.004   2.844
91113SOL    HW275114   6.762   9.992   2.707
91114SOL     OW75115  12.700   3.105  14.220
91114SOL    HW175116  12.764   3.056  14.167
91114SOL    HW275117  12.746   3.123  14.302
91115SOL     OW75118   5.957  14.263  12.017
91115SOL    HW175119   5.861  14.261  12.016
91115SOL    HW275120   5.983  14.181  11.976
91116SOL     OW75121   1.256   1.352   3.120
91116SOL    HW175122   1.176   1.311   3.087
91116SOL    HW275123   1.253   1.441   3.086
91117SOL     OW75124   0.260  10.184   9.323
91117SOL    HW175125   0.198  10.114   9.304
91117SOL    HW275126   0.343  10.152   9.286
91118SOL     OW75127  13.129  11.526   2.963
91118SOL    HW175128  13.209  11.571   2.938
91118SOL    HW275129  13.158  11.442   3.000
91119SOL     OW75130   9.671   2.873   5.213
91119SOL    HW175131   9.718   2.904   5.290
91119SOL    HW275132   9.679   2.777   5.217
91120SOL     OW75133   1.686  12.753  13.342
91120SOL    HW175134   1.705  12.671  13.387
91120SOL    HW275135   1.593  12.747  13.320
91121SOL     OW75136  14.364   9.983   7.062
91121SOL    HW175137  14.394  10.074   7.060
91121SOL    HW275138  14.297   9.981   7.129
91122SOL     OW75139   3.605   3.143   9.912
91122SOL    HW175140   3.670   3.074   9.899
91122SOL    HW275141   3.535   3.121   9.850
91123SOL     OW75142   5.038   7.092   8.164
91123SOL    HW175143   5.031   7.013   8.218
91123SOL    HW275144   5.131   7.114   8.165
91124SOL     OW75145   5.687   4.944   5.371
91124SOL    HW175146   5.665   5.034   5.345
91124SOL    HW275147   5.640   4.889   5.309
91125SOL     OW75148  13.203  13.317   4.125
91125SOL    HW175149  13.231  13.257   4.055
91125SOL    HW275150  13.223  13.404   4.091
91126SOL     OW75151   2.837  10.482   2.158
91126SOL    HW175152   2.929  10.456   2.162
91126SOL    HW275153   2.833  10.565   2.206
91127SOL     OW75154   6.997   0.561   6.471
91127SOL    HW175155   6.913   0.601   6.446
91127SOL    HW275156   6.977   0.508   6.548
91128SOL     OW75157  12.066   9.654  13.090
91128SOL    HW175158  12.074   9.741  13.050
91128SOL    HW275159  12.052   9.671  13.183
91129SOL     OW75160  13.643   8.685   2.037
91129SOL    HW175161  13.579   8.736   2.086
91129SOL    HW275162  13.685   8.629   2.104
91130SOL     OW75163  14.802   5.549   3.513
91130SOL    HW175164  14.801   5.604   3.434
91130SOL    HW275165  14.710   5.546   3.540
91131SOL     OW75166   1.436   0.585   2.974
91131SOL    HW175167   1.411   0.668   2.933
91131SOL    HW275168   1.439   0.604   3.068
91132SOL     OW75169  11.816   1.473  14.434
91132SOL    HW175170  11.737   1.420  14.428
91132SOL    HW275171  11.882   1.415  14.471
91133SOL     OW75172  11.734   8.575  14.087
91133SOL    HW175173  11.807   8.579  14.148
91133SOL    HW275174  11.738   8.657  14.038
91134SOL     OW75175   3.998   0.266   5.336
91134SOL    HW175176   4.020   0.217   5.256
91134SOL    HW275177   3.941   0.206   5.385
91135SOL     OW75178   4.298  10.204   9.457
91135SOL    HW175179   4.325  10.120   9.493
91135SOL    HW275180   4.284  10.188   9.364
91136SOL     OW75181   5.114  11.697  14.016
91136SOL    HW175182   5.076  11.776  14.055
91136SOL    HW275183   5.168  11.660  14.086
91137SOL     OW75184   0.597   6.259   0.181
91137SOL    HW175185   0.674   6.313   0.196
91137SOL    HW275186   0.621   6.173   0.216
91138SOL     OW75187  14.495   5.601   3.419
91138SOL    HW175188  14.435   5.534   3.452
91138SOL    HW275189  14.487   5.674   3.481
91139SOL     OW75190   9.514  13.848   5.361
91139SOL    HW175191   9.427  13.876   5.331
91139SOL    HW275192   9.524  13.889   5.447
91140SOL     OW75193  10.848   6.576   9.757
91140SOL    HW175194  10.854   6.586   9.852
91140SOL    HW275195  10.757   6.553   9.741
91141SOL     OW75196  13.367   0.505  10.318
91141SOL    HW175197  13.439   0.509  10.255
91141SOL    HW275198  13.372   0.588  10.366
91142SOL     OW75199   2.172   7.958   6.356
91142SOL    HW175200   2.200   7.999   6.275
91142SOL    HW275201   2.249   7.962   6.413
91143SOL     OW75202  14.004   6.720   9.089
91143SOL    HW175203  14.059   6.784   9.135
91143SOL    HW275204  13.945   6.774   9.035
91144SOL     OW75205   4.537  11.662  12.744
91144SOL    HW175206   4.594  11.630  12.814
91144SOL    HW275207   4.551  11.601  12.672
91145SOL     OW75208  10.871   6.191  14.337
91145SOL    HW175209  10.856   6.152  14.251
91145SOL    HW275210  10.957   6.232  14.330
91146SOL     OW75211   0.551   2.849   0.318
91146SOL    HW175212   0.490   2.922   0.321
91146SOL    HW275213   0.620   2.878   0.257
91147SOL     OW75214  12.901   0.987  10.344
91147SOL    HW175215  12.914   1.024  10.257
91147SOL    HW275216  12.963   0.914  10.349
91148SOL     OW75217   1.405  13.472  11.915
91148SOL    HW175218   1.375  13.426  11.993
91148SOL    HW275219   1.452  13.406  11.865
91149SOL     OW75220   6.302   4.697   3.487
91149SOL    HW175221   6.246   4.639   3.435
91149SOL    HW275222   6.244   4.769   3.512
91150SOL     OW75223   9.570   5.864  14.498
91150SOL    HW175224   9.502   5.879  14.432
91150SOL    HW275225   9.591   5.771  14.490
91151SOL     OW75226   4.135   5.621   5.474
91151SOL    HW175227   4.086   5.575   5.542
91151SOL    HW275228   4.070   5.680   5.435
91152SOL     OW75229   4.449   5.453  10.441
91152SOL    HW175230   4.404   5.385  10.491
91152SOL    HW275231   4.441   5.426  10.350
91153SOL     OW75232   3.633  12.916   1.682
91153SOL    HW175233   3.698  12.891   1.616
91153SOL    HW275234   3.557  12.862   1.662
91154SOL     OW75235   0.473  13.826   1.245
91154SOL    HW175236   0.423  13.752   1.280
91154SOL    HW275237   0.462  13.895   1.310
91155SOL     OW75238   2.866   3.826  14.268
91155SOL    HW175239   2.852   3.875  14.349
91155SOL    HW275240   2.790   3.768  14.262
91156SOL     OW75241   4.083   9.690   0.970
91156SOL    HW175242   4.053   9.726   1.053
91156SOL    HW275243   4.169   9.730   0.957
91157SOL     OW75244   2.042   8.250  14.681
91157SOL    HW175245   2.124   8.201  14.690
91157SOL    HW275246   2.059   8.335  14.723
91158SOL     OW75247   5.402   7.881   1.439
91158SOL    HW175248   5.468   7.815   1.458
91158SOL    HW275249   5.358   7.896   1.523
91159SOL     OW75250  14.790  10.102   8.316
91159SOL    HW175251  14.796  10.192   8.347
91159SOL    HW275252  14.727  10.106   8.244
91160SOL     OW75253   5.448  11.813   5.634
91160SOL    HW175254   5.527  11.758   5.637
91160SOL    HW275255   5.458  11.865   5.554
91161SOL     OW75256   3.221   4.154   8.413
91161SOL    HW175257   3.237   4.110   8.330
91161SOL    HW275258   3.296   4.212   8.424
91162SOL     OW75259   1.958   5.986  13.183
91162SOL    HW175260   1.998   6.029  13.108
91162SOL    HW275261   1.990   6.035  13.259
91163SOL     OW75262   8.614   6.027  12.952
91163SOL    HW175263   8.700   6.035  12.994
91163SOL    HW275264   8.610   5.936  12.923
91164SOL     OW75265   5.870   0.866   7.157
91164SOL    HW175266   5.860   0.840   7.066
91164SOL    HW275267   5.781   0.863   7.193
91165SOL     OW75268   2.472   6.824   0.410
91165SOL    HW175269   2.432   6.779   0.485
91165SOL    HW275270   2.541   6.878   0.449
91166SOL     OW75271   2.452  14.684   0.673
91166SOL    HW175272   2.478  14.741   0.601
91166SOL    HW275273   2.420  14.604   0.630
91167SOL     OW75274   0.301  14.718   9.581
91167SOL    HW175275   0.337  14.728   9.493
91167SOL    HW275276   0.351  14.780   9.635
91168SOL     OW75277  10.354   4.315   6.150
91168SOL    HW175278  10.330   4.407   6.164
91168SOL    HW275279  10.327   4.298   6.059
91169SOL     OW75280  13.224   1.744   8.874
91169SOL    HW175281  13.133   1.729   8.897
91169SOL    HW275282  13.238   1.689   8.797
91170SOL     OW75283  12.696   3.595  12.665
91170SOL    HW175284  12.625   3.594  12.600
91170SOL    HW275285  12.761   3.533  12.631
91171SOL     OW75286   4.450   4.435  14.835
91171SOL    HW175287   4.537   4.474  14.842
91171SOL    HW275288   4.465   4.348  14.799
91172SOL     OW75289   1.597   5.151   9.360
91172SOL    HW175290   1.569   5.239   9.337
91172SOL    HW275291   1.685   5.162   9.395
91173SOL     OW75292  11.413   4.997   4.080
91173SOL    HW175293  11.318   5.002   4.088
91173SOL    HW275294  11.444   4.978   4.168
91174SOL     OW75295   2.081  12.815  10.839
91174SOL    HW175296   2.088  12.843  10.748
91174SOL    HW275297   1.996  12.774  10.845
91175SOL     OW75298   2.389  12.562   2.001
91175SOL    HW175299   2.367  12.486   2.055
91175SOL    HW275300   2.481  12.578   2.018
91176SOL     OW75301   6.818   2.610   9.986
91176SOL    HW175302   6.896   2.664   9.971
91176SOL    HW275303   6.843   2.551  10.057
91177SOL     OW75304  10.361  12.940  10.118
91177SOL    HW175305  10.302  13.009  10.146
91177SOL    HW275306  10.437  12.986  10.082
91178SOL     OW75307  10.024   5.782  11.161
91178SOL    HW175308  10.012   5.724  11.086
91178SOL    HW275309  10.097   5.743  11.210
91179SOL     OW75310  11.904  12.770  14.269
91179SOL    HW175311  11.945  12.850  14.238
91179SOL    HW275312  11.822  12.799  14.309
91180SOL     OW75313   0.534  10.411   3.292
91180SOL    HW175314   0.575  10.402   3.378
91180SOL    HW275315   0.465  10.476   3.305
91181SOL     OW75316  11.978  10.224  10.421
91181SOL    HW175317  12.063  10.192  10.390
91181SOL    HW275318  11.922  10.223  10.343
91182SOL     OW75319   1.517  11.423   7.288
91182SOL    HW175320   1.444  11.377   7.329
91182SOL    HW275321   1.480  11.506   7.258
91183SOL     OW75322   2.449   5.008  11.252
91183SOL    HW175323   2.407   4.964  11.326
91183SOL    HW275324   2.487   4.936  11.200
91184SOL     OW75325   3.430   7.776   2.615
91184SOL    HW175326   3.340   7.744   2.609
91184SOL    HW275327   3.466   7.729   2.691
91185SOL     OW75328   0.625   6.999   2.136
91185SOL    HW175329   0.691   7.048   2.185
91185SOL    HW275330   0.666   6.914   2.119
91186SOL     OW75331   4.357   3.509   8.951
91186SOL    HW175332   4.314   3.584   8.909
91186SOL    HW275333   4.291   3.473   9.010
91187SOL     OW75334  14.321   6.550  12.864
91187SOL    HW175335  14.368   6.596  12.933
91187SOL    HW275336  14.340   6.600  12.785
91188SOL     OW75337  12.390  11.466   6.870
91188SOL    HW175338  12.450  11.477   6.796
91188SOL    HW275339  12.361  11.375   6.864
91189SOL     OW75340   8.444  10.823  14.440
91189SOL    HW175341   8.506  10.752  14.423
91189SOL    HW275342   8.447  10.835  14.535
91190SOL     OW75343   4.082  10.530  13.436
91190SOL    HW175344   4.100  10.437  13.430
91190SOL    HW275345   4.007  10.545  13.379
91191SOL     OW75346   3.610  12.381  11.169
91191SOL    HW175347   3.519  12.367  11.144
91191SOL    HW275348   3.634  12.303  11.219
91192SOL     OW75349  14.876   2.978   1.177
91192SOL    HW175350  14.835   2.952   1.095
91192SOL    HW275351  14.858   2.905   1.237
91193SOL     OW75352  14.539   2.623   7.867
91193SOL    HW175353  14.603   2.642   7.936
91193SOL    HW275354  14.553   2.691   7.802
91194SOL     OW75355  13.554   8.354   5.090
91194SOL    HW175356  13.649   8.339   5.088
91194SOL    HW275357  13.534   8.369   5.182
91195SOL     OW75358   9.229   7.837   6.956
91195SOL    HW175359   9.146   7.820   7.000
91195SOL    HW275360   9.233   7.932   6.946
91196SOL     OW75361   5.026   3.296   4.495
91196SOL    HW175362   4.979   3.316   4.414
91196SOL    HW275363   5.004   3.205   4.514
91197SOL     OW75364   8.763  14.385  14.361
91197SOL    HW175365   8.702  14.322  14.324
91197SOL    HW275366   8.829  14.332  14.406
91198SOL     OW75367   0.199   9.853   5.288
91198SOL    HW175368   0.200   9.945   5.260
91198SOL    HW275369   0.283   9.818   5.259
91199SOL     OW75370  11.150   8.665   8.394
91199SOL    HW175371  11.078   8.678   8.455
91199SOL    HW275372  11.117   8.696   8.310
91200SOL     OW75373   8.514   0.983  12.497
91200SOL    HW175374   8.601   1.023  12.497
91200SOL    HW275375   8.489   0.982  12.589
91201SOL     OW75376   4.807  10.360   8.849
91201SOL    HW175377   4.813  10.392   8.759
91201SOL    HW275378   4.753  10.425   8.894
91202SOL     OW75379   4.664  12.371  10.799
91202SOL    HW175380   4.596  12.432  10.770
91202SOL    HW275381   4.728  12.372  10.728
91203SOL     OW75382   3.390   9.992   0.090
91203SOL    HW175383   3.301  10.002   0.125
91203SOL    HW275384   3.385   9.916   0.033
91204SOL     OW75385   2.515   7.698   3.956
91204SOL    HW175386   2.451   7.718   3.889
91204SOL    HW275387   2.591   7.752   3.933
91205SOL     OW75388   1.331  10.780  11.975
91205SOL    HW175389   1.347  10.728  11.896
91205SOL    HW275390   1.380  10.734  12.044
91206SOL     OW75391  12.121   7.495   5.752
91206SOL    HW175392  12.145   7.481   5.660
91206SOL    HW275393  12.173   7.571   5.778
91207SOL     OW75394  12.729   7.968   4.227
91207SOL    HW175395  12.789   7.996   4.158
91207SOL    HW275396  12.735   8.037   4.294
91208SOL     OW75397   0.448   6.799   9.244
91208SOL    HW175398   0.466   6.711   9.211
91208SOL    HW275399   0.353   6.807   9.240
91209SOL     OW75400   7.114  14.174   5.510
91209SOL    HW175401   7.190  14.146   5.459
91209SOL    HW275402   7.143  14.252   5.556
91210SOL     OW75403  13.581   4.736   0.948
91210SOL    HW175404  13.674   4.751   0.931
91210SOL    HW275405  13.575   4.643   0.968
91211SOL     OW75406   8.680   3.433  11.642
91211SOL    HW175407   8.635   3.517  11.639
91211SOL    HW275408   8.741   3.435  11.568
91212SOL     OW75409   1.482  13.870   3.635
91212SOL    HW175410   1.431  13.941   3.674
91212SOL    HW275411   1.561  13.864   3.689
91213SOL     OW75412   0.245   0.264  12.121
91213SOL    HW175413   0.270   0.172  12.134
91213SOL    HW275414   0.284   0.287  12.037
91214SOL     OW75415   3.201   8.389   1.752
91214SOL    HW175416   3.208   8.294   1.749
91214SOL    HW275417   3.202   8.410   1.846
91215SOL     OW75418   2.080   0.657  12.812
91215SOL    HW175419   2.065   0.580  12.867
91215SOL    HW275420   2.147   0.707  12.859
91216SOL     OW75421   4.665   3.428  12.599
91216SOL    HW175422   4.704   3.428  12.687
91216SOL    HW275423   4.681   3.340  12.565
91217SOL     OW75424   4.418   0.654   6.420
91217SOL    HW175425   4.375   0.630   6.502
91217SOL    HW275426   4.511   0.665   6.444
91218SOL     OW75427   4.656   2.163  13.030
91218SOL    HW175428   4.598   2.119  12.967
91218SOL    HW275429   4.654   2.107  13.108
91219SOL     OW75430  13.448   6.762   3.085
91219SOL    HW175431  13.443   6.778   3.179
91219SOL    HW275432  13.450   6.850   3.047
91220SOL     OW75433  10.348   7.332   0.603
91220SOL    HW175434  10.409   7.261   0.584
91220SOL    HW275435  10.331   7.324   0.697
91221SOL     OW75436   5.094  13.219   1.918
91221SOL    HW175437   5.158  13.167   1.966
91221SOL    HW275438   5.028  13.243   1.984
91222SOL     OW75439  14.774   0.788  10.275
91222SOL    HW175440  14.865   0.815  10.278
91222SOL    HW275441  14.729   0.862  10.234
91223SOL     OW75442   2.671   6.058   3.215
91223SOL    HW175443   2.726   6.048   3.292
91223SOL    HW275444   2.648   5.969   3.189
91224SOL     OW75445   9.295  14.605   8.311
91224SOL    HW175446   9.212  14.570   8.343
91224SOL    HW275447   9.344  14.627   8.390
91225SOL     OW75448   7.428   3.439  13.526
91225SOL    HW175449   7.452   3.484  13.444
91225SOL    HW275450   7.386   3.507  13.579
91226SOL     OW75451   6.661   8.467   9.932
91226SOL    HW175452   6.653   8.378   9.964
91226SOL    HW275453   6.633   8.522  10.006
91227SOL     OW75454   9.813  13.543  12.340
91227SOL    HW175455   9.765  13.626  12.348
91227SOL    HW275456   9.901  13.564  12.373
91228SOL     OW75457   3.332   2.667  10.257
91228SOL    HW175458   3.272   2.618  10.312
91228SOL    HW275459   3.411   2.678  10.311
91229SOL     OW75460  11.619  13.318  12.772
91229SOL    HW175461  11.639  13.274  12.855
91229SOL    HW275462  11.613  13.411  12.795
91230SOL     OW75463   8.031   9.032  14.026
91230SOL    HW175464   7.938   9.024  14.008
91230SOL    HW275465   8.039   9.114  14.075
91231SOL     OW75466  10.973  13.161   9.573
91231SOL    HW175467  10.988  13.087   9.631
91231SOL    HW275468  10.882  13.187   9.588
91232SOL     OW75469   9.623   8.263  13.748
91232SOL    HW175470   9.688   8.327  13.777
91232SOL    HW275471   9.541   8.292  13.787
91233SOL     OW75472   7.984   6.675   1.250
91233SOL    HW175473   7.955   6.586   1.230
91233SOL    HW275474   8.045   6.665   1.323
91234SOL     OW75475  13.386   2.332   7.671
91234SOL    HW175476  13.420   2.250   7.706
91234SOL    HW275477  13.336   2.307   7.593
91235SOL     OW75478   5.785   6.598   6.083
91235SOL    HW175479   5.823   6.529   6.029
91235SOL    HW275480   5.713   6.554   6.130
91236SOL     OW75481  10.805   1.206   0.545
91236SOL    HW175482  10.843   1.144   0.482
91236SOL    HW275483  10.722   1.233   0.504
91237SOL     OW75484   5.494   1.154   4.001
91237SOL    HW175485   5.444   1.234   4.016
91237SOL    HW275486   5.541   1.169   3.919
91238SOL     OW75487   3.210  11.608   7.409
91238SOL    HW175488   3.274  11.622   7.339
91238SOL    HW275489   3.211  11.514   7.424
91239SOL     OW75490   0.762   5.532   9.838
91239SOL    HW175491   0.764   5.496   9.749
91239SOL    HW275492   0.838   5.492   9.881
91240SOL     OW75493   0.796   4.058   2.299
91240SOL    HW175494   0.734   4.059   2.226
91240SOL    HW275495   0.754   4.002   2.365
91241SOL     OW75496  11.564  12.476   8.937
91241SOL    HW175497  11.612  12.410   8.988
91241SOL    HW275498  11.487  12.495   8.990
91242SOL     OW75499  12.880  13.536  13.443
91242SOL    HW175500  12.951  13.509  13.385
91242SOL    HW275501  12.897  13.629  13.460
91243SOL     OW75502   6.103   4.871  14.239
91243SOL    HW175503   6.023   4.908  14.200
91243SOL    HW275504   6.087   4.877  14.334
91244SOL     OW75505   9.429   1.851   0.217
91244SOL    HW175506   9.387   1.771   0.184
91244SOL    HW275507   9.374   1.922   0.183
91245SOL     OW75508  12.645   4.465   6.661
91245SOL    HW175509  12.577   4.404   6.691
91245SOL    HW275510  12.676   4.427   6.579
91246SOL     OW75511   9.108   0.851  10.874
91246SOL    HW175512   9.144   0.904  10.944
91246SOL    HW275513   9.136   0.761  10.895
91247SOL     OW75514   7.360   0.960  12.272
91247SOL    HW175515   7.424   0.894  12.297
91247SOL    HW275516   7.316   0.922  12.195
91248SOL     OW75517  10.759   1.010   2.074
91248SOL    HW175518  10.734   0.918   2.078
91248SOL    HW275519  10.842   1.015   2.122
91249SOL     OW75520   7.665   0.646  13.153
91249SOL    HW175521   7.661   0.557  13.189
91249SOL    HW275522   7.611   0.642  13.074
91250SOL     OW75523  13.693   9.243   7.044
91250SOL    HW175524  13.628   9.192   6.996
91250SOL    HW275525  13.653   9.259   7.129
91251SOL     OW75526   9.025  11.889   6.929
91251SOL    HW175527   9.112  11.892   6.888
91251SOL    HW275528   8.990  11.803   6.904
91252SOL     OW75529   7.782   5.881   4.136
91252SOL    HW175530   7.806   5.834   4.057
91252SOL    HW275531   7.775   5.813   4.203
91253SOL     OW75532   7.108   0.096   0.305
91253SOL    HW175533   7.189   0.120   0.260
91253SOL    HW275534   7.106   0.001   0.303
91254SOL     OW75535   6.694   9.312  12.516
91254SOL    HW175536   6.710   9.276  12.603
91254SOL    HW275537   6.750   9.390  12.512
91255SOL     OW75538   0.234   3.152   4.200
91255SOL    HW175539   0.166   3.084   4.202
91255SOL    HW275540   0.214   3.204   4.122
91256SOL     OW75541   4.306   2.336   2.567
91256SOL    HW175542   4.287   2.277   2.639
91256SOL    HW275543   4.247   2.309   2.497
91257SOL     OW75544  11.421  10.726   1.872
91257SOL    HW175545  11.469  10.752   1.793
91257SOL    HW275546  11.395  10.809   1.912
91258SOL     OW75547   8.327   3.482   7.623
91258SOL    HW175548   8.366   3.564   7.594
91258SOL    HW275549   8.261   3.462   7.556
91259SOL     OW75550   3.939   6.995   4.902
91259SOL    HW175551   3.947   7.038   4.988
91259SOL    HW275552   3.940   6.902   4.922
91260SOL     OW75553   0.572   2.755  13.981
91260SOL    HW175554   0.479   2.747  13.999
91260SOL    HW275555   0.598   2.671  13.945
91261SOL     OW75556   4.988   2.962   4.976
91261SOL    HW175557   5.075   3.002   4.988
91261SOL    HW275558   4.937   2.995   5.051
91262SOL     OW75559   3.258   0.253   0.889
91262SOL    HW175560   3.252   0.236   0.795
91262SOL    HW275561   3.348   0.229   0.911
91263SOL     OW75562   8.333   2.996  10.861
91263SOL    HW175563   8.276   3.004  10.785
91263SOL    HW275564   8.422   3.005  10.826
91264SOL     OW75565   8.664   2.765  10.728
91264SOL    HW175566   8.718   2.843  10.736
91264SOL    HW275567   8.676   2.718  10.810
91265SOL     OW75568   7.251   0.608   8.109
91265SOL    HW175569   7.299   0.525   8.113
91265SOL    HW275570   7.315   0.671   8.075
91266SOL     OW75571  10.950   7.889   2.143
91266SOL    HW175572  10.887   7.872   2.214
91266SOL    HW275573  11.001   7.964   2.174
91267SOL     OW75574  11.520   5.985  11.008
91267SOL    HW175575  11.486   5.979  11.098
91267SOL    HW275576  11.598   5.929  11.008
91268SOL     OW75577   6.063   0.311   2.325
91268SOL    HW175578   5.967   0.306   2.315
91268SOL    HW275579   6.085   0.235   2.380
91269SOL     OW75580  11.227   7.370  11.964
91269SOL    HW175581  11.277   7.402  11.889
91269SOL    HW275582  11.136   7.372  11.935
91270SOL     OW75583   1.994   2.986   2.557
91270SOL    HW175584   1.934   2.933   2.609
91270SOL    HW275585   2.081   2.954   2.581
91271SOL     OW75586   5.690   7.641   9.561
91271SOL    HW175587   5.777   7.611   9.588
91271SOL    HW275588   5.706   7.697   9.485
91272SOL     OW75589   3.385  12.666  11.810
91272SOL    HW175590   3.357  12.717  11.886
91272SOL    HW275591   3.469  12.628  11.836
91273SOL     OW75592   2.892  14.139   3.043
91273SOL    HW175593   2.804  14.151   3.008
91273SOL    HW275594   2.883  14.155   3.137
91274SOL     OW75595   2.867   0.587  12.596
91274SOL    HW175596   2.892   0.501  12.631
91274SOL    HW275597   2.877   0.578  12.502
91275SOL     OW75598   2.305  11.205  13.410
91275SOL    HW175599   2.378  11.158  13.451
91275SOL    HW275600   2.268  11.142  13.347
91276SOL     OW75601   9.044  11.586   1.515
91276SOL    HW175602   8.984  11.661   1.519
91276SOL    HW275603   9.095  11.592   1.596
91277SOL     OW75604   9.119   6.156  13.280
91277SOL    HW175605   9.138   6.244  13.311
91277SOL    HW275606   9.035   6.134  13.320
91278SOL     OW75607   8.770  12.328   4.939
91278SOL    HW175608   8.809  12.246   4.969
91278SOL    HW275609   8.785  12.329   4.845
91279SOL     OW75610  12.722   4.043   6.548
91279SOL    HW175611  12.783   4.017   6.479
91279SOL    HW275612  12.771   4.029   6.629
91280SOL     OW75613   6.928   4.039   5.454
91280SOL    HW175614   6.974   4.075   5.378
91280SOL    HW275615   6.942   3.945   5.448
91281SOL     OW75616   5.838  13.940   0.630
91281SOL    HW175617   5.807  13.864   0.680
91281SOL    HW275618   5.759  13.993   0.615
91282SOL     OW75619  14.237   9.214   6.611
91282SOL    HW175620  14.260   9.250   6.526
91282SOL    HW275621  14.257   9.284   6.673
91283SOL     OW75622   4.089   2.140   3.639
91283SOL    HW175623   4.033   2.195   3.694
91283SOL    HW275624   4.029   2.099   3.577
91284SOL     OW75625  11.730   7.042  14.283
91284SOL    HW175626  11.753   6.970  14.341
91284SOL    HW275627  11.779   7.117  14.317
91285SOL     OW75628   4.694   9.371   4.566
91285SOL    HW175629   4.787   9.348   4.565
91285SOL    HW275630   4.650   9.287   4.579
91286SOL     OW75631   9.369   8.790   2.455
91286SOL    HW175632   9.294   8.846   2.437
91286SOL    HW275633   9.442   8.830   2.407
91287SOL     OW75634   2.254   4.445   0.128
91287SOL    HW175635   2.208   4.435   0.211
91287SOL    HW275636   2.187   4.476   0.067
91288SOL     OW75637   7.901  13.806   6.273
91288SOL    HW175638   7.950  13.750   6.213
91288SOL    HW275639   7.969  13.851   6.324
91289SOL     OW75640  12.800  10.884   6.556
91289SOL    HW175641  12.731  10.904   6.493
91289SOL    HW275642  12.757  10.888   6.642
91290SOL     OW75643  13.646   3.356   0.881
91290SOL    HW175644  13.710   3.425   0.899
91290SOL    HW275645  13.598   3.387   0.805
91291SOL     OW75646   0.850  12.403   7.357
91291SOL    HW175647   0.780  12.399   7.292
91291SOL    HW275648   0.807  12.387   7.441
91292SOL     OW75649  12.583   3.326   9.107
91292SOL    HW175650  12.561   3.250   9.052
91292SOL    HW275651  12.625   3.388   9.047
91293SOL     OW75652   7.906  11.593   7.006
91293SOL    HW175653   7.987  11.593   6.954
91293SOL    HW275654   7.887  11.500   7.020
91294SOL     OW75655  10.825  14.222  14.239
91294SOL    HW175656  10.834  14.274  14.159
91294SOL    HW275657  10.796  14.136  14.209
91295SOL     OW75658  14.235   7.017   5.980
91295SOL    HW175659  14.257   6.984   6.067
91295SOL    HW275660  14.264   7.108   5.981
91296SOL     OW75661   0.090   9.551   0.339
91296SOL    HW175662   0.141   9.532   0.261
91296SOL    HW275663   0.091   9.647   0.345
91297SOL     OW75664   1.822  13.414  12.789
91297SOL    HW175665   1.765  13.384  12.718
91297SOL    HW275666   1.767  13.469  12.843
91298SOL     OW75667   1.762   2.582   0.669
91298SOL    HW175668   1.668   2.583   0.650
91298SOL    HW275669   1.773   2.645   0.740
91299SOL     OW75670  10.731  13.434   3.305
91299SOL    HW175671  10.660  13.396   3.355
91299SOL    HW275672  10.743  13.374   3.231
91300SOL     OW75673   7.707  12.268   9.295
91300SOL    HW175674   7.773  12.221   9.346
91300SOL    HW275675   7.756  12.309   9.223
91301SOL     OW75676  10.642   8.533   9.025
91301SOL    HW175677  10.647   8.553   8.932
91301SOL    HW275678  10.616   8.440   9.029
91302SOL     OW75679   9.445   4.145   8.931
91302SOL    HW175680   9.540   4.137   8.938
91302SOL    HW275681   9.423   4.222   8.983
91303SOL     OW75682   8.067   1.511   6.581
91303SOL    HW175683   7.979   1.529   6.615
91303SOL    HW275684   8.075   1.416   6.582
91304SOL     OW75685  14.586   5.224   0.255
91304SOL    HW175686  14.670   5.193   0.221
91304SOL    HW275687  14.585   5.318   0.234
91305SOL     OW75688  11.628   3.180   1.287
91305SOL    HW175689  11.663   3.264   1.316
91305SOL    HW275690  11.534   3.187   1.301
91306SOL     OW75691   6.901  11.057   3.140
91306SOL    HW175692   6.904  11.143   3.183
91306SOL    HW275693   6.828  11.012   3.183
91307SOL     OW75694   4.034  11.398   8.939
91307SOL    HW175695   4.056  11.316   8.897
91307SOL    HW275696   4.002  11.454   8.868
91308SOL     OW75697  11.783  12.615  10.940
91308SOL    HW175698  11.844  12.599  11.012
91308SOL    HW275699  11.740  12.530  10.926
91309SOL     OW75700   1.321  14.795   2.643
91309SOL    HW175701   1.317  14.749   2.727
91309SOL    HW275702   1.230  14.819   2.624
91310SOL     OW75703  11.937   9.605  10.458
91310SOL    HW175704  11.901   9.628  10.373
91310SOL    HW275705  11.884   9.653  10.521
91311SOL     OW75706   6.670   1.485  12.895
91311SOL    HW175707   6.698   1.575  12.880
91311SOL    HW275708   6.617   1.463  12.818
91312SOL     OW75709   6.709   1.325   0.714
91312SOL    HW175710   6.620   1.321   0.679
91312SOL    HW275711   6.741   1.235   0.710
91313SOL     OW75712  11.646   5.663  14.036
91313SOL    HW175713  11.583   5.630  14.099
91313SOL    HW275714  11.708   5.592  14.024
91314SOL     OW75715   6.060   6.304   3.978
91314SOL    HW175716   5.970   6.319   4.010
91314SOL    HW275717   6.107   6.270   4.054
91315SOL     OW75718   2.590   1.081   2.286
91315SOL    HW175719   2.540   1.006   2.321
91315SOL    HW275720   2.649   1.105   2.356
91316SOL     OW75721   5.712   0.024   9.511
91316SOL    HW175722   5.763  14.848   9.572
91316SOL    HW275723   5.752   0.110   9.516
91317SOL     OW75724   0.777   4.002   9.688
91317SOL    HW175725   0.843   3.967   9.747
91317SOL    HW275726   0.786   3.952   9.607
91318SOL     OW75727   5.345   4.249   3.295
91318SOL    HW175728   5.254   4.224   3.282
91318SOL    HW275729   5.377   4.190   3.363
91319SOL     OW75730  11.927   0.300   6.591
91319SOL    HW175731  11.853   0.258   6.546
91319SOL    HW275732  11.893   0.324   6.677
91320SOL     OW75733   7.670   0.313   0.143
91320SOL    HW175734   7.693   0.275   0.228
91320SOL    HW275735   7.665   0.237   0.084
91321SOL     OW75736   5.671   3.374   8.012
91321SOL    HW175737   5.647   3.295   8.060
91321SOL    HW275738   5.720   3.427   8.075
91322SOL     OW75739  10.179   2.907  14.664
91322SOL    HW175740  10.271   2.932  14.671
91322SOL    HW275741  10.131   2.987  14.687
91323SOL     OW75742  13.393   0.033   8.467
91323SOL    HW175743  13.434   0.064   8.548
91323SOL    HW275744  13.307   0.075   8.466
91324SOL     OW75745   1.951  11.525   5.114
91324SOL    HW175746   2.036  11.556   5.085
91324SOL    HW275747   1.891  11.550   5.044
91325SOL     OW75748   0.059   2.937   6.004
91325SOL    HW175749   0.149   2.965   5.983
91325SOL    HW275750   0.064   2.842   6.007
91326SOL     OW75751   6.821   0.841  10.087
91326SOL    HW175752   6.852   0.755  10.058
91326SOL    HW275753   6.726   0.832  10.094
91327SOL     OW75754   6.439  14.495  14.064
91327SOL    HW175755   6.410  14.421  14.010
91327SOL    HW275756   6.508  14.458  14.120
91328SOL     OW75757   6.135   0.301   8.723
91328SOL    HW175758   6.127   0.317   8.629
91328SOL    HW275759   6.113   0.385   8.763
91329SOL     OW75760   9.224   9.518   1.658
91329SOL    HW175761   9.163   9.561   1.718
91329SOL    HW275762   9.176   9.442   1.625
91330SOL     OW75763  10.746   0.069  13.002
91330SOL    HW175764  10.747   0.129  13.077
91330SOL    HW275765  10.838   0.057  12.980
91331SOL     OW75766   6.068   2.602  14.861
91331SOL    HW175767   6.065   2.695   0.004
91331SOL    HW275768   5.979   2.581  14.832
91332SOL     OW75769   0.007   3.961  13.113
91332SOL    HW175770   0.041   3.872  13.126
91332SOL    HW275771   0.044   4.011  13.186
91333SOL     OW75772  11.398   8.552  11.098
91333SOL    HW175773  11.324   8.578  11.044
91333SOL    HW275774  11.471   8.606  11.067
91334SOL     OW75775   4.393  10.618   0.018
91334SOL    HW175776   4.359  10.692   0.069
91334SOL    HW275777   4.480  10.602   0.055
91335SOL     OW75778  14.654   3.790  13.564
91335SOL    HW175779  14.580   3.749  13.608
91335SOL    HW275780  14.619   3.873  13.531
91336SOL     OW75781   2.526  11.511   5.483
91336SOL    HW175782   2.565  11.483   5.566
91336SOL    HW275783   2.439  11.542   5.506
91337SOL     OW75784   8.844  12.058   4.944
91337SOL    HW175785   8.924  12.042   4.894
91337SOL    HW275786   8.784  11.988   4.917
91338SOL     OW75787   9.293  13.635  10.136
91338SOL    HW175788   9.278  13.683  10.055
91338SOL    HW275789   9.352  13.564  10.112
91339SOL     OW75790   9.384   0.804   6.890
91339SOL    HW175791   9.468   0.848   6.881
91339SOL    HW275792   9.372   0.759   6.807
91340SOL     OW75793  14.138  13.939   6.485
91340SOL    HW175794  14.087  13.888   6.423
91340SOL    HW275795  14.211  13.973   6.434
91341SOL     OW75796  12.852  13.073  14.819
91341SOL    HW175797  12.906  13.134  14.769
91341SOL    HW275798  12.902  13.056   0.021
91342SOL     OW75799   8.613   1.183   9.258
91342SOL    HW175800   8.569   1.241   9.320
91342SOL    HW275801   8.608   1.228   9.174
91343SOL     OW75802   5.766   1.699   3.702
91343SOL    HW175803   5.827   1.722   3.631
91343SOL    HW275804   5.692   1.659   3.657
91344SOL     OW75805   5.867   1.088   5.518
91344SOL    HW175806   5.833   1.172   5.549
91344SOL    HW275807   5.940   1.069   5.577
91345SOL     OW75808   2.172   8.869  12.144
91345SOL    HW175809   2.235   8.808  12.182
91345SOL    HW275810   2.093   8.857  12.195
91346SOL     OW75811  13.227   4.473   4.617
91346SOL    HW175812  13.314   4.454   4.583
91346SOL    HW275813  13.239   4.550   4.673
91347SOL     OW75814   6.786   8.522   5.703
91347SOL    HW175815   6.694   8.508   5.725
91347SOL    HW275816   6.805   8.456   5.637
91348SOL     OW75817   8.301   7.493   3.991
91348SOL    HW175818   8.375   7.436   3.967
91348SOL    HW275819   8.242   7.435   4.039
91349SOL     OW75820   3.030   6.224   0.858
91349SOL    HW175821   2.966   6.282   0.898
91349SOL    HW275822   3.071   6.276   0.789
91350SOL     OW75823   7.277   2.014   7.901
91350SOL    HW175824   7.275   1.931   7.949
91350SOL    HW275825   7.185   2.030   7.878
91351SOL     OW75826   1.414   2.061  12.140
91351SOL    HW175827   1.455   2.069  12.226
91351SOL    HW275828   1.343   2.125  12.142
91352SOL     OW75829   4.670  10.433   4.663
91352SOL    HW175830   4.596  10.420   4.724
91352SOL    HW275831   4.631  10.426   4.576
91353SOL     OW75832   8.035   7.031   2.206
91353SOL    HW175833   8.077   7.030   2.292
91353SOL    HW275834   8.042   7.122   2.177
91354SOL     OW75835   0.451  11.766   6.259
91354SOL    HW175836   0.466  11.672   6.263
91354SOL    HW275837   0.363  11.774   6.221
91355SOL     OW75838  14.605   1.814  14.079
91355SOL    HW175839  14.699   1.798  14.086
91355SOL    HW275840  14.583   1.867  14.156
91356SOL     OW75841  10.376   4.029   7.575
91356SOL    HW175842  10.428   4.029   7.655
91356SOL    HW275843  10.407   3.952   7.527
91357SOL     OW75844   5.005   2.435   1.130
91357SOL    HW175845   4.930   2.493   1.116
91357SOL    HW275846   5.031   2.409   1.041
91358SOL     OW75847  11.724  13.432   6.383
91358SOL    HW175848  11.703  13.520   6.413
91358SOL    HW275849  11.812  13.415   6.418
91359SOL     OW75850   7.534   1.064   9.337
91359SOL    HW175851   7.498   0.994   9.391
91359SOL    HW275852   7.489   1.143   9.366
91360SOL     OW75853  11.700   7.601   3.469
91360SOL    HW175854  11.774   7.545   3.491
91360SOL    HW275855  11.691   7.660   3.544
91361SOL     OW75856   9.222   5.859  11.193
91361SOL    HW175857   9.219   5.927  11.260
91361SOL    HW275858   9.191   5.902  11.113
91362SOL     OW75859   2.326  13.433  13.282
91362SOL    HW175860   2.340  13.399  13.194
91362SOL    HW275861   2.237  13.405  13.305
91363SOL     OW75862   0.604  10.065   9.480
91363SOL    HW175863   0.651   9.999   9.530
91363SOL    HW275864   0.538  10.099   9.540
91364SOL     OW75865   2.911   6.836   6.592
91364SOL    HW175866   2.845   6.822   6.659
91364SOL    HW275867   2.894   6.924   6.558
91365SOL     OW75868   0.878   1.574  13.988
91365SOL    HW175869   0.961   1.592  13.942
91365SOL    HW275870   0.894   1.491  14.033
91366SOL     OW75871   1.455  10.191   5.119
91366SOL    HW175872   1.441  10.237   5.202
91366SOL    HW275873   1.409  10.108   5.130
91367SOL     OW75874   7.373   7.104   7.983
91367SOL    HW175875   7.460   7.115   8.022
91367SOL    HW275876   7.337   7.027   8.027
91368SOL     OW75877   1.434  14.546  10.929
91368SOL    HW175878   1.420  14.462  10.972
91368SOL    HW275879   1.366  14.603  10.964
91369SOL     OW75880   6.237   4.684   1.753
91369SOL    HW175881   6.215   4.687   1.660
91369SOL    HW275882   6.214   4.595   1.780
91370SOL     OW75883  10.781   2.728   2.668
91370SOL    HW175884  10.854   2.778   2.705
91370SOL    HW275885  10.713   2.793   2.651
91371SOL     OW75886   6.026   0.134   2.642
91371SOL    HW175887   6.078   0.109   2.718
91371SOL    HW275888   6.057   0.075   2.572
91372SOL     OW75889   3.653   8.803  11.303
91372SOL    HW175890   3.559   8.810  11.286
91372SOL    HW275891   3.691   8.879  11.260
91373SOL     OW75892  14.292  10.935  11.667
91373SOL    HW175893  14.295  10.852  11.620
91373SOL    HW275894  14.372  10.980  11.639
91374SOL     OW75895  14.260   5.428   3.676
91374SOL    HW175896  14.218   5.355   3.720
91374SOL    HW275897  14.231   5.422   3.585
91375SOL     OW75898   3.034   3.280   7.912
91375SOL    HW175899   3.014   3.262   8.003
91375SOL    HW275900   3.080   3.363   7.913
91376SOL     OW75901   3.744   7.989   5.758
91376SOL    HW175902   3.819   7.978   5.817
91376SOL    HW275903   3.696   7.907   5.765
91377SOL     OW75904   8.329  14.843  11.700
91377SOL    HW175905   8.333  14.826  11.606
91377SOL    HW275906   8.421  14.850  11.727
91378SOL     OW75907  11.693  11.622   6.557
91378SOL    HW175908  11.762  11.558   6.576
91378SOL    HW275909  11.730  11.706   6.585
91379SOL     OW75910  14.342  14.571   6.746
91379SOL    HW175911  14.346  14.590   6.840
91379SOL    HW275912  14.248  14.571   6.726
91380SOL     OW75913  13.466   9.480   3.729
91380SOL    HW175914  13.448   9.573   3.715
91380SOL    HW275915  13.470   9.471   3.824
91381SOL     OW75916   6.442  10.453  14.675
91381SOL    HW175917   6.489  10.370  14.665
91381SOL    HW275918   6.485  10.512  14.613
91382SOL     OW75919   6.382   5.078   5.641
91382SOL    HW175920   6.357   5.052   5.552
91382SOL    HW275921   6.414   4.997   5.681
91383SOL     OW75922   3.738   8.259  10.666
91383SOL    HW175923   3.726   8.234  10.575
91383SOL    HW275924   3.683   8.337  10.677
91384SOL     OW75925  10.027   7.465   5.675
91384SOL    HW175926   9.993   7.405   5.742
91384SOL    HW275927  10.122   7.458   5.683
91385SOL     OW75928   3.688   9.134  14.823
91385SOL    HW175929   3.657   9.193  14.753
91385SOL    HW275930   3.649   9.170   0.025
91386SOL     OW75931   7.394   4.351   6.133
91386SOL    HW175932   7.408   4.411   6.060
91386SOL    HW275933   7.330   4.396   6.189
91387SOL     OW75934   3.392   1.770   8.519
91387SOL    HW175935   3.330   1.710   8.562
91387SOL    HW275936   3.336   1.835   8.476
91388SOL     OW75937  14.825  14.123   3.803
91388SOL    HW175938  14.853  14.033   3.786
91388SOL    HW275939   0.005  14.154   3.873
91389SOL     OW75940  12.200   3.175   3.131
91389SOL    HW175941  12.206   3.215   3.044
91389SOL    HW275942  12.107   3.161   3.144
91390SOL     OW75943  11.451  11.694   3.560
91390SOL    HW175944  11.538  11.658   3.579
91390SOL    HW275945  11.405  11.691   3.644
91391SOL     OW75946  13.998   5.877   8.820
91391SOL    HW175947  14.041   5.820   8.756
91391SOL    HW275948  14.009   5.832   8.903
91392SOL     OW75949   8.233  13.201  10.841
91392SOL    HW175950   8.247  13.292  10.816
91392SOL    HW275951   8.205  13.206  10.933
91393SOL     OW75952   5.644   3.331   9.716
91393SOL    HW175953   5.586   3.345   9.641
91393SOL    HW275954   5.713   3.273   9.682
91394SOL     OW75955  10.978   7.732  10.627
91394SOL    HW175956  10.892   7.697  10.601
91394SOL    HW275957  11.010   7.672  10.694
91395SOL     OW75958  13.329  13.173   3.896
91395SOL    HW175959  13.366  13.187   3.808
91395SOL    HW275960  13.399  13.130   3.945
91396SOL     OW75961   1.834  13.867   6.808
91396SOL    HW175962   1.779  13.879   6.731
91396SOL    HW275963   1.776  13.826   6.872
91397SOL     OW75964   4.109   1.671   8.295
91397SOL    HW175965   4.184   1.716   8.257
91397SOL    HW275966   4.037   1.734   8.288
91398SOL     OW75967   0.091   8.701   7.717
91398SOL    HW175968   0.015   8.694   7.775
91398SOL    HW275969   0.156   8.642   7.755
91399SOL     OW75970  11.174  11.946   0.273
91399SOL    HW175971  11.086  11.944   0.310
91399SOL    HW275972  11.222  12.008   0.329
91400SOL     OW75973   1.676   2.958   0.547
91400SOL    HW175974   1.643   2.932   0.462
91400SOL    HW275975   1.768   2.978   0.532
91401SOL     OW75976   7.609   6.812   7.725
91401SOL    HW175977   7.649   6.735   7.686
91401SOL    HW275978   7.666   6.885   7.698
91402SOL     OW75979   8.315  10.123   9.437
91402SOL    HW175980   8.365  10.101   9.516
91402SOL    HW275981   8.348  10.064   9.370
91403SOL     OW75982  11.777   7.187   9.675
91403SOL    HW175983  11.699   7.132   9.672
91403SOL    HW275984  11.835   7.144   9.736
91404SOL     OW75985  13.047   3.543  11.437
91404SOL    HW175986  13.093   3.580  11.512
91404SOL    HW275987  13.094   3.462  11.417
91405SOL     OW75988  14.223   1.075   4.844
91405SOL    HW175989  14.258   0.987   4.825
91405SOL    HW275990  14.177   1.064   4.927
91406SOL     OW75991   6.061   2.723  12.663
91406SOL    HW175992   6.028   2.758  12.580
91406SOL    HW275993   6.004   2.761  12.729
91407SOL     OW75994   7.891   0.626   4.451
91407SOL    HW175995   7.894   0.668   4.536
91407SOL    HW275996   7.968   0.570   4.448
91408SOL     OW75997  10.454   6.890  11.961
91408SOL    HW175998  10.519   6.831  11.999
91408SOL    HW275999  10.416   6.936  12.036
91409SOL     OW76000   2.462   2.907  13.868
91409SOL    HW176001   2.475   2.999  13.893
91409SOL    HW276002   2.517   2.858  13.929
91410SOL     OW76003   5.061  12.231   8.392
91410SOL    HW176004   5.028  12.149   8.356
91410SOL    HW276005   5.033  12.230   8.484
91411SOL     OW76006  12.436   7.805  14.108
91411SOL    HW176007  12.485   7.739  14.059
91411SOL    HW276008  12.392   7.857  14.040
91412SOL     OW76009   2.667   9.882  10.545
91412SOL    HW176010   2.587   9.856  10.499
91412SOL    HW276011   2.724   9.916  10.475
91413SOL     OW76012  14.676  12.292   7.619
91413SOL    HW176013  14.664  12.356   7.549
91413SOL    HW276014  14.588  12.262   7.640
91414SOL     OW76015   7.801  14.733   1.747
91414SOL    HW176016   7.875  14.735   1.686
91414SOL    HW276017   7.834  14.684   1.822
91415SOL     OW76018  14.498  14.674   5.432
91415SOL    HW176019  14.412  14.646   5.465
91415SOL    HW276020  14.505  14.634   5.345
91416SOL     OW76021   3.978   5.198   6.613
91416SOL    HW176022   4.030   5.158   6.683
91416SOL    HW276023   4.022   5.170   6.532
91417SOL     OW76024  12.422   1.736  14.372
91417SOL    HW176025  12.334   1.721  14.406
91417SOL    HW276026  12.464   1.650  14.378
91418SOL     OW76027  10.304   7.614   6.779
91418SOL    HW176028  10.339   7.579   6.697
91418SOL    HW276029  10.348   7.565   6.848
91419SOL     OW76030   2.224   5.456   9.278
91419SOL    HW176031   2.210   5.504   9.197
91419SOL    HW276032   2.176   5.374   9.266
91420SOL     OW76033   1.278   6.657   9.190
91420SOL    HW176034   1.225   6.583   9.158
91420SOL    HW276035   1.353   6.659   9.132
91421SOL     OW76036  11.224   1.769   0.012
91421SOL    HW176037  11.129   1.753   0.016
91421SOL    HW276038  11.252   1.767   0.103
91422SOL     OW76039   1.808  11.506  12.145
91422SOL    HW176040   1.859  11.426  12.156
91422SOL    HW276041   1.826  11.535  12.056
91423SOL     OW76042   9.277  14.606   9.829
91423SOL    HW176043   9.240  14.565   9.751
91423SOL    HW276044   9.201  14.624   9.885
91424SOL     OW76045  11.575   8.476   1.117
91424SOL    HW176046  11.551   8.463   1.025
91424SOL    HW276047  11.569   8.389   1.156
91425SOL     OW76048  10.011  12.173   7.241
91425SOL    HW176049   9.921  12.142   7.253
91425SOL    HW276050  10.002  12.248   7.183
91426SOL     OW76051  12.382   4.913   0.764
91426SOL    HW176052  12.428   4.979   0.712
91426SOL    HW276053  12.290   4.941   0.761
91427SOL     OW76054  13.415   3.292  14.466
91427SOL    HW176055  13.343   3.232  14.446
91427SOL    HW276056  13.493   3.237  14.462
91428SOL     OW76057   8.187   9.273   1.915
91428SOL    HW176058   8.172   9.339   1.847
91428SOL    HW276059   8.197   9.191   1.866
91429SOL     OW76060   0.035  13.120   5.661
91429SOL    HW176061  14.851  13.071   5.607
91429SOL    HW276062   0.024  13.211   5.632
91430SOL     OW76063  11.114   1.230   7.546
91430SOL    HW176064  11.208   1.241   7.540
91430SOL    HW276065  11.078   1.316   7.526
91431SOL     OW76066  11.059   0.974   2.708
91431SOL    HW176067  11.093   0.990   2.620
91431SOL    HW276068  10.967   1.000   2.703
91432SOL     OW76069   3.291   7.722  11.924
91432SOL    HW176070   3.317   7.720  11.832
91432SOL    HW276071   3.195   7.713  11.922
91433SOL     OW76072   0.655  13.961   4.935
91433SOL    HW176073   0.651  13.891   5.000
91433SOL    HW276074   0.564  13.987   4.922
91434SOL     OW76075   7.953  10.430  12.317
91434SOL    HW176076   7.908  10.455  12.397
91434SOL    HW276077   7.999  10.509  12.289
91435SOL     OW76078   4.342  12.401   7.389
91435SOL    HW176079   4.322  12.476   7.444
91435SOL    HW276080   4.262  12.385   7.339
91436SOL     OW76081   2.619   9.560   8.224
91436SOL    HW176082   2.588   9.642   8.187
91436SOL    HW276083   2.544   9.501   8.219
91437SOL     OW76084   3.371   7.865  10.475
91437SOL    HW176085   3.417   7.933  10.525
91437SOL    HW276086   3.433   7.793  10.470
91438SOL     OW76087   9.967   8.877  14.531
91438SOL    HW176088   9.937   8.845  14.446
91438SOL    HW276089  10.043   8.931  14.511
91439SOL     OW76090  13.671  10.805   2.732
91439SOL    HW176091  13.744  10.750   2.703
91439SOL    HW276092  13.601  10.744   2.752
91440SOL     OW76093  12.767  13.944   3.174
91440SOL    HW176094  12.824  13.988   3.237
91440SOL    HW276095  12.685  13.931   3.222
91441SOL     OW76096   1.067   7.805   9.139
91441SOL    HW176097   1.024   7.765   9.064
91441SOL    HW276098   0.998   7.812   9.206
91442SOL     OW76099   3.187   6.763  12.186
91442SOL    HW176100   3.257   6.799  12.242
91442SOL    HW276101   3.115   6.745  12.247
91443SOL     OW76102   9.226  12.644  10.088
91443SOL    HW176103   9.223  12.715  10.152
91443SOL    HW276104   9.141  12.647  10.044
91444SOL     OW76105   9.011   1.229   3.947
91444SOL    HW176106   8.984   1.302   3.892
91444SOL    HW276107   8.933   1.174   3.954
91445SOL     OW76108   7.818  14.549   3.827
91445SOL    HW176109   7.765  14.590   3.895
91445SOL    HW276110   7.859  14.623   3.782
91446SOL     OW76111   6.464   8.279   8.087
91446SOL    HW176112   6.374   8.303   8.109
91446SOL    HW276113   6.500   8.357   8.044
91447SOL     OW76114   1.208  12.620   1.006
91447SOL    HW176115   1.227  12.701   0.959
91447SOL    HW276116   1.281  12.611   1.068
91448SOL     OW76117   3.987   2.005  12.340
91448SOL    HW176118   3.969   1.917  12.307
91448SOL    HW276119   3.921   2.060  12.298
91449SOL     OW76120  13.733  13.522   6.475
91449SOL    HW176121  13.666  13.567   6.525
91449SOL    HW276122  13.730  13.431   6.505
91450SOL     OW76123  11.574   9.870  14.172
91450SOL    HW176124  11.563   9.911  14.086
91450SOL    HW276125  11.486   9.840  14.195
91451SOL     OW76126   2.319  13.070  13.355
91451SOL    HW176127   2.370  13.078  13.275
91451SOL    HW276128   2.237  13.029  13.328
91452SOL     OW76129  14.691   0.405   8.727
91452SOL    HW176130  14.649   0.394   8.642
91452SOL    HW276131  14.619   0.404   8.790
91453SOL     OW76132   6.476   1.609   9.783
91453SOL    HW176133   6.546   1.566   9.833
91453SOL    HW276134   6.502   1.701   9.780
91454SOL     OW76135  10.964  14.303   7.657
91454SOL    HW176136  10.949  14.301   7.562
91454SOL    HW276137  10.967  14.396   7.678
91455SOL     OW76138   5.233   3.313   9.761
91455SOL    HW176139   5.223   3.219   9.780
91455SOL    HW276140   5.167   3.356   9.816
91456SOL     OW76141   4.398  10.299   0.721
91456SOL    HW176142   4.319  10.244   0.728
91456SOL    HW276143   4.457  10.248   0.665
91457SOL     OW76144   4.200   7.687   1.059
91457SOL    HW176145   4.232   7.739   1.132
91457SOL    HW276146   4.221   7.739   0.981
91458SOL     OW76147   9.678   6.252   1.195
91458SOL    HW176148   9.663   6.295   1.279
91458SOL    HW276149   9.616   6.179   1.194
91459SOL     OW76150   9.895   9.050  13.275
91459SOL    HW176151   9.819   8.993  13.264
91459SOL    HW276152   9.963   8.992  13.311
91460SOL     OW76153   1.276  14.227  10.560
91460SOL    HW176154   1.284  14.316  10.524
91460SOL    HW276155   1.278  14.170  10.483
91461SOL     OW76156  11.959   1.471   4.304
91461SOL    HW176157  11.972   1.562   4.281
91461SOL    HW276158  12.047   1.435   4.314
91462SOL     OW76159   4.093   2.724   8.880
91462SOL    HW176160   4.004   2.731   8.914
91462SOL    HW276161   4.100   2.634   8.849
91463SOL     OW76162   9.808  13.332  10.072
91463SOL    HW176163   9.898  13.313  10.048
91463SOL    HW276164   9.755  13.292  10.002
91464SOL     OW76165   0.914   6.888   5.355
91464SOL    HW176166   0.946   6.934   5.277
91464SOL    HW276167   0.994   6.866   5.403
91465SOL     OW76168  10.888  11.950  13.203
91465SOL    HW176169  10.963  11.995  13.241
91465SOL    HW276170  10.924  11.902  13.128
91466SOL     OW76171   0.610   0.935   9.221
91466SOL    HW176172   0.703   0.955   9.208
91466SOL    HW276173   0.605   0.907   9.313
91467SOL     OW76174   9.303   0.095  10.428
91467SOL    HW176175   9.305  14.877  10.423
91467SOL    HW276176   9.216   0.118  10.394
91468SOL     OW76177   5.657  11.930   7.294
91468SOL    HW176178   5.728  11.867   7.288
91468SOL    HW276179   5.642  11.958   7.204
91469SOL     OW76180  13.752   3.793   2.652
91469SOL    HW176181  13.732   3.886   2.648
91469SOL    HW276182  13.729   3.768   2.742
91470SOL     OW76183   7.750  14.514  13.151
91470SOL    HW176184   7.829  14.530  13.203
91470SOL    HW276185   7.677  14.531  13.211
91471SOL     OW76186   9.852  10.908  11.557
91471SOL    HW176187   9.782  10.847  11.580
91471SOL    HW276188   9.903  10.917  11.638
91472SOL     OW76189   3.640   7.208   2.435
91472SOL    HW176190   3.725   7.167   2.417
91472SOL    HW276191   3.625   7.265   2.360
91473SOL     OW76192  13.961   6.795   6.870
91473SOL    HW176193  13.885   6.785   6.813
91473SOL    HW276194  13.925   6.825   6.953
91474SOL     OW76195   8.563   8.245   3.434
91474SOL    HW176196   8.492   8.283   3.486
91474SOL    HW276197   8.642   8.289   3.467
91475SOL     OW76198  14.240  10.183  14.235
91475SOL    HW176199  14.148  10.197  14.212
91475SOL    HW276200  14.277  10.138  14.159
91476SOL     OW76201   0.198   2.870   2.599
91476SOL    HW176202   0.131   2.908   2.542
91476SOL    HW276203   0.163   2.784   2.622
91477SOL     OW76204   4.154  10.746   9.076
91477SOL    HW176205   4.204  10.711   9.149
91477SOL    HW276206   4.179  10.691   9.001
91478SOL     OW76207   7.416   1.236  11.960
91478SOL    HW176208   7.508   1.209  11.959
91478SOL    HW276209   7.400   1.263  12.050
91479SOL     OW76210  11.923   1.333   9.764
91479SOL    HW176211  11.924   1.276   9.687
91479SOL    HW276212  11.947   1.276   9.837
91480SOL     OW76213   7.295  10.980   9.111
91480SOL    HW176214   7.202  10.971   9.132
91480SOL    HW276215   7.340  10.917   9.168
91481SOL     OW76216   9.549   2.757   8.375
91481SOL    HW176217   9.558   2.710   8.293
91481SOL    HW276218   9.628   2.810   8.382
91482SOL     OW76219   3.574  11.865   1.820
91482SOL    HW176220   3.494  11.915   1.805
91482SOL    HW276221   3.625  11.878   1.740
91483SOL     OW76222  14.630  14.647   7.081
91483SOL    HW176223  14.609  14.641   6.988
91483SOL    HW276224  14.721  14.678   7.082
91484SOL     OW76225  13.024  12.917   9.580
91484SOL    HW176226  13.062  12.908   9.668
91484SOL    HW276227  12.952  12.853   9.580
91485SOL     OW76228   1.378   5.809   2.859
91485SOL    HW176229   1.350   5.892   2.820
91485SOL    HW276230   1.334   5.742   2.807
91486SOL     OW76231   2.731   4.082  14.002
91486SOL    HW176232   2.640   4.055  14.016
91486SOL    HW276233   2.727   4.149  13.935
91487SOL     OW76234  12.581   8.405   1.070
91487SOL    HW176235  12.648   8.472   1.086
91487SOL    HW276236  12.607   8.331   1.124
91488SOL     OW76237   3.346  10.504   8.508
91488SOL    HW176238   3.426  10.512   8.455
91488SOL    HW276239   3.285  10.567   8.469
91489SOL     OW76240  12.534  13.874   5.060
91489SOL    HW176241  12.453  13.923   5.052
91489SOL    HW276242  12.590  13.929   5.116
91490SOL     OW76243  11.789   1.460   2.437
91490SOL    HW176244  11.776   1.548   2.474
91490SOL    HW276245  11.706   1.415   2.453
91491SOL     OW76246   0.022  14.057  12.152
91491SOL    HW176247   0.024  14.015  12.066
91491SOL    HW276248  14.816  14.031  12.189
91492SOL     OW76249  11.495   5.154  14.149
91492SOL    HW176250  11.434   5.081  14.156
91492SOL    HW276251  11.576   5.121  14.188
91493SOL     OW76252  12.025  14.608  14.560
91493SOL    HW176253  11.971  14.597  14.482
91493SOL    HW276254  12.017  14.701  14.582
91494SOL     OW76255   0.463   4.660   1.154
91494SOL    HW176256   0.378   4.702   1.169
91494SOL    HW276257   0.526   4.732   1.152
91495SOL     OW76258   1.179   3.259  11.909
91495SOL    HW176259   1.177   3.166  11.887
91495SOL    HW276260   1.144   3.303  11.831
91496SOL     OW76261   6.587   1.468   4.158
91496SOL    HW176262   6.568   1.495   4.248
91496SOL    HW276263   6.682   1.455   4.156
91497SOL     OW76264   8.655  11.196   8.665
91497SOL    HW176265   8.598  11.273   8.666
91497SOL    HW276266   8.612  11.134   8.607
91498SOL     OW76267   8.782   9.596   9.505
91498SOL    HW176268   8.818   9.524   9.454
91498SOL    HW276269   8.697   9.613   9.465
91499SOL     OW76270   0.176   3.236   3.513
91499SOL    HW176271   0.129   3.207   3.591
91499SOL    HW276272   0.123   3.308   3.478
91500SOL     OW76273  14.796   7.759  11.854
91500SOL    HW176274  14.809   7.731  11.764
91500SOL    HW276275  14.703   7.782  11.858
91501SOL     OW76276   7.953   2.402  10.624
91501SOL    HW176277   8.004   2.371  10.699
91501SOL    HW276278   8.018   2.430  10.560
91502SOL     OW76279  13.887   1.866   3.901
91502SOL    HW176280  13.886   1.886   3.995
91502SOL    HW276281  13.941   1.935   3.863
91503SOL     OW76282   8.629   4.997   3.590
91503SOL    HW176283   8.603   5.000   3.682
91503SOL    HW276284   8.548   5.009   3.542
91504SOL     OW76285   5.384  10.128   9.448
91504SOL    HW176286   5.398  10.097   9.358
91504SOL    HW276287   5.342  10.213   9.438
91505SOL     OW76288   3.725  11.343  12.177
91505SOL    HW176289   3.675  11.302  12.247
91505SOL    HW276290   3.733  11.274  12.111
91506SOL     OW76291   3.583  10.372   5.107
91506SOL    HW176292   3.532  10.300   5.143
91506SOL    HW276293   3.561  10.447   5.161
91507SOL     OW76294  12.538   8.303   9.559
91507SOL    HW176295  12.571   8.242   9.493
91507SOL    HW276296  12.451   8.327   9.528
91508SOL     OW76297   7.069   4.625   4.610
91508SOL    HW176298   7.060   4.558   4.542
91508SOL    HW276299   7.016   4.591   4.683
91509SOL     OW76300   3.642   3.383   8.001
91509SOL    HW176301   3.556   3.423   8.017
91509SOL    HW276302   3.627   3.289   8.008
91510SOL     OW76303   7.290  11.841   9.932
91510SOL    HW176304   7.315  11.749   9.933
91510SOL    HW276305   7.370  11.888   9.909
91511SOL     OW76306   7.803   4.291  13.942
91511SOL    HW176307   7.889   4.266  13.975
91511SOL    HW276308   7.804   4.263  13.850
91512SOL     OW76309   8.464   8.880  14.382
91512SOL    HW176310   8.493   8.867  14.472
91512SOL    HW276311   8.516   8.818  14.331
91513SOL     OW76312  12.159   4.917   8.484
91513SOL    HW176313  12.115   4.861   8.549
91513SOL    HW276314  12.090   4.976   8.453
91514SOL     OW76315   2.185   1.559  12.073
91514SOL    HW176316   2.154   1.641  12.112
91514SOL    HW276317   2.249   1.525  12.135
91515SOL     OW76318   9.603  10.102   4.387
91515SOL    HW176319   9.533  10.115   4.323
91515SOL    HW276320   9.588  10.014   4.421
91516SOL     OW76321  12.402   0.370   9.245
91516SOL    HW176322  12.307   0.365   9.250
91516SOL    HW276323  12.432   0.350   9.333
91517SOL     OW76324  10.974   2.540  11.650
91517SOL    HW176325  10.934   2.581  11.573
91517SOL    HW276326  10.962   2.446  11.636
91518SOL     OW76327   3.427   7.884   7.457
91518SOL    HW176328   3.522   7.895   7.464
91518SOL    HW276329   3.413   7.790   7.471
91519SOL     OW76330   0.696  11.718   4.588
91519SOL    HW176331   0.745  11.775   4.529
91519SOL    HW276332   0.606  11.752   4.584
91520SOL     OW76333  10.315   3.993  12.228
91520SOL    HW176334  10.220   4.002  12.237
91520SOL    HW276335  10.351   4.064  12.282
91521SOL     OW76336   4.453  12.629  14.090
91521SOL    HW176337   4.424  12.676  14.168
91521SOL    HW276338   4.392  12.656  14.021
91522SOL     OW76339   3.125   5.420  11.221
91522SOL    HW176340   3.054   5.401  11.282
91522SOL    HW276341   3.083   5.469  11.150
91523SOL     OW76342   2.064   6.136   3.251
91523SOL    HW176343   2.098   6.127   3.340
91523SOL    HW276344   1.969   6.143   3.263
91524SOL     OW76345   5.028   9.250   8.298
91524SOL    HW176346   4.981   9.234   8.381
91524SOL    HW276347   5.009   9.342   8.278
91525SOL     OW76348   5.149   7.758   2.199
91525SOL    HW176349   5.114   7.722   2.117
91525SOL    HW276350   5.244   7.751   2.189
91526SOL     OW76351   3.967   3.552   8.403
91526SOL    HW176352   3.910   3.522   8.475
91526SOL    HW276353   4.049   3.575   8.446
91527SOL     OW76354  11.770   6.622   9.588
91527SOL    HW176355  11.678   6.648   9.587
91527SOL    HW276356  11.769   6.531   9.618
91528SOL     OW76357   5.827  12.674  13.825
91528SOL    HW176358   5.745  12.723  13.822
91528SOL    HW276359   5.891  12.735  13.860
91529SOL     OW76360   5.659  13.579  13.641
91529SOL    HW176361   5.668  13.653  13.702
91529SOL    HW276362   5.619  13.510  13.694
91530SOL     OW76363   3.193   1.851  10.525
91530SOL    HW176364   3.281   1.837  10.559
91530SOL    HW276365   3.200   1.929  10.470
91531SOL     OW76366   6.346  13.567  12.203
91531SOL    HW176367   6.434  13.601  12.219
91531SOL    HW276368   6.320  13.606  12.119
91532SOL     OW76369   5.894   9.728   4.848
91532SOL    HW176370   5.873   9.795   4.783
91532SOL    HW276371   5.822   9.732   4.910
91533SOL     OW76372   1.559   6.161   7.998
91533SOL    HW176373   1.551   6.256   8.009
91533SOL    HW276374   1.644   6.149   7.956
91534SOL     OW76375   7.187   2.017  11.978
91534SOL    HW176376   7.169   2.028  11.885
91534SOL    HW276377   7.269   2.064  11.993
91535SOL     OW76378   8.656   4.175  12.317
91535SOL    HW176379   8.654   4.085  12.287
91535SOL    HW276380   8.739   4.210  12.284
91536SOL     OW76381   7.075  11.724  10.926
91536SOL    HW176382   7.063  11.685  10.840
91536SOL    HW276383   7.019  11.673  10.984
91537SOL     OW76384  14.223  10.646   6.808
91537SOL    HW176385  14.240  10.571   6.751
91537SOL    HW276386  14.144  10.622   6.857
91538SOL     OW76387   9.356   4.977   8.902
91538SOL    HW176388   9.420   5.036   8.863
91538SOL    HW276389   9.325   5.023   8.980
91539SOL     OW76390   4.625  10.064   5.151
91539SOL    HW176391   4.708  10.108   5.170
91539SOL    HW276392   4.580  10.060   5.235
91540SOL     OW76393   1.243   5.867  14.076
91540SOL    HW176394   1.287   5.845  13.994
91540SOL    HW276395   1.151   5.878  14.051
91541SOL     OW76396  10.550  14.750   1.797
91541SOL    HW176397  10.548  14.655   1.806
91541SOL    HW276398  10.492  14.782   1.866
91542SOL     OW76399   3.635   2.944  12.916
91542SOL    HW176400   3.615   2.887  12.990
91542SOL    HW276401   3.705   2.899  12.869
91543SOL     OW76402  10.840   7.904   4.655
91543SOL    HW176403  10.884   7.925   4.737
91543SOL    HW276404  10.850   7.982   4.601
91544SOL     OW76405   5.674   2.976   6.317
91544SOL    HW176406   5.695   2.887   6.345
91544SOL    HW276407   5.650   3.021   6.398
91545SOL     OW76408  11.926  14.444   0.478
91545SOL    HW176409  11.923  14.529   0.434
91545SOL    HW276410  12.017  14.436   0.508
91546SOL     OW76411   5.844   5.857  13.849
91546SOL    HW176412   5.939   5.863  13.858
91546SOL    HW276413   5.818   5.792  13.914
91547SOL     OW76414   7.352   2.629   7.781
91547SOL    HW176415   7.258   2.631   7.761
91547SOL    HW276416   7.379   2.721   7.776
91548SOL     OW76417  11.209   0.174   0.469
91548SOL    HW176418  11.278   0.238   0.449
91548SOL    HW276419  11.222   0.104   0.406
91549SOL     OW76420  10.895   1.266   7.340
91549SOL    HW176421  10.976   1.311   7.366
91549SOL    HW276422  10.917   1.173   7.346
91550SOL     OW76423  13.626   6.638   3.530
91550SOL    HW176424  13.611   6.689   3.610
91550SOL    HW276425  13.593   6.551   3.550
91551SOL     OW76426   5.854  14.715   1.233
91551SOL    HW176427   5.817  14.801   1.214
91551SOL    HW276428   5.827  14.660   1.159
91552SOL     OW76429  13.255  13.902   8.104
91552SOL    HW176430  13.307  13.905   8.184
91552SOL    HW276431  13.312  13.939   8.036
91553SOL     OW76432  14.108  13.653  13.365
91553SOL    HW176433  14.096  13.744  13.391
91553SOL    HW276434  14.146  13.610  13.442
91554SOL     OW76435  12.673   8.881   5.626
91554SOL    HW176436  12.639   8.932   5.700
91554SOL    HW276437  12.656   8.790   5.650
91555SOL     OW76438  11.052  13.988   7.831
91555SOL    HW176439  10.969  14.034   7.844
91555SOL    HW276440  11.035  13.899   7.861
91556SOL     OW76441  13.834   8.743   1.842
91556SOL    HW176442  13.752   8.731   1.891
91556SOL    HW276443  13.812   8.719   1.752
91557SOL     OW76444   7.897  14.310   2.911
91557SOL    HW176445   7.952  14.386   2.930
91557SOL    HW276446   7.846  14.335   2.835
91558SOL     OW76447   0.557   2.906   9.800
91558SOL    HW176448   0.513   2.853   9.733
91558SOL    HW276449   0.513   2.883   9.881
91559SOL     OW76450  10.115   8.312   5.176
91559SOL    HW176451  10.097   8.394   5.222
91559SOL    HW276452  10.041   8.256   5.197
91560SOL     OW76453  14.005   9.313  13.782
91560SOL    HW176454  14.007   9.237  13.723
91560SOL    HW276455  13.983   9.387  13.725
91561SOL     OW76456   1.448   0.149   6.944
91561SOL    HW176457   1.381   0.183   6.884
91561SOL    HW276458   1.518   0.214   6.941
91562SOL     OW76459   6.503   7.334  12.695
91562SOL    HW176460   6.464   7.302  12.776
91562SOL    HW276461   6.539   7.420  12.718
91563SOL     OW76462   2.769  13.574   4.310
91563SOL    HW176463   2.768  13.669   4.298
91563SOL    HW276464   2.735  13.539   4.228
91564SOL     OW76465  10.730   2.265  13.034
91564SOL    HW176466  10.749   2.247  13.126
91564SOL    HW276467  10.660   2.204  13.011
91565SOL     OW76468   7.208   3.639   6.146
91565SOL    HW176469   7.130   3.624   6.093
91565SOL    HW276470   7.187   3.718   6.197
91566SOL     OW76471   9.477   0.257   4.582
91566SOL    HW176472   9.487   0.351   4.597
91566SOL    HW276473   9.465   0.221   4.670
91567SOL     OW76474   1.787   7.290   6.386
91567SOL    HW176475   1.859   7.269   6.327
91567SOL    HW276476   1.784   7.386   6.387
91568SOL     OW76477   2.500  13.162   0.630
91568SOL    HW176478   2.429  13.223   0.611
91568SOL    HW276479   2.577  13.203   0.591
91569SOL     OW76480   5.113   0.816   2.285
91569SOL    HW176481   5.202   0.823   2.319
91569SOL    HW276482   5.081   0.732   2.318
91570SOL     OW76483   1.239   6.850   7.633
91570SOL    HW176484   1.235   6.827   7.540
91570SOL    HW276485   1.257   6.767   7.677
91571SOL     OW76486  12.248  14.695   6.113
91571SOL    HW176487  12.212  14.756   6.177
91571SOL    HW276488  12.265  14.749   6.035
91572SOL     OW76489  11.209   8.645  12.825
91572SOL    HW176490  11.253   8.717  12.869
91572SOL    HW276491  11.192   8.678  12.737
91573SOL     OW76492   6.859   0.949   7.047
91573SOL    HW176493   6.771   0.985   7.036
91573SOL    HW276494   6.908   0.979   6.970
91574SOL     OW76495  11.438   8.396   7.626
91574SOL    HW176496  11.510   8.365   7.680
91574SOL    HW276497  11.386   8.452   7.685
91575SOL     OW76498   8.773  12.338  10.831
91575SOL    HW176499   8.847  12.281  10.849
91575SOL    HW276500   8.811  12.426  10.828
91576SOL     OW76501   9.026   4.546   9.375
91576SOL    HW176502   9.121   4.538   9.384
91576SOL    HW276503   8.995   4.455   9.374
91577SOL     OW76504   4.983   6.728  10.498
91577SOL    HW176505   4.921   6.682  10.442
91577SOL    HW276506   5.004   6.666  10.567
91578SOL     OW76507  11.662   8.906   3.459
91578SOL    HW176508  11.748   8.925   3.420
91578SOL    HW276509  11.599   8.946   3.399
91579SOL     OW76510  13.808   6.806  12.905
91579SOL    HW176511  13.750   6.854  12.846
91579SOL    HW276512  13.834   6.870  12.971
91580SOL     OW76513   8.256   1.644   8.209
91580SOL    HW176514   8.285   1.574   8.268
91580SOL    HW276515   8.310   1.632   8.131
91581SOL     OW76516   3.078   2.812  14.760
91581SOL    HW176517   3.079   2.836  14.668
91581SOL    HW276518   2.984   2.804  14.781
91582SOL     OW76519  11.411  13.138  12.319
91582SOL    HW176520  11.471  13.190  12.373
91582SOL    HW276521  11.327  13.182  12.328
91583SOL     OW76522   6.480   2.093   0.970
91583SOL    HW176523   6.566   2.101   0.929
91583SOL    HW276524   6.448   2.007   0.941
91584SOL     OW76525  12.114   4.033   7.323
91584SOL    HW176526  12.114   4.071   7.235
91584SOL    HW276527  12.040   4.076   7.367
91585SOL     OW76528   5.454   8.381   8.351
91585SOL    HW176529   5.377   8.385   8.295
91585SOL    HW276530   5.507   8.457   8.326
91586SOL     OW76531   4.593  10.415  13.255
91586SOL    HW176532   4.683  10.426  13.225
91586SOL    HW276533   4.597  10.422  13.350
91587SOL     OW76534  10.037   3.167  14.429
91587SOL    HW176535  10.071   3.249  14.466
91587SOL    HW276536   9.950   3.158  14.467
91588SOL     OW76537   5.201   6.673   9.230
91588SOL    HW176538   5.221   6.733   9.158
91588SOL    HW276539   5.211   6.586   9.192
91589SOL     OW76540  14.859   3.024   5.574
91589SOL    HW176541   0.027   2.941   5.577
91589SOL    HW276542  14.820   3.028   5.486
91590SOL     OW76543   4.298   3.613  10.883
91590SOL    HW176544   4.268   3.690  10.835
91590SOL    HW276545   4.274   3.631  10.974
91591SOL     OW76546  14.275   5.368  13.190
91591SOL    HW176547  14.198   5.348  13.136
91591SOL    HW276548  14.348   5.328  13.143
91592SOL     OW76549  12.732   3.670  13.979
91592SOL    HW176550  12.644   3.648  13.949
91592SOL    HW276551  12.732   3.647  14.072
91593SOL     OW76552   4.929   7.971   8.892
91593SOL    HW176553   5.023   7.967   8.909
91593SOL    HW276554   4.897   8.039   8.951
91594SOL     OW76555  12.723  12.184  10.519
91594SOL    HW176556  12.701  12.115  10.457
91594SOL    HW276557  12.774  12.141  10.587
91595SOL     OW76558   0.067   2.722  12.164
91595SOL    HW176559   0.113   2.792  12.210
91595SOL    HW276560  14.854   2.729  12.194
91596SOL     OW76561   1.227   7.339  13.867
91596SOL    HW176562   1.215   7.256  13.820
91596SOL    HW276563   1.223   7.315  13.960
91597SOL     OW76564   3.475   1.408  11.077
91597SOL    HW176565   3.406   1.369  11.132
91597SOL    HW276566   3.455   1.377  10.989
91598SOL     OW76567   7.281   9.178   9.179
91598SOL    HW176568   7.298   9.244   9.112
91598SOL    HW276569   7.311   9.219   9.260
91599SOL     OW76570  14.560   5.485  10.810
91599SOL    HW176571  14.618   5.536  10.868
91599SOL    HW276572  14.485   5.543  10.795
91600SOL     OW76573   9.694   6.267   9.222
91600SOL    HW176574   9.729   6.213   9.150
91600SOL    HW276575   9.677   6.352   9.181
91601SOL     OW76576   7.669  11.803   6.432
91601SOL    HW176577   7.624  11.849   6.360
91601SOL    HW276578   7.746  11.763   6.391
91602SOL     OW76579   8.329   3.549   5.174
91602SOL    HW176580   8.407   3.496   5.161
91602SOL    HW276581   8.362   3.633   5.206
91603SOL     OW76582   3.726  10.265   3.087
91603SOL    HW176583   3.731  10.334   3.020
91603SOL    HW276584   3.652  10.211   3.060
91604SOL     OW76585   7.911   0.495   0.052
91604SOL    HW176586   7.958   0.530   0.128
91604SOL    HW276587   7.854   0.427   0.089
91605SOL     OW76588   9.460  13.779   0.856
91605SOL    HW176589   9.451  13.874   0.865
91605SOL    HW276590   9.506  13.751   0.935
91606SOL     OW76591  14.733  13.369   6.801
91606SOL    HW176592  14.654  13.415   6.772
91606SOL    HW276593  14.805  13.424   6.770
91607SOL     OW76594   4.182   4.627   1.627
91607SOL    HW176595   4.253   4.645   1.689
91607SOL    HW276596   4.168   4.533   1.634
91608SOL     OW76597   6.977   8.125  14.307
91608SOL    HW176598   6.970   8.060  14.377
91608SOL    HW276599   6.957   8.208  14.348
91609SOL     OW76600  12.048  10.941   4.181
91609SOL    HW176601  12.122  10.993   4.210
91609SOL    HW276602  11.986  11.005   4.146
91610SOL     OW76603   8.415   8.357  14.010
91610SOL    HW176604   8.382   8.438  14.049
91610SOL    HW276605   8.337   8.302  13.999
91611SOL     OW76606   2.520   4.425  11.452
91611SOL    HW176607   2.439   4.467  11.423
91611SOL    HW276608   2.577   4.426  11.375
91612SOL     OW76609   3.396   8.429   3.837
91612SOL    HW176610   3.349   8.492   3.891
91612SOL    HW276611   3.481   8.418   3.881
91613SOL     OW76612   3.853   4.288   9.034
91613SOL    HW176613   3.874   4.377   9.005
91613SOL    HW276614   3.762   4.275   9.009
91614SOL     OW76615   5.111   8.243   6.878
91614SOL    HW176616   5.113   8.279   6.967
91614SOL    HW276617   5.029   8.274   6.841
91615SOL     OW76618  12.312   9.397  12.804
91615SOL    HW176619  12.314   9.481  12.849
91615SOL    HW276620  12.267   9.338  12.864
91616SOL     OW76621  13.929  13.566   8.477
91616SOL    HW176622  13.951  13.503   8.409
91616SOL    HW276623  13.898  13.643   8.430
91617SOL     OW76624   3.774  11.661   2.716
91617SOL    HW176625   3.804  11.751   2.725
91617SOL    HW276626   3.679  11.668   2.702
91618SOL     OW76627   6.610   8.649  10.595
91618SOL    HW176628   6.614   8.582  10.527
91618SOL    HW276629   6.685   8.706  10.577
91619SOL     OW76630   7.978   0.218  13.308
91619SOL    HW176631   8.033   0.259  13.374
91619SOL    HW276632   7.891   0.213  13.348
91620SOL     OW76633  12.783  14.317   1.320
91620SOL    HW176634  12.795  14.412   1.325
91620SOL    HW276635  12.871  14.282   1.308
91621SOL     OW76636   5.884   5.356  10.323
91621SOL    HW176637   5.932   5.304  10.388
91621SOL    HW276638   5.950   5.379  10.257
91622SOL     OW76639   7.722  13.936   7.306
91622SOL    HW176640   7.669  13.857   7.318
91622SOL    HW276641   7.813  13.904   7.308
91623SOL     OW76642  11.551  13.895   4.307
91623SOL    HW176643  11.550  13.805   4.340
91623SOL    HW276644  11.594  13.945   4.376
91624SOL     OW76645  10.919   1.440   2.321
91624SOL    HW176646  10.922   1.455   2.415
91624SOL    HW276647  11.011   1.448   2.293
91625SOL     OW76648  14.005   1.558   3.689
91625SOL    HW176649  14.043   1.486   3.639
91625SOL    HW276650  13.966   1.615   3.623
91626SOL     OW76651   2.248  11.378   0.140
91626SOL    HW176652   2.306  11.453   0.155
91626SOL    HW276653   2.267  11.318   0.212
91627SOL     OW76654  13.298  12.586   8.164
91627SOL    HW176655  13.258  12.670   8.141
91627SOL    HW276656  13.361  12.607   8.233
91628SOL     OW76657  14.015   8.970   7.108
91628SOL    HW176658  13.923   8.941   7.109
91628SOL    HW276659  14.010   9.065   7.094
91629SOL     OW76660   9.816  10.699   0.006
91629SOL    HW176661   9.887  10.728  14.827
91629SOL    HW276662   9.777  10.624  14.837
91630SOL     OW76663   4.863  11.467   7.565
91630SOL    HW176664   4.831  11.419   7.488
91630SOL    HW276665   4.919  11.405   7.611
91631SOL     OW76666  12.463   4.874  12.283
91631SOL    HW176667  12.455   4.781  12.305
91631SOL    HW276668  12.374   4.899  12.255
91632SOL     OW76669  14.159  12.495  12.809
91632SOL    HW176670  14.248  12.525  12.829
91632SOL    HW276671  14.170  12.417  12.756
91633SOL     OW76672   9.147   3.398  11.707
91633SOL    HW176673   9.096   3.329  11.749
91633SOL    HW276674   9.139   3.473  11.766
91634SOL     OW76675   7.756   2.790  12.587
91634SOL    HW176676   7.764   2.880  12.557
91634SOL    HW276677   7.769   2.737  12.509
91635SOL     OW76678   2.644  12.001   7.020
91635SOL    HW176679   2.709  12.038   6.961
91635SOL    HW276680   2.571  11.976   6.963
91636SOL     OW76681   1.338   6.287  14.384
91636SOL    HW176682   1.252   6.330  14.383
91636SOL    HW276683   1.331   6.217  14.318
91637SOL     OW76684  10.048  10.439   1.968
91637SOL    HW176685  10.052  10.517   1.913
91637SOL    HW276686  10.130  10.440   2.017
91638SOL     OW76687   9.526  10.151   9.973
91638SOL    HW176688   9.533  10.211  10.048
91638SOL    HW276689   9.616  10.125   9.955
91639SOL     OW76690   5.996   7.116   4.138
91639SOL    HW176691   6.037   7.199   4.114
91639SOL    HW276692   5.902   7.131   4.129
91640SOL     OW76693  10.276  10.085  13.786
91640SOL    HW176694  10.310  10.007  13.829
91640SOL    HW276695  10.351  10.122  13.740
91641SOL     OW76696  13.878   0.649  12.593
91641SOL    HW176697  13.947   0.583  12.586
91641SOL    HW276698  13.892   0.707  12.518
91642SOL     OW76699   5.391   2.470  13.396
91642SOL    HW176700   5.396   2.533  13.467
91642SOL    HW276701   5.455   2.500  13.331
91643SOL     OW76702   0.599   3.355   1.752
91643SOL    HW176703   0.666   3.423   1.747
91643SOL    HW276704   0.646   3.273   1.737
91644SOL     OW76705   0.517   2.013   2.291
91644SOL    HW176706   0.445   1.983   2.347
91644SOL    HW276707   0.546   1.934   2.245
91645SOL     OW76708   1.271   5.454   6.613
91645SOL    HW176709   1.327   5.490   6.545
91645SOL    HW276710   1.183   5.483   6.588
91646SOL     OW76711   3.487   0.987   5.127
91646SOL    HW176712   3.475   1.044   5.203
91646SOL    HW276713   3.417   0.922   5.134
91647SOL     OW76714   7.715   8.252  13.060
91647SOL    HW176715   7.680   8.233  13.147
91647SOL    HW276716   7.637   8.257  13.004
91648SOL     OW76717  13.901   8.699   0.860
91648SOL    HW176718  13.996   8.699   0.850
91648SOL    HW276719  13.876   8.791   0.847
91649SOL     OW76720   9.485  10.037   8.306
91649SOL    HW176721   9.470  10.127   8.332
91649SOL    HW276722   9.575  10.035   8.273
91650SOL     OW76723  10.174  10.448   0.246
91650SOL    HW176724  10.147  10.491   0.328
91650SOL    HW276725  10.093  10.433   0.199
91651SOL     OW76726  10.111   3.995   9.643
91651SOL    HW176727  10.162   3.986   9.723
91651SOL    HW276728  10.020   3.987   9.670
91652SOL     OW76729  13.848   1.126  10.439
91652SOL    HW176730  13.908   1.141  10.366
91652SOL    HW276731  13.770   1.088  10.399
91653SOL     OW76732  13.396   6.509   4.524
91653SOL    HW176733  13.357   6.433   4.481
91653SOL    HW276734  13.449   6.550   4.455
91654SOL     OW76735   1.575   4.185   0.996
91654SOL    HW176736   1.603   4.216   0.909
91654SOL    HW276737   1.644   4.214   1.055
91655SOL     OW76738  11.603   2.424  12.579
91655SOL    HW176739  11.575   2.343  12.537
91655SOL    HW276740  11.693   2.408  12.606
91656SOL     OW76741   6.686   4.420  10.965
91656SOL    HW176742   6.616   4.355  10.957
91656SOL    HW276743   6.692   4.437  11.059
91657SOL     OW76744   7.296   7.792   2.888
91657SOL    HW176745   7.251   7.754   2.964
91657SOL    HW276746   7.227   7.798   2.822
91658SOL     OW76747   8.912   4.318   8.870
91658SOL    HW176748   8.992   4.267   8.863
91658SOL    HW276749   8.937   4.406   8.845
91659SOL     OW76750   8.170  13.795  11.269
91659SOL    HW176751   8.139  13.764  11.184
91659SOL    HW276752   8.108  13.759  11.332
91660SOL     OW76753  14.747  11.238  13.263
91660SOL    HW176754  14.831  11.256  13.305
91660SOL    HW276755  14.682  11.262  13.329
91661SOL     OW76756  11.241   8.322  14.678
91661SOL    HW176757  11.243   8.387  14.749
91661SOL    HW276758  11.157   8.336  14.634
91662SOL     OW76759   1.835   7.061   3.952
91662SOL    HW176760   1.901   7.131   3.949
91662SOL    HW276761   1.824   7.034   3.861
91663SOL     OW76762   0.501  11.403   2.327
91663SOL    HW176763   0.580  11.419   2.378
91663SOL    HW276764   0.505  11.467   2.255
91664SOL     OW76765   9.505  10.909   3.004
91664SOL    HW176766   9.437  10.975   2.985
91664SOL    HW276767   9.500  10.896   3.099
91665SOL     OW76768   6.405   2.188   5.659
91665SOL    HW176769   6.335   2.210   5.720
91665SOL    HW276770   6.412   2.265   5.603
91666SOL     OW76771   3.213   0.063   3.283
91666SOL    HW176772   3.169  14.869   3.328
91666SOL    HW276773   3.281   0.020   3.231
91667SOL     OW76774   6.764  11.498  10.774
91667SOL    HW176775   6.725  11.584  10.761
91667SOL    HW276776   6.768  11.488  10.869
91668SOL     OW76777   5.605   7.601  14.614
91668SOL    HW176778   5.514   7.606  14.586
91668SOL    HW276779   5.601   7.572  14.705
91669SOL     OW76780  12.470   7.045   2.300
91669SOL    HW176781  12.391   7.016   2.346
91669SOL    HW276782  12.500   6.967   2.253
91670SOL     OW76783  13.664   0.150   9.030
91670SOL    HW176784  13.743   0.096   9.034
91670SOL    HW276785  13.613   0.112   8.958
91671SOL     OW76786   0.832  10.818   8.525
91671SOL    HW176787   0.830  10.736   8.476
91671SOL    HW276788   0.851  10.885   8.459
91672SOL     OW76789   2.911   0.667   5.916
91672SOL    HW176790   2.978   0.613   5.958
91672SOL    HW276791   2.959   0.727   5.859
91673SOL     OW76792   8.694  10.980   5.680
91673SOL    HW176793   8.769  11.010   5.731
91673SOL    HW276794   8.627  10.960   5.745
91674SOL     OW76795  11.490  14.178   8.703
91674SOL    HW176796  11.503  14.273   8.700
91674SOL    HW276797  11.396  14.167   8.696
91675SOL     OW76798   6.992   9.831  13.104
91675SOL    HW176799   7.069   9.776  13.111
91675SOL    HW276800   6.918   9.770  13.101
91676SOL     OW76801  11.028   6.006  11.342
91676SOL    HW176802  10.991   6.086  11.378
91676SOL    HW276803  10.977   5.936  11.383
91677SOL     OW76804   9.200   7.924  11.529
91677SOL    HW176805   9.170   8.014  11.516
91677SOL    HW276806   9.134   7.885  11.586
91678SOL     OW76807   7.311   0.480  13.430
91678SOL    HW176808   7.355   0.522  13.357
91678SOL    HW276809   7.361   0.507  13.507
91679SOL     OW76810   0.734   3.796  11.323
91679SOL    HW176811   0.692   3.801  11.237
91679SOL    HW276812   0.714   3.708  11.354
91680SOL     OW76813   8.531   6.193  14.459
91680SOL    HW176814   8.555   6.233  14.543
91680SOL    HW276815   8.504   6.104  14.481
91681SOL     OW76816   4.278   6.672   1.847
91681SOL    HW176817   4.358   6.632   1.813
91681SOL    HW276818   4.230   6.701   1.770
91682SOL     OW76819  12.002   2.361   9.710
91682SOL    HW176820  12.048   2.395   9.632
91682SOL    HW276821  11.992   2.438   9.767
91683SOL     OW76822  13.342  13.798  13.001
91683SOL    HW176823  13.278  13.853  13.046
91683SOL    HW276824  13.412  13.785  13.065
91684SOL     OW76825   3.850   9.676  13.584
91684SOL    HW176826   3.944   9.680  13.600
91684SOL    HW276827   3.841   9.609  13.516
91685SOL     OW76828   3.814   1.963  13.669
91685SOL    HW176829   3.887   2.007  13.626
91685SOL    HW276830   3.821   1.988  13.761
91686SOL     OW76831   0.607   6.095   7.248
91686SOL    HW176832   0.520   6.085   7.287
91686SOL    HW276833   0.636   6.006   7.230
91687SOL     OW76834  11.306   3.652   2.131
91687SOL    HW176835  11.365   3.581   2.107
91687SOL    HW276836  11.363   3.722   2.162
91688SOL     OW76837  12.958   6.963  11.919
91688SOL    HW176838  13.026   6.908  11.959
91688SOL    HW276839  12.951   6.930  11.830
91689SOL     OW76840   4.645   6.176   1.256
91689SOL    HW176841   4.658   6.094   1.210
91689SOL    HW276842   4.720   6.183   1.315
91690SOL     OW76843   7.046   6.265   9.756
91690SOL    HW176844   6.976   6.214   9.717
91690SOL    HW276845   7.018   6.279   9.847
91691SOL     OW76846  10.926   4.099   4.892
91691SOL    HW176847  10.900   4.168   4.953
91691SOL    HW276848  10.929   4.020   4.946
91692SOL     OW76849  13.824  12.981   5.960
91692SOL    HW176850  13.751  13.037   5.986
91692SOL    HW276851  13.785  12.916   5.902
91693SOL     OW76852   5.279  14.673  12.383
91693SOL    HW176853   5.293  14.638  12.295
91693SOL    HW276854   5.353  14.731  12.398
91694SOL     OW76855  14.081   1.276  13.097
91694SOL    HW176856  14.160   1.318  13.062
91694SOL    HW276857  14.009   1.316  13.049
91695SOL     OW76858   5.564   8.489   4.681
91695SOL    HW176859   5.607   8.493   4.767
91695SOL    HW276860   5.586   8.401   4.649
91696SOL     OW76861   4.227   2.721   0.029
91696SOL    HW176862   4.150   2.693   0.078
91696SOL    HW276863   4.244   2.650  14.845
91697SOL     OW76864  11.132   1.830   1.068
91697SOL    HW176865  11.081   1.865   0.994
91697SOL    HW276866  11.106   1.885   1.143
91698SOL     OW76867   2.194   9.609   8.424
91698SOL    HW176868   2.104   9.610   8.392
91698SOL    HW276869   2.192   9.550   8.499
91699SOL     OW76870   9.359   9.871   3.284
91699SOL    HW176871   9.269   9.901   3.296
91699SOL    HW276872   9.413   9.947   3.307
91700SOL     OW76873   4.314   7.112  11.676
91700SOL    HW176874   4.392   7.069  11.712
91700SOL    HW276875   4.279   7.049  11.613
91701SOL     OW76876   0.523   2.506   4.682
91701SOL    HW176877   0.537   2.574   4.616
91701SOL    HW276878   0.430   2.513   4.705
91702SOL     OW76879   7.830   1.971  13.792
91702SOL    HW176880   7.884   2.034  13.840
91702SOL    HW276881   7.814   2.012  13.707
91703SOL     OW76882   4.549   3.799  10.884
91703SOL    HW176883   4.582   3.733  10.822
91703SOL    HW276884   4.460   3.818  10.853
91704SOL     OW76885   7.220   9.915  12.237
91704SOL    HW176886   7.252   9.836  12.193
91704SOL    HW276887   7.212   9.979  12.167
91705SOL     OW76888   5.913   4.904   2.627
91705SOL    HW176889   5.967   4.934   2.554
91705SOL    HW276890   5.845   4.971   2.635
91706SOL     OW76891   3.693   9.848  11.357
91706SOL    HW176892   3.654   9.767  11.324
91706SOL    HW276893   3.787   9.829  11.361
91707SOL     OW76894   2.558  14.182  11.414
91707SOL    HW176895   2.505  14.219  11.484
91707SOL    HW276896   2.600  14.106  11.454
91708SOL     OW76897   3.845   9.288  11.588
91708SOL    HW176898   3.878   9.225  11.652
91708SOL    HW276899   3.750   9.290  11.602
91709SOL     OW76900  12.964  12.511   4.329
91709SOL    HW176901  12.888  12.477   4.377
91709SOL    HW276902  13.008  12.433   4.297
91710SOL     OW76903   6.984  11.997  10.255
91710SOL    HW176904   7.022  11.946  10.184
91710SOL    HW276905   6.990  12.088  10.226
91711SOL     OW76906   7.121   7.402   6.740
91711SOL    HW176907   7.195   7.396   6.800
91711SOL    HW276908   7.158   7.441   6.660
91712SOL     OW76909   8.444   5.867   1.786
91712SOL    HW176910   8.515   5.847   1.724
91712SOL    HW276911   8.364   5.852   1.736
91713SOL     OW76912  10.983  10.310  11.631
91713SOL    HW176913  10.921  10.238  11.643
91713SOL    HW276914  11.039  10.281  11.559
91714SOL     OW76915   3.956  11.997  12.264
91714SOL    HW176916   3.917  11.937  12.200
91714SOL    HW276917   3.981  11.941  12.338
91715SOL     OW76918   6.992   1.999   6.966
91715SOL    HW176919   7.061   2.029   6.906
91715SOL    HW276920   6.912   2.038   6.932
91716SOL     OW76921  13.671  14.576   1.010
91716SOL    HW176922  13.605  14.612   1.069
91716SOL    HW276923  13.737  14.645   1.004
91717SOL     OW76924   1.029   2.182   5.192
91717SOL    HW176925   0.972   2.207   5.118
91717SOL    HW276926   1.075   2.263   5.215
91718SOL     OW76927   1.433   5.804   8.981
91718SOL    HW176928   1.389   5.719   8.986
91718SOL    HW276929   1.473   5.816   9.067
91719SOL     OW76930  12.176   0.539   1.081
91719SOL    HW176931  12.175   0.550   0.986
91719SOL    HW276932  12.269   0.536   1.104
91720SOL     OW76933   2.513  13.950   7.991
91720SOL    HW176934   2.433  13.937   7.939
91720SOL    HW276935   2.523  14.045   7.997
91721SOL     OW76936   0.591   3.091   8.264
91721SOL    HW176937   0.629   3.167   8.221
91721SOL    HW276938   0.502   3.118   8.287
91722SOL     OW76939   6.423   9.134  14.172
91722SOL    HW176940   6.495   9.134  14.108
91722SOL    HW276941   6.466   9.117  14.256
91723SOL     OW76942   0.638   2.987  10.886
91723SOL    HW176943   0.553   3.015  10.918
91723SOL    HW276944   0.692   3.066  10.885
91724SOL     OW76945   7.644   6.804  12.916
91724SOL    HW176946   7.657   6.896  12.940
91724SOL    HW276947   7.549   6.792  12.920
91725SOL     OW76948   9.437  11.029  10.997
91725SOL    HW176949   9.478  11.008  10.913
91725SOL    HW276950   9.444  11.124  11.004
91726SOL     OW76951   4.054  11.890  11.929
91726SOL    HW176952   3.976  11.844  11.959
91726SOL    HW276953   4.037  11.982  11.950
91727SOL     OW76954   4.156   3.867  12.674
91727SOL    HW176955   4.102   3.927  12.622
91727SOL    HW276956   4.093   3.814  12.722
91728SOL     OW76957  10.648   9.104  11.656
91728SOL    HW176958  10.643   9.038  11.587
91728SOL    HW276959  10.692   9.059  11.728
91729SOL     OW76960   5.309   4.858  14.794
91729SOL    HW176961   5.390   4.807  14.805
91729SOL    HW276962   5.239   4.796  14.812
91730SOL     OW76963   1.672   8.370   2.410
91730SOL    HW176964   1.595   8.406   2.454
91730SOL    HW276965   1.709   8.309   2.474
91731SOL     OW76966  10.552   2.446  13.711
91731SOL    HW176967  10.466   2.482  13.730
91731SOL    HW276968  10.583   2.411  13.794
91732SOL     OW76969   3.965   6.787   1.195
91732SOL    HW176970   4.051   6.794   1.152
91732SOL    HW276971   3.973   6.843   1.272
91733SOL     OW76972  13.592   1.027  10.379
91733SOL    HW176973  13.544   0.977  10.445
91733SOL    HW276974  13.538   1.020  10.300
91734SOL     OW76975   2.916   8.958   2.865
91734SOL    HW176976   2.901   9.037   2.917
91734SOL    HW276977   2.989   8.914   2.910
91735SOL     OW76978  12.558   4.363   5.970
91735SOL    HW176979  12.626   4.340   6.033
91735SOL    HW276980  12.476   4.356   6.019
91736SOL     OW76981   5.000   7.677   5.800
91736SOL    HW176982   4.994   7.616   5.727
91736SOL    HW276983   4.972   7.626   5.876
91737SOL     OW76984  11.192   5.293   6.851
91737SOL    HW176985  11.140   5.214   6.863
91737SOL    HW276986  11.261   5.287   6.917
91738SOL     OW76987   2.271   3.614   3.638
91738SOL    HW176988   2.264   3.687   3.576
91738SOL    HW276989   2.204   3.552   3.609
91739SOL     OW76990   5.554  12.816   6.502
91739SOL    HW176991   5.595  12.902   6.515
91739SOL    HW276992   5.463  12.829   6.530
91740SOL     OW76993   0.056   0.501   7.616
91740SOL    HW176994   0.057   0.514   7.711
91740SOL    HW276995   0.088   0.411   7.604
91741SOL     OW76996   2.303  14.672   1.818
91741SOL    HW176997   2.240  14.744   1.812
91741SOL    HW276998   2.372  14.705   1.876
91742SOL     OW76999  12.480   4.008   7.307
91742SOL    HW177000  12.451   3.943   7.371
91742SOL    HW277001  12.468   4.092   7.351
91743SOL     OW77002  11.765   9.400   5.741
91743SOL    HW177003  11.769   9.305   5.755
91743SOL    HW277004  11.776   9.411   5.647
91744SOL     OW77005   9.440   7.562   1.771
91744SOL    HW177006   9.533   7.537   1.778
91744SOL    HW277007   9.393   7.480   1.789
91745SOL     OW77008  11.132   8.709   2.042
91745SOL    HW177009  11.106   8.746   2.126
91745SOL    HW277010  11.056   8.657   2.014
91746SOL     OW77011   4.337   6.177   9.430
91746SOL    HW177012   4.278   6.142   9.363
91746SOL    HW277013   4.293   6.257   9.461
91747SOL     OW77014   2.189  12.606   3.613
91747SOL    HW177015   2.241  12.676   3.574
91747SOL    HW277016   2.243  12.527   3.602
91748SOL     OW77017   3.370   0.831  14.645
91748SOL    HW177018   3.413   0.892  14.586
91748SOL    HW277019   3.385   0.745  14.607
91749SOL     OW77020   8.223  11.634   3.752
91749SOL    HW177021   8.229  11.557   3.808
91749SOL    HW277022   8.284  11.697   3.790
91750SOL     OW77023   4.433  13.700   8.751
91750SOL    HW177024   4.479  13.624   8.716
91750SOL    HW277025   4.502  13.762   8.773
91751SOL     OW77026   8.531   0.176  11.694
91751SOL    HW177027   8.567   0.249  11.743
91751SOL    HW277028   8.526   0.208  11.604
91752SOL     OW77029   7.608   2.561  14.694
91752SOL    HW177030   7.704   2.563  14.686
91752SOL    HW277031   7.585   2.651  14.717
91753SOL     OW77032   0.012   7.643  10.949
91753SOL    HW177033   0.098   7.625  10.987
91753SOL    HW277034   0.025   7.722  10.896
91754SOL     OW77035  12.799  11.039   9.916
91754SOL    HW177036  12.812  10.945   9.900
91754SOL    HW277037  12.704  11.050   9.918
91755SOL     OW77038  14.602   2.412   6.996
91755SOL    HW177039  14.594   2.389   7.089
91755SOL    HW277040  14.644   2.498   6.996
91756SOL     OW77041   0.732  10.062  10.085
91756SOL    HW177042   0.680  10.109  10.150
91756SOL    HW277043   0.819  10.055  10.125
91757SOL     OW77044   9.046  12.505  10.309
91757SOL    HW177045   8.997  12.541  10.235
91757SOL    HW277046   9.024  12.562  10.383
91758SOL     OW77047   9.956  14.336   4.330
91758SOL    HW177048   9.893  14.293   4.387
91758SOL    HW277049  10.038  14.336   4.379
91759SOL     OW77050   7.288   0.100  14.757
91759SOL    HW177051   7.344   0.055  14.694
91759SOL    HW277052   7.257   0.177  14.710
91760SOL     OW77053   2.147   4.841   9.329
91760SOL    HW177054   2.131   4.878   9.242
91760SOL    HW277055   2.225   4.886   9.360
91761SOL     OW77056   8.375  13.814   1.777
91761SOL    HW177057   8.370  13.730   1.732
91761SOL    HW277058   8.469  13.828   1.791
91762SOL     OW77059  13.920   3.176   7.817
91762SOL    HW177060  13.914   3.219   7.732
91762SOL    HW277061  13.870   3.095   7.806
91763SOL     OW77062  14.817   1.439  13.326
91763SOL    HW177063  14.724   1.455  13.311
91763SOL    HW277064  14.858   1.525  13.321
91764SOL     OW77065   0.045  14.443  12.248
91764SOL    HW177066  14.868  14.405  12.317
91764SOL    HW277067   0.008  14.408  12.167
91765SOL     OW77068  10.736   0.028   4.190
91765SOL    HW177069  10.755  14.873   4.101
91765SOL    HW277070  10.700  14.830   4.236
91766SOL     OW77071  12.483  13.664   1.947
91766SOL    HW177072  12.487  13.743   2.001
91766SOL    HW277073  12.390  13.639   1.949
91767SOL     OW77074  10.084  11.050  13.292
91767SOL    HW177075  10.041  10.972  13.257
91767SOL    HW277076  10.051  11.122  13.238
91768SOL     OW77077  11.617   8.762   0.470
91768SOL    HW177078  11.676   8.825   0.428
91768SOL    HW277079  11.664   8.735   0.549
91769SOL     OW77080   6.523  13.911   9.019
91769SOL    HW177081   6.439  13.957   9.025
91769SOL    HW277082   6.537  13.873   9.106
91770SOL     OW77083   0.046   3.794   5.824
91770SOL    HW177084   0.075   3.755   5.907
91770SOL    HW277085   0.095   3.746   5.757
91771SOL     OW77086   5.359   0.488   3.710
91771SOL    HW177087   5.390   0.579   3.705
91771SOL    HW277088   5.421   0.439   3.656
91772SOL     OW77089   2.388   7.640   0.633
91772SOL    HW177090   2.435   7.711   0.588
91772SOL    HW277091   2.368   7.675   0.720
91773SOL     OW77092   0.289  13.606   1.301
91773SOL    HW177093   0.294  13.522   1.348
91773SOL    HW277094   0.228  13.588   1.229
91774SOL     OW77095   4.671   4.846   4.066
91774SOL    HW177096   4.588   4.884   4.094
91774SOL    HW277097   4.651   4.801   3.984
91775SOL     OW77098  13.382   6.561   4.795
91775SOL    HW177099  13.460   6.506   4.801
91775SOL    HW277100  13.372   6.579   4.702
91776SOL     OW77101   8.574   0.826   1.092
91776SOL    HW177102   8.583   0.878   1.013
91776SOL    HW277103   8.649   0.765   1.090
91777SOL     OW77104   3.863   4.109   3.562
91777SOL    HW177105   3.885   4.090   3.653
91777SOL    HW277106   3.799   4.042   3.538
91778SOL     OW77107   6.081   4.263  11.739
91778SOL    HW177108   6.160   4.210  11.736
91778SOL    HW277109   6.050   4.266  11.649
91779SOL     OW77110  10.360   2.551  12.726
91779SOL    HW177111  10.281   2.537  12.675
91779SOL    HW277112  10.331   2.602  12.802
91780SOL     OW77113  11.525   5.040  14.811
91780SOL    HW177114  11.600   4.995  14.771
91780SOL    HW277115  11.542   5.133  14.794
91781SOL     OW77116   9.272   4.686   6.790
91781SOL    HW177117   9.273   4.679   6.695
91781SOL    HW277118   9.205   4.752   6.809
91782SOL     OW77119  10.971  11.472   2.550
91782SOL    HW177120  11.053  11.508   2.584
91782SOL    HW277121  10.998  11.394   2.501
91783SOL     OW77122   6.768   9.403   7.981
91783SOL    HW177123   6.727   9.367   7.903
91783SOL    HW277124   6.740   9.495   7.982
91784SOL     OW77125  11.877   5.522   8.515
91784SOL    HW177126  11.896   5.594   8.455
91784SOL    HW277127  11.956   5.467   8.512
91785SOL     OW77128  10.604   0.538  10.848
91785SOL    HW177129  10.625   0.485  10.925
91785SOL    HW277130  10.623   0.628  10.876
91786SOL     OW77131   0.627   5.296  13.562
91786SOL    HW177132   0.597   5.384  13.585
91786SOL    HW277133   0.563   5.265  13.498
91787SOL     OW77134   9.964  11.051   0.936
91787SOL    HW177135  10.059  11.046   0.935
91787SOL    HW277136   9.942  11.073   1.027
91788SOL     OW77137  14.436   5.191   1.869
91788SOL    HW177138  14.495   5.124   1.903
91788SOL    HW277139  14.355   5.179   1.918
91789SOL     OW77140   3.167   1.791  13.026
91789SOL    HW177141   3.109   1.822  12.957
91789SOL    HW277142   3.121   1.814  13.107
91790SOL     OW77143   5.415   5.757  12.518
91790SOL    HW177144   5.387   5.669  12.542
91790SOL    HW277145   5.419   5.804  12.602
91791SOL     OW77146  12.235   9.724   9.271
91791SOL    HW177147  12.210   9.771   9.191
91791SOL    HW277148  12.286   9.788   9.321
91792SOL     OW77149   4.300   5.891   1.020
91792SOL    HW177150   4.272   5.874   1.110
91792SOL    HW277151   4.269   5.815   0.970
91793SOL     OW77152   0.067  10.899   4.803
91793SOL    HW177153   0.068  10.875   4.711
91793SOL    HW277154   0.023  10.984   4.806
91794SOL     OW77155   8.542  11.744   6.412
91794SOL    HW177156   8.455  11.726   6.377
91794SOL    HW277157   8.602  11.695   6.355
91795SOL     OW77158  14.574   5.775   6.971
91795SOL    HW177159  14.569   5.820   7.055
91795SOL    HW277160  14.505   5.815   6.918
91796SOL     OW77161   3.269  13.135   6.706
91796SOL    HW177162   3.240  13.111   6.618
91796SOL    HW277163   3.191  13.171   6.748
91797SOL     OW77164   2.020   9.248  13.609
91797SOL    HW177165   2.066   9.190  13.669
91797SOL    HW277166   1.956   9.294  13.663
91798SOL     OW77167  13.934  10.029   0.891
91798SOL    HW177168  13.941  10.098   0.825
91798SOL    HW277169  13.841  10.026   0.913
91799SOL     OW77170  13.477  12.280  13.538
91799SOL    HW177171  13.402  12.242  13.584
91799SOL    HW277172  13.459  12.374  13.537
91800SOL     OW77173   7.504   7.332   2.462
91800SOL    HW177174   7.503   7.374   2.375
91800SOL    HW277175   7.421   7.285   2.466
91801SOL     OW77176   2.833   6.365   3.401
91801SOL    HW177177   2.871   6.315   3.329
91801SOL    HW277178   2.823   6.302   3.472
91802SOL     OW77179  14.387  11.902  14.118
91802SOL    HW177180  14.331  11.977  14.101
91802SOL    HW277181  14.433  11.887  14.035
91803SOL     OW77182   3.037   8.435  10.676
91803SOL    HW177183   3.061   8.375  10.747
91803SOL    HW277184   3.113   8.491  10.665
91804SOL     OW77185   0.177   2.934   7.106
91804SOL    HW177186   0.169   2.855   7.052
91804SOL    HW277187   0.174   2.901   7.196
91805SOL     OW77188  12.217   6.981   7.065
91805SOL    HW177189  12.264   7.052   7.020
91805SOL    HW277190  12.286   6.930   7.108
91806SOL     OW77191  13.573   3.972   5.637
91806SOL    HW177192  13.604   3.901   5.694
91806SOL    HW277193  13.538   3.928   5.561
91807SOL     OW77194   2.751   0.070   7.747
91807SOL    HW177195   2.803   0.069   7.667
91807SOL    HW277196   2.723  14.856   7.759
91808SOL     OW77197   0.766   4.457   3.269
91808SOL    HW177198   0.766   4.435   3.362
91808SOL    HW277199   0.674   4.462   3.246
91809SOL     OW77200   5.542   8.109   8.121
91809SOL    HW177201   5.495   8.167   8.181
91809SOL    HW277202   5.634   8.133   8.131
91810SOL     OW77203  13.785   0.860   5.826
91810SOL    HW177204  13.751   0.831   5.742
91810SOL    HW277205  13.839   0.936   5.805
91811SOL     OW77206   1.774  11.267   8.603
91811SOL    HW177207   1.811  11.328   8.539
91811SOL    HW277208   1.680  11.281   8.598
91812SOL     OW77209   3.490   2.961   0.007
91812SOL    HW177210   3.463   3.019   0.078
91812SOL    HW277211   3.490   3.016  14.806
91813SOL     OW77212   3.421  13.065   3.418
91813SOL    HW177213   3.368  13.145   3.418
91813SOL    HW277214   3.498  13.088   3.469
91814SOL     OW77215   6.293   1.662   3.246
91814SOL    HW177216   6.308   1.584   3.193
91814SOL    HW277217   6.377   1.707   3.248
91815SOL     OW77218   8.951   6.737   0.319
91815SOL    HW177219   8.996   6.748   0.403
91815SOL    HW277220   8.871   6.689   0.341
91816SOL     OW77221  10.374   4.719   4.618
91816SOL    HW177222  10.418   4.686   4.539
91816SOL    HW277223  10.282   4.696   4.604
91817SOL     OW77224  12.764  14.195   6.437
91817SOL    HW177225  12.702  14.127   6.410
91817SOL    HW277226  12.729  14.275   6.400
91818SOL     OW77227   7.386   2.230  12.320
91818SOL    HW177228   7.433   2.298  12.367
91818SOL    HW277229   7.295   2.238  12.350
91819SOL     OW77230  13.341   9.226   8.369
91819SOL    HW177231  13.348   9.254   8.460
91819SOL    HW277232  13.254   9.256   8.341
91820SOL     OW77233  14.836  10.328   7.655
91820SOL    HW177234  14.821  10.237   7.682
91820SOL    HW277235   0.048  10.347   7.683
91821SOL     OW77236   1.409   9.604   1.715
91821SOL    HW177237   1.482   9.557   1.756
91821SOL    HW277238   1.334   9.585   1.770
91822SOL     OW77239   7.377   2.646  11.078
91822SOL    HW177240   7.395   2.727  11.031
91822SOL    HW277241   7.284   2.629  11.064
91823SOL     OW77242  10.114  10.617   9.033
91823SOL    HW177243  10.055  10.543   9.042
91823SOL    HW277244  10.187  10.597   9.092
91824SOL     OW77245  11.913   3.347   9.579
91824SOL    HW177246  11.894   3.274   9.638
91824SOL    HW277247  11.842   3.409   9.595
91825SOL     OW77248  11.216   2.324  11.819
91825SOL    HW177249  11.150   2.260  11.844
91825SOL    HW277250  11.268   2.337  11.898
91826SOL     OW77251   5.916   2.173   7.252
91826SOL    HW177252   5.947   2.085   7.273
91826SOL    HW277253   5.976   2.231   7.299
91827SOL     OW77254  10.526  12.723   3.100
91827SOL    HW177255  10.473  12.742   3.022
91827SOL    HW277256  10.589  12.795   3.105
91828SOL     OW77257   0.248   5.180   6.503
91828SOL    HW177258   0.205   5.197   6.419
91828SOL    HW277259   0.259   5.266   6.542
91829SOL     OW77260   4.367  11.488  11.044
91829SOL    HW177261   4.449  11.455  11.079
91829SOL    HW277262   4.314  11.509  11.121
91830SOL     OW77263  11.477  13.441   4.951
91830SOL    HW177264  11.517  13.525   4.929
91830SOL    HW277265  11.413  13.426   4.882
91831SOL     OW77266  13.893  11.537  12.105
91831SOL    HW177267  13.798  11.532  12.090
91831SOL    HW277268  13.904  11.513  12.197
91832SOL     OW77269   6.020   4.350   5.669
91832SOL    HW177270   5.981   4.434   5.648
91832SOL    HW277271   6.086   4.370   5.735
91833SOL     OW77272   5.963   5.456   8.898
91833SOL    HW177273   5.930   5.377   8.856
91833SOL    HW277274   5.893   5.520   8.889
91834SOL     OW77275   0.419  13.114   3.397
91834SOL    HW177276   0.408  13.142   3.488
91834SOL    HW277277   0.330  13.101   3.365
91835SOL     OW77278   6.142   2.622  13.575
91835SOL    HW177279   6.113   2.709  13.603
91835SOL    HW277280   6.071   2.563  13.601
91836SOL     OW77281   1.736   2.337   8.553
91836SOL    HW177282   1.779   2.362   8.635
91836SOL    HW277283   1.698   2.252   8.571
91837SOL     OW77284   3.044  14.229  14.461
91837SOL    HW177285   3.139  14.222  14.461
91837SOL    HW277286   3.026  14.321  14.477
91838SOL     OW77287   6.810  10.941   9.667
91838SOL    HW177288   6.761  10.986   9.736
91838SOL    HW277289   6.872  10.886   9.713
91839SOL     OW77290  13.703  13.508  13.075
91839SOL    HW177291  13.612  13.479  13.070
91839SOL    HW277292  13.729  13.521  12.984
91840SOL     OW77293   8.116   7.857   0.788
91840SOL    HW177294   8.139   7.765   0.777
91840SOL    HW277295   8.031   7.855   0.834
91841SOL     OW77296   0.937   0.549   5.355
91841SOL    HW177297   0.920   0.638   5.323
91841SOL    HW277298   1.018   0.523   5.311
91842SOL     OW77299   9.726  14.867   1.114
91842SOL    HW177300   9.694  14.805   1.180
91842SOL    HW277301   9.690   0.074   1.140
91843SOL     OW77302   9.946   6.844   1.713
91843SOL    HW177303   9.991   6.926   1.697
91843SOL    HW277304   9.993   6.780   1.660
91844SOL     OW77305  10.608   5.829  14.436
91844SOL    HW177306  10.539   5.777  14.476
91844SOL    HW277307  10.619   5.792  14.348
91845SOL     OW77308   1.667  12.449  11.783
91845SOL    HW177309   1.574  12.472  11.787
91845SOL    HW277310   1.675  12.393  11.705
91846SOL     OW77311  11.636   0.781   8.814
91846SOL    HW177312  11.588   0.743   8.888
91846SOL    HW277313  11.573   0.780   8.742
91847SOL     OW77314   6.975  11.316   3.966
91847SOL    HW177315   7.062  11.275   3.972
91847SOL    HW277316   6.966  11.366   4.048
91848SOL     OW77317   2.288   8.640  11.627
91848SOL    HW177318   2.266   8.695  11.703
91848SOL    HW277319   2.204   8.604  11.600
91849SOL     OW77320   6.916  13.754   4.424
91849SOL    HW177321   7.007  13.735   4.446
91849SOL    HW277322   6.868  13.738   4.506
91850SOL     OW77323   7.081  11.846  13.383
91850SOL    HW177324   7.054  11.755  13.368
91850SOL    HW277325   7.176  11.845  13.376
91851SOL     OW77326  14.256   7.268   4.044
91851SOL    HW177327  14.261   7.255   3.949
91851SOL    HW277328  14.229   7.184   4.079
91852SOL     OW77329   2.363   2.858  14.798
91852SOL    HW177330   2.347   2.796  14.727
91852SOL    HW277331   2.422   2.924  14.761
91853SOL     OW77332   5.670   6.094  12.654
91853SOL    HW177333   5.646   6.033  12.584
91853SOL    HW277334   5.701   6.172  12.608
91854SOL     OW77335   6.935   0.325  11.128
91854SOL    HW177336   7.021   0.339  11.089
91854SOL    HW277337   6.953   0.278  11.210
91855SOL     OW77338   5.805   5.743   6.554
91855SOL    HW177339   5.847   5.689   6.488
91855SOL    HW277340   5.877   5.771   6.611
91856SOL     OW77341  12.169   1.388   9.191
91856SOL    HW177342  12.149   1.460   9.131
91856SOL    HW277343  12.234   1.425   9.252
91857SOL     OW77344  13.037   8.817  12.791
91857SOL    HW177345  13.120   8.846  12.754
91857SOL    HW277346  12.979   8.893  12.784
91858SOL     OW77347   8.131   7.400   8.032
91858SOL    HW177348   8.225   7.416   8.041
91858SOL    HW277349   8.110   7.428   7.943
91859SOL     OW77350   2.670   6.749   9.337
91859SOL    HW177351   2.731   6.687   9.296
91859SOL    HW277352   2.672   6.826   9.279
91860SOL     OW77353  11.000   0.047  13.405
91860SOL    HW177354  11.078   0.100  13.385
91860SOL    HW277355  11.030  14.862  13.471
91861SOL     OW77356   7.610  10.367   8.926
91861SOL    HW177357   7.675  10.425   8.885
91861SOL    HW277358   7.574  10.419   8.998
91862SOL     OW77359   2.124   6.474  11.109
91862SOL    HW177360   2.129   6.542  11.041
91862SOL    HW277361   2.060   6.411  11.076
91863SOL     OW77362  12.022   4.454   7.224
91863SOL    HW177363  11.973   4.431   7.303
91863SOL    HW277364  12.078   4.378   7.208
91864SOL     OW77365   3.586   6.389  11.687
91864SOL    HW177366   3.633   6.465  11.722
91864SOL    HW277367   3.547   6.348  11.764
91865SOL     OW77368  14.585   7.287   3.108
91865SOL    HW177369  14.658   7.334   3.069
91865SOL    HW277370  14.558   7.225   3.041
91866SOL     OW77371  10.304   2.889   8.998
91866SOL    HW177372  10.390   2.851   8.984
91866SOL    HW277373  10.252   2.860   8.922
91867SOL     OW77374   2.845   3.640   3.563
91867SOL    HW177375   2.843   3.559   3.513
91867SOL    HW277376   2.925   3.636   3.614
91868SOL     OW77377   3.859   6.822  10.055
91868SOL    HW177378   3.856   6.808   9.961
91868SOL    HW277379   3.919   6.755  10.087
91869SOL     OW77380  14.700   9.058   3.809
91869SOL    HW177381  14.771   9.008   3.850
91869SOL    HW277382  14.693   9.020   3.721
91870SOL     OW77383   5.518   9.970   1.472
91870SOL    HW177384   5.571  10.045   1.498
91870SOL    HW277385   5.495   9.987   1.381
91871SOL     OW77386   2.795   2.774   7.320
91871SOL    HW177387   2.722   2.825   7.284
91871SOL    HW277388   2.760   2.685   7.326
91872SOL     OW77389  13.260   2.440   8.278
91872SOL    HW177390  13.302   2.526   8.273
91872SOL    HW277391  13.223   2.425   8.191
91873SOL     OW77392  12.438   7.517  11.518
91873SOL    HW177393  12.424   7.423  11.510
91873SOL    HW277394  12.515   7.534  11.464
91874SOL     OW77395   5.385   5.086  13.017
91874SOL    HW177396   5.467   5.130  12.998
91874SOL    HW277397   5.408   4.994  13.024
91875SOL     OW77398   6.810   1.225   8.832
91875SOL    HW177399   6.725   1.201   8.870
91875SOL    HW277400   6.790   1.303   8.780
91876SOL     OW77401  13.010  14.332   5.797
91876SOL    HW177402  12.916  14.316   5.807
91876SOL    HW277403  13.040  14.356   5.885
91877SOL     OW77404   7.374   0.992  10.765
91877SOL    HW177405   7.290   1.039  10.773
91877SOL    HW277406   7.366   0.944  10.682
91878SOL     OW77407  12.307   1.746   9.113
91878SOL    HW177408  12.213   1.759   9.098
91878SOL    HW277409  12.340   1.711   9.031
91879SOL     OW77410  13.127   5.179   3.274
91879SOL    HW177411  13.094   5.268   3.274
91879SOL    HW277412  13.048   5.124   3.277
91880SOL     OW77413  13.981   3.066   5.873
91880SOL    HW177414  14.040   3.013   5.820
91880SOL    HW277415  13.987   3.154   5.836
91881SOL     OW77416  14.487  13.566   4.367
91881SOL    HW177417  14.417  13.518   4.321
91881SOL    HW277418  14.442  13.611   4.438
91882SOL     OW77419   3.472   5.150   5.171
91882SOL    HW177420   3.411   5.218   5.198
91882SOL    HW277421   3.419   5.087   5.122
91883SOL     OW77422  13.959   1.555  10.843
91883SOL    HW177423  13.982   1.612  10.917
91883SOL    HW277424  13.893   1.496  10.878
91884SOL     OW77425   6.659   7.409   7.388
91884SOL    HW177426   6.680   7.426   7.480
91884SOL    HW277427   6.604   7.482   7.361
91885SOL     OW77428   4.995  12.947  13.999
91885SOL    HW177429   5.044  12.946  14.080
91885SOL    HW277430   4.909  12.912  14.022
91886SOL     OW77431   6.305   8.695  11.870
91886SOL    HW177432   6.400   8.707  11.876
91886SOL    HW277433   6.275   8.768  11.816
91887SOL     OW77434   0.273   8.291   7.166
91887SOL    HW177435   0.207   8.225   7.186
91887SOL    HW277436   0.228   8.375   7.181
91888SOL     OW77437  13.464  10.565   4.366
91888SOL    HW177438  13.501  10.529   4.446
91888SOL    HW277439  13.521  10.638   4.344
91889SOL     OW77440   0.729   2.011   3.046
91889SOL    HW177441   0.759   1.927   3.083
91889SOL    HW277442   0.744   2.002   2.952
91890SOL     OW77443   3.025   2.256   8.719
91890SOL    HW177444   2.972   2.314   8.665
91890SOL    HW277445   3.005   2.168   8.686
91891SOL     OW77446  13.029   2.136   0.917
91891SOL    HW177447  13.057   2.217   0.962
91891SOL    HW277448  13.091   2.127   0.845
91892SOL     OW77449  10.156   7.773   9.412
91892SOL    HW177450  10.112   7.802   9.331
91892SOL    HW277451  10.119   7.829   9.480
91893SOL     OW77452   8.313   0.543   8.862
91893SOL    HW177453   8.295   0.473   8.925
91893SOL    HW277454   8.389   0.589   8.897
91894SOL     OW77455   4.162  13.351   1.978
91894SOL    HW177456   4.236  13.342   1.919
91894SOL    HW277457   4.172  13.438   2.016
91895SOL     OW77458   4.647   0.071   8.539
91895SOL    HW177459   4.565   0.115   8.515
91895SOL    HW277460   4.621  14.864   8.574
91896SOL     OW77461   3.383   4.174  11.127
91896SOL    HW177462   3.460   4.221  11.161
91896SOL    HW277463   3.388   4.088  11.169
91897SOL     OW77464   8.941   3.486   0.909
91897SOL    HW177465   8.960   3.545   0.982
91897SOL    HW277466   8.893   3.540   0.846
91898SOL     OW77467   6.888   2.443  14.268
91898SOL    HW177468   6.838   2.372  14.309
91898SOL    HW277469   6.979   2.424  14.290
91899SOL     OW77470  11.201  13.866   5.553
91899SOL    HW177471  11.137  13.927   5.590
91899SOL    HW277472  11.160  13.780   5.560
91900SOL     OW77473   1.371   2.519   4.068
91900SOL    HW177474   1.383   2.497   4.161
91900SOL    HW277475   1.308   2.455   4.036
91901SOL     OW77476  11.035   9.739  12.335
91901SOL    HW177477  11.060   9.687  12.411
91901SOL    HW277478  11.045   9.678  12.261
91902SOL     OW77479   4.139  11.388   4.403
91902SOL    HW177480   4.174  11.307   4.365
91902SOL    HW277481   4.100  11.434   4.329
91903SOL     OW77482   6.797   8.208   7.959
91903SOL    HW177483   6.802   8.275   8.027
91903SOL    HW277484   6.889   8.184   7.942
91904SOL     OW77485  12.241   1.379   4.276
91904SOL    HW177486  12.269   1.471   4.278
91904SOL    HW277487  12.310   1.332   4.321
91905SOL     OW77488  14.437   8.585   6.826
91905SOL    HW177489  14.426   8.565   6.919
91905SOL    HW277490  14.405   8.507   6.781
91906SOL     OW77491  14.797  12.606  13.315
91906SOL    HW177492  14.799  12.525  13.366
91906SOL    HW277493  14.752  12.581  13.234
91907SOL     OW77494   1.502  13.909   4.269
91907SOL    HW177495   1.429  13.929   4.211
91907SOL    HW277496   1.468  13.846   4.331
91908SOL     OW77497   3.772  11.484   4.691
91908SOL    HW177498   3.747  11.526   4.773
91908SOL    HW277499   3.849  11.431   4.713
91909SOL     OW77500   6.026  13.425   0.999
91909SOL    HW177501   6.077  13.462   0.927
91909SOL    HW277502   5.952  13.484   1.009
91910SOL     OW77503   2.665   1.287  13.018
91910SOL    HW177504   2.740   1.262  13.072
91910SOL    HW277505   2.605   1.213  13.023
91911SOL     OW77506  12.241   0.448  11.433
91911SOL    HW177507  12.150   0.446  11.463
91911SOL    HW277508  12.263   0.541  11.431
91912SOL     OW77509   8.362  12.587  14.235
91912SOL    HW177510   8.302  12.514  14.216
91912SOL    HW277511   8.351  12.603  14.329
91913SOL     OW77512   8.175   2.749   0.956
91913SOL    HW177513   8.190   2.800   1.035
91913SOL    HW277514   8.087   2.711   0.967
91914SOL     OW77515   9.425  10.560  11.237
91914SOL    HW177516   9.507  10.605  11.214
91914SOL    HW277517   9.424  10.482  11.183
91915SOL     OW77518  10.990   0.040   2.900
91915SOL    HW177519  11.022   0.117   2.852
91915SOL    HW277520  10.894   0.044   2.890
91916SOL     OW77521   5.441   1.857   9.525
91916SOL    HW177522   5.456   1.769   9.492
91916SOL    HW277523   5.350   1.876   9.504
91917SOL     OW77524   5.411   2.664  13.601
91917SOL    HW177525   5.415   2.758  13.584
91917SOL    HW277526   5.369   2.657  13.687
91918SOL     OW77527   9.866   8.288  12.016
91918SOL    HW177528   9.956   8.257  12.027
91918SOL    HW277529   9.848   8.278  11.922
91919SOL     OW77530   2.461   5.813   2.927
91919SOL    HW177531   2.473   5.811   3.022
91919SOL    HW277532   2.492   5.900   2.901
91920SOL     OW77533  10.113   9.059   9.929
91920SOL    HW177534  10.026   9.090   9.954
91920SOL    HW277535  10.147   9.128   9.871
91921SOL     OW77536   3.034   9.315   0.770
91921SOL    HW177537   3.107   9.315   0.832
91921SOL    HW277538   2.966   9.264   0.813
91922SOL     OW77539   3.974   2.949   3.362
91922SOL    HW177540   3.924   3.016   3.411
91922SOL    HW277541   4.032   2.910   3.428
91923SOL     OW77542  12.253   7.931   9.180
91923SOL    HW177543  12.266   7.839   9.200
91923SOL    HW277544  12.286   7.941   9.091
91924SOL     OW77545   4.196  11.614   1.498
91924SOL    HW177546   4.182  11.557   1.574
91924SOL    HW277547   4.290  11.633   1.499
91925SOL     OW77548   1.638   3.567   1.326
91925SOL    HW177549   1.685   3.610   1.397
91925SOL    HW277550   1.547   3.566   1.354
91926SOL     OW77551   4.473   8.984  13.079
91926SOL    HW177552   4.380   8.989  13.099
91926SOL    HW277553   4.513   9.054  13.131
91927SOL     OW77554   9.403   9.721   2.510
91927SOL    HW177555   9.416   9.801   2.560
91927SOL    HW277556   9.352   9.664   2.568
91928SOL     OW77557   7.909   2.788   1.458
91928SOL    HW177558   7.967   2.822   1.526
91928SOL    HW277559   7.905   2.694   1.474
91929SOL     OW77560  12.535  14.684   2.737
91929SOL    HW177561  12.463  14.744   2.758
91929SOL    HW277562  12.574  14.720   2.657
91930SOL     OW77563   0.427   8.150   3.880
91930SOL    HW177564   0.446   8.056   3.886
91930SOL    HW277565   0.473   8.188   3.955
91931SOL     OW77566   6.644   9.321   0.098
91931SOL    HW177567   6.596   9.287   0.174
91931SOL    HW277568   6.734   9.293   0.111
91932SOL     OW77569   0.945   0.508   4.211
91932SOL    HW177570   1.025   0.457   4.200
91932SOL    HW277571   0.949   0.574   4.142
91933SOL     OW77572  10.928   4.154  14.841
91933SOL    HW177573  10.974   4.116  14.766
91933SOL    HW277574  10.993   4.152   0.035
91934SOL     OW77575   2.342   4.106   2.254
91934SOL    HW177576   2.326   4.198   2.275
91934SOL    HW277577   2.416   4.108   2.193
91935SOL     OW77578  14.042   1.595   6.603
91935SOL    HW177579  14.003   1.536   6.667
91935SOL    HW277580  14.126   1.620   6.641
91936SOL     OW77581   5.306  11.655  12.112
91936SOL    HW177582   5.288  11.564  12.135
91936SOL    HW277583   5.301  11.657  12.016
91937SOL     OW77584   3.777   2.752   1.343
91937SOL    HW177585   3.705   2.690   1.337
91937SOL    HW277586   3.823   2.744   1.260
91938SOL     OW77587   2.842   5.335   2.030
91938SOL    HW177588   2.866   5.424   2.004
91938SOL    HW277589   2.881   5.278   1.964
91939SOL     OW77590  12.138   9.888   8.636
91939SOL    HW177591  12.090   9.852   8.711
91939SOL    HW277592  12.216   9.833   8.629
91940SOL     OW77593   2.714   2.943   3.850
91940SOL    HW177594   2.761   2.888   3.913
91940SOL    HW277595   2.747   2.915   3.764
91941SOL     OW77596  14.835   0.367   1.271
91941SOL    HW177597  14.773   0.307   1.312
91941SOL    HW277598  14.821   0.356   1.177
91942SOL     OW77599  12.515  13.944  13.247
91942SOL    HW177600  12.440  13.988  13.208
91942SOL    HW277601  12.545  13.883  13.180
91943SOL     OW77602   1.928  12.273   2.265
91943SOL    HW177603   1.874  12.345   2.232
91943SOL    HW277604   1.867  12.215   2.311
91944SOL     OW77605  13.196   0.791   2.553
91944SOL    HW177606  13.141   0.740   2.614
91944SOL    HW277607  13.230   0.863   2.607
91945SOL     OW77608  10.820   7.631   5.610
91945SOL    HW177609  10.824   7.709   5.667
91945SOL    HW277610  10.726   7.613   5.602
91946SOL     OW77611  14.625  11.259  13.783
91946SOL    HW177612  14.581  11.339  13.756
91946SOL    HW277613  14.695  11.288  13.841
91947SOL     OW77614   2.070   7.773  14.410
91947SOL    HW177615   1.994   7.729  14.371
91947SOL    HW277616   2.058   7.865  14.386
91948SOL     OW77617   6.894   8.705  10.570
91948SOL    HW177618   6.891   8.788  10.617
91948SOL    HW277619   6.893   8.638  10.639
91949SOL     OW77620   2.573   4.380   3.389
91949SOL    HW177621   2.491   4.331   3.393
91949SOL    HW277622   2.602   4.385   3.481
91950SOL     OW77623   4.910  10.813   1.565
91950SOL    HW177624   4.878  10.893   1.524
91950SOL    HW277625   4.842  10.790   1.629
91951SOL     OW77626  13.187  14.842  14.730
91951SOL    HW177627  13.213  14.846  14.638
91951SOL    HW277628  13.134  14.763  14.737
91952SOL     OW77629   1.912   9.532   0.873
91952SOL    HW177630   1.864   9.549   0.954
91952SOL    HW277631   1.864   9.580   0.806
91953SOL     OW77632  13.532   8.260   9.086
91953SOL    HW177633  13.529   8.238   8.993
91953SOL    HW277634  13.445   8.238   9.120
91954SOL     OW77635   1.242   3.801  13.326
91954SOL    HW177636   1.238   3.882  13.275
91954SOL    HW277637   1.155   3.791  13.363
91955SOL     OW77638   4.180   2.868   7.224
91955SOL    HW177639   4.265   2.825   7.233
91955SOL    HW277640   4.143   2.832   7.143
91956SOL     OW77641   3.543  12.693   2.498
91956SOL    HW177642   3.535  12.598   2.497
91956SOL    HW277643   3.636  12.710   2.510
91957SOL     OW77644   8.293   0.584   9.750
91957SOL    HW177645   8.271   0.573   9.658
91957SOL    HW277646   8.354   0.657   9.752
91958SOL     OW77647   9.049   1.111  14.047
91958SOL    HW177648   9.076   1.023  14.073
91958SOL    HW277649   9.117   1.169  14.083
91959SOL     OW77650   4.913  12.086  13.040
91959SOL    HW177651   4.971  12.064  13.112
91959SOL    HW277652   4.937  12.176  13.016
91960SOL     OW77653  10.606  13.851   4.918
91960SOL    HW177654  10.689  13.872   4.875
91960SOL    HW277655  10.601  13.756   4.915
91961SOL     OW77656   9.609   3.099  12.683
91961SOL    HW177657   9.589   3.156  12.609
91961SOL    HW277658   9.634   3.016  12.644
91962SOL     OW77659   7.179   4.704   7.721
91962SOL    HW177660   7.242   4.775   7.707
91962SOL    HW277661   7.098   4.735   7.681
91963SOL     OW77662   3.343   3.006  14.066
91963SOL    HW177663   3.357   3.082  14.009
91963SOL    HW277664   3.398   2.937  14.028
91964SOL     OW77665  13.648   8.821   3.562
91964SOL    HW177666  13.571   8.784   3.518
91964SOL    HW277667  13.620   8.834   3.653
91965SOL     OW77668  13.935   2.174   0.064
91965SOL    HW177669  14.016   2.126   0.050
91965SOL    HW277670  13.963   2.263   0.085
91966SOL     OW77671  13.153   7.728  10.869
91966SOL    HW177672  13.207   7.713  10.946
91966SOL    HW277673  13.206   7.785  10.813
91967SOL     OW77674   8.757   0.591  13.301
91967SOL    HW177675   8.748   0.670  13.356
91967SOL    HW277676   8.851   0.575  13.298
91968SOL     OW77677   5.550   3.296  11.203
91968SOL    HW177678   5.492   3.362  11.241
91968SOL    HW277679   5.637   3.322  11.231
91969SOL     OW77680  12.699  10.990   6.824
91969SOL    HW177681  12.765  11.057   6.846
91969SOL    HW277682  12.715  10.920   6.887
91970SOL     OW77683  14.453  13.647   9.895
91970SOL    HW177684  14.408  13.577   9.943
91970SOL    HW277685  14.382  13.694   9.851
91971SOL     OW77686   5.469   7.283   6.407
91971SOL    HW177687   5.551   7.324   6.380
91971SOL    HW277688   5.473   7.279   6.502
91972SOL     OW77689   1.351  13.287   0.623
91972SOL    HW177690   1.314  13.344   0.556
91972SOL    HW277691   1.396  13.218   0.574
91973SOL     OW77692   5.411  10.144   8.177
91973SOL    HW177693   5.492  10.194   8.181
91973SOL    HW277694   5.356  10.182   8.245
91974SOL     OW77695   0.315   9.900   6.885
91974SOL    HW177696   0.382   9.932   6.945
91974SOL    HW277697   0.354   9.822   6.845
91975SOL     OW77698   5.145   5.666   8.467
91975SOL    HW177699   5.122   5.573   8.464
91975SOL    HW277700   5.197   5.676   8.546
91976SOL     OW77701  12.905  10.953  13.171
91976SOL    HW177702  12.827  10.928  13.220
91976SOL    HW277703  12.974  10.896  13.206
91977SOL     OW77704  14.220   2.597   9.643
91977SOL    HW177705  14.214   2.546   9.724
91977SOL    HW277706  14.248   2.534   9.577
91978SOL     OW77707   9.759  12.113   0.886
91978SOL    HW177708   9.788  12.155   0.967
91978SOL    HW277709   9.839  12.097   0.837
91979SOL     OW77710   8.061  10.966  12.645
91979SOL    HW177711   8.083  11.056  12.668
91979SOL    HW277712   8.145  10.927  12.618
91980SOL     OW77713   8.700   4.811  14.694
91980SOL    HW177714   8.732   4.890  14.649
91980SOL    HW277715   8.713   4.740  14.631
91981SOL     OW77716   4.708   0.307  14.002
91981SOL    HW177717   4.766   0.232  13.987
91981SOL    HW277718   4.745   0.377  13.948
91982SOL     OW77719  12.282   4.073  14.451
91982SOL    HW177720  12.253   4.020  14.377
91982SOL    HW277721  12.271   4.017  14.527
91983SOL     OW77722   8.426   1.430   3.075
91983SOL    HW177723   8.426   1.364   3.005
91983SOL    HW277724   8.479   1.391   3.145
91984SOL     OW77725  14.459   7.770   4.635
91984SOL    HW177726  14.364   7.772   4.649
91984SOL    HW277727  14.495   7.822   4.707
91985SOL     OW77728   2.412  11.115   0.714
91985SOL    HW177729   2.320  11.098   0.694
91985SOL    HW277730   2.425  11.207   0.690
91986SOL     OW77731  11.300  12.999   1.039
91986SOL    HW177732  11.267  12.963   0.957
91986SOL    HW277733  11.333  12.923   1.087
91987SOL     OW77734   9.446   8.009  12.166
91987SOL    HW177735   9.428   8.002  12.260
91987SOL    HW277736   9.375   8.061  12.131
91988SOL     OW77737  10.412  12.721   7.139
91988SOL    HW177738  10.501  12.694   7.161
91988SOL    HW277739  10.409  12.715   7.043
91989SOL     OW77740  12.685  13.041   3.328
91989SOL    HW177741  12.595  13.061   3.356
91989SOL    HW277742  12.714  12.972   3.387
91990SOL     OW77743  11.286   8.349  10.552
91990SOL    HW177744  11.267   8.417  10.488
91990SOL    HW277745  11.238   8.272  10.521
91991SOL     OW77746   4.520   7.116   1.251
91991SOL    HW177747   4.543   7.206   1.227
91991SOL    HW277748   4.520   7.069   1.168
91992SOL     OW77749   0.700   1.672  12.887
91992SOL    HW177750   0.730   1.619  12.813
91992SOL    HW277751   0.780   1.705  12.928
91993SOL     OW77752  10.879   7.103   3.509
91993SOL    HW177753  10.946   7.086   3.443
91993SOL    HW277754  10.908   7.054   3.586
91994SOL     OW77755  12.852   0.579   1.688
91994SOL    HW177756  12.792   0.652   1.702
91994SOL    HW277757  12.905   0.605   1.612
91995SOL     OW77758  11.808  14.706  11.754
91995SOL    HW177759  11.865  14.671  11.685
91995SOL    HW277760  11.809  14.801  11.740
91996SOL     OW77761   9.298  14.764   3.492
91996SOL    HW177762   9.321  14.677   3.524
91996SOL    HW277763   9.362  14.783   3.424
91997SOL     OW77764  12.928  11.714   6.919
91997SOL    HW177765  12.896  11.803   6.936
91997SOL    HW277766  13.021  11.718   6.941
91998SOL     OW77767   4.430   5.730   0.595
91998SOL    HW177768   4.391   5.812   0.566
91998SOL    HW277769   4.426   5.673   0.518
91999SOL     OW77770  12.771   8.023   8.052
91999SOL    HW177771  12.749   7.931   8.065
91999SOL    HW277772  12.854   8.021   8.004
92000SOL     OW77773  10.509  13.771   2.785
92000SOL    HW177774  10.550  13.696   2.741
92000SOL    HW277775  10.505  13.745   2.877
92001SOL     OW77776   6.769   4.632   2.531
92001SOL    HW177777   6.744   4.609   2.441
92001SOL    HW277778   6.743   4.555   2.583
92002SOL     OW77779  13.005  13.419   3.209
92002SOL    HW177780  12.988  13.482   3.279
92002SOL    HW277781  12.971  13.336   3.242
92003SOL     OW77782   2.507   2.482   0.075
92003SOL    HW177783   2.508   2.499  14.858
92003SOL    HW277784   2.433   2.532   0.108
92004SOL     OW77785   8.639   7.541   0.940
92004SOL    HW177786   8.674   7.606   0.880
92004SOL    HW277787   8.710   7.478   0.952
92005SOL     OW77788  12.789  12.007   8.835
92005SOL    HW177789  12.840  12.007   8.916
92005SOL    HW277790  12.854  12.013   8.765
92006SOL     OW77791   3.790  12.843   0.780
92006SOL    HW177792   3.821  12.906   0.715
92006SOL    HW277793   3.695  12.839   0.766
92007SOL     OW77794  14.285   4.432   9.729
92007SOL    HW177795  14.226   4.483   9.674
92007SOL    HW277796  14.327   4.497   9.786
92008SOL     OW77797   7.121  13.417  10.807
92008SOL    HW177798   7.163  13.367  10.876
92008SOL    HW277799   7.193  13.457  10.758
92009SOL     OW77800   8.405   0.846   6.204
92009SOL    HW177801   8.449   0.931   6.204
92009SOL    HW277802   8.454   0.793   6.267
92010SOL     OW77803  11.430  10.101   2.522
92010SOL    HW177804  11.346  10.063   2.550
92010SOL    HW277805  11.436  10.081   2.429
92011SOL     OW77806   7.464  10.394   1.705
92011SOL    HW177807   7.454  10.467   1.767
92011SOL    HW277808   7.555  10.400   1.675
92012SOL     OW77809   7.140   3.709   9.399
92012SOL    HW177810   7.218   3.660   9.373
92012SOL    HW277811   7.171   3.769   9.467
92013SOL     OW77812  10.222   2.353   4.801
92013SOL    HW177813  10.185   2.270   4.832
92013SOL    HW277814  10.146   2.408   4.784
92014SOL     OW77815  14.006   7.325   9.088
92014SOL    HW177816  13.915   7.294   9.095
92014SOL    HW277817  14.031   7.304   8.998
92015SOL     OW77818   5.889   6.582  11.401
92015SOL    HW177819   5.852   6.581  11.313
92015SOL    HW277820   5.964   6.524  11.396
92016SOL     OW77821   0.378  10.683   9.470
92016SOL    HW177822   0.420  10.642   9.546
92016SOL    HW277823   0.437  10.755   9.446
92017SOL     OW77824   8.897   0.671  14.591
92017SOL    HW177825   8.930   0.649  14.504
92017SOL    HW277826   8.887   0.766  14.590
92018SOL     OW77827  12.458   4.209   9.324
92018SOL    HW177828  12.502   4.148   9.266
92018SOL    HW277829  12.378   4.163   9.351
92019SOL     OW77830   3.284  11.535   4.316
92019SOL    HW177831   3.293  11.486   4.234
92019SOL    HW277832   3.242  11.617   4.291
92020SOL     OW77833   9.640   7.666  13.440
92020SOL    HW177834   9.550   7.665  13.407
92020SOL    HW277835   9.687   7.724  13.380
92021SOL     OW77836   2.119   1.371   6.359
92021SOL    HW177837   2.207   1.401   6.381
92021SOL    HW277838   2.098   1.306   6.426
92022SOL     OW77839   0.809   1.794   7.759
92022SOL    HW177840   0.901   1.800   7.784
92022SOL    HW277841   0.791   1.877   7.714
92023SOL     OW77842  11.885   4.064   0.472
92023SOL    HW177843  11.930   4.137   0.430
92023SOL    HW277844  11.809   4.104   0.514
92024SOL     OW77845   6.289   4.861   0.088
92024SOL    HW177846   6.346   4.846   0.014
92024SOL    HW277847   6.348   4.876   0.162
92025SOL     OW77848   1.659   6.073  12.242
92025SOL    HW177849   1.670   6.164  12.270
92025SOL    HW277850   1.661   6.022  12.323
92026SOL     OW77851  11.937   1.539   2.225
92026SOL    HW177852  11.944   1.481   2.148
92026SOL    HW277853  11.878   1.492   2.284
92027SOL     OW77854  10.654  14.561  13.108
92027SOL    HW177855  10.706  14.574  13.187
92027SOL    HW277856  10.653  14.467  13.094
92028SOL     OW77857   3.562  12.040   6.971
92028SOL    HW177858   3.622  12.069   6.902
92028SOL    HW277859   3.598  12.078   7.051
92029SOL     OW77860   5.114  10.254   4.628
92029SOL    HW177861   5.067  10.202   4.693
92029SOL    HW277862   5.158  10.322   4.679
92030SOL     OW77863   8.714   1.348   2.804
92030SOL    HW177864   8.754   1.348   2.717
92030SOL    HW277865   8.632   1.301   2.792
92031SOL     OW77866   8.089   9.759  10.361
92031SOL    HW177867   8.127   9.692  10.418
92031SOL    HW277868   8.039   9.709  10.296
92032SOL     OW77869   4.884   2.580  13.466
92032SOL    HW177870   4.833   2.632  13.528
92032SOL    HW277871   4.946   2.642  13.427
92033SOL     OW77872  10.005   9.809  14.003
92033SOL    HW177873   9.973   9.898  14.016
92033SOL    HW277874   9.962   9.757  14.071
92034SOL     OW77875  11.407   4.029  13.258
92034SOL    HW177876  11.464   3.955  13.280
92034SOL    HW277877  11.319   3.996  13.276
92035SOL     OW77878   2.741   4.198  11.330
92035SOL    HW177879   2.822   4.216  11.282
92035SOL    HW277880   2.750   4.248  11.411
92036SOL     OW77881   2.299  14.624   9.369
92036SOL    HW177882   2.371  14.653   9.312
92036SOL    HW277883   2.330  14.643   9.458
92037SOL     OW77884   4.754   9.659   9.096
92037SOL    HW177885   4.758   9.681   9.003
92037SOL    HW277886   4.668   9.618   9.107
92038SOL     OW77887   8.725   4.390  13.342
92038SOL    HW177888   8.807   4.438  13.357
92038SOL    HW277889   8.656   4.455  13.357
92039SOL     OW77890  13.807   4.516   6.930
92039SOL    HW177891  13.856   4.595   6.906
92039SOL    HW277892  13.736   4.512   6.865
92040SOL     OW77893  10.761  11.131   6.475
92040SOL    HW177894  10.732  11.195   6.540
92040SOL    HW277895  10.817  11.180   6.415
92041SOL     OW77896   2.620   8.895  10.620
92041SOL    HW177897   2.696   8.855  10.662
92041SOL    HW277898   2.551   8.892  10.687
92042SOL     OW77899  10.793  12.594  10.083
92042SOL    HW177900  10.838  12.521  10.042
92042SOL    HW277901  10.701  12.583  10.056
92043SOL     OW77902  10.325   8.219  10.542
92043SOL    HW177903  10.233   8.243  10.531
92043SOL    HW277904  10.373   8.297  10.513
92044SOL     OW77905   8.577   6.744  12.431
92044SOL    HW177906   8.663   6.779  12.455
92044SOL    HW277907   8.597   6.662  12.385
92045SOL     OW77908  14.294   0.369   5.280
92045SOL    HW177909  14.239   0.417   5.218
92045SOL    HW277910  14.305   0.282   5.240
92046SOL     OW77911   3.751   2.992   7.203
92046SOL    HW177912   3.703   3.074   7.216
92046SOL    HW277913   3.684   2.928   7.182
92047SOL     OW77914   9.738   7.537  10.582
92047SOL    HW177915   9.681   7.466  10.554
92047SOL    HW277916   9.798   7.497  10.645
92048SOL     OW77917   0.880   7.065   3.085
92048SOL    HW177918   0.881   7.019   3.168
92048SOL    HW277919   0.796   7.110   3.084
92049SOL     OW77920   0.071   1.709   8.322
92049SOL    HW177921   0.064   1.798   8.289
92049SOL    HW277922   0.165   1.692   8.326
92050SOL     OW77923  11.775   7.312   0.969
92050SOL    HW177924  11.846   7.260   1.007
92050SOL    HW277925  11.697   7.257   0.978
92051SOL     OW77926   4.860  14.260   1.455
92051SOL    HW177927   4.900  14.224   1.375
92051SOL    HW277928   4.934  14.272   1.515
92052SOL     OW77929   0.141  12.357   7.459
92052SOL    HW177930   0.091  12.434   7.433
92052SOL    HW277931   0.088  12.283   7.431
92053SOL     OW77932  13.582   6.706   5.573
92053SOL    HW177933  13.518   6.733   5.508
92053SOL    HW277934  13.662   6.754   5.551
92054SOL     OW77935  14.355   2.071  12.640
92054SOL    HW177936  14.378   2.074  12.732
92054SOL    HW277937  14.260   2.084  12.638
92055SOL     OW77938   3.024   3.321   7.611
92055SOL    HW177939   3.053   3.246   7.559
92055SOL    HW277940   3.004   3.284   7.697
92056SOL     OW77941   3.262  10.878  10.055
92056SOL    HW177942   3.308  10.861   9.973
92056SOL    HW277943   3.182  10.827  10.049
92057SOL     OW77944  11.029   7.017   7.193
92057SOL    HW177945  11.059   6.946   7.250
92057SOL    HW277946  11.109   7.067   7.173
92058SOL     OW77947   2.533   9.367  13.027
92058SOL    HW177948   2.501   9.279  13.046
92058SOL    HW277949   2.453   9.418  13.013
92059SOL     OW77950   4.972   1.417  14.797
92059SOL    HW177951   4.955   1.476  14.724
92059SOL    HW277952   4.892   1.366  14.806
92060SOL     OW77953   4.490   7.054  14.322
92060SOL    HW177954   4.540   7.128  14.287
92060SOL    HW277955   4.548   6.979  14.310
92061SOL     OW77956  14.171  11.090   9.532
92061SOL    HW177957  14.075  11.090   9.525
92061SOL    HW277958  14.201  11.127   9.449
92062SOL     OW77959  10.383   3.829   3.984
92062SOL    HW177960  10.454   3.863   4.039
92062SOL    HW277961  10.424   3.762   3.930
92063SOL     OW77962  10.727   0.440  12.709
92063SOL    HW177963  10.796   0.500  12.739
92063SOL    HW277964  10.726   0.451  12.614
92064SOL     OW77965   7.792   8.747   7.091
92064SOL    HW177966   7.847   8.811   7.135
92064SOL    HW277967   7.703   8.778   7.106
92065SOL     OW77968   0.721   9.283   7.775
92065SOL    HW177969   0.811   9.252   7.774
92065SOL    HW277970   0.715   9.337   7.854
92066SOL     OW77971  14.466  14.371   9.464
92066SOL    HW177972  14.507  14.312   9.401
92066SOL    HW277973  14.372  14.352   9.456
92067SOL     OW77974   3.534   5.593   1.700
92067SOL    HW177975   3.535   5.535   1.623
92067SOL    HW277976   3.626   5.603   1.723
92068SOL     OW77977  11.739   2.635   5.224
92068SOL    HW177978  11.793   2.652   5.302
92068SOL    HW277979  11.713   2.723   5.195
92069SOL     OW77980   3.076   3.711   9.139
92069SOL    HW177981   3.033   3.756   9.066
92069SOL    HW277982   3.008   3.705   9.206
92070SOL     OW77983   2.725   6.077  12.225
92070SOL    HW177984   2.633   6.064  12.202
92070SOL    HW277985   2.729   6.168  12.253
92071SOL     OW77986  13.594   3.903  10.768
92071SOL    HW177987  13.502   3.901  10.795
92071SOL    HW277988  13.623   3.991  10.790
92072SOL     OW77989   1.825   4.065  14.324
92072SOL    HW177990   1.865   4.100  14.244
92072SOL    HW277991   1.777   3.988  14.295
92073SOL     OW77992   9.405   2.955   6.867
92073SOL    HW177993   9.312   2.952   6.887
92073SOL    HW277994   9.447   2.922   6.947
92074SOL     OW77995   9.895   4.170  12.952
92074SOL    HW177996   9.828   4.163  12.884
92074SOL    HW277997   9.943   4.250  12.930
92075SOL     OW77998   6.297   1.548   6.277
92075SOL    HW177999   6.236   1.475   6.290
92075SOL    HW278000   6.368   1.532   6.339
92076SOL     OW78001   3.769  11.382  10.980
92076SOL    HW178002   3.761  11.476  10.970
92076SOL    HW278003   3.858  11.369  11.015
92077SOL     OW78004  12.334   0.491  11.692
92077SOL    HW178005  12.258   0.543  11.720
92077SOL    HW278006  12.330   0.493  11.597
92078SOL     OW78007   5.858  11.414  10.521
92078SOL    HW178008   5.883  11.331  10.481
92078SOL    HW278009   5.908  11.417  10.603
92079SOL     OW78010   8.693  11.452  13.360
92079SOL    HW178011   8.635  11.389  13.316
92079SOL    HW278012   8.780  11.430  13.328
92080SOL     OW78013  12.312   1.011   5.023
92080SOL    HW178014  12.364   0.963   4.959
92080SOL    HW278015  12.245   1.057   4.972
92081SOL     OW78016   6.011   9.492  12.391
92081SOL    HW178017   5.958   9.444  12.455
92081SOL    HW278018   5.948   9.527  12.329
92082SOL     OW78019   0.503   8.425  12.605
92082SOL    HW178020   0.419   8.381  12.591
92082SOL    HW278021   0.504   8.446  12.699
92083SOL     OW78022   0.556  11.440   7.424
92083SOL    HW178023   0.627  11.403   7.372
92083SOL    HW278024   0.550  11.531   7.395
92084SOL     OW78025  10.718  14.573  11.516
92084SOL    HW178026  10.704  14.667  11.521
92084SOL    HW278027  10.752  14.558  11.427
92085SOL     OW78028   1.859  12.263   2.640
92085SOL    HW178029   1.883  12.180   2.600
92085SOL    HW278030   1.772  12.283   2.604
92086SOL     OW78031   9.976  13.273  10.949
92086SOL    HW178032   9.966  13.178  10.942
92086SOL    HW278033   9.906  13.309  10.893
92087SOL     OW78034  13.938  14.227   6.205
92087SOL    HW178035  13.903  14.294   6.147
92087SOL    HW278036  13.861  14.178   6.234
92088SOL     OW78037  10.266   8.320  12.226
92088SOL    HW178038  10.190   8.263  12.232
92088SOL    HW278039  10.340   8.260  12.209
92089SOL     OW78040   8.956   3.485   6.863
92089SOL    HW178041   8.988   3.526   6.782
92089SOL    HW278042   9.035   3.454   6.907
92090SOL     OW78043   3.395   2.158  14.160
92090SOL    HW178044   3.307   2.173  14.125
92090SOL    HW278045   3.453   2.204  14.099
92091SOL     OW78046   8.230   7.119  13.520
92091SOL    HW178047   8.246   7.200  13.569
92091SOL    HW278048   8.196   7.149  13.435
92092SOL     OW78049  10.806   5.704   5.012
92092SOL    HW178050  10.805   5.611   4.987
92092SOL    HW278051  10.856   5.707   5.093
92093SOL     OW78052   0.094   3.938   7.366
92093SOL    HW178053   0.114   3.917   7.275
92093SOL    HW278054   0.012   3.987   7.362
92094SOL     OW78055   6.781   2.470   9.022
92094SOL    HW178056   6.709   2.531   9.039
92094SOL    HW278057   6.799   2.431   9.108
92095SOL     OW78058   2.005   0.788   4.687
92095SOL    HW178059   1.976   0.718   4.744
92095SOL    HW278060   2.085   0.821   4.727
92096SOL     OW78061   4.536   4.959   2.297
92096SOL    HW178062   4.492   4.878   2.322
92096SOL    HW278063   4.533   5.013   2.376
92097SOL     OW78064  12.238  13.931  14.480
92097SOL    HW178065  12.273  13.857  14.430
92097SOL    HW278066  12.235  13.899  14.571
92098SOL     OW78067   6.971   5.925  11.954
92098SOL    HW178068   7.012   6.011  11.941
92098SOL    HW278069   7.017   5.888  12.030
92099SOL     OW78070   8.742  14.630   5.567
92099SOL    HW178071   8.753  14.605   5.475
92099SOL    HW278072   8.829  14.656   5.596
92100SOL     OW78073   3.350   1.212  13.421
92100SOL    HW178074   3.283   1.147  13.443
92100SOL    HW278075   3.432   1.163  13.422
92101SOL     OW78076  11.795   5.560   7.924
92101SOL    HW178077  11.818   5.471   7.948
92101SOL    HW278078  11.878   5.600   7.898
92102SOL     OW78079   9.804   6.392   8.881
92102SOL    HW178080   9.766   6.452   8.945
92102SOL    HW278081   9.799   6.306   8.921
92103SOL     OW78082  11.254   1.301  12.545
92103SOL    HW178083  11.280   1.320  12.635
92103SOL    HW278084  11.246   1.388  12.504
92104SOL     OW78085   0.053  14.517  14.505
92104SOL    HW178086   0.143  14.549  14.503
92104SOL    HW278087   0.060  14.426  14.536
92105SOL     OW78088   9.067  14.045  12.767
92105SOL    HW178089   8.982  14.063  12.727
92105SOL    HW278090   9.118  14.003  12.697
92106SOL     OW78091   5.390  13.167   2.904
92106SOL    HW178092   5.339  13.111   2.846
92106SOL    HW278093   5.340  13.169   2.986
92107SOL     OW78094  11.889   7.213  12.821
92107SOL    HW178095  11.861   7.218  12.730
92107SOL    HW278096  11.856   7.129  12.852
92108SOL     OW78097   1.030   8.788  11.289
92108SOL    HW178098   1.027   8.707  11.340
92108SOL    HW278099   0.980   8.768  11.209
92109SOL     OW78100  14.408  12.929  10.964
92109SOL    HW178101  14.394  12.852  10.908
92109SOL    HW278102  14.372  12.904  11.049
92110SOL     OW78103   1.794   7.326   1.591
92110SOL    HW178104   1.767   7.244   1.551
92110SOL    HW278105   1.823   7.302   1.679
92111SOL     OW78106   3.010   5.028  10.752
92111SOL    HW178107   3.071   5.028  10.678
92111SOL    HW278108   3.060   4.994  10.825
92112SOL     OW78109   6.881   1.486  11.844
92112SOL    HW178110   6.814   1.548  11.873
92112SOL    HW278111   6.949   1.490  11.911
92113SOL     OW78112  10.282  10.542   6.863
92113SOL    HW178113  10.280  10.565   6.956
92113SOL    HW278114  10.328  10.615   6.822
92114SOL     OW78115   1.279   3.693   2.907
92114SOL    HW178116   1.348   3.746   2.868
92114SOL    HW278117   1.201   3.748   2.901
92115SOL     OW78118  14.501   2.907   6.719
92115SOL    HW178119  14.477   2.952   6.638
92115SOL    HW278120  14.593   2.930   6.733
92116SOL     OW78121  10.385   0.451   4.419
92116SOL    HW178122  10.458   0.391   4.433
92116SOL    HW278123  10.426   0.530   4.384
92117SOL     OW78124   6.946   7.057  14.161
92117SOL    HW178125   7.032   7.098  14.147
92117SOL    HW278126   6.965   6.964  14.167
92118SOL     OW78127   5.061   4.674   6.753
92118SOL    HW178128   4.966   4.676   6.768
92118SOL    HW278129   5.094   4.753   6.796
92119SOL     OW78130   1.235   7.601   0.376
92119SOL    HW178131   1.317   7.583   0.329
92119SOL    HW278132   1.167   7.582   0.312
92120SOL     OW78133  12.260   1.254   1.559
92120SOL    HW178134  12.342   1.216   1.528
92120SOL    HW278135  12.286   1.318   1.624
92121SOL     OW78136  13.316  13.215   5.836
92121SOL    HW178137  13.351  13.219   5.925
92121SOL    HW278138  13.323  13.305   5.803
92122SOL     OW78139   6.388   6.243  13.302
92122SOL    HW178140   6.426   6.233  13.214
92122SOL    HW278141   6.402   6.335  13.323
92123SOL     OW78142  11.804  14.389   5.420
92123SOL    HW178143  11.873  14.415   5.482
92123SOL    HW278144  11.753  14.469   5.407
92124SOL     OW78145   2.923   8.184  14.372
92124SOL    HW178146   2.918   8.270  14.331
92124SOL    HW278147   3.002   8.145  14.335
92125SOL     OW78148   3.795   3.568   9.803
92125SOL    HW178149   3.788   3.647   9.749
92125SOL    HW278150   3.810   3.498   9.741
92126SOL     OW78151   4.740   5.466  11.522
92126SOL    HW178152   4.784   5.538  11.477
92126SOL    HW278153   4.806   5.431  11.582
92127SOL     OW78154   9.532   2.487  14.666
92127SOL    HW178155   9.540   2.463  14.758
92127SOL    HW278156   9.502   2.407  14.623
92128SOL     OW78157   3.676   9.157   8.288
92128SOL    HW178158   3.591   9.118   8.307
92128SOL    HW278159   3.710   9.106   8.214
92129SOL     OW78160  10.053   6.079  12.873
92129SOL    HW178161  10.038   5.987  12.897
92129SOL    HW278162   9.969   6.110  12.840
92130SOL     OW78163   1.608  11.092   4.083
92130SOL    HW178164   1.645  11.021   4.135
92130SOL    HW278165   1.679  11.156   4.075
92131SOL     OW78166   5.900   0.202   8.516
92131SOL    HW178167   5.825   0.261   8.524
92131SOL    HW278168   5.864   0.115   8.533
92132SOL     OW78169  14.379  11.121  10.380
92132SOL    HW178170  14.356  11.031  10.354
92132SOL    HW278171  14.450  11.110  10.443
92133SOL     OW78172   8.410   0.312   4.181
92133SOL    HW178173   8.427   0.276   4.094
92133SOL    HW278174   8.419   0.238   4.240
92134SOL     OW78175  13.236   3.122   3.825
92134SOL    HW178176  13.198   3.047   3.870
92134SOL    HW278177  13.328   3.121   3.851
92135SOL     OW78178  13.240   6.082   9.136
92135SOL    HW178179  13.258   6.104   9.044
92135SOL    HW278180  13.229   6.167   9.179
92136SOL     OW78181   2.973   0.199   7.169
92136SOL    HW178182   3.021   0.155   7.239
92136SOL    HW278183   2.930   0.129   7.121
92137SOL     OW78184   0.085   8.726   7.025
92137SOL    HW178185   0.062   8.678   6.946
92137SOL    HW278186   0.127   8.806   6.993
92138SOL     OW78187   0.201   6.339  12.902
92138SOL    HW178188   0.199   6.334  12.997
92138SOL    HW278189   0.246   6.421  12.882
92139SOL     OW78190  12.493  10.753  14.558
92139SOL    HW178191  12.435  10.681  14.533
92139SOL    HW278192  12.564  10.751  14.495
92140SOL     OW78193   3.133  14.761  12.975
92140SOL    HW178194   3.198  14.697  12.946
92140SOL    HW278195   3.061  14.752  12.914
92141SOL     OW78196   9.221  14.494   2.720
92141SOL    HW178197   9.170  14.571   2.693
92141SOL    HW278198   9.306  14.505   2.677
92142SOL     OW78199   6.911   3.344   2.293
92142SOL    HW178200   6.973   3.416   2.279
92142SOL    HW278201   6.831   3.374   2.251
92143SOL     OW78202   8.852  14.379   6.146
92143SOL    HW178203   8.825  14.395   6.056
92143SOL    HW278204   8.882  14.288   6.147
92144SOL     OW78205   3.485   3.778   3.385
92144SOL    HW178206   3.536   3.714   3.335
92144SOL    HW278207   3.455   3.841   3.319
92145SOL     OW78208   8.324   9.116   6.411
92145SOL    HW178209   8.349   9.072   6.330
92145SOL    HW278210   8.252   9.062   6.446
92146SOL     OW78211  10.279   6.103   8.486
92146SOL    HW178212  10.347   6.167   8.510
92146SOL    HW278213  10.308   6.069   8.401
92147SOL     OW78214   7.084   8.348  10.601
92147SOL    HW178215   7.013   8.406  10.628
92147SOL    HW278216   7.061   8.263  10.640
92148SOL     OW78217   0.976   9.261  10.735
92148SOL    HW178218   1.048   9.280  10.676
92148SOL    HW278219   0.998   9.176  10.774
92149SOL     OW78220  12.855   2.439   9.719
92149SOL    HW178221  12.837   2.440   9.813
92149SOL    HW278222  12.768   2.442   9.679
92150SOL     OW78223   8.552   2.160   8.340
92150SOL    HW178224   8.585   2.240   8.300
92150SOL    HW278225   8.539   2.182   8.432
92151SOL     OW78226   3.294  14.206   8.182
92151SOL    HW178227   3.322  14.296   8.163
92151SOL    HW278228   3.287  14.203   8.277
92152SOL     OW78229  11.593   9.873   9.985
92152SOL    HW178230  11.618   9.884   9.894
92152SOL    HW278231  11.528   9.802   9.984
92153SOL     OW78232  13.567   6.149  13.106
92153SOL    HW178233  13.476   6.119  13.110
92153SOL    HW278234  13.562   6.243  13.122
92154SOL     OW78235   1.557   7.788  12.123
92154SOL    HW178236   1.646   7.759  12.103
92154SOL    HW278237   1.503   7.754  12.052
92155SOL     OW78238   2.998   7.020   7.609
92155SOL    HW178239   2.943   7.014   7.687
92155SOL    HW278240   2.935   7.031   7.537
92156SOL     OW78241   7.338   7.885   7.179
92156SOL    HW178242   7.244   7.872   7.188
92156SOL    HW278243   7.370   7.804   7.140
92157SOL     OW78244  11.005   3.061   1.154
92157SOL    HW178245  10.978   3.151   1.170
92157SOL    HW278246  11.089   3.069   1.108
92158SOL     OW78247   6.416   3.744   0.416
92158SOL    HW178248   6.476   3.761   0.489
92158SOL    HW278249   6.450   3.664   0.376
92159SOL     OW78250   1.969   6.545   7.342
92159SOL    HW178251   1.878   6.563   7.319
92159SOL    HW278252   1.970   6.550   7.438
92160SOL     OW78253   5.603  10.003   3.713
92160SOL    HW178254   5.572   9.943   3.645
92160SOL    HW278255   5.593  10.090   3.675
92161SOL     OW78256   7.583   0.753   8.779
92161SOL    HW178257   7.598   0.671   8.827
92161SOL    HW278258   7.578   0.727   8.687
92162SOL     OW78259   3.087   9.108   7.994
92162SOL    HW178260   3.107   9.183   8.050
92162SOL    HW278261   3.089   9.142   7.905
92163SOL     OW78262   2.275   1.238  11.353
92163SOL    HW178263   2.220   1.162  11.372
92163SOL    HW278264   2.217   1.313  11.365
92164SOL     OW78265   5.857   9.795   3.443
92164SOL    HW178266   5.860   9.865   3.378
92164SOL    HW278267   5.767   9.797   3.476
92165SOL     OW78268   5.557  14.258   2.788
92165SOL    HW178269   5.599  14.326   2.735
92165SOL    HW278270   5.533  14.190   2.726
92166SOL     OW78271  11.883   2.830   5.695
92166SOL    HW178272  11.808   2.885   5.720
92166SOL    HW278273  11.861   2.797   5.608
92167SOL     OW78274   1.008   2.223  14.758
92167SOL    HW178275   1.024   2.131  14.740
92167SOL    HW278276   1.088   2.253  14.803
92168SOL     OW78277   8.817   1.072   8.991
92168SOL    HW178278   8.862   1.156   8.997
92168SOL    HW278279   8.857   1.019   9.060
92169SOL     OW78280   1.184   9.146   1.522
92169SOL    HW178281   1.255   9.139   1.587
92169SOL    HW278282   1.230   9.158   1.439
92170SOL     OW78283   9.833   5.199  11.417
92170SOL    HW178284   9.838   5.294  11.431
92170SOL    HW278285   9.908   5.164  11.465
92171SOL     OW78286   3.203   2.163   1.755
92171SOL    HW178287   3.224   2.206   1.838
92171SOL    HW278288   3.167   2.078   1.781
92172SOL     OW78289  12.614  14.295  13.738
92172SOL    HW178290  12.655  14.219  13.696
92172SOL    HW278291  12.682  14.330  13.795
92173SOL     OW78292   6.178   9.950  10.519
92173SOL    HW178293   6.250   9.974  10.577
92173SOL    HW278294   6.221   9.906  10.445
92174SOL     OW78295   6.215  14.012   1.645
92174SOL    HW178296   6.282  14.029   1.712
92174SOL    HW278297   6.260  13.960   1.579
92175SOL     OW78298   9.469   4.354   5.491
92175SOL    HW178299   9.491   4.371   5.583
92175SOL    HW278300   9.494   4.263   5.476
92176SOL     OW78301  10.966   2.477  10.953
92176SOL    HW178302  11.046   2.428  10.934
92176SOL    HW278303  10.914   2.419  11.008
92177SOL     OW78304   9.383   5.650   1.802
92177SOL    HW178305   9.420   5.711   1.865
92177SOL    HW278306   9.428   5.567   1.819
92178SOL     OW78307   8.578   4.785   2.308
92178SOL    HW178308   8.618   4.831   2.382
92178SOL    HW278309   8.652   4.757   2.254
92179SOL     OW78310   2.018   4.412  10.418
92179SOL    HW178311   2.033   4.501  10.386
92179SOL    HW278312   1.923   4.400  10.412
92180SOL     OW78313   7.737   9.208   5.451
92180SOL    HW178314   7.766   9.256   5.528
92180SOL    HW278315   7.653   9.169   5.477
92181SOL     OW78316   4.554   9.690   4.716
92181SOL    HW178317   4.601   9.768   4.747
92181SOL    HW278318   4.465   9.702   4.748
92182SOL     OW78319   9.167   6.921   9.005
92182SOL    HW178320   9.244   6.930   9.061
92182SOL    HW278321   9.135   6.833   9.024
92183SOL     OW78322   0.996   1.615   3.531
92183SOL    HW178323   0.960   1.538   3.576
92183SOL    HW278324   1.039   1.579   3.453
92184SOL     OW78325  14.445  13.364  14.761
92184SOL    HW178326  14.493  13.426  14.706
92184SOL    HW278327  14.511  13.330  14.822
92185SOL     OW78328  10.713   8.915   7.992
92185SOL    HW178329  10.683   8.914   8.083
92185SOL    HW278330  10.643   8.961   7.945
92186SOL     OW78331  14.834   0.763  13.572
92186SOL    HW178332  14.751   0.726  13.602
92186SOL    HW278333   0.017   0.689  13.571
92187SOL     OW78334   1.366   8.805   5.415
92187SOL    HW178335   1.373   8.884   5.361
92187SOL    HW278336   1.272   8.790   5.424
92188SOL     OW78337   8.970   7.712   1.225
92188SOL    HW178338   8.961   7.675   1.312
92188SOL    HW278339   9.064   7.704   1.205
92189SOL     OW78340   6.925   4.167  11.011
92189SOL    HW178341   6.986   4.094  11.023
92189SOL    HW278342   6.942   4.226  11.084
92190SOL     OW78343  14.734   6.148   9.167
92190SOL    HW178344  14.830   6.152   9.167
92190SOL    HW278345  14.706   6.238   9.184
92191SOL     OW78346   3.193   4.788  12.906
92191SOL    HW178347   3.203   4.836  12.824
92191SOL    HW278348   3.280   4.789  12.945
92192SOL     OW78349  11.256  11.906  13.792
92192SOL    HW178350  11.292  11.915  13.880
92192SOL    HW278351  11.169  11.868  13.804
92193SOL     OW78352   1.212   5.985   0.384
92193SOL    HW178353   1.181   6.015   0.299
92193SOL    HW278354   1.268   5.910   0.365
92194SOL     OW78355   7.793  12.142   2.863
92194SOL    HW178356   7.878  12.162   2.822
92194SOL    HW278357   7.761  12.227   2.894
92195SOL     OW78358   0.546   1.859  11.103
92195SOL    HW178359   0.511   1.899  11.182
92195SOL    HW278360   0.597   1.928  11.061
92196SOL     OW78361   6.631  10.564   6.335
92196SOL    HW178362   6.578  10.639   6.361
92196SOL    HW278363   6.678  10.539   6.415
92197SOL     OW78364   1.401   3.893  12.135
92197SOL    HW178365   1.423   3.855  12.050
92197SOL    HW278366   1.358   3.976  12.113
92198SOL     OW78367   7.070   1.526   6.598
92198SOL    HW178368   6.982   1.564   6.604
92198SOL    HW278369   7.121   1.575   6.663
92199SOL     OW78370   1.109   3.148   8.412
92199SOL    HW178371   1.068   3.202   8.344
92199SOL    HW278372   1.142   3.071   8.366
92200SOL     OW78373  10.092   6.213   0.889
92200SOL    HW178374  10.071   6.212   0.796
92200SOL    HW278375  10.007   6.207   0.932
92201SOL     OW78376   6.355   6.208   8.158
92201SOL    HW178377   6.416   6.163   8.218
92201SOL    HW278378   6.272   6.209   8.206
92202SOL     OW78379   8.053   2.154  12.247
92202SOL    HW178380   8.014   2.217  12.308
92202SOL    HW278381   8.145   2.180  12.242
92203SOL     OW78382   7.363   0.296   7.181
92203SOL    HW178383   7.345   0.390   7.172
92203SOL    HW278384   7.437   0.280   7.122
92204SOL     OW78385  14.469   1.667   0.755
92204SOL    HW178386  14.490   1.752   0.716
92204SOL    HW278387  14.458   1.609   0.680
92205SOL     OW78388  12.685  12.525  10.544
92205SOL    HW178389  12.604  12.477  10.562
92205SOL    HW278390  12.696  12.582  10.621
92206SOL     OW78391   3.189   0.558  12.483
92206SOL    HW178392   3.193   0.464  12.467
92206SOL    HW278393   3.182   0.566  12.578
92207SOL     OW78394   8.311   6.608   7.508
92207SOL    HW178395   8.324   6.701   7.527
92207SOL    HW278396   8.397   6.577   7.481
92208SOL     OW78397   7.166  12.851   3.020
92208SOL    HW178398   7.189  12.941   2.999
92208SOL    HW278399   7.156  12.851   3.116
92209SOL     OW78400  12.020   3.517  11.355
92209SOL    HW178401  12.055   3.453  11.416
92209SOL    HW278402  11.936   3.542  11.392
92210SOL     OW78403   7.783   9.578   8.549
92210SOL    HW178404   7.742   9.659   8.579
92210SOL    HW278405   7.714   9.534   8.499
92211SOL     OW78406   4.587   3.370   1.181
92211SOL    HW178407   4.681   3.358   1.195
92211SOL    HW278408   4.560   3.432   1.249
92212SOL     OW78409  10.287   9.841   3.880
92212SOL    HW178410  10.238   9.800   3.952
92212SOL    HW278411  10.252   9.801   3.801
92213SOL     OW78412   3.113   2.902   4.507
92213SOL    HW178413   3.133   2.980   4.456
92213SOL    HW278414   3.085   2.837   4.443
92214SOL     OW78415  10.156   2.366   7.855
92214SOL    HW178416  10.099   2.290   7.847
92214SOL    HW278417  10.238   2.340   7.814
92215SOL     OW78418  10.376   6.484   4.204
92215SOL    HW178419  10.371   6.410   4.144
92215SOL    HW278420  10.466   6.515   4.196
92216SOL     OW78421   5.940   5.319   1.163
92216SOL    HW178422   5.917   5.403   1.202
92216SOL    HW278423   6.002   5.341   1.093
92217SOL     OW78424   0.289   9.049   9.261
92217SOL    HW178425   0.279   8.980   9.327
92217SOL    HW278426   0.201   9.083   9.248
92218SOL     OW78427   6.035   5.549  13.802
92218SOL    HW178428   6.099   5.480  13.820
92218SOL    HW278429   6.081   5.610  13.744
92219SOL     OW78430   1.004   4.915   7.789
92219SOL    HW178431   0.934   4.850   7.782
92219SOL    HW278432   1.055   4.905   7.708
92220SOL     OW78433  11.947   9.952  14.510
92220SOL    HW178434  11.868  10.006  14.503
92220SOL    HW278435  11.956   9.936  14.604
92221SOL     OW78436  13.261  14.430   9.118
92221SOL    HW178437  13.186  14.486   9.095
92221SOL    HW278438  13.285  14.457   9.206
92222SOL     OW78439  14.002   0.080   2.611
92222SOL    HW178440  13.925   0.108   2.661
92222SOL    HW278441  14.001  14.862   2.617
92223SOL     OW78442   8.835   7.384   5.677
92223SOL    HW178443   8.775   7.429   5.736
92223SOL    HW278444   8.790   7.382   5.593
92224SOL     OW78445   8.443   2.152  12.028
92224SOL    HW178446   8.487   2.104  11.958
92224SOL    HW278447   8.395   2.085  12.077
92225SOL     OW78448   6.331   1.277   5.074
92225SOL    HW178449   6.297   1.187   5.064
92225SOL    HW278450   6.402   1.283   5.010
92226SOL     OW78451  11.582   0.695   7.737
92226SOL    HW178452  11.621   0.774   7.775
92226SOL    HW278453  11.655   0.634   7.726
92227SOL     OW78454   2.592  13.580   0.645
92227SOL    HW178455   2.594  13.676   0.647
92227SOL    HW278456   2.523  13.560   0.581
92228SOL     OW78457  11.756  14.715   4.457
92228SOL    HW178458  11.780  14.807   4.469
92228SOL    HW278459  11.798  14.669   4.529
92229SOL     OW78460   6.472   9.512   3.589
92229SOL    HW178461   6.547   9.570   3.577
92229SOL    HW278462   6.498   9.455   3.661
92230SOL     OW78463   5.301   3.009  13.797
92230SOL    HW178464   5.295   3.060  13.878
92230SOL    HW278465   5.303   2.918  13.826
92231SOL     OW78466   9.281   1.336   3.741
92231SOL    HW178467   9.362   1.287   3.753
92231SOL    HW278468   9.225   1.279   3.688
92232SOL     OW78469   2.279   4.364   2.307
92232SOL    HW178470   2.292   4.452   2.344
92232SOL    HW278471   2.184   4.355   2.298
92233SOL     OW78472   0.583   4.484   4.122
92233SOL    HW178473   0.523   4.461   4.051
92233SOL    HW278474   0.583   4.580   4.123
92234SOL     OW78475  11.198   3.009   1.867
92234SOL    HW178476  11.118   2.963   1.894
92234SOL    HW278477  11.166   3.092   1.832
92235SOL     OW78478   0.469  13.948   4.249
92235SOL    HW178479   0.557  13.944   4.286
92235SOL    HW278480   0.427  14.020   4.296
92236SOL     OW78481   4.354  14.757   4.354
92236SOL    HW178482   4.267  14.790   4.379
92236SOL    HW278483   4.402  14.750   4.436
92237SOL     OW78484   0.510   2.162   2.912
92237SOL    HW178485   0.576   2.214   2.867
92237SOL    HW278486   0.557   2.122   2.986
92238SOL     OW78487  13.811   0.990   8.201
92238SOL    HW178488  13.805   1.024   8.111
92238SOL    HW278489  13.774   0.902   8.196
92239SOL     OW78490  11.302   1.283   4.075
92239SOL    HW178491  11.224   1.230   4.056
92239SOL    HW278492  11.278   1.334   4.152
92240SOL     OW78493   5.884  11.222   6.112
92240SOL    HW178494   5.841  11.161   6.052
92240SOL    HW278495   5.849  11.200   6.198
92241SOL     OW78496  12.216   7.087   4.638
92241SOL    HW178497  12.230   7.122   4.550
92241SOL    HW278498  12.304   7.069   4.671
92242SOL     OW78499   0.435   8.511   6.790
92242SOL    HW178500   0.387   8.594   6.785
92242SOL    HW278501   0.369   8.444   6.775
92243SOL     OW78502  10.866   1.418  10.538
92243SOL    HW178503  10.811   1.345  10.510
92243SOL    HW278504  10.858   1.483  10.467
92244SOL     OW78505  13.759  14.622  13.057
92244SOL    HW178506  13.723  14.537  13.034
92244SOL    HW278507  13.780  14.615  13.150
92245SOL     OW78508   2.910   9.917   7.460
92245SOL    HW178509   2.969   9.926   7.385
92245SOL    HW278510   2.934   9.990   7.518
92246SOL     OW78511   0.091  10.181   2.933
92246SOL    HW178512   0.144  10.109   2.967
92246SOL    HW278513   0.026  10.197   3.003
92247SOL     OW78514   4.883   5.229  14.122
92247SOL    HW178515   4.792   5.249  14.147
92247SOL    HW278516   4.930   5.311  14.134
92248SOL     OW78517   4.044  11.342   9.981
92248SOL    HW178518   4.075  11.424   9.944
92248SOL    HW278519   3.981  11.368  10.049
92249SOL     OW78520   4.878   2.552  10.711
92249SOL    HW178521   4.923   2.637  10.710
92249SOL    HW278522   4.808   2.561  10.647
92250SOL     OW78523  13.182   8.937  10.508
92250SOL    HW178524  13.248   8.888  10.556
92250SOL    HW278525  13.098   8.901  10.537
92251SOL     OW78526   0.291   7.624   1.115
92251SOL    HW178527   0.304   7.690   1.046
92251SOL    HW278528   0.212   7.652   1.160
92252SOL     OW78529  10.935   5.847   9.792
92252SOL    HW178530  10.845   5.873   9.771
92252SOL    HW278531  10.932   5.751   9.795
92253SOL     OW78532   7.793  13.859  11.203
92253SOL    HW178533   7.743  13.931  11.241
92253SOL    HW278534   7.870  13.901  11.164
92254SOL     OW78535  10.551   6.614  10.579
92254SOL    HW178536  10.498   6.690  10.600
92254SOL    HW278537  10.498   6.539  10.608
92255SOL     OW78538  12.236   5.283  12.727
92255SOL    HW178539  12.236   5.188  12.741
92255SOL    HW278540  12.323   5.311  12.757
92256SOL     OW78541  10.305   0.256   9.868
92256SOL    HW178542  10.369   0.240   9.937
92256SOL    HW278543  10.222   0.266   9.915
92257SOL     OW78544   4.021   7.629   4.905
92257SOL    HW178545   4.029   7.611   4.998
92257SOL    HW278546   4.020   7.725   4.899
92258SOL     OW78547   7.263   4.159   4.978
92258SOL    HW178548   7.239   4.232   5.035
92258SOL    HW278549   7.307   4.097   5.036
92259SOL     OW78550   2.809   1.390  13.762
92259SOL    HW178551   2.788   1.419  13.850
92259SOL    HW278552   2.898   1.423  13.746
92260SOL     OW78553   1.945   5.326   1.077
92260SOL    HW178554   1.950   5.249   1.020
92260SOL    HW278555   2.026   5.374   1.059
92261SOL     OW78556  12.315   1.137   9.152
92261SOL    HW178557  12.244   1.073   9.157
92261SOL    HW278558  12.273   1.221   9.166
92262SOL     OW78559  12.402  10.661   6.505
92262SOL    HW178560  12.477  10.713   6.475
92262SOL    HW278561  12.367  10.710   6.579
92263SOL     OW78562   6.438  13.795  12.558
92263SOL    HW178563   6.445  13.748  12.641
92263SOL    HW278564   6.524  13.784  12.517
92264SOL     OW78565  11.118   1.400  11.007
92264SOL    HW178566  11.152   1.424  11.093
92264SOL    HW278567  11.147   1.470  10.948
92265SOL     OW78568   2.275   3.082   1.971
92265SOL    HW178569   2.333   3.156   1.992
92265SOL    HW278570   2.314   3.042   1.893
92266SOL     OW78571  11.424   3.670   0.649
92266SOL    HW178572  11.492   3.614   0.612
92266SOL    HW278573  11.364   3.610   0.693
92267SOL     OW78574   6.772   2.152   1.803
92267SOL    HW178575   6.693   2.151   1.747
92267SOL    HW278576   6.787   2.060   1.824
92268SOL     OW78577  10.281  14.281  14.006
92268SOL    HW178578  10.329  14.358  14.036
92268SOL    HW278579  10.261  14.232  14.086
92269SOL     OW78580   0.724   8.514   0.380
92269SOL    HW178581   0.806   8.521   0.429
92269SOL    HW278582   0.692   8.604   0.374
92270SOL     OW78583   2.547   9.954  14.332
92270SOL    HW178584   2.641   9.960  14.313
92270SOL    HW278585   2.505  10.002  14.260
92271SOL     OW78586   1.552   5.110  11.191
92271SOL    HW178587   1.530   5.042  11.254
92271SOL    HW278588   1.639   5.139  11.217
92272SOL     OW78589   8.224  12.752   3.331
92272SOL    HW178590   8.307  12.724   3.293
92272SOL    HW278591   8.245  12.834   3.376
92273SOL     OW78592  13.638   6.463  12.479
92273SOL    HW178593  13.706   6.491  12.418
92273SOL    HW278594  13.686   6.418  12.549
92274SOL     OW78595   3.406   7.836   6.908
92274SOL    HW178596   3.438   7.751   6.877
92274SOL    HW278597   3.316   7.819   6.937
92275SOL     OW78598   2.226   9.022   8.447
92275SOL    HW178599   2.179   9.105   8.437
92275SOL    HW278600   2.187   8.981   8.524
92276SOL     OW78601   6.737   1.109   1.632
92276SOL    HW178602   6.703   1.047   1.697
92276SOL    HW278603   6.720   1.068   1.548
92277SOL     OW78604   9.438   7.936   4.095
92277SOL    HW178605   9.469   8.026   4.083
92277SOL    HW278606   9.453   7.917   4.187
92278SOL     OW78607   8.859   2.242  13.948
92278SOL    HW178608   8.895   2.206  14.029
92278SOL    HW278609   8.766   2.254  13.966
92279SOL     OW78610   6.819   9.395   1.533
92279SOL    HW178611   6.733   9.435   1.526
92279SOL    HW278612   6.849   9.386   1.443
92280SOL     OW78613   4.825  12.816   8.667
92280SOL    HW178614   4.851  12.870   8.742
92280SOL    HW278615   4.758  12.758   8.701
92281SOL     OW78616   2.136  11.003  12.311
92281SOL    HW178617   2.173  10.998  12.223
92281SOL    HW278618   2.201  11.052  12.361
92282SOL     OW78619   7.724  12.574   9.705
92282SOL    HW178620   7.793  12.555   9.769
92282SOL    HW278621   7.770  12.583   9.622
92283SOL     OW78622  12.214  12.651   6.025
92283SOL    HW178623  12.204  12.706   6.102
92283SOL    HW278624  12.309  12.640   6.015
92284SOL     OW78625   5.514   9.043  11.696
92284SOL    HW178626   5.454   9.117  11.701
92284SOL    HW278627   5.487   8.996  11.617
92285SOL     OW78628   3.460  12.095  10.937
92285SOL    HW178629   3.542  12.094  10.985
92285SOL    HW278630   3.430  12.004  10.938
92286SOL     OW78631  13.422   9.481  14.446
92286SOL    HW178632  13.445   9.553  14.505
92286SOL    HW278633  13.327   9.488  14.437
92287SOL     OW78634   7.529   4.543  11.696
92287SOL    HW178635   7.459   4.542  11.761
92287SOL    HW278636   7.598   4.488  11.733
92288SOL     OW78637   5.389   8.389   4.150
92288SOL    HW178638   5.335   8.315   4.178
92288SOL    HW278639   5.329   8.448   4.107
92289SOL     OW78640   7.255   9.278   7.784
92289SOL    HW178641   7.228   9.270   7.693
92289SOL    HW278642   7.174   9.288   7.833
92290SOL     OW78643   4.098  11.808   8.212
92290SOL    HW178644   4.184  11.769   8.202
92290SOL    HW278645   4.064  11.815   8.123
92291SOL     OW78646   1.368   7.062   9.584
92291SOL    HW178647   1.449   7.112   9.584
92291SOL    HW278648   1.315   7.102   9.653
92292SOL     OW78649   2.728  14.095  13.818
92292SOL    HW178650   2.682  14.012  13.826
92292SOL    HW278651   2.742  14.123  13.909
92293SOL     OW78652  10.385  11.971   2.832
92293SOL    HW178653  10.397  11.876   2.837
92293SOL    HW278654  10.414  12.003   2.918
92294SOL     OW78655   6.006   3.139   6.636
92294SOL    HW178656   6.085   3.096   6.668
92294SOL    HW278657   5.937   3.113   6.698
92295SOL     OW78658  12.490   7.065   4.679
92295SOL    HW178659  12.578   7.091   4.706
92295SOL    HW278660  12.501   6.978   4.640
92296SOL     OW78661  13.796   2.963   8.462
92296SOL    HW178662  13.844   2.959   8.545
92296SOL    HW278663  13.767   2.874   8.446
92297SOL     OW78664  12.379   7.088   9.723
92297SOL    HW178665  12.402   6.997   9.707
92297SOL    HW278666  12.343   7.118   9.640
92298SOL     OW78667   8.453   2.698   6.691
92298SOL    HW178668   8.515   2.769   6.706
92298SOL    HW278669   8.460   2.680   6.597
92299SOL     OW78670  10.583   9.497   3.586
92299SOL    HW178671  10.548   9.474   3.500
92299SOL    HW278672  10.650   9.563   3.567
92300SOL     OW78673  10.601   5.880   0.635
92300SOL    HW178674  10.563   5.808   0.585
92300SOL    HW278675  10.694   5.857   0.642
92301SOL     OW78676   6.098  10.924   1.831
92301SOL    HW178677   6.077  10.976   1.909
92301SOL    HW278678   6.089  10.985   1.758
92302SOL     OW78679   7.144  12.798   1.760
92302SOL    HW178680   7.069  12.743   1.740
92302SOL    HW278681   7.127  12.879   1.712
92303SOL     OW78682   5.151   3.714  11.167
92303SOL    HW178683   5.093   3.646  11.203
92303SOL    HW278684   5.155   3.780  11.236
92304SOL     OW78685   1.501  13.433   8.397
92304SOL    HW178686   1.537  13.516   8.429
92304SOL    HW278687   1.565  13.403   8.332
92305SOL     OW78688  12.454   3.612   4.364
92305SOL    HW178689  12.505   3.661   4.428
92305SOL    HW278690  12.381   3.576   4.415
92306SOL     OW78691   2.154  14.475   8.665
92306SOL    HW178692   2.185  14.415   8.733
92306SOL    HW278693   2.118  14.550   8.714
92307SOL     OW78694   9.037  13.241   2.127
92307SOL    HW178695   9.036  13.317   2.068
92307SOL    HW278696   9.103  13.183   2.091
92308SOL     OW78697  12.304   8.350  11.877
92308SOL    HW178698  12.351   8.326  11.957
92308SOL    HW278699  12.215   8.315  11.891
92309SOL     OW78700   0.439   7.580  11.449
92309SOL    HW178701   0.521   7.566  11.401
92309SOL    HW278702   0.409   7.667  11.421
92310SOL     OW78703  14.752  14.470  14.724
92310SOL    HW178704  14.819  14.513  14.672
92310SOL    HW278705  14.744  14.383  14.686
92311SOL     OW78706   2.494   9.083   0.023
92311SOL    HW178707   2.484   9.154  14.837
92311SOL    HW278708   2.500   9.004  14.847
92312SOL     OW78709  10.383  13.171   3.025
92312SOL    HW178710  10.300  13.218   3.016
92312SOL    HW278711  10.377  13.099   2.963
92313SOL     OW78712   6.759   7.419   0.573
92313SOL    HW178713   6.797   7.500   0.539
92313SOL    HW278714   6.766   7.427   0.668
92314SOL     OW78715  11.617   5.021  13.138
92314SOL    HW178716  11.675   5.097  13.133
92314SOL    HW278717  11.541   5.046  13.085
92315SOL     OW78718   1.201   6.632   5.640
92315SOL    HW178719   1.220   6.547   5.600
92315SOL    HW278720   1.275   6.648   5.699
92316SOL     OW78721  11.149   5.733   9.431
92316SOL    HW178722  11.174   5.821   9.404
92316SOL    HW278723  11.103   5.697   9.355
92317SOL     OW78724   8.892   0.746   2.049
92317SOL    HW178725   8.801   0.722   2.068
92317SOL    HW278726   8.905   0.828   2.097
92318SOL     OW78727   8.731   6.568   9.377
92318SOL    HW178728   8.711   6.655   9.411
92318SOL    HW278729   8.690   6.508   9.439
92319SOL     OW78730   3.750   5.976   6.513
92319SOL    HW178731   3.839   5.954   6.538
92319SOL    HW278732   3.744   5.952   6.421
92320SOL     OW78733   3.914   7.710   3.045
92320SOL    HW178734   3.894   7.773   2.977
92320SOL    HW278735   3.916   7.625   3.000
92321SOL     OW78736  13.846   8.705   3.867
92321SOL    HW178737  13.846   8.697   3.963
92321SOL    HW278738  13.906   8.777   3.849
92322SOL     OW78739   9.447  12.462   6.801
92322SOL    HW178740   9.489  12.546   6.779
92322SOL    HW278741   9.379  12.452   6.734
92323SOL     OW78742   1.581  10.904  13.635
92323SOL    HW178743   1.527  10.902  13.556
92323SOL    HW278744   1.518  10.898  13.707
92324SOL     OW78745  14.463   6.919   9.024
92324SOL    HW178746  14.539   6.970   8.998
92324SOL    HW278747  14.472   6.909   9.119
92325SOL     OW78748  12.561   8.772   6.156
92325SOL    HW178749  12.626   8.803   6.219
92325SOL    HW278750  12.587   8.681   6.137
92326SOL     OW78751  11.324   3.030   5.118
92326SOL    HW178752  11.368   2.959   5.070
92326SOL    HW278753  11.390   3.099   5.124
92327SOL     OW78754  11.314   8.895   0.559
92327SOL    HW178755  11.366   8.929   0.487
92327SOL    HW278756  11.224   8.894   0.527
92328SOL     OW78757   3.561  13.166   2.867
92328SOL    HW178758   3.526  13.134   2.784
92328SOL    HW278759   3.522  13.108   2.933
92329SOL     OW78760  11.035  14.105   2.118
92329SOL    HW178761  11.017  14.128   2.209
92329SOL    HW278762  11.126  14.132   2.104
92330SOL     OW78763  11.049   6.339   9.141
92330SOL    HW178764  11.074   6.414   9.194
92330SOL    HW278765  11.132   6.305   9.107
92331SOL     OW78766  14.581   7.017  11.280
92331SOL    HW178767  14.665   7.034  11.237
92331SOL    HW278768  14.585   6.925  11.304
92332SOL     OW78769   3.493  10.322   8.648
92332SOL    HW178770   3.499  10.371   8.730
92332SOL    HW278771   3.440  10.378   8.591
92333SOL     OW78772   7.470  11.494   3.269
92333SOL    HW178773   7.546  11.533   3.227
92333SOL    HW278774   7.399  11.557   3.255
92334SOL     OW78775   4.339   2.744   4.916
92334SOL    HW178776   4.290   2.824   4.936
92334SOL    HW278777   4.274   2.674   4.922
92335SOL     OW78778   2.427   5.461   0.803
92335SOL    HW178779   2.476   5.379   0.795
92335SOL    HW278780   2.490   5.523   0.840
92336SOL     OW78781   9.610   2.409   8.021
92336SOL    HW178782   9.648   2.420   7.933
92336SOL    HW278783   9.542   2.344   8.009
92337SOL     OW78784  10.982   4.368   5.755
92337SOL    HW178785  10.887   4.367   5.744
92337SOL    HW278786  10.996   4.320   5.837
92338SOL     OW78787   2.727   4.302   1.913
92338SOL    HW178788   2.657   4.346   1.961
92338SOL    HW278789   2.686   4.270   1.833
92339SOL     OW78790  11.886   8.504  11.369
92339SOL    HW178791  11.798   8.480  11.397
92339SOL    HW278792  11.877   8.524  11.276
92340SOL     OW78793  12.772   7.017   3.082
92340SOL    HW178794  12.864   7.028   3.056
92340SOL    HW278795  12.767   6.927   3.114
92341SOL     OW78796   3.694   6.200  13.019
92341SOL    HW178797   3.659   6.112  13.036
92341SOL    HW278798   3.789   6.186  13.012
92342SOL     OW78799   0.363   7.178   4.608
92342SOL    HW178800   0.357   7.250   4.545
92342SOL    HW278801   0.281   7.130   4.599
92343SOL     OW78802   1.923   2.703   2.443
92343SOL    HW178803   2.018   2.705   2.434
92343SOL    HW278804   1.907   2.646   2.518
92344SOL     OW78805  14.175   1.308   1.698
92344SOL    HW178806  14.111   1.237   1.707
92344SOL    HW278807  14.179   1.348   1.785
92345SOL     OW78808   7.571  11.609   7.551
92345SOL    HW178809   7.493  11.634   7.501
92345SOL    HW278810   7.632  11.682   7.537
92346SOL     OW78811  14.384  12.530  12.360
92346SOL    HW178812  14.302  12.481  12.348
92346SOL    HW278813  14.401  12.568  12.274
92347SOL     OW78814  11.749  12.611   5.028
92347SOL    HW178815  11.775  12.533   5.077
92347SOL    HW278816  11.656  12.622   5.048
92348SOL     OW78817   0.045  12.293  10.660
92348SOL    HW178818   0.100  12.311  10.583
92348SOL    HW278819   0.019  12.379  10.692
92349SOL     OW78820   5.322   8.779   1.666
92349SOL    HW178821   5.236   8.810   1.638
92349SOL    HW278822   5.302   8.716   1.736
92350SOL     OW78823  10.946   1.159  10.194
92350SOL    HW178824  10.919   1.085  10.140
92350SOL    HW278825  10.948   1.124  10.283
92351SOL     OW78826  13.516   2.246   3.307
92351SOL    HW178827  13.453   2.233   3.379
92351SOL    HW278828  13.548   2.158   3.288
92352SOL     OW78829   1.825  13.059  13.631
92352SOL    HW178830   1.800  13.150  13.616
92352SOL    HW278831   1.921  13.061  13.635
92353SOL     OW78832   5.706   9.096   6.708
92353SOL    HW178833   5.644   9.024   6.697
92353SOL    HW278834   5.790   9.054   6.724
92354SOL     OW78835  14.747  11.133  11.190
92354SOL    HW178836  14.702  11.155  11.108
92354SOL    HW278837  14.681  11.148  11.258
92355SOL     OW78838   2.015   2.750   6.010
92355SOL    HW178839   1.946   2.816   6.001
92355SOL    HW278840   1.967   2.667   6.015
92356SOL     OW78841  11.676  12.639  11.523
92356SOL    HW178842  11.749  12.645  11.461
92356SOL    HW278843  11.718  12.636  11.609
92357SOL     OW78844  11.929   4.952  12.632
92357SOL    HW178845  11.905   4.864  12.603
92357SOL    HW278846  11.942   4.944  12.726
92358SOL     OW78847  14.365   1.780  13.552
92358SOL    HW178848  14.311   1.815  13.624
92358SOL    HW278849  14.455   1.802  13.577
92359SOL     OW78850   2.751  14.442   0.980
92359SOL    HW178851   2.680  14.381   0.961
92359SOL    HW278852   2.725  14.523   0.935
92360SOL     OW78853  11.360   2.695   5.612
92360SOL    HW178854  11.278   2.707   5.563
92360SOL    HW278855  11.420   2.657   5.548
92361SOL     OW78856   6.609   5.456  12.071
92361SOL    HW178857   6.702   5.459  12.095
92361SOL    HW278858   6.572   5.536  12.108
92362SOL     OW78859   5.830   1.796   4.243
92362SOL    HW178860   5.778   1.725   4.278
92362SOL    HW278861   5.822   1.788   4.148
92363SOL     OW78862   7.744   2.634   3.012
92363SOL    HW178863   7.746   2.608   2.920
92363SOL    HW278864   7.833   2.666   3.029
92364SOL     OW78865   3.970  13.116  10.699
92364SOL    HW178866   4.024  13.115  10.779
92364SOL    HW278867   3.907  13.186  10.714
92365SOL     OW78868  13.362  13.034  12.568
92365SOL    HW178869  13.362  12.978  12.646
92365SOL    HW278870  13.274  13.025  12.532
92366SOL     OW78871   0.647  12.302  12.314
92366SOL    HW178872   0.570  12.304  12.371
92366SOL    HW278873   0.702  12.232  12.350
92367SOL     OW78874  11.614   5.824   4.216
92367SOL    HW178875  11.681   5.761   4.189
92367SOL    HW278876  11.553   5.826   4.142
92368SOL     OW78877  13.253  11.774   5.369
92368SOL    HW178878  13.207  11.696   5.399
92368SOL    HW278879  13.344  11.745   5.356
92369SOL     OW78880  12.554   0.514   9.965
92369SOL    HW178881  12.568   0.428  10.006
92369SOL    HW278882  12.589   0.505   9.876
92370SOL     OW78883  10.495  11.830   5.357
92370SOL    HW178884  10.584  11.849   5.387
92370SOL    HW278885  10.463  11.763   5.417
92371SOL     OW78886  13.469  12.452   9.002
92371SOL    HW178887  13.476  12.426   9.093
92371SOL    HW278888  13.560  12.463   8.973
92372SOL     OW78889   0.331   7.353  11.367
92372SOL    HW178890   0.278   7.368  11.289
92372SOL    HW278891   0.354   7.440  11.398
92373SOL     OW78892   2.763  10.066   9.750
92373SOL    HW178893   2.776   9.980   9.710
92373SOL    HW278894   2.825  10.123   9.704
92374SOL     OW78895   8.754  12.419   6.000
92374SOL    HW178896   8.771  12.511   5.980
92374SOL    HW278897   8.841  12.378   6.002
92375SOL     OW78898   0.679   1.918   8.551
92375SOL    HW178899   0.772   1.917   8.529
92375SOL    HW278900   0.674   1.968   8.633
92376SOL     OW78901   3.570  11.796   4.211
92376SOL    HW178902   3.507  11.789   4.140
92376SOL    HW278903   3.621  11.875   4.190
92377SOL     OW78904  14.319   0.909   4.541
92377SOL    HW178905  14.355   0.881   4.626
92377SOL    HW278906  14.363   0.992   4.524
92378SOL     OW78907  11.037   3.444   2.585
92378SOL    HW178908  11.101   3.436   2.655
92378SOL    HW278909  10.955   3.412   2.623
92379SOL     OW78910  10.981   3.701  14.827
92379SOL    HW178911  11.073   3.687  14.802
92379SOL    HW278912  10.954   3.619  14.867
92380SOL     OW78913   4.816  14.771  11.911
92380SOL    HW178914   4.751  14.705  11.886
92380SOL    HW278915   4.765  14.839  11.955
92381SOL     OW78916   0.307   9.017   9.857
92381SOL    HW178917   0.334   8.963   9.783
92381SOL    HW278918   0.226   9.059   9.828
92382SOL     OW78919   7.525  13.743   7.343
92382SOL    HW178920   7.459  13.811   7.335
92382SOL    HW278921   7.534  13.707   7.254
92383SOL     OW78922   4.247   6.017  13.878
92383SOL    HW178923   4.341   6.017  13.898
92383SOL    HW278924   4.240   5.965  13.798
92384SOL     OW78925  13.694  14.673   3.512
92384SOL    HW178926  13.790  14.675   3.517
92384SOL    HW278927  13.673  14.735   3.442
92385SOL     OW78928   7.819   1.047  12.160
92385SOL    HW178929   7.914   1.047  12.156
92385SOL    HW278930   7.799   1.056  12.253
92386SOL     OW78931   3.996   1.941  13.264
92386SOL    HW178932   4.059   1.980  13.204
92386SOL    HW278933   3.952   1.873  13.213
92387SOL     OW78934   0.478   7.230   6.949
92387SOL    HW178935   0.486   7.179   6.868
92387SOL    HW278936   0.497   7.320   6.924
92388SOL     OW78937   8.618  11.889   9.008
92388SOL    HW178938   8.702  11.856   8.976
92388SOL    HW278939   8.609  11.974   8.965
92389SOL     OW78940   7.527   8.396   4.440
92389SOL    HW178941   7.444   8.376   4.484
92389SOL    HW278942   7.501   8.444   4.361
92390SOL     OW78943   2.930   3.331   4.199
92390SOL    HW178944   2.994   3.401   4.199
92390SOL    HW278945   2.929   3.300   4.290
92391SOL     OW78946  12.571   2.424   5.154
92391SOL    HW178947  12.648   2.459   5.200
92391SOL    HW278948  12.564   2.334   5.185
92392SOL     OW78949  10.708  10.398  11.866
92392SOL    HW178950  10.802  10.416  11.856
92392SOL    HW278951  10.666  10.458  11.805
92393SOL     OW78952   7.788   8.936   0.633
92393SOL    HW178953   7.763   8.894   0.551
92393SOL    HW278954   7.707   8.938   0.684
92394SOL     OW78955  13.589   5.146   2.135
92394SOL    HW178956  13.555   5.224   2.179
92394SOL    HW278957  13.528   5.130   2.063
92395SOL     OW78958   0.265   7.461  13.678
92395SOL    HW178959   0.339   7.404  13.698
92395SOL    HW278960   0.236   7.494  13.763
92396SOL     OW78961   3.129  12.313  10.620
92396SOL    HW178962   3.215  12.297  10.582
92396SOL    HW278963   3.141  12.297  10.714
92397SOL     OW78964   4.770   4.021   4.828
92397SOL    HW178965   4.737   4.030   4.738
92397SOL    HW278966   4.741   3.934   4.855
92398SOL     OW78967   0.771   9.051   3.351
92398SOL    HW178968   0.743   8.960   3.342
92398SOL    HW278969   0.822   9.053   3.432
92399SOL     OW78970   4.465   4.051   6.264
92399SOL    HW178971   4.382   4.077   6.224
92399SOL    HW278972   4.506   4.133   6.290
92400SOL     OW78973   5.186   3.302   7.977
92400SOL    HW178974   5.186   3.242   7.903
92400SOL    HW278975   5.252   3.368   7.955
92401SOL     OW78976  11.505  13.169   6.761
92401SOL    HW178977  11.553  13.123   6.830
92401SOL    HW278978  11.511  13.110   6.685
92402SOL     OW78979  12.244   7.274  11.431
92402SOL    HW178980  12.285   7.229  11.504
92402SOL    HW278981  12.157   7.235  11.424
92403SOL     OW78982   9.120  13.896   1.161
92403SOL    HW178983   9.141  13.921   1.251
92403SOL    HW278984   9.105  13.802   1.166
92404SOL     OW78985   1.993  13.288   8.218
92404SOL    HW178986   1.980  13.194   8.230
92404SOL    HW278987   1.966  13.304   8.128
92405SOL     OW78988   9.540   9.908   4.616
92405SOL    HW178989   9.584   9.851   4.680
92405SOL    HW278990   9.456   9.928   4.657
92406SOL     OW78991   0.217   8.090   9.848
92406SOL    HW178992   0.182   8.070   9.761
92406SOL    HW278993   0.182   8.022   9.904
92407SOL     OW78994   5.146   1.304   0.492
92407SOL    HW178995   5.123   1.319   0.584
92407SOL    HW278996   5.227   1.254   0.496
92408SOL     OW78997   4.935   4.935   8.520
92408SOL    HW178998   4.982   5.007   8.478
92408SOL    HW278999   4.902   4.882   8.448
92409SOL     OW79000   6.222   8.548  14.102
92409SOL    HW179001   6.266   8.550  14.187
92409SOL    HW279002   6.154   8.615  14.108
92410SOL     OW79003  13.334   8.996   8.094
92410SOL    HW179004  13.360   9.088   8.097
92410SOL    HW279005  13.274   8.990   8.021
92411SOL     OW79006   3.342  11.097   2.774
92411SOL    HW179007   3.257  11.136   2.759
92411SOL    HW279008   3.401  11.171   2.788
92412SOL     OW79009  13.857  12.780   2.409
92412SOL    HW179010  13.880  12.840   2.479
92412SOL    HW279011  13.939  12.734   2.389
92413SOL     OW79012   6.746   9.145   5.627
92413SOL    HW179013   6.783   9.110   5.546
92413SOL    HW279014   6.726   9.237   5.606
92414SOL     OW79015  11.184  13.308  12.894
92414SOL    HW179016  11.156  13.217  12.900
92414SOL    HW279017  11.221  13.326  12.981
92415SOL     OW79018   8.840  12.150  13.461
92415SOL    HW179019   8.882  12.232  13.436
92415SOL    HW279020   8.800  12.118  13.381
92416SOL     OW79021   3.132  11.938  14.463
92416SOL    HW179022   3.060  11.992  14.495
92416SOL    HW279023   3.204  11.956  14.524
92417SOL     OW79024   3.468   0.646   9.576
92417SOL    HW179025   3.525   0.617   9.505
92417SOL    HW279026   3.397   0.582   9.576
92418SOL     OW79027  14.265   8.907   8.131
92418SOL    HW179028  14.350   8.943   8.159
92418SOL    HW279029  14.270   8.907   8.035
92419SOL     OW79030   0.561  10.384   8.079
92419SOL    HW179031   0.652  10.408   8.064
92419SOL    HW279032   0.544  10.409   8.170
92420SOL     OW79033   0.523   6.558   5.516
92420SOL    HW179034   0.539   6.620   5.587
92420SOL    HW279035   0.592   6.576   5.452
92421SOL     OW79036   5.108   3.958   1.030
92421SOL    HW179037   5.193   3.926   1.001
92421SOL    HW279038   5.065   3.882   1.067
92422SOL     OW79039   7.487  10.397  13.965
92422SOL    HW179040   7.500  10.486  13.932
92422SOL    HW279041   7.573  10.371  13.998
92423SOL     OW79042   0.050   9.221  11.363
92423SOL    HW179043   0.128   9.176  11.394
92423SOL    HW279044   0.045   9.199  11.270
92424SOL     OW79045   3.812  10.761  13.754
92424SOL    HW179046   3.827  10.718  13.838
92424SOL    HW279047   3.730  10.723  13.721
92425SOL     OW79048   9.558   2.309   9.175
92425SOL    HW179049   9.605   2.384   9.138
92425SOL    HW279050   9.505   2.276   9.103
92426SOL     OW79051   0.513   3.942   3.244
92426SOL    HW179052   0.587   3.952   3.185
92426SOL    HW279053   0.550   3.899   3.321
92427SOL     OW79054   4.700  12.831   1.909
92427SOL    HW179055   4.740  12.804   1.992
92427SOL    HW279056   4.609  12.802   1.915
92428SOL     OW79057   9.230   9.561  12.777
92428SOL    HW179058   9.237   9.589  12.686
92428SOL    HW279059   9.281   9.479  12.780
92429SOL     OW79060   5.569   6.689   2.431
92429SOL    HW179061   5.631   6.692   2.358
92429SOL    HW279062   5.622   6.706   2.508
92430SOL     OW79063  11.523  12.184   4.887
92430SOL    HW179064  11.554  12.180   4.977
92430SOL    HW279065  11.475  12.103   4.873
92431SOL     OW79066   1.943   2.186   2.573
92431SOL    HW179067   1.885   2.262   2.578
92431SOL    HW279068   1.924   2.147   2.488
92432SOL     OW79069   7.445   2.048   7.325
92432SOL    HW179070   7.380   2.118   7.332
92432SOL    HW279071   7.525   2.092   7.295
92433SOL     OW79072   9.754   8.381   8.050
92433SOL    HW179073   9.841   8.367   8.086
92433SOL    HW279074   9.719   8.292   8.037
92434SOL     OW79075  10.175   0.794  10.823
92434SOL    HW179076  10.193   0.708  10.786
92434SOL    HW279077  10.221   0.795  10.906
92435SOL     OW79078   0.034   4.544   8.989
92435SOL    HW179079  14.860   4.625   8.985
92435SOL    HW279080  14.875   4.491   8.918
92436SOL     OW79081   8.221   6.290   5.455
92436SOL    HW179082   8.303   6.241   5.451
92436SOL    HW279083   8.224   6.336   5.539
92437SOL     OW79084   9.341  14.552   4.477
92437SOL    HW179085   9.250  14.553   4.448
92437SOL    HW279086   9.352  14.466   4.518
92438SOL     OW79087  11.076  11.477   4.960
92438SOL    HW179088  11.163  11.473   4.919
92438SOL    HW279089  11.020  11.518   4.894
92439SOL     OW79090   0.297  10.333   8.558
92439SOL    HW179091   0.317  10.266   8.622
92439SOL    HW279092   0.284  10.413   8.609
92440SOL     OW79093   2.191   0.035   1.252
92440SOL    HW179094   2.205  14.818   1.239
92440SOL    HW279095   2.279   0.072   1.255
92441SOL     OW79096   6.195   6.931   6.538
92441SOL    HW179097   6.239   6.958   6.618
92441SOL    HW279098   6.102   6.941   6.557
92442SOL     OW79099   3.426   8.513   1.662
92442SOL    HW179100   3.354   8.464   1.701
92442SOL    HW279101   3.498   8.504   1.725
92443SOL     OW79102  12.236  10.244   5.506
92443SOL    HW179103  12.242  10.230   5.600
92443SOL    HW279104  12.178  10.175   5.475
92444SOL     OW79105  10.572   8.911  14.214
92444SOL    HW179106  10.639   8.843  14.221
92444SOL    HW279107  10.513   8.894  14.287
92445SOL     OW79108  14.366   6.538   0.662
92445SOL    HW179109  14.319   6.612   0.624
92445SOL    HW279110  14.304   6.497   0.722
92446SOL     OW79111   0.044   1.218   4.621
92446SOL    HW179112  14.840   1.189   4.662
92446SOL    HW279113   0.085   1.138   4.591
92447SOL     OW79114   2.083   4.170  13.366
92447SOL    HW179115   2.017   4.238  13.352
92447SOL    HW279116   2.147   4.211  13.425
92448SOL     OW79117   0.262  14.129   5.739
92448SOL    HW179118   0.168  14.126   5.726
92448SOL    HW279119   0.290  14.037   5.735
92449SOL     OW79120   6.329  13.005   0.364
92449SOL    HW179121   6.314  12.924   0.316
92449SOL    HW279122   6.389  12.980   0.434
92450SOL     OW79123   8.081   5.609   0.180
92450SOL    HW179124   8.103   5.540   0.118
92450SOL    HW279125   7.988   5.624   0.167
92451SOL     OW79126   7.298  11.278   3.966
92451SOL    HW179127   7.383  11.293   3.924
92451SOL    HW279128   7.306  11.320   4.052
92452SOL     OW79129   2.282   6.890  10.466
92452SOL    HW179130   2.246   6.927  10.546
92452SOL    HW279131   2.305   6.800  10.490
92453SOL     OW79132  14.742  11.564   0.513
92453SOL    HW179133  14.656  11.536   0.482
92453SOL    HW279134  14.740  11.660   0.506
92454SOL     OW79135  10.498   8.759   3.179
92454SOL    HW179136  10.496   8.786   3.087
92454SOL    HW279137  10.487   8.840   3.228
92455SOL     OW79138  11.472   7.967   9.257
92455SOL    HW179139  11.384   7.977   9.294
92455SOL    HW279140  11.524   8.034   9.302
92456SOL     OW79141   4.444  13.801   3.592
92456SOL    HW179142   4.447  13.714   3.633
92456SOL    HW279143   4.350  13.821   3.587
92457SOL     OW79144   9.330   0.261   4.064
92457SOL    HW179145   9.311   0.233   3.975
92457SOL    HW279146   9.349   0.180   4.111
92458SOL     OW79147  12.332   6.721   4.002
92458SOL    HW179148  12.371   6.675   4.076
92458SOL    HW279149  12.300   6.803   4.040
92459SOL     OW79150  10.270  13.609   0.569
92459SOL    HW179151  10.299  13.635   0.656
92459SOL    HW279152  10.305  13.520   0.557
92460SOL     OW79153  14.609   5.930   7.202
92460SOL    HW179154  14.610   5.851   7.255
92460SOL    HW279155  14.647   5.997   7.259
92461SOL     OW79156   4.950  13.421   7.859
92461SOL    HW179157   4.961  13.331   7.889
92461SOL    HW279158   4.861  13.424   7.825
92462SOL     OW79159   8.851   6.750  11.643
92462SOL    HW179160   8.825   6.744  11.735
92462SOL    HW279161   8.938   6.711  11.640
92463SOL     OW79162  12.332   9.198   3.595
92463SOL    HW179163  12.249   9.152   3.611
92463SOL    HW279164  12.328   9.275   3.651
92464SOL     OW79165  12.552   5.972  10.913
92464SOL    HW179166  12.645   5.950  10.917
92464SOL    HW279167  12.523   5.975  11.004
92465SOL     OW79168  11.132   0.173   3.453
92465SOL    HW179169  11.215   0.204   3.417
92465SOL    HW279170  11.143   0.079   3.460
92466SOL     OW79171   5.490  11.246   9.474
92466SOL    HW179172   5.418  11.204   9.521
92466SOL    HW279173   5.448  11.315   9.423
92467SOL     OW79174   4.734   6.948  13.672
92467SOL    HW179175   4.735   7.001  13.751
92467SOL    HW279176   4.815   6.897  13.675
92468SOL     OW79177   1.225   2.520   5.757
92468SOL    HW179178   1.170   2.474   5.821
92468SOL    HW279179   1.181   2.604   5.743
92469SOL     OW79180   2.717   7.981  11.137
92469SOL    HW179181   2.732   7.987  11.231
92469SOL    HW279182   2.749   8.064  11.102
92470SOL     OW79183   5.680   3.495   7.398
92470SOL    HW179184   5.648   3.511   7.487
92470SOL    HW279185   5.773   3.517   7.401
92471SOL     OW79186   1.519   2.443   0.917
92471SOL    HW179187   1.554   2.374   0.861
92471SOL    HW279188   1.426   2.444   0.899
92472SOL     OW79189   4.151  14.650  12.237
92472SOL    HW179190   4.163  14.623  12.146
92472SOL    HW279191   4.077  14.711  12.235
92473SOL     OW79192  12.041   3.610  13.795
92473SOL    HW179193  12.116   3.570  13.839
92473SOL    HW279194  11.966   3.558  13.823
92474SOL     OW79195   2.534  13.000   6.254
92474SOL    HW179196   2.516  13.089   6.283
92474SOL    HW279197   2.596  13.010   6.182
92475SOL     OW79198   7.982   9.531   3.649
92475SOL    HW179199   7.903   9.498   3.691
92475SOL    HW279200   7.971   9.509   3.556
92476SOL     OW79201   5.748  10.101  14.067
92476SOL    HW179202   5.703  10.017  14.055
92476SOL    HW279203   5.679  10.160  14.097
92477SOL     OW79204   6.353  12.044   2.305
92477SOL    HW179205   6.395  12.049   2.219
92477SOL    HW279206   6.364  12.132   2.342
92478SOL     OW79207  11.965   4.696  10.283
92478SOL    HW179208  12.048   4.712  10.238
92478SOL    HW279209  11.913   4.774  10.265
92479SOL     OW79210   1.060   3.509  13.315
92479SOL    HW179211   1.017   3.512  13.230
92479SOL    HW279212   1.077   3.416  13.331
92480SOL     OW79213   9.421  12.012   1.811
92480SOL    HW179214   9.466  12.034   1.893
92480SOL    HW279215   9.373  12.092   1.788
92481SOL     OW79216  13.677   5.858   6.623
92481SOL    HW179217  13.751   5.902   6.665
92481SOL    HW279218  13.616   5.840   6.695
92482SOL     OW79219  12.178   3.546   2.168
92482SOL    HW179220  12.267   3.525   2.139
92482SOL    HW279221  12.141   3.463   2.197
92483SOL     OW79222   0.127   4.005  11.941
92483SOL    HW179223   0.064   3.956  11.889
92483SOL    HW279224   0.074   4.044  12.011
92484SOL     OW79225  11.666   6.041   1.810
92484SOL    HW179226  11.691   6.010   1.723
92484SOL    HW279227  11.611   6.118   1.794
92485SOL     OW79228   4.638   6.798  11.911
92485SOL    HW179229   4.680   6.756  11.836
92485SOL    HW279230   4.623   6.726  11.973
92486SOL     OW79231   0.137   5.472  11.001
92486SOL    HW179232   0.224   5.455  10.966
92486SOL    HW279233   0.077   5.425  10.943
92487SOL     OW79234  13.130  11.529   1.443
92487SOL    HW179235  13.191  11.478   1.496
92487SOL    HW279236  13.065  11.561   1.506
92488SOL     OW79237  13.561   4.354   4.086
92488SOL    HW179238  13.530   4.344   3.996
92488SOL    HW279239  13.567   4.448   4.100
92489SOL     OW79240   2.130   7.130   3.856
92489SOL    HW179241   2.060   7.194   3.860
92489SOL    HW279242   2.130   7.099   3.765
92490SOL     OW79243  14.367  14.051   7.756
92490SOL    HW179244  14.424  14.000   7.698
92490SOL    HW279245  14.301  14.089   7.697
92491SOL     OW79246   5.740   7.709   2.382
92491SOL    HW179247   5.690   7.630   2.363
92491SOL    HW279248   5.724   7.767   2.308
92492SOL     OW79249   4.095   8.372   2.637
92492SOL    HW179250   4.020   8.380   2.579
92492SOL    HW279251   4.141   8.294   2.606
92493SOL     OW79252  14.859   8.280   7.349
92493SOL    HW179253  14.835   8.370   7.328
92493SOL    HW279254   0.038   8.288   7.426
92494SOL     OW79255  13.857   1.379   0.086
92494SOL    HW179256  13.777   1.385   0.138
92494SOL    HW279257  13.895   1.467   0.088
92495SOL     OW79258   5.660   9.190   1.906
92495SOL    HW179259   5.566   9.172   1.898
92495SOL    HW279260   5.697   9.162   1.822
92496SOL     OW79261   8.006  11.820   7.277
92496SOL    HW179262   8.080  11.783   7.229
92496SOL    HW279263   7.929  11.791   7.229
92497SOL     OW79264  11.590   9.356  14.337
92497SOL    HW179265  11.628   9.276  14.374
92497SOL    HW279266  11.665   9.415  14.326
92498SOL     OW79267   5.560  13.750   1.753
92498SOL    HW179268   5.473  13.783   1.730
92498SOL    HW279269   5.611  13.759   1.673
92499SOL     OW79270  13.417   8.731   4.776
92499SOL    HW179271  13.454   8.749   4.862
92499SOL    HW279272  13.363   8.654   4.788
92500SOL     OW79273   5.691  13.881   7.751
92500SOL    HW179274   5.612  13.850   7.705
92500SOL    HW279275   5.658  13.912   7.835
92501SOL     OW79276   7.250  14.426   7.608
92501SOL    HW179277   7.230  14.359   7.673
92501SOL    HW279278   7.334  14.399   7.571
92502SOL     OW79279   2.416   1.711   7.898
92502SOL    HW179280   2.333   1.748   7.869
92502SOL    HW279281   2.440   1.649   7.829
92503SOL     OW79282   2.110   8.444  13.623
92503SOL    HW179283   2.155   8.417  13.703
92503SOL    HW279284   2.180   8.460  13.560
92504SOL     OW79285   2.510   3.574   2.999
92504SOL    HW179286   2.570   3.502   3.018
92504SOL    HW279287   2.501   3.620   3.083
92505SOL     OW79288   4.500   6.693   4.037
92505SOL    HW179289   4.522   6.602   4.053
92505SOL    HW279290   4.426   6.711   4.094
92506SOL     OW79291   0.399  13.390   7.726
92506SOL    HW179292   0.365  13.390   7.815
92506SOL    HW279293   0.347  13.323   7.680
92507SOL     OW79294   0.523   1.874  10.542
92507SOL    HW179295   0.440   1.920  10.538
92507SOL    HW279296   0.502   1.788  10.577
92508SOL     OW79297   4.191   7.256   9.239
92508SOL    HW179298   4.133   7.182   9.256
92508SOL    HW279299   4.147   7.330   9.280
92509SOL     OW79300   3.384  13.949  13.005
92509SOL    HW179301   3.351  13.995  12.928
92509SOL    HW279302   3.339  13.991  13.079
92510SOL     OW79303   3.503  12.724  13.356
92510SOL    HW179304   3.539  12.810  13.378
92510SOL    HW279305   3.579  12.667  13.349
92511SOL     OW79306  14.191  14.218  14.631
92511SOL    HW179307  14.244  14.155  14.583
92511SOL    HW279308  14.238  14.301  14.623
92512SOL     OW79309   9.800  10.836   1.125
92512SOL    HW179310   9.825  10.925   1.148
92512SOL    HW279311   9.753  10.844   1.042
92513SOL     OW79312   4.388  14.102   3.549
92513SOL    HW179313   4.409  14.187   3.587
92513SOL    HW279314   4.419  14.038   3.613
92514SOL     OW79315   7.014   4.252   1.517
92514SOL    HW179316   6.988   4.179   1.462
92514SOL    HW279317   6.966   4.239   1.598
92515SOL     OW79318   0.954  12.474  10.585
92515SOL    HW179319   1.033  12.500  10.536
92515SOL    HW279320   0.946  12.541  10.653
92516SOL     OW79321   9.927  11.570   5.393
92516SOL    HW179322   9.900  11.497   5.449
92516SOL    HW279323   9.877  11.645   5.426
92517SOL     OW79324  12.207   2.577  14.294
92517SOL    HW179325  12.269   2.575  14.367
92517SOL    HW279326  12.123   2.554  14.333
92518SOL     OW79327   0.712  13.449   8.398
92518SOL    HW179328   0.749  13.361   8.389
92518SOL    HW279329   0.729  13.491   8.314
92519SOL     OW79330   3.068   2.174  10.547
92519SOL    HW179331   3.066   2.209  10.636
92519SOL    HW279332   2.980   2.137  10.535
92520SOL     OW79333  14.638   6.181   7.899
92520SOL    HW179334  14.564   6.195   7.957
92520SOL    HW279335  14.690   6.113   7.943
92521SOL     OW79336   7.855  13.593   2.186
92521SOL    HW179337   7.825  13.684   2.191
92521SOL    HW279338   7.812  13.558   2.109
92522SOL     OW79339   1.841   3.642   0.767
92522SOL    HW179340   1.890   3.596   0.836
92522SOL    HW279341   1.848   3.734   0.791
92523SOL     OW79342  14.681   0.060  11.821
92523SOL    HW179343  14.671   0.131  11.757
92523SOL    HW279344  14.765   0.078  11.863
92524SOL     OW79345   2.013   3.684   0.484
92524SOL    HW179346   2.010   3.618   0.415
92524SOL    HW279347   2.087   3.657   0.539
92525SOL     OW79348  10.451   8.045  13.016
92525SOL    HW179349  10.368   8.085  12.992
92525SOL    HW279350  10.518   8.105  12.982
92526SOL     OW79351   3.027   6.412  13.243
92526SOL    HW179352   2.943   6.449  13.215
92526SOL    HW279353   3.049   6.458  13.323
92527SOL     OW79354  10.386   0.408   6.352
92527SOL    HW179355  10.441   0.427   6.429
92527SOL    HW279356  10.366   0.315   6.360
92528SOL     OW79357   7.274  10.297  13.437
92528SOL    HW179358   7.277  10.305  13.532
92528SOL    HW279359   7.256  10.385  13.406
92529SOL     OW79360   5.637   5.641   9.376
92529SOL    HW179361   5.628   5.638   9.472
92529SOL    HW279362   5.716   5.693   9.362
92530SOL     OW79363   5.266  14.561   5.719
92530SOL    HW179364   5.306  14.506   5.786
92530SOL    HW279365   5.216  14.500   5.665
92531SOL     OW79366   3.714   8.444   7.386
92531SOL    HW179367   3.682   8.427   7.475
92531SOL    HW279368   3.710   8.359   7.342
92532SOL     OW79369  13.045   5.464   0.369
92532SOL    HW179370  12.992   5.519   0.427
92532SOL    HW279371  13.123   5.444   0.420
92533SOL     OW79372   5.150   3.376  14.219
92533SOL    HW179373   5.190   3.327  14.147
92533SOL    HW279374   5.210   3.363  14.293
92534SOL     OW79375   7.599   6.602   4.014
92534SOL    HW179376   7.663   6.550   4.063
92534SOL    HW279377   7.524   6.610   4.073
92535SOL     OW79378   6.036  14.570  10.623
92535SOL    HW179379   6.065  14.497  10.568
92535SOL    HW279380   6.105  14.636  10.613
92536SOL     OW79381   5.751   3.261   6.464
92536SOL    HW179382   5.837   3.225   6.443
92536SOL    HW279383   5.757   3.353   6.439
92537SOL     OW79384   3.566  12.322   1.875
92537SOL    HW179385   3.499  12.370   1.826
92537SOL    HW279386   3.649  12.358   1.844
92538SOL     OW79387   9.981   0.273  12.329
92538SOL    HW179388  10.031   0.199  12.363
92538SOL    HW279389   9.904   0.278  12.386
92539SOL     OW79390   9.011   5.861   3.279
92539SOL    HW179391   9.063   5.781   3.291
92539SOL    HW279392   9.011   5.903   3.365
92540SOL     OW79393   2.849   5.794   2.108
92540SOL    HW179394   2.909   5.721   2.091
92540SOL    HW279395   2.817   5.820   2.021
92541SOL     OW79396  12.216  12.689  10.876
92541SOL    HW179397  12.145  12.626  10.889
92541SOL    HW279398  12.186  12.769  10.920
92542SOL     OW79399  10.397  13.356   3.685
92542SOL    HW179400  10.398  13.322   3.595
92542SOL    HW279401  10.334  13.428   3.682
92543SOL     OW79402   7.566   5.370   9.106
92543SOL    HW179403   7.660   5.382   9.099
92543SOL    HW279404   7.548   5.383   9.200
92544SOL     OW79405   9.599   9.639   5.912
92544SOL    HW179406   9.665   9.707   5.921
92544SOL    HW279407   9.551   9.641   5.995
92545SOL     OW79408   9.767   3.327   0.629
92545SOL    HW179409   9.716   3.279   0.564
92545SOL    HW279410   9.798   3.260   0.689
92546SOL     OW79411   1.476   1.854  11.019
92546SOL    HW179412   1.494   1.761  11.033
92546SOL    HW279413   1.453   1.887  11.106
92547SOL     OW79414  12.682  14.513   9.970
92547SOL    HW179415  12.775  14.528   9.955
92547SOL    HW279416  12.676  14.488  10.063
92548SOL     OW79417   6.326  12.116   4.483
92548SOL    HW179418   6.322  12.207   4.452
92548SOL    HW279419   6.408  12.111   4.532
92549SOL     OW79420  11.071  14.352   8.631
92549SOL    HW179421  11.010  14.349   8.705
92549SOL    HW279422  11.103  14.443   8.630
92550SOL     OW79423   9.040  12.340  13.912
92550SOL    HW179424   9.094  12.398  13.858
92550SOL    HW279425   9.046  12.255  13.868
92551SOL     OW79426  13.991  12.228  10.758
92551SOL    HW179427  14.015  12.228  10.851
92551SOL    HW279428  13.908  12.180  10.755
92552SOL     OW79429  14.488  14.877   9.800
92552SOL    HW179430  14.432  14.867   9.877
92552SOL    HW279431  14.428   0.001   9.726
92553SOL     OW79432  13.653  10.363  11.694
92553SOL    HW179433  13.655  10.340  11.601
92553SOL    HW279434  13.588  10.432  11.700
92554SOL     OW79435   8.397   0.345   2.353
92554SOL    HW179436   8.487   0.317   2.338
92554SOL    HW279437   8.343   0.279   2.309
92555SOL     OW79438   2.456  14.380   0.996
92555SOL    HW179439   2.514  14.314   1.033
92555SOL    HW279440   2.380  14.330   0.965
92556SOL     OW79441   1.929   0.179  12.423
92556SOL    HW179442   1.881   0.233  12.360
92556SOL    HW279443   1.867   0.164  12.494
92557SOL     OW79444   6.851   8.155   0.315
92557SOL    HW179445   6.907   8.225   0.282
92557SOL    HW279446   6.813   8.191   0.396
92558SOL     OW79447   2.403  13.710   7.591
92558SOL    HW179448   2.456  13.757   7.655
92558SOL    HW279449   2.317  13.701   7.632
92559SOL     OW79450  10.381   3.554   9.425
92559SOL    HW179451  10.382   3.561   9.329
92559SOL    HW279452  10.357   3.463   9.442
92560SOL     OW79453   0.604  12.814   8.113
92560SOL    HW179454   0.634  12.844   8.199
92560SOL    HW279455   0.660  12.739   8.093
92561SOL     OW79456   7.984   0.627   5.659
92561SOL    HW179457   7.942   0.596   5.739
92561SOL    HW279458   8.045   0.694   5.688
92562SOL     OW79459   0.294   9.671  10.788
92562SOL    HW179460   0.366   9.673  10.725
92562SOL    HW279461   0.215   9.674  10.734
92563SOL     OW79462  11.248   7.265   9.845
92563SOL    HW179463  11.153   7.257   9.834
92563SOL    HW279464  11.261   7.272   9.939
92564SOL     OW79465   7.902   1.484   9.838
92564SOL    HW179466   7.924   1.560   9.892
92564SOL    HW279467   7.969   1.419   9.859
92565SOL     OW79468  12.393  14.474   2.605
92565SOL    HW179469  12.460  14.472   2.537
92565SOL    HW279470  12.392  14.564   2.636
92566SOL     OW79471   4.736   6.135   8.795
92566SOL    HW179472   4.734   6.123   8.890
92566SOL    HW279473   4.789   6.062   8.763
92567SOL     OW79474   7.619  14.542   6.775
92567SOL    HW179475   7.530  14.557   6.805
92567SOL    HW279476   7.641  14.619   6.723
92568SOL     OW79477   5.034   0.540   9.605
92568SOL    HW179478   5.056   0.630   9.631
92568SOL    HW279479   5.057   0.487   9.681
92569SOL     OW79480   9.791   5.134   6.217
92569SOL    HW179481   9.838   5.146   6.299
92569SOL    HW279482   9.767   5.222   6.189
92570SOL     OW79483   2.657  12.501   7.093
92570SOL    HW179484   2.659  12.443   7.169
92570SOL    HW279485   2.655  12.589   7.130
92571SOL     OW79486   8.319   3.876   0.761
92571SOL    HW179487   8.350   3.902   0.674
92571SOL    HW279488   8.399   3.860   0.811
92572SOL     OW79489   4.310   1.182  11.985
92572SOL    HW179490   4.287   1.123  12.056
92572SOL    HW279491   4.383   1.234  12.019
92573SOL     OW79492  12.178   0.532   2.252
92573SOL    HW179493  12.211   0.530   2.162
92573SOL    HW279494  12.127   0.452   2.261
92574SOL     OW79495   1.752   9.255   1.967
92574SOL    HW179496   1.742   9.314   2.041
92574SOL    HW279497   1.846   9.238   1.961
92575SOL     OW79498  11.984   9.550   7.211
92575SOL    HW179499  12.007   9.463   7.245
92575SOL    HW279500  12.064   9.581   7.169
92576SOL     OW79501   9.578  12.002   3.004
92576SOL    HW179502   9.601  11.913   3.031
92576SOL    HW279503   9.571  11.997   2.909
92577SOL     OW79504  11.537  10.113   6.997
92577SOL    HW179505  11.570  10.190   7.045
92577SOL    HW279506  11.442  10.116   7.009
92578SOL     OW79507   2.135   9.914  11.961
92578SOL    HW179508   2.166  10.005  11.957
92578SOL    HW279509   2.126   9.888  11.869
92579SOL     OW79510  13.604  10.390  11.411
92579SOL    HW179511  13.559  10.471  11.385
92579SOL    HW279512  13.694  10.403  11.380
92580SOL     OW79513   3.145   7.038  13.757
92580SOL    HW179514   3.230   7.080  13.744
92580SOL    HW279515   3.106   7.085  13.831
92581SOL     OW79516   2.255  10.249   2.961
92581SOL    HW179517   2.214  10.163   2.952
92581SOL    HW279518   2.234  10.293   2.879
92582SOL     OW79519  13.000  12.494   9.538
92582SOL    HW179520  12.968  12.571   9.584
92582SOL    HW279521  13.092  12.511   9.520
92583SOL     OW79522  11.745   1.491  13.023
92583SOL    HW179523  11.677   1.430  12.994
92583SOL    HW279524  11.733   1.568  12.968
92584SOL     OW79525   6.800   4.710  14.225
92584SOL    HW179526   6.754   4.766  14.288
92584SOL    HW279527   6.833   4.771  14.159
92585SOL     OW79528   4.106   8.557  10.302
92585SOL    HW179529   4.081   8.515  10.219
92585SOL    HW279530   4.165   8.628  10.276
92586SOL     OW79531  12.856   3.953   6.339
92586SOL    HW179532  12.902   4.024   6.294
92586SOL    HW279533  12.795   3.920   6.274
92587SOL     OW79534   5.045  13.601   8.921
92587SOL    HW179535   4.960  13.625   8.883
92587SOL    HW279536   5.073  13.680   8.968
92588SOL     OW79537  10.477   9.828   6.153
92588SOL    HW179538  10.504   9.917   6.175
92588SOL    HW279539  10.432   9.796   6.231
92589SOL     OW79540   0.531   3.276   7.997
92589SOL    HW179541   0.583   3.288   7.918
92589SOL    HW279542   0.494   3.362   8.016
92590SOL     OW79543   3.010   2.253   4.603
92590SOL    HW179544   3.012   2.264   4.508
92590SOL    HW279545   3.037   2.338   4.638
92591SOL     OW79546   6.002  14.211  11.043
92591SOL    HW179547   6.053  14.246  11.116
92591SOL    HW279548   6.021  14.270  10.970
92592SOL     OW79549   2.990   5.779  11.651
92592SOL    HW179550   3.082   5.806  11.652
92592SOL    HW279551   2.990   5.695  11.698
92593SOL     OW79552  10.706   8.069   4.334
92593SOL    HW179553  10.621   8.027   4.340
92593SOL    HW279554  10.763   8.016   4.389
92594SOL     OW79555   4.241  14.195  13.864
92594SOL    HW179556   4.266  14.109  13.897
92594SOL    HW279557   4.199  14.239  13.938
92595SOL     OW79558  11.953  13.098   6.968
92595SOL    HW179559  11.870  13.067   6.931
92595SOL    HW279560  12.007  13.118   6.892
92596SOL     OW79561  12.766   6.279  13.449
92596SOL    HW179562  12.724   6.263  13.534
92596SOL    HW279563  12.746   6.371  13.430
92597SOL     OW79564  12.577  10.248  12.812
92597SOL    HW179565  12.586  10.221  12.903
92597SOL    HW279566  12.606  10.339  12.811
92598SOL     OW79567   7.135   3.306   6.232
92598SOL    HW179568   7.191   3.359   6.288
92598SOL    HW279569   7.155   3.335   6.143
92599SOL     OW79570   7.095   9.243   4.359
92599SOL    HW179571   7.133   9.161   4.326
92599SOL    HW279572   7.141   9.311   4.310
92600SOL     OW79573   4.972  14.770  10.895
92600SOL    HW179574   4.988  14.682  10.930
92600SOL    HW279575   5.057  14.813  10.899
92601SOL     OW79576  12.972   4.102   9.285
92601SOL    HW179577  12.929   4.040   9.227
92601SOL    HW279578  12.930   4.090   9.370
92602SOL     OW79579   8.255   0.455   1.621
92602SOL    HW179580   8.172   0.494   1.650
92602SOL    HW279581   8.238   0.361   1.620
92603SOL     OW79582  12.008   1.307  14.069
92603SOL    HW179583  11.917   1.313  14.039
92603SOL    HW279584  12.012   1.223  14.115
92604SOL     OW79585   3.347   1.498   7.299
92604SOL    HW179586   3.298   1.449   7.365
92604SOL    HW279587   3.297   1.580   7.289
92605SOL     OW79588  14.027   7.828   9.260
92605SOL    HW179589  14.019   7.735   9.240
92605SOL    HW279590  14.080   7.831   9.340
92606SOL     OW79591   1.957   8.862   9.189
92606SOL    HW179592   2.010   8.824   9.259
92606SOL    HW279593   1.883   8.902   9.235
92607SOL     OW79594   2.192  10.433  13.537
92607SOL    HW179595   2.141  10.432  13.456
92607SOL    HW279596   2.125  10.431  13.606
92608SOL     OW79597   1.744  12.042   5.228
92608SOL    HW179598   1.742  11.980   5.156
92608SOL    HW279599   1.831  12.082   5.223
92609SOL     OW79600   3.805   7.477   9.931
92609SOL    HW179601   3.721   7.517   9.910
92609SOL    HW279602   3.857   7.550   9.967
92610SOL     OW79603   6.054  11.702   9.624
92610SOL    HW179604   6.024  11.612   9.640
92610SOL    HW279605   5.973  11.753   9.620
92611SOL     OW79606  11.839   9.087  11.668
92611SOL    HW179607  11.841   9.172  11.624
92611SOL    HW279608  11.922   9.046  11.645
92612SOL     OW79609   2.193   6.578  10.179
92612SOL    HW179610   2.117   6.555  10.126
92612SOL    HW279611   2.165   6.562  10.269
92613SOL     OW79612   3.138   9.302  13.521
92613SOL    HW179613   3.098   9.246  13.455
92613SOL    HW279614   3.064   9.343  13.565
92614SOL     OW79615   6.037  12.278   8.120
92614SOL    HW179616   5.953  12.292   8.077
92614SOL    HW279617   6.093  12.348   8.087
92615SOL     OW79618   2.438  14.235   4.754
92615SOL    HW179619   2.532  14.237   4.738
92615SOL    HW279620   2.428  14.176   4.829
92616SOL     OW79621  11.435  10.743   7.328
92616SOL    HW179622  11.471  10.781   7.248
92616SOL    HW279623  11.356  10.697   7.300
92617SOL     OW79624  11.497   7.874  11.254
92617SOL    HW179625  11.432   7.896  11.321
92617SOL    HW279626  11.460   7.799  11.207
92618SOL     OW79627  13.660   7.894  10.069
92618SOL    HW179628  13.673   7.893  10.164
92618SOL    HW279629  13.748   7.888  10.033
92619SOL     OW79630   3.977   5.620   7.068
92619SOL    HW179631   4.055   5.652   7.113
92619SOL    HW279632   3.904   5.654   7.119
92620SOL     OW79633   8.576   6.059   8.030
92620SOL    HW179634   8.664   6.070   7.995
92620SOL    HW279635   8.578   6.104   8.114
92621SOL     OW79636  10.530   0.072   9.919
92621SOL    HW179637  10.470   0.004   9.947
92621SOL    HW279638  10.617   0.038   9.940
92622SOL     OW79639   4.379   8.350  14.435
92622SOL    HW179640   4.462   8.342  14.481
92622SOL    HW279641   4.401   8.343  14.342
92623SOL     OW79642   1.046   7.862   3.635
92623SOL    HW179643   1.102   7.935   3.662
92623SOL    HW279644   1.067   7.848   3.543
92624SOL     OW79645  13.999  11.025  14.243
92624SOL    HW179646  14.088  10.990  14.254
92624SOL    HW279647  13.957  11.009  14.328
92625SOL     OW79648  13.396  13.106  11.555
92625SOL    HW179649  13.455  13.034  11.534
92625SOL    HW279650  13.321  13.065  11.597
92626SOL     OW79651  12.901   0.892   5.264
92626SOL    HW179652  12.811   0.862   5.250
92626SOL    HW279653  12.955   0.822   5.228
92627SOL     OW79654   2.393   3.749   5.478
92627SOL    HW179655   2.436   3.717   5.558
92627SOL    HW279656   2.463   3.748   5.413
92628SOL     OW79657   1.783   1.153   8.802
92628SOL    HW179658   1.712   1.122   8.745
92628SOL    HW279659   1.738   1.196   8.874
92629SOL     OW79660   3.836  12.294   7.953
92629SOL    HW179661   3.838  12.227   8.022
92629SOL    HW279662   3.819  12.245   7.873
92630SOL     OW79663   5.604  10.126   7.778
92630SOL    HW179664   5.641  10.212   7.798
92630SOL    HW279665   5.511  10.143   7.763
92631SOL     OW79666   3.885  12.652   3.008
92631SOL    HW179667   3.918  12.720   3.067
92631SOL    HW279668   3.910  12.570   3.051
92632SOL     OW79669   6.522  14.043  10.856
92632SOL    HW179670   6.472  14.110  10.810
92632SOL    HW279671   6.600  14.030  10.802
92633SOL     OW79672   0.995   9.186   0.423
92633SOL    HW179673   0.931   9.183   0.352
92633SOL    HW279674   1.080   9.181   0.378
92634SOL     OW79675   0.275  13.564   0.353
92634SOL    HW179676   0.346  13.577   0.290
92634SOL    HW279677   0.211  13.632   0.332
92635SOL     OW79678  12.784   0.293  13.741
92635SOL    HW179679  12.766   0.374  13.789
92635SOL    HW279680  12.759   0.223  13.800
92636SOL     OW79681  14.308   1.362  11.908
92636SOL    HW179682  14.364   1.381  11.833
92636SOL    HW279683  14.243   1.432  11.907
92637SOL     OW79684  14.473   3.410   9.453
92637SOL    HW179685  14.493   3.322   9.422
92637SOL    HW279686  14.458   3.461   9.374
92638SOL     OW79687   2.635   8.585   0.595
92638SOL    HW179688   2.554   8.622   0.560
92638SOL    HW279689   2.657   8.641   0.669
92639SOL     OW79690   9.904   5.664  13.543
92639SOL    HW179691   9.852   5.589  13.572
92639SOL    HW279692   9.933   5.706  13.624
92640SOL     OW79693  14.829  12.787   6.208
92640SOL    HW179694  14.819  12.873   6.249
92640SOL    HW279695  14.778  12.728   6.263
92641SOL     OW79696   6.771   0.453   1.086
92641SOL    HW179697   6.699   0.511   1.109
92641SOL    HW279698   6.756   0.431   0.993
92642SOL     OW79699   5.910   6.243   0.178
92642SOL    HW179700   5.852   6.308   0.218
92642SOL    HW279701   5.880   6.159   0.214
92643SOL     OW79702   5.718   5.403  13.308
92643SOL    HW179703   5.639   5.450  13.281
92643SOL    HW279704   5.790   5.453  13.269
92644SOL     OW79705   1.051   3.350  12.521
92644SOL    HW179706   1.131   3.400  12.507
92644SOL    HW279707   0.981   3.412  12.504
92645SOL     OW79708   5.269   5.248   5.700
92645SOL    HW179709   5.332   5.227   5.630
92645SOL    HW279710   5.225   5.165   5.717
92646SOL     OW79711  14.375   0.545  10.024
92646SOL    HW179712  14.460   0.555  10.067
92646SOL    HW279713  14.320   0.612  10.065
92647SOL     OW79714   3.553   1.794   3.351
92647SOL    HW179715   3.636   1.823   3.389
92647SOL    HW279716   3.502   1.875   3.341
92648SOL     OW79717   7.823  10.520   8.796
92648SOL    HW179718   7.859  10.579   8.862
92648SOL    HW279719   7.898  10.495   8.742
92649SOL     OW79720   5.672   6.811  10.326
92649SOL    HW179721   5.611   6.879  10.356
92649SOL    HW279722   5.620   6.730  10.328
92650SOL     OW79723   2.848  11.993   3.470
92650SOL    HW179724   2.862  12.053   3.544
92650SOL    HW279725   2.803  12.047   3.405
92651SOL     OW79726   0.253   7.838   2.943
92651SOL    HW179727   0.300   7.762   2.908
92651SOL    HW279728   0.294   7.913   2.901
92652SOL     OW79729   7.500  10.510   9.365
92652SOL    HW179730   7.462  10.462   9.438
92652SOL    HW279731   7.591  10.481   9.362
92653SOL     OW79732  11.297   8.453   9.493
92653SOL    HW179733  11.219   8.460   9.438
92653SOL    HW279734  11.311   8.542   9.525
92654SOL     OW79735   5.600   9.031   1.246
92654SOL    HW179736   5.686   9.024   1.287
92654SOL    HW279737   5.544   8.973   1.296
92655SOL     OW79738   6.144  13.795   6.472
92655SOL    HW179739   6.116  13.737   6.402
92655SOL    HW279740   6.144  13.740   6.550
92656SOL     OW79741   7.894  11.205   6.749
92656SOL    HW179742   7.924  11.285   6.792
92656SOL    HW279743   7.967  11.144   6.757
92657SOL     OW79744   1.491   5.812   9.250
92657SOL    HW179745   1.514   5.727   9.289
92657SOL    HW279746   1.501   5.875   9.322
92658SOL     OW79747   8.787   6.490  14.033
92658SOL    HW179748   8.814   6.398  14.030
92658SOL    HW279749   8.698   6.487  14.066
92659SOL     OW79750   6.560  14.092  14.756
92659SOL    HW179751   6.616  14.037  14.811
92659SOL    HW279752   6.607  14.097  14.673
92660SOL     OW79753  14.670   3.624  13.335
92660SOL    HW179754  14.682   3.681  13.410
92660SOL    HW279755  14.584   3.584  13.349
92661SOL     OW79756   6.883   3.366   3.666
92661SOL    HW179757   6.940   3.328   3.599
92661SOL    HW279758   6.831   3.293   3.698
92662SOL     OW79759   0.612  13.043   7.961
92662SOL    HW179760   0.704  13.022   7.946
92662SOL    HW279761   0.583  12.980   8.027
92663SOL     OW79762   4.451  10.238   7.861
92663SOL    HW179763   4.492  10.158   7.829
92663SOL    HW279764   4.357  10.221   7.855
92664SOL     OW79765   2.001  12.495   3.148
92664SOL    HW179766   2.006  12.500   3.052
92664SOL    HW279767   1.909  12.514   3.168
92665SOL     OW79768   7.648  14.813   3.150
92665SOL    HW179769   7.565  14.812   3.101
92665SOL    HW279770   7.623  14.786   3.238
92666SOL     OW79771  11.318   4.659   2.856
92666SOL    HW179772  11.359   4.716   2.791
92666SOL    HW279773  11.390   4.605   2.888
92667SOL     OW79774  11.382   0.339   2.827
92667SOL    HW179775  11.435   0.408   2.788
92667SOL    HW279776  11.296   0.349   2.787
92668SOL     OW79777   2.053   4.793   2.417
92668SOL    HW179778   2.130   4.847   2.432
92668SOL    HW279779   1.979   4.852   2.431
92669SOL     OW79780  11.816   3.259  12.938
92669SOL    HW179781  11.906   3.292  12.937
92669SOL    HW279782  11.794   3.246  12.845
92670SOL     OW79783   8.603   3.746   1.221
92670SOL    HW179784   8.616   3.673   1.282
92670SOL    HW279785   8.541   3.803   1.265
92671SOL     OW79786  12.208   0.121   6.555
92671SOL    HW179787  12.247   0.122   6.643
92671SOL    HW279788  12.147   0.195   6.555
92672SOL     OW79789  11.114   0.258   0.163
92672SOL    HW179790  11.196   0.211   0.149
92672SOL    HW279791  11.073   0.212   0.237
92673SOL     OW79792   1.982  13.880   7.263
92673SOL    HW179793   2.049  13.857   7.198
92673SOL    HW279794   2.024  13.864   7.348
92674SOL     OW79795   4.330   1.518  11.717
92674SOL    HW179796   4.352   1.439  11.667
92674SOL    HW279797   4.262   1.490  11.778
92675SOL     OW79798   4.880  12.165  10.694
92675SOL    HW179799   4.837  12.202  10.617
92675SOL    HW279800   4.974  12.173  10.676
92676SOL     OW79801   1.108   1.603   0.296
92676SOL    HW179802   1.179   1.539   0.293
92676SOL    HW279803   1.146   1.680   0.339
92677SOL     OW79804  12.655  13.229   4.000
92677SOL    HW179805  12.737  13.277   4.001
92677SOL    HW279806  12.598  13.279   3.941
92678SOL     OW79807  14.044   2.341  10.219
92678SOL    HW179808  14.113   2.407  10.215
92678SOL    HW279809  13.978   2.379  10.276
92679SOL     OW79810   9.037  13.204  11.540
92679SOL    HW179811   9.132  13.198  11.550
92679SOL    HW279812   9.006  13.225  11.628
92680SOL     OW79813   7.768  10.235   8.050
92680SOL    HW179814   7.754  10.248   7.956
92680SOL    HW279815   7.796  10.143   8.057
92681SOL     OW79816   9.046   7.839   7.881
92681SOL    HW179817   8.998   7.812   7.959
92681SOL    HW279818   9.133   7.863   7.912
92682SOL     OW79819   2.576  11.217  14.271
92682SOL    HW179820   2.594  11.284  14.205
92682SOL    HW279821   2.517  11.156  14.228
92683SOL     OW79822  13.265   5.828   6.701
92683SOL    HW179823  13.323   5.899   6.673
92683SOL    HW279824  13.197   5.872   6.752
92684SOL     OW79825   4.340   2.827   9.252
92684SOL    HW179826   4.362   2.766   9.323
92684SOL    HW279827   4.245   2.838   9.259
92685SOL     OW79828   0.896   2.648   7.062
92685SOL    HW179829   0.895   2.554   7.046
92685SOL    HW279830   0.804   2.671   7.077
92686SOL     OW79831   2.082   9.127   9.037
92686SOL    HW179832   2.148   9.172   9.090
92686SOL    HW279833   2.085   9.172   8.952
92687SOL     OW79834  14.297   1.736  14.085
92687SOL    HW179835  14.382   1.707  14.117
92687SOL    HW279836  14.234   1.686  14.137
92688SOL     OW79837   5.474   4.329  12.152
92688SOL    HW179838   5.389   4.292  12.173
92688SOL    HW279839   5.537   4.261  12.176
92689SOL     OW79840   4.357   9.248   8.585
92689SOL    HW179841   4.288   9.182   8.579
92689SOL    HW279842   4.325   9.310   8.650
92690SOL     OW79843   4.050   5.415   2.067
92690SOL    HW179844   4.089   5.499   2.090
92690SOL    HW279845   4.069   5.403   1.974
92691SOL     OW79846  12.014   6.117  10.477
92691SOL    HW179847  12.024   6.196  10.425
92691SOL    HW279848  12.013   6.046  10.412
92692SOL     OW79849   5.098   9.039  10.044
92692SOL    HW179850   5.118   9.105  10.110
92692SOL    HW279851   5.013   9.003  10.071
92693SOL     OW79852   6.428  10.135  13.265
92693SOL    HW179853   6.458  10.167  13.350
92693SOL    HW279854   6.412  10.041  13.280
92694SOL     OW79855  10.823   6.235  10.045
92694SOL    HW179856  10.766   6.159  10.043
92694SOL    HW279857  10.765   6.308  10.068
92695SOL     OW79858   4.410   0.024   7.702
92695SOL    HW179859   4.339   0.016   7.765
92695SOL    HW279860   4.476   0.078   7.745
92696SOL     OW79861   0.588   8.340   4.967
92696SOL    HW179862   0.676   8.374   4.985
92696SOL    HW279863   0.604   8.262   4.913
92697SOL     OW79864   7.514   9.961   8.860
92697SOL    HW179865   7.447  10.026   8.837
92697SOL    HW279866   7.557   9.999   8.937
92698SOL     OW79867   2.374   7.267   9.120
92698SOL    HW179868   2.456   7.312   9.100
92698SOL    HW279869   2.366   7.274   9.215
92699SOL     OW79870   2.289  13.918  13.367
92699SOL    HW179871   2.339  13.841  13.339
92699SOL    HW279872   2.221  13.883  13.424
92700SOL     OW79873  10.865  13.196  10.740
92700SOL    HW179874  10.810  13.241  10.676
92700SOL    HW279875  10.942  13.168  10.689
92701SOL     OW79876   6.894   3.900  11.319
92701SOL    HW179877   6.968   3.929  11.264
92701SOL    HW279878   6.819   3.899  11.259
92702SOL     OW79879   4.005   2.872   4.224
92702SOL    HW179880   3.939   2.808   4.251
92702SOL    HW279881   4.024   2.850   4.133
92703SOL     OW79882  10.348  11.975   2.365
92703SOL    HW179883  10.276  11.918   2.394
92703SOL    HW279884  10.414  11.915   2.332
92704SOL     OW79885  12.407   2.030  13.115
92704SOL    HW179886  12.435   2.092  13.048
92704SOL    HW279887  12.472   1.959  13.111
92705SOL     OW79888   4.030   3.117   2.458
92705SOL    HW179889   4.124   3.131   2.448
92705SOL    HW279890   4.023   3.048   2.524
92706SOL     OW79891   4.675   1.818  11.762
92706SOL    HW179892   4.736   1.747  11.779
92706SOL    HW279893   4.651   1.851  11.849
92707SOL     OW79894  14.300  12.744  11.185
92707SOL    HW179895  14.353  12.674  11.147
92707SOL    HW279896  14.210  12.713  11.178
92708SOL     OW79897   2.650  13.622  12.166
92708SOL    HW179898   2.658  13.586  12.078
92708SOL    HW279899   2.573  13.579  12.203
92709SOL     OW79900  10.235  14.110   2.478
92709SOL    HW179901  10.194  14.079   2.558
92709SOL    HW279902  10.309  14.051   2.464
92710SOL     OW79903  10.120   5.615   9.918
92710SOL    HW179904  10.087   5.684   9.975
92710SOL    HW279905  10.126   5.656   9.832
92711SOL     OW79906   6.461   3.409  14.379
92711SOL    HW179907   6.546   3.367  14.369
92711SOL    HW279908   6.436   3.433  14.290
92712SOL     OW79909  11.669  14.760   1.931
92712SOL    HW179910  11.663  14.855   1.919
92712SOL    HW279911  11.716  14.729   1.854
92713SOL     OW79912  12.974   2.368   5.342
92713SOL    HW179913  13.048   2.323   5.300
92713SOL    HW279914  12.944   2.306   5.408
92714SOL     OW79915   3.378   8.292   2.996
92714SOL    HW179916   3.427   8.346   3.058
92714SOL    HW279917   3.361   8.211   3.043
92715SOL     OW79918   1.628  10.394   3.494
92715SOL    HW179919   1.655  10.307   3.523
92715SOL    HW279920   1.539  10.405   3.528
92716SOL     OW79921  12.019   3.029   2.108
92716SOL    HW179922  12.087   3.008   2.173
92716SOL    HW279923  11.971   2.948   2.096
92717SOL     OW79924   5.890   4.574   4.396
92717SOL    HW179925   5.796   4.558   4.392
92717SOL    HW279926   5.918   4.577   4.304
92718SOL     OW79927   6.742   6.732   0.839
92718SOL    HW179928   6.804   6.662   0.860
92718SOL    HW279929   6.795   6.812   0.840
92719SOL     OW79930  13.394  13.736   0.863
92719SOL    HW179931  13.433  13.698   0.785
92719SOL    HW279932  13.301  13.747   0.841
92720SOL     OW79933  10.614   1.639  13.015
92720SOL    HW179934  10.576   1.706  12.958
92720SOL    HW279935  10.602   1.557  12.968
92721SOL     OW79936   9.597   2.355   6.742
92721SOL    HW179937   9.620   2.344   6.835
92721SOL    HW279938   9.674   2.398   6.705
92722SOL     OW79939   8.828   6.089   2.800
92722SOL    HW179940   8.859   6.042   2.878
92722SOL    HW279941   8.909   6.116   2.755
92723SOL     OW79942   1.177   2.877   9.883
92723SOL    HW179943   1.263   2.839   9.866
92723SOL    HW279944   1.128   2.808   9.927
92724SOL     OW79945   9.596  12.637   3.546
92724SOL    HW179946   9.615  12.680   3.462
92724SOL    HW279947   9.519  12.583   3.529
92725SOL     OW79948  11.487   3.995   9.010
92725SOL    HW179949  11.449   4.015   9.096
92725SOL    HW279950  11.489   4.079   8.964
92726SOL     OW79951  11.275   2.373   9.016
92726SOL    HW179952  11.225   2.296   8.988
92726SOL    HW279953  11.279   2.428   8.938
92727SOL     OW79954   9.728  12.806   2.150
92727SOL    HW179955   9.700  12.872   2.088
92727SOL    HW279956   9.808  12.841   2.189
92728SOL     OW79957   9.348   3.180   7.241
92728SOL    HW179958   9.419   3.223   7.194
92728SOL    HW279959   9.294   3.141   7.172
92729SOL     OW79960  14.367   6.236   4.551
92729SOL    HW179961  14.306   6.163   4.552
92729SOL    HW279962  14.454   6.195   4.543
92730SOL     OW79963   9.420   1.049  12.140
92730SOL    HW179964   9.341   1.101  12.125
92730SOL    HW279965   9.466   1.095  12.210
92731SOL     OW79966  12.696   7.386   0.363
92731SOL    HW179967  12.679   7.428   0.279
92731SOL    HW279968  12.638   7.310   0.364
92732SOL     OW79969   2.298   4.101   2.610
92732SOL    HW179970   2.365   4.154   2.569
92732SOL    HW279971   2.217   4.151   2.598
92733SOL     OW79972  12.831   5.195   2.427
92733SOL    HW179973  12.878   5.112   2.415
92733SOL    HW279974  12.786   5.185   2.511
92734SOL     OW79975   2.257   4.313   6.334
92734SOL    HW179976   2.350   4.290   6.325
92734SOL    HW279977   2.229   4.265   6.413
92735SOL     OW79978   1.015   4.834   4.238
92735SOL    HW179979   1.051   4.861   4.154
92735SOL    HW279980   1.091   4.804   4.288
92736SOL     OW79981  14.485  10.085   3.122
92736SOL    HW179982  14.522  10.168   3.151
92736SOL    HW279983  14.398  10.081   3.162
92737SOL     OW79984   4.890   1.356   9.964
92737SOL    HW179985   4.901   1.285   9.900
92737SOL    HW279986   4.977   1.369  10.000
92738SOL     OW79987   3.046  13.973   0.576
92738SOL    HW179988   3.078  14.004   0.661
92738SOL    HW279989   3.010  14.051   0.534
92739SOL     OW79990   5.399   1.460  13.411
92739SOL    HW179991   5.382   1.537  13.357
92739SOL    HW279992   5.460   1.491  13.478
92740SOL     OW79993   4.248   2.561  13.497
92740SOL    HW179994   4.244   2.605  13.582
92740SOL    HW279995   4.174   2.501  13.497
92741SOL     OW79996   8.063  13.395   1.937
92741SOL    HW179997   8.051  13.490   1.934
92741SOL    HW279998   8.095  13.378   2.026
92742SOL     OW79999  14.581  11.869   2.185
92742SOL    HW180000  14.673  11.856   2.163
92742SOL    HW280001  14.582  11.888   2.279
92743SOL     OW80002   9.243   2.562   2.502
92743SOL    HW180003   9.152   2.535   2.514
92743SOL    HW280004   9.284   2.543   2.587
92744SOL     OW80005   6.050  11.208   4.978
92744SOL    HW180006   6.006  11.282   4.936
92744SOL    HW280007   6.124  11.189   4.920
92745SOL     OW80008   3.329   1.894  14.764
92745SOL    HW180009   3.408   1.840  14.760
92745SOL    HW280010   3.310   1.915  14.673
92746SOL     OW80011   8.101   2.710  13.941
92746SOL    HW180012   8.023   2.751  13.903
92746SOL    HW280013   8.142   2.664  13.869
92747SOL     OW80014  11.624   5.029   2.205
92747SOL    HW180015  11.585   4.961   2.259
92747SOL    HW280016  11.550   5.079   2.171
92748SOL     OW80017   8.559   7.653  10.863
92748SOL    HW180018   8.550   7.736  10.816
92748SOL    HW280019   8.470   7.632  10.890
92749SOL     OW80020   0.365   8.041   9.340
92749SOL    HW180021   0.273   8.045   9.313
92749SOL    HW280022   0.407   8.113   9.293
92750SOL     OW80023   8.668   7.162  12.395
92750SOL    HW180024   8.690   7.195  12.482
92750SOL    HW280025   8.744   7.185  12.341
92751SOL     OW80026  14.636   6.696  10.060
92751SOL    HW180027  14.659   6.756   9.989
92751SOL    HW280028  14.558   6.736  10.101
92752SOL     OW80029  11.673  10.546   4.521
92752SOL    HW180030  11.729  10.474   4.491
92752SOL    HW280031  11.692  10.554   4.614
92753SOL     OW80032   4.539   9.093  11.245
92753SOL    HW180033   4.448   9.119  11.234
92753SOL    HW280034   4.589   9.167  11.210
92754SOL     OW80035   4.114   5.118   4.544
92754SOL    HW180036   4.089   5.207   4.520
92754SOL    HW280037   4.195   5.129   4.593
92755SOL     OW80038  10.517  11.163  12.576
92755SOL    HW180039  10.603  11.128  12.599
92755SOL    HW280040  10.492  11.216  12.652
92756SOL     OW80041   6.551  12.823  12.323
92756SOL    HW180042   6.493  12.819  12.247
92756SOL    HW280043   6.566  12.916  12.338
92757SOL     OW80044   6.176  12.793  13.707
92757SOL    HW180045   6.178  12.883  13.676
92757SOL    HW280046   6.106  12.791  13.772
92758SOL     OW80047   7.542   9.926  13.803
92758SOL    HW180048   7.608   9.870  13.762
92758SOL    HW280049   7.504   9.976  13.731
92759SOL     OW80050   8.985   2.231   6.169
92759SOL    HW180051   8.909   2.200   6.217
92759SOL    HW280052   8.979   2.326   6.172
92760SOL     OW80053  12.110   3.978   1.665
92760SOL    HW180054  12.054   4.034   1.612
92760SOL    HW280055  12.144   3.912   1.604
92761SOL     OW80056   2.046  13.793   5.768
92761SOL    HW180057   1.978  13.806   5.702
92761SOL    HW280058   2.093  13.876   5.771
92762SOL     OW80059   3.193   0.194   2.816
92762SOL    HW180060   3.213   0.269   2.873
92762SOL    HW280061   3.201   0.230   2.727
92763SOL     OW80062   7.247   6.255  14.852
92763SOL    HW180063   7.161   6.297  14.856
92763SOL    HW280064   7.244   6.201  14.773
92764SOL     OW80065   2.460  11.412  14.021
92764SOL    HW180066   2.392  11.362  14.066
92764SOL    HW280067   2.465  11.372  13.934
92765SOL     OW80068   1.082  12.610   3.590
92765SOL    HW180069   1.084  12.643   3.500
92765SOL    HW280070   1.110  12.519   3.582
92766SOL     OW80071   6.248  14.358   4.355
92766SOL    HW180072   6.201  14.288   4.401
92766SOL    HW280073   6.329  14.369   4.404
92767SOL     OW80074   6.037   3.730   1.159
92767SOL    HW180075   5.943   3.747   1.164
92767SOL    HW280076   6.061   3.700   1.247
92768SOL     OW80077   4.052   4.351   2.707
92768SOL    HW180078   4.131   4.374   2.756
92768SOL    HW280079   4.079   4.347   2.616
92769SOL     OW80080   6.124   3.521   7.149
92769SOL    HW180081   6.177   3.592   7.112
92769SOL    HW280082   6.184   3.471   7.204
92770SOL     OW80083   6.934   3.234  11.266
92770SOL    HW180084   6.903   3.167  11.326
92770SOL    HW280085   6.860   3.294  11.255
92771SOL     OW80086   4.795   4.499   3.253
92771SOL    HW180087   4.886   4.470   3.260
92771SOL    HW280088   4.768   4.514   3.344
92772SOL     OW80089   3.073  12.347   3.063
92772SOL    HW180090   3.041  12.391   3.141
92772SOL    HW280091   3.077  12.416   2.997
92773SOL     OW80092  12.712  13.988  14.792
92773SOL    HW180093  12.734  13.896  14.804
92773SOL    HW280094  12.645  13.988  14.724
92774SOL     OW80095   0.833   6.591  13.231
92774SOL    HW180096   0.776   6.514  13.228
92774SOL    HW280097   0.914   6.561  13.190
92775SOL     OW80098  14.054   2.298   9.951
92775SOL    HW180099  14.039   2.306  10.046
92775SOL    HW280100  14.055   2.389   9.920
92776SOL     OW80101   6.002   2.674  11.590
92776SOL    HW180102   6.028   2.673  11.498
92776SOL    HW280103   5.936   2.606  11.597
92777SOL     OW80104   7.867   8.124  11.986
92777SOL    HW180105   7.854   8.051  12.047
92777SOL    HW280106   7.838   8.201  12.035
92778SOL     OW80107   8.630  13.390   7.501
92778SOL    HW180108   8.659  13.415   7.588
92778SOL    HW280109   8.611  13.473   7.457
92779SOL     OW80110  11.448   0.649  11.715
92779SOL    HW180111  11.520   0.627  11.656
92779SOL    HW280112  11.445   0.745  11.713
92780SOL     OW80113  13.861   9.064   5.433
92780SOL    HW180114  13.911   9.049   5.513
92780SOL    HW280115  13.795   8.996   5.432
92781SOL     OW80116   2.138   4.214   3.392
92781SOL    HW180117   2.066   4.152   3.382
92781SOL    HW280118   2.133   4.269   3.314
92782SOL     OW80119   7.494  10.504   5.785
92782SOL    HW180120   7.436  10.435   5.818
92782SOL    HW280121   7.538  10.464   5.710
92783SOL     OW80122   4.710  14.015  12.958
92783SOL    HW180123   4.730  13.957  13.031
92783SOL    HW280124   4.732  14.102  12.990
92784SOL     OW80125  11.512  10.578   1.374
92784SOL    HW180126  11.446  10.525   1.330
92784SOL    HW280127  11.558  10.517   1.432
92785SOL     OW80128   0.167  11.976  10.542
92785SOL    HW180129   0.140  12.025  10.464
92785SOL    HW280130   0.141  11.886  10.524
92786SOL     OW80131  10.285  14.609   0.315
92786SOL    HW180132  10.309  14.627   0.406
92786SOL    HW280133  10.190  14.595   0.318
92787SOL     OW80134   3.579   5.448   6.713
92787SOL    HW180135   3.617   5.373   6.666
92787SOL    HW280136   3.504   5.474   6.660
92788SOL     OW80137   0.731  14.071  11.666
92788SOL    HW180138   0.683  14.045  11.745
92788SOL    HW280139   0.813  14.107  11.700
92789SOL     OW80140   8.640  14.181   9.527
92789SOL    HW180141   8.642  14.266   9.484
92789SOL    HW280142   8.566  14.135   9.486
92790SOL     OW80143  10.893   2.989   9.933
92790SOL    HW180144  10.942   2.909   9.911
92790SOL    HW280145  10.830   2.998   9.862
92791SOL     OW80146  13.923  14.837  11.144
92791SOL    HW180147  13.954  14.748  11.128
92791SOL    HW280148  13.966  14.863  11.226
92792SOL     OW80149   1.372   3.641  13.836
92792SOL    HW180150   1.425   3.668  13.912
92792SOL    HW280151   1.418   3.678  13.761
92793SOL     OW80152   9.770   6.758  10.590
92793SOL    HW180153   9.713   6.811  10.534
92793SOL    HW280154   9.745   6.667  10.571
92794SOL     OW80155  13.404  11.607   7.208
92794SOL    HW180156  13.476  11.551   7.237
92794SOL    HW280157  13.327  11.572   7.252
92795SOL     OW80158   9.969   5.230   8.036
92795SOL    HW180159   9.889   5.247   7.987
92795SOL    HW280160  10.003   5.317   8.056
92796SOL     OW80161   0.762   9.637   2.157
92796SOL    HW180162   0.810   9.717   2.133
92796SOL    HW280163   0.693   9.668   2.217
92797SOL     OW80164  11.215   0.268   5.010
92797SOL    HW180165  11.250   0.204   5.072
92797SOL    HW280166  11.273   0.344   5.019
92798SOL     OW80167  14.543  12.595   8.424
92798SOL    HW180168  14.635  12.574   8.408
92798SOL    HW280169  14.496  12.512   8.410
92799SOL     OW80170   0.418   5.920  13.811
92799SOL    HW180171   0.348   5.860  13.785
92799SOL    HW280172   0.375   5.985  13.867
92800SOL     OW80173   6.695  11.529  13.894
92800SOL    HW180174   6.734  11.605  13.849
92800SOL    HW280175   6.686  11.558  13.985
92801SOL     OW80176   7.447   9.685   1.328
92801SOL    HW180177   7.478   9.594   1.327
92801SOL    HW280178   7.522   9.735   1.359
92802SOL     OW80179   2.657   4.516  11.665
92802SOL    HW180180   2.599   4.507  11.740
92802SOL    HW280181   2.604   4.490  11.590
92803SOL     OW80182  12.224   2.379   8.180
92803SOL    HW180183  12.209   2.385   8.275
92803SOL    HW280184  12.275   2.457   8.159
92804SOL     OW80185  10.503   3.612   3.051
92804SOL    HW180186  10.571   3.592   2.986
92804SOL    HW280187  10.481   3.704   3.034
92805SOL     OW80188  14.491   8.131   9.246
92805SOL    HW180189  14.435   8.209   9.239
92805SOL    HW280190  14.447   8.065   9.193
92806SOL     OW80191   6.021  13.651   8.693
92806SOL    HW180192   5.983  13.633   8.607
92806SOL    HW280193   6.112  13.621   8.686
92807SOL     OW80194  11.382   3.290  14.479
92807SOL    HW180195  11.429   3.364  14.519
92807SOL    HW280196  11.359   3.321  14.392
92808SOL     OW80197  12.699   9.558   4.966
92808SOL    HW180198  12.764   9.491   4.986
92808SOL    HW280199  12.656   9.527   4.886
92809SOL     OW80200   3.537   9.462   8.786
92809SOL    HW180201   3.614   9.494   8.834
92809SOL    HW280202   3.570   9.390   8.732
92810SOL     OW80203  12.682   6.730   1.461
92810SOL    HW180204  12.724   6.816   1.449
92810SOL    HW280205  12.597   6.739   1.417
92811SOL     OW80206   5.429   2.170   9.510
92811SOL    HW180207   5.443   2.229   9.585
92811SOL    HW280208   5.453   2.083   9.543
92812SOL     OW80209   8.462   5.333   1.070
92812SOL    HW180210   8.527   5.335   1.000
92812SOL    HW280211   8.484   5.408   1.125
92813SOL     OW80212   3.895   3.629  13.778
92813SOL    HW180213   3.822   3.691  13.780
92813SOL    HW280214   3.922   3.626  13.686
92814SOL     OW80215   6.785  14.139  10.420
92814SOL    HW180216   6.853  14.093  10.469
92814SOL    HW280217   6.727  14.070  10.389
92815SOL     OW80218  12.112   3.446  12.419
92815SOL    HW180219  12.017   3.435  12.413
92815SOL    HW280220  12.144   3.364  12.456
92816SOL     OW80221   7.357   5.748   1.373
92816SOL    HW180222   7.266   5.726   1.393
92816SOL    HW280223   7.358   5.844   1.374
92817SOL     OW80224  12.691   3.748   4.883
92817SOL    HW180225  12.703   3.670   4.938
92817SOL    HW280226  12.780   3.773   4.857
92818SOL     OW80227  13.087   0.917  10.685
92818SOL    HW180228  13.121   0.991  10.634
92818SOL    HW280229  13.064   0.851  10.619
92819SOL     OW80230  11.724   4.073   7.668
92819SOL    HW180231  11.795   4.011   7.653
92819SOL    HW280232  11.674   4.072   7.587
92820SOL     OW80233   0.932   5.123  10.286
92820SOL    HW180234   0.954   5.123  10.193
92820SOL    HW280235   0.955   5.035  10.316
92821SOL     OW80236  14.774   4.619  14.795
92821SOL    HW180237  14.718   4.550  14.759
92821SOL    HW280238  14.862   4.584  14.789
92822SOL     OW80239  13.473   4.095   9.449
92822SOL    HW180240  13.444   4.155   9.381
92822SOL    HW280241  13.438   4.131   9.531
92823SOL     OW80242   5.109   5.786   7.126
92823SOL    HW180243   5.061   5.739   7.058
92823SOL    HW280244   5.046   5.848   7.162
92824SOL     OW80245  11.235   3.736   0.417
92824SOL    HW180246  11.253   3.820   0.459
92824SOL    HW280247  11.200   3.681   0.487
92825SOL     OW80248  10.124  14.167  13.828
92825SOL    HW180249  10.180  14.090  13.837
92825SOL    HW280250  10.167  14.234  13.882
92826SOL     OW80251  13.300   6.944   7.210
92826SOL    HW180252  13.241   7.000   7.259
92826SOL    HW280253  13.324   6.874   7.271
92827SOL     OW80254  14.186  14.295   5.552
92827SOL    HW180255  14.123  14.232   5.517
92827SOL    HW280256  14.258  14.293   5.490
92828SOL     OW80257  14.502   6.369  11.126
92828SOL    HW180258  14.480   6.323  11.045
92828SOL    HW280259  14.453   6.322  11.194
92829SOL     OW80260  14.139  10.632   8.864
92829SOL    HW180261  14.055  10.635   8.817
92829SOL    HW280262  14.120  10.580   8.942
92830SOL     OW80263   2.145   7.065   3.567
92830SOL    HW180264   2.138   7.114   3.484
92830SOL    HW280265   2.162   6.975   3.540
92831SOL     OW80266   0.937   8.070   7.024
92831SOL    HW180267   0.872   8.135   6.997
92831SOL    HW280268   0.962   8.025   6.943
92832SOL     OW80269  14.789   1.675  10.638
92832SOL    HW180270  14.728   1.647  10.705
92832SOL    HW280271  14.766   1.623  10.561
92833SOL     OW80272   1.742   9.853  12.391
92833SOL    HW180273   1.785   9.880  12.309
92833SOL    HW280274   1.768   9.761  12.402
92834SOL     OW80275   7.993   3.630   0.807
92834SOL    HW180276   7.907   3.652   0.843
92834SOL    HW280277   8.005   3.691   0.734
92835SOL     OW80278  11.577  10.234   8.937
92835SOL    HW180279  11.571  10.143   8.966
92835SOL    HW280280  11.611  10.228   8.847
92836SOL     OW80281   4.924   1.595  13.319
92836SOL    HW180282   4.866   1.528  13.283
92836SOL    HW280283   4.944   1.652  13.245
92837SOL     OW80284   1.226  14.814   2.208
92837SOL    HW180285   1.256   0.027   2.217
92837SOL    HW280286   1.275  14.765   2.274
92838SOL     OW80287  11.970   6.910  11.940
92838SOL    HW180288  12.058   6.877  11.921
92838SOL    HW280289  11.934   6.848  12.003
92839SOL     OW80290   6.558  11.495   6.208
92839SOL    HW180291   6.647  11.468   6.228
92839SOL    HW280292   6.519  11.420   6.164
92840SOL     OW80293   7.320  13.250  14.093
92840SOL    HW180294   7.239  13.264  14.142
92840SOL    HW280295   7.317  13.314  14.022
92841SOL     OW80296   4.089  11.170   5.164
92841SOL    HW180297   4.003  11.144   5.196
92841SOL    HW280298   4.075  11.256   5.124
92842SOL     OW80299   2.167  13.690   7.742
92842SOL    HW180300   2.122  13.652   7.818
92842SOL    HW280301   2.118  13.656   7.667
92843SOL     OW80302  12.222   1.626  10.609
92843SOL    HW180303  12.240   1.611  10.516
92843SOL    HW280304  12.276   1.701  10.632
92844SOL     OW80305  11.667   1.900   9.754
92844SOL    HW180306  11.673   1.962   9.680
92844SOL    HW280307  11.615   1.946   9.819
92845SOL     OW80308  13.861   1.466  11.727
92845SOL    HW180309  13.784   1.518  11.703
92845SOL    HW280310  13.861   1.466  11.822
92846SOL     OW80311   6.436   3.935   0.186
92846SOL    HW180312   6.436   3.896   0.273
92846SOL    HW280313   6.361   3.995   0.187
92847SOL     OW80314   2.431  14.003  12.495
92847SOL    HW180315   2.507  13.968  12.541
92847SOL    HW280316   2.403  14.078  12.547
92848SOL     OW80317   1.218   7.515   6.591
92848SOL    HW180318   1.157   7.514   6.665
92848SOL    HW280319   1.242   7.607   6.580
92849SOL     OW80320   6.715   8.009  13.319
92849SOL    HW180321   6.686   7.947  13.386
92849SOL    HW280322   6.642   8.013  13.257
92850SOL     OW80323   7.623  10.835   7.882
92850SOL    HW180324   7.636  10.891   7.959
92850SOL    HW280325   7.601  10.896   7.812
92851SOL     OW80326  10.074   7.746   7.694
92851SOL    HW180327  10.001   7.685   7.680
92851SOL    HW280328  10.037   7.816   7.747
92852SOL     OW80329   5.830   0.976  12.459
92852SOL    HW180330   5.764   0.926  12.507
92852SOL    HW280331   5.890   1.007  12.527
92853SOL     OW80332   1.296   6.632   6.654
92853SOL    HW180333   1.261   6.656   6.740
92853SOL    HW280334   1.218   6.618   6.600
92854SOL     OW80335  14.477   2.407   1.126
92854SOL    HW180336  14.440   2.342   1.067
92854SOL    HW280337  14.423   2.401   1.205
92855SOL     OW80338   4.535  13.742   1.129
92855SOL    HW180339   4.584  13.718   1.208
92855SOL    HW280340   4.531  13.661   1.078
92856SOL     OW80341   4.821  10.013  12.617
92856SOL    HW180342   4.882  10.080  12.585
92856SOL    HW280343   4.850   9.996  12.707
92857SOL     OW80344   4.192   9.002   3.154
92857SOL    HW180345   4.136   9.041   3.222
92857SOL    HW280346   4.276   8.990   3.198
92858SOL     OW80347   7.029  12.003   8.534
92858SOL    HW180348   7.020  11.922   8.585
92858SOL    HW280349   7.094  12.054   8.582
92859SOL     OW80350   8.080  10.978   8.148
92859SOL    HW180351   8.005  10.919   8.139
92859SOL    HW280352   8.125  10.948   8.227
92860SOL     OW80353   6.679   9.511  10.872
92860SOL    HW180354   6.732   9.488  10.796
92860SOL    HW280355   6.737   9.563  10.927
92861SOL     OW80356   6.959   7.493  12.355
92861SOL    HW180357   6.883   7.525  12.404
92861SOL    HW280358   6.944   7.522  12.265
92862SOL     OW80359   6.387  11.639  12.881
92862SOL    HW180360   6.446  11.658  12.808
92862SOL    HW280361   6.363  11.726  12.915
92863SOL     OW80362  11.106   7.683   8.474
92863SOL    HW180363  11.038   7.678   8.541
92863SOL    HW280364  11.105   7.596   8.433
92864SOL     OW80365   0.882   8.367  14.062
92864SOL    HW180366   0.928   8.382  13.979
92864SOL    HW280367   0.952   8.347  14.124
92865SOL     OW80368   8.046  11.778   6.446
92865SOL    HW180369   8.002  11.856   6.482
92865SOL    HW280370   7.988  11.747   6.377
92866SOL     OW80371   7.890  13.140   8.468
92866SOL    HW180372   7.905  13.067   8.407
92866SOL    HW280373   7.800  13.167   8.452
92867SOL     OW80374   6.657   9.265   4.369
92867SOL    HW180375   6.690   9.211   4.441
92867SOL    HW280376   6.731   9.273   4.309
92868SOL     OW80377  14.366   1.515  13.854
92868SOL    HW180378  14.377   1.451  13.924
92868SOL    HW280379  14.275   1.507  13.826
92869SOL     OW80380   4.630   7.903  14.858
92869SOL    HW180381   4.682   7.982  14.844
92869SOL    HW280382   4.546   7.923  14.816
92870SOL     OW80383   2.648  11.296   7.477
92870SOL    HW180384   2.699  11.223   7.512
92870SOL    HW280385   2.627  11.270   7.387
92871SOL     OW80386  13.099   6.873   6.290
92871SOL    HW180387  13.068   6.867   6.381
92871SOL    HW280388  13.188   6.838   6.294
92872SOL     OW80389  12.399   1.829  13.817
92872SOL    HW180390  12.422   1.881  13.739
92872SOL    HW280391  12.404   1.891  13.889
92873SOL     OW80392   9.290   0.676  13.255
92873SOL    HW180393   9.323   0.662  13.344
92873SOL    HW280394   9.340   0.615  13.201
92874SOL     OW80395  11.768  13.933   8.896
92874SOL    HW180396  11.815  13.850   8.900
92874SOL    HW280397  11.813  13.983   8.828
92875SOL     OW80398   4.902   5.643   8.694
92875SOL    HW180399   4.883   5.736   8.702
92875SOL    HW280400   4.997   5.638   8.688
92876SOL     OW80401  14.006   4.486   3.927
92876SOL    HW180402  13.966   4.542   3.993
92876SOL    HW280403  13.986   4.397   3.955
92877SOL     OW80404   6.273   8.900   5.746
92877SOL    HW180405   6.362   8.907   5.782
92877SOL    HW280406   6.233   8.828   5.795
92878SOL     OW80407  12.155   3.810  13.064
92878SOL    HW180408  12.150   3.864  13.143
92878SOL    HW280409  12.228   3.750  13.081
92879SOL     OW80410   2.876   9.599   8.248
92879SOL    HW180411   2.792   9.565   8.219
92879SOL    HW280412   2.854   9.667   8.312
92880SOL     OW80413  13.959  13.119   2.947
92880SOL    HW180414  13.967  13.055   2.876
92880SOL    HW280415  13.976  13.203   2.905
92881SOL     OW80416   9.304   2.807  13.053
92881SOL    HW180417   9.365   2.771  12.989
92881SOL    HW280418   9.236   2.848  13.001
92882SOL     OW80419   5.589  14.620   3.261
92882SOL    HW180420   5.500  14.639   3.230
92882SOL    HW280421   5.643  14.688   3.220
92883SOL     OW80422   8.114  12.446  11.846
92883SOL    HW180423   8.173  12.386  11.892
92883SOL    HW280424   8.168  12.483  11.776
92884SOL     OW80425   3.361   1.700  14.413
92884SOL    HW180426   3.357   1.781  14.362
92884SOL    HW280427   3.403   1.724  14.495
92885SOL     OW80428   1.866   3.089  11.061
92885SOL    HW180429   1.943   3.139  11.088
92885SOL    HW280430   1.814   3.081  11.141
92886SOL     OW80431   7.418   9.240   7.093
92886SOL    HW180432   7.481   9.311   7.075
92886SOL    HW280433   7.339   9.285   7.122
92887SOL     OW80434   2.524   7.519   1.239
92887SOL    HW180435   2.556   7.501   1.150
92887SOL    HW280436   2.533   7.436   1.286
92888SOL     OW80437  14.639   9.507   2.569
92888SOL    HW180438  14.614   9.471   2.484
92888SOL    HW280439  14.684   9.589   2.548
92889SOL     OW80440  13.881   1.163  10.153
92889SOL    HW180441  13.899   1.242  10.102
92889SOL    HW280442  13.846   1.101  10.089
92890SOL     OW80443  14.391   1.878   3.953
92890SOL    HW180444  14.374   1.790   3.985
92890SOL    HW280445  14.308   1.924   3.964
92891SOL     OW80446   1.445   8.327   8.060
92891SOL    HW180447   1.485   8.414   8.049
92891SOL    HW280448   1.374   8.325   7.996
92892SOL     OW80449  12.870   4.291   3.470
92892SOL    HW180450  12.907   4.204   3.487
92892SOL    HW280451  12.935   4.352   3.504
92893SOL     OW80452  14.160   5.113   6.036
92893SOL    HW180453  14.206   5.051   6.093
92893SOL    HW280454  14.135   5.185   6.094
92894SOL     OW80455   1.669  13.887   3.266
92894SOL    HW180456   1.584  13.930   3.267
92894SOL    HW280457   1.726  13.948   3.217
92895SOL     OW80458   0.783   5.852   0.867
92895SOL    HW180459   0.815   5.774   0.912
92895SOL    HW280460   0.688   5.844   0.869
92896SOL     OW80461  10.554  12.121   8.929
92896SOL    HW180462  10.476  12.101   8.980
92896SOL    HW280463  10.626  12.111   8.991
92897SOL     OW80464  11.057  10.251  12.480
92897SOL    HW180465  11.011  10.201  12.413
92897SOL    HW280466  10.997  10.323  12.501
92898SOL     OW80467   9.575   7.943   2.060
92898SOL    HW180468   9.655   7.969   2.106
92898SOL    HW280469   9.511   8.011   2.080
92899SOL     OW80470   0.045  10.303  11.354
92899SOL    HW180471   0.107  10.234  11.377
92899SOL    HW280472   0.067  10.325  11.263
92900SOL     OW80473   5.284  10.947   8.891
92900SOL    HW180474   5.191  10.942   8.913
92900SOL    HW280475   5.320  11.009   8.953
92901SOL     OW80476   3.401  12.894  11.995
92901SOL    HW180477   3.313  12.856  11.991
92901SOL    HW280478   3.443  12.850  12.069
92902SOL     OW80479   5.371  11.280   3.309
92902SOL    HW180480   5.307  11.219   3.272
92902SOL    HW280481   5.423  11.308   3.234
92903SOL     OW80482   7.463  11.243   3.344
92903SOL    HW180483   7.460  11.333   3.310
92903SOL    HW280484   7.551  11.234   3.380
92904SOL     OW80485   3.776   5.227   4.542
92904SOL    HW180486   3.724   5.304   4.565
92904SOL    HW280487   3.867   5.257   4.546
92905SOL     OW80488  14.560  10.001  11.101
92905SOL    HW180489  14.566  10.050  11.019
92905SOL    HW280490  14.555  10.068  11.169
92906SOL     OW80491   5.222  14.765  11.773
92906SOL    HW180492   5.250  14.787  11.684
92906SOL    HW280493   5.260  14.678  11.790
92907SOL     OW80494   4.175  11.302  13.954
92907SOL    HW180495   4.114  11.228  13.950
92907SOL    HW280496   4.192  11.314  14.047
92908SOL     OW80497   3.103  13.774   7.129
92908SOL    HW180498   3.134  13.772   7.219
92908SOL    HW280499   3.008  13.768   7.136
92909SOL     OW80500   7.091   5.479   9.625
92909SOL    HW180501   7.133   5.493   9.540
92909SOL    HW280502   7.079   5.385   9.631
92910SOL     OW80503   1.270  13.418  10.498
92910SOL    HW180504   1.252  13.509  10.473
92910SOL    HW280505   1.363  13.407  10.479
92911SOL     OW80506   0.826   9.302   0.200
92911SOL    HW180507   0.751   9.277   0.147
92911SOL    HW280508   0.898   9.312   0.138
92912SOL     OW80509   1.469   0.751  13.940
92912SOL    HW180510   1.429   0.729  13.856
92912SOL    HW280511   1.556   0.711  13.936
92913SOL     OW80512   9.012  11.867  12.812
92913SOL    HW180513   9.054  11.911  12.886
92913SOL    HW280514   8.993  11.779  12.844
92914SOL     OW80515   8.346   0.944  11.743
92914SOL    HW180516   8.345   1.014  11.678
92914SOL    HW280517   8.347   0.863  11.691
92915SOL     OW80518   1.843   3.900  11.226
92915SOL    HW180519   1.799   3.844  11.162
92915SOL    HW280520   1.921   3.931  11.180
92916SOL     OW80521   1.005   4.391  12.544
92916SOL    HW180522   0.922   4.435  12.567
92916SOL    HW280523   0.980   4.327  12.477
92917SOL     OW80524   7.578  12.489   3.465
92917SOL    HW180525   7.620  12.534   3.539
92917SOL    HW280526   7.632  12.412   3.449
92918SOL     OW80527  13.482   9.372   1.172
92918SOL    HW180528  13.387   9.378   1.184
92918SOL    HW280529  13.512   9.315   1.243
92919SOL     OW80530   0.995   8.598   9.358
92919SOL    HW180531   0.905   8.630   9.361
92919SOL    HW280532   0.996   8.535   9.286
92920SOL     OW80533   2.055   9.510   3.365
92920SOL    HW180534   2.043   9.488   3.273
92920SOL    HW280535   1.976   9.477   3.408
92921SOL     OW80536   5.450   9.420   6.421
92921SOL    HW180537   5.509   9.428   6.496
92921SOL    HW280538   5.506   9.430   6.344
92922SOL     OW80539   4.404   9.190   6.959
92922SOL    HW180540   4.387   9.204   7.052
92922SOL    HW280541   4.333   9.133   6.930
92923SOL     OW80542  13.806  11.259   3.618
92923SOL    HW180543  13.859  11.305   3.552
92923SOL    HW280544  13.735  11.220   3.568
92924SOL     OW80545   5.258   7.909   9.616
92924SOL    HW180546   5.264   7.909   9.520
92924SOL    HW280547   5.348   7.916   9.646
92925SOL     OW80548  14.448   5.887   6.255
92925SOL    HW180549  14.395   5.862   6.179
92925SOL    HW280550  14.537   5.891   6.221
92926SOL     OW80551   5.008   3.325   4.220
92926SOL    HW180552   5.011   3.419   4.203
92926SOL    HW280553   5.077   3.289   4.164
92927SOL     OW80554  12.227  11.183   1.657
92927SOL    HW180555  12.251  11.090   1.647
92927SOL    HW280556  12.196  11.190   1.747
92928SOL     OW80557   4.000   8.059   9.116
92928SOL    HW180558   3.956   7.974   9.120
92928SOL    HW280559   4.091   8.039   9.141
92929SOL     OW80560   3.385   7.554  11.058
92929SOL    HW180561   3.376   7.466  11.094
92929SOL    HW280562   3.325   7.556  10.984
92930SOL     OW80563   8.723   3.158   2.352
92930SOL    HW180564   8.748   3.165   2.260
92930SOL    HW280565   8.710   3.064   2.365
92931SOL     OW80566   5.465   9.963   3.194
92931SOL    HW180567   5.394   9.989   3.136
92931SOL    HW280568   5.509  10.044   3.216
92932SOL     OW80569   1.519   9.368  10.614
92932SOL    HW180570   1.430   9.340  10.590
92932SOL    HW280571   1.557   9.291  10.657
92933SOL     OW80572   8.616   4.697   5.689
92933SOL    HW180573   8.604   4.784   5.727
92933SOL    HW280574   8.575   4.703   5.603
92934SOL     OW80575   2.876   0.440   4.287
92934SOL    HW180576   2.918   0.497   4.351
92934SOL    HW280577   2.909   0.353   4.307
92935SOL     OW80578   9.911  11.294   1.900
92935SOL    HW180579   9.883  11.203   1.887
92935SOL    HW280580   9.843  11.333   1.955
92936SOL     OW80581  12.846   4.208  13.661
92936SOL    HW180582  12.834   4.249  13.575
92936SOL    HW280583  12.767   4.231  13.710
92937SOL     OW80584  11.289  10.225   3.142
92937SOL    HW180585  11.271  10.244   3.050
92937SOL    HW280586  11.293  10.311   3.184
92938SOL     OW80587   9.775  12.585   9.077
92938SOL    HW180588   9.751  12.541   9.159
92938SOL    HW280589   9.696  12.579   9.023
92939SOL     OW80590   5.646  12.947  13.020
92939SOL    HW180591   5.631  12.975  12.930
92939SOL    HW280592   5.741  12.943  13.029
92940SOL     OW80593  14.660  12.810  12.027
92940SOL    HW180594  14.710  12.839  12.103
92940SOL    HW280595  14.585  12.764  12.065
92941SOL     OW80596   3.724  12.311   5.457
92941SOL    HW180597   3.786  12.290   5.527
92941SOL    HW280598   3.698  12.226   5.422
92942SOL     OW80599  11.994   5.567   0.850
92942SOL    HW180600  12.039   5.575   0.766
92942SOL    HW280601  11.993   5.474   0.868
92943SOL     OW80602  12.584  11.292   2.088
92943SOL    HW180603  12.627  11.375   2.066
92943SOL    HW280604  12.603  11.280   2.181
92944SOL     OW80605   1.651   5.089   4.487
92944SOL    HW180606   1.710   5.129   4.422
92944SOL    HW280607   1.608   5.018   4.439
92945SOL     OW80608   9.926   0.383   1.026
92945SOL    HW180609   9.907   0.473   1.054
92945SOL    HW280610   9.959   0.393   0.937
92946SOL     OW80611   0.896   3.588  14.589
92946SOL    HW180612   0.962   3.557  14.652
92946SOL    HW280613   0.943   3.651  14.535
92947SOL     OW80614   4.233  10.861   4.540
92947SOL    HW180615   4.228  10.832   4.449
92947SOL    HW280616   4.268  10.786   4.588
92948SOL     OW80617   5.591   1.682   8.493
92948SOL    HW180618   5.593   1.722   8.407
92948SOL    HW280619   5.511   1.715   8.533
92949SOL     OW80620   0.078  13.413   4.056
92949SOL    HW180621   0.052  13.321   4.060
92949SOL    HW280622   0.150  13.415   3.993
92950SOL     OW80623   0.679   0.230  11.298
92950SOL    HW180624   0.717   0.270  11.220
92950SOL    HW280625   0.752   0.226  11.361
92951SOL     OW80626   9.783  12.604   1.971
92951SOL    HW180627   9.777  12.680   2.029
92951SOL    HW280628   9.763  12.529   2.028
92952SOL     OW80629  13.783   3.044   2.403
92952SOL    HW180630  13.864   3.093   2.391
92952SOL    HW280631  13.787   2.975   2.337
92953SOL     OW80632   0.063   5.321  13.584
92953SOL    HW180633  14.874   5.282  13.528
92953SOL    HW280634   0.124   5.364  13.523
92954SOL     OW80635  14.495   5.947  13.164
92954SOL    HW180636  14.422   5.893  13.195
92954SOL    HW280637  14.480   6.033  13.205
92955SOL     OW80638   2.529  12.471   0.942
92955SOL    HW180639   2.473  12.530   0.992
92955SOL    HW280640   2.476  12.444   0.867
92956SOL     OW80641   6.945   5.607   6.079
92956SOL    HW180642   7.032   5.590   6.115
92956SOL    HW280643   6.920   5.525   6.036
92957SOL     OW80644   4.126   4.230  13.539
92957SOL    HW180645   4.197   4.167  13.545
92957SOL    HW280646   4.165   4.307  13.497
92958SOL     OW80647  13.459   4.546   0.661
92958SOL    HW180648  13.488   4.629   0.699
92958SOL    HW280649  13.535   4.514   0.613
92959SOL     OW80650   0.658  12.025   2.851
92959SOL    HW180651   0.571  12.016   2.889
92959SOL    HW280652   0.702  11.943   2.872
92960SOL     OW80653   8.787  14.393   5.863
92960SOL    HW180654   8.714  14.435   5.817
92960SOL    HW280655   8.858  14.393   5.799
92961SOL     OW80656  11.296  13.542   4.085
92961SOL    HW180657  11.235  13.545   4.159
92961SOL    HW280658  11.239  13.540   4.007
92962SOL     OW80659  13.063   0.138   3.764
92962SOL    HW180660  13.137   0.184   3.725
92962SOL    HW280661  13.017   0.205   3.815
92963SOL     OW80662  11.062  14.775   7.950
92963SOL    HW180663  11.002  14.701   7.960
92963SOL    HW280664  11.021  14.831   7.885
92964SOL     OW80665   6.293   6.800   0.261
92964SOL    HW180666   6.366   6.810   0.322
92964SOL    HW280667   6.218   6.778   0.316
92965SOL     OW80668  14.377  14.028   9.151
92965SOL    HW180669  14.371  14.034   9.247
92965SOL    HW280670  14.376  13.934   9.134
92966SOL     OW80671   0.627  13.877   9.904
92966SOL    HW180672   0.645  13.890   9.811
92966SOL    HW280673   0.535  13.853   9.908
92967SOL     OW80674   1.338   7.320   6.918
92967SOL    HW180675   1.344   7.300   6.825
92967SOL    HW280676   1.332   7.235   6.961
92968SOL     OW80677   0.309   6.586   1.755
92968SOL    HW180678   0.263   6.668   1.737
92968SOL    HW280679   0.398   6.601   1.723
92969SOL     OW80680  13.704  11.858   8.204
92969SOL    HW180681  13.688  11.943   8.246
92969SOL    HW280682  13.763  11.813   8.264
92970SOL     OW80683   8.155   3.135   1.898
92970SOL    HW180684   8.243   3.101   1.879
92970SOL    HW280685   8.163   3.230   1.886
92971SOL     OW80686   4.859   0.925   2.383
92971SOL    HW180687   4.939   0.896   2.337
92971SOL    HW280688   4.881   1.011   2.418
92972SOL     OW80689   2.296   1.655   0.528
92972SOL    HW180690   2.347   1.637   0.607
92972SOL    HW280691   2.311   1.748   0.510
92973SOL     OW80692   2.784   0.333   0.149
92973SOL    HW180693   2.725   0.257   0.139
92973SOL    HW280694   2.737   0.404   0.106
92974SOL     OW80695   7.984  14.873   8.063
92974SOL    HW180696   7.952  14.790   8.030
92974SOL    HW280697   8.012  14.854   8.153
92975SOL     OW80698  11.196   3.303  10.771
92975SOL    HW180699  11.132   3.329  10.705
92975SOL    HW280700  11.219   3.213  10.748
92976SOL     OW80701  12.391   2.146   2.176
92976SOL    HW180702  12.308   2.193   2.167
92976SOL    HW280703  12.435   2.189   2.249
92977SOL     OW80704   8.264   3.591   6.501
92977SOL    HW180705   8.243   3.581   6.408
92977SOL    HW280706   8.257   3.503   6.537
92978SOL     OW80707  13.393  10.841   8.194
92978SOL    HW180708  13.361  10.901   8.127
92978SOL    HW280709  13.395  10.756   8.150
92979SOL     OW80710  10.603   2.697   9.313
92979SOL    HW180711  10.533   2.709   9.378
92979SOL    HW280712  10.615   2.783   9.275
92980SOL     OW80713   6.005  10.650   0.457
92980SOL    HW180714   5.948  10.691   0.522
92980SOL    HW280715   6.088  10.696   0.466
92981SOL     OW80716   4.267   0.075  13.945
92981SOL    HW180717   4.276   0.086  13.851
92981SOL    HW280718   4.300   0.157  13.982
92982SOL     OW80719   2.057   1.910   7.085
92982SOL    HW180720   2.022   1.821   7.097
92982SOL    HW280721   2.019   1.961   7.156
92983SOL     OW80722   4.865   9.348  12.554
92983SOL    HW180723   4.904   9.302  12.628
92983SOL    HW280724   4.876   9.289  12.480
92984SOL     OW80725  13.038   0.726   0.668
92984SOL    HW180726  13.123   0.711   0.709
92984SOL    HW280727  13.006   0.639   0.646
92985SOL     OW80728  11.045   7.417   3.046
92985SOL    HW180729  10.953   7.441   3.037
92985SOL    HW280730  11.065   7.369   2.966
92986SOL     OW80731   1.699   1.054   0.127
92986SOL    HW180732   1.664   1.058   0.038
92986SOL    HW280733   1.688   0.963   0.154
92987SOL     OW80734   5.528   1.386   2.079
92987SOL    HW180735   5.556   1.412   2.167
92987SOL    HW280736   5.460   1.321   2.094
92988SOL     OW80737  10.328   2.753   4.508
92988SOL    HW180738  10.238   2.753   4.540
92988SOL    HW280739  10.356   2.662   4.514
92989SOL     OW80740  13.676   8.115   7.231
92989SOL    HW180741  13.764   8.082   7.244
92989SOL    HW280742  13.685   8.181   7.162
92990SOL     OW80743   8.253   7.522   2.098
92990SOL    HW180744   8.343   7.494   2.081
92990SOL    HW280745   8.203   7.491   2.022
92991SOL     OW80746   1.610  10.869   7.197
92991SOL    HW180747   1.702  10.861   7.173
92991SOL    HW280748   1.593  10.793   7.253
92992SOL     OW80749   6.730  12.055  10.004
92992SOL    HW180750   6.753  12.005   9.925
92992SOL    HW280751   6.702  11.989  10.067
92993SOL     OW80752  11.861  12.192   1.004
92993SOL    HW180753  11.813  12.176   0.923
92993SOL    HW280754  11.952  12.200   0.977
92994SOL     OW80755  14.847   1.424  13.874
92994SOL    HW180756  14.769   1.428  13.818
92994SOL    HW280757   0.014   1.344  13.847
92995SOL     OW80758   9.738  10.031  12.798
92995SOL    HW180759   9.776  10.113  12.765
92995SOL    HW280760   9.810   9.989  12.845
92996SOL     OW80761   6.589   3.565  13.240
92996SOL    HW180762   6.626   3.497  13.297
92996SOL    HW280763   6.604   3.646  13.288
92997SOL     OW80764   0.999   4.724  13.220
92997SOL    HW180765   1.020   4.631  13.219
92997SOL    HW280766   1.067   4.763  13.275
92998SOL     OW80767   6.054  11.763   8.362
92998SOL    HW180768   6.066  11.795   8.451
92998SOL    HW280769   6.032  11.841   8.311
92999SOL     OW80770   6.959   2.322  11.602
92999SOL    HW180771   6.867   2.306  11.583
92999SOL    HW280772   6.961   2.352  11.692
93000SOL     OW80773   4.864  13.007   2.727
93000SOL    HW180774   4.905  13.079   2.678
93000SOL    HW280775   4.926  12.935   2.720
93001SOL     OW80776  12.753  14.203   1.050
93001SOL    HW180777  12.739  14.243   1.136
93001SOL    HW280778  12.817  14.260   1.007
93002SOL     OW80779   3.475   3.278   4.326
93002SOL    HW180780   3.461   3.370   4.351
93002SOL    HW280781   3.467   3.229   4.407
93003SOL     OW80782   4.222  12.953  12.707
93003SOL    HW180783   4.195  13.009  12.779
93003SOL    HW280784   4.230  12.866  12.746
93004SOL     OW80785   6.721  14.500   2.838
93004SOL    HW180786   6.684  14.588   2.845
93004SOL    HW280787   6.689  14.455   2.916
93005SOL     OW80788   9.828  11.840   5.056
93005SOL    HW180789   9.844  11.928   5.020
93005SOL    HW280790   9.916  11.805   5.071
93006SOL     OW80791   1.422   8.081  12.688
93006SOL    HW180792   1.441   8.119  12.602
93006SOL    HW280793   1.348   8.132  12.721
93007SOL     OW80794  13.727  10.998  11.776
93007SOL    HW180795  13.707  10.920  11.724
93007SOL    HW280796  13.797  10.970  11.836
93008SOL     OW80797  13.264   1.475   8.782
93008SOL    HW180798  13.236   1.472   8.691
93008SOL    HW280799  13.278   1.384   8.806
93009SOL     OW80800  11.521  13.789  14.828
93009SOL    HW180801  11.503  13.695  14.830
93009SOL    HW280802  11.549  13.806  14.738
93010SOL     OW80803   0.320  12.761   2.224
93010SOL    HW180804   0.293  12.672   2.202
93010SOL    HW280805   0.374  12.751   2.302
93011SOL     OW80806  14.256   0.599   4.550
93011SOL    HW180807  14.254   0.694   4.537
93011SOL    HW280808  14.306   0.587   4.631
93012SOL     OW80809   1.330  13.985  13.158
93012SOL    HW180810   1.257  13.931  13.128
93012SOL    HW280811   1.315  13.994  13.252
93013SOL     OW80812   2.332   5.697   5.573
93013SOL    HW180813   2.396   5.626   5.578
93013SOL    HW280814   2.344   5.746   5.654
93014SOL     OW80815   4.127  12.698   4.631
93014SOL    HW180816   4.168  12.616   4.660
93014SOL    HW280817   4.046  12.671   4.589
93015SOL     OW80818   7.871   2.770   4.160
93015SOL    HW180819   7.828   2.839   4.211
93015SOL    HW280820   7.958   2.805   4.141
93016SOL     OW80821   6.159   6.990   7.025
93016SOL    HW180822   6.231   6.951   6.976
93016SOL    HW280823   6.089   6.924   7.022
93017SOL     OW80824  10.799   6.637   2.638
93017SOL    HW180825  10.830   6.592   2.717
93017SOL    HW280826  10.760   6.718   2.670
93018SOL     OW80827   9.969   9.386  10.357
93018SOL    HW180828   9.923   9.381  10.440
93018SOL    HW280829   9.899   9.396  10.291
93019SOL     OW80830  10.483   9.821   3.478
93019SOL    HW180831  10.558   9.876   3.459
93019SOL    HW280832  10.408   9.880   3.475
93020SOL     OW80833   5.458   2.051  10.535
93020SOL    HW180834   5.463   2.089  10.623
93020SOL    HW280835   5.548   2.054  10.502
93021SOL     OW80836  11.183  10.769  13.939
93021SOL    HW180837  11.136  10.686  13.932
93021SOL    HW280838  11.118  10.836  13.920
93022SOL     OW80839   2.301  13.351   0.571
93022SOL    HW180840   2.302  13.446   0.586
93022SOL    HW280841   2.258  13.340   0.486
93023SOL     OW80842   1.240  13.564  10.025
93023SOL    HW180843   1.155  13.604  10.044
93023SOL    HW280844   1.240  13.482  10.073
93024SOL     OW80845  13.096  12.042  10.491
93024SOL    HW180846  13.026  12.006  10.437
93024SOL    HW280847  13.131  12.115  10.441
93025SOL     OW80848   2.334   8.220  13.563
93025SOL    HW180849   2.413   8.165  13.567
93025SOL    HW280850   2.262   8.158  13.577
93026SOL     OW80851   8.966   2.657   2.343
93026SOL    HW180852   8.879   2.662   2.383
93026SOL    HW280853   8.980   2.563   2.328
93027SOL     OW80854   5.306   2.449   7.394
93027SOL    HW180855   5.354   2.496   7.462
93027SOL    HW280856   5.242   2.513   7.362
93028SOL     OW80857  12.887   0.825  14.320
93028SOL    HW180858  12.863   0.876  14.397
93028SOL    HW280859  12.983   0.820  14.323
93029SOL     OW80860   2.932  13.356   5.663
93029SOL    HW180861   3.014  13.400   5.687
93029SOL    HW280862   2.878  13.360   5.742
93030SOL     OW80863  14.835  11.970  12.229
93030SOL    HW180864  14.841  11.994  12.322
93030SOL    HW280865   0.026  11.904  12.218
93031SOL     OW80866   4.374   8.690   0.987
93031SOL    HW180867   4.288   8.702   1.027
93031SOL    HW280868   4.436   8.713   1.056
93032SOL     OW80869  13.015   4.627   6.115
93032SOL    HW180870  13.062   4.711   6.118
93032SOL    HW280871  13.010   4.605   6.022
93033SOL     OW80872  12.377   4.100  12.415
93033SOL    HW180873  12.315   4.098  12.489
93033SOL    HW280874  12.451   4.151  12.448
93034SOL     OW80875   1.875   6.393  14.258
93034SOL    HW180876   1.804   6.448  14.224
93034SOL    HW280877   1.941   6.394  14.188
93035SOL     OW80878  14.101   4.888   2.941
93035SOL    HW180879  14.192   4.894   2.913
93035SOL    HW280880  14.054   4.949   2.884
93036SOL     OW80881  13.970  13.392  12.885
93036SOL    HW180882  13.956  13.335  12.961
93036SOL    HW280883  13.898  13.370  12.826
93037SOL     OW80884   5.166   5.119  14.012
93037SOL    HW180885   5.088   5.175  14.007
93037SOL    HW280886   5.172   5.078  13.926
93038SOL     OW80887   4.066  12.352   4.737
93038SOL    HW180888   4.151  12.391   4.719
93038SOL    HW280889   4.004  12.425   4.725
93039SOL     OW80890   2.265  12.337   7.182
93039SOL    HW180891   2.278  12.338   7.276
93039SOL    HW280892   2.342  12.290   7.148
93040SOL     OW80893   2.739   7.685   1.014
93040SOL    HW180894   2.812   7.678   1.076
93040SOL    HW280895   2.766   7.753   0.953
93041SOL     OW80896  14.259   9.349  11.715
93041SOL    HW180897  14.353   9.337  11.729
93041SOL    HW280898  14.219   9.311  11.794
93042SOL     OW80899  12.690  11.529  13.179
93042SOL    HW180900  12.633  11.459  13.149
93042SOL    HW280901  12.647  11.610  13.151
93043SOL     OW80902   4.234  10.491   7.883
93043SOL    HW180903   4.245  10.416   7.943
93043SOL    HW280904   4.309  10.485   7.824
93044SOL     OW80905   7.090   9.202  13.560
93044SOL    HW180906   7.114   9.115  13.528
93044SOL    HW280907   7.018   9.186  13.622
93045SOL     OW80908   6.021  11.660   5.693
93045SOL    HW180909   6.071  11.736   5.723
93045SOL    HW280910   6.064  11.585   5.735
93046SOL     OW80911  12.262   6.580   8.864
93046SOL    HW180912  12.323   6.518   8.903
93046SOL    HW280913  12.222   6.532   8.791
93047SOL     OW80914   2.742  10.017   3.543
93047SOL    HW180915   2.803   9.943   3.541
93047SOL    HW280916   2.676   9.991   3.607
93048SOL     OW80917  13.716   5.758  13.300
93048SOL    HW180918  13.765   5.836  13.276
93048SOL    HW280919  13.744   5.691  13.238
93049SOL     OW80920  11.845   0.081  14.874
93049SOL    HW180921  11.820   0.006   0.051
93049SOL    HW280922  11.866   0.043  14.789
93050SOL     OW80923   0.732   6.890  13.646
93050SOL    HW180924   0.664   6.823  13.655
93050SOL    HW280925   0.789   6.856  13.576
93051SOL     OW80926   6.345   6.187   0.263
93051SOL    HW180927   6.422   6.238   0.239
93051SOL    HW280928   6.375   6.129   0.333
93052SOL     OW80929   8.983  13.662   9.342
93052SOL    HW180930   9.010  13.753   9.327
93052SOL    HW280931   9.060  13.620   9.380
93053SOL     OW80932  10.675   8.090  14.413
93053SOL    HW180933  10.660   8.096  14.507
93053SOL    HW280934  10.590   8.112  14.374
93054SOL     OW80935  11.217   3.096   7.088
93054SOL    HW180936  11.307   3.127   7.080
93054SOL    HW280937  11.163   3.172   7.064
93055SOL     OW80938   2.028   6.101   2.811
93055SOL    HW180939   2.084   6.118   2.886
93055SOL    HW280940   2.072   6.032   2.763
93056SOL     OW80941  10.193   3.606  10.197
93056SOL    HW180942  10.246   3.583  10.121
93056SOL    HW280943  10.143   3.526  10.217
93057SOL     OW80944   9.999  12.075  14.288
93057SOL    HW180945  10.016  11.993  14.335
93057SOL    HW280946   9.980  12.139  14.357
93058SOL     OW80947   6.989  13.181  13.026
93058SOL    HW180948   6.931  13.172  13.101
93058SOL    HW280949   6.966  13.266  12.987
93059SOL     OW80950  13.795  11.498   9.046
93059SOL    HW180951  13.779  11.443   8.970
93059SOL    HW280952  13.760  11.448   9.120
93060SOL     OW80953   3.267   6.839   2.431
93060SOL    HW180954   3.213   6.767   2.396
93060SOL    HW280955   3.349   6.797   2.456
93061SOL     OW80956   1.618  12.937   3.324
93061SOL    HW180957   1.712  12.923   3.334
93061SOL    HW280958   1.578  12.859   3.361
93062SOL     OW80959   0.061   0.466   3.908
93062SOL    HW180960   0.062   0.376   3.941
93062SOL    HW280961   0.092   0.459   3.818
93063SOL     OW80962   5.684   6.440   5.080
93063SOL    HW180963   5.608   6.385   5.097
93063SOL    HW280964   5.648   6.520   5.041
93064SOL     OW80965  11.889   7.703  13.669
93064SOL    HW180966  11.796   7.725  13.672
93064SOL    HW280967  11.898   7.650  13.590
93065SOL     OW80968  12.004   6.977  11.631
93065SOL    HW180969  12.034   6.896  11.590
93065SOL    HW280970  11.927   6.951  11.682
93066SOL     OW80971   9.343   7.577   0.943
93066SOL    HW180972   9.299   7.621   1.016
93066SOL    HW280973   9.428   7.551   0.979
93067SOL     OW80974   1.410  10.664   0.029
93067SOL    HW180975   1.379  10.577   0.005
93067SOL    HW280976   1.492  10.647   0.077
93068SOL     OW80977  13.337   5.077   6.475
93068SOL    HW180978  13.262   5.081   6.415
93068SOL    HW280979  13.331   4.990   6.514
93069SOL     OW80980  13.419  12.064  12.006
93069SOL    HW180981  13.466  11.987  12.036
93069SOL    HW280982  13.326  12.041  12.013
93070SOL     OW80983   9.734   6.018   2.948
93070SOL    HW180984   9.743   6.047   3.039
93070SOL    HW280985   9.717   5.924   2.955
93071SOL     OW80986   5.865   6.406  10.033
93071SOL    HW180987   5.820   6.490  10.042
93071SOL    HW280988   5.815   6.359   9.966
93072SOL     OW80989   2.985   8.898   5.325
93072SOL    HW180990   3.010   8.892   5.418
93072SOL    HW280991   2.940   8.982   5.318
93073SOL     OW80992  13.471   2.369   1.107
93073SOL    HW180993  13.484   2.319   1.026
93073SOL    HW280994  13.379   2.397   1.103
93074SOL     OW80995   3.888   1.011   8.559
93074SOL    HW180996   3.838   0.956   8.620
93074SOL    HW280997   3.875   1.101   8.591
93075SOL     OW80998   7.568  12.958  11.400
93075SOL    HW180999   7.625  12.929  11.471
93075SOL    HW281000   7.502  12.889  11.392
93076SOL     OW81001  12.816   0.533  10.755
93076SOL    HW181002  12.869   0.478  10.812
93076SOL    HW281003  12.848   0.621  10.770
93077SOL     OW81004   6.894   9.246   2.440
93077SOL    HW181005   6.930   9.329   2.412
93077SOL    HW281006   6.799   9.257   2.436
93078SOL     OW81007   3.782   8.260   4.408
93078SOL    HW181008   3.747   8.333   4.459
93078SOL    HW281009   3.871   8.248   4.441
93079SOL     OW81010   2.296   3.927   9.445
93079SOL    HW181011   2.239   4.002   9.425
93079SOL    HW281012   2.383   3.965   9.456
93080SOL     OW81013   0.354   6.363   3.783
93080SOL    HW181014   0.358   6.269   3.769
93080SOL    HW281015   0.294   6.375   3.857
93081SOL     OW81016   5.079  13.408   6.220
93081SOL    HW181017   5.089  13.441   6.131
93081SOL    HW281018   5.037  13.479   6.268
93082SOL     OW81019   3.383   7.974   1.896
93082SOL    HW181020   3.308   7.987   1.839
93082SOL    HW281021   3.450   8.033   1.860
93083SOL     OW81022   6.908  13.587   5.736
93083SOL    HW181023   6.965  13.574   5.812
93083SOL    HW281024   6.829  13.626   5.772
93084SOL     OW81025   0.839   5.609  12.817
93084SOL    HW181026   0.835   5.588  12.723
93084SOL    HW281027   0.896   5.542  12.853
93085SOL     OW81028   8.090  11.899  10.762
93085SOL    HW181029   8.102  11.983  10.805
93085SOL    HW281030   8.046  11.920  10.679
93086SOL     OW81031   4.028   9.364   8.705
93086SOL    HW181032   4.031   9.348   8.611
93086SOL    HW281033   4.028   9.277   8.745
93087SOL     OW81034   0.671   0.517  14.809
93087SOL    HW181035   0.640   0.428  14.826
93087SOL    HW281036   0.764   0.505  14.788
93088SOL     OW81037  11.651   0.841   2.211
93088SOL    HW181038  11.746   0.854   2.212
93088SOL    HW281039  11.639   0.754   2.251
93089SOL     OW81040  11.367   4.116   5.621
93089SOL    HW181041  11.365   4.117   5.716
93089SOL    HW281042  11.372   4.023   5.598
93090SOL     OW81043  14.877  12.924   9.029
93090SOL    HW181044   0.016  12.956   9.118
93090SOL    HW281045   0.019  13.000   8.973
93091SOL     OW81046  12.805   4.140   8.502
93091SOL    HW181047  12.732   4.133   8.441
93091SOL    HW281048  12.835   4.049   8.514
93092SOL     OW81049  13.755   5.919   0.954
93092SOL    HW181050  13.755   5.971   1.035
93092SOL    HW281051  13.662   5.906   0.935
93093SOL     OW81052  12.550  14.308  14.788
93093SOL    HW181053  12.636  14.272  14.767
93093SOL    HW281054  12.533  14.371  14.718
93094SOL     OW81055   0.407   7.812  12.477
93094SOL    HW181056   0.394   7.906  12.488
93094SOL    HW281057   0.353   7.789  12.402
93095SOL     OW81058   2.826   3.140   2.511
93095SOL    HW181059   2.850   3.133   2.419
93095SOL    HW281060   2.897   3.097   2.558
93096SOL     OW81061  14.354  11.328   4.110
93096SOL    HW181062  14.286  11.345   4.045
93096SOL    HW281063  14.309  11.331   4.194
93097SOL     OW81064  14.592  13.069   4.661
93097SOL    HW181065  14.588  13.146   4.604
93097SOL    HW281066  14.685  13.062   4.685
93098SOL     OW81067   4.177  12.565   9.683
93098SOL    HW181068   4.237  12.564   9.608
93098SOL    HW281069   4.113  12.632   9.662
93099SOL     OW81070   0.629   7.074  10.959
93099SOL    HW181071   0.665   7.144  10.905
93099SOL    HW281072   0.639   6.995  10.906
93100SOL     OW81073  13.673   0.191   9.769
93100SOL    HW181074  13.704   0.224   9.853
93100SOL    HW281075  13.602   0.131   9.791
93101SOL     OW81076   0.800   9.463  13.091
93101SOL    HW181077   0.788   9.426  13.004
93101SOL    HW281078   0.833   9.390  13.144
93102SOL     OW81079   2.069   8.035  13.671
93102SOL    HW181080   2.124   8.029  13.749
93102SOL    HW281081   2.064   7.946  13.637
93103SOL     OW81082   4.326   2.761   0.466
93103SOL    HW181083   4.239   2.723   0.479
93103SOL    HW281084   4.365   2.763   0.553
93104SOL     OW81085  12.801   4.864   5.985
93104SOL    HW181086  12.755   4.789   5.949
93104SOL    HW281087  12.783   4.860   6.079
93105SOL     OW81088   0.818  12.456   9.098
93105SOL    HW181089   0.846  12.401   9.025
93105SOL    HW281090   0.841  12.545   9.071
93106SOL     OW81091   3.976  14.529  10.396
93106SOL    HW181092   3.905  14.493  10.449
93106SOL    HW281093   4.030  14.578  10.458
93107SOL     OW81094   0.924  10.198   9.463
93107SOL    HW181095   0.934  10.163   9.375
93107SOL    HW281096   0.937  10.122   9.520
93108SOL     OW81097   0.171   6.861   2.342
93108SOL    HW181098   0.162   6.956   2.347
93108SOL    HW281099   0.241   6.847   2.278
93109SOL     OW81100   4.970   1.171   7.693
93109SOL    HW181101   4.987   1.262   7.714
93109SOL    HW281102   4.969   1.126   7.778
93110SOL     OW81103   1.736   0.912   9.206
93110SOL    HW181104   1.714   0.833   9.255
93110SOL    HW281105   1.702   0.984   9.260
93111SOL     OW81106   2.204   9.547   5.608
93111SOL    HW181107   2.263   9.591   5.668
93111SOL    HW281108   2.228   9.581   5.521
93112SOL     OW81109  14.474   8.269   4.778
93112SOL    HW181110  14.504   8.191   4.729
93112SOL    HW281111  14.543   8.285   4.842
93113SOL     OW81112  10.563  10.242   8.086
93113SOL    HW181113  10.658  10.253   8.089
93113SOL    HW281114  10.535  10.298   8.013
93114SOL     OW81115   7.205  12.070   2.832
93114SOL    HW181116   7.218  12.142   2.893
93114SOL    HW281117   7.283  12.070   2.777
93115SOL     OW81118  12.827  13.706   8.004
93115SOL    HW181119  12.734  13.727   8.008
93115SOL    HW281120  12.863  13.739   8.086
93116SOL     OW81121   7.721   4.442   7.139
93116SOL    HW181122   7.660   4.373   7.114
93116SOL    HW281123   7.796   4.395   7.177
93117SOL     OW81124   1.811   5.713   5.121
93117SOL    HW181125   1.839   5.685   5.034
93117SOL    HW281126   1.892   5.741   5.164
93118SOL     OW81127   6.565   0.231  14.819
93118SOL    HW181128   6.641   0.190  14.776
93118SOL    HW281129   6.515   0.157  14.854
93119SOL     OW81130   0.017  11.376   1.928
93119SOL    HW181131   0.103  11.335   1.917
93119SOL    HW281132  14.833  11.311   1.894
93120SOL     OW81133   7.161   3.690  13.895
93120SOL    HW181134   7.092   3.647  13.945
93120SOL    HW281135   7.174   3.774  13.938
93121SOL     OW81136   9.174  10.612  11.217
93121SOL    HW181137   9.265  10.584  11.214
93121SOL    HW281138   9.174  10.699  11.176
93122SOL     OW81139  10.863  12.855  13.695
93122SOL    HW181140  10.899  12.807  13.770
93122SOL    HW281141  10.933  12.916  13.670
93123SOL     OW81142   7.538  13.120  13.260
93123SOL    HW181143   7.554  13.057  13.189
93123SOL    HW281144   7.494  13.193  13.217
93124SOL     OW81145   2.673  13.098  11.823
93124SOL    HW181146   2.666  13.024  11.885
93124SOL    HW281147   2.627  13.067  11.745
93125SOL     OW81148   7.245   0.285  11.400
93125SOL    HW181149   7.339   0.265  11.403
93125SOL    HW281150   7.221   0.301  11.492
93126SOL     OW81151   2.176  14.006  14.546
93126SOL    HW181152   2.143  14.094  14.565
93126SOL    HW281153   2.099  13.958  14.515
93127SOL     OW81154   0.782   4.214  10.737
93127SOL    HW181155   0.877   4.228  10.738
93127SOL    HW281156   0.767   4.157  10.662
93128SOL     OW81157  11.597   9.384   7.101
93128SOL    HW181158  11.662   9.314   7.094
93128SOL    HW281159  11.514   9.339   7.111
93129SOL     OW81160   2.701   8.697   6.253
93129SOL    HW181161   2.684   8.737   6.167
93129SOL    HW281162   2.748   8.765   6.301
93130SOL     OW81163   0.285  10.985  13.043
93130SOL    HW181164   0.257  11.075  13.030
93130SOL    HW281165   0.270  10.968  13.136
93131SOL     OW81166   7.467  13.103  10.713
93131SOL    HW181167   7.490  13.040  10.645
93131SOL    HW281168   7.548  13.117  10.761
93132SOL     OW81169   7.200   1.358   5.650
93132SOL    HW181170   7.239   1.334   5.734
93132SOL    HW281171   7.275   1.386   5.597
93133SOL     OW81172   0.058   9.240   6.729
93133SOL    HW181173  14.867   9.175   6.741
93133SOL    HW281174   0.102   9.243   6.814
93134SOL     OW81175   0.519  12.247  11.937
93134SOL    HW181176   0.596  12.196  11.912
93134SOL    HW281177   0.445  12.202  11.896
93135SOL     OW81178   9.789  10.074   9.917
93135SOL    HW181179   9.805  10.135   9.844
93135SOL    HW281180   9.864  10.015   9.915
93136SOL     OW81181  13.455  14.079   5.346
93136SOL    HW181182  13.416  14.106   5.429
93136SOL    HW281183  13.411  14.133   5.280
93137SOL     OW81184   6.012   3.180   5.868
93137SOL    HW181185   5.939   3.197   5.809
93137SOL    HW281186   5.984   3.216   5.952
93138SOL     OW81187  10.383   8.031   9.997
93138SOL    HW181188  10.336   8.095  10.050
93138SOL    HW281189  10.320   8.002   9.932
93139SOL     OW81190   7.772   2.876   9.588
93139SOL    HW181191   7.790   2.885   9.494
93139SOL    HW281192   7.796   2.961   9.626
93140SOL     OW81193   5.805  13.305   7.080
93140SOL    HW181194   5.837  13.243   7.014
93140SOL    HW281195   5.732  13.260   7.122
93141SOL     OW81196  12.833   8.267   5.176
93141SOL    HW181197  12.803   8.357   5.192
93141SOL    HW281198  12.846   8.230   5.263
93142SOL     OW81199   3.892   9.084   5.131
93142SOL    HW181200   3.955   9.045   5.191
93142SOL    HW281201   3.810   9.086   5.182
93143SOL     OW81202   3.972   7.825  13.063
93143SOL    HW181203   3.906   7.871  13.114
93143SOL    HW281204   4.055   7.860  13.095
93144SOL     OW81205   2.649   8.941  12.368
93144SOL    HW181206   2.680   8.885  12.439
93144SOL    HW281207   2.630   8.881  12.296
93145SOL     OW81208   9.156   6.632   1.209
93145SOL    HW181209   9.232   6.656   1.263
93145SOL    HW281210   9.122   6.553   1.250
93146SOL     OW81211  10.906  13.601  13.272
93146SOL    HW181212  10.846  13.629  13.342
93146SOL    HW281213  10.857  13.618  13.191
93147SOL     OW81214   9.009   9.185   4.300
93147SOL    HW181215   8.960   9.134   4.365
93147SOL    HW281216   8.961   9.267   4.294
93148SOL     OW81217   5.137  10.762  12.964
93148SOL    HW181218   5.221  10.720  12.981
93148SOL    HW281219   5.090  10.755  13.046
93149SOL     OW81220   9.780   7.243  11.485
93149SOL    HW181221   9.831   7.174  11.529
93149SOL    HW281222   9.796   7.230  11.392
93150SOL     OW81223   4.149   4.517   3.015
93150SOL    HW181224   4.203   4.509   2.936
93150SOL    HW281225   4.120   4.608   3.014
93151SOL     OW81226   2.870   0.450   6.811
93151SOL    HW181227   2.810   0.515   6.846
93151SOL    HW281228   2.905   0.490   6.731
93152SOL     OW81229   8.380   2.641   9.673
93152SOL    HW181230   8.461   2.606   9.711
93152SOL    HW281231   8.323   2.565   9.664
93153SOL     OW81232  11.304   7.922   7.472
93153SOL    HW181233  11.332   8.012   7.455
93153SOL    HW281234  11.327   7.907   7.563
93154SOL     OW81235   1.320  14.067   5.082
93154SOL    HW181236   1.290  14.079   4.992
93154SOL    HW281237   1.385  13.997   5.076
93155SOL     OW81238  10.935   2.731  11.843
93155SOL    HW181239  10.842   2.749  11.830
93155SOL    HW281240  10.957   2.666  11.777
93156SOL     OW81241   9.580   4.849   6.574
93156SOL    HW181242   9.581   4.798   6.493
93156SOL    HW281243   9.622   4.932   6.552
93157SOL     OW81244  10.924  11.188   9.481
93157SOL    HW181245  10.988  11.151   9.542
93157SOL    HW281246  10.954  11.277   9.465
93158SOL     OW81247   9.274   1.022  13.518
93158SOL    HW181248   9.328   1.079  13.464
93158SOL    HW281249   9.194   1.008  13.467
93159SOL     OW81250   4.371   8.425   8.597
93159SOL    HW181251   4.360   8.356   8.532
93159SOL    HW281252   4.455   8.406   8.638
93160SOL     OW81253   1.476  11.596   2.844
93160SOL    HW181254   1.565  11.578   2.875
93160SOL    HW281255   1.474  11.691   2.830
93161SOL     OW81256   5.903   2.932  11.559
93161SOL    HW181257   5.954   2.854  11.580
93161SOL    HW281258   5.868   2.962  11.643
93162SOL     OW81259   6.536   8.501  14.155
93162SOL    HW181260   6.501   8.423  14.112
93162SOL    HW281261   6.551   8.563  14.084
93163SOL     OW81262   5.860  14.283   3.469
93163SOL    HW181263   5.906  14.299   3.386
93163SOL    HW281264   5.770  14.310   3.451
93164SOL     OW81265  13.849   0.831  10.507
93164SOL    HW181266  13.802   0.752  10.480
93164SOL    HW281267  13.780   0.892  10.535
93165SOL     OW81268   4.042  10.687   4.734
93165SOL    HW181269   3.991  10.768   4.725
93165SOL    HW281270   4.006  10.629   4.668
93166SOL     OW81271  11.322   4.894  11.737
93166SOL    HW181272  11.308   4.982  11.772
93166SOL    HW281273  11.237   4.852  11.745
93167SOL     OW81274   1.421  12.293   4.914
93167SOL    HW181275   1.474  12.230   4.962
93167SOL    HW281276   1.371  12.339   4.982
93168SOL     OW81277  11.222  13.627   3.821
93168SOL    HW181278  11.308  13.652   3.855
93168SOL    HW281279  11.239  13.549   3.768
93169SOL     OW81280   8.846   6.868  14.694
93169SOL    HW181281   8.768   6.844  14.745
93169SOL    HW281282   8.827   6.838  14.606
93170SOL     OW81283   3.081   3.543  13.441
93170SOL    HW181284   3.018   3.613  13.423
93170SOL    HW281285   3.038   3.463  13.411
93171SOL     OW81286   0.644   5.054  13.111
93171SOL    HW181287   0.735   5.024  13.105
93171SOL    HW281288   0.603   4.992  13.171
93172SOL     OW81289   0.009   3.479   2.031
93172SOL    HW181290   0.098   3.462   2.062
93172SOL    HW281291  14.837   3.401   2.057
93173SOL     OW81292   1.111  10.647   2.260
93173SOL    HW181293   1.113  10.658   2.355
93173SOL    HW281294   1.029  10.601   2.242
93174SOL     OW81295   4.817  14.007   4.589
93174SOL    HW181296   4.835  14.066   4.516
93174SOL    HW281297   4.841  14.058   4.667
93175SOL     OW81298  13.209   4.293  10.943
93175SOL    HW181299  13.166   4.329  11.021
93175SOL    HW281300  13.211   4.365  10.881
93176SOL     OW81301  11.125   9.639   5.092
93176SOL    HW181302  11.214   9.670   5.107
93176SOL    HW281303  11.121   9.555   5.139
93177SOL     OW81304   2.556   5.188   7.624
93177SOL    HW181305   2.639   5.227   7.598
93177SOL    HW281306   2.554   5.104   7.578
93178SOL     OW81307   0.831   0.655  11.035
93178SOL    HW181308   0.897   0.685  11.098
93178SOL    HW281309   0.822   0.728  10.973
93179SOL     OW81310  12.178  13.830   4.491
93179SOL    HW181311  12.266  13.867   4.483
93179SOL    HW281312  12.192  13.741   4.522
93180SOL     OW81313  11.733   2.641  13.280
93180SOL    HW181314  11.658   2.612  13.333
93180SOL    HW281315  11.737   2.735  13.295
93181SOL     OW81316   8.925   7.902  11.236
93181SOL    HW181317   8.953   7.811  11.227
93181SOL    HW281318   8.928   7.938  11.147
93182SOL     OW81319  13.771   2.156  14.488
93182SOL    HW181320  13.811   2.218  14.548
93182SOL    HW281321  13.757   2.077  14.541
93183SOL     OW81322   8.764   4.142   4.915
93183SOL    HW181323   8.734   4.164   4.827
93183SOL    HW281324   8.726   4.209   4.971
93184SOL     OW81325  10.534   9.136   2.139
93184SOL    HW181326  10.548   9.164   2.049
93184SOL    HW281327  10.620   9.106   2.169
93185SOL     OW81328   2.135   2.254  14.326
93185SOL    HW181329   2.073   2.307  14.276
93185SOL    HW281330   2.134   2.168  14.282
93186SOL     OW81331  10.046   3.874   0.490
93186SOL    HW181332  10.060   3.781   0.475
93186SOL    HW281333  10.121   3.917   0.447
93187SOL     OW81334   7.598   0.961   2.269
93187SOL    HW181335   7.630   0.941   2.357
93187SOL    HW281336   7.676   0.991   2.222
93188SOL     OW81337  12.622   5.298  10.878
93188SOL    HW181338  12.574   5.225  10.839
93188SOL    HW281339  12.555   5.349  10.924
93189SOL     OW81340  13.320  12.729  14.261
93189SOL    HW181341  13.277  12.650  14.231
93189SOL    HW281342  13.252  12.796  14.259
93190SOL     OW81343   6.901  14.576   0.444
93190SOL    HW181344   6.961  14.626   0.501
93190SOL    HW281345   6.894  14.491   0.486
93191SOL     OW81346   0.570   3.643   1.518
93191SOL    HW181347   0.616   3.560   1.524
93191SOL    HW281348   0.527   3.641   1.433
93192SOL     OW81349  11.546   5.385  13.831
93192SOL    HW181350  11.571   5.401  13.922
93192SOL    HW281351  11.497   5.303  13.833
93193SOL     OW81352   1.074   0.729   2.254
93193SOL    HW181353   0.990   0.707   2.214
93193SOL    HW281354   1.138   0.679   2.205
93194SOL     OW81355   4.014  14.756  14.736
93194SOL    HW181356   3.959  14.720  14.667
93194SOL    HW281357   4.099  14.714  14.723
93195SOL     OW81358  12.668   6.913   0.739
93195SOL    HW181359  12.650   6.992   0.688
93195SOL    HW281360  12.743   6.936   0.794
93196SOL     OW81361  10.392   5.492   9.884
93196SOL    HW181362  10.444   5.560   9.926
93196SOL    HW281363  10.335   5.459   9.954
93197SOL     OW81364  11.397   8.043   8.127
93197SOL    HW181365  11.359   8.057   8.040
93197SOL    HW281366  11.452   7.965   8.117
93198SOL     OW81367   6.398   7.246  11.017
93198SOL    HW181368   6.373   7.170  11.071
93198SOL    HW281369   6.449   7.301  11.076
93199SOL     OW81370   2.435   7.637  10.110
93199SOL    HW181371   2.425   7.590  10.028
93199SOL    HW281372   2.356   7.616  10.160
93200SOL     OW81373   6.252   6.269   7.872
93200SOL    HW181374   6.338   6.266   7.830
93200SOL    HW281375   6.258   6.208   7.945
93201SOL     OW81376  12.148   0.494   7.759
93201SOL    HW181377  12.055   0.516   7.764
93201SOL    HW281378  12.193   0.579   7.759
93202SOL     OW81379   1.437   4.257   7.139
93202SOL    HW181380   1.456   4.341   7.182
93202SOL    HW281381   1.348   4.236   7.168
93203SOL     OW81382   6.350  10.479   0.827
93203SOL    HW181383   6.270  10.427   0.818
93203SOL    HW281384   6.358  10.526   0.743
93204SOL     OW81385   7.344   5.024   4.470
93204SOL    HW181386   7.298   5.001   4.551
93204SOL    HW281387   7.335   5.119   4.463
93205SOL     OW81388  14.335   3.165   9.739
93205SOL    HW181389  14.400   3.098   9.718
93205SOL    HW281390  14.333   3.167   9.835
93206SOL     OW81391   3.994   6.239   7.191
93206SOL    HW181392   3.916   6.278   7.150
93206SOL    HW281393   3.982   6.255   7.284
93207SOL     OW81394   0.915   6.775  11.438
93207SOL    HW181395   0.956   6.781  11.524
93207SOL    HW281396   0.885   6.864  11.419
93208SOL     OW81397   3.703   6.436   2.577
93208SOL    HW181398   3.727   6.497   2.507
93208SOL    HW281399   3.623   6.473   2.614
93209SOL     OW81400  13.999   8.763   5.727
93209SOL    HW181401  14.007   8.726   5.639
93209SOL    HW281402  13.922   8.720   5.764
93210SOL     OW81403   2.397   9.139   1.232
93210SOL    HW181404   2.458   9.144   1.306
93210SOL    HW281405   2.346   9.220   1.238
93211SOL     OW81406  12.385   3.416   3.219
93211SOL    HW181407  12.456   3.375   3.268
93211SOL    HW281408  12.314   3.351   3.221
93212SOL     OW81409   3.161   1.757  12.611
93212SOL    HW181410   3.099   1.825  12.637
93212SOL    HW281411   3.106   1.680  12.593
93213SOL     OW81412   4.542   9.012   6.033
93213SOL    HW181413   4.555   8.933   6.086
93213SOL    HW281414   4.613   9.009   5.968
93214SOL     OW81415   6.912   4.202   4.357
93214SOL    HW181416   6.886   4.134   4.294
93214SOL    HW281417   6.840   4.266   4.353
93215SOL     OW81418  10.916   9.506  14.223
93215SOL    HW181419  10.953   9.530  14.308
93215SOL    HW281420  10.823   9.524  14.231
93216SOL     OW81421   9.732  12.400   8.751
93216SOL    HW181422   9.737  12.434   8.662
93216SOL    HW281423   9.685  12.468   8.800
93217SOL     OW81424   5.498   5.147   5.569
93217SOL    HW181425   5.557   5.216   5.602
93217SOL    HW281426   5.534   5.066   5.604
93218SOL     OW81427   6.104   9.551   4.791
93218SOL    HW181428   6.085   9.479   4.851
93218SOL    HW281429   6.036   9.617   4.811
93219SOL     OW81430   8.441  11.121   2.435
93219SOL    HW181431   8.516  11.074   2.472
93219SOL    HW281432   8.469  11.213   2.435
93220SOL     OW81433  12.276  10.915  10.147
93220SOL    HW181434  12.199  10.867  10.116
93220SOL    HW281435  12.258  11.006  10.124
93221SOL     OW81436   6.413  14.516   8.165
93221SOL    HW181437   6.409  14.430   8.125
93221SOL    HW281438   6.355  14.570   8.111
93222SOL     OW81439  11.330   3.800   1.063
93222SOL    HW181440  11.379   3.792   1.145
93222SOL    HW281441  11.325   3.894   1.047
93223SOL     OW81442   1.224   7.466   8.726
93223SOL    HW181443   1.187   7.461   8.814
93223SOL    HW281444   1.187   7.547   8.689
93224SOL     OW81445  10.021   7.318   4.419
93224SOL    HW181446   9.953   7.282   4.362
93224SOL    HW281447   9.989   7.299   4.508
93225SOL     OW81448  10.978   4.717  13.225
93225SOL    HW181449  11.073   4.713  13.232
93225SOL    HW281450  10.951   4.626  13.211
93226SOL     OW81451   6.343   7.797  14.139
93226SOL    HW181452   6.423   7.748  14.118
93226SOL    HW281453   6.273   7.745  14.101
93227SOL     OW81454  11.445  13.167   9.932
93227SOL    HW181455  11.475  13.121  10.010
93227SOL    HW281456  11.356  13.134   9.917
93228SOL     OW81457  10.000   6.501   7.321
93228SOL    HW181458   9.906   6.501   7.306
93228SOL    HW281459  10.009   6.513   7.416
93229SOL     OW81460   2.651   2.444  12.491
93229SOL    HW181461   2.585   2.398  12.440
93229SOL    HW281462   2.700   2.495  12.426
93230SOL     OW81463   3.312  13.011  13.509
93230SOL    HW181464   3.406  13.004  13.495
93230SOL    HW281465   3.275  12.938  13.458
93231SOL     OW81466   0.336  12.289   2.892
93231SOL    HW181467   0.299  12.375   2.871
93231SOL    HW281468   0.431  12.301   2.881
93232SOL     OW81469  12.663   5.424  12.097
93232SOL    HW181470  12.637   5.463  12.181
93232SOL    HW281471  12.611   5.470  12.032
93233SOL     OW81472   8.141   1.069   6.551
93233SOL    HW181473   8.234   1.084   6.565
93233SOL    HW281474   8.098   1.144   6.591
93234SOL     OW81475   3.697   0.713   7.449
93234SOL    HW181476   3.697   0.780   7.380
93234SOL    HW281477   3.743   0.754   7.522
93235SOL     OW81478   8.503   7.403   5.050
93235SOL    HW181479   8.460   7.377   5.131
93235SOL    HW281480   8.442   7.464   5.009
93236SOL     OW81481   4.432   1.023  14.335
93236SOL    HW181482   4.524   1.050  14.330
93236SOL    HW281483   4.397   1.042  14.248
93237SOL     OW81484   8.896   5.382   9.586
93237SOL    HW181485   8.856   5.468   9.599
93237SOL    HW281486   8.823   5.324   9.563
93238SOL     OW81487  10.691   7.533   8.103
93238SOL    HW181488  10.748   7.456   8.097
93238SOL    HW281489  10.745   7.600   8.145
93239SOL     OW81490   5.735   6.654  10.107
93239SOL    HW181491   5.742   6.714  10.181
93239SOL    HW281492   5.641   6.651  10.088
93240SOL     OW81493   9.936   6.522   2.045
93240SOL    HW181494   9.994   6.598   2.052
93240SOL    HW281495   9.927   6.507   1.951
93241SOL     OW81496  13.174   4.178   8.187
93241SOL    HW181497  13.096   4.125   8.207
93241SOL    HW281498  13.210   4.139   8.108
93242SOL     OW81499   7.364   4.930  12.598
93242SOL    HW181500   7.367   4.960  12.689
93242SOL    HW281501   7.413   4.997  12.549
93243SOL     OW81502  12.854   2.757   6.527
93243SOL    HW181503  12.772   2.727   6.567
93243SOL    HW281504  12.827   2.803   6.447
93244SOL     OW81505   8.957   5.553   7.343
93244SOL    HW181506   8.864   5.535   7.331
93244SOL    HW281507   8.988   5.581   7.257
93245SOL     OW81508   3.527   9.489  12.057
93245SOL    HW181509   3.432   9.478  12.061
93245SOL    HW281510   3.546   9.558  12.121
93246SOL     OW81511   4.862  10.469  14.716
93246SOL    HW181512   4.789  10.411  14.738
93246SOL    HW281513   4.928  10.452  14.784
93247SOL     OW81514   7.167   6.935   8.605
93247SOL    HW181515   7.076   6.910   8.591
93247SOL    HW281516   7.218   6.864   8.565
93248SOL     OW81517   2.898   2.672   0.467
93248SOL    HW181518   2.933   2.665   0.379
93248SOL    HW281519   2.973   2.658   0.525
93249SOL     OW81520  14.239   3.279  11.703
93249SOL    HW181521  14.207   3.330  11.629
93249SOL    HW281522  14.251   3.191  11.668
93250SOL     OW81523   8.617   4.155   4.678
93250SOL    HW181524   8.539   4.113   4.715
93250SOL    HW281525   8.629   4.113   4.593
93251SOL     OW81526   3.348  12.561   0.489
93251SOL    HW181527   3.312  12.647   0.465
93251SOL    HW281528   3.376  12.523   0.406
93252SOL     OW81529   7.449  11.918   2.506
93252SOL    HW181530   7.449  11.841   2.563
93252SOL    HW281531   7.357  11.945   2.503
93253SOL     OW81532   6.944   1.069   0.289
93253SOL    HW181533   7.002   0.995   0.272
93253SOL    HW281534   6.895   1.081   0.208
93254SOL     OW81535  12.339   4.093   4.948
93254SOL    HW181536  12.383   4.027   5.002
93254SOL    HW281537  12.334   4.170   5.005
93255SOL     OW81538   7.610   6.976   0.966
93255SOL    HW181539   7.652   7.054   0.929
93255SOL    HW281540   7.532   6.963   0.912
93256SOL     OW81541  11.117   7.066  10.554
93256SOL    HW181542  11.043   7.124  10.536
93256SOL    HW281543  11.078   6.988  10.592
93257SOL     OW81544   9.538  12.598   5.229
93257SOL    HW181545   9.602  12.666   5.207
93257SOL    HW281546   9.580  12.548   5.299
93258SOL     OW81547   9.100   1.819   5.248
93258SOL    HW181548   9.069   1.734   5.218
93258SOL    HW281549   9.158   1.850   5.179
93259SOL     OW81550   5.709   8.567   6.335
93259SOL    HW181551   5.731   8.491   6.389
93259SOL    HW281552   5.704   8.640   6.397
93260SOL     OW81553  11.698   7.495   0.050
93260SOL    HW181554  11.629   7.556   0.075
93260SOL    HW281555  11.651   7.419   0.016
93261SOL     OW81556   4.220   2.231   0.141
93261SOL    HW181557   4.221   2.154   0.197
93261SOL    HW281558   4.268   2.204   0.062
93262SOL     OW81559   6.271   8.383   8.798
93262SOL    HW181560   6.201   8.355   8.739
93262SOL    HW281561   6.345   8.326   8.776
93263SOL     OW81562  13.797  11.587  13.551
93263SOL    HW181563  13.846  11.560  13.629
93263SOL    HW281564  13.798  11.510  13.494
93264SOL     OW81565  13.259   6.579   1.771
93264SOL    HW181566  13.284   6.663   1.811
93264SOL    HW281567  13.247   6.599   1.679
93265SOL     OW81568   5.147  13.727  12.180
93265SOL    HW181569   5.134  13.812  12.138
93265SOL    HW281570   5.214  13.684  12.127
93266SOL     OW81571   5.167   8.135  13.147
93266SOL    HW181572   5.091   8.082  13.170
93266SOL    HW281573   5.233   8.112  13.213
93267SOL     OW81574   6.204  13.336  12.715
93267SOL    HW181575   6.175  13.422  12.746
93267SOL    HW281576   6.299  13.344  12.706
93268SOL     OW81577  13.523  12.982  11.081
93268SOL    HW181578  13.569  13.010  11.002
93268SOL    HW281579  13.430  12.990  11.060
93269SOL     OW81580  14.567   3.642   8.990
93269SOL    HW181581  14.609   3.675   8.911
93269SOL    HW281582  14.631   3.582   9.028
93270SOL     OW81583   4.106   9.026   7.368
93270SOL    HW181584   4.146   9.022   7.455
93270SOL    HW281585   4.155   9.094   7.322
93271SOL     OW81586   3.360   7.156   2.189
93271SOL    HW181587   3.382   7.063   2.189
93271SOL    HW281588   3.443   7.200   2.172
93272SOL     OW81589  12.008   7.587   1.979
93272SOL    HW181590  11.937   7.523   1.973
93272SOL    HW281591  11.963   7.672   1.983
93273SOL     OW81592  13.670   0.916   4.958
93273SOL    HW181593  13.588   0.961   4.974
93273SOL    HW281594  13.662   0.879   4.870
93274SOL     OW81595  12.925   9.396   1.264
93274SOL    HW181596  12.912   9.444   1.182
93274SOL    HW281597  12.840   9.354   1.280
93275SOL     OW81598   5.941   3.381   3.055
93275SOL    HW181599   5.973   3.425   2.976
93275SOL    HW281600   5.877   3.442   3.092
93276SOL     OW81601  11.419  11.953   2.401
93276SOL    HW181602  11.329  11.935   2.430
93276SOL    HW281603  11.472  11.887   2.448
93277SOL     OW81604   5.541   9.317  14.544
93277SOL    HW181605   5.464   9.368  14.569
93277SOL    HW281606   5.587   9.300  14.626
93278SOL     OW81607  14.433   9.025   7.286
93278SOL    HW181608  14.340   9.037   7.300
93278SOL    HW281609  14.467   8.997   7.371
93279SOL     OW81610  12.879  12.906   1.682
93279SOL    HW181611  12.796  12.944   1.708
93279SOL    HW281612  12.944  12.974   1.699
93280SOL     OW81613  11.992   3.092  11.408
93280SOL    HW181614  11.922   3.030  11.388
93280SOL    HW281615  12.003   3.142  11.327
93281SOL     OW81616   2.539   3.075   6.652
93281SOL    HW181617   2.625   3.056   6.614
93281SOL    HW281618   2.480   3.074   6.576
93282SOL     OW81619   4.792   9.099   5.393
93282SOL    HW181620   4.803   9.163   5.463
93282SOL    HW281621   4.812   9.015   5.435
93283SOL     OW81622   2.224   7.748   6.093
93283SOL    HW181623   2.166   7.689   6.142
93283SOL    HW281624   2.312   7.726   6.125
93284SOL     OW81625  12.693   5.424   2.601
93284SOL    HW181626  12.650   5.468   2.675
93284SOL    HW281627  12.717   5.338   2.635
93285SOL     OW81628  10.042   7.089   6.817
93285SOL    HW181629   9.987   7.069   6.741
93285SOL    HW281630   9.998   7.164   6.859
93286SOL     OW81631  11.326   2.755  13.694
93286SOL    HW181632  11.404   2.810  13.685
93286SOL    HW281633  11.281   2.766  13.610
93287SOL     OW81634  10.322   8.478  11.362
93287SOL    HW181635  10.407   8.505  11.396
93287SOL    HW281636  10.343   8.436  11.278
93288SOL     OW81637  12.871   9.577   3.052
93288SOL    HW181638  12.835   9.651   3.003
93288SOL    HW281639  12.805   9.509   3.044
93289SOL     OW81640   3.493   7.937   9.541
93289SOL    HW181641   3.399   7.955   9.532
93289SOL    HW281642   3.498   7.842   9.556
93290SOL     OW81643   7.042  13.620  12.774
93290SOL    HW181644   6.978  13.688  12.756
93290SOL    HW281645   7.094  13.615  12.694
93291SOL     OW81646  12.262  11.011  12.271
93291SOL    HW181647  12.221  11.095  12.251
93291SOL    HW281648  12.354  11.022  12.244
93292SOL     OW81649   4.091  11.594   7.462
93292SOL    HW181650   4.036  11.572   7.537
93292SOL    HW281651   4.128  11.511   7.434
93293SOL     OW81652   9.697   2.426   3.339
93293SOL    HW181653   9.709   2.343   3.293
93293SOL    HW281654   9.686   2.491   3.269
93294SOL     OW81655   5.700   8.968   1.008
93294SOL    HW181656   5.687   9.049   0.959
93294SOL    HW281657   5.647   8.978   1.087
93295SOL     OW81658  14.578   9.178   6.517
93295SOL    HW181659  14.542   9.227   6.590
93295SOL    HW281660  14.510   9.180   6.450
93296SOL     OW81661   5.939   7.150  10.767
93296SOL    HW181662   6.026   7.154  10.808
93296SOL    HW281663   5.878   7.172  10.837
93297SOL     OW81664   3.003  10.895   8.346
93297SOL    HW181665   2.928  10.931   8.392
93297SOL    HW281666   2.992  10.923   8.255
93298SOL     OW81667   1.434   3.058   5.169
93298SOL    HW181668   1.423   2.968   5.141
93298SOL    HW281669   1.376   3.109   5.112
93299SOL     OW81670   0.089   7.365  14.117
93299SOL    HW181671   0.143   7.381  14.195
93299SOL    HW281672   0.123   7.283  14.081
93300SOL     OW81673  12.952  12.374   2.336
93300SOL    HW181674  12.992  12.411   2.257
93300SOL    HW281675  13.018  12.312   2.369
93301SOL     OW81676   9.441   1.561  13.118
93301SOL    HW181677   9.496   1.632  13.152
93301SOL    HW281678   9.478   1.541  13.032
93302SOL     OW81679  11.611  12.882  13.690
93302SOL    HW181680  11.633  12.974  13.673
93302SOL    HW281681  11.696  12.839  13.701
93303SOL     OW81682   9.855   1.241  13.025
93303SOL    HW181683   9.805   1.225  13.105
93303SOL    HW281684   9.946   1.221  13.049
93304SOL     OW81685   4.707   1.143   9.782
93304SOL    HW181686   4.660   1.066   9.816
93304SOL    HW281687   4.655   1.218   9.811
93305SOL     OW81688  11.398   5.714   2.942
93305SOL    HW181689  11.487   5.686   2.962
93305SOL    HW281690  11.367   5.652   2.876
93306SOL     OW81691  12.623  12.973   4.695
93306SOL    HW181692  12.673  13.054   4.700
93306SOL    HW281693  12.583  12.975   4.608
93307SOL     OW81694   7.150  10.410  14.788
93307SOL    HW181695   7.127  10.453  14.706
93307SOL    HW281696   7.093  10.333  14.791
93308SOL     OW81697   6.332   1.269   0.169
93308SOL    HW181698   6.249   1.230   0.142
93308SOL    HW281699   6.398   1.222   0.118
93309SOL     OW81700   5.136   6.825   0.383
93309SOL    HW181701   5.141   6.766   0.459
93309SOL    HW281702   5.216   6.808   0.334
93310SOL     OW81703  12.256   6.757   9.916
93310SOL    HW181704  12.320   6.798   9.974
93310SOL    HW281705  12.211   6.693   9.972
93311SOL     OW81706   7.520  13.298   0.377
93311SOL    HW181707   7.598  13.349   0.402
93311SOL    HW281708   7.556  13.223   0.330
93312SOL     OW81709  12.226   9.620   6.254
93312SOL    HW181710  12.224   9.550   6.189
93312SOL    HW281711  12.159   9.594   6.319
93313SOL     OW81712   2.703  10.917  13.839
93313SOL    HW181713   2.620  10.947  13.877
93313SOL    HW281714   2.770  10.958  13.892
93314SOL     OW81715   1.765  13.632   8.504
93314SOL    HW181716   1.726  13.703   8.454
93314SOL    HW281717   1.789  13.566   8.439
93315SOL     OW81718   0.344   2.762  10.749
93315SOL    HW181719   0.387   2.753  10.664
93315SOL    HW281720   0.407   2.727  10.812
93316SOL     OW81721   6.657   0.047   5.775
93316SOL    HW181722   6.698   0.132   5.761
93316SOL    HW281723   6.563   0.066   5.779
93317SOL     OW81724   4.798   8.048   6.902
93317SOL    HW181725   4.780   7.997   6.823
93317SOL    HW281726   4.887   8.081   6.889
93318SOL     OW81727   8.957   4.755   6.216
93318SOL    HW181728   8.973   4.665   6.247
93318SOL    HW281729   9.008   4.809   6.276
93319SOL     OW81730  14.537   6.719   6.063
93319SOL    HW181731  14.554   6.811   6.085
93319SOL    HW281732  14.530   6.718   5.968
93320SOL     OW81733   2.328   6.430   6.035
93320SOL    HW181734   2.390   6.474   6.094
93320SOL    HW281735   2.315   6.344   6.075
93321SOL     OW81736   5.282   0.777   2.798
93321SOL    HW181737   5.217   0.769   2.727
93321SOL    HW281738   5.366   0.784   2.753
93322SOL     OW81739  12.866   9.277   8.379
93322SOL    HW181740  12.809   9.280   8.456
93322SOL    HW281741  12.867   9.185   8.353
93323SOL     OW81742   6.506   9.321   1.259
93323SOL    HW181743   6.587   9.277   1.236
93323SOL    HW281744   6.529   9.378   1.332
93324SOL     OW81745  14.829   6.557  10.695
93324SOL    HW181746  14.758   6.620  10.707
93324SOL    HW281747   0.030   6.610  10.683
93325SOL     OW81748  12.459   0.874  13.088
93325SOL    HW181749  12.386   0.927  13.056
93325SOL    HW281750  12.493   0.831  13.009
93326SOL     OW81751   6.754  10.598   3.298
93326SOL    HW181752   6.814  10.664   3.332
93326SOL    HW281753   6.789  10.576   3.211
93327SOL     OW81754  13.920   9.022   9.538
93327SOL    HW181755  13.979   8.979   9.476
93327SOL    HW281756  13.912   9.111   9.506
93328SOL     OW81757  13.743  13.212   4.006
93328SOL    HW181758  13.837  13.201   4.023
93328SOL    HW281759  13.711  13.264   4.080
93329SOL     OW81760   2.973  14.677   5.909
93329SOL    HW181761   2.954  14.585   5.927
93329SOL    HW281762   3.025  14.675   5.829
93330SOL     OW81763   2.000   3.931   6.514
93330SOL    HW181764   1.927   3.943   6.576
93330SOL    HW281765   2.034   3.844   6.535
93331SOL     OW81766  14.327  14.651   7.008
93331SOL    HW181767  14.339  14.573   7.062
93331SOL    HW281768  14.360  14.723   7.061
93332SOL     OW81769  11.520   8.782   4.045
93332SOL    HW181770  11.433   8.782   4.004
93332SOL    HW281771  11.559   8.699   4.018
93333SOL     OW81772   3.105  14.159   7.143
93333SOL    HW181773   3.084  14.113   7.062
93333SOL    HW281774   3.200  14.161   7.145
93334SOL     OW81775   3.760   4.607  13.392
93334SOL    HW181776   3.733   4.568  13.309
93334SOL    HW281777   3.791   4.695  13.369
93335SOL     OW81778   7.419   2.069  11.193
93335SOL    HW181779   7.381   1.997  11.244
93335SOL    HW281780   7.478   2.026  11.132
93336SOL     OW81781  13.590   2.294   5.074
93336SOL    HW181782  13.506   2.270   5.037
93336SOL    HW281783  13.573   2.304   5.168
93337SOL     OW81784   9.519   0.405   0.029
93337SOL    HW181785   9.497   0.478   0.086
93337SOL    HW281786   9.593   0.362   0.072
93338SOL     OW81787  14.277   2.812   9.910
93338SOL    HW181788  14.337   2.763   9.966
93338SOL    HW281789  14.322   2.817   9.825
93339SOL     OW81790   1.383  10.056   6.868
93339SOL    HW181791   1.388   9.978   6.924
93339SOL    HW281792   1.451  10.042   6.803
93340SOL     OW81793   9.645   7.718   4.714
93340SOL    HW181794   9.571   7.709   4.654
93340SOL    HW281795   9.714   7.665   4.673
93341SOL     OW81796  11.169   5.423  11.165
93341SOL    HW181797  11.086   5.377  11.154
93341SOL    HW281798  11.211   5.416  11.080
93342SOL     OW81799   9.082  13.360   8.389
93342SOL    HW181800   9.175  13.383   8.388
93342SOL    HW281801   9.080  13.264   8.390
93343SOL     OW81802  13.238   5.412   1.332
93343SOL    HW181803  13.325   5.452   1.330
93343SOL    HW281804  13.193   5.455   1.404
93344SOL     OW81805  11.518   0.349   0.081
93344SOL    HW181806  11.607   0.366   0.111
93344SOL    HW281807  11.487   0.434   0.048
93345SOL     OW81808   0.912   6.367   1.919
93345SOL    HW181809   0.909   6.443   1.861
93345SOL    HW281810   0.837   6.377   1.977
93346SOL     OW81811  13.093   4.526  14.762
93346SOL    HW181812  13.171   4.528  14.818
93346SOL    HW281813  13.056   4.438  14.776
93347SOL     OW81814  10.108   5.622   4.856
93347SOL    HW181815  10.187   5.587   4.816
93347SOL    HW281816  10.139   5.669   4.934
93348SOL     OW81817   9.163   3.495  13.373
93348SOL    HW181818   9.247   3.486  13.418
93348SOL    HW281819   9.119   3.411  13.389
93349SOL     OW81820   6.390  10.013  10.678
93349SOL    HW181821   6.387  10.084  10.742
93349SOL    HW281822   6.483  10.002  10.659
93350SOL     OW81823  14.182  11.710   8.391
93350SOL    HW181824  14.150  11.766   8.320
93350SOL    HW281825  14.112  11.713   8.457
93351SOL     OW81826   3.578   9.659   4.101
93351SOL    HW181827   3.574   9.568   4.070
93351SOL    HW281828   3.487   9.679   4.124
93352SOL     OW81829   3.866  14.254   3.656
93352SOL    HW181830   3.931  14.228   3.591
93352SOL    HW281831   3.786  14.269   3.605
93353SOL     OW81832   9.079   2.822   6.090
93353SOL    HW181833   9.131   2.873   6.153
93353SOL    HW281834   9.006   2.881   6.068
93354SOL     OW81835   4.720   0.126  12.077
93354SOL    HW181836   4.811   0.136  12.106
93354SOL    HW281837   4.687   0.053  12.130
93355SOL     OW81838   5.079  11.287   0.129
93355SOL    HW181839   5.144  11.241   0.076
93355SOL    HW281840   5.127  11.317   0.206
93356SOL     OW81841  10.426  13.216   1.566
93356SOL    HW181842  10.490  13.146   1.569
93356SOL    HW281843  10.344  13.173   1.540
93357SOL     OW81844  10.641  10.231   2.190
93357SOL    HW181845  10.550  10.259   2.183
93357SOL    HW281846  10.678  10.289   2.257
93358SOL     OW81847   7.980  10.570   3.742
93358SOL    HW181848   7.926  10.611   3.674
93358SOL    HW281849   8.056  10.535   3.695
93359SOL     OW81850   0.240  14.230   8.771
93359SOL    HW181851   0.261  14.144   8.735
93359SOL    HW281852   0.323  14.277   8.770
93360SOL     OW81853   5.583   3.153   8.166
93360SOL    HW181854   5.643   3.078   8.162
93360SOL    HW281855   5.570   3.167   8.260
93361SOL     OW81856   0.434  13.577   1.838
93361SOL    HW181857   0.464  13.653   1.789
93361SOL    HW281858   0.494  13.507   1.813
93362SOL     OW81859  10.775   4.992  12.696
93362SOL    HW181860  10.747   4.939  12.770
93362SOL    HW281861  10.703   4.987  12.633
93363SOL     OW81862   7.409   4.566  13.246
93363SOL    HW181863   7.464   4.542  13.321
93363SOL    HW281864   7.380   4.483  13.209
93364SOL     OW81865   5.838   8.441   1.743
93364SOL    HW181866   5.912   8.479   1.694
93364SOL    HW281867   5.763   8.493   1.716
93365SOL     OW81868   7.777   6.447   5.547
93365SOL    HW181869   7.836   6.465   5.474
93365SOL    HW281870   7.706   6.510   5.538
93366SOL     OW81871  11.852  11.124  12.680
93366SOL    HW181872  11.879  11.211  12.651
93366SOL    HW281873  11.930  11.087  12.720
93367SOL     OW81874  11.470  13.663   1.262
93367SOL    HW181875  11.496  13.751   1.289
93367SOL    HW281876  11.503  13.606   1.332
93368SOL     OW81877  14.595   8.521  11.309
93368SOL    HW181878  14.527   8.501  11.244
93368SOL    HW281879  14.671   8.547  11.257
93369SOL     OW81880  10.070  10.251   4.571
93369SOL    HW181881  10.096  10.287   4.656
93369SOL    HW281882   9.983  10.215   4.586
93370SOL     OW81883   3.027  11.508  10.019
93370SOL    HW181884   2.966  11.451  10.067
93370SOL    HW281885   3.035  11.585  10.074
93371SOL     OW81886   5.923   3.741   4.117
93371SOL    HW181887   5.965   3.661   4.087
93371SOL    HW281888   5.873   3.772   4.041
93372SOL     OW81889  12.036   8.783  11.862
93372SOL    HW181890  11.954   8.803  11.906
93372SOL    HW281891  12.078   8.718  11.917
93373SOL     OW81892   5.492   7.006  10.458
93373SOL    HW181893   5.406   6.996  10.498
93373SOL    HW281894   5.539   7.066  10.516
93374SOL     OW81895   3.968   0.458   0.628
93374SOL    HW181896   3.896   0.494   0.575
93374SOL    HW281897   3.965   0.364   0.611
93375SOL     OW81898   0.960   1.730   9.786
93375SOL    HW181899   1.027   1.700   9.724
93375SOL    HW281900   0.977   1.823   9.796
93376SOL     OW81901  11.015  12.214   0.610
93376SOL    HW181902  10.949  12.188   0.546
93376SOL    HW281903  11.034  12.134   0.659
93377SOL     OW81904   1.819   8.835   6.155
93377SOL    HW181905   1.812   8.902   6.086
93377SOL    HW281906   1.766   8.869   6.227
93378SOL     OW81907   1.055  12.845   3.816
93378SOL    HW181908   1.141  12.805   3.803
93378SOL    HW281909   1.035  12.885   3.731
93379SOL     OW81910  10.405   8.890   9.895
93379SOL    HW181911  10.469   8.945   9.849
93379SOL    HW281912  10.390   8.815   9.837
93380SOL     OW81913   0.055   3.647   6.058
93380SOL    HW181914   0.079   3.696   6.136
93380SOL    HW281915   0.138   3.615   6.023
93381SOL     OW81916   9.032   7.950   2.306
93381SOL    HW181917   9.041   7.874   2.363
93381SOL    HW281918   9.073   8.022   2.354
93382SOL     OW81919   6.734   4.588   7.773
93382SOL    HW181920   6.700   4.503   7.800
93382SOL    HW281921   6.792   4.615   7.844
93383SOL     OW81922   7.961   7.091   5.938
93383SOL    HW181923   8.009   7.111   6.018
93383SOL    HW281924   7.932   7.001   5.950
93384SOL     OW81925   9.128   5.408   4.310
93384SOL    HW181926   9.067   5.375   4.377
93384SOL    HW281927   9.074   5.461   4.252
93385SOL     OW81928   6.078   8.508   9.729
93385SOL    HW181929   6.123   8.562   9.794
93385SOL    HW281930   6.149   8.471   9.675
93386SOL     OW81931   7.377  13.274   2.172
93386SOL    HW181932   7.377  13.197   2.116
93386SOL    HW281933   7.285  13.287   2.196
93387SOL     OW81934   2.290  10.425   9.038
93387SOL    HW181935   2.243  10.416   9.122
93387SOL    HW281936   2.375  10.460   9.062
93388SOL     OW81937   4.601   9.118   8.560
93388SOL    HW181938   4.626   9.124   8.652
93388SOL    HW281939   4.508   9.141   8.559
93389SOL     OW81940   7.712   2.543   7.613
93389SOL    HW181941   7.666   2.459   7.621
93389SOL    HW281942   7.644   2.605   7.585
93390SOL     OW81943  10.543   4.865   2.658
93390SOL    HW181944  10.579   4.948   2.690
93390SOL    HW281945  10.593   4.846   2.579
93391SOL     OW81946   6.587   8.244   5.660
93391SOL    HW181947   6.563   8.320   5.713
93391SOL    HW281948   6.673   8.217   5.693
93392SOL     OW81949   2.386  12.621   9.927
93392SOL    HW181950   2.466  12.665   9.955
93392SOL    HW281951   2.404  12.592   9.838
93393SOL     OW81952   8.608  12.294   3.644
93393SOL    HW181953   8.689  12.250   3.618
93393SOL    HW281954   8.560  12.306   3.562
93394SOL     OW81955  10.771   5.550  14.331
93394SOL    HW181956  10.724   5.542  14.248
93394SOL    HW281957  10.833   5.621  14.317
93395SOL     OW81958  11.187  14.038   1.684
93395SOL    HW181959  11.199  14.086   1.766
93395SOL    HW281960  11.106  14.074   1.648
93396SOL     OW81961  13.453  10.799  12.680
93396SOL    HW181962  13.538  10.757  12.688
93396SOL    HW281963  13.451  10.861  12.753
93397SOL     OW81964  14.330   3.216   9.265
93397SOL    HW181965  14.250   3.164   9.253
93397SOL    HW281966  14.396   3.154   9.294
93398SOL     OW81967   5.004  11.260   8.643
93398SOL    HW181968   5.087  11.294   8.608
93398SOL    HW281969   5.023  11.237   8.734
93399SOL     OW81970   9.046   1.011   5.210
93399SOL    HW181971   9.101   0.974   5.141
93399SOL    HW281972   8.960   0.972   5.195
93400SOL     OW81973   8.495   3.493   3.392
93400SOL    HW181974   8.513   3.487   3.485
93400SOL    HW281975   8.545   3.570   3.363
93401SOL     OW81976  13.230   6.517   6.464
93401SOL    HW181977  13.235   6.431   6.424
93401SOL    HW281978  13.165   6.508   6.533
93402SOL     OW81979   3.188   7.423  12.087
93402SOL    HW181980   3.176   7.415  11.992
93402SOL    HW281981   3.137   7.500  12.111
93403SOL     OW81982  14.529   7.078   6.728
93403SOL    HW181983  14.457   7.016   6.742
93403SOL    HW281984  14.581   7.074   6.808
93404SOL     OW81985   8.890  10.962  10.941
93404SOL    HW181986   8.961  11.021  10.915
93404SOL    HW281987   8.889  10.895  10.872
93405SOL     OW81988   5.491  10.364  10.915
93405SOL    HW181989   5.564  10.303  10.925
93405SOL    HW281990   5.532  10.446  10.888
93406SOL     OW81991   9.085  13.065  11.109
93406SOL    HW181992   9.079  13.033  11.199
93406SOL    HW281993   9.033  13.003  11.058
93407SOL     OW81994  10.864  13.258   0.089
93407SOL    HW181995  10.828  13.171   0.101
93407SOL    HW281996  10.846  13.303   0.172
93408SOL     OW81997   3.560   9.569  14.727
93408SOL    HW181998   3.505   9.493  14.706
93408SOL    HW281999   3.629   9.567  14.661
93409SOL     OW82000  14.251   8.926  11.805
93409SOL    HW182001  14.157   8.914  11.819
93409SOL    HW282002  14.286   8.837  11.799
93410SOL     OW82003   8.713   7.912   7.943
93410SOL    HW182004   8.661   7.852   7.890
93410SOL    HW282005   8.776   7.857   7.988
93411SOL     OW82006   7.753   6.316  12.968
93411SOL    HW182007   7.739   6.233  12.922
93411SOL    HW282008   7.835   6.350  12.933
93412SOL     OW82009   4.977  13.068  12.029
93412SOL    HW182010   4.992  13.013  12.106
93412SOL    HW282011   4.901  13.122  12.052
93413SOL     OW82012   1.386  10.799  10.530
93413SOL    HW182013   1.433  10.817  10.449
93413SOL    HW282014   1.319  10.736  10.505
93414SOL     OW82015   9.845   4.370   3.780
93414SOL    HW182016   9.756   4.376   3.813
93414SOL    HW282017   9.843   4.414   3.695
93415SOL     OW82018   6.387  13.190   0.186
93415SOL    HW182019   6.327  13.200   0.112
93415SOL    HW282020   6.341  13.133   0.247
93416SOL     OW82021   9.681  10.690  11.163
93416SOL    HW182022   9.682  10.634  11.085
93416SOL    HW282023   9.730  10.640  11.229
93417SOL     OW82024   8.115   8.670  14.584
93417SOL    HW182025   8.123   8.762  14.609
93417SOL    HW282026   8.036   8.667  14.529
93418SOL     OW82027   7.655   5.503   3.085
93418SOL    HW182028   7.676   5.564   3.156
93418SOL    HW282029   7.607   5.556   3.021
93419SOL     OW82030  12.491  13.438   2.921
93419SOL    HW182031  12.530  13.504   2.977
93419SOL    HW282032  12.543  13.440   2.841
93420SOL     OW82033  13.645  14.310  12.631
93420SOL    HW182034  13.720  14.333  12.575
93420SOL    HW282035  13.583  14.269  12.571
93421SOL     OW82036  13.324   2.851   0.700
93421SOL    HW182037  13.397   2.810   0.652
93421SOL    HW282038  13.342   2.945   0.694
93422SOL     OW82039   4.359   4.401   1.383
93422SOL    HW182040   4.359   4.487   1.339
93422SOL    HW282041   4.441   4.399   1.432
93423SOL     OW82042   1.394   2.699   9.978
93423SOL    HW182043   1.390   2.735  10.067
93423SOL    HW282044   1.357   2.611   9.986
93424SOL     OW82045   0.231  11.196   2.585
93424SOL    HW182046   0.239  11.250   2.506
93424SOL    HW282047   0.215  11.258   2.655
93425SOL     OW82048   0.811   5.787   7.412
93425SOL    HW182049   0.801   5.872   7.455
93425SOL    HW282050   0.745   5.786   7.343
93426SOL     OW82051   2.221  12.849   0.807
93426SOL    HW182052   2.179  12.924   0.767
93426SOL    HW282053   2.150  12.804   0.855
93427SOL     OW82054   2.538   6.746   8.186
93427SOL    HW182055   2.617   6.783   8.224
93427SOL    HW282056   2.467   6.782   8.239
93428SOL     OW82057   8.733   5.381   1.515
93428SOL    HW182058   8.696   5.469   1.510
93428SOL    HW282059   8.824   5.395   1.541
93429SOL     OW82060   6.866  11.740   0.638
93429SOL    HW182061   6.853  11.805   0.707
93429SOL    HW282062   6.883  11.658   0.686
93430SOL     OW82063   5.999   5.122   3.608
93430SOL    HW182064   6.004   5.110   3.703
93430SOL    HW282065   6.018   5.215   3.594
93431SOL     OW82066   4.216   4.785   2.793
93431SOL    HW182067   4.300   4.827   2.808
93431SOL    HW282068   4.169   4.845   2.735
93432SOL     OW82069   6.105   2.168   6.726
93432SOL    HW182070   6.087   2.216   6.807
93432SOL    HW282071   6.120   2.078   6.755
93433SOL     OW82072  13.780   7.760   8.981
93433SOL    HW182073  13.867   7.790   8.954
93433SOL    HW282074  13.722   7.833   8.957
93434SOL     OW82075  12.692  13.792   3.476
93434SOL    HW182076  12.701  13.856   3.546
93434SOL    HW282077  12.662  13.842   3.400
93435SOL     OW82078   4.968   5.989   4.751
93435SOL    HW182079   5.011   5.974   4.667
93435SOL    HW282080   4.970   5.905   4.795
93436SOL     OW82081   7.362   9.537   0.187
93436SOL    HW182082   7.375   9.590   0.266
93436SOL    HW282083   7.305   9.590   0.131
93437SOL     OW82084  10.246  14.261  13.598
93437SOL    HW182085  10.166  14.297  13.559
93437SOL    HW282086  10.215  14.209  13.672
93438SOL     OW82087   5.478  10.807   9.827
93438SOL    HW182088   5.520  10.887   9.858
93438SOL    HW282089   5.405  10.836   9.773
93439SOL     OW82090   3.693   0.297   5.240
93439SOL    HW182091   3.770   0.310   5.295
93439SOL    HW282092   3.625   0.265   5.299
93440SOL     OW82093   8.200  13.844  10.303
93440SOL    HW182094   8.249  13.897  10.240
93440SOL    HW282095   8.148  13.785  10.250
93441SOL     OW82096  13.813  13.785   5.903
93441SOL    HW182097  13.730  13.818   5.869
93441SOL    HW282098  13.872  13.861   5.900
93442SOL     OW82099  13.024   8.292   5.828
93442SOL    HW182100  12.941   8.336   5.812
93442SOL    HW282101  13.091   8.358   5.808
93443SOL     OW82102  12.035   2.281   5.802
93443SOL    HW182103  12.107   2.344   5.810
93443SOL    HW282104  11.995   2.280   5.889
93444SOL     OW82105   9.335   3.498  13.142
93444SOL    HW182106   9.279   3.507  13.219
93444SOL    HW282107   9.368   3.587  13.126
93445SOL     OW82108   4.593   0.839   3.239
93445SOL    HW182109   4.577   0.928   3.205
93445SOL    HW282110   4.514   0.790   3.216
93446SOL     OW82111   4.653   7.766  14.532
93446SOL    HW182112   4.731   7.721  14.565
93446SOL    HW282113   4.595   7.696  14.502
93447SOL     OW82114  14.493  11.676   6.785
93447SOL    HW182115  14.448  11.620   6.849
93447SOL    HW282116  14.578  11.695   6.824
93448SOL     OW82117  13.177  11.051  10.184
93448SOL    HW182118  13.086  11.021  10.191
93448SOL    HW282119  13.176  11.140  10.218
93449SOL     OW82120   6.346   0.216   8.879
93449SOL    HW182121   6.268   0.240   8.830
93449SOL    HW282122   6.314   0.196   8.967
93450SOL     OW82123   9.827   2.038   7.166
93450SOL    HW182124   9.856   2.106   7.227
93450SOL    HW282125   9.869   1.958   7.197
93451SOL     OW82126   5.781   3.234  12.430
93451SOL    HW182127   5.733   3.316  12.419
93451SOL    HW282128   5.870   3.255  12.402
93452SOL     OW82129   7.929   0.181   2.046
93452SOL    HW182130   7.875   0.243   1.998
93452SOL    HW282131   7.937   0.218   2.134
93453SOL     OW82132  13.295   2.839   8.125
93453SOL    HW182133  13.357   2.787   8.177
93453SOL    HW282134  13.230   2.776   8.095
93454SOL     OW82135   3.644  11.376  14.489
93454SOL    HW182136   3.683  11.458  14.460
93454SOL    HW282137   3.642  11.383  14.585
93455SOL     OW82138  10.417   3.384   3.920
93455SOL    HW182139  10.341   3.387   3.862
93455SOL    HW282140  10.389   3.431   3.998
93456SOL     OW82141   2.844   1.416  10.881
93456SOL    HW182142   2.908   1.399  10.812
93456SOL    HW282143   2.858   1.345  10.944
93457SOL     OW82144   7.734   4.951   8.164
93457SOL    HW182145   7.768   5.034   8.129
93457SOL    HW282146   7.639   4.959   8.156
93458SOL     OW82147  11.842   8.516   7.498
93458SOL    HW182148  11.864   8.427   7.523
93458SOL    HW282149  11.748   8.514   7.481
93459SOL     OW82150   1.847  11.301  13.758
93459SOL    HW182151   1.879  11.218  13.723
93459SOL    HW282152   1.889  11.308  13.845
93460SOL     OW82153   7.090   0.742  13.997
93460SOL    HW182154   7.142   0.666  14.022
93460SOL    HW282155   7.119   0.762  13.908
93461SOL     OW82156   2.197   5.715   0.856
93461SOL    HW182157   2.165   5.781   0.795
93461SOL    HW282158   2.279   5.684   0.816
93462SOL     OW82159   3.886  11.513  14.236
93462SOL    HW182160   3.940  11.510  14.157
93462SOL    HW282161   3.829  11.589  14.223
93463SOL     OW82162   3.711   7.975   6.870
93463SOL    HW182163   3.643   8.026   6.915
93463SOL    HW282164   3.742   7.913   6.937
93464SOL     OW82165   4.390   9.477   5.086
93464SOL    HW182166   4.348   9.427   5.017
93464SOL    HW282167   4.472   9.509   5.046
93465SOL     OW82168   4.519   9.909  10.752
93465SOL    HW182169   4.526   9.976  10.821
93465SOL    HW282170   4.607   9.903  10.715
93466SOL     OW82171  11.385  11.327   5.337
93466SOL    HW182172  11.336  11.330   5.255
93466SOL    HW282173  11.400  11.234   5.353
93467SOL     OW82174   5.317  14.657   6.841
93467SOL    HW182175   5.289  14.720   6.908
93467SOL    HW282176   5.235  14.623   6.806
93468SOL     OW82177  12.262   1.145  14.215
93468SOL    HW182178  12.180   1.097  14.209
93468SOL    HW282179  12.327   1.079  14.238
93469SOL     OW82180  13.634   2.684   7.563
93469SOL    HW182181  13.648   2.762   7.510
93469SOL    HW282182  13.629   2.717   7.653
93470SOL     OW82183  13.177   3.605  14.774
93470SOL    HW182184  13.128   3.660  14.713
93470SOL    HW282185  13.182   3.520  14.730
93471SOL     OW82186   8.914   9.427  11.298
93471SOL    HW182187   8.946   9.515  11.315
93471SOL    HW282188   8.886   9.394  11.384
93472SOL     OW82189   2.174   1.721   6.864
93472SOL    HW182190   2.222   1.786   6.812
93472SOL    HW282191   2.086   1.757   6.871
93473SOL     OW82192  14.033   5.751  13.510
93473SOL    HW182193  14.035   5.672  13.456
93473SOL    HW282194  14.102   5.737  13.575
93474SOL     OW82195  11.113  10.900  14.213
93474SOL    HW182196  11.047  10.903  14.143
93474SOL    HW282197  11.197  10.901  14.168
93475SOL     OW82198   1.452   8.653  13.117
93475SOL    HW182199   1.370   8.617  13.084
93475SOL    HW282200   1.464   8.735  13.070
93476SOL     OW82201  11.620  12.795   0.859
93476SOL    HW182202  11.590  12.885   0.847
93476SOL    HW282203  11.683  12.781   0.788
93477SOL     OW82204   9.080  12.275   1.198
93477SOL    HW182205   9.133  12.293   1.276
93477SOL    HW282206   9.144  12.247   1.132
93478SOL     OW82207   5.333   5.074   5.300
93478SOL    HW182208   5.362   4.989   5.332
93478SOL    HW282209   5.240   5.062   5.280
93479SOL     OW82210   3.571   4.987   5.704
93479SOL    HW182211   3.584   5.047   5.632
93479SOL    HW282212   3.533   4.909   5.664
93480SOL     OW82213   7.568   6.941   5.908
93480SOL    HW182214   7.559   6.981   5.995
93480SOL    HW282215   7.517   6.859   5.914
93481SOL     OW82216   8.526   7.490   2.091
93481SOL    HW182217   8.584   7.504   2.166
93481SOL    HW282218   8.578   7.520   2.016
93482SOL     OW82219   4.757  13.599  12.561
93482SOL    HW182220   4.740  13.525  12.502
93482SOL    HW282221   4.678  13.653  12.554
93483SOL     OW82222  12.646  10.878   2.206
93483SOL    HW182223  12.663  10.819   2.133
93483SOL    HW282224  12.695  10.958   2.185
93484SOL     OW82225   3.343   6.078  14.247
93484SOL    HW182226   3.277   6.145  14.232
93484SOL    HW282227   3.293   5.998  14.262
93485SOL     OW82228   6.337   0.835  13.864
93485SOL    HW182229   6.390   0.756  13.864
93485SOL    HW282230   6.369   0.885  13.939
93486SOL     OW82231  10.196   0.253   6.665
93486SOL    HW182232  10.234   0.181   6.615
93486SOL    HW282233  10.257   0.326   6.652
93487SOL     OW82234   5.553   5.414   0.674
93487SOL    HW182235   5.513   5.501   0.677
93487SOL    HW282236   5.573   5.394   0.766
93488SOL     OW82237  11.397   5.311   7.018
93488SOL    HW182238  11.412   5.405   7.014
93488SOL    HW282239  11.485   5.273   7.016
93489SOL     OW82240  14.824  12.120   5.998
93489SOL    HW182241  14.864  12.034   6.008
93489SOL    HW282242  14.734  12.101   5.969
93490SOL     OW82243   7.065   9.752  11.248
93490SOL    HW182244   7.034   9.694  11.178
93490SOL    HW282245   7.063   9.698  11.327
93491SOL     OW82246   0.636   3.298  12.617
93491SOL    HW182247   0.591   3.354  12.680
93491SOL    HW282248   0.571   3.283  12.547
93492SOL     OW82249   0.978   5.455  10.856
93492SOL    HW182250   1.029   5.528  10.821
93492SOL    HW282251   1.028   5.424  10.931
93493SOL     OW82252  14.768   9.741   8.341
93493SOL    HW182253  14.710   9.665   8.350
93493SOL    HW282254  14.711   9.810   8.306
93494SOL     OW82255   3.668  12.101  12.142
93494SOL    HW182256   3.579  12.097  12.107
93494SOL    HW282257   3.695  12.009  12.151
93495SOL     OW82258   4.601   7.359   1.535
93495SOL    HW182259   4.514   7.349   1.572
93495SOL    HW282260   4.608   7.289   1.470
93496SOL     OW82261   1.052   2.344  12.892
93496SOL    HW182262   1.138   2.384  12.904
93496SOL    HW282263   1.006   2.361  12.974
93497SOL     OW82264   0.649   4.820  14.583
93497SOL    HW182265   0.643   4.898  14.637
93497SOL    HW282266   0.692   4.755  14.639
93498SOL     OW82267  13.972  14.362   0.657
93498SOL    HW182268  14.061  14.350   0.625
93498SOL    HW282269  13.979  14.433   0.721
93499SOL     OW82270  13.826  12.759   4.289
93499SOL    HW182271  13.865  12.742   4.203
93499SOL    HW282272  13.859  12.688   4.344
93500SOL     OW82273   5.460  12.829   0.613
93500SOL    HW182274   5.467  12.854   0.521
93500SOL    HW282275   5.534  12.770   0.628
93501SOL     OW82276   9.159   1.890   3.186
93501SOL    HW182277   9.225   1.910   3.252
93501SOL    HW282278   9.076   1.912   3.227
93502SOL     OW82279   7.855   1.467   6.332
93502SOL    HW182280   7.835   1.373   6.342
93502SOL    HW282281   7.917   1.470   6.259
93503SOL     OW82282   2.810  12.431  13.654
93503SOL    HW182283   2.810  12.435  13.559
93503SOL    HW282284   2.765  12.349  13.675
93504SOL     OW82285  13.971  11.489   3.708
93504SOL    HW182286  13.933  11.577   3.708
93504SOL    HW282287  13.896  11.430   3.702
93505SOL     OW82288  14.364   3.865   1.251
93505SOL    HW182289  14.300   3.794   1.256
93505SOL    HW282290  14.364   3.890   1.158
93506SOL     OW82291   4.366  14.755   1.413
93506SOL    HW182292   4.415  14.795   1.485
93506SOL    HW282293   4.409  14.670   1.400
93507SOL     OW82294  11.923   5.329   4.793
93507SOL    HW182295  11.949   5.369   4.710
93507SOL    HW282296  11.906   5.404   4.851
93508SOL     OW82297   8.724  12.462  12.113
93508SOL    HW182298   8.800  12.492  12.062
93508SOL    HW282299   8.740  12.495  12.202
93509SOL     OW82300   1.576   0.074   3.163
93509SOL    HW182301   1.566   0.056   3.069
93509SOL    HW282302   1.486   0.082   3.195
93510SOL     OW82303  12.202   7.014   1.561
93510SOL    HW182304  12.262   6.961   1.508
93510SOL    HW282305  12.159   6.951   1.619
93511SOL     OW82306  13.246   6.526  13.026
93511SOL    HW182307  13.176   6.590  13.010
93511SOL    HW282308  13.209   6.443  12.996
93512SOL     OW82309   6.541   3.810  13.414
93512SOL    HW182310   6.575   3.873  13.478
93512SOL    HW282311   6.477   3.860  13.363
93513SOL     OW82312   2.253   6.938  10.762
93513SOL    HW182313   2.223   6.964  10.849
93513SOL    HW282314   2.298   6.854  10.776
93514SOL     OW82315   4.829   2.907  10.343
93514SOL    HW182316   4.916   2.874  10.368
93514SOL    HW282317   4.826   2.896  10.248
93515SOL     OW82318   8.221  14.508   2.564
93515SOL    HW182319   8.234  14.538   2.654
93515SOL    HW282320   8.252  14.417   2.565
93516SOL     OW82321  13.773  10.634   9.024
93516SOL    HW182322  13.781  10.683   8.943
93516SOL    HW282323  13.682  10.606   9.026
93517SOL     OW82324  13.875   0.468   2.159
93517SOL    HW182325  13.925   0.398   2.201
93517SOL    HW282326  13.942   0.527   2.124
93518SOL     OW82327  10.879  13.191   8.513
93518SOL    HW182328  10.878  13.152   8.600
93518SOL    HW282329  10.854  13.282   8.527
93519SOL     OW82330  11.611  10.549   8.297
93519SOL    HW182331  11.685  10.499   8.331
93519SOL    HW282332  11.538  10.527   8.355
93520SOL     OW82333  11.451   0.534   1.748
93520SOL    HW182334  11.414   0.620   1.727
93520SOL    HW282335  11.382   0.490   1.798
93521SOL     OW82336   0.025   0.556   4.183
93521SOL    HW182337   0.030   0.558   4.087
93521SOL    HW282338   0.024   0.648   4.209
93522SOL     OW82339   7.988  12.833  12.552
93522SOL    HW182340   7.986  12.854  12.646
93522SOL    HW282341   7.897  12.838  12.524
93523SOL     OW82342  13.328   4.735   4.207
93523SOL    HW182343  13.291   4.815   4.245
93523SOL    HW282344  13.279   4.664   4.249
93524SOL     OW82345  12.020  10.502   4.184
93524SOL    HW182346  12.085  10.502   4.114
93524SOL    HW282347  11.998  10.409   4.196
93525SOL     OW82348  10.360  14.035   4.572
93525SOL    HW182349  10.273  14.004   4.548
93525SOL    HW282350  10.361  14.034   4.668
93526SOL     OW82351   4.553   3.330  10.296
93526SOL    HW182352   4.474   3.375  10.268
93526SOL    HW282353   4.592   3.296  10.216
93527SOL     OW82354   2.834   9.305   4.939
93527SOL    HW182355   2.843   9.210   4.944
93527SOL    HW282356   2.853   9.326   4.847
93528SOL     OW82357   2.258  10.378   6.539
93528SOL    HW182358   2.178  10.385   6.487
93528SOL    HW282359   2.325  10.419   6.484
93529SOL     OW82360   8.328   6.558   3.075
93529SOL    HW182361   8.258   6.508   3.117
93529SOL    HW282362   8.346   6.510   2.994
93530SOL     OW82363   5.455   9.012  11.401
93530SOL    HW182364   5.452   9.074  11.328
93530SOL    HW282365   5.372   9.024  11.447
93531SOL     OW82366   8.798  10.798  14.001
93531SOL    HW182367   8.817  10.871  14.060
93531SOL    HW282368   8.705  10.780  14.014
93532SOL     OW82369  12.977  12.751   4.504
93532SOL    HW182370  13.017  12.672   4.467
93532SOL    HW282371  12.886  12.748   4.474
93533SOL     OW82372  10.524  14.449  12.778
93533SOL    HW182373  10.532  14.388  12.851
93533SOL    HW282374  10.495  14.531  12.819
93534SOL     OW82375  11.431   2.565   0.314
93534SOL    HW182376  11.499   2.510   0.275
93534SOL    HW282377  11.380   2.504   0.368
93535SOL     OW82378   3.883   0.915   9.653
93535SOL    HW182379   3.931   0.835   9.634
93535SOL    HW282380   3.807   0.886   9.704
93536SOL     OW82381  11.831  12.926   1.416
93536SOL    HW182382  11.883  12.845   1.411
93536SOL    HW282383  11.774  12.913   1.491
93537SOL     OW82384   3.191   6.642   9.528
93537SOL    HW182385   3.109   6.667   9.486
93537SOL    HW282386   3.218   6.720   9.577
93538SOL     OW82387   3.824  12.181  10.534
93538SOL    HW182388   3.895  12.190  10.597
93538SOL    HW282389   3.864  12.138  10.459
93539SOL     OW82390   6.001   5.774   4.865
93539SOL    HW182391   5.919   5.745   4.904
93539SOL    HW282392   6.001   5.733   4.778
93540SOL     OW82393   8.350  12.941   8.887
93540SOL    HW182394   8.436  12.978   8.906
93540SOL    HW282395   8.362  12.846   8.896
93541SOL     OW82396   7.331   2.515   4.637
93541SOL    HW182397   7.374   2.455   4.697
93541SOL    HW282398   7.275   2.459   4.583
93542SOL     OW82399   0.286  13.816   2.692
93542SOL    HW182400   0.338  13.745   2.729
93542SOL    HW282401   0.280  13.795   2.599
93543SOL     OW82402   3.517   5.451   4.849
93543SOL    HW182403   3.546   5.542   4.848
93543SOL    HW282404   3.567   5.410   4.919
93544SOL     OW82405   7.956   6.848   5.446
93544SOL    HW182406   7.865   6.821   5.453
93544SOL    HW282407   7.954   6.924   5.387
93545SOL     OW82408  11.378   5.118   3.428
93545SOL    HW182409  11.314   5.117   3.357
93545SOL    HW282410  11.377   5.208   3.460
93546SOL     OW82411   2.410  10.605  11.444
93546SOL    HW182412   2.390  10.662  11.370
93546SOL    HW282413   2.326  10.596  11.490
93547SOL     OW82414   7.058  13.033   1.234
93547SOL    HW182415   7.027  12.943   1.240
93547SOL    HW282416   6.992  13.078   1.181
93548SOL     OW82417   7.724  10.701  12.751
93548SOL    HW182418   7.630  10.718  12.752
93548SOL    HW282419   7.761  10.772  12.697
93549SOL     OW82420  11.756  13.441   1.315
93549SOL    HW182421  11.799  13.384   1.378
93549SOL    HW282422  11.671  13.399   1.298
93550SOL     OW82423   3.790   5.427   8.837
93550SOL    HW182424   3.833   5.393   8.916
93550SOL    HW282425   3.775   5.519   8.857
93551SOL     OW82426  13.349   9.416   1.945
93551SOL    HW182427  13.329   9.499   1.902
93551SOL    HW282428  13.365   9.439   2.036
93552SOL     OW82429   4.868   1.662   6.130
93552SOL    HW182430   4.860   1.754   6.155
93552SOL    HW282431   4.872   1.614   6.213
93553SOL     OW82432   7.095   7.679   8.084
93553SOL    HW182433   7.090   7.731   8.004
93553SOL    HW282434   7.189   7.675   8.105
93554SOL     OW82435   6.752   2.631   8.413
93554SOL    HW182436   6.823   2.668   8.361
93554SOL    HW282437   6.679   2.690   8.400
93555SOL     OW82438   0.724   4.581   5.907
93555SOL    HW182439   0.719   4.539   5.821
93555SOL    HW282440   0.779   4.523   5.959
93556SOL     OW82441   6.886  11.167   6.571
93556SOL    HW182442   6.803  11.128   6.597
93556SOL    HW282443   6.935  11.176   6.653
93557SOL     OW82444   3.491  13.007  13.904
93557SOL    HW182445   3.404  13.006  13.943
93557SOL    HW282446   3.519  13.098  13.909
93558SOL     OW82447   6.850  10.594  13.612
93558SOL    HW182448   6.902  10.547  13.547
93558SOL    HW282449   6.760  10.569  13.594
93559SOL     OW82450   8.265  13.419  12.214
93559SOL    HW182451   8.236  13.329  12.195
93559SOL    HW282452   8.359  13.417  12.199
93560SOL     OW82453   8.024   4.179   5.822
93560SOL    HW182454   7.967   4.140   5.889
93560SOL    HW282455   8.093   4.223   5.872
93561SOL     OW82456   7.404  11.886   4.207
93561SOL    HW182457   7.396  11.793   4.231
93561SOL    HW282458   7.481  11.916   4.255
93562SOL     OW82459   7.226   1.070  12.493
93562SOL    HW182460   7.149   1.121  12.469
93562SOL    HW282461   7.269   1.050  12.409
93563SOL     OW82462   1.971   7.709   1.920
93563SOL    HW182463   2.019   7.734   1.841
93563SOL    HW282464   2.019   7.634   1.954
93564SOL     OW82465   7.262   4.118  12.133
93564SOL    HW182466   7.351   4.096  12.104
93564SOL    HW282467   7.274   4.182  12.202
93565SOL     OW82468   5.435   4.224  12.520
93565SOL    HW182469   5.521   4.187  12.540
93565SOL    HW282470   5.454   4.311  12.485
93566SOL     OW82471   3.228  10.190   5.977
93566SOL    HW182472   3.199  10.116   5.923
93566SOL    HW282473   3.318  10.168   6.002
93567SOL     OW82474  12.099   7.340  12.469
93567SOL    HW182475  12.164   7.289  12.518
93567SOL    HW282476  12.035   7.276  12.439
93568SOL     OW82477  13.475   0.387   3.221
93568SOL    HW182478  13.383   0.378   3.247
93568SOL    HW282479  13.476   0.365   3.128
93569SOL     OW82480   6.467  10.518   8.975
93569SOL    HW182481   6.524  10.591   8.950
93569SOL    HW282482   6.407  10.507   8.901
93570SOL     OW82483   5.747   3.817   8.376
93570SOL    HW182484   5.689   3.750   8.412
93570SOL    HW282485   5.831   3.802   8.420
93571SOL     OW82486   1.197   7.854   3.331
93571SOL    HW182487   1.147   7.777   3.301
93571SOL    HW282488   1.206   7.908   3.252
93572SOL     OW82489   7.665  11.063   3.771
93572SOL    HW182490   7.631  11.005   3.839
93572SOL    HW282491   7.744  11.102   3.809
93573SOL     OW82492   6.174   8.744   3.663
93573SOL    HW182493   6.265   8.728   3.639
93573SOL    HW282494   6.149   8.669   3.717
93574SOL     OW82495   6.492  13.402  13.457
93574SOL    HW182496   6.531  13.320  13.426
93574SOL    HW282497   6.399  13.383  13.465
93575SOL     OW82498   4.097  13.250  13.346
93575SOL    HW182499   4.138  13.319  13.399
93575SOL    HW282500   4.127  13.168  13.386
93576SOL     OW82501  11.503   4.477   3.717
93576SOL    HW182502  11.494   4.573   3.715
93576SOL    HW282503  11.535   4.458   3.805
93577SOL     OW82504   4.863   9.036   6.118
93577SOL    HW182505   4.828   8.948   6.103
93577SOL    HW282506   4.958   9.025   6.116
93578SOL     OW82507   8.976   2.577  12.159
93578SOL    HW182508   8.957   2.483  12.160
93578SOL    HW282509   9.050   2.587  12.219
93579SOL     OW82510  14.832   8.688   1.185
93579SOL    HW182511   0.041   8.649   1.201
93579SOL    HW282512  14.772   8.613   1.188
93580SOL     OW82513   5.736   7.081   0.977
93580SOL    HW182514   5.828   7.056   0.965
93580SOL    HW282515   5.727   7.162   0.927
93581SOL     OW82516  10.383   7.994   9.405
93581SOL    HW182517  10.398   7.963   9.494
93581SOL    HW282518  10.355   7.917   9.357
93582SOL     OW82519  12.857   4.833  10.093
93582SOL    HW182520  12.833   4.910  10.146
93582SOL    HW282521  12.785   4.771  10.108
93583SOL     OW82522   7.177  10.943  10.712
93583SOL    HW182523   7.271  10.934  10.700
93583SOL    HW282524   7.155  10.878  10.779
93584SOL     OW82525  10.456   8.018   2.679
93584SOL    HW182526  10.517   8.044   2.748
93584SOL    HW282527  10.452   7.922   2.685
93585SOL     OW82528   6.456   6.280   5.585
93585SOL    HW182529   6.525   6.215   5.576
93585SOL    HW282530   6.414   6.283   5.499
93586SOL     OW82531   1.256   2.212  14.134
93586SOL    HW182532   1.302   2.160  14.069
93586SOL    HW282533   1.170   2.230  14.095
93587SOL     OW82534   5.764  10.062  14.551
93587SOL    HW182535   5.795  10.099  14.469
93587SOL    HW282536   5.669  10.052  14.538
93588SOL     OW82537   7.258  13.957   4.982
93588SOL    HW182538   7.279  13.905   4.904
93588SOL    HW282539   7.241  14.045   4.948
93589SOL     OW82540   3.473   6.991   3.792
93589SOL    HW182541   3.420   7.018   3.867
93589SOL    HW282542   3.562   6.984   3.827
93590SOL     OW82543   6.575  13.000   7.775
93590SOL    HW182544   6.659  13.024   7.736
93590SOL    HW282545   6.509  13.030   7.712
93591SOL     OW82546  14.108   5.906   7.278
93591SOL    HW182547  14.178   5.951   7.231
93591SOL    HW282548  14.044   5.974   7.298
93592SOL     OW82549  11.596   7.879   5.889
93592SOL    HW182550  11.570   7.971   5.891
93592SOL    HW282551  11.612   7.857   5.981
93593SOL     OW82552   4.184   1.400  12.722
93593SOL    HW182553   4.129   1.473  12.752
93593SOL    HW282554   4.260   1.443  12.683
93594SOL     OW82555  12.279  11.855   9.424
93594SOL    HW182556  12.227  11.883   9.349
93594SOL    HW282557  12.274  11.928   9.486
93595SOL     OW82558   3.115   6.703  10.145
93595SOL    HW182559   3.206   6.675  10.144
93595SOL    HW282560   3.066   6.625  10.171
93596SOL     OW82561   8.465   2.987   6.116
93596SOL    HW182562   8.455   3.079   6.089
93596SOL    HW282563   8.503   2.993   6.204
93597SOL     OW82564   5.673   8.071  12.676
93597SOL    HW182565   5.607   8.071  12.607
93597SOL    HW282566   5.701   8.162  12.682
93598SOL     OW82567   7.514   4.569   8.866
93598SOL    HW182568   7.488   4.599   8.953
93598SOL    HW282569   7.610   4.578   8.866
93599SOL     OW82570   4.576   5.091   4.927
93599SOL    HW182571   4.552   5.049   4.844
93599SOL    HW282572   4.584   5.184   4.905
93600SOL     OW82573  14.457  13.746   6.809
93600SOL    HW182574  14.521  13.786   6.751
93600SOL    HW282575  14.402  13.693   6.752
93601SOL     OW82576   6.792   1.764   5.586
93601SOL    HW182577   6.791   1.806   5.672
93601SOL    HW282578   6.847   1.686   5.598
93602SOL     OW82579   6.680  14.759  10.414
93602SOL    HW182580   6.596  14.715  10.425
93602SOL    HW282581   6.708  14.734  10.326
93603SOL     OW82582   2.196   4.881   6.552
93603SOL    HW182583   2.263   4.853   6.490
93603SOL    HW282584   2.239   4.947   6.606
93604SOL     OW82585   5.077   3.515   1.718
93604SOL    HW182586   5.162   3.554   1.736
93604SOL    HW282587   5.091   3.421   1.728
93605SOL     OW82588  10.322  11.666  11.531
93605SOL    HW182589  10.345  11.636  11.619
93605SOL    HW282590  10.397  11.719  11.504
93606SOL     OW82591   0.313  12.081   0.504
93606SOL    HW182592   0.331  12.139   0.578
93606SOL    HW282593   0.386  12.019   0.503
93607SOL     OW82594   2.904  12.152   3.042
93607SOL    HW182595   2.962  12.228   3.042
93607SOL    HW282596   2.846  12.166   3.116
93608SOL     OW82597   2.860   6.847   6.032
93608SOL    HW182598   2.806   6.924   6.048
93608SOL    HW282599   2.926   6.850   6.101
93609SOL     OW82600  14.248  13.734  11.895
93609SOL    HW182601  14.257  13.641  11.874
93609SOL    HW282602  14.337  13.768  11.892
93610SOL     OW82603  13.127   1.997   1.595
93610SOL    HW182604  13.096   1.979   1.507
93610SOL    HW282605  13.079   1.935   1.651
93611SOL     OW82606   1.644   3.565  13.329
93611SOL    HW182607   1.704   3.624  13.375
93611SOL    HW282608   1.558   3.585  13.364
93612SOL     OW82609  11.116   9.664   3.966
93612SOL    HW182610  11.090   9.581   4.006
93612SOL    HW282611  11.048   9.682   3.902
93613SOL     OW82612   9.124   1.920   7.436
93613SOL    HW182613   9.058   1.989   7.439
93613SOL    HW282614   9.187   1.949   7.371
93614SOL     OW82615  14.611  11.026   4.671
93614SOL    HW182616  14.634  11.043   4.762
93614SOL    HW282617  14.617  10.931   4.663
93615SOL     OW82618  11.030   4.565   7.875
93615SOL    HW182619  11.102   4.615   7.837
93615SOL    HW282620  10.952   4.598   7.830
93616SOL     OW82621   3.247   8.488   2.001
93616SOL    HW182622   3.219   8.577   2.024
93616SOL    HW282623   3.297   8.459   2.078
93617SOL     OW82624  13.737   5.083   6.398
93617SOL    HW182625  13.715   5.035   6.478
93617SOL    HW282626  13.676   5.049   6.332
93618SOL     OW82627   1.761   4.941  11.446
93618SOL    HW182628   1.816   4.869  11.476
93618SOL    HW282629   1.671   4.908  11.455
93619SOL     OW82630  14.392   8.325   3.841
93619SOL    HW182631  14.417   8.240   3.803
93619SOL    HW282632  14.300   8.314   3.865
93620SOL     OW82633  10.288   2.778  10.626
93620SOL    HW182634  10.255   2.744  10.709
93620SOL    HW282635  10.344   2.852  10.652
93621SOL     OW82636   5.898   0.577   0.729
93621SOL    HW182637   5.818   0.591   0.679
93621SOL    HW282638   5.914   0.661   0.773
93622SOL     OW82639   2.851   2.482  10.819
93622SOL    HW182640   2.946   2.495  10.825
93622SOL    HW282641   2.815   2.571  10.826
93623SOL     OW82642   8.688   4.764   8.962
93623SOL    HW182643   8.607   4.811   8.980
93623SOL    HW282644   8.757   4.817   9.001
93624SOL     OW82645  11.220   4.202   2.759
93624SOL    HW182646  11.277   4.260   2.810
93624SOL    HW282647  11.211   4.124   2.814
93625SOL     OW82648  12.555   8.524   3.495
93625SOL    HW182649  12.641   8.552   3.466
93625SOL    HW282650  12.514   8.602   3.532
93626SOL     OW82651  10.614  12.482   4.977
93626SOL    HW182652  10.599  12.426   5.053
93626SOL    HW282653  10.643  12.422   4.908
93627SOL     OW82654   3.961  14.091  12.837
93627SOL    HW182655   3.965  14.051  12.751
93627SOL    HW282656   3.931  14.180  12.821
93628SOL     OW82657   2.132  12.712   6.047
93628SOL    HW182658   2.167  12.791   6.007
93628SOL    HW282659   2.200  12.682   6.106
93629SOL     OW82660  10.773   0.515   0.062
93629SOL    HW182661  10.810   0.507  14.852
93629SOL    HW282662  10.781   0.609   0.083
93630SOL     OW82663   6.858   2.974  12.761
93630SOL    HW182664   6.841   2.932  12.676
93630SOL    HW282665   6.859   2.901  12.823
93631SOL     OW82666   4.875   6.946   8.752
93631SOL    HW182667   4.830   6.862   8.753
93631SOL    HW282668   4.805   7.010   8.763
93632SOL     OW82669   8.197   9.430  11.170
93632SOL    HW182670   8.202   9.525  11.177
93632SOL    HW282671   8.209   9.398  11.259
93633SOL     OW82672   1.077   2.285   7.685
93633SOL    HW182673   1.150   2.230   7.714
93633SOL    HW282674   1.118   2.368   7.659
93634SOL     OW82675   3.619   8.773  12.635
93634SOL    HW182676   3.542   8.826  12.656
93634SOL    HW282677   3.626   8.778  12.540
93635SOL     OW82678   9.329   2.975   5.088
93635SOL    HW182679   9.300   2.945   5.002
93635SOL    HW282680   9.311   3.069   5.089
93636SOL     OW82681   4.587   9.763   4.060
93636SOL    HW182682   4.585   9.698   3.989
93636SOL    HW282683   4.642   9.834   4.026
93637SOL     OW82684  12.437   3.878   2.780
93637SOL    HW182685  12.474   3.799   2.819
93637SOL    HW282686  12.363   3.901   2.837
93638SOL     OW82687  12.319   6.274  10.407
93638SOL    HW182688  12.353   6.346  10.354
93638SOL    HW282689  12.247   6.313  10.457
93639SOL     OW82690   5.029   0.876  12.004
93639SOL    HW182691   4.949   0.901  11.958
93639SOL    HW282692   5.027   0.781  12.007
93640SOL     OW82693   9.793  13.579   7.605
93640SOL    HW182694   9.856  13.520   7.563
93640SOL    HW282695   9.846  13.633   7.664
93641SOL     OW82696   8.218   6.607   4.712
93641SOL    HW182697   8.237   6.610   4.805
93641SOL    HW282698   8.278   6.670   4.673
93642SOL     OW82699   4.611   4.512   0.445
93642SOL    HW182700   4.521   4.479   0.435
93642SOL    HW282701   4.608   4.601   0.409
93643SOL     OW82702   1.820   6.570   2.864
93643SOL    HW182703   1.781   6.600   2.782
93643SOL    HW282704   1.812   6.474   2.860
93644SOL     OW82705   4.398   8.413  11.224
93644SOL    HW182706   4.391   8.424  11.130
93644SOL    HW282707   4.442   8.492  11.255
93645SOL     OW82708  14.727   4.582   8.513
93645SOL    HW182709  14.656   4.645   8.507
93645SOL    HW282710  14.718   4.528   8.434
93646SOL     OW82711   1.127   6.092  11.935
93646SOL    HW182712   1.161   6.041  12.008
93646SOL    HW282713   1.047   6.046  11.908
93647SOL     OW82714  10.760  11.280   3.148
93647SOL    HW182715  10.730  11.198   3.109
93647SOL    HW282716  10.771  11.260   3.241
93648SOL     OW82717   4.006   0.488  12.351
93648SOL    HW182718   4.100   0.481  12.364
93648SOL    HW282719   3.971   0.405  12.382
93649SOL     OW82720  10.293   7.413  12.702
93649SOL    HW182721  10.375   7.371  12.727
93649SOL    HW282722  10.316   7.504  12.686
93650SOL     OW82723   8.325   7.588   0.327
93650SOL    HW182724   8.253   7.585   0.264
93650SOL    HW282725   8.283   7.568   0.411
93651SOL     OW82726   4.217  13.289  14.535
93651SOL    HW182727   4.121  13.290  14.533
93651SOL    HW282728   4.238  13.213  14.589
93652SOL     OW82729   6.201   9.921  13.158
93652SOL    HW182730   6.270   9.889  13.101
93652SOL    HW282731   6.169  10.001  13.116
93653SOL     OW82732  11.335   1.252  10.577
93653SOL    HW182733  11.381   1.322  10.624
93653SOL    HW282734  11.336   1.281  10.485
93654SOL     OW82735  10.390   1.190   2.811
93654SOL    HW182736  10.377   1.280   2.840
93654SOL    HW282737  10.343   1.137   2.876
93655SOL     OW82738  10.393   7.562   6.526
93655SOL    HW182739  10.370   7.653   6.509
93655SOL    HW282740  10.350   7.513   6.456
93656SOL     OW82741  12.085   8.826   9.682
93656SOL    HW182742  12.174   8.853   9.706
93656SOL    HW282743  12.092   8.794   9.593
93657SOL     OW82744   7.905   7.604   7.393
93657SOL    HW182745   7.949   7.612   7.477
93657SOL    HW282746   7.842   7.533   7.405
93658SOL     OW82747  11.198   3.133   4.875
93658SOL    HW182748  11.228   3.083   4.800
93658SOL    HW282749  11.242   3.094   4.950
93659SOL     OW82750   8.385  14.687   7.879
93659SOL    HW182751   8.385  14.728   7.792
93659SOL    HW282752   8.333  14.607   7.868
93660SOL     OW82753   8.324  12.130   2.483
93660SOL    HW182754   8.389  12.077   2.436
93660SOL    HW282755   8.307  12.080   2.563
93661SOL     OW82756   3.741   9.446   3.139
93661SOL    HW182757   3.807   9.381   3.164
93661SOL    HW282758   3.729   9.500   3.218
93662SOL     OW82759   6.032   7.647   4.194
93662SOL    HW182760   6.071   7.577   4.246
93662SOL    HW282761   6.079   7.726   4.220
93663SOL     OW82762   2.890   3.811   0.210
93663SOL    HW182763   2.815   3.775   0.164
93663SOL    HW282764   2.871   3.797   0.303
93664SOL     OW82765  10.039   5.928   2.073
93664SOL    HW182766  10.117   5.913   2.127
93664SOL    HW282767  10.004   5.841   2.057
93665SOL     OW82768  11.311   7.686   4.434
93665SOL    HW182769  11.395   7.656   4.468
93665SOL    HW282770  11.251   7.676   4.508
93666SOL     OW82771   8.065   2.423  10.349
93666SOL    HW182772   7.992   2.440  10.290
93666SOL    HW282773   8.113   2.352  10.309
93667SOL     OW82774   8.786  11.383  14.772
93667SOL    HW182775   8.724  11.450  14.801
93667SOL    HW282776   8.837  11.362  14.851
93668SOL     OW82777   8.512  13.439   9.963
93668SOL    HW182778   8.575  13.396  10.021
93668SOL    HW282779   8.567  13.488   9.901
93669SOL     OW82780  11.922   1.221   5.463
93669SOL    HW182781  11.923   1.132   5.497
93669SOL    HW282782  11.887   1.274   5.535
93670SOL     OW82783  14.380  12.840   3.274
93670SOL    HW182784  14.403  12.932   3.287
93670SOL    HW282785  14.285  12.837   3.285
93671SOL     OW82786   8.548   4.452  12.087
93671SOL    HW182787   8.534   4.488  12.175
93671SOL    HW282788   8.474   4.392  12.074
93672SOL     OW82789   1.705   0.289   8.564
93672SOL    HW182790   1.728   0.380   8.585
93672SOL    HW282791   1.641   0.265   8.631
93673SOL     OW82792   2.892  13.847   1.876
93673SOL    HW182793   2.897  13.940   1.854
93673SOL    HW282794   2.820  13.841   1.938
93674SOL     OW82795   3.666   4.437  14.122
93674SOL    HW182796   3.740   4.452  14.063
93674SOL    HW282797   3.706   4.409  14.204
93675SOL     OW82798  10.128   7.908   5.352
93675SOL    HW182799  10.137   7.961   5.432
93675SOL    HW282800  10.204   7.850   5.353
93676SOL     OW82801   2.169  12.142   6.666
93676SOL    HW182802   2.226  12.111   6.736
93676SOL    HW282803   2.164  12.237   6.679
93677SOL     OW82804   5.395   4.456   3.593
93677SOL    HW182805   5.374   4.408   3.512
93677SOL    HW282806   5.490   4.451   3.600
93678SOL     OW82807   4.139   1.753   4.455
93678SOL    HW182808   4.073   1.810   4.496
93678SOL    HW282809   4.118   1.755   4.362
93679SOL     OW82810   5.027   5.949  14.182
93679SOL    HW182811   4.965   5.966  14.112
93679SOL    HW282812   5.038   6.034  14.226
93680SOL     OW82813   6.181   2.336   5.238
93680SOL    HW182814   6.131   2.270   5.190
93680SOL    HW282815   6.218   2.391   5.169
93681SOL     OW82816   3.171  10.292   4.285
93681SOL    HW182817   3.186  10.324   4.374
93681SOL    HW282818   3.229  10.215   4.278
93682SOL     OW82819  13.942  11.824   9.916
93682SOL    HW182820  14.024  11.803   9.873
93682SOL    HW282821  13.938  11.920   9.915
93683SOL     OW82822   3.073   5.524  11.760
93683SOL    HW182823   3.145   5.463  11.745
93683SOL    HW282824   3.049   5.510  11.851
93684SOL     OW82825   2.332  13.890   4.813
93684SOL    HW182826   2.390  13.899   4.738
93684SOL    HW282827   2.297  13.801   4.805
93685SOL     OW82828  14.333   6.278   3.034
93685SOL    HW182829  14.257   6.285   3.092
93685SOL    HW282830  14.375   6.364   3.040
93686SOL     OW82831   1.344   7.221   8.075
93686SOL    HW182832   1.399   7.152   8.111
93686SOL    HW282833   1.321   7.275   8.151
93687SOL     OW82834  14.300   4.938  10.033
93687SOL    HW182835  14.256   4.876   9.976
93687SOL    HW282836  14.330   5.008   9.975
93688SOL     OW82837  14.387   8.051   3.206
93688SOL    HW182838  14.458   8.023   3.148
93688SOL    HW282839  14.362   8.137   3.172
93689SOL     OW82840   5.416   6.710   5.956
93689SOL    HW182841   5.392   6.800   5.980
93689SOL    HW282842   5.499   6.694   6.002
93690SOL     OW82843  13.113   8.599   4.930
93690SOL    HW182844  13.164   8.518   4.927
93690SOL    HW282845  13.087   8.614   4.839
93691SOL     OW82846   9.675  12.006   1.672
93691SOL    HW182847   9.611  12.001   1.743
93691SOL    HW282848   9.646  12.082   1.620
93692SOL     OW82849  13.102   5.699   9.380
93692SOL    HW182850  13.051   5.775   9.349
93692SOL    HW282851  13.170   5.688   9.312
93693SOL     OW82852  11.690   8.519  10.344
93693SOL    HW182853  11.617   8.464  10.315
93693SOL    HW282854  11.717   8.481  10.428
93694SOL     OW82855  13.661   4.611   2.762
93694SOL    HW182856  13.681   4.569   2.846
93694SOL    HW282857  13.729   4.677   2.752
93695SOL     OW82858   3.428   5.641   8.220
93695SOL    HW182859   3.473   5.565   8.183
93695SOL    HW282860   3.432   5.707   8.151
93696SOL     OW82861   0.365   3.063   0.361
93696SOL    HW182862   0.393   3.148   0.326
93696SOL    HW282863   0.307   3.085   0.434
93697SOL     OW82864   3.685   2.485  11.909
93697SOL    HW182865   3.640   2.564  11.937
93697SOL    HW282866   3.617   2.430  11.871
93698SOL     OW82867   1.912   2.600   3.140
93698SOL    HW182868   1.934   2.693   3.131
93698SOL    HW282869   1.844   2.585   3.074
93699SOL     OW82870   1.869  10.304   2.667
93699SOL    HW182871   1.827  10.367   2.725
93699SOL    HW282872   1.839  10.327   2.579
93700SOL     OW82873   5.123   1.621   6.991
93700SOL    HW182874   5.155   1.697   6.943
93700SOL    HW282875   5.067   1.658   7.059
93701SOL     OW82876   2.790  11.844  13.868
93701SOL    HW182877   2.763  11.841  13.960
93701SOL    HW282878   2.717  11.803  13.821
93702SOL     OW82879  12.899   2.062   2.810
93702SOL    HW182880  12.848   2.036   2.733
93702SOL    HW282881  12.990   2.041   2.787
93703SOL     OW82882  14.126   2.751   8.139
93703SOL    HW182883  14.129   2.695   8.218
93703SOL    HW282884  14.157   2.694   8.069
93704SOL     OW82885   1.948   3.422   0.319
93704SOL    HW182886   1.907   3.344   0.282
93704SOL    HW282887   2.040   3.397   0.330
93705SOL     OW82888   2.287   8.482   8.340
93705SOL    HW182889   2.377   8.452   8.324
93705SOL    HW282890   2.257   8.514   8.255
93706SOL     OW82891   9.599  12.423   9.576
93706SOL    HW182892   9.505  12.436   9.582
93706SOL    HW282893   9.633  12.454   9.660
93707SOL     OW82894   7.500   5.978   8.465
93707SOL    HW182895   7.411   5.970   8.500
93707SOL    HW282896   7.557   5.972   8.542
93708SOL     OW82897   7.813  14.630  12.911
93708SOL    HW182898   7.737  14.618  12.854
93708SOL    HW282899   7.786  14.594  12.995
93709SOL     OW82900   1.527   2.637   3.323
93709SOL    HW182901   1.576   2.710   3.360
93709SOL    HW282902   1.438   2.670   3.313
93710SOL     OW82903   5.408   8.162   2.843
93710SOL    HW182904   5.360   8.234   2.883
93710SOL    HW282905   5.350   8.086   2.852
93711SOL     OW82906   8.846   9.074   7.561
93711SOL    HW182907   8.760   9.041   7.533
93711SOL    HW282908   8.898   9.075   7.481
93712SOL     OW82909   2.871   7.266  12.526
93712SOL    HW182910   2.910   7.220  12.453
93712SOL    HW282911   2.848   7.197  12.588
93713SOL     OW82912   1.185  12.273   7.043
93713SOL    HW182913   1.277  12.248   7.050
93713SOL    HW282914   1.184  12.341   6.975
93714SOL     OW82915  13.107  13.324  14.429
93714SOL    HW182916  13.197  13.337  14.399
93714SOL    HW282917  13.066  13.271  14.360
93715SOL     OW82918   5.383   0.813   9.769
93715SOL    HW182919   5.390   0.767   9.852
93715SOL    HW282920   5.397   0.905   9.791
93716SOL     OW82921   7.837  14.861  12.097
93716SOL    HW182922   7.773  14.805  12.142
93716SOL    HW282923   7.821   0.071  12.134
93717SOL     OW82924   4.259  14.031  12.268
93717SOL    HW182925   4.304  14.099  12.318
93717SOL    HW282926   4.319  13.956  12.270
93718SOL     OW82927  13.843   6.677  14.381
93718SOL    HW182928  13.832   6.750  14.319
93718SOL    HW282929  13.757   6.668  14.423
93719SOL     OW82930  12.105   4.913   1.803
93719SOL    HW182931  12.158   4.939   1.878
93719SOL    HW282932  12.146   4.833   1.771
93720SOL     OW82933  10.914   5.946  11.635
93720SOL    HW182934  10.970   5.911  11.705
93720SOL    HW282935  10.847   5.996  11.680
93721SOL     OW82936   6.832   2.206  14.036
93721SOL    HW182937   6.823   2.221  13.941
93721SOL    HW282938   6.883   2.280  14.067
93722SOL     OW82939   1.925  14.020   8.564
93722SOL    HW182940   1.956  13.953   8.503
93722SOL    HW282941   1.964  13.996   8.648
93723SOL     OW82942   3.775   0.910   4.469
93723SOL    HW182943   3.777   0.972   4.542
93723SOL    HW282944   3.719   0.951   4.403
93724SOL     OW82945   8.477  14.176   9.771
93724SOL    HW182946   8.472  14.083   9.794
93724SOL    HW282947   8.539  14.179   9.698
93725SOL     OW82948   1.575   8.221   8.627
93725SOL    HW182949   1.519   8.160   8.579
93725SOL    HW282950   1.638   8.251   8.562
93726SOL     OW82951   1.689   4.066  11.579
93726SOL    HW182952   1.774   4.105  11.599
93726SOL    HW282953   1.676   4.082  11.486
93727SOL     OW82954   1.873   7.992   1.584
93727SOL    HW182955   1.852   8.021   1.673
93727SOL    HW282956   1.934   7.920   1.595
93728SOL     OW82957   8.037   1.107   1.294
93728SOL    HW182958   7.990   1.186   1.320
93728SOL    HW282959   8.115   1.106   1.349
93729SOL     OW82960  13.834   1.682  14.436
93729SOL    HW182961  13.827   1.740  14.360
93729SOL    HW282962  13.803   1.734  14.509
93730SOL     OW82963   9.702   9.555   0.015
93730SOL    HW182964   9.636   9.486   0.005
93730SOL    HW282965   9.737   9.541   0.103
93731SOL     OW82966   4.055   5.408  11.391
93731SOL    HW182967   4.042   5.319  11.359
93731SOL    HW282968   3.979   5.457  11.358
93732SOL     OW82969  11.233  14.538  14.353
93732SOL    HW182970  11.268  14.491  14.428
93732SOL    HW282971  11.171  14.476  14.314
93733SOL     OW82972   7.064   7.067   8.844
93733SOL    HW182973   7.089   7.051   8.753
93733SOL    HW282974   7.073   7.162   8.855
93734SOL     OW82975  13.072  10.432   6.593
93734SOL    HW182976  13.006  10.502   6.598
93734SOL    HW282977  13.060  10.394   6.506
93735SOL     OW82978  11.148  14.504   6.351
93735SOL    HW182979  11.226  14.471   6.307
93735SOL    HW282980  11.077  14.489   6.289
93736SOL     OW82981   1.994   8.704   4.118
93736SOL    HW182982   2.015   8.649   4.043
93736SOL    HW282983   2.077   8.744   4.144
93737SOL     OW82984  10.646   3.340  10.639
93737SOL    HW182985  10.707   3.413  10.641
93737SOL    HW282986  10.679   3.283  10.569
93738SOL     OW82987   9.017   9.899   5.069
93738SOL    HW182988   9.098   9.926   5.113
93738SOL    HW282989   9.038   9.815   5.029
93739SOL     OW82990   0.694   4.819   9.890
93739SOL    HW182991   0.662   4.908   9.872
93739SOL    HW282992   0.781   4.817   9.850
93740SOL     OW82993   6.916  14.538   4.783
93740SOL    HW182994   6.976  14.489   4.840
93740SOL    HW282995   6.875  14.472   4.728
93741SOL     OW82996   8.666   0.079  10.735
93741SOL    HW182997   8.730   0.083  10.664
93741SOL    HW282998   8.643  14.864  10.741
93742SOL     OW82999   5.848   5.248   5.692
93742SOL    HW183000   5.778   5.307   5.664
93742SOL    HW283001   5.873   5.200   5.613
93743SOL     OW83002  11.077   3.854  13.072
93743SOL    HW183003  11.100   3.822  12.984
93743SOL    HW283004  10.984   3.831  13.081
93744SOL     OW83005   2.112   2.015  14.178
93744SOL    HW183006   2.022   2.039  14.154
93744SOL    HW283007   2.101   1.946  14.243
93745SOL     OW83008   6.809  11.948   8.815
93745SOL    HW183009   6.866  11.874   8.836
93745SOL    HW283010   6.802  11.998   8.897
93746SOL     OW83011   7.045  13.697   8.346
93746SOL    HW183012   7.076  13.606   8.350
93746SOL    HW283013   6.952  13.691   8.367
93747SOL     OW83014  12.600  12.072   2.732
93747SOL    HW183015  12.653  12.026   2.797
93747SOL    HW283016  12.625  12.031   2.649
93748SOL     OW83017  10.390   1.773   0.582
93748SOL    HW183018  10.378   1.810   0.670
93748SOL    HW283019  10.432   1.689   0.597
93749SOL     OW83020  11.456   5.781   4.957
93749SOL    HW183021  11.507   5.709   4.995
93749SOL    HW283022  11.508   5.810   4.882
93750SOL     OW83023   9.041   5.670   7.050
93750SOL    HW183024   8.991   5.655   6.969
93750SOL    HW283025   9.121   5.620   7.037
93751SOL     OW83026   4.662   2.248   3.714
93751SOL    HW183027   4.748   2.276   3.681
93751SOL    HW283028   4.651   2.159   3.680
93752SOL     OW83029   9.697   7.382   9.911
93752SOL    HW183030   9.667   7.472   9.910
93752SOL    HW283031   9.655   7.342   9.834
93753SOL     OW83032   2.794   8.906   4.164
93753SOL    HW183033   2.818   8.920   4.256
93753SOL    HW283034   2.796   8.993   4.125
93754SOL     OW83035  13.294  14.148   8.497
93754SOL    HW183036  13.228  14.191   8.443
93754SOL    HW283037  13.309  14.208   8.570
93755SOL     OW83038   3.835   1.216   1.076
93755SOL    HW183039   3.911   1.178   1.121
93755SOL    HW283040   3.769   1.147   1.078
93756SOL     OW83041  10.813   4.427   4.802
93756SOL    HW183042  10.831   4.475   4.721
93756SOL    HW283043  10.732   4.467   4.835
93757SOL     OW83044   2.829   3.987   1.726
93757SOL    HW183045   2.879   3.959   1.803
93757SOL    HW283046   2.856   4.077   1.710
93758SOL     OW83047   6.686  12.177   5.828
93758SOL    HW183048   6.734  12.259   5.837
93758SOL    HW283049   6.596  12.198   5.852
93759SOL     OW83050   0.750   9.556   9.425
93759SOL    HW183051   0.714   9.606   9.498
93759SOL    HW283052   0.763   9.468   9.461
93760SOL     OW83053  14.203   5.444   2.773
93760SOL    HW183054  14.239   5.455   2.685
93760SOL    HW283055  14.256   5.375   2.813
93761SOL     OW83056   5.958  11.361   5.818
93761SOL    HW183057   5.890  11.294   5.824
93761SOL    HW283058   5.996  11.364   5.906
93762SOL     OW83059   5.808   9.585   5.980
93762SOL    HW183060   5.868   9.512   5.994
93762SOL    HW283061   5.722   9.545   5.972
93763SOL     OW83062   5.506   4.356   0.818
93763SOL    HW183063   5.473   4.395   0.737
93763SOL    HW283064   5.597   4.387   0.823
93764SOL     OW83065   2.311  11.995  13.616
93764SOL    HW183066   2.295  12.086  13.642
93764SOL    HW283067   2.350  12.002  13.528
93765SOL     OW83068   4.533   7.035  11.813
93765SOL    HW183069   4.586   7.045  11.735
93765SOL    HW283070   4.595   7.015  11.883
93766SOL     OW83071  14.836   7.522  13.563
93766SOL    HW183072  14.817   7.577  13.639
93766SOL    HW283073   0.054   7.526  13.554
93767SOL     OW83074  14.565  12.853   9.452
93767SOL    HW183075  14.482  12.812   9.427
93767SOL    HW283076  14.597  12.800   9.526
93768SOL     OW83077  12.559  10.612   6.072
93768SOL    HW183078  12.591  10.639   5.985
93768SOL    HW283079  12.474  10.655   6.081
93769SOL     OW83080   6.859   5.075   6.725
93769SOL    HW183081   6.917   5.131   6.776
93769SOL    HW283082   6.817   5.135   6.663
93770SOL     OW83083  12.377   0.008   2.853
93770SOL    HW183084  12.287  14.853   2.862
93770SOL    HW283085  12.405   0.027   2.942
93771SOL     OW83086  11.642  11.139   3.566
93771SOL    HW183087  11.704  11.066   3.573
93771SOL    HW283088  11.635  11.156   3.472
93772SOL     OW83089   3.796   7.558   2.413
93772SOL    HW183090   3.800   7.525   2.323
93772SOL    HW283091   3.772   7.650   2.404
93773SOL     OW83092   2.555  11.454  10.451
93773SOL    HW183093   2.556  11.420  10.362
93773SOL    HW283094   2.532  11.378  10.505
93774SOL     OW83095   8.168   4.027   1.951
93774SOL    HW183096   8.115   4.100   1.983
93774SOL    HW283097   8.258   4.061   1.951
93775SOL     OW83098  14.772   1.220   8.422
93775SOL    HW183099  14.740   1.191   8.336
93775SOL    HW283100  14.796   1.311   8.409
93776SOL     OW83101   8.365   5.842  14.092
93776SOL    HW183102   8.289   5.888  14.056
93776SOL    HW283103   8.332   5.798  14.170
93777SOL     OW83104  13.736  11.514   8.643
93777SOL    HW183105  13.735  11.454   8.718
93777SOL    HW283106  13.733  11.601   8.681
93778SOL     OW83107  11.290  11.238  12.910
93778SOL    HW183108  11.244  11.322  12.912
93778SOL    HW283109  11.313  11.220  13.001
93779SOL     OW83110   4.817  14.454  14.166
93779SOL    HW183111   4.799  14.408  14.083
93779SOL    HW283112   4.881  14.398  14.210
93780SOL     OW83113   7.862   2.570   1.649
93780SOL    HW183114   7.806   2.507   1.693
93780SOL    HW283115   7.909   2.614   1.719
93781SOL     OW83116  11.552   2.656  11.460
93781SOL    HW183117  11.547   2.733  11.517
93781SOL    HW283118  11.518   2.584  11.513
93782SOL     OW83119   3.116   9.192   9.470
93782SOL    HW183120   3.094   9.122   9.409
93782SOL    HW283121   3.033   9.213   9.513
93783SOL     OW83122   5.464  11.907   0.223
93783SOL    HW183123   5.398  11.975   0.228
93783SOL    HW283124   5.415  11.826   0.212
93784SOL     OW83125   2.242   6.575   0.796
93784SOL    HW183126   2.236   6.488   0.836
93784SOL    HW283127   2.302   6.623   0.852
93785SOL     OW83128  12.875  11.712   6.359
93785SOL    HW183129  12.904  11.715   6.268
93785SOL    HW283130  12.954  11.695   6.409
93786SOL     OW83131  13.639   1.063  12.638
93786SOL    HW183132  13.647   0.968  12.648
93786SOL    HW283133  13.550   1.076  12.606
93787SOL     OW83134   5.258  12.196   9.901
93787SOL    HW183135   5.274  12.124   9.840
93787SOL    HW283136   5.344  12.216   9.937
93788SOL     OW83137   2.544  11.035   8.437
93788SOL    HW183138   2.613  11.019   8.502
93788SOL    HW283139   2.463  11.009   8.481
93789SOL     OW83140  12.763   6.443   8.717
93789SOL    HW183141  12.673   6.410   8.722
93789SOL    HW283142  12.754   6.535   8.690
93790SOL     OW83143   6.252   3.008  12.428
93790SOL    HW183144   6.175   3.032  12.376
93790SOL    HW283145   6.269   3.085  12.482
93791SOL     OW83146  13.276  14.817  11.607
93791SOL    HW183147  13.289  14.722  11.604
93791SOL    HW283148  13.314  14.843  11.692
93792SOL     OW83149  13.865   2.148   5.999
93792SOL    HW183150  13.840   2.233   6.034
93792SOL    HW283151  13.900   2.166   5.912
93793SOL     OW83152   8.054   9.851   3.260
93793SOL    HW183153   8.098   9.929   3.226
93793SOL    HW283154   8.087   9.842   3.349
93794SOL     OW83155   5.258   8.144   6.682
93794SOL    HW183156   5.292   8.068   6.728
93794SOL    HW283157   5.204   8.189   6.747
93795SOL     OW83158   8.208   9.222  14.349
93795SOL    HW183159   8.287   9.257  14.391
93795SOL    HW283160   8.222   9.127  14.348
93796SOL     OW83161   5.304  13.979  14.185
93796SOL    HW183162   5.209  13.985  14.184
93796SOL    HW283163   5.330  14.025  14.266
93797SOL     OW83164   2.441   6.512  12.963
93797SOL    HW183165   2.509   6.580  12.964
93797SOL    HW283166   2.415   6.502  13.054
93798SOL     OW83167  11.680  13.142  13.615
93798SOL    HW183168  11.765  13.165  13.652
93798SOL    HW283169  11.686  13.167  13.523
93799SOL     OW83170   9.027  12.582  12.619
93799SOL    HW183171   8.990  12.500  12.586
93799SOL    HW283172   9.122  12.572  12.608
93800SOL     OW83173  14.345   9.174  10.877
93800SOL    HW183174  14.299   9.128  10.947
93800SOL    HW283175  14.334   9.267  10.897
93801SOL     OW83176   5.639  12.998   4.430
93801SOL    HW183177   5.622  13.048   4.350
93801SOL    HW283178   5.697  13.054   4.482
93802SOL     OW83179   1.638  10.011   9.671
93802SOL    HW183180   1.731  10.024   9.650
93802SOL    HW283181   1.629  10.047   9.759
93803SOL     OW83182   5.819   9.567   3.242
93803SOL    HW183183   5.817   9.514   3.162
93803SOL    HW283184   5.862   9.649   3.216
93804SOL     OW83185   0.191   6.803   9.870
93804SOL    HW183186   0.244   6.797   9.790
93804SOL    HW283187   0.253   6.830   9.938
93805SOL     OW83188   6.762   5.107   5.730
93805SOL    HW183189   6.715   5.137   5.652
93805SOL    HW283190   6.718   5.151   5.803
93806SOL     OW83191   1.665  11.813  13.228
93806SOL    HW183192   1.606  11.763  13.171
93806SOL    HW283193   1.747  11.820  13.178
93807SOL     OW83194   2.933   5.214   8.214
93807SOL    HW183195   2.910   5.142   8.156
93807SOL    HW283196   2.914   5.182   8.302
93808SOL     OW83197   7.073   8.823  11.801
93808SOL    HW183198   7.021   8.888  11.754
93808SOL    HW283199   7.068   8.850  11.893
93809SOL     OW83200   7.208  10.493  11.875
93809SOL    HW183201   7.155  10.526  11.802
93809SOL    HW283202   7.251  10.415  11.839
93810SOL     OW83203  14.275  12.210   0.345
93810SOL    HW183204  14.297  12.284   0.401
93810SOL    HW283205  14.184  12.190   0.367
93811SOL     OW83206   1.681   0.731  10.724
93811SOL    HW183207   1.609   0.791  10.746
93811SOL    HW283208   1.640   0.662  10.673
93812SOL     OW83209   6.433   7.265   4.844
93812SOL    HW183210   6.490   7.285   4.769
93812SOL    HW283211   6.374   7.340   4.849
93813SOL     OW83212   2.176  12.142   5.973
93813SOL    HW183213   2.097  12.191   6.000
93813SOL    HW283214   2.225  12.131   6.055
93814SOL     OW83215   8.500  11.533   0.831
93814SOL    HW183216   8.471  11.566   0.916
93814SOL    HW283217   8.513  11.611   0.778
93815SOL     OW83218   5.665   3.538   7.672
93815SOL    HW183219   5.633   3.595   7.741
93815SOL    HW283220   5.743   3.497   7.709
93816SOL     OW83221   7.057   7.793   0.263
93816SOL    HW183222   7.139   7.802   0.215
93816SOL    HW283223   7.083   7.766   0.350
93817SOL     OW83224  12.562  13.506   9.421
93817SOL    HW183225  12.648  13.482   9.387
93817SOL    HW283226  12.509  13.426   9.413
93818SOL     OW83227   2.633   2.692   6.212
93818SOL    HW183228   2.669   2.769   6.257
93818SOL    HW283229   2.561   2.727   6.159
93819SOL     OW83230   0.204   4.043  13.302
93819SOL    HW183231   0.257   3.968  13.328
93819SOL    HW283232   0.248   4.118  13.342
93820SOL     OW83233  13.054   7.325   3.438
93820SOL    HW183234  13.046   7.418   3.458
93820SOL    HW283235  13.121   7.320   3.370
93821SOL     OW83236   4.415   0.125  13.137
93821SOL    HW183237   4.488   0.148  13.193
93821SOL    HW283238   4.367   0.058  13.185
93822SOL     OW83239   9.460  12.321  14.114
93822SOL    HW183240   9.547  12.283  14.130
93822SOL    HW283241   9.442  12.300  14.022
93823SOL     OW83242   7.426   4.288   8.108
93823SOL    HW183243   7.514   4.322   8.089
93823SOL    HW283244   7.437   4.194   8.116
93824SOL     OW83245   2.797  14.031  10.994
93824SOL    HW183246   2.876  13.978  10.993
93824SOL    HW283247   2.795  14.071  11.081
93825SOL     OW83248   0.405   5.505   9.843
93825SOL    HW183249   0.467   5.577   9.827
93825SOL    HW283250   0.327   5.530   9.794
93826SOL     OW83251  13.365   4.319   0.816
93826SOL    HW183252  13.300   4.366   0.868
93826SOL    HW283253  13.412   4.388   0.769
93827SOL     OW83254   9.667   3.148   8.260
93827SOL    HW183255   9.714   3.207   8.319
93827SOL    HW283256   9.733   3.086   8.229
93828SOL     OW83257   6.620   9.123   4.923
93828SOL    HW183258   6.692   9.153   4.979
93828SOL    HW283259   6.662   9.065   4.859
93829SOL     OW83260  11.627   2.371   0.217
93829SOL    HW183261  11.680   2.403   0.144
93829SOL    HW283262  11.691   2.338   0.280
93830SOL     OW83263   8.985  13.201   0.859
93830SOL    HW183264   8.964  13.132   0.922
93830SOL    HW283265   9.081  13.205   0.858
93831SOL     OW83266   0.509   3.854  11.649
93831SOL    HW183267   0.604   3.847  11.662
93831SOL    HW283268   0.472   3.820  11.730
93832SOL     OW83269   5.623  13.147   8.665
93832SOL    HW183270   5.625  13.168   8.758
93832SOL    HW283271   5.555  13.204   8.629
93833SOL     OW83272   9.663  11.535   7.972
93833SOL    HW183273   9.644  11.628   7.954
93833SOL    HW283274   9.741  11.516   7.920
93834SOL     OW83275   1.298  13.983   8.737
93834SOL    HW183276   1.385  13.949   8.757
93834SOL    HW283277   1.285  14.053   8.801
93835SOL     OW83278   8.137   6.127   7.412
93835SOL    HW183279   8.141   6.155   7.504
93835SOL    HW283280   8.226   6.102   7.390
93836SOL     OW83281   3.617   0.775   9.763
93836SOL    HW183282   3.553   0.721   9.717
93836SOL    HW283283   3.585   0.778   9.854
93837SOL     OW83284  11.714  13.722   1.942
93837SOL    HW183285  11.717  13.817   1.934
93837SOL    HW283286  11.791  13.700   1.994
93838SOL     OW83287   6.671  13.008   6.195
93838SOL    HW183288   6.631  13.078   6.144
93838SOL    HW283289   6.666  12.931   6.138
93839SOL     OW83290   0.763   4.344   0.688
93839SOL    HW183291   0.825   4.278   0.656
93839SOL    HW283292   0.698   4.352   0.619
93840SOL     OW83293   7.253   4.710   4.824
93840SOL    HW183294   7.334   4.671   4.790
93840SOL    HW283295   7.188   4.690   4.757
93841SOL     OW83296   2.636   4.676   0.359
93841SOL    HW183297   2.726   4.645   0.361
93841SOL    HW283298   2.619   4.696   0.267
93842SOL     OW83299   3.104  12.510   2.596
93842SOL    HW183300   3.198  12.496   2.604
93842SOL    HW283301   3.085  12.493   2.503
93843SOL     OW83302   6.203  11.847   3.153
93843SOL    HW183303   6.174  11.858   3.244
93843SOL    HW283304   6.128  11.875   3.101
93844SOL     OW83305   5.042   2.420   4.593
93844SOL    HW183306   5.021   2.327   4.598
93844SOL    HW283307   5.060   2.447   4.683
93845SOL     OW83308   3.686   5.619  14.498
93845SOL    HW183309   3.717   5.653  14.582
93845SOL    HW283310   3.758   5.565  14.466
93846SOL     OW83311   7.685   6.427   9.751
93846SOL    HW183312   7.705   6.394   9.663
93846SOL    HW283313   7.632   6.505   9.736
93847SOL     OW83314  13.475   9.556   0.407
93847SOL    HW183315  13.558   9.580   0.366
93847SOL    HW283316  13.467   9.616   0.482
93848SOL     OW83317   3.362  11.701   3.698
93848SOL    HW183318   3.325  11.702   3.609
93848SOL    HW283319   3.320  11.626   3.740
93849SOL     OW83320   2.286  10.839   8.379
93849SOL    HW183321   2.328  10.780   8.441
93849SOL    HW283322   2.283  10.789   8.297
93850SOL     OW83323   9.637  14.716   7.324
93850SOL    HW183324   9.583  14.648   7.364
93850SOL    HW283325   9.611  14.718   7.232
93851SOL     OW83326   3.758   2.829  11.594
93851SOL    HW183327   3.795   2.811  11.680
93851SOL    HW283328   3.665   2.809  11.603
93852SOL     OW83329   4.816   5.728   6.419
93852SOL    HW183330   4.822   5.668   6.494
93852SOL    HW283331   4.739   5.782   6.438
93853SOL     OW83332   0.746  12.984   3.040
93853SOL    HW183333   0.825  12.931   3.032
93853SOL    HW283334   0.777  13.074   3.032
93854SOL     OW83335   3.407   6.415   9.527
93854SOL    HW183336   3.452   6.354   9.585
93854SOL    HW283337   3.423   6.501   9.565
93855SOL     OW83338   8.207  13.421   3.416
93855SOL    HW183339   8.156  13.434   3.336
93855SOL    HW283340   8.288  13.469   3.401
93856SOL     OW83341   4.126   3.746   8.190
93856SOL    HW183342   4.140   3.656   8.161
93856SOL    HW283343   4.032   3.761   8.177
93857SOL     OW83344   1.162   1.203  12.602
93857SOL    HW183345   1.174   1.109  12.609
93857SOL    HW283346   1.114   1.227  12.682
93858SOL     OW83347   5.333   0.463   7.192
93858SOL    HW183348   5.342   0.380   7.145
93858SOL    HW283349   5.249   0.498   7.162
93859SOL     OW83350   0.348   0.582  14.759
93859SOL    HW183351   0.262   0.568  14.721
93859SOL    HW283352   0.368   0.499  14.804
93860SOL     OW83353   8.326  12.508   2.926
93860SOL    HW183354   8.297  12.436   2.869
93860SOL    HW283355   8.399  12.548   2.879
93861SOL     OW83356   4.405   6.900   3.002
93861SOL    HW183357   4.351   6.979   2.998
93861SOL    HW283358   4.389   6.865   3.090
93862SOL     OW83359  10.338  13.420   1.389
93862SOL    HW183360  10.384  13.356   1.443
93862SOL    HW283361  10.397  13.437   1.316
93863SOL     OW83362   7.143  14.034  10.828
93863SOL    HW183363   7.201  14.011  10.756
93863SOL    HW283364   7.171  14.121  10.855
93864SOL     OW83365  13.914   5.437   4.245
93864SOL    HW183366  13.979   5.495   4.286
93864SOL    HW283367  13.953   5.413   4.161
93865SOL     OW83368   6.308  10.650   5.876
93865SOL    HW183369   6.230  10.703   5.861
93865SOL    HW283370   6.284  10.563   5.844
93866SOL     OW83371  12.861   6.483   9.183
93866SOL    HW183372  12.820   6.555   9.232
93866SOL    HW283373  12.936   6.458   9.236
93867SOL     OW83374   6.375   0.270   7.116
93867SOL    HW183375   6.359   0.275   7.021
93867SOL    HW283376   6.376   0.176   7.135
93868SOL     OW83377  11.609  14.237   7.893
93868SOL    HW183378  11.632  14.325   7.861
93868SOL    HW283379  11.643  14.178   7.825
93869SOL     OW83380   3.239  12.528   8.156
93869SOL    HW183381   3.334  12.516   8.148
93869SOL    HW283382   3.202  12.471   8.088
93870SOL     OW83383   6.227   9.577  10.877
93870SOL    HW183384   6.296   9.643  10.874
93870SOL    HW283385   6.162   9.606  10.813
93871SOL     OW83386   3.442  13.350   6.961
93871SOL    HW183387   3.412  13.298   7.035
93871SOL    HW283388   3.391  13.431   6.967
93872SOL     OW83389   3.378   2.745  12.730
93872SOL    HW183390   3.322   2.699  12.792
93872SOL    HW283391   3.388   2.833  12.767
93873SOL     OW83392  10.082   4.641   4.592
93873SOL    HW183393  10.086   4.705   4.664
93873SOL    HW283394  10.034   4.567   4.629
93874SOL     OW83395   9.591   1.925   2.430
93874SOL    HW183396   9.644   1.880   2.495
93874SOL    HW283397   9.554   1.855   2.377
93875SOL     OW83398   4.199   9.772   3.500
93875SOL    HW183399   4.127   9.785   3.438
93875SOL    HW283400   4.171   9.815   3.580
93876SOL     OW83401   7.642   0.618  14.379
93876SOL    HW183402   7.563   0.626  14.431
93876SOL    HW283403   7.712   0.603  14.442
93877SOL     OW83404  13.764   4.278   3.213
93877SOL    HW183405  13.790   4.298   3.303
93877SOL    HW283406  13.681   4.231   3.222
93878SOL     OW83407  11.238   0.296   2.473
93878SOL    HW183408  11.179   0.330   2.406
93878SOL    HW283409  11.241   0.365   2.540
93879SOL     OW83410   0.371   0.831   4.381
93879SOL    HW183411   0.457   0.867   4.401
93879SOL    HW283412   0.388   0.754   4.327
93880SOL     OW83413   2.253   5.224   6.037
93880SOL    HW183414   2.180   5.171   6.006
93880SOL    HW283415   2.290   5.263   5.958
93881SOL     OW83416  14.520   8.750  12.667
93881SOL    HW183417  14.494   8.782  12.753
93881SOL    HW283418  14.459   8.791  12.606
93882SOL     OW83419   8.307   7.426  11.520
93882SOL    HW183420   8.347   7.347  11.485
93882SOL    HW283421   8.217   7.400  11.541
93883SOL     OW83422  11.589   2.049   8.069
93883SOL    HW183423  11.652   1.978   8.083
93883SOL    HW283424  11.632   2.127   8.102
93884SOL     OW83425   4.369   6.155  13.196
93884SOL    HW183426   4.329   6.215  13.134
93884SOL    HW283427   4.384   6.075  13.146
93885SOL     OW83428   1.668  12.000  14.505
93885SOL    HW183429   1.588  11.968  14.547
93885SOL    HW283430   1.693  12.077  14.556
93886SOL     OW83431   7.480   4.117   7.695
93886SOL    HW183432   7.403   4.082   7.648
93886SOL    HW283433   7.480   4.210   7.674
93887SOL     OW83434   6.276  14.490   3.087
93887SOL    HW183435   6.282  14.464   3.179
93887SOL    HW283436   6.192  14.537   3.081
93888SOL     OW83437   9.309   0.197  10.711
93888SOL    HW183438   9.286   0.277  10.663
93888SOL    HW283439   9.272   0.126  10.659
93889SOL     OW83440   0.299   2.222  13.405
93889SOL    HW183441   0.233   2.210  13.474
93889SOL    HW283442   0.349   2.141  13.405
93890SOL     OW83443   6.107   7.977   9.919
93890SOL    HW183444   6.077   8.029   9.993
93890SOL    HW283445   6.182   7.928   9.952
93891SOL     OW83446  13.903   6.823   4.361
93891SOL    HW183447  13.838   6.867   4.306
93891SOL    HW283448  13.960   6.779   4.299
93892SOL     OW83449   3.299   6.107   0.560
93892SOL    HW183450   3.216   6.063   0.541
93892SOL    HW283451   3.280   6.200   0.552
93893SOL     OW83452  13.665   1.384  10.083
93893SOL    HW183453  13.758   1.397  10.064
93893SOL    HW283454  13.662   1.308  10.140
93894SOL     OW83455   0.437  13.444   8.321
93894SOL    HW183456   0.461  13.500   8.247
93894SOL    HW283457   0.521  13.415   8.356
93895SOL     OW83458  13.532   6.348   1.347
93895SOL    HW183459  13.568   6.263   1.324
93895SOL    HW283460  13.598   6.411   1.318
93896SOL     OW83461  10.590   2.868  11.948
93896SOL    HW183462  10.613   2.960  11.936
93896SOL    HW283463  10.623   2.825  11.869
93897SOL     OW83464  14.055  10.203  10.737
93897SOL    HW183465  13.969  10.187  10.699
93897SOL    HW283466  14.077  10.121  10.781
93898SOL     OW83467   5.534   5.557   8.267
93898SOL    HW183468   5.598   5.585   8.333
93898SOL    HW283469   5.535   5.461   8.273
93899SOL     OW83470   2.300   2.989  12.987
93899SOL    HW183471   2.259   2.938  12.917
93899SOL    HW283472   2.230   3.045  13.021
93900SOL     OW83473   8.821   4.134   1.417
93900SOL    HW183474   8.752   4.088   1.464
93900SOL    HW283475   8.874   4.064   1.377
93901SOL     OW83476   9.701   8.217  10.401
93901SOL    HW183477   9.622   8.171  10.430
93901SOL    HW283478   9.721   8.179  10.315
93902SOL     OW83479   1.182   5.485   4.767
93902SOL    HW183480   1.182   5.408   4.823
93902SOL    HW283481   1.259   5.535   4.793
93903SOL     OW83482   5.059  11.824   2.140
93903SOL    HW183483   4.988  11.816   2.076
93903SOL    HW283484   5.015  11.817   2.225
93904SOL     OW83485   1.961   0.283  14.773
93904SOL    HW183486   1.872   0.285  14.739
93904SOL    HW283487   1.959   0.339  14.850
93905SOL     OW83488   8.125   6.281  11.272
93905SOL    HW183489   8.174   6.199  11.278
93905SOL    HW283490   8.083   6.277  11.187
93906SOL     OW83491   3.458   6.653   3.544
93906SOL    HW183492   3.410   6.700   3.612
93906SOL    HW283493   3.390   6.615   3.488
93907SOL     OW83494   9.329   4.802  10.369
93907SOL    HW183495   9.278   4.721  10.362
93907SOL    HW283496   9.287   4.851  10.440
93908SOL     OW83497  14.226  12.808  12.188
93908SOL    HW183498  14.152  12.836  12.135
93908SOL    HW283499  14.187  12.784  12.273
93909SOL     OW83500   4.169   3.092  12.821
93909SOL    HW183501   4.262   3.108  12.809
93909SOL    HW283502   4.165   3.016  12.880
93910SOL     OW83503   2.458  14.840   9.818
93910SOL    HW183504   2.549  14.870   9.816
93910SOL    HW283505   2.455  14.776   9.888
93911SOL     OW83506   2.377  14.510   6.930
93911SOL    HW183507   2.284  14.497   6.911
93911SOL    HW283508   2.381  14.597   6.970
93912SOL     OW83509   7.958   9.244  11.427
93912SOL    HW183510   7.879   9.200  11.396
93912SOL    HW283511   8.016   9.174  11.454
93913SOL     OW83512  10.177   6.315  13.038
93913SOL    HW183513  10.160   6.227  13.003
93913SOL    HW283514  10.138   6.374  12.974
93914SOL     OW83515   7.775   8.857   7.431
93914SOL    HW183516   7.826   8.776   7.435
93914SOL    HW283517   7.794   8.901   7.514
93915SOL     OW83518  14.703   1.511   1.730
93915SOL    HW183519  14.697   1.464   1.647
93915SOL    HW283520  14.749   1.592   1.709
93916SOL     OW83521   2.214   2.069   9.872
93916SOL    HW183522   2.184   2.145   9.921
93916SOL    HW283523   2.160   1.997   9.904
93917SOL     OW83524   1.783  14.116   3.127
93917SOL    HW183525   1.826  14.202   3.126
93917SOL    HW283526   1.853  14.054   3.108
93918SOL     OW83527  11.981   2.098   4.760
93918SOL    HW183528  11.895   2.118   4.797
93918SOL    HW283529  12.002   2.175   4.707
93919SOL     OW83530   8.055   7.176   9.507
93919SOL    HW183531   8.088   7.256   9.547
93919SOL    HW283532   8.110   7.163   9.430
93920SOL     OW83533   4.851   5.257   5.985
93920SOL    HW183534   4.885   5.251   6.074
93920SOL    HW283535   4.899   5.331   5.946
93921SOL     OW83536  14.353   4.345   9.481
93921SOL    HW183537  14.369   4.368   9.573
93921SOL    HW283538  14.366   4.250   9.479
93922SOL     OW83539  14.810   6.945  11.158
93922SOL    HW183540   0.024   6.973  11.169
93922SOL    HW283541  14.816   6.854  11.130
93923SOL     OW83542  11.857   6.613   7.365
93923SOL    HW183543  11.948   6.591   7.349
93923SOL    HW283544  11.846   6.608   7.460
93924SOL     OW83545   5.357   8.844  13.100
93924SOL    HW183546   5.306   8.781  13.049
93924SOL    HW283547   5.440   8.852  13.053
93925SOL     OW83548   0.771   7.737   8.742
93925SOL    HW183549   0.710   7.806   8.769
93925SOL    HW283550   0.760   7.668   8.806
93926SOL     OW83551   4.646  11.390  14.744
93926SOL    HW183552   4.714  11.375  14.809
93926SOL    HW283553   4.693  11.408  14.663
93927SOL     OW83554   4.149   8.757  10.639
93927SOL    HW183555   4.106   8.674  10.659
93927SOL    HW283556   4.236   8.732  10.606
93928SOL     OW83557  14.421  12.135   6.493
93928SOL    HW183558  14.409  12.179   6.409
93928SOL    HW283559  14.434  12.043   6.471
93929SOL     OW83560   7.036   5.389   2.883
93929SOL    HW183561   7.112   5.356   2.930
93929SOL    HW283562   7.061   5.384   2.791
93930SOL     OW83563  14.563   9.086  10.275
93930SOL    HW183564  14.552   9.136  10.356
93930SOL    HW283565  14.579   9.152  10.208
93931SOL     OW83566  12.936   0.792   4.146
93931SOL    HW183567  12.915   0.864   4.206
93931SOL    HW283568  13.017   0.820   4.103
93932SOL     OW83569   8.846   6.961  12.725
93932SOL    HW183570   8.904   6.897  12.767
93932SOL    HW283571   8.762   6.950  12.769
93933SOL     OW83572   7.627   4.782  12.168
93933SOL    HW183573   7.545   4.831  12.159
93933SOL    HW283574   7.668   4.789  12.082
93934SOL     OW83575   7.633  13.425   7.283
93934SOL    HW183576   7.538  13.414   7.293
93934SOL    HW283577   7.670  13.348   7.327
93935SOL     OW83578  11.782   1.569   3.088
93935SOL    HW183579  11.757   1.523   3.007
93935SOL    HW283580  11.771   1.504   3.157
93936SOL     OW83581  11.241   0.449   3.347
93936SOL    HW183582  11.279   0.501   3.276
93936SOL    HW283583  11.303   0.460   3.420
93937SOL     OW83584   4.256  13.551   8.928
93937SOL    HW183585   4.312  13.491   8.976
93937SOL    HW283586   4.314  13.593   8.864
93938SOL     OW83587  12.605   5.534  13.142
93938SOL    HW183588  12.674   5.559  13.203
93938SOL    HW283589  12.570   5.616  13.110
93939SOL     OW83590   9.265   0.984   2.269
93939SOL    HW183591   9.358   0.973   2.292
93939SOL    HW283592   9.266   1.042   2.193
93940SOL     OW83593   7.844   6.282   3.350
93940SOL    HW183594   7.774   6.297   3.413
93940SOL    HW283595   7.880   6.369   3.332
93941SOL     OW83596  13.990   8.736  14.301
93941SOL    HW183597  14.032   8.819  14.328
93941SOL    HW283598  14.032   8.670  14.356
93942SOL     OW83599   6.584   9.189   6.943
93942SOL    HW183600   6.601   9.096   6.931
93942SOL    HW283601   6.596   9.205   7.036
93943SOL     OW83602   4.109   3.360  10.259
93943SOL    HW183603   4.099   3.279  10.210
93943SOL    HW283604   4.033   3.413  10.233
93944SOL     OW83605   2.625   6.136  11.257
93944SOL    HW183606   2.712   6.111  11.288
93944SOL    HW283607   2.590   6.057  11.215
93945SOL     OW83608   3.406   0.792   8.525
93945SOL    HW183609   3.395   0.840   8.608
93945SOL    HW283610   3.499   0.798   8.506
93946SOL     OW83611   9.236   7.047   9.543
93946SOL    HW183612   9.285   7.083   9.469
93946SOL    HW283613   9.226   6.954   9.522
93947SOL     OW83614   1.980  10.922   9.806
93947SOL    HW183615   2.062  10.966   9.783
93947SOL    HW283616   1.984  10.914   9.901
93948SOL     OW83617  11.976   8.468   5.247
93948SOL    HW183618  12.053   8.489   5.301
93948SOL    HW283619  11.913   8.536   5.270
93949SOL     OW83620  14.873   3.580  12.547
93949SOL    HW183621  14.787   3.556  12.511
93949SOL    HW283622  14.859   3.584  12.642
93950SOL     OW83623   9.275   6.904   3.380
93950SOL    HW183624   9.321   6.957   3.445
93950SOL    HW283625   9.334   6.901   3.305
93951SOL     OW83626   3.111  11.042  13.058
93951SOL    HW183627   3.156  11.035  13.143
93951SOL    HW283628   3.115  11.135  13.036
93952SOL     OW83629   6.633   8.808  12.748
93952SOL    HW183630   6.657   8.718  12.770
93952SOL    HW283631   6.699   8.862  12.790
93953SOL     OW83632   2.002   7.969  12.129
93953SOL    HW183633   2.079   7.974  12.073
93953SOL    HW283634   2.038   7.968  12.218
93954SOL     OW83635  14.330   3.284   8.394
93954SOL    HW183636  14.339   3.231   8.314
93954SOL    HW283637  14.349   3.223   8.465
93955SOL     OW83638   8.833  10.320   7.196
93955SOL    HW183639   8.826  10.414   7.210
93955SOL    HW283640   8.801  10.306   7.107
93956SOL     OW83641  13.086  10.052   5.801
93956SOL    HW183642  13.064  10.137   5.839
93956SOL    HW283643  13.105   9.997   5.876
93957SOL     OW83644   3.159   1.179   4.745
93957SOL    HW183645   3.229   1.152   4.805
93957SOL    HW283646   3.098   1.105   4.746
93958SOL     OW83647   2.079   5.648   6.780
93958SOL    HW183648   2.032   5.564   6.775
93958SOL    HW283649   2.039   5.693   6.854
93959SOL     OW83650  10.814  11.079  12.962
93959SOL    HW183651  10.811  11.049  12.871
93959SOL    HW283652  10.798  11.173  12.957
93960SOL     OW83653  11.252  10.573   2.005
93960SOL    HW183654  11.273  10.577   2.099
93960SOL    HW283655  11.315  10.632   1.964
93961SOL     OW83656   4.714   3.337   6.727
93961SOL    HW183657   4.783   3.290   6.680
93961SOL    HW283658   4.638   3.279   6.721
93962SOL     OW83659   3.349   2.733   4.255
93962SOL    HW183660   3.393   2.812   4.223
93962SOL    HW283661   3.256   2.754   4.250
93963SOL     OW83662   1.017   0.881  11.359
93963SOL    HW183663   1.041   0.842  11.274
93963SOL    HW283664   0.997   0.806  11.415
93964SOL     OW83665  11.399   2.981   1.179
93964SOL    HW183666  11.382   3.056   1.122
93964SOL    HW283667  11.356   3.004   1.261
93965SOL     OW83668   2.797  11.376  10.115
93965SOL    HW183669   2.745  11.443  10.159
93965SOL    HW283670   2.734  11.309  10.090
93966SOL     OW83671   2.692   2.180   7.300
93966SOL    HW183672   2.613   2.198   7.250
93966SOL    HW283673   2.674   2.097   7.345
93967SOL     OW83674   4.014  11.154   2.712
93967SOL    HW183675   4.000  11.248   2.706
93967SOL    HW283676   4.017  11.124   2.622
93968SOL     OW83677  10.980   4.080  11.774
93968SOL    HW183678  10.996   4.044  11.862
93968SOL    HW283679  10.897   4.127  11.783
93969SOL     OW83680   5.973   4.611   2.304
93969SOL    HW183681   6.026   4.558   2.364
93969SOL    HW283682   6.033   4.631   2.232
93970SOL     OW83683   4.985   7.179   1.351
93970SOL    HW183684   5.021   7.144   1.432
93970SOL    HW283685   5.057   7.230   1.313
93971SOL     OW83686   7.866  10.093   6.276
93971SOL    HW183687   7.793  10.090   6.214
93971SOL    HW283688   7.862  10.181   6.313
93972SOL     OW83689   3.565   5.633   6.909
93972SOL    HW183690   3.622   5.706   6.884
93972SOL    HW283691   3.585   5.564   6.845
93973SOL     OW83692   7.447   4.003   8.855
93973SOL    HW183693   7.461   4.093   8.825
93973SOL    HW283694   7.352   3.997   8.867
93974SOL     OW83695  14.160  10.822  11.867
93974SOL    HW183696  14.227  10.862  11.811
93974SOL    HW283697  14.098  10.893  11.883
93975SOL     OW83698   1.337   8.744  12.517
93975SOL    HW183699   1.283   8.761  12.594
93975SOL    HW283700   1.340   8.649  12.510
93976SOL     OW83701  10.477   6.920   4.287
93976SOL    HW183702  10.516   6.835   4.265
93976SOL    HW283703  10.551   6.973   4.317
93977SOL     OW83704   1.879   9.833   4.317
93977SOL    HW183705   1.860   9.857   4.408
93977SOL    HW283706   1.945   9.896   4.289
93978SOL     OW83707   4.030   6.697   1.950
93978SOL    HW183708   4.109   6.648   1.926
93978SOL    HW283709   4.030   6.697   2.046
93979SOL     OW83710   7.739   6.772   5.180
93979SOL    HW183711   7.716   6.864   5.176
93979SOL    HW283712   7.763   6.757   5.272
93980SOL     OW83713   2.499  12.297  10.721
93980SOL    HW183714   2.441  12.321  10.649
93980SOL    HW283715   2.496  12.201  10.723
93981SOL     OW83716   5.257   4.232   6.719
93981SOL    HW183717   5.191   4.293   6.752
93981SOL    HW283718   5.329   4.288   6.689
93982SOL     OW83719   7.371  14.073   3.994
93982SOL    HW183720   7.388  14.012   3.922
93982SOL    HW283721   7.455  14.082   4.038
93983SOL     OW83722   9.588   6.365  14.560
93983SOL    HW183723   9.535   6.295  14.522
93983SOL    HW283724   9.555   6.373  14.650
93984SOL     OW83725   8.078   0.881   0.355
93984SOL    HW183726   8.168   0.911   0.347
93984SOL    HW283727   8.038   0.943   0.417
93985SOL     OW83728   9.502   3.913   2.728
93985SOL    HW183729   9.493   3.823   2.762
93985SOL    HW283730   9.421   3.928   2.680
93986SOL     OW83731   0.007   1.285  13.055
93986SOL    HW183732  14.810   1.324  13.101
93986SOL    HW283733  14.866   1.300  12.962
93987SOL     OW83734   0.307  13.603  10.922
93987SOL    HW183735   0.223  13.645  10.938
93987SOL    HW283736   0.337  13.640  10.839
93988SOL     OW83737   5.750   6.282   7.307
93988SOL    HW183738   5.667   6.271   7.353
93988SOL    HW283739   5.816   6.259   7.372
93989SOL     OW83740   1.254   0.211   2.199
93989SOL    HW183741   1.290   0.294   2.229
93989SOL    HW283742   1.260   0.215   2.104
93990SOL     OW83743  11.263   4.971   6.328
93990SOL    HW183744  11.355   4.999   6.331
93990SOL    HW283745  11.214   5.046   6.360
93991SOL     OW83746  11.731  11.776   9.033
93991SOL    HW183747  11.682  11.833   8.973
93991SOL    HW283748  11.668  11.754   9.102
93992SOL     OW83749   7.668  13.921   4.857
93992SOL    HW183750   7.680  14.002   4.907
93992SOL    HW283751   7.649  13.855   4.924
93993SOL     OW83752  10.170   4.972   5.596
93993SOL    HW183753  10.120   4.918   5.536
93993SOL    HW283754  10.199   4.912   5.665
93994SOL     OW83755   1.778   2.569  11.452
93994SOL    HW183756   1.775   2.599  11.362
93994SOL    HW283757   1.725   2.632  11.501
93995SOL     OW83758  11.191   8.164   9.865
93995SOL    HW183759  11.140   8.244   9.850
93995SOL    HW283760  11.128   8.103   9.903
93996SOL     OW83761   8.506   9.057   0.217
93996SOL    HW183762   8.472   9.091   0.299
93996SOL    HW283763   8.599   9.076   0.219
93997SOL     OW83764  10.074   9.516   1.251
93997SOL    HW183765   9.987   9.485   1.225
93997SOL    HW283766  10.058   9.605   1.284
93998SOL     OW83767   3.021  13.595  11.489
93998SOL    HW183768   3.095  13.574  11.545
93998SOL    HW283769   3.021  13.528  11.421
93999SOL     OW83770  11.424   3.583   2.974
93999SOL    HW183771  11.508   3.608   2.935
93999SOL    HW283772  11.406   3.496   2.939
94000SOL     OW83773   9.052   1.698  14.847
94000SOL    HW183774   9.118   1.652   0.022
94000SOL    HW283775   9.032   1.777   0.020
94001SOL     OW83776   7.420   0.144   3.855
94001SOL    HW183777   7.516   0.149   3.853
94001SOL    HW283778   7.393   0.217   3.911
94002SOL     OW83779   8.635   6.787   5.258
94002SOL    HW183780   8.706   6.743   5.305
94002SOL    HW283781   8.676   6.865   5.220
94003SOL     OW83782   4.538  12.811  14.339
94003SOL    HW183783   4.500  12.899  14.340
94003SOL    HW283784   4.550  12.788  14.431
94004SOL     OW83785   7.409   8.488   9.796
94004SOL    HW183786   7.442   8.489   9.886
94004SOL    HW283787   7.319   8.456   9.804
94005SOL     OW83788   3.429   0.056  14.787
94005SOL    HW183789   3.516   0.018  14.776
94005SOL    HW283790   3.444   0.151  14.784
94006SOL     OW83791   9.480   5.948  10.104
94006SOL    HW183792   9.391   5.931  10.073
94006SOL    HW283793   9.481   6.042  10.124
94007SOL     OW83794   4.787   7.842  12.122
94007SOL    HW183795   4.779   7.766  12.179
94007SOL    HW283796   4.834   7.907  12.174
94008SOL     OW83797   9.307  10.993   6.359
94008SOL    HW183798   9.346  10.905   6.365
94008SOL    HW283799   9.308  11.025   6.449
94009SOL     OW83800   5.743   3.443   8.295
94009SOL    HW183801   5.829   3.482   8.283
94009SOL    HW283802   5.749   3.398   8.380
94010SOL     OW83803   5.104   2.342   7.703
94010SOL    HW183804   5.108   2.292   7.621
94010SOL    HW283805   5.010   2.353   7.720
94011SOL     OW83806   2.184   5.141  12.905
94011SOL    HW183807   2.210   5.077  12.971
94011SOL    HW283808   2.090   5.125  12.892
94012SOL     OW83809   4.775   7.183   2.558
94012SOL    HW183810   4.831   7.163   2.633
94012SOL    HW283811   4.767   7.099   2.512
94013SOL     OW83812   4.432   8.231  13.280
94013SOL    HW183813   4.359   8.218  13.219
94013SOL    HW283814   4.510   8.219  13.226
94014SOL     OW83815   1.799   8.462  11.280
94014SOL    HW183816   1.739   8.470  11.205
94014SOL    HW283817   1.763   8.391  11.332
94015SOL     OW83818   0.826   3.977   4.530
94015SOL    HW183819   0.891   3.988   4.599
94015SOL    HW283820   0.843   4.048   4.468
94016SOL     OW83821   4.937   1.678   8.398
94016SOL    HW183822   4.886   1.600   8.418
94016SOL    HW283823   5.027   1.654   8.419
94017SOL     OW83824   2.131   1.149   5.454
94017SOL    HW183825   2.156   1.192   5.373
94017SOL    HW283826   2.039   1.172   5.467
94018SOL     OW83827   1.987  12.209  13.749
94018SOL    HW183828   1.969  12.228  13.841
94018SOL    HW283829   2.080  12.185  13.747
94019SOL     OW83830   8.452   0.921   5.237
94019SOL    HW183831   8.494   0.939   5.153
94019SOL    HW283832   8.525   0.915   5.299
94020SOL     OW83833   1.094   4.088   4.413
94020SOL    HW183834   1.015   4.091   4.360
94020SOL    HW283835   1.093   4.001   4.452
94021SOL     OW83836  10.574   9.980   6.873
94021SOL    HW183837  10.501  10.007   6.929
94021SOL    HW283838  10.533   9.928   6.804
94022SOL     OW83839   9.242   3.021  12.571
94022SOL    HW183840   9.149   3.036  12.555
94022SOL    HW283841   9.265   3.080  12.642
94023SOL     OW83842   4.314   4.486   0.712
94023SOL    HW183843   4.358   4.569   0.734
94023SOL    HW283844   4.341   4.467   0.623
94024SOL     OW83845  12.314  11.045   8.934
94024SOL    HW183846  12.239  10.986   8.934
94024SOL    HW283847  12.302  11.098   9.013
94025SOL     OW83848   7.922  11.880  12.396
94025SOL    HW183849   7.922  11.938  12.472
94025SOL    HW283850   8.014  11.876  12.369
94026SOL     OW83851   0.659   4.638   6.523
94026SOL    HW183852   0.678   4.731   6.515
94026SOL    HW283853   0.653   4.607   6.433
94027SOL     OW83854   0.229   9.509   9.681
94027SOL    HW183855   0.300   9.504   9.745
94027SOL    HW283856   0.150   9.489   9.730
94028SOL     OW83857   8.706   4.571   3.729
94028SOL    HW183858   8.647   4.503   3.760
94028SOL    HW283859   8.686   4.580   3.636
94029SOL     OW83860   1.572   2.226   2.120
94029SOL    HW183861   1.507   2.272   2.068
94029SOL    HW283862   1.545   2.134   2.118
94030SOL     OW83863  11.388  12.308   6.017
94030SOL    HW183864  11.435  12.244   5.963
94030SOL    HW283865  11.363  12.259   6.096
94031SOL     OW83866   4.278   5.736   3.846
94031SOL    HW183867   4.334   5.712   3.772
94031SOL    HW283868   4.318   5.691   3.921
94032SOL     OW83869  10.471   5.888   3.185
94032SOL    HW183870  10.513   5.878   3.099
94032SOL    HW283871  10.396   5.944   3.168
94033SOL     OW83872   9.127   3.692   3.298
94033SOL    HW183873   9.087   3.621   3.249
94033SOL    HW283874   9.182   3.649   3.363
94034SOL     OW83875   4.507  12.474   7.167
94034SOL    HW183876   4.462  12.438   7.243
94034SOL    HW283877   4.448  12.456   7.094
94035SOL     OW83878   1.946  13.129  11.380
94035SOL    HW183879   1.930  13.184  11.456
94035SOL    HW283880   2.039  13.142  11.360
94036SOL     OW83881   4.385   8.268  14.707
94036SOL    HW183882   4.371   8.174  14.721
94036SOL    HW283883   4.461   8.272  14.649
94037SOL     OW83884   0.299  13.534  13.024
94037SOL    HW183885   0.269  13.548  12.933
94037SOL    HW283886   0.394  13.536  13.018
94038SOL     OW83887  14.162   7.883   9.951
94038SOL    HW183888  14.146   7.973   9.980
94038SOL    HW283889  14.082   7.836   9.975
94039SOL     OW83890   7.920   2.081  13.307
94039SOL    HW183891   7.898   1.990  13.289
94039SOL    HW283892   7.906   2.126  13.223
94040SOL     OW83893   0.665   8.576   1.347
94040SOL    HW183894   0.621   8.517   1.408
94040SOL    HW283895   0.744   8.529   1.321
94041SOL     OW83896  13.291   5.532  13.447
94041SOL    HW183897  13.338   5.582  13.381
94041SOL    HW283898  13.203   5.521  13.411
94042SOL     OW83899  11.967   6.345   1.033
94042SOL    HW183900  12.033   6.339   0.964
94042SOL    HW283901  11.895   6.290   1.002
94043SOL     OW83902   1.462   4.117  14.857
94043SOL    HW183903   1.396   4.050  14.870
94043SOL    HW283904   1.546   4.071  14.865
94044SOL     OW83905  11.454   1.430  13.075
94044SOL    HW183906  11.444   1.338  13.100
94044SOL    HW283907  11.502   1.469  13.148
94045SOL     OW83908   0.809  13.319  12.304
94045SOL    HW183909   0.867  13.358  12.238
94045SOL    HW283910   0.731  13.293  12.256
94046SOL     OW83911  14.167  14.657   0.569
94046SOL    HW183912  14.181  14.563   0.582
94046SOL    HW283913  14.077  14.671   0.599
94047SOL     OW83914   3.021   8.559   5.099
94047SOL    HW183915   2.995   8.510   5.177
94047SOL    HW283916   3.052   8.643   5.134
94048SOL     OW83917   7.541  10.891   2.780
94048SOL    HW183918   7.476  10.892   2.851
94048SOL    HW283919   7.502  10.944   2.711
94049SOL     OW83920  12.749  14.146   0.221
94049SOL    HW183921  12.708  14.099   0.148
94049SOL    HW283922  12.762  14.079   0.288
94050SOL     OW83923  14.466  10.641  14.208
94050SOL    HW183924  14.385  10.591  14.196
94050SOL    HW283925  14.470  10.698  14.132
94051SOL     OW83926   8.665  10.616  11.910
94051SOL    HW183927   8.637  10.695  11.864
94051SOL    HW283928   8.750  10.594  11.872
94052SOL     OW83929   1.839   3.097   3.664
94052SOL    HW183930   1.887   3.175   3.692
94052SOL    HW283931   1.762   3.132   3.618
94053SOL     OW83932   0.203   9.761   3.155
94053SOL    HW183933   0.217   9.697   3.086
94053SOL    HW283934   0.147   9.717   3.219
94054SOL     OW83935   6.125  12.356   3.109
94054SOL    HW183936   6.035  12.389   3.099
94054SOL    HW283937   6.173  12.394   3.035
94055SOL     OW83938  12.462   3.564  11.851
94055SOL    HW183939  12.488   3.475  11.876
94055SOL    HW283940  12.367   3.559  11.841
94056SOL     OW83941   9.187  13.020   8.631
94056SOL    HW183942   9.172  12.939   8.679
94056SOL    HW283943   9.231  13.078   8.693
94057SOL     OW83944  13.809   2.277   4.661
94057SOL    HW183945  13.780   2.368   4.666
94057SOL    HW283946  13.729   2.227   4.650
94058SOL     OW83947   3.495   7.274  10.515
94058SOL    HW183948   3.496   7.201  10.453
94058SOL    HW283949   3.587   7.293  10.531
94059SOL     OW83950  10.036   5.135   1.812
94059SOL    HW183951  10.105   5.177   1.862
94059SOL    HW283952  10.059   5.151   1.720
94060SOL     OW83953   9.608   8.719  12.183
94060SOL    HW183954   9.681   8.657  12.194
94060SOL    HW283955   9.648   8.796  12.143
94061SOL     OW83956   5.264  13.607   6.341
94061SOL    HW183957   5.202  13.575   6.274
94061SOL    HW283958   5.308  13.680   6.299
94062SOL     OW83959   4.458   0.754   2.037
94062SOL    HW183960   4.544   0.713   2.044
94062SOL    HW283961   4.475   0.842   2.003
94063SOL     OW83962  12.552  10.181  12.530
94063SOL    HW183963  12.590  10.190  12.618
94063SOL    HW283964  12.531  10.087  12.523
94064SOL     OW83965   5.947  13.968  12.159
94064SOL    HW183966   6.032  13.931  12.138
94064SOL    HW283967   5.959  14.010  12.244
94065SOL     OW83968  10.497   7.866   6.302
94065SOL    HW183969  10.430   7.866   6.370
94065SOL    HW283970  10.449   7.855   6.220
94066SOL     OW83971   9.591   7.883   3.044
94066SOL    HW183972   9.672   7.836   3.060
94066SOL    HW283973   9.523   7.815   3.048
94067SOL     OW83974   0.872   7.571  13.841
94067SOL    HW183975   0.841   7.536  13.924
94067SOL    HW283976   0.920   7.498  13.801
94068SOL     OW83977   5.930   9.225   3.825
94068SOL    HW183978   5.902   9.245   3.735
94068SOL    HW283979   5.873   9.279   3.880
94069SOL     OW83980  11.636  11.499  13.075
94069SOL    HW183981  11.609  11.444  13.001
94069SOL    HW283982  11.639  11.440  13.150
94070SOL     OW83983   7.002   6.492  10.225
94070SOL    HW183984   6.981   6.467  10.315
94070SOL    HW283985   6.974   6.584  10.218
94071SOL     OW83986   4.194  14.078   1.052
94071SOL    HW183987   4.267  14.084   0.991
94071SOL    HW283988   4.141  14.005   1.020
94072SOL     OW83989  12.161  13.315   5.846
94072SOL    HW183990  12.125  13.237   5.890
94072SOL    HW283991  12.144  13.387   5.907
94073SOL     OW83992   3.243   3.144   6.141
94073SOL    HW183993   3.244   3.125   6.235
94073SOL    HW283994   3.303   3.080   6.103
94074SOL     OW83995  12.487  11.884  11.700
94074SOL    HW183996  12.513  11.961  11.650
94074SOL    HW283997  12.555  11.819  11.682
94075SOL     OW83998   0.871  13.436   5.054
94075SOL    HW183999   0.941  13.447   5.118
94075SOL    HW284000   0.888  13.503   4.988
94076SOL     OW84001   2.884   1.120   7.625
94076SOL    HW184002   2.881   1.049   7.688
94076SOL    HW284003   2.969   1.112   7.582
94077SOL     OW84004   6.793   9.335   9.502
94077SOL    HW184005   6.834   9.316   9.418
94077SOL    HW284006   6.865   9.366   9.558
94078SOL     OW84007   4.151  10.512   0.560
94078SOL    HW184008   4.121  10.444   0.621
94078SOL    HW284009   4.234  10.543   0.597
94079SOL     OW84010   8.747  11.065  12.061
94079SOL    HW184011   8.806  11.018  12.002
94079SOL    HW284012   8.736  11.151  12.022
94080SOL     OW84013  11.857   5.781  10.938
94080SOL    HW184014  11.837   5.770  10.846
94080SOL    HW284015  11.795   5.724  10.984
94081SOL     OW84016   6.428   8.827  12.930
94081SOL    HW184017   6.427   8.734  12.951
94081SOL    HW284018   6.469   8.832  12.844
94082SOL     OW84019  10.083   7.943   8.090
94082SOL    HW184020  10.027   7.995   8.033
94082SOL    HW284021  10.026   7.915   8.161
94083SOL     OW84022  11.319  13.642  13.989
94083SOL    HW184023  11.331  13.733  14.018
94083SOL    HW284024  11.285  13.650  13.900
94084SOL     OW84025   6.670  13.171   8.456
94084SOL    HW184026   6.655  13.122   8.536
94084SOL    HW284027   6.712  13.108   8.397
94085SOL     OW84028   6.700   1.986  11.697
94085SOL    HW184029   6.780   1.949  11.734
94085SOL    HW284030   6.714   1.984  11.603
94086SOL     OW84031   2.699   6.618   6.462
94086SOL    HW184032   2.684   6.622   6.368
94086SOL    HW284033   2.722   6.527   6.479
94087SOL     OW84034   2.999  12.608  14.666
94087SOL    HW184035   2.994  12.513  14.678
94087SOL    HW284036   2.986  12.622  14.572
94088SOL     OW84037   6.407   9.558   2.404
94088SOL    HW184038   6.351   9.634   2.388
94088SOL    HW284039   6.350   9.483   2.391
94089SOL     OW84040   6.787   4.757   6.162
94089SOL    HW184041   6.693   4.764   6.148
94089SOL    HW284042   6.826   4.804   6.088
94090SOL     OW84043   8.327   0.466   5.190
94090SOL    HW184044   8.248   0.449   5.240
94090SOL    HW284045   8.399   0.453   5.253
94091SOL     OW84046   6.194   2.108  14.321
94091SOL    HW184047   6.229   2.192  14.350
94091SOL    HW284048   6.114   2.097  14.371
94092SOL     OW84049  10.504   8.711   8.192
94092SOL    HW184050  10.465   8.731   8.107
94092SOL    HW284051  10.428   8.700   8.250
94093SOL     OW84052  12.763   2.543   5.304
94093SOL    HW184053  12.834   2.482   5.325
94093SOL    HW284054  12.763   2.606   5.376
94094SOL     OW84055   6.098   6.358  14.222
94094SOL    HW184056   6.011   6.396  14.234
94094SOL    HW284057   6.081   6.268  14.195
94095SOL     OW84058   6.878   7.237   3.638
94095SOL    HW184059   6.797   7.236   3.689
94095SOL    HW284060   6.897   7.145   3.621
94096SOL     OW84061   3.465   2.607   7.857
94096SOL    HW184062   3.473   2.703   7.862
94096SOL    HW284063   3.376   2.593   7.825
94097SOL     OW84064  14.275   8.998   3.002
94097SOL    HW184065  14.329   8.937   3.053
94097SOL    HW284066  14.329   9.076   2.992
94098SOL     OW84067   3.898   9.167   9.993
94098SOL    HW184068   3.894   9.112  10.071
94098SOL    HW284069   3.871   9.110   9.922
94099SOL     OW84070   6.848  11.051   2.090
94099SOL    HW184071   6.871  10.960   2.109
94099SOL    HW284072   6.805  11.082   2.170
94100SOL     OW84073  12.598   1.505  14.066
94100SOL    HW184074  12.521   1.540  14.022
94100SOL    HW284075  12.658   1.580  14.071
94101SOL     OW84076   9.290   9.825   7.497
94101SOL    HW184077   9.225   9.756   7.486
94101SOL    HW284078   9.344   9.821   7.418
94102SOL     OW84079  14.476   4.050  14.403
94102SOL    HW184080  14.389   4.039  14.366
94102SOL    HW284081  14.480   3.986  14.474
94103SOL     OW84082  14.557   1.549   1.980
94103SOL    HW184083  14.596   1.501   1.907
94103SOL    HW284084  14.605   1.632   1.983
94104SOL     OW84085   8.023   5.853   2.201
94104SOL    HW184086   8.061   5.774   2.165
94104SOL    HW284087   8.090   5.920   2.188
94105SOL     OW84088   1.028  11.943  14.378
94105SOL    HW184089   1.019  11.867  14.435
94105SOL    HW284090   1.116  11.976  14.394
94106SOL     OW84091  14.645   2.333   4.431
94106SOL    HW184092  14.636   2.285   4.513
94106SOL    HW284093  14.556   2.360   4.410
94107SOL     OW84094   5.242   9.743  13.037
94107SOL    HW184095   5.220   9.650  13.044
94107SOL    HW284096   5.190   9.785  13.105
94108SOL     OW84097   6.137   9.921   4.751
94108SOL    HW184098   6.149   9.827   4.738
94108SOL    HW284099   6.225   9.954   4.773
94109SOL     OW84100   1.760  14.713   3.150
94109SOL    HW184101   1.695  14.782   3.166
94109SOL    HW284102   1.708  14.636   3.130
94110SOL     OW84103   1.652   1.948   4.270
94110SOL    HW184104   1.608   1.874   4.313
94110SOL    HW284105   1.682   2.003   4.343
94111SOL     OW84106   0.207  12.125  14.119
94111SOL    HW184107   0.256  12.079  14.051
94111SOL    HW284108   0.128  12.072  14.133
94112SOL     OW84109   4.047  14.839   4.959
94112SOL    HW184110   4.128  14.789   4.967
94112SOL    HW284111   3.982  14.789   5.006
94113SOL     OW84112   7.562   3.084   3.219
94113SOL    HW184113   7.625   3.018   3.191
94113SOL    HW284114   7.517   3.044   3.294
94114SOL     OW84115   0.685   8.996   7.174
94114SOL    HW184116   0.641   9.065   7.124
94114SOL    HW284117   0.641   8.915   7.146
94115SOL     OW84118  10.186  13.770  10.484
94115SOL    HW184119  10.147  13.703  10.427
94115SOL    HW284120  10.151  13.752  10.571
94116SOL     OW84121   8.894   3.782   7.725
94116SOL    HW184122   8.869   3.856   7.669
94116SOL    HW284123   8.950   3.728   7.669
94117SOL     OW84124   4.415   9.662   0.834
94117SOL    HW184125   4.444   9.749   0.806
94117SOL    HW284126   4.376   9.677   0.921
94118SOL     OW84127   4.145   2.214   5.527
94118SOL    HW184128   4.141   2.249   5.438
94118SOL    HW284129   4.237   2.222   5.552
94119SOL     OW84130   9.847  13.941   4.238
94119SOL    HW184131   9.827  14.006   4.305
94119SOL    HW284132   9.835  13.988   4.155
94120SOL     OW84133   2.536   1.909  12.365
94120SOL    HW184134   2.558   1.919  12.272
94120SOL    HW284135   2.441   1.904  12.366
94121SOL     OW84136   7.214   5.247   1.452
94121SOL    HW184137   7.305   5.225   1.434
94121SOL    HW284138   7.218   5.310   1.524
94122SOL     OW84139   1.460   7.444   8.860
94122SOL    HW184140   1.490   7.490   8.783
94122SOL    HW284141   1.364   7.449   8.856
94123SOL     OW84142   4.000  13.270   8.238
94123SOL    HW184143   4.028  13.361   8.245
94123SOL    HW284144   3.957  13.265   8.152
94124SOL     OW84145   4.624   2.609  11.523
94124SOL    HW184146   4.536   2.597  11.486
94124SOL    HW284147   4.610   2.610  11.618
94125SOL     OW84148   5.058   6.455   5.010
94125SOL    HW184149   5.007   6.445   5.091
94125SOL    HW284150   5.052   6.370   4.967
94126SOL     OW84151  10.919   8.377   9.097
94126SOL    HW184152  10.840   8.423   9.125
94126SOL    HW284153  10.888   8.316   9.030
94127SOL     OW84154  12.150  10.669   6.376
94127SOL    HW184155  12.100  10.620   6.442
94127SOL    HW284156  12.241  10.644   6.393
94128SOL     OW84157  10.031  11.554  13.238
94128SOL    HW184158  10.079  11.494  13.181
94128SOL    HW284159   9.943  11.515  13.245
94129SOL     OW84160  14.025  10.065   3.648
94129SOL    HW184161  13.995  10.146   3.606
94129SOL    HW284162  14.120  10.072   3.650
94130SOL     OW84163   1.958   0.493   0.078
94130SOL    HW184164   1.952   0.574   0.027
94130SOL    HW284165   2.031   0.507   0.138
94131SOL     OW84166   9.853   1.231   7.843
94131SOL    HW184167   9.772   1.181   7.834
94131SOL    HW284168   9.907   1.180   7.904
94132SOL     OW84169   5.953  10.200  13.951
94132SOL    HW184170   5.880  10.160  13.999
94132SOL    HW284171   6.006  10.241  14.019
94133SOL     OW84172   2.129  14.853   6.633
94133SOL    HW184173   2.036  14.837   6.616
94133SOL    HW284174   2.173  14.773   6.603
94134SOL     OW84175  10.691   6.665  13.036
94134SOL    HW184176  10.630   6.614  13.089
94134SOL    HW284177  10.760   6.604  13.011
94135SOL     OW84178  10.162  13.999  11.217
94135SOL    HW184179  10.117  13.998  11.132
94135SOL    HW284180  10.147  14.087  11.251
94136SOL     OW84181   2.331   4.408  12.639
94136SOL    HW184182   2.393   4.467  12.596
94136SOL    HW284183   2.367   4.394  12.726
94137SOL     OW84184  11.908   4.589   0.015
94137SOL    HW184185  11.847   4.663   0.017
94137SOL    HW284186  11.918   4.568  14.799
94138SOL     OW84187   9.707  10.210   8.814
94138SOL    HW184188   9.795  10.214   8.851
94138SOL    HW284189   9.702  10.124   8.772
94139SOL     OW84190  13.014  11.923   5.356
94139SOL    HW184191  13.089  11.867   5.373
94139SOL    HW284192  12.987  11.901   5.267
94140SOL     OW84193   2.514   3.420   8.560
94140SOL    HW184194   2.479   3.386   8.478
94140SOL    HW284195   2.444   3.475   8.596
94141SOL     OW84196   8.840  13.463  12.852
94141SOL    HW184197   8.749  13.461  12.878
94141SOL    HW284198   8.875  13.542  12.893
94142SOL     OW84199  13.231  12.594  12.802
94142SOL    HW184200  13.290  12.524  12.772
94142SOL    HW284201  13.198  12.562  12.887
94143SOL     OW84202   7.360   4.310   6.950
94143SOL    HW184203   7.303   4.278   6.880
94143SOL    HW284204   7.449   4.291   6.919
94144SOL     OW84205   2.379   8.436  10.673
94144SOL    HW184206   2.447   8.496  10.703
94144SOL    HW284207   2.299   8.489  10.669
94145SOL     OW84208  14.697  13.712  11.337
94145SOL    HW184209  14.713  13.633  11.286
94145SOL    HW284210  14.618  13.692  11.387
94146SOL     OW84211  13.372   1.590  14.087
94146SOL    HW184212  13.303   1.591  14.152
94146SOL    HW284213  13.385   1.682  14.064
94147SOL     OW84214  13.207   2.816  10.647
94147SOL    HW184215  13.119   2.849  10.628
94147SOL    HW284216  13.198   2.769  10.729
94148SOL     OW84217   7.250   1.047   6.514
94148SOL    HW184218   7.254   0.980   6.583
94148SOL    HW284219   7.252   0.996   6.433
94149SOL     OW84220   1.861   3.146  14.648
94149SOL    HW184221   1.769   3.150  14.673
94149SOL    HW284222   1.862   3.173  14.556
94150SOL     OW84223   6.957   5.225   9.640
94150SOL    HW184224   6.872   5.269   9.636
94150SOL    HW284225   6.983   5.215   9.549
94151SOL     OW84226  12.822  13.868  11.717
94151SOL    HW184227  12.780  13.854  11.632
94151SOL    HW284228  12.815  13.962  11.732
94152SOL     OW84229   5.453   8.138   0.617
94152SOL    HW184230   5.463   8.192   0.696
94152SOL    HW284231   5.472   8.198   0.545
94153SOL     OW84232   9.326  10.451   8.512
94153SOL    HW184233   9.373  10.404   8.443
94153SOL    HW284234   9.233  10.436   8.493
94154SOL     OW84235   7.428   1.867   7.125
94154SOL    HW184236   7.498   1.914   7.080
94154SOL    HW284237   7.427   1.905   7.213
94155SOL     OW84238   7.655   1.136   8.367
94155SOL    HW184239   7.695   1.049   8.356
94155SOL    HW284240   7.640   1.167   8.278
94156SOL     OW84241   1.966   2.428   6.247
94156SOL    HW184242   2.035   2.428   6.181
94156SOL    HW284243   2.010   2.405   6.328
94157SOL     OW84244  10.932  13.701   7.106
94157SOL    HW184245  10.960  13.703   7.197
94157SOL    HW284246  10.859  13.763   7.102
94158SOL     OW84247  14.095   4.628   1.887
94158SOL    HW184248  14.040   4.674   1.950
94158SOL    HW284249  14.038   4.559   1.852
94159SOL     OW84250   1.043   3.815   2.886
94159SOL    HW184251   1.064   3.873   2.959
94159SOL    HW284252   1.067   3.865   2.808
94160SOL     OW84253  14.867   5.774  11.224
94160SOL    HW184254  14.810   5.842  11.188
94160SOL    HW284255   0.009   5.804  11.313
94161SOL     OW84256   7.241  11.159  12.962
94161SOL    HW184257   7.296  11.115  12.897
94161SOL    HW284258   7.234  11.097  13.034
94162SOL     OW84259  13.444   7.432   0.162
94162SOL    HW184260  13.422   7.421   0.254
94162SOL    HW284261  13.498   7.355   0.141
94163SOL     OW84262   3.083  14.499  14.503
94163SOL    HW184263   3.110  14.555  14.430
94163SOL    HW284264   3.043  14.560  14.566
94164SOL     OW84265   5.799   5.259   8.362
94164SOL    HW184266   5.855   5.328   8.397
94164SOL    HW284267   5.849   5.219   8.292
94165SOL     OW84268  12.683   1.629   7.682
94165SOL    HW184269  12.765   1.612   7.729
94165SOL    HW284270  12.697   1.712   7.637
94166SOL     OW84271   5.175   3.184   7.442
94166SOL    HW184272   5.217   3.172   7.357
94166SOL    HW284273   5.237   3.237   7.492
94167SOL     OW84274   1.718  14.295  10.864
94167SOL    HW184275   1.801  14.331  10.833
94167SOL    HW284276   1.668  14.277  10.785
94168SOL     OW84277  11.307   2.596   0.731
94168SOL    HW184278  11.333   2.668   0.673
94168SOL    HW284279  11.387   2.573   0.777
94169SOL     OW84280   2.218   0.680   1.929
94169SOL    HW184281   2.153   0.613   1.950
94169SOL    HW284282   2.240   0.719   2.014
94170SOL     OW84283   2.146  14.415  11.840
94170SOL    HW184284   2.053  14.416  11.818
94170SOL    HW284285   2.148  14.420  11.936
94171SOL     OW84286   3.513  14.712  13.754
94171SOL    HW184287   3.523  14.738  13.662
94171SOL    HW284288   3.419  14.715  13.770
94172SOL     OW84289   7.682   8.384  13.395
94172SOL    HW184290   7.682   8.396  13.490
94172SOL    HW284291   7.770   8.412  13.368
94173SOL     OW84292  11.122   9.170   0.060
94173SOL    HW184293  11.166   9.115   0.125
94173SOL    HW284294  11.097   9.110  14.868
94174SOL     OW84295  14.558  10.588   2.196
94174SOL    HW184296  14.540  10.593   2.102
94174SOL    HW284297  14.473  10.602   2.238
94175SOL     OW84298  11.321  14.478  14.609
94175SOL    HW184299  11.337  14.515  14.695
94175SOL    HW284300  11.283  14.392  14.626
94176SOL     OW84301   5.479   0.057  11.173
94176SOL    HW184302   5.430   0.136  11.151
94176SOL    HW284303   5.557   0.089  11.218
94177SOL     OW84304   8.896  13.811  10.702
94177SOL    HW184305   8.860  13.741  10.647
94177SOL    HW284306   8.850  13.890  10.675
94178SOL     OW84307   0.151   0.595  11.840
94178SOL    HW184308   0.220   0.648  11.799
94178SOL    HW284309   0.197   0.519  11.876
94179SOL     OW84310  14.674   0.142  14.434
94179SOL    HW184311  14.675   0.166  14.342
94179SOL    HW284312  14.581   0.126  14.454
94180SOL     OW84313  13.021   6.920  13.333
94180SOL    HW184314  12.960   6.984  13.297
94180SOL    HW284315  13.083   6.973  13.383
94181SOL     OW84316   3.785  12.103   7.733
94181SOL    HW184317   3.851  12.038   7.708
94181SOL    HW284318   3.707  12.051   7.751
94182SOL     OW84319  12.149   0.076   9.974
94182SOL    HW184320  12.056   0.092   9.958
94182SOL    HW284321  12.154  14.859   9.988
94183SOL     OW84322  14.312   1.232  14.060
94183SOL    HW184323  14.279   1.163  14.003
94183SOL    HW284324  14.391   1.195  14.099
94184SOL     OW84325   1.408   7.691  11.844
94184SOL    HW184326   1.343   7.760  11.856
94184SOL    HW284327   1.370   7.614  11.886
94185SOL     OW84328   9.850   6.802   3.585
94185SOL    HW184329   9.940   6.771   3.594
94185SOL    HW284330   9.838   6.860   3.661
94186SOL     OW84331   9.371  10.874  14.348
94186SOL    HW184332   9.439  10.864  14.281
94186SOL    HW284333   9.290  10.851  14.304
94187SOL     OW84334  13.880   4.828  10.973
94187SOL    HW184335  13.965   4.845  11.013
94187SOL    HW284336  13.898   4.829  10.879
94188SOL     OW84337  14.355  11.180   4.713
94188SOL    HW184338  14.299  11.164   4.636
94188SOL    HW284339  14.428  11.119   4.702
94189SOL     OW84340  14.206  12.064   9.937
94189SOL    HW184341  14.276  12.128   9.947
94189SOL    HW284342  14.249  11.988   9.897
94190SOL     OW84343   2.653   4.852   9.279
94190SOL    HW184344   2.669   4.837   9.372
94190SOL    HW284345   2.664   4.946   9.268
94191SOL     OW84346   0.293  10.292   5.219
94191SOL    HW184347   0.215  10.339   5.188
94191SOL    HW284348   0.342  10.358   5.269
94192SOL     OW84349   1.053   7.704   5.975
94192SOL    HW184350   1.047   7.728   6.067
94192SOL    HW284351   1.122   7.637   5.972
94193SOL     OW84352   8.280  11.341   7.330
94193SOL    HW184353   8.213  11.363   7.265
94193SOL    HW284354   8.325  11.423   7.347
94194SOL     OW84355   1.202   7.590  11.481
94194SOL    HW184356   1.207   7.628  11.393
94194SOL    HW284357   1.160   7.505  11.467
94195SOL     OW84358  12.761   2.990   0.525
94195SOL    HW184359  12.845   3.022   0.492
94195SOL    HW284360  12.731   3.058   0.585
94196SOL     OW84361   9.242  11.477   6.737
94196SOL    HW184362   9.319  11.512   6.781
94196SOL    HW284363   9.261  11.488   6.644
94197SOL     OW84364  10.107   9.148  14.774
94197SOL    HW184365  10.141   9.188  14.853
94197SOL    HW284366  10.104   9.054  14.793
94198SOL     OW84367   7.199   4.498   6.237
94198SOL    HW184368   7.163   4.509   6.149
94198SOL    HW284369   7.126   4.464   6.289
94199SOL     OW84370   0.793   7.362   2.827
94199SOL    HW184371   0.860   7.298   2.850
94199SOL    HW284372   0.839   7.425   2.771
94200SOL     OW84373  10.434   7.732   2.633
94200SOL    HW184374  10.356   7.684   2.660
94200SOL    HW284375  10.504   7.695   2.687
94201SOL     OW84376   2.322   9.320   5.372
94201SOL    HW184377   2.379   9.273   5.433
94201SOL    HW284378   2.353   9.411   5.376
94202SOL     OW84379   8.764   3.839   2.358
94202SOL    HW184380   8.704   3.838   2.283
94202SOL    HW284381   8.719   3.789   2.426
94203SOL     OW84382  12.406   4.943   2.775
94203SOL    HW184383  12.342   4.876   2.800
94203SOL    HW284384  12.391   5.013   2.838
94204SOL     OW84385  14.173  14.547  11.759
94204SOL    HW184386  14.243  14.550  11.824
94204SOL    HW284387  14.108  14.609  11.791
94205SOL     OW84388  10.824   9.842   5.498
94205SOL    HW184389  10.849   9.885   5.580
94205SOL    HW284390  10.772   9.767   5.525
94206SOL     OW84391  12.371   3.528   6.348
94206SOL    HW184392  12.333   3.465   6.409
94206SOL    HW284393  12.297   3.561   6.298
94207SOL     OW84394   2.068   5.363   7.907
94207SOL    HW184395   2.118   5.314   7.842
94207SOL    HW284396   1.980   5.367   7.871
94208SOL     OW84397   2.736   1.262   4.329
94208SOL    HW184398   2.711   1.354   4.319
94208SOL    HW284399   2.819   1.264   4.376
94209SOL     OW84400   0.627   4.450  13.794
94209SOL    HW184401   0.634   4.377  13.856
94209SOL    HW284402   0.618   4.527  13.851
94210SOL     OW84403   1.515   9.030  13.666
94210SOL    HW184404   1.606   9.016  13.640
94210SOL    HW284405   1.471   8.948  13.647
94211SOL     OW84406  11.338   4.610   3.181
94211SOL    HW184407  11.418   4.644   3.140
94211SOL    HW284408  11.311   4.680   3.241
94212SOL     OW84409   5.070  14.838   4.787
94212SOL    HW184410   5.157  14.817   4.754
94212SOL    HW284411   5.032  14.753   4.811
94213SOL     OW84412  10.195  10.976   5.994
94213SOL    HW184413  10.155  10.913   6.055
94213SOL    HW284414  10.143  10.966   5.913
94214SOL     OW84415   9.578   9.424   5.426
94214SOL    HW184416   9.530   9.499   5.459
94214SOL    HW284417   9.668   9.436   5.457
94215SOL     OW84418   9.693   5.021  10.267
94215SOL    HW184419   9.625   5.037  10.202
94215SOL    HW284420   9.764   4.981  10.217
94216SOL     OW84421  12.040   5.652   6.572
94216SOL    HW184422  12.086   5.732   6.547
94216SOL    HW284423  11.958   5.655   6.521
94217SOL     OW84424   7.238   5.134   9.174
94217SOL    HW184425   7.322   5.096   9.151
94217SOL    HW284426   7.240   5.223   9.138
94218SOL     OW84427  10.549  12.064   5.000
94218SOL    HW184428  10.533  11.979   4.958
94218SOL    HW284429  10.592  12.042   5.082
94219SOL     OW84430   7.629   2.806   1.565
94219SOL    HW184431   7.720   2.787   1.586
94219SOL    HW284432   7.580   2.776   1.641
94220SOL     OW84433   8.224  13.166   3.740
94220SOL    HW184434   8.317  13.183   3.757
94220SOL    HW284435   8.194  13.245   3.694
94221SOL     OW84436   4.507   4.106   1.661
94221SOL    HW184437   4.490   4.017   1.693
94221SOL    HW284438   4.593   4.101   1.620
94222SOL     OW84439   5.122   9.105   3.257
94222SOL    HW184440   5.086   9.059   3.334
94222SOL    HW284441   5.095   9.051   3.183
94223SOL     OW84442   2.378   0.011   5.024
94223SOL    HW184443   2.360  14.801   5.058
94223SOL    HW284444   2.464   0.002   4.981
94224SOL     OW84445   6.731  12.963   0.109
94224SOL    HW184446   6.665  13.031   0.123
94224SOL    HW284447   6.815  13.011   0.113
94225SOL     OW84448   1.837   0.740   0.852
94225SOL    HW184449   1.878   0.824   0.871
94225SOL    HW284450   1.797   0.752   0.766
94226SOL     OW84451   6.145   5.336   7.403
94226SOL    HW184452   6.066   5.365   7.358
94226SOL    HW284453   6.123   5.340   7.496
94227SOL     OW84454   4.704  12.853  12.258
94227SOL    HW184455   4.639  12.920  12.240
94227SOL    HW284456   4.680  12.781  12.199
94228SOL     OW84457   8.734  13.609   6.083
94228SOL    HW184458   8.806  13.664   6.115
94228SOL    HW284459   8.762  13.582   5.996
94229SOL     OW84460   1.653   3.773  13.938
94229SOL    HW184461   1.746   3.776  13.917
94229SOL    HW284462   1.646   3.703  14.004
94230SOL     OW84463   4.853   3.569   0.549
94230SOL    HW184464   4.815   3.657   0.554
94230SOL    HW284465   4.945   3.581   0.573
94231SOL     OW84466   9.243  12.447  11.459
94231SOL    HW184467   9.336  12.423  11.466
94231SOL    HW284468   9.202  12.371  11.418
94232SOL     OW84469   2.570   7.641   0.166
94232SOL    HW184470   2.611   7.572   0.114
94232SOL    HW284471   2.641   7.675   0.220
94233SOL     OW84472   4.009  13.149   2.577
94233SOL    HW184473   4.036  13.178   2.664
94233SOL    HW284474   4.091  13.125   2.534
94234SOL     OW84475   9.298  13.848   5.800
94234SOL    HW184476   9.267  13.797   5.725
94234SOL    HW284477   9.276  13.793   5.876
94235SOL     OW84478   5.645  10.550   2.533
94235SOL    HW184479   5.611  10.637   2.512
94235SOL    HW284480   5.664  10.555   2.627
94236SOL     OW84481   7.743  10.934   7.067
94236SOL    HW184482   7.773  10.913   7.156
94236SOL    HW284483   7.699  11.018   7.076
94237SOL     OW84484   8.251   9.557  13.493
94237SOL    HW184485   8.274   9.465  13.501
94237SOL    HW284486   8.179   9.559  13.430
94238SOL     OW84487   5.670   8.780   2.526
94238SOL    HW184488   5.717   8.823   2.597
94238SOL    HW284489   5.692   8.687   2.535
94239SOL     OW84490   0.849   8.928  10.098
94239SOL    HW184491   0.893   9.013  10.098
94239SOL    HW284492   0.756   8.950  10.089
94240SOL     OW84493   1.967   7.963  11.300
94240SOL    HW184494   2.054   7.987  11.329
94240SOL    HW284495   1.917   7.951  11.381
94241SOL     OW84496   8.647   9.098  13.415
94241SOL    HW184497   8.661   9.084  13.509
94241SOL    HW284498   8.568   9.152  13.410
94242SOL     OW84499  12.067  12.699   0.073
94242SOL    HW184500  12.143  12.758   0.081
94242SOL    HW284501  12.051  12.695  14.856
94243SOL     OW84502   5.530   9.667   0.556
94243SOL    HW184503   5.603   9.605   0.556
94243SOL    HW284504   5.457   9.617   0.594
94244SOL     OW84505   5.207  12.610   0.350
94244SOL    HW184506   5.232  12.562   0.429
94244SOL    HW284507   5.175  12.694   0.382
94245SOL     OW84508  14.801  12.346  10.249
94245SOL    HW184509  14.846  12.310  10.325
94245SOL    HW284510  14.854  12.422  10.223
94246SOL     OW84511   4.482   1.310   6.748
94246SOL    HW184512   4.439   1.396   6.751
94246SOL    HW284513   4.526   1.307   6.663
94247SOL     OW84514  14.360   1.804   8.568
94247SOL    HW184515  14.326   1.832   8.653
94247SOL    HW284516  14.453   1.788   8.584
94248SOL     OW84517   2.727   4.555   3.576
94248SOL    HW184518   2.696   4.536   3.665
94248SOL    HW284519   2.784   4.481   3.554
94249SOL     OW84520   6.763   1.853   2.931
94249SOL    HW184521   6.774   1.758   2.942
94249SOL    HW284522   6.850   1.884   2.905
94250SOL     OW84523   0.294   7.110   7.240
94250SOL    HW184524   0.247   7.155   7.170
94250SOL    HW284525   0.334   7.034   7.197
94251SOL     OW84526  10.960  11.276  14.565
94251SOL    HW184527  11.025  11.325  14.514
94251SOL    HW284528  10.956  11.190  14.523
94252SOL     OW84529   3.884   8.261   8.947
94252SOL    HW184530   3.885   8.182   9.000
94252SOL    HW284531   3.975   8.290   8.945
94253SOL     OW84532   9.207   8.335  11.422
94253SOL    HW184533   9.260   8.414  11.411
94253SOL    HW284534   9.218   8.287  11.340
94254SOL     OW84535  12.468  10.884  12.973
94254SOL    HW184536  12.391  10.891  13.028
94254SOL    HW284537  12.521  10.815  13.013
94255SOL     OW84538   0.581   8.741  11.422
94255SOL    HW184539   0.664   8.721  11.466
94255SOL    HW284540   0.514   8.726  11.489
94256SOL     OW84541  12.095  12.615   3.124
94256SOL    HW184542  12.136  12.626   3.210
94256SOL    HW284543  12.121  12.527   3.097
94257SOL     OW84544   8.138   9.977   4.075
94257SOL    HW184545   8.091  10.058   4.053
94257SOL    HW284546   8.221  10.006   4.111
94258SOL     OW84547   1.771   8.587   6.524
94258SOL    HW184548   1.770   8.597   6.429
94258SOL    HW284549   1.859   8.613   6.550
94259SOL     OW84550   7.026  12.431   5.607
94259SOL    HW184551   7.072  12.350   5.628
94259SOL    HW284552   7.025  12.435   5.512
94260SOL     OW84553   9.515   9.060   4.019
94260SOL    HW184554   9.494   8.978   4.064
94260SOL    HW284555   9.430   9.096   3.994
94261SOL     OW84556  10.432   9.774  11.546
94261SOL    HW184557  10.456   9.683  11.530
94261SOL    HW284558  10.461   9.790  11.636
94262SOL     OW84559   8.433   4.097   0.151
94262SOL    HW184560   8.471   4.014   0.122
94262SOL    HW284561   8.399   4.078   0.238
94263SOL     OW84562   0.790   0.123   0.250
94263SOL    HW184563   0.700   0.146   0.273
94263SOL    HW284564   0.824   0.079   0.328
94264SOL     OW84565   9.216   7.868   1.426
94264SOL    HW184566   9.140   7.821   1.462
94264SOL    HW284567   9.281   7.864   1.496
94265SOL     OW84568  11.750  11.613   2.752
94265SOL    HW184569  11.758  11.637   2.844
94265SOL    HW284570  11.818  11.663   2.708
94266SOL     OW84571   5.780  11.185   7.465
94266SOL    HW184572   5.748  11.274   7.452
94266SOL    HW284573   5.844  11.193   7.536
94267SOL     OW84574  11.366   4.447   4.971
94267SOL    HW184575  11.352   4.448   5.066
94267SOL    HW284576  11.459   4.428   4.960
94268SOL     OW84577   5.841   3.590   5.963
94268SOL    HW184578   5.780   3.596   5.890
94268SOL    HW284579   5.821   3.507   6.005
94269SOL     OW84580   4.967  10.862   8.742
94269SOL    HW184581   5.050  10.822   8.714
94269SOL    HW284582   4.986  10.895   8.830
94270SOL     OW84583   9.167   7.717   5.596
94270SOL    HW184584   9.119   7.761   5.526
94270SOL    HW284585   9.256   7.710   5.563
94271SOL     OW84586   4.083   6.170   0.165
94271SOL    HW184587   4.046   6.257   0.152
94271SOL    HW284588   4.075   6.127   0.080
94272SOL     OW84589   2.478  10.530  12.375
94272SOL    HW184590   2.554  10.497  12.327
94272SOL    HW284591   2.403  10.507  12.320
94273SOL     OW84592   2.409   5.836  10.884
94273SOL    HW184593   2.379   5.867  10.969
94273SOL    HW284594   2.466   5.762  10.905
94274SOL     OW84595   4.046   9.471   2.658
94274SOL    HW184596   3.979   9.456   2.724
94274SOL    HW284597   4.031   9.560   2.628
94275SOL     OW84598  13.822  11.405   2.638
94275SOL    HW184599  13.744  11.350   2.645
94275SOL    HW284600  13.823  11.432   2.546
94276SOL     OW84601   7.825   9.983   6.731
94276SOL    HW184602   7.887  10.056   6.723
94276SOL    HW284603   7.742  10.018   6.699
94277SOL     OW84604  12.385  11.017   4.054
94277SOL    HW184605  12.347  11.043   3.970
94277SOL    HW284606  12.360  11.088   4.114
94278SOL     OW84607   2.617  13.551   6.584
94278SOL    HW184608   2.565  13.620   6.543
94278SOL    HW284609   2.553  13.486   6.612
94279SOL     OW84610   1.087   9.542   3.264
94279SOL    HW184611   1.096   9.450   3.241
94279SOL    HW284612   1.034   9.579   3.194
94280SOL     OW84613   9.402  10.318   6.469
94280SOL    HW184614   9.481  10.370   6.454
94280SOL    HW284615   9.430  10.251   6.532
94281SOL     OW84616  10.836   8.085  11.565
94281SOL    HW184617  10.800   8.173  11.581
94281SOL    HW284618  10.850   8.082  11.470
94282SOL     OW84619   2.926   0.499  12.085
94282SOL    HW184620   2.860   0.545  12.033
94282SOL    HW284621   3.008   0.509  12.036
94283SOL     OW84622   8.871   7.385  11.786
94283SOL    HW184623   8.864   7.316  11.720
94283SOL    HW284624   8.811   7.453  11.756
94284SOL     OW84625   2.741   8.942   5.174
94284SOL    HW184626   2.746   8.851   5.145
94284SOL    HW284627   2.798   8.989   5.113
94285SOL     OW84628  11.382  13.633   1.845
94285SOL    HW184629  11.404  13.569   1.777
94285SOL    HW284630  11.291  13.657   1.826
94286SOL     OW84631  11.884  13.009   6.399
94286SOL    HW184632  11.798  12.974   6.419
94286SOL    HW284633  11.941  12.933   6.392
94287SOL     OW84634  14.835   5.291  14.072
94287SOL    HW184635  14.782   5.268  14.149
94287SOL    HW284636   0.048   5.287  14.103
94288SOL     OW84637   9.222   7.838   3.952
94288SOL    HW184638   9.294   7.868   4.007
94288SOL    HW284639   9.176   7.918   3.925
94289SOL     OW84640   7.110   3.004   2.153
94289SOL    HW184641   7.167   3.080   2.163
94289SOL    HW284642   7.160   2.944   2.096
94290SOL     OW84643   8.351  10.387   5.749
94290SOL    HW184644   8.422  10.361   5.689
94290SOL    HW284645   8.390  10.379   5.836
94291SOL     OW84646   7.078  12.458   2.889
94291SOL    HW184647   7.170  12.469   2.865
94291SOL    HW284648   7.032  12.521   2.834
94292SOL     OW84649  10.762   0.676  13.796
94292SOL    HW184650  10.743   0.599  13.849
94292SOL    HW284651  10.677   0.701  13.759
94293SOL     OW84652  13.287  10.036  14.023
94293SOL    HW184653  13.330  10.034  14.109
94293SOL    HW284654  13.307   9.951  13.984
94294SOL     OW84655   8.109   2.942   9.352
94294SOL    HW184656   8.159   2.934   9.433
94294SOL    HW284657   8.097   2.851   9.323
94295SOL     OW84658   5.149   6.253  14.323
94295SOL    HW184659   5.078   6.297  14.275
94295SOL    HW284660   5.112   6.236  14.410
94296SOL     OW84661   4.204   3.760  12.988
94296SOL    HW184662   4.209   3.664  12.991
94296SOL    HW284663   4.110   3.779  12.990
94297SOL     OW84664   7.749   5.391   6.985
94297SOL    HW184665   7.821   5.330   6.965
94297SOL    HW284666   7.716   5.417   6.899
94298SOL     OW84667  12.029  11.695   1.973
94298SOL    HW184668  12.057  11.677   1.883
94298SOL    HW284669  11.935  11.711   1.966
94299SOL     OW84670  11.141   0.816   3.133
94299SOL    HW184671  11.108   0.906   3.132
94299SOL    HW284672  11.236   0.826   3.145
94300SOL     OW84673   1.031   3.651   2.200
94300SOL    HW184674   1.094   3.712   2.238
94300SOL    HW284675   1.081   3.571   2.185
94301SOL     OW84676  12.895  12.794  10.582
94301SOL    HW184677  12.918  12.786  10.489
94301SOL    HW284678  12.800  12.796  10.583
94302SOL     OW84679  14.323   3.221  10.030
94302SOL    HW184680  14.391   3.211  10.097
94302SOL    HW284681  14.303   3.315  10.029
94303SOL     OW84682  12.275   5.273   6.338
94303SOL    HW184683  12.240   5.323   6.265
94303SOL    HW284684  12.333   5.334   6.384
94304SOL     OW84685   7.857  10.663   0.942
94304SOL    HW184686   7.844  10.569   0.927
94304SOL    HW284687   7.863  10.671   1.038
94305SOL     OW84688   2.444  13.002  12.186
94305SOL    HW184689   2.413  13.086  12.219
94305SOL    HW284690   2.487  12.961  12.262
94306SOL     OW84691   6.807   9.846   1.518
94306SOL    HW184692   6.741   9.786   1.483
94306SOL    HW284693   6.889   9.798   1.513
94307SOL     OW84694   2.609   5.730   7.168
94307SOL    HW184695   2.565   5.787   7.231
94307SOL    HW284696   2.544   5.664   7.145
94308SOL     OW84697   8.199   5.832   1.654
94308SOL    HW184698   8.153   5.897   1.707
94308SOL    HW284699   8.197   5.869   1.565
94309SOL     OW84700   2.061   7.984  10.265
94309SOL    HW184701   2.080   8.042  10.191
94309SOL    HW284702   2.118   8.016  10.335
94310SOL     OW84703   5.341   2.108  10.832
94310SOL    HW184704   5.275   2.101  10.902
94310SOL    HW284705   5.408   2.166  10.868
94311SOL     OW84706   4.408   8.153   0.779
94311SOL    HW184707   4.340   8.216   0.805
94311SOL    HW284708   4.430   8.179   0.689
94312SOL     OW84709   4.235  11.131  10.090
94312SOL    HW184710   4.172  11.191  10.049
94312SOL    HW284711   4.319  11.156  10.052
94313SOL     OW84712   4.135   5.730  12.711
94313SOL    HW184713   4.161   5.659  12.652
94313SOL    HW284714   4.208   5.740  12.772
94314SOL     OW84715  14.563   2.281  13.257
94314SOL    HW184716  14.626   2.352  13.260
94314SOL    HW284717  14.536   2.268  13.348
94315SOL     OW84718   5.961  10.170   0.438
94315SOL    HW184719   5.883  10.116   0.436
94315SOL    HW284720   5.960  10.216   0.354
94316SOL     OW84721   3.445   1.233  13.125
94316SOL    HW184722   3.512   1.297  13.149
94316SOL    HW284723   3.362   1.277  13.141
94317SOL     OW84724   4.927   7.105   3.780
94317SOL    HW184725   4.909   7.086   3.872
94317SOL    HW284726   4.988   7.037   3.752
94318SOL     OW84727   7.514   8.782  13.963
94318SOL    HW184728   7.438   8.812  13.913
94318SOL    HW284729   7.520   8.842  14.037
94319SOL     OW84730  11.933   0.717   7.764
94319SOL    HW184731  11.878   0.670   7.701
94319SOL    HW284732  11.887   0.706   7.848
94320SOL     OW84733   2.096   7.571  13.789
94320SOL    HW184734   2.096   7.588  13.883
94320SOL    HW284735   2.017   7.614  13.757
94321SOL     OW84736   2.515  12.874   7.817
94321SOL    HW184737   2.483  12.784   7.819
94321SOL    HW284738   2.546  12.890   7.906
94322SOL     OW84739   5.736  12.387   5.619
94322SOL    HW184740   5.653  12.389   5.665
94322SOL    HW284741   5.715  12.350   5.533
94323SOL     OW84742   9.501  12.136   7.434
94323SOL    HW184743   9.437  12.206   7.446
94323SOL    HW284744   9.458  12.074   7.376
94324SOL     OW84745  12.645   5.474   9.439
94324SOL    HW184746  12.550   5.479   9.433
94324SOL    HW284747  12.677   5.537   9.375
94325SOL     OW84748   3.580   4.654   6.998
94325SOL    HW184749   3.648   4.717   6.976
94325SOL    HW284750   3.578   4.594   6.924
94326SOL     OW84751   4.936  12.557   5.971
94326SOL    HW184752   4.860  12.615   5.981
94326SOL    HW284753   5.011  12.613   5.989
94327SOL     OW84754   3.063   9.398   5.940
94327SOL    HW184755   3.027   9.457   6.007
94327SOL    HW284756   3.005   9.323   5.941
94328SOL     OW84757   2.963   1.985   1.009
94328SOL    HW184758   3.005   2.047   1.069
94328SOL    HW284759   2.870   2.004   1.016
94329SOL     OW84760  10.576   3.508   3.304
94329SOL    HW184761  10.537   3.546   3.225
94329SOL    HW284762  10.574   3.579   3.368
94330SOL     OW84763   5.973  13.749  10.463
94330SOL    HW184764   5.887  13.744  10.505
94330SOL    HW284765   5.976  13.672  10.405
94331SOL     OW84766   9.564  14.469   6.109
94331SOL    HW184767   9.483  14.498   6.149
94331SOL    HW284768   9.625  14.541   6.123
94332SOL     OW84769   4.258   0.868  12.766
94332SOL    HW184770   4.269   0.962  12.757
94332SOL    HW284771   4.311   0.831  12.695
94333SOL     OW84772   3.378   6.545  12.138
94333SOL    HW184773   3.311   6.496  12.186
94333SOL    HW284774   3.341   6.633  12.129
94334SOL     OW84775   5.384   7.432   7.320
94334SOL    HW184776   5.356   7.359   7.264
94334SOL    HW284777   5.436   7.391   7.389
94335SOL     OW84778   7.143   1.214  11.058
94335SOL    HW184779   7.114   1.305  11.061
94335SOL    HW284780   7.063   1.164  11.044
94336SOL     OW84781   9.177   7.621   4.110
94336SOL    HW184782   9.184   7.545   4.052
94336SOL    HW284783   9.179   7.696   4.052
94337SOL     OW84784  14.274   6.313  13.612
94337SOL    HW184785  14.266   6.370  13.536
94337SOL    HW284786  14.241   6.228  13.583
94338SOL     OW84787   5.604   8.642   2.038
94338SOL    HW184788   5.682   8.671   1.990
94338SOL    HW284789   5.557   8.587   1.976
94339SOL     OW84790   2.093   1.189   1.870
94339SOL    HW184791   2.182   1.180   1.903
94339SOL    HW284792   2.038   1.144   1.934
94340SOL     OW84793   3.741   4.392   9.850
94340SOL    HW184794   3.697   4.408   9.766
94340SOL    HW284795   3.789   4.310   9.837
94341SOL     OW84796  12.113  12.998   8.959
94341SOL    HW184797  12.146  12.910   8.945
94341SOL    HW284798  12.167  13.053   8.903
94342SOL     OW84799  11.632   4.332  12.961
94342SOL    HW184800  11.567   4.263  12.972
94342SOL    HW284801  11.687   4.302  12.889
94343SOL     OW84802  11.991  12.328   6.738
94343SOL    HW184803  12.022  12.322   6.648
94343SOL    HW284804  12.069  12.352   6.788
94344SOL     OW84805   0.170   8.722   0.943
94344SOL    HW184806   0.259   8.757   0.941
94344SOL    HW284807   0.165   8.673   1.025
94345SOL     OW84808  10.801   9.971   6.580
94345SOL    HW184809  10.769  10.036   6.642
94345SOL    HW284810  10.846   9.906   6.634
94346SOL     OW84811   7.996   4.006  14.599
94346SOL    HW184812   7.903   3.990  14.579
94346SOL    HW284813   8.003   3.991  14.693
94347SOL     OW84814  10.995  13.320   8.954
94347SOL    HW184815  10.988  13.265   9.032
94347SOL    HW284816  10.926  13.288   8.896
94348SOL     OW84817   6.762   0.319  12.576
94348SOL    HW184818   6.754   0.227  12.554
94348SOL    HW284819   6.788   0.319  12.668
94349SOL     OW84820   5.515   1.647   0.166
94349SOL    HW184821   5.491   1.734   0.136
94349SOL    HW284822   5.595   1.626   0.118
94350SOL     OW84823   2.871   0.502   4.023
94350SOL    HW184824   2.875   0.473   4.114
94350SOL    HW284825   2.877   0.422   3.972
94351SOL     OW84826   2.343  10.101   7.077
94351SOL    HW184827   2.252  10.130   7.067
94351SOL    HW284828   2.347  10.068   7.167
94352SOL     OW84829   6.357  10.339   1.571
94352SOL    HW184830   6.264  10.328   1.593
94352SOL    HW284831   6.360  10.417   1.516
94353SOL     OW84832  11.321   4.790  12.106
94353SOL    HW184833  11.369   4.867  12.076
94353SOL    HW284834  11.244   4.826  12.150
94354SOL     OW84835  10.874   6.250   3.812
94354SOL    HW184836  10.821   6.281   3.886
94354SOL    HW284837  10.906   6.164   3.839
94355SOL     OW84838   8.612   5.448   1.857
94355SOL    HW184839   8.705   5.452   1.880
94355SOL    HW284840   8.574   5.523   1.903
94356SOL     OW84841   8.200  12.164   6.632
94356SOL    HW184842   8.264  12.196   6.568
94356SOL    HW284843   8.182  12.239   6.687
94357SOL     OW84844   8.273  10.880   3.303
94357SOL    HW184845   8.318  10.807   3.345
94357SOL    HW284846   8.190  10.844   3.273
94358SOL     OW84847   0.145   9.364  12.723
94358SOL    HW184848   0.211   9.373  12.654
94358SOL    HW284849   0.069   9.327  12.679
94359SOL     OW84850   3.118   6.381   0.138
94359SOL    HW184851   3.158   6.467   0.146
94359SOL    HW284852   3.087   6.377   0.048
94360SOL     OW84853  14.163   4.827  10.957
94360SOL    HW184854  14.196   4.740  10.976
94360SOL    HW284855  14.239   4.885  10.970
94361SOL     OW84856   7.889   4.816   4.677
94361SOL    HW184857   7.904   4.733   4.632
94361SOL    HW284858   7.808   4.850   4.637
94362SOL     OW84859   0.702  13.562  12.391
94362SOL    HW184860   0.767  13.579  12.322
94362SOL    HW284861   0.698  13.467  12.396
94363SOL     OW84862  10.153  12.608  10.157
94363SOL    HW184863  10.160  12.513  10.168
94363SOL    HW284864  10.061  12.623  10.138
94364SOL     OW84865   7.987   0.254   2.301
94364SOL    HW184866   7.986   0.238   2.396
94364SOL    HW284867   7.936   0.334   2.289
94365SOL     OW84868   5.265  12.336   1.646
94365SOL    HW184869   5.319  12.284   1.586
94365SOL    HW284870   5.312  12.331   1.730
94366SOL     OW84871  10.123   1.971   2.913
94366SOL    HW184872  10.140   2.065   2.904
94366SOL    HW284873  10.046   1.966   2.970
94367SOL     OW84874   7.859   8.595  10.757
94367SOL    HW184875   7.935   8.572  10.703
94367SOL    HW284876   7.871   8.688  10.777
94368SOL     OW84877  10.330  10.218   9.310
94368SOL    HW184878  10.277  10.138   9.313
94368SOL    HW284879  10.340  10.237   9.217
94369SOL     OW84880   9.199  10.167  14.598
94369SOL    HW184881   9.278  10.153  14.545
94369SOL    HW284882   9.183  10.261  14.592
94370SOL     OW84883   5.402  14.058   2.664
94370SOL    HW184884   5.460  14.017   2.600
94370SOL    HW284885   5.396  13.994   2.735
94371SOL     OW84886   1.755   9.510   1.124
94371SOL    HW184887   1.733   9.560   1.202
94371SOL    HW284888   1.671   9.497   1.079
94372SOL     OW84889   6.478  11.844   8.040
94372SOL    HW184890   6.535  11.768   8.053
94372SOL    HW284891   6.401  11.809   7.995
94373SOL     OW84892   4.579   4.764   3.816
94373SOL    HW184893   4.583   4.739   3.724
94373SOL    HW284894   4.488   4.746   3.841
94374SOL     OW84895   9.641  12.094   8.094
94374SOL    HW184896   9.682  12.107   8.008
94374SOL    HW284897   9.687  12.153   8.152
94375SOL     OW84898  12.946   5.617  14.441
94375SOL    HW184899  12.856   5.647  14.435
94375SOL    HW284900  12.944   5.529  14.402
94376SOL     OW84901   7.682   9.610   9.083
94376SOL    HW184902   7.698   9.544   9.150
94376SOL    HW284903   7.708   9.568   9.001
94377SOL     OW84904  11.061   5.136  12.949
94377SOL    HW184905  11.022   5.049  12.948
94377SOL    HW284906  11.116   5.136  13.028
94378SOL     OW84907   5.240  11.723  10.707
94378SOL    HW184908   5.321  11.750  10.751
94378SOL    HW284909   5.191  11.674  10.774
94379SOL     OW84910  14.628  12.085   0.730
94379SOL    HW184911  14.720  12.060   0.728
94379SOL    HW284912  14.626  12.163   0.786
94380SOL     OW84913  14.823   8.518  14.536
94380SOL    HW184914  14.821   8.522  14.632
94380SOL    HW284915  14.742   8.473  14.513
94381SOL     OW84916   4.602   0.411   3.254
94381SOL    HW184917   4.589   0.337   3.314
94381SOL    HW284918   4.691   0.440   3.271
94382SOL     OW84919  11.798  10.456   7.729
94382SOL    HW184920  11.843  10.539   7.745
94382SOL    HW284921  11.816  10.404   7.807
94383SOL     OW84922   8.167  10.418   4.859
94383SOL    HW184923   8.121  10.501   4.873
94383SOL    HW284924   8.099  10.358   4.827
94384SOL     OW84925  10.519  13.185   5.574
94384SOL    HW184926  10.498  13.241   5.499
94384SOL    HW284927  10.434  13.154   5.605
94385SOL     OW84928   5.454   1.890   0.098
94385SOL    HW184929   5.491   1.928   0.178
94385SOL    HW284930   5.456   1.961   0.034
94386SOL     OW84931  11.683   2.147   4.801
94386SOL    HW184932  11.599   2.136   4.846
94386SOL    HW284933  11.664   2.122   4.710
94387SOL     OW84934  14.176   4.199   6.134
94387SOL    HW184935  14.112   4.207   6.063
94387SOL    HW284936  14.136   4.138   6.196
94388SOL     OW84937  13.553   9.490   8.293
94388SOL    HW184938  13.634   9.467   8.248
94388SOL    HW284939  13.484   9.460   8.234
94389SOL     OW84940   2.399   9.044   7.968
94389SOL    HW184941   2.422   8.962   7.925
94389SOL    HW284942   2.354   9.017   8.048
94390SOL     OW84943   5.309   7.015   3.909
94390SOL    HW184944   5.268   6.982   3.829
94390SOL    HW284945   5.318   7.109   3.894
94391SOL     OW84946  13.058   8.032   5.207
94391SOL    HW184947  13.062   7.956   5.149
94391SOL    HW284948  13.150   8.059   5.217
94392SOL     OW84949  11.748   0.481   4.099
94392SOL    HW184950  11.701   0.548   4.148
94392SOL    HW284951  11.693   0.465   4.022
94393SOL     OW84952   8.153  11.324   8.615
94393SOL    HW184953   8.097  11.299   8.688
94393SOL    HW284954   8.238  11.343   8.655
94394SOL     OW84955   0.976   2.367  10.987
94394SOL    HW184956   0.952   2.441  11.043
94394SOL    HW284957   1.051   2.399  10.937
94395SOL     OW84958   5.572   9.717   7.665
94395SOL    HW184959   5.561   9.767   7.583
94395SOL    HW284960   5.641   9.764   7.712
94396SOL     OW84961  11.662  12.462   0.619
94396SOL    HW184962  11.693  12.475   0.708
94396SOL    HW284963  11.740  12.435   0.570
94397SOL     OW84964  11.348  13.884   4.129
94397SOL    HW184965  11.404  13.875   4.206
94397SOL    HW284966  11.263  13.908   4.164
94398SOL     OW84967   0.846   6.565  12.368
94398SOL    HW184968   0.781   6.597  12.306
94398SOL    HW284969   0.859   6.638  12.429
94399SOL     OW84970   9.877  12.994   1.803
94399SOL    HW184971   9.924  12.911   1.789
94399SOL    HW284972   9.789  12.977   1.770
94400SOL     OW84973  10.018   8.373   5.836
94400SOL    HW184974  10.023   8.457   5.882
94400SOL    HW284975   9.927   8.345   5.848
94401SOL     OW84976   0.615   0.916  11.475
94401SOL    HW184977   0.627   0.838  11.422
94401SOL    HW284978   0.535   0.957  11.441
94402SOL     OW84979   9.183  12.085   2.110
94402SOL    HW184980   9.205  12.166   2.064
94402SOL    HW284981   9.205  12.015   2.049
94403SOL     OW84982   8.312   9.594   8.483
94403SOL    HW184983   8.244   9.543   8.527
94403SOL    HW284984   8.387   9.589   8.542
94404SOL     OW84985  14.420  10.485  11.342
94404SOL    HW184986  14.366  10.422  11.389
94404SOL    HW284987  14.467  10.533  11.410
94405SOL     OW84988   0.314  12.498   4.618
94405SOL    HW184989   0.407  12.503   4.595
94405SOL    HW284990   0.309  12.428   4.683
94406SOL     OW84991  13.272   0.336  12.382
94406SOL    HW184992  13.187   0.296  12.364
94406SOL    HW284993  13.262   0.428  12.357
94407SOL     OW84994   8.552   4.301   4.117
94407SOL    HW184995   8.642   4.326   4.137
94407SOL    HW284996   8.545   4.210   4.149
94408SOL     OW84997   5.326   1.417   7.056
94408SOL    HW184998   5.395   1.481   7.037
94408SOL    HW284999   5.251   1.471   7.083
94409SOL     OW85000  11.619   0.008  10.143
94409SOL    HW185001  11.613   0.053  10.228
94409SOL    HW285002  11.681  14.814  10.159
94410SOL     OW85003   8.577   4.972  13.218
94410SOL    HW185004   8.540   4.923  13.144
94410SOL    HW285005   8.540   4.930  13.295
94411SOL     OW85006  12.684   5.666   4.978
94411SOL    HW185007  12.767   5.621   4.992
94411SOL    HW285008  12.708   5.747   4.931
94412SOL     OW85009   0.876  11.014   0.033
94412SOL    HW185010   0.948  11.003   0.095
94412SOL    HW285011   0.797  11.002   0.086
94413SOL     OW85012   3.272  10.605   3.406
94413SOL    HW185013   3.244  10.514   3.411
94413SOL    HW285014   3.193  10.653   3.384
94414SOL     OW85015  11.106   7.313   2.811
94414SOL    HW185016  11.055   7.268   2.743
94414SOL    HW285017  11.191   7.268   2.811
94415SOL     OW85018   9.551   4.212  14.676
94415SOL    HW185019   9.572   4.236  14.766
94415SOL    HW285020   9.571   4.290  14.625
94416SOL     OW85021   3.146   7.082  10.998
94416SOL    HW185022   3.170   7.074  10.906
94416SOL    HW285023   3.199   7.016  11.043
94417SOL     OW85024   2.600   1.657   8.780
94417SOL    HW185025   2.674   1.605   8.812
94417SOL    HW285026   2.620   1.746   8.809
94418SOL     OW85027   7.890   2.053   7.507
94418SOL    HW185028   7.849   2.020   7.427
94418SOL    HW285029   7.917   1.974   7.554
94419SOL     OW85030   4.677   0.848   1.619
94419SOL    HW185031   4.746   0.836   1.554
94419SOL    HW285032   4.722   0.884   1.695
94420SOL     OW85033   8.323   2.708   7.777
94420SOL    HW185034   8.353   2.650   7.847
94420SOL    HW285035   8.261   2.655   7.727
94421SOL     OW85036  12.820   1.510   4.273
94421SOL    HW185037  12.744   1.498   4.215
94421SOL    HW285038  12.793   1.578   4.334
94422SOL     OW85039   4.228   7.370   2.942
94422SOL    HW185040   4.185   7.445   2.901
94422SOL    HW285041   4.157   7.323   2.986
94423SOL     OW85042   9.407   5.854   2.679
94423SOL    HW185043   9.382   5.793   2.748
94423SOL    HW285044   9.331   5.857   2.621
94424SOL     OW85045   0.751   7.389  11.566
94424SOL    HW185046   0.762   7.406  11.472
94424SOL    HW285047   0.666   7.346  11.573
94425SOL     OW85048   5.972   6.555   1.546
94425SOL    HW185049   6.005   6.645   1.539
94425SOL    HW285050   6.051   6.501   1.547
94426SOL     OW85051  14.414   4.782   7.996
94426SOL    HW185052  14.342   4.726   8.025
94426SOL    HW285053  14.411   4.777   7.901
94427SOL     OW85054   7.515   5.889   2.312
94427SOL    HW185055   7.609   5.900   2.328
94427SOL    HW285056   7.509   5.825   2.241
94428SOL     OW85057  13.047   6.733  14.026
94428SOL    HW185058  13.048   6.826  14.004
94428SOL    HW285059  13.137   6.714  14.055
94429SOL     OW85060   5.965  11.419   0.971
94429SOL    HW185061   5.930  11.462   1.049
94429SOL    HW285062   5.981  11.490   0.910
94430SOL     OW85063  14.867  11.788   7.133
94430SOL    HW185064  14.793  11.732   7.154
94430SOL    HW285065  14.842  11.831   7.051
94431SOL     OW85066   8.250   3.790   4.993
94431SOL    HW185067   8.318   3.723   4.990
94431SOL    HW285068   8.185   3.762   4.929
94432SOL     OW85069   0.775  10.512   4.645
94432SOL    HW185070   0.791  10.606   4.641
94432SOL    HW285071   0.703  10.503   4.707
94433SOL     OW85072   4.543   3.036  14.434
94433SOL    HW185073   4.478   3.090  14.388
94433SOL    HW285074   4.494   2.999  14.508
94434SOL     OW85075  13.318   9.083   5.700
94434SOL    HW185076  13.376   9.031   5.756
94434SOL    HW285077  13.354   9.073   5.612
94435SOL     OW85078   1.206  11.699   6.725
94435SOL    HW185079   1.141  11.701   6.796
94435SOL    HW285080   1.204  11.609   6.693
94436SOL     OW85081   4.542   3.261  12.292
94436SOL    HW185082   4.446   3.255  12.290
94436SOL    HW285083   4.562   3.340  12.241
94437SOL     OW85084  11.457   5.811   0.039
94437SOL    HW185085  11.552   5.802   0.039
94437SOL    HW285086  11.428   5.762   0.117
94438SOL     OW85087   7.548   2.852   8.389
94438SOL    HW185088   7.586   2.804   8.463
94438SOL    HW285089   7.499   2.924   8.430
94439SOL     OW85090   0.301   8.037  11.050
94439SOL    HW185091   0.363   8.056  10.979
94439SOL    HW285092   0.353   7.996  11.118
94440SOL     OW85093   5.601  11.834   1.341
94440SOL    HW185094   5.677  11.783   1.310
94440SOL    HW285095   5.527  11.796   1.294
94441SOL     OW85096   9.000   1.534   6.309
94441SOL    HW185097   8.912   1.497   6.300
94441SOL    HW285098   9.031   1.546   6.219
94442SOL     OW85099   1.007   6.528  10.432
94442SOL    HW185100   1.059   6.491  10.503
94442SOL    HW285101   1.030   6.621  10.431
94443SOL     OW85102   2.005  10.712  10.141
94443SOL    HW185103   2.059  10.733  10.217
94443SOL    HW285104   2.026  10.620  10.122
94444SOL     OW85105  14.784   0.399  10.048
94444SOL    HW185106  14.730   0.441  10.115
94444SOL    HW285107  14.723   0.376   9.978
94445SOL     OW85108   6.804   6.754   4.745
94445SOL    HW185109   6.802   6.719   4.656
94445SOL    HW285110   6.848   6.686   4.796
94446SOL     OW85111   4.253   3.585  14.574
94446SOL    HW185112   4.247   3.672  14.613
94446SOL    HW285113   4.214   3.594  14.487
94447SOL     OW85114  12.296  11.519  11.662
94447SOL    HW185115  12.314  11.510  11.755
94447SOL    HW285116  12.255  11.605  11.653
94448SOL     OW85117   7.768   3.332   5.781
94448SOL    HW185118   7.827   3.263   5.751
94448SOL    HW285119   7.824   3.409   5.791
94449SOL     OW85120   9.103  13.052   4.867
94449SOL    HW185121   9.187  13.073   4.827
94449SOL    HW285122   9.041  13.051   4.793
94450SOL     OW85123  13.611   9.842  10.471
94450SOL    HW185124  13.575   9.875  10.554
94450SOL    HW285125  13.588   9.909  10.407
94451SOL     OW85126  14.361  14.589  14.281
94451SOL    HW185127  14.366  14.633  14.366
94451SOL    HW285128  14.283  14.626  14.239
94452SOL     OW85129   1.822   6.371  12.712
94452SOL    HW185130   1.820   6.445  12.652
94452SOL    HW285131   1.915   6.352  12.724
94453SOL     OW85132  14.843   1.966  10.415
94453SOL    HW185133  14.766   1.927  10.457
94453SOL    HW285134  14.812   1.992  10.328
94454SOL     OW85135   4.243  13.994   1.561
94454SOL    HW185136   4.272  13.945   1.638
94454SOL    HW285137   4.217  13.927   1.498
94455SOL     OW85138   4.441  13.766   8.382
94455SOL    HW185139   4.504  13.805   8.322
94455SOL    HW285140   4.495  13.727   8.452
94456SOL     OW85141  11.988   4.278  12.051
94456SOL    HW185142  11.961   4.346  12.113
94456SOL    HW285143  11.909   4.259  12.001
94457SOL     OW85144  10.061   4.434   0.353
94457SOL    HW185145  10.022   4.406   0.270
94457SOL    HW285146  10.138   4.484   0.328
94458SOL     OW85147  11.474  11.030   4.060
94458SOL    HW185148  11.481  10.981   4.142
94458SOL    HW285149  11.445  11.117   4.086
94459SOL     OW85150   3.926  10.944   6.848
94459SOL    HW185151   3.912  10.851   6.828
94459SOL    HW285152   4.017  10.960   6.824
94460SOL     OW85153   8.235  12.765  10.429
94460SOL    HW185154   8.201  12.746  10.516
94460SOL    HW285155   8.300  12.834  10.442
94461SOL     OW85156   6.794  14.215  11.244
94461SOL    HW185157   6.715  14.265  11.266
94461SOL    HW285158   6.767  14.160  11.170
94462SOL     OW85159   3.993   5.117   3.709
94462SOL    HW185160   4.020   5.129   3.618
94462SOL    HW285161   3.937   5.192   3.728
94463SOL     OW85162   8.941   8.478  14.438
94463SOL    HW185163   8.936   8.422  14.360
94463SOL    HW285164   9.019   8.531  14.424
94464SOL     OW85165   1.936   6.970  13.227
94464SOL    HW185166   1.967   6.899  13.283
94464SOL    HW285167   1.990   7.045  13.252
94465SOL     OW85168   5.430  10.045   4.905
94465SOL    HW185169   5.443  10.071   4.814
94465SOL    HW285170   5.393  10.122   4.947
94466SOL     OW85171   7.117   8.197   4.122
94466SOL    HW185172   7.025   8.219   4.106
94466SOL    HW285173   7.124   8.105   4.098
94467SOL     OW85174  10.067   2.256  11.856
94467SOL    HW185175  10.090   2.190  11.790
94467SOL    HW285176   9.979   2.232  11.885
94468SOL     OW85177   0.300  12.587   0.986
94468SOL    HW185178   0.382  12.622   1.022
94468SOL    HW285179   0.240  12.586   1.060
94469SOL     OW85180  12.740   0.256   6.272
94469SOL    HW185181  12.800   0.196   6.317
94469SOL    HW285182  12.771   0.257   6.181
94470SOL     OW85183   3.877   4.757   5.243
94470SOL    HW185184   3.889   4.793   5.331
94470SOL    HW285185   3.837   4.829   5.193
94471SOL     OW85186   5.830   2.003  12.081
94471SOL    HW185187   5.828   1.963  12.168
94471SOL    HW285188   5.764   1.955  12.030
94472SOL     OW85189  11.084  14.101  10.236
94472SOL    HW185190  10.998  14.062  10.221
94472SOL    HW285191  11.144  14.046  10.186
94473SOL     OW85192   9.909   3.362   4.945
94473SOL    HW185193  10.003   3.357   4.962
94473SOL    HW285194   9.870   3.381   5.030
94474SOL     OW85195  10.206   4.522   1.292
94474SOL    HW185196  10.132   4.480   1.336
94474SOL    HW285197  10.206   4.485   1.204
94475SOL     OW85198   3.174  13.767   7.928
94475SOL    HW185199   3.184  13.839   7.991
94475SOL    HW285200   3.218  13.692   7.969
94476SOL     OW85201   8.712  12.620  13.378
94476SOL    HW185202   8.766  12.604  13.301
94476SOL    HW285203   8.650  12.547  13.380
94477SOL     OW85204   2.573   8.118   0.859
94477SOL    HW185205   2.607   8.186   0.917
94477SOL    HW285206   2.491   8.153   0.826
94478SOL     OW85207   4.872   7.472   3.307
94478SOL    HW185208   4.826   7.530   3.246
94478SOL    HW285209   4.861   7.384   3.269
94479SOL     OW85210   2.746   4.388   8.415
94479SOL    HW185211   2.659   4.384   8.375
94479SOL    HW285212   2.792   4.312   8.380
94480SOL     OW85213   4.838   7.846   2.681
94480SOL    HW185214   4.868   7.822   2.769
94480SOL    HW285215   4.760   7.900   2.697
94481SOL     OW85216   4.679   4.847   2.058
94481SOL    HW185217   4.652   4.902   2.131
94481SOL    HW285218   4.615   4.775   2.058
94482SOL     OW85219   8.419   9.448   5.856
94482SOL    HW185220   8.398   9.503   5.932
94482SOL    HW285221   8.420   9.509   5.782
94483SOL     OW85222  14.142   8.584  13.997
94483SOL    HW185223  14.181   8.559  14.080
94483SOL    HW285224  14.186   8.530  13.932
94484SOL     OW85225  13.343   9.810   1.017
94484SOL    HW185226  13.255   9.831   0.985
94484SOL    HW285227  13.382   9.894   1.038
94485SOL     OW85228   5.827  11.096   6.425
94485SOL    HW185229   5.922  11.103   6.424
94485SOL    HW285230   5.796  11.181   6.456
94486SOL     OW85231   1.946   5.286   7.484
94486SOL    HW185232   1.953   5.205   7.433
94486SOL    HW285233   1.868   5.329   7.451
94487SOL     OW85234  12.311   9.048   9.514
94487SOL    HW185235  12.251   9.115   9.482
94487SOL    HW285236  12.305   9.053   9.609
94488SOL     OW85237   9.399   9.315  13.179
94488SOL    HW185238   9.407   9.395  13.231
94488SOL    HW285239   9.485   9.304  13.138
94489SOL     OW85240  12.566  10.401  13.756
94489SOL    HW185241  12.568  10.487  13.713
94489SOL    HW285242  12.653  10.364  13.740
94490SOL     OW85243   5.839  14.458   6.359
94490SOL    HW185244   5.759  14.485   6.405
94490SOL    HW285245   5.816  14.374   6.319
94491SOL     OW85246  12.798   6.575  11.801
94491SOL    HW185247  12.708   6.566  11.768
94491SOL    HW285248  12.788   6.580  11.896
94492SOL     OW85249   1.351   8.597   6.275
94492SOL    HW185250   1.379   8.509   6.250
94492SOL    HW285251   1.284   8.583   6.342
94493SOL     OW85252  14.562  12.851   7.492
94493SOL    HW185253  14.607  12.786   7.546
94493SOL    HW285254  14.599  12.839   7.404
94494SOL     OW85255   0.492   6.851   6.346
94494SOL    HW185256   0.585   6.831   6.354
94494SOL    HW285257   0.451   6.808   6.421
94495SOL     OW85258   4.396  11.997  11.171
94495SOL    HW185259   4.434  12.059  11.109
94495SOL    HW285260   4.470  11.969  11.226
94496SOL     OW85261   6.388  12.930   4.199
94496SOL    HW185262   6.480  12.903   4.205
94496SOL    HW285263   6.381  13.003   4.261
94497SOL     OW85264   7.953   5.964  10.186
94497SOL    HW185265   7.868   5.922  10.195
94497SOL    HW285266   7.944   6.048  10.232
94498SOL     OW85267  13.801   7.044  10.604
94498SOL    HW185268  13.893   7.031  10.625
94498SOL    HW285269  13.790   7.138  10.596
94499SOL     OW85270   3.732  13.503  11.424
94499SOL    HW185271   3.721  13.427  11.482
94499SOL    HW285272   3.803  13.553  11.464
94500SOL     OW85273   5.767   8.213   4.251
94500SOL    HW185274   5.802   8.221   4.162
94500SOL    HW285275   5.784   8.122   4.275
94501SOL     OW85276  11.404  12.501   9.952
94501SOL    HW185277  11.339  12.537  10.013
94501SOL    HW285278  11.460  12.574   9.930
94502SOL     OW85279   8.426   2.987  12.688
94502SOL    HW185280   8.385   2.960  12.605
94502SOL    HW285281   8.386   2.930  12.754
94503SOL     OW85282   1.511  11.102   6.537
94503SOL    HW185283   1.583  11.047   6.505
94503SOL    HW285284   1.553  11.164   6.596
94504SOL     OW85285   2.562   8.778   8.117
94504SOL    HW185286   2.656   8.788   8.129
94504SOL    HW285287   2.550   8.773   8.022
94505SOL     OW85288  12.868   8.433   3.578
94505SOL    HW185289  12.794   8.384   3.614
94505SOL    HW285290  12.931   8.435   3.649
94506SOL     OW85291  14.381   3.260  13.679
94506SOL    HW185292  14.334   3.273  13.597
94506SOL    HW285293  14.471   3.239  13.653
94507SOL     OW85294  10.152  11.281   2.784
94507SOL    HW185295  10.164  11.192   2.751
94507SOL    HW285296  10.239  11.320   2.780
94508SOL     OW85297   0.520   1.116   2.440
94508SOL    HW185298   0.461   1.048   2.412
94508SOL    HW285299   0.500   1.191   2.384
94509SOL     OW85300   6.547   6.757   0.412
94509SOL    HW185301   6.600   6.830   0.378
94509SOL    HW285302   6.562   6.686   0.350
94510SOL     OW85303   1.882  11.976  13.953
94510SOL    HW185304   1.929  11.900  13.985
94510SOL    HW285305   1.927  12.051  13.992
94511SOL     OW85306   8.034   1.107   2.661
94511SOL    HW185307   8.119   1.129   2.701
94511SOL    HW285308   8.011   1.186   2.612
94512SOL     OW85309   4.081  14.078  12.446
94512SOL    HW185310   4.142  14.045  12.379
94512SOL    HW285311   4.131  14.073  12.528
94513SOL     OW85312   8.109   5.975   5.569
94513SOL    HW185313   8.189   6.005   5.527
94513SOL    HW285314   8.111   6.014   5.656
94514SOL     OW85315  11.680  13.546  12.377
94514SOL    HW185316  11.653  13.633  12.349
94514SOL    HW285317  11.758  13.527  12.325
94515SOL     OW85318  11.635   0.702   3.629
94515SOL    HW185319  11.556   0.755   3.626
94515SOL    HW285320  11.674   0.722   3.714
94516SOL     OW85321  10.886   3.550  12.936
94516SOL    HW185322  10.843   3.484  12.881
94516SOL    HW285323  10.876   3.516  13.026
94517SOL     OW85324   9.226  13.533  13.076
94517SOL    HW185325   9.133  13.518  13.057
94517SOL    HW285326   9.237  13.502  13.166
94518SOL     OW85327  11.985   4.495   1.779
94518SOL    HW185328  12.026   4.461   1.859
94518SOL    HW285329  11.953   4.582   1.803
94519SOL     OW85330   9.517   4.618   6.423
94519SOL    HW185331   9.477   4.553   6.481
94519SOL    HW285332   9.599   4.578   6.395
94520SOL     OW85333   4.887  11.991  10.288
94520SOL    HW185334   4.961  11.972  10.346
94520SOL    HW285335   4.811  11.996  10.346
94521SOL     OW85336   1.912  14.510  10.741
94521SOL    HW185337   1.978  14.572  10.771
94521SOL    HW285338   1.829  14.557  10.747
94522SOL     OW85339  10.453   7.302  14.678
94522SOL    HW185340  10.480   7.345  14.759
94522SOL    HW285341  10.382   7.357  14.645
94523SOL     OW85342   9.148  14.823   1.580
94523SOL    HW185343   9.155   0.001   1.657
94523SOL    HW285344   9.055  14.800   1.574
94524SOL     OW85345  14.820   4.682   4.383
94524SOL    HW185346   0.029   4.679   4.341
94524SOL    HW285347  14.839   4.693   4.476
94525SOL     OW85348   4.438   2.456  13.354
94525SOL    HW185349   4.424   2.508  13.275
94525SOL    HW285350   4.376   2.493  13.418
94526SOL     OW85351   8.753   0.178   8.714
94526SOL    HW185352   8.775   0.186   8.621
94526SOL    HW285353   8.819   0.118   8.749
94527SOL     OW85354   9.885   1.859  10.841
94527SOL    HW185355   9.884   1.765  10.859
94527SOL    HW285356   9.836   1.869  10.760
94528SOL     OW85357  13.825   5.049  10.294
94528SOL    HW185358  13.919   5.033  10.286
94528SOL    HW285359  13.792   5.041  10.205
94529SOL     OW85360   7.033  13.948  14.108
94529SOL    HW185361   7.099  14.017  14.114
94529SOL    HW285362   6.970  13.980  14.044
94530SOL     OW85363   6.998   5.900  14.506
94530SOL    HW185364   6.919   5.869  14.550
94530SOL    HW285365   6.979   5.992  14.485
94531SOL     OW85366   0.575   7.959  12.187
94531SOL    HW185367   0.658   7.945  12.233
94531SOL    HW285368   0.518   7.999  12.252
94532SOL     OW85369  11.072   4.275  13.307
94532SOL    HW185370  11.132   4.345  13.333
94532SOL    HW285371  11.105   4.245  13.222
94533SOL     OW85372   0.040  12.784  14.140
94533SOL    HW185373   0.123  12.823  14.169
94533SOL    HW285374   0.034  12.806  14.047
94534SOL     OW85375   6.158   4.864  13.520
94534SOL    HW185376   6.173   4.933  13.584
94534SOL    HW285377   6.226   4.877  13.454
94535SOL     OW85378  12.348   3.337  11.546
94535SOL    HW185379  12.330   3.427  11.518
94535SOL    HW285380  12.362   3.345  11.641
94536SOL     OW85381   2.337   5.331  13.202
94536SOL    HW185382   2.352   5.410  13.149
94536SOL    HW285383   2.414   5.277  13.188
94537SOL     OW85384  14.298   1.971   9.027
94537SOL    HW185385  14.352   2.049   9.015
94537SOL    HW285386  14.360   1.902   9.052
94538SOL     OW85387  14.670   0.168   1.367
94538SOL    HW185388  14.715   0.111   1.429
94538SOL    HW285389  14.601   0.211   1.419
94539SOL     OW85390   3.410   4.842   4.748
94539SOL    HW185391   3.378   4.930   4.765
94539SOL    HW285392   3.380   4.791   4.824
94540SOL     OW85393   6.052   8.741  10.697
94540SOL    HW185394   6.042   8.829  10.733
94540SOL    HW285395   6.128   8.747  10.639
94541SOL     OW85396   2.518   3.674  11.279
94541SOL    HW185397   2.491   3.585  11.300
94541SOL    HW285398   2.519   3.678  11.184
94542SOL     OW85399   7.953   4.310   7.048
94542SOL    HW185400   7.903   4.252   7.105
94542SOL    HW285401   7.954   4.266   6.963
94543SOL     OW85402  10.026   9.146   2.165
94543SOL    HW185403  10.113   9.107   2.174
94543SOL    HW285404   9.966   9.072   2.159
94544SOL     OW85405   5.849   9.281  12.887
94544SOL    HW185406   5.839   9.190  12.916
94544SOL    HW285407   5.927   9.312  12.932
94545SOL     OW85408   1.921   4.680   4.209
94545SOL    HW185409   1.932   4.681   4.114
94545SOL    HW285410   1.926   4.772   4.235
94546SOL     OW85411   5.719   0.790  13.117
94546SOL    HW185412   5.765   0.849  13.177
94546SOL    HW285413   5.707   0.842  13.038
94547SOL     OW85414   0.162   8.156  12.007
94547SOL    HW185415   0.124   8.070  12.024
94547SOL    HW285416   0.114   8.189  11.931
94548SOL     OW85417   6.349   6.542   7.242
94548SOL    HW185418   6.414   6.608   7.267
94548SOL    HW285419   6.375   6.463   7.289
94549SOL     OW85420   0.986  14.762  13.456
94549SOL    HW185421   0.981  14.796  13.367
94549SOL    HW285422   0.950  14.674  13.451
94550SOL     OW85423  13.086   0.997   2.380
94550SOL    HW185424  13.107   1.081   2.421
94550SOL    HW285425  13.105   0.932   2.447
94551SOL     OW85426  14.419   8.956   0.594
94551SOL    HW185427  14.508   8.926   0.612
94551SOL    HW285428  14.373   8.945   0.677
94552SOL     OW85429   0.038  14.152   4.050
94552SOL    HW185430   0.059  14.239   4.084
94552SOL    HW285431   0.095  14.093   4.101
94553SOL     OW85432  11.598   8.743  10.030
94553SOL    HW185433  11.635   8.698   9.954
94553SOL    HW285434  11.564   8.826   9.995
94554SOL     OW85435   2.501   2.208   1.427
94554SOL    HW185436   2.439   2.166   1.486
94554SOL    HW285437   2.458   2.290   1.402
94555SOL     OW85438   0.184  13.099  10.912
94555SOL    HW185439   0.114  13.110  10.848
94555SOL    HW285440   0.233  13.181  10.910
94556SOL     OW85441  14.221   7.174   6.685
94556SOL    HW185442  14.188   7.227   6.613
94556SOL    HW285443  14.185   7.087   6.670
94557SOL     OW85444   3.914   4.748   3.061
94557SOL    HW185445   3.986   4.766   3.122
94557SOL    HW285446   3.926   4.811   2.990
94558SOL     OW85447  14.220   5.543   4.293
94558SOL    HW185448  14.252   5.525   4.381
94558SOL    HW285449  14.267   5.482   4.236
94559SOL     OW85450  11.519   8.191   0.766
94559SOL    HW185451  11.463   8.135   0.819
94559SOL    HW285452  11.482   8.279   0.776
94560SOL     OW85453   3.142   6.687   8.988
94560SOL    HW185454   3.053   6.717   8.971
94560SOL    HW285455   3.156   6.705   9.081
94561SOL     OW85456  14.261  13.602   5.354
94561SOL    HW185457  14.279  13.567   5.441
94561SOL    HW285458  14.247  13.525   5.299
94562SOL     OW85459   3.881  12.975   3.952
94562SOL    HW185460   3.959  12.921   3.963
94562SOL    HW285461   3.809  12.918   3.980
94563SOL     OW85462  12.456  12.107   1.529
94563SOL    HW185463  12.397  12.157   1.472
94563SOL    HW285464  12.400  12.077   1.600
94564SOL     OW85465  10.993   9.090   3.211
94564SOL    HW185466  11.076   9.098   3.258
94564SOL    HW285467  10.926   9.113   3.275
94565SOL     OW85468   2.969   7.753   9.525
94565SOL    HW185469   2.926   7.834   9.555
94565SOL    HW285470   3.019   7.723   9.600
94566SOL     OW85471   9.158  12.552   2.515
94566SOL    HW185472   9.182  12.487   2.581
94566SOL    HW285473   9.191  12.635   2.549
94567SOL     OW85474   3.974   9.023  14.821
94567SOL    HW185475   3.937   8.943  14.857
94567SOL    HW285476   3.898   9.072  14.788
94568SOL     OW85477  11.374   2.351   8.072
94568SOL    HW185478  11.287   2.383   8.049
94568SOL    HW285479  11.410   2.319   7.989
94569SOL     OW85480  14.033   2.148   9.014
94569SOL    HW185481  14.125   2.125   9.001
94569SOL    HW285482  13.996   2.073   9.061
94570SOL     OW85483  10.209   7.931  12.674
94570SOL    HW185484  10.117   7.941  12.648
94570SOL    HW285485  10.207   7.863  12.741
94571SOL     OW85486   2.796  10.078   3.821
94571SOL    HW185487   2.715  10.032   3.798
94571SOL    HW285488   2.866  10.017   3.795
94572SOL     OW85489   8.595  11.516   4.679
94572SOL    HW185490   8.628  11.544   4.593
94572SOL    HW285491   8.671  11.476   4.722
94573SOL     OW85492   8.145   6.461  13.932
94573SOL    HW185493   8.155   6.531  13.997
94573SOL    HW285494   8.220   6.472  13.873
94574SOL     OW85495   7.751   7.408  14.028
94574SOL    HW185496   7.807   7.353  14.083
94574SOL    HW285497   7.679   7.351  14.002
94575SOL     OW85498   0.528   0.895   8.977
94575SOL    HW185499   0.564   0.887   9.066
94575SOL    HW285500   0.533   0.988   8.958
94576SOL     OW85501   1.799   6.160   5.324
94576SOL    HW185502   1.759   6.114   5.251
94576SOL    HW285503   1.763   6.249   5.319
94577SOL     OW85504   0.179  14.674   6.959
94577SOL    HW185505   0.216  14.605   6.903
94577SOL    HW285506   0.254  14.725   6.989
94578SOL     OW85507   5.405  14.237   1.453
94578SOL    HW185508   5.462  14.312   1.471
94578SOL    HW285509   5.335  14.272   1.398
94579SOL     OW85510  14.866  12.776   7.722
94579SOL    HW185511   0.030  12.786   7.808
94579SOL    HW285512   0.042  12.829   7.663
94580SOL     OW85513   6.145   4.463   7.062
94580SOL    HW185514   6.221   4.429   7.110
94580SOL    HW285515   6.075   4.464   7.127
94581SOL     OW85516   5.521   4.052   3.497
94581SOL    HW185517   5.481   4.092   3.574
94581SOL    HW285518   5.493   3.961   3.500
94582SOL     OW85519   7.236  12.593   0.430
94582SOL    HW185520   7.246  12.523   0.366
94582SOL    HW285521   7.326  12.614   0.457
94583SOL     OW85522   4.026   6.353  10.015
94583SOL    HW185523   3.957   6.288  10.000
94583SOL    HW285524   4.079   6.315  10.085
94584SOL     OW85525   5.782   9.421   8.191
94584SOL    HW185526   5.762   9.498   8.139
94584SOL    HW285527   5.705   9.365   8.182
94585SOL     OW85528  13.925   1.133   9.391
94585SOL    HW185529  13.904   1.103   9.303
94585SOL    HW285530  13.852   1.190   9.416
94586SOL     OW85531  11.295   4.885   8.426
94586SOL    HW185532  11.269   4.795   8.407
94586SOL    HW285533  11.220   4.938   8.399
94587SOL     OW85534   3.722  10.064   1.844
94587SOL    HW185535   3.747   9.985   1.796
94587SOL    HW285536   3.784  10.131   1.816
94588SOL     OW85537   0.615   6.221  14.367
94588SOL    HW185538   0.620   6.125  14.372
94588SOL    HW285539   0.522   6.239  14.353
94589SOL     OW85540   0.247   6.523   7.996
94589SOL    HW185541   0.317   6.583   7.969
94589SOL    HW285542   0.252   6.521   8.091
94590SOL     OW85543   1.016   4.158  14.396
94590SOL    HW185544   1.034   4.074  14.354
94590SOL    HW285545   1.032   4.223  14.327
94591SOL     OW85546   7.114   3.247  12.318
94591SOL    HW185547   7.166   3.252  12.238
94591SOL    HW285548   7.178   3.228  12.387
94592SOL     OW85549  13.218  10.403   3.811
94592SOL    HW185550  13.250  10.358   3.734
94592SOL    HW285551  13.144  10.456   3.780
94593SOL     OW85552   5.667   3.773   6.260
94593SOL    HW185553   5.584   3.724   6.255
94593SOL    HW285554   5.640   3.863   6.279
94594SOL     OW85555   3.981   1.341   0.870
94594SOL    HW185556   3.994   1.275   0.803
94594SOL    HW285557   3.907   1.309   0.922
94595SOL     OW85558   4.310   4.764  11.173
94595SOL    HW185559   4.374   4.718  11.119
94595SOL    HW285560   4.350   4.768  11.260
94596SOL     OW85561  13.337   0.748   6.146
94596SOL    HW185562  13.386   0.766   6.065
94596SOL    HW285563  13.404   0.741   6.213
94597SOL     OW85564   8.939  11.791  10.460
94597SOL    HW185565   9.002  11.730  10.498
94597SOL    HW285566   8.881  11.736  10.407
94598SOL     OW85567  10.330   5.814  13.849
94598SOL    HW185568  10.292   5.886  13.900
94598SOL    HW285569  10.403   5.853  13.801
94599SOL     OW85570  12.333   9.831  14.325
94599SOL    HW185571  12.375   9.851  14.409
94599SOL    HW285572  12.245   9.802  14.348
94600SOL     OW85573  13.757   5.108   3.765
94600SOL    HW185574  13.754   5.016   3.740
94600SOL    HW285575  13.675   5.145   3.734
94601SOL     OW85576  14.233   8.324  13.018
94601SOL    HW185577  14.286   8.377  13.079
94601SOL    HW285578  14.170   8.280  13.074
94602SOL     OW85579   6.675  11.202   4.682
94602SOL    HW185580   6.717  11.231   4.763
94602SOL    HW285581   6.745  11.200   4.617
94603SOL     OW85582   8.773   2.613   0.137
94603SOL    HW185583   8.738   2.531   0.100
94603SOL    HW285584   8.862   2.591   0.164
94604SOL     OW85585  11.884   3.752  10.224
94604SOL    HW185586  11.867   3.822  10.160
94604SOL    HW285587  11.889   3.798  10.308
94605SOL     OW85588  12.853   9.767  12.571
94605SOL    HW185589  12.864   9.824  12.647
94605SOL    HW285590  12.781   9.709  12.596
94606SOL     OW85591   4.937  14.129   7.485
94606SOL    HW185592   4.847  14.098   7.498
94606SOL    HW285593   4.985  14.053   7.453
94607SOL     OW85594   2.239  14.647  10.692
94607SOL    HW185595   2.273  14.570  10.737
94607SOL    HW285596   2.283  14.721  10.734
94608SOL     OW85597   5.234   4.005   6.551
94608SOL    HW185598   5.243   4.077   6.613
94608SOL    HW285599   5.316   4.004   6.502
94609SOL     OW85600  14.843   9.580  12.890
94609SOL    HW185601   0.001   9.665  12.915
94609SOL    HW285602   0.038   9.535  12.846
94610SOL     OW85603  10.233  13.214   0.259
94610SOL    HW185604  10.162  13.275   0.280
94610SOL    HW285605  10.311  13.269   0.255
94611SOL     OW85606  13.790   0.997   9.964
94611SOL    HW185607  13.869   1.008   9.912
94611SOL    HW285608  13.721   1.037   9.910
94612SOL     OW85609  12.556   1.355   0.768
94612SOL    HW185610  12.642   1.316   0.784
94612SOL    HW285611  12.562   1.391   0.680
94613SOL     OW85612   1.109   5.979  10.629
94613SOL    HW185613   1.083   5.887  10.634
94613SOL    HW285614   1.165   5.992  10.706
94614SOL     OW85615  10.009  13.274  11.252
94614SOL    HW185616  10.102  13.272  11.276
94614SOL    HW285617  10.006  13.239  11.163
94615SOL     OW85618   0.330   5.411  12.721
94615SOL    HW185619   0.306   5.321  12.698
94615SOL    HW285620   0.248   5.450  12.753
94616SOL     OW85621   9.099  12.095   9.914
94616SOL    HW185622   9.052  12.126   9.837
94616SOL    HW285623   9.136  12.174   9.954
94617SOL     OW85624  12.651  12.431   6.132
94617SOL    HW185625  12.586  12.376   6.176
94617SOL    HW285626  12.651  12.512   6.183
94618SOL     OW85627   6.708   4.391   8.831
94618SOL    HW185628   6.774   4.404   8.900
94618SOL    HW285629   6.675   4.303   8.846
94619SOL     OW85630  13.900   6.644   1.819
94619SOL    HW185631  13.853   6.689   1.749
94619SOL    HW285632  13.835   6.637   1.890
94620SOL     OW85633  11.955  12.883   4.277
94620SOL    HW185634  11.912  12.921   4.354
94620SOL    HW285635  11.954  12.953   4.212
94621SOL     OW85636   8.658   0.198   1.828
94621SOL    HW185637   8.754   0.196   1.822
94621SOL    HW285638   8.639   0.282   1.870
94622SOL     OW85639   3.123   7.242   8.713
94622SOL    HW185640   3.123   7.249   8.809
94622SOL    HW285641   3.184   7.309   8.684
94623SOL     OW85642  13.694  11.349   9.777
94623SOL    HW185643  13.645  11.290   9.835
94623SOL    HW285644  13.750  11.399   9.836
94624SOL     OW85645   1.218   0.128   2.937
94624SOL    HW185646   1.241   0.069   3.009
94624SOL    HW285647   1.291   0.190   2.934
94625SOL     OW85648  11.364   1.822  11.228
94625SOL    HW185649  11.364   1.819  11.132
94625SOL    HW285650  11.353   1.731  11.255
94626SOL     OW85651  11.147   0.483  13.277
94626SOL    HW185652  11.187   0.570  13.279
94626SOL    HW285653  11.054   0.499  13.258
94627SOL     OW85654  12.375   7.900  11.818
94627SOL    HW185655  12.398   7.913  11.727
94627SOL    HW285656  12.281   7.916  11.822
94628SOL     OW85657  12.023  12.646   4.394
94628SOL    HW185658  12.105  12.670   4.437
94628SOL    HW285659  12.007  12.717   4.332
94629SOL     OW85660   5.195   5.300  13.006
94629SOL    HW185661   5.288   5.283  13.026
94629SOL    HW285662   5.147   5.247  13.070
94630SOL     OW85663  14.411  14.150   5.141
94630SOL    HW185664  14.507  14.148   5.139
94630SOL    HW285665  14.386  14.068   5.185
94631SOL     OW85666   2.432  12.178   4.450
94631SOL    HW185667   2.344  12.149   4.475
94631SOL    HW285668   2.418  12.227   4.368
94632SOL     OW85669  12.030   1.772   4.297
94632SOL    HW185670  12.016   1.812   4.383
94632SOL    HW285671  11.966   1.814   4.240
94633SOL     OW85672  10.984  13.325   5.732
94633SOL    HW185673  10.982  13.275   5.651
94633SOL    HW285674  11.063  13.380   5.725
94634SOL     OW85675   6.808   3.921   5.145
94634SOL    HW185676   6.811   3.995   5.207
94634SOL    HW285677   6.793   3.844   5.201
94635SOL     OW85678  11.507   0.301  11.240
94635SOL    HW185679  11.491   0.255  11.157
94635SOL    HW285680  11.595   0.274  11.265
94636SOL     OW85681  14.775  11.933   9.122
94636SOL    HW185682  14.714  11.892   9.060
94636SOL    HW285683  14.860  11.896   9.100
94637SOL     OW85684   1.861  14.239   0.124
94637SOL    HW185685   1.847  14.172   0.057
94637SOL    HW285686   1.780  14.290   0.124
94638SOL     OW85687   8.585   7.158   2.454
94638SOL    HW185688   8.494   7.186   2.447
94638SOL    HW285689   8.627   7.195   2.376
94639SOL     OW85690   2.380  13.100   1.511
94639SOL    HW185691   2.301  13.055   1.541
94639SOL    HW285692   2.448  13.069   1.571
94640SOL     OW85693   8.776  11.024   8.237
94640SOL    HW185694   8.711  10.953   8.240
94640SOL    HW285695   8.858  10.982   8.262
94641SOL     OW85696  13.082  11.671  12.246
94641SOL    HW185697  13.108  11.674  12.153
94641SOL    HW285698  13.056  11.579  12.260
94642SOL     OW85699   9.582   5.634   9.491
94642SOL    HW185700   9.672   5.624   9.523
94642SOL    HW285701   9.531   5.651   9.570
94643SOL     OW85702   8.694  14.445   7.559
94643SOL    HW185703   8.600  14.463   7.567
94643SOL    HW285704   8.736  14.530   7.571
94644SOL     OW85705   2.490  10.751   1.613
94644SOL    HW185706   2.419  10.757   1.549
94644SOL    HW285707   2.472  10.669   1.660
94645SOL     OW85708   2.183   9.227   2.172
94645SOL    HW185709   2.205   9.177   2.093
94645SOL    HW285710   2.087   9.232   2.171
94646SOL     OW85711   0.164   9.718   8.778
94646SOL    HW185712   0.205   9.789   8.728
94646SOL    HW285713   0.089   9.759   8.820
94647SOL     OW85714   5.071  11.708   2.465
94647SOL    HW185715   5.035  11.630   2.422
94647SOL    HW285716   5.056  11.693   2.558
94648SOL     OW85717   9.589   6.837   5.553
94648SOL    HW185718   9.610   6.928   5.575
94648SOL    HW285719   9.493   6.835   5.547
94649SOL     OW85720   7.442   7.865   8.323
94649SOL    HW185721   7.425   7.894   8.413
94649SOL    HW285722   7.416   7.773   8.323
94650SOL     OW85723   7.648   8.419   2.053
94650SOL    HW185724   7.686   8.353   2.111
94650SOL    HW285725   7.715   8.487   2.046
94651SOL     OW85726  14.281   5.361   0.893
94651SOL    HW185727  14.271   5.313   0.810
94651SOL    HW285728  14.358   5.416   0.879
94652SOL     OW85729   4.850  10.991   2.277
94652SOL    HW185730   4.794  10.963   2.349
94652SOL    HW285731   4.797  11.055   2.229
94653SOL     OW85732   0.456   8.540   6.272
94653SOL    HW185733   0.549   8.522   6.280
94653SOL    HW285734   0.416   8.453   6.269
94654SOL     OW85735   2.551  11.033   8.988
94654SOL    HW185736   2.563  11.108   9.048
94654SOL    HW285737   2.516  10.964   9.044
94655SOL     OW85738  11.946  14.341   8.986
94655SOL    HW185739  11.863  14.322   8.942
94655SOL    HW285740  11.961  14.434   8.971
94656SOL     OW85741   9.554   9.625   1.450
94656SOL    HW185742   9.649   9.613   1.450
94656SOL    HW285743   9.520   9.548   1.494
94657SOL     OW85744   1.422   4.982   3.804
94657SOL    HW185745   1.407   4.888   3.797
94657SOL    HW285746   1.350   5.014   3.858
94658SOL     OW85747   6.897   0.558   7.949
94658SOL    HW185748   6.967   0.545   8.014
94658SOL    HW285749   6.852   0.473   7.945
94659SOL     OW85750   6.037   0.151   3.188
94659SOL    HW185751   6.033   0.079   3.251
94659SOL    HW285752   6.098   0.120   3.120
94660SOL     OW85753  14.760   9.997  12.561
94660SOL    HW185754  14.712  10.041  12.491
94660SOL    HW285755  14.836   9.959  12.518
94661SOL     OW85756  12.316  11.355   2.442
94661SOL    HW185757  12.386  11.375   2.504
94661SOL    HW285758  12.292  11.439   2.404
94662SOL     OW85759   3.825  12.476  12.238
94662SOL    HW185760   3.734  12.473  12.209
94662SOL    HW285761   3.822  12.445  12.328
94663SOL     OW85762  14.395   8.229  10.544
94663SOL    HW185763  14.319   8.286  10.531
94663SOL    HW285764  14.392   8.168  10.470
94664SOL     OW85765  13.724  14.560   6.656
94664SOL    HW185766  13.707  14.519   6.740
94664SOL    HW285767  13.729  14.654   6.676
94665SOL     OW85768   5.707  11.559   7.006
94665SOL    HW185769   5.698  11.507   6.926
94665SOL    HW285770   5.634  11.532   7.061
94666SOL     OW85771   2.996   5.191   9.917
94666SOL    HW185772   2.907   5.225   9.933
94666SOL    HW285773   2.982   5.111   9.866
94667SOL     OW85774   0.432  14.453   0.384
94667SOL    HW185775   0.401  14.506   0.310
94667SOL    HW285776   0.504  14.504   0.421
94668SOL     OW85777  12.088   0.021   6.939
94668SOL    HW185778  12.013  14.840   6.930
94668SOL    HW285779  12.128  14.874   7.022
94669SOL     OW85780  10.773  10.728   8.628
94669SOL    HW185781  10.865  10.754   8.640
94669SOL    HW285782  10.776  10.634   8.612
94670SOL     OW85783   3.642  14.067  11.645
94670SOL    HW185784   3.608  14.156  11.648
94670SOL    HW285785   3.659  14.050  11.552
94671SOL     OW85786  10.251  11.052   5.727
94671SOL    HW185787  10.217  10.964   5.716
94671SOL    HW285788  10.173  11.108   5.726
94672SOL     OW85789   0.135  12.395  14.039
94672SOL    HW185790   0.046  12.421  14.062
94672SOL    HW285791   0.155  12.322  14.097
94673SOL     OW85792   4.995   0.600   5.002
94673SOL    HW185793   4.913   0.635   5.037
94673SOL    HW285794   5.063   0.655   5.041
94674SOL     OW85795  14.804  10.080   7.414
94674SOL    HW185796  14.796   9.986   7.397
94674SOL    HW285797  14.874  10.086   7.479
94675SOL     OW85798   4.837  11.182   9.560
94675SOL    HW185799   4.756  11.228   9.584
94675SOL    HW285800   4.871  11.232   9.485
94676SOL     OW85801   0.639   4.629   8.162
94676SOL    HW185802   0.596   4.561   8.111
94676SOL    HW285803   0.728   4.597   8.174
94677SOL     OW85804   7.654   3.838   5.474
94677SOL    HW185805   7.701   3.921   5.487
94677SOL    HW285806   7.690   3.804   5.392
94678SOL     OW85807   5.886  10.335   1.693
94678SOL    HW185808   5.949  10.346   1.622
94678SOL    HW285809   5.937  10.351   1.773
94679SOL     OW85810   0.040  11.056   2.331
94679SOL    HW185811   0.129  11.093   2.335
94679SOL    HW285812  14.873  11.093   2.407
94680SOL     OW85813   7.062   9.825  10.747
94680SOL    HW185814   7.133   9.796  10.804
94680SOL    HW285815   7.083   9.787  10.662
94681SOL     OW85816   3.990   0.223  10.423
94681SOL    HW185817   3.897   0.214  10.405
94681SOL    HW285818   4.014   0.143  10.471
94682SOL     OW85819   0.826   2.805   1.500
94682SOL    HW185820   0.895   2.869   1.521
94682SOL    HW285821   0.866   2.748   1.434
94683SOL     OW85822   1.405   0.713  12.919
94683SOL    HW185823   1.332   0.667  12.959
94683SOL    HW285824   1.473   0.713  12.986
94684SOL     OW85825   5.630   4.911   5.615
94684SOL    HW185826   5.643   4.900   5.521
94684SOL    HW285827   5.610   4.824   5.647
94685SOL     OW85828  11.936  12.510   8.218
94685SOL    HW185829  11.917  12.551   8.134
94685SOL    HW285830  11.926  12.581   8.282
94686SOL     OW85831  14.333   9.877  10.561
94686SOL    HW185832  14.290   9.798  10.594
94686SOL    HW285833  14.275   9.909  10.492
94687SOL     OW85834   1.878   0.062  11.974
94687SOL    HW185835   1.888   0.047  11.880
94687SOL    HW285836   1.841  14.858  12.008
94688SOL     OW85837   6.223   5.882   9.185
94688SOL    HW185838   6.193   5.847   9.102
94688SOL    HW285839   6.191   5.820   9.250
94689SOL     OW85840   5.001   3.827  12.541
94689SOL    HW185841   4.981   3.735  12.524
94689SOL    HW285842   4.926   3.859  12.592
94690SOL     OW85843   5.562   6.261   9.318
94690SOL    HW185844   5.538   6.333   9.377
94690SOL    HW285845   5.600   6.305   9.242
94691SOL     OW85846   4.944  11.185  12.859
94691SOL    HW185847   4.947  11.184  12.763
94691SOL    HW285848   4.852  11.202  12.879
94692SOL     OW85849  12.221   8.138   0.836
94692SOL    HW185850  12.285   8.154   0.905
94692SOL    HW285851  12.193   8.225   0.808
94693SOL     OW85852   3.695   5.695   7.635
94693SOL    HW185853   3.759   5.714   7.565
94693SOL    HW285854   3.639   5.773   7.638
94694SOL     OW85855   1.846   6.161  14.680
94694SOL    HW185856   1.845   6.256  14.690
94694SOL    HW285857   1.798   6.129  14.756
94695SOL     OW85858   6.373  13.845   7.118
94695SOL    HW185859   6.306  13.879   7.177
94695SOL    HW285860   6.375  13.908   7.046
94696SOL     OW85861   2.762   8.029   5.122
94696SOL    HW185862   2.825   7.964   5.152
94696SOL    HW285863   2.745   8.006   5.030
94697SOL     OW85864   9.436   1.777  12.899
94697SOL    HW185865   9.367   1.736  12.950
94697SOL    HW285866   9.395   1.857  12.865
94698SOL     OW85867   8.037  10.007   9.593
94698SOL    HW185868   8.078   9.926   9.561
94698SOL    HW285869   8.107  10.051   9.641
94699SOL     OW85870   6.074   4.809  12.162
94699SOL    HW185871   6.105   4.780  12.077
94699SOL    HW285872   6.050   4.901  12.150
94700SOL     OW85873   7.352   2.311   6.571
94700SOL    HW185874   7.367   2.383   6.631
94700SOL    HW285875   7.440   2.287   6.539
94701SOL     OW85876   5.789   4.021   1.465
94701SOL    HW185877   5.798   3.933   1.501
94701SOL    HW285878   5.724   4.063   1.521
94702SOL     OW85879  11.955   9.500   0.870
94702SOL    HW185880  11.985   9.410   0.853
94702SOL    HW285881  11.990   9.551   0.797
94703SOL     OW85882  12.190   0.865  10.617
94703SOL    HW185883  12.264   0.810  10.591
94703SOL    HW285884  12.184   0.854  10.712
94704SOL     OW85885  11.482  12.792   3.795
94704SOL    HW185886  11.559  12.786   3.739
94704SOL    HW285887  11.510  12.846   3.869
94705SOL     OW85888   8.165   5.171   6.860
94705SOL    HW185889   8.236   5.164   6.796
94705SOL    HW285890   8.182   5.100   6.922
94706SOL     OW85891   1.648   9.761   5.567
94706SOL    HW185892   1.618   9.842   5.525
94706SOL    HW285893   1.578   9.698   5.551
94707SOL     OW85894   7.846   4.447   7.605
94707SOL    HW185895   7.812   4.535   7.590
94707SOL    HW285896   7.934   4.460   7.639
94708SOL     OW85897   0.967   5.527  12.267
94708SOL    HW185898   1.017   5.470  12.209
94708SOL    HW285899   0.882   5.535  12.226
94709SOL     OW85900  11.859   2.281   0.854
94709SOL    HW185901  11.776   2.273   0.901
94709SOL    HW285902  11.846   2.232   0.773
94710SOL     OW85903   7.240   0.402  11.912
94710SOL    HW185904   7.309   0.367  11.967
94710SOL    HW285905   7.232   0.494  11.938
94711SOL     OW85906  14.457   8.033  14.814
94711SOL    HW185907  14.514   7.985  14.755
94711SOL    HW285908  14.371   7.992  14.805
94712SOL     OW85909   1.105   9.867   9.556
94712SOL    HW185910   1.177   9.883   9.495
94712SOL    HW285911   1.027   9.858   9.500
94713SOL     OW85912  12.099   2.912   6.049
94713SOL    HW185913  12.009   2.902   6.080
94713SOL    HW285914  12.118   2.831   6.001
94714SOL     OW85915   1.081   3.875  12.069
94714SOL    HW185916   1.038   3.944  12.119
94714SOL    HW285917   1.064   3.898  11.977
94715SOL     OW85918   7.952  11.836   4.940
94715SOL    HW185919   8.030  11.872   4.982
94715SOL    HW285920   7.939  11.890   4.862
94716SOL     OW85921  12.933   0.314   1.650
94716SOL    HW185922  12.858   0.260   1.623
94716SOL    HW285923  12.893   0.393   1.686
94717SOL     OW85924   8.205   6.964  11.324
94717SOL    HW185925   8.118   6.926  11.313
94717SOL    HW285926   8.251   6.903  11.382
94718SOL     OW85927   5.718  10.476   6.364
94718SOL    HW185928   5.809  10.461   6.341
94718SOL    HW285929   5.686  10.391   6.393
94719SOL     OW85930   9.327  10.696   1.925
94719SOL    HW185931   9.291  10.680   1.838
94719SOL    HW285932   9.253  10.687   1.985
94720SOL     OW85933  11.580   3.860  11.280
94720SOL    HW185934  11.633   3.807  11.339
94720SOL    HW285935  11.501   3.808  11.266
94721SOL     OW85936   4.020  12.838  11.754
94721SOL    HW185937   4.102  12.824  11.708
94721SOL    HW285938   4.006  12.933  11.751
94722SOL     OW85939  12.381   5.994   1.818
94722SOL    HW185940  12.457   5.953   1.858
94722SOL    HW285941  12.384   6.085   1.848
94723SOL     OW85942   4.717   4.787  12.600
94723SOL    HW185943   4.694   4.713  12.656
94723SOL    HW285944   4.791   4.828  12.643
94724SOL     OW85945   9.808   7.740  13.709
94724SOL    HW185946   9.856   7.699  13.637
94724SOL    HW285947   9.793   7.830  13.680
94725SOL     OW85948   1.560  12.127   4.725
94725SOL    HW185949   1.506  12.173   4.788
94725SOL    HW285950   1.522  12.149   4.640
94726SOL     OW85951   7.092   8.961   1.950
94726SOL    HW185952   7.043   9.044   1.946
94726SOL    HW285953   7.104   8.936   1.859
94727SOL     OW85954   0.226   5.381  10.124
94727SOL    HW185955   0.227   5.297  10.080
94727SOL    HW285956   0.301   5.428  10.087
94728SOL     OW85957  10.561  12.266   8.678
94728SOL    HW185958  10.568  12.192   8.619
94728SOL    HW285959  10.555  12.227   8.765
94729SOL     OW85960  11.208  11.526   2.156
94729SOL    HW185961  11.270  11.481   2.099
94729SOL    HW285962  11.206  11.616   2.123
94730SOL     OW85963  10.382   1.099   5.259
94730SOL    HW185964  10.359   1.097   5.352
94730SOL    HW285965  10.394   1.007   5.235
94731SOL     OW85966   9.942  12.402   1.712
94731SOL    HW185967   9.984  12.430   1.631
94731SOL    HW285968   9.871  12.464   1.725
94732SOL     OW85969   8.682  10.420  12.158
94732SOL    HW185970   8.691  10.325  12.148
94732SOL    HW285971   8.661  10.452  12.071
94733SOL     OW85972   5.119  13.204   8.150
94733SOL    HW185973   5.146  13.129   8.203
94733SOL    HW285974   5.077  13.264   8.213
94734SOL     OW85975   4.626  10.427  12.431
94734SOL    HW185976   4.660  10.472  12.508
94734SOL    HW285977   4.681  10.457  12.358
94735SOL     OW85978   3.489   7.287   8.124
94735SOL    HW185979   3.571   7.317   8.162
94735SOL    HW285980   3.452   7.228   8.189
94736SOL     OW85981  13.732   5.042  10.045
94736SOL    HW185982  13.759   5.067   9.957
94736SOL    HW285983  13.638   5.061  10.047
94737SOL     OW85984   4.785   5.807   8.025
94737SOL    HW185985   4.756   5.846   8.108
94737SOL    HW285986   4.865   5.760   8.048
94738SOL     OW85987   4.062   6.022  11.449
94738SOL    HW185988   4.011   5.961  11.501
94738SOL    HW285989   4.090   5.972  11.373
94739SOL     OW85990   7.061  12.669  12.537
94739SOL    HW185991   7.077  12.610  12.611
94739SOL    HW285992   7.020  12.746  12.577
94740SOL     OW85993  10.006   2.685  11.048
94740SOL    HW185994   9.975   2.746  11.115
94740SOL    HW285995   9.943   2.693  10.977
94741SOL     OW85996   5.362   6.728   3.519
94741SOL    HW185997   5.446   6.771   3.504
94741SOL    HW285998   5.382   6.656   3.580
94742SOL     OW85999  10.685  12.291   6.381
94742SOL    HW186000  10.593  12.294   6.356
94742SOL    HW286001  10.726  12.361   6.329
94743SOL     OW86002   6.736   9.242  13.011
94743SOL    HW186003   6.706   9.305  13.077
94743SOL    HW286004   6.680   9.165  13.025
94744SOL     OW86005   8.341   7.718  11.917
94744SOL    HW186006   8.377   7.723  11.829
94744SOL    HW286007   8.350   7.807  11.952
94745SOL     OW86008   5.182   0.412   2.751
94745SOL    HW186009   5.229   0.373   2.677
94745SOL    HW286010   5.133   0.484   2.712
94746SOL     OW86011   9.202   1.123   3.350
94746SOL    HW186012   9.177   1.151   3.438
94746SOL    HW286013   9.174   1.032   3.345
94747SOL     OW86014   5.700   7.503   4.846
94747SOL    HW186015   5.728   7.472   4.933
94747SOL    HW286016   5.656   7.586   4.863
94748SOL     OW86017  12.356   8.545   0.686
94748SOL    HW186018  12.377   8.633   0.716
94748SOL    HW286019  12.441   8.506   0.665
94749SOL     OW86020   7.832  14.873   1.037
94749SOL    HW186021   7.771  14.808   1.071
94749SOL    HW286022   7.810   0.002   0.944
94750SOL     OW86023   1.072  12.824   4.241
94750SOL    HW186024   1.162  12.811   4.272
94750SOL    HW286025   1.018  12.798   4.316
94751SOL     OW86026   7.976   5.600  13.474
94751SOL    HW186027   7.944   5.660  13.406
94751SOL    HW286028   8.019   5.530  13.425
94752SOL     OW86029   5.559   4.789  13.300
94752SOL    HW186030   5.569   4.848  13.374
94752SOL    HW286031   5.466   4.767  13.298
94753SOL     OW86032  13.825  14.007   4.532
94753SOL    HW186033  13.903  13.974   4.488
94753SOL    HW286034  13.828  13.967   4.619
94754SOL     OW86035   6.997  10.392   9.293
94754SOL    HW186036   7.050  10.388   9.373
94754SOL    HW286037   6.910  10.418   9.324
94755SOL     OW86038   5.734  13.828  13.775
94755SOL    HW186039   5.686  13.867  13.703
94755SOL    HW286040   5.668  13.810  13.841
94756SOL     OW86041  13.263   5.291  11.421
94756SOL    HW186042  13.321   5.367  11.426
94756SOL    HW286043  13.281   5.253  11.335
94757SOL     OW86044   7.675  10.071   4.787
94757SOL    HW186045   7.600  10.035   4.834
94757SOL    HW286046   7.747  10.067   4.851
94758SOL     OW86047   9.552  12.866   9.122
94758SOL    HW186048   9.635  12.913   9.125
94758SOL    HW286049   9.522  12.876   9.031
94759SOL     OW86050   2.433   9.244   8.465
94759SOL    HW186051   2.457   9.311   8.529
94759SOL    HW286052   2.338   9.248   8.460
94760SOL     OW86053   7.018  13.703  10.125
94760SOL    HW186054   6.941  13.659  10.090
94760SOL    HW286055   7.059  13.745  10.048
94761SOL     OW86056  10.940   7.456   1.514
94761SOL    HW186057  10.993   7.534   1.494
94761SOL    HW286058  10.872   7.489   1.573
94762SOL     OW86059   0.684   4.705   9.580
94762SOL    HW186060   0.654   4.735   9.666
94762SOL    HW286061   0.667   4.611   9.580
94763SOL     OW86062  12.226   3.887   0.901
94763SOL    HW186063  12.317   3.894   0.933
94763SOL    HW286064  12.184   3.967   0.931
94764SOL     OW86065   9.289   1.552   2.790
94764SOL    HW186066   9.258   1.603   2.865
94764SOL    HW286067   9.340   1.481   2.830
94765SOL     OW86068   1.318   8.099   4.718
94765SOL    HW186069   1.263   8.041   4.665
94765SOL    HW286070   1.351   8.164   4.656
94766SOL     OW86071   6.303   0.926  14.497
94766SOL    HW186072   6.294   0.984  14.421
94766SOL    HW286073   6.392   0.892  14.491
94767SOL     OW86074   5.920  13.024   5.953
94767SOL    HW186075   5.914  12.929   5.938
94767SOL    HW286076   6.006  13.048   5.918
94768SOL     OW86077   3.031  10.832   9.600
94768SOL    HW186078   3.113  10.813   9.556
94768SOL    HW286079   2.964  10.789   9.547
94769SOL     OW86080   7.338   3.578  11.465
94769SOL    HW186081   7.278   3.652  11.474
94769SOL    HW286082   7.288   3.512  11.417
94770SOL     OW86083   8.054   7.161  14.290
94770SOL    HW186084   8.009   7.240  14.261
94770SOL    HW286085   8.057   7.169  14.386
94771SOL     OW86086  13.074  11.286  14.512
94771SOL    HW186087  13.095  11.272  14.420
94771SOL    HW286088  13.125  11.220  14.559
94772SOL     OW86089  11.901  14.183   5.263
94772SOL    HW186090  11.879  14.270   5.297
94772SOL    HW286091  11.906  14.195   5.168
94773SOL     OW86092   4.302   4.272   9.818
94773SOL    HW186093   4.296   4.202   9.883
94773SOL    HW286094   4.342   4.230   9.741
94774SOL     OW86095   0.071  12.976   4.594
94774SOL    HW186096   0.018  12.994   4.672
94774SOL    HW286097   0.088  12.882   4.598
94775SOL     OW86098  12.300   2.806  13.175
94775SOL    HW186099  12.313   2.894  13.210
94775SOL    HW286100  12.292   2.750  13.252
94776SOL     OW86101  14.633   4.985   3.694
94776SOL    HW186102  14.710   4.952   3.741
94776SOL    HW286103  14.601   5.057   3.749
94777SOL     OW86104   6.532   5.552   7.641
94777SOL    HW186105   6.519   5.638   7.601
94777SOL    HW286106   6.474   5.494   7.592
94778SOL     OW86107  12.549  10.905  11.223
94778SOL    HW186108  12.634  10.873  11.255
94778SOL    HW286109  12.528  10.978  11.281
94779SOL     OW86110  11.813   7.918   5.383
94779SOL    HW186111  11.774   7.913   5.471
94779SOL    HW286112  11.787   8.004   5.351
94780SOL     OW86113   6.993  13.592  13.649
94780SOL    HW186114   6.945  13.510  13.641
94780SOL    HW286115   6.957  13.632  13.729
94781SOL     OW86116   9.894   4.321  12.319
94781SOL    HW186117   9.987   4.305  12.305
94781SOL    HW286118   9.890   4.360  12.407
94782SOL     OW86119   6.814   8.602   1.235
94782SOL    HW186120   6.835   8.517   1.195
94782SOL    HW286121   6.719   8.601   1.243
94783SOL     OW86122   6.058   2.679   2.720
94783SOL    HW186123   6.053   2.697   2.814
94783SOL    HW286124   6.147   2.646   2.707
94784SOL     OW86125   3.641   0.093  12.499
94784SOL    HW186126   3.604   0.139  12.424
94784SOL    HW286127   3.574   0.030  12.525
94785SOL     OW86128  11.387   3.718   0.043
94785SOL    HW186129  11.364   3.646  14.862
94785SOL    HW286130  11.332   3.791   0.015
94786SOL     OW86131  10.995  13.141  10.344
94786SOL    HW186132  10.928  13.201  10.310
94786SOL    HW286133  10.946  13.073  10.389
94787SOL     OW86134   1.516  12.152   9.075
94787SOL    HW186135   1.464  12.082   9.113
94787SOL    HW286136   1.607  12.125   9.090
94788SOL     OW86137  13.240   8.491  12.828
94788SOL    HW186138  13.295   8.564  12.856
94788SOL    HW286139  13.285   8.413  12.862
94789SOL     OW86140  14.637   8.753   3.606
94789SOL    HW186141  14.680   8.668   3.599
94789SOL    HW286142  14.557   8.736   3.656
94790SOL     OW86143   2.042   5.327   0.338
94790SOL    HW186144   2.053   5.297   0.428
94790SOL    HW286145   2.031   5.247   0.287
94791SOL     OW86146   8.341  13.691  12.104
94791SOL    HW186147   8.306  13.606  12.077
94791SOL    HW286148   8.266  13.738  12.139
94792SOL     OW86149  10.879   1.578   4.166
94792SOL    HW186150  10.906   1.617   4.249
94792SOL    HW286151  10.929   1.625   4.100
94793SOL     OW86152  11.269   6.244  10.225
94793SOL    HW186153  11.340   6.180  10.225
94793SOL    HW286154  11.264   6.274  10.134
94794SOL     OW86155  12.890   1.223   7.660
94794SOL    HW186156  12.961   1.287   7.659
94794SOL    HW286157  12.846   1.235   7.575
94795SOL     OW86158   8.704  13.752   2.017
94795SOL    HW186159   8.737  13.691   2.083
94795SOL    HW286160   8.635  13.801   2.062
94796SOL     OW86161   6.480  10.154  12.106
94796SOL    HW186162   6.393  10.184  12.135
94796SOL    HW286163   6.472  10.058  12.104
94797SOL     OW86164   1.535  11.720  13.663
94797SOL    HW186165   1.528  11.774  13.584
94797SOL    HW286166   1.582  11.642  13.635
94798SOL     OW86167   4.801   0.371   8.117
94798SOL    HW186168   4.885   0.328   8.104
94798SOL    HW286169   4.740   0.322   8.062
94799SOL     OW86170   8.258   3.031   2.877
94799SOL    HW186171   8.250   3.107   2.819
94799SOL    HW286172   8.344   3.040   2.917
94800SOL     OW86173  14.662   9.890   3.178
94800SOL    HW186174  14.643   9.891   3.272
94800SOL    HW286175  14.594   9.945   3.139
94801SOL     OW86176   1.023   9.116   2.501
94801SOL    HW186177   1.070   9.093   2.421
94801SOL    HW286178   0.976   9.196   2.479
94802SOL     OW86179   2.754   0.377   0.406
94802SOL    HW186180   2.827   0.344   0.459
94802SOL    HW286181   2.783   0.364   0.316
94803SOL     OW86182   3.436  13.672  12.327
94803SOL    HW186183   3.360  13.724  12.303
94803SOL    HW286184   3.485  13.661  12.246
94804SOL     OW86185   5.732   4.532   5.291
94804SOL    HW186186   5.739   4.504   5.200
94804SOL    HW286187   5.639   4.528   5.311
94805SOL     OW86188  12.353   3.896  12.859
94805SOL    HW186189  12.437   3.898  12.906
94805SOL    HW286190  12.288   3.919  12.926
94806SOL     OW86191   0.541   1.399   0.312
94806SOL    HW186192   0.540   1.476   0.255
94806SOL    HW286193   0.478   1.339   0.272
94807SOL     OW86194  12.215  11.859   2.990
94807SOL    HW186195  12.257  11.924   2.934
94807SOL    HW286196  12.279  11.788   2.996
94808SOL     OW86197   3.250   6.146   5.318
94808SOL    HW186198   3.278   6.090   5.390
94808SOL    HW286199   3.155   6.134   5.314
94809SOL     OW86200   7.531  11.905   2.168
94809SOL    HW186201   7.568  11.945   2.246
94809SOL    HW286202   7.438  11.928   2.171
94810SOL     OW86203   9.972  12.646   3.512
94810SOL    HW186204  10.065  12.656   3.533
94810SOL    HW286205   9.963  12.552   3.492
94811SOL     OW86206   3.686  12.307  14.406
94811SOL    HW186207   3.773  12.274  14.430
94811SOL    HW286208   3.698  12.401  14.394
94812SOL     OW86209   8.397   7.830   5.729
94812SOL    HW186210   8.446   7.898   5.774
94812SOL    HW286211   8.347   7.876   5.662
94813SOL     OW86212   4.408  10.995   1.526
94813SOL    HW186213   4.470  10.946   1.472
94813SOL    HW286214   4.415  11.085   1.494
94814SOL     OW86215   1.652  13.744   8.297
94814SOL    HW186216   1.613  13.828   8.270
94814SOL    HW286217   1.681  13.704   8.215
94815SOL     OW86218   4.816   5.362   3.742
94815SOL    HW186219   4.825   5.373   3.836
94815SOL    HW286220   4.769   5.279   3.732
94816SOL     OW86221   7.062  14.408   7.421
94816SOL    HW186222   6.978  14.392   7.463
94816SOL    HW286223   7.121  14.428   7.494
94817SOL     OW86224   4.683   2.472  11.079
94817SOL    HW186225   4.664   2.548  11.023
94817SOL    HW286226   4.677   2.397  11.020
94818SOL     OW86227   5.872   0.153   3.532
94818SOL    HW186228   5.943   0.216   3.525
94818SOL    HW286229   5.839   0.163   3.621
94819SOL     OW86230  11.308   3.428  14.221
94819SOL    HW186231  11.329   3.500  14.161
94819SOL    HW286232  11.212   3.429  14.227
94820SOL     OW86233  14.403   5.485   5.919
94820SOL    HW186234  14.395   5.498   6.013
94820SOL    HW286235  14.497   5.486   5.903
94821SOL     OW86236   4.163   8.661   1.399
94821SOL    HW186237   4.243   8.700   1.433
94821SOL    HW286238   4.093   8.702   1.449
94822SOL     OW86239   7.393   9.935   1.824
94822SOL    HW186240   7.307   9.896   1.809
94822SOL    HW286241   7.388  10.020   1.780
94823SOL     OW86242   6.878   5.706   6.545
94823SOL    HW186243   6.841   5.784   6.503
94823SOL    HW286244   6.969   5.730   6.562
94824SOL     OW86245  12.580   9.162   9.920
94824SOL    HW186246  12.627   9.170   9.838
94824SOL    HW286247  12.640   9.200   9.986
94825SOL     OW86248   9.708   8.216  14.155
94825SOL    HW186249   9.773   8.162  14.110
94825SOL    HW286250   9.740   8.305  14.146
94826SOL     OW86251   8.183   5.539   1.651
94826SOL    HW186252   8.169   5.630   1.627
94826SOL    HW286253   8.259   5.512   1.598
94827SOL     OW86254  11.746   3.941   2.132
94827SOL    HW186255  11.798   3.936   2.212
94827SOL    HW286256  11.808   3.926   2.061
94828SOL     OW86257   9.706   3.333   0.165
94828SOL    HW186258   9.715   3.280   0.244
94828SOL    HW286259   9.634   3.292   0.117
94829SOL     OW86260   4.426   7.410   1.872
94829SOL    HW186261   4.379   7.425   1.790
94829SOL    HW286262   4.518   7.424   1.850
94830SOL     OW86263   6.307   0.487  12.475
94830SOL    HW186264   6.289   0.538  12.395
94830SOL    HW286265   6.389   0.524  12.509
94831SOL     OW86266   0.650   1.169  12.323
94831SOL    HW186267   0.723   1.184  12.383
94831SOL    HW286268   0.663   1.234  12.253
94832SOL     OW86269  10.216   0.168   1.236
94832SOL    HW186270  10.162   0.224   1.293
94832SOL    HW286271  10.153   0.111   1.192
94833SOL     OW86272  10.795   2.069   9.611
94833SOL    HW186273  10.761   2.021   9.687
94833SOL    HW286274  10.720   2.118   9.578
94834SOL     OW86275   9.763   1.969   9.709
94834SOL    HW186276   9.790   2.058   9.686
94834SOL    HW286277   9.748   1.926   9.625
94835SOL     OW86278  10.104   4.535  12.477
94835SOL    HW186279  10.139   4.464  12.422
94835SOL    HW286280  10.180   4.565  12.527
94836SOL     OW86281   2.244   9.630   0.371
94836SOL    HW186282   2.177   9.630   0.439
94836SOL    HW286283   2.249   9.720   0.341
94837SOL     OW86284  14.446  13.806  12.127
94837SOL    HW186285  14.452  13.846  12.040
94837SOL    HW286286  14.360  13.763  12.129
94838SOL     OW86287   4.369  14.246   5.490
94838SOL    HW186288   4.447  14.195   5.467
94838SOL    HW286289   4.339  14.210   5.573
94839SOL     OW86290  11.179  10.371   3.676
94839SOL    HW186291  11.220  10.335   3.597
94839SOL    HW286292  11.252  10.382   3.738
94840SOL     OW86293   7.835   3.515   9.117
94840SOL    HW186294   7.782   3.538   9.040
94840SOL    HW286295   7.856   3.599   9.157
94841SOL     OW86296  14.820  10.836   7.164
94841SOL    HW186297  14.780  10.867   7.082
94841SOL    HW286298  14.754  10.778   7.202
94842SOL     OW86299   7.479  14.117   8.485
94842SOL    HW186300   7.538  14.191   8.505
94842SOL    HW286301   7.416  14.154   8.423
94843SOL     OW86302   8.369   6.221   8.159
94843SOL    HW186303   8.359   6.227   8.064
94843SOL    HW286304   8.313   6.290   8.193
94844SOL     OW86305   2.675   6.503   2.068
94844SOL    HW186306   2.611   6.522   2.000
94844SOL    HW286307   2.760   6.522   2.028
94845SOL     OW86308   7.773   8.976  13.964
94845SOL    HW186309   7.736   8.888  13.971
94845SOL    HW286310   7.716   9.020  13.900
94846SOL     OW86311   6.063  12.107   7.825
94846SOL    HW186312   6.142  12.153   7.796
94846SOL    HW286313   6.027  12.162   7.894
94847SOL     OW86314  11.725  10.562   2.976
94847SOL    HW186315  11.774  10.643   2.960
94847SOL    HW286316  11.758  10.530   3.060
94848SOL     OW86317  13.294   8.085   3.766
94848SOL    HW186318  13.232   8.145   3.724
94848SOL    HW286319  13.270   8.086   3.859
94849SOL     OW86320   9.618   0.346   0.834
94849SOL    HW186321   9.576   0.340   0.749
94849SOL    HW286322   9.582   0.273   0.885
94850SOL     OW86323   3.047   4.907  11.139
94850SOL    HW186324   3.059   4.996  11.105
94850SOL    HW286325   3.131   4.886  11.181
94851SOL     OW86326   1.560  14.247  12.930
94851SOL    HW186327   1.605  14.165  12.910
94851SOL    HW286328   1.483  14.220  12.980
94852SOL     OW86329  13.396   3.367  13.519
94852SOL    HW186330  13.407   3.323  13.434
94852SOL    HW286331  13.462   3.326  13.575
94853SOL     OW86332  12.175   6.235   9.709
94853SOL    HW186333  12.142   6.188   9.632
94853SOL    HW286334  12.233   6.173   9.752
94854SOL     OW86335   0.389   9.046   6.473
94854SOL    HW186336   0.317   9.107   6.490
94854SOL    HW286337   0.348   8.970   6.432
94855SOL     OW86338   4.206   7.011   5.379
94855SOL    HW186339   4.191   7.069   5.454
94855SOL    HW286340   4.127   7.022   5.325
94856SOL     OW86341   1.691   5.567   2.556
94856SOL    HW186342   1.745   5.491   2.533
94856SOL    HW286343   1.713   5.632   2.489
94857SOL     OW86344  14.504   2.762   6.333
94857SOL    HW186345  14.414   2.733   6.346
94857SOL    HW286346  14.517   2.758   6.238
94858SOL     OW86347   8.629  10.804   8.282
94858SOL    HW186348   8.654  10.740   8.348
94858SOL    HW286349   8.533  10.804   8.283
94859SOL     OW86350   8.860   8.311   1.159
94859SOL    HW186351   8.880   8.232   1.210
94859SOL    HW286352   8.799   8.282   1.092
94860SOL     OW86353  12.390  14.037   8.279
94860SOL    HW186354  12.471  14.081   8.304
94860SOL    HW286355  12.376  14.063   8.188
94861SOL     OW86356   2.285   7.268  10.833
94861SOL    HW186357   2.361   7.319  10.804
94861SOL    HW286358   2.321   7.207  10.898
94862SOL     OW86359  12.610  14.458   1.654
94862SOL    HW186360  12.592  14.460   1.560
94862SOL    HW286361  12.550  14.392   1.688
94863SOL     OW86362  10.285   9.859  11.184
94863SOL    HW186363  10.363   9.808  11.205
94863SOL    HW286364  10.219   9.793  11.160
94864SOL     OW86365   1.104   5.787  10.411
94864SOL    HW186366   1.145   5.870  10.437
94864SOL    HW286367   1.018   5.789  10.452
94865SOL     OW86368   4.606  10.186   2.769
94865SOL    HW186369   4.657  10.203   2.691
94865SOL    HW286370   4.522  10.154   2.737
94866SOL     OW86371  10.554   7.979   9.130
94866SOL    HW186372  10.600   7.975   9.046
94866SOL    HW286373  10.534   7.888   9.151
94867SOL     OW86374   0.328   7.791   0.892
94867SOL    HW186375   0.280   7.810   0.812
94867SOL    HW286376   0.420   7.794   0.865
94868SOL     OW86377   6.481   5.227   8.294
94868SOL    HW186378   6.534   5.212   8.216
94868SOL    HW286379   6.504   5.316   8.322
94869SOL     OW86380   7.143   3.522   2.213
94869SOL    HW186381   7.126   3.568   2.296
94869SOL    HW286382   7.101   3.576   2.147
94870SOL     OW86383  13.497  11.673  14.148
94870SOL    HW186384  13.404  11.692  14.136
94870SOL    HW286385  13.523  11.728  14.221
94871SOL     OW86386   7.235  14.450  10.735
94871SOL    HW186387   7.177  14.408  10.671
94871SOL    HW286388   7.238  14.389  10.809
94872SOL     OW86389   7.861   8.892  10.878
94872SOL    HW186390   7.795   8.949  10.839
94872SOL    HW286391   7.901   8.945  10.946
94873SOL     OW86392   7.607   3.839   2.859
94873SOL    HW186393   7.677   3.774   2.867
94873SOL    HW286394   7.630   3.889   2.781
94874SOL     OW86395   0.944   7.649   8.959
94874SOL    HW186396   0.885   7.574   8.958
94874SOL    HW286397   0.969   7.661   8.868
94875SOL     OW86398  12.596  12.078   8.596
94875SOL    HW186399  12.655  12.069   8.672
94875SOL    HW286400  12.621  12.162   8.557
94876SOL     OW86401   8.923   8.782  13.711
94876SOL    HW186402   9.000   8.736  13.743
94876SOL    HW286403   8.865   8.713  13.679
94877SOL     OW86404  13.433   1.412   0.736
94877SOL    HW186405  13.400   1.405   0.825
94877SOL    HW286406  13.429   1.323   0.701
94878SOL     OW86407   0.606   5.718   5.962
94878SOL    HW186408   0.643   5.668   6.035
94878SOL    HW286409   0.672   5.713   5.893
94879SOL     OW86410   3.639   0.429   6.969
94879SOL    HW186411   3.552   0.447   6.932
94879SOL    HW286412   3.700   0.471   6.908
94880SOL     OW86413  14.703   1.502  11.078
94880SOL    HW186414  14.773   1.560  11.110
94880SOL    HW286415  14.682   1.536  10.991
94881SOL     OW86416  14.120   6.682  10.441
94881SOL    HW186417  14.093   6.723  10.359
94881SOL    HW286418  14.038   6.663  10.487
94882SOL     OW86419  12.678   8.515   6.135
94882SOL    HW186420  12.747   8.448   6.137
94882SOL    HW286421  12.610   8.477   6.080
94883SOL     OW86422   8.908  11.576  11.693
94883SOL    HW186423   8.971  11.626  11.641
94883SOL    HW286424   8.961  11.513  11.742
94884SOL     OW86425   7.808  12.347   4.706
94884SOL    HW186426   7.737  12.355   4.770
94884SOL    HW286427   7.763  12.323   4.624
94885SOL     OW86428   2.845   3.833   5.193
94885SOL    HW186429   2.824   3.745   5.226
94885SOL    HW286430   2.773   3.855   5.135
94886SOL     OW86431  10.978  14.851   3.754
94886SOL    HW186432  10.976   0.015   3.668
94886SOL    HW286433  10.890  14.864   3.789
94887SOL     OW86434  12.105   0.373   4.869
94887SOL    HW186435  12.140   0.341   4.953
94887SOL    HW286436  12.152   0.455   4.855
94888SOL     OW86437   3.374  14.794   1.167
94888SOL    HW186438   3.286  14.815   1.199
94888SOL    HW286439   3.399  14.715   1.216
94889SOL     OW86440   0.460   3.654   2.448
94889SOL    HW186441   0.384   3.602   2.473
94889SOL    HW286442   0.535   3.605   2.482
94890SOL     OW86443   0.719   2.297   9.548
94890SOL    HW186444   0.806   2.272   9.516
94890SOL    HW286445   0.720   2.393   9.545
94891SOL     OW86446   6.524   8.648   3.159
94891SOL    HW186447   6.490   8.737   3.162
94891SOL    HW286448   6.614   8.657   3.127
94892SOL     OW86449   2.383   4.084   9.128
94892SOL    HW186450   2.333   4.072   9.047
94892SOL    HW286451   2.324   4.054   9.197
94893SOL     OW86452  14.097   2.081  11.078
94893SOL    HW186453  14.061   2.168  11.096
94893SOL    HW286454  14.020   2.024  11.070
94894SOL     OW86455   0.454   6.947   4.712
94894SOL    HW186456   0.431   6.874   4.655
94894SOL    HW286457   0.427   7.025   4.663
94895SOL     OW86458   8.278   3.763  12.269
94895SOL    HW186459   8.355   3.754  12.214
94895SOL    HW286460   8.311   3.753  12.359
94896SOL     OW86461   2.632   1.180   9.287
94896SOL    HW186462   2.558   1.229   9.322
94896SOL    HW286463   2.702   1.192   9.352
94897SOL     OW86464  13.040   3.576  13.065
94897SOL    HW186465  13.054   3.659  13.110
94897SOL    HW286466  13.043   3.598  12.972
94898SOL     OW86467   8.583   4.958   6.548
94898SOL    HW186468   8.647   4.913   6.493
94898SOL    HW286469   8.605   4.933   6.637
94899SOL     OW86470  11.227  11.529  14.105
94899SOL    HW186471  11.285  11.469  14.059
94899SOL    HW286472  11.277  11.556  14.183
94900SOL     OW86473   1.051  13.657   9.185
94900SOL    HW186474   1.034  13.613   9.269
94900SOL    HW286475   1.145  13.644   9.171
94901SOL     OW86476  12.794   8.429   4.893
94901SOL    HW186477  12.763   8.495   4.955
94901SOL    HW286478  12.803   8.477   4.810
94902SOL     OW86479   7.245   1.959   5.810
94902SOL    HW186480   7.254   1.866   5.789
94902SOL    HW286481   7.298   1.971   5.889
94903SOL     OW86482   3.632   2.963   4.279
94903SOL    HW186483   3.677   3.036   4.321
94903SOL    HW286484   3.568   3.004   4.220
94904SOL     OW86485  11.819  14.326  11.386
94904SOL    HW186486  11.757  14.399  11.386
94904SOL    HW286487  11.837  14.309  11.478
94905SOL     OW86488  12.976  10.956   4.454
94905SOL    HW186489  12.938  10.885   4.507
94905SOL    HW286490  13.009  10.912   4.376
94906SOL     OW86491   9.116   5.148   7.448
94906SOL    HW186492   9.046   5.113   7.393
94906SOL    HW286493   9.095   5.241   7.458
94907SOL     OW86494   7.207   6.810   4.014
94907SOL    HW186495   7.301   6.827   4.002
94907SOL    HW286496   7.203   6.748   4.087
94908SOL     OW86497   4.673   2.658   4.352
94908SOL    HW186498   4.660   2.750   4.375
94908SOL    HW286499   4.660   2.654   4.257
94909SOL     OW86500  13.744  14.165   1.782
94909SOL    HW186501  13.747  14.215   1.700
94909SOL    HW286502  13.650  14.157   1.802
94910SOL     OW86503   8.705   5.078   5.500
94910SOL    HW186504   8.684   5.010   5.564
94910SOL    HW286505   8.680   5.040   5.416
94911SOL     OW86506   5.759  14.061  11.786
94911SOL    HW186507   5.850  14.088  11.801
94911SOL    HW286508   5.765  13.991  11.721
94912SOL     OW86509   8.679   6.902  10.318
94912SOL    HW186510   8.725   6.873  10.239
94912SOL    HW286511   8.737   6.969  10.356
94913SOL     OW86512   0.166  14.424  14.246
94913SOL    HW186513   0.227  14.494  14.222
94913SOL    HW286514   0.124  14.456  14.327
94914SOL     OW86515   4.975   2.401   6.426
94914SOL    HW186516   4.994   2.313   6.458
94914SOL    HW286517   5.000   2.459   6.498
94915SOL     OW86518   2.750  11.192   7.042
94915SOL    HW186519   2.806  11.149   7.107
94915SOL    HW286520   2.686  11.241   7.093
94916SOL     OW86521   2.028  13.975   3.198
94916SOL    HW186522   2.087  13.991   3.124
94916SOL    HW286523   2.079  13.918   3.256
94917SOL     OW86524   9.508  13.392  10.635
94917SOL    HW186525   9.535  13.450  10.564
94917SOL    HW286526   9.453  13.447  10.691
94918SOL     OW86527   6.338  10.144   8.862
94918SOL    HW186528   6.260  10.191   8.891
94918SOL    HW286529   6.334  10.060   8.908
94919SOL     OW86530   5.669  14.765  14.424
94919SOL    HW186531   5.605  14.817  14.472
94919SOL    HW286532   5.659  14.791  14.333
94920SOL     OW86533   5.327   5.825   9.163
94920SOL    HW186534   5.260   5.894   9.166
94920SOL    HW286535   5.306   5.769   9.238
94921SOL     OW86536  13.447   2.609   1.670
94921SOL    HW186537  13.538   2.622   1.644
94921SOL    HW286538  13.423   2.688   1.717
94922SOL     OW86539   9.308   1.410   9.790
94922SOL    HW186540   9.283   1.431   9.880
94922SOL    HW286541   9.386   1.355   9.800
94923SOL     OW86542   0.097   0.236  14.788
94923SOL    HW186543   0.092   0.304  14.855
94923SOL    HW286544   0.015   0.244  14.739
94924SOL     OW86545   6.667  12.346   8.409
94924SOL    HW186546   6.703  12.258   8.401
94924SOL    HW286547   6.572  12.334   8.410
94925SOL     OW86548   7.085   8.269  11.035
94925SOL    HW186549   7.025   8.222  10.977
94925SOL    HW286550   7.038   8.275  11.118
94926SOL     OW86551   6.019  11.289   4.004
94926SOL    HW186552   5.981  11.288   4.092
94926SOL    HW286553   6.071  11.370   4.002
94927SOL     OW86554  14.116   1.315  11.636
94927SOL    HW186555  14.146   1.405  11.644
94927SOL    HW286556  14.059   1.302  11.712
94928SOL     OW86557   8.239  14.737   7.139
94928SOL    HW186558   8.224  14.826   7.106
94928SOL    HW286559   8.162  14.719   7.193
94929SOL     OW86560  10.140  12.400  13.778
94929SOL    HW186561  10.114  12.425  13.690
94929SOL    HW286562  10.183  12.478  13.813
94930SOL     OW86563  11.615  12.009   7.673
94930SOL    HW186564  11.575  12.056   7.600
94930SOL    HW286565  11.563  11.929   7.683
94931SOL     OW86566   6.982   5.339   7.946
94931SOL    HW186567   6.916   5.278   7.912
94931SOL    HW286568   6.931   5.408   7.988
94932SOL     OW86569  10.592   8.982   8.288
94932SOL    HW186570  10.518   9.036   8.316
94932SOL    HW286571  10.563   8.892   8.301
94933SOL     OW86572   8.536   1.693  10.908
94933SOL    HW186573   8.494   1.667  10.826
94933SOL    HW286574   8.559   1.785  10.894
94934SOL     OW86575   2.729  13.232  12.646
94934SOL    HW186576   2.781  13.250  12.724
94934SOL    HW286577   2.642  13.265  12.668
94935SOL     OW86578   0.371  12.667  13.036
94935SOL    HW186579   0.387  12.687  12.943
94935SOL    HW286580   0.276  12.651  13.040
94936SOL     OW86581  13.487   0.640  13.282
94936SOL    HW186582  13.503   0.610  13.371
94936SOL    HW286583  13.570   0.679  13.255
94937SOL     OW86584   7.675  12.897  11.638
94937SOL    HW186585   7.631  12.812  11.633
94937SOL    HW286586   7.683  12.914  11.732
94938SOL     OW86587  10.815   1.441   8.176
94938SOL    HW186588  10.825   1.527   8.217
94938SOL    HW286589  10.903   1.419   8.144
94939SOL     OW86590   0.523  10.373   1.044
94939SOL    HW186591   0.561  10.307   1.103
94939SOL    HW286592   0.514  10.451   1.099
94940SOL     OW86593  13.846  10.115  14.412
94940SOL    HW186594  13.800  10.183  14.363
94940SOL    HW286595  13.935  10.149  14.422
94941SOL     OW86596  14.489   7.408   6.948
94941SOL    HW186597  14.430   7.441   6.881
94941SOL    HW286598  14.547   7.348   6.901
94942SOL     OW86599  11.601  14.464   4.599
94942SOL    HW186600  11.561  14.380   4.578
94942SOL    HW286601  11.571  14.523   4.530
94943SOL     OW86602   4.055   1.080   4.888
94943SOL    HW186603   4.111   1.035   4.825
94943SOL    HW286604   4.115   1.133   4.940
94944SOL     OW86605   7.494   7.739   6.890
94944SOL    HW186606   7.535   7.654   6.910
94944SOL    HW286607   7.538   7.801   6.949
94945SOL     OW86608   9.495   2.954  11.265
94945SOL    HW186609   9.533   3.004  11.338
94945SOL    HW286610   9.459   2.876  11.306
94946SOL     OW86611   6.723   9.003  13.814
94946SOL    HW186612   6.660   8.988  13.885
94946SOL    HW286613   6.691   9.081  13.770
94947SOL     OW86614  12.004  12.462  13.899
94947SOL    HW186615  12.093  12.495  13.910
94947SOL    HW286616  11.968  12.459  13.988
94948SOL     OW86617  12.886   3.500   4.110
94948SOL    HW186618  12.859   3.592   4.105
94948SOL    HW286619  12.929   3.484   4.026
94949SOL     OW86620  12.725   8.288   2.996
94949SOL    HW186621  12.705   8.335   3.077
94949SOL    HW286622  12.643   8.242   2.974
94950SOL     OW86623  13.130  13.448   1.281
94950SOL    HW186624  13.090  13.527   1.317
94950SOL    HW286625  13.216  13.444   1.323
94951SOL     OW86626   0.153   1.452   4.165
94951SOL    HW186627   0.108   1.407   4.237
94951SOL    HW286628   0.085   1.507   4.126
94952SOL     OW86629   1.620  11.396  14.157
94952SOL    HW186630   1.654  11.473  14.203
94952SOL    HW286631   1.660  11.399  14.071
94953SOL     OW86632  14.721   8.757   8.517
94953SOL    HW186633  14.725   8.846   8.553
94953SOL    HW286634  14.811   8.740   8.487
94954SOL     OW86635   7.909   5.388  13.290
94954SOL    HW186636   7.969   5.423  13.224
94954SOL    HW286637   7.939   5.298  13.304
94955SOL     OW86638  12.412   0.735   5.538
94955SOL    HW186639  12.421   0.825   5.571
94955SOL    HW286640  12.376   0.686   5.611
94956SOL     OW86641   7.168   5.971   6.938
94956SOL    HW186642   7.199   5.914   7.009
94956SOL    HW286643   7.135   6.049   6.982
94957SOL     OW86644   4.326   6.094   6.045
94957SOL    HW186645   4.316   6.043   5.964
94957SOL    HW286646   4.281   6.176   6.027
94958SOL     OW86647   8.158  11.171  13.798
94958SOL    HW186648   8.217  11.241  13.769
94958SOL    HW286649   8.161  11.177  13.894
94959SOL     OW86650   1.343   7.768   6.593
94959SOL    HW186651   1.266   7.801   6.546
94959SOL    HW286652   1.414   7.828   6.569
94960SOL     OW86653  14.405   6.456   2.314
94960SOL    HW186654  14.417   6.444   2.408
94960SOL    HW286655  14.355   6.380   2.286
94961SOL     OW86656  12.845  13.130  10.729
94961SOL    HW186657  12.875  13.043  10.754
94961SOL    HW286658  12.778  13.153  10.793
94962SOL     OW86659   4.426   3.140   5.869
94962SOL    HW186660   4.463   3.141   5.957
94962SOL    HW286661   4.365   3.214   5.867
94963SOL     OW86662   0.123  10.651   9.434
94963SOL    HW186663   0.210  10.648   9.472
94963SOL    HW286664   0.086  10.734   9.463
94964SOL     OW86665  12.361   5.457   1.490
94964SOL    HW186666  12.349   5.389   1.556
94964SOL    HW286667  12.369   5.538   1.539
94965SOL     OW86668   9.372  10.674   7.029
94965SOL    HW186669   9.418  10.621   6.963
94965SOL    HW286670   9.313  10.729   6.977
94966SOL     OW86671   7.048   0.412   8.975
94966SOL    HW186672   6.963   0.441   9.006
94966SOL    HW286673   7.040   0.414   8.879
94967SOL     OW86674   6.460   0.709  12.027
94967SOL    HW186675   6.538   0.653  12.024
94967SOL    HW286676   6.468   0.765  11.950
94968SOL     OW86677   2.376   8.786   3.770
94968SOL    HW186678   2.462   8.790   3.729
94968SOL    HW286679   2.334   8.709   3.732
94969SOL     OW86680   0.218   3.636   7.147
94969SOL    HW186681   0.224   3.571   7.077
94969SOL    HW286682   0.172   3.710   7.107
94970SOL     OW86683   1.484   1.812   1.000
94970SOL    HW186684   1.556   1.789   1.058
94970SOL    HW286685   1.406   1.775   1.043
94971SOL     OW86686  12.496   9.321  14.755
94971SOL    HW186687  12.470   9.404  14.714
94971SOL    HW286688  12.414   9.274  14.767
94972SOL     OW86689  14.709   9.762  11.041
94972SOL    HW186690  14.654   9.832  11.076
94972SOL    HW286691  14.741   9.716  11.118
94973SOL     OW86692   8.812  11.959   9.643
94973SOL    HW186693   8.729  11.990   9.680
94973SOL    HW286694   8.835  11.883   9.696
94974SOL     OW86695   8.576   1.223   5.854
94974SOL    HW186696   8.649   1.275   5.887
94974SOL    HW286697   8.498   1.276   5.873
94975SOL     OW86698   4.213   6.191  10.821
94975SOL    HW186699   4.188   6.156  10.906
94975SOL    HW286700   4.153   6.149  10.759
94976SOL     OW86701   7.100   6.073  12.734
94976SOL    HW186702   7.045   6.138  12.777
94976SOL    HW286703   7.134   6.118  12.656
94977SOL     OW86704   3.833  11.343   0.914
94977SOL    HW186705   3.916  11.387   0.931
94977SOL    HW286706   3.830  11.334   0.818
94978SOL     OW86707   3.695   8.846  10.081
94978SOL    HW186708   3.690   8.776  10.016
94978SOL    HW286709   3.618   8.900  10.064
94979SOL     OW86710   0.086   0.566   3.642
94979SOL    HW186711   0.142   0.640   3.617
94979SOL    HW286712   0.052   0.533   3.559
94980SOL     OW86713   9.864   9.169   2.858
94980SOL    HW186714   9.863   9.214   2.942
94980SOL    HW286715   9.845   9.237   2.793
94981SOL     OW86716   3.351   5.585   3.744
94981SOL    HW186717   3.410   5.510   3.749
94981SOL    HW286718   3.389   5.641   3.676
94982SOL     OW86719   9.475   7.868   4.356
94982SOL    HW186720   9.554   7.918   4.378
94982SOL    HW286721   9.413   7.890   4.426
94983SOL     OW86722  14.804   2.969  10.316
94983SOL    HW186723  14.833   2.952  10.406
94983SOL    HW286724  14.803   3.064  10.309
94984SOL     OW86725  12.560  13.003   3.899
94984SOL    HW186726  12.571  12.926   3.954
94984SOL    HW286727  12.601  13.074   3.948
94985SOL     OW86728  14.623   1.125   8.851
94985SOL    HW186729  14.592   1.147   8.939
94985SOL    HW286730  14.645   1.210   8.812
94986SOL     OW86731   0.587   8.272   5.782
94986SOL    HW186732   0.660   8.211   5.773
94986SOL    HW286733   0.627   8.359   5.781
94987SOL     OW86734   6.650   6.644  12.467
94987SOL    HW186735   6.678   6.638  12.376
94987SOL    HW286736   6.730   6.632  12.518
94988SOL     OW86737   4.282  10.302  13.981
94988SOL    HW186738   4.312  10.392  13.991
94988SOL    HW286739   4.200  10.309  13.932
94989SOL     OW86740  13.470  10.585  11.737
94989SOL    HW186741  13.401  10.564  11.799
94989SOL    HW286742  13.550  10.592  11.790
94990SOL     OW86743   0.359   8.808   2.897
94990SOL    HW186744   0.297   8.805   2.824
94990SOL    HW286745   0.305   8.789   2.975
94991SOL     OW86746  10.576   6.750  11.199
94991SOL    HW186747  10.670   6.769  11.192
94991SOL    HW286748  10.536   6.807  11.133
94992SOL     OW86749  10.484  11.395   6.268
94992SOL    HW186750  10.449  11.450   6.339
94992SOL    HW286751  10.435  11.313   6.275
94993SOL     OW86752   8.835   0.265  11.848
94993SOL    HW186753   8.931   0.256  11.851
94993SOL    HW286754   8.818   0.320  11.772
94994SOL     OW86755   3.364   6.017   7.824
94994SOL    HW186756   3.292   6.060   7.779
94994SOL    HW286757   3.408   6.087   7.872
94995SOL     OW86758   2.678  10.287   4.288
94995SOL    HW186759   2.711  10.259   4.203
94995SOL    HW286760   2.598  10.336   4.268
94996SOL     OW86761  11.490   7.669  14.622
94996SOL    HW186762  11.438   7.738  14.582
94996SOL    HW286763  11.484   7.596  14.560
94997SOL     OW86764   0.644   1.818   7.014
94997SOL    HW186765   0.713   1.812   6.947
94997SOL    HW286766   0.596   1.736   7.007
94998SOL     OW86767  11.516  13.943   6.416
94998SOL    HW186768  11.503  13.852   6.389
94998SOL    HW286769  11.431  13.985   6.402
94999SOL     OW86770   2.271   0.654  13.042
94999SOL    HW186771   2.351   0.635  12.993
94999SOL    HW286772   2.298   0.649  13.134
95000SOL     OW86773   0.860   1.831   5.646
95000SOL    HW186774   0.951   1.821   5.674
95000SOL    HW286775   0.866   1.868   5.558
95001SOL     OW86776  13.619   8.878   6.139
95001SOL    HW186777  13.554   8.808   6.131
95001SOL    HW286778  13.703   8.832   6.147
95002SOL     OW86779   7.422   1.257  12.676
95002SOL    HW186780   7.378   1.217  12.601
95002SOL    HW286781   7.515   1.241  12.661
95003SOL     OW86782  11.876   3.240  10.181
95003SOL    HW186783  11.877   3.308  10.113
95003SOL    HW286784  11.964   3.243  10.219
95004SOL     OW86785  14.339   6.405   6.222
95004SOL    HW186786  14.377   6.430   6.306
95004SOL    HW286787  14.322   6.311   6.230
95005SOL     OW86788   3.312   9.692  12.534
95005SOL    HW186789   3.359   9.702  12.616
95005SOL    HW286790   3.365   9.631  12.483
95006SOL     OW86791  10.310   8.447   1.652
95006SOL    HW186792  10.274   8.360   1.632
95006SOL    HW286793  10.234   8.504   1.657
95007SOL     OW86794   6.039   8.289   8.940
95007SOL    HW186795   5.986   8.345   8.996
95007SOL    HW286796   6.120   8.339   8.925
95008SOL     OW86797   4.895  13.381  13.220
95008SOL    HW186798   4.954  13.437  13.170
95008SOL    HW286799   4.846  13.333  13.153
95009SOL     OW86800  11.070   5.566   5.680
95009SOL    HW186801  11.027   5.645   5.712
95009SOL    HW286802  11.037   5.496   5.737
95010SOL     OW86803   9.567   7.549   1.492
95010SOL    HW186804   9.506   7.585   1.556
95010SOL    HW286805   9.622   7.489   1.543
95011SOL     OW86806   5.913   4.250  14.145
95011SOL    HW186807   5.912   4.266  14.240
95011SOL    HW286808   5.896   4.336  14.107
95012SOL     OW86809  13.647   2.623   5.698
95012SOL    HW186810  13.600   2.654   5.621
95012SOL    HW286811  13.725   2.580   5.664
95013SOL     OW86812  12.462   8.344   4.037
95013SOL    HW186813  12.371   8.371   4.025
95013SOL    HW286814  12.457   8.251   4.057
95014SOL     OW86815   8.934   7.688   5.834
95014SOL    HW186816   9.021   7.715   5.866
95014SOL    HW286817   8.928   7.595   5.856
95015SOL     OW86818  11.995  10.539   7.237
95015SOL    HW186819  11.983  10.519   7.330
95015SOL    HW286820  11.946  10.621   7.224
95016SOL     OW86821  12.635  10.367   8.644
95016SOL    HW186822  12.607  10.453   8.677
95016SOL    HW286823  12.648  10.315   8.723
95017SOL     OW86824   9.369   6.581   0.536
95017SOL    HW186825   9.305   6.576   0.465
95017SOL    HW286826   9.443   6.528   0.506
95018SOL     OW86827   0.940  13.632   4.839
95018SOL    HW186828   0.894  13.637   4.756
95018SOL    HW286829   1.031  13.613   4.816
95019SOL     OW86830   0.893   1.698   1.417
95019SOL    HW186831   0.880   1.609   1.384
95019SOL    HW286832   0.877   1.754   1.342
95020SOL     OW86833   3.457  12.583  12.887
95020SOL    HW186834   3.483  12.602  12.797
95020SOL    HW286835   3.362  12.592  12.887
95021SOL     OW86836   2.318   2.866   7.500
95021SOL    HW186837   2.351   2.955   7.511
95021SOL    HW286838   2.226   2.871   7.525
95022SOL     OW86839   1.338   9.576  13.077
95022SOL    HW186840   1.316   9.666  13.052
95022SOL    HW286841   1.429   9.582  13.108
95023SOL     OW86842   7.146  10.860  13.739
95023SOL    HW186843   7.098  10.934  13.778
95023SOL    HW286844   7.099  10.841  13.658
95024SOL     OW86845  10.211  14.774   5.650
95024SOL    HW186846  10.216  14.679   5.648
95024SOL    HW286847  10.138  14.793   5.709
95025SOL     OW86848   8.746  11.686   4.384
95025SOL    HW186849   8.763  11.595   4.408
95025SOL    HW286850   8.754  11.688   4.289
95026SOL     OW86851   3.297   2.896   2.161
95026SOL    HW186852   3.367   2.959   2.143
95026SOL    HW286853   3.238   2.904   2.086
95027SOL     OW86854   8.794   1.893   9.039
95027SOL    HW186855   8.826   1.946   8.966
95027SOL    HW286856   8.701   1.881   9.022
95028SOL     OW86857   8.676   6.326   0.717
95028SOL    HW186858   8.600   6.373   0.754
95028SOL    HW286859   8.730   6.306   0.793
95029SOL     OW86860  13.042   7.938   0.235
95029SOL    HW186861  12.977   7.899   0.293
95029SOL    HW286862  13.103   7.982   0.295
95030SOL     OW86863   4.646  14.208  12.210
95030SOL    HW186864   4.683  14.246  12.290
95030SOL    HW286865   4.702  14.132  12.192
95031SOL     OW86866   7.036   1.632   1.937
95031SOL    HW186867   6.993   1.662   1.857
95031SOL    HW286868   7.121   1.601   1.909
95032SOL     OW86869   7.234  13.502   9.814
95032SOL    HW186870   7.178  13.471   9.743
95032SOL    HW286871   7.311  13.445   9.810
95033SOL     OW86872   7.979   6.911  13.154
95033SOL    HW186873   8.031   6.835  13.127
95033SOL    HW286874   7.938   6.884  13.236
95034SOL     OW86875   2.313   7.053   8.371
95034SOL    HW186876   2.312   6.957   8.362
95034SOL    HW286877   2.230   7.081   8.332
95035SOL     OW86878   3.272  12.939  10.740
95035SOL    HW186879   3.285  12.878  10.667
95035SOL    HW286880   3.181  12.968  10.731
95036SOL     OW86881   2.575   2.215   9.032
95036SOL    HW186882   2.599   2.201   9.124
95036SOL    HW286883   2.658   2.207   8.985
95037SOL     OW86884   8.712   1.294  12.289
95037SOL    HW186885   8.771   1.220  12.307
95037SOL    HW286886   8.624   1.256  12.298
95038SOL     OW86887  12.089  14.110  13.922
95038SOL    HW186888  12.121  14.200  13.920
95038SOL    HW286889  12.165  14.057  13.899
95039SOL     OW86890   9.590   4.618   8.000
95039SOL    HW186891   9.511   4.569   7.977
95039SOL    HW286892   9.662   4.567   7.962
95040SOL     OW86893  12.225   2.927   5.460
95040SOL    HW186894  12.226   2.944   5.555
95040SOL    HW286895  12.267   3.004   5.422
95041SOL     OW86896   8.365  13.398   6.868
95041SOL    HW186897   8.445  13.451   6.872
95041SOL    HW286898   8.345  13.391   6.775
95042SOL     OW86899   1.425   2.158   5.475
95042SOL    HW186900   1.358   2.179   5.541
95042SOL    HW286901   1.378   2.108   5.408
95043SOL     OW86902   7.078   3.823   6.300
95043SOL    HW186903   6.985   3.840   6.284
95043SOL    HW286904   7.111   3.906   6.337
95044SOL     OW86905   4.148   9.124   9.850
95044SOL    HW186906   4.067   9.111   9.899
95044SOL    HW286907   4.214   9.141   9.917
95045SOL     OW86908  14.836  12.519   2.171
95045SOL    HW186909  14.857  12.428   2.189
95045SOL    HW286910   0.042  12.557   2.140
95046SOL     OW86911   7.910   4.818  12.537
95046SOL    HW186912   7.983   4.756  12.546
95046SOL    HW286913   7.837   4.776  12.581
95047SOL     OW86914  11.292   5.654   4.224
95047SOL    HW186915  11.324   5.743   4.239
95047SOL    HW286916  11.370   5.603   4.203
95048SOL     OW86917   9.199   3.882   5.493
95048SOL    HW186918   9.218   3.925   5.576
95048SOL    HW286919   9.113   3.844   5.504
95049SOL     OW86920   1.813   5.603  12.610
95049SOL    HW186921   1.788   5.532  12.669
95049SOL    HW286922   1.908   5.607  12.617
95050SOL     OW86923   6.680   2.042   6.479
95050SOL    HW186924   6.723   2.024   6.563
95050SOL    HW286925   6.742   2.008   6.413
95051SOL     OW86926  12.655   8.455  12.621
95051SOL    HW186927  12.727   8.424  12.676
95051SOL    HW286928  12.674   8.420  12.534
95052SOL     OW86929  11.567  13.501   2.018
95052SOL    HW186930  11.487  13.554   2.018
95052SOL    HW286931  11.637  13.562   1.996
95053SOL     OW86932   8.693  11.667  14.179
95053SOL    HW186933   8.670  11.586  14.224
95053SOL    HW286934   8.785  11.681  14.201
95054SOL     OW86935   3.118  10.593   0.608
95054SOL    HW186936   3.200  10.627   0.645
95054SOL    HW286937   3.069  10.671   0.582
95055SOL     OW86938  14.265   1.874  10.967
95055SOL    HW186939  14.216   1.955  10.979
95055SOL    HW286940  14.302   1.882  10.879
95056SOL     OW86941   9.377   4.785   7.821
95056SOL    HW186942   9.373   4.875   7.787
95056SOL    HW286943   9.302   4.778   7.880
95057SOL     OW86944   6.776   0.063   6.097
95057SOL    HW186945   6.744  14.851   6.105
95057SOL    HW286946   6.780   0.079   6.003
95058SOL     OW86947   8.637   5.695   0.451
95058SOL    HW186948   8.655   5.666   0.361
95058SOL    HW286949   8.697   5.644   0.505
95059SOL     OW86950   3.686   0.364   9.682
95059SOL    HW186951   3.757   0.300   9.676
95059SOL    HW286952   3.668   0.371   9.776
95060SOL     OW86953  12.002   8.479  14.640
95060SOL    HW186954  12.031   8.567  14.665
95060SOL    HW286955  11.984   8.485  14.546
95061SOL     OW86956   8.841  11.049  14.649
95061SOL    HW186957   8.925  11.079  14.683
95061SOL    HW286958   8.835  11.090  14.562
95062SOL     OW86959   5.353   1.764   4.324
95062SOL    HW186960   5.376   1.731   4.411
95062SOL    HW286961   5.351   1.859   4.334
95063SOL     OW86962   1.443  10.614  13.517
95063SOL    HW186963   1.451  10.671  13.441
95063SOL    HW286964   1.356  10.631  13.551
95064SOL     OW86965   3.368  12.525  11.567
95064SOL    HW186966   3.438  12.476  11.610
95064SOL    HW286967   3.332  12.580  11.637
95065SOL     OW86968   7.816  13.611   1.884
95065SOL    HW186969   7.900  13.647   1.856
95065SOL    HW286970   7.752  13.653   1.827
95066SOL     OW86971   1.722  12.316   8.405
95066SOL    HW186972   1.764  12.246   8.355
95066SOL    HW286973   1.747  12.397   8.360
95067SOL     OW86974   1.471   4.262   8.445
95067SOL    HW186975   1.449   4.217   8.363
95067SOL    HW286976   1.442   4.201   8.513
95068SOL     OW86977   5.965   6.866  10.299
95068SOL    HW186978   5.873   6.848  10.278
95068SOL    HW286979   5.963   6.943  10.354
95069SOL     OW86980   8.442  10.764   0.418
95069SOL    HW186981   8.373  10.827   0.396
95069SOL    HW286982   8.407  10.679   0.390
95070SOL     OW86983   5.794   9.996  11.708
95070SOL    HW186984   5.778   9.990  11.802
95070SOL    HW286985   5.810  10.089  11.692
95071SOL     OW86986   3.353   8.904   6.346
95071SOL    HW186987   3.294   8.953   6.404
95071SOL    HW286988   3.379   8.967   6.279
95072SOL     OW86989   5.926  14.544   8.083
95072SOL    HW186990   5.891  14.561   7.996
95072SOL    HW286991   5.912  14.450   8.097
95073SOL     OW86992  10.102  10.332   2.311
95073SOL    HW186993  10.038  10.394   2.275
95073SOL    HW286994  10.185  10.361   2.273
95074SOL     OW86995  14.661   2.632   1.637
95074SOL    HW186996  14.704   2.571   1.577
95074SOL    HW286997  14.680   2.719   1.602
95075SOL     OW86998   1.749   1.144  12.821
95075SOL    HW186999   1.700   1.064  12.837
95075SOL    HW287000   1.840   1.121  12.841
95076SOL     OW87001   2.715   5.436  11.701
95076SOL    HW187002   2.695   5.527  11.725
95076SOL    HW287003   2.682   5.384  11.774
95077SOL     OW87004  14.250   4.581   9.174
95077SOL    HW187005  14.189   4.537   9.116
95077SOL    HW287006  14.231   4.544   9.261
95078SOL     OW87007  10.353   2.203   9.968
95078SOL    HW187008  10.378   2.283  10.015
95078SOL    HW287009  10.259   2.211   9.954
95079SOL     OW87010   2.105  11.193   1.641
95079SOL    HW187011   2.194  11.184   1.675
95079SOL    HW287012   2.079  11.104   1.617
95080SOL     OW87013   9.283   3.188   8.077
95080SOL    HW187014   9.303   3.281   8.089
95080SOL    HW287015   9.323   3.145   8.152
95081SOL     OW87016  14.087   3.672   1.937
95081SOL    HW187017  13.997   3.676   1.971
95081SOL    HW287018  14.142   3.689   2.014
95082SOL     OW87019   5.856  14.675   2.141
95082SOL    HW187020   5.941  14.719   2.148
95082SOL    HW287021   5.831  14.686   2.049
95083SOL     OW87022   8.994   0.526   2.409
95083SOL    HW187023   8.943   0.543   2.488
95083SOL    HW287024   8.929   0.529   2.338
95084SOL     OW87025   4.037  10.798   1.442
95084SOL    HW187026   3.952  10.795   1.485
95084SOL    HW287027   4.089  10.858   1.495
95085SOL     OW87028  11.971   1.901  10.556
95085SOL    HW187029  12.055   1.939  10.579
95085SOL    HW287030  11.912   1.975  10.544
95086SOL     OW87031  11.303  14.172   0.992
95086SOL    HW187032  11.317  14.139   1.081
95086SOL    HW287033  11.389  14.203   0.964
95087SOL     OW87034   7.605   5.275   3.420
95087SOL    HW187035   7.640   5.364   3.420
95087SOL    HW287036   7.651   5.231   3.349
95088SOL     OW87037   5.563   6.140   5.470
95088SOL    HW187038   5.532   6.065   5.522
95088SOL    HW287039   5.651   6.156   5.502
95089SOL     OW87040   9.105   2.137   7.641
95089SOL    HW187041   9.200   2.141   7.649
95089SOL    HW287042   9.081   2.217   7.594
95090SOL     OW87043   0.621   6.778  11.298
95090SOL    HW187044   0.691   6.797  11.361
95090SOL    HW287045   0.542   6.774  11.352
95091SOL     OW87046   2.017  10.453  12.113
95091SOL    HW187047   1.971  10.497  12.185
95091SOL    HW287048   1.951  10.395  12.075
95092SOL     OW87049  11.057  12.126   4.433
95092SOL    HW187050  11.099  12.134   4.518
95092SOL    HW287051  10.964  12.114   4.453
95093SOL     OW87052  13.172   0.783  13.718
95093SOL    HW187053  13.204   0.832  13.642
95093SOL    HW287054  13.107   0.841  13.758
95094SOL     OW87055  14.766   9.158   2.482
95094SOL    HW187056  14.743   9.125   2.396
95094SOL    HW287057  14.694   9.131   2.539
95095SOL     OW87058   5.472   8.121  14.780
95095SOL    HW187059   5.439   8.034  14.759
95095SOL    HW287060   5.544   8.105  14.841
95096SOL     OW87061   5.609   4.172   9.841
95096SOL    HW187062   5.590   4.095   9.895
95096SOL    HW287063   5.670   4.140   9.775
95097SOL     OW87064   7.497   5.002   5.541
95097SOL    HW187065   7.433   5.061   5.500
95097SOL    HW287066   7.467   4.994   5.632
95098SOL     OW87067   5.364  10.324   9.211
95098SOL    HW187068   5.422  10.398   9.231
95098SOL    HW287069   5.296  10.328   9.279
95099SOL     OW87070   5.208   9.502   9.373
95099SOL    HW187071   5.150   9.572   9.344
95099SOL    HW287072   5.182   9.426   9.321
95100SOL     OW87073  13.233  11.869  10.113
95100SOL    HW187074  13.223  11.898  10.022
95100SOL    HW287075  13.321  11.830  10.116
95101SOL     OW87076   2.427  10.392  10.702
95101SOL    HW187077   2.511  10.352  10.680
95101SOL    HW287078   2.377  10.389  10.620
95102SOL     OW87079   5.148  12.609   4.104
95102SOL    HW187080   5.052  12.605   4.103
95102SOL    HW287081   5.172  12.585   4.194
95103SOL     OW87082  13.216   0.942  14.714
95103SOL    HW187083  13.179   0.887  14.645
95103SOL    HW287084  13.164   0.921  14.792
95104SOL     OW87085   5.399   3.169   2.264
95104SOL    HW187086   5.399   3.236   2.332
95104SOL    HW287087   5.408   3.087   2.312
95105SOL     OW87088  13.262   0.177   0.109
95105SOL    HW187089  13.209   0.253   0.086
95105SOL    HW287090  13.212   0.102   0.078
95106SOL     OW87091  12.357   1.463   3.673
95106SOL    HW187092  12.440   1.451   3.719
95106SOL    HW287093  12.297   1.400   3.714
95107SOL     OW87094   4.587   4.925   6.249
95107SOL    HW187095   4.678   4.926   6.220
95107SOL    HW287096   4.566   4.832   6.261
95108SOL     OW87097   9.574  13.989  14.741
95108SOL    HW187098   9.565  13.899  14.771
95108SOL    HW287099   9.506  13.999  14.674
95109SOL     OW87100   3.438  12.880  10.376
95109SOL    HW187101   3.451  12.971  10.351
95109SOL    HW287102   3.525  12.851  10.405
95110SOL     OW87103  14.150   8.908   1.237
95110SOL    HW187104  14.130   8.922   1.144
95110SOL    HW287105  14.093   8.836   1.263
95111SOL     OW87106   7.006   2.181  10.254
95111SOL    HW187107   6.984   2.089  10.267
95111SOL    HW287108   7.101   2.180  10.238
95112SOL     OW87109   9.843   9.612   1.491
95112SOL    HW187110   9.920   9.567   1.528
95112SOL    HW287111   9.825   9.683   1.553
95113SOL     OW87112   0.781   8.457  12.416
95113SOL    HW187113   0.746   8.425  12.333
95113SOL    HW287114   0.798   8.550  12.400
95114SOL     OW87115  14.125   8.425   2.214
95114SOL    HW187116  14.136   8.348   2.270
95114SOL    HW287117  14.199   8.482   2.236
95115SOL     OW87118  12.541   3.694   2.223
95115SOL    HW187119  12.531   3.703   2.129
95115SOL    HW287120  12.570   3.780   2.253
95116SOL     OW87121  11.508   7.074   1.394
95116SOL    HW187122  11.438   7.009   1.400
95116SOL    HW287123  11.517   7.091   1.300
95117SOL     OW87124  12.161  14.695   9.214
95117SOL    HW187125  12.080  14.745   9.203
95117SOL    HW287126  12.131  14.610   9.248
95118SOL     OW87127   5.774   0.429   6.811
95118SOL    HW187128   5.719   0.360   6.846
95118SOL    HW287129   5.713   0.498   6.785
95119SOL     OW87130  11.670  13.305   4.022
95119SOL    HW187131  11.603  13.266   3.966
95119SOL    HW287132  11.623  13.337   4.098
95120SOL     OW87133   5.032   5.987   5.893
95120SOL    HW187134   5.023   5.945   5.979
95120SOL    HW287135   5.027   5.915   5.830
95121SOL     OW87136   2.884  11.105  13.351
95121SOL    HW187137   2.816  11.160  13.312
95121SOL    HW287138   2.960  11.164  13.360
95122SOL     OW87139   4.540  12.446   1.018
95122SOL    HW187140   4.481  12.476   1.087
95122SOL    HW287141   4.507  12.359   0.995
95123SOL     OW87142   6.251  13.761   9.284
95123SOL    HW187143   6.281  13.728   9.369
95123SOL    HW287144   6.330  13.792   9.240
95124SOL     OW87145  10.098  10.996   7.844
95124SOL    HW187146  10.092  10.909   7.883
95124SOL    HW287147  10.165  10.987   7.776
95125SOL     OW87148   6.203   2.904   1.256
95125SOL    HW187149   6.171   2.965   1.323
95125SOL    HW287150   6.298   2.907   1.264
95126SOL     OW87151   1.740   1.045  11.718
95126SOL    HW187152   1.763   1.073  11.807
95126SOL    HW287153   1.800   1.094  11.661
95127SOL     OW87154   2.438   5.260   9.913
95127SOL    HW187155   2.387   5.185   9.884
95127SOL    HW287156   2.425   5.263  10.008
95128SOL     OW87157  14.834  13.329   8.720
95128SOL    HW187158  14.747  13.289   8.727
95128SOL    HW287159   0.015  13.257   8.698
95129SOL     OW87160  10.387   0.924   4.185
95129SOL    HW187161  10.362   0.984   4.255
95129SOL    HW287162  10.451   0.974   4.133
95130SOL     OW87163   2.821  11.724   4.080
95130SOL    HW187164   2.847  11.713   3.989
95130SOL    HW287165   2.882  11.670   4.129
95131SOL     OW87166  10.813   7.210   2.083
95131SOL    HW187167  10.823   7.116   2.097
95131SOL    HW287168  10.900   7.240   2.056
95132SOL     OW87169   9.658   5.054   4.965
95132SOL    HW187170   9.584   4.998   4.988
95132SOL    HW287171   9.652   5.063   4.870
95133SOL     OW87172   0.404   7.905   8.765
95133SOL    HW187173   0.384   7.816   8.735
95133SOL    HW287174   0.479   7.894   8.823
95134SOL     OW87175  13.523   3.317   0.163
95134SOL    HW187176  13.483   3.356   0.086
95134SOL    HW287177  13.457   3.257   0.197
95135SOL     OW87178   7.686   5.608   1.965
95135SOL    HW187179   7.591   5.616   1.973
95135SOL    HW287180   7.710   5.674   1.901
95136SOL     OW87181   9.363   3.984  13.211
95136SOL    HW187182   9.407   4.043  13.149
95136SOL    HW287183   9.385   3.896  13.180
95137SOL     OW87184   1.548   5.833   5.319
95137SOL    HW187185   1.507   5.817   5.404
95137SOL    HW287186   1.640   5.847   5.339
95138SOL     OW87187  14.588   3.126   0.489
95138SOL    HW187188  14.630   3.194   0.436
95138SOL    HW287189  14.630   3.133   0.575
95139SOL     OW87190   5.385   2.635   4.681
95139SOL    HW187191   5.462   2.680   4.717
95139SOL    HW287192   5.346   2.590   4.756
95140SOL     OW87193   5.650   4.687  12.532
95140SOL    HW187194   5.612   4.670  12.446
95140SOL    HW287195   5.743   4.668  12.522
95141SOL     OW87196   3.664  12.231  12.448
95141SOL    HW187197   3.582  12.192  12.419
95141SOL    HW287198   3.725  12.215  12.375
95142SOL     OW87199   9.931   3.693   7.207
95142SOL    HW187200   9.953   3.777   7.167
95142SOL    HW287201   9.907   3.715   7.297
95143SOL     OW87202  12.801   2.794   0.996
95143SOL    HW187203  12.733   2.728   1.006
95143SOL    HW287204  12.836   2.779   0.908
95144SOL     OW87205  14.598   0.651   2.621
95144SOL    HW187206  14.597   0.556   2.636
95144SOL    HW287207  14.684   0.679   2.649
95145SOL     OW87208  10.016  10.791   1.696
95145SOL    HW187209  10.059  10.726   1.640
95145SOL    HW287210  10.050  10.774   1.784
95146SOL     OW87211  12.575  14.779   3.008
95146SOL    HW187212  12.580  14.736   2.922
95146SOL    HW287213  12.664  14.773   3.043
95147SOL     OW87214   8.376   1.219   6.800
95147SOL    HW187215   8.427   1.295   6.770
95147SOL    HW287216   8.402   1.148   6.740
95148SOL     OW87217   4.855   3.019   7.199
95148SOL    HW187218   4.887   3.040   7.111
95148SOL    HW287219   4.813   2.933   7.189
95149SOL     OW87220   1.703   5.372   2.270
95149SOL    HW187221   1.713   5.465   2.292
95149SOL    HW287222   1.718   5.369   2.175
95150SOL     OW87223   8.896   9.431   6.077
95150SOL    HW187224   8.946   9.444   6.157
95150SOL    HW287225   8.805   9.424   6.106
95151SOL     OW87226   2.448   5.821   4.579
95151SOL    HW187227   2.536   5.783   4.581
95151SOL    HW287228   2.418   5.815   4.670
95152SOL     OW87229   5.756   2.565  13.436
95152SOL    HW187230   5.773   2.639  13.494
95152SOL    HW287231   5.666   2.539  13.456
95153SOL     OW87232   7.077   5.320  11.274
95153SOL    HW187233   7.065   5.372  11.194
95153SOL    HW287234   7.170   5.333  11.296
95154SOL     OW87235   6.877  13.723   0.353
95154SOL    HW187236   6.919  13.746   0.270
95154SOL    HW287237   6.826  13.800   0.376
95155SOL     OW87238  13.052   3.145   1.578
95155SOL    HW187239  13.147   3.135   1.584
95155SOL    HW287240  13.017   3.084   1.644
95156SOL     OW87241   1.044   6.610   9.804
95156SOL    HW187242   1.085   6.582   9.722
95156SOL    HW287243   1.091   6.689   9.829
95157SOL     OW87244  12.252  10.704  12.222
95157SOL    HW187245  12.203  10.774  12.266
95157SOL    HW287246  12.254  10.732  12.130
95158SOL     OW87247  13.119   6.676   8.544
95158SOL    HW187248  13.106   6.593   8.498
95158SOL    HW287249  13.191   6.660   8.604
95159SOL     OW87250   0.262   7.967   6.116
95159SOL    HW187251   0.217   8.025   6.178
95159SOL    HW287252   0.239   7.878   6.145
95160SOL     OW87253  13.291   1.703  10.548
95160SOL    HW187254  13.209   1.708  10.597
95160SOL    HW287255  13.265   1.681  10.459
95161SOL     OW87256   7.834   5.757   0.087
95161SOL    HW187257   7.750   5.770   0.129
95161SOL    HW287258   7.821   5.681   0.030
95162SOL     OW87259  10.606   0.267   3.020
95162SOL    HW187260  10.596   0.323   3.097
95162SOL    HW287261  10.564   0.316   2.950
95163SOL     OW87262  12.231  11.349   0.344
95163SOL    HW187263  12.143  11.372   0.374
95163SOL    HW287264  12.256  11.421   0.286
95164SOL     OW87265   2.667   2.533   5.619
95164SOL    HW187266   2.672   2.584   5.700
95164SOL    HW287267   2.751   2.487   5.614
95165SOL     OW87268   4.977  14.193  13.358
95165SOL    HW187269   4.934  14.151  13.433
95165SOL    HW287270   5.062  14.151  13.352
95166SOL     OW87271   0.526   1.442   2.656
95166SOL    HW187272   0.519   1.493   2.576
95166SOL    HW287273   0.615   1.408   2.656
95167SOL     OW87274   2.365   9.970   6.788
95167SOL    HW187275   2.318  10.047   6.755
95167SOL    HW287276   2.301   9.926   6.844
95168SOL     OW87277  10.945   6.668  14.335
95168SOL    HW187278  11.038   6.651  14.346
95168SOL    HW287279  10.920   6.622  14.255
95169SOL     OW87280   8.624  14.124   1.945
95169SOL    HW187281   8.591  14.063   2.011
95169SOL    HW287282   8.600  14.211   1.978
95170SOL     OW87283   3.725  13.444   0.211
95170SOL    HW187284   3.644  13.453   0.160
95170SOL    HW287285   3.789  13.496   0.163
95171SOL     OW87286  12.387  11.083  13.429
95171SOL    HW187287  12.325  11.155  13.438
95171SOL    HW287288  12.378  11.033  13.510
95172SOL     OW87289   4.886   3.339   9.095
95172SOL    HW187290   4.981   3.327   9.087
95172SOL    HW287291   4.849   3.254   9.070
95173SOL     OW87292  13.302  11.408   9.479
95173SOL    HW187293  13.286  11.458   9.559
95173SOL    HW287294  13.360  11.337   9.506
95174SOL     OW87295   7.162  12.890   8.117
95174SOL    HW187296   7.214  12.836   8.058
95174SOL    HW287297   7.105  12.828   8.162
95175SOL     OW87298   6.540   2.971   6.385
95175SOL    HW187299   6.553   3.034   6.313
95175SOL    HW287300   6.620   2.919   6.385
95176SOL     OW87301  14.735  10.553   9.240
95176SOL    HW187302  14.797  10.603   9.292
95176SOL    HW287303  14.686  10.619   9.191
95177SOL     OW87304  10.257   2.456   1.864
95177SOL    HW187305  10.336   2.418   1.902
95177SOL    HW287306  10.201   2.381   1.844
95178SOL     OW87307  13.829   1.079   3.660
95178SOL    HW187308  13.885   1.021   3.608
95178SOL    HW287309  13.808   1.027   3.739
95179SOL     OW87310   7.118  14.071  13.216
95179SOL    HW187311   7.160  14.021  13.287
95179SOL    HW287312   7.068  14.005  13.167
95180SOL     OW87313  12.523   3.647   1.897
95180SOL    HW187314  12.463   3.649   1.822
95180SOL    HW287315  12.580   3.723   1.884
95181SOL     OW87316   1.439   3.015  10.464
95181SOL    HW187317   1.502   3.002  10.535
95181SOL    HW287318   1.491   3.053  10.393
95182SOL     OW87319   7.071   9.546   8.525
95182SOL    HW187320   7.025   9.600   8.460
95182SOL    HW287321   7.061   9.594   8.607
95183SOL     OW87322   8.188  13.060   7.410
95183SOL    HW187323   8.251  13.060   7.481
95183SOL    HW287324   8.105  13.034   7.451
95184SOL     OW87325   0.581   3.578  12.907
95184SOL    HW187326   0.637   3.504  12.931
95184SOL    HW287327   0.559   3.620  12.989
95185SOL     OW87328  12.667  12.940   6.715
95185SOL    HW187329  12.597  12.908   6.657
95185SOL    HW287330  12.652  13.034   6.722
95186SOL     OW87331   6.619   6.860   7.569
95186SOL    HW187332   6.536   6.817   7.590
95186SOL    HW287333   6.662   6.874   7.653
95187SOL     OW87334   5.853   3.047   6.162
95187SOL    HW187335   5.780   3.037   6.223
95187SOL    HW287336   5.925   2.998   6.201
95188SOL     OW87337  13.011   0.616   2.294
95188SOL    HW187338  12.979   0.594   2.381
95188SOL    HW287339  12.959   0.563   2.234
95189SOL     OW87340   0.882  10.846  10.409
95189SOL    HW187341   0.799  10.864  10.452
95189SOL    HW287342   0.876  10.755  10.383
95190SOL     OW87343  11.513   9.888  12.549
95190SOL    HW187344  11.602   9.910  12.523
95190SOL    HW287345  11.520   9.800  12.587
95191SOL     OW87346   3.904  12.175   6.452
95191SOL    HW187347   3.828  12.130   6.414
95191SOL    HW287348   3.953  12.207   6.376
95192SOL     OW87349   5.781   8.558   4.005
95192SOL    HW187350   5.803   8.651   4.003
95192SOL    HW287351   5.694   8.554   3.967
95193SOL     OW87352   4.591   2.448   7.884
95193SOL    HW187353   4.538   2.461   7.962
95193SOL    HW287354   4.655   2.519   7.886
95194SOL     OW87355   2.218  10.240   6.092
95194SOL    HW187356   2.223  10.145   6.103
95194SOL    HW287357   2.163  10.270   6.163
95195SOL     OW87358   2.256   5.100   4.925
95195SOL    HW187359   2.218   5.043   4.992
95195SOL    HW287360   2.304   5.041   4.868
95196SOL     OW87361   8.292  11.282   1.411
95196SOL    HW187362   8.327  11.199   1.445
95196SOL    HW287363   8.367  11.342   1.412
95197SOL     OW87364  14.566  12.780   7.218
95197SOL    HW187365  14.563  12.685   7.206
95197SOL    HW287366  14.610  12.813   7.140
95198SOL     OW87367   8.724  11.706   0.588
95198SOL    HW187368   8.679  11.663   0.515
95198SOL    HW287369   8.786  11.766   0.546
95199SOL     OW87370   8.076   6.901   8.692
95199SOL    HW187371   8.028   6.878   8.772
95199SOL    HW287372   8.125   6.980   8.716
95200SOL     OW87373   1.670   0.619   4.305
95200SOL    HW187374   1.714   0.612   4.390
95200SOL    HW287375   1.638   0.531   4.288
95201SOL     OW87376   8.629  14.674  10.167
95201SOL    HW187377   8.628  14.579  10.160
95201SOL    HW287378   8.643  14.691  10.261
95202SOL     OW87379  11.987   4.807  13.215
95202SOL    HW187380  11.985   4.889  13.264
95202SOL    HW287381  11.998   4.740  13.283
95203SOL     OW87382   4.098   0.854   0.955
95203SOL    HW187383   4.116   0.818   0.868
95203SOL    HW287384   4.003   0.860   0.959
95204SOL     OW87385   9.319   9.975   5.682
95204SOL    HW187386   9.294   9.928   5.762
95204SOL    HW287387   9.346  10.062   5.713
95205SOL     OW87388   3.641   2.737  12.305
95205SOL    HW187389   3.574   2.676  12.275
95205SOL    HW287390   3.618   2.756  12.396
95206SOL     OW87391  11.644  13.023   1.032
95206SOL    HW187392  11.718  12.993   0.979
95206SOL    HW287393  11.573  13.036   0.968
95207SOL     OW87394   8.084  13.601   2.626
95207SOL    HW187395   8.089  13.591   2.531
95207SOL    HW287396   8.125  13.686   2.643
95208SOL     OW87397  13.133  10.685  12.402
95208SOL    HW187398  13.135  10.756  12.466
95208SOL    HW287399  13.211  10.633  12.421
95209SOL     OW87400  14.132   8.245  13.387
95209SOL    HW187401  14.226   8.240  13.402
95209SOL    HW287402  14.119   8.203  13.302
95210SOL     OW87403  13.154   5.439   7.852
95210SOL    HW187404  13.164   5.349   7.820
95210SOL    HW287405  13.219   5.448   7.921
95211SOL     OW87406   6.770   9.919   2.999
95211SOL    HW187407   6.705   9.849   2.991
95211SOL    HW287408   6.838   9.896   2.937
95212SOL     OW87409   4.418  11.361   1.729
95212SOL    HW187410   4.430  11.346   1.635
95212SOL    HW287411   4.326  11.386   1.738
95213SOL     OW87412   1.117   2.133  13.532
95213SOL    HW187413   1.120   2.218  13.489
95213SOL    HW287414   1.154   2.072  13.468
95214SOL     OW87415  10.488  13.354   5.374
95214SOL    HW187416  10.436  13.318   5.302
95214SOL    HW287417  10.572  13.377   5.334
95215SOL     OW87418   3.540   6.592   3.929
95215SOL    HW187419   3.477   6.654   3.966
95215SOL    HW287420   3.507   6.575   3.840
95216SOL     OW87421   1.813   5.025   9.896
95216SOL    HW187422   1.884   4.963   9.879
95216SOL    HW287423   1.768   4.989   9.972
95217SOL     OW87424  11.686   1.429   4.686
95217SOL    HW187425  11.777   1.457   4.673
95217SOL    HW287426  11.667   1.452   4.776
95218SOL     OW87427   3.518  10.476  12.063
95218SOL    HW187428   3.513  10.445  11.972
95218SOL    HW287429   3.577  10.552  12.059
95219SOL     OW87430   1.902  12.587   0.232
95219SOL    HW187431   1.981  12.561   0.278
95219SOL    HW287432   1.923  12.672   0.193
95220SOL     OW87433   8.545  14.152  12.819
95220SOL    HW187434   8.578  14.063  12.808
95220SOL    HW287435   8.619  14.201  12.856
95221SOL     OW87436  10.881   3.530  10.980
95221SOL    HW187437  10.788   3.519  10.964
95221SOL    HW287438  10.924   3.482  10.909
95222SOL     OW87439  11.393  12.607   4.873
95222SOL    HW187440  11.355  12.533   4.919
95222SOL    HW287441  11.351  12.605   4.786
95223SOL     OW87442  13.289   4.069  12.918
95223SOL    HW187443  13.237   4.094  12.842
95223SOL    HW287444  13.326   4.151  12.951
95224SOL     OW87445   5.890  14.660  14.496
95224SOL    HW187446   5.805  14.679  14.458
95224SOL    HW287447   5.919  14.744  14.531
95225SOL     OW87448  10.232   1.930  11.179
95225SOL    HW187449  10.323   1.930  11.149
95225SOL    HW287450  10.210   2.022  11.192
95226SOL     OW87451  12.261   1.590   5.969
95226SOL    HW187452  12.335   1.612   5.911
95226SOL    HW287453  12.255   1.664   6.029
95227SOL     OW87454   8.552   0.840  14.589
95227SOL    HW187455   8.645   0.846  14.608
95227SOL    HW287456   8.515   0.922  14.623
95228SOL     OW87457  14.060   3.001   0.820
95228SOL    HW187458  13.981   3.049   0.798
95228SOL    HW287459  14.085   2.956   0.739
95229SOL     OW87460   8.645   8.645   7.784
95229SOL    HW187461   8.714   8.693   7.830
95229SOL    HW287462   8.691   8.585   7.726
95230SOL     OW87463  14.623  12.520   7.149
95230SOL    HW187464  14.606  12.491   7.059
95230SOL    HW287465  14.690  12.459   7.181
95231SOL     OW87466  12.046   8.066   2.536
95231SOL    HW187467  12.053   8.116   2.455
95231SOL    HW287468  11.963   8.094   2.575
95232SOL     OW87469   1.482   8.277   5.312
95232SOL    HW187470   1.574   8.278   5.337
95232SOL    HW287471   1.455   8.369   5.315
95233SOL     OW87472   8.232   5.117   7.893
95233SOL    HW187473   8.282   5.038   7.874
95233SOL    HW287474   8.189   5.099   7.977
95234SOL     OW87475   6.858   8.442   5.965
95234SOL    HW187476   6.773   8.451   6.009
95234SOL    HW287477   6.847   8.486   5.881
95235SOL     OW87478  12.104   6.314   6.302
95235SOL    HW187479  12.040   6.382   6.323
95235SOL    HW287480  12.052   6.233   6.300
95236SOL     OW87481  13.554   6.253   4.329
95236SOL    HW187482  13.636   6.265   4.377
95236SOL    HW287483  13.511   6.179   4.373
95237SOL     OW87484  13.962  12.054  13.526
95237SOL    HW187485  13.874  12.089  13.544
95237SOL    HW287486  14.020  12.110  13.578
95238SOL     OW87487   1.412  11.986   6.521
95238SOL    HW187488   1.383  12.054   6.581
95238SOL    HW287489   1.333  11.937   6.500
95239SOL     OW87490  14.201   2.598   2.666
95239SOL    HW187491  14.145   2.526   2.696
95239SOL    HW287492  14.290   2.569   2.688
95240SOL     OW87493   4.493   5.182   6.496
95240SOL    HW187494   4.451   5.259   6.532
95240SOL    HW287495   4.454   5.173   6.408
95241SOL     OW87496   2.784   3.264   4.987
95241SOL    HW187497   2.870   3.225   5.002
95241SOL    HW287498   2.794   3.310   4.903
95242SOL     OW87499   0.732  11.640   3.526
95242SOL    HW187500   0.691  11.667   3.444
95242SOL    HW287501   0.664  11.654   3.592
95243SOL     OW87502  13.134  12.338   2.120
95243SOL    HW187503  13.070  12.387   2.068
95243SOL    HW287504  13.130  12.249   2.085
95244SOL     OW87505   0.826   9.808  13.941
95244SOL    HW187506   0.870   9.814  13.857
95244SOL    HW287507   0.738   9.777  13.920
95245SOL     OW87508  12.818   5.934   3.015
95245SOL    HW187509  12.781   5.925   2.928
95245SOL    HW287510  12.744   5.956   3.071
95246SOL     OW87511   9.589  14.703   3.014
95246SOL    HW187512   9.632  14.788   3.016
95246SOL    HW287513   9.501  14.723   2.981
95247SOL     OW87514  11.088   7.222   9.168
95247SOL    HW187515  11.024   7.258   9.107
95247SOL    HW287516  11.163   7.200   9.113
95248SOL     OW87517   3.993   8.159   5.055
95248SOL    HW187518   3.932   8.093   5.022
95248SOL    HW287519   4.009   8.217   4.980
95249SOL     OW87520   6.393   3.450   1.816
95249SOL    HW187521   6.322   3.448   1.751
95249SOL    HW287522   6.374   3.377   1.874
95250SOL     OW87523   7.452   0.872  13.814
95250SOL    HW187524   7.531   0.850  13.863
95250SOL    HW287525   7.430   0.961  13.843
95251SOL     OW87526   4.422   9.530  13.496
95251SOL    HW187527   4.432   9.491  13.409
95251SOL    HW287528   4.508   9.519  13.538
95252SOL     OW87529   4.477  10.547   8.055
95252SOL    HW187530   4.473  10.557   7.960
95252SOL    HW287531   4.433  10.625   8.090
95253SOL     OW87532   3.894   4.692   1.285
95253SOL    HW187533   3.912   4.649   1.201
95253SOL    HW287534   3.979   4.695   1.329
95254SOL     OW87535   7.405   7.187  12.816
95254SOL    HW187536   7.337   7.246  12.785
95254SOL    HW287537   7.465   7.178  12.742
95255SOL     OW87538   1.931  13.706  10.522
95255SOL    HW187539   1.857  13.739  10.573
95255SOL    HW287540   1.977  13.647  10.580
95256SOL     OW87541  12.047   8.895   1.383
95256SOL    HW187542  12.072   8.986   1.397
95256SOL    HW287543  11.954   8.892   1.404
95257SOL     OW87544  10.495   8.077   2.407
95257SOL    HW187545  10.491   8.067   2.502
95257SOL    HW287546  10.468   8.167   2.391
95258SOL     OW87547   9.414   2.252  13.158
95258SOL    HW187548   9.395   2.341  13.187
95258SOL    HW287549   9.366   2.196  13.218
95259SOL     OW87550  10.782  10.012  10.482
95259SOL    HW187551  10.694   9.975  10.483
95259SOL    HW287552  10.832   9.958  10.543
95260SOL     OW87553  13.025   7.574   0.363
95260SOL    HW187554  12.937   7.612   0.368
95260SOL    HW287555  13.016   7.504   0.298
95261SOL     OW87556   4.108   7.169   4.762
95261SOL    HW187557   4.167   7.103   4.726
95261SOL    HW287558   4.030   7.119   4.789
95262SOL     OW87559   2.439   4.738   7.201
95262SOL    HW187560   2.357   4.758   7.155
95262SOL    HW287561   2.424   4.651   7.239
95263SOL     OW87562   0.191   4.388   9.147
95263SOL    HW187563   0.159   4.445   9.077
95263SOL    HW287564   0.124   4.320   9.156
95264SOL     OW87565  10.946  11.867   6.917
95264SOL    HW187566  10.887  11.793   6.930
95264SOL    HW287567  11.026  11.828   6.884
95265SOL     OW87568   1.198   6.665   6.920
95265SOL    HW187569   1.147   6.586   6.905
95265SOL    HW287570   1.167   6.698   7.004
95266SOL     OW87571  11.374   5.266  11.251
95266SOL    HW187572  11.294   5.319  11.246
95266SOL    HW287573  11.346   5.178  11.224
95267SOL     OW87574  13.515   7.578  14.399
95267SOL    HW187575  13.458   7.592  14.474
95267SOL    HW287576  13.493   7.648  14.339
95268SOL     OW87577   2.763  11.619   7.613
95268SOL    HW187578   2.696  11.575   7.664
95268SOL    HW287579   2.717  11.690   7.568
95269SOL     OW87580   3.134   1.991  11.020
95269SOL    HW187581   3.173   1.958  10.939
95269SOL    HW287582   3.196   2.056  11.052
95270SOL     OW87583   9.649   7.636   1.250
95270SOL    HW187584   9.591   7.585   1.194
95270SOL    HW287585   9.620   7.618   1.339
95271SOL     OW87586   2.221  10.571   2.268
95271SOL    HW187587   2.199  10.581   2.175
95271SOL    HW287588   2.237  10.660   2.299
95272SOL     OW87589  13.131  13.833  12.217
95272SOL    HW187590  13.134  13.750  12.263
95272SOL    HW287591  13.118  13.898  12.286
95273SOL     OW87592   1.503   1.607  12.676
95273SOL    HW187593   1.442   1.539  12.649
95273SOL    HW287594   1.448   1.677  12.711
95274SOL     OW87595   7.669   1.948   6.188
95274SOL    HW187596   7.624   1.912   6.112
95274SOL    HW287597   7.698   1.872   6.238
95275SOL     OW87598   2.448  10.830   9.158
95275SOL    HW187599   2.494  10.749   9.137
95275SOL    HW287600   2.359  10.803   9.180
95276SOL     OW87601   5.718   0.536   4.594
95276SOL    HW187602   5.656   0.490   4.649
95276SOL    HW287603   5.707   0.628   4.617
95277SOL     OW87604   2.276   5.682  10.401
95277SOL    HW187605   2.344   5.691  10.334
95277SOL    HW287606   2.226   5.764  10.395
95278SOL     OW87607   3.706   6.749   0.141
95278SOL    HW187608   3.728   6.726   0.231
95278SOL    HW287609   3.788   6.779   0.102
95279SOL     OW87610  13.285  12.934   1.093
95279SOL    HW187611  13.336  12.909   1.170
95279SOL    HW287612  13.332  13.010   1.057
95280SOL     OW87613  12.789  12.336  10.913
95280SOL    HW187614  12.827  12.253  10.884
95280SOL    HW287615  12.695  12.320  10.917
95281SOL     OW87616   7.177   2.823  14.140
95281SOL    HW187617   7.178   2.829  14.236
95281SOL    HW287618   7.117   2.892  14.112
95282SOL     OW87619   2.998  11.584  12.366
95282SOL    HW187620   3.051  11.641  12.310
95282SOL    HW287621   2.986  11.634  12.447
95283SOL     OW87622   5.791   7.725   9.309
95283SOL    HW187623   5.851   7.720   9.383
95283SOL    HW287624   5.845   7.707   9.233
95284SOL     OW87625   8.622   6.563  12.940
95284SOL    HW187626   8.606   6.468  12.944
95284SOL    HW287627   8.712   6.571  12.910
95285SOL     OW87628   9.000   3.331  14.737
95285SOL    HW187629   8.950   3.410  14.758
95285SOL    HW287630   8.946   3.259  14.768
95286SOL     OW87631   3.085   1.225   9.034
95286SOL    HW187632   3.050   1.267   9.113
95286SOL    HW287633   3.015   1.165   9.006
95287SOL     OW87634  12.784  13.127   3.740
95287SOL    HW187635  12.847  13.064   3.774
95287SOL    HW287636  12.699  13.094   3.769
95288SOL     OW87637   6.503   9.298   9.467
95288SOL    HW187638   6.494   9.341   9.552
95288SOL    HW287639   6.597   9.301   9.448
95289SOL     OW87640  11.065   7.332   0.417
95289SOL    HW187641  10.978   7.327   0.457
95289SOL    HW287642  11.083   7.242   0.388
95290SOL     OW87643   5.098   7.203  11.711
95290SOL    HW187644   5.010   7.221  11.743
95290SOL    HW287645   5.156   7.232  11.781
95291SOL     OW87646   7.328   9.663   5.290
95291SOL    HW187647   7.349   9.755   5.304
95291SOL    HW287648   7.378   9.638   5.213
95292SOL     OW87649   1.020  12.660   1.954
95292SOL    HW187650   1.001  12.724   2.023
95292SOL    HW287651   0.989  12.702   1.874
95293SOL     OW87652   1.557   0.191  11.252
95293SOL    HW187653   1.586   0.262  11.309
95293SOL    HW287654   1.622   0.189  11.182
95294SOL     OW87655   4.682   1.221   7.587
95294SOL    HW187656   4.703   1.308   7.621
95294SOL    HW287657   4.587   1.219   7.582
95295SOL     OW87658   5.892   1.425   4.092
95295SOL    HW187659   5.886   1.435   3.997
95295SOL    HW287660   5.834   1.351   4.112
95296SOL     OW87661  13.894   1.893  13.116
95296SOL    HW187662  13.886   1.891  13.211
95296SOL    HW287663  13.863   1.980  13.091
95297SOL     OW87664   0.722  13.040  11.792
95297SOL    HW187665   0.788  13.088  11.843
95297SOL    HW287666   0.655  13.017  11.856
95298SOL     OW87667   7.621   2.352   3.812
95298SOL    HW187668   7.612   2.358   3.717
95298SOL    HW287669   7.610   2.442   3.843
95299SOL     OW87670  13.523   0.181   5.965
95299SOL    HW187671  13.606   0.133   5.968
95299SOL    HW287672  13.470   0.132   5.902
95300SOL     OW87673   4.608  14.847   6.839
95300SOL    HW187674   4.630   0.062   6.857
95300SOL    HW287675   4.513  14.843   6.845
95301SOL     OW87676   2.224   7.366  11.150
95301SOL    HW187677   2.319   7.363  11.161
95301SOL    HW287678   2.208   7.319  11.068
95302SOL     OW87679   7.726  10.989   0.480
95302SOL    HW187680   7.715  10.911   0.425
95302SOL    HW287681   7.811  10.977   0.522
95303SOL     OW87682   0.802  13.059   1.915
95303SOL    HW187683   0.826  13.152   1.909
95303SOL    HW287684   0.750  13.043   1.837
95304SOL     OW87685   4.595   5.737   4.568
95304SOL    HW187686   4.639   5.716   4.486
95304SOL    HW287687   4.656   5.709   4.636
95305SOL     OW87688  14.420  12.325   0.027
95305SOL    HW187689  14.405  12.271  14.827
95305SOL    HW287690  14.417  12.415  14.871
95306SOL     OW87691  12.490   2.962   7.355
95306SOL    HW187692  12.574   2.939   7.315
95306SOL    HW287693  12.464   2.884   7.404
95307SOL     OW87694   0.834   0.020   0.499
95307SOL    HW187695   0.799  14.822   0.546
95307SOL    HW287696   0.856   0.083   0.567
95308SOL     OW87697   5.764   7.293   1.517
95308SOL    HW187698   5.710   7.354   1.568
95308SOL    HW287699   5.739   7.309   1.426
95309SOL     OW87700  10.595   6.865   9.387
95309SOL    HW187701  10.684   6.832   9.381
95309SOL    HW287702  10.540   6.786   9.386
95310SOL     OW87703   4.869  11.699  10.105
95310SOL    HW187704   4.804  11.648  10.057
95310SOL    HW287705   4.821  11.776  10.137
95311SOL     OW87706  10.527   0.792   4.625
95311SOL    HW187707  10.614   0.816   4.593
95311SOL    HW287708  10.544   0.734   4.699
95312SOL     OW87709   7.675   1.649  10.450
95312SOL    HW187710   7.686   1.577  10.512
95312SOL    HW287711   7.603   1.622  10.393
95313SOL     OW87712   8.718   6.599   0.384
95313SOL    HW187713   8.624   6.591   0.397
95313SOL    HW287714   8.756   6.537   0.447
95314SOL     OW87715   0.737  11.763   2.871
95314SOL    HW187716   0.823  11.725   2.853
95314SOL    HW287717   0.684  11.689   2.899
95315SOL     OW87718  13.028  10.545   3.673
95315SOL    HW187719  13.070  10.630   3.661
95315SOL    HW287720  12.950  10.563   3.725
95316SOL     OW87721   6.131  14.084   9.547
95316SOL    HW187722   6.207  14.026   9.534
95316SOL    HW287723   6.078  14.038   9.612
95317SOL     OW87724  14.578   6.628  11.155
95317SOL    HW187725  14.529   6.548  11.175
95317SOL    HW287726  14.646   6.601  11.094
95318SOL     OW87727  13.690  11.571   7.894
95318SOL    HW187728  13.642  11.632   7.949
95318SOL    HW287729  13.666  11.594   7.804
95319SOL     OW87730   5.990   1.734   2.032
95319SOL    HW187731   5.936   1.773   1.962
95319SOL    HW287732   6.071   1.709   1.988
95320SOL     OW87733   9.050  12.286   2.771
95320SOL    HW187734   9.033  12.380   2.770
95320SOL    HW287735   8.963  12.246   2.775
95321SOL     OW87736   6.644   2.159   0.437
95321SOL    HW187737   6.729   2.201   0.425
95321SOL    HW287738   6.601   2.211   0.504
95322SOL     OW87739   5.179  12.467   9.051
95322SOL    HW187740   5.274  12.463   9.042
95322SOL    HW287741   5.148  12.393   8.999
95323SOL     OW87742   1.792  13.833   9.175
95323SOL    HW187743   1.863  13.895   9.191
95323SOL    HW287744   1.816  13.788   9.094
95324SOL     OW87745  10.618   9.182   4.918
95324SOL    HW187746  10.638   9.268   4.879
95324SOL    HW287747  10.531   9.161   4.886
95325SOL     OW87748  13.871   3.945   8.883
95325SOL    HW187749  13.965   3.937   8.867
95325SOL    HW287750  13.842   3.856   8.904
95326SOL     OW87751   0.002   0.219   5.829
95326SOL    HW187752  14.867   0.152   5.897
95326SOL    HW287753  14.804   0.210   5.772
95327SOL     OW87754   0.759  10.420   0.927
95327SOL    HW187755   0.674  10.396   0.963
95327SOL    HW287756   0.802  10.336   0.910
95328SOL     OW87757  12.234  13.689   6.974
95328SOL    HW187758  12.225  13.698   6.879
95328SOL    HW287759  12.154  13.728   7.009
95329SOL     OW87760   2.640  11.266   0.093
95329SOL    HW187761   2.646  11.203   0.021
95329SOL    HW287762   2.640  11.352   0.051
95330SOL     OW87763   9.118  10.830  14.733
95330SOL    HW187764   9.192  10.807  14.790
95330SOL    HW287765   9.127  10.924  14.719
95331SOL     OW87766  12.873  11.574   3.040
95331SOL    HW187767  12.948  11.568   2.981
95331SOL    HW287768  12.911  11.586   3.127
95332SOL     OW87769  12.742   5.065   0.927
95332SOL    HW187770  12.807   5.023   0.871
95332SOL    HW287771  12.794   5.110   0.994
95333SOL     OW87772   1.249   5.009   4.201
95333SOL    HW187773   1.224   4.989   4.111
95333SOL    HW287774   1.239   5.104   4.207
95334SOL     OW87775   6.697  13.377   2.399
95334SOL    HW187776   6.769  13.381   2.336
95334SOL    HW287777   6.719  13.304   2.457
95335SOL     OW87778  11.581   4.326  11.108
95335SOL    HW187779  11.647   4.271  11.066
95335SOL    HW287780  11.627   4.406  11.133
95336SOL     OW87781   8.276   2.097   9.708
95336SOL    HW187782   8.211   2.038   9.671
95336SOL    HW287783   8.333   2.040   9.761
95337SOL     OW87784  12.199   7.523   4.140
95337SOL    HW187785  12.118   7.510   4.189
95337SOL    HW287786  12.217   7.617   4.147
95338SOL     OW87787   2.070   4.440  13.594
95338SOL    HW187788   2.009   4.503  13.630
95338SOL    HW287789   2.016   4.363  13.574
95339SOL     OW87790   1.751  10.578   6.886
95339SOL    HW187791   1.662  10.598   6.855
95339SOL    HW287792   1.808  10.629   6.829
95340SOL     OW87793  14.078   3.578   9.693
95340SOL    HW187794  14.128   3.518   9.638
95340SOL    HW287795  14.139   3.649   9.713
95341SOL     OW87796   6.951   8.120   9.921
95341SOL    HW187797   7.029   8.115   9.865
95341SOL    HW287798   6.980   8.173   9.995
95342SOL     OW87799  11.712  14.827   8.280
95342SOL    HW187800  11.797  14.783   8.284
95342SOL    HW287801  11.733   0.039   8.251
95343SOL     OW87802  12.979  11.339   7.224
95343SOL    HW187803  12.943  11.410   7.171
95343SOL    HW287804  12.936  11.348   7.309
95344SOL     OW87805  11.482   9.708   1.422
95344SOL    HW187806  11.401   9.687   1.470
95344SOL    HW287807  11.473   9.800   1.398
95345SOL     OW87808   3.090   1.588   7.366
95345SOL    HW187809   3.054   1.526   7.303
95345SOL    HW287810   3.103   1.537   7.446
95346SOL     OW87811   8.888   6.132  12.754
95346SOL    HW187812   8.886   6.038  12.771
95346SOL    HW287813   8.795   6.156  12.745
95347SOL     OW87814   1.151   4.079   1.729
95347SOL    HW187815   1.243   4.107   1.727
95347SOL    HW287816   1.152   3.998   1.780
95348SOL     OW87817   0.403  14.222   0.090
95348SOL    HW187818   0.488  14.185   0.115
95348SOL    HW287819   0.425  14.299   0.038
95349SOL     OW87820   1.765  13.145   3.482
95349SOL    HW187821   1.734  13.091   3.409
95349SOL    HW287822   1.839  13.194   3.445
95350SOL     OW87823   7.762   0.684   1.368
95350SOL    HW187824   7.832   0.711   1.310
95350SOL    HW287825   7.800   0.615   1.422
95351SOL     OW87826   7.128  10.398   8.663
95351SOL    HW187827   7.097  10.443   8.742
95351SOL    HW287828   7.050  10.385   8.610
95352SOL     OW87829   8.814  12.742   9.542
95352SOL    HW187830   8.781  12.758   9.630
95352SOL    HW287831   8.736  12.743   9.486
95353SOL     OW87832  13.464   9.971   8.945
95353SOL    HW187833  13.431  10.034   9.009
95353SOL    HW287834  13.402   9.976   8.873
95354SOL     OW87835   8.023   3.590  12.298
95354SOL    HW187836   8.033   3.684  12.288
95354SOL    HW287837   8.078   3.552  12.229
95355SOL     OW87838   0.056   0.223   8.795
95355SOL    HW187839  14.861   0.278   8.824
95355SOL    HW287840   0.126   0.241   8.857
95356SOL     OW87841   4.284   2.761   9.804
95356SOL    HW187842   4.275   2.796   9.893
95356SOL    HW287843   4.376   2.736   9.798
95357SOL     OW87844  12.826   6.065  12.743
95357SOL    HW187845  12.735   6.035  12.744
95357SOL    HW287846  12.823   6.150  12.788
95358SOL     OW87847  13.449   1.358  10.569
95358SOL    HW187848  13.528   1.313  10.597
95358SOL    HW287849  13.412   1.393  10.650
95359SOL     OW87850  13.608   9.769   4.081
95359SOL    HW187851  13.674   9.702   4.063
95359SOL    HW287852  13.546   9.763   4.009
95360SOL     OW87853   4.979   5.355   7.222
95360SOL    HW187854   5.073   5.373   7.225
95360SOL    HW287855   4.939   5.428   7.270
95361SOL     OW87856   0.208   9.065  13.642
95361SOL    HW187857   0.149   9.049  13.568
95361SOL    HW287858   0.163   9.028  13.718
95362SOL     OW87859   5.719   5.080  10.400
95362SOL    HW187860   5.712   5.142  10.327
95362SOL    HW287861   5.679   5.124  10.474
95363SOL     OW87862   7.117  10.931   6.067
95363SOL    HW187863   7.202  10.920   6.108
95363SOL    HW287864   7.133  10.992   5.994
95364SOL     OW87865   7.881  14.112   5.374
95364SOL    HW187866   7.807  14.120   5.434
95364SOL    HW287867   7.895  14.202   5.342
95365SOL     OW87868   0.381   8.369   2.836
95365SOL    HW187869   0.381   8.366   2.931
95365SOL    HW287870   0.316   8.437   2.814
95366SOL     OW87871  11.276   3.008   3.247
95366SOL    HW187872  11.228   3.070   3.192
95366SOL    HW287873  11.278   3.050   3.334
95367SOL     OW87874   5.484   2.379   9.225
95367SOL    HW187875   5.528   2.426   9.155
95367SOL    HW287876   5.540   2.391   9.301
95368SOL     OW87877  10.431   7.765  13.052
95368SOL    HW187878  10.460   7.857  13.056
95368SOL    HW287879  10.420   7.739  13.143
95369SOL     OW87880   5.816   9.006  14.576
95369SOL    HW187881   5.764   9.053  14.511
95369SOL    HW287882   5.788   8.915  14.568
95370SOL     OW87883   3.274  13.075   8.039
95370SOL    HW187884   3.292  13.121   7.957
95370SOL    HW287885   3.230  12.994   8.013
95371SOL     OW87886   2.315  14.077   0.751
95371SOL    HW187887   2.291  14.142   0.817
95371SOL    HW287888   2.265  13.999   0.776
95372SOL     OW87889   0.164   8.019   1.029
95372SOL    HW187890   0.215   7.951   0.986
95372SOL    HW287891   0.228   8.074   1.073
95373SOL     OW87892  11.410   8.810   1.005
95373SOL    HW187893  11.464   8.832   1.081
95373SOL    HW287894  11.345   8.748   1.038
95374SOL     OW87895   2.339   3.403   9.520
95374SOL    HW187896   2.421   3.358   9.501
95374SOL    HW287897   2.274   3.359   9.464
95375SOL     OW87898  13.907  11.298  10.328
95375SOL    HW187899  13.820  11.266  10.353
95375SOL    HW287900  13.925  11.371  10.387
95376SOL     OW87901   4.215  14.603   3.862
95376SOL    HW187902   4.204  14.597   3.767
95376SOL    HW287903   4.309  14.606   3.876
95377SOL     OW87904  14.364   0.320   3.858
95377SOL    HW187905  14.385   0.279   3.941
95377SOL    HW287906  14.428   0.284   3.796
95378SOL     OW87907   4.011  11.351  11.079
95378SOL    HW187908   4.044  11.313  11.161
95378SOL    HW287909   4.086  11.346  11.019
95379SOL     OW87910   8.106   0.293   4.608
95379SOL    HW187911   8.123   0.379   4.570
95379SOL    HW287912   8.183   0.274   4.661
95380SOL     OW87913  13.771  12.804   3.310
95380SOL    HW187914  13.832  12.739   3.346
95380SOL    HW287915  13.746  12.770   3.225
95381SOL     OW87916   1.652   5.530   6.078
95381SOL    HW187917   1.630   5.463   6.142
95381SOL    HW287918   1.639   5.489   5.993
95382SOL     OW87919   1.419  10.324  11.818
95382SOL    HW187920   1.388  10.310  11.728
95382SOL    HW287921   1.499  10.271  11.823
95383SOL     OW87922  14.119   6.749   1.070
95383SOL    HW187923  14.157   6.714   1.151
95383SOL    HW287924  14.092   6.838   1.092
95384SOL     OW87925   8.003  10.827   0.091
95384SOL    HW187926   7.962  10.914   0.091
95384SOL    HW287927   7.980  10.791   0.005
95385SOL     OW87928   0.160   1.813  10.247
95385SOL    HW187929   0.104   1.883  10.280
95385SOL    HW287930   0.153   1.743  10.313
95386SOL     OW87931  11.398  14.355   8.952
95386SOL    HW187932  11.352  14.296   9.012
95386SOL    HW287933  11.328  14.398   8.902
95387SOL     OW87934  10.201   2.415   1.078
95387SOL    HW187935  10.161   2.502   1.078
95387SOL    HW287936  10.257   2.415   1.000
95388SOL     OW87937   9.929   6.879   1.338
95388SOL    HW187938   9.987   6.949   1.309
95388SOL    HW287939   9.845   6.922   1.355
95389SOL     OW87940   4.432   0.669   3.519
95389SOL    HW187941   4.509   0.624   3.551
95389SOL    HW287942   4.435   0.658   3.424
95390SOL     OW87943   4.633   8.313  12.084
95390SOL    HW187944   4.693   8.254  12.130
95390SOL    HW287945   4.635   8.282  11.993
95391SOL     OW87946   0.585   1.054   2.832
95391SOL    HW187947   0.624   0.980   2.879
95391SOL    HW287948   0.505   1.074   2.881
95392SOL     OW87949   8.479   3.855   9.322
95392SOL    HW187950   8.483   3.922   9.390
95392SOL    HW287951   8.568   3.849   9.288
95393SOL     OW87952  12.095   0.454   3.240
95393SOL    HW187953  12.100   0.484   3.331
95393SOL    HW287954  12.001   0.444   3.224
95394SOL     OW87955   5.411  11.238   7.615
95394SOL    HW187956   5.477  11.202   7.675
95394SOL    HW287957   5.398  11.328   7.646
95395SOL     OW87958   6.142  10.952   6.251
95395SOL    HW187959   6.202  10.908   6.311
95395SOL    HW287960   6.122  11.035   6.295
95396SOL     OW87961   2.112   7.565   6.250
95396SOL    HW187962   2.025   7.602   6.269
95396SOL    HW287963   2.118   7.488   6.306
95397SOL     OW87964  12.050   5.865   4.562
95397SOL    HW187965  11.991   5.917   4.617
95397SOL    HW287966  12.137   5.880   4.599
95398SOL     OW87967   4.998   2.814  14.527
95398SOL    HW187968   5.001   2.804  14.622
95398SOL    HW287969   5.006   2.725  14.493
95399SOL     OW87970   1.650   3.330  10.593
95399SOL    HW187971   1.562   3.313  10.626
95399SOL    HW287972   1.663   3.424  10.604
95400SOL     OW87973   1.320   6.429   5.426
95400SOL    HW187974   1.237   6.424   5.378
95400SOL    HW287975   1.357   6.514   5.402
95401SOL     OW87976   9.534  11.548   9.369
95401SOL    HW187977   9.488  11.500   9.437
95401SOL    HW287978   9.473  11.616   9.341
95402SOL     OW87979   3.104  14.644  10.264
95402SOL    HW187980   3.128  14.734  10.286
95402SOL    HW287981   3.065  14.609  10.344
95403SOL     OW87982  10.781   4.643   8.068
95403SOL    HW187983  10.823   4.645   7.982
95403SOL    HW287984  10.689   4.658   8.050
95404SOL     OW87985   8.203   2.536  10.646
95404SOL    HW187986   8.269   2.590  10.602
95404SOL    HW287987   8.239   2.447  10.644
95405SOL     OW87988  12.523  10.431  11.775
95405SOL    HW187989  12.528  10.526  11.770
95405SOL    HW287990  12.550  10.401  11.689
95406SOL     OW87991   1.224   9.482   5.719
95406SOL    HW187992   1.262   9.416   5.661
95406SOL    HW287993   1.185   9.431   5.790
95407SOL     OW87994   0.329   7.680   4.121
95407SOL    HW187995   0.247   7.723   4.148
95407SOL    HW287996   0.300   7.595   4.086
95408SOL     OW87997   0.371  12.030   6.491
95408SOL    HW187998   0.319  12.037   6.411
95408SOL    HW287999   0.461  12.021   6.460
95409SOL     OW88000   2.831  14.532   6.785
95409SOL    HW188001   2.806  14.468   6.718
95409SOL    HW288002   2.775  14.511   6.860
95410SOL     OW88003   6.657   6.479   7.538
95410SOL    HW188004   6.721   6.543   7.506
95410SOL    HW288005   6.592   6.473   7.468
95411SOL     OW88006   8.793   8.894  11.964
95411SOL    HW188007   8.816   8.879  11.873
95411SOL    HW288008   8.871   8.870  12.013
95412SOL     OW88009   0.403   2.284   7.372
95412SOL    HW188010   0.419   2.253   7.461
95412SOL    HW288011   0.330   2.231   7.340
95413SOL     OW88012  10.237  12.826  11.790
95413SOL    HW188013  10.294  12.896  11.759
95413SOL    HW288014  10.239  12.760  11.721
95414SOL     OW88015   1.355   5.707  10.316
95414SOL    HW188016   1.271   5.731  10.356
95414SOL    HW288017   1.351   5.746  10.228
95415SOL     OW88018   9.851   2.347  10.397
95415SOL    HW188019   9.762   2.378  10.377
95415SOL    HW288020   9.853   2.339  10.492
95416SOL     OW88021  13.916   5.572   3.633
95416SOL    HW188022  13.885   5.490   3.596
95416SOL    HW288023  13.885   5.571   3.724
95417SOL     OW88024  13.683   6.198  14.425
95417SOL    HW188025  13.768   6.241  14.427
95417SOL    HW288026  13.703   6.104  14.433
95418SOL     OW88027   6.721  11.905   1.728
95418SOL    HW188028   6.790  11.914   1.794
95418SOL    HW288029   6.765  11.865   1.653
95419SOL     OW88030  13.548   3.009   8.809
95419SOL    HW188031  13.477   2.977   8.864
95419SOL    HW288032  13.515   3.090   8.771
95420SOL     OW88033  14.543  13.408  13.616
95420SOL    HW188034  14.588  13.492  13.620
95420SOL    HW288035  14.525  13.394  13.523
95421SOL     OW88036   8.028   4.015   9.545
95421SOL    HW188037   7.964   3.956   9.506
95421SOL    HW288038   7.980   4.097   9.556
95422SOL     OW88039   9.627   9.832   1.308
95422SOL    HW188040   9.594   9.762   1.366
95422SOL    HW288041   9.569   9.906   1.325
95423SOL     OW88042  10.339   5.297   5.895
95423SOL    HW188043  10.270   5.234   5.880
95423SOL    HW288044  10.406   5.249   5.943
95424SOL     OW88045   8.639   6.239   8.282
95424SOL    HW188046   8.700   6.305   8.249
95424SOL    HW288047   8.559   6.253   8.232
95425SOL     OW88048   2.379  11.050   3.102
95425SOL    HW188049   2.381  11.143   3.078
95425SOL    HW288050   2.292  11.021   3.076
95426SOL     OW88051   3.692   5.970  12.760
95426SOL    HW188052   3.674   5.908  12.830
95426SOL    HW288053   3.628   6.040  12.773
95427SOL     OW88054  11.157  13.266   0.412
95427SOL    HW188055  11.121  13.349   0.444
95427SOL    HW288056  11.170  13.280   0.318
95428SOL     OW88057  11.871  10.469  12.112
95428SOL    HW188058  11.896  10.544  12.165
95428SOL    HW288059  11.940  10.463  12.046
95429SOL     OW88060   2.125   2.653   4.731
95429SOL    HW188061   2.208   2.700   4.740
95429SOL    HW288062   2.132   2.581   4.793
95430SOL     OW88063   6.452   7.295   5.443
95430SOL    HW188064   6.492   7.373   5.481
95430SOL    HW288065   6.510   7.223   5.468
95431SOL     OW88066  14.328  13.648   6.600
95431SOL    HW188067  14.374  13.665   6.517
95431SOL    HW288068  14.237  13.671   6.582
95432SOL     OW88069   0.668   7.305   0.885
95432SOL    HW188070   0.764   7.304   0.891
95432SOL    HW288071   0.651   7.320   0.792
95433SOL     OW88072  13.634   8.385   6.427
95433SOL    HW188073  13.662   8.468   6.389
95433SOL    HW288074  13.650   8.395   6.521
95434SOL     OW88075   5.773   3.699   1.219
95434SOL    HW188076   5.742   3.789   1.227
95434SOL    HW288077   5.694   3.646   1.230
95435SOL     OW88078   2.896  10.168  11.899
95435SOL    HW188079   2.978  10.148  11.853
95435SOL    HW288080   2.913  10.141  11.990
95436SOL     OW88081   8.488  13.043   4.823
95436SOL    HW188082   8.457  12.989   4.896
95436SOL    HW288083   8.581  13.023   4.816
95437SOL     OW88084   3.174  11.461  12.576
95437SOL    HW188085   3.208  11.373  12.589
95437SOL    HW288086   3.188  11.479  12.483
95438SOL     OW88087   6.696  13.124  11.999
95438SOL    HW188088   6.610  13.097  11.965
95438SOL    HW288089   6.756  13.057  11.966
95439SOL     OW88090  10.890  10.833   1.023
95439SOL    HW188091  10.827  10.889   0.976
95439SOL    HW288092  10.856  10.745   1.013
95440SOL     OW88093   0.442  13.787   7.856
95440SOL    HW188094   0.410  13.761   7.769
95440SOL    HW288095   0.463  13.880   7.846
95441SOL     OW88096   5.165   2.785   4.544
95441SOL    HW188097   5.232   2.725   4.576
95441SOL    HW288098   5.100   2.729   4.502
95442SOL     OW88099   3.083   5.411   2.747
95442SOL    HW188100   3.000   5.400   2.700
95442SOL    HW288101   3.102   5.323   2.780
95443SOL     OW88102   6.255   2.962  11.925
95443SOL    HW188103   6.161   2.977  11.914
95443SOL    HW288104   6.261   2.909  12.005
95444SOL     OW88105   0.416  12.702   3.293
95444SOL    HW188106   0.356  12.714   3.367
95444SOL    HW288107   0.475  12.777   3.298
95445SOL     OW88108   1.964   0.424   6.052
95445SOL    HW188109   2.014   0.383   6.123
95445SOL    HW288110   1.927   0.503   6.091
95446SOL     OW88111   6.054   0.168  10.467
95446SOL    HW188112   6.118   0.106  10.502
95446SOL    HW288113   6.043   0.142  10.376
95447SOL     OW88114   9.523   6.340   1.685
95447SOL    HW188115   9.563   6.284   1.751
95447SOL    HW288116   9.430   6.320   1.690
95448SOL     OW88117   9.412   1.022   7.198
95448SOL    HW188118   9.383   1.112   7.182
95448SOL    HW288119   9.460   0.997   7.119
95449SOL     OW88120  12.898   9.677   0.377
95449SOL    HW188121  12.987   9.669   0.411
95449SOL    HW288122  12.903   9.744   0.310
95450SOL     OW88123   4.226   9.783   5.835
95450SOL    HW188124   4.217   9.870   5.796
95450SOL    HW288125   4.170   9.727   5.781
95451SOL     OW88126   7.162   4.054  12.801
95451SOL    HW188127   7.212   4.020  12.726
95451SOL    HW288128   7.107   4.124  12.763
95452SOL     OW88129   1.561   2.929   6.815
95452SOL    HW188130   1.493   2.863   6.823
95452SOL    HW288131   1.516   3.005   6.778
95453SOL     OW88132  13.687   0.624  10.412
95453SOL    HW188133  13.668   0.546  10.465
95453SOL    HW288134  13.604   0.669  10.405
95454SOL     OW88135   6.386   9.072   9.309
95454SOL    HW188136   6.432   9.155   9.298
95454SOL    HW288137   6.431   9.012   9.250
95455SOL     OW88138   4.160   7.172   5.618
95455SOL    HW188139   4.248   7.208   5.629
95455SOL    HW288140   4.107   7.222   5.680
95456SOL     OW88141   1.223   2.603   0.503
95456SOL    HW188142   1.163   2.656   0.451
95456SOL    HW288143   1.174   2.522   0.522
95457SOL     OW88144  11.453   0.990  14.672
95457SOL    HW188145  11.402   0.913  14.695
95457SOL    HW288146  11.540   0.957  14.653
95458SOL     OW88147  13.517   9.553   2.475
95458SOL    HW188148  13.511   9.572   2.569
95458SOL    HW288149  13.597   9.598   2.447
95459SOL     OW88150  14.410  13.198   4.841
95459SOL    HW188151  14.474  13.163   4.779
95459SOL    HW288152  14.361  13.121   4.871
95460SOL     OW88153   6.614   1.500  14.078
95460SOL    HW188154   6.608   1.594  14.095
95460SOL    HW288155   6.569   1.460  14.153
95461SOL     OW88156   5.907   0.573   8.300
95461SOL    HW188157   5.886   0.541   8.211
95461SOL    HW288158   5.907   0.668   8.292
95462SOL     OW88159   0.999   0.578   2.487
95462SOL    HW188160   0.908   0.568   2.460
95462SOL    HW288161   1.041   0.625   2.415
95463SOL     OW88162   8.349  12.095   4.969
95463SOL    HW188163   8.413  12.027   4.947
95463SOL    HW288164   8.265  12.049   4.970
95464SOL     OW88165  13.198   5.074  11.018
95464SOL    HW188166  13.237   5.141  10.961
95464SOL    HW288167  13.118   5.049  10.972
95465SOL     OW88168   2.485   5.012  13.510
95465SOL    HW188169   2.437   4.965  13.441
95465SOL    HW288170   2.550   5.064  13.463
95466SOL     OW88171  12.541  13.060   9.979
95466SOL    HW188172  12.519  13.148   9.950
95466SOL    HW288173  12.484  13.003   9.928
95467SOL     OW88174   9.534   4.844   2.773
95467SOL    HW188175   9.514   4.781   2.704
95467SOL    HW288176   9.613   4.888   2.744
95468SOL     OW88177  13.992   1.039   2.451
95468SOL    HW188178  14.035   1.048   2.536
95468SOL    HW288179  13.928   1.110   2.449
95469SOL     OW88180  13.370   0.919   3.732
95469SOL    HW188181  13.283   0.919   3.694
95469SOL    HW288182  13.415   0.993   3.691
95470SOL     OW88183   3.386   4.425   2.436
95470SOL    HW188184   3.430   4.504   2.467
95470SOL    HW288185   3.361   4.379   2.515
95471SOL     OW88186   1.112   0.807   6.339
95471SOL    HW188187   1.059   0.844   6.268
95471SOL    HW288188   1.093   0.713   6.336
95472SOL     OW88189   9.964   0.574   2.994
95472SOL    HW188190   9.905   0.500   3.006
95472SOL    HW288191   9.911   0.641   2.950
95473SOL     OW88192   9.119  14.749  10.504
95473SOL    HW188193   9.073  14.747  10.588
95473SOL    HW288194   9.193  14.690  10.517
95474SOL     OW88195  10.059  12.717   2.980
95474SOL    HW188196   9.980  12.756   2.943
95474SOL    HW288197  10.046  12.718   3.074
95475SOL     OW88198   5.419   7.168   0.474
95475SOL    HW188199   5.442   7.242   0.529
95475SOL    HW288200   5.333   7.140   0.504
95476SOL     OW88201   6.909   9.534   2.540
95476SOL    HW188202   6.969   9.588   2.488
95476SOL    HW288203   6.825   9.580   2.536
95477SOL     OW88204  10.910  14.434  11.991
95477SOL    HW188205  10.838  14.456  11.932
95477SOL    HW288206  10.967  14.511  11.989
95478SOL     OW88207  11.809  12.749   0.680
95478SOL    HW188208  11.834  12.668   0.724
95478SOL    HW288209  11.807  12.726   0.587
95479SOL     OW88210   5.312   0.108   8.947
95479SOL    HW188211   5.326   0.027   8.996
95479SOL    HW288212   5.296   0.080   8.857
95480SOL     OW88213   6.375   6.897  12.121
95480SOL    HW188214   6.341   6.825  12.174
95480SOL    HW288215   6.470   6.882  12.118
95481SOL     OW88216  10.801  10.019  10.815
95481SOL    HW188217  10.710  10.049  10.813
95481SOL    HW288218  10.795   9.925  10.796
95482SOL     OW88219   6.965  10.446  13.393
95482SOL    HW188220   6.906  10.466  13.320
95482SOL    HW288221   7.053  10.458  13.357
95483SOL     OW88222   1.119  11.353   7.940
95483SOL    HW188223   1.111  11.416   8.012
95483SOL    HW288224   1.208  11.319   7.949
95484SOL     OW88225   3.973   8.082   7.252
95484SOL    HW188226   4.034   8.056   7.183
95484SOL    HW288227   3.988   8.018   7.322
95485SOL     OW88228   1.504   0.077   6.015
95485SOL    HW188229   1.440   0.020   6.057
95485SOL    HW288230   1.523   0.143   6.082
95486SOL     OW88231   6.110   8.984   7.000
95486SOL    HW188232   6.140   8.911   7.054
95486SOL    HW288233   6.088   8.943   6.916
95487SOL     OW88234   5.846  10.491   9.945
95487SOL    HW188235   5.763  10.451   9.922
95487SOL    HW288236   5.889  10.506   9.860
95488SOL     OW88237  12.675   8.681   9.003
95488SOL    HW188238  12.602   8.635   9.045
95488SOL    HW288239  12.711   8.737   9.072
95489SOL     OW88240   9.601   1.060   0.250
95489SOL    HW188241   9.619   0.971   0.280
95489SOL    HW288242   9.645   1.067   0.165
95490SOL     OW88243   8.379   4.006   3.057
95490SOL    HW188244   8.366   4.064   3.133
95490SOL    HW288245   8.370   3.918   3.093
95491SOL     OW88246  13.404  13.563   9.614
95491SOL    HW188247  13.420  13.639   9.670
95491SOL    HW288248  13.364  13.599   9.535
95492SOL     OW88249  14.874   8.903   0.169
95492SOL    HW188250  14.852   8.903   0.076
95492SOL    HW288251  14.808   8.958   0.210
95493SOL     OW88252   5.809  12.946  11.066
95493SOL    HW188253   5.892  12.989  11.089
95493SOL    HW288254   5.743  13.013  11.077
95494SOL     OW88255  14.840   0.983   5.665
95494SOL    HW188256   0.032   0.971   5.730
95494SOL    HW288257  14.828   0.897   5.626
95495SOL     OW88258   6.504  11.416   1.106
95495SOL    HW188259   6.458  11.362   1.171
95495SOL    HW288260   6.594  11.420   1.137
95496SOL     OW88261   5.287  13.689  11.890
95496SOL    HW188262   5.258  13.779  11.875
95496SOL    HW288263   5.288  13.649  11.803
95497SOL     OW88264   3.061   7.025   2.425
95497SOL    HW188265   3.099   7.093   2.370
95497SOL    HW288266   3.132   6.963   2.439
95498SOL     OW88267   4.454  13.957  11.863
95498SOL    HW188268   4.375  13.914  11.895
95498SOL    HW288269   4.456  13.935  11.770
95499SOL     OW88270  12.151   4.304  14.227
95499SOL    HW188271  12.175   4.226  14.277
95499SOL    HW288272  12.119   4.269  14.144
95500SOL     OW88273   9.073  13.637   7.064
95500SOL    HW188274   9.158  13.593   7.065
95500SOL    HW288275   9.012  13.571   7.033
95501SOL     OW88276  11.469   8.092  13.642
95501SOL    HW188277  11.449   8.111  13.734
95501SOL    HW288278  11.483   7.998  13.639
95502SOL     OW88279   4.908   7.930  13.486
95502SOL    HW188280   4.992   7.924  13.531
95502SOL    HW288281   4.850   7.872  13.536
95503SOL     OW88282   0.779   1.197   3.785
95503SOL    HW188283   0.726   1.204   3.864
95503SOL    HW288284   0.864   1.233   3.810
95504SOL     OW88285   1.284   9.249   6.153
95504SOL    HW188286   1.341   9.319   6.185
95504SOL    HW288287   1.336   9.169   6.163
95505SOL     OW88288   7.166   2.951   0.905
95505SOL    HW188289   7.124   3.035   0.924
95505SOL    HW288290   7.102   2.885   0.933
95506SOL     OW88291  12.956  11.902   8.123
95506SOL    HW188292  13.043  11.865   8.136
95506SOL    HW288293  12.914  11.844   8.060
95507SOL     OW88294   3.285   4.245  12.633
95507SOL    HW188295   3.210   4.304  12.644
95507SOL    HW288296   3.266   4.199  12.551
95508SOL     OW88297   2.437   6.687  10.990
95508SOL    HW188298   2.342   6.697  10.981
95508SOL    HW288299   2.458   6.611  10.936
95509SOL     OW88300   8.433   6.690  14.055
95509SOL    HW188301   8.449   6.601  14.024
95509SOL    HW288302   8.339   6.692  14.076
95510SOL     OW88303  12.887  10.493   0.320
95510SOL    HW188304  12.792  10.495   0.305
95510SOL    HW288305  12.925  10.492   0.231
95511SOL     OW88306  12.327   5.549   7.055
95511SOL    HW188307  12.247   5.598   7.040
95511SOL    HW288308  12.376   5.557   6.973
95512SOL     OW88309   9.897   0.315   2.651
95512SOL    HW188310   9.822   0.314   2.592
95512SOL    HW288311   9.942   0.232   2.635
95513SOL     OW88312   7.559   1.446   8.478
95513SOL    HW188313   7.635   1.428   8.424
95513SOL    HW288314   7.557   1.374   8.542
95514SOL     OW88315   6.962  12.767   8.315
95514SOL    HW188316   7.018  12.693   8.339
95514SOL    HW288317   6.884  12.728   8.278
95515SOL     OW88318   5.715   7.327  12.082
95515SOL    HW188319   5.654   7.345  12.010
95515SOL    HW288320   5.735   7.234  12.074
95516SOL     OW88321  10.529  12.408   5.866
95516SOL    HW188322  10.456  12.463   5.891
95516SOL    HW288323  10.518  12.394   5.772
95517SOL     OW88324   7.585   7.252   4.033
95517SOL    HW188325   7.617   7.303   4.107
95517SOL    HW288326   7.596   7.161   4.060
95518SOL     OW88327   2.640   4.215   7.726
95518SOL    HW188328   2.608   4.240   7.813
95518SOL    HW288329   2.622   4.291   7.671
95519SOL     OW88330   9.688   3.385  13.061
95519SOL    HW188331   9.594   3.396  13.056
95519SOL    HW288332   9.717   3.385  12.969
95520SOL     OW88333  14.246   9.855   9.521
95520SOL    HW188334  14.153   9.872   9.535
95520SOL    HW288335  14.260   9.873   9.428
95521SOL     OW88336  10.158   6.333   8.360
95521SOL    HW188337  10.147   6.428   8.362
95521SOL    HW288338  10.167   6.312   8.267
95522SOL     OW88339   1.728  13.316   6.473
95522SOL    HW188340   1.788  13.341   6.402
95522SOL    HW288341   1.697  13.400   6.508
95523SOL     OW88342   6.215  14.458   9.039
95523SOL    HW188343   6.141  14.442   8.980
95523SOL    HW288344   6.292  14.446   8.984
95524SOL     OW88345   7.299  10.452   2.139
95524SOL    HW188346   7.312  10.530   2.192
95524SOL    HW288347   7.205  10.448   2.124
95525SOL     OW88348   1.325   8.797  11.371
95525SOL    HW188349   1.341   8.887  11.400
95525SOL    HW288350   1.229   8.790  11.369
95526SOL     OW88351  10.276  14.833  14.542
95526SOL    HW188352  10.325   0.037  14.532
95526SOL    HW288353  10.341  14.769  14.572
95527SOL     OW88354   6.147   2.725  14.369
95527SOL    HW188355   6.227   2.699  14.324
95527SOL    HW288356   6.159   2.695  14.459
95528SOL     OW88357  12.715   0.826  13.771
95528SOL    HW188358  12.627   0.804  13.740
95528SOL    HW288359  12.704   0.839  13.865
95529SOL     OW88360   9.040  14.750   6.034
95529SOL    HW188361   9.113  14.811   6.044
95529SOL    HW288362   9.058  14.704   5.952
95530SOL     OW88363   5.803  13.414   3.477
95530SOL    HW188364   5.869  13.381   3.538
95530SOL    HW288365   5.793  13.507   3.501
95531SOL     OW88366   9.744   1.172   9.664
95531SOL    HW188367   9.815   1.231   9.637
95531SOL    HW288368   9.786   1.087   9.673
95532SOL     OW88369   7.034  10.252   4.966
95532SOL    HW188370   7.065  10.164   4.942
95532SOL    HW288371   6.985  10.281   4.890
95533SOL     OW88372  13.465   6.039  11.903
95533SOL    HW188373  13.499   6.029  11.991
95533SOL    HW288374  13.423   6.125  11.903
95534SOL     OW88375   5.499   5.158  12.149
95534SOL    HW188376   5.421   5.204  12.117
95534SOL    HW288377   5.514   5.195  12.235
95535SOL     OW88378  12.693  10.952  12.840
95535SOL    HW188379  12.718  10.886  12.775
95535SOL    HW288380  12.622  10.911  12.889
95536SOL     OW88381  13.466   7.539   5.657
95536SOL    HW188382  13.454   7.444   5.650
95536SOL    HW288383  13.384   7.576   5.626
95537SOL     OW88384  13.464   5.233   3.967
95537SOL    HW188385  13.499   5.147   3.945
95537SOL    HW288386  13.534   5.295   3.945
95538SOL     OW88387   9.821  13.813   6.707
95538SOL    HW188388   9.848  13.878   6.643
95538SOL    HW288389   9.800  13.863   6.785
95539SOL     OW88390  13.961   6.744   3.806
95539SOL    HW188391  13.867   6.729   3.813
95539SOL    HW288392  13.985   6.705   3.722
95540SOL     OW88393   9.928   4.549   8.742
95540SOL    HW188394   9.839   4.513   8.745
95540SOL    HW288395   9.971   4.511   8.819
95541SOL     OW88396  13.463   6.081   2.961
95541SOL    HW188397  13.550   6.045   2.978
95541SOL    HW288398  13.403   6.012   2.989
95542SOL     OW88399   3.726  13.485  14.706
95542SOL    HW188400   3.661  13.555  14.694
95542SOL    HW288401   3.692  13.434  14.779
95543SOL     OW88402   8.411  10.046   8.062
95543SOL    HW188403   8.469  10.058   7.988
95543SOL    HW288404   8.394   9.951   8.065
95544SOL     OW88405  10.083  12.589   5.836
95544SOL    HW188406  10.093  12.682   5.853
95544SOL    HW288407  10.170  12.552   5.854
95545SOL     OW88408  12.306   8.857   8.428
95545SOL    HW188409  12.365   8.921   8.468
95545SOL    HW288410  12.352   8.828   8.349
95546SOL     OW88411   4.290   8.860   1.589
95546SOL    HW188412   4.223   8.893   1.648
95546SOL    HW288413   4.354   8.931   1.583
95547SOL     OW88414   6.795  11.948   5.222
95547SOL    HW188415   6.859  12.018   5.226
95547SOL    HW288416   6.797  11.918   5.131
95548SOL     OW88417   3.951  12.009   1.764
95548SOL    HW188418   3.931  11.930   1.713
95548SOL    HW288419   3.878  12.015   1.826
95549SOL     OW88420   1.246   8.671   2.895
95549SOL    HW188421   1.250   8.736   2.825
95549SOL    HW288422   1.290   8.712   2.969
95550SOL     OW88423  13.744  10.098   1.232
95550SOL    HW188424  13.836  10.120   1.215
95550SOL    HW288425  13.702  10.182   1.248
95551SOL     OW88426  11.759   4.669   2.858
95551SOL    HW188427  11.763   4.634   2.947
95551SOL    HW288428  11.685   4.624   2.818
95552SOL     OW88429   7.896   2.973   5.205
95552SOL    HW188430   7.844   2.942   5.279
95552SOL    HW288431   7.840   2.959   5.128
95553SOL     OW88432  14.815  12.171   7.395
95553SOL    HW188433  14.745  12.134   7.341
95553SOL    HW288434  14.787  12.154   7.485
95554SOL     OW88435  11.068  13.068  11.026
95554SOL    HW188436  11.026  13.037  10.946
95554SOL    HW288437  11.002  13.122  11.069
95555SOL     OW88438   2.006   6.401   9.018
95555SOL    HW188439   2.093   6.363   9.027
95555SOL    HW288440   2.021   6.486   8.976
95556SOL     OW88441   6.588   5.313   1.450
95556SOL    HW188442   6.515   5.362   1.411
95556SOL    HW288443   6.588   5.229   1.405
95557SOL     OW88444   6.917   3.136   5.648
95557SOL    HW188445   6.990   3.165   5.594
95557SOL    HW288446   6.921   3.040   5.645
95558SOL     OW88447   6.233   0.675  10.497
95558SOL    HW188448   6.145   0.663  10.462
95558SOL    HW288449   6.282   0.599  10.466
95559SOL     OW88450  14.499   9.245  13.158
95559SOL    HW188451  14.406   9.252  13.137
95559SOL    HW288452  14.541   9.309  13.101
95560SOL     OW88453   2.939  11.317  10.966
95560SOL    HW188454   3.023  11.277  10.945
95560SOL    HW288455   2.944  11.405  10.928
95561SOL     OW88456   0.959  11.816  10.174
95561SOL    HW188457   0.903  11.749  10.213
95561SOL    HW288458   0.918  11.836  10.090
95562SOL     OW88459   6.866   3.013  10.938
95562SOL    HW188460   6.923   2.980  11.007
95562SOL    HW288461   6.787   2.960  10.943
95563SOL     OW88462   6.923   9.475  14.440
95563SOL    HW188463   6.946   9.398  14.389
95563SOL    HW288464   6.980   9.544  14.407
95564SOL     OW88465  11.285  11.997  12.477
95564SOL    HW188466  11.317  12.027  12.392
95564SOL    HW288467  11.338  11.920  12.496
95565SOL     OW88468   3.164  13.724   2.938
95565SOL    HW188469   3.089  13.763   2.982
95565SOL    HW288470   3.171  13.772   2.855
95566SOL     OW88471   6.197  10.256  12.110
95566SOL    HW188472   6.244  10.339  12.125
95566SOL    HW288473   6.161  10.265  12.022
95567SOL     OW88474   0.290  12.761   4.725
95567SOL    HW188475   0.239  12.729   4.800
95567SOL    HW288476   0.332  12.683   4.690
95568SOL     OW88477   3.128  11.142   6.508
95568SOL    HW188478   3.058  11.193   6.467
95568SOL    HW288479   3.112  11.053   6.479
95569SOL     OW88480  10.717  13.706   8.196
95569SOL    HW188481  10.778  13.780   8.192
95569SOL    HW288482  10.773  13.629   8.193
95570SOL     OW88483   6.013  10.761   6.533
95570SOL    HW188484   5.922  10.779   6.509
95570SOL    HW288485   6.028  10.671   6.507
95571SOL     OW88486  11.603   4.891   9.363
95571SOL    HW188487  11.688   4.927   9.386
95571SOL    HW288488  11.609   4.798   9.387
95572SOL     OW88489   5.398  12.067  10.504
95572SOL    HW188490   5.356  12.097  10.423
95572SOL    HW288491   5.330  12.074  10.570
95573SOL     OW88492  14.237   1.394  12.539
95573SOL    HW188493  14.204   1.360  12.456
95573SOL    HW288494  14.332   1.399  12.526
95574SOL     OW88495   1.671  13.688   3.059
95574SOL    HW188496   1.616  13.619   3.096
95574SOL    HW288497   1.689  13.746   3.132
95575SOL     OW88498   5.365  14.134   1.717
95575SOL    HW188499   5.394  14.174   1.635
95575SOL    HW288500   5.347  14.042   1.694
95576SOL     OW88501   2.178   5.643   1.947
95576SOL    HW188502   2.091   5.671   1.976
95576SOL    HW288503   2.161   5.572   1.886
95577SOL     OW88504  10.402  14.365   6.492
95577SOL    HW188505  10.334  14.324   6.547
95577SOL    HW288506  10.429  14.442   6.541
95578SOL     OW88507   8.626   4.098   0.911
95578SOL    HW188508   8.607   4.125   1.001
95578SOL    HW288509   8.715   4.063   0.915
95579SOL     OW88510   7.863  12.505  13.043
95579SOL    HW188511   7.819  12.423  13.017
95579SOL    HW288512   7.819  12.573  12.992
95580SOL     OW88513  13.270   8.668   7.163
95580SOL    HW188514  13.221   8.662   7.246
95580SOL    HW288515  13.263   8.760   7.138
95581SOL     OW88516   2.717  14.020  10.262
95581SOL    HW188517   2.644  14.013  10.324
95581SOL    HW288518   2.753  13.932  10.258
95582SOL     OW88519   9.122   1.967   0.487
95582SOL    HW188520   9.095   1.916   0.410
95582SOL    HW288521   9.053   2.032   0.497
95583SOL     OW88522  12.919   0.056   6.947
95583SOL    HW188523  12.913   0.137   6.896
95583SOL    HW288524  13.012   0.033   6.943
95584SOL     OW88525   1.265  11.188   0.224
95584SOL    HW188526   1.205  11.240   0.170
95584SOL    HW288527   1.213  11.113   0.253
95585SOL     OW88528   8.840  11.715   5.676
95585SOL    HW188529   8.911  11.724   5.613
95585SOL    HW288530   8.878  11.743   5.760
95586SOL     OW88531   3.092  13.382  10.435
95586SOL    HW188532   3.162  13.321  10.412
95586SOL    HW288533   3.113  13.462  10.385
95587SOL     OW88534  11.351   6.981   1.967
95587SOL    HW188535  11.403   7.061   1.963
95587SOL    HW288536  11.405   6.920   2.017
95588SOL     OW88537  10.077  11.898   9.522
95588SOL    HW188538  10.061  11.807   9.497
95588SOL    HW288539  10.000  11.945   9.491
95589SOL     OW88540  11.179   8.967  10.414
95589SOL    HW188541  11.250   8.902  10.417
95589SOL    HW288542  11.104   8.919  10.379
95590SOL     OW88543   3.171  11.540   5.515
95590SOL    HW188544   3.078  11.562   5.512
95590SOL    HW288545   3.174  11.459   5.566
95591SOL     OW88546  12.801   1.297   0.929
95591SOL    HW188547  12.877   1.291   0.987
95591SOL    HW288548  12.753   1.374   0.960
95592SOL     OW88549   6.861   9.855   7.785
95592SOL    HW188550   6.788   9.901   7.743
95592SOL    HW288551   6.922   9.925   7.809
95593SOL     OW88552   1.096  14.490   2.448
95593SOL    HW188553   1.183  14.469   2.482
95593SOL    HW288554   1.057  14.544   2.516
95594SOL     OW88555   5.676  12.860   7.911
95594SOL    HW188556   5.653  12.772   7.941
95594SOL    HW288557   5.673  12.913   7.991
95595SOL     OW88558   8.634   4.956   9.229
95595SOL    HW188559   8.616   4.863   9.243
95595SOL    HW288560   8.549   4.999   9.236
95596SOL     OW88561   4.989   9.647  14.842
95596SOL    HW188562   4.901   9.683  14.833
95596SOL    HW288563   5.034   9.674  14.762
95597SOL     OW88564  10.404   8.096  12.065
95597SOL    HW188565  10.444   8.119  11.981
95597SOL    HW288566  10.388   8.002  12.059
95598SOL     OW88567   6.697   3.546   2.405
95598SOL    HW188568   6.719   3.639   2.416
95598SOL    HW288569   6.640   3.544   2.328
95599SOL     OW88570  14.417   9.587   6.873
95599SOL    HW188571  14.507   9.610   6.849
95599SOL    HW288572  14.420   9.576   6.969
95600SOL     OW88573   4.864  12.332  12.849
95600SOL    HW188574   4.812  12.342  12.928
95600SOL    HW288575   4.803  12.298  12.784
95601SOL     OW88576   3.418   2.733  13.520
95601SOL    HW188577   3.503   2.690  13.534
95601SOL    HW288578   3.362   2.665  13.484
95602SOL     OW88579   3.362  12.135   7.159
95602SOL    HW188580   3.365  12.118   7.064
95602SOL    HW288581   3.336  12.052   7.198
95603SOL     OW88582   9.908  10.445   9.036
95603SOL    HW188583   9.866  10.519   8.992
95603SOL    HW288584   9.895  10.371   8.976
95604SOL     OW88585   1.206   1.461   9.061
95604SOL    HW188586   1.143   1.482   8.992
95604SOL    HW288587   1.197   1.533   9.124
95605SOL     OW88588   7.908   6.246   1.812
95605SOL    HW188589   7.943   6.162   1.840
95605SOL    HW288590   7.839   6.266   1.876
95606SOL     OW88591   9.418  14.044   1.140
95606SOL    HW188592   9.406  13.975   1.205
95606SOL    HW288593   9.403  14.126   1.188
95607SOL     OW88594   0.399   6.540   9.792
95607SOL    HW188595   0.479   6.506   9.751
95607SOL    HW288596   0.338   6.467   9.791
95608SOL     OW88597   4.946  11.266   5.974
95608SOL    HW188598   4.991  11.185   5.948
95608SOL    HW288599   5.004  11.336   5.944
95609SOL     OW88600   9.708   5.206   3.187
95609SOL    HW188601   9.786   5.258   3.170
95609SOL    HW288602   9.661   5.204   3.104
95610SOL     OW88603   4.857   9.311   4.944
95610SOL    HW188604   4.776   9.359   4.923
95610SOL    HW288605   4.869   9.249   4.872
95611SOL     OW88606   3.697   0.814  12.165
95611SOL    HW188607   3.780   0.786  12.203
95611SOL    HW288608   3.631   0.767  12.216
95612SOL     OW88609  10.041   6.887   9.982
95612SOL    HW188610  10.000   6.880   9.896
95612SOL    HW288611  10.112   6.823   9.980
95613SOL     OW88612   9.264   9.890   6.152
95613SOL    HW188613   9.187   9.888   6.094
95613SOL    HW288614   9.304   9.975   6.134
95614SOL     OW88615   9.195  14.705  11.409
95614SOL    HW188616   9.171  14.720  11.317
95614SOL    HW288617   9.146  14.627  11.434
95615SOL     OW88618  11.308   1.273   3.313
95615SOL    HW188619  11.356   1.301   3.235
95615SOL    HW288620  11.304   1.351   3.368
95616SOL     OW88621   8.609   5.586   4.930
95616SOL    HW188622   8.693   5.593   4.884
95616SOL    HW288623   8.600   5.492   4.948
95617SOL     OW88624   1.902   0.602   4.873
95617SOL    HW188625   1.807   0.594   4.881
95617SOL    HW288626   1.930   0.639   4.957
95618SOL     OW88627   5.763  10.287  13.755
95618SOL    HW188628   5.735  10.200  13.727
95618SOL    HW288629   5.827  10.271  13.824
95619SOL     OW88630  11.257  14.377   4.879
95619SOL    HW188631  11.280  14.405   4.791
95619SOL    HW288632  11.218  14.454   4.920
95620SOL     OW88633  10.389   3.100   9.204
95620SOL    HW188634  10.362   3.070   9.118
95620SOL    HW288635  10.377   3.024   9.261
95621SOL     OW88636  11.480   5.587  14.250
95621SOL    HW188637  11.448   5.513  14.303
95621SOL    HW288638  11.404   5.644  14.241
95622SOL     OW88639   5.657   6.473  13.464
95622SOL    HW188640   5.720   6.438  13.401
95622SOL    HW288641   5.710   6.508  13.535
95623SOL     OW88642   6.001   3.118   4.070
95623SOL    HW188643   5.959   3.046   4.118
95623SOL    HW288644   5.972   3.197   4.116
95624SOL     OW88645  12.916   1.930  11.245
95624SOL    HW188646  12.958   1.975  11.171
95624SOL    HW288647  12.945   1.979  11.322
95625SOL     OW88648  13.684   2.593   9.391
95625SOL    HW188649  13.700   2.675   9.437
95625SOL    HW288650  13.636   2.539   9.454
95626SOL     OW88651  12.680   7.552  11.370
95626SOL    HW188652  12.683   7.480  11.307
95626SOL    HW288653  12.730   7.623  11.329
95627SOL     OW88654   9.228   3.154   5.493
95627SOL    HW188655   9.159   3.112   5.546
95627SOL    HW288656   9.305   3.098   5.505
95628SOL     OW88657  12.927   4.217  14.278
95628SOL    HW188658  12.961   4.168  14.204
95628SOL    HW288659  12.833   4.226  14.260
95629SOL     OW88660  12.228   4.721   0.528
95629SOL    HW188661  12.169   4.645   0.528
95629SOL    HW288662  12.227   4.752   0.437
95630SOL     OW88663   6.371   5.561   2.148
95630SOL    HW188664   6.312   5.635   2.163
95630SOL    HW288665   6.456   5.600   2.131
95631SOL     OW88666  13.570   1.585   7.109
95631SOL    HW188667  13.651   1.568   7.060
95631SOL    HW288668  13.596   1.647   7.177
95632SOL     OW88669  13.097   6.075   1.159
95632SOL    HW188670  13.047   6.019   1.100
95632SOL    HW288671  13.046   6.155   1.165
95633SOL     OW88672   9.566   3.052   1.853
95633SOL    HW188673   9.492   3.102   1.819
95633SOL    HW288674   9.578   3.084   1.942
95634SOL     OW88675  10.387   2.448   0.890
95634SOL    HW188676  10.451   2.495   0.837
95634SOL    HW288677  10.425   2.360   0.901
95635SOL     OW88678   8.690   5.190   3.378
95635SOL    HW188679   8.781   5.167   3.358
95635SOL    HW288680   8.676   5.157   3.466
95636SOL     OW88681   3.607   1.866   6.574
95636SOL    HW188682   3.646   1.792   6.620
95636SOL    HW288683   3.658   1.942   6.603
95637SOL     OW88684   2.550  11.050   1.447
95637SOL    HW188685   2.599  10.999   1.383
95637SOL    HW288686   2.460  11.018   1.440
95638SOL     OW88687   3.304   8.447   1.119
95638SOL    HW188688   3.318   8.536   1.087
95638SOL    HW288689   3.239   8.456   1.189
95639SOL     OW88690  11.387  12.445   1.264
95639SOL    HW188691  11.335  12.490   1.331
95639SOL    HW288692  11.456  12.508   1.242
95640SOL     OW88693  13.982   6.145   7.335
95640SOL    HW188694  13.955   6.118   7.423
95640SOL    HW288695  14.042   6.218   7.349
95641SOL     OW88696  11.211   6.707   0.083
95641SOL    HW188697  11.146   6.700   0.152
95641SOL    HW288698  11.161   6.702   0.001
95642SOL     OW88699   6.381   6.860   0.653
95642SOL    HW188700   6.407   6.786   0.599
95642SOL    HW288701   6.382   6.935   0.594
95643SOL     OW88702   6.303   6.355   6.019
95643SOL    HW188703   6.385   6.330   5.976
95643SOL    HW288704   6.327   6.365   6.112
95644SOL     OW88705   7.880  13.606   6.500
95644SOL    HW188706   7.894  13.651   6.417
95644SOL    HW288707   7.802  13.646   6.537
95645SOL     OW88708  11.553   9.321   2.245
95645SOL    HW188709  11.464   9.287   2.239
95645SOL    HW288710  11.548   9.409   2.208
95646SOL     OW88711  10.299  14.835   1.916
95646SOL    HW188712  10.274   0.050   1.907
95646SOL    HW288713  10.215  14.789   1.923
95647SOL     OW88714   9.207   9.316  14.865
95647SOL    HW188715   9.227   9.279   0.073
95647SOL    HW288716   9.139   9.258  14.830
95648SOL     OW88717   6.319   2.112   3.701
95648SOL    HW188718   6.310   2.207   3.687
95648SOL    HW288719   6.340   2.077   3.615
95649SOL     OW88720   3.579  10.941   5.764
95649SOL    HW188721   3.648  10.989   5.810
95649SOL    HW288722   3.625  10.868   5.723
95650SOL     OW88723   1.982   2.459  12.991
95650SOL    HW188724   1.935   2.392  12.941
95650SOL    HW288725   2.072   2.427  12.995
95651SOL     OW88726  14.194   3.156   0.144
95651SOL    HW188727  14.289   3.169   0.137
95651SOL    HW288728  14.184   3.062   0.156
95652SOL     OW88729   3.053  11.525   1.511
95652SOL    HW188730   2.961  11.503   1.529
95652SOL    HW288731   3.084  11.567   1.591
95653SOL     OW88732   9.235   5.245  12.755
95653SOL    HW188733   9.226   5.290  12.671
95653SOL    HW288734   9.288   5.305  12.809
95654SOL     OW88735   9.321   6.468  13.736
95654SOL    HW188736   9.269   6.409  13.790
95654SOL    HW288737   9.305   6.555  13.772
95655SOL     OW88738   7.054  14.510  11.567
95655SOL    HW188739   7.002  14.507  11.486
95655SOL    HW288740   7.139  14.546  11.539
95656SOL     OW88741   0.992   6.537   4.399
95656SOL    HW188742   0.995   6.621   4.446
95656SOL    HW288743   0.899   6.520   4.386
95657SOL     OW88744   9.666   9.208   5.262
95657SOL    HW188745   9.594   9.193   5.201
95657SOL    HW288746   9.640   9.286   5.311
95658SOL     OW88747   0.101  13.319   5.885
95658SOL    HW188748   0.189  13.283   5.897
95658SOL    HW288749   0.073  13.287   5.799
95659SOL     OW88750   1.483   4.433   2.626
95659SOL    HW188751   1.480   4.460   2.718
95659SOL    HW288752   1.571   4.456   2.597
95660SOL     OW88753   6.974   2.599   7.931
95660SOL    HW188754   7.017   2.677   7.966
95660SOL    HW288755   7.019   2.583   7.848
95661SOL     OW88756   3.609  11.328   8.882
95661SOL    HW188757   3.668  11.256   8.860
95661SOL    HW288758   3.618  11.339   8.976
95662SOL     OW88759   3.171   7.475   4.838
95662SOL    HW188760   3.186   7.446   4.748
95662SOL    HW288761   3.250   7.448   4.885
95663SOL     OW88762  10.618  14.746   3.486
95663SOL    HW188763  10.705  14.757   3.525
95663SOL    HW288764  10.586  14.835   3.474
95664SOL     OW88765  13.504  11.514   5.013
95664SOL    HW188766  13.538  11.597   4.980
95664SOL    HW288767  13.575  11.477   5.065
95665SOL     OW88768  14.447  12.832   5.512
95665SOL    HW188769  14.398  12.766   5.463
95665SOL    HW288770  14.439  12.805   5.603
95666SOL     OW88771   3.411  13.792   4.365
95666SOL    HW188772   3.477  13.831   4.308
95666SOL    HW288773   3.426  13.833   4.450
95667SOL     OW88774  10.677   8.542   0.850
95667SOL    HW188775  10.707   8.469   0.905
95667SOL    HW288776  10.696   8.514   0.761
95668SOL     OW88777  10.746  14.682  12.671
95668SOL    HW188778  10.686  14.711  12.740
95668SOL    HW288779  10.802  14.617  12.715
95669SOL     OW88780  14.877  14.072  14.402
95669SOL    HW188781  14.843  13.983  14.391
95669SOL    HW288782   0.058  14.084  14.327
95670SOL     OW88783  11.237  11.503  12.620
95670SOL    HW188784  11.151  11.463  12.627
95670SOL    HW288785  11.288  11.442  12.566
95671SOL     OW88786  10.358  11.692   2.809
95671SOL    HW188787  10.434  11.663   2.759
95671SOL    HW288788  10.385  11.683   2.901
95672SOL     OW88789   4.584  10.511   7.284
95672SOL    HW188790   4.664  10.478   7.242
95672SOL    HW288791   4.541  10.563   7.217
95673SOL     OW88792  12.468  10.942  13.688
95673SOL    HW188793  12.432  10.915  13.772
95673SOL    HW288794  12.560  10.913  13.691
95674SOL     OW88795   1.884  10.579  12.339
95674SOL    HW188796   1.804  10.529  12.328
95674SOL    HW288797   1.936  10.529  12.402
95675SOL     OW88798   3.652   7.482   3.715
95675SOL    HW188799   3.653   7.455   3.807
95675SOL    HW288800   3.567   7.451   3.682
95676SOL     OW88801  13.618   4.155  11.446
95676SOL    HW188802  13.646   4.064  11.458
95676SOL    HW288803  13.649   4.178  11.358
95677SOL     OW88804   2.138  14.321  12.815
95677SOL    HW188805   2.060  14.335  12.760
95677SOL    HW288806   2.104  14.278  12.894
95678SOL     OW88807   4.744  13.815  14.669
95678SOL    HW188808   4.741  13.903  14.708
95678SOL    HW288809   4.738  13.755  14.743
95679SOL     OW88810  11.830   8.492   3.215
95679SOL    HW188811  11.875   8.508   3.131
95679SOL    HW288812  11.893   8.441   3.266
95680SOL     OW88813   6.041   8.136  13.794
95680SOL    HW188814   6.051   8.063  13.855
95680SOL    HW288815   6.026   8.212  13.851
95681SOL     OW88816   3.489  14.820   2.624
95681SOL    HW188817   3.424  14.862   2.568
95681SOL    HW288818   3.441  14.750   2.668
95682SOL     OW88819  14.016   8.420  12.622
95682SOL    HW188820  13.969   8.372  12.691
95682SOL    HW288821  13.947   8.448  12.562
95683SOL     OW88822   4.294  10.487   9.483
95683SOL    HW188823   4.224  10.503   9.546
95683SOL    HW288824   4.303  10.392   9.479
95684SOL     OW88825  13.620  11.405  12.424
95684SOL    HW188826  13.605  11.454  12.343
95684SOL    HW288827  13.652  11.471  12.486
95685SOL     OW88828  10.119  12.861   0.066
95685SOL    HW188829  10.099  12.818   0.149
95685SOL    HW288830  10.205  12.828   0.041
95686SOL     OW88831   9.555   8.285   9.820
95686SOL    HW188832   9.635   8.336   9.830
95686SOL    HW288833   9.500   8.337   9.761
95687SOL     OW88834  10.750  14.293  12.416
95687SOL    HW188835  10.826  14.237  12.396
95687SOL    HW288836  10.711  14.311  12.330
95688SOL     OW88837  11.067   8.905  12.918
95688SOL    HW188838  11.040   8.830  12.972
95688SOL    HW288839  11.148   8.935  12.958
95689SOL     OW88840   1.981   3.482  12.611
95689SOL    HW188841   1.988   3.387  12.602
95689SOL    HW288842   1.888   3.501  12.595
95690SOL     OW88843   8.399   1.970  10.624
95690SOL    HW188844   8.348   1.995  10.547
95690SOL    HW288845   8.397   1.874  10.624
95691SOL     OW88846  13.025   0.849   6.105
95691SOL    HW188847  12.974   0.827   6.183
95691SOL    HW288848  13.116   0.850   6.134
95692SOL     OW88849   7.665  13.705   6.647
95692SOL    HW188850   7.648  13.625   6.697
95692SOL    HW288851   7.589  13.760   6.662
95693SOL     OW88852  14.434   5.578   8.076
95693SOL    HW188853  14.443   5.549   8.167
95693SOL    HW288854  14.517   5.622   8.057
95694SOL     OW88855   8.635   8.248  11.222
95694SOL    HW188856   8.634   8.193  11.144
95694SOL    HW288857   8.647   8.187  11.294
95695SOL     OW88858   5.013  12.666   4.554
95695SOL    HW188859   5.029  12.585   4.603
95695SOL    HW288860   4.962  12.721   4.613
95696SOL     OW88861   1.923   5.390   8.290
95696SOL    HW188862   1.941   5.421   8.379
95696SOL    HW288863   1.861   5.318   8.302
95697SOL     OW88864  10.606   1.749   7.146
95697SOL    HW188865  10.529   1.767   7.200
95697SOL    HW288866  10.596   1.806   7.070
95698SOL     OW88867  11.686  14.024   1.624
95698SOL    HW188868  11.721  14.079   1.694
95698SOL    HW288869  11.726  14.058   1.544
95699SOL     OW88870  10.650   8.469   1.217
95699SOL    HW188871  10.664   8.413   1.293
95699SOL    HW288872  10.702   8.428   1.148
95700SOL     OW88873  11.969   9.762   5.544
95700SOL    HW188874  11.919   9.722   5.615
95700SOL    HW288875  12.061   9.742   5.565
95701SOL     OW88876  13.366   6.404  12.111
95701SOL    HW188877  13.455   6.375  12.131
95701SOL    HW288878  13.351   6.479  12.167
95702SOL     OW88879  10.015   8.070   6.768
95702SOL    HW188880  10.083   8.103   6.828
95702SOL    HW288881  10.020   8.128   6.692
95703SOL     OW88882  11.602   5.817   3.309
95703SOL    HW188883  11.517   5.851   3.280
95703SOL    HW288884  11.582   5.731   3.346
95704SOL     OW88885   8.825   7.594   6.625
95704SOL    HW188886   8.786   7.670   6.669
95704SOL    HW288887   8.874   7.549   6.693
95705SOL     OW88888  10.194  13.776   2.143
95705SOL    HW188889  10.159  13.770   2.054
95705SOL    HW288890  10.277  13.823   2.133
95706SOL     OW88891   3.063  12.152  11.417
95706SOL    HW188892   3.130  12.153  11.486
95706SOL    HW288893   2.984  12.186  11.459
95707SOL     OW88894   7.097   0.500   5.202
95707SOL    HW188895   7.017   0.456   5.172
95707SOL    HW288896   7.097   0.583   5.154
95708SOL     OW88897   9.064   3.743  13.338
95708SOL    HW188898   8.978   3.716  13.308
95708SOL    HW288899   9.107   3.662  13.366
95709SOL     OW88900   4.325  13.530  11.939
95709SOL    HW188901   4.267  13.535  12.014
95709SOL    HW288902   4.299  13.603  11.882
95710SOL     OW88903  13.410  14.770   1.624
95710SOL    HW188904  13.462  14.698   1.659
95710SOL    HW288905  13.327  14.765   1.671
95711SOL     OW88906  11.372  11.561   5.036
95711SOL    HW188907  11.404  11.471   5.026
95711SOL    HW288908  11.375  11.577   5.130
95712SOL     OW88909   5.590   8.654   9.035
95712SOL    HW188910   5.565   8.703   8.956
95712SOL    HW288911   5.607   8.722   9.101
95713SOL     OW88912   2.645   6.786   7.664
95713SOL    HW188913   2.615   6.877   7.666
95713SOL    HW288914   2.695   6.778   7.583
95714SOL     OW88915   7.982   3.469   6.437
95714SOL    HW188916   8.002   3.386   6.480
95714SOL    HW288917   8.038   3.532   6.481
95715SOL     OW88918  14.829   1.506   5.878
95715SOL    HW188919  14.836   1.422   5.833
95715SOL    HW288920  14.831   1.483   5.971
95716SOL     OW88921   2.540   8.670   5.698
95716SOL    HW188922   2.587   8.666   5.614
95716SOL    HW288923   2.492   8.753   5.695
95717SOL     OW88924   6.853  12.246   5.273
95717SOL    HW188925   6.875  12.338   5.260
95717SOL    HW288926   6.807  12.243   5.356
95718SOL     OW88927   7.335   4.174  11.547
95718SOL    HW188928   7.315   4.095  11.496
95718SOL    HW288929   7.368   4.236  11.482
95719SOL     OW88930  11.904   7.511   7.370
95719SOL    HW188931  11.901   7.581   7.435
95719SOL    HW288932  11.842   7.538   7.303
95720SOL     OW88933   5.150   1.026   7.492
95720SOL    HW188934   5.156   0.944   7.539
95720SOL    HW288935   5.111   1.087   7.555
95721SOL     OW88936  13.903  11.030   1.039
95721SOL    HW188937  13.969  11.075   1.091
95721SOL    HW288938  13.839  11.000   1.104
95722SOL     OW88939   7.753  12.852  10.067
95722SOL    HW188940   7.734  12.946  10.070
95722SOL    HW288941   7.847  12.846  10.079
95723SOL     OW88942   3.950  10.676  14.785
95723SOL    HW188943   3.970  10.766  14.810
95723SOL    HW288944   4.004  10.622  14.843
95724SOL     OW88945   7.029   2.535   6.512
95724SOL    HW188946   7.123   2.545   6.494
95724SOL    HW288947   6.998   2.625   6.527
95725SOL     OW88948   7.988   9.077  12.763
95725SOL    HW188949   7.933   9.004  12.789
95725SOL    HW288950   7.985   9.077  12.667
95726SOL     OW88951  14.164   0.489  12.828
95726SOL    HW188952  14.247   0.483  12.781
95726SOL    HW288953  14.117   0.561  12.786
95727SOL     OW88954   4.080  11.710  14.732
95727SOL    HW188955   4.073  11.791  14.682
95727SOL    HW288956   4.172  11.686  14.726
95728SOL     OW88957  12.707   8.056   7.424
95728SOL    HW188958  12.769   8.018   7.361
95728SOL    HW288959  12.705   8.149   7.401
95729SOL     OW88960   8.130   0.803   9.615
95729SOL    HW188961   8.124   0.887   9.568
95729SOL    HW288962   8.222   0.778   9.605
95730SOL     OW88963   4.879   3.534   6.497
95730SOL    HW188964   4.857   3.623   6.470
95730SOL    HW288965   4.941   3.545   6.569
95731SOL     OW88966  10.331   4.948   9.463
95731SOL    HW188967  10.413   4.900   9.454
95731SOL    HW288968  10.356   5.040   9.457
95732SOL     OW88969  11.336   3.584   4.489
95732SOL    HW188970  11.340   3.498   4.447
95732SOL    HW288971  11.275   3.573   4.562
95733SOL     OW88972   9.226   8.573   2.340
95733SOL    HW188973   9.257   8.625   2.266
95733SOL    HW288974   9.303   8.524   2.368
95734SOL     OW88975   8.587  13.645   5.223
95734SOL    HW188976   8.677  13.665   5.197
95734SOL    HW288977   8.586  13.549   5.234
95735SOL     OW88978   7.944   1.418   3.329
95735SOL    HW188979   7.897   1.344   3.293
95735SOL    HW288980   8.008   1.442   3.261
95736SOL     OW88981  10.786   0.446   6.452
95736SOL    HW188982  10.720   0.460   6.385
95736SOL    HW288983  10.870   0.458   6.406
95737SOL     OW88984  13.921   3.468   7.874
95737SOL    HW188985  13.877   3.494   7.955
95737SOL    HW288986  13.904   3.374   7.867
95738SOL     OW88987  14.771   8.546   8.073
95738SOL    HW188988  14.824   8.484   8.123
95738SOL    HW288989  14.694   8.562   8.128
95739SOL     OW88990  13.386  11.561   6.930
95739SOL    HW188991  13.343  11.478   6.948
95739SOL    HW288992  13.413  11.594   7.015
95740SOL     OW88993   9.270  12.488  14.738
95740SOL    HW188994   9.181  12.509  14.767
95740SOL    HW288995   9.310  12.446  14.814
95741SOL     OW88996   4.470   4.600  14.440
95741SOL    HW188997   4.463   4.596  14.345
95741SOL    HW288998   4.382   4.625  14.469
95742SOL     OW88999  11.510   6.648   8.985
95742SOL    HW189000  11.446   6.692   8.929
95742SOL    HW289001  11.503   6.693   9.069
95743SOL     OW89002   8.094   4.133  12.517
95743SOL    HW189003   8.085   4.070  12.588
95743SOL    HW289004   8.169   4.187  12.542
95744SOL     OW89005   1.508  10.251   7.043
95744SOL    HW189006   1.435  10.225   7.099
95744SOL    HW289007   1.508  10.187   6.972
95745SOL     OW89008   2.851  12.811   9.790
95745SOL    HW189009   2.869  12.789   9.698
95745SOL    HW289010   2.816  12.900   9.786
95746SOL     OW89011  13.035   5.197   0.723
95746SOL    HW189012  13.095   5.262   0.686
95746SOL    HW289013  12.950   5.240   0.720
95747SOL     OW89014  12.995   3.662   7.297
95747SOL    HW189015  13.054   3.723   7.253
95747SOL    HW289016  12.913   3.666   7.246
95748SOL     OW89017   7.534   7.255  14.114
95748SOL    HW189018   7.501   7.303  14.190
95748SOL    HW289019   7.457   7.212  14.077
95749SOL     OW89020   5.921   7.726   8.986
95749SOL    HW189021   5.855   7.689   8.928
95749SOL    HW289022   5.900   7.819   8.989
95750SOL     OW89023   3.371  13.528   2.240
95750SOL    HW189024   3.445  13.565   2.289
95750SOL    HW289025   3.297  13.534   2.300
95751SOL     OW89026   8.553   8.508   6.470
95751SOL    HW189027   8.468   8.470   6.445
95751SOL    HW289028   8.605   8.434   6.500
95752SOL     OW89029   0.227  12.850  10.412
95752SOL    HW189030   0.190  12.934  10.383
95752SOL    HW289031   0.265  12.811  10.333
95753SOL     OW89032   4.416   0.497  12.697
95753SOL    HW189033   4.420   0.478  12.604
95753SOL    HW289034   4.423   0.593  12.702
95754SOL     OW89035   0.691   5.157   5.741
95754SOL    HW189036   0.730   5.071   5.757
95754SOL    HW289037   0.766   5.217   5.739
95755SOL     OW89038  14.306   6.387  10.000
95755SOL    HW189039  14.298   6.296  10.028
95755SOL    HW289040  14.315   6.437  10.081
95756SOL     OW89041   2.151   4.350  11.943
95756SOL    HW189042   2.058   4.329  11.943
95756SOL    HW289043   2.194   4.267  11.966
95757SOL     OW89044   4.278   1.811   8.114
95757SOL    HW189045   4.314   1.764   8.038
95757SOL    HW289046   4.240   1.890   8.078
95758SOL     OW89047   4.713   2.001   1.227
95758SOL    HW189048   4.679   1.949   1.300
95758SOL    HW289049   4.742   2.082   1.268
95759SOL     OW89050   7.250  13.973  10.549
95759SOL    HW189051   7.274  13.938  10.463
95759SOL    HW289052   7.332  14.010  10.583
95760SOL     OW89053   1.598   3.174   8.220
95760SOL    HW189054   1.531   3.241   8.231
95760SOL    HW289055   1.572   3.126   8.141
95761SOL     OW89056   0.778  14.793   1.704
95761SOL    HW189057   0.770  14.731   1.632
95761SOL    HW289058   0.741  14.874   1.670
95762SOL     OW89059   9.265   6.145   5.610
95762SOL    HW189060   9.277   6.177   5.521
95762SOL    HW289061   9.354   6.137   5.645
95763SOL     OW89062   3.254   5.316  14.661
95763SOL    HW189063   3.330   5.368  14.635
95763SOL    HW289064   3.202   5.375  14.716
95764SOL     OW89065   0.589   5.720   4.481
95764SOL    HW189066   0.573   5.783   4.411
95764SOL    HW289067   0.537   5.752   4.555
95765SOL     OW89068  10.732   4.214  11.875
95765SOL    HW189069  10.662   4.270  11.907
95765SOL    HW289070  10.789   4.201  11.950
95766SOL     OW89071   8.337   4.256   9.595
95766SOL    HW189072   8.405   4.316   9.627
95766SOL    HW289073   8.323   4.282   9.504
95767SOL     OW89074   9.763   8.159   3.361
95767SOL    HW189075   9.678   8.151   3.317
95767SOL    HW289076   9.777   8.074   3.402
95768SOL     OW89077   4.536   9.608   3.389
95768SOL    HW189078   4.626   9.639   3.385
95768SOL    HW289079   4.538   9.522   3.347
95769SOL     OW89080   3.184   5.643   2.931
95769SOL    HW189081   3.270   5.684   2.937
95769SOL    HW289082   3.170   5.628   2.838
95770SOL     OW89083   2.145   5.531   5.871
95770SOL    HW189084   2.157   5.616   5.828
95770SOL    HW289085   2.175   5.467   5.806
95771SOL     OW89086  13.263  10.393   4.527
95771SOL    HW189087  13.291  10.329   4.461
95771SOL    HW289088  13.342  10.442   4.548
95772SOL     OW89089  10.976  11.193  10.671
95772SOL    HW189090  10.903  11.170  10.728
95772SOL    HW289091  11.051  11.202  10.729
95773SOL     OW89092  14.219  13.939  12.295
95773SOL    HW189093  14.213  13.852  12.256
95773SOL    HW289094  14.274  13.928  12.372
95774SOL     OW89095  14.304   0.938   6.035
95774SOL    HW189096  14.287   0.877   6.107
95774SOL    HW289097  14.400   0.943   6.031
95775SOL     OW89098   2.361   3.099   6.866
95775SOL    HW189099   2.386   3.042   6.939
95775SOL    HW289100   2.424   3.077   6.796
95776SOL     OW89101   9.257  11.262   0.120
95776SOL    HW189102   9.211  11.190   0.162
95776SOL    HW289103   9.194  11.333   0.118
95777SOL     OW89104   3.946   8.668   3.516
95777SOL    HW189105   4.024   8.716   3.488
95777SOL    HW289106   3.873   8.728   3.502
95778SOL     OW89107   9.393   8.916  11.067
95778SOL    HW189108   9.472   8.862  11.061
95778SOL    HW289109   9.324   8.856  11.094
95779SOL     OW89110  13.077   3.094   6.796
95779SOL    HW189111  13.082   3.014   6.745
95779SOL    HW289112  13.116   3.161   6.740
95780SOL     OW89113  10.169   3.136   8.865
95780SOL    HW189114  10.263   3.118   8.862
95780SOL    HW289115  10.128   3.050   8.854
95781SOL     OW89116   4.280   1.577   8.856
95781SOL    HW189117   4.317   1.602   8.772
95781SOL    HW289118   4.342   1.513   8.892
95782SOL     OW89119  12.244   0.727   1.462
95782SOL    HW189120  12.254   0.632   1.448
95782SOL    HW289121  12.214   0.735   1.552
95783SOL     OW89122  13.663  11.934  14.024
95783SOL    HW189123  13.714  11.918  13.944
95783SOL    HW289124  13.583  11.884  14.012
95784SOL     OW89125   3.826  11.624   8.796
95784SOL    HW189126   3.752  11.591   8.847
95784SOL    HW289127   3.828  11.568   8.719
95785SOL     OW89128   8.208  10.409   2.320
95785SOL    HW189129   8.158  10.327   2.317
95785SOL    HW289130   8.143  10.476   2.340
95786SOL     OW89131   9.760   8.176  11.122
95786SOL    HW189132   9.741   8.266  11.095
95786SOL    HW289133   9.839   8.183  11.176
95787SOL     OW89134   2.095   6.119   3.519
95787SOL    HW189135   2.015   6.134   3.569
95787SOL    HW289136   2.157   6.183   3.554
95788SOL     OW89137   8.037   0.987   9.456
95788SOL    HW189138   8.009   1.074   9.483
95788SOL    HW289139   8.072   0.999   9.368
95789SOL     OW89140   3.917   0.434   1.556
95789SOL    HW189141   3.852   0.498   1.583
95789SOL    HW289142   3.979   0.484   1.502
95790SOL     OW89143   2.662  13.752  10.037
95790SOL    HW189144   2.591  13.706  10.081
95790SOL    HW289145   2.624  13.835  10.008
95791SOL     OW89146   2.921   5.791   3.068
95791SOL    HW189147   2.991   5.740   3.027
95791SOL    HW289148   2.873   5.727   3.121
95792SOL     OW89149   8.059  12.671  13.749
95792SOL    HW189150   8.153  12.651  13.758
95792SOL    HW289151   8.015  12.605  13.803
95793SOL     OW89152  12.002   9.920  14.801
95793SOL    HW189153  11.959   9.904   0.007
95793SOL    HW289154  12.042   9.836  14.778
95794SOL     OW89155   0.683   3.705   6.350
95794SOL    HW189156   0.674   3.673   6.261
95794SOL    HW289157   0.703   3.627   6.402
95795SOL     OW89158  14.202  10.932   5.156
95795SOL    HW189159  14.285  10.937   5.108
95795SOL    HW289160  14.174  10.841   5.147
95796SOL     OW89161  12.004  11.150   8.007
95796SOL    HW189162  12.096  11.161   8.033
95796SOL    HW289163  12.007  11.132   7.913
95797SOL     OW89164  10.494   9.896   9.906
95797SOL    HW189165  10.473   9.861   9.820
95797SOL    HW289166  10.517   9.820   9.958
95798SOL     OW89167   8.365  10.141   0.744
95798SOL    HW189168   8.381  10.154   0.651
95798SOL    HW289169   8.272  10.159   0.756
95799SOL     OW89170   7.659   4.827   0.063
95799SOL    HW189171   7.593   4.775   0.017
95799SOL    HW289172   7.658   4.793   0.152
95800SOL     OW89173   1.685  10.938  10.809
95800SOL    HW189174   1.725  11.022  10.833
95800SOL    HW289175   1.744  10.872  10.846
95801SOL     OW89176  12.380   4.972   8.886
95801SOL    HW189177  12.473   4.994   8.892
95801SOL    HW289178  12.371   4.928   8.802
95802SOL     OW89179  14.365   5.047  12.744
95802SOL    HW189180  14.348   5.022  12.653
95802SOL    HW289181  14.314   5.128  12.757
95803SOL     OW89182   4.743  11.988  14.094
95803SOL    HW189183   4.675  12.052  14.114
95803SOL    HW289184   4.696  11.913  14.059
95804SOL     OW89185  13.021   2.666   6.917
95804SOL    HW189186  13.100   2.700   6.960
95804SOL    HW289187  13.051   2.589   6.869
95805SOL     OW89188  12.034   8.070   7.762
95805SOL    HW189189  12.032   8.156   7.803
95805SOL    HW289190  11.949   8.062   7.718
95806SOL     OW89191   4.285   1.643   9.135
95806SOL    HW189192   4.224   1.695   9.082
95806SOL    HW289193   4.366   1.644   9.084
95807SOL     OW89194   3.413   1.563   2.060
95807SOL    HW189195   3.487   1.582   2.003
95807SOL    HW289196   3.436   1.481   2.104
95808SOL     OW89197   3.414   4.860   9.799
95808SOL    HW189198   3.447   4.857   9.889
95808SOL    HW289199   3.483   4.904   9.750
95809SOL     OW89200  13.161   4.757  11.191
95809SOL    HW189201  13.074   4.769  11.154
95809SOL    HW289202  13.145   4.740  11.284
95810SOL     OW89203  10.871  14.395   2.826
95810SOL    HW189204  10.836  14.471   2.778
95810SOL    HW289205  10.907  14.432   2.906
95811SOL     OW89206   6.817   6.594   2.638
95811SOL    HW189207   6.792   6.655   2.568
95811SOL    HW289208   6.751   6.607   2.706
95812SOL     OW89209  13.466   4.230  13.979
95812SOL    HW189210  13.517   4.274  13.911
95812SOL    HW289211  13.383   4.209  13.937
95813SOL     OW89212   4.715   4.083  14.551
95813SOL    HW189213   4.749   4.006  14.597
95813SOL    HW289214   4.759   4.082  14.466
95814SOL     OW89215   1.511  13.808   6.623
95814SOL    HW189216   1.590  13.852   6.591
95814SOL    HW289217   1.457  13.798   6.545
95815SOL     OW89218  12.354   9.460   9.155
95815SOL    HW189219  12.267   9.423   9.143
95815SOL    HW289220  12.339   9.541   9.205
95816SOL     OW89221   8.297   7.159  13.921
95816SOL    HW189222   8.263   7.107  13.848
95816SOL    HW289223   8.353   7.098  13.969
95817SOL     OW89224  13.900  10.481  13.112
95817SOL    HW189225  13.862  10.424  13.045
95817SOL    HW289226  13.991  10.454  13.118
95818SOL     OW89227  12.088   4.530  13.832
95818SOL    HW189228  12.051   4.588  13.899
95818SOL    HW289229  12.013   4.503  13.779
95819SOL     OW89230  11.913   6.094   8.421
95819SOL    HW189231  11.924   6.051   8.506
95819SOL    HW289232  11.940   6.028   8.358
95820SOL     OW89233  11.753   7.903   4.387
95820SOL    HW189234  11.705   7.983   4.366
95820SOL    HW289235  11.800   7.924   4.468
95821SOL     OW89236   5.701   7.922   8.920
95821SOL    HW189237   5.655   7.910   9.003
95821SOL    HW289238   5.646   7.984   8.871
95822SOL     OW89239   9.456  12.969   4.994
95822SOL    HW189240   9.444  13.004   5.083
95822SOL    HW289241   9.426  12.878   5.000
95823SOL     OW89242  13.187   4.528   3.901
95823SOL    HW189243  13.271   4.511   3.941
95823SOL    HW289244  13.138   4.446   3.910
95824SOL     OW89245   3.469   4.465  13.051
95824SOL    HW189246   3.450   4.403  13.122
95824SOL    HW289247   3.391   4.463  12.996
95825SOL     OW89248   0.114   8.818  14.736
95825SOL    HW189249   0.028   8.823  14.778
95825SOL    HW289250   0.105   8.747  14.671
95826SOL     OW89251   8.240  11.606   7.830
95826SOL    HW189252   8.163  11.587   7.885
95826SOL    HW289253   8.304  11.642   7.891
95827SOL     OW89254   2.544   9.770  10.022
95827SOL    HW189255   2.571   9.708  10.090
95827SOL    HW289256   2.590   9.742   9.944
95828SOL     OW89257   3.970   5.667   8.612
95828SOL    HW189258   4.036   5.638   8.675
95828SOL    HW289259   3.953   5.758   8.636
95829SOL     OW89260   4.757   0.284   9.770
95829SOL    HW189261   4.691   0.352   9.753
95829SOL    HW289262   4.839   0.332   9.779
95830SOL     OW89263  10.747   8.268   2.092
95830SOL    HW189264  10.663   8.281   2.136
95830SOL    HW289265  10.725   8.234   2.006
95831SOL     OW89266  10.988   6.375   4.260
95831SOL    HW189267  11.082   6.382   4.277
95831SOL    HW289268  10.960   6.464   4.238
95832SOL     OW89269  10.846  11.164  13.694
95832SOL    HW189270  10.772  11.188  13.638
95832SOL    HW289271  10.879  11.083  13.655
95833SOL     OW89272  11.306   6.727   5.632
95833SOL    HW189273  11.346   6.694   5.551
95833SOL    HW289274  11.235   6.784   5.602
95834SOL     OW89275   7.236   2.109  11.720
95834SOL    HW189276   7.186   2.139  11.644
95834SOL    HW289277   7.269   2.023  11.694
95835SOL     OW89278  14.855  12.745   8.642
95835SOL    HW189279  14.846  12.826   8.591
95835SOL    HW289280  14.853  12.675   8.577
95836SOL     OW89281   0.420  13.506   6.297
95836SOL    HW189282   0.395  13.438   6.234
95836SOL    HW289283   0.447  13.458   6.375
95837SOL     OW89284  13.538   0.912   0.872
95837SOL    HW189285  13.534   0.881   0.963
95837SOL    HW289286  13.626   0.887   0.843
95838SOL     OW89287  11.360  11.413   8.382
95838SOL    HW189288  11.411  11.480   8.428
95838SOL    HW289289  11.289  11.392   8.443
95839SOL     OW89290   9.498   5.675   7.791
95839SOL    HW189291   9.445   5.702   7.716
95839SOL    HW289292   9.563   5.745   7.800
95840SOL     OW89293   9.828   1.115   6.452
95840SOL    HW189294   9.756   1.142   6.510
95840SOL    HW289295   9.903   1.167   6.480
95841SOL     OW89296   3.590   5.367  12.782
95841SOL    HW189297   3.658   5.317  12.736
95841SOL    HW289298   3.564   5.435  12.721
95842SOL     OW89299   4.404   0.125   7.048
95842SOL    HW189300   4.328   0.138   6.992
95842SOL    HW289301   4.408   0.030   7.061
95843SOL     OW89302   1.895  11.165   2.120
95843SOL    HW189303   1.801  11.160   2.138
95843SOL    HW289304   1.936  11.166   2.206
95844SOL     OW89305  10.832   2.336  10.315
95844SOL    HW189306  10.794   2.284  10.244
95844SOL    HW289307  10.925   2.343  10.292
95845SOL     OW89308  11.668   3.813   5.743
95845SOL    HW189309  11.735   3.798   5.810
95845SOL    HW289310  11.587   3.825   5.792
95846SOL     OW89311   1.776  11.084   2.527
95846SOL    HW189312   1.815  11.005   2.564
95846SOL    HW289313   1.839  11.113   2.461
95847SOL     OW89314   6.107   0.085   2.907
95847SOL    HW189315   6.196   0.051   2.895
95847SOL    HW289316   6.058   0.012   2.945
95848SOL     OW89317   6.972   9.874   9.541
95848SOL    HW189318   6.913   9.948   9.559
95848SOL    HW289319   7.018   9.900   9.461
95849SOL     OW89320   2.029   2.629   7.639
95849SOL    HW189321   1.936   2.626   7.660
95849SOL    HW289322   2.041   2.713   7.595
95850SOL     OW89323   5.053   9.648   9.040
95850SOL    HW189324   5.108   9.687   8.971
95850SOL    HW289325   4.965   9.681   9.022
95851SOL     OW89326   0.191   7.468   0.862
95851SOL    HW189327   0.234   7.530   0.921
95851SOL    HW289328   0.175   7.391   0.916
95852SOL     OW89329   9.453   8.766  12.417
95852SOL    HW189330   9.445   8.733  12.327
95852SOL    HW289331   9.537   8.813  12.417
95853SOL     OW89332   1.514  13.590   9.454
95853SOL    HW189333   1.518  13.562   9.545
95853SOL    HW289334   1.501  13.509   9.404
95854SOL     OW89335   5.989   1.407  13.761
95854SOL    HW189336   5.974   1.358  13.842
95854SOL    HW289337   5.907   1.400  13.714
95855SOL     OW89338   7.143  10.009   9.399
95855SOL    HW189339   7.153  10.069   9.473
95855SOL    HW289340   7.215  10.031   9.341
95856SOL     OW89341   0.868  13.827   9.464
95856SOL    HW189342   0.797  13.877   9.423
95856SOL    HW289343   0.935  13.819   9.396
95857SOL     OW89344   1.193  14.764   4.447
95857SOL    HW189345   1.176  14.677   4.483
95857SOL    HW289346   1.110  14.789   4.405
95858SOL     OW89347   4.235   6.005   3.911
95858SOL    HW189348   4.237   5.909   3.907
95858SOL    HW289349   4.323   6.032   3.887
95859SOL     OW89350  11.913   2.931   1.653
95859SOL    HW189351  11.936   3.020   1.681
95859SOL    HW289352  11.845   2.944   1.587
95860SOL     OW89353  14.323   5.968   4.560
95860SOL    HW189354  14.410   5.928   4.570
95860SOL    HW289355  14.262   5.897   4.577
95861SOL     OW89356   3.278   8.208   7.226
95861SOL    HW189357   3.254   8.209   7.134
95861SOL    HW289358   3.205   8.250   7.271
95862SOL     OW89359   7.091   6.085   3.175
95862SOL    HW189360   7.071   6.059   3.085
95862SOL    HW289361   7.090   6.004   3.225
95863SOL     OW89362  11.177  13.463  10.539
95863SOL    HW189363  11.206  13.514  10.464
95863SOL    HW289364  11.215  13.508  10.615
95864SOL     OW89365   4.592   8.181   8.466
95864SOL    HW189366   4.563   8.096   8.435
95864SOL    HW289367   4.521   8.241   8.441
95865SOL     OW89368  13.578   4.492  12.767
95865SOL    HW189369  13.645   4.561  12.764
95865SOL    HW289370  13.495   4.539  12.768
95866SOL     OW89371   7.099   3.712   2.649
95866SOL    HW189372   7.049   3.659   2.712
95866SOL    HW289373   7.187   3.716   2.686
95867SOL     OW89374  13.136   4.245   7.444
95867SOL    HW189375  13.083   4.253   7.365
95867SOL    HW289376  13.104   4.164   7.485
95868SOL     OW89377   4.815   8.044   4.516
95868SOL    HW189378   4.850   8.121   4.471
95868SOL    HW289379   4.806   8.072   4.607
95869SOL     OW89380  13.171   8.302   4.003
95869SOL    HW189381  13.265   8.319   3.997
95869SOL    HW289382  13.161   8.257   4.087
95870SOL     OW89383  13.516  12.875   0.404
95870SOL    HW189384  13.484  12.802   0.457
95870SOL    HW289385  13.437  12.924   0.380
95871SOL     OW89386   4.611  12.301   6.806
95871SOL    HW189387   4.664  12.338   6.877
95871SOL    HW289388   4.608  12.207   6.826
95872SOL     OW89389   4.296   9.455   2.263
95872SOL    HW189390   4.243   9.376   2.256
95872SOL    HW289391   4.300   9.489   2.174
95873SOL     OW89392   8.731   7.882   6.324
95873SOL    HW189393   8.753   7.947   6.391
95873SOL    HW289394   8.793   7.811   6.339
95874SOL     OW89395   3.978  12.674  14.511
95874SOL    HW189396   3.997  12.712  14.597
95874SOL    HW289397   4.032  12.724  14.451
95875SOL     OW89398   9.109  12.377  10.605
95875SOL    HW189399   9.108  12.291  10.562
95875SOL    HW289400   9.202  12.396  10.617
95876SOL     OW89401  12.938   1.789  14.190
95876SOL    HW189402  12.951   1.884  14.187
95876SOL    HW289403  12.844   1.778  14.199
95877SOL     OW89404  11.003   8.505   9.659
95877SOL    HW189405  11.034   8.467   9.740
95877SOL    HW289406  11.015   8.600   9.671
95878SOL     OW89407  10.515  14.731   8.909
95878SOL    HW189408  10.428  14.700   8.933
95878SOL    HW289409  10.507  14.826   8.907
95879SOL     OW89410   8.043   8.314   5.699
95879SOL    HW189411   8.084   8.266   5.771
95879SOL    HW289412   8.075   8.404   5.709
95880SOL     OW89413   2.384  14.756  13.264
95880SOL    HW189414   2.346  14.844  13.274
95880SOL    HW289415   2.307  14.699  13.255
95881SOL     OW89416  10.207  11.253   5.433
95881SOL    HW189417  10.267  11.210   5.494
95881SOL    HW289418  10.216  11.203   5.352
95882SOL     OW89419  14.841   1.625   3.631
95882SOL    HW189420   0.021   1.572   3.686
95882SOL    HW289421  14.851   1.714   3.664
95883SOL     OW89422  12.887   0.224  10.744
95883SOL    HW189423  12.874   0.164  10.817
95883SOL    HW289424  12.822   0.198  10.679
95884SOL     OW89425   2.340  12.634   1.124
95884SOL    HW189426   2.416  12.689   1.141
95884SOL    HW289427   2.266  12.683   1.161
95885SOL     OW89428   5.986  10.020   6.165
95885SOL    HW189429   6.049   9.948   6.162
95885SOL    HW289430   6.040  10.099   6.162
95886SOL     OW89431   2.898  10.763  12.755
95886SOL    HW189432   2.977  10.767  12.809
95886SOL    HW289433   2.828  10.795  12.813
95887SOL     OW89434   7.259  12.169   1.463
95887SOL    HW189435   7.260  12.089   1.410
95887SOL    HW289436   7.348  12.203   1.457
95888SOL     OW89437   3.272  13.110   4.179
95888SOL    HW189438   3.243  13.147   4.262
95888SOL    HW289439   3.308  13.185   4.131
95889SOL     OW89440   2.747   0.505   3.691
95889SOL    HW189441   2.749   0.453   3.772
95889SOL    HW289442   2.811   0.575   3.705
95890SOL     OW89443  13.335   6.701   9.593
95890SOL    HW189444  13.324   6.704   9.688
95890SOL    HW289445  13.247   6.718   9.558
95891SOL     OW89446   8.994   1.143  13.162
95891SOL    HW189447   8.908   1.173  13.133
95891SOL    HW289448   9.047   1.142  13.083
95892SOL     OW89449   6.648  12.291  10.233
95892SOL    HW189450   6.682  12.281  10.322
95892SOL    HW289451   6.721  12.267  10.177
95893SOL     OW89452   5.282  12.825   4.608
95893SOL    HW189453   5.340  12.829   4.532
95893SOL    HW289454   5.199  12.860   4.576
95894SOL     OW89455   9.390   9.595  14.401
95894SOL    HW189456   9.360   9.677  14.439
95894SOL    HW289457   9.481   9.588  14.428
95895SOL     OW89458   4.640  10.805   6.366
95895SOL    HW189459   4.623  10.716   6.336
95895SOL    HW289460   4.691  10.845   6.296
95896SOL     OW89461   3.953   4.453   0.450
95896SOL    HW189462   3.922   4.412   0.369
95896SOL    HW289463   4.030   4.503   0.423
95897SOL     OW89464   3.988  10.524   9.670
95897SOL    HW189465   4.069  10.554   9.710
95897SOL    HW289466   4.004  10.433   9.647
95898SOL     OW89467   7.637  13.660   6.277
95898SOL    HW189468   7.703  13.728   6.270
95898SOL    HW289469   7.685  13.578   6.264
95899SOL     OW89470   0.516  14.582   4.830
95899SOL    HW189471   0.421  14.585   4.818
95899SOL    HW289472   0.548  14.661   4.786
95900SOL     OW89473   0.753  14.088   2.858
95900SOL    HW189474   0.684  14.026   2.833
95900SOL    HW289475   0.820  14.033   2.899
95901SOL     OW89476  12.472   4.136   9.840
95901SOL    HW189477  12.528   4.060   9.853
95901SOL    HW289478  12.508   4.180   9.763
95902SOL     OW89479   1.506   9.778  11.538
95902SOL    HW189480   1.559   9.850  11.503
95902SOL    HW289481   1.421   9.817  11.557
95903SOL     OW89482   8.190   8.240   6.683
95903SOL    HW189483   8.263   8.296   6.711
95903SOL    HW289484   8.141   8.294   6.621
95904SOL     OW89485   9.470  12.951  13.724
95904SOL    HW189486   9.516  12.905  13.654
95904SOL    HW289487   9.408  13.008  13.678
95905SOL     OW89488   2.996  13.579  13.410
95905SOL    HW189489   3.074  13.603  13.459
95905SOL    HW289490   2.924  13.620  13.457
95906SOL     OW89491   2.914   8.376   0.088
95906SOL    HW189492   2.958   8.459   0.074
95906SOL    HW289493   2.837   8.397   0.141
95907SOL     OW89494   9.300   3.864  10.256
95907SOL    HW189495   9.229   3.869  10.320
95907SOL    HW289496   9.273   3.794  10.196
95908SOL     OW89497   7.974   2.853   8.102
95908SOL    HW189498   7.886   2.888   8.116
95908SOL    HW289499   8.019   2.922   8.053
95909SOL     OW89500  10.492   0.612   8.897
95909SOL    HW189501  10.508   0.670   8.822
95909SOL    HW289502  10.575   0.611   8.945
95910SOL     OW89503  12.096   3.700   9.457
95910SOL    HW189504  12.053   3.777   9.494
95910SOL    HW289505  12.095   3.714   9.363
95911SOL     OW89506  13.562  12.273   9.783
95911SOL    HW189507  13.646  12.240   9.750
95911SOL    HW289508  13.587  12.340   9.846
95912SOL     OW89509   5.406   3.692   4.862
95912SOL    HW189510   5.373   3.775   4.896
95912SOL    HW289511   5.329   3.636   4.855
95913SOL     OW89512  11.892   5.366  14.668
95913SOL    HW189513  11.934   5.287  14.635
95913SOL    HW289514  11.806   5.337  14.697
95914SOL     OW89515   4.821   7.115   9.330
95914SOL    HW189516   4.819   7.118   9.426
95914SOL    HW289517   4.863   7.197   9.305
95915SOL     OW89518  13.296  10.935  10.973
95915SOL    HW189519  13.347  11.016  10.965
95915SOL    HW289520  13.206  10.961  10.955
95916SOL     OW89521   4.053  14.033   9.976
95916SOL    HW189522   4.111  14.096   9.934
95916SOL    HW289523   4.011  13.987   9.903
95917SOL     OW89524  12.020  14.118   2.366
95917SOL    HW189525  12.065  14.200   2.388
95917SOL    HW289526  12.083  14.070   2.312
95918SOL     OW89527   4.541  10.150   7.178
95918SOL    HW189528   4.503  10.080   7.125
95918SOL    HW289529   4.605  10.192   7.120
95919SOL     OW89530  14.506   8.124   3.702
95919SOL    HW189531  14.437   8.059   3.714
95919SOL    HW289532  14.539   8.108   3.614
95920SOL     OW89533  13.854  10.634   0.710
95920SOL    HW189534  13.849  10.616   0.616
95920SOL    HW289535  13.852  10.729   0.717
95921SOL     OW89536   9.616   5.259  12.128
95921SOL    HW189537   9.570   5.184  12.166
95921SOL    HW289538   9.693   5.221  12.086
95922SOL     OW89539   9.679   2.937   9.706
95922SOL    HW189540   9.749   2.931   9.641
95922SOL    HW289541   9.601   2.906   9.660
95923SOL     OW89542  12.048  14.512   3.693
95923SOL    HW189543  12.137  14.528   3.662
95923SOL    HW289544  12.032  14.420   3.673
95924SOL     OW89545   5.044   7.909   1.881
95924SOL    HW189546   4.981   7.926   1.951
95924SOL    HW289547   5.077   7.821   1.899
95925SOL     OW89548   8.347   1.883   6.746
95925SOL    HW189549   8.332   1.903   6.839
95925SOL    HW289550   8.440   1.902   6.732
95926SOL     OW89551   9.804   0.303   2.047
95926SOL    HW189552   9.859   0.284   2.123
95926SOL    HW289553   9.714   0.287   2.077
95927SOL     OW89554   7.158   5.754   3.627
95927SOL    HW189555   7.234   5.763   3.684
95927SOL    HW289556   7.086   5.793   3.677
95928SOL     OW89557   1.403   7.425   0.838
95928SOL    HW189558   1.497   7.412   0.830
95928SOL    HW289559   1.393   7.496   0.902
95929SOL     OW89560   7.040   5.812   2.761
95929SOL    HW189561   7.014   5.867   2.686
95929SOL    HW289562   7.092   5.742   2.722
95930SOL     OW89563   6.543  10.748   5.488
95930SOL    HW189564   6.601  10.674   5.471
95930SOL    HW289565   6.471  10.737   5.425
95931SOL     OW89566   7.348  12.796   0.932
95931SOL    HW189567   7.316  12.879   0.966
95931SOL    HW289568   7.314  12.791   0.843
95932SOL     OW89569   6.448   8.596   4.152
95932SOL    HW189570   6.407   8.680   4.128
95932SOL    HW289571   6.378   8.531   4.139
95933SOL     OW89572  14.437   1.632  11.248
95933SOL    HW189573  14.477   1.604  11.166
95933SOL    HW289574  14.399   1.553  11.285
95934SOL     OW89575   9.851  13.020  14.585
95934SOL    HW189576   9.932  13.072  14.583
95934SOL    HW289577   9.833  13.009  14.678
95935SOL     OW89578   9.492   9.074  12.338
95935SOL    HW189579   9.427   9.098  12.405
95935SOL    HW289580   9.567   9.041  12.388
95936SOL     OW89581   8.981   7.292  11.338
95936SOL    HW189582   9.012   7.338  11.260
95936SOL    HW289583   8.886   7.288  11.328
95937SOL     OW89584   0.461   9.248   0.581
95937SOL    HW189585   0.375   9.209   0.596
95937SOL    HW289586   0.510   9.232   0.662
95938SOL     OW89587   8.401   8.646   0.833
95938SOL    HW189588   8.317   8.688   0.848
95938SOL    HW289589   8.466   8.707   0.869
95939SOL     OW89590   6.890  10.689   9.289
95939SOL    HW189591   6.895  10.651   9.202
95939SOL    HW289592   6.980  10.718   9.307
95940SOL     OW89593  12.118   6.490   9.658
95940SOL    HW189594  12.032   6.492   9.700
95940SOL    HW289595  12.152   6.403   9.676
95941SOL     OW89596   1.328  12.967  11.457
95941SOL    HW189597   1.358  13.054  11.484
95941SOL    HW289598   1.286  12.981  11.373
95942SOL     OW89599   4.900   2.483   5.813
95942SOL    HW189600   4.933   2.551   5.754
95942SOL    HW289601   4.946   2.404   5.786
95943SOL     OW89602   3.294   7.466   0.080
95943SOL    HW189603   3.371   7.479   0.135
95943SOL    HW289604   3.277   7.552   0.042
95944SOL     OW89605  10.709   9.005   6.151
95944SOL    HW189606  10.636   8.959   6.193
95944SOL    HW289607  10.670   9.047   6.075
95945SOL     OW89608   1.521   4.785   2.109
95945SOL    HW189609   1.460   4.712   2.096
95945SOL    HW289610   1.580   4.754   2.178
95946SOL     OW89611   7.736   8.354   1.375
95946SOL    HW189612   7.734   8.450   1.377
95946SOL    HW289613   7.718   8.328   1.465
95947SOL     OW89614   3.861   7.260   0.781
95947SOL    HW189615   3.945   7.262   0.827
95947SOL    HW289616   3.878   7.300   0.696
95948SOL     OW89617   5.080   3.338   5.505
95948SOL    HW189618   5.092   3.288   5.424
95948SOL    HW289619   5.161   3.324   5.554
95949SOL     OW89620   8.847   2.212   2.030
95949SOL    HW189621   8.821   2.279   1.966
95949SOL    HW289622   8.929   2.245   2.066
95950SOL     OW89623  10.436  11.846   8.120
95950SOL    HW189624  10.423  11.769   8.064
95950SOL    HW289625  10.517  11.827   8.168
95951SOL     OW89626  10.908  11.281   1.544
95951SOL    HW189627  10.894  11.190   1.517
95951SOL    HW289628  10.856  11.333   1.483
95952SOL     OW89629   7.649   3.173  10.898
95952SOL    HW189630   7.554   3.174  10.891
95952SOL    HW289631   7.678   3.108  10.834
95953SOL     OW89632   7.971   8.344   8.806
95953SOL    HW189633   7.957   8.355   8.900
95953SOL    HW289634   8.032   8.414   8.783
95954SOL     OW89635  13.007   7.658   6.230
95954SOL    HW189636  13.074   7.724   6.211
95954SOL    HW289637  13.018   7.593   6.160
95955SOL     OW89638   8.818  12.097   8.801
95955SOL    HW189639   8.840  12.125   8.712
95955SOL    HW289640   8.902  12.075   8.841
95956SOL     OW89641  11.464   8.139   5.919
95956SOL    HW189642  11.408   8.215   5.903
95956SOL    HW289643  11.530   8.170   5.981
95957SOL     OW89644   9.938  14.101   1.174
95957SOL    HW189645  10.017  14.067   1.217
95957SOL    HW289646   9.945  14.070   1.084
95958SOL     OW89647   3.788   7.811  11.969
95958SOL    HW189648   3.768   7.860  12.050
95958SOL    HW289649   3.846   7.869  11.920
95959SOL     OW89650   1.022  10.632  11.111
95959SOL    HW189651   0.992  10.541  11.117
95959SOL    HW289652   1.090  10.639  11.178
95960SOL     OW89653   9.353   6.846   1.101
95960SOL    HW189654   9.414   6.888   1.040
95960SOL    HW289655   9.384   6.756   1.107
95961SOL     OW89656   2.482   9.508   6.893
95961SOL    HW189657   2.457   9.447   6.824
95961SOL    HW289658   2.552   9.463   6.941
95962SOL     OW89659   6.211  14.580   7.647
95962SOL    HW189660   6.282  14.564   7.586
95962SOL    HW289661   6.209  14.504   7.704
95963SOL     OW89662   7.174   7.012  12.857
95963SOL    HW189663   7.132   7.089  12.894
95963SOL    HW289664   7.263   7.013  12.893
95964SOL     OW89665   2.371  11.523  11.303
95964SOL    HW189666   2.310  11.479  11.244
95964SOL    HW289667   2.330  11.607  11.322
95965SOL     OW89668  12.259  10.819   2.769
95965SOL    HW189669  12.332  10.874   2.742
95965SOL    HW289670  12.223  10.863   2.846
95966SOL     OW89671   5.557   3.196   0.221
95966SOL    HW189672   5.491   3.245   0.172
95966SOL    HW289673   5.509   3.124   0.261
95967SOL     OW89674   2.817   7.258   8.880
95967SOL    HW189675   2.836   7.244   8.973
95967SOL    HW289676   2.882   7.323   8.852
95968SOL     OW89677  13.136   6.528   4.958
95968SOL    HW189678  13.092   6.602   4.916
95968SOL    HW289679  13.224   6.527   4.921
95969SOL     OW89680   3.321   1.364   5.435
95969SOL    HW189681   3.229   1.381   5.413
95969SOL    HW289682   3.338   1.277   5.398
95970SOL     OW89683  10.116  10.164  10.649
95970SOL    HW189684  10.195  10.212  10.672
95970SOL    HW289685  10.127  10.078  10.689
95971SOL     OW89686   6.132   9.134   5.254
95971SOL    HW189687   6.126   9.121   5.160
95971SOL    HW289688   6.224   9.116   5.275
95972SOL     OW89689  14.228   5.801   5.450
95972SOL    HW189690  14.295   5.846   5.398
95972SOL    HW289691  14.151   5.858   5.444
95973SOL     OW89692   4.871   4.426  11.134
95973SOL    HW189693   4.930   4.501  11.129
95973SOL    HW289694   4.923   4.353  11.098
95974SOL     OW89695   1.317   1.183  10.928
95974SOL    HW189696   1.278   1.271  10.932
95974SOL    HW289697   1.265   1.137  10.862
95975SOL     OW89698   5.939  12.941   8.263
95975SOL    HW189699   6.030  12.965   8.285
95975SOL    HW289700   5.947  12.876   8.194
95976SOL     OW89701   6.403  10.108  10.009
95976SOL    HW189702   6.345  10.076  10.079
95976SOL    HW289703   6.348  10.108   9.931
95977SOL     OW89704  11.354   7.612   7.885
95977SOL    HW189705  11.298   7.599   7.808
95977SOL    HW289706  11.373   7.524   7.916
95978SOL     OW89707   1.088   8.758   6.892
95978SOL    HW189708   1.029   8.807   6.949
95978SOL    HW289709   1.150   8.716   6.952
95979SOL     OW89710  10.589   2.920  14.142
95979SOL    HW189711  10.519   2.885  14.087
95979SOL    HW289712  10.560   3.009  14.163
95980SOL     OW89713   5.380   0.625   6.533
95980SOL    HW189714   5.442   0.680   6.486
95980SOL    HW289715   5.323   0.588   6.465
95981SOL     OW89716   5.975  14.050  13.774
95981SOL    HW189717   5.964  14.115  13.704
95981SOL    HW289718   5.890  14.007  13.781
95982SOL     OW89719   5.901   1.848   6.604
95982SOL    HW189720   5.921   1.906   6.531
95982SOL    HW289721   5.848   1.902   6.663
95983SOL     OW89722   5.308   0.861   3.292
95983SOL    HW189723   5.245   0.839   3.360
95983SOL    HW289724   5.392   0.832   3.327
95984SOL     OW89725   5.916  13.925   1.837
95984SOL    HW189726   5.957  14.000   1.879
95984SOL    HW289727   5.834  13.913   1.884
95985SOL     OW89728   2.647   6.551   8.653
95985SOL    HW189729   2.678   6.638   8.675
95985SOL    HW289730   2.624   6.557   8.560
95986SOL     OW89731  14.218   6.067  13.270
95986SOL    HW189732  14.160   5.995  13.245
95986SOL    HW289733  14.164   6.145  13.259
95987SOL     OW89734   8.877   5.647  12.890
95987SOL    HW189735   8.795   5.626  12.935
95987SOL    HW289736   8.927   5.565  12.893
95988SOL     OW89737   3.225  14.545   5.446
95988SOL    HW189738   3.205  14.514   5.358
95988SOL    HW289739   3.291  14.485   5.479
95989SOL     OW89740   3.584   6.232   8.272
95989SOL    HW189741   3.570   6.229   8.367
95989SOL    HW289742   3.522   6.168   8.237
95990SOL     OW89743   0.887  10.257   1.856
95990SOL    HW189744   0.905  10.333   1.801
95990SOL    HW289745   0.815  10.212   1.812
95991SOL     OW89746   8.270   2.668  12.758
95991SOL    HW189747   8.291   2.737  12.820
95991SOL    HW289748   8.195   2.702  12.708
95992SOL     OW89749   6.231   7.091   3.798
95992SOL    HW189750   6.222   7.075   3.892
95992SOL    HW289751   6.259   7.182   3.792
95993SOL     OW89752  11.298   6.002   6.429
95993SOL    HW189753  11.209   5.986   6.397
95993SOL    HW289754  11.345   5.921   6.408
95994SOL     OW89755   0.164   7.356   2.803
95994SOL    HW189756   0.095   7.397   2.751
95994SOL    HW289757   0.240   7.356   2.745
95995SOL     OW89758  12.916   5.514  10.721
95995SOL    HW189759  12.837   5.560  10.749
95995SOL    HW289760  12.890   5.422  10.716
95996SOL     OW89761   2.650   0.498   5.878
95996SOL    HW189762   2.733   0.462   5.848
95996SOL    HW289763   2.657   0.592   5.862
95997SOL     OW89764   5.444   4.122   2.503
95997SOL    HW189765   5.531   4.094   2.532
95997SOL    HW289766   5.449   4.218   2.500
95998SOL     OW89767   3.525   7.004   9.197
95998SOL    HW189768   3.461   7.057   9.245
95998SOL    HW289769   3.529   6.921   9.245
95999SOL     OW89770   3.399   3.868   3.898
95999SOL    HW189771   3.478   3.923   3.906
95999SOL    HW289772   3.432   3.782   3.871
96000SOL     OW89773   1.035  14.053   3.763
96000SOL    HW189774   1.021  13.987   3.830
96000SOL    HW289775   0.979  14.126   3.790
96001SOL     OW89776  13.564   9.277   1.810
96001SOL    HW189777  13.547   9.183   1.819
96001SOL    HW289778  13.511   9.318   1.878
96002SOL     OW89779   9.910  14.524   3.529
96002SOL    HW189780   9.821  14.490   3.528
96002SOL    HW289781   9.901  14.617   3.509
96003SOL     OW89782   3.651   9.672   0.533
96003SOL    HW189783   3.566   9.647   0.569
96003SOL    HW289784   3.641   9.764   0.509
96004SOL     OW89785   0.239   5.118  10.773
96004SOL    HW189786   0.313   5.128  10.714
96004SOL    HW289787   0.212   5.208  10.794
96005SOL     OW89788   0.081   3.752   4.993
96005SOL    HW189789   0.125   3.833   5.017
96005SOL    HW289790   0.100   3.741   4.900
96006SOL     OW89791  10.530   2.036   9.410
96006SOL    HW189792  10.528   2.009   9.318
96006SOL    HW289793  10.563   1.959   9.456
96007SOL     OW89794   4.014  11.431  13.615
96007SOL    HW189795   4.091  11.401  13.663
96007SOL    HW289796   3.953  11.357  13.619
96008SOL     OW89797   7.043   8.343  11.356
96008SOL    HW189798   7.108   8.405  11.390
96008SOL    HW289799   7.093   8.262  11.342
96009SOL     OW89800   5.303   5.565   0.445
96009SOL    HW189801   5.308   5.660   0.432
96009SOL    HW289802   5.314   5.553   0.539
96010SOL     OW89803   6.846   7.105   3.376
96010SOL    HW189804   6.842   7.035   3.442
96010SOL    HW289805   6.763   7.152   3.386
96011SOL     OW89806  12.033   6.043   7.991
96011SOL    HW189807  12.116   6.070   7.952
96011SOL    HW289808  11.988   6.125   8.012
96012SOL     OW89809  14.131   7.843   7.326
96012SOL    HW189810  14.136   7.937   7.310
96012SOL    HW289811  14.072   7.810   7.258
96013SOL     OW89812   0.821  11.385  14.284
96013SOL    HW189813   0.774  11.385  14.367
96013SOL    HW289814   0.834  11.292  14.264
96014SOL     OW89815   7.813   5.519   7.410
96014SOL    HW189816   7.820   5.608   7.445
96014SOL    HW289817   7.901   5.482   7.419
96015SOL     OW89818   0.479   5.243   7.379
96015SOL    HW189819   0.390   5.221   7.350
96015SOL    HW289820   0.536   5.212   7.308
96016SOL     OW89821   9.868   7.213   4.219
96016SOL    HW189822   9.774   7.195   4.222
96016SOL    HW289823   9.909   7.128   4.203
96017SOL     OW89824   2.548   9.987   4.157
96017SOL    HW189825   2.500  10.041   4.219
96017SOL    HW289826   2.636  10.023   4.155
96018SOL     OW89827   1.792  11.025   9.223
96018SOL    HW189828   1.771  11.118   9.210
96018SOL    HW289829   1.727  10.979   9.169
96019SOL     OW89830   1.528  11.888   4.813
96019SOL    HW189831   1.530  11.897   4.908
96019SOL    HW289832   1.556  11.974   4.780
96020SOL     OW89833   7.473   1.004   7.576
96020SOL    HW189834   7.410   0.934   7.591
96020SOL    HW289835   7.509   1.023   7.663
96021SOL     OW89836   3.226   0.598  14.846
96021SOL    HW189837   3.213   0.675   0.024
96021SOL    HW289838   3.157   0.604  14.781
96022SOL     OW89839  14.270   8.415   6.669
96022SOL    HW189840  14.275   8.438   6.576
96022SOL    HW289841  14.254   8.321   6.668
96023SOL     OW89842   0.182   2.284  14.826
96023SOL    HW189843   0.271   2.305  14.854
96023SOL    HW289844   0.138   2.257   0.029
96024SOL     OW89845  11.220   6.682   0.773
96024SOL    HW189846  11.278   6.682   0.849
96024SOL    HW289847  11.200   6.774   0.758
96025SOL     OW89848   5.388  12.759   1.643
96025SOL    HW189849   5.365  12.839   1.690
96025SOL    HW289850   5.450  12.715   1.700
96026SOL     OW89851  13.693   9.044   5.913
96026SOL    HW189852  13.633   8.991   5.861
96026SOL    HW289853  13.702   8.995   5.995
96027SOL     OW89854   7.015  10.141   6.995
96027SOL    HW189855   7.064  10.222   7.011
96027SOL    HW289856   7.080  10.071   7.004
96028SOL     OW89857   6.564   9.271  13.808
96028SOL    HW189858   6.484   9.323  13.819
96028SOL    HW289859   6.572   9.261  13.713
96029SOL     OW89860  14.168  11.889   4.219
96029SOL    HW189861  14.219  11.942   4.281
96029SOL    HW289862  14.233  11.859   4.155
96030SOL     OW89863   4.968   6.432   9.247
96030SOL    HW189864   5.041   6.376   9.276
96030SOL    HW289865   4.949   6.487   9.323
96031SOL     OW89866   4.302   2.727  11.790
96031SOL    HW189867   4.224   2.765  11.752
96031SOL    HW289868   4.276   2.699  11.878
96032SOL     OW89869  10.685   3.494   5.016
96032SOL    HW189870  10.687   3.518   5.109
96032SOL    HW289871  10.727   3.567   4.971
96033SOL     OW89872   6.069   3.343   7.930
96033SOL    HW189873   6.028   3.280   7.989
96033SOL    HW289874   6.163   3.334   7.947
96034SOL     OW89875  13.669  10.302   6.567
96034SOL    HW189876  13.599  10.330   6.626
96034SOL    HW289877  13.734  10.262   6.625
96035SOL     OW89878   4.034   9.714   8.603
96035SOL    HW189879   3.994   9.792   8.566
96035SOL    HW289880   4.127   9.724   8.586
96036SOL     OW89881   8.726   3.928  12.238
96036SOL    HW189882   8.778   3.910  12.316
96036SOL    HW289883   8.785   3.909  12.165
96037SOL     OW89884  14.767  13.685   8.151
96037SOL    HW189885  14.801  13.747   8.087
96037SOL    HW289886  14.674  13.705   8.157
96038SOL     OW89887   0.501   7.266   5.982
96038SOL    HW189888   0.423   7.236   5.936
96038SOL    HW289889   0.494   7.362   5.981
96039SOL     OW89890   8.628   6.009   0.839
96039SOL    HW189891   8.687   6.059   0.896
96039SOL    HW289892   8.662   6.022   0.751
96040SOL     OW89893   5.835   0.677  11.826
96040SOL    HW189894   5.752   0.696  11.782
96040SOL    HW289895   5.864   0.762  11.860
96041SOL     OW89896   1.625   4.735   6.016
96041SOL    HW189897   1.586   4.811   6.061
96041SOL    HW289898   1.616   4.663   6.079
96042SOL     OW89899   5.676  14.306  12.447
96042SOL    HW189900   5.604  14.366  12.466
96042SOL    HW289901   5.635  14.220  12.441
96043SOL     OW89902   8.960  11.107   7.968
96043SOL    HW189903   8.917  11.039   8.020
96043SOL    HW289904   8.999  11.166   8.033
96044SOL     OW89905   1.123   4.358   7.612
96044SOL    HW189906   1.069   4.427   7.651
96044SOL    HW289907   1.173   4.402   7.543
96045SOL     OW89908   8.693  11.693   1.320
96045SOL    HW189909   8.747  11.684   1.241
96045SOL    HW289910   8.756  11.714   1.389
96046SOL     OW89911   5.399   1.494   9.101
96046SOL    HW189912   5.394   1.506   9.007
96046SOL    HW289913   5.309   1.481   9.129
96047SOL     OW89914  11.590  10.328  14.444
96047SOL    HW189915  11.630  10.397  14.391
96047SOL    HW289916  11.620  10.246  14.403
96048SOL     OW89917   5.236   7.657  10.422
96048SOL    HW189918   5.194   7.595  10.363
96048SOL    HW289919   5.216   7.624  10.510
96049SOL     OW89920   6.537   5.383   2.345
96049SOL    HW189921   6.532   5.328   2.267
96049SOL    HW289922   6.471   5.347   2.404
96050SOL     OW89923  13.176   3.404   3.658
96050SOL    HW189924  13.126   3.344   3.603
96050SOL    HW289925  13.134   3.399   3.743
96051SOL     OW89926   4.907   9.009   1.260
96051SOL    HW189927   4.951   9.087   1.294
96051SOL    HW289928   4.856   8.976   1.334
96052SOL     OW89929   2.235   8.436  12.465
96052SOL    HW189930   2.142   8.416  12.455
96052SOL    HW289931   2.256   8.412  12.555
96053SOL     OW89932  12.930   9.868   1.932
96053SOL    HW189933  12.974   9.876   2.017
96053SOL    HW289934  12.995   9.827   1.875
96054SOL     OW89935   2.995  13.389  10.984
96054SOL    HW189936   3.048  13.387  10.905
96054SOL    HW289937   2.935  13.315  10.974
96055SOL     OW89938   6.569   7.408   7.968
96055SOL    HW189939   6.626   7.481   7.992
96055SOL    HW289940   6.625   7.350   7.917
96056SOL     OW89941   8.141   6.288   2.336
96056SOL    HW189942   8.221   6.245   2.306
96056SOL    HW289943   8.079   6.277   2.264
96057SOL     OW89944   0.523  12.406   6.177
96057SOL    HW189945   0.615  12.380   6.172
96057SOL    HW289946   0.501  12.397   6.270
96058SOL     OW89947  11.395   2.328   1.120
96058SOL    HW189948  11.445   2.410   1.114
96058SOL    HW289949  11.318   2.343   1.066
96059SOL     OW89950   6.446  14.736   7.571
96059SOL    HW189951   6.459  14.693   7.656
96059SOL    HW289952   6.430  14.664   7.510
96060SOL     OW89953   4.626   3.541   7.930
96060SOL    HW189954   4.556   3.595   7.969
96060SOL    HW289955   4.622   3.563   7.837
96061SOL     OW89956   2.305  13.004  11.920
96061SOL    HW189957   2.324  13.037  12.008
96061SOL    HW289958   2.318  13.079  11.863
96062SOL     OW89959   8.223   5.370   6.581
96062SOL    HW189960   8.264   5.285   6.597
96062SOL    HW289961   8.143   5.349   6.534
96063SOL     OW89962  13.189   1.474   8.501
96063SOL    HW189963  13.118   1.444   8.446
96063SOL    HW289964  13.177   1.569   8.506
96064SOL     OW89965  14.169   8.110  11.141
96064SOL    HW189966  14.166   8.069  11.228
96064SOL    HW289967  14.244   8.069  11.098
96065SOL     OW89968   6.681   2.225   7.337
96065SOL    HW189969   6.627   2.161   7.382
96065SOL    HW289970   6.746   2.173   7.289
96066SOL     OW89971   7.831   0.277   2.897
96066SOL    HW189972   7.739   0.302   2.894
96066SOL    HW289973   7.871   0.340   2.958
96067SOL     OW89974   0.802  10.920  11.346
96067SOL    HW189975   0.840  10.940  11.261
96067SOL    HW289976   0.715  10.886  11.327
96068SOL     OW89977  12.222  11.810  11.640
96068SOL    HW189978  12.296  11.827  11.698
96068SOL    HW289979  12.256  11.822  11.552
96069SOL     OW89980   2.414   3.477   0.439
96069SOL    HW189981   2.472   3.438   0.504
96069SOL    HW289982   2.424   3.571   0.451
96070SOL     OW89983   1.294  13.348   4.888
96070SOL    HW189984   1.309  13.326   4.796
96070SOL    HW289985   1.371  13.397   4.914
96071SOL     OW89986  14.367   5.301  11.999
96071SOL    HW189987  14.358   5.314  12.094
96071SOL    HW289988  14.277   5.308  11.966
96072SOL     OW89989   9.719  13.972   5.191
96072SOL    HW189990   9.786  13.913   5.223
96072SOL    HW289991   9.640  13.946   5.238
96073SOL     OW89992  11.836   3.745   5.945
96073SOL    HW189993  11.799   3.759   6.032
96073SOL    HW289994  11.926   3.778   5.952
96074SOL     OW89995   9.950   1.355   7.007
96074SOL    HW189996   9.901   1.436   7.021
96074SOL    HW289997   9.889   1.297   6.962
96075SOL     OW89998   0.588   4.462   6.281
96075SOL    HW189999   0.522   4.497   6.221
96075SOL    HW290000   0.649   4.415   6.224
96076SOL     OW90001   6.354   7.621   3.843
96076SOL    HW190002   6.273   7.665   3.817
96076SOL    HW290003   6.424   7.677   3.808
96077SOL     OW90004   8.518  11.114   1.376
96077SOL    HW190005   8.553  11.121   1.287
96077SOL    HW290006   8.481  11.026   1.379
96078SOL     OW90007   2.359   6.129   9.704
96078SOL    HW190008   2.396   6.079   9.777
96078SOL    HW290009   2.386   6.219   9.720
96079SOL     OW90010   3.317  13.174   1.223
96079SOL    HW190011   3.246  13.116   1.196
96079SOL    HW290012   3.280  13.262   1.215
96080SOL     OW90013  12.102   7.471   9.826
96080SOL    HW190014  12.083   7.427   9.744
96080SOL    HW290015  12.144   7.404   9.880
96081SOL     OW90016   2.881   4.282   6.786
96081SOL    HW190017   2.920   4.369   6.781
96081SOL    HW290018   2.949   4.227   6.824
96082SOL     OW90019   6.450   0.118   8.489
96082SOL    HW190020   6.532   0.076   8.461
96082SOL    HW290021   6.450   0.202   8.444
96083SOL     OW90022   2.031   1.984   3.025
96083SOL    HW190023   1.957   1.954   3.078
96083SOL    HW290024   2.046   2.074   3.053
96084SOL     OW90025   1.480  14.762   1.765
96084SOL    HW190026   1.468  14.705   1.689
96084SOL    HW290027   1.531  14.708   1.826
96085SOL     OW90028   6.692  13.412   9.192
96085SOL    HW190029   6.749  13.486   9.173
96085SOL    HW290030   6.603  13.447   9.188
96086SOL     OW90031   4.652   9.923   0.351
96086SOL    HW190032   4.662   9.845   0.405
96086SOL    HW290033   4.728   9.922   0.293
96087SOL     OW90034   7.276   8.860  13.808
96087SOL    HW190035   7.343   8.884  13.744
96087SOL    HW290036   7.246   8.943  13.844
96088SOL     OW90037   4.373   5.589   2.447
96088SOL    HW190038   4.323   5.516   2.409
96088SOL    HW290039   4.348   5.589   2.540
96089SOL     OW90040   8.985   3.498   8.575
96089SOL    HW190041   8.938   3.416   8.563
96089SOL    HW290042   8.950   3.533   8.657
96090SOL     OW90043   0.773   6.902   6.132
96090SOL    HW190044   0.735   6.970   6.076
96090SOL    HW290045   0.798   6.832   6.071
96091SOL     OW90046  14.775   9.674   7.897
96091SOL    HW190047  14.836   9.726   7.843
96091SOL    HW290048  14.792   9.584   7.871
96092SOL     OW90049  13.549   7.891  11.359
96092SOL    HW190050  13.553   7.825  11.289
96092SOL    HW290051  13.469   7.871  11.407
96093SOL     OW90052  10.051   3.772   8.839
96093SOL    HW190053  10.010   3.719   8.907
96093SOL    HW290054  10.131   3.725   8.817
96094SOL     OW90055   4.248   7.665  13.831
96094SOL    HW190056   4.328   7.691  13.876
96094SOL    HW290057   4.278   7.609  13.759
96095SOL     OW90058   1.930   3.491   6.470
96095SOL    HW190059   1.859   3.534   6.422
96095SOL    HW290060   1.973   3.563   6.516
96096SOL     OW90061   7.704   0.004   2.101
96096SOL    HW190062   7.777   0.060   2.072
96096SOL    HW290063   7.677   0.041   2.185
96097SOL     OW90064   4.168   8.392   5.634
96097SOL    HW190065   4.182   8.400   5.539
96097SOL    HW290066   4.105   8.321   5.643
96098SOL     OW90067   2.078   7.975   6.833
96098SOL    HW190068   1.982   7.971   6.836
96098SOL    HW290069   2.097   8.050   6.777
96099SOL     OW90070   2.801  13.482   9.673
96099SOL    HW190071   2.892  13.471   9.647
96099SOL    HW290072   2.786  13.415   9.740
96100SOL     OW90073   8.645   8.573  12.771
96100SOL    HW190074   8.659   8.659  12.732
96100SOL    HW290075   8.598   8.523  12.704
96101SOL     OW90076   4.131   6.205   2.661
96101SOL    HW190077   4.191   6.277   2.640
96101SOL    HW290078   4.049   6.229   2.618
96102SOL     OW90079  10.315   9.490   2.673
96102SOL    HW190080  10.404   9.459   2.659
96102SOL    HW290081  10.266   9.411   2.696
96103SOL     OW90082   2.191   4.160  14.361
96103SOL    HW190083   2.217   4.146  14.270
96103SOL    HW290084   2.206   4.076  14.403
96104SOL     OW90085   5.864  14.686  12.857
96104SOL    HW190086   5.797  14.624  12.827
96104SOL    HW290087   5.911  14.711  12.777
96105SOL     OW90088   0.452   0.392  10.035
96105SOL    HW190089   0.363   0.424  10.051
96105SOL    HW290090   0.455   0.373   9.941
96106SOL     OW90091   4.759   4.239   9.041
96106SOL    HW190092   4.831   4.258   9.101
96106SOL    HW290093   4.789   4.164   8.991
96107SOL     OW90094   8.551   4.122   5.683
96107SOL    HW190095   8.544   4.070   5.603
96107SOL    HW290096   8.535   4.212   5.655
96108SOL     OW90097   6.290   3.792   5.154
96108SOL    HW190098   6.209   3.842   5.147
96108SOL    HW290099   6.284   3.727   5.085
96109SOL     OW90100   1.399   6.111  13.081
96109SOL    HW190101   1.487   6.074  13.082
96109SOL    HW290102   1.374   6.111  12.988
96110SOL     OW90103   5.421   1.653   7.347
96110SOL    HW190104   5.490   1.592   7.321
96110SOL    HW290105   5.347   1.596   7.369
96111SOL     OW90106   3.634  10.195  13.983
96111SOL    HW190107   3.605  10.140  14.056
96111SOL    HW290108   3.728  10.182  13.978
96112SOL     OW90109   3.221   3.214  10.367
96112SOL    HW190110   3.311   3.187  10.387
96112SOL    HW290111   3.223   3.310  10.373
96113SOL     OW90112   2.163  12.650   0.287
96113SOL    HW190113   2.140  12.696   0.206
96113SOL    HW290114   2.209  12.716   0.340
96114SOL     OW90115   9.836  10.051   7.667
96114SOL    HW190116   9.849   9.989   7.739
96114SOL    HW290117   9.761  10.104   7.694
96115SOL     OW90118   1.533  12.912  12.280
96115SOL    HW190119   1.444  12.886  12.300
96115SOL    HW290120   1.568  12.947  12.362
96116SOL     OW90121   6.378   5.937   1.331
96116SOL    HW190122   6.291   5.942   1.372
96116SOL    HW290123   6.435   5.906   1.401
96117SOL     OW90124   6.677   9.781  10.259
96117SOL    HW190125   6.655   9.778  10.166
96117SOL    HW290126   6.670   9.691  10.289
96118SOL     OW90127   8.205  12.263   5.206
96118SOL    HW190128   8.244  12.222   5.129
96118SOL    HW290129   8.221  12.357   5.194
96119SOL     OW90130  13.737   9.861   4.593
96119SOL    HW190131  13.679   9.863   4.669
96119SOL    HW290132  13.801   9.930   4.609
96120SOL     OW90133  10.533  14.169  12.529
96120SOL    HW190134  10.603  14.200  12.471
96120SOL    HW290135  10.564  14.084  12.561
96121SOL     OW90136   0.374   2.469   1.793
96121SOL    HW190137   0.285   2.436   1.803
96121SOL    HW290138   0.369   2.560   1.822
96122SOL     OW90139   8.262   7.956   4.388
96122SOL    HW190140   8.187   8.015   4.381
96122SOL    HW290141   8.338   8.011   4.371
96123SOL     OW90142   9.311  11.517   7.582
96123SOL    HW190143   9.335  11.610   7.579
96123SOL    HW290144   9.395  11.471   7.584
96124SOL     OW90145   7.052   7.367   8.842
96124SOL    HW190146   7.118   7.373   8.772
96124SOL    HW290147   7.083   7.427   8.909
96125SOL     OW90148   2.743   9.571  14.613
96125SOL    HW190149   2.782   9.553  14.527
96125SOL    HW290150   2.797   9.642  14.649
96126SOL     OW90151   9.063   8.724   4.598
96126SOL    HW190152   9.047   8.732   4.504
96126SOL    HW290153   9.110   8.641   4.607
96127SOL     OW90154  13.654  12.851   6.636
96127SOL    HW190155  13.681  12.941   6.619
96127SOL    HW290156  13.631  12.849   6.728
96128SOL     OW90157  14.535   9.068   1.182
96128SOL    HW190158  14.558   9.148   1.229
96128SOL    HW290159  14.619   9.032   1.153
96129SOL     OW90160   7.319   7.551  10.213
96129SOL    HW190161   7.337   7.644  10.228
96129SOL    HW290162   7.246   7.531  10.272
96130SOL     OW90163  13.535   5.106   6.636
96130SOL    HW190164  13.528   5.195   6.670
96130SOL    HW290165  13.475   5.105   6.561
96131SOL     OW90166   1.144   2.860   9.497
96131SOL    HW190167   1.056   2.891   9.519
96131SOL    HW290168   1.198   2.939   9.497
96132SOL     OW90169   0.025   2.791   1.354
96132SOL    HW190170   0.090   2.761   1.291
96132SOL    HW290171   0.038   2.735   1.431
96133SOL     OW90172  14.339   5.910   3.739
96133SOL    HW190173  14.329   5.824   3.780
96133SOL    HW290174  14.378   5.892   3.653
96134SOL     OW90175   4.335   3.247   5.241
96134SOL    HW190176   4.308   3.268   5.331
96134SOL    HW290177   4.414   3.194   5.252
96135SOL     OW90178   7.452   3.803   9.427
96135SOL    HW190179   7.474   3.796   9.334
96135SOL    HW290180   7.535   3.789   9.472
96136SOL     OW90181  13.619   9.649   5.141
96136SOL    HW190182  13.604   9.577   5.081
96136SOL    HW290183  13.591   9.616   5.226
96137SOL     OW90184   6.638  12.966   2.456
96137SOL    HW190185   6.555  12.922   2.475
96137SOL    HW290186   6.660  12.938   2.367
96138SOL     OW90187  10.434   6.839  10.937
96138SOL    HW190188  10.395   6.821  10.851
96138SOL    HW290189  10.362   6.829  10.999
96139SOL     OW90190   4.157   5.714   4.547
96139SOL    HW190191   4.190   5.746   4.631
96139SOL    HW290192   4.062   5.726   4.552
96140SOL     OW90193   2.610   3.782   6.193
96140SOL    HW190194   2.654   3.838   6.130
96140SOL    HW290195   2.677   3.719   6.221
96141SOL     OW90196   0.154  10.701  10.884
96141SOL    HW190197   0.193  10.634  10.828
96141SOL    HW290198   0.183  10.784  10.846
96142SOL     OW90199  13.319  11.365  12.974
96142SOL    HW190200  13.262  11.320  13.036
96142SOL    HW290201  13.317  11.457  13.001
96143SOL     OW90202  13.755   2.839  11.484
96143SOL    HW190203  13.783   2.922  11.520
96143SOL    HW290204  13.808   2.827  11.405
96144SOL     OW90205   2.665   9.092   9.592
96144SOL    HW190206   2.665   9.096   9.497
96144SOL    HW290207   2.573   9.094   9.617
96145SOL     OW90208   6.529   5.563   8.639
96145SOL    HW190209   6.482   5.644   8.659
96145SOL    HW290210   6.504   5.542   8.549
96146SOL     OW90211   9.951   1.584   3.737
96146SOL    HW190212   9.983   1.502   3.774
96146SOL    HW290213   9.920   1.560   3.649
96147SOL     OW90214  13.256  11.415  10.485
96147SOL    HW190215  13.272  11.461  10.567
96147SOL    HW290216  13.326  11.445  10.427
96148SOL     OW90217   4.809   9.023   7.697
96148SOL    HW190218   4.818   9.108   7.740
96148SOL    HW290219   4.718   8.998   7.715
96149SOL     OW90220   2.341   0.305  12.663
96149SOL    HW190221   2.391   0.375  12.620
96149SOL    HW290222   2.250   0.321  12.638
96150SOL     OW90223  14.205   8.178   7.491
96150SOL    HW190224  14.274   8.124   7.452
96150SOL    HW290225  14.203   8.258   7.438
96151SOL     OW90226   5.604   5.584   6.637
96151SOL    HW190227   5.671   5.646   6.609
96151SOL    HW290228   5.544   5.578   6.563
96152SOL     OW90229   7.288   2.196  13.014
96152SOL    HW190230   7.333   2.252  12.951
96152SOL    HW290231   7.206   2.171  12.970
96153SOL     OW90232  13.478  11.358   0.553
96153SOL    HW190233  13.489  11.406   0.471
96153SOL    HW290234  13.546  11.392   0.611
96154SOL     OW90235  10.005   7.645  13.521
96154SOL    HW190236  10.099   7.638  13.537
96154SOL    HW290237   9.996   7.723  13.466
96155SOL     OW90238   7.312   4.610   1.853
96155SOL    HW190239   7.373   4.610   1.779
96155SOL    HW290240   7.243   4.549   1.828
96156SOL     OW90241   1.721   6.748   3.419
96156SOL    HW190242   1.789   6.706   3.367
96156SOL    HW290243   1.717   6.837   3.385
96157SOL     OW90244   3.034   7.551   9.739
96157SOL    HW190245   3.089   7.545   9.817
96157SOL    HW290246   2.949   7.582   9.771
96158SOL     OW90247   8.830   6.253   3.647
96158SOL    HW190248   8.793   6.207   3.572
96158SOL    HW290249   8.923   6.229   3.646
96159SOL     OW90250   4.603  14.188   1.572
96159SOL    HW190251   4.687  14.216   1.535
96159SOL    HW290252   4.623  14.170   1.664
96160SOL     OW90253  12.679  10.164  13.540
96160SOL    HW190254  12.656  10.085  13.587
96160SOL    HW290255  12.732  10.214  13.601
96161SOL     OW90256   0.764  14.279   3.381
96161SOL    HW190257   0.730  14.258   3.294
96161SOL    HW290258   0.735  14.207   3.437
96162SOL     OW90259  11.211   4.567   5.846
96162SOL    HW190260  11.238   4.476   5.856
96162SOL    HW290261  11.138   4.577   5.907
96163SOL     OW90262   5.715  11.802   0.134
96163SOL    HW190263   5.665  11.858   0.193
96163SOL    HW290264   5.693  11.832   0.046
96164SOL     OW90265  11.403  13.143  14.552
96164SOL    HW190266  11.338  13.199  14.595
96164SOL    HW290267  11.422  13.187  14.470
96165SOL     OW90268  12.902  13.223  13.510
96165SOL    HW190269  12.935  13.217  13.420
96165SOL    HW290270  12.810  13.200  13.504
96166SOL     OW90271   7.751   6.192  14.568
96166SOL    HW190272   7.700   6.273  14.569
96166SOL    HW290273   7.795   6.193  14.483
96167SOL     OW90274  11.131  11.580  13.277
96167SOL    HW190275  11.180  11.659  13.300
96167SOL    HW290276  11.196  11.510  13.285
96168SOL     OW90277   5.602   6.615  11.930
96168SOL    HW190278   5.618   6.701  11.893
96168SOL    HW290279   5.548   6.631  12.007
96169SOL     OW90280   7.659   2.810   7.847
96169SOL    HW190281   7.740   2.766   7.821
96169SOL    HW290282   7.644   2.780   7.937
96170SOL     OW90283   5.479   3.480   9.926
96170SOL    HW190284   5.482   3.423  10.003
96170SOL    HW290285   5.526   3.431   9.859
96171SOL     OW90286   9.366  13.141  12.563
96171SOL    HW190287   9.454  13.180  12.558
96171SOL    HW290288   9.382  13.047  12.572
96172SOL     OW90289  11.834   0.831  13.288
96172SOL    HW190290  11.856   0.752  13.239
96172SOL    HW290291  11.839   0.804  13.380
96173SOL     OW90292   2.971   4.591  12.050
96173SOL    HW190293   2.974   4.623  12.141
96173SOL    HW290294   2.880   4.564  12.038
96174SOL     OW90295   2.727   4.287   6.538
96174SOL    HW190296   2.775   4.257   6.616
96174SOL    HW290297   2.792   4.335   6.487
96175SOL     OW90298   6.452  12.630  14.810
96175SOL    HW190299   6.535  12.648  14.855
96175SOL    HW290300   6.478  12.597  14.724
96176SOL     OW90301   2.059   9.076   2.822
96176SOL    HW190302   2.088   9.167   2.816
96176SOL    HW290303   2.087   9.037   2.739
96177SOL     OW90304   8.993   7.323   4.106
96177SOL    HW190305   8.957   7.236   4.123
96177SOL    HW290306   8.991   7.367   4.191
96178SOL     OW90307   7.783   9.828   3.225
96178SOL    HW190308   7.757   9.795   3.311
96178SOL    HW290309   7.874   9.856   3.236
96179SOL     OW90310   1.268   7.139   2.830
96179SOL    HW190311   1.316   7.074   2.779
96179SOL    HW290312   1.328   7.213   2.837
96180SOL     OW90313   3.520  14.171  14.265
96180SOL    HW190314   3.508  14.082  14.296
96180SOL    HW290315   3.587  14.208  14.323
96181SOL     OW90316   3.547   0.781  10.001
96181SOL    HW190317   3.469   0.764  10.054
96181SOL    HW290318   3.608   0.823  10.061
96182SOL     OW90319   2.368   0.970   7.177
96182SOL    HW190320   2.303   1.031   7.212
96182SOL    HW290321   2.318   0.916   7.116
96183SOL     OW90322   8.588  13.364   5.733
96183SOL    HW190323   8.588  13.321   5.819
96183SOL    HW290324   8.522  13.317   5.683
96184SOL     OW90325   9.922   9.527  12.043
96184SOL    HW190326   9.832   9.515  12.011
96184SOL    HW290327   9.977   9.498  11.971
96185SOL     OW90328   6.716   0.747   2.799
96185SOL    HW190329   6.691   0.826   2.847
96185SOL    HW290330   6.777   0.701   2.857
96186SOL     OW90331   0.926   8.967   4.456
96186SOL    HW190332   0.856   8.945   4.394
96186SOL    HW290333   0.941   8.886   4.505
96187SOL     OW90334   6.449   1.232  12.393
96187SOL    HW190335   6.396   1.214  12.470
96187SOL    HW290336   6.392   1.212  12.319
96188SOL     OW90337   0.223  13.232   8.552
96188SOL    HW190338   0.248  13.208   8.462
96188SOL    HW290339   0.221  13.328   8.550
96189SOL     OW90340   7.700  12.032  14.035
96189SOL    HW190341   7.759  12.107  14.020
96189SOL    HW290342   7.742  11.983  14.106
96190SOL     OW90343   9.041   5.112   4.552
96190SOL    HW190344   8.984   5.178   4.590
96190SOL    HW290345   8.982   5.040   4.529
96191SOL     OW90346   1.218  13.593  13.750
96191SOL    HW190347   1.147  13.549  13.794
96191SOL    HW290348   1.214  13.684  13.781
96192SOL     OW90349   1.632   4.736   1.718
96192SOL    HW190350   1.674   4.730   1.804
96192SOL    HW290351   1.641   4.649   1.681
96193SOL     OW90352  13.627   5.026   5.440
96193SOL    HW190353  13.595   5.053   5.526
96193SOL    HW290354  13.564   5.063   5.378
96194SOL     OW90355   1.578   4.744   6.424
96194SOL    HW190356   1.629   4.667   6.447
96194SOL    HW290357   1.497   4.736   6.475
96195SOL     OW90358  13.895   8.216   0.283
96195SOL    HW190359  13.963   8.283   0.275
96195SOL    HW290360  13.819   8.264   0.316
96196SOL     OW90361  11.106   5.540   8.693
96196SOL    HW190362  11.188   5.526   8.645
96196SOL    HW290363  11.127   5.514   8.783
96197SOL     OW90364   9.694   7.153  11.123
96197SOL    HW190365   9.783   7.118  11.127
96197SOL    HW290366   9.657   7.115  11.044
96198SOL     OW90367   7.231   1.721   8.904
96198SOL    HW190368   7.225   1.702   8.811
96198SOL    HW290369   7.325   1.726   8.922
96199SOL     OW90370   2.599  14.677   2.713
96199SOL    HW190371   2.660  14.631   2.770
96199SOL    HW290372   2.600  14.627   2.632
96200SOL     OW90373  14.334  11.532  13.451
96200SOL    HW190374  14.338  11.597  13.522
96200SOL    HW290375  14.250  11.489  13.463
96201SOL     OW90376  13.427   4.642   5.752
96201SOL    HW190377  13.441   4.727   5.710
96201SOL    HW290378  13.463   4.579   5.690
96202SOL     OW90379  10.836  10.412   3.642
96202SOL    HW190380  10.756  10.441   3.686
96202SOL    HW290381  10.906  10.462   3.683
96203SOL     OW90382  10.297   6.311   9.345
96203SOL    HW190383  10.353   6.282   9.417
96203SOL    HW290384  10.357   6.355   9.284
96204SOL     OW90385   7.902   6.005  13.736
96204SOL    HW190386   7.847   6.017  13.659
96204SOL    HW290387   7.844   6.023  13.810
96205SOL     OW90388  13.735   6.593   5.303
96205SOL    HW190389  13.792   6.654   5.351
96205SOL    HW290390  13.728   6.518   5.362
96206SOL     OW90391   3.315  12.011  13.768
96206SOL    HW190392   3.394  12.063  13.757
96206SOL    HW290393   3.249  12.074  13.797
96207SOL     OW90394   9.264  11.820  14.713
96207SOL    HW190395   9.320  11.773  14.651
96207SOL    HW290396   9.310  11.902  14.729
96208SOL     OW90397   8.135   5.663   3.880
96208SOL    HW190398   8.135   5.578   3.836
96208SOL    HW290399   8.227   5.688   3.882
96209SOL     OW90400   4.620   1.658   6.745
96209SOL    HW190401   4.715   1.661   6.733
96209SOL    HW290402   4.589   1.600   6.676
96210SOL     OW90403   2.893   4.074  13.497
96210SOL    HW190404   2.978   4.070  13.541
96210SOL    HW290405   2.837   4.017  13.550
96211SOL     OW90406  10.655   9.476   9.773
96211SOL    HW190407  10.661   9.545   9.706
96211SOL    HW290408  10.584   9.419   9.744
96212SOL     OW90409   5.646  12.361   8.180
96212SOL    HW190410   5.595  12.424   8.230
96212SOL    HW290411   5.582  12.294   8.153
96213SOL     OW90412   0.914   3.993  11.035
96213SOL    HW190413   0.960   3.955  11.109
96213SOL    HW290414   0.872   3.919  10.991
96214SOL     OW90415  11.562  11.885   5.906
96214SOL    HW190416  11.593  11.795   5.906
96214SOL    HW290417  11.471  11.880   5.935
96215SOL     OW90418   3.595   1.667   7.099
96215SOL    HW190419   3.509   1.634   7.075
96215SOL    HW290420   3.578   1.729   7.170
96216SOL     OW90421  13.731   3.390   2.527
96216SOL    HW190422  13.713   3.482   2.508
96216SOL    HW290423  13.746   3.387   2.622
96217SOL     OW90424   6.513  14.678   9.724
96217SOL    HW190425   6.421  14.660   9.746
96217SOL    HW290426   6.534  14.616   9.654
96218SOL     OW90427   4.191  14.495   3.597
96218SOL    HW190428   4.237  14.557   3.541
96218SOL    HW290429   4.121  14.460   3.542
96219SOL     OW90430   6.090   3.310  11.410
96219SOL    HW190431   6.059   3.395  11.376
96219SOL    HW290432   6.013   3.254  11.407
96220SOL     OW90433  13.668  14.499   5.333
96220SOL    HW190434  13.592  14.533   5.286
96220SOL    HW290435  13.673  14.554   5.412
96221SOL     OW90436   3.636   5.329   5.843
96221SOL    HW190437   3.655   5.422   5.830
96221SOL    HW290438   3.705   5.298   5.901
96222SOL     OW90439   8.214   4.269   4.705
96222SOL    HW190440   8.281   4.254   4.771
96222SOL    HW290441   8.142   4.310   4.754
96223SOL     OW90442  13.989  14.672  10.546
96223SOL    HW190443  14.046  14.598  10.523
96223SOL    HW290444  13.953  14.649  10.631
96224SOL     OW90445   0.943   0.825  10.410
96224SOL    HW190446   1.002   0.750  10.420
96224SOL    HW290447   0.936   0.862  10.498
96225SOL     OW90448  11.628  10.400   0.856
96225SOL    HW190449  11.702  10.400   0.796
96225SOL    HW290450  11.653  10.462   0.925
96226SOL     OW90451   1.660   4.102  11.302
96226SOL    HW190452   1.732   4.038  11.301
96226SOL    HW290453   1.660   4.139  11.214
96227SOL     OW90454   6.313   4.920  12.640
96227SOL    HW190455   6.302   4.867  12.562
96227SOL    HW290456   6.346   5.004  12.608
96228SOL     OW90457  12.645   8.126   2.209
96228SOL    HW190458  12.599   8.094   2.287
96228SOL    HW290459  12.576   8.142   2.145
96229SOL     OW90460   3.487   2.599  11.134
96229SOL    HW190461   3.572   2.588  11.176
96229SOL    HW290462   3.443   2.667  11.186
96230SOL     OW90463   8.880   2.629  10.603
96230SOL    HW190464   8.806   2.688  10.618
96230SOL    HW290465   8.841   2.541  10.605
96231SOL     OW90466   8.636  10.132   7.896
96231SOL    HW190467   8.676  10.070   7.957
96231SOL    HW290468   8.649  10.093   7.810
96232SOL     OW90469  12.763  11.143  14.794
96232SOL    HW190470  12.710  11.068  14.821
96232SOL    HW290471  12.787  11.186  14.876
96233SOL     OW90472   6.039   1.245   7.525
96233SOL    HW190473   6.059   1.172   7.466
96233SOL    HW290474   6.061   1.212   7.612
96234SOL     OW90475  14.195  10.299   5.846
96234SOL    HW190476  14.171  10.364   5.779
96234SOL    HW290477  14.254  10.239   5.800
96235SOL     OW90478   2.257   3.728  10.094
96235SOL    HW190479   2.328   3.790  10.110
96235SOL    HW290480   2.292   3.668  10.028
96236SOL     OW90481  13.204   2.440   9.801
96236SOL    HW190482  13.127   2.427   9.747
96236SOL    HW290483  13.258   2.363   9.786
96237SOL     OW90484  10.902   3.726  10.130
96237SOL    HW190485  10.904   3.822  10.131
96237SOL    HW290486  10.901   3.701  10.222
96238SOL     OW90487   6.152   2.338   0.079
96238SOL    HW190488   6.199   2.293   0.009
96238SOL    HW290489   6.128   2.423   0.043
96239SOL     OW90490  13.833  11.799   0.684
96239SOL    HW190491  13.756  11.855   0.674
96239SOL    HW290492  13.854  11.803   0.777
96240SOL     OW90493   4.525  11.723   1.676
96240SOL    HW190494   4.580  11.703   1.600
96240SOL    HW290495   4.527  11.643   1.728
96241SOL     OW90496   3.287   1.924  12.329
96241SOL    HW190497   3.251   1.933  12.417
96241SOL    HW290498   3.378   1.951  12.337
96242SOL     OW90499   3.241   2.149   0.317
96242SOL    HW190500   3.293   2.212   0.367
96242SOL    HW290501   3.304   2.107   0.259
96243SOL     OW90502  11.884  13.569   5.636
96243SOL    HW190503  11.838  13.635   5.584
96243SOL    HW290504  11.845  13.486   5.609
96244SOL     OW90505   7.827  13.427   9.930
96244SOL    HW190506   7.837  13.520   9.907
96244SOL    HW290507   7.819  13.383   9.845
96245SOL     OW90508   6.645   6.872   9.296
96245SOL    HW190509   6.739   6.854   9.293
96245SOL    HW290510   6.604   6.786   9.294
96246SOL     OW90511   4.685   1.949  13.667
96246SOL    HW190512   4.734   1.869  13.648
96246SOL    HW290513   4.742   1.997  13.728
96247SOL     OW90514  14.727   5.893   9.306
96247SOL    HW190515  14.651   5.895   9.364
96247SOL    HW290516  14.776   5.972   9.327
96248SOL     OW90517  10.086   5.056   4.899
96248SOL    HW190518  10.120   5.064   4.810
96248SOL    HW290519  10.062   5.145   4.923
96249SOL     OW90520   7.970   8.859  13.018
96249SOL    HW190521   7.983   8.954  13.015
96249SOL    HW290522   8.033   8.828  13.083
96250SOL     OW90523  14.206   6.967  10.280
96250SOL    HW190524  14.133   6.965  10.217
96250SOL    HW290525  14.209   7.058  10.310
96251SOL     OW90526   4.058   5.268   7.492
96251SOL    HW190527   4.114   5.308   7.557
96251SOL    HW290528   4.118   5.226   7.430
96252SOL     OW90529   9.054   5.757  11.593
96252SOL    HW190530   8.971   5.741  11.548
96252SOL    HW290531   9.107   5.803  11.528
96253SOL     OW90532  13.570  14.001  10.554
96253SOL    HW190533  13.603  14.064  10.491
96253SOL    HW290534  13.571  14.048  10.638
96254SOL     OW90535  13.534   2.343   9.521
96254SOL    HW190536  13.456   2.362   9.468
96254SOL    HW290537  13.565   2.259   9.488
96255SOL     OW90538   0.094   1.890   9.576
96255SOL    HW190539  14.876   1.886   9.578
96255SOL    HW290540   0.119   1.832   9.503
96256SOL     OW90541  13.984   7.999  12.881
96256SOL    HW190542  13.956   7.907  12.881
96256SOL    HW290543  14.077   7.995  12.858
96257SOL     OW90544   8.918   5.799  10.441
96257SOL    HW190545   8.836   5.760  10.471
96257SOL    HW290546   8.985   5.763  10.500
96258SOL     OW90547  10.113   6.051   8.263
96258SOL    HW190548  10.093   5.967   8.222
96258SOL    HW290549  10.175   6.093   8.203
96259SOL     OW90550  10.074   9.009  13.511
96259SOL    HW190551  10.129   9.068  13.459
96259SOL    HW290552  10.059   9.058  13.593
96260SOL     OW90553   1.816   0.055   8.467
96260SOL    HW190554   1.773   0.140   8.471
96260SOL    HW290555   1.747  14.872   8.438
96261SOL     OW90556   2.666  14.824   7.236
96261SOL    HW190557   2.678   0.007   7.310
96261SOL    HW290558   2.642  14.741   7.277
96262SOL     OW90559   5.853   5.846   5.956
96262SOL    HW190560   5.879   5.760   5.989
96262SOL    HW290561   5.831   5.897   6.035
96263SOL     OW90562  13.069  13.180  10.215
96263SOL    HW190563  13.003  13.251  10.215
96263SOL    HW290564  13.143  13.216  10.166
96264SOL     OW90565  10.159   3.297   8.043
96264SOL    HW190566  10.220   3.357   8.086
96264SOL    HW290567  10.205   3.213   8.041
96265SOL     OW90568   5.724   1.085   8.797
96265SOL    HW190569   5.655   1.054   8.739
96265SOL    HW290570   5.754   1.166   8.755
96266SOL     OW90571  14.735   2.003  11.952
96266SOL    HW190572  14.716   2.016  12.045
96266SOL    HW290573  14.717   1.911  11.936
96267SOL     OW90574  11.354   0.658   8.834
96267SOL    HW190575  11.325   0.579   8.788
96267SOL    HW290576  11.409   0.626   8.905
96268SOL     OW90577   1.916   4.564   1.345
96268SOL    HW190578   1.827   4.570   1.310
96268SOL    HW290579   1.955   4.490   1.299
96269SOL     OW90580  14.423  11.702  13.231
96269SOL    HW190581  14.409  11.669  13.320
96269SOL    HW290582  14.335  11.713  13.196
96270SOL     OW90583  11.873  10.327   2.667
96270SOL    HW190584  11.891  10.368   2.583
96270SOL    HW290585  11.779  10.340   2.681
96271SOL     OW90586  11.977   2.761   3.976
96271SOL    HW190587  11.939   2.834   3.928
96271SOL    HW290588  11.912   2.740   4.044
96272SOL     OW90589   4.697   4.343   1.344
96272SOL    HW190590   4.675   4.419   1.289
96272SOL    HW290591   4.758   4.378   1.409
96273SOL     OW90592   1.279   2.238   8.198
96273SOL    HW190593   1.319   2.230   8.111
96273SOL    HW290594   1.231   2.321   8.195
96274SOL     OW90595   2.343   9.137   4.103
96274SOL    HW190596   2.386   9.139   4.189
96274SOL    HW290597   2.389   9.068   4.055
96275SOL     OW90598  12.111   1.250  13.422
96275SOL    HW190599  12.182   1.271  13.362
96275SOL    HW290600  12.047   1.320  13.408
96276SOL     OW90601   7.443   8.205  10.449
96276SOL    HW190602   7.462   8.185  10.541
96276SOL    HW290603   7.436   8.300  10.447
96277SOL     OW90604  14.680   9.507  14.786
96277SOL    HW190605  14.601   9.490  14.735
96277SOL    HW290606  14.661   9.587  14.834
96278SOL     OW90607  14.119   3.624  14.846
96278SOL    HW190608  14.151   3.640   0.058
96278SOL    HW290609  14.024   3.627  14.854
96279SOL     OW90610   5.561   6.396   8.739
96279SOL    HW190611   5.652   6.410   8.765
96279SOL    HW290612   5.527   6.484   8.724
96280SOL     OW90613   0.631  12.639   4.312
96280SOL    HW190614   0.578  12.715   4.338
96280SOL    HW290615   0.572  12.564   4.319
96281SOL     OW90616  10.281  13.002   3.785
96281SOL    HW190617  10.299  13.075   3.844
96281SOL    HW290618  10.207  12.956   3.825
96282SOL     OW90619  13.204   5.187   4.312
96282SOL    HW190620  13.291   5.169   4.348
96282SOL    HW290621  13.202   5.141   4.228
96283SOL     OW90622   8.792   4.880   1.688
96283SOL    HW190623   8.875   4.842   1.715
96283SOL    HW290624   8.816   4.958   1.639
96284SOL     OW90625   5.347  13.632  10.645
96284SOL    HW190626   5.364  13.679  10.563
96284SOL    HW290627   5.384  13.545  10.631
96285SOL     OW90628  10.374   7.327   2.561
96285SOL    HW190629  10.412   7.372   2.637
96285SOL    HW290630  10.316   7.393   2.522
96286SOL     OW90631   4.995  12.908  11.484
96286SOL    HW190632   5.088  12.885  11.478
96286SOL    HW290633   4.995  12.999  11.516
96287SOL     OW90634  13.568   9.894   5.646
96287SOL    HW190635  13.493   9.947   5.673
96287SOL    HW290636  13.645   9.945   5.673
96288SOL     OW90637   4.480   0.627  12.357
96288SOL    HW190638   4.390   0.596  12.344
96288SOL    HW290639   4.530   0.549  12.381
96289SOL     OW90640   8.811   9.977   2.661
96289SOL    HW190641   8.730  10.024   2.678
96289SOL    HW290642   8.820   9.979   2.565
96290SOL     OW90643  13.226  10.852   3.419
96290SOL    HW190644  13.132  10.836   3.420
96290SOL    HW290645  13.265  10.765   3.425
96291SOL     OW90646   8.772   5.940  11.024
96291SOL    HW190647   8.677   5.931  11.016
96291SOL    HW290648   8.788   6.033  11.008
96292SOL     OW90649  11.056  12.547  11.510
96292SOL    HW190650  11.061  12.587  11.597
96292SOL    HW290651  11.099  12.610  11.453
96293SOL     OW90652   6.298  14.238  11.196
96293SOL    HW190653   6.274  14.317  11.148
96293SOL    HW290654   6.386  14.256  11.230
96294SOL     OW90655  14.369   7.517  14.869
96294SOL    HW190656  14.383   7.602   0.032
96294SOL    HW290657  14.323   7.536  14.787
96295SOL     OW90658   3.724  12.621   3.842
96295SOL    HW190659   3.640  12.609   3.886
96295SOL    HW290660   3.722  12.710   3.809
96296SOL     OW90661  14.411   6.953  14.029
96296SOL    HW190662  14.348   7.020  14.056
96296SOL    HW290663  14.388   6.876  14.081
96297SOL     OW90664  13.093   4.645   8.882
96297SOL    HW190665  13.131   4.557   8.880
96297SOL    HW290666  13.100   4.673   8.973
96298SOL     OW90667   0.297  11.317  10.315
96298SOL    HW190668   0.212  11.335  10.276
96298SOL    HW290669   0.318  11.396  10.365
96299SOL     OW90670  10.994   7.183  13.555
96299SOL    HW190671  11.072   7.238  13.550
96299SOL    HW290672  10.951   7.195  13.470
96300SOL     OW90673  11.146  10.277  10.606
96300SOL    HW190674  11.240  10.287  10.620
96300SOL    HW290675  11.107  10.298  10.691
96301SOL     OW90676   5.385   7.026  13.348
96301SOL    HW190677   5.324   6.953  13.335
96301SOL    HW290678   5.471   6.986  13.342
96302SOL     OW90679  14.088   0.995   5.549
96302SOL    HW190680  14.016   1.003   5.612
96302SOL    HW290681  14.165   1.022   5.598
96303SOL     OW90682   5.173   5.525   7.959
96303SOL    HW190683   5.195   5.482   7.876
96303SOL    HW290684   5.246   5.585   7.974
96304SOL     OW90685   6.451   9.972   2.389
96304SOL    HW190686   6.469  10.053   2.438
96304SOL    HW290687   6.364   9.987   2.352
96305SOL     OW90688  12.476   2.136  11.399
96305SOL    HW190689  12.430   2.159  11.318
96305SOL    HW290690  12.424   2.176  11.468
96306SOL     OW90691   0.199   7.749  14.529
96306SOL    HW190692   0.241   7.721  14.610
96306SOL    HW290693   0.114   7.782  14.556
96307SOL     OW90694   7.628  10.163   4.364
96307SOL    HW190695   7.588  10.183   4.280
96307SOL    HW290696   7.564  10.192   4.429
96308SOL     OW90697   0.881  12.708  14.633
96308SOL    HW190698   0.815  12.638  14.633
96308SOL    HW290699   0.959  12.668  14.596
96309SOL     OW90700   2.307   3.291   7.696
96309SOL    HW190701   2.275   3.340   7.620
96309SOL    HW290702   2.231   3.284   7.754
96310SOL     OW90703   4.105  14.680   5.956
96310SOL    HW190704   4.190  14.689   5.999
96310SOL    HW290705   4.106  14.592   5.918
96311SOL     OW90706  12.437  10.490   8.904
96311SOL    HW190707  12.466  10.542   8.829
96311SOL    HW290708  12.507  10.501   8.969
96312SOL     OW90709   6.732   6.479   3.119
96312SOL    HW190710   6.683   6.441   3.191
96312SOL    HW290711   6.768   6.403   3.072
96313SOL     OW90712   2.870  12.503   6.896
96313SOL    HW190713   2.822  12.495   6.978
96313SOL    HW290714   2.955  12.462   6.913
96314SOL     OW90715  13.881  10.913   3.599
96314SOL    HW190716  13.882  11.004   3.569
96314SOL    HW290717  13.914  10.863   3.524
96315SOL     OW90718  11.918   5.507  12.268
96315SOL    HW190719  12.007   5.476  12.283
96315SOL    HW290720  11.927   5.575  12.202
96316SOL     OW90721  10.341   9.591  11.098
96316SOL    HW190722  10.255   9.580  11.140
96316SOL    HW290723  10.398   9.527  11.140
96317SOL     OW90724   9.310  14.363   6.922
96317SOL    HW190725   9.309  14.333   6.831
96317SOL    HW290726   9.226  14.406   6.934
96318SOL     OW90727  10.188  10.637   1.539
96318SOL    HW190728  10.260  10.620   1.478
96318SOL    HW290729  10.138  10.555   1.540
96319SOL     OW90730  12.347   7.863   2.314
96319SOL    HW190731  12.411   7.795   2.292
96319SOL    HW290732  12.273   7.845   2.256
96320SOL     OW90733   0.984   1.530   2.891
96320SOL    HW190734   0.951   1.467   2.955
96320SOL    HW290735   0.919   1.600   2.890
96321SOL     OW90736   2.284  11.605  10.266
96321SOL    HW190737   2.372  11.570  10.279
96321SOL    HW290738   2.254  11.630  10.353
96322SOL     OW90739   1.666   8.848   6.379
96322SOL    HW190740   1.710   8.772   6.416
96322SOL    HW290741   1.702   8.923   6.426
96323SOL     OW90742   4.624   4.190   7.919
96323SOL    HW190743   4.556   4.247   7.955
96323SOL    HW290744   4.584   4.103   7.916
96324SOL     OW90745   2.515  11.208   1.868
96324SOL    HW190746   2.420  11.200   1.864
96324SOL    HW290747   2.535  11.224   1.960
96325SOL     OW90748  13.360  10.147   3.341
96325SOL    HW190749  13.404  10.073   3.383
96325SOL    HW290750  13.267  10.127   3.349
96326SOL     OW90751   2.354   9.230  14.002
96326SOL    HW190752   2.336   9.251  13.910
96326SOL    HW290753   2.450   9.231  14.008
96327SOL     OW90754   2.047   4.503  12.396
96327SOL    HW190755   2.072   4.417  12.430
96327SOL    HW290756   2.028   4.555  12.473
96328SOL     OW90757   1.177   7.274   1.459
96328SOL    HW190758   1.209   7.184   1.456
96328SOL    HW290759   1.133   7.281   1.544
96329SOL     OW90760   2.761   6.531  13.143
96329SOL    HW190761   2.709   6.454  13.118
96329SOL    HW290762   2.712   6.606  13.109
96330SOL     OW90763  13.832   3.067  10.691
96330SOL    HW190764  13.738   3.063  10.704
96330SOL    HW290765  13.860   3.147  10.736
96331SOL     OW90766   8.436   6.106   9.455
96331SOL    HW190767   8.396   6.089   9.540
96331SOL    HW290768   8.366   6.145   9.403
96332SOL     OW90769   5.140   6.994   7.149
96332SOL    HW190770   5.046   7.011   7.136
96332SOL    HW290771   5.167   6.947   7.070
96333SOL     OW90772  11.161   8.834   1.761
96333SOL    HW190773  11.196   8.915   1.798
96333SOL    HW290774  11.130   8.785   1.837
96334SOL     OW90775  13.109   6.164   2.353
96334SOL    HW190776  13.079   6.200   2.437
96334SOL    HW290777  13.191   6.120   2.374
96335SOL     OW90778  10.487  14.693  12.887
96335SOL    HW190779  10.557  14.655  12.942
96335SOL    HW290780  10.465  14.775  12.930
96336SOL     OW90781  10.350  12.131  10.536
96336SOL    HW190782  10.373  12.062  10.598
96336SOL    HW290783  10.361  12.091  10.450
96337SOL     OW90784   8.221  12.138  13.701
96337SOL    HW190785   8.176  12.119  13.619
96337SOL    HW290786   8.263  12.056  13.725
96338SOL     OW90787   5.070   4.698   7.165
96338SOL    HW190788   5.049   4.786   7.194
96338SOL    HW290789   5.149   4.674   7.214
96339SOL     OW90790   6.072   5.293  13.359
96339SOL    HW190791   6.010   5.350  13.313
96339SOL    HW290792   6.094   5.225  13.295
96340SOL     OW90793   7.313   1.814   8.446
96340SOL    HW190794   7.258   1.743   8.412
96340SOL    HW290795   7.275   1.893   8.408
96341SOL     OW90796   4.561   1.930   9.348
96341SOL    HW190797   4.503   1.941   9.423
96341SOL    HW290798   4.598   1.842   9.358
96342SOL     OW90799   6.952   7.276  10.706
96342SOL    HW190800   6.861   7.288  10.681
96342SOL    HW290801   6.999   7.265  10.623
96343SOL     OW90802  11.533   2.425  14.660
96343SOL    HW190803  11.466   2.436  14.592
96343SOL    HW290804  11.598   2.366  14.620
96344SOL     OW90805  14.087   1.572  14.236
96344SOL    HW190806  14.023   1.582  14.307
96344SOL    HW290807  14.064   1.489  14.195
96345SOL     OW90808  14.432   0.259   8.724
96345SOL    HW190809  14.375   0.202   8.776
96345SOL    HW290810  14.381   0.280   8.647
96346SOL     OW90811   8.641  13.390   0.056
96346SOL    HW190812   8.581  13.465   0.055
96346SOL    HW290813   8.638  13.358   0.146
96347SOL     OW90814   0.272   6.753   3.940
96347SOL    HW190815   0.255   6.840   3.903
96347SOL    HW290816   0.326   6.709   3.875
96348SOL     OW90817   2.565   7.739   3.668
96348SOL    HW190818   2.654   7.709   3.689
96348SOL    HW290819   2.575   7.785   3.584
96349SOL     OW90820  13.772  13.550   5.432
96349SOL    HW190821  13.727  13.629   5.402
96349SOL    HW290822  13.703  13.483   5.436
96350SOL     OW90823   8.478  13.676  11.385
96350SOL    HW190824   8.536  13.612  11.427
96350SOL    HW290825   8.471  13.748  11.448
96351SOL     OW90826  10.781   8.325  13.174
96351SOL    HW190827  10.832   8.403  13.151
96351SOL    HW290828  10.718   8.357  13.239
96352SOL     OW90829  13.467   0.698   0.226
96352SOL    HW190830  13.435   0.743   0.148
96352SOL    HW290831  13.392   0.694   0.284
96353SOL     OW90832  12.738  13.535  11.334
96353SOL    HW190833  12.815  13.481  11.321
96353SOL    HW290834  12.694  13.497  11.409
96354SOL     OW90835  12.205   9.793  10.057
96354SOL    HW190836  12.288   9.766  10.097
96354SOL    HW290837  12.193   9.883  10.087
96355SOL     OW90838   2.133  11.958   7.510
96355SOL    HW190839   2.113  11.904   7.433
96355SOL    HW290840   2.166  12.040   7.473
96356SOL     OW90841   5.992   6.016  10.193
96356SOL    HW190842   5.958   6.059  10.272
96356SOL    HW290843   5.920   5.961  10.163
96357SOL     OW90844   3.113   3.221  11.398
96357SOL    HW190845   3.099   3.278  11.322
96357SOL    HW290846   3.053   3.254  11.465
96358SOL     OW90847  12.870  12.375  10.375
96358SOL    HW190848  12.837  12.286  10.387
96358SOL    HW290849  12.793  12.431  10.388
96359SOL     OW90850   1.793  11.674  11.601
96359SOL    HW190851   1.869  11.618  11.614
96359SOL    HW290852   1.812  11.721  11.520
96360SOL     OW90853   3.823   9.903  12.917
96360SOL    HW190854   3.753   9.957  12.879
96360SOL    HW290855   3.878   9.966  12.963
96361SOL     OW90856   2.572   8.148  13.805
96361SOL    HW190857   2.554   8.229  13.852
96361SOL    HW290858   2.567   8.080  13.872
96362SOL     OW90859  13.490   6.800  11.079
96362SOL    HW190860  13.490   6.772  10.987
96362SOL    HW290861  13.405   6.842  11.091
96363SOL     OW90862   4.640   8.768   3.690
96363SOL    HW190863   4.684   8.843   3.730
96363SOL    HW290864   4.662   8.694   3.746
96364SOL     OW90865   4.123  11.325  14.762
96364SOL    HW190866   4.159  11.414  14.754
96364SOL    HW290867   4.122  11.292  14.672
96365SOL     OW90868   7.154  12.392   0.995
96365SOL    HW190869   7.200  12.455   1.050
96365SOL    HW290870   7.061  12.405   1.016
96366SOL     OW90871   7.501   5.398   0.618
96366SOL    HW190872   7.566   5.365   0.680
96366SOL    HW290873   7.420   5.353   0.642
96367SOL     OW90874   4.512   9.493  13.895
96367SOL    HW190875   4.427   9.532  13.916
96367SOL    HW290876   4.502   9.401  13.919
96368SOL     OW90877   4.866   1.699   5.441
96368SOL    HW190878   4.880   1.674   5.533
96368SOL    HW290879   4.901   1.626   5.391
96369SOL     OW90880  12.808  10.155   6.460
96369SOL    HW190881  12.824  10.167   6.366
96369SOL    HW290882  12.871  10.087   6.486
96370SOL     OW90883   1.171   5.554   9.527
96370SOL    HW190884   1.207   5.615   9.463
96370SOL    HW290885   1.076   5.570   9.524
96371SOL     OW90886   2.340   4.341  10.705
96371SOL    HW190887   2.300   4.278  10.766
96371SOL    HW290888   2.394   4.287  10.647
96372SOL     OW90889   2.840   1.113   7.284
96372SOL    HW190890   2.823   1.021   7.307
96372SOL    HW290891   2.797   1.125   7.199
96373SOL     OW90892   2.233  10.005   1.629
96373SOL    HW190893   2.155  10.049   1.661
96373SOL    HW290894   2.300  10.024   1.695
96374SOL     OW90895   7.949  12.828   2.699
96374SOL    HW190896   7.921  12.885   2.770
96374SOL    HW290897   7.917  12.742   2.723
96375SOL     OW90898   7.419   5.679   2.024
96375SOL    HW190899   7.350   5.741   2.000
96375SOL    HW290900   7.380   5.625   2.093
96376SOL     OW90901   7.779  10.937   8.380
96376SOL    HW190902   7.761  10.855   8.427
96376SOL    HW290903   7.874  10.936   8.367
96377SOL     OW90904   1.648   1.767   2.125
96377SOL    HW190905   1.683   1.749   2.212
96377SOL    HW290906   1.699   1.711   2.066
96378SOL     OW90907   4.268   0.501   3.707
96378SOL    HW190908   4.317   0.520   3.787
96378SOL    HW290909   4.295   0.569   3.645
96379SOL     OW90910   1.809   4.641  12.011
96379SOL    HW190911   1.881   4.675  12.063
96379SOL    HW290912   1.761   4.583  12.070
96380SOL     OW90913  13.087  11.862   9.532
96380SOL    HW190914  13.064  11.875   9.440
96380SOL    HW290915  13.055  11.940   9.576
96381SOL     OW90916  12.619   2.658   2.115
96381SOL    HW190917  12.710   2.642   2.091
96381SOL    HW290918  12.578   2.690   2.035
96382SOL     OW90919   7.524  13.242  14.619
96382SOL    HW190920   7.473  13.266  14.697
96382SOL    HW290921   7.600  13.196  14.654
96383SOL     OW90922   7.537   3.116  12.419
96383SOL    HW190923   7.506   3.206  12.408
96383SOL    HW290924   7.575   3.093  12.335
96384SOL     OW90925   3.557   1.745  14.607
96384SOL    HW190926   3.595   1.658  14.624
96384SOL    HW290927   3.630   1.796  14.572
96385SOL     OW90928   7.735   1.981  12.350
96385SOL    HW190929   7.799   1.979  12.279
96385SOL    HW290930   7.651   1.970  12.306
96386SOL     OW90931   4.283   1.736  12.693
96386SOL    HW190932   4.327   1.696  12.767
96386SOL    HW290933   4.220   1.796  12.731
96387SOL     OW90934   1.875   9.738   2.240
96387SOL    HW190935   1.872   9.790   2.321
96387SOL    HW290936   1.820   9.786   2.178
96388SOL     OW90937  13.673   7.485  12.592
96388SOL    HW190938  13.744   7.455  12.535
96388SOL    HW290939  13.593   7.454  12.550
96389SOL     OW90940   0.314   0.294  11.386
96389SOL    HW190941   0.370   0.217  11.390
96389SOL    HW290942   0.362   0.361  11.435
96390SOL     OW90943  12.624   1.929   7.302
96390SOL    HW190944  12.539   1.895   7.330
96390SOL    HW290945  12.646   1.995   7.368
96391SOL     OW90946  12.417  13.259   6.534
96391SOL    HW190947  12.389  13.350   6.538
96391SOL    HW290948  12.395  13.223   6.620
96392SOL     OW90949   0.582  12.869  11.087
96392SOL    HW190950   0.547  12.781  11.103
96392SOL    HW290951   0.632  12.889  11.166
96393SOL     OW90952   0.453   7.118  13.285
96393SOL    HW190953   0.389   7.183  13.257
96393SOL    HW290954   0.508   7.104  13.208
96394SOL     OW90955  10.634  14.745   5.681
96394SOL    HW190956  10.591  14.671   5.725
96394SOL    HW290957  10.579  14.820   5.703
96395SOL     OW90958   2.658   3.328  11.814
96395SOL    HW190959   2.662   3.416  11.777
96395SOL    HW290960   2.589   3.284  11.766
96396SOL     OW90961  14.577   1.310  10.646
96396SOL    HW190962  14.654   1.358  10.617
96396SOL    HW290963  14.611   1.235  10.695
96397SOL     OW90964   6.222  13.659  11.972
96397SOL    HW190965   6.201  13.565  11.968
96397SOL    HW290966   6.282  13.673  11.898
96398SOL     OW90967   0.479   9.512  12.670
96398SOL    HW190968   0.523   9.448  12.726
96398SOL    HW290969   0.487   9.595  12.717
96399SOL     OW90970  14.171   6.402   1.247
96399SOL    HW190971  14.185   6.355   1.164
96399SOL    HW290972  14.088   6.368   1.280
96400SOL     OW90973   5.471  14.419   6.120
96400SOL    HW190974   5.488  14.362   6.196
96400SOL    HW290975   5.380  14.445   6.129
96401SOL     OW90976   8.867   1.778   9.894
96401SOL    HW190977   8.892   1.870   9.894
96401SOL    HW290978   8.948   1.732   9.917
96402SOL     OW90979   9.702  12.203   5.601
96402SOL    HW190980   9.617  12.161   5.617
96402SOL    HW290981   9.733  12.163   5.519
96403SOL     OW90982  13.074   6.476   9.354
96403SOL    HW190983  13.063   6.522   9.437
96403SOL    HW290984  13.145   6.524   9.310
96404SOL     OW90985   6.171  11.107   2.653
96404SOL    HW190986   6.182  11.173   2.584
96404SOL    HW290987   6.257  11.067   2.662
96405SOL     OW90988   4.925   5.672   9.084
96405SOL    HW190989   4.998   5.659   9.024
96405SOL    HW290990   4.857   5.612   9.053
96406SOL     OW90991   6.987  11.970   8.217
96406SOL    HW190992   6.897  11.940   8.217
96406SOL    HW290993   7.012  11.970   8.310
96407SOL     OW90994  11.901  14.108   6.013
96407SOL    HW190995  11.900  14.151   6.099
96407SOL    HW290996  11.883  14.016   6.032
96408SOL     OW90997   3.829   0.565   9.514
96408SOL    HW190998   3.763   0.521   9.567
96408SOL    HW290999   3.788   0.575   9.428
96409SOL     OW91000   9.243   3.614  11.946
96409SOL    HW191001   9.186   3.685  11.976
96409SOL    HW291002   9.211   3.536  11.991
96410SOL     OW91003   6.352   0.055  11.301
96410SOL    HW191004   6.344   0.004  11.381
96410SOL    HW291005   6.344   0.146  11.330
96411SOL     OW91006   8.062   8.116  14.636
96411SOL    HW191007   8.132   8.052  14.650
96411SOL    HW291008   8.103   8.186  14.585
96412SOL     OW91009  13.986   0.095   6.161
96412SOL    HW191010  14.040   0.134   6.230
96412SOL    HW291011  14.026   0.010   6.144
96413SOL     OW91012  12.285  14.842  11.514
96413SOL    HW191013  12.308   0.032  11.450
96413SOL    HW291014  12.368  14.818  11.555
96414SOL     OW91015  14.325  13.749  13.922
96414SOL    HW191016  14.328  13.741  13.827
96414SOL    HW291017  14.394  13.692  13.954
96415SOL     OW91018  12.326   8.115   9.734
96415SOL    HW191019  12.278   8.105   9.816
96415SOL    HW291020  12.308   8.205   9.707
96416SOL     OW91021  13.386   0.317   6.139
96416SOL    HW191022  13.451   0.283   6.077
96416SOL    HW291023  13.424   0.399   6.171
96417SOL     OW91024   4.393   9.415  10.196
96417SOL    HW191025   4.317   9.440  10.249
96417SOL    HW291026   4.468   9.436  10.252
96418SOL     OW91027  10.408   4.374   7.483
96418SOL    HW191028  10.420   4.300   7.424
96418SOL    HW291029  10.317   4.367   7.512
96419SOL     OW91030  12.029   4.800   8.709
96419SOL    HW191031  12.053   4.809   8.801
96419SOL    HW291032  11.933   4.804   8.709
96420SOL     OW91033  13.507  10.488   4.625
96420SOL    HW191034  13.529  10.416   4.684
96420SOL    HW291035  13.540  10.566   4.670
96421SOL     OW91036   8.024  10.036   4.785
96421SOL    HW191037   8.011  10.009   4.694
96421SOL    HW291038   7.993  10.126   4.788
96422SOL     OW91039   0.734  12.125   7.281
96422SOL    HW191040   0.660  12.092   7.333
96422SOL    HW291041   0.803  12.061   7.295
96423SOL     OW91042   9.917  12.883   2.617
96423SOL    HW191043   9.930  12.912   2.527
96423SOL    HW291044   9.877  12.796   2.608
96424SOL     OW91045  11.049   1.938  12.375
96424SOL    HW191046  11.045   2.014  12.317
96424SOL    HW291047  11.064   1.975  12.462
96425SOL     OW91048  12.200  11.032   3.019
96425SOL    HW191049  12.166  11.117   3.046
96425SOL    HW291050  12.164  10.970   3.083
96426SOL     OW91051  13.921   6.372  14.226
96426SOL    HW191052  14.007   6.409  14.211
96426SOL    HW291053  13.860   6.437  14.191
96427SOL     OW91054  10.708   7.935   9.725
96427SOL    HW191055  10.664   7.907   9.644
96427SOL    HW291056  10.782   7.988   9.695
96428SOL     OW91057   4.945   0.893  13.086
96428SOL    HW191058   4.862   0.846  13.097
96428SOL    HW291059   5.011   0.832  13.121
96429SOL     OW91060   3.544  10.081   2.063
96429SOL    HW191061   3.607  10.059   1.995
96429SOL    HW291062   3.540  10.177   2.062
96430SOL     OW91063   3.663   9.879  13.795
96430SOL    HW191064   3.714   9.839  13.724
96430SOL    HW291065   3.580   9.903  13.754
96431SOL     OW91066   2.719   7.445   5.489
96431SOL    HW191067   2.659   7.426   5.561
96431SOL    HW291068   2.688   7.390   5.417
96432SOL     OW91069  14.725  13.620  13.675
96432SOL    HW191070  14.720  13.701  13.624
96432SOL    HW291071  14.818  13.612  13.697
96433SOL     OW91072  10.619   7.162  12.082
96433SOL    HW191073  10.698   7.127  12.042
96433SOL    HW291074  10.550   7.146  12.019
96434SOL     OW91075  13.613   2.794  11.783
96434SOL    HW191076  13.609   2.724  11.717
96434SOL    HW291077  13.525   2.832  11.783
96435SOL     OW91078   5.681   6.548  10.862
96435SOL    HW191079   5.722   6.519  10.780
96435SOL    HW291080   5.744   6.523  10.930
96436SOL     OW91081   8.444  12.200  14.860
96436SOL    HW191082   8.515  12.263  14.847
96436SOL    HW291083   8.482  12.115  14.837
96437SOL     OW91084   9.788   8.911   4.014
96437SOL    HW191085   9.715   8.970   4.034
96437SOL    HW291086   9.845   8.962   3.957
96438SOL     OW91087   1.919  10.474   6.538
96438SOL    HW191088   1.887  10.443   6.454
96438SOL    HW291089   1.937  10.567   6.524
96439SOL     OW91090   0.085  11.412   6.047
96439SOL    HW191091   0.168  11.457   6.030
96439SOL    HW291092   0.055  11.384   5.961
96440SOL     OW91093   1.886   9.937   1.059
96440SOL    HW191094   1.969   9.902   1.092
96440SOL    HW291095   1.885  10.028   1.091
96441SOL     OW91096   4.592   1.940   8.468
96441SOL    HW191097   4.551   1.877   8.408
96441SOL    HW291098   4.662   1.890   8.510
96442SOL     OW91099   4.327   7.930   4.929
96442SOL    HW191100   4.408   7.893   4.893
96442SOL    HW291101   4.333   8.023   4.911
96443SOL     OW91102   7.616   0.918  11.961
96443SOL    HW191103   7.704   0.931  11.927
96443SOL    HW291104   7.599   0.997  12.013
96444SOL     OW91105   5.931  11.667  14.627
96444SOL    HW191106   5.944  11.758  14.653
96444SOL    HW291107   5.928  11.618  14.709
96445SOL     OW91108  13.255  10.399   8.459
96445SOL    HW191109  13.318  10.329   8.476
96445SOL    HW291110  13.180  10.379   8.515
96446SOL     OW91111   7.856  11.840   4.144
96446SOL    HW191112   7.839  11.749   4.168
96446SOL    HW291113   7.854  11.839   4.048
96447SOL     OW91114   4.898  12.058  13.798
96447SOL    HW191115   4.814  12.064  13.751
96447SOL    HW291116   4.878  12.006  13.876
96448SOL     OW91117  12.175  14.314   1.132
96448SOL    HW191118  12.185  14.271   1.047
96448SOL    HW291119  12.177  14.242   1.195
96449SOL     OW91120   5.507  10.453  11.527
96449SOL    HW191121   5.495  10.456  11.432
96449SOL    HW291122   5.463  10.531  11.559
96450SOL     OW91123  13.146   3.313   0.728
96450SOL    HW191124  13.239   3.331   0.716
96450SOL    HW291125  13.112   3.388   0.776
96451SOL     OW91126  11.239   2.644   7.931
96451SOL    HW191127  11.267   2.647   7.840
96451SOL    HW291128  11.170   2.577   7.933
96452SOL     OW91129   6.797   6.742   3.982
96452SOL    HW191130   6.740   6.742   4.059
96452SOL    HW291131   6.808   6.834   3.961
96453SOL     OW91132  12.012   6.372  11.092
96453SOL    HW191133  12.027   6.320  11.171
96453SOL    HW291134  11.936   6.426  11.113
96454SOL     OW91135   2.986  11.355   5.844
96454SOL    HW191136   3.032  11.433   5.876
96454SOL    HW291137   3.022  11.340   5.757
96455SOL     OW91138  12.690   4.178   0.290
96455SOL    HW191139  12.609   4.141   0.325
96455SOL    HW291140  12.713   4.121   0.217
96456SOL     OW91141   0.329   7.455   3.372
96456SOL    HW191142   0.362   7.443   3.461
96456SOL    HW291143   0.275   7.377   3.357
96457SOL     OW91144   0.201   5.590   5.676
96457SOL    HW191145   0.268   5.632   5.730
96457SOL    HW291146   0.244   5.575   5.591
96458SOL     OW91147  12.364   1.722   3.688
96458SOL    HW191148  12.380   1.738   3.595
96458SOL    HW291149  12.331   1.632   3.692
96459SOL     OW91150   5.383   6.118   7.827
96459SOL    HW191151   5.369   6.205   7.788
96459SOL    HW291152   5.351   6.057   7.762
96460SOL     OW91153   6.177   3.119   6.942
96460SOL    HW191154   6.149   3.032   6.972
96460SOL    HW291155   6.111   3.179   6.977
96461SOL     OW91156   5.007  10.135   9.517
96461SOL    HW191157   4.924  10.179   9.538
96461SOL    HW291158   5.027  10.163   9.427
96462SOL     OW91159  14.449  12.229   2.627
96462SOL    HW191160  14.404  12.300   2.579
96462SOL    HW291161  14.496  12.181   2.559
96463SOL     OW91162  10.916   8.560   5.537
96463SOL    HW191163  10.964   8.633   5.499
96463SOL    HW291164  10.867   8.522   5.464
96464SOL     OW91165  13.568   6.861   6.783
96464SOL    HW191166  13.531   6.904   6.860
96464SOL    HW291167  13.515   6.891   6.710
96465SOL     OW91168   6.853   5.343   1.394
96465SOL    HW191169   6.759   5.355   1.399
96465SOL    HW291170   6.871   5.262   1.441
96466SOL     OW91171   3.998   3.913   4.421
96466SOL    HW191172   4.021   3.822   4.438
96466SOL    HW291173   3.929   3.933   4.484
96467SOL     OW91174   1.348  13.711   2.333
96467SOL    HW191175   1.369  13.640   2.393
96467SOL    HW291176   1.297  13.774   2.386
96468SOL     OW91177   8.480   5.755  13.882
96468SOL    HW191178   8.448   5.791  13.964
96468SOL    HW291179   8.418   5.786  13.816
96469SOL     OW91180  12.921   1.818   6.815
96469SOL    HW191181  12.978   1.879   6.861
96469SOL    HW291182  12.947   1.826   6.723
96470SOL     OW91183   0.314   6.881   5.861
96470SOL    HW191184   0.284   6.939   5.791
96470SOL    HW291185   0.374   6.820   5.817
96471SOL     OW91186  10.140  11.959  13.085
96471SOL    HW191187  10.163  11.997  13.000
96471SOL    HW291188  10.187  11.876  13.087
96472SOL     OW91189   1.833   9.662   5.061
96472SOL    HW191190   1.799   9.679   5.149
96472SOL    HW291191   1.799   9.575   5.039
96473SOL     OW91192  12.934  13.329   3.983
96473SOL    HW191193  13.016  13.304   4.024
96473SOL    HW291194  12.951  13.324   3.889
96474SOL     OW91195   5.635   2.431  13.685
96474SOL    HW191196   5.638   2.369  13.612
96474SOL    HW291197   5.548   2.470  13.680
96475SOL     OW91198   9.914   1.002   7.077
96475SOL    HW191199   9.902   0.944   7.152
96475SOL    HW291200   9.966   1.075   7.110
96476SOL     OW91201  14.221   6.522   4.402
96476SOL    HW191202  14.218   6.552   4.311
96476SOL    HW291203  14.295   6.570   4.440
96477SOL     OW91204   3.459   2.165   1.626
96477SOL    HW191205   3.383   2.188   1.678
96477SOL    HW291206   3.462   2.070   1.627
96478SOL     OW91207   2.476  14.078   3.304
96478SOL    HW191208   2.441  14.132   3.233
96478SOL    HW291209   2.401  14.029   3.337
96479SOL     OW91210   0.451   5.205  13.374
96479SOL    HW191211   0.434   5.243  13.288
96479SOL    HW291212   0.398   5.126  13.376
96480SOL     OW91213   0.638   9.874   9.044
96480SOL    HW191214   0.723   9.913   9.024
96480SOL    HW291215   0.657   9.810   9.112
96481SOL     OW91216   1.280  12.296   2.450
96481SOL    HW191217   1.296  12.232   2.381
96481SOL    HW291218   1.317  12.378   2.417
96482SOL     OW91219   9.692   9.562  11.449
96482SOL    HW191220   9.692   9.475  11.410
96482SOL    HW291221   9.755   9.556  11.521
96483SOL     OW91222   1.966   6.374  11.789
96483SOL    HW191223   2.002   6.294  11.826
96483SOL    HW291224   2.026   6.443  11.817
96484SOL     OW91225  11.361  10.653  11.093
96484SOL    HW191226  11.375  10.593  11.165
96484SOL    HW291227  11.446  10.658  11.049
96485SOL     OW91228  13.300   0.107   5.836
96485SOL    HW191229  13.265   0.154   5.910
96485SOL    HW291230  13.233   0.115   5.768
96486SOL     OW91231   8.444   5.747  12.561
96486SOL    HW191232   8.366   5.769  12.511
96486SOL    HW291233   8.489   5.681  12.508
96487SOL     OW91234  11.136   7.802   4.992
96487SOL    HW191235  11.162   7.891   5.018
96487SOL    HW291236  11.213   7.766   4.949
96488SOL     OW91237   5.246  10.187   8.396
96488SOL    HW191238   5.221  10.231   8.477
96488SOL    HW291239   5.202  10.102   8.400
96489SOL     OW91240   5.558   0.022   9.878
96489SOL    HW191241   5.464   0.023   9.866
96489SOL    HW291242   5.584   0.114   9.881
96490SOL     OW91243  10.484  13.481  10.516
96490SOL    HW191244  10.556  13.423  10.541
96490SOL    HW291245  10.423  13.476  10.589
96491SOL     OW91246  10.870   6.648  10.790
96491SOL    HW191247  10.794   6.605  10.752
96491SOL    HW291248  10.914   6.691  10.716
96492SOL     OW91249  12.922  11.858  12.392
96492SOL    HW191250  12.962  11.795  12.333
96492SOL    HW291251  12.988  11.874  12.460
96493SOL     OW91252  12.517   7.102   0.614
96493SOL    HW191253  12.481   7.151   0.688
96493SOL    HW291254  12.440   7.064   0.571
96494SOL     OW91255   0.284   8.354  11.099
96494SOL    HW191256   0.234   8.284  11.057
96494SOL    HW291257   0.353   8.309  11.147
96495SOL     OW91258   8.938   0.818   3.989
96495SOL    HW191259   8.969   0.771   4.066
96495SOL    HW291260   9.002   0.888   3.975
96496SOL     OW91261   0.155  14.794   7.390
96496SOL    HW191262   0.116   0.004   7.384
96496SOL    HW291263   0.107  14.742   7.325
96497SOL     OW91264   1.223  13.017   1.964
96497SOL    HW191265   1.147  13.073   1.946
96497SOL    HW291266   1.299  13.070   1.939
96498SOL     OW91267  11.478  13.425   6.629
96498SOL    HW191268  11.521  13.354   6.677
96498SOL    HW291269  11.452  13.386   6.546
96499SOL     OW91270   0.379   9.597   4.735
96499SOL    HW191271   0.387   9.508   4.768
96499SOL    HW291272   0.286   9.605   4.710
96500SOL     OW91273  10.611  13.083  13.191
96500SOL    HW191274  10.620  12.988  13.192
96500SOL    HW291275  10.520  13.099  13.165
96501SOL     OW91276   8.748   3.499   7.591
96501SOL    HW191277   8.679   3.435   7.575
96501SOL    HW291278   8.808   3.488   7.518
96502SOL     OW91279   8.085   5.577  12.210
96502SOL    HW191280   8.073   5.636  12.135
96502SOL    HW291281   8.072   5.489  12.174
96503SOL     OW91282   8.361   5.440   6.801
96503SOL    HW191283   8.328   5.421   6.713
96503SOL    HW291284   8.286   5.425   6.859
96504SOL     OW91285  13.157  14.704  13.432
96504SOL    HW191286  13.191  14.794  13.431
96504SOL    HW291287  13.206  14.660  13.501
96505SOL     OW91288  12.259   3.387   1.047
96505SOL    HW191289  12.168   3.394   1.018
96505SOL    HW291290  12.278   3.293   1.043
96506SOL     OW91291   5.652   1.730   9.691
96506SOL    HW191292   5.723   1.721   9.627
96506SOL    HW291293   5.573   1.741   9.638
96507SOL     OW91294  14.677  10.061   0.054
96507SOL    HW191295  14.702  10.116   0.128
96507SOL    HW291296  14.633   9.986   0.094
96508SOL     OW91297  14.867  10.906  12.206
96508SOL    HW191298   0.032  10.900  12.120
96508SOL    HW291299   0.004  10.821  12.247
96509SOL     OW91300  11.427   2.201  12.498
96509SOL    HW191301  11.415   2.110  12.524
96509SOL    HW291302  11.400   2.252  12.574
96510SOL     OW91303   4.028   5.961   6.567
96510SOL    HW191304   4.078   6.033   6.527
96510SOL    HW291305   4.093   5.891   6.579
96511SOL     OW91306   4.473   1.766   4.220
96511SOL    HW191307   4.413   1.840   4.227
96511SOL    HW291308   4.422   1.697   4.178
96512SOL     OW91309   3.984  14.140   4.845
96512SOL    HW191310   3.970  14.204   4.775
96512SOL    HW291311   3.996  14.057   4.799
96513SOL     OW91312   4.872   1.119   6.962
96513SOL    HW191313   4.838   1.193   7.013
96513SOL    HW291314   4.805   1.052   6.971
96514SOL     OW91315   5.852   7.235   2.696
96514SOL    HW191316   5.831   7.280   2.778
96514SOL    HW291317   5.936   7.272   2.669
96515SOL     OW91318   9.012   5.877   0.081
96515SOL    HW191319   9.015   5.966   0.117
96515SOL    HW291320   9.095   5.837   0.107
96516SOL     OW91321   0.573   6.835   8.815
96516SOL    HW191322   0.539   6.868   8.898
96516SOL    HW291323   0.626   6.759   8.839
96517SOL     OW91324   2.224   5.619   1.584
96517SOL    HW191325   2.287   5.558   1.622
96517SOL    HW291326   2.259   5.638   1.497
96518SOL     OW91327   1.126  14.265  12.417
96518SOL    HW191328   1.192  14.329  12.392
96518SOL    HW291329   1.174  14.201  12.469
96519SOL     OW91330   4.097  13.351   4.898
96519SOL    HW191331   4.127  13.442   4.906
96519SOL    HW291332   4.003  13.358   4.881
96520SOL     OW91333   9.956   7.670   1.987
96520SOL    HW191334   9.880   7.631   2.031
96520SOL    HW291335   9.919   7.723   1.917
96521SOL     OW91336   0.533   0.681  11.344
96521SOL    HW191337   0.518   0.608  11.404
96521SOL    HW291338   0.573   0.641  11.267
96522SOL     OW91339  12.750   1.393   6.250
96522SOL    HW191340  12.695   1.361   6.322
96522SOL    HW291341  12.692   1.397   6.175
96523SOL     OW91342  12.807   8.868   9.154
96523SOL    HW191343  12.762   8.916   9.084
96523SOL    HW291344  12.804   8.928   9.229
96524SOL     OW91345   6.580   8.744  10.966
96524SOL    HW191346   6.498   8.788  10.990
96524SOL    HW291347   6.605   8.785  10.882
96525SOL     OW91348   6.130   4.896   3.091
96525SOL    HW191349   6.196   4.946   3.139
96525SOL    HW291350   6.177   4.856   3.018
96526SOL     OW91351   6.602  11.843   2.620
96526SOL    HW191352   6.579  11.892   2.699
96526SOL    HW291353   6.521  11.837   2.570
96527SOL     OW91354   8.837   1.233  11.607
96527SOL    HW191355   8.757   1.277  11.577
96527SOL    HW291356   8.879   1.297  11.665
96528SOL     OW91357  11.190  10.214   6.550
96528SOL    HW191358  11.117  10.235   6.608
96528SOL    HW291359  11.265  10.206   6.609
96529SOL     OW91360   8.129   0.983  10.575
96529SOL    HW191361   8.125   1.022  10.662
96529SOL    HW291362   8.175   0.900  10.588
96530SOL     OW91363   5.080   2.405   4.108
96530SOL    HW191364   5.057   2.362   4.191
96530SOL    HW291365   5.176   2.408   4.109
96531SOL     OW91366   5.640   2.022   2.816
96531SOL    HW191367   5.690   2.077   2.757
96531SOL    HW291368   5.580   2.082   2.861
96532SOL     OW91369  14.375   6.075   8.703
96532SOL    HW191370  14.292   6.110   8.671
96532SOL    HW291371  14.441   6.131   8.662
96533SOL     OW91372  13.817   1.133   0.630
96533SOL    HW191373  13.877   1.164   0.697
96533SOL    HW291374  13.866   1.141   0.548
96534SOL     OW91375  12.914  12.568   8.443
96534SOL    HW191376  12.942  12.531   8.359
96534SOL    HW291377  12.819  12.564   8.439
96535SOL     OW91378   8.458  14.645   9.026
96535SOL    HW191379   8.457  14.732   8.987
96535SOL    HW291380   8.438  14.586   8.953
96536SOL     OW91381   4.832  10.245   0.723
96536SOL    HW191382   4.830  10.241   0.818
96536SOL    HW291383   4.740  10.252   0.697
96537SOL     OW91384  10.853   5.824  13.865
96537SOL    HW191385  10.878   5.748  13.813
96537SOL    HW291386  10.815   5.885  13.802
96538SOL     OW91387  13.836   2.630   4.750
96538SOL    HW191388  13.931   2.619   4.743
96538SOL    HW291389  13.825   2.722   4.776
96539SOL     OW91390   3.986  10.388  11.768
96539SOL    HW191391   4.072  10.418  11.798
96539SOL    HW291392   3.936  10.374  11.848
96540SOL     OW91393   7.482  11.005   8.607
96540SOL    HW191394   7.562  10.973   8.647
96540SOL    HW291395   7.415  10.997   8.675
96541SOL     OW91396  13.974   0.419  14.317
96541SOL    HW191397  13.913   0.488  14.342
96541SOL    HW291398  13.920   0.353  14.273
96542SOL     OW91399   8.009  11.903   5.634
96542SOL    HW191400   7.986  11.977   5.577
96542SOL    HW291401   8.045  11.837   5.574
96543SOL     OW91402   8.451   5.935  14.471
96543SOL    HW191403   8.499   5.875  14.413
96543SOL    HW291404   8.361   5.934  14.437
96544SOL     OW91405   3.473   2.156  12.902
96544SOL    HW191406   3.536   2.218  12.940
96544SOL    HW291407   3.516   2.071  12.911
96545SOL     OW91408   0.783   8.231   0.506
96545SOL    HW191409   0.794   8.309   0.560
96545SOL    HW291410   0.694   8.237   0.472
96546SOL     OW91411   9.713  11.642   6.066
96546SOL    HW191412   9.645  11.579   6.088
96546SOL    HW291413   9.670  11.728   6.072
96547SOL     OW91414   9.172   3.794   6.002
96547SOL    HW191415   9.215   3.875   6.031
96547SOL    HW291416   9.087   3.795   6.046
96548SOL     OW91417   9.069   9.071  13.196
96548SOL    HW191418   9.163   9.056  13.182
96548SOL    HW291419   9.064   9.164  13.219
96549SOL     OW91420  10.996  14.570   7.692
96549SOL    HW191421  11.057  14.625   7.742
96549SOL    HW291422  10.986  14.616   7.608
96550SOL     OW91423  10.939  13.975   6.053
96550SOL    HW191424  10.887  14.051   6.026
96550SOL    HW291425  10.941  13.919   5.976
96551SOL     OW91426  10.364   0.094   3.868
96551SOL    HW191427  10.445   0.138   3.843
96551SOL    HW291428  10.294   0.146   3.828
96552SOL     OW91429   7.047  10.473   6.024
96552SOL    HW191430   7.124  10.487   6.080
96552SOL    HW291431   6.972  10.487   6.082
96553SOL     OW91432   9.388   8.983   6.244
96553SOL    HW191433   9.387   9.078   6.260
96553SOL    HW291434   9.345   8.973   6.159
96554SOL     OW91435   5.044  13.635   5.413
96554SOL    HW191436   4.982  13.677   5.474
96554SOL    HW291437   5.127  13.634   5.461
96555SOL     OW91438   5.160   5.619  12.737
96555SOL    HW191439   5.188   5.586  12.822
96555SOL    HW291440   5.226   5.588  12.676
96556SOL     OW91441   1.600   8.732  13.918
96556SOL    HW191442   1.607   8.805  13.980
96556SOL    HW291443   1.672   8.745  13.857
96557SOL     OW91444   9.633   6.045   8.484
96557SOL    HW191445   9.548   6.043   8.440
96557SOL    HW291446   9.641   5.959   8.525
96558SOL     OW91447   2.375   8.223   2.777
96558SOL    HW191448   2.436   8.282   2.731
96558SOL    HW291449   2.371   8.257   2.866
96559SOL     OW91450   2.774   3.252   5.392
96559SOL    HW191451   2.859   3.210   5.379
96559SOL    HW291452   2.713   3.200   5.340
96560SOL     OW91453   1.589   7.129   2.744
96560SOL    HW191454   1.606   7.140   2.650
96560SOL    HW291455   1.573   7.035   2.754
96561SOL     OW91456   9.949  13.271   9.046
96561SOL    HW191457   9.999  13.265   8.964
96561SOL    HW291458   9.876  13.330   9.025
96562SOL     OW91459   4.056   0.653   2.517
96562SOL    HW191460   3.992   0.582   2.517
96562SOL    HW291461   4.004   0.733   2.509
96563SOL     OW91462  12.371   1.987   3.221
96563SOL    HW191463  12.291   2.039   3.231
96563SOL    HW291464  12.441   2.043   3.254
96564SOL     OW91465   7.936  14.110   1.855
96564SOL    HW191466   7.848  14.147   1.861
96564SOL    HW291467   7.940  14.073   1.767
96565SOL     OW91468  11.617  14.034  11.634
96565SOL    HW191469  11.581  14.044  11.546
96565SOL    HW291470  11.649  14.122  11.657
96566SOL     OW91471   6.504  12.866   2.973
96566SOL    HW191472   6.562  12.939   2.952
96566SOL    HW291473   6.538  12.831   3.056
96567SOL     OW91474  13.409   5.336   9.664
96567SOL    HW191475  13.383   5.399   9.731
96567SOL    HW291476  13.436   5.259   9.714
96568SOL     OW91477   5.614   0.593  14.586
96568SOL    HW191478   5.623   0.640  14.503
96568SOL    HW291479   5.596   0.662  14.650
96569SOL     OW91480   9.901   9.884  13.757
96569SOL    HW191481   9.809   9.857  13.761
96569SOL    HW291482   9.937   9.858  13.842
96570SOL     OW91483   6.612   4.796   3.424
96570SOL    HW191484   6.674   4.775   3.355
96570SOL    HW291485   6.569   4.713   3.445
96571SOL     OW91486   6.274   2.410   3.189
96571SOL    HW191487   6.304   2.420   3.098
96571SOL    HW291488   6.241   2.320   3.193
96572SOL     OW91489   6.614   5.625   9.619
96572SOL    HW191490   6.615   5.613   9.714
96572SOL    HW291491   6.705   5.646   9.597
96573SOL     OW91492  14.772   7.523   4.845
96573SOL    HW191493  14.854   7.541   4.892
96573SOL    HW291494  14.703   7.546   4.907
96574SOL     OW91495   2.816   7.646   2.999
96574SOL    HW191496   2.865   7.565   3.016
96574SOL    HW291497   2.725   7.624   3.021
96575SOL     OW91498  12.453   9.274   5.347
96575SOL    HW191499  12.534   9.240   5.384
96575SOL    HW291500  12.471   9.282   5.253
96576SOL     OW91501  12.189   2.874   2.715
96576SOL    HW191502  12.259   2.935   2.691
96576SOL    HW291503  12.234   2.790   2.724
96577SOL     OW91504  11.730  10.249   0.234
96577SOL    HW191505  11.722  10.345   0.234
96577SOL    HW291506  11.818  10.232   0.267
96578SOL     OW91507   9.061  10.856   8.057
96578SOL    HW191508   9.151  10.876   8.031
96578SOL    HW291509   9.037  10.780   8.004
96579SOL     OW91510   6.135   4.447  13.279
96579SOL    HW191511   6.129   4.355  13.304
96579SOL    HW291512   6.214   4.479  13.323
96580SOL     OW91513  13.519   2.606  12.443
96580SOL    HW191514  13.542   2.568  12.528
96580SOL    HW291515  13.433   2.645  12.456
96581SOL     OW91516   2.217   5.274   7.029
96581SOL    HW191517   2.139   5.297   6.979
96581SOL    HW291518   2.203   5.315   7.114
96582SOL     OW91519   7.149  10.459   6.314
96582SOL    HW191520   7.215  10.483   6.380
96582SOL    HW291521   7.069  10.446   6.365
96583SOL     OW91522   6.896  12.145   2.866
96583SOL    HW191523   6.863  12.056   2.855
96583SOL    HW291524   6.939  12.145   2.952
96584SOL     OW91525   0.564  13.239   1.320
96584SOL    HW191526   0.595  13.252   1.230
96584SOL    HW291527   0.486  13.294   1.326
96585SOL     OW91528  11.905   5.118  11.594
96585SOL    HW191529  11.924   5.082  11.507
96585SOL    HW291530  11.933   5.209  11.589
96586SOL     OW91531  11.942   0.799  11.579
96586SOL    HW191532  11.962   0.890  11.600
96586SOL    HW291533  11.948   0.752  11.662
96587SOL     OW91534   1.953   4.317   9.298
96587SOL    HW191535   1.861   4.311   9.322
96587SOL    HW291536   1.978   4.407   9.318
96588SOL     OW91537   3.735   9.725   4.328
96588SOL    HW191538   3.823   9.718   4.290
96588SOL    HW291539   3.676   9.715   4.253
96589SOL     OW91540  10.543  13.300   2.276
96589SOL    HW191541  10.459  13.294   2.321
96589SOL    HW291542  10.598  13.236   2.321
96590SOL     OW91543   7.173   1.069   5.141
96590SOL    HW191544   7.249   1.119   5.112
96590SOL    HW291545   7.185   1.058   5.235
96591SOL     OW91546  12.530  14.365  13.246
96591SOL    HW191547  12.576  14.377  13.329
96591SOL    HW291548  12.577  14.294  13.203
96592SOL     OW91549   8.734   7.032   0.074
96592SOL    HW191550   8.699   6.945   0.094
96592SOL    HW291551   8.795   7.050   0.144
96593SOL     OW91552  13.120  11.784  11.140
96593SOL    HW191553  13.189  11.819  11.084
96593SOL    HW291554  13.040  11.795  11.088
96594SOL     OW91555  11.453   6.612  12.181
96594SOL    HW191556  11.514   6.641  12.250
96594SOL    HW291557  11.481   6.659  12.103
96595SOL     OW91558   6.047   1.447   4.791
96595SOL    HW191559   6.091   1.377   4.840
96595SOL    HW291560   6.117   1.490   4.742
96596SOL     OW91561   0.891   2.712   6.132
96596SOL    HW191562   0.852   2.654   6.198
96596SOL    HW291563   0.889   2.799   6.172
96597SOL     OW91564  11.103   4.133   7.026
96597SOL    HW191565  11.116   4.218   7.067
96597SOL    HW291566  11.115   4.069   7.096
96598SOL     OW91567  12.036  12.524   0.293
96598SOL    HW191568  12.057  12.555   0.205
96598SOL    HW291569  12.102  12.563   0.349
96599SOL     OW91570   6.367   3.853  11.333
96599SOL    HW191571   6.441   3.912  11.322
96599SOL    HW291572   6.394   3.772  11.292
96600SOL     OW91573   0.231  11.513  14.805
96600SOL    HW191574   0.286  11.471  14.872
96600SOL    HW291575   0.159  11.552  14.854
96601SOL     OW91576  13.060   3.891   9.549
96601SOL    HW191577  13.039   3.978   9.582
96601SOL    HW291578  12.975   3.850   9.533
96602SOL     OW91579   5.038  13.198  10.990
96602SOL    HW191580   5.005  13.145  11.063
96602SOL    HW291581   5.002  13.285  11.006
96603SOL     OW91582   1.997  13.482   7.057
96603SOL    HW191583   2.054  13.549   7.019
96603SOL    HW291584   1.928  13.469   6.991
96604SOL     OW91585   8.694  14.163   2.808
96604SOL    HW191586   8.682  14.126   2.896
96604SOL    HW291587   8.787  14.148   2.789
96605SOL     OW91588   5.697   2.729   9.458
96605SOL    HW191589   5.777   2.707   9.411
96605SOL    HW291590   5.680   2.821   9.436
96606SOL     OW91591   2.524   3.498   3.599
96606SOL    HW191592   2.547   3.458   3.684
96606SOL    HW291593   2.445   3.549   3.617
96607SOL     OW91594   3.262   8.551  14.136
96607SOL    HW191595   3.354   8.557  14.110
96607SOL    HW291596   3.219   8.506  14.063
96608SOL     OW91597   9.515   4.315  10.512
96608SOL    HW191598   9.428   4.352  10.528
96608SOL    HW291599   9.575   4.379  10.549
96609SOL     OW91600   9.033   9.081   4.027
96609SOL    HW191601   8.940   9.075   4.007
96609SOL    HW291602   9.036   9.108   4.119
96610SOL     OW91603  12.855   5.769  12.003
96610SOL    HW191604  12.842   5.859  11.974
96610SOL    HW291605  12.911   5.776  12.080
96611SOL     OW91606   1.880  11.046   8.957
96611SOL    HW191607   1.923  11.050   9.042
96611SOL    HW291608   1.921  10.971   8.913
96612SOL     OW91609  10.221  11.137   6.845
96612SOL    HW191610  10.194  11.061   6.794
96612SOL    HW291611  10.242  11.102   6.931
96613SOL     OW91612   5.127   3.131   3.984
96613SOL    HW191613   5.203   3.180   3.953
96613SOL    HW291614   5.090   3.091   3.906
96614SOL     OW91615   8.370   2.392  13.123
96614SOL    HW191616   8.277   2.410  13.111
96614SOL    HW291617   8.413   2.432  13.047
96615SOL     OW91618   4.924  13.003  11.161
96615SOL    HW191619   5.007  13.007  11.209
96615SOL    HW291620   4.928  12.919  11.115
96616SOL     OW91621  12.263  13.476   6.098
96616SOL    HW191622  12.354  13.448   6.092
96616SOL    HW291623  12.233  13.444   6.183
96617SOL     OW91624   3.179   1.625   2.229
96617SOL    HW191625   3.229   1.682   2.286
96617SOL    HW291626   3.241   1.599   2.161
96618SOL     OW91627   7.798   4.127   6.004
96618SOL    HW191628   7.809   4.145   6.097
96618SOL    HW291629   7.764   4.037   6.001
96619SOL     OW91630  14.729   5.450   6.467
96619SOL    HW191631  14.764   5.533   6.501
96619SOL    HW291632  14.805   5.406   6.429
96620SOL     OW91633   9.107  12.929  11.948
96620SOL    HW191634   9.172  12.870  11.910
96620SOL    HW291635   9.159  12.992  11.997
96621SOL     OW91636  10.247   4.859   9.841
96621SOL    HW191637  10.244   4.947   9.879
96621SOL    HW291638  10.273   4.873   9.750
96622SOL     OW91639   3.032   7.699   7.711
96622SOL    HW191640   3.067   7.674   7.626
96622SOL    HW291641   3.058   7.627   7.769
96623SOL     OW91642  12.847   6.747   3.871
96623SOL    HW191643  12.771   6.733   3.927
96623SOL    HW291644  12.826   6.702   3.790
96624SOL     OW91645   2.126   1.998  11.329
96624SOL    HW191646   2.192   2.066  11.311
96624SOL    HW291647   2.126   1.944  11.250
96625SOL     OW91648   1.997   4.136  12.272
96625SOL    HW191649   2.067   4.187  12.314
96625SOL    HW291650   1.918   4.157  12.321
96626SOL     OW91651  13.763  11.117   7.809
96626SOL    HW191652  13.733  11.107   7.900
96626SOL    HW291653  13.799  11.205   7.805
96627SOL     OW91654   8.847  10.396  12.930
96627SOL    HW191655   8.825  10.469  12.872
96627SOL    HW291656   8.904  10.339  12.878
96628SOL     OW91657   3.036   2.936   3.193
96628SOL    HW191658   3.094   2.935   3.117
96628SOL    HW291659   3.064   3.012   3.244
96629SOL     OW91660  14.761  13.136   1.219
96629SOL    HW191661  14.720  13.127   1.133
96629SOL    HW291662  14.691  13.171   1.275
96630SOL     OW91663  11.306  11.773  13.273
96630SOL    HW191664  11.333  11.831  13.344
96630SOL    HW291665  11.375  11.707  13.269
96631SOL     OW91666   2.881  12.114   5.063
96631SOL    HW191667   2.888  12.075   4.976
96631SOL    HW291668   2.919  12.049   5.122
96632SOL     OW91669   7.527  10.180   2.168
96632SOL    HW191670   7.581  10.105   2.194
96632SOL    HW291671   7.461  10.143   2.110
96633SOL     OW91672   6.974   5.207  13.809
96633SOL    HW191673   6.943   5.207  13.719
96633SOL    HW291674   7.062   5.169  13.804
96634SOL     OW91675   0.800   1.343   9.254
96634SOL    HW191676   0.886   1.370   9.284
96634SOL    HW291677   0.783   1.260   9.298
96635SOL     OW91678   2.812  13.540   2.407
96635SOL    HW191679   2.827  13.551   2.500
96635SOL    HW291680   2.897  13.553   2.366
96636SOL     OW91681   2.176   1.027  12.136
96636SOL    HW191682   2.219   0.941  12.134
96636SOL    HW291683   2.168   1.053  12.045
96637SOL     OW91684   6.427  14.366   9.878
96637SOL    HW191685   6.523  14.358   9.878
96637SOL    HW291686   6.404  14.368   9.785
96638SOL     OW91687   9.042  11.802   9.710
96638SOL    HW191688   8.967  11.763   9.755
96638SOL    HW291689   9.002  11.856   9.641
96639SOL     OW91690   1.226  14.403  13.781
96639SOL    HW191691   1.156  14.339  13.793
96639SOL    HW291692   1.265  14.414  13.868
96640SOL     OW91693   9.929   8.545   0.885
96640SOL    HW191694  10.007   8.599   0.892
96640SOL    HW291695   9.959   8.466   0.840
96641SOL     OW91696  12.971  12.236   9.550
96641SOL    HW191697  13.053  12.194   9.525
96641SOL    HW291698  12.987  12.329   9.538
96642SOL     OW91699   5.557   5.778   8.490
96642SOL    HW191700   5.649   5.761   8.510
96642SOL    HW291701   5.509   5.707   8.533
96643SOL     OW91702  10.269   0.889   6.671
96643SOL    HW191703  10.301   0.919   6.586
96643SOL    HW291704  10.288   0.962   6.731
96644SOL     OW91705   2.536   6.012   9.046
96644SOL    HW191706   2.447   6.017   9.081
96644SOL    HW291707   2.580   6.089   9.083
96645SOL     OW91708   8.893   8.140   6.125
96645SOL    HW191709   8.889   8.046   6.143
96645SOL    HW291710   8.826   8.155   6.058
96646SOL     OW91711   6.694  12.380   9.454
96646SOL    HW191712   6.738  12.295   9.456
96646SOL    HW291713   6.694  12.409   9.545
96647SOL     OW91714  11.061   5.224   2.227
96647SOL    HW191715  11.012   5.267   2.297
96647SOL    HW291716  11.126   5.288   2.200
96648SOL     OW91717  11.020   6.284   6.261
96648SOL    HW191718  11.105   6.244   6.282
96648SOL    HW291719  11.020   6.366   6.312
96649SOL     OW91720   3.759  10.118   8.238
96649SOL    HW191721   3.709  10.082   8.164
96649SOL    HW291722   3.707  10.193   8.268
96650SOL     OW91723   2.029   4.082   5.334
96650SOL    HW191724   2.033   4.004   5.389
96650SOL    HW291725   2.090   4.143   5.375
96651SOL     OW91726  11.339   2.689   4.635
96651SOL    HW191727  11.244   2.695   4.624
96651SOL    HW291728  11.352   2.636   4.714
96652SOL     OW91729   3.828   0.480   4.678
96652SOL    HW191730   3.870   0.551   4.630
96652SOL    HW291731   3.734   0.492   4.661
96653SOL     OW91732   2.866   0.695  13.799
96653SOL    HW191733   2.800   0.669  13.735
96653SOL    HW291734   2.847   0.788  13.816
96654SOL     OW91735   2.900   5.635   9.025
96654SOL    HW191736   2.805   5.634   9.035
96654SOL    HW291737   2.914   5.637   8.930
96655SOL     OW91738   2.625   1.990   2.222
96655SOL    HW191739   2.575   2.041   2.159
96655SOL    HW291740   2.633   2.048   2.298
96656SOL     OW91741   6.597   3.987  14.849
96656SOL    HW191742   6.531   3.960   0.035
96656SOL    HW291743   6.676   3.999   0.024
96657SOL     OW91744   9.151   7.318   4.515
96657SOL    HW191745   9.132   7.410   4.531
96657SOL    HW291746   9.214   7.294   4.583
96658SOL     OW91747   6.786   8.297   4.804
96658SOL    HW191748   6.834   8.358   4.747
96658SOL    HW291749   6.738   8.241   4.743
96659SOL     OW91750   5.481   8.397   7.401
96659SOL    HW191751   5.481   8.489   7.426
96659SOL    HW291752   5.389   8.378   7.380
96660SOL     OW91753   3.425   8.188   9.739
96660SOL    HW191754   3.358   8.256   9.752
96660SOL    HW291755   3.382   8.121   9.686
96661SOL     OW91756  14.732  10.344   4.556
96661SOL    HW191757  14.732  10.333   4.461
96661SOL    HW291758  14.675  10.274   4.588
96662SOL     OW91759   1.686  12.293   9.327
96662SOL    HW191760   1.682  12.383   9.294
96662SOL    HW291761   1.746  12.248   9.268
96663SOL     OW91762   8.194  14.527   5.779
96663SOL    HW191763   8.254  14.596   5.750
96663SOL    HW291764   8.107  14.567   5.776
96664SOL     OW91765   7.073   0.179   4.266
96664SOL    HW191766   7.160   0.144   4.284
96664SOL    HW291767   7.072   0.194   4.172
96665SOL     OW91768   9.775   2.019   6.638
96665SOL    HW191769   9.792   2.092   6.578
96665SOL    HW291770   9.745   2.060   6.718
96666SOL     OW91771   1.796   7.465   3.144
96666SOL    HW191772   1.876   7.501   3.105
96666SOL    HW291773   1.756   7.413   3.074
96667SOL     OW91774   2.054   3.139   8.091
96667SOL    HW191775   2.095   3.222   8.067
96667SOL    HW291776   2.006   3.159   8.172
96668SOL     OW91777  10.563   6.887  11.493
96668SOL    HW191778  10.491   6.895  11.556
96668SOL    HW291779  10.525   6.913  11.409
96669SOL     OW91780   8.698   7.267   3.748
96669SOL    HW191781   8.689   7.362   3.753
96669SOL    HW291782   8.656   7.243   3.665
96670SOL     OW91783   9.577   9.834  14.560
96670SOL    HW191784   9.590   9.801  14.472
96670SOL    HW291785   9.651   9.798  14.610
96671SOL     OW91786   9.219  12.164   4.175
96671SOL    HW191787   9.188  12.123   4.095
96671SOL    HW291788   9.242  12.091   4.233
96672SOL     OW91789   1.647   6.644   2.239
96672SOL    HW191790   1.639   6.734   2.270
96672SOL    HW291791   1.558   6.619   2.212
96673SOL     OW91792  12.927  13.725  10.627
96673SOL    HW191793  12.848  13.710  10.678
96673SOL    HW291794  12.999  13.711  10.689
96674SOL     OW91795   2.029   6.149  11.981
96674SOL    HW191796   2.039   6.193  12.065
96674SOL    HW291797   1.958   6.086  11.995
96675SOL     OW91798  11.238   6.439   0.406
96675SOL    HW191799  11.259   6.530   0.427
96675SOL    HW291800  11.174   6.413   0.472
96676SOL     OW91801   7.644   2.807   2.197
96676SOL    HW191802   7.570   2.756   2.231
96676SOL    HW291803   7.622   2.823   2.105
96677SOL     OW91804   7.570   4.643   3.614
96677SOL    HW191805   7.543   4.669   3.702
96677SOL    HW291806   7.623   4.565   3.627
96678SOL     OW91807   6.991  13.117   2.337
96678SOL    HW191808   7.062  13.098   2.276
96678SOL    HW291809   6.987  13.039   2.393
96679SOL     OW91810   3.778   0.858   3.968
96679SOL    HW191811   3.700   0.912   3.956
96679SOL    HW291812   3.851   0.917   3.951
96680SOL     OW91813   9.917   2.561  14.213
96680SOL    HW191814   9.878   2.557  14.126
96680SOL    HW291815   9.974   2.638  14.211
96681SOL     OW91816   8.398   7.256   8.247
96681SOL    HW191817   8.417   7.317   8.176
96681SOL    HW291818   8.484   7.220   8.271
96682SOL     OW91819   8.477   3.006  13.117
96682SOL    HW191820   8.456   3.085  13.067
96682SOL    HW291821   8.490   3.036  13.206
96683SOL     OW91822   0.107   6.367   8.918
96683SOL    HW191823   0.050   6.335   8.848
96683SOL    HW291824   0.124   6.290   8.972
96684SOL     OW91825   5.018   4.867  14.264
96684SOL    HW191826   5.078   4.862  14.339
96684SOL    HW291827   4.943   4.915  14.296
96685SOL     OW91828  12.837  13.641  12.567
96685SOL    HW191829  12.797  13.585  12.500
96685SOL    HW291830  12.928  13.612  12.571
96686SOL     OW91831   2.991  11.446   2.543
96686SOL    HW191832   2.976  11.354   2.522
96686SOL    HW291833   3.068  11.470   2.491
96687SOL     OW91834   9.034   3.752   2.425
96687SOL    HW191835   8.946   3.762   2.388
96687SOL    HW291836   9.021   3.759   2.520
96688SOL     OW91837   1.189  11.963   9.159
96688SOL    HW191838   1.149  11.878   9.138
96688SOL    HW291839   1.282  11.944   9.169
96689SOL     OW91840  14.746   2.295   5.020
96689SOL    HW191841  14.726   2.349   4.944
96689SOL    HW291842  14.717   2.207   4.995
96690SOL     OW91843   7.624   0.694   0.621
96690SOL    HW191844   7.574   0.682   0.541
96690SOL    HW291845   7.590   0.627   0.681
96691SOL     OW91846   2.621   9.435  11.259
96691SOL    HW191847   2.567   9.473  11.190
96691SOL    HW291848   2.679   9.373  11.214
96692SOL     OW91849   4.183   5.666   9.123
96692SOL    HW191850   4.262   5.621   9.095
96692SOL    HW291851   4.212   5.755   9.144
96693SOL     OW91852  11.817   6.889   7.356
96693SOL    HW191853  11.872   6.937   7.418
96693SOL    HW291854  11.844   6.798   7.367
96694SOL     OW91855   5.824  12.040   1.503
96694SOL    HW191856   5.890  12.077   1.563
96694SOL    HW291857   5.741  12.077   1.533
96695SOL     OW91858   1.777   4.560   9.606
96695SOL    HW191859   1.723   4.614   9.663
96695SOL    HW291860   1.836   4.622   9.563
96696SOL     OW91861   3.126   4.024   1.168
96696SOL    HW191862   3.110   4.077   1.246
96696SOL    HW291863   3.204   3.974   1.189
96697SOL     OW91864  14.722  12.865  11.053
96697SOL    HW191865  14.684  12.903  10.973
96697SOL    HW291866  14.715  12.935  11.118
96698SOL     OW91867  13.484   1.026   9.910
96698SOL    HW191868  13.476   0.934   9.934
96698SOL    HW291869  13.433   1.033   9.829
96699SOL     OW91870  11.791   0.324   5.359
96699SOL    HW191871  11.702   0.291   5.370
96699SOL    HW291872  11.789   0.412   5.396
96700SOL     OW91873  14.849  13.775  10.064
96700SOL    HW191874  14.801  13.831  10.125
96700SOL    HW291875  14.876  13.700  10.117
96701SOL     OW91876   3.928   1.631   1.766
96701SOL    HW191877   3.920   1.712   1.716
96701SOL    HW291878   3.901   1.562   1.705
96702SOL     OW91879   3.944  12.374  13.155
96702SOL    HW191880   3.876  12.434  13.122
96702SOL    HW291881   3.908  12.287  13.140
96703SOL     OW91882  10.078  11.868   4.850
96703SOL    HW191883  10.108  11.958   4.836
96703SOL    HW291884  10.088  11.854   4.945
96704SOL     OW91885   1.447   9.618  12.560
96704SOL    HW191886   1.430   9.560  12.486
96704SOL    HW291887   1.424   9.566  12.637
96705SOL     OW91888  13.139   9.981  11.102
96705SOL    HW191889  13.122  10.068  11.139
96705SOL    HW291890  13.231   9.984  11.077
96706SOL     OW91891   9.421   2.419   5.694
96706SOL    HW191892   9.369   2.339   5.687
96706SOL    HW291893   9.498   2.393   5.745
96707SOL     OW91894   7.922   3.367   9.374
96707SOL    HW191895   7.911   3.409   9.289
96707SOL    HW291896   8.013   3.335   9.373
96708SOL     OW91897   5.964   0.769  14.038
96708SOL    HW191898   6.006   0.722  13.965
96708SOL    HW291899   5.941   0.701  14.100
96709SOL     OW91900  14.198   9.526   4.154
96709SOL    HW191901  14.284   9.487   4.166
96709SOL    HW291902  14.168   9.492   4.069
96710SOL     OW91903   9.452   5.158   3.547
96710SOL    HW191904   9.543   5.127   3.550
96710SOL    HW291905   9.448   5.225   3.615
96711SOL     OW91906   4.374   7.707  12.477
96711SOL    HW191907   4.453   7.762  12.474
96711SOL    HW291908   4.385   7.653  12.555
96712SOL     OW91909  12.487   0.297   7.257
96712SOL    HW191910  12.419   0.354   7.291
96712SOL    HW291911  12.509   0.238   7.330
96713SOL     OW91912  13.353   8.871   0.328
96713SOL    HW191913  13.386   8.849   0.241
96713SOL    HW291914  13.384   8.960   0.344
96714SOL     OW91915   6.876   2.896  12.074
96714SOL    HW191916   6.808   2.954  12.110
96714SOL    HW291917   6.932   2.954  12.022
96715SOL     OW91918   8.917  13.563   0.667
96715SOL    HW191919   9.011  13.555   0.651
96715SOL    HW291920   8.878  13.486   0.627
96716SOL     OW91921   7.333   2.658   1.287
96716SOL    HW191922   7.371   2.595   1.349
96716SOL    HW291923   7.298   2.728   1.343
96717SOL     OW91924   9.128  13.902  10.001
96717SOL    HW191925   9.059  13.891  10.067
96717SOL    HW291926   9.179  13.976  10.033
96718SOL     OW91927   8.440   2.331   9.081
96718SOL    HW191928   8.408   2.421   9.076
96718SOL    HW291929   8.364   2.280   9.109
96719SOL     OW91930   6.505   3.429   4.326
96719SOL    HW191931   6.519   3.345   4.369
96719SOL    HW291932   6.462   3.483   4.392
96720SOL     OW91933   2.190  10.201   9.845
96720SOL    HW191934   2.280  10.227   9.828
96720SOL    HW291935   2.196  10.143   9.921
96721SOL     OW91936  12.807  14.263   9.740
96721SOL    HW191937  12.766  14.209   9.673
96721SOL    HW291938  12.739  14.323   9.769
96722SOL     OW91939  11.866  14.173   0.701
96722SOL    HW191940  11.872  14.156   0.607
96722SOL    HW291941  11.775  14.198   0.715
96723SOL     OW91942  13.987  12.094   4.136
96723SOL    HW191943  13.918  12.069   4.196
96723SOL    HW291944  14.052  12.024   4.142
96724SOL     OW91945  14.005   8.179   8.228
96724SOL    HW191946  14.072   8.234   8.268
96724SOL    HW291947  13.922   8.219   8.254
96725SOL     OW91948   3.269   2.666   8.957
96725SOL    HW191949   3.230   2.679   9.043
96725SOL    HW291950   3.229   2.587   8.923
96726SOL     OW91951  11.938   2.807   0.705
96726SOL    HW191952  11.985   2.890   0.697
96726SOL    HW291953  11.981   2.749   0.642
96727SOL     OW91954  11.875   7.492   0.352
96727SOL    HW191955  11.819   7.468   0.278
96727SOL    HW291956  11.899   7.409   0.392
96728SOL     OW91957   3.744  12.569  11.636
96728SOL    HW191958   3.750  12.665  11.640
96728SOL    HW291959   3.753  12.549  11.543
96729SOL     OW91960  11.428  12.133  14.318
96729SOL    HW191961  11.492  12.201  14.296
96729SOL    HW291962  11.473  12.077  14.381
96730SOL     OW91963   6.521  14.828   0.680
96730SOL    HW191964   6.605  14.786   0.697
96730SOL    HW291965   6.496  14.866   0.765
96731SOL     OW91966   2.713   8.970   5.502
96731SOL    HW191967   2.736   8.887   5.543
96731SOL    HW291968   2.786   8.989   5.444
96732SOL     OW91969   1.803   9.038   2.714
96732SOL    HW191970   1.733   9.075   2.769
96732SOL    HW291971   1.883   9.054   2.764
96733SOL     OW91972   6.731   7.805   7.599
96733SOL    HW191973   6.683   7.725   7.622
96733SOL    HW291974   6.741   7.851   7.682
96734SOL     OW91975   5.190   9.980   3.456
96734SOL    HW191976   5.146   9.951   3.535
96734SOL    HW291977   5.195   9.901   3.401
96735SOL     OW91978   3.091   9.594   7.152
96735SOL    HW191979   3.149   9.660   7.190
96735SOL    HW291980   3.083   9.618   7.060
96736SOL     OW91981   6.927  12.651   8.790
96736SOL    HW191982   7.003  12.606   8.753
96736SOL    HW291983   6.867  12.663   8.716
96737SOL     OW91984   6.625   0.578  13.070
96737SOL    HW191985   6.578   0.565  12.987
96737SOL    HW291986   6.577   0.648  13.114
96738SOL     OW91987   9.712  13.449  12.793
96738SOL    HW191988   9.732  13.363  12.831
96738SOL    HW291989   9.616  13.450  12.786
96739SOL     OW91990   0.000  13.337  13.448
96739SOL    HW191991  14.872  13.364  13.540
96739SOL    HW291992   0.065  13.396  13.409
96740SOL     OW91993   7.209   4.492  14.352
96740SOL    HW191994   7.254   4.532  14.277
96740SOL    HW291995   7.118   4.486  14.323
96741SOL     OW91996   0.871   0.866  13.348
96741SOL    HW191997   0.813   0.926  13.396
96741SOL    HW291998   0.896   0.915  13.269
96742SOL     OW91999   9.570  10.962  14.105
96742SOL    HW192000   9.601  10.881  14.064
96742SOL    HW292001   9.650  11.011  14.126
96743SOL     OW92002  13.674   1.268  11.842
96743SOL    HW192003  13.736   1.319  11.895
96743SOL    HW292004  13.619   1.333  11.799
96744SOL     OW92005   9.221   9.310   6.511
96744SOL    HW192006   9.278   9.273   6.444
96744SOL    HW292007   9.150   9.351   6.463
96745SOL     OW92008   1.911   3.123   3.261
96745SOL    HW192009   1.900   3.207   3.305
96745SOL    HW292010   1.998   3.094   3.286
96746SOL     OW92011   0.804   8.263   5.542
96746SOL    HW192012   0.886   8.215   5.526
96746SOL    HW292013   0.776   8.234   5.629
96747SOL     OW92014   2.375  11.383   5.721
96747SOL    HW192015   2.460  11.381   5.765
96747SOL    HW292016   2.361  11.293   5.692
96748SOL     OW92017   8.536   2.068  13.063
96748SOL    HW192018   8.628   2.092  13.062
96748SOL    HW292019   8.504   2.094  12.977
96749SOL     OW92020   8.686   7.046  13.190
96749SOL    HW192021   8.614   7.056  13.128
96749SOL    HW292022   8.760   7.018  13.136
96750SOL     OW92023  14.100   0.466   2.437
96750SOL    HW192024  14.131   0.376   2.427
96750SOL    HW292025  14.180   0.519   2.431
96751SOL     OW92026   2.416   0.808   3.480
96751SOL    HW192027   2.497   0.757   3.480
96751SOL    HW292028   2.359   0.763   3.417
96752SOL     OW92029   2.146  13.120   6.007
96752SOL    HW192030   2.065  13.166   6.028
96752SOL    HW292031   2.212  13.161   6.062
96753SOL     OW92032  12.110   8.387   8.188
96753SOL    HW192033  12.157   8.471   8.183
96753SOL    HW292034  12.083   8.369   8.098
96754SOL     OW92035  10.803   5.669   9.346
96754SOL    HW192036  10.784   5.754   9.386
96754SOL    HW292037  10.818   5.688   9.254
96755SOL     OW92038   9.419   9.587   8.875
96755SOL    HW192039   9.352   9.590   8.943
96755SOL    HW292040   9.448   9.496   8.874
96756SOL     OW92041   0.263   0.632   9.810
96756SOL    HW192042   0.244   0.686   9.887
96756SOL    HW292043   0.180   0.624   9.765
96757SOL     OW92044   1.301  10.279   5.342
96757SOL    HW192045   1.226  10.218   5.344
96757SOL    HW292046   1.309  10.311   5.432
96758SOL     OW92047   0.078  10.327   6.318
96758SOL    HW192048   0.171  10.308   6.305
96758SOL    HW292049   0.033  10.250   6.283
96759SOL     OW92050  11.431   6.992   5.777
96759SOL    HW192051  11.406   6.918   5.722
96759SOL    HW292052  11.524   6.979   5.796
96760SOL     OW92053   4.417   5.204  10.979
96760SOL    HW192054   4.469   5.126  10.959
96760SOL    HW292055   4.326   5.173  10.976
96761SOL     OW92056   0.737   9.064   7.427
96761SOL    HW192057   0.733   9.056   7.332
96761SOL    HW292058   0.662   9.120   7.449
96762SOL     OW92059   8.260   1.993   6.297
96762SOL    HW192060   8.264   1.930   6.369
96762SOL    HW292061   8.240   2.076   6.339
96763SOL     OW92062  10.491   4.128  10.914
96763SOL    HW192063  10.560   4.100  10.974
96763SOL    HW292064  10.488   4.059  10.848
96764SOL     OW92065   7.962  11.556   9.545
96764SOL    HW192066   8.025  11.496   9.584
96764SOL    HW292067   7.977  11.639   9.590
96765SOL     OW92068   3.147  13.272   0.912
96765SOL    HW192069   3.238  13.242   0.916
96765SOL    HW292070   3.131  13.310   0.999
96766SOL     OW92071   1.436   1.984   8.070
96766SOL    HW192072   1.347   1.955   8.087
96766SOL    HW292073   1.426   2.067   8.022
96767SOL     OW92074  14.590  13.196  13.059
96767SOL    HW192075  14.672  13.226  13.099
96767SOL    HW292076  14.542  13.276  13.039
96768SOL     OW92077   3.685  14.327   1.518
96768SOL    HW192078   3.712  14.364   1.602
96768SOL    HW292079   3.763  14.283   1.485
96769SOL     OW92080   4.436   9.162   7.841
96769SOL    HW192081   4.472   9.250   7.833
96769SOL    HW292082   4.457   9.119   7.758
96770SOL     OW92083  10.191   1.133   7.791
96770SOL    HW192084  10.176   1.170   7.704
96770SOL    HW292085  10.171   1.040   7.781
96771SOL     OW92086  14.155  10.098   2.478
96771SOL    HW192087  14.116  10.135   2.399
96771SOL    HW292088  14.127  10.156   2.549
96772SOL     OW92089  13.851   7.760   4.613
96772SOL    HW192090  13.864   7.720   4.527
96772SOL    HW292091  13.823   7.688   4.669
96773SOL     OW92092   7.908   2.728  11.272
96773SOL    HW192093   7.904   2.746  11.366
96773SOL    HW292094   7.841   2.784  11.233
96774SOL     OW92095   4.793   5.652   5.936
96774SOL    HW192096   4.803   5.703   6.017
96774SOL    HW292097   4.722   5.695   5.889
96775SOL     OW92098   8.007  14.595   1.182
96775SOL    HW192099   8.069  14.602   1.109
96775SOL    HW292100   8.030  14.512   1.224
96776SOL     OW92101   2.577  10.533   0.520
96776SOL    HW192102   2.623  10.496   0.445
96776SOL    HW292103   2.587  10.468   0.589
96777SOL     OW92104   5.461   6.633  12.144
96777SOL    HW192105   5.506   6.625  12.228
96777SOL    HW292106   5.401   6.707  12.157
96778SOL     OW92107   3.470   6.959   5.086
96778SOL    HW192108   3.397   7.020   5.093
96778SOL    HW292109   3.449   6.906   5.009
96779SOL     OW92110   3.361  10.550  10.949
96779SOL    HW192111   3.322  10.469  10.980
96779SOL    HW292112   3.433  10.522  10.892
96780SOL     OW92113   0.669   1.283   7.353
96780SOL    HW192114   0.732   1.308   7.286
96780SOL    HW292115   0.677   1.188   7.359
96781SOL     OW92116   0.133   5.418   9.002
96781SOL    HW192117   0.205   5.359   8.978
96781SOL    HW292118   0.057   5.360   9.013
96782SOL     OW92119   4.807   0.056   9.329
96782SOL    HW192120   4.744   0.128   9.327
96782SOL    HW292121   4.819   0.037   9.422
96783SOL     OW92122   4.591   9.686   1.111
96783SOL    HW192123   4.574   9.594   1.090
96783SOL    HW292124   4.505   9.721   1.136
96784SOL     OW92125  12.362   0.258  12.991
96784SOL    HW192126  12.453   0.237  13.011
96784SOL    HW292127  12.310   0.201  13.048
96785SOL     OW92128  14.023  14.844   5.536
96785SOL    HW192129  14.101   0.022   5.534
96785SOL    HW292130  13.974  14.874   5.612
96786SOL     OW92131  11.380   7.942   3.046
96786SOL    HW192132  11.425   8.020   3.013
96786SOL    HW292133  11.370   7.886   2.969
96787SOL     OW92134   9.613  11.332   8.956
96787SOL    HW192135   9.593  11.408   8.901
96787SOL    HW292136   9.707  11.317   8.942
96788SOL     OW92137  13.718  10.699  10.649
96788SOL    HW192138  13.750  10.674  10.562
96788SOL    HW292139  13.796  10.730  10.695
96789SOL     OW92140  14.245   3.485   7.536
96789SOL    HW192141  14.315   3.446   7.589
96789SOL    HW292142  14.246   3.434   7.455
96790SOL     OW92143  13.334   2.069   4.270
96790SOL    HW192144  13.413   2.121   4.289
96790SOL    HW292145  13.363   1.978   4.275
96791SOL     OW92146  10.607  10.617   4.139
96791SOL    HW192147  10.632  10.663   4.059
96791SOL    HW292148  10.690  10.600   4.183
96792SOL     OW92149   9.828  12.591   0.548
96792SOL    HW192150   9.799  12.505   0.577
96792SOL    HW292151   9.826  12.586   0.452
96793SOL     OW92152   7.353  13.159  11.731
96793SOL    HW192153   7.435  13.153  11.780
96793SOL    HW292154   7.330  13.069  11.711
96794SOL     OW92155   8.834  13.624   5.111
96794SOL    HW192156   8.927  13.640   5.124
96794SOL    HW292157   8.831  13.558   5.042
96795SOL     OW92158  11.082   2.245  12.824
96795SOL    HW192159  11.067   2.187  12.899
96795SOL    HW292160  10.994   2.276  12.801
96796SOL     OW92161  12.192  11.380  11.319
96796SOL    HW192162  12.188  11.422  11.233
96796SOL    HW292163  12.270  11.416  11.360
96797SOL     OW92164  14.833   3.114   7.822
96797SOL    HW192165  14.817   3.045   7.757
96797SOL    HW292166  14.746   3.143   7.848
96798SOL     OW92167   0.331  10.049   2.153
96798SOL    HW192168   0.331  10.059   2.248
96798SOL    HW292169   0.416  10.085   2.126
96799SOL     OW92170  13.310   3.376   2.056
96799SOL    HW192171  13.239   3.427   2.096
96799SOL    HW292172  13.292   3.380   1.962
96800SOL     OW92173  12.230   1.484   5.218
96800SOL    HW192174  12.312   1.440   5.239
96800SOL    HW292175  12.164   1.416   5.222
96801SOL     OW92176  10.752  14.243   0.322
96801SOL    HW192177  10.670  14.225   0.368
96801SOL    HW292178  10.813  14.271   0.391
96802SOL     OW92179  12.741  12.136   6.079
96802SOL    HW192180  12.762  12.194   6.006
96802SOL    HW292181  12.806  12.066   6.073
96803SOL     OW92182  14.694   9.562  13.799
96803SOL    HW192183  14.612   9.611  13.796
96803SOL    HW292184  14.751   9.615  13.855
96804SOL     OW92185   6.574  14.311   7.587
96804SOL    HW192186   6.485  14.278   7.577
96804SOL    HW292187   6.579  14.339   7.678
96805SOL     OW92188   8.094   8.526   5.227
96805SOL    HW192189   8.035   8.576   5.171
96805SOL    HW292190   8.038   8.493   5.297
96806SOL     OW92191   4.838  14.470   3.150
96806SOL    HW192192   4.742  14.465   3.157
96806SOL    HW292193   4.854  14.496   3.059
96807SOL     OW92194  12.663  10.375  11.275
96807SOL    HW192195  12.641  10.457  11.231
96807SOL    HW292196  12.751  10.389  11.311
96808SOL     OW92197   0.202   8.903  11.387
96808SOL    HW192198   0.250   8.927  11.308
96808SOL    HW292199   0.221   8.973  11.450
96809SOL     OW92200   1.606   7.395   2.295
96809SOL    HW192201   1.601   7.300   2.310
96809SOL    HW292202   1.516   7.425   2.300
96810SOL     OW92203   5.728   0.198   5.108
96810SOL    HW192204   5.792   0.235   5.046
96810SOL    HW292205   5.740   0.249   5.188
96811SOL     OW92206  12.050   2.194   2.826
96811SOL    HW192207  12.045   2.099   2.832
96811SOL    HW292208  12.103   2.221   2.901
96812SOL     OW92209   1.002   0.538   4.628
96812SOL    HW192210   0.988   0.587   4.547
96812SOL    HW292211   1.008   0.446   4.600
96813SOL     OW92212   6.582   0.862  11.842
96813SOL    HW192213   6.520   0.912  11.789
96813SOL    HW292214   6.668   0.880  11.803
96814SOL     OW92215   2.939   7.887   9.218
96814SOL    HW192216   2.897   7.830   9.154
96814SOL    HW292217   2.903   7.859   9.303
96815SOL     OW92218  14.580   2.621   0.996
96815SOL    HW192219  14.532   2.541   1.017
96815SOL    HW292220  14.587   2.667   1.079
96816SOL     OW92221   9.195   0.376  12.896
96816SOL    HW192222   9.139   0.301  12.874
96816SOL    HW292223   9.141   0.429  12.955
96817SOL     OW92224  10.531   1.842  13.512
96817SOL    HW192225  10.566   1.914  13.461
96817SOL    HW292226  10.593   1.770  13.498
96818SOL     OW92227  14.316  10.760   3.693
96818SOL    HW192228  14.299  10.666   3.699
96818SOL    HW292229  14.279  10.786   3.609
96819SOL     OW92230   3.031   7.274   5.562
96819SOL    HW192231   2.955   7.217   5.551
96819SOL    HW292232   3.076   7.239   5.639
96820SOL     OW92233  11.753  12.061  10.750
96820SOL    HW192234  11.815  11.992  10.772
96820SOL    HW292235  11.782  12.136  10.802
96821SOL     OW92236   2.513  11.135   7.823
96821SOL    HW192237   2.448  11.200   7.850
96821SOL    HW292238   2.477  11.052   7.854
96822SOL     OW92239  13.135   3.396   0.101
96822SOL    HW192240  13.041   3.416   0.099
96822SOL    HW292241  13.173   3.455   0.036
96823SOL     OW92242   2.992   8.389   7.381
96823SOL    HW192243   2.914   8.445   7.385
96823SOL    HW292244   2.957   8.300   7.378
96824SOL     OW92245  10.165   6.656   1.662
96824SOL    HW192246  10.213   6.604   1.597
96824SOL    HW292247  10.233   6.688   1.721
96825SOL     OW92248   5.252   9.986   5.465
96825SOL    HW192249   5.257  10.003   5.559
96825SOL    HW292250   5.210  10.064   5.429
96826SOL     OW92251  12.399   5.023  13.539
96826SOL    HW192252  12.315   5.062  13.517
96826SOL    HW292253  12.417   5.053  13.628
96827SOL     OW92254  12.981   7.804  10.431
96827SOL    HW192255  13.009   7.751  10.506
96827SOL    HW292256  13.008   7.893  10.454
96828SOL     OW92257  14.755  12.316   5.526
96828SOL    HW192258  14.734  12.273   5.609
96828SOL    HW292259  14.845  12.346   5.537
96829SOL     OW92260  10.994  10.605   1.307
96829SOL    HW192261  10.949  10.568   1.231
96829SOL    HW292262  10.982  10.700   1.298
96830SOL     OW92263  10.062   5.477  14.828
96830SOL    HW192264  10.070   5.449   0.042
96830SOL    HW292265  10.089   5.401  14.777
96831SOL     OW92266   6.644   7.553   2.765
96831SOL    HW192267   6.693   7.559   2.683
96831SOL    HW292268   6.646   7.641   2.801
96832SOL     OW92269  13.226   3.729   8.784
96832SOL    HW192270  13.253   3.643   8.816
96832SOL    HW292271  13.179   3.768   8.858
96833SOL     OW92272   5.521  10.543   9.308
96833SOL    HW192273   5.568  10.626   9.314
96833SOL    HW292274   5.568  10.485   9.368
96834SOL     OW92275  11.179   8.654   3.169
96834SOL    HW192276  11.148   8.694   3.250
96834SOL    HW292277  11.102   8.609   3.133
96835SOL     OW92278   8.834   2.988  13.942
96835SOL    HW192279   8.843   3.083  13.931
96835SOL    HW292280   8.740   2.971  13.930
96836SOL     OW92281   9.740   6.135   4.838
96836SOL    HW192282   9.703   6.069   4.896
96836SOL    HW292283   9.835   6.130   4.853
96837SOL     OW92284   1.958   0.443   3.763
96837SOL    HW192285   1.929   0.497   3.837
96837SOL    HW292286   2.045   0.413   3.788
96838SOL     OW92287   3.252   6.125   3.082
96838SOL    HW192288   3.187   6.072   3.129
96838SOL    HW292289   3.234   6.215   3.110
96839SOL     OW92290   9.161   5.924  10.067
96839SOL    HW192291   9.096   5.877  10.120
96839SOL    HW292292   9.110   5.986  10.015
96840SOL     OW92293   7.820  10.204   3.838
96840SOL    HW192294   7.807  10.152   3.917
96840SOL    HW292295   7.886  10.156   3.788
96841SOL     OW92296   2.105   2.157   3.412
96841SOL    HW192297   2.041   2.190   3.475
96841SOL    HW292298   2.101   2.218   3.339
96842SOL     OW92299   6.256  13.742   2.977
96842SOL    HW192300   6.165  13.753   2.950
96842SOL    HW292301   6.259  13.655   3.018
96843SOL     OW92302   8.839  13.385  10.895
96843SOL    HW192303   8.828  13.329  10.973
96843SOL    HW292304   8.921  13.431  10.910
96844SOL     OW92305  12.364   7.265  14.070
96844SOL    HW192306  12.386   7.310  13.989
96844SOL    HW292307  12.269   7.271  14.077
96845SOL     OW92308  13.012   0.077   5.044
96845SOL    HW192309  12.925   0.113   5.027
96845SOL    HW292310  13.046   0.055   4.958
96846SOL     OW92311   2.175  11.367   8.747
96846SOL    HW192312   2.127  11.337   8.670
96846SOL    HW292313   2.258  11.320   8.744
96847SOL     OW92314  12.941  10.350  14.389
96847SOL    HW192315  13.008  10.347  14.321
96847SOL    HW292316  12.858  10.355  14.341
96848SOL     OW92317   4.121   7.094  13.025
96848SOL    HW192318   4.110   7.177  13.071
96848SOL    HW292319   4.086   7.110  12.938
96849SOL     OW92320   5.647   6.763   0.241
96849SOL    HW192321   5.616   6.813   0.316
96849SOL    HW292322   5.619   6.815   0.165
96850SOL     OW92323   5.598   5.866   7.816
96850SOL    HW192324   5.618   5.956   7.793
96850SOL    HW292325   5.665   5.843   7.881
96851SOL     OW92326   1.164  14.841   7.127
96851SOL    HW192327   1.186  14.748   7.118
96851SOL    HW292328   1.247   0.010   7.113
96852SOL     OW92329  14.191   0.135  14.129
96852SOL    HW192330  14.136   0.210  14.108
96852SOL    HW292331  14.151   0.061  14.083
96853SOL     OW92332  11.647   1.821  14.282
96853SOL    HW192333  11.699   1.807  14.360
96853SOL    HW292334  11.564   1.775  14.300
96854SOL     OW92335  14.539  12.982  13.287
96854SOL    HW192336  14.541  13.042  13.212
96854SOL    HW292337  14.616  13.006  13.339
96855SOL     OW92338  14.642  13.220  12.197
96855SOL    HW192339  14.588  13.295  12.224
96855SOL    HW292340  14.581  13.146  12.197
96856SOL     OW92341   6.743   9.440  14.176
96856SOL    HW192342   6.826   9.488  14.175
96856SOL    HW292343   6.679   9.503  14.141
96857SOL     OW92344  11.724  14.662   7.498
96857SOL    HW192345  11.811  14.697   7.519
96857SOL    HW292346  11.737  14.613   7.417
96858SOL     OW92347   3.616   5.043  14.099
96858SOL    HW192348   3.601   4.967  14.043
96858SOL    HW292349   3.711   5.054  14.100
96859SOL     OW92350   3.988   2.101   1.676
96859SOL    HW192351   4.002   2.191   1.648
96859SOL    HW292352   3.901   2.078   1.644
96860SOL     OW92353   4.139   0.580   4.726
96860SOL    HW192354   4.161   0.488   4.740
96860SOL    HW292355   4.150   0.594   4.632
96861SOL     OW92356  14.384  13.625   4.607
96861SOL    HW192357  14.406  13.606   4.698
96861SOL    HW292358  14.341  13.710   4.609
96862SOL     OW92359  14.874  11.008   5.841
96862SOL    HW192360  14.873  10.980   5.750
96862SOL    HW292361  14.854  10.929   5.891
96863SOL     OW92362  12.289   3.434  12.681
96863SOL    HW192363  12.212   3.384  12.705
96863SOL    HW292364  12.255   3.516  12.645
96864SOL     OW92365   5.094   9.629   2.183
96864SOL    HW192366   5.177   9.671   2.204
96864SOL    HW292367   5.054   9.612   2.269
96865SOL     OW92368   8.552  13.881   7.178
96865SOL    HW192369   8.523  13.902   7.089
96865SOL    HW292370   8.573  13.966   7.217
96866SOL     OW92371   3.841  12.018   5.825
96866SOL    HW192372   3.767  11.968   5.791
96866SOL    HW292373   3.806  12.061   5.903
96867SOL     OW92374   6.713   4.105   3.183
96867SOL    HW192375   6.700   4.015   3.154
96867SOL    HW292376   6.771   4.098   3.258
96868SOL     OW92377   5.489  12.261   5.058
96868SOL    HW192378   5.478  12.196   5.128
96868SOL    HW292379   5.482  12.345   5.103
96869SOL     OW92380  12.225  13.836  12.848
96869SOL    HW192381  12.211  13.842  12.753
96869SOL    HW292382  12.136  13.835  12.885
96870SOL     OW92383  10.863   8.877   7.437
96870SOL    HW192384  10.825   8.942   7.497
96870SOL    HW292385  10.933   8.836   7.488
96871SOL     OW92386  10.647  13.432   3.813
96871SOL    HW192387  10.608  13.519   3.807
96871SOL    HW292388  10.592  13.376   3.759
96872SOL     OW92389  14.041   8.613   1.218
96872SOL    HW192390  14.063   8.590   1.309
96872SOL    HW292391  14.107   8.567   1.166
96873SOL     OW92392   1.518   5.307   9.758
96873SOL    HW192393   1.581   5.370   9.790
96873SOL    HW292394   1.468   5.281   9.835
96874SOL     OW92395   0.890  12.393   2.898
96874SOL    HW192396   0.950  12.357   2.833
96874SOL    HW292397   0.807  12.349   2.880
96875SOL     OW92398   6.555   5.033   4.873
96875SOL    HW192399   6.633   5.014   4.822
96875SOL    HW292400   6.488   4.974   4.839
96876SOL     OW92401   9.404   2.829   9.656
96876SOL    HW192402   9.434   2.861   9.571
96876SOL    HW292403   9.451   2.746   9.668
96877SOL     OW92404   8.075   6.274  10.269
96877SOL    HW192405   8.107   6.358  10.301
96877SOL    HW292406   7.992   6.295  10.227
96878SOL     OW92407  13.473   6.654   2.362
96878SOL    HW192408  13.541   6.587   2.357
96878SOL    HW292409  13.435   6.642   2.449
96879SOL     OW92410   1.363  10.146   9.866
96879SOL    HW192411   1.279  10.131   9.910
96879SOL    HW292412   1.340  10.156   9.774
96880SOL     OW92413  13.750   7.082  10.101
96880SOL    HW192414  13.750   7.049  10.190
96880SOL    HW292415  13.785   7.010  10.048
96881SOL     OW92416   3.764   9.717   7.213
96881SOL    HW192417   3.774   9.667   7.132
96881SOL    HW292418   3.706   9.789   7.190
96882SOL     OW92419  12.612   6.314  13.092
96882SOL    HW192420  12.694   6.282  13.129
96882SOL    HW292421  12.565   6.352  13.167
96883SOL     OW92422   4.455   6.663   7.539
96883SOL    HW192423   4.372   6.688   7.580
96883SOL    HW292424   4.438   6.670   7.445
96884SOL     OW92425   3.998   7.744  13.493
96884SOL    HW192426   4.055   7.667  13.495
96884SOL    HW292427   3.919   7.714  13.450
96885SOL     OW92428  12.338  13.297   0.584
96885SOL    HW192429  12.365  13.324   0.672
96885SOL    HW292430  12.341  13.202   0.585
96886SOL     OW92431  11.959   7.102   7.493
96886SOL    HW192432  11.894   7.172   7.499
96886SOL    HW292433  11.985   7.085   7.584
96887SOL     OW92434   8.554   1.848   5.911
96887SOL    HW192435   8.601   1.927   5.938
96887SOL    HW292436   8.623   1.787   5.886
96888SOL     OW92437   4.084   7.085  12.746
96888SOL    HW192438   4.101   7.106  12.654
96888SOL    HW292439   4.005   7.136  12.767
96889SOL     OW92440   2.502  10.577   9.408
96889SOL    HW192441   2.421  10.553   9.453
96889SOL    HW292442   2.572  10.542   9.464
96890SOL     OW92443   0.337  11.420   0.151
96890SOL    HW192444   0.295  11.335   0.135
96890SOL    HW292445   0.279  11.463   0.214
96891SOL     OW92446  14.358   3.734   4.854
96891SOL    HW192447  14.358   3.748   4.759
96891SOL    HW292448  14.327   3.817   4.890
96892SOL     OW92449  13.871   3.010   4.585
96892SOL    HW192450  13.918   3.087   4.618
96892SOL    HW292451  13.884   2.943   4.652
96893SOL     OW92452   3.732  13.642   8.578
96893SOL    HW192453   3.824  13.663   8.559
96893SOL    HW292454   3.728  13.637   8.674
96894SOL     OW92455   8.376  10.945   8.834
96894SOL    HW192456   8.413  11.005   8.899
96894SOL    HW292457   8.416  10.860   8.854
96895SOL     OW92458  13.722  12.265  13.784
96895SOL    HW192459  13.641  12.280  13.833
96895SOL    HW292460  13.751  12.353  13.759
96896SOL     OW92461   6.664  12.628   9.848
96896SOL    HW192462   6.737  12.639   9.910
96896SOL    HW292463   6.610  12.706   9.860
96897SOL     OW92464   7.054   0.721  11.793
96897SOL    HW192465   7.127   0.727  11.854
96897SOL    HW292466   7.061   0.632  11.758
96898SOL     OW92467   9.072  14.630   1.135
96898SOL    HW192468   9.157  14.644   1.178
96898SOL    HW292469   9.088  14.555   1.077
96899SOL     OW92470   2.790   4.261  11.631
96899SOL    HW192471   2.766   4.353  11.620
96899SOL    HW292472   2.759   4.239  11.719
96900SOL     OW92473   0.056   3.843   9.418
96900SOL    HW192474   0.103   3.885   9.346
96900SOL    HW292475   0.122   3.831   9.486
96901SOL     OW92476  14.051  10.153   9.278
96901SOL    HW192477  14.022  10.209   9.350
96901SOL    HW292478  14.045  10.210   9.201
96902SOL     OW92479   5.169   7.559   7.439
96902SOL    HW192480   5.250   7.507   7.436
96902SOL    HW292481   5.199   7.648   7.455
96903SOL     OW92482   5.589   7.288   8.278
96903SOL    HW192483   5.561   7.317   8.365
96903SOL    HW292484   5.684   7.301   8.278
96904SOL     OW92485   2.054  14.828   8.415
96904SOL    HW192486   2.019  14.785   8.337
96904SOL    HW292487   1.981   0.003   8.448
96905SOL     OW92488  13.520  12.183   5.250
96905SOL    HW192489  13.560  12.112   5.200
96905SOL    HW292490  13.503  12.252   5.185
96906SOL     OW92491   3.508   2.438   9.142
96906SOL    HW192492   3.418   2.434   9.173
96906SOL    HW292493   3.502   2.470   9.052
96907SOL     OW92494   2.659   4.745   8.286
96907SOL    HW192495   2.746   4.781   8.304
96907SOL    HW292496   2.676   4.653   8.266
96908SOL     OW92497   5.790   1.495  10.921
96908SOL    HW192498   5.735   1.528  10.849
96908SOL    HW292499   5.754   1.408  10.940
96909SOL     OW92500   3.023  14.676   5.614
96909SOL    HW192501   3.042  14.769   5.622
96909SOL    HW292502   3.107  14.636   5.592
96910SOL     OW92503  12.090  14.038  10.225
96910SOL    HW192504  12.057  13.957  10.187
96910SOL    HW292505  12.075  14.104  10.158
96911SOL     OW92506   8.736   5.726  11.731
96911SOL    HW192507   8.693   5.660  11.786
96911SOL    HW292508   8.802   5.765  11.788
96912SOL     OW92509   3.090  10.774   3.345
96912SOL    HW192510   3.050  10.859   3.365
96912SOL    HW292511   3.109  10.777   3.252
96913SOL     OW92512   0.438  10.377   3.703
96913SOL    HW192513   0.380  10.445   3.669
96913SOL    HW292514   0.501  10.424   3.757
96914SOL     OW92515  10.747  13.614  13.989
96914SOL    HW192516  10.786  13.560  13.920
96914SOL    HW292517  10.811  13.684  14.003
96915SOL     OW92518   4.772  10.772   7.596
96915SOL    HW192519   4.758  10.865   7.575
96915SOL    HW292520   4.795  10.732   7.513
96916SOL     OW92521   3.628  10.879  14.811
96916SOL    HW192522   3.694  10.924  14.758
96916SOL    HW292523   3.552  10.938  14.811
96917SOL     OW92524   4.789  11.147   8.544
96917SOL    HW192525   4.816  11.064   8.505
96917SOL    HW292526   4.869  11.183   8.581
96918SOL     OW92527   3.494   4.293  14.485
96918SOL    HW192528   3.420   4.315  14.542
96918SOL    HW292529   3.460   4.225  14.427
96919SOL     OW92530   1.025   3.367   4.754
96919SOL    HW192531   1.007   3.274   4.746
96919SOL    HW292532   0.996   3.390   4.842
96920SOL     OW92533   2.636   6.927   5.434
96920SOL    HW192534   2.567   6.993   5.442
96920SOL    HW292535   2.614   6.880   5.354
96921SOL     OW92536   2.784  12.000   9.943
96921SOL    HW192537   2.743  12.038  10.021
96921SOL    HW292538   2.863  12.052   9.930
96922SOL     OW92539  13.905   5.106   4.922
96922SOL    HW192540  13.890   5.187   4.873
96922SOL    HW292541  13.869   5.037   4.866
96923SOL     OW92542   3.211  13.025   4.839
96923SOL    HW192543   3.285  13.020   4.898
96923SOL    HW292544   3.136  12.999   4.892
96924SOL     OW92545   6.209   7.989  14.646
96924SOL    HW192546   6.132   8.006  14.701
96924SOL    HW292547   6.271   8.057  14.670
96925SOL     OW92548   1.311  12.240   0.947
96925SOL    HW192549   1.338  12.256   1.037
96925SOL    HW292550   1.217  12.222   0.952
96926SOL     OW92551  12.486   5.772   4.115
96926SOL    HW192552  12.503   5.679   4.096
96926SOL    HW292553  12.559   5.818   4.073
96927SOL     OW92554   4.003   6.128   5.899
96927SOL    HW192555   4.006   6.112   5.805
96927SOL    HW292556   4.047   6.212   5.911
96928SOL     OW92557   3.456   0.584   3.139
96928SOL    HW192558   3.500   0.592   3.055
96928SOL    HW292559   3.519   0.538   3.195
96929SOL     OW92560   1.936  11.434   1.760
96929SOL    HW192561   1.861  11.448   1.702
96929SOL    HW292562   1.979  11.356   1.726
96930SOL     OW92563   0.793  14.730   0.728
96930SOL    HW192564   0.866  14.716   0.787
96930SOL    HW292565   0.736  14.791   0.774
96931SOL     OW92566   4.224  10.799  13.780
96931SOL    HW192567   4.145  10.747  13.791
96931SOL    HW292568   4.239  10.838  13.867
96932SOL     OW92569   2.944   5.762   7.607
96932SOL    HW192570   2.880   5.701   7.571
96932SOL    HW292571   2.892   5.823   7.660
96933SOL     OW92572  12.692   5.694  10.707
96933SOL    HW192573  12.688   5.711  10.613
96933SOL    HW292574  12.644   5.767  10.746
96934SOL     OW92575   6.379   2.956   1.645
96934SOL    HW192576   6.429   3.036   1.628
96934SOL    HW292577   6.288   2.980   1.629
96935SOL     OW92578  11.141   5.962   1.565
96935SOL    HW192579  11.115   6.014   1.641
96935SOL    HW292580  11.133   6.022   1.491
96936SOL     OW92581   5.641  13.996  13.510
96936SOL    HW192582   5.664  14.069  13.453
96936SOL    HW292583   5.617  13.925  13.450
96937SOL     OW92584   0.188   0.199   9.064
96937SOL    HW192585   0.236   0.167   9.140
96937SOL    HW292586   0.137   0.124   9.034
96938SOL     OW92587   6.796  12.550  12.733
96938SOL    HW192588   6.876  12.503  12.755
96938SOL    HW292589   6.809  12.581  12.644
96939SOL     OW92590  10.599   1.650   1.408
96939SOL    HW192591  10.656   1.680   1.479
96939SOL    HW292592  10.510   1.657   1.445
96940SOL     OW92593   0.232   3.090   8.063
96940SOL    HW192594   0.192   3.124   8.143
96940SOL    HW292595   0.307   3.148   8.047
96941SOL     OW92596   2.906   2.041   5.891
96941SOL    HW192597   2.909   2.035   5.795
96941SOL    HW292598   2.837   2.104   5.909
96942SOL     OW92599   5.159   1.577   2.355
96942SOL    HW192600   5.212   1.630   2.295
96942SOL    HW292601   5.069   1.595   2.330
96943SOL     OW92602  12.012   5.074  12.290
96943SOL    HW192603  11.945   5.019  12.329
96943SOL    HW292604  11.967   5.123  12.221
96944SOL     OW92605  11.935   4.144   9.947
96944SOL    HW192606  11.992   4.148  10.024
96944SOL    HW292607  11.907   4.235   9.933
96945SOL     OW92608  12.555   7.916   3.649
96945SOL    HW192609  12.647   7.920   3.624
96945SOL    HW292610  12.539   7.823   3.667
96946SOL     OW92611   4.651  11.904  10.444
96946SOL    HW192612   4.704  11.827  10.427
96946SOL    HW292613   4.563  11.870  10.462
96947SOL     OW92614  11.722   1.602  11.442
96947SOL    HW192615  11.801   1.581  11.393
96947SOL    HW292616  11.752   1.614  11.532
96948SOL     OW92617   6.082  11.737  12.073
96948SOL    HW192618   5.995  11.766  12.100
96948SOL    HW292619   6.142  11.802  12.109
96949SOL     OW92620   5.963  14.711   2.957
96949SOL    HW192621   5.980  14.668   3.041
96949SOL    HW292622   5.936  14.640   2.899
96950SOL     OW92623   2.853  14.807   6.751
96950SOL    HW192624   2.843  14.712   6.763
96950SOL    HW292625   2.929  14.816   6.693
96951SOL     OW92626   8.502   6.832   8.617
96951SOL    HW192627   8.468   6.896   8.680
96951SOL    HW292628   8.582   6.871   8.584
96952SOL     OW92629   4.304  12.943   6.781
96952SOL    HW192630   4.273  12.908   6.697
96952SOL    HW292631   4.251  12.898   6.847
96953SOL     OW92632   1.328  13.527   0.802
96953SOL    HW192633   1.242  13.488   0.787
96953SOL    HW292634   1.390  13.459   0.772
96954SOL     OW92635   9.124   3.311   0.800
96954SOL    HW192636   9.055   3.371   0.829
96954SOL    HW292637   9.088   3.269   0.722
96955SOL     OW92638   5.644  14.588   8.414
96955SOL    HW192639   5.626  14.677   8.445
96955SOL    HW292640   5.570  14.536   8.444
96956SOL     OW92641   6.874  10.539   5.723
96956SOL    HW192642   6.913  10.622   5.751
96956SOL    HW292643   6.934  10.472   5.755
96957SOL     OW92644   3.783   3.726   4.478
96957SOL    HW192645   3.833   3.644   4.478
96957SOL    HW292646   3.768   3.744   4.571
96958SOL     OW92647   9.848   4.865   4.029
96958SOL    HW192648   9.898   4.826   3.957
96958SOL    HW292649   9.788   4.796   4.056
96959SOL     OW92650  10.810   0.763  11.106
96959SOL    HW192651  10.768   0.689  11.149
96959SOL    HW292652  10.887   0.782  11.159
96960SOL     OW92653   6.904   0.959   2.343
96960SOL    HW192654   6.869   1.015   2.273
96960SOL    HW292655   6.853   0.878   2.337
96961SOL     OW92656   7.527  10.552  10.316
96961SOL    HW192657   7.592  10.600  10.263
96961SOL    HW292658   7.545  10.460  10.297
96962SOL     OW92659  14.578  13.028   0.459
96962SOL    HW192660  14.530  12.959   0.414
96962SOL    HW292661  14.670  13.001   0.454
96963SOL     OW92662   8.755  11.337   1.898
96963SOL    HW192663   8.817  11.408   1.910
96963SOL    HW292664   8.781  11.295   1.816
96964SOL     OW92665   7.344   7.719   3.833
96964SOL    HW192666   7.325   7.812   3.845
96964SOL    HW292667   7.303   7.677   3.909
96965SOL     OW92668   2.670   0.461  12.207
96965SOL    HW192669   2.672   0.369  12.232
96965SOL    HW292670   2.755   0.495  12.236
96966SOL     OW92671   2.744   7.601   9.727
96966SOL    HW192672   2.754   7.686   9.686
96966SOL    HW292673   2.651   7.596   9.749
96967SOL     OW92674  13.705  11.162   0.895
96967SOL    HW192675  13.757  11.122   0.965
96967SOL    HW292676  13.765  11.166   0.820
96968SOL     OW92677  11.816  14.217  10.399
96968SOL    HW192678  11.866  14.143  10.433
96968SOL    HW292679  11.730  14.180  10.377
96969SOL     OW92680   4.285   8.319   1.061
96969SOL    HW192681   4.206   8.296   1.011
96969SOL    HW292682   4.345   8.355   0.996
96970SOL     OW92683   0.153  13.984  13.740
96970SOL    HW192684   0.058  13.984  13.740
96970SOL    HW292685   0.177  14.075  13.758
96971SOL     OW92686  13.833   6.496  12.288
96971SOL    HW192687  13.892   6.555  12.335
96971SOL    HW292688  13.861   6.503  12.197
96972SOL     OW92689   9.949   2.290   8.320
96972SOL    HW192690   9.911   2.272   8.235
96972SOL    HW292691  10.001   2.212   8.341
96973SOL     OW92692   8.747   8.055   3.001
96973SOL    HW192693   8.809   8.071   3.072
96973SOL    HW292694   8.800   8.056   2.921
96974SOL     OW92695  11.858  12.767   4.706
96974SOL    HW192696  11.764  12.775   4.693
96974SOL    HW292697  11.867  12.712   4.784
96975SOL     OW92698  14.805   3.174  13.438
96975SOL    HW192699  14.770   3.196  13.352
96975SOL    HW292700   0.012   3.217  13.442
96976SOL     OW92701  10.179  13.625  11.192
96976SOL    HW192702  10.158  13.578  11.272
96976SOL    HW292703  10.271  13.605  11.175
96977SOL     OW92704  11.470   3.429   9.560
96977SOL    HW192705  11.444   3.410   9.470
96977SOL    HW292706  11.446   3.351   9.610
96978SOL     OW92707  13.976  14.227  13.501
96978SOL    HW192708  13.915  14.156  13.522
96978SOL    HW292709  13.997  14.267  13.585
96979SOL     OW92710   2.083  12.934  14.167
96979SOL    HW192711   2.024  12.983  14.224
96979SOL    HW292712   2.090  12.986  14.088
96980SOL     OW92713  10.161   1.747   3.748
96980SOL    HW192714  10.092   1.683   3.767
96980SOL    HW292715  10.238   1.694   3.728
96981SOL     OW92716  12.386  11.225   1.014
96981SOL    HW192717  12.314  11.251   0.957
96981SOL    HW292718  12.444  11.302   1.017
96982SOL     OW92719   1.187  10.217  10.324
96982SOL    HW192720   1.248  10.144  10.310
96982SOL    HW292721   1.242  10.295  10.322
96983SOL     OW92722  12.444   1.241   2.477
96983SOL    HW192723  12.491   1.166   2.513
96983SOL    HW292724  12.398   1.279   2.552
96984SOL     OW92725   0.281   7.627  13.454
96984SOL    HW192726   0.294   7.568  13.529
96984SOL    HW292727   0.291   7.715  13.491
96985SOL     OW92728  13.380   4.676  12.754
96985SOL    HW192729  13.358   4.769  12.746
96985SOL    HW292730  13.298   4.633  12.775
96986SOL     OW92731   4.924   6.096  10.753
96986SOL    HW192732   4.971   6.172  10.718
96986SOL    HW292733   4.852   6.081  10.692
96987SOL     OW92734  12.743  12.261  13.312
96987SOL    HW192735  12.727  12.168  13.297
96987SOL    HW292736  12.833  12.265  13.344
96988SOL     OW92737   6.156  11.879   6.335
96988SOL    HW192738   6.065  11.859   6.354
96988SOL    HW292739   6.166  11.857   6.242
96989SOL     OW92740   0.244  14.407   2.663
96989SOL    HW192741   0.275  14.463   2.734
96989SOL    HW292742   0.207  14.468   2.598
96990SOL     OW92743   8.605   9.690  12.425
96990SOL    HW192744   8.605   9.743  12.504
96990SOL    HW292745   8.517   9.702  12.388
96991SOL     OW92746   4.367   8.510  10.947
96991SOL    HW192747   4.364   8.521  10.852
96991SOL    HW292748   4.300   8.571  10.979
96992SOL     OW92749   4.781   5.986   9.706
96992SOL    HW192750   4.717   6.046   9.667
96992SOL    HW292751   4.761   5.901   9.669
96993SOL     OW92752  12.439   8.189   7.842
96993SOL    HW192753  12.390   8.254   7.792
96993SOL    HW292754  12.387   8.109   7.835
96994SOL     OW92755   2.469   1.640   0.742
96994SOL    HW192756   2.485   1.583   0.817
96994SOL    HW292757   2.474   1.728   0.778
96995SOL     OW92758   4.620   8.545  13.451
96995SOL    HW192759   4.696   8.513  13.499
96995SOL    HW292760   4.654   8.617  13.397
96996SOL     OW92761  10.143  12.096   9.724
96996SOL    HW192762  10.114  12.038   9.653
96996SOL    HW292763  10.114  12.183   9.697
96997SOL     OW92764   8.675   0.006   5.646
96997SOL    HW192765   8.659   0.045   5.561
96997SOL    HW292766   8.701  14.793   5.627
96998SOL     OW92767  10.714   0.609  11.826
96998SOL    HW192768  10.681   0.522  11.847
96998SOL    HW292769  10.665   0.635  11.747
96999SOL     OW92770  14.257  14.546   4.659
96999SOL    HW192771  14.187  14.606   4.687
96999SOL    HW292772  14.272  14.489   4.735
97000SOL     OW92773   6.563   6.761   9.854
97000SOL    HW192774   6.580   6.680   9.900
97000SOL    HW292775   6.639   6.773   9.797
97001SOL     OW92776   4.925  10.929  14.304
97001SOL    HW192777   4.917  10.854  14.245
97001SOL    HW292778   4.836  10.963  14.311
97002SOL     OW92779   1.001   5.371   4.045
97002SOL    HW192780   1.024   5.462   4.066
97002SOL    HW292781   1.085   5.325   4.042
97003SOL     OW92782   6.196  11.700   0.638
97003SOL    HW192783   6.230  11.782   0.603
97003SOL    HW292784   6.221  11.634   0.574
97004SOL     OW92785   2.080  10.829  12.517
97004SOL    HW192786   2.118  10.888  12.453
97004SOL    HW292787   1.993  10.864  12.535
97005SOL     OW92788   2.813  13.722   0.111
97005SOL    HW192789   2.836  13.664   0.039
97005SOL    HW292790   2.737  13.771   0.079
97006SOL     OW92791  14.840   3.831  11.813
97006SOL    HW192792   0.002   3.795  11.734
97006SOL    HW292793  14.812   3.755  11.864
97007SOL     OW92794  12.817  11.295   9.323
97007SOL    HW192795  12.804  11.386   9.350
97007SOL    HW292796  12.797  11.244   9.401
97008SOL     OW92797   1.789  10.176  14.502
97008SOL    HW192798   1.874  10.167  14.460
97008SOL    HW292799   1.809  10.195  14.594
97009SOL     OW92800  13.313   9.973   7.310
97009SOL    HW192801  13.255  10.015   7.374
97009SOL    HW292802  13.358   9.905   7.359
97010SOL     OW92803   2.434   1.759  13.725
97010SOL    HW192804   2.395   1.737  13.640
97010SOL    HW292805   2.479   1.843  13.710
97011SOL     OW92806  12.243   4.750   1.455
97011SOL    HW192807  12.277   4.838   1.471
97011SOL    HW292808  12.191   4.759   1.375
97012SOL     OW92809   9.463   6.664   6.671
97012SOL    HW192810   9.399   6.641   6.604
97012SOL    HW292811   9.493   6.580   6.707
97013SOL     OW92812   5.860   6.093  11.568
97013SOL    HW192813   5.872   6.148  11.490
97013SOL    HW292814   5.914   6.016  11.550
97014SOL     OW92815   3.482   0.694   3.828
97014SOL    HW192816   3.460   0.614   3.875
97014SOL    HW292817   3.543   0.666   3.760
97015SOL     OW92818   6.697  11.260  11.181
97015SOL    HW192819   6.680  11.218  11.266
97015SOL    HW292820   6.776  11.217  11.148
97016SOL     OW92821   2.498   2.503  11.781
97016SOL    HW192822   2.557   2.564  11.824
97016SOL    HW292823   2.454   2.555  11.714
97017SOL     OW92824   6.039   3.642   8.753
97017SOL    HW192825   6.101   3.593   8.700
97017SOL    HW292826   5.953   3.621   8.716
97018SOL     OW92827  14.478   3.538   7.720
97018SOL    HW192828  14.462   3.574   7.808
97018SOL    HW292829  14.572   3.517   7.720
97019SOL     OW92830   1.023  10.997   5.922
97019SOL    HW192831   0.968  11.002   5.844
97019SOL    HW292832   1.098  11.053   5.902
97020SOL     OW92833   6.924   7.983  12.857
97020SOL    HW192834   6.979   7.945  12.925
97020SOL    HW292835   6.848   8.018  12.904
97021SOL     OW92836   4.196  12.528  11.937
97021SOL    HW192837   4.116  12.475  11.930
97021SOL    HW292838   4.211  12.536  12.031
97022SOL     OW92839  11.794  13.570   6.976
97022SOL    HW192840  11.746  13.653   6.977
97022SOL    HW292841  11.727  13.503   6.993
97023SOL     OW92842   2.094   5.411   7.259
97023SOL    HW192843   2.074   5.404   7.352
97023SOL    HW292844   2.011   5.437   7.219
97024SOL     OW92845   6.992  14.786   0.624
97024SOL    HW192846   6.996   0.002   0.603
97024SOL    HW292847   7.083  14.757   0.620
97025SOL     OW92848   0.377   3.042  11.194
97025SOL    HW192849   0.318   3.025  11.120
97025SOL    HW292850   0.362   3.134  11.215
97026SOL     OW92851  12.185   4.188  12.983
97026SOL    HW192852  12.235   4.137  13.046
97026SOL    HW292853  12.248   4.253  12.950
97027SOL     OW92854  10.443   3.697   3.479
97027SOL    HW192855  10.384   3.628   3.449
97027SOL    HW292856  10.421   3.772   3.425
97028SOL     OW92857   9.536  13.449   7.594
97028SOL    HW192858   9.621  13.493   7.586
97028SOL    HW292859   9.482  13.490   7.526
97029SOL     OW92860   3.933   5.218  11.554
97029SOL    HW192861   3.918   5.310  11.531
97029SOL    HW292862   3.932   5.172  11.470
97030SOL     OW92863   2.061   5.639   2.269
97030SOL    HW192864   2.124   5.583   2.315
97030SOL    HW292865   2.076   5.726   2.305
97031SOL     OW92866   1.634  11.430   2.199
97031SOL    HW192867   1.567  11.476   2.149
97031SOL    HW292868   1.704  11.494   2.211
97032SOL     OW92869   6.208  12.345  13.336
97032SOL    HW192870   6.197  12.418  13.397
97032SOL    HW292871   6.169  12.270  13.382
97033SOL     OW92872  10.529  12.372   9.784
97033SOL    HW192873  10.460  12.393   9.720
97033SOL    HW292874  10.598  12.330   9.733
97034SOL     OW92875  12.021  11.753   2.823
97034SOL    HW192876  12.081  11.805   2.877
97034SOL    HW292877  12.078  11.703   2.765
97035SOL     OW92878   7.053   5.155   4.579
97035SOL    HW192879   6.963   5.126   4.593
97035SOL    HW292880   7.094   5.149   4.665
97036SOL     OW92881   5.129   8.146  11.409
97036SOL    HW192882   5.115   8.145  11.503
97036SOL    HW292883   5.193   8.215  11.394
97037SOL     OW92884  13.957   5.301   7.046
97037SOL    HW192885  13.936   5.356   7.121
97037SOL    HW292886  13.913   5.342   6.972
97038SOL     OW92887  13.810  11.051  12.899
97038SOL    HW192888  13.723  11.082  12.924
97038SOL    HW292889  13.832  10.986  12.965
97039SOL     OW92890  14.794   1.027  13.661
97039SOL    HW192891  14.768   1.008  13.751
97039SOL    HW292892  14.795   0.942  13.617
97040SOL     OW92893   2.123  10.477   1.824
97040SOL    HW192894   2.207  10.447   1.858
97040SOL    HW292895   2.094  10.544   1.886
97041SOL     OW92896   0.319   9.397   0.839
97041SOL    HW192897   0.286   9.307   0.839
97041SOL    HW292898   0.284   9.435   0.758
97042SOL     OW92899   5.182   9.802   6.066
97042SOL    HW192900   5.258   9.820   6.121
97042SOL    HW292901   5.127   9.880   6.075
97043SOL     OW92902   9.810  11.439   4.701
97043SOL    HW192903   9.878  11.479   4.756
97043SOL    HW292904   9.752  11.512   4.678
97044SOL     OW92905   9.509   6.618   3.440
97044SOL    HW192906   9.576   6.581   3.498
97044SOL    HW292907   9.428   6.616   3.491
97045SOL     OW92908   4.591   9.859   8.858
97045SOL    HW192909   4.551   9.936   8.816
97045SOL    HW292910   4.583   9.790   8.792
97046SOL     OW92911   4.809  10.514   9.563
97046SOL    HW192912   4.789  10.558   9.646
97046SOL    HW292913   4.765  10.567   9.496
97047SOL     OW92914  10.479   8.517   3.640
97047SOL    HW192915  10.548   8.479   3.695
97047SOL    HW292916  10.407   8.455   3.644
97048SOL     OW92917   4.627   7.050   3.755
97048SOL    HW192918   4.701   7.109   3.766
97048SOL    HW292919   4.636   6.986   3.825
97049SOL     OW92920   6.262   8.621   9.901
97049SOL    HW192921   6.334   8.651   9.846
97049SOL    HW292922   6.227   8.700   9.942
97050SOL     OW92923   9.005   5.347   3.099
97050SOL    HW192924   8.919   5.363   3.061
97050SOL    HW292925   8.989   5.282   3.167
97051SOL     OW92926  14.439   7.886   8.371
97051SOL    HW192927  14.436   7.893   8.467
97051SOL    HW292928  14.470   7.972   8.342
97052SOL     OW92929   5.518  12.371   4.743
97052SOL    HW192930   5.470  12.292   4.768
97052SOL    HW292931   5.469  12.406   4.668
97053SOL     OW92932   3.129  12.447   5.993
97053SOL    HW192933   3.082  12.438   5.909
97053SOL    HW292934   3.188  12.520   5.980
97054SOL     OW92935  12.721  12.519   2.399
97054SOL    HW192936  12.654  12.452   2.409
97054SOL    HW292937  12.803  12.470   2.390
97055SOL     OW92938   9.618   2.906   4.417
97055SOL    HW192939   9.565   2.893   4.339
97055SOL    HW292940   9.603   2.998   4.442
97056SOL     OW92941   6.272   3.202   5.329
97056SOL    HW192942   6.227   3.211   5.413
97056SOL    HW292943   6.244   3.116   5.297
97057SOL     OW92944   6.141  13.399   0.627
97057SOL    HW192945   6.169  13.485   0.658
97057SOL    HW292946   6.200  13.338   0.671
97058SOL     OW92947   9.723   2.425  13.111
97058SOL    HW192948   9.676   2.503  13.137
97058SOL    HW292949   9.657   2.370  13.069
97059SOL     OW92950  13.532   1.258   9.107
97059SOL    HW192951  13.561   1.181   9.058
97059SOL    HW292952  13.486   1.221   9.183
97060SOL     OW92953   3.797   6.370   9.212
97060SOL    HW192954   3.765   6.292   9.257
97060SOL    HW292955   3.863   6.407   9.272
97061SOL     OW92956   7.518   0.159   5.430
97061SOL    HW192957   7.578   0.205   5.489
97061SOL    HW292958   7.476   0.093   5.484
97062SOL     OW92959   7.287   4.655   3.247
97062SOL    HW192960   7.274   4.567   3.283
97062SOL    HW292961   7.235   4.712   3.304
97063SOL     OW92962  10.276  12.709   6.365
97063SOL    HW192963  10.281  12.652   6.442
97063SOL    HW292964  10.367  12.721   6.338
97064SOL     OW92965   1.872   2.862   1.642
97064SOL    HW192966   1.791   2.906   1.615
97064SOL    HW292967   1.883   2.791   1.578
97065SOL     OW92968   0.107  10.481   3.340
97065SOL    HW192969   0.027  10.534   3.346
97065SOL    HW292970   0.080  10.393   3.364
97066SOL     OW92971  12.434  10.434   9.226
97066SOL    HW192972  12.495  10.360   9.227
97066SOL    HW292973  12.347  10.394   9.225
97067SOL     OW92974  11.091   5.039   8.607
97067SOL    HW192975  11.054   4.959   8.644
97067SOL    HW292976  11.100   5.021   8.514
97068SOL     OW92977  12.986  11.541   5.243
97068SOL    HW192978  12.973  11.633   5.223
97068SOL    HW292979  13.018  11.540   5.333
97069SOL     OW92980   3.467   9.202   2.975
97069SOL    HW192981   3.558   9.187   2.949
97069SOL    HW292982   3.460   9.297   2.982
97070SOL     OW92983   4.643  12.607   4.879
97070SOL    HW192984   4.737  12.615   4.898
97070SOL    HW292985   4.632  12.655   4.797
97071SOL     OW92986   5.257   6.345  13.246
97071SOL    HW192987   5.321   6.274  13.256
97071SOL    HW292988   5.176   6.301  13.223
97072SOL     OW92989   4.555   0.990   8.464
97072SOL    HW192990   4.512   0.920   8.414
97072SOL    HW292991   4.622   1.024   8.405
97073SOL     OW92992   4.817  14.145  13.777
97073SOL    HW192993   4.894  14.109  13.822
97073SOL    HW292994   4.817  14.101  13.692
97074SOL     OW92995  11.939   2.501   0.289
97074SOL    HW192996  11.901   2.574   0.242
97074SOL    HW292997  11.864   2.448   0.316
97075SOL     OW92998  14.104   6.552  14.326
97075SOL    HW192999  14.020   6.597  14.330
97075SOL    HW293000  14.168   6.616  14.356
97076SOL     OW93001  12.924   5.794  11.630
97076SOL    HW193002  12.829   5.788  11.620
97076SOL    HW293003  12.936   5.857  11.701
97077SOL     OW93004   4.451   8.503   6.287
97077SOL    HW193005   4.412   8.581   6.327
97077SOL    HW293006   4.535   8.493   6.331
97078SOL     OW93007   8.365   6.564  14.611
97078SOL    HW193008   8.347   6.608  14.694
97078SOL    HW293009   8.357   6.632  14.544
97079SOL     OW93010   7.880   0.496   7.971
97079SOL    HW193011   7.904   0.489   7.879
97079SOL    HW293012   7.900   0.410   8.008
97080SOL     OW93013   9.796   7.477   6.781
97080SOL    HW193014   9.709   7.482   6.740
97080SOL    HW293015   9.779   7.444   6.869
97081SOL     OW93016   1.074  10.653   7.949
97081SOL    HW193017   1.082  10.749   7.946
97081SOL    HW293018   1.065  10.633   8.042
97082SOL     OW93019   0.885  12.969   0.457
97082SOL    HW193020   0.867  13.037   0.392
97082SOL    HW293021   0.802  12.923   0.468
97083SOL     OW93022   2.625   8.579  13.465
97083SOL    HW193023   2.650   8.583  13.373
97083SOL    HW293024   2.532   8.603  13.465
97084SOL     OW93025   1.121   9.635   8.590
97084SOL    HW193026   1.132   9.710   8.532
97084SOL    HW293027   1.208   9.619   8.626
97085SOL     OW93028   6.814  13.567   1.140
97085SOL    HW193029   6.719  13.573   1.149
97085SOL    HW293030   6.829  13.563   1.046
97086SOL     OW93031  13.264   4.718   6.332
97086SOL    HW193032  13.244   4.626   6.347
97086SOL    HW293033  13.298   4.749   6.416
97087SOL     OW93034   2.701   5.033   9.719
97087SOL    HW193035   2.659   4.948   9.732
97087SOL    HW293036   2.786   5.024   9.763
97088SOL     OW93037   6.027   9.385   5.348
97088SOL    HW193038   6.054   9.311   5.295
97088SOL    HW293039   6.082   9.458   5.318
97089SOL     OW93040   0.258   4.458   0.516
97089SOL    HW193041   0.241   4.412   0.598
97089SOL    HW293042   0.327   4.521   0.537
97090SOL     OW93043   7.206   2.869   4.803
97090SOL    HW193044   7.293   2.884   4.841
97090SOL    HW293045   7.165   2.955   4.800
97091SOL     OW93046   4.495  10.009   1.456
97091SOL    HW193047   4.408   9.972   1.464
97091SOL    HW293048   4.526   9.978   1.371
97092SOL     OW93049   7.117   6.846   9.497
97092SOL    HW193050   7.077   6.914   9.551
97092SOL    HW293051   7.169   6.893   9.433
97093SOL     OW93052   0.089   2.322  10.823
97093SOL    HW193053   0.105   2.385  10.753
97093SOL    HW293054   0.051   2.374  10.894
97094SOL     OW93055  10.997  11.764  13.021
97094SOL    HW193056  10.982  11.705  12.947
97094SOL    HW293057  11.013  11.706  13.095
97095SOL     OW93058   5.544   1.072   2.664
97095SOL    HW193059   5.598   1.087   2.586
97095SOL    HW293060   5.500   1.156   2.678
97096SOL     OW93061  12.811  11.252  14.362
97096SOL    HW193062  12.789  11.313  14.292
97096SOL    HW293063  12.905  11.264  14.375
97097SOL     OW93064   5.140   4.232  11.923
97097SOL    HW193065   5.092   4.282  11.857
97097SOL    HW293066   5.139   4.287  12.001
97098SOL     OW93067  12.638   4.843   5.038
97098SOL    HW193068  12.604   4.754   5.028
97098SOL    HW293069  12.567   4.899   5.009
97099SOL     OW93070   4.884  13.343   9.525
97099SOL    HW193071   4.846  13.265   9.483
97099SOL    HW293072   4.975  13.320   9.540
97100SOL     OW93073  11.268   5.081  12.496
97100SOL    HW193074  11.211   5.118  12.564
97100SOL    HW293075  11.287   4.993  12.527
97101SOL     OW93076   9.019   6.116  12.426
97101SOL    HW193077   8.986   6.125  12.337
97101SOL    HW293078   8.951   6.066  12.471
97102SOL     OW93079  12.434   1.990   6.886
97102SOL    HW193080  12.407   2.004   6.795
97102SOL    HW293081  12.529   1.982   6.882
97103SOL     OW93082   2.314   3.494  13.813
97103SOL    HW193083   2.369   3.547  13.755
97103SOL    HW293084   2.351   3.508  13.900
97104SOL     OW93085   9.561  12.398  13.366
97104SOL    HW193086   9.621  12.332  13.332
97104SOL    HW293087   9.610  12.441  13.436
97105SOL     OW93088   5.877   9.186   0.659
97105SOL    HW193089   5.795   9.203   0.707
97105SOL    HW293090   5.881   9.091   0.652
97106SOL     OW93091   1.248  12.248  13.894
97106SOL    HW193092   1.246  12.326  13.949
97106SOL    HW293093   1.176  12.194  13.925
97107SOL     OW93094   8.677   0.304   9.797
97107SOL    HW193095   8.597   0.269   9.759
97107SOL    HW293096   8.722   0.346   9.723
97108SOL     OW93097   3.781   3.123  11.909
97108SOL    HW193098   3.766   3.045  11.963
97108SOL    HW293099   3.810   3.190  11.971
97109SOL     OW93100   7.513  11.125   5.589
97109SOL    HW193101   7.571  11.176   5.533
97109SOL    HW293102   7.497  11.044   5.539
97110SOL     OW93103   9.140  11.192   1.156
97110SOL    HW193104   9.082  11.172   1.082
97110SOL    HW293105   9.103  11.143   1.229
97111SOL     OW93106   8.898  12.818  12.988
97111SOL    HW193107   8.813  12.861  12.994
97111SOL    HW293108   8.915  12.786  13.077
97112SOL     OW93109   5.908   2.080   7.616
97112SOL    HW193110   5.896   2.040   7.530
97112SOL    HW293111   5.939   2.169   7.596
97113SOL     OW93112   8.507   9.921   1.093
97113SOL    HW193113   8.516  10.016   1.083
97113SOL    HW293114   8.591   9.893   1.129
97114SOL     OW93115  14.679   1.021   9.230
97114SOL    HW193116  14.659   1.055   9.317
97114SOL    HW293117  14.627   1.076   9.171
97115SOL     OW93118   0.085  10.549   1.933
97115SOL    HW193119   0.035  10.489   1.877
97115SOL    HW293120   0.070  10.636   1.894
97116SOL     OW93121  12.461   1.406   2.274
97116SOL    HW193122  12.443   1.336   2.338
97116SOL    HW293123  12.555   1.398   2.256
97117SOL     OW93124  11.721   1.235  12.005
97117SOL    HW193125  11.769   1.312  12.034
97117SOL    HW293126  11.639   1.238  12.054
97118SOL     OW93127   3.065   2.415   6.974
97118SOL    HW193128   2.977   2.413   7.012
97118SOL    HW293129   3.053   2.381   6.885
97119SOL     OW93130   0.692   9.748   7.322
97119SOL    HW193131   0.769   9.692   7.312
97119SOL    HW293132   0.617   9.690   7.311
97120SOL     OW93133   8.040   3.369   4.714
97120SOL    HW193134   7.973   3.362   4.783
97120SOL    HW293135   8.069   3.279   4.699
97121SOL     OW93136  14.238  13.248   8.279
97121SOL    HW193137  14.215  13.173   8.224
97121SOL    HW293138  14.230  13.323   8.221
97122SOL     OW93139   6.362   0.226   5.538
97122SOL    HW193140   6.448   0.203   5.574
97122SOL    HW293141   6.381   0.288   5.467
97123SOL     OW93142  10.703   6.377  14.702
97123SOL    HW193143  10.631   6.377  14.638
97123SOL    HW293144  10.753   6.298  14.682
97124SOL     OW93145  13.242   1.857   9.731
97124SOL    HW193146  13.161   1.821   9.696
97124SOL    HW293147  13.310   1.826   9.671
97125SOL     OW93148   8.498   2.924   7.729
97125SOL    HW193149   8.430   2.858   7.742
97125SOL    HW293150   8.562   2.905   7.797
97126SOL     OW93151   3.917   7.915   4.694
97126SOL    HW193152   3.977   7.978   4.656
97126SOL    HW293153   3.950   7.900   4.782
97127SOL     OW93154  14.080   5.307   6.223
97127SOL    HW193155  14.054   5.267   6.306
97127SOL    HW293156  14.020   5.380   6.212
97128SOL     OW93157   1.566   1.771   0.117
97128SOL    HW193158   1.522   1.830   0.056
97128SOL    HW293159   1.502   1.758   0.188
97129SOL     OW93160  10.830  14.295   6.179
97129SOL    HW193161  10.782  14.309   6.097
97129SOL    HW293162  10.762  14.273   6.242
97130SOL     OW93163  11.973   5.698   8.325
97130SOL    HW193164  11.889   5.698   8.279
97130SOL    HW293165  12.035   5.735   8.262
97131SOL     OW93166   9.068   7.019   0.071
97131SOL    HW193167   9.008   7.073   0.122
97131SOL    HW293168   9.100   7.077   0.002
97132SOL     OW93169   0.696  14.324   2.506
97132SOL    HW193170   0.750  14.245   2.516
97132SOL    HW293171   0.606  14.291   2.512
97133SOL     OW93172  12.089   9.150  10.113
97133SOL    HW193173  12.067   9.242  10.128
97133SOL    HW293174  12.139   9.151  10.032
97134SOL     OW93175   4.494  14.548  12.156
97134SOL    HW193176   4.473  14.505  12.239
97134SOL    HW293177   4.534  14.479  12.103
97135SOL     OW93178   7.031   6.245   3.814
97135SOL    HW193179   7.104   6.239   3.876
97135SOL    HW293180   7.008   6.338   3.814
97136SOL     OW93181   0.183  12.126   2.731
97136SOL    HW193182   0.250  12.175   2.780
97136SOL    HW293183   0.103  12.176   2.744
97137SOL     OW93184   3.907   3.828   5.750
97137SOL    HW193185   3.853   3.759   5.712
97137SOL    HW293186   3.854   3.907   5.741
97138SOL     OW93187  12.583   7.072   0.090
97138SOL    HW193188  12.519   7.019   0.043
97138SOL    HW293189  12.531   7.131   0.144
97139SOL     OW93190  13.475   3.863   8.500
97139SOL    HW193191  13.506   3.953   8.489
97139SOL    HW293192  13.488   3.845   8.594
97140SOL     OW93193   6.483   6.597   6.006
97140SOL    HW193194   6.497   6.510   5.970
97140SOL    HW293195   6.433   6.582   6.087
97141SOL     OW93196   7.431   1.914   6.739
97141SOL    HW193197   7.448   2.000   6.777
97141SOL    HW293198   7.353   1.883   6.785
97142SOL     OW93199   4.248  10.707   6.609
97142SOL    HW193200   4.343  10.699   6.601
97142SOL    HW293201   4.226  10.661   6.690
97143SOL     OW93202   1.256   4.340  12.472
97143SOL    HW193203   1.181   4.365  12.526
97143SOL    HW293204   1.331   4.381  12.515
97144SOL     OW93205  10.908   9.415   5.016
97144SOL    HW193206  10.948   9.343   4.968
97144SOL    HW293207  10.914   9.490   4.957
97145SOL     OW93208   1.437   4.944   7.601
97145SOL    HW193209   1.348   4.916   7.578
97145SOL    HW293210   1.481   4.956   7.517
97146SOL     OW93211   5.808  14.143   5.695
97146SOL    HW193212   5.851  14.135   5.609
97146SOL    HW293213   5.867  14.198   5.746
97147SOL     OW93214   0.708   8.769   8.987
97147SOL    HW193215   0.641   8.766   8.918
97147SOL    HW293216   0.788   8.741   8.943
97148SOL     OW93217   7.086   1.223   9.600
97148SOL    HW193218   7.147   1.250   9.669
97148SOL    HW293219   7.094   1.128   9.597
97149SOL     OW93220   1.348   3.894   6.014
97149SOL    HW193221   1.421   3.944   5.978
97149SOL    HW293222   1.356   3.808   5.973
97150SOL     OW93223  12.843   3.974  10.489
97150SOL    HW193224  12.771   3.913  10.506
97150SOL    HW293225  12.819   4.016  10.406
97151SOL     OW93226   6.077  11.409  14.359
97151SOL    HW193227   5.998  11.461  14.374
97151SOL    HW293228   6.105  11.383  14.447
97152SOL     OW93229  12.456   8.390   4.437
97152SOL    HW193230  12.508   8.418   4.513
97152SOL    HW293231  12.456   8.466   4.379
97153SOL     OW93232   5.314   1.117  13.832
97153SOL    HW193233   5.248   1.174  13.791
97153SOL    HW293234   5.384   1.112  13.767
97154SOL     OW93235   8.904   4.146  14.339
97154SOL    HW193236   8.947   4.207  14.399
97154SOL    HW293237   8.974   4.088  14.309
97155SOL     OW93238   7.232   2.178  13.466
97155SOL    HW193239   7.263   2.134  13.386
97155SOL    HW293240   7.178   2.250  13.434
97156SOL     OW93241  11.677  12.557  10.287
97156SOL    HW193242  11.605  12.498  10.264
97156SOL    HW293243  11.677  12.558  10.383
97157SOL     OW93244  11.951   3.119  11.808
97157SOL    HW193245  11.913   3.042  11.766
97157SOL    HW293246  11.989   3.170  11.736
97158SOL     OW93247  14.097   3.428   9.972
97158SOL    HW193248  14.086   3.503   9.914
97158SOL    HW293249  14.069   3.353   9.920
97159SOL     OW93250   5.748   4.503   9.431
97159SOL    HW193251   5.797   4.457   9.500
97159SOL    HW293252   5.675   4.445   9.411
97160SOL     OW93253   5.166   8.158   3.659
97160SOL    HW193254   5.100   8.088   3.668
97160SOL    HW293255   5.249   8.111   3.652
97161SOL     OW93256   8.231   3.216  11.763
97161SOL    HW193257   8.234   3.310  11.784
97161SOL    HW293258   8.185   3.212  11.680
97162SOL     OW93259   0.085   7.244   4.921
97162SOL    HW193260   0.012   7.210   4.869
97162SOL    HW293261   0.149   7.173   4.921
97163SOL     OW93262  12.637  14.209   7.368
97163SOL    HW193263  12.565  14.272   7.368
97163SOL    HW293264  12.644  14.182   7.459
97164SOL     OW93265   9.434  13.177   9.874
97164SOL    HW193266   9.417  13.113   9.806
97164SOL    HW293267   9.389  13.143   9.951
97165SOL     OW93268   7.566   3.429   1.164
97165SOL    HW193269   7.616   3.503   1.129
97165SOL    HW293270   7.603   3.414   1.251
97166SOL     OW93271  13.714   4.097  11.970
97166SOL    HW193272  13.650   4.132  11.908
97166SOL    HW293273  13.756   4.025  11.923
97167SOL     OW93274   7.509  11.320   1.091
97167SOL    HW193275   7.458  11.267   1.029
97167SOL    HW293276   7.539  11.257   1.157
97168SOL     OW93277   7.399   7.613   6.080
97168SOL    HW193278   7.374   7.626   5.989
97168SOL    HW293279   7.493   7.596   6.077
97169SOL     OW93280   0.067  10.149   4.536
97169SOL    HW193281   0.148  10.182   4.497
97169SOL    HW293282   0.016  10.228   4.556
97170SOL     OW93283  13.758  12.171   0.978
97170SOL    HW193284  13.846  12.136   0.990
97170SOL    HW293285  13.768  12.238   0.910
97171SOL     OW93286   5.166   6.164  11.466
97171SOL    HW193287   5.234   6.231  11.478
97171SOL    HW293288   5.095   6.210  11.422
97172SOL     OW93289  14.269   4.450   2.030
97172SOL    HW193290  14.226   4.530   1.998
97172SOL    HW293291  14.234   4.380   1.975
97173SOL     OW93292   6.714   5.891   9.859
97173SOL    HW193293   6.641   5.829   9.856
97173SOL    HW293294   6.723   5.912   9.952
97174SOL     OW93295   5.121   8.616  14.814
97174SOL    HW193296   5.131   8.708  14.792
97174SOL    HW293297   5.034   8.611  14.856
97175SOL     OW93298  11.910   3.495  10.081
97175SOL    HW193299  11.905   3.545  10.000
97175SOL    HW293300  11.892   3.559  10.150
97176SOL     OW93301  12.259  11.043  14.228
97176SOL    HW193302  12.345  11.028  14.189
97176SOL    HW293303  12.247  10.969  14.289
97177SOL     OW93304  11.571  10.749   7.854
97177SOL    HW193305  11.655  10.709   7.877
97177SOL    HW293306  11.566  10.743   7.759
97178SOL     OW93307   4.774   1.017   8.280
97178SOL    HW193308   4.851   1.064   8.311
97178SOL    HW293309   4.763   1.046   8.189
97179SOL     OW93310  10.693   0.552   6.203
97179SOL    HW193311  10.693   0.554   6.107
97179SOL    HW293312  10.757   0.618   6.228
97180SOL     OW93313   6.749   0.388   0.209
97180SOL    HW193314   6.675   0.387   0.271
97180SOL    HW293315   6.822   0.351   0.259
97181SOL     OW93316  12.194   0.988   6.199
97181SOL    HW193317  12.138   1.016   6.127
97181SOL    HW293318  12.283   1.001   6.167
97182SOL     OW93319   2.253  12.776  12.167
97182SOL    HW193320   2.300  12.859  12.159
97182SOL    HW293321   2.179  12.785  12.106
97183SOL     OW93322  12.496  10.504  10.757
97183SOL    HW193323  12.474  10.412  10.770
97183SOL    HW293324  12.581  10.514  10.800
97184SOL     OW93325  12.467   2.037   1.446
97184SOL    HW193326  12.513   1.956   1.471
97184SOL    HW293327  12.537   2.096   1.418
97185SOL     OW93328  11.918  10.036   9.005
97185SOL    HW193329  11.978  10.098   8.963
97185SOL    HW293330  11.916   9.960   8.946
97186SOL     OW93331   8.304   0.147   3.089
97186SOL    HW193332   8.233   0.183   3.142
97186SOL    HW293333   8.353   0.224   3.060
97187SOL     OW93334   3.533   6.760   5.260
97187SOL    HW193335   3.508   6.846   5.225
97187SOL    HW293336   3.450   6.718   5.282
97188SOL     OW93337   8.370   9.456   1.019
97188SOL    HW193338   8.324   9.533   1.051
97188SOL    HW293339   8.441   9.443   1.081
97189SOL     OW93340  14.024   6.371   6.423
97189SOL    HW193341  13.950   6.412   6.468
97189SOL    HW293342  14.100   6.424   6.447
97190SOL     OW93343   8.696  13.357   2.490
97190SOL    HW193344   8.746  13.388   2.566
97190SOL    HW293345   8.615  13.323   2.528
97191SOL     OW93346   2.908   8.786  13.536
97191SOL    HW193347   2.837   8.795  13.472
97191SOL    HW293348   2.958   8.710  13.505
97192SOL     OW93349   6.271   4.829  13.947
97192SOL    HW193350   6.211   4.888  13.900
97192SOL    HW293351   6.217   4.754  13.971
97193SOL     OW93352   5.852   0.407   1.647
97193SOL    HW193353   5.831   0.315   1.626
97193SOL    HW293354   5.933   0.402   1.697
97194SOL     OW93355  14.536   2.509  11.928
97194SOL    HW193356  14.565   2.486  11.840
97194SOL    HW293357  14.459   2.455  11.943
97195SOL     OW93358  11.892   7.043   9.856
97195SOL    HW193359  11.987   7.054   9.867
97195SOL    HW293360  11.881   6.950   9.834
97196SOL     OW93361   2.633   2.998  12.230
97196SOL    HW193362   2.578   2.957  12.163
97196SOL    HW293363   2.649   3.086  12.198
97197SOL     OW93364   1.645   5.053  12.912
97197SOL    HW193365   1.627   4.975  12.964
97197SOL    HW293366   1.626   5.126  12.970
97198SOL     OW93367   9.917  14.757  14.086
97198SOL    HW193368   9.952  14.687  14.141
97198SOL    HW293369   9.849  14.714  14.033
97199SOL     OW93370   0.347   8.940   8.185
97199SOL    HW193371   0.314   9.027   8.162
97199SOL    HW293372   0.417   8.957   8.248
97200SOL     OW93373  11.913   3.506   5.778
97200SOL    HW193374  11.890   3.581   5.832
97200SOL    HW293375  11.864   3.433   5.815
97201SOL     OW93376   8.425  13.469   8.871
97201SOL    HW193377   8.346  13.416   8.873
97201SOL    HW293378   8.431  13.507   8.959
97202SOL     OW93379   5.198  12.431   7.934
97202SOL    HW193380   5.182  12.460   7.844
97202SOL    HW293381   5.252  12.500   7.972
97203SOL     OW93382   9.371   6.542  13.029
97203SOL    HW193383   9.313   6.616  13.047
97203SOL    HW293384   9.458   6.581  13.020
97204SOL     OW93385   5.106   9.570   5.933
97204SOL    HW193386   5.010   9.567   5.932
97204SOL    HW293387   5.127   9.647   5.984
97205SOL     OW93388   9.883  10.388  10.374
97205SOL    HW193389   9.834  10.353  10.449
97205SOL    HW293390   9.969  10.348  10.381
97206SOL     OW93391   1.822  10.694  13.763
97206SOL    HW193392   1.840  10.786  13.778
97206SOL    HW293393   1.736  10.679  13.802
97207SOL     OW93394   9.319  10.658   1.113
97207SOL    HW193395   9.224  10.663   1.108
97207SOL    HW293396   9.350  10.727   1.055
97208SOL     OW93397  12.468  12.500   4.541
97208SOL    HW193398  12.507  12.580   4.576
97208SOL    HW293399  12.492  12.500   4.448
97209SOL     OW93400   1.242  11.520   4.983
97209SOL    HW193401   1.293  11.575   4.923
97209SOL    HW293402   1.308  11.473   5.034
97210SOL     OW93403   8.347   9.426   9.555
97210SOL    HW193404   8.373   9.336   9.531
97210SOL    HW293405   8.252   9.427   9.547
97211SOL     OW93406   3.165   1.193   2.850
97211SOL    HW193407   3.195   1.109   2.883
97211SOL    HW293408   3.181   1.254   2.922
97212SOL     OW93409   4.029   1.505  10.550
97212SOL    HW193410   3.954   1.556  10.581
97212SOL    HW293411   4.083   1.492  10.627
97213SOL     OW93412   2.771   0.308  14.004
97213SOL    HW193413   2.833   0.237  13.991
97213SOL    HW293414   2.726   0.316  13.920
97214SOL     OW93415  11.437   1.480   7.646
97214SOL    HW193416  11.409   1.571   7.632
97214SOL    HW293417  11.411   1.435   7.566
97215SOL     OW93418  10.216  10.105   4.994
97215SOL    HW193419  10.196  10.014   4.972
97215SOL    HW293420  10.311  10.111   4.985
97216SOL     OW93421  10.200  11.779   7.064
97216SOL    HW193422  10.259  11.706   7.049
97216SOL    HW293423  10.122  11.758   7.013
97217SOL     OW93424  11.161   4.306  11.818
97217SOL    HW193425  11.146   4.355  11.737
97217SOL    HW293426  11.107   4.227  11.807
97218SOL     OW93427   9.209  11.230   3.537
97218SOL    HW193428   9.196  11.152   3.591
97218SOL    HW293429   9.223  11.301   3.600
97219SOL     OW93430  11.742  10.780   5.799
97219SOL    HW193431  11.696  10.739   5.726
97219SOL    HW293432  11.695  10.751   5.877
97220SOL     OW93433   9.866  11.084   1.204
97220SOL    HW193434   9.940  11.118   1.254
97220SOL    HW293435   9.790  11.131   1.238
97221SOL     OW93436   4.107   0.659  12.634
97221SOL    HW193437   4.127   0.575  12.676
97221SOL    HW293438   4.155   0.723  12.687
97222SOL     OW93439   5.593   6.982  10.841
97222SOL    HW193440   5.573   7.013  10.929
97222SOL    HW293441   5.588   7.061  10.786
97223SOL     OW93442   9.310   1.908   3.629
97223SOL    HW193443   9.399   1.941   3.621
97223SOL    HW293444   9.314   1.819   3.594
97224SOL     OW93445  12.790  10.782   0.107
97224SOL    HW193446  12.751  10.822   0.029
97224SOL    HW293447  12.860  10.726   0.073
97225SOL     OW93448   8.037   2.874   8.789
97225SOL    HW193449   8.129   2.885   8.767
97225SOL    HW293450   8.019   2.942   8.853
97226SOL     OW93451   2.075   8.406   4.202
97226SOL    HW193452   2.057   8.354   4.280
97226SOL    HW293453   2.064   8.497   4.230
97227SOL     OW93454   2.958  13.020   2.439
97227SOL    HW193455   2.989  13.105   2.471
97227SOL    HW293456   2.951  13.031   2.344
97228SOL     OW93457   3.106   7.346  11.510
97228SOL    HW193458   3.201   7.353  11.498
97228SOL    HW293459   3.096   7.301  11.594
97229SOL     OW93460   8.744   6.365   4.358
97229SOL    HW193461   8.830   6.362   4.400
97229SOL    HW293462   8.761   6.403   4.271
97230SOL     OW93463   2.708  11.430   5.691
97230SOL    HW193464   2.723  11.337   5.674
97230SOL    HW293465   2.787  11.460   5.735
97231SOL     OW93466  14.527  13.119   5.765
97231SOL    HW193467  14.616  13.094   5.791
97231SOL    HW293468  14.470  13.077   5.829
97232SOL     OW93469   9.967   3.776   2.844
97232SOL    HW193470   9.998   3.851   2.894
97232SOL    HW293471   9.892   3.743   2.893
97233SOL     OW93472  13.834   8.102   2.360
97233SOL    HW193473  13.844   8.011   2.333
97233SOL    HW293474  13.798   8.146   2.282
97234SOL     OW93475   2.659   6.350   4.622
97234SOL    HW193476   2.695   6.410   4.687
97234SOL    HW293477   2.570   6.331   4.654
97235SOL     OW93478  11.452  11.110   1.379
97235SOL    HW193479  11.389  11.087   1.310
97235SOL    HW293480  11.517  11.040   1.375
97236SOL     OW93481   4.763   4.209   3.236
97236SOL    HW193482   4.756   4.303   3.218
97236SOL    HW293483   4.752   4.203   3.331
97237SOL     OW93484  12.093   8.402   6.142
97237SOL    HW193485  12.008   8.427   6.179
97237SOL    HW293486  12.145   8.481   6.144
97238SOL     OW93487   6.210   4.103   1.203
97238SOL    HW193488   6.222   4.031   1.141
97238SOL    HW293489   6.171   4.061   1.280
97239SOL     OW93490  10.356   2.718  11.280
97239SOL    HW193491  10.298   2.642  11.283
97239SOL    HW293492  10.374   2.731  11.187
97240SOL     OW93493  14.081  11.890   8.212
97240SOL    HW193494  14.166  11.917   8.178
97240SOL    HW293495  14.037  11.972   8.234
97241SOL     OW93496   4.665   1.045   7.802
97241SOL    HW193497   4.680   1.115   7.738
97241SOL    HW293498   4.655   0.966   7.750
97242SOL     OW93499   9.344  14.436   0.370
97242SOL    HW193500   9.324  14.347   0.338
97242SOL    HW293501   9.288  14.493   0.317
97243SOL     OW93502   2.947   3.433  14.553
97243SOL    HW193503   2.946   3.419  14.647
97243SOL    HW293504   2.987   3.519  14.542
97244SOL     OW93505  14.386  11.074   1.722
97244SOL    HW193506  14.450  11.144   1.710
97244SOL    HW293507  14.439  10.999   1.751
97245SOL     OW93508   4.701   6.981   4.878
97245SOL    HW193509   4.733   6.891   4.886
97245SOL    HW293510   4.662   6.984   4.791
97246SOL     OW93511   3.929   4.579  12.111
97246SOL    HW193512   3.884   4.652  12.068
97246SOL    HW293513   3.946   4.516  12.041
97247SOL     OW93514   4.601   2.882   4.645
97247SOL    HW193515   4.528   2.821   4.647
97247SOL    HW293516   4.657   2.855   4.718
97248SOL     OW93517   9.388  13.684   4.529
97248SOL    HW193518   9.324  13.675   4.458
97248SOL    HW293519   9.464  13.635   4.499
97249SOL     OW93520   8.992  12.184  14.526
97249SOL    HW193521   9.053  12.257  14.512
97249SOL    HW293522   8.914  12.209  14.476
97250SOL     OW93523   8.960   6.837   4.709
97250SOL    HW193524   9.055   6.827   4.700
97250SOL    HW293525   8.928   6.846   4.619
97251SOL     OW93526  12.557   2.528   0.353
97251SOL    HW193527  12.595   2.616   0.354
97251SOL    HW293528  12.519   2.520   0.266
97252SOL     OW93529   4.919   4.051   4.075
97252SOL    HW193530   4.946   4.142   4.062
97252SOL    HW293531   4.934   4.010   3.990
97253SOL     OW93532   8.359  13.897   3.485
97253SOL    HW193533   8.402  13.911   3.401
97253SOL    HW293534   8.382  13.808   3.510
97254SOL     OW93535  10.045   3.446   2.217
97254SOL    HW193536  10.077   3.374   2.163
97254SOL    HW293537   9.962   3.472   2.176
97255SOL     OW93538   5.649   5.563  12.017
97255SOL    HW193539   5.689   5.508  11.950
97255SOL    HW293540   5.673   5.521  12.100
97256SOL     OW93541  12.569   4.573   4.999
97256SOL    HW193542  12.580   4.478   4.998
97256SOL    HW293543  12.505   4.589   5.069
97257SOL     OW93544   1.132   2.803   2.268
97257SOL    HW193545   1.171   2.815   2.181
97257SOL    HW293546   1.057   2.862   2.269
97258SOL     OW93547  11.410   0.894   2.590
97258SOL    HW193548  11.448   0.928   2.509
97258SOL    HW293549  11.381   0.805   2.568
97259SOL     OW93550   9.203   6.766   9.549
97259SOL    HW193551   9.253   6.702   9.499
97259SOL    HW293552   9.135   6.715   9.593
97260SOL     OW93553  14.308   9.365  11.448
97260SOL    HW193554  14.285   9.344  11.539
97260SOL    HW293555  14.329   9.281  11.408
97261SOL     OW93556   5.707  14.553  12.239
97261SOL    HW193557   5.781  14.514  12.284
97261SOL    HW293558   5.669  14.481  12.187
97262SOL     OW93559  14.467   6.957   7.990
97262SOL    HW193560  14.557   6.946   8.022
97262SOL    HW293561  14.415   6.900   8.046
97263SOL     OW93562   1.719  14.758   2.560
97263SOL    HW193563   1.676  14.829   2.512
97263SOL    HW293564   1.777  14.718   2.495
97264SOL     OW93565   0.486   9.427   7.907
97264SOL    HW193566   0.455   9.353   7.854
97264SOL    HW293567   0.406   9.474   7.931
97265SOL     OW93568   6.590   4.853  11.400
97265SOL    HW193569   6.502   4.824  11.423
97265SOL    HW293570   6.591   4.852  11.304
97266SOL     OW93571  12.439   9.094  14.089
97266SOL    HW193572  12.409   9.062  14.004
97266SOL    HW293573  12.526   9.130  14.071
97267SOL     OW93574   2.413  13.397   2.233
97267SOL    HW193575   2.410  13.350   2.150
97267SOL    HW293576   2.325  13.388   2.269
97268SOL     OW93577  14.406  11.876   4.069
97268SOL    HW193578  14.439  11.813   4.133
97268SOL    HW293579  14.386  11.824   3.991
97269SOL     OW93580   6.758  14.473   2.031
97269SOL    HW193581   6.740  14.389   1.988
97269SOL    HW293582   6.793  14.528   1.961
97270SOL     OW93583  10.511   3.889   0.949
97270SOL    HW193584  10.488   3.900   0.856
97270SOL    HW293585  10.437   3.842   0.987
97271SOL     OW93586   7.550  14.598  13.298
97271SOL    HW193587   7.460  14.631  13.302
97271SOL    HW293588   7.587  14.616  13.384
97272SOL     OW93589   5.421   9.387   5.260
97272SOL    HW193590   5.450   9.364   5.348
97272SOL    HW293591   5.374   9.469   5.271
97273SOL     OW93592  14.290   6.151  10.105
97273SOL    HW193593  14.336   6.143  10.189
97273SOL    HW293594  14.309   6.069  10.060
97274SOL     OW93595   4.211   7.318  14.129
97274SOL    HW193596   4.254   7.247  14.080
97274SOL    HW293597   4.204   7.285  14.218
97275SOL     OW93598   3.675   4.902   2.808
97275SOL    HW193599   3.708   4.813   2.802
97275SOL    HW293600   3.622   4.903   2.888
97276SOL     OW93601   0.377   3.611   7.731
97276SOL    HW193602   0.338   3.687   7.687
97276SOL    HW293603   0.305   3.548   7.737
97277SOL     OW93604   0.104  11.587  13.805
97277SOL    HW193605   0.144  11.652  13.863
97277SOL    HW293606   0.143  11.605  13.719
97278SOL     OW93607   1.670   5.882   9.568
97278SOL    HW193608   1.731   5.955   9.573
97278SOL    HW293609   1.633   5.876   9.657
97279SOL     OW93610  10.491  10.515  12.475
97279SOL    HW193611  10.434  10.461  12.421
97279SOL    HW293612  10.572  10.464  12.483
97280SOL     OW93613   7.580  12.757  14.161
97280SOL    HW193614   7.522  12.832  14.173
97280SOL    HW293615   7.659  12.780  14.210
97281SOL     OW93616   8.340   0.565   6.060
97281SOL    HW193617   8.347   0.603   6.148
97281SOL    HW293618   8.430   0.555   6.031
97282SOL     OW93619  12.656  13.438   2.720
97282SOL    HW193620  12.736  13.462   2.767
97282SOL    HW293621  12.683  13.435   2.628
97283SOL     OW93622  12.681   7.116   9.279
97283SOL    HW193623  12.591   7.083   9.274
97283SOL    HW293624  12.691   7.143   9.371
97284SOL     OW93625   1.539  11.552  10.681
97284SOL    HW193626   1.553  11.633  10.632
97284SOL    HW293627   1.464  11.511  10.639
97285SOL     OW93628  13.520   8.205   8.401
97285SOL    HW193629  13.424   8.198   8.396
97285SOL    HW293630  13.548   8.214   8.310
97286SOL     OW93631   4.484  11.732   0.279
97286SOL    HW193632   4.431  11.666   0.325
97286SOL    HW293633   4.553  11.682   0.235
97287SOL     OW93634  11.882  14.259   6.611
97287SOL    HW193635  11.966  14.282   6.571
97287SOL    HW293636  11.832  14.219   6.539
97288SOL     OW93637  14.012   7.689   5.168
97288SOL    HW193638  13.962   7.666   5.246
97288SOL    HW293639  14.022   7.784   5.173
97289SOL     OW93640   3.816   7.083   6.872
97289SOL    HW193641   3.758   7.110   6.801
97289SOL    HW293642   3.849   7.166   6.908
97290SOL     OW93643   2.306   9.939  13.151
97290SOL    HW193644   2.277   9.990  13.226
97290SOL    HW293645   2.393   9.908  13.176
97291SOL     OW93646  12.591  13.023  11.553
97291SOL    HW193647  12.597  12.971  11.473
97291SOL    HW293648  12.603  12.959  11.624
97292SOL     OW93649  11.588  14.360   1.685
97292SOL    HW193650  11.647  14.352   1.610
97292SOL    HW293651  11.509  14.311   1.660
97293SOL     OW93652   8.363   5.229  12.163
97293SOL    HW193653   8.279   5.185  12.173
97293SOL    HW293654   8.422   5.182  12.221
97294SOL     OW93655   1.509   5.800   7.148
97294SOL    HW193656   1.477   5.865   7.211
97294SOL    HW293657   1.556   5.736   7.202
97295SOL     OW93658   6.653  12.838   3.562
97295SOL    HW193659   6.595  12.795   3.498
97295SOL    HW293660   6.698  12.766   3.606
97296SOL     OW93661   0.469  14.030  10.379
97296SOL    HW193662   0.449  13.942  10.348
97296SOL    HW293663   0.433  14.033  10.468
97297SOL     OW93664  12.141  14.371   1.978
97297SOL    HW193665  12.184  14.420   1.908
97297SOL    HW293666  12.156  14.422   2.057
97298SOL     OW93667  12.854  12.568  11.009
97298SOL    HW193668  12.846  12.508  10.935
97298SOL    HW293669  12.798  12.531  11.077
97299SOL     OW93670  13.209   7.149   3.953
97299SOL    HW193671  13.248   7.198   3.881
97299SOL    HW293672  13.191   7.063   3.916
97300SOL     OW93673   8.289   1.783  11.985
97300SOL    HW193674   8.293   1.844  12.059
97300SOL    HW293675   8.213   1.811  11.935
97301SOL     OW93676   4.687   5.385   8.124
97301SOL    HW193677   4.744   5.384   8.046
97301SOL    HW293678   4.747   5.366   8.197
97302SOL     OW93679   0.099   1.877  12.991
97302SOL    HW193680   0.110   1.838  12.905
97302SOL    HW293681   0.182   1.920  13.009
97303SOL     OW93682  11.633  13.165   7.268
97303SOL    HW193683  11.543  13.174   7.300
97303SOL    HW293684  11.639  13.074   7.239
97304SOL     OW93685   0.580   8.586   8.008
97304SOL    HW193686   0.619   8.599   8.095
97304SOL    HW293687   0.629   8.513   7.970
97305SOL     OW93688   7.141   8.085   7.028
97305SOL    HW193689   7.165   8.102   6.937
97305SOL    HW293690   7.201   8.016   7.056
97306SOL     OW93691   3.066   0.757   8.959
97306SOL    HW193692   3.131   0.813   9.002
97306SOL    HW293693   2.983   0.783   8.998
97307SOL     OW93694   1.939   2.720   0.383
97307SOL    HW193695   1.845   2.714   0.363
97307SOL    HW293696   1.969   2.629   0.382
97308SOL     OW93697   2.997  13.834   0.991
97308SOL    HW193698   3.079  13.883   0.994
97308SOL    HW293699   2.941  13.884   0.932
97309SOL     OW93700  11.483  14.632   6.427
97309SOL    HW193701  11.549  14.684   6.472
97309SOL    HW293702  11.417  14.613   6.494
97310SOL     OW93703   1.793   1.772   1.311
97310SOL    HW193704   1.797   1.786   1.216
97310SOL    HW293705   1.881   1.742   1.334
97311SOL     OW93706  13.017  12.171  14.515
97311SOL    HW193707  13.019  12.223  14.595
97311SOL    HW293708  12.962  12.096  14.536
97312SOL     OW93709  10.252  12.038  13.477
97312SOL    HW193710  10.324  12.057  13.416
97312SOL    HW293711  10.203  11.968  13.435
97313SOL     OW93712   8.804   0.385  11.582
97313SOL    HW193713   8.843   0.458  11.631
97313SOL    HW293714   8.869   0.366  11.514
97314SOL     OW93715   6.223   1.910   2.769
97314SOL    HW193716   6.129   1.893   2.765
97314SOL    HW293717   6.255   1.848   2.834
97315SOL     OW93718   9.035   3.560   1.691
97315SOL    HW193719   9.074   3.639   1.730
97315SOL    HW293720   9.109   3.501   1.677
97316SOL     OW93721   4.260  14.795   7.906
97316SOL    HW193722   4.176  14.839   7.914
97316SOL    HW293723   4.309  14.823   7.984
97317SOL     OW93724  12.320   3.288  11.809
97317SOL    HW193725  12.362   3.202  11.818
97317SOL    HW293726  12.256   3.291  11.880
97318SOL     OW93727   1.842  11.802   0.204
97318SOL    HW193728   1.898  11.724   0.198
97318SOL    HW293729   1.850  11.844   0.118
97319SOL     OW93730  14.364  12.101  12.838
97319SOL    HW193731  14.391  12.034  12.901
97319SOL    HW293732  14.421  12.088  12.762
97320SOL     OW93733   3.517   3.641   8.213
97320SOL    HW193734   3.484   3.602   8.132
97320SOL    HW293735   3.487   3.581   8.282
97321SOL     OW93736   4.362  10.873  11.606
97321SOL    HW193737   4.278  10.845  11.569
97321SOL    HW293738   4.340  10.911  11.691
97322SOL     OW93739   1.588  13.161   4.725
97322SOL    HW193740   1.597  13.173   4.819
97322SOL    HW293741   1.536  13.235   4.695
97323SOL     OW93742  11.098   9.205  10.524
97323SOL    HW193743  11.003   9.194  10.534
97323SOL    HW293744  11.126   9.126  10.478
97324SOL     OW93745   9.271   9.790   5.442
97324SOL    HW193746   9.281   9.699   5.415
97324SOL    HW293747   9.309   9.793   5.530
97325SOL     OW93748   0.553   4.049  14.653
97325SOL    HW193749   0.466   4.076  14.683
97325SOL    HW293750   0.599   4.023  14.732
97326SOL     OW93751   5.776   2.967  14.712
97326SOL    HW193752   5.689   3.001  14.694
97326SOL    HW293753   5.765   2.872  14.711
97327SOL     OW93754   2.569  12.615  11.688
97327SOL    HW193755   2.648  12.639  11.640
97327SOL    HW293756   2.503  12.603  11.619
97328SOL     OW93757   1.192   0.378   5.988
97328SOL    HW193758   1.209   0.323   6.064
97328SOL    HW293759   1.169   0.316   5.918
97329SOL     OW93760  12.924  11.111   0.686
97329SOL    HW193761  12.988  11.100   0.756
97329SOL    HW293762  12.976  11.125   0.607
97330SOL     OW93763   3.985   6.401   3.483
97330SOL    HW193764   4.028   6.469   3.431
97330SOL    HW293765   4.028   6.406   3.569
97331SOL     OW93766  13.682  12.920  12.098
97331SOL    HW193767  13.621  12.913  12.172
97331SOL    HW293768  13.760  12.961  12.135
97332SOL     OW93769   9.879  13.246  11.879
97332SOL    HW193770   9.825  13.177  11.918
97332SOL    HW293771   9.958  13.200  11.849
97333SOL     OW93772  12.065  13.321  14.787
97333SOL    HW193773  12.088  13.411  14.811
97333SOL    HW293774  12.031  13.283  14.868
97334SOL     OW93775  11.681  12.769  10.115
97334SOL    HW193776  11.669  12.704  10.184
97334SOL    HW293777  11.655  12.852  10.156
97335SOL     OW93778   3.593  11.741   6.041
97335SOL    HW193779   3.579  11.702   5.955
97335SOL    HW293780   3.551  11.827   6.036
97336SOL     OW93781   4.495   2.235  14.232
97336SOL    HW193782   4.528   2.222  14.321
97336SOL    HW293783   4.499   2.330  14.218
97337SOL     OW93784  13.502   3.932   4.053
97337SOL    HW193785  13.469   3.958   4.139
97337SOL    HW293786  13.423   3.908   4.003
97338SOL     OW93787  10.299   1.830   6.467
97338SOL    HW193788  10.295   1.818   6.372
97338SOL    HW293789  10.309   1.742   6.503
97339SOL     OW93790   2.166   3.731   5.000
97339SOL    HW193791   2.147   3.817   5.037
97339SOL    HW293792   2.158   3.742   4.906
97340SOL     OW93793  11.923  11.803   9.453
97340SOL    HW193794  11.974  11.809   9.373
97340SOL    HW293795  11.924  11.710   9.475
97341SOL     OW93796  12.440   1.943   8.252
97341SOL    HW193797  12.423   1.910   8.340
97341SOL    HW293798  12.428   2.038   8.259
97342SOL     OW93799  13.198   2.285   4.357
97342SOL    HW193800  13.103   2.289   4.345
97342SOL    HW293801  13.224   2.204   4.313
97343SOL     OW93802   1.619   0.604   9.215
97343SOL    HW193803   1.627   0.582   9.123
97343SOL    HW293804   1.547   0.667   9.219
97344SOL     OW93805  11.502  10.039   2.260
97344SOL    HW193806  11.551   9.964   2.228
97344SOL    HW293807  11.565  10.111   2.260
97345SOL     OW93808   6.084   7.619   8.647
97345SOL    HW193809   6.100   7.617   8.552
97345SOL    HW293810   6.138   7.691   8.679
97346SOL     OW93811   1.576   3.095   8.490
97346SOL    HW193812   1.618   3.011   8.509
97346SOL    HW293813   1.601   3.114   8.399
97347SOL     OW93814   3.756   2.562   3.152
97347SOL    HW193815   3.802   2.591   3.230
97347SOL    HW293816   3.806   2.485   3.122
97348SOL     OW93817   2.377   4.765  13.846
97348SOL    HW193818   2.443   4.834  13.839
97348SOL    HW293819   2.413   4.692  13.796
97349SOL     OW93820   6.372   3.208   1.101
97349SOL    HW193821   6.279   3.232   1.100
97349SOL    HW293822   6.376   3.127   1.051
97350SOL     OW93823   6.980  13.438   5.985
97350SOL    HW193824   6.984  13.352   5.944
97350SOL    HW293825   7.071  13.458   6.009
97351SOL     OW93826  10.380   9.541   8.356
97351SOL    HW193827  10.369   9.571   8.446
97351SOL    HW293828  10.301   9.491   8.338
97352SOL     OW93829   2.528  14.107   9.443
97352SOL    HW193830   2.559  14.197   9.432
97352SOL    HW293831   2.608  14.056   9.454
97353SOL     OW93832   0.497   3.162   7.606
97353SOL    HW193833   0.469   3.249   7.579
97353SOL    HW293834   0.417   3.111   7.610
97354SOL     OW93835   0.607   9.796   4.363
97354SOL    HW193836   0.671   9.862   4.390
97354SOL    HW293837   0.630   9.718   4.413
97355SOL     OW93838   4.768  10.801  12.169
97355SOL    HW193839   4.693  10.751  12.202
97355SOL    HW293840   4.737  10.840  12.088
97356SOL     OW93841   0.060  13.791   7.720
97356SOL    HW193842  14.876  13.769   7.651
97356SOL    HW293843   0.144  13.757   7.689
97357SOL     OW93844  13.121   4.372   0.581
97357SOL    HW193845  13.119   4.311   0.655
97357SOL    HW293846  13.173   4.327   0.514
97358SOL     OW93847  12.933  14.302   4.521
97358SOL    HW193848  12.854  14.349   4.494
97358SOL    HW293849  12.977  14.283   4.438
97359SOL     OW93850  10.510   1.503   7.044
97359SOL    HW193851  10.572   1.570   7.072
97359SOL    HW293852  10.545   1.422   7.079
97360SOL     OW93853   6.205  12.844   9.561
97360SOL    HW193854   6.281  12.825   9.507
97360SOL    HW293855   6.133  12.797   9.518
97361SOL     OW93856   5.270   6.453  12.013
97361SOL    HW193857   5.353   6.492  12.039
97361SOL    HW293858   5.234   6.515  11.949
97362SOL     OW93859   5.012   7.689   6.490
97362SOL    HW193860   5.089   7.661   6.441
97362SOL    HW293861   4.987   7.773   6.451
97363SOL     OW93862   8.538   0.529   8.615
97363SOL    HW193863   8.615   0.567   8.571
97363SOL    HW293864   8.570   0.504   8.701
97364SOL     OW93865   8.423   5.504  12.250
97364SOL    HW193866   8.337   5.544  12.251
97364SOL    HW293867   8.407   5.413  12.223
97365SOL     OW93868   6.757   6.624   2.242
97365SOL    HW193869   6.758   6.650   2.150
97365SOL    HW293870   6.722   6.699   2.289
97366SOL     OW93871   9.162   4.315   1.184
97366SOL    HW193872   9.158   4.226   1.151
97366SOL    HW293873   9.252   4.325   1.216
97367SOL     OW93874   6.339   8.973   0.177
97367SOL    HW193875   6.254   8.960   0.219
97367SOL    HW293876   6.392   8.899   0.206
97368SOL     OW93877  10.531  13.447  11.333
97368SOL    HW193878  10.579  13.379  11.380
97368SOL    HW293879  10.507  13.510  11.401
97369SOL     OW93880   6.740   8.047  14.646
97369SOL    HW193881   6.655   8.077  14.613
97369SOL    HW293882   6.760   8.107  14.719
97370SOL     OW93883   8.460   1.671   9.687
97370SOL    HW193884   8.457   1.697   9.595
97370SOL    HW293885   8.521   1.597   9.689
97371SOL     OW93886   3.919   0.372   2.288
97371SOL    HW193887   3.829   0.338   2.294
97371SOL    HW293888   3.967   0.322   2.354
97372SOL     OW93889   5.300   3.438   1.874
97372SOL    HW193890   5.290   3.348   1.841
97372SOL    HW293891   5.245   3.441   1.952
97373SOL     OW93892   3.150   2.056   1.399
97373SOL    HW193893   3.067   2.014   1.423
97373SOL    HW293894   3.210   2.032   1.470
97374SOL     OW93895  13.438   6.408  10.551
97374SOL    HW193896  13.369   6.345  10.567
97374SOL    HW293897  13.508   6.384  10.613
97375SOL     OW93898   5.237   6.493  12.390
97375SOL    HW193899   5.203   6.406  12.408
97375SOL    HW293900   5.161   6.550  12.396
97376SOL     OW93901  10.657  11.568  11.833
97376SOL    HW193902  10.610  11.613  11.904
97376SOL    HW293903  10.748  11.594  11.843
97377SOL     OW93904   8.407   1.236   7.564
97377SOL    HW193905   8.427   1.315   7.614
97377SOL    HW293906   8.492   1.198   7.544
97378SOL     OW93907  13.770  12.990   3.772
97378SOL    HW193908  13.767  13.058   3.705
97378SOL    HW293909  13.688  12.999   3.821
97379SOL     OW93910   3.948   6.774   9.378
97379SOL    HW193911   3.902   6.771   9.294
97379SOL    HW293912   3.918   6.855   9.419
97380SOL     OW93913   5.963  12.368  11.336
97380SOL    HW193914   6.042  12.377  11.390
97380SOL    HW293915   5.928  12.283  11.361
97381SOL     OW93916   5.750   3.749   8.834
97381SOL    HW193917   5.710   3.759   8.920
97381SOL    HW293918   5.774   3.657   8.828
97382SOL     OW93919  10.615   6.829   7.183
97382SOL    HW193920  10.540   6.785   7.222
97382SOL    HW293921  10.648   6.768   7.118
97383SOL     OW93922   3.366   6.908  13.381
97383SOL    HW193923   3.448   6.903  13.430
97383SOL    HW293924   3.393   6.920  13.290
97384SOL     OW93925   3.728   5.706   3.569
97384SOL    HW193926   3.713   5.738   3.480
97384SOL    HW293927   3.790   5.768   3.606
97385SOL     OW93928  13.129   6.122   5.120
97385SOL    HW193929  13.149   6.028   5.124
97385SOL    HW293930  13.212   6.165   5.140
97386SOL     OW93931   8.652   7.196  14.722
97386SOL    HW193932   8.671   7.129  14.788
97386SOL    HW293933   8.594   7.153  14.659
97387SOL     OW93934   9.713  14.578   6.791
97387SOL    HW193935   9.703  14.535   6.706
97387SOL    HW293936   9.653  14.652   6.788
97388SOL     OW93937   3.054   5.740  10.244
97388SOL    HW193938   3.103   5.729  10.162
97388SOL    HW293939   2.986   5.804  10.223
97389SOL     OW93940   0.790   7.324   6.208
97389SOL    HW193941   0.790   7.240   6.255
97389SOL    HW293942   0.711   7.368   6.237
97390SOL     OW93943   4.760   3.632   0.933
97390SOL    HW193944   4.730   3.637   1.024
97390SOL    HW293945   4.687   3.592   0.886
97391SOL     OW93946   8.951   8.597   1.505
97391SOL    HW193947   8.865   8.637   1.497
97391SOL    HW293948   8.933   8.503   1.514
97392SOL     OW93949  13.623   9.993  12.224
97392SOL    HW193950  13.638   9.927  12.292
97392SOL    HW293951  13.706  10.039  12.215
97393SOL     OW93952  12.511   2.901   3.038
97393SOL    HW193953  12.433   2.850   3.019
97393SOL    HW293954  12.584   2.848   3.005
97394SOL     OW93955   7.621   6.252   4.395
97394SOL    HW193956   7.636   6.311   4.321
97394SOL    HW293957   7.709   6.231   4.426
97395SOL     OW93958   8.975  11.839   4.049
97395SOL    HW193959   8.950  11.880   3.966
97395SOL    HW293960   9.069  11.855   4.057
97396SOL     OW93961   5.222   2.539   0.651
97396SOL    HW193962   5.271   2.484   0.711
97396SOL    HW293963   5.145   2.487   0.628
97397SOL     OW93964   6.815   3.159   3.872
97397SOL    HW193965   6.848   3.163   3.962
97397SOL    HW293966   6.830   3.068   3.845
97398SOL     OW93967  12.728  11.708  11.654
97398SOL    HW193968  12.728  11.613  11.649
97398SOL    HW293969  12.804  11.735  11.602
97399SOL     OW93970  14.415  11.853   7.258
97399SOL    HW193971  14.356  11.928   7.257
97399SOL    HW293972  14.356  11.777   7.255
97400SOL     OW93973   7.273   1.750   5.104
97400SOL    HW193974   7.344   1.806   5.135
97400SOL    HW293975   7.223   1.728   5.183
97401SOL     OW93976   5.258   4.778  11.691
97401SOL    HW193977   5.346   4.739  11.694
97401SOL    HW293978   5.267   4.860  11.740
97402SOL     OW93979  11.415  14.384   8.409
97402SOL    HW193980  11.476  14.316   8.383
97402SOL    HW293981  11.437  14.403   8.500
97403SOL     OW93982   4.254  12.679   4.218
97403SOL    HW193983   4.288  12.604   4.170
97403SOL    HW293984   4.329  12.714   4.265
97404SOL     OW93985   2.479   4.503  14.847
97404SOL    HW193986   2.518   4.433  14.795
97404SOL    HW293987   2.406   4.460   0.016
97405SOL     OW93988   6.773   5.875   3.828
97405SOL    HW193989   6.746   5.784   3.821
97405SOL    HW293990   6.694   5.926   3.812
97406SOL     OW93991   5.948   8.786  12.303
97406SOL    HW193992   5.943   8.774  12.209
97406SOL    HW293993   5.871   8.840  12.325
97407SOL     OW93994   7.391   1.478  13.846
97407SOL    HW193995   7.379   1.514  13.759
97407SOL    HW293996   7.333   1.529  13.902
97408SOL     OW93997   8.714  13.571  13.221
97408SOL    HW193998   8.668  13.601  13.300
97408SOL    HW293999   8.647  13.524  13.171
97409SOL     OW94000   7.187   8.566   7.524
97409SOL    HW194001   7.104   8.521   7.507
97409SOL    HW294002   7.175   8.652   7.484
97410SOL     OW94003  14.024   9.222  12.043
97410SOL    HW194004  14.029   9.297  12.102
97410SOL    HW294005  13.964   9.162  12.088
97411SOL     OW94006   7.195   3.998   4.246
97411SOL    HW194007   7.275   4.003   4.193
97411SOL    HW294008   7.174   3.905   4.249
97412SOL     OW94009  14.789   2.282   8.947
97412SOL    HW194010  14.744   2.265   8.865
97412SOL    HW294011  14.868   2.329   8.922
97413SOL     OW94012  12.531   5.660   7.219
97413SOL    HW194013  12.470   5.682   7.289
97413SOL    HW294014  12.475   5.631   7.146
97414SOL     OW94015  10.764  14.690   4.347
97414SOL    HW194016  10.823  14.622   4.316
97414SOL    HW294017  10.811  14.732   4.419
97415SOL     OW94018   0.715   8.782   7.837
97415SOL    HW194019   0.676   8.714   7.892
97415SOL    HW294020   0.793   8.741   7.800
97416SOL     OW94021   1.281   9.555   8.079
97416SOL    HW194022   1.340   9.528   8.009
97416SOL    HW294023   1.339   9.587   8.148
97417SOL     OW94024   7.583   7.235  11.897
97417SOL    HW194025   7.607   7.239  11.989
97417SOL    HW294026   7.647   7.175  11.858
97418SOL     OW94027  13.423   1.747   6.910
97418SOL    HW194028  13.445   1.669   6.961
97418SOL    HW294029  13.382   1.806   6.972
97419SOL     OW94030   5.915   5.134   5.471
97419SOL    HW194031   5.991   5.078   5.488
97419SOL    HW294032   5.860   5.083   5.412
97420SOL     OW94033  10.161  12.317   4.016
97420SOL    HW194034  10.191  12.368   3.941
97420SOL    HW294035  10.109  12.246   3.978
97421SOL     OW94036   9.749  14.375   7.813
97421SOL    HW194037   9.722  14.347   7.901
97421SOL    HW294038   9.844  14.387   7.821
97422SOL     OW94039  14.041   1.004   4.103
97422SOL    HW194040  14.102   1.030   4.173
97422SOL    HW294041  14.075   0.920   4.072
97423SOL     OW94042   8.768   9.730   0.683
97423SOL    HW194043   8.684   9.710   0.642
97423SOL    HW294044   8.754   9.815   0.725
97424SOL     OW94045   3.600   6.511   5.853
97424SOL    HW194046   3.562   6.461   5.781
97424SOL    HW294047   3.691   6.480   5.859
97425SOL     OW94048  14.607   7.398   5.476
97425SOL    HW194049  14.607   7.307   5.507
97425SOL    HW294050  14.686   7.436   5.514
97426SOL     OW94051  11.958  13.149  11.445
97426SOL    HW194052  11.919  13.199  11.373
97426SOL    HW294053  11.883  13.123  11.499
97427SOL     OW94054   3.401  13.106   8.276
97427SOL    HW194055   3.415  13.013   8.289
97427SOL    HW294056   3.365  13.113   8.188
97428SOL     OW94057   2.173   6.860  10.179
97428SOL    HW194058   2.172   6.869  10.274
97428SOL    HW294059   2.191   6.767  10.163
97429SOL     OW94060  11.566   8.016   9.918
97429SOL    HW194061  11.589   7.943   9.975
97429SOL    HW294062  11.482   7.991   9.880
97430SOL     OW94063   9.282   0.874  13.740
97430SOL    HW194064   9.273   0.932  13.664
97430SOL    HW294065   9.357   0.908  13.788
97431SOL     OW94066   9.555   6.330  13.930
97431SOL    HW194067   9.489   6.285  13.877
97431SOL    HW294068   9.594   6.262  13.984
97432SOL     OW94069   5.768   4.802   0.638
97432SOL    HW194070   5.688   4.821   0.687
97432SOL    HW294071   5.838   4.805   0.703
97433SOL     OW94072  10.021   6.975   4.839
97433SOL    HW194073  10.064   7.058   4.858
97433SOL    HW294074  10.046   6.917   4.911
97434SOL     OW94075   6.967  14.140   9.554
97434SOL    HW194076   6.910  14.108   9.623
97434SOL    HW294077   7.055  14.112   9.581
97435SOL     OW94078  14.393  13.736   1.795
97435SOL    HW194079  14.478  13.749   1.751
97435SOL    HW294080  14.405  13.656   1.847
97436SOL     OW94081  13.859   5.957  10.363
97436SOL    HW194082  13.820   5.972  10.277
97436SOL    HW294083  13.950   5.987  10.353
97437SOL     OW94084   7.511   5.566  12.217
97437SOL    HW194085   7.569   5.588  12.290
97437SOL    HW294086   7.496   5.650  12.173
97438SOL     OW94087  13.425  11.368  13.918
97438SOL    HW194088  13.487  11.295  13.922
97438SOL    HW294089  13.367  11.346  13.845
97439SOL     OW94090   5.851   0.356  11.458
97439SOL    HW194091   5.888   0.441  11.479
97439SOL    HW294092   5.907   0.293  11.503
97440SOL     OW94093  11.977  10.423   9.216
97440SOL    HW194094  12.052  10.392   9.167
97440SOL    HW294095  11.912  10.354   9.207
97441SOL     OW94096   6.968   5.318   8.234
97441SOL    HW194097   6.952   5.304   8.140
97441SOL    HW294098   7.054   5.279   8.249
97442SOL     OW94099   3.160   3.794   1.581
97442SOL    HW194100   3.171   3.729   1.650
97442SOL    HW294101   3.239   3.848   1.586
97443SOL     OW94102   3.447   3.576   2.455
97443SOL    HW194103   3.500   3.623   2.520
97443SOL    HW294104   3.487   3.600   2.371
97444SOL     OW94105   3.608   0.895  10.412
97444SOL    HW194106   3.698   0.928  10.407
97444SOL    HW294107   3.619   0.800  10.425
97445SOL     OW94108   1.532   2.170  12.360
97445SOL    HW194109   1.626   2.178  12.378
97445SOL    HW294110   1.497   2.258  12.376
97446SOL     OW94111   6.838   0.567  13.245
97446SOL    HW194112   6.877   0.640  13.197
97446SOL    HW294113   6.756   0.549  13.199
97447SOL     OW94114  13.038  12.837   0.289
97447SOL    HW194115  13.019  12.853   0.196
97447SOL    HW294116  13.126  12.873   0.301
97448SOL     OW94117   4.390   1.752   3.543
97448SOL    HW194118   4.343   1.709   3.614
97448SOL    HW294119   4.481   1.757   3.572
97449SOL     OW94120   2.358   9.615   7.926
97449SOL    HW194121   2.297   9.688   7.939
97449SOL    HW294122   2.368   9.577   8.014
97450SOL     OW94123   7.782  10.499  12.955
97450SOL    HW194124   7.800  10.429  12.893
97450SOL    HW294125   7.762  10.575  12.901
97451SOL     OW94126   1.608   9.212   4.878
97451SOL    HW194127   1.628   9.159   4.801
97451SOL    HW294128   1.548   9.279   4.847
97452SOL     OW94129  13.420   4.489   9.108
97452SOL    HW194130  13.363   4.501   9.184
97452SOL    HW294131  13.455   4.400   9.118
97453SOL     OW94132   5.181  14.567   3.917
97453SOL    HW194133   5.203  14.525   3.834
97453SOL    HW294134   5.237  14.523   3.981
97454SOL     OW94135   2.587   3.433   4.773
97454SOL    HW194136   2.555   3.488   4.702
97454SOL    HW294137   2.557   3.344   4.751
97455SOL     OW94138  14.326   8.921   7.864
97455SOL    HW194139  14.309   8.834   7.827
97455SOL    HW294140  14.418   8.918   7.891
97456SOL     OW94141   2.653   0.638  13.543
97456SOL    HW194142   2.701   0.707  13.496
97456SOL    HW294143   2.656   0.563  13.484
97457SOL     OW94144   6.836   2.930   5.905
97457SOL    HW194145   6.810   2.959   5.817
97457SOL    HW294146   6.781   2.855   5.923
97458SOL     OW94147   1.158   7.732   1.916
97458SOL    HW194148   1.221   7.693   1.855
97458SOL    HW294149   1.180   7.693   2.000
97459SOL     OW94150   7.619   8.325   0.829
97459SOL    HW194151   7.674   8.254   0.860
97459SOL    HW294152   7.564   8.286   0.760
97460SOL     OW94153   2.166   0.020   9.085
97460SOL    HW194154   2.101  14.846   9.133
97460SOL    HW294155   2.229  14.833   9.054
97461SOL     OW94156   5.874   3.234   1.652
97461SOL    HW194157   5.862   3.275   1.567
97461SOL    HW294158   5.958   3.187   1.644
97462SOL     OW94159  12.945   4.969   0.316
97462SOL    HW194160  12.983   4.982   0.229
97462SOL    HW294161  12.987   4.889   0.348
97463SOL     OW94162  14.090   2.081   5.023
97463SOL    HW194163  14.164   2.037   5.066
97463SOL    HW294164  14.015   2.064   5.080
97464SOL     OW94165   3.778   2.848  14.538
97464SOL    HW194166   3.761   2.927  14.591
97464SOL    HW294167   3.866   2.822  14.563
97465SOL     OW94168   8.079   6.657   4.033
97465SOL    HW194169   8.151   6.719   4.043
97465SOL    HW294170   8.002   6.712   4.016
97466SOL     OW94171   7.929   5.923   4.717
97466SOL    HW194172   7.857   5.859   4.707
97466SOL    HW294173   8.008   5.870   4.707
97467SOL     OW94174   6.345  11.769   8.625
97467SOL    HW194175   6.429  11.814   8.618
97467SOL    HW294176   6.319  11.780   8.717
97468SOL     OW94177   1.410  10.194  11.306
97468SOL    HW194178   1.429  10.234  11.390
97468SOL    HW294179   1.370  10.265  11.254
97469SOL     OW94180   8.221   3.653  12.833
97469SOL    HW194181   8.151   3.696  12.881
97469SOL    HW294182   8.231   3.568  12.875
97470SOL     OW94183  10.017   0.210   2.231
97470SOL    HW194184  10.036   0.129   2.279
97470SOL    HW294185  10.080   0.274   2.265
97471SOL     OW94186   8.484   5.746   2.795
97471SOL    HW194187   8.503   5.658   2.764
97471SOL    HW294188   8.559   5.768   2.851
97472SOL     OW94189   1.102   7.592  11.750
97472SOL    HW194190   1.021   7.542  11.738
97472SOL    HW294191   1.151   7.578  11.669
97473SOL     OW94192   9.360   5.649  12.853
97473SOL    HW194193   9.290   5.651  12.917
97473SOL    HW294194   9.395   5.738  12.852
97474SOL     OW94195   2.547   5.531   9.714
97474SOL    HW194196   2.479   5.522   9.781
97474SOL    HW294197   2.501   5.569   9.638
97475SOL     OW94198   2.862   5.111   8.666
97475SOL    HW194199   2.939   5.167   8.675
97475SOL    HW294200   2.882   5.034   8.720
97476SOL     OW94201  11.216   6.313   5.232
97476SOL    HW194202  11.144   6.276   5.180
97476SOL    HW294203  11.294   6.268   5.199
97477SOL     OW94204   0.867  11.243  11.278
97477SOL    HW194205   0.784  11.242  11.230
97477SOL    HW294206   0.877  11.335  11.305
97478SOL     OW94207  10.673   2.474  11.717
97478SOL    HW194208  10.612   2.413  11.675
97478SOL    HW294209  10.759   2.445  11.687
97479SOL     OW94210   3.822   3.833   9.727
97479SOL    HW194211   3.726   3.831   9.730
97479SOL    HW294212   3.844   3.815   9.635
97480SOL     OW94213  10.655  14.322   6.760
97480SOL    HW194214  10.561  14.318   6.777
97480SOL    HW294215  10.664  14.387   6.690
97481SOL     OW94216  14.394   0.858  10.459
97481SOL    HW194217  14.399   0.902  10.374
97481SOL    HW294218  14.331   0.787  10.445
97482SOL     OW94219  12.020  13.497  12.019
97482SOL    HW194220  11.991  13.586  12.038
97482SOL    HW294221  11.993  13.481  11.929
97483SOL     OW94222  10.360   3.337  10.581
97483SOL    HW194223  10.444   3.361  10.621
97483SOL    HW294224  10.358   3.386  10.499
97484SOL     OW94225  11.381   2.580  11.027
97484SOL    HW194226  11.433   2.516  11.076
97484SOL    HW294227  11.446   2.641  10.992
97485SOL     OW94228   9.222  11.280   1.536
97485SOL    HW194229   9.209  11.290   1.631
97485SOL    HW294230   9.218  11.370   1.503
97486SOL     OW94231  10.400   0.224   8.943
97486SOL    HW194232  10.354   0.150   8.983
97486SOL    HW294233  10.455   0.258   9.014
97487SOL     OW94234   9.018   8.392   0.315
97487SOL    HW194235   9.064   8.309   0.326
97487SOL    HW294236   8.960   8.397   0.391
97488SOL     OW94237  10.518   1.595   0.265
97488SOL    HW194238  10.544   1.599   0.173
97488SOL    HW294239  10.570   1.663   0.307
97489SOL     OW94240   5.486  14.198   4.175
97489SOL    HW194241   5.416  14.212   4.112
97489SOL    HW294242   5.449  14.226   4.259
97490SOL     OW94243  10.454   1.418  14.703
97490SOL    HW194244  10.474   1.374  14.621
97490SOL    HW294245  10.411   1.351  14.756
97491SOL     OW94246   1.878   5.339  14.617
97491SOL    HW194247   1.941   5.273  14.585
97491SOL    HW294248   1.808   5.287  14.657
97492SOL     OW94249   5.785  13.073  12.537
97492SOL    HW194250   5.867  13.074  12.585
97492SOL    HW294251   5.793  13.143  12.472
97493SOL     OW94252   5.719  13.027   2.866
97493SOL    HW194253   5.707  13.021   2.771
97493SOL    HW294254   5.630  13.032   2.901
97494SOL     OW94255  11.947   8.038   6.518
97494SOL    HW194256  11.985   8.123   6.494
97494SOL    HW294257  11.979   8.021   6.607
97495SOL     OW94258   9.074   5.638   9.977
97495SOL    HW194259   9.023   5.681   9.907
97495SOL    HW294260   9.017   5.643  10.054
97496SOL     OW94261   0.028   4.833   2.918
97496SOL    HW194262   0.100   4.772   2.931
97496SOL    HW294263   0.070   4.914   2.890
97497SOL     OW94264   6.089  14.451  12.168
97497SOL    HW194265   6.055  14.411  12.248
97497SOL    HW294266   6.073  14.385  12.100
97498SOL     OW94267   8.010   2.026  14.797
97498SOL    HW194268   8.014   2.113  14.757
97498SOL    HW294269   8.090   1.982  14.766
97499SOL     OW94270  14.348  14.838   0.507
97499SOL    HW194271  14.435  14.828   0.545
97499SOL    HW294272  14.299  14.762   0.539
97500SOL     OW94273  14.389   8.959   1.881
97500SOL    HW194274  14.302   8.922   1.871
97500SOL    HW294275  14.421   8.923   1.964
97501SOL     OW94276  11.671  14.778   9.624
97501SOL    HW194277  11.668  14.703   9.683
97501SOL    HW294278  11.579  14.798   9.605
97502SOL     OW94279   8.122   5.255  11.107
97502SOL    HW194280   8.091   5.343  11.087
97502SOL    HW294281   8.162   5.263  11.194
97503SOL     OW94282  10.401  10.059   1.236
97503SOL    HW194283  10.375   9.972   1.267
97503SOL    HW294284  10.345  10.075   1.160
97504SOL     OW94285  11.949  13.490  12.301
97504SOL    HW194286  11.997  13.492  12.218
97504SOL    HW294287  11.995  13.424  12.353
97505SOL     OW94288   4.596  11.028  11.180
97505SOL    HW194289   4.602  11.032  11.276
97505SOL    HW294290   4.509  11.064  11.161
97506SOL     OW94291   7.879   2.124   6.152
97506SOL    HW194292   7.954   2.070   6.130
97506SOL    HW294293   7.807   2.061   6.162
97507SOL     OW94294   6.623  10.971  11.016
97507SOL    HW194295   6.677  11.050  11.023
97507SOL    HW294296   6.626  10.949  10.923
97508SOL     OW94297   8.063   5.363  14.185
97508SOL    HW194298   8.041   5.270  14.175
97508SOL    HW294299   7.982   5.403  14.218
97509SOL     OW94300   7.546   8.153  10.033
97509SOL    HW194301   7.521   8.237  10.072
97509SOL    HW294302   7.612   8.118  10.093
97510SOL     OW94303   5.282  13.278   6.425
97510SOL    HW194304   5.254  13.189   6.407
97510SOL    HW294305   5.230  13.332   6.366
97511SOL     OW94306   0.896   6.252  13.473
97511SOL    HW194307   0.970   6.310  13.492
97511SOL    HW294308   0.914   6.172  13.523
97512SOL     OW94309   7.021   9.142   2.898
97512SOL    HW194310   7.003   9.167   2.988
97512SOL    HW294311   6.999   9.220   2.847
97513SOL     OW94312   8.291   9.694   6.346
97513SOL    HW194313   8.305   9.724   6.436
97513SOL    HW294314   8.210   9.737   6.319
97514SOL     OW94315   4.404   1.017   5.053
97514SOL    HW194316   4.458   0.952   5.007
97514SOL    HW294317   4.441   1.020   5.141
97515SOL     OW94318   1.457  11.308   5.317
97515SOL    HW194319   1.428  11.217   5.310
97515SOL    HW294320   1.445  11.330   5.409
97516SOL     OW94321  10.665  11.462   7.899
97516SOL    HW194322  10.742  11.519   7.894
97516SOL    HW294323  10.598  11.508   7.848
97517SOL     OW94324  14.787   0.044   0.413
97517SOL    HW194325  14.770   0.034   0.320
97517SOL    HW294326  14.845   0.120   0.419
97518SOL     OW94327   6.641   5.112  10.893
97518SOL    HW194328   6.606   5.071  10.971
97518SOL    HW294329   6.735   5.123  10.911
97519SOL     OW94330   6.422   9.948   4.874
97519SOL    HW194331   6.447   9.864   4.914
97519SOL    HW294332   6.421  10.010   4.947
97520SOL     OW94333  12.708  11.770  11.152
97520SOL    HW194334  12.781  11.726  11.110
97520SOL    HW294335  12.639  11.771  11.086
97521SOL     OW94336   1.372   9.550  14.230
97521SOL    HW194337   1.375   9.471  14.176
97521SOL    HW294338   1.359   9.518  14.319
97522SOL     OW94339   1.107   3.926   3.134
97522SOL    HW194340   1.056   3.936   3.214
97522SOL    HW294341   1.129   4.016   3.109
97523SOL     OW94342  11.862   0.804   9.788
97523SOL    HW194343  11.949   0.799   9.828
97523SOL    HW294344  11.840   0.714   9.766
97524SOL     OW94345   6.203   3.024  10.229
97524SOL    HW194346   6.199   3.107  10.183
97524SOL    HW294347   6.202   2.957  10.160
97525SOL     OW94348   5.234   3.087  12.395
97525SOL    HW194349   5.191   3.016  12.443
97525SOL    HW294350   5.326   3.061  12.390
97526SOL     OW94351  14.620   3.625   0.247
97526SOL    HW194352  14.574   3.543   0.230
97526SOL    HW294353  14.551   3.692   0.242
97527SOL     OW94354  14.387   9.481   7.172
97527SOL    HW194355  14.363   9.390   7.158
97527SOL    HW294356  14.317   9.516   7.227
97528SOL     OW94357  14.606  12.880  11.677
97528SOL    HW194358  14.539  12.921  11.731
97528SOL    HW294359  14.562  12.805  11.637
97529SOL     OW94360   2.668   4.555   5.743
97529SOL    HW194361   2.633   4.639   5.773
97529SOL    HW294362   2.761   4.572   5.728
97530SOL     OW94363   1.602   6.381   4.512
97530SOL    HW194364   1.624   6.382   4.419
97530SOL    HW294365   1.623   6.470   4.542
97531SOL     OW94366   6.692   8.593  12.254
97531SOL    HW194367   6.716   8.502  12.271
97531SOL    HW294368   6.666   8.595  12.162
97532SOL     OW94369   6.086   5.337  10.161
97532SOL    HW194370   6.079   5.248  10.128
97532SOL    HW294371   6.178   5.360  10.149
97533SOL     OW94372  12.887  14.364   6.795
97533SOL    HW194373  12.978  14.339   6.783
97533SOL    HW294374  12.868  14.422   6.721
97534SOL     OW94375   0.447   2.006   6.490
97534SOL    HW194376   0.441   2.100   6.506
97534SOL    HW294377   0.357   1.974   6.494
97535SOL     OW94378   8.832  10.170   6.787
97535SOL    HW194379   8.787  10.103   6.736
97535SOL    HW294380   8.869  10.123   6.862
97536SOL     OW94381   0.834   8.826  14.470
97536SOL    HW194382   0.749   8.820  14.426
97536SOL    HW294383   0.880   8.747  14.444
97537SOL     OW94384   0.724  12.921   4.031
97537SOL    HW194385   0.721  12.881   4.118
97537SOL    HW294386   0.806  12.889   3.992
97538SOL     OW94387   6.324   4.274   8.397
97538SOL    HW194388   6.368   4.223   8.465
97538SOL    HW294389   6.325   4.364   8.430
97539SOL     OW94390   1.371   0.744  10.324
97539SOL    HW194391   1.403   0.695  10.400
97539SOL    HW294392   1.341   0.827  10.360
97540SOL     OW94393   4.555   8.043   0.469
97540SOL    HW194394   4.585   8.031   0.559
97540SOL    HW294395   4.545   8.137   0.459
97541SOL     OW94396   4.211   9.634   9.591
97541SOL    HW194397   4.159   9.634   9.510
97541SOL    HW294398   4.285   9.577   9.573
97542SOL     OW94399   8.230   8.795   8.745
97542SOL    HW194400   8.178   8.832   8.673
97542SOL    HW294401   8.320   8.798   8.713
97543SOL     OW94402   0.685   7.214   1.475
97543SOL    HW194403   0.620   7.155   1.436
97543SOL    HW294404   0.765   7.199   1.426
97544SOL     OW94405   5.206   9.038   8.688
97544SOL    HW194406   5.255   9.079   8.617
97544SOL    HW294407   5.114   9.052   8.664
97545SOL     OW94408   7.700   0.679  10.153
97545SOL    HW194409   7.619   0.631  10.133
97545SOL    HW294410   7.756   0.664  10.077
97546SOL     OW94411   4.791  10.933  12.993
97546SOL    HW194412   4.817  10.889  12.912
97546SOL    HW294413   4.697  10.919  12.999
97547SOL     OW94414   8.071   2.988   1.342
97547SOL    HW194415   8.006   2.923   1.371
97547SOL    HW294416   8.021   3.069   1.332
97548SOL     OW94417   3.146  13.797  12.878
97548SOL    HW194418   3.217  13.767  12.935
97548SOL    HW294419   3.188  13.812  12.793
97549SOL     OW94420   1.451  10.351  10.022
97549SOL    HW194421   1.422  10.298   9.948
97549SOL    HW294422   1.505  10.292  10.074
97550SOL     OW94423   8.880   5.218  14.031
97550SOL    HW194424   8.916   5.133  14.009
97550SOL    HW294425   8.819   5.238  13.960
97551SOL     OW94426   8.672  10.969  13.011
97551SOL    HW194427   8.581  10.940  13.017
97551SOL    HW294428   8.713  10.906  12.951
97552SOL     OW94429   2.669   9.719   1.375
97552SOL    HW194430   2.585   9.756   1.401
97552SOL    HW294431   2.695   9.770   1.298
97553SOL     OW94432   1.421   8.134   1.081
97553SOL    HW194433   1.390   8.097   1.163
97553SOL    HW294434   1.476   8.208   1.107
97554SOL     OW94435  11.067  12.161   5.912
97554SOL    HW194436  11.106  12.174   5.999
97554SOL    HW294437  10.975  12.140   5.930
97555SOL     OW94438  12.811   5.098  14.604
97555SOL    HW194439  12.738   5.103  14.666
97555SOL    HW294440  12.810   5.007  14.573
97556SOL     OW94441   9.585   1.318   5.872
97556SOL    HW194442   9.533   1.266   5.933
97556SOL    HW294443   9.566   1.281   5.786
97557SOL     OW94444  11.125   1.246   0.244
97557SOL    HW194445  11.219   1.266   0.248
97557SOL    HW294446  11.115   1.193   0.165
97558SOL     OW94447   4.531  12.993   1.411
97558SOL    HW194448   4.453  12.947   1.441
97558SOL    HW294449   4.604  12.941   1.445
97559SOL     OW94450  13.835   5.198   8.931
97559SOL    HW194451  13.851   5.292   8.931
97559SOL    HW294452  13.803   5.178   9.019
97560SOL     OW94453   5.288   6.251  11.215
97560SOL    HW194454   5.228   6.304  11.162
97560SOL    HW294455   5.235   6.223  11.290
97561SOL     OW94456   6.328   7.574  14.721
97561SOL    HW194457   6.424   7.570  14.712
97561SOL    HW294458   6.300   7.632  14.651
97562SOL     OW94459  10.175  12.385   6.652
97562SOL    HW194460  10.207  12.304   6.692
97562SOL    HW294461  10.253  12.425   6.613
97563SOL     OW94462   4.719  12.513   2.085
97563SOL    HW194463   4.759  12.598   2.104
97563SOL    HW294464   4.762  12.483   2.006
97564SOL     OW94465   1.732   4.488   4.150
97564SOL    HW194466   1.756   4.405   4.192
97564SOL    HW294467   1.800   4.550   4.179
97565SOL     OW94468   0.850   7.464   5.987
97565SOL    HW194469   0.945   7.455   5.994
97565SOL    HW294470   0.815   7.412   6.058
97566SOL     OW94471   7.895   9.067   6.329
97566SOL    HW194472   7.865   9.151   6.362
97566SOL    HW294473   7.839   9.049   6.254
97567SOL     OW94474   5.645  13.341   0.721
97567SOL    HW194475   5.711  13.356   0.654
97567SOL    HW294476   5.665  13.254   0.756
97568SOL     OW94477   6.758  13.392  12.046
97568SOL    HW194478   6.745  13.298  12.031
97568SOL    HW294479   6.817  13.395  12.122
97569SOL     OW94480   6.282  13.316   6.980
97569SOL    HW194481   6.222  13.244   7.001
97569SOL    HW294482   6.243  13.392   7.023
97570SOL     OW94483   2.410   0.114  13.655
97570SOL    HW194484   2.326   0.157  13.638
97570SOL    HW294485   2.385   0.030  13.694
97571SOL     OW94486   2.863   7.317   8.476
97571SOL    HW194487   2.842   7.302   8.384
97571SOL    HW294488   2.807   7.255   8.524
97572SOL     OW94489   9.202  14.726   2.997
97572SOL    HW194490   9.201  14.672   3.075
97572SOL    HW294491   9.272  14.689   2.943
97573SOL     OW94492  13.532   8.965   6.612
97573SOL    HW194493  13.453   8.989   6.563
97573SOL    HW294494  13.604   9.007   6.564
97574SOL     OW94495   9.883  10.577   7.676
97574SOL    HW194496   9.885  10.549   7.767
97574SOL    HW294497   9.806  10.633   7.669
97575SOL     OW94498   0.038   9.202   3.673
97575SOL    HW194499   0.026   9.200   3.768
97575SOL    HW294500  14.868   9.126   3.641
97576SOL     OW94501  14.206   2.437  14.266
97576SOL    HW194502  14.196   2.363  14.205
97576SOL    HW294503  14.285   2.482  14.236
97577SOL     OW94504   9.253  10.056  11.559
97577SOL    HW194505   9.170  10.043  11.605
97577SOL    HW294506   9.312   9.991  11.597
97578SOL     OW94507   8.110   2.704  11.092
97578SOL    HW194508   8.059   2.702  11.011
97578SOL    HW294509   8.047   2.725  11.160
97579SOL     OW94510   3.644  12.584   1.664
97579SOL    HW194511   3.671  12.641   1.593
97579SOL    HW294512   3.722  12.533   1.685
97580SOL     OW94513   2.802   6.733   2.390
97580SOL    HW194514   2.710   6.753   2.378
97580SOL    HW294515   2.843   6.818   2.409
97581SOL     OW94516  13.621  11.989  10.365
97581SOL    HW194517  13.698  11.952  10.409
97581SOL    HW294518  13.632  11.962  10.274
97582SOL     OW94519   1.653   6.885   8.517
97582SOL    HW194520   1.717   6.813   8.513
97582SOL    HW294521   1.662   6.920   8.606
97583SOL     OW94522   7.919   5.144   2.974
97583SOL    HW194523   7.850   5.081   2.994
97583SOL    HW294524   7.873   5.217   2.931
97584SOL     OW94525  14.565   1.095  14.067
97584SOL    HW194526  14.621   1.115  14.141
97584SOL    HW294527  14.546   1.001  14.076
97585SOL     OW94528   7.338  11.880   6.331
97585SOL    HW194529   7.356  11.829   6.252
97585SOL    HW294530   7.396  11.956   6.324
97586SOL     OW94531   1.755   2.009   0.312
97586SOL    HW194532   1.817   2.063   0.361
97586SOL    HW294533   1.684   1.991   0.374
97587SOL     OW94534  14.177   0.459  11.362
97587SOL    HW194535  14.127   0.448  11.443
97587SOL    HW294536  14.252   0.512  11.386
97588SOL     OW94537  10.225   7.324   6.350
97588SOL    HW194538  10.168   7.256   6.314
97588SOL    HW294539  10.223   7.309   6.444
97589SOL     OW94540   4.064   2.109  11.671
97589SOL    HW194541   4.149   2.100  11.713
97589SOL    HW294542   4.083   2.149  11.586
97590SOL     OW94543   1.234   6.858   3.230
97590SOL    HW194544   1.150   6.816   3.211
97590SOL    HW294545   1.251   6.836   3.322
97591SOL     OW94546   9.788   6.493  10.470
97591SOL    HW194547   9.770   6.501  10.377
97591SOL    HW294548   9.838   6.412  10.478
97592SOL     OW94549   2.679   5.034   5.197
97592SOL    HW194550   2.609   5.096   5.177
97592SOL    HW294551   2.721   5.069   5.276
97593SOL     OW94552  13.295   8.480   6.963
97593SOL    HW194553  13.277   8.418   7.033
97593SOL    HW294554  13.284   8.566   7.003
97594SOL     OW94555   2.455  11.083  12.919
97594SOL    HW194556   2.475  11.123  12.834
97594SOL    HW294557   2.431  10.993  12.898
97595SOL     OW94558   9.730   8.985   6.399
97595SOL    HW194559   9.677   8.919   6.353
97595SOL    HW294560   9.813   8.986   6.353
97596SOL     OW94561   2.680   3.621   0.367
97596SOL    HW194562   2.664   3.555   0.435
97596SOL    HW294563   2.752   3.673   0.401
97597SOL     OW94564   9.330   8.636   9.576
97597SOL    HW194565   9.411   8.674   9.542
97597SOL    HW294566   9.260   8.683   9.529
97598SOL     OW94567   5.848   7.974   4.111
97598SOL    HW194568   5.867   7.904   4.173
97598SOL    HW294569   5.935   8.006   4.084
97599SOL     OW94570  14.044  12.982   1.828
97599SOL    HW194571  14.063  13.036   1.904
97599SOL    HW294572  14.013  12.899   1.864
97600SOL     OW94573   6.586  11.797  13.074
97600SOL    HW194574   6.620  11.886  13.066
97600SOL    HW294575   6.651  11.750  13.127
97601SOL     OW94576  14.132   0.268   8.416
97601SOL    HW194577  14.079   0.270   8.496
97601SOL    HW294578  14.192   0.342   8.426
97602SOL     OW94579  11.697   2.909   7.020
97602SOL    HW194580  11.602   2.898   7.024
97602SOL    HW294581  11.719   2.956   7.100
97603SOL     OW94582   7.074  10.894   7.053
97603SOL    HW194583   7.137  10.871   7.120
97603SOL    HW294584   7.104  10.848   6.974
97604SOL     OW94585   1.692   5.024   0.883
97604SOL    HW194586   1.786   5.019   0.899
97604SOL    HW294587   1.654   5.044   0.968
97605SOL     OW94588  10.288   0.494   5.720
97605SOL    HW194589  10.243   0.471   5.639
97605SOL    HW294590  10.298   0.589   5.715
97606SOL     OW94591   4.241   9.784   0.063
97606SOL    HW194592   4.187   9.859   0.039
97606SOL    HW294593   4.310   9.821   0.118
97607SOL     OW94594   6.206   7.472   0.092
97607SOL    HW194595   6.263   7.466   0.015
97607SOL    HW294596   6.118   7.488   0.056
97608SOL     OW94597   0.522   8.866   6.738
97608SOL    HW194598   0.450   8.851   6.799
97608SOL    HW294599   0.485   8.844   6.652
97609SOL     OW94600   0.145  11.808   3.716
97609SOL    HW194601   0.109  11.734   3.765
97609SOL    HW294602   0.197  11.767   3.647
97610SOL     OW94603   7.990   4.455  12.765
97610SOL    HW194604   8.000   4.450  12.670
97610SOL    HW294605   8.056   4.395  12.800
97611SOL     OW94606   2.821   7.760  10.975
97611SOL    HW194607   2.875   7.807  11.039
97611SOL    HW294608   2.733   7.797  10.986
97612SOL     OW94609  12.059   1.308   7.677
97612SOL    HW194610  12.009   1.366   7.734
97612SOL    HW294611  12.129   1.274   7.734
97613SOL     OW94612  14.520   2.772   5.720
97613SOL    HW194613  14.579   2.841   5.750
97613SOL    HW294614  14.543   2.760   5.628
97614SOL     OW94615   3.019   3.296  14.067
97614SOL    HW194616   3.087   3.277  14.002
97614SOL    HW294617   3.056   3.267  14.150
97615SOL     OW94618   9.710   0.965   8.552
97615SOL    HW194619   9.659   0.906   8.607
97615SOL    HW294620   9.691   0.938   8.462
97616SOL     OW94621  11.757  10.897  10.584
97616SOL    HW194622  11.706  10.900  10.665
97616SOL    HW294623  11.826  10.833  10.602
97617SOL     OW94624   5.643  10.486   2.254
97617SOL    HW194625   5.663  10.399   2.289
97617SOL    HW294626   5.598  10.531   2.326
97618SOL     OW94627   5.528   0.823   5.844
97618SOL    HW194628   5.609   0.820   5.894
97618SOL    HW294629   5.528   0.910   5.804
97619SOL     OW94630   2.328   2.259  11.540
97619SOL    HW194631   2.308   2.352  11.530
97619SOL    HW294632   2.301   2.238  11.630
97620SOL     OW94633   8.879  11.943   2.405
97620SOL    HW194634   8.876  11.912   2.314
97620SOL    HW294635   8.957  11.999   2.409
97621SOL     OW94636   3.664   2.228   8.667
97621SOL    HW194637   3.610   2.217   8.588
97621SOL    HW294638   3.601   2.228   8.739
97622SOL     OW94639   0.654  11.982   3.702
97622SOL    HW194640   0.742  11.991   3.737
97622SOL    HW294641   0.632  12.070   3.669
97623SOL     OW94642  12.752   4.956   5.628
97623SOL    HW194643  12.713   4.974   5.542
97623SOL    HW294644  12.681   4.972   5.690
97624SOL     OW94645   1.362  13.931   7.151
97624SOL    HW194646   1.317  14.003   7.196
97624SOL    HW294647   1.377  13.964   7.062
97625SOL     OW94648   5.562   2.012   4.480
97625SOL    HW194649   5.470   2.026   4.457
97625SOL    HW294650   5.607   2.090   4.448
97626SOL     OW94651  12.274   0.227   2.317
97626SOL    HW194652  12.267   0.170   2.393
97626SOL    HW294653  12.184   0.258   2.302
97627SOL     OW94654   0.910   6.001   7.827
97627SOL    HW194655   0.965   5.950   7.767
97627SOL    HW294656   0.863   5.935   7.877
97628SOL     OW94657   2.991  13.885  11.155
97628SOL    HW194658   3.005  13.904  11.248
97628SOL    HW294659   2.912  13.830  11.153
97629SOL     OW94660   0.223   7.506   7.478
97629SOL    HW194661   0.268   7.423   7.465
97629SOL    HW294662   0.284   7.558   7.531
97630SOL     OW94663  12.451   7.157  12.359
97630SOL    HW194664  12.454   7.237  12.412
97630SOL    HW294665  12.424   7.188  12.272
97631SOL     OW94666  14.487  13.815  12.501
97631SOL    HW194667  14.460  13.748  12.437
97631SOL    HW294668  14.436  13.795  12.579
97632SOL     OW94669   3.659   5.993  12.024
97632SOL    HW194670   3.733   6.040  11.985
97632SOL    HW294671   3.650   6.030  12.112
97633SOL     OW94672   5.314  13.950  10.931
97633SOL    HW194673   5.382  13.934  10.865
97633SOL    HW294674   5.238  13.980  10.881
97634SOL     OW94675   3.474   7.173  13.159
97634SOL    HW194676   3.428   7.254  13.134
97634SOL    HW294677   3.563   7.201  13.177
97635SOL     OW94678  10.128  10.492  10.009
97635SOL    HW194679  10.121  10.553  10.083
97635SOL    HW294680  10.051  10.437  10.017
97636SOL     OW94681   9.535  13.264   0.176
97636SOL    HW194682   9.552  13.221   0.260
97636SOL    HW294683   9.452  13.225   0.147
97637SOL     OW94684   4.494   4.620   3.300
97637SOL    HW194685   4.543   4.683   3.246
97637SOL    HW294686   4.487   4.542   3.244
97638SOL     OW94687   5.677   6.809   5.228
97638SOL    HW194688   5.772   6.798   5.236
97638SOL    HW294689   5.655   6.765   5.145
97639SOL     OW94690   9.687   6.181  14.852
97639SOL    HW194691   9.655   6.094  14.828
97639SOL    HW294692   9.608   6.236  14.852
97640SOL     OW94693  10.238  10.829  11.570
97640SOL    HW194694  10.292  10.751  11.585
97640SOL    HW294695  10.258  10.854  11.480
97641SOL     OW94696   0.378  10.571   7.896
97641SOL    HW194697   0.452  10.525   7.936
97641SOL    HW294698   0.410  10.661   7.883
97642SOL     OW94699   4.107   3.464   9.626
97642SOL    HW194700   4.105   3.411   9.706
97642SOL    HW294701   4.083   3.403   9.556
97643SOL     OW94702   9.148  10.226  11.971
97643SOL    HW194703   9.238  10.208  11.995
97643SOL    HW294704   9.122  10.300  12.026
97644SOL     OW94705   8.068   5.410   7.371
97644SOL    HW194706   8.156   5.404   7.408
97644SOL    HW294707   8.081   5.449   7.285
97645SOL     OW94708   4.652   5.169   5.394
97645SOL    HW194709   4.612   5.176   5.481
97645SOL    HW294710   4.743   5.194   5.407
97646SOL     OW94711  13.144  10.861  14.055
97646SOL    HW194712  13.207  10.791  14.039
97646SOL    HW294713  13.167  10.929  13.991
97647SOL     OW94714  10.609   8.024   5.210
97647SOL    HW194715  10.532   7.989   5.255
97647SOL    HW294716  10.574   8.081   5.142
97648SOL     OW94717   9.440  11.373   9.158
97648SOL    HW194718   9.503  11.370   9.087
97648SOL    HW294719   9.418  11.466   9.166
97649SOL     OW94720   6.248   4.097  13.688
97649SOL    HW194721   6.234   4.152  13.765
97649SOL    HW294722   6.195   4.019  13.703
97650SOL     OW94723   5.489  13.859  11.391
97650SOL    HW194724   5.454  13.947  11.376
97650SOL    HW294725   5.412  13.803  11.394
97651SOL     OW94726   9.088   0.344   1.433
97651SOL    HW194727   9.042   0.351   1.349
97651SOL    HW294728   9.130   0.259   1.429
97652SOL     OW94729   1.672   0.473   3.825
97652SOL    HW194730   1.696   0.467   3.918
97652SOL    HW294731   1.682   0.566   3.804
97653SOL     OW94732   7.084  10.485   2.420
97653SOL    HW194733   7.021  10.507   2.350
97653SOL    HW294734   7.030  10.475   2.498
97654SOL     OW94735  10.345  10.492   1.338
97654SOL    HW194736  10.440  10.486   1.346
97654SOL    HW294737  10.315  10.401   1.348
97655SOL     OW94738   3.406  14.403  13.868
97655SOL    HW194739   3.463  14.349  13.923
97655SOL    HW294740   3.434  14.385  13.779
97656SOL     OW94741  11.237  10.976   3.899
97656SOL    HW194742  11.284  11.006   3.822
97656SOL    HW294743  11.297  10.993   3.972
97657SOL     OW94744   0.669  10.963   8.865
97657SOL    HW194745   0.730  10.994   8.932
97657SOL    HW294746   0.583  10.965   8.908
97658SOL     OW94747   4.453  14.786   4.599
97658SOL    HW194748   4.488  14.742   4.676
97658SOL    HW294749   4.425  14.872   4.630
97659SOL     OW94750   8.419   7.818   9.630
97659SOL    HW194751   8.445   7.908   9.614
97659SOL    HW294752   8.456   7.769   9.557
97660SOL     OW94753   5.602  10.268   2.799
97660SOL    HW194754   5.576  10.199   2.739
97660SOL    HW294755   5.526  10.281   2.855
97661SOL     OW94756   2.061   1.914  11.589
97661SOL    HW194757   2.070   1.927  11.494
97661SOL    HW294758   2.022   1.996  11.620
97662SOL     OW94759   6.295   4.352   4.979
97662SOL    HW194760   6.240   4.410   4.927
97662SOL    HW294761   6.299   4.270   4.929
97663SOL     OW94762   1.895   4.763   0.673
97663SOL    HW194763   1.881   4.685   0.619
97663SOL    HW294764   1.990   4.767   0.685
97664SOL     OW94765   2.465   2.922   5.075
97664SOL    HW194766   2.433   2.832   5.067
97664SOL    HW294767   2.554   2.919   5.039
97665SOL     OW94768  13.988  11.564   5.789
97665SOL    HW194769  13.892  11.570   5.789
97665SOL    HW294770  14.010  11.543   5.879
97666SOL     OW94771   5.463   3.631   4.541
97666SOL    HW194772   5.502   3.711   4.577
97666SOL    HW294773   5.474   3.566   4.611
97667SOL     OW94774  13.899   0.558   5.530
97667SOL    HW194775  13.947   0.488   5.574
97667SOL    HW294776  13.963   0.597   5.471
97668SOL     OW94777  11.779   9.415   6.674
97668SOL    HW194778  11.770   9.499   6.718
97668SOL    HW294779  11.731   9.353   6.730
97669SOL     OW94780   8.562   2.325   3.067
97669SOL    HW194781   8.503   2.383   3.116
97669SOL    HW294782   8.575   2.250   3.124
97670SOL     OW94783   1.148   8.750  14.272
97670SOL    HW194784   1.160   8.657  14.249
97670SOL    HW294785   1.233   8.790  14.255
97671SOL     OW94786  14.119   6.707  12.675
97671SOL    HW194787  14.195   6.653  12.654
97671SOL    HW294788  14.149   6.797  12.662
97672SOL     OW94789  11.175  11.137  11.175
97672SOL    HW194790  11.189  11.043  11.164
97672SOL    HW294791  11.108  11.143  11.243
97673SOL     OW94792  13.010   7.255   9.045
97673SOL    HW194793  13.069   7.198   8.996
97673SOL    HW294794  13.005   7.335   8.993
97674SOL     OW94795   5.242  14.517  11.203
97674SOL    HW194796   5.229  14.612  11.205
97674SOL    HW294797   5.270  14.494  11.291
97675SOL     OW94798  12.275  11.935   1.820
97675SOL    HW194799  12.359  11.974   1.843
97675SOL    HW294800  12.237  11.908   1.904
97676SOL     OW94801  13.970  10.478   1.251
97676SOL    HW194802  14.025  10.450   1.324
97676SOL    HW294803  14.031  10.495   1.179
97677SOL     OW94804   9.011   7.214  10.253
97677SOL    HW194805   9.056   7.205  10.169
97677SOL    HW294806   9.066   7.275  10.303
97678SOL     OW94807  12.865  12.243   5.881
97678SOL    HW194808  12.941  12.298   5.900
97678SOL    HW294809  12.903  12.158   5.857
97679SOL     OW94810   4.108   4.311   2.432
97679SOL    HW194811   4.028   4.267   2.404
97679SOL    HW294812   4.163   4.315   2.354
97680SOL     OW94813   5.261  12.123   4.161
97680SOL    HW194814   5.321  12.051   4.141
97680SOL    HW294815   5.284  12.149   4.250
97681SOL     OW94816   7.781   0.880  14.367
97681SOL    HW194817   7.730   0.804  14.395
97681SOL    HW294818   7.872   0.858  14.389
97682SOL     OW94819  11.713   7.639   4.392
97682SOL    HW194820  11.687   7.633   4.300
97682SOL    HW294821  11.702   7.732   4.414
97683SOL     OW94822   8.588   9.112   1.197
97683SOL    HW194823   8.519   9.060   1.156
97683SOL    HW294824   8.584   9.197   1.154
97684SOL     OW94825  10.573   5.166   4.950
97684SOL    HW194826  10.666   5.173   4.927
97684SOL    HW294827  10.573   5.138   5.041
97685SOL     OW94828   1.169   4.635   7.374
97685SOL    HW194829   1.237   4.576   7.406
97685SOL    HW294830   1.180   4.636   7.279
97686SOL     OW94831   7.893   0.669   5.392
97686SOL    HW194832   7.961   0.712   5.340
97686SOL    HW294833   7.927   0.668   5.481
97687SOL     OW94834  13.962   1.914   9.106
97687SOL    HW194835  13.911   1.835   9.122
97687SOL    HW294836  14.037   1.907   9.166
97688SOL     OW94837   6.633   5.486   8.176
97688SOL    HW194838   6.587   5.518   8.098
97688SOL    HW294839   6.694   5.420   8.142
97689SOL     OW94840   5.617   1.882  11.663
97689SOL    HW194841   5.700   1.929  11.650
97689SOL    HW294842   5.568   1.899  11.583
97690SOL     OW94843  14.110   3.629   8.427
97690SOL    HW194844  14.131   3.613   8.519
97690SOL    HW294845  14.081   3.544   8.394
97691SOL     OW94846  11.565  14.648  13.048
97691SOL    HW194847  11.656  14.678  13.045
97691SOL    HW294848  11.538  14.663  13.139
97692SOL     OW94849  13.774   2.730   0.378
97692SOL    HW194850  13.803   2.653   0.426
97692SOL    HW294851  13.760   2.796   0.446
97693SOL     OW94852   6.144   3.858   8.895
97693SOL    HW194853   6.131   3.949   8.869
97693SOL    HW294854   6.118   3.807   8.819
97694SOL     OW94855   4.386  13.495   4.585
97694SOL    HW194856   4.337  13.504   4.503
97694SOL    HW294857   4.477  13.491   4.558
97695SOL     OW94858   9.550   1.938   6.009
97695SOL    HW194859   9.637   1.921   5.975
97695SOL    HW294860   9.528   1.859   6.059
97696SOL     OW94861  12.501   3.967   6.236
97696SOL    HW194862  12.558   3.988   6.162
97696SOL    HW294863  12.540   3.888   6.274
97697SOL     OW94864  13.766   3.504   8.115
97697SOL    HW194865  13.763   3.597   8.138
97697SOL    HW294866  13.676   3.474   8.126
97698SOL     OW94867   9.528   6.787   3.231
97698SOL    HW194868   9.476   6.760   3.155
97698SOL    HW294869   9.513   6.718   3.296
97699SOL     OW94870   8.896  12.600  11.696
97699SOL    HW194871   8.814  12.604  11.646
97699SOL    HW294872   8.884  12.666  11.765
97700SOL     OW94873   9.636   1.652   0.771
97700SOL    HW194874   9.724   1.625   0.799
97700SOL    HW294875   9.577   1.594   0.818
97701SOL     OW94876  11.427  12.187   9.823
97701SOL    HW194877  11.513  12.153   9.847
97701SOL    HW294878  11.432  12.280   9.843
97702SOL     OW94879  13.707   6.640   8.015
97702SOL    HW194880  13.653   6.717   8.000
97702SOL    HW294881  13.645   6.567   8.015
97703SOL     OW94882  11.540   2.446   8.928
97703SOL    HW194883  11.457   2.407   8.900
97703SOL    HW294884  11.587   2.462   8.846
97704SOL     OW94885  13.706  12.913   0.107
97704SOL    HW194886  13.668  12.825   0.118
97704SOL    HW294887  13.693  12.955   0.192
97705SOL     OW94888  12.929   8.074  14.229
97705SOL    HW194889  12.917   7.982  14.250
97705SOL    HW294890  12.929   8.078  14.133
97706SOL     OW94891   2.735  14.784  10.160
97706SOL    HW194892   2.755  14.738  10.078
97706SOL    HW294893   2.805  14.848  10.169
97707SOL     OW94894  12.739   2.221   9.128
97707SOL    HW194895  12.826   2.225   9.089
97707SOL    HW294896  12.748   2.156   9.199
97708SOL     OW94897  13.758  13.532   9.554
97708SOL    HW194898  13.749  13.557   9.462
97708SOL    HW294899  13.849  13.554   9.576
97709SOL     OW94900  11.626  12.380  14.721
97709SOL    HW194901  11.671  12.297  14.735
97709SOL    HW294902  11.640  12.400  14.628
97710SOL     OW94903   0.415  12.610   3.728
97710SOL    HW194904   0.335  12.560   3.711
97710SOL    HW294905   0.477  12.579   3.662
97711SOL     OW94906   1.984   3.119  14.134
97711SOL    HW194907   1.940   3.052  14.081
97711SOL    HW294908   1.942   3.201  14.109
97712SOL     OW94909  12.673   7.593   9.749
97712SOL    HW194910  12.614   7.572   9.677
97712SOL    HW294911  12.653   7.527   9.816
97713SOL     OW94912  12.734  14.693   0.457
97713SOL    HW194913  12.669  14.622   0.453
97713SOL    HW294914  12.813  14.651   0.490
97714SOL     OW94915   4.018  14.224   9.679
97714SOL    HW194916   4.018  14.128   9.672
97714SOL    HW294917   4.101  14.245   9.721
97715SOL     OW94918  12.299   0.216   3.068
97715SOL    HW194919  12.335   0.282   3.128
97715SOL    HW294920  12.240   0.164   3.123
97716SOL     OW94921   0.282  13.712   6.353
97716SOL    HW194922   0.353  13.775   6.345
97716SOL    HW294923   0.322  13.628   6.331
97717SOL     OW94924  10.333   6.321   0.942
97717SOL    HW194925  10.244   6.293   0.917
97717SOL    HW294926  10.388   6.245   0.922
97718SOL     OW94927   3.206  13.434  12.097
97718SOL    HW194928   3.115  13.464  12.092
97718SOL    HW294929   3.215  13.402  12.187
97719SOL     OW94930   2.277  13.852   8.702
97719SOL    HW194931   2.372  13.842   8.709
97719SOL    HW294932   2.262  13.868   8.609
97720SOL     OW94933   3.700   3.955   4.251
97720SOL    HW194934   3.766   3.899   4.292
97720SOL    HW294935   3.656   3.997   4.324
97721SOL     OW94936   0.667   7.547   8.907
97721SOL    HW194937   0.595   7.584   8.958
97721SOL    HW294938   0.631   7.465   8.873
97722SOL     OW94939   2.965  13.691  11.865
97722SOL    HW194940   2.980  13.621  11.929
97722SOL    HW294941   3.018  13.765  11.897
97723SOL     OW94942   2.500  13.772   8.237
97723SOL    HW194943   2.524  13.693   8.187
97723SOL    HW294944   2.492  13.840   8.171
97724SOL     OW94945   1.517  10.848   2.639
97724SOL    HW194946   1.490  10.938   2.657
97724SOL    HW294947   1.456  10.818   2.572
97725SOL     OW94948  11.970   3.114  14.455
97725SOL    HW194949  12.055   3.095  14.415
97725SOL    HW294950  11.926   3.029  14.459
97726SOL     OW94951   9.603  12.853   4.277
97726SOL    HW194952   9.617  12.766   4.240
97726SOL    HW294953   9.671  12.907   4.236
97727SOL     OW94954  10.734   7.300   6.091
97727SOL    HW194955  10.703   7.220   6.048
97727SOL    HW294956  10.827   7.305   6.066
97728SOL     OW94957  10.710  11.419   9.539
97728SOL    HW194958  10.800  11.442   9.515
97728SOL    HW294959  10.670  11.389   9.458
97729SOL     OW94960  11.453  10.194  11.877
97729SOL    HW194961  11.539  10.152  11.889
97729SOL    HW294962  11.431  10.177  11.785
97730SOL     OW94963   3.815   2.096   7.947
97730SOL    HW194964   3.837   2.116   8.038
97730SOL    HW294965   3.818   2.180   7.902
97731SOL     OW94966  11.183   7.488  12.215
97731SOL    HW194967  11.256   7.471  12.274
97731SOL    HW294968  11.219   7.477  12.127
97732SOL     OW94969   3.662  12.949   6.864
97732SOL    HW194970   3.664  12.874   6.804
97732SOL    HW294971   3.602  13.011   6.822
97733SOL     OW94972   9.733  11.052   7.536
97733SOL    HW194973   9.669  10.982   7.523
97733SOL    HW294974   9.764  11.039   7.626
97734SOL     OW94975   8.435   7.875  13.214
97734SOL    HW194976   8.511   7.876  13.156
97734SOL    HW294977   8.374   7.814  13.173
97735SOL     OW94978  11.963  10.368  14.461
97735SOL    HW194979  11.947  10.432  14.392
97735SOL    HW294980  11.916  10.403  14.537
97736SOL     OW94981   3.981   8.963   6.219
97736SOL    HW194982   4.009   8.946   6.309
97736SOL    HW294983   3.888   8.985   6.226
97737SOL     OW94984   2.415   2.880  11.740
97737SOL    HW194985   2.341   2.825  11.765
97737SOL    HW294986   2.492   2.832  11.770
97738SOL     OW94987  12.907  10.726   2.262
97738SOL    HW194988  12.925  10.801   2.319
97738SOL    HW294989  12.979  10.725   2.200
97739SOL     OW94990   4.219   9.073   4.977
97739SOL    HW194991   4.212   8.981   4.950
97739SOL    HW294992   4.147   9.085   5.039
97740SOL     OW94993   9.726  12.143  11.478
97740SOL    HW194994   9.726  12.145  11.382
97740SOL    HW294995   9.798  12.201  11.504
97741SOL     OW94996   2.911   9.224   2.027
97741SOL    HW194997   2.880   9.187   1.944
97741SOL    HW294998   2.842   9.285   2.053
97742SOL     OW94999   2.242  11.452  12.063
97742SOL    HW195000   2.200  11.366  12.057
97742SOL    HW295001   2.317  11.446  12.003
97743SOL     OW95002   8.197   7.840   1.883
97743SOL    HW195003   8.245   7.922   1.884
97743SOL    HW295004   8.134   7.847   1.955
97744SOL     OW95005   6.741   9.303   7.724
97744SOL    HW195006   6.764   9.371   7.660
97744SOL    HW295007   6.793   9.227   7.697
97745SOL     OW95008   7.233   9.332   4.117
97745SOL    HW195009   7.205   9.383   4.041
97745SOL    HW295010   7.276   9.255   4.079
97746SOL     OW95011  13.969   2.509  11.420
97746SOL    HW195012  13.946   2.420  11.444
97746SOL    HW295013  14.001   2.548  11.501
97747SOL     OW95014   4.568   2.623  11.803
97747SOL    HW195015   4.637   2.669  11.850
97747SOL    HW295016   4.504   2.690  11.781
97748SOL     OW95017  14.616   3.413   7.354
97748SOL    HW195018  14.667   3.382   7.429
97748SOL    HW295019  14.606   3.507   7.368
97749SOL     OW95020  11.894   2.244   8.515
97749SOL    HW195021  11.818   2.290   8.479
97749SOL    HW295022  11.897   2.162   8.466
97750SOL     OW95023   2.900   2.192   2.668
97750SOL    HW195024   2.871   2.254   2.601
97750SOL    HW295025   2.988   2.222   2.692
97751SOL     OW95026  10.924  12.691   6.153
97751SOL    HW195027  10.872  12.771   6.159
97751SOL    HW295028  10.998  12.706   6.213
97752SOL     OW95029   1.166   1.600  12.676
97752SOL    HW195030   1.196   1.569  12.761
97752SOL    HW295031   1.178   1.695  12.679
97753SOL     OW95032   2.921   7.602   8.782
97753SOL    HW195033   3.016   7.608   8.772
97753SOL    HW295034   2.887   7.604   8.693
97754SOL     OW95035  14.018   8.284   9.268
97754SOL    HW195036  13.927   8.272   9.241
97754SOL    HW295037  14.031   8.222   9.339
97755SOL     OW95038   2.928  14.837  13.421
97755SOL    HW195039   2.958   0.045  13.392
97755SOL    HW295040   2.943  14.837  13.516
97756SOL     OW95041  10.363   0.971   8.702
97756SOL    HW195042  10.325   0.905   8.644
97756SOL    HW295043  10.458   0.960   8.692
97757SOL     OW95044  12.049   0.634  11.052
97757SOL    HW195045  12.044   0.672  11.140
97757SOL    HW295046  12.119   0.569  11.058
97758SOL     OW95047   2.713  14.443  10.460
97758SOL    HW195048   2.681  14.509  10.399
97758SOL    HW295049   2.768  14.385  10.407
97759SOL     OW95050   7.157   2.884   7.494
97759SOL    HW195051   7.228   2.934   7.536
97759SOL    HW295052   7.157   2.916   7.403
97760SOL     OW95053   9.919  13.985   2.509
97760SOL    HW195054   9.941  13.930   2.434
97760SOL    HW295055   9.921  13.926   2.584
97761SOL     OW95056   2.346   3.913   5.227
97761SOL    HW195057   2.270   3.959   5.191
97761SOL    HW295058   2.309   3.856   5.295
97762SOL     OW95059   5.561   1.295  12.221
97762SOL    HW195060   5.536   1.386  12.204
97762SOL    HW295061   5.613   1.300  12.301
97763SOL     OW95062  12.627   9.447   0.812
97763SOL    HW195063  12.617   9.537   0.843
97763SOL    HW295064  12.538   9.418   0.792
97764SOL     OW95065   5.453  14.188   6.664
97764SOL    HW195066   5.371  14.237   6.673
97764SOL    HW295067   5.520  14.256   6.660
97765SOL     OW95068  13.560   8.052   6.616
97765SOL    HW195069  13.582   8.000   6.539
97765SOL    HW295070  13.630   8.033   6.678
97766SOL     OW95071   0.869  14.259  14.374
97766SOL    HW195072   0.800  14.193  14.365
97766SOL    HW295073   0.918  14.253  14.292
97767SOL     OW95074   0.828  12.863  10.919
97767SOL    HW195075   0.867  12.950  10.927
97767SOL    HW295076   0.758  12.862  10.983
97768SOL     OW95077   1.549  13.395   6.240
97768SOL    HW195078   1.594  13.311   6.241
97768SOL    HW295079   1.616  13.457   6.210
97769SOL     OW95080  12.529   6.194   5.512
97769SOL    HW195081  12.493   6.192   5.601
97769SOL    HW295082  12.544   6.287   5.495
97770SOL     OW95083  10.450   0.131  12.639
97770SOL    HW195084  10.537   0.121  12.677
97770SOL    HW295085  10.413   0.208  12.682
97771SOL     OW95086   5.938   2.110  10.773
97771SOL    HW195087   5.846   2.111  10.801
97771SOL    HW295088   5.978   2.041  10.826
97772SOL     OW95089  12.695   4.215   8.217
97772SOL    HW195090  12.677   4.309   8.210
97772SOL    HW295091  12.710   4.187   8.127
97773SOL     OW95092  14.608   8.411   4.454
97773SOL    HW195093  14.651   8.390   4.370
97773SOL    HW295094  14.574   8.499   4.442
97774SOL     OW95095   3.244  12.932  14.366
97774SOL    HW195096   3.338  12.925  14.381
97774SOL    HW295097   3.204  12.907  14.449
97775SOL     OW95098   7.834   7.126   6.546
97775SOL    HW195099   7.792   7.140   6.631
97775SOL    HW295100   7.824   7.210   6.500
97776SOL     OW95101  10.860   2.270  13.921
97776SOL    HW195102  10.881   2.219  13.999
97776SOL    HW295103  10.921   2.344  13.924
97777SOL     OW95104   7.948  14.701   6.953
97777SOL    HW195105   7.959  14.653   6.871
97777SOL    HW295106   8.011  14.661   7.013
97778SOL     OW95107  13.701  13.027   8.924
97778SOL    HW195108  13.756  13.105   8.930
97778SOL    HW295109  13.738  12.975   8.853
97779SOL     OW95110  14.044   8.796  11.307
97779SOL    HW195111  14.042   8.888  11.280
97779SOL    HW295112  14.049   8.747  11.225
97780SOL     OW95113  11.889   2.039  13.882
97780SOL    HW195114  11.861   2.075  13.798
97780SOL    HW295115  11.896   2.116  13.939
97781SOL     OW95116   0.649   9.586  12.462
97781SOL    HW195117   0.585   9.552  12.524
97781SOL    HW295118   0.719   9.621  12.516
97782SOL     OW95119  13.391  13.162  13.707
97782SOL    HW195120  13.388  13.106  13.784
97782SOL    HW295121  13.300  13.182  13.688
97783SOL     OW95122  11.965  10.719   2.878
97783SOL    HW195123  12.016  10.671   2.942
97783SOL    HW295124  11.993  10.810   2.887
97784SOL     OW95125   0.626  11.901   5.034
97784SOL    HW195126   0.658  11.833   4.976
97784SOL    HW295127   0.576  11.961   4.977
97785SOL     OW95128   7.941   1.348   2.555
97785SOL    HW195129   7.853   1.357   2.520
97785SOL    HW295130   7.956   1.429   2.604
97786SOL     OW95131   9.094   1.392  11.095
97786SOL    HW195132   9.169   1.342  11.064
97786SOL    HW295133   9.125   1.435  11.175
97787SOL     OW95134  14.729   6.052   1.109
97787SOL    HW195135  14.768   6.138   1.097
97787SOL    HW295136  14.651   6.068   1.162
97788SOL     OW95137   4.615   6.714   4.517
97788SOL    HW195138   4.677   6.669   4.574
97788SOL    HW295139   4.656   6.712   4.430
97789SOL     OW95140   6.254  13.245   6.723
97789SOL    HW195141   6.209  13.161   6.716
97789SOL    HW295142   6.269  13.257   6.816
97790SOL     OW95143  13.657   6.296   8.375
97790SOL    HW195144  13.680   6.296   8.468
97790SOL    HW295145  13.562   6.296   8.374
97791SOL     OW95146   1.989  13.993   4.087
97791SOL    HW195147   2.012  13.924   4.025
97791SOL    HW295148   1.916  14.040   4.044
97792SOL     OW95149  10.440   2.260   9.708
97792SOL    HW195150  10.528   2.295   9.696
97792SOL    HW295151  10.425   2.263   9.802
97793SOL     OW95152   3.244  14.849   9.993
97793SOL    HW195153   3.276  14.776  10.046
97793SOL    HW295154   3.280  14.833   9.906
97794SOL     OW95155   9.663   7.745  10.320
97794SOL    HW195156   9.701   7.660  10.301
97794SOL    HW295157   9.644   7.783  10.235
97795SOL     OW95158  11.279  10.103   4.066
97795SOL    HW195159  11.342  10.172   4.083
97795SOL    HW295160  11.214  10.143   4.008
97796SOL     OW95161   9.848   9.459   1.071
97796SOL    HW195162   9.789   9.533   1.059
97796SOL    HW295163   9.822   9.396   1.004
97797SOL     OW95164  13.316  12.308   2.345
97797SOL    HW195165  13.262  12.235   2.316
97797SOL    HW295166  13.275  12.385   2.307
97798SOL     OW95167  11.721  12.964   2.374
97798SOL    HW195168  11.812  12.962   2.401
97798SOL    HW295169  11.672  12.976   2.456
97799SOL     OW95170   7.482  11.499  12.720
97799SOL    HW195171   7.566  11.457  12.736
97799SOL    HW295172   7.502  11.592  12.713
97800SOL     OW95173   4.635   8.992   2.458
97800SOL    HW195174   4.652   8.901   2.431
97800SOL    HW295175   4.557   9.017   2.409
97801SOL     OW95176   5.947   7.016   7.681
97801SOL    HW195177   6.002   7.088   7.651
97801SOL    HW295178   6.003   6.966   7.741
97802SOL     OW95179  10.140   2.196  11.263
97802SOL    HW195180  10.113   2.287  11.278
97802SOL    HW295181  10.204   2.178  11.332
97803SOL     OW95182   3.773  12.364   9.950
97803SOL    HW195183   3.857  12.325   9.924
97803SOL    HW295184   3.752  12.322  10.033
97804SOL     OW95185   7.604   7.854   4.820
97804SOL    HW195186   7.570   7.920   4.760
97804SOL    HW295187   7.699   7.856   4.807
97805SOL     OW95188  12.847  14.038   3.666
97805SOL    HW195189  12.767  14.026   3.717
97805SOL    HW295190  12.918  14.022   3.728
97806SOL     OW95191   9.517  12.338  11.519
97806SOL    HW195192   9.566  12.256  11.517
97806SOL    HW295193   9.550  12.388  11.444
97807SOL     OW95194  11.143   3.798   1.800
97807SOL    HW195195  11.176   3.858   1.733
97807SOL    HW295196  11.209   3.801   1.870
97808SOL     OW95197  12.449   9.008   6.795
97808SOL    HW195198  12.377   9.034   6.738
97808SOL    HW295199  12.470   8.918   6.768
97809SOL     OW95200   0.331   5.781   0.717
97809SOL    HW195201   0.371   5.843   0.777
97809SOL    HW295202   0.391   5.779   0.642
97810SOL     OW95203  12.248   5.477   4.216
97810SOL    HW195204  12.259   5.551   4.275
97810SOL    HW295205  12.262   5.513   4.128
97811SOL     OW95206   1.267   9.222   4.216
97811SOL    HW195207   1.241   9.282   4.147
97811SOL    HW295208   1.362   9.214   4.207
97812SOL     OW95209  10.289   9.809   0.722
97812SOL    HW195210  10.312   9.895   0.759
97812SOL    HW295211  10.208   9.785   0.767
97813SOL     OW95212   9.108  13.188   7.982
97813SOL    HW195213   9.103  13.159   7.891
97813SOL    HW295214   9.198  13.169   8.008
97814SOL     OW95215  10.800  13.416   1.882
97814SOL    HW195216  10.810  13.509   1.903
97814SOL    HW295217  10.857  13.402   1.806
97815SOL     OW95218  12.804   2.740   5.609
97815SOL    HW195219  12.792   2.686   5.687
97815SOL    HW295220  12.719   2.742   5.567
97816SOL     OW95221   0.588  11.176   3.286
97816SOL    HW195222   0.640  11.105   3.323
97816SOL    HW295223   0.556  11.142   3.203
97817SOL     OW95224  11.505   2.494   9.387
97817SOL    HW195225  11.440   2.438   9.344
97817SOL    HW295226  11.554   2.533   9.314
97818SOL     OW95227  14.557   4.212   0.499
97818SOL    HW195228  14.478   4.265   0.492
97818SOL    HW295229  14.614   4.244   0.430
97819SOL     OW95230  12.370   0.489   2.632
97819SOL    HW195231  12.430   0.532   2.693
97819SOL    HW295232  12.347   0.406   2.674
97820SOL     OW95233  14.449   0.828   3.215
97820SOL    HW195234  14.369   0.785   3.244
97820SOL    HW295235  14.420   0.915   3.186
97821SOL     OW95236   4.937   4.399   5.625
97821SOL    HW195237   5.020   4.357   5.645
97821SOL    HW295238   4.903   4.427   5.710
97822SOL     OW95239  14.418  12.622   7.846
97822SOL    HW195240  14.410  12.536   7.804
97822SOL    HW295241  14.327  12.651   7.858
97823SOL     OW95242   0.530   8.521   0.939
97823SOL    HW195243   0.617   8.561   0.936
97823SOL    HW295244   0.543   8.439   0.986
97824SOL     OW95245   9.434   2.195   6.615
97824SOL    HW195246   9.490   2.254   6.665
97824SOL    HW295247   9.479   2.184   6.532
97825SOL     OW95248   9.103   8.119   3.937
97825SOL    HW195249   9.103   8.196   3.994
97825SOL    HW295250   9.016   8.081   3.948
97826SOL     OW95251   6.939   3.213   8.674
97826SOL    HW195252   6.874   3.252   8.732
97826SOL    HW295253   7.020   3.261   8.692
97827SOL     OW95254  10.936   4.260   3.328
97827SOL    HW195255  10.917   4.244   3.421
97827SOL    HW295256  10.859   4.306   3.295
97828SOL     OW95257  13.777   1.189  12.141
97828SOL    HW195258  13.864   1.153  12.128
97828SOL    HW295259  13.718   1.128  12.097
97829SOL     OW95260   7.850   4.295  14.282
97829SOL    HW195261   7.940   4.296  14.249
97829SOL    HW295262   7.822   4.203  14.275
97830SOL     OW95263   4.589   6.247   2.307
97830SOL    HW195264   4.555   6.329   2.270
97830SOL    HW295265   4.523   6.219   2.369
97831SOL     OW95266  10.967  12.467   7.604
97831SOL    HW195267  11.043  12.418   7.574
97831SOL    HW295268  10.902  12.400   7.627
97832SOL     OW95269   1.313   4.685  10.344
97832SOL    HW195270   1.331   4.652  10.432
97832SOL    HW295271   1.218   4.677  10.335
97833SOL     OW95272   8.678  13.836  14.146
97833SOL    HW195273   8.717  13.763  14.194
97833SOL    HW295274   8.749  13.899  14.136
97834SOL     OW95275  14.615   6.315   7.056
97834SOL    HW195276  14.605   6.274   7.142
97834SOL    HW295277  14.586   6.248   6.994
97835SOL     OW95278   2.672   1.316   4.903
97835SOL    HW195279   2.617   1.395   4.902
97835SOL    HW295280   2.755   1.345   4.866
97836SOL     OW95281   0.208  14.687   1.107
97836SOL    HW195282   0.266  14.670   1.033
97836SOL    HW295283   0.266  14.686   1.183
97837SOL     OW95284   0.755  10.039   7.218
97837SOL    HW195285   0.785  10.019   7.130
97837SOL    HW295286   0.786   9.967   7.272
97838SOL     OW95287   6.091   1.210  12.393
97838SOL    HW195288   6.132   1.130  12.363
97838SOL    HW295289   6.069   1.193  12.485
97839SOL     OW95290   1.502   2.228  11.389
97839SOL    HW195291   1.443   2.181  11.448
97839SOL    HW295292   1.452   2.305  11.362
97840SOL     OW95293  10.626   9.268   9.038
97840SOL    HW195294  10.636   9.353   9.081
97840SOL    HW295295  10.539   9.239   9.063
97841SOL     OW95296   1.911   2.366   0.638
97841SOL    HW195297   1.861   2.446   0.622
97841SOL    HW295298   1.931   2.369   0.731
97842SOL     OW95299   3.221   7.331  14.469
97842SOL    HW195300   3.238   7.376  14.551
97842SOL    HW295301   3.127   7.315  14.469
97843SOL     OW95302   9.139   7.375   0.888
97843SOL    HW195303   9.216   7.422   0.918
97843SOL    HW295304   9.168   7.325   0.812
97844SOL     OW95305  10.006  12.813   4.650
97844SOL    HW195306   9.957  12.806   4.568
97844SOL    HW295307  10.068  12.740   4.647
97845SOL     OW95308   0.471   7.022   0.706
97845SOL    HW195309   0.386   7.048   0.670
97845SOL    HW295310   0.473   7.062   0.793
97846SOL     OW95311  10.577   6.077   6.411
97846SOL    HW195312  10.616   6.128   6.339
97846SOL    HW295313  10.651   6.030   6.449
97847SOL     OW95314   3.819   0.592  14.521
97847SOL    HW195315   3.864   0.662  14.569
97847SOL    HW295316   3.885   0.524  14.512
97848SOL     OW95317   7.527  12.728  12.343
97848SOL    HW195318   7.485  12.716  12.257
97848SOL    HW295319   7.462  12.774  12.395
97849SOL     OW95320  10.001   1.349   5.669
97849SOL    HW195321  10.030   1.294   5.742
97849SOL    HW295322   9.924   1.395   5.703
97850SOL     OW95323   1.025  13.874  13.359
97850SOL    HW195324   1.032  13.965  13.388
97850SOL    HW295325   1.076  13.825  13.423
97851SOL     OW95326   9.983   6.004  13.199
97851SOL    HW195327   9.936   5.954  13.266
97851SOL    HW295328   9.978   5.950  13.120
97852SOL     OW95329  13.266  13.239   9.615
97852SOL    HW195330  13.270  13.148   9.586
97852SOL    HW295331  13.316  13.287   9.549
97853SOL     OW95332  11.907   2.350   3.183
97853SOL    HW195333  11.950   2.398   3.254
97853SOL    HW295334  11.844   2.412   3.147
97854SOL     OW95335   7.431   0.377  12.112
97854SOL    HW195336   7.390   0.422  12.186
97854SOL    HW295337   7.512   0.426  12.097
97855SOL     OW95338   5.614  13.481   6.827
97855SOL    HW195339   5.620  13.460   6.920
97855SOL    HW295340   5.548  13.550   6.821
97856SOL     OW95341   7.024   3.719  14.269
97856SOL    HW195342   7.003   3.755  14.355
97856SOL    HW295343   7.110   3.680  14.279
97857SOL     OW95344   9.676   7.460   5.737
97857SOL    HW195345   9.671   7.371   5.702
97857SOL    HW295346   9.730   7.508   5.673
97858SOL     OW95347   9.239   9.979   9.777
97858SOL    HW195348   9.253   9.958   9.869
97858SOL    HW295349   9.218   9.895   9.736
97859SOL     OW95350  14.628   3.179   1.275
97859SOL    HW195351  14.706   3.188   1.221
97859SOL    HW295352  14.556   3.207   1.218
97860SOL     OW95353   2.175  13.777   1.115
97860SOL    HW195354   2.116  13.713   1.154
97860SOL    HW295355   2.262  13.745   1.135
97861SOL     OW95356   4.039   8.325   7.354
97861SOL    HW195357   4.024   8.311   7.448
97861SOL    HW295358   4.001   8.248   7.312
97862SOL     OW95359  10.368   2.903   9.429
97862SOL    HW195360  10.376   2.837   9.498
97862SOL    HW295361  10.340   2.855   9.352
97863SOL     OW95362   0.458   9.979  14.227
97863SOL    HW195363   0.436   9.892  14.194
97863SOL    HW295364   0.505  10.021  14.156
97864SOL     OW95365   7.403   4.268   9.201
97864SOL    HW195366   7.401   4.203   9.271
97864SOL    HW295367   7.495   4.287   9.188
97865SOL     OW95368   8.592  10.504   1.569
97865SOL    HW195369   8.551  10.484   1.485
97865SOL    HW295370   8.576  10.426   1.622
97866SOL     OW95371  12.550  13.282   7.284
97866SOL    HW195372  12.523  13.374   7.280
97866SOL    HW295373  12.601  13.269   7.204
97867SOL     OW95374   2.624   5.160   5.851
97867SOL    HW195375   2.664   5.073   5.848
97867SOL    HW295376   2.565   5.156   5.927
97868SOL     OW95377  12.574   5.059  13.779
97868SOL    HW195378  12.599   4.988  13.838
97868SOL    HW295379  12.642   5.059  13.711
97869SOL     OW95380   1.293   9.272  14.621
97869SOL    HW195381   1.298   9.254  14.715
97869SOL    HW295382   1.342   9.201  14.580
97870SOL     OW95383  10.871   4.547   4.561
97870SOL    HW195384  10.903   4.550   4.470
97870SOL    HW295385  10.949   4.564   4.614
97871SOL     OW95386   2.196  11.614  10.532
97871SOL    HW195387   2.206  11.535  10.586
97871SOL    HW295388   2.101  11.626  10.525
97872SOL     OW95389  13.548  11.623   9.556
97872SOL    HW195390  13.590  11.692   9.607
97872SOL    HW295391  13.457  11.652   9.547
97873SOL     OW95392   7.868   6.825  14.719
97873SOL    HW195393   7.809   6.754  14.693
97873SOL    HW295394   7.820   6.905  14.697
97874SOL     OW95395   1.664   4.264  10.091
97874SOL    HW195396   1.682   4.305  10.007
97874SOL    HW295397   1.705   4.178  10.086
97875SOL     OW95398   4.232   1.632   4.141
97875SOL    HW195399   4.236   1.715   4.094
97875SOL    HW295400   4.290   1.574   4.091
97876SOL     OW95401   5.417   6.624   1.458
97876SOL    HW195402   5.454   6.591   1.540
97876SOL    HW295403   5.470   6.584   1.390
97877SOL     OW95404   5.979   4.651   0.510
97877SOL    HW195405   5.885   4.670   0.513
97877SOL    HW295406   5.993   4.591   0.583
97878SOL     OW95407   2.352  10.151  14.232
97878SOL    HW195408   2.337  10.246  14.233
97878SOL    HW295409   2.381  10.131  14.321
97879SOL     OW95410   0.527   9.713   2.390
97879SOL    HW195411   0.476   9.760   2.457
97879SOL    HW295412   0.618   9.724   2.418
97880SOL     OW95413   6.808   4.444   8.183
97880SOL    HW195414   6.897   4.433   8.217
97880SOL    HW295415   6.784   4.358   8.149
97881SOL     OW95416   8.655   5.628   8.725
97881SOL    HW195417   8.585   5.680   8.766
97881SOL    HW295418   8.694   5.687   8.660
97882SOL     OW95419  13.271   6.923   1.181
97882SOL    HW195420  13.303   7.007   1.212
97882SOL    HW295421  13.300   6.919   1.090
97883SOL     OW95422   4.359   7.319  11.467
97883SOL    HW195423   4.307   7.399  11.461
97883SOL    HW295424   4.301   7.256  11.510
97884SOL     OW95425  11.237   3.874   4.019
97884SOL    HW195426  11.165   3.812   4.026
97884SOL    HW295427  11.316   3.820   4.022
97885SOL     OW95428  12.010   1.473   0.073
97885SOL    HW195429  12.079   1.528   0.037
97885SOL    HW295430  12.028   1.386   0.038
97886SOL     OW95431   6.051   8.715  14.575
97886SOL    HW195432   6.003   8.660  14.513
97886SOL    HW295433   6.065   8.797  14.527
97887SOL     OW95434  11.413   6.338   8.398
97887SOL    HW195435  11.361   6.386   8.464
97887SOL    HW295436  11.388   6.378   8.315
97888SOL     OW95437   8.809  12.629   0.070
97888SOL    HW195438   8.738  12.661   0.015
97888SOL    HW295439   8.776  12.638   0.159
97889SOL     OW95440   1.502  14.276   7.272
97889SOL    HW195441   1.558  14.218   7.323
97889SOL    HW295442   1.515  14.249   7.181
97890SOL     OW95443   1.231   1.603  10.015
97890SOL    HW195444   1.178   1.682  10.028
97890SOL    HW295445   1.319   1.629  10.042
97891SOL     OW95446   7.780  11.637   9.069
97891SOL    HW195447   7.740  11.604   8.988
97891SOL    HW295448   7.759  11.731   9.070
97892SOL     OW95449   1.088   1.996  14.682
97892SOL    HW195450   1.152   1.994  14.610
97892SOL    HW295451   1.049   1.908  14.680
97893SOL     OW95452   4.707  13.834   8.331
97893SOL    HW195453   4.735  13.750   8.368
97893SOL    HW295454   4.782  13.863   8.279
97894SOL     OW95455  10.712   4.778   4.553
97894SOL    HW195456  10.736   4.705   4.610
97894SOL    HW295457  10.773   4.773   4.480
97895SOL     OW95458   2.710   3.708   3.937
97895SOL    HW195459   2.724   3.763   3.860
97895SOL    HW295460   2.763   3.749   4.005
97896SOL     OW95461  10.856  13.311  14.178
97896SOL    HW195462  10.836  13.218  14.173
97896SOL    HW295463  10.879  13.336  14.089
97897SOL     OW95464   5.411   9.524  12.214
97897SOL    HW195465   5.486   9.514  12.154
97897SOL    HW295466   5.420   9.613  12.248
97898SOL     OW95467   6.087   2.982   8.498
97898SOL    HW195468   6.063   3.032   8.576
97898SOL    HW295469   6.044   3.029   8.426
97899SOL     OW95470   2.282   9.898   5.764
97899SOL    HW195471   2.366   9.944   5.765
97899SOL    HW295472   2.216   9.966   5.775
97900SOL     OW95473   8.469   5.969   1.091
97900SOL    HW195474   8.547   5.995   1.042
97900SOL    HW295475   8.398   6.019   1.051
97901SOL     OW95476   7.345  12.441   8.929
97901SOL    HW195477   7.310  12.397   8.852
97901SOL    HW295478   7.268  12.461   8.982
97902SOL     OW95479   1.712   4.474   3.821
97902SOL    HW195480   1.748   4.395   3.861
97902SOL    HW295481   1.750   4.545   3.872
97903SOL     OW95482  12.285   8.588   6.153
97903SOL    HW195483  12.364   8.550   6.190
97903SOL    HW295484  12.299   8.683   6.159
97904SOL     OW95485   0.855   2.772  11.858
97904SOL    HW195486   0.779   2.820  11.826
97904SOL    HW295487   0.869   2.804  11.947
97905SOL     OW95488  13.567   5.205  13.895
97905SOL    HW195489  13.649   5.161  13.873
97905SOL    HW295490  13.517   5.141  13.945
97906SOL     OW95491  14.112  11.764  12.581
97906SOL    HW195492  14.167  11.833  12.542
97906SOL    HW295493  14.038  11.756  12.521
97907SOL     OW95494  14.518  14.178   5.774
97907SOL    HW195495  14.534  14.103   5.717
97907SOL    HW295496  14.598  14.187   5.825
97908SOL     OW95497  11.801   6.361   7.591
97908SOL    HW195498  11.807   6.399   7.679
97908SOL    HW295499  11.791   6.267   7.607
97909SOL     OW95500   9.588   4.726   9.807
97909SOL    HW195501   9.595   4.777   9.727
97909SOL    HW295502   9.517   4.768   9.856
97910SOL     OW95503   0.463  14.616   3.359
97910SOL    HW195504   0.411  14.560   3.301
97910SOL    HW295505   0.416  14.699   3.361
97911SOL     OW95506  13.654  10.009  13.373
97911SOL    HW195507  13.664  10.030  13.466
97911SOL    HW295508  13.642   9.914  13.370
97912SOL     OW95509   7.029  10.690  12.434
97912SOL    HW195510   7.001  10.781  12.434
97912SOL    HW295511   6.949  10.640  12.414
97913SOL     OW95512   0.998   5.963  14.002
97913SOL    HW195513   0.976   6.022  14.074
97913SOL    HW295514   0.932   5.982  13.935
97914SOL     OW95515  10.900  10.468  12.537
97914SOL    HW195516  10.913  10.549  12.586
97914SOL    HW295517  10.902  10.496  12.445
97915SOL     OW95518  13.493   7.034   9.763
97915SOL    HW195519  13.475   7.109   9.706
97915SOL    HW295520  13.518   7.072   9.847
97916SOL     OW95521  13.011  13.003   7.775
97916SOL    HW195522  12.973  13.089   7.790
97916SOL    HW295523  12.936  12.944   7.767
97917SOL     OW95524  14.564   8.713   2.063
97917SOL    HW195525  14.470   8.717   2.080
97917SOL    HW295526  14.571   8.667   1.980
97918SOL     OW95527   5.946  10.193  10.479
97918SOL    HW195528   6.032  10.183  10.518
97918SOL    HW295529   5.899  10.113  10.503
97919SOL     OW95530  11.148   6.100   0.509
97919SOL    HW195531  11.214   6.029   0.511
97919SOL    HW295532  11.120   6.103   0.418
97920SOL     OW95533   1.638  12.250  13.274
97920SOL    HW195534   1.662  12.184  13.210
97920SOL    HW295535   1.687  12.225  13.353
97921SOL     OW95536   8.415  12.902   6.828
97921SOL    HW195537   8.407  12.889   6.923
97921SOL    HW295538   8.326  12.916   6.798
97922SOL     OW95539   6.296   6.259   3.523
97922SOL    HW195540   6.337   6.329   3.574
97922SOL    HW295541   6.349   6.254   3.444
97923SOL     OW95542   1.669   0.340   7.971
97923SOL    HW195543   1.722   0.395   8.029
97923SOL    HW295544   1.641   0.267   8.025
97924SOL     OW95545  13.643   2.819  14.161
97924SOL    HW195546  13.679   2.855  14.079
97924SOL    HW295547  13.639   2.725  14.146
97925SOL     OW95548  10.773   8.117   1.623
97925SOL    HW195549  10.726   8.162   1.553
97925SOL    HW295550  10.720   8.131   1.701
97926SOL     OW95551   9.976   2.960  13.155
97926SOL    HW195552   9.905   2.963  13.220
97926SOL    HW295553   9.967   2.874  13.114
97927SOL     OW95554   4.684   9.683   0.502
97927SOL    HW195555   4.651   9.661   0.589
97927SOL    HW295556   4.702   9.599   0.461
97928SOL     OW95557   2.098   9.669   3.896
97928SOL    HW195558   2.088   9.670   3.801
97928SOL    HW295559   2.062   9.585   3.924
97929SOL     OW95560   0.868  12.388   8.820
97929SOL    HW195561   0.799  12.409   8.757
97929SOL    HW295562   0.911  12.471   8.838
97930SOL     OW95563   6.565   4.738  13.887
97930SOL    HW195564   6.586   4.690  13.967
97930SOL    HW295565   6.485   4.787  13.908
97931SOL     OW95566   8.086  13.475   9.115
97931SOL    HW195567   8.092  13.561   9.073
97931SOL    HW295568   8.176  13.457   9.143
97932SOL     OW95569   5.507   1.676   1.087
97932SOL    HW195570   5.495   1.769   1.072
97932SOL    HW295571   5.465   1.659   1.171
97933SOL     OW95572  11.716   0.944  14.630
97933SOL    HW195573  11.720   0.951  14.534
97933SOL    HW295574  11.799   0.981  14.660
97934SOL     OW95575   3.993   8.709  11.305
97934SOL    HW195576   4.012   8.794  11.347
97934SOL    HW295577   4.041   8.646  11.358
97935SOL     OW95578   7.494   5.200   6.373
97935SOL    HW195579   7.510   5.241   6.458
97935SOL    HW295580   7.424   5.253   6.334
97936SOL     OW95581   7.727  13.506   7.830
97936SOL    HW195582   7.705  13.535   7.742
97936SOL    HW295583   7.645  13.513   7.879
97937SOL     OW95584   9.975  12.358   4.219
97937SOL    HW195585   9.910  12.402   4.163
97937SOL    HW295586  10.039  12.323   4.157
97938SOL     OW95587   0.845   9.906   3.084
97938SOL    HW195588   0.922   9.962   3.073
97938SOL    HW295589   0.771   9.964   3.070
97939SOL     OW95590  14.806  11.360   0.035
97939SOL    HW195591  14.860  11.418   0.090
97939SOL    HW295592  14.806  11.402  14.827
97940SOL     OW95593   2.807  11.049   8.532
97940SOL    HW195594   2.786  11.011   8.617
97940SOL    HW295595   2.839  11.137   8.552
97941SOL     OW95596  11.238   2.822  11.999
97941SOL    HW195597  11.310   2.759  11.999
97941SOL    HW295598  11.203   2.819  12.088
97942SOL     OW95599   2.871   5.982  10.280
97942SOL    HW195600   2.787   5.936  10.281
97942SOL    HW295601   2.892   5.994  10.373
97943SOL     OW95602   9.435  11.376   5.392
97943SOL    HW195603   9.406  11.395   5.482
97943SOL    HW295604   9.530  11.374   5.398
97944SOL     OW95605   2.505   7.823   2.281
97944SOL    HW195606   2.426   7.833   2.334
97944SOL    HW295607   2.548   7.744   2.316
97945SOL     OW95608  10.419  12.423  13.870
97945SOL    HW195609  10.367  12.417  13.790
97945SOL    HW295610  10.445  12.332  13.889
97946SOL     OW95611  12.214  12.817   8.572
97946SOL    HW195612  12.304  12.837   8.600
97946SOL    HW295613  12.178  12.902   8.547
97947SOL     OW95614   1.299  11.089   1.520
97947SOL    HW195615   1.354  11.034   1.577
97947SOL    HW295616   1.341  11.175   1.523
97948SOL     OW95617   5.625  10.513   4.346
97948SOL    HW195618   5.606  10.525   4.439
97948SOL    HW295619   5.609  10.600   4.308
97949SOL     OW95620  14.219   6.058   8.911
97949SOL    HW195621  14.284   6.070   8.841
97949SOL    HW295622  14.135   6.062   8.866
97950SOL     OW95623   5.974  12.490   9.100
97950SOL    HW195624   5.962  12.414   9.157
97950SOL    HW295625   6.045  12.539   9.141
97951SOL     OW95626   5.205   5.730  12.258
97951SOL    HW195627   5.238   5.803  12.205
97951SOL    HW295628   5.269   5.660  12.246
97952SOL     OW95629  11.291   0.472  14.604
97952SOL    HW195630  11.225   0.482  14.536
97952SOL    HW295631  11.252   0.410  14.667
97953SOL     OW95632   5.459   4.549   5.296
97953SOL    HW195633   5.446   4.644   5.296
97953SOL    HW295634   5.373   4.513   5.273
97954SOL     OW95635   4.916   6.979  10.583
97954SOL    HW195636   4.950   7.045  10.522
97954SOL    HW295637   4.939   6.895  10.543
97955SOL     OW95638   3.188  10.757   5.604
97955SOL    HW195639   3.107  10.801   5.629
97955SOL    HW295640   3.213  10.707   5.682
97956SOL     OW95641   0.522  11.519   5.131
97956SOL    HW195642   0.456  11.540   5.197
97956SOL    HW295643   0.596  11.575   5.152
97957SOL     OW95644   8.317   8.256  11.841
97957SOL    HW195645   8.242   8.241  11.782
97957SOL    HW295646   8.347   8.344  11.820
97958SOL     OW95647   0.882   7.815  13.724
97958SOL    HW195648   0.973   7.828  13.700
97958SOL    HW295649   0.874   7.721  13.743
97959SOL     OW95650  12.807   5.277   7.419
97959SOL    HW195651  12.767   5.198   7.383
97959SOL    HW295652  12.768   5.348   7.368
97960SOL     OW95653   8.152   8.680   0.380
97960SOL    HW195654   8.098   8.620   0.432
97960SOL    HW295655   8.144   8.648   0.290
97961SOL     OW95656  14.220   3.960  13.088
97961SOL    HW195657  14.252   3.900  13.021
97961SOL    HW295658  14.207   4.043  13.042
97962SOL     OW95659   9.574  11.241  13.308
97962SOL    HW195660   9.595  11.237  13.401
97962SOL    HW295661   9.584  11.150  13.277
97963SOL     OW95662  13.127   3.307  10.140
97963SOL    HW195663  13.193   3.240  10.157
97963SOL    HW295664  13.164   3.387  10.179
97964SOL     OW95665   8.466  13.094  13.875
97964SOL    HW195666   8.454  13.008  13.836
97964SOL    HW295667   8.435  13.155  13.808
97965SOL     OW95668  11.567   3.256  14.733
97965SOL    HW195669  11.517   3.175  14.719
97965SOL    HW295670  11.657   3.234  14.707
97966SOL     OW95671  10.260  11.654   3.462
97966SOL    HW195672  10.243  11.560   3.451
97966SOL    HW295673  10.196  11.682   3.527
97967SOL     OW95674  12.497  12.853   1.450
97967SOL    HW195675  12.428  12.824   1.392
97967SOL    HW295676  12.573  12.865   1.393
97968SOL     OW95677   3.747   0.680  11.829
97968SOL    HW195678   3.661   0.681  11.788
97968SOL    HW295679   3.736   0.627  11.909
97969SOL     OW95680   3.046   7.832  11.145
97969SOL    HW195681   3.036   7.911  11.197
97969SOL    HW295682   3.130   7.795  11.173
97970SOL     OW95683  10.151   4.471  13.282
97970SOL    HW195684  10.147   4.552  13.334
97970SOL    HW295685  10.082   4.481  13.217
97971SOL     OW95686   4.067   3.083   5.773
97971SOL    HW195687   4.145   3.139   5.776
97971SOL    HW295688   4.020   3.104   5.854
97972SOL     OW95689   6.096  11.431   4.671
97972SOL    HW195690   6.019  11.488   4.680
97972SOL    HW295691   6.061  11.343   4.677
97973SOL     OW95692   7.660   7.474   1.997
97973SOL    HW195693   7.670   7.409   1.928
97973SOL    HW295694   7.616   7.427   2.068
97974SOL     OW95695   2.722  14.489   1.266
97974SOL    HW195696   2.778  14.421   1.304
97974SOL    HW295697   2.718  14.468   1.173
97975SOL     OW95698   0.659   1.592   9.416
97975SOL    HW195699   0.602   1.590   9.493
97975SOL    HW295700   0.716   1.517   9.426
97976SOL     OW95701   0.861  10.480  10.106
97976SOL    HW195702   0.943  10.431  10.094
97976SOL    HW295703   0.841  10.472  10.199
97977SOL     OW95704   2.791   5.179   9.018
97977SOL    HW195705   2.789   5.151   9.110
97977SOL    HW295706   2.883   5.195   9.000
97978SOL     OW95707  13.656   9.991   7.753
97978SOL    HW195708  13.752   9.987   7.759
97978SOL    HW295709  13.635   9.941   7.673
97979SOL     OW95710  14.301   8.826  12.522
97979SOL    HW195711  14.253   8.895  12.475
97979SOL    HW295712  14.269   8.745  12.483
97980SOL     OW95713   3.849   4.928   4.198
97980SOL    HW195714   3.817   5.012   4.167
97980SOL    HW295715   3.823   4.925   4.291
97981SOL     OW95716   6.602   0.611   0.123
97981SOL    HW195717   6.609   0.548   0.195
97981SOL    HW295718   6.514   0.646   0.131
97982SOL     OW95719   5.343  13.565   3.507
97982SOL    HW195720   5.286  13.623   3.457
97982SOL    HW295721   5.426  13.612   3.512
97983SOL     OW95722   7.297  13.362  12.478
97983SOL    HW195723   7.374  13.334  12.429
97983SOL    HW295724   7.326  13.361  12.569
97984SOL     OW95725   8.303   9.412  14.619
97984SOL    HW195726   8.285   9.497  14.578
97984SOL    HW295727   8.236   9.404  14.687
97985SOL     OW95728   5.066   9.439   7.839
97985SOL    HW195729   5.150   9.414   7.801
97985SOL    HW295730   5.077   9.426   7.933
97986SOL     OW95731   0.098   0.402   5.651
97986SOL    HW195732   0.084   0.342   5.724
97986SOL    HW295733   0.044   0.367   5.581
97987SOL     OW95734  10.709   7.555  13.775
97987SOL    HW195735  10.736   7.476  13.728
97987SOL    HW295736  10.789   7.589  13.814
97988SOL     OW95737   3.118   9.342  10.072
97988SOL    HW195738   3.201   9.387  10.059
97988SOL    HW295739   3.106   9.289   9.993
97989SOL     OW95740  12.726  14.296   4.235
97989SOL    HW195741  12.802  14.243   4.260
97989SOL    HW295742  12.737  14.378   4.283
97990SOL     OW95743   6.191   8.280   3.671
97990SOL    HW195744   6.229   8.192   3.676
97990SOL    HW295745   6.233   8.319   3.594
97991SOL     OW95746   3.990  10.128   2.242
97991SOL    HW195747   3.916  10.076   2.210
97991SOL    HW295748   4.065  10.068   2.239
97992SOL     OW95749   9.873   0.534  10.967
97992SOL    HW195750   9.822   0.455  10.950
97992SOL    HW295751   9.837   0.568  11.049
97993SOL     OW95752  12.839  10.838  10.405
97993SOL    HW195753  12.755  10.802  10.375
97993SOL    HW295754  12.846  10.808  10.496
97994SOL     OW95755   4.252  13.347   5.701
97994SOL    HW195756   4.295  13.292   5.766
97994SOL    HW295757   4.208  13.285   5.642
97995SOL     OW95758   3.344   2.378   8.147
97995SOL    HW195759   3.431   2.392   8.110
97995SOL    HW295760   3.354   2.303   8.205
97996SOL     OW95761   6.015  11.496   2.012
97996SOL    HW195762   6.058  11.484   1.927
97996SOL    HW295763   6.084  11.484   2.077
97997SOL     OW95764   9.462   0.161   4.867
97997SOL    HW195765   9.422   0.086   4.913
97997SOL    HW295766   9.545   0.128   4.835
97998SOL     OW95767   8.835   6.822   9.148
97998SOL    HW195768   8.895   6.749   9.158
97998SOL    HW295769   8.811   6.846   9.238
97999SOL     OW95770   4.165   3.731   5.164
97999SOL    HW195771   4.120   3.748   5.247
97999SOL    HW295772   4.180   3.817   5.126
98000SOL     OW95773   8.661   4.475   2.638
98000SOL    HW195774   8.702   4.504   2.719
98000SOL    HW295775   8.689   4.384   2.628
98001SOL     OW95776   4.428   8.099   3.402
98001SOL    HW195777   4.418   8.058   3.316
98001SOL    HW295778   4.511   8.066   3.436
98002SOL     OW95779  11.542   7.132  10.418
98002SOL    HW195780  11.530   7.210  10.472
98002SOL    HW295781  11.636   7.118  10.415
98003SOL     OW95782  12.481  12.712   6.948
98003SOL    HW195783  12.475  12.630   6.998
98003SOL    HW295784  12.488  12.684   6.857
98004SOL     OW95785  10.901   2.439   3.499
98004SOL    HW195786  10.854   2.362   3.466
98004SOL    HW295787  10.840   2.478   3.562
98005SOL     OW95788  11.314  12.507   3.046
98005SOL    HW195789  11.262  12.568   3.098
98005SOL    HW295790  11.378  12.562   3.000
98006SOL     OW95791   0.803  11.351   0.234
98006SOL    HW195792   0.888  11.345   0.190
98006SOL    HW295793   0.825  11.356   0.327
98007SOL     OW95794   2.056   8.694  13.734
98007SOL    HW195795   2.059   8.599  13.733
98007SOL    HW295796   2.092   8.721  13.650
98008SOL     OW95797   1.117  12.374  12.204
98008SOL    HW195798   1.096  12.414  12.289
98008SOL    HW295799   1.041  12.392  12.149
98009SOL     OW95800   5.694  12.386   7.521
98009SOL    HW195801   5.781  12.364   7.552
98009SOL    HW295802   5.656  12.439   7.591
98010SOL     OW95803  10.139   3.302   0.823
98010SOL    HW195804  10.079   3.230   0.803
98010SOL    HW295805  10.189   3.315   0.742
98011SOL     OW95806   3.813  11.709   1.211
98011SOL    HW195807   3.887  11.648   1.205
98011SOL    HW295808   3.736  11.656   1.189
98012SOL     OW95809  10.318  14.807  11.996
98012SOL    HW195810  10.389  14.765  12.044
98012SOL    HW295811  10.340  14.793  11.904
98013SOL     OW95812  13.657   7.362  14.748
98013SOL    HW195813  13.730   7.410  14.786
98013SOL    HW295814  13.697   7.284  14.708
98014SOL     OW95815   6.775  13.292  13.216
98014SOL    HW195816   6.805  13.382  13.214
98014SOL    HW295817   6.679  13.299  13.216
98015SOL     OW95818   3.432  12.616  13.611
98015SOL    HW195819   3.424  12.601  13.517
98015SOL    HW295820   3.493  12.690  13.618
98016SOL     OW95821   6.094   7.922   1.111
98016SOL    HW195822   6.141   7.839   1.104
98016SOL    HW295823   6.095   7.959   1.023
98017SOL     OW95824   7.583  12.766   6.837
98017SOL    HW195825   7.507  12.797   6.787
98017SOL    HW295826   7.631  12.712   6.775
98018SOL     OW95827  12.097  14.632   6.571
98018SOL    HW195828  12.064  14.542   6.568
98018SOL    HW295829  12.071  14.669   6.486
98019SOL     OW95830   7.399   3.431   3.335
98019SOL    HW195831   7.415   3.363   3.271
98019SOL    HW295832   7.439   3.399   3.416
98020SOL     OW95833   4.418  12.829   4.722
98020SOL    HW195834   4.343  12.792   4.676
98020SOL    HW295835   4.494  12.789   4.681
98021SOL     OW95836   6.423   3.039  11.037
98021SOL    HW195837   6.479   3.039  11.115
98021SOL    HW295838   6.405   3.132  11.022
98022SOL     OW95839  10.837   8.283   6.543
98022SOL    HW195840  10.792   8.237   6.614
98022SOL    HW295841  10.772   8.347   6.511
98023SOL     OW95842   4.321  12.392  14.721
98023SOL    HW195843   4.318  12.487  14.707
98023SOL    HW295844   4.414  12.373  14.732
98024SOL     OW95845  11.114  11.905   3.364
98024SOL    HW195846  11.101  11.992   3.326
98024SOL    HW295847  11.124  11.921   3.458
98025SOL     OW95848  11.462   4.749   5.364
98025SOL    HW195849  11.369   4.740   5.343
98025SOL    HW295850  11.487   4.663   5.398
98026SOL     OW95851   1.731  11.630  12.671
98026SOL    HW195852   1.729  11.621  12.576
98026SOL    HW295853   1.642  11.611  12.700
98027SOL     OW95854   3.655   7.037  14.291
98027SOL    HW195855   3.598   7.097  14.338
98027SOL    HW295856   3.617   6.950  14.308
98028SOL     OW95857   3.006   7.574  11.155
98028SOL    HW195858   3.002   7.669  11.149
98028SOL    HW295859   3.054   7.558  11.237
98029SOL     OW95860   0.990  10.167  12.595
98029SOL    HW195861   1.023  10.151  12.683
98029SOL    HW295862   1.043  10.110  12.539
98030SOL     OW95863   5.791   9.478   1.631
98030SOL    HW195864   5.717   9.431   1.593
98030SOL    HW295865   5.764   9.496   1.721
98031SOL     OW95866   7.178  14.493   0.430
98031SOL    HW195867   7.139  14.571   0.391
98031SOL    HW295868   7.112  14.424   0.419
98032SOL     OW95869  12.360   2.776   8.617
98032SOL    HW195870  12.417   2.805   8.545
98032SOL    HW295871  12.273   2.773   8.578
98033SOL     OW95872   3.380  14.561  11.591
98033SOL    HW195873   3.433  14.512  11.654
98033SOL    HW295874   3.318  14.611  11.645
98034SOL     OW95875  10.435   9.727   6.388
98034SOL    HW195876  10.478   9.778   6.457
98034SOL    HW295877  10.436   9.637   6.422
98035SOL     OW95878   0.553   9.374   1.036
98035SOL    HW195879   0.508   9.303   1.082
98035SOL    HW295880   0.490   9.405   0.971
98036SOL     OW95881  12.109   0.518   8.322
98036SOL    HW195882  12.153   0.603   8.317
98036SOL    HW295883  12.180   0.454   8.314
98037SOL     OW95884   8.579   8.855   5.478
98037SOL    HW195885   8.528   8.828   5.401
98037SOL    HW295886   8.519   8.910   5.528
98038SOL     OW95887   0.975  13.444   7.958
98038SOL    HW195888   0.908  13.448   7.890
98038SOL    HW295889   1.056  13.470   7.914
98039SOL     OW95890  11.633  11.384  14.097
98039SOL    HW195891  11.656  11.464  14.146
98039SOL    HW295892  11.716  11.354  14.060
98040SOL     OW95893   3.199  10.033  10.871
98040SOL    HW195894   3.135  10.084  10.820
98040SOL    HW295895   3.146   9.968  10.917
98041SOL     OW95896   9.871  12.624  10.503
98041SOL    HW195897   9.931  12.693  10.473
98041SOL    HW295898   9.924  12.573  10.565
98042SOL     OW95899  11.292   4.621   0.260
98042SOL    HW195900  11.296   4.594   0.351
98042SOL    HW295901  11.211   4.671   0.252
98043SOL     OW95902   9.290   2.778   3.608
98043SOL    HW195903   9.244   2.700   3.578
98043SOL    HW295904   9.341   2.749   3.683
98044SOL     OW95905  10.014   5.036  13.339
98044SOL    HW195906  10.054   5.114  13.379
98044SOL    HW295907  10.051   4.963  13.388
98045SOL     OW95908   7.660  12.216   1.225
98045SOL    HW195909   7.624  12.240   1.140
98045SOL    HW295910   7.692  12.298   1.262
98046SOL     OW95911  13.694   3.350   3.845
98046SOL    HW195912  13.605   3.316   3.854
98046SOL    HW295913  13.694   3.433   3.892
98047SOL     OW95914   6.618   9.805   7.948
98047SOL    HW195915   6.703   9.828   7.910
98047SOL    HW295916   6.640   9.762   8.031
98048SOL     OW95917   5.173   6.284  10.782
98048SOL    HW195918   5.248   6.329  10.821
98048SOL    HW295919   5.202   6.194  10.768
98049SOL     OW95920   7.080   9.349   0.453
98049SOL    HW195921   7.057   9.312   0.538
98049SOL    HW295922   7.173   9.327   0.441
98050SOL     OW95923   2.332   8.581   6.260
98050SOL    HW195924   2.405   8.527   6.289
98050SOL    HW295925   2.362   8.620   6.178
98051SOL     OW95926   8.714  14.493  13.025
98051SOL    HW195927   8.734  14.584  13.048
98051SOL    HW295928   8.626  14.479  13.058
98052SOL     OW95929  10.055   0.536  12.243
98052SOL    HW195930  10.009   0.458  12.276
98052SOL    HW295931  10.123   0.501  12.185
98053SOL     OW95932  13.192  10.569  14.505
98053SOL    HW195933  13.275  10.526  14.526
98053SOL    HW295934  13.126  10.510  14.541
98054SOL     OW95935  12.618   6.554  14.662
98054SOL    HW195936  12.683   6.620  14.686
98054SOL    HW295937  12.601   6.570  14.569
98055SOL     OW95938  11.403  10.727   9.230
98055SOL    HW195939  11.338  10.754   9.164
98055SOL    HW295940  11.351  10.710   9.308
98056SOL     OW95941  13.024   0.516  12.807
98056SOL    HW195942  12.971   0.437  12.816
98056SOL    HW295943  13.030   0.552  12.896
98057SOL     OW95944   0.166   5.676   1.230
98057SOL    HW195945   0.108   5.739   1.273
98057SOL    HW295946   0.233   5.730   1.188
98058SOL     OW95947   1.662   2.596   8.725
98058SOL    HW195948   1.699   2.594   8.637
98058SOL    HW295949   1.723   2.544   8.778
98059SOL     OW95950   8.595  10.740   2.344
98059SOL    HW195951   8.675  10.690   2.332
98059SOL    HW295952   8.625  10.827   2.370
98060SOL     OW95953   8.826  11.482   3.538
98060SOL    HW195954   8.804  11.482   3.445
98060SOL    HW295955   8.741  11.479   3.582
98061SOL     OW95956   1.063  11.722   0.273
98061SOL    HW195957   1.075  11.654   0.339
98061SOL    HW295958   1.028  11.797   0.322
98062SOL     OW95959   0.520   7.801   4.282
98062SOL    HW195960   0.461   7.860   4.328
98062SOL    HW295961   0.465   7.756   4.218
98063SOL     OW95962   8.975  14.226   5.633
98063SOL    HW195963   9.014  14.157   5.579
98063SOL    HW295964   9.035  14.235   5.707
98064SOL     OW95965   3.289   1.868   5.835
98064SOL    HW195966   3.347   1.861   5.911
98064SOL    HW295967   3.348   1.863   5.760
98065SOL     OW95968  12.869  14.798  14.350
98065SOL    HW195969  12.888  14.809  14.444
98065SOL    HW295970  12.848   0.008  14.319
98066SOL     OW95971   6.672  14.119   8.756
98066SOL    HW195972   6.584  14.090   8.734
98066SOL    HW295973   6.680  14.104   8.850
98067SOL     OW95974   9.524   6.009   4.061
98067SOL    HW195975   9.446   5.956   4.082
98067SOL    HW295976   9.492   6.099   4.062
98068SOL     OW95977   8.448   1.234   4.116
98068SOL    HW195978   8.458   1.318   4.162
98068SOL    HW295979   8.532   1.190   4.129
98069SOL     OW95980   8.205   1.270  10.009
98069SOL    HW195981   8.197   1.274   9.914
98069SOL    HW295982   8.116   1.281  10.041
98070SOL     OW95983   8.749  14.633  10.678
98070SOL    HW195984   8.841  14.653  10.695
98070SOL    HW295985   8.739  14.541  10.701
98071SOL     OW95986   8.764  12.098   6.288
98071SOL    HW195987   8.706  12.068   6.358
98071SOL    HW295988   8.790  12.017   6.242
98072SOL     OW95989   7.433   8.326   2.298
98072SOL    HW195990   7.517   8.356   2.334
98072SOL    HW295991   7.367   8.366   2.356
98073SOL     OW95992  13.601   6.726   2.726
98073SOL    HW195993  13.638   6.763   2.806
98073SOL    HW295994  13.531   6.668   2.756
98074SOL     OW95995   4.090  11.537  12.056
98074SOL    HW195996   4.142  11.573  11.984
98074SOL    HW295997   4.148  11.545  12.133
98075SOL     OW95998   8.503  14.472  11.462
98075SOL    HW195999   8.450  14.404  11.422
98075SOL    HW296000   8.514  14.537  11.392
98076SOL     OW96001  13.968   7.849   3.916
98076SOL    HW196002  13.887   7.891   3.945
98076SOL    HW296003  14.008   7.813   3.995
98077SOL     OW96004  14.321   5.592   6.801
98077SOL    HW196005  14.364   5.561   6.881
98077SOL    HW296006  14.246   5.533   6.790
98078SOL     OW96007   6.511   1.422  11.196
98078SOL    HW196008   6.492   1.388  11.109
98078SOL    HW296009   6.601   1.454  11.191
98079SOL     OW96010   4.920  11.800   1.532
98079SOL    HW196011   4.946  11.890   1.550
98079SOL    HW296012   4.851  11.808   1.465
98080SOL     OW96013   6.492   4.815   5.595
98080SOL    HW196014   6.416   4.762   5.619
98080SOL    HW296015   6.472   4.846   5.507
98081SOL     OW96016   1.676   1.314   4.688
98081SOL    HW196017   1.717   1.285   4.607
98081SOL    HW296018   1.637   1.234   4.725
98082SOL     OW96019   1.813  11.193  14.686
98082SOL    HW196020   1.720  11.193  14.663
98082SOL    HW296021   1.858  11.184  14.603
98083SOL     OW96022   4.274  12.827   6.529
98083SOL    HW196023   4.321  12.891   6.475
98083SOL    HW296024   4.314  12.743   6.507
98084SOL     OW96025  12.317   2.520   5.268
98084SOL    HW196026  12.400   2.495   5.226
98084SOL    HW296027  12.275   2.436   5.289
98085SOL     OW96028   5.580  10.698   5.348
98085SOL    HW196029   5.524  10.637   5.396
98085SOL    HW296030   5.633  10.643   5.291
98086SOL     OW96031   5.107   7.030  14.587
98086SOL    HW196032   5.031   7.029  14.645
98086SOL    HW296033   5.170   6.970  14.629
98087SOL     OW96034   2.338   7.666   6.424
98087SOL    HW196035   2.260   7.639   6.375
98087SOL    HW296036   2.333   7.762   6.426
98088SOL     OW96037   2.755  14.159  14.121
98088SOL    HW196038   2.716  14.169  14.208
98088SOL    HW296039   2.757  14.064  14.107
98089SOL     OW96040   4.329   1.617   3.294
98089SOL    HW196041   4.302   1.528   3.317
98089SOL    HW296042   4.355   1.656   3.377
98090SOL     OW96043   2.430  12.719   5.137
98090SOL    HW196044   2.487  12.643   5.151
98090SOL    HW296045   2.433  12.766   5.221
98091SOL     OW96046   1.193   9.122  14.867
98091SOL    HW196047   1.193   9.076   0.074
98091SOL    HW296048   1.101   9.130  14.844
98092SOL     OW96049   1.226  10.286  11.604
98092SOL    HW196050   1.199  10.195  11.601
98092SOL    HW296051   1.183  10.326  11.528
98093SOL     OW96052   3.616  11.187  12.361
98093SOL    HW196053   3.633  11.240  12.439
98093SOL    HW296054   3.521  11.171  12.363
98094SOL     OW96055   8.953  13.865  11.860
98094SOL    HW196056   8.890  13.928  11.894
98094SOL    HW296057   9.036  13.913  11.857
98095SOL     OW96058   2.180   7.705  10.280
98095SOL    HW196059   2.162   7.743  10.366
98095SOL    HW296060   2.147   7.769  10.218
98096SOL     OW96061   4.699   7.997   8.229
98096SOL    HW196062   4.711   8.045   8.311
98096SOL    HW296063   4.788   7.974   8.203
98097SOL     OW96064  14.643   2.360  13.723
98097SOL    HW196065  14.688   2.276  13.725
98097SOL    HW296066  14.710   2.422  13.695
98098SOL     OW96067   6.719   3.494   0.502
98098SOL    HW196068   6.790   3.471   0.562
98098SOL    HW296069   6.668   3.559   0.550
98099SOL     OW96070  10.299   4.041   4.438
98099SOL    HW196071  10.284   4.074   4.350
98099SOL    HW296072  10.318   4.118   4.491
98100SOL     OW96073   8.468   3.535   4.121
98100SOL    HW196074   8.537   3.580   4.073
98100SOL    HW296075   8.512   3.491   4.194
98101SOL     OW96076   7.690   4.897   7.062
98101SOL    HW196077   7.702   4.820   7.117
98101SOL    HW296078   7.671   4.862   6.975
98102SOL     OW96079  14.058   7.163   4.935
98102SOL    HW196080  14.153   7.166   4.939
98102SOL    HW296081  14.034   7.081   4.979
98103SOL     OW96082   5.408  14.425   1.125
98103SOL    HW196083   5.348  14.454   1.056
98103SOL    HW296084   5.404  14.329   1.122
98104SOL     OW96085   2.844  14.734  12.085
98104SOL    HW196086   2.778  14.797  12.114
98104SOL    HW296087   2.862  14.681  12.163
98105SOL     OW96088  11.465   6.150   7.524
98105SOL    HW196089  11.416   6.084   7.572
98105SOL    HW296090  11.507   6.203   7.593
98106SOL     OW96091   9.312   4.365   2.370
98106SOL    HW196092   9.367   4.295   2.406
98106SOL    HW296093   9.283   4.331   2.285
98107SOL     OW96094  13.792   9.655   5.859
98107SOL    HW196095  13.790   9.700   5.774
98107SOL    HW296096  13.707   9.675   5.898
98108SOL     OW96097   9.068   3.729  10.341
98108SOL    HW196098   9.072   3.686  10.426
98108SOL    HW296099   8.974   3.733  10.320
98109SOL     OW96100  11.652  10.945   2.799
98109SOL    HW196101  11.733  10.959   2.848
98109SOL    HW296102  11.650  11.017   2.736
98110SOL     OW96103   9.564  12.447  11.256
98110SOL    HW196104   9.646  12.483  11.222
98110SOL    HW296105   9.523  12.404  11.181
98111SOL     OW96106   1.693   8.162   2.590
98111SOL    HW196107   1.716   8.157   2.682
98111SOL    HW296108   1.733   8.085   2.551
98112SOL     OW96109  12.596   4.702   1.724
98112SOL    HW196110  12.621   4.770   1.786
98112SOL    HW296111  12.649   4.719   1.646
98113SOL     OW96112   8.407   4.497   5.420
98113SOL    HW196113   8.473   4.456   5.476
98113SOL    HW296114   8.384   4.579   5.466
98114SOL     OW96115   7.367  12.576  10.330
98114SOL    HW196116   7.431  12.620  10.274
98114SOL    HW296117   7.381  12.483  10.314
98115SOL     OW96118  11.307  10.771   6.006
98115SOL    HW196119  11.300  10.818   6.089
98115SOL    HW296120  11.267  10.685   6.023
98116SOL     OW96121   4.045   3.705   0.349
98116SOL    HW196122   4.122   3.740   0.304
98116SOL    HW296123   4.078   3.677   0.435
98117SOL     OW96124   0.666   0.583   4.491
98117SOL    HW196125   0.631   0.532   4.418
98117SOL    HW296126   0.604   0.654   4.504
98118SOL     OW96127   3.998   4.422   8.281
98118SOL    HW196128   3.953   4.426   8.366
98118SOL    HW296129   4.033   4.333   8.278
98119SOL     OW96130   9.551   2.851  13.848
98119SOL    HW196131   9.542   2.946  13.852
98119SOL    HW296132   9.497   2.824  13.774
98120SOL     OW96133   1.034  14.648   9.367
98120SOL    HW196134   0.976  14.714   9.407
98120SOL    HW296135   1.120  14.689   9.367
98121SOL     OW96136   8.683  11.954   2.804
98121SOL    HW196137   8.679  11.876   2.747
98121SOL    HW296138   8.637  11.927   2.884
98122SOL     OW96139  13.702  10.262  12.438
98122SOL    HW196140  13.787  10.218  12.437
98122SOL    HW296141  13.660  10.233  12.519
98123SOL     OW96142   7.846   6.040   2.038
98123SOL    HW196143   7.761   6.033   2.080
98123SOL    HW296144   7.892   5.960   2.062
98124SOL     OW96145  14.139   5.053  13.851
98124SOL    HW196146  14.157   5.146  13.866
98124SOL    HW296147  14.105   5.050  13.761
98125SOL     OW96148   0.673   6.087   5.539
98125SOL    HW196149   0.652   6.037   5.618
98125SOL    HW296150   0.716   6.166   5.573
98126SOL     OW96151   1.553  13.327  10.536
98126SOL    HW196152   1.531  13.328  10.629
98126SOL    HW296153   1.602  13.246  10.524
98127SOL     OW96154  11.138  12.767   4.910
98127SOL    HW196155  11.176  12.695   4.960
98127SOL    HW296156  11.160  12.748   4.819
98128SOL     OW96157   2.588  14.631   4.738
98128SOL    HW196158   2.663  14.597   4.786
98128SOL    HW296159   2.591  14.726   4.751
98129SOL     OW96160  13.257   0.971   9.730
98129SOL    HW196161  13.228   1.062   9.730
98129SOL    HW296162  13.217   0.933   9.808
98130SOL     OW96163   1.593   7.642   8.697
98130SOL    HW196164   1.605   7.711   8.763
98130SOL    HW296165   1.524   7.675   8.640
98131SOL     OW96166   7.768  12.138  11.995
98131SOL    HW196167   7.772  12.212  12.056
98131SOL    HW296168   7.704  12.165  11.929
98132SOL     OW96169   6.768  12.066   0.115
98132SOL    HW196170   6.723  12.149   0.103
98132SOL    HW296171   6.731  12.008   0.048
98133SOL     OW96172   5.549   4.177  14.021
98133SOL    HW196173   5.489   4.219  14.082
98133SOL    HW296174   5.493   4.138  13.955
98134SOL     OW96175   3.136   4.093   5.092
98134SOL    HW196176   3.103   4.124   5.007
98134SOL    HW296177   3.117   4.164   5.153
98135SOL     OW96178  12.011   5.813   4.304
98135SOL    HW196179  12.100   5.782   4.291
98135SOL    HW296180  12.011   5.854   4.390
98136SOL     OW96181  11.472   2.146   4.109
98136SOL    HW196182  11.376   2.149   4.116
98136SOL    HW296183  11.496   2.066   4.155
98137SOL     OW96184   4.613   9.880  12.505
98137SOL    HW196185   4.676   9.943  12.539
98137SOL    HW296186   4.654   9.795  12.519
98138SOL     OW96187   4.450   2.785   5.162
98138SOL    HW196188   4.373   2.779   5.218
98138SOL    HW296189   4.420   2.751   5.077
98139SOL     OW96190   1.544  11.287   3.690
98139SOL    HW196191   1.522  11.196   3.671
98139SOL    HW296192   1.632  11.298   3.655
98140SOL     OW96193   6.357   1.098   8.292
98140SOL    HW196194   6.298   1.024   8.307
98140SOL    HW296195   6.421   1.092   8.363
98141SOL     OW96196   8.843  14.781   3.868
98141SOL    HW196197   8.930  14.741   3.867
98141SOL    HW296198   8.856  14.866   3.826
98142SOL     OW96199   2.001  13.436  14.202
98142SOL    HW196200   1.981  13.363  14.260
98142SOL    HW296201   2.055  13.495  14.255
98143SOL     OW96202   5.496   5.474  11.087
98143SOL    HW196203   5.563   5.407  11.102
98143SOL    HW296204   5.535   5.532  11.022
98144SOL     OW96205   3.471   9.881   4.760
98144SOL    HW196206   3.433   9.800   4.724
98144SOL    HW296207   3.539   9.851   4.820
98145SOL     OW96208  12.030  13.381   3.409
98145SOL    HW196209  11.952  13.424   3.443
98145SOL    HW296210  12.054  13.432   3.332
98146SOL     OW96211   3.883  12.151  11.993
98146SOL    HW196212   3.923  12.227  12.035
98146SOL    HW296213   3.816  12.122  12.055
98147SOL     OW96214   0.201   2.334   4.594
98147SOL    HW196215   0.240   2.257   4.552
98147SOL    HW296216   0.149   2.375   4.524
98148SOL     OW96217   0.881   8.131   4.016
98148SOL    HW196218   0.808   8.163   4.069
98148SOL    HW296219   0.840   8.097   3.937
98149SOL     OW96220   5.327   2.030   2.526
98149SOL    HW196221   5.235   2.056   2.534
98149SOL    HW296222   5.351   1.998   2.613
98150SOL     OW96223   2.983   7.716  13.798
98150SOL    HW196224   2.890   7.725  13.815
98150SOL    HW296225   2.988   7.668  13.715
98151SOL     OW96226  11.662  12.006   9.278
98151SOL    HW196227  11.659  11.911   9.270
98151SOL    HW296228  11.746  12.024   9.321
98152SOL     OW96229   1.569  13.541  10.345
98152SOL    HW196230   1.485  13.531  10.300
98152SOL    HW296231   1.586  13.454  10.382
98153SOL     OW96232  11.882   4.269   3.111
98153SOL    HW196233  11.850   4.256   3.022
98153SOL    HW296234  11.829   4.209   3.164
98154SOL     OW96235  14.154  14.487   5.197
98154SOL    HW196236  14.122  14.444   5.118
98154SOL    HW296237  14.076  14.499   5.251
98155SOL     OW96238  14.487  14.626   4.792
98155SOL    HW196239  14.536  14.703   4.763
98155SOL    HW296240  14.439  14.598   4.714
98156SOL     OW96241   5.108  13.396   2.476
98156SOL    HW196242   5.146  13.482   2.457
98156SOL    HW296243   5.175  13.350   2.526
98157SOL     OW96244   3.290  11.727   9.763
98157SOL    HW196245   3.366  11.739   9.706
98157SOL    HW296246   3.233  11.801   9.743
98158SOL     OW96247  11.200  13.655  13.742
98158SOL    HW196248  11.129  13.611  13.694
98158SOL    HW296249  11.261  13.683  13.674
98159SOL     OW96250  14.590   6.756  12.445
98159SOL    HW196251  14.615   6.780  12.534
98159SOL    HW296252  14.515   6.812  12.425
98160SOL     OW96253   0.888   1.509   8.379
98160SOL    HW196254   0.941   1.584   8.405
98160SOL    HW296255   0.847   1.536   8.297
98161SOL     OW96256   8.723   1.813   2.243
98161SOL    HW196257   8.660   1.753   2.283
98161SOL    HW296258   8.803   1.802   2.294
98162SOL     OW96259  13.753  12.158  14.752
98162SOL    HW196260  13.821  12.213  14.714
98162SOL    HW296261  13.680  12.217  14.770
98163SOL     OW96262   1.622   6.998  12.900
98163SOL    HW196263   1.540   7.044  12.922
98163SOL    HW296264   1.610   6.972  12.808
98164SOL     OW96265  13.094   3.839   5.631
98164SOL    HW196266  13.149   3.772   5.673
98164SOL    HW296267  13.145   3.920   5.639
98165SOL     OW96268  10.413  11.975   1.809
98165SOL    HW196269  10.401  11.926   1.890
98165SOL    HW296270  10.396  12.066   1.833
98166SOL     OW96271   3.678   6.979   4.043
98166SOL    HW196272   3.648   7.035   4.115
98166SOL    HW296273   3.640   6.894   4.063
98167SOL     OW96274   3.143   3.788  14.213
98167SOL    HW196275   3.150   3.739  14.131
98167SOL    HW296276   3.049   3.785  14.235
98168SOL     OW96277   2.189   3.606  13.406
98168SOL    HW196278   2.221   3.520  13.432
98168SOL    HW296279   2.113   3.621  13.462
98169SOL     OW96280   2.683   0.930   6.245
98169SOL    HW196281   2.642   0.854   6.203
98169SOL    HW296282   2.634   1.005   6.212
98170SOL     OW96283   7.713   1.523   4.975
98170SOL    HW196284   7.632   1.476   4.953
98170SOL    HW296285   7.710   1.531   5.071
98171SOL     OW96286   3.519  11.227   1.352
98171SOL    HW196287   3.490  11.162   1.287
98171SOL    HW296288   3.455  11.298   1.344
98172SOL     OW96289  11.008   2.954  11.713
98172SOL    HW196290  10.988   2.879  11.769
98172SOL    HW296291  11.043   2.915  11.632
98173SOL     OW96292   7.989   2.790  10.320
98173SOL    HW196293   8.012   2.718  10.261
98173SOL    HW296294   7.894   2.786  10.326
98174SOL     OW96295   0.885  11.884   1.921
98174SOL    HW196296   0.912  11.820   1.987
98174SOL    HW296297   0.809  11.845   1.879
98175SOL     OW96298  11.183  12.030   7.035
98175SOL    HW196299  11.159  11.979   7.112
98175SOL    HW296300  11.114  12.011   6.971
98176SOL     OW96301   8.860   7.586  11.434
98176SOL    HW196302   8.905   7.621  11.357
98176SOL    HW296303   8.929   7.545  11.485
98177SOL     OW96304   2.815   6.868  12.408
98177SOL    HW196305   2.861   6.951  12.393
98177SOL    HW296306   2.831   6.849  12.500
98178SOL     OW96307   2.958   7.941   8.116
98178SOL    HW196308   2.955   7.878   8.187
98178SOL    HW296309   2.956   7.889   8.036
98179SOL     OW96310   6.148   2.842   9.011
98179SOL    HW196311   6.087   2.900   8.964
98179SOL    HW296312   6.193   2.794   8.941
98180SOL     OW96313   4.856   3.629   3.142
98180SOL    HW196314   4.939   3.676   3.148
98180SOL    HW296315   4.792   3.698   3.125
98181SOL     OW96316   0.070   2.023   7.046
98181SOL    HW196317   0.154   2.030   7.001
98181SOL    HW296318   0.087   1.963   7.119
98182SOL     OW96319  10.929  10.978  12.307
98182SOL    HW196320  10.936  11.024  12.223
98182SOL    HW296321  10.968  10.892  12.291
98183SOL     OW96322   2.406  10.777   7.787
98183SOL    HW196323   2.335  10.818   7.736
98183SOL    HW296324   2.406  10.824   7.870
98184SOL     OW96325   1.587   7.108   0.928
98184SOL    HW196326   1.607   7.166   0.854
98184SOL    HW296327   1.541   7.164   0.990
98185SOL     OW96328  13.173   7.057   5.375
98185SOL    HW196329  13.109   7.070   5.446
98185SOL    HW296330  13.157   6.968   5.345
98186SOL     OW96331  12.920   0.797  11.088
98186SOL    HW196332  12.918   0.828  11.178
98186SOL    HW296333  12.950   0.706  11.094
98187SOL     OW96334  11.601   4.354   4.631
98187SOL    HW196335  11.562   4.330   4.715
98187SOL    HW296336  11.695   4.347   4.646
98188SOL     OW96337  10.367   7.021  13.631
98188SOL    HW196338  10.442   7.036  13.689
98188SOL    HW296339  10.363   7.100  13.577
98189SOL     OW96340   0.273   9.472   8.670
98189SOL    HW196341   0.185   9.446   8.697
98189SOL    HW296342   0.273   9.568   8.676
98190SOL     OW96343  11.954   6.995   0.178
98190SOL    HW196344  11.864   7.025   0.167
98190SOL    HW296345  11.960   6.975   0.272
98191SOL     OW96346   9.351  12.546   4.048
98191SOL    HW196347   9.379  12.520   3.960
98191SOL    HW296348   9.313  12.633   4.036
98192SOL     OW96349   6.653   3.491   8.966
98192SOL    HW196350   6.633   3.536   9.048
98192SOL    HW296351   6.615   3.546   8.898
98193SOL     OW96352   0.710   6.365  11.779
98193SOL    HW196353   0.631   6.413  11.754
98193SOL    HW296354   0.757   6.425  11.837
98194SOL     OW96355   9.854   8.971   2.031
98194SOL    HW196356   9.894   9.022   1.960
98194SOL    HW296357   9.760   8.989   2.022
98195SOL     OW96358   1.289   2.235  11.875
98195SOL    HW196359   1.271   2.327  11.854
98195SOL    HW296360   1.368   2.215  11.825
98196SOL     OW96361  10.691  13.721   7.620
98196SOL    HW196362  10.680  13.804   7.573
98196SOL    HW296363  10.664  13.654   7.557
98197SOL     OW96364  11.199   0.233   7.549
98197SOL    HW196365  11.270   0.222   7.613
98197SOL    HW296366  11.134   0.287   7.595
98198SOL     OW96367   8.575   4.649  14.059
98198SOL    HW196368   8.551   4.594  14.133
98198SOL    HW296369   8.579   4.588  13.985
98199SOL     OW96370   1.366  13.057  13.983
98199SOL    HW196371   1.445  13.027  14.028
98199SOL    HW296372   1.385  13.044  13.890
98200SOL     OW96373   0.440   6.068   8.977
98200SOL    HW196374   0.437   6.115   9.061
98200SOL    HW296375   0.462   6.136   8.913
98201SOL     OW96376   7.424   8.182  12.518
98201SOL    HW196377   7.479   8.105  12.505
98201SOL    HW296378   7.485   8.251  12.542
98202SOL     OW96379   9.924   4.646   1.031
98202SOL    HW196380   9.919   4.626   0.937
98202SOL    HW296381  10.016   4.669   1.045
98203SOL     OW96382   0.100  13.580   2.748
98203SOL    HW196383   0.141  13.529   2.678
98203SOL    HW296384   0.143  13.551   2.828
98204SOL     OW96385   1.922  12.535   8.617
98204SOL    HW196386   1.956  12.486   8.543
98204SOL    HW296387   1.900  12.621   8.582
98205SOL     OW96388   0.233   0.563   5.910
98205SOL    HW196389   0.199   0.596   5.827
98205SOL    HW296390   0.327   0.556   5.897
98206SOL     OW96391   8.626  12.025   7.523
98206SOL    HW196392   8.666  11.945   7.491
98206SOL    HW296393   8.532  12.009   7.519
98207SOL     OW96394  14.725   4.015  12.438
98207SOL    HW196395  14.734   4.111  12.440
98207SOL    HW296396  14.794   3.983  12.496
98208SOL     OW96397   6.927   6.291   5.698
98208SOL    HW196398   6.915   6.340   5.779
98208SOL    HW296399   6.876   6.210   5.711
98209SOL     OW96400  10.266   9.292   8.727
98209SOL    HW196401  10.235   9.233   8.795
98209SOL    HW296402  10.186   9.330   8.690
98210SOL     OW96403   7.197   0.095   7.644
98210SOL    HW196404   7.169   0.004   7.633
98210SOL    HW296405   7.209   0.127   7.555
98211SOL     OW96406  13.329   2.677  10.075
98211SOL    HW196407  13.412   2.667  10.122
98211SOL    HW296408  13.295   2.588  10.066
98212SOL     OW96409   8.142  10.366   7.133
98212SOL    HW196410   8.172  10.353   7.043
98212SOL    HW296411   8.149  10.461   7.147
98213SOL     OW96412   8.987   0.015  11.480
98213SOL    HW196413   9.079  14.863  11.481
98213SOL    HW296414   8.936  14.812  11.472
98214SOL     OW96415   0.408   3.213   6.112
98214SOL    HW196416   0.486   3.222   6.058
98214SOL    HW296417   0.440   3.179   6.195
98215SOL     OW96418   0.025  13.953  11.892
98215SOL    HW196419  14.837  13.929  11.825
98215SOL    HW296420   0.108  13.950  11.846
98216SOL     OW96421  10.175   9.158   8.950
98216SOL    HW196422  10.234   9.189   9.019
98216SOL    HW296423  10.096   9.129   8.996
98217SOL     OW96424  10.096  14.085  10.710
98217SOL    HW196425  10.059  13.996  10.705
98217SOL    HW296426  10.065  14.128  10.631
98218SOL     OW96427  11.796   6.292  13.768
98218SOL    HW196428  11.869   6.268  13.712
98218SOL    HW296429  11.807   6.239  13.847
98219SOL     OW96430  10.071   8.059   9.206
98219SOL    HW196431   9.981   8.085   9.225
98219SOL    HW296432  10.072   8.041   9.112
98220SOL     OW96433  11.023   3.731   9.552
98220SOL    HW196434  11.011   3.702   9.461
98220SOL    HW296435  11.111   3.702   9.575
98221SOL     OW96436  14.353   8.580   2.975
98221SOL    HW196437  14.338   8.491   2.943
98221SOL    HW296438  14.446   8.597   2.957
98222SOL     OW96439   0.854  14.123   2.575
98222SOL    HW196440   0.822  14.157   2.659
98222SOL    HW296441   0.949  14.126   2.583
98223SOL     OW96442   1.864   1.155  10.816
98223SOL    HW196443   1.923   1.224  10.845
98223SOL    HW296444   1.874   1.086  10.882
98224SOL     OW96445   0.655   5.075  12.708
98224SOL    HW196446   0.726   5.125  12.749
98224SOL    HW296447   0.586   5.072  12.774
98225SOL     OW96448   2.237   9.451   4.529
98225SOL    HW196449   2.225   9.466   4.623
98225SOL    HW296450   2.272   9.533   4.496
98226SOL     OW96451   1.031  10.475   1.436
98226SOL    HW196452   1.017  10.440   1.348
98226SOL    HW296453   1.121  10.510   1.434
98227SOL     OW96454   5.110   5.244   2.407
98227SOL    HW196455   5.169   5.206   2.472
98227SOL    HW296456   5.138   5.207   2.323
98228SOL     OW96457   0.953  11.424  11.495
98228SOL    HW196458   0.926  11.334  11.474
98228SOL    HW296459   0.922  11.439  11.584
98229SOL     OW96460  10.348  12.168  11.590
98229SOL    HW196461  10.378  12.179  11.680
98229SOL    HW296462  10.305  12.251  11.568
98230SOL     OW96463   2.086   9.031   7.918
98230SOL    HW196464   2.118   9.101   7.861
98230SOL    HW296465   2.105   9.062   8.006
98231SOL     OW96466  11.629   0.136   2.149
98231SOL    HW196467  11.584   0.215   2.118
98231SOL    HW296468  11.566   0.096   2.210
98232SOL     OW96469  14.841  12.277   2.772
98232SOL    HW196470  14.763  12.225   2.793
98232SOL    HW296471  14.836  12.352   2.831
98233SOL     OW96472   1.580   9.897  13.055
98233SOL    HW196473   1.630   9.955  12.997
98233SOL    HW296474   1.603   9.926  13.143
98234SOL     OW96475   1.587   4.429   1.985
98234SOL    HW196476   1.562   4.390   2.069
98234SOL    HW296477   1.625   4.357   1.935
98235SOL     OW96478   1.503   1.882   3.934
98235SOL    HW196479   1.540   1.817   3.993
98235SOL    HW296480   1.560   1.881   3.858
98236SOL     OW96481  10.456   3.779  11.113
98236SOL    HW196482  10.424   3.691  11.092
98236SOL    HW296483  10.534   3.790  11.059
98237SOL     OW96484   8.659  12.721   0.814
98237SOL    HW196485   8.580  12.686   0.772
98237SOL    HW296486   8.656  12.815   0.794
98238SOL     OW96487   0.425  13.663   8.665
98238SOL    HW196488   0.457  13.580   8.699
98238SOL    HW296489   0.367  13.697   8.734
98239SOL     OW96490  12.311   1.439   3.384
98239SOL    HW196491  12.311   1.470   3.475
98239SOL    HW296492  12.350   1.510   3.334
98240SOL     OW96493   3.731  10.740   7.278
98240SOL    HW196494   3.802  10.708   7.335
98240SOL    HW296495   3.767  10.732   7.189
98241SOL     OW96496   1.485   2.739   4.846
98241SOL    HW196497   1.467   2.748   4.939
98241SOL    HW296498   1.572   2.777   4.835
98242SOL     OW96499   9.165   6.344  12.128
98242SOL    HW196500   9.181   6.400  12.051
98242SOL    HW296501   9.240   6.361  12.185
98243SOL     OW96502   7.524   0.839   9.518
98243SOL    HW196503   7.615   0.824   9.492
98243SOL    HW296504   7.499   0.759   9.564
98244SOL     OW96505   6.277   3.123   4.713
98244SOL    HW196506   6.326   3.053   4.669
98244SOL    HW296507   6.339   3.162   4.773
98245SOL     OW96508  13.855  13.315   3.333
98245SOL    HW196509  13.806  13.388   3.370
98245SOL    HW296510  13.928  13.301   3.394
98246SOL     OW96511   8.428  14.286   7.743
98246SOL    HW196512   8.339  14.303   7.772
98246SOL    HW296513   8.442  14.346   7.670
98247SOL     OW96514   4.522  13.890   7.449
98247SOL    HW196515   4.499  13.819   7.508
98247SOL    HW296516   4.617  13.897   7.455
98248SOL     OW96517   8.244   4.568   0.601
98248SOL    HW196518   8.335   4.593   0.590
98248SOL    HW296519   8.247   4.483   0.645
98249SOL     OW96520   8.682   9.612   9.774
98249SOL    HW196521   8.725   9.610   9.688
98249SOL    HW296522   8.714   9.692   9.815
98250SOL     OW96523  14.818  11.794   5.667
98250SOL    HW196524  14.854  11.750   5.590
98250SOL    HW296525  14.723  11.791   5.653
98251SOL     OW96526   4.147  13.899  13.852
98251SOL    HW196527   4.117  13.986  13.825
98251SOL    HW296528   4.203  13.870  13.780
98252SOL     OW96529   9.537  10.260  10.226
98252SOL    HW196530   9.504  10.345  10.200
98252SOL    HW296531   9.571  10.273  10.315
98253SOL     OW96532  14.862   3.444   4.174
98253SOL    HW196533   0.016   3.463   4.262
98253SOL    HW296534  14.790   3.383   4.186
98254SOL     OW96535   2.040  13.256   9.127
98254SOL    HW196536   1.950  13.274   9.155
98254SOL    HW296537   2.076  13.200   9.196
98255SOL     OW96538   6.175  10.128   1.998
98255SOL    HW196539   6.161  10.040   1.965
98255SOL    HW296540   6.267  10.147   1.977
98256SOL     OW96541  10.739  11.657   6.932
98256SOL    HW196542  10.710  11.638   6.843
98256SOL    HW296543  10.755  11.571   6.971
98257SOL     OW96544   0.240  11.463   6.600
98257SOL    HW196545   0.176  11.472   6.670
98257SOL    HW296546   0.203  11.513   6.527
98258SOL     OW96547  14.363   5.878   6.846
98258SOL    HW196548  14.333   5.796   6.807
98258SOL    HW296549  14.282   5.922   6.872
98259SOL     OW96550   9.356   5.206  13.301
98259SOL    HW196551   9.395   5.272  13.244
98259SOL    HW296552   9.358   5.125  13.251
98260SOL     OW96553   0.732  13.265   3.662
98260SOL    HW196554   0.698  13.195   3.718
98260SOL    HW296555   0.780  13.322   3.721
98261SOL     OW96556  14.465  12.290   6.716
98261SOL    HW196557  14.430  12.239   6.644
98261SOL    HW296558  14.456  12.381   6.688
98262SOL     OW96559   7.534  10.135   3.847
98262SOL    HW196560   7.480  10.200   3.804
98262SOL    HW296561   7.623  10.153   3.816
98263SOL     OW96562   5.434   4.189  10.347
98263SOL    HW196563   5.527   4.193  10.325
98263SOL    HW296564   5.405   4.104  10.312
98264SOL     OW96565  11.537  13.280  11.464
98264SOL    HW196566  11.618  13.229  11.471
98264SOL    HW296567  11.566  13.367  11.437
98265SOL     OW96568   1.997  12.500  10.855
98265SOL    HW196569   1.924  12.459  10.808
98265SOL    HW296570   2.070  12.493  10.794
98266SOL     OW96571   6.420  11.106   9.244
98266SOL    HW196572   6.507  11.069   9.261
98266SOL    HW296573   6.429  11.150   9.159
98267SOL     OW96574   6.208  13.063   6.044
98267SOL    HW196575   6.266  13.065   5.968
98267SOL    HW296576   6.240  12.990   6.097
98268SOL     OW96577  11.507   2.840  14.413
98268SOL    HW196578  11.505   2.935  14.411
98268SOL    HW296579  11.520   2.818  14.505
98269SOL     OW96580   3.874   0.770   4.227
98269SOL    HW196581   3.833   0.806   4.148
98269SOL    HW296582   3.888   0.846   4.284
98270SOL     OW96583   5.246   4.704   8.358
98270SOL    HW196584   5.235   4.772   8.291
98270SOL    HW296585   5.277   4.628   8.310
98271SOL     OW96586   9.197   4.816  14.133
98271SOL    HW196587   9.141   4.830  14.057
98271SOL    HW296588   9.168   4.883  14.196
98272SOL     OW96589   6.578   0.439   7.234
98272SOL    HW196590   6.508   0.390   7.191
98272SOL    HW296591   6.579   0.524   7.190
98273SOL     OW96592   4.290  12.568   2.927
98273SOL    HW196593   4.273  12.503   2.859
98273SOL    HW296594   4.268  12.524   3.009
98274SOL     OW96595   2.508   6.846   4.702
98274SOL    HW196596   2.467   6.912   4.646
98274SOL    HW296597   2.602   6.862   4.695
98275SOL     OW96598   7.795   7.063   0.492
98275SOL    HW196599   7.837   7.013   0.563
98275SOL    HW296600   7.719   7.103   0.533
98276SOL     OW96601  11.917  14.284   7.352
98276SOL    HW196602  12.009  14.306   7.337
98276SOL    HW296603  11.918  14.189   7.368
98277SOL     OW96604   7.437   8.634   6.378
98277SOL    HW196605   7.419   8.542   6.360
98277SOL    HW296606   7.499   8.661   6.310
98278SOL     OW96607   9.492  14.506   5.641
98278SOL    HW196608   9.552  14.537   5.573
98278SOL    HW296609   9.506  14.565   5.715
98279SOL     OW96610   1.677  13.811   4.722
98279SOL    HW196611   1.582  13.810   4.712
98279SOL    HW296612   1.699  13.723   4.753
98280SOL     OW96613   6.509  12.703  10.291
98280SOL    HW196614   6.452  12.752  10.231
98280SOL    HW296615   6.452  12.679  10.364
98281SOL     OW96616  13.665   6.306  10.982
98281SOL    HW196617  13.692   6.378  11.040
98281SOL    HW296618  13.717   6.231  11.012
98282SOL     OW96619   7.008   8.235  13.478
98282SOL    HW196620   6.975   8.230  13.568
98282SOL    HW296621   7.013   8.144  13.449
98283SOL     OW96622   1.102   6.483   7.588
98283SOL    HW196623   1.110   6.430   7.668
98283SOL    HW296624   1.192   6.489   7.556
98284SOL     OW96625   3.747   8.109  13.909
98284SOL    HW196626   3.788   8.194  13.918
98284SOL    HW296627   3.758   8.086  13.817
98285SOL     OW96628   4.301  14.746   3.391
98285SOL    HW196629   4.212  14.780   3.377
98285SOL    HW296630   4.359  14.812   3.353
98286SOL     OW96631   8.537  10.180   3.013
98286SOL    HW196632   8.552  10.113   3.080
98286SOL    HW296633   8.533  10.262   3.061
98287SOL     OW96634   5.231   0.642   4.037
98287SOL    HW196635   5.303   0.606   3.985
98287SOL    HW296636   5.229   0.587   4.116
98288SOL     OW96637  12.989  11.272   7.740
98288SOL    HW196638  12.931  11.261   7.816
98288SOL    HW296639  12.980  11.191   7.691
98289SOL     OW96640  13.619  10.091  10.369
98289SOL    HW196641  13.576  10.174  10.349
98289SOL    HW296642  13.697  10.090  10.314
98290SOL     OW96643   5.144   6.725   6.360
98290SOL    HW196644   5.156   6.820   6.363
98290SOL    HW296645   5.232   6.689   6.364
98291SOL     OW96646   1.962  13.952   7.789
98291SOL    HW196647   1.984  14.037   7.826
98291SOL    HW296648   1.952  13.895   7.866
98292SOL     OW96649  13.051   5.062   0.070
98292SOL    HW196650  13.053   5.154   0.098
98292SOL    HW296651  13.077   5.065  14.856
98293SOL     OW96652  13.793   7.343   7.264
98293SOL    HW196653  13.741   7.363   7.186
98293SOL    HW296654  13.743   7.275   7.309
98294SOL     OW96655   6.809   5.398   2.336
98294SOL    HW196656   6.839   5.454   2.408
98294SOL    HW296657   6.717   5.380   2.355
98295SOL     OW96658  10.101   4.844  12.571
98295SOL    HW196659  10.151   4.881  12.498
98295SOL    HW296660  10.159   4.778  12.609
98296SOL     OW96661   1.070  14.517   9.643
98296SOL    HW196662   1.058  14.587   9.578
98296SOL    HW296663   0.982  14.503   9.678
98297SOL     OW96664  14.476  12.804   0.273
98297SOL    HW196665  14.401  12.846   0.229
98297SOL    HW296666  14.497  12.730   0.217
98298SOL     OW96667   8.859  13.611   4.306
98298SOL    HW196668   8.783  13.645   4.258
98298SOL    HW296669   8.840  13.632   4.397
98299SOL     OW96670  13.547  14.504   6.146
98299SOL    HW196671  13.577  14.493   6.236
98299SOL    HW296672  13.616  14.554   6.103
98300SOL     OW96673   6.061   5.333   0.400
98300SOL    HW196674   6.105   5.372   0.324
98300SOL    HW296675   6.101   5.375   0.476
98301SOL     OW96676   8.109   1.452   6.897
98301SOL    HW196677   8.072   1.367   6.921
98301SOL    HW296678   8.115   1.448   6.801
98302SOL     OW96679   4.018   1.955  10.691
98302SOL    HW196680   3.948   1.985  10.748
98302SOL    HW296681   4.078   1.907  10.749
98303SOL     OW96682   2.739  14.498   8.830
98303SOL    HW196683   2.661  14.492   8.775
98303SOL    HW296684   2.812  14.505   8.768
98304SOL     OW96685   4.443   8.284   0.545
98304SOL    HW196686   4.499   8.362   0.547
98304SOL    HW296687   4.355   8.319   0.532
98305SOL     OW96688   6.236  12.344   9.745
98305SOL    HW196689   6.319  12.303   9.769
98305SOL    HW296690   6.255  12.438   9.742
98306SOL     OW96691  11.168   3.824   9.033
98306SOL    HW196692  11.081   3.848   9.001
98306SOL    HW296693  11.228   3.885   8.989
98307SOL     OW96694   8.561   7.400  13.854
98307SOL    HW196695   8.523   7.319  13.821
98307SOL    HW296696   8.532   7.406  13.945
98308SOL     OW96697   2.850  11.765   3.301
98308SOL    HW196698   2.873  11.824   3.373
98308SOL    HW296699   2.782  11.812   3.253
98309SOL     OW96700   4.558   9.826  13.571
98309SOL    HW196701   4.482   9.800  13.518
98309SOL    HW296702   4.572   9.751  13.629
98310SOL     OW96703  13.827  13.998  14.730
98310SOL    HW196704  13.887  14.067  14.757
98310SOL    HW296705  13.740  14.040  14.731
98311SOL     OW96706  13.320  13.566   2.377
98311SOL    HW196707  13.375  13.489   2.370
98311SOL    HW296708  13.249  13.541   2.437
98312SOL     OW96709   8.839   7.034   3.821
98312SOL    HW196710   8.778   6.988   3.879
98312SOL    HW296711   8.801   7.121   3.810
98313SOL     OW96712   3.984   3.398   8.159
98313SOL    HW196713   3.987   3.467   8.225
98313SOL    HW296714   3.946   3.440   8.082
98314SOL     OW96715   5.917  14.639  11.128
98314SOL    HW196716   5.885  14.623  11.216
98314SOL    HW296717   5.977  14.714  11.137
98315SOL     OW96718  13.785   5.739  12.306
98315SOL    HW196719  13.829   5.689  12.374
98315SOL    HW296720  13.692   5.729  12.326
98316SOL     OW96721  12.087   3.220   7.379
98316SOL    HW196722  12.102   3.235   7.473
98316SOL    HW296723  12.132   3.292   7.336
98317SOL     OW96724   1.753  11.451  14.409
98317SOL    HW196725   1.707  11.368  14.399
98317SOL    HW296726   1.689  11.510  14.449
98318SOL     OW96727  11.788   1.741   5.111
98318SOL    HW196728  11.797   1.708   5.021
98318SOL    HW296729  11.791   1.662   5.165
98319SOL     OW96730  14.784  10.193  10.373
98319SOL    HW196731  14.724  10.139  10.321
98319SOL    HW296732  14.738  10.277  10.381
98320SOL     OW96733  10.454   1.465   0.960
98320SOL    HW196734  10.481   1.375   0.979
98320SOL    HW296735  10.497   1.518   1.027
98321SOL     OW96736   3.490  10.782   6.978
98321SOL    HW196737   3.434  10.845   7.023
98321SOL    HW296738   3.511  10.824   6.894
98322SOL     OW96739   2.815   9.292  13.034
98322SOL    HW196740   2.840   9.329  13.119
98322SOL    HW296741   2.719   9.299  13.032
98323SOL     OW96742  14.462   7.715  13.864
98323SOL    HW196743  14.393   7.699  13.801
98323SOL    HW296744  14.506   7.631  13.875
98324SOL     OW96745   4.537  11.378  14.342
98324SOL    HW196746   4.491  11.351  14.262
98324SOL    HW296747   4.520  11.472  14.349
98325SOL     OW96748  12.794   0.200   8.454
98325SOL    HW196749  12.706   0.206   8.416
98325SOL    HW296750  12.779   0.161   8.540
98326SOL     OW96751   9.655  13.710  14.526
98326SOL    HW196752   9.704  13.628  14.517
98326SOL    HW296753   9.604  13.717  14.446
98327SOL     OW96754  12.737  10.375   8.380
98327SOL    HW196755  12.708  10.358   8.470
98327SOL    HW296756  12.832  10.380   8.386
98328SOL     OW96757   0.804   7.441   0.119
98328SOL    HW196758   0.729   7.388   0.148
98328SOL    HW296759   0.772   7.531   0.119
98329SOL     OW96760   1.000   7.750   8.277
98329SOL    HW196761   0.988   7.790   8.363
98329SOL    HW296762   0.928   7.687   8.269
98330SOL     OW96763  10.815   7.384   6.389
98330SOL    HW196764  10.745   7.447   6.408
98330SOL    HW296765  10.773   7.298   6.394
98331SOL     OW96766   2.530   0.946  14.023
98331SOL    HW196767   2.517   0.995  13.942
98331SOL    HW296768   2.579   1.005  14.080
98332SOL     OW96769  13.723   8.609  11.777
98332SOL    HW196770  13.660   8.554  11.731
98332SOL    HW296771  13.785   8.547  11.816
98333SOL     OW96772  13.805   5.981  13.678
98333SOL    HW196773  13.792   5.894  13.714
98333SOL    HW296774  13.852   6.029  13.746
98334SOL     OW96775  10.569   3.507  12.901
98334SOL    HW196776  10.491   3.562  12.900
98334SOL    HW296777  10.631   3.554  12.844
98335SOL     OW96778   5.025   4.577   9.346
98335SOL    HW196779   5.054   4.629   9.272
98335SOL    HW296780   5.095   4.587   9.411
98336SOL     OW96781   2.607   5.328  11.474
98336SOL    HW196782   2.513   5.327  11.492
98336SOL    HW296783   2.642   5.397  11.531
98337SOL     OW96784   5.555   4.820   9.404
98337SOL    HW196785   5.634   4.767   9.391
98337SOL    HW296786   5.539   4.816   9.498
98338SOL     OW96787  10.664   3.526  14.260
98338SOL    HW196788  10.744   3.519  14.209
98338SOL    HW296789  10.637   3.617  14.251
98339SOL     OW96790   2.635  14.214   8.791
98339SOL    HW196791   2.567  14.201   8.857
98339SOL    HW296792   2.715  14.230   8.840
98340SOL     OW96793   8.102  12.019  13.477
98340SOL    HW196794   8.087  12.083  13.407
98340SOL    HW296795   8.047  11.944  13.452
98341SOL     OW96796   2.313   8.656   7.715
98341SOL    HW196797   2.348   8.569   7.734
98341SOL    HW296798   2.320   8.665   7.620
98342SOL     OW96799   2.778  14.601   4.926
98342SOL    HW196800   2.831  14.648   4.989
98342SOL    HW296801   2.749  14.523   4.973
98343SOL     OW96802   8.855   1.070   0.076
98343SOL    HW196803   8.827   1.008   0.009
98343SOL    HW296804   8.928   1.117   0.036
98344SOL     OW96805   9.812   0.248   7.693
98344SOL    HW196806   9.808   0.325   7.751
98344SOL    HW296807   9.742   0.263   7.630
98345SOL     OW96808  13.504   9.525   3.129
98345SOL    HW196809  13.556   9.598   3.095
98345SOL    HW296810  13.470   9.556   3.213
98346SOL     OW96811  12.601   3.975   9.314
98346SOL    HW196812  12.635   4.024   9.389
98346SOL    HW296813  12.587   3.886   9.348
98347SOL     OW96814   7.895   3.265  13.260
98347SOL    HW196815   7.960   3.257  13.190
98347SOL    HW296816   7.907   3.354  13.293
98348SOL     OW96817   4.209   4.844   9.787
98348SOL    HW196818   4.279   4.888   9.835
98348SOL    HW296819   4.250   4.764   9.753
98349SOL     OW96820  12.194  11.339   2.718
98349SOL    HW196821  12.212  11.275   2.649
98349SOL    HW296822  12.100  11.336   2.730
98350SOL     OW96823  11.209   2.960   2.916
98350SOL    HW196824  11.172   3.034   2.965
98350SOL    HW296825  11.273   3.000   2.857
98351SOL     OW96826   5.658   3.956   1.210
98351SOL    HW196827   5.706   4.002   1.279
98351SOL    HW296828   5.644   4.023   1.143
98352SOL     OW96829  10.972   3.049  10.619
98352SOL    HW196830  11.044   2.992  10.648
98352SOL    HW296831  10.913   2.990  10.571
98353SOL     OW96832  13.769   2.976   5.262
98353SOL    HW196833  13.702   2.929   5.311
98353SOL    HW296834  13.827   2.908   5.229
98354SOL     OW96835   5.809   3.244   3.655
98354SOL    HW196836   5.759   3.166   3.630
98354SOL    HW296837   5.767   3.274   3.736
98355SOL     OW96838  13.775  11.191  10.780
98355SOL    HW196839  13.729  11.115  10.817
98355SOL    HW296840  13.857  11.154  10.746
98356SOL     OW96841   6.505   2.672   1.370
98356SOL    HW196842   6.490   2.755   1.325
98356SOL    HW296843   6.596   2.677   1.400
98357SOL     OW96844   5.949   2.995  11.116
98357SOL    HW196845   6.035   2.966  11.087
98357SOL    HW296846   5.889   2.924  11.094
98358SOL     OW96847  10.277  12.784  13.379
98358SOL    HW196848  10.263  12.843  13.454
98358SOL    HW296849  10.210  12.717  13.389
98359SOL     OW96850  10.706  13.794   6.511
98359SOL    HW196851  10.796  13.777   6.539
98359SOL    HW296852  10.709  13.882   6.473
98360SOL     OW96853   2.798  11.433   8.850
98360SOL    HW196854   2.709  11.455   8.821
98360SOL    HW296855   2.788  11.351   8.898
98361SOL     OW96856   9.628   4.840  11.891
98361SOL    HW196857   9.721   4.858  11.904
98361SOL    HW296858   9.583   4.920  11.920
98362SOL     OW96859  10.562  11.026  11.939
98362SOL    HW196860  10.490  11.043  11.878
98362SOL    HW296861  10.609  11.109  11.945
98363SOL     OW96862   0.741   7.084   6.332
98363SOL    HW196863   0.819   7.081   6.389
98363SOL    HW296864   0.748   7.006   6.277
98364SOL     OW96865   8.221   5.462   6.074
98364SOL    HW196866   8.214   5.478   6.168
98364SOL    HW296867   8.204   5.548   6.035
98365SOL     OW96868   0.829   3.507  13.609
98365SOL    HW196869   0.914   3.552  13.608
98365SOL    HW296870   0.812   3.490  13.702
98366SOL     OW96871   8.550   5.453   3.563
98366SOL    HW196872   8.628   5.422   3.609
98366SOL    HW296873   8.562   5.547   3.557
98367SOL     OW96874  11.065   2.433  12.234
98367SOL    HW196875  11.058   2.473  12.147
98367SOL    HW296876  11.159   2.424  12.248
98368SOL     OW96877   3.419   6.457   1.752
98368SOL    HW196878   3.440   6.547   1.730
98368SOL    HW296879   3.403   6.415   1.668
98369SOL     OW96880   9.138  13.647   9.045
98369SOL    HW196881   9.048  13.678   9.040
98369SOL    HW296882   9.188  13.708   8.990
98370SOL     OW96883   8.241   5.983   2.339
98370SOL    HW196884   8.180   6.025   2.400
98370SOL    HW296885   8.309   6.049   2.326
98371SOL     OW96886  13.049   6.212   9.410
98371SOL    HW196887  13.022   6.211   9.502
98371SOL    HW296888  13.073   6.303   9.392
98372SOL     OW96889  13.335   9.329   9.923
98372SOL    HW196890  13.418   9.311   9.969
98372SOL    HW296891  13.288   9.388   9.981
98373SOL     OW96892  10.798   3.647  12.193
98373SOL    HW196893  10.865   3.578  12.195
98373SOL    HW296894  10.717   3.601  12.172
98374SOL     OW96895   4.794  11.550  12.240
98374SOL    HW196896   4.843  11.554  12.158
98374SOL    HW296897   4.845  11.492  12.296
98375SOL     OW96898   0.842   6.203   0.649
98375SOL    HW196899   0.810   6.231   0.735
98375SOL    HW296900   0.933   6.235   0.646
98376SOL     OW96901   0.303   5.890   3.816
98376SOL    HW196902   0.222   5.929   3.850
98376SOL    HW296903   0.372   5.927   3.871
98377SOL     OW96904   9.133  10.078   3.036
98377SOL    HW196905   9.039  10.087   3.056
98377SOL    HW296906   9.175  10.070   3.122
98378SOL     OW96907  10.531  11.078   0.934
98378SOL    HW196908  10.496  11.134   0.865
98378SOL    HW296909  10.600  11.027   0.892
98379SOL     OW96910   2.361  13.804   9.869
98379SOL    HW196911   2.354  13.867   9.941
98379SOL    HW296912   2.303  13.839   9.801
98380SOL     OW96913  12.644   4.342   0.748
98380SOL    HW196914  12.722   4.397   0.739
98380SOL    HW296915  12.573   4.395   0.713
98381SOL     OW96916   2.515   1.490  12.871
98381SOL    HW196917   2.573   1.414  12.881
98381SOL    HW296918   2.440   1.455  12.823
98382SOL     OW96919  10.687   8.422   3.802
98382SOL    HW196920  10.773   8.455   3.829
98382SOL    HW296921  10.688   8.329   3.826
98383SOL     OW96922  11.031  13.504  14.286
98383SOL    HW196923  11.023  13.542  14.199
98383SOL    HW296924  10.989  13.418  14.278
98384SOL     OW96925  12.068   5.599  11.446
98384SOL    HW196926  12.031   5.685  11.430
98384SOL    HW296927  12.072   5.558  11.359
98385SOL     OW96928   4.211  14.872   9.572
98385SOL    HW196929   4.221  14.842   9.482
98385SOL    HW296930   4.116  14.875   9.585
98386SOL     OW96931  12.548  11.736   3.190
98386SOL    HW196932  12.580  11.826   3.202
98386SOL    HW296933  12.523  11.732   3.098
98387SOL     OW96934   9.906   2.922   5.373
98387SOL    HW196935   9.931   2.829   5.367
98387SOL    HW296936   9.938   2.950   5.458
98388SOL     OW96937  10.470   8.804   2.913
98388SOL    HW196938  10.554   8.844   2.891
98388SOL    HW296939  10.419   8.808   2.832
98389SOL     OW96940  12.295   5.455   7.322
98389SOL    HW196941  12.342   5.372   7.320
98389SOL    HW296942  12.293   5.484   7.230
98390SOL     OW96943   6.227   8.240   4.515
98390SOL    HW196944   6.204   8.244   4.608
98390SOL    HW296945   6.214   8.149   4.490
98391SOL     OW96946   4.471   8.062   4.150
98391SOL    HW196947   4.521   8.033   4.226
98391SOL    HW296948   4.393   8.006   4.149
98392SOL     OW96949   2.553   0.750  14.379
98392SOL    HW196950   2.514   0.665  14.397
98392SOL    HW296951   2.582   0.745  14.288
98393SOL     OW96952   1.876   1.456  12.085
98393SOL    HW196953   1.964   1.457  12.122
98393SOL    HW296954   1.826   1.517  12.139
98394SOL     OW96955   7.022   8.052   3.725
98394SOL    HW196956   7.094   8.095   3.680
98394SOL    HW296957   6.968   8.123   3.759
98395SOL     OW96958   0.358   9.135  11.009
98395SOL    HW196959   0.407   9.054  10.997
98395SOL    HW296960   0.407   9.200  10.958
98396SOL     OW96961   6.448   2.964   2.492
98396SOL    HW196962   6.543   2.958   2.486
98396SOL    HW296963   6.419   2.975   2.401
98397SOL     OW96964   9.802   0.395   0.033
98397SOL    HW196965   9.839   0.316  14.871
98397SOL    HW296966   9.830   0.466  14.853
98398SOL     OW96967  14.553   3.992  14.772
98398SOL    HW196968  14.486   3.942  14.819
98398SOL    HW296969  14.580   3.935  14.701
98399SOL     OW96970   2.936   0.531  14.043
98399SOL    HW196971   2.873   0.462  14.064
98399SOL    HW296972   2.894   0.582  13.974
98400SOL     OW96973  13.162   6.657  13.777
98400SOL    HW196974  13.180   6.707  13.856
98400SOL    HW296975  13.164   6.565  13.805
98401SOL     OW96976   1.391   4.374   8.046
98401SOL    HW196977   1.375   4.324   7.966
98401SOL    HW296978   1.387   4.466   8.018
98402SOL     OW96979   0.097   0.812   1.776
98402SOL    HW196980   0.126   0.890   1.730
98402SOL    HW296981   0.062   0.845   1.859
98403SOL     OW96982   2.617  12.141   3.960
98403SOL    HW196983   2.551  12.202   3.927
98403SOL    HW296984   2.630  12.166   4.051
98404SOL     OW96985   1.275   3.400   3.888
98404SOL    HW196986   1.214   3.327   3.900
98404SOL    HW296987   1.359   3.366   3.918
98405SOL     OW96988   5.418   2.937   4.970
98405SOL    HW196989   5.358   3.008   4.949
98405SOL    HW296990   5.429   2.943   5.065
98406SOL     OW96991  12.826   6.556   3.667
98406SOL    HW196992  12.913   6.535   3.634
98406SOL    HW296993  12.766   6.518   3.603
98407SOL     OW96994   8.141   2.939   6.359
98407SOL    HW196995   8.100   3.022   6.335
98407SOL    HW296996   8.128   2.883   6.282
98408SOL     OW96997   1.279   1.373   7.859
98408SOL    HW196998   1.261   1.283   7.831
98408SOL    HW296999   1.285   1.368   7.954
98409SOL     OW97000   7.630   0.052  11.319
98409SOL    HW197001   7.547   0.035  11.275
98409SOL    HW297002   7.622   0.139  11.356
98410SOL     OW97003   4.070  10.394   7.688
98410SOL    HW197004   4.135  10.417   7.754
98410SOL    HW297005   4.032  10.477   7.660
98411SOL     OW97006   0.545   2.538  12.036
98411SOL    HW197007   0.612   2.576  12.093
98411SOL    HW297008   0.516   2.612  11.982
98412SOL     OW97009   8.425  11.045   3.155
98412SOL    HW197010   8.417  11.133   3.193
98412SOL    HW297011   8.384  10.987   3.218
98413SOL     OW97012   5.277  12.991   1.222
98413SOL    HW197013   5.264  13.083   1.245
98413SOL    HW297014   5.369  12.974   1.243
98414SOL     OW97015   8.402   4.523  10.325
98414SOL    HW197016   8.347   4.489  10.256
98414SOL    HW297017   8.459   4.450  10.349
98415SOL     OW97018  13.192   9.643   2.047
98415SOL    HW197019  13.110   9.650   2.098
98415SOL    HW297020  13.182   9.707   1.977
98416SOL     OW97021   7.416  12.810   7.579
98416SOL    HW197022   7.449  12.820   7.490
98416SOL    HW297023   7.480  12.856   7.633
98417SOL     OW97024   8.595  12.127   7.780
98417SOL    HW197025   8.614  12.107   7.689
98417SOL    HW297026   8.521  12.069   7.803
98418SOL     OW97027  14.754  11.643   3.929
98418SOL    HW197028  14.732  11.736   3.936
98418SOL    HW297029  14.766  11.614   4.019
98419SOL     OW97030  11.140   1.646   8.554
98419SOL    HW197031  11.146   1.729   8.506
98419SOL    HW297032  11.230   1.624   8.576
98420SOL     OW97033  12.476   3.941  13.971
98420SOL    HW197034  12.395   3.890  13.964
98420SOL    HW297035  12.506   3.928  14.061
98421SOL     OW97036   5.816   2.800   2.148
98421SOL    HW197037   5.753   2.780   2.078
98421SOL    HW297038   5.809   2.895   2.159
98422SOL     OW97039   4.787   4.446   1.714
98422SOL    HW197040   4.814   4.531   1.751
98422SOL    HW297041   4.765   4.393   1.790
98423SOL     OW97042   0.206   9.975   8.338
98423SOL    HW197043   0.236  10.016   8.257
98423SOL    HW297044   0.118  10.011   8.352
98424SOL     OW97045  11.264  13.872   5.222
98424SOL    HW197046  11.211  13.832   5.290
98424SOL    HW297047  11.327  13.805   5.198
98425SOL     OW97048  14.388   8.405   7.930
98425SOL    HW197049  14.338   8.344   7.876
98425SOL    HW297050  14.338   8.486   7.928
98426SOL     OW97051   8.765   8.093  11.404
98426SOL    HW197052   8.794   8.080  11.495
98426SOL    HW297053   8.835   8.056  11.351
98427SOL     OW97054   4.842   4.964   0.285
98427SOL    HW197055   4.909   5.006   0.230
98427SOL    HW297056   4.762   5.014   0.268
98428SOL     OW97057   6.448  13.720   6.695
98428SOL    HW197058   6.483  13.696   6.781
98428SOL    HW297059   6.416  13.637   6.659
98429SOL     OW97060   7.910   7.071   1.150
98429SOL    HW197061   7.958   7.151   1.170
98429SOL    HW297062   7.977   7.006   1.130
98430SOL     OW97063  14.436   5.865  11.370
98430SOL    HW197064  14.385   5.880  11.291
98430SOL    HW297065  14.409   5.778  11.400
98431SOL     OW97066   0.926  13.247   9.661
98431SOL    HW197067   0.992  13.192   9.620
98431SOL    HW297068   0.934  13.229   9.755
98432SOL     OW97069  14.174  12.777   1.496
98432SOL    HW197070  14.168  12.775   1.592
98432SOL    HW297071  14.103  12.834   1.469
98433SOL     OW97072  11.060   2.734   5.000
98433SOL    HW197073  11.059   2.675   5.075
98433SOL    HW297074  11.152   2.754   4.987
98434SOL     OW97075   5.988   3.675   1.833
98434SOL    HW197076   6.057   3.692   1.898
98434SOL    HW297077   5.944   3.596   1.865
98435SOL     OW97078   1.973   5.476   2.069
98435SOL    HW197079   2.055   5.463   2.021
98435SOL    HW297080   1.996   5.534   2.141
98436SOL     OW97081   2.280  10.499   9.523
98436SOL    HW197082   2.258  10.588   9.549
98436SOL    HW297083   2.200  10.449   9.541
98437SOL     OW97084   0.104  10.798   7.754
98437SOL    HW197085   0.131  10.875   7.805
98437SOL    HW297086   0.073  10.736   7.819
98438SOL     OW97087   9.630  11.290  13.591
98438SOL    HW197088   9.722  11.315  13.583
98438SOL    HW297089   9.601  11.332  13.672
98439SOL     OW97090   8.674   4.867   5.319
98439SOL    HW197091   8.614   4.793   5.310
98439SOL    HW297092   8.757   4.828   5.347
98440SOL     OW97093   2.835  12.524   4.031
98440SOL    HW197094   2.882  12.479   3.962
98440SOL    HW297095   2.879  12.497   4.112
98441SOL     OW97096   8.474  14.802   1.833
98441SOL    HW197097   8.483  14.707   1.831
98441SOL    HW297098   8.471  14.829   1.741
98442SOL     OW97099   0.135   9.286   4.440
98442SOL    HW197100   0.080   9.222   4.396
98442SOL    HW297101   0.079   9.364   4.449
98443SOL     OW97102  11.508   4.188  10.013
98443SOL    HW197103  11.573   4.256  10.030
98443SOL    HW297104  11.530   4.118  10.075
98444SOL     OW97105   4.605  14.089  12.495
98444SOL    HW197106   4.588  14.005  12.452
98444SOL    HW297107   4.544  14.150  12.453
98445SOL     OW97108   2.655   9.335  14.007
98445SOL    HW197109   2.628   9.426  14.015
98445SOL    HW297110   2.710   9.319  14.083
98446SOL     OW97111  14.456   2.258  11.391
98446SOL    HW197112  14.391   2.232  11.326
98446SOL    HW297113  14.495   2.339  11.356
98447SOL     OW97114   7.784   8.357  10.626
98447SOL    HW197115   7.757   8.446  10.649
98447SOL    HW297116   7.709   8.303  10.648
98448SOL     OW97117  11.780   3.019   7.617
98448SOL    HW197118  11.751   3.109   7.627
98448SOL    HW297119  11.754   2.976   7.699
98449SOL     OW97120  14.363  11.649  10.768
98449SOL    HW197121  14.328  11.708  10.701
98449SOL    HW297122  14.327  11.563  10.746
98450SOL     OW97123   9.348   5.654  10.916
98450SOL    HW197124   9.414   5.716  10.948
98450SOL    HW297125   9.323   5.689  10.831
98451SOL     OW97126  10.358  12.935   5.583
98451SOL    HW197127  10.331  12.851   5.619
98451SOL    HW297128  10.440  12.916   5.537
98452SOL     OW97129   1.883   8.711   7.308
98452SOL    HW197130   1.961   8.763   7.287
98452SOL    HW297131   1.913   8.620   7.300
98453SOL     OW97132   5.934  10.438  10.357
98453SOL    HW197133   6.027  10.431  10.333
98453SOL    HW297134   5.914  10.355  10.401
98454SOL     OW97135   5.221   1.288  11.851
98454SOL    HW197136   5.211   1.356  11.918
98454SOL    HW297137   5.315   1.287  11.832
98455SOL     OW97138   2.693   7.166   3.464
98455SOL    HW197139   2.727   7.080   3.487
98455SOL    HW297140   2.691   7.214   3.547
98456SOL     OW97141   8.552  12.170   7.095
98456SOL    HW197142   8.584  12.082   7.114
98456SOL    HW297143   8.598  12.226   7.158
98457SOL     OW97144   0.094   5.450   1.342
98457SOL    HW197145  14.876   5.460   1.344
98457SOL    HW297146   0.126   5.532   1.305
98458SOL     OW97147  12.586   5.239   3.991
98458SOL    HW197148  12.668   5.193   3.974
98458SOL    HW297149  12.546   5.191   4.063
98459SOL     OW97150   1.049  11.464  11.082
98459SOL    HW197151   1.045  11.368  11.078
98459SOL    HW297152   1.124  11.482  11.139
98460SOL     OW97153   3.382   9.471   9.657
98460SOL    HW197154   3.476   9.489   9.648
98460SOL    HW297155   3.376   9.376   9.663
98461SOL     OW97156   3.606   7.666   8.658
98461SOL    HW197157   3.632   7.755   8.632
98461SOL    HW297158   3.688   7.617   8.661
98462SOL     OW97159   2.856  14.368   9.616
98462SOL    HW197160   2.890  14.445   9.661
98462SOL    HW297161   2.764  14.388   9.601
98463SOL     OW97162   0.563   3.477   8.458
98463SOL    HW197163   0.626   3.420   8.503
98463SOL    HW297164   0.477   3.449   8.492
98464SOL     OW97165   1.606   4.058   9.795
98464SOL    HW197166   1.614   3.972   9.837
98464SOL    HW297167   1.677   4.109   9.834
98465SOL     OW97168  11.570   7.668  12.257
98465SOL    HW197169  11.478   7.690  12.274
98465SOL    HW297170  11.601   7.739  12.199
98466SOL     OW97171   8.208  13.829   2.578
98466SOL    HW197172   8.285  13.787   2.541
98466SOL    HW297173   8.242  13.896   2.637
98467SOL     OW97174   6.335   9.648   0.703
98467SOL    HW197175   6.321   9.742   0.712
98467SOL    HW297176   6.409   9.640   0.644
98468SOL     OW97177   6.009   6.135   0.950
98468SOL    HW197178   6.007   6.223   0.987
98468SOL    HW297179   6.077   6.090   1.000
98469SOL     OW97180  12.770   3.381  11.754
98469SOL    HW197181  12.767   3.336  11.838
98469SOL    HW297182  12.740   3.316  11.691
98470SOL     OW97183  14.407   8.005   6.214
98470SOL    HW197184  14.365   7.940   6.271
98470SOL    HW297185  14.477   8.042   6.267
98471SOL     OW97186   6.870   1.450   6.247
98471SOL    HW197187   6.800   1.503   6.209
98471SOL    HW297188   6.827   1.369   6.275
98472SOL     OW97189  11.987  11.119   4.410
98472SOL    HW197190  11.972  11.213   4.419
98472SOL    HW297191  12.072  11.112   4.368
98473SOL     OW97192   9.657   3.200  14.714
98473SOL    HW197193   9.712   3.127  14.685
98473SOL    HW297194   9.699   3.278  14.677
98474SOL     OW97195   0.375   3.342   0.408
98474SOL    HW197196   0.416   3.342   0.494
98474SOL    HW297197   0.391   3.429   0.373
98475SOL     OW97198  11.225   5.908   4.733
98475SOL    HW197199  11.311   5.899   4.772
98475SOL    HW297200  11.208   6.002   4.731
98476SOL     OW97201  12.525   8.161  13.532
98476SOL    HW197202  12.556   8.076  13.498
98476SOL    HW297203  12.430   8.151  13.538
98477SOL     OW97204  10.118  11.643   8.625
98477SOL    HW197205  10.168  11.656   8.544
98477SOL    HW297206  10.030  11.621   8.596
98478SOL     OW97207  14.814   7.731   8.607
98478SOL    HW197208  14.876   7.708   8.676
98478SOL    HW297209  14.728   7.717   8.647
98479SOL     OW97210  10.784  12.657   7.490
98479SOL    HW197211  10.724  12.643   7.563
98479SOL    HW297212  10.855  12.594   7.504
98480SOL     OW97213  12.904   6.455   0.785
98480SOL    HW197214  12.875   6.466   0.694
98480SOL    HW297215  12.959   6.531   0.802
98481SOL     OW97216  11.442   1.758   8.276
98481SOL    HW197217  11.428   1.680   8.222
98481SOL    HW297218  11.536   1.774   8.269
98482SOL     OW97219   2.625   7.196   3.179
98482SOL    HW197220   2.558   7.128   3.175
98482SOL    HW297221   2.666   7.182   3.264
98483SOL     OW97222   0.311   3.780  11.201
98483SOL    HW197223   0.256   3.710  11.166
98483SOL    HW297224   0.299   3.775  11.295
98484SOL     OW97225   7.978   5.478   3.519
98484SOL    HW197226   7.882   5.474   3.523
98484SOL    HW297227   7.996   5.569   3.494
98485SOL     OW97228   8.072   7.233  12.437
98485SOL    HW197229   8.130   7.309  12.439
98485SOL    HW297230   8.063   7.212  12.344
98486SOL     OW97231  14.777   3.174   2.832
98486SOL    HW197232  14.812   3.090   2.861
98486SOL    HW297233  14.695   3.184   2.880
98487SOL     OW97234   7.866  12.058   2.459
98487SOL    HW197235   7.853  12.098   2.372
98487SOL    HW297236   7.785  12.078   2.506
98488SOL     OW97237   1.061  11.659   9.126
98488SOL    HW197238   1.137  11.600   9.128
98488SOL    HW297239   1.069  11.709   9.207
98489SOL     OW97240  12.978   4.332  10.498
98489SOL    HW197241  12.951   4.402  10.439
98489SOL    HW297242  13.062   4.361  10.533
98490SOL     OW97243   8.823   4.323   4.174
98490SOL    HW197244   8.847   4.283   4.090
98490SOL    HW297245   8.906   4.359   4.207
98491SOL     OW97246   7.134   2.532   1.782
98491SOL    HW197247   7.088   2.479   1.847
98491SOL    HW297248   7.226   2.508   1.794
98492SOL     OW97249   1.100   9.596   5.499
98492SOL    HW197250   1.059   9.519   5.460
98492SOL    HW297251   1.149   9.562   5.574
98493SOL     OW97252   2.666  11.300   7.961
98493SOL    HW197253   2.619  11.239   7.904
98493SOL    HW297254   2.691  11.248   8.038
98494SOL     OW97255   2.032   0.596   1.042
98494SOL    HW197256   1.982   0.603   1.124
98494SOL    HW297257   1.987   0.656   0.982
98495SOL     OW97258  13.844   3.512   4.686
98495SOL    HW197259  13.920   3.560   4.718
98495SOL    HW297260  13.769   3.563   4.715
98496SOL     OW97261  14.839   6.597   0.323
98496SOL    HW197262  14.781   6.616   0.396
98496SOL    HW297263  14.853   6.682   0.281
98497SOL     OW97264  12.382   9.766  13.162
98497SOL    HW197265  12.440   9.692  13.181
98497SOL    HW297266  12.369   9.808  13.247
98498SOL     OW97267  12.397   2.645   9.911
98498SOL    HW197268  12.472   2.679   9.960
98498SOL    HW297269  12.350   2.722   9.881
98499SOL     OW97270   4.675   1.246   4.660
98499SOL    HW197271   4.691   1.295   4.740
98499SOL    HW297272   4.609   1.298   4.613
98500SOL     OW97273  14.572  14.586  12.983
98500SOL    HW197274  14.620  14.551  12.908
98500SOL    HW297275  14.512  14.650  12.944
98501SOL     OW97276   0.898   5.196   7.084
98501SOL    HW197277   0.957   5.179   7.011
98501SOL    HW297278   0.932   5.275   7.125
98502SOL     OW97279  14.424  12.955  11.889
98502SOL    HW197280  14.497  12.942  11.949
98502SOL    HW297281  14.378  13.031  11.924
98503SOL     OW97282  12.218   1.151  12.030
98503SOL    HW197283  12.294   1.157  12.087
98503SOL    HW297284  12.253   1.161  11.942
98504SOL     OW97285   2.319   2.231   1.098
98504SOL    HW197286   2.372   2.153   1.082
98504SOL    HW297287   2.230   2.197   1.108
98505SOL     OW97288   4.378  12.319  10.169
98505SOL    HW197289   4.435  12.395  10.178
98505SOL    HW297290   4.413  12.271  10.093
98506SOL     OW97291   8.599   0.310  14.593
98506SOL    HW197292   8.631   0.233  14.546
98506SOL    HW297293   8.610   0.382  14.531
98507SOL     OW97294   5.593   5.226  13.139
98507SOL    HW197295   5.645   5.286  13.192
98507SOL    HW297296   5.657   5.174  13.091
98508SOL     OW97297   7.143   4.658   7.320
98508SOL    HW197298   7.163   4.587   7.380
98508SOL    HW297299   7.229   4.687   7.287
98509SOL     OW97300   2.789  12.883   1.251
98509SOL    HW197301   2.812  12.863   1.160
98509SOL    HW297302   2.844  12.958   1.273
98510SOL     OW97303  14.189  10.678  13.427
98510SOL    HW197304  14.122  10.719  13.481
98510SOL    HW297305  14.158  10.588  13.413
98511SOL     OW97306   9.826   4.940   7.000
98511SOL    HW197307   9.753   4.887   6.965
98511SOL    HW297308   9.864   4.886   7.069
98512SOL     OW97309   1.968  11.946   0.441
98512SOL    HW197310   1.905  11.893   0.392
98512SOL    HW297311   1.930  12.034   0.441
98513SOL     OW97312  14.352   5.292   2.952
98513SOL    HW197313  14.401   5.242   2.886
98513SOL    HW297314  14.357   5.240   3.031
98514SOL     OW97315   2.831   4.703   9.850
98514SOL    HW197316   2.752   4.651   9.864
98514SOL    HW297317   2.895   4.641   9.815
98515SOL     OW97318   7.293   8.839  10.252
98515SOL    HW197319   7.250   8.915  10.214
98515SOL    HW297320   7.358   8.875  10.312
98516SOL     OW97321  10.899  10.788   2.754
98516SOL    HW197322  10.994  10.804   2.751
98516SOL    HW297323  10.866  10.850   2.818
98517SOL     OW97324   8.724   2.141  10.723
98517SOL    HW197325   8.814   2.116  10.744
98517SOL    HW297326   8.692   2.184  10.802
98518SOL     OW97327   0.253   4.202   0.725
98518SOL    HW197328   0.174   4.216   0.777
98518SOL    HW297329   0.288   4.118   0.755
98519SOL     OW97330  13.122   6.207   0.182
98519SOL    HW197331  13.042   6.259   0.183
98519SOL    HW297332  13.093   6.117   0.199
98520SOL     OW97333  14.100   3.783   6.677
98520SOL    HW197334  14.160   3.804   6.605
98520SOL    HW297335  14.016   3.821   6.650
98521SOL     OW97336   7.273   6.573   2.660
98521SOL    HW197337   7.179   6.577   2.681
98521SOL    HW297338   7.316   6.615   2.734
98522SOL     OW97339  12.565   7.131   7.567
98522SOL    HW197340  12.572   7.054   7.510
98522SOL    HW297341  12.512   7.193   7.518
98523SOL     OW97342  12.493   5.413   4.389
98523SOL    HW197343  12.531   5.328   4.370
98523SOL    HW297344  12.412   5.416   4.338
98524SOL     OW97345   3.081   1.508  11.068
98524SOL    HW197346   3.018   1.436  11.075
98524SOL    HW297347   3.162   1.474  11.105
98525SOL     OW97348   1.937   7.107   2.579
98525SOL    HW197349   2.028   7.115   2.550
98525SOL    HW297350   1.895   7.186   2.544
98526SOL     OW97351   2.208  12.966  10.259
98526SOL    HW197352   2.216  12.984  10.165
98526SOL    HW297353   2.297  12.976  10.293
98527SOL     OW97354   4.900   1.631   3.831
98527SOL    HW197355   4.815   1.644   3.873
98527SOL    HW297356   4.920   1.715   3.791
98528SOL     OW97357   3.827   6.696  13.466
98528SOL    HW197358   3.818   6.612  13.509
98528SOL    HW297359   3.845   6.758  13.537
98529SOL     OW97360   7.710   5.967   8.643
98529SOL    HW197361   7.802   5.941   8.654
98529SOL    HW297362   7.681   5.990   8.731
98530SOL     OW97363   8.260   7.212  10.914
98530SOL    HW197364   8.255   7.221  10.818
98530SOL    HW297365   8.209   7.286  10.947
98531SOL     OW97366   4.807   1.751  12.246
98531SOL    HW197367   4.853   1.678  12.203
98531SOL    HW297368   4.809   1.729  12.339
98532SOL     OW97369  14.233   6.458   8.263
98532SOL    HW197370  14.180   6.378   8.264
98532SOL    HW297371  14.182   6.521   8.314
98533SOL     OW97372   2.126   2.843   6.583
98533SOL    HW197373   2.119   2.796   6.499
98533SOL    HW297374   2.187   2.914   6.565
98534SOL     OW97375   6.733   3.576   3.664
98534SOL    HW197376   6.783   3.498   3.639
98534SOL    HW297377   6.697   3.609   3.582
98535SOL     OW97378  14.425   8.644   8.695
98535SOL    HW197379  14.498   8.590   8.666
98535SOL    HW297380  14.388   8.598   8.770
98536SOL     OW97381  10.997   8.014   1.778
98536SOL    HW197382  10.938   8.052   1.713
98536SOL    HW297383  10.945   7.946   1.821
98537SOL     OW97384   2.472   5.551  11.254
98537SOL    HW197385   2.444   5.460  11.264
98537SOL    HW297386   2.484   5.583  11.343
98538SOL     OW97387   5.557   4.332   2.255
98538SOL    HW197388   5.624   4.296   2.314
98538SOL    HW297389   5.500   4.384   2.312
98539SOL     OW97390  10.092   1.921   9.473
98539SOL    HW197391  10.143   1.957   9.546
98539SOL    HW297392  10.030   1.990   9.451
98540SOL     OW97393   3.658  14.805  14.548
98540SOL    HW197394   3.565  14.820  14.532
98540SOL    HW297395   3.701   0.005  14.513
98541SOL     OW97396   2.840   4.948   9.947
98541SOL    HW197397   2.819   4.867   9.901
98541SOL    HW297398   2.758   4.974   9.989
98542SOL     OW97399   2.907   4.303  10.633
98542SOL    HW197400   2.941   4.259  10.711
98542SOL    HW297401   2.903   4.396  10.657
98543SOL     OW97402   9.382  11.331   3.050
98543SOL    HW197403   9.342  11.370   3.127
98543SOL    HW297404   9.326  11.357   2.977
98544SOL     OW97405   6.522  13.154   6.001
98544SOL    HW197406   6.520  13.250   6.010
98544SOL    HW297407   6.487  13.138   5.914
98545SOL     OW97408   7.002   3.774  12.909
98545SOL    HW197409   6.973   3.684  12.892
98545SOL    HW297410   6.937   3.829  12.865
98546SOL     OW97411   3.294   3.473   3.782
98546SOL    HW197412   3.384   3.447   3.799
98546SOL    HW297413   3.290   3.485   3.687
98547SOL     OW97414   2.669   4.850   7.066
98547SOL    HW197415   2.580   4.823   7.091
98547SOL    HW297416   2.710   4.877   7.147
98548SOL     OW97417   8.423   4.866  14.002
98548SOL    HW197418   8.335   4.844  13.970
98548SOL    HW297419   8.457   4.784  14.037
98549SOL     OW97420  11.707   2.509  14.179
98549SOL    HW197421  11.777   2.546  14.233
98549SOL    HW297422  11.735   2.419  14.163
98550SOL     OW97423   7.345   5.195   5.456
98550SOL    HW197424   7.256   5.207   5.421
98550SOL    HW297425   7.359   5.272   5.511
98551SOL     OW97426   5.774  12.885   4.940
98551SOL    HW197427   5.781  12.973   4.977
98551SOL    HW297428   5.684  12.858   4.959
98552SOL     OW97429   7.530  12.026   1.678
98552SOL    HW197430   7.607  12.030   1.734
98552SOL    HW297431   7.561  11.986   1.597
98553SOL     OW97432  11.038  11.575   7.593
98553SOL    HW197433  10.993  11.620   7.522
98553SOL    HW297434  10.972  11.517   7.630
98554SOL     OW97435  13.081   5.026   2.528
98554SOL    HW197436  13.062   5.060   2.615
98554SOL    HW297437  13.176   5.039   2.518
98555SOL     OW97438   9.622   3.981  13.065
98555SOL    HW197439   9.638   4.018  12.978
98555SOL    HW297440   9.678   3.904  13.070
98556SOL     OW97441   4.136   6.463  13.262
98556SOL    HW197442   4.140   6.389  13.201
98556SOL    HW297443   4.224   6.469  13.299
98557SOL     OW97444   6.571   6.700   3.694
98557SOL    HW197445   6.627   6.714   3.617
98557SOL    HW297446   6.619   6.741   3.766
98558SOL     OW97447   0.696   0.750  14.030
98558SOL    HW197448   0.612   0.717  14.063
98558SOL    HW297449   0.743   0.779  14.109
98559SOL     OW97450   5.384  10.544   0.434
98559SOL    HW197451   5.345  10.457   0.441
98559SOL    HW297452   5.410  10.552   0.342
98560SOL     OW97453   8.641   9.800   0.297
98560SOL    HW197454   8.569   9.855   0.328
98560SOL    HW297455   8.601   9.744   0.231
98561SOL     OW97456   5.481   2.236   7.838
98561SOL    HW197457   5.412   2.300   7.819
98561SOL    HW297458   5.433   2.158   7.867
98562SOL     OW97459  13.046   8.742   9.253
98562SOL    HW197460  13.099   8.821   9.245
98562SOL    HW297461  12.962   8.764   9.213
98563SOL     OW97462  10.940   1.487   1.395
98563SOL    HW197463  10.992   1.452   1.466
98563SOL    HW297464  10.897   1.565   1.432
98564SOL     OW97465   2.853   5.777   3.406
98564SOL    HW197466   2.830   5.710   3.341
98564SOL    HW297467   2.782   5.774   3.469
98565SOL     OW97468  10.237  13.681   6.210
98565SOL    HW197469  10.306  13.688   6.276
98565SOL    HW297470  10.264  13.609   6.154
98566SOL     OW97471  10.648   0.730  10.560
98566SOL    HW197472  10.741   0.721  10.543
98566SOL    HW297473  10.631   0.671  10.633
98567SOL     OW97474   7.238   9.316   5.022
98567SOL    HW197475   7.211   9.271   4.942
98567SOL    HW297476   7.156   9.342   5.063
98568SOL     OW97477  14.090   8.797   6.022
98568SOL    HW197478  14.043   8.734   5.968
98568SOL    HW297479  14.163   8.827   5.966
98569SOL     OW97480   7.434   7.398   4.641
98569SOL    HW197481   7.480   7.368   4.720
98569SOL    HW297482   7.489   7.467   4.605
98570SOL     OW97483  11.482  14.833   8.583
98570SOL    HW197484  11.465  14.776   8.508
98570SOL    HW297485  11.425  14.800   8.652
98571SOL     OW97486   4.653   6.084   5.979
98571SOL    HW197487   4.731   6.064   6.032
98571SOL    HW297488   4.583   6.095   6.044
98572SOL     OW97489  10.210  13.557   3.669
98572SOL    HW197490  10.116  13.572   3.671
98572SOL    HW297491  10.245  13.618   3.734
98573SOL     OW97492   2.730   1.417   3.561
98573SOL    HW197493   2.678   1.483   3.606
98573SOL    HW297494   2.719   1.436   3.468
98574SOL     OW97495   4.310  12.191   6.306
98574SOL    HW197496   4.295  12.225   6.394
98574SOL    HW297497   4.222  12.184   6.268
98575SOL     OW97498   5.896  12.684   5.175
98575SOL    HW197499   5.806  12.711   5.198
98575SOL    HW297500   5.885  12.625   5.101
98576SOL     OW97501   8.990   1.060   9.753
98576SOL    HW197502   8.963   1.121   9.683
98576SOL    HW297503   8.971   1.107   9.834
98577SOL     OW97504   0.099  11.316  13.332
98577SOL    HW197505   0.165  11.298  13.399
98577SOL    HW297506   0.106  11.411  13.318
98578SOL     OW97507  10.584   5.326   4.604
98578SOL    HW197508  10.597   5.245   4.554
98578SOL    HW297509  10.672   5.351   4.633
98579SOL     OW97510   6.008  14.701   8.516
98579SOL    HW197511   6.060  14.780   8.530
98579SOL    HW297512   5.934  14.709   8.576
98580SOL     OW97513   0.455   9.898   1.195
98580SOL    HW197514   0.399   9.975   1.190
98580SOL    HW297515   0.470   9.885   1.289
98581SOL     OW97516   7.112  13.066   6.542
98581SOL    HW197517   7.172  13.049   6.470
98581SOL    HW297518   7.073  13.151   6.522
98582SOL     OW97519  13.098   4.563   4.297
98582SOL    HW197520  13.081   4.468   4.296
98582SOL    HW297521  13.058   4.593   4.378
98583SOL     OW97522  11.085   4.374   0.320
98583SOL    HW197523  11.072   4.452   0.374
98583SOL    HW297524  11.047   4.397   0.235
98584SOL     OW97525  12.196   8.691   3.394
98584SOL    HW197526  12.215   8.648   3.311
98584SOL    HW297527  12.117   8.648   3.427
98585SOL     OW97528   8.804   3.104  14.821
98585SOL    HW197529   8.796   3.148   0.028
98585SOL    HW297530   8.720   3.121  14.778
98586SOL     OW97531   0.653   1.744  12.178
98586SOL    HW197532   0.648   1.662  12.129
98586SOL    HW297533   0.626   1.812  12.116
98587SOL     OW97534   3.813   2.147   9.684
98587SOL    HW197535   3.811   2.065   9.636
98587SOL    HW297536   3.886   2.138   9.746
98588SOL     OW97537   7.982  10.624  10.062
98588SOL    HW197538   8.077  10.632  10.068
98588SOL    HW297539   7.963  10.627   9.968
98589SOL     OW97540  12.979  12.655   4.054
98589SOL    HW197541  13.020  12.571   4.030
98589SOL    HW297542  13.052  12.708   4.086
98590SOL     OW97543   7.550  11.592  14.524
98590SOL    HW197544   7.503  11.648  14.585
98590SOL    HW297545   7.483  11.554  14.468
98591SOL     OW97546  14.713  14.246  13.050
98591SOL    HW197547  14.674  14.324  13.090
98591SOL    HW297548  14.806  14.266  13.044
98592SOL     OW97549  10.436   2.129  13.874
98592SOL    HW197550  10.421   2.141  13.967
98592SOL    HW297551  10.490   2.050  13.869
98593SOL     OW97552   7.927   1.060  14.677
98593SOL    HW197553   7.846   1.062  14.728
98593SOL    HW297554   7.963   1.148  14.686
98594SOL     OW97555   6.295  10.345  10.612
98594SOL    HW197556   6.349  10.290  10.669
98594SOL    HW297557   6.222  10.372  10.667
98595SOL     OW97558   4.416   5.407   3.986
98595SOL    HW197559   4.345   5.378   3.929
98595SOL    HW297560   4.381   5.483   4.032
98596SOL     OW97561   2.492   3.062   7.753
98596SOL    HW197562   2.420   3.125   7.747
98596SOL    HW297563   2.536   3.069   7.668
98597SOL     OW97564  12.178   6.542  10.212
98597SOL    HW197565  12.166   6.543  10.307
98597SOL    HW297566  12.089   6.538  10.177
98598SOL     OW97567   5.011   3.765   3.567
98598SOL    HW197568   4.951   3.777   3.641
98598SOL    HW297569   4.960   3.716   3.502
98599SOL     OW97570  13.193  14.475   1.587
98599SOL    HW197571  13.217  14.525   1.666
98599SOL    HW297572  13.177  14.386   1.619
98600SOL     OW97573  12.570  13.213  14.265
98600SOL    HW197574  12.589  13.260  14.183
98600SOL    HW297575  12.633  13.248  14.328
98601SOL     OW97576   7.273   0.799   7.311
98601SOL    HW197577   7.267   0.887   7.273
98601SOL    HW297578   7.238   0.809   7.400
98602SOL     OW97579   0.919   5.934  11.885
98602SOL    HW197580   0.854   5.966  11.947
98602SOL    HW297581   0.873   5.929  11.802
98603SOL     OW97582  12.331  10.872   5.374
98603SOL    HW197583  12.361  10.811   5.307
98603SOL    HW297584  12.406  10.885   5.431
98604SOL     OW97585  10.219   7.678   0.929
98604SOL    HW197586  10.124   7.690   0.939
98604SOL    HW297587  10.255   7.702   1.015
98605SOL     OW97588   7.196   1.576  12.973
98605SOL    HW197589   7.280   1.530  12.970
98605SOL    HW297590   7.159   1.563  12.886
98606SOL     OW97591   6.316   0.666   9.211
98606SOL    HW197592   6.404   0.667   9.249
98606SOL    HW297593   6.321   0.604   9.139
98607SOL     OW97594   6.896  13.483   3.117
98607SOL    HW197595   6.897  13.579   3.115
98607SOL    HW297596   6.805  13.459   3.101
98608SOL     OW97597   9.466   7.404   2.976
98608SOL    HW197598   9.483   7.480   2.920
98608SOL    HW297599   9.485   7.329   2.920
98609SOL     OW97600  13.409   0.995   2.163
98609SOL    HW197601  13.424   0.922   2.103
98609SOL    HW297602  13.316   1.016   2.153
98610SOL     OW97603   4.753   5.837   6.143
98610SOL    HW197604   4.742   5.821   6.236
98610SOL    HW297605   4.787   5.927   6.138
98611SOL     OW97606  13.816  12.674  12.646
98611SOL    HW197607  13.733  12.718  12.630
98611SOL    HW297608  13.847  12.709  12.729
98612SOL     OW97609   7.979  14.232  13.815
98612SOL    HW197610   7.989  14.156  13.872
98612SOL    HW297611   8.008  14.306  13.869
98613SOL     OW97612   2.598  10.504   5.966
98613SOL    HW197613   2.526  10.454   5.927
98613SOL    HW297614   2.660  10.438   5.995
98614SOL     OW97615   3.149   3.256  10.068
98614SOL    HW197616   3.110   3.182  10.021
98614SOL    HW297617   3.222   3.218  10.117
98615SOL     OW97618  11.671  13.305   7.024
98615SOL    HW197619  11.652  13.222   6.982
98615SOL    HW297620  11.662  13.288   7.117
98616SOL     OW97621   0.579  11.706   3.750
98616SOL    HW197622   0.623  11.792   3.746
98616SOL    HW297623   0.566  11.691   3.844
98617SOL     OW97624   4.775   9.188   0.830
98617SOL    HW197625   4.719   9.176   0.907
98617SOL    HW297626   4.728   9.144   0.759
98618SOL     OW97627   2.507   0.406  11.420
98618SOL    HW197628   2.551   0.322  11.407
98618SOL    HW297629   2.428   0.402  11.366
98619SOL     OW97630   8.734   6.779   9.765
98619SOL    HW197631   8.679   6.841   9.718
98619SOL    HW297632   8.789   6.833   9.821
98620SOL     OW97633   5.504   4.422  11.898
98620SOL    HW197634   5.599   4.411  11.886
98620SOL    HW297635   5.486   4.380  11.982
98621SOL     OW97636   8.162  10.864   9.857
98621SOL    HW197637   8.201  10.901   9.779
98621SOL    HW297638   8.161  10.769   9.842
98622SOL     OW97639   6.096  10.428   2.904
98622SOL    HW197640   6.069  10.391   2.819
98622SOL    HW297641   6.058  10.370   2.969
98623SOL     OW97642   1.981   2.250   0.908
98623SOL    HW197643   2.008   2.257   1.000
98623SOL    HW297644   1.964   2.156   0.897
98624SOL     OW97645   3.035   4.735   1.096
98624SOL    HW197646   2.994   4.755   1.181
98624SOL    HW297647   3.122   4.775   1.101
98625SOL     OW97648   7.931   4.820   5.884
98625SOL    HW197649   8.020   4.793   5.907
98625SOL    HW297650   7.881   4.806   5.964
98626SOL     OW97651   1.317   0.977  10.442
98626SOL    HW197652   1.251   1.039  10.412
98626SOL    HW297653   1.397   1.030  10.449
98627SOL     OW97654   8.032   4.995   8.809
98627SOL    HW197655   7.989   4.967   8.729
98627SOL    HW297656   8.113   5.037   8.780
98628SOL     OW97657  11.487  13.902   5.533
98628SOL    HW197658  11.507  13.934   5.445
98628SOL    HW297659  11.394  13.878   5.528
98629SOL     OW97660  12.551   2.777   5.190
98629SOL    HW197661  12.559   2.755   5.283
98629SOL    HW297662  12.615   2.721   5.147
98630SOL     OW97663  14.503   5.303   5.149
98630SOL    HW197664  14.456   5.232   5.105
98630SOL    HW297665  14.457   5.382   5.123
98631SOL     OW97666  14.784   8.062   8.328
98631SOL    HW197667  14.839   8.050   8.405
98631SOL    HW297668  14.846   8.068   8.255
98632SOL     OW97669   5.863  14.376   9.061
98632SOL    HW197670   5.776  14.417   9.058
98632SOL    HW297671   5.901  14.391   8.975
98633SOL     OW97672  14.418  11.064   0.757
98633SOL    HW197673  14.466  11.044   0.838
98633SOL    HW297674  14.406  11.159   0.758
98634SOL     OW97675   6.183   9.976  14.365
98634SOL    HW197676   6.101   9.935  14.338
98634SOL    HW297677   6.193  10.050  14.306
98635SOL     OW97678   1.126   6.420   3.099
98635SOL    HW197679   1.087   6.334   3.114
98635SOL    HW297680   1.156   6.448   3.186
98636SOL     OW97681   6.569   0.851  14.533
98636SOL    HW197682   6.583   0.760  14.558
98636SOL    HW297683   6.565   0.898  14.617
98637SOL     OW97684   7.426  11.080  12.779
98637SOL    HW197685   7.421  11.104  12.687
98637SOL    HW297686   7.509  11.119  12.809
98638SOL     OW97687   7.212   7.593   1.257
98638SOL    HW197688   7.192   7.680   1.292
98638SOL    HW297689   7.290   7.565   1.306
98639SOL     OW97690   8.312  10.518   0.391
98639SOL    HW197691   8.231  10.535   0.342
98639SOL    HW297692   8.294  10.549   0.479
98640SOL     OW97693   3.815   8.521   7.005
98640SOL    HW197694   3.788   8.542   6.916
98640SOL    HW297695   3.799   8.427   7.014
98641SOL     OW97696   6.464  13.257   1.606
98641SOL    HW197697   6.371  13.267   1.623
98641SOL    HW297698   6.470  13.195   1.533
98642SOL     OW97699  14.614   4.664  13.494
98642SOL    HW197700  14.690   4.612  13.467
98642SOL    HW297701  14.629   4.684  13.586
98643SOL     OW97702   5.896  13.962   6.633
98643SOL    HW197703   5.842  13.905   6.688
98643SOL    HW297704   5.974  13.980   6.685
98644SOL     OW97705   8.225   7.962   8.339
98644SOL    HW197706   8.262   8.005   8.416
98644SOL    HW297707   8.258   8.013   8.265
98645SOL     OW97708  12.145  10.408  13.025
98645SOL    HW197709  12.218  10.450  13.069
98645SOL    HW297710  12.184  10.366  12.948
98646SOL     OW97711  13.205   2.560  14.736
98646SOL    HW197712  13.127   2.562  14.681
98646SOL    HW297713  13.235   2.651  14.738
98647SOL     OW97714  10.434   3.932   3.044
98647SOL    HW197715  10.371   3.890   3.102
98647SOL    HW297716  10.381   3.993   2.991
98648SOL     OW97717   7.756   9.469  11.824
98648SOL    HW197718   7.718   9.385  11.798
98648SOL    HW297719   7.765   9.463  11.919
98649SOL     OW97720   8.024   7.307   6.855
98649SOL    HW197721   8.027   7.362   6.777
98649SOL    HW297722   8.105   7.328   6.902
98650SOL     OW97723   6.899   0.493  12.378
98650SOL    HW197724   6.879   0.550  12.452
98650SOL    HW297725   6.893   0.404  12.413
98651SOL     OW97726  12.450   6.679   1.298
98651SOL    HW197727  12.477   6.636   1.216
98651SOL    HW297728  12.418   6.607   1.353
98652SOL     OW97729   6.583   1.195   4.458
98652SOL    HW197730   6.521   1.159   4.395
98652SOL    HW297731   6.550   1.166   4.543
98653SOL     OW97732   5.776   0.567  13.455
98653SOL    HW197733   5.847   0.536  13.399
98653SOL    HW297734   5.788   0.519  13.537
98654SOL     OW97735   8.749   3.791  10.713
98654SOL    HW197736   8.700   3.846  10.774
98654SOL    HW297737   8.841   3.807  10.734
98655SOL     OW97738  11.309  10.345   6.128
98655SOL    HW197739  11.256  10.380   6.198
98655SOL    HW297740  11.247  10.328   6.057
98656SOL     OW97741  12.183   3.762   5.684
98656SOL    HW197742  12.105   3.737   5.635
98656SOL    HW297743  12.160   3.846   5.724
98657SOL     OW97744   4.291   3.507  12.830
98657SOL    HW197745   4.303   3.494  12.736
98657SOL    HW297746   4.220   3.447  12.854
98658SOL     OW97747   5.271  13.757   8.798
98658SOL    HW197748   5.303  13.810   8.725
98658SOL    HW297749   5.193  13.804   8.829
98659SOL     OW97750   7.293  13.707   8.775
98659SOL    HW197751   7.383  13.679   8.790
98659SOL    HW297752   7.280  13.780   8.836
98660SOL     OW97753  11.092   9.872  13.027
98660SOL    HW197754  11.099   9.778  13.009
98660SOL    HW297755  11.025   9.879  13.095
98661SOL     OW97756   6.503  14.604   7.821
98661SOL    HW197757   6.416  14.596   7.860
98661SOL    HW297758   6.547  14.522   7.846
98662SOL     OW97759   1.109  10.775   9.103
98662SOL    HW197760   1.200  10.792   9.125
98662SOL    HW297761   1.110  10.756   9.009
98663SOL     OW97762  14.463   9.440   4.757
98663SOL    HW197763  14.537   9.416   4.812
98663SOL    HW297764  14.391   9.385   4.788
98664SOL     OW97765   6.764   3.285   8.850
98664SOL    HW197766   6.740   3.360   8.904
98664SOL    HW297767   6.686   3.230   8.849
98665SOL     OW97768   7.641   2.344   0.615
98665SOL    HW197769   7.705   2.415   0.620
98665SOL    HW297770   7.622   2.336   0.522
98666SOL     OW97771   4.349   0.279  10.041
98666SOL    HW197772   4.399   0.351  10.079
98666SOL    HW297773   4.283   0.321   9.986
98667SOL     OW97774   3.492  14.413  12.231
98667SOL    HW197775   3.555  14.343  12.214
98667SOL    HW297776   3.421  14.396  12.170
98668SOL     OW97777   1.037   7.474   2.152
98668SOL    HW197778   1.130   7.456   2.166
98668SOL    HW297779   1.015   7.427   2.072
98669SOL     OW97780  10.640  14.361  13.385
98669SOL    HW197781  10.612  14.293  13.447
98669SOL    HW297782  10.721  14.396  13.423
98670SOL     OW97783   7.273  14.369  12.811
98670SOL    HW197784   7.260  14.383  12.905
98670SOL    HW297785   7.271  14.274  12.800
98671SOL     OW97786  11.057   0.665  10.428
98671SOL    HW197787  11.092   0.690  10.342
98671SOL    HW297788  10.995   0.594  10.410
98672SOL     OW97789   3.993   8.464   1.304
98672SOL    HW197790   3.944   8.533   1.260
98672SOL    HW297791   4.056   8.511   1.360
98673SOL     OW97792   6.142  14.464   3.774
98673SOL    HW197793   6.169  14.502   3.858
98673SOL    HW297794   6.114  14.375   3.797
98674SOL     OW97795   0.365   7.032  12.402
98674SOL    HW197796   0.328   7.041  12.314
98674SOL    HW297797   0.379   6.938  12.413
98675SOL     OW97798  10.615   6.014  10.828
98675SOL    HW197799  10.578   5.989  10.913
98675SOL    HW297800  10.705   6.039  10.847
98676SOL     OW97801  14.456  10.061  11.641
98676SOL    HW197802  14.447  10.045  11.547
98676SOL    HW297803  14.514   9.992  11.672
98677SOL     OW97804   2.418   8.988   1.541
98677SOL    HW197805   2.369   9.041   1.604
98677SOL    HW297806   2.472   9.051   1.494
98678SOL     OW97807  11.637   9.830   9.696
98678SOL    HW197808  11.635   9.734   9.703
98678SOL    HW297809  11.667   9.847   9.606
98679SOL     OW97810   9.119   6.761   6.796
98679SOL    HW197811   9.166   6.816   6.733
98679SOL    HW297812   9.149   6.672   6.777
98680SOL     OW97813   7.596   9.990   9.810
98680SOL    HW197814   7.577  10.056   9.876
98680SOL    HW297815   7.682  10.015   9.775
98681SOL     OW97816  13.089   4.621   0.610
98681SOL    HW197817  13.097   4.657   0.521
98681SOL    HW297818  13.118   4.530   0.601
98682SOL     OW97819  12.168   8.230   2.713
98682SOL    HW197820  12.115   8.188   2.644
98682SOL    HW297821  12.252   8.247   2.671
98683SOL     OW97822   9.797   6.867  11.339
98683SOL    HW197823   9.871   6.814  11.367
98683SOL    HW297824   9.832   6.921  11.268
98684SOL     OW97825   5.883   7.815   1.588
98684SOL    HW197826   5.883   7.910   1.593
98684SOL    HW297827   5.832   7.795   1.509
98685SOL     OW97828   8.953   0.601   6.642
98685SOL    HW197829   8.940   0.667   6.711
98685SOL    HW297830   8.879   0.612   6.583
98686SOL     OW97831   3.789   5.428   1.544
98686SOL    HW197832   3.803   5.507   1.491
98686SOL    HW297833   3.868   5.376   1.530
98687SOL     OW97834   5.612   2.128   1.017
98687SOL    HW197835   5.668   2.152   0.943
98687SOL    HW297836   5.541   2.077   0.978
98688SOL     OW97837  13.098  13.404   1.701
98688SOL    HW197838  13.012  13.445   1.694
98688SOL    HW297839  13.092  13.325   1.648
98689SOL     OW97840   4.850   5.606   1.993
98689SOL    HW197841   4.777   5.630   2.052
98689SOL    HW297842   4.906   5.550   2.046
98690SOL     OW97843  12.752   5.928   0.233
98690SOL    HW197844  12.846   5.944   0.249
98690SOL    HW297845  12.750   5.846   0.185
98691SOL     OW97846   6.125   3.822   3.144
98691SOL    HW197847   6.201   3.861   3.188
98691SOL    HW297848   6.064   3.803   3.215
98692SOL     OW97849  10.449   4.936   8.753
98692SOL    HW197850  10.528   4.984   8.727
98692SOL    HW297851  10.381   5.003   8.754
98693SOL     OW97852   3.032  13.180  12.688
98693SOL    HW197853   3.044  13.273  12.668
98693SOL    HW297854   2.978  13.179  12.767
98694SOL     OW97855  10.381   2.316   2.841
98694SOL    HW197856  10.393   2.395   2.895
98694SOL    HW297857  10.466   2.272   2.845
98695SOL     OW97858   1.810   6.392   6.395
98695SOL    HW197859   1.779   6.371   6.483
98695SOL    HW297860   1.905   6.378   6.399
98696SOL     OW97861   9.611  11.112   1.972
98696SOL    HW197862   9.695  11.092   2.014
98696SOL    HW297863   9.546  11.093   2.040
98697SOL     OW97864   5.918   7.299   9.243
98697SOL    HW197865   5.841   7.337   9.286
98697SOL    HW297866   5.985   7.366   9.248
98698SOL     OW97867  13.237   0.232   9.811
98698SOL    HW197868  13.146   0.243   9.782
98698SOL    HW297869  13.264   0.148   9.772
98699SOL     OW97870  11.062   6.876  11.177
98699SOL    HW197871  11.071   6.971  11.189
98699SOL    HW297872  11.104   6.838  11.255
98700SOL     OW97873   2.709   7.423   8.116
98700SOL    HW197874   2.755   7.488   8.169
98700SOL    HW297875   2.766   7.346   8.118
98701SOL     OW97876   9.288  11.011   8.982
98701SOL    HW197877   9.379  11.009   9.012
98701SOL    HW297878   9.244  11.070   9.043
98702SOL     OW97879   0.860   8.660   5.268
98702SOL    HW197880   0.842   8.679   5.176
98702SOL    HW297881   0.804   8.585   5.288
98703SOL     OW97882  10.869  14.804  14.777
98703SOL    HW197883  10.900  14.714  14.761
98703SOL    HW297884  10.949  14.857  14.775
98704SOL     OW97885  12.390  12.952   6.042
98704SOL    HW197886  12.361  12.911   5.960
98704SOL    HW297887  12.313  13.001   6.072
98705SOL     OW97888  12.041   8.781   0.898
98705SOL    HW197889  12.044   8.768   0.993
98705SOL    HW297890  11.950   8.765   0.875
98706SOL     OW97891  11.417   7.805   6.990
98706SOL    HW197892  11.359   7.812   7.066
98706SOL    HW297893  11.359   7.786   6.917
98707SOL     OW97894   6.454   0.718   7.850
98707SOL    HW197895   6.488   0.683   7.768
98707SOL    HW297896   6.371   0.673   7.863
98708SOL     OW97897   1.389   2.126   0.285
98708SOL    HW197898   1.433   2.198   0.331
98708SOL    HW297899   1.300   2.125   0.322
98709SOL     OW97900   0.506   2.600   4.344
98709SOL    HW197901   0.550   2.518   4.322
98709SOL    HW297902   0.417   2.589   4.310
98710SOL     OW97903   2.858  12.478   8.542
98710SOL    HW197904   2.865  12.508   8.633
98710SOL    HW297905   2.943  12.438   8.524
98711SOL     OW97906   2.367  11.470  14.466
98711SOL    HW197907   2.312  11.408  14.418
98711SOL    HW297908   2.349  11.452  14.558
98712SOL     OW97909  11.893  13.128   3.421
98712SOL    HW197910  11.953  13.202   3.425
98712SOL    HW297911  11.872  13.109   3.512
98713SOL     OW97912  10.606   1.150  12.707
98713SOL    HW197913  10.622   1.110  12.621
98713SOL    HW297914  10.586   1.242  12.687
98714SOL     OW97915  10.757  14.695   9.256
98714SOL    HW197916  10.726  14.652   9.176
98714SOL    HW297917  10.849  14.672   9.262
98715SOL     OW97918  12.754  13.778   0.161
98715SOL    HW197919  12.753  13.689   0.197
98715SOL    HW297920  12.837  13.783   0.114
98716SOL     OW97921   5.108   8.098   4.736
98716SOL    HW197922   5.120   8.156   4.811
98716SOL    HW297923   5.064   8.152   4.670
98717SOL     OW97924   4.661  12.934  13.115
98717SOL    HW197925   4.622  13.004  13.063
98717SOL    HW297926   4.754  12.957  13.118
98718SOL     OW97927   3.691   8.475   7.905
98718SOL    HW197928   3.611   8.493   7.954
98718SOL    HW297929   3.736   8.408   7.955
98719SOL     OW97930   9.658   3.862   8.860
98719SOL    HW197931   9.752   3.846   8.863
98719SOL    HW297932   9.634   3.881   8.951
98720SOL     OW97933  14.868  11.200  14.319
98720SOL    HW197934   0.010  11.252  14.241
98720SOL    HW297935  14.867  11.109  14.289
98721SOL     OW97936   4.971  10.384   5.689
98721SOL    HW197937   4.882  10.418   5.675
98721SOL    HW297938   4.961  10.323   5.761
98722SOL     OW97939   0.259   9.760   4.448
98722SOL    HW197940   0.248   9.689   4.384
98722SOL    HW297941   0.208   9.732   4.524
98723SOL     OW97942   2.893   4.890  13.795
98723SOL    HW197943   2.805   4.926  13.804
98723SOL    HW297944   2.886   4.800  13.828
98724SOL     OW97945  13.828   1.627  13.219
98724SOL    HW197946  13.891   1.685  13.175
98724SOL    HW297947  13.787   1.682  13.286
98725SOL     OW97948   0.082   9.577   2.963
98725SOL    HW197949   0.013   9.634   2.996
98725SOL    HW297950   0.072   9.580   2.868
98726SOL     OW97951   8.308   1.549   4.740
98726SOL    HW197952   8.402   1.562   4.752
98726SOL    HW297953   8.267   1.597   4.812
98727SOL     OW97954   0.445  14.503  14.726
98727SOL    HW197955   0.525  14.526  14.679
98727SOL    HW297956   0.376  14.505  14.660
98728SOL     OW97957  13.928   0.553  14.823
98728SOL    HW197958  14.000   0.551   0.009
98728SOL    HW297959  13.942   0.634  14.774
98729SOL     OW97960  10.505   8.674  14.846
98729SOL    HW197961  10.451   8.736  14.797
98729SOL    HW297962  10.497   8.703   0.060
98730SOL     OW97963   8.830  11.164   4.172
98730SOL    HW197964   8.779  11.202   4.100
98730SOL    HW297965   8.864  11.082   4.136
98731SOL     OW97966  10.032  12.240   9.467
98731SOL    HW197967   9.951  12.235   9.517
98731SOL    HW297968  10.010  12.294   9.390
98732SOL     OW97969   8.687   2.278   7.165
98732SOL    HW197970   8.724   2.269   7.077
98732SOL    HW297971   8.748   2.336   7.211
98733SOL     OW97972   5.015  12.076   1.532
98733SOL    HW197973   5.058  12.137   1.473
98733SOL    HW297974   4.990  12.128   1.608
98734SOL     OW97975   1.923  14.329   8.135
98734SOL    HW197976   1.927  14.408   8.081
98734SOL    HW297977   1.833  14.327   8.167
98735SOL     OW97978   9.561   7.776   5.796
98735SOL    HW197979   9.628   7.815   5.851
98735SOL    HW297980   9.595   7.689   5.774
98736SOL     OW97981  12.647   0.941   3.514
98736SOL    HW197982  12.710   0.931   3.444
98736SOL    HW297983  12.699   0.965   3.591
98737SOL     OW97984   4.047   1.290   2.544
98737SOL    HW197985   4.019   1.363   2.600
98737SOL    HW297986   4.142   1.285   2.557
98738SOL     OW97987   2.718   1.296   2.123
98738SOL    HW197988   2.785   1.311   2.057
98738SOL    HW297989   2.685   1.208   2.104
98739SOL     OW97990   5.611  13.439   4.682
98739SOL    HW197991   5.620  13.346   4.662
98739SOL    HW297992   5.519  13.450   4.704
98740SOL     OW97993   2.570   0.600   1.493
98740SOL    HW197994   2.514   0.545   1.438
98740SOL    HW297995   2.514   0.626   1.566
98741SOL     OW97996   4.937  10.523   7.574
98741SOL    HW197997   4.949  10.587   7.505
98741SOL    HW297998   4.843  10.502   7.573
98742SOL     OW97999  13.962   0.695   6.031
98742SOL    HW198000  13.955   0.777   5.981
98742SOL    HW298001  13.876   0.655   6.024
98743SOL     OW98002  12.938   3.461   8.052
98743SOL    HW198003  12.915   3.475   7.960
98743SOL    HW298004  12.950   3.549   8.088
98744SOL     OW98005   6.730   8.873   6.378
98744SOL    HW198006   6.761   8.915   6.298
98744SOL    HW298007   6.791   8.901   6.446
98745SOL     OW98008   6.374  10.823  12.280
98745SOL    HW198009   6.383  10.841  12.186
98745SOL    HW298010   6.461  10.798  12.308
98746SOL     OW98011   0.722   2.145   1.958
98746SOL    HW198012   0.647   2.140   2.017
98746SOL    HW298013   0.798   2.131   2.014
98747SOL     OW98014  13.574   3.462   0.613
98747SOL    HW198015  13.479   3.472   0.620
98747SOL    HW298016  13.606   3.549   0.588
98748SOL     OW98017   8.028   8.814  12.305
98748SOL    HW198018   8.091   8.742  12.308
98748SOL    HW298019   8.030   8.844  12.214
98749SOL     OW98020  11.223   3.928   9.422
98749SOL    HW198021  11.287   4.000   9.427
98749SOL    HW298022  11.259   3.860   9.478
98750SOL     OW98023  11.093  13.745   8.187
98750SOL    HW198024  11.091  13.664   8.239
98750SOL    HW298025  11.186  13.763   8.175
98751SOL     OW98026   9.236  11.279   0.851
98751SOL    HW198027   9.236  11.337   0.927
98751SOL    HW298028   9.150  11.237   0.853
98752SOL     OW98029  10.223  13.461   4.828
98752SOL    HW198030  10.221  13.553   4.801
98752SOL    HW298031  10.146  13.452   4.885
98753SOL     OW98032   1.223   6.519   7.266
98753SOL    HW198033   1.172   6.600   7.256
98753SOL    HW298034   1.175   6.453   7.216
98754SOL     OW98035  11.828  14.570   5.066
98754SOL    HW198036  11.914  14.567   5.108
98754SOL    HW298037  11.787  14.487   5.091
98755SOL     OW98038   3.055   5.593   5.938
98755SOL    HW198039   3.089   5.512   5.975
98755SOL    HW298040   3.125   5.625   5.881
98756SOL     OW98041  11.177   6.694   9.821
98756SOL    HW198042  11.260   6.733   9.795
98756SOL    HW298043  11.142   6.657   9.739
98757SOL     OW98044  12.009   6.262   7.206
98757SOL    HW198045  11.915   6.256   7.222
98757SOL    HW298046  12.038   6.171   7.200
98758SOL     OW98047   9.803  10.091   2.358
98758SOL    HW198048   9.748  10.100   2.279
98758SOL    HW298049   9.794  10.175   2.403
98759SOL     OW98050   8.779  13.188   7.358
98759SOL    HW198051   8.708  13.139   7.316
98759SOL    HW298052   8.736  13.259   7.405
98760SOL     OW98053   0.706   3.871   4.202
98760SOL    HW198054   0.648   3.836   4.270
98760SOL    HW298055   0.755   3.795   4.170
98761SOL     OW98056  10.142   3.150   3.153
98761SOL    HW198057  10.090   3.086   3.201
98761SOL    HW298058  10.096   3.233   3.166
98762SOL     OW98059   6.573   5.351   0.746
98762SOL    HW198060   6.562   5.396   0.662
98762SOL    HW298061   6.654   5.385   0.782
98763SOL     OW98062   2.711  10.880   2.435
98763SOL    HW198063   2.750  10.820   2.371
98763SOL    HW298064   2.783  10.938   2.460
98764SOL     OW98065   7.032  11.593  10.693
98764SOL    HW198066   7.069  11.581  10.606
98764SOL    HW298067   7.037  11.507  10.734
98765SOL     OW98068   2.043  12.529   8.146
98765SOL    HW198069   2.009  12.473   8.216
98765SOL    HW298070   2.057  12.470   8.072
98766SOL     OW98071   9.252   1.848   5.769
98766SOL    HW198072   9.284   1.772   5.817
98766SOL    HW298073   9.287   1.836   5.680
98767SOL     OW98074   7.867   5.381   9.086
98767SOL    HW198075   7.961   5.384   9.065
98767SOL    HW298076   7.841   5.292   9.062
98768SOL     OW98077   5.273   4.740   9.894
98768SOL    HW198078   5.331   4.669   9.920
98768SOL    HW298079   5.332   4.809   9.863
98769SOL     OW98080   1.395  12.758   0.831
98769SOL    HW198081   1.461  12.709   0.879
98769SOL    HW298082   1.392  12.843   0.875
98770SOL     OW98083   1.695  11.596   8.189
98770SOL    HW198084   1.625  11.548   8.144
98770SOL    HW298085   1.748  11.633   8.118
98771SOL     OW98086   7.023  11.517  12.836
98771SOL    HW198087   7.072  11.545  12.914
98771SOL    HW298088   6.932  11.516  12.864
98772SOL     OW98089   0.095   7.875   9.935
98772SOL    HW198090   0.041   7.823   9.995
98772SOL    HW298091   0.135   7.810   9.878
98773SOL     OW98092   6.125  10.742  10.142
98773SOL    HW198093   6.146  10.760  10.234
98773SOL    HW298094   6.040  10.698  10.145
98774SOL     OW98095  14.361   7.099   5.385
98774SOL    HW198096  14.362   7.188   5.419
98774SOL    HW298097  14.429   7.053   5.434
98775SOL     OW98098  11.675   7.046   1.914
98775SOL    HW198099  11.725   6.995   1.850
98775SOL    HW298100  11.594   6.997   1.926
98776SOL     OW98101   0.673   3.528  14.820
98776SOL    HW198102   0.578   3.526  14.805
98776SOL    HW298103   0.705   3.446  14.782
98777SOL     OW98104  14.653  13.809  13.468
98777SOL    HW198105  14.693  13.878  13.416
98777SOL    HW298106  14.679  13.728  13.424
98778SOL     OW98107  13.251   1.862   2.651
98778SOL    HW198108  13.188   1.824   2.589
98778SOL    HW298109  13.238   1.813   2.732
98779SOL     OW98110  11.355   2.314   1.678
98779SOL    HW198111  11.274   2.265   1.690
98779SOL    HW298112  11.349   2.350   1.590
98780SOL     OW98113   2.780   1.481  13.270
98780SOL    HW198114   2.701   1.514  13.312
98780SOL    HW298115   2.820   1.424  13.336
98781SOL     OW98116   7.155   4.858  14.168
98781SOL    HW198117   7.120   4.844  14.256
98781SOL    HW298118   7.209   4.937  14.176
98782SOL     OW98119  13.484   4.980  14.034
98782SOL    HW198120  13.530   4.900  14.008
98782SOL    HW298121  13.394   4.966  14.003
98783SOL     OW98122   3.904   6.034  14.596
98783SOL    HW198123   3.836   6.095  14.566
98783SOL    HW298124   3.981   6.089  14.611
98784SOL     OW98125  12.547  13.574  12.004
98784SOL    HW198126  12.541  13.656  11.956
98784SOL    HW298127  12.611  13.591  12.073
98785SOL     OW98128   1.874   9.627  14.851
98785SOL    HW198129   1.934   9.663   0.039
98785SOL    HW298130   1.864   9.535  14.874
98786SOL     OW98131   6.870  12.879   3.901
98786SOL    HW198132   6.939  12.923   3.851
98786SOL    HW298133   6.829  12.821   3.837
98787SOL     OW98134   0.294   2.131   4.978
98787SOL    HW198135   0.316   2.068   4.910
98787SOL    HW298136   0.281   2.213   4.932
98788SOL     OW98137  13.682   1.845  14.637
98788SOL    HW198138  13.626   1.884  14.569
98788SOL    HW298139  13.681   1.909  14.708
98789SOL     OW98140   0.654   2.861   8.668
98789SOL    HW198141   0.714   2.808   8.720
98789SOL    HW298142   0.595   2.797   8.626
98790SOL     OW98143   6.920  13.636   0.606
98790SOL    HW198144   6.893  13.664   0.518
98790SOL    HW298145   7.010  13.667   0.615
98791SOL     OW98146   3.365  14.128   8.712
98791SOL    HW198147   3.423  14.072   8.764
98791SOL    HW298148   3.366  14.212   8.759
98792SOL     OW98149   3.715  12.027   5.114
98792SOL    HW198150   3.705  12.020   5.209
98792SOL    HW298151   3.741  12.118   5.100
98793SOL     OW98152  14.672  14.145   3.271
98793SOL    HW198153  14.629  14.080   3.325
98793SOL    HW298154  14.662  14.227   3.319
98794SOL     OW98155  10.684   0.567   2.486
98794SOL    HW198156  10.642   0.588   2.569
98794SOL    HW298157  10.675   0.647   2.433
98795SOL     OW98158   7.403   1.147  13.054
98795SOL    HW198159   7.477   1.113  13.103
98795SOL    HW298160   7.443   1.202  12.986
98796SOL     OW98161   3.878  14.637   6.144
98796SOL    HW198162   3.940  14.632   6.071
98796SOL    HW298163   3.895  14.723   6.184
98797SOL     OW98164   8.072   7.614   0.233
98797SOL    HW198165   8.037   7.694   0.195
98797SOL    HW298166   8.029   7.544   0.185
98798SOL     OW98167   7.144   7.823   6.660
98798SOL    HW198168   7.204   7.759   6.623
98798SOL    HW298169   7.120   7.879   6.586
98799SOL     OW98170   3.527   2.339  14.029
98799SOL    HW198171   3.474   2.412  14.062
98799SOL    HW298172   3.610   2.378  14.004
98800SOL     OW98173   1.995   6.856  13.849
98800SOL    HW198174   1.914   6.862  13.798
98800SOL    HW298175   2.037   6.776  13.818
98801SOL     OW98176  12.279   9.505  13.060
98801SOL    HW198177  12.348   9.495  13.126
98801SOL    HW298178  12.234   9.585  13.085
98802SOL     OW98179   0.268   6.484   7.505
98802SOL    HW198180   0.237   6.575   7.502
98802SOL    HW298181   0.274   6.464   7.598
98803SOL     OW98182   1.172   9.854  14.273
98803SOL    HW198183   1.238   9.843  14.342
98803SOL    HW298184   1.217   9.829  14.192
98804SOL     OW98185   2.145  10.897   0.449
98804SOL    HW198186   2.185  10.819   0.411
98804SOL    HW298187   2.086  10.929   0.381
98805SOL     OW98188  11.665   7.371  10.613
98805SOL    HW198189  11.674   7.465  10.595
98805SOL    HW298190  11.754   7.339  10.617
98806SOL     OW98191   9.417  12.424   3.536
98806SOL    HW198192   9.346  12.363   3.556
98806SOL    HW298193   9.441  12.406   3.445
98807SOL     OW98194  12.568   0.730  12.870
98807SOL    HW198195  12.595   0.650  12.825
98807SOL    HW298196  12.595   0.800  12.811
98808SOL     OW98197  10.491   0.645  12.246
98808SOL    HW198198  10.573   0.695  12.242
98808SOL    HW298199  10.458   0.645  12.156
98809SOL     OW98200  12.684   9.147  14.452
98809SOL    HW198201  12.740   9.200  14.396
98809SOL    HW298202  12.700   9.180  14.541
98810SOL     OW98203   7.986   7.699   0.475
98810SOL    HW198204   7.900   7.671   0.443
98810SOL    HW298205   8.048   7.666   0.411
98811SOL     OW98206   1.857   3.245   2.980
98811SOL    HW198207   1.878   3.247   3.073
98811SOL    HW298208   1.941   3.233   2.936
98812SOL     OW98209  14.596   4.782   6.749
98812SOL    HW198210  14.648   4.751   6.675
98812SOL    HW298211  14.543   4.706   6.774
98813SOL     OW98212  12.183   8.278   6.591
98813SOL    HW198213  12.242   8.327   6.534
98813SOL    HW298214  12.237   8.253   6.666
98814SOL     OW98215   1.958   4.935  10.901
98814SOL    HW198216   1.958   4.853  10.851
98814SOL    HW298217   1.942   4.908  10.991
98815SOL     OW98218   4.991  14.603   7.788
98815SOL    HW198219   5.066  14.629   7.735
98815SOL    HW298220   4.915  14.623   7.733
98816SOL     OW98221   8.222   8.063   7.776
98816SOL    HW198222   8.190   8.041   7.688
98816SOL    HW298223   8.310   8.027   7.779
98817SOL     OW98224   5.959   4.336   1.999
98817SOL    HW198225   5.912   4.257   1.970
98817SOL    HW298226   6.017   4.305   2.069
98818SOL     OW98227  13.003  13.406   6.406
98818SOL    HW198228  12.998  13.446   6.319
98818SOL    HW298229  13.029  13.316   6.390
98819SOL     OW98230   8.979  13.385   6.621
98819SOL    HW198231   8.907  13.339   6.578
98819SOL    HW298232   9.057  13.336   6.596
98820SOL     OW98233   1.902  12.699  13.192
98820SOL    HW198234   1.881  12.693  13.099
98820SOL    HW298235   1.820  12.727  13.233
98821SOL     OW98236  12.004   4.608   3.722
98821SOL    HW198237  11.949   4.530   3.715
98821SOL    HW298238  12.011   4.641   3.633
98822SOL     OW98239  12.756   6.771  13.769
98822SOL    HW198240  12.838   6.802  13.729
98822SOL    HW298241  12.688   6.823  13.728
98823SOL     OW98242   5.837   4.540   3.642
98823SOL    HW198243   5.901   4.473   3.618
98823SOL    HW298244   5.792   4.561   3.560
98824SOL     OW98245  13.296   8.889   8.355
98824SOL    HW198246  13.306   8.958   8.421
98824SOL    HW298247  13.323   8.931   8.273
98825SOL     OW98248   1.328  13.142   6.882
98825SOL    HW198249   1.329  13.095   6.799
98825SOL    HW298250   1.385  13.091   6.939
98826SOL     OW98251   4.638   5.799   4.174
98826SOL    HW198252   4.627   5.893   4.188
98826SOL    HW298253   4.725   5.791   4.134
98827SOL     OW98254   3.306  11.901   8.104
98827SOL    HW198255   3.282  11.977   8.157
98827SOL    HW298256   3.288  11.826   8.161
98828SOL     OW98257   9.970   8.388  12.972
98828SOL    HW198258   9.982   8.475  12.935
98828SOL    HW298259   9.917   8.402  13.051
98829SOL     OW98260   3.933   6.840  11.569
98829SOL    HW198261   3.862   6.799  11.618
98829SOL    HW298262   3.892   6.913  11.522
98830SOL     OW98263  13.499  10.069  11.616
98830SOL    HW198264  13.554  10.006  11.662
98830SOL    HW298265  13.418  10.073  11.667
98831SOL     OW98266   5.216  11.554   9.820
98831SOL    HW198267   5.268  11.622   9.863
98831SOL    HW298268   5.165  11.514   9.890
98832SOL     OW98269   8.935   0.602   0.140
98832SOL    HW198270   8.981   0.603   0.224
98832SOL    HW298271   9.003   0.586   0.075
98833SOL     OW98272  10.686   2.544   2.456
98833SOL    HW198273  10.730   2.606   2.514
98833SOL    HW298274  10.757   2.493   2.416
98834SOL     OW98275  10.650   6.808   6.466
98834SOL    HW198276  10.708   6.866   6.515
98834SOL    HW298277  10.563   6.825   6.501
98835SOL     OW98278   9.436  14.164  11.965
98835SOL    HW198279   9.397  14.220  12.032
98835SOL    HW298280   9.454  14.223  11.892
98836SOL     OW98281   9.302  14.544   7.810
98836SOL    HW198282   9.392  14.565   7.836
98836SOL    HW298283   9.252  14.623   7.830
98837SOL     OW98284  10.056   4.488   9.220
98837SOL    HW198285   9.981   4.438   9.254
98837SOL    HW298286  10.100   4.521   9.299
98838SOL     OW98287  14.327   2.727   2.421
98838SOL    HW198288  14.238   2.761   2.406
98838SOL    HW298289  14.342   2.739   2.514
98839SOL     OW98290  14.702   6.846   1.520
98839SOL    HW198291  14.742   6.797   1.591
98839SOL    HW298292  14.776   6.884   1.472
98840SOL     OW98293   8.864   3.457  10.708
98840SOL    HW198294   8.861   3.481  10.801
98840SOL    HW298295   8.828   3.533  10.662
98841SOL     OW98296   3.894   8.233   3.339
98841SOL    HW198297   3.894   8.198   3.250
98841SOL    HW298298   3.955   8.177   3.387
98842SOL     OW98299   7.626   8.884  12.347
98842SOL    HW198300   7.531   8.894  12.341
98842SOL    HW298301   7.658   8.970  12.375
98843SOL     OW98302   6.458  10.377  12.382
98843SOL    HW198303   6.383  10.368  12.440
98843SOL    HW298304   6.425  10.424  12.306
98844SOL     OW98305  11.025   2.189   3.194
98844SOL    HW198306  11.100   2.228   3.150
98844SOL    HW298307  11.058   2.167   3.282
98845SOL     OW98308   2.762   7.875   0.831
98845SOL    HW198309   2.827   7.936   0.796
98845SOL    HW298310   2.686   7.929   0.850
98846SOL     OW98311   3.812   6.112   8.165
98846SOL    HW198312   3.748   6.174   8.199
98846SOL    HW298313   3.895   6.141   8.201
98847SOL     OW98314   1.577   9.996   0.308
98847SOL    HW198315   1.526   9.946   0.244
98847SOL    HW298316   1.662  10.009   0.266
98848SOL     OW98317   6.409   7.917   8.327
98848SOL    HW198318   6.502   7.916   8.350
98848SOL    HW298319   6.397   7.840   8.271
98849SOL     OW98320   9.533   7.260   2.537
98849SOL    HW198321   9.581   7.219   2.465
98849SOL    HW298322   9.501   7.343   2.501
98850SOL     OW98323  12.273  12.873   6.998
98850SOL    HW198324  12.346  12.811   6.995
98850SOL    HW298325  12.214  12.843   6.929
98851SOL     OW98326   7.145   7.896  13.671
98851SOL    HW198327   7.098   7.850  13.741
98851SOL    HW298328   7.231   7.854  13.668
98852SOL     OW98329  14.030   3.970   3.203
98852SOL    HW198330  14.095   3.900   3.198
98852SOL    HW298331  13.947   3.924   3.213
98853SOL     OW98332  12.507   3.257   7.847
98853SOL    HW198333  12.535   3.174   7.887
98853SOL    HW298334  12.533   3.249   7.756
98854SOL     OW98335  12.926   1.706  10.358
98854SOL    HW198336  12.916   1.799  10.339
98854SOL    HW298337  13.017   1.686  10.337
98855SOL     OW98338   2.872   2.248  11.005
98855SOL    HW198339   2.798   2.223  10.949
98855SOL    HW298340   2.939   2.278  10.943
98856SOL     OW98341   2.514  13.843   6.172
98856SOL    HW198342   2.569  13.885   6.107
98856SOL    HW298343   2.569  13.775   6.211
98857SOL     OW98344   0.807   2.418   0.377
98857SOL    HW198345   0.788   2.500   0.331
98857SOL    HW298346   0.792   2.439   0.470
98858SOL     OW98347  13.016   3.384  12.074
98858SOL    HW198348  12.969   3.467  12.072
98858SOL    HW298349  12.953   3.320  12.040
98859SOL     OW98350   0.242  11.858  14.273
98859SOL    HW198351   0.187  11.788  14.307
98859SOL    HW298352   0.245  11.923  14.343
98860SOL     OW98353   4.690   7.273  10.383
98860SOL    HW198354   4.757   7.204  10.382
98860SOL    HW298355   4.609   7.227  10.362
98861SOL     OW98356  14.578   0.532   2.974
98861SOL    HW198357  14.502   0.479   2.951
98861SOL    HW298358  14.653   0.477   2.953
98862SOL     OW98359   8.143   8.530  12.295
98862SOL    HW198360   8.071   8.481  12.334
98862SOL    HW298361   8.118   8.541  12.203
98863SOL     OW98362   6.903   2.179   2.472
98863SOL    HW198363   6.956   2.104   2.449
98863SOL    HW298364   6.839   2.145   2.535
98864SOL     OW98365   8.964   2.302   3.387
98864SOL    HW198366   9.018   2.369   3.345
98864SOL    HW298367   8.977   2.317   3.481
98865SOL     OW98368  10.555   1.218   4.093
98865SOL    HW198369  10.569   1.129   4.059
98865SOL    HW298370  10.626   1.231   4.155
98866SOL     OW98371   0.783   4.037  13.991
98866SOL    HW198372   0.836   4.038  13.911
98866SOL    HW298373   0.774   4.129  14.015
98867SOL     OW98374   6.633   6.541   1.246
98867SOL    HW198375   6.610   6.598   1.173
98867SOL    HW298376   6.622   6.452   1.211
98868SOL     OW98377   6.334  12.411  11.209
98868SOL    HW198378   6.273  12.484  11.219
98868SOL    HW298379   6.323  12.382  11.119
98869SOL     OW98380   0.558  11.114   0.799
98869SOL    HW198381   0.624  11.052   0.829
98869SOL    HW298382   0.531  11.160   0.878
98870SOL     OW98383   7.934   7.137  13.986
98870SOL    HW198384   8.006   7.074  13.976
98870SOL    HW298385   7.856   7.083  14.000
98871SOL     OW98386  14.038   0.599   9.236
98871SOL    HW198387  13.944   0.617   9.230
98871SOL    HW298388  14.055   0.536   9.167
98872SOL     OW98389  12.207   2.535  12.754
98872SOL    HW198390  12.281   2.589  12.726
98872SOL    HW298391  12.187   2.481  12.678
98873SOL     OW98392  10.185   9.763  10.414
98873SOL    HW198393  10.155   9.746  10.325
98873SOL    HW298394  10.108   9.747  10.469
98874SOL     OW98395  10.974   6.788   7.729
98874SOL    HW198396  10.914   6.714   7.717
98874SOL    HW298397  10.927   6.863   7.694
98875SOL     OW98398   5.415   0.888   4.381
98875SOL    HW198399   5.387   0.959   4.324
98875SOL    HW298400   5.403   0.921   4.469
98876SOL     OW98401   4.771   5.098   6.807
98876SOL    HW198402   4.821   5.081   6.887
98876SOL    HW298403   4.762   5.193   6.803
98877SOL     OW98404   9.802   5.686  13.138
98877SOL    HW198405   9.707   5.692  13.154
98877SOL    HW298406   9.815   5.596  13.107
98878SOL     OW98407   3.118   9.524   8.985
98878SOL    HW198408   3.156   9.602   9.026
98878SOL    HW298409   3.087   9.554   8.900
98879SOL     OW98410   0.858  13.814   5.266
98879SOL    HW198411   0.903  13.788   5.346
98879SOL    HW298412   0.922  13.868   5.219
98880SOL     OW98413  10.428   7.914   9.658
98880SOL    HW198414  10.349   7.933   9.707
98880SOL    HW298415  10.443   7.820   9.671
98881SOL     OW98416   4.850  12.173   7.253
98881SOL    HW198417   4.849  12.077   7.260
98881SOL    HW298418   4.943  12.196   7.254
98882SOL     OW98419   0.379  14.595   4.185
98882SOL    HW198420   0.368  14.627   4.274
98882SOL    HW298421   0.399  14.673   4.133
98883SOL     OW98422  10.831   6.598   4.164
98883SOL    HW198423  10.854   6.644   4.244
98883SOL    HW298424  10.892   6.631   4.098
98884SOL     OW98425   8.948   5.805  10.168
98884SOL    HW198426   8.939   5.804  10.264
98884SOL    HW298427   8.861   5.825  10.136
98885SOL     OW98428  10.073  14.139   1.880
98885SOL    HW198429  10.047  14.047   1.869
98885SOL    HW298430  10.154  14.134   1.932
98886SOL     OW98431   9.135   1.915   1.233
98886SOL    HW198432   9.077   1.990   1.248
98886SOL    HW298433   9.113   1.885   1.145
98887SOL     OW98434   9.831   1.064   3.952
98887SOL    HW198435   9.870   1.087   4.036
98887SOL    HW298436   9.791   0.978   3.967
98888SOL     OW98437   8.432   6.781   9.102
98888SOL    HW198438   8.414   6.826   9.185
98888SOL    HW298439   8.408   6.844   9.034
98889SOL     OW98440   7.091  13.165  11.917
98889SOL    HW198441   7.011  13.145  11.869
98889SOL    HW298442   7.154  13.192  11.850
98890SOL     OW98443   5.422   2.494   5.378
98890SOL    HW198444   5.332   2.487   5.410
98890SOL    HW298445   5.442   2.407   5.343
98891SOL     OW98446   1.467   9.376   6.754
98891SOL    HW198447   1.442   9.449   6.810
98891SOL    HW298448   1.407   9.380   6.679
98892SOL     OW98449   8.628  12.008   6.494
98892SOL    HW198450   8.590  11.923   6.468
98892SOL    HW298451   8.649  11.997   6.586
98893SOL     OW98452   5.100   7.563   9.065
98893SOL    HW198453   5.159   7.521   9.128
98893SOL    HW298454   5.143   7.550   8.980
98894SOL     OW98455   5.268  12.122   0.229
98894SOL    HW198456   5.175  12.121   0.207
98894SOL    HW298457   5.291  12.215   0.234
98895SOL     OW98458   3.052   6.829  11.937
98895SOL    HW198459   3.080   6.775  11.863
98895SOL    HW298460   3.092   6.787  12.014
98896SOL     OW98461  10.161   5.238  10.665
98896SOL    HW198462  10.187   5.296  10.736
98896SOL    HW298463  10.232   5.174  10.658
98897SOL     OW98464  14.296  14.420   9.010
98897SOL    HW198465  14.355  14.495   9.014
98897SOL    HW298466  14.309  14.385   8.922
98898SOL     OW98467  12.802   1.438  11.208
98898SOL    HW198468  12.774   1.348  11.224
98898SOL    HW298469  12.761   1.463  11.125
98899SOL     OW98470  13.731   8.328   0.759
98899SOL    HW198471  13.640   8.309   0.782
98899SOL    HW298472  13.782   8.290   0.831
98900SOL     OW98473   5.888  12.837   3.249
98900SOL    HW198474   5.877  12.818   3.155
98900SOL    HW298475   5.885  12.933   3.254
98901SOL     OW98476   6.935   4.440  14.294
98901SOL    HW198477   6.888   4.373  14.244
98901SOL    HW298478   6.869   4.506  14.315
98902SOL     OW98479   6.124   4.857  11.500
98902SOL    HW198480   6.149   4.902  11.419
98902SOL    HW298481   6.131   4.925  11.568
98903SOL     OW98482   7.668  14.518  13.521
98903SOL    HW198483   7.730  14.555  13.583
98903SOL    HW298484   7.714  14.445  13.481
98904SOL     OW98485  13.997  11.879  12.188
98904SOL    HW198486  13.968  11.831  12.110
98904SOL    HW298487  13.983  11.819  12.260
98905SOL     OW98488   2.066  14.638   9.594
98905SOL    HW198489   2.011  14.560   9.585
98905SOL    HW298490   2.026  14.688   9.665
98906SOL     OW98491  10.523   7.338  12.830
98906SOL    HW198492  10.479   7.312  12.912
98906SOL    HW298493  10.561   7.424  12.849
98907SOL     OW98494   9.264   6.654   1.752
98907SOL    HW198495   9.343   6.604   1.773
98907SOL    HW298496   9.194   6.611   1.802
98908SOL     OW98497   4.144  11.533  12.399
98908SOL    HW198498   4.231  11.566  12.378
98908SOL    HW298499   4.161  11.453  12.449
98909SOL     OW98500  11.660   2.988   5.813
98909SOL    HW198501  11.711   3.051   5.862
98909SOL    HW298502  11.593   2.957   5.875
98910SOL     OW98503   2.541   9.479   8.906
98910SOL    HW198504   2.617   9.502   8.960
98910SOL    HW298505   2.466   9.491   8.964
98911SOL     OW98506   5.758   9.608  13.035
98911SOL    HW198507   5.702   9.685  13.021
98911SOL    HW298508   5.798   9.592  12.950
98912SOL     OW98509   4.783   3.172   0.978
98912SOL    HW198510   4.784   3.260   0.942
98912SOL    HW298511   4.775   3.184   1.073
98913SOL     OW98512   4.435  13.888   6.711
98913SOL    HW198513   4.471  13.848   6.632
98913SOL    HW298514   4.341  13.894   6.695
98914SOL     OW98515  12.822   5.712  11.199
98914SOL    HW198516  12.787   5.763  11.126
98914SOL    HW298517  12.766   5.634  11.202
98915SOL     OW98518   3.207   1.991   5.001
98915SOL    HW198519   3.289   1.996   5.050
98915SOL    HW298520   3.224   1.928   4.931
98916SOL     OW98521   1.627   3.913  12.282
98916SOL    HW198522   1.696   3.855  12.252
98916SOL    HW298523   1.551   3.891  12.228
98917SOL     OW98524   0.054   6.860   5.942
98917SOL    HW198525   0.150   6.866   5.944
98917SOL    HW298526   0.025   6.951   5.954
98918SOL     OW98527   2.293   6.460   5.393
98918SOL    HW198528   2.304   6.409   5.473
98918SOL    HW298529   2.301   6.551   5.421
98919SOL     OW98530   6.092   6.719   7.520
98919SOL    HW198531   6.067   6.704   7.612
98919SOL    HW298532   6.009   6.723   7.473
98920SOL     OW98533  14.503   1.483   0.258
98920SOL    HW198534  14.598   1.478   0.242
98920SOL    HW298535  14.465   1.498   0.171
98921SOL     OW98536   6.109   1.101   7.770
98921SOL    HW198537   6.059   1.134   7.845
98921SOL    HW298538   6.199   1.094   7.801
98922SOL     OW98539   8.551   3.562   7.293
98922SOL    HW198540   8.535   3.497   7.361
98922SOL    HW298541   8.605   3.517   7.229
98923SOL     OW98542   2.136   3.492   4.141
98923SOL    HW198543   2.172   3.469   4.227
98923SOL    HW298544   2.202   3.463   4.079
98924SOL     OW98545   3.256  12.207   0.482
98924SOL    HW198546   3.188  12.268   0.511
98924SOL    HW298547   3.293  12.172   0.563
98925SOL     OW98548   3.021   9.895  13.468
98925SOL    HW198549   2.943   9.950  13.472
98925SOL    HW298550   3.058   9.899  13.557
98926SOL     OW98551   9.039   1.787   4.783
98926SOL    HW198552   9.081   1.708   4.816
98926SOL    HW298553   9.108   1.833   4.736
98927SOL     OW98554   2.871   1.626   3.193
98927SOL    HW198555   2.926   1.680   3.250
98927SOL    HW298556   2.788   1.674   3.188
98928SOL     OW98557  13.599  10.930   5.349
98928SOL    HW198558  13.621  10.876   5.272
98928SOL    HW298559  13.598  11.020   5.316
98929SOL     OW98560   3.363  10.651  14.873
98929SOL    HW198561   3.287  10.620  14.823
98929SOL    HW298562   3.439  10.628  14.819
98930SOL     OW98563   0.714  12.647   0.837
98930SOL    HW198564   0.774  12.646   0.763
98930SOL    HW298565   0.627  12.641   0.798
98931SOL     OW98566  13.673   5.139  13.572
98931SOL    HW198567  13.584   5.123  13.542
98931SOL    HW298568  13.685   5.233  13.565
98932SOL     OW98569   1.606   0.746   1.374
98932SOL    HW198570   1.634   0.716   1.287
98932SOL    HW298571   1.676   0.719   1.433
98933SOL     OW98572   4.557   8.735  14.540
98933SOL    HW198573   4.468   8.704  14.524
98933SOL    HW298574   4.550   8.831  14.532
98934SOL     OW98575   8.727   7.787   6.787
98934SOL    HW198576   8.788   7.804   6.859
98934SOL    HW298577   8.666   7.721   6.821
98935SOL     OW98578   5.436  12.135  12.397
98935SOL    HW198579   5.457  12.092  12.479
98935SOL    HW298580   5.348  12.170  12.409
98936SOL     OW98581  11.048  13.102   7.583
98936SOL    HW198582  11.025  13.191   7.557
98936SOL    HW298583  10.964  13.055   7.582
98937SOL     OW98584   3.235   5.051   4.330
98937SOL    HW198585   3.235   5.124   4.269
98937SOL    HW298586   3.298   4.988   4.293
98938SOL     OW98587   5.563   4.376   7.625
98938SOL    HW198588   5.646   4.372   7.674
98938SOL    HW298589   5.504   4.318   7.673
98939SOL     OW98590   3.524  12.569   9.226
98939SOL    HW198591   3.456  12.635   9.240
98939SOL    HW298592   3.549  12.542   9.314
98940SOL     OW98593   5.337   9.433   7.780
98940SOL    HW198594   5.318   9.493   7.708
98940SOL    HW298595   5.433   9.428   7.783
98941SOL     OW98596   7.518  13.956   5.527
98941SOL    HW198597   7.536  14.029   5.467
98941SOL    HW298598   7.503  13.881   5.469
98942SOL     OW98599   9.769   5.784   0.176
98942SOL    HW198600   9.845   5.833   0.143
98942SOL    HW298601   9.735   5.739   0.099
98943SOL     OW98602   6.884   4.442   9.025
98943SOL    HW198603   6.832   4.510   9.067
98943SOL    HW298604   6.881   4.368   9.085
98944SOL     OW98605   6.382   5.593   9.173
98944SOL    HW198606   6.386   5.575   9.267
98944SOL    HW298607   6.289   5.611   9.156
98945SOL     OW98608   5.201  11.388   3.771
98945SOL    HW198609   5.240  11.393   3.683
98945SOL    HW298610   5.117  11.432   3.762
98946SOL     OW98611  12.535  10.406   2.414
98946SOL    HW198612  12.490  10.462   2.351
98946SOL    HW298613  12.627  10.429   2.405
98947SOL     OW98614  13.856   0.722  11.841
98947SOL    HW198615  13.893   0.636  11.864
98947SOL    HW298616  13.846   0.719  11.746
98948SOL     OW98617   4.699  10.436   1.261
98948SOL    HW198618   4.769  10.381   1.225
98948SOL    HW298619   4.651  10.379   1.320
98949SOL     OW98620   7.613  12.320  14.187
98949SOL    HW198621   7.604  12.225  14.175
98949SOL    HW298622   7.625  12.354  14.099
98950SOL     OW98623   7.948   2.203   5.372
98950SOL    HW198624   7.864   2.249   5.373
98950SOL    HW298625   8.007   2.262   5.418
98951SOL     OW98626  10.563   1.261   6.867
98951SOL    HW198627  10.614   1.182   6.884
98951SOL    HW298628  10.549   1.300   6.953
98952SOL     OW98629  13.891   7.463   7.759
98952SOL    HW198630  13.967   7.460   7.818
98952SOL    HW298631  13.843   7.382   7.778
98953SOL     OW98632   7.101   2.360  13.671
98953SOL    HW198633   7.176   2.318  13.629
98953SOL    HW298634   7.071   2.424  13.606
98954SOL     OW98635  11.808   0.357   6.850
98954SOL    HW198636  11.795   0.451   6.863
98954SOL    HW298637  11.722   0.323   6.827
98955SOL     OW98638  11.634   0.625  12.683
98955SOL    HW198639  11.684   0.662  12.756
98955SOL    HW298640  11.601   0.700  12.635
98956SOL     OW98641   9.866  14.131  12.006
98956SOL    HW198642   9.915  14.136  12.088
98956SOL    HW298643   9.916  14.186  11.945
98957SOL     OW98644   8.568   1.434   1.344
98957SOL    HW198645   8.625   1.363   1.373
98957SOL    HW298646   8.553   1.416   1.251
98958SOL     OW98647   6.974   1.365   1.065
98958SOL    HW198648   6.971   1.274   1.093
98958SOL    HW298649   7.049   1.370   1.006
98959SOL     OW98650   5.829   7.620   8.748
98959SOL    HW198651   5.811   7.711   8.725
98959SOL    HW298652   5.904   7.596   8.693
98960SOL     OW98653   7.358   7.917   9.880
98960SOL    HW198654   7.440   7.869   9.866
98960SOL    HW298655   7.383   7.987   9.941
98961SOL     OW98656   9.041   6.761   1.486
98961SOL    HW198657   9.106   6.690   1.487
98961SOL    HW298658   9.081   6.830   1.538
98962SOL     OW98659   6.823   8.326   3.077
98962SOL    HW198660   6.739   8.280   3.072
98962SOL    HW298661   6.866   8.306   2.994
98963SOL     OW98662   6.842   5.619   7.995
98963SOL    HW198663   6.880   5.707   7.990
98963SOL    HW298664   6.819   5.598   7.905
98964SOL     OW98665   6.456   4.541   0.678
98964SOL    HW198666   6.381   4.515   0.625
98964SOL    HW298667   6.531   4.532   0.620
98965SOL     OW98668   8.243  13.531   7.116
98965SOL    HW198669   8.281  13.471   7.052
98965SOL    HW298670   8.207  13.474   7.184
98966SOL     OW98671  14.836   3.836  14.595
98966SOL    HW198672  14.877   3.923  14.593
98966SOL    HW298673  14.826   3.817  14.689
98967SOL     OW98674   1.809   9.617   3.634
98967SOL    HW198675   1.821   9.548   3.569
98967SOL    HW298676   1.822   9.573   3.718
98968SOL     OW98677   0.837   0.705   8.384
98968SOL    HW198678   0.828   0.762   8.460
98968SOL    HW298679   0.747   0.693   8.352
98969SOL     OW98680   4.670   7.421   7.392
98969SOL    HW198681   4.657   7.336   7.351
98969SOL    HW298682   4.740   7.407   7.456
98970SOL     OW98683  14.564   8.676   9.602
98970SOL    HW198684  14.530   8.643   9.685
98970SOL    HW298685  14.497   8.654   9.537
98971SOL     OW98686  10.715  10.940   0.141
98971SOL    HW198687  10.782  11.008   0.150
98971SOL    HW298688  10.736  10.895   0.060
98972SOL     OW98689  12.728   4.641   3.351
98972SOL    HW198690  12.684   4.721   3.322
98972SOL    HW298691  12.674   4.570   3.316
98973SOL     OW98692  11.140   7.938  10.848
98973SOL    HW198693  11.197   7.968  10.918
98973SOL    HW298694  11.198   7.925  10.773
98974SOL     OW98695   4.742   8.335   7.328
98974SOL    HW198696   4.718   8.334   7.421
98974SOL    HW298697   4.707   8.253   7.293
98975SOL     OW98698   4.126   1.652   0.637
98975SOL    HW198699   4.032   1.665   0.642
98975SOL    HW298700   4.158   1.667   0.726
98976SOL     OW98701   1.732  11.146   9.839
98976SOL    HW198702   1.725  11.241   9.848
98976SOL    HW298703   1.817  11.124   9.877
98977SOL     OW98704  11.668  14.027   3.858
98977SOL    HW198705  11.743  14.080   3.832
98977SOL    HW298706  11.651  14.052   3.949
98978SOL     OW98707   2.167  14.270  10.065
98978SOL    HW198708   2.216  14.231  10.138
98978SOL    HW298709   2.223  14.258   9.989
98979SOL     OW98710  12.509   5.095   4.209
98979SOL    HW198711  12.422   5.062   4.188
98979SOL    HW298712  12.555   5.019   4.245
98980SOL     OW98713   0.689   5.277  14.342
98980SOL    HW198714   0.719   5.187  14.332
98980SOL    HW298715   0.601   5.270  14.378
98981SOL     OW98716  10.276   3.577   5.704
98981SOL    HW198717  10.281   3.600   5.796
98981SOL    HW298718  10.355   3.615   5.665
98982SOL     OW98719   9.249   9.405   4.157
98982SOL    HW198720   9.287   9.333   4.208
98982SOL    HW298721   9.313   9.423   4.089
98983SOL     OW98722   0.266  12.585   2.632
98983SOL    HW198723   0.340  12.645   2.623
98983SOL    HW298724   0.241  12.590   2.724
98984SOL     OW98725   7.253  12.203  10.128
98984SOL    HW198726   7.229  12.223  10.038
98984SOL    HW298727   7.264  12.108  10.130
98985SOL     OW98728  12.687   6.324   9.802
98985SOL    HW198729  12.724   6.352   9.886
98985SOL    HW298730  12.606   6.375   9.794
98986SOL     OW98731   2.823  10.860   0.858
98986SOL    HW198732   2.790  10.815   0.780
98986SOL    HW298733   2.807  10.953   0.841
98987SOL     OW98734  14.299  11.600  14.172
98987SOL    HW198735  14.325  11.656  14.246
98987SOL    HW298736  14.380  11.588  14.122
98988SOL     OW98737   5.086  10.454  10.670
98988SOL    HW198738   5.036  10.437  10.750
98988SOL    HW298739   5.144  10.526  10.693
98989SOL     OW98740   3.787   0.548   5.782
98989SOL    HW198741   3.789   0.643   5.777
98989SOL    HW298742   3.874   0.523   5.812
98990SOL     OW98743   1.971   9.815   4.753
98990SOL    HW198744   2.066   9.826   4.758
98990SOL    HW298745   1.957   9.724   4.781
98991SOL     OW98746   6.392   0.998   7.797
98991SOL    HW198747   6.454   0.927   7.811
98991SOL    HW298748   6.446   1.072   7.769
98992SOL     OW98749   2.442  11.708  10.892
98992SOL    HW198750   2.376  11.761  10.848
98992SOL    HW298751   2.509  11.691  10.825
98993SOL     OW98752   0.959   8.431   0.855
98993SOL    HW198753   0.990   8.506   0.906
98993SOL    HW298754   1.039   8.390   0.822
98994SOL     OW98755   0.019   4.205   9.760
98994SOL    HW198756   0.074   4.279   9.735
98994SOL    HW298757   0.066   4.128   9.728
98995SOL     OW98758  12.522   4.988   4.529
98995SOL    HW198759  12.617   4.996   4.516
98995SOL    HW298760  12.497   4.910   4.480
98996SOL     OW98761  10.284   6.606  13.349
98996SOL    HW198762  10.240   6.665  13.410
98996SOL    HW298763  10.298   6.659  13.271
98997SOL     OW98764   7.598   1.516   1.906
98997SOL    HW198765   7.653   1.572   1.961
98997SOL    HW298766   7.660   1.453   1.868
98998SOL     OW98767  10.805   6.456   2.873
98998SOL    HW198768  10.740   6.448   2.943
98998SOL    HW298769  10.889   6.440   2.917
98999SOL     OW98770   7.057  13.327   9.685
98999SOL    HW198771   7.058  13.240   9.645
98999SOL    HW298772   7.003  13.380   9.626
99000SOL     OW98773   3.307   8.666   3.068
99000SOL    HW198774   3.362   8.701   3.138
99000SOL    HW298775   3.249   8.604   3.112
99001SOL     OW98776   0.935   8.132  10.619
99001SOL    HW198777   1.015   8.081  10.634
99001SOL    HW298778   0.888   8.128  10.703
99002SOL     OW98779   3.450   6.418  12.628
99002SOL    HW198780   3.397   6.482  12.675
99002SOL    HW298781   3.512   6.470  12.577
99003SOL     OW98782   0.764   1.203   6.964
99003SOL    HW198783   0.827   1.133   6.980
99003SOL    HW298784   0.722   1.179   6.881
99004SOL     OW98785   2.104   8.747  10.330
99004SOL    HW198786   2.182   8.752  10.275
99004SOL    HW298787   2.118   8.813  10.398
99005SOL     OW98788   8.935   5.188  11.222
99005SOL    HW198789   8.952   5.251  11.291
99005SOL    HW298790   8.857   5.222  11.177
99006SOL     OW98791   0.023   4.540  10.179
99006SOL    HW198792   0.063   4.598  10.113
99006SOL    HW298793   0.067   4.456  10.167
99007SOL     OW98794   5.504   6.828   4.780
99007SOL    HW198795   5.554   6.874   4.713
99007SOL    HW298796   5.451   6.896   4.821
99008SOL     OW98797   5.010   6.599  13.632
99008SOL    HW198798   5.100   6.578  13.657
99008SOL    HW298799   4.987   6.674  13.686
99009SOL     OW98800  13.113  14.365   6.051
99009SOL    HW198801  13.047  14.344   6.116
99009SOL    HW298802  13.157  14.443   6.085
99010SOL     OW98803   2.168  13.379  13.615
99010SOL    HW198804   2.165  13.388  13.519
99010SOL    HW298805   2.077  13.392  13.643
99011SOL     OW98806   6.119  12.449   8.534
99011SOL    HW198807   6.157  12.529   8.499
99011SOL    HW298808   6.025  12.465   8.536
99012SOL     OW98809   5.016   6.617   4.390
99012SOL    HW198810   4.978   6.582   4.471
99012SOL    HW298811   4.963   6.694   4.370
99013SOL     OW98812   9.182   5.573  13.049
99013SOL    HW198813   9.087   5.576  13.054
99013SOL    HW298814   9.208   5.512  13.119
99014SOL     OW98815  14.074   3.772  12.450
99014SOL    HW198816  14.059   3.694  12.397
99014SOL    HW298817  14.098   3.840  12.387
99015SOL     OW98818   6.236  14.855  10.565
99015SOL    HW198819   6.239  14.804  10.484
99015SOL    HW298820   6.317   0.029  10.564
99016SOL     OW98821   8.800   0.079  10.496
99016SOL    HW198822   8.895   0.076  10.480
99016SOL    HW298823   8.779   0.173  10.493
99017SOL     OW98824  10.520   9.396   1.626
99017SOL    HW198825  10.520   9.491   1.617
99017SOL    HW298826  10.612   9.370   1.618
99018SOL     OW98827  13.982   6.216  12.217
99018SOL    HW198828  13.927   6.264  12.279
99018SOL    HW298829  13.938   6.131  12.208
99019SOL     OW98830   1.755   3.530   8.170
99019SOL    HW198831   1.674   3.579   8.159
99019SOL    HW298832   1.770   3.488   8.086
99020SOL     OW98833   8.951   3.533  10.008
99020SOL    HW198834   8.974   3.442   9.991
99020SOL    HW298835   8.899   3.530  10.088
99021SOL     OW98836  12.448   0.181   4.683
99021SOL    HW198837  12.450   0.148   4.772
99021SOL    HW298838  12.498   0.118   4.632
99022SOL     OW98839   7.370   2.902   7.980
99022SOL    HW198840   7.435   2.834   7.996
99022SOL    HW298841   7.419   2.984   7.981
99023SOL     OW98842   2.458   4.363  12.322
99023SOL    HW198843   2.399   4.292  12.349
99023SOL    HW298844   2.462   4.422  12.397
99024SOL     OW98845   6.165  10.364  11.062
99024SOL    HW198846   6.094  10.372  10.999
99024SOL    HW298847   6.153  10.277  11.100
99025SOL     OW98848  13.703  11.636   9.957
99025SOL    HW198849  13.684  11.677   9.872
99025SOL    HW298850  13.793  11.663   9.977
99026SOL     OW98851   3.870   7.957  12.749
99026SOL    HW198852   3.816   7.931  12.823
99026SOL    HW298853   3.868   7.882  12.689
99027SOL     OW98854   7.379   4.987   2.583
99027SOL    HW198855   7.358   4.941   2.501
99027SOL    HW298856   7.457   4.942   2.616
99028SOL     OW98857  14.679  14.768  11.224
99028SOL    HW198858  14.672  14.860  11.248
99028SOL    HW298859  14.614  14.756  11.154
99029SOL     OW98860  11.705   1.923  12.350
99029SOL    HW198861  11.736   1.897  12.437
99029SOL    HW298862  11.624   1.873  12.338
99030SOL     OW98863   6.435   8.945   3.174
99030SOL    HW198864   6.508   8.972   3.118
99030SOL    HW298865   6.435   9.009   3.245
99031SOL     OW98866   4.353   1.317   2.555
99031SOL    HW198867   4.353   1.412   2.538
99031SOL    HW298868   4.425   1.304   2.617
99032SOL     OW98869  13.530  14.790   2.259
99032SOL    HW198870  13.528   0.004   2.230
99032SOL    HW298871  13.555  14.794   2.351
99033SOL     OW98872   8.140   0.057   6.987
99033SOL    HW198873   8.064  14.877   6.978
99033SOL    HW298874   8.163   0.079   6.897
99034SOL     OW98875  11.505   3.284  12.990
99034SOL    HW198876  11.594   3.315  12.975
99034SOL    HW298877  11.509   3.189  12.973
99035SOL     OW98878   0.646   6.858  13.338
99035SOL    HW198879   0.642   6.884  13.246
99035SOL    HW298880   0.712   6.917  13.376
99036SOL     OW98881   5.080  13.845   5.751
99036SOL    HW198882   5.045  13.793   5.679
99036SOL    HW298883   5.126  13.782   5.807
99037SOL     OW98884   3.871   2.997   9.526
99037SOL    HW198885   3.959   3.008   9.491
99037SOL    HW298886   3.874   2.915   9.575
99038SOL     OW98887   5.559   8.122   5.877
99038SOL    HW198888   5.476   8.144   5.920
99038SOL    HW298889   5.538   8.050   5.818
99039SOL     OW98890  10.608   7.430   0.873
99039SOL    HW198891  10.595   7.521   0.899
99039SOL    HW298892  10.523   7.401   0.841
99040SOL     OW98893   1.751  12.369   6.605
99040SOL    HW198894   1.819  12.406   6.661
99040SOL    HW298895   1.701  12.311   6.662
99041SOL     OW98896  11.008  10.706  12.338
99041SOL    HW198897  10.997  10.619  12.300
99041SOL    HW298898  11.100  10.728  12.322
99042SOL     OW98899   1.092   6.152   3.127
99042SOL    HW198900   1.146   6.110   3.060
99042SOL    HW298901   1.046   6.080   3.170
99043SOL     OW98902  10.801  11.706   9.714
99043SOL    HW198903  10.858  11.780   9.692
99043SOL    HW298904  10.828  11.636   9.655
99044SOL     OW98905   7.977  14.738  14.746
99044SOL    HW198906   7.954  14.815  14.798
99044SOL    HW298907   7.974  14.665  14.808
99045SOL     OW98908   4.601   9.043   8.058
99045SOL    HW198909   4.554   9.070   7.979
99045SOL    HW298910   4.533   9.036   8.125
99046SOL     OW98911  13.581   8.035   5.863
99046SOL    HW198912  13.672   8.020   5.836
99046SOL    HW298913  13.576   8.129   5.880
99047SOL     OW98914   2.222   1.163   5.184
99047SOL    HW198915   2.145   1.116   5.152
99047SOL    HW298916   2.263   1.199   5.106
99048SOL     OW98917  10.502   3.917   0.321
99048SOL    HW198918  10.480   4.010   0.323
99048SOL    HW298919  10.476   3.888   0.234
99049SOL     OW98920   1.903   1.676  13.992
99049SOL    HW198921   1.936   1.766  13.989
99049SOL    HW298922   1.886   1.659  14.084
99050SOL     OW98923   3.134   6.922   7.203
99050SOL    HW198924   3.074   6.892   7.135
99050SOL    HW298925   3.098   7.007   7.230
99051SOL     OW98926  11.350   1.299   9.769
99051SOL    HW198927  11.405   1.306   9.691
99051SOL    HW298928  11.399   1.343   9.837
99052SOL     OW98929  12.580   5.703   9.818
99052SOL    HW198930  12.495   5.681   9.778
99052SOL    HW298931  12.572   5.796   9.840
99053SOL     OW98932   6.635  14.714   2.590
99053SOL    HW198933   6.716  14.743   2.632
99053SOL    HW298934   6.662  14.673   2.509
99054SOL     OW98935   9.049   1.748   6.718
99054SOL    HW198936   9.066   1.660   6.684
99054SOL    HW298937   9.047   1.737   6.813
99055SOL     OW98938  11.601  11.070  13.907
99055SOL    HW198939  11.540  11.002  13.935
99055SOL    HW298940  11.555  11.115  13.836
99056SOL     OW98941   0.344   9.551   5.467
99056SOL    HW198942   0.400   9.623   5.497
99056SOL    HW298943   0.255   9.581   5.485
99057SOL     OW98944   5.130   7.484   4.677
99057SOL    HW198945   5.047   7.460   4.717
99057SOL    HW298946   5.196   7.451   4.738
99058SOL     OW98947   4.132  10.589  11.309
99058SOL    HW198948   4.095  10.604  11.222
99058SOL    HW298949   4.064  10.619  11.369
99059SOL     OW98950   7.306   5.714   0.723
99059SOL    HW198951   7.384   5.684   0.770
99059SOL    HW298952   7.324   5.692   0.631
99060SOL     OW98953   2.727  14.575   3.113
99060SOL    HW198954   2.636  14.570   3.143
99060SOL    HW298955   2.723  14.551   3.020
99061SOL     OW98956   7.706   3.992   6.281
99061SOL    HW198957   7.623   4.039   6.278
99061SOL    HW298958   7.682   3.900   6.266
99062SOL     OW98959  13.868   1.439  11.996
99062SOL    HW198960  13.956   1.475  11.993
99062SOL    HW298961  13.853   1.419  12.089
99063SOL     OW98962   2.076   0.988  10.625
99063SOL    HW198963   2.083   0.907  10.575
99063SOL    HW298964   1.988   0.985  10.662
99064SOL     OW98965   0.276  14.681  12.622
99064SOL    HW198966   0.270  14.604  12.565
99064SOL    HW298967   0.310  14.751  12.566
99065SOL     OW98968  13.318  12.133   2.756
99065SOL    HW198969  13.346  12.222   2.733
99065SOL    HW298970  13.372  12.076   2.701
99066SOL     OW98971  10.817   7.734   3.838
99066SOL    HW198972  10.814   7.743   3.743
99066SOL    HW298973  10.904   7.700   3.857
99067SOL     OW98974   4.860   7.082   7.693
99067SOL    HW198975   4.772   7.051   7.716
99067SOL    HW298976   4.872   7.054   7.602
99068SOL     OW98977   3.445  10.247  13.729
99068SOL    HW198978   3.486  10.260  13.643
99068SOL    HW298979   3.514  10.270  13.791
99069SOL     OW98980  13.481   7.825  14.251
99069SOL    HW198981  13.460   7.906  14.203
99069SOL    HW298982  13.541   7.854  14.321
99070SOL     OW98983   8.073  10.900  10.795
99070SOL    HW198984   8.145  10.850  10.758
99070SOL    HW298985   8.040  10.953  10.722
99071SOL     OW98986  13.363   1.713   2.445
99071SOL    HW198987  13.382   1.758   2.528
99071SOL    HW298988  13.448   1.704   2.403
99072SOL     OW98989   7.199   2.010   4.783
99072SOL    HW198990   7.260   1.961   4.728
99072SOL    HW298991   7.124   2.027   4.726
99073SOL     OW98992   2.749  14.317   0.353
99073SOL    HW198993   2.817  14.257   0.384
99073SOL    HW298994   2.749  14.388   0.417
99074SOL     OW98995   6.613  10.786  13.762
99074SOL    HW198996   6.541  10.849  13.761
99074SOL    HW298997   6.594  10.727  13.689
99075SOL     OW98998  10.568  13.769   6.943
99075SOL    HW198999  10.544  13.845   6.890
99075SOL    HW299000  10.624  13.717   6.885
99076SOL     OW99001  12.305  10.238   0.161
99076SOL    HW199002  12.319  10.327   0.127
99076SOL    HW299003  12.287  10.251   0.254
99077SOL     OW99004   8.768  13.355   9.590
99077SOL    HW199005   8.751  13.448   9.574
99077SOL    HW299006   8.805  13.352   9.678
99078SOL     OW99007  14.788   4.411   3.355
99078SOL    HW199008  14.751   4.483   3.303
99078SOL    HW299009  14.760   4.332   3.309
99079SOL     OW99010  11.600  11.959  12.669
99079SOL    HW199011  11.555  12.031  12.627
99079SOL    HW299012  11.672  12.000  12.717
99080SOL     OW99013   4.051  11.191  12.769
99080SOL    HW199014   4.120  11.207  12.833
99080SOL    HW299015   3.970  11.189  12.821
99081SOL     OW99016   0.261   0.045  14.736
99081SOL    HW199017   0.322   0.061  14.807
99081SOL    HW299018   0.190   0.107  14.751
99082SOL     OW99019   6.021   0.811  10.677
99082SOL    HW199020   6.035   0.882  10.739
99082SOL    HW299021   6.003   0.734  10.732
99083SOL     OW99022  14.547   7.445   8.657
99083SOL    HW199023  14.475   7.421   8.599
99083SOL    HW299024  14.626   7.427   8.607
99084SOL     OW99025   6.484   3.135  11.720
99084SOL    HW199026   6.483   3.123  11.625
99084SOL    HW299027   6.427   3.065  11.753
99085SOL     OW99028   7.736   9.942   0.655
99085SOL    HW199029   7.653   9.985   0.676
99085SOL    HW299030   7.745   9.872   0.720
99086SOL     OW99031  11.261   1.949   1.858
99086SOL    HW199032  11.282   1.856   1.851
99086SOL    HW299033  11.347   1.992   1.862
99087SOL     OW99034   5.381   2.594   8.781
99087SOL    HW199035   5.464   2.599   8.735
99087SOL    HW299036   5.328   2.664   8.744
99088SOL     OW99037  11.203   9.104  13.896
99088SOL    HW199038  11.247   9.082  13.979
99088SOL    HW299039  11.183   9.019  13.856
99089SOL     OW99040  10.122   7.044   1.213
99089SOL    HW199041  10.209   7.029   1.176
99089SOL    HW299042  10.119   7.138   1.231
99090SOL     OW99043  11.503   2.234   1.908
99090SOL    HW199044  11.481   2.293   1.835
99090SOL    HW299045  11.532   2.153   1.866
99091SOL     OW99046   1.191   4.435   5.347
99091SOL    HW199047   1.233   4.355   5.316
99091SOL    HW299048   1.166   4.416   5.437
99092SOL     OW99049   6.686  14.149   2.203
99092SOL    HW199050   6.661  14.198   2.281
99092SOL    HW299051   6.689  14.058   2.231
99093SOL     OW99052   7.840   1.927   1.503
99093SOL    HW199053   7.933   1.906   1.508
99093SOL    HW299054   7.801   1.852   1.459
99094SOL     OW99055   2.860   3.507   6.810
99094SOL    HW199056   2.852   3.521   6.716
99094SOL    HW299057   2.779   3.461   6.835
99095SOL     OW99058   0.946  12.530  10.024
99095SOL    HW199059   0.897  12.573  10.094
99095SOL    HW299060   0.902  12.559   9.943
99096SOL     OW99061   3.310   7.576   6.402
99096SOL    HW199062   3.279   7.662   6.372
99096SOL    HW299063   3.332   7.589   6.494
99097SOL     OW99064  11.671  13.141   4.372
99097SOL    HW199065  11.708  13.229   4.372
99097SOL    HW299066  11.743  13.085   4.400
99098SOL     OW99067   0.013  12.294  11.315
99098SOL    HW199068   0.074  12.254  11.377
99098SOL    HW299069   0.054  12.283  11.230
99099SOL     OW99070   3.656   1.755  13.771
99099SOL    HW199071   3.696   1.841  13.759
99099SOL    HW299072   3.569   1.763  13.732
99100SOL     OW99073   8.193  12.095   3.508
99100SOL    HW199074   8.173  12.185   3.482
99100SOL    HW299075   8.208  12.100   3.602
99101SOL     OW99076   6.160   4.629   9.423
99101SOL    HW199077   6.090   4.692   9.442
99101SOL    HW299078   6.122   4.570   9.357
99102SOL     OW99079   2.939  13.208   3.197
99102SOL    HW199080   2.986  13.125   3.204
99102SOL    HW299081   2.949  13.233   3.105
99103SOL     OW99082  14.022   9.899   4.936
99103SOL    HW199083  14.114   9.902   4.960
99103SOL    HW299084  14.000   9.806   4.932
99104SOL     OW99085   8.389   7.174   7.822
99104SOL    HW199086   8.354   7.143   7.905
99104SOL    HW299087   8.474   7.212   7.844
99105SOL     OW99088   6.745   8.916  11.479
99105SOL    HW199089   6.658   8.950  11.458
99105SOL    HW299090   6.795   8.927  11.399
99106SOL     OW99091  14.240   4.915   9.543
99106SOL    HW199092  14.265   4.914   9.450
99106SOL    HW299093  14.311   4.961   9.587
99107SOL     OW99094   6.420   2.765   0.131
99107SOL    HW199095   6.480   2.798   0.198
99107SOL    HW299096   6.333   2.772   0.171
99108SOL     OW99097   3.239   2.601   1.449
99108SOL    HW199098   3.227   2.510   1.477
99108SOL    HW299099   3.319   2.629   1.494
99109SOL     OW99100   7.657   0.811  14.677
99109SOL    HW199101   7.743   0.779  14.703
99109SOL    HW299102   7.634   0.876  14.744
99110SOL     OW99103   7.216   3.994   1.848
99110SOL    HW199104   7.157   4.069   1.857
99110SOL    HW299105   7.247   4.000   1.758
99111SOL     OW99106  14.086   8.100   0.078
99111SOL    HW199107  14.060   8.160   0.149
99111SOL    HW299108  14.004   8.078   0.035
99112SOL     OW99109   5.602   4.379   8.578
99112SOL    HW199110   5.635   4.428   8.654
99112SOL    HW299111   5.536   4.320   8.614
99113SOL     OW99112   9.403   8.554   4.284
99113SOL    HW199113   9.417   8.603   4.365
99113SOL    HW299114   9.314   8.520   4.291
99114SOL     OW99115  14.840   8.807   2.027
99114SOL    HW199116  14.758   8.780   2.068
99114SOL    HW299117  14.836   8.768   1.939
99115SOL     OW99118   0.084  13.929   8.028
99115SOL    HW199119   0.174  13.938   8.060
99115SOL    HW299120   0.092  13.888   7.942
99116SOL     OW99121   6.554   7.889   0.110
99116SOL    HW199122   6.634   7.890   0.162
99116SOL    HW299123   6.495   7.830   0.157
99117SOL     OW99124   1.454   4.360   3.619
99117SOL    HW199125   1.487   4.314   3.696
99117SOL    HW299126   1.376   4.405   3.650
99118SOL     OW99127   8.990  10.539   5.186
99118SOL    HW199128   8.962  10.458   5.142
99118SOL    HW299129   8.936  10.543   5.265
99119SOL     OW99130  14.660  14.294   3.670
99119SOL    HW199131  14.697  14.375   3.707
99119SOL    HW299132  14.727  14.228   3.687
99120SOL     OW99133   4.485   1.199  10.933
99120SOL    HW199134   4.418   1.137  10.904
99120SOL    HW299135   4.505   1.250  10.855
99121SOL     OW99136   9.795   5.407  13.138
99121SOL    HW199137   9.869   5.346  13.136
99121SOL    HW299138   9.750   5.388  13.220
99122SOL     OW99139   0.793  13.553  14.132
99122SOL    HW199140   0.811  13.494  14.059
99122SOL    HW299141   0.807  13.641  14.096
99123SOL     OW99142  10.107   0.218   6.925
99123SOL    HW199143  10.107   0.236   6.831
99123SOL    HW299144  10.026   0.170   6.940
99124SOL     OW99145   8.177   6.360   8.339
99124SOL    HW199146   8.095   6.405   8.319
99124SOL    HW299147   8.196   6.384   8.430
99125SOL     OW99148   1.907   0.713  14.741
99125SOL    HW199149   1.845   0.714  14.668
99125SOL    HW299150   1.856   0.745  14.815
99126SOL     OW99151   9.600  12.898  11.434
99126SOL    HW199152   9.686  12.885  11.474
99126SOL    HW299153   9.545  12.928  11.507
99127SOL     OW99154   1.841   1.535   9.073
99127SOL    HW199155   1.924   1.540   9.026
99127SOL    HW299156   1.782   1.592   9.025
99128SOL     OW99157   3.394   5.048  13.861
99128SOL    HW199158   3.340   5.052  13.782
99128SOL    HW299159   3.381   4.959  13.895
99129SOL     OW99160  12.658   8.425   3.217
99129SOL    HW199161  12.653   8.416   3.312
99129SOL    HW299162  12.723   8.493   3.202
99130SOL     OW99163  10.652   4.884  14.139
99130SOL    HW199164  10.561   4.878  14.168
99130SOL    HW299165  10.700   4.830  14.203
99131SOL     OW99166   6.910   5.750   0.856
99131SOL    HW199167   6.965   5.767   0.933
99131SOL    HW299168   6.969   5.759   0.781
99132SOL     OW99169  13.442   9.128  10.334
99132SOL    HW199170  13.443   9.032  10.339
99132SOL    HW299171  13.400   9.156  10.416
99133SOL     OW99172   4.815   2.832   4.826
99133SOL    HW199173   4.874   2.887   4.877
99133SOL    HW299174   4.845   2.743   4.840
99134SOL     OW99175   2.278   7.537  12.607
99134SOL    HW199176   2.335   7.570  12.539
99134SOL    HW299177   2.331   7.540  12.687
99135SOL     OW99178   8.283   1.511   4.465
99135SOL    HW199179   8.319   1.519   4.553
99135SOL    HW299180   8.188   1.508   4.477
99136SOL     OW99181   7.490   9.901   0.155
99136SOL    HW199182   7.532   9.898   0.240
99136SOL    HW299183   7.400   9.928   0.174
99137SOL     OW99184   4.538  10.956   5.815
99137SOL    HW199185   4.533  11.021   5.745
99137SOL    HW299186   4.513  11.003   5.894
99138SOL     OW99187   8.116   5.682   5.524
99138SOL    HW199188   8.057   5.661   5.596
99138SOL    HW299189   8.125   5.777   5.527
99139SOL     OW99190   1.261   3.463   2.765
99139SOL    HW199191   1.349   3.477   2.730
99139SOL    HW299192   1.239   3.546   2.807
99140SOL     OW99193   5.564   2.024   6.559
99140SOL    HW199194   5.605   2.090   6.615
99140SOL    HW299195   5.566   2.063   6.472
99141SOL     OW99196   9.782  12.348  12.534
99141SOL    HW199197   9.760  12.437  12.508
99141SOL    HW299198   9.698  12.302  12.537
99142SOL     OW99199   1.118   6.145   3.682
99142SOL    HW199200   1.178   6.074   3.704
99142SOL    HW299201   1.098   6.132   3.590
99143SOL     OW99202   4.713   7.515  14.251
99143SOL    HW199203   4.637   7.513  14.308
99143SOL    HW299204   4.777   7.457  14.293
99144SOL     OW99205   9.972   7.295  11.238
99144SOL    HW199206   9.890   7.342  11.253
99144SOL    HW299207  10.020   7.305  11.320
99145SOL     OW99208  11.176  14.648  11.510
99145SOL    HW199209  11.262  14.677  11.480
99145SOL    HW299210  11.120  14.654  11.432
99146SOL     OW99211   3.989   6.209   8.381
99146SOL    HW199212   3.917   6.256   8.422
99146SOL    HW299213   4.017   6.265   8.308
99147SOL     OW99214  11.115   9.861  13.574
99147SOL    HW199215  11.024   9.849  13.600
99147SOL    HW299216  11.150   9.772  13.567
99148SOL     OW99217  13.664   7.980  10.627
99148SOL    HW199218  13.644   8.040  10.555
99148SOL    HW299219  13.624   7.897  10.600
99149SOL     OW99220  10.015   2.255   2.005
99149SOL    HW199221   9.973   2.249   2.090
99149SOL    HW299222   9.965   2.196   1.948
99150SOL     OW99223  13.948   2.763   4.085
99150SOL    HW199224  13.941   2.748   4.179
99150SOL    HW299225  14.039   2.789   4.071
99151SOL     OW99226   1.367   7.607  14.466
99151SOL    HW199227   1.317   7.657  14.531
99151SOL    HW299228   1.395   7.528  14.513
99152SOL     OW99229  13.799   8.166  10.216
99152SOL    HW199230  13.798   8.250  10.263
99152SOL    HW299231  13.745   8.181  10.139
99153SOL     OW99232   7.894  13.360   9.430
99153SOL    HW199233   7.987  13.339   9.416
99153SOL    HW299234   7.851  13.333   9.349
99154SOL     OW99235  14.745   1.546   3.957
99154SOL    HW199236  14.689   1.608   3.910
99154SOL    HW299237  14.833   1.585   3.953
99155SOL     OW99238  11.099  13.081  11.380
99155SOL    HW199239  11.152  13.038  11.313
99155SOL    HW299240  11.149  13.069  11.461
99156SOL     OW99241  12.944   9.352   9.014
99156SOL    HW199242  12.917   9.320   9.100
99156SOL    HW299243  12.946   9.274   8.959
99157SOL     OW99244   0.481   3.389  11.700
99157SOL    HW199245   0.488   3.433  11.785
99157SOL    HW299246   0.508   3.456  11.637
99158SOL     OW99247   2.950  13.607   8.477
99158SOL    HW199248   2.936  13.679   8.538
99158SOL    HW299249   3.020  13.637   8.419
99159SOL     OW99250   2.014   0.128   8.876
99159SOL    HW199251   1.970   0.203   8.916
99159SOL    HW299252   2.076   0.098   8.942
99160SOL     OW99253  12.584   9.996   2.247
99160SOL    HW199254  12.670  10.030   2.273
99160SOL    HW299255  12.522  10.057   2.286
99161SOL     OW99256  11.202  13.717  12.810
99161SOL    HW199257  11.240  13.691  12.726
99161SOL    HW299258  11.258  13.790  12.839
99162SOL     OW99259   4.726   2.740   5.606
99162SOL    HW199260   4.759   2.764   5.692
99162SOL    HW299261   4.655   2.678   5.624
99163SOL     OW99262  11.760   0.660   3.321
99163SOL    HW199263  11.815   0.643   3.398
99163SOL    HW299264  11.800   0.609   3.251
99164SOL     OW99265   9.206  10.899   8.440
99164SOL    HW199266   9.194  10.991   8.415
99164SOL    HW299267   9.219  10.901   8.535
99165SOL     OW99268   2.558   3.732  10.591
99165SOL    HW199269   2.592   3.666  10.652
99165SOL    HW299270   2.463   3.716  10.589
99166SOL     OW99271   3.300  12.886   3.221
99166SOL    HW199272   3.330  12.796   3.229
99166SOL    HW299273   3.346  12.933   3.291
99167SOL     OW99274  12.390  10.782  11.461
99167SOL    HW199275  12.412  10.728  11.385
99167SOL    HW299276  12.345  10.858  11.425
99168SOL     OW99277   7.319   6.626  13.332
99168SOL    HW199278   7.310   6.630  13.237
99168SOL    HW299279   7.230   6.612  13.365
99169SOL     OW99280  11.110   6.755   3.407
99169SOL    HW199281  11.033   6.765   3.351
99169SOL    HW299282  11.144   6.843   3.418
99170SOL     OW99283   1.230   4.959   5.357
99170SOL    HW199284   1.216   4.959   5.452
99170SOL    HW299285   1.165   4.897   5.323
99171SOL     OW99286  12.998  10.273   8.402
99171SOL    HW199287  12.987  10.196   8.346
99171SOL    HW299288  12.974  10.243   8.490
99172SOL     OW99289  10.535   5.752   9.136
99172SOL    HW199290  10.571   5.762   9.224
99172SOL    HW299291  10.470   5.822   9.128
99173SOL     OW99292   2.613  11.483  12.085
99173SOL    HW199293   2.617  11.494  11.990
99173SOL    HW299294   2.637  11.568  12.120
99174SOL     OW99295   9.113  13.839   3.369
99174SOL    HW199296   9.030  13.792   3.362
99174SOL    HW299297   9.169  13.781   3.421
99175SOL     OW99298  13.646   5.206   9.236
99175SOL    HW199299  13.620   5.249   9.317
99175SOL    HW299300  13.630   5.113   9.252
99176SOL     OW99301  13.567  14.362  11.203
99176SOL    HW199302  13.661  14.345  11.204
99176SOL    HW299303  13.540  14.343  11.113
99177SOL     OW99304  11.110   5.713  10.255
99177SOL    HW199305  11.026   5.740  10.218
99177SOL    HW299306  11.133   5.633  10.207
99178SOL     OW99307  14.298  12.705  10.486
99178SOL    HW199308  14.255  12.780  10.445
99178SOL    HW299309  14.287  12.719  10.580
99179SOL     OW99310   3.286   9.905   1.658
99179SOL    HW199311   3.222   9.901   1.587
99179SOL    HW299312   3.270   9.825   1.709
99180SOL     OW99313   1.208  13.616   2.100
99180SOL    HW199314   1.244  13.528   2.089
99180SOL    HW299315   1.253  13.651   2.176
99181SOL     OW99316  10.942   1.235   0.992
99181SOL    HW199317  10.885   1.250   1.068
99181SOL    HW299318  11.028   1.269   1.019
99182SOL     OW99319   5.230   7.575   0.994
99182SOL    HW199320   5.193   7.633   0.928
99182SOL    HW299321   5.155   7.543   1.043
99183SOL     OW99322  11.644   6.904  11.341
99183SOL    HW199323  11.559   6.859  11.341
99183SOL    HW299324  11.651   6.942  11.428
99184SOL     OW99325   7.679   7.012  10.682
99184SOL    HW199326   7.648   6.932  10.639
99184SOL    HW299327   7.714   7.065  10.610
99185SOL     OW99328   0.463   1.141   9.457
99185SOL    HW199329   0.407   1.219   9.457
99185SOL    HW299330   0.423   1.082   9.521
99186SOL     OW99331   0.972   3.250   8.199
99186SOL    HW199332   0.892   3.292   8.230
99186SOL    HW299333   0.943   3.190   8.131
99187SOL     OW99334   9.823   2.552  11.996
99187SOL    HW199335   9.839   2.458  11.996
99187SOL    HW299336   9.911   2.591  12.003
99188SOL     OW99337   5.140   2.192   7.114
99188SOL    HW199338   5.095   2.230   7.190
99188SOL    HW299339   5.216   2.148   7.151
99189SOL     OW99340  11.962   9.750   5.257
99189SOL    HW199341  11.947   9.775   5.348
99189SOL    HW299342  12.054   9.723   5.255
99190SOL     OW99343   2.929  12.924  11.749
99190SOL    HW199344   2.928  12.873  11.830
99190SOL    HW299345   2.849  12.976  11.753
99191SOL     OW99346  10.605   9.602  11.982
99191SOL    HW199347  10.556   9.624  12.062
99191SOL    HW299348  10.653   9.523  12.006
99192SOL     OW99349   0.547   7.039   6.643
99192SOL    HW199350   0.452   7.054   6.638
99192SOL    HW299351   0.586   7.118   6.606
99193SOL     OW99352   4.723   0.209   1.523
99193SOL    HW199353   4.697   0.148   1.591
99193SOL    HW299354   4.642   0.252   1.496
99194SOL     OW99355   7.487   8.960   7.767
99194SOL    HW199356   7.460   8.893   7.830
99194SOL    HW299357   7.523   9.030   7.822
99195SOL     OW99358  14.045  14.599  13.529
99195SOL    HW199359  14.109  14.591  13.600
99195SOL    HW299360  14.085  14.552  13.456
99196SOL     OW99361   9.142  10.766   5.830
99196SOL    HW199362   9.227  10.788   5.868
99196SOL    HW299363   9.144  10.804   5.742
99197SOL     OW99364   8.557   8.360   7.191
99197SOL    HW199365   8.615   8.337   7.264
99197SOL    HW299366   8.617   8.382   7.119
99198SOL     OW99367   0.680   1.859   4.460
99198SOL    HW199368   0.769   1.825   4.450
99198SOL    HW299369   0.637   1.798   4.519
99199SOL     OW99370  12.794  12.442  13.087
99199SOL    HW199371  12.718  12.426  13.031
99199SOL    HW299372  12.770  12.403  13.171
99200SOL     OW99373   1.049   1.532   2.427
99200SOL    HW199374   1.061   1.442   2.396
99200SOL    HW299375   0.954   1.545   2.426
99201SOL     OW99376   7.048   2.941   6.077
99201SOL    HW199377   6.974   2.948   6.017
99201SOL    HW299378   7.060   2.847   6.089
99202SOL     OW99379  11.712   6.866   6.256
99202SOL    HW199380  11.730   6.834   6.167
99202SOL    HW299381  11.645   6.933   6.244
99203SOL     OW99382   0.359   5.469   5.079
99203SOL    HW199383   0.284   5.464   5.020
99203SOL    HW299384   0.431   5.430   5.030
99204SOL     OW99385   4.425  12.543   6.499
99204SOL    HW199386   4.451  12.585   6.581
99204SOL    HW299387   4.485  12.469   6.489
99205SOL     OW99388  10.746   7.976   6.274
99205SOL    HW199389  10.666   7.931   6.300
99205SOL    HW299390  10.761   7.948   6.183
99206SOL     OW99391   1.841   3.161  12.271
99206SOL    HW199392   1.926   3.192  12.303
99206SOL    HW299393   1.847   3.167  12.176
99207SOL     OW99394  14.312   1.105   5.670
99207SOL    HW199395  14.334   1.144   5.755
99207SOL    HW299396  14.374   1.032   5.660
99208SOL     OW99397   6.432   9.698   3.278
99208SOL    HW199398   6.376   9.643   3.334
99208SOL    HW299399   6.375   9.770   3.252
99209SOL     OW99400  10.539  13.672   2.405
99209SOL    HW199401  10.572  13.605   2.465
99209SOL    HW299402  10.482  13.625   2.345
99210SOL     OW99403   6.122  14.432   5.098
99210SOL    HW199404   6.212  14.452   5.071
99210SOL    HW299405   6.071  14.439   5.017
99211SOL     OW99406   2.285   5.561   1.277
99211SOL    HW199407   2.265   5.629   1.212
99211SOL    HW299408   2.262   5.479   1.233
99212SOL     OW99409   1.552  14.507   3.086
99212SOL    HW199410   1.525  14.444   3.154
99212SOL    HW299411   1.584  14.452   3.015
99213SOL     OW99412  10.619   3.809  11.362
99213SOL    HW199413  10.674   3.784  11.436
99213SOL    HW299414  10.577   3.728  11.334
99214SOL     OW99415   7.063   6.368  13.143
99214SOL    HW199416   7.093   6.458  13.132
99214SOL    HW299417   7.132   6.326  13.195
99215SOL     OW99418   1.624  12.327   6.277
99215SOL    HW199419   1.636  12.259   6.211
99215SOL    HW299420   1.664  12.405   6.237
99216SOL     OW99421  13.655   4.518   4.930
99216SOL    HW199422  13.690   4.463   4.861
99216SOL    HW299423  13.719   4.511   5.001
99217SOL     OW99424  14.443   1.277   6.171
99217SOL    HW199425  14.451   1.330   6.250
99217SOL    HW299426  14.413   1.192   6.202
99218SOL     OW99427   7.317   9.243   0.784
99218SOL    HW199428   7.319   9.155   0.822
99218SOL    HW299429   7.229   9.251   0.747
99219SOL     OW99430   7.996   6.025   9.392
99219SOL    HW199431   8.075   6.072   9.368
99219SOL    HW299432   7.934   6.092   9.420
99220SOL     OW99433   1.911   9.643   9.569
99220SOL    HW199434   1.823   9.675   9.586
99220SOL    HW299435   1.944   9.615   9.655
99221SOL     OW99436   7.654  11.267  13.661
99221SOL    HW199437   7.746  11.293  13.654
99221SOL    HW299438   7.605  11.348  13.645
99222SOL     OW99439   9.603  11.882   2.489
99222SOL    HW199440   9.692  11.918   2.496
99222SOL    HW299441   9.604  11.832   2.407
99223SOL     OW99442  11.511   8.639   2.516
99223SOL    HW199443  11.426   8.595   2.508
99223SOL    HW299444  11.491   8.732   2.509
99224SOL     OW99445   6.065   3.810   3.844
99224SOL    HW199446   6.051   3.822   3.750
99224SOL    HW299447   6.157   3.785   3.852
99225SOL     OW99448   9.947   2.642   5.368
99225SOL    HW199449   9.878   2.616   5.428
99225SOL    HW299450  10.019   2.582   5.386
99226SOL     OW99451  12.563   6.788   0.997
99226SOL    HW199452  12.575   6.694   1.013
99226SOL    HW299453  12.620   6.807   0.922
99227SOL     OW99454   3.204   8.704   4.800
99227SOL    HW199455   3.271   8.646   4.765
99227SOL    HW299456   3.144   8.646   4.848
99228SOL     OW99457   7.467  10.788  12.774
99228SOL    HW199458   7.393  10.727  12.778
99228SOL    HW299459   7.426  10.874  12.770
99229SOL     OW99460   2.502  14.335   2.529
99229SOL    HW199461   2.520  14.281   2.453
99229SOL    HW299462   2.536  14.285   2.603
99230SOL     OW99463   4.156   1.499   4.594
99230SOL    HW199464   4.168   1.586   4.556
99230SOL    HW299465   4.229   1.448   4.558
99231SOL     OW99466  11.425  12.412  10.539
99231SOL    HW199467  11.451  12.321  10.557
99231SOL    HW299468  11.373  12.407  10.460
99232SOL     OW99469   6.886   6.662   1.871
99232SOL    HW199470   6.857   6.571   1.861
99232SOL    HW299471   6.918   6.686   1.784
99233SOL     OW99472   3.717   9.295   2.567
99233SOL    HW199473   3.677   9.371   2.523
99233SOL    HW299474   3.768   9.252   2.499
99234SOL     OW99475   2.707  12.747   5.395
99234SOL    HW199476   2.678  12.667   5.352
99234SOL    HW299477   2.673  12.741   5.484
99235SOL     OW99478   4.557  12.199  11.057
99235SOL    HW199479   4.606  12.250  11.122
99235SOL    HW299480   4.563  12.251  10.977
99236SOL     OW99481   8.608   7.107   8.324
99236SOL    HW199482   8.650   7.033   8.281
99236SOL    HW299483   8.629   7.095   8.417
99237SOL     OW99484   5.026   6.196   2.599
99237SOL    HW199485   5.090   6.265   2.581
99237SOL    HW299486   5.073   6.115   2.581
99238SOL     OW99487  11.768   8.297  12.713
99238SOL    HW199488  11.689   8.254  12.745
99238SOL    HW299489  11.739   8.347  12.637
99239SOL     OW99490   4.960  12.164   2.168
99239SOL    HW199491   5.041  12.190   2.124
99239SOL    HW299492   4.979  12.078   2.205
99240SOL     OW99493   8.252   7.461   5.714
99240SOL    HW199494   8.263   7.492   5.624
99240SOL    HW299495   8.340   7.468   5.752
99241SOL     OW99496  12.995   5.010  13.407
99241SOL    HW199497  12.927   4.964  13.358
99241SOL    HW299498  13.015   5.087  13.354
99242SOL     OW99499   1.692   1.454  14.174
99242SOL    HW199500   1.691   1.413  14.087
99242SOL    HW299501   1.621   1.411  14.222
99243SOL     OW99502   1.110   0.632   2.739
99243SOL    HW199503   1.199   0.629   2.703
99243SOL    HW299504   1.053   0.634   2.663
99244SOL     OW99505  13.057   9.367  11.173
99244SOL    HW199506  13.057   9.427  11.247
99244SOL    HW299507  13.150   9.358  11.150
99245SOL     OW99508  14.496  12.863   4.765
99245SOL    HW199509  14.532  12.791   4.713
99245SOL    HW299510  14.527  12.942   4.720
99246SOL     OW99511  11.709   1.584   1.056
99246SOL    HW199512  11.614   1.591   1.042
99246SOL    HW299513  11.724   1.625   1.141
99247SOL     OW99514   7.679  12.994   3.906
99247SOL    HW199515   7.661  12.901   3.896
99247SOL    HW299516   7.751  12.998   3.969
99248SOL     OW99517   0.986  11.710   4.846
99248SOL    HW199518   1.046  11.709   4.920
99248SOL    HW299519   1.042  11.724   4.770
99249SOL     OW99520   3.193   9.236   8.396
99249SOL    HW199521   3.211   9.323   8.430
99249SOL    HW299522   3.178   9.182   8.473
99250SOL     OW99523   0.920   7.963  13.185
99250SOL    HW199524   0.876   7.892  13.231
99250SOL    HW299525   1.010   7.932  13.173
99251SOL     OW99526  14.563   6.840   0.299
99251SOL    HW199527  14.635   6.830   0.237
99251SOL    HW299528  14.535   6.931   0.290
99252SOL     OW99529   6.571  13.809   9.267
99252SOL    HW199530   6.594  13.718   9.287
99252SOL    HW299531   6.627  13.861   9.325
99253SOL     OW99532   9.813   1.167   5.022
99253SOL    HW199533   9.860   1.240   4.980
99253SOL    HW299534   9.874   1.135   5.089
99254SOL     OW99535   3.626   1.158   2.583
99254SOL    HW199536   3.708   1.129   2.624
99254SOL    HW299537   3.638   1.141   2.490
99255SOL     OW99538  10.294  10.598   7.132
99255SOL    HW199539  10.327  10.590   7.222
99255SOL    HW299540  10.199  10.595   7.142
99256SOL     OW99541   9.008  12.843   4.438
99256SOL    HW199542   8.958  12.807   4.511
99256SOL    HW299543   8.943  12.858   4.369
99257SOL     OW99544   4.403   1.641   7.622
99257SOL    HW199545   4.337   1.708   7.604
99257SOL    HW299546   4.407   1.589   7.541
99258SOL     OW99547  14.069  14.855   9.476
99258SOL    HW199548  14.052   0.060   9.522
99258SOL    HW299549  13.982  14.817   9.463
99259SOL     OW99550   1.292   9.950   5.595
99259SOL    HW199551   1.231  10.000   5.540
99259SOL    HW299552   1.324   9.880   5.537
99260SOL     OW99553   0.027   5.334   7.315
99260SOL    HW199554   0.004   5.328   7.407
99260SOL    HW299555  14.840   5.394   7.277
99261SOL     OW99556   8.125  14.346   7.291
99261SOL    HW199557   8.084  14.337   7.205
99261SOL    HW299558   8.078  14.418   7.332
99262SOL     OW99559   1.054   9.258   6.929
99262SOL    HW199560   1.127   9.218   6.977
99262SOL    HW299561   1.017   9.321   6.990
99263SOL     OW99562   8.213   8.860   2.483
99263SOL    HW199563   8.205   8.778   2.434
99263SOL    HW299564   8.286   8.845   2.543
99264SOL     OW99565   8.632   9.101  10.527
99264SOL    HW199566   8.683   9.181  10.536
99264SOL    HW299567   8.597   9.104  10.437
99265SOL     OW99568  12.483   3.026  10.221
99265SOL    HW199569  12.531   3.074  10.288
99265SOL    HW299570  12.450   3.094  10.161
99266SOL     OW99571   6.570   9.213   7.216
99266SOL    HW199572   6.488   9.239   7.257
99266SOL    HW299573   6.632   9.207   7.289
99267SOL     OW99574  13.301   3.598   5.431
99267SOL    HW199575  13.325   3.510   5.404
99267SOL    HW299576  13.208   3.591   5.455
99268SOL     OW99577  13.256   0.872   7.547
99268SOL    HW199578  13.164   0.846   7.549
99268SOL    HW299579  13.301   0.797   7.509
99269SOL     OW99580   4.605   7.683   0.648
99269SOL    HW199581   4.620   7.768   0.689
99269SOL    HW299582   4.631   7.696   0.557
99270SOL     OW99583   0.403   4.353   8.299
99270SOL    HW199584   0.417   4.285   8.232
99270SOL    HW299585   0.447   4.319   8.377
99271SOL     OW99586   0.004   9.482   8.924
99271SOL    HW199587   0.055   9.545   8.873
99271SOL    HW299588   0.045   9.482   9.011
99272SOL     OW99589   5.133   6.186   5.282
99272SOL    HW199590   5.098   6.106   5.244
99272SOL    HW299591   5.117   6.177   5.376
99273SOL     OW99592   6.619   4.403  10.019
99273SOL    HW199593   6.649   4.494  10.025
99273SOL    HW299594   6.591   4.393   9.928
99274SOL     OW99595  13.856   7.539   9.901
99274SOL    HW199596  13.764   7.533   9.878
99274SOL    HW299597  13.875   7.458   9.949
99275SOL     OW99598  10.809   4.672   1.418
99275SOL    HW199599  10.869   4.621   1.364
99275SOL    HW299600  10.789   4.616   1.493
99276SOL     OW99601   3.259   9.308   0.951
99276SOL    HW199602   3.326   9.375   0.962
99276SOL    HW299603   3.218   9.301   1.037
99277SOL     OW99604  14.613   5.628  13.444
99277SOL    HW199605  14.674   5.702  13.436
99277SOL    HW299606  14.544   5.647  13.380
99278SOL     OW99607   5.918  13.785  11.334
99278SOL    HW199608   5.981  13.774  11.263
99278SOL    HW299609   5.833  13.768  11.293
99279SOL     OW99610   5.165  14.629  11.465
99279SOL    HW199611   5.110  14.666  11.396
99279SOL    HW299612   5.107  14.619  11.540
99280SOL     OW99613  10.546   4.780   3.694
99280SOL    HW199614  10.630   4.795   3.738
99280SOL    HW299615  10.540   4.851   3.630
99281SOL     OW99616   3.738  11.523   5.314
99281SOL    HW199617   3.717  11.456   5.248
99281SOL    HW299618   3.751  11.474   5.395
99282SOL     OW99619  10.699   2.721   9.627
99282SOL    HW199620  10.615   2.722   9.582
99282SOL    HW299621  10.761   2.688   9.562
99283SOL     OW99622   2.505   1.503  13.616
99283SOL    HW199623   2.569   1.445  13.656
99283SOL    HW299624   2.557   1.569  13.571
99284SOL     OW99625   9.545   0.932   6.173
99284SOL    HW199626   9.492   0.925   6.094
99284SOL    HW299627   9.542   0.844   6.212
99285SOL     OW99628   4.074   4.029   7.320
99285SOL    HW199629   3.980   4.045   7.307
99285SOL    HW299630   4.084   4.028   7.415
99286SOL     OW99631  11.618  11.937   6.184
99286SOL    HW199632  11.686  11.874   6.208
99286SOL    HW299633  11.611  11.929   6.089
99287SOL     OW99634   6.082   3.802  11.423
99287SOL    HW199635   6.173   3.816  11.396
99287SOL    HW299636   6.040   3.886  11.408
99288SOL     OW99637  13.164   9.894   8.174
99288SOL    HW199638  13.235   9.920   8.116
99288SOL    HW299639  13.153   9.800   8.158
99289SOL     OW99640   0.273  12.654   1.622
99289SOL    HW199641   0.190  12.606   1.632
99289SOL    HW299642   0.253  12.723   1.560
99290SOL     OW99643  12.837   8.536  13.540
99290SOL    HW199644  12.849   8.447  13.507
99290SOL    HW299645  12.916   8.553  13.592
99291SOL     OW99646   0.001   3.015  13.055
99291SOL    HW199647  14.835   3.068  13.122
99291SOL    HW299648  14.814   2.947  13.032
99292SOL     OW99649   5.248   6.934  11.411
99292SOL    HW199650   5.322   6.906  11.357
99292SOL    HW299651   5.185   6.862  11.406
99293SOL     OW99652   9.998   9.477   8.038
99293SOL    HW199653   9.952   9.406   7.993
99293SOL    HW299654   9.930   9.542   8.056
99294SOL     OW99655  14.034  10.470   4.721
99294SOL    HW199656  14.108  10.444   4.666
99294SOL    HW299657  14.048  10.423   4.804
99295SOL     OW99658   6.780  13.961   0.464
99295SOL    HW199659   6.866  14.001   0.478
99295SOL    HW299660   6.737  13.968   0.549
99296SOL     OW99661   2.002   1.846   9.548
99296SOL    HW199662   1.937   1.776   9.539
99296SOL    HW299663   1.952   1.923   9.572
99297SOL     OW99664   3.449   4.286  11.440
99297SOL    HW199665   3.360   4.322  11.450
99297SOL    HW299666   3.483   4.329  11.361
99298SOL     OW99667   6.347  11.881   4.334
99298SOL    HW199668   6.292  11.890   4.255
99298SOL    HW299669   6.334  11.963   4.381
99299SOL     OW99670   5.473   5.368   4.832
99299SOL    HW199671   5.563   5.400   4.832
99299SOL    HW299672   5.475   5.289   4.886
99300SOL     OW99673   6.744   3.481   4.167
99300SOL    HW199674   6.740   3.420   4.093
99300SOL    HW299675   6.675   3.453   4.226
99301SOL     OW99676   5.750  14.545   4.536
99301SOL    HW199677   5.820  14.611   4.539
99301SOL    HW299678   5.787  14.475   4.483
99302SOL     OW99679   5.406  13.596  13.275
99302SOL    HW199680   5.438  13.675  13.318
99302SOL    HW299681   5.413  13.614  13.181
99303SOL     OW99682   5.844  12.274  12.819
99303SOL    HW199683   5.924  12.301  12.865
99303SOL    HW299684   5.788  12.351  12.820
99304SOL     OW99685   0.374  12.888  11.873
99304SOL    HW199686   0.330  12.914  11.792
99304SOL    HW299687   0.305  12.891  11.940
99305SOL     OW99688   6.766   1.934  14.448
99305SOL    HW199689   6.726   1.978  14.373
99305SOL    HW299690   6.832   1.876  14.411
99306SOL     OW99691   3.987   1.070   3.925
99306SOL    HW199692   3.975   1.070   3.830
99306SOL    HW299693   4.053   1.138   3.940
99307SOL     OW99694   2.359   8.167   7.832
99307SOL    HW199695   2.273   8.186   7.867
99307SOL    HW299696   2.420   8.201   7.897
99308SOL     OW99697  10.381   3.782   1.934
99308SOL    HW199698  10.372   3.812   2.025
99308SOL    HW299699  10.291   3.773   1.904
99309SOL     OW99700   9.472   6.403  14.282
99309SOL    HW199701   9.486   6.475  14.343
99309SOL    HW299702   9.455   6.327  14.338
99310SOL     OW99703   7.718   7.204  12.275
99310SOL    HW199704   7.743   7.177  12.364
99310SOL    HW299705   7.651   7.141  12.249
99311SOL     OW99706  10.520   4.899   9.716
99311SOL    HW199707  10.589   4.901   9.650
99311SOL    HW299708  10.537   4.976   9.770
99312SOL     OW99709   1.983   1.133   0.118
99312SOL    HW199710   1.952   1.223   0.107
99312SOL    HW299711   1.915   1.091   0.171
99313SOL     OW99712   7.670   4.950   2.599
99313SOL    HW199713   7.758   4.925   2.628
99313SOL    HW299714   7.661   5.041   2.625
99314SOL     OW99715   4.509   0.537   7.439
99314SOL    HW199716   4.584   0.515   7.493
99314SOL    HW299717   4.524   0.489   7.357
99315SOL     OW99718  10.897   0.380  12.114
99315SOL    HW199719  10.991   0.373  12.133
99315SOL    HW299720  10.854   0.339  12.189
99316SOL     OW99721   3.291   8.879   1.822
99316SOL    HW199722   3.285   8.818   1.748
99316SOL    HW299723   3.235   8.840   1.890
99317SOL     OW99724  14.424   6.500   6.838
99317SOL    HW199725  14.486   6.429   6.823
99317SOL    HW299726  14.384   6.480   6.922
99318SOL     OW99727  11.641   2.087   7.772
99318SOL    HW199728  11.607   2.077   7.861
99318SOL    HW299729  11.636   1.999   7.734
99319SOL     OW99730  14.168  13.259   9.270
99319SOL    HW199731  14.135  13.343   9.303
99319SOL    HW299732  14.259  13.278   9.244
99320SOL     OW99733   4.028   4.666   1.938
99320SOL    HW199734   4.010   4.759   1.954
99320SOL    HW299735   4.123   4.663   1.925
99321SOL     OW99736   0.695   5.484  10.257
99321SOL    HW199737   0.621   5.422  10.262
99321SOL    HW299738   0.756   5.453  10.324
99322SOL     OW99739  10.779   7.283   0.463
99322SOL    HW199740  10.750   7.356   0.518
99322SOL    HW299741  10.783   7.320   0.375
99323SOL     OW99742   3.920   6.220   5.261
99323SOL    HW199743   3.847   6.158   5.255
99323SOL    HW299744   3.908   6.264   5.345
99324SOL     OW99745   5.870   8.783   5.678
99324SOL    HW199746   5.911   8.862   5.644
99324SOL    HW299747   5.782   8.810   5.702
99325SOL     OW99748   9.603   2.083   9.355
99325SOL    HW199749   9.590   2.160   9.300
99325SOL    HW299750   9.516   2.061   9.387
99326SOL     OW99751  11.573   7.556  12.547
99326SOL    HW199752  11.590   7.635  12.495
99326SOL    HW299753  11.609   7.577  12.634
99327SOL     OW99754   5.134   3.194  11.232
99327SOL    HW199755   5.074   3.186  11.307
99327SOL    HW299756   5.076   3.199  11.156
99328SOL     OW99757   6.042   4.260   6.064
99328SOL    HW199758   6.052   4.172   6.101
99328SOL    HW299759   5.962   4.255   6.012
99329SOL     OW99760   3.713   2.994   0.579
99329SOL    HW199761   3.688   3.086   0.579
99329SOL    HW299762   3.795   2.991   0.628
99330SOL     OW99763   6.346   3.647   6.277
99330SOL    HW199764   6.340   3.559   6.240
99330SOL    HW299765   6.268   3.692   6.243
99331SOL     OW99766   4.435   7.777   0.388
99331SOL    HW199767   4.478   7.851   0.431
99331SOL    HW299768   4.420   7.807   0.298
99332SOL     OW99769   8.790   6.292   6.013
99332SOL    HW199770   8.751   6.264   6.096
99332SOL    HW299771   8.865   6.346   6.039
99333SOL     OW99772  12.447   7.477   9.961
99333SOL    HW199773  12.435   7.482  10.055
99333SOL    HW299774  12.412   7.391   9.937
99334SOL     OW99775  10.481   8.391   9.351
99334SOL    HW199776  10.394   8.430   9.342
99334SOL    HW299777  10.536   8.462   9.385
99335SOL     OW99778   0.787   1.811  14.043
99335SOL    HW199779   0.828   1.725  14.038
99335SOL    HW299780   0.725   1.804  14.116
99336SOL     OW99781  14.416   4.554  13.356
99336SOL    HW199782  14.389   4.487  13.418
99336SOL    HW299783  14.480   4.607  13.403
99337SOL     OW99784   7.348  12.063   8.112
99337SOL    HW199785   7.330  11.975   8.080
99337SOL    HW299786   7.316  12.121   8.042
99338SOL     OW99787  11.863  13.621  14.346
99338SOL    HW199788  11.898  13.592  14.261
99338SOL    HW299789  11.769  13.604  14.340
99339SOL     OW99790  11.417   8.426   1.444
99339SOL    HW199791  11.366   8.351   1.475
99339SOL    HW299792  11.505   8.410   1.477
99340SOL     OW99793  10.621  12.734  13.137
99340SOL    HW199794  10.603  12.679  13.213
99340SOL    HW299795  10.715  12.726  13.122
99341SOL     OW99796   1.280  14.223  14.137
99341SOL    HW199797   1.363  14.231  14.089
99341SOL    HW299798   1.287  14.139  14.183
99342SOL     OW99799   5.077   3.542   6.681
99342SOL    HW199800   5.167   3.512   6.692
99342SOL    HW299801   5.030   3.502   6.754
99343SOL     OW99802   0.252   4.024  13.802
99343SOL    HW199803   0.194   4.097  13.825
99343SOL    HW299804   0.198   3.968  13.745
99344SOL     OW99805   4.640   2.497   2.837
99344SOL    HW199806   4.545   2.510   2.827
99344SOL    HW299807   4.668   2.567   2.895
99345SOL     OW99808  12.440  11.132   0.035
99345SOL    HW199809  12.518  11.162   0.081
99345SOL    HW299810  12.422  11.046   0.071
99346SOL     OW99811   3.479   8.303   7.868
99346SOL    HW199812   3.480   8.216   7.906
99346SOL    HW299813   3.441   8.359   7.936
99347SOL     OW99814   6.439  10.347   5.315
99347SOL    HW199815   6.419  10.371   5.406
99347SOL    HW299816   6.354  10.342   5.272
99348SOL     OW99817  10.516   8.723   9.161
99348SOL    HW199818  10.573   8.655   9.125
99348SOL    HW299819  10.446   8.675   9.204
99349SOL     OW99820   8.464   9.051   3.161
99349SOL    HW199821   8.421   9.053   3.246
99349SOL    HW299822   8.558   9.054   3.180
99350SOL     OW99823   7.047   7.121   6.626
99350SOL    HW199824   7.055   7.210   6.658
99350SOL    HW299825   7.130   7.079   6.648
99351SOL     OW99826   7.034   1.464   0.334
99351SOL    HW199827   7.068   1.547   0.301
99351SOL    HW299828   7.051   1.467   0.429
99352SOL     OW99829   0.738   8.422   3.530
99352SOL    HW199830   0.815   8.375   3.562
99352SOL    HW299831   0.704   8.468   3.607
99353SOL     OW99832  10.349   2.174  11.449
99353SOL    HW199833  10.402   2.224  11.387
99353SOL    HW299834  10.412   2.117  11.494
99354SOL     OW99835   7.322  12.524   1.162
99354SOL    HW199836   7.414  12.505   1.177
99354SOL    HW299837   7.312  12.615   1.188
99355SOL     OW99838  13.057  14.603   9.120
99355SOL    HW199839  12.995  14.631   9.187
99355SOL    HW299840  13.022  14.639   9.038
99356SOL     OW99841  14.423   9.633   9.052
99356SOL    HW199842  14.410   9.625   9.147
99356SOL    HW299843  14.400   9.724   9.033
99357SOL     OW99844   8.488   3.544   6.222
99357SOL    HW199845   8.501   3.453   6.194
99357SOL    HW299846   8.499   3.541   6.317
99358SOL     OW99847   8.624   6.608   6.525
99358SOL    HW199848   8.533   6.614   6.553
99358SOL    HW299849   8.621   6.630   6.431
99359SOL     OW99850   9.089   7.574  11.581
99359SOL    HW199851   9.159   7.513  11.605
99359SOL    HW299852   9.135   7.651  11.548
99360SOL     OW99853   4.345   0.708   8.385
99360SOL    HW199854   4.436   0.705   8.355
99360SOL    HW299855   4.304   0.631   8.345
99361SOL     OW99856  14.230  12.280   8.051
99361SOL    HW199857  14.310  12.261   8.001
99361SOL    HW299858  14.198  12.362   8.015
99362SOL     OW99859   4.123   6.033  11.019
99362SOL    HW199860   4.079   6.111  11.052
99362SOL    HW299861   4.088   5.962  11.073
99363SOL     OW99862   4.376  14.770   1.908
99363SOL    HW199863   4.326  14.803   1.833
99363SOL    HW299864   4.349  14.679   1.917
99364SOL     OW99865   0.976   5.979   9.318
99364SOL    HW199866   0.976   5.984   9.414
99364SOL    HW299867   1.059   6.017   9.292
99365SOL     OW99868   8.622  12.075   4.477
99365SOL    HW199869   8.585  12.120   4.553
99365SOL    HW299870   8.625  12.141   4.408
99366SOL     OW99871   1.455  11.827   2.527
99366SOL    HW199872   1.498  11.799   2.446
99366SOL    HW299873   1.525  11.836   2.591
99367SOL     OW99874   0.870   7.609   1.757
99367SOL    HW199875   0.852   7.516   1.767
99367SOL    HW299876   0.965   7.616   1.757
99368SOL     OW99877   3.850  14.866   6.306
99368SOL    HW199878   3.814   0.017   6.222
99368SOL    HW299879   3.777  14.873   6.367
99369SOL     OW99880   6.720   4.917   2.946
99369SOL    HW199881   6.788   4.979   2.918
99369SOL    HW299882   6.694   4.872   2.866
99370SOL     OW99883   3.737  12.570  14.396
99370SOL    HW199884   3.715  12.660  14.373
99370SOL    HW299885   3.818  12.576  14.446
99371SOL     OW99886   8.184   7.218  10.279
99371SOL    HW199887   8.206   7.128  10.255
99371SOL    HW299888   8.246   7.272  10.231
99372SOL     OW99889   2.625   3.732   0.119
99372SOL    HW199890   2.639   3.692   0.205
99372SOL    HW299891   2.562   3.674   0.076
99373SOL     OW99892   0.560   3.048   8.846
99373SOL    HW199893   0.598   2.994   8.776
99373SOL    HW299894   0.635   3.069   8.903
99374SOL     OW99895   3.426   0.353  12.741
99374SOL    HW199896   3.490   0.365  12.812
99374SOL    HW299897   3.389   0.266  12.756
99375SOL     OW99898  12.054   6.605   6.115
99375SOL    HW199899  12.022   6.550   6.187
99375SOL    HW299900  12.043   6.550   6.037
99376SOL     OW99901  14.568   3.400  11.757
99376SOL    HW199902  14.615   3.319  11.741
99376SOL    HW299903  14.491   3.374  11.807
99377SOL     OW99904   0.093   2.183   2.526
99377SOL    HW199905   0.124   2.237   2.453
99377SOL    HW299906  14.875   2.192   2.523
99378SOL     OW99907   4.589  11.932   2.011
99378SOL    HW199908   4.601  12.022   2.041
99378SOL    HW299909   4.495  11.919   2.009
99379SOL     OW99910  13.981   2.752   9.034
99379SOL    HW199911  13.890   2.737   9.058
99379SOL    HW299912  13.976   2.806   8.955
99380SOL     OW99913   2.671   8.557   0.170
99380SOL    HW199914   2.583   8.590   0.190
99380SOL    HW299915   2.671   8.544   0.075
99381SOL     OW99916   9.195   2.190  13.311
99381SOL    HW199917   9.143   2.130  13.365
99381SOL    HW299918   9.146   2.272  13.313
99382SOL     OW99919  10.575   2.670   7.613
99382SOL    HW199920  10.529   2.653   7.531
99382SOL    HW299921  10.525   2.740   7.655
99383SOL     OW99922  13.095  12.734   6.037
99383SOL    HW199923  13.102  12.638   6.039
99383SOL    HW299924  13.149  12.760   5.962
99384SOL     OW99925   7.595  11.318  13.938
99384SOL    HW199926   7.677  11.351  13.975
99384SOL    HW299927   7.622  11.273  13.858
99385SOL     OW99928   7.874  12.690   8.630
99385SOL    HW199929   7.834  12.617   8.676
99385SOL    HW299930   7.810  12.762   8.639
99386SOL     OW99931   7.292   6.733   0.295
99386SOL    HW199932   7.245   6.815   0.309
99386SOL    HW299933   7.364   6.735   0.358
99387SOL     OW99934  11.630   4.350   7.727
99387SOL    HW199935  11.548   4.353   7.678
99387SOL    HW299936  11.668   4.264   7.706
99388SOL     OW99937  13.215   2.122  14.801
99388SOL    HW199938  13.245   2.032  14.814
99388SOL    HW299939  13.142   2.113  14.739
99389SOL     OW99940  11.282   4.822   9.648
99389SOL    HW199941  11.342   4.896   9.649
99389SOL    HW299942  11.224   4.839   9.573
99390SOL     OW99943  13.029   6.259   7.445
99390SOL    HW199944  12.934   6.243   7.438
99390SOL    HW299945  13.069   6.186   7.397
99391SOL     OW99946  12.450   9.683   2.611
99391SOL    HW199947  12.476   9.774   2.601
99391SOL    HW299948  12.470   9.642   2.527
99392SOL     OW99949   4.966   6.426   1.380
99392SOL    HW199950   4.952   6.334   1.400
99392SOL    HW299951   4.879   6.466   1.384
99393SOL     OW99952   0.465  13.427   8.837
99393SOL    HW199953   0.458  13.454   8.928
99393SOL    HW299954   0.399  13.358   8.828
99394SOL     OW99955   1.835  11.904  12.800
99394SOL    HW199956   1.823  11.828  12.742
99394SOL    HW299957   1.781  11.972  12.760
99395SOL     OW99958   2.784   7.826   3.937
99395SOL    HW199959   2.828   7.800   3.856
99395SOL    HW299960   2.841   7.791   4.006
99396SOL     OW99961   3.734   8.462   3.444
99396SOL    HW199962   3.790   8.514   3.501
99396SOL    HW299963   3.794   8.401   3.401
99397SOL     OW99964   5.124   4.224   7.042
99397SOL    HW199965   5.060   4.163   7.078
99397SOL    HW299966   5.076   4.272   6.974
99398SOL     OW99967  11.558   5.553   3.453
99398SOL    HW199968  11.469   5.540   3.484
99398SOL    HW299969  11.608   5.480   3.491
99399SOL     OW99970  11.718  10.892   4.787
99399SOL    HW199971  11.794  10.918   4.736
99399SOL    HW299972  11.705  10.800   4.767
99400SOL     OW99973   1.444   2.520   6.092
99400SOL    HW199974   1.477   2.573   6.019
99400SOL    HW299975   1.358   2.557   6.111
99401SOL     OW99976   7.235   8.457   4.840
99401SOL    HW199977   7.172   8.525   4.813
99401SOL    HW299978   7.316   8.506   4.858
99402SOL     OW99979   2.149  12.856   4.665
99402SOL    HW199980   2.195  12.940   4.654
99402SOL    HW299981   2.182  12.801   4.595
99403SOL     OW99982   1.346  12.587   5.353
99403SOL    HW199983   1.312  12.514   5.405
99403SOL    HW299984   1.441  12.573   5.351
99404SOL     OW99985   6.956  12.862   6.354
99404SOL    HW199986   7.043  12.898   6.336
99404SOL    HW299987   6.915  12.854   6.268
99405SOL     OW99988   8.840  11.451  10.619
99405SOL    HW199989   8.908  11.447  10.686
99405SOL    HW299990   8.882  11.414  10.541
99406SOL     OW99991   3.692   6.391   8.733
99406SOL    HW199992   3.645   6.471   8.755
99406SOL    HW299993   3.699   6.393   8.638
99407SOL     OW99994  14.271  13.586  12.482
99407SOL    HW199995  14.215  13.602  12.558
99407SOL    HW299996  14.308  13.499  12.497
99408SOL     OW99997   6.931   8.373   8.491
99408SOL    HW199998   6.955   8.420   8.571
99408SOL    HW299999   6.861   8.313   8.519
99409SOL     OW    0  10.697  10.226   0.772
99409SOL    HW1    1  10.637  10.245   0.845
99409SOL    HW2    2  10.654  10.264   0.696
99410SOL     OW    3   7.425   6.417  12.222
99410SOL    HW1    4   7.412   6.503  12.263
99410SOL    HW2    5   7.503   6.381  12.264
99411SOL     OW    6   3.440   9.667   4.453
99411SOL    HW1    7   3.486   9.661   4.537
99411SOL    HW2    8   3.467   9.589   4.406
99412SOL     OW    9   8.367  13.805   8.918
99412SOL    HW1   10   8.451  13.770   8.947
99412SOL    HW2   11   8.374  13.899   8.931
99413SOL     OW   12   0.989   1.649  10.705
99413SOL    HW1   13   0.918   1.595  10.741
99413SOL    HW2   14   0.965   1.739  10.726
99414SOL     OW   15   0.297   1.936  12.427
99414SOL    HW1   16   0.333   1.887  12.502
99414SOL    HW2   17   0.263   1.868  12.368
99415SOL     OW   18   6.004   4.414   5.070
99415SOL    HW1   19   6.057   4.453   5.001
99415SOL    HW2   20   5.914   4.442   5.051
99416SOL     OW   21  11.378  10.957   2.947
99416SOL    HW1   22  11.421  10.920   2.870
99416SOL    HW2   23  11.438  11.025   2.978
99417SOL     OW   24   0.737   8.161   5.266
99417SOL    HW1   25   0.732   8.181   5.359
99417SOL    HW2   26   0.825   8.190   5.240
99418SOL     OW   27  13.569   5.816  14.560
99418SOL    HW1   28  13.526   5.752  14.616
99418SOL    HW2   29  13.497   5.863  14.518
99419SOL     OW   30   3.536   1.765   9.299
99419SOL    HW1   31   3.580   1.821   9.363
99419SOL    HW2   32   3.603   1.745   9.234
99420SOL     OW   33  11.045   9.167   9.564
99420SOL    HW1   34  11.011   9.256   9.569
99420SOL    HW2   35  10.981   9.120   9.510
99421SOL     OW   36   8.677   4.966  13.757
99421SOL    HW1   37   8.604   4.957  13.695
99421SOL    HW2   38   8.652   5.040  13.813
99422SOL     OW   39   3.090   3.687  14.505
99422SOL    HW1   40   3.044   3.771  14.508
99422SOL    HW2   41   3.179   3.708  14.535
99423SOL     OW   42  11.565  14.703  14.578
99423SOL    HW1   43  11.628  14.640  14.614
99423SOL    HW2   44  11.500  14.648  14.534
99424SOL     OW   45  10.403   8.365   5.182
99424SOL    HW1   46  10.314   8.331   5.190
99424SOL    HW2   47  10.404   8.443   5.237
99425SOL     OW   48   7.902   9.646   4.854
99425SOL    HW1   49   7.954   9.573   4.890
99425SOL    HW2   50   7.968   9.707   4.820
99426SOL     OW   51  13.189   3.556   4.211
99426SOL    HW1   52  13.229   3.474   4.182
99426SOL    HW2   53  13.102   3.530   4.241
99427SOL     OW   54  13.438   3.134   2.148
99427SOL    HW1   55  13.391   3.210   2.112
99427SOL    HW2   56  13.481   3.168   2.226
99428SOL     OW   57   5.082   1.650   4.317
99428SOL    HW1   58   5.074   1.596   4.239
99428SOL    HW2   59   5.165   1.697   4.305
99429SOL     OW   60   5.069   0.546  14.555
99429SOL    HW1   61   5.061   0.515  14.645
99429SOL    HW2   62   5.113   0.474  14.509
99430SOL     OW   63   9.184  11.986  14.140
99430SOL    HW1   64   9.176  11.943  14.225
99430SOL    HW2   65   9.125  12.061  14.146
99431SOL     OW   66  11.653  13.205   5.140
99431SOL    HW1   67  11.711  13.136   5.174
99431SOL    HW2   68  11.672  13.208   5.047
99432SOL     OW   69  11.145   4.723   5.315
99432SOL    HW1   70  11.054   4.707   5.291
99432SOL    HW2   71  11.142   4.745   5.408
99433SOL     OW   72   9.706   9.846  10.125
99433SOL    HW1   73   9.735   9.934  10.152
99433SOL    HW2   74   9.643   9.862  10.055
99434SOL     OW   75   9.576  13.678   2.414
99434SOL    HW1   76   9.557  13.754   2.469
99434SOL    HW2   77   9.498  13.622   2.422
99435SOL     OW   78   5.347   0.720   5.402
99435SOL    HW1   79   5.423   0.686   5.355
99435SOL    HW2   80   5.370   0.711   5.495
99436SOL     OW   81  12.135   6.532   3.537
99436SOL    HW1   82  12.123   6.548   3.631
99436SOL    HW2   83  12.056   6.568   3.496
99437SOL     OW   84  12.784   0.311   1.396
99437SOL    HW1   85  12.809   0.304   1.304
99437SOL    HW2   86  12.866   0.329   1.442
99438SOL     OW   87  12.041   0.801   4.269
99438SOL    HW1   88  12.073   0.845   4.190
99438SOL    HW2   89  11.987   0.867   4.313
99439SOL     OW   90  12.313   6.610   7.764
99439SOL    HW1   91  12.306   6.530   7.711
99439SOL    HW2   92  12.273   6.677   7.709
99440SOL     OW   93  14.821   5.670  12.012
99440SOL    HW1   94  14.756   5.634  11.952
99440SOL    HW2   95  14.775   5.739  12.059
99441SOL     OW   96  11.798   8.061   1.124
99441SOL    HW1   97  11.776   7.980   1.078
99441SOL    HW2   98  11.892   8.055   1.141
99442SOL     OW   99  13.191   4.312   2.963
99442SOL    HW1  100  13.139   4.390   2.941
99442SOL    HW2  101  13.135   4.265   3.025
99443SOL     OW  102   9.214   8.759  13.132
99443SOL    HW1  103   9.124   8.756  13.099
99443SOL    HW2  104   9.256   8.828  13.081
99444SOL     OW  105   6.778   1.700   2.201
99444SOL    HW1  106   6.803   1.733   2.115
99444SOL    HW2  107   6.687   1.727   2.212
99445SOL     OW  108   1.706   5.235   0.650
99445SOL    HW1  109   1.640   5.184   0.696
99445SOL    HW2  110   1.774   5.171   0.627
99446SOL     OW  111  11.083   2.029  13.037
99446SOL    HW1  112  11.000   2.039  13.083
99446SOL    HW2  113  11.144   1.998  13.104
99447SOL     OW  114   4.086  10.304  11.302
99447SOL    HW1  115   3.996  10.333  11.308
99447SOL    HW2  116   4.139  10.382  11.319
99448SOL     OW  117  14.478  12.535  10.394
99448SOL    HW1  118  14.406  12.595  10.413
99448SOL    HW2  119  14.470  12.517  10.300
99449SOL     OW  120   6.584   6.069   1.911
99449SOL    HW1  121   6.623   6.134   1.969
99449SOL    HW2  122   6.494   6.100   1.897
99450SOL     OW  123   4.085   3.102  13.690
99450SOL    HW1  124   4.122   3.091  13.602
99450SOL    HW2  125   4.121   3.028  13.739
99451SOL     OW  126  10.518   2.343   8.110
99451SOL    HW1  127  10.579   2.311   8.043
99451SOL    HW2  128  10.472   2.415   8.067
99452SOL     OW  129  14.239   7.316   5.563
99452SOL    HW1  130  14.156   7.268   5.554
99452SOL    HW2  131  14.245   7.368   5.483
99453SOL     OW  132   2.531   3.538   7.907
99453SOL    HW1  133   2.511   3.494   7.824
99453SOL    HW2  134   2.467   3.609   7.912
99454SOL     OW  135   8.788  10.178   7.430
99454SOL    HW1  136   8.796  10.215   7.342
99454SOL    HW2  137   8.759  10.251   7.484
99455SOL     OW  138  14.662   2.199  10.611
99455SOL    HW1  139  14.607   2.162  10.542
99455SOL    HW2  140  14.690   2.124  10.663
99456SOL     OW  141   6.302   2.312   2.444
99456SOL    HW1  142   6.265   2.354   2.367
99456SOL    HW2  143   6.365   2.375   2.479
99457SOL     OW  144   4.676  11.427  11.631
99457SOL    HW1  145   4.681  11.435  11.536
99457SOL    HW2  146   4.695  11.514  11.663
99458SOL     OW  147   6.836  12.620  14.451
99458SOL    HW1  148   6.842  12.674  14.372
99458SOL    HW2  149   6.749  12.580  14.446
99459SOL     OW  150   6.446  12.430  10.838
99459SOL    HW1  151   6.475  12.434  10.747
99459SOL    HW2  152   6.493  12.501  10.882
99460SOL     OW  153   9.211   0.956   5.009
99460SOL    HW1  154   9.239   1.026   4.950
99460SOL    HW2  155   9.210   0.877   4.954
99461SOL     OW  156   1.017   3.709   8.316
99461SOL    HW1  157   1.098   3.728   8.363
99461SOL    HW2  158   0.948   3.719   8.382
99462SOL     OW  159  11.972  14.757   5.786
99462SOL    HW1  160  12.044  14.694   5.783
99462SOL    HW2  161  11.894  14.705   5.806
99463SOL     OW  162  11.289   0.694   9.370
99463SOL    HW1  163  11.269   0.646   9.289
99463SOL    HW2  164  11.279   0.786   9.347
99464SOL     OW  165  12.052   1.407   3.331
99464SOL    HW1  166  12.147   1.409   3.336
99464SOL    HW2  167  12.033   1.412   3.237
99465SOL     OW  168   1.148   2.697   7.907
99465SOL    HW1  169   1.228   2.679   7.857
99465SOL    HW2  170   1.099   2.614   7.904
99466SOL     OW  171   7.185  11.192  11.390
99466SOL    HW1  172   7.267  11.145  11.404
99466SOL    HW2  173   7.195  11.272  11.441
99467SOL     OW  174  12.516   4.606   3.940
99467SOL    HW1  175  12.539   4.694   3.910
99467SOL    HW2  176  12.492   4.559   3.861
99468SOL     OW  177   2.254   2.584   3.245
99468SOL    HW1  178   2.249   2.635   3.326
99468SOL    HW2  179   2.230   2.646   3.176
99469SOL     OW  180   7.653   9.760  11.993
99469SOL    HW1  181   7.708   9.730  11.920
99469SOL    HW2  182   7.619   9.679  12.031
99470SOL     OW  183   0.284   1.610   5.867
99470SOL    HW1  184   0.234   1.679   5.824
99470SOL    HW2  185   0.357   1.592   5.809
99471SOL     OW  186   8.827  14.683  11.463
99471SOL    HW1  187   8.831  14.626  11.386
99471SOL    HW2  188   8.737  14.718  11.462
99472SOL     OW  189  11.880   0.147   9.951
99472SOL    HW1  190  11.797   0.195   9.951
99472SOL    HW2  191  11.904   0.139  10.043
99473SOL     OW  192   0.953  13.208   5.324
99473SOL    HW1  193   1.030  13.177   5.276
99473SOL    HW2  194   0.886  13.218   5.257
99474SOL     OW  195  11.009   1.726   2.936
99474SOL    HW1  196  11.068   1.795   2.969
99474SOL    HW2  197  10.944   1.773   2.884
99475SOL     OW  198   3.748   1.638   5.346
99475SOL    HW1  199   3.667   1.587   5.343
99475SOL    HW2  200   3.763   1.655   5.439
99476SOL     OW  201   4.804   5.732  10.068
99476SOL    HW1  202   4.748   5.663  10.030
99476SOL    HW2  203   4.808   5.711  10.161
99477SOL     OW  204   4.525   3.653  13.353
99477SOL    HW1  205   4.435   3.621  13.357
99477SOL    HW2  206   4.555   3.652  13.444
99478SOL     OW  207   2.877   9.550  12.007
99478SOL    HW1  208   2.930   9.493  12.063
99478SOL    HW2  209   2.853   9.623  12.064
99479SOL     OW  210  13.839   4.774   0.875
99479SOL    HW1  211  13.879   4.713   0.937
99479SOL    HW2  212  13.894   4.768   0.797
99480SOL     OW  213  13.758  14.733  14.672
99480SOL    HW1  214  13.692  14.801  14.657
99480SOL    HW2  215  13.747  14.672  14.600
99481SOL     OW  216  14.236   3.386   4.791
99481SOL    HW1  217  14.153   3.342   4.773
99481SOL    HW2  218  14.257   3.431   4.709
99482SOL     OW  219   4.802   8.798  13.858
99482SOL    HW1  220   4.785   8.805  13.952
99482SOL    HW2  221   4.872   8.862  13.841
99483SOL     OW  222   1.410  12.496   3.618
99483SOL    HW1  223   1.417  12.468   3.710
99483SOL    HW2  224   1.317  12.515   3.607
99484SOL     OW  225  14.168   8.950   7.470
99484SOL    HW1  226  14.204   9.017   7.529
99484SOL    HW2  227  14.141   8.879   7.528
99485SOL     OW  228  11.778  12.555   3.462
99485SOL    HW1  229  11.748  12.540   3.372
99485SOL    HW2  230  11.704  12.527   3.517
99486SOL     OW  231  12.523  12.954   7.791
99486SOL    HW1  232  12.474  12.893   7.846
99486SOL    HW2  233  12.577  12.899   7.734
99487SOL     OW  234  12.460  14.803   4.039
99487SOL    HW1  235  12.473  14.742   3.966
99487SOL    HW2  236  12.376  14.844   4.021
99488SOL     OW  237   8.368  10.949   4.200
99488SOL    HW1  238   8.457  10.976   4.177
99488SOL    HW2  239   8.355  10.867   4.152
99489SOL     OW  240   3.696   3.719   6.033
99489SOL    HW1  241   3.606   3.686   6.029
99489SOL    HW2  242   3.705   3.773   5.954
99490SOL     OW  243   0.580  13.032   2.151
99490SOL    HW1  244   0.544  13.111   2.110
99490SOL    HW2  245   0.590  13.056   2.244
99491SOL     OW  246   4.826   1.712  13.589
99491SOL    HW1  247   4.773   1.662  13.527
99491SOL    HW2  248   4.899   1.745  13.537
99492SOL     OW  249  14.358  12.667   9.657
99492SOL    HW1  250  14.418  12.740   9.668
99492SOL    HW2  251  14.334  12.670   9.564
99493SOL     OW  252   2.636   4.663   8.748
99493SOL    HW1  253   2.580   4.616   8.809
99493SOL    HW2  254   2.659   4.744   8.794
99494SOL     OW  255   2.310   9.297   9.188
99494SOL    HW1  256   2.266   9.341   9.261
99494SOL    HW2  257   2.342   9.368   9.132
99495SOL     OW  258  10.676  14.857   8.054
99495SOL    HW1  259  10.708   0.069   8.037
99495SOL    HW2  260  10.651  14.857   8.146
99496SOL     OW  261  13.362   1.494   5.956
99496SOL    HW1  262  13.363   1.516   5.863
99496SOL    HW2  263  13.289   1.545   5.993
99497SOL     OW  264   6.702   4.090   8.957
99497SOL    HW1  265   6.654   4.012   8.927
99497SOL    HW2  266   6.721   4.071   9.049
99498SOL     OW  267   5.984  13.492   8.914
99498SOL    HW1  268   5.950  13.535   8.836
99498SOL    HW2  269   6.020  13.563   8.967
99499SOL     OW  270   3.365   0.985   9.472
99499SOL    HW1  271   3.460   0.973   9.468
99499SOL    HW2  272   3.339   0.946   9.555
99500SOL     OW  273  10.035   7.868  11.618
99500SOL    HW1  274  10.080   7.794  11.578
99500SOL    HW2  275  10.067   7.944  11.569
99501SOL     OW  276  10.810   8.145  11.041
99501SOL    HW1  277  10.792   8.203  11.115
99501SOL    HW2  278  10.738   8.162  10.979
99502SOL     OW  279   8.602  10.489   0.797
99502SOL    HW1  280   8.646  10.574   0.806
99502SOL    HW2  281   8.624  10.461   0.708
99503SOL     OW  282   0.132  11.948   5.582
99503SOL    HW1  283   0.108  12.040   5.575
99503SOL    HW2  284   0.057  11.906   5.625
99504SOL     OW  285   0.793   5.313   6.355
99504SOL    HW1  286   0.858   5.383   6.349
99504SOL    HW2  287   0.841   5.235   6.327
99505SOL     OW  288   0.941   3.220   9.651
99505SOL    HW1  289   0.940   3.313   9.628
99505SOL    HW2  290   1.017   3.210   9.708
99506SOL     OW  291  10.510  12.653  11.746
99506SOL    HW1  292  10.434  12.639  11.689
99506SOL    HW2  293  10.585  12.647  11.687
99507SOL     OW  294   9.222  14.350   8.576
99507SOL    HW1  295   9.282  14.381   8.644
99507SOL    HW2  296   9.278  14.301   8.515
99508SOL     OW  297   0.731   0.940   2.396
99508SOL    HW1  298   0.681   1.014   2.430
99508SOL    HW2  299   0.711   0.940   2.302
99509SOL     OW  300   0.913   7.607  13.202
99509SOL    HW1  301   0.906   7.611  13.107
99509SOL    HW2  302   0.922   7.513  13.222
99510SOL     OW  303   0.012   0.253   8.340
99510SOL    HW1  304  14.873   0.336   8.385
99510SOL    HW2  305  14.853   0.187   8.399
99511SOL     OW  306   0.408   0.390   2.513
99511SOL    HW1  307   0.465   0.314   2.500
99511SOL    HW2  308   0.374   0.380   2.602
99512SOL     OW  309  11.518   5.590  12.197
99512SOL    HW1  310  11.563   5.568  12.279
99512SOL    HW2  311  11.583   5.572  12.130
99513SOL     OW  312   6.906   2.874   5.649
99513SOL    HW1  313   6.827   2.832   5.614
99513SOL    HW2  314   6.949   2.805   5.700
99514SOL     OW  315  14.390   8.199   5.435
99514SOL    HW1  316  14.345   8.161   5.359
99514SOL    HW2  317  14.440   8.127   5.472
99515SOL     OW  318  10.888   8.054  13.154
99515SOL    HW1  319  10.852   8.132  13.197
99515SOL    HW2  320  10.948   8.017  13.218
99516SOL     OW  321   6.604   1.052   5.149
99516SOL    HW1  322   6.534   1.023   5.208
99516SOL    HW2  323   6.618   1.144   5.172
99517SOL     OW  324   6.195  10.229   0.567
99517SOL    HW1  325   6.116  10.204   0.518
99517SOL    HW2  326   6.166  10.238   0.657
99518SOL     OW  327   6.598   7.160  13.132
99518SOL    HW1  328   6.653   7.127  13.060
99518SOL    HW2  329   6.650   7.146  13.211
99519SOL     OW  330  10.449   3.498   9.143
99519SOL    HW1  331  10.497   3.415   9.142
99519SOL    HW2  332  10.455   3.530   9.052
99520SOL     OW  333   2.915   9.677   2.873
99520SOL    HW1  334   2.876   9.763   2.857
99520SOL    HW2  335   3.009   9.694   2.879
99521SOL     OW  336  12.058  14.456   9.334
99521SOL    HW1  337  12.048  14.461   9.429
99521SOL    HW2  338  12.001  14.382   9.308
99522SOL     OW  339   6.327   8.475   2.327
99522SOL    HW1  340   6.241   8.435   2.316
99522SOL    HW2  341   6.360   8.438   2.409
99523SOL     OW  342  10.984   1.946   4.346
99523SOL    HW1  343  10.995   1.983   4.434
99523SOL    HW2  344  11.073   1.939   4.312
99524SOL     OW  345   5.481   7.364   0.682
99524SOL    HW1  346   5.489   7.425   0.756
99524SOL    HW2  347   5.561   7.311   0.687
99525SOL     OW  348  14.320  12.382   7.747
99525SOL    HW1  349  14.233  12.394   7.710
99525SOL    HW2  350  14.321  12.292   7.779
99526SOL     OW  351  11.763   5.745  10.685
99526SOL    HW1  352  11.822   5.775  10.616
99526SOL    HW2  353  11.690   5.706  10.638
99527SOL     OW  354   6.897  10.487   2.628
99527SOL    HW1  355   6.863  10.420   2.687
99527SOL    HW2  356   6.912  10.563   2.685
99528SOL     OW  357  10.729  11.606  11.031
99528SOL    HW1  358  10.656  11.545  11.046
99528SOL    HW2  359  10.807  11.552  11.042
99529SOL     OW  360  14.205  10.391  12.775
99529SOL    HW1  361  14.224  10.483  12.792
99529SOL    HW2  362  14.251  10.371  12.693
99530SOL     OW  363  12.162   8.248   1.906
99530SOL    HW1  364  12.175   8.278   1.996
99530SOL    HW2  365  12.130   8.158   1.915
99531SOL     OW  366   9.138   8.399   3.992
99531SOL    HW1  367   9.052   8.418   3.955
99531SOL    HW2  368   9.197   8.460   3.948
99532SOL     OW  369   1.045   3.688   9.363
99532SOL    HW1  370   1.011   3.704   9.274
99532SOL    HW2  371   1.140   3.687   9.353
99533SOL     OW  372   5.495   5.013  13.486
99533SOL    HW1  373   5.561   5.081  13.499
99533SOL    HW2  374   5.432   5.051  13.425
99534SOL     OW  375   7.022   4.697   7.090
99534SOL    HW1  376   7.048   4.684   7.181
99534SOL    HW2  377   6.969   4.620   7.068
99535SOL     OW  378   7.522   3.127   7.413
99535SOL    HW1  379   7.605   3.151   7.372
99535SOL    HW2  380   7.541   3.048   7.463
99536SOL     OW  381   6.419  11.240   6.449
99536SOL    HW1  382   6.389  11.185   6.522
99536SOL    HW2  383   6.491  11.291   6.486
99537SOL     OW  384   6.969  13.266   8.951
99537SOL    HW1  385   6.960  13.360   8.934
99537SOL    HW2  386   6.890  13.227   8.916
99538SOL     OW  387   5.497   7.672   8.067
99538SOL    HW1  388   5.454   7.758   8.064
99538SOL    HW2  389   5.590   7.692   8.068
99539SOL     OW  390   7.443  11.273   1.563
99539SOL    HW1  391   7.533  11.305   1.551
99539SOL    HW2  392   7.390  11.325   1.503
99540SOL     OW  393   0.170  10.905   0.010
99540SOL    HW1  394   0.259  10.880   0.036
99540SOL    HW2  395   0.116  10.829   0.031
99541SOL     OW  396  11.334  10.325   8.982
99541SOL    HW1  397  11.424  10.292   8.977
99541SOL    HW2  398  11.299  10.311   8.894
99542SOL     OW  399   4.865   6.038  10.167
99542SOL    HW1  400   4.956   6.010  10.157
99542SOL    HW2  401   4.813   5.963  10.137
99543SOL     OW  402  12.603  10.191  13.068
99543SOL    HW1  403  12.575  10.100  13.077
99543SOL    HW2  404  12.534  10.241  13.112
99544SOL     OW  405  13.150   9.444   3.420
99544SOL    HW1  406  13.129   9.386   3.347
99544SOL    HW2  407  13.228   9.492   3.391
99545SOL     OW  408   4.736   7.877   7.106
99545SOL    HW1  409   4.719   7.799   7.053
99545SOL    HW2  410   4.733   7.949   7.044
99546SOL     OW  411   0.398   6.182   1.282
99546SOL    HW1  412   0.379   6.107   1.338
99546SOL    HW2  413   0.412   6.145   1.195
99547SOL     OW  414   5.498   9.091  12.616
99547SOL    HW1  415   5.440   9.154  12.573
99547SOL    HW2  416   5.478   9.098  12.709
99548SOL     OW  417   3.728  11.418   3.125
99548SOL    HW1  418   3.665  11.460   3.183
99548SOL    HW2  419   3.777  11.358   3.182
99549SOL     OW  420   7.062   8.218  13.099
99549SOL    HW1  421   7.088   8.282  13.165
99549SOL    HW2  422   7.073   8.133  13.142
99550SOL     OW  423  11.763   3.632   7.699
99550SOL    HW1  424  11.841   3.594   7.657
99550SOL    HW2  425  11.767   3.725   7.676
99551SOL     OW  426   6.374   3.012  10.743
99551SOL    HW1  427   6.279   3.001  10.734
99551SOL    HW2  428   6.388   3.106  10.733
99552SOL     OW  429   6.261   1.450   3.075
99552SOL    HW1  430   6.263   1.377   3.013
99552SOL    HW2  431   6.169   1.477   3.077
99553SOL     OW  432   7.539  11.857  12.807
99553SOL    HW1  433   7.555  11.811  12.725
99553SOL    HW2  434   7.601  11.818  12.869
99554SOL     OW  435   0.559   5.289  12.249
99554SOL    HW1  436   0.640   5.262  12.292
99554SOL    HW2  437   0.489   5.257  12.306
99555SOL     OW  438  11.038   8.588   6.510
99555SOL    HW1  439  11.126   8.618   6.530
99555SOL    HW2  440  10.983   8.666   6.518
99556SOL     OW  441   5.864  12.588   2.824
99556SOL    HW1  442   5.773  12.576   2.853
99556SOL    HW2  443   5.886  12.507   2.780
99557SOL     OW  444  14.228   1.338   1.966
99557SOL    HW1  445  14.201   1.254   2.004
99557SOL    HW2  446  14.268   1.385   2.039
99558SOL     OW  447   6.357   5.227   2.462
99558SOL    HW1  448   6.378   5.185   2.545
99558SOL    HW2  449   6.270   5.196   2.440
99559SOL     OW  450   4.929   4.256   2.607
99559SOL    HW1  451   4.941   4.165   2.580
99559SOL    HW2  452   5.001   4.303   2.564
99560SOL     OW  453  12.626   9.991  11.744
99560SOL    HW1  454  12.710  10.034  11.759
99560SOL    HW2  455  12.648   9.909  11.701
99561SOL     OW  456  11.113  11.398  14.348
99561SOL    HW1  457  11.177  11.463  14.319
99561SOL    HW2  458  11.038  11.409  14.289
99562SOL     OW  459   0.794   1.901   9.278
99562SOL    HW1  460   0.714   1.948   9.300
99562SOL    HW2  461   0.765   1.826   9.226
99563SOL     OW  462   6.473  12.006  12.259
99563SOL    HW1  463   6.508  12.002  12.170
99563SOL    HW2  464   6.510  11.929  12.303
99564SOL     OW  465   9.648  14.755   5.215
99564SOL    HW1  466   9.683  14.750   5.126
99564SOL    HW2  467   9.557  14.784   5.203
99565SOL     OW  468  14.792  10.759   3.705
99565SOL    HW1  469  14.843  10.743   3.785
99565SOL    HW2  470  14.750  10.844   3.720
99566SOL     OW  471   1.903  14.718   8.193
99566SOL    HW1  472   1.813  14.733   8.220
99566SOL    HW2  473   1.907  14.754   8.104
99567SOL     OW  474   8.418  11.797  11.906
99567SOL    HW1  475   8.402  11.802  11.812
99567SOL    HW2  476   8.510  11.824  11.916
99568SOL     OW  477   6.545  13.400   2.173
99568SOL    HW1  478   6.602  13.392   2.250
99568SOL    HW2  479   6.605  13.413   2.100
99569SOL     OW  480   6.637   1.606   7.112
99569SOL    HW1  481   6.675   1.577   7.195
99569SOL    HW2  482   6.708   1.651   7.068
99570SOL     OW  483  14.630  13.253   0.051
99570SOL    HW1  484  14.561  13.228   0.111
99570SOL    HW2  485  14.704  13.197   0.074
99571SOL     OW  486  10.146  10.421  13.277
99571SOL    HW1  487  10.233  10.439  13.312
99571SOL    HW2  488  10.122  10.501  13.229
99572SOL     OW  489   3.010   3.399   0.551
99572SOL    HW1  490   3.054   3.384   0.634
99572SOL    HW2  491   2.954   3.323   0.539
99573SOL     OW  492   2.200   9.413   9.654
99573SOL    HW1  493   2.223   9.421   9.562
99573SOL    HW2  494   2.105   9.401   9.655
99574SOL     OW  495  10.965   0.379   3.457
99574SOL    HW1  496  10.959   0.397   3.363
99574SOL    HW2  497  11.032   0.311   3.464
99575SOL     OW  498  13.828  11.024   2.004
99575SOL    HW1  499  13.890  10.975   1.950
99575SOL    HW2  500  13.749  11.031   1.949
99576SOL     OW  501  12.269   1.319   6.822
99576SOL    HW1  502  12.206   1.256   6.788
99576SOL    HW2  503  12.284   1.380   6.749
99577SOL     OW  504   3.814   1.648  14.849
99577SOL    HW1  505   3.843   1.557  14.836
99577SOL    HW2  506   3.790   1.652   0.064
99578SOL     OW  507  10.256   1.848  13.412
99578SOL    HW1  508  10.344   1.842  13.448
99578SOL    HW2  509  10.243   1.941  13.395
99579SOL     OW  510   4.262  11.271  12.944
99579SOL    HW1  511   4.257  11.225  13.028
99579SOL    HW2  512   4.317  11.347  12.961
99580SOL     OW  513   8.933   5.500   3.413
99580SOL    HW1  514   8.850   5.492   3.366
99580SOL    HW2  515   8.942   5.416   3.459
99581SOL     OW  516  12.868  11.682   2.433
99581SOL    HW1  517  12.833  11.652   2.516
99581SOL    HW2  518  12.954  11.719   2.455
99582SOL     OW  519   0.040   9.080   6.340
99582SOL    HW1  520   0.071   9.033   6.262
99582SOL    HW2  521  14.845   9.027   6.372
99583SOL     OW  522   9.926   2.021  13.126
99583SOL    HW1  523   9.833   2.039  13.112
99583SOL    HW2  524   9.967   2.040  13.041
99584SOL     OW  525   2.086   2.492  13.632
99584SOL    HW1  526   2.150   2.466  13.697
99584SOL    HW2  527   2.127   2.564  13.585
99585SOL     OW  528  12.120   8.049  11.683
99585SOL    HW1  529  12.178   8.099  11.626
99585SOL    HW2  530  12.073   7.990  11.624
99586SOL     OW  531   3.610  10.290  10.355
99586SOL    HW1  532   3.653  10.369  10.323
99586SOL    HW2  533   3.577  10.247  10.276
99587SOL     OW  534  10.920   7.571   6.884
99587SOL    HW1  535  10.932   7.500   6.948
99587SOL    HW2  536  10.944   7.532   6.800
99588SOL     OW  537   1.961  13.136   4.829
99588SOL    HW1  538   1.928  13.090   4.906
99588SOL    HW2  539   2.056  13.131   4.836
99589SOL     OW  540   9.268  12.533   6.347
99589SOL    HW1  541   9.209  12.608   6.355
99589SOL    HW2  542   9.348  12.561   6.391
99590SOL     OW  543   1.619  12.487   5.314
99590SOL    HW1  544   1.673  12.487   5.235
99590SOL    HW2  545   1.679  12.465   5.385
99591SOL     OW  546   5.234  12.720   7.479
99591SOL    HW1  547   5.318  12.757   7.453
99591SOL    HW2  548   5.193  12.692   7.397
99592SOL     OW  549  14.674   4.800  10.083
99592SOL    HW1  550  14.656   4.812   9.990
99592SOL    HW2  551  14.763   4.764  10.085
99593SOL     OW  552  14.403   3.058   6.500
99593SOL    HW1  553  14.334   3.008   6.458
99593SOL    HW2  554  14.457   3.090   6.428
99594SOL     OW  555  11.445   1.252  11.008
99594SOL    HW1  556  11.435   1.316  10.938
99594SOL    HW2  557  11.458   1.304  11.087
99595SOL     OW  558   5.318   8.582   5.520
99595SOL    HW1  559   5.283   8.566   5.608
99595SOL    HW2  560   5.244   8.616   5.470
99596SOL     OW  561  10.077   8.891  10.574
99596SOL    HW1  562  10.081   8.958  10.506
99596SOL    HW2  563   9.984   8.873  10.585
99597SOL     OW  564  14.859   6.350  13.199
99597SOL    HW1  565   0.040   6.383  13.267
99597SOL    HW2  566  14.824   6.269  13.235
99598SOL     OW  567   7.762  11.221   4.796
99598SOL    HW1  568   7.748  11.161   4.723
99598SOL    HW2  569   7.687  11.280   4.794
99599SOL     OW  570   4.907  11.931   6.347
99599SOL    HW1  571   4.838  11.896   6.291
99599SOL    HW2  572   4.987  11.921   6.295
99600SOL     OW  573  12.877   5.713   6.443
99600SOL    HW1  574  12.859   5.770   6.518
99600SOL    HW2  575  12.968   5.731   6.421
99601SOL     OW  576   9.551  13.143  11.759
99601SOL    HW1  577   9.598  13.201  11.699
99601SOL    HW2  578   9.620  13.094  11.804
99602SOL     OW  579   2.760   4.791  10.301
99602SOL    HW1  580   2.795   4.879  10.300
99602SOL    HW2  581   2.836   4.734  10.296
99603SOL     OW  582   4.503   7.772   0.925
99603SOL    HW1  583   4.441   7.834   0.886
99603SOL    HW2  584   4.516   7.707   0.856
99604SOL     OW  585   2.999   8.214   3.786
99604SOL    HW1  586   2.936   8.234   3.717
99604SOL    HW2  587   2.998   8.118   3.793
99605SOL     OW  588  11.516   0.469  14.402
99605SOL    HW1  589  11.572   0.497  14.474
99605SOL    HW2  590  11.447   0.417  14.444
99606SOL     OW  591   0.650   4.100   7.601
99606SOL    HW1  592   0.591   4.025   7.585
99606SOL    HW2  593   0.632   4.160   7.529
99607SOL     OW  594   3.540   2.477   3.978
99607SOL    HW1  595   3.543   2.420   3.901
99607SOL    HW2  596   3.551   2.565   3.942
99608SOL     OW  597  13.351  12.187  14.551
99608SOL    HW1  598  13.280  12.188  14.615
99608SOL    HW2  599  13.332  12.261  14.493
99609SOL     OW  600  11.550   0.500   1.424
99609SOL    HW1  601  11.567   0.513   1.331
99609SOL    HW2  602  11.599   0.570   1.468
99610SOL     OW  603  14.219   2.264   1.755
99610SOL    HW1  604  14.212   2.200   1.826
99610SOL    HW2  605  14.284   2.328   1.786
99611SOL     OW  606  12.461  12.944   0.014
99611SOL    HW1  607  12.486  13.024   0.061
99611SOL    HW2  608  12.528  12.935  14.823
99612SOL     OW  609   6.882   6.928   3.616
99612SOL    HW1  610   6.949   6.887   3.671
99612SOL    HW2  611   6.836   6.855   3.576
99613SOL     OW  612   6.975   9.921   3.181
99613SOL    HW1  613   6.904   9.902   3.120
99613SOL    HW2  614   6.975  10.016   3.189
99614SOL     OW  615   6.151   5.088  12.180
99614SOL    HW1  616   6.071   5.139  12.193
99614SOL    HW2  617   6.193   5.127  12.103
99615SOL     OW  618   5.989   1.739   8.245
99615SOL    HW1  619   6.023   1.756   8.157
99615SOL    HW2  620   5.983   1.826   8.285
99616SOL     OW  621   6.357   4.986   7.442
99616SOL    HW1  622   6.325   4.927   7.510
99616SOL    HW2  623   6.393   4.928   7.375
99617SOL     OW  624  12.066   0.637   0.437
99617SOL    HW1  625  12.047   0.716   0.387
99617SOL    HW2  626  11.980   0.601   0.458
99618SOL     OW  627   2.311   7.360   9.587
99618SOL    HW1  628   2.307   7.300   9.512
99618SOL    HW2  629   2.251   7.323   9.651
99619SOL     OW  630   1.045   2.513   1.681
99619SOL    HW1  631   1.014   2.550   1.764
99619SOL    HW2  632   0.965   2.488   1.635
99620SOL     OW  633   6.043   3.140   8.906
99620SOL    HW1  634   6.095   3.164   8.983
99620SOL    HW2  635   5.955   3.173   8.926
99621SOL     OW  636   0.596   3.561  12.163
99621SOL    HW1  637   0.587   3.651  12.194
99621SOL    HW2  638   0.559   3.507  12.234
99622SOL     OW  639  14.822   6.186   6.756
99622SOL    HW1  640  14.736   6.176   6.797
99622SOL    HW2  641  14.803   6.190   6.662
99623SOL     OW  642   2.798   5.119   2.619
99623SOL    HW1  643   2.791   5.208   2.652
99623SOL    HW2  644   2.785   5.127   2.524
99624SOL     OW  645  12.207   9.488   3.938
99624SOL    HW1  646  12.142   9.427   3.972
99624SOL    HW2  647  12.253   9.520   4.016
99625SOL     OW  648  13.743   0.529   3.357
99625SOL    HW1  649  13.746   0.545   3.263
99625SOL    HW2  650  13.833   0.504   3.379
99626SOL     OW  651  10.765   0.625  14.352
99626SOL    HW1  652  10.794   0.712  14.325
99626SOL    HW2  653  10.670   0.631  14.358
99627SOL     OW  654  11.575  13.519   0.513
99627SOL    HW1  655  11.534  13.491   0.431
99627SOL    HW2  656  11.521  13.478   0.582
99628SOL     OW  657  13.366  14.439   5.367
99628SOL    HW1  658  13.286  14.455   5.417
99628SOL    HW2  659  13.425  14.396   5.429
99629SOL     OW  660   9.263   9.365   3.740
99629SOL    HW1  661   9.252   9.379   3.646
99629SOL    HW2  662   9.342   9.414   3.763
99630SOL     OW  663   8.077   3.974  13.047
99630SOL    HW1  664   8.043   3.914  12.982
99630SOL    HW2  665   8.073   3.926  13.130
99631SOL     OW  666   3.590   3.095   1.140
99631SOL    HW1  667   3.566   3.170   1.194
99631SOL    HW2  668   3.519   3.090   1.075
99632SOL     OW  669  11.291   2.256   7.245
99632SOL    HW1  670  11.244   2.174   7.255
99632SOL    HW2  671  11.382   2.234   7.267
99633SOL     OW  672   4.484   0.963   4.231
99633SOL    HW1  673   4.406   1.012   4.205
99633SOL    HW2  674   4.465   0.873   4.205
99634SOL     OW  675   7.114  12.714   9.272
99634SOL    HW1  676   7.135  12.705   9.179
99634SOL    HW2  677   7.021  12.693   9.278
99635SOL     OW  678  14.695  12.150   6.575
99635SOL    HW1  679  14.714  12.181   6.486
99635SOL    HW2  680  14.603  12.172   6.589
99636SOL     OW  681   7.242   6.468  10.768
99636SOL    HW1  682   7.327   6.447  10.806
99636SOL    HW2  683   7.180   6.453  10.839
99637SOL     OW  684  11.479   5.425   4.560
99637SOL    HW1  685  11.485   5.411   4.654
99637SOL    HW2  686  11.568   5.453   4.534
99638SOL     OW  687   7.197   5.778   0.185
99638SOL    HW1  688   7.172   5.688   0.207
99638SOL    HW2  689   7.198   5.780   0.089
99639SOL     OW  690   4.110   8.245   0.268
99639SOL    HW1  691   4.066   8.266   0.186
99639SOL    HW2  692   4.038   8.235   0.331
99640SOL     OW  693   4.534   3.724   6.199
99640SOL    HW1  694   4.504   3.744   6.287
99640SOL    HW2  695   4.536   3.809   6.154
99641SOL     OW  696  11.890   0.365   1.982
99641SOL    HW1  697  11.840   0.430   1.933
99641SOL    HW2  698  11.887   0.287   1.928
99642SOL     OW  699   2.729  10.217  14.827
99642SOL    HW1  700   2.732  10.312  14.827
99642SOL    HW2  701   2.641  10.196  14.857
99643SOL     OW  702   2.285   8.187  10.718
99643SOL    HW1  703   2.342   8.164  10.791
99643SOL    HW2  704   2.323   8.267  10.681
99644SOL     OW  705   8.798  14.756   6.908
99644SOL    HW1  706   8.883  14.786   6.939
99644SOL    HW2  707   8.784  14.805   6.827
99645SOL     OW  708   8.193  14.152   5.335
99645SOL    HW1  709   8.270  14.124   5.385
99645SOL    HW2  710   8.120  14.147   5.397
99646SOL     OW  711   5.907   0.263   4.566
99646SOL    HW1  712   5.890   0.209   4.489
99646SOL    HW2  713   5.837   0.328   4.566
99647SOL     OW  714   0.299  13.934   0.786
99647SOL    HW1  715   0.344  13.902   0.707
99647SOL    HW2  716   0.289  13.856   0.840
99648SOL     OW  717   4.777   6.448  13.625
99648SOL    HW1  718   4.772   6.462  13.530
99648SOL    HW2  719   4.864   6.482  13.649
99649SOL     OW  720   3.920   2.659   7.202
99649SOL    HW1  721   3.972   2.593   7.247
99649SOL    HW2  722   3.875   2.611   7.133
99650SOL     OW  723   6.450   8.067   2.695
99650SOL    HW1  724   6.518   8.132   2.685
99650SOL    HW2  725   6.409   8.061   2.608
99651SOL     OW  726   0.208  14.024   0.491
99651SOL    HW1  727   0.217  14.086   0.419
99651SOL    HW2  728   0.290  14.030   0.540
99652SOL     OW  729   0.510   1.289   9.188
99652SOL    HW1  730   0.480   1.341   9.263
99652SOL    HW2  731   0.562   1.218   9.227
99653SOL     OW  732  12.341   0.977  12.255
99653SOL    HW1  733  12.323   1.051  12.314
99653SOL    HW2  734  12.414   0.931  12.297
99654SOL     OW  735  12.890  13.752  13.795
99654SOL    HW1  736  12.816  13.735  13.737
99654SOL    HW2  737  12.936  13.668  13.801
99655SOL     OW  738  11.736  13.341   6.098
99655SOL    HW1  739  11.661  13.387   6.061
99655SOL    HW2  740  11.731  13.358   6.192
99656SOL     OW  741  11.125  10.616  10.411
99656SOL    HW1  742  11.048  10.648  10.458
99656SOL    HW2  743  11.121  10.661  10.326
99657SOL     OW  744   6.607  11.052   6.569
99657SOL    HW1  745   6.583  11.056   6.477
99657SOL    HW2  746   6.531  11.088   6.615
99658SOL     OW  747  14.634  10.555   3.582
99658SOL    HW1  748  14.692  10.611   3.634
99658SOL    HW2  749  14.561  10.613   3.558
99659SOL     OW  750   2.953  11.581  11.573
99659SOL    HW1  751   2.866  11.549  11.595
99659SOL    HW2  752   2.939  11.674  11.552
99660SOL     OW  753   5.717  13.269   6.573
99660SOL    HW1  754   5.780  13.205   6.606
99660SOL    HW2  755   5.665  13.294   6.650
99661SOL     OW  756   3.491   0.198  12.230
99661SOL    HW1  757   3.455   0.269  12.283
99661SOL    HW2  758   3.533   0.242  12.156
99662SOL     OW  759   3.129   5.340  13.752
99662SOL    HW1  760   3.096   5.278  13.818
99662SOL    HW2  761   3.055   5.399  13.736
99663SOL     OW  762  13.593   2.416   0.531
99663SOL    HW1  763  13.640   2.377   0.457
99663SOL    HW2  764  13.504   2.380   0.523
99664SOL     OW  765   2.735  12.709  10.659
99664SOL    HW1  766   2.799  12.696  10.729
99664SOL    HW2  767   2.784  12.695  10.578
99665SOL     OW  768  11.177   0.346  11.567
99665SOL    HW1  769  11.145   0.352  11.657
99665SOL    HW2  770  11.122   0.279  11.526
99666SOL     OW  771   9.660   5.386  14.350
99666SOL    HW1  772   9.744   5.379  14.304
99666SOL    HW2  773   9.635   5.296  14.369
99667SOL     OW  774   5.278  13.075   5.438
99667SOL    HW1  775   5.276  12.979   5.441
99667SOL    HW2  776   5.261  13.102   5.528
99668SOL     OW  777  11.063  12.014   2.697
99668SOL    HW1  778  11.152  12.028   2.728
99668SOL    HW2  779  11.008  12.038   2.772
99669SOL     OW  780  14.203  13.960   0.814
99669SOL    HW1  781  14.109  13.944   0.820
99669SOL    HW2  782  14.243  13.875   0.832
99670SOL     OW  783   3.153   9.198  13.896
99670SOL    HW1  784   3.162   9.293  13.897
99670SOL    HW2  785   3.059   9.182  13.890
99671SOL     OW  786   7.801   3.971   2.651
99671SOL    HW1  787   7.833   3.988   2.562
99671SOL    HW2  788   7.845   3.891   2.678
99672SOL     OW  789   7.625  11.724   9.437
99672SOL    HW1  790   7.705  11.774   9.421
99672SOL    HW2  791   7.564  11.753   9.370
99673SOL     OW  792   1.350   7.997   6.190
99673SOL    HW1  793   1.322   7.959   6.273
99673SOL    HW2  794   1.375   7.922   6.136
99674SOL     OW  795   7.682   8.294   8.160
99674SOL    HW1  796   7.689   8.199   8.152
99674SOL    HW2  797   7.734   8.316   8.237
99675SOL     OW  798   4.807  14.143   5.578
99675SOL    HW1  799   4.903  14.143   5.579
99675SOL    HW2  800   4.782  14.061   5.620
99676SOL     OW  801  11.763   8.750  10.246
99676SOL    HW1  802  11.753   8.657  10.267
99676SOL    HW2  803  11.680   8.775  10.205
99677SOL     OW  804  12.216  11.447  13.983
99677SOL    HW1  805  12.295  11.415  13.940
99677SOL    HW2  806  12.154  11.462  13.911
99678SOL     OW  807   1.733   8.220   0.667
99678SOL    HW1  808   1.803   8.157   0.685
99678SOL    HW2  809   1.771   8.305   0.690
99679SOL     OW  810   6.585   5.725   1.116
99679SOL    HW1  811   6.648   5.667   1.158
99679SOL    HW2  812   6.500   5.684   1.132
99680SOL     OW  813   1.819   7.998   6.846
99680SOL    HW1  814   1.766   7.927   6.882
99680SOL    HW2  815   1.775   8.078   6.874
99681SOL     OW  816   5.756   3.231   5.740
99681SOL    HW1  817   5.715   3.276   5.814
99681SOL    HW2  818   5.682   3.192   5.693
99682SOL     OW  819  12.250  10.254  10.130
99682SOL    HW1  820  12.174  10.312  10.125
99682SOL    HW2  821  12.243  10.213  10.216
99683SOL     OW  822  12.842   4.826   3.511
99683SOL    HW1  823  12.809   4.745   3.470
99683SOL    HW2  824  12.893   4.796   3.586
99684SOL     OW  825  11.834   8.192  12.080
99684SOL    HW1  826  11.848   8.285  12.061
99684SOL    HW2  827  11.741   8.187  12.104
99685SOL     OW  828   8.658   4.231   8.809
99685SOL    HW1  829   8.749   4.260   8.823
99685SOL    HW2  830   8.642   4.168   8.879
99686SOL     OW  831   8.154   2.618  12.254
99686SOL    HW1  832   8.201   2.630  12.337
99686SOL    HW2  833   8.195   2.681  12.194
99687SOL     OW  834  13.613  10.985  11.211
99687SOL    HW1  835  13.689  11.001  11.268
99687SOL    HW2  836  13.643  10.916  11.151
99688SOL     OW  837  13.108   1.799   3.663
99688SOL    HW1  838  13.109   1.710   3.698
99688SOL    HW2  839  13.040   1.844   3.713
99689SOL     OW  840   3.731   4.654   1.853
99689SOL    HW1  841   3.794   4.667   1.782
99689SOL    HW2  842   3.686   4.572   1.831
99690SOL     OW  843  11.891   2.076  12.213
99690SOL    HW1  844  11.888   2.026  12.131
99690SOL    HW2  845  11.820   2.040  12.266
99691SOL     OW  846   3.798  11.852   3.137
99691SOL    HW1  847   3.801  11.788   3.066
99691SOL    HW2  848   3.794  11.799   3.217
99692SOL     OW  849   4.835   9.687   1.232
99692SOL    HW1  850   4.744   9.672   1.206
99692SOL    HW2  851   4.830   9.714   1.324
99693SOL     OW  852   8.183   9.350   4.766
99693SOL    HW1  853   8.182   9.444   4.751
99693SOL    HW2  854   8.102   9.332   4.814
99694SOL     OW  855   5.477   2.001  11.457
99694SOL    HW1  856   5.499   2.038  11.372
99694SOL    HW2  857   5.425   2.069  11.501
99695SOL     OW  858  12.716  10.028   1.101
99695SOL    HW1  859  12.691  10.070   1.018
99695SOL    HW2  860  12.708  10.097   1.166
99696SOL     OW  861  12.362   4.651   1.908
99696SOL    HW1  862  12.448   4.641   1.866
99696SOL    HW2  863  12.302   4.669   1.836
99697SOL     OW  864   7.018   1.155   3.889
99697SOL    HW1  865   7.068   1.167   3.970
99697SOL    HW2  866   7.050   1.224   3.831
99698SOL     OW  867   2.616  10.199  14.558
99698SOL    HW1  868   2.524  10.191  14.536
99698SOL    HW2  869   2.624  10.157  14.644
99699SOL     OW  870  10.344   6.806   0.921
99699SOL    HW1  871  10.319   6.761   1.002
99699SOL    HW2  872  10.319   6.745   0.851
99700SOL     OW  873  11.910  11.296   5.567
99700SOL    HW1  874  11.977  11.264   5.627
99700SOL    HW2  875  11.896  11.224   5.506
99701SOL     OW  876  14.810   9.212  12.619
99701SOL    HW1  877  14.832   9.127  12.580
99701SOL    HW2  878  14.754   9.190  12.694
99702SOL     OW  879   9.284   5.982   9.471
99702SOL    HW1  880   9.299   5.946   9.384
99702SOL    HW2  881   9.314   6.072   9.466
99703SOL     OW  882  11.799  11.628   4.832
99703SOL    HW1  883  11.768  11.539   4.848
99703SOL    HW2  884  11.732  11.684   4.871
99704SOL     OW  885   9.708  14.293   9.127
99704SOL    HW1  886   9.654  14.215   9.111
99704SOL    HW2  887   9.767  14.267   9.198
99705SOL     OW  888   3.342   9.178   9.881
99705SOL    HW1  889   3.376   9.169   9.792
99705SOL    HW2  890   3.247   9.177   9.871
99706SOL     OW  891   2.130   8.331   4.683
99706SOL    HW1  892   2.096   8.252   4.725
99706SOL    HW2  893   2.087   8.333   4.598
99707SOL     OW  894   0.286   8.531  13.100
99707SOL    HW1  895   0.364   8.535  13.044
99707SOL    HW2  896   0.299   8.452  13.152
99708SOL     OW  897   0.776   6.145  10.227
99708SOL    HW1  898   0.723   6.065  10.227
99708SOL    HW2  899   0.864   6.115  10.206
99709SOL     OW  900  10.109   2.907   1.125
99709SOL    HW1  901  10.173   2.885   1.194
99709SOL    HW2  902  10.161   2.911   1.045
99710SOL     OW  903   5.849  10.059   4.172
99710SOL    HW1  904   5.810  10.025   4.092
99710SOL    HW2  905   5.794  10.135   4.194
99711SOL     OW  906   7.551   0.502   8.902
99711SOL    HW1  907   7.563   0.446   8.825
99711SOL    HW2  908   7.545   0.441   8.975
99712SOL     OW  909   6.567   4.963   1.651
99712SOL    HW1  910   6.473   4.968   1.666
99712SOL    HW2  911   6.577   4.896   1.583
99713SOL     OW  912   3.577   3.394   3.768
99713SOL    HW1  913   3.668   3.413   3.788
99713SOL    HW2  914   3.574   3.388   3.672
99714SOL     OW  915   3.132  14.458  13.897
99714SOL    HW1  916   3.102  14.389  13.957
99714SOL    HW2  917   3.226  14.445  13.890
99715SOL     OW  918   1.744   5.598  10.924
99715SOL    HW1  919   1.749   5.624  10.832
99715SOL    HW2  920   1.660   5.631  10.955
99716SOL     OW  921  11.415   6.211  12.670
99716SOL    HW1  922  11.393   6.289  12.619
99716SOL    HW2  923  11.482   6.168  12.618
99717SOL     OW  924   7.326   6.288   1.003
99717SOL    HW1  925   7.264   6.283   0.930
99717SOL    HW2  926   7.351   6.380   1.007
99718SOL     OW  927   9.603   9.183  12.952
99718SOL    HW1  928   9.597   9.138  12.868
99718SOL    HW2  929   9.682   9.236  12.946
99719SOL     OW  930   3.348  13.692   3.913
99719SOL    HW1  931   3.436  13.714   3.882
99719SOL    HW2  932   3.316  13.772   3.954
99720SOL     OW  933  12.715   8.793   7.492
99720SOL    HW1  934  12.770   8.871   7.485
99720SOL    HW2  935  12.628   8.827   7.510
99721SOL     OW  936   6.454   1.201  13.983
99721SOL    HW1  937   6.426   1.120  14.027
99721SOL    HW2  938   6.533   1.227  14.029
99722SOL     OW  939  12.629   3.946   2.290
99722SOL    HW1  940  12.686   3.968   2.217
99722SOL    HW2  941  12.654   4.007   2.359
99723SOL     OW  942   9.270  12.516   0.452
99723SOL    HW1  943   9.345  12.569   0.424
99723SOL    HW2  944   9.301  12.472   0.531
99724SOL     OW  945   7.469   9.099  11.249
99724SOL    HW1  946   7.543   9.095  11.188
99724SOL    HW2  947   7.462   9.192  11.272
99725SOL     OW  948   8.240  10.730  10.672
99725SOL    HW1  949   8.232  10.635  10.678
99725SOL    HW2  950   8.218  10.750  10.580
99726SOL     OW  951   2.373   3.549   5.766
99726SOL    HW1  952   2.288   3.584   5.739
99726SOL    HW2  953   2.372   3.555   5.861
99727SOL     OW  954   4.128   3.844   9.310
99727SOL    HW1  955   4.154   3.839   9.218
99727SOL    HW2  956   4.048   3.897   9.309
99728SOL     OW  957   9.424  11.122  13.647
99728SOL    HW1  958   9.488  11.190  13.625
99728SOL    HW2  959   9.451  11.047  13.594
99729SOL     OW  960   4.596  14.748   5.869
99729SOL    HW1  961   4.531  14.817   5.878
99729SOL    HW2  962   4.644  14.749   5.951
99730SOL     OW  963   2.607   2.948   2.262
99730SOL    HW1  964   2.641   3.008   2.196
99730SOL    HW2  965   2.679   2.888   2.280
99731SOL     OW  966  14.728  12.869   3.434
99731SOL    HW1  967  14.742  12.895   3.343
99731SOL    HW2  968  14.752  12.946   3.485
99732SOL     OW  969   3.745   1.450   1.188
99732SOL    HW1  970   3.816   1.484   1.243
99732SOL    HW2  971   3.788   1.388   1.130
99733SOL     OW  972   7.029   1.323  11.469
99733SOL    HW1  973   7.039   1.232  11.440
99733SOL    HW2  974   7.012   1.316  11.563
99734SOL     OW  975   9.134  12.093   0.500
99734SOL    HW1  976   9.117  12.173   0.450
99734SOL    HW2  977   9.149  12.026   0.434
99735SOL     OW  978   0.288   4.004  11.032
99735SOL    HW1  979   0.228   4.003  10.957
99735SOL    HW2  980   0.280   3.916  11.070
99736SOL     OW  981  10.785  13.695   1.880
99736SOL    HW1  982  10.745  13.708   1.966
99736SOL    HW2  983  10.868  13.743   1.884
99737SOL     OW  984  12.551  14.449  11.341
99737SOL    HW1  985  12.478  14.390  11.360
99737SOL    HW2  986  12.623  14.391  11.317
99738SOL     OW  987  10.978  14.253   8.367
99738SOL    HW1  988  11.027  14.259   8.449
99738SOL    HW2  989  11.022  14.315   8.308
99739SOL     OW  990   9.409  11.690  13.072
99739SOL    HW1  991   9.470  11.664  13.003
99739SOL    HW2  992   9.387  11.781  13.052
99740SOL     OW  993   6.411   7.870  14.394
99740SOL    HW1  994   6.506   7.876  14.398
99740SOL    HW2  995   6.393   7.838  14.306
99741SOL     OW  996   9.474   8.907  10.050
99741SOL    HW1  997   9.530   8.979  10.021
99741SOL    HW2  998   9.534   8.842  10.086
99742SOL     OW  999   2.104  14.018   5.992
99742SOL    HW1 1000   2.050  13.946   5.959
99742SOL    HW2 1001   2.131  13.990   6.079
99743SOL     OW 1002   1.203   2.199  11.122
99743SOL    HW1 1003   1.188   2.227  11.212
99743SOL    HW2 1004   1.182   2.276  11.069
99744SOL     OW 1005   6.705   5.095   1.101
99744SOL    HW1 1006   6.728   5.056   1.016
99744SOL    HW2 1007   6.631   5.043   1.132
99745SOL     OW 1008   7.274  13.462   6.571
99745SOL    HW1 1009   7.336  13.434   6.504
99745SOL    HW2 1010   7.325  13.462   6.652
99746SOL     OW 1011  11.123   3.966   8.774
99746SOL    HW1 1012  11.070   3.892   8.745
99746SOL    HW2 1013  11.199   3.965   8.716
99747SOL     OW 1014   8.835   4.827  10.973
99747SOL    HW1 1015   8.895   4.899  10.989
99747SOL    HW2 1016   8.826   4.823  10.878
99748SOL     OW 1017   3.419  13.140  12.282
99748SOL    HW1 1018   3.453  13.065  12.331
99748SOL    HW2 1019   3.336  13.161  12.326
99749SOL     OW 1020  13.602   4.923   9.234
99749SOL    HW1 1021  13.610   4.891   9.144
99749SOL    HW2 1022  13.610   4.844   9.288
99750SOL     OW 1023   0.978   8.224   5.181
99750SOL    HW1 1024   0.997   8.252   5.091
99750SOL    HW2 1025   1.063   8.218   5.223
99751SOL     OW 1026   6.079  10.740  14.773
99751SOL    HW1 1027   6.170  10.738  14.802
99751SOL    HW2 1028   6.085  10.729  14.678
99752SOL     OW 1029  13.114  11.569  13.361
99752SOL    HW1 1030  13.201  11.596  13.331
99752SOL    HW2 1031  13.064  11.554  13.281
99753SOL     OW 1032   3.414  10.398   1.886
99753SOL    HW1 1033   3.438  10.406   1.794
99753SOL    HW2 1034   3.497  10.402   1.933
99754SOL     OW 1035   7.093   0.732   5.081
99754SOL    HW1 1036   7.165   0.732   5.017
99754SOL    HW2 1037   7.050   0.817   5.069
99755SOL     OW 1038   5.868   6.055   9.164
99755SOL    HW1 1039   5.942   6.076   9.107
99755SOL    HW2 1040   5.793   6.100   9.125
99756SOL     OW 1041  14.414   3.255   0.007
99756SOL    HW1 1042  14.465   3.232  14.807
99756SOL    HW2 1043  14.325   3.271  14.851
99757SOL     OW 1044   9.443  14.607   6.454
99757SOL    HW1 1045   9.528  14.566   6.466
99757SOL    HW2 1046   9.412  14.574   6.370
99758SOL     OW 1047   2.885  11.830  13.521
99758SOL    HW1 1048   2.956  11.889  13.547
99758SOL    HW2 1049   2.887  11.830  13.426
99759SOL     OW 1050  11.917  13.312   7.149
99759SOL    HW1 1051  11.875  13.380   7.096
99759SOL    HW2 1052  11.921  13.236   7.091
99760SOL     OW 1053   9.834   0.096   0.265
99760SOL    HW1 1054   9.916   0.079   0.219
99760SOL    HW2 1055   9.850   0.177   0.314
99761SOL     OW 1056   9.053   7.883   6.350
99761SOL    HW1 1057   9.101   7.915   6.427
99761SOL    HW2 1058   9.115   7.825   6.306
99762SOL     OW 1059   2.672   1.708  13.851
99762SOL    HW1 1060   2.589   1.699  13.804
99762SOL    HW2 1061   2.648   1.707  13.943
99763SOL     OW 1062   5.261   7.945   8.312
99763SOL    HW1 1063   5.167   7.934   8.329
99763SOL    HW2 1064   5.304   7.898   8.383
99764SOL     OW 1065  12.673   5.055  14.856
99764SOL    HW1 1066  12.684   4.979   0.036
99764SOL    HW2 1067  12.637   5.123   0.036
99765SOL     OW 1068   4.816  14.283   7.804
99765SOL    HW1 1069   4.766  14.254   7.728
99765SOL    HW2 1070   4.783  14.371   7.821
99766SOL     OW 1071   5.804  11.917   2.021
99766SOL    HW1 1072   5.710  11.912   2.007
99766SOL    HW2 1073   5.822  12.011   2.028
99767SOL     OW 1074  13.279  12.523   9.361
99767SOL    HW1 1075  13.262  12.616   9.373
99767SOL    HW2 1076  13.367  12.510   9.395
99768SOL     OW 1077   7.786   5.091   3.560
99768SOL    HW1 1078   7.764   4.999   3.551
99768SOL    HW2 1079   7.764   5.129   3.475
99769SOL     OW 1080   9.782   9.673  14.663
99769SOL    HW1 1081   9.760   9.637  14.749
99769SOL    HW2 1082   9.878   9.677  14.662
99770SOL     OW 1083   7.639   3.141   3.585
99770SOL    HW1 1084   7.620   3.093   3.666
99770SOL    HW2 1085   7.722   3.186   3.602
99771SOL     OW 1086   7.081   9.760  12.439
99771SOL    HW1 1087   6.999   9.732  12.398
99771SOL    HW2 1088   7.131   9.799  12.368
99772SOL     OW 1089   2.682  13.994   1.392
99772SOL    HW1 1090   2.702  14.051   1.466
99772SOL    HW2 1091   2.711  14.043   1.315
99773SOL     OW 1092   3.511   0.772  12.747
99773SOL    HW1 1093   3.521   0.865  12.727
99773SOL    HW2 1094   3.585   0.751  12.804
99774SOL     OW 1095   9.446  12.009  14.763
99774SOL    HW1 1096   9.516  11.958  14.804
99774SOL    HW2 1097   9.489  12.061  14.696
99775SOL     OW 1098   6.371   0.486   5.429
99775SOL    HW1 1099   6.291   0.514   5.474
99775SOL    HW2 1100   6.440   0.540   5.467
99776SOL     OW 1101   3.094   0.062   6.902
99776SOL    HW1 1102   3.060   0.085   6.816
99776SOL    HW2 1103   3.017   0.044   6.955
99777SOL     OW 1104   4.700  10.619   0.454
99777SOL    HW1 1105   4.707  10.609   0.549
99777SOL    HW2 1106   4.660  10.706   0.442
99778SOL     OW 1107  11.384   8.650   0.411
99778SOL    HW1 1108  11.354   8.616   0.496
99778SOL    HW2 1109  11.459   8.705   0.432
99779SOL     OW 1110  10.365  14.600   5.131
99779SOL    HW1 1111  10.381  14.576   5.040
99779SOL    HW2 1112  10.428  14.670   5.148
99780SOL     OW 1113  12.395   0.666   5.810
99780SOL    HW1 1114  12.390   0.743   5.866
99780SOL    HW2 1115  12.340   0.601   5.854
99781SOL     OW 1116   0.648   4.635   8.503
99781SOL    HW1 1117   0.600   4.610   8.424
99781SOL    HW2 1118   0.684   4.721   8.482
99782SOL     OW 1119   8.746   0.351  10.439
99782SOL    HW1 1120   8.653   0.329  10.446
99782SOL    HW2 1121   8.765   0.403  10.517
99783SOL     OW 1122  12.705   7.619  11.041
99783SOL    HW1 1123  12.761   7.687  11.005
99783SOL    HW2 1124  12.623   7.626  10.991
99784SOL     OW 1125   1.070   5.109  12.199
99784SOL    HW1 1126   1.143   5.150  12.154
99784SOL    HW2 1127   1.001   5.104  12.133
99785SOL     OW 1128   4.294   9.147  13.965
99785SOL    HW1 1129   4.307   9.172  13.874
99785SOL    HW2 1130   4.372   9.095  13.987
99786SOL     OW 1131   6.490  14.864   0.955
99786SOL    HW1 1132   6.489   0.066   1.008
99786SOL    HW2 1133   6.553  14.806   0.998
99787SOL     OW 1134  10.810  10.350   2.380
99787SOL    HW1 1135  10.899  10.382   2.363
99787SOL    HW2 1136  10.822  10.284   2.448
99788SOL     OW 1137   1.055   4.869   6.145
99788SOL    HW1 1138   1.004   4.947   6.165
99788SOL    HW2 1139   1.003   4.796   6.179
99789SOL     OW 1140   5.928   0.944  14.821
99789SOL    HW1 1141   5.934   1.038  14.836
99789SOL    HW2 1142   5.836   0.922  14.838
99790SOL     OW 1143   0.958   9.258   6.425
99790SOL    HW1 1144   1.018   9.206   6.478
99790SOL    HW2 1145   0.958   9.216   6.339
99791SOL     OW 1146   9.280   3.117   2.007
99791SOL    HW1 1147   9.223   3.167   2.067
99791SOL    HW2 1148   9.285   3.030   2.046
99792SOL     OW 1149   8.564   2.150   9.570
99792SOL    HW1 1150   8.565   2.115   9.659
99792SOL    HW2 1151   8.480   2.123   9.534
99793SOL     OW 1152   0.874   9.509   3.433
99793SOL    HW1 1153   0.965   9.536   3.424
99793SOL    HW2 1154   0.826   9.563   3.371
99794SOL     OW 1155  14.204  12.725   4.610
99794SOL    HW1 1156  14.230  12.633   4.610
99794SOL    HW2 1157  14.132  12.729   4.673
99795SOL     OW 1158  11.764   0.272   9.068
99795SOL    HW1 1159  11.717   0.268   8.984
99795SOL    HW2 1160  11.774   0.365   9.086
99796SOL     OW 1161   5.076   0.269   7.430
99796SOL    HW1 1162   4.988   0.231   7.434
99796SOL    HW2 1163   5.062   0.356   7.393
99797SOL     OW 1164  13.543  13.109   6.369
99797SOL    HW1 1165  13.478  13.148   6.311
99797SOL    HW2 1166  13.500  13.107   6.455
99798SOL     OW 1167   8.097   9.193   6.167
99798SOL    HW1 1168   8.077   9.227   6.080
99798SOL    HW2 1169   8.033   9.123   6.181
99799SOL     OW 1170   3.144  12.557  13.072
99799SOL    HW1 1171   3.150  12.539  12.978
99799SOL    HW2 1172   3.167  12.650  13.080
99800SOL     OW 1173   5.625   6.380   1.998
99800SOL    HW1 1174   5.707   6.397   2.044
99800SOL    HW2 1175   5.599   6.293   2.026
99801SOL     OW 1176  13.514   0.770  12.477
99801SOL    HW1 1177  13.587   0.743  12.421
99801SOL    HW2 1178  13.547   0.760  12.566
99802SOL     OW 1179  12.712   4.712   0.930
99802SOL    HW1 1180  12.672   4.774   0.869
99802SOL    HW2 1181  12.638   4.674   0.978
99803SOL     OW 1182   3.361   5.157   1.602
99803SOL    HW1 1183   3.343   5.246   1.572
99803SOL    HW2 1184   3.448   5.162   1.641
99804SOL     OW 1185  12.096   8.140   8.957
99804SOL    HW1 1186  12.071   8.229   8.979
99804SOL    HW2 1187  12.019   8.087   8.979
99805SOL     OW 1188   8.737   4.799   0.772
99805SOL    HW1 1189   8.790   4.864   0.727
99805SOL    HW2 1190   8.783   4.782   0.854
99806SOL     OW 1191   8.840  11.252   7.225
99806SOL    HW1 1192   8.839  11.208   7.140
99806SOL    HW2 1193   8.823  11.344   7.204
99807SOL     OW 1194   8.226   2.185   1.503
99807SOL    HW1 1195   8.285   2.260   1.515
99807SOL    HW2 1196   8.233   2.136   1.585
99808SOL     OW 1197   4.911  12.330   2.842
99808SOL    HW1 1198   5.004  12.334   2.819
99808SOL    HW2 1199   4.898  12.238   2.867
99809SOL     OW 1200   7.495  11.659  12.233
99809SOL    HW1 1201   7.405  11.638  12.259
99809SOL    HW2 1202   7.518  11.735  12.287
99810SOL     OW 1203   0.326  11.373   7.758
99810SOL    HW1 1204   0.397  11.333   7.709
99810SOL    HW2 1205   0.297  11.305   7.819
99811SOL     OW 1206  14.330   6.733   8.903
99811SOL    HW1 1207  14.397   6.690   8.850
99811SOL    HW2 1208  14.378   6.795   8.957
99812SOL     OW 1209  10.712   6.649  11.558
99812SOL    HW1 1210  10.749   6.605  11.482
99812SOL    HW2 1211  10.676   6.730  11.523
99813SOL     OW 1212  10.606   8.146   5.594
99813SOL    HW1 1213  10.580   8.236   5.575
99813SOL    HW2 1214  10.677   8.127   5.533
99814SOL     OW 1215  12.549  10.633   7.943
99814SOL    HW1 1216  12.601  10.680   7.878
99814SOL    HW2 1217  12.612  10.579   7.990
99815SOL     OW 1218  10.469  13.912   7.816
99815SOL    HW1 1219  10.435  13.836   7.863
99815SOL    HW2 1220  10.562  13.893   7.806
99816SOL     OW 1221   5.596   6.354  12.108
99816SOL    HW1 1222   5.593   6.449  12.118
99816SOL    HW2 1223   5.521   6.322  12.158
99817SOL     OW 1224   4.018   8.500   5.861
99817SOL    HW1 1225   4.064   8.455   5.790
99817SOL    HW2 1226   4.027   8.593   5.840
99818SOL     OW 1227   4.911  10.465   3.112
99818SOL    HW1 1228   4.876  10.509   3.189
99818SOL    HW2 1229   5.006  10.471   3.122
99819SOL     OW 1230   0.073   6.488   5.540
99819SOL    HW1 1231   0.025   6.406   5.547
99819SOL    HW2 1232   0.011   6.556   5.565
99820SOL     OW 1233   6.974  10.795  10.841
99820SOL    HW1 1234   6.894  10.751  10.813
99820SOL    HW2 1235   6.974  10.788  10.936
99821SOL     OW 1236  10.963   4.646  13.871
99821SOL    HW1 1237  10.875   4.679  13.885
99821SOL    HW2 1238  10.963   4.559  13.912
99822SOL     OW 1239  10.159   8.768   2.178
99822SOL    HW1 1240  10.135   8.741   2.089
99822SOL    HW2 1241  10.253   8.750   2.184
99823SOL     OW 1242  11.659   8.654   9.496
99823SOL    HW1 1243  11.687   8.563   9.508
99823SOL    HW2 1244  11.579   8.647   9.444
99824SOL     OW 1245   9.296   8.798  11.693
99824SOL    HW1 1246   9.272   8.720  11.744
99824SOL    HW2 1247   9.384   8.820  11.724
99825SOL     OW 1248   0.018  14.431   3.926
99825SOL    HW1 1249   0.021  14.527   3.924
99825SOL    HW2 1250   0.071  14.404   3.851
99826SOL     OW 1251   4.044  13.044   7.385
99826SOL    HW1 1252   4.006  13.027   7.471
99826SOL    HW2 1253   3.974  13.088   7.336
99827SOL     OW 1254  10.561   4.171   8.134
99827SOL    HW1 1255  10.546   4.178   8.228
99827SOL    HW2 1256  10.553   4.260   8.102
99828SOL     OW 1257  10.033   9.170   3.635
99828SOL    HW1 1258  10.022   9.253   3.681
99828SOL    HW2 1259  10.003   9.188   3.545
99829SOL     OW 1260   3.589  14.807   0.733
99829SOL    HW1 1261   3.534  14.766   0.800
99829SOL    HW2 1262   3.640  14.734   0.696
99830SOL     OW 1263   8.864   6.796   3.013
99830SOL    HW1 1264   8.908   6.878   2.990
99830SOL    HW2 1265   8.839   6.807   3.104
99831SOL     OW 1266   6.597   2.757  13.491
99831SOL    HW1 1267   6.585   2.665  13.470
99831SOL    HW2 1268   6.672   2.784  13.438
99832SOL     OW 1269  13.917   9.144  12.619
99832SOL    HW1 1270  13.878   9.199  12.687
99832SOL    HW2 1271  13.853   9.147  12.547
99833SOL     OW 1272   5.121   3.647   0.521
99833SOL    HW1 1273   5.136   3.733   0.561
99833SOL    HW2 1274   5.087   3.667   0.433
99834SOL     OW 1275  10.319  13.504   3.132
99834SOL    HW1 1276  10.313  13.541   3.220
99834SOL    HW2 1277  10.387  13.438   3.138
99835SOL     OW 1278   3.728   1.300  10.505
99835SOL    HW1 1279   3.804   1.358  10.516
99835SOL    HW2 1280   3.762   1.225  10.457
99836SOL     OW 1281   3.014   2.912   1.647
99836SOL    HW1 1282   3.004   2.832   1.595
99836SOL    HW2 1283   3.092   2.955   1.610
99837SOL     OW 1284   5.275   5.465   0.170
99837SOL    HW1 1285   5.306   5.392   0.117
99837SOL    HW2 1286   5.299   5.442   0.260
99838SOL     OW 1287   0.987   9.173   7.763
99838SOL    HW1 1288   1.003   9.084   7.794
99838SOL    HW2 1289   1.010   9.170   7.670
99839SOL     OW 1290   0.796  12.404   4.763
99839SOL    HW1 1291   0.860  12.474   4.770
99839SOL    HW2 1292   0.831  12.334   4.818
99840SOL     OW 1293  14.846   4.972   7.400
99840SOL    HW1 1294   0.002   4.897   7.352
99840SOL    HW2 1295  14.798   5.023   7.334
99841SOL     OW 1296  12.720  13.584   3.664
99841SOL    HW1 1297  12.706  13.658   3.604
99841SOL    HW2 1298  12.796  13.611   3.717
99842SOL     OW 1299   1.389   8.108   4.255
99842SOL    HW1 1300   1.382   8.129   4.162
99842SOL    HW2 1301   1.419   8.017   4.256
99843SOL     OW 1302   7.503  11.002  10.039
99843SOL    HW1 1303   7.434  10.943  10.071
99843SOL    HW2 1304   7.580  10.946  10.030
99844SOL     OW 1305   6.935   9.276  13.809
99844SOL    HW1 1306   7.015   9.326  13.791
99844SOL    HW2 1307   6.938   9.259  13.903
99845SOL     OW 1308  10.345  14.079   5.725
99845SOL    HW1 1309  10.314  14.165   5.696
99845SOL    HW2 1310  10.382  14.095   5.812
99846SOL     OW 1311   5.215   3.551  11.855
99846SOL    HW1 1312   5.190   3.493  11.784
99846SOL    HW2 1313   5.310   3.561  11.846
99847SOL     OW 1314  14.831   8.394   1.956
99847SOL    HW1 1315  14.776   8.320   1.930
99847SOL    HW2 1316  14.770   8.466   1.971
99848SOL     OW 1317  12.774  14.278  14.564
99848SOL    HW1 1318  12.810  14.254  14.478
99848SOL    HW2 1319  12.784  14.373  14.568
99849SOL     OW 1320   9.812  13.160   2.429
99849SOL    HW1 1321   9.731  13.210   2.419
99849SOL    HW2 1322   9.840  13.178   2.519
99850SOL     OW 1323   0.478  13.473   1.071
99850SOL    HW1 1324   0.406  13.413   1.089
99850SOL    HW2 1325   0.548  13.417   1.037
99851SOL     OW 1326   0.909   2.131   2.189
99851SOL    HW1 1327   0.920   2.226   2.188
99851SOL    HW2 1328   0.988   2.098   2.146
99852SOL     OW 1329   9.162   2.775   0.354
99852SOL    HW1 1330   9.085   2.797   0.406
99852SOL    HW2 1331   9.224   2.845   0.371
99853SOL     OW 1332  12.864   2.105   5.760
99853SOL    HW1 1333  12.875   2.153   5.843
99853SOL    HW2 1334  12.831   2.020   5.787
99854SOL     OW 1335  13.337  14.814   4.593
99854SOL    HW1 1336  13.339  14.818   4.689
99854SOL    HW2 1337  13.396   0.006   4.564
99855SOL     OW 1338   2.571  12.852   9.609
99855SOL    HW1 1339   2.562  12.946   9.589
99855SOL    HW2 1340   2.661  12.843   9.641
99856SOL     OW 1341   2.530   2.840   7.255
99856SOL    HW1 1342   2.513   2.790   7.335
99856SOL    HW2 1343   2.521   2.776   7.184
99857SOL     OW 1344   6.685   4.190   8.156
99857SOL    HW1 1345   6.630   4.136   8.213
99857SOL    HW2 1346   6.749   4.129   8.120
99858SOL     OW 1347  14.227   1.220   0.300
99858SOL    HW1 1348  14.300   1.159   0.289
99858SOL    HW2 1349  14.215   1.257   0.213
99859SOL     OW 1350   3.544  13.407  13.850
99859SOL    HW1 1351   3.632  13.369  13.844
99859SOL    HW2 1352   3.525  13.438  13.761
99860SOL     OW 1353   7.775   7.225   2.534
99860SOL    HW1 1354   7.814   7.154   2.484
99860SOL    HW2 1355   7.687   7.235   2.498
99861SOL     OW 1356   8.181  12.139   0.040
99861SOL    HW1 1357   8.270  12.154   0.007
99861SOL    HW2 1358   8.133  12.104  14.843
99862SOL     OW 1359   9.628  13.877   8.620
99862SOL    HW1 1360   9.660  13.921   8.699
99862SOL    HW2 1361   9.698  13.817   8.596
99863SOL     OW 1362   7.973   4.055  12.288
99863SOL    HW1 1363   8.022   4.085  12.364
99863SOL    HW2 1364   7.934   4.134  12.252
99864SOL     OW 1365   9.063   9.291   1.244
99864SOL    HW1 1366   9.144   9.247   1.221
99864SOL    HW2 1367   9.001   9.264   1.176
99865SOL     OW 1368   9.351  12.838   3.161
99865SOL    HW1 1369   9.290  12.899   3.203
99865SOL    HW2 1370   9.434  12.852   3.206
99866SOL     OW 1371  12.413   4.495  14.654
99866SOL    HW1 1372  12.462   4.456  14.581
99866SOL    HW2 1373  12.344   4.546  14.612
99867SOL     OW 1374  10.441   0.313   2.773
99867SOL    HW1 1375  10.384   0.310   2.696
99867SOL    HW2 1376  10.509   0.248   2.755
99868SOL     OW 1377   0.667  13.993   9.353
99868SOL    HW1 1378   0.579  14.029   9.340
99868SOL    HW2 1379   0.724  14.050   9.300
99869SOL     OW 1380  14.615   2.370  10.852
99869SOL    HW1 1381  14.519   2.371  10.855
99869SOL    HW2 1382  14.636   2.321  10.773
99870SOL     OW 1383  13.496   6.126   4.922
99870SOL    HW1 1384  13.488   6.212   4.963
99870SOL    HW2 1385  13.421   6.077   4.954
99871SOL     OW 1386   0.153   2.422  11.421
99871SOL    HW1 1387   0.182   2.466  11.500
99871SOL    HW2 1388   0.154   2.490  11.353
99872SOL     OW 1389   0.239   1.623   1.580
99872SOL    HW1 1390   0.307   1.556   1.586
99872SOL    HW2 1391   0.162   1.576   1.548
99873SOL     OW 1392   7.048  12.119   9.010
99873SOL    HW1 1393   6.958  12.102   8.983
99873SOL    HW2 1394   7.059  12.071   9.092
99874SOL     OW 1395   7.459   3.764   8.145
99874SOL    HW1 1396   7.384   3.744   8.202
99874SOL    HW2 1397   7.514   3.686   8.150
99875SOL     OW 1398   2.001   0.989   2.043
99875SOL    HW1 1399   2.007   0.925   1.972
99875SOL    HW2 1400   2.004   0.937   2.123
99876SOL     OW 1401  14.876  11.389  10.028
99876SOL    HW1 1402  14.787  11.377   9.994
99876SOL    HW2 1403  14.871  11.357  10.118
99877SOL     OW 1404   3.605  11.337   2.904
99877SOL    HW1 1405   3.514  11.343   2.934
99877SOL    HW2 1406   3.654  11.392   2.965
99878SOL     OW 1407   0.098   1.624   6.737
99878SOL    HW1 1408   0.046   1.634   6.657
99878SOL    HW2 1409   0.033   1.613   6.806
99879SOL     OW 1410   1.969  14.628   2.412
99879SOL    HW1 1411   2.020  14.549   2.394
99879SOL    HW2 1412   1.960  14.671   2.327
99880SOL     OW 1413  12.676   0.303  11.397
99880SOL    HW1 1414  12.735   0.243  11.350
99880SOL    HW2 1415  12.663   0.376  11.337
99881SOL     OW 1416   0.682   8.625  14.106
99881SOL    HW1 1417   0.608   8.567  14.124
99881SOL    HW2 1418   0.756   8.566  14.090
99882SOL     OW 1419   1.925   5.253  13.327
99882SOL    HW1 1420   2.014   5.221  13.335
99882SOL    HW2 1421   1.931   5.326  13.266
99883SOL     OW 1422   8.832   7.974  12.439
99883SOL    HW1 1423   8.860   7.905  12.499
99883SOL    HW2 1424   8.836   8.054  12.491
99884SOL     OW 1425  13.672   2.552   4.965
99884SOL    HW1 1426  13.708   2.555   4.877
99884SOL    HW2 1427  13.676   2.459   4.990
99885SOL     OW 1428  11.204   3.020   4.614
99885SOL    HW1 1429  11.116   3.058   4.613
99885SOL    HW2 1430  11.189   2.926   4.603
99886SOL     OW 1431   7.979  11.244   5.368
99886SOL    HW1 1432   8.008  11.160   5.330
99886SOL    HW2 1433   8.027  11.310   5.318
99887SOL     OW 1434   4.322   1.563  11.113
99887SOL    HW1 1435   4.383   1.490  11.126
99887SOL    HW2 1436   4.361   1.636  11.161
99888SOL     OW 1437  11.240   3.909   4.859
99888SOL    HW1 1438  11.321   3.863   4.836
99888SOL    HW2 1439  11.268   4.000   4.871
99889SOL     OW 1440  11.498   5.063   8.158
99889SOL    HW1 1441  11.559   4.991   8.173
99889SOL    HW2 1442  11.420   5.022   8.120
99890SOL     OW 1443   4.401  11.762  10.624
99890SOL    HW1 1444   4.435  11.780  10.712
99890SOL    HW2 1445   4.314  11.802  10.623
99891SOL     OW 1446  13.824   3.818   7.273
99891SOL    HW1 1447  13.833   3.899   7.323
99891SOL    HW2 1448  13.791   3.754   7.336
99892SOL     OW 1449   3.335   5.160  10.007
99892SOL    HW1 1450   3.307   5.209   9.930
99892SOL    HW2 1451   3.257   5.110  10.033
99893SOL     OW 1452  10.014   6.191   0.638
99893SOL    HW1 1453   9.991   6.269   0.588
99893SOL    HW2 1454   9.932   6.143   0.647
99894SOL     OW 1455   4.075  10.325   7.407
99894SOL    HW1 1456   4.147  10.374   7.366
99894SOL    HW2 1457   4.080  10.348   7.499
99895SOL     OW 1458  12.943  10.098   5.398
99895SOL    HW1 1459  12.923  10.189   5.419
99895SOL    HW2 1460  12.947  10.054   5.484
99896SOL     OW 1461  13.831  13.484   1.932
99896SOL    HW1 1462  13.768  13.550   1.962
99896SOL    HW2 1463  13.781  13.431   1.869
99897SOL     OW 1464  11.192   8.708   5.498
99897SOL    HW1 1465  11.211   8.736   5.409
99897SOL    HW2 1466  11.125   8.770   5.529
99898SOL     OW 1467   1.105   1.292  11.851
99898SOL    HW1 1468   1.194   1.276  11.883
99898SOL    HW2 1469   1.052   1.223  11.890
99899SOL     OW 1470   3.240   6.401   5.021
99899SOL    HW1 1471   3.176   6.404   5.093
99899SOL    HW2 1472   3.246   6.308   4.999
99900SOL     OW 1473   2.781   4.263   0.398
99900SOL    HW1 1474   2.750   4.183   0.355
99900SOL    HW2 1475   2.819   4.315   0.327
99901SOL     OW 1476   8.756  11.018   3.080
99901SOL    HW1 1477   8.685  11.073   3.047
99901SOL    HW2 1478   8.757  10.942   3.022
99902SOL     OW 1479   6.745  12.654   8.216
99902SOL    HW1 1480   6.710  12.626   8.301
99902SOL    HW2 1481   6.685  12.616   8.152
99903SOL     OW 1482   8.956  12.927   2.093
99903SOL    HW1 1483   9.010  12.915   2.171
99903SOL    HW2 1484   9.018  12.954   2.026
99904SOL     OW 1485  12.737   7.814  11.901
99904SOL    HW1 1486  12.687   7.759  11.841
99904SOL    HW2 1487  12.711   7.903  11.878
99905SOL     OW 1488   0.161   2.632   4.887
99905SOL    HW1 1489   0.204   2.693   4.947
99905SOL    HW2 1490   0.073   2.621   4.922
99906SOL     OW 1491   0.200  13.034   9.920
99906SOL    HW1 1492   0.164  13.051   9.833
99906SOL    HW2 1493   0.282  12.987   9.903
99907SOL     OW 1494   5.762   8.490   4.933
99907SOL    HW1 1495   5.687   8.548   4.949
99907SOL    HW2 1496   5.808   8.529   4.859
99908SOL     OW 1497  13.512  14.383   1.953
99908SOL    HW1 1498  13.502  14.291   1.928
99908SOL    HW2 1499  13.566  14.380   2.033
99909SOL     OW 1500   6.801   1.801   5.871
99909SOL    HW1 1501   6.859   1.876   5.856
99909SOL    HW2 1502   6.743   1.830   5.941
99910SOL     OW 1503   9.155   2.163  12.079
99910SOL    HW1 1504   9.112   2.106  12.015
99910SOL    HW2 1505   9.248   2.158  12.057
99911SOL     OW 1506   1.459   9.482   1.007
99911SOL    HW1 1507   1.478   9.475   0.913
99911SOL    HW2 1508   1.378   9.533   1.011
99912SOL     OW 1509  14.782  12.885  12.926
99912SOL    HW1 1510  14.720  12.840  12.983
99912SOL    HW2 1511  14.786  12.974  12.960
99913SOL     OW 1512   1.088  13.684  14.315
99913SOL    HW1 1513   1.120  13.731  14.238
99913SOL    HW2 1514   0.995  13.672  14.299
99914SOL     OW 1515   3.925   0.866   7.529
99914SOL    HW1 1516   3.866   0.927   7.486
99914SOL    HW2 1517   4.012   0.890   7.497
99915SOL     OW 1518   5.778   1.021   3.685
99915SOL    HW1 1519   5.872   1.032   3.701
99915SOL    HW2 1520   5.762   1.066   3.602
99916SOL     OW 1521   6.795  14.499  12.664
99916SOL    HW1 1522   6.802  14.433  12.733
99916SOL    HW2 1523   6.772  14.579  12.711
99917SOL     OW 1524  12.158  11.812   5.350
99917SOL    HW1 1525  12.066  11.836   5.353
99917SOL    HW2 1526  12.200  11.868   5.416
99918SOL     OW 1527   2.668   6.121   2.712
99918SOL    HW1 1528   2.757   6.103   2.741
99918SOL    HW2 1529   2.672   6.117   2.616
99919SOL     OW 1530   8.000   0.703  14.116
99919SOL    HW1 1531   7.935   0.634  14.133
99919SOL    HW2 1532   8.030   0.687  14.027
99920SOL     OW 1533   3.614  10.314  14.567
99920SOL    HW1 1534   3.677  10.367  14.616
99920SOL    HW2 1535   3.592  10.242  14.625
99921SOL     OW 1536   8.022   7.592   0.727
99921SOL    HW1 1537   8.079   7.528   0.684
99921SOL    HW2 1538   7.988   7.645   0.655
99922SOL     OW 1539  11.808  11.069   2.603
99922SOL    HW1 1540  11.826  10.976   2.593
99922SOL    HW2 1541  11.849  11.110   2.527
99923SOL     OW 1542   7.169   1.222   6.946
99923SOL    HW1 1543   7.142   1.306   6.983
99923SOL    HW2 1544   7.197   1.242   6.857
99924SOL     OW 1545   9.007   4.654   4.482
99924SOL    HW1 1546   8.991   4.562   4.505
99924SOL    HW2 1547   8.923   4.684   4.447
99925SOL     OW 1548   0.989   7.204   9.853
99925SOL    HW1 1549   0.930   7.136   9.884
99925SOL    HW2 1550   0.978   7.276   9.916
99926SOL     OW 1551   8.845   3.054   5.036
99926SOL    HW1 1552   8.880   3.099   4.959
99926SOL    HW2 1553   8.900   2.976   5.046
99927SOL     OW 1554  12.111  14.497   5.226
99927SOL    HW1 1555  12.176  14.517   5.159
99927SOL    HW2 1556  12.123  14.565   5.292
99928SOL     OW 1557  14.741  13.998  12.564
99928SOL    HW1 1558  14.735  14.059  12.638
99928SOL    HW2 1559  14.656  13.953  12.563
99929SOL     OW 1560   5.565  13.560   7.719
99929SOL    HW1 1561   5.538  13.635   7.666
99929SOL    HW2 1562   5.495  13.551   7.784
99930SOL     OW 1563   9.664  10.736  10.481
99930SOL    HW1 1564   9.664  10.716  10.574
99930SOL    HW2 1565   9.583  10.695  10.448
99931SOL     OW 1566  13.154   5.321  10.282
99931SOL    HW1 1567  13.210   5.244  10.285
99931SOL    HW2 1568  13.084   5.298  10.221
99932SOL     OW 1569   8.887   0.816  13.106
99932SOL    HW1 1570   8.956   0.838  13.045
99932SOL    HW2 1571   8.923   0.746  13.160
99933SOL     OW 1572   1.338   7.260   5.176
99933SOL    HW1 1573   1.411   7.257   5.114
99933SOL    HW2 1574   1.360   7.331   5.236
99934SOL     OW 1575  14.408   3.746   6.757
99934SOL    HW1 1576  14.462   3.672   6.786
99934SOL    HW2 1577  14.318   3.718   6.772
99935SOL     OW 1578   5.326  10.857   3.174
99935SOL    HW1 1579   5.268  10.900   3.111
99935SOL    HW2 1580   5.410  10.851   3.128
99936SOL     OW 1581   1.462   7.641  13.391
99936SOL    HW1 1582   1.472   7.706  13.461
99936SOL    HW2 1583   1.484   7.558  13.433
99937SOL     OW 1584   3.451   1.860   6.332
99937SOL    HW1 1585   3.497   1.863   6.415
99937SOL    HW2 1586   3.413   1.772   6.329
99938SOL     OW 1587  10.409   0.192  10.227
99938SOL    HW1 1588  10.371   0.278  10.244
99938SOL    HW2 1589  10.333   0.134  10.219
99939SOL     OW 1590  13.321  10.149   6.067
99939SOL    HW1 1591  13.413  10.120   6.064
99939SOL    HW2 1592  13.307  10.193   5.983
99940SOL     OW 1593  13.295   0.231  13.337
99940SOL    HW1 1594  13.273   0.166  13.270
99940SOL    HW2 1595  13.239   0.208  13.411
99941SOL     OW 1596   8.107  10.892  11.071
99941SOL    HW1 1597   8.088  10.893  10.977
99941SOL    HW2 1598   8.060  10.967  11.106
99942SOL     OW 1599  13.536  11.591   2.628
99942SOL    HW1 1600  13.630  11.587   2.610
99942SOL    HW2 1601  13.497  11.532   2.564
99943SOL     OW 1602   5.039   4.886   4.383
99943SOL    HW1 1603   4.976   4.843   4.325
99943SOL    HW2 1604   5.020   4.979   4.374
99944SOL     OW 1605  13.750   6.473  14.790
99944SOL    HW1 1606  13.656   6.481  14.775
99944SOL    HW2 1607  13.764   6.379  14.806
99945SOL     OW 1608   3.715  14.551   0.238
99945SOL    HW1 1609   3.727  14.642   0.264
99945SOL    HW2 1610   3.623  14.533   0.260
99946SOL     OW 1611   7.559   9.867   6.349
99946SOL    HW1 1612   7.634   9.829   6.395
99946SOL    HW2 1613   7.530   9.938   6.405
99947SOL     OW 1614   7.753  13.882   2.033
99947SOL    HW1 1615   7.695  13.896   2.107
99947SOL    HW2 1616   7.706  13.918   1.958
99948SOL     OW 1617   2.739  10.424   3.368
99948SOL    HW1 1618   2.826  10.385   3.359
99948SOL    HW2 1619   2.683  10.350   3.392
99949SOL     OW 1620   0.465   5.729  13.018
99949SOL    HW1 1621   0.401   5.773  12.963
99949SOL    HW2 1622   0.550   5.756  12.982
99950SOL     OW 1623   1.643   6.856   5.735
99950SOL    HW1 1624   1.711   6.850   5.802
99950SOL    HW2 1625   1.586   6.927   5.764
99951SOL     OW 1626  10.291   6.615   6.556
99951SOL    HW1 1627  10.308   6.591   6.465
99951SOL    HW2 1628  10.217   6.560   6.582
99952SOL     OW 1629  13.979  14.843  14.021
99952SOL    HW1 1630  13.907  14.800  14.067
99952SOL    HW2 1631  13.939   0.001  13.941
99953SOL     OW 1632   0.465   4.238   7.816
99953SOL    HW1 1633   0.513   4.193   7.746
99953SOL    HW2 1634   0.384   4.268   7.774
99954SOL     OW 1635   7.563   4.417  13.921
99954SOL    HW1 1636   7.650   4.387  13.946
99954SOL    HW2 1637   7.534   4.472  13.994
99955SOL     OW 1638   7.474  11.475  10.238
99955SOL    HW1 1639   7.516  11.390  10.222
99955SOL    HW2 1640   7.538  11.523  10.292
99956SOL     OW 1641   0.647   3.731   4.883
99956SOL    HW1 1642   0.623   3.763   4.970
99956SOL    HW2 1643   0.650   3.636   4.892
99957SOL     OW 1644  11.031  12.128  10.256
99957SOL    HW1 1645  11.085  12.051  10.273
99957SOL    HW2 1646  11.072  12.171  10.181
99958SOL     OW 1647   5.097   4.642   6.428
99958SOL    HW1 1648   5.130   4.722   6.469
99958SOL    HW2 1649   5.009   4.665   6.396
99959SOL     OW 1650   1.752   6.770   9.458
99959SOL    HW1 1651   1.796   6.685   9.449
99959SOL    HW2 1652   1.659   6.750   9.446
99960SOL     OW 1653  14.409   1.040   0.907
99960SOL    HW1 1654  14.372   1.069   0.823
99960SOL    HW2 1655  14.498   1.012   0.885
99961SOL     OW 1656   9.735   6.490  10.195
99961SOL    HW1 1657   9.694   6.575  10.180
99961SOL    HW2 1658   9.759   6.459  10.108
99962SOL     OW 1659   9.882   3.637  13.375
99962SOL    HW1 1660   9.895   3.635  13.280
99962SOL    HW2 1661   9.906   3.726  13.401
99963SOL     OW 1662   6.361  11.704   5.845
99963SOL    HW1 1663   6.304  11.633   5.874
99963SOL    HW2 1664   6.351  11.704   5.749
99964SOL     OW 1665   6.548  11.575   8.130
99964SOL    HW1 1666   6.474  11.610   8.180
99964SOL    HW2 1667   6.555  11.484   8.159
99965SOL     OW 1668   9.337   5.736   4.399
99965SOL    HW1 1669   9.344   5.743   4.494
99965SOL    HW2 1670   9.349   5.642   4.381
99966SOL     OW 1671   3.474   5.135   2.964
99966SOL    HW1 1672   3.508   5.050   2.992
99966SOL    HW2 1673   3.537   5.199   2.998
99967SOL     OW 1674   9.061   1.020   1.815
99967SOL    HW1 1675   9.070   0.953   1.748
99967SOL    HW2 1676   8.966   1.028   1.830
99968SOL     OW 1677   4.719   9.120   9.187
99968SOL    HW1 1678   4.650   9.169   9.232
99968SOL    HW2 1679   4.695   9.028   9.198
99969SOL     OW 1680  11.318   2.412   1.413
99969SOL    HW1 1681  11.325   2.507   1.411
99969SOL    HW2 1682  11.347   2.384   1.327
99970SOL     OW 1683   8.213   8.329   2.304
99970SOL    HW1 1684   8.192   8.236   2.296
99970SOL    HW2 1685   8.183   8.352   2.392
99971SOL     OW 1686   1.914  14.061   5.261
99971SOL    HW1 1687   1.914  14.138   5.203
99971SOL    HW2 1688   1.884  14.095   5.345
99972SOL     OW 1689  10.333   7.156   5.167
99972SOL    HW1 1690  10.342   7.118   5.254
99972SOL    HW2 1691  10.275   7.231   5.180
99973SOL     OW 1692   7.825   0.866   7.836
99973SOL    HW1 1693   7.793   0.811   7.764
99973SOL    HW2 1694   7.900   0.912   7.798
99974SOL     OW 1695   5.694   3.518  10.990
99974SOL    HW1 1696   5.692   3.458  10.916
99974SOL    HW2 1697   5.608   3.509  11.031
99975SOL     OW 1698   0.947   5.416   2.396
99975SOL    HW1 1699   0.855   5.393   2.409
99975SOL    HW2 1700   0.968   5.382   2.309
99976SOL     OW 1701  10.728   4.213   5.853
99976SOL    HW1 1702  10.710   4.301   5.820
99976SOL    HW2 1703  10.641   4.174   5.865
99977SOL     OW 1704  12.705   0.916   6.184
99977SOL    HW1 1705  12.758   0.851   6.231
99977SOL    HW2 1706  12.769   0.978   6.148
99978SOL     OW 1707  10.783   2.092   0.162
99978SOL    HW1 1708  10.797   2.182   0.133
99978SOL    HW2 1709  10.858   2.044   0.127
99979SOL     OW 1710   0.389   3.083  10.897
99979SOL    HW1 1711   0.365   3.099  10.806
99979SOL    HW2 1712   0.314   3.037  10.934
99980SOL     OW 1713   4.392   2.622   3.543
99980SOL    HW1 1714   4.300   2.620   3.568
99980SOL    HW2 1715   4.423   2.533   3.559
99981SOL     OW 1716   8.524  12.530   2.099
99981SOL    HW1 1717   8.456  12.558   2.160
99981SOL    HW2 1718   8.572  12.610   2.080
99982SOL     OW 1719   7.698   2.895  11.144
99982SOL    HW1 1720   7.643   2.883  11.222
99982SOL    HW2 1721   7.635   2.905  11.073
99983SOL     OW 1722  10.123   4.062  14.710
99983SOL    HW1 1723  10.060   4.009  14.660
99983SOL    HW2 1724  10.176   4.106  14.643
99984SOL     OW 1725  13.415   5.908   8.273
99984SOL    HW1 1726  13.438   5.932   8.363
99984SOL    HW2 1727  13.492   5.932   8.221
99985SOL     OW 1728  13.482   0.175   8.712
99985SOL    HW1 1729  13.491   0.100   8.772
99985SOL    HW2 1730  13.572   0.200   8.692
99986SOL     OW 1731   9.535   8.867  14.622
99986SOL    HW1 1732   9.619   8.835  14.590
99986SOL    HW2 1733   9.492   8.791  14.661
99987SOL     OW 1734  13.613   1.186   3.931
99987SOL    HW1 1735  13.652   1.145   4.007
99987SOL    HW2 1736  13.582   1.113   3.877
99988SOL     OW 1737   2.077   0.617   7.226
99988SOL    HW1 1738   2.089   0.538   7.278
99988SOL    HW2 1739   2.157   0.622   7.172
99989SOL     OW 1740  13.943   9.656  12.672
99989SOL    HW1 1741  14.026   9.619  12.704
99989SOL    HW2 1742  13.916   9.598  12.601
99990SOL     OW 1743   9.561   5.252   5.699
99990SOL    HW1 1744   9.493   5.282   5.759
99990SOL    HW2 1745   9.517   5.243   5.614
99991SOL     OW 1746  14.256   2.609   0.192
99991SOL    HW1 1747  14.318   2.536   0.182
99991SOL    HW2 1748  14.192   2.596   0.121
99992SOL     OW 1749  13.069   6.669   0.865
99992SOL    HW1 1750  13.098   6.708   0.947
99992SOL    HW2 1751  13.047   6.743   0.809
99993SOL     OW 1752   1.724   6.826   3.042
99993SOL    HW1 1753   1.791   6.837   2.974
99993SOL    HW2 1754   1.674   6.907   3.040
99994SOL     OW 1755   9.746  11.938  12.014
99994SOL    HW1 1756   9.709  12.025  12.023
99994SOL    HW2 1757   9.828  11.941  12.063
99995SOL     OW 1758  14.794   6.330   6.307
99995SOL    HW1 1759  14.828   6.406   6.259
99995SOL    HW2 1760  14.705   6.320   6.276
99996SOL     OW 1761   0.218  11.226   1.851
99996SOL    HW1 1762   0.199  11.134   1.833
99996SOL    HW2 1763   0.314  11.231   1.850
99997SOL     OW 1764   2.501  10.300   0.091
99997SOL    HW1 1765   2.466  10.385   0.066
99997SOL    HW2 1766   2.431  10.258   0.142
99998SOL     OW 1767  14.222   3.545  11.521
99998SOL    HW1 1768  14.259   3.594  11.594
99998SOL    HW2 1769  14.129   3.537  11.543
99999SOL     OW 1770   7.000   8.136   7.811
99999SOL    HW1 1771   6.987   8.129   7.716
99999SOL    HW2 1772   7.074   8.196   7.820
    0SOL     OW 1773   7.319  12.552   3.525
    0SOL    HW1 1774   7.316  12.510   3.611
    0SOL    HW2 1775   7.408  12.538   3.494
    1SOL     OW 1776   7.746   3.327  14.769
    1SOL    HW1 1777   7.824   3.300  14.819
    1SOL    HW2 1778   7.694   3.377  14.832
    2SOL     OW 1779   5.188   5.275   4.941
    2SOL    HW1 1780   5.169   5.305   4.852
    2SOL    HW2 1781   5.116   5.215   4.962
    3SOL     OW 1782   1.215   2.973   1.786
    3SOL    HW1 1783   1.267   3.031   1.729
    3SOL    HW2 1784   1.147   3.030   1.821
    4SOL     OW 1785  10.691  13.452   9.988
    4SOL    HW1 1786  10.704  13.372   9.936
    4SOL    HW2 1787  10.643  13.422  10.065
    5SOL     OW 1788  12.174   6.282  14.195
    5SOL    HW1 1789  12.121   6.348  14.150
    5SOL    HW2 1790  12.229   6.333  14.255
    6SOL     OW 1791   3.532  14.054  14.763
    6SOL    HW1 1792   3.609  14.097  14.725
    6SOL    HW2 1793   3.465  14.123  14.764
    7SOL     OW 1794   3.326   7.918   7.221
    7SOL    HW1 1795   3.299   8.009   7.231
    7SOL    HW2 1796   3.373   7.898   7.302
    8SOL     OW 1797   9.576   9.385  13.930
    8SOL    HW1 1798   9.581   9.408  14.023
    8SOL    HW2 1799   9.649   9.324  13.917
    9SOL     OW 1800   8.708   9.594   2.382
    9SOL    HW1 1801   8.674   9.585   2.293
    9SOL    HW2 1802   8.800   9.572   2.375
   10SOL     OW 1803   8.858  14.124  13.209
   10SOL    HW1 1804   8.831  14.033  13.212
   10SOL    HW2 1805   8.919  14.129  13.135
   11SOL     OW 1806   9.322   1.447   7.557
   11SOL    HW1 1807   9.267   1.499   7.499
   11SOL    HW2 1808   9.261   1.401   7.614
   12SOL     OW 1809   5.155  10.991   4.259
   12SOL    HW1 1810   5.152  10.903   4.296
   12SOL    HW2 1811   5.104  11.044   4.319
   13SOL     OW 1812   4.887   1.746   3.129
   13SOL    HW1 1813   4.871   1.796   3.050
   13SOL    HW2 1814   4.810   1.762   3.184
   14SOL     OW 1815   5.067   7.866  11.311
   14SOL    HW1 1816   5.124   7.942  11.327
   14SOL    HW2 1817   5.058   7.824  11.396
   15SOL     OW 1818   5.680   8.433  12.793
   15SOL    HW1 1819   5.714   8.444  12.882
   15SOL    HW2 1820   5.598   8.385  12.804
   16SOL     OW 1821   1.866   4.199   8.111
   16SOL    HW1 1822   1.946   4.147   8.112
   16SOL    HW2 1823   1.891   4.282   8.151
   17SOL     OW 1824  12.683   2.806  14.848
   17SOL    HW1 1825  12.609   2.841   0.021
   17SOL    HW2 1826  12.754   2.799   0.033
   18SOL     OW 1827   3.829  14.658  11.373
   18SOL    HW1 1828   3.920  14.634  11.355
   18SOL    HW2 1829   3.778  14.618  11.302
   19SOL     OW 1830   8.991  10.104  11.706
   19SOL    HW1 1831   8.947  10.187  11.689
   19SOL    HW2 1832   8.970  10.084  11.797
   20SOL     OW 1833   3.797  10.325  13.117
   20SOL    HW1 1834   3.884  10.345  13.083
   20SOL    HW2 1835   3.792  10.229  13.114
   21SOL     OW 1836  12.375   6.923  14.834
   21SOL    HW1 1837  12.301   6.905   0.014
   21SOL    HW2 1838  12.395   6.838  14.794
   22SOL     OW 1839   1.815  10.985  14.874
   22SOL    HW1 1840   1.844  11.039  14.801
   22SOL    HW2 1841   1.720  10.979  14.864
   23SOL     OW 1842  14.023  14.076   0.361
   23SOL    HW1 1843  14.006  14.062   0.267
   23SOL    HW2 1844  14.012  14.170   0.373
   24SOL     OW 1845  12.016  14.454  11.767
   24SOL    HW1 1846  11.999  14.372  11.720
   24SOL    HW2 1847  12.027  14.519  11.697
   25SOL     OW 1848  14.861   6.656   9.802
   25SOL    HW1 1849   0.004   6.573   9.844
   25SOL    HW2 1850   0.049   6.718   9.836
   26SOL     OW 1851   7.306  12.847   9.685
   26SOL    HW1 1852   7.384  12.885   9.643
   26SOL    HW2 1853   7.330  12.755   9.700
   27SOL     OW 1854   3.399   2.788   9.945
   27SOL    HW1 1855   3.486   2.784   9.907
   27SOL    HW2 1856   3.342   2.749   9.879
   28SOL     OW 1857   6.831  10.207  11.536
   28SOL    HW1 1858   6.858  10.276  11.476
   28SOL    HW2 1859   6.823  10.250  11.620
   29SOL     OW 1860  14.558  10.116   7.294
   29SOL    HW1 1861  14.535  10.028   7.267
   29SOL    HW2 1862  14.646  10.107   7.333
   30SOL     OW 1863   8.603   6.813  11.242
   30SOL    HW1 1864   8.626   6.751  11.311
   30SOL    HW2 1865   8.508   6.804  11.232
   31SOL     OW 1866   2.069   7.302  13.595
   31SOL    HW1 1867   1.984   7.289  13.554
   31SOL    HW2 1868   2.056   7.377  13.653
   32SOL     OW 1869   8.347   1.374   2.239
   32SOL    HW1 1870   8.319   1.368   2.147
   32SOL    HW2 1871   8.410   1.303   2.250
   33SOL     OW 1872   3.778   2.533   6.998
   33SOL    HW1 1873   3.751   2.508   6.910
   33SOL    HW2 1874   3.715   2.600   7.024
   34SOL     OW 1875   4.779   8.699   1.043
   34SOL    HW1 1876   4.848   8.665   1.100
   34SOL    HW2 1877   4.821   8.706   0.957
   35SOL     OW 1878  10.638   1.471  11.214
   35SOL    HW1 1879  10.606   1.542  11.159
   35SOL    HW2 1880  10.726   1.498  11.240
   36SOL     OW 1881   2.442   7.041   6.892
   36SOL    HW1 1882   2.360   6.998   6.867
   36SOL    HW2 1883   2.425   7.134   6.876
   37SOL     OW 1884   2.078   1.412   3.499
   37SOL    HW1 1885   1.999   1.453   3.534
   37SOL    HW2 1886   2.137   1.485   3.482
   38SOL     OW 1887  11.262   3.992   0.528
   38SOL    HW1 1888  11.276   4.085   0.510
   38SOL    HW2 1889  11.338   3.966   0.580
   39SOL     OW 1890   2.030  10.066   3.516
   39SOL    HW1 1891   2.029  10.162   3.517
   39SOL    HW2 1892   2.048  10.044   3.424
   40SOL     OW 1893  14.684   5.297   1.588
   40SOL    HW1 1894  14.702   5.322   1.498
   40SOL    HW2 1895  14.744   5.225   1.606
   41SOL     OW 1896   9.142   3.152   7.550
   41SOL    HW1 1897   9.143   3.155   7.645
   41SOL    HW2 1898   9.226   3.190   7.524
   42SOL     OW 1899  10.607  13.046   4.889
   42SOL    HW1 1900  10.621  13.086   4.975
   42SOL    HW2 1901  10.588  13.120   4.831
   43SOL     OW 1902   4.225   2.461  14.172
   43SOL    HW1 1903   4.318   2.453  14.192
   43SOL    HW2 1904   4.181   2.462  14.257
   44SOL     OW 1905  14.544  12.166   5.060
   44SOL    HW1 1906  14.516  12.115   5.136
   44SOL    HW2 1907  14.606  12.229   5.094
   45SOL     OW 1908   4.056  13.296  12.064
   45SOL    HW1 1909   4.149  13.298  12.087
   45SOL    HW2 1910   4.021  13.378  12.098
   46SOL     OW 1911   0.661   2.644   9.683
   46SOL    HW1 1912   0.567   2.659   9.676
   46SOL    HW2 1913   0.696   2.670   9.598
   47SOL     OW 1914   5.073   1.020   7.923
   47SOL    HW1 1915   5.145   0.962   7.946
   47SOL    HW2 1916   5.110   1.108   7.930
   48SOL     OW 1917  13.427   1.426   4.366
   48SOL    HW1 1918  13.382   1.434   4.450
   48SOL    HW2 1919  13.488   1.353   4.378
   49SOL     OW 1920  13.258  11.784   6.787
   49SOL    HW1 1921  13.302  11.707   6.823
   49SOL    HW2 1922  13.239  11.839   6.863
   50SOL     OW 1923  13.226   1.136  10.561
   50SOL    HW1 1924  13.301   1.178  10.603
   50SOL    HW2 1925  13.161   1.206  10.551
   51SOL     OW 1926   5.538   8.733  13.662
   51SOL    HW1 1927   5.445   8.758  13.664
   51SOL    HW2 1928   5.555   8.711  13.570
   52SOL     OW 1929   1.923  14.584   6.621
   52SOL    HW1 1930   1.905  14.677   6.610
   52SOL    HW2 1931   2.017  14.575   6.604
   53SOL     OW 1932  14.341   8.464  13.643
   53SOL    HW1 1933  14.433   8.438  13.636
   53SOL    HW2 1934  14.312   8.429  13.728
   54SOL     OW 1935  13.999  13.852  11.857
   54SOL    HW1 1936  14.087  13.817  11.874
   54SOL    HW2 1937  13.968  13.882  11.943
   55SOL     OW 1938   7.088  14.366   1.727
   55SOL    HW1 1939   7.079  14.330   1.816
   55SOL    HW2 1940   7.045  14.451   1.731
   56SOL     OW 1941  11.210  14.467   4.347
   56SOL    HW1 1942  11.295  14.509   4.355
   56SOL    HW2 1943  11.173  14.502   4.265
   57SOL     OW 1944   2.106  11.234   7.400
   57SOL    HW1 1945   2.155  11.286   7.463
   57SOL    HW2 1946   2.065  11.165   7.453
   58SOL     OW 1947   2.903  13.452   8.045
   58SOL    HW1 1948   2.924  13.544   8.058
   58SOL    HW2 1949   2.829  13.436   8.104
   59SOL     OW 1950  10.282   4.561  10.457
   59SOL    HW1 1951  10.297   4.598  10.370
   59SOL    HW2 1952  10.268   4.468  10.442
   60SOL     OW 1953   4.544   6.980   7.506
   60SOL    HW1 1954   4.581   6.959   7.592
   60SOL    HW2 1955   4.476   7.044   7.524
   61SOL     OW 1956  14.829   5.551  13.080
   61SOL    HW1 1957  14.777   5.472  13.098
   61SOL    HW2 1958  14.794   5.584  12.998
   62SOL     OW 1959   8.399   3.078   2.607
   62SOL    HW1 1960   8.403   3.028   2.525
   62SOL    HW2 1961   8.489   3.079   2.638
   63SOL     OW 1962  10.785   6.962   7.620
   63SOL    HW1 1963  10.694   6.955   7.651
   63SOL    HW2 1964  10.779   6.950   7.526
   64SOL     OW 1965   2.064  10.417  12.466
   64SOL    HW1 1966   2.123  10.422  12.391
   64SOL    HW2 1967   2.093  10.339  12.514
   65SOL     OW 1968   1.947  11.496  12.724
   65SOL    HW1 1969   1.999  11.510  12.644
   65SOL    HW2 1970   1.862  11.534  12.703
   66SOL     OW 1971   1.900   0.031   7.990
   66SOL    HW1 1972   1.986   0.065   8.013
   66SOL    HW2 1973   1.851   0.107   7.959
   67SOL     OW 1974   0.722  10.448  14.538
   67SOL    HW1 1975   0.629  10.427  14.527
   67SOL    HW2 1976   0.766  10.394  14.474
   68SOL     OW 1977  13.797   6.704   0.040
   68SOL    HW1 1978  13.716   6.744   0.072
   68SOL    HW2 1979  13.768   6.628  14.867
   69SOL     OW 1980   5.293   5.809  14.053
   69SOL    HW1 1981   5.380   5.812  14.015
   69SOL    HW2 1982   5.276   5.899  14.082
   70SOL     OW 1983   5.638   2.969  10.897
   70SOL    HW1 1984   5.579   2.894  10.905
   70SOL    HW2 1985   5.709   2.949  10.958
   71SOL     OW 1986   5.252   0.373   8.015
   71SOL    HW1 1987   5.332   0.321   8.013
   71SOL    HW2 1988   5.244   0.408   7.926
   72SOL     OW 1989  13.293   3.747  11.621
   72SOL    HW1 1990  13.316   3.790  11.703
   72SOL    HW2 1991  13.277   3.655  11.645
   73SOL     OW 1992   7.138   6.312  10.519
   73SOL    HW1 1993   7.162   6.378  10.584
   73SOL    HW2 1994   7.044   6.327  10.503
   74SOL     OW 1995   3.255   2.772  13.227
   74SOL    HW1 1996   3.213   2.766  13.141
   74SOL    HW2 1997   3.233   2.690  13.271
   75SOL     OW 1998   6.763  13.539  13.090
   75SOL    HW1 1999   6.697  13.552  13.022
   75SOL    HW2 2000   6.760  13.618  13.143
   76SOL     OW 2001  12.803  13.771   2.985
   76SOL    HW1 2002  12.898  13.755   2.987
   76SOL    HW2 2003  12.789  13.841   3.048
   77SOL     OW 2004   0.378   8.793  13.110
   77SOL    HW1 2005   0.313   8.820  13.175
   77SOL    HW2 2006   0.362   8.700  13.097
   78SOL     OW 2007  11.564   4.734   3.763
   78SOL    HW1 2008  11.541   4.812   3.814
   78SOL    HW2 2009  11.659   4.740   3.753
   79SOL     OW 2010  13.901   3.270   1.174
   79SOL    HW1 2011  13.830   3.332   1.191
   79SOL    HW2 2012  13.860   3.199   1.126
   80SOL     OW 2013  10.432   4.090   4.842
   80SOL    HW1 2014  10.419   4.173   4.795
   80SOL    HW2 2015  10.456   4.028   4.774
   81SOL     OW 2016  10.052  12.474   8.234
   81SOL    HW1 2017  10.012  12.387   8.230
   81SOL    HW2 2018   9.991  12.530   8.185
   82SOL     OW 2019   1.512   7.555   6.684
   82SOL    HW1 2020   1.483   7.483   6.628
   82SOL    HW2 2021   1.470   7.632   6.647
   83SOL     OW 2022   5.239   2.956   5.416
   83SOL    HW1 2023   5.206   3.033   5.369
   83SOL    HW2 2024   5.196   2.959   5.501
   84SOL     OW 2025   8.569   8.822  13.347
   84SOL    HW1 2026   8.514   8.827  13.269
   84SOL    HW2 2027   8.558   8.906  13.391
   85SOL     OW 2028  14.234   5.021   7.000
   85SOL    HW1 2029  14.234   5.079   7.076
   85SOL    HW2 2030  14.327   5.011   6.977
   86SOL     OW 2031   0.260   8.579   9.303
   86SOL    HW1 2032   0.170   8.573   9.335
   86SOL    HW2 2033   0.251   8.593   9.208
   87SOL     OW 2034   4.551   7.451   8.132
   87SOL    HW1 2035   4.522   7.377   8.079
   87SOL    HW2 2036   4.625   7.488   8.084
   88SOL     OW 2037  13.369   2.025   2.154
   88SOL    HW1 2038  13.323   1.944   2.179
   88SOL    HW2 2039  13.425   1.999   2.081
   89SOL     OW 2040  13.719   3.384  11.581
   89SOL    HW1 2041  13.668   3.446  11.633
   89SOL    HW2 2042  13.654   3.319  11.551
   90SOL     OW 2043   9.406   0.683  10.545
   90SOL    HW1 2044   9.496   0.662  10.518
   90SOL    HW2 2045   9.403   0.779  10.543
   91SOL     OW 2046   5.533   8.920   0.152
   91SOL    HW1 2047   5.467   8.955   0.093
   91SOL    HW2 2048   5.529   8.976   0.229
   92SOL     OW 2049  14.762   7.523   2.231
   92SOL    HW1 2050  14.825   7.479   2.288
   92SOL    HW2 2051  14.770   7.615   2.253
   93SOL     OW 2052   1.347  13.091   5.164
   93SOL    HW1 2053   1.416  13.038   5.124
   93SOL    HW2 2054   1.267  13.040   5.152
   94SOL     OW 2055   9.578  13.853   4.669
   94SOL    HW1 2056   9.585  13.856   4.764
   94SOL    HW2 2057   9.496  13.807   4.652
   95SOL     OW 2058  10.133  10.538  14.097
   95SOL    HW1 2059  10.148  10.625  14.062
   95SOL    HW2 2060  10.045  10.543  14.136
   96SOL     OW 2061   3.563  11.155   9.448
   96SOL    HW1 2062   3.475  11.193   9.451
   96SOL    HW2 2063   3.581  11.128   9.538
   97SOL     OW 2064  11.794   8.773   8.743
   97SOL    HW1 2065  11.845   8.816   8.675
   97SOL    HW2 2066  11.831   8.685   8.748
   98SOL     OW 2067  10.331  12.120   5.819
   98SOL    HW1 2068  10.236  12.129   5.814
   98SOL    HW2 2069  10.358  12.183   5.886
   99SOL     OW 2070   0.078  13.689   6.136
   99SOL    HW1 2071   0.093  13.687   6.231
   99SOL    HW2 2072   0.160  13.658   6.098
  100SOL     OW 2073   8.115  10.193  13.581
  100SOL    HW1 2074   8.085  10.276  13.545
  100SOL    HW2 2075   8.130  10.210  13.674
  101SOL     OW 2076   8.161   3.919  11.499
  101SOL    HW1 2077   8.119   3.902  11.583
  101SOL    HW2 2078   8.219   3.993  11.516
  102SOL     OW 2079   6.319   0.772   4.533
  102SOL    HW1 2080   6.299   0.855   4.488
  102SOL    HW2 2081   6.266   0.776   4.613
  103SOL     OW 2082   8.388  11.611  14.858
  103SOL    HW1 2083   8.482  11.619  14.838
  103SOL    HW2 2084   8.352  11.562  14.784
  104SOL     OW 2085   0.118  13.393   0.811
  104SOL    HW1 2086   0.162  13.475   0.792
  104SOL    HW2 2087   0.099  13.354   0.726
  105SOL     OW 2088  13.630   9.451   5.689
  105SOL    HW1 2089  13.622   9.356   5.679
  105SOL    HW2 2090  13.720   9.470   5.664
  106SOL     OW 2091  12.828   3.459   2.541
  106SOL    HW1 2092  12.746   3.480   2.586
  106SOL    HW2 2093  12.805   3.460   2.448
  107SOL     OW 2094  13.257   4.172   6.512
  107SOL    HW1 2095  13.330   4.115   6.490
  107SOL    HW2 2096  13.209   4.126   6.581
  108SOL     OW 2097   0.432  11.344  12.533
  108SOL    HW1 2098   0.478  11.292  12.467
  108SOL    HW2 2099   0.339  11.329  12.516
  109SOL     OW 2100   7.624   7.418  12.501
  109SOL    HW1 2101   7.709   7.377  12.490
  109SOL    HW2 2102   7.568   7.349  12.535
  110SOL     OW 2103   6.701  12.025  11.334
  110SOL    HW1 2104   6.752  11.999  11.258
  110SOL    HW2 2105   6.757  12.086  11.381
  111SOL     OW 2106   9.049   5.447   0.662
  111SOL    HW1 2107   9.107   5.377   0.693
  111SOL    HW2 2108   9.022   5.493   0.742
  112SOL     OW 2109   2.281  10.817  11.269
  112SOL    HW1 2110   2.344  10.766  11.219
  112SOL    HW2 2111   2.328  10.896  11.295
  113SOL     OW 2112   4.959  13.426  14.239
  113SOL    HW1 2113   4.874  13.384  14.247
  113SOL    HW2 2114   4.957  13.469  14.154
  114SOL     OW 2115   2.708  10.507  11.485
  114SOL    HW1 2116   2.661  10.453  11.423
  114SOL    HW2 2117   2.675  10.480  11.571
  115SOL     OW 2118   0.475   1.367  11.783
  115SOL    HW1 2119   0.501   1.415  11.704
  115SOL    HW2 2120   0.511   1.418  11.855
  116SOL     OW 2121   6.076   9.865   1.979
  116SOL    HW1 2122   6.067   9.812   1.900
  116SOL    HW2 2123   5.990   9.858   2.022
  117SOL     OW 2124   8.320  11.249   2.028
  117SOL    HW1 2125   8.285  11.233   1.940
  117SOL    HW2 2126   8.340  11.163   2.062
  118SOL     OW 2127   2.212  11.938   9.802
  118SOL    HW1 2128   2.165  11.934   9.886
  118SOL    HW2 2129   2.302  11.914   9.823
  119SOL     OW 2130   9.173   7.056   0.348
  119SOL    HW1 2131   9.189   7.035   0.256
  119SOL    HW2 2132   9.080   7.078   0.352
  120SOL     OW 2133   3.573  12.311   0.563
  120SOL    HW1 2134   3.534  12.356   0.489
  120SOL    HW2 2135   3.667  12.320   0.550
  121SOL     OW 2136   9.753   6.152   5.537
  121SOL    HW1 2137   9.835   6.117   5.502
  121SOL    HW2 2138   9.685   6.098   5.496
  122SOL     OW 2139   0.449   0.746   3.166
  122SOL    HW1 2140   0.512   0.818   3.176
  122SOL    HW2 2141   0.369   0.788   3.134
  123SOL     OW 2142   2.348  12.466  11.885
  123SOL    HW1 2143   2.395  12.466  11.801
  123SOL    HW2 2144   2.395  12.530  11.939
  124SOL     OW 2145   6.344   7.083   7.894
  124SOL    HW1 2146   6.374   7.173   7.903
  124SOL    HW2 2147   6.393   7.049   7.820
  125SOL     OW 2148  11.473   8.995  14.569
  125SOL    HW1 2149  11.538   9.043  14.518
  125SOL    HW2 2150  11.520   8.963  14.645
  126SOL     OW 2151   3.978   3.285  14.820
  126SOL    HW1 2152   4.055   3.331  14.787
  126SOL    HW2 2153   3.987   3.289   0.038
  127SOL     OW 2154   6.724   5.215   5.008
  127SOL    HW1 2155   6.678   5.292   5.040
  127SOL    HW2 2156   6.658   5.165   4.961
  128SOL     OW 2157  10.651   2.817   5.126
  128SOL    HW1 2158  10.582   2.882   5.133
  128SOL    HW2 2159  10.724   2.853   5.176
  129SOL     OW 2160  11.694   9.286  10.631
  129SOL    HW1 2161  11.629   9.303  10.699
  129SOL    HW2 2162  11.671   9.345  10.559
  130SOL     OW 2163  10.227  10.457   7.740
  130SOL    HW1 2164  10.147  10.410   7.764
  130SOL    HW2 2165  10.196  10.543   7.710
  131SOL     OW 2166   4.299   6.837  13.238
  131SOL    HW1 2167   4.321   6.815  13.147
  131SOL    HW2 2168   4.209   6.808  13.249
  132SOL     OW 2169   2.310   5.079  13.706
  132SOL    HW1 2170   2.367   5.135  13.760
  132SOL    HW2 2171   2.365   5.055  13.631
  133SOL     OW 2172   6.180  14.109   2.231
  133SOL    HW1 2173   6.176  14.119   2.136
  133SOL    HW2 2174   6.219  14.190   2.262
  134SOL     OW 2175   6.501   4.793  13.517
  134SOL    HW1 2176   6.586   4.837  13.523
  134SOL    HW2 2177   6.450   4.845  13.455
  135SOL     OW 2178  14.868   7.399   7.332
  135SOL    HW1 2179   0.069   7.393   7.387
  135SOL    HW2 2180  14.795   7.380   7.392
  136SOL     OW 2181  14.446   4.427   1.705
  136SOL    HW1 2182  14.503   4.352   1.689
  136SOL    HW2 2183  14.394   4.401   1.782
  137SOL     OW 2184  14.342  13.856   5.873
  137SOL    HW1 2185  14.376  13.885   5.788
  137SOL    HW2 2186  14.415  13.808   5.912
  138SOL     OW 2187  10.379  13.154  13.058
  138SOL    HW1 2188  10.302  13.113  13.097
  138SOL    HW2 2189  10.364  13.150  12.964
  139SOL     OW 2190   5.814   8.162   9.458
  139SOL    HW1 2191   5.833   8.248   9.495
  139SOL    HW2 2192   5.841   8.169   9.367
  140SOL     OW 2193   9.564   1.334   7.564
  140SOL    HW1 2194   9.648   1.376   7.584
  140SOL    HW2 2195   9.502   1.407   7.561
  141SOL     OW 2196   8.001   2.858  14.568
  141SOL    HW1 2197   7.939   2.923  14.601
  141SOL    HW2 2198   8.084   2.881  14.610
  142SOL     OW 2199   2.147  12.032   1.570
  142SOL    HW1 2200   2.224  11.980   1.545
  142SOL    HW2 2201   2.166  12.120   1.539
  143SOL     OW 2202   4.116   9.996   8.492
  143SOL    HW1 2203   4.024   9.969   8.501
  143SOL    HW2 2204   4.128  10.007   8.397
  144SOL     OW 2205   0.688  14.411  13.509
  144SOL    HW1 2206   0.614  14.467  13.484
  144SOL    HW2 2207   0.741  14.465  13.567
  145SOL     OW 2208   2.048   4.324  13.868
  145SOL    HW1 2209   2.031   4.354  13.778
  145SOL    HW2 2210   2.110   4.389  13.903
  146SOL     OW 2211  11.738   9.760   3.868
  146SOL    HW1 2212  11.831   9.759   3.894
  146SOL    HW2 2213  11.719   9.669   3.844
  147SOL     OW 2214  13.856   9.724  10.446
  147SOL    HW1 2215  13.786   9.788  10.455
  147SOL    HW2 2216  13.845   9.665  10.521
  148SOL     OW 2217   9.590   9.549   4.039
  148SOL    HW1 2218   9.586   9.457   4.068
  148SOL    HW2 2219   9.594   9.599   4.121
  149SOL     OW 2220  11.971   5.833  11.184
  149SOL    HW1 2221  11.934   5.857  11.099
  149SOL    HW2 2222  11.977   5.738  11.182
  150SOL     OW 2223  13.990   5.565  11.138
  150SOL    HW1 2224  14.069   5.535  11.093
  150SOL    HW2 2225  13.918   5.532  11.084
  151SOL     OW 2226   3.219  10.339   9.339
  151SOL    HW1 2227   3.296  10.283   9.345
  151SOL    HW2 2228   3.205  10.370   9.429
  152SOL     OW 2229   4.265   9.274   1.487
  152SOL    HW1 2230   4.302   9.335   1.424
  152SOL    HW2 2231   4.214   9.329   1.546
  153SOL     OW 2232  12.166  12.579   5.360
  153SOL    HW1 2233  12.231  12.512   5.379
  153SOL    HW2 2234  12.123  12.549   5.280
  154SOL     OW 2235   3.958   8.140  14.790
  154SOL    HW1 2236   4.023   8.134  14.721
  154SOL    HW2 2237   3.983   8.217  14.840
  155SOL     OW 2238   0.127   4.312   2.995
  155SOL    HW1 2239   0.031   4.307   2.990
  155SOL    HW2 2240   0.151   4.370   2.923
  156SOL     OW 2241   3.151   0.138   2.391
  156SOL    HW1 2242   3.224   0.179   2.344
  156SOL    HW2 2243   3.144   0.051   2.352
  157SOL     OW 2244   8.786  10.422  11.211
  157SOL    HW1 2245   8.751  10.460  11.131
  157SOL    HW2 2246   8.880  10.414  11.194
  158SOL     OW 2247   8.129   5.237   2.774
  158SOL    HW1 2248   8.052   5.181   2.789
  158SOL    HW2 2249   8.105   5.322   2.812
  159SOL     OW 2250   2.101   7.378  14.281
  159SOL    HW1 2251   2.145   7.317  14.221
  159SOL    HW2 2252   2.159   7.454  14.284
  160SOL     OW 2253   8.337  11.811   1.882
  160SOL    HW1 2254   8.267  11.796   1.818
  160SOL    HW2 2255   8.414  11.771   1.843
  161SOL     OW 2256   5.252  11.243   7.940
  161SOL    HW1 2257   5.249  11.170   7.878
  161SOL    HW2 2258   5.187  11.220   8.007
  162SOL     OW 2259   8.731   9.842   3.211
  162SOL    HW1 2260   8.663   9.810   3.270
  162SOL    HW2 2261   8.772   9.763   3.176
  163SOL     OW 2262   8.917   6.004   3.047
  163SOL    HW1 2263   8.967   5.953   3.111
  163SOL    HW2 2264   8.875   6.073   3.098
  164SOL     OW 2265   7.657   8.771  12.080
  164SOL    HW1 2266   7.688   8.800  12.166
  164SOL    HW2 2267   7.642   8.852  12.032
  165SOL     OW 2268   1.528   9.740   2.542
  165SOL    HW1 2269   1.583   9.669   2.510
  165SOL    HW2 2270   1.587   9.796   2.591
  166SOL     OW 2271  12.152   5.959   2.777
  166SOL    HW1 2272  12.103   6.042   2.778
  166SOL    HW2 2273  12.230   5.978   2.726
  167SOL     OW 2274  14.523   4.453   2.165
  167SOL    HW1 2275  14.514   4.539   2.205
  167SOL    HW2 2276  14.442   4.442   2.114
  168SOL     OW 2277  14.366   1.193  13.202
  168SOL    HW1 2278  14.273   1.187  13.179
  168SOL    HW2 2279  14.408   1.126  13.148
  169SOL     OW 2280   1.042   6.130   5.882
  169SOL    HW1 2281   1.055   6.057   5.821
  169SOL    HW2 2282   1.130   6.162   5.900
  170SOL     OW 2283   6.289  10.696   3.322
  170SOL    HW1 2284   6.367  10.701   3.378
  170SOL    HW2 2285   6.252  10.610   3.339
  171SOL     OW 2286   9.230  13.377   2.937
  171SOL    HW1 2287   9.209  13.469   2.924
  171SOL    HW2 2288   9.307  13.378   2.995
  172SOL     OW 2289   6.869  14.806  13.533
  172SOL    HW1 2290   6.813  14.843  13.466
  172SOL    HW2 2291   6.820  14.817  13.615
  173SOL     OW 2292   4.638   7.743  10.518
  173SOL    HW1 2293   4.694   7.676  10.557
  173SOL    HW2 2294   4.648   7.819  10.575
  174SOL     OW 2295   1.494   8.958   0.604
  174SOL    HW1 2296   1.484   8.948   0.509
  174SOL    HW2 2297   1.417   9.008   0.631
  175SOL     OW 2298   4.686   8.934  12.451
  175SOL    HW1 2299   4.644   8.850  12.432
  175SOL    HW2 2300   4.619   8.985  12.497
  176SOL     OW 2301  13.781   3.478  10.960
  176SOL    HW1 2302  13.690   3.486  10.990
  176SOL    HW2 2303  13.820   3.563  10.981
  177SOL     OW 2304  11.569   5.919   6.956
  177SOL    HW1 2305  11.650   5.898   7.003
  177SOL    HW2 2306  11.534   5.996   7.002
  178SOL     OW 2307   7.462   8.174   5.282
  178SOL    HW1 2308   7.406   8.252   5.278
  178SOL    HW2 2309   7.419   8.118   5.347
  179SOL     OW 2310   0.174   0.827   6.966
  179SOL    HW1 2311   0.259   0.871   6.957
  179SOL    HW2 2312   0.121   0.888   7.017
  180SOL     OW 2313  11.388  12.940   9.217
  180SOL    HW1 2314  11.461  12.984   9.259
  180SOL    HW2 2315  11.312  12.962   9.271
  181SOL     OW 2316   1.377   1.071   2.419
  181SOL    HW1 2317   1.393   1.072   2.514
  181SOL    HW2 2318   1.397   1.161   2.391
  182SOL     OW 2319  12.976   6.193   5.404
  182SOL    HW1 2320  13.051   6.153   5.447
  182SOL    HW2 2321  12.985   6.287   5.422
  183SOL     OW 2322   8.016   2.774  12.696
  183SOL    HW1 2323   8.020   2.690  12.743
  183SOL    HW2 2324   7.926   2.780  12.664
  184SOL     OW 2325   3.998   8.451  12.546
  184SOL    HW1 2326   3.944   8.432  12.469
  184SOL    HW2 2327   4.067   8.385  12.544
  185SOL     OW 2328   0.473   4.833  12.066
  185SOL    HW1 2329   0.428   4.852  12.149
  185SOL    HW2 2330   0.565   4.822  12.091
  186SOL     OW 2331  14.477   1.581   9.513
  186SOL    HW1 2332  14.560   1.608   9.474
  186SOL    HW2 2333  14.418   1.655   9.495
  187SOL     OW 2334   0.600   7.930  13.489
  187SOL    HW1 2335   0.599   7.928  13.393
  187SOL    HW2 2336   0.671   7.872  13.514
  188SOL     OW 2337   5.157   1.801   6.712
  188SOL    HW1 2338   5.166   1.801   6.617
  188SOL    HW2 2339   5.240   1.837   6.744
  189SOL     OW 2340  11.611   3.619   3.491
  189SOL    HW1 2341  11.643   3.565   3.563
  189SOL    HW2 2342  11.640   3.573   3.412
  190SOL     OW 2343   8.278  12.912  14.662
  190SOL    HW1 2344   8.210  12.938  14.723
  190SOL    HW2 2345   8.357  12.955  14.695
  191SOL     OW 2346   4.947   5.513   2.965
  191SOL    HW1 2347   5.041   5.534   2.966
  191SOL    HW2 2348   4.942   5.429   2.920
  192SOL     OW 2349  10.942  14.299   6.489
  192SOL    HW1 2350  10.981  14.304   6.576
  192SOL    HW2 2351  11.010  14.334   6.430
  193SOL     OW 2352   0.673   7.432   7.003
  193SOL    HW1 2353   0.597   7.431   7.062
  193SOL    HW2 2354   0.734   7.370   7.042
  194SOL     OW 2355  11.158   4.441  14.840
  194SOL    HW1 2356  11.071   4.419  14.875
  194SOL    HW2 2357  11.157   4.536  14.830
  195SOL     OW 2358   5.950   0.087  10.865
  195SOL    HW1 2359   5.889   0.024  10.903
  195SOL    HW2 2360   5.937   0.167  10.917
  196SOL     OW 2361  10.467  14.615   1.517
  196SOL    HW1 2362  10.508  14.701   1.502
  196SOL    HW2 2363  10.523  14.553   1.470
  197SOL     OW 2364   0.833   4.449   8.548
  197SOL    HW1 2365   0.773   4.404   8.490
  197SOL    HW2 2366   0.782   4.522   8.584
  198SOL     OW 2367   0.600  12.212   7.692
  198SOL    HW1 2368   0.617  12.306   7.691
  198SOL    HW2 2369   0.573  12.192   7.602
  199SOL     OW 2370  10.273  10.166   0.030
  199SOL    HW1 2371  10.181  10.141   0.033
  199SOL    HW2 2372  10.304  10.153   0.120
  200SOL     OW 2373  11.224   3.220   7.848
  200SOL    HW1 2374  11.151   3.253   7.796
  200SOL    HW2 2375  11.185   3.149   7.900
  201SOL     OW 2376  12.253   4.099  12.709
  201SOL    HW1 2377  12.245   4.167  12.777
  201SOL    HW2 2378  12.296   4.026  12.753
  202SOL     OW 2379  10.828   0.338   0.658
  202SOL    HW1 2380  10.883   0.346   0.736
  202SOL    HW2 2381  10.869   0.268   0.607
  203SOL     OW 2382   3.442   5.730   0.227
  203SOL    HW1 2383   3.535   5.726   0.206
  203SOL    HW2 2384   3.429   5.816   0.266
  204SOL     OW 2385   7.546  11.580   7.226
  204SOL    HW1 2386   7.494  11.615   7.298
  204SOL    HW2 2387   7.597  11.509   7.267
  205SOL     OW 2388  11.104   2.841   9.850
  205SOL    HW1 2389  11.155   2.851   9.770
  205SOL    HW2 2390  11.169   2.831   9.919
  206SOL     OW 2391   7.697   2.327   5.390
  206SOL    HW1 2392   7.628   2.387   5.419
  206SOL    HW2 2393   7.667   2.295   5.305
  207SOL     OW 2394   8.939   3.268  13.904
  207SOL    HW1 2395   8.867   3.330  13.894
  207SOL    HW2 2396   8.988   3.298  13.980
  208SOL     OW 2397  13.369   2.584   7.949
  208SOL    HW1 2398  13.309   2.613   8.017
  208SOL    HW2 2399  13.343   2.493   7.932
  209SOL     OW 2400   3.598   4.344   5.260
  209SOL    HW1 2401   3.551   4.420   5.228
  209SOL    HW2 2402   3.683   4.378   5.289
  210SOL     OW 2403   5.029   1.285  11.010
  210SOL    HW1 2404   5.008   1.194  11.031
  210SOL    HW2 2405   4.945   1.326  10.993
  211SOL     OW 2406  11.006  13.628   4.215
  211SOL    HW1 2407  10.912  13.612   4.204
  211SOL    HW2 2408  11.028  13.689   4.145
  212SOL     OW 2409   9.113  11.094  14.728
  212SOL    HW1 2410   9.092  11.113  14.820
  212SOL    HW2 2411   9.209  11.095  14.726
  213SOL     OW 2412   4.588   3.762   9.767
  213SOL    HW1 2413   4.600   3.830   9.701
  213SOL    HW2 2414   4.524   3.702   9.729
  214SOL     OW 2415  11.492  13.493   8.076
  214SOL    HW1 2416  11.415  13.498   8.020
  214SOL    HW2 2417  11.566  13.486   8.016
  215SOL     OW 2418  12.926  10.379  11.912
  215SOL    HW1 2419  12.994  10.434  11.951
  215SOL    HW2 2420  12.844  10.412  11.948
  216SOL     OW 2421   8.405  11.121   7.403
  216SOL    HW1 2422   8.388  11.206   7.364
  216SOL    HW2 2423   8.500  11.110   7.399
  217SOL     OW 2424  13.625  13.138  14.750
  217SOL    HW1 2425  13.547  13.122  14.697
  217SOL    HW2 2426  13.625  13.067  14.814
  218SOL     OW 2427   3.488   6.892  13.131
  218SOL    HW1 2428   3.561   6.855  13.181
  218SOL    HW2 2429   3.511   6.984  13.118
  219SOL     OW 2430   2.605   8.378  11.361
  219SOL    HW1 2431   2.607   8.389  11.266
  219SOL    HW2 2432   2.684   8.328  11.381
  220SOL     OW 2433   4.486   0.984   9.169
  220SOL    HW1 2434   4.546   1.047   9.128
  220SOL    HW2 2435   4.529   0.899   9.159
  221SOL     OW 2436   3.092   4.677   6.430
  221SOL    HW1 2437   3.043   4.682   6.512
  221SOL    HW2 2438   3.051   4.606   6.381
  222SOL     OW 2439  12.818  14.030  10.159
  222SOL    HW1 2440  12.758  14.059  10.091
  222SOL    HW2 2441  12.874  13.965  10.116
  223SOL     OW 2442   6.995  12.921  10.444
  223SOL    HW1 2443   7.027  12.892  10.529
  223SOL    HW2 2444   6.901  12.904  10.446
  224SOL     OW 2445   5.139   9.531  14.376
  224SOL    HW1 2446   5.202   9.459  14.375
  224SOL    HW2 2447   5.177   9.597  14.318
  225SOL     OW 2448  11.143   3.063  12.430
  225SOL    HW1 2449  11.074   3.011  12.472
  225SOL    HW2 2450  11.153   3.139  12.488
  226SOL     OW 2451   7.828   8.770  13.601
  226SOL    HW1 2452   7.848   8.737  13.514
  226SOL    HW2 2453   7.735   8.751  13.613
  227SOL     OW 2454  11.330   8.288   1.821
  227SOL    HW1 2455  11.280   8.207   1.817
  227SOL    HW2 2456  11.306   8.328   1.904
  228SOL     OW 2457   8.710  11.325   2.986
  228SOL    HW1 2458   8.670  11.412   2.986
  228SOL    HW2 2459   8.755  11.319   3.070
  229SOL     OW 2460   0.727  11.716   4.868
  229SOL    HW1 2461   0.686  11.655   4.807
  229SOL    HW2 2462   0.818  11.722   4.838
  230SOL     OW 2463   4.757  11.658   8.508
  230SOL    HW1 2464   4.840  11.695   8.478
  230SOL    HW2 2465   4.736  11.591   8.443
  231SOL     OW 2466   4.674   1.919  10.464
  231SOL    HW1 2467   4.710   1.907  10.377
  231SOL    HW2 2468   4.686   2.012  10.483
  232SOL     OW 2469  11.439   0.193   0.808
  232SOL    HW1 2470  11.441   0.163   0.899
  232SOL    HW2 2471  11.504   0.139   0.764
  233SOL     OW 2472  12.362  11.501   5.132
  233SOL    HW1 2473  12.359  11.433   5.199
  233SOL    HW2 2474  12.455  11.525   5.126
  234SOL     OW 2475   2.057   0.853   7.362
  234SOL    HW1 2476   2.057   0.922   7.296
  234SOL    HW2 2477   2.065   0.772   7.312
  235SOL     OW 2478   5.543  12.650   8.766
  235SOL    HW1 2479   5.595  12.726   8.740
  235SOL    HW2 2480   5.586  12.576   8.723
  236SOL     OW 2481   4.438  12.371  12.571
  236SOL    HW1 2482   4.387  12.293  12.550
  236SOL    HW2 2483   4.439  12.374  12.666
  237SOL     OW 2484   3.448   4.868  10.154
  237SOL    HW1 2485   3.480   4.786  10.117
  237SOL    HW2 2486   3.354   4.869  10.135
  238SOL     OW 2487  10.698   1.082   9.530
  238SOL    HW1 2488  10.695   1.160   9.585
  238SOL    HW2 2489  10.645   1.017   9.577
  239SOL     OW 2490   7.412   6.900   3.671
  239SOL    HW1 2491   7.405   6.815   3.626
  239SOL    HW2 2492   7.463   6.881   3.749
  240SOL     OW 2493   7.528  11.429   0.373
  240SOL    HW1 2494   7.550  11.363   0.308
  240SOL    HW2 2495   7.606  11.484   0.379
  241SOL     OW 2496  11.722   3.839   0.445
  241SOL    HW1 2497  11.693   3.839   0.354
  241SOL    HW2 2498  11.764   3.924   0.456
  242SOL     OW 2499   5.046   1.972   1.547
  242SOL    HW1 2500   5.041   2.030   1.623
  242SOL    HW2 2501   5.136   1.980   1.516
  243SOL     OW 2502  14.517  11.593  14.014
  243SOL    HW1 2503  14.603  11.577  13.974
  243SOL    HW2 2504  14.476  11.659  13.958
  244SOL     OW 2505   6.228   8.150  12.174
  244SOL    HW1 2506   6.305   8.153  12.118
  244SOL    HW2 2507   6.255   8.192  12.256
  245SOL     OW 2508   0.705   3.370  13.242
  245SOL    HW1 2509   0.792   3.336  13.261
  245SOL    HW2 2510   0.705   3.385  13.148
  246SOL     OW 2511  10.407   5.895   6.175
  246SOL    HW1 2512  10.384   5.980   6.213
  246SOL    HW2 2513  10.479   5.914   6.115
  247SOL     OW 2514   3.047   0.098   0.210
  247SOL    HW1 2515   3.021   0.093   0.118
  247SOL    HW2 2516   3.085   0.185   0.219
  248SOL     OW 2517  10.284   5.156  12.796
  248SOL    HW1 2518  10.285   5.225  12.729
  248SOL    HW2 2519  10.195   5.121  12.792
  249SOL     OW 2520   4.038   0.762   0.433
  249SOL    HW1 2521   4.040   0.816   0.354
  249SOL    HW2 2522   3.945   0.756   0.455
  250SOL     OW 2523   6.125  12.261  10.530
  250SOL    HW1 2524   6.105  12.188  10.471
  250SOL    HW2 2525   6.087  12.338  10.486
  251SOL     OW 2526   3.558   9.018  13.905
  251SOL    HW1 2527   3.525   8.988  13.821
  251SOL    HW2 2528   3.621   9.086  13.884
  252SOL     OW 2529  10.852   8.828   8.877
  252SOL    HW1 2530  10.786   8.892   8.851
  252SOL    HW2 2531  10.869   8.847   8.970
  253SOL     OW 2532   6.725   7.650  13.348
  253SOL    HW1 2533   6.817   7.632  13.365
  253SOL    HW2 2534   6.700   7.713  13.415
  254SOL     OW 2535   8.760   0.442  10.680
  254SOL    HW1 2536   8.809   0.523  10.690
  254SOL    HW2 2537   8.792   0.384  10.749
  255SOL     OW 2538  11.765  12.754   1.095
  255SOL    HW1 2539  11.680  12.761   1.052
  255SOL    HW2 2540  11.822  12.812   1.045
  256SOL     OW 2541   9.355   4.249  11.021
  256SOL    HW1 2542   9.392   4.331  11.053
  256SOL    HW2 2543   9.344   4.195  11.100
  257SOL     OW 2544   8.099  14.011   3.024
  257SOL    HW1 2545   8.018  13.993   3.074
  257SOL    HW2 2546   8.085  13.968   2.940
  258SOL     OW 2547   7.923   4.275  10.922
  258SOL    HW1 2548   8.000   4.219  10.931
  258SOL    HW2 2549   7.917   4.320  11.006
  259SOL     OW 2550  14.746   1.372   9.123
  259SOL    HW1 2551  14.831   1.402   9.155
  259SOL    HW2 2552  14.692   1.364   9.201
  260SOL     OW 2553   3.260   1.147   4.122
  260SOL    HW1 2554   3.251   1.112   4.033
  260SOL    HW2 2555   3.337   1.104   4.157
  261SOL     OW 2556   7.191   0.121  12.798
  261SOL    HW1 2557   7.194   0.037  12.843
  261SOL    HW2 2558   7.256   0.114  12.728
  262SOL     OW 2559   1.571   8.568   8.028
  262SOL    HW1 2560   1.577   8.659   8.057
  262SOL    HW2 2561   1.657   8.548   7.992
  263SOL     OW 2562   7.015   3.980   1.386
  263SOL    HW1 2563   7.052   3.909   1.438
  263SOL    HW2 2564   7.067   3.980   1.306
  264SOL     OW 2565   8.603  12.568   4.394
  264SOL    HW1 2566   8.579  12.557   4.486
  264SOL    HW2 2567   8.520  12.585   4.350
  265SOL     OW 2568  12.902   8.135   5.390
  265SOL    HW1 2569  12.880   8.056   5.440
  265SOL    HW2 2570  12.945   8.102   5.311
  266SOL     OW 2571   4.618   3.563   8.511
  266SOL    HW1 2572   4.589   3.538   8.599
  266SOL    HW2 2573   4.707   3.530   8.504
  267SOL     OW 2574  14.484  14.747   1.485
  267SOL    HW1 2575  14.434  14.665   1.484
  267SOL    HW2 2576  14.575  14.720   1.497
  268SOL     OW 2577   9.177  10.767   0.227
  268SOL    HW1 2578   9.152  10.682   0.190
  268SOL    HW2 2579   9.164  10.758   0.321
  269SOL     OW 2580   8.394   3.612   9.869
  269SOL    HW1 2581   8.422   3.536   9.919
  269SOL    HW2 2582   8.369   3.576   9.784
  270SOL     OW 2583   2.684   1.988  10.072
  270SOL    HW1 2584   2.603   2.013  10.028
  270SOL    HW2 2585   2.671   1.896  10.096
  271SOL     OW 2586   2.383   9.197   9.571
  271SOL    HW1 2587   2.356   9.209   9.663
  271SOL    HW2 2588   2.312   9.144   9.533
  272SOL     OW 2589   2.862   0.745   2.931
  272SOL    HW1 2590   2.912   0.819   2.965
  272SOL    HW2 2591   2.908   0.668   2.962
  273SOL     OW 2592  10.284   6.705   2.651
  273SOL    HW1 2593  10.303   6.618   2.686
  273SOL    HW2 2594  10.261   6.757   2.728
  274SOL     OW 2595   3.111   3.551   9.693
  274SOL    HW1 2596   3.182   3.573   9.752
  274SOL    HW2 2597   3.126   3.607   9.616
  275SOL     OW 2598   1.730   2.108   0.070
  275SOL    HW1 2599   1.746   2.085   0.162
  275SOL    HW2 2600   1.672   2.040   0.038
  276SOL     OW 2601   3.035   8.185   7.830
  276SOL    HW1 2602   3.122   8.146   7.833
  276SOL    HW2 2603   2.975   8.110   7.839
  277SOL     OW 2604   1.527   6.580  11.321
  277SOL    HW1 2605   1.446   6.601  11.366
  277SOL    HW2 2606   1.529   6.484  11.318
  278SOL     OW 2607   4.700  10.215   9.208
  278SOL    HW1 2608   4.780  10.266   9.225
  278SOL    HW2 2609   4.697  10.152   9.279
  279SOL     OW 2610  12.705   5.178   8.805
  279SOL    HW1 2611  12.686   5.211   8.893
  279SOL    HW2 2612  12.784   5.224   8.779
  280SOL     OW 2613  10.694   8.740   9.791
  280SOL    HW1 2614  10.625   8.682   9.760
  280SOL    HW2 2615  10.670   8.826   9.756
  281SOL     OW 2616  10.616  11.977  10.904
  281SOL    HW1 2617  10.657  11.967  10.990
  281SOL    HW2 2618  10.528  11.941  10.914
  282SOL     OW 2619   9.743   1.021   5.867
  282SOL    HW1 2620   9.690   0.945   5.841
  282SOL    HW2 2621   9.720   1.089   5.803
  283SOL     OW 2622  10.401   6.957   3.804
  283SOL    HW1 2623  10.356   6.928   3.884
  283SOL    HW2 2624  10.331   6.986   3.746
  284SOL     OW 2625   1.944  10.060  13.900
  284SOL    HW1 2626   2.016  10.065  13.963
  284SOL    HW2 2627   1.984  10.083  13.816
  285SOL     OW 2628  11.586  11.329   3.769
  285SOL    HW1 2629  11.640  11.404   3.745
  285SOL    HW2 2630  11.608  11.262   3.704
  286SOL     OW 2631  12.949  10.951   0.971
  286SOL    HW1 2632  12.937  11.025   1.030
  286SOL    HW2 2633  12.867  10.902   0.977
  287SOL     OW 2634   4.899   1.956   4.410
  287SOL    HW1 2635   4.980   1.928   4.452
  287SOL    HW2 2636   4.836   1.888   4.433
  288SOL     OW 2637   1.858   7.179   6.065
  288SOL    HW1 2638   1.884   7.119   6.135
  288SOL    HW2 2639   1.886   7.265   6.095
  289SOL     OW 2640   2.150   0.902  13.080
  289SOL    HW1 2641   2.057   0.883  13.094
  289SOL    HW2 2642   2.188   0.818  13.055
  290SOL     OW 2643   8.784   1.699   0.609
  290SOL    HW1 2644   8.855   1.639   0.632
  290SOL    HW2 2645   8.717   1.684   0.677
  291SOL     OW 2646   6.531   1.281   3.945
  291SOL    HW1 2647   6.583   1.206   3.973
  291SOL    HW2 2648   6.552   1.350   4.008
  292SOL     OW 2649   2.941  14.070  14.654
  292SOL    HW1 2650   2.942  14.111  14.567
  292SOL    HW2 2651   2.963  14.140  14.714
  293SOL     OW 2652  13.708   1.068  14.804
  293SOL    HW1 2653  13.698   1.161  14.783
  293SOL    HW2 2654  13.720   1.066   0.021
  294SOL     OW 2655   3.242  10.208   7.677
  294SOL    HW1 2656   3.274  10.251   7.757
  294SOL    HW2 2657   3.277  10.261   7.606
  295SOL     OW 2658  10.853   3.034   4.316
  295SOL    HW1 2659  10.765   3.060   4.343
  295SOL    HW2 2660  10.895   3.116   4.289
  296SOL     OW 2661   1.848  12.661   0.669
  296SOL    HW1 2662   1.933  12.622   0.650
  296SOL    HW2 2663   1.786  12.589   0.659
  297SOL     OW 2664   3.321   2.161   3.396
  297SOL    HW1 2665   3.318   2.097   3.325
  297SOL    HW2 2666   3.353   2.241   3.354
  298SOL     OW 2667   6.305   3.419   2.642
  298SOL    HW1 2668   6.332   3.328   2.631
  298SOL    HW2 2669   6.297   3.453   2.553
  299SOL     OW 2670   5.773   9.463   9.298
  299SOL    HW1 2671   5.838   9.528   9.273
  299SOL    HW2 2672   5.776   9.398   9.227
  300SOL     OW 2673   4.244   5.395   9.011
  300SOL    HW1 2674   4.183   5.379   8.940
  300SOL    HW2 2675   4.193   5.382   9.091
  301SOL     OW 2676   3.375  13.211   4.564
  301SOL    HW1 2677   3.444  13.151   4.538
  301SOL    HW2 2678   3.303  13.194   4.503
  302SOL     OW 2679  13.282   7.511   9.422
  302SOL    HW1 2680  13.193   7.476   9.432
  302SOL    HW2 2681  13.291   7.573   9.494
  303SOL     OW 2682  13.869  11.718  10.695
  303SOL    HW1 2683  13.941  11.723  10.758
  303SOL    HW2 2684  13.792  11.694  10.747
  304SOL     OW 2685   0.000  10.988   3.342
  304SOL    HW1 2686  14.808  10.986   3.277
  304SOL    HW2 2687   0.080  11.005   3.292
  305SOL     OW 2688   9.854   2.530   7.790
  305SOL    HW1 2689   9.860   2.436   7.771
  305SOL    HW2 2690   9.876   2.572   7.707
  306SOL     OW 2691   4.779  11.325   4.573
  306SOL    HW1 2692   4.821  11.371   4.500
  306SOL    HW2 2693   4.690  11.310   4.544
  307SOL     OW 2694  14.753   8.715  13.817
  307SOL    HW1 2695  14.692   8.742  13.886
  307SOL    HW2 2696  14.725   8.626  13.793
  308SOL     OW 2697   6.353   6.196   2.129
  308SOL    HW1 2698   6.349   6.104   2.154
  308SOL    HW2 2699   6.344   6.243   2.212
  309SOL     OW 2700   0.667   3.551   7.699
  309SOL    HW1 2701   0.717   3.631   7.716
  309SOL    HW2 2702   0.577   3.582   7.688
  310SOL     OW 2703   4.054   2.252  12.848
  310SOL    HW1 2704   4.056   2.225  12.756
  310SOL    HW2 2705   4.095   2.339  12.848
  311SOL     OW 2706  14.229  11.117   9.257
  311SOL    HW1 2707  14.314  11.153   9.235
  311SOL    HW2 2708  14.167  11.168   9.205
  312SOL     OW 2709  11.419  12.043   3.985
  312SOL    HW1 2710  11.426  12.059   3.891
  312SOL    HW2 2711  11.438  11.950   3.996
  313SOL     OW 2712  10.521   7.457   0.013
  313SOL    HW1 2713  10.438   7.504   0.003
  313SOL    HW2 2714  10.588   7.521  14.867
  314SOL     OW 2715   4.931   9.907   9.249
  314SOL    HW1 2716   4.976   9.825   9.271
  314SOL    HW2 2717   4.907   9.897   9.157
  315SOL     OW 2718  13.848  14.143   8.656
  315SOL    HW1 2719  13.757  14.155   8.631
  315SOL    HW2 2720  13.853  14.052   8.686
  316SOL     OW 2721   5.733  10.791  10.744
  316SOL    HW1 2722   5.751  10.884  10.732
  316SOL    HW2 2723   5.770  10.749  10.667
  317SOL     OW 2724   8.362   6.096  12.393
  317SOL    HW1 2725   8.393   6.171  12.443
  317SOL    HW2 2726   8.442   6.047  12.370
  318SOL     OW 2727   9.548   6.921   9.419
  318SOL    HW1 2728   9.635   6.955   9.399
  318SOL    HW2 2729   9.519   6.971   9.495
  319SOL     OW 2730   1.724   6.891   0.552
  319SOL    HW1 2731   1.696   6.848   0.472
  319SOL    HW2 2732   1.777   6.826   0.598
  320SOL     OW 2733   2.173   8.104   3.054
  320SOL    HW1 2734   2.138   8.105   2.965
  320SOL    HW2 2735   2.254   8.155   3.049
  321SOL     OW 2736   8.415   2.273   4.100
  321SOL    HW1 2737   8.499   2.308   4.130
  321SOL    HW2 2738   8.414   2.293   4.006
  322SOL     OW 2739  12.245   6.984  13.282
  322SOL    HW1 2740  12.215   7.063  13.327
  322SOL    HW2 2741  12.337   7.000  13.264
  323SOL     OW 2742   8.701   6.367   7.185
  323SOL    HW1 2743   8.791   6.345   7.209
  323SOL    HW2 2744   8.666   6.287   7.144
  324SOL     OW 2745   1.144   1.726   1.547
  324SOL    HW1 2746   1.220   1.716   1.491
  324SOL    HW2 2747   1.070   1.728   1.486
  325SOL     OW 2748   5.059   7.098   6.494
  325SOL    HW1 2749   5.065   7.082   6.400
  325SOL    HW2 2750   5.023   7.187   6.501
  326SOL     OW 2751   0.474  14.553   6.864
  326SOL    HW1 2752   0.454  14.647   6.861
  326SOL    HW2 2753   0.524  14.537   6.784
  327SOL     OW 2754   0.657  10.589   1.318
  327SOL    HW1 2755   0.732  10.531   1.302
  327SOL    HW2 2756   0.639  10.579   1.411
  328SOL     OW 2757   6.853   4.148   0.060
  328SOL    HW1 2758   6.897   4.130   0.143
  328SOL    HW2 2759   6.901   4.096  14.873
  329SOL     OW 2760   9.049   3.235   6.648
  329SOL    HW1 2761   9.141   3.209   6.639
  329SOL    HW2 2762   9.042   3.315   6.597
  330SOL     OW 2763   8.494   4.559   8.433
  330SOL    HW1 2764   8.493   4.560   8.529
  330SOL    HW2 2765   8.436   4.631   8.408
  331SOL     OW 2766  10.716   4.994   7.565
  331SOL    HW1 2767  10.748   4.994   7.655
  331SOL    HW2 2768  10.698   5.086   7.546
  332SOL     OW 2769   3.744   7.869  10.581
  332SOL    HW1 2770   3.706   7.787  10.551
  332SOL    HW2 2771   3.668   7.925  10.601
  333SOL     OW 2772   9.277   1.387   3.296
  333SOL    HW1 2773   9.208   1.421   3.239
  333SOL    HW2 2774   9.241   1.305   3.329
  334SOL     OW 2775   1.388   0.341   2.871
  334SOL    HW1 2776   1.412   0.423   2.915
  334SOL    HW2 2777   1.406   0.357   2.778
  335SOL     OW 2778  13.592  10.389  14.819
  335SOL    HW1 2779  13.585  10.349   0.028
  335SOL    HW2 2780  13.595  10.483  14.837
  336SOL     OW 2781  14.587   2.561   9.433
  336SOL    HW1 2782  14.622   2.478   9.466
  336SOL    HW2 2783  14.499   2.540   9.402
  337SOL     OW 2784   1.544   0.538   2.108
  337SOL    HW1 2785   1.536   0.634   2.114
  337SOL    HW2 2786   1.537   0.508   2.199
  338SOL     OW 2787   3.601   3.307   8.781
  338SOL    HW1 2788   3.528   3.261   8.821
  338SOL    HW2 2789   3.662   3.322   8.853
  339SOL     OW 2790  10.142   4.793   3.470
  339SOL    HW1 2791  10.194   4.791   3.550
  339SOL    HW2 2792  10.195   4.841   3.407
  340SOL     OW 2793   8.450   9.666   9.202
  340SOL    HW1 2794   8.393   9.743   9.207
  340SOL    HW2 2795   8.431   9.628   9.116
  341SOL     OW 2796   3.713   1.018  14.529
  341SOL    HW1 2797   3.735   0.964  14.453
  341SOL    HW2 2798   3.704   0.956  14.601
  342SOL     OW 2799  13.390   7.088   3.403
  342SOL    HW1 2800  13.390   7.179   3.435
  342SOL    HW2 2801  13.416   7.095   3.311
  343SOL     OW 2802  12.294  11.476  12.825
  343SOL    HW1 2803  12.300  11.536  12.752
  343SOL    HW2 2804  12.293  11.532  12.903
  344SOL     OW 2805  12.764   6.193  12.215
  344SOL    HW1 2806  12.850   6.181  12.175
  344SOL    HW2 2807  12.769   6.142  12.296
  345SOL     OW 2808   7.457   7.172   0.738
  345SOL    HW1 2809   7.432   7.087   0.775
  345SOL    HW2 2810   7.545   7.188   0.771
  346SOL     OW 2811   2.773   4.887  10.803
  346SOL    HW1 2812   2.769   4.863  10.896
  346SOL    HW2 2813   2.859   4.927  10.793
  347SOL     OW 2814  13.931   9.416   4.771
  347SOL    HW1 2815  13.930   9.325   4.743
  347SOL    HW2 2816  13.942   9.466   4.690
  348SOL     OW 2817   6.902   4.845   2.666
  348SOL    HW1 2818   6.863   4.781   2.606
  348SOL    HW2 2819   6.951   4.792   2.729
  349SOL     OW 2820  12.313   8.068  10.289
  349SOL    HW1 2821  12.309   8.122  10.210
  349SOL    HW2 2822  12.374   7.998  10.267
  350SOL     OW 2823  11.260   7.963   5.868
  350SOL    HW1 2824  11.337   8.019   5.858
  350SOL    HW2 2825  11.256   7.944   5.962
  351SOL     OW 2826   1.989   7.410   8.619
  351SOL    HW1 2827   2.061   7.452   8.666
  351SOL    HW2 2828   2.002   7.435   8.528
  352SOL     OW 2829  12.522   3.814  10.742
  352SOL    HW1 2830  12.467   3.882  10.783
  352SOL    HW2 2831  12.583   3.789  10.811
  353SOL     OW 2832   7.407   3.462  12.992
  353SOL    HW1 2833   7.363   3.540  13.025
  353SOL    HW2 2834   7.491   3.494  12.959
  354SOL     OW 2835   8.871   6.662   8.622
  354SOL    HW1 2836   8.840   6.595   8.684
  354SOL    HW2 2837   8.793   6.684   8.570
  355SOL     OW 2838   6.587   8.325  13.051
  355SOL    HW1 2839   6.647   8.320  13.125
  355SOL    HW2 2840   6.500   8.315  13.091
  356SOL     OW 2841   7.496   6.916   3.254
  356SOL    HW1 2842   7.569   6.879   3.204
  356SOL    HW2 2843   7.418   6.891   3.205
  357SOL     OW 2844  10.233  12.323   8.915
  357SOL    HW1 2845  10.221  12.346   8.823
  357SOL    HW2 2846  10.262  12.404   8.957
  358SOL     OW 2847  13.358   7.356  10.203
  358SOL    HW1 2848  13.443   7.400  10.209
  358SOL    HW2 2849  13.367   7.296  10.129
  359SOL     OW 2850   8.117   8.504   0.144
  359SOL    HW1 2851   8.171   8.490   0.066
  359SOL    HW2 2852   8.027   8.502   0.111
  360SOL     OW 2853   5.955   6.644   3.487
  360SOL    HW1 2854   6.004   6.722   3.514
  360SOL    HW2 2855   5.874   6.648   3.537
  361SOL     OW 2856   0.643   3.959   1.698
  361SOL    HW1 2857   0.649   4.053   1.715
  361SOL    HW2 2858   0.615   3.952   1.607
  362SOL     OW 2859   2.940  11.577   9.118
  362SOL    HW1 2860   2.954  11.527   9.198
  362SOL    HW2 2861   2.998  11.537   9.054
  363SOL     OW 2862  13.702   2.234  14.047
  363SOL    HW1 2863  13.784   2.214  14.091
  363SOL    HW2 2864  13.656   2.292  14.107
  364SOL     OW 2865   5.931   9.878   1.183
  364SOL    HW1 2866   5.890   9.801   1.144
  364SOL    HW2 2867   5.859   9.942   1.189
  365SOL     OW 2868   2.553   1.508   4.650
  365SOL    HW1 2869   2.473   1.545   4.689
  365SOL    HW2 2870   2.615   1.504   4.723
  366SOL     OW 2871   0.277   7.522  11.066
  366SOL    HW1 2872   0.336   7.597  11.070
  366SOL    HW2 2873   0.308   7.471  10.991
  367SOL     OW 2874   4.289  13.393   1.324
  367SOL    HW1 2875   4.223  13.333   1.358
  367SOL    HW2 2876   4.280  13.472   1.378
  368SOL     OW 2877  11.343   0.410   8.646
  368SOL    HW1 2878  11.345   0.330   8.593
  368SOL    HW2 2879  11.330   0.379   8.735
  369SOL     OW 2880   4.032  12.807   9.664
  369SOL    HW1 2881   4.014  12.852   9.582
  369SOL    HW2 2882   3.946  12.797   9.705
  370SOL     OW 2883  12.583   7.861  12.604
  370SOL    HW1 2884  12.575   7.800  12.530
  370SOL    HW2 2885  12.674   7.890  12.601
  371SOL     OW 2886  11.968   9.319   1.456
  371SOL    HW1 2887  12.022   9.370   1.517
  371SOL    HW2 2888  12.030   9.260   1.413
  372SOL     OW 2889  12.856   7.033  11.138
  372SOL    HW1 2890  12.770   6.992  11.128
  372SOL    HW2 2891  12.918   6.963  11.117
  373SOL     OW 2892  12.666   8.379  10.174
  373SOL    HW1 2893  12.686   8.328  10.096
  373SOL    HW2 2894  12.594   8.436  10.148
  374SOL     OW 2895   3.117  12.890   9.205
  374SOL    HW1 2896   3.029  12.855   9.222
  374SOL    HW2 2897   3.104  12.956   9.137
  375SOL     OW 2898   7.185   5.130   8.358
  375SOL    HW1 2899   7.237   5.169   8.428
  375SOL    HW2 2900   7.110   5.091   8.403
  376SOL     OW 2901   3.403   8.830  13.723
  376SOL    HW1 2902   3.449   8.853  13.643
  376SOL    HW2 2903   3.416   8.735  13.731
  377SOL     OW 2904  13.763   9.663   7.662
  377SOL    HW1 2905  13.798   9.612   7.589
  377SOL    HW2 2906  13.754   9.599   7.733
  378SOL     OW 2907  10.899  14.107   9.863
  378SOL    HW1 2908  10.836  14.132   9.930
  378SOL    HW2 2909  10.974  14.165   9.877
  379SOL     OW 2910   2.396   8.152   5.125
  379SOL    HW1 2911   2.445   8.215   5.071
  379SOL    HW2 2912   2.338   8.108   5.063
  380SOL     OW 2913   7.521  10.134  11.836
  380SOL    HW1 2914   7.535  10.040  11.840
  380SOL    HW2 2915   7.607  10.172  11.857
  381SOL     OW 2916  12.661   2.780  13.860
  381SOL    HW1 2917  12.702   2.697  13.835
  381SOL    HW2 2918  12.580   2.782  13.810
  382SOL     OW 2919  12.165  12.530  10.052
  382SOL    HW1 2920  12.177  12.520  10.147
  382SOL    HW2 2921  12.070  12.522  10.039
  383SOL     OW 2922   2.532   1.741  12.606
  383SOL    HW1 2923   2.446   1.749  12.647
  383SOL    HW2 2924   2.533   1.810  12.539
  384SOL     OW 2925  10.328   0.255   5.298
  384SOL    HW1 2926  10.337   0.324   5.233
  384SOL    HW2 2927  10.402   0.268   5.358
  385SOL     OW 2928   8.074  12.835   0.075
  385SOL    HW1 2929   7.998  12.778   0.069
  385SOL    HW2 2930   8.050  12.913   0.024
  386SOL     OW 2931  12.449   6.805  13.822
  386SOL    HW1 2932  12.466   6.828  13.914
  386SOL    HW2 2933  12.363   6.763  13.824
  387SOL     OW 2934   1.786  10.248  13.548
  387SOL    HW1 2935   1.745  10.161  13.540
  387SOL    HW2 2936   1.718  10.302  13.589
  388SOL     OW 2937  13.507   9.809  12.987
  388SOL    HW1 2938  13.477   9.900  12.993
  388SOL    HW2 2939  13.433   9.762  12.949
  389SOL     OW 2940  11.542   6.281   5.318
  389SOL    HW1 2941  11.618   6.334   5.338
  389SOL    HW2 2942  11.486   6.287   5.395
  390SOL     OW 2943   7.944   2.612  11.980
  390SOL    HW1 2944   7.927   2.591  11.888
  390SOL    HW2 2945   8.020   2.558  12.003
  391SOL     OW 2946  10.658  13.177   8.314
  391SOL    HW1 2947  10.682  13.163   8.222
  391SOL    HW2 2948  10.741  13.175   8.361
  392SOL     OW 2949   8.462   8.316   3.836
  392SOL    HW1 2950   8.518   8.248   3.797
  392SOL    HW2 2951   8.426   8.275   3.915
  393SOL     OW 2952   5.285   2.567  10.938
  393SOL    HW1 2953   5.219   2.508  10.976
  393SOL    HW2 2954   5.329   2.606  11.013
  394SOL     OW 2955  13.913   5.722  10.512
  394SOL    HW1 2956  13.875   5.798  10.468
  394SOL    HW2 2957  13.838   5.677  10.551
  395SOL     OW 2958   2.356   4.905   3.663
  395SOL    HW1 2959   2.413   4.835   3.697
  395SOL    HW2 2960   2.414   4.982   3.658
  396SOL     OW 2961   2.855   9.603   1.539
  396SOL    HW1 2962   2.942   9.642   1.532
  396SOL    HW2 2963   2.795   9.673   1.513
  397SOL     OW 2964   2.026   8.008   4.224
  397SOL    HW1 2965   1.981   8.001   4.309
  397SOL    HW2 2966   2.107   7.960   4.236
  398SOL     OW 2967   4.373   3.316   1.698
  398SOL    HW1 2968   4.413   3.252   1.757
  398SOL    HW2 2969   4.288   3.280   1.677
  399SOL     OW 2970  11.017  10.076   4.706
  399SOL    HW1 2971  10.960  10.071   4.783
  399SOL    HW2 2972  10.957  10.088   4.633
  400SOL     OW 2973  14.181   3.276  13.170
  400SOL    HW1 2974  14.129   3.353  13.149
  400SOL    HW2 2975  14.141   3.205  13.120
  401SOL     OW 2976   8.695   4.562  10.580
  401SOL    HW1 2977   8.620   4.507  10.599
  401SOL    HW2 2978   8.657   4.641  10.540
  402SOL     OW 2979  11.309  11.814   8.459
  402SOL    HW1 2980  11.396  11.775   8.450
  402SOL    HW2 2981  11.277  11.824   8.369
  403SOL     OW 2982   8.965   1.387   9.321
  403SOL    HW1 2983   8.892   1.444   9.344
  403SOL    HW2 2984   9.043   1.434   9.351
  404SOL     OW 2985  12.312  11.997   0.324
  404SOL    HW1 2986  12.272  11.918   0.360
  404SOL    HW2 2987  12.240  12.044   0.282
  405SOL     OW 2988   4.556  14.299  13.300
  405SOL    HW1 2989   4.613  14.344  13.238
  405SOL    HW2 2990   4.541  14.213  13.260
  406SOL     OW 2991   5.028  14.599  11.971
  406SOL    HW1 2992   4.977  14.535  12.021
  406SOL    HW2 2993   4.963  14.665  11.944
  407SOL     OW 2994  12.513  12.712   4.739
  407SOL    HW1 2995  12.419  12.730   4.736
  407SOL    HW2 2996  12.553  12.799   4.738
  408SOL     OW 2997  12.422  12.696  12.349
  408SOL    HW1 2998  12.444  12.788  12.358
  408SOL    HW2 2999  12.328  12.692  12.364
  409SOL     OW 3000   2.154   8.158   7.614
  409SOL    HW1 3001   2.209   8.183   7.688
  409SOL    HW2 3002   2.182   8.069   7.592
  410SOL     OW 3003  12.043  14.700   5.391
  410SOL    HW1 3004  11.949  14.714   5.384
  410SOL    HW2 3005  12.080  14.745   5.315
  411SOL     OW 3006  14.366   3.113   7.017
  411SOL    HW1 3007  14.462   3.115   7.017
  411SOL    HW2 3008  14.343   3.061   7.094
  412SOL     OW 3009  12.996   4.038   3.591
  412SOL    HW1 3010  13.091   4.026   3.585
  412SOL    HW2 3011  12.968   3.969   3.652
  413SOL     OW 3012  12.601   0.606  12.461
  413SOL    HW1 3013  12.658   0.630  12.535
  413SOL    HW2 3014  12.657   0.556  12.403
  414SOL     OW 3015  12.728  12.557   4.709
  414SOL    HW1 3016  12.771  12.597   4.633
  414SOL    HW2 3017  12.654  12.614   4.728
  415SOL     OW 3018   4.263  14.820   9.315
  415SOL    HW1 3019   4.343  14.859   9.281
  415SOL    HW2 3020   4.246  14.746   9.256
  416SOL     OW 3021   7.132  11.405   6.812
  416SOL    HW1 3022   7.129  11.371   6.722
  416SOL    HW2 3023   7.212  11.458   6.814
  417SOL     OW 3024   8.369   2.528   6.206
  417SOL    HW1 3025   8.313   2.464   6.162
  417SOL    HW2 3026   8.454   2.519   6.163
  418SOL     OW 3027   4.265   5.898  13.631
  418SOL    HW1 3028   4.178   5.902  13.590
  418SOL    HW2 3029   4.313   5.970  13.591
  419SOL     OW 3030   3.830   5.270  10.167
  419SOL    HW1 3031   3.742   5.250  10.200
  419SOL    HW2 3032   3.868   5.184  10.146
  420SOL     OW 3033   3.938   8.287   7.859
  420SOL    HW1 3034   3.986   8.370   7.858
  420SOL    HW2 3035   3.889   8.289   7.942
  421SOL     OW 3036   7.729   2.933  14.443
  421SOL    HW1 3037   7.728   2.851  14.491
  421SOL    HW2 3038   7.640   2.942  14.409
  422SOL     OW 3039  13.398  14.271  13.643
  422SOL    HW1 3040  13.313  14.273  13.688
  422SOL    HW2 3041  13.454  14.219  13.700
  423SOL     OW 3042  14.486   1.256  12.527
  423SOL    HW1 3043  14.499   1.182  12.586
  423SOL    HW2 3044  14.574   1.283  12.503
  424SOL     OW 3045  10.467  14.869   9.191
  424SOL    HW1 3046  10.537   0.034   9.240
  424SOL    HW2 3047  10.481  14.775   9.205
  425SOL     OW 3048   9.694  11.959   0.592
  425SOL    HW1 3049   9.727  11.999   0.673
  425SOL    HW2 3050   9.760  11.893   0.571
  426SOL     OW 3051   4.417   3.208   0.062
  426SOL    HW1 3052   4.355   3.147   0.022
  426SOL    HW2 3053   4.430   3.175   0.151
  427SOL     OW 3054   2.582  11.252   9.763
  427SOL    HW1 3055   2.667  11.282   9.795
  427SOL    HW2 3056   2.527  11.250   9.842
  428SOL     OW 3057   6.590   2.662   2.331
  428SOL    HW1 3058   6.508   2.693   2.369
  428SOL    HW2 3059   6.566   2.585   2.279
  429SOL     OW 3060  10.694   0.994   1.167
  429SOL    HW1 3061  10.668   0.919   1.113
  429SOL    HW2 3062  10.707   0.957   1.255
  430SOL     OW 3063  12.181  11.392   1.199
  430SOL    HW1 3064  12.156  11.314   1.248
  430SOL    HW2 3065  12.219  11.450   1.265
  431SOL     OW 3066   6.822  11.734   4.130
  431SOL    HW1 3067   6.901  11.735   4.184
  431SOL    HW2 3068   6.854  11.720   4.041
  432SOL     OW 3069   2.808  10.905  13.503
  432SOL    HW1 3070   2.802  10.836  13.437
  432SOL    HW2 3071   2.841  10.981  13.455
  433SOL     OW 3072   1.528   0.812   2.137
  433SOL    HW1 3073   1.510   0.906   2.147
  433SOL    HW2 3074   1.591   0.807   2.066
  434SOL     OW 3075   6.787  10.884   8.757
  434SOL    HW1 3076   6.820  10.887   8.667
  434SOL    HW2 3077   6.813  10.797   8.788
  435SOL     OW 3078   8.055   0.010  13.169
  435SOL    HW1 3079   8.044   0.089  13.221
  435SOL    HW2 3080   8.138  14.850  13.200
  436SOL     OW 3081   4.655   1.474  10.027
  436SOL    HW1 3082   4.733   1.426   9.997
  436SOL    HW2 3083   4.683   1.519  10.106
  437SOL     OW 3084   0.174  14.855  14.237
  437SOL    HW1 3085   0.201  14.769  14.204
  437SOL    HW2 3086   0.206  14.857  14.327
  438SOL     OW 3087  13.441   9.416   2.226
  438SOL    HW1 3088  13.350   9.403   2.254
  438SOL    HW2 3089  13.480   9.469   2.296
  439SOL     OW 3090   9.059   5.328   9.398
  439SOL    HW1 3091   9.030   5.358   9.485
  439SOL    HW2 3092   9.064   5.233   9.407
  440SOL     OW 3093   1.765   8.491  11.910
  440SOL    HW1 3094   1.722   8.577  11.910
  440SOL    HW2 3095   1.692   8.429  11.904
  441SOL     OW 3096   8.002  13.037  10.084
  441SOL    HW1 3097   8.006  13.132  10.082
  441SOL    HW2 3098   7.979  13.016  10.174
  442SOL     OW 3099   7.673   8.146   5.909
  442SOL    HW1 3100   7.600   8.101   5.952
  442SOL    HW2 3101   7.641   8.235   5.895
  443SOL     OW 3102   2.719   4.856   6.752
  443SOL    HW1 3103   2.785   4.920   6.727
  443SOL    HW2 3104   2.723   4.853   6.848
  444SOL     OW 3105   5.719  13.736   2.556
  444SOL    HW1 3106   5.711  13.744   2.651
  444SOL    HW2 3107   5.813  13.727   2.540
  445SOL     OW 3108  14.552   0.969  13.058
  445SOL    HW1 3109  14.571   0.905  13.126
  445SOL    HW2 3110  14.477   0.932  13.010
  446SOL     OW 3111  13.228   1.687   7.345
  446SOL    HW1 3112  13.182   1.607   7.318
  446SOL    HW2 3113  13.292   1.656   7.409
  447SOL     OW 3114   7.724  14.329   0.060
  447SOL    HW1 3115   7.748  14.280   0.139
  447SOL    HW2 3116   7.638  14.294   0.036
  448SOL     OW 3117   9.830   1.163   8.301
  448SOL    HW1 3118   9.853   1.071   8.313
  448SOL    HW2 3119   9.778   1.164   8.221
  449SOL     OW 3120   4.227  10.663   1.909
  449SOL    HW1 3121   4.137  10.661   1.875
  449SOL    HW2 3122   4.251  10.756   1.905
  450SOL     OW 3123   3.225   1.093   5.785
  450SOL    HW1 3124   3.264   1.021   5.835
  450SOL    HW2 3125   3.196   1.155   5.853
  451SOL     OW 3126  13.950   4.253   0.444
  451SOL    HW1 3127  13.911   4.305   0.374
  451SOL    HW2 3128  13.875   4.231   0.501
  452SOL     OW 3129   8.269   9.915   2.164
  452SOL    HW1 3130   8.305   9.835   2.124
  452SOL    HW2 3131   8.338   9.943   2.225
  453SOL     OW 3132   0.552  12.389   0.229
  453SOL    HW1 3133   0.595  12.316   0.273
  453SOL    HW2 3134   0.470  12.352   0.195
  454SOL     OW 3135   3.288   7.778   3.731
  454SOL    HW1 3136   3.277   7.745   3.642
  454SOL    HW2 3137   3.373   7.824   3.729
  455SOL     OW 3138  12.500   0.255   1.292
  455SOL    HW1 3139  12.513   0.203   1.213
  455SOL    HW2 3140  12.589   0.283   1.316
  456SOL     OW 3141   2.445   0.822   5.460
  456SOL    HW1 3142   2.457   0.881   5.385
  456SOL    HW2 3143   2.356   0.839   5.490
  457SOL     OW 3144   6.730   1.785   5.334
  457SOL    HW1 3145   6.744   1.776   5.428
  457SOL    HW2 3146   6.799   1.846   5.306
  458SOL     OW 3147   0.359   2.308   6.498
  458SOL    HW1 3148   0.318   2.286   6.582
  458SOL    HW2 3149   0.453   2.300   6.514
  459SOL     OW 3150   8.222   1.370  12.802
  459SOL    HW1 3151   8.172   1.423  12.864
  459SOL    HW2 3152   8.234   1.286  12.846
  460SOL     OW 3153   5.157   0.210   5.735
  460SOL    HW1 3154   5.210   0.283   5.767
  460SOL    HW2 3155   5.212   0.168   5.669
  461SOL     OW 3156   0.592  13.370  10.755
  461SOL    HW1 3157   0.583  13.440  10.690
  461SOL    HW2 3158   0.626  13.413  10.833
  462SOL     OW 3159   9.969   0.482   0.710
  462SOL    HW1 3160  10.027   0.434   0.651
  462SOL    HW2 3161  10.005   0.571   0.712
  463SOL     OW 3162   4.597  10.651  10.462
  463SOL    HW1 3163   4.546  10.576  10.492
  463SOL    HW2 3164   4.635  10.622  10.379
  464SOL     OW 3165   4.503   0.088  10.330
  464SOL    HW1 3166   4.448   0.070  10.406
  464SOL    HW2 3167   4.442   0.088  10.256
  465SOL     OW 3168   5.417  12.430  10.207
  465SOL    HW1 3169   5.458  12.499  10.260
  465SOL    HW2 3170   5.362  12.478  10.144
  466SOL     OW 3171  11.130  13.978  12.642
  466SOL    HW1 3172  11.065  14.003  12.707
  466SOL    HW2 3173  11.207  13.953  12.693
  467SOL     OW 3174   1.171   3.698   8.922
  467SOL    HW1 3175   1.139   3.752   8.850
  467SOL    HW2 3176   1.254   3.663   8.890
  468SOL     OW 3177  14.689   5.438   1.340
  468SOL    HW1 3178  14.703   5.467   1.250
  468SOL    HW2 3179  14.618   5.493   1.373
  469SOL     OW 3180   4.297  10.695  13.157
  469SOL    HW1 3181   4.338  10.698  13.071
  469SOL    HW2 3182   4.217  10.645  13.144
  470SOL     OW 3183  10.901  13.297  13.393
  470SOL    HW1 3184  10.898  13.291  13.298
  470SOL    HW2 3185  10.810  13.297  13.420
  471SOL     OW 3186   1.899   7.913   3.770
  471SOL    HW1 3187   1.995   7.908   3.765
  471SOL    HW2 3188   1.877   7.988   3.715
  472SOL     OW 3189  14.682  13.296   0.340
  472SOL    HW1 3190  14.622  13.356   0.385
  472SOL    HW2 3191  14.751  13.353   0.305
  473SOL     OW 3192   7.082   8.330   6.374
  473SOL    HW1 3193   7.049   8.408   6.329
  473SOL    HW2 3194   7.027   8.323   6.453
  474SOL     OW 3195   7.731  12.871  12.525
  474SOL    HW1 3196   7.735  12.937  12.456
  474SOL    HW2 3197   7.676  12.802  12.489
  475SOL     OW 3198  12.552   0.855  12.377
  475SOL    HW1 3199  12.556   0.760  12.367
  475SOL    HW2 3200  12.644   0.882  12.383
  476SOL     OW 3201  13.695  12.435   0.783
  476SOL    HW1 3202  13.700  12.522   0.742
  476SOL    HW2 3203  13.673  12.453   0.874
  477SOL     OW 3204  10.431  12.448  10.374
  477SOL    HW1 3205  10.508  12.391  10.375
  477SOL    HW2 3206  10.433  12.490  10.288
  478SOL     OW 3207   2.655   4.287   0.658
  478SOL    HW1 3208   2.717   4.218   0.679
  478SOL    HW2 3209   2.669   4.306   0.565
  479SOL     OW 3210  11.630   9.248   5.296
  479SOL    HW1 3211  11.724   9.254   5.276
  479SOL    HW2 3212  11.594   9.193   5.227
  480SOL     OW 3213   8.767  11.976   5.952
  480SOL    HW1 3214   8.756  12.056   5.902
  480SOL    HW2 3215   8.703  11.983   6.023
  481SOL     OW 3216   6.370   7.150   9.235
  481SOL    HW1 3217   6.390   7.106   9.318
  481SOL    HW2 3218   6.353   7.241   9.260
  482SOL     OW 3219   1.934   2.175   0.440
  482SOL    HW1 3220   1.932   2.246   0.504
  482SOL    HW2 3221   2.026   2.148   0.437
  483SOL     OW 3222  11.153   8.457  11.583
  483SOL    HW1 3223  11.141   8.435  11.676
  483SOL    HW2 3224  11.064   8.456  11.547
  484SOL     OW 3225   9.633   8.004   4.676
  484SOL    HW1 3226   9.677   8.062   4.738
  484SOL    HW2 3227   9.659   7.916   4.703
  485SOL     OW 3228  10.775   9.317  11.984
  485SOL    HW1 3229  10.851   9.268  11.954
  485SOL    HW2 3230  10.770   9.298  12.078
  486SOL     OW 3231   8.130   3.179  14.581
  486SOL    HW1 3232   8.163   3.105  14.631
  486SOL    HW2 3233   8.035   3.175  14.591
  487SOL     OW 3234  12.425   8.270   4.848
  487SOL    HW1 3235  12.447   8.187   4.804
  487SOL    HW2 3236  12.460   8.260   4.936
  488SOL     OW 3237  10.779   2.343   0.690
  488SOL    HW1 3238  10.722   2.352   0.614
  488SOL    HW2 3239  10.856   2.296   0.657
  489SOL     OW 3240   1.356   0.834   4.581
  489SOL    HW1 3241   1.341   0.804   4.491
  489SOL    HW2 3242   1.433   0.786   4.610
  490SOL     OW 3243   9.977   2.714   0.840
  490SOL    HW1 3244  10.029   2.668   0.775
  490SOL    HW2 3245   9.972   2.804   0.807
  491SOL     OW 3246  11.699   6.062   7.869
  491SOL    HW1 3247  11.686   5.967   7.872
  491SOL    HW2 3248  11.727   6.085   7.958
  492SOL     OW 3249   3.799  11.594   6.140
  492SOL    HW1 3250   3.746  11.657   6.092
  492SOL    HW2 3251   3.889  11.614   6.114
  493SOL     OW 3252   1.829   2.743   7.058
  493SOL    HW1 3253   1.794   2.653   7.055
  493SOL    HW2 3254   1.921   2.734   7.034
  494SOL     OW 3255   9.673  14.129   7.163
  494SOL    HW1 3256   9.614  14.056   7.181
  494SOL    HW2 3257   9.619  14.191   7.114
  495SOL     OW 3258   1.791   5.897  10.674
  495SOL    HW1 3259   1.716   5.839  10.681
  495SOL    HW2 3260   1.754   5.984  10.658
  496SOL     OW 3261  13.573   5.610   0.062
  496SOL    HW1 3262  13.618   5.621  14.856
  496SOL    HW2 3263  13.509   5.682   0.065
  497SOL     OW 3264  14.055   5.245   2.389
  497SOL    HW1 3265  14.040   5.155   2.358
  497SOL    HW2 3266  14.094   5.290   2.313
  498SOL     OW 3267  11.631  12.197   5.142
  498SOL    HW1 3268  11.704  12.147   5.180
  498SOL    HW2 3269  11.566  12.201   5.213
  499SOL     OW 3270   6.594   6.774   1.076
  499SOL    HW1 3271   6.628   6.753   0.989
  499SOL    HW2 3272   6.509   6.815   1.059
  500SOL     OW 3273   4.452  11.293  11.446
  500SOL    HW1 3274   4.468  11.199  11.451
  500SOL    HW2 3275   4.535  11.330  11.415
  501SOL     OW 3276  13.505   3.519   6.707
  501SOL    HW1 3277  13.567   3.585   6.738
  501SOL    HW2 3278  13.436   3.570   6.663
  502SOL     OW 3279   3.642   9.619   3.353
  502SOL    HW1 3280   3.609   9.568   3.427
  502SOL    HW2 3281   3.693   9.689   3.393
  503SOL     OW 3282  11.714   2.247  14.535
  503SOL    HW1 3283  11.809   2.250  14.539
  503SOL    HW2 3284  11.691   2.157  14.558
  504SOL     OW 3285   1.781   5.647   7.626
  504SOL    HW1 3286   1.738   5.730   7.606
  504SOL    HW2 3287   1.861   5.649   7.575
  505SOL     OW 3288   1.448  11.708   8.885
  505SOL    HW1 3289   1.450  11.614   8.901
  505SOL    HW2 3290   1.359  11.726   8.855
  506SOL     OW 3291   5.685  11.236   0.545
  506SOL    HW1 3292   5.736  11.195   0.615
  506SOL    HW2 3293   5.654  11.318   0.583
  507SOL     OW 3294   1.424  14.753  14.507
  507SOL    HW1 3295   1.471  14.729  14.427
  507SOL    HW2 3296   1.492  14.789  14.565
  508SOL     OW 3297  13.323   2.535   5.050
  508SOL    HW1 3298  13.404   2.551   5.099
  508SOL    HW2 3299  13.263   2.604   5.079
  509SOL     OW 3300  12.559   1.296   2.845
  509SOL    HW1 3301  12.565   1.202   2.830
  509SOL    HW2 3302  12.475   1.321   2.806
  510SOL     OW 3303   9.296  10.670   9.452
  510SOL    HW1 3304   9.219  10.616   9.469
  510SOL    HW2 3305   9.325  10.699   9.539
  511SOL     OW 3306   4.447   2.126   5.259
  511SOL    HW1 3307   4.493   2.196   5.305
  511SOL    HW2 3308   4.496   2.047   5.281
  512SOL     OW 3309   2.880   5.505  14.452
  512SOL    HW1 3310   2.854   5.582  14.403
  512SOL    HW2 3311   2.953   5.468  14.403
  513SOL     OW 3312   2.732   3.155   2.828
  513SOL    HW1 3313   2.784   3.215   2.775
  513SOL    HW2 3314   2.759   3.068   2.799
  514SOL     OW 3315  10.250   1.924  10.537
  514SOL    HW1 3316  10.319   1.873  10.494
  514SOL    HW2 3317  10.186   1.858  10.565
  515SOL     OW 3318   2.173   9.330  13.066
  515SOL    HW1 3319   2.209   9.419  13.070
  515SOL    HW2 3320   2.208   9.287  13.144
  516SOL     OW 3321  12.275   3.956  13.623
  516SOL    HW1 3322  12.246   4.042  13.651
  516SOL    HW2 3323  12.366   3.970  13.594
  517SOL     OW 3324   9.350  12.496  10.973
  517SOL    HW1 3325   9.421  12.453  10.926
  517SOL    HW2 3326   9.366  12.590  10.959
  518SOL     OW 3327  14.591   0.015   2.038
  518SOL    HW1 3328  14.592  14.799   2.061
  518SOL    HW2 3329  14.638   0.020   1.955
  519SOL     OW 3330  13.226   5.613   1.003
  519SOL    HW1 3331  13.252   5.530   0.962
  519SOL    HW2 3332  13.283   5.620   1.080
  520SOL     OW 3333   3.433   3.533   0.459
  520SOL    HW1 3334   3.484   3.574   0.389
  520SOL    HW2 3335   3.485   3.550   0.538
  521SOL     OW 3336   1.156   2.996  11.747
  521SOL    HW1 3337   1.157   2.912  11.793
  521SOL    HW2 3338   1.064   3.022  11.746
  522SOL     OW 3339   9.536   7.385   6.693
  522SOL    HW1 3340   9.458   7.423   6.733
  522SOL    HW2 3341   9.518   7.386   6.599
  523SOL     OW 3342   6.179  10.466  12.854
  523SOL    HW1 3343   6.250  10.401  12.857
  523SOL    HW2 3344   6.108  10.421  12.810
  524SOL     OW 3345   0.554   1.543   8.329
  524SOL    HW1 3346   0.601   1.512   8.407
  524SOL    HW2 3347   0.623   1.577   8.272
  525SOL     OW 3348   1.826   2.830   5.500
  525SOL    HW1 3349   1.897   2.794   5.553
  525SOL    HW2 3350   1.781   2.891   5.559
  526SOL     OW 3351   2.732   2.784   7.853
  526SOL    HW1 3352   2.740   2.746   7.941
  526SOL    HW2 3353   2.711   2.710   7.797
  527SOL     OW 3354   1.558  14.233   2.976
  527SOL    HW1 3355   1.631  14.201   3.030
  527SOL    HW2 3356   1.517  14.153   2.942
  528SOL     OW 3357   6.386   0.486   2.049
  528SOL    HW1 3358   6.367   0.412   2.107
  528SOL    HW2 3359   6.481   0.482   2.035
  529SOL     OW 3360  11.973   3.463  11.767
  529SOL    HW1 3361  11.901   3.433  11.823
  529SOL    HW2 3362  11.991   3.390  11.709
  530SOL     OW 3363   3.026   9.583   8.729
  530SOL    HW1 3364   3.013   9.667   8.685
  530SOL    HW2 3365   3.080   9.532   8.669
  531SOL     OW 3366   6.716   2.679   5.904
  531SOL    HW1 3367   6.760   2.636   5.977
  531SOL    HW2 3368   6.696   2.608   5.843
  532SOL     OW 3369   4.667   3.236  14.121
  532SOL    HW1 3370   4.721   3.262  14.047
  532SOL    HW2 3371   4.636   3.318  14.158
  533SOL     OW 3372   1.693   2.229   1.772
  533SOL    HW1 3373   1.681   2.259   1.682
  533SOL    HW2 3374   1.732   2.304   1.817
  534SOL     OW 3375   1.655  10.283  14.206
  534SOL    HW1 3376   1.692  10.195  14.200
  534SOL    HW2 3377   1.723  10.339  14.168
  535SOL     OW 3378  11.735   8.777   0.759
  535SOL    HW1 3379  11.737   8.728   0.841
  535SOL    HW2 3380  11.660   8.836   0.768
  536SOL     OW 3381   8.023   4.976   5.548
  536SOL    HW1 3382   8.091   4.976   5.616
  536SOL    HW2 3383   7.964   4.905   5.575
  537SOL     OW 3384  14.171  12.206  12.218
  537SOL    HW1 3385  14.128  12.264  12.282
  537SOL    HW2 3386  14.263  12.233  12.220
  538SOL     OW 3387  12.024   2.357   1.276
  538SOL    HW1 3388  11.983   2.401   1.202
  538SOL    HW2 3389  12.096   2.416   1.302
  539SOL     OW 3390  11.354   0.506   6.799
  539SOL    HW1 3391  11.280   0.529   6.742
  539SOL    HW2 3392  11.394   0.431   6.756
  540SOL     OW 3393   4.912   0.635   6.762
  540SOL    HW1 3394   4.894   0.721   6.800
  540SOL    HW2 3395   4.997   0.646   6.720
  541SOL     OW 3396   8.036   5.691  11.977
  541SOL    HW1 3397   8.115   5.718  11.931
  541SOL    HW2 3398   7.977   5.661  11.909
  542SOL     OW 3399  12.452  14.091   7.742
  542SOL    HW1 3400  12.537  14.121   7.712
  542SOL    HW2 3401  12.393  14.107   7.668
  543SOL     OW 3402   5.768   7.692   8.023
  543SOL    HW1 3403   5.761   7.648   7.938
  543SOL    HW2 3404   5.831   7.763   8.007
  544SOL     OW 3405   1.376  11.102   0.572
  544SOL    HW1 3406   1.387  11.046   0.495
  544SOL    HW2 3407   1.464  11.128   0.596
  545SOL     OW 3408   6.507   7.001  10.000
  545SOL    HW1 3409   6.539   7.071   9.943
  545SOL    HW2 3410   6.544   6.921   9.962
  546SOL     OW 3411  13.962   8.150   7.604
  546SOL    HW1 3412  14.044   8.140   7.555
  546SOL    HW2 3413  13.955   8.068   7.654
  547SOL     OW 3414   2.536  13.053   8.689
  547SOL    HW1 3415   2.506  13.042   8.599
  547SOL    HW2 3416   2.475  13.117   8.727
  548SOL     OW 3417   1.480   2.200  10.602
  548SOL    HW1 3418   1.443   2.210  10.690
  548SOL    HW2 3419   1.557   2.257  10.601
  549SOL     OW 3420  14.052  13.241   1.946
  549SOL    HW1 3421  14.003  13.323   1.947
  549SOL    HW2 3422  14.114  13.249   2.018
  550SOL     OW 3423   3.230  12.719   5.447
  550SOL    HW1 3424   3.320  12.696   5.426
  550SOL    HW2 3425   3.206  12.783   5.380
  551SOL     OW 3426   7.847  11.101  14.383
  551SOL    HW1 3427   7.806  11.145  14.457
  551SOL    HW2 3428   7.894  11.027  14.421
  552SOL     OW 3429   3.120   8.064  10.587
  552SOL    HW1 3430   3.139   7.972  10.569
  552SOL    HW2 3431   3.027   8.065  10.608
  553SOL     OW 3432   8.388   1.882  11.321
  553SOL    HW1 3433   8.366   1.959  11.372
  553SOL    HW2 3434   8.331   1.813  11.355
  554SOL     OW 3435   8.227   3.356   0.144
  554SOL    HW1 3436   8.302   3.299   0.157
  554SOL    HW2 3437   8.265   3.442   0.127
  555SOL     OW 3438   6.995   0.917   7.616
  555SOL    HW1 3439   6.924   0.858   7.644
  555SOL    HW2 3440   7.021   0.962   7.696
  556SOL     OW 3441   8.066   8.531   8.539
  556SOL    HW1 3442   8.120   8.601   8.503
  556SOL    HW2 3443   8.119   8.452   8.527
  557SOL     OW 3444   1.342   2.716   1.758
  557SOL    HW1 3445   1.282   2.680   1.693
  557SOL    HW2 3446   1.341   2.810   1.744
  558SOL     OW 3447  12.897   4.122  11.071
  558SOL    HW1 3448  12.946   4.069  11.133
  558SOL    HW2 3449  12.936   4.102  10.986
  559SOL     OW 3450   4.429   3.099   4.640
  559SOL    HW1 3451   4.476   3.171   4.598
  559SOL    HW2 3452   4.477   3.021   4.612
  560SOL     OW 3453   0.974   7.319  12.969
  560SOL    HW1 3454   0.881   7.334  12.983
  560SOL    HW2 3455   0.998   7.380  12.899
  561SOL     OW 3456   8.069  13.716   5.114
  561SOL    HW1 3457   8.143  13.731   5.055
  561SOL    HW2 3458   8.000  13.681   5.058
  562SOL     OW 3459   1.495   5.722  11.712
  562SOL    HW1 3460   1.524   5.669  11.637
  562SOL    HW2 3461   1.411   5.684  11.738
  563SOL     OW 3462  12.313  13.161   6.282
  563SOL    HW1 3463  12.291  13.071   6.304
  563SOL    HW2 3464  12.322  13.204   6.367
  564SOL     OW 3465  10.345   3.879   2.691
  564SOL    HW1 3466  10.363   3.941   2.619
  564SOL    HW2 3467  10.283   3.817   2.654
  565SOL     OW 3468  14.806   8.525   3.558
  565SOL    HW1 3469  14.817   8.465   3.632
  565SOL    HW2 3470  14.776   8.469   3.487
  566SOL     OW 3471   4.282   4.735   2.202
  566SOL    HW1 3472   4.272   4.814   2.148
  566SOL    HW2 3473   4.370   4.703   2.181
  567SOL     OW 3474  10.107  10.260  12.540
  567SOL    HW1 3475  10.195  10.258  12.578
  567SOL    HW2 3476  10.095  10.352  12.513
  568SOL     OW 3477  14.235  13.095   1.129
  568SOL    HW1 3478  14.186  13.027   1.174
  568SOL    HW2 3479  14.188  13.176   1.149
  569SOL     OW 3480   8.452  11.815  11.615
  569SOL    HW1 3481   8.385  11.814  11.545
  569SOL    HW2 3482   8.485  11.725  11.617
  570SOL     OW 3483   2.492  10.145   7.415
  570SOL    HW1 3484   2.499  10.083   7.488
  570SOL    HW2 3485   2.520  10.095   7.338
  571SOL     OW 3486  11.699  11.513   7.728
  571SOL    HW1 3487  11.618  11.464   7.717
  571SOL    HW2 3488  11.740  11.476   7.806
  572SOL     OW 3489   1.986   9.668   7.045
  572SOL    HW1 3490   1.952   9.754   7.071
  572SOL    HW2 3491   2.003   9.676   6.952
  573SOL     OW 3492  10.833   9.597  10.500
  573SOL    HW1 3493  10.892   9.525  10.478
  573SOL    HW2 3494  10.809   9.635  10.416
  574SOL     OW 3495  10.028   3.866   4.376
  574SOL    HW1 3496  10.045   3.883   4.468
  574SOL    HW2 3497   9.973   3.788   4.375
  575SOL     OW 3498  13.717   0.431   6.287
  575SOL    HW1 3499  13.811   0.443   6.304
  575SOL    HW2 3500  13.708   0.449   6.193
  576SOL     OW 3501   5.474   7.617   8.812
  576SOL    HW1 3502   5.476   7.627   8.717
  576SOL    HW2 3503   5.539   7.549   8.830
  577SOL     OW 3504  13.858   4.559   8.309
  577SOL    HW1 3505  13.921   4.518   8.368
  577SOL    HW2 3506  13.834   4.641   8.352
  578SOL     OW 3507   9.922   7.744   2.638
  578SOL    HW1 3508   9.990   7.677   2.641
  578SOL    HW2 3509   9.858   7.718   2.704
  579SOL     OW 3510   1.988  12.764   4.267
  579SOL    HW1 3511   1.974  12.841   4.322
  579SOL    HW2 3512   1.900  12.727   4.256
  580SOL     OW 3513   4.279   8.023   7.225
  580SOL    HW1 3514   4.322   7.944   7.259
  580SOL    HW2 3515   4.246   8.068   7.304
  581SOL     OW 3516   6.541   8.684   7.141
  581SOL    HW1 3517   6.618   8.628   7.144
  581SOL    HW2 3518   6.545   8.736   7.221
  582SOL     OW 3519  12.128   1.203   5.706
  582SOL    HW1 3520  12.218   1.233   5.690
  582SOL    HW2 3521  12.128   1.111   5.680
  583SOL     OW 3522   2.453   6.493   1.000
  583SOL    HW1 3523   2.388   6.424   1.014
  583SOL    HW2 3524   2.516   6.482   1.071
  584SOL     OW 3525   7.482   4.837   6.144
  584SOL    HW1 3526   7.503   4.930   6.155
  584SOL    HW2 3527   7.442   4.831   6.057
  585SOL     OW 3528   0.397  14.360  11.041
  585SOL    HW1 3529   0.470  14.421  11.039
  585SOL    HW2 3530   0.360  14.370  11.129
  586SOL     OW 3531   8.052  13.799   4.113
  586SOL    HW1 3532   8.087  13.839   4.033
  586SOL    HW2 3533   8.052  13.705   4.095
  587SOL     OW 3534  11.641  12.826   6.736
  587SOL    HW1 3535  11.653  12.739   6.774
  587SOL    HW2 3536  11.548  12.830   6.714
  588SOL     OW 3537   2.387  13.255  11.789
  588SOL    HW1 3538   2.468  13.249  11.739
  588SOL    HW2 3539   2.334  13.320  11.743
  589SOL     OW 3540   2.636   1.839   5.691
  589SOL    HW1 3541   2.550   1.796   5.699
  589SOL    HW2 3542   2.688   1.777   5.639
  590SOL     OW 3543  12.647  14.116   4.512
  590SOL    HW1 3544  12.725  14.095   4.460
  590SOL    HW2 3545  12.678  14.119   4.602
  591SOL     OW 3546   3.718   3.268   0.655
  591SOL    HW1 3547   3.670   3.280   0.736
  591SOL    HW2 3548   3.751   3.356   0.634
  592SOL     OW 3549   5.145   9.765   0.147
  592SOL    HW1 3550   5.229   9.773   0.103
  592SOL    HW2 3551   5.104   9.688   0.108
  593SOL     OW 3552  13.614  11.865  13.375
  593SOL    HW1 3553  13.638  11.857  13.468
  593SOL    HW2 3554  13.626  11.958  13.355
  594SOL     OW 3555   3.528   3.382   1.697
  594SOL    HW1 3556   3.552   3.293   1.725
  594SOL    HW2 3557   3.468   3.369   1.624
  595SOL     OW 3558   4.573   1.530   5.786
  595SOL    HW1 3559   4.502   1.471   5.812
  595SOL    HW2 3560   4.607   1.492   5.705
  596SOL     OW 3561   9.523   5.831  11.014
  596SOL    HW1 3562   9.568   5.900  10.965
  596SOL    HW2 3563   9.445   5.873  11.050
  597SOL     OW 3564  12.137   1.914  12.137
  597SOL    HW1 3565  12.073   1.853  12.174
  597SOL    HW2 3566  12.100   1.939  12.052
  598SOL     OW 3567   0.428   9.880   8.029
  598SOL    HW1 3568   0.483   9.910   7.957
  598SOL    HW2 3569   0.376   9.956   8.054
  599SOL     OW 3570   6.988   7.057   7.791
  599SOL    HW1 3571   7.029   6.972   7.776
  599SOL    HW2 3572   6.997   7.103   7.708
  600SOL     OW 3573   4.233   3.315   4.317
  600SOL    HW1 3574   4.158   3.354   4.363
  600SOL    HW2 3575   4.236   3.225   4.348
  601SOL     OW 3576  13.921  12.413   1.151
  601SOL    HW1 3577  13.902  12.334   1.202
  601SOL    HW2 3578  13.837  12.440   1.115
  602SOL     OW 3579   5.450   9.282   2.244
  602SOL    HW1 3580   5.504   9.204   2.255
  602SOL    HW2 3581   5.395   9.285   2.322
  603SOL     OW 3582  11.712   8.643   2.343
  603SOL    HW1 3583  11.628   8.670   2.305
  603SOL    HW2 3584  11.689   8.605   2.427
  604SOL     OW 3585   0.904   9.370   9.090
  604SOL    HW1 3586   0.846   9.447   9.094
  604SOL    HW2 3587   0.856   9.302   9.138
  605SOL     OW 3588   0.802   7.562   3.947
  605SOL    HW1 3589   0.737   7.603   4.004
  605SOL    HW2 3590   0.864   7.633   3.928
  606SOL     OW 3591  14.514   4.947  12.444
  606SOL    HW1 3592  14.576   4.884  12.409
  606SOL    HW2 3593  14.431   4.900  12.450
  607SOL     OW 3594   3.497  14.314   4.026
  607SOL    HW1 3595   3.540  14.326   4.110
  607SOL    HW2 3596   3.569  14.298   3.964
  608SOL     OW 3597   1.541   2.841  14.753
  608SOL    HW1 3598   1.627   2.853  14.792
  608SOL    HW2 3599   1.514   2.929  14.726
  609SOL     OW 3600   4.929   8.373   0.805
  609SOL    HW1 3601   4.882   8.373   0.722
  609SOL    HW2 3602   5.017   8.344   0.782
  610SOL     OW 3603   8.886  14.554  13.332
  610SOL    HW1 3604   8.940  14.617  13.285
  610SOL    HW2 3605   8.941  14.525  13.405
  611SOL     OW 3606  10.007  12.794  13.863
  611SOL    HW1 3607   9.978  12.750  13.943
  611SOL    HW2 3608  10.028  12.883  13.892
  612SOL     OW 3609   8.041   1.007   3.675
  612SOL    HW1 3610   8.045   0.985   3.768
  612SOL    HW2 3611   8.094   1.086   3.666
  613SOL     OW 3612  11.499  13.904   7.096
  613SOL    HW1 3613  11.481  13.901   7.190
  613SOL    HW2 3614  11.432  13.964   7.062
  614SOL     OW 3615   4.903  12.187  12.357
  614SOL    HW1 3616   4.932  12.099  12.335
  614SOL    HW2 3617   4.868  12.223  12.275
  615SOL     OW 3618  14.356   0.537   9.335
  615SOL    HW1 3619  14.444   0.517   9.367
  615SOL    HW2 3620  14.371   0.582   9.252
  616SOL     OW 3621   6.156   1.909   6.847
  616SOL    HW1 3622   6.107   1.827   6.842
  616SOL    HW2 3623   6.139   1.942   6.935
  617SOL     OW 3624  12.807   6.749  14.632
  617SOL    HW1 3625  12.811   6.743  14.536
  617SOL    HW2 3626  12.773   6.836  14.649
  618SOL     OW 3627   7.878   5.397   8.073
  618SOL    HW1 3628   7.955   5.416   8.020
  618SOL    HW2 3629   7.896   5.439   8.157
  619SOL     OW 3630   9.300   9.752  14.720
  619SOL    HW1 3631   9.394   9.736  14.715
  619SOL    HW2 3632   9.280   9.804  14.643
  620SOL     OW 3633  14.235   1.512   7.745
  620SOL    HW1 3634  14.185   1.530   7.824
  620SOL    HW2 3635  14.264   1.421   7.755
  621SOL     OW 3636  14.132  13.036   3.295
  621SOL    HW1 3637  14.065  13.087   3.339
  621SOL    HW2 3638  14.118  12.946   3.327
  622SOL     OW 3639   6.254   8.694  10.425
  622SOL    HW1 3640   6.163   8.709  10.401
  622SOL    HW2 3641   6.272   8.603  10.399
  623SOL     OW 3642   7.235   0.775  14.361
  623SOL    HW1 3643   7.298   0.800  14.428
  623SOL    HW2 3644   7.261   0.823  14.283
  624SOL     OW 3645  10.128   9.666   5.167
  624SOL    HW1 3646  10.096   9.581   5.197
  624SOL    HW2 3647  10.150   9.713   5.247
  625SOL     OW 3648  12.550  10.335   1.895
  625SOL    HW1 3649  12.500  10.346   1.977
  625SOL    HW2 3650  12.584  10.246   1.899
  626SOL     OW 3651   3.791  10.474   5.834
  626SOL    HW1 3652   3.859  10.523   5.788
  626SOL    HW2 3653   3.711  10.525   5.818
  627SOL     OW 3654   6.426   3.228   1.584
  627SOL    HW1 3655   6.356   3.293   1.585
  627SOL    HW2 3656   6.466   3.238   1.497
  628SOL     OW 3657  13.015   4.007  14.109
  628SOL    HW1 3658  13.018   4.041  14.019
  628SOL    HW2 3659  13.098   3.959  14.118
  629SOL     OW 3660   8.138  14.312   7.675
  629SOL    HW1 3661   8.112  14.360   7.597
  629SOL    HW2 3662   8.139  14.378   7.745
  630SOL     OW 3663  11.815  11.807  11.954
  630SOL    HW1 3664  11.861  11.785  11.873
  630SOL    HW2 3665  11.729  11.839  11.926
  631SOL     OW 3666   4.050  14.449   6.274
  631SOL    HW1 3667   4.062  14.544   6.269
  631SOL    HW2 3668   4.134  14.413   6.248
  632SOL     OW 3669   0.756  12.563  12.377
  632SOL    HW1 3670   0.709  12.482  12.356
  632SOL    HW2 3671   0.702  12.606  12.443
  633SOL     OW 3672  14.672   2.763   3.754
  633SOL    HW1 3673  14.689   2.819   3.830
  633SOL    HW2 3674  14.634   2.821   3.689
  634SOL     OW 3675   6.388   6.326   2.464
  634SOL    HW1 3676   6.303   6.344   2.423
  634SOL    HW2 3677   6.415   6.242   2.428
  635SOL     OW 3678   9.422  13.493   1.064
  635SOL    HW1 3679   9.380  13.514   1.148
  635SOL    HW2 3680   9.486  13.563   1.051
  636SOL     OW 3681   4.526   5.228   7.197
  636SOL    HW1 3682   4.604   5.176   7.179
  636SOL    HW2 3683   4.453   5.170   7.176
  637SOL     OW 3684  13.334   8.403   0.440
  637SOL    HW1 3685  13.308   8.325   0.490
  637SOL    HW2 3686  13.404   8.442   0.492
  638SOL     OW 3687  14.035   3.386  14.506
  638SOL    HW1 3688  14.046   3.480  14.496
  638SOL    HW2 3689  13.948   3.376  14.546
  639SOL     OW 3690   6.997   9.300   1.904
  639SOL    HW1 3691   7.024   9.348   1.825
  639SOL    HW2 3692   6.940   9.360   1.951
  640SOL     OW 3693  10.507  12.654  13.618
  640SOL    HW1 3694  10.589  12.621  13.655
  640SOL    HW2 3695  10.531  12.685  13.531
  641SOL     OW 3696  11.068  13.536   0.482
  641SOL    HW1 3697  10.998  13.594   0.453
  641SOL    HW2 3698  11.048  13.518   0.574
  642SOL     OW 3699   3.227   4.648   3.899
  642SOL    HW1 3700   3.259   4.574   3.848
  642SOL    HW2 3701   3.306   4.698   3.920
  643SOL     OW 3702  12.500   0.737   1.181
  643SOL    HW1 3703  12.486   0.649   1.147
  643SOL    HW2 3704  12.590   0.736   1.214
  644SOL     OW 3705  14.137   4.151   8.733
  644SOL    HW1 3706  14.075   4.221   8.712
  644SOL    HW2 3707  14.213   4.171   8.679
  645SOL     OW 3708   8.459   0.853   7.443
  645SOL    HW1 3709   8.508   0.781   7.483
  645SOL    HW2 3710   8.369   0.841   7.474
  646SOL     OW 3711  14.362   0.323   2.182
  646SOL    HW1 3712  14.366   0.336   2.087
  646SOL    HW2 3713  14.345   0.410   2.217
  647SOL     OW 3714   5.208   4.522   9.707
  647SOL    HW1 3715   5.178   4.454   9.768
  647SOL    HW2 3716   5.302   4.529   9.723
  648SOL     OW 3717   8.250   7.921   0.350
  648SOL    HW1 3718   8.281   7.887   0.433
  648SOL    HW2 3719   8.309   7.993   0.329
  649SOL     OW 3720   6.597   2.202   7.015
  649SOL    HW1 3721   6.664   2.271   7.011
  649SOL    HW2 3722   6.516   2.245   6.986
  650SOL     OW 3723   4.927   4.587   2.257
  650SOL    HW1 3724   4.906   4.672   2.294
  650SOL    HW2 3725   4.935   4.603   2.163
  651SOL     OW 3726  12.067   8.899   5.425
  651SOL    HW1 3727  12.103   8.858   5.504
  651SOL    HW2 3728  12.137   8.892   5.360
  652SOL     OW 3729   0.942   2.911  13.084
  652SOL    HW1 3730   0.924   2.908  13.178
  652SOL    HW2 3731   0.860   2.942  13.045
  653SOL     OW 3732   9.363  12.798   6.627
  653SOL    HW1 3733   9.386  12.742   6.552
  653SOL    HW2 3734   9.426  12.774   6.695
  654SOL     OW 3735   9.314   6.700   4.997
  654SOL    HW1 3736   9.285   6.623   4.948
  654SOL    HW2 3737   9.403   6.678   5.025
  655SOL     OW 3738   3.230  13.005  14.737
  655SOL    HW1 3739   3.144  13.046  14.732
  655SOL    HW2 3740   3.277  13.054  14.804
  656SOL     OW 3741   7.225   9.121  13.919
  656SOL    HW1 3742   7.316   9.138  13.940
  656SOL    HW2 3743   7.182   9.206  13.924
  657SOL     OW 3744   8.219  12.978  13.002
  657SOL    HW1 3745   8.163  12.942  12.933
  657SOL    HW2 3746   8.174  13.058  13.030
  658SOL     OW 3747   1.651   5.680  12.425
  658SOL    HW1 3748   1.698   5.640  12.498
  658SOL    HW2 3749   1.706   5.662  12.348
  659SOL     OW 3750  13.922   1.505   4.796
  659SOL    HW1 3751  14.003   1.492   4.844
  659SOL    HW2 3752  13.918   1.432   4.734
  660SOL     OW 3753   9.014   0.256   9.134
  660SOL    HW1 3754   9.076   0.289   9.199
  660SOL    HW2 3755   8.949   0.207   9.186
  661SOL     OW 3756   2.982   2.833   8.973
  661SOL    HW1 3757   2.915   2.772   8.944
  661SOL    HW2 3758   3.000   2.808   9.063
  662SOL     OW 3759   3.946   4.666  14.023
  662SOL    HW1 3760   4.019   4.702  13.973
  662SOL    HW2 3761   3.911   4.596  13.968
  663SOL     OW 3762   9.000  12.852  12.593
  663SOL    HW1 3763   9.026  12.760  12.600
  663SOL    HW2 3764   9.059  12.898  12.653
  664SOL     OW 3765   0.937   9.079  11.770
  664SOL    HW1 3766   0.970   9.068  11.680
  664SOL    HW2 3767   1.000   9.138  11.811
  665SOL     OW 3768   6.034   7.982  10.541
  665SOL    HW1 3769   6.067   7.893  10.548
  665SOL    HW2 3770   5.953   7.975  10.491
  666SOL     OW 3771   6.367   2.671  14.217
  666SOL    HW1 3772   6.385   2.714  14.133
  666SOL    HW2 3773   6.443   2.616  14.232
  667SOL     OW 3774   6.590  10.345  12.684
  667SOL    HW1 3775   6.607  10.386  12.599
  667SOL    HW2 3776   6.667  10.291  12.700
  668SOL     OW 3777   5.709   6.653   1.283
  668SOL    HW1 3778   5.735   6.742   1.261
  668SOL    HW2 3779   5.717   6.604   1.202
  669SOL     OW 3780   6.647   0.099   6.825
  669SOL    HW1 3781   6.738   0.088   6.855
  669SOL    HW2 3782   6.628   0.191   6.840
  670SOL     OW 3783   0.970  11.049   1.040
  670SOL    HW1 3784   0.957  11.138   1.007
  670SOL    HW2 3785   0.998  10.999   0.963
  671SOL     OW 3786  13.391  10.820   4.729
  671SOL    HW1 3787  13.407  10.912   4.710
  671SOL    HW2 3788  13.319  10.795   4.671
  672SOL     OW 3789  11.318  10.277   3.479
  672SOL    HW1 3790  11.344  10.338   3.409
  672SOL    HW2 3791  11.401  10.242   3.512
  673SOL     OW 3792  13.365   5.656   6.289
  673SOL    HW1 3793  13.360   5.561   6.297
  673SOL    HW2 3794  13.308   5.678   6.215
  674SOL     OW 3795   9.477  14.537   2.622
  674SOL    HW1 3796   9.511  14.592   2.551
  674SOL    HW2 3797   9.467  14.450   2.582
  675SOL     OW 3798   2.233   3.153   6.150
  675SOL    HW1 3799   2.302   3.101   6.108
  675SOL    HW2 3800   2.154   3.100   6.139
  676SOL     OW 3801   7.756  12.514  11.618
  676SOL    HW1 3802   7.818  12.563  11.672
  676SOL    HW2 3803   7.800  12.504  11.534
  677SOL     OW 3804  13.054   7.312   9.944
  677SOL    HW1 3805  13.059   7.322  10.039
  677SOL    HW2 3806  12.975   7.359   9.919
  678SOL     OW 3807  11.296   9.609   9.055
  678SOL    HW1 3808  11.229   9.654   9.004
  678SOL    HW2 3809  11.308   9.526   9.010
  679SOL     OW 3810  14.733  12.261   9.446
  679SOL    HW1 3811  14.654  12.227   9.487
  679SOL    HW2 3812  14.701  12.308   9.369
  680SOL     OW 3813   9.208  11.781   4.218
  680SOL    HW1 3814   9.153  11.750   4.290
  680SOL    HW2 3815   9.248  11.861   4.251
  681SOL     OW 3816   9.489   9.422   1.605
  681SOL    HW1 3817   9.483   9.360   1.533
  681SOL    HW2 3818   9.399   9.436   1.633
  682SOL     OW 3819  14.398   4.683   5.787
  682SOL    HW1 3820  14.349   4.695   5.868
  682SOL    HW2 3821  14.454   4.760   5.781
  683SOL     OW 3822   2.729   3.169   7.337
  683SOL    HW1 3823   2.816   3.136   7.315
  683SOL    HW2 3824   2.702   3.116   7.412
  684SOL     OW 3825   7.033  13.974  13.595
  684SOL    HW1 3826   6.946  14.005  13.569
  684SOL    HW2 3827   7.078  13.957  13.512
  685SOL     OW 3828   8.587  11.957   2.438
  685SOL    HW1 3829   8.578  12.049   2.416
  685SOL    HW2 3830   8.682  11.941   2.435
  686SOL     OW 3831   0.791  10.791   4.741
  686SOL    HW1 3832   0.848  10.824   4.672
  686SOL    HW2 3833   0.711  10.842   4.732
  687SOL     OW 3834   3.365   2.812   9.321
  687SOL    HW1 3835   3.338   2.756   9.394
  687SOL    HW2 3836   3.457   2.791   9.308
  688SOL     OW 3837   6.439  11.359   9.954
  688SOL    HW1 3838   6.438  11.315   9.869
  688SOL    HW2 3839   6.419  11.290  10.017
  689SOL     OW 3840   6.311   6.087   7.380
  689SOL    HW1 3841   6.249   6.042   7.438
  689SOL    HW2 3842   6.384   6.026   7.370
  690SOL     OW 3843   5.425   6.869   1.289
  690SOL    HW1 3844   5.406   6.847   1.381
  690SOL    HW2 3845   5.517   6.847   1.277
  691SOL     OW 3846   7.322  13.330  13.661
  691SOL    HW1 3847   7.264  13.339  13.585
  691SOL    HW2 3848   7.407  13.306  13.624
  692SOL     OW 3849   4.966  10.219  12.473
  692SOL    HW1 3850   4.910  10.248  12.401
  692SOL    HW2 3851   5.011  10.298  12.503
  693SOL     OW 3852   5.303   8.537  12.843
  693SOL    HW1 3853   5.284   8.576  12.929
  693SOL    HW2 3854   5.237   8.469  12.833
  694SOL     OW 3855  10.960   9.420   0.023
  694SOL    HW1 3856  10.899   9.419  14.827
  694SOL    HW2 3857  11.014   9.342   0.012
  695SOL     OW 3858  10.944   9.630   8.808
  695SOL    HW1 3859  10.976   9.670   8.889
  695SOL    HW2 3860  10.972   9.538   8.814
  696SOL     OW 3861   8.684   5.830   1.634
  696SOL    HW1 3862   8.710   5.754   1.581
  696SOL    HW2 3863   8.748   5.897   1.611
  697SOL     OW 3864  13.264  13.861   1.288
  697SOL    HW1 3865  13.238  13.948   1.317
  697SOL    HW2 3866  13.222  13.802   1.351
  698SOL     OW 3867  14.368   4.700   4.668
  698SOL    HW1 3868  14.454   4.660   4.650
  698SOL    HW2 3869  14.336   4.728   4.582
  699SOL     OW 3870   5.696   7.026   2.420
  699SOL    HW1 3871   5.780   6.981   2.426
  699SOL    HW2 3872   5.635   6.959   2.389
  700SOL     OW 3873  11.018   0.974   9.537
  700SOL    HW1 3874  11.048   0.884   9.547
  700SOL    HW2 3875  11.088   1.018   9.489
  701SOL     OW 3876  10.560   6.510   3.029
  701SOL    HW1 3877  10.600   6.597   3.035
  701SOL    HW2 3878  10.511   6.501   3.111
  702SOL     OW 3879   1.615   2.692   2.699
  702SOL    HW1 3880   1.594   2.599   2.694
  702SOL    HW2 3881   1.548   2.729   2.757
  703SOL     OW 3882  12.514  12.479   1.435
  703SOL    HW1 3883  12.501  12.525   1.518
  703SOL    HW2 3884  12.600  12.438   1.444
  704SOL     OW 3885   7.313  11.478  14.847
  704SOL    HW1 3886   7.246  11.411  14.830
  704SOL    HW2 3887   7.335  11.467   0.062
  705SOL     OW 3888  11.059   3.059   5.826
  705SOL    HW1 3889  11.081   3.143   5.867
  705SOL    HW2 3890  11.144   3.018   5.809
  706SOL     OW 3891   4.514   5.801   5.930
  706SOL    HW1 3892   4.443   5.860   5.904
  706SOL    HW2 3893   4.579   5.858   5.970
  707SOL     OW 3894   7.574   2.407   9.468
  707SOL    HW1 3895   7.628   2.481   9.496
  707SOL    HW2 3896   7.625   2.366   9.398
  708SOL     OW 3897   3.427   7.021  11.638
  708SOL    HW1 3898   3.396   6.978  11.559
  708SOL    HW2 3899   3.356   7.078  11.665
  709SOL     OW 3900  13.073   8.676   2.324
  709SOL    HW1 3901  13.038   8.622   2.253
  709SOL    HW2 3902  13.007   8.669   2.394
  710SOL     OW 3903   6.620   9.531   6.601
  710SOL    HW1 3904   6.617   9.494   6.689
  710SOL    HW2 3905   6.588   9.461   6.544
  711SOL     OW 3906   0.420   1.448   6.544
  711SOL    HW1 3907   0.378   1.391   6.480
  711SOL    HW2 3908   0.482   1.500   6.492
  712SOL     OW 3909   9.141   4.868  14.734
  712SOL    HW1 3910   9.099   4.809  14.672
  712SOL    HW2 3911   9.139   4.821  14.817
  713SOL     OW 3912   7.152   4.988   3.286
  713SOL    HW1 3913   7.096   4.915   3.314
  713SOL    HW2 3914   7.120   5.011   3.199
  714SOL     OW 3915   7.342  13.071   5.732
  714SOL    HW1 3916   7.379  13.158   5.723
  714SOL    HW2 3917   7.320  13.045   5.642
  715SOL     OW 3918   4.439  10.755   5.045
  715SOL    HW1 3919   4.438  10.809   5.125
  715SOL    HW2 3920   4.370  10.691   5.059
  716SOL     OW 3921   7.437   9.246   5.996
  716SOL    HW1 3922   7.479   9.331   6.012
  716SOL    HW2 3923   7.401   9.221   6.081
  717SOL     OW 3924   8.784   7.035   4.206
  717SOL    HW1 3925   8.847   7.038   4.278
  717SOL    HW2 3926   8.833   6.999   4.132
  718SOL     OW 3927   4.728   3.724  14.128
  718SOL    HW1 3928   4.750   3.755  14.216
  718SOL    HW2 3929   4.704   3.803  14.080
  719SOL     OW 3930   3.846  12.684   7.413
  719SOL    HW1 3931   3.858  12.590   7.424
  719SOL    HW2 3932   3.898  12.723   7.484
  720SOL     OW 3933  11.513  12.379  11.320
  720SOL    HW1 3934  11.469  12.298  11.348
  720SOL    HW2 3935  11.447  12.447  11.329
  721SOL     OW 3936   5.444   1.222  14.061
  721SOL    HW1 3937   5.462   1.151  14.122
  721SOL    HW2 3938   5.396   1.180  13.989
  722SOL     OW 3939   5.992  14.050   5.071
  722SOL    HW1 3940   6.082  14.061   5.103
  722SOL    HW2 3941   5.942  14.025   5.149
  723SOL     OW 3942  13.439  14.506   8.896
  723SOL    HW1 3943  13.391  14.467   8.969
  723SOL    HW2 3944  13.517  14.544   8.935
  724SOL     OW 3945   4.013   8.951   3.713
  724SOL    HW1 3946   4.010   9.034   3.666
  724SOL    HW2 3947   4.064   8.893   3.656
  725SOL     OW 3948   1.098   6.459   9.096
  725SOL    HW1 3949   1.099   6.414   9.180
  725SOL    HW2 3950   1.005   6.476   9.078
  726SOL     OW 3951   9.157  12.779   9.722
  726SOL    HW1 3952   9.244  12.740   9.729
  726SOL    HW2 3953   9.099  12.705   9.705
  727SOL     OW 3954   9.383   8.500  13.176
  727SOL    HW1 3955   9.304   8.550  13.156
  727SOL    HW2 3956   9.361   8.410  13.155
  728SOL     OW 3957  12.425   3.853   0.650
  728SOL    HW1 3958  12.439   3.947   0.636
  728SOL    HW2 3959  12.334   3.838   0.627
  729SOL     OW 3960   2.030  10.167   0.310
  729SOL    HW1 3961   1.968  10.165   0.238
  729SOL    HW2 3962   1.995  10.232   0.371
  730SOL     OW 3963  14.149   7.992  12.322
  730SOL    HW1 3964  14.098   7.923  12.366
  730SOL    HW2 3965  14.096   8.071  12.334
  731SOL     OW 3966   4.383   0.752  10.905
  731SOL    HW1 3967   4.379   0.847  10.901
  731SOL    HW2 3968   4.402   0.724  10.816
  732SOL     OW 3969   5.521  13.665   5.685
  732SOL    HW1 3970   5.581  13.590   5.684
  732SOL    HW2 3971   5.490  13.669   5.776
  733SOL     OW 3972  14.422   2.372   6.216
  733SOL    HW1 3973  14.464   2.296   6.254
  733SOL    HW2 3974  14.355   2.397   6.279
  734SOL     OW 3975   4.207   9.044  10.727
  734SOL    HW1 3976   4.123   9.089  10.727
  734SOL    HW2 3977   4.193   8.967  10.672
  735SOL     OW 3978  10.088   0.116  11.441
  735SOL    HW1 3979  10.005   0.070  11.428
  735SOL    HW2 3980  10.070   0.206  11.414
  736SOL     OW 3981   8.592  14.432   3.988
  736SOL    HW1 3982   8.514  14.403   3.941
  736SOL    HW2 3983   8.568  14.429   4.080
  737SOL     OW 3984   7.514   0.652   6.931
  737SOL    HW1 3985   7.493   0.736   6.972
  737SOL    HW2 3986   7.607   0.640   6.948
  738SOL     OW 3987   7.420   5.259  14.572
  738SOL    HW1 3988   7.408   5.165  14.579
  738SOL    HW2 3989   7.337   5.291  14.537
  739SOL     OW 3990   4.825   7.310  11.814
  739SOL    HW1 3991   4.800   7.223  11.846
  739SOL    HW2 3992   4.747   7.343  11.770
  740SOL     OW 3993   0.127   2.590   2.322
  740SOL    HW1 3994   0.199   2.653   2.325
  740SOL    HW2 3995   0.076   2.607   2.401
  741SOL     OW 3996  12.748   6.861   7.304
  741SOL    HW1 3997  12.678   6.796   7.301
  741SOL    HW2 3998  12.708   6.942   7.273
  742SOL     OW 3999   8.969   4.185  13.524
  742SOL    HW1 4000   9.039   4.235  13.565
  742SOL    HW2 4001   8.890   4.237  13.539
  743SOL     OW 4002   2.274  13.127   7.150
  743SOL    HW1 4003   2.320  13.060   7.199
  743SOL    HW2 4004   2.311  13.123   7.062
  744SOL     OW 4005   7.526  11.113  11.868
  744SOL    HW1 4006   7.517  11.148  11.780
  744SOL    HW2 4007   7.620  11.106  11.882
  745SOL     OW 4008   7.841  11.412  13.876
  745SOL    HW1 4009   7.926  11.397  13.919
  745SOL    HW2 4010   7.857  11.390  13.784
  746SOL     OW 4011  11.728   1.577   4.351
  746SOL    HW1 4012  11.646   1.542   4.315
  746SOL    HW2 4013  11.795   1.514   4.324
  747SOL     OW 4014   7.989   0.787   3.989
  747SOL    HW1 4015   7.907   0.830   3.965
  747SOL    HW2 4016   8.005   0.814   4.079
  748SOL     OW 4017  14.680  11.583   2.634
  748SOL    HW1 4018  14.736  11.513   2.599
  748SOL    HW2 4019  14.591  11.553   2.620
  749SOL     OW 4020  14.590   9.321   4.426
  749SOL    HW1 4021  14.542   9.403   4.437
  749SOL    HW2 4022  14.543   9.259   4.482
  750SOL     OW 4023  12.571  12.000   0.212
  750SOL    HW1 4024  12.490  12.016   0.261
  750SOL    HW2 4025  12.639  12.046   0.260
  751SOL     OW 4026   6.615  13.963  10.258
  751SOL    HW1 4027   6.539  13.974  10.315
  751SOL    HW2 4028   6.618  13.869  10.240
  752SOL     OW 4029   6.780   0.718   4.963
  752SOL    HW1 4030   6.706   0.690   4.910
  752SOL    HW2 4031   6.848   0.740   4.899
  753SOL     OW 4032   8.572   9.687   1.629
  753SOL    HW1 4033   8.644   9.714   1.573
  753SOL    HW2 4034   8.579   9.592   1.634
  754SOL     OW 4035   2.476   8.895   4.012
  754SOL    HW1 4036   2.445   8.838   3.941
  754SOL    HW2 4037   2.525   8.836   4.070
  755SOL     OW 4038  14.107   1.541   3.129
  755SOL    HW1 4039  14.033   1.493   3.165
  755SOL    HW2 4040  14.112   1.621   3.182
  756SOL     OW 4041   7.995   2.544   3.891
  756SOL    HW1 4042   7.941   2.540   3.812
  756SOL    HW2 4043   7.992   2.636   3.917
  757SOL     OW 4044  12.510  14.703  12.606
  757SOL    HW1 4045  12.463  14.679  12.686
  757SOL    HW2 4046  12.574  14.769  12.635
  758SOL     OW 4047   2.974  11.601  14.383
  758SOL    HW1 4048   3.021  11.667  14.332
  758SOL    HW2 4049   2.922  11.553  14.317
  759SOL     OW 4050   8.743   6.050  11.864
  759SOL    HW1 4051   8.746   6.136  11.823
  759SOL    HW2 4052   8.832   6.036  11.896
  760SOL     OW 4053   1.387   3.058   0.916
  760SOL    HW1 4054   1.479   3.034   0.923
  760SOL    HW2 4055   1.372   3.072   0.823
  761SOL     OW 4056   3.607  14.505   6.555
  761SOL    HW1 4057   3.642  14.507   6.466
  761SOL    HW2 4058   3.524  14.552   6.549
  762SOL     OW 4059   6.642   6.151   3.519
  762SOL    HW1 4060   6.648   6.182   3.609
  762SOL    HW2 4061   6.719   6.095   3.507
  763SOL     OW 4062   9.087   0.286   2.899
  763SOL    HW1 4063   9.160   0.264   2.840
  763SOL    HW2 4064   9.092   0.381   2.908
  764SOL     OW 4065   3.504  11.197   0.869
  764SOL    HW1 4066   3.559  11.196   0.947
  764SOL    HW2 4067   3.415  11.186   0.902
  765SOL     OW 4068   2.894  11.645   4.942
  765SOL    HW1 4069   2.969  11.638   4.884
  765SOL    HW2 4070   2.820  11.613   4.890
  766SOL     OW 4071  10.316   2.276  14.609
  766SOL    HW1 4072  10.305   2.182  14.593
  766SOL    HW2 4073  10.287   2.289  14.699
  767SOL     OW 4074   5.202   4.025  13.660
  767SOL    HW1 4075   5.270   3.973  13.702
  767SOL    HW2 4076   5.246   4.105  13.632
  768SOL     OW 4077   9.048   5.980  14.622
  768SOL    HW1 4078   9.097   5.901  14.646
  768SOL    HW2 4079   9.031   6.024  14.705
  769SOL     OW 4080   8.758  14.839   6.122
  769SOL    HW1 4081   8.682  14.781   6.115
  769SOL    HW2 4082   8.826  14.796   6.070
  770SOL     OW 4083   3.292  11.823  12.532
  770SOL    HW1 4084   3.310  11.917  12.532
  770SOL    HW2 4085   3.363  11.785  12.480
  771SOL     OW 4086  12.568   6.470   5.465
  771SOL    HW1 4087  12.639   6.489   5.404
  771SOL    HW2 4088  12.564   6.547   5.522
  772SOL     OW 4089   5.724  10.758  13.332
  772SOL    HW1 4090   5.672  10.781  13.409
  772SOL    HW2 4091   5.720  10.663  13.327
  773SOL     OW 4092  12.793  11.447   6.331
  773SOL    HW1 4093  12.708  11.483   6.305
  773SOL    HW2 4094  12.818  11.498   6.407
  774SOL     OW 4095   8.539   5.762  12.875
  774SOL    HW1 4096   8.623   5.725  12.849
  774SOL    HW2 4097   8.484   5.753  12.797
  775SOL     OW 4098   0.346  12.267  12.876
  775SOL    HW1 4099   0.392  12.291  12.957
  775SOL    HW2 4100   0.405  12.295  12.806
  776SOL     OW 4101  11.314  13.719  14.362
  776SOL    HW1 4102  11.266  13.759  14.434
  776SOL    HW2 4103  11.263  13.642  14.338
  777SOL     OW 4104   9.228  14.187   4.692
  777SOL    HW1 4105   9.301  14.157   4.639
  777SOL    HW2 4106   9.180  14.108   4.715
  778SOL     OW 4107  10.570  10.040   4.567
  778SOL    HW1 4108  10.595  10.067   4.655
  778SOL    HW2 4109  10.479  10.070   4.558
  779SOL     OW 4110   1.724   4.770   3.155
  779SOL    HW1 4111   1.740   4.685   3.196
  779SOL    HW2 4112   1.739   4.754   3.062
  780SOL     OW 4113   0.628   5.141   7.162
  780SOL    HW1 4114   0.610   5.064   7.108
  780SOL    HW2 4115   0.702   5.183   7.118
  781SOL     OW 4116   5.277  10.766  13.987
  781SOL    HW1 4117   5.226  10.845  14.005
  781SOL    HW2 4118   5.214  10.695  13.992
  782SOL     OW 4119   6.369   9.880  12.429
  782SOL    HW1 4120   6.291   9.830  12.450
  782SOL    HW2 4121   6.366   9.892  12.334
  783SOL     OW 4122  14.007   3.167  14.022
  783SOL    HW1 4123  14.009   3.202  14.112
  783SOL    HW2 4124  14.098   3.170  13.994
  784SOL     OW 4125   6.616   0.686  11.274
  784SOL    HW1 4126   6.587   0.777  11.266
  784SOL    HW2 4127   6.567   0.652  11.349
  785SOL     OW 4128  14.541  13.154   8.667
  785SOL    HW1 4129  14.561  13.127   8.577
  785SOL    HW2 4130  14.446  13.158   8.671
  786SOL     OW 4131  10.222   0.594   3.125
  786SOL    HW1 4132  10.213   0.678   3.170
  786SOL    HW2 4133  10.134   0.576   3.092
  787SOL     OW 4134  10.099  14.198   8.334
  787SOL    HW1 4135  10.058  14.153   8.409
  787SOL    HW2 4136  10.163  14.135   8.301
  788SOL     OW 4137   1.304   4.307   8.893
  788SOL    HW1 4138   1.269   4.326   8.980
  788SOL    HW2 4139   1.346   4.389   8.866
  789SOL     OW 4140  10.406   7.662  12.602
  789SOL    HW1 4141  10.490   7.700  12.629
  789SOL    HW2 4142  10.343   7.733  12.612
  790SOL     OW 4143  11.899   8.086   3.864
  790SOL    HW1 4144  11.828   8.120   3.918
  790SOL    HW2 4145  11.921   8.158   3.805
  791SOL     OW 4146   8.583   0.174   8.416
  791SOL    HW1 4147   8.620   0.129   8.340
  791SOL    HW2 4148   8.550   0.257   8.381
  792SOL     OW 4149  10.182   9.692   1.046
  792SOL    HW1 4150  10.270   9.658   1.028
  792SOL    HW2 4151  10.144   9.628   1.107
  793SOL     OW 4152   0.999   8.177   4.906
  793SOL    HW1 4153   0.983   8.153   4.815
  793SOL    HW2 4154   1.091   8.205   4.907
  794SOL     OW 4155   7.533   9.583   3.627
  794SOL    HW1 4156   7.592   9.523   3.673
  794SOL    HW2 4157   7.452   9.534   3.618
  795SOL     OW 4158   2.675  14.405  12.709
  795SOL    HW1 4159   2.750  14.438  12.659
  795SOL    HW2 4160   2.621  14.483  12.725
  796SOL     OW 4161   7.549   0.911  11.462
  796SOL    HW1 4162   7.556   0.926  11.368
  796SOL    HW2 4163   7.558   0.816  11.472
  797SOL     OW 4164  12.631  11.441   8.974
  797SOL    HW1 4165  12.692  11.375   9.006
  797SOL    HW2 4166  12.560  11.440   9.039
  798SOL     OW 4167   3.766   2.690   7.883
  798SOL    HW1 4168   3.764   2.636   7.803
  798SOL    HW2 4169   3.798   2.631   7.951
  799SOL     OW 4170  12.028  14.507   6.047
  799SOL    HW1 4171  11.933  14.504   6.051
  799SOL    HW2 4172  12.054  14.560   6.123
  800SOL     OW 4173   7.803   8.372  11.604
  800SOL    HW1 4174   7.771   8.360  11.515
  800SOL    HW2 4175   7.863   8.299  11.618
  801SOL     OW 4176  10.594  10.631  14.381
  801SOL    HW1 4177  10.516  10.627  14.436
  801SOL    HW2 4178  10.561  10.628  14.291
  802SOL     OW 4179   6.406  11.599  11.946
  802SOL    HW1 4180   6.479  11.660  11.948
  802SOL    HW2 4181   6.366  11.606  12.032
  803SOL     OW 4182  13.606  14.328   9.834
  803SOL    HW1 4183  13.673  14.363   9.892
  803SOL    HW2 4184  13.617  14.376   9.752
  804SOL     OW 4185   7.644  12.156  10.920
  804SOL    HW1 4186   7.610  12.219  10.983
  804SOL    HW2 4187   7.734  12.184  10.904
  805SOL     OW 4188   6.787   3.561  11.339
  805SOL    HW1 4189   6.761   3.490  11.280
  805SOL    HW2 4190   6.815   3.631  11.281
  806SOL     OW 4191   4.776  12.818   0.058
  806SOL    HW1 4192   4.854  12.796   0.109
  806SOL    HW2 4193   4.782  12.764  14.857
  807SOL     OW 4194  14.580   3.980   2.008
  807SOL    HW1 4195  14.646   4.044   1.980
  807SOL    HW2 4196  14.608   3.897   1.969
  808SOL     OW 4197   6.059   9.101   4.174
  808SOL    HW1 4198   6.043   9.011   4.203
  808SOL    HW2 4199   6.058   9.096   4.079
  809SOL     OW 4200   2.125   9.403  10.284
  809SOL    HW1 4201   2.190   9.443  10.226
  809SOL    HW2 4202   2.128   9.310  10.263
  810SOL     OW 4203   7.823   1.295   3.715
  810SOL    HW1 4204   7.778   1.312   3.798
  810SOL    HW2 4205   7.775   1.221   3.677
  811SOL     OW 4206   5.211   0.521   3.302
  811SOL    HW1 4207   5.282   0.526   3.239
  811SOL    HW2 4208   5.153   0.593   3.278
  812SOL     OW 4209   3.728   6.539   1.056
  812SOL    HW1 4210   3.716   6.447   1.078
  812SOL    HW2 4211   3.708   6.544   0.963
  813SOL     OW 4212  12.622   0.648  14.552
  813SOL    HW1 4213  12.645   0.741  14.560
  813SOL    HW2 4214  12.555   0.646  14.483
  814SOL     OW 4215   3.748   6.691   9.827
  814SOL    HW1 4216   3.694   6.653   9.897
  814SOL    HW2 4217   3.764   6.618   9.767
  815SOL     OW 4218   0.959   5.695   1.582
  815SOL    HW1 4219   0.977   5.758   1.652
  815SOL    HW2 4220   0.872   5.719   1.549
  816SOL     OW 4221   3.817   4.046  12.807
  816SOL    HW1 4222   3.797   3.953  12.814
  816SOL    HW2 4223   3.762   4.087  12.873
  817SOL     OW 4224   6.202   3.444   5.192
  817SOL    HW1 4225   6.296   3.436   5.177
  817SOL    HW2 4226   6.184   3.385   5.265
  818SOL     OW 4227   1.815   8.592   1.662
  818SOL    HW1 4228   1.820   8.673   1.713
  818SOL    HW2 4229   1.802   8.524   1.728
  819SOL     OW 4230   2.407   4.705   1.543
  819SOL    HW1 4231   2.420   4.680   1.635
  819SOL    HW2 4232   2.330   4.761   1.544
  820SOL     OW 4233  11.174  13.280   3.924
  820SOL    HW1 4234  11.163  13.218   3.996
  820SOL    HW2 4235  11.268  13.299   3.922
  821SOL     OW 4236  13.819   0.360  11.373
  821SOL    HW1 4237  13.890   0.346  11.310
  821SOL    HW2 4238  13.740   0.329  11.329
  822SOL     OW 4239  13.587   9.409   5.020
  822SOL    HW1 4240  13.585   9.347   4.947
  822SOL    HW2 4241  13.538   9.365   5.090
  823SOL     OW 4242   5.391   8.347   7.951
  823SOL    HW1 4243   5.353   8.434   7.940
  823SOL    HW2 4244   5.317   8.289   7.966
  824SOL     OW 4245   5.202   7.687   0.707
  824SOL    HW1 4246   5.295   7.674   0.691
  824SOL    HW2 4247   5.177   7.756   0.645
  825SOL     OW 4248  12.490  12.795   4.292
  825SOL    HW1 4249  12.565  12.854   4.303
  825SOL    HW2 4250  12.429  12.843   4.237
  826SOL     OW 4251  10.563   3.313   2.028
  826SOL    HW1 4252  10.563   3.407   2.013
  826SOL    HW2 4253  10.470   3.289   2.028
  827SOL     OW 4254   8.782   2.158  11.139
  827SOL    HW1 4255   8.737   2.211  11.073
  827SOL    HW2 4256   8.848   2.108  11.089
  828SOL     OW 4257   0.737   0.264   7.485
  828SOL    HW1 4258   0.669   0.198   7.499
  828SOL    HW2 4259   0.808   0.216   7.442
  829SOL     OW 4260   1.397  12.095   2.856
  829SOL    HW1 4261   1.335  12.149   2.905
  829SOL    HW2 4262   1.349  12.065   2.780
  830SOL     OW 4263   1.230   2.840   0.628
  830SOL    HW1 4264   1.139   2.863   0.649
  830SOL    HW2 4265   1.226   2.746   0.610
  831SOL     OW 4266   9.814  14.385  14.271
  831SOL    HW1 4267   9.736  14.435  14.294
  831SOL    HW2 4268   9.783  14.295  14.262
  832SOL     OW 4269   9.872   8.008  14.043
  832SOL    HW1 4270   9.892   8.068  13.970
  832SOL    HW2 4271   9.825   7.936  14.002
  833SOL     OW 4272   1.332   9.905  13.950
  833SOL    HW1 4273   1.409   9.944  13.992
  833SOL    HW2 4274   1.267   9.975  13.948
  834SOL     OW 4275   9.795   4.431   2.873
  834SOL    HW1 4276   9.811   4.501   2.937
  834SOL    HW2 4277   9.872   4.432   2.817
  835SOL     OW 4278   6.914   8.050   5.563
  835SOL    HW1 4279   6.894   7.967   5.519
  835SOL    HW2 4280   6.947   8.024   5.649
  836SOL     OW 4281   7.164   7.740  12.716
  836SOL    HW1 4282   7.160   7.679  12.642
  836SOL    HW2 4283   7.258   7.757  12.727
  837SOL     OW 4284   5.124   9.163   5.320
  837SOL    HW1 4285   5.120   9.219   5.397
  837SOL    HW2 4286   5.144   9.223   5.248
  838SOL     OW 4287   7.785   4.894  14.459
  838SOL    HW1 4288   7.696   4.861  14.465
  838SOL    HW2 4289   7.778   4.988  14.477
  839SOL     OW 4290   6.689   6.787   2.011
  839SOL    HW1 4291   6.759   6.764   1.950
  839SOL    HW2 4292   6.612   6.801   1.955
  840SOL     OW 4293   9.213   6.303  13.015
  840SOL    HW1 4294   9.276   6.373  12.998
  840SOL    HW2 4295   9.223   6.283  13.108
  841SOL     OW 4296   3.482  11.386   4.691
  841SOL    HW1 4297   3.567  11.416   4.661
  841SOL    HW2 4298   3.501  11.309   4.744
  842SOL     OW 4299   0.653   7.697   6.905
  842SOL    HW1 4300   0.742   7.731   6.892
  842SOL    HW2 4301   0.666   7.614   6.951
  843SOL     OW 4302   2.670  14.414  13.100
  843SOL    HW1 4303   2.686  14.321  13.081
  843SOL    HW2 4304   2.624  14.414  13.184
  844SOL     OW 4305   6.780  11.818   4.983
  844SOL    HW1 4306   6.750  11.729   4.963
  844SOL    HW2 4307   6.831  11.844   4.907
  845SOL     OW 4308  10.994   6.972  12.940
  845SOL    HW1 4309  10.958   6.929  13.017
  845SOL    HW2 4310  10.951   7.058  12.938
  846SOL     OW 4311   0.386   9.389   2.044
  846SOL    HW1 4312   0.407   9.418   2.133
  846SOL    HW2 4313   0.312   9.444   2.018
  847SOL     OW 4314   3.291  11.192   1.900
  847SOL    HW1 4315   3.342  11.121   1.862
  847SOL    HW2 4316   3.342  11.271   1.883
  848SOL     OW 4317   2.748   7.072  14.281
  848SOL    HW1 4318   2.760   7.048  14.189
  848SOL    HW2 4319   2.782   6.997  14.330
  849SOL     OW 4320  11.586  14.179   8.314
  849SOL    HW1 4321  11.607  14.131   8.393
  849SOL    HW2 4322  11.579  14.112   8.246
  850SOL     OW 4323   2.676  10.405  12.167
  850SOL    HW1 4324   2.721  10.329  12.205
  850SOL    HW2 4325   2.747  10.461  12.135
  851SOL     OW 4326   2.197   2.132   0.405
  851SOL    HW1 4327   2.276   2.186   0.400
  851SOL    HW2 4328   2.215   2.056   0.350
  852SOL     OW 4329   8.193   8.835   7.311
  852SOL    HW1 4330   8.104   8.841   7.276
  852SOL    HW2 4331   8.248   8.874   7.244
  853SOL     OW 4332   8.275   6.954  12.273
  853SOL    HW1 4333   8.326   7.035  12.270
  853SOL    HW2 4334   8.295   6.909  12.191
  854SOL     OW 4335  11.728   5.684  14.402
  854SOL    HW1 4336  11.785   5.608  14.390
  854SOL    HW2 4337  11.679   5.691  14.320
  855SOL     OW 4338   6.782   0.742   2.137
  855SOL    HW1 4339   6.745   0.661   2.171
  855SOL    HW2 4340   6.731   0.812   2.179
  856SOL     OW 4341   1.084  11.067   9.330
  856SOL    HW1 4342   1.012  11.096   9.386
  856SOL    HW2 4343   1.056  10.982   9.297
  857SOL     OW 4344  10.089   5.505   2.276
  857SOL    HW1 4345  10.017   5.541   2.328
  857SOL    HW2 4346  10.076   5.410   2.280
  858SOL     OW 4347  12.871  14.850  12.457
  858SOL    HW1 4348  12.907   0.050  12.414
  858SOL    HW2 4349  12.947  14.806  12.495
  859SOL     OW 4350  14.104  14.028  10.274
  859SOL    HW1 4351  14.169  14.077  10.325
  859SOL    HW2 4352  14.102  13.942  10.315
  860SOL     OW 4353  11.100   9.533   5.957
  860SOL    HW1 4354  11.106   9.596   5.885
  860SOL    HW2 4355  11.191   9.515   5.981
  861SOL     OW 4356   6.992   6.193   0.419
  861SOL    HW1 4357   6.988   6.123   0.353
  861SOL    HW2 4358   7.036   6.266   0.374
  862SOL     OW 4359   1.956  12.029  12.518
  862SOL    HW1 4360   1.950  12.115  12.477
  862SOL    HW2 4361   1.951  12.048  12.612
  863SOL     OW 4362   5.328   4.214   5.356
  863SOL    HW1 4363   5.371   4.218   5.442
  863SOL    HW2 4364   5.299   4.304   5.339
  864SOL     OW 4365   3.530   1.972  12.370
  864SOL    HW1 4366   3.554   2.057  12.407
  864SOL    HW2 4367   3.593   1.910  12.408
  865SOL     OW 4368   6.787   6.711  10.582
  865SOL    HW1 4369   6.853   6.752  10.526
  865SOL    HW2 4370   6.795   6.755  10.666
  866SOL     OW 4371  12.647   2.424  12.120
  866SOL    HW1 4372  12.673   2.467  12.038
  866SOL    HW2 4373  12.657   2.330  12.102
  867SOL     OW 4374   9.626   7.554   3.590
  867SOL    HW1 4375   9.633   7.630   3.531
  867SOL    HW2 4376   9.561   7.580   3.655
  868SOL     OW 4377   5.498  12.615  11.899
  868SOL    HW1 4378   5.418  12.665  11.888
  868SOL    HW2 4379   5.476  12.526  11.872
  869SOL     OW 4380   1.842   1.743   5.422
  869SOL    HW1 4381   1.845   1.817   5.361
  869SOL    HW2 4382   1.867   1.781   5.507
  870SOL     OW 4383  14.658  12.356  10.014
  870SOL    HW1 4384  14.693  12.356  10.103
  870SOL    HW2 4385  14.707  12.288   9.969
  871SOL     OW 4386   2.473   9.458  13.341
  871SOL    HW1 4387   2.386   9.438  13.306
  871SOL    HW2 4388   2.531   9.397  13.295
  872SOL     OW 4389   7.853   5.909   8.045
  872SOL    HW1 4390   7.846   5.852   7.968
  872SOL    HW2 4391   7.856   5.849   8.119
  873SOL     OW 4392   6.902   0.408   6.021
  873SOL    HW1 4393   6.841   0.361   5.965
  873SOL    HW2 4394   6.875   0.500   6.013
  874SOL     OW 4395   5.660   7.973   3.825
  874SOL    HW1 4396   5.636   8.013   3.908
  874SOL    HW2 4397   5.634   7.881   3.834
  875SOL     OW 4398   3.306  13.939   6.730
  875SOL    HW1 4399   3.369  13.966   6.797
  875SOL    HW2 4400   3.329  13.991   6.653
  876SOL     OW 4401   2.143   5.895   3.093
  876SOL    HW1 4402   2.078   5.966   3.099
  876SOL    HW2 4403   2.187   5.896   3.178
  877SOL     OW 4404   0.127   7.351   8.715
  877SOL    HW1 4405   0.048   7.298   8.706
  877SOL    HW2 4406   0.159   7.331   8.803
  878SOL     OW 4407   5.559   7.931   7.243
  878SOL    HW1 4408   5.640   7.982   7.248
  878SOL    HW2 4409   5.494   7.985   7.289
  879SOL     OW 4410   8.353   3.296  11.484
  879SOL    HW1 4411   8.282   3.252  11.531
  879SOL    HW2 4412   8.334   3.389  11.492
  880SOL     OW 4413   7.389  12.523   0.102
  880SOL    HW1 4414   7.476  12.485   0.098
  880SOL    HW2 4415   7.341  12.467   0.163
  881SOL     OW 4416   4.027  14.464   3.374
  881SOL    HW1 4417   4.057  14.553   3.354
  881SOL    HW2 4418   3.937  14.462   3.344
  882SOL     OW 4419  14.347   8.891   0.851
  882SOL    HW1 4420  14.438   8.868   0.871
  882SOL    HW2 4421  14.303   8.807   0.838
  883SOL     OW 4422  12.516  14.711   6.985
  883SOL    HW1 4423  12.430  14.670   6.990
  883SOL    HW2 4424  12.551  14.686   6.899
  884SOL     OW 4425   6.857  11.446   3.470
  884SOL    HW1 4426   6.803  11.459   3.547
  884SOL    HW2 4427   6.797  11.452   3.396
  885SOL     OW 4428   9.196   0.876   6.393
  885SOL    HW1 4429   9.190   0.908   6.483
  885SOL    HW2 4430   9.178   0.953   6.339
  886SOL     OW 4431  14.055  13.912  10.585
  886SOL    HW1 4432  14.051  13.835  10.528
  886SOL    HW2 4433  14.127  13.894  10.645
  887SOL     OW 4434  10.661   6.563   8.583
  887SOL    HW1 4435  10.567   6.555   8.600
  887SOL    HW2 4436  10.674   6.655   8.561
  888SOL     OW 4437   4.878  14.757   2.531
  888SOL    HW1 4438   4.880  14.812   2.609
  888SOL    HW2 4439   4.785  14.745   2.512
  889SOL     OW 4440  10.519   5.593  13.640
  889SOL    HW1 4441  10.429   5.617  13.618
  889SOL    HW2 4442  10.516   5.571  13.733
  890SOL     OW 4443   2.313   4.123   7.215
  890SOL    HW1 4444   2.390   4.110   7.158
  890SOL    HW2 4445   2.242   4.078   7.169
  891SOL     OW 4446  12.799   6.832   2.162
  891SOL    HW1 4447  12.827   6.796   2.246
  891SOL    HW2 4448  12.806   6.759   2.100
  892SOL     OW 4449   6.616  12.493   4.867
  892SOL    HW1 4450   6.667  12.518   4.790
  892SOL    HW2 4451   6.664  12.532   4.941
  893SOL     OW 4452   5.352  11.217   0.513
  893SOL    HW1 4453   5.378  11.258   0.430
  893SOL    HW2 4454   5.432  11.216   0.565
  894SOL     OW 4455  14.085   9.052   8.300
  894SOL    HW1 4456  14.132   9.027   8.220
  894SOL    HW2 4457  14.005   9.001   8.298
  895SOL     OW 4458  14.596  11.426  10.470
  895SOL    HW1 4459  14.524  11.469  10.423
  895SOL    HW2 4460  14.608  11.477  10.549
  896SOL     OW 4461   6.204   5.806   2.593
  896SOL    HW1 4462   6.205   5.887   2.644
  896SOL    HW2 4463   6.292   5.770   2.604
  897SOL     OW 4464   6.168   4.962   4.701
  897SOL    HW1 4465   6.191   5.043   4.655
  897SOL    HW2 4466   6.122   4.910   4.635
  898SOL     OW 4467  13.521   3.831   8.763
  898SOL    HW1 4468  13.563   3.859   8.845
  898SOL    HW2 4469  13.431   3.812   8.789
  899SOL     OW 4470   4.992   4.671   1.640
  899SOL    HW1 4471   5.086   4.663   1.656
  899SOL    HW2 4472   4.970   4.596   1.585
  900SOL     OW 4473  14.097   7.057  14.005
  900SOL    HW1 4474  14.056   7.140  13.981
  900SOL    HW2 4475  14.138   7.075  14.090
  901SOL     OW 4476   6.498   8.611  14.654
  901SOL    HW1 4477   6.502   8.539  14.590
  901SOL    HW2 4478   6.405   8.628  14.665
  902SOL     OW 4479   4.955   7.400  10.017
  902SOL    HW1 4480   4.918   7.451   9.945
  902SOL    HW2 4481   4.951   7.459  10.092
  903SOL     OW 4482   2.056   9.246   8.096
  903SOL    HW1 4483   2.050   9.324   8.041
  903SOL    HW2 4484   1.965   9.222   8.114
  904SOL     OW 4485  12.496   6.320   9.388
  904SOL    HW1 4486  12.576   6.314   9.440
  904SOL    HW2 4487  12.523   6.295   9.299
  905SOL     OW 4488   5.254  11.564   3.236
  905SOL    HW1 4489   5.239  11.604   3.150
  905SOL    HW2 4490   5.346  11.535   3.233
  906SOL     OW 4491   4.307   7.745   3.630
  906SOL    HW1 4492   4.315   7.812   3.698
  906SOL    HW2 4493   4.268   7.670   3.675
  907SOL     OW 4494  13.042  14.233   1.249
  907SOL    HW1 4495  13.050  14.310   1.191
  907SOL    HW2 4496  13.131  14.197   1.251
  908SOL     OW 4497   8.912   8.430   3.844
  908SOL    HW1 4498   8.816   8.437   3.850
  908SOL    HW2 4499   8.928   8.392   3.758
  909SOL     OW 4500  10.037   8.224   0.529
  909SOL    HW1 4501  10.081   8.295   0.482
  909SOL    HW2 4502   9.982   8.181   0.463
  910SOL     OW 4503   4.526   2.693  14.440
  910SOL    HW1 4504   4.558   2.768  14.489
  910SOL    HW2 4505   4.548   2.617  14.494
  911SOL     OW 4506  10.070   2.218   1.306
  911SOL    HW1 4507  10.073   2.135   1.258
  911SOL    HW2 4508  10.136   2.273   1.262
  912SOL     OW 4509   4.078  10.725   0.783
  912SOL    HW1 4510   4.077  10.801   0.725
  912SOL    HW2 4511   4.162  10.731   0.829
  913SOL     OW 4512  12.060  12.517  13.224
  913SOL    HW1 4513  12.043  12.428  13.193
  913SOL    HW2 4514  11.974  12.549  13.254
  914SOL     OW 4515   4.934  13.332  10.246
  914SOL    HW1 4516   4.944  13.254  10.300
  914SOL    HW2 4517   4.839  13.341  10.233
  915SOL     OW 4518   8.555   7.739  14.631
  915SOL    HW1 4519   8.581   7.789  14.708
  915SOL    HW2 4520   8.508   7.664  14.667
  916SOL     OW 4521  12.957  12.955   1.274
  916SOL    HW1 4522  12.952  13.043   1.237
  916SOL    HW2 4523  12.985  12.900   1.201
  917SOL     OW 4524  13.663  10.784   4.336
  917SOL    HW1 4525  13.725  10.767   4.264
  917SOL    HW2 4526  13.719  10.792   4.413
  918SOL     OW 4527   4.156   8.069   1.796
  918SOL    HW1 4528   4.158   7.994   1.736
  918SOL    HW2 4529   4.204   8.138   1.751
  919SOL     OW 4530   0.457   9.350   6.877
  919SOL    HW1 4531   0.476   9.443   6.889
  919SOL    HW2 4532   0.467   9.335   6.783
  920SOL     OW 4533   9.391   3.600   5.953
  920SOL    HW1 4534   9.311   3.652   5.959
  920SOL    HW2 4535   9.448   3.650   5.895
  921SOL     OW 4536  13.726  14.586  13.480
  921SOL    HW1 4537  13.683  14.671  13.479
  921SOL    HW2 4538  13.805  14.599  13.533
  922SOL     OW 4539  11.661   0.834   9.252
  922SOL    HW1 4540  11.625   0.922   9.264
  922SOL    HW2 4541  11.707   0.815   9.334
  923SOL     OW 4542   9.005   9.345   6.731
  923SOL    HW1 4543   8.973   9.259   6.706
  923SOL    HW2 4544   8.964   9.362   6.816
  924SOL     OW 4545   0.312   0.994  13.865
  924SOL    HW1 4546   0.356   0.910  13.853
  924SOL    HW2 4547   0.235   0.975  13.918
  925SOL     OW 4548  10.800   3.427  11.512
  925SOL    HW1 4549  10.885   3.457  11.480
  925SOL    HW2 4550  10.820   3.374  11.589
  926SOL     OW 4551  10.936  10.483   0.141
  926SOL    HW1 4552  10.897  10.469   0.054
  926SOL    HW2 4553  10.932  10.578   0.153
  927SOL     OW 4554  12.150  14.701   1.973
  927SOL    HW1 4555  12.101  14.688   2.054
  927SOL    HW2 4556  12.149  14.796   1.959
  928SOL     OW 4557  12.556   6.760   6.825
  928SOL    HW1 4558  12.471   6.717   6.827
  928SOL    HW2 4559  12.550   6.829   6.890
  929SOL     OW 4560   7.506   0.678   7.438
  929SOL    HW1 4561   7.573   0.723   7.387
  929SOL    HW2 4562   7.425   0.727   7.421
  930SOL     OW 4563   5.273  14.244   0.771
  930SOL    HW1 4564   5.189  14.264   0.728
  930SOL    HW2 4565   5.249  14.223   0.861
  931SOL     OW 4566   4.061   7.651   7.304
  931SOL    HW1 4567   3.979   7.604   7.286
  931SOL    HW2 4568   4.128   7.600   7.259
  932SOL     OW 4569   5.304  13.872   1.887
  932SOL    HW1 4570   5.277  13.832   1.804
  932SOL    HW2 4571   5.311  13.966   1.867
  933SOL     OW 4572   5.615   5.011   9.110
  933SOL    HW1 4573   5.545   4.966   9.062
  933SOL    HW2 4574   5.651   4.944   9.168
  934SOL     OW 4575   8.192   9.567  10.541
  934SOL    HW1 4576   8.216   9.479  10.569
  934SOL    HW2 4577   8.112   9.588  10.589
  935SOL     OW 4578   2.346  14.440  11.220
  935SOL    HW1 4579   2.288  14.512  11.244
  935SOL    HW2 4580   2.378  14.463  11.133
  936SOL     OW 4581   9.763   0.037   3.074
  936SOL    HW1 4582   9.852   0.015   3.044
  936SOL    HW2 4583   9.776   0.074   3.161
  937SOL     OW 4584  12.537  12.078   1.863
  937SOL    HW1 4585  12.594  12.045   1.933
  937SOL    HW2 4586  12.596  12.088   1.787
  938SOL     OW 4587   3.855   5.452  11.205
  938SOL    HW1 4588   3.871   5.546  11.203
  938SOL    HW2 4589   3.859   5.425  11.114
  939SOL     OW 4590   4.892   3.739   1.428
  939SOL    HW1 4591   4.919   3.749   1.337
  939SOL    HW2 4592   4.971   3.754   1.479
  940SOL     OW 4593  13.614   7.785   3.640
  940SOL    HW1 4594  13.597   7.859   3.698
  940SOL    HW2 4595  13.674   7.730   3.689
  941SOL     OW 4596   7.644   1.591   1.021
  941SOL    HW1 4597   7.554   1.620   1.037
  941SOL    HW2 4598   7.676   1.563   1.106
  942SOL     OW 4599  10.399   1.383   1.746
  942SOL    HW1 4600  10.448   1.397   1.666
  942SOL    HW2 4601  10.380   1.471   1.779
  943SOL     OW 4602  12.282   5.245   2.046
  943SOL    HW1 4603  12.224   5.279   1.979
  943SOL    HW2 4604  12.348   5.314   2.058
  944SOL     OW 4605   4.698  14.370   6.826
  944SOL    HW1 4606   4.695  14.458   6.789
  944SOL    HW2 4607   4.785  14.364   6.866
  945SOL     OW 4608   6.007   3.524   9.574
  945SOL    HW1 4609   5.974   3.607   9.607
  945SOL    HW2 4610   6.062   3.548   9.499
  946SOL     OW 4611   4.206  10.205  10.382
  946SOL    HW1 4612   4.151  10.226  10.306
  946SOL    HW2 4613   4.294  10.231  10.356
  947SOL     OW 4614  12.681  11.799  14.708
  947SOL    HW1 4615  12.727  11.769  14.787
  947SOL    HW2 4616  12.687  11.726  14.647
  948SOL     OW 4617   2.850   9.346   1.500
  948SOL    HW1 4618   2.763   9.315   1.476
  948SOL    HW2 4619   2.849   9.439   1.478
  949SOL     OW 4620   3.406   7.101   1.195
  949SOL    HW1 4621   3.343   7.157   1.149
  949SOL    HW2 4622   3.355   7.023   1.218
  950SOL     OW 4623   6.469   6.102  10.046
  950SOL    HW1 4624   6.377   6.131  10.044
  950SOL    HW2 4625   6.467   6.013  10.011
  951SOL     OW 4626  14.317   0.342   7.269
  951SOL    HW1 4627  14.396   0.292   7.249
  951SOL    HW2 4628  14.333   0.379   7.356
  952SOL     OW 4629   8.074  13.176   9.167
  952SOL    HW1 4630   8.106  13.263   9.142
  952SOL    HW2 4631   7.982  13.190   9.189
  953SOL     OW 4632  11.896  14.453   1.782
  953SOL    HW1 4633  11.847  14.536   1.781
  953SOL    HW2 4634  11.958  14.464   1.854
  954SOL     OW 4635  10.292   2.873  12.566
  954SOL    HW1 4636  10.300   2.799  12.626
  954SOL    HW2 4637  10.381   2.907  12.559
  955SOL     OW 4638  13.439  13.823   9.454
  955SOL    HW1 4639  13.532  13.840   9.436
  955SOL    HW2 4640  13.396  13.837   9.370
  956SOL     OW 4641   5.825  10.647   4.934
  956SOL    HW1 4642   5.883  10.720   4.953
  956SOL    HW2 4643   5.880  10.584   4.888
  957SOL     OW 4644  11.742   3.992  14.219
  957SOL    HW1 4645  11.734   4.069  14.162
  957SOL    HW2 4646  11.757   3.920  14.158
  958SOL     OW 4647   5.279   9.456   5.711
  958SOL    HW1 4648   5.345   9.388   5.722
  958SOL    HW2 4649   5.241   9.467   5.798
  959SOL     OW 4650  11.996  14.627  11.558
  959SOL    HW1 4651  12.027  14.716  11.573
  959SOL    HW2 4652  12.026  14.607  11.469
  960SOL     OW 4653   0.734   6.179   2.081
  960SOL    HW1 4654   0.662   6.222   2.034
  960SOL    HW2 4655   0.746   6.096   2.036
  961SOL     OW 4656   3.098   9.682  13.074
  961SOL    HW1 4657   3.092   9.604  13.019
  961SOL    HW2 4658   3.073   9.754  13.017
  962SOL     OW 4659   8.780   0.094   0.168
  962SOL    HW1 4660   8.822   0.014   0.197
  962SOL    HW2 4661   8.710   0.065   0.110
  963SOL     OW 4662  11.513   2.814   9.156
  963SOL    HW1 4663  11.421   2.817   9.128
  963SOL    HW2 4664  11.548   2.899   9.129
  964SOL     OW 4665   5.252   5.455  14.468
  964SOL    HW1 4666   5.330   5.431  14.518
  964SOL    HW2 4667   5.281   5.528  14.413
  965SOL     OW 4668   0.742   0.080   6.541
  965SOL    HW1 4669   0.686   0.096   6.465
  965SOL    HW2 4670   0.762  14.864   6.536
  966SOL     OW 4671   4.276   2.955   6.265
  966SOL    HW1 4672   4.335   3.017   6.222
  966SOL    HW2 4673   4.265   2.990   6.353
  967SOL     OW 4674  13.546   4.953   7.428
  967SOL    HW1 4675  13.530   4.864   7.460
  967SOL    HW2 4676  13.560   5.005   7.507
  968SOL     OW 4677  11.663   0.989   9.974
  968SOL    HW1 4678  11.753   0.957   9.985
  968SOL    HW2 4679  11.619   0.967  10.056
  969SOL     OW 4680   6.897   2.811  13.679
  969SOL    HW1 4681   6.883   2.716  13.684
  969SOL    HW2 4682   6.990   2.821  13.659
  970SOL     OW 4683  12.215   3.534  10.080
  970SOL    HW1 4684  12.255   3.550   9.995
  970SOL    HW2 4685  12.136   3.483  10.060
  971SOL     OW 4686  14.759   7.170  10.490
  971SOL    HW1 4687  14.671   7.154  10.523
  971SOL    HW2 4688  14.764   7.119  10.409
  972SOL     OW 4689   8.400   4.246  12.309
  972SOL    HW1 4690   8.347   4.179  12.266
  972SOL    HW2 4691   8.484   4.204  12.326
  973SOL     OW 4692   0.714   2.713   1.116
  973SOL    HW1 4693   0.776   2.689   1.185
  973SOL    HW2 4694   0.660   2.635   1.103
  974SOL     OW 4695  11.863  14.040   6.796
  974SOL    HW1 4696  11.838  13.969   6.737
  974SOL    HW2 4697  11.863  14.118   6.741
  975SOL     OW 4698  12.352   8.926   9.197
  975SOL    HW1 4699  12.275   8.981   9.207
  975SOL    HW2 4700  12.321   8.851   9.146
  976SOL     OW 4701  12.369   3.260   9.469
  976SOL    HW1 4702  12.428   3.311   9.525
  976SOL    HW2 4703  12.310   3.325   9.430
  977SOL     OW 4704   7.400   4.638   9.916
  977SOL    HW1 4705   7.365   4.558   9.877
  977SOL    HW2 4706   7.409   4.618  10.009
  978SOL     OW 4707   0.146  12.286  11.078
  978SOL    HW1 4708   0.115  12.230  11.007
  978SOL    HW2 4709   0.122  12.374  11.051
  979SOL     OW 4710   7.002   3.535   6.704
  979SOL    HW1 4711   6.908   3.539   6.724
  979SOL    HW2 4712   7.012   3.586   6.624
  980SOL     OW 4713   8.086  12.277   9.717
  980SOL    HW1 4714   8.109  12.198   9.765
  980SOL    HW2 4715   8.169  12.322   9.704
  981SOL     OW 4716   7.051   8.275  12.816
  981SOL    HW1 4717   7.022   8.187  12.794
  981SOL    HW2 4718   7.075   8.270  12.908
  982SOL     OW 4719  12.808  12.348   9.248
  982SOL    HW1 4720  12.826  12.442   9.237
  982SOL    HW2 4721  12.844  12.308   9.169
  983SOL     OW 4722  11.780   1.348   6.919
  983SOL    HW1 4723  11.862   1.300   6.932
  983SOL    HW2 4724  11.712   1.281   6.929
  984SOL     OW 4725   9.702  10.035   2.081
  984SOL    HW1 4726   9.738  10.114   2.042
  984SOL    HW2 4727   9.608  10.041   2.064
  985SOL     OW 4728   4.885   2.210  10.007
  985SOL    HW1 4729   4.963   2.158   9.987
  985SOL    HW2 4730   4.837   2.215   9.924
  986SOL     OW 4731   0.736   3.310   7.813
  986SOL    HW1 4732   0.715   3.401   7.833
  986SOL    HW2 4733   0.824   3.314   7.774
  987SOL     OW 4734   1.213  10.385   3.718
  987SOL    HW1 4735   1.291  10.335   3.743
  987SOL    HW2 4736   1.178  10.418   3.801
  988SOL     OW 4737   6.824   0.067   4.204
  988SOL    HW1 4738   6.883   0.025   4.141
  988SOL    HW2 4739   6.881   0.126   4.255
  989SOL     OW 4740   7.447   6.491   6.041
  989SOL    HW1 4741   7.368   6.464   6.088
  989SOL    HW2 4742   7.484   6.409   6.007
  990SOL     OW 4743   4.756   4.821   5.890
  990SOL    HW1 4744   4.731   4.903   5.848
  990SOL    HW2 4745   4.680   4.797   5.943
  991SOL     OW 4746   3.753  11.963   0.616
  991SOL    HW1 4747   3.725  12.023   0.547
  991SOL    HW2 4748   3.789  12.019   0.684
  992SOL     OW 4749   7.753  13.840  14.480
  992SOL    HW1 4750   7.811  13.779  14.434
  992SOL    HW2 4751   7.722  13.899  14.412
  993SOL     OW 4752   5.824  14.019   5.302
  993SOL    HW1 4753   5.807  13.929   5.329
  993SOL    HW2 4754   5.894  14.049   5.360
  994SOL     OW 4755   4.240   5.691   8.027
  994SOL    HW1 4756   4.156   5.664   8.066
  994SOL    HW2 4757   4.295   5.712   8.102
  995SOL     OW 4758  12.831   2.197  13.842
  995SOL    HW1 4759  12.866   2.280  13.875
  995SOL    HW2 4760  12.758   2.222  13.786
  996SOL     OW 4761  14.055   5.058   9.009
  996SOL    HW1 4762  14.007   5.061   9.092
  996SOL    HW2 4763  13.988   5.070   8.942
  997SOL     OW 4764  13.759   8.287   4.510
  997SOL    HW1 4765  13.791   8.334   4.587
  997SOL    HW2 4766  13.831   8.229   4.486
  998SOL     OW 4767   0.188   9.154   2.332
  998SOL    HW1 4768   0.133   9.221   2.291
  998SOL    HW2 4769   0.262   9.144   2.271
  999SOL     OW 4770   0.796   6.570   7.621
  999SOL    HW1 4771   0.744   6.572   7.702
  999SOL    HW2 4772   0.883   6.543   7.650
 1000SOL     OW 4773   7.268   8.236   3.099
 1000SOL    HW1 4774   7.243   8.147   3.126
 1000SOL    HW2 4775   7.339   8.222   3.036
 1001SOL     OW 4776   6.093  12.632   6.408
 1001SOL    HW1 4777   6.045  12.676   6.477
 1001SOL    HW2 4778   6.123  12.550   6.448
 1002SOL     OW 4779   0.629  13.596   5.872
 1002SOL    HW1 4780   0.620  13.567   5.963
 1002SOL    HW2 4781   0.574  13.536   5.822
 1003SOL     OW 4782   2.359  12.014   1.271
 1003SOL    HW1 4783   2.450  12.032   1.295
 1003SOL    HW2 4784   2.343  11.925   1.303
 1004SOL     OW 4785   9.017   1.810   9.218
 1004SOL    HW1 4786   8.948   1.850   9.165
 1004SOL    HW2 4787   8.972   1.738   9.263
 1005SOL     OW 4788   0.745   6.523   3.045
 1005SOL    HW1 4789   0.745   6.446   2.987
 1005SOL    HW2 4790   0.801   6.497   3.118
 1006SOL     OW 4791   1.001  10.217   3.633
 1006SOL    HW1 4792   0.934  10.217   3.702
 1006SOL    HW2 4793   1.083  10.227   3.681
 1007SOL     OW 4794   7.585   6.525   0.481
 1007SOL    HW1 4795   7.596   6.529   0.386
 1007SOL    HW2 4796   7.520   6.592   0.501
 1008SOL     OW 4797  12.601  13.632   9.140
 1008SOL    HW1 4798  12.535  13.569   9.171
 1008SOL    HW2 4799  12.675  13.578   9.113
 1009SOL     OW 4800   7.768   0.097   0.340
 1009SOL    HW1 4801   7.834   0.028   0.349
 1009SOL    HW2 4802   7.775   0.147   0.421
 1010SOL     OW 4803   2.865  14.610   7.492
 1010SOL    HW1 4804   2.955  14.596   7.463
 1010SOL    HW2 4805   2.862  14.576   7.581
 1011SOL     OW 4806  14.746   3.216   4.581
 1011SOL    HW1 4807  14.820   3.219   4.642
 1011SOL    HW2 4808  14.670   3.233   4.636
 1012SOL     OW 4809  11.455   3.954  11.047
 1012SOL    HW1 4810  11.456   3.860  11.032
 1012SOL    HW2 4811  11.494   3.966  11.133
 1013SOL     OW 4812  10.229   6.533  10.876
 1013SOL    HW1 4813  10.145   6.539  10.832
 1013SOL    HW2 4814  10.293   6.552  10.808
 1014SOL     OW 4815  10.489  12.429   1.493
 1014SOL    HW1 4816  10.537  12.357   1.452
 1014SOL    HW2 4817  10.403  12.391   1.514
 1015SOL     OW 4818  13.281  10.441   4.948
 1015SOL    HW1 4819  13.261  10.507   5.014
 1015SOL    HW2 4820  13.367  10.466   4.915
 1016SOL     OW 4821  10.664   4.443   3.726
 1016SOL    HW1 4822  10.618   4.523   3.702
 1016SOL    HW2 4823  10.623   4.415   3.808
 1017SOL     OW 4824  12.357   1.763   9.752
 1017SOL    HW1 4825  12.441   1.753   9.796
 1017SOL    HW2 4826  12.346   1.682   9.702
 1018SOL     OW 4827   4.733  10.965   6.146
 1018SOL    HW1 4828   4.811  10.993   6.195
 1018SOL    HW2 4829   4.766  10.900   6.084
 1019SOL     OW 4830  14.347   4.471  14.801
 1019SOL    HW1 4831  14.318   4.409  14.868
 1019SOL    HW2 4832  14.294   4.550  14.818
 1020SOL     OW 4833  14.525   7.312   6.202
 1020SOL    HW1 4834  14.544   7.240   6.262
 1020SOL    HW2 4835  14.577   7.293   6.124
 1021SOL     OW 4836   2.243   9.442   4.815
 1021SOL    HW1 4837   2.215   9.509   4.878
 1021SOL    HW2 4838   2.277   9.371   4.870
 1022SOL     OW 4839   8.133   9.139   5.492
 1022SOL    HW1 4840   8.183   9.199   5.547
 1022SOL    HW2 4841   8.166   9.052   5.515
 1023SOL     OW 4842   6.312  14.244   0.296
 1023SOL    HW1 4843   6.368  14.278   0.227
 1023SOL    HW2 4844   6.227  14.232   0.253
 1024SOL     OW 4845   3.132   2.554  11.106
 1024SOL    HW1 4846   3.057   2.580  11.054
 1024SOL    HW2 4847   3.194   2.516  11.043
 1025SOL     OW 4848  10.546  14.047  10.720
 1025SOL    HW1 4849  10.547  13.974  10.658
 1025SOL    HW2 4850  10.487  14.018  10.790
 1026SOL     OW 4851   8.772   6.301  14.394
 1026SOL    HW1 4852   8.703   6.234  14.402
 1026SOL    HW2 4853   8.840   6.259  14.341
 1027SOL     OW 4854   5.576  14.648   6.737
 1027SOL    HW1 4855   5.560  14.730   6.690
 1027SOL    HW2 4856   5.493  14.630   6.782
 1028SOL     OW 4857   0.123   4.711   7.406
 1028SOL    HW1 4858   0.189   4.654   7.365
 1028SOL    HW2 4859   0.105   4.669   7.491
 1029SOL     OW 4860   6.797   5.685  10.785
 1029SOL    HW1 4861   6.768   5.759  10.732
 1029SOL    HW2 4862   6.752   5.696  10.869
 1030SOL     OW 4863   5.259   3.749   0.248
 1030SOL    HW1 4864   5.333   3.753   0.187
 1030SOL    HW2 4865   5.276   3.819   0.311
 1031SOL     OW 4866   5.692   0.778   1.736
 1031SOL    HW1 4867   5.729   0.745   1.654
 1031SOL    HW2 4868   5.617   0.830   1.709
 1032SOL     OW 4869  11.610   7.222   6.496
 1032SOL    HW1 4870  11.540   7.270   6.450
 1032SOL    HW2 4871  11.679   7.213   6.430
 1033SOL     OW 4872  14.135  11.349   2.545
 1033SOL    HW1 4873  14.102  11.418   2.488
 1033SOL    HW2 4874  14.086  11.271   2.518
 1034SOL     OW 4875   8.351   5.418   3.134
 1034SOL    HW1 4876   8.291   5.490   3.151
 1034SOL    HW2 4877   8.387   5.396   3.220
 1035SOL     OW 4878  13.635   1.860   8.396
 1035SOL    HW1 4879  13.671   1.777   8.426
 1035SOL    HW2 4880  13.579   1.836   8.322
 1036SOL     OW 4881   5.965  13.302  14.530
 1036SOL    HW1 4882   5.899  13.368  14.509
 1036SOL    HW2 4883   5.948  13.231  14.467
 1037SOL     OW 4884  14.712   1.042  10.695
 1037SOL    HW1 4885  14.695   1.029  10.788
 1037SOL    HW2 4886  14.669   0.967  10.652
 1038SOL     OW 4887  11.581  14.521  13.834
 1038SOL    HW1 4888  11.555  14.433  13.862
 1038SOL    HW2 4889  11.675  14.513  13.814
 1039SOL     OW 4890  11.178   4.066   1.331
 1039SOL    HW1 4891  11.137   3.980   1.319
 1039SOL    HW2 4892  11.139   4.120   1.263
 1040SOL     OW 4893   1.289  11.282  13.564
 1040SOL    HW1 4894   1.352  11.268  13.635
 1040SOL    HW2 4895   1.248  11.197  13.551
 1041SOL     OW 4896   8.000   1.683   6.961
 1041SOL    HW1 4897   8.032   1.727   6.883
 1041SOL    HW2 4898   8.036   1.595   6.956
 1042SOL     OW 4899   1.264   9.180  13.565
 1042SOL    HW1 4900   1.185   9.126  13.559
 1042SOL    HW2 4901   1.336   9.118  13.564
 1043SOL     OW 4902   1.559   7.538  14.201
 1043SOL    HW1 4903   1.472   7.498  14.194
 1043SOL    HW2 4904   1.619   7.464  14.202
 1044SOL     OW 4905   6.727  14.752   7.887
 1044SOL    HW1 4906   6.653  14.694   7.869
 1044SOL    HW2 4907   6.744  14.740   7.981
 1045SOL     OW 4908   7.435  13.793  13.882
 1045SOL    HW1 4909   7.387  13.796  13.799
 1045SOL    HW2 4910   7.504  13.729  13.867
 1046SOL     OW 4911   0.801   1.344   0.555
 1046SOL    HW1 4912   0.736   1.401   0.596
 1046SOL    HW2 4913   0.752   1.267   0.529
 1047SOL     OW 4914   5.288  14.317  11.946
 1047SOL    HW1 4915   5.263  14.365  11.867
 1047SOL    HW2 4916   5.375  14.282  11.926
 1048SOL     OW 4917  14.690   2.684  13.582
 1048SOL    HW1 4918  14.743   2.746  13.531
 1048SOL    HW2 4919  14.702   2.712  13.673
 1049SOL     OW 4920   8.096   0.171  14.211
 1049SOL    HW1 4921   8.129   0.086  14.183
 1049SOL    HW2 4922   8.010   0.152  14.248
 1050SOL     OW 4923  11.142   7.678   4.647
 1050SOL    HW1 4924  11.159   7.637   4.732
 1050SOL    HW2 4925  11.122   7.769   4.668
 1051SOL     OW 4926  10.264   3.001   2.808
 1051SOL    HW1 4927  10.248   3.071   2.745
 1051SOL    HW2 4928  10.341   2.956   2.774
 1052SOL     OW 4929   7.838   8.802   0.214
 1052SOL    HW1 4930   7.775   8.850   0.160
 1052SOL    HW2 4931   7.924   8.834   0.184
 1053SOL     OW 4932   0.929   2.179   7.387
 1053SOL    HW1 4933   0.836   2.162   7.400
 1053SOL    HW2 4934   0.972   2.135   7.460
 1054SOL     OW 4935   5.486   5.934   5.650
 1054SOL    HW1 4936   5.478   5.865   5.584
 1054SOL    HW2 4937   5.530   5.891   5.724
 1055SOL     OW 4938   6.645  10.228   3.888
 1055SOL    HW1 4939   6.701  10.290   3.936
 1055SOL    HW2 4940   6.563  10.227   3.938
 1056SOL     OW 4941   4.089  13.873   1.290
 1056SOL    HW1 4942   4.090  13.778   1.299
 1056SOL    HW2 4943   4.028  13.889   1.217
 1057SOL     OW 4944   4.021   1.870   5.589
 1057SOL    HW1 4945   4.048   1.780   5.574
 1057SOL    HW2 4946   4.023   1.910   5.502
 1058SOL     OW 4947   7.013  14.726   2.592
 1058SOL    HW1 4948   6.964  14.782   2.652
 1058SOL    HW2 4949   7.058  14.663   2.648
 1059SOL     OW 4950   3.655   0.965   7.104
 1059SOL    HW1 4951   3.684   0.978   7.195
 1059SOL    HW2 4952   3.637   1.053   7.072
 1060SOL     OW 4953   5.976   8.356  10.553
 1060SOL    HW1 4954   6.018   8.435  10.589
 1060SOL    HW2 4955   5.946   8.309  10.631
 1061SOL     OW 4956   8.561   9.571  14.655
 1061SOL    HW1 4957   8.477   9.529  14.674
 1061SOL    HW2 4958   8.615   9.502  14.618
 1062SOL     OW 4959   8.649   1.333   2.219
 1062SOL    HW1 4960   8.683   1.290   2.140
 1062SOL    HW2 4961   8.708   1.407   2.233
 1063SOL     OW 4962   6.328   8.847   4.184
 1063SOL    HW1 4963   6.248   8.801   4.160
 1063SOL    HW2 4964   6.316   8.936   4.151
 1064SOL     OW 4965   8.954   0.608   4.518
 1064SOL    HW1 4966   8.946   0.666   4.593
 1064SOL    HW2 4967   8.879   0.548   4.526
 1065SOL     OW 4968   3.393   6.069  12.247
 1065SOL    HW1 4969   3.450   6.004  12.287
 1065SOL    HW2 4970   3.375   6.131  12.317
 1066SOL     OW 4971   7.900  10.152   0.209
 1066SOL    HW1 4972   7.817  10.197   0.196
 1066SOL    HW2 4973   7.877  10.068   0.249
 1067SOL     OW 4974   1.894  10.106  13.083
 1067SOL    HW1 4975   1.917  10.057  13.161
 1067SOL    HW2 4976   1.974  10.151  13.057
 1068SOL     OW 4977   9.843   3.599   5.953
 1068SOL    HW1 4978   9.820   3.610   6.045
 1068SOL    HW2 4979   9.877   3.510   5.947
 1069SOL     OW 4980   5.727   3.841  11.760
 1069SOL    HW1 4981   5.698   3.860  11.849
 1069SOL    HW2 4982   5.737   3.927  11.719
 1070SOL     OW 4983  13.229  11.576   3.524
 1070SOL    HW1 4984  13.147  11.580   3.475
 1070SOL    HW2 4985  13.287  11.637   3.479
 1071SOL     OW 4986  14.291  13.692   2.369
 1071SOL    HW1 4987  14.343  13.768   2.395
 1071SOL    HW2 4988  14.201  13.716   2.394
 1072SOL     OW 4989   3.263  13.801   4.794
 1072SOL    HW1 4990   3.283  13.777   4.884
 1072SOL    HW2 4991   3.262  13.897   4.794
 1073SOL     OW 4992   0.777   4.893   6.586
 1073SOL    HW1 4993   0.791   4.986   6.567
 1073SOL    HW2 4994   0.727   4.892   6.667
 1074SOL     OW 4995   8.939  10.890   3.938
 1074SOL    HW1 4996   8.854  10.882   3.894
 1074SOL    HW2 4997   8.919  10.884   4.031
 1075SOL     OW 4998   6.889   2.917   6.859
 1075SOL    HW1 4999   6.951   2.989   6.867
 1075SOL    HW2 5000   6.913   2.857   6.930
 1076SOL     OW 5001   1.606   8.233  10.209
 1076SOL    HW1 5002   1.524   8.283  10.216
 1076SOL    HW2 5003   1.586   8.165  10.145
 1077SOL     OW 5004   5.655  10.596  14.232
 1077SOL    HW1 5005   5.740  10.566  14.266
 1077SOL    HW2 5006   5.591  10.539  14.274
 1078SOL     OW 5007   2.054   1.226   2.519
 1078SOL    HW1 5008   1.976   1.281   2.512
 1078SOL    HW2 5009   2.077   1.207   2.428
 1079SOL     OW 5010   5.778  11.690   9.075
 1079SOL    HW1 5011   5.733  11.660   9.154
 1079SOL    HW2 5012   5.765  11.620   9.011
 1080SOL     OW 5013   8.299   5.568   2.545
 1080SOL    HW1 5014   8.287   5.488   2.493
 1080SOL    HW2 5015   8.350   5.540   2.621
 1081SOL     OW 5016   6.146  10.741   2.508
 1081SOL    HW1 5017   6.087  10.788   2.567
 1081SOL    HW2 5018   6.120  10.770   2.420
 1082SOL     OW 5019   1.878   3.869  11.717
 1082SOL    HW1 5020   1.908   3.919  11.793
 1082SOL    HW2 5021   1.783   3.879  11.717
 1083SOL     OW 5022   4.997   5.677   7.670
 1083SOL    HW1 5023   5.054   5.601   7.684
 1083SOL    HW2 5024   4.909   5.645   7.692
 1084SOL     OW 5025   7.187   7.097   9.388
 1084SOL    HW1 5026   7.155   7.086   9.299
 1084SOL    HW2 5027   7.260   7.158   9.381
 1085SOL     OW 5028  12.912   9.444   4.004
 1085SOL    HW1 5029  12.997   9.469   4.039
 1085SOL    HW2 5030  12.902   9.352   4.025
 1086SOL     OW 5031   4.005  14.739   7.451
 1086SOL    HW1 5032   4.004  14.791   7.531
 1086SOL    HW2 5033   3.915  14.706   7.442
 1087SOL     OW 5034   7.841   5.392   1.864
 1087SOL    HW1 5035   7.823   5.485   1.875
 1087SOL    HW2 5036   7.906   5.373   1.932
 1088SOL     OW 5037   9.689   0.610   8.821
 1088SOL    HW1 5038   9.693   0.596   8.726
 1088SOL    HW2 5039   9.760   0.557   8.856
 1089SOL     OW 5040  14.836   3.712   2.787
 1089SOL    HW1 5041  14.837   3.685   2.879
 1089SOL    HW2 5042   0.037   3.671   2.750
 1090SOL     OW 5043   4.194  14.868   7.310
 1090SOL    HW1 5044   4.122  14.809   7.334
 1090SOL    HW2 5045   4.161   0.078   7.331
 1091SOL     OW 5046  10.445   9.118   5.999
 1091SOL    HW1 5047  10.439   9.202   6.043
 1091SOL    HW2 5048  10.500   9.135   5.922
 1092SOL     OW 5049   9.721   4.180   2.921
 1092SOL    HW1 5050   9.671   4.197   3.001
 1092SOL    HW2 5051   9.742   4.268   2.888
 1093SOL     OW 5052   2.570   8.691   4.622
 1093SOL    HW1 5053   2.660   8.669   4.645
 1093SOL    HW2 5054   2.522   8.686   4.704
 1094SOL     OW 5055   5.564  14.292   9.664
 1094SOL    HW1 5056   5.608  14.345   9.730
 1094SOL    HW2 5057   5.471  14.301   9.684
 1095SOL     OW 5058   7.579   2.688   4.819
 1095SOL    HW1 5059   7.642   2.662   4.886
 1095SOL    HW2 5060   7.607   2.640   4.740
 1096SOL     OW 5061   0.512  10.483   9.197
 1096SOL    HW1 5062   0.546  10.394   9.202
 1096SOL    HW2 5063   0.451  10.489   9.271
 1097SOL     OW 5064  12.669   1.747   7.102
 1097SOL    HW1 5065  12.647   1.808   7.173
 1097SOL    HW2 5066  12.585   1.725   7.063
 1098SOL     OW 5067  11.497   5.434  13.054
 1098SOL    HW1 5068  11.483   5.438  13.149
 1098SOL    HW2 5069  11.467   5.348  13.028
 1099SOL     OW 5070   7.677   0.043   7.249
 1099SOL    HW1 5071   7.599   0.096   7.266
 1099SOL    HW2 5072   7.700   0.006   7.335
 1100SOL     OW 5073   8.985   5.939  14.160
 1100SOL    HW1 5074   8.973   5.992  14.239
 1100SOL    HW2 5075   8.936   5.986  14.093
 1101SOL     OW 5076   9.766   2.719  10.890
 1101SOL    HW1 5077   9.696   2.749  10.948
 1101SOL    HW2 5078   9.775   2.790  10.825
 1102SOL     OW 5079   3.072  11.379   0.850
 1102SOL    HW1 5080   3.065  11.367   0.755
 1102SOL    HW2 5081   2.981  11.385   0.879
 1103SOL     OW 5082  11.012   9.811   7.132
 1103SOL    HW1 5083  10.951   9.741   7.105
 1103SOL    HW2 5084  10.986   9.831   7.222
 1104SOL     OW 5085   9.724   1.379  12.498
 1104SOL    HW1 5086   9.765   1.459  12.468
 1104SOL    HW2 5087   9.736   1.380  12.593
 1105SOL     OW 5088  11.291   7.857   0.585
 1105SOL    HW1 5089  11.325   7.837   0.672
 1105SOL    HW2 5090  11.367   7.885   0.535
 1106SOL     OW 5091   0.280   9.332   9.493
 1106SOL    HW1 5092   0.258   9.394   9.563
 1106SOL    HW2 5093   0.319   9.387   9.424
 1107SOL     OW 5094   4.857  12.185  10.965
 1107SOL    HW1 5095   4.849  12.179  10.870
 1107SOL    HW2 5096   4.809  12.265  10.988
 1108SOL     OW 5097   7.685  12.032   0.414
 1108SOL    HW1 5098   7.635  11.950   0.418
 1108SOL    HW2 5099   7.776  12.004   0.403
 1109SOL     OW 5100   7.292  11.293   6.321
 1109SOL    HW1 5101   7.317  11.265   6.233
 1109SOL    HW2 5102   7.369  11.340   6.354
 1110SOL     OW 5103   4.928   3.610  13.102
 1110SOL    HW1 5104   4.866   3.574  13.039
 1110SOL    HW2 5105   4.991   3.539  13.117
 1111SOL     OW 5106  11.182  11.244   8.270
 1111SOL    HW1 5107  11.205  11.151   8.259
 1111SOL    HW2 5108  11.244  11.276   8.335
 1112SOL     OW 5109  12.011  14.829   8.198
 1112SOL    HW1 5110  12.094  14.853   8.157
 1112SOL    HW2 5111  11.987  14.746   8.157
 1113SOL     OW 5112   3.702  12.027   6.327
 1113SOL    HW1 5113   3.656  12.015   6.410
 1113SOL    HW2 5114   3.665  11.960   6.269
 1114SOL     OW 5115   1.477  12.501  14.429
 1114SOL    HW1 5116   1.450  12.544  14.348
 1114SOL    HW2 5117   1.521  12.421  14.400
 1115SOL     OW 5118   6.561  12.020  10.999
 1115SOL    HW1 5119   6.534  11.932  10.973
 1115SOL    HW2 5120   6.644  12.006  11.045
 1116SOL     OW 5121   7.320  13.433  12.762
 1116SOL    HW1 5122   7.276  13.510  12.796
 1116SOL    HW2 5123   7.394  13.468  12.712
 1117SOL     OW 5124  14.128   0.352  13.087
 1117SOL    HW1 5125  14.140   0.425  13.148
 1117SOL    HW2 5126  14.171   0.380  13.007
 1118SOL     OW 5127  14.781   3.531   6.513
 1118SOL    HW1 5128  14.819   3.618   6.508
 1118SOL    HW2 5129  14.807   3.498   6.599
 1119SOL     OW 5130  14.805  13.436   1.733
 1119SOL    HW1 5131  14.788  13.452   1.641
 1119SOL    HW2 5132   0.012  13.477   1.750
 1120SOL     OW 5133  12.951   4.310   0.288
 1120SOL    HW1 5134  12.869   4.268   0.261
 1120SOL    HW2 5135  12.999   4.241   0.335
 1121SOL     OW 5136  11.998   3.280   5.470
 1121SOL    HW1 5137  12.050   3.276   5.389
 1121SOL    HW2 5138  12.064   3.290   5.539
 1122SOL     OW 5139   1.077   3.837  10.596
 1122SOL    HW1 5140   1.016   3.779  10.642
 1122SOL    HW2 5141   1.160   3.824  10.641
 1123SOL     OW 5142   5.997  13.764   2.502
 1123SOL    HW1 5143   6.084  13.736   2.530
 1123SOL    HW2 5144   6.010  13.851   2.464
 1124SOL     OW 5145  10.908   7.402  14.679
 1124SOL    HW1 5146  10.813   7.411  14.678
 1124SOL    HW2 5147  10.935   7.440  14.763
 1125SOL     OW 5148  14.852   0.761   1.047
 1125SOL    HW1 5149   0.018   0.695   1.101
 1125SOL    HW2 5150   0.015   0.843   1.073
 1126SOL     OW 5151   2.801  11.790   5.166
 1126SOL    HW1 5152   2.833  11.730   5.098
 1126SOL    HW2 5153   2.872  11.852   5.179
 1127SOL     OW 5154   2.571   5.651   3.420
 1127SOL    HW1 5155   2.600   5.682   3.506
 1127SOL    HW2 5156   2.542   5.561   3.436
 1128SOL     OW 5157   4.650  14.188   2.614
 1128SOL    HW1 5158   4.580  14.245   2.581
 1128SOL    HW2 5159   4.651  14.114   2.554
 1129SOL     OW 5160   8.292  11.821   9.046
 1129SOL    HW1 5161   8.334  11.884   9.105
 1129SOL    HW2 5162   8.297  11.863   8.959
 1130SOL     OW 5163   3.659  12.847   9.223
 1130SOL    HW1 5164   3.627  12.759   9.203
 1130SOL    HW2 5165   3.660  12.893   9.139
 1131SOL     OW 5166  13.256   7.285   4.186
 1131SOL    HW1 5167  13.351   7.292   4.173
 1131SOL    HW2 5168  13.226   7.230   4.113
 1132SOL     OW 5169   2.460   2.205   3.883
 1132SOL    HW1 5170   2.450   2.137   3.950
 1132SOL    HW2 5171   2.430   2.163   3.802
 1133SOL     OW 5172  13.335   6.018   1.386
 1133SOL    HW1 5173  13.300   6.080   1.322
 1133SOL    HW2 5174  13.406   6.066   1.429
 1134SOL     OW 5175  13.344  12.299  10.109
 1134SOL    HW1 5176  13.439  12.315  10.104
 1134SOL    HW2 5177  13.305  12.375  10.066
 1135SOL     OW 5178   3.949   1.138  10.603
 1135SOL    HW1 5179   4.043   1.127  10.616
 1135SOL    HW2 5180   3.923   1.063  10.549
 1136SOL     OW 5181  12.610   9.955   8.579
 1136SOL    HW1 5182  12.648  10.029   8.626
 1136SOL    HW2 5183  12.581   9.895   8.648
 1137SOL     OW 5184   7.937   8.192   3.270
 1137SOL    HW1 5185   7.941   8.178   3.364
 1137SOL    HW2 5186   8.018   8.238   3.249
 1138SOL     OW 5187  12.480   2.897   2.673
 1138SOL    HW1 5188  12.468   2.804   2.690
 1138SOL    HW2 5189  12.575   2.908   2.663
 1139SOL     OW 5190  12.474   9.652   0.461
 1139SOL    HW1 5191  12.554   9.629   0.509
 1139SOL    HW2 5192  12.505   9.696   0.382
 1140SOL     OW 5193  13.090   1.012   5.584
 1140SOL    HW1 5194  13.094   0.927   5.628
 1140SOL    HW2 5195  13.180   1.046   5.587
 1141SOL     OW 5196   4.510  12.185   0.897
 1141SOL    HW1 5197   4.452  12.134   0.840
 1141SOL    HW2 5198   4.576  12.222   0.837
 1142SOL     OW 5199   6.807  13.416  11.787
 1142SOL    HW1 5200   6.792  13.414  11.882
 1142SOL    HW2 5201   6.892  13.458  11.778
 1143SOL     OW 5202   7.785   5.398  11.184
 1143SOL    HW1 5203   7.846   5.427  11.253
 1143SOL    HW2 5204   7.831   5.419  11.103
 1144SOL     OW 5205   8.506   5.996   3.980
 1144SOL    HW1 5206   8.423   5.992   4.028
 1144SOL    HW2 5207   8.554   6.067   4.024
 1145SOL     OW 5208   5.810  13.327   2.053
 1145SOL    HW1 5209   5.789  13.418   2.031
 1145SOL    HW2 5210   5.902  13.329   2.081
 1146SOL     OW 5211  14.611  12.865   7.825
 1146SOL    HW1 5212  14.613  12.783   7.875
 1146SOL    HW2 5213  14.690  12.864   7.772
 1147SOL     OW 5214  14.538   2.518   3.001
 1147SOL    HW1 5215  14.607   2.571   3.040
 1147SOL    HW2 5216  14.480   2.495   3.074
 1148SOL     OW 5217   4.478   7.169   9.177
 1148SOL    HW1 5218   4.525   7.251   9.163
 1148SOL    HW2 5219   4.544   7.101   9.164
 1149SOL     OW 5220   8.309  11.243   6.311
 1149SOL    HW1 5221   8.253  11.315   6.341
 1149SOL    HW2 5222   8.361  11.282   6.240
 1150SOL     OW 5223  13.582  11.909  12.156
 1150SOL    HW1 5224  13.569  11.921  12.250
 1150SOL    HW2 5225  13.565  11.816  12.142
 1151SOL     OW 5226  12.710   3.318  13.941
 1151SOL    HW1 5227  12.649   3.371  13.991
 1151SOL    HW2 5228  12.655   3.257  13.892
 1152SOL     OW 5229  13.115   9.411   6.700
 1152SOL    HW1 5230  13.069   9.354   6.761
 1152SOL    HW2 5231  13.051   9.478   6.677
 1153SOL     OW 5232   1.653   8.796  12.457
 1153SOL    HW1 5233   1.721   8.862  12.469
 1153SOL    HW2 5234   1.571   8.841  12.478
 1154SOL     OW 5235  11.160   1.270   2.326
 1154SOL    HW1 5236  11.153   1.318   2.409
 1154SOL    HW2 5237  11.225   1.320   2.276
 1155SOL     OW 5238   7.422  14.810   6.825
 1155SOL    HW1 5239   7.346  14.765   6.788
 1155SOL    HW2 5240   7.391   0.021   6.842
 1156SOL     OW 5241   7.025  12.455   5.335
 1156SOL    HW1 5242   7.102  12.458   5.278
 1156SOL    HW2 5243   6.975  12.532   5.311
 1157SOL     OW 5244   0.913   6.122   2.271
 1157SOL    HW1 5245   0.873   6.042   2.306
 1157SOL    HW2 5246   0.851   6.154   2.206
 1158SOL     OW 5247  12.497   0.585  13.971
 1158SOL    HW1 5248  12.531   0.649  14.034
 1158SOL    HW2 5249  12.402   0.597  13.974
 1159SOL     OW 5250   2.092   6.956  12.507
 1159SOL    HW1 5251   2.182   6.964  12.477
 1159SOL    HW2 5252   2.076   6.862  12.510
 1160SOL     OW 5253   2.573   0.782   4.553
 1160SOL    HW1 5254   2.580   0.767   4.458
 1160SOL    HW2 5255   2.652   0.743   4.589
 1161SOL     OW 5256  10.553   2.291   2.286
 1161SOL    HW1 5257  10.515   2.319   2.370
 1161SOL    HW2 5258  10.643   2.324   2.290
 1162SOL     OW 5259  12.332  13.269   9.116
 1162SOL    HW1 5260  12.241  13.241   9.129
 1162SOL    HW2 5261  12.328  13.326   9.039
 1163SOL     OW 5262   5.100  12.481   0.156
 1163SOL    HW1 5263   5.136  12.528   0.231
 1163SOL    HW2 5264   5.163  12.494   0.086
 1164SOL     OW 5265  12.187   9.105   5.079
 1164SOL    HW1 5266  12.201   9.031   5.138
 1164SOL    HW2 5267  12.196   9.182   5.135
 1165SOL     OW 5268   9.635  10.472  14.755
 1165SOL    HW1 5269   9.696  10.402  14.777
 1165SOL    HW2 5270   9.549  10.432  14.765
 1166SOL     OW 5271   0.404  12.993   1.017
 1166SOL    HW1 5272   0.492  12.963   0.994
 1166SOL    HW2 5273   0.416  13.043   1.098
 1167SOL     OW 5274   3.760   0.395   1.283
 1167SOL    HW1 5275   3.768   0.391   1.379
 1167SOL    HW2 5276   3.762   0.304   1.255
 1168SOL     OW 5277   5.093   5.279  10.188
 1168SOL    HW1 5278   5.104   5.237  10.103
 1168SOL    HW2 5279   5.172   5.332  10.200
 1169SOL     OW 5280  10.338   1.455   2.947
 1169SOL    HW1 5281  10.422   1.495   2.923
 1169SOL    HW2 5282  10.273   1.520   2.922
 1170SOL     OW 5283   2.233  11.903  13.337
 1170SOL    HW1 5284   2.215  11.836  13.402
 1170SOL    HW2 5285   2.300  11.865  13.281
 1171SOL     OW 5286   7.236  13.606   9.187
 1171SOL    HW1 5287   7.216  13.526   9.236
 1171SOL    HW2 5288   7.196  13.676   9.238
 1172SOL     OW 5289   1.919  12.320   4.501
 1172SOL    HW1 5290   1.829  12.353   4.501
 1172SOL    HW2 5291   1.942  12.310   4.409
 1173SOL     OW 5292  12.963  11.456   3.662
 1173SOL    HW1 5293  13.050  11.472   3.626
 1173SOL    HW2 5294  12.959  11.509   3.741
 1174SOL     OW 5295   2.507   4.643   9.689
 1174SOL    HW1 5296   2.501   4.730   9.729
 1174SOL    HW2 5297   2.484   4.658   9.597
 1175SOL     OW 5298   7.350   8.467   2.054
 1175SOL    HW1 5299   7.438   8.451   2.020
 1175SOL    HW2 5300   7.355   8.442   2.146
 1176SOL     OW 5301  11.320  10.660  14.447
 1176SOL    HW1 5302  11.256  10.627  14.384
 1176SOL    HW2 5303  11.315  10.755  14.439
 1177SOL     OW 5304   1.802   9.438  12.062
 1177SOL    HW1 5305   1.869   9.415  11.998
 1177SOL    HW2 5306   1.772   9.525  12.036
 1178SOL     OW 5307   9.291   2.897   7.896
 1178SOL    HW1 5308   9.280   2.953   7.819
 1178SOL    HW2 5309   9.259   2.811   7.868
 1179SOL     OW 5310   6.762  12.373   9.158
 1179SOL    HW1 5311   6.760  12.427   9.079
 1179SOL    HW2 5312   6.731  12.431   9.227
 1180SOL     OW 5313  12.700  12.141   6.794
 1180SOL    HW1 5314  12.786  12.181   6.806
 1180SOL    HW2 5315  12.648  12.175   6.866
 1181SOL     OW 5316  11.932  13.840   7.767
 1181SOL    HW1 5317  11.847  13.865   7.731
 1181SOL    HW2 5318  11.995  13.864   7.699
 1182SOL     OW 5319   5.209  10.811   8.604
 1182SOL    HW1 5320   5.248  10.774   8.524
 1182SOL    HW2 5321   5.247  10.899   8.609
 1183SOL     OW 5322   8.127   0.695  10.370
 1183SOL    HW1 5323   8.180   0.771  10.345
 1183SOL    HW2 5324   8.165   0.622  10.321
 1184SOL     OW 5325  14.049   6.344   4.533
 1184SOL    HW1 5326  14.107   6.417   4.511
 1184SOL    HW2 5327  14.049   6.288   4.456
 1185SOL     OW 5328  14.435   7.359   7.743
 1185SOL    HW1 5329  14.461   7.300   7.673
 1185SOL    HW2 5330  14.342   7.340   7.757
 1186SOL     OW 5331   7.498  12.144   9.126
 1186SOL    HW1 5332   7.411  12.152   9.166
 1186SOL    HW2 5333   7.556  12.191   9.186
 1187SOL     OW 5334   4.097   9.725   1.811
 1187SOL    HW1 5335   4.008   9.739   1.843
 1187SOL    HW2 5336   4.151   9.785   1.862
 1188SOL     OW 5337   5.629  13.288  13.296
 1188SOL    HW1 5338   5.716  13.248  13.302
 1188SOL    HW2 5339   5.646  13.382  13.291
 1189SOL     OW 5340  13.468  12.609  13.844
 1189SOL    HW1 5341  13.413  12.667  13.791
 1189SOL    HW2 5342  13.407  12.548  13.884
 1190SOL     OW 5343   8.818   0.283   2.920
 1190SOL    HW1 5344   8.783   0.349   2.861
 1190SOL    HW2 5345   8.905   0.263   2.886
 1191SOL     OW 5346  10.491  11.108  13.879
 1191SOL    HW1 5347  10.562  11.077  13.936
 1191SOL    HW2 5348  10.535  11.157  13.809
 1192SOL     OW 5349   3.903  10.254   6.280
 1192SOL    HW1 5350   3.863  10.186   6.226
 1192SOL    HW2 5351   3.970  10.294   6.224
 1193SOL     OW 5352   8.260  12.096   0.571
 1193SOL    HW1 5353   8.173  12.127   0.594
 1193SOL    HW2 5354   8.278  12.133   0.485
 1194SOL     OW 5355  10.184  13.800   9.433
 1194SOL    HW1 5356  10.154  13.710   9.448
 1194SOL    HW2 5357  10.271  13.791   9.394
 1195SOL     OW 5358   4.050   0.147  11.138
 1195SOL    HW1 5359   3.999   0.104  11.206
 1195SOL    HW2 5360   4.133   0.169  11.181
 1196SOL     OW 5361   4.591   1.246   8.001
 1196SOL    HW1 5362   4.623   1.173   7.948
 1196SOL    HW2 5363   4.670   1.294   8.026
 1197SOL     OW 5364   0.957   2.078  10.108
 1197SOL    HW1 5365   1.017   2.129  10.163
 1197SOL    HW2 5366   0.948   1.995  10.154
 1198SOL     OW 5367   9.078   6.155  11.169
 1198SOL    HW1 5368   9.008   6.150  11.235
 1198SOL    HW2 5369   9.061   6.082  11.111
 1199SOL     OW 5370   0.504   1.115   4.948
 1199SOL    HW1 5371   0.598   1.101   4.938
 1199SOL    HW2 5372   0.471   1.032   4.983
 1200SOL     OW 5373   8.163   7.169   4.568
 1200SOL    HW1 5374   8.195   7.190   4.656
 1200SOL    HW2 5375   8.115   7.087   4.580
 1201SOL     OW 5376   9.146   7.811   3.384
 1201SOL    HW1 5377   9.105   7.730   3.415
 1201SOL    HW2 5378   9.090   7.840   3.312
 1202SOL     OW 5379   3.432   0.190  13.846
 1202SOL    HW1 5380   3.506   0.129  13.855
 1202SOL    HW2 5381   3.395   0.196  13.934
 1203SOL     OW 5382   8.740   6.816  13.394
 1203SOL    HW1 5383   8.727   6.865  13.475
 1203SOL    HW2 5384   8.736   6.883  13.325
 1204SOL     OW 5385   1.641   5.115  14.373
 1204SOL    HW1 5386   1.615   5.198  14.333
 1204SOL    HW2 5387   1.695   5.072  14.307
 1205SOL     OW 5388   6.504  14.026   9.875
 1205SOL    HW1 5389   6.503  14.088   9.802
 1205SOL    HW2 5390   6.415  13.991   9.879
 1206SOL     OW 5391   1.178  13.932   3.523
 1206SOL    HW1 5392   1.142  13.955   3.608
 1206SOL    HW2 5393   1.199  13.839   3.529
 1207SOL     OW 5394  14.411   4.840  11.194
 1207SOL    HW1 5395  14.386   4.753  11.163
 1207SOL    HW2 5396  14.416   4.893  11.115
 1208SOL     OW 5397  12.335  10.860  11.714
 1208SOL    HW1 5398  12.353  10.824  11.627
 1208SOL    HW2 5399  12.309  10.950  11.699
 1209SOL     OW 5400   3.855  10.238   7.740
 1209SOL    HW1 5401   3.796  10.293   7.792
 1209SOL    HW2 5402   3.935  10.290   7.734
 1210SOL     OW 5403   3.041   7.334   6.662
 1210SOL    HW1 5404   3.082   7.297   6.584
 1210SOL    HW2 5405   3.053   7.428   6.654
 1211SOL     OW 5406   9.441  10.967   0.941
 1211SOL    HW1 5407   9.405  10.888   0.902
 1211SOL    HW2 5408   9.522  10.983   0.893
 1212SOL     OW 5409   4.947   9.445  12.112
 1212SOL    HW1 5410   5.015   9.383  12.139
 1212SOL    HW2 5411   4.975   9.475  12.026
 1213SOL     OW 5412   4.595   3.579   7.660
 1213SOL    HW1 5413   4.671   3.564   7.603
 1213SOL    HW2 5414   4.554   3.658   7.624
 1214SOL     OW 5415  11.788   7.499   6.969
 1214SOL    HW1 5416  11.841   7.577   6.952
 1214SOL    HW2 5417  11.851   7.431   6.990
 1215SOL     OW 5418   8.865   2.905   8.716
 1215SOL    HW1 5419   8.911   2.931   8.796
 1215SOL    HW2 5420   8.777   2.882   8.745
 1216SOL     OW 5421   7.705   3.039   1.067
 1216SOL    HW1 5422   7.708   2.946   1.048
 1216SOL    HW2 5423   7.612   3.060   1.073
 1217SOL     OW 5424   6.253   1.800  14.223
 1217SOL    HW1 5425   6.273   1.848  14.303
 1217SOL    HW2 5426   6.163   1.824  14.202
 1218SOL     OW 5427   3.926   0.288   4.313
 1218SOL    HW1 5428   3.970   0.356   4.262
 1218SOL    HW2 5429   3.931   0.319   4.404
 1219SOL     OW 5430  12.568  14.861  10.170
 1219SOL    HW1 5431  12.627  14.786  10.175
 1219SOL    HW2 5432  12.521  14.849  10.087
 1220SOL     OW 5433  14.592   3.293   8.787
 1220SOL    HW1 5434  14.512   3.286   8.839
 1220SOL    HW2 5435  14.581   3.375   8.738
 1221SOL     OW 5436   1.881  10.447  13.387
 1221SOL    HW1 5437   1.926  10.425  13.468
 1221SOL    HW2 5438   1.809  10.384  13.381
 1222SOL     OW 5439   0.240   9.219   1.220
 1222SOL    HW1 5440   0.218   9.186   1.307
 1222SOL    HW2 5441   0.158   9.259   1.189
 1223SOL     OW 5442   7.206   9.913   8.741
 1223SOL    HW1 5443   7.216  10.008   8.751
 1223SOL    HW2 5444   7.140   9.889   8.806
 1224SOL     OW 5445  14.266  11.998  14.806
 1224SOL    HW1 5446  14.302  12.077  14.765
 1224SOL    HW2 5447  14.211  12.031  14.877
 1225SOL     OW 5448   7.017   5.622   2.547
 1225SOL    HW1 5449   7.091   5.647   2.491
 1225SOL    HW2 5450   7.017   5.526   2.546
 1226SOL     OW 5451   5.127   1.436   8.038
 1226SOL    HW1 5452   5.143   1.400   7.951
 1226SOL    HW2 5453   5.102   1.527   8.022
 1227SOL     OW 5454   6.876  12.202  12.498
 1227SOL    HW1 5455   6.940  12.175  12.564
 1227SOL    HW2 5456   6.805  12.242  12.547
 1228SOL     OW 5457  10.205  11.615   6.646
 1228SOL    HW1 5458  10.193  11.534   6.696
 1228SOL    HW2 5459  10.286  11.653   6.680
 1229SOL     OW 5460   8.403  14.463  11.994
 1229SOL    HW1 5461   8.397  14.551  11.958
 1229SOL    HW2 5462   8.362  14.407  11.928
 1230SOL     OW 5463  14.805   9.423   8.631
 1230SOL    HW1 5464  14.805   9.449   8.723
 1230SOL    HW2 5465  14.812   9.327   8.633
 1231SOL     OW 5466   4.312  13.299  12.179
 1231SOL    HW1 5467   4.327  13.236  12.108
 1231SOL    HW2 5468   4.385  13.286  12.239
 1232SOL     OW 5469   0.549   5.588   2.654
 1232SOL    HW1 5470   0.533   5.495   2.672
 1232SOL    HW2 5471   0.476   5.614   2.597
 1233SOL     OW 5472  11.541   6.588  11.880
 1233SOL    HW1 5473  11.625   6.591  11.836
 1233SOL    HW2 5474  11.480   6.632  11.820
 1234SOL     OW 5475   8.818   3.698   1.808
 1234SOL    HW1 5476   8.829   3.784   1.767
 1234SOL    HW2 5477   8.870   3.639   1.754
 1235SOL     OW 5478  12.382   4.464   7.417
 1235SOL    HW1 5479  12.407   4.476   7.509
 1235SOL    HW2 5480  12.334   4.381   7.416
 1236SOL     OW 5481   9.762   9.951   0.025
 1236SOL    HW1 5482   9.808   9.936  14.820
 1236SOL    HW2 5483   9.810   9.898   0.089
 1237SOL     OW 5484   2.900   6.237  14.416
 1237SOL    HW1 5485   2.809   6.266  14.410
 1237SOL    HW2 5486   2.941   6.270  14.337
 1238SOL     OW 5487   1.250  10.917   6.604
 1238SOL    HW1 5488   1.329  10.970   6.591
 1238SOL    HW2 5489   1.245  10.905   6.699
 1239SOL     OW 5490   0.058   1.213   1.931
 1239SOL    HW1 5491   0.044   1.122   1.957
 1239SOL    HW2 5492  14.870   1.229   1.863
 1240SOL     OW 5493   5.099   6.250   2.293
 1240SOL    HW1 5494   5.142   6.307   2.357
 1240SOL    HW2 5495   5.007   6.248   2.322
 1241SOL     OW 5496   1.746   5.942   8.615
 1241SOL    HW1 5497   1.837   5.916   8.629
 1241SOL    HW2 5498   1.750   6.000   8.538
 1242SOL     OW 5499   8.409   3.375  12.248
 1242SOL    HW1 5500   8.376   3.371  12.338
 1242SOL    HW2 5501   8.462   3.454  12.245
 1243SOL     OW 5502   0.884   4.347  11.222
 1243SOL    HW1 5503   0.853   4.419  11.167
 1243SOL    HW2 5504   0.848   4.268  11.182
 1244SOL     OW 5505  11.011  13.661   4.774
 1244SOL    HW1 5506  11.054  13.580   4.748
 1244SOL    HW2 5507  11.067  13.696   4.843
 1245SOL     OW 5508   5.766   4.009  10.732
 1245SOL    HW1 5509   5.698   3.971  10.787
 1245SOL    HW2 5510   5.798   4.084  10.781
 1246SOL     OW 5511   5.004  10.807   9.647
 1246SOL    HW1 5512   4.949  10.881   9.673
 1246SOL    HW2 5513   4.981  10.737   9.708
 1247SOL     OW 5514   0.454   1.372  10.600
 1247SOL    HW1 5515   0.406   1.366  10.683
 1247SOL    HW2 5516   0.483   1.282  10.583
 1248SOL     OW 5517   4.992   3.896   7.358
 1248SOL    HW1 5518   5.082   3.880   7.387
 1248SOL    HW2 5519   5.001   3.948   7.278
 1249SOL     OW 5520   8.101  11.768  13.686
 1249SOL    HW1 5521   8.065  11.840  13.634
 1249SOL    HW2 5522   8.071  11.784  13.775
 1250SOL     OW 5523   9.568   5.834   1.974
 1250SOL    HW1 5524   9.624   5.847   1.898
 1250SOL    HW2 5525   9.569   5.918   2.020
 1251SOL     OW 5526   7.054  14.276   2.273
 1251SOL    HW1 5527   7.114  14.202   2.268
 1251SOL    HW2 5528   6.987  14.249   2.335
 1252SOL     OW 5529   8.126   5.712  10.100
 1252SOL    HW1 5530   8.153   5.670  10.018
 1252SOL    HW2 5531   8.031   5.723  10.091
 1253SOL     OW 5532   6.875   3.299  14.678
 1253SOL    HW1 5533   6.820   3.363  14.722
 1253SOL    HW2 5534   6.817   3.223  14.666
 1254SOL     OW 5535   8.922  13.443   7.902
 1254SOL    HW1 5536   8.903  13.368   7.958
 1254SOL    HW2 5537   8.838  13.463   7.860
 1255SOL     OW 5538   0.987   8.564   2.958
 1255SOL    HW1 5539   1.072   8.589   2.923
 1255SOL    HW2 5540   0.926   8.576   2.885
 1256SOL     OW 5541   2.266  11.493   6.529
 1256SOL    HW1 5542   2.211  11.548   6.583
 1256SOL    HW2 5543   2.356  11.521   6.550
 1257SOL     OW 5544   3.350  13.139   1.885
 1257SOL    HW1 5545   3.408  13.063   1.889
 1257SOL    HW2 5546   3.408  13.213   1.870
 1258SOL     OW 5547   7.648   5.012   7.628
 1258SOL    HW1 5548   7.619   5.102   7.637
 1258SOL    HW2 5549   7.737   5.018   7.592
 1259SOL     OW 5550   0.177   0.158   4.221
 1259SOL    HW1 5551   0.140   0.170   4.134
 1259SOL    HW2 5552   0.200   0.247   4.250
 1260SOL     OW 5553   8.465   4.309  10.985
 1260SOL    HW1 5554   8.430   4.376  11.044
 1260SOL    HW2 5555   8.476   4.355  10.902
 1261SOL     OW 5556  10.640   6.773   8.979
 1261SOL    HW1 5557  10.668   6.865   8.973
 1261SOL    HW2 5558  10.545   6.777   8.970
 1262SOL     OW 5559   4.360   4.009  14.731
 1262SOL    HW1 5560   4.321   3.980  14.649
 1262SOL    HW2 5561   4.321   3.950  14.797
 1263SOL     OW 5562   4.344   2.711  11.467
 1263SOL    HW1 5563   4.291   2.658  11.527
 1263SOL    HW2 5564   4.293   2.791  11.454
 1264SOL     OW 5565   2.076  14.163   8.319
 1264SOL    HW1 5566   2.051  14.186   8.230
 1264SOL    HW2 5567   1.995  14.173   8.370
 1265SOL     OW 5568   8.966   0.709  10.008
 1265SOL    HW1 5569   8.889   0.671  10.050
 1265SOL    HW2 5570   9.021   0.634   9.986
 1266SOL     OW 5571   5.716   8.541   2.392
 1266SOL    HW1 5572   5.772   8.564   2.318
 1266SOL    HW2 5573   5.731   8.448   2.405
 1267SOL     OW 5574   8.552  11.423   2.079
 1267SOL    HW1 5575   8.474  11.369   2.073
 1267SOL    HW2 5576   8.614  11.383   2.018
 1268SOL     OW 5577   2.347   9.844   1.247
 1268SOL    HW1 5578   2.392   9.865   1.329
 1268SOL    HW2 5579   2.283   9.914   1.236
 1269SOL     OW 5580   2.052  13.121  13.889
 1269SOL    HW1 5581   1.985  13.186  13.910
 1269SOL    HW2 5582   2.067  13.132  13.795
 1270SOL     OW 5583  14.015   6.717  13.528
 1270SOL    HW1 5584  14.110   6.726  13.521
 1270SOL    HW2 5585  14.000   6.685  13.618
 1271SOL     OW 5586   6.186  11.123  14.703
 1271SOL    HW1 5587   6.103  11.090  14.737
 1271SOL    HW2 5588   6.243  11.127  14.780
 1272SOL     OW 5589  12.244  13.499   0.434
 1272SOL    HW1 5590  12.190  13.546   0.498
 1272SOL    HW2 5591  12.271  13.419   0.480
 1273SOL     OW 5592   1.009   8.183   6.186
 1273SOL    HW1 5593   1.033   8.153   6.098
 1273SOL    HW2 5594   0.951   8.115   6.219
 1274SOL     OW 5595   4.299  11.966  14.803
 1274SOL    HW1 5596   4.213  12.005  14.821
 1274SOL    HW2 5597   4.345  11.968   0.010
 1275SOL     OW 5598  14.576   6.413   0.081
 1275SOL    HW1 5599  14.651   6.407   0.140
 1275SOL    HW2 5600  14.499   6.411   0.138
 1276SOL     OW 5601   5.365   8.313  13.062
 1276SOL    HW1 5602   5.290   8.257  13.080
 1276SOL    HW2 5603   5.360   8.332  12.968
 1277SOL     OW 5604   1.585  10.216   8.907
 1277SOL    HW1 5605   1.651  10.285   8.915
 1277SOL    HW2 5606   1.586  10.172   8.992
 1278SOL     OW 5607   9.950   3.199  10.083
 1278SOL    HW1 5608   9.986   3.252  10.012
 1278SOL    HW2 5609   9.884   3.144  10.041
 1279SOL     OW 5610   7.653  11.492   1.265
 1279SOL    HW1 5611   7.718  11.526   1.204
 1279SOL    HW2 5612   7.601  11.431   1.214
 1280SOL     OW 5613   9.608  10.334   1.313
 1280SOL    HW1 5614   9.523  10.372   1.292
 1280SOL    HW2 5615   9.589  10.241   1.328
 1281SOL     OW 5616   7.472  13.862  13.204
 1281SOL    HW1 5617   7.482  13.957  13.212
 1281SOL    HW2 5618   7.559  13.830  13.181
 1282SOL     OW 5619   8.611   0.788   9.458
 1282SOL    HW1 5620   8.654   0.869   9.488
 1282SOL    HW2 5621   8.681   0.737   9.419
 1283SOL     OW 5622   9.281  13.419   7.266
 1283SOL    HW1 5623   9.224  13.486   7.302
 1283SOL    HW2 5624   9.370  13.446   7.290
 1284SOL     OW 5625   8.139   3.481   8.209
 1284SOL    HW1 5626   8.149   3.392   8.177
 1284SOL    HW2 5627   8.195   3.534   8.151
 1285SOL     OW 5628   3.827  14.238  14.208
 1285SOL    HW1 5629   3.902  14.178  14.212
 1285SOL    HW2 5630   3.820  14.261  14.115
 1286SOL     OW 5631  12.836   4.083   9.514
 1286SOL    HW1 5632  12.823   4.083   9.609
 1286SOL    HW2 5633  12.829   4.175   9.489
 1287SOL     OW 5634  11.511   0.633   0.536
 1287SOL    HW1 5635  11.439   0.671   0.586
 1287SOL    HW2 5636  11.570   0.707   0.519
 1288SOL     OW 5637   2.066  13.880   9.934
 1288SOL    HW1 5638   2.150  13.896   9.977
 1288SOL    HW2 5639   2.005  13.939   9.978
 1289SOL     OW 5640  13.691   0.146   6.232
 1289SOL    HW1 5641  13.776   0.110   6.207
 1289SOL    HW2 5642  13.712   0.233   6.268
 1290SOL     OW 5643   7.516   1.426  10.152
 1290SOL    HW1 5644   7.575   1.436  10.077
 1290SOL    HW2 5645   7.493   1.516  10.175
 1291SOL     OW 5646   7.681   6.798  12.129
 1291SOL    HW1 5647   7.757   6.803  12.070
 1291SOL    HW2 5648   7.627   6.873  12.105
 1292SOL     OW 5649   4.006   7.829  12.267
 1292SOL    HW1 5650   4.095   7.851  12.296
 1292SOL    HW2 5651   4.002   7.733  12.271
 1293SOL     OW 5652   2.608   9.248   5.175
 1293SOL    HW1 5653   2.551   9.180   5.140
 1293SOL    HW2 5654   2.630   9.302   5.099
 1294SOL     OW 5655   8.071   7.736   7.595
 1294SOL    HW1 5656   8.013   7.754   7.669
 1294SOL    HW2 5657   8.156   7.717   7.636
 1295SOL     OW 5658  10.837   5.144   4.918
 1295SOL    HW1 5659  10.850   5.108   4.830
 1295SOL    HW2 5660  10.925   5.147   4.956
 1296SOL     OW 5661   7.435   2.227   0.989
 1296SOL    HW1 5662   7.406   2.136   0.986
 1296SOL    HW2 5663   7.445   2.247   1.082
 1297SOL     OW 5664   8.359   9.448   4.374
 1297SOL    HW1 5665   8.299   9.390   4.420
 1297SOL    HW2 5666   8.394   9.506   4.442
 1298SOL     OW 5667  13.901  13.876   8.742
 1298SOL    HW1 5668  13.964  13.931   8.788
 1298SOL    HW2 5669  13.863  13.821   8.810
 1299SOL     OW 5670  12.448   7.133   7.032
 1299SOL    HW1 5671  12.505   7.209   7.038
 1299SOL    HW2 5672  12.507   7.060   7.013
 1300SOL     OW 5673   3.794   7.651   5.532
 1300SOL    HW1 5674   3.885   7.673   5.512
 1300SOL    HW2 5675   3.784   7.673   5.625
 1301SOL     OW 5676   2.670   6.279   7.665
 1301SOL    HW1 5677   2.632   6.266   7.751
 1301SOL    HW2 5678   2.752   6.229   7.666
 1302SOL     OW 5679   7.885  14.247   6.424
 1302SOL    HW1 5680   7.878  14.188   6.349
 1302SOL    HW2 5681   7.795  14.277   6.440
 1303SOL     OW 5682  10.561   5.091   5.214
 1303SOL    HW1 5683  10.587   5.168   5.263
 1303SOL    HW2 5684  10.569   5.019   5.277
 1304SOL     OW 5685   6.683   9.546   5.327
 1304SOL    HW1 5686   6.738   9.483   5.374
 1304SOL    HW2 5687   6.665   9.503   5.243
 1305SOL     OW 5688   0.266   1.296   2.209
 1305SOL    HW1 5689   0.182   1.335   2.182
 1305SOL    HW2 5690   0.243   1.239   2.282
 1306SOL     OW 5691   6.910   8.486   6.763
 1306SOL    HW1 5692   6.833   8.513   6.712
 1306SOL    HW2 5693   6.939   8.405   6.721
 1307SOL     OW 5694  12.563   4.431  13.070
 1307SOL    HW1 5695  12.628   4.382  13.120
 1307SOL    HW2 5696  12.596   4.521  13.070
 1308SOL     OW 5697  13.062  12.808  12.704
 1308SOL    HW1 5698  13.146  12.766  12.721
 1308SOL    HW2 5699  12.998  12.738  12.716
 1309SOL     OW 5700   9.560   4.386   2.738
 1309SOL    HW1 5701   9.636   4.406   2.793
 1309SOL    HW2 5702   9.592   4.395   2.648
 1310SOL     OW 5703  10.046   0.927  10.483
 1310SOL    HW1 5704  10.054   0.835  10.507
 1310SOL    HW2 5705   9.952   0.941  10.473
 1311SOL     OW 5706   2.679   3.487  13.114
 1311SOL    HW1 5707   2.672   3.580  13.135
 1311SOL    HW2 5708   2.686   3.484  13.018
 1312SOL     OW 5709   4.759   5.861   2.804
 1312SOL    HW1 5710   4.705   5.940   2.810
 1312SOL    HW2 5711   4.787   5.859   2.713
 1313SOL     OW 5712   5.856  10.626   2.152
 1313SOL    HW1 5713   5.781  10.573   2.180
 1313SOL    HW2 5714   5.923  10.562   2.129
 1314SOL     OW 5715   6.577  13.514   5.021
 1314SOL    HW1 5716   6.584  13.541   4.929
 1314SOL    HW2 5717   6.485  13.530   5.042
 1315SOL     OW 5718  13.178   7.220   8.031
 1315SOL    HW1 5719  13.124   7.216   8.110
 1315SOL    HW2 5720  13.120   7.192   7.961
 1316SOL     OW 5721   6.529   7.070  13.935
 1316SOL    HW1 5722   6.581   7.110  13.865
 1316SOL    HW2 5723   6.593   7.054  14.005
 1317SOL     OW 5724  12.202   8.915  12.470
 1317SOL    HW1 5725  12.277   8.962  12.506
 1317SOL    HW2 5726  12.208   8.827  12.509
 1318SOL     OW 5727   3.189  13.162  12.060
 1318SOL    HW1 5728   3.186  13.254  12.034
 1318SOL    HW2 5729   3.102  13.129  12.039
 1319SOL     OW 5730   9.451   4.531   1.119
 1319SOL    HW1 5731   9.408   4.512   1.036
 1319SOL    HW2 5732   9.542   4.549   1.097
 1320SOL     OW 5733   7.758  10.951   6.612
 1320SOL    HW1 5734   7.766  11.047   6.606
 1320SOL    HW2 5735   7.847  10.921   6.625
 1321SOL     OW 5736  14.458   6.415  13.089
 1321SOL    HW1 5737  14.528   6.463  13.043
 1321SOL    HW2 5738  14.400   6.385  13.019
 1322SOL     OW 5739   8.506  11.201  14.474
 1322SOL    HW1 5740   8.511  11.195  14.570
 1322SOL    HW2 5741   8.423  11.159  14.452
 1323SOL     OW 5742  13.694   2.956   1.868
 1323SOL    HW1 5743  13.604   2.929   1.884
 1323SOL    HW2 5744  13.719   2.911   1.787
 1324SOL     OW 5745   8.850   3.893   9.939
 1324SOL    HW1 5746   8.780   3.877  10.002
 1324SOL    HW2 5747   8.855   3.812   9.888
 1325SOL     OW 5748   4.722   3.051   5.780
 1325SOL    HW1 5749   4.636   3.086   5.806
 1325SOL    HW2 5750   4.765   3.030   5.863
 1326SOL     OW 5751   2.146   5.012  11.836
 1326SOL    HW1 5752   2.060   4.980  11.865
 1326SOL    HW2 5753   2.167   5.082  11.898
 1327SOL     OW 5754   0.328  11.791   5.890
 1327SOL    HW1 5755   0.411  11.768   5.931
 1327SOL    HW2 5756   0.352  11.825   5.804
 1328SOL     OW 5757  13.126  10.484   3.029
 1328SOL    HW1 5758  13.204  10.435   3.056
 1328SOL    HW2 5759  13.059  10.460   3.093
 1329SOL     OW 5760   1.777  13.025   8.897
 1329SOL    HW1 5761   1.715  13.006   8.827
 1329SOL    HW2 5762   1.801  12.939   8.933
 1330SOL     OW 5763   6.652   6.287   9.965
 1330SOL    HW1 5764   6.589   6.220   9.993
 1330SOL    HW2 5765   6.737   6.246   9.977
 1331SOL     OW 5766   7.991   4.388   6.646
 1331SOL    HW1 5767   7.943   4.461   6.684
 1331SOL    HW2 5768   7.990   4.404   6.552
 1332SOL     OW 5769   2.087   9.757  13.381
 1332SOL    HW1 5770   2.104   9.666  13.406
 1332SOL    HW2 5771   2.118   9.809  13.456
 1333SOL     OW 5772  11.274   7.393   3.222
 1333SOL    HW1 5773  11.277   7.334   3.298
 1333SOL    HW2 5774  11.183   7.390   3.193
 1334SOL     OW 5775   9.931   5.471   0.849
 1334SOL    HW1 5776   9.975   5.528   0.912
 1334SOL    HW2 5777   9.853   5.520   0.823
 1335SOL     OW 5778   5.153  12.438   3.091
 1335SOL    HW1 5779   5.160  12.495   3.014
 1335SOL    HW2 5780   5.068  12.459   3.129
 1336SOL     OW 5781  12.095  10.156   4.386
 1336SOL    HW1 5782  12.149  10.094   4.434
 1336SOL    HW2 5783  12.048  10.102   4.321
 1337SOL     OW 5784   6.967  14.536  10.009
 1337SOL    HW1 5785   6.998  14.457   9.965
 1337SOL    HW2 5786   7.044  14.592  10.015
 1338SOL     OW 5787   2.542   0.668   6.154
 1338SOL    HW1 5788   2.593   0.673   6.073
 1338SOL    HW2 5789   2.478   0.599   6.138
 1339SOL     OW 5790   7.301  11.183   3.115
 1339SOL    HW1 5791   7.338  11.213   3.199
 1339SOL    HW2 5792   7.372  11.136   3.073
 1340SOL     OW 5793  13.039   1.772   2.513
 1340SOL    HW1 5794  13.025   1.859   2.475
 1340SOL    HW2 5795  12.962   1.757   2.567
 1341SOL     OW 5796  14.781   8.257  11.418
 1341SOL    HW1 5797  14.714   8.245  11.350
 1341SOL    HW2 5798  14.773   8.348  11.444
 1342SOL     OW 5799   8.732   4.922   6.116
 1342SOL    HW1 5800   8.655   4.889   6.069
 1342SOL    HW2 5801   8.798   4.935   6.047
 1343SOL     OW 5802  10.013   3.301   1.979
 1343SOL    HW1 5803   9.963   3.230   1.940
 1343SOL    HW2 5804   9.986   3.379   1.930
 1344SOL     OW 5805   8.895   6.971   6.743
 1344SOL    HW1 5806   8.930   6.886   6.714
 1344SOL    HW2 5807   8.862   6.954   6.831
 1345SOL     OW 5808   3.127   2.061   3.649
 1345SOL    HW1 5809   3.075   1.986   3.677
 1345SOL    HW2 5810   3.218   2.032   3.658
 1346SOL     OW 5811  14.781   4.287   5.634
 1346SOL    HW1 5812  14.741   4.355   5.687
 1346SOL    HW2 5813  14.789   4.212   5.693
 1347SOL     OW 5814   8.765   5.510  13.524
 1347SOL    HW1 5815   8.796   5.596  13.495
 1347SOL    HW2 5816   8.697   5.530  13.589
 1348SOL     OW 5817   1.185   3.082   8.006
 1348SOL    HW1 5818   1.094   3.078   7.976
 1348SOL    HW2 5819   1.195   3.004   8.062
 1349SOL     OW 5820   7.010   1.030   6.828
 1349SOL    HW1 5821   6.963   1.090   6.770
 1349SOL    HW2 5822   7.070   1.087   6.877
 1350SOL     OW 5823   9.155   2.209   2.470
 1350SOL    HW1 5824   9.173   2.123   2.508
 1350SOL    HW2 5825   9.238   2.256   2.475
 1351SOL     OW 5826   8.794   9.419  10.247
 1351SOL    HW1 5827   8.867   9.407  10.186
 1351SOL    HW2 5828   8.717   9.390  10.199
 1352SOL     OW 5829   4.484   3.091   8.754
 1352SOL    HW1 5830   4.428   3.033   8.805
 1352SOL    HW2 5831   4.484   3.053   8.666
 1353SOL     OW 5832   4.806   7.457   2.309
 1353SOL    HW1 5833   4.711   7.467   2.301
 1353SOL    HW2 5834   4.838   7.546   2.326
 1354SOL     OW 5835  10.470  13.891   3.677
 1354SOL    HW1 5836  10.503  13.981   3.686
 1354SOL    HW2 5837  10.396  13.898   3.618
 1355SOL     OW 5838  10.649   7.895  11.363
 1355SOL    HW1 5839  10.628   7.954  11.291
 1355SOL    HW2 5840  10.742   7.913  11.382
 1356SOL     OW 5841   8.586  10.940  12.238
 1356SOL    HW1 5842   8.506  10.991  12.232
 1356SOL    HW2 5843   8.641  10.974  12.167
 1357SOL     OW 5844   7.743   2.764   1.189
 1357SOL    HW1 5845   7.785   2.771   1.274
 1357SOL    HW2 5846   7.812   2.732   1.131
 1358SOL     OW 5847   2.535   3.527   5.231
 1358SOL    HW1 5848   2.529   3.451   5.173
 1358SOL    HW2 5849   2.464   3.515   5.294
 1359SOL     OW 5850  10.868   8.727   4.388
 1359SOL    HW1 5851  10.895   8.635   4.388
 1359SOL    HW2 5852  10.933   8.771   4.334
 1360SOL     OW 5853  11.757   2.391   4.875
 1360SOL    HW1 5854  11.753   2.373   4.969
 1360SOL    HW2 5855  11.744   2.305   4.834
 1361SOL     OW 5856  10.615   0.233   3.817
 1361SOL    HW1 5857  10.623   0.287   3.896
 1361SOL    HW2 5858  10.648   0.288   3.746
 1362SOL     OW 5859   9.899  12.096   4.977
 1362SOL    HW1 5860   9.877  12.175   4.927
 1362SOL    HW2 5861   9.918  12.128   5.066
 1363SOL     OW 5862   7.080  11.222   1.069
 1363SOL    HW1 5863   7.106  11.231   1.161
 1363SOL    HW2 5864   7.152  11.174   1.028
 1364SOL     OW 5865   3.330   6.067   2.195
 1364SOL    HW1 5866   3.293   6.075   2.283
 1364SOL    HW2 5867   3.393   6.138   2.188
 1365SOL     OW 5868   9.066  11.679   5.152
 1365SOL    HW1 5869   9.061  11.774   5.162
 1365SOL    HW2 5870   8.974  11.650   5.149
 1366SOL     OW 5871   3.354  11.055   4.578
 1366SOL    HW1 5872   3.331  11.145   4.555
 1366SOL    HW2 5873   3.281  11.003   4.546
 1367SOL     OW 5874   4.906   5.698  13.349
 1367SOL    HW1 5875   4.872   5.679  13.437
 1367SOL    HW2 5876   4.956   5.621  13.326
 1368SOL     OW 5877  14.446   4.665  14.384
 1368SOL    HW1 5878  14.540   4.660  14.404
 1368SOL    HW2 5879  14.422   4.755  14.405
 1369SOL     OW 5880  10.968   7.577  13.921
 1369SOL    HW1 5881  10.974   7.592  14.016
 1369SOL    HW2 5882  11.048   7.529  13.900
 1370SOL     OW 5883  12.251   3.086  13.300
 1370SOL    HW1 5884  12.256   3.106  13.394
 1370SOL    HW2 5885  12.207   3.161  13.262
 1371SOL     OW 5886  12.561   3.716   9.469
 1371SOL    HW1 5887  12.505   3.687   9.542
 1371SOL    HW2 5888  12.567   3.639   9.412
 1372SOL     OW 5889   0.494   2.013   3.728
 1372SOL    HW1 5890   0.556   2.085   3.735
 1372SOL    HW2 5891   0.408   2.053   3.737
 1373SOL     OW 5892   6.218   5.197   4.474
 1373SOL    HW1 5893   6.313   5.195   4.463
 1373SOL    HW2 5894   6.199   5.286   4.504
 1374SOL     OW 5895   0.533   6.143   4.757
 1374SOL    HW1 5896   0.490   6.173   4.677
 1374SOL    HW2 5897   0.460   6.131   4.819
 1375SOL     OW 5898  12.731   5.957   0.537
 1375SOL    HW1 5899  12.798   5.891   0.518
 1375SOL    HW2 5900  12.694   5.979   0.451
 1376SOL     OW 5901  13.283   8.312  14.796
 1376SOL    HW1 5902  13.206   8.269  14.758
 1376SOL    HW2 5903  13.250   8.395  14.830
 1377SOL     OW 5904   7.908   4.621  11.996
 1377SOL    HW1 5905   7.927   4.668  12.077
 1377SOL    HW2 5906   7.992   4.585  11.969
 1378SOL     OW 5907  10.666   8.329   4.728
 1378SOL    HW1 5908  10.637   8.337   4.637
 1378SOL    HW2 5909  10.655   8.236   4.748
 1379SOL     OW 5910   9.903  11.140   0.116
 1379SOL    HW1 5911   9.980  11.092   0.147
 1379SOL    HW2 5912   9.937  11.197   0.047
 1380SOL     OW 5913   2.896   6.076   8.035
 1380SOL    HW1 5914   2.861   5.987   8.030
 1380SOL    HW2 5915   2.943   6.079   8.118
 1381SOL     OW 5916  14.800   5.241   8.786
 1381SOL    HW1 5917   0.001   5.277   8.744
 1381SOL    HW2 5918  14.728   5.288   8.745
 1382SOL     OW 5919  12.738   5.938   7.493
 1382SOL    HW1 5920  12.760   5.970   7.581
 1382SOL    HW2 5921  12.742   6.016   7.437
 1383SOL     OW 5922   2.946  14.222   5.469
 1383SOL    HW1 5923   2.914  14.142   5.427
 1383SOL    HW2 5924   3.037  14.203   5.492
 1384SOL     OW 5925  13.115  12.807   3.395
 1384SOL    HW1 5926  13.166  12.793   3.315
 1384SOL    HW2 5927  13.076  12.893   3.384
 1385SOL     OW 5928   5.372   7.845   2.649
 1385SOL    HW1 5929   5.348   7.924   2.698
 1385SOL    HW2 5930   5.465   7.856   2.631
 1386SOL     OW 5931   5.397   8.211   1.617
 1386SOL    HW1 5932   5.331   8.160   1.663
 1386SOL    HW2 5933   5.349   8.253   1.545
 1387SOL     OW 5934   9.904  12.016   6.046
 1387SOL    HW1 5935   9.913  11.984   5.956
 1387SOL    HW2 5936   9.914  11.939   6.101
 1388SOL     OW 5937   6.097   3.024   6.365
 1388SOL    HW1 5938   6.065   3.070   6.442
 1388SOL    HW2 5939   6.150   3.089   6.319
 1389SOL     OW 5940   6.948  11.583   4.414
 1389SOL    HW1 5941   6.859  11.585   4.451
 1389SOL    HW2 5942   6.998  11.644   4.469
 1390SOL     OW 5943   3.795  11.164  13.323
 1390SOL    HW1 5944   3.866  11.103  13.342
 1390SOL    HW2 5945   3.731  11.111  13.275
 1391SOL     OW 5946   3.846   3.226   3.437
 1391SOL    HW1 5947   3.871   3.298   3.380
 1391SOL    HW2 5948   3.786   3.265   3.501
 1392SOL     OW 5949   1.994   4.258   4.341
 1392SOL    HW1 5950   1.932   4.190   4.316
 1392SOL    HW2 5951   1.977   4.273   4.434
 1393SOL     OW 5952   0.858   1.927  14.438
 1393SOL    HW1 5953   0.813   1.872  14.375
 1393SOL    HW2 5954   0.883   1.867  14.508
 1394SOL     OW 5955   4.190   2.751   3.966
 1394SOL    HW1 5956   4.150   2.729   3.881
 1394SOL    HW2 5957   4.222   2.840   3.954
 1395SOL     OW 5958  11.768  13.403   5.434
 1395SOL    HW1 5959  11.842  13.391   5.375
 1395SOL    HW2 5960  11.763  13.321   5.483
 1396SOL     OW 5961  13.872   7.393   9.619
 1396SOL    HW1 5962  13.859   7.424   9.530
 1396SOL    HW2 5963  13.848   7.467   9.674
 1397SOL     OW 5964  11.027   4.390   2.294
 1397SOL    HW1 5965  10.994   4.302   2.313
 1397SOL    HW2 5966  11.102   4.401   2.352
 1398SOL     OW 5967   0.067   9.909   5.612
 1398SOL    HW1 5968   0.156   9.874   5.615
 1398SOL    HW2 5969   0.018   9.857   5.675
 1399SOL     OW 5970   6.604   2.513   9.841
 1399SOL    HW1 5971   6.691   2.521   9.881
 1399SOL    HW2 5972   6.545   2.495   9.914
 1400SOL     OW 5973   1.232   3.323  13.588
 1400SOL    HW1 5974   1.215   3.378  13.665
 1400SOL    HW2 5975   1.326   3.333  13.572
 1401SOL     OW 5976   7.330   4.445  12.103
 1401SOL    HW1 5977   7.412   4.397  12.113
 1401SOL    HW2 5978   7.333   4.513  12.171
 1402SOL     OW 5979  11.787   3.691  14.394
 1402SOL    HW1 5980  11.799   3.739  14.312
 1402SOL    HW2 5981  11.695   3.665  14.394
 1403SOL     OW 5982   7.891  13.474   0.226
 1403SOL    HW1 5983   7.857  13.546   0.174
 1403SOL    HW2 5984   7.938  13.418   0.162
 1404SOL     OW 5985   6.354   9.400  14.245
 1404SOL    HW1 5986   6.371   9.322  14.193
 1404SOL    HW2 5987   6.392   9.381  14.331
 1405SOL     OW 5988  13.409   6.486  13.416
 1405SOL    HW1 5989  13.414   6.411  13.474
 1405SOL    HW2 5990  13.359   6.454  13.340
 1406SOL     OW 5991  14.800   5.063   0.723
 1406SOL    HW1 5992  14.791   5.139   0.780
 1406SOL    HW2 5993  14.831   4.993   0.780
 1407SOL     OW 5994  12.244  12.363   5.533
 1407SOL    HW1 5995  12.318  12.414   5.501
 1407SOL    HW2 5996  12.264  12.346   5.625
 1408SOL     OW 5997  14.505   2.936  11.727
 1408SOL    HW1 5998  14.586   2.887  11.714
 1408SOL    HW2 5999  14.503   2.954  11.821
 1409SOL     OW 6000   2.015   6.507   5.269
 1409SOL    HW1 6001   2.068   6.438   5.309
 1409SOL    HW2 6002   2.075   6.551   5.209
 1410SOL     OW 6003   7.013  14.692   5.896
 1410SOL    HW1 6004   6.939  14.711   5.840
 1410SOL    HW2 6005   7.075  14.763   5.879
 1411SOL     OW 6006   9.814   0.302  12.947
 1411SOL    HW1 6007   9.816   0.374  13.010
 1411SOL    HW2 6008   9.746   0.327  12.885
 1412SOL     OW 6009   1.595   0.427   5.914
 1412SOL    HW1 6010   1.640   0.348   5.882
 1412SOL    HW2 6011   1.555   0.399   5.996
 1413SOL     OW 6012  14.218   4.687  14.038
 1413SOL    HW1 6013  14.263   4.756  14.088
 1413SOL    HW2 6014  14.284   4.619  14.028
 1414SOL     OW 6015   9.769   4.583   5.593
 1414SOL    HW1 6016   9.748   4.674   5.570
 1414SOL    HW2 6017   9.768   4.582   5.689
 1415SOL     OW 6018  14.036  13.502  14.055
 1415SOL    HW1 6019  13.993  13.416  14.055
 1415SOL    HW2 6020  14.129  13.481  14.045
 1416SOL     OW 6021  12.846  12.990  12.385
 1416SOL    HW1 6022  12.788  12.931  12.433
 1416SOL    HW2 6023  12.789  13.063  12.359
 1417SOL     OW 6024  10.777   3.638   5.239
 1417SOL    HW1 6025  10.838   3.694   5.287
 1417SOL    HW2 6026  10.792   3.550   5.274
 1418SOL     OW 6027  11.630  11.087   5.610
 1418SOL    HW1 6028  11.620  10.994   5.589
 1418SOL    HW2 6029  11.702  11.117   5.555
 1419SOL     OW 6030   4.410   5.211  14.046
 1419SOL    HW1 6031   4.411   5.127  14.091
 1419SOL    HW2 6032   4.370   5.193  13.961
 1420SOL     OW 6033   3.488  13.857   4.623
 1420SOL    HW1 6034   3.549  13.892   4.688
 1420SOL    HW2 6035   3.413  13.828   4.673
 1421SOL     OW 6036  14.248  13.194  14.814
 1421SOL    HW1 6037  14.252  13.121  14.753
 1421SOL    HW2 6038  14.322  13.250  14.789
 1422SOL     OW 6039  12.119  10.800   8.073
 1422SOL    HW1 6040  12.053  10.788   8.142
 1422SOL    HW2 6041  12.199  10.764   8.109
 1423SOL     OW 6042  11.293  11.061   5.438
 1423SOL    HW1 6043  11.287  11.037   5.530
 1423SOL    HW2 6044  11.254  10.987   5.392
 1424SOL     OW 6045   9.361   0.148   1.151
 1424SOL    HW1 6046   9.300   0.146   1.225
 1424SOL    HW2 6047   9.445   0.172   1.190
 1425SOL     OW 6048  13.571  12.081  13.188
 1425SOL    HW1 6049  13.627  12.112  13.117
 1425SOL    HW2 6050  13.519  12.157  13.214
 1426SOL     OW 6051   1.018   4.081   7.881
 1426SOL    HW1 6052   1.004   4.166   7.923
 1426SOL    HW2 6053   0.944   4.072   7.820
 1427SOL     OW 6054   4.868  11.611  14.058
 1427SOL    HW1 6055   4.863  11.564  13.975
 1427SOL    HW2 6056   4.961  11.629  14.071
 1428SOL     OW 6057   1.525   2.592  13.125
 1428SOL    HW1 6058   1.519   2.678  13.167
 1428SOL    HW2 6059   1.613   2.561  13.145
 1429SOL     OW 6060   8.936   3.125  10.020
 1429SOL    HW1 6061   8.970   3.090  10.102
 1429SOL    HW2 6062   8.942   3.052   9.959
 1430SOL     OW 6063   1.047   9.949   7.284
 1430SOL    HW1 6064   1.060   9.888   7.357
 1430SOL    HW2 6065   1.078  10.033   7.318
 1431SOL     OW 6066   6.970  10.844  13.517
 1431SOL    HW1 6067   6.989  10.815  13.428
 1431SOL    HW2 6068   6.925  10.770  13.558
 1432SOL     OW 6069  11.881   6.790   6.840
 1432SOL    HW1 6070  11.801   6.809   6.889
 1432SOL    HW2 6071  11.863   6.824   6.752
 1433SOL     OW 6072   2.889   2.270   2.344
 1433SOL    HW1 6073   2.849   2.303   2.264
 1433SOL    HW2 6074   2.829   2.202   2.375
 1434SOL     OW 6075   4.300   1.547   6.801
 1434SOL    HW1 6076   4.343   1.553   6.886
 1434SOL    HW2 6077   4.238   1.620   6.801
 1435SOL     OW 6078  14.732   0.648   4.887
 1435SOL    HW1 6079  14.789   0.585   4.843
 1435SOL    HW2 6080  14.792   0.707   4.932
 1436SOL     OW 6081  13.771   3.849  14.874
 1436SOL    HW1 6082  13.813   3.781  14.822
 1436SOL    HW2 6083  13.678   3.842  14.851
 1437SOL     OW 6084   0.243   3.997  11.642
 1437SOL    HW1 6085   0.331   4.030  11.660
 1437SOL    HW2 6086   0.208   3.975  11.729
 1438SOL     OW 6087   2.934   3.203   9.840
 1438SOL    HW1 6088   2.938   3.250   9.756
 1438SOL    HW2 6089   2.903   3.115   9.817
 1439SOL     OW 6090  10.363   9.597   9.736
 1439SOL    HW1 6091  10.402   9.510   9.740
 1439SOL    HW2 6092  10.284   9.591   9.789
 1440SOL     OW 6093   8.901   5.764  13.542
 1440SOL    HW1 6094   8.864   5.776  13.455
 1440SOL    HW2 6095   8.988   5.804  13.537
 1441SOL     OW 6096   4.774  11.157   5.049
 1441SOL    HW1 6097   4.799  11.221   4.982
 1441SOL    HW2 6098   4.680  11.142   5.034
 1442SOL     OW 6099   9.929   6.360   6.394
 1442SOL    HW1 6100   9.844   6.373   6.434
 1442SOL    HW2 6101   9.977   6.305   6.456
 1443SOL     OW 6102   3.462  12.215   1.016
 1443SOL    HW1 6103   3.519  12.291   1.025
 1443SOL    HW2 6104   3.374  12.248   1.031
 1444SOL     OW 6105  12.958   9.215  14.598
 1444SOL    HW1 6106  12.940   9.308  14.589
 1444SOL    HW2 6107  12.876   9.178  14.632
 1445SOL     OW 6108   3.106   6.758  13.744
 1445SOL    HW1 6109   3.107   6.852  13.724
 1445SOL    HW2 6110   3.023   6.726  13.709
 1446SOL     OW 6111   8.832   1.465  12.718
 1446SOL    HW1 6112   8.915   1.507  12.739
 1446SOL    HW2 6113   8.767   1.516  12.766
 1447SOL     OW 6114  11.607   5.162   1.144
 1447SOL    HW1 6115  11.667   5.147   1.217
 1447SOL    HW2 6116  11.632   5.248   1.110
 1448SOL     OW 6117   4.235   5.672   8.706
 1448SOL    HW1 6118   4.322   5.642   8.731
 1448SOL    HW2 6119   4.246   5.704   8.616
 1449SOL     OW 6120   0.854   4.271   2.531
 1449SOL    HW1 6121   0.902   4.352   2.515
 1449SOL    HW2 6122   0.800   4.259   2.452
 1450SOL     OW 6123   0.711   2.132   7.166
 1450SOL    HW1 6124   0.661   2.203   7.205
 1450SOL    HW2 6125   0.648   2.061   7.153
 1451SOL     OW 6126  12.431  14.630   9.633
 1451SOL    HW1 6127  12.487  14.704   9.657
 1451SOL    HW2 6128  12.345  14.669   9.615
 1452SOL     OW 6129  12.614   1.771   3.754
 1452SOL    HW1 6130  12.521   1.752   3.742
 1452SOL    HW2 6131  12.617   1.833   3.827
 1453SOL     OW 6132  11.496  10.466   5.324
 1453SOL    HW1 6133  11.440  10.419   5.263
 1453SOL    HW2 6134  11.539  10.398   5.375
 1454SOL     OW 6135   3.150   6.255  14.191
 1454SOL    HW1 6136   3.158   6.348  14.214
 1454SOL    HW2 6137   3.195   6.247  14.107
 1455SOL     OW 6138  10.733   2.119  14.462
 1455SOL    HW1 6139  10.685   2.198  14.487
 1455SOL    HW2 6140  10.688   2.048  14.508
 1456SOL     OW 6141  10.572   9.380   2.725
 1456SOL    HW1 6142  10.612   9.428   2.798
 1456SOL    HW2 6143  10.560   9.291   2.758
 1457SOL     OW 6144   0.977   3.485  13.055
 1457SOL    HW1 6145   0.931   3.564  13.028
 1457SOL    HW2 6146   0.921   3.413  13.026
 1458SOL     OW 6147  12.051   3.797   9.207
 1458SOL    HW1 6148  11.969   3.747   9.205
 1458SOL    HW2 6149  12.098   3.770   9.128
 1459SOL     OW 6150  13.149   3.599  13.807
 1459SOL    HW1 6151  13.227   3.622  13.858
 1459SOL    HW2 6152  13.152   3.656  13.730
 1460SOL     OW 6153   5.412   1.288   5.443
 1460SOL    HW1 6154   5.454   1.206   5.468
 1460SOL    HW2 6155   5.368   1.268   5.360
 1461SOL     OW 6156  11.391   1.166  13.057
 1461SOL    HW1 6157  11.298   1.180  13.076
 1461SOL    HW2 6158  11.420   1.104  13.124
 1462SOL     OW 6159  14.018   0.360   3.302
 1462SOL    HW1 6160  13.964   0.285   3.329
 1462SOL    HW2 6161  14.104   0.321   3.285
 1463SOL     OW 6162  11.650   0.562  13.527
 1463SOL    HW1 6163  11.695   0.507  13.463
 1463SOL    HW2 6164  11.557   0.547  13.511
 1464SOL     OW 6165  11.999   0.606   7.188
 1464SOL    HW1 6166  11.964   0.528   7.145
 1464SOL    HW2 6167  12.020   0.665   7.116
 1465SOL     OW 6168   5.342  11.211   9.704
 1465SOL    HW1 6169   5.273  11.191   9.768
 1465SOL    HW2 6170   5.422  11.179   9.745
 1466SOL     OW 6171   9.890   7.126   6.604
 1466SOL    HW1 6172   9.801   7.127   6.641
 1466SOL    HW2 6173   9.894   7.205   6.549
 1467SOL     OW 6174   4.536  13.382  11.959
 1467SOL    HW1 6175   4.523  13.307  11.901
 1467SOL    HW2 6176   4.455  13.432  11.952
 1468SOL     OW 6177   3.208   5.325   0.980
 1468SOL    HW1 6178   3.256   5.312   1.062
 1468SOL    HW2 6179   3.137   5.260   0.983
 1469SOL     OW 6180   6.180  14.853   7.546
 1469SOL    HW1 6181   6.185  14.765   7.507
 1469SOL    HW2 6182   6.229  14.845   7.628
 1470SOL     OW 6183  12.254  13.725   7.990
 1470SOL    HW1 6184  12.189  13.783   8.028
 1470SOL    HW2 6185  12.215  13.638   7.993
 1471SOL     OW 6186   6.348   6.468  12.094
 1471SOL    HW1 6187   6.389   6.448  12.010
 1471SOL    HW2 6188   6.394   6.411  12.157
 1472SOL     OW 6189  12.949   1.121   6.326
 1472SOL    HW1 6190  12.984   1.103   6.413
 1472SOL    HW2 6191  12.868   1.170   6.342
 1473SOL     OW 6192   9.276   1.379   7.204
 1473SOL    HW1 6193   9.189   1.339   7.206
 1473SOL    HW2 6194   9.264   1.464   7.247
 1474SOL     OW 6195   8.516   9.952  12.255
 1474SOL    HW1 6196   8.464   9.926  12.331
 1474SOL    HW2 6197   8.464   9.926  12.180
 1475SOL     OW 6198   1.709   9.782   6.673
 1475SOL    HW1 6199   1.672   9.731   6.601
 1475SOL    HW2 6200   1.672   9.870   6.662
 1476SOL     OW 6201   8.649   8.802   6.031
 1476SOL    HW1 6202   8.556   8.784   6.016
 1476SOL    HW2 6203   8.693   8.770   5.953
 1477SOL     OW 6204   1.567   7.965  10.821
 1477SOL    HW1 6205   1.598   8.055  10.811
 1477SOL    HW2 6206   1.606   7.918  10.747
 1478SOL     OW 6207   8.393   5.320   3.735
 1478SOL    HW1 6208   8.463   5.312   3.800
 1478SOL    HW2 6209   8.431   5.374   3.665
 1479SOL     OW 6210  11.530   3.748  13.347
 1479SOL    HW1 6211  11.602   3.767  13.407
 1479SOL    HW2 6212  11.467   3.699  13.399
 1480SOL     OW 6213   3.462  13.911   8.124
 1480SOL    HW1 6214   3.423  13.995   8.150
 1480SOL    HW2 6215   3.490  13.871   8.206
 1481SOL     OW 6216  12.254  14.059  14.238
 1481SOL    HW1 6217  12.176  14.112  14.219
 1481SOL    HW2 6218  12.228  14.004  14.312
 1482SOL     OW 6219   5.388  10.696   3.713
 1482SOL    HW1 6220   5.425  10.784   3.711
 1482SOL    HW2 6221   5.405  10.661   3.626
 1483SOL     OW 6222   1.078   1.795   6.293
 1483SOL    HW1 6223   1.135   1.858   6.336
 1483SOL    HW2 6224   1.127   1.764   6.217
 1484SOL     OW 6225   2.345  11.316   7.898
 1484SOL    HW1 6226   2.341  11.392   7.841
 1484SOL    HW2 6227   2.383  11.348   7.980
 1485SOL     OW 6228   6.873  10.554  13.871
 1485SOL    HW1 6229   6.887  10.574  13.778
 1485SOL    HW2 6230   6.854  10.638  13.911
 1486SOL     OW 6231   7.858  12.261  10.590
 1486SOL    HW1 6232   7.779  12.313  10.578
 1486SOL    HW2 6233   7.891  12.247  10.501
 1487SOL     OW 6234  12.265   3.807  13.913
 1487SOL    HW1 6235  12.265   3.844  13.825
 1487SOL    HW2 6236  12.178   3.824  13.947
 1488SOL     OW 6237   6.593   1.105   8.946
 1488SOL    HW1 6238   6.591   1.108   9.042
 1488SOL    HW2 6239   6.537   1.031   8.923
 1489SOL     OW 6240   2.040   0.231   5.544
 1489SOL    HW1 6241   2.058   0.251   5.636
 1489SOL    HW2 6242   2.107   0.168   5.519
 1490SOL     OW 6243   2.698  14.689   3.899
 1490SOL    HW1 6244   2.651  14.629   3.842
 1490SOL    HW2 6245   2.644  14.695   3.978
 1491SOL     OW 6246  13.463   4.769   6.134
 1491SOL    HW1 6247  13.377   4.725   6.136
 1491SOL    HW2 6248  13.482   4.788   6.226
 1492SOL     OW 6249  12.232   0.137  10.657
 1492SOL    HW1 6250  12.306   0.101  10.607
 1492SOL    HW2 6251  12.209   0.218  10.612
 1493SOL     OW 6252   1.635   5.815  14.243
 1493SOL    HW1 6253   1.714   5.860  14.211
 1493SOL    HW2 6254   1.624   5.847  14.333
 1494SOL     OW 6255   6.326  11.519   6.548
 1494SOL    HW1 6256   6.376  11.437   6.546
 1494SOL    HW2 6257   6.388  11.585   6.576
 1495SOL     OW 6258  12.786   6.457   4.214
 1495SOL    HW1 6259  12.864   6.513   4.212
 1495SOL    HW2 6260  12.747   6.467   4.127
 1496SOL     OW 6261   5.270   4.060  13.319
 1496SOL    HW1 6262   5.261   4.130  13.255
 1496SOL    HW2 6263   5.323   4.098  13.390
 1497SOL     OW 6264   6.780   8.393   3.594
 1497SOL    HW1 6265   6.703   8.363   3.546
 1497SOL    HW2 6266   6.834   8.437   3.528
 1498SOL     OW 6267   4.298   3.721  10.089
 1498SOL    HW1 6268   4.349   3.802  10.095
 1498SOL    HW2 6269   4.218   3.739  10.138
 1499SOL     OW 6270  14.176  12.276  12.670
 1499SOL    HW1 6271  14.270  12.262  12.675
 1499SOL    HW2 6272  14.138  12.191  12.692
 1500SOL     OW 6273   0.743  13.484   6.169
 1500SOL    HW1 6274   0.807  13.535   6.120
 1500SOL    HW2 6275   0.784  13.398   6.180
 1501SOL     OW 6276   2.992  10.149  10.723
 1501SOL    HW1 6277   3.013  10.239  10.698
 1501SOL    HW2 6278   2.919  10.157  10.784
 1502SOL     OW 6279   9.447  11.302   4.712
 1502SOL    HW1 6280   9.463  11.347   4.795
 1502SOL    HW2 6281   9.473  11.211   4.728
 1503SOL     OW 6282   4.331  12.654  14.586
 1503SOL    HW1 6283   4.414  12.694  14.612
 1503SOL    HW2 6284   4.285  12.722  14.537
 1504SOL     OW 6285   1.502  12.748   8.035
 1504SOL    HW1 6286   1.424  12.778   8.081
 1504SOL    HW2 6287   1.558  12.826   8.028
 1505SOL     OW 6288   9.858  11.968  10.532
 1505SOL    HW1 6289   9.786  11.907  10.550
 1505SOL    HW2 6290   9.821  12.029  10.468
 1506SOL     OW 6291   4.003  12.660   0.823
 1506SOL    HW1 6292   3.941  12.732   0.811
 1506SOL    HW2 6293   4.011  12.621   0.736
 1507SOL     OW 6294  10.344   1.172   8.878
 1507SOL    HW1 6295  10.254   1.166   8.909
 1507SOL    HW2 6296  10.350   1.106   8.809
 1508SOL     OW 6297   6.556   8.551   1.321
 1508SOL    HW1 6298   6.530   8.559   1.413
 1508SOL    HW2 6299   6.502   8.615   1.275
 1509SOL     OW 6300   9.070   9.933  11.929
 1509SOL    HW1 6301   9.099  10.019  11.898
 1509SOL    HW2 6302   9.151   9.884  11.941
 1510SOL     OW 6303   3.177   1.523  14.543
 1510SOL    HW1 6304   3.219   1.574  14.474
 1510SOL    HW2 6305   3.237   1.450  14.558
 1511SOL     OW 6306   9.776  13.510   9.734
 1511SOL    HW1 6307   9.850  13.550   9.778
 1511SOL    HW2 6308   9.751  13.436   9.790
 1512SOL     OW 6309   4.598  10.516   4.948
 1512SOL    HW1 6310   4.543  10.448   4.987
 1512SOL    HW2 6311   4.540  10.591   4.940
 1513SOL     OW 6312   1.919   7.040   1.946
 1513SOL    HW1 6313   1.846   7.015   2.003
 1513SOL    HW2 6314   1.885   7.032   1.858
 1514SOL     OW 6315   8.510   4.641   8.739
 1514SOL    HW1 6316   8.482   4.709   8.800
 1514SOL    HW2 6317   8.586   4.679   8.695
 1515SOL     OW 6318   1.439  10.945  13.876
 1515SOL    HW1 6319   1.427  11.002  13.952
 1515SOL    HW2 6320   1.354  10.945  13.832
 1516SOL     OW 6321  10.993   7.029   4.547
 1516SOL    HW1 6322  10.946   7.068   4.473
 1516SOL    HW2 6323  10.929   7.026   4.618
 1517SOL     OW 6324   6.230   2.558   8.617
 1517SOL    HW1 6325   6.284   2.512   8.553
 1517SOL    HW2 6326   6.238   2.506   8.696
 1518SOL     OW 6327   8.047   3.071  11.949
 1518SOL    HW1 6328   7.978   3.033  11.894
 1518SOL    HW2 6329   8.100   3.123  11.889
 1519SOL     OW 6330   2.912  14.584   8.626
 1519SOL    HW1 6331   2.863  14.588   8.544
 1519SOL    HW2 6332   2.966  14.505   8.618
 1520SOL     OW 6333   3.892   2.258  10.919
 1520SOL    HW1 6334   3.808   2.293  10.950
 1520SOL    HW2 6335   3.905   2.298  10.834
 1521SOL     OW 6336  14.607   7.708  14.624
 1521SOL    HW1 6337  14.513   7.712  14.638
 1521SOL    HW2 6338  14.619   7.632  14.566
 1522SOL     OW 6339   9.482  14.113  12.300
 1522SOL    HW1 6340   9.548  14.106  12.369
 1522SOL    HW2 6341   9.482  14.027  12.258
 1523SOL     OW 6342   1.366   8.136  11.953
 1523SOL    HW1 6343   1.330   8.222  11.928
 1523SOL    HW2 6344   1.447   8.128  11.903
 1524SOL     OW 6345   4.741   5.227  11.924
 1524SOL    HW1 6346   4.760   5.136  11.902
 1524SOL    HW2 6347   4.648   5.227  11.946
 1525SOL     OW 6348   2.670   8.265   5.780
 1525SOL    HW1 6349   2.606   8.320   5.823
 1525SOL    HW2 6350   2.661   8.285   5.687
 1526SOL     OW 6351   5.431  11.178   5.835
 1526SOL    HW1 6352   5.349  11.157   5.791
 1526SOL    HW2 6353   5.425  11.271   5.855
 1527SOL     OW 6354  11.327   3.894  14.047
 1527SOL    HW1 6355  11.319   3.900  13.952
 1527SOL    HW2 6356  11.259   3.952  14.080
 1528SOL     OW 6357   3.212   7.790   4.160
 1528SOL    HW1 6358   3.221   7.874   4.116
 1528SOL    HW2 6359   3.242   7.806   4.249
 1529SOL     OW 6360  10.250   9.200   0.121
 1529SOL    HW1 6361  10.235   9.272   0.182
 1529SOL    HW2 6362  10.327   9.227   0.071
 1530SOL     OW 6363   2.238   8.045  11.972
 1530SOL    HW1 6364   2.258   7.953  11.958
 1530SOL    HW2 6365   2.314   8.080  12.019
 1531SOL     OW 6366  10.571   3.032   1.677
 1531SOL    HW1 6367  10.617   3.112   1.652
 1531SOL    HW2 6368  10.504   3.021   1.609
 1532SOL     OW 6369   9.951  10.077   4.348
 1532SOL    HW1 6370   9.913  10.152   4.302
 1532SOL    HW2 6371  10.045  10.091   4.343
 1533SOL     OW 6372   0.285  12.356   0.132
 1533SOL    HW1 6373   0.241  12.278   0.098
 1533SOL    HW2 6374   0.230  12.384   0.205
 1534SOL     OW 6375   2.000   0.282   8.609
 1534SOL    HW1 6376   1.962   0.262   8.694
 1534SOL    HW2 6377   2.074   0.222   8.600
 1535SOL     OW 6378   2.689  11.252  13.645
 1535SOL    HW1 6379   2.752  11.203  13.698
 1535SOL    HW2 6380   2.742  11.316  13.598
 1536SOL     OW 6381  11.114   0.773  11.017
 1536SOL    HW1 6382  11.167   0.776  11.097
 1536SOL    HW2 6383  11.099   0.865  10.995
 1537SOL     OW 6384  10.451  10.165  10.211
 1537SOL    HW1 6385  10.482  10.080  10.243
 1537SOL    HW2 6386  10.359  10.168  10.237
 1538SOL     OW 6387  11.555  10.402  11.526
 1538SOL    HW1 6388  11.627  10.339  11.527
 1538SOL    HW2 6389  11.502  10.379  11.603
 1539SOL     OW 6390   8.394   5.306   9.845
 1539SOL    HW1 6391   8.331   5.365   9.802
 1539SOL    HW2 6392   8.342   5.229   9.867
 1540SOL     OW 6393  12.267   3.508   2.718
 1540SOL    HW1 6394  12.247   3.486   2.626
 1540SOL    HW2 6395  12.211   3.583   2.737
 1541SOL     OW 6396   1.661   9.779   0.173
 1541SOL    HW1 6397   1.743   9.741   0.204
 1541SOL    HW2 6398   1.638   9.726   0.096
 1542SOL     OW 6399  11.226   9.833   2.190
 1542SOL    HW1 6400  11.256   9.761   2.134
 1542SOL    HW2 6401  11.307   9.876   2.217
 1543SOL     OW 6402   9.982  12.260  11.491
 1543SOL    HW1 6403  10.053  12.318  11.465
 1543SOL    HW2 6404  10.006  12.231  11.579
 1544SOL     OW 6405   5.494   2.226   2.461
 1544SOL    HW1 6406   5.448   2.144   2.476
 1544SOL    HW2 6407   5.430   2.281   2.417
 1545SOL     OW 6408   9.282   3.952   2.583
 1545SOL    HW1 6409   9.297   3.876   2.528
 1545SOL    HW2 6410   9.187   3.951   2.600
 1546SOL     OW 6411  12.615  14.816  14.039
 1546SOL    HW1 6412  12.643  14.724  14.032
 1546SOL    HW2 6413  12.520  14.810  14.055
 1547SOL     OW 6414   0.844  12.752  14.251
 1547SOL    HW1 6415   0.790  12.813  14.302
 1547SOL    HW2 6416   0.847  12.673  14.305
 1548SOL     OW 6417  13.971   8.977   4.104
 1548SOL    HW1 6418  13.916   8.905   4.135
 1548SOL    HW2 6419  13.979   8.961   4.010
 1549SOL     OW 6420   2.727   7.326   9.995
 1549SOL    HW1 6421   2.776   7.275  10.060
 1549SOL    HW2 6422   2.648   7.354  10.042
 1550SOL     OW 6423   6.910   0.590   8.521
 1550SOL    HW1 6424   6.909   0.631   8.607
 1550SOL    HW2 6425   6.891   0.662   8.460
 1551SOL     OW 6426   9.412   9.596   3.819
 1551SOL    HW1 6427   9.475   9.597   3.891
 1551SOL    HW2 6428   9.417   9.684   3.782
 1552SOL     OW 6429   5.377  13.202   0.595
 1552SOL    HW1 6430   5.366  13.148   0.673
 1552SOL    HW2 6431   5.444  13.266   0.619
 1553SOL     OW 6432  11.722   6.553  10.606
 1553SOL    HW1 6433  11.759   6.465  10.603
 1553SOL    HW2 6434  11.647   6.546  10.665
 1554SOL     OW 6435   1.556  14.475   6.110
 1554SOL    HW1 6436   1.475  14.527   6.118
 1554SOL    HW2 6437   1.625  14.536   6.136
 1555SOL     OW 6438   3.455   7.805   3.284
 1555SOL    HW1 6439   3.520   7.834   3.348
 1555SOL    HW2 6440   3.500   7.737   3.234
 1556SOL     OW 6441   8.156   0.284  12.099
 1556SOL    HW1 6442   8.180   0.260  12.189
 1556SOL    HW2 6443   8.237   0.275  12.049
 1557SOL     OW 6444  14.768  10.458  12.590
 1557SOL    HW1 6445  14.750  10.401  12.664
 1557SOL    HW2 6446  14.859  10.485  12.602
 1558SOL     OW 6447   5.561   5.289   6.659
 1558SOL    HW1 6448   5.574   5.242   6.742
 1558SOL    HW2 6449   5.635   5.349   6.654
 1559SOL     OW 6450   2.945   9.688   3.220
 1559SOL    HW1 6451   2.926   9.782   3.211
 1559SOL    HW2 6452   3.041   9.684   3.224
 1560SOL     OW 6453   1.132  12.278   0.648
 1560SOL    HW1 6454   1.203  12.342   0.656
 1560SOL    HW2 6455   1.132  12.232   0.732
 1561SOL     OW 6456   7.537   7.806   3.648
 1561SOL    HW1 6457   7.463   7.784   3.705
 1561SOL    HW2 6458   7.511   7.775   3.561
 1562SOL     OW 6459  12.759   5.904   6.634
 1562SOL    HW1 6460  12.733   5.847   6.707
 1562SOL    HW2 6461  12.679   5.947   6.606
 1563SOL     OW 6462   7.144  12.412  11.286
 1563SOL    HW1 6463   7.158  12.497  11.245
 1563SOL    HW2 6464   7.102  12.359  11.219
 1564SOL     OW 6465   4.523   8.316   4.455
 1564SOL    HW1 6466   4.540   8.294   4.546
 1564SOL    HW2 6467   4.443   8.269   4.433
 1565SOL     OW 6468   7.019   8.321   0.681
 1565SOL    HW1 6469   7.036   8.298   0.773
 1565SOL    HW2 6470   7.078   8.394   0.664
 1566SOL     OW 6471  10.021  11.640  11.868
 1566SOL    HW1 6472  10.007  11.712  11.806
 1566SOL    HW2 6473  10.109  11.607  11.847
 1567SOL     OW 6474  13.325  10.909   8.774
 1567SOL    HW1 6475  13.301  10.968   8.845
 1567SOL    HW2 6476  13.375  10.963   8.713
 1568SOL     OW 6477  10.018   7.578   6.228
 1568SOL    HW1 6478  10.111   7.586   6.212
 1568SOL    HW2 6479  10.003   7.623   6.311
 1569SOL     OW 6480   3.629  11.074  10.116
 1569SOL    HW1 6481   3.585  11.156  10.095
 1569SOL    HW2 6482   3.626  11.024  10.034
 1570SOL     OW 6483   3.172  13.804   0.418
 1570SOL    HW1 6484   3.200  13.725   0.464
 1570SOL    HW2 6485   3.142  13.863   0.487
 1571SOL     OW 6486  10.682   8.360   5.909
 1571SOL    HW1 6487  10.656   8.328   5.995
 1571SOL    HW2 6488  10.722   8.285   5.866
 1572SOL     OW 6489   0.616  13.947   1.020
 1572SOL    HW1 6490   0.585  13.859   1.001
 1572SOL    HW2 6491   0.660  13.940   1.105
 1573SOL     OW 6492   4.315   5.650  14.745
 1573SOL    HW1 6493   4.410   5.656  14.741
 1573SOL    HW2 6494   4.284   5.734  14.709
 1574SOL     OW 6495  11.684   5.591  12.411
 1574SOL    HW1 6496  11.736   5.662  12.447
 1574SOL    HW2 6497  11.744   5.546  12.351
 1575SOL     OW 6498   8.241   2.072   2.971
 1575SOL    HW1 6499   8.192   2.127   3.032
 1575SOL    HW2 6500   8.287   2.134   2.914
 1576SOL     OW 6501   6.519   7.988  13.126
 1576SOL    HW1 6502   6.571   8.005  13.048
 1576SOL    HW2 6503   6.456   8.060  13.130
 1577SOL     OW 6504   0.136   7.424   6.683
 1577SOL    HW1 6505   0.041   7.441   6.682
 1577SOL    HW2 6506   0.171   7.492   6.741
 1578SOL     OW 6507   0.576   3.787  11.099
 1578SOL    HW1 6508   0.578   3.779  11.003
 1578SOL    HW2 6509   0.486   3.767  11.123
 1579SOL     OW 6510   8.067   5.555   6.356
 1579SOL    HW1 6511   8.055   5.642   6.393
 1579SOL    HW2 6512   8.017   5.497   6.414
 1580SOL     OW 6513   7.812   1.534   1.609
 1580SOL    HW1 6514   7.864   1.539   1.529
 1580SOL    HW2 6515   7.876   1.536   1.680
 1581SOL     OW 6516  13.872   1.974  12.461
 1581SOL    HW1 6517  13.881   1.923  12.542
 1581SOL    HW2 6518  13.921   1.923  12.396
 1582SOL     OW 6519  13.582  12.578   2.415
 1582SOL    HW1 6520  13.651  12.640   2.393
 1582SOL    HW2 6521  13.578  12.520   2.339
 1583SOL     OW 6522   8.275   7.346   7.019
 1583SOL    HW1 6523   8.346   7.342   6.954
 1583SOL    HW2 6524   8.283   7.433   7.058
 1584SOL     OW 6525  11.043   1.334  14.497
 1584SOL    HW1 6526  11.100   1.257  14.502
 1584SOL    HW2 6527  11.037   1.365  14.588
 1585SOL     OW 6528  13.212  13.849   8.756
 1585SOL    HW1 6529  13.213  13.923   8.694
 1585SOL    HW2 6530  13.151  13.786   8.717
 1586SOL     OW 6531   4.538   1.566   6.257
 1586SOL    HW1 6532   4.532   1.647   6.207
 1586SOL    HW2 6533   4.632   1.550   6.267
 1587SOL     OW 6534  13.360   5.103   5.059
 1587SOL    HW1 6535  13.334   5.099   4.967
 1587SOL    HW2 6536  13.441   5.155   5.059
 1588SOL     OW 6537   6.038  10.049  12.208
 1588SOL    HW1 6538   5.999  10.079  12.290
 1588SOL    HW2 6539   6.109  10.110  12.191
 1589SOL     OW 6540   7.773  14.696   8.161
 1589SOL    HW1 6541   7.770  14.771   8.220
 1589SOL    HW2 6542   7.689  14.652   8.173
 1590SOL     OW 6543   3.822  10.731  11.222
 1590SOL    HW1 6544   3.838  10.745  11.128
 1590SOL    HW2 6545   3.786  10.814  11.253
 1591SOL     OW 6546   4.345   9.956  13.339
 1591SOL    HW1 6547   4.373   9.891  13.275
 1591SOL    HW2 6548   4.412  10.024  13.336
 1592SOL     OW 6549   8.292   7.275   1.470
 1592SOL    HW1 6550   8.260   7.214   1.403
 1592SOL    HW2 6551   8.213   7.322   1.499
 1593SOL     OW 6552  10.188  13.348   5.529
 1593SOL    HW1 6553  10.117  13.412   5.525
 1593SOL    HW2 6554  10.223  13.357   5.618
 1594SOL     OW 6555   7.247   1.228  14.516
 1594SOL    HW1 6556   7.187   1.264  14.451
 1594SOL    HW2 6557   7.206   1.250  14.600
 1595SOL     OW 6558   2.334  10.120   1.866
 1595SOL    HW1 6559   2.276  10.119   1.942
 1595SOL    HW2 6560   2.341  10.212   1.842
 1596SOL     OW 6561  12.890   4.288  14.756
 1596SOL    HW1 6562  12.929   4.302  14.670
 1596SOL    HW2 6563  12.920   4.201  14.783
 1597SOL     OW 6564   1.309   0.347  10.639
 1597SOL    HW1 6565   1.218   0.340  10.669
 1597SOL    HW2 6566   1.355   0.281  10.691
 1598SOL     OW 6567   1.836   8.013  10.588
 1598SOL    HW1 6568   1.803   7.923  10.594
 1598SOL    HW2 6569   1.915   8.014  10.642
 1599SOL     OW 6570  14.422  12.248   7.330
 1599SOL    HW1 6571  14.339  12.207   7.353
 1599SOL    HW2 6572  14.429  12.324   7.388
 1600SOL     OW 6573   1.997  13.996  12.993
 1600SOL    HW1 6574   1.996  14.009  12.898
 1600SOL    HW2 6575   2.009  14.084  13.028
 1601SOL     OW 6576   9.754   3.312   6.630
 1601SOL    HW1 6577   9.752   3.257   6.552
 1601SOL    HW2 6578   9.847   3.327   6.647
 1602SOL     OW 6579  12.551  13.369   7.547
 1602SOL    HW1 6580  12.516  13.314   7.617
 1602SOL    HW2 6581  12.548  13.314   7.470
 1603SOL     OW 6582   7.593  11.956  13.775
 1603SOL    HW1 6583   7.596  11.860  13.778
 1603SOL    HW2 6584   7.647  11.984  13.849
 1604SOL     OW 6585   4.167  11.101   5.966
 1604SOL    HW1 6586   4.125  11.180   6.001
 1604SOL    HW2 6587   4.260  11.125   5.959
 1605SOL     OW 6588  10.210   8.626   1.008
 1605SOL    HW1 6589  10.306   8.624   1.003
 1605SOL    HW2 6590  10.188   8.558   1.071
 1606SOL     OW 6591  14.450   2.780   7.615
 1606SOL    HW1 6592  14.363   2.820   7.615
 1606SOL    HW2 6593  14.449   2.722   7.539
 1607SOL     OW 6594   5.632  12.484   5.275
 1607SOL    HW1 6595   5.563  12.461   5.337
 1607SOL    HW2 6596   5.615  12.575   5.252
 1608SOL     OW 6597   5.082  14.272  12.127
 1608SOL    HW1 6598   5.144  14.295  12.058
 1608SOL    HW2 6599   5.004  14.244  12.080
 1609SOL     OW 6600   3.006   6.168   2.632
 1609SOL    HW1 6601   3.002   6.124   2.716
 1609SOL    HW2 6602   2.918   6.158   2.596
 1610SOL     OW 6603  14.694   4.277  12.445
 1610SOL    HW1 6604  14.732   4.358  12.412
 1610SOL    HW2 6605  14.599   4.291  12.442
 1611SOL     OW 6606   0.011  13.157   6.136
 1611SOL    HW1 6607  14.807  13.152   6.086
 1611SOL    HW2 6608   0.047  13.243   6.115
 1612SOL     OW 6609   5.067  11.460   5.836
 1612SOL    HW1 6610   5.154  11.501   5.844
 1612SOL    HW2 6611   5.051  11.457   5.741
 1613SOL     OW 6612   2.629   2.512  11.477
 1613SOL    HW1 6613   2.534   2.513  11.490
 1613SOL    HW2 6614   2.647   2.428  11.435
 1614SOL     OW 6615  11.025   6.663  14.754
 1614SOL    HW1 6616  11.026   6.580  14.706
 1614SOL    HW2 6617  10.932   6.688  14.755
 1615SOL     OW 6618  14.770   6.493  14.541
 1615SOL    HW1 6619  14.843   6.522  14.486
 1615SOL    HW2 6620  14.746   6.407  14.505
 1616SOL     OW 6621  10.468  14.628   6.352
 1616SOL    HW1 6622  10.553  14.588   6.370
 1616SOL    HW2 6623  10.422  14.626   6.437
 1617SOL     OW 6624  11.836   2.908  11.636
 1617SOL    HW1 6625  11.750   2.871  11.617
 1617SOL    HW2 6626  11.866   2.942  11.552
 1618SOL     OW 6627   0.419   0.305   8.940
 1618SOL    HW1 6628   0.437   0.222   8.897
 1618SOL    HW2 6629   0.345   0.288   8.998
 1619SOL     OW 6630  13.381  10.984  13.935
 1619SOL    HW1 6631  13.363  10.891  13.920
 1619SOL    HW2 6632  13.459  10.985  13.990
 1620SOL     OW 6633   5.583   5.763   2.170
 1620SOL    HW1 6634   5.517   5.697   2.191
 1620SOL    HW2 6635   5.654   5.747   2.232
 1621SOL     OW 6636   7.885   8.148   0.668
 1621SOL    HW1 6637   7.938   8.096   0.607
 1621SOL    HW2 6638   7.797   8.146   0.630
 1622SOL     OW 6639  14.055   0.079  13.185
 1622SOL    HW1 6640  13.961   0.072  13.167
 1622SOL    HW2 6641  14.071   0.173  13.186
 1623SOL     OW 6642   3.807   3.135   4.482
 1623SOL    HW1 6643   3.729   3.122   4.536
 1623SOL    HW2 6644   3.876   3.158   4.545
 1624SOL     OW 6645   2.515   3.941   3.053
 1624SOL    HW1 6646   2.545   3.907   2.968
 1624SOL    HW2 6647   2.561   3.887   3.117
 1625SOL     OW 6648   3.246  11.076   3.562
 1625SOL    HW1 6649   3.289  11.020   3.497
 1625SOL    HW2 6650   3.193  11.017   3.615
 1626SOL     OW 6651  13.065   7.547  11.386
 1626SOL    HW1 6652  12.997   7.521  11.449
 1626SOL    HW2 6653  13.124   7.472  11.381
 1627SOL     OW 6654   2.419  12.455  12.621
 1627SOL    HW1 6655   2.459  12.450  12.534
 1627SOL    HW2 6656   2.404  12.549  12.634
 1628SOL     OW 6657   3.711   0.390   0.466
 1628SOL    HW1 6658   3.642   0.387   0.532
 1628SOL    HW2 6659   3.710   0.303   0.425
 1629SOL     OW 6660  11.082  12.312   6.551
 1629SOL    HW1 6661  11.116  12.381   6.494
 1629SOL    HW2 6662  11.157  12.283   6.602
 1630SOL     OW 6663   6.500   8.113   6.828
 1630SOL    HW1 6664   6.443   8.132   6.753
 1630SOL    HW2 6665   6.575   8.066   6.790
 1631SOL     OW 6666  11.262   4.329   5.518
 1631SOL    HW1 6667  11.292   4.252   5.565
 1631SOL    HW2 6668  11.168   4.318   5.510
 1632SOL     OW 6669  10.232  13.952   6.758
 1632SOL    HW1 6670  10.183  13.922   6.835
 1632SOL    HW2 6671  10.321  13.965   6.791
 1633SOL     OW 6672  13.589   4.906  13.722
 1633SOL    HW1 6673  13.606   4.984  13.670
 1633SOL    HW2 6674  13.652   4.841  13.689
 1634SOL     OW 6675   0.540   7.521  12.720
 1634SOL    HW1 6676   0.501   7.550  12.802
 1634SOL    HW2 6677   0.493   7.568  12.652
 1635SOL     OW 6678  12.718   9.930  10.204
 1635SOL    HW1 6679  12.691   9.839  10.218
 1635SOL    HW2 6680  12.772   9.927  10.125
 1636SOL     OW 6681  14.486  14.071  14.818
 1636SOL    HW1 6682  14.554  14.077   0.008
 1636SOL    HW2 6683  14.532  14.086  14.736
 1637SOL     OW 6684   9.290  11.307   3.889
 1637SOL    HW1 6685   9.254  11.392   3.914
 1637SOL    HW2 6686   9.225  11.244   3.918
 1638SOL     OW 6687  10.183   4.132   2.595
 1638SOL    HW1 6688  10.149   4.090   2.516
 1638SOL    HW2 6689  10.228   4.210   2.563
 1639SOL     OW 6690   7.034   8.641   4.772
 1639SOL    HW1 6691   6.967   8.686   4.823
 1639SOL    HW2 6692   6.985   8.591   4.706
 1640SOL     OW 6693  13.469  12.480   4.007
 1640SOL    HW1 6694  13.505  12.568   4.008
 1640SOL    HW2 6695  13.540  12.424   4.038
 1641SOL     OW 6696   3.074   4.739   1.696
 1641SOL    HW1 6697   3.139   4.804   1.724
 1641SOL    HW2 6698   3.074   4.674   1.766
 1642SOL     OW 6699   2.912   3.322  13.229
 1642SOL    HW1 6700   2.878   3.274  13.304
 1642SOL    HW2 6701   2.834   3.361  13.189
 1643SOL     OW 6702   5.396   2.146   0.526
 1643SOL    HW1 6703   5.444   2.206   0.583
 1643SOL    HW2 6704   5.387   2.194   0.443
 1644SOL     OW 6705  10.501   9.170   4.440
 1644SOL    HW1 6706  10.417   9.127   4.453
 1644SOL    HW2 6707  10.553   9.105   4.391
 1645SOL     OW 6708   1.499   3.009   7.985
 1645SOL    HW1 6709   1.424   3.008   7.926
 1645SOL    HW2 6710   1.575   3.014   7.927
 1646SOL     OW 6711   2.926   8.556   1.077
 1646SOL    HW1 6712   2.971   8.580   1.158
 1646SOL    HW2 6713   2.921   8.461   1.079
 1647SOL     OW 6714   2.151   9.195   8.738
 1647SOL    HW1 6715   2.180   9.105   8.721
 1647SOL    HW2 6716   2.080   9.209   8.675
 1648SOL     OW 6717   4.178   1.634   5.376
 1648SOL    HW1 6718   4.250   1.576   5.349
 1648SOL    HW2 6719   4.132   1.585   5.444
 1649SOL     OW 6720   4.249   9.968   8.992
 1649SOL    HW1 6721   4.249  10.003   8.903
 1649SOL    HW2 6722   4.192   9.891   8.988
 1650SOL     OW 6723  14.721   1.844  12.410
 1650SOL    HW1 6724  14.740   1.930  12.447
 1650SOL    HW2 6725  14.704   1.788  12.486
 1651SOL     OW 6726   8.548  12.715  10.899
 1651SOL    HW1 6727   8.460  12.749  10.917
 1651SOL    HW2 6728   8.543  12.622  10.918
 1652SOL     OW 6729   5.276   2.764  13.156
 1652SOL    HW1 6730   5.309   2.712  13.083
 1652SOL    HW2 6731   5.321   2.848  13.148
 1653SOL     OW 6732   7.029   2.411  12.621
 1653SOL    HW1 6733   7.118   2.403  12.657
 1653SOL    HW2 6734   6.997   2.494  12.654
 1654SOL     OW 6735   5.126  12.320  10.658
 1654SOL    HW1 6736   5.138  12.394  10.599
 1654SOL    HW2 6737   5.152  12.353  10.744
 1655SOL     OW 6738   8.070   5.853   9.639
 1655SOL    HW1 6739   8.071   5.900   9.722
 1655SOL    HW2 6740   8.032   5.916   9.577
 1656SOL     OW 6741   7.231  14.455   2.526
 1656SOL    HW1 6742   7.284  14.380   2.553
 1656SOL    HW2 6743   7.200  14.432   2.439
 1657SOL     OW 6744   9.438  11.383   8.011
 1657SOL    HW1 6745   9.377  11.451   8.040
 1657SOL    HW2 6746   9.521  11.429   7.997
 1658SOL     OW 6747   1.644  10.588   6.607
 1658SOL    HW1 6748   1.688  10.602   6.523
 1658SOL    HW2 6749   1.627  10.493   6.609
 1659SOL     OW 6750   0.233   3.201   9.140
 1659SOL    HW1 6751   0.244   3.258   9.216
 1659SOL    HW2 6752   0.321   3.170   9.120
 1660SOL     OW 6753  10.198  13.660   4.048
 1660SOL    HW1 6754  10.263  13.591   4.061
 1660SOL    HW2 6755  10.240  13.722   3.987
 1661SOL     OW 6756   3.115   6.736   7.381
 1661SOL    HW1 6757   3.134   6.789   7.304
 1661SOL    HW2 6758   3.169   6.774   7.450
 1662SOL     OW 6759  11.563   1.085   6.756
 1662SOL    HW1 6760  11.647   1.051   6.727
 1662SOL    HW2 6761  11.584   1.137   6.834
 1663SOL     OW 6762  11.339  12.286   8.343
 1663SOL    HW1 6763  11.411  12.321   8.397
 1663SOL    HW2 6764  11.292  12.364   8.313
 1664SOL     OW 6765  14.049   5.605   0.753
 1664SOL    HW1 6766  14.065   5.511   0.744
 1664SOL    HW2 6767  14.115   5.646   0.697
 1665SOL     OW 6768   0.456  13.506   2.448
 1665SOL    HW1 6769   0.431  13.544   2.364
 1665SOL    HW2 6770   0.552  13.516   2.451
 1666SOL     OW 6771   8.198   5.447   0.983
 1666SOL    HW1 6772   8.207   5.525   0.928
 1666SOL    HW2 6773   8.288   5.427   1.010
 1667SOL     OW 6774   4.554   4.186   5.160
 1667SOL    HW1 6775   4.535   4.246   5.088
 1667SOL    HW2 6776   4.649   4.174   5.156
 1668SOL     OW 6777  13.211   9.419   0.225
 1668SOL    HW1 6778  13.188   9.348   0.165
 1668SOL    HW2 6779  13.305   9.432   0.212
 1669SOL     OW 6780   2.945   9.146  13.389
 1669SOL    HW1 6781   3.004   9.103  13.327
 1669SOL    HW2 6782   2.928   9.232  13.350
 1670SOL     OW 6783  12.719   9.565   0.559
 1670SOL    HW1 6784  12.776   9.556   0.636
 1670SOL    HW2 6785  12.779   9.580   0.486
 1671SOL     OW 6786   9.388   2.258  14.503
 1671SOL    HW1 6787   9.328   2.330  14.480
 1671SOL    HW2 6788   9.414   2.221  14.419
 1672SOL     OW 6789   5.699   0.071   5.411
 1672SOL    HW1 6790   5.716  14.858   5.437
 1672SOL    HW2 6791   5.606   0.084   5.426
 1673SOL     OW 6792   9.253  11.574   8.079
 1673SOL    HW1 6793   9.190  11.558   8.009
 1673SOL    HW2 6794   9.276  11.666   8.070
 1674SOL     OW 6795  14.437   8.978   6.228
 1674SOL    HW1 6796  14.375   8.936   6.288
 1674SOL    HW2 6797  14.383   9.040   6.178
 1675SOL     OW 6798   9.057  11.344  10.471
 1675SOL    HW1 6799   9.090  11.277  10.529
 1675SOL    HW2 6800   9.118  11.346  10.398
 1676SOL     OW 6801   1.130   2.959  14.665
 1676SOL    HW1 6802   1.115   2.947  14.571
 1676SOL    HW2 6803   1.136   2.869  14.699
 1677SOL     OW 6804   4.847  10.246   1.007
 1677SOL    HW1 6805   4.872  10.163   1.047
 1677SOL    HW2 6806   4.753  10.239   0.993
 1678SOL     OW 6807   9.115   4.203  12.911
 1678SOL    HW1 6808   9.089   4.160  12.992
 1678SOL    HW2 6809   9.208   4.180  12.901
 1679SOL     OW 6810  10.807  14.094   4.626
 1679SOL    HW1 6811  10.760  14.138   4.696
 1679SOL    HW2 6812  10.781  14.142   4.547
 1680SOL     OW 6813   3.904   2.662  12.102
 1680SOL    HW1 6814   3.838   2.698  12.161
 1680SOL    HW2 6815   3.958   2.606  12.157
 1681SOL     OW 6816   4.336   5.059   5.602
 1681SOL    HW1 6817   4.321   4.992   5.535
 1681SOL    HW2 6818   4.304   5.019   5.683
 1682SOL     OW 6819   8.646  10.762   1.621
 1682SOL    HW1 6820   8.626  10.672   1.595
 1682SOL    HW2 6821   8.693  10.753   1.704
 1683SOL     OW 6822   4.374   2.616   5.802
 1683SOL    HW1 6823   4.355   2.574   5.719
 1683SOL    HW2 6824   4.385   2.709   5.781
 1684SOL     OW 6825  11.654  10.116  14.272
 1684SOL    HW1 6826  11.666  10.172  14.195
 1684SOL    HW2 6827  11.640  10.028  14.236
 1685SOL     OW 6828   8.528  13.173   1.007
 1685SOL    HW1 6829   8.515  13.268   1.007
 1685SOL    HW2 6830   8.532  13.150   1.100
 1686SOL     OW 6831   4.250   1.998   1.823
 1686SOL    HW1 6832   4.215   1.921   1.777
 1686SOL    HW2 6833   4.339   1.972   1.849
 1687SOL     OW 6834  10.175  10.113  14.115
 1687SOL    HW1 6835  10.080  10.110  14.116
 1687SOL    HW2 6836  10.196  10.206  14.117
 1688SOL     OW 6837  10.029   4.239   8.201
 1688SOL    HW1 6838  10.123   4.257   8.208
 1688SOL    HW2 6839   9.997   4.303   8.138
 1689SOL     OW 6840   8.959   3.134   3.843
 1689SOL    HW1 6841   8.957   3.214   3.790
 1689SOL    HW2 6842   9.049   3.102   3.833
 1690SOL     OW 6843   4.029  13.392   3.067
 1690SOL    HW1 6844   4.090  13.413   2.996
 1690SOL    HW2 6845   4.050  13.301   3.090
 1691SOL     OW 6846   5.650   9.394   9.044
 1691SOL    HW1 6847   5.583   9.344   9.090
 1691SOL    HW2 6848   5.614   9.483   9.037
 1692SOL     OW 6849   0.735   0.871   9.466
 1692SOL    HW1 6850   0.694   0.785   9.454
 1692SOL    HW2 6851   0.722   0.891   9.559
 1693SOL     OW 6852   1.958   4.384   7.467
 1693SOL    HW1 6853   2.022   4.316   7.444
 1693SOL    HW2 6854   1.947   4.434   7.386
 1694SOL     OW 6855  14.612  13.916   1.969
 1694SOL    HW1 6856  14.573  13.961   1.894
 1694SOL    HW2 6857  14.641  13.832   1.934
 1695SOL     OW 6858   5.509  10.544   6.218
 1695SOL    HW1 6859   5.584  10.522   6.274
 1695SOL    HW2 6860   5.501  10.639   6.224
 1696SOL     OW 6861  11.387  10.586   4.539
 1696SOL    HW1 6862  11.482  10.580   4.539
 1696SOL    HW2 6863  11.369  10.679   4.556
 1697SOL     OW 6864   6.337   3.156   4.333
 1697SOL    HW1 6865   6.408   3.179   4.393
 1697SOL    HW2 6866   6.329   3.061   4.340
 1698SOL     OW 6867   4.675   7.213  12.254
 1698SOL    HW1 6868   4.612   7.192  12.185
 1698SOL    HW2 6869   4.761   7.205  12.212
 1699SOL     OW 6870   2.504  14.667  14.528
 1699SOL    HW1 6871   2.539  14.746  14.571
 1699SOL    HW2 6872   2.416  14.692  14.502
 1700SOL     OW 6873   3.576   7.183   8.595
 1700SOL    HW1 6874   3.581   7.122   8.669
 1700SOL    HW2 6875   3.544   7.264   8.634
 1701SOL     OW 6876   0.692   5.949   9.153
 1701SOL    HW1 6877   0.634   6.021   9.130
 1701SOL    HW2 6878   0.769   5.991   9.191
 1702SOL     OW 6879  14.130  14.015   2.970
 1702SOL    HW1 6880  14.139  13.922   2.950
 1702SOL    HW2 6881  14.079  14.018   3.051
 1703SOL     OW 6882   1.523   3.874   1.369
 1703SOL    HW1 6883   1.458   3.807   1.389
 1703SOL    HW2 6884   1.500   3.906   1.282
 1704SOL     OW 6885   6.387   7.993   3.305
 1704SOL    HW1 6886   6.473   7.957   3.287
 1704SOL    HW2 6887   6.383   8.073   3.252
 1705SOL     OW 6888   9.907   2.073   4.043
 1705SOL    HW1 6889   9.944   2.101   3.959
 1705SOL    HW2 6890   9.883   2.155   4.087
 1706SOL     OW 6891   6.597   8.939   6.872
 1706SOL    HW1 6892   6.571   8.861   6.921
 1706SOL    HW2 6893   6.591   8.912   6.780
 1707SOL     OW 6894  11.492   1.425   3.125
 1707SOL    HW1 6895  11.524   1.515   3.128
 1707SOL    HW2 6896  11.569   1.372   3.142
 1708SOL     OW 6897   4.038  11.603   0.109
 1708SOL    HW1 6898   4.060  11.649   0.028
 1708SOL    HW2 6899   4.011  11.672   0.170
 1709SOL     OW 6900   8.617   3.635   0.605
 1709SOL    HW1 6901   8.526   3.607   0.594
 1709SOL    HW2 6902   8.658   3.611   0.522
 1710SOL     OW 6903   6.232   5.348   5.468
 1710SOL    HW1 6904   6.278   5.265   5.482
 1710SOL    HW2 6905   6.186   5.365   5.550
 1711SOL     OW 6906   9.831   9.235   1.519
 1711SOL    HW1 6907   9.808   9.294   1.447
 1711SOL    HW2 6908   9.791   9.277   1.596
 1712SOL     OW 6909   6.174   3.253   5.576
 1712SOL    HW1 6910   6.131   3.337   5.559
 1712SOL    HW2 6911   6.105   3.188   5.567
 1713SOL     OW 6912   6.083   5.606  10.605
 1713SOL    HW1 6913   6.139   5.663  10.657
 1713SOL    HW2 6914   6.132   5.524  10.598
 1714SOL     OW 6915  12.301  13.811  12.447
 1714SOL    HW1 6916  12.259  13.734  12.485
 1714SOL    HW2 6917  12.358  13.844  12.517
 1715SOL     OW 6918  11.134   2.703   2.862
 1715SOL    HW1 6919  11.050   2.736   2.830
 1715SOL    HW2 6920  11.164   2.771   2.923
 1716SOL     OW 6921   0.358  12.968  10.177
 1716SOL    HW1 6922   0.270  13.006  10.166
 1716SOL    HW2 6923   0.402  13.027  10.238
 1717SOL     OW 6924   3.526   6.206   8.541
 1717SOL    HW1 6925   3.472   6.128   8.552
 1717SOL    HW2 6926   3.483   6.273   8.595
 1718SOL     OW 6927  12.570   9.967   0.002
 1718SOL    HW1 6928  12.604  10.052  14.849
 1718SOL    HW2 6929  12.475   9.980   0.007
 1719SOL     OW 6930   6.554   1.567  13.146
 1719SOL    HW1 6931   6.586   1.549  13.057
 1719SOL    HW2 6932   6.472   1.520  13.152
 1720SOL     OW 6933   6.901   4.549   4.838
 1720SOL    HW1 6934   6.861   4.469   4.872
 1720SOL    HW2 6935   6.835   4.585   4.778
 1721SOL     OW 6936   7.338   9.577  12.501
 1721SOL    HW1 6937   7.261   9.615  12.544
 1721SOL    HW2 6938   7.393   9.546  12.573
 1722SOL     OW 6939  13.980   5.620   5.739
 1722SOL    HW1 6940  14.014   5.705   5.768
 1722SOL    HW2 6941  14.045   5.589   5.676
 1723SOL     OW 6942   5.636  12.517   2.927
 1723SOL    HW1 6943   5.567  12.469   2.882
 1723SOL    HW2 6944   5.592  12.593   2.964
 1724SOL     OW 6945   5.780  11.643  11.767
 1724SOL    HW1 6946   5.790  11.728  11.809
 1724SOL    HW2 6947   5.714  11.597  11.820
 1725SOL     OW 6948   7.819   8.673  13.363
 1725SOL    HW1 6949   7.742   8.668  13.305
 1725SOL    HW2 6950   7.849   8.583  13.370
 1726SOL     OW 6951   0.030   8.137   3.397
 1726SOL    HW1 6952  14.865   8.079   3.333
 1726SOL    HW2 6953   0.046   8.082   3.473
 1727SOL     OW 6954   7.382  13.368   6.817
 1727SOL    HW1 6955   7.364  13.275   6.825
 1727SOL    HW2 6956   7.296  13.410   6.831
 1728SOL     OW 6957   2.173   0.948   7.797
 1728SOL    HW1 6958   2.235   0.971   7.728
 1728SOL    HW2 6959   2.091   0.988   7.769
 1729SOL     OW 6960   9.023   8.019   4.268
 1729SOL    HW1 6961   9.044   7.928   4.287
 1729SOL    HW2 6962   8.947   8.015   4.210
 1730SOL     OW 6963  12.206   5.118   0.985
 1730SOL    HW1 6964  12.254   5.047   1.027
 1730SOL    HW2 6965  12.273   5.178   0.955
 1731SOL     OW 6966   3.814  13.394   1.910
 1731SOL    HW1 6967   3.831  13.451   1.835
 1731SOL    HW2 6968   3.859  13.312   1.889
 1732SOL     OW 6969  11.954  13.654  10.100
 1732SOL    HW1 6970  11.906  13.736  10.089
 1732SOL    HW2 6971  11.885  13.588  10.113
 1733SOL     OW 6972   0.915   6.835   7.538
 1733SOL    HW1 6973   0.989   6.846   7.478
 1733SOL    HW2 6974   0.854   6.778   7.491
 1734SOL     OW 6975  13.192   2.632   0.644
 1734SOL    HW1 6976  13.245   2.708   0.667
 1734SOL    HW2 6977  13.217   2.612   0.554
 1735SOL     OW 6978   0.726   0.126   7.987
 1735SOL    HW1 6979   0.709   0.032   7.989
 1735SOL    HW2 6980   0.640   0.167   7.978
 1736SOL     OW 6981   4.131   2.446   3.561
 1736SOL    HW1 6982   4.188   2.439   3.484
 1736SOL    HW2 6983   4.149   2.367   3.611
 1737SOL     OW 6984  11.626   6.592   3.851
 1737SOL    HW1 6985  11.554   6.650   3.875
 1737SOL    HW2 6986  11.693   6.650   3.814
 1738SOL     OW 6987  13.634  13.204   7.585
 1738SOL    HW1 6988  13.548  13.246   7.575
 1738SOL    HW2 6989  13.631  13.166   7.673
 1739SOL     OW 6990   2.638  12.640   1.223
 1739SOL    HW1 6991   2.689  12.591   1.158
 1739SOL    HW2 6992   2.684  12.723   1.232
 1740SOL     OW 6993   5.232   8.440   7.501
 1740SOL    HW1 6994   5.218   8.497   7.576
 1740SOL    HW2 6995   5.149   8.444   7.452
 1741SOL     OW 6996   4.053   7.860   2.001
 1741SOL    HW1 6997   4.087   7.858   1.912
 1741SOL    HW2 6998   4.110   7.922   2.047
 1742SOL     OW 6999   5.099  11.852   5.863
 1742SOL    HW1 7000   5.053  11.794   5.924
 1742SOL    HW2 7001   5.033  11.871   5.796
 1743SOL     OW 7002   4.606   6.394   3.901
 1743SOL    HW1 7003   4.543   6.322   3.896
 1743SOL    HW2 7004   4.576   6.456   3.834
 1744SOL     OW 7005   2.276   3.856   2.347
 1744SOL    HW1 7006   2.293   3.932   2.292
 1744SOL    HW2 7007   2.355   3.846   2.400
 1745SOL     OW 7008   2.433  12.962   2.030
 1745SOL    HW1 7009   2.446  12.930   1.940
 1745SOL    HW2 7010   2.515  13.005   2.052
 1746SOL     OW 7011  14.655  10.680   7.372
 1746SOL    HW1 7012  14.581  10.715   7.422
 1746SOL    HW2 7013  14.657  10.587   7.394
 1747SOL     OW 7014   1.208  12.676  10.243
 1747SOL    HW1 7015   1.160  12.733  10.183
 1747SOL    HW2 7016   1.299  12.703  10.234
 1748SOL     OW 7017  12.342  14.804   4.539
 1748SOL    HW1 7018  12.415  14.764   4.492
 1748SOL    HW2 7019  12.369  14.803   4.631
 1749SOL     OW 7020   6.477  13.001  14.695
 1749SOL    HW1 7021   6.410  13.068  14.682
 1749SOL    HW2 7022   6.546  13.046  14.744
 1750SOL     OW 7023   6.827   9.288  10.219
 1750SOL    HW1 7024   6.755   9.266  10.159
 1750SOL    HW2 7025   6.797   9.259  10.305
 1751SOL     OW 7026  13.876  13.731  13.807
 1751SOL    HW1 7027  13.839  13.689  13.885
 1751SOL    HW2 7028  13.920  13.809  13.841
 1752SOL     OW 7029   7.412   0.786   8.021
 1752SOL    HW1 7030   7.417   0.869   7.973
 1752SOL    HW2 7031   7.489   0.737   7.993
 1753SOL     OW 7032   9.958   3.710  14.351
 1753SOL    HW1 7033  10.044   3.668  14.345
 1753SOL    HW2 7034   9.896   3.639  14.336
 1754SOL     OW 7035   6.627   2.802   6.837
 1754SOL    HW1 7036   6.690   2.751   6.887
 1754SOL    HW2 7037   6.667   2.889   6.830
 1755SOL     OW 7038   9.699   9.289   0.433
 1755SOL    HW1 7039   9.626   9.227   0.436
 1755SOL    HW2 7040   9.698   9.330   0.520
 1756SOL     OW 7041   3.440  13.047   5.037
 1756SOL    HW1 7042   3.477  13.035   5.124
 1756SOL    HW2 7043   3.466  13.135   5.011
 1757SOL     OW 7044   7.721  12.494   8.748
 1757SOL    HW1 7045   7.662  12.558   8.790
 1757SOL    HW2 7046   7.683  12.409   8.772
 1758SOL     OW 7047  13.326   7.655  14.093
 1758SOL    HW1 7048  13.274   7.714  14.038
 1758SOL    HW2 7049  13.363   7.711  14.161
 1759SOL     OW 7050  13.235   7.058  10.008
 1759SOL    HW1 7051  13.259   7.150   9.996
 1759SOL    HW2 7052  13.269   7.036  10.095
 1760SOL     OW 7053   3.016   5.093   3.303
 1760SOL    HW1 7054   2.946   5.079   3.367
 1760SOL    HW2 7055   3.021   5.188   3.294
 1761SOL     OW 7056  12.485   7.809   9.953
 1761SOL    HW1 7057  12.413   7.824   9.892
 1761SOL    HW2 7058  12.516   7.721   9.933
 1762SOL     OW 7059   5.585   0.034   6.623
 1762SOL    HW1 7060   5.526   0.073   6.559
 1762SOL    HW2 7061   5.578   0.091   6.700
 1763SOL     OW 7062  12.874   9.624   2.656
 1763SOL    HW1 7063  12.867   9.631   2.560
 1763SOL    HW2 7064  12.929   9.698   2.681
 1764SOL     OW 7065   8.334   0.921   5.944
 1764SOL    HW1 7066   8.298   0.998   5.989
 1764SOL    HW2 7067   8.382   0.874   6.012
 1765SOL     OW 7068   1.565  14.815   6.439
 1765SOL    HW1 7069   1.547   0.006   6.503
 1765SOL    HW2 7070   1.660  14.811   6.433
 1766SOL     OW 7071   8.380   2.926  11.562
 1766SOL    HW1 7072   8.399   2.992  11.496
 1766SOL    HW2 7073   8.286   2.912  11.556
 1767SOL     OW 7074  12.070  11.634  10.068
 1767SOL    HW1 7075  12.094  11.726  10.054
 1767SOL    HW2 7076  12.116  11.587   9.998
 1768SOL     OW 7077   4.767   2.683   1.567
 1768SOL    HW1 7078   4.803   2.595   1.581
 1768SOL    HW2 7079   4.684   2.668   1.521
 1769SOL     OW 7080   6.073  11.127   0.235
 1769SOL    HW1 7081   6.057  11.140   0.329
 1769SOL    HW2 7082   6.130  11.051   0.230
 1770SOL     OW 7083   0.508   2.268  11.957
 1770SOL    HW1 7084   0.500   2.363  11.971
 1770SOL    HW2 7085   0.602   2.251  11.970
 1771SOL     OW 7086   1.132  13.010   7.260
 1771SOL    HW1 7087   1.199  13.065   7.299
 1771SOL    HW2 7088   1.173  12.976   7.180
 1772SOL     OW 7089   4.979   8.940   6.661
 1772SOL    HW1 7090   5.002   8.849   6.646
 1772SOL    HW2 7091   4.943   8.970   6.577
 1773SOL     OW 7092  13.554   9.926   6.314
 1773SOL    HW1 7093  13.575  10.018   6.331
 1773SOL    HW2 7094  13.609   9.904   6.238
 1774SOL     OW 7095  13.781   2.832   1.640
 1774SOL    HW1 7096  13.875   2.834   1.623
 1774SOL    HW2 7097  13.743   2.791   1.563
 1775SOL     OW 7098   8.093   2.638   5.419
 1775SOL    HW1 7099   8.175   2.600   5.449
 1775SOL    HW2 7100   8.049   2.666   5.499
 1776SOL     OW 7101   3.604   6.122   5.848
 1776SOL    HW1 7102   3.537   6.170   5.897
 1776SOL    HW2 7103   3.604   6.163   5.761
 1777SOL     OW 7104   4.018   7.315  13.140
 1777SOL    HW1 7105   4.047   7.402  13.167
 1777SOL    HW2 7106   3.930   7.328  13.106
 1778SOL     OW 7107   8.627  14.670   8.479
 1778SOL    HW1 7108   8.716  14.703   8.496
 1778SOL    HW2 7109   8.624  14.657   8.384
 1779SOL     OW 7110   8.322   7.451   3.667
 1779SOL    HW1 7111   8.304   7.541   3.693
 1779SOL    HW2 7112   8.405   7.455   3.620
 1780SOL     OW 7113  13.797   1.086   0.162
 1780SOL    HW1 7114  13.868   1.061   0.221
 1780SOL    HW2 7115  13.771   1.174   0.190
 1781SOL     OW 7116  13.661   9.414  14.211
 1781SOL    HW1 7117  13.730   9.447  14.268
 1781SOL    HW2 7118  13.597   9.485  14.207
 1782SOL     OW 7119  12.182   3.106   8.289
 1782SOL    HW1 7120  12.210   3.060   8.368
 1782SOL    HW2 7121  12.100   3.148   8.313
 1783SOL     OW 7122   7.733   6.900  10.294
 1783SOL    HW1 7123   7.752   6.993  10.310
 1783SOL    HW2 7124   7.814   6.855  10.317
 1784SOL     OW 7125   3.352  14.702  11.913
 1784SOL    HW1 7126   3.336  14.673  12.003
 1784SOL    HW2 7127   3.266  14.727  11.880
 1785SOL     OW 7128  13.639   5.410   3.332
 1785SOL    HW1 7129  13.576   5.376   3.269
 1785SOL    HW2 7130  13.614   5.502   3.343
 1786SOL     OW 7131   0.725   8.567   9.820
 1786SOL    HW1 7132   0.767   8.546   9.904
 1786SOL    HW2 7133   0.715   8.662   9.822
 1787SOL     OW 7134   1.686   4.033   6.984
 1787SOL    HW1 7135   1.712   4.052   7.074
 1787SOL    HW2 7136   1.603   4.078   6.973
 1788SOL     OW 7137   2.905  14.823  11.787
 1788SOL    HW1 7138   2.954   0.024  11.811
 1788SOL    HW2 7139   2.884  14.781  11.870
 1789SOL     OW 7140  13.529   7.634   4.961
 1789SOL    HW1 7141  13.499   7.555   5.006
 1789SOL    HW2 7142  13.624   7.636   4.978
 1790SOL     OW 7143   4.696   7.714   4.238
 1790SOL    HW1 7144   4.727   7.674   4.157
 1790SOL    HW2 7145   4.775   7.725   4.291
 1791SOL     OW 7146   2.361   1.290   9.271
 1791SOL    HW1 7147   2.274   1.328   9.264
 1791SOL    HW2 7148   2.370   1.234   9.194
 1792SOL     OW 7149  14.310   9.823   2.548
 1792SOL    HW1 7150  14.308   9.904   2.599
 1792SOL    HW2 7151  14.222   9.786   2.559
 1793SOL     OW 7152   9.924  13.696   5.775
 1793SOL    HW1 7153   9.930  13.608   5.739
 1793SOL    HW2 7154  10.011  13.712   5.813
 1794SOL     OW 7155   0.714  10.943   3.321
 1794SOL    HW1 7156   0.662  10.885   3.266
 1794SOL    HW2 7157   0.749  10.886   3.390
 1795SOL     OW 7158   0.481  11.103   6.674
 1795SOL    HW1 7159   0.459  11.019   6.714
 1795SOL    HW2 7160   0.484  11.084   6.580
 1796SOL     OW 7161  10.576   2.921   2.487
 1796SOL    HW1 7162  10.595   2.960   2.572
 1796SOL    HW2 7163  10.642   2.957   2.428
 1797SOL     OW 7164   1.547  10.770  11.232
 1797SOL    HW1 7165   1.528  10.851  11.280
 1797SOL    HW2 7166   1.641  10.773  11.214
 1798SOL     OW 7167   9.612  11.224   3.300
 1798SOL    HW1 7168   9.593  11.230   3.393
 1798SOL    HW2 7169   9.707  11.241   3.294
 1799SOL     OW 7170   8.367   8.535   2.065
 1799SOL    HW1 7171   8.297   8.588   2.027
 1799SOL    HW2 7172   8.439   8.541   2.002
 1800SOL     OW 7173  11.423   4.364  11.908
 1800SOL    HW1 7174  11.335   4.332  11.890
 1800SOL    HW2 7175  11.414   4.460  11.912
 1801SOL     OW 7176   6.551  12.907  10.868
 1801SOL    HW1 7177   6.577  12.986  10.916
 1801SOL    HW2 7178   6.563  12.930  10.776
 1802SOL     OW 7179   9.967   5.277   1.250
 1802SOL    HW1 7180   9.902   5.323   1.197
 1802SOL    HW2 7181  10.041   5.337   1.254
 1803SOL     OW 7182  11.766   0.108  14.068
 1803SOL    HW1 7183  11.853   0.131  14.035
 1803SOL    HW2 7184  11.730   0.190  14.101
 1804SOL     OW 7185   2.960   3.944  13.970
 1804SOL    HW1 7186   2.886   3.995  14.004
 1804SOL    HW2 7187   2.996   3.901  14.048
 1805SOL     OW 7188   7.715   6.234  13.211
 1805SOL    HW1 7189   7.721   6.256  13.118
 1805SOL    HW2 7190   7.775   6.296  13.254
 1806SOL     OW 7191  13.627   9.330  14.540
 1806SOL    HW1 7192  13.591   9.285  14.616
 1806SOL    HW2 7193  13.553   9.342  14.481
 1807SOL     OW 7194  13.996  12.157  13.828
 1807SOL    HW1 7195  13.974  12.240  13.870
 1807SOL    HW2 7196  14.034  12.181  13.744
 1808SOL     OW 7197  10.009   9.885   5.759
 1808SOL    HW1 7198  10.075   9.944   5.794
 1808SOL    HW2 7199  10.056   9.805   5.738
 1809SOL     OW 7200   8.994   4.195   8.502
 1809SOL    HW1 7201   8.925   4.134   8.479
 1809SOL    HW2 7202   9.071   4.140   8.516
 1810SOL     OW 7203  13.217   5.547   6.656
 1810SOL    HW1 7204  13.260   5.629   6.633
 1810SOL    HW2 7205  13.200   5.554   6.750
 1811SOL     OW 7206   1.985  12.295   6.201
 1811SOL    HW1 7207   1.970  12.201   6.214
 1811SOL    HW2 7208   1.965  12.335   6.286
 1812SOL     OW 7209   4.836   2.848   6.868
 1812SOL    HW1 7210   4.821   2.941   6.852
 1812SOL    HW2 7211   4.809   2.835   6.959
 1813SOL     OW 7212  12.975  14.546   9.405
 1813SOL    HW1 7213  12.880  14.556   9.416
 1813SOL    HW2 7214  13.012  14.579   9.486
 1814SOL     OW 7215   0.961   5.052   8.721
 1814SOL    HW1 7216   0.955   4.957   8.710
 1814SOL    HW2 7217   0.870   5.082   8.727
 1815SOL     OW 7218  13.423   8.733   5.549
 1815SOL    HW1 7219  13.484   8.666   5.520
 1815SOL    HW2 7220  13.337   8.690   5.546
 1816SOL     OW 7221   6.880  10.997  11.318
 1816SOL    HW1 7222   6.934  11.074  11.337
 1816SOL    HW2 7223   6.803  11.008  11.373
 1817SOL     OW 7224  13.131   3.908   1.773
 1817SOL    HW1 7225  13.220   3.877   1.761
 1817SOL    HW2 7226  13.087   3.838   1.821
 1818SOL     OW 7227   9.033   5.774   9.490
 1818SOL    HW1 7228   9.074   5.694   9.456
 1818SOL    HW2 7229   9.098   5.842   9.477
 1819SOL     OW 7230   3.602   9.976   8.474
 1819SOL    HW1 7231   3.597  10.060   8.428
 1819SOL    HW2 7232   3.512   9.959   8.502
 1820SOL     OW 7233  12.284   4.277  10.912
 1820SOL    HW1 7234  12.291   4.251  11.003
 1820SOL    HW2 7235  12.189   4.287  10.897
 1821SOL     OW 7236   0.088  12.567  11.344
 1821SOL    HW1 7237   0.174  12.559  11.304
 1821SOL    HW2 7238   0.052  12.478  11.342
 1822SOL     OW 7239   0.762  12.747  11.631
 1822SOL    HW1 7240   0.677  12.703  11.630
 1822SOL    HW2 7241   0.793  12.738  11.721
 1823SOL     OW 7242  13.189   2.738  12.827
 1823SOL    HW1 7243  13.220   2.720  12.738
 1823SOL    HW2 7244  13.095   2.719  12.823
 1824SOL     OW 7245   4.593  10.260   0.906
 1824SOL    HW1 7246   4.582  10.316   0.983
 1824SOL    HW2 7247   4.511  10.271   0.857
 1825SOL     OW 7248   9.103   3.713   7.070
 1825SOL    HW1 7249   9.154   3.718   6.989
 1825SOL    HW2 7250   9.166   3.682   7.135
 1826SOL     OW 7251   8.325  10.423   3.247
 1826SOL    HW1 7252   8.254  10.404   3.186
 1826SOL    HW2 7253   8.295  10.387   3.330
 1827SOL     OW 7254   4.598  13.070   7.854
 1827SOL    HW1 7255   4.561  13.155   7.880
 1827SOL    HW2 7256   4.541  13.040   7.783
 1828SOL     OW 7257   4.037   5.799  11.955
 1828SOL    HW1 7258   3.971   5.748  11.908
 1828SOL    HW2 7259   4.108   5.737  11.971
 1829SOL     OW 7260   0.753   1.434   7.091
 1829SOL    HW1 7261   0.667   1.463   7.060
 1829SOL    HW2 7262   0.763   1.346   7.056
 1830SOL     OW 7263  10.875  11.147  14.035
 1830SOL    HW1 7264  10.936  11.208  14.078
 1830SOL    HW2 7265  10.810  11.203  13.994
 1831SOL     OW 7266   7.061   5.263   0.299
 1831SOL    HW1 7267   6.993   5.299   0.356
 1831SOL    HW2 7268   7.026   5.273   0.211
 1832SOL     OW 7269   6.556   4.164   7.158
 1832SOL    HW1 7270   6.625   4.206   7.107
 1832SOL    HW2 7271   6.478   4.217   7.141
 1833SOL     OW 7272   7.212   3.457   8.480
 1833SOL    HW1 7273   7.204   3.433   8.388
 1833SOL    HW2 7274   7.227   3.552   8.479
 1834SOL     OW 7275  13.956   0.425   6.989
 1834SOL    HW1 7276  14.012   0.356   7.026
 1834SOL    HW2 7277  13.904   0.380   6.923
 1835SOL     OW 7278   1.997   2.047   2.327
 1835SOL    HW1 7279   1.971   2.073   2.238
 1835SOL    HW2 7280   2.045   1.965   2.315
 1836SOL     OW 7281  10.601  10.089   9.482
 1836SOL    HW1 7282  10.588  10.183   9.496
 1836SOL    HW2 7283  10.530  10.048   9.531
 1837SOL     OW 7284   6.926   2.371   3.125
 1837SOL    HW1 7285   7.001   2.412   3.081
 1837SOL    HW2 7286   6.966   2.315   3.192
 1838SOL     OW 7287   5.578   2.633   7.357
 1838SOL    HW1 7288   5.514   2.590   7.414
 1838SOL    HW2 7289   5.527   2.697   7.308
 1839SOL     OW 7290  14.473   3.052   1.461
 1839SOL    HW1 7291  14.539   3.103   1.413
 1839SOL    HW2 7292  14.518   2.970   1.484
 1840SOL     OW 7293   4.344  14.724   6.050
 1840SOL    HW1 7294   4.388  14.808   6.040
 1840SOL    HW2 7295   4.402  14.673   6.106
 1841SOL     OW 7296   0.739  13.501   0.746
 1841SOL    HW1 7297   0.656  13.498   0.794
 1841SOL    HW2 7298   0.729  13.435   0.677
 1842SOL     OW 7299  13.695   8.619  12.767
 1842SOL    HW1 7300  13.761   8.639  12.833
 1842SOL    HW2 7301  13.675   8.527  12.781
 1843SOL     OW 7302   0.467   5.099   9.577
 1843SOL    HW1 7303   0.390   5.132   9.623
 1843SOL    HW2 7304   0.526   5.070   9.646
 1844SOL     OW 7305   6.369   6.840   5.955
 1844SOL    HW1 7306   6.287   6.804   5.920
 1844SOL    HW2 7307   6.426   6.764   5.964
 1845SOL     OW 7308   9.145   7.137   6.848
 1845SOL    HW1 7309   9.155   7.065   6.785
 1845SOL    HW2 7310   9.187   7.105   6.927
 1846SOL     OW 7311   0.669   6.134  10.553
 1846SOL    HW1 7312   0.758   6.143  10.519
 1846SOL    HW2 7313   0.641   6.046  10.525
 1847SOL     OW 7314   5.401  13.545  12.748
 1847SOL    HW1 7315   5.437  13.457  12.740
 1847SOL    HW2 7316   5.385  13.573  12.658
 1848SOL     OW 7317   3.896   3.624  14.748
 1848SOL    HW1 7318   3.817   3.644  14.798
 1848SOL    HW2 7319   3.950   3.573  14.808
 1849SOL     OW 7320   1.588  10.691  13.899
 1849SOL    HW1 7321   1.535  10.768  13.883
 1849SOL    HW2 7322   1.527  10.617  13.889
 1850SOL     OW 7323   8.352   9.939   6.102
 1850SOL    HW1 7324   8.285   9.880   6.136
 1850SOL    HW2 7325   8.315  10.027   6.115
 1851SOL     OW 7326   3.692  12.395   3.690
 1851SOL    HW1 7327   3.717  12.471   3.743
 1851SOL    HW2 7328   3.630  12.429   3.625
 1852SOL     OW 7329  13.731   1.867   3.008
 1852SOL    HW1 7330  13.811   1.916   2.988
 1852SOL    HW2 7331  13.760   1.793   3.060
 1853SOL     OW 7332   9.370   0.234  14.455
 1853SOL    HW1 7333   9.349   0.241  14.548
 1853SOL    HW2 7334   9.335   0.149  14.429
 1854SOL     OW 7335   7.099  10.712   4.863
 1854SOL    HW1 7336   7.023  10.674   4.820
 1854SOL    HW2 7337   7.064  10.750   4.944
 1855SOL     OW 7338  10.652   6.765   3.033
 1855SOL    HW1 7339  10.572   6.817   3.033
 1855SOL    HW2 7340  10.699   6.793   2.954
 1856SOL     OW 7341   5.694   2.539  10.851
 1856SOL    HW1 7342   5.610   2.501  10.825
 1856SOL    HW2 7343   5.744   2.545  10.770
 1857SOL     OW 7344   8.110   9.469   5.054
 1857SOL    HW1 7345   8.076   9.385   5.023
 1857SOL    HW2 7346   8.176   9.445   5.119
 1858SOL     OW 7347   4.515   1.650   9.617
 1858SOL    HW1 7348   4.578   1.697   9.672
 1858SOL    HW2 7349   4.560   1.639   9.533
 1859SOL     OW 7350   6.017   0.717   7.377
 1859SOL    HW1 7351   6.026   0.783   7.446
 1859SOL    HW2 7352   5.976   0.763   7.304
 1860SOL     OW 7353   8.135   9.348   0.885
 1860SOL    HW1 7354   8.115   9.270   0.937
 1860SOL    HW2 7355   8.198   9.397   0.938
 1861SOL     OW 7356  12.864   4.924   8.047
 1861SOL    HW1 7357  12.832   4.967   7.968
 1861SOL    HW2 7358  12.958   4.941   8.047
 1862SOL     OW 7359  11.358   7.710  11.974
 1862SOL    HW1 7360  11.398   7.787  11.936
 1862SOL    HW2 7361  11.264   7.727  11.970
 1863SOL     OW 7362   4.666   0.565   1.720
 1863SOL    HW1 7363   4.579   0.588   1.751
 1863SOL    HW2 7364   4.705   0.649   1.697
 1864SOL     OW 7365   3.916   8.571  14.624
 1864SOL    HW1 7366   3.834   8.586  14.672
 1864SOL    HW2 7367   3.916   8.477  14.606
 1865SOL     OW 7368   5.351   2.545   6.195
 1865SOL    HW1 7369   5.415   2.478   6.171
 1865SOL    HW2 7370   5.342   2.536   6.290
 1866SOL     OW 7371  11.435  14.380  11.969
 1866SOL    HW1 7372  11.439  14.324  12.047
 1866SOL    HW2 7373  11.440  14.318  11.896
 1867SOL     OW 7374   2.569   9.374   4.890
 1867SOL    HW1 7375   2.548   9.467   4.893
 1867SOL    HW2 7376   2.664   9.370   4.900
 1868SOL     OW 7377   1.749   9.202  14.340
 1868SOL    HW1 7378   1.801   9.135  14.296
 1868SOL    HW2 7379   1.782   9.203  14.430
 1869SOL     OW 7380  10.878   5.343  14.505
 1869SOL    HW1 7381  10.933   5.397  14.561
 1869SOL    HW2 7382  10.841   5.404  14.441
 1870SOL     OW 7383   5.351  12.084   5.871
 1870SOL    HW1 7384   5.334  11.999   5.911
 1870SOL    HW2 7385   5.444  12.100   5.886
 1871SOL     OW 7386   0.638  13.105  10.723
 1871SOL    HW1 7387   0.572  13.076  10.786
 1871SOL    HW2 7388   0.630  13.200  10.720
 1872SOL     OW 7389   5.155   9.102  10.499
 1872SOL    HW1 7390   5.145   9.053  10.581
 1872SOL    HW2 7391   5.175   9.034  10.434
 1873SOL     OW 7392   9.981  12.372   0.030
 1873SOL    HW1 7393   9.982  12.413  14.821
 1873SOL    HW2 7394   9.970  12.278   0.012
 1874SOL     OW 7395   1.117   9.873   6.384
 1874SOL    HW1 7396   1.058   9.868   6.309
 1874SOL    HW2 7397   1.124   9.783   6.415
 1875SOL     OW 7398   2.760   3.855   5.934
 1875SOL    HW1 7399   2.717   3.777   5.899
 1875SOL    HW2 7400   2.841   3.822   5.973
 1876SOL     OW 7401  12.872  12.147  13.658
 1876SOL    HW1 7402  12.851  12.192  13.740
 1876SOL    HW2 7403  12.884  12.217  13.594
 1877SOL     OW 7404   3.124   3.400   0.804
 1877SOL    HW1 7405   3.052   3.339   0.821
 1877SOL    HW2 7406   3.149   3.431   0.891
 1878SOL     OW 7407   3.812   1.680  10.212
 1878SOL    HW1 7408   3.770   1.708  10.131
 1878SOL    HW2 7409   3.900   1.653  10.186
 1879SOL     OW 7410   9.118  13.092   3.738
 1879SOL    HW1 7411   9.169  13.173   3.739
 1879SOL    HW2 7412   9.174  13.028   3.693
 1880SOL     OW 7413   1.585  12.380   2.938
 1880SOL    HW1 7414   1.501  12.343   2.964
 1880SOL    HW2 7415   1.650  12.324   2.980
 1881SOL     OW 7416   0.834   5.126  13.603
 1881SOL    HW1 7417   0.835   5.082  13.517
 1881SOL    HW2 7418   0.785   5.207  13.587
 1882SOL     OW 7419   5.608   0.682  10.381
 1882SOL    HW1 7420   5.689   0.634  10.399
 1882SOL    HW2 7421   5.628   0.773  10.401
 1883SOL     OW 7422   7.643   1.286   8.114
 1883SOL    HW1 7423   7.641   1.274   8.020
 1883SOL    HW2 7424   7.715   1.347   8.130
 1884SOL     OW 7425   0.327  14.686   1.783
 1884SOL    HW1 7426   0.328  14.736   1.701
 1884SOL    HW2 7427   0.261  14.729   1.837
 1885SOL     OW 7428   1.745  12.919   1.637
 1885SOL    HW1 7429   1.695  12.896   1.716
 1885SOL    HW2 7430   1.770  12.835   1.599
 1886SOL     OW 7431   9.833   7.534   2.893
 1886SOL    HW1 7432   9.802   7.514   2.805
 1886SOL    HW2 7433   9.927   7.548   2.883
 1887SOL     OW 7434   8.827   0.975   3.009
 1887SOL    HW1 7435   8.866   1.047   3.058
 1887SOL    HW2 7436   8.742   0.961   3.052
 1888SOL     OW 7437   2.906   5.472   7.929
 1888SOL    HW1 7438   2.930   5.472   7.836
 1888SOL    HW2 7439   2.822   5.426   7.932
 1889SOL     OW 7440   7.467   8.954   6.511
 1889SOL    HW1 7441   7.535   8.887   6.517
 1889SOL    HW2 7442   7.420   8.948   6.594
 1890SOL     OW 7443  14.752   0.504  14.182
 1890SOL    HW1 7444  14.667   0.523  14.222
 1890SOL    HW2 7445  14.815   0.523  14.251
 1891SOL     OW 7446   8.521   6.316  12.079
 1891SOL    HW1 7447   8.551   6.232  12.045
 1891SOL    HW2 7448   8.555   6.321  12.168
 1892SOL     OW 7449   2.456   4.550  13.705
 1892SOL    HW1 7450   2.439   4.456  13.716
 1892SOL    HW2 7451   2.517   4.554  13.631
 1893SOL     OW 7452  13.836   9.196  13.079
 1893SOL    HW1 7453  13.747   9.166  13.096
 1893SOL    HW2 7454  13.891   9.119  13.091
 1894SOL     OW 7455   1.421   4.418   2.364
 1894SOL    HW1 7456   1.502   4.372   2.342
 1894SOL    HW2 7457   1.424   4.429   2.459
 1895SOL     OW 7458  14.668   8.232   6.073
 1895SOL    HW1 7459  14.722   8.272   6.006
 1895SOL    HW2 7460  14.667   8.296   6.144
 1896SOL     OW 7461  13.276  10.033   6.744
 1896SOL    HW1 7462  13.232  10.116   6.764
 1896SOL    HW2 7463  13.358  10.036   6.794
 1897SOL     OW 7464   9.775   7.377   2.027
 1897SOL    HW1 7465   9.726   7.446   1.983
 1897SOL    HW2 7466   9.733   7.296   2.000
 1898SOL     OW 7467   9.694  13.103   8.841
 1898SOL    HW1 7468   9.606  13.127   8.870
 1898SOL    HW2 7469   9.747  13.107   8.920
 1899SOL     OW 7470   4.416  12.315   0.322
 1899SOL    HW1 7471   4.385  12.224   0.326
 1899SOL    HW2 7472   4.511  12.308   0.318
 1900SOL     OW 7473  10.724   2.939   6.012
 1900SOL    HW1 7474  10.793   2.897   5.960
 1900SOL    HW2 7475  10.654   2.956   5.949
 1901SOL     OW 7476   8.504   7.085   0.752
 1901SOL    HW1 7477   8.491   7.085   0.847
 1901SOL    HW2 7478   8.518   6.993   0.729
 1902SOL     OW 7479   4.281   4.483   2.783
 1902SOL    HW1 7480   4.339   4.441   2.719
 1902SOL    HW2 7481   4.319   4.570   2.796
 1903SOL     OW 7482   6.945  11.141   1.871
 1903SOL    HW1 7483   6.912  11.128   1.960
 1903SOL    HW2 7484   6.953  11.053   1.835
 1904SOL     OW 7485   3.478   3.565   4.419
 1904SOL    HW1 7486   3.562   3.608   4.400
 1904SOL    HW2 7487   3.414   3.637   4.419
 1905SOL     OW 7488   9.738  13.710   0.103
 1905SOL    HW1 7489   9.821  13.690   0.147
 1905SOL    HW2 7490   9.671  13.697   0.169
 1906SOL     OW 7491   4.547   3.769   7.299
 1906SOL    HW1 7492   4.477   3.707   7.277
 1906SOL    HW2 7493   4.611   3.757   7.229
 1907SOL     OW 7494  14.498   0.109   7.832
 1907SOL    HW1 7495  14.430   0.174   7.850
 1907SOL    HW2 7496  14.456   0.025   7.851
 1908SOL     OW 7497   0.867   7.294  11.314
 1908SOL    HW1 7498   0.844   7.350  11.240
 1908SOL    HW2 7499   0.804   7.222  11.310
 1909SOL     OW 7500   3.734  12.942   2.969
 1909SOL    HW1 7501   3.684  12.919   2.891
 1909SOL    HW2 7502   3.703  12.880   3.036
 1910SOL     OW 7503   0.588   3.961   6.854
 1910SOL    HW1 7504   0.603   4.045   6.897
 1910SOL    HW2 7505   0.666   3.910   6.874
 1911SOL     OW 7506  13.490   4.213   9.162
 1911SOL    HW1 7507  13.404   4.174   9.178
 1911SOL    HW2 7508  13.538   4.146   9.113
 1912SOL     OW 7509   1.598   7.292  10.581
 1912SOL    HW1 7510   1.631   7.300  10.491
 1912SOL    HW2 7511   1.502   7.295  10.572
 1913SOL     OW 7512   7.714   1.269  10.278
 1913SOL    HW1 7513   7.649   1.301  10.215
 1913SOL    HW2 7514   7.705   1.174  10.275
 1914SOL     OW 7515   6.115  14.712   1.349
 1914SOL    HW1 7516   6.178  14.744   1.285
 1914SOL    HW2 7517   6.035  14.695   1.299
 1915SOL     OW 7518   0.180   9.195   8.132
 1915SOL    HW1 7519   0.095   9.195   8.087
 1915SOL    HW2 7520   0.159   9.208   8.224
 1916SOL     OW 7521   3.599   6.600   6.241
 1916SOL    HW1 7522   3.694   6.609   6.245
 1916SOL    HW2 7523   3.575   6.640   6.157
 1917SOL     OW 7524  13.618   1.757   2.290
 1917SOL    HW1 7525  13.660   1.841   2.268
 1917SOL    HW2 7526  13.687   1.707   2.334
 1918SOL     OW 7527   2.543  10.234   2.895
 1918SOL    HW1 7528   2.449  10.246   2.912
 1918SOL    HW2 7529   2.571  10.169   2.959
 1919SOL     OW 7530   0.811   0.240   1.080
 1919SOL    HW1 7531   0.841   0.247   1.170
 1919SOL    HW2 7532   0.797   0.146   1.066
 1920SOL     OW 7533   4.910  14.080   0.417
 1920SOL    HW1 7534   4.995  14.122   0.410
 1920SOL    HW2 7535   4.852  14.133   0.362
 1921SOL     OW 7536   3.916   2.210  14.364
 1921SOL    HW1 7537   3.974   2.236  14.292
 1921SOL    HW2 7538   3.843   2.165  14.321
 1922SOL     OW 7539   8.564  13.879   7.600
 1922SOL    HW1 7540   8.643  13.920   7.563
 1922SOL    HW2 7541   8.550  13.926   7.682
 1923SOL     OW 7542   1.690   0.997   2.477
 1923SOL    HW1 7543   1.622   1.056   2.511
 1923SOL    HW2 7544   1.745   0.978   2.554
 1924SOL     OW 7545  13.478   8.422   9.969
 1924SOL    HW1 7546  13.421   8.415   9.893
 1924SOL    HW2 7547  13.477   8.515   9.992
 1925SOL     OW 7548  11.848   9.454  11.265
 1925SOL    HW1 7549  11.833   9.528  11.205
 1925SOL    HW2 7550  11.760   9.432  11.297
 1926SOL     OW 7551   6.796  14.566  14.080
 1926SOL    HW1 7552   6.872  14.622  14.061
 1926SOL    HW2 7553   6.824  14.512  14.154
 1927SOL     OW 7554   6.318   1.173  11.883
 1927SOL    HW1 7555   6.270   1.256  11.872
 1927SOL    HW2 7556   6.295   1.122  11.806
 1928SOL     OW 7557   4.843  11.400   3.928
 1928SOL    HW1 7558   4.894  11.477   3.952
 1928SOL    HW2 7559   4.876  11.330   3.984
 1929SOL     OW 7560  10.382  12.272   1.867
 1929SOL    HW1 7561  10.350  12.358   1.841
 1929SOL    HW2 7562  10.318  12.241   1.931
 1930SOL     OW 7563   7.870   4.525  14.423
 1930SOL    HW1 7564   7.957   4.564  14.409
 1930SOL    HW2 7565   7.873   4.442  14.376
 1931SOL     OW 7566  14.380   0.744   7.813
 1931SOL    HW1 7567  14.313   0.811   7.803
 1931SOL    HW2 7568  14.383   0.726   7.907
 1932SOL     OW 7569  14.816   5.975   8.004
 1932SOL    HW1 7570  14.835   5.984   7.910
 1932SOL    HW2 7571  14.755   5.902   8.008
 1933SOL     OW 7572   5.796  10.325   0.156
 1933SOL    HW1 7573   5.861  10.380   0.113
 1933SOL    HW2 7574   5.763  10.268   0.087
 1934SOL     OW 7575   4.869   6.168   5.153
 1934SOL    HW1 7576   4.859   6.241   5.214
 1934SOL    HW2 7577   4.958   6.179   5.117
 1935SOL     OW 7578   7.733   7.895   3.842
 1935SOL    HW1 7579   7.822   7.861   3.832
 1935SOL    HW2 7580   7.679   7.835   3.789
 1936SOL     OW 7581   6.587   3.651   3.439
 1936SOL    HW1 7582   6.550   3.567   3.465
 1936SOL    HW2 7583   6.531   3.716   3.482
 1937SOL     OW 7584  13.122   3.291   0.348
 1937SOL    HW1 7585  13.115   3.196   0.336
 1937SOL    HW2 7586  13.114   3.327   0.260
 1938SOL     OW 7587   2.612   5.738   5.121
 1938SOL    HW1 7588   2.587   5.690   5.200
 1938SOL    HW2 7589   2.572   5.690   5.049
 1939SOL     OW 7590  12.174   4.346   0.829
 1939SOL    HW1 7591  12.185   4.405   0.904
 1939SOL    HW2 7592  12.138   4.266   0.867
 1940SOL     OW 7593   1.868  13.713   3.961
 1940SOL    HW1 7594   1.924  13.650   3.916
 1940SOL    HW2 7595   1.822  13.661   4.027
 1941SOL     OW 7596  13.689  13.710   4.984
 1941SOL    HW1 7597  13.760  13.727   5.046
 1941SOL    HW2 7598  13.615  13.759   5.019
 1942SOL     OW 7599  11.668  13.312   1.598
 1942SOL    HW1 7600  11.623  13.246   1.653
 1942SOL    HW2 7601  11.757  13.314   1.632
 1943SOL     OW 7602   4.661  13.888  11.602
 1943SOL    HW1 7603   4.661  13.840  11.519
 1943SOL    HW2 7604   4.602  13.961  11.587
 1944SOL     OW 7605  10.022  13.647  12.494
 1944SOL    HW1 7606  10.022  13.725  12.549
 1944SOL    HW2 7607  10.111  13.643  12.458
 1945SOL     OW 7608   6.313   5.020   2.220
 1945SOL    HW1 7609   6.378   4.963   2.261
 1945SOL    HW2 7610   6.273   4.966   2.152
 1946SOL     OW 7611   5.913   7.262   9.790
 1946SOL    HW1 7612   5.909   7.195   9.721
 1946SOL    HW2 7613   5.821   7.285   9.806
 1947SOL     OW 7614   3.567   8.668   0.684
 1947SOL    HW1 7615   3.618   8.716   0.618
 1947SOL    HW2 7616   3.519   8.601   0.634
 1948SOL     OW 7617   1.261   1.962  13.357
 1948SOL    HW1 7618   1.296   1.938  13.271
 1948SOL    HW2 7619   1.338   1.968  13.413
 1949SOL     OW 7620   2.449   9.673   6.661
 1949SOL    HW1 7621   2.479   9.624   6.738
 1949SOL    HW2 7622   2.395   9.743   6.697
 1950SOL     OW 7623  12.226  13.635   9.229
 1950SOL    HW1 7624  12.185  13.549   9.239
 1950SOL    HW2 7625  12.266  13.652   9.314
 1951SOL     OW 7626   3.646   4.506  10.306
 1951SOL    HW1 7627   3.723   4.486  10.253
 1951SOL    HW2 7628   3.592   4.427  10.300
 1952SOL     OW 7629   0.338   5.126   4.841
 1952SOL    HW1 7630   0.311   5.108   4.931
 1952SOL    HW2 7631   0.326   5.043   4.795
 1953SOL     OW 7632  12.198   9.218  12.541
 1953SOL    HW1 7633  12.123   9.206  12.600
 1953SOL    HW2 7634  12.252   9.140  12.555
 1954SOL     OW 7635   5.104   3.987   2.922
 1954SOL    HW1 7636   5.099   3.932   2.844
 1954SOL    HW2 7637   5.014   4.020   2.934
 1955SOL     OW 7638  13.822   3.576   0.916
 1955SOL    HW1 7639  13.863   3.592   1.000
 1955SOL    HW2 7640  13.885   3.521   0.868
 1956SOL     OW 7641   5.655   9.657   5.568
 1956SOL    HW1 7642   5.698   9.742   5.567
 1956SOL    HW2 7643   5.724   9.596   5.594
 1957SOL     OW 7644  11.828   0.570  11.739
 1957SOL    HW1 7645  11.846   0.526  11.823
 1957SOL    HW2 7646  11.767   0.640  11.762
 1958SOL     OW 7647  12.390  13.532   2.344
 1958SOL    HW1 7648  12.430  13.447   2.365
 1958SOL    HW2 7649  12.299  13.523   2.372
 1959SOL     OW 7650   7.921   3.619   5.547
 1959SOL    HW1 7651   7.919   3.629   5.642
 1959SOL    HW2 7652   7.911   3.708   5.514
 1960SOL     OW 7653   7.940   0.062   3.896
 1960SOL    HW1 7654   7.965  14.850   3.872
 1960SOL    HW2 7655   8.023   0.108   3.908
 1961SOL     OW 7656   2.148   9.379  11.091
 1961SOL    HW1 7657   2.191   9.324  11.025
 1961SOL    HW2 7658   2.070   9.329  11.117
 1962SOL     OW 7659   0.632  14.580   6.596
 1962SOL    HW1 7660   0.705  14.632   6.631
 1962SOL    HW2 7661   0.580  14.642   6.545
 1963SOL     OW 7662   9.055   2.090  14.394
 1963SOL    HW1 7663   9.056   2.057  14.484
 1963SOL    HW2 7664   9.127   2.153  14.392
 1964SOL     OW 7665  10.511   3.692   9.790
 1964SOL    HW1 7666  10.578   3.630   9.761
 1964SOL    HW2 7667  10.505   3.756   9.719
 1965SOL     OW 7668   2.924   4.233   1.633
 1965SOL    HW1 7669   2.865   4.307   1.620
 1965SOL    HW2 7670   2.993   4.266   1.689
 1966SOL     OW 7671   7.733  14.639  12.372
 1966SOL    HW1 7672   7.771  14.722  12.401
 1966SOL    HW2 7673   7.657  14.665  12.319
 1967SOL     OW 7674  14.580   7.049   6.332
 1967SOL    HW1 7675  14.621   6.984   6.275
 1967SOL    HW2 7676  14.621   7.035   6.417
 1968SOL     OW 7677  10.528  14.319   2.283
 1968SOL    HW1 7678  10.433  14.311   2.272
 1968SOL    HW2 7679  10.565  14.277   2.205
 1969SOL     OW 7680   9.762   9.712   8.090
 1969SOL    HW1 7681   9.673   9.745   8.099
 1969SOL    HW2 7682   9.783   9.674   8.175
 1970SOL     OW 7683   1.265  11.440  10.569
 1970SOL    HW1 7684   1.181  11.459  10.528
 1970SOL    HW2 7685   1.244  11.380  10.641
 1971SOL     OW 7686   1.585  10.204  12.130
 1971SOL    HW1 7687   1.518  10.214  12.062
 1971SOL    HW2 7688   1.583  10.111  12.151
 1972SOL     OW 7689  10.104   6.651  13.724
 1972SOL    HW1 7690  10.015   6.616  13.728
 1972SOL    HW2 7691  10.153   6.598  13.788
 1973SOL     OW 7692  11.505   7.846   0.397
 1973SOL    HW1 7693  11.600   7.853   0.403
 1973SOL    HW2 7694  11.487   7.848   0.303
 1974SOL     OW 7695   9.044  11.065  13.360
 1974SOL    HW1 7696   8.980  11.121  13.317
 1974SOL    HW2 7697   9.082  11.120  13.429
 1975SOL     OW 7698   0.501  11.699  10.256
 1975SOL    HW1 7699   0.449  11.715  10.177
 1975SOL    HW2 7700   0.438  11.661  10.318
 1976SOL     OW 7701  13.890   8.386  11.857
 1976SOL    HW1 7702  13.936   8.339  11.926
 1976SOL    HW2 7703  13.957   8.439  11.814
 1977SOL     OW 7704  11.281   8.062   7.870
 1977SOL    HW1 7705  11.220   8.010   7.921
 1977SOL    HW2 7706  11.238   8.147   7.859
 1978SOL     OW 7707   7.639  11.971   4.283
 1978SOL    HW1 7708   7.673  11.992   4.370
 1978SOL    HW2 7709   7.716  11.944   4.233
 1979SOL     OW 7710   3.261   5.332   0.270
 1979SOL    HW1 7711   3.215   5.324   0.354
 1979SOL    HW2 7712   3.196   5.372   0.211
 1980SOL     OW 7713   7.815   4.016   9.235
 1980SOL    HW1 7714   7.754   4.079   9.273
 1980SOL    HW2 7715   7.844   4.056   9.153
 1981SOL     OW 7716  11.479   1.994   8.940
 1981SOL    HW1 7717  11.441   2.061   8.998
 1981SOL    HW2 7718  11.505   2.041   8.861
 1982SOL     OW 7719   2.510  13.362   5.489
 1982SOL    HW1 7720   2.420  13.339   5.470
 1982SOL    HW2 7721   2.561  13.319   5.421
 1983SOL     OW 7722   6.940   9.661   5.245
 1983SOL    HW1 7723   6.932   9.720   5.170
 1983SOL    HW2 7724   6.854   9.665   5.286
 1984SOL     OW 7725  14.729   2.588  11.243
 1984SOL    HW1 7726  14.823   2.607  11.233
 1984SOL    HW2 7727  14.719   2.500  11.207
 1985SOL     OW 7728  13.136   4.845  12.341
 1985SOL    HW1 7729  13.214   4.810  12.384
 1985SOL    HW2 7730  13.164   4.866  12.253
 1986SOL     OW 7731  11.657  13.530   2.665
 1986SOL    HW1 7732  11.684  13.507   2.754
 1986SOL    HW2 7733  11.562  13.538   2.670
 1987SOL     OW 7734   2.722  11.200   2.099
 1987SOL    HW1 7735   2.813  11.217   2.076
 1987SOL    HW2 7736   2.715  11.227   2.191
 1988SOL     OW 7737  10.932  13.609   3.229
 1988SOL    HW1 7738  10.914  13.545   3.298
 1988SOL    HW2 7739  10.856  13.605   3.172
 1989SOL     OW 7740   4.680   4.138  13.375
 1989SOL    HW1 7741   4.710   4.193  13.302
 1989SOL    HW2 7742   4.584   4.140  13.369
 1990SOL     OW 7743  11.162   7.370   7.333
 1990SOL    HW1 7744  11.153   7.296   7.273
 1990SOL    HW2 7745  11.249   7.406   7.313
 1991SOL     OW 7746   4.190   4.922   1.594
 1991SOL    HW1 7747   4.117   4.909   1.655
 1991SOL    HW2 7748   4.176   4.857   1.526
 1992SOL     OW 7749  12.119   3.666   6.298
 1992SOL    HW1 7750  12.120   3.649   6.204
 1992SOL    HW2 7751  12.058   3.602   6.334
 1993SOL     OW 7752   0.635  14.638  10.738
 1993SOL    HW1 7753   0.562  14.693  10.711
 1993SOL    HW2 7754   0.641  14.571  10.670
 1994SOL     OW 7755   6.701  11.908   4.439
 1994SOL    HW1 7756   6.779  11.948   4.399
 1994SOL    HW2 7757   6.638  11.902   4.368
 1995SOL     OW 7758   7.927   7.693   0.943
 1995SOL    HW1 7759   7.969   7.650   0.869
 1995SOL    HW2 7760   7.997   7.704   1.007
 1996SOL     OW 7761   7.125   0.100  14.139
 1996SOL    HW1 7762   7.139   0.189  14.107
 1996SOL    HW2 7763   7.173   0.044  14.078
 1997SOL     OW 7764   7.482   8.778   1.804
 1997SOL    HW1 7765   7.490   8.731   1.721
 1997SOL    HW2 7766   7.391   8.764   1.832
 1998SOL     OW 7767   9.625  11.804  10.229
 1998SOL    HW1 7768   9.603  11.813  10.321
 1998SOL    HW2 7769   9.719  11.786  10.228
 1999SOL     OW 7770   7.103   4.781   8.457
 1999SOL    HW1 7771   7.161   4.797   8.382
 1999SOL    HW2 7772   7.159   4.796   8.534
 2000SOL     OW 7773   3.379  14.718  14.453
 2000SOL    HW1 7774   3.340  14.723  14.540
 2000SOL    HW2 7775   3.443  14.647  14.460
 2001SOL     OW 7776   8.634  12.917  13.641
 2001SOL    HW1 7777   8.545  12.887  13.623
 2001SOL    HW2 7778   8.678  12.840  13.677
 2002SOL     OW 7779   8.257   7.616   8.204
 2002SOL    HW1 7780   8.164   7.637   8.205
 2002SOL    HW2 7781   8.264   7.535   8.255
 2003SOL     OW 7782  12.986   9.242   6.863
 2003SOL    HW1 7783  12.907   9.198   6.830
 2003SOL    HW2 7784  12.973   9.248   6.957
 2004SOL     OW 7785   6.078   3.231   4.416
 2004SOL    HW1 7786   6.025   3.268   4.346
 2004SOL    HW2 7787   6.162   3.212   4.375
 2005SOL     OW 7788   9.285   6.160   2.309
 2005SOL    HW1 7789   9.303   6.082   2.363
 2005SOL    HW2 7790   9.254   6.125   2.226
 2006SOL     OW 7791   4.354   2.765  14.091
 2006SOL    HW1 7792   4.395   2.707  14.027
 2006SOL    HW2 7793   4.427   2.805  14.138
 2007SOL     OW 7794   7.327   4.708   6.544
 2007SOL    HW1 7795   7.240   4.667   6.549
 2007SOL    HW2 7796   7.376   4.653   6.483
 2008SOL     OW 7797   9.206  11.887   3.652
 2008SOL    HW1 7798   9.268  11.817   3.672
 2008SOL    HW2 7799   9.226  11.912   3.562
 2009SOL     OW 7800   9.559   5.947   8.943
 2009SOL    HW1 7801   9.548   6.001   8.865
 2009SOL    HW2 7802   9.487   5.884   8.938
 2010SOL     OW 7803   2.945   6.784   4.909
 2010SOL    HW1 7804   3.038   6.801   4.917
 2010SOL    HW2 7805   2.915   6.768   4.999
 2011SOL     OW 7806   3.809  13.346  10.682
 2011SOL    HW1 7807   3.753  13.413  10.719
 2011SOL    HW2 7808   3.750  13.288  10.635
 2012SOL     OW 7809   2.475  11.893  13.819
 2012SOL    HW1 7810   2.414  11.822  13.841
 2012SOL    HW2 7811   2.443  11.926  13.736
 2013SOL     OW 7812   1.829  12.601  10.633
 2013SOL    HW1 7813   1.747  12.620  10.587
 2013SOL    HW2 7814   1.823  12.652  10.713
 2014SOL     OW 7815   2.460  11.104   5.695
 2014SOL    HW1 7816   2.506  11.137   5.618
 2014SOL    HW2 7817   2.425  11.019   5.669
 2015SOL     OW 7818  11.372   2.058  12.044
 2015SOL    HW1 7819  11.346   2.144  12.011
 2015SOL    HW2 7820  11.436   2.076  12.112
 2016SOL     OW 7821  10.329  10.294   8.228
 2016SOL    HW1 7822  10.277  10.219   8.199
 2016SOL    HW2 7823  10.399  10.301   8.164
 2017SOL     OW 7824  10.274   4.387   4.826
 2017SOL    HW1 7825  10.298   4.457   4.887
 2017SOL    HW2 7826  10.217   4.329   4.877
 2018SOL     OW 7827   9.540   9.198  12.084
 2018SOL    HW1 7828   9.513   9.165  12.169
 2018SOL    HW2 7829   9.465   9.250  12.053
 2019SOL     OW 7830   5.944  10.556   5.472
 2019SOL    HW1 7831   5.963  10.649   5.460
 2019SOL    HW2 7832   5.849  10.550   5.460
 2020SOL     OW 7833  11.804   0.954   3.596
 2020SOL    HW1 7834  11.822   0.871   3.552
 2020SOL    HW2 7835  11.768   0.929   3.681
 2021SOL     OW 7836   2.157   9.820   8.225
 2021SOL    HW1 7837   2.154   9.878   8.302
 2021SOL    HW2 7838   2.202   9.742   8.256
 2022SOL     OW 7839   4.970   8.581   6.252
 2022SOL    HW1 7840   5.046   8.585   6.194
 2022SOL    HW2 7841   4.912   8.650   6.220
 2023SOL     OW 7842   1.730  13.942   9.959
 2023SOL    HW1 7843   1.692  13.924   9.873
 2023SOL    HW2 7844   1.728  13.857  10.004
 2024SOL     OW 7845  14.534  14.468   8.688
 2024SOL    HW1 7846  14.549  14.513   8.771
 2024SOL    HW2 7847  14.466  14.519   8.645
 2025SOL     OW 7848   0.252   3.436   6.108
 2025SOL    HW1 7849   0.301   3.354   6.119
 2025SOL    HW2 7850   0.197   3.441   6.186
 2026SOL     OW 7851   4.988   3.480   3.549
 2026SOL    HW1 7852   5.076   3.448   3.567
 2026SOL    HW2 7853   4.968   3.445   3.462
 2027SOL     OW 7854  14.787   4.964   5.329
 2027SOL    HW1 7855  14.728   4.999   5.396
 2027SOL    HW2 7856  14.793   5.034   5.263
 2028SOL     OW 7857   4.785   3.600   9.044
 2028SOL    HW1 7858   4.825   3.526   9.090
 2028SOL    HW2 7859   4.765   3.566   8.957
 2029SOL     OW 7860  12.579   6.657  11.630
 2029SOL    HW1 7861  12.652   6.718  11.621
 2029SOL    HW2 7862  12.523   6.698  11.697
 2030SOL     OW 7863   0.408   4.530   9.588
 2030SOL    HW1 7864   0.407   4.466   9.659
 2030SOL    HW2 7865   0.402   4.477   9.508
 2031SOL     OW 7866   5.183  11.105  10.529
 2031SOL    HW1 7867   5.245  11.063  10.471
 2031SOL    HW2 7868   5.098  11.092  10.488
 2032SOL     OW 7869  13.832  10.881   6.794
 2032SOL    HW1 7870  13.813  10.796   6.832
 2032SOL    HW2 7871  13.916  10.871   6.751
 2033SOL     OW 7872   6.909   4.786  10.511
 2033SOL    HW1 7873   6.954   4.868  10.535
 2033SOL    HW2 7874   6.830   4.815  10.466
 2034SOL     OW 7875   4.603  12.068   1.522
 2034SOL    HW1 7876   4.551  12.045   1.599
 2034SOL    HW2 7877   4.556  12.028   1.449
 2035SOL     OW 7878   3.518   6.716   5.995
 2035SOL    HW1 7879   3.553   6.655   5.930
 2035SOL    HW2 7880   3.424   6.719   5.977
 2036SOL     OW 7881   6.353   2.263  12.562
 2036SOL    HW1 7882   6.389   2.174  12.562
 2036SOL    HW2 7883   6.302   2.268  12.642
 2037SOL     OW 7884   2.234   9.021   5.349
 2037SOL    HW1 7885   2.166   9.000   5.284
 2037SOL    HW2 7886   2.260   9.110   5.328
 2038SOL     OW 7887   6.444   1.593   4.379
 2038SOL    HW1 7888   6.414   1.653   4.310
 2038SOL    HW2 7889   6.364   1.549   4.408
 2039SOL     OW 7890   2.945  13.437   4.608
 2039SOL    HW1 7891   2.948  13.379   4.685
 2039SOL    HW2 7892   2.882  13.395   4.550
 2040SOL     OW 7893   1.776   4.472  10.958
 2040SOL    HW1 7894   1.758   4.430  10.873
 2040SOL    HW2 7895   1.691   4.508  10.985
 2041SOL     OW 7896   3.021  10.725   9.974
 2041SOL    HW1 7897   2.972  10.644   9.957
 2041SOL    HW2 7898   2.974  10.792   9.924
 2042SOL     OW 7899  10.042  10.771  14.644
 2042SOL    HW1 7900   9.958  10.790  14.601
 2042SOL    HW2 7901  10.087  10.713  14.583
 2043SOL     OW 7902   8.252   9.249   0.645
 2043SOL    HW1 7903   8.214   9.205   0.721
 2043SOL    HW2 7904   8.320   9.306   0.683
 2044SOL     OW 7905  10.375   3.570  10.006
 2044SOL    HW1 7906  10.384   3.478   9.981
 2044SOL    HW2 7907  10.416   3.619   9.934
 2045SOL     OW 7908   6.159   7.262  13.480
 2045SOL    HW1 7909   6.223   7.220  13.423
 2045SOL    HW2 7910   6.099   7.191  13.504
 2046SOL     OW 7911  12.948   7.367  11.724
 2046SOL    HW1 7912  13.023   7.333  11.675
 2046SOL    HW2 7913  12.938   7.456  11.692
 2047SOL     OW 7914   0.382  12.768   5.829
 2047SOL    HW1 7915   0.426  12.696   5.874
 2047SOL    HW2 7916   0.301  12.780   5.880
 2048SOL     OW 7917   8.597   0.936   6.853
 2048SOL    HW1 7918   8.647   0.855   6.851
 2048SOL    HW2 7919   8.546   0.934   6.771
 2049SOL     OW 7920   3.486   6.210   0.289
 2049SOL    HW1 7921   3.556   6.258   0.334
 2049SOL    HW2 7922   3.526   6.128   0.263
 2050SOL     OW 7923   8.287  12.313   0.842
 2050SOL    HW1 7924   8.287  12.371   0.766
 2050SOL    HW2 7925   8.361  12.342   0.895
 2051SOL     OW 7926   0.229  10.996  13.290
 2051SOL    HW1 7927   0.246  11.076  13.341
 2051SOL    HW2 7928   0.146  10.963  13.325
 2052SOL     OW 7929   6.651  12.991   6.782
 2052SOL    HW1 7930   6.744  12.989   6.760
 2052SOL    HW2 7931   6.634  13.082   6.806
 2053SOL     OW 7932  10.549   0.309   0.866
 2053SOL    HW1 7933  10.496   0.229   0.863
 2053SOL    HW2 7934  10.495   0.375   0.821
 2054SOL     OW 7935  12.868   6.835  11.446
 2054SOL    HW1 7936  12.838   6.767  11.386
 2054SOL    HW2 7937  12.957   6.809  11.470
 2055SOL     OW 7938   4.653  11.083   4.033
 2055SOL    HW1 7939   4.628  11.113   4.120
 2055SOL    HW2 7940   4.574  11.041   3.998
 2056SOL     OW 7941   5.923  10.426   1.180
 2056SOL    HW1 7942   5.944  10.333   1.171
 2056SOL    HW2 7943   6.001  10.465   1.218
 2057SOL     OW 7944   8.034   1.305  14.749
 2057SOL    HW1 7945   7.951   1.319  14.794
 2057SOL    HW2 7946   8.097   1.285  14.818
 2058SOL     OW 7947   3.041   9.711   6.876
 2058SOL    HW1 7948   3.007   9.678   6.793
 2058SOL    HW2 7949   2.966   9.751   6.919
 2059SOL     OW 7950  13.500   6.668  12.364
 2059SOL    HW1 7951  13.570   6.730  12.344
 2059SOL    HW2 7952  13.546   6.585  12.381
 2060SOL     OW 7953   6.422   3.081  11.458
 2060SOL    HW1 7954   6.333   3.053  11.478
 2060SOL    HW2 7955   6.462   3.005  11.416
 2061SOL     OW 7956  12.619   3.994   2.561
 2061SOL    HW1 7957  12.552   3.948   2.611
 2061SOL    HW2 7958  12.582   4.081   2.545
 2062SOL     OW 7959   0.410   9.113  11.280
 2062SOL    HW1 7960   0.405   9.171  11.204
 2062SOL    HW2 7961   0.449   9.168  11.349
 2063SOL     OW 7962   3.655   3.133  10.813
 2063SOL    HW1 7963   3.709   3.095  10.882
 2063SOL    HW2 7964   3.566   3.126  10.846
 2064SOL     OW 7965   9.519   9.809   8.112
 2064SOL    HW1 7966   9.473   9.754   8.175
 2064SOL    HW2 7967   9.475   9.894   8.119
 2065SOL     OW 7968   9.224  14.088  13.868
 2065SOL    HW1 7969   9.262  14.164  13.911
 2065SOL    HW2 7970   9.288  14.063  13.802
 2066SOL     OW 7971  14.569   9.797  10.728
 2066SOL    HW1 7972  14.627   9.831  10.796
 2066SOL    HW2 7973  14.519   9.873  10.699
 2067SOL     OW 7974   6.885   5.485   4.728
 2067SOL    HW1 7975   6.979   5.501   4.727
 2067SOL    HW2 7976   6.860   5.495   4.820
 2068SOL     OW 7977   2.575   5.168  13.183
 2068SOL    HW1 7978   2.670   5.178  13.173
 2068SOL    HW2 7979   2.547   5.128  13.101
 2069SOL     OW 7980  10.886   8.938  12.369
 2069SOL    HW1 7981  10.813   8.883  12.398
 2069SOL    HW2 7982  10.950   8.877  12.333
 2070SOL     OW 7983   5.181   8.246   9.435
 2070SOL    HW1 7984   5.100   8.243   9.488
 2070SOL    HW2 7985   5.170   8.176   9.371
 2071SOL     OW 7986   7.927  10.424   2.643
 2071SOL    HW1 7987   7.973  10.351   2.686
 2071SOL    HW2 7988   7.935  10.497   2.705
 2072SOL     OW 7989   6.501   1.626   5.407
 2072SOL    HW1 7990   6.443   1.698   5.430
 2072SOL    HW2 7991   6.585   1.668   5.389
 2073SOL     OW 7992   9.179   5.109   9.098
 2073SOL    HW1 7993   9.128   5.182   9.134
 2073SOL    HW2 7994   9.143   5.095   9.011
 2074SOL     OW 7995   1.075   7.345  11.510
 2074SOL    HW1 7996   0.994   7.362  11.462
 2074SOL    HW2 7997   1.115   7.271  11.465
 2075SOL     OW 7998  10.349   2.905   0.260
 2075SOL    HW1 7999  10.417   2.962   0.296
 2075SOL    HW2 8000  10.356   2.824   0.311
 2076SOL     OW 8001   7.290   4.874   8.288
 2076SOL    HW1 8002   7.316   4.953   8.334
 2076SOL    HW2 8003   7.371   4.824   8.279
 2077SOL     OW 8004  12.182   7.218  12.821
 2077SOL    HW1 8005  12.192   7.272  12.899
 2077SOL    HW2 8006  12.088   7.215  12.806
 2078SOL     OW 8007  11.266   9.441   5.653
 2078SOL    HW1 8008  11.177   9.407   5.646
 2078SOL    HW2 8009  11.256   9.523   5.701
 2079SOL     OW 8010  12.871   5.954   2.042
 2079SOL    HW1 8011  12.912   6.030   2.083
 2079SOL    HW2 8012  12.928   5.932   1.968
 2080SOL     OW 8013  14.213  11.798  11.753
 2080SOL    HW1 8014  14.165  11.745  11.817
 2080SOL    HW2 8015  14.152  11.810  11.681
 2081SOL     OW 8016   8.408  10.262  13.128
 2081SOL    HW1 8017   8.402  10.259  13.223
 2081SOL    HW2 8018   8.499  10.241  13.108
 2082SOL     OW 8019  12.404  12.799   1.811
 2082SOL    HW1 8020  12.370  12.732   1.870
 2082SOL    HW2 8021  12.343  12.872   1.821
 2083SOL     OW 8022  13.586   2.802   2.571
 2083SOL    HW1 8023  13.668   2.849   2.562
 2083SOL    HW2 8024  13.609   2.720   2.614
 2084SOL     OW 8025   4.053  10.457   1.109
 2084SOL    HW1 8026   4.014  10.503   1.035
 2084SOL    HW2 8027   3.985  10.458   1.176
 2085SOL     OW 8028   6.557  12.476   6.030
 2085SOL    HW1 8029   6.508  12.450   5.952
 2085SOL    HW2 8030   6.643  12.435   6.020
 2086SOL     OW 8031   3.825  12.399   6.604
 2086SOL    HW1 8032   3.885  12.336   6.564
 2086SOL    HW2 8033   3.854  12.484   6.572
 2087SOL     OW 8034  12.857   4.638   2.458
 2087SOL    HW1 8035  12.952   4.630   2.451
 2087SOL    HW2 8036  12.840   4.653   2.551
 2088SOL     OW 8037  10.803   7.063   8.908
 2088SOL    HW1 8038  10.771   7.106   8.829
 2088SOL    HW2 8039  10.889   7.102   8.923
 2089SOL     OW 8040   8.749  11.282  12.800
 2089SOL    HW1 8041   8.784  11.219  12.738
 2089SOL    HW2 8042   8.751  11.236  12.884
 2090SOL     OW 8043   3.991   4.304  13.752
 2090SOL    HW1 8044   4.041   4.255  13.818
 2090SOL    HW2 8045   4.026   4.274  13.668
 2091SOL     OW 8046  12.734   9.154  14.028
 2091SOL    HW1 8047  12.779   9.113  14.102
 2091SOL    HW2 8048  12.756   9.099  13.953
 2092SOL     OW 8049   8.345   5.583   4.859
 2092SOL    HW1 8050   8.407   5.644   4.900
 2092SOL    HW2 8051   8.400   5.530   4.800
 2093SOL     OW 8052  10.549   8.523   6.158
 2093SOL    HW1 8053  10.560   8.454   6.224
 2093SOL    HW2 8054  10.620   8.585   6.176
 2094SOL     OW 8055   6.626   1.266   7.870
 2094SOL    HW1 8056   6.633   1.265   7.775
 2094SOL    HW2 8057   6.624   1.174   7.896
 2095SOL     OW 8058  13.301   1.054   9.279
 2095SOL    HW1 8059  13.303   0.960   9.300
 2095SOL    HW2 8060  13.221   1.086   9.319
 2096SOL     OW 8061   2.944   9.561   7.373
 2096SOL    HW1 8062   3.007   9.516   7.317
 2096SOL    HW2 8063   2.997   9.602   7.441
 2097SOL     OW 8064   1.455   5.312   0.544
 2097SOL    HW1 8065   1.547   5.296   0.568
 2097SOL    HW2 8066   1.430   5.236   0.492
 2098SOL     OW 8067   9.958   8.522   3.859
 2098SOL    HW1 8068   9.890   8.456   3.867
 2098SOL    HW2 8069   9.997   8.507   3.773
 2099SOL     OW 8070   5.690   4.265   0.060
 2099SOL    HW1 8071   5.598   4.263   0.032
 2099SOL    HW2 8072   5.720   4.353   0.037
 2100SOL     OW 8073   8.527  11.091   4.810
 2100SOL    HW1 8074   8.562  11.094   4.899
 2100SOL    HW2 8075   8.528  11.182   4.780
 2101SOL     OW 8076  12.063   5.950   7.225
 2101SOL    HW1 8077  11.973   5.976   7.207
 2101SOL    HW2 8078  12.062   5.919   7.316
 2102SOL     OW 8079   9.993   5.817   4.342
 2102SOL    HW1 8080   9.936   5.790   4.414
 2102SOL    HW2 8081  10.051   5.743   4.328
 2103SOL     OW 8082   1.526   6.493   2.539
 2103SOL    HW1 8083   1.514   6.458   2.450
 2103SOL    HW2 8084   1.443   6.474   2.583
 2104SOL     OW 8085   1.120  13.526  11.304
 2104SOL    HW1 8086   1.038  13.571  11.285
 2104SOL    HW2 8087   1.094  13.439  11.336
 2105SOL     OW 8088   9.612   9.289   3.940
 2105SOL    HW1 8089   9.582   9.200   3.959
 2105SOL    HW2 8090   9.550   9.321   3.874
 2106SOL     OW 8091   4.714  12.379   5.740
 2106SOL    HW1 8092   4.792  12.405   5.790
 2106SOL    HW2 8093   4.729  12.287   5.720
 2107SOL     OW 8094  12.548  12.598  13.299
 2107SOL    HW1 8095  12.525  12.523  13.354
 2107SOL    HW2 8096  12.542  12.564  13.209
 2108SOL     OW 8097   6.482   8.782   9.319
 2108SOL    HW1 8098   6.479   8.836   9.240
 2108SOL    HW2 8099   6.540   8.709   9.296
 2109SOL     OW 8100  13.520   8.507  14.106
 2109SOL    HW1 8101  13.549   8.561  14.180
 2109SOL    HW2 8102  13.429   8.487  14.125
 2110SOL     OW 8103   3.291   0.084   3.866
 2110SOL    HW1 8104   3.328   0.038   3.941
 2110SOL    HW2 8105   3.315   0.175   3.878
 2111SOL     OW 8106  13.425   5.341   6.744
 2111SOL    HW1 8107  13.390   5.290   6.817
 2111SOL    HW2 8108  13.350   5.391   6.711
 2112SOL     OW 8109   1.954   2.899   9.895
 2112SOL    HW1 8110   1.961   2.803   9.895
 2112SOL    HW2 8111   2.044   2.930   9.888
 2113SOL     OW 8112   1.767   7.470  12.689
 2113SOL    HW1 8113   1.759   7.396  12.628
 2113SOL    HW2 8114   1.846   7.515  12.662
 2114SOL     OW 8115  10.013   3.859   7.763
 2114SOL    HW1 8116   9.945   3.792   7.750
 2114SOL    HW2 8117  10.030   3.892   7.674
 2115SOL     OW 8118   3.197  13.935   6.459
 2115SOL    HW1 8119   3.217  13.913   6.549
 2115SOL    HW2 8120   3.282  13.951   6.418
 2116SOL     OW 8121  11.266   5.006   0.336
 2116SOL    HW1 8122  11.186   4.961   0.361
 2116SOL    HW2 8123  11.328   4.935   0.317
 2117SOL     OW 8124  13.629   7.560   5.401
 2117SOL    HW1 8125  13.626   7.542   5.495
 2117SOL    HW2 8126  13.585   7.485   5.361
 2118SOL     OW 8127  12.426   8.929   0.508
 2118SOL    HW1 8128  12.414   9.024   0.514
 2118SOL    HW2 8129  12.379   8.894   0.584
 2119SOL     OW 8130   8.718   8.952  14.090
 2119SOL    HW1 8131   8.774   8.926  14.164
 2119SOL    HW2 8132   8.649   8.886  14.088
 2120SOL     OW 8133   0.685   4.566   0.189
 2120SOL    HW1 8134   0.726   4.483   0.214
 2120SOL    HW2 8135   0.711   4.578   0.098
 2121SOL     OW 8136   9.492   6.235  13.124
 2121SOL    HW1 8137   9.426   6.195  13.068
 2121SOL    HW2 8138   9.537   6.161  13.165
 2122SOL     OW 8139  13.087  13.932   7.496
 2122SOL    HW1 8140  13.156  13.871   7.525
 2122SOL    HW2 8141  13.019  13.924   7.563
 2123SOL     OW 8142  14.596   9.023   2.632
 2123SOL    HW1 8143  14.511   9.051   2.665
 2123SOL    HW2 8144  14.581   8.933   2.601
 2124SOL     OW 8145   3.171   7.178   0.098
 2124SOL    HW1 8146   3.240   7.242   0.079
 2124SOL    HW2 8147   3.157   7.187   0.193
 2125SOL     OW 8148   7.324   0.512   0.630
 2125SOL    HW1 8149   7.363   0.443   0.683
 2125SOL    HW2 8150   7.230   0.496   0.635
 2126SOL     OW 8151   0.413   2.946  12.204
 2126SOL    HW1 8152   0.431   2.971  12.295
 2126SOL    HW2 8153   0.323   2.975  12.190
 2127SOL     OW 8154  10.810   9.176  12.215
 2127SOL    HW1 8155  10.843   9.106  12.272
 2127SOL    HW2 8156  10.717   9.156  12.205
 2128SOL     OW 8157   2.496   2.660   1.733
 2128SOL    HW1 8158   2.514   2.686   1.643
 2128SOL    HW2 8159   2.573   2.689   1.782
 2129SOL     OW 8160  11.480   4.572  13.777
 2129SOL    HW1 8161  11.524   4.488  13.766
 2129SOL    HW2 8162  11.455   4.574  13.869
 2130SOL     OW 8163   7.049   2.568   2.721
 2130SOL    HW1 8164   7.074   2.660   2.726
 2130SOL    HW2 8165   7.036   2.551   2.628
 2131SOL     OW 8166   4.833  13.628   6.603
 2131SOL    HW1 8167   4.928  13.617   6.589
 2131SOL    HW2 8168   4.795  13.547   6.570
 2132SOL     OW 8169   3.811  11.424  13.337
 2132SOL    HW1 8170   3.825  11.462  13.250
 2132SOL    HW2 8171   3.823  11.330  13.323
 2133SOL     OW 8172   0.185   7.248  13.484
 2133SOL    HW1 8173   0.238   7.308  13.536
 2133SOL    HW2 8174   0.192   7.282  13.394
 2134SOL     OW 8175  12.288   3.594  11.490
 2134SOL    HW1 8176  12.205   3.642  11.494
 2134SOL    HW2 8177  12.354   3.662  11.480
 2135SOL     OW 8178   9.415  14.236  10.996
 2135SOL    HW1 8179   9.447  14.146  11.009
 2135SOL    HW2 8180   9.461  14.266  10.917
 2136SOL     OW 8181   7.561   6.737  11.822
 2136SOL    HW1 8182   7.571   6.642  11.824
 2136SOL    HW2 8183   7.650   6.771  11.830
 2137SOL     OW 8184  10.218   5.451  12.955
 2137SOL    HW1 8185  10.151   5.412  13.011
 2137SOL    HW2 8186  10.239   5.383  12.891
 2138SOL     OW 8187   6.438   7.634   9.049
 2138SOL    HW1 8188   6.519   7.583   9.049
 2138SOL    HW2 8189   6.410   7.635   8.957
 2139SOL     OW 8190  12.961   4.502  10.304
 2139SOL    HW1 8191  12.995   4.591  10.305
 2139SOL    HW2 8192  13.005   4.460  10.230
 2140SOL     OW 8193   5.185   1.063  10.075
 2140SOL    HW1 8194   5.279   1.056  10.088
 2140SOL    HW2 8195   5.152   1.103  10.155
 2141SOL     OW 8196   5.560   5.506  13.924
 2141SOL    HW1 8197   5.551   5.499  14.019
 2141SOL    HW2 8198   5.479   5.549  13.895
 2142SOL     OW 8199  12.541  14.807   1.914
 2142SOL    HW1 8200  12.520  14.765   1.997
 2142SOL    HW2 8201  12.634  14.828   1.920
 2143SOL     OW 8202   9.609   6.328   2.315
 2143SOL    HW1 8203   9.700   6.346   2.293
 2143SOL    HW2 8204   9.612   6.298   2.405
 2144SOL     OW 8205   1.005   2.236   0.287
 2144SOL    HW1 8206   0.965   2.149   0.290
 2144SOL    HW2 8207   0.942   2.293   0.331
 2145SOL     OW 8208   2.356  13.939   5.438
 2145SOL    HW1 8209   2.264  13.915   5.453
 2145SOL    HW2 8210   2.401  13.916   5.519
 2146SOL     OW 8211   4.233   2.215   2.266
 2146SOL    HW1 8212   4.195   2.200   2.179
 2146SOL    HW2 8213   4.286   2.136   2.282
 2147SOL     OW 8214  12.858   3.308  11.421
 2147SOL    HW1 8215  12.877   3.296  11.328
 2147SOL    HW2 8216  12.896   3.393  11.442
 2148SOL     OW 8217   9.281   7.551   2.548
 2148SOL    HW1 8218   9.215   7.483   2.563
 2148SOL    HW2 8219   9.325   7.525   2.468
 2149SOL     OW 8220   5.232   5.866   1.583
 2149SOL    HW1 8221   5.220   5.800   1.651
 2149SOL    HW2 8222   5.296   5.927   1.619
 2150SOL     OW 8223   3.182   2.926  13.505
 2150SOL    HW1 8224   3.247   2.868  13.467
 2150SOL    HW2 8225   3.109   2.926  13.443
 2151SOL     OW 8226   1.393  13.371   7.042
 2151SOL    HW1 8227   1.488  13.373   7.035
 2151SOL    HW2 8228   1.365  13.311   6.973
 2152SOL     OW 8229  11.937   6.985   3.744
 2152SOL    HW1 8230  11.937   7.053   3.676
 2152SOL    HW2 8231  12.029   6.974   3.767
 2153SOL     OW 8232  14.873  10.814   8.817
 2153SOL    HW1 8233   0.062  10.795   8.883
 2153SOL    HW2 8234  14.792  10.782   8.855
 2154SOL     OW 8235   9.002  10.807   1.776
 2154SOL    HW1 8236   9.067  10.863   1.817
 2154SOL    HW2 8237   9.000  10.835   1.685
 2155SOL     OW 8238   7.732  10.540  10.667
 2155SOL    HW1 8239   7.721  10.614  10.607
 2155SOL    HW2 8240   7.775  10.578  10.744
 2156SOL     OW 8241   9.359  10.358  14.799
 2156SOL    HW1 8242   9.352  10.298  14.724
 2156SOL    HW2 8243   9.297  10.324  14.863
 2157SOL     OW 8244   3.358  14.666   7.996
 2157SOL    HW1 8245   3.373  14.750   7.953
 2157SOL    HW2 8246   3.266  14.670   8.024
 2158SOL     OW 8247  13.522   5.582  12.993
 2158SOL    HW1 8248  13.608   5.541  13.003
 2158SOL    HW2 8249  13.504   5.621  13.079
 2159SOL     OW 8250   9.540   9.219   3.672
 2159SOL    HW1 8251   9.543   9.198   3.578
 2159SOL    HW2 8252   9.585   9.146   3.714
 2160SOL     OW 8253   9.606   8.181   6.312
 2160SOL    HW1 8254   9.573   8.139   6.233
 2160SOL    HW2 8255   9.541   8.162   6.379
 2161SOL     OW 8256   7.717   9.668   2.297
 2161SOL    HW1 8257   7.756   9.603   2.355
 2161SOL    HW2 8258   7.779   9.677   2.225
 2162SOL     OW 8259   7.351  14.492   3.854
 2162SOL    HW1 8260   7.352  14.429   3.926
 2162SOL    HW2 8261   7.386  14.572   3.892
 2163SOL     OW 8262   1.737  14.808   6.000
 2163SOL    HW1 8263   1.814  14.865   5.993
 2163SOL    HW2 8264   1.663  14.865   5.980
 2164SOL     OW 8265   9.364   7.499   7.356
 2164SOL    HW1 8266   9.274   7.469   7.363
 2164SOL    HW2 8267   9.358   7.584   7.312
 2165SOL     OW 8268   6.365   4.723  11.515
 2165SOL    HW1 8269   6.369   4.721  11.610
 2165SOL    HW2 8270   6.296   4.785  11.495
 2166SOL     OW 8271   9.124  13.591  10.597
 2166SOL    HW1 8272   9.064  13.623  10.664
 2166SOL    HW2 8273   9.168  13.517  10.637
 2167SOL     OW 8274   8.382  11.476   0.202
 2167SOL    HW1 8275   8.398  11.533   0.127
 2167SOL    HW2 8276   8.467  11.433   0.218
 2168SOL     OW 8277   6.090   1.553  13.131
 2168SOL    HW1 8278   6.018   1.615  13.129
 2168SOL    HW2 8279   6.071   1.496  13.206
 2169SOL     OW 8280  11.081   1.651  10.362
 2169SOL    HW1 8281  11.073   1.745  10.377
 2169SOL    HW2 8282  10.995   1.624  10.330
 2170SOL     OW 8283   5.156   5.523   5.672
 2170SOL    HW1 8284   5.089   5.492   5.733
 2170SOL    HW2 8285   5.211   5.446   5.656
 2171SOL     OW 8286   5.574   9.300   1.275
 2171SOL    HW1 8287   5.567   9.205   1.278
 2171SOL    HW2 8288   5.603   9.320   1.186
 2172SOL     OW 8289   5.555   4.806   5.168
 2172SOL    HW1 8290   5.490   4.826   5.100
 2172SOL    HW2 8291   5.579   4.715   5.152
 2173SOL     OW 8292   5.698   3.729   0.541
 2173SOL    HW1 8293   5.774   3.680   0.510
 2173SOL    HW2 8294   5.682   3.695   0.629
 2174SOL     OW 8295   0.638   6.354  13.532
 2174SOL    HW1 8296   0.712   6.307  13.495
 2174SOL    HW2 8297   0.575   6.285  13.555
 2175SOL     OW 8298   2.023   3.766  10.603
 2175SOL    HW1 8299   2.114   3.791  10.615
 2175SOL    HW2 8300   2.017   3.737  10.512
 2176SOL     OW 8301  12.599   0.200   5.904
 2176SOL    HW1 8302  12.555   0.276   5.865
 2176SOL    HW2 8303  12.622   0.145   5.830
 2177SOL     OW 8304   4.163   0.484   2.163
 2177SOL    HW1 8305   4.208   0.522   2.238
 2177SOL    HW2 8306   4.078   0.457   2.198
 2178SOL     OW 8307   1.917   6.643  12.232
 2178SOL    HW1 8308   1.834   6.658  12.185
 2178SOL    HW2 8309   1.976   6.709  12.196
 2179SOL     OW 8310   4.058   8.921   8.188
 2179SOL    HW1 8311   4.096   9.003   8.154
 2179SOL    HW2 8312   4.003   8.890   8.117
 2180SOL     OW 8313  10.720   5.761   4.482
 2180SOL    HW1 8314  10.798   5.797   4.526
 2180SOL    HW2 8315  10.647   5.786   4.539
 2181SOL     OW 8316  12.093  13.107  12.861
 2181SOL    HW1 8317  12.078  13.140  12.773
 2181SOL    HW2 8318  12.005  13.097  12.898
 2182SOL     OW 8319  13.971   2.800   9.682
 2182SOL    HW1 8320  14.047   2.747   9.708
 2182SOL    HW2 8321  14.007   2.887   9.667
 2183SOL     OW 8322   4.942   2.931   0.286
 2183SOL    HW1 8323   4.901   3.006   0.329
 2183SOL    HW2 8324   4.987   2.885   0.357
 2184SOL     OW 8325   5.727   8.174  10.790
 2184SOL    HW1 8326   5.802   8.206  10.839
 2184SOL    HW2 8327   5.685   8.110  10.848
 2185SOL     OW 8328   6.410  11.115  11.775
 2185SOL    HW1 8329   6.354  11.058  11.828
 2185SOL    HW2 8330   6.382  11.099  11.685
 2186SOL     OW 8331  10.310   2.194   0.013
 2186SOL    HW1 8332  10.373   2.125   0.037
 2186SOL    HW2 8333  10.354   2.276   0.036
 2187SOL     OW 8334  14.792   9.736   5.753
 2187SOL    HW1 8335  14.859   9.697   5.809
 2187SOL    HW2 8336  14.735   9.663   5.731
 2188SOL     OW 8337   3.523   4.747   6.227
 2188SOL    HW1 8338   3.490   4.710   6.309
 2188SOL    HW2 8339   3.560   4.831   6.252
 2189SOL     OW 8340  13.268  12.432  14.372
 2189SOL    HW1 8341  13.290  12.423  14.279
 2189SOL    HW2 8342  13.178  12.463  14.373
 2190SOL     OW 8343  11.553  11.326   9.395
 2190SOL    HW1 8344  11.644  11.314   9.369
 2190SOL    HW2 8345  11.547  11.419   9.418
 2191SOL     OW 8346   5.997  11.184  11.074
 2191SOL    HW1 8347   6.050  11.160  10.998
 2191SOL    HW2 8348   6.018  11.276  11.090
 2192SOL     OW 8349  12.971   2.418  11.541
 2192SOL    HW1 8350  12.894   2.380  11.583
 2192SOL    HW2 8351  12.957   2.513  11.548
 2193SOL     OW 8352  12.202   1.883   0.774
 2193SOL    HW1 8353  12.245   1.805   0.741
 2193SOL    HW2 8354  12.232   1.891   0.865
 2194SOL     OW 8355  10.399   1.532   3.730
 2194SOL    HW1 8356  10.469   1.512   3.668
 2194SOL    HW2 8357  10.436   1.508   3.815
 2195SOL     OW 8358   4.841  10.883   1.964
 2195SOL    HW1 8359   4.821  10.886   2.058
 2195SOL    HW2 8360   4.909  10.949   1.952
 2196SOL     OW 8361   8.833   2.719  14.547
 2196SOL    HW1 8362   8.738   2.715  14.561
 2196SOL    HW2 8363   8.869   2.664  14.616
 2197SOL     OW 8364  12.172   5.480   5.679
 2197SOL    HW1 8365  12.216   5.421   5.740
 2197SOL    HW2 8366  12.224   5.560   5.680
 2198SOL     OW 8367  14.353   2.406   6.951
 2198SOL    HW1 8368  14.306   2.331   6.988
 2198SOL    HW2 8369  14.445   2.389   6.971
 2199SOL     OW 8370  11.505   7.410   5.286
 2199SOL    HW1 8371  11.426   7.463   5.280
 2199SOL    HW2 8372  11.576   7.473   5.299
 2200SOL     OW 8373  12.094  11.488  14.223
 2200SOL    HW1 8374  12.142  11.494  14.140
 2200SOL    HW2 8375  12.139  11.418  14.271
 2201SOL     OW 8376  10.373   7.385   9.404
 2201SOL    HW1 8377  10.304   7.451   9.408
 2201SOL    HW2 8378  10.327   7.301   9.407
 2202SOL     OW 8379   9.176   4.417   6.858
 2202SOL    HW1 8380   9.087   4.417   6.893
 2202SOL    HW2 8381   9.197   4.510   6.847
 2203SOL     OW 8382   0.109  13.990   9.367
 2203SOL    HW1 8383   0.056  14.048   9.312
 2203SOL    HW2 8384   0.090  14.019   9.457
 2204SOL     OW 8385   5.263   7.386   8.866
 2204SOL    HW1 8386   5.325   7.459   8.859
 2204SOL    HW2 8387   5.231   7.373   8.777
 2205SOL     OW 8388   8.326   4.448   0.863
 2205SOL    HW1 8389   8.284   4.517   0.915
 2205SOL    HW2 8390   8.394   4.412   0.920
 2206SOL     OW 8391  10.945   3.158   8.750
 2206SOL    HW1 8392  10.887   3.092   8.712
 2206SOL    HW2 8393  11.008   3.177   8.680
 2207SOL     OW 8394  11.715   5.346   7.284
 2207SOL    HW1 8395  11.809   5.330   7.274
 2207SOL    HW2 8396  11.686   5.279   7.346
 2208SOL     OW 8397   9.683   8.977   5.584
 2208SOL    HW1 8398   9.755   8.970   5.523
 2208SOL    HW2 8399   9.701   9.057   5.633
 2209SOL     OW 8400   7.454  13.413  12.259
 2209SOL    HW1 8401   7.403  13.484  12.298
 2209SOL    HW2 8402   7.389  13.353  12.223
 2210SOL     OW 8403   8.755   1.043   5.704
 2210SOL    HW1 8404   8.766   1.083   5.617
 2210SOL    HW2 8405   8.663   1.060   5.725
 2211SOL     OW 8406   3.962   7.684   9.970
 2211SOL    HW1 8407   4.052   7.675   9.937
 2211SOL    HW2 8408   3.972   7.714  10.060
 2212SOL     OW 8409   1.256   5.925   8.788
 2212SOL    HW1 8410   1.332   5.891   8.835
 2212SOL    HW2 8411   1.287   5.935   8.697
 2213SOL     OW 8412  12.742   5.467   1.005
 2213SOL    HW1 8413  12.670   5.504   0.954
 2213SOL    HW2 8414  12.765   5.536   1.067
 2214SOL     OW 8415   7.934   0.276  11.078
 2214SOL    HW1 8416   8.015   0.228  11.058
 2214SOL    HW2 8417   7.956   0.367  11.062
 2215SOL     OW 8418   2.609   8.347   8.975
 2215SOL    HW1 8419   2.567   8.336   8.890
 2215SOL    HW2 8420   2.575   8.430   9.009
 2216SOL     OW 8421  10.197  10.532  12.515
 2216SOL    HW1 8422  10.271  10.481  12.484
 2216SOL    HW2 8423  10.235  10.615  12.544
 2217SOL     OW 8424   2.773  13.659  13.900
 2217SOL    HW1 8425   2.850  13.627  13.852
 2217SOL    HW2 8426   2.717  13.582  13.908
 2218SOL     OW 8427   3.274   3.592   6.653
 2218SOL    HW1 8428   3.311   3.506   6.636
 2218SOL    HW2 8429   3.344   3.639   6.700
 2219SOL     OW 8430  12.300  10.897   9.347
 2219SOL    HW1 8431  12.391  10.889   9.376
 2219SOL    HW2 8432  12.299  10.855   9.261
 2220SOL     OW 8433   4.465   1.280   9.818
 2220SOL    HW1 8434   4.421   1.198   9.796
 2220SOL    HW2 8435   4.397   1.336   9.854
 2221SOL     OW 8436  10.843   3.021   3.247
 2221SOL    HW1 8437  10.749   3.002   3.238
 2221SOL    HW2 8438  10.872   2.967   3.321
 2222SOL     OW 8439   3.746   1.740   9.100
 2222SOL    HW1 8440   3.690   1.756   9.024
 2222SOL    HW2 8441   3.804   1.817   9.103
 2223SOL     OW 8442  13.007   7.193   8.658
 2223SOL    HW1 8443  13.102   7.183   8.646
 2223SOL    HW2 8444  12.973   7.201   8.570
 2224SOL     OW 8445  13.043   1.722   8.033
 2224SOL    HW1 8446  13.138   1.714   8.034
 2224SOL    HW2 8447  13.027   1.814   8.014
 2225SOL     OW 8448   4.074   1.346  13.214
 2225SOL    HW1 8449   4.007   1.359  13.147
 2225SOL    HW2 8450   4.093   1.434  13.246
 2226SOL     OW 8451   6.288   1.516   9.974
 2226SOL    HW1 8452   6.359   1.534   9.912
 2226SOL    HW2 8453   6.208   1.541   9.928
 2227SOL     OW 8454  10.171   7.812   9.128
 2227SOL    HW1 8455  10.102   7.780   9.071
 2227SOL    HW2 8456  10.145   7.901   9.150
 2228SOL     OW 8457   2.068   5.570  12.552
 2228SOL    HW1 8458   2.155   5.549  12.585
 2228SOL    HW2 8459   2.027   5.485  12.535
 2229SOL     OW 8460  13.725   0.434   8.987
 2229SOL    HW1 8461  13.643   0.436   8.938
 2229SOL    HW2 8462  13.724   0.350   9.032
 2230SOL     OW 8463  14.538   2.727   6.060
 2230SOL    HW1 8464  14.601   2.660   6.087
 2230SOL    HW2 8465  14.584   2.777   5.993
 2231SOL     OW 8466   5.336  10.768  13.492
 2231SOL    HW1 8467   5.295  10.837  13.440
 2231SOL    HW2 8468   5.335  10.691  13.435
 2232SOL     OW 8469   1.310   6.022  10.816
 2232SOL    HW1 8470   1.235   6.034  10.874
 2232SOL    HW2 8471   1.379   6.075  10.855
 2233SOL     OW 8472  12.095   1.897  12.472
 2233SOL    HW1 8473  12.078   1.811  12.510
 2233SOL    HW2 8474  12.085   1.885  12.378
 2234SOL     OW 8475   5.767   3.811   7.255
 2234SOL    HW1 8476   5.701   3.754   7.215
 2234SOL    HW2 8477   5.773   3.886   7.197
 2235SOL     OW 8478   5.497  11.776   0.736
 2235SOL    HW1 8479   5.568  11.718   0.709
 2235SOL    HW2 8480   5.452  11.799   0.655
 2236SOL     OW 8481   6.566   4.069   1.027
 2236SOL    HW1 8482   6.565   4.160   0.997
 2236SOL    HW2 8483   6.657   4.040   1.012
 2237SOL     OW 8484   9.924   9.457  12.877
 2237SOL    HW1 8485  10.001   9.513  12.881
 2237SOL    HW2 8486   9.937   9.392  12.946
 2238SOL     OW 8487  13.300  12.939   2.250
 2238SOL    HW1 8488  13.227  12.890   2.213
 2238SOL    HW2 8489  13.281  13.030   2.230
 2239SOL     OW 8490   0.067  11.422   2.185
 2239SOL    HW1 8491   0.129  11.350   2.193
 2239SOL    HW2 8492   0.044  11.423   2.092
 2240SOL     OW 8493   6.069  14.538   0.410
 2240SOL    HW1 8494   6.114  14.574   0.333
 2240SOL    HW2 8495   6.132  14.549   0.481
 2241SOL     OW 8496  11.028  13.386   4.634
 2241SOL    HW1 8497  11.045  13.442   4.559
 2241SOL    HW2 8498  10.986  13.308   4.597
 2242SOL     OW 8499   9.428  12.359   2.351
 2242SOL    HW1 8500   9.434  12.344   2.445
 2242SOL    HW2 8501   9.502  12.415   2.331
 2243SOL     OW 8502  11.179   2.759  11.097
 2243SOL    HW1 8503  11.227   2.686  11.057
 2243SOL    HW2 8504  11.239   2.833  11.094
 2244SOL     OW 8505   4.761  13.027  14.256
 2244SOL    HW1 8506   4.851  13.002  14.276
 2244SOL    HW2 8507   4.733  12.962  14.191
 2245SOL     OW 8508  12.160   1.849   8.137
 2245SOL    HW1 8509  12.138   1.823   8.048
 2245SOL    HW2 8510  12.231   1.912   8.126
 2246SOL     OW 8511   6.201   6.689   0.802
 2246SOL    HW1 8512   6.231   6.656   0.717
 2246SOL    HW2 8513   6.249   6.771   0.813
 2247SOL     OW 8514   8.618  13.572   5.521
 2247SOL    HW1 8515   8.585  13.647   5.569
 2247SOL    HW2 8516   8.608  13.498   5.582
 2248SOL     OW 8517   6.474  10.120   0.066
 2248SOL    HW1 8518   6.402  10.152   0.013
 2248SOL    HW2 8519   6.433  10.074   0.139
 2249SOL     OW 8520  10.904   2.545  13.240
 2249SOL    HW1 8521  10.816   2.542  13.203
 2249SOL    HW2 8522  10.918   2.458  13.278
 2250SOL     OW 8523  13.456   9.183   3.098
 2250SOL    HW1 8524  13.446   9.275   3.073
 2250SOL    HW2 8525  13.550   9.171   3.111
 2251SOL     OW 8526   5.169   9.313  12.979
 2251SOL    HW1 8527   5.221   9.383  13.019
 2251SOL    HW2 8528   5.118   9.357  12.911
 2252SOL     OW 8529   4.957   9.308  10.467
 2252SOL    HW1 8530   5.013   9.312  10.389
 2252SOL    HW2 8531   5.017   9.282  10.538
 2253SOL     OW 8532   0.328  14.727   4.997
 2253SOL    HW1 8533   0.312  14.726   5.091
 2253SOL    HW2 8534   0.342  14.819   4.975
 2254SOL     OW 8535  10.648   5.924   7.234
 2254SOL    HW1 8536  10.594   5.962   7.304
 2254SOL    HW2 8537  10.718   5.878   7.280
 2255SOL     OW 8538  12.594   3.943  13.007
 2255SOL    HW1 8539  12.650   3.894  12.947
 2255SOL    HW2 8540  12.646   4.018  13.033
 2256SOL     OW 8541  12.250   4.177   8.801
 2256SOL    HW1 8542  12.344   4.194   8.809
 2256SOL    HW2 8543  12.244   4.082   8.794
 2257SOL     OW 8544  13.898   5.510   5.322
 2257SOL    HW1 8545  13.960   5.536   5.389
 2257SOL    HW2 8546  13.823   5.475   5.370
 2258SOL     OW 8547   2.771   0.136   9.351
 2258SOL    HW1 8548   2.779   0.072   9.422
 2258SOL    HW2 8549   2.846   0.117   9.294
 2259SOL     OW 8550  13.190  13.906   3.169
 2259SOL    HW1 8551  13.177  13.834   3.231
 2259SOL    HW2 8552  13.162  13.984   3.216
 2260SOL     OW 8553   6.479  11.575   7.225
 2260SOL    HW1 8554   6.397  11.569   7.274
 2260SOL    HW2 8555   6.543  11.530   7.280
 2261SOL     OW 8556  13.678   3.426   9.182
 2261SOL    HW1 8557  13.716   3.498   9.131
 2261SOL    HW2 8558  13.694   3.450   9.273
 2262SOL     OW 8559   1.154   7.147   3.852
 2262SOL    HW1 8560   1.068   7.153   3.894
 2262SOL    HW2 8561   1.168   7.053   3.839
 2263SOL     OW 8562   8.805   9.576   3.105
 2263SOL    HW1 8563   8.786   9.572   3.011
 2263SOL    HW2 8564   8.733   9.530   3.147
 2264SOL     OW 8565   2.352   4.549   8.547
 2264SOL    HW1 8566   2.413   4.620   8.529
 2264SOL    HW2 8567   2.291   4.585   8.612
 2265SOL     OW 8568  12.861  13.695   6.997
 2265SOL    HW1 8569  12.854  13.786   7.027
 2265SOL    HW2 8570  12.884  13.645   7.075
 2266SOL     OW 8571  11.386   1.902   4.581
 2266SOL    HW1 8572  11.427   1.905   4.668
 2266SOL    HW2 8573  11.396   1.812   4.553
 2267SOL     OW 8574   1.892   6.212   4.333
 2267SOL    HW1 8575   1.854   6.284   4.283
 2267SOL    HW2 8576   1.925   6.253   4.413
 2268SOL     OW 8577   7.589   5.463   4.583
 2268SOL    HW1 8578   7.647   5.424   4.648
 2268SOL    HW2 8579   7.647   5.490   4.511
 2269SOL     OW 8580   5.972   2.020  14.488
 2269SOL    HW1 8581   5.980   1.931  14.453
 2269SOL    HW2 8582   5.898   2.058  14.441
 2270SOL     OW 8583  10.072   8.009   0.058
 2270SOL    HW1 8584  10.134   8.054   0.115
 2270SOL    HW2 8585  10.077   7.917   0.084
 2271SOL     OW 8586  14.580   0.198  10.287
 2271SOL    HW1 8587  14.519   0.208  10.214
 2271SOL    HW2 8588  14.524   0.201  10.365
 2272SOL     OW 8589   3.114   9.599  10.868
 2272SOL    HW1 8590   3.198   9.604  10.912
 2272SOL    HW2 8591   3.090   9.690  10.849
 2273SOL     OW 8592  10.471   5.942   0.319
 2273SOL    HW1 8593  10.383   5.906   0.332
 2273SOL    HW2 8594  10.456   6.035   0.302
 2274SOL     OW 8595   5.771   4.407   6.007
 2274SOL    HW1 8596   5.734   4.368   6.086
 2274SOL    HW2 8597   5.731   4.359   5.935
 2275SOL     OW 8598   2.424  11.567   0.225
 2275SOL    HW1 8599   2.382  11.654   0.222
 2275SOL    HW2 8600   2.509  11.581   0.185
 2276SOL     OW 8601   9.084  13.493   3.782
 2276SOL    HW1 8602   9.147  13.493   3.854
 2276SOL    HW2 8603   8.999  13.486   3.825
 2277SOL     OW 8604   4.958  14.291   3.578
 2277SOL    HW1 8605   4.903  14.243   3.640
 2277SOL    HW2 8606   4.921  14.271   3.492
 2278SOL     OW 8607  12.164  12.196   9.775
 2278SOL    HW1 8608  12.216  12.177   9.854
 2278SOL    HW2 8609  12.077  12.161   9.795
 2279SOL     OW 8610   3.395  12.772   5.164
 2279SOL    HW1 8611   3.370  12.722   5.086
 2279SOL    HW2 8612   3.491  12.766   5.165
 2280SOL     OW 8613   2.821   7.187   8.223
 2280SOL    HW1 8614   2.904   7.147   8.246
 2280SOL    HW2 8615   2.756   7.140   8.276
 2281SOL     OW 8616  11.603  12.390  13.798
 2281SOL    HW1 8617  11.527  12.349  13.757
 2281SOL    HW2 8618  11.671  12.323  13.797
 2282SOL     OW 8619   5.709  10.137   9.037
 2282SOL    HW1 8620   5.725  10.208   9.099
 2282SOL    HW2 8621   5.726  10.176   8.951
 2283SOL     OW 8622   5.485  14.298   4.858
 2283SOL    HW1 8623   5.511  14.213   4.822
 2283SOL    HW2 8624   5.501  14.360   4.787
 2284SOL     OW 8625   1.139  13.467   6.741
 2284SOL    HW1 8626   1.103  13.391   6.787
 2284SOL    HW2 8627   1.072  13.490   6.676
 2285SOL     OW 8628  12.438  11.782   8.741
 2285SOL    HW1 8629  12.511  11.812   8.795
 2285SOL    HW2 8630  12.479  11.730   8.671
 2286SOL     OW 8631   7.172  11.237  14.763
 2286SOL    HW1 8632   7.230  11.190  14.702
 2286SOL    HW2 8633   7.148  11.171  14.828
 2287SOL     OW 8634   3.204  12.786   0.394
 2287SOL    HW1 8635   3.155  12.818   0.318
 2287SOL    HW2 8636   3.204  12.859   0.456
 2288SOL     OW 8637   6.966   7.199  14.733
 2288SOL    HW1 8638   7.052   7.160  14.747
 2288SOL    HW2 8639   6.959   7.267  14.800
 2289SOL     OW 8640   9.316   0.239   5.124
 2289SOL    HW1 8641   9.369   0.289   5.062
 2289SOL    HW2 8642   9.236   0.217   5.076
 2290SOL     OW 8643   6.453   1.732   6.057
 2290SOL    HW1 8644   6.382   1.791   6.080
 2290SOL    HW2 8645   6.411   1.646   6.049
 2291SOL     OW 8646   6.912  13.760   3.121
 2291SOL    HW1 8647   6.947  13.833   3.071
 2291SOL    HW2 8648   6.918  13.789   3.212
 2292SOL     OW 8649   6.117   8.894  14.349
 2292SOL    HW1 8650   6.071   8.858  14.273
 2292SOL    HW2 8651   6.121   8.988  14.332
 2293SOL     OW 8652  13.815   1.172   6.046
 2293SOL    HW1 8653  13.803   1.210   6.132
 2293SOL    HW2 8654  13.734   1.123   6.029
 2294SOL     OW 8655  12.010   4.015  14.856
 2294SOL    HW1 8656  12.018   4.105   0.011
 2294SOL    HW2 8657  12.005   3.961   0.057
 2295SOL     OW 8658   2.386   6.835   3.590
 2295SOL    HW1 8659   2.441   6.858   3.515
 2295SOL    HW2 8660   2.298   6.823   3.552
 2296SOL     OW 8661   7.677  13.220  10.868
 2296SOL    HW1 8662   7.678  13.315  10.876
 2296SOL    HW2 8663   7.720  13.188  10.947
 2297SOL     OW 8664  12.011   0.241   7.388
 2297SOL    HW1 8665  11.953   0.317   7.380
 2297SOL    HW2 8666  11.975   0.177   7.327
 2298SOL     OW 8667   4.265   5.773   7.463
 2298SOL    HW1 8668   4.196   5.837   7.449
 2298SOL    HW2 8669   4.298   5.791   7.551
 2299SOL     OW 8670   9.193   6.758  11.396
 2299SOL    HW1 8671   9.282   6.756  11.360
 2299SOL    HW2 8672   9.203   6.800  11.482
 2300SOL     OW 8673  13.262   9.414   6.223
 2300SOL    HW1 8674  13.286   9.505   6.240
 2300SOL    HW2 8675  13.213   9.387   6.300
 2301SOL     OW 8676   2.999   1.157  10.769
 2301SOL    HW1 8677   3.068   1.094  10.789
 2301SOL    HW2 8678   2.993   1.156  10.674
 2302SOL     OW 8679  13.734   2.675   5.221
 2302SOL    HW1 8680  13.684   2.635   5.150
 2302SOL    HW2 8681  13.825   2.668   5.193
 2303SOL     OW 8682   9.668  11.200  11.042
 2303SOL    HW1 8683   9.762  11.181  11.035
 2303SOL    HW2 8684   9.659  11.240  11.129
 2304SOL     OW 8685  12.373   9.653  10.732
 2304SOL    HW1 8686  12.400   9.584  10.793
 2304SOL    HW2 8687  12.286   9.680  10.763
 2305SOL     OW 8688   4.202   8.863   2.197
 2305SOL    HW1 8689   4.123   8.916   2.203
 2305SOL    HW2 8690   4.274   8.926   2.197
 2306SOL     OW 8691   9.729   2.590  11.173
 2306SOL    HW1 8692   9.633   2.584  11.169
 2306SOL    HW2 8693   9.758   2.553  11.089
 2307SOL     OW 8694  12.548  12.139   5.032
 2307SOL    HW1 8695  12.608  12.109   5.100
 2307SOL    HW2 8696  12.535  12.232   5.050
 2308SOL     OW 8697  12.805   1.845   1.309
 2308SOL    HW1 8698  12.900   1.852   1.321
 2308SOL    HW2 8699  12.769   1.839   1.398
 2309SOL     OW 8700  11.465   4.435   2.571
 2309SOL    HW1 8701  11.509   4.390   2.499
 2309SOL    HW2 8702  11.513   4.518   2.580
 2310SOL     OW 8703   0.053   0.183   7.627
 2310SOL    HW1 8704   0.051   0.167   7.533
 2310SOL    HW2 8705  14.862   0.127   7.664
 2311SOL     OW 8706   7.287  14.588  11.107
 2311SOL    HW1 8707   7.357  14.627  11.055
 2311SOL    HW2 8708   7.207  14.608  11.058
 2312SOL     OW 8709   1.228   0.089  11.521
 2312SOL    HW1 8710   1.319   0.062  11.508
 2312SOL    HW2 8711   1.231   0.185  11.519
 2313SOL     OW 8712   4.866  13.215   4.587
 2313SOL    HW1 8713   4.903  13.253   4.508
 2313SOL    HW2 8714   4.772  13.228   4.578
 2314SOL     OW 8715   6.156   0.758   5.078
 2314SOL    HW1 8716   6.154   0.663   5.089
 2314SOL    HW2 8717   6.064   0.784   5.088
 2315SOL     OW 8718   6.301   2.550   9.127
 2315SOL    HW1 8719   6.386   2.562   9.085
 2315SOL    HW2 8720   6.279   2.636   9.163
 2316SOL     OW 8721   6.678   8.225  10.831
 2316SOL    HW1 8722   6.629   8.297  10.869
 2316SOL    HW2 8723   6.672   8.238  10.737
 2317SOL     OW 8724  10.452  14.503  14.066
 2317SOL    HW1 8725  10.405  14.524  13.985
 2317SOL    HW2 8726  10.536  14.547  14.057
 2318SOL     OW 8727   7.710  11.905   9.035
 2318SOL    HW1 8728   7.763  11.976   9.001
 2318SOL    HW2 8729   7.648  11.947   9.095
 2319SOL     OW 8730   5.795  13.725   1.608
 2319SOL    HW1 8731   5.779  13.641   1.564
 2319SOL    HW2 8732   5.880  13.714   1.651
 2320SOL     OW 8733   4.161   1.131   1.572
 2320SOL    HW1 8734   4.106   1.122   1.650
 2320SOL    HW2 8735   4.235   1.072   1.588
 2321SOL     OW 8736  12.478   2.427   6.594
 2321SOL    HW1 8737  12.432   2.344   6.588
 2321SOL    HW2 8738  12.428   2.477   6.659
 2322SOL     OW 8739  12.112  10.272  10.952
 2322SOL    HW1 8740  12.083  10.362  10.965
 2322SOL    HW2 8741  12.110  10.259  10.857
 2323SOL     OW 8742   8.973  12.790   1.489
 2323SOL    HW1 8743   8.895  12.801   1.542
 2323SOL    HW2 8744   9.032  12.737   1.542
 2324SOL     OW 8745   2.198  11.685  11.963
 2324SOL    HW1 8746   2.247  11.665  11.884
 2324SOL    HW2 8747   2.217  11.612  12.022
 2325SOL     OW 8748  11.380   8.847  13.236
 2325SOL    HW1 8749  11.365   8.810  13.323
 2325SOL    HW2 8750  11.446   8.915  13.250
 2326SOL     OW 8751   4.395   4.645   1.237
 2326SOL    HW1 8752   4.360   4.695   1.163
 2326SOL    HW2 8753   4.471   4.694   1.266
 2327SOL     OW 8754  13.447  14.788  12.489
 2327SOL    HW1 8755  13.463  14.809  12.581
 2327SOL    HW2 8756  13.492  14.704  12.475
 2328SOL     OW 8757   9.207  11.127  10.161
 2328SOL    HW1 8758   9.141  11.138  10.093
 2328SOL    HW2 8759   9.240  11.215  10.177
 2329SOL     OW 8760   3.784   0.938   1.747
 2329SOL    HW1 8761   3.694   0.904   1.752
 2329SOL    HW2 8762   3.779   1.004   1.677
 2330SOL     OW 8763   4.379   4.293  14.012
 2330SOL    HW1 8764   4.318   4.220  14.006
 2330SOL    HW2 8765   4.423   4.295  13.927
 2331SOL     OW 8766   0.708   9.937   1.927
 2331SOL    HW1 8767   0.800   9.932   1.951
 2331SOL    HW2 8768   0.698   9.874   1.856
 2332SOL     OW 8769   4.846  10.838  12.436
 2332SOL    HW1 8770   4.817  10.841  12.344
 2332SOL    HW2 8771   4.937  10.809  12.432
 2333SOL     OW 8772  12.081   2.510   0.844
 2333SOL    HW1 8773  12.131   2.460   0.779
 2333SOL    HW2 8774  12.009   2.452   0.868
 2334SOL     OW 8775   1.345   0.196   7.546
 2334SOL    HW1 8776   1.264   0.167   7.504
 2334SOL    HW2 8777   1.343   0.155   7.633
 2335SOL     OW 8778   1.644   9.659   9.650
 2335SOL    HW1 8779   1.587   9.723   9.693
 2335SOL    HW2 8780   1.659   9.592   9.716
 2336SOL     OW 8781   1.954   5.305  13.743
 2336SOL    HW1 8782   1.976   5.316  13.835
 2336SOL    HW2 8783   1.859   5.311  13.740
 2337SOL     OW 8784   7.660  12.729   4.809
 2337SOL    HW1 8785   7.713  12.655   4.840
 2337SOL    HW2 8786   7.570  12.703   4.828
 2338SOL     OW 8787   2.900   3.002   7.018
 2338SOL    HW1 8788   2.878   3.094   7.003
 2338SOL    HW2 8789   2.879   2.958   6.935
 2339SOL     OW 8790  14.768  12.433   3.208
 2339SOL    HW1 8791  14.823  12.495   3.255
 2339SOL    HW2 8792  14.810  12.348   3.220
 2340SOL     OW 8793   5.608  11.572  11.961
 2340SOL    HW1 8794   5.641  11.483  11.972
 2340SOL    HW2 8795   5.642  11.620  12.037
 2341SOL     OW 8796  11.549   6.915   8.414
 2341SOL    HW1 8797  11.621   6.852   8.423
 2341SOL    HW2 8798  11.473   6.869   8.448
 2342SOL     OW 8799  13.826   8.109  14.872
 2342SOL    HW1 8800  13.759   8.043   0.014
 2342SOL    HW2 8801  13.791   8.190   0.031
 2343SOL     OW 8802   3.783   6.684  11.134
 2343SOL    HW1 8803   3.832   6.683  11.052
 2343SOL    HW2 8804   3.748   6.773  11.139
 2344SOL     OW 8805   5.464   4.043   6.376
 2344SOL    HW1 8806   5.543   4.062   6.326
 2344SOL    HW2 8807   5.400   4.017   6.310
 2345SOL     OW 8808   3.142   1.841  14.127
 2345SOL    HW1 8809   3.084   1.767  14.143
 2345SOL    HW2 8810   3.155   1.841  14.032
 2346SOL     OW 8811  14.577   7.247  12.519
 2346SOL    HW1 8812  14.572   7.192  12.442
 2346SOL    HW2 8813  14.511   7.315  12.505
 2347SOL     OW 8814   3.843   7.459   4.281
 2347SOL    HW1 8815   3.923   7.506   4.261
 2347SOL    HW2 8816   3.795   7.515   4.341
 2348SOL     OW 8817  12.852   7.239   8.442
 2348SOL    HW1 8818  12.788   7.300   8.404
 2348SOL    HW2 8819  12.809   7.207   8.522
 2349SOL     OW 8820   7.189   3.968   0.371
 2349SOL    HW1 8821   7.197   3.932   0.283
 2349SOL    HW2 8822   7.172   3.892   0.427
 2350SOL     OW 8823   7.672   4.739   0.405
 2350SOL    HW1 8824   7.621   4.820   0.407
 2350SOL    HW2 8825   7.616   4.676   0.360
 2351SOL     OW 8826  13.339  12.643   4.424
 2351SOL    HW1 8827  13.409  12.708   4.425
 2351SOL    HW2 8828  13.335  12.610   4.514
 2352SOL     OW 8829  14.788   0.465  12.606
 2352SOL    HW1 8830  14.813   0.542  12.554
 2352SOL    HW2 8831  14.788   0.496  12.696
 2353SOL     OW 8832   6.892  12.377  10.783
 2353SOL    HW1 8833   6.856  12.291  10.760
 2353SOL    HW2 8834   6.981  12.375  10.750
 2354SOL     OW 8835  10.141   3.425  11.437
 2354SOL    HW1 8836  10.079   3.461  11.500
 2354SOL    HW2 8837  10.209   3.384  11.491
 2355SOL     OW 8838   8.236   6.806   7.208
 2355SOL    HW1 8839   8.285   6.835   7.285
 2355SOL    HW2 8840   8.243   6.710   7.211
 2356SOL     OW 8841   9.307   0.670   9.463
 2356SOL    HW1 8842   9.302   0.762   9.436
 2356SOL    HW2 8843   9.380   0.634   9.412
 2357SOL     OW 8844   8.220  12.420   4.561
 2357SOL    HW1 8845   8.221  12.429   4.466
 2357SOL    HW2 8846   8.265  12.499   4.593
 2358SOL     OW 8847  10.392   1.122  13.810
 2358SOL    HW1 8848  10.362   1.124  13.720
 2358SOL    HW2 8849  10.471   1.176  13.811
 2359SOL     OW 8850   5.715  11.793   2.751
 2359SOL    HW1 8851   5.802  11.832   2.761
 2359SOL    HW2 8852   5.728  11.718   2.694
 2360SOL     OW 8853   4.862   5.406  14.505
 2360SOL    HW1 8854   4.811   5.368  14.433
 2360SOL    HW2 8855   4.914   5.475  14.464
 2361SOL     OW 8856   6.450   8.446  11.315
 2361SOL    HW1 8857   6.523   8.504  11.336
 2361SOL    HW2 8858   6.373   8.491  11.352
 2362SOL     OW 8859   7.590  10.074   6.596
 2362SOL    HW1 8860   7.502  10.042   6.614
 2362SOL    HW2 8861   7.577  10.162   6.562
 2363SOL     OW 8862   3.498   2.416   8.477
 2363SOL    HW1 8863   3.471   2.454   8.560
 2363SOL    HW2 8864   3.489   2.487   8.414
 2364SOL     OW 8865   6.975   2.270   4.699
 2364SOL    HW1 8866   7.050   2.278   4.759
 2364SOL    HW2 8867   6.977   2.351   4.648
 2365SOL     OW 8868   4.034  10.046   7.396
 2365SOL    HW1 8869   4.053  10.134   7.361
 2365SOL    HW2 8870   3.960  10.060   7.456
 2366SOL     OW 8871   1.270   6.315   6.513
 2366SOL    HW1 8872   1.203   6.251   6.488
 2366SOL    HW2 8873   1.238   6.351   6.595
 2367SOL     OW 8874   6.676  10.404   7.417
 2367SOL    HW1 8875   6.661  10.436   7.328
 2367SOL    HW2 8876   6.681  10.483   7.470
 2368SOL     OW 8877   2.354   8.466   5.580
 2368SOL    HW1 8878   2.405   8.545   5.596
 2368SOL    HW2 8879   2.263   8.497   5.574
 2369SOL     OW 8880   2.479  14.083   9.735
 2369SOL    HW1 8881   2.510  14.148   9.672
 2369SOL    HW2 8882   2.395  14.053   9.700
 2370SOL     OW 8883   2.707   7.035   6.830
 2370SOL    HW1 8884   2.675   6.948   6.803
 2370SOL    HW2 8885   2.628   7.081   6.858
 2371SOL     OW 8886   0.797   6.542   0.242
 2371SOL    HW1 8887   0.757   6.618   0.284
 2371SOL    HW2 8888   0.795   6.474   0.310
 2372SOL     OW 8889   0.549  12.672   1.556
 2372SOL    HW1 8890   0.552  12.596   1.615
 2372SOL    HW2 8891   0.457  12.699   1.558
 2373SOL     OW 8892   5.692  13.064   2.566
 2373SOL    HW1 8893   5.726  13.015   2.492
 2373SOL    HW2 8894   5.702  13.156   2.540
 2374SOL     OW 8895  11.262  10.115  14.094
 2374SOL    HW1 8896  11.188  10.170  14.121
 2374SOL    HW2 8897  11.237  10.027  14.121
 2375SOL     OW 8898  14.807  11.396   8.399
 2375SOL    HW1 8899  14.737  11.442   8.352
 2375SOL    HW2 8900  14.870  11.465   8.421
 2376SOL     OW 8901   8.984  14.373   2.008
 2376SOL    HW1 8902   8.965  14.427   1.931
 2376SOL    HW2 8903   8.989  14.284   1.974
 2377SOL     OW 8904   4.373  14.139  10.942
 2377SOL    HW1 8905   4.391  14.146  11.036
 2377SOL    HW2 8906   4.391  14.048  10.921
 2378SOL     OW 8907   6.212   5.572   7.250
 2378SOL    HW1 8908   6.300   5.576   7.211
 2378SOL    HW2 8909   6.154   5.555   7.176
 2379SOL     OW 8910   5.800  14.127  12.722
 2379SOL    HW1 8911   5.840  14.213  12.722
 2379SOL    HW2 8912   5.837  14.083  12.646
 2380SOL     OW 8913   8.251  13.863   9.690
 2380SOL    HW1 8914   8.317  13.873   9.758
 2380SOL    HW2 8915   8.179  13.920   9.718
 2381SOL     OW 8916  11.851   6.334  12.507
 2381SOL    HW1 8917  11.917   6.361  12.572
 2381SOL    HW2 8918  11.817   6.251  12.540
 2382SOL     OW 8919   0.960   8.231   3.596
 2382SOL    HW1 8920   1.019   8.245   3.670
 2382SOL    HW2 8921   1.017   8.204   3.525
 2383SOL     OW 8922  13.569   3.656   7.791
 2383SOL    HW1 8923  13.507   3.717   7.751
 2383SOL    HW2 8924  13.530   3.634   7.876
 2384SOL     OW 8925  12.895   2.270  13.315
 2384SOL    HW1 8926  12.889   2.358  13.276
 2384SOL    HW2 8927  12.856   2.212  13.249
 2385SOL     OW 8928  12.607   7.733  13.766
 2385SOL    HW1 8929  12.625   7.785  13.687
 2385SOL    HW2 8930  12.660   7.775  13.834
 2386SOL     OW 8931   8.900   8.229   9.945
 2386SOL    HW1 8932   8.989   8.197   9.961
 2386SOL    HW2 8933   8.877   8.195   9.858
 2387SOL     OW 8934   5.226  11.992   5.595
 2387SOL    HW1 8935   5.240  12.085   5.607
 2387SOL    HW2 8936   5.244  11.953   5.681
 2388SOL     OW 8937  13.922   9.996   7.800
 2388SOL    HW1 8938  13.954  10.082   7.826
 2388SOL    HW2 8939  13.929   9.943   7.879
 2389SOL     OW 8940   0.463  11.254  12.946
 2389SOL    HW1 8941   0.376  11.250  12.906
 2389SOL    HW2 8942   0.454  11.318  13.017
 2390SOL     OW 8943   2.087   4.705   5.423
 2390SOL    HW1 8944   2.031   4.770   5.464
 2390SOL    HW2 8945   2.156   4.688   5.486
 2391SOL     OW 8946   0.363  13.829  10.182
 2391SOL    HW1 8947   0.351  13.887  10.107
 2391SOL    HW2 8948   0.298  13.858  10.246
 2392SOL     OW 8949   1.880   2.453   3.831
 2392SOL    HW1 8950   1.933   2.460   3.911
 2392SOL    HW2 8951   1.843   2.540   3.819
 2393SOL     OW 8952  12.595  13.146  12.718
 2393SOL    HW1 8953  12.510  13.184  12.739
 2393SOL    HW2 8954  12.639  13.213  12.665
 2394SOL     OW 8955   8.492  14.043   8.657
 2394SOL    HW1 8956   8.577  14.087   8.667
 2394SOL    HW2 8957   8.515  13.950   8.647
 2395SOL     OW 8958  11.037   9.570   0.694
 2395SOL    HW1 8959  11.038   9.543   0.786
 2395SOL    HW2 8960  11.077   9.498   0.647
 2396SOL     OW 8961   8.452   2.945   9.466
 2396SOL    HW1 8962   8.488   2.869   9.419
 2396SOL    HW2 8963   8.371   2.912   9.506
 2397SOL     OW 8964  14.264   5.679   7.751
 2397SOL    HW1 8965  14.352   5.710   7.770
 2397SOL    HW2 8966  14.210   5.712   7.823
 2398SOL     OW 8967  11.514  13.527   1.505
 2398SOL    HW1 8968  11.543  13.439   1.530
 2398SOL    HW2 8969  11.589  13.583   1.526
 2399SOL     OW 8970  10.596   8.003   3.738
 2399SOL    HW1 8971  10.623   8.081   3.787
 2399SOL    HW2 8972  10.651   7.933   3.772
 2400SOL     OW 8973  10.299   6.910   4.050
 2400SOL    HW1 8974  10.345   6.938   4.129
 2400SOL    HW2 8975  10.303   6.815   4.052
 2401SOL     OW 8976   8.977  12.893  14.695
 2401SOL    HW1 8977   8.886  12.920  14.707
 2401SOL    HW2 8978   8.970  12.805  14.657
 2402SOL     OW 8979   2.734  10.257  12.762
 2402SOL    HW1 8980   2.677  10.206  12.821
 2402SOL    HW2 8981   2.684  10.262  12.680
 2403SOL     OW 8982  11.645   3.681   9.962
 2403SOL    HW1 8983  11.697   3.759   9.984
 2403SOL    HW2 8984  11.674   3.658   9.873
 2404SOL     OW 8985  12.293  12.353   0.733
 2404SOL    HW1 8986  12.345  12.361   0.652
 2404SOL    HW2 8987  12.357  12.364   0.803
 2405SOL     OW 8988   0.365   7.615   5.292
 2405SOL    HW1 8989   0.438   7.671   5.318
 2405SOL    HW2 8990   0.403   7.557   5.225
 2406SOL     OW 8991   2.852   2.921  10.901
 2406SOL    HW1 8992   2.795   2.997  10.904
 2406SOL    HW2 8993   2.921   2.940  10.964
 2407SOL     OW 8994   6.313   3.801   2.330
 2407SOL    HW1 8995   6.398   3.790   2.289
 2407SOL    HW2 8996   6.294   3.894   2.323
 2408SOL     OW 8997  11.247   3.269   9.091
 2408SOL    HW1 8998  11.295   3.245   9.011
 2408SOL    HW2 8999  11.175   3.324   9.060
 2409SOL     OW 9000  14.263  10.151   5.181
 2409SOL    HW1 9001  14.301  10.175   5.265
 2409SOL    HW2 9002  14.324  10.088   5.144
 2410SOL     OW 9003   5.936   2.836  13.655
 2410SOL    HW1 9004   5.851   2.863  13.622
 2410SOL    HW2 9005   5.922   2.748  13.691
 2411SOL     OW 9006   6.823  10.477  12.304
 2411SOL    HW1 9007   6.894  10.474  12.240
 2411SOL    HW2 9008   6.832  10.395  12.353
 2412SOL     OW 9009   4.390   0.465   5.370
 2412SOL    HW1 9010   4.434   0.487   5.452
 2412SOL    HW2 9011   4.315   0.524   5.366
 2413SOL     OW 9012   6.247   0.373   7.654
 2413SOL    HW1 9013   6.228   0.279   7.662
 2413SOL    HW2 9014   6.212   0.397   7.568
 2414SOL     OW 9015   3.676   8.012   7.413
 2414SOL    HW1 9016   3.702   8.065   7.488
 2414SOL    HW2 9017   3.631   8.073   7.354
 2415SOL     OW 9018  12.545  13.735   7.474
 2415SOL    HW1 9019  12.515  13.804   7.415
 2415SOL    HW2 9020  12.566  13.781   7.555
 2416SOL     OW 9021  12.208  11.357   0.797
 2416SOL    HW1 9022  12.161  11.406   0.865
 2416SOL    HW2 9023  12.142  11.341   0.729
 2417SOL     OW 9024   5.736  12.703  11.979
 2417SOL    HW1 9025   5.803  12.653  12.025
 2417SOL    HW2 9026   5.668  12.639  11.959
 2418SOL     OW 9027   6.760   6.209   7.570
 2418SOL    HW1 9028   6.774   6.206   7.476
 2418SOL    HW2 9029   6.698   6.280   7.583
 2419SOL     OW 9030   5.058   1.031   4.109
 2419SOL    HW1 9031   5.002   1.017   4.033
 2419SOL    HW2 9032   5.041   0.955   4.166
 2420SOL     OW 9033   0.822   2.570   9.420
 2420SOL    HW1 9034   0.843   2.637   9.355
 2420SOL    HW2 9035   0.831   2.487   9.373
 2421SOL     OW 9036   8.925   2.152  13.343
 2421SOL    HW1 9037   8.858   2.162  13.275
 2421SOL    HW2 9038   8.877   2.156  13.426
 2422SOL     OW 9039   0.888   4.072   4.223
 2422SOL    HW1 9040   0.853   4.158   4.200
 2422SOL    HW2 9041   0.815   4.012   4.210
 2423SOL     OW 9042   0.732   5.559   4.682
 2423SOL    HW1 9043   0.758   5.638   4.635
 2423SOL    HW2 9044   0.641   5.575   4.707
 2424SOL     OW 9045   9.684   9.620   6.225
 2424SOL    HW1 9046   9.775   9.605   6.251
 2424SOL    HW2 9047   9.662   9.544   6.171
 2425SOL     OW 9048  10.199   2.025   3.714
 2425SOL    HW1 9049  10.168   2.028   3.624
 2425SOL    HW2 9050  10.193   1.933   3.739
 2426SOL     OW 9051  13.149   0.110   2.319
 2426SOL    HW1 9052  13.156   0.088   2.226
 2426SOL    HW2 9053  13.136   0.026   2.363
 2427SOL     OW 9054  14.650   1.085   4.772
 2427SOL    HW1 9055  14.577   1.139   4.801
 2427SOL    HW2 9056  14.714   1.091   4.844
 2428SOL     OW 9057   1.834  10.771   7.847
 2428SOL    HW1 9058   1.885  10.718   7.787
 2428SOL    HW2 9059   1.761  10.715   7.873
 2429SOL     OW 9060   0.401  10.654   4.184
 2429SOL    HW1 9061   0.418  10.711   4.109
 2429SOL    HW2 9062   0.368  10.573   4.145
 2430SOL     OW 9063   6.208   9.076  10.063
 2430SOL    HW1 9064   6.168   8.997  10.028
 2430SOL    HW2 9065   6.243   9.122   9.987
 2431SOL     OW 9066  10.029   4.197   5.591
 2431SOL    HW1 9067  10.078   4.119   5.616
 2431SOL    HW2 9068  10.055   4.263   5.655
 2432SOL     OW 9069   2.770  10.265   4.953
 2432SOL    HW1 9070   2.804  10.335   5.009
 2432SOL    HW2 9071   2.844  10.240   4.898
 2433SOL     OW 9072   3.947   5.072   0.738
 2433SOL    HW1 9073   3.924   5.010   0.669
 2433SOL    HW2 9074   4.039   5.093   0.722
 2434SOL     OW 9075  13.235   3.210   5.152
 2434SOL    HW1 9076  13.285   3.226   5.072
 2434SOL    HW2 9077  13.215   3.117   5.149
 2435SOL     OW 9078   4.160   0.426  12.780
 2435SOL    HW1 9079   4.218   0.474  12.838
 2435SOL    HW2 9080   4.218   0.372  12.726
 2436SOL     OW 9081   2.106  10.893  13.498
 2436SOL    HW1 9082   2.176  10.828  13.503
 2436SOL    HW2 9083   2.090  10.904  13.404
 2437SOL     OW 9084   2.016   9.558   9.066
 2437SOL    HW1 9085   2.030   9.584   9.157
 2437SOL    HW2 9086   1.958   9.483   9.071
 2438SOL     OW 9087   7.415   2.279   3.197
 2438SOL    HW1 9088   7.391   2.190   3.222
 2438SOL    HW2 9089   7.495   2.269   3.146
 2439SOL     OW 9090  12.773  11.244   3.790
 2439SOL    HW1 9091  12.845  11.294   3.751
 2439SOL    HW2 9092  12.727  11.307   3.845
 2440SOL     OW 9093  12.868   5.151  14.242
 2440SOL    HW1 9094  12.855   5.065  14.283
 2440SOL    HW2 9095  12.857   5.214  14.313
 2441SOL     OW 9096  14.044   1.395   9.173
 2441SOL    HW1 9097  14.085   1.322   9.218
 2441SOL    HW2 9098  13.951   1.387   9.195
 2442SOL     OW 9099  11.905   3.715  13.100
 2442SOL    HW1 9100  11.909   3.640  13.041
 2442SOL    HW2 9101  11.994   3.749  13.102
 2443SOL     OW 9102  12.249   1.278  13.772
 2443SOL    HW1 9103  12.339   1.244  13.773
 2443SOL    HW2 9104  12.194   1.200  13.776
 2444SOL     OW 9105  12.669   9.430  13.972
 2444SOL    HW1 9106  12.697   9.339  13.982
 2444SOL    HW2 9107  12.579   9.423  13.940
 2445SOL     OW 9108   8.524   3.739   2.238
 2445SOL    HW1 9109   8.435   3.705   2.237
 2445SOL    HW2 9110   8.525   3.807   2.171
 2446SOL     OW 9111   4.279   0.400  11.052
 2446SOL    HW1 9112   4.217   0.473  11.047
 2446SOL    HW2 9113   4.268   0.355  10.968
 2447SOL     OW 9114   0.637   9.332  14.050
 2447SOL    HW1 9115   0.710   9.373  14.096
 2447SOL    HW2 9116   0.642   9.240  14.074
 2448SOL     OW 9117  13.991  12.661  11.252
 2448SOL    HW1 9118  13.983  12.752  11.283
 2448SOL    HW2 9119  13.929  12.655  11.179
 2449SOL     OW 9120  14.344   3.468   8.188
 2449SOL    HW1 9121  14.339   3.430   8.275
 2449SOL    HW2 9122  14.267   3.433   8.142
 2450SOL     OW 9123  13.220   1.003   5.278
 2450SOL    HW1 9124  13.167   0.954   5.340
 2450SOL    HW2 9125  13.285   1.048   5.332
 2451SOL     OW 9126  14.778   6.620   2.306
 2451SOL    HW1 9127  14.848   6.683   2.324
 2451SOL    HW2 9128  14.812   6.536   2.338
 2452SOL     OW 9129   6.001  13.198  12.016
 2452SOL    HW1 9130   6.046  13.278  12.044
 2452SOL    HW2 9131   5.915  13.203  12.058
 2453SOL     OW 9132  12.773  11.935   7.217
 2453SOL    HW1 9133  12.684  11.946   7.250
 2453SOL    HW2 9134  12.803  11.852   7.254
 2454SOL     OW 9135  14.283   4.487   3.874
 2454SOL    HW1 9136  14.286   4.394   3.854
 2454SOL    HW2 9137  14.189   4.507   3.880
 2455SOL     OW 9138   7.632  12.897   4.607
 2455SOL    HW1 9139   7.675  12.858   4.531
 2455SOL    HW2 9140   7.659  12.842   4.681
 2456SOL     OW 9141   0.401   6.949   4.139
 2456SOL    HW1 9142   0.343   6.983   4.207
 2456SOL    HW2 9143   0.351   6.879   4.098
 2457SOL     OW 9144   8.671   4.657   0.051
 2457SOL    HW1 9145   8.664   4.705  14.846
 2457SOL    HW2 9146   8.623   4.575   0.036
 2458SOL     OW 9147   5.111   1.751  13.757
 2458SOL    HW1 9148   5.022   1.718  13.754
 2458SOL    HW2 9149   5.104   1.842  13.727
 2459SOL     OW 9150   7.973  12.020   6.572
 2459SOL    HW1 9151   8.064  12.050   6.581
 2459SOL    HW2 9152   7.920  12.095   6.598
 2460SOL     OW 9153  13.073   9.193   4.158
 2460SOL    HW1 9154  13.045   9.251   4.229
 2460SOL    HW2 9155  13.024   9.112   4.173
 2461SOL     OW 9156   1.539  12.688   3.465
 2461SOL    HW1 9157   1.488  12.627   3.519
 2461SOL    HW2 9158   1.611  12.714   3.521
 2462SOL     OW 9159  10.969   0.243   7.855
 2462SOL    HW1 9160  11.042   0.273   7.909
 2462SOL    HW2 9161  10.974   0.297   7.776
 2463SOL     OW 9162   9.859   2.978  11.980
 2463SOL    HW1 9163   9.850   3.040  12.052
 2463SOL    HW2 9164   9.823   3.024  11.904
 2464SOL     OW 9165  14.707  14.834  12.718
 2464SOL    HW1 9166  14.701   0.051  12.708
 2464SOL    HW2 9167  14.620  14.806  12.746
 2465SOL     OW 9168  11.539  14.547  10.208
 2465SOL    HW1 9169  11.630  14.575  10.224
 2465SOL    HW2 9170  11.516  14.497  10.286
 2466SOL     OW 9171  14.353  13.845   8.812
 2466SOL    HW1 9172  14.410  13.828   8.887
 2466SOL    HW2 9173  14.410  13.881   8.745
 2467SOL     OW 9174  14.605  14.086   2.189
 2467SOL    HW1 9175  14.647  14.034   2.120
 2467SOL    HW2 9176  14.522  14.114   2.151
 2468SOL     OW 9177   8.040  14.159   5.077
 2468SOL    HW1 9178   8.040  14.246   5.038
 2468SOL    HW2 9179   8.083  14.171   5.162
 2469SOL     OW 9180   7.718   0.279   6.188
 2469SOL    HW1 9181   7.651   0.344   6.168
 2469SOL    HW2 9182   7.739   0.293   6.280
 2470SOL     OW 9183   3.217  12.103   3.346
 2470SOL    HW1 9184   3.199  12.121   3.254
 2470SOL    HW2 9185   3.302  12.145   3.362
 2471SOL     OW 9186  13.910   8.142  11.177
 2471SOL    HW1 9187  14.001   8.132  11.149
 2471SOL    HW2 9188  13.916   8.190  11.260
 2472SOL     OW 9189   0.244   8.929  10.251
 2472SOL    HW1 9190   0.253   8.862  10.319
 2472SOL    HW2 9191   0.188   8.996  10.290
 2473SOL     OW 9192  13.109  11.424   9.977
 2473SOL    HW1 9193  13.182  11.477   9.948
 2473SOL    HW2 9194  13.122  11.414  10.071
 2474SOL     OW 9195   7.433   4.217  13.758
 2474SOL    HW1 9196   7.441   4.292  13.817
 2474SOL    HW2 9197   7.419   4.143  13.817
 2475SOL     OW 9198   7.493   7.404   0.435
 2475SOL    HW1 9199   7.426   7.403   0.503
 2475SOL    HW2 9200   7.452   7.361   0.360
 2476SOL     OW 9201   4.040   4.898   2.627
 2476SOL    HW1 9202   4.078   4.821   2.586
 2476SOL    HW2 9203   3.987   4.939   2.559
 2477SOL     OW 9204   6.577   8.517   1.887
 2477SOL    HW1 9205   6.548   8.459   1.957
 2477SOL    HW2 9206   6.577   8.604   1.927
 2478SOL     OW 9207  11.578   4.321  13.728
 2478SOL    HW1 9208  11.648   4.261  13.701
 2478SOL    HW2 9209  11.500   4.289  13.682
 2479SOL     OW 9210   6.436   0.908   8.952
 2479SOL    HW1 9211   6.373   0.912   9.024
 2479SOL    HW2 9212   6.479   0.823   8.962
 2480SOL     OW 9213   4.016   4.890   8.111
 2480SOL    HW1 9214   3.944   4.897   8.048
 2480SOL    HW2 9215   4.035   4.796   8.115
 2481SOL     OW 9216   4.989   0.150   6.587
 2481SOL    HW1 9217   5.018   0.205   6.660
 2481SOL    HW2 9218   5.042   0.071   6.594
 2482SOL     OW 9219  10.810  11.619  14.516
 2482SOL    HW1 9220  10.732  11.593  14.565
 2482SOL    HW2 9221  10.844  11.695  14.564
 2483SOL     OW 9222   2.419  11.811   8.351
 2483SOL    HW1 9223   2.376  11.737   8.309
 2483SOL    HW2 9224   2.513  11.792   8.342
 2484SOL     OW 9225   8.141   6.191   9.054
 2484SOL    HW1 9226   8.182   6.269   9.015
 2484SOL    HW2 9227   8.048   6.211   9.056
 2485SOL     OW 9228  12.865   0.701  13.586
 2485SOL    HW1 9229  12.876   0.775  13.527
 2485SOL    HW2 9230  12.812   0.736  13.658
 2486SOL     OW 9231   1.413   1.382   9.859
 2486SOL    HW1 9232   1.333   1.331   9.848
 2486SOL    HW2 9233   1.384   1.463   9.900
 2487SOL     OW 9234   2.386   3.619   2.741
 2487SOL    HW1 9235   2.436   3.627   2.822
 2487SOL    HW2 9236   2.372   3.525   2.730
 2488SOL     OW 9237   3.521  10.953   8.978
 2488SOL    HW1 9238   3.551  10.968   8.888
 2488SOL    HW2 9239   3.426  10.951   8.972
 2489SOL     OW 9240  12.273  11.578   1.364
 2489SOL    HW1 9241  12.361  11.606   1.340
 2489SOL    HW2 9242  12.227  11.659   1.387
 2490SOL     OW 9243   6.938   9.307   5.823
 2490SOL    HW1 9244   6.860   9.347   5.861
 2490SOL    HW2 9245   6.967   9.369   5.756
 2491SOL     OW 9246   0.060  12.269   4.400
 2491SOL    HW1 9247  14.860  12.321   4.380
 2491SOL    HW2 9248   0.069  12.275   4.495
 2492SOL     OW 9249   2.577   0.750   0.900
 2492SOL    HW1 9250   2.511   0.756   0.968
 2492SOL    HW2 9251   2.530   0.720   0.822
 2493SOL     OW 9252  13.461   4.951  10.130
 2493SOL    HW1 9253  13.533   4.895  10.159
 2493SOL    HW2 9254  13.431   4.911  10.048
 2494SOL     OW 9255   9.561   3.864  14.334
 2494SOL    HW1 9256   9.559   3.768  14.329
 2494SOL    HW2 9257   9.603   3.892  14.253
 2495SOL     OW 9258  14.807  10.979   2.095
 2495SOL    HW1 9259  14.834  11.027   2.174
 2495SOL    HW2 9260  14.844  10.892   2.107
 2496SOL     OW 9261   4.860  13.190   2.205
 2496SOL    HW1 9262   4.764  13.190   2.204
 2496SOL    HW2 9263   4.884  13.282   2.201
 2497SOL     OW 9264  10.341   6.561   1.071
 2497SOL    HW1 9265  10.431   6.529   1.065
 2497SOL    HW2 9266  10.287   6.485   1.051
 2498SOL     OW 9267   4.824  14.504   0.917
 2498SOL    HW1 9268   4.783  14.493   1.003
 2498SOL    HW2 9269   4.900  14.561   0.934
 2499SOL     OW 9270   5.533  11.044  12.984
 2499SOL    HW1 9271   5.545  11.117  12.923
 2499SOL    HW2 9272   5.612  11.045  13.039
 2500SOL     OW 9273  13.826   6.724   8.837
 2500SOL    HW1 9274  13.915   6.689   8.830
 2500SOL    HW2 9275  13.831   6.811   8.798
 2501SOL     OW 9276   6.561   6.520   8.244
 2501SOL    HW1 9277   6.519   6.591   8.293
 2501SOL    HW2 9278   6.513   6.516   8.161
 2502SOL     OW 9279   6.401   4.097  10.717
 2502SOL    HW1 9280   6.392   4.003  10.733
 2502SOL    HW2 9281   6.451   4.103  10.636
 2503SOL     OW 9282   9.965   7.557   1.509
 2503SOL    HW1 9283   9.969   7.498   1.584
 2503SOL    HW2 9284  10.055   7.588   1.499
 2504SOL     OW 9285   1.727  14.475   4.589
 2504SOL    HW1 9286   1.804  14.437   4.630
 2504SOL    HW2 9287   1.667  14.401   4.578
 2505SOL     OW 9288  14.739   4.301   4.721
 2505SOL    HW1 9289  14.816   4.358   4.729
 2505SOL    HW2 9290  14.754   4.230   4.783
 2506SOL     OW 9291  12.372  12.858  12.096
 2506SOL    HW1 9292  12.363  12.787  12.160
 2506SOL    HW2 9293  12.326  12.826  12.018
 2507SOL     OW 9294   4.759   8.099   9.095
 2507SOL    HW1 9295   4.771   8.174   9.154
 2507SOL    HW2 9296   4.727   8.029   9.151
 2508SOL     OW 9297   0.854  10.383   5.426
 2508SOL    HW1 9298   0.906  10.309   5.456
 2508SOL    HW2 9299   0.918  10.444   5.389
 2509SOL     OW 9300   9.941   0.244   7.303
 2509SOL    HW1 9301   9.893   0.211   7.379
 2509SOL    HW2 9302   9.942   0.339   7.316
 2510SOL     OW 9303  13.604  13.461  13.849
 2510SOL    HW1 9304  13.675  13.505  13.896
 2510SOL    HW2 9305  13.564  13.403  13.915
 2511SOL     OW 9306  13.646  10.598   8.097
 2511SOL    HW1 9307  13.657  10.686   8.061
 2511SOL    HW2 9308  13.643  10.541   8.020
 2512SOL     OW 9309   8.094   7.934   8.080
 2512SOL    HW1 9310   8.110   7.848   8.043
 2512SOL    HW2 9311   8.121   7.927   8.172
 2513SOL     OW 9312   6.340  11.591  14.615
 2513SOL    HW1 9313   6.275  11.521  14.609
 2513SOL    HW2 9314   6.425  11.546  14.603
 2514SOL     OW 9315   8.903  10.923  12.711
 2514SOL    HW1 9316   8.833  10.858  12.700
 2514SOL    HW2 9317   8.872  11.000  12.665
 2515SOL     OW 9318   3.376  11.877  14.220
 2515SOL    HW1 9319   3.390  11.806  14.282
 2515SOL    HW2 9320   3.464  11.908  14.199
 2516SOL     OW 9321  13.984   8.796   4.839
 2516SOL    HW1 9322  13.920   8.748   4.786
 2516SOL    HW2 9323  13.931   8.843   4.904
 2517SOL     OW 9324   1.864   2.956  10.831
 2517SOL    HW1 9325   1.853   3.003  10.914
 2517SOL    HW2 9326   1.932   2.890  10.851
 2518SOL     OW 9327   0.950  13.096  12.088
 2518SOL    HW1 9328   0.875  13.037  12.101
 2518SOL    HW2 9329   1.011  13.046  12.034
 2519SOL     OW 9330   1.250   1.517  12.920
 2519SOL    HW1 9331   1.183   1.525  12.989
 2519SOL    HW2 9332   1.333   1.513  12.968
 2520SOL     OW 9333  12.073   5.659  13.063
 2520SOL    HW1 9334  12.114   5.724  13.007
 2520SOL    HW2 9335  12.066   5.581  13.008
 2521SOL     OW 9336   9.840   0.240  12.057
 2521SOL    HW1 9337   9.886   0.238  12.141
 2521SOL    HW2 9338   9.748   0.255  12.080
 2522SOL     OW 9339   2.605   3.941   5.086
 2522SOL    HW1 9340   2.598   3.869   5.023
 2522SOL    HW2 9341   2.520   3.943   5.130
 2523SOL     OW 9342   7.084  14.687   5.595
 2523SOL    HW1 9343   7.077  14.749   5.523
 2523SOL    HW2 9344   7.017  14.715   5.657
 2524SOL     OW 9345   8.198   2.208  14.526
 2524SOL    HW1 9346   8.202   2.225  14.432
 2524SOL    HW2 9347   8.108   2.227  14.550
 2525SOL     OW 9348  11.023   8.267  10.748
 2525SOL    HW1 9349  11.008   8.353  10.709
 2525SOL    HW2 9350  11.056   8.214  10.675
 2526SOL     OW 9351   0.339   9.837   7.442
 2526SOL    HW1 9352   0.308   9.885   7.519
 2526SOL    HW2 9353   0.307   9.889   7.368
 2527SOL     OW 9354   0.772  11.801   6.892
 2527SOL    HW1 9355   0.747  11.727   6.947
 2527SOL    HW2 9356   0.739  11.878   6.940
 2528SOL     OW 9357  14.607  13.826   6.611
 2528SOL    HW1 9358  14.626  13.919   6.622
 2528SOL    HW2 9359  14.688  13.789   6.574
 2529SOL     OW 9360  14.825  14.145   6.280
 2529SOL    HW1 9361   0.011  14.075   6.292
 2529SOL    HW2 9362  14.848  14.210   6.347
 2530SOL     OW 9363   7.817  11.588   3.469
 2530SOL    HW1 9364   7.844  11.612   3.558
 2530SOL    HW2 9365   7.899  11.569   3.423
 2531SOL     OW 9366   3.234   8.383  13.266
 2531SOL    HW1 9367   3.281   8.433  13.200
 2531SOL    HW2 9368   3.259   8.292  13.250
 2532SOL     OW 9369  14.534   3.242   1.009
 2532SOL    HW1 9370  14.489   3.268   0.928
 2532SOL    HW2 9371  14.627   3.260   0.991
 2533SOL     OW 9372   0.603  10.395   8.764
 2533SOL    HW1 9373   0.543  10.441   8.823
 2533SOL    HW2 9374   0.673  10.362   8.821
 2534SOL     OW 9375   2.224   2.419  13.867
 2534SOL    HW1 9376   2.194   2.476  13.938
 2534SOL    HW2 9377   2.209   2.331  13.900
 2535SOL     OW 9378   2.585   8.639  11.737
 2535SOL    HW1 9379   2.660   8.666  11.790
 2535SOL    HW2 9380   2.543   8.721  11.712
 2536SOL     OW 9381   4.903   4.970   0.591
 2536SOL    HW1 9382   4.933   4.968   0.500
 2536SOL    HW2 9383   4.870   4.881   0.607
 2537SOL     OW 9384   4.877   3.698   5.214
 2537SOL    HW1 9385   4.800   3.643   5.227
 2537SOL    HW2 9386   4.950   3.643   5.243
 2538SOL     OW 9387   0.201  11.281  12.404
 2538SOL    HW1 9388   0.161  11.355  12.360
 2538SOL    HW2 9389   0.128  11.238  12.449
 2539SOL     OW 9390  13.819   0.726  10.967
 2539SOL    HW1 9391  13.871   0.663  11.017
 2539SOL    HW2 9392  13.748   0.751  11.027
 2540SOL     OW 9393   0.440  14.787   9.042
 2540SOL    HW1 9394   0.406  14.843   8.973
 2540SOL    HW2 9395   0.364  14.739   9.075
 2541SOL     OW 9396   4.564   6.622  13.729
 2541SOL    HW1 9397   4.577   6.683  13.655
 2541SOL    HW2 9398   4.646   6.573  13.734
 2542SOL     OW 9399   2.663  13.962   2.602
 2542SOL    HW1 9400   2.607  13.917   2.539
 2542SOL    HW2 9401   2.638  13.924   2.687
 2543SOL     OW 9402   8.988   5.668   3.878
 2543SOL    HW1 9403   9.025   5.654   3.791
 2543SOL    HW2 9404   8.898   5.695   3.862
 2544SOL     OW 9405   4.036   3.743   2.963
 2544SOL    HW1 9406   3.967   3.781   2.909
 2544SOL    HW2 9407   3.989   3.704   3.037
 2545SOL     OW 9408  12.356   4.974  14.080
 2545SOL    HW1 9409  12.446   5.006  14.082
 2545SOL    HW2 9410  12.323   4.988  14.169
 2546SOL     OW 9411   7.047   1.828   9.093
 2546SOL    HW1 9412   7.103   1.785   9.028
 2546SOL    HW2 9413   7.097   1.823   9.175
 2547SOL     OW 9414   2.976   4.218  13.051
 2547SOL    HW1 9415   2.922   4.177  12.984
 2547SOL    HW2 9416   2.931   4.300  13.072
 2548SOL     OW 9417   0.714  10.567   5.565
 2548SOL    HW1 9418   0.749  10.499   5.508
 2548SOL    HW2 9419   0.769  10.643   5.549
 2549SOL     OW 9420   0.887   1.462  13.261
 2549SOL    HW1 9421   0.879   1.466  13.357
 2549SOL    HW2 9422   0.812   1.511  13.229
 2550SOL     OW 9423   1.090   5.970   6.581
 2550SOL    HW1 9424   1.050   5.962   6.494
 2550SOL    HW2 9425   1.052   6.050   6.617
 2551SOL     OW 9426   9.387   1.783  11.273
 2551SOL    HW1 9427   9.386   1.806  11.366
 2551SOL    HW2 9428   9.378   1.867  11.227
 2552SOL     OW 9429   7.676   4.230  11.193
 2552SOL    HW1 9430   7.729   4.184  11.128
 2552SOL    HW2 9431   7.596   4.178  11.199
 2553SOL     OW 9432   5.640  12.071   3.005
 2553SOL    HW1 9433   5.574  12.053   3.072
 2553SOL    HW2 9434   5.608  12.024   2.927
 2554SOL     OW 9435  13.807  12.174   9.077
 2554SOL    HW1 9436  13.817  12.193   9.170
 2554SOL    HW2 9437  13.750  12.096   9.075
 2555SOL     OW 9438   0.325  10.100   8.987
 2555SOL    HW1 9439   0.348  10.009   8.970
 2555SOL    HW2 9440   0.231  10.098   9.007
 2556SOL     OW 9441  12.804  11.201  13.876
 2556SOL    HW1 9442  12.732  11.212  13.814
 2556SOL    HW2 9443  12.855  11.282  13.868
 2557SOL     OW 9444   0.029   1.379   8.229
 2557SOL    HW1 9445   0.111   1.412   8.266
 2557SOL    HW2 9446  14.850   1.456   8.224
 2558SOL     OW 9447   9.698   3.865   9.432
 2558SOL    HW1 9448   9.692   3.892   9.341
 2558SOL    HW2 9449   9.610   3.879   9.467
 2559SOL     OW 9450   7.327   4.874   0.533
 2559SOL    HW1 9451   7.288   4.961   0.541
 2559SOL    HW2 9452   7.294   4.841   0.450
 2560SOL     OW 9453   7.898  11.282   1.723
 2560SOL    HW1 9454   7.972  11.274   1.784
 2560SOL    HW2 9455   7.939  11.286   1.636
 2561SOL     OW 9456   3.386   5.330   7.667
 2561SOL    HW1 9457   3.390   5.263   7.598
 2561SOL    HW2 9458   3.474   5.369   7.668
 2562SOL     OW 9459   3.201   7.649  14.238
 2562SOL    HW1 9460   3.294   7.635  14.217
 2562SOL    HW2 9461   3.201   7.700  14.318
 2563SOL     OW 9462  11.012   1.067  14.188
 2563SOL    HW1 9463  10.938   1.126  14.176
 2563SOL    HW2 9464  11.032   1.072  14.281
 2564SOL     OW 9465   8.180   4.989   5.788
 2564SOL    HW1 9466   8.255   5.020   5.737
 2564SOL    HW2 9467   8.144   5.067   5.829
 2565SOL     OW 9468  11.612   7.242   8.084
 2565SOL    HW1 9469  11.638   7.167   8.138
 2565SOL    HW2 9470  11.531   7.272   8.124
 2566SOL     OW 9471  11.380   4.577  11.455
 2566SOL    HW1 9472  11.409   4.532  11.376
 2566SOL    HW2 9473  11.383   4.510  11.523
 2567SOL     OW 9474   9.353  10.760   6.742
 2567SOL    HW1 9475   9.443  10.769   6.709
 2567SOL    HW2 9476   9.346  10.668   6.765
 2568SOL     OW 9477   3.097   2.323   3.386
 2568SOL    HW1 9478   3.039   2.315   3.311
 2568SOL    HW2 9479   3.150   2.243   3.384
 2569SOL     OW 9480   0.920   4.837   2.173
 2569SOL    HW1 9481   1.005   4.862   2.209
 2569SOL    HW2 9482   0.915   4.743   2.185
 2570SOL     OW 9483   8.348   1.584   7.017
 2570SOL    HW1 9484   8.399   1.550   6.943
 2570SOL    HW2 9485   8.257   1.561   6.996
 2571SOL     OW 9486  10.707   4.850   0.776
 2571SOL    HW1 9487  10.662   4.782   0.825
 2571SOL    HW2 9488  10.637   4.907   0.744
 2572SOL     OW 9489  11.569   2.802   8.750
 2572SOL    HW1 9490  11.502   2.765   8.693
 2572SOL    HW2 9491  11.523   2.866   8.803
 2573SOL     OW 9492   5.168  12.796   1.062
 2573SOL    HW1 9493   5.259  12.822   1.049
 2573SOL    HW2 9494   5.145  12.829   1.149
 2574SOL     OW 9495   8.855   3.671   4.562
 2574SOL    HW1 9496   8.871   3.760   4.530
 2574SOL    HW2 9497   8.766   3.651   4.535
 2575SOL     OW 9498   1.422   4.270   0.627
 2575SOL    HW1 9499   1.491   4.204   0.615
 2575SOL    HW2 9500   1.468   4.354   0.627
 2576SOL     OW 9501   2.086  11.927  14.678
 2576SOL    HW1 9502   2.120  11.902  14.592
 2576SOL    HW2 9503   1.994  11.903  14.675
 2577SOL     OW 9504   9.460   5.410  12.861
 2577SOL    HW1 9505   9.432   5.501  12.852
 2577SOL    HW2 9506   9.450   5.390  12.954
 2578SOL     OW 9507   1.424  11.866  14.548
 2578SOL    HW1 9508   1.354  11.880  14.612
 2578SOL    HW2 9509   1.379  11.869  14.463
 2579SOL     OW 9510   9.051  10.284  12.812
 2579SOL    HW1 9511   9.116  10.258  12.747
 2579SOL    HW2 9512   9.101  10.299  12.892
 2580SOL     OW 9513  10.271  11.737   8.843
 2580SOL    HW1 9514  10.346  11.754   8.786
 2580SOL    HW2 9515  10.204  11.702   8.784
 2581SOL     OW 9516   4.983   2.597   8.798
 2581SOL    HW1 9517   5.065   2.640   8.774
 2581SOL    HW2 9518   4.978   2.608   8.893
 2582SOL     OW 9519  14.008   1.454   7.593
 2582SOL    HW1 9520  14.039   1.519   7.655
 2582SOL    HW2 9521  14.025   1.493   7.507
 2583SOL     OW 9522   3.872  13.945   2.059
 2583SOL    HW1 9523   3.947  13.992   2.097
 2583SOL    HW2 9524   3.808  13.939   2.130
 2584SOL     OW 9525   2.608   2.087  10.563
 2584SOL    HW1 9526   2.679   2.043  10.516
 2584SOL    HW2 9527   2.538   2.094  10.499
 2585SOL     OW 9528  14.576  13.544  10.549
 2585SOL    HW1 9529  14.514  13.592  10.494
 2585SOL    HW2 9530  14.626  13.490  10.488
 2586SOL     OW 9531   3.309  14.796   8.326
 2586SOL    HW1 9532   3.257  14.795   8.406
 2586SOL    HW2 9533   3.384  14.739   8.345
 2587SOL     OW 9534  12.966   5.312  12.878
 2587SOL    HW1 9535  13.027   5.367  12.828
 2587SOL    HW2 9536  12.888   5.366  12.888
 2588SOL     OW 9537   5.471   7.193  13.761
 2588SOL    HW1 9538   5.390   7.244  13.766
 2588SOL    HW2 9539   5.519   7.217  13.840
 2589SOL     OW 9540   5.241   6.034  11.847
 2589SOL    HW1 9541   5.187   6.103  11.887
 2589SOL    HW2 9542   5.284   5.992  11.922
 2590SOL     OW 9543   1.688  13.513   8.946
 2590SOL    HW1 9544   1.669  13.459   8.869
 2590SOL    HW2 9545   1.603  13.525   8.988
 2591SOL     OW 9546   1.205   3.684   3.547
 2591SOL    HW1 9547   1.210   3.611   3.486
 2591SOL    HW2 9548   1.128   3.665   3.602
 2592SOL     OW 9549  10.979  13.361   7.763
 2592SOL    HW1 9550  10.925  13.434   7.792
 2592SOL    HW2 9551  10.952  13.346   7.672
 2593SOL     OW 9552   2.696  14.567  11.925
 2593SOL    HW1 9553   2.751  14.607  11.993
 2593SOL    HW2 9554   2.625  14.526  11.973
 2594SOL     OW 9555  12.027   5.902  11.912
 2594SOL    HW1 9556  12.057   5.837  11.849
 2594SOL    HW2 9557  11.994   5.974  11.858
 2595SOL     OW 9558  11.994   9.740   3.965
 2595SOL    HW1 9559  11.999   9.657   4.012
 2595SOL    HW2 9560  12.075   9.744   3.914
 2596SOL     OW 9561  14.775   1.997   9.007
 2596SOL    HW1 9562  14.862   1.958   9.013
 2596SOL    HW2 9563  14.789   2.080   8.961
 2597SOL     OW 9564   5.040   6.398   7.456
 2597SOL    HW1 9565   5.057   6.314   7.499
 2597SOL    HW2 9566   5.020   6.374   7.366
 2598SOL     OW 9567   5.143   9.469   3.691
 2598SOL    HW1 9568   5.057   9.498   3.659
 2598SOL    HW2 9569   5.131   9.457   3.785
 2599SOL     OW 9570  12.935   9.625  12.881
 2599SOL    HW1 9571  12.895   9.577  12.808
 2599SOL    HW2 9572  12.995   9.686  12.838
 2600SOL     OW 9573   5.353   2.917   0.782
 2600SOL    HW1 9574   5.399   3.001   0.779
 2600SOL    HW2 9575   5.422   2.852   0.779
 2601SOL     OW 9576   7.854  12.658   4.060
 2601SOL    HW1 9577   7.863  12.576   4.011
 2601SOL    HW2 9578   7.866  12.727   3.994
 2602SOL     OW 9579   1.472   1.505   9.507
 2602SOL    HW1 9580   1.481   1.559   9.586
 2602SOL    HW2 9581   1.499   1.418   9.534
 2603SOL     OW 9582   9.449   2.829   6.140
 2603SOL    HW1 9583   9.511   2.807   6.210
 2603SOL    HW2 9584   9.412   2.913   6.166
 2604SOL     OW 9585   1.557   6.557   1.150
 2604SOL    HW1 9586   1.536   6.555   1.057
 2604SOL    HW2 9587   1.632   6.498   1.160
 2605SOL     OW 9588   8.170  12.038   9.835
 2605SOL    HW1 9589   8.108  12.029   9.907
 2605SOL    HW2 9590   8.245  11.984   9.861
 2606SOL     OW 9591  12.542  12.022  13.678
 2606SOL    HW1 9592  12.503  12.090  13.733
 2606SOL    HW2 9593  12.600  11.974  13.737
 2607SOL     OW 9594  12.438   5.826   5.033
 2607SOL    HW1 9595  12.531   5.805   5.030
 2607SOL    HW2 9596  12.428   5.879   5.112
 2608SOL     OW 9597   7.486   1.252   6.552
 2608SOL    HW1 9598   7.484   1.285   6.642
 2608SOL    HW2 9599   7.402   1.207   6.541
 2609SOL     OW 9600   4.277   7.524   7.222
 2609SOL    HW1 9601   4.226   7.478   7.154
 2609SOL    HW2 9602   4.349   7.564   7.174
 2610SOL     OW 9603  11.019   3.492  12.107
 2610SOL    HW1 9604  11.051   3.438  12.179
 2610SOL    HW2 9605  11.098   3.530  12.069
 2611SOL     OW 9606   4.370   5.754   1.726
 2611SOL    HW1 9607   4.301   5.708   1.678
 2611SOL    HW2 9608   4.445   5.696   1.721
 2612SOL     OW 9609  11.795   6.273  11.882
 2612SOL    HW1 9610  11.738   6.251  11.955
 2612SOL    HW2 9611  11.826   6.362  11.901
 2613SOL     OW 9612  12.965   6.762   7.632
 2613SOL    HW1 9613  12.890   6.822   7.637
 2613SOL    HW2 9614  12.959   6.710   7.712
 2614SOL     OW 9615   4.527   5.458   5.502
 2614SOL    HW1 9616   4.498   5.498   5.584
 2614SOL    HW2 9617   4.620   5.437   5.516
 2615SOL     OW 9618  11.674   9.528  10.074
 2615SOL    HW1 9619  11.705   9.438  10.063
 2615SOL    HW2 9620  11.584   9.527  10.040
 2616SOL     OW 9621  13.165   2.934   3.976
 2616SOL    HW1 9622  13.234   2.905   4.036
 2616SOL    HW2 9623  13.083   2.917   4.024
 2617SOL     OW 9624   7.055   7.472   2.388
 2617SOL    HW1 9625   7.087   7.382   2.382
 2617SOL    HW2 9626   7.052   7.503   2.297
 2618SOL     OW 9627   1.892  10.929   2.863
 2618SOL    HW1 9628   1.929  10.975   2.787
 2618SOL    HW2 9629   1.852  10.998   2.915
 2619SOL     OW 9630   7.584  10.442   8.604
 2619SOL    HW1 9631   7.636  10.465   8.680
 2619SOL    HW2 9632   7.584  10.346   8.602
 2620SOL     OW 9633   2.724   1.399   6.446
 2620SOL    HW1 9634   2.729   1.328   6.382
 2620SOL    HW2 9635   2.814   1.411   6.476
 2621SOL     OW 9636   1.181  14.354   3.177
 2621SOL    HW1 9637   1.114  14.328   3.114
 2621SOL    HW2 9638   1.167  14.296   3.252
 2622SOL     OW 9639  11.572   3.607   1.830
 2622SOL    HW1 9640  11.533   3.612   1.742
 2622SOL    HW2 9641  11.665   3.589   1.814
 2623SOL     OW 9642   6.859   0.731   9.055
 2623SOL    HW1 9643   6.879   0.765   8.968
 2623SOL    HW2 9644   6.837   0.639   9.040
 2624SOL     OW 9645   7.710   5.206   4.460
 2624SOL    HW1 9646   7.737   5.129   4.509
 2624SOL    HW2 9647   7.614   5.203   4.460
 2625SOL     OW 9648   9.083   3.017  10.623
 2625SOL    HW1 9649   9.047   3.105  10.607
 2625SOL    HW2 9650   9.155   3.032  10.684
 2626SOL     OW 9651   6.646  10.806   4.816
 2626SOL    HW1 9652   6.606  10.876   4.763
 2626SOL    HW2 9653   6.642  10.839   4.906
 2627SOL     OW 9654  12.409   1.257  13.300
 2627SOL    HW1 9655  12.418   1.241  13.206
 2627SOL    HW2 9656  12.350   1.188  13.331
 2628SOL     OW 9657  12.273   7.566   7.846
 2628SOL    HW1 9658  12.235   7.495   7.795
 2628SOL    HW2 9659  12.198   7.620   7.872
 2629SOL     OW 9660  11.292   6.929   9.743
 2629SOL    HW1 9661  11.335   6.981   9.676
 2629SOL    HW2 9662  11.240   6.993   9.793
 2630SOL     OW 9663   3.294  14.175  14.468
 2630SOL    HW1 9664   3.326  14.099  14.419
 2630SOL    HW2 9665   3.303  14.248  14.407
 2631SOL     OW 9666   5.495   2.066   6.204
 2631SOL    HW1 9667   5.402   2.080   6.223
 2631SOL    HW2 9668   5.496   1.995   6.139
 2632SOL     OW 9669  10.255   3.065  13.544
 2632SOL    HW1 9670  10.233   2.980  13.582
 2632SOL    HW2 9671  10.207   3.068  13.461
 2633SOL     OW 9672   7.424   2.592   3.717
 2633SOL    HW1 9673   7.383   2.519   3.764
 2633SOL    HW2 9674   7.493   2.623   3.776
 2634SOL     OW 9675  13.519  14.845  12.725
 2634SOL    HW1 9676  13.610  14.874  12.719
 2634SOL    HW2 9677  13.473   0.039  12.769
 2635SOL     OW 9678   3.462  11.327  10.477
 2635SOL    HW1 9679   3.523  11.378  10.424
 2635SOL    HW2 9680   3.412  11.275  10.414
 2636SOL     OW 9681   5.256   4.883  12.358
 2636SOL    HW1 9682   5.318   4.896  12.287
 2636SOL    HW2 9683   5.233   4.790  12.354
 2637SOL     OW 9684   0.113  12.155  12.965
 2637SOL    HW1 9685   0.186  12.204  12.927
 2637SOL    HW2 9686   0.134  12.150  13.058
 2638SOL     OW 9687  13.874   2.461  13.326
 2638SOL    HW1 9688  13.821   2.534  13.359
 2638SOL    HW2 9689  13.963   2.495  13.325
 2639SOL     OW 9690  13.531   5.138  14.570
 2639SOL    HW1 9691  13.516   5.232  14.560
 2639SOL    HW2 9692  13.503   5.100  14.486
 2640SOL     OW 9693  10.206   1.588   4.603
 2640SOL    HW1 9694  10.241   1.593   4.515
 2640SOL    HW2 9695  10.280   1.608   4.660
 2641SOL     OW 9696  11.608   2.432   4.221
 2641SOL    HW1 9697  11.515   2.430   4.244
 2641SOL    HW2 9698  11.651   2.382   4.290
 2642SOL     OW 9699   6.326  14.839   6.969
 2642SOL    HW1 9700   6.329   0.052   6.939
 2642SOL    HW2 9701   6.252  14.801   6.922
 2643SOL     OW 9702   2.112  10.696   9.671
 2643SOL    HW1 9703   2.098  10.751   9.594
 2643SOL    HW2 9704   2.029  10.696   9.717
 2644SOL     OW 9705   8.936   9.749   3.765
 2644SOL    HW1 9706   8.970   9.742   3.675
 2644SOL    HW2 9707   9.000   9.804   3.810
 2645SOL     OW 9708   7.874   4.546   3.661
 2645SOL    HW1 9709   7.902   4.520   3.573
 2645SOL    HW2 9710   7.895   4.639   3.667
 2646SOL     OW 9711   9.305   3.625  14.119
 2646SOL    HW1 9712   9.303   3.720  14.115
 2646SOL    HW2 9713   9.239   3.596  14.056
 2647SOL     OW 9714  13.910   5.992   0.517
 2647SOL    HW1 9715  13.982   6.045   0.483
 2647SOL    HW2 9716  13.901   6.019   0.608
 2648SOL     OW 9717  10.162  14.496  13.396
 2648SOL    HW1 9718  10.112  14.422  13.362
 2648SOL    HW2 9719  10.233  14.508  13.333
 2649SOL     OW 9720  13.171  13.713   0.739
 2649SOL    HW1 9721  13.105  13.646   0.755
 2649SOL    HW2 9722  13.126  13.780   0.688
 2650SOL     OW 9723  13.333   3.684   0.545
 2650SOL    HW1 9724  13.312   3.590   0.545
 2650SOL    HW2 9725  13.294   3.717   0.627
 2651SOL     OW 9726   2.765  11.623  11.884
 2651SOL    HW1 9727   2.763  11.712  11.847
 2651SOL    HW2 9728   2.842  11.621  11.940
 2652SOL     OW 9729  13.856  14.809  13.319
 2652SOL    HW1 9730  13.789  14.788  13.384
 2652SOL    HW2 9731  13.812  14.867  13.256
 2653SOL     OW 9732  12.062  13.704   6.126
 2653SOL    HW1 9733  12.156  13.688   6.118
 2653SOL    HW2 9734  12.021  13.638   6.070
 2654SOL     OW 9735   8.376   8.241   2.041
 2654SOL    HW1 9736   8.354   8.215   2.130
 2654SOL    HW2 9737   8.361   8.336   2.039
 2655SOL     OW 9738   4.381   0.966   1.637
 2655SOL    HW1 9739   4.419   0.963   1.725
 2655SOL    HW2 9740   4.457   0.965   1.579
 2656SOL     OW 9741   1.730   9.779   9.139
 2656SOL    HW1 9742   1.634   9.779   9.142
 2656SOL    HW2 9743   1.757   9.758   9.228
 2657SOL     OW 9744   5.067   4.232   1.503
 2657SOL    HW1 9745   5.073   4.182   1.422
 2657SOL    HW2 9746   5.076   4.166   1.572
 2658SOL     OW 9747   6.451   6.487   2.217
 2658SOL    HW1 9748   6.359   6.468   2.236
 2658SOL    HW2 9749   6.455   6.583   2.216
 2659SOL     OW 9750  13.150   0.246   6.005
 2659SOL    HW1 9751  13.117   0.322   5.956
 2659SOL    HW2 9752  13.224   0.280   6.056
 2660SOL     OW 9753   9.242  13.905  11.605
 2660SOL    HW1 9754   9.307  13.882  11.672
 2660SOL    HW2 9755   9.256  13.842  11.535
 2661SOL     OW 9756   3.979   6.114   3.762
 2661SOL    HW1 9757   3.979   6.201   3.803
 2661SOL    HW2 9758   4.068   6.082   3.775
 2662SOL     OW 9759   3.617   3.443   4.653
 2662SOL    HW1 9760   3.580   3.510   4.596
 2662SOL    HW2 9761   3.570   3.453   4.736
 2663SOL     OW 9762   9.599  10.974   4.443
 2663SOL    HW1 9763   9.525  11.034   4.455
 2663SOL    HW2 9764   9.568  10.891   4.479
 2664SOL     OW 9765   9.162  13.102   7.725
 2664SOL    HW1 9766   9.228  13.042   7.691
 2664SOL    HW2 9767   9.097  13.109   7.655
 2665SOL     OW 9768   5.599   8.410   1.372
 2665SOL    HW1 9769   5.509   8.379   1.369
 2665SOL    HW2 9770   5.598   8.494   1.326
 2666SOL     OW 9771  13.281   6.401  14.393
 2666SOL    HW1 9772  13.246   6.395  14.305
 2666SOL    HW2 9773  13.223   6.463  14.437
 2667SOL     OW 9774  12.276  14.055   8.708
 2667SOL    HW1 9775  12.340  14.084   8.643
 2667SOL    HW2 9776  12.327  14.042   8.788
 2668SOL     OW 9777  12.594  14.759   1.378
 2668SOL    HW1 9778  12.543  14.824   1.330
 2668SOL    HW2 9779  12.551  14.753   1.464
 2669SOL     OW 9780  12.839   8.288  13.420
 2669SOL    HW1 9781  12.760   8.235  13.430
 2669SOL    HW2 9782  12.863   8.280  13.328
 2670SOL     OW 9783   2.329   8.725  11.378
 2670SOL    HW1 9784   2.345   8.730  11.472
 2670SOL    HW2 9785   2.252   8.669  11.369
 2671SOL     OW 9786   6.751   0.235   3.720
 2671SOL    HW1 9787   6.686   0.210   3.654
 2671SOL    HW2 9788   6.824   0.271   3.669
 2672SOL     OW 9789   9.554   6.607   9.421
 2672SOL    HW1 9790   9.584   6.695   9.402
 2672SOL    HW2 9791   9.489   6.589   9.353
 2673SOL     OW 9792  13.517  14.125   1.526
 2673SOL    HW1 9793  13.441  14.068   1.537
 2673SOL    HW2 9794  13.591  14.065   1.518
 2674SOL     OW 9795  12.761   5.640   4.243
 2674SOL    HW1 9796  12.709   5.668   4.318
 2674SOL    HW2 9797  12.750   5.545   4.239
 2675SOL     OW 9798  14.153   5.594   9.805
 2675SOL    HW1 9799  14.128   5.592   9.712
 2675SOL    HW2 9800  14.249   5.596   9.803
 2676SOL     OW 9801   0.100   9.791   3.744
 2676SOL    HW1 9802   0.192   9.786   3.773
 2676SOL    HW2 9803   0.087   9.713   3.691
 2677SOL     OW 9804  11.202  10.005   3.382
 2677SOL    HW1 9805  11.262  10.079   3.392
 2677SOL    HW2 9806  11.168   9.990   3.470
 2678SOL     OW 9807  13.885   4.848   7.835
 2678SOL    HW1 9808  13.840   4.777   7.880
 2678SOL    HW2 9809  13.957   4.805   7.788
 2679SOL     OW 9810   4.143   7.278   0.703
 2679SOL    HW1 9811   4.196   7.357   0.687
 2679SOL    HW2 9812   4.187   7.234   0.776
 2680SOL     OW 9813   4.519  11.627  10.874
 2680SOL    HW1 9814   4.445  11.606  10.931
 2680SOL    HW2 9815   4.516  11.561  10.805
 2681SOL     OW 9816   3.512  14.158  10.386
 2681SOL    HW1 9817   3.450  14.088  10.402
 2681SOL    HW2 9818   3.519  14.163  10.291
 2682SOL     OW 9819   0.588   8.492  11.687
 2682SOL    HW1 9820   0.502   8.513  11.723
 2682SOL    HW2 9821   0.619   8.418  11.739
 2683SOL     OW 9822   4.866   1.264  14.576
 2683SOL    HW1 9823   4.830   1.351  14.590
 2683SOL    HW2 9824   4.878   1.258  14.481
 2684SOL     OW 9825   7.949  12.767   0.728
 2684SOL    HW1 9826   8.012  12.779   0.657
 2684SOL    HW2 9827   8.000  12.729   0.799
 2685SOL     OW 9828   7.973   8.646  14.032
 2685SOL    HW1 9829   8.050   8.701  14.019
 2685SOL    HW2 9830   7.968   8.593  13.953
 2686SOL     OW 9831  14.078  10.496  10.462
 2686SOL    HW1 9832  14.126  10.461  10.537
 2686SOL    HW2 9833  14.074  10.423  10.400
 2687SOL     OW 9834   9.901  10.037  14.675
 2687SOL    HW1 9835   9.936  10.122  14.647
 2687SOL    HW2 9836   9.924   9.977  14.604
 2688SOL     OW 9837   3.297  11.633  12.737
 2688SOL    HW1 9838   3.274  11.718  12.700
 2688SOL    HW2 9839   3.256  11.569  12.679
 2689SOL     OW 9840   0.318  10.145  10.356
 2689SOL    HW1 9841   0.247  10.124  10.416
 2689SOL    HW2 9842   0.392  10.168  10.413
 2690SOL     OW 9843   3.883   9.069   0.257
 2690SOL    HW1 9844   3.979   9.068   0.253
 2690SOL    HW2 9845   3.857   8.980   0.236
 2691SOL     OW 9846   4.486  12.161   9.934
 2691SOL    HW1 9847   4.461  12.069   9.921
 2691SOL    HW2 9848   4.569  12.169   9.887
 2692SOL     OW 9849   5.762   4.582   3.937
 2692SOL    HW1 9850   5.667   4.595   3.934
 2692SOL    HW2 9851   5.787   4.566   3.846
 2693SOL     OW 9852  14.517   6.149   8.160
 2693SOL    HW1 9853  14.511   6.243   8.173
 2693SOL    HW2 9854  14.445   6.113   8.211
 2694SOL     OW 9855   7.067  12.688   0.056
 2694SOL    HW1 9856   7.026  12.740  14.865
 2694SOL    HW2 9857   7.161  12.690   0.035
 2695SOL     OW 9858   1.639   4.130  10.477
 2695SOL    HW1 9859   1.715   4.082  10.511
 2695SOL    HW2 9860   1.564   4.076  10.503
 2696SOL     OW 9861   2.672   7.237   7.685
 2696SOL    HW1 9862   2.663   7.303   7.754
 2696SOL    HW2 9863   2.642   7.156   7.725
 2697SOL     OW 9864   4.723  14.016   9.290
 2697SOL    HW1 9865   4.738  14.055   9.376
 2697SOL    HW2 9866   4.743  14.086   9.227
 2698SOL     OW 9867   7.172   7.495   4.335
 2698SOL    HW1 9868   7.242   7.432   4.319
 2698SOL    HW2 9869   7.159   7.493   4.430
 2699SOL     OW 9870   8.907   8.307   2.988
 2699SOL    HW1 9871   8.929   8.260   3.068
 2699SOL    HW2 9872   8.815   8.330   2.997
 2700SOL     OW 9873   7.286  12.454   3.133
 2700SOL    HW1 9874   7.204  12.504   3.143
 2700SOL    HW2 9875   7.355  12.515   3.160
 2701SOL     OW 9876  10.379  14.228   8.606
 2701SOL    HW1 9877  10.373  14.247   8.513
 2701SOL    HW2 9878  10.368  14.133   8.612
 2702SOL     OW 9879  12.765   2.940   7.727
 2702SOL    HW1 9880  12.770   2.868   7.664
 2702SOL    HW2 9881  12.685   2.922   7.778
 2703SOL     OW 9882   8.476   6.827   3.570
 2703SOL    HW1 9883   8.412   6.897   3.554
 2703SOL    HW2 9884   8.437   6.774   3.639
 2704SOL     OW 9885  12.452   7.557   6.490
 2704SOL    HW1 9886  12.526   7.590   6.541
 2704SOL    HW2 9887  12.399   7.634   6.472
 2705SOL     OW 9888   7.189  11.508   2.581
 2705SOL    HW1 9889   7.269  11.558   2.598
 2705SOL    HW2 9890   7.181  11.449   2.656
 2706SOL     OW 9891   8.721   1.216   1.256
 2706SOL    HW1 9892   8.814   1.236   1.267
 2706SOL    HW2 9893   8.708   1.214   1.161
 2707SOL     OW 9894   6.400  13.964   0.850
 2707SOL    HW1 9895   6.327  13.939   0.906
 2707SOL    HW2 9896   6.387  14.058   0.834
 2708SOL     OW 9897   4.666   0.726   5.806
 2708SOL    HW1 9898   4.751   0.765   5.786
 2708SOL    HW2 9899   4.683   0.666   5.878
 2709SOL     OW 9900   9.749   5.532  12.042
 2709SOL    HW1 9901   9.693   5.469  12.088
 2709SOL    HW2 9902   9.696   5.560  11.967
 2710SOL     OW 9903   8.043   7.066   6.712
 2710SOL    HW1 9904   7.985   7.089   6.639
 2710SOL    HW2 9905   8.038   7.141   6.771
 2711SOL     OW 9906  12.483   7.333  12.718
 2711SOL    HW1 9907  12.476   7.364  12.628
 2711SOL    HW2 9908  12.442   7.247  12.717
 2712SOL     OW 9909   7.305  12.758   1.967
 2712SOL    HW1 9910   7.237  12.764   1.900
 2712SOL    HW2 9911   7.282  12.680   2.019
 2713SOL     OW 9912   8.206   4.244   7.141
 2713SOL    HW1 9913   8.112   4.257   7.132
 2713SOL    HW2 9914   8.215   4.162   7.190
 2714SOL     OW 9915   3.936   6.881   6.474
 2714SOL    HW1 9916   3.893   6.964   6.456
 2714SOL    HW2 9917   3.915   6.861   6.565
 2715SOL     OW 9918   8.843   9.677  11.445
 2715SOL    HW1 9919   8.754   9.650  11.419
 2715SOL    HW2 9920   8.837   9.690  11.539
 2716SOL     OW 9921  14.011  14.833   7.248
 2716SOL    HW1 9922  14.093  14.823   7.297
 2716SOL    HW2 9923  13.951  14.872   7.311
 2717SOL     OW 9924   5.266   2.681  14.568
 2717SOL    HW1 9925   5.222   2.632  14.499
 2717SOL    HW2 9926   5.355   2.696  14.534
 2718SOL     OW 9927   2.974  13.389   1.655
 2718SOL    HW1 9928   3.050  13.339   1.626
 2718SOL    HW2 9929   2.973  13.466   1.597
 2719SOL     OW 9930   2.466   2.793  14.549
 2719SOL    HW1 9931   2.558   2.769  14.553
 2719SOL    HW2 9932   2.465   2.877  14.502
 2720SOL     OW 9933   6.353  14.791  12.049
 2720SOL    HW1 9934   6.368  14.870  12.100
 2720SOL    HW2 9935   6.365  14.719  12.112
 2721SOL     OW 9936   0.561   0.779   4.069
 2721SOL    HW1 9937   0.652   0.784   4.097
 2721SOL    HW2 9938   0.526   0.702   4.113
 2722SOL     OW 9939   7.707   0.886   2.916
 2722SOL    HW1 9940   7.720   0.977   2.889
 2722SOL    HW2 9941   7.751   0.880   3.001
 2723SOL     OW 9942  14.654   0.218  12.697
 2723SOL    HW1 9943  14.684   0.309  12.688
 2723SOL    HW2 9944  14.561   0.227  12.720
 2724SOL     OW 9945   6.423  12.158   6.461
 2724SOL    HW1 9946   6.493  12.187   6.519
 2724SOL    HW2 9947   6.464  12.154   6.375
 2725SOL     OW 9948   6.518   8.465  10.811
 2725SOL    HW1 9949   6.538   8.543  10.760
 2725SOL    HW2 9950   6.492   8.499  10.897
 2726SOL     OW 9951  11.121  11.017   0.977
 2726SOL    HW1 9952  11.162  10.981   0.899
 2726SOL    HW2 9953  11.048  10.957   0.995
 2727SOL     OW 9954   6.985   6.052   6.480
 2727SOL    HW1 9955   7.051   5.986   6.499
 2727SOL    HW2 9956   6.913   6.004   6.440
 2728SOL     OW 9957   8.848   3.317   1.841
 2728SOL    HW1 9958   8.901   3.396   1.852
 2728SOL    HW2 9959   8.903   3.259   1.788
 2729SOL     OW 9960  13.590   1.487   6.728
 2729SOL    HW1 9961  13.535   1.409   6.730
 2729SOL    HW2 9962  13.679   1.455   6.741
 2730SOL     OW 9963   3.562   5.577  12.498
 2730SOL    HW1 9964   3.491   5.605  12.556
 2730SOL    HW2 9965   3.525   5.502  12.450
 2731SOL     OW 9966   5.205   6.161   7.503
 2731SOL    HW1 9967   5.278   6.140   7.561
 2731SOL    HW2 9968   5.236   6.139   7.416
 2732SOL     OW 9969   7.474  13.222   6.379
 2732SOL    HW1 9970   7.555  13.180   6.351
 2732SOL    HW2 9971   7.500  13.276   6.455
 2733SOL     OW 9972  14.865  13.479  12.973
 2733SOL    HW1 9973   0.029  13.553  13.016
 2733SOL    HW2 9974  14.823  13.429  13.043
 2734SOL     OW 9975  13.392   6.296   7.785
 2734SOL    HW1 9976  13.306   6.263   7.759
 2734SOL    HW2 9977  13.377   6.340   7.869
 2735SOL     OW 9978   0.649   4.482   1.291
 2735SOL    HW1 9979   0.561   4.495   1.256
 2735SOL    HW2 9980   0.683   4.406   1.245
 2736SOL     OW 9981   4.468  14.801   7.444
 2736SOL    HW1 9982   4.423  14.870   7.395
 2736SOL    HW2 9983   4.444  14.816   7.535
 2737SOL     OW 9984  13.109  13.657  11.982
 2737SOL    HW1 9985  13.151  13.581  12.024
 2737SOL    HW2 9986  13.121  13.728  12.044
 2738SOL     OW 9987  12.847   3.082  14.470
 2738SOL    HW1 9988  12.902   3.033  14.409
 2738SOL    HW2 9989  12.906   3.102  14.544
 2739SOL     OW 9990  14.048  10.952   1.834
 2739SOL    HW1 9991  14.098  11.032   1.818
 2739SOL    HW2 9992  14.050  10.904   1.751
 2740SOL     OW 9993   6.854   5.812   7.619
 2740SOL    HW1 9994   6.829   5.742   7.679
 2740SOL    HW2 9995   6.833   5.778   7.532
 2741SOL     OW 9996   1.251   1.261  11.236
 2741SOL    HW1 9997   1.317   1.299  11.294
 2741SOL    HW2 9998   1.250   1.319  11.159
 2742SOL     OW 9999  10.209  13.668   5.825
 2742SOL    HW110000  10.254  13.630   5.900
 2742SOL    HW210001  10.267  13.651   5.751
 2743SOL     OW10002   6.324   8.203  13.049
 2743SOL    HW110003   6.368   8.209  12.964
 2743SOL    HW210004   6.231   8.198  13.028
 2744SOL     OW10005   0.193   1.916   6.412
 2744SOL    HW110006   0.174   1.967   6.334
 2744SOL    HW210007   0.206   1.826   6.380
 2745SOL     OW10008  12.857  11.576   1.184
 2745SOL    HW110009  12.827  11.560   1.095
 2745SOL    HW210010  12.899  11.662   1.180
 2746SOL     OW10011   3.087  11.548   4.721
 2746SOL    HW110012   3.043  11.566   4.638
 2746SOL    HW210013   3.166  11.603   4.719
 2747SOL     OW10014   5.771   5.228  14.372
 2747SOL    HW110015   5.733   5.141  14.382
 2747SOL    HW210016   5.797   5.253  14.460
 2748SOL     OW10017   0.564  10.184   7.344
 2748SOL    HW110018   0.626  10.129   7.295
 2748SOL    HW210019   0.537  10.128   7.417
 2749SOL     OW10020   6.858   8.122  10.386
 2749SOL    HW110021   6.932   8.169  10.347
 2749SOL    HW210022   6.895   8.036  10.409
 2750SOL     OW10023  14.833   8.823  12.806
 2750SOL    HW110024  14.815   8.850  12.716
 2750SOL    HW210025  14.757   8.853  12.856
 2751SOL     OW10026   8.019  14.829  10.902
 2751SOL    HW110027   8.031  14.838  10.808
 2751SOL    HW210028   8.017  14.735  10.918
 2752SOL     OW10029  10.618   3.555   2.718
 2752SOL    HW110030  10.536   3.539   2.765
 2752SOL    HW210031  10.634   3.649   2.729
 2753SOL     OW10032   4.702  11.554   6.094
 2753SOL    HW110033   4.668  11.623   6.037
 2753SOL    HW210034   4.647  11.559   6.173
 2754SOL     OW10035   5.295   5.616   7.510
 2754SOL    HW110036   5.234   5.690   7.511
 2754SOL    HW210037   5.327   5.612   7.420
 2755SOL     OW10038   6.395   8.474   9.553
 2755SOL    HW110039   6.485   8.501   9.572
 2755SOL    HW210040   6.402   8.383   9.526
 2756SOL     OW10041  10.942  12.397  12.151
 2756SOL    HW110042  11.028  12.365  12.178
 2756SOL    HW210043  10.888  12.389  12.229
 2757SOL     OW10044  12.243   1.768   4.127
 2757SOL    HW110045  12.277   1.856   4.144
 2757SOL    HW210046  12.169   1.758   4.187
 2758SOL     OW10047  13.596  11.418  12.885
 2758SOL    HW110048  13.621  11.462  12.803
 2758SOL    HW210049  13.503  11.438  12.895
 2759SOL     OW10050  10.875  10.366   8.799
 2759SOL    HW110051  10.781  10.365   8.786
 2759SOL    HW210052  10.887  10.394   8.890
 2760SOL     OW10053   2.586   7.808  11.949
 2760SOL    HW110054   2.559   7.872  12.015
 2760SOL    HW210055   2.539   7.834  11.870
 2761SOL     OW10056   3.438   6.223   2.865
 2761SOL    HW110057   3.512   6.189   2.915
 2761SOL    HW210058   3.361   6.186   2.908
 2762SOL     OW10059   9.143   8.389  10.903
 2762SOL    HW110060   9.090   8.328  10.954
 2762SOL    HW210061   9.213   8.335  10.866
 2763SOL     OW10062   6.350   9.409  11.344
 2763SOL    HW110063   6.264   9.400  11.385
 2763SOL    HW210064   6.367   9.324  11.303
 2764SOL     OW10065  12.509   1.200   7.479
 2764SOL    HW110066  12.600   1.200   7.447
 2764SOL    HW210067  12.501   1.281   7.529
 2765SOL     OW10068  10.241   9.312   7.992
 2765SOL    HW110069  10.178   9.254   8.036
 2765SOL    HW210070  10.197   9.397   7.990
 2766SOL     OW10071  14.576   6.770  11.381
 2766SOL    HW110072  14.535   6.719  11.451
 2766SOL    HW210073  14.546   6.728  11.300
 2767SOL     OW10074  11.689   6.911   7.107
 2767SOL    HW110075  11.631   6.985   7.089
 2767SOL    HW210076  11.724   6.930   7.194
 2768SOL     OW10077   4.991   6.588   5.875
 2768SOL    HW110078   4.903   6.568   5.907
 2768SOL    HW210079   4.992   6.553   5.786
 2769SOL     OW10080  10.224   5.681   9.056
 2769SOL    HW110081  10.255   5.720   8.974
 2769SOL    HW210082  10.270   5.729   9.125
 2770SOL     OW10083   7.804  13.313  11.740
 2770SOL    HW110084   7.814  13.402  11.706
 2770SOL    HW210085   7.714  13.310  11.772
 2771SOL     OW10086  12.456   7.071   7.808
 2771SOL    HW110087  12.455   7.078   7.712
 2771SOL    HW210088  12.460   6.976   7.825
 2772SOL     OW10089  13.015  14.417   5.278
 2772SOL    HW110090  13.082  14.485   5.271
 2772SOL    HW210091  12.970  14.419   5.194
 2773SOL     OW10092   9.763   9.544   0.299
 2773SOL    HW110093   9.779   9.450   0.310
 2773SOL    HW210094   9.769   9.580   0.387
 2774SOL     OW10095  14.376  14.284   6.667
 2774SOL    HW110096  14.358  14.351   6.733
 2774SOL    HW210097  14.291  14.268   6.625
 2775SOL     OW10098  13.394   6.586   2.877
 2775SOL    HW110099  13.429   6.614   2.962
 2775SOL    HW210100  13.393   6.490   2.882
 2776SOL     OW10101  11.584  11.946  11.879
 2776SOL    HW110102  11.615  12.035  11.863
 2776SOL    HW210103  11.490  11.957  11.896
 2777SOL     OW10104   2.096  14.522   8.288
 2777SOL    HW110105   2.071  14.548   8.377
 2777SOL    HW210106   2.018  14.481   8.251
 2778SOL     OW10107   4.096   5.672   2.805
 2778SOL    HW110108   4.050   5.601   2.761
 2778SOL    HW210109   4.044   5.750   2.785
 2779SOL     OW10110  13.942   1.481   3.916
 2779SOL    HW110111  13.973   1.391   3.920
 2779SOL    HW210112  13.964   1.510   3.827
 2780SOL     OW10113   8.522   7.157   8.989
 2780SOL    HW110114   8.550   7.192   8.905
 2780SOL    HW210115   8.587   7.189   9.052
 2781SOL     OW10116  14.054  11.966   8.637
 2781SOL    HW110117  14.057  12.037   8.700
 2781SOL    HW210118  14.127  11.984   8.578
 2782SOL     OW10119  13.874   1.544   2.936
 2782SOL    HW110120  13.887   1.533   2.842
 2782SOL    HW210121  13.957   1.580   2.968
 2783SOL     OW10122  12.855   5.212   0.342
 2783SOL    HW110123  12.880   5.124   0.314
 2783SOL    HW210124  12.931   5.244   0.392
 2784SOL     OW10125   3.861  11.092   6.214
 2784SOL    HW110126   3.876  11.164   6.275
 2784SOL    HW210127   3.935  11.033   6.228
 2785SOL     OW10128  10.974  12.320  10.448
 2785SOL    HW110129  11.053  12.318  10.501
 2785SOL    HW210130  10.966  12.231  10.413
 2786SOL     OW10131   8.436  12.799  10.192
 2786SOL    HW110132   8.375  12.871  10.206
 2786SOL    HW210133   8.440  12.754  10.276
 2787SOL     OW10134  12.378   1.579   2.062
 2787SOL    HW110135  12.414   1.535   2.140
 2787SOL    HW210136  12.308   1.634   2.096
 2788SOL     OW10137   3.525   7.885   3.538
 2788SOL    HW110138   3.516   7.949   3.608
 2788SOL    HW210139   3.564   7.933   3.466
 2789SOL     OW10140   4.535   8.637   5.303
 2789SOL    HW110141   4.534   8.733   5.303
 2789SOL    HW210142   4.470   8.613   5.237
 2790SOL     OW10143   1.635   3.304  10.066
 2790SOL    HW110144   1.656   3.219  10.029
 2790SOL    HW210145   1.638   3.291  10.161
 2791SOL     OW10146   6.750  12.937   1.670
 2791SOL    HW110147   6.788  12.855   1.702
 2791SOL    HW210148   6.658  12.933   1.696
 2792SOL     OW10149   2.933  14.511   8.115
 2792SOL    HW110150   3.025  14.532   8.132
 2792SOL    HW210151   2.936  14.432   8.061
 2793SOL     OW10152   5.400   3.677   6.206
 2793SOL    HW110153   5.316   3.685   6.250
 2793SOL    HW210154   5.399   3.745   6.138
 2794SOL     OW10155  14.846   4.092   0.932
 2794SOL    HW110156  14.818   4.167   0.879
 2794SOL    HW210157  14.811   4.016   0.886
 2795SOL     OW10158  14.517   8.540   1.791
 2795SOL    HW110159  14.500   8.481   1.864
 2795SOL    HW210160  14.430   8.558   1.754
 2796SOL     OW10161  12.204  11.629  10.695
 2796SOL    HW110162  12.199  11.537  10.723
 2796SOL    HW210163  12.168  11.679  10.768
 2797SOL     OW10164  13.239   4.782  10.914
 2797SOL    HW110165  13.243   4.786  11.009
 2797SOL    HW210166  13.225   4.873  10.886
 2798SOL     OW10167   6.159   0.100  14.079
 2798SOL    HW110168   6.121   0.187  14.087
 2798SOL    HW210169   6.248   0.114  14.047
 2799SOL     OW10170   4.067  14.226  14.349
 2799SOL    HW110171   4.076  14.289  14.421
 2799SOL    HW210172   4.034  14.146  14.391
 2800SOL     OW10173  13.233  11.865   0.605
 2800SOL    HW110174  13.228  11.774   0.634
 2800SOL    HW210175  13.314  11.898   0.645
 2801SOL     OW10176   1.650  10.979  10.139
 2801SOL    HW110177   1.711  11.051  10.156
 2801SOL    HW210178   1.567  11.009  10.178
 2802SOL     OW10179   0.188  10.336   6.564
 2802SOL    HW110180   0.278  10.357   6.537
 2802SOL    HW210181   0.135  10.353   6.486
 2803SOL     OW10182   0.337   5.050   3.471
 2803SOL    HW110183   0.253   5.073   3.430
 2803SOL    HW210184   0.330   4.956   3.488
 2804SOL     OW10185   2.109   3.516   8.974
 2804SOL    HW110186   2.083   3.531   9.065
 2804SOL    HW210187   2.034   3.547   8.923
 2805SOL     OW10188  14.523  14.503   9.705
 2805SOL    HW110189  14.585  14.563   9.664
 2805SOL    HW210190  14.495  14.444   9.634
 2806SOL     OW10191   8.391   5.826   5.740
 2806SOL    HW110192   8.453   5.755   5.726
 2806SOL    HW210193   8.446   5.904   5.749
 2807SOL     OW10194   1.994   0.182   1.662
 2807SOL    HW110195   2.043   0.168   1.742
 2807SOL    HW210196   1.965   0.094   1.636
 2808SOL     OW10197  10.887   5.788   7.407
 2808SOL    HW110198  10.797   5.792   7.441
 2808SOL    HW210199  10.902   5.694   7.392
 2809SOL     OW10200   1.545  14.735   3.504
 2809SOL    HW110201   1.565  14.818   3.461
 2809SOL    HW210202   1.449  14.733   3.508
 2810SOL     OW10203  10.895   6.912   2.132
 2810SOL    HW110204  10.988   6.930   2.117
 2810SOL    HW210205  10.862   6.882   2.048
 2811SOL     OW10206   0.153   5.798   7.068
 2811SOL    HW110207   0.232   5.825   7.022
 2811SOL    HW210208   0.082   5.845   7.023
 2812SOL     OW10209  14.644  11.168   4.267
 2812SOL    HW110210  14.653  11.244   4.209
 2812SOL    HW210211  14.682  11.196   4.350
 2813SOL     OW10212   3.105  13.428   8.586
 2813SOL    HW110213   3.039  13.477   8.537
 2813SOL    HW210214   3.060  13.348   8.615
 2814SOL     OW10215   5.673   8.955   4.257
 2814SOL    HW110216   5.601   8.931   4.315
 2814SOL    HW210217   5.746   8.975   4.317
 2815SOL     OW10218  14.770   2.581   4.710
 2815SOL    HW110219  14.680   2.548   4.705
 2815SOL    HW210220  14.770   2.639   4.786
 2816SOL     OW10221   0.035  10.323   8.927
 2816SOL    HW110222   0.021  10.413   8.956
 2816SOL    HW210223   0.121  10.324   8.885
 2817SOL     OW10224  14.056  14.146   1.350
 2817SOL    HW110225  14.130  14.180   1.401
 2817SOL    HW210226  14.032  14.065   1.394
 2818SOL     OW10227   9.655   2.458  11.434
 2818SOL    HW110228   9.632   2.531  11.491
 2818SOL    HW210229   9.700   2.499  11.360
 2819SOL     OW10230   1.717   4.895   6.906
 2819SOL    HW110231   1.762   4.940   6.834
 2819SOL    HW210232   1.669   4.824   6.863
 2820SOL     OW10233   6.118  13.665  14.785
 2820SOL    HW110234   6.155  13.650  14.699
 2820SOL    HW210235   6.036  13.712  14.769
 2821SOL     OW10236  11.058   1.239  12.927
 2821SOL    HW110237  10.980   1.293  12.944
 2821SOL    HW210238  11.029   1.173  12.864
 2822SOL     OW10239   1.875   2.286  12.812
 2822SOL    HW110240   1.812   2.306  12.743
 2822SOL    HW210241   1.913   2.202  12.785
 2823SOL     OW10242   3.678   1.021  10.833
 2823SOL    HW110243   3.692   1.091  10.897
 2823SOL    HW210244   3.764   0.982  10.820
 2824SOL     OW10245  10.961   8.429   6.128
 2824SOL    HW110246  11.056   8.432   6.115
 2824SOL    HW210247  10.932   8.353   6.077
 2825SOL     OW10248   4.832   0.804  11.132
 2825SOL    HW110249   4.823   0.718  11.090
 2825SOL    HW210250   4.793   0.792  11.218
 2826SOL     OW10251   0.956  14.619  11.363
 2826SOL    HW110252   0.950  14.665  11.279
 2826SOL    HW210253   1.047  14.591  11.369
 2827SOL     OW10254   7.204   8.663  10.622
 2827SOL    HW110255   7.169   8.607  10.692
 2827SOL    HW210256   7.230   8.744  10.666
 2828SOL     OW10257   6.440   8.925  13.698
 2828SOL    HW110258   6.427   8.949  13.790
 2828SOL    HW210259   6.352   8.929  13.660
 2829SOL     OW10260   0.541   9.977   7.795
 2829SOL    HW110261   0.601   9.944   7.728
 2829SOL    HW210262   0.597  10.022   7.858
 2830SOL     OW10263   9.367  10.970   2.448
 2830SOL    HW110264   9.351  10.876   2.437
 2830SOL    HW210265   9.430  10.975   2.519
 2831SOL     OW10266   3.036  14.710  13.923
 2831SOL    HW110267   2.959  14.684  13.973
 2831SOL    HW210268   3.080  14.628  13.900
 2832SOL     OW10269   6.071  13.429  10.658
 2832SOL    HW110270   6.015  13.372  10.604
 2832SOL    HW210271   6.099  13.372  10.730
 2833SOL     OW10272   2.349   5.276  11.266
 2833SOL    HW110273   2.384   5.203  11.317
 2833SOL    HW210274   2.263   5.246  11.237
 2834SOL     OW10275   0.532   4.917  11.427
 2834SOL    HW110276   0.541   4.840  11.370
 2834SOL    HW210277   0.503   4.881  11.511
 2835SOL     OW10278  11.022   2.354   7.682
 2835SOL    HW110279  11.029   2.433   7.629
 2835SOL    HW210280  10.954   2.302   7.639
 2836SOL     OW10281   8.046   6.479   0.775
 2836SOL    HW110282   7.970   6.503   0.723
 2836SOL    HW210283   8.048   6.384   0.774
 2837SOL     OW10284   6.624   2.913  10.860
 2837SOL    HW110285   6.580   2.913  10.775
 2837SOL    HW210286   6.561   2.952  10.920
 2838SOL     OW10287  11.952   0.416  10.243
 2838SOL    HW110288  11.895   0.454  10.310
 2838SOL    HW210289  12.040   0.422  10.280
 2839SOL     OW10290  11.362   3.007   8.830
 2839SOL    HW110291  11.339   3.060   8.753
 2839SOL    HW210292  11.285   2.953   8.845
 2840SOL     OW10293   3.468   6.976   1.781
 2840SOL    HW110294   3.397   6.993   1.843
 2840SOL    HW210295   3.547   7.005   1.827
 2841SOL     OW10296  10.735   1.975   8.793
 2841SOL    HW110297  10.665   1.973   8.728
 2841SOL    HW210298  10.794   1.903   8.767
 2842SOL     OW10299  14.275  13.380  10.902
 2842SOL    HW110300  14.287  13.471  10.874
 2842SOL    HW210301  14.189  13.355  10.869
 2843SOL     OW10302   4.208  14.056   1.942
 2843SOL    HW110303   4.257  13.976   1.922
 2843SOL    HW210304   4.251  14.091   2.020
 2844SOL     OW10305   5.588  12.115   7.110
 2844SOL    HW110306   5.632  12.200   7.104
 2844SOL    HW210307   5.548  12.103   7.024
 2845SOL     OW10308   4.961   1.602   9.272
 2845SOL    HW110309   4.972   1.565   9.185
 2845SOL    HW210310   4.995   1.691   9.265
 2846SOL     OW10311   9.490  12.385   1.403
 2846SOL    HW110312   9.432  12.433   1.343
 2846SOL    HW210313   9.530  12.318   1.349
 2847SOL     OW10314   7.332   5.867  10.643
 2847SOL    HW110315   7.373   5.867  10.730
 2847SOL    HW210316   7.396   5.911  10.587
 2848SOL     OW10317   8.264   2.844   8.265
 2848SOL    HW110318   8.177   2.836   8.227
 2848SOL    HW210319   8.324   2.840   8.190
 2849SOL     OW10320   0.631  14.793   4.223
 2849SOL    HW110321   0.664  14.869   4.271
 2849SOL    HW210322   0.609  14.827   4.136
 2850SOL     OW10323  11.670   6.518   5.741
 2850SOL    HW110324  11.575   6.523   5.755
 2850SOL    HW210325  11.684   6.560   5.656
 2851SOL     OW10326   2.632  14.824  11.722
 2851SOL    HW110327   2.725  14.805  11.732
 2851SOL    HW210328   2.593  14.741  11.696
 2852SOL     OW10329  13.513  10.105   2.554
 2852SOL    HW110330  13.448  10.166   2.590
 2852SOL    HW210331  13.466  10.061   2.483
 2853SOL     OW10332   6.284   5.182   8.872
 2853SOL    HW110333   6.331   5.191   8.789
 2853SOL    HW210334   6.242   5.097   8.867
 2854SOL     OW10335   6.005  10.317   5.573
 2854SOL    HW110336   5.988  10.389   5.513
 2854SOL    HW210337   6.095  10.291   5.555
 2855SOL     OW10338  11.037   5.762   3.403
 2855SOL    HW110339  10.978   5.831   3.372
 2855SOL    HW210340  11.038   5.772   3.498
 2856SOL     OW10341  10.796   3.660  13.870
 2856SOL    HW110342  10.702   3.668  13.889
 2856SOL    HW210343  10.835   3.636  13.954
 2857SOL     OW10344   5.716   4.538  13.516
 2857SOL    HW110345   5.797   4.584  13.491
 2857SOL    HW210346   5.691   4.577  13.599
 2858SOL     OW10347  10.794  11.591  13.797
 2858SOL    HW110348  10.791  11.591  13.701
 2858SOL    HW210349  10.727  11.654  13.823
 2859SOL     OW10350  11.592   0.198   6.980
 2859SOL    HW110351  11.655   0.127   6.993
 2859SOL    HW210352  11.604   0.224   6.889
 2860SOL     OW10353   0.650   4.848   4.928
 2860SOL    HW110354   0.555   4.840   4.917
 2860SOL    HW210355   0.684   4.850   4.838
 2861SOL     OW10356   3.736   8.845   0.477
 2861SOL    HW110357   3.737   8.928   0.525
 2861SOL    HW210358   3.813   8.799   0.508
 2862SOL     OW10359   8.681   5.460   9.046
 2862SOL    HW110360   8.748   5.396   9.071
 2862SOL    HW210361   8.728   5.543   9.044
 2863SOL     OW10362   8.442   3.279  13.871
 2863SOL    HW110363   8.385   3.207  13.847
 2863SOL    HW210364   8.442   3.337  13.795
 2864SOL     OW10365  10.561   0.577   8.043
 2864SOL    HW110366  10.500   0.639   8.085
 2864SOL    HW210367  10.648   0.613   8.061
 2865SOL     OW10368   6.204   5.750  10.408
 2865SOL    HW110369   6.253   5.817  10.455
 2865SOL    HW210370   6.125   5.737  10.460
 2866SOL     OW10371   6.061  10.663   9.529
 2866SOL    HW110372   6.036  10.587   9.581
 2866SOL    HW210373   6.137  10.699   9.575
 2867SOL     OW10374   5.181   5.892  11.490
 2867SOL    HW110375   5.237   5.908  11.567
 2867SOL    HW210376   5.143   5.977  11.470
 2868SOL     OW10377   6.262   4.786  12.371
 2868SOL    HW110378   6.185   4.821  12.325
 2868SOL    HW210379   6.330   4.786  12.304
 2869SOL     OW10380   9.778   8.697   3.333
 2869SOL    HW110381   9.752   8.623   3.278
 2869SOL    HW210382   9.870   8.680   3.354
 2870SOL     OW10383   0.010   5.879   4.336
 2870SOL    HW110384  14.823   5.820   4.297
 2870SOL    HW210385   0.052   5.826   4.404
 2871SOL     OW10386   5.055   9.251   2.181
 2871SOL    HW110387   5.058   9.185   2.250
 2871SOL    HW210388   5.121   9.223   2.118
 2872SOL     OW10389  11.796  14.801  12.731
 2872SOL    HW110390  11.871  14.782  12.674
 2872SOL    HW210391  11.719  14.775  12.680
 2873SOL     OW10392   3.335   7.553   5.499
 2873SOL    HW110393   3.418   7.599   5.484
 2873SOL    HW210394   3.268   7.615   5.470
 2874SOL     OW10395   9.109  10.735   0.488
 2874SOL    HW110396   9.101  10.701   0.577
 2874SOL    HW210397   9.066  10.820   0.491
 2875SOL     OW10398  12.938   1.511   0.317
 2875SOL    HW110399  13.000   1.542   0.252
 2875SOL    HW210400  12.852   1.520   0.275
 2876SOL     OW10401   7.510   9.772   7.400
 2876SOL    HW110402   7.512   9.711   7.474
 2876SOL    HW210403   7.430   9.823   7.413
 2877SOL     OW10404   2.204  10.041   5.041
 2877SOL    HW110405   2.114  10.068   5.024
 2877SOL    HW210406   2.242  10.114   5.089
 2878SOL     OW10407  13.733   7.585   6.402
 2878SOL    HW110408  13.815   7.567   6.357
 2878SOL    HW210409  13.689   7.500   6.405
 2879SOL     OW10410   0.816  11.634   5.454
 2879SOL    HW110411   0.874  11.710   5.460
 2879SOL    HW210412   0.805  11.619   5.360
 2880SOL     OW10413   6.393  13.297  11.343
 2880SOL    HW110414   6.426  13.209  11.327
 2880SOL    HW210415   6.454  13.336  11.406
 2881SOL     OW10416   5.955   6.825   8.048
 2881SOL    HW110417   6.028   6.847   7.991
 2881SOL    HW210418   5.996   6.788   8.127
 2882SOL     OW10419  13.004  14.205   7.511
 2882SOL    HW110420  13.013  14.111   7.498
 2882SOL    HW210421  12.972  14.214   7.601
 2883SOL     OW10422   1.470  13.632  14.719
 2883SOL    HW110423   1.440  13.664  14.634
 2883SOL    HW210424   1.551  13.585  14.699
 2884SOL     OW10425   5.860  11.632   2.582
 2884SOL    HW110426   5.925  11.700   2.599
 2884SOL    HW210427   5.852  11.628   2.487
 2885SOL     OW10428  14.712   1.083   6.856
 2885SOL    HW110429  14.643   1.148   6.851
 2885SOL    HW210430  14.696   1.024   6.783
 2886SOL     OW10431   2.577   2.561   7.398
 2886SOL    HW110432   2.548   2.616   7.470
 2886SOL    HW210433   2.571   2.472   7.431
 2887SOL     OW10434   8.614   8.790   9.852
 2887SOL    HW110435   8.615   8.746   9.767
 2887SOL    HW210436   8.662   8.732   9.910
 2888SOL     OW10437   7.555   2.327   2.273
 2888SOL    HW110438   7.480   2.272   2.299
 2888SOL    HW210439   7.532   2.414   2.303
 2889SOL     OW10440   8.077   5.954   0.750
 2889SOL    HW110441   8.012   5.905   0.801
 2889SOL    HW210442   8.084   5.906   0.668
 2890SOL     OW10443   7.310  12.849  10.826
 2890SOL    HW110444   7.346  12.845  10.738
 2890SOL    HW210445   7.216  12.837  10.815
 2891SOL     OW10446   3.019  13.279   5.957
 2891SOL    HW110447   2.992  13.215   5.891
 2891SOL    HW210448   3.114  13.287   5.945
 2892SOL     OW10449  10.487   6.953   5.054
 2892SOL    HW110450  10.441   7.023   5.100
 2892SOL    HW210451  10.421   6.915   4.996
 2893SOL     OW10452  13.524   9.740   8.409
 2893SOL    HW110453  13.598   9.794   8.380
 2893SOL    HW210454  13.545   9.652   8.379
 2894SOL     OW10455   9.417  13.061   6.519
 2894SOL    HW110456   9.394  12.978   6.561
 2894SOL    HW210457   9.451  13.037   6.434
 2895SOL     OW10458   5.059   8.682   9.161
 2895SOL    HW110459   5.032   8.774   9.163
 2895SOL    HW210460   5.123   8.675   9.232
 2896SOL     OW10461   3.351   1.522   6.573
 2896SOL    HW110462   3.355   1.528   6.477
 2896SOL    HW210463   3.280   1.461   6.590
 2897SOL     OW10464   3.535  11.804  13.455
 2897SOL    HW110465   3.511  11.713  13.438
 2897SOL    HW210466   3.597  11.825  13.385
 2898SOL     OW10467  13.847   7.090   4.140
 2898SOL    HW110468  13.840   7.074   4.234
 2898SOL    HW210469  13.874   7.182   4.133
 2899SOL     OW10470   1.141   6.992  11.865
 2899SOL    HW110471   1.144   7.078  11.822
 2899SOL    HW210472   1.209   6.996  11.932
 2900SOL     OW10473  12.236   4.698  12.496
 2900SOL    HW110474  12.257   4.668  12.408
 2900SOL    HW210475  12.142   4.714  12.495
 2901SOL     OW10476   0.313  14.053   8.136
 2901SOL    HW110477   0.242  14.107   8.170
 2901SOL    HW210478   0.393  14.101   8.160
 2902SOL     OW10479  14.557  14.111   6.367
 2902SOL    HW110480  14.627  14.147   6.312
 2902SOL    HW210481  14.591  14.117   6.456
 2903SOL     OW10482   1.409  11.472   2.605
 2903SOL    HW110483   1.473  11.401   2.593
 2903SOL    HW210484   1.431  11.510   2.689
 2904SOL     OW10485  13.175   7.895   7.220
 2904SOL    HW110486  13.228   7.928   7.147
 2904SOL    HW210487  13.238   7.884   7.291
 2905SOL     OW10488  11.765   4.213   2.149
 2905SOL    HW110489  11.776   4.120   2.132
 2905SOL    HW210490  11.730   4.249   2.068
 2906SOL     OW10491   4.489   3.097   8.097
 2906SOL    HW110492   4.557   3.152   8.057
 2906SOL    HW210493   4.457   3.043   8.026
 2907SOL     OW10494  12.528  12.326   0.884
 2907SOL    HW110495  12.594  12.257   0.875
 2907SOL    HW210496  12.557  12.376   0.961
 2908SOL     OW10497   5.529   6.811   4.477
 2908SOL    HW110498   5.585   6.888   4.466
 2908SOL    HW210499   5.440   6.845   4.465
 2909SOL     OW10500   7.850   6.598   8.795
 2909SOL    HW110501   7.837   6.670   8.856
 2909SOL    HW210502   7.797   6.621   8.719
 2910SOL     OW10503   6.426   9.848   5.760
 2910SOL    HW110504   6.341   9.855   5.717
 2910SOL    HW210505   6.418   9.901   5.839
 2911SOL     OW10506   2.294   9.796  11.498
 2911SOL    HW110507   2.345   9.876  11.490
 2911SOL    HW210508   2.311   9.748  11.418
 2912SOL     OW10509   6.196   2.179  11.395
 2912SOL    HW110510   6.125   2.131  11.353
 2912SOL    HW210511   6.185   2.269  11.364
 2913SOL     OW10512   6.839  10.869   1.810
 2913SOL    HW110513   6.799  10.925   1.744
 2913SOL    HW210514   6.812  10.780   1.786
 2914SOL     OW10515   3.102   1.614   0.547
 2914SOL    HW110516   3.151   1.693   0.568
 2914SOL    HW210517   3.091   1.617   0.452
 2915SOL     OW10518   0.574   0.402   9.138
 2915SOL    HW110519   0.517   0.342   9.088
 2915SOL    HW210520   0.649   0.417   9.080
 2916SOL     OW10521  12.011   6.326   4.745
 2916SOL    HW110522  11.961   6.407   4.739
 2916SOL    HW210523  12.087   6.340   4.688
 2917SOL     OW10524  10.826  10.225   0.403
 2917SOL    HW110525  10.875  10.234   0.322
 2917SOL    HW210526  10.888  10.252   0.471
 2918SOL     OW10527   6.913   2.452  11.838
 2918SOL    HW110528   6.935   2.458  11.931
 2918SOL    HW210529   6.819   2.436  11.836
 2919SOL     OW10530   9.243   2.848   5.338
 2919SOL    HW110531   9.312   2.877   5.398
 2919SOL    HW210532   9.269   2.882   5.253
 2920SOL     OW10533  14.667   3.598  11.612
 2920SOL    HW110534  14.618   3.666  11.658
 2920SOL    HW210535  14.647   3.518  11.660
 2921SOL     OW10536  14.874   0.714   6.763
 2921SOL    HW110537  14.847   0.628   6.794
 2921SOL    HW210538   0.060   0.744   6.828
 2922SOL     OW10539   2.534   8.219   8.051
 2922SOL    HW110540   2.569   8.139   8.089
 2922SOL    HW210541   2.519   8.276   8.127
 2923SOL     OW10542   6.715   8.941   8.488
 2923SOL    HW110543   6.743   8.897   8.408
 2923SOL    HW210544   6.686   9.027   8.459
 2924SOL     OW10545   4.244   1.442  14.217
 2924SOL    HW110546   4.213   1.389  14.290
 2924SOL    HW210547   4.165   1.460  14.165
 2925SOL     OW10548   3.173   0.538   1.901
 2925SOL    HW110549   3.113   0.612   1.901
 2925SOL    HW210550   3.117   0.461   1.911
 2926SOL     OW10551  12.668  12.788   5.396
 2926SOL    HW110552  12.601  12.856   5.388
 2926SOL    HW210553  12.741  12.833   5.439
 2927SOL     OW10554  10.565   4.380   1.997
 2927SOL    HW110555  10.610   4.453   1.955
 2927SOL    HW210556  10.601   4.377   2.086
 2928SOL     OW10557   3.213   5.934   7.168
 2928SOL    HW110558   3.204   6.021   7.129
 2928SOL    HW210559   3.131   5.921   7.216
 2929SOL     OW10560   5.483   2.928   1.392
 2929SOL    HW110561   5.411   2.885   1.438
 2929SOL    HW210562   5.529   2.978   1.460
 2930SOL     OW10563   0.315  13.286  14.255
 2930SOL    HW110564   0.269  13.229  14.193
 2930SOL    HW210565   0.401  13.300  14.215
 2931SOL     OW10566   2.432   2.161  13.121
 2931SOL    HW110567   2.424   2.089  13.183
 2931SOL    HW210568   2.461   2.120  13.039
 2932SOL     OW10569   7.928   4.075   8.197
 2932SOL    HW110570   8.011   4.057   8.241
 2932SOL    HW210571   7.909   4.166   8.217
 2933SOL     OW10572   0.596   5.168  13.858
 2933SOL    HW110573   0.595   5.231  13.931
 2933SOL    HW210574   0.677   5.189  13.810
 2934SOL     OW10575  14.811   7.776   2.359
 2934SOL    HW110576  14.846   7.782   2.448
 2934SOL    HW210577  14.862   7.838   2.308
 2935SOL     OW10578   7.073   4.426  14.769
 2935SOL    HW110579   7.074   4.356  14.705
 2935SOL    HW210580   6.985   4.424  14.806
 2936SOL     OW10581   4.732  11.453  13.451
 2936SOL    HW110582   4.669  11.504  13.501
 2936SOL    HW210583   4.759  11.383  13.511
 2937SOL     OW10584   9.648   8.882   0.963
 2937SOL    HW110585   9.695   8.800   0.981
 2937SOL    HW210586   9.665   8.937   1.039
 2938SOL     OW10587   4.199   9.984  12.918
 2938SOL    HW110588   4.132   9.925  12.952
 2938SOL    HW210589   4.218  10.043  12.992
 2939SOL     OW10590  10.153   6.787  11.812
 2939SOL    HW110591  10.204   6.709  11.788
 2939SOL    HW210592  10.086   6.755  11.871
 2940SOL     OW10593   6.844   2.647  12.548
 2940SOL    HW110594   6.832   2.552  12.557
 2940SOL    HW210595   6.785   2.685  12.613
 2941SOL     OW10596   0.055   7.519  10.000
 2941SOL    HW110597  14.862   7.546   9.940
 2941SOL    HW210598   0.079   7.431   9.971
 2942SOL     OW10599   2.017   5.967   8.718
 2942SOL    HW110600   2.100   5.941   8.756
 2942SOL    HW210601   1.968   6.007   8.790
 2943SOL     OW10602   7.083   2.037   8.759
 2943SOL    HW110603   7.067   1.965   8.698
 2943SOL    HW210604   7.044   2.008   8.841
 2944SOL     OW10605  13.497   6.765  12.960
 2944SOL    HW110606  13.545   6.759  13.043
 2944SOL    HW210607  13.538   6.699  12.904
 2945SOL     OW10608  14.605   4.399   6.926
 2945SOL    HW110609  14.514   4.417   6.904
 2945SOL    HW210610  14.635   4.476   6.973
 2946SOL     OW10611   8.189  12.141  13.080
 2946SOL    HW110612   8.149  12.160  12.995
 2946SOL    HW210613   8.213  12.048  13.074
 2947SOL     OW10614  11.915   2.566   7.397
 2947SOL    HW110615  12.010   2.566   7.380
 2947SOL    HW210616  11.902   2.639   7.457
 2948SOL     OW10617   6.654   3.405   6.011
 2948SOL    HW110618   6.713   3.350   5.960
 2948SOL    HW210619   6.607   3.457   5.946
 2949SOL     OW10620   7.753   4.189   4.757
 2949SOL    HW110621   7.739   4.280   4.785
 2949SOL    HW210622   7.665   4.151   4.754
 2950SOL     OW10623   0.259   9.946   7.704
 2950SOL    HW110624   0.335   9.961   7.761
 2950SOL    HW210625   0.211   9.875   7.745
 2951SOL     OW10626   6.314   3.395   2.168
 2951SOL    HW110627   6.364   3.382   2.248
 2951SOL    HW210628   6.321   3.311   2.122
 2952SOL     OW10629   3.993   4.301   3.103
 2952SOL    HW110630   4.043   4.382   3.095
 2952SOL    HW210631   3.950   4.308   3.189
 2953SOL     OW10632   4.575  13.115   4.599
 2953SOL    HW110633   4.502  13.164   4.562
 2953SOL    HW210634   4.552  13.023   4.584
 2954SOL     OW10635  14.857   7.503   0.734
 2954SOL    HW110636   0.071   7.483   0.755
 2954SOL    HW210637  14.823   7.545   0.812
 2955SOL     OW10638   0.658   0.507   8.541
 2955SOL    HW110639   0.611   0.502   8.624
 2955SOL    HW210640   0.645   0.598   8.512
 2956SOL     OW10641   2.209   3.716   0.120
 2956SOL    HW110642   2.189   3.630   0.083
 2956SOL    HW210643   2.123   3.755   0.136
 2957SOL     OW10644  13.173   0.623  14.760
 2957SOL    HW110645  13.083   0.655  14.757
 2957SOL    HW210646  13.213   0.655  14.679
 2958SOL     OW10647  10.142  14.802   3.214
 2958SOL    HW110648  10.233  14.798   3.244
 2958SOL    HW210649  10.090  14.769   3.287
 2959SOL     OW10650  10.418   3.770   4.362
 2959SOL    HW110651  10.389   3.861   4.363
 2959SOL    HW210652  10.363   3.727   4.428
 2960SOL     OW10653  12.157   5.759   1.287
 2960SOL    HW110654  12.162   5.667   1.260
 2960SOL    HW210655  12.247   5.791   1.278
 2961SOL     OW10656   5.734   4.982   3.255
 2961SOL    HW110657   5.791   4.906   3.270
 2961SOL    HW210658   5.760   5.045   3.323
 2962SOL     OW10659  13.577   1.280   5.257
 2962SOL    HW110660  13.614   1.358   5.300
 2962SOL    HW210661  13.632   1.267   5.180
 2963SOL     OW10662   3.572   5.117   9.875
 2963SOL    HW110663   3.497   5.107   9.934
 2963SOL    HW210664   3.533   5.136   9.790
 2964SOL     OW10665   0.205   9.061  11.593
 2964SOL    HW110666   0.274   9.060  11.659
 2964SOL    HW210667   0.124   9.071  11.644
 2965SOL     OW10668   3.844   8.732  13.824
 2965SOL    HW110669   3.851   8.780  13.906
 2965SOL    HW210670   3.764   8.680  13.834
 2966SOL     OW10671  12.362   3.660   0.167
 2966SOL    HW110672  12.293   3.685   0.229
 2966SOL    HW210673  12.314   3.634   0.088
 2967SOL     OW10674  12.284  12.501   8.863
 2967SOL    HW110675  12.292  12.527   8.771
 2967SOL    HW210676  12.228  12.424   8.862
 2968SOL     OW10677   8.520  13.347   4.722
 2968SOL    HW110678   8.427  13.334   4.736
 2968SOL    HW210679   8.532  13.333   4.628
 2969SOL     OW10680  12.099   5.581   0.602
 2969SOL    HW110681  12.140   5.494   0.596
 2969SOL    HW210682  12.080   5.605   0.511
 2970SOL     OW10683   7.230   4.175   5.941
 2970SOL    HW110684   7.255   4.209   6.027
 2970SOL    HW210685   7.204   4.085   5.958
 2971SOL     OW10686   8.976   0.374   5.288
 2971SOL    HW110687   8.896   0.378   5.235
 2971SOL    HW210688   9.002   0.465   5.299
 2972SOL     OW10689   1.330   4.659   7.943
 2972SOL    HW110690   1.374   4.742   7.929
 2972SOL    HW210691   1.329   4.617   7.857
 2973SOL     OW10692   5.220   3.134   8.729
 2973SOL    HW110693   5.171   3.195   8.785
 2973SOL    HW210694   5.152   3.080   8.688
 2974SOL     OW10695  11.933   3.866   7.613
 2974SOL    HW110696  11.901   3.818   7.537
 2974SOL    HW210697  12.002   3.811   7.650
 2975SOL     OW10698  13.283   5.579   0.518
 2975SOL    HW110699  13.300   5.539   0.433
 2975SOL    HW210700  13.323   5.666   0.512
 2976SOL     OW10701  12.904   0.246  10.065
 2976SOL    HW110702  12.932   0.326  10.021
 2976SOL    HW210703  12.934   0.175  10.008
 2977SOL     OW10704  13.413  13.937   9.691
 2977SOL    HW110705  13.507  13.929   9.709
 2977SOL    HW210706  13.404  13.910   9.600
 2978SOL     OW10707   7.504   4.056  10.537
 2978SOL    HW110708   7.552   4.014  10.466
 2978SOL    HW210709   7.507   4.150  10.516
 2979SOL     OW10710   0.281   0.729   3.621
 2979SOL    HW110711   0.327   0.777   3.690
 2979SOL    HW210712   0.349   0.679   3.576
 2980SOL     OW10713   2.987  11.069   5.458
 2980SOL    HW110714   3.068  11.031   5.492
 2980SOL    HW210715   3.016  11.140   5.401
 2981SOL     OW10716   1.921  13.188   6.195
 2981SOL    HW110717   1.912  13.283   6.196
 2981SOL    HW210718   1.856  13.158   6.131
 2982SOL     OW10719   1.225  12.289   4.040
 2982SOL    HW110720   1.160  12.233   4.082
 2982SOL    HW210721   1.221  12.372   4.088
 2983SOL     OW10722   1.163  12.188   3.790
 2983SOL    HW110723   1.190  12.229   3.872
 2983SOL    HW210724   1.220  12.112   3.781
 2984SOL     OW10725   1.405  13.585   6.430
 2984SOL    HW110726   1.394  13.506   6.483
 2984SOL    HW210727   1.446  13.555   6.349
 2985SOL     OW10728   8.300   5.494  14.109
 2985SOL    HW110729   8.261   5.581  14.103
 2985SOL    HW210730   8.235   5.442  14.156
 2986SOL     OW10731  13.306  12.591   6.395
 2986SOL    HW110732  13.254  12.616   6.318
 2986SOL    HW210733  13.315  12.672   6.445
 2987SOL     OW10734   9.439  11.272  11.773
 2987SOL    HW110735   9.534  11.260  11.762
 2987SOL    HW210736   9.429  11.308  11.861
 2988SOL     OW10737   8.278   6.609  12.127
 2988SOL    HW110738   8.330   6.533  12.100
 2988SOL    HW210739   8.326   6.685  12.094
 2989SOL     OW10740   3.057  10.352   1.586
 2989SOL    HW110741   3.008  10.367   1.666
 2989SOL    HW210742   2.992  10.321   1.523
 2990SOL     OW10743   1.371  11.503   4.279
 2990SOL    HW110744   1.385  11.409   4.291
 2990SOL    HW210745   1.289  11.510   4.230
 2991SOL     OW10746   1.327   4.704   3.793
 2991SOL    HW110747   1.240   4.697   3.756
 2991SOL    HW210748   1.338   4.624   3.844
 2992SOL     OW10749   7.701   4.085   3.522
 2992SOL    HW110750   7.717   4.144   3.449
 2992SOL    HW210751   7.763   4.013   3.509
 2993SOL     OW10752  10.715   8.498  14.846
 2993SOL    HW110753  10.672   8.582  14.831
 2993SOL    HW210754  10.660   8.454   0.033
 2994SOL     OW10755   8.017  10.886   3.611
 2994SOL    HW110756   7.948  10.822   3.590
 2994SOL    HW210757   8.098  10.842   3.585
 2995SOL     OW10758   4.525   4.802   8.677
 2995SOL    HW110759   4.443   4.832   8.637
 2995SOL    HW210760   4.587   4.799   8.604
 2996SOL     OW10761  12.564  10.607   0.798
 2996SOL    HW110762  12.615  10.638   0.724
 2996SOL    HW210763  12.507  10.681   0.820
 2997SOL     OW10764   3.379  14.483  14.740
 2997SOL    HW110765   3.358  14.569  14.778
 2997SOL    HW210766   3.416  14.504  14.654
 2998SOL     OW10767   7.674  12.974   6.368
 2998SOL    HW110768   7.596  12.964   6.422
 2998SOL    HW210769   7.747  12.967   6.430
 2999SOL     OW10770  11.541   9.555   3.703
 2999SOL    HW110771  11.460   9.576   3.657
 2999SOL    HW210772  11.516   9.491   3.769
 3000SOL     OW10773   2.152   8.197   6.205
 3000SOL    HW110774   2.125   8.206   6.114
 3000SOL    HW210775   2.247   8.196   6.202
 3001SOL     OW10776   4.892  14.610   1.906
 3001SOL    HW110777   4.903  14.525   1.950
 3001SOL    HW210778   4.805  14.640   1.933
 3002SOL     OW10779   4.185  10.114   8.745
 3002SOL    HW110780   4.123  10.180   8.774
 3002SOL    HW210781   4.153  10.086   8.660
 3003SOL     OW10782  14.611  11.886   8.005
 3003SOL    HW110783  14.672  11.817   8.029
 3003SOL    HW210784  14.529  11.861   8.049
 3004SOL     OW10785   9.912   4.176  10.467
 3004SOL    HW110786   9.930   4.135  10.382
 3004SOL    HW210787   9.917   4.270  10.450
 3005SOL     OW10788   8.488   4.492   9.702
 3005SOL    HW110789   8.419   4.552   9.674
 3005SOL    HW210790   8.568   4.545   9.698
 3006SOL     OW10791  14.370  10.106   3.382
 3006SOL    HW110792  14.323  10.022   3.382
 3006SOL    HW210793  14.430  10.100   3.456
 3007SOL     OW10794   9.998  13.107   3.082
 3007SOL    HW110795  10.051  13.173   3.038
 3007SOL    HW210796   9.956  13.058   3.011
 3008SOL     OW10797   0.352   9.833   0.340
 3008SOL    HW110798   0.360   9.748   0.382
 3008SOL    HW210799   0.439   9.852   0.305
 3009SOL     OW10800   8.680   5.508  11.862
 3009SOL    HW110801   8.631   5.440  11.909
 3009SOL    HW210802   8.768   5.473  11.855
 3010SOL     OW10803  12.990  10.581  13.917
 3010SOL    HW110804  12.911  10.608  13.871
 3010SOL    HW210805  13.040  10.532  13.851
 3011SOL     OW10806   9.121   6.106   6.792
 3011SOL    HW110807   9.125   6.075   6.883
 3011SOL    HW210808   9.213   6.117   6.767
 3012SOL     OW10809   7.305   8.807  12.037
 3012SOL    HW110810   7.371   8.743  12.063
 3012SOL    HW210811   7.325   8.827  11.946
 3013SOL     OW10812   8.979   8.322  14.131
 3013SOL    HW110813   8.943   8.397  14.084
 3013SOL    HW210814   8.945   8.245  14.085
 3014SOL     OW10815   2.385   1.298   4.552
 3014SOL    HW110816   2.445   1.223   4.549
 3014SOL    HW210817   2.442   1.374   4.568
 3015SOL     OW10818  12.537   5.759   2.170
 3015SOL    HW110819  12.456   5.710   2.184
 3015SOL    HW210820  12.584   5.752   2.253
 3016SOL     OW10821   4.168   6.740  10.506
 3016SOL    HW110822   4.200   6.819  10.463
 3016SOL    HW210823   4.234   6.721  10.573
 3017SOL     OW10824   1.528   4.461   2.889
 3017SOL    HW110825   1.490   4.536   2.935
 3017SOL    HW210826   1.623   4.476   2.895
 3018SOL     OW10827   9.317  12.725   0.938
 3018SOL    HW110828   9.270  12.787   0.882
 3018SOL    HW210829   9.262  12.647   0.941
 3019SOL     OW10830   3.194  12.407  14.361
 3019SOL    HW110831   3.120  12.446  14.407
 3019SOL    HW210832   3.160  12.325  14.327
 3020SOL     OW10833   8.620   7.459  13.081
 3020SOL    HW110834   8.576   7.450  12.997
 3020SOL    HW210835   8.556   7.426  13.145
 3021SOL     OW10836   0.745   3.801   3.000
 3021SOL    HW110837   0.774   3.768   3.085
 3021SOL    HW210838   0.697   3.728   2.960
 3022SOL     OW10839  10.417  11.049   5.520
 3022SOL    HW110840  10.360  10.977   5.490
 3022SOL    HW210841  10.388  11.066   5.609
 3023SOL     OW10842   5.070   6.143   9.966
 3023SOL    HW110843   5.047   6.051   9.950
 3023SOL    HW210844   5.163   6.149   9.945
 3024SOL     OW10845  11.393  11.664   5.314
 3024SOL    HW110846  11.486  11.680   5.298
 3024SOL    HW210847  11.391  11.583   5.365
 3025SOL     OW10848   1.663   7.122   7.905
 3025SOL    HW110849   1.581   7.133   7.953
 3025SOL    HW210850   1.654   7.181   7.830
 3026SOL     OW10851   9.239   8.219  14.767
 3026SOL    HW110852   9.289   8.151  14.811
 3026SOL    HW210853   9.274   8.301  14.801
 3027SOL     OW10854  11.529   2.558   0.898
 3027SOL    HW110855  11.518   2.565   0.993
 3027SOL    HW210856  11.590   2.628   0.876
 3028SOL     OW10857   5.209   8.369   8.224
 3028SOL    HW110858   5.153   8.408   8.156
 3028SOL    HW210859   5.204   8.275   8.209
 3029SOL     OW10860   2.733   5.915   4.143
 3029SOL    HW110861   2.692   5.829   4.146
 3029SOL    HW210862   2.795   5.915   4.216
 3030SOL     OW10863   3.429   5.346   4.064
 3030SOL    HW110864   3.401   5.399   4.139
 3030SOL    HW210865   3.478   5.274   4.102
 3031SOL     OW10866   5.087   8.427  11.193
 3031SOL    HW110867   4.993   8.412  11.194
 3031SOL    HW210868   5.118   8.383  11.114
 3032SOL     OW10869   6.870  12.276   8.205
 3032SOL    HW110870   6.870  12.222   8.283
 3032SOL    HW210871   6.812  12.349   8.226
 3033SOL     OW10872  11.216  14.216  14.627
 3033SOL    HW110873  11.272  14.149  14.589
 3033SOL    HW210874  11.133  14.208  14.579
 3034SOL     OW10875   1.099   3.820  12.827
 3034SOL    HW110876   1.178   3.814  12.879
 3034SOL    HW210877   1.084   3.730  12.795
 3035SOL     OW10878  12.701   2.290   0.742
 3035SOL    HW110879  12.719   2.381   0.718
 3035SOL    HW210880  12.710   2.288   0.837
 3036SOL     OW10881  13.571  13.983   4.390
 3036SOL    HW110882  13.569  13.898   4.434
 3036SOL    HW210883  13.644  14.030   4.431
 3037SOL     OW10884   1.719  11.414   8.837
 3037SOL    HW110885   1.761  11.343   8.788
 3037SOL    HW210886   1.739  11.395   8.929
 3038SOL     OW10887   0.758  14.061  10.906
 3038SOL    HW110888   0.826  14.034  10.967
 3038SOL    HW210889   0.799  14.129  10.853
 3039SOL     OW10890   5.497  11.694   4.074
 3039SOL    HW110891   5.479  11.601   4.063
 3039SOL    HW210892   5.515  11.726   3.985
 3040SOL     OW10893   4.654   9.341   8.081
 3040SOL    HW110894   4.702   9.371   8.158
 3040SOL    HW210895   4.622   9.254   8.105
 3041SOL     OW10896   8.939   8.303  10.491
 3041SOL    HW110897   8.896   8.364  10.552
 3041SOL    HW210898   8.959   8.355  10.414
 3042SOL     OW10899   7.801   1.286  11.130
 3042SOL    HW110900   7.791   1.196  11.158
 3042SOL    HW210901   7.882   1.316  11.173
 3043SOL     OW10902   5.799   8.580   3.700
 3043SOL    HW110903   5.744   8.653   3.674
 3043SOL    HW210904   5.746   8.530   3.761
 3044SOL     OW10905   6.987   9.066   1.442
 3044SOL    HW110906   6.934   9.009   1.386
 3044SOL    HW210907   6.930   9.085   1.516
 3045SOL     OW10908   9.732  13.682  13.202
 3045SOL    HW110909   9.772  13.595  13.198
 3045SOL    HW210910   9.791  13.734  13.257
 3046SOL     OW10911   9.106  12.745   7.751
 3046SOL    HW110912   9.095  12.659   7.790
 3046SOL    HW210913   9.030  12.756   7.695
 3047SOL     OW10914  12.029   1.120   5.994
 3047SOL    HW110915  12.070   1.207   5.998
 3047SOL    HW210916  12.063   1.082   5.913
 3048SOL     OW10917   4.547  11.219  12.235
 3048SOL    HW110918   4.516  11.256  12.152
 3048SOL    HW210919   4.602  11.145  12.209
 3049SOL     OW10920  13.972   0.241   1.827
 3049SOL    HW110921  14.020   0.260   1.908
 3049SOL    HW210922  13.970   0.145   1.823
 3050SOL     OW10923   1.199   1.915   4.976
 3050SOL    HW110924   1.222   1.884   5.064
 3050SOL    HW210925   1.229   2.005   4.973
 3051SOL     OW10926   3.869   1.315   8.001
 3051SOL    HW110927   3.875   1.225   8.033
 3051SOL    HW210928   3.922   1.366   8.062
 3052SOL     OW10929  11.247   7.751   6.778
 3052SOL    HW110930  11.292   7.776   6.697
 3052SOL    HW210931  11.245   7.655   6.775
 3053SOL     OW10932   5.604   5.996   2.303
 3053SOL    HW110933   5.584   5.918   2.252
 3053SOL    HW210934   5.637   6.059   2.239
 3054SOL     OW10935   7.639   9.958   2.332
 3054SOL    HW110936   7.564   9.975   2.389
 3054SOL    HW210937   7.628   9.866   2.306
 3055SOL     OW10938   5.731   4.052  11.102
 3055SOL    HW110939   5.702   4.096  11.181
 3055SOL    HW210940   5.653   4.007  11.068
 3056SOL     OW10941   5.669   2.179  13.205
 3056SOL    HW110942   5.616   2.105  13.235
 3056SOL    HW210943   5.760   2.150  13.217
 3057SOL     OW10944  13.718  12.680   6.278
 3057SOL    HW110945  13.692  12.753   6.222
 3057SOL    HW210946  13.806  12.703   6.309
 3058SOL     OW10947   2.554   2.862   4.422
 3058SOL    HW110948   2.594   2.947   4.403
 3058SOL    HW210949   2.595   2.834   4.504
 3059SOL     OW10950   2.074   8.070   2.796
 3059SOL    HW110951   2.065   8.099   2.706
 3059SOL    HW210952   2.050   7.977   2.794
 3060SOL     OW10953  11.132   9.908  10.822
 3060SOL    HW110954  11.066   9.967  10.787
 3060SOL    HW210955  11.136   9.836  10.759
 3061SOL     OW10956   4.239   3.223   0.812
 3061SOL    HW110957   4.230   3.317   0.795
 3061SOL    HW210958   4.305   3.217   0.881
 3062SOL     OW10959  13.895   5.824   2.870
 3062SOL    HW110960  13.970   5.883   2.872
 3062SOL    HW210961  13.927   5.745   2.826
 3063SOL     OW10962   4.207   2.600   9.558
 3063SOL    HW110963   4.296   2.605   9.524
 3063SOL    HW210964   4.214   2.630   9.648
 3064SOL     OW10965   9.331  14.417  11.363
 3064SOL    HW110966   9.259  14.461  11.408
 3064SOL    HW210967   9.392  14.393  11.433
 3065SOL     OW10968   1.771  11.522  13.980
 3065SOL    HW110969   1.863  11.535  13.955
 3065SOL    HW210970   1.728  11.605  13.960
 3066SOL     OW10971   5.770   4.378  12.523
 3066SOL    HW110972   5.789   4.333  12.441
 3066SOL    HW210973   5.812   4.463  12.514
 3067SOL     OW10974   5.858  13.476   5.955
 3067SOL    HW110975   5.834  13.443   6.042
 3067SOL    HW210976   5.867  13.570   5.966
 3068SOL     OW10977   7.469  11.041   8.907
 3068SOL    HW110978   7.510  10.979   8.967
 3068SOL    HW210979   7.385  11.062   8.949
 3069SOL     OW10980   7.914   7.131   8.020
 3069SOL    HW110981   8.003   7.110   7.990
 3069SOL    HW210982   7.863   7.053   7.998
 3070SOL     OW10983   3.252  14.828  14.044
 3070SOL    HW110984   3.259  14.753  14.102
 3070SOL    HW210985   3.175  14.810  13.991
 3071SOL     OW10986   1.853  14.354   9.192
 3071SOL    HW110987   1.851  14.306   9.275
 3071SOL    HW210988   1.776  14.323   9.145
 3072SOL     OW10989   8.606   7.841   0.024
 3072SOL    HW110990   8.526   7.891   0.039
 3072SOL    HW210991   8.677   7.903   0.041
 3073SOL     OW10992   9.232   5.077   1.258
 3073SOL    HW110993   9.222   4.988   1.291
 3073SOL    HW210994   9.209   5.134   1.331
 3074SOL     OW10995   1.597   1.160  14.419
 3074SOL    HW110996   1.568   1.251  14.426
 3074SOL    HW210997   1.678   1.156  14.471
 3075SOL     OW10998  11.309  12.795   1.735
 3075SOL    HW110999  11.285  12.831   1.649
 3075SOL    HW211000  11.384  12.738   1.716
 3076SOL     OW11001   4.196   4.854  11.632
 3076SOL    HW111002   4.208   4.833  11.724
 3076SOL    HW211003   4.104   4.834  11.614
 3077SOL     OW11004   8.508  11.462   3.810
 3077SOL    HW111005   8.545  11.532   3.863
 3077SOL    HW211006   8.426  11.440   3.853
 3078SOL     OW11007   3.467   5.149   6.509
 3078SOL    HW111008   3.471   5.184   6.419
 3078SOL    HW211009   3.555   5.164   6.543
 3079SOL     OW11010   8.988  14.189   0.168
 3079SOL    HW111011   9.036  14.107   0.152
 3079SOL    HW211012   8.902  14.160   0.201
 3080SOL     OW11013   4.192   9.241  11.957
 3080SOL    HW111014   4.240   9.290  12.023
 3080SOL    HW211015   4.101   9.243  11.987
 3081SOL     OW11016  12.744   5.460   7.238
 3081SOL    HW111017  12.731   5.553   7.256
 3081SOL    HW211018  12.719   5.449   7.147
 3082SOL     OW11019   6.627   3.196   2.550
 3082SOL    HW111020   6.622   3.182   2.645
 3082SOL    HW211021   6.667   3.115   2.517
 3083SOL     OW11022   1.919   0.674   2.100
 3083SOL    HW111023   1.948   0.618   2.027
 3083SOL    HW211024   1.849   0.728   2.063
 3084SOL     OW11025  13.721   5.556  12.060
 3084SOL    HW111026  13.733   5.617  12.133
 3084SOL    HW211027  13.810   5.542  12.026
 3085SOL     OW11028  12.250   3.275   2.104
 3085SOL    HW111029  12.158   3.248   2.110
 3085SOL    HW211030  12.274   3.259   2.012
 3086SOL     OW11031   7.478   7.121  14.578
 3086SOL    HW111032   7.498   7.186  14.511
 3086SOL    HW211033   7.474   7.170  14.660
 3087SOL     OW11034   8.685   5.985   4.857
 3087SOL    HW111035   8.714   5.959   4.945
 3087SOL    HW211036   8.640   6.068   4.870
 3088SOL     OW11037   4.100  11.117   3.116
 3088SOL    HW111038   4.107  11.076   3.029
 3088SOL    HW211039   4.184  11.162   3.127
 3089SOL     OW11040   6.902   6.702   2.986
 3089SOL    HW111041   6.947   6.724   2.905
 3089SOL    HW211042   6.819   6.664   2.958
 3090SOL     OW11043   2.975   1.065   3.072
 3090SOL    HW111044   3.041   1.087   3.138
 3090SOL    HW211045   2.905   1.128   3.086
 3091SOL     OW11046   7.828  11.805   8.655
 3091SOL    HW111047   7.887  11.805   8.730
 3091SOL    HW211048   7.881  11.841   8.583
 3092SOL     OW11049   0.766  14.304   1.352
 3092SOL    HW111050   0.718  14.387   1.358
 3092SOL    HW211051   0.820  14.313   1.273
 3093SOL     OW11052  12.792   2.712  11.155
 3093SOL    HW111053  12.770   2.654  11.227
 3093SOL    HW211054  12.709   2.725  11.109
 3094SOL     OW11055   7.810  10.106   2.496
 3094SOL    HW111056   7.735  10.103   2.555
 3094SOL    HW211057   7.779  10.067   2.415
 3095SOL     OW11058   0.840   0.131   8.301
 3095SOL    HW111059   0.833   0.223   8.275
 3095SOL    HW211060   0.905   0.094   8.241
 3096SOL     OW11061  14.484   3.593   0.935
 3096SOL    HW111062  14.476   3.688   0.924
 3096SOL    HW211063  14.508   3.582   1.027
 3097SOL     OW11064   5.412   2.750   2.478
 3097SOL    HW111065   5.455   2.711   2.554
 3097SOL    HW211066   5.454   2.708   2.403
 3098SOL     OW11067   5.171  10.970  14.411
 3098SOL    HW111068   5.084  10.969  14.371
 3098SOL    HW211069   5.179  10.884  14.453
 3099SOL     OW11070  14.173  10.102   1.723
 3099SOL    HW111071  14.202  10.084   1.633
 3099SOL    HW211072  14.224  10.041   1.777
 3100SOL     OW11073   1.089   8.311   3.994
 3100SOL    HW111074   1.015   8.251   3.998
 3100SOL    HW211075   1.056   8.386   3.944
 3101SOL     OW11076  14.248   1.797  12.081
 3101SOL    HW111077  14.298   1.865  12.037
 3101SOL    HW211078  14.314   1.733  12.109
 3102SOL     OW11079   7.637  13.282   8.135
 3102SOL    HW111080   7.578  13.330   8.077
 3102SOL    HW211081   7.588  13.205   8.162
 3103SOL     OW11082   4.367   1.376   0.208
 3103SOL    HW111083   4.414   1.450   0.247
 3103SOL    HW211084   4.331   1.412   0.126
 3104SOL     OW11085   3.456   6.678   4.620
 3104SOL    HW111086   3.409   6.743   4.671
 3104SOL    HW211087   3.537   6.663   4.668
 3105SOL     OW11088   4.108  11.935  12.977
 3105SOL    HW111089   4.142  11.882  13.048
 3105SOL    HW211090   4.106  11.875  12.901
 3106SOL     OW11091   9.135   2.532   2.121
 3106SOL    HW111092   9.224   2.564   2.142
 3106SOL    HW211093   9.092   2.607   2.080
 3107SOL     OW11094  12.202   2.626   6.334
 3107SOL    HW111095  12.108   2.631   6.349
 3107SOL    HW211096  12.237   2.578   6.408
 3108SOL     OW11097   4.724   2.530   3.392
 3108SOL    HW111098   4.716   2.530   3.487
 3108SOL    HW211099   4.805   2.578   3.374
 3109SOL     OW11100   4.265   7.238  14.405
 3109SOL    HW111101   4.307   7.305  14.460
 3109SOL    HW211102   4.334   7.176  14.385
 3110SOL     OW11103   6.104  13.686  10.705
 3110SOL    HW111104   6.076  13.595  10.707
 3110SOL    HW211105   6.043  13.729  10.645
 3111SOL     OW11106  10.525  12.200  11.375
 3111SOL    HW111107  10.486  12.204  11.463
 3111SOL    HW211108  10.547  12.107  11.363
 3112SOL     OW11109  11.535   9.966  13.569
 3112SOL    HW111110  11.542  10.062  13.573
 3112SOL    HW211111  11.553   9.944  13.478
 3113SOL     OW11112   6.470  14.419   7.036
 3113SOL    HW111113   6.432  14.505   7.017
 3113SOL    HW211114   6.405  14.357   7.003
 3114SOL     OW11115  14.541   5.316   7.878
 3114SOL    HW111116  14.548   5.229   7.839
 3114SOL    HW211117  14.451   5.344   7.860
 3115SOL     OW11118   0.666   1.691   6.032
 3115SOL    HW111119   0.667   1.748   5.955
 3115SOL    HW211120   0.578   1.700   6.068
 3116SOL     OW11121  12.354   5.748   0.381
 3116SOL    HW111122  12.260   5.758   0.392
 3116SOL    HW211123  12.367   5.741   0.286
 3117SOL     OW11124   0.757   6.575   4.072
 3117SOL    HW111125   0.670   6.568   4.112
 3117SOL    HW211126   0.801   6.643   4.122
 3118SOL     OW11127  12.475   8.574   9.155
 3118SOL    HW111128  12.380   8.573   9.139
 3118SOL    HW211129  12.484   8.549   9.247
 3119SOL     OW11130   0.296   1.324   4.971
 3119SOL    HW111131   0.381   1.280   4.980
 3119SOL    HW211132   0.246   1.295   5.047
 3120SOL     OW11133   9.986   2.203   3.781
 3120SOL    HW111134  10.066   2.155   3.761
 3120SOL    HW211135  10.015   2.280   3.829
 3121SOL     OW11136   8.470  14.653  13.109
 3121SOL    HW111137   8.546  14.705  13.086
 3121SOL    HW211138   8.407  14.716  13.144
 3122SOL     OW11139  11.353   9.709   9.302
 3122SOL    HW111140  11.328   9.706   9.209
 3122SOL    HW211141  11.412   9.784   9.308
 3123SOL     OW11142   9.243   4.242   7.055
 3123SOL    HW111143   9.243   4.320   7.000
 3123SOL    HW211144   9.330   4.204   7.044
 3124SOL     OW11145   4.218   9.630  13.000
 3124SOL    HW111146   4.194   9.586  13.082
 3124SOL    HW211147   4.135   9.653  12.960
 3125SOL     OW11148   5.200   2.954  11.336
 3125SOL    HW111149   5.168   2.982  11.421
 3125SOL    HW211150   5.185   3.029  11.278
 3126SOL     OW11151   2.997   7.017   8.995
 3126SOL    HW111152   2.928   6.967   9.039
 3126SOL    HW211153   3.063   7.033   9.063
 3127SOL     OW11154   7.192  10.998   8.802
 3127SOL    HW111155   7.149  10.949   8.872
 3127SOL    HW211156   7.222  10.931   8.741
 3128SOL     OW11157   6.026   2.334  11.072
 3128SOL    HW111158   6.077   2.356  11.150
 3128SOL    HW211159   6.082   2.361  10.999
 3129SOL     OW11160   5.787  14.834  12.172
 3129SOL    HW111161   5.704  14.867  12.141
 3129SOL    HW211162   5.779  14.739  12.166
 3130SOL     OW11163   0.925  13.890   2.457
 3130SOL    HW111164   0.869  13.837   2.514
 3130SOL    HW211165   0.897  13.980   2.473
 3131SOL     OW11166   0.195   6.098  13.574
 3131SOL    HW111167   0.167   6.145  13.495
 3131SOL    HW211168   0.133   6.027  13.583
 3132SOL     OW11169   4.855   8.215   7.964
 3132SOL    HW111170   4.816   8.273   8.029
 3132SOL    HW211171   4.781   8.163   7.931
 3133SOL     OW11172   6.486  14.300   5.264
 3133SOL    HW111173   6.570  14.254   5.266
 3133SOL    HW211174   6.430  14.245   5.209
 3134SOL     OW11175  12.044  10.737  10.631
 3134SOL    HW111176  12.049  10.749  10.537
 3134SOL    HW211177  12.017  10.645  10.642
 3135SOL     OW11178   2.438   6.919   2.535
 3135SOL    HW111179   2.464   6.934   2.444
 3135SOL    HW211180   2.518   6.929   2.586
 3136SOL     OW11181   8.442   5.744   1.439
 3136SOL    HW111182   8.483   5.659   1.453
 3136SOL    HW211183   8.384   5.731   1.363
 3137SOL     OW11184   8.032  11.804   8.860
 3137SOL    HW111185   8.107  11.803   8.801
 3137SOL    HW211186   8.066  11.840   8.942
 3138SOL     OW11187  13.034   1.464   8.946
 3138SOL    HW111188  13.114   1.468   8.894
 3138SOL    HW211189  13.061   1.425   9.029
 3139SOL     OW11190   8.000   5.951   1.783
 3139SOL    HW111191   7.948   5.873   1.763
 3139SOL    HW211192   8.002   5.955   1.878
 3140SOL     OW11193  12.018   9.086  12.722
 3140SOL    HW111194  12.076   9.091  12.798
 3140SOL    HW211195  11.978   8.999  12.729
 3141SOL     OW11196  10.822  13.748   8.898
 3141SOL    HW111197  10.845  13.697   8.821
 3141SOL    HW211198  10.874  13.709   8.969
 3142SOL     OW11199  12.139   2.955   0.807
 3142SOL    HW111200  12.172   2.881   0.757
 3142SOL    HW211201  12.113   2.918   0.891
 3143SOL     OW11202   1.236   7.361   8.302
 3143SOL    HW111203   1.232   7.346   8.396
 3143SOL    HW211204   1.284   7.443   8.292
 3144SOL     OW11205   7.890  14.410   5.798
 3144SOL    HW111206   7.933  14.423   5.883
 3144SOL    HW211207   7.854  14.321   5.803
 3145SOL     OW11208   1.107   7.759  10.294
 3145SOL    HW111209   1.027   7.751  10.347
 3145SOL    HW211210   1.076   7.794  10.210
 3146SOL     OW11211   3.616   0.185   0.862
 3146SOL    HW111212   3.606   0.107   0.807
 3146SOL    HW211213   3.574   0.162   0.944
 3147SOL     OW11214   1.641   7.010   0.075
 3147SOL    HW111215   1.573   7.044   0.132
 3147SOL    HW211216   1.701   7.083   0.061
 3148SOL     OW11217   9.051  11.330   8.114
 3148SOL    HW111218   9.061  11.397   8.182
 3148SOL    HW211219   9.059  11.378   8.031
 3149SOL     OW11220   4.327  10.707   0.887
 3149SOL    HW111221   4.389  10.779   0.897
 3149SOL    HW211222   4.355  10.662   0.808
 3150SOL     OW11223   7.920  12.895   8.295
 3150SOL    HW111224   7.862  12.824   8.323
 3150SOL    HW211225   7.895  12.911   8.204
 3151SOL     OW11226   8.220   0.777  11.064
 3151SOL    HW111227   8.281   0.707  11.042
 3151SOL    HW211228   8.257   0.855  11.022
 3152SOL     OW11229   0.371   6.870  13.405
 3152SOL    HW111230   0.453   6.819  13.410
 3152SOL    HW211231   0.395   6.951  13.361
 3153SOL     OW11232   1.298   7.439  11.973
 3153SOL    HW111233   1.211   7.473  11.995
 3153SOL    HW211234   1.280   7.363  11.917
 3154SOL     OW11235   4.668  13.138   5.457
 3154SOL    HW111236   4.654  13.045   5.475
 3154SOL    HW211237   4.754  13.157   5.495
 3155SOL     OW11238   1.371   1.188   6.732
 3155SOL    HW111239   1.443   1.198   6.794
 3155SOL    HW211240   1.294   1.218   6.779
 3156SOL     OW11241  14.142  14.688   2.234
 3156SOL    HW111242  14.192  14.747   2.290
 3156SOL    HW211243  14.195  14.678   2.155
 3157SOL     OW11244   1.645   1.480  13.441
 3157SOL    HW111245   1.631   1.454  13.532
 3157SOL    HW211246   1.664   1.574  13.446
 3158SOL     OW11247   0.716   9.682   9.715
 3158SOL    HW111248   0.625   9.714   9.712
 3158SOL    HW211249   0.719   9.630   9.796
 3159SOL     OW11250   0.684  10.158   2.758
 3159SOL    HW111251   0.661  10.170   2.665
 3159SOL    HW211252   0.691  10.246   2.793
 3160SOL     OW11253   6.656   4.765   9.769
 3160SOL    HW111254   6.663   4.751   9.863
 3160SOL    HW211255   6.574   4.721   9.745
 3161SOL     OW11256  10.506   4.226   0.350
 3161SOL    HW111257  10.438   4.230   0.417
 3161SOL    HW211258  10.558   4.305   0.363
 3162SOL     OW11259  12.839   2.273  10.944
 3162SOL    HW111260  12.894   2.206  10.984
 3162SOL    HW211261  12.860   2.353  10.992
 3163SOL     OW11262   7.723   1.718   2.473
 3163SOL    HW111263   7.787   1.773   2.518
 3163SOL    HW211264   7.759   1.707   2.385
 3164SOL     OW11265   3.386   0.445   2.012
 3164SOL    HW111266   3.379   0.352   1.991
 3164SOL    HW211267   3.337   0.489   1.944
 3165SOL     OW11268   2.023   0.849   2.287
 3165SOL    HW111269   1.988   0.840   2.376
 3165SOL    HW211270   1.983   0.777   2.238
 3166SOL     OW11271   6.116  11.577   9.327
 3166SOL    HW111272   6.062  11.505   9.359
 3166SOL    HW211273   6.130  11.632   9.404
 3167SOL     OW11274   7.536  10.587   9.083
 3167SOL    HW111275   7.585  10.669   9.075
 3167SOL    HW211276   7.520  10.577   9.177
 3168SOL     OW11277  14.632   7.956   4.791
 3168SOL    HW111278  14.602   7.977   4.879
 3168SOL    HW211279  14.725   7.934   4.801
 3169SOL     OW11280   9.444  12.564   9.960
 3169SOL    HW111281   9.498  12.555  10.039
 3169SOL    HW211282   9.357  12.587   9.993
 3170SOL     OW11283  11.913   7.785   4.175
 3170SOL    HW111284  11.866   7.838   4.239
 3170SOL    HW211285  12.004   7.787   4.203
 3171SOL     OW11286  10.957   4.688   9.604
 3171SOL    HW111287  10.964   4.780   9.628
 3171SOL    HW211288  10.922   4.645   9.682
 3172SOL     OW11289   1.614   4.044   9.514
 3172SOL    HW111290   1.609   4.045   9.609
 3172SOL    HW211291   1.660   4.124   9.491
 3173SOL     OW11292   6.783   2.459   9.299
 3173SOL    HW111293   6.741   2.506   9.370
 3173SOL    HW211294   6.841   2.396   9.342
 3174SOL     OW11295  14.031   1.313  11.249
 3174SOL    HW111296  14.090   1.357  11.188
 3174SOL    HW211297  13.973   1.382  11.281
 3175SOL     OW11298   6.737  13.899   1.453
 3175SOL    HW111299   6.773  13.975   1.407
 3175SOL    HW211300   6.683  13.855   1.388
 3176SOL     OW11301   7.495   6.502   5.548
 3176SOL    HW111302   7.485   6.502   5.453
 3176SOL    HW211303   7.415   6.542   5.581
 3177SOL     OW11304   4.059   1.660   5.119
 3177SOL    HW111305   3.963   1.653   5.120
 3177SOL    HW211306   4.084   1.656   5.211
 3178SOL     OW11307   0.115   4.274   8.350
 3178SOL    HW111308   0.196   4.324   8.341
 3178SOL    HW211309   0.142   4.183   8.342
 3179SOL     OW11310   2.982  10.611  11.432
 3179SOL    HW111311   2.997  10.583  11.342
 3179SOL    HW211312   2.894  10.579  11.453
 3180SOL     OW11313   7.843  11.836  10.222
 3180SOL    HW111314   7.938  11.844  10.218
 3180SOL    HW211315   7.818  11.885  10.301
 3181SOL     OW11316   2.672   1.324  12.622
 3181SOL    HW111317   2.725   1.309  12.700
 3181SOL    HW211318   2.583   1.302  12.650
 3182SOL     OW11319   4.456   2.316   6.790
 3182SOL    HW111320   4.416   2.290   6.707
 3182SOL    HW211321   4.461   2.236   6.841
 3183SOL     OW11322   1.188   9.033   4.490
 3183SOL    HW111323   1.105   8.986   4.485
 3183SOL    HW211324   1.163   9.122   4.517
 3184SOL     OW11325   4.771  11.854   5.439
 3184SOL    HW111326   4.678  11.876   5.433
 3184SOL    HW211327   4.775  11.761   5.417
 3185SOL     OW11328  12.534   5.001  14.433
 3185SOL    HW111329  12.606   4.951  14.395
 3185SOL    HW211330  12.521   4.963  14.520
 3186SOL     OW11331   4.253   5.681  13.061
 3186SOL    HW111332   4.171   5.726  13.078
 3186SOL    HW211333   4.237   5.590  13.088
 3187SOL     OW11334   8.411   4.330  12.864
 3187SOL    HW111335   8.488   4.376  12.831
 3187SOL    HW211336   8.420   4.333  12.960
 3188SOL     OW11337   7.670  14.227  10.568
 3188SOL    HW111338   7.727  14.151  10.557
 3188SOL    HW211339   7.612  14.204  10.640
 3189SOL     OW11340   0.766  11.399   3.923
 3189SOL    HW111341   0.830  11.422   3.855
 3189SOL    HW211342   0.721  11.481   3.943
 3190SOL     OW11343   0.992  12.248   9.389
 3190SOL    HW111344   1.057  12.206   9.333
 3190SOL    HW211345   0.908  12.223   9.352
 3191SOL     OW11346   7.087   8.924   9.798
 3191SOL    HW111347   7.006   8.874   9.794
 3191SOL    HW211348   7.156   8.858   9.800
 3192SOL     OW11349  11.963  12.742   2.773
 3192SOL    HW111350  12.024  12.810   2.747
 3192SOL    HW211351  12.013  12.661   2.766
 3193SOL     OW11352   3.113  11.632   1.743
 3193SOL    HW111353   3.071  11.555   1.782
 3193SOL    HW211354   3.206  11.617   1.756
 3194SOL     OW11355   9.085   3.496   0.488
 3194SOL    HW111356   9.010   3.552   0.470
 3194SOL    HW211357   9.159   3.556   0.494
 3195SOL     OW11358  10.530   8.688   5.169
 3195SOL    HW111359  10.545   8.624   5.099
 3195SOL    HW211360  10.455   8.740   5.139
 3196SOL     OW11361   9.676  10.638   2.675
 3196SOL    HW111362   9.610  10.587   2.628
 3196SOL    HW211363   9.661  10.617   2.767
 3197SOL     OW11364  11.805  14.862   6.675
 3197SOL    HW111365  11.806   0.068   6.627
 3197SOL    HW211366  11.888  14.821   6.654
 3198SOL     OW11367  10.183  10.201   7.387
 3198SOL    HW111368  10.248  10.255   7.342
 3198SOL    HW211369  10.204  10.112   7.360
 3199SOL     OW11370   9.363  14.375   3.842
 3199SOL    HW111371   9.356  14.321   3.764
 3199SOL    HW211372   9.302  14.447   3.828
 3200SOL     OW11373   8.164   9.174   8.429
 3200SOL    HW111374   8.110   9.247   8.399
 3200SOL    HW211375   8.204   9.139   8.350
 3201SOL     OW11376   3.266   3.479  14.422
 3201SOL    HW111377   3.268   3.402  14.478
 3201SOL    HW211378   3.192   3.531  14.453
 3202SOL     OW11379  12.688  12.592   2.090
 3202SOL    HW111380  12.704  12.615   2.182
 3202SOL    HW211381  12.598  12.560   2.088
 3203SOL     OW11382   3.415   2.472   1.072
 3203SOL    HW111383   3.330   2.464   1.113
 3203SOL    HW211384   3.396   2.491   0.980
 3204SOL     OW11385  11.010  11.014  10.460
 3204SOL    HW111386  11.064  10.960  10.517
 3204SOL    HW211387  10.998  11.096  10.508
 3205SOL     OW11388  11.489  10.767   0.365
 3205SOL    HW111389  11.476  10.790   0.273
 3205SOL    HW211390  11.548  10.834   0.399
 3206SOL     OW11391   8.173   0.389   0.581
 3206SOL    HW111392   8.210   0.303   0.559
 3206SOL    HW211393   8.186   0.441   0.502
 3207SOL     OW11394   1.373   5.186   5.752
 3207SOL    HW111395   1.308   5.127   5.790
 3207SOL    HW211396   1.322   5.245   5.696
 3208SOL     OW11397   4.871  12.047   4.013
 3208SOL    HW111398   4.943  12.012   4.065
 3208SOL    HW211399   4.792  12.018   4.060
 3209SOL     OW11400  13.375  11.509   5.323
 3209SOL    HW111401  13.440  11.571   5.290
 3209SOL    HW211402  13.350  11.458   5.246
 3210SOL     OW11403   7.637   4.357   4.027
 3210SOL    HW111404   7.704   4.390   3.967
 3210SOL    HW211405   7.642   4.262   4.018
 3211SOL     OW11406   5.722   0.933   6.512
 3211SOL    HW111407   5.665   0.996   6.557
 3211SOL    HW211408   5.664   0.862   6.486
 3212SOL     OW11409  12.907  10.407   9.052
 3212SOL    HW111410  13.002  10.399   9.062
 3212SOL    HW211411  12.893  10.499   9.034
 3213SOL     OW11412   3.036   4.988   6.344
 3213SOL    HW111413   3.099   4.961   6.411
 3213SOL    HW211414   3.085   4.985   6.262
 3214SOL     OW11415  13.865   1.648   0.282
 3214SOL    HW111416  13.891   1.595   0.357
 3214SOL    HW211417  13.904   1.734   0.298
 3215SOL     OW11418  10.042  11.079   6.389
 3215SOL    HW111419   9.955  11.041   6.383
 3215SOL    HW211420  10.056  11.122   6.304
 3216SOL     OW11421   2.139   8.278   3.442
 3216SOL    HW111422   2.174   8.320   3.364
 3216SOL    HW211423   2.056   8.323   3.458
 3217SOL     OW11424   1.367  11.563  12.365
 3217SOL    HW111425   1.417  11.602  12.294
 3217SOL    HW211426   1.425  11.496  12.402
 3218SOL     OW11427   1.501   7.040   1.316
 3218SOL    HW111428   1.579   6.993   1.285
 3218SOL    HW211429   1.498   7.120   1.264
 3219SOL     OW11430   7.433   7.413   4.296
 3219SOL    HW111431   7.469   7.338   4.344
 3219SOL    HW211432   7.502   7.436   4.233
 3220SOL     OW11433  14.367  14.132  11.728
 3220SOL    HW111434  14.404  14.219  11.715
 3220SOL    HW211435  14.281  14.148  11.766
 3221SOL     OW11436  11.608   7.988   9.038
 3221SOL    HW111437  11.540   7.973   9.104
 3221SOL    HW211438  11.560   8.002   8.957
 3222SOL     OW11439   6.876  10.571   4.796
 3222SOL    HW111440   6.884  10.477   4.809
 3222SOL    HW211441   6.782  10.587   4.794
 3223SOL     OW11442   8.127  10.186   9.866
 3223SOL    HW111443   8.124  10.219   9.776
 3223SOL    HW211444   8.130  10.265   9.920
 3224SOL     OW11445   5.341   6.655   6.725
 3224SOL    HW111446   5.251   6.646   6.694
 3224SOL    HW211447   5.371   6.566   6.739
 3225SOL     OW11448   3.981   8.609   8.589
 3225SOL    HW111449   3.970   8.610   8.684
 3225SOL    HW211450   3.950   8.696   8.561
 3226SOL     OW11451   8.941   6.928   9.455
 3226SOL    HW111452   8.999   6.870   9.505
 3226SOL    HW211453   8.999   6.997   9.422
 3227SOL     OW11454   0.367   8.515  11.885
 3227SOL    HW111455   0.398   8.442  11.938
 3227SOL    HW211456   0.273   8.521  11.903
 3228SOL     OW11457  13.911   7.799   1.011
 3228SOL    HW111458  13.966   7.834   0.940
 3228SOL    HW211459  13.855   7.735   0.967
 3229SOL     OW11460   7.010  12.518  11.698
 3229SOL    HW111461   7.069  12.556  11.763
 3229SOL    HW211462   6.935  12.577  11.696
 3230SOL     OW11463   1.393   6.964  13.393
 3230SOL    HW111464   1.440   7.043  13.419
 3230SOL    HW211465   1.457   6.894  13.403
 3231SOL     OW11466   4.542  10.375  12.854
 3231SOL    HW111467   4.574  10.450  12.804
 3231SOL    HW211468   4.612  10.310  12.846
 3232SOL     OW11469   8.921  12.859   8.521
 3232SOL    HW111470   8.923  12.955   8.525
 3232SOL    HW211471   9.004  12.836   8.479
 3233SOL     OW11472   9.402  14.709   6.853
 3233SOL    HW111473   9.348  14.630   6.863
 3233SOL    HW211474   9.397  14.730   6.760
 3234SOL     OW11475  12.736  14.804   5.946
 3234SOL    HW111476  12.826  14.792   5.978
 3234SOL    HW211477  12.683  14.809   6.025
 3235SOL     OW11478   3.322   0.803  13.511
 3235SOL    HW111479   3.335   0.747  13.589
 3235SOL    HW211480   3.341   0.745  13.437
 3236SOL     OW11481  12.813   7.142  12.167
 3236SOL    HW111482  12.862   7.135  12.085
 3236SOL    HW211483  12.826   7.057  12.210
 3237SOL     OW11484   2.315   7.855  13.224
 3237SOL    HW111485   2.336   7.809  13.143
 3237SOL    HW211486   2.222   7.876  13.217
 3238SOL     OW11487  12.062   6.875   4.959
 3238SOL    HW111488  12.139   6.887   5.015
 3238SOL    HW211489  12.001   6.943   4.988
 3239SOL     OW11490   4.986   7.932  12.280
 3239SOL    HW111491   5.021   7.847  12.308
 3239SOL    HW211492   5.059   7.993  12.293
 3240SOL     OW11493   4.181   5.524   9.914
 3240SOL    HW111494   4.190   5.567   9.830
 3240SOL    HW211495   4.143   5.439   9.894
 3241SOL     OW11496   8.957   1.177   9.991
 3241SOL    HW111497   9.029   1.168  10.053
 3241SOL    HW211498   8.877   1.168  10.044
 3242SOL     OW11499   8.209  12.529   4.125
 3242SOL    HW111500   8.207  12.452   4.181
 3242SOL    HW211501   8.117  12.558   4.121
 3243SOL     OW11502  14.352   3.242   8.891
 3243SOL    HW111503  14.353   3.156   8.934
 3243SOL    HW211504  14.268   3.246   8.846
 3244SOL     OW11505   9.604   0.147   7.107
 3244SOL    HW111506   9.525   0.103   7.075
 3244SOL    HW211507   9.586   0.240   7.093
 3245SOL     OW11508   8.123   2.334   2.335
 3245SOL    HW111509   8.131   2.239   2.327
 3245SOL    HW211510   8.105   2.364   2.247
 3246SOL     OW11511   7.868   7.857  10.786
 3246SOL    HW111512   7.865   7.930  10.848
 3246SOL    HW211513   7.921   7.790  10.830
 3247SOL     OW11514  14.278   4.192   7.413
 3247SOL    HW111515  14.224   4.223   7.340
 3247SOL    HW211516  14.278   4.097   7.404
 3248SOL     OW11517   1.066  12.315  11.858
 3248SOL    HW111518   1.129  12.272  11.916
 3248SOL    HW211519   1.005  12.359  11.916
 3249SOL     OW11520   2.662   3.344  14.114
 3249SOL    HW111521   2.689   3.253  14.096
 3249SOL    HW211522   2.687   3.359  14.205
 3250SOL     OW11523   0.957   7.048   5.663
 3250SOL    HW111524   0.872   7.004   5.656
 3250SOL    HW211525   0.936   7.135   5.696
 3251SOL     OW11526   4.437  14.351   2.552
 3251SOL    HW111527   4.424  14.384   2.463
 3251SOL    HW211528   4.348  14.341   2.587
 3252SOL     OW11529   4.142  14.309   1.149
 3252SOL    HW111530   4.178  14.373   1.088
 3252SOL    HW211531   4.160  14.224   1.108
 3253SOL     OW11532   4.708  11.062   6.482
 3253SOL    HW111533   4.628  11.010   6.476
 3253SOL    HW211534   4.778  10.997   6.491
 3254SOL     OW11535  10.506   5.383   2.338
 3254SOL    HW111536  10.599   5.388   2.358
 3254SOL    HW211537  10.480   5.295   2.366
 3255SOL     OW11538   1.295   9.969   9.362
 3255SOL    HW111539   1.378   9.965   9.410
 3255SOL    HW211540   1.317  10.011   9.279
 3256SOL     OW11541   4.627   4.836  13.941
 3256SOL    HW111542   4.553   4.804  13.992
 3256SOL    HW211543   4.589   4.900  13.881
 3257SOL     OW11544   7.061   6.767   1.693
 3257SOL    HW111545   7.140   6.821   1.689
 3257SOL    HW211546   6.989   6.828   1.679
 3258SOL     OW11547   4.870   6.612   7.388
 3258SOL    HW111548   4.913   6.660   7.318
 3258SOL    HW211549   4.928   6.538   7.407
 3259SOL     OW11550  12.554   9.267   2.023
 3259SOL    HW111551  12.530   9.246   2.113
 3259SOL    HW211552  12.560   9.182   1.979
 3260SOL     OW11553  11.304   1.972  12.844
 3260SOL    HW111554  11.251   2.007  12.916
 3260SOL    HW211555  11.369   1.917  12.887
 3261SOL     OW11556   5.494   3.822   7.649
 3261SOL    HW111557   5.571   3.806   7.594
 3261SOL    HW211558   5.425   3.768   7.611
 3262SOL     OW11559   0.194   3.162   6.921
 3262SOL    HW111560   0.186   3.078   6.967
 3262SOL    HW211561   0.143   3.150   6.841
 3263SOL     OW11562  12.477  13.476   4.412
 3263SOL    HW111563  12.395  13.429   4.396
 3263SOL    HW211564  12.543  13.407   4.423
 3264SOL     OW11565  10.643   2.041   7.867
 3264SOL    HW111566  10.658   2.110   7.931
 3264SOL    HW211567  10.660   2.083   7.782
 3265SOL     OW11568  12.587  12.014   3.794
 3265SOL    HW111569  12.539  11.931   3.788
 3265SOL    HW211570  12.531  12.070   3.848
 3266SOL     OW11571   0.095   5.094  14.435
 3266SOL    HW111572   0.082   5.039  14.512
 3266SOL    HW211573   0.114   5.033  14.364
 3267SOL     OW11574   8.401  11.770   5.274
 3267SOL    HW111575   8.305  11.769   5.267
 3267SOL    HW211576   8.422  11.862   5.291
 3268SOL     OW11577  11.766   2.936  10.675
 3268SOL    HW111578  11.796   3.006  10.619
 3268SOL    HW211579  11.704   2.978  10.735
 3269SOL     OW11580   4.370   9.906   4.830
 3269SOL    HW111581   4.392   9.999   4.833
 3269SOL    HW211582   4.367   9.879   4.922
 3270SOL     OW11583  12.290  10.291   2.094
 3270SOL    HW111584  12.267  10.382   2.071
 3270SOL    HW211585  12.258  10.281   2.184
 3271SOL     OW11586   7.077   4.883  14.458
 3271SOL    HW111587   7.008   4.930  14.411
 3271SOL    HW211588   7.029   4.829  14.522
 3272SOL     OW11589   6.653  11.280   8.144
 3272SOL    HW111590   6.689  11.295   8.231
 3272SOL    HW211591   6.648  11.184   8.136
 3273SOL     OW11592   8.410  14.312   7.269
 3273SOL    HW111593   8.416  14.406   7.254
 3273SOL    HW211594   8.316  14.293   7.266
 3274SOL     OW11595   5.604   3.216  10.684
 3274SOL    HW111596   5.528   3.229  10.741
 3274SOL    HW211597   5.668   3.280  10.713
 3275SOL     OW11598  10.759   0.837  13.545
 3275SOL    HW111599  10.768   0.746  13.516
 3275SOL    HW211600  10.831   0.850  13.607
 3276SOL     OW11601  11.840   3.006   0.295
 3276SOL    HW111602  11.853   3.082   0.351
 3276SOL    HW211603  11.810   3.043   0.212
 3277SOL     OW11604   2.311  10.581   3.205
 3277SOL    HW111605   2.401  10.556   3.187
 3277SOL    HW211606   2.318  10.658   3.261
 3278SOL     OW11607   9.875  11.624   1.538
 3278SOL    HW111608   9.861  11.693   1.603
 3278SOL    HW211609   9.908  11.550   1.587
 3279SOL     OW11610  12.955   0.382   5.794
 3279SOL    HW111611  12.900   0.331   5.735
 3279SOL    HW211612  12.918   0.367   5.881
 3280SOL     OW11613   7.293   2.080   3.362
 3280SOL    HW111614   7.225   2.041   3.308
 3280SOL    HW211615   7.248   2.104   3.443
 3281SOL     OW11616  12.108   1.602   1.701
 3281SOL    HW111617  12.083   1.689   1.668
 3281SOL    HW211618  12.044   1.584   1.769
 3282SOL     OW11619   8.561   2.532   8.318
 3282SOL    HW111620   8.505   2.475   8.265
 3282SOL    HW211621   8.500   2.580   8.374
 3283SOL     OW11622   9.612   7.579   4.975
 3283SOL    HW111623   9.563   7.496   4.976
 3283SOL    HW211624   9.625   7.598   4.882
 3284SOL     OW11625  10.754  11.030  12.674
 3284SOL    HW111626  10.831  11.075  12.640
 3284SOL    HW211627  10.767  10.938  12.651
 3285SOL     OW11628   5.171  12.535   9.556
 3285SOL    HW111629   5.131  12.497   9.478
 3285SOL    HW211630   5.225  12.464   9.592
 3286SOL     OW11631  11.557   6.422   0.369
 3286SOL    HW111632  11.537   6.457   0.456
 3286SOL    HW211633  11.473   6.391   0.336
 3287SOL     OW11634   0.010  12.140   3.277
 3287SOL    HW111635   0.038  12.049   3.266
 3287SOL    HW211636   0.078  12.192   3.234
 3288SOL     OW11637  12.764   1.606  11.451
 3288SOL    HW111638  12.763   1.694  11.413
 3288SOL    HW211639  12.784   1.548  11.378
 3289SOL     OW11640   3.262  14.436   0.168
 3289SOL    HW111641   3.202  14.489   0.116
 3289SOL    HW211642   3.348  14.478   0.156
 3290SOL     OW11643  12.660   4.598   5.846
 3290SOL    HW111644  12.702   4.578   5.762
 3290SOL    HW211645  12.613   4.518   5.869
 3291SOL     OW11646   4.602   0.117   8.188
 3291SOL    HW111647   4.670   0.112   8.255
 3291SOL    HW211648   4.520   0.123   8.238
 3292SOL     OW11649   8.576   2.995  13.903
 3292SOL    HW111650   8.560   3.039  13.819
 3292SOL    HW211651   8.489   2.972  13.935
 3293SOL     OW11652   7.768   1.843  11.804
 3293SOL    HW111653   7.721   1.894  11.870
 3293SOL    HW211654   7.712   1.767  11.787
 3294SOL     OW11655   1.041   1.497   7.789
 3294SOL    HW111656   1.129   1.465   7.811
 3294SOL    HW211657   1.013   1.439   7.718
 3295SOL     OW11658   8.163   7.520  11.858
 3295SOL    HW111659   8.219   7.597  11.855
 3295SOL    HW211660   8.117   7.520  11.774
 3296SOL     OW11661   1.694  13.838   3.781
 3296SOL    HW111662   1.762  13.812   3.843
 3296SOL    HW211663   1.742  13.869   3.704
 3297SOL     OW11664   8.313   7.313   9.602
 3297SOL    HW111665   8.304   7.254   9.676
 3297SOL    HW211666   8.406   7.334   9.599
 3298SOL     OW11667   2.851   1.499  10.024
 3298SOL    HW111668   2.845   1.440   9.949
 3298SOL    HW211669   2.945   1.512  10.037
 3299SOL     OW11670  13.238   5.054   8.188
 3299SOL    HW111671  13.204   5.017   8.106
 3299SOL    HW211672  13.260   4.978   8.242
 3300SOL     OW11673   5.520   1.952  13.565
 3300SOL    HW111674   5.466   1.877  13.590
 3300SOL    HW211675   5.457   2.025  13.559
 3301SOL     OW11676   8.241   6.352   1.969
 3301SOL    HW111677   8.283   6.308   1.895
 3301SOL    HW211678   8.163   6.299   1.987
 3302SOL     OW11679   9.380   0.482   3.214
 3302SOL    HW111680   9.315   0.481   3.143
 3302SOL    HW211681   9.330   0.507   3.292
 3303SOL     OW11682   9.138   4.651   9.832
 3303SOL    HW111683   9.067   4.715   9.825
 3303SOL    HW211684   9.107   4.588   9.897
 3304SOL     OW11685  13.731  14.519   3.084
 3304SOL    HW111686  13.664  14.465   3.126
 3304SOL    HW211687  13.685  14.600   3.061
 3305SOL     OW11688   7.879   0.631   9.960
 3305SOL    HW111689   7.959   0.669   9.997
 3305SOL    HW211690   7.910   0.558   9.907
 3306SOL     OW11691   3.408  10.780  12.939
 3306SOL    HW111692   3.419  10.697  12.986
 3306SOL    HW211693   3.497  10.809  12.921
 3307SOL     OW11694  12.258  12.832  13.402
 3307SOL    HW111695  12.187  12.793  13.452
 3307SOL    HW211696  12.215  12.893  13.342
 3308SOL     OW11697  12.704   4.147   4.764
 3308SOL    HW111698  12.681   4.147   4.857
 3308SOL    HW211699  12.771   4.080   4.756
 3309SOL     OW11700   6.052   3.798   8.420
 3309SOL    HW111701   6.087   3.874   8.372
 3309SOL    HW211702   5.999   3.836   8.490
 3310SOL     OW11703   5.670   9.612  13.539
 3310SOL    HW111704   5.645   9.520  13.542
 3310SOL    HW211705   5.722   9.620  13.459
 3311SOL     OW11706   8.908  13.196  12.819
 3311SOL    HW111707   8.884  13.286  12.842
 3311SOL    HW211708   8.954  13.204  12.735
 3312SOL     OW11709  12.095   9.067   6.216
 3312SOL    HW111710  12.141   9.105   6.141
 3312SOL    HW211711  12.028   9.011   6.177
 3313SOL     OW11712   5.185  13.857  11.667
 3313SOL    HW111713   5.236  13.788  11.625
 3313SOL    HW211714   5.115  13.877  11.605
 3314SOL     OW11715   0.577  11.011   7.133
 3314SOL    HW111716   0.497  10.959   7.120
 3314SOL    HW211717   0.638  10.950   7.173
 3315SOL     OW11718   4.994   7.793   4.895
 3315SOL    HW111719   5.017   7.802   4.802
 3315SOL    HW211720   5.055   7.852   4.940
 3316SOL     OW11721   0.796   3.447   4.353
 3316SOL    HW111722   0.737   3.384   4.314
 3316SOL    HW211723   0.788   3.432   4.448
 3317SOL     OW11724  13.378   5.893   3.712
 3317SOL    HW111725  13.299   5.906   3.661
 3317SOL    HW211726  13.350   5.905   3.803
 3318SOL     OW11727   4.907   9.958   9.986
 3318SOL    HW111728   4.838  10.013   9.948
 3318SOL    HW211729   4.880   9.869   9.966
 3319SOL     OW11730   3.003   3.664   5.700
 3319SOL    HW111731   2.934   3.729   5.688
 3319SOL    HW211732   3.000   3.611   5.620
 3320SOL     OW11733  12.016   3.599   5.526
 3320SOL    HW111734  11.985   3.569   5.440
 3320SOL    HW211735  11.940   3.590   5.584
 3321SOL     OW11736  11.757   3.128   6.030
 3321SOL    HW111737  11.741   3.217   6.061
 3321SOL    HW211738  11.691   3.075   6.074
 3322SOL     OW11739   9.092   8.177   6.326
 3322SOL    HW111740   9.041   8.187   6.245
 3322SOL    HW211741   9.066   8.092   6.360
 3323SOL     OW11742   1.858   4.377   6.995
 3323SOL    HW111743   1.871   4.470   6.975
 3323SOL    HW211744   1.830   4.338   6.912
 3324SOL     OW11745   1.961  14.728   7.236
 3324SOL    HW111746   2.019  14.670   7.285
 3324SOL    HW211747   1.878  14.681   7.231
 3325SOL     OW11748   1.283  13.302   2.204
 3325SOL    HW111749   1.331  13.297   2.121
 3325SOL    HW211750   1.264  13.210   2.226
 3326SOL     OW11751  14.357   5.062   3.615
 3326SOL    HW111752  14.446   5.054   3.649
 3326SOL    HW211753  14.363   5.128   3.547
 3327SOL     OW11754   7.096  11.896   3.015
 3327SOL    HW111755   7.035  11.863   2.949
 3327SOL    HW211756   7.160  11.947   2.965
 3328SOL     OW11757   1.681  12.677   0.384
 3328SOL    HW111758   1.688  12.633   0.468
 3328SOL    HW211759   1.760  12.652   0.336
 3329SOL     OW11760   9.338   7.746   6.729
 3329SOL    HW111761   9.307   7.783   6.812
 3329SOL    HW211762   9.429   7.721   6.748
 3330SOL     OW11763  12.677   7.535   5.128
 3330SOL    HW111764  12.666   7.593   5.203
 3330SOL    HW211765  12.736   7.467   5.158
 3331SOL     OW11766   4.346   4.418   0.414
 3331SOL    HW111767   4.338   4.323   0.402
 3331SOL    HW211768   4.298   4.456   0.341
 3332SOL     OW11769  10.782  14.203   3.574
 3332SOL    HW111770  10.690  14.202   3.545
 3332SOL    HW211771  10.822  14.274   3.524
 3333SOL     OW11772  13.577  11.470   3.458
 3333SOL    HW111773  13.583  11.374   3.463
 3333SOL    HW211774  13.562  11.488   3.365
 3334SOL     OW11775   9.552   3.133   1.091
 3334SOL    HW111776   9.512   3.055   1.130
 3334SOL    HW211777   9.632   3.147   1.141
 3335SOL     OW11778   9.722  12.304  12.919
 3335SOL    HW111779   9.661  12.353  12.865
 3335SOL    HW211780   9.679  12.220  12.934
 3336SOL     OW11781  11.368   7.768   0.868
 3336SOL    HW111782  11.335   7.737   0.952
 3336SOL    HW211783  11.463   7.766   0.877
 3337SOL     OW11784   7.956   1.687   4.212
 3337SOL    HW111785   7.923   1.715   4.127
 3337SOL    HW211786   8.048   1.663   4.196
 3338SOL     OW11787   3.684   0.262   4.210
 3338SOL    HW111788   3.645   0.337   4.256
 3338SOL    HW211789   3.777   0.268   4.230
 3339SOL     OW11790   8.954  12.529   2.257
 3339SOL    HW111791   9.005  12.512   2.336
 3339SOL    HW211792   9.012  12.505   2.185
 3340SOL     OW11793   4.339   7.235   9.918
 3340SOL    HW111794   4.252   7.196   9.906
 3340SOL    HW211795   4.395   7.162   9.945
 3341SOL     OW11796   7.603  11.683   5.947
 3341SOL    HW111797   7.658  11.741   5.895
 3341SOL    HW211798   7.621  11.596   5.912
 3342SOL     OW11799   5.692   8.398   7.689
 3342SOL    HW111800   5.778   8.371   7.657
 3342SOL    HW211801   5.659   8.321   7.735
 3343SOL     OW11802   7.252   3.656   7.560
 3343SOL    HW111803   7.167   3.650   7.605
 3343SOL    HW211804   7.233   3.629   7.471
 3344SOL     OW11805   1.877  10.934   0.571
 3344SOL    HW111806   1.901  10.880   0.495
 3344SOL    HW211807   1.889  11.024   0.541
 3345SOL     OW11808   9.730   3.160   8.834
 3345SOL    HW111809   9.720   3.090   8.898
 3345SOL    HW211810   9.775   3.230   8.881
 3346SOL     OW11811  11.368   8.312   9.178
 3346SOL    HW111812  11.422   8.301   9.100
 3346SOL    HW211813  11.338   8.403   9.174
 3347SOL     OW11814   7.080  11.842   4.495
 3347SOL    HW111815   7.107  11.844   4.587
 3347SOL    HW211816   7.012  11.910   4.488
 3348SOL     OW11817   1.836   1.001   3.056
 3348SOL    HW111818   1.826   1.048   3.139
 3348SOL    HW211819   1.836   0.909   3.080
 3349SOL     OW11820   5.419   9.689   3.164
 3349SOL    HW111821   5.420   9.785   3.167
 3349SOL    HW211822   5.465   9.663   3.244
 3350SOL     OW11823   0.692   1.067   1.158
 3350SOL    HW111824   0.696   1.094   1.066
 3350SOL    HW211825   0.598   1.065   1.179
 3351SOL     OW11826  14.199   9.259   8.778
 3351SOL    HW111827  14.287   9.226   8.792
 3351SOL    HW211828  14.153   9.187   8.734
 3352SOL     OW11829  11.830   7.596   9.443
 3352SOL    HW111830  11.838   7.610   9.537
 3352SOL    HW211831  11.783   7.673   9.411
 3353SOL     OW11832   7.165   0.898   2.215
 3353SOL    HW111833   7.103   0.931   2.280
 3353SOL    HW211834   7.252   0.917   2.252
 3354SOL     OW11835   3.201  13.726   0.026
 3354SOL    HW111836   3.234  13.784   0.094
 3354SOL    HW211837   3.223  13.638   0.057
 3355SOL     OW11838   9.517   2.169  10.506
 3355SOL    HW111839   9.436   2.194  10.462
 3355SOL    HW211840   9.567   2.121  10.440
 3356SOL     OW11841   4.331   1.267   6.983
 3356SOL    HW111842   4.374   1.333   7.036
 3356SOL    HW211843   4.370   1.276   6.896
 3357SOL     OW11844  14.640   3.173   6.934
 3357SOL    HW111845  14.727   3.185   6.974
 3357SOL    HW211846  14.645   3.221   6.851
 3358SOL     OW11847   2.819   4.200  12.371
 3358SOL    HW111848   2.791   4.281  12.329
 3358SOL    HW211849   2.779   4.131  12.320
 3359SOL     OW11850   4.652   1.532  13.446
 3359SOL    HW111851   4.627   1.478  13.521
 3359SOL    HW211852   4.688   1.470  13.383
 3360SOL     OW11853   3.582  11.638   9.219
 3360SOL    HW111854   3.656  11.679   9.264
 3360SOL    HW211855   3.505  11.664   9.270
 3361SOL     OW11856  13.458   0.010   0.924
 3361SOL    HW111857  13.428  14.821   0.986
 3361SOL    HW211858  13.393   0.008   0.854
 3362SOL     OW11859  14.432   8.097   4.169
 3362SOL    HW111860  14.498   8.138   4.113
 3362SOL    HW211861  14.370   8.058   4.108
 3363SOL     OW11862  11.786  13.347  13.044
 3363SOL    HW111863  11.727  13.420  13.063
 3363SOL    HW211864  11.837  13.336  13.124
 3364SOL     OW11865  10.145   8.269  10.999
 3364SOL    HW111866  10.102   8.343  11.041
 3364SOL    HW211867  10.089   8.248  10.924
 3365SOL     OW11868  12.070  12.461  10.850
 3365SOL    HW111869  11.989  12.463  10.799
 3365SOL    HW211870  12.108  12.375  10.830
 3366SOL     OW11871   5.814   3.579  14.029
 3366SOL    HW111872   5.779   3.657  14.074
 3366SOL    HW211873   5.775   3.506  14.076
 3367SOL     OW11874   9.298   7.370   9.763
 3367SOL    HW111875   9.212   7.411   9.776
 3367SOL    HW211876   9.351   7.437   9.721
 3368SOL     OW11877  13.733  13.569   3.440
 3368SOL    HW111878  13.760  13.601   3.527
 3368SOL    HW211879  13.665  13.630   3.413
 3369SOL     OW11880   5.146   9.834   5.755
 3369SOL    HW111881   5.149   9.792   5.841
 3369SOL    HW211882   5.216   9.900   5.758
 3370SOL     OW11883   8.871   8.867  13.265
 3370SOL    HW111884   8.782   8.897  13.282
 3370SOL    HW211885   8.927   8.930  13.312
 3371SOL     OW11886  11.253   9.577  13.278
 3371SOL    HW111887  11.339   9.598  13.240
 3371SOL    HW211888  11.227   9.495  13.234
 3372SOL     OW11889  14.425   5.700  12.209
 3372SOL    HW111890  14.338   5.667  12.230
 3372SOL    HW211891  14.409   5.775  12.150
 3373SOL     OW11892   5.629  10.290   8.116
 3373SOL    HW111893   5.619  10.300   8.022
 3373SOL    HW211894   5.670  10.371   8.145
 3374SOL     OW11895   5.199   2.389  11.142
 3374SOL    HW111896   5.256   2.401  11.219
 3374SOL    HW211897   5.116   2.430  11.167
 3375SOL     OW11898   3.374   8.412   8.981
 3375SOL    HW111899   3.434   8.456   8.921
 3375SOL    HW211900   3.420   8.332   9.006
 3376SOL     OW11901   3.355  10.229  13.063
 3376SOL    HW111902   3.286  10.168  13.034
 3376SOL    HW211903   3.323  10.315  13.036
 3377SOL     OW11904   5.996   3.267   2.134
 3377SOL    HW111905   6.039   3.304   2.057
 3377SOL    HW211906   6.006   3.333   2.202
 3378SOL     OW11907   4.980  14.229   8.413
 3378SOL    HW111908   5.034  14.307   8.405
 3378SOL    HW211909   4.893  14.262   8.436
 3379SOL     OW11910  12.473   5.553   3.414
 3379SOL    HW111911  12.484   5.646   3.394
 3379SOL    HW211912  12.385   5.533   3.381
 3380SOL     OW11913  13.776   3.261  13.208
 3380SOL    HW111914  13.730   3.336  13.172
 3380SOL    HW211915  13.736   3.247  13.294
 3381SOL     OW11916   3.166   1.352   9.899
 3381SOL    HW111917   3.261   1.352   9.912
 3381SOL    HW211918   3.135   1.429   9.946
 3382SOL     OW11919   0.276  13.170  12.304
 3382SOL    HW111920   0.183  13.159  12.285
 3382SOL    HW211921   0.279  13.237  12.373
 3383SOL     OW11922   9.815  11.980   9.395
 3383SOL    HW111923   9.768  12.052   9.353
 3383SOL    HW211924   9.755  11.948   9.463
 3384SOL     OW11925  11.497   9.038   3.317
 3384SOL    HW111926  11.479   9.012   3.227
 3384SOL    HW211927  11.519   9.131   3.311
 3385SOL     OW11928   3.238  12.080  12.672
 3385SOL    HW111929   3.308  12.142  12.692
 3385SOL    HW211930   3.209  12.047  12.758
 3386SOL     OW11931  11.185   5.810  13.853
 3386SOL    HW111932  11.269   5.848  13.879
 3386SOL    HW211933  11.121   5.878  13.873
 3387SOL     OW11934  11.705  12.881   1.668
 3387SOL    HW111935  11.669  12.968   1.684
 3387SOL    HW211936  11.636  12.821   1.696
 3388SOL     OW11937  11.036   0.358   1.700
 3388SOL    HW111938  10.998   0.284   1.652
 3388SOL    HW211939  10.965   0.422   1.704
 3389SOL     OW11940   0.297  14.475  13.065
 3389SOL    HW111941   0.276  14.550  13.121
 3389SOL    HW211942   0.283  14.507  12.976
 3390SOL     OW11943  14.649   0.905   0.357
 3390SOL    HW111944  14.632   0.924   0.449
 3390SOL    HW211945  14.713   0.972   0.330
 3391SOL     OW11946   0.041   2.738   8.345
 3391SOL    HW111947   0.119   2.782   8.380
 3391SOL    HW211948  14.852   2.807   8.342
 3392SOL     OW11949  14.365   5.152   0.100
 3392SOL    HW111950  14.298   5.215   0.073
 3392SOL    HW211951  14.411   5.195   0.172
 3393SOL     OW11952   9.336   3.394  13.839
 3393SOL    HW111953   9.280   3.321  13.814
 3393SOL    HW211954   9.284   3.443  13.904
 3394SOL     OW11955   4.770  10.553  11.736
 3394SOL    HW111956   4.835  10.602  11.686
 3394SOL    HW211957   4.689  10.603  11.724
 3395SOL     OW11958  14.476   2.207   6.647
 3395SOL    HW111959  14.422   2.159   6.709
 3395SOL    HW211960  14.424   2.284   6.625
 3396SOL     OW11961  13.573  10.513   5.452
 3396SOL    HW111962  13.526  10.437   5.419
 3396SOL    HW211963  13.517  10.548   5.522
 3397SOL     OW11964   6.510  12.584   2.403
 3397SOL    HW111965   6.513  12.661   2.460
 3397SOL    HW211966   6.598  12.546   2.411
 3398SOL     OW11967  14.569   6.162   5.042
 3398SOL    HW111968  14.573   6.070   5.066
 3398SOL    HW211969  14.480   6.174   5.009
 3399SOL     OW11970   3.181  13.181  14.268
 3399SOL    HW111971   3.269  13.211  14.246
 3399SOL    HW211972   3.195  13.099  14.315
 3400SOL     OW11973  11.139   9.573   2.639
 3400SOL    HW111974  11.054   9.536   2.613
 3400SOL    HW211975  11.133   9.665   2.612
 3401SOL     OW11976   7.714  11.053   1.679
 3401SOL    HW111977   7.676  11.017   1.760
 3401SOL    HW211978   7.761  11.131   1.708
 3402SOL     OW11979  12.077   2.925  12.242
 3402SOL    HW111980  11.985   2.915  12.264
 3402SOL    HW211981  12.082   3.011  12.199
 3403SOL     OW11982   9.333  13.749  10.558
 3403SOL    HW111983   9.322  13.787  10.645
 3403SOL    HW211984   9.263  13.684  10.550
 3404SOL     OW11985   4.562   5.258   0.053
 3404SOL    HW111986   4.518   5.343   0.058
 3404SOL    HW211987   4.632   5.272  14.866
 3405SOL     OW11988   6.399   5.342   6.645
 3405SOL    HW111989   6.441   5.263   6.679
 3405SOL    HW211990   6.311   5.314   6.621
 3406SOL     OW11991   5.467   5.136   5.900
 3406SOL    HW111992   5.441   5.047   5.923
 3406SOL    HW211993   5.432   5.150   5.812
 3407SOL     OW11994   5.008   4.858  13.686
 3407SOL    HW111995   4.965   4.910  13.755
 3407SOL    HW211996   4.944   4.791  13.662
 3408SOL     OW11997   6.223   5.923   8.271
 3408SOL    HW111998   6.185   5.927   8.183
 3408SOL    HW211999   6.312   5.890   8.257
 3409SOL     OW12000   3.042   5.305   6.311
 3409SOL    HW112001   2.978   5.289   6.242
 3409SOL    HW212002   3.069   5.217   6.339
 3410SOL     OW12003   5.202   2.809   3.325
 3410SOL    HW112004   5.211   2.728   3.375
 3410SOL    HW212005   5.261   2.798   3.250
 3411SOL     OW12006  10.365  13.214   2.534
 3411SOL    HW112007  10.416  13.232   2.613
 3411SOL    HW212008  10.309  13.291   2.523
 3412SOL     OW12009   5.408  11.292   6.557
 3412SOL    HW112010   5.339  11.340   6.511
 3412SOL    HW212011   5.489  11.336   6.532
 3413SOL     OW12012   6.899   1.872   1.734
 3413SOL    HW112013   6.989   1.904   1.741
 3413SOL    HW212014   6.866   1.911   1.654
 3414SOL     OW12015  13.927   3.231   2.671
 3414SOL    HW112016  13.938   3.265   2.582
 3414SOL    HW212017  14.015   3.235   2.710
 3415SOL     OW12018   0.209   4.090   5.407
 3415SOL    HW112019   0.117   4.110   5.393
 3415SOL    HW212020   0.246   4.170   5.445
 3416SOL     OW12021   8.416   9.587   9.764
 3416SOL    HW112022   8.398   9.530   9.689
 3416SOL    HW212023   8.511   9.591   9.769
 3417SOL     OW12024  12.996   7.958   2.220
 3417SOL    HW112025  13.011   7.970   2.314
 3417SOL    HW212026  12.949   7.874   2.214
 3418SOL     OW12027   5.136   2.235   9.697
 3418SOL    HW112028   5.142   2.141   9.715
 3418SOL    HW212029   5.195   2.276   9.761
 3419SOL     OW12030   9.374  12.364   7.050
 3419SOL    HW112031   9.447  12.340   7.107
 3419SOL    HW212032   9.415  12.407   6.975
 3420SOL     OW12033   8.264   3.413  10.271
 3420SOL    HW112034   8.323   3.340  10.253
 3420SOL    HW212035   8.195   3.405  10.206
 3421SOL     OW12036   0.500   5.696   6.337
 3421SOL    HW112037   0.535   5.622   6.387
 3421SOL    HW212038   0.461   5.657   6.259
 3422SOL     OW12039   8.425   6.255   7.548
 3422SOL    HW112040   8.430   6.339   7.503
 3422SOL    HW212041   8.509   6.247   7.592
 3423SOL     OW12042   0.613   5.651   3.558
 3423SOL    HW112043   0.584   5.737   3.588
 3423SOL    HW212044   0.612   5.597   3.638
 3424SOL     OW12045   2.063   9.908   7.235
 3424SOL    HW112046   2.133   9.958   7.276
 3424SOL    HW212047   2.075   9.922   7.141
 3425SOL     OW12048   2.201  13.626   1.935
 3425SOL    HW112049   2.203  13.535   1.907
 3425SOL    HW212050   2.108  13.645   1.946
 3426SOL     OW12051  11.599   1.708  10.100
 3426SOL    HW112052  11.519   1.719  10.049
 3426SOL    HW212053  11.640   1.629  10.064
 3427SOL     OW12054   0.803  10.618  11.993
 3427SOL    HW112055   0.859  10.614  12.070
 3427SOL    HW212056   0.727  10.564  12.016
 3428SOL     OW12057   7.702   4.246   8.434
 3428SOL    HW112058   7.768   4.292   8.382
 3428SOL    HW212059   7.618   4.281   8.403
 3429SOL     OW12060  11.165   5.492   7.664
 3429SOL    HW112061  11.083   5.443   7.672
 3429SOL    HW212062  11.157   5.538   7.581
 3430SOL     OW12063   0.398   1.730   7.601
 3430SOL    HW112064   0.407   1.800   7.666
 3430SOL    HW212065   0.394   1.776   7.517
 3431SOL     OW12066   5.027   5.710  10.805
 3431SOL    HW112067   5.121   5.726  10.796
 3431SOL    HW212068   4.991   5.724  10.718
 3432SOL     OW12069   1.219   1.643   9.670
 3432SOL    HW112070   1.178   1.557   9.661
 3432SOL    HW212071   1.275   1.635   9.747
 3433SOL     OW12072  10.121   8.402  13.642
 3433SOL    HW112073  10.126   8.332  13.577
 3433SOL    HW212074  10.045   8.454  13.616
 3434SOL     OW12075   3.366  13.770   0.785
 3434SOL    HW112076   3.415  13.688   0.795
 3434SOL    HW212077   3.396  13.806   0.701
 3435SOL     OW12078   5.546   3.443   4.728
 3435SOL    HW112079   5.533   3.503   4.801
 3435SOL    HW212080   5.635   3.410   4.740
 3436SOL     OW12081   3.473   5.033  13.181
 3436SOL    HW112082   3.541   5.072  13.236
 3436SOL    HW212083   3.461   5.096  13.110
 3437SOL     OW12084   8.105   4.702  13.994
 3437SOL    HW112085   8.164   4.653  14.051
 3437SOL    HW212086   8.095   4.647  13.917
 3438SOL     OW12087   6.009   7.965   6.180
 3438SOL    HW112088   6.082   7.913   6.215
 3438SOL    HW212089   6.007   7.943   6.087
 3439SOL     OW12090   5.936   8.812   3.939
 3439SOL    HW112091   5.966   8.763   3.862
 3439SOL    HW212092   5.998   8.884   3.947
 3440SOL     OW12093  14.134   4.401   8.955
 3440SOL    HW112094  14.158   4.310   8.973
 3440SOL    HW212095  14.040   4.399   8.939
 3441SOL     OW12096   2.820   7.065  12.694
 3441SOL    HW112097   2.907   7.028  12.680
 3441SOL    HW212098   2.769   6.995  12.733
 3442SOL     OW12099   1.276   9.447   9.039
 3442SOL    HW112100   1.327   9.400   9.104
 3442SOL    HW212101   1.196   9.474   9.085
 3443SOL     OW12102  10.352   0.753  13.223
 3443SOL    HW112103  10.436   0.707  13.224
 3443SOL    HW212104  10.329   0.764  13.315
 3444SOL     OW12105  11.088   5.282  12.341
 3444SOL    HW112106  11.175   5.264  12.378
 3444SOL    HW212107  11.048   5.343  12.403
 3445SOL     OW12108   1.432  14.318  11.082
 3445SOL    HW112109   1.408  14.299  11.173
 3445SOL    HW212110   1.520  14.283  11.072
 3446SOL     OW12111  10.513  12.776   5.807
 3446SOL    HW112112  10.554  12.696   5.838
 3446SOL    HW212113  10.585  12.827   5.769
 3447SOL     OW12114  12.290  10.441  11.433
 3447SOL    HW112115  12.342  10.487  11.367
 3447SOL    HW212116  12.244  10.511  11.480
 3448SOL     OW12117   7.489   4.710   2.238
 3448SOL    HW112118   7.456   4.741   2.153
 3448SOL    HW212119   7.572   4.757   2.249
 3449SOL     OW12120  13.873   3.980   8.572
 3449SOL    HW112121  13.922   3.978   8.655
 3449SOL    HW212122  13.803   4.044   8.587
 3450SOL     OW12123  11.683   5.116   5.181
 3450SOL    HW112124  11.671   5.051   5.250
 3450SOL    HW212125  11.731   5.187   5.223
 3451SOL     OW12126   4.274  10.627   1.400
 3451SOL    HW112127   4.263  10.620   1.305
 3451SOL    HW212128   4.217  10.701   1.425
 3452SOL     OW12129  13.256  14.210  10.740
 3452SOL    HW112130  13.202  14.145  10.695
 3452SOL    HW212131  13.272  14.277  10.674
 3453SOL     OW12132   1.515   9.675   3.943
 3453SOL    HW112133   1.587   9.629   3.986
 3453SOL    HW212134   1.546   9.765   3.934
 3454SOL     OW12135   3.219   3.075   1.800
 3454SOL    HW112136   3.254   3.078   1.711
 3454SOL    HW212137   3.168   3.156   1.808
 3455SOL     OW12138   0.073   8.139  13.431
 3455SOL    HW112139   0.066   8.064  13.373
 3455SOL    HW212140   0.116   8.105  13.510
 3456SOL     OW12141   2.830   2.223   8.936
 3456SOL    HW112142   2.898   2.246   8.873
 3456SOL    HW212143   2.861   2.143   8.978
 3457SOL     OW12144   9.935   2.185   7.389
 3457SOL    HW112145  10.029   2.167   7.394
 3457SOL    HW212146   9.928   2.260   7.330
 3458SOL     OW12147   2.796   0.057   1.510
 3458SOL    HW112148   2.823   0.037   1.421
 3458SOL    HW212149   2.704   0.085   1.501
 3459SOL     OW12150   1.077  11.312   4.897
 3459SOL    HW112151   1.132  11.391   4.902
 3459SOL    HW212152   1.022  11.316   4.975
 3460SOL     OW12153   6.261   8.190   9.180
 3460SOL    HW112154   6.331   8.250   9.206
 3460SOL    HW212155   6.182   8.228   9.219
 3461SOL     OW12156  13.966  13.848   4.021
 3461SOL    HW112157  13.881  13.813   4.048
 3461SOL    HW212158  13.951  13.942   4.011
 3462SOL     OW12159   7.937  14.763   8.787
 3462SOL    HW112160   7.950  14.712   8.867
 3462SOL    HW212161   7.938  14.698   8.717
 3463SOL     OW12162  14.524   9.979   7.763
 3463SOL    HW112163  14.514   9.885   7.748
 3463SOL    HW212164  14.440  10.006   7.799
 3464SOL     OW12165   9.915  11.735  12.617
 3464SOL    HW112166   9.998  11.687  12.605
 3464SOL    HW212167   9.928  11.818  12.571
 3465SOL     OW12168   0.479   6.203   2.760
 3465SOL    HW112169   0.443   6.198   2.848
 3465SOL    HW212170   0.409   6.242   2.707
 3466SOL     OW12171   3.024  13.407   9.530
 3466SOL    HW112172   3.086  13.388   9.601
 3466SOL    HW212173   3.076  13.453   9.465
 3467SOL     OW12174  11.977  10.637   4.886
 3467SOL    HW112175  12.020  10.663   4.805
 3467SOL    HW212176  12.023  10.558   4.914
 3468SOL     OW12177   2.206  10.462  10.024
 3468SOL    HW112178   2.193  10.457  10.119
 3468SOL    HW212179   2.219  10.371   9.997
 3469SOL     OW12180   7.385   2.169   8.696
 3469SOL    HW112181   7.300   2.180   8.654
 3469SOL    HW212182   7.416   2.084   8.666
 3470SOL     OW12183   1.484  12.995   7.030
 3470SOL    HW112184   1.464  12.948   7.110
 3470SOL    HW212185   1.579  13.009   7.032
 3471SOL     OW12186   8.822   1.542  10.484
 3471SOL    HW112187   8.746   1.488  10.506
 3471SOL    HW212188   8.796   1.631  10.508
 3472SOL     OW12189  11.135  12.304   1.784
 3472SOL    HW112190  11.082  12.261   1.717
 3472SOL    HW212191  11.137  12.242   1.857
 3473SOL     OW12192   5.057   3.679   4.364
 3473SOL    HW112193   4.963   3.695   4.371
 3473SOL    HW212194   5.090   3.695   4.453
 3474SOL     OW12195   1.733   2.810  10.236
 3474SOL    HW112196   1.801   2.759  10.280
 3474SOL    HW212197   1.747   2.900  10.267
 3475SOL     OW12198  11.161   1.916  10.684
 3475SOL    HW112199  11.199   1.831  10.661
 3475SOL    HW212200  11.227   1.957  10.739
 3476SOL     OW12201   7.575  12.719   3.848
 3476SOL    HW112202   7.525  12.664   3.908
 3476SOL    HW212203   7.509  12.759   3.792
 3477SOL     OW12204   6.356   4.530  12.126
 3477SOL    HW112205   6.310   4.552  12.045
 3477SOL    HW212206   6.382   4.614  12.163
 3478SOL     OW12207   7.525  13.626   2.077
 3478SOL    HW112208   7.555  13.677   2.002
 3478SOL    HW212209   7.582  13.549   2.079
 3479SOL     OW12210  11.545   6.194   9.857
 3479SOL    HW112211  11.509   6.232   9.937
 3479SOL    HW212212  11.469   6.182   9.800
 3480SOL     OW12213   4.626   5.209  12.348
 3480SOL    HW112214   4.714   5.215  12.310
 3480SOL    HW212215   4.640   5.206  12.442
 3481SOL     OW12216  14.590  10.228   1.262
 3481SOL    HW112217  14.581  10.154   1.322
 3481SOL    HW212218  14.638  10.193   1.188
 3482SOL     OW12219  10.288  13.693   0.292
 3482SOL    HW112220  10.268  13.680   0.385
 3482SOL    HW212221  10.213  13.741   0.258
 3483SOL     OW12222   0.896   5.175   1.878
 3483SOL    HW112223   0.817   5.215   1.915
 3483SOL    HW212224   0.965   5.198   1.940
 3484SOL     OW12225   5.757  10.161  13.427
 3484SOL    HW112226   5.846  10.193  13.419
 3484SOL    HW212227   5.754  10.118  13.512
 3485SOL     OW12228   7.026   8.120  10.769
 3485SOL    HW112229   7.084   8.055  10.808
 3485SOL    HW212230   6.946   8.115  10.821
 3486SOL     OW12231  12.532   4.712   2.668
 3486SOL    HW112232  12.518   4.774   2.739
 3486SOL    HW212233  12.471   4.740   2.599
 3487SOL     OW12234  10.966  12.389   9.957
 3487SOL    HW112235  10.943  12.439   9.878
 3487SOL    HW212236  10.997  12.305   9.924
 3488SOL     OW12237   1.898   4.529   1.886
 3488SOL    HW112238   1.829   4.588   1.918
 3488SOL    HW212239   1.962   4.588   1.845
 3489SOL     OW12240  12.537  11.385  14.822
 3489SOL    HW112241  12.506  11.295  14.831
 3489SOL    HW212242  12.576  11.389  14.735
 3490SOL     OW12243  11.029   9.005   8.705
 3490SOL    HW112244  10.992   8.920   8.731
 3490SOL    HW212245  10.953   9.058   8.683
 3491SOL     OW12246   6.666   2.845   9.990
 3491SOL    HW112247   6.678   2.894   9.908
 3491SOL    HW212248   6.708   2.761   9.974
 3492SOL     OW12249  11.504   8.480  10.091
 3492SOL    HW112250  11.449   8.475  10.013
 3492SOL    HW212251  11.535   8.571  10.093
 3493SOL     OW12252   9.035   9.585   1.317
 3493SOL    HW112253   9.060   9.496   1.290
 3493SOL    HW212254   9.118   9.630   1.329
 3494SOL     OW12255   6.310   4.261   4.151
 3494SOL    HW112256   6.297   4.188   4.210
 3494SOL    HW212257   6.402   4.257   4.126
 3495SOL     OW12258  10.527   9.310  11.014
 3495SOL    HW112259  10.453   9.262  10.978
 3495SOL    HW212260  10.504   9.327  11.105
 3496SOL     OW12261   6.912   0.181  14.550
 3496SOL    HW112262   6.994   0.220  14.579
 3496SOL    HW212263   6.869   0.151  14.630
 3497SOL     OW12264   1.573  13.976   6.224
 3497SOL    HW112265   1.541  14.066   6.210
 3497SOL    HW212266   1.516  13.941   6.292
 3498SOL     OW12267   5.198   2.511   9.971
 3498SOL    HW112268   5.263   2.462   9.920
 3498SOL    HW212269   5.185   2.457  10.049
 3499SOL     OW12270   3.733  13.733   1.863
 3499SOL    HW112271   3.666  13.680   1.906
 3499SOL    HW212272   3.816  13.694   1.890
 3500SOL     OW12273  11.538   7.121   7.059
 3500SOL    HW112274  11.484   7.184   7.010
 3500SOL    HW212275  11.568   7.170   7.136
 3501SOL     OW12276   0.459   9.803  12.695
 3501SOL    HW112277   0.524   9.863  12.659
 3501SOL    HW212278   0.376   9.834  12.660
 3502SOL     OW12279   7.976  11.116   8.763
 3502SOL    HW112280   7.922  11.179   8.715
 3502SOL    HW212281   7.949  11.126   8.854
 3503SOL     OW12282  10.918  10.367   9.057
 3503SOL    HW112283  10.883  10.319   9.133
 3503SOL    HW212284  10.994  10.413   9.092
 3504SOL     OW12285   9.187  14.156   9.255
 3504SOL    HW112286   9.259  14.169   9.192
 3504SOL    HW212287   9.231  14.132   9.336
 3505SOL     OW12288   1.968   7.424   0.712
 3505SOL    HW112289   2.026   7.349   0.715
 3505SOL    HW212290   1.941   7.430   0.620
 3506SOL     OW12291   7.376   7.512   9.682
 3506SOL    HW112292   7.313   7.448   9.648
 3506SOL    HW212293   7.352   7.521   9.775
 3507SOL     OW12294  12.120   6.743   8.197
 3507SOL    HW112295  12.122   6.812   8.130
 3507SOL    HW212296  12.085   6.787   8.275
 3508SOL     OW12297   5.473   3.009   2.524
 3508SOL    HW112298   5.568   2.998   2.512
 3508SOL    HW212299   5.438   2.920   2.519
 3509SOL     OW12300  14.095   2.003   1.495
 3509SOL    HW112301  14.062   1.925   1.540
 3509SOL    HW212302  14.015   2.048   1.465
 3510SOL     OW12303   0.032   4.975   3.612
 3510SOL    HW112304   0.048   5.030   3.535
 3510SOL    HW212305   0.003   4.891   3.577
 3511SOL     OW12306   5.528   6.886   4.046
 3511SOL    HW112307   5.616   6.918   4.029
 3511SOL    HW212308   5.483   6.892   3.961
 3512SOL     OW12309  12.467   6.362  14.801
 3512SOL    HW112310  12.532   6.425  14.770
 3512SOL    HW212311  12.430   6.403   0.002
 3513SOL     OW12312   2.246  13.927   9.644
 3513SOL    HW112313   2.212  13.846   9.606
 3513SOL    HW212314   2.168  13.978   9.664
 3514SOL     OW12315   5.621   9.351   6.655
 3514SOL    HW112316   5.691   9.391   6.603
 3514SOL    HW212317   5.640   9.257   6.653
 3515SOL     OW12318   9.398  10.194   4.214
 3515SOL    HW112319   9.441  10.279   4.207
 3515SOL    HW212320   9.371  10.173   4.125
 3516SOL     OW12321   2.072   8.213   3.776
 3516SOL    HW112322   2.041   8.163   3.700
 3516SOL    HW212323   2.104   8.147   3.837
 3517SOL     OW12324   0.400  10.602   2.267
 3517SOL    HW112325   0.374  10.541   2.198
 3517SOL    HW212326   0.366  10.687   2.238
 3518SOL     OW12327   1.630   7.826   9.982
 3518SOL    HW112328   1.648   7.780   9.900
 3518SOL    HW212329   1.656   7.764  10.051
 3519SOL     OW12330  11.472  14.528   7.645
 3519SOL    HW112331  11.416  14.566   7.577
 3519SOL    HW212332  11.411  14.503   7.715
 3520SOL     OW12333   0.320   0.645   7.248
 3520SOL    HW112334   0.273   0.622   7.168
 3520SOL    HW212335   0.258   0.701   7.297
 3521SOL     OW12336   7.422   7.336   1.804
 3521SOL    HW112337   7.482   7.378   1.743
 3521SOL    HW212338   7.335   7.353   1.767
 3522SOL     OW12339  13.399   7.234   2.318
 3522SOL    HW112340  13.392   7.152   2.365
 3522SOL    HW212341  13.331   7.229   2.250
 3523SOL     OW12342   3.008  14.323   7.935
 3523SOL    HW112343   2.938  14.268   7.971
 3523SOL    HW212344   3.001  14.310   7.840
 3524SOL     OW12345  11.790   4.781  13.036
 3524SOL    HW112346  11.738   4.861  13.038
 3524SOL    HW212347  11.831   4.777  13.123
 3525SOL     OW12348  13.689  14.304  13.069
 3525SOL    HW112349  13.656  14.282  13.156
 3525SOL    HW212350  13.763  14.245  13.056
 3526SOL     OW12351   2.881  12.260   0.370
 3526SOL    HW112352   2.899  12.260   0.464
 3526SOL    HW212353   2.798  12.306   0.361
 3527SOL     OW12354   4.217  12.568  13.936
 3527SOL    HW112355   4.221  12.473  13.933
 3527SOL    HW212356   4.239  12.596  13.847
 3528SOL     OW12357  12.129  14.876   4.905
 3528SOL    HW112358  12.037  14.855   4.890
 3528SOL    HW212359  12.148   0.070   4.845
 3529SOL     OW12360  11.252   9.478  12.287
 3529SOL    HW112361  11.217   9.516  12.207
 3529SOL    HW212362  11.303   9.548  12.327
 3530SOL     OW12363  13.306   8.865  12.737
 3530SOL    HW112364  13.340   8.802  12.801
 3530SOL    HW212365  13.367   8.859  12.663
 3531SOL     OW12366   2.541  13.220  12.385
 3531SOL    HW112367   2.547  13.297  12.329
 3531SOL    HW212368   2.632  13.200  12.407
 3532SOL     OW12369   4.065  12.422   1.396
 3532SOL    HW112370   4.078  12.442   1.304
 3532SOL    HW212371   4.129  12.477   1.442
 3533SOL     OW12372   2.925   8.031  12.091
 3533SOL    HW112373   2.867   8.085  12.145
 3533SOL    HW212374   2.898   7.941  12.109
 3534SOL     OW12375   0.877  10.005   4.118
 3534SOL    HW112376   0.872  10.064   4.193
 3534SOL    HW212377   0.795   9.955   4.122
 3535SOL     OW12378   0.133  11.267   8.184
 3535SOL    HW112379   0.063  11.263   8.248
 3535SOL    HW212380   0.156  11.176   8.167
 3536SOL     OW12381   7.111  10.911  14.768
 3536SOL    HW112382   7.041  10.965  14.730
 3536SOL    HW212383   7.128  10.951  14.853
 3537SOL     OW12384  12.344  11.265  12.638
 3537SOL    HW112385  12.300  11.324  12.700
 3537SOL    HW212386  12.370  11.322  12.565
 3538SOL     OW12387   7.560  12.900   8.862
 3538SOL    HW112388   7.639  12.917   8.811
 3538SOL    HW212389   7.507  12.844   8.805
 3539SOL     OW12390   2.997   5.985  14.465
 3539SOL    HW112391   3.043   5.954  14.388
 3539SOL    HW212392   2.975   6.076  14.445
 3540SOL     OW12393   6.224   0.148   0.238
 3540SOL    HW112394   6.196   0.058   0.222
 3540SOL    HW212395   6.206   0.194   0.156
 3541SOL     OW12396   4.290   4.858   9.018
 3541SOL    HW112397   4.364   4.797   9.022
 3541SOL    HW212398   4.331   4.945   9.016
 3542SOL     OW12399   9.404   9.596   2.260
 3542SOL    HW112400   9.421   9.621   2.350
 3542SOL    HW212401   9.457   9.656   2.208
 3543SOL     OW12402  11.093   9.905   7.855
 3543SOL    HW112403  11.115   9.840   7.923
 3543SOL    HW212404  10.998   9.906   7.853
 3544SOL     OW12405   0.617  10.896   1.848
 3544SOL    HW112406   0.660  10.889   1.933
 3544SOL    HW212407   0.685  10.876   1.784
 3545SOL     OW12408   4.560   0.998  10.015
 3545SOL    HW112409   4.504   0.991   9.938
 3545SOL    HW212410   4.501   0.981  10.089
 3546SOL     OW12411   2.944   5.040  14.195
 3546SOL    HW112412   2.850   5.050  14.207
 3546SOL    HW212413   2.983   5.105  14.254
 3547SOL     OW12414  14.205   5.707   6.116
 3547SOL    HW112415  14.249   5.623   6.107
 3547SOL    HW212416  14.119   5.686   6.153
 3548SOL     OW12417   3.043   7.077  11.349
 3548SOL    HW112418   3.036   7.141  11.420
 3548SOL    HW212419   3.034   7.129  11.269
 3549SOL     OW12420   8.036   8.377  11.446
 3549SOL    HW112421   8.128   8.391  11.424
 3549SOL    HW212422   7.988   8.427  11.380
 3550SOL     OW12423   7.878  13.752   9.926
 3550SOL    HW112424   7.797  13.803   9.923
 3550SOL    HW212425   7.899  13.736   9.834
 3551SOL     OW12426  12.626  14.486   8.641
 3551SOL    HW112427  12.708  14.476   8.592
 3551SOL    HW212428  12.597  14.575   8.620
 3552SOL     OW12429   4.740   6.472  10.637
 3552SOL    HW112430   4.813   6.507  10.688
 3552SOL    HW212431   4.679   6.439  10.702
 3553SOL     OW12432   6.216   3.843  14.470
 3553SOL    HW112433   6.146   3.795  14.426
 3553SOL    HW212434   6.291   3.835  14.412
 3554SOL     OW12435  13.619   0.046   5.505
 3554SOL    HW112436  13.685  14.869   5.462
 3554SOL    HW212437  13.622   0.019   5.596
 3555SOL     OW12438  12.615   5.279  10.404
 3555SOL    HW112439  12.612   5.334  10.326
 3555SOL    HW212440  12.574   5.332  10.473
 3556SOL     OW12441  14.410   0.462   8.944
 3556SOL    HW112442  14.327   0.426   8.973
 3556SOL    HW212443  14.388   0.514   8.866
 3557SOL     OW12444  10.948  14.388   1.798
 3557SOL    HW112445  11.034  14.383   1.840
 3557SOL    HW212446  10.924  14.480   1.802
 3558SOL     OW12447   1.261   6.360   0.190
 3558SOL    HW112448   1.293   6.323   0.108
 3558SOL    HW212449   1.297   6.448   0.193
 3559SOL     OW12450  13.179   8.749  14.311
 3559SOL    HW112451  13.089   8.740  14.281
 3559SOL    HW212452  13.190   8.680  14.377
 3560SOL     OW12453   5.119  11.453  10.061
 3560SOL    HW112454   5.108  11.532  10.113
 3560SOL    HW212455   5.112  11.381  10.125
 3561SOL     OW12456   0.790   1.435   2.150
 3561SOL    HW112457   0.735   1.444   2.228
 3561SOL    HW212458   0.734   1.462   2.078
 3562SOL     OW12459  14.061  14.008  13.797
 3562SOL    HW112460  14.106  14.000  13.881
 3562SOL    HW212461  14.116  13.961  13.734
 3563SOL     OW12462  12.733   1.552  11.937
 3563SOL    HW112463  12.800   1.527  12.001
 3563SOL    HW212464  12.782   1.579  11.860
 3564SOL     OW12465   4.232   3.592   6.273
 3564SOL    HW112466   4.285   3.597   6.193
 3564SOL    HW212467   4.155   3.645   6.254
 3565SOL     OW12468   4.427   1.560   7.346
 3565SOL    HW112469   4.342   1.585   7.311
 3565SOL    HW212470   4.449   1.478   7.301
 3566SOL     OW12471  13.299   7.603  10.512
 3566SOL    HW112472  13.279   7.574  10.423
 3566SOL    HW212473  13.216   7.634  10.547
 3567SOL     OW12474  14.579   4.289  13.500
 3567SOL    HW112475  14.488   4.270  13.522
 3567SOL    HW212476  14.614   4.331  13.579
 3568SOL     OW12477   4.916   0.737   8.767
 3568SOL    HW112478   4.824   0.721   8.785
 3568SOL    HW212479   4.936   0.684   8.690
 3569SOL     OW12480  14.389  13.609   1.092
 3569SOL    HW112481  14.481  13.610   1.117
 3569SOL    HW212482  14.347  13.548   1.152
 3570SOL     OW12483   4.221  14.581   9.148
 3570SOL    HW112484   4.131  14.548   9.145
 3570SOL    HW212485   4.239  14.608   9.059
 3571SOL     OW12486   4.871   5.316   5.566
 3571SOL    HW112487   4.863   5.250   5.636
 3571SOL    HW212488   4.891   5.397   5.612
 3572SOL     OW12489   4.942   2.656   3.258
 3572SOL    HW112490   5.027   2.637   3.297
 3572SOL    HW212491   4.958   2.732   3.201
 3573SOL     OW12492   4.799   3.278   5.585
 3573SOL    HW112493   4.752   3.318   5.512
 3573SOL    HW212494   4.891   3.296   5.567
 3574SOL     OW12495   1.743  12.590   3.782
 3574SOL    HW112496   1.692  12.540   3.847
 3574SOL    HW212497   1.771  12.524   3.718
 3575SOL     OW12498  11.442  13.866  12.156
 3575SOL    HW112499  11.511  13.807  12.125
 3575SOL    HW212500  11.362  13.833  12.115
 3576SOL     OW12501   8.241  12.680   9.133
 3576SOL    HW112502   8.170  12.739   9.108
 3576SOL    HW212503   8.299  12.679   9.057
 3577SOL     OW12504  13.256  12.392   5.635
 3577SOL    HW112505  13.269  12.350   5.550
 3577SOL    HW212506  13.343  12.422   5.660
 3578SOL     OW12507   7.310   4.142  11.815
 3578SOL    HW112508   7.314   4.186  11.731
 3578SOL    HW212509   7.256   4.199  11.870
 3579SOL     OW12510  11.593   3.485  10.429
 3579SOL    HW112511  11.501   3.486  10.456
 3579SOL    HW212512  11.590   3.482  10.333
 3580SOL     OW12513   3.726  14.196   9.673
 3580SOL    HW112514   3.740  14.180   9.579
 3580SOL    HW212515   3.799  14.252   9.699
 3581SOL     OW12516   2.549   7.627   3.090
 3581SOL    HW112517   2.498   7.595   3.164
 3581SOL    HW212518   2.508   7.710   3.066
 3582SOL     OW12519   8.994  14.819   9.041
 3582SOL    HW112520   8.991   0.029   9.079
 3582SOL    HW212521   8.970  14.832   8.949
 3583SOL     OW12522  13.670  10.637   9.356
 3583SOL    HW112523  13.716  10.720   9.350
 3583SOL    HW212524  13.586  10.652   9.313
 3584SOL     OW12525  14.249   1.469  12.995
 3584SOL    HW112526  14.208   1.504  12.916
 3584SOL    HW212527  14.343   1.472  12.976
 3585SOL     OW12528   9.099   6.214   3.601
 3585SOL    HW112529   9.159   6.169   3.542
 3585SOL    HW212530   9.153   6.240   3.675
 3586SOL     OW12531   0.672   5.324  11.788
 3586SOL    HW112532   0.624   5.333  11.706
 3586SOL    HW212533   0.604   5.317  11.855
 3587SOL     OW12534  10.632   7.220  11.283
 3587SOL    HW112535  10.646   7.311  11.310
 3587SOL    HW212536  10.551   7.222  11.232
 3588SOL     OW12537   0.986  11.395   3.154
 3588SOL    HW112538   0.900  11.428   3.129
 3588SOL    HW212539   0.968  11.317   3.206
 3589SOL     OW12540   3.331   1.018  14.175
 3589SOL    HW112541   3.353   1.007  14.083
 3589SOL    HW212542   3.339   0.930  14.212
 3590SOL     OW12543   9.738   8.896  14.091
 3590SOL    HW112544   9.664   8.929  14.143
 3590SOL    HW212545   9.723   8.932  14.004
 3591SOL     OW12546  11.623   3.554  11.160
 3591SOL    HW112547  11.709   3.577  11.127
 3591SOL    HW212548  11.632   3.464  11.190
 3592SOL     OW12549   8.168   4.550  10.613
 3592SOL    HW112550   8.236   4.611  10.642
 3592SOL    HW212551   8.215   4.477  10.573
 3593SOL     OW12552  13.510   1.971   1.919
 3593SOL    HW112553  13.516   2.056   1.875
 3593SOL    HW212554  13.598   1.935   1.913
 3594SOL     OW12555  14.431  12.659   9.054
 3594SOL    HW112556  14.470  12.649   8.967
 3594SOL    HW212557  14.501  12.697   9.108
 3595SOL     OW12558   2.109   7.991   5.967
 3595SOL    HW112559   2.144   7.912   6.009
 3595SOL    HW212560   2.166   8.006   5.893
 3596SOL     OW12561   1.248   6.033   9.392
 3596SOL    HW112562   1.226   6.055   9.483
 3596SOL    HW212563   1.341   6.011   9.395
 3597SOL     OW12564   0.874   9.867  13.249
 3597SOL    HW112565   0.783   9.878  13.223
 3597SOL    HW212566   0.925   9.891  13.172
 3598SOL     OW12567   9.400   8.555   3.896
 3598SOL    HW112568   9.396   8.630   3.956
 3598SOL    HW212569   9.494   8.535   3.889
 3599SOL     OW12570   9.684   1.944  11.705
 3599SOL    HW112571   9.722   2.031  11.696
 3599SOL    HW212572   9.669   1.915  11.615
 3600SOL     OW12573  10.878  11.037   7.215
 3600SOL    HW112574  10.938  10.973   7.255
 3600SOL    HW212575  10.925  11.068   7.137
 3601SOL     OW12576  14.825  13.446   4.541
 3601SOL    HW112577   0.013  13.515   4.550
 3601SOL    HW212578  14.803  13.446   4.447
 3602SOL     OW12579   5.550   8.345  11.419
 3602SOL    HW112580   5.558   8.403  11.495
 3602SOL    HW212581   5.463   8.364  11.384
 3603SOL     OW12582  10.857   5.009   4.676
 3603SOL    HW112583  10.851   5.069   4.603
 3603SOL    HW212584  10.803   4.934   4.650
 3604SOL     OW12585  14.187   8.796   2.805
 3604SOL    HW112586  14.099   8.814   2.839
 3604SOL    HW212587  14.246   8.820   2.876
 3605SOL     OW12588   4.903   2.367   3.733
 3605SOL    HW112589   4.858   2.377   3.817
 3605SOL    HW212590   4.984   2.418   3.743
 3606SOL     OW12591   4.318   9.624   8.900
 3606SOL    HW112592   4.385   9.570   8.942
 3606SOL    HW212593   4.359   9.653   8.818
 3607SOL     OW12594  12.524   9.628   3.954
 3607SOL    HW112595  12.555   9.632   4.045
 3607SOL    HW212596  12.593   9.582   3.907
 3608SOL     OW12597   7.259   4.326   1.572
 3608SOL    HW112598   7.262   4.420   1.557
 3608SOL    HW212599   7.171   4.300   1.544
 3609SOL     OW12600   7.354   4.262   2.076
 3609SOL    HW112601   7.393   4.314   2.146
 3609SOL    HW212602   7.419   4.261   2.007
 3610SOL     OW12603   2.407  14.141  12.972
 3610SOL    HW112604   2.368  14.144  12.885
 3610SOL    HW212605   2.473  14.073  12.967
 3611SOL     OW12606  14.686  13.863  12.228
 3611SOL    HW112607  14.607  13.869  12.174
 3611SOL    HW212608  14.671  13.786  12.283
 3612SOL     OW12609   7.559   8.638   8.342
 3612SOL    HW112610   7.615   8.564   8.317
 3612SOL    HW212611   7.598   8.713   8.298
 3613SOL     OW12612   6.093   3.322  11.704
 3613SOL    HW112613   6.124   3.283  11.622
 3613SOL    HW212614   6.029   3.387  11.678
 3614SOL     OW12615   7.706   6.958  12.475
 3614SOL    HW112616   7.801   6.959  12.463
 3614SOL    HW212617   7.686   6.868  12.501
 3615SOL     OW12618  10.971  12.390   0.217
 3615SOL    HW112619  11.020  12.457   0.264
 3615SOL    HW212620  11.033  12.355   0.153
 3616SOL     OW12621   5.649   8.375   5.791
 3616SOL    HW112622   5.627   8.292   5.833
 3616SOL    HW212623   5.671   8.433   5.864
 3617SOL     OW12624   6.915  12.571   9.543
 3617SOL    HW112625   6.990  12.513   9.556
 3617SOL    HW212626   6.840  12.521   9.577
 3618SOL     OW12627  11.939   7.528  13.477
 3618SOL    HW112628  12.027   7.494  13.495
 3618SOL    HW212629  11.947   7.573  13.393
 3619SOL     OW12630   3.310   9.108   1.346
 3619SOL    HW112631   3.252   9.170   1.389
 3619SOL    HW212632   3.265   9.023   1.355
 3620SOL     OW12633  12.768   3.572   5.124
 3620SOL    HW112634  12.855   3.536   5.111
 3620SOL    HW212635  12.735   3.527   5.202
 3621SOL     OW12636   1.919   6.422   3.146
 3621SOL    HW112637   1.872   6.473   3.080
 3621SOL    HW212638   1.977   6.486   3.189
 3622SOL     OW12639   1.714   9.551   8.499
 3622SOL    HW112640   1.665   9.570   8.579
 3622SOL    HW212641   1.648   9.535   8.432
 3623SOL     OW12642  12.568   1.230  13.702
 3623SOL    HW112643  12.606   1.309  13.665
 3623SOL    HW212644  12.579   1.239  13.797
 3624SOL     OW12645  13.637   9.211  12.430
 3624SOL    HW112646  13.583   9.135  12.452
 3624SOL    HW212647  13.584   9.287  12.455
 3625SOL     OW12648   8.913   1.640   8.575
 3625SOL    HW112649   8.990   1.648   8.633
 3625SOL    HW212650   8.863   1.720   8.593
 3626SOL     OW12651   1.222  12.013   7.737
 3626SOL    HW112652   1.132  11.980   7.742
 3626SOL    HW212653   1.234  12.035   7.644
 3627SOL     OW12654   0.025   3.521   3.491
 3627SOL    HW112655   0.055   3.600   3.538
 3627SOL    HW212656  14.837   3.482   3.549
 3628SOL     OW12657   0.141   9.715  11.206
 3628SOL    HW112658   0.125   9.693  11.297
 3628SOL    HW212659   0.111   9.806  11.198
 3629SOL     OW12660   8.936   0.601  11.688
 3629SOL    HW112661   8.926   0.670  11.622
 3629SOL    HW212662   9.025   0.613  11.722
 3630SOL     OW12663  10.578   3.499   5.439
 3630SOL    HW112664  10.607   3.510   5.529
 3630SOL    HW212665  10.644   3.443   5.399
 3631SOL     OW12666   0.814   5.870   5.420
 3631SOL    HW112667   0.767   5.949   5.446
 3631SOL    HW212668   0.869   5.898   5.347
 3632SOL     OW12669   0.424   3.626   5.186
 3632SOL    HW112670   0.398   3.712   5.219
 3632SOL    HW212671   0.367   3.564   5.232
 3633SOL     OW12672   2.018   9.830   1.420
 3633SOL    HW112673   1.952   9.899   1.427
 3633SOL    HW212674   2.051   9.837   1.331
 3634SOL     OW12675  13.035  13.367  10.715
 3634SOL    HW112676  13.015  13.449  10.671
 3634SOL    HW212677  12.950  13.328  10.733
 3635SOL     OW12678   1.751   2.111  13.011
 3635SOL    HW112679   1.728   2.035  12.958
 3635SOL    HW212680   1.803   2.166  12.953
 3636SOL     OW12681  10.935   7.356  10.072
 3636SOL    HW112682  10.912   7.373   9.981
 3636SOL    HW212683  11.016   7.405  10.086
 3637SOL     OW12684  14.743  13.879   6.162
 3637SOL    HW112685  14.838  13.874   6.154
 3637SOL    HW212686  14.727  13.949   6.226
 3638SOL     OW12687  10.564   5.702   0.432
 3638SOL    HW112688  10.636   5.680   0.374
 3638SOL    HW212689  10.512   5.765   0.384
 3639SOL     OW12690   7.027   7.023  12.178
 3639SOL    HW112691   7.019   7.019  12.083
 3639SOL    HW212692   7.029   7.117  12.197
 3640SOL     OW12693  10.770  10.471   6.246
 3640SOL    HW112694  10.676  10.487   6.260
 3640SOL    HW212695  10.776  10.377   6.230
 3641SOL     OW12696   2.288   8.542   7.107
 3641SOL    HW112697   2.314   8.455   7.078
 3641SOL    HW212698   2.364   8.597   7.088
 3642SOL     OW12699   0.954   7.396   3.130
 3642SOL    HW112700   0.969   7.344   3.051
 3642SOL    HW212701   0.999   7.348   3.199
 3643SOL     OW12702  14.379  12.558   2.547
 3643SOL    HW112703  14.320  12.619   2.590
 3643SOL    HW212704  14.463  12.604   2.543
 3644SOL     OW12705   4.725   1.960   0.962
 3644SOL    HW112706   4.735   1.985   1.054
 3644SOL    HW212707   4.806   1.989   0.920
 3645SOL     OW12708   5.726  13.814   6.447
 3645SOL    HW112709   5.705  13.732   6.491
 3645SOL    HW212710   5.778  13.863   6.511
 3646SOL     OW12711   3.266  10.701   0.816
 3646SOL    HW112712   3.244  10.624   0.868
 3646SOL    HW212713   3.361  10.709   0.825
 3647SOL     OW12714   1.953   4.140  14.065
 3647SOL    HW112715   2.015   4.192  14.014
 3647SOL    HW212716   2.005   4.069  14.103
 3648SOL     OW12717   0.173   3.197  13.686
 3648SOL    HW112718   0.168   3.274  13.742
 3648SOL    HW212719   0.182   3.232  13.597
 3649SOL     OW12720  14.382  10.218   4.884
 3649SOL    HW112721  14.386  10.290   4.947
 3649SOL    HW212722  14.289  10.209   4.863
 3650SOL     OW12723  14.374  13.064   9.614
 3650SOL    HW112724  14.400  12.985   9.663
 3650SOL    HW212725  14.457  13.104   9.589
 3651SOL     OW12726   2.308   3.379   8.882
 3651SOL    HW112727   2.334   3.421   8.800
 3651SOL    HW212728   2.235   3.432   8.914
 3652SOL     OW12729  10.965   5.560   9.833
 3652SOL    HW112730  10.911   5.481   9.839
 3652SOL    HW212731  11.040   5.534   9.780
 3653SOL     OW12732   3.388   3.943   3.156
 3653SOL    HW112733   3.293   3.936   3.166
 3653SOL    HW212734   3.404   4.037   3.143
 3654SOL     OW12735   7.687   5.178  14.121
 3654SOL    HW112736   7.713   5.086  14.129
 3654SOL    HW212737   7.721   5.206  14.036
 3655SOL     OW12738  12.317  12.248   6.442
 3655SOL    HW112739  12.228  12.282   6.449
 3655SOL    HW212740  12.359  12.274   6.525
 3656SOL     OW12741  14.034   1.401   8.362
 3656SOL    HW112742  13.950   1.356   8.351
 3656SOL    HW212743  14.080   1.349   8.427
 3657SOL     OW12744   6.980   7.223   2.022
 3657SOL    HW112745   7.075   7.221   2.010
 3657SOL    HW212746   6.965   7.295   2.083
 3658SOL     OW12747   3.142   8.665  13.658
 3658SOL    HW112748   3.060   8.669  13.707
 3658SOL    HW212749   3.119   8.618  13.578
 3659SOL     OW12750   8.131   6.799  12.881
 3659SOL    HW112751   8.176   6.741  12.819
 3659SOL    HW212752   8.168   6.886  12.863
 3660SOL     OW12753   1.863   4.992   4.985
 3660SOL    HW112754   1.863   5.064   4.921
 3660SOL    HW212755   1.771   4.985   5.013
 3661SOL     OW12756   0.326   0.346  14.375
 3661SOL    HW112757   0.331   0.310  14.287
 3661SOL    HW212758   0.413   0.383  14.391
 3662SOL     OW12759   4.607   5.547   9.990
 3662SOL    HW112760   4.593   5.479  10.056
 3662SOL    HW212761   4.563   5.513   9.912
 3663SOL     OW12762   3.740  11.652  10.918
 3663SOL    HW112763   3.789  11.687  10.843
 3663SOL    HW212764   3.656  11.698  10.914
 3664SOL     OW12765   6.294   4.178   6.296
 3664SOL    HW112766   6.219   4.144   6.343
 3664SOL    HW212767   6.350   4.102   6.280
 3665SOL     OW12768   2.190  12.658   1.487
 3665SOL    HW112769   2.147  12.578   1.456
 3665SOL    HW212770   2.244  12.630   1.560
 3666SOL     OW12771  10.378   7.352  10.358
 3666SOL    HW112772  10.431   7.430  10.341
 3666SOL    HW212773  10.380   7.304  10.275
 3667SOL     OW12774   5.770  10.089   0.853
 3667SOL    HW112775   5.681  10.055   0.847
 3667SOL    HW212776   5.824  10.025   0.805
 3668SOL     OW12777  14.328   2.923   7.244
 3668SOL    HW112778  14.418   2.920   7.276
 3668SOL    HW212779  14.278   2.874   7.310
 3669SOL     OW12780   5.808  14.260   0.791
 3669SOL    HW112781   5.718  14.230   0.804
 3669SOL    HW212782   5.807  14.302   0.705
 3670SOL     OW12783   2.129  11.746   3.114
 3670SOL    HW112784   2.198  11.733   3.179
 3670SOL    HW212785   2.158  11.821   3.062
 3671SOL     OW12786  10.029   7.490   0.081
 3671SOL    HW112787  10.001   7.548   0.010
 3671SOL    HW212788   9.979   7.520   0.157
 3672SOL     OW12789   3.270   7.263   2.410
 3672SOL    HW112790   3.327   7.327   2.451
 3672SOL    HW212791   3.321   7.227   2.337
 3673SOL     OW12792  14.012  14.409   2.554
 3673SOL    HW112793  13.948  14.480   2.554
 3673SOL    HW212794  14.048  14.410   2.466
 3674SOL     OW12795   9.181  14.689   9.190
 3674SOL    HW112796   9.122  14.653   9.255
 3674SOL    HW212797   9.124  14.730   9.125
 3675SOL     OW12798  12.735  10.713   7.745
 3675SOL    HW112799  12.691  10.750   7.669
 3675SOL    HW212800  12.798  10.780   7.771
 3676SOL     OW12801  10.174   6.346  11.611
 3676SOL    HW112802  10.245   6.387  11.561
 3676SOL    HW212803  10.144   6.273  11.556
 3677SOL     OW12804   5.826  10.846   7.156
 3677SOL    HW112805   5.880  10.782   7.202
 3677SOL    HW212806   5.875  10.866   7.076
 3678SOL     OW12807  12.874  11.586  10.082
 3678SOL    HW112808  12.821  11.611  10.007
 3678SOL    HW212809  12.902  11.496  10.063
 3679SOL     OW12810  10.276   2.266   3.938
 3679SOL    HW112811  10.197   2.314   3.963
 3679SOL    HW212812  10.332   2.270   4.016
 3680SOL     OW12813   0.733   9.009   8.173
 3680SOL    HW112814   0.771   8.921   8.176
 3680SOL    HW212815   0.806   9.067   8.195
 3681SOL     OW12816  14.679  10.642   0.936
 3681SOL    HW112817  14.672  10.682   0.850
 3681SOL    HW212818  14.624  10.696   0.993
 3682SOL     OW12819   8.606   9.313   4.473
 3682SOL    HW112820   8.535   9.350   4.421
 3682SOL    HW212821   8.566   9.296   4.559
 3683SOL     OW12822   4.063   5.059   9.699
 3683SOL    HW112823   4.085   5.028   9.612
 3683SOL    HW212824   4.101   4.994   9.758
 3684SOL     OW12825   1.221  12.335   9.184
 3684SOL    HW112826   1.209  12.408   9.122
 3684SOL    HW212827   1.310  12.305   9.169
 3685SOL     OW12828   4.755  11.035   1.473
 3685SOL    HW112829   4.718  11.015   1.559
 3685SOL    HW212830   4.680  11.031   1.413
 3686SOL     OW12831   3.702   0.722   5.338
 3686SOL    HW112832   3.719   0.782   5.265
 3686SOL    HW212833   3.683   0.638   5.295
 3687SOL     OW12834   8.907   6.503  11.094
 3687SOL    HW112835   8.973   6.469  11.034
 3687SOL    HW212836   8.845   6.550  11.038
 3688SOL     OW12837   5.774  13.750  13.126
 3688SOL    HW112838   5.800  13.713  13.041
 3688SOL    HW212839   5.799  13.684  13.190
 3689SOL     OW12840  10.601   2.517   1.102
 3689SOL    HW112841  10.613   2.422   1.098
 3689SOL    HW212842  10.669   2.546   1.163
 3690SOL     OW12843   7.833  13.599   8.738
 3690SOL    HW112844   7.839  13.567   8.828
 3690SOL    HW212845   7.908  13.560   8.694
 3691SOL     OW12846   2.028  11.882   5.225
 3691SOL    HW112847   2.012  11.926   5.141
 3691SOL    HW212848   2.101  11.823   5.207
 3692SOL     OW12849  14.697   2.811  11.079
 3692SOL    HW112850  14.745   2.873  11.134
 3692SOL    HW212851  14.709   2.727  11.123
 3693SOL     OW12852  13.326  10.091   5.646
 3693SOL    HW112853  13.300  10.061   5.559
 3693SOL    HW212854  13.249  10.078   5.701
 3694SOL     OW12855   0.873   9.081   1.877
 3694SOL    HW112856   0.863   8.988   1.854
 3694SOL    HW212857   0.881   9.126   1.793
 3695SOL     OW12858   9.424   5.687   5.240
 3695SOL    HW112859   9.509   5.731   5.239
 3695SOL    HW212860   9.366   5.748   5.194
 3696SOL     OW12861   2.253  13.688  13.991
 3696SOL    HW112862   2.284  13.601  13.966
 3696SOL    HW212863   2.297  13.706  14.074
 3697SOL     OW12864  12.526   5.488  11.320
 3697SOL    HW112865  12.575   5.559  11.278
 3697SOL    HW212866  12.593   5.434  11.362
 3698SOL     OW12867  10.180   4.030   2.338
 3698SOL    HW112868  10.239   3.964   2.302
 3698SOL    HW212869  10.131   4.062   2.262
 3699SOL     OW12870   5.953  13.242   9.564
 3699SOL    HW112871   5.932  13.332   9.537
 3699SOL    HW212872   6.045  13.245   9.587
 3700SOL     OW12873   5.824   9.695   0.722
 3700SOL    HW112874   5.844   9.656   0.637
 3700SOL    HW212875   5.877   9.774   0.726
 3701SOL     OW12876   2.062   5.042   2.118
 3701SOL    HW112877   2.140   5.043   2.173
 3701SOL    HW212878   2.011   5.119   2.144
 3702SOL     OW12879   9.291   4.580  13.808
 3702SOL    HW112880   9.200   4.561  13.832
 3702SOL    HW212881   9.336   4.496  13.817
 3703SOL     OW12882   9.052   7.146   6.060
 3703SOL    HW112883   9.064   7.195   5.979
 3703SOL    HW212884   9.126   7.085   6.062
 3704SOL     OW12885  12.362  14.597   6.469
 3704SOL    HW112886  12.282  14.643   6.493
 3704SOL    HW212887  12.425  14.667   6.451
 3705SOL     OW12888   7.864   2.442   7.065
 3705SOL    HW112889   7.924   2.372   7.092
 3705SOL    HW212890   7.920   2.506   7.021
 3706SOL     OW12891   3.651  13.209   9.377
 3706SOL    HW112892   3.738  13.181   9.348
 3706SOL    HW212893   3.665  13.244   9.465
 3707SOL     OW12894  10.679   8.227   6.206
 3707SOL    HW112895  10.702   8.136   6.224
 3707SOL    HW212896  10.681   8.269   6.292
 3708SOL     OW12897  10.538   9.729   0.896
 3708SOL    HW112898  10.464   9.691   0.849
 3708SOL    HW212899  10.568   9.800   0.839
 3709SOL     OW12900   5.375   1.512  11.261
 3709SOL    HW112901   5.375   1.554  11.346
 3709SOL    HW212902   5.339   1.425  11.277
 3710SOL     OW12903   3.413  10.159  10.731
 3710SOL    HW112904   3.489  10.108  10.759
 3710SOL    HW212905   3.340  10.122  10.781
 3711SOL     OW12906   7.316   2.820   4.249
 3711SOL    HW112907   7.357   2.747   4.295
 3711SOL    HW212908   7.339   2.897   4.301
 3712SOL     OW12909   9.118   1.895  14.203
 3712SOL    HW112910   9.090   1.960  14.267
 3712SOL    HW212911   9.161   1.945  14.134
 3713SOL     OW12912   5.937  11.110  14.863
 3713SOL    HW112913   5.864  11.171  14.872
 3713SOL    HW212914   5.985  11.119   0.069
 3714SOL     OW12915   9.038   0.858   5.751
 3714SOL    HW112916   9.081   0.786   5.704
 3714SOL    HW212917   9.093   0.934   5.734
 3715SOL     OW12918  12.279  12.328   2.223
 3715SOL    HW112919  12.209  12.270   2.194
 3715SOL    HW212920  12.284  12.315   2.317
 3716SOL     OW12921  11.899   7.338   5.403
 3716SOL    HW112922  11.833   7.401   5.375
 3716SOL    HW212923  11.971   7.392   5.435
 3717SOL     OW12924  11.089   2.991   0.774
 3717SOL    HW112925  11.148   2.992   0.699
 3717SOL    HW212926  11.099   2.903   0.811
 3718SOL     OW12927   1.259   9.993   9.063
 3718SOL    HW112928   1.169   9.985   9.095
 3718SOL    HW212929   1.288  10.079   9.093
 3719SOL     OW12930   5.203  10.649  12.668
 3719SOL    HW112931   5.144  10.723  12.653
 3719SOL    HW212932   5.218  10.649  12.763
 3720SOL     OW12933   9.984   8.817   6.578
 3720SOL    HW112934   9.889   8.824   6.579
 3720SOL    HW212935  10.003   8.753   6.509
 3721SOL     OW12936   2.548   0.503   6.918
 3721SOL    HW112937   2.545   0.409   6.937
 3721SOL    HW212938   2.583   0.542   6.998
 3722SOL     OW12939   5.710  13.078   0.782
 3722SOL    HW112940   5.781  13.061   0.844
 3722SOL    HW212941   5.724  13.015   0.711
 3723SOL     OW12942   4.211   0.576  10.091
 3723SOL    HW112943   4.191   0.666  10.062
 3723SOL    HW212944   4.186   0.521  10.016
 3724SOL     OW12945   7.746   9.456   2.481
 3724SOL    HW112946   7.724   9.416   2.565
 3724SOL    HW212947   7.767   9.382   2.424
 3725SOL     OW12948  11.914   8.870   4.349
 3725SOL    HW112949  11.975   8.837   4.283
 3725SOL    HW212950  11.963   8.864   4.432
 3726SOL     OW12951  13.191  11.192   4.153
 3726SOL    HW112952  13.144  11.120   4.112
 3726SOL    HW212953  13.179  11.178   4.247
 3727SOL     OW12954   9.095   4.559   6.380
 3727SOL    HW112955   9.166   4.602   6.427
 3727SOL    HW212956   9.026   4.548   6.445
 3728SOL     OW12957  14.176   3.889   5.920
 3728SOL    HW112958  14.173   3.830   5.845
 3728SOL    HW212959  14.188   3.976   5.883
 3729SOL     OW12960   9.331  10.614   4.559
 3729SOL    HW112961   9.388  10.632   4.485
 3729SOL    HW212962   9.378  10.651   4.634
 3730SOL     OW12963  12.266   2.864  11.750
 3730SOL    HW112964  12.334   2.922  11.784
 3730SOL    HW212965  12.255   2.891  11.658
 3731SOL     OW12966   3.667   3.028  12.525
 3731SOL    HW112967   3.687   3.103  12.581
 3731SOL    HW212968   3.750   3.004  12.485
 3732SOL     OW12969   2.537  14.541  14.851
 3732SOL    HW112970   2.631  14.549  14.862
 3732SOL    HW212971   2.526  14.504  14.763
 3733SOL     OW12972   2.686  10.688  11.266
 3733SOL    HW112973   2.714  10.617  11.324
 3733SOL    HW212974   2.705  10.768  11.315
 3734SOL     OW12975   1.134   6.754  10.532
 3734SOL    HW112976   1.170   6.726  10.616
 3734SOL    HW212977   1.123   6.849  10.541
 3735SOL     OW12978  13.084  12.053  13.844
 3735SOL    HW112979  13.029  11.982  13.878
 3735SOL    HW212980  13.034  12.090  13.772
 3736SOL     OW12981   9.681   4.633   9.245
 3736SOL    HW112982   9.601   4.668   9.206
 3736SOL    HW212983   9.724   4.710   9.283
 3737SOL     OW12984   8.700   6.913  11.953
 3737SOL    HW112985   8.771   6.926  12.016
 3737SOL    HW212986   8.706   6.988  11.894
 3738SOL     OW12987   6.564  11.293   8.734
 3738SOL    HW112988   6.492  11.326   8.680
 3738SOL    HW212989   6.642  11.337   8.701
 3739SOL     OW12990   5.843   9.741   2.913
 3739SOL    HW112991   5.902   9.817   2.909
 3739SOL    HW212992   5.756   9.779   2.926
 3740SOL     OW12993   1.992   0.139   1.072
 3740SOL    HW112994   2.058   0.105   1.132
 3740SOL    HW212995   2.043   0.165   0.994
 3741SOL     OW12996  11.687   4.161   9.194
 3741SOL    HW112997  11.612   4.217   9.214
 3741SOL    HW212998  11.743   4.214   9.138
 3742SOL     OW12999   2.475   5.015   6.577
 3742SOL    HW113000   2.536   5.039   6.648
 3742SOL    HW213001   2.490   5.081   6.510
 3743SOL     OW13002   9.443   4.803   0.016
 3743SOL    HW113003   9.377   4.745  14.856
 3743SOL    HW213004   9.460   4.767   0.103
 3744SOL     OW13005  14.075   2.986   6.108
 3744SOL    HW113006  14.046   3.029   6.028
 3744SOL    HW213007  14.096   2.896   6.081
 3745SOL     OW13008   4.874   4.566   4.877
 3745SOL    HW113009   4.784   4.583   4.905
 3745SOL    HW213010   4.875   4.472   4.858
 3746SOL     OW13011  10.831   5.304   1.701
 3746SOL    HW113012  10.880   5.338   1.776
 3746SOL    HW213013  10.762   5.250   1.741
 3747SOL     OW13014  10.460   4.377   9.736
 3747SOL    HW113015  10.444   4.436   9.663
 3747SOL    HW213016  10.477   4.435   9.811
 3748SOL     OW13017   4.115   6.452   0.988
 3748SOL    HW113018   4.029   6.436   1.027
 3748SOL    HW213019   4.138   6.369   0.946
 3749SOL     OW13020   5.852  14.014  10.929
 3749SOL    HW113021   5.768  14.052  10.901
 3749SOL    HW213022   5.892  14.082  10.984
 3750SOL     OW13023  13.505   7.092   4.510
 3750SOL    HW113024  13.504   7.015   4.567
 3750SOL    HW213025  13.503   7.056   4.421
 3751SOL     OW13026   2.344  14.224   4.396
 3751SOL    HW113027   2.425  14.180   4.419
 3751SOL    HW213028   2.329  14.288   4.466
 3752SOL     OW13029   6.089  10.361   1.880
 3752SOL    HW113030   6.124  10.280   1.916
 3752SOL    HW213031   6.155  10.428   1.904
 3753SOL     OW13032   1.957  12.441   8.866
 3753SOL    HW113033   1.930  12.473   8.779
 3753SOL    HW213034   2.029  12.381   8.848
 3754SOL     OW13035   1.714   1.939   3.755
 3754SOL    HW113036   1.786   1.881   3.732
 3754SOL    HW213037   1.751   2.001   3.818
 3755SOL     OW13038   3.281  10.817   2.158
 3755SOL    HW113039   3.187  10.800   2.150
 3755SOL    HW213040   3.323  10.741   2.117
 3756SOL     OW13041  10.795   9.149   7.160
 3756SOL    HW113042  10.784   9.054   7.166
 3756SOL    HW213043  10.768   9.182   7.245
 3757SOL     OW13044  12.859  13.729  14.763
 3757SOL    HW113045  12.909  13.798  14.719
 3757SOL    HW213046  12.905  13.648  14.739
 3758SOL     OW13047  13.971   0.449   6.350
 3758SOL    HW113048  14.004   0.368   6.387
 3758SOL    HW213049  14.039   0.514   6.368
 3759SOL     OW13050  10.862   9.282   3.424
 3759SOL    HW113051  10.923   9.348   3.392
 3759SOL    HW213052  10.853   9.300   3.518
 3760SOL     OW13053   3.207   6.128   0.262
 3760SOL    HW113054   3.297   6.159   0.253
 3760SOL    HW213055   3.154   6.196   0.219
 3761SOL     OW13056   6.245   2.650   0.756
 3761SOL    HW113057   6.181   2.641   0.827
 3761SOL    HW213058   6.329   2.633   0.797
 3762SOL     OW13059   5.261   6.978   3.086
 3762SOL    HW113060   5.222   6.977   2.998
 3762SOL    HW213061   5.305   6.894   3.093
 3763SOL     OW13062   3.064  13.614   2.205
 3763SOL    HW113063   3.031  13.703   2.221
 3763SOL    HW213064   3.061  13.604   2.110
 3764SOL     OW13065   3.281  14.135   7.647
 3764SOL    HW113066   3.197  14.157   7.608
 3764SOL    HW213067   3.293  14.201   7.716
 3765SOL     OW13068   0.630   2.582   3.102
 3765SOL    HW113069   0.724   2.594   3.110
 3765SOL    HW213070   0.619   2.488   3.084
 3766SOL     OW13071   0.776  13.923   6.399
 3766SOL    HW113072   0.806  13.980   6.328
 3766SOL    HW213073   0.856  13.890   6.438
 3767SOL     OW13074   2.524   6.983   9.503
 3767SOL    HW113075   2.451   6.924   9.523
 3767SOL    HW213076   2.600   6.925   9.496
 3768SOL     OW13077  12.880   6.359  12.866
 3768SOL    HW113078  12.885   6.293  12.935
 3768SOL    HW213079  12.862   6.441  12.912
 3769SOL     OW13080   2.817   3.101  14.753
 3769SOL    HW113081   2.890   3.159  14.775
 3769SOL    HW213082   2.739   3.156  14.759
 3770SOL     OW13083   9.707   2.462   7.010
 3770SOL    HW113084   9.718   2.556   7.023
 3770SOL    HW213085   9.794   2.426   7.027
 3771SOL     OW13086   4.712   2.749   9.033
 3771SOL    HW113087   4.796   2.782   9.001
 3771SOL    HW213088   4.683   2.813   9.097
 3772SOL     OW13089   7.360   7.353   9.140
 3772SOL    HW113090   7.366   7.282   9.076
 3772SOL    HW213091   7.396   7.430   9.094
 3773SOL     OW13092   3.389   1.694   7.982
 3773SOL    HW113093   3.476   1.685   8.021
 3773SOL    HW213094   3.354   1.775   8.019
 3774SOL     OW13095  12.497   1.941   7.992
 3774SOL    HW113096  12.503   1.909   8.081
 3774SOL    HW213097  12.461   2.029   8.000
 3775SOL     OW13098   3.163   6.173   8.508
 3775SOL    HW113099   3.153   6.079   8.500
 3775SOL    HW213100   3.217   6.185   8.587
 3776SOL     OW13101  12.990  12.374   5.322
 3776SOL    HW113102  12.999  12.307   5.389
 3776SOL    HW213103  12.961  12.452   5.369
 3777SOL     OW13104   3.229   1.798   3.512
 3777SOL    HW113105   3.227   1.871   3.450
 3777SOL    HW213106   3.288   1.825   3.581
 3778SOL     OW13107   9.752  14.581  10.799
 3778SOL    HW113108   9.747  14.658  10.855
 3778SOL    HW213109   9.842  14.581  10.765
 3779SOL     OW13110   6.488   6.622   0.756
 3779SOL    HW113111   6.566   6.670   0.782
 3779SOL    HW213112   6.418   6.687   0.756
 3780SOL     OW13113   1.446  10.965   0.335
 3780SOL    HW113114   1.391  10.942   0.260
 3780SOL    HW213115   1.508  11.029   0.300
 3781SOL     OW13116  13.609  12.443   0.321
 3781SOL    HW113117  13.670  12.508   0.356
 3781SOL    HW213118  13.537  12.442   0.384
 3782SOL     OW13119   1.524  12.584   9.624
 3782SOL    HW113120   1.619  12.579   9.636
 3782SOL    HW213121   1.513  12.612   9.533
 3783SOL     OW13122   7.230   4.484   8.083
 3783SOL    HW113123   7.284   4.411   8.113
 3783SOL    HW213124   7.218   4.468   7.989
 3784SOL     OW13125  10.551   0.227  12.083
 3784SOL    HW113126  10.572   0.137  12.061
 3784SOL    HW213127  10.544   0.228  12.178
 3785SOL     OW13128   6.673   5.302   4.661
 3785SOL    HW113129   6.708   5.214   4.675
 3785SOL    HW213130   6.739   5.361   4.697
 3786SOL     OW13131  11.256   5.968   2.657
 3786SOL    HW113132  11.232   6.053   2.619
 3786SOL    HW213133  11.351   5.969   2.659
 3787SOL     OW13134  10.358   2.047   1.393
 3787SOL    HW113135  10.375   2.140   1.381
 3787SOL    HW213136  10.262   2.040   1.394
 3788SOL     OW13137   4.814   5.254  10.013
 3788SOL    HW113138   4.794   5.237  10.105
 3788SOL    HW213139   4.910   5.253  10.009
 3789SOL     OW13140   2.791   0.658   8.124
 3789SOL    HW113141   2.795   0.644   8.030
 3789SOL    HW213142   2.873   0.621   8.157
 3790SOL     OW13143  11.633  11.730   5.242
 3790SOL    HW113144  11.630  11.780   5.161
 3790SOL    HW213145  11.712  11.676   5.234
 3791SOL     OW13146  13.062  11.842   5.684
 3791SOL    HW113147  13.113  11.921   5.701
 3791SOL    HW213148  13.120  11.787   5.632
 3792SOL     OW13149  11.508  14.281   6.251
 3792SOL    HW113150  11.532  14.214   6.187
 3792SOL    HW213151  11.461  14.347   6.200
 3793SOL     OW13152   5.831   4.370   7.719
 3793SOL    HW113153   5.922   4.396   7.703
 3793SOL    HW213154   5.829   4.276   7.699
 3794SOL     OW13155  10.897  11.343  12.408
 3794SOL    HW113156  10.803  11.358  12.416
 3794SOL    HW213157  10.905  11.273  12.342
 3795SOL     OW13158   9.965   2.809   1.358
 3795SOL    HW113159   9.872   2.802   1.377
 3795SOL    HW213160  10.004   2.731   1.398
 3796SOL     OW13161   6.787  14.418   2.584
 3796SOL    HW113162   6.795  14.508   2.553
 3796SOL    HW213163   6.752  14.427   2.673
 3797SOL     OW13164   6.593   9.378   3.823
 3797SOL    HW113165   6.640   9.321   3.761
 3797SOL    HW213166   6.510   9.333   3.838
 3798SOL     OW13167  10.068   2.790   0.453
 3798SOL    HW113168  10.101   2.756   0.369
 3798SOL    HW213169   9.987   2.836   0.430
 3799SOL     OW13170   7.030  10.939   2.924
 3799SOL    HW113171   6.980  10.960   3.003
 3799SOL    HW213172   7.040  11.022   2.878
 3800SOL     OW13173   8.814  13.427   7.077
 3800SOL    HW113174   8.780  13.484   7.146
 3800SOL    HW213175   8.804  13.477   6.997
 3801SOL     OW13176  11.073   5.505   2.601
 3801SOL    HW113177  11.045   5.597   2.609
 3801SOL    HW213178  11.055   5.467   2.687
 3802SOL     OW13179  12.778   7.132   8.798
 3802SOL    HW113180  12.871   7.140   8.777
 3802SOL    HW213181  12.733   7.152   8.716
 3803SOL     OW13182  11.087   9.941   5.924
 3803SOL    HW113183  11.122   9.917   6.010
 3803SOL    HW213184  11.086  10.037   5.924
 3804SOL     OW13185   4.456   5.125   2.039
 3804SOL    HW113186   4.475   5.104   2.131
 3804SOL    HW213187   4.437   5.219   2.039
 3805SOL     OW13188   3.528   4.146   3.348
 3805SOL    HW113189   3.541   4.072   3.408
 3805SOL    HW213190   3.609   4.197   3.355
 3806SOL     OW13191   4.217   8.756  14.738
 3806SOL    HW113192   4.253   8.696  14.672
 3806SOL    HW213193   4.187   8.699  14.808
 3807SOL     OW13194  11.636  10.055   1.319
 3807SOL    HW113195  11.621  10.127   1.258
 3807SOL    HW213196  11.549  10.019   1.337
 3808SOL     OW13197   4.640  12.860   5.455
 3808SOL    HW113198   4.653  12.830   5.365
 3808SOL    HW213199   4.644  12.780   5.507
 3809SOL     OW13200   2.560  14.141   5.891
 3809SOL    HW113201   2.590  14.052   5.909
 3809SOL    HW213202   2.641  14.193   5.889
 3810SOL     OW13203   5.728  14.761  13.445
 3810SOL    HW113204   5.819  14.751  13.417
 3810SOL    HW213205   5.721  14.853  13.472
 3811SOL     OW13206   6.832   8.456   5.043
 3811SOL    HW113207   6.839   8.376   4.991
 3811SOL    HW213208   6.828   8.526   4.978
 3812SOL     OW13209   7.983  11.156   7.069
 3812SOL    HW113210   7.988  11.079   7.014
 3812SOL    HW213211   8.020  11.129   7.153
 3813SOL     OW13212   7.190  12.141   0.495
 3813SOL    HW113213   7.224  12.118   0.408
 3813SOL    HW213214   7.102  12.103   0.497
 3814SOL     OW13215   1.935   3.058   7.859
 3814SOL    HW113216   1.948   3.077   7.952
 3814SOL    HW213217   1.855   3.105   7.835
 3815SOL     OW13218   6.659  10.648   7.568
 3815SOL    HW113219   6.636  10.619   7.656
 3815SOL    HW213220   6.592  10.713   7.546
 3816SOL     OW13221   1.212  11.905  14.703
 3816SOL    HW113222   1.238  11.874  14.789
 3816SOL    HW213223   1.138  11.964  14.719
 3817SOL     OW13224   0.334   4.867   9.043
 3817SOL    HW113225   0.324   4.795   9.105
 3817SOL    HW213226   0.303   4.944   9.090
 3818SOL     OW13227   1.533  14.255  11.865
 3818SOL    HW113228   1.548  14.349  11.876
 3818SOL    HW213229   1.594  14.213  11.926
 3819SOL     OW13230  11.148   8.143   4.331
 3819SOL    HW113231  11.198   8.170   4.254
 3819SOL    HW213232  11.103   8.063   4.303
 3820SOL     OW13233   1.585   8.299   6.081
 3820SOL    HW113234   1.495   8.292   6.112
 3820SOL    HW213235   1.634   8.238   6.136
 3821SOL     OW13236   0.612   4.889   1.140
 3821SOL    HW113237   0.545   4.909   1.075
 3821SOL    HW213238   0.694   4.895   1.093
 3822SOL     OW13239  12.775  13.756   5.428
 3822SOL    HW113240  12.786  13.691   5.498
 3822SOL    HW213241  12.825  13.832   5.458
 3823SOL     OW13242   3.126   2.718  12.986
 3823SOL    HW113243   3.074   2.714  12.905
 3823SOL    HW213244   3.154   2.628  13.001
 3824SOL     OW13245  13.803   9.304  12.823
 3824SOL    HW113246  13.819   9.264  12.909
 3824SOL    HW213247  13.796   9.398  12.842
 3825SOL     OW13248   9.620   7.454   7.483
 3825SOL    HW113249   9.544   7.416   7.440
 3825SOL    HW213250   9.692   7.394   7.461
 3826SOL     OW13251  10.488  13.122   9.811
 3826SOL    HW113252  10.532  13.041   9.786
 3826SOL    HW213253  10.396  13.107   9.787
 3827SOL     OW13254   9.723  12.283   3.422
 3827SOL    HW113255   9.669  12.210   3.390
 3827SOL    HW213256   9.708  12.353   3.360
 3828SOL     OW13257   9.523   6.115   2.050
 3828SOL    HW113258   9.530   6.161   2.134
 3828SOL    HW213259   9.429   6.110   2.033
 3829SOL     OW13260   3.670  10.786   1.312
 3829SOL    HW113261   3.603  10.719   1.298
 3829SOL    HW213262   3.676  10.796   1.407
 3830SOL     OW13263  12.405   9.362   6.952
 3830SOL    HW113264  12.480   9.307   6.973
 3830SOL    HW213265  12.436   9.421   6.884
 3831SOL     OW13266   7.080   7.517   5.249
 3831SOL    HW113267   7.131   7.501   5.328
 3831SOL    HW213268   7.015   7.447   5.248
 3832SOL     OW13269   3.350  10.343   2.720
 3832SOL    HW113270   3.319  10.286   2.791
 3832SOL    HW213271   3.270  10.369   2.674
 3833SOL     OW13272  10.775   7.323  13.990
 3833SOL    HW113273  10.837   7.323  14.063
 3833SOL    HW213274  10.754   7.415  13.976
 3834SOL     OW13275   8.543   1.294   4.526
 3834SOL    HW113276   8.584   1.376   4.499
 3834SOL    HW213277   8.615   1.242   4.562
 3835SOL     OW13278  13.798   2.177   4.152
 3835SOL    HW113279  13.713   2.152   4.116
 3835SOL    HW213280  13.839   2.230   4.084
 3836SOL     OW13281   6.850  12.412  13.118
 3836SOL    HW113282   6.840  12.317  13.122
 3836SOL    HW213283   6.770  12.442  13.074
 3837SOL     OW13284   0.477  11.213   0.337
 3837SOL    HW113285   0.392  11.170   0.347
 3837SOL    HW213286   0.458  11.306   0.337
 3838SOL     OW13287   0.898  13.486  13.479
 3838SOL    HW113288   0.961  13.414  13.475
 3838SOL    HW213289   0.820  13.447  13.521
 3839SOL     OW13290   6.234  14.637   4.378
 3839SOL    HW113291   6.148  14.617   4.341
 3839SOL    HW213292   6.281  14.553   4.374
 3840SOL     OW13293   8.785  11.399  12.181
 3840SOL    HW113294   8.794  11.395  12.086
 3840SOL    HW213295   8.758  11.489  12.198
 3841SOL     OW13296  12.184  10.318   3.609
 3841SOL    HW113297  12.210  10.325   3.702
 3841SOL    HW213298  12.149  10.230   3.600
 3842SOL     OW13299  12.517   4.831  11.705
 3842SOL    HW113300  12.520   4.791  11.792
 3842SOL    HW213301  12.456   4.904  11.714
 3843SOL     OW13302  12.151   9.950   9.414
 3843SOL    HW113303  12.080   9.955   9.351
 3843SOL    HW213304  12.108   9.926   9.497
 3844SOL     OW13305  11.016  13.803   0.672
 3844SOL    HW113306  10.954  13.815   0.601
 3844SOL    HW213307  11.020  13.888   0.716
 3845SOL     OW13308   3.894   1.135  10.036
 3845SOL    HW113309   3.988   1.121  10.025
 3845SOL    HW213310   3.870   1.190   9.961
 3846SOL     OW13311  12.969   2.973  10.494
 3846SOL    HW113312  13.054   2.961  10.452
 3846SOL    HW213313  12.910   2.916  10.444
 3847SOL     OW13314   8.422   4.201   2.887
 3847SOL    HW113315   8.466   4.175   2.806
 3847SOL    HW213316   8.389   4.118   2.923
 3848SOL     OW13317  11.188   1.730  13.653
 3848SOL    HW113318  11.161   1.746  13.562
 3848SOL    HW213319  11.106   1.732  13.703
 3849SOL     OW13320   5.036   5.512   5.954
 3849SOL    HW113321   4.971   5.582   5.957
 3849SOL    HW213322   5.107   5.542   6.011
 3850SOL     OW13323   6.447  11.265  11.990
 3850SOL    HW113324   6.432  11.219  11.908
 3850SOL    HW213325   6.518  11.327  11.970
 3851SOL     OW13326   9.378   0.964  10.503
 3851SOL    HW113327   9.287   0.964  10.534
 3851SOL    HW213328   9.418   1.040  10.546
 3852SOL     OW13329   3.658   5.125  13.338
 3852SOL    HW113330   3.607   5.126  13.419
 3852SOL    HW213331   3.709   5.205  13.341
 3853SOL     OW13332  13.339  14.182   4.074
 3853SOL    HW113333  13.306  14.249   4.134
 3853SOL    HW213334  13.413  14.223   4.029
 3854SOL     OW13335   2.504   9.254   6.790
 3854SOL    HW113336   2.491   9.204   6.871
 3854SOL    HW213337   2.533   9.189   6.727
 3855SOL     OW13338   9.894   1.516   2.643
 3855SOL    HW113339   9.879   1.462   2.565
 3855SOL    HW213340   9.836   1.591   2.633
 3856SOL     OW13341   1.599  14.155  10.621
 3856SOL    HW113342   1.651  14.074  10.622
 3856SOL    HW213343   1.575  14.166  10.529
 3857SOL     OW13344  12.936   3.005  14.868
 3857SOL    HW113345  12.936   2.917   0.026
 3857SOL    HW213346  12.876   3.054   0.048
 3858SOL     OW13347   3.640  14.159   2.493
 3858SOL    HW113348   3.692  14.232   2.459
 3858SOL    HW213349   3.570  14.148   2.428
 3859SOL     OW13350  10.589   1.209   9.819
 3859SOL    HW113351  10.560   1.119   9.838
 3859SOL    HW213352  10.562   1.224   9.728
 3860SOL     OW13353   1.240  13.483   1.752
 3860SOL    HW113354   1.158  13.436   1.741
 3860SOL    HW213355   1.216  13.576   1.749
 3861SOL     OW13356   0.584   4.110   2.891
 3861SOL    HW113357   0.554   4.132   2.803
 3861SOL    HW213358   0.568   4.190   2.942
 3862SOL     OW13359   5.339   0.295  11.154
 3862SOL    HW113360   5.405   0.339  11.100
 3862SOL    HW213361   5.335   0.348  11.234
 3863SOL     OW13362   2.605  13.646   3.750
 3863SOL    HW113363   2.602  13.722   3.808
 3863SOL    HW213364   2.685  13.658   3.699
 3864SOL     OW13365   2.839  11.359  12.351
 3864SOL    HW113366   2.870  11.298  12.419
 3864SOL    HW213367   2.905  11.427  12.347
 3865SOL     OW13368   8.878   3.461  12.570
 3865SOL    HW113369   8.894   3.419  12.655
 3865SOL    HW213370   8.785   3.449  12.554
 3866SOL     OW13371   9.249  10.016   2.172
 3866SOL    HW113372   9.170  10.065   2.193
 3866SOL    HW213373   9.219   9.941   2.121
 3867SOL     OW13374   6.513   3.623   5.885
 3867SOL    HW113375   6.448   3.637   5.816
 3867SOL    HW213376   6.528   3.709   5.923
 3868SOL     OW13377   2.197   2.208   1.706
 3868SOL    HW113378   2.212   2.135   1.766
 3868SOL    HW213379   2.140   2.268   1.755
 3869SOL     OW13380   2.025  14.081   3.668
 3869SOL    HW113381   1.996  14.110   3.582
 3869SOL    HW213382   1.945  14.052   3.712
 3870SOL     OW13383   1.396   7.267   3.293
 3870SOL    HW113384   1.332   7.323   3.248
 3870SOL    HW213385   1.415   7.197   3.231
 3871SOL     OW13386   6.150  13.665   0.658
 3871SOL    HW113387   6.100  13.680   0.578
 3871SOL    HW213388   6.241  13.684   0.633
 3872SOL     OW13389   4.051   2.477   2.345
 3872SOL    HW113390   4.010   2.433   2.419
 3872SOL    HW213391   4.110   2.412   2.307
 3873SOL     OW13392  11.933  12.127   9.897
 3873SOL    HW113393  11.850  12.156   9.859
 3873SOL    HW213394  11.937  12.033   9.877
 3874SOL     OW13395   2.926   0.378   8.502
 3874SOL    HW113396   2.960   0.308   8.447
 3874SOL    HW213397   2.951   0.459   8.457
 3875SOL     OW13398   3.977   6.831  13.002
 3875SOL    HW113399   3.917   6.800  13.070
 3875SOL    HW213400   4.025   6.903  13.043
 3876SOL     OW13401  11.278  10.119  10.135
 3876SOL    HW113402  11.231  10.202  10.139
 3876SOL    HW213403  11.231  10.062  10.195
 3877SOL     OW13404   0.808   7.239   7.139
 3877SOL    HW113405   0.742   7.173   7.119
 3877SOL    HW213406   0.794   7.260   7.231
 3878SOL     OW13407   7.155   7.551   5.528
 3878SOL    HW113408   7.240   7.577   5.562
 3878SOL    HW213409   7.122   7.487   5.591
 3879SOL     OW13410   2.552   7.845   5.173
 3879SOL    HW113411   2.598   7.929   5.173
 3879SOL    HW213412   2.602   7.790   5.111
 3880SOL     OW13413   3.492   4.731   3.976
 3880SOL    HW113414   3.502   4.652   4.029
 3880SOL    HW213415   3.551   4.718   3.902
 3881SOL     OW13416   1.935  14.510   5.836
 3881SOL    HW113417   1.843  14.489   5.853
 3881SOL    HW213418   1.962  14.444   5.772
 3882SOL     OW13419   7.368   6.762   2.126
 3882SOL    HW113420   7.418   6.681   2.135
 3882SOL    HW213421   7.278   6.732   2.107
 3883SOL     OW13422  11.122   8.408   8.189
 3883SOL    HW113423  11.212   8.378   8.193
 3883SOL    HW213424  11.123   8.478   8.125
 3884SOL     OW13425   1.296   1.243   3.921
 3884SOL    HW113426   1.382   1.270   3.890
 3884SOL    HW213427   1.307   1.232   4.016
 3885SOL     OW13428   5.712   2.448   2.844
 3885SOL    HW113429   5.682   2.431   2.934
 3885SOL    HW213430   5.647   2.509   2.808
 3886SOL     OW13431   6.179   4.494   3.341
 3886SOL    HW113432   6.144   4.441   3.412
 3886SOL    HW213433   6.134   4.463   3.262
 3887SOL     OW13434   7.182   2.368   7.578
 3887SOL    HW113435   7.173   2.453   7.622
 3887SOL    HW213436   7.106   2.317   7.606
 3888SOL     OW13437   5.350  11.883   4.625
 3888SOL    HW113438   5.428  11.898   4.572
 3888SOL    HW213439   5.311  11.970   4.636
 3889SOL     OW13440  13.077   7.068  14.728
 3889SOL    HW113441  13.061   7.153  14.687
 3889SOL    HW213442  13.123   7.089  14.809
 3890SOL     OW13443   5.553  10.715   1.134
 3890SOL    HW113444   5.486  10.780   1.154
 3890SOL    HW213445   5.544  10.700   1.040
 3891SOL     OW13446   4.272  14.511   6.970
 3891SOL    HW113447   4.278  14.427   7.017
 3891SOL    HW213448   4.348  14.561   7.001
 3892SOL     OW13449   7.804   2.160  10.360
 3892SOL    HW113450   7.865   2.172  10.286
 3892SOL    HW213451   7.856   2.115  10.426
 3893SOL     OW13452   0.635   9.017   0.967
 3893SOL    HW113453   0.696   9.079   1.007
 3893SOL    HW213454   0.633   9.042   0.875
 3894SOL     OW13455   5.192  12.579   5.562
 3894SOL    HW113456   5.191  12.553   5.654
 3894SOL    HW213457   5.131  12.519   5.519
 3895SOL     OW13458   9.733   0.938   6.702
 3895SOL    HW113459   9.748   1.031   6.684
 3895SOL    HW213460   9.815   0.908   6.744
 3896SOL     OW13461   7.406   2.267   4.746
 3896SOL    HW113462   7.424   2.182   4.705
 3896SOL    HW213463   7.311   2.267   4.759
 3897SOL     OW13464  12.063   6.961  11.076
 3897SOL    HW113465  12.122   6.976  11.150
 3897SOL    HW213466  11.993   6.906  11.112
 3898SOL     OW13467  12.299  10.921   1.810
 3898SOL    HW113468  12.230  10.864   1.844
 3898SOL    HW213469  12.282  11.006   1.850
 3899SOL     OW13470  10.109  13.258  14.423
 3899SOL    HW113471  10.124  13.187  14.485
 3899SOL    HW213472  10.145  13.336  14.465
 3900SOL     OW13473   2.708  12.619   1.884
 3900SOL    HW113474   2.699  12.659   1.970
 3900SOL    HW213475   2.802  12.615   1.869
 3901SOL     OW13476   1.489   2.870   2.923
 3901SOL    HW113477   1.428   2.908   2.986
 3901SOL    HW213478   1.560   2.934   2.918
 3902SOL     OW13479  12.718   4.818  10.481
 3902SOL    HW113480  12.622   4.821  10.473
 3902SOL    HW213481  12.750   4.859  10.401
 3903SOL     OW13482   6.983  12.833   2.805
 3903SOL    HW113483   7.059  12.798   2.852
 3903SOL    HW213484   6.949  12.758   2.756
 3904SOL     OW13485   6.000   2.403   2.802
 3904SOL    HW113486   5.905   2.410   2.804
 3904SOL    HW213487   6.028   2.475   2.746
 3905SOL     OW13488   3.264  12.639   5.864
 3905SOL    HW113489   3.201  12.668   5.798
 3905SOL    HW213490   3.330  12.707   5.866
 3906SOL     OW13491   5.818   6.425  12.284
 3906SOL    HW113492   5.746   6.380  12.239
 3906SOL    HW213493   5.843   6.364  12.354
 3907SOL     OW13494   4.054   3.985  11.774
 3907SOL    HW113495   3.973   3.956  11.816
 3907SOL    HW213496   4.101   3.904  11.753
 3908SOL     OW13497  13.577   6.989  14.195
 3908SOL    HW113498  13.588   7.081  14.173
 3908SOL    HW213499  13.529   6.989  14.278
 3909SOL     OW13500  14.614   9.001   3.283
 3909SOL    HW113501  14.577   8.928   3.234
 3909SOL    HW213502  14.608   9.075   3.223
 3910SOL     OW13503   7.640   5.662   3.857
 3910SOL    HW113504   7.618   5.654   3.950
 3910SOL    HW213505   7.724   5.707   3.856
 3911SOL     OW13506   7.207   1.473   8.071
 3911SOL    HW113507   7.137   1.408   8.073
 3911SOL    HW213508   7.254   1.460   8.154
 3912SOL     OW13509   5.374   7.897   3.665
 3912SOL    HW113510   5.310   7.827   3.656
 3912SOL    HW213511   5.381   7.911   3.759
 3913SOL     OW13512   8.927  11.178  11.193
 3913SOL    HW113513   8.887  11.247  11.139
 3913SOL    HW213514   8.933  11.217  11.280
 3914SOL     OW13515   6.070   5.933   6.305
 3914SOL    HW113516   5.989   5.983   6.316
 3914SOL    HW213517   6.043   5.841   6.311
 3915SOL     OW13518   7.472   8.004  10.272
 3915SOL    HW113519   7.408   8.059  10.318
 3915SOL    HW213520   7.553   8.055  10.276
 3916SOL     OW13521   9.387   5.431   5.029
 3916SOL    HW113522   9.357   5.342   5.012
 3916SOL    HW213523   9.446   5.423   5.104
 3917SOL     OW13524   7.516  13.469   0.830
 3917SOL    HW113525   7.465  13.470   0.748
 3917SOL    HW213526   7.474  13.536   0.884
 3918SOL     OW13527   0.060   2.321   7.031
 3918SOL    HW113528   0.115   2.394   7.061
 3918SOL    HW213529   0.062   2.328   6.935
 3919SOL     OW13530  11.252   8.880  14.376
 3919SOL    HW113531  11.211   8.806  14.419
 3919SOL    HW213532  11.325   8.904  14.433
 3920SOL     OW13533   8.858  13.711   9.968
 3920SOL    HW113534   8.939  13.739   9.924
 3920SOL    HW213535   8.880  13.714  10.061
 3921SOL     OW13536  11.142   8.764  13.139
 3921SOL    HW113537  11.218   8.808  13.178
 3921SOL    HW213538  11.094   8.727  13.213
 3922SOL     OW13539   5.398   1.698   5.650
 3922SOL    HW113540   5.423   1.678   5.560
 3922SOL    HW213541   5.481   1.717   5.694
 3923SOL     OW13542  10.761  14.484  10.327
 3923SOL    HW113543  10.697  14.519  10.265
 3923SOL    HW213544  10.761  14.390  10.310
 3924SOL     OW13545   3.380   1.322  10.850
 3924SOL    HW113546   3.414   1.300  10.763
 3924SOL    HW213547   3.337   1.407  10.838
 3925SOL     OW13548   7.244   7.575   0.985
 3925SOL    HW113549   7.236   7.480   0.980
 3925SOL    HW213550   7.247   7.594   1.079
 3926SOL     OW13551  13.978  11.477   9.898
 3926SOL    HW113552  14.005  11.448   9.811
 3926SOL    HW213553  13.991  11.401   9.954
 3927SOL     OW13554   6.596   7.215   6.782
 3927SOL    HW113555   6.673   7.263   6.813
 3927SOL    HW213556   6.592   7.138   6.838
 3928SOL     OW13557   8.284  11.728  11.406
 3928SOL    HW113558   8.202  11.687  11.434
 3928SOL    HW213559   8.274  11.737  11.311
 3929SOL     OW13560   9.803   4.594   3.098
 3929SOL    HW113561   9.783   4.660   3.031
 3929SOL    HW213562   9.876   4.632   3.148
 3930SOL     OW13563  11.803   9.818   9.480
 3930SOL    HW113564  11.855   9.827   9.400
 3930SOL    HW213565  11.842   9.744   9.526
 3931SOL     OW13566  10.932  11.381   7.252
 3931SOL    HW113567  10.898  11.292   7.253
 3931SOL    HW213568  11.017  11.375   7.296
 3932SOL     OW13569  13.873   2.401   8.195
 3932SOL    HW113570  13.880   2.438   8.106
 3932SOL    HW213571  13.783   2.420   8.221
 3933SOL     OW13572   4.103   6.735   1.652
 3933SOL    HW113573   4.042   6.809   1.654
 3933SOL    HW213574   4.080   6.688   1.572
 3934SOL     OW13575   0.948   2.971  10.494
 3934SOL    HW113576   0.894   2.973  10.415
 3934SOL    HW213577   0.902   2.910  10.552
 3935SOL     OW13578   3.865   2.848   0.067
 3935SOL    HW113579   3.779   2.863   0.107
 3935SOL    HW213580   3.869   2.912  14.873
 3936SOL     OW13581   8.089   3.427  14.060
 3936SOL    HW113582   8.045   3.376  14.127
 3936SOL    HW213583   8.062   3.387  13.977
 3937SOL     OW13584  14.478   6.405  12.424
 3937SOL    HW113585  14.438   6.371  12.344
 3937SOL    HW213586  14.558   6.448  12.395
 3938SOL     OW13587   2.599  14.611   7.399
 3938SOL    HW113588   2.691  14.605   7.426
 3938SOL    HW213589   2.570  14.520   7.392
 3939SOL     OW13590   5.065   2.032  13.455
 3939SOL    HW113591   4.972   2.042  13.434
 3939SOL    HW213592   5.111   2.074  13.383
 3940SOL     OW13593   3.485   5.967   3.076
 3940SOL    HW113594   3.406   6.013   3.104
 3940SOL    HW213595   3.551   6.036   3.065
 3941SOL     OW13596   9.108   6.332   5.726
 3941SOL    HW113597   9.159   6.255   5.700
 3941SOL    HW213598   9.106   6.327   5.821
 3942SOL     OW13599   9.498   7.196  11.607
 3942SOL    HW113600   9.489   7.101  11.610
 3942SOL    HW213601   9.583   7.210  11.566
 3943SOL     OW13602   6.066   0.961  14.171
 3943SOL    HW113603   6.023   0.890  14.124
 3943SOL    HW213604   6.149   0.924  14.201
 3944SOL     OW13605   7.381   7.880   2.099
 3944SOL    HW113606   7.409   7.944   2.165
 3944SOL    HW213607   7.447   7.886   2.030
 3945SOL     OW13608   4.807   6.829   4.354
 3945SOL    HW113609   4.834   6.872   4.435
 3945SOL    HW213610   4.747   6.892   4.312
 3946SOL     OW13611   7.435   4.721   7.231
 3946SOL    HW113612   7.499   4.649   7.227
 3946SOL    HW213613   7.461   4.771   7.308
 3947SOL     OW13614  14.828   3.043  11.886
 3947SOL    HW113615   0.022   3.065  11.946
 3947SOL    HW213616  14.831   2.947  11.881
 3948SOL     OW13617   2.153  14.399   1.701
 3948SOL    HW113618   2.166  14.321   1.647
 3948SOL    HW213619   2.178  14.472   1.644
 3949SOL     OW13620  14.412   5.648   9.727
 3949SOL    HW113621  14.441   5.596   9.652
 3949SOL    HW213622  14.393   5.734   9.690
 3950SOL     OW13623  11.319   4.016   8.567
 3950SOL    HW113624  11.401   4.034   8.612
 3950SOL    HW213625  11.300   4.097   8.518
 3951SOL     OW13626  13.421   8.974   2.050
 3951SOL    HW113627  13.415   8.890   2.095
 3951SOL    HW213628  13.447   9.036   2.118
 3952SOL     OW13629   8.191   3.485   8.993
 3952SOL    HW113630   8.227   3.496   8.905
 3952SOL    HW213631   8.145   3.567   9.011
 3953SOL     OW13632   1.797   2.062   1.562
 3953SOL    HW113633   1.799   2.075   1.657
 3953SOL    HW213634   1.721   2.111   1.532
 3954SOL     OW13635  13.003   5.669   7.484
 3954SOL    HW113636  12.981   5.746   7.432
 3954SOL    HW213637  13.048   5.704   7.561
 3955SOL     OW13638   2.265  10.265  13.864
 3955SOL    HW113639   2.262  10.182  13.910
 3955SOL    HW213640   2.348  10.305  13.892
 3956SOL     OW13641   5.953   6.907   0.757
 3956SOL    HW113642   5.910   6.961   0.691
 3956SOL    HW213643   6.034   6.876   0.715
 3957SOL     OW13644  10.095   4.871   2.559
 3957SOL    HW113645  10.127   4.948   2.514
 3957SOL    HW213646  10.169   4.841   2.612
 3958SOL     OW13647  13.704   0.704  12.176
 3958SOL    HW113648  13.678   0.678  12.087
 3958SOL    HW213649  13.686   0.626  12.229
 3959SOL     OW13650   6.621  13.979   8.271
 3959SOL    HW113651   6.673  13.967   8.191
 3959SOL    HW213652   6.686  13.979   8.342
 3960SOL     OW13653   2.473   0.122   0.794
 3960SOL    HW113654   2.560   0.151   0.765
 3960SOL    HW213655   2.467   0.152   0.884
 3961SOL     OW13656   6.373  14.016   3.601
 3961SOL    HW113657   6.330  14.100   3.618
 3961SOL    HW213658   6.415  14.028   3.516
 3962SOL     OW13659  10.831   0.815   3.583
 3962SOL    HW113660  10.896   0.780   3.522
 3962SOL    HW213661  10.883   0.860   3.650
 3963SOL     OW13662  11.100   7.989   3.399
 3963SOL    HW113663  11.168   7.922   3.404
 3963SOL    HW213664  11.103   8.020   3.309
 3964SOL     OW13665   2.054  10.087   5.869
 3964SOL    HW113666   1.971  10.064   5.829
 3964SOL    HW213667   2.032  10.153   5.935
 3965SOL     OW13668  10.383  12.429   4.202
 3965SOL    HW113669  10.307  12.465   4.248
 3965SOL    HW213670  10.346  12.371   4.136
 3966SOL     OW13671   4.915  11.067  10.338
 3966SOL    HW113672   4.903  11.142  10.280
 3966SOL    HW213673   4.950  10.998  10.281
 3967SOL     OW13674  10.364  11.866   9.524
 3967SOL    HW113675  10.269  11.868   9.511
 3967SOL    HW213676  10.400  11.909   9.447
 3968SOL     OW13677  13.575  12.257   4.981
 3968SOL    HW113678  13.516  12.280   4.909
 3968SOL    HW213679  13.624  12.181   4.948
 3969SOL     OW13680   6.303   6.376  12.538
 3969SOL    HW113681   6.239   6.326  12.489
 3969SOL    HW213682   6.268   6.465  12.540
 3970SOL     OW13683  10.823   3.424  10.264
 3970SOL    HW113684  10.772   3.419  10.183
 3970SOL    HW213685  10.782   3.361  10.323
 3971SOL     OW13686  14.057   7.548   8.632
 3971SOL    HW113687  13.968   7.573   8.607
 3971SOL    HW213688  14.111   7.577   8.558
 3972SOL     OW13689   0.412   7.369   5.463
 3972SOL    HW113690   0.400   7.413   5.547
 3972SOL    HW213691   0.444   7.438   5.404
 3973SOL     OW13692   3.347   6.813  12.413
 3973SOL    HW113693   3.427   6.833  12.365
 3973SOL    HW213694   3.374   6.808  12.505
 3974SOL     OW13695   4.210   9.586   7.885
 3974SOL    HW113696   4.304   9.581   7.866
 3974SOL    HW213697   4.190   9.680   7.886
 3975SOL     OW13698   6.893   9.609   8.267
 3975SOL    HW113699   6.972   9.618   8.214
 3975SOL    HW213700   6.825   9.652   8.216
 3976SOL     OW13701  13.188   1.170   8.362
 3976SOL    HW113702  13.179   1.122   8.445
 3976SOL    HW213703  13.124   1.241   8.368
 3977SOL     OW13704   5.834  11.886   4.998
 3977SOL    HW113705   5.825  11.925   4.912
 3977SOL    HW213706   5.746  11.888   5.035
 3978SOL     OW13707  10.977   6.089   9.428
 3978SOL    HW113708  11.023   6.044   9.499
 3978SOL    HW213709  11.024   6.063   9.349
 3979SOL     OW13710  12.984   7.495  11.085
 3979SOL    HW113711  12.980   7.486  11.180
 3979SOL    HW213712  12.906   7.452  11.053
 3980SOL     OW13713  10.254   0.295   4.228
 3980SOL    HW113714  10.292   0.357   4.291
 3980SOL    HW213715  10.172   0.268   4.267
 3981SOL     OW13716   3.761   4.613   4.463
 3981SOL    HW113717   3.673   4.577   4.453
 3981SOL    HW213718   3.752   4.679   4.531
 3982SOL     OW13719   1.824   8.557   5.238
 3982SOL    HW113720   1.765   8.589   5.169
 3982SOL    HW213721   1.803   8.612   5.314
 3983SOL     OW13722   0.828   6.403   9.036
 3983SOL    HW113723   0.762   6.356   9.086
 3983SOL    HW213724   0.824   6.366   8.948
 3984SOL     OW13725   3.465   9.979  14.434
 3984SOL    HW113726   3.399   9.981  14.504
 3984SOL    HW213727   3.463   9.889  14.402
 3985SOL     OW13728   7.843   6.552  12.194
 3985SOL    HW113729   7.778   6.616  12.167
 3985SOL    HW213730   7.925   6.601  12.201
 3986SOL     OW13731  11.312  11.691   4.281
 3986SOL    HW113732  11.225  11.719   4.309
 3986SOL    HW213733  11.312  11.596   4.294
 3987SOL     OW13734  14.547   9.202  12.320
 3987SOL    HW113735  14.470   9.236  12.275
 3987SOL    HW213736  14.564   9.266  12.389
 3988SOL     OW13737   0.785   5.045   9.192
 3988SOL    HW113738   0.697   5.046   9.153
 3988SOL    HW213739   0.779   4.983   9.265
 3989SOL     OW13740   5.110   0.315  13.350
 3989SOL    HW113741   5.165   0.307  13.427
 3989SOL    HW213742   5.092   0.409  13.342
 3990SOL     OW13743   6.557   9.604  13.723
 3990SOL    HW113744   6.633   9.558  13.686
 3990SOL    HW213745   6.481   9.558  13.687
 3991SOL     OW13746  10.278   5.994  14.474
 3991SOL    HW113747  10.182   5.990  14.482
 3991SOL    HW213748  10.309   5.914  14.516
 3992SOL     OW13749  11.261  13.664   7.182
 3992SOL    HW113750  11.327  13.613   7.134
 3992SOL    HW213751  11.228  13.726   7.118
 3993SOL     OW13752  14.344   2.415   7.669
 3993SOL    HW113753  14.352   2.510   7.656
 3993SOL    HW213754  14.424   2.379   7.631
 3994SOL     OW13755   1.371  12.450   6.833
 3994SOL    HW113756   1.326  12.534   6.844
 3994SOL    HW213757   1.464  12.470   6.847
 3995SOL     OW13758   8.245   7.336   0.930
 3995SOL    HW113759   8.230   7.326   1.024
 3995SOL    HW213760   8.266   7.429   0.919
 3996SOL     OW13761  11.966   4.107   5.259
 3996SOL    HW113762  12.022   4.095   5.182
 3996SOL    HW213763  12.027   4.108   5.333
 3997SOL     OW13764   2.442   0.050   3.679
 3997SOL    HW113765   2.395   0.064   3.597
 3997SOL    HW213766   2.394  14.856   3.722
 3998SOL     OW13767  11.725   1.884   8.878
 3998SOL    HW113768  11.785   1.951   8.912
 3998SOL    HW213769  11.641   1.905   8.918
 3999SOL     OW13770  14.307   4.405  13.031
 3999SOL    HW113771  14.390   4.380  13.073
 3999SOL    HW213772  14.277   4.481  13.080
 4000SOL     OW13773   4.898  13.009  14.780
 4000SOL    HW113774   4.872  13.097  14.805
 4000SOL    HW213775   4.843  12.951  14.833
 4001SOL     OW13776   0.151   4.573  11.885
 4001SOL    HW113777   0.147   4.608  11.796
 4001SOL    HW213778   0.240   4.594  11.914
 4002SOL     OW13779   9.293   6.508   6.520
 4002SOL    HW113780   9.215   6.466   6.556
 4002SOL    HW213781   9.362   6.441   6.526
 4003SOL     OW13782   4.025  12.683   1.591
 4003SOL    HW113783   4.009  12.773   1.618
 4003SOL    HW213784   4.115  12.683   1.558
 4004SOL     OW13785   7.998   8.020   2.960
 4004SOL    HW113786   8.002   8.027   3.055
 4004SOL    HW213787   8.016   7.928   2.942
 4005SOL     OW13788  12.623  14.527   2.060
 4005SOL    HW113789  12.581  14.446   2.029
 4005SOL    HW213790  12.716  14.515   2.038
 4006SOL     OW13791   5.993   1.485   8.325
 4006SOL    HW113792   6.065   1.457   8.382
 4006SOL    HW213793   6.016   1.574   8.299
 4007SOL     OW13794  10.720   2.447   7.538
 4007SOL    HW113795  10.675   2.429   7.455
 4007SOL    HW213796  10.691   2.534   7.563
 4008SOL     OW13797   1.797   9.174   1.501
 4008SOL    HW113798   1.702   9.189   1.509
 4008SOL    HW213799   1.810   9.156   1.408
 4009SOL     OW13800  12.474   2.965   0.056
 4009SOL    HW113801  12.554   3.014   0.035
 4009SOL    HW213802  12.403   3.020   0.023
 4010SOL     OW13803  13.205  13.325  11.017
 4010SOL    HW113804  13.241  13.410  11.042
 4010SOL    HW213805  13.214  13.322  10.922
 4011SOL     OW13806   5.137   3.610   9.952
 4011SOL    HW113807   5.163   3.574  10.037
 4011SOL    HW213808   5.049   3.576   9.938
 4012SOL     OW13809   1.037   9.375  14.582
 4012SOL    HW113810   1.015   9.327  14.502
 4012SOL    HW213811   1.130   9.357  14.596
 4013SOL     OW13812  14.508  11.090   9.357
 4013SOL    HW113813  14.585  11.133   9.395
 4013SOL    HW213814  14.439  11.102   9.423
 4014SOL     OW13815   0.123   9.466  10.906
 4014SOL    HW113816   0.192   9.506  10.853
 4014SOL    HW213817   0.164   9.451  10.991
 4015SOL     OW13818   8.980  13.031  12.306
 4015SOL    HW113819   8.937  12.950  12.331
 4015SOL    HW213820   9.024  13.061  12.385
 4016SOL     OW13821   1.640  13.524   2.151
 4016SOL    HW113822   1.646  13.440   2.196
 4016SOL    HW213823   1.576  13.508   2.081
 4017SOL     OW13824   5.940  12.622   4.653
 4017SOL    HW113825   5.881  12.567   4.705
 4017SOL    HW213826   6.027  12.606   4.690
 4018SOL     OW13827   0.279  11.733  13.620
 4018SOL    HW113828   0.355  11.752  13.675
 4018SOL    HW213829   0.224  11.811  13.627
 4019SOL     OW13830   6.727  13.688   3.963
 4019SOL    HW113831   6.785  13.631   3.912
 4019SOL    HW213832   6.762  13.776   3.951
 4020SOL     OW13833  11.811   1.904   0.892
 4020SOL    HW113834  11.820   1.969   0.962
 4020SOL    HW213835  11.837   1.821   0.932
 4021SOL     OW13836  12.668  13.240  10.303
 4021SOL    HW113837  12.663  13.330  10.333
 4021SOL    HW213838  12.733  13.242  10.233
 4022SOL     OW13839   0.029   6.996   1.376
 4022SOL    HW113840   0.061   7.019   1.463
 4022SOL    HW213841   0.088   7.042   1.316
 4023SOL     OW13842  13.915   1.871  13.391
 4023SOL    HW113843  13.879   1.828  13.469
 4023SOL    HW213844  13.945   1.956  13.423
 4024SOL     OW13845   9.751  10.552  13.687
 4024SOL    HW113846   9.684  10.578  13.624
 4024SOL    HW213847   9.703  10.507  13.757
 4025SOL     OW13848  10.395   3.718  13.308
 4025SOL    HW113849  10.409   3.631  13.345
 4025SOL    HW213850  10.482   3.750  13.286
 4026SOL     OW13851   0.835   8.229  13.740
 4026SOL    HW113852   0.924   8.256  13.762
 4026SOL    HW213853   0.782   8.308  13.751
 4027SOL     OW13854  10.461   4.357   8.924
 4027SOL    HW113855  10.399   4.401   8.866
 4027SOL    HW213856  10.410   4.333   9.001
 4028SOL     OW13857   3.135  12.832   7.921
 4028SOL    HW113858   3.151  12.868   7.834
 4028SOL    HW213859   3.188  12.752   7.924
 4029SOL     OW13860   6.862  14.660   4.202
 4029SOL    HW113861   6.825  14.699   4.124
 4029SOL    HW213862   6.903  14.578   4.172
 4030SOL     OW13863  13.672  11.231   0.194
 4030SOL    HW113864  13.643  11.188   0.114
 4030SOL    HW213865  13.635  11.179   0.265
 4031SOL     OW13866  14.039   2.830  14.784
 4031SOL    HW113867  13.958   2.874  14.758
 4031SOL    HW213868  14.108   2.893  14.765
 4032SOL     OW13869  11.008   5.817   4.522
 4032SOL    HW113870  11.097   5.797   4.495
 4032SOL    HW213871  10.995   5.767   4.602
 4033SOL     OW13872   6.129   4.930   8.804
 4033SOL    HW113873   6.059   4.904   8.744
 4033SOL    HW213874   6.208   4.888   8.768
 4034SOL     OW13875   0.625  12.500   7.253
 4034SOL    HW113876   0.639  12.584   7.210
 4034SOL    HW213877   0.533  12.502   7.280
 4035SOL     OW13878   6.533   0.753  10.384
 4035SOL    HW113879   6.498   0.666  10.402
 4035SOL    HW213880   6.538   0.758  10.289
 4036SOL     OW13881   3.354   6.883   1.379
 4036SOL    HW113882   3.269   6.861   1.341
 4036SOL    HW213883   3.412   6.812   1.354
 4037SOL     OW13884  11.006   8.145   8.174
 4037SOL    HW113885  10.928   8.194   8.150
 4037SOL    HW213886  11.079   8.205   8.157
 4038SOL     OW13887   6.898   4.195   4.661
 4038SOL    HW113888   6.816   4.145   4.664
 4038SOL    HW213889   6.920   4.201   4.568
 4039SOL     OW13890   6.372  14.745  13.957
 4039SOL    HW113891   6.427  14.669  13.975
 4039SOL    HW213892   6.394  14.808  14.025
 4040SOL     OW13893   2.152   5.884  12.703
 4040SOL    HW113894   2.097   5.918  12.632
 4040SOL    HW213895   2.242   5.897  12.672
 4041SOL     OW13896   2.535  11.258   4.884
 4041SOL    HW113897   2.460  11.306   4.918
 4041SOL    HW213898   2.554  11.300   4.800
 4042SOL     OW13899  13.635   9.779  13.967
 4042SOL    HW113900  13.682   9.727  13.902
 4042SOL    HW213901  13.562   9.723  13.994
 4043SOL     OW13902  13.866   1.117   1.033
 4043SOL    HW113903  13.828   1.041   0.990
 4043SOL    HW213904  13.892   1.085   1.120
 4044SOL     OW13905   4.227  12.867   7.937
 4044SOL    HW113906   4.306  12.814   7.926
 4044SOL    HW213907   4.155  12.804   7.933
 4045SOL     OW13908   5.835  12.219   8.314
 4045SOL    HW113909   5.910  12.210   8.256
 4045SOL    HW213910   5.790  12.298   8.284
 4046SOL     OW13911   9.057   8.744  11.948
 4046SOL    HW113912   9.096   8.677  11.892
 4046SOL    HW213913   9.039   8.698  12.030
 4047SOL     OW13914   8.245   2.206   1.812
 4047SOL    HW113915   8.340   2.220   1.810
 4047SOL    HW213916   8.208   2.292   1.830
 4048SOL     OW13917   3.457   8.324   5.067
 4048SOL    HW113918   3.458   8.413   5.101
 4048SOL    HW213919   3.533   8.282   5.107
 4049SOL     OW13920  13.725   8.861  10.290
 4049SOL    HW113921  13.768   8.802  10.351
 4049SOL    HW213922  13.632   8.839  10.297
 4050SOL     OW13923  13.526   8.960  13.555
 4050SOL    HW113924  13.562   8.917  13.477
 4050SOL    HW213925  13.575   8.921  13.628
 4051SOL     OW13926   3.111   9.249  12.685
 4051SOL    HW113927   3.092   9.306  12.759
 4051SOL    HW213928   3.114   9.308  12.609
 4052SOL     OW13929  14.000  12.998   9.734
 4052SOL    HW113930  13.949  12.970   9.658
 4052SOL    HW213931  14.086  13.020   9.698
 4053SOL     OW13932   2.228   9.800   0.912
 4053SOL    HW113933   2.184   9.805   0.827
 4053SOL    HW213934   2.302   9.860   0.904
 4054SOL     OW13935  13.120   3.640   1.433
 4054SOL    HW113936  13.048   3.655   1.494
 4054SOL    HW213937  13.133   3.546   1.434
 4055SOL     OW13938  13.718   2.133  12.060
 4055SOL    HW113939  13.753   2.213  12.020
 4055SOL    HW213940  13.656   2.165  12.127
 4056SOL     OW13941   7.410   9.633   5.969
 4056SOL    HW113942   7.317   9.651   5.966
 4056SOL    HW213943   7.437   9.624   5.878
 4057SOL     OW13944   3.271   3.265   5.170
 4057SOL    HW113945   3.350   3.312   5.198
 4057SOL    HW213946   3.215   3.264   5.247
 4058SOL     OW13947  10.553  10.243   7.505
 4058SOL    HW113948  10.600  10.183   7.447
 4058SOL    HW213949  10.496  10.187   7.557
 4059SOL     OW13950   3.100  13.844  10.145
 4059SOL    HW113951   3.029  13.896  10.107
 4059SOL    HW213952   3.178  13.872  10.097
 4060SOL     OW13953   6.061  10.442   2.199
 4060SOL    HW113954   6.002  10.384   2.247
 4060SOL    HW213955   6.147  10.429   2.240
 4061SOL     OW13956  11.698  11.419   2.346
 4061SOL    HW113957  11.711  11.345   2.286
 4061SOL    HW213958  11.614  11.401   2.388
 4062SOL     OW13959   8.703   0.633   4.240
 4062SOL    HW113960   8.799   0.642   4.238
 4062SOL    HW213961   8.674   0.665   4.154
 4063SOL     OW13962   4.833   5.106  13.877
 4063SOL    HW113963   4.803   5.018  13.900
 4063SOL    HW213964   4.855   5.147  13.961
 4064SOL     OW13965   6.260  11.522   0.436
 4064SOL    HW113966   6.261  11.579   0.359
 4064SOL    HW213967   6.173  11.483   0.435
 4065SOL     OW13968  10.750   5.061  11.865
 4065SOL    HW113969  10.778   5.038  11.776
 4065SOL    HW213970  10.732   4.977  11.907
 4066SOL     OW13971   4.215   2.802   6.569
 4066SOL    HW113972   4.230   2.856   6.647
 4066SOL    HW213973   4.129   2.831   6.536
 4067SOL     OW13974   3.994   1.357  14.084
 4067SOL    HW113975   3.919   1.372  14.140
 4067SOL    HW213976   3.956   1.336  13.998
 4068SOL     OW13977   7.056   0.042   4.728
 4068SOL    HW113978   7.019   0.117   4.682
 4068SOL    HW213979   7.146   0.069   4.749
 4069SOL     OW13980   1.697   6.086   7.305
 4069SOL    HW113981   1.706   6.106   7.211
 4069SOL    HW213982   1.772   6.131   7.345
 4070SOL     OW13983  13.999   1.635  10.087
 4070SOL    HW113984  14.031   1.638  10.177
 4070SOL    HW213985  13.945   1.714  10.078
 4071SOL     OW13986   1.538  13.536   1.125
 4071SOL    HW113987   1.524  13.565   1.215
 4071SOL    HW213988   1.622  13.574   1.100
 4072SOL     OW13989  13.091   0.985  10.974
 4072SOL    HW113990  13.019   0.936  11.014
 4072SOL    HW213991  13.065   0.994  10.882
 4073SOL     OW13992   1.375   6.852  10.712
 4073SOL    HW113993   1.380   6.937  10.755
 4073SOL    HW213994   1.432   6.860  10.635
 4074SOL     OW13995  11.890  12.180   6.954
 4074SOL    HW113996  11.921  12.233   6.881
 4074SOL    HW213997  11.905  12.234   7.032
 4075SOL     OW13998  11.131   6.187   8.527
 4075SOL    HW113999  11.130   6.238   8.446
 4075SOL    HW214000  11.198   6.228   8.581
 4076SOL     OW14001   8.227   3.507  13.809
 4076SOL    HW114002   8.200   3.450  13.737
 4076SOL    HW214003   8.209   3.457  13.888
 4077SOL     OW14004   5.068  12.342  11.357
 4077SOL    HW114005   5.077  12.269  11.295
 4077SOL    HW214006   5.034  12.414  11.305
 4078SOL     OW14007  10.041   7.737   6.484
 4078SOL    HW114008  10.055   7.670   6.552
 4078SOL    HW214009   9.950   7.765   6.498
 4079SOL     OW14010  11.370   9.545  14.290
 4079SOL    HW114011  11.453   9.520  14.249
 4079SOL    HW214012  11.326   9.461  14.307
 4080SOL     OW14013   6.008   2.811   9.232
 4080SOL    HW114014   6.039   2.879   9.292
 4080SOL    HW214015   6.076   2.807   9.164
 4081SOL     OW14016   0.149  14.761   3.526
 4081SOL    HW114017   0.209  14.828   3.493
 4081SOL    HW214018   0.069  14.773   3.474
 4082SOL     OW14019   5.557   6.247   8.000
 4082SOL    HW114020   5.523   6.320   7.949
 4082SOL    HW214021   5.533   6.169   7.950
 4083SOL     OW14022   7.135   9.645   5.909
 4083SOL    HW114023   7.045   9.621   5.890
 4083SOL    HW214024   7.159   9.706   5.840
 4084SOL     OW14025   0.119  13.664   6.607
 4084SOL    HW114026   0.127  13.569   6.609
 4084SOL    HW214027   0.177  13.692   6.537
 4085SOL     OW14028   1.883   6.062   6.187
 4085SOL    HW114029   1.854   6.017   6.266
 4085SOL    HW214030   1.897   5.992   6.123
 4086SOL     OW14031   2.517  11.579   6.620
 4086SOL    HW114032   2.566  11.501   6.648
 4086SOL    HW214033   2.579  11.627   6.564
 4087SOL     OW14034   1.006   1.849  10.381
 4087SOL    HW114035   0.917   1.881  10.397
 4087SOL    HW214036   1.001   1.754  10.397
 4088SOL     OW14037  12.559   2.544   6.089
 4088SOL    HW114038  12.488   2.485   6.062
 4088SOL    HW214039  12.589   2.583   6.007
 4089SOL     OW14040   0.657  10.315   7.580
 4089SOL    HW114041   0.611  10.399   7.579
 4089SOL    HW214042   0.656  10.285   7.489
 4090SOL     OW14043   5.216   5.536   2.963
 4090SOL    HW114044   5.252   5.625   2.967
 4090SOL    HW214045   5.264   5.489   3.031
 4091SOL     OW14046   8.196  11.027  11.795
 4091SOL    HW114047   8.184  10.936  11.768
 4091SOL    HW214048   8.112  11.069  11.777
 4092SOL     OW14049   8.191   4.573  12.938
 4092SOL    HW114050   8.282   4.591  12.914
 4092SOL    HW214051   8.147   4.556  12.855
 4093SOL     OW14052   3.168  11.274   0.245
 4093SOL    HW114053   3.137  11.223   0.171
 4093SOL    HW214054   3.247  11.229   0.274
 4094SOL     OW14055   9.156  11.454   5.962
 4094SOL    HW114056   9.223  11.520   5.979
 4094SOL    HW214057   9.114  11.441   6.047
 4095SOL     OW14058  14.429   8.444   1.407
 4095SOL    HW114059  14.501   8.422   1.348
 4095SOL    HW214060  14.376   8.365   1.411
 4096SOL     OW14061   9.954   7.528  14.021
 4096SOL    HW114062   9.912   7.447  14.051
 4096SOL    HW214063   9.882   7.584  13.994
 4097SOL     OW14064   5.806  13.764   8.886
 4097SOL    HW114065   5.854  13.736   8.808
 4097SOL    HW214066   5.872  13.806   8.941
 4098SOL     OW14067  11.371   8.825  11.525
 4098SOL    HW114068  11.453   8.841  11.477
 4098SOL    HW214069  11.326   8.759  11.473
 4099SOL     OW14070   0.643   8.344   1.739
 4099SOL    HW114071   0.584   8.420   1.741
 4099SOL    HW214072   0.592   8.273   1.777
 4100SOL     OW14073  11.350   2.757   5.007
 4100SOL    HW114074  11.387   2.678   5.046
 4100SOL    HW214075  11.408   2.777   4.934
 4101SOL     OW14076  10.369   1.023   2.331
 4101SOL    HW114077  10.408   1.092   2.384
 4101SOL    HW214078  10.328   1.069   2.258
 4102SOL     OW14079   1.673   2.166  12.002
 4102SOL    HW114080   1.625   2.116  12.068
 4102SOL    HW214081   1.635   2.139  11.919
 4103SOL     OW14082  13.022  13.238   4.826
 4103SOL    HW114083  13.072  13.172   4.778
 4103SOL    HW214084  13.080  13.265   4.897
 4104SOL     OW14085   9.914   1.725   8.175
 4104SOL    HW114086   9.910   1.649   8.234
 4104SOL    HW214087   9.844   1.782   8.204
 4105SOL     OW14088   5.367   3.666   2.548
 4105SOL    HW114089   5.320   3.620   2.618
 4105SOL    HW214090   5.459   3.661   2.575
 4106SOL     OW14091   4.459  12.501  11.492
 4106SOL    HW114092   4.454  12.456  11.577
 4106SOL    HW214093   4.532  12.561  11.502
 4107SOL     OW14094   6.857   8.478  10.711
 4107SOL    HW114095   6.774   8.452  10.673
 4107SOL    HW214096   6.842   8.476  10.806
 4108SOL     OW14097  11.600   1.107   4.174
 4108SOL    HW114098  11.571   1.092   4.264
 4108SOL    HW214099  11.677   1.163   4.183
 4109SOL     OW14100   1.482   1.726   6.845
 4109SOL    HW114101   1.497   1.797   6.782
 4109SOL    HW214102   1.485   1.646   6.791
 4110SOL     OW14103   9.078   0.450   5.775
 4110SOL    HW114104   9.166   0.487   5.766
 4110SOL    HW214105   9.070   0.390   5.701
 4111SOL     OW14106   0.207   9.586  14.076
 4111SOL    HW114107   0.257   9.511  14.106
 4111SOL    HW214108   0.235   9.599  13.985
 4112SOL     OW14109   9.940   7.006  12.114
 4112SOL    HW114110   9.998   7.027  12.187
 4112SOL    HW214111   9.966   7.067  12.045
 4113SOL     OW14112  10.294   7.842   6.486
 4113SOL    HW114113  10.285   7.885   6.571
 4113SOL    HW214114  10.208   7.803   6.470
 4114SOL     OW14115   8.346   3.026  14.281
 4114SOL    HW114116   8.409   3.096  14.294
 4114SOL    HW214117   8.359   2.967  14.355
 4115SOL     OW14118  12.909  10.956   5.876
 4115SOL    HW114119  12.976  10.956   5.808
 4115SOL    HW214120  12.957  10.974   5.957
 4116SOL     OW14121  11.055   5.407   2.842
 4116SOL    HW114122  10.981   5.440   2.893
 4116SOL    HW214123  11.072   5.320   2.879
 4117SOL     OW14124  10.697  11.147  10.807
 4117SOL    HW114125  10.652  11.231  10.811
 4117SOL    HW214126  10.646  11.089  10.864
 4118SOL     OW14127   3.736  13.845  14.195
 4118SOL    HW114128   3.670  13.779  14.173
 4118SOL    HW214129   3.714  13.873  14.283
 4119SOL     OW14130   3.507   8.668   4.406
 4119SOL    HW114131   3.450   8.599   4.371
 4119SOL    HW214132   3.461   8.749   4.386
 4120SOL     OW14133   1.185   4.073   7.595
 4120SOL    HW114134   1.186   4.159   7.552
 4120SOL    HW214135   1.104   4.073   7.646
 4121SOL     OW14136  11.463  11.958  12.899
 4121SOL    HW114137  11.497  11.925  12.816
 4121SOL    HW214138  11.369  11.942  12.895
 4122SOL     OW14139   5.273   2.039   4.413
 4122SOL    HW114140   5.181   2.036   4.442
 4122SOL    HW214141   5.277   2.117   4.357
 4123SOL     OW14142   7.939   4.233  13.004
 4123SOL    HW114143   7.856   4.279  12.989
 4123SOL    HW214144   7.991   4.252  12.927
 4124SOL     OW14145   4.348  10.834   7.916
 4124SOL    HW114146   4.370  10.805   8.005
 4124SOL    HW214147   4.405  10.910   7.902
 4125SOL     OW14148  10.448   0.150  14.503
 4125SOL    HW114149  10.473   0.144  14.410
 4125SOL    HW214150  10.527   0.180  14.548
 4126SOL     OW14151   6.533   1.362  10.253
 4126SOL    HW114152   6.452   1.340  10.298
 4126SOL    HW214153   6.528   1.457  10.238
 4127SOL     OW14154   0.250   8.295   3.548
 4127SOL    HW114155   0.238   8.358   3.477
 4127SOL    HW214156   0.339   8.311   3.579
 4128SOL     OW14157   9.775  10.031   8.252
 4128SOL    HW114158   9.811   9.965   8.193
 4128SOL    HW214159   9.842  10.041   8.320
 4129SOL     OW14160  13.979   3.323   0.122
 4129SOL    HW114161  13.970   3.364   0.209
 4129SOL    HW214162  14.069   3.291   0.120
 4130SOL     OW14163  12.031   8.315   7.923
 4130SOL    HW114164  12.118   8.320   7.883
 4130SOL    HW214165  11.997   8.405   7.918
 4131SOL     OW14166  14.807  12.782  14.532
 4131SOL    HW114167  14.719  12.750  14.512
 4131SOL    HW214168  14.825  12.748  14.620
 4132SOL     OW14169   8.634  12.505  14.168
 4132SOL    HW114170   8.540  12.507  14.148
 4132SOL    HW214171   8.655  12.594  14.196
 4133SOL     OW14172   4.415  11.202   5.877
 4133SOL    HW114173   4.486  11.262   5.901
 4133SOL    HW214174   4.355  11.255   5.825
 4134SOL     OW14175   2.094  11.500   3.578
 4134SOL    HW114176   2.121  11.471   3.666
 4134SOL    HW214177   2.088  11.419   3.527
 4135SOL     OW14178  10.616  10.984   3.889
 4135SOL    HW114179  10.566  11.022   3.817
 4135SOL    HW214180  10.586  11.031   3.967
 4136SOL     OW14181  10.303   4.315  10.910
 4136SOL    HW114182  10.377   4.255  10.907
 4136SOL    HW214183  10.227   4.259  10.926
 4137SOL     OW14184  12.022   9.685  13.396
 4137SOL    HW114185  11.932   9.704  13.425
 4137SOL    HW214186  12.041   9.598  13.431
 4138SOL     OW14187   3.036   4.870   5.197
 4138SOL    HW114188   3.047   4.836   5.285
 4138SOL    HW214189   3.013   4.793   5.144
 4139SOL     OW14190   8.278   5.789   9.241
 4139SOL    HW114191   8.350   5.837   9.283
 4139SOL    HW214192   8.277   5.821   9.151
 4140SOL     OW14193   7.618   4.585   6.062
 4140SOL    HW114194   7.575   4.578   6.148
 4140SOL    HW214195   7.600   4.675   6.034
 4141SOL     OW14196   9.512   4.374   0.843
 4141SOL    HW114197   9.492   4.286   0.873
 4141SOL    HW214198   9.427   4.417   0.833
 4142SOL     OW14199  13.843  10.605  13.677
 4142SOL    HW114200  13.820  10.669  13.745
 4142SOL    HW214201  13.807  10.523  13.708
 4143SOL     OW14202   8.502   0.603   5.585
 4143SOL    HW114203   8.554   0.679   5.611
 4143SOL    HW214204   8.478   0.560   5.668
 4144SOL     OW14205   2.036   0.862   5.229
 4144SOL    HW114206   2.057   0.889   5.140
 4144SOL    HW214207   2.106   0.898   5.282
 4145SOL     OW14208   1.586  10.607  10.521
 4145SOL    HW114209   1.536  10.546  10.575
 4145SOL    HW214210   1.520  10.668  10.487
 4146SOL     OW14211  13.261  12.738   3.174
 4146SOL    HW114212  13.335  12.714   3.119
 4146SOL    HW214213  13.184  12.725   3.118
 4147SOL     OW14214   7.622  13.071  10.094
 4147SOL    HW114215   7.544  13.095  10.044
 4147SOL    HW214216   7.589  13.055  10.182
 4148SOL     OW14217   6.882   9.015   6.933
 4148SOL    HW114218   6.927   9.099   6.941
 4148SOL    HW214219   6.814   9.030   6.868
 4149SOL     OW14220  10.406   5.849  11.040
 4149SOL    HW114221  10.333   5.789  11.055
 4149SOL    HW214222  10.429   5.836  10.948
 4150SOL     OW14223   0.489   5.031   5.582
 4150SOL    HW114224   0.539   5.059   5.659
 4150SOL    HW214225   0.532   5.076   5.509
 4151SOL     OW14226  10.116   2.536   0.083
 4151SOL    HW114227  10.117   2.482   0.004
 4151SOL    HW214228  10.146   2.622   0.054
 4152SOL     OW14229   6.588   0.651   1.399
 4152SOL    HW114230   6.672   0.607   1.396
 4152SOL    HW214231   6.601   0.722   1.463
 4153SOL     OW14232  13.931   9.305  11.775
 4153SOL    HW114233  13.949   9.284  11.867
 4153SOL    HW214234  13.836   9.303  11.768
 4154SOL     OW14235   1.905  10.724   0.742
 4154SOL    HW114236   1.868  10.723   0.830
 4154SOL    HW214237   1.868  10.803   0.701
 4155SOL     OW14238   4.719   2.018  14.446
 4155SOL    HW114239   4.653   2.082  14.475
 4155SOL    HW214240   4.761   2.060  14.371
 4156SOL     OW14241  11.319   3.769   3.136
 4156SOL    HW114242  11.229   3.743   3.154
 4156SOL    HW214243  11.353   3.701   3.079
 4157SOL     OW14244   3.205  12.917   7.659
 4157SOL    HW114245   3.197  13.012   7.669
 4157SOL    HW214246   3.285  12.905   7.607
 4158SOL     OW14247   2.248  12.815  13.871
 4158SOL    HW114248   2.291  12.757  13.808
 4158SOL    HW214249   2.157  12.818  13.842
 4159SOL     OW14250  10.220  10.324  11.004
 4159SOL    HW114251  10.192  10.237  10.975
 4159SOL    HW214252  10.138  10.366  11.032
 4160SOL     OW14253  10.966   8.736   0.253
 4160SOL    HW114254  10.990   8.801   0.319
 4160SOL    HW214255  10.931   8.788   0.180
 4161SOL     OW14256  13.412   2.464  11.232
 4161SOL    HW114257  13.431   2.394  11.294
 4161SOL    HW214258  13.498   2.490  11.199
 4162SOL     OW14259   5.380   0.711  13.028
 4162SOL    HW114260   5.391   0.651  12.954
 4162SOL    HW214261   5.448   0.777  13.016
 4163SOL     OW14262  13.326  10.242   6.947
 4163SOL    HW114263  13.288  10.216   7.031
 4163SOL    HW214264  13.252  10.274   6.895
 4164SOL     OW14265  13.305  11.370  12.194
 4164SOL    HW114266  13.365  11.300  12.218
 4164SOL    HW214267  13.223  11.347  12.237
 4165SOL     OW14268  11.235   2.567   9.456
 4165SOL    HW114269  11.328   2.547   9.446
 4165SOL    HW214270  11.202   2.498   9.513
 4166SOL     OW14271   9.983   9.764  13.512
 4166SOL    HW114272  10.036   9.686  13.527
 4166SOL    HW214273   9.938   9.780  13.595
 4167SOL     OW14274   2.495  13.291   7.808
 4167SOL    HW114275   2.582  13.252   7.808
 4167SOL    HW214276   2.473  13.301   7.901
 4168SOL     OW14277   2.274   1.108  14.565
 4168SOL    HW114278   2.368   1.124  14.573
 4168SOL    HW214279   2.251   1.141  14.478
 4169SOL     OW14280   7.362   3.048  10.494
 4169SOL    HW114281   7.336   2.956  10.488
 4169SOL    HW214282   7.444   3.053  10.445
 4170SOL     OW14283   3.161   5.470  12.378
 4170SOL    HW114284   3.104   5.541  12.348
 4170SOL    HW214285   3.131   5.393  12.330
 4171SOL     OW14286   0.746   4.210  11.010
 4171SOL    HW114287   0.737   4.229  10.916
 4171SOL    HW214288   0.817   4.146  11.014
 4172SOL     OW14289  10.411  14.631   3.055
 4172SOL    HW114290  10.329  14.644   3.008
 4172SOL    HW214291  10.385  14.612   3.145
 4173SOL     OW14292   0.859  12.322  14.169
 4173SOL    HW114293   0.865  12.235  14.129
 4173SOL    HW214294   0.766  12.343  14.168
 4174SOL     OW14295  13.010   8.908   1.640
 4174SOL    HW114296  13.050   8.854   1.708
 4174SOL    HW214297  12.937   8.855   1.606
 4175SOL     OW14298   1.260   8.142  10.053
 4175SOL    HW114299   1.264   8.199   9.976
 4175SOL    HW214300   1.294   8.197  10.124
 4176SOL     OW14301   6.413   7.028   8.652
 4176SOL    HW114302   6.389   7.098   8.713
 4176SOL    HW214303   6.459   7.074   8.581
 4177SOL     OW14304  11.180  12.903   2.895
 4177SOL    HW114305  11.124  12.828   2.879
 4177SOL    HW214306  11.263  12.866   2.925
 4178SOL     OW14307   6.456   5.681   6.696
 4178SOL    HW114308   6.539   5.724   6.717
 4178SOL    HW214309   6.474   5.588   6.707
 4179SOL     OW14310  14.131   8.084   1.158
 4179SOL    HW114311  14.046   8.116   1.188
 4179SOL    HW214312  14.138   8.117   1.068
 4180SOL     OW14313   9.575   1.798  11.929
 4180SOL    HW114314   9.604   1.842  11.850
 4180SOL    HW214315   9.616   1.712  11.926
 4181SOL     OW14316  13.345   0.274  10.505
 4181SOL    HW114317  13.336   0.350  10.446
 4181SOL    HW214318  13.279   0.289  10.573
 4182SOL     OW14319   3.497  12.739  12.228
 4182SOL    HW114320   3.499  12.649  12.195
 4182SOL    HW214321   3.583  12.753  12.266
 4183SOL     OW14322   2.675  13.615   5.484
 4183SOL    HW114323   2.634  13.647   5.403
 4183SOL    HW214324   2.620  13.542   5.511
 4184SOL     OW14325   0.916  11.791   1.245
 4184SOL    HW114326   0.871  11.730   1.187
 4184SOL    HW214327   0.851  11.813   1.312
 4185SOL     OW14328   9.675   3.054   5.570
 4185SOL    HW114329   9.655   3.066   5.663
 4185SOL    HW214330   9.750   2.993   5.569
 4186SOL     OW14331  10.556   9.964  14.447
 4186SOL    HW114332  10.532   9.883  14.403
 4186SOL    HW214333  10.481   9.985  14.503
 4187SOL     OW14334  14.269   7.684  14.126
 4187SOL    HW114335  14.178   7.667  14.149
 4187SOL    HW214336  14.311   7.597  14.128
 4188SOL     OW14337   6.692   8.749   3.457
 4188SOL    HW114338   6.724   8.815   3.396
 4188SOL    HW214339   6.764   8.685   3.463
 4189SOL     OW14340   3.436   4.080  14.144
 4189SOL    HW114341   3.434   4.152  14.082
 4189SOL    HW214342   3.522   4.039  14.131
 4190SOL     OW14343  14.189   6.087   7.614
 4190SOL    HW114344  14.100   6.053   7.610
 4190SOL    HW214345  14.179   6.179   7.640
 4191SOL     OW14346   1.716   8.580  14.137
 4191SOL    HW114347   1.694   8.583  14.043
 4191SOL    HW214348   1.764   8.661  14.153
 4192SOL     OW14349   9.679   5.594  10.903
 4192SOL    HW114350   9.635   5.675  10.926
 4192SOL    HW214351   9.660   5.535  10.976
 4193SOL     OW14352  11.706   7.619   9.978
 4193SOL    HW114353  11.649   7.606  10.053
 4193SOL    HW214354  11.687   7.546   9.920
 4194SOL     OW14355   9.206   8.401   8.936
 4194SOL    HW114356   9.212   8.471   9.001
 4194SOL    HW214357   9.297   8.382   8.912
 4195SOL     OW14358   0.020   6.022  13.836
 4195SOL    HW114359   0.013   5.928  13.853
 4195SOL    HW214360  14.808   6.048  13.811
 4196SOL     OW14361   0.141   2.335   3.301
 4196SOL    HW114362   0.123   2.414   3.352
 4196SOL    HW214363   0.097   2.349   3.217
 4197SOL     OW14364  12.572   6.482  11.435
 4197SOL    HW114365  12.549   6.533  11.513
 4197SOL    HW214366  12.583   6.393  11.467
 4198SOL     OW14367   6.022   4.041   3.956
 4198SOL    HW114368   6.037   3.953   3.921
 4198SOL    HW214369   5.970   4.027   4.035
 4199SOL     OW14370  10.871   9.999   2.906
 4199SOL    HW114371  10.945  10.048   2.869
 4199SOL    HW214372  10.797  10.020   2.849
 4200SOL     OW14373   3.203   8.635  10.582
 4200SOL    HW114374   3.210   8.605  10.491
 4200SOL    HW214375   3.290   8.671  10.602
 4201SOL     OW14376   8.149   0.674   2.342
 4201SOL    HW114377   8.186   0.601   2.393
 4201SOL    HW214378   8.058   0.678   2.369
 4202SOL     OW14379   8.148   1.248   7.287
 4202SOL    HW114380   8.216   1.312   7.306
 4202SOL    HW214381   8.079   1.299   7.245
 4203SOL     OW14382   8.079   9.397   9.582
 4203SOL    HW114383   8.033   9.340   9.520
 4203SOL    HW214384   8.050   9.366   9.668
 4204SOL     OW14385   1.375  10.406  10.307
 4204SOL    HW114386   1.363  10.462  10.231
 4204SOL    HW214387   1.469  10.410  10.326
 4205SOL     OW14388   0.105   2.845   6.488
 4205SOL    HW114389   0.167   2.902   6.444
 4205SOL    HW214390   0.084   2.777   6.423
 4206SOL     OW14391   8.399   7.765   2.152
 4206SOL    HW114392   8.403   7.750   2.246
 4206SOL    HW214393   8.351   7.690   2.118
 4207SOL     OW14394   9.469   2.488  14.191
 4207SOL    HW114395   9.456   2.568  14.241
 4207SOL    HW214396   9.562   2.467  14.203
 4208SOL     OW14397   8.625   6.504  14.677
 4208SOL    HW114398   8.653   6.592  14.651
 4208SOL    HW214399   8.529   6.506  14.669
 4209SOL     OW14400   6.642  13.792   8.632
 4209SOL    HW114401   6.560  13.773   8.586
 4209SOL    HW214402   6.626  13.767   8.723
 4210SOL     OW14403   8.441  13.076   1.598
 4210SOL    HW114404   8.536  13.085   1.602
 4210SOL    HW214405   8.409  13.166   1.590
 4211SOL     OW14406   2.236   5.076   3.069
 4211SOL    HW114407   2.248   5.052   3.161
 4211SOL    HW214408   2.149   5.043   3.047
 4212SOL     OW14409   1.620  14.874  14.627
 4212SOL    HW114410   1.605   0.091  14.633
 4212SOL    HW214411   1.663  14.851  14.710
 4213SOL     OW14412  10.391   3.215   4.921
 4213SOL    HW114413  10.418   3.258   5.002
 4213SOL    HW214414  10.318   3.159   4.946
 4214SOL     OW14415   1.738  12.133   8.141
 4214SOL    HW114416   1.724  12.062   8.079
 4214SOL    HW214417   1.740  12.090   8.227
 4215SOL     OW14418   2.455   8.042   3.837
 4215SOL    HW114419   2.370   8.011   3.871
 4215SOL    HW214420   2.456   8.014   3.746
 4216SOL     OW14421  13.367  12.060   8.380
 4216SOL    HW114422  13.386  12.119   8.307
 4216SOL    HW214423  13.451  12.019   8.399
 4217SOL     OW14424   4.095   9.845   7.945
 4217SOL    HW114425   4.176   9.866   7.990
 4217SOL    HW214426   4.038   9.921   7.962
 4218SOL     OW14427   4.692  14.273  14.010
 4218SOL    HW114428   4.624  14.308  13.952
 4218SOL    HW214429   4.729  14.199  13.962
 4219SOL     OW14430  12.781  12.859   3.505
 4219SOL    HW114431  12.743  12.850   3.592
 4219SOL    HW214432  12.843  12.787   3.498
 4220SOL     OW14433   4.912   4.831  13.973
 4220SOL    HW114434   4.821   4.801  13.971
 4220SOL    HW214435   4.939   4.821  14.064
 4221SOL     OW14436   9.818   1.962  12.793
 4221SOL    HW114437   9.847   1.954  12.702
 4221SOL    HW214438   9.728   1.993  12.788
 4222SOL     OW14439  11.793  14.685   0.181
 4222SOL    HW114440  11.804  14.710   0.273
 4222SOL    HW214441  11.873  14.637   0.159
 4223SOL     OW14442  13.418  10.436   2.453
 4223SOL    HW114443  13.513  10.423   2.450
 4223SOL    HW214444  13.394  10.414   2.543
 4224SOL     OW14445  10.033   0.447  14.478
 4224SOL    HW114446  10.007   0.354  14.478
 4224SOL    HW214447   9.984   0.485  14.406
 4225SOL     OW14448  11.749   9.026  10.079
 4225SOL    HW114449  11.712   9.001  10.163
 4225SOL    HW214450  11.673   9.037  10.021
 4226SOL     OW14451  14.104  12.436   2.368
 4226SOL    HW114452  14.129  12.528   2.360
 4226SOL    HW214453  14.183  12.388   2.341
 4227SOL     OW14454   7.341   9.602   9.854
 4227SOL    HW114455   7.256   9.646   9.847
 4227SOL    HW214456   7.342   9.565   9.943
 4228SOL     OW14457  14.802  13.194   9.148
 4228SOL    HW114458  14.779  13.133   9.218
 4228SOL    HW214459  14.726  13.196   9.091
 4229SOL     OW14460   7.509  13.274  11.495
 4229SOL    HW114461   7.484  13.222  11.572
 4229SOL    HW214462   7.530  13.209  11.428
 4230SOL     OW14463   5.325  10.461   1.045
 4230SOL    HW114464   5.345  10.548   1.081
 4230SOL    HW214465   5.372  10.459   0.961
 4231SOL     OW14466  11.431   5.824   3.576
 4231SOL    HW114467  11.405   5.817   3.484
 4231SOL    HW214468  11.384   5.901   3.609
 4232SOL     OW14469  11.525   1.079   9.373
 4232SOL    HW114470  11.585   1.058   9.445
 4232SOL    HW214471  11.547   1.170   9.350
 4233SOL     OW14472  12.575   2.982   8.755
 4233SOL    HW114473  12.592   2.941   8.670
 4233SOL    HW214474  12.534   3.066   8.733
 4234SOL     OW14475   0.393   9.514   8.302
 4234SOL    HW114476   0.388   9.610   8.305
 4234SOL    HW214477   0.304   9.486   8.285
 4235SOL     OW14478  10.878   2.844  12.169
 4235SOL    HW114479  10.890   2.788  12.092
 4235SOL    HW214480  10.934   2.805  12.236
 4236SOL     OW14481   9.662  14.712   8.065
 4236SOL    HW114482   9.595  14.709   8.133
 4236SOL    HW214483   9.678  14.805   8.050
 4237SOL     OW14484  10.484   1.485  12.593
 4237SOL    HW114485  10.446   1.572  12.600
 4237SOL    HW214486  10.430   1.439  12.529
 4238SOL     OW14487   4.172  11.553  12.751
 4238SOL    HW114488   4.200  11.628  12.699
 4238SOL    HW214489   4.201  11.477  12.701
 4239SOL     OW14490   1.127   8.983  12.613
 4239SOL    HW114491   1.052   8.930  12.585
 4239SOL    HW214492   1.173   8.928  12.676
 4240SOL     OW14493  11.030   4.052   6.566
 4240SOL    HW114494  11.111   4.002   6.555
 4240SOL    HW214495  10.961   3.990   6.543
 4241SOL     OW14496   5.201   6.365  13.758
 4241SOL    HW114497   5.244   6.296  13.810
 4241SOL    HW214498   5.234   6.352  13.669
 4242SOL     OW14499   5.219   0.392   2.273
 4242SOL    HW114500   5.165   0.314   2.267
 4242SOL    HW214501   5.255   0.403   2.185
 4243SOL     OW14502   8.555   1.637   0.390
 4243SOL    HW114503   8.532   1.726   0.365
 4243SOL    HW214504   8.559   1.638   0.485
 4244SOL     OW14505  12.753   2.257   2.089
 4244SOL    HW114506  12.669   2.262   2.044
 4244SOL    HW214507  12.811   2.314   2.039
 4245SOL     OW14508   5.734   3.366   8.554
 4245SOL    HW114509   5.663   3.421   8.588
 4245SOL    HW214510   5.794   3.356   8.628
 4246SOL     OW14511   9.161  11.923   8.713
 4246SOL    HW114512   9.197  12.009   8.692
 4246SOL    HW214513   9.124  11.892   8.630
 4247SOL     OW14514   0.594  12.305  14.612
 4247SOL    HW114515   0.672  12.315  14.558
 4247SOL    HW214516   0.583  12.391  14.654
 4248SOL     OW14517  13.977   3.024   8.706
 4248SOL    HW114518  14.054   2.986   8.663
 4248SOL    HW214519  13.923   2.949   8.729
 4249SOL     OW14520  13.498   4.234   3.526
 4249SOL    HW114521  13.579   4.284   3.520
 4249SOL    HW214522  13.430   4.301   3.534
 4250SOL     OW14523   6.903   7.565   8.376
 4250SOL    HW114524   6.822   7.525   8.408
 4250SOL    HW214525   6.952   7.587   8.455
 4251SOL     OW14526  10.845   5.771  12.310
 4251SOL    HW114527  10.775   5.773  12.375
 4251SOL    HW214528  10.801   5.751  12.227
 4252SOL     OW14529   7.904   2.416   1.438
 4252SOL    HW114530   7.892   2.482   1.506
 4252SOL    HW214531   7.842   2.440   1.370
 4253SOL     OW14532   4.643   7.085  14.618
 4253SOL    HW114533   4.612   7.034  14.544
 4253SOL    HW214534   4.686   7.021  14.675
 4254SOL     OW14535   2.103   2.415   4.836
 4254SOL    HW114536   2.036   2.369   4.786
 4254SOL    HW214537   2.178   2.355   4.836
 4255SOL     OW14538   7.814  11.384  11.976
 4255SOL    HW114539   7.777  11.458  12.025
 4255SOL    HW214540   7.818  11.414  11.886
 4256SOL     OW14541  11.637   4.151   1.201
 4256SOL    HW114542  11.621   4.220   1.265
 4256SOL    HW214543  11.615   4.070   1.247
 4257SOL     OW14544  14.193   6.933   4.406
 4257SOL    HW114545  14.227   6.899   4.488
 4257SOL    HW214546  14.099   6.914   4.408
 4258SOL     OW14547   7.972   6.314   7.011
 4258SOL    HW114548   7.900   6.371   6.982
 4258SOL    HW214549   7.951   6.228   6.974
 4259SOL     OW14550   6.773  10.333   5.382
 4259SOL    HW114551   6.783  10.325   5.287
 4259SOL    HW214552   6.723  10.255   5.407
 4260SOL     OW14553   5.130  14.646   9.015
 4260SOL    HW114554   5.190  14.675   8.946
 4260SOL    HW214555   5.065  14.716   9.022
 4261SOL     OW14556   6.108   0.520   7.125
 4261SOL    HW114557   6.147   0.465   7.057
 4261SOL    HW214558   6.152   0.604   7.116
 4262SOL     OW14559   5.150  10.907  11.076
 4262SOL    HW114560   5.139  10.874  10.987
 4262SOL    HW214561   5.062  10.936  11.102
 4263SOL     OW14562   6.427  12.855  12.078
 4263SOL    HW114563   6.474  12.911  12.016
 4263SOL    HW214564   6.418  12.772  12.033
 4264SOL     OW14565   1.233   2.455  10.379
 4264SOL    HW114566   1.144   2.489  10.388
 4264SOL    HW214567   1.279   2.487  10.457
 4265SOL     OW14568   9.513   6.236  12.771
 4265SOL    HW114569   9.468   6.296  12.712
 4265SOL    HW214570   9.442   6.185  12.812
 4266SOL     OW14571  14.698   3.473  10.118
 4266SOL    HW114572  14.622   3.461  10.176
 4266SOL    HW214573  14.721   3.565  10.128
 4267SOL     OW14574  10.431   4.277  12.265
 4267SOL    HW114575  10.443   4.306  12.355
 4267SOL    HW214576  10.519   4.273  12.228
 4268SOL     OW14577   2.368   6.315   0.564
 4268SOL    HW114578   2.382   6.357   0.648
 4268SOL    HW214579   2.457   6.293   0.533
 4269SOL     OW14580   2.508  11.190   7.256
 4269SOL    HW114581   2.424  11.230   7.235
 4269SOL    HW214582   2.488  11.099   7.277
 4270SOL     OW14583  13.081  11.587  14.349
 4270SOL    HW114584  13.152  11.527  14.372
 4270SOL    HW214585  13.114  11.636  14.274
 4271SOL     OW14586   5.764   2.161   6.706
 4271SOL    HW114587   5.699   2.214   6.752
 4271SOL    HW214588   5.835   2.149   6.769
 4272SOL     OW14589  10.204   1.126   3.571
 4272SOL    HW114590  10.140   1.060   3.596
 4272SOL    HW214591  10.245   1.153   3.653
 4273SOL     OW14592   6.218  12.996   8.113
 4273SOL    HW114593   6.250  12.945   8.039
 4273SOL    HW214594   6.257  12.955   8.189
 4274SOL     OW14595   4.672   0.921  12.648
 4274SOL    HW114596   4.758   0.882  12.633
 4274SOL    HW214597   4.692   1.013  12.670
 4275SOL     OW14598  12.176  14.823   5.197
 4275SOL    HW114599  12.159  14.831   5.103
 4275SOL    HW214600  12.209   0.032   5.223
 4276SOL     OW14601  10.383   4.624   9.592
 4276SOL    HW114602  10.417   4.653   9.677
 4276SOL    HW214603  10.365   4.705   9.545
 4277SOL     OW14604   8.609  13.525  11.870
 4277SOL    HW114605   8.590  13.432  11.880
 4277SOL    HW214606   8.528  13.563  11.837
 4278SOL     OW14607  11.906   7.025  13.526
 4278SOL    HW114608  11.829   7.068  13.564
 4278SOL    HW214609  11.935   6.964  13.594
 4279SOL     OW14610   4.928   8.539   4.300
 4279SOL    HW114611   4.892   8.573   4.218
 4279SOL    HW214612   5.020   8.567   4.298
 4280SOL     OW14613   0.998   8.803   6.638
 4280SOL    HW114614   1.003   8.762   6.724
 4280SOL    HW214615   1.057   8.879   6.644
 4281SOL     OW14616  12.008   3.236  13.412
 4281SOL    HW114617  12.050   3.317  13.381
 4281SOL    HW214618  11.974   3.259  13.499
 4282SOL     OW14619   3.128   0.198   5.995
 4282SOL    HW114620   3.114   0.119   6.047
 4282SOL    HW214621   3.223   0.203   5.983
 4283SOL     OW14622   3.068  11.238   3.347
 4283SOL    HW114623   3.045  11.148   3.370
 4283SOL    HW214624   3.056  11.286   3.429
 4284SOL     OW14625  12.007   2.984   8.921
 4284SOL    HW114626  11.928   3.015   8.878
 4284SOL    HW214627  11.976   2.952   9.006
 4285SOL     OW14628   1.988  13.338   8.638
 4285SOL    HW114629   2.026  13.425   8.646
 4285SOL    HW214630   2.055  13.285   8.595
 4286SOL     OW14631   1.602   1.216  10.271
 4286SOL    HW114632   1.596   1.124  10.247
 4286SOL    HW214633   1.651   1.217  10.353
 4287SOL     OW14634   9.146  13.260  10.650
 4287SOL    HW114635   9.054  13.261  10.623
 4287SOL    HW214636   9.145  13.222  10.737
 4288SOL     OW14637   9.092   2.163  14.866
 4288SOL    HW114638   9.152   2.089  14.856
 4288SOL    HW214639   9.119   2.225  14.799
 4289SOL     OW14640  12.268   8.296   5.816
 4289SOL    HW114641  12.256   8.306   5.722
 4289SOL    HW214642  12.185   8.258   5.846
 4290SOL     OW14643   9.920   4.662   9.479
 4290SOL    HW114644  10.013   4.638   9.470
 4290SOL    HW214645   9.901   4.711   9.400
 4291SOL     OW14646   5.090   7.132   1.605
 4291SOL    HW114647   5.048   7.208   1.646
 4291SOL    HW214648   5.181   7.135   1.638
 4292SOL     OW14649   1.718   1.230   9.330
 4292SOL    HW114650   1.755   1.317   9.311
 4292SOL    HW214651   1.764   1.202   9.410
 4293SOL     OW14652   5.542   0.514   8.066
 4293SOL    HW114653   5.609   0.451   8.038
 4293SOL    HW214654   5.505   0.548   7.985
 4294SOL     OW14655   4.143  13.147   3.157
 4294SOL    HW114656   4.080  13.096   3.209
 4294SOL    HW214657   4.228  13.113   3.184
 4295SOL     OW14658   7.523   6.794   0.070
 4295SOL    HW114659   7.517   6.724   0.004
 4295SOL    HW214660   7.440   6.840   0.064
 4296SOL     OW14661  12.493  11.216   6.289
 4296SOL    HW114662  12.438  11.294   6.284
 4296SOL    HW214663  12.546  11.228   6.367
 4297SOL     OW14664   6.666  12.945   8.031
 4297SOL    HW114665   6.613  12.994   7.968
 4297SOL    HW214666   6.751  12.935   7.988
 4298SOL     OW14667   3.760   7.160   9.212
 4298SOL    HW114668   3.672   7.125   9.199
 4298SOL    HW214669   3.777   7.210   9.132
 4299SOL     OW14670   3.065   4.700   2.215
 4299SOL    HW114671   3.026   4.713   2.301
 4299SOL    HW214672   3.159   4.696   2.232
 4300SOL     OW14673   4.559   8.127   2.108
 4300SOL    HW114674   4.649   8.113   2.078
 4300SOL    HW214675   4.562   8.111   2.202
 4301SOL     OW14676   3.547   1.549  12.889
 4301SOL    HW114677   3.452   1.562  12.885
 4301SOL    HW214678   3.559   1.473  12.945
 4302SOL     OW14679   1.601   9.700   1.243
 4302SOL    HW114680   1.612   9.733   1.332
 4302SOL    HW214681   1.512   9.726   1.218
 4303SOL     OW14682   9.069   4.057   9.546
 4303SOL    HW114683   9.096   4.095   9.630
 4303SOL    HW214684   9.004   4.118   9.512
 4304SOL     OW14685   4.686   3.414   7.192
 4304SOL    HW114686   4.613   3.353   7.200
 4304SOL    HW214687   4.755   3.377   7.246
 4305SOL     OW14688   1.729   9.791  10.677
 4305SOL    HW114689   1.674   9.715  10.692
 4305SOL    HW214690   1.813   9.769  10.717
 4306SOL     OW14691   4.120   0.394  10.587
 4306SOL    HW114692   4.149   0.337  10.658
 4306SOL    HW214693   4.075   0.335  10.526
 4307SOL     OW14694   0.993  10.453   5.044
 4307SOL    HW114695   0.973  10.541   5.015
 4307SOL    HW214696   0.972  10.453   5.138
 4308SOL     OW14697   4.026   3.154   5.223
 4308SOL    HW114698   4.115   3.179   5.200
 4308SOL    HW214699   4.016   3.182   5.314
 4309SOL     OW14700  13.047   4.982   2.969
 4309SOL    HW114701  12.956   5.011   2.972
 4309SOL    HW214702  13.099   5.062   2.978
 4310SOL     OW14703   1.394   3.051   5.478
 4310SOL    HW114704   1.302   3.041   5.453
 4310SOL    HW214705   1.427   3.118   5.418
 4311SOL     OW14706   7.330  13.613   1.170
 4311SOL    HW114707   7.308  13.690   1.222
 4311SOL    HW214708   7.324  13.642   1.080
 4312SOL     OW14709   8.057   1.551  13.678
 4312SOL    HW114710   7.979   1.607  13.686
 4312SOL    HW214711   8.094   1.548  13.766
 4313SOL     OW14712   7.605   3.620   4.116
 4313SOL    HW114713   7.681   3.620   4.059
 4313SOL    HW214714   7.602   3.709   4.153
 4314SOL     OW14715   9.383  12.431  10.623
 4314SOL    HW114716   9.429  12.408  10.543
 4314SOL    HW214717   9.401  12.524  10.637
 4315SOL     OW14718  10.918  12.845   5.501
 4315SOL    HW114719  10.965  12.813   5.578
 4315SOL    HW214720  10.893  12.934   5.524
 4316SOL     OW14721  10.093   4.693  10.015
 4316SOL    HW114722  10.008   4.700   9.972
 4316SOL    HW214723  10.154   4.734   9.954
 4317SOL     OW14724   8.287   3.101   5.417
 4317SOL    HW114725   8.362   3.051   5.384
 4317SOL    HW214726   8.242   3.040   5.476
 4318SOL     OW14727   6.098  14.238   1.060
 4318SOL    HW114728   6.029  14.271   1.118
 4318SOL    HW214729   6.177  14.286   1.087
 4319SOL     OW14730   3.638   2.216   2.614
 4319SOL    HW114731   3.684   2.208   2.530
 4319SOL    HW214732   3.583   2.139   2.619
 4320SOL     OW14733   3.681   1.184  12.881
 4320SOL    HW114734   3.722   1.156  12.799
 4320SOL    HW214735   3.588   1.197  12.858
 4321SOL     OW14736   3.346  14.037   9.928
 4321SOL    HW114737   3.255  14.034   9.898
 4321SOL    HW214738   3.394  14.073   9.853
 4322SOL     OW14739  13.135  10.865  13.247
 4322SOL    HW114740  13.196  10.854  13.174
 4322SOL    HW214741  13.188  10.852  13.325
 4323SOL     OW14742   7.444   0.788   6.418
 4323SOL    HW114743   7.457   0.710   6.472
 4323SOL    HW214744   7.358   0.774   6.377
 4324SOL     OW14745   6.822   4.535  10.447
 4324SOL    HW114746   6.835   4.627  10.466
 4324SOL    HW214747   6.910   4.496  10.451
 4325SOL     OW14748  14.602   5.468   4.853
 4325SOL    HW114749  14.599   5.372   4.859
 4325SOL    HW214750  14.515   5.492   4.821
 4326SOL     OW14751   8.435   3.808   8.677
 4326SOL    HW114752   8.387   3.842   8.753
 4326SOL    HW214753   8.406   3.863   8.604
 4327SOL     OW14754   2.289  10.436  11.858
 4327SOL    HW114755   2.230  10.511  11.857
 4327SOL    HW214756   2.373  10.471  11.886
 4328SOL     OW14757  11.043  12.015   7.277
 4328SOL    HW114758  10.979  11.944   7.274
 4328SOL    HW214759  11.030  12.056   7.362
 4329SOL     OW14760   9.504  14.379   4.213
 4329SOL    HW114761   9.448  14.455   4.225
 4329SOL    HW214762   9.460  14.327   4.145
 4330SOL     OW14763  12.531   6.286   3.669
 4330SOL    HW114764  12.462   6.289   3.735
 4330SOL    HW214765  12.559   6.195   3.668
 4331SOL     OW14766   4.132   0.829  12.401
 4331SOL    HW114767   4.153   0.774  12.477
 4331SOL    HW214768   4.039   0.814  12.386
 4332SOL     OW14769   2.728  10.614  13.013
 4332SOL    HW114770   2.636  10.614  12.989
 4332SOL    HW214771   2.731  10.656  13.099
 4333SOL     OW14772   4.356   2.485   6.317
 4333SOL    HW114773   4.423   2.443   6.262
 4333SOL    HW214774   4.289   2.514   6.255
 4334SOL     OW14775  10.378   5.728   1.757
 4334SOL    HW114776  10.338   5.801   1.804
 4334SOL    HW214777  10.445   5.768   1.702
 4335SOL     OW14778   5.105   9.144   7.149
 4335SOL    HW114779   5.101   9.187   7.235
 4335SOL    HW214780   5.052   9.200   7.092
 4336SOL     OW14781   4.479  11.265  14.587
 4336SOL    HW114782   4.529  11.303  14.658
 4336SOL    HW214783   4.490  11.326  14.514
 4337SOL     OW14784   7.109   2.676   4.124
 4337SOL    HW114785   7.193   2.716   4.148
 4337SOL    HW214786   7.076   2.639   4.205
 4338SOL     OW14787  14.683   7.524   5.938
 4338SOL    HW114788  14.633   7.553   5.862
 4338SOL    HW214789  14.663   7.430   5.946
 4339SOL     OW14790   8.646  14.526   7.898
 4339SOL    HW114791   8.568  14.526   7.843
 4339SOL    HW214792   8.616  14.495   7.983
 4340SOL     OW14793  10.506  10.402   9.379
 4340SOL    HW114794  10.485  10.453   9.457
 4340SOL    HW214795  10.431  10.344   9.366
 4341SOL     OW14796   2.978   8.944  10.524
 4341SOL    HW114797   3.040   8.918  10.593
 4341SOL    HW214798   3.032   8.953  10.446
 4342SOL     OW14799   1.877   0.951   4.514
 4342SOL    HW114800   1.856   1.028   4.566
 4342SOL    HW214801   1.924   0.894   4.574
 4343SOL     OW14802  11.997  13.217   4.258
 4343SOL    HW114803  11.937  13.259   4.319
 4343SOL    HW214804  11.939  13.167   4.200
 4344SOL     OW14805   8.817   1.895   0.394
 4344SOL    HW114806   8.731   1.900   0.353
 4344SOL    HW214807   8.803   1.842   0.473
 4345SOL     OW14808   4.719  12.134   9.783
 4345SOL    HW114809   4.801  12.180   9.801
 4345SOL    HW214810   4.722  12.114   9.690
 4346SOL     OW14811   3.327   4.130   6.402
 4346SOL    HW114812   3.265   4.171   6.462
 4346SOL    HW214813   3.390   4.199   6.382
 4347SOL     OW14814  10.038   3.118  10.662
 4347SOL    HW114815   9.959   3.164  10.689
 4347SOL    HW214816  10.006   3.037  10.620
 4348SOL     OW14817   7.728   1.308  14.185
 4348SOL    HW114818   7.642   1.301  14.228
 4348SOL    HW214819   7.777   1.233  14.219
 4349SOL     OW14820  12.767   2.735  11.489
 4349SOL    HW114821  12.831   2.777  11.548
 4349SOL    HW214822  12.692   2.795  11.489
 4350SOL     OW14823   4.868  11.010   4.284
 4350SOL    HW114824   4.843  10.947   4.217
 4350SOL    HW214825   4.789  11.020   4.338
 4351SOL     OW14826  13.200   8.377   4.471
 4351SOL    HW114827  13.237   8.332   4.547
 4351SOL    HW214828  13.276   8.392   4.413
 4352SOL     OW14829   5.805  13.824   5.574
 4352SOL    HW114830   5.749  13.799   5.648
 4352SOL    HW214831   5.884  13.860   5.614
 4353SOL     OW14832   7.722   2.584   4.577
 4353SOL    HW114833   7.667   2.511   4.551
 4353SOL    HW214834   7.779   2.549   4.644
 4354SOL     OW14835  14.796   9.721   2.475
 4354SOL    HW114836  14.748   9.719   2.392
 4354SOL    HW214837   0.004   9.757   2.452
 4355SOL     OW14838   5.020  11.513   3.004
 4355SOL    HW114839   5.029  11.418   3.006
 4355SOL    HW214840   5.096  11.544   2.955
 4356SOL     OW14841  10.475   6.386  11.947
 4356SOL    HW114842  10.523   6.412  12.025
 4356SOL    HW214843  10.501   6.449  11.880
 4357SOL     OW14844   8.314   4.305  12.023
 4357SOL    HW114845   8.352   4.291  11.936
 4357SOL    HW214846   8.312   4.218  12.063
 4358SOL     OW14847  10.478   8.757  13.839
 4358SOL    HW114848  10.513   8.838  13.803
 4358SOL    HW214849  10.413   8.728  13.775
 4359SOL     OW14850  14.066  13.259  11.752
 4359SOL    HW114851  14.110  13.208  11.684
 4359SOL    HW214852  14.018  13.194  11.803
 4360SOL     OW14853   0.948   3.489  14.202
 4360SOL    HW114854   1.035   3.492  14.162
 4360SOL    HW214855   0.911   3.576  14.187
 4361SOL     OW14856   5.580   9.690   9.203
 4361SOL    HW114857   5.603   9.635   9.278
 4361SOL    HW214858   5.531   9.632   9.145
 4362SOL     OW14859   7.884   1.809  11.555
 4362SOL    HW114860   7.977   1.813  11.579
 4362SOL    HW214861   7.837   1.810  11.638
 4363SOL     OW14862  13.435   1.463   8.058
 4363SOL    HW114863  13.413   1.387   8.004
 4363SOL    HW214864  13.528   1.451   8.080
 4364SOL     OW14865  14.733   4.020   3.521
 4364SOL    HW114866  14.744   4.092   3.582
 4364SOL    HW214867  14.687   4.058   3.446
 4365SOL     OW14868   9.621  12.353   7.180
 4365SOL    HW114869   9.626  12.400   7.263
 4365SOL    HW214870   9.688  12.395   7.125
 4366SOL     OW14871  13.627   1.714   1.343
 4366SOL    HW114872  13.644   1.722   1.437
 4366SOL    HW214873  13.626   1.804   1.311
 4367SOL     OW14874  13.767   7.393   8.728
 4367SOL    HW114875  13.800   7.454   8.663
 4367SOL    HW214876  13.760   7.445   8.808
 4368SOL     OW14877   5.381  10.574   4.943
 4368SOL    HW114878   5.318  10.502   4.946
 4368SOL    HW214879   5.447  10.551   5.009
 4369SOL     OW14880   4.673  12.784   7.611
 4369SOL    HW114881   4.640  12.872   7.595
 4369SOL    HW214882   4.694  12.750   7.524
 4370SOL     OW14883  13.099   5.519   1.531
 4370SOL    HW114884  13.048   5.497   1.609
 4370SOL    HW214885  13.085   5.613   1.518
 4371SOL     OW14886   1.820   1.849  12.504
 4371SOL    HW114887   1.753   1.882  12.564
 4371SOL    HW214888   1.775   1.779  12.456
 4372SOL     OW14889  14.284   3.335   4.127
 4372SOL    HW114890  14.363   3.388   4.132
 4372SOL    HW214891  14.222   3.380   4.184
 4373SOL     OW14892   6.587   0.693   6.626
 4373SOL    HW114893   6.637   0.682   6.545
 4373SOL    HW214894   6.589   0.787   6.644
 4374SOL     OW14895   4.223  13.087   2.184
 4374SOL    HW114896   4.271  13.072   2.102
 4374SOL    HW214897   4.237  13.007   2.235
 4375SOL     OW14898   4.866   7.281   5.169
 4375SOL    HW114899   4.926   7.262   5.096
 4375SOL    HW214900   4.813   7.202   5.177
 4376SOL     OW14901   0.075   0.786   8.743
 4376SOL    HW114902   0.052   0.877   8.723
 4376SOL    HW214903   0.166   0.790   8.772
 4377SOL     OW14904   3.223   9.872   6.771
 4377SOL    HW114905   3.163   9.812   6.814
 4377SOL    HW214906   3.310   9.832   6.782
 4378SOL     OW14907   7.804   3.365   8.716
 4378SOL    HW114908   7.875   3.354   8.778
 4378SOL    HW214909   7.840   3.418   8.646
 4379SOL     OW14910   3.094   2.910  14.088
 4379SOL    HW114911   3.172   2.966  14.082
 4379SOL    HW214912   3.118   2.831  14.039
 4380SOL     OW14913  13.465   3.830  14.603
 4380SOL    HW114914  13.514   3.749  14.593
 4380SOL    HW214915  13.415   3.819  14.684
 4381SOL     OW14916   2.237   5.117  14.018
 4381SOL    HW114917   2.227   5.059  13.943
 4381SOL    HW214918   2.331   5.132  14.026
 4382SOL     OW14919   3.358   5.396   5.431
 4382SOL    HW114920   3.393   5.485   5.424
 4382SOL    HW214921   3.395   5.362   5.513
 4383SOL     OW14922  11.460  11.966   4.559
 4383SOL    HW114923  11.472  11.879   4.520
 4383SOL    HW214924  11.387  11.955   4.620
 4384SOL     OW14925  10.749   8.905  11.859
 4384SOL    HW114926  10.747   8.822  11.813
 4384SOL    HW214927  10.657   8.925  11.877
 4385SOL     OW14928   6.987  14.336  12.053
 4385SOL    HW114929   7.053  14.395  12.087
 4385SOL    HW214930   6.939  14.388  11.988
 4386SOL     OW14931   3.585   8.888   8.952
 4386SOL    HW114932   3.590   8.945   9.028
 4386SOL    HW214933   3.556   8.945   8.881
 4387SOL     OW14934   6.301  10.328   6.491
 4387SOL    HW114935   6.348  10.296   6.567
 4387SOL    HW214936   6.346  10.288   6.416
 4388SOL     OW14937   0.939  10.149   4.332
 4388SOL    HW114938   0.916  10.216   4.396
 4388SOL    HW214939   1.031  10.165   4.312
 4389SOL     OW14940   8.539   1.148  11.870
 4389SOL    HW114941   8.478   1.094  11.820
 4389SOL    HW214942   8.618   1.094  11.878
 4390SOL     OW14943   7.779  12.595   9.231
 4390SOL    HW114944   7.740  12.680   9.251
 4390SOL    HW214945   7.725  12.560   9.160
 4391SOL     OW14946   8.762  11.327   7.705
 4391SOL    HW114947   8.693  11.284   7.756
 4391SOL    HW214948   8.834  11.264   7.703
 4392SOL     OW14949   2.747   4.555   5.118
 4392SOL    HW114950   2.711   4.640   5.140
 4392SOL    HW214951   2.671   4.496   5.116
 4393SOL     OW14952   4.709   4.893   2.755
 4393SOL    HW114953   4.735   4.905   2.846
 4393SOL    HW214954   4.791   4.886   2.707
 4394SOL     OW14955   5.481  13.882   0.835
 4394SOL    HW114956   5.564  13.859   0.875
 4394SOL    HW214957   5.486  13.845   0.746
 4395SOL     OW14958   8.820   1.683  10.742
 4395SOL    HW114959   8.879   1.661  10.814
 4395SOL    HW214960   8.748   1.620  10.751
 4396SOL     OW14961  12.838  11.269   9.030
 4396SOL    HW114962  12.843  11.266   9.126
 4396SOL    HW214963  12.818  11.179   9.004
 4397SOL     OW14964  12.802   5.619   9.954
 4397SOL    HW114965  12.881   5.670   9.934
 4397SOL    HW214966  12.736   5.654   9.895
 4398SOL     OW14967   1.894   6.008   0.580
 4398SOL    HW114968   1.832   6.080   0.593
 4398SOL    HW214969   1.853   5.933   0.622
 4399SOL     OW14970   9.043   0.175  10.309
 4399SOL    HW114971   9.010   0.257  10.346
 4399SOL    HW214972   8.978   0.149  10.244
 4400SOL     OW14973   4.005   2.731   7.642
 4400SOL    HW114974   4.097   2.759   7.642
 4400SOL    HW214975   3.969   2.764   7.560
 4401SOL     OW14976   4.742   7.256   3.219
 4401SOL    HW114977   4.720   7.163   3.211
 4401SOL    HW214978   4.688   7.287   3.292
 4402SOL     OW14979   7.647  12.809  14.674
 4402SOL    HW114980   7.660  12.723  14.633
 4402SOL    HW214981   7.555  12.829  14.660
 4403SOL     OW14982   8.936  12.634  11.097
 4403SOL    HW114983   9.014  12.668  11.141
 4403SOL    HW214984   8.960  12.631  11.005
 4404SOL     OW14985   0.818   5.164  12.370
 4404SOL    HW114986   0.903   5.131  12.340
 4404SOL    HW214987   0.837   5.206  12.455
 4405SOL     OW14988  10.997  11.803   5.916
 4405SOL    HW114989  11.007  11.806   5.821
 4405SOL    HW214990  10.929  11.868   5.935
 4406SOL     OW14991   8.299   9.967   5.831
 4406SOL    HW114992   8.336   9.963   5.919
 4406SOL    HW214993   8.280   9.876   5.809
 4407SOL     OW14994  13.148  13.888   5.707
 4407SOL    HW114995  13.137  13.885   5.803
 4407SOL    HW214996  13.242  13.894   5.694
 4408SOL     OW14997   9.030   7.024   1.696
 4408SOL    HW114998   9.034   7.077   1.617
 4408SOL    HW214999   8.939   7.029   1.725
 4409SOL     OW15000  13.131   9.968   6.095
 4409SOL    HW115001  13.199  10.035   6.101
 4409SOL    HW215002  13.174   9.888   6.124
 4410SOL     OW15003   5.483  13.306  14.034
 4410SOL    HW115004   5.559  13.249  14.048
 4410SOL    HW215005   5.489  13.332  13.941
 4411SOL     OW15006   3.757   5.701  13.121
 4411SOL    HW115007   3.703   5.623  13.115
 4411SOL    HW215008   3.742   5.747  13.038
 4412SOL     OW15009   4.385   3.490  13.081
 4412SOL    HW115010   4.430   3.407  13.100
 4412SOL    HW215011   4.381   3.494  12.986
 4413SOL     OW15012  13.963  12.462   8.193
 4413SOL    HW115013  14.021  12.502   8.128
 4413SOL    HW215014  13.947  12.532   8.257
 4414SOL     OW15015  14.662  10.952   4.120
 4414SOL    HW115016  14.738  10.974   4.067
 4414SOL    HW215017  14.659  11.020   4.188
 4415SOL     OW15018  11.913   0.572  13.209
 4415SOL    HW115019  11.943   0.578  13.118
 4415SOL    HW215020  11.988   0.537  13.256
 4416SOL     OW15021  13.154  11.302   6.118
 4416SOL    HW115022  13.187  11.276   6.203
 4416SOL    HW215023  13.230  11.297   6.060
 4417SOL     OW15024   4.921   2.380   7.267
 4417SOL    HW115025   4.895   2.295   7.302
 4417SOL    HW215026   4.862   2.394   7.193
 4418SOL     OW15027   2.357   1.165   5.618
 4418SOL    HW115028   2.330   1.247   5.660
 4418SOL    HW215029   2.306   1.161   5.537
 4419SOL     OW15030  12.946  13.823  10.034
 4419SOL    HW115031  12.961  13.728  10.028
 4419SOL    HW215032  12.969  13.855   9.947
 4420SOL     OW15033  12.682   8.295   3.715
 4420SOL    HW115034  12.587   8.301   3.712
 4420SOL    HW215035  12.701   8.244   3.793
 4421SOL     OW15036   0.998   8.243   7.483
 4421SOL    HW115037   0.961   8.164   7.443
 4421SOL    HW215038   0.957   8.248   7.569
 4422SOL     OW15039   7.522   1.072   1.285
 4422SOL    HW115040   7.607   1.030   1.299
 4422SOL    HW215041   7.459   1.013   1.326
 4423SOL     OW15042   3.016  10.810   2.793
 4423SOL    HW115043   3.058  10.729   2.820
 4423SOL    HW215044   2.923  10.796   2.812
 4424SOL     OW15045   2.679   8.969  13.142
 4424SOL    HW115046   2.715   8.962  13.053
 4424SOL    HW215047   2.730   8.907  13.194
 4425SOL     OW15048  11.226  10.956   5.111
 4425SOL    HW115049  11.185  10.892   5.169
 4425SOL    HW215050  11.319  10.934   5.114
 4426SOL     OW15051   1.698  12.498  10.917
 4426SOL    HW115052   1.608  12.529  10.931
 4426SOL    HW215053   1.687  12.405  10.897
 4427SOL     OW15054   5.608  14.613   1.934
 4427SOL    HW115055   5.558  14.668   1.874
 4427SOL    HW215056   5.640  14.541   1.878
 4428SOL     OW15057  13.666   4.889   2.999
 4428SOL    HW115058  13.708   4.857   2.920
 4428SOL    HW215059  13.574   4.902   2.974
 4429SOL     OW15060   6.862   6.174  14.650
 4429SOL    HW115061   6.896   6.159  14.738
 4429SOL    HW215062   6.805   6.251  14.659
 4430SOL     OW15063  14.661   3.955  12.061
 4430SOL    HW115064  14.593   3.902  12.103
 4430SOL    HW215065  14.735   3.895  12.052
 4431SOL     OW15066  10.406   3.852   8.567
 4431SOL    HW115067  10.375   3.938   8.540
 4431SOL    HW215068  10.500   3.852   8.545
 4432SOL     OW15069  10.185  14.296   0.049
 4432SOL    HW115070  10.265  14.262   0.008
 4432SOL    HW215071  10.134  14.330  14.853
 4433SOL     OW15072   8.226  11.901   6.987
 4433SOL    HW115073   8.230  11.978   7.044
 4433SOL    HW215074   8.136  11.898   6.955
 4434SOL     OW15075   8.323  13.461   6.208
 4434SOL    HW115076   8.298  13.370   6.224
 4434SOL    HW215077   8.261  13.491   6.141
 4435SOL     OW15078   5.841   9.857   5.597
 4435SOL    HW115079   5.887   9.883   5.676
 4435SOL    HW215080   5.868   9.921   5.531
 4436SOL     OW15081  12.445   7.717   7.650
 4436SOL    HW115082  12.503   7.769   7.705
 4436SOL    HW215083  12.397   7.662   7.712
 4437SOL     OW15084   8.131   8.879  10.810
 4437SOL    HW115085   8.183   8.815  10.860
 4437SOL    HW215086   8.040   8.858  10.833
 4438SOL     OW15087   6.418  14.822   3.891
 4438SOL    HW115088   6.401   0.028   3.934
 4438SOL    HW215089   6.401  14.756   3.959
 4439SOL     OW15090   6.719   1.303   7.302
 4439SOL    HW115091   6.677   1.387   7.323
 4439SOL    HW215092   6.794   1.298   7.361
 4440SOL     OW15093   1.281   9.034  14.245
 4440SOL    HW115094   1.205   9.046  14.302
 4440SOL    HW215095   1.248   9.047  14.157
 4441SOL     OW15096  13.909   6.777   7.601
 4441SOL    HW115097  13.845   6.708   7.582
 4441SOL    HW215098  13.928   6.767   7.694
 4442SOL     OW15099   5.681  14.167  13.702
 4442SOL    HW115100   5.687  14.096  13.638
 4442SOL    HW215101   5.624  14.232  13.660
 4443SOL     OW15102   8.570   0.890  10.109
 4443SOL    HW115103   8.556   0.984  10.092
 4443SOL    HW215104   8.583   0.852  10.022
 4444SOL     OW15105   2.947   1.624  14.164
 4444SOL    HW115106   2.972   1.574  14.086
 4444SOL    HW215107   2.932   1.557  14.231
 4445SOL     OW15108  12.309   0.518  12.374
 4445SOL    HW115109  12.282   0.440  12.422
 4445SOL    HW215110  12.398   0.536  12.406
 4446SOL     OW15111   0.060  12.746   1.976
 4446SOL    HW115112   0.129  12.680   1.972
 4446SOL    HW215113   0.082  12.799   2.052
 4447SOL     OW15114   6.590   4.950   0.297
 4447SOL    HW115115   6.609   4.984   0.210
 4447SOL    HW215116   6.602   5.026   0.355
 4448SOL     OW15117  12.539  14.781  11.658
 4448SOL    HW115118  12.499  14.729  11.728
 4448SOL    HW215119  12.620  14.735  11.638
 4449SOL     OW15120   8.780   3.268   9.805
 4449SOL    HW115121   8.790   3.203   9.735
 4449SOL    HW215122   8.826   3.231   9.880
 4450SOL     OW15123   6.241   6.755  12.320
 4450SOL    HW115124   6.201   6.706  12.392
 4450SOL    HW215125   6.328   6.779  12.353
 4451SOL     OW15126   5.507  10.573   3.461
 4451SOL    HW115127   5.556  10.580   3.379
 4451SOL    HW215128   5.433  10.517   3.440
 4452SOL     OW15129   9.344   5.326   1.830
 4452SOL    HW115130   9.383   5.249   1.872
 4452SOL    HW215131   9.419   5.375   1.795
 4453SOL     OW15132  10.879   8.345  13.464
 4453SOL    HW115133  10.966   8.354  13.426
 4453SOL    HW215134  10.853   8.434  13.486
 4454SOL     OW15135   5.944   2.002  10.106
 4454SOL    HW115136   5.951   1.911  10.077
 4454SOL    HW215137   5.850   2.016  10.118
 4455SOL     OW15138   2.885   8.852   3.459
 4455SOL    HW115139   2.815   8.817   3.515
 4455SOL    HW215140   2.965   8.811   3.493
 4456SOL     OW15141   3.196   0.463   5.461
 4456SOL    HW115142   3.126   0.528   5.455
 4456SOL    HW215143   3.216   0.440   5.370
 4457SOL     OW15144   7.705   3.463   0.374
 4457SOL    HW115145   7.661   3.395   0.324
 4457SOL    HW215146   7.792   3.427   0.394
 4458SOL     OW15147  12.584  11.438   8.135
 4458SOL    HW115148  12.538  11.505   8.186
 4458SOL    HW215149  12.582  11.471   8.045
 4459SOL     OW15150   1.397   5.186  14.652
 4459SOL    HW115151   1.418   5.250  14.584
 4459SOL    HW215152   1.372   5.107  14.603
 4460SOL     OW15153   0.874   1.084   5.834
 4460SOL    HW115154   0.935   1.055   5.766
 4460SOL    HW215155   0.788   1.067   5.796
 4461SOL     OW15156   6.227  11.138  12.406
 4461SOL    HW115157   6.199  11.050  12.383
 4461SOL    HW215158   6.146  11.189  12.407
 4462SOL     OW15159   2.870  11.523   0.128
 4462SOL    HW115160   2.951  11.537   0.177
 4462SOL    HW215161   2.895  11.462   0.058
 4463SOL     OW15162   5.775   2.910   1.066
 4463SOL    HW115163   5.757   2.969   0.993
 4463SOL    HW215164   5.758   2.823   1.031
 4464SOL     OW15165   4.415   9.427   1.287
 4464SOL    HW115166   4.367   9.510   1.286
 4464SOL    HW215167   4.468   9.428   1.208
 4465SOL     OW15168  12.682   1.818   2.723
 4465SOL    HW115169  12.696   1.751   2.789
 4465SOL    HW215170  12.587   1.832   2.723
 4466SOL     OW15171   7.417   6.401   1.835
 4466SOL    HW115172   7.398   6.308   1.852
 4466SOL    HW215173   7.335   6.435   1.798
 4467SOL     OW15174  10.205   2.078   6.688
 4467SOL    HW115175  10.134   2.130   6.650
 4467SOL    HW215176  10.202   2.098   6.781
 4468SOL     OW15177   1.074   8.987  13.514
 4468SOL    HW115178   0.981   9.008  13.520
 4468SOL    HW215179   1.084   8.947  13.427
 4469SOL     OW15180   8.669   8.415   8.492
 4469SOL    HW115181   8.663   8.434   8.585
 4469SOL    HW215182   8.691   8.499   8.451
 4470SOL     OW15183  10.137   4.981  12.327
 4470SOL    HW115184  10.213   5.031  12.358
 4470SOL    HW215185  10.066   5.044  12.326
 4471SOL     OW15186   4.970   2.635   4.432
 4471SOL    HW115187   4.991   2.551   4.474
 4471SOL    HW215188   4.874   2.640   4.435
 4472SOL     OW15189   7.273   7.026  11.759
 4472SOL    HW115190   7.291   6.998  11.670
 4472SOL    HW215191   7.259   7.121  11.753
 4473SOL     OW15192   5.789  13.630   8.143
 4473SOL    HW115193   5.845  13.706   8.129
 4473SOL    HW215194   5.783  13.589   8.057
 4474SOL     OW15195  10.818   0.868  14.248
 4474SOL    HW115196  10.887   0.932  14.262
 4474SOL    HW215197  10.742   0.920  14.222
 4475SOL     OW15198   5.239   9.692   5.554
 4475SOL    HW115199   5.198   9.746   5.621
 4475SOL    HW215200   5.241   9.604   5.592
 4476SOL     OW15201   7.029   5.363   2.568
 4476SOL    HW115202   6.979   5.286   2.539
 4476SOL    HW215203   7.100   5.327   2.620
 4477SOL     OW15204   6.473   2.096   8.157
 4477SOL    HW115205   6.554   2.117   8.205
 4477SOL    HW215206   6.417   2.054   8.222
 4478SOL     OW15207   0.583  14.059   6.044
 4478SOL    HW115208   0.648  14.012   5.992
 4478SOL    HW215209   0.531  13.990   6.085
 4479SOL     OW15210   6.860   3.078   2.309
 4479SOL    HW115211   6.865   3.173   2.294
 4479SOL    HW215212   6.943   3.044   2.274
 4480SOL     OW15213   4.445   6.345  12.738
 4480SOL    HW115214   4.397   6.287  12.679
 4480SOL    HW215215   4.416   6.433  12.716
 4481SOL     OW15216   1.313   0.192   7.825
 4481SOL    HW115217   1.248   0.262   7.814
 4481SOL    HW215218   1.341   0.200   7.916
 4482SOL     OW15219   1.098   8.469   3.347
 4482SOL    HW115220   1.173   8.519   3.314
 4482SOL    HW215221   1.135   8.388   3.381
 4483SOL     OW15222   5.205   7.765  13.411
 4483SOL    HW115223   5.179   7.846  13.455
 4483SOL    HW215224   5.285   7.737  13.457
 4484SOL     OW15225   6.046  13.076   1.749
 4484SOL    HW115226   6.112  13.014   1.718
 4484SOL    HW215227   6.080  13.161   1.725
 4485SOL     OW15228   9.120   2.664  14.838
 4485SOL    HW115229   9.127   2.665   0.056
 4485SOL    HW215230   9.185   2.728  14.809
 4486SOL     OW15231   0.952   9.672   1.320
 4486SOL    HW115232   1.020   9.691   1.384
 4486SOL    HW215233   0.974   9.585   1.286
 4487SOL     OW15234   8.609   6.197   4.176
 4487SOL    HW115235   8.659   6.278   4.162
 4487SOL    HW215236   8.590   6.196   4.269
 4488SOL     OW15237   6.032  12.387   2.030
 4488SOL    HW115238   6.126  12.374   2.021
 4488SOL    HW215239   6.008  12.442   1.955
 4489SOL     OW15240   3.779   5.364   9.213
 4489SOL    HW115241   3.781   5.295   9.147
 4489SOL    HW215242   3.838   5.432   9.180
 4490SOL     OW15243   7.810  12.843  13.768
 4490SOL    HW115244   7.871  12.781  13.807
 4490SOL    HW215245   7.751  12.789  13.716
 4491SOL     OW15246   6.267  12.839  14.372
 4491SOL    HW115247   6.275  12.749  14.341
 4491SOL    HW215248   6.353  12.860  14.408
 4492SOL     OW15249  14.001  10.575   9.152
 4492SOL    HW115250  13.995  10.622   9.235
 4492SOL    HW215251  13.922  10.600   9.104
 4493SOL     OW15252   4.334   6.064   6.488
 4493SOL    HW115253   4.421   6.102   6.473
 4493SOL    HW215254   4.347   5.970   6.478
 4494SOL     OW15255  13.227   4.320   3.407
 4494SOL    HW115256  13.213   4.248   3.346
 4494SOL    HW215257  13.200   4.398   3.358
 4495SOL     OW15258   6.285   7.231   8.829
 4495SOL    HW115259   6.370   7.276   8.838
 4495SOL    HW215260   6.220   7.298   8.850
 4496SOL     OW15261   4.117   1.424   8.142
 4496SOL    HW115262   4.199   1.378   8.162
 4496SOL    HW215263   4.114   1.496   8.205
 4497SOL     OW15264  11.813   6.940   3.468
 4497SOL    HW115265  11.816   6.992   3.389
 4497SOL    HW215266  11.866   6.988   3.532
 4498SOL     OW15267   0.993   8.477   3.806
 4498SOL    HW115268   0.897   8.480   3.809
 4498SOL    HW215269   1.015   8.525   3.726
 4499SOL     OW15270   8.074   3.431   7.541
 4499SOL    HW115271   8.052   3.387   7.458
 4499SOL    HW215272   8.057   3.365   7.608
 4500SOL     OW15273   5.346   2.745  11.440
 4500SOL    HW115274   5.436   2.768  11.416
 4500SOL    HW215275   5.291   2.806  11.390
 4501SOL     OW15276   0.293   6.032   0.449
 4501SOL    HW115277   0.244   6.009   0.528
 4501SOL    HW215278   0.332   6.117   0.469
 4502SOL     OW15279   8.103   8.033   7.496
 4502SOL    HW115280   8.070   7.943   7.502
 4502SOL    HW215281   8.025   8.088   7.505
 4503SOL     OW15282   7.560   8.417  14.656
 4503SOL    HW115283   7.632   8.468  14.693
 4503SOL    HW215284   7.593   8.327  14.655
 4504SOL     OW15285   9.441   2.731   4.513
 4504SOL    HW115286   9.491   2.652   4.495
 4504SOL    HW215287   9.493   2.802   4.477
 4505SOL     OW15288   3.461   6.484   7.465
 4505SOL    HW115289   3.475   6.491   7.559
 4505SOL    HW215290   3.366   6.479   7.455
 4506SOL     OW15291   5.797   5.592  11.511
 4506SOL    HW115292   5.715   5.625  11.545
 4506SOL    HW215293   5.772   5.536  11.437
 4507SOL     OW15294   3.467   3.143   5.645
 4507SOL    HW115295   3.478   3.225   5.693
 4507SOL    HW215296   3.509   3.077   5.700
 4508SOL     OW15297   7.052   0.322   7.715
 4508SOL    HW115298   6.997   0.289   7.786
 4508SOL    HW215299   7.110   0.248   7.694
 4509SOL     OW15300   5.193  14.874   3.942
 4509SOL    HW115301   5.254  14.873   3.868
 4509SOL    HW215302   5.171  14.781   3.956
 4510SOL     OW15303  14.579  12.606   6.858
 4510SOL    HW115304  14.672  12.597   6.837
 4510SOL    HW215305  14.534  12.564   6.785
 4511SOL     OW15306  10.604   3.441   3.722
 4511SOL    HW115307  10.554   3.405   3.796
 4511SOL    HW215308  10.571   3.531   3.713
 4512SOL     OW15309  10.572   1.768   6.637
 4512SOL    HW115310  10.575   1.693   6.577
 4512SOL    HW215311  10.662   1.802   6.637
 4513SOL     OW15312   7.024   4.095  12.275
 4513SOL    HW115313   6.951   4.040  12.247
 4513SOL    HW215314   7.098   4.065  12.221
 4514SOL     OW15315  14.335   8.595   1.210
 4514SOL    HW115316  14.382   8.568   1.289
 4514SOL    HW215317  14.349   8.689   1.204
 4515SOL     OW15318   1.282   4.275  11.279
 4515SOL    HW115319   1.315   4.314  11.360
 4515SOL    HW215320   1.319   4.329  11.209
 4516SOL     OW15321   3.773   2.055   6.689
 4516SOL    HW115322   3.849   2.112   6.702
 4516SOL    HW215323   3.778   1.991   6.761
 4517SOL     OW15324   6.957   2.775   0.804
 4517SOL    HW115325   7.024   2.727   0.753
 4517SOL    HW215326   6.886   2.789   0.742
 4518SOL     OW15327  10.758   2.627  14.076
 4518SOL    HW115328  10.695   2.566  14.039
 4518SOL    HW215329  10.724   2.646  14.164
 4519SOL     OW15330  11.053   0.218  10.440
 4519SOL    HW115331  11.093   0.145  10.393
 4519SOL    HW215332  11.075   0.203  10.532
 4520SOL     OW15333  10.602   0.765   3.431
 4520SOL    HW115334  10.685   0.778   3.478
 4520SOL    HW215335  10.544   0.832   3.466
 4521SOL     OW15336  11.621   5.670   5.546
 4521SOL    HW115337  11.671   5.748   5.571
 4521SOL    HW215338  11.611   5.621   5.628
 4522SOL     OW15339   3.807   1.630  10.632
 4522SOL    HW115340   3.747   1.582  10.688
 4522SOL    HW215341   3.776   1.721  10.635
 4523SOL     OW15342   6.091   3.618   0.006
 4523SOL    HW115343   6.121   3.575  14.803
 4523SOL    HW215344   6.132   3.704   0.003
 4524SOL     OW15345   5.204  14.010   9.146
 4524SOL    HW115346   5.165  14.034   9.231
 4524SOL    HW215347   5.222  14.094   9.104
 4525SOL     OW15348   3.450  13.488   5.418
 4525SOL    HW115349   3.383  13.556   5.419
 4525SOL    HW215350   3.408  13.412   5.379
 4526SOL     OW15351  10.940  10.923  13.573
 4526SOL    HW115352  10.897  10.900  13.490
 4526SOL    HW215353  10.967  10.839  13.609
 4527SOL     OW15354   3.198   6.015   0.967
 4527SOL    HW115355   3.268   6.037   0.905
 4527SOL    HW215356   3.128   6.077   0.947
 4528SOL     OW15357   5.156   9.011   6.243
 4528SOL    HW115358   5.197   9.078   6.297
 4528SOL    HW215359   5.223   8.944   6.231
 4529SOL     OW15360  12.905  10.156   6.196
 4529SOL    HW115361  12.826  10.115   6.159
 4529SOL    HW215362  12.974  10.093   6.178
 4530SOL     OW15363   5.393   7.285   2.521
 4530SOL    HW115364   5.488   7.273   2.515
 4530SOL    HW215365   5.381   7.373   2.557
 4531SOL     OW15366  10.349  10.729  13.588
 4531SOL    HW115367  10.254  10.737  13.577
 4531SOL    HW215368  10.373  10.656  13.532
 4532SOL     OW15369   9.011   8.619   2.505
 4532SOL    HW115370   9.097   8.622   2.464
 4532SOL    HW215371   8.964   8.551   2.456
 4533SOL     OW15372   4.007   3.724   0.835
 4533SOL    HW115373   3.965   3.784   0.773
 4533SOL    HW215374   3.970   3.748   0.920
 4534SOL     OW15375   2.183   7.186   3.078
 4534SOL    HW115376   2.273   7.163   3.098
 4534SOL    HW215377   2.185   7.215   2.987
 4535SOL     OW15378   2.304   2.936   4.122
 4535SOL    HW115379   2.304   2.856   4.173
 4535SOL    HW215380   2.353   2.999   4.175
 4536SOL     OW15381  13.380  12.882   6.271
 4536SOL    HW115382  13.398  12.897   6.364
 4536SOL    HW215383  13.289  12.909   6.260
 4537SOL     OW15384   1.410   4.669   1.491
 4537SOL    HW115385   1.412   4.574   1.501
 4537SOL    HW215386   1.451   4.703   1.570
 4538SOL     OW15387   4.759   4.431   7.115
 4538SOL    HW115388   4.724   4.360   7.061
 4538SOL    HW215389   4.852   4.435   7.091
 4539SOL     OW15390   5.772  10.577   5.195
 4539SOL    HW115391   5.863  10.553   5.213
 4539SOL    HW215392   5.776  10.626   5.113
 4540SOL     OW15393  10.099   0.062   8.360
 4540SOL    HW115394  10.153   0.045   8.437
 4540SOL    HW215395  10.036  14.868   8.358
 4541SOL     OW15396  13.460   8.645  13.181
 4541SOL    HW115397  13.541   8.629  13.133
 4541SOL    HW215398  13.465   8.586  13.257
 4542SOL     OW15399  13.025  14.783  11.300
 4542SOL    HW115400  13.103  14.779  11.244
 4542SOL    HW215401  13.000  14.691  11.314
 4543SOL     OW15402   4.010  11.510  11.421
 4543SOL    HW115403   4.073  11.496  11.492
 4543SOL    HW215404   3.954  11.432  11.423
 4544SOL     OW15405   1.892  11.727  10.894
 4544SOL    HW115406   1.946  11.794  10.935
 4544SOL    HW215407   1.810  11.729  10.943
 4545SOL     OW15408  14.044   5.601   4.818
 4545SOL    HW115409  14.046   5.640   4.905
 4545SOL    HW215410  14.054   5.507   4.833
 4546SOL     OW15411  13.760   8.275   9.200
 4546SOL    HW115412  13.677   8.283   9.153
 4546SOL    HW215413  13.775   8.181   9.208
 4547SOL     OW15414   9.512  13.271   3.349
 4547SOL    HW115415   9.563  13.255   3.428
 4547SOL    HW215416   9.440  13.326   3.378
 4548SOL     OW15417  11.339  13.263   1.738
 4548SOL    HW115418  11.322  13.332   1.674
 4548SOL    HW215419  11.281  13.191   1.711
 4549SOL     OW15420  11.033   7.794   1.495
 4549SOL    HW115421  10.941   7.820   1.492
 4549SOL    HW215422  11.060   7.790   1.403
 4550SOL     OW15423  12.638   8.502   6.776
 4550SOL    HW115424  12.705   8.499   6.844
 4550SOL    HW215425  12.560   8.463   6.817
 4551SOL     OW15426  10.782   4.074  12.252
 4551SOL    HW115427  10.706   4.017  12.241
 4551SOL    HW215428  10.805   4.064  12.345
 4552SOL     OW15429   0.935   8.808  14.736
 4552SOL    HW115430   0.900   8.790  14.649
 4552SOL    HW215431   1.027   8.832  14.721
 4553SOL     OW15432  13.000   6.005   8.903
 4553SOL    HW115433  13.013   5.994   8.997
 4553SOL    HW215434  12.968   5.919   8.874
 4554SOL     OW15435  12.715   3.557   1.480
 4554SOL    HW115436  12.797   3.561   1.530
 4554SOL    HW215437  12.654   3.609   1.532
 4555SOL     OW15438   3.563   0.223   3.797
 4555SOL    HW115439   3.494   0.246   3.735
 4555SOL    HW215440   3.615   0.157   3.751
 4556SOL     OW15441   1.828  10.785   4.929
 4556SOL    HW115442   1.758  10.720   4.922
 4556SOL    HW215443   1.787  10.867   4.901
 4557SOL     OW15444  11.074   7.669  13.265
 4557SOL    HW115445  11.133   7.729  13.220
 4557SOL    HW215446  10.991   7.677  13.218
 4558SOL     OW15447   4.784   3.802   6.494
 4558SOL    HW115448   4.702   3.829   6.452
 4558SOL    HW215449   4.761   3.794   6.587
 4559SOL     OW15450   4.914  12.166   5.654
 4559SOL    HW115451   4.901  12.071   5.657
 4559SOL    HW215452   4.919  12.191   5.747
 4560SOL     OW15453   1.381   0.799   4.313
 4560SOL    HW115454   1.306   0.779   4.257
 4560SOL    HW215455   1.451   0.822   4.252
 4561SOL     OW15456   3.826   9.473  10.784
 4561SOL    HW115457   3.742   9.433  10.807
 4561SOL    HW215458   3.831   9.552  10.838
 4562SOL     OW15459   4.045   0.024  10.610
 4562SOL    HW115460   4.042  14.806  10.606
 4562SOL    HW215461   4.082   0.043  10.697
 4563SOL     OW15462  12.196   5.507   5.206
 4563SOL    HW115463  12.129   5.565   5.241
 4563SOL    HW215464  12.263   5.503   5.275
 4564SOL     OW15465  11.815  13.377   4.406
 4564SOL    HW115466  11.777  13.436   4.341
 4564SOL    HW215467  11.860  13.436   4.467
 4565SOL     OW15468   2.173  10.217   0.756
 4565SOL    HW115469   2.253  10.209   0.808
 4565SOL    HW215470   2.203  10.250   0.671
 4566SOL     OW15471   3.216   5.317   3.908
 4566SOL    HW115472   3.296   5.342   3.954
 4566SOL    HW215473   3.230   5.349   3.818
 4567SOL     OW15474   4.036  10.365   4.432
 4567SOL    HW115475   3.977  10.437   4.453
 4567SOL    HW215476   4.047  10.318   4.515
 4568SOL     OW15477  10.293  11.600  11.827
 4568SOL    HW115478  10.359  11.596  11.896
 4568SOL    HW215479  10.298  11.514  11.784
 4569SOL     OW15480   9.295   2.341  12.490
 4569SOL    HW115481   9.357   2.272  12.466
 4569SOL    HW215482   9.210   2.307  12.462
 4570SOL     OW15483  12.789   6.526   1.032
 4570SOL    HW115484  12.817   6.513   0.942
 4570SOL    HW215485  12.693   6.526   1.028
 4571SOL     OW15486   3.614  10.904  11.533
 4571SOL    HW115487   3.519  10.907  11.520
 4571SOL    HW215488   3.651  10.926  11.447
 4572SOL     OW15489  10.552   8.797   0.511
 4572SOL    HW115490  10.606   8.875   0.501
 4572SOL    HW215491  10.596   8.731   0.458
 4573SOL     OW15492   4.265   1.873   7.553
 4573SOL    HW115493   4.181   1.878   7.599
 4573SOL    HW215494   4.241   1.868   7.461
 4574SOL     OW15495  12.948   4.174   6.726
 4574SOL    HW115496  13.022   4.113   6.728
 4574SOL    HW215497  12.984   4.255   6.691
 4575SOL     OW15498   7.065   7.613   0.773
 4575SOL    HW115499   7.110   7.610   0.857
 4575SOL    HW215500   7.110   7.548   0.719
 4576SOL     OW15501   2.574   7.084   3.890
 4576SOL    HW115502   2.541   7.169   3.860
 4576SOL    HW215503   2.522   7.066   3.969
 4577SOL     OW15504   4.330  14.813   2.531
 4577SOL    HW115505   4.344   0.029   2.549
 4577SOL    HW215506   4.264  14.786   2.596
 4578SOL     OW15507  13.457  14.519  13.199
 4578SOL    HW115508  13.383  14.470  13.236
 4578SOL    HW215509  13.535  14.478  13.236
 4579SOL     OW15510  13.145   9.785  12.777
 4579SOL    HW115511  13.121   9.876  12.762
 4579SOL    HW215512  13.240   9.783  12.765
 4580SOL     OW15513   9.526   3.533   1.695
 4580SOL    HW115514   9.557   3.569   1.612
 4580SOL    HW215515   9.572   3.584   1.762
 4581SOL     OW15516  12.878  14.052   0.741
 4581SOL    HW115517  12.971  14.049   0.767
 4581SOL    HW215518  12.835  14.096   0.814
 4582SOL     OW15519  11.985  13.973  14.279
 4582SOL    HW115520  12.030  13.904  14.230
 4582SOL    HW215521  11.928  14.014  14.214
 4583SOL     OW15522   2.703   7.354   3.970
 4583SOL    HW115523   2.786   7.399   3.987
 4583SOL    HW215524   2.636   7.418   3.995
 4584SOL     OW15525   8.943   2.372  12.666
 4584SOL    HW115526   8.916   2.455  12.627
 4584SOL    HW215527   8.970   2.318  12.592
 4585SOL     OW15528   2.712  12.938   5.138
 4585SOL    HW115529   2.684  12.860   5.186
 4585SOL    HW215530   2.790  12.910   5.090
 4586SOL     OW15531   4.401   8.744   4.829
 4586SOL    HW115532   4.494   8.729   4.844
 4586SOL    HW215533   4.391   8.737   4.734
 4587SOL     OW15534   9.157   0.793   7.388
 4587SOL    HW115535   9.162   0.708   7.431
 4587SOL    HW215536   9.241   0.836   7.407
 4588SOL     OW15537  12.308   3.073   9.138
 4588SOL    HW115538  12.400   3.063   9.162
 4588SOL    HW215539  12.280   2.984   9.115
 4589SOL     OW15540  11.467   5.572   6.968
 4589SOL    HW115541  11.390   5.608   6.925
 4589SOL    HW215542  11.521   5.648   6.989
 4590SOL     OW15543   6.324   1.280  12.635
 4590SOL    HW115544   6.232   1.302  12.648
 4590SOL    HW215545   6.359   1.270  12.724
 4591SOL     OW15546   5.481   3.075  14.661
 4591SOL    HW115547   5.421   3.046  14.592
 4591SOL    HW215548   5.430   3.069  14.741
 4592SOL     OW15549   4.819   9.706   6.751
 4592SOL    HW115550   4.865   9.706   6.668
 4592SOL    HW215551   4.887   9.687   6.816
 4593SOL     OW15552  14.720   9.444   6.481
 4593SOL    HW115553  14.716   9.428   6.387
 4593SOL    HW215554  14.715   9.357   6.521
 4594SOL     OW15555   7.125  10.079  12.762
 4594SOL    HW115556   7.145  10.005  12.704
 4594SOL    HW215557   7.165  10.155  12.718
 4595SOL     OW15558  10.165  11.036   3.053
 4595SOL    HW115559  10.138  11.119   3.015
 4595SOL    HW215560  10.083  10.988   3.068
 4596SOL     OW15561   9.316   4.069  12.318
 4596SOL    HW115562   9.221   4.080  12.310
 4596SOL    HW215563   9.331   3.977  12.297
 4597SOL     OW15564   5.464  12.554   9.811
 4597SOL    HW115565   5.457  12.611   9.734
 4597SOL    HW215566   5.416  12.601   9.880
 4598SOL     OW15567  11.600   1.372  13.672
 4598SOL    HW115568  11.655   1.371  13.750
 4598SOL    HW215569  11.661   1.372  13.599
 4599SOL     OW15570   5.437  12.168   5.299
 4599SOL    HW115571   5.474  12.246   5.340
 4599SOL    HW215572   5.458  12.096   5.359
 4600SOL     OW15573  13.542  10.290   0.878
 4600SOL    HW115574  13.527  10.362   0.816
 4600SOL    HW215575  13.628  10.309   0.916
 4601SOL     OW15576   9.215   8.912  14.487
 4601SOL    HW115577   9.309   8.918  14.469
 4601SOL    HW215578   9.190   8.825  14.454
 4602SOL     OW15579   5.484  13.168  11.307
 4602SOL    HW115580   5.439  13.116  11.373
 4602SOL    HW215581   5.573  13.178  11.342
 4603SOL     OW15582  13.670   0.800  10.122
 4603SOL    HW115583  13.738   0.739  10.091
 4603SOL    HW215584  13.690   0.882  10.077
 4604SOL     OW15585  11.738   3.929   7.197
 4604SOL    HW115586  11.704   3.976   7.273
 4604SOL    HW215587  11.694   3.970   7.122
 4605SOL     OW15588   7.053   6.859   5.068
 4605SOL    HW115589   7.098   6.918   5.129
 4605SOL    HW215590   7.071   6.896   4.982
 4606SOL     OW15591   2.914   9.968   8.127
 4606SOL    HW115592   2.852   9.975   8.199
 4606SOL    HW215593   2.861   9.944   8.051
 4607SOL     OW15594  10.311   4.286  12.780
 4607SOL    HW115595  10.307   4.313  12.688
 4607SOL    HW215596  10.364   4.207  12.780
 4608SOL     OW15597  13.307   1.788   1.872
 4608SOL    HW115598  13.364   1.864   1.884
 4608SOL    HW215599  13.328   1.730   1.945
 4609SOL     OW15600   4.288  13.627   9.747
 4609SOL    HW115601   4.268  13.708   9.794
 4609SOL    HW215602   4.272  13.557   9.811
 4610SOL     OW15603   0.006   0.118   4.535
 4610SOL    HW115604  14.800   0.162   4.522
 4610SOL    HW215605   0.008   0.050   4.468
 4611SOL     OW15606   5.133   6.429   8.139
 4611SOL    HW115607   5.182   6.361   8.092
 4611SOL    HW215608   5.196   6.466   8.201
 4612SOL     OW15609   2.814  12.769  12.919
 4612SOL    HW115610   2.883  12.831  12.942
 4612SOL    HW215611   2.860  12.694  12.881
 4613SOL     OW15612   5.497   0.781   0.501
 4613SOL    HW115613   5.521   0.801   0.410
 4613SOL    HW215614   5.416   0.831   0.515
 4614SOL     OW15615  10.658  13.085   4.164
 4614SOL    HW115616  10.572  13.127   4.162
 4614SOL    HW215617  10.717  13.151   4.127
 4615SOL     OW15618  12.611  11.283  11.230
 4615SOL    HW115619  12.623  11.324  11.144
 4615SOL    HW215620  12.572  11.352  11.284
 4616SOL     OW15621   3.499   3.626   2.165
 4616SOL    HW115622   3.472   3.588   2.082
 4616SOL    HW215623   3.449   3.707   2.173
 4617SOL     OW15624   4.424  11.851   8.562
 4617SOL    HW115625   4.336  11.885   8.548
 4617SOL    HW215626   4.470  11.871   8.480
 4618SOL     OW15627   4.822   9.091   2.068
 4618SOL    HW115628   4.878   9.055   2.137
 4618SOL    HW215629   4.825   9.186   2.081
 4619SOL     OW15630  12.830   1.082   5.436
 4619SOL    HW115631  12.918   1.111   5.460
 4619SOL    HW215632  12.843   1.010   5.376
 4620SOL     OW15633  11.881   5.052   3.544
 4620SOL    HW115634  11.806   5.048   3.485
 4620SOL    HW215635  11.846   5.030   3.630
 4621SOL     OW15636   1.343   9.713   2.921
 4621SOL    HW115637   1.377   9.787   2.971
 4621SOL    HW215638   1.328   9.748   2.833
 4622SOL     OW15639   9.843  13.630  10.517
 4622SOL    HW115640   9.752  13.633  10.545
 4622SOL    HW215641   9.844  13.565  10.447
 4623SOL     OW15642   8.086   5.624   9.269
 4623SOL    HW115643   8.162   5.675   9.241
 4623SOL    HW215644   8.011   5.680   9.247
 4624SOL     OW15645   5.757   2.945   2.431
 4624SOL    HW115646   5.785   2.853   2.427
 4624SOL    HW215647   5.770   2.977   2.342
 4625SOL     OW15648  13.660  12.933  10.030
 4625SOL    HW115649  13.588  12.995  10.023
 4625SOL    HW215650  13.736  12.980   9.995
 4626SOL     OW15651   9.378   7.038   1.323
 4626SOL    HW115652   9.338   7.105   1.266
 4626SOL    HW215653   9.389   6.962   1.266
 4627SOL     OW15654   1.533   6.173   2.583
 4627SOL    HW115655   1.552   6.265   2.601
 4627SOL    HW215656   1.596   6.125   2.637
 4628SOL     OW15657   7.651   8.984   1.329
 4628SOL    HW115658   7.634   8.936   1.248
 4628SOL    HW215659   7.721   9.045   1.307
 4629SOL     OW15660   8.224  14.815  14.144
 4629SOL    HW115661   8.318  14.805  14.129
 4629SOL    HW215662   8.185  14.801  14.058
 4630SOL     OW15663  14.007   3.495  13.097
 4630SOL    HW115664  13.957   3.516  13.177
 4630SOL    HW215665  13.946   3.444  13.044
 4631SOL     OW15666  12.113  10.748   7.061
 4631SOL    HW115667  12.121  10.666   7.109
 4631SOL    HW215668  12.106  10.815   7.129
 4632SOL     OW15669   5.266  11.090   1.522
 4632SOL    HW115670   5.304  11.101   1.434
 4632SOL    HW215671   5.317  11.150   1.577
 4633SOL     OW15672   6.490   6.459   4.431
 4633SOL    HW115673   6.552   6.457   4.503
 4633SOL    HW215674   6.406   6.434   4.470
 4634SOL     OW15675   0.402   0.410  11.900
 4634SOL    HW115676   0.429   0.480  11.841
 4634SOL    HW215677   0.483   0.376  11.937
 4635SOL     OW15678   9.814   7.047   6.103
 4635SOL    HW115679   9.719   7.038   6.117
 4635SOL    HW215680   9.852   6.977   6.156
 4636SOL     OW15681   2.072  10.793   1.231
 4636SOL    HW115682   1.982  10.827   1.231
 4636SOL    HW215683   2.117  10.848   1.166
 4637SOL     OW15684   0.052   5.297  11.800
 4637SOL    HW115685   0.074   5.205  11.813
 4637SOL    HW215686  14.834   5.300  11.805
 4638SOL     OW15687  13.983   5.762  14.485
 4638SOL    HW115688  13.911   5.713  14.447
 4638SOL    HW215689  14.056   5.748  14.425
 4639SOL     OW15690   0.196   9.688  11.524
 4639SOL    HW115691   0.116   9.636  11.518
 4639SOL    HW215692   0.250   9.641  11.589
 4640SOL     OW15693   7.737   9.805  10.205
 4640SOL    HW115694   7.771   9.855  10.130
 4640SOL    HW215695   7.779   9.845  10.281
 4641SOL     OW15696   7.445   0.657  12.698
 4641SOL    HW115697   7.406   0.594  12.637
 4641SOL    HW215698   7.539   0.638  12.695
 4642SOL     OW15699  10.096  10.116   6.797
 4642SOL    HW115700  10.111  10.185   6.733
 4642SOL    HW215701  10.032  10.153   6.858
 4643SOL     OW15702   7.093   1.892   3.312
 4643SOL    HW115703   7.164   1.875   3.250
 4643SOL    HW215704   7.105   1.827   3.381
 4644SOL     OW15705   3.987   1.884  11.942
 4644SOL    HW115706   3.947   1.948  11.883
 4644SOL    HW215707   4.050   1.837  11.887
 4645SOL     OW15708   4.869   8.653   3.518
 4645SOL    HW115709   4.862   8.653   3.613
 4645SOL    HW215710   4.802   8.591   3.489
 4646SOL     OW15711   5.761   5.242  11.751
 4646SOL    HW115712   5.705   5.169  11.780
 4646SOL    HW215713   5.701   5.302  11.707
 4647SOL     OW15714  12.492  11.184   8.071
 4647SOL    HW115715  12.515  11.273   8.099
 4647SOL    HW215716  12.567  11.130   8.096
 4648SOL     OW15717   0.607   8.769  13.574
 4648SOL    HW115718   0.619   8.762  13.669
 4648SOL    HW215719   0.519   8.803  13.563
 4649SOL     OW15720   6.528   1.157   2.968
 4649SOL    HW115721   6.455   1.140   2.909
 4649SOL    HW215722   6.595   1.093   2.944
 4650SOL     OW15723   5.757  11.806   4.103
 4650SOL    HW115724   5.722  11.895   4.096
 4650SOL    HW215725   5.681  11.752   4.124
 4651SOL     OW15726   6.370   1.923   9.061
 4651SOL    HW115727   6.424   1.995   9.029
 4651SOL    HW215728   6.322   1.893   8.983
 4652SOL     OW15729   5.384   2.911   4.448
 4652SOL    HW115730   5.299   2.887   4.487
 4652SOL    HW215731   5.367   2.913   4.354
 4653SOL     OW15732   8.350   5.665   6.450
 4653SOL    HW115733   8.258   5.691   6.448
 4653SOL    HW215734   8.348   5.570   6.458
 4654SOL     OW15735  14.030  10.410   5.645
 4654SOL    HW115736  14.048  10.482   5.705
 4654SOL    HW215737  13.940  10.423   5.618
 4655SOL     OW15738   8.803   9.868   2.909
 4655SOL    HW115739   8.762   9.782   2.906
 4655SOL    HW215740   8.822   9.889   2.817
 4656SOL     OW15741  11.944  10.218  11.443
 4656SOL    HW115742  11.888  10.211  11.520
 4656SOL    HW215743  12.025  10.173  11.467
 4657SOL     OW15744   3.044  10.288   5.080
 4657SOL    HW115745   3.039  10.225   5.152
 4657SOL    HW215746   3.102  10.247   5.016
 4658SOL     OW15747   6.902  13.000  11.770
 4658SOL    HW115748   6.961  12.978  11.698
 4658SOL    HW215749   6.816  13.009  11.729
 4659SOL     OW15750   6.425   7.426   6.088
 4659SOL    HW115751   6.499   7.371   6.113
 4659SOL    HW215752   6.363   7.418   6.161
 4660SOL     OW15753   7.808   7.210  10.147
 4660SOL    HW115754   7.859   7.135  10.119
 4660SOL    HW215755   7.858   7.286  10.118
 4661SOL     OW15756   1.826   6.306   2.842
 4661SOL    HW115757   1.901   6.248   2.830
 4661SOL    HW215758   1.754   6.248   2.866
 4662SOL     OW15759   0.401   6.175  11.402
 4662SOL    HW115760   0.447   6.254  11.429
 4662SOL    HW215761   0.309   6.194  11.415
 4663SOL     OW15762   8.936   4.949   2.722
 4663SOL    HW115763   8.992   4.974   2.649
 4663SOL    HW215764   8.954   4.856   2.736
 4664SOL     OW15765   5.697   4.775  11.481
 4664SOL    HW115766   5.781   4.729  11.489
 4664SOL    HW215767   5.645   4.740  11.554
 4665SOL     OW15768   2.326   6.182   1.758
 4665SOL    HW115769   2.331   6.148   1.847
 4665SOL    HW215770   2.235   6.169   1.731
 4666SOL     OW15771   8.502  11.458   7.137
 4666SOL    HW115772   8.470  11.511   7.063
 4666SOL    HW215773   8.475  11.507   7.215
 4667SOL     OW15774  10.000   7.094   4.592
 4667SOL    HW115775   9.942   7.053   4.528
 4667SOL    HW215776  10.004   7.032   4.665
 4668SOL     OW15777   3.971  11.791   1.594
 4668SOL    HW115778   4.065  11.777   1.581
 4668SOL    HW215779   3.946  11.855   1.527
 4669SOL     OW15780   2.052   6.853   5.470
 4669SOL    HW115781   2.139   6.892   5.478
 4669SOL    HW215782   2.007   6.908   5.406
 4670SOL     OW15783  12.137   3.778   2.677
 4670SOL    HW115784  12.206   3.799   2.615
 4670SOL    HW215785  12.061   3.755   2.622
 4671SOL     OW15786  14.108  10.649   1.624
 4671SOL    HW115787  14.096  10.572   1.568
 4671SOL    HW215788  14.078  10.620   1.710
 4672SOL     OW15789  12.244  14.108  13.256
 4672SOL    HW115790  12.203  14.027  13.288
 4672SOL    HW215791  12.263  14.090  13.164
 4673SOL     OW15792  12.209   9.856   7.432
 4673SOL    HW115793  12.296   9.818   7.443
 4673SOL    HW215794  12.207   9.931   7.491
 4674SOL     OW15795  13.078   7.070  13.737
 4674SOL    HW115796  13.070   7.034  13.825
 4674SOL    HW215797  13.028   7.010  13.681
 4675SOL     OW15798   4.986  12.728   0.190
 4675SOL    HW115799   5.003  12.635   0.174
 4675SOL    HW215800   5.074  12.767   0.194
 4676SOL     OW15801   0.336   1.252  10.800
 4676SOL    HW115802   0.251   1.219  10.828
 4676SOL    HW215803   0.374   1.181  10.748
 4677SOL     OW15804  14.344   4.608  11.517
 4677SOL    HW115805  14.259   4.626  11.558
 4677SOL    HW215806  14.326   4.537  11.456
 4678SOL     OW15807   2.939   3.171   3.749
 4678SOL    HW115808   2.901   3.109   3.687
 4678SOL    HW215809   2.928   3.130   3.834
 4679SOL     OW15810  11.301   6.830   6.610
 4679SOL    HW115811  11.215   6.789   6.598
 4679SOL    HW215812  11.295   6.913   6.563
 4680SOL     OW15813   1.057   6.618   9.439
 4680SOL    HW115814   1.077   6.648   9.350
 4680SOL    HW215815   1.059   6.697   9.492
 4681SOL     OW15816   3.352  10.894   5.245
 4681SOL    HW115817   3.299  10.964   5.282
 4681SOL    HW215818   3.290  10.825   5.223
 4682SOL     OW15819   1.106  14.034   6.197
 4682SOL    HW115820   1.178  14.078   6.152
 4682SOL    HW215821   1.077  14.097   6.264
 4683SOL     OW15822  12.723  13.976   1.468
 4683SOL    HW115823  12.683  13.916   1.530
 4683SOL    HW215824  12.787  14.025   1.520
 4684SOL     OW15825   7.832   8.920   3.651
 4684SOL    HW115826   7.910   8.896   3.701
 4684SOL    HW215827   7.851   9.008   3.618
 4685SOL     OW15828  12.981   7.209  14.409
 4685SOL    HW115829  12.998   7.256  14.327
 4685SOL    HW215830  12.923   7.266  14.458
 4686SOL     OW15831   2.540   6.235   9.300
 4686SOL    HW115832   2.542   6.294   9.375
 4686SOL    HW215833   2.573   6.288   9.228
 4687SOL     OW15834   2.502  11.037  13.529
 4687SOL    HW115835   2.558  11.027  13.453
 4687SOL    HW215836   2.560  11.070  13.598
 4688SOL     OW15837   4.435   0.519   9.129
 4688SOL    HW115838   4.387   0.458   9.184
 4688SOL    HW215839   4.521   0.478   9.117
 4689SOL     OW15840   3.374   3.129  13.616
 4689SOL    HW115841   3.315   3.062  13.582
 4689SOL    HW215842   3.412   3.090  13.695
 4690SOL     OW15843   3.429   1.162   6.595
 4690SOL    HW115844   3.488   1.185   6.667
 4690SOL    HW215845   3.347   1.208   6.615
 4691SOL     OW15846  14.175  13.947  14.339
 4691SOL    HW115847  14.169  13.851  14.341
 4691SOL    HW215848  14.249  13.967  14.396
 4692SOL     OW15849   9.384   6.699  10.401
 4692SOL    HW115850   9.440   6.764  10.358
 4692SOL    HW215851   9.382   6.725  10.493
 4693SOL     OW15852   1.605   6.788  13.295
 4693SOL    HW115853   1.577   6.697  13.280
 4693SOL    HW215854   1.654   6.785  13.377
 4694SOL     OW15855  14.343  13.656   7.674
 4694SOL    HW115856  14.415  13.638   7.735
 4694SOL    HW215857  14.353  13.589   7.605
 4695SOL     OW15858   9.749  10.204  10.919
 4695SOL    HW115859   9.712  10.121  10.947
 4695SOL    HW215860   9.751  10.199  10.824
 4696SOL     OW15861   0.076   7.088   8.332
 4696SOL    HW115862   0.138   7.081   8.405
 4696SOL    HW215863   0.003   7.032   8.357
 4697SOL     OW15864  10.999   3.678  11.567
 4697SOL    HW115865  11.038   3.765  11.576
 4697SOL    HW215866  10.906   3.694  11.553
 4698SOL     OW15867   3.715   4.495  11.768
 4698SOL    HW115868   3.691   4.408  11.802
 4698SOL    HW215869   3.721   4.483  11.673
 4699SOL     OW15870   1.185   3.259  13.941
 4699SOL    HW115871   1.120   3.204  13.897
 4699SOL    HW215872   1.267   3.241  13.894
 4700SOL     OW15873   9.281  10.197  12.696
 4700SOL    HW115874   9.285  10.149  12.613
 4700SOL    HW215875   9.328  10.141  12.758
 4701SOL     OW15876  13.845   8.684   7.764
 4701SOL    HW115877  13.822   8.605   7.813
 4701SOL    HW215878  13.860   8.750   7.832
 4702SOL     OW15879  11.967   2.891   7.213
 4702SOL    HW115880  11.974   2.890   7.308
 4702SOL    HW215881  11.972   2.799   7.187
 4703SOL     OW15882   3.479   5.250  10.562
 4703SOL    HW115883   3.415   5.314  10.531
 4703SOL    HW215884   3.443   5.218  10.645
 4704SOL     OW15885   8.014   6.549   7.502
 4704SOL    HW115886   8.103   6.543   7.534
 4704SOL    HW215887   8.015   6.501   7.419
 4705SOL     OW15888   1.313  11.834   2.187
 4705SOL    HW115889   1.341  11.839   2.096
 4705SOL    HW215890   1.237  11.776   2.186
 4706SOL     OW15891   0.039   3.045   9.458
 4706SOL    HW115892  14.856   3.116   9.478
 4706SOL    HW215893   0.122   3.090   9.438
 4707SOL     OW15894   0.969  10.528   6.938
 4707SOL    HW115895   1.026  10.517   6.862
 4707SOL    HW215896   0.930  10.615   6.926
 4708SOL     OW15897  13.132   4.701   9.125
 4708SOL    HW115898  13.128   4.638   9.197
 4708SOL    HW215899  13.077   4.774   9.153
 4709SOL     OW15900   6.972  12.682   8.003
 4709SOL    HW115901   6.889  12.662   8.047
 4709SOL    HW215902   6.949  12.747   7.936
 4710SOL     OW15903   1.514  10.474   5.694
 4710SOL    HW115904   1.601  10.515   5.695
 4710SOL    HW215905   1.476  10.498   5.778
 4711SOL     OW15906   8.854  11.205   6.957
 4711SOL    HW115907   8.773  11.209   6.906
 4711SOL    HW215908   8.911  11.269   6.915
 4712SOL     OW15909   9.464  10.213   1.723
 4712SOL    HW115910   9.373  10.241   1.731
 4712SOL    HW215911   9.515  10.291   1.743
 4713SOL     OW15912   9.451  12.723  11.282
 4713SOL    HW115913   9.502  12.779  11.340
 4713SOL    HW215914   9.482  12.634  11.300
 4714SOL     OW15915   2.691   8.964   5.984
 4714SOL    HW115916   2.712   8.875   5.955
 4714SOL    HW215917   2.676   9.013   5.902
 4715SOL     OW15918   7.700   5.362  12.437
 4715SOL    HW115919   7.791   5.333  12.436
 4715SOL    HW215920   7.706   5.458  12.433
 4716SOL     OW15921   6.445   0.745   7.452
 4716SOL    HW115922   6.360   0.789   7.451
 4716SOL    HW215923   6.441   0.687   7.528
 4717SOL     OW15924  13.480  13.112  10.054
 4717SOL    HW115925  13.503  13.195  10.012
 4717SOL    HW215926  13.405  13.081  10.005
 4718SOL     OW15927  13.389  11.208   7.238
 4718SOL    HW115928  13.436  11.124   7.229
 4718SOL    HW215929  13.312  11.198   7.183
 4719SOL     OW15930   6.444   0.268   2.564
 4719SOL    HW115931   6.400   0.348   2.590
 4719SOL    HW215932   6.440   0.268   2.468
 4720SOL     OW15933   9.758   4.056   2.668
 4720SOL    HW115934   9.759   4.090   2.757
 4720SOL    HW215935   9.681   3.999   2.665
 4721SOL     OW15936   8.273   5.785  13.402
 4721SOL    HW115937   8.238   5.702  13.370
 4721SOL    HW215938   8.203   5.849  13.384
 4722SOL     OW15939   6.963   2.684  13.189
 4722SOL    HW115940   7.014   2.652  13.114
 4722SOL    HW215941   7.019   2.751  13.228
 4723SOL     OW15942   7.430   9.634   2.956
 4723SOL    HW115943   7.374   9.560   2.933
 4723SOL    HW215944   7.493   9.598   3.019
 4724SOL     OW15945  12.306   0.134   0.655
 4724SOL    HW115946  12.386   0.152   0.607
 4724SOL    HW215947  12.330   0.064   0.716
 4725SOL     OW15948   3.015   1.150   8.413
 4725SOL    HW115949   3.066   1.096   8.474
 4725SOL    HW215950   2.939   1.095   8.392
 4726SOL     OW15951  13.663   2.426   7.776
 4726SOL    HW115952  13.587   2.446   7.721
 4726SOL    HW215953  13.626   2.407   7.862
 4727SOL     OW15954   6.137  13.830   0.881
 4727SOL    HW115955   6.122  13.767   0.810
 4727SOL    HW215956   6.079  13.904   0.860
 4728SOL     OW15957  13.382   4.305  14.248
 4728SOL    HW115958  13.426   4.285  14.166
 4728SOL    HW215959  13.453   4.318  14.311
 4729SOL     OW15960   5.069   6.731   4.976
 4729SOL    HW115961   5.091   6.649   5.020
 4729SOL    HW215962   5.082   6.798   5.044
 4730SOL     OW15963   7.997   4.759   8.914
 4730SOL    HW115964   8.059   4.729   8.847
 4730SOL    HW215965   7.990   4.853   8.900
 4731SOL     OW15966   6.844   0.867  11.444
 4731SOL    HW115967   6.755   0.836  11.460
 4731SOL    HW215968   6.874   0.814  11.370
 4732SOL     OW15969   3.263   0.313  11.450
 4732SOL    HW115970   3.240   0.402  11.423
 4732SOL    HW215971   3.322   0.326  11.524
 4733SOL     OW15972   8.779   1.895   6.152
 4733SOL    HW115973   8.871   1.888   6.127
 4733SOL    HW215974   8.743   1.965   6.096
 4734SOL     OW15975   1.166   9.270   3.119
 4734SOL    HW115976   1.261   9.283   3.117
 4734SOL    HW215977   1.134   9.315   3.041
 4735SOL     OW15978  11.251  11.025   6.817
 4735SOL    HW115979  11.297  11.108   6.826
 4735SOL    HW215980  11.312  10.959   6.849
 4736SOL     OW15981  10.067   5.706   3.815
 4736SOL    HW115982  10.120   5.637   3.855
 4736SOL    HW215983  10.122   5.784   3.820
 4737SOL     OW15984   8.854   1.502   3.248
 4737SOL    HW115985   8.779   1.557   3.271
 4737SOL    HW215986   8.883   1.536   3.163
 4738SOL     OW15987   5.215  14.535   9.276
 4738SOL    HW115988   5.290  14.476   9.281
 4738SOL    HW215989   5.194  14.540   9.183
 4739SOL     OW15990  12.941   2.375   6.622
 4739SOL    HW115991  13.023   2.425   6.619
 4739SOL    HW215992  12.891   2.414   6.692
 4740SOL     OW15993  13.711  13.856   4.733
 4740SOL    HW115994  13.653  13.824   4.664
 4740SOL    HW215995  13.743  13.777   4.776
 4741SOL     OW15996   1.414   8.972   4.350
 4741SOL    HW115997   1.462   8.938   4.425
 4741SOL    HW215998   1.337   9.015   4.388
 4742SOL     OW15999   3.299   4.378   5.067
 4742SOL    HW116000   3.377   4.400   5.015
 4742SOL    HW216001   3.226   4.396   5.008
 4743SOL     OW16002   4.535   5.429  13.690
 4743SOL    HW116003   4.538   5.459  13.781
 4743SOL    HW216004   4.550   5.509  13.639
 4744SOL     OW16005   8.516   6.159   0.496
 4744SOL    HW116006   8.482   6.123   0.414
 4744SOL    HW216007   8.606   6.185   0.475
 4745SOL     OW16008   9.496   1.267  13.677
 4745SOL    HW116009   9.506   1.257  13.583
 4745SOL    HW216010   9.478   1.360  13.690
 4746SOL     OW16011  14.525  12.115   1.111
 4746SOL    HW116012  14.454  12.063   1.074
 4746SOL    HW216013  14.539  12.080   1.199
 4747SOL     OW16014  14.006  10.854  13.208
 4747SOL    HW116015  14.082  10.847  13.266
 4747SOL    HW216016  13.954  10.926  13.245
 4748SOL     OW16017   8.778  12.893   4.921
 4748SOL    HW116018   8.742  12.807   4.940
 4748SOL    HW216019   8.813  12.924   5.005
 4749SOL     OW16020   5.171   5.836  12.945
 4749SOL    HW116021   5.078   5.836  12.969
 4749SOL    HW216022   5.204   5.752  12.976
 4750SOL     OW16023   9.041  10.059   1.638
 4750SOL    HW116024   9.102  10.078   1.568
 4750SOL    HW216025   9.068  10.117   1.710
 4751SOL     OW16026   9.568   0.124  10.532
 4751SOL    HW116027   9.475   0.142  10.521
 4751SOL    HW216028   9.608   0.210  10.545
 4752SOL     OW16029   6.465   7.691  10.965
 4752SOL    HW116030   6.439   7.621  11.026
 4752SOL    HW216031   6.443   7.657  10.878
 4753SOL     OW16032   3.135   0.385  13.924
 4753SOL    HW116033   3.071   0.440  13.970
 4753SOL    HW216034   3.103   0.296  13.936
 4754SOL     OW16035  12.165   4.946   6.253
 4754SOL    HW116036  12.166   4.874   6.190
 4754SOL    HW216037  12.241   4.930   6.309
 4755SOL     OW16038  11.100   4.771   6.265
 4755SOL    HW116039  11.055   4.756   6.348
 4755SOL    HW216040  11.171   4.832   6.287
 4756SOL     OW16041   1.644  10.065   2.958
 4756SOL    HW116042   1.734  10.070   2.926
 4756SOL    HW216043   1.646  10.107   3.044
 4757SOL     OW16044  11.283  14.677  10.236
 4757SOL    HW116045  11.362  14.634  10.206
 4757SOL    HW216046  11.257  14.628  10.314
 4758SOL     OW16047  14.543  11.999   5.895
 4758SOL    HW116048  14.584  11.930   5.948
 4758SOL    HW216049  14.453  11.969   5.883
 4759SOL     OW16050   2.769   1.253  14.757
 4759SOL    HW116051   2.808   1.337  14.734
 4759SOL    HW216052   2.843   1.199  14.784
 4760SOL     OW16053   2.082   3.385   2.258
 4760SOL    HW116054   2.067   3.296   2.227
 4760SOL    HW216055   2.028   3.439   2.199
 4761SOL     OW16056   6.546   4.071   3.492
 4761SOL    HW116057   6.530   3.978   3.483
 4761SOL    HW216058   6.460   4.112   3.480
 4762SOL     OW16059  12.166   1.591   2.709
 4762SOL    HW116060  12.158   1.568   2.616
 4762SOL    HW216061  12.226   1.665   2.710
 4763SOL     OW16062  14.422   5.409  13.608
 4763SOL    HW116063  14.460   5.411  13.696
 4763SOL    HW216064  14.346   5.351  13.616
 4764SOL     OW16065   1.466   7.263   1.135
 4764SOL    HW116066   1.555   7.293   1.155
 4764SOL    HW216067   1.410   7.334   1.164
 4765SOL     OW16068  10.976   3.839   6.221
 4765SOL    HW116069  10.921   3.850   6.298
 4765SOL    HW216070  10.923   3.871   6.148
 4766SOL     OW16071   3.869   1.762   6.309
 4766SOL    HW116072   3.917   1.754   6.227
 4766SOL    HW216073   3.785   1.718   6.292
 4767SOL     OW16074   6.480   1.520  14.343
 4767SOL    HW116075   6.489   1.606  14.302
 4767SOL    HW216076   6.413   1.532  14.410
 4768SOL     OW16077   9.079   0.605   9.609
 4768SOL    HW116078   9.025   0.681   9.588
 4768SOL    HW216079   9.153   0.611   9.548
 4769SOL     OW16080   9.246  12.986  10.039
 4769SOL    HW116081   9.215  12.921  10.102
 4769SOL    HW216082   9.332  12.955  10.012
 4770SOL     OW16083  14.381  11.262   2.452
 4770SOL    HW116084  14.292  11.277   2.485
 4770SOL    HW216085  14.429  11.341   2.477
 4771SOL     OW16086   9.896   4.071  12.590
 4771SOL    HW116087   9.846   4.010  12.644
 4771SOL    HW216088   9.885   4.156  12.632
 4772SOL     OW16089   6.384   9.205  13.212
 4772SOL    HW116090   6.320   9.134  13.222
 4772SOL    HW216091   6.456   9.165  13.163
 4773SOL     OW16092   7.820   8.734  10.011
 4773SOL    HW116093   7.791   8.654  10.055
 4773SOL    HW216094   7.846   8.792  10.082
 4774SOL     OW16095  10.997   3.215   1.847
 4774SOL    HW116096  10.915   3.166   1.851
 4774SOL    HW216097  11.018   3.235   1.938
 4775SOL     OW16098   4.868  11.937   6.976
 4775SOL    HW116099   4.882  11.844   6.996
 4775SOL    HW216100   4.909  11.983   7.049
 4776SOL     OW16101   9.708   8.763  10.137
 4776SOL    HW116102   9.667   8.712  10.207
 4776SOL    HW216103   9.754   8.833  10.182
 4777SOL     OW16104  10.054   9.668  14.659
 4777SOL    HW116105  10.139   9.698  14.691
 4777SOL    HW216106  10.054   9.574  14.678
 4778SOL     OW16107   8.566  10.914   1.948
 4778SOL    HW116108   8.514  10.886   2.023
 4778SOL    HW216109   8.630  10.843   1.936
 4779SOL     OW16110   8.796   5.627   9.496
 4779SOL    HW116111   8.776   5.612   9.404
 4779SOL    HW216112   8.876   5.679   9.495
 4780SOL     OW16113  11.293  11.102  10.551
 4780SOL    HW116114  11.214  11.086  10.603
 4780SOL    HW216115  11.301  11.025  10.495
 4781SOL     OW16116  11.151   0.548   0.157
 4781SOL    HW116117  11.133   0.454   0.161
 4781SOL    HW216118  11.238   0.557   0.197
 4782SOL     OW16119   6.449   3.727  12.159
 4782SOL    HW116120   6.447   3.764  12.247
 4782SOL    HW216121   6.359   3.739  12.126
 4783SOL     OW16122   0.918  12.733   3.136
 4783SOL    HW116123   0.865  12.719   3.057
 4783SOL    HW216124   0.991  12.672   3.126
 4784SOL     OW16125   2.408   3.972  11.812
 4784SOL    HW116126   2.324   3.997  11.773
 4784SOL    HW216127   2.389   3.965  11.906
 4785SOL     OW16128   0.291   9.436   5.208
 4785SOL    HW116129   0.309   9.450   5.301
 4785SOL    HW216130   0.196   9.433   5.202
 4786SOL     OW16131   1.231  11.622  14.143
 4786SOL    HW116132   1.160  11.597  14.203
 4786SOL    HW216133   1.288  11.545  14.140
 4787SOL     OW16134   0.597  10.035  11.393
 4787SOL    HW116135   0.610   9.940  11.390
 4787SOL    HW216136   0.520  10.047  11.449
 4788SOL     OW16137  11.237  13.199   1.222
 4788SOL    HW116138  11.218  13.250   1.143
 4788SOL    HW216139  11.253  13.110   1.190
 4789SOL     OW16140   5.426   6.439   7.331
 4789SOL    HW116141   5.428   6.357   7.380
 4789SOL    HW216142   5.363   6.494   7.379
 4790SOL     OW16143  11.731   5.224  12.397
 4790SOL    HW116144  11.654   5.224  12.454
 4790SOL    HW216145  11.805   5.228  12.457
 4791SOL     OW16146   0.417   7.204   2.273
 4791SOL    HW116147   0.495   7.155   2.247
 4791SOL    HW216148   0.448   7.293   2.287
 4792SOL     OW16149   0.452  10.651   4.624
 4792SOL    HW116150   0.480  10.573   4.672
 4792SOL    HW216151   0.484  10.724   4.677
 4793SOL     OW16152  10.483   5.074  12.151
 4793SOL    HW116153  10.414   5.077  12.217
 4793SOL    HW216154  10.564   5.060  12.201
 4794SOL     OW16155   7.198   8.149  10.085
 4794SOL    HW116156   7.187   8.076  10.146
 4794SOL    HW216157   7.240   8.217  10.137
 4795SOL     OW16158   6.689  12.758   9.542
 4795SOL    HW116159   6.657  12.833   9.592
 4795SOL    HW216160   6.768  12.730   9.588
 4796SOL     OW16161  13.567  14.814   3.724
 4796SOL    HW116162  13.621   0.015   3.721
 4796SOL    HW216163  13.587  14.767   3.643
 4797SOL     OW16164   7.030   1.857   8.180
 4797SOL    HW116165   6.988   1.773   8.159
 4797SOL    HW216166   7.084   1.877   8.103
 4798SOL     OW16167  13.860   3.151   7.430
 4798SOL    HW116168  13.875   3.168   7.337
 4798SOL    HW216169  13.871   3.236   7.472
 4799SOL     OW16170   2.048  11.608   7.786
 4799SOL    HW116171   1.990  11.535   7.767
 4799SOL    HW216172   2.104  11.615   7.708
 4800SOL     OW16173   9.688   0.754  11.594
 4800SOL    HW116174   9.776   0.717  11.598
 4800SOL    HW216175   9.677   0.781  11.502
 4801SOL     OW16176  10.604  10.397   8.995
 4801SOL    HW116177  10.618  10.489   8.973
 4801SOL    HW216178  10.657  10.382   9.073
 4802SOL     OW16179   6.656   3.549  14.731
 4802SOL    HW116180   6.686   3.595  14.809
 4802SOL    HW216181   6.565   3.527  14.750
 4803SOL     OW16182   2.688   5.369   0.911
 4803SOL    HW116183   2.666   5.377   1.004
 4803SOL    HW216184   2.770   5.320   0.910
 4804SOL     OW16185   7.779   7.289   3.215
 4804SOL    HW116186   7.718   7.227   3.254
 4804SOL    HW216187   7.724   7.352   3.169
 4805SOL     OW16188   8.582  13.032  11.924
 4805SOL    HW116189   8.659  13.021  11.980
 4805SOL    HW216190   8.617  13.059  11.839
 4806SOL     OW16191   5.630  10.892   8.140
 4806SOL    HW116192   5.592  10.856   8.060
 4806SOL    HW216193   5.586  10.976   8.153
 4807SOL     OW16194   2.287   0.357  13.252
 4807SOL    HW116195   2.378   0.363  13.279
 4807SOL    HW216196   2.277   0.268  13.220
 4808SOL     OW16197   5.934  10.115   4.837
 4808SOL    HW116198   6.015  10.073   4.809
 4808SOL    HW216199   5.866  10.076   4.783
 4809SOL     OW16200  12.549   8.484  12.894
 4809SOL    HW116201  12.576   8.492  12.802
 4809SOL    HW216202  12.617   8.432  12.934
 4810SOL     OW16203  13.551  14.564  10.620
 4810SOL    HW116204  13.620  14.498  10.607
 4810SOL    HW216205  13.593  14.633  10.671
 4811SOL     OW16206   0.422  14.819   7.013
 4811SOL    HW116207   0.512  14.808   6.984
 4811SOL    HW216208   0.382  14.875   6.946
 4812SOL     OW16209  12.059   5.811  14.113
 4812SOL    HW116210  12.010   5.795  14.032
 4812SOL    HW216211  12.127   5.873  14.088
 4813SOL     OW16212   3.752   7.700   4.716
 4813SOL    HW116213   3.811   7.640   4.761
 4813SOL    HW216214   3.799   7.784   4.714
 4814SOL     OW16215   3.769   9.281   9.389
 4814SOL    HW116216   3.838   9.314   9.446
 4814SOL    HW216217   3.769   9.341   9.314
 4815SOL     OW16218   9.268   3.798  11.555
 4815SOL    HW116219   9.269   3.803  11.459
 4815SOL    HW216220   9.190   3.747  11.576
 4816SOL     OW16221  12.207  12.742   8.995
 4816SOL    HW116222  12.289  12.693   8.988
 4816SOL    HW216223  12.160  12.700   9.068
 4817SOL     OW16224   7.797   0.807   9.491
 4817SOL    HW116225   7.852   0.749   9.544
 4817SOL    HW216226   7.851   0.886   9.479
 4818SOL     OW16227   8.837   3.814  12.463
 4818SOL    HW116228   8.817   3.743  12.523
 4818SOL    HW216229   8.921   3.848  12.492
 4819SOL     OW16230   5.033  12.902   8.001
 4819SOL    HW116231   4.960  12.909   7.939
 4819SOL    HW216232   5.101  12.958   7.965
 4820SOL     OW16233  12.586  10.738  10.426
 4820SOL    HW116234  12.493  10.741  10.450
 4820SOL    HW216235  12.626  10.680  10.491
 4821SOL     OW16236  13.871  13.381   0.301
 4821SOL    HW116237  13.790  13.382   0.351
 4821SOL    HW216238  13.916  13.462   0.327
 4822SOL     OW16239   7.984   9.557   1.987
 4822SOL    HW116240   8.006   9.618   2.057
 4822SOL    HW216241   8.068   9.540   1.943
 4823SOL     OW16242  14.054  14.315   4.927
 4823SOL    HW116243  14.072  14.231   4.886
 4823SOL    HW216244  13.969  14.304   4.968
 4824SOL     OW16245   6.824   1.504  10.190
 4824SOL    HW116246   6.761   1.479  10.122
 4824SOL    HW216247   6.885   1.430  10.194
 4825SOL     OW16248   1.799  10.770  11.726
 4825SOL    HW116249   1.770  10.852  11.684
 4825SOL    HW216250   1.719  10.730  11.758
 4826SOL     OW16251   2.731  10.735   8.968
 4826SOL    HW116252   2.802  10.672   8.964
 4826SOL    HW216253   2.689  10.719   9.052
 4827SOL     OW16254   7.550   2.140   2.571
 4827SOL    HW116255   7.563   2.048   2.594
 4827SOL    HW216256   7.624   2.162   2.515
 4828SOL     OW16257   2.033  14.688  13.539
 4828SOL    HW116258   2.111  14.638  13.515
 4828SOL    HW216259   1.971  14.622  13.573
 4829SOL     OW16260   7.175   5.455   1.285
 4829SOL    HW116261   7.112   5.519   1.319
 4829SOL    HW216262   7.176   5.385   1.351
 4830SOL     OW16263  13.801   8.652  10.527
 4830SOL    HW116264  13.847   8.570  10.542
 4830SOL    HW216265  13.816   8.703  10.607
 4831SOL     OW16266   1.043  13.487  10.684
 4831SOL    HW116267   1.067  13.568  10.728
 4831SOL    HW216268   1.126  13.455  10.647
 4832SOL     OW16269  14.094   9.583   1.906
 4832SOL    HW116270  14.012   9.538   1.926
 4832SOL    HW216271  14.094   9.660   1.962
 4833SOL     OW16272   0.450  10.628  10.429
 4833SOL    HW116273   0.503  10.598  10.502
 4833SOL    HW216274   0.485  10.581  10.353
 4834SOL     OW16275   0.043   2.108   4.699
 4834SOL    HW116276   0.100   2.076   4.629
 4834SOL    HW216277   0.076   2.196   4.718
 4835SOL     OW16278   7.952   4.304  10.516
 4835SOL    HW116279   7.947   4.254  10.434
 4835SOL    HW216280   8.026   4.363  10.503
 4836SOL     OW16281   4.302  14.778   1.149
 4836SOL    HW116282   4.272  14.727   1.224
 4836SOL    HW216283   4.226  14.831   1.124
 4837SOL     OW16284   9.764   2.138   6.905
 4837SOL    HW116285   9.791   2.083   6.978
 4837SOL    HW216286   9.816   2.218   6.916
 4838SOL     OW16287   1.151   1.001   5.135
 4838SOL    HW116288   1.097   1.079   5.122
 4838SOL    HW216289   1.186   0.981   5.048
 4839SOL     OW16290  11.007   3.700   5.912
 4839SOL    HW116291  10.998   3.605   5.924
 4839SOL    HW216292  10.940   3.738   5.969
 4840SOL     OW16293  13.521   8.681   3.843
 4840SOL    HW116294  13.612   8.692   3.869
 4840SOL    HW216295  13.481   8.768   3.854
 4841SOL     OW16296   7.769  11.299   8.673
 4841SOL    HW116297   7.810  11.379   8.641
 4841SOL    HW216298   7.675  11.317   8.669
 4842SOL     OW16299   9.433  10.400   2.332
 4842SOL    HW116300   9.508  10.414   2.275
 4842SOL    HW216301   9.357  10.424   2.279
 4843SOL     OW16302   9.023  11.002  13.787
 4843SOL    HW116303   9.087  10.966  13.849
 4843SOL    HW216304   8.975  10.926  13.756
 4844SOL     OW16305  11.699   1.098   6.992
 4844SOL    HW116306  11.776   1.059   7.033
 4844SOL    HW216307  11.625   1.056   7.034
 4845SOL     OW16308   9.818   1.147  11.072
 4845SOL    HW116309   9.862   1.062  11.064
 4845SOL    HW216310   9.824   1.168  11.166
 4846SOL     OW16311  10.484   7.087   0.605
 4846SOL    HW116312  10.483   7.021   0.536
 4846SOL    HW216313  10.546   7.053   0.670
 4847SOL     OW16314   4.745   3.041   1.527
 4847SOL    HW116315   4.836   3.015   1.545
 4847SOL    HW216316   4.752   3.132   1.498
 4848SOL     OW16317   6.646   5.825   5.599
 4848SOL    HW116318   6.674   5.751   5.545
 4848SOL    HW216319   6.551   5.817   5.602
 4849SOL     OW16320  13.659  14.459   4.304
 4849SOL    HW116321  13.727  14.522   4.328
 4849SOL    HW216322  13.664  14.392   4.372
 4850SOL     OW16323  10.152   9.449   7.268
 4850SOL    HW116324  10.223   9.451   7.332
 4850SOL    HW216325  10.189   9.404   7.193
 4851SOL     OW16326   8.478  11.988   8.103
 4851SOL    HW116327   8.516  12.075   8.109
 4851SOL    HW216328   8.428  11.989   8.021
 4852SOL     OW16329   8.636   6.143   7.730
 4852SOL    HW116330   8.691   6.147   7.652
 4852SOL    HW216331   8.668   6.214   7.786
 4853SOL     OW16332  13.151   8.589   1.719
 4853SOL    HW116333  13.100   8.508   1.718
 4853SOL    HW216334  13.127   8.634   1.638
 4854SOL     OW16335  12.846   4.646  13.600
 4854SOL    HW116336  12.895   4.623  13.521
 4854SOL    HW216337  12.758   4.667  13.570
 4855SOL     OW16338   5.190  14.570   2.181
 4855SOL    HW116339   5.207  14.544   2.091
 4855SOL    HW216340   5.106  14.615   2.179
 4856SOL     OW16341   7.160   8.170  10.419
 4856SOL    HW116342   7.253   8.186  10.409
 4856SOL    HW216343   7.128   8.247  10.468
 4857SOL     OW16344  10.309   0.040   4.153
 4857SOL    HW116345  10.301   0.134   4.170
 4857SOL    HW216346  10.344   0.036   4.064
 4858SOL     OW16347   5.579   2.125   3.265
 4858SOL    HW116348   5.583   2.047   3.321
 4858SOL    HW216349   5.486   2.141   3.252
 4859SOL     OW16350   2.463  11.691   6.923
 4859SOL    HW116351   2.371  11.717   6.925
 4859SOL    HW216352   2.463  11.609   6.874
 4860SOL     OW16353  13.697   9.899   6.874
 4860SOL    HW116354  13.637   9.893   6.949
 4860SOL    HW216355  13.648   9.861   6.801
 4861SOL     OW16356   6.067  10.843  14.450
 4861SOL    HW116357   6.058  10.801  14.364
 4861SOL    HW216358   5.983  10.885  14.465
 4862SOL     OW16359   7.359  12.488   1.546
 4862SOL    HW116360   7.422  12.559   1.531
 4862SOL    HW216361   7.413  12.409   1.552
 4863SOL     OW16362  12.273   8.857   6.227
 4863SOL    HW116363  12.215   8.932   6.221
 4863SOL    HW216364  12.349   8.888   6.276
 4864SOL     OW16365   5.571   1.939   3.450
 4864SOL    HW116366   5.540   1.881   3.519
 4864SOL    HW216367   5.665   1.923   3.446
 4865SOL     OW16368   2.197   8.919   2.633
 4865SOL    HW116369   2.144   8.848   2.670
 4865SOL    HW216370   2.286   8.886   2.637
 4866SOL     OW16371   2.452   6.066  12.198
 4866SOL    HW116372   2.407   6.107  12.124
 4866SOL    HW216373   2.382   6.032  12.253
 4867SOL     OW16374   0.012  14.671   7.182
 4867SOL    HW116375   0.057  14.600   7.228
 4867SOL    HW216376   0.062  14.684   7.102
 4868SOL     OW16377  10.344   6.350   5.363
 4868SOL    HW116378  10.418   6.402   5.332
 4868SOL    HW216379  10.384   6.282   5.418
 4869SOL     OW16380  14.647  14.876   6.311
 4869SOL    HW116381  14.740   0.006   6.335
 4869SOL    HW216382  14.631  14.782   6.309
 4870SOL     OW16383  10.563   7.868   4.817
 4870SOL    HW116384  10.522   7.805   4.877
 4870SOL    HW216385  10.652   7.835   4.805
 4871SOL     OW16386   0.636  11.340  14.487
 4871SOL    HW116387   0.663  11.248  14.488
 4871SOL    HW216388   0.566  11.345  14.552
 4872SOL     OW16389   0.791   6.585   2.637
 4872SOL    HW116390   0.874   6.600   2.591
 4872SOL    HW216391   0.763   6.498   2.608
 4873SOL     OW16392   4.708   5.251  10.545
 4873SOL    HW116393   4.614   5.238  10.533
 4873SOL    HW216394   4.715   5.320  10.611
 4874SOL     OW16395  10.103   7.357   3.991
 4874SOL    HW116396  10.015   7.377   4.024
 4874SOL    HW216397  10.102   7.263   3.975
 4875SOL     OW16398   8.496  12.156  11.398
 4875SOL    HW116399   8.509  12.128  11.307
 4875SOL    HW216400   8.582  12.145  11.439
 4876SOL     OW16401   7.531   8.257   4.864
 4876SOL    HW116402   7.563   8.289   4.948
 4876SOL    HW216403   7.603   8.275   4.803
 4877SOL     OW16404  13.377   7.179   6.835
 4877SOL    HW116405  13.452   7.217   6.790
 4877SOL    HW216406  13.412   7.151   6.920
 4878SOL     OW16407   0.632  12.556   3.551
 4878SOL    HW116408   0.676  12.580   3.470
 4878SOL    HW216409   0.693  12.582   3.620
 4879SOL     OW16410  14.203   4.219  11.602
 4879SOL    HW116411  14.144   4.178  11.664
 4879SOL    HW216412  14.152   4.290  11.563
 4880SOL     OW16413   2.630  10.110   1.700
 4880SOL    HW116414   2.668  10.184   1.653
 4880SOL    HW216415   2.702  10.078   1.755
 4881SOL     OW16416   3.284  14.164   2.552
 4881SOL    HW116417   3.343  14.220   2.503
 4881SOL    HW216418   3.338  14.128   2.623
 4882SOL     OW16419   3.175   7.190  12.912
 4882SOL    HW116420   3.193   7.234  12.830
 4882SOL    HW216421   3.223   7.239  12.978
 4883SOL     OW16422   2.450   8.686  14.546
 4883SOL    HW116423   2.387   8.656  14.481
 4883SOL    HW216424   2.535   8.660  14.511
 4884SOL     OW16425   1.605   9.958   8.111
 4884SOL    HW116426   1.672   9.962   8.179
 4884SOL    HW216427   1.526   9.930   8.157
 4885SOL     OW16428  12.098  13.992   1.709
 4885SOL    HW116429  12.026  14.054   1.718
 4885SOL    HW216430  12.137  13.987   1.796
 4886SOL     OW16431   5.743   3.416   2.472
 4886SOL    HW116432   5.763   3.327   2.442
 4886SOL    HW216433   5.823   3.444   2.517
 4887SOL     OW16434  10.882   2.935   3.927
 4887SOL    HW116435  10.977   2.922   3.930
 4887SOL    HW216436  10.870   3.009   3.868
 4888SOL     OW16437   2.198   0.683   8.143
 4888SOL    HW116438   2.109   0.700   8.114
 4888SOL    HW216439   2.246   0.661   8.064
 4889SOL     OW16440   5.534   2.675   0.036
 4889SOL    HW116441   5.485   2.719   0.106
 4889SOL    HW216442   5.625   2.680   0.064
 4890SOL     OW16443  12.570   8.233   5.092
 4890SOL    HW116444  12.578   8.143   5.124
 4890SOL    HW216445  12.659   8.267   5.094
 4891SOL     OW16446   4.240   2.560   5.561
 4891SOL    HW116447   4.158   2.608   5.570
 4891SOL    HW216448   4.214   2.469   5.548
 4892SOL     OW16449  14.704   7.565   3.082
 4892SOL    HW116450  14.631   7.616   3.045
 4892SOL    HW216451  14.777   7.627   3.084
 4893SOL     OW16452   8.948   8.330   7.911
 4893SOL    HW116453   9.033   8.301   7.945
 4893SOL    HW216454   8.949   8.425   7.921
 4894SOL     OW16455   9.094   5.715   6.264
 4894SOL    HW116456   9.091   5.763   6.182
 4894SOL    HW216457   9.003   5.717   6.295
 4895SOL     OW16458   5.823   1.844   3.449
 4895SOL    HW116459   5.833   1.777   3.382
 4895SOL    HW216460   5.905   1.894   3.445
 4896SOL     OW16461  11.372  14.842   7.285
 4896SOL    HW116462  11.371  14.780   7.212
 4896SOL    HW216463  11.321   0.039   7.254
 4897SOL     OW16464   1.250  14.733  14.217
 4897SOL    HW116465   1.336  14.772  14.231
 4897SOL    HW216466   1.245  14.662  14.282
 4898SOL     OW16467   3.186  14.008   2.314
 4898SOL    HW116468   3.204  14.089   2.363
 4898SOL    HW216469   3.150  14.038   2.231
 4899SOL     OW16470   6.735  11.713   4.617
 4899SOL    HW116471   6.662  11.655   4.638
 4899SOL    HW216472   6.697  11.778   4.557
 4900SOL     OW16473   9.848   5.295   2.700
 4900SOL    HW116474   9.842   5.287   2.605
 4900SOL    HW216475   9.925   5.243   2.724
 4901SOL     OW16476   5.672   2.407   7.715
 4901SOL    HW116477   5.601   2.368   7.767
 4901SOL    HW216478   5.653   2.379   7.625
 4902SOL     OW16479  10.625   9.172   5.769
 4902SOL    HW116480  10.652   9.080   5.771
 4902SOL    HW216481  10.624   9.196   5.676
 4903SOL     OW16482   4.828  12.639  10.578
 4903SOL    HW116483   4.885  12.677  10.512
 4903SOL    HW216484   4.740  12.665  10.552
 4904SOL     OW16485   9.775   2.727   7.949
 4904SOL    HW116486   9.784   2.654   7.888
 4904SOL    HW216487   9.700   2.777   7.917
 4905SOL     OW16488  12.415   2.041  10.405
 4905SOL    HW116489  12.446   2.111  10.348
 4905SOL    HW216490  12.423   2.077  10.493
 4906SOL     OW16491  13.682  10.600   5.199
 4906SOL    HW116492  13.675  10.526   5.138
 4906SOL    HW216493  13.653  10.565   5.283
 4907SOL     OW16494  10.271  14.357   1.264
 4907SOL    HW116495  10.214  14.351   1.188
 4907SOL    HW216496  10.223  14.412   1.326
 4908SOL     OW16497   4.911   8.914   1.852
 4908SOL    HW116498   4.963   8.969   1.795
 4908SOL    HW216499   4.852   8.974   1.897
 4909SOL     OW16500  12.175   3.316   0.516
 4909SOL    HW116501  12.233   3.287   0.446
 4909SOL    HW216502  12.233   3.334   0.590
 4910SOL     OW16503   8.908   0.282   1.112
 4910SOL    HW116504   8.931   0.224   1.039
 4910SOL    HW216505   8.812   0.283   1.111
 4911SOL     OW16506  13.832  14.849   3.864
 4911SOL    HW116507  13.806   0.055   3.827
 4911SOL    HW216508  13.918  14.831   3.825
 4912SOL     OW16509   9.923   7.324   4.684
 4912SOL    HW116510   9.932   7.231   4.661
 4912SOL    HW216511   9.897   7.323   4.776
 4913SOL     OW16512   3.288   8.083   9.018
 4913SOL    HW116513   3.331   8.083   8.933
 4913SOL    HW216514   3.201   8.047   9.000
 4914SOL     OW16515  11.832  13.062   3.688
 4914SOL    HW116516  11.915  13.065   3.736
 4914SOL    HW216517  11.799  12.973   3.701
 4915SOL     OW16518  10.411  12.175  14.322
 4915SOL    HW116519  10.440  12.253  14.369
 4915SOL    HW216520  10.316  12.185  14.317
 4916SOL     OW16521   7.539  14.309   1.119
 4916SOL    HW116522   7.622  14.306   1.167
 4916SOL    HW216523   7.535  14.224   1.074
 4917SOL     OW16524  12.688  13.499  13.219
 4917SOL    HW116525  12.749  13.549  13.273
 4917SOL    HW216526  12.711  13.521  13.129
 4918SOL     OW16527   2.795   4.727   2.117
 4918SOL    HW116528   2.869   4.709   2.175
 4918SOL    HW216529   2.718   4.707   2.169
 4919SOL     OW16530   5.092   1.563   9.583
 4919SOL    HW116531   5.003   1.544   9.613
 4919SOL    HW216532   5.124   1.480   9.547
 4920SOL     OW16533  10.424   5.003  13.483
 4920SOL    HW116534  10.518   5.017  13.471
 4920SOL    HW216535  10.392   5.083  13.524
 4921SOL     OW16536   9.032   5.003   2.477
 4921SOL    HW116537   8.987   5.037   2.400
 4921SOL    HW216538   9.125   5.003   2.454
 4922SOL     OW16539   4.503   3.565  14.442
 4922SOL    HW116540   4.430   3.563  14.504
 4922SOL    HW216541   4.507   3.656  14.413
 4923SOL     OW16542  10.775   1.580  10.735
 4923SOL    HW116543  10.796   1.515  10.667
 4923SOL    HW216544  10.808   1.663  10.700
 4924SOL     OW16545   4.614   0.032  14.526
 4924SOL    HW116546   4.709   0.044  14.527
 4924SOL    HW216547   4.602  14.816  14.543
 4925SOL     OW16548  12.920   6.598   7.383
 4925SOL    HW116549  12.880   6.677   7.348
 4925SOL    HW216550  12.951   6.623   7.470
 4926SOL     OW16551   0.013  11.166  11.883
 4926SOL    HW116552   0.077  11.234  11.866
 4926SOL    HW216553   0.064  11.095  11.923
 4927SOL     OW16554  11.360   4.621   2.314
 4927SOL    HW116555  11.401   4.549   2.265
 4927SOL    HW216556  11.313   4.577   2.385
 4928SOL     OW16557  14.179   2.569  10.818
 4928SOL    HW116558  14.121   2.575  10.894
 4928SOL    HW216559  14.191   2.660  10.790
 4929SOL     OW16560   5.587   1.525  13.908
 4929SOL    HW116561   5.510   1.518  13.965
 4929SOL    HW216562   5.658   1.486  13.960
 4930SOL     OW16563   5.593  11.070  13.382
 4930SOL    HW116564   5.583  11.116  13.465
 4930SOL    HW216565   5.625  10.983  13.407
 4931SOL     OW16566   6.153   6.008   2.780
 4931SOL    HW116567   6.202   6.053   2.848
 4931SOL    HW216568   6.069   5.988   2.820
 4932SOL     OW16569   6.763   3.498   9.667
 4932SOL    HW116570   6.772   3.410   9.632
 4932SOL    HW216571   6.827   3.503   9.738
 4933SOL     OW16572   3.177   6.237  13.553
 4933SOL    HW116573   3.209   6.324  13.573
 4933SOL    HW216574   3.091   6.232  13.596
 4934SOL     OW16575  11.836   5.910   0.679
 4934SOL    HW116576  11.749   5.944   0.698
 4934SOL    HW216577  11.872   5.887   0.765
 4935SOL     OW16578  12.125  11.149   0.033
 4935SOL    HW116579  12.168  11.131   0.117
 4935SOL    HW216580  12.175  11.097  14.847
 4936SOL     OW16581   7.931   8.064   0.011
 4936SOL    HW116582   7.960   8.103  14.806
 4936SOL    HW216583   7.962   8.125   0.078
 4937SOL     OW16584   2.825   2.469   9.934
 4937SOL    HW116585   2.869   2.412   9.997
 4937SOL    HW216586   2.896   2.507   9.882
 4938SOL     OW16587   3.328   4.525   0.700
 4938SOL    HW116588   3.341   4.549   0.792
 4938SOL    HW216589   3.386   4.451   0.686
 4939SOL     OW16590   4.127   8.880   7.870
 4939SOL    HW116591   4.039   8.893   7.904
 4939SOL    HW216592   4.144   8.786   7.884
 4940SOL     OW16593   7.670   3.116  13.470
 4940SOL    HW116594   7.721   3.157  13.400
 4940SOL    HW216595   7.593   3.080  13.426
 4941SOL     OW16596  11.718   2.105  11.650
 4941SOL    HW116597  11.650   2.157  11.606
 4941SOL    HW216598  11.760   2.166  11.710
 4942SOL     OW16599   6.715   7.109  11.979
 4942SOL    HW116600   6.798   7.147  12.008
 4942SOL    HW216601   6.656   7.121  12.053
 4943SOL     OW16602   2.321   5.140  12.167
 4943SOL    HW116603   2.261   5.174  12.101
 4943SOL    HW216604   2.271   5.073  12.214
 4944SOL     OW16605   7.591   1.103  12.381
 4944SOL    HW116606   7.664   1.043  12.397
 4944SOL    HW216607   7.520   1.047  12.351
 4945SOL     OW16608  14.545   1.333   3.552
 4945SOL    HW116609  14.571   1.260   3.608
 4945SOL    HW216610  14.479   1.380   3.603
 4946SOL     OW16611   1.458  13.401   4.648
 4946SOL    HW116612   1.409  13.387   4.567
 4946SOL    HW216613   1.534  13.453   4.621
 4947SOL     OW16614   3.064   6.429  10.395
 4947SOL    HW116615   3.018   6.512  10.402
 4947SOL    HW216616   3.055   6.404  10.303
 4948SOL     OW16617   8.961   9.019   0.597
 4948SOL    HW116618   8.874   9.029   0.636
 4948SOL    HW216619   9.013   9.088   0.637
 4949SOL     OW16620   8.742   5.736   5.307
 4949SOL    HW116621   8.806   5.667   5.288
 4949SOL    HW216622   8.708   5.713   5.394
 4950SOL     OW16623   0.524  13.851   1.701
 4950SOL    HW116624   0.477  13.915   1.646
 4950SOL    HW216625   0.520  13.888   1.789
 4951SOL     OW16626  10.325   8.514   5.458
 4951SOL    HW116627  10.399   8.567   5.490
 4951SOL    HW216628  10.304   8.457   5.531
 4952SOL     OW16629   6.043   6.705  14.560
 4952SOL    HW116630   6.120   6.652  14.536
 4952SOL    HW216631   6.077   6.769  14.622
 4953SOL     OW16632  13.782   2.113   7.222
 4953SOL    HW116633  13.755   2.129   7.131
 4953SOL    HW216634  13.726   2.041   7.251
 4954SOL     OW16635   2.502   4.990   0.081
 4954SOL    HW116636   2.509   4.894   0.078
 4954SOL    HW216637   2.510   5.017  14.867
 4955SOL     OW16638  12.377   5.254  12.218
 4955SOL    HW116639  12.471   5.268  12.228
 4955SOL    HW216640  12.354   5.196  12.291
 4956SOL     OW16641   1.616   2.393   4.326
 4956SOL    HW116642   1.649   2.465   4.379
 4956SOL    HW216643   1.523   2.386   4.349
 4957SOL     OW16644  12.844   2.659   3.879
 4957SOL    HW116645  12.855   2.572   3.917
 4957SOL    HW216646  12.757   2.658   3.839
 4958SOL     OW16647   0.910  11.705   4.193
 4958SOL    HW116648   0.873  11.734   4.276
 4958SOL    HW216649   0.979  11.643   4.217
 4959SOL     OW16650  14.679   4.010   9.450
 4959SOL    HW116651  14.753   3.949   9.449
 4959SOL    HW216652  14.717   4.094   9.473
 4960SOL     OW16653   5.014  12.101   0.190
 4960SOL    HW116654   4.959  12.025   0.168
 4960SOL    HW216655   4.957  12.177   0.175
 4961SOL     OW16656   1.302   5.104  12.650
 4961SOL    HW116657   1.313   5.197  12.630
 4961SOL    HW216658   1.212   5.084  12.625
 4962SOL     OW16659   7.406   8.156   6.521
 4962SOL    HW116660   7.493   8.142   6.560
 4962SOL    HW216661   7.391   8.250   6.530
 4963SOL     OW16662  12.483  12.661  10.958
 4963SOL    HW116663  12.549  12.729  10.944
 4963SOL    HW216664  12.403  12.696  10.918
 4964SOL     OW16665  11.592  10.761  12.051
 4964SOL    HW116666  11.626  10.850  12.055
 4964SOL    HW216667  11.634  10.715  12.123
 4965SOL     OW16668   1.532   4.271  14.170
 4965SOL    HW116669   1.471   4.313  14.109
 4965SOL    HW216670   1.612   4.259  14.120
 4966SOL     OW16671   9.989  13.406   4.441
 4966SOL    HW116672  10.041  13.350   4.499
 4966SOL    HW216673   9.966  13.482   4.495
 4967SOL     OW16674   4.579  13.870   9.636
 4967SOL    HW116675   4.540  13.958   9.639
 4967SOL    HW216676   4.592  13.847   9.728
 4968SOL     OW16677   4.789   7.329   0.646
 4968SOL    HW116678   4.797   7.383   0.567
 4968SOL    HW216679   4.695   7.324   0.661
 4969SOL     OW16680   1.869  10.483   0.257
 4969SOL    HW116681   1.795  10.544   0.259
 4969SOL    HW216682   1.830  10.400   0.231
 4970SOL     OW16683   2.765   8.763   6.770
 4970SOL    HW116684   2.852   8.724   6.780
 4970SOL    HW216685   2.746   8.800   6.857
 4971SOL     OW16686   3.106   2.570  12.261
 4971SOL    HW116687   3.053   2.495  12.285
 4971SOL    HW216688   3.138   2.604  12.345
 4972SOL     OW16689   0.989   4.464  10.884
 4972SOL    HW116690   0.919   4.474  10.948
 4972SOL    HW216691   0.945   4.474  10.799
 4973SOL     OW16692   6.373   4.633   2.866
 4973SOL    HW116693   6.355   4.569   2.935
 4973SOL    HW216694   6.379   4.717   2.912
 4974SOL     OW16695   3.654   9.474  12.814
 4974SOL    HW116696   3.728   9.465  12.753
 4974SOL    HW216697   3.654   9.393  12.865
 4975SOL     OW16698   6.557   7.009   4.102
 4975SOL    HW116699   6.492   6.938   4.101
 4975SOL    HW216700   6.557   7.043   4.013
 4976SOL     OW16701  10.274  14.115  13.285
 4976SOL    HW116702  10.258  14.208  13.269
 4976SOL    HW216703  10.246  14.072  13.204
 4977SOL     OW16704   6.087   0.533   2.742
 4977SOL    HW116705   6.135   0.481   2.807
 4977SOL    HW216706   6.126   0.620   2.748
 4978SOL     OW16707   3.478   6.161  10.048
 4978SOL    HW116708   3.555   6.106  10.037
 4978SOL    HW216709   3.508   6.232  10.105
 4979SOL     OW16710  11.673   4.962   6.576
 4979SOL    HW116711  11.596   4.956   6.632
 4979SOL    HW216712  11.742   4.996   6.633
 4980SOL     OW16713   7.445   4.560   4.698
 4980SOL    HW116714   7.374   4.501   4.674
 4980SOL    HW216715   7.502   4.561   4.621
 4981SOL     OW16716   3.092   7.052   4.146
 4981SOL    HW116717   3.012   7.011   4.179
 4981SOL    HW216718   3.076   7.146   4.155
 4982SOL     OW16719   6.649   8.726   0.667
 4982SOL    HW116720   6.673   8.636   0.686
 4982SOL    HW216721   6.554   8.725   0.661
 4983SOL     OW16722   0.908  12.331  12.848
 4983SOL    HW116723   0.850  12.373  12.784
 4983SOL    HW216724   0.916  12.240  12.817
 4984SOL     OW16725  14.253   0.483  14.332
 4984SOL    HW116726  14.163   0.451  14.337
 4984SOL    HW216727  14.244   0.576  14.311
 4985SOL     OW16728  12.731   8.022   5.988
 4985SOL    HW116729  12.721   7.928   6.000
 4985SOL    HW216730  12.821   8.033   5.956
 4986SOL     OW16731   6.840   3.424  12.291
 4986SOL    HW116732   6.748   3.447  12.307
 4986SOL    HW216733   6.846   3.332  12.315
 4987SOL     OW16734   7.585   3.243   6.383
 4987SOL    HW116735   7.531   3.293   6.444
 4987SOL    HW216736   7.527   3.223   6.310
 4988SOL     OW16737   2.138   7.794  12.798
 4988SOL    HW116738   2.088   7.753  12.728
 4988SOL    HW216739   2.100   7.882  12.806
 4989SOL     OW16740   9.479  12.722  14.327
 4989SOL    HW116741   9.529  12.792  14.370
 4989SOL    HW216742   9.387  12.751  14.334
 4990SOL     OW16743   7.375   6.146   4.477
 4990SOL    HW116744   7.466   6.168   4.455
 4990SOL    HW216745   7.354   6.070   4.423
 4991SOL     OW16746   3.471   4.044   7.865
 4991SOL    HW116747   3.389   4.068   7.822
 4991SOL    HW216748   3.532   4.114   7.840
 4992SOL     OW16749   5.378   4.213   5.017
 4992SOL    HW116750   5.399   4.300   4.983
 4992SOL    HW216751   5.351   4.229   5.108
 4993SOL     OW16752   2.111   8.791   7.137
 4993SOL    HW116753   2.130   8.813   7.046
 4993SOL    HW216754   2.168   8.717   7.157
 4994SOL     OW16755  11.865   4.307   4.710
 4994SOL    HW116756  11.945   4.348   4.743
 4994SOL    HW216757  11.884   4.213   4.714
 4995SOL     OW16758   1.352   4.655   4.921
 4995SOL    HW116759   1.307   4.618   4.846
 4995SOL    HW216760   1.318   4.744   4.928
 4996SOL     OW16761   4.727   1.227   5.736
 4996SOL    HW116762   4.664   1.160   5.710
 4996SOL    HW216763   4.808   1.178   5.750
 4997SOL     OW16764  10.614  13.676  13.716
 4997SOL    HW116765  10.546  13.743  13.716
 4997SOL    HW216766  10.656  13.685  13.801
 4998SOL     OW16767  10.797   8.769   8.493
 4998SOL    HW116768  10.708   8.735   8.492
 4998SOL    HW216769  10.798   8.832   8.566
 4999SOL     OW16770   1.361   2.440   4.449
 4999SOL    HW116771   1.408   2.454   4.531
 4999SOL    HW216772   1.313   2.358   4.461
 5000SOL     OW16773   4.247  13.904   7.190
 5000SOL    HW116774   4.278  13.923   7.279
 5000SOL    HW216775   4.152  13.910   7.196
 5001SOL     OW16776   9.639   7.731   0.581
 5001SOL    HW116777   9.624   7.640   0.556
 5001SOL    HW216778   9.565   7.779   0.544
 5002SOL     OW16779  11.993   8.407   1.775
 5002SOL    HW116780  12.048   8.344   1.821
 5002SOL    HW216781  11.938   8.444   1.844
 5003SOL     OW16782   8.915   4.166   9.890
 5003SOL    HW116783   8.900   4.076   9.920
 5003SOL    HW216784   9.004   4.166   9.856
 5004SOL     OW16785   8.401   8.659  10.161
 5004SOL    HW116786   8.379   8.620  10.076
 5004SOL    HW216787   8.469   8.601  10.196
 5005SOL     OW16788   9.226  12.325   9.972
 5005SOL    HW116789   9.144  12.374   9.961
 5005SOL    HW216790   9.256  12.346  10.060
 5006SOL     OW16791   1.012   7.227   2.914
 5006SOL    HW116792   1.083   7.185   2.866
 5006SOL    HW216793   0.978   7.158   2.971
 5007SOL     OW16794   3.911   3.314  12.069
 5007SOL    HW116795   4.006   3.320  12.069
 5007SOL    HW216796   3.882   3.399  12.103
 5008SOL     OW16797   6.851  10.646   5.281
 5008SOL    HW116798   6.864  10.558   5.245
 5008SOL    HW216799   6.762  10.645   5.317
 5009SOL     OW16800  10.558   6.075  13.050
 5009SOL    HW116801  10.483   6.027  13.086
 5009SOL    HW216802  10.584   6.024  12.973
 5010SOL     OW16803   9.548   2.660   8.101
 5010SOL    HW116804   9.553   2.567   8.080
 5010SOL    HW216805   9.620   2.699   8.051
 5011SOL     OW16806   0.312  10.106  11.021
 5011SOL    HW116807   0.308  10.011  11.011
 5011SOL    HW216808   0.271  10.123  11.106
 5012SOL     OW16809  10.761   2.543   4.175
 5012SOL    HW116810  10.781   2.635   4.157
 5012SOL    HW216811  10.693   2.521   4.111
 5013SOL     OW16812   1.767   5.982  12.720
 5013SOL    HW116813   1.829   5.941  12.659
 5013SOL    HW216814   1.693   6.008  12.666
 5014SOL     OW16815  12.695   3.932   6.038
 5014SOL    HW116816  12.666   3.862   5.980
 5014SOL    HW216817  12.790   3.935   6.028
 5015SOL     OW16818   2.087   0.090  10.618
 5015SOL    HW116819   2.125   0.069  10.703
 5015SOL    HW216820   2.122   0.176  10.597
 5016SOL     OW16821  12.098   5.738  12.424
 5016SOL    HW116822  12.150   5.790  12.484
 5016SOL    HW216823  12.012   5.781  12.423
 5017SOL     OW16824   1.196  10.943  10.981
 5017SOL    HW116825   1.272  10.927  10.924
 5017SOL    HW216826   1.172  10.856  11.013
 5018SOL     OW16827  12.116  11.558   5.219
 5018SOL    HW116828  12.185  11.519   5.164
 5018SOL    HW216829  12.147  11.647   5.237
 5019SOL     OW16830   9.987  12.400  10.287
 5019SOL    HW116831  10.060  12.368  10.341
 5019SOL    HW216832   9.945  12.321  10.254
 5020SOL     OW16833   8.436   7.024  14.138
 5020SOL    HW116834   8.481   7.047  14.219
 5020SOL    HW216835   8.500   6.973  14.088
 5021SOL     OW16836   9.076  14.847   3.260
 5021SOL    HW116837   9.144  14.800   3.309
 5021SOL    HW216838   9.110   0.058   3.249
 5022SOL     OW16839   0.809   1.724   1.700
 5022SOL    HW116840   0.848   1.691   1.619
 5022SOL    HW216841   0.807   1.820   1.688
 5023SOL     OW16842   0.829  10.535  11.738
 5023SOL    HW116843   0.815  10.560  11.829
 5023SOL    HW216844   0.859  10.445  11.742
 5024SOL     OW16845   5.708   2.568   4.184
 5024SOL    HW116846   5.691   2.527   4.099
 5024SOL    HW216847   5.767   2.506   4.228
 5025SOL     OW16848  14.540  12.002  12.073
 5025SOL    HW116849  14.481  11.984  12.000
 5025SOL    HW216850  14.620  11.953  12.052
 5026SOL     OW16851   8.109   3.745   9.043
 5026SOL    HW116852   8.047   3.772   8.976
 5026SOL    HW216853   8.178   3.812   9.040
 5027SOL     OW16854   9.694  14.251   6.007
 5027SOL    HW116855   9.676  14.178   6.066
 5027SOL    HW216856   9.649  14.326   6.047
 5028SOL     OW16857   9.621  13.071   3.218
 5028SOL    HW116858   9.617  13.009   3.290
 5028SOL    HW216859   9.595  13.155   3.257
 5029SOL     OW16860   0.058   9.436   2.575
 5029SOL    HW116861  14.849   9.394   2.582
 5029SOL    HW216862   0.061   9.468   2.484
 5030SOL     OW16863   5.543   5.533   6.922
 5030SOL    HW116864   5.595   5.541   6.842
 5030SOL    HW216865   5.603   5.496   6.986
 5031SOL     OW16866   3.673  13.174   2.132
 5031SOL    HW116867   3.768  13.189   2.123
 5031SOL    HW216868   3.649  13.128   2.052
 5032SOL     OW16869  13.211   8.736  12.365
 5032SOL    HW116870  13.204   8.640  12.370
 5032SOL    HW216871  13.278   8.751  12.298
 5033SOL     OW16872  11.618  11.266   0.470
 5033SOL    HW116873  11.709  11.240   0.454
 5033SOL    HW216874  11.622  11.361   0.479
 5034SOL     OW16875  14.803  13.318  11.314
 5034SOL    HW116876  14.721  13.366  11.320
 5034SOL    HW216877  14.836  13.314  11.404
 5035SOL     OW16878   1.221  12.911   8.025
 5035SOL    HW116879   1.260  12.997   8.041
 5035SOL    HW216880   1.204  12.910   7.931
 5036SOL     OW16881  11.975  12.803  12.168
 5036SOL    HW116882  11.882  12.780  12.175
 5036SOL    HW216883  11.980  12.862  12.093
 5037SOL     OW16884   0.757  12.504   6.988
 5037SOL    HW116885   0.743  12.574   7.052
 5037SOL    HW216886   0.742  12.423   7.038
 5038SOL     OW16887   2.815   2.892  14.389
 5038SOL    HW116888   2.758   2.824  14.426
 5038SOL    HW216889   2.754   2.960  14.360
 5039SOL     OW16890   8.025   8.324   9.755
 5039SOL    HW116891   8.053   8.350   9.667
 5039SOL    HW216892   7.960   8.390   9.780
 5040SOL     OW16893  14.242  13.438   2.564
 5040SOL    HW116894  14.266  13.524   2.528
 5040SOL    HW216895  14.267  13.376   2.496
 5041SOL     OW16896  12.200  12.947  14.732
 5041SOL    HW116897  12.218  12.940  14.825
 5041SOL    HW216898  12.160  12.864  14.708
 5042SOL     OW16899   5.949  11.450   0.326
 5042SOL    HW116900   5.874  11.393   0.342
 5042SOL    HW216901   6.007  11.397   0.271
 5043SOL     OW16902   4.799   8.067   1.719
 5043SOL    HW116903   4.875   8.074   1.661
 5043SOL    HW216904   4.754   8.151   1.709
 5044SOL     OW16905   9.348   7.564  14.726
 5044SOL    HW116906   9.272   7.518  14.689
 5044SOL    HW216907   9.382   7.504  14.793
 5045SOL     OW16908   5.770   6.836  12.900
 5045SOL    HW116909   5.746   6.751  12.936
 5045SOL    HW216910   5.866   6.836  12.900
 5046SOL     OW16911   9.650   6.226  10.426
 5046SOL    HW116912   9.744   6.208  10.429
 5046SOL    HW216913   9.642   6.306  10.373
 5047SOL     OW16914  11.056   8.434   0.849
 5047SOL    HW116915  11.078   8.341   0.849
 5047SOL    HW216916  11.009   8.447   0.931
 5048SOL     OW16917   3.586   8.860   2.426
 5048SOL    HW116918   3.505   8.899   2.460
 5048SOL    HW216919   3.573   8.858   2.331
 5049SOL     OW16920  13.001   6.024  11.397
 5049SOL    HW116921  12.917   6.013  11.441
 5049SOL    HW216922  12.990   6.103  11.344
 5050SOL     OW16923  14.703   9.218   1.348
 5050SOL    HW116924  14.790   9.249   1.323
 5050SOL    HW216925  14.715   9.125   1.366
 5051SOL     OW16926   2.657   3.005   4.127
 5051SOL    HW116927   2.622   2.977   4.043
 5051SOL    HW216928   2.582   3.040   4.174
 5052SOL     OW16929   9.099   6.061   7.071
 5052SOL    HW116930   9.016   6.056   7.120
 5052SOL    HW216931   9.151   6.125   7.120
 5053SOL     OW16932  10.588   1.710  11.758
 5053SOL    HW116933  10.546   1.641  11.809
 5053SOL    HW216934  10.545   1.790  11.785
 5054SOL     OW16935  12.657   1.909  10.586
 5054SOL    HW116936  12.598   1.864  10.525
 5054SOL    HW216937  12.698   1.837  10.635
 5055SOL     OW16938   9.426   2.938   5.532
 5055SOL    HW116939   9.514   2.969   5.554
 5055SOL    HW216940   9.407   2.872   5.599
 5056SOL     OW16941   5.316  10.859   2.335
 5056SOL    HW116942   5.324  10.792   2.268
 5056SOL    HW216943   5.271  10.932   2.292
 5057SOL     OW16944  14.332   3.396  12.865
 5057SOL    HW116945  14.253   3.351  12.838
 5057SOL    HW216946  14.341   3.377  12.959
 5058SOL     OW16947   3.468   0.659   6.854
 5058SOL    HW116948   3.474   0.726   6.922
 5058SOL    HW216949   3.415   0.590   6.893
 5059SOL     OW16950   1.538   3.374  14.051
 5059SOL    HW116951   1.470   3.441  14.057
 5059SOL    HW216952   1.505   3.312  13.986
 5060SOL     OW16953  13.881   8.684   0.268
 5060SOL    HW116954  13.791   8.675   0.298
 5060SOL    HW216955  13.932   8.698   0.348
 5061SOL     OW16956   0.331  12.017   1.219
 5061SOL    HW116957   0.329  12.078   1.292
 5061SOL    HW216958   0.251  11.965   1.228
 5062SOL     OW16959   2.105  14.720  11.859
 5062SOL    HW116960   2.186  14.754  11.821
 5062SOL    HW216961   2.134  14.663  11.930
 5063SOL     OW16962   9.298  12.044   6.696
 5063SOL    HW116963   9.284  12.022   6.788
 5063SOL    HW216964   9.382  12.089   6.695
 5064SOL     OW16965   1.466  11.403   3.262
 5064SOL    HW116966   1.391  11.346   3.279
 5064SOL    HW216967   1.440  11.455   3.186
 5065SOL     OW16968  11.427   8.691   5.723
 5065SOL    HW116969  11.425   8.609   5.674
 5065SOL    HW216970  11.471   8.669   5.805
 5066SOL     OW16971  10.098  10.575   7.312
 5066SOL    HW116972  10.032  10.508   7.332
 5066SOL    HW216973  10.156  10.576   7.388
 5067SOL     OW16974   6.836   7.016   4.671
 5067SOL    HW116975   6.765   7.045   4.614
 5067SOL    HW216976   6.808   6.930   4.703
 5068SOL     OW16977  12.254   1.330   9.996
 5068SOL    HW116978  12.201   1.393   9.947
 5068SOL    HW216979  12.225   1.244   9.963
 5069SOL     OW16980   3.005   2.027   3.299
 5069SOL    HW116981   3.003   1.940   3.259
 5069SOL    HW216982   2.966   2.015   3.386
 5070SOL     OW16983   1.199   2.098   7.284
 5070SOL    HW116984   1.202   2.053   7.200
 5070SOL    HW216985   1.118   2.148   7.281
 5071SOL     OW16986   8.279  14.295   6.448
 5071SOL    HW116987   8.224  14.314   6.523
 5071SOL    HW216988   8.363  14.269   6.485
 5072SOL     OW16989  12.737   9.020  10.216
 5072SOL    HW116990  12.795   9.066  10.276
 5072SOL    HW216991  12.793   8.953  10.176
 5073SOL     OW16992   7.888  14.543   9.288
 5073SOL    HW116993   7.910  14.528   9.380
 5073SOL    HW216994   7.900  14.458   9.246
 5074SOL     OW16995   7.309   3.273   1.980
 5074SOL    HW116996   7.403   3.266   1.995
 5074SOL    HW216997   7.286   3.361   2.011
 5075SOL     OW16998   2.262   8.899   6.872
 5075SOL    HW116999   2.317   8.958   6.924
 5075SOL    HW217000   2.176   8.942   6.869
 5076SOL     OW17001   5.630   4.589   6.265
 5076SOL    HW117002   5.593   4.668   6.304
 5076SOL    HW217003   5.722   4.610   6.251
 5077SOL     OW17004   0.553   4.894  13.321
 5077SOL    HW117005   0.612   4.821  13.300
 5077SOL    HW217006   0.511   4.868  13.403
 5078SOL     OW17007   9.723  14.000   0.144
 5078SOL    HW117008   9.657  14.010   0.075
 5078SOL    HW217009   9.731  13.905   0.155
 5079SOL     OW17010   8.938   0.423   0.679
 5079SOL    HW117011   8.865   0.361   0.684
 5079SOL    HW217012   9.014   0.368   0.661
 5080SOL     OW17013  14.579   5.779   9.096
 5080SOL    HW117014  14.619   5.727   9.026
 5080SOL    HW217015  14.653   5.824   9.137
 5081SOL     OW17016  10.118  10.708   7.966
 5081SOL    HW117017  10.150  10.670   8.048
 5081SOL    HW217018  10.025  10.685   7.963
 5082SOL     OW17019  11.972   9.217   4.905
 5082SOL    HW117020  12.025   9.249   4.978
 5082SOL    HW217021  11.897   9.176   4.947
 5083SOL     OW17022  11.889   3.930   1.067
 5083SOL    HW117023  11.903   3.887   1.151
 5083SOL    HW217024  11.898   3.859   1.002
 5084SOL     OW17025   9.025   4.369   0.853
 5084SOL    HW117026   8.933   4.364   0.827
 5084SOL    HW217027   9.046   4.281   0.885
 5085SOL     OW17028  12.781  10.968   8.373
 5085SOL    HW117029  12.702  10.966   8.426
 5085SOL    HW217030  12.828  10.887   8.396
 5086SOL     OW17031   3.086   0.047   2.033
 5086SOL    HW117032   3.071   0.141   2.018
 5086SOL    HW217033   3.155   0.024   1.971
 5087SOL     OW17034   0.136   2.127   4.151
 5087SOL    HW117035   0.110   2.219   4.166
 5087SOL    HW217036   0.231   2.129   4.152
 5088SOL     OW17037  11.519   4.072   4.264
 5088SOL    HW117038  11.490   4.103   4.349
 5088SOL    HW217039  11.489   3.980   4.261
 5089SOL     OW17040   0.387   5.302   8.912
 5089SOL    HW117041   0.451   5.231   8.914
 5089SOL    HW217042   0.420   5.361   8.845
 5090SOL     OW17043  14.465   1.292   3.285
 5090SOL    HW117044  14.475   1.281   3.379
 5090SOL    HW217045  14.487   1.384   3.269
 5091SOL     OW17046   5.019   9.849  10.239
 5091SOL    HW117047   5.036   9.870  10.147
 5091SOL    HW217048   4.942   9.792  10.237
 5092SOL     OW17049   4.043   5.810   5.872
 5092SOL    HW117050   4.106   5.882   5.882
 5092SOL    HW217051   4.043   5.793   5.777
 5093SOL     OW17052   3.816   4.372  10.126
 5093SOL    HW117053   3.808   4.386  10.032
 5093SOL    HW217054   3.897   4.417  10.151
 5094SOL     OW17055  13.536   6.968  12.034
 5094SOL    HW117056  13.568   6.945  11.946
 5094SOL    HW217057  13.444   6.988  12.022
 5095SOL     OW17058   3.110   3.535   2.496
 5095SOL    HW117059   3.190   3.496   2.532
 5095SOL    HW217060   3.135   3.564   2.408
 5096SOL     OW17061   9.087  14.506   3.732
 5096SOL    HW117062   9.102  14.575   3.797
 5096SOL    HW217063   8.993  14.489   3.736
 5097SOL     OW17064  13.234   4.030  13.575
 5097SOL    HW117065  13.326   4.055  13.569
 5097SOL    HW217066  13.216   4.023  13.669
 5098SOL     OW17067  10.529   4.561   3.496
 5098SOL    HW117068  10.440   4.536   3.469
 5098SOL    HW217069  10.531   4.656   3.484
 5099SOL     OW17070  10.834  12.917   7.589
 5099SOL    HW117071  10.838  12.830   7.548
 5099SOL    HW217072  10.813  12.899   7.680
 5100SOL     OW17073   8.505   3.254  14.373
 5100SOL    HW117074   8.417   3.289  14.358
 5100SOL    HW217075   8.534   3.223  14.288
 5101SOL     OW17076   1.878  13.443  11.159
 5101SOL    HW117077   1.808  13.492  11.116
 5101SOL    HW217078   1.842  13.421  11.245
 5102SOL     OW17079  10.226   8.043   5.971
 5102SOL    HW117080  10.231   7.949   5.991
 5102SOL    HW217081  10.270   8.085   6.044
 5103SOL     OW17082   4.602   2.468   6.609
 5103SOL    HW117083   4.556   2.429   6.684
 5103SOL    HW217084   4.594   2.562   6.622
 5104SOL     OW17085   1.457   1.881  10.196
 5104SOL    HW117086   1.422   1.963  10.231
 5104SOL    HW217087   1.470   1.898  10.103
 5105SOL     OW17088   3.393  14.423   7.445
 5105SOL    HW117089   3.475  14.402   7.490
 5105SOL    HW217090   3.417  14.430   7.353
 5106SOL     OW17091   4.085   2.627  12.547
 5106SOL    HW117092   4.042   2.713  12.547
 5106SOL    HW217093   4.154   2.635  12.613
 5107SOL     OW17094  12.647   1.338  14.585
 5107SOL    HW117095  12.563   1.383  14.592
 5107SOL    HW217096  12.710   1.408  14.567
 5108SOL     OW17097   2.148   6.849  14.273
 5108SOL    HW117098   2.219   6.891  14.225
 5108SOL    HW217099   2.110   6.919  14.326
 5109SOL     OW17100   2.383  10.865   4.551
 5109SOL    HW117101   2.438  10.788   4.565
 5109SOL    HW217102   2.397  10.919   4.629
 5110SOL     OW17103   7.528   5.307   6.615
 5110SOL    HW117104   7.578   5.366   6.671
 5110SOL    HW217105   7.571   5.222   6.625
 5111SOL     OW17106  14.576   5.022   2.030
 5111SOL    HW117107  14.635   5.009   2.104
 5111SOL    HW217108  14.583   4.941   1.979
 5112SOL     OW17109  14.235   9.177   4.101
 5112SOL    HW117110  14.168   9.170   4.169
 5112SOL    HW217111  14.209   9.112   4.036
 5113SOL     OW17112  13.468   2.105   7.821
 5113SOL    HW117113  13.449   2.074   7.909
 5113SOL    HW217114  13.563   2.119   7.821
 5114SOL     OW17115  13.160   8.280  11.586
 5114SOL    HW117116  13.127   8.367  11.565
 5114SOL    HW217117  13.136   8.266  11.677
 5115SOL     OW17118   4.686   1.030   2.923
 5115SOL    HW117119   4.741   1.057   2.850
 5115SOL    HW217120   4.631   0.960   2.886
 5116SOL     OW17121   2.696  14.104   5.288
 5116SOL    HW117122   2.648  14.029   5.251
 5116SOL    HW217123   2.629  14.169   5.306
 5117SOL     OW17124   2.588   7.205  12.856
 5117SOL    HW117125   2.502   7.174  12.829
 5117SOL    HW217126   2.644   7.191  12.779
 5118SOL     OW17127   2.298   6.337  11.255
 5118SOL    HW117128   2.245   6.396  11.201
 5118SOL    HW217129   2.321   6.388  11.332
 5119SOL     OW17130   4.067   6.037  10.627
 5119SOL    HW117131   4.016   6.001  10.554
 5119SOL    HW217132   4.134   5.971  10.644
 5120SOL     OW17133   2.598   3.288  13.282
 5120SOL    HW117134   2.623   3.356  13.220
 5120SOL    HW217135   2.512   3.258  13.252
 5121SOL     OW17136  11.624  11.095   5.894
 5121SOL    HW117137  11.693  11.031   5.911
 5121SOL    HW217138  11.611  11.091   5.800
 5122SOL     OW17139   0.536   9.133   3.147
 5122SOL    HW117140   0.578   9.219   3.154
 5122SOL    HW217141   0.602   9.072   3.181
 5123SOL     OW17142  13.454   6.355   7.146
 5123SOL    HW117143  13.434   6.329   7.236
 5123SOL    HW217144  13.545   6.383   7.148
 5124SOL     OW17145   9.717   0.723  12.608
 5124SOL    HW117146   9.766   0.698  12.687
 5124SOL    HW217147   9.753   0.809  12.584
 5125SOL     OW17148   4.654   4.657   8.862
 5125SOL    HW117149   4.675   4.725   8.926
 5125SOL    HW217150   4.616   4.705   8.788
 5126SOL     OW17151   4.801  12.046   9.529
 5126SOL    HW117152   4.893  12.017   9.530
 5126SOL    HW217153   4.803  12.130   9.483
 5127SOL     OW17154  11.891  12.083   4.613
 5127SOL    HW117155  11.951  12.017   4.577
 5127SOL    HW217156  11.805  12.042   4.607
 5128SOL     OW17157   7.184  13.511   3.653
 5128SOL    HW117158   7.187  13.456   3.575
 5128SOL    HW217159   7.271  13.502   3.693
 5129SOL     OW17160   0.627   8.093   6.640
 5129SOL    HW117161   0.542   8.133   6.624
 5129SOL    HW217162   0.688   8.167   6.639
 5130SOL     OW17163  14.721   7.612   9.807
 5130SOL    HW117164  14.757   7.536   9.761
 5130SOL    HW217165  14.720   7.681   9.742
 5131SOL     OW17166   0.552   6.081   6.432
 5131SOL    HW117167   0.612   6.007   6.437
 5131SOL    HW217168   0.580   6.139   6.503
 5132SOL     OW17169   1.875   6.978   7.996
 5132SOL    HW117170   1.941   7.046   8.009
 5132SOL    HW217171   1.800   7.024   7.960
 5133SOL     OW17172   2.187   0.108  10.279
 5133SOL    HW117173   2.213   0.123  10.370
 5133SOL    HW217174   2.197   0.194  10.238
 5134SOL     OW17175   4.362   6.041   7.329
 5134SOL    HW117176   4.278   6.019   7.368
 5134SOL    HW217177   4.366   6.137   7.331
 5135SOL     OW17178   0.209   4.471   1.433
 5135SOL    HW117179   0.159   4.490   1.512
 5135SOL    HW217180   0.145   4.481   1.362
 5136SOL     OW17181  13.269  11.724   9.870
 5136SOL    HW117182  13.253  11.794   9.806
 5136SOL    HW217183  13.202  11.659   9.851
 5137SOL     OW17184   6.487  13.515   2.884
 5137SOL    HW117185   6.481  13.609   2.896
 5137SOL    HW217186   6.398  13.483   2.903
 5138SOL     OW17187   0.530   2.600   4.022
 5138SOL    HW117188   0.525   2.639   4.109
 5138SOL    HW217189   0.624   2.599   4.002
 5139SOL     OW17190   2.822  14.594  13.435
 5139SOL    HW117191   2.862  14.681  13.435
 5139SOL    HW217192   2.728  14.610  13.438
 5140SOL     OW17193   0.274  14.665   8.762
 5140SOL    HW117194   0.363  14.694   8.782
 5140SOL    HW217195   0.258  14.692   8.672
 5141SOL     OW17196  11.892  10.487  13.116
 5141SOL    HW117197  11.842  10.419  13.160
 5141SOL    HW217198  11.972  10.443  13.087
 5142SOL     OW17199   3.733   5.920   8.790
 5142SOL    HW117200   3.739   5.932   8.695
 5142SOL    HW217201   3.694   6.001   8.822
 5143SOL     OW17202   8.324  12.972  11.973
 5143SOL    HW117203   8.367  12.967  12.059
 5143SOL    HW217204   8.393  13.001  11.914
 5144SOL     OW17205   6.013  14.316   2.702
 5144SOL    HW117206   6.080  14.347   2.642
 5144SOL    HW217207   6.022  14.221   2.702
 5145SOL     OW17208   7.527  14.534   4.782
 5145SOL    HW117209   7.597  14.470   4.788
 5145SOL    HW217210   7.567  14.609   4.737
 5146SOL     OW17211   5.909  10.424   7.393
 5146SOL    HW117212   5.918  10.397   7.302
 5146SOL    HW217213   5.831  10.377   7.424
 5147SOL     OW17214  11.094  14.572  13.838
 5147SOL    HW117215  11.135  14.552  13.753
 5147SOL    HW217216  11.116  14.498  13.894
 5148SOL     OW17217   5.517   1.598  11.020
 5148SOL    HW117218   5.510   1.694  11.021
 5148SOL    HW217219   5.473   1.570  11.101
 5149SOL     OW17220   9.839  10.583   9.842
 5149SOL    HW117221   9.915  10.631   9.810
 5149SOL    HW217222   9.820  10.622   9.927
 5150SOL     OW17223   1.866   5.829   9.256
 5150SOL    HW117224   1.797   5.866   9.201
 5150SOL    HW217225   1.908   5.905   9.296
 5151SOL     OW17226  14.542  13.906   0.617
 5151SOL    HW117227  14.456  13.945   0.602
 5151SOL    HW217228  14.604  13.969   0.582
 5152SOL     OW17229   6.195   4.754   0.395
 5152SOL    HW117230   6.203   4.690   0.324
 5152SOL    HW217231   6.140   4.712   0.460
 5153SOL     OW17232   8.368   6.137   0.702
 5153SOL    HW117233   8.408   6.058   0.737
 5153SOL    HW217234   8.420   6.158   0.625
 5154SOL     OW17235   4.171  10.944   4.951
 5154SOL    HW117236   4.092  10.933   5.004
 5154SOL    HW217237   4.242  10.920   5.010
 5155SOL     OW17238   8.306   4.620   7.470
 5155SOL    HW117239   8.396   4.633   7.441
 5155SOL    HW217240   8.263   4.704   7.452
 5156SOL     OW17241   1.561   5.430   9.284
 5156SOL    HW117242   1.466   5.424   9.293
 5156SOL    HW217243   1.587   5.494   9.350
 5157SOL     OW17244  13.793  12.491  10.623
 5157SOL    HW117245  13.796  12.402  10.586
 5157SOL    HW217246  13.734  12.539  10.565
 5158SOL     OW17247   3.533   9.856   2.691
 5158SOL    HW117248   3.466   9.917   2.660
 5158SOL    HW217249   3.609   9.912   2.710
 5159SOL     OW17250  12.254   2.395   0.661
 5159SOL    HW117251  12.318   2.459   0.632
 5159SOL    HW217252  12.306   2.321   0.693
 5160SOL     OW17253  11.090   5.677  10.998
 5160SOL    HW117254  11.156   5.624  10.954
 5160SOL    HW217255  11.131   5.701  11.082
 5161SOL     OW17256   5.437  11.595  11.435
 5161SOL    HW117257   5.422  11.690  11.433
 5161SOL    HW217258   5.531  11.586  11.451
 5162SOL     OW17259   7.657  12.000   1.396
 5162SOL    HW117260   7.636  11.924   1.343
 5162SOL    HW217261   7.654  12.074   1.335
 5163SOL     OW17262   3.612   6.507   0.470
 5163SOL    HW117263   3.665   6.566   0.416
 5163SOL    HW217264   3.534   6.490   0.416
 5164SOL     OW17265   4.878   9.751   7.192
 5164SOL    HW117266   4.902   9.665   7.158
 5164SOL    HW217267   4.925   9.757   7.275
 5165SOL     OW17268   5.035  10.451  11.899
 5165SOL    HW117269   5.079  10.394  11.837
 5165SOL    HW217270   4.941  10.436  11.885
 5166SOL     OW17271  14.607  11.297   9.959
 5166SOL    HW117272  14.603  11.202   9.946
 5166SOL    HW217273  14.565  11.310  10.044
 5167SOL     OW17274   9.380  12.157  10.731
 5167SOL    HW117275   9.453  12.143  10.792
 5167SOL    HW217276   9.394  12.246  10.698
 5168SOL     OW17277  13.120   7.680   5.214
 5168SOL    HW117278  13.187   7.618   5.243
 5168SOL    HW217279  13.166   7.738   5.153
 5169SOL     OW17280  13.790  10.987   4.152
 5169SOL    HW117281  13.849  10.923   4.114
 5169SOL    HW217282  13.815  11.070   4.112
 5170SOL     OW17283   3.132   3.822   5.175
 5170SOL    HW117284   3.157   3.904   5.132
 5170SOL    HW217285   3.037   3.819   5.167
 5171SOL     OW17286   6.668   2.580   9.527
 5171SOL    HW117287   6.733   2.533   9.580
 5171SOL    HW217288   6.675   2.671   9.556
 5172SOL     OW17289   9.043  10.755  12.057
 5172SOL    HW117290   8.989  10.723  12.129
 5172SOL    HW217291   9.094  10.679  12.030
 5173SOL     OW17292  11.844  10.910   7.210
 5173SOL    HW117293  11.872  10.999   7.190
 5173SOL    HW217294  11.922  10.866   7.244
 5174SOL     OW17295   6.993   8.628  10.352
 5174SOL    HW117296   6.958   8.660  10.435
 5174SOL    HW217297   7.055   8.559  10.377
 5175SOL     OW17298   6.443  13.593   9.727
 5175SOL    HW117299   6.415  13.624   9.813
 5175SOL    HW217300   6.506  13.658   9.696
 5176SOL     OW17301   2.626   8.999  14.456
 5176SOL    HW117302   2.599   8.932  14.393
 5176SOL    HW217303   2.694   8.957  14.507
 5177SOL     OW17304   1.667   6.206   9.593
 5177SOL    HW117305   1.755   6.175   9.615
 5177SOL    HW217306   1.623   6.217   9.677
 5178SOL     OW17307   2.318   6.212   8.093
 5178SOL    HW117308   2.287   6.216   8.183
 5178SOL    HW217309   2.266   6.142   8.053
 5179SOL     OW17310   0.033   1.938   8.172
 5179SOL    HW117311  14.861   2.018   8.156
 5179SOL    HW217312  14.871   1.873   8.113
 5180SOL     OW17313   9.394   1.604   5.221
 5180SOL    HW117314   9.429   1.519   5.247
 5180SOL    HW217315   9.320   1.619   5.281
 5181SOL     OW17316   5.404   5.159  10.208
 5181SOL    HW117317   5.405   5.086  10.270
 5181SOL    HW217318   5.490   5.200  10.217
 5182SOL     OW17319  12.513   8.432   5.839
 5182SOL    HW117320  12.573   8.394   5.775
 5182SOL    HW217321  12.432   8.382   5.829
 5183SOL     OW17322   0.209  11.521   8.777
 5183SOL    HW117323   0.241  11.458   8.712
 5183SOL    HW217324   0.222  11.607   8.736
 5184SOL     OW17325   5.290   3.176   6.249
 5184SOL    HW117326   5.311   3.087   6.220
 5184SOL    HW217327   5.208   3.197   6.205
 5185SOL     OW17328   0.251  11.081   0.746
 5185SOL    HW117329   0.221  11.000   0.787
 5185SOL    HW217330   0.342  11.090   0.775
 5186SOL     OW17331  14.816   3.227  14.800
 5186SOL    HW117332  14.812   3.193   0.012
 5186SOL    HW217333  14.854   3.315  14.810
 5187SOL     OW17334  13.811   8.563   8.529
 5187SOL    HW117335  13.738   8.521   8.575
 5187SOL    HW217336  13.820   8.648   8.571
 5188SOL     OW17337   2.331  12.332   2.183
 5188SOL    HW117338   2.290  12.284   2.256
 5188SOL    HW217339   2.326  12.271   2.109
 5189SOL     OW17340  11.665  11.100  14.436
 5189SOL    HW117341  11.593  11.141  14.484
 5189SOL    HW217342  11.726  11.070  14.504
 5190SOL     OW17343   3.188   5.756   9.988
 5190SOL    HW117344   3.246   5.680   9.989
 5190SOL    HW217345   3.137   5.745   9.908
 5191SOL     OW17346   6.090   4.203  13.932
 5191SOL    HW117347   6.028   4.214  13.861
 5191SOL    HW217348   6.043   4.235  14.010
 5192SOL     OW17349   7.815   8.427   8.612
 5192SOL    HW117350   7.873   8.493   8.575
 5192SOL    HW217351   7.862   8.397   8.691
 5193SOL     OW17352   1.375   1.193   8.473
 5193SOL    HW117353   1.440   1.122   8.472
 5193SOL    HW217354   1.424   1.270   8.443
 5194SOL     OW17355   6.597   6.348   0.311
 5194SOL    HW117356   6.615   6.405   0.387
 5194SOL    HW217357   6.606   6.259   0.346
 5195SOL     OW17358  11.988   3.265   6.946
 5195SOL    HW117359  11.968   3.215   7.026
 5195SOL    HW217360  12.081   3.283   6.952
 5196SOL     OW17361  12.145   2.004  13.186
 5196SOL    HW117362  12.107   1.991  13.099
 5196SOL    HW217363  12.239   2.002  13.171
 5197SOL     OW17364   7.925  12.024   4.740
 5197SOL    HW117365   7.988  12.076   4.690
 5197SOL    HW217366   7.855  12.005   4.678
 5198SOL     OW17367  12.214   5.119   9.421
 5198SOL    HW117368  12.218   5.049   9.357
 5198SOL    HW217369  12.162   5.188   9.379
 5199SOL     OW17370  12.520   8.036  14.371
 5199SOL    HW117371  12.600   8.086  14.354
 5199SOL    HW217372  12.501   8.053  14.464
 5200SOL     OW17373  10.690  14.188   5.087
 5200SOL    HW117374  10.652  14.108   5.122
 5200SOL    HW217375  10.628  14.257   5.112
 5201SOL     OW17376  12.769   1.299  12.116
 5201SOL    HW117377  12.855   1.299  12.158
 5201SOL    HW217378  12.786   1.281  12.024
 5202SOL     OW17379  12.756   6.884  10.506
 5202SOL    HW117380  12.676   6.857  10.460
 5202SOL    HW217381  12.795   6.802  10.536
 5203SOL     OW17382  10.730  13.618   6.763
 5203SOL    HW117383  10.731  13.678   6.689
 5203SOL    HW217384  10.780  13.542   6.733
 5204SOL     OW17385   2.683  12.486  12.265
 5204SOL    HW117386   2.595  12.449  12.268
 5204SOL    HW217387   2.697  12.524  12.351
 5205SOL     OW17388   0.087   6.559  12.292
 5205SOL    HW117389   0.123   6.646  12.274
 5205SOL    HW217390   0.162   6.506  12.319
 5206SOL     OW17391   7.737   0.804   1.685
 5206SOL    HW117392   7.798   0.816   1.758
 5206SOL    HW217393   7.727   0.892   1.648
 5207SOL     OW17394   1.615   8.023   8.336
 5207SOL    HW117395   1.600   8.114   8.313
 5207SOL    HW217396   1.528   7.983   8.337
 5208SOL     OW17397  12.625   7.631  11.741
 5208SOL    HW117398  12.552   7.640  11.680
 5208SOL    HW217399  12.648   7.538  11.737
 5209SOL     OW17400  14.504   3.808   1.495
 5209SOL    HW117401  14.447   3.856   1.434
 5209SOL    HW217402  14.471   3.718   1.492
 5210SOL     OW17403   8.553   5.831   9.087
 5210SOL    HW117404   8.514   5.917   9.100
 5210SOL    HW217405   8.508   5.796   9.010
 5211SOL     OW17406   5.807   5.731   8.008
 5211SOL    HW117407   5.875   5.746   7.942
 5211SOL    HW217408   5.825   5.643   8.042
 5212SOL     OW17409   7.906   6.065   2.826
 5212SOL    HW117410   7.827   6.012   2.841
 5212SOL    HW217411   7.894   6.142   2.881
 5213SOL     OW17412  12.797   1.959   3.496
 5213SOL    HW117413  12.752   1.877   3.475
 5213SOL    HW217414  12.836   1.944   3.582
 5214SOL     OW17415   3.654   1.438   4.727
 5214SOL    HW117416   3.607   1.364   4.688
 5214SOL    HW217417   3.652   1.420   4.821
 5215SOL     OW17418  10.744  12.662  11.506
 5215SOL    HW117419  10.805  12.722  11.548
 5215SOL    HW217420  10.734  12.696  11.417
 5216SOL     OW17421   2.192   9.527   0.921
 5216SOL    HW117422   2.227   9.615   0.938
 5216SOL    HW217423   2.118   9.542   0.863
 5217SOL     OW17424  12.975   9.997  13.397
 5217SOL    HW117425  12.994   9.903  13.393
 5217SOL    HW217426  12.910  10.012  13.329
 5218SOL     OW17427   5.761  11.731  10.975
 5218SOL    HW117428   5.816  11.808  10.968
 5218SOL    HW217429   5.792  11.686  11.053
 5219SOL     OW17430   7.018   3.204   2.534
 5219SOL    HW117431   6.970   3.137   2.484
 5219SOL    HW217432   7.011   3.283   2.480
 5220SOL     OW17433   1.184   7.903   6.416
 5220SOL    HW117434   1.176   7.980   6.472
 5220SOL    HW217435   1.116   7.914   6.350
 5221SOL     OW17436  13.334   7.554   4.752
 5221SOL    HW117437  13.384   7.477   4.724
 5221SOL    HW217438  13.362   7.569   4.843
 5222SOL     OW17439   0.117   7.900  14.307
 5222SOL    HW117440   0.075   7.877  14.224
 5222SOL    HW217441   0.168   7.824  14.331
 5223SOL     OW17442   6.725   7.575  10.881
 5223SOL    HW117443   6.698   7.667  10.881
 5223SOL    HW217444   6.649   7.528  10.847
 5224SOL     OW17445  14.174   0.473   4.144
 5224SOL    HW117446  14.250   0.456   4.200
 5224SOL    HW217447  14.142   0.385   4.120
 5225SOL     OW17448  14.771  13.832   5.632
 5225SOL    HW117449  14.847  13.780   5.661
 5225SOL    HW217450  14.758  13.806   5.541
 5226SOL     OW17451   8.249  10.628   8.908
 5226SOL    HW117452   8.209  10.606   8.824
 5226SOL    HW217453   8.193  10.698   8.943
 5227SOL     OW17454  14.451   2.214   9.758
 5227SOL    HW117455  14.482   2.125   9.773
 5227SOL    HW217456  14.416   2.242   9.842
 5228SOL     OW17457  11.564   0.881   5.492
 5228SOL    HW117458  11.481   0.862   5.536
 5228SOL    HW217459  11.565   0.976   5.484
 5229SOL     OW17460   3.861   8.831   4.095
 5229SOL    HW117461   3.836   8.817   4.004
 5229SOL    HW217462   3.945   8.787   4.104
 5230SOL     OW17463   5.337  12.831   9.336
 5230SOL    HW117464   5.346  12.910   9.282
 5230SOL    HW217465   5.413  12.778   9.313
 5231SOL     OW17466  10.228   1.480  12.894
 5231SOL    HW117467  10.260   1.545  12.957
 5231SOL    HW217468  10.202   1.531  12.817
 5232SOL     OW17469   5.065   8.273   9.036
 5232SOL    HW117470   5.130   8.281   8.967
 5232SOL    HW217471   5.082   8.187   9.075
 5233SOL     OW17472   1.797   0.544   7.168
 5233SOL    HW117473   1.758   0.505   7.246
 5233SOL    HW217474   1.882   0.576   7.198
 5234SOL     OW17475  13.493  14.848   6.839
 5234SOL    HW117476  13.410  14.804   6.822
 5234SOL    HW217477  13.529  14.866   6.752
 5235SOL     OW17478   9.956   4.102   4.000
 5235SOL    HW117479   9.963   4.073   4.091
 5235SOL    HW217480   9.872   4.068   3.970
 5236SOL     OW17481  13.911   5.714   9.934
 5236SOL    HW117482  13.993   5.667   9.924
 5236SOL    HW217483  13.919   5.758  10.019
 5237SOL     OW17484   3.115   3.796   3.572
 5237SOL    HW117485   3.094   3.825   3.483
 5237SOL    HW217486   3.134   3.703   3.564
 5238SOL     OW17487   1.396   7.380   2.834
 5238SOL    HW117488   1.427   7.413   2.749
 5238SOL    HW217489   1.475   7.376   2.888
 5239SOL     OW17490   8.346   8.764   8.035
 5239SOL    HW117491   8.415   8.747   8.098
 5239SOL    HW217492   8.371   8.714   7.957
 5240SOL     OW17493   3.233  13.185   1.630
 5240SOL    HW117494   3.265  13.150   1.713
 5240SOL    HW217495   3.213  13.108   1.577
 5241SOL     OW17496  13.937   6.261  11.364
 5241SOL    HW117497  13.911   6.172  11.390
 5241SOL    HW217498  13.862   6.295  11.316
 5242SOL     OW17499   6.760   9.848   7.490
 5242SOL    HW117500   6.704   9.774   7.512
 5242SOL    HW217501   6.712   9.925   7.520
 5243SOL     OW17502  10.101  12.793  11.452
 5243SOL    HW117503  10.048  12.845  11.513
 5243SOL    HW217504  10.098  12.842  11.370
 5244SOL     OW17505   7.883  10.123   7.352
 5244SOL    HW117506   7.874  10.099   7.260
 5244SOL    HW217507   7.859  10.043   7.399
 5245SOL     OW17508   0.318   1.402   5.338
 5245SOL    HW117509   0.343   1.317   5.302
 5245SOL    HW217510   0.340   1.465   5.269
 5246SOL     OW17511   8.881   3.091   2.867
 5246SOL    HW117512   8.931   3.167   2.837
 5246SOL    HW217513   8.926   3.062   2.946
 5247SOL     OW17514   4.200  12.939   1.334
 5247SOL    HW117515   4.276  12.928   1.278
 5247SOL    HW217516   4.128  12.958   1.274
 5248SOL     OW17517   7.735   7.897   8.610
 5248SOL    HW117518   7.731   7.854   8.525
 5248SOL    HW217519   7.809   7.855   8.655
 5249SOL     OW17520   7.450   0.973   1.827
 5249SOL    HW117521   7.463   0.908   1.758
 5249SOL    HW217522   7.396   0.928   1.892
 5250SOL     OW17523  10.417  10.020   0.877
 5250SOL    HW117524  10.503  10.043   0.911
 5250SOL    HW217525  10.357  10.038   0.949
 5251SOL     OW17526   7.075   6.795   7.747
 5251SOL    HW117527   7.164   6.794   7.782
 5251SOL    HW217528   7.086   6.783   7.653
 5252SOL     OW17529   8.369   2.297   2.852
 5252SOL    HW117530   8.355   2.391   2.840
 5252SOL    HW217531   8.437   2.292   2.919
 5253SOL     OW17532  14.065  10.216  11.913
 5253SOL    HW117533  14.000  10.252  11.852
 5253SOL    HW217534  14.096  10.292  11.963
 5254SOL     OW17535  13.216   3.193   6.202
 5254SOL    HW117536  13.287   3.130   6.186
 5254SOL    HW217537  13.163   3.190   6.122
 5255SOL     OW17538   2.263   5.781  13.713
 5255SOL    HW117539   2.205   5.814  13.782
 5255SOL    HW217540   2.221   5.807  13.631
 5256SOL     OW17541  12.865   9.039   7.520
 5256SOL    HW117542  12.947   9.067   7.561
 5256SOL    HW217543  12.797   9.090   7.564
 5257SOL     OW17544   3.148   3.011   9.598
 5257SOL    HW117545   3.155   3.000   9.503
 5257SOL    HW217546   3.124   3.103   9.610
 5258SOL     OW17547   7.014  11.096  13.347
 5258SOL    HW117548   6.931  11.130  13.315
 5258SOL    HW217549   6.989  11.025  13.408
 5259SOL     OW17550  13.318   2.685   5.795
 5259SOL    HW117551  13.259   2.687   5.871
 5259SOL    HW217552  13.401   2.652   5.829
 5260SOL     OW17553   0.723  14.430   0.984
 5260SOL    HW117554   0.716  14.414   0.890
 5260SOL    HW217555   0.791  14.370   1.014
 5261SOL     OW17556   2.115  11.256   4.686
 5261SOL    HW117557   2.158  11.207   4.616
 5261SOL    HW217558   2.167  11.336   4.695
 5262SOL     OW17559   9.046   7.896   5.074
 5262SOL    HW117560   8.998   7.934   5.147
 5262SOL    HW217561   9.115   7.844   5.115
 5263SOL     OW17562  12.243   4.725  10.203
 5263SOL    HW117563  12.331   4.747  10.233
 5263SOL    HW217564  12.230   4.778  10.125
 5264SOL     OW17565   0.522  12.592   5.975
 5264SOL    HW117566   0.508  12.506   6.015
 5264SOL    HW217567   0.616  12.597   5.961
 5265SOL     OW17568   1.566   8.091   9.984
 5265SOL    HW117569   1.622   8.015  10.002
 5265SOL    HW217570   1.478   8.054   9.978
 5266SOL     OW17571  13.742   1.557   8.460
 5266SOL    HW117572  13.647   1.541   8.456
 5266SOL    HW217573  13.774   1.535   8.373
 5267SOL     OW17574  14.356   2.098   9.501
 5267SOL    HW117575  14.389   2.147   9.576
 5267SOL    HW217576  14.424   2.108   9.434
 5268SOL     OW17577   2.751   0.435  10.799
 5268SOL    HW117578   2.774   0.517  10.755
 5268SOL    HW217579   2.762   0.368  10.731
 5269SOL     OW17580   5.292   5.575   6.794
 5269SOL    HW117581   5.228   5.611   6.855
 5269SOL    HW217582   5.367   5.552   6.848
 5270SOL     OW17583  11.058  11.703  12.497
 5270SOL    HW117584  11.045  11.645  12.422
 5270SOL    HW217585  11.133  11.666  12.544
 5271SOL     OW17586   1.974   0.707   7.954
 5271SOL    HW117587   1.879   0.721   7.949
 5271SOL    HW217588   2.000   0.687   7.864
 5272SOL     OW17589   7.780   2.749   6.997
 5272SOL    HW117590   7.714   2.815   6.975
 5272SOL    HW217591   7.785   2.694   6.919
 5273SOL     OW17592   0.621   9.102   0.292
 5273SOL    HW117593   0.665   9.158   0.356
 5273SOL    HW217594   0.602   9.021   0.340
 5274SOL     OW17595   3.089   6.746   1.382
 5274SOL    HW117596   3.107   6.714   1.470
 5274SOL    HW217597   3.084   6.667   1.328
 5275SOL     OW17598   2.336   4.035   6.877
 5275SOL    HW117599   2.338   4.067   6.787
 5275SOL    HW217600   2.414   4.074   6.919
 5276SOL     OW17601  11.958   8.563  11.110
 5276SOL    HW117602  11.926   8.571  11.020
 5276SOL    HW217603  12.032   8.625  11.114
 5277SOL     OW17604   6.793   1.938   1.490
 5277SOL    HW117605   6.716   1.996   1.488
 5277SOL    HW217606   6.762   1.856   1.451
 5278SOL     OW17607  11.664  12.287  12.354
 5278SOL    HW117608  11.601  12.356  12.335
 5278SOL    HW217609  11.705  12.268  12.270
 5279SOL     OW17610  14.400   4.196   2.420
 5279SOL    HW117611  14.308   4.186   2.445
 5279SOL    HW217612  14.426   4.278   2.462
 5280SOL     OW17613   5.578   3.114   4.175
 5280SOL    HW117614   5.522   3.091   4.100
 5280SOL    HW217615   5.624   3.032   4.196
 5281SOL     OW17616  10.229   0.663   2.063
 5281SOL    HW117617  10.248   0.743   2.015
 5281SOL    HW217618  10.264   0.679   2.151
 5282SOL     OW17619   6.667   1.329   5.232
 5282SOL    HW117620   6.700   1.379   5.306
 5282SOL    HW217621   6.659   1.393   5.161
 5283SOL     OW17622   7.816  12.740  12.888
 5283SOL    HW117623   7.853  12.779  12.968
 5283SOL    HW217624   7.741  12.794  12.867
 5284SOL     OW17625  11.093   3.949   4.463
 5284SOL    HW117626  11.054   3.952   4.550
 5284SOL    HW217627  11.062   3.867   4.426
 5285SOL     OW17628   6.865   3.089   4.983
 5285SOL    HW117629   6.876   3.168   4.929
 5285SOL    HW217630   6.892   3.116   5.071
 5286SOL     OW17631  11.797   7.646   8.372
 5286SOL    HW117632  11.769   7.598   8.294
 5286SOL    HW217633  11.870   7.701   8.341
 5287SOL     OW17634  13.363  12.588  10.291
 5287SOL    HW117635  13.446  12.591  10.337
 5287SOL    HW217636  13.305  12.537  10.347
 5288SOL     OW17637   9.406  13.909   2.887
 5288SOL    HW117638   9.385  13.978   2.824
 5288SOL    HW217639   9.326  13.856   2.892
 5289SOL     OW17640  13.652  10.749  11.053
 5289SOL    HW117641  13.557  10.734  11.051
 5289SOL    HW217642  13.690  10.667  11.021
 5290SOL     OW17643   6.749   6.516   8.834
 5290SOL    HW117644   6.758   6.465   8.753
 5290SOL    HW217645   6.698   6.460   8.892
 5291SOL     OW17646   0.542  10.942   8.614
 5291SOL    HW117647   0.598  10.962   8.689
 5291SOL    HW217648   0.589  10.873   8.567
 5292SOL     OW17649  11.968  12.789  10.102
 5292SOL    HW117650  11.981  12.796  10.008
 5292SOL    HW217651  11.875  12.767  10.112
 5293SOL     OW17652  13.871   8.810  10.769
 5293SOL    HW117653  13.882   8.886  10.712
 5293SOL    HW217654  13.959   8.795  10.806
 5294SOL     OW17655   6.896   6.155  13.155
 5294SOL    HW117656   6.805   6.182  13.147
 5294SOL    HW217657   6.945   6.237  13.158
 5295SOL     OW17658  10.655   1.067  12.433
 5295SOL    HW117659  10.671   0.979  12.398
 5295SOL    HW217660  10.728   1.119  12.402
 5296SOL     OW17661   8.367   9.272   5.101
 5296SOL    HW117662   8.421   9.194   5.111
 5296SOL    HW217663   8.282   9.247   5.138
 5297SOL     OW17664   5.018   9.374   8.658
 5297SOL    HW117665   5.085   9.326   8.610
 5297SOL    HW217666   5.043   9.363   8.750
 5298SOL     OW17667   6.674   0.016  10.799
 5298SOL    HW117668   6.590  14.870  10.838
 5298SOL    HW217669   6.730   0.038  10.873
 5299SOL     OW17670   8.575   6.988  14.506
 5299SOL    HW117671   8.639   6.925  14.472
 5299SOL    HW217672   8.518   6.937  14.563
 5300SOL     OW17673   4.676   3.964   6.844
 5300SOL    HW117674   4.597   3.953   6.897
 5300SOL    HW217675   4.653   4.034   6.782
 5301SOL     OW17676   3.119  12.497  10.369
 5301SOL    HW117677   3.123  12.455  10.455
 5301SOL    HW217678   3.167  12.437  10.312
 5302SOL     OW17679   4.228   3.699  10.487
 5302SOL    HW117680   4.317   3.733  10.480
 5302SOL    HW217681   4.187   3.722  10.403
 5303SOL     OW17682  11.095   2.936   5.241
 5303SOL    HW117683  11.170   2.972   5.193
 5303SOL    HW217684  11.065   2.863   5.186
 5304SOL     OW17685   8.537   1.727   8.709
 5304SOL    HW117686   8.570   1.746   8.621
 5304SOL    HW217687   8.453   1.684   8.695
 5305SOL     OW17688  11.996   1.668  10.120
 5305SOL    HW117689  11.972   1.728  10.048
 5305SOL    HW217690  12.084   1.639  10.098
 5306SOL     OW17691   3.175  10.761  13.973
 5306SOL    HW117692   3.168  10.743  14.067
 5306SOL    HW217693   3.085  10.757  13.940
 5307SOL     OW17694   2.235   0.428  13.806
 5307SOL    HW117695   2.195   0.509  13.838
 5307SOL    HW217696   2.294   0.456  13.736
 5308SOL     OW17697   5.272   0.267   3.485
 5308SOL    HW117698   5.247   0.343   3.433
 5308SOL    HW217699   5.357   0.290   3.522
 5309SOL     OW17700  11.172   8.450  11.888
 5309SOL    HW117701  11.110   8.523  11.885
 5309SOL    HW217702  11.258   8.491  11.877
 5310SOL     OW17703   8.007   3.295  14.859
 5310SOL    HW117704   8.039   3.215  14.817
 5310SOL    HW217705   8.072   3.315   0.049
 5311SOL     OW17706  10.075   3.547   9.587
 5311SOL    HW117707  10.163   3.582   9.600
 5311SOL    HW217708  10.040   3.538   9.676
 5312SOL     OW17709   1.131   5.972  14.459
 5312SOL    HW117710   1.075   6.013  14.524
 5312SOL    HW217711   1.161   5.891  14.501
 5313SOL     OW17712  13.120   3.779   8.554
 5313SOL    HW117713  13.177   3.843   8.512
 5313SOL    HW217714  13.164   3.758   8.637
 5314SOL     OW17715  11.616   6.328  14.742
 5314SOL    HW117716  11.568   6.244  14.742
 5314SOL    HW217717  11.631   6.347  14.835
 5315SOL     OW17718   4.447   7.662   4.309
 5315SOL    HW117719   4.443   7.613   4.391
 5315SOL    HW217720   4.540   7.679   4.296
 5316SOL     OW17721  13.399   8.638   1.131
 5316SOL    HW117722  13.426   8.690   1.207
 5316SOL    HW217723  13.319   8.594   1.159
 5317SOL     OW17724   9.381   0.928   8.142
 5317SOL    HW117725   9.415   0.917   8.053
 5317SOL    HW217726   9.352   1.020   8.146
 5318SOL     OW17727   5.190   8.550   0.349
 5318SOL    HW117728   5.105   8.509   0.364
 5318SOL    HW217729   5.170   8.643   0.342
 5319SOL     OW17730  11.407  13.249   0.008
 5319SOL    HW117731  11.428  13.243   0.101
 5319SOL    HW217732  11.389  13.159  14.859
 5320SOL     OW17733   4.966   7.464   5.586
 5320SOL    HW117734   4.939   7.492   5.499
 5320SOL    HW217735   5.059   7.443   5.576
 5321SOL     OW17736  14.484   3.565   3.616
 5321SOL    HW117737  14.412   3.609   3.661
 5321SOL    HW217738  14.449   3.547   3.528
 5322SOL     OW17739   2.144  11.200  11.043
 5322SOL    HW117740   2.239  11.215  11.053
 5322SOL    HW217741   2.109  11.283  11.013
 5323SOL     OW17742   9.560  11.227   9.952
 5323SOL    HW117743   9.523  11.227   9.863
 5323SOL    HW217744   9.505  11.286  10.002
 5324SOL     OW17745   4.444   2.944   8.526
 5324SOL    HW117746   4.388   2.959   8.450
 5324SOL    HW217747   4.411   2.862   8.564
 5325SOL     OW17748   9.364   1.158  12.536
 5325SOL    HW117749   9.288   1.134  12.484
 5325SOL    HW217750   9.383   1.248  12.510
 5326SOL     OW17751  10.604   0.671  11.580
 5326SOL    HW117752  10.644   0.642  11.498
 5326SOL    HW217753  10.603   0.767  11.573
 5327SOL     OW17754   3.578  11.636  11.216
 5327SOL    HW117755   3.584  11.688  11.136
 5327SOL    HW217756   3.484  11.632  11.234
 5328SOL     OW17757  14.001  13.268   7.606
 5328SOL    HW117758  13.916  13.225   7.615
 5328SOL    HW217759  14.064  13.205   7.642
 5329SOL     OW17760   0.491   3.715  12.680
 5329SOL    HW117761   0.570   3.769  12.684
 5329SOL    HW217762   0.497   3.658  12.757
 5330SOL     OW17763   2.199   8.667   3.524
 5330SOL    HW117764   2.287   8.694   3.498
 5330SOL    HW217765   2.171   8.607   3.455
 5331SOL     OW17766   0.361   9.195   7.915
 5331SOL    HW117767   0.298   9.197   7.987
 5331SOL    HW217768   0.415   9.119   7.932
 5332SOL     OW17769  13.968  10.573   3.740
 5332SOL    HW117770  13.964  10.622   3.658
 5332SOL    HW217771  13.919  10.493   3.723
 5333SOL     OW17772   8.760  11.708   9.175
 5333SOL    HW117773   8.812  11.754   9.109
 5333SOL    HW217774   8.712  11.778   9.220
 5334SOL     OW17775  13.506   9.573   9.570
 5334SOL    HW117776  13.496   9.635   9.642
 5334SOL    HW217777  13.600   9.560   9.562
 5335SOL     OW17778   5.940   5.753   2.614
 5335SOL    HW117779   5.901   5.801   2.688
 5335SOL    HW217780   6.032   5.777   2.615
 5336SOL     OW17781   5.569   7.542   2.831
 5336SOL    HW117782   5.622   7.569   2.756
 5336SOL    HW217783   5.480   7.539   2.797
 5337SOL     OW17784  11.536   8.323   8.964
 5337SOL    HW117785  11.589   8.257   8.919
 5337SOL    HW217786  11.509   8.383   8.895
 5338SOL     OW17787  12.762  13.287   0.167
 5338SOL    HW117788  12.844  13.242   0.185
 5338SOL    HW217789  12.694  13.228   0.199
 5339SOL     OW17790   2.573   1.824   9.527
 5339SOL    HW117791   2.584   1.902   9.472
 5339SOL    HW217792   2.641   1.833   9.595
 5340SOL     OW17793  11.195   8.440   5.451
 5340SOL    HW117794  11.202   8.448   5.356
 5340SOL    HW217795  11.178   8.529   5.482
 5341SOL     OW17796   2.034  12.054   1.854
 5341SOL    HW117797   2.114  12.053   1.906
 5341SOL    HW217798   2.061  12.093   1.770
 5342SOL     OW17799   2.859  13.636  10.968
 5342SOL    HW117800   2.904  13.553  10.979
 5342SOL    HW217801   2.847  13.669  11.057
 5343SOL     OW17802   1.134   8.841   2.669
 5343SOL    HW117803   1.113   8.853   2.762
 5343SOL    HW217804   1.053   8.864   2.624
 5344SOL     OW17805  13.299   5.029   7.132
 5344SOL    HW117806  13.254   4.947   7.151
 5344SOL    HW217807  13.260   5.092   7.194
 5345SOL     OW17808   3.383   7.328   5.802
 5345SOL    HW117809   3.319   7.282   5.748
 5345SOL    HW217810   3.377   7.285   5.888
 5346SOL     OW17811   1.844   4.324  11.950
 5346SOL    HW117812   1.857   4.406  11.998
 5346SOL    HW217813   1.829   4.350  11.860
 5347SOL     OW17814   0.439   8.049   3.389
 5347SOL    HW117815   0.431   8.047   3.484
 5347SOL    HW217816   0.452   8.141   3.367
 5348SOL     OW17817   8.843   6.435   3.302
 5348SOL    HW117818   8.927   6.424   3.348
 5348SOL    HW217819   8.839   6.528   3.282
 5349SOL     OW17820   6.179   9.597   5.304
 5349SOL    HW117821   6.255   9.551   5.268
 5349SOL    HW217822   6.163   9.669   5.242
 5350SOL     OW17823  11.219   2.783  13.429
 5350SOL    HW117824  11.150   2.850  13.429
 5350SOL    HW217825  11.281   2.812  13.362
 5351SOL     OW17826  12.249   6.157   7.910
 5351SOL    HW117827  12.281   6.122   7.993
 5351SOL    HW217828  12.225   6.248   7.930
 5352SOL     OW17829   3.811  11.596  12.179
 5352SOL    HW117830   3.765  11.514  12.195
 5352SOL    HW217831   3.891  11.571  12.132
 5353SOL     OW17832  11.776   8.212   0.749
 5353SOL    HW117833  11.686   8.188   0.770
 5353SOL    HW217834  11.830   8.143   0.788
 5354SOL     OW17835   3.870  13.772   8.100
 5354SOL    HW117836   3.849  13.862   8.125
 5354SOL    HW217837   3.826  13.760   8.016
 5355SOL     OW17838  10.382  13.019   8.267
 5355SOL    HW117839  10.412  12.975   8.346
 5355SOL    HW217840  10.287  13.014   8.271
 5356SOL     OW17841   2.175  14.294   1.370
 5356SOL    HW117842   2.244  14.295   1.303
 5356SOL    HW217843   2.172  14.202   1.399
 5357SOL     OW17844  10.396   5.488   1.894
 5357SOL    HW117845  10.355   5.560   1.847
 5357SOL    HW217846  10.469   5.528   1.941
 5358SOL     OW17847   4.531   1.054   5.669
 5358SOL    HW117848   4.521   0.989   5.739
 5358SOL    HW217849   4.539   1.001   5.589
 5359SOL     OW17850   1.911   1.268   4.521
 5359SOL    HW117851   1.854   1.297   4.450
 5359SOL    HW217852   1.997   1.305   4.500
 5360SOL     OW17853   5.028  10.438   1.067
 5360SOL    HW117854   5.117  10.408   1.080
 5360SOL    HW217855   4.980  10.359   1.039
 5361SOL     OW17856   8.930   8.900  14.276
 5361SOL    HW117857   8.994   8.874  14.210
 5361SOL    HW217858   8.964   8.863  14.358
 5362SOL     OW17859   2.331   8.411   0.832
 5362SOL    HW117860   2.324   8.433   0.739
 5362SOL    HW217861   2.264   8.344   0.846
 5363SOL     OW17862   5.117   0.206  10.863
 5363SOL    HW117863   5.139   0.163  10.780
 5363SOL    HW217864   5.137   0.298  10.847
 5364SOL     OW17865   6.669  13.975   2.526
 5364SOL    HW117866   6.646  13.905   2.587
 5364SOL    HW217867   6.678  13.932   2.441
 5365SOL     OW17868  11.551  14.785   6.633
 5365SOL    HW117869  11.500  14.866   6.628
 5365SOL    HW217870  11.641  14.814   6.647
 5366SOL     OW17871   6.960  12.214   9.294
 5366SOL    HW117872   6.881  12.163   9.316
 5366SOL    HW217873   6.927  12.289   9.246
 5367SOL     OW17874   8.530   4.891  12.969
 5367SOL    HW117875   8.614   4.908  12.927
 5367SOL    HW217876   8.491   4.820  12.918
 5368SOL     OW17877  14.832   2.070   8.624
 5368SOL    HW117878  14.749   2.117   8.630
 5368SOL    HW217879  14.875   2.107   8.547
 5369SOL     OW17880   7.782   2.831  12.050
 5369SOL    HW117881   7.718   2.774  12.009
 5369SOL    HW217882   7.859   2.775  12.065
 5370SOL     OW17883   4.694   5.685   0.280
 5370SOL    HW117884   4.674   5.697   0.187
 5370SOL    HW217885   4.777   5.638   0.281
 5371SOL     OW17886   0.214   6.402  14.180
 5371SOL    HW117887   0.241   6.460  14.108
 5371SOL    HW217888   0.161   6.335  14.137
 5372SOL     OW17889   0.084   0.445   0.101
 5372SOL    HW117890   0.069   0.506   0.028
 5372SOL    HW217891   0.002   0.445   0.149
 5373SOL     OW17892   2.818   4.982   3.903
 5373SOL    HW117893   2.850   5.054   3.849
 5373SOL    HW217894   2.866   4.905   3.871
 5374SOL     OW17895   8.089  12.096   7.129
 5374SOL    HW117896   8.044  12.170   7.171
 5374SOL    HW217897   8.036  12.020   7.150
 5375SOL     OW17898   1.083   4.314   6.383
 5375SOL    HW117899   1.040   4.315   6.469
 5375SOL    HW217900   1.126   4.400   6.378
 5376SOL     OW17901  13.828   9.104  10.346
 5376SOL    HW117902  13.793   9.017  10.327
 5376SOL    HW217903  13.852   9.140  10.261
 5377SOL     OW17904   1.044   1.417   9.334
 5377SOL    HW117905   1.106   1.347   9.353
 5377SOL    HW217906   1.087   1.497   9.365
 5378SOL     OW17907   6.509  10.244   3.215
 5378SOL    HW117908   6.451  10.286   3.151
 5378SOL    HW217909   6.503  10.300   3.293
 5379SOL     OW17910   6.423  13.471  14.028
 5379SOL    HW117911   6.430  13.539  14.094
 5379SOL    HW217912   6.330  13.468  14.006
 5380SOL     OW17913  11.808   7.773   9.009
 5380SOL    HW117914  11.744   7.845   9.012
 5380SOL    HW217915  11.873   7.795   9.076
 5381SOL     OW17916  12.707   3.686   5.419
 5381SOL    HW117917  12.631   3.694   5.477
 5381SOL    HW217918  12.708   3.594   5.392
 5382SOL     OW17919   9.332  13.505   8.953
 5382SOL    HW117920   9.264  13.546   9.007
 5382SOL    HW217921   9.293  13.424   8.922
 5383SOL     OW17922   7.716   4.699   7.522
 5383SOL    HW117923   7.627   4.716   7.550
 5383SOL    HW217924   7.765   4.778   7.546
 5384SOL     OW17925   7.605  12.186   8.115
 5384SOL    HW117926   7.537  12.124   8.141
 5384SOL    HW217927   7.562  12.242   8.050
 5385SOL     OW17928   3.658  14.321   7.995
 5385SOL    HW117929   3.648  14.377   7.918
 5385SOL    HW217930   3.643  14.232   7.961
 5386SOL     OW17931   6.344   5.794   8.700
 5386SOL    HW117932   6.295   5.774   8.620
 5386SOL    HW217933   6.280   5.789   8.770
 5387SOL     OW17934   4.491  11.025   0.391
 5387SOL    HW117935   4.566  10.982   0.349
 5387SOL    HW217936   4.486  10.986   0.478
 5388SOL     OW17937  13.933  12.780   3.592
 5388SOL    HW117938  13.869  12.836   3.635
 5388SOL    HW217939  13.945  12.706   3.652
 5389SOL     OW17940   3.707   4.908   1.598
 5389SOL    HW117941   3.714   4.970   1.670
 5389SOL    HW217942   3.764   4.945   1.530
 5390SOL     OW17943   3.073   5.051   7.159
 5390SOL    HW117944   3.078   5.122   7.222
 5390SOL    HW217945   3.025   4.982   7.204
 5391SOL     OW17946   5.730   5.269   1.383
 5391SOL    HW117947   5.804   5.246   1.328
 5391SOL    HW217948   5.717   5.363   1.368
 5392SOL     OW17949   5.260   1.920   4.731
 5392SOL    HW117950   5.240   1.914   4.825
 5392SOL    HW217951   5.355   1.934   4.728
 5393SOL     OW17952  12.187  13.483  13.560
 5393SOL    HW117953  12.232  13.486  13.645
 5393SOL    HW217954  12.094  13.495  13.582
 5394SOL     OW17955   3.765  13.261   8.401
 5394SOL    HW117956   3.708  13.322   8.353
 5394SOL    HW217957   3.831  13.234   8.337
 5395SOL     OW17958   2.046  10.340   9.535
 5395SOL    HW117959   1.968  10.396   9.532
 5395SOL    HW217960   2.021  10.266   9.590
 5396SOL     OW17961   8.055   2.079   6.802
 5396SOL    HW117962   8.127   2.054   6.859
 5396SOL    HW217963   8.079   2.165   6.768
 5397SOL     OW17964   8.079   5.625   1.997
 5397SOL    HW117965   8.074   5.576   2.078
 5397SOL    HW217966   8.171   5.620   1.971
 5398SOL     OW17967   8.082   0.667   8.849
 5398SOL    HW117968   8.157   0.613   8.873
 5398SOL    HW217969   8.007   0.627   8.894
 5399SOL     OW17970  13.518   6.378  14.528
 5399SOL    HW117971  13.449   6.390  14.463
 5399SOL    HW217972  13.582   6.320  14.486
 5400SOL     OW17973  13.415   2.199   2.392
 5400SOL    HW117974  13.345   2.146   2.355
 5400SOL    HW217975  13.390   2.289   2.371
 5401SOL     OW17976   6.992  11.100  11.941
 5401SOL    HW117977   7.083  11.126  11.948
 5401SOL    HW217978   6.990  11.009  11.971
 5402SOL     OW17979   8.929   4.047   8.236
 5402SOL    HW117980   8.908   3.995   8.159
 5402SOL    HW217981   8.849   4.098   8.253
 5403SOL     OW17982  12.511  12.275  12.421
 5403SOL    HW117983  12.565  12.351  12.444
 5403SOL    HW217984  12.529  12.260  12.329
 5404SOL     OW17985  12.963   9.293   6.130
 5404SOL    HW117986  12.988   9.203   6.112
 5404SOL    HW217987  12.997   9.310   6.218
 5405SOL     OW17988  14.208  13.790   9.135
 5405SOL    HW117989  14.288  13.772   9.086
 5405SOL    HW217990  14.151  13.716   9.116
 5406SOL     OW17991   1.172   0.767   1.381
 5406SOL    HW117992   1.123   0.685   1.375
 5406SOL    HW217993   1.106   0.835   1.365
 5407SOL     OW17994   3.169   3.824  10.772
 5407SOL    HW117995   3.195   3.755  10.710
 5407SOL    HW217996   3.135   3.777  10.848
 5408SOL     OW17997   1.880   1.820   6.833
 5408SOL    HW117998   1.849   1.815   6.923
 5408SOL    HW217999   1.865   1.732   6.797
 5409SOL     OW18000  13.431  13.325   0.562
 5409SOL    HW118001  13.394  13.318   0.474
 5409SOL    HW218002  13.436  13.420   0.578
 5410SOL     OW18003   7.461  12.234   4.906
 5410SOL    HW118004   7.471  12.268   4.995
 5410SOL    HW218005   7.478  12.140   4.913
 5411SOL     OW18006  13.967   5.088   7.953
 5411SOL    HW118007  14.038   5.135   7.909
 5411SOL    HW218008  13.956   5.008   7.902
 5412SOL     OW18009   1.050  12.079   4.145
 5412SOL    HW118010   0.956  12.096   4.135
 5412SOL    HW218011   1.070  12.015   4.076
 5413SOL     OW18012   7.056   9.043   0.931
 5413SOL    HW118013   7.130   9.069   0.987
 5413SOL    HW218014   7.031   8.957   0.965
 5414SOL     OW18015  11.865  13.437   8.550
 5414SOL    HW118016  11.934  13.442   8.484
 5414SOL    HW218017  11.794  13.491   8.516
 5415SOL     OW18018  13.156   2.202   2.607
 5415SOL    HW118019  13.224   2.154   2.653
 5415SOL    HW218020  13.089   2.136   2.587
 5416SOL     OW18021  12.244   9.713   2.236
 5416SOL    HW118022  12.244   9.745   2.326
 5416SOL    HW218023  12.156   9.675   2.225
 5417SOL     OW18024   9.285  13.298  14.621
 5417SOL    HW118025   9.377  13.273  14.616
 5417SOL    HW218026   9.237  13.216  14.616
 5418SOL     OW18027   1.888   5.002   2.455
 5418SOL    HW118028   1.829   5.030   2.525
 5418SOL    HW218029   1.930   5.083   2.425
 5419SOL     OW18030   8.272   5.791   3.058
 5419SOL    HW118031   8.304   5.783   2.968
 5419SOL    HW218032   8.351   5.807   3.110
 5420SOL     OW18033   3.456  12.959   6.259
 5420SOL    HW118034   3.473  12.867   6.236
 5420SOL    HW218035   3.389  12.987   6.197
 5421SOL     OW18036   9.198  13.961  13.446
 5421SOL    HW118037   9.229  13.874  13.471
 5421SOL    HW218038   9.148  13.992  13.522
 5422SOL     OW18039  14.397   4.468   7.761
 5422SOL    HW118040  14.308   4.437   7.778
 5422SOL    HW218041  14.444   4.456   7.844
 5423SOL     OW18042  14.624   7.768  14.101
 5423SOL    HW118043  14.587   7.828  14.037
 5423SOL    HW218044  14.719   7.777  14.091
 5424SOL     OW18045  10.786  11.166  11.158
 5424SOL    HW118046  10.726  11.102  11.119
 5424SOL    HW218047  10.743  11.191  11.240
 5425SOL     OW18048   0.465   5.802   9.776
 5425SOL    HW118049   0.555   5.829   9.791
 5425SOL    HW218050   0.431   5.865   9.712
 5426SOL     OW18051  14.271   9.771   5.977
 5426SOL    HW118052  14.285   9.698   6.037
 5426SOL    HW218053  14.358   9.791   5.942
 5427SOL     OW18054   8.264   0.485   2.571
 5427SOL    HW118055   8.337   0.428   2.548
 5427SOL    HW218056   8.192   0.424   2.591
 5428SOL     OW18057  14.177   7.175   6.958
 5428SOL    HW118058  14.196   7.182   6.865
 5428SOL    HW218059  14.242   7.231   7.000
 5429SOL     OW18060   1.460   9.385   1.356
 5429SOL    HW118061   1.505   9.469   1.356
 5429SOL    HW218062   1.479   9.348   1.442
 5430SOL     OW18063  12.206   0.497   5.922
 5430SOL    HW118064  12.259   0.468   5.996
 5430SOL    HW218065  12.125   0.528   5.962
 5431SOL     OW18066   7.658   9.185  12.988
 5431SOL    HW118067   7.681   9.112  13.046
 5431SOL    HW218068   7.568   9.166  12.961
 5432SOL     OW18069   9.143  13.045  10.430
 5432SOL    HW118070   9.123  13.119  10.487
 5432SOL    HW218071   9.235  13.025  10.449
 5433SOL     OW18072   1.604   8.314   1.160
 5433SOL    HW118073   1.569   8.402   1.147
 5433SOL    HW218074   1.645   8.317   1.246
 5434SOL     OW18075  10.951  10.547   5.028
 5434SOL    HW118076  10.883  10.554   5.095
 5434SOL    HW218077  10.970  10.638   5.004
 5435SOL     OW18078   8.753   5.226   9.238
 5435SOL    HW118079   8.777   5.216   9.330
 5435SOL    HW218080   8.698   5.151   9.219
 5436SOL     OW18081  14.365  14.678   8.566
 5436SOL    HW118082  14.378  14.629   8.485
 5436SOL    HW218083  14.294  14.739   8.547
 5437SOL     OW18084   1.820  12.041   2.421
 5437SOL    HW118085   1.793  11.984   2.348
 5437SOL    HW218086   1.745  12.099   2.434
 5438SOL     OW18087   7.414   7.346  14.316
 5438SOL    HW118088   7.376   7.402  14.384
 5438SOL    HW218089   7.351   7.275  14.306
 5439SOL     OW18090   3.550   2.492   5.952
 5439SOL    HW118091   3.469   2.537   5.978
 5439SOL    HW218092   3.620   2.541   5.997
 5440SOL     OW18093   9.538  10.692   4.410
 5440SOL    HW118094   9.549  10.705   4.315
 5440SOL    HW218095   9.597  10.620   4.432
 5441SOL     OW18096  11.443   7.061   9.536
 5441SOL    HW118097  11.521   7.024   9.578
 5441SOL    HW218098  11.478   7.114   9.464
 5442SOL     OW18099   1.928   2.912   0.178
 5442SOL    HW118100   2.019   2.905   0.148
 5442SOL    HW218101   1.929   2.876   0.266
 5443SOL     OW18102  13.766  12.527   7.066
 5443SOL    HW118103  13.739  12.610   7.027
 5443SOL    HW218104  13.853  12.512   7.030
 5444SOL     OW18105   1.265  11.026  12.642
 5444SOL    HW118106   1.290  11.043  12.551
 5444SOL    HW218107   1.175  11.059  12.648
 5445SOL     OW18108   7.479  12.381   7.618
 5445SOL    HW118109   7.571  12.364   7.636
 5445SOL    HW218110   7.437  12.295   7.628
 5446SOL     OW18111  13.813   1.450   2.170
 5446SOL    HW118112  13.719   1.456   2.157
 5446SOL    HW218113  13.835   1.524   2.225
 5447SOL     OW18114   5.056   4.367   3.683
 5447SOL    HW118115   5.084   4.367   3.775
 5447SOL    HW218116   5.106   4.438   3.643
 5448SOL     OW18117   6.219  14.176   6.501
 5448SOL    HW118118   6.255  14.094   6.533
 5448SOL    HW218119   6.244  14.241   6.568
 5449SOL     OW18120   4.734   4.951   7.628
 5449SOL    HW118121   4.785   4.888   7.679
 5449SOL    HW218122   4.714   5.021   7.689
 5450SOL     OW18123   4.756  14.697   1.141
 5450SOL    HW118124   4.744  14.629   1.208
 5450SOL    HW218125   4.702  14.668   1.068
 5451SOL     OW18126   4.141   0.586   1.414
 5451SOL    HW118127   4.123   0.655   1.351
 5451SOL    HW218128   4.183   0.517   1.363
 5452SOL     OW18129   4.531   7.336   0.729
 5452SOL    HW118130   4.485   7.356   0.648
 5452SOL    HW218131   4.496   7.399   0.792
 5453SOL     OW18132  11.207  13.634  12.518
 5453SOL    HW118133  11.214  13.548  12.559
 5453SOL    HW218134  11.290  13.644  12.472
 5454SOL     OW18135   8.512   7.532   6.532
 5454SOL    HW118136   8.580   7.597   6.550
 5454SOL    HW218137   8.490   7.546   6.440
 5455SOL     OW18138  11.946   6.916   8.001
 5455SOL    HW118139  11.881   6.985   7.991
 5455SOL    HW218140  11.898   6.844   8.041
 5456SOL     OW18141   3.178   0.295  12.420
 5456SOL    HW118142   3.143   0.216  12.461
 5456SOL    HW218143   3.272   0.276  12.408
 5457SOL     OW18144   6.054   6.043   0.528
 5457SOL    HW118145   5.997   6.034   0.605
 5457SOL    HW218146   6.021   5.979   0.466
 5458SOL     OW18147   1.673   6.032   5.116
 5458SOL    HW118148   1.705   5.944   5.094
 5458SOL    HW218149   1.591   6.040   5.068
 5459SOL     OW18150   4.656   4.189   3.488
 5459SOL    HW118151   4.602   4.240   3.548
 5459SOL    HW218152   4.709   4.133   3.545
 5460SOL     OW18153  14.183   6.194   2.013
 5460SOL    HW118154  14.213   6.191   2.104
 5460SOL    HW218155  14.264   6.198   1.962
 5461SOL     OW18156  10.609   4.534  10.563
 5461SOL    HW118157  10.545   4.604  10.554
 5461SOL    HW218158  10.557   4.453  10.559
 5462SOL     OW18159  12.184   7.330   2.207
 5462SOL    HW118160  12.118   7.398   2.211
 5462SOL    HW218161  12.137   7.250   2.232
 5463SOL     OW18162   7.736   0.226   1.821
 5463SOL    HW118163   7.670   0.169   1.781
 5463SOL    HW218164   7.685   0.291   1.870
 5464SOL     OW18165   6.028  10.969  10.535
 5464SOL    HW118166   5.952  10.995  10.586
 5464SOL    HW218167   6.017  11.014  10.451
 5465SOL     OW18168   3.613   1.499  12.163
 5465SOL    HW118169   3.521   1.517  12.182
 5465SOL    HW218170   3.621   1.514  12.069
 5466SOL     OW18171   7.569  12.029  10.116
 5466SOL    HW118172   7.501  11.982  10.165
 5466SOL    HW218173   7.548  12.012  10.024
 5467SOL     OW18174   4.615   8.043  14.269
 5467SOL    HW118175   4.651   8.110  14.326
 5467SOL    HW218176   4.540   8.009  14.316
 5468SOL     OW18177   6.464   7.547   2.088
 5468SOL    HW118178   6.525   7.506   2.150
 5468SOL    HW218179   6.521   7.591   2.025
 5469SOL     OW18180   5.214  12.771  10.770
 5469SOL    HW118181   5.258  12.721  10.701
 5469SOL    HW218182   5.237  12.862  10.751
 5470SOL     OW18183   6.502   8.964   9.536
 5470SOL    HW118184   6.454   9.046   9.522
 5470SOL    HW218185   6.485   8.913   9.457
 5471SOL     OW18186   8.795   8.701   2.242
 5471SOL    HW118187   8.840   8.618   2.257
 5471SOL    HW218188   8.702   8.678   2.242
 5472SOL     OW18189   4.535   2.262   0.641
 5472SOL    HW118190   4.514   2.227   0.728
 5472SOL    HW218191   4.496   2.349   0.640
 5473SOL     OW18192   6.235  10.399   2.598
 5473SOL    HW118193   6.247  10.359   2.512
 5473SOL    HW218194   6.144  10.429   2.597
 5474SOL     OW18195   9.802   9.897  10.936
 5474SOL    HW118196   9.745   9.883  11.012
 5474SOL    HW218197   9.885   9.856  10.960
 5475SOL     OW18198  11.671   6.630   0.193
 5475SOL    HW118199  11.742   6.600   0.136
 5475SOL    HW218200  11.631   6.549   0.226
 5476SOL     OW18201   2.780   0.643   8.671
 5476SOL    HW118202   2.762   0.559   8.630
 5476SOL    HW218203   2.701   0.695   8.654
 5477SOL     OW18204  11.866  11.633   9.742
 5477SOL    HW118205  11.820  11.573   9.801
 5477SOL    HW218206  11.921  11.576   9.688
 5478SOL     OW18207   3.743   4.791  10.190
 5478SOL    HW118208   3.714   4.717  10.243
 5478SOL    HW218209   3.767   4.752  10.106
 5479SOL     OW18210   4.367   0.759   7.310
 5479SOL    HW118211   4.282   0.744   7.268
 5479SOL    HW218212   4.377   0.686   7.371
 5480SOL     OW18213   6.150   4.917   3.485
 5480SOL    HW118214   6.232   4.965   3.477
 5480SOL    HW218215   6.103   4.961   3.556
 5481SOL     OW18216   3.036   8.778   6.037
 5481SOL    HW118217   3.002   8.848   6.093
 5481SOL    HW218218   2.958   8.733   6.004
 5482SOL     OW18219   6.499   6.590   9.262
 5482SOL    HW118220   6.493   6.632   9.176
 5482SOL    HW218221   6.588   6.553   9.264
 5483SOL     OW18222   9.848   8.277  12.754
 5483SOL    HW118223   9.871   8.289  12.846
 5483SOL    HW218224   9.834   8.182  12.745
 5484SOL     OW18225  13.430   4.809   5.497
 5484SOL    HW118226  13.521   4.831   5.474
 5484SOL    HW218227  13.395   4.889   5.535
 5485SOL     OW18228   4.230  14.836   6.737
 5485SOL    HW118229   4.209   0.052   6.747
 5485SOL    HW218230   4.160  14.790   6.783
 5486SOL     OW18231   2.277  14.744   3.251
 5486SOL    HW118232   2.323  14.826   3.235
 5486SOL    HW218233   2.210  14.739   3.184
 5487SOL     OW18234   2.800   5.451   9.731
 5487SOL    HW118235   2.719   5.502   9.731
 5487SOL    HW218236   2.787   5.385   9.799
 5488SOL     OW18237   3.017   0.644   5.140
 5488SOL    HW118238   3.050   0.691   5.064
 5488SOL    HW218239   3.081   0.575   5.156
 5489SOL     OW18240   9.773  12.567   8.516
 5489SOL    HW118241   9.862  12.600   8.505
 5489SOL    HW218242   9.748  12.534   8.429
 5490SOL     OW18243  11.161   3.682  10.171
 5490SOL    HW118244  11.208   3.752  10.126
 5490SOL    HW218245  11.069   3.696  10.149
 5491SOL     OW18246   4.851  14.486  10.553
 5491SOL    HW118247   4.837  14.579  10.569
 5491SOL    HW218248   4.812  14.470  10.467
 5492SOL     OW18249   1.191   6.170   7.868
 5492SOL    HW118250   1.217   6.082   7.839
 5492SOL    HW218251   1.096   6.167   7.868
 5493SOL     OW18252   6.325  10.095   1.012
 5493SOL    HW118253   6.243  10.109   0.965
 5493SOL    HW218254   6.345  10.002   0.998
 5494SOL     OW18255  12.604   4.992   5.395
 5494SOL    HW118256  12.547   5.038   5.456
 5494SOL    HW218257  12.553   4.984   5.315
 5495SOL     OW18258   9.966   1.621   5.363
 5495SOL    HW118259  10.043   1.607   5.418
 5495SOL    HW218260   9.981   1.706   5.322
 5496SOL     OW18261   4.153   8.624   6.861
 5496SOL    HW118262   4.066   8.642   6.897
 5496SOL    HW218263   4.162   8.529   6.867
 5497SOL     OW18264   3.278   5.075   3.410
 5497SOL    HW118265   3.196   5.032   3.387
 5497SOL    HW218266   3.260   5.168   3.398
 5498SOL     OW18267   9.892   2.873  11.236
 5498SOL    HW118268   9.926   2.956  11.203
 5498SOL    HW218269   9.916   2.873  11.329
 5499SOL     OW18270   4.688   5.836  13.227
 5499SOL    HW118271   4.751   5.770  13.256
 5499SOL    HW218272   4.619   5.833  13.293
 5500SOL     OW18273   3.106   2.022  11.520
 5500SOL    HW118274   3.063   1.941  11.547
 5500SOL    HW218275   3.038   2.089  11.526
 5501SOL     OW18276   1.920   8.951   7.622
 5501SOL    HW118277   1.961   8.886   7.679
 5501SOL    HW218278   1.990   8.973   7.559
 5502SOL     OW18279   3.533   8.834   0.316
 5502SOL    HW118280   3.569   8.806   0.232
 5502SOL    HW218281   3.608   8.833   0.376
 5503SOL     OW18282   5.970  11.778   6.080
 5503SOL    HW118283   6.000  11.824   6.002
 5503SOL    HW218284   5.926  11.700   6.047
 5504SOL     OW18285   0.489   4.014  13.318
 5504SOL    HW118286   0.550   3.944  13.343
 5504SOL    HW218287   0.472   3.998  13.225
 5505SOL     OW18288   4.769  14.079  10.567
 5505SOL    HW118289   4.778  14.001  10.623
 5505SOL    HW218290   4.809  14.054  10.484
 5506SOL     OW18291   3.700   1.421   3.138
 5506SOL    HW118292   3.701   1.440   3.232
 5506SOL    HW218293   3.686   1.506   3.097
 5507SOL     OW18294  13.907   0.149   4.712
 5507SOL    HW118295  13.832   0.099   4.744
 5507SOL    HW218296  13.881   0.181   4.626
 5508SOL     OW18297   5.770   0.362  14.291
 5508SOL    HW118298   5.813   0.282  14.261
 5508SOL    HW218299   5.679   0.338  14.302
 5509SOL     OW18300   8.900  13.356   0.290
 5509SOL    HW118301   8.866  13.445   0.278
 5509SOL    HW218302   8.993  13.362   0.267
 5510SOL     OW18303  11.527   5.868   3.952
 5510SOL    HW118304  11.581   5.940   3.919
 5510SOL    HW218305  11.548   5.794   3.895
 5511SOL     OW18306  10.395  14.124   1.172
 5511SOL    HW118307  10.429  14.181   1.102
 5511SOL    HW218308  10.340  14.182   1.225
 5512SOL     OW18309  14.590   3.542   4.723
 5512SOL    HW118310  14.564   3.601   4.652
 5512SOL    HW218311  14.601   3.599   4.799
 5513SOL     OW18312   3.597  10.426  11.093
 5513SOL    HW118313   3.503  10.412  11.107
 5513SOL    HW218314   3.608  10.521  11.094
 5514SOL     OW18315   5.557   4.488  13.273
 5514SOL    HW118316   5.568   4.582  13.284
 5514SOL    HW218317   5.591   4.450  13.354
 5515SOL     OW18318   6.579   4.787  13.048
 5515SOL    HW118319   6.510   4.748  13.102
 5515SOL    HW218320   6.536   4.805  12.964
 5516SOL     OW18321   9.767   8.076  11.549
 5516SOL    HW118322   9.848   8.062  11.598
 5516SOL    HW218323   9.756   7.995  11.499
 5517SOL     OW18324   6.386   5.207  14.767
 5517SOL    HW118325   6.404   5.208  14.861
 5517SOL    HW218326   6.327   5.281  14.753
 5518SOL     OW18327   8.116   1.067   6.272
 5518SOL    HW118328   8.141   1.062   6.364
 5518SOL    HW218329   8.082   0.980   6.251
 5519SOL     OW18330   7.316  10.488   8.482
 5519SOL    HW118331   7.380  10.506   8.550
 5519SOL    HW218332   7.240  10.454   8.529
 5520SOL     OW18333   5.979   1.199  14.784
 5520SOL    HW118334   6.011   1.287  14.807
 5520SOL    HW218335   6.057   1.152  14.756
 5521SOL     OW18336   8.401   4.630   4.857
 5521SOL    HW118337   8.424   4.625   4.950
 5521SOL    HW218338   8.432   4.548   4.820
 5522SOL     OW18339  12.549   6.249   9.115
 5522SOL    HW118340  12.556   6.154   9.104
 5522SOL    HW218341  12.631   6.283   9.078
 5523SOL     OW18342   3.523   9.849  12.711
 5523SOL    HW118343   3.434   9.852  12.748
 5523SOL    HW218344   3.567   9.780  12.760
 5524SOL     OW18345  13.412   6.265  13.571
 5524SOL    HW118346  13.327   6.225  13.592
 5524SOL    HW218347  13.457   6.199  13.519
 5525SOL     OW18348   8.722  13.110   1.636
 5525SOL    HW118349   8.696  13.197   1.666
 5525SOL    HW218350   8.790  13.125   1.571
 5526SOL     OW18351   9.212  12.109   8.061
 5526SOL    HW118352   9.173  12.043   8.118
 5526SOL    HW218353   9.226  12.185   8.117
 5527SOL     OW18354   8.398   5.748   3.897
 5527SOL    HW118355   8.433   5.832   3.929
 5527SOL    HW218356   8.415   5.686   3.968
 5528SOL     OW18357   9.294   0.224  13.582
 5528SOL    HW118358   9.365   0.253  13.524
 5528SOL    HW218359   9.234   0.176  13.525
 5529SOL     OW18360   3.891  11.316  10.726
 5529SOL    HW118361   3.827  11.354  10.666
 5529SOL    HW218362   3.860  11.339  10.813
 5530SOL     OW18363   4.216   1.552   4.891
 5530SOL    HW118364   4.142   1.540   4.831
 5530SOL    HW218365   4.178   1.594   4.968
 5531SOL     OW18366  14.684   6.432   5.969
 5531SOL    HW118367  14.740   6.500   5.932
 5531SOL    HW218368  14.622   6.479   6.025
 5532SOL     OW18369  10.923   8.303   5.222
 5532SOL    HW118370  11.012   8.298   5.258
 5532SOL    HW218371  10.930   8.263   5.135
 5533SOL     OW18372  10.036  14.443   2.456
 5533SOL    HW118373  10.004  14.377   2.518
 5533SOL    HW218374  10.016  14.406   2.370
 5534SOL     OW18375  14.696  13.387   0.750
 5534SOL    HW118376  14.659  13.472   0.725
 5534SOL    HW218377  14.784  13.408   0.783
 5535SOL     OW18378   6.176  14.342   9.461
 5535SOL    HW118379   6.094  14.390   9.469
 5535SOL    HW218380   6.151  14.250   9.465
 5536SOL     OW18381   5.166  10.231  13.694
 5536SOL    HW118382   5.150  10.215  13.786
 5536SOL    HW218383   5.096  10.184  13.648
 5537SOL     OW18384  14.687   7.324  10.084
 5537SOL    HW118385  14.679   7.356   9.994
 5537SOL    HW218386  14.604   7.279  10.101
 5538SOL     OW18387  14.666   3.157  13.669
 5538SOL    HW118388  14.706   3.239  13.699
 5538SOL    HW218389  14.701   3.143  13.581
 5539SOL     OW18390   9.077   6.058  11.872
 5539SOL    HW118391   9.160   6.030  11.836
 5539SOL    HW218392   9.065   6.147  11.839
 5540SOL     OW18393   8.383   3.607  10.802
 5540SOL    HW118394   8.325   3.537  10.772
 5540SOL    HW218395   8.327   3.685  10.804
 5541SOL     OW18396   7.362  10.738   0.757
 5541SOL    HW118397   7.398  10.725   0.845
 5541SOL    HW218398   7.294  10.804   0.768
 5542SOL     OW18399   6.456   9.616   5.485
 5542SOL    HW118400   6.500   9.592   5.404
 5542SOL    HW218401   6.528   9.633   5.547
 5543SOL     OW18402   3.102   0.450  12.950
 5543SOL    HW118403   3.174   0.480  12.895
 5543SOL    HW218404   3.032   0.428  12.890
 5544SOL     OW18405   2.290   4.298   9.878
 5544SOL    HW118406   2.303   4.277   9.970
 5544SOL    HW218407   2.341   4.232   9.831
 5545SOL     OW18408  11.788  10.037   8.185
 5545SOL    HW118409  11.734   9.960   8.164
 5545SOL    HW218410  11.725  10.107   8.202
 5546SOL     OW18411   6.036   5.363  12.158
 5546SOL    HW118412   6.097   5.347  12.086
 5546SOL    HW218413   5.949   5.354  12.118
 5547SOL     OW18414   9.466  10.851   4.686
 5547SOL    HW118415   9.373  10.872   4.686
 5547SOL    HW218416   9.479  10.800   4.766
 5548SOL     OW18417  10.806   1.271   1.228
 5548SOL    HW118418  10.744   1.243   1.296
 5548SOL    HW218419  10.865   1.332   1.273
 5549SOL     OW18420   4.368   4.465   9.459
 5549SOL    HW118421   4.444   4.430   9.413
 5549SOL    HW218422   4.405   4.508   9.536
 5550SOL     OW18423   2.075   9.942   6.969
 5550SOL    HW118424   2.128   9.866   6.946
 5550SOL    HW218425   2.009   9.948   6.900
 5551SOL     OW18426  10.887   7.903   3.187
 5551SOL    HW118427  10.983   7.911   3.190
 5551SOL    HW218428  10.855   7.983   3.229
 5552SOL     OW18429  12.295  11.794   7.183
 5552SOL    HW118430  12.380  11.758   7.159
 5552SOL    HW218431  12.297  11.884   7.151
 5553SOL     OW18432   7.209   2.234   0.200
 5553SOL    HW118433   7.291   2.186   0.209
 5553SOL    HW218434   7.141   2.167   0.214
 5554SOL     OW18435  13.737   8.875  14.686
 5554SOL    HW118436  13.739   8.822  14.606
 5554SOL    HW218437  13.817   8.928  14.681
 5555SOL     OW18438   6.137  13.692   7.380
 5555SOL    HW118439   6.115  13.716   7.290
 5555SOL    HW218440   6.057  13.711   7.430
 5556SOL     OW18441   3.207   7.955   0.421
 5556SOL    HW118442   3.229   8.023   0.484
 5556SOL    HW218443   3.288   7.906   0.409
 5557SOL     OW18444  14.547  10.909   5.321
 5557SOL    HW118445  14.597  10.981   5.282
 5557SOL    HW218446  14.495  10.874   5.248
 5558SOL     OW18447   5.987   8.997   5.415
 5558SOL    HW118448   6.019   9.017   5.502
 5558SOL    HW218449   6.046   9.044   5.356
 5559SOL     OW18450   5.690   6.731   2.972
 5559SOL    HW118451   5.661   6.754   2.884
 5559SOL    HW218452   5.641   6.790   3.029
 5560SOL     OW18453   7.096   1.453  12.294
 5560SOL    HW118454   7.110   1.498  12.210
 5560SOL    HW218455   7.012   1.488  12.325
 5561SOL     OW18456  12.280  14.491  12.660
 5561SOL    HW118457  12.194  14.495  12.617
 5561SOL    HW218458  12.337  14.450  12.595
 5562SOL     OW18459   1.492   4.252  10.963
 5562SOL    HW118460   1.489   4.321  11.029
 5562SOL    HW218461   1.414   4.265  10.911
 5563SOL     OW18462   8.607   0.076   8.141
 5563SOL    HW118463   8.631   0.026   8.064
 5563SOL    HW218464   8.512   0.078   8.141
 5564SOL     OW18465   0.525  10.432   4.804
 5564SOL    HW118466   0.439  10.397   4.825
 5564SOL    HW218467   0.571  10.436   4.888
 5565SOL     OW18468  13.364   9.775  13.245
 5565SOL    HW118469  13.310   9.854  13.242
 5565SOL    HW218470  13.417   9.779  13.165
 5566SOL     OW18471   8.880   4.315   9.507
 5566SOL    HW118472   8.809   4.372   9.476
 5566SOL    HW218473   8.836   4.245   9.554
 5567SOL     OW18474   0.075   5.686   0.142
 5567SOL    HW118475   0.130   5.763   0.155
 5567SOL    HW218476   0.112   5.642   0.066
 5568SOL     OW18477   7.201  10.644  12.788
 5568SOL    HW118478   7.153  10.709  12.837
 5568SOL    HW218479   7.141  10.616  12.719
 5569SOL     OW18480  13.121  12.296   0.120
 5569SOL    HW118481  13.052  12.302   0.187
 5569SOL    HW218482  13.074  12.299   0.037
 5570SOL     OW18483  12.208   7.861   0.768
 5570SOL    HW118484  12.207   7.957   0.776
 5570SOL    HW218485  12.250   7.844   0.684
 5571SOL     OW18486   2.231  11.066   9.819
 5571SOL    HW118487   2.230  11.160   9.798
 5571SOL    HW218488   2.307  11.056   9.877
 5572SOL     OW18489   3.972  11.762  13.859
 5572SOL    HW118490   3.953  11.843  13.811
 5572SOL    HW218491   3.913  11.697  13.821
 5573SOL     OW18492  10.600  11.329   5.096
 5573SOL    HW118493  10.589  11.249   5.045
 5573SOL    HW218494  10.666  11.306   5.162
 5574SOL     OW18495   3.712   5.497   0.939
 5574SOL    HW118496   3.759   5.428   0.891
 5574SOL    HW218497   3.623   5.494   0.903
 5575SOL     OW18498  10.517   5.593   6.412
 5575SOL    HW118499  10.524   5.498   6.418
 5575SOL    HW218500  10.567   5.625   6.488
 5576SOL     OW18501   0.863   6.714  12.603
 5576SOL    HW118502   0.810   6.660  12.662
 5576SOL    HW218503   0.809   6.790  12.585
 5577SOL     OW18504   1.529  12.788  14.495
 5577SOL    HW118505   1.487  12.730  14.558
 5577SOL    HW218506   1.621  12.759  14.494
 5578SOL     OW18507   1.002  13.129   8.120
 5578SOL    HW118508   1.063  13.199   8.098
 5578SOL    HW218509   0.981  13.088   8.036
 5579SOL     OW18510   5.052  10.648   8.162
 5579SOL    HW118511   5.057  10.576   8.224
 5579SOL    HW218512   4.987  10.708   8.200
 5580SOL     OW18513  13.743   0.209   4.504
 5580SOL    HW118514  13.692   0.282   4.540
 5580SOL    HW218515  13.701   0.131   4.540
 5581SOL     OW18516  11.513   3.185  13.889
 5581SOL    HW118517  11.494   3.249  13.820
 5581SOL    HW218518  11.605   3.162  13.874
 5582SOL     OW18519   1.418   0.292  14.310
 5582SOL    HW118520   1.483   0.354  14.277
 5582SOL    HW218521   1.338   0.313  14.262
 5583SOL     OW18522  12.355   1.841   7.311
 5583SOL    HW118523  12.318   1.839   7.222
 5583SOL    HW218524  12.302   1.779   7.360
 5584SOL     OW18525   5.445   3.036   8.926
 5584SOL    HW118526   5.401   3.120   8.934
 5584SOL    HW218527   5.397   2.991   8.855
 5585SOL     OW18528   0.411   8.902   1.616
 5585SOL    HW118529   0.354   8.976   1.597
 5585SOL    HW218530   0.472   8.898   1.543
 5586SOL     OW18531  11.688   6.132   4.534
 5586SOL    HW118532  11.625   6.193   4.574
 5586SOL    HW218533  11.707   6.171   4.448
 5587SOL     OW18534   7.657   6.033   0.236
 5587SOL    HW118535   7.571   6.065   0.209
 5587SOL    HW218536   7.711   6.041   0.157
 5588SOL     OW18537   3.956   1.513  12.051
 5588SOL    HW118538   3.904   1.443  12.089
 5588SOL    HW218539   3.913   1.593  12.079
 5589SOL     OW18540   1.592  10.086  11.857
 5589SOL    HW118541   1.680  10.114  11.832
 5589SOL    HW218542   1.589   9.994  11.830
 5590SOL     OW18543   7.216  13.504   8.398
 5590SOL    HW118544   7.212  13.451   8.477
 5590SOL    HW218545   7.259  13.585   8.425
 5591SOL     OW18546   9.705  11.227   2.400
 5591SOL    HW118547   9.792  11.189   2.386
 5591SOL    HW218548   9.718  11.321   2.394
 5592SOL     OW18549  13.650  10.993   9.543
 5592SOL    HW118550  13.671  10.975   9.451
 5592SOL    HW218551  13.576  11.053   9.540
 5593SOL     OW18552  14.340   2.196   3.251
 5593SOL    HW118553  14.274   2.208   3.182
 5593SOL    HW218554  14.289   2.177   3.329
 5594SOL     OW18555   3.108   4.461   4.881
 5594SOL    HW118556   3.091   4.405   4.805
 5594SOL    HW218557   3.024   4.504   4.898
 5595SOL     OW18558   0.884  14.354   5.026
 5595SOL    HW118559   0.944  14.362   5.100
 5595SOL    HW218560   0.797  14.371   5.063
 5596SOL     OW18561   6.992  10.157   8.947
 5596SOL    HW118562   7.063  10.221   8.945
 5596SOL    HW218563   7.036  10.072   8.950
 5597SOL     OW18564   9.618   5.197   1.445
 5597SOL    HW118565   9.568   5.158   1.374
 5597SOL    HW218566   9.635   5.124   1.505
 5598SOL     OW18567  10.581  11.854   4.566
 5598SOL    HW118568  10.604  11.775   4.615
 5598SOL    HW218569  10.573  11.825   4.476
 5599SOL     OW18570   5.434   3.689   7.959
 5599SOL    HW118571   5.522   3.712   7.990
 5599SOL    HW218572   5.377   3.758   7.993
 5600SOL     OW18573   0.886  10.242  11.778
 5600SOL    HW118574   0.944  10.215  11.848
 5600SOL    HW218575   0.808  10.187  11.788
 5601SOL     OW18576  14.044   7.843   5.920
 5601SOL    HW118577  13.985   7.768   5.924
 5601SOL    HW218578  13.988   7.917   5.899
 5602SOL     OW18579   0.724  12.358   3.846
 5602SOL    HW118580   0.713  12.428   3.909
 5602SOL    HW218581   0.636  12.342   3.812
 5603SOL     OW18582   8.810  14.559   0.061
 5603SOL    HW118583   8.873  14.488   0.045
 5603SOL    HW218584   8.738  14.541   0.000
 5604SOL     OW18585   0.478  14.261  13.032
 5604SOL    HW118586   0.419  14.317  13.083
 5604SOL    HW218587   0.478  14.300  12.945
 5605SOL     OW18588   9.028   4.151   0.991
 5605SOL    HW118589   8.969   4.118   1.058
 5605SOL    HW218590   9.064   4.072   0.949
 5606SOL     OW18591   9.082   8.440   5.548
 5606SOL    HW118592   9.092   8.416   5.456
 5606SOL    HW218593   8.996   8.480   5.554
 5607SOL     OW18594   5.100  14.738  14.144
 5607SOL    HW118595   5.190  14.704  14.139
 5607SOL    HW218596   5.056  14.699  14.069
 5608SOL     OW18597   3.201  13.214   7.616
 5608SOL    HW118598   3.151  13.276   7.670
 5608SOL    HW218599   3.281  13.199   7.666
 5609SOL     OW18600   3.403  13.085   7.791
 5609SOL    HW118601   3.407  13.021   7.720
 5609SOL    HW218602   3.483  13.137   7.783
 5610SOL     OW18603   1.895   0.366   1.213
 5610SOL    HW118604   1.818   0.397   1.166
 5610SOL    HW218605   1.918   0.283   1.169
 5611SOL     OW18606   0.448   7.132   0.102
 5611SOL    HW118607   0.474   7.224   0.110
 5611SOL    HW218608   0.438   7.102   0.192
 5612SOL     OW18609  13.548   0.930  13.955
 5612SOL    HW118610  13.475   0.988  13.977
 5612SOL    HW218611  13.578   0.961  13.869
 5613SOL     OW18612   9.575   6.873  10.386
 5613SOL    HW118613   9.594   6.857  10.293
 5613SOL    HW218614   9.584   6.968  10.396
 5614SOL     OW18615   5.613  11.820  13.475
 5614SOL    HW118616   5.518  11.828  13.466
 5614SOL    HW218617   5.640  11.900  13.520
 5615SOL     OW18618  12.359   1.933   5.029
 5615SOL    HW118619  12.275   1.977   5.014
 5615SOL    HW218620  12.340   1.840   5.017
 5616SOL     OW18621   4.586   4.146   2.271
 5616SOL    HW118622   4.578   4.051   2.263
 5616SOL    HW218623   4.605   4.160   2.364
 5617SOL     OW18624   1.577   4.975   2.794
 5617SOL    HW118625   1.624   5.020   2.723
 5617SOL    HW218626   1.487   4.969   2.763
 5618SOL     OW18627   7.068  12.168   5.583
 5618SOL    HW118628   7.072  12.099   5.649
 5618SOL    HW218629   7.059  12.121   5.500
 5619SOL     OW18630   2.704   4.544   3.848
 5619SOL    HW118631   2.736   4.473   3.903
 5619SOL    HW218632   2.734   4.624   3.892
 5620SOL     OW18633  10.023   2.870  12.483
 5620SOL    HW118634  10.115   2.897  12.489
 5620SOL    HW218635  10.015   2.834  12.395
 5621SOL     OW18636  11.116   9.174   2.583
 5621SOL    HW118637  11.165   9.099   2.550
 5621SOL    HW218638  11.176   9.218   2.642
 5622SOL     OW18639   3.864   0.789  12.605
 5622SOL    HW118640   3.894   0.872  12.642
 5622SOL    HW218641   3.942   0.733  12.608
 5623SOL     OW18642   0.893   2.926   6.276
 5623SOL    HW118643   0.954   2.984   6.321
 5623SOL    HW218644   0.810   2.973   6.275
 5624SOL     OW18645   2.040   3.786   8.243
 5624SOL    HW118646   1.990   3.725   8.297
 5624SOL    HW218647   2.065   3.734   8.166
 5625SOL     OW18648   0.620   1.800   3.795
 5625SOL    HW118649   0.582   1.887   3.779
 5625SOL    HW218650   0.691   1.793   3.730
 5626SOL     OW18651  12.281  13.648   0.219
 5626SOL    HW118652  12.257  13.604   0.301
 5626SOL    HW218653  12.367  13.686   0.235
 5627SOL     OW18654   2.093   9.943  14.570
 5627SOL    HW118655   2.147   9.948  14.649
 5627SOL    HW218656   2.014   9.898  14.599
 5628SOL     OW18657   7.526   3.047  11.836
 5628SOL    HW118658   7.499   3.014  11.922
 5628SOL    HW218659   7.495   2.982  11.774
 5629SOL     OW18660   2.723   5.466   6.195
 5629SOL    HW118661   2.632   5.483   6.218
 5629SOL    HW218662   2.757   5.552   6.168
 5630SOL     OW18663   3.122  11.903   1.692
 5630SOL    HW118664   3.117  11.811   1.718
 5630SOL    HW218665   3.074  11.907   1.609
 5631SOL     OW18666  11.972  13.906   5.340
 5631SOL    HW118667  11.957  13.986   5.290
 5631SOL    HW218668  11.901  13.904   5.404
 5632SOL     OW18669  10.348  13.246   5.937
 5632SOL    HW118670  10.440  13.259   5.915
 5632SOL    HW218671  10.335  13.151   5.930
 5633SOL     OW18672  13.348   3.140   8.434
 5633SOL    HW118673  13.369   3.050   8.459
 5633SOL    HW218674  13.432   3.176   8.403
 5634SOL     OW18675   0.900  13.807   4.602
 5634SOL    HW118676   0.995  13.819   4.604
 5634SOL    HW218677   0.865  13.890   4.635
 5635SOL     OW18678  12.961  13.720   3.745
 5635SOL    HW118679  13.050  13.686   3.762
 5635SOL    HW218680  12.964  13.810   3.777
 5636SOL     OW18681  11.723  14.361   3.851
 5636SOL    HW118682  11.762  14.444   3.823
 5636SOL    HW218683  11.635  14.361   3.813
 5637SOL     OW18684   7.518  12.867   0.363
 5637SOL    HW118685   7.527  12.873   0.459
 5637SOL    HW218686   7.438  12.818   0.349
 5638SOL     OW18687  14.012   5.332  10.771
 5638SOL    HW118688  13.922   5.330  10.736
 5638SOL    HW218689  14.017   5.255  10.827
 5639SOL     OW18690  13.816  11.130  12.404
 5639SOL    HW118691  13.763  11.103  12.479
 5639SOL    HW218692  13.882  11.188  12.442
 5640SOL     OW18693  11.119   1.789   8.119
 5640SOL    HW118694  11.146   1.759   8.032
 5640SOL    HW218695  11.200   1.794   8.170
 5641SOL     OW18696   4.731  11.163   5.459
 5641SOL    HW118697   4.665  11.134   5.396
 5641SOL    HW218698   4.706  11.253   5.479
 5642SOL     OW18699  14.392   4.633   9.919
 5642SOL    HW118700  14.304   4.669   9.909
 5642SOL    HW218701  14.449   4.710   9.927
 5643SOL     OW18702   3.124   6.853   3.440
 5643SOL    HW118703   3.082   6.854   3.526
 5643SOL    HW218704   3.185   6.926   3.442
 5644SOL     OW18705   4.296  12.835   7.140
 5644SOL    HW118706   4.253  12.756   7.108
 5644SOL    HW218707   4.319  12.815   7.230
 5645SOL     OW18708   9.385   5.706   1.145
 5645SOL    HW118709   9.461   5.732   1.196
 5645SOL    HW218710   9.396   5.612   1.130
 5646SOL     OW18711  12.713   1.856   6.105
 5646SOL    HW118712  12.761   1.911   6.167
 5646SOL    HW218713  12.688   1.780   6.156
 5647SOL     OW18714   5.558  11.733   8.764
 5647SOL    HW118715   5.585  11.658   8.818
 5647SOL    HW218716   5.585  11.709   8.675
 5648SOL     OW18717  12.113   5.958   0.188
 5648SOL    HW118718  12.089   5.946   0.096
 5648SOL    HW218719  12.202   5.924   0.194
 5649SOL     OW18720   5.234   9.829   1.445
 5649SOL    HW118721   5.298   9.898   1.458
 5649SOL    HW218722   5.195   9.848   1.360
 5650SOL     OW18723   7.876   2.225  11.738
 5650SOL    HW118724   7.917   2.216  11.824
 5650SOL    HW218725   7.796   2.173  11.744
 5651SOL     OW18726   3.803  13.693   4.669
 5651SOL    HW118727   3.867  13.746   4.716
 5651SOL    HW218728   3.778  13.746   4.593
 5652SOL     OW18729   1.879   0.707  10.893
 5652SOL    HW118730   1.960   0.756  10.878
 5652SOL    HW218731   1.820   0.737  10.823
 5653SOL     OW18732   1.020  13.869   7.459
 5653SOL    HW118733   1.038  13.834   7.546
 5653SOL    HW218734   0.955  13.811   7.422
 5654SOL     OW18735   1.428   6.199   1.210
 5654SOL    HW118736   1.448   6.257   1.136
 5654SOL    HW218737   1.400   6.117   1.169
 5655SOL     OW18738  10.687   3.334  13.387
 5655SOL    HW118739  10.777   3.303  13.401
 5655SOL    HW218740  10.632   3.264  13.420
 5656SOL     OW18741   8.635  10.387  14.831
 5656SOL    HW118742   8.662  10.302  14.866
 5656SOL    HW218743   8.717  10.430  14.806
 5657SOL     OW18744   1.777  12.681  12.318
 5657SOL    HW118745   1.806  12.597  12.353
 5657SOL    HW218746   1.750  12.663  12.228
 5658SOL     OW18747  14.467  10.100   9.452
 5658SOL    HW118748  14.552  10.142   9.438
 5658SOL    HW218749  14.484  10.031   9.516
 5659SOL     OW18750   5.927   2.479   0.974
 5659SOL    HW118751   5.995   2.544   0.996
 5659SOL    HW218752   5.969   2.395   0.991
 5660SOL     OW18753  14.210   9.643   9.736
 5660SOL    HW118754  14.210   9.715   9.672
 5660SOL    HW218755  14.139   9.586   9.707
 5661SOL     OW18756  12.890   7.091   5.021
 5661SOL    HW118757  12.828   7.023   4.995
 5661SOL    HW218758  12.908   7.141   4.941
 5662SOL     OW18759   9.425   8.593   5.561
 5662SOL    HW118760   9.444   8.683   5.535
 5662SOL    HW218761   9.478   8.578   5.639
 5663SOL     OW18762   5.081   5.457   2.577
 5663SOL    HW118763   4.991   5.491   2.577
 5663SOL    HW218764   5.084   5.402   2.498
 5664SOL     OW18765  12.234   1.639   0.024
 5664SOL    HW118766  12.291   1.574   0.064
 5664SOL    HW218767  12.230   1.710   0.089
 5665SOL     OW18768   9.674   5.087   9.748
 5665SOL    HW118769   9.647   5.002   9.714
 5665SOL    HW218770   9.768   5.092   9.730
 5666SOL     OW18771   7.129  11.421  14.574
 5666SOL    HW118772   7.148  11.364  14.649
 5666SOL    HW218773   7.108  11.361  14.503
 5667SOL     OW18774  11.812  10.653   3.517
 5667SOL    HW118775  11.812  10.564   3.553
 5667SOL    HW218776  11.720  10.679   3.517
 5668SOL     OW18777   5.800   1.429  14.077
 5668SOL    HW118778   5.885   1.451  14.114
 5668SOL    HW218779   5.813   1.344  14.035
 5669SOL     OW18780   4.426   5.572   3.680
 5669SOL    HW118781   4.517   5.602   3.679
 5669SOL    HW218782   4.414   5.530   3.595
 5670SOL     OW18783  11.722   3.986   4.497
 5670SOL    HW118784  11.646   3.995   4.554
 5670SOL    HW218785  11.757   4.075   4.489
 5671SOL     OW18786  12.807  12.136   2.199
 5671SOL    HW118787  12.749  12.169   2.131
 5671SOL    HW218788  12.816  12.209   2.260
 5672SOL     OW18789   3.045   1.778  11.171
 5672SOL    HW118790   3.085   1.843  11.113
 5672SOL    HW218791   3.062   1.695  11.128
 5673SOL     OW18792  11.900   0.207   0.998
 5673SOL    HW118793  11.940   0.169   0.920
 5673SOL    HW218794  11.810   0.226   0.971
 5674SOL     OW18795   0.530  12.079   4.844
 5674SOL    HW118796   0.514  12.135   4.768
 5674SOL    HW218797   0.494  12.128   4.918
 5675SOL     OW18798  12.066  13.759  14.105
 5675SOL    HW118799  12.011  13.703  14.050
 5675SOL    HW218800  12.148  13.766  14.057
 5676SOL     OW18801  10.734  10.097   1.940
 5676SOL    HW118802  10.693  10.137   2.016
 5676SOL    HW218803  10.797  10.034   1.977
 5677SOL     OW18804  10.782  11.839   7.722
 5677SOL    HW118805  10.731  11.913   7.688
 5677SOL    HW218806  10.868  11.876   7.740
 5678SOL     OW18807  13.656   7.951   6.384
 5678SOL    HW118808  13.661   7.890   6.310
 5678SOL    HW218809  13.739   7.999   6.381
 5679SOL     OW18810  14.063   2.323   9.636
 5679SOL    HW118811  14.039   2.254   9.698
 5679SOL    HW218812  13.981   2.368   9.617
 5680SOL     OW18813   5.167   3.615   7.914
 5680SOL    HW118814   5.222   3.692   7.901
 5680SOL    HW218815   5.106   3.641   7.984
 5681SOL     OW18816   0.283   7.104  14.473
 5681SOL    HW118817   0.356   7.045  14.492
 5681SOL    HW218818   0.225   7.052  14.417
 5682SOL     OW18819   1.405  10.945   2.092
 5682SOL    HW118820   1.461  10.998   2.148
 5682SOL    HW218821   1.420  10.855   2.120
 5683SOL     OW18822   5.969   2.113   1.348
 5683SOL    HW118823   5.967   2.209   1.344
 5683SOL    HW218824   5.898   2.085   1.291
 5684SOL     OW18825   7.148   6.693   4.259
 5684SOL    HW118826   7.073   6.637   4.241
 5684SOL    HW218827   7.110   6.770   4.303
 5685SOL     OW18828   9.046  10.142   4.276
 5685SOL    HW118829   8.997  10.075   4.228
 5685SOL    HW218830   9.094  10.093   4.343
 5686SOL     OW18831  13.603   8.556   1.823
 5686SOL    HW118832  13.612   8.603   1.906
 5686SOL    HW218833  13.653   8.475   1.836
 5687SOL     OW18834   2.948   0.837   1.605
 5687SOL    HW118835   2.945   0.811   1.513
 5687SOL    HW218836   3.030   0.886   1.614
 5688SOL     OW18837   6.124  13.234  10.874
 5688SOL    HW118838   6.105  13.207  10.964
 5688SOL    HW218839   6.185  13.167  10.841
 5689SOL     OW18840   1.001  11.434   6.173
 5689SOL    HW118841   1.000  11.339   6.163
 5689SOL    HW218842   0.909  11.459   6.169
 5690SOL     OW18843  12.038   4.770   4.111
 5690SOL    HW118844  11.949   4.734   4.115
 5690SOL    HW218845  12.087   4.708   4.058
 5691SOL     OW18846  11.811   6.906   5.206
 5691SOL    HW118847  11.768   6.836   5.158
 5691SOL    HW218848  11.763   6.985   5.181
 5692SOL     OW18849   7.966  14.273   4.091
 5692SOL    HW118850   8.019  14.246   4.016
 5692SOL    HW218851   8.001  14.358   4.116
 5693SOL     OW18852   0.001  10.540   2.646
 5693SOL    HW118853  14.837  10.556   2.731
 5693SOL    HW218854  14.856  10.449   2.625
 5694SOL     OW18855  13.500   4.109   0.697
 5694SOL    HW118856  13.460   4.175   0.754
 5694SOL    HW218857  13.432   4.090   0.632
 5695SOL     OW18858  13.564   1.797   7.891
 5695SOL    HW118859  13.600   1.861   7.952
 5695SOL    HW218860  13.598   1.823   7.806
 5696SOL     OW18861   4.804   5.917   5.323
 5696SOL    HW118862   4.833   6.007   5.303
 5696SOL    HW218863   4.862   5.861   5.271
 5697SOL     OW18864  11.508   1.171   5.599
 5697SOL    HW118865  11.465   1.155   5.683
 5697SOL    HW218866  11.589   1.216   5.621
 5698SOL     OW18867  14.676   5.558   6.815
 5698SOL    HW118868  14.641   5.639   6.852
 5698SOL    HW218869  14.716   5.584   6.732
 5699SOL     OW18870   4.422   4.521   9.140
 5699SOL    HW118871   4.479   4.448   9.167
 5699SOL    HW218872   4.445   4.535   9.048
 5700SOL     OW18873   0.853   5.585  12.536
 5700SOL    HW118874   0.875   5.552  12.449
 5700SOL    HW218875   0.778   5.643  12.522
 5701SOL     OW18876  14.563   4.927   9.493
 5701SOL    HW118877  14.488   4.870   9.507
 5701SOL    HW218878  14.530   5.015   9.513
 5702SOL     OW18879  13.726   7.215  12.027
 5702SOL    HW118880  13.719   7.125  12.059
 5702SOL    HW218881  13.650   7.259  12.065
 5703SOL     OW18882   4.232  10.090  10.985
 5703SOL    HW118883   4.253  10.064  11.074
 5703SOL    HW218884   4.229  10.185  10.987
 5704SOL     OW18885   4.794   9.831  10.747
 5704SOL    HW118886   4.883   9.800  10.762
 5704SOL    HW218887   4.768   9.870  10.831
 5705SOL     OW18888  14.401   8.418   9.192
 5705SOL    HW118889  14.353   8.474   9.253
 5705SOL    HW218890  14.475   8.471   9.163
 5706SOL     OW18891   2.628   9.426   9.661
 5706SOL    HW118892   2.603   9.437   9.570
 5706SOL    HW218893   2.723   9.437   9.662
 5707SOL     OW18894  10.171   4.519   9.457
 5707SOL    HW118895  10.166   4.430   9.491
 5707SOL    HW218896  10.247   4.558   9.501
 5708SOL     OW18897  10.389   0.099   4.499
 5708SOL    HW118898  10.324   0.129   4.564
 5708SOL    HW218899  10.349   0.021   4.460
 5709SOL     OW18900   3.525  13.625  14.581
 5709SOL    HW118901   3.568  13.688  14.639
 5709SOL    HW218902   3.449  13.672  14.547
 5710SOL     OW18903   3.147   3.911   4.033
 5710SOL    HW118904   3.242   3.909   4.016
 5710SOL    HW218905   3.119   3.996   3.999
 5711SOL     OW18906   3.025   7.520   2.479
 5711SOL    HW118907   3.083   7.524   2.402
 5711SOL    HW218908   2.948   7.570   2.454
 5712SOL     OW18909   9.423   6.810   5.940
 5712SOL    HW118910   9.436   6.884   5.881
 5712SOL    HW218911   9.510   6.787   5.971
 5713SOL     OW18912  11.535   7.060   0.436
 5713SOL    HW118913  11.460   7.119   0.434
 5713SOL    HW218914  11.524   7.005   0.358
 5714SOL     OW18915   1.486   4.426   3.193
 5714SOL    HW118916   1.403   4.384   3.216
 5714SOL    HW218917   1.461   4.497   3.134
 5715SOL     OW18918   8.555   7.304   5.514
 5715SOL    HW118919   8.461   7.302   5.528
 5715SOL    HW218920   8.593   7.279   5.599
 5716SOL     OW18921   7.363   6.926   4.245
 5716SOL    HW118922   7.361   6.917   4.341
 5716SOL    HW218923   7.292   6.988   4.227
 5717SOL     OW18924  14.619  11.303   7.394
 5717SOL    HW118925  14.683  11.231   7.390
 5717SOL    HW218926  14.665  11.377   7.354
 5718SOL     OW18927   9.521   1.224   9.810
 5718SOL    HW118928   9.585   1.197   9.744
 5718SOL    HW218929   9.557   1.192   9.893
 5719SOL     OW18930  10.136   5.155   9.752
 5719SOL    HW118931  10.205   5.163   9.817
 5719SOL    HW218932  10.153   5.224   9.689
 5720SOL     OW18933  11.014   8.162   2.748
 5720SOL    HW118934  11.010   8.203   2.661
 5720SOL    HW218935  11.089   8.104   2.743
 5721SOL     OW18936   8.407   2.385   3.284
 5721SOL    HW118937   8.379   2.298   3.313
 5721SOL    HW218938   8.337   2.444   3.313
 5722SOL     OW18939  11.222   0.481   6.559
 5722SOL    HW118940  11.191   0.548   6.497
 5722SOL    HW218941  11.255   0.411   6.503
 5723SOL     OW18942   2.665   8.609  10.057
 5723SOL    HW118943   2.707   8.618  10.142
 5723SOL    HW218944   2.629   8.520  10.056
 5724SOL     OW18945  13.494   5.106  12.198
 5724SOL    HW118946  13.517   5.140  12.112
 5724SOL    HW218947  13.524   5.173  12.259
 5725SOL     OW18948   2.439  10.630  11.147
 5725SOL    HW118949   2.530  10.659  11.148
 5725SOL    HW218950   2.417  10.619  11.055
 5726SOL     OW18951   4.109  12.825  11.224
 5726SOL    HW118952   4.070  12.889  11.284
 5726SOL    HW218953   4.146  12.758  11.281
 5727SOL     OW18954   2.793   6.214   9.770
 5727SOL    HW118955   2.874   6.164   9.773
 5727SOL    HW218956   2.740   6.170   9.704
 5728SOL     OW18957   3.184  11.177   5.224
 5728SOL    HW118958   3.184  11.271   5.206
 5728SOL    HW218959   3.114  11.143   5.168
 5729SOL     OW18960   9.052   5.380   5.563
 5729SOL    HW118961   9.041   5.474   5.577
 5729SOL    HW218962   9.065   5.372   5.468
 5730SOL     OW18963   8.685   7.786   4.655
 5730SOL    HW118964   8.746   7.830   4.714
 5730SOL    HW218965   8.691   7.834   4.573
 5731SOL     OW18966  12.441  12.388   3.061
 5731SOL    HW118967  12.480  12.375   3.147
 5731SOL    HW218968  12.347  12.379   3.075
 5732SOL     OW18969   8.983  11.005   2.689
 5732SOL    HW118970   8.963  10.916   2.661
 5732SOL    HW218971   8.903  11.054   2.672
 5733SOL     OW18972  11.840   4.592   4.636
 5733SOL    HW118973  11.877   4.577   4.548
 5733SOL    HW218974  11.857   4.510   4.683
 5734SOL     OW18975  11.721   4.897   8.164
 5734SOL    HW118976  11.720   4.803   8.179
 5734SOL    HW218977  11.755   4.907   8.076
 5735SOL     OW18978   0.223   8.956   7.797
 5735SOL    HW118979   0.176   8.906   7.730
 5735SOL    HW218980   0.248   8.891   7.863
 5736SOL     OW18981   5.695   1.314  13.320
 5736SOL    HW118982   5.619   1.372  13.327
 5736SOL    HW218983   5.681   1.249  13.390
 5737SOL     OW18984   5.646   7.719   3.914
 5737SOL    HW118985   5.601   7.635   3.910
 5737SOL    HW218986   5.738   7.698   3.898
 5738SOL     OW18987   8.726  13.739   3.655
 5738SOL    HW118988   8.668  13.691   3.715
 5738SOL    HW218989   8.669  13.802   3.611
 5739SOL     OW18990   4.527   2.866   9.580
 5739SOL    HW118991   4.477   2.899   9.654
 5739SOL    HW218992   4.476   2.793   9.546
 5740SOL     OW18993   8.422   5.801   0.620
 5740SOL    HW118994   8.449   5.748   0.545
 5740SOL    HW218995   8.500   5.849   0.645
 5741SOL     OW18996   2.993   4.222   8.060
 5741SOL    HW118997   2.949   4.218   7.976
 5741SOL    HW218998   3.082   4.249   8.040
 5742SOL     OW18999  13.606   2.858   6.031
 5742SOL    HW119000  13.633   2.826   6.117
 5742SOL    HW219001  13.558   2.785   5.992
 5743SOL     OW19002   6.386   2.011   6.521
 5743SOL    HW119003   6.480   2.000   6.505
 5743SOL    HW219004   6.357   1.926   6.555
 5744SOL     OW19005   8.895   1.473  14.796
 5744SOL    HW119006   8.919   1.547  14.852
 5744SOL    HW219007   8.968   1.465  14.735
 5745SOL     OW19008   2.949   5.706   4.391
 5745SOL    HW119009   2.969   5.658   4.311
 5745SOL    HW219010   2.960   5.798   4.366
 5746SOL     OW19011   3.491   4.550   4.360
 5746SOL    HW119012   3.418   4.597   4.320
 5746SOL    HW219013   3.474   4.458   4.339
 5747SOL     OW19014  10.498   5.772  13.382
 5747SOL    HW119015  10.592   5.782  13.367
 5747SOL    HW219016  10.487   5.793  13.475
 5748SOL     OW19017   3.410  10.750   0.467
 5748SOL    HW119018   3.386  10.841   0.452
 5748SOL    HW219019   3.406  10.709   0.381
 5749SOL     OW19020  12.664   3.964   3.873
 5749SOL    HW119021  12.752   3.985   3.843
 5749SOL    HW219022  12.666   3.976   3.967
 5750SOL     OW19023   3.461   6.638   1.321
 5750SOL    HW119024   3.554   6.656   1.326
 5750SOL    HW219025   3.452   6.578   1.246
 5751SOL     OW19026   1.792   4.548   3.273
 5751SOL    HW119027   1.875   4.578   3.311
 5751SOL    HW219028   1.750   4.498   3.343
 5752SOL     OW19029   7.559   0.775  10.908
 5752SOL    HW119030   7.506   0.706  10.868
 5752SOL    HW219031   7.517   0.791  10.993
 5753SOL     OW19032   5.594  12.152   8.948
 5753SOL    HW119033   5.629  12.064   8.952
 5753SOL    HW219034   5.617  12.191   9.033
 5754SOL     OW19035  13.239  12.368  10.429
 5754SOL    HW119036  13.212  12.305  10.362
 5754SOL    HW219037  13.158  12.393  10.472
 5755SOL     OW19038  12.179   4.996  10.906
 5755SOL    HW119039  12.180   5.043  10.822
 5755SOL    HW219040  12.122   4.921  10.890
 5756SOL     OW19041   8.683   7.656   1.227
 5756SOL    HW119042   8.774   7.682   1.213
 5756SOL    HW219043   8.639   7.679   1.145
 5757SOL     OW19044  14.445  10.939   5.025
 5757SOL    HW119045  14.532  10.931   4.986
 5757SOL    HW219046  14.390  10.879   4.974
 5758SOL     OW19047  10.964   4.519   1.266
 5758SOL    HW119048  11.051   4.547   1.235
 5758SOL    HW219049  10.908   4.529   1.189
 5759SOL     OW19050   7.265   6.302  11.571
 5759SOL    HW119051   7.300   6.214  11.561
 5759SOL    HW219052   7.322   6.344  11.636
 5760SOL     OW19053   6.143   4.961  11.033
 5760SOL    HW119054   6.059   4.982  10.991
 5760SOL    HW219055   6.127   4.877  11.076
 5761SOL     OW19056  11.640   1.017   1.285
 5761SOL    HW119057  11.560   0.982   1.246
 5761SOL    HW219058  11.710   0.965   1.246
 5762SOL     OW19059  12.753   5.428   4.513
 5762SOL    HW119060  12.772   5.361   4.448
 5762SOL    HW219061  12.708   5.498   4.464
 5763SOL     OW19062  14.003   4.267   6.846
 5763SOL    HW119063  13.937   4.198   6.848
 5763SOL    HW219064  13.953   4.348   6.861
 5764SOL     OW19065  14.868   4.099  12.679
 5764SOL    HW119066  14.825   4.045  12.745
 5764SOL    HW219067   0.061   4.044  12.645
 5765SOL     OW19068  10.291   3.018  12.831
 5765SOL    HW119069  10.247   3.032  12.748
 5765SOL    HW219070  10.333   3.102  12.850
 5766SOL     OW19071   7.287  13.756  12.272
 5766SOL    HW119072   7.244  13.798  12.197
 5766SOL    HW219073   7.359  13.816  12.294
 5767SOL     OW19074   6.133   8.518   1.359
 5767SOL    HW119075   6.119   8.425   1.345
 5767SOL    HW219076   6.197   8.544   1.292
 5768SOL     OW19077  13.598  14.696   8.440
 5768SOL    HW119078  13.615  14.702   8.534
 5768SOL    HW219079  13.513  14.739   8.429
 5769SOL     OW19080   8.881  11.866   2.148
 5769SOL    HW119081   8.944  11.927   2.110
 5769SOL    HW219082   8.928  11.783   2.152
 5770SOL     OW19083   8.293  12.581   5.059
 5770SOL    HW119084   8.378  12.608   5.094
 5770SOL    HW219085   8.230  12.640   5.100
 5771SOL     OW19086   0.681   6.097  11.826
 5771SOL    HW119087   0.713   6.050  11.748
 5771SOL    HW219088   0.697   6.189  11.807
 5772SOL     OW19089  12.242   0.309   7.547
 5772SOL    HW119090  12.167   0.334   7.493
 5772SOL    HW219091  12.249   0.377   7.614
 5773SOL     OW19092   1.222  14.829   1.785
 5773SOL    HW119093   1.317  14.821   1.788
 5773SOL    HW219094   1.196  14.777   1.708
 5774SOL     OW19095  13.855   2.487   1.441
 5774SOL    HW119096  13.941   2.524   1.422
 5774SOL    HW219097  13.815   2.472   1.356
 5775SOL     OW19098   5.805   9.416   0.178
 5775SOL    HW119099   5.835   9.383   0.262
 5775SOL    HW219100   5.885   9.430   0.127
 5776SOL     OW19101   0.124  14.275   8.263
 5776SOL    HW119102   0.037  14.245   8.286
 5776SOL    HW219103   0.147  14.338   8.331
 5777SOL     OW19104   1.415   0.508   4.619
 5777SOL    HW119105   1.455   0.581   4.667
 5777SOL    HW219106   1.377   0.549   4.542
 5778SOL     OW19107   0.603   9.172  14.452
 5778SOL    HW119108   0.534   9.120  14.410
 5778SOL    HW219109   0.647   9.111  14.511
 5779SOL     OW19110   1.980   6.337   7.980
 5779SOL    HW119111   1.983   6.276   8.054
 5779SOL    HW219112   2.000   6.282   7.904
 5780SOL     OW19113   6.304  14.266   7.340
 5780SOL    HW119114   6.320  14.172   7.348
 5780SOL    HW219115   6.248  14.275   7.263
 5781SOL     OW19116   4.807  12.474   0.968
 5781SOL    HW119117   4.821  12.493   1.060
 5781SOL    HW219118   4.711  12.472   0.958
 5782SOL     OW19119   1.710  14.071   2.292
 5782SOL    HW119120   1.647  14.007   2.257
 5782SOL    HW219121   1.723  14.044   2.383
 5783SOL     OW19122   3.192  14.042  14.241
 5783SOL    HW119123   3.243  14.015  14.164
 5783SOL    HW219124   3.127  14.103  14.206
 5784SOL     OW19125   7.427  10.820   9.297
 5784SOL    HW119126   7.415  10.895   9.355
 5784SOL    HW219127   7.521  10.805   9.296
 5785SOL     OW19128  10.946   6.222   6.007
 5785SOL    HW119129  10.902   6.137   6.013
 5785SOL    HW219130  10.979   6.237   6.096
 5786SOL     OW19131   1.783   2.544  14.378
 5786SOL    HW119132   1.761   2.607  14.309
 5786SOL    HW219133   1.777   2.595  14.459
 5787SOL     OW19134   2.795   9.856   4.960
 5787SOL    HW119135   2.780   9.767   4.927
 5787SOL    HW219136   2.711   9.900   4.948
 5788SOL     OW19137   0.638  10.973   9.153
 5788SOL    HW119138   0.581  11.047   9.135
 5788SOL    HW219139   0.601  10.933   9.232
 5789SOL     OW19140   0.897   1.627   1.085
 5789SOL    HW119141   0.855   1.711   1.105
 5789SOL    HW219142   0.954   1.610   1.160
 5790SOL     OW19143   5.588  12.082  10.722
 5790SOL    HW119144   5.584  11.994  10.760
 5790SOL    HW219145   5.538  12.075  10.640
 5791SOL     OW19146   7.258   8.160   1.082
 5791SOL    HW119147   7.266   8.069   1.053
 5791SOL    HW219148   7.339   8.177   1.131
 5792SOL     OW19149   7.849   8.539   6.913
 5792SOL    HW119150   7.932   8.499   6.940
 5792SOL    HW219151   7.834   8.609   6.976
 5793SOL     OW19152   6.018   8.954   6.725
 5793SOL    HW119153   6.054   8.869   6.748
 5793SOL    HW219154   5.990   8.944   6.634
 5794SOL     OW19155  11.307   7.079   6.475
 5794SOL    HW119156  11.330   7.063   6.383
 5794SOL    HW219157  11.245   7.152   6.472
 5795SOL     OW19158  13.922   5.217  14.331
 5795SOL    HW119159  13.872   5.142  14.364
 5795SOL    HW219160  13.908   5.215  14.236
 5796SOL     OW19161  12.573  12.399  11.672
 5796SOL    HW119162  12.540  12.389  11.582
 5796SOL    HW219163  12.665  12.423  11.661
 5797SOL     OW19164   1.989   7.628   3.806
 5797SOL    HW119165   1.988   7.676   3.888
 5797SOL    HW219166   1.910   7.656   3.760
 5798SOL     OW19167  11.147  10.198   8.834
 5798SOL    HW119168  11.077  10.260   8.816
 5798SOL    HW219169  11.144  10.135   8.762
 5799SOL     OW19170   1.315  10.515   9.275
 5799SOL    HW119171   1.347  10.590   9.226
 5799SOL    HW219172   1.231  10.544   9.311
 5800SOL     OW19173   1.939   3.770   8.603
 5800SOL    HW119174   1.876   3.832   8.641
 5800SOL    HW219175   2.011   3.825   8.573
 5801SOL     OW19176   9.044   7.850   8.277
 5801SOL    HW119177   8.976   7.792   8.242
 5801SOL    HW219178   9.016   7.868   8.367
 5802SOL     OW19179   8.756   4.680   1.292
 5802SOL    HW119180   8.675   4.730   1.298
 5802SOL    HW219181   8.728   4.591   1.269
 5803SOL     OW19182   9.525  12.425   9.086
 5803SOL    HW119183   9.567  12.420   9.172
 5803SOL    HW219184   9.452  12.364   9.091
 5804SOL     OW19185   0.798   2.150  11.954
 5804SOL    HW119186   0.880   2.101  11.957
 5804SOL    HW219187   0.761   2.128  11.869
 5805SOL     OW19188   6.158   1.582  10.972
 5805SOL    HW119189   6.079   1.635  10.979
 5805SOL    HW219190   6.230   1.644  10.986
 5806SOL     OW19191  11.883  14.109   8.170
 5806SOL    HW119192  11.882  14.178   8.104
 5806SOL    HW219193  11.795  14.111   8.209
 5807SOL     OW19194   6.254   1.365  13.963
 5807SOL    HW119195   6.336   1.318  13.977
 5807SOL    HW219196   6.275   1.432  13.898
 5808SOL     OW19197   6.409   1.364   1.045
 5808SOL    HW119198   6.439   1.437   0.990
 5808SOL    HW219199   6.415   1.287   0.989
 5809SOL     OW19200   0.286  14.674   4.430
 5809SOL    HW119201   0.316  14.736   4.496
 5809SOL    HW219202   0.227  14.615   4.478
 5810SOL     OW19203  10.407   5.543   0.074
 5810SOL    HW119204  10.495   5.539   0.038
 5810SOL    HW219205  10.354   5.582   0.004
 5811SOL     OW19206   0.852  11.025   8.363
 5811SOL    HW119207   0.829  11.076   8.441
 5811SOL    HW219208   0.891  11.089   8.304
 5812SOL     OW19209   7.169  14.661   8.644
 5812SOL    HW119210   7.143  14.675   8.735
 5812SOL    HW219211   7.168  14.748   8.605
 5813SOL     OW19212   4.559  12.785   2.175
 5813SOL    HW119213   4.602  12.771   2.259
 5813SOL    HW219214   4.469  12.755   2.188
 5814SOL     OW19215   3.133   9.267  11.039
 5814SOL    HW119216   3.183   9.321  11.100
 5814SOL    HW219217   3.046   9.307  11.036
 5815SOL     OW19218   0.068   2.399   4.145
 5815SOL    HW119219  14.861   2.418   4.185
 5815SOL    HW219220   0.119   2.480   4.156
 5816SOL     OW19221   2.424   4.809   6.793
 5816SOL    HW119222   2.513   4.845   6.798
 5816SOL    HW219223   2.396   4.828   6.704
 5817SOL     OW19224   5.983  14.469   1.584
 5817SOL    HW119225   6.022  14.502   1.503
 5817SOL    HW219226   6.042  14.400   1.613
 5818SOL     OW19227   6.096   5.233   6.328
 5818SOL    HW119228   6.022   5.176   6.310
 5818SOL    HW219229   6.131   5.256   6.242
 5819SOL     OW19230   0.263   8.500  12.271
 5819SOL    HW119231   0.346   8.490  12.318
 5819SOL    HW219232   0.237   8.410  12.249
 5820SOL     OW19233   4.077  12.575   0.563
 5820SOL    HW119234   4.092  12.655   0.514
 5820SOL    HW219235   4.164  12.534   0.568
 5821SOL     OW19236   6.094   8.014   3.215
 5821SOL    HW119237   6.117   7.942   3.156
 5821SOL    HW219238   6.175   8.034   3.261
 5822SOL     OW19239   1.685   6.426  11.094
 5822SOL    HW119240   1.612   6.381  11.051
 5822SOL    HW219241   1.657   6.437  11.185
 5823SOL     OW19242   4.112   5.586   7.304
 5823SOL    HW119243   4.161   5.506   7.285
 5823SOL    HW219244   4.170   5.638   7.360
 5824SOL     OW19245   8.710   5.445   3.270
 5824SOL    HW119246   8.675   5.451   3.181
 5824SOL    HW219247   8.695   5.354   3.296
 5825SOL     OW19248   6.811  14.416   7.522
 5825SOL    HW119249   6.808  14.494   7.577
 5825SOL    HW219250   6.723  14.379   7.529
 5826SOL     OW19251  12.216   1.732   8.725
 5826SOL    HW119252  12.126   1.763   8.735
 5826SOL    HW219253  12.208   1.640   8.700
 5827SOL     OW19254   5.580   2.961  10.588
 5827SOL    HW119255   5.587   3.026  10.657
 5827SOL    HW219256   5.513   2.900  10.619
 5828SOL     OW19257   7.224  11.058   2.454
 5828SOL    HW119258   7.312  11.097   2.460
 5828SOL    HW219259   7.237  10.978   2.404
 5829SOL     OW19260  14.870  10.027  14.754
 5829SOL    HW119261   0.034  10.102  14.796
 5829SOL    HW219262  14.805   9.996  14.818
 5830SOL     OW19263  11.732   8.497   4.178
 5830SOL    HW119264  11.774   8.491   4.263
 5830SOL    HW219265  11.780   8.566   4.132
 5831SOL     OW19266   7.875   3.047   4.005
 5831SOL    HW119267   7.946   2.986   3.988
 5831SOL    HW219268   7.910   3.108   4.070
 5832SOL     OW19269   1.700   2.082   8.566
 5832SOL    HW119270   1.693   2.002   8.513
 5832SOL    HW219271   1.775   2.066   8.623
 5833SOL     OW19272  14.793   4.247   0.727
 5833SOL    HW119273  14.790   4.198   0.645
 5833SOL    HW219274  14.763   4.334   0.704
 5834SOL     OW19275   9.004   5.017   5.051
 5834SOL    HW119276   9.054   4.944   5.015
 5834SOL    HW219277   9.000   4.999   5.145
 5835SOL     OW19278   7.696   4.236   9.380
 5835SOL    HW119279   7.635   4.269   9.446
 5835SOL    HW219280   7.728   4.315   9.336
 5836SOL     OW19281   7.444   6.269   9.911
 5836SOL    HW119282   7.503   6.301   9.842
 5836SOL    HW219283   7.369   6.328   9.908
 5837SOL     OW19284   3.104   4.773   3.368
 5837SOL    HW119285   3.017   4.806   3.344
 5837SOL    HW219286   3.095   4.678   3.366
 5838SOL     OW19287   2.720  10.768  10.113
 5838SOL    HW119288   2.746  10.791  10.024
 5838SOL    HW219289   2.625  10.764  10.109
 5839SOL     OW19290   6.773  12.034   7.212
 5839SOL    HW119291   6.779  12.025   7.307
 5839SOL    HW219292   6.790  11.946   7.178
 5840SOL     OW19293  12.716   1.206   8.663
 5840SOL    HW119294  12.674   1.287   8.691
 5840SOL    HW219295  12.688   1.195   8.572
 5841SOL     OW19296   7.012   8.645  12.679
 5841SOL    HW119297   6.929   8.600  12.695
 5841SOL    HW219298   7.045   8.606  12.599
 5842SOL     OW19299   6.483  12.411   1.184
 5842SOL    HW119300   6.545  12.340   1.201
 5842SOL    HW219301   6.508  12.445   1.098
 5843SOL     OW19302   7.668   8.743   3.533
 5843SOL    HW119303   7.733   8.810   3.552
 5843SOL    HW219304   7.657   8.696   3.615
 5844SOL     OW19305   5.801   5.164  10.004
 5844SOL    HW119306   5.838   5.210   9.928
 5844SOL    HW219307   5.877   5.132  10.052
 5845SOL     OW19308  13.183   1.269   2.559
 5845SOL    HW119309  13.266   1.288   2.603
 5845SOL    HW219310  13.162   1.350   2.512
 5846SOL     OW19311  12.639   6.957  10.938
 5846SOL    HW119312  12.570   6.919  10.883
 5846SOL    HW219313  12.611   6.939  11.027
 5847SOL     OW19314  10.138   1.486   4.071
 5847SOL    HW119315  10.198   1.560   4.062
 5847SOL    HW219316  10.067   1.520   4.126
 5848SOL     OW19317   4.535   7.967  11.297
 5848SOL    HW119318   4.572   7.924  11.374
 5848SOL    HW219319   4.482   8.038  11.331
 5849SOL     OW19320  11.972   9.976   2.016
 5849SOL    HW119321  11.877   9.978   2.015
 5849SOL    HW219322  11.994   9.924   2.093
 5850SOL     OW19323   9.703   7.434   1.712
 5850SOL    HW119324   9.799   7.432   1.717
 5850SOL    HW219325   9.677   7.343   1.720
 5851SOL     OW19326  13.298  10.379  12.236
 5851SOL    HW119327  13.332  10.427  12.161
 5851SOL    HW219328  13.205  10.403  12.241
 5852SOL     OW19329   4.297   0.231  10.814
 5852SOL    HW119330   4.364   0.187  10.866
 5852SOL    HW219331   4.346   0.282  10.750
 5853SOL     OW19332   5.602  13.639   6.222
 5853SOL    HW119333   5.560  13.700   6.283
 5853SOL    HW219334   5.693  13.667   6.219
 5854SOL     OW19335  12.522  13.755   0.292
 5854SOL    HW119336  12.608  13.751   0.251
 5854SOL    HW219337  12.522  13.838   0.340
 5855SOL     OW19338   0.133   7.567   3.789
 5855SOL    HW119339   0.177   7.634   3.735
 5855SOL    HW219340   0.044   7.600   3.799
 5856SOL     OW19341   5.157  10.254  11.011
 5856SOL    HW119342   5.237  10.281  11.057
 5856SOL    HW219343   5.111  10.335  10.994
 5857SOL     OW19344  14.417   4.906   6.567
 5857SOL    HW119345  14.473   4.915   6.644
 5857SOL    HW219346  14.328   4.907   6.602
 5858SOL     OW19347   8.544   5.878   6.524
 5858SOL    HW119348   8.575   5.902   6.437
 5858SOL    HW219349   8.461   5.833   6.509
 5859SOL     OW19350   1.148  12.850   7.003
 5859SOL    HW119351   1.079  12.911   6.976
 5859SOL    HW219352   1.102  12.776   7.042
 5860SOL     OW19353   3.234   1.211   6.782
 5860SOL    HW119354   3.204   1.123   6.757
 5860SOL    HW219355   3.228   1.212   6.877
 5861SOL     OW19356   6.668   2.970  11.327
 5861SOL    HW119357   6.712   2.907  11.384
 5861SOL    HW219358   6.708   3.054  11.348
 5862SOL     OW19359  11.124   5.223  14.411
 5862SOL    HW119360  11.104   5.194  14.322
 5862SOL    HW219361  11.053   5.283  14.433
 5863SOL     OW19362   0.444   3.213   3.528
 5863SOL    HW119363   0.349   3.206   3.537
 5863SOL    HW219364   0.478   3.188   3.614
 5864SOL     OW19365  11.522   3.409   6.127
 5864SOL    HW119366  11.475   3.487   6.097
 5864SOL    HW219367  11.465   3.336   6.102
 5865SOL     OW19368   2.526   2.190  13.958
 5865SOL    HW119369   2.530   2.094  13.964
 5865SOL    HW219370   2.433   2.210  13.959
 5866SOL     OW19371  11.613  10.187   5.125
 5866SOL    HW119372  11.546  10.144   5.179
 5866SOL    HW219373  11.695  10.147   5.153
 5867SOL     OW19374  12.957   5.689   4.593
 5867SOL    HW119375  12.923   5.760   4.647
 5867SOL    HW219376  12.881   5.654   4.548
 5868SOL     OW19377  10.270  13.923   3.486
 5868SOL    HW119378  10.233  13.936   3.399
 5868SOL    HW219379  10.194  13.911   3.543
 5869SOL     OW19380  12.327   0.908  11.836
 5869SOL    HW119381  12.344   0.976  11.772
 5869SOL    HW219382  12.394   0.922  11.904
 5870SOL     OW19383  10.827  14.665  13.751
 5870SOL    HW119384  10.852  14.745  13.704
 5870SOL    HW219385  10.910  14.627  13.780
 5871SOL     OW19386   5.607   1.478   9.827
 5871SOL    HW119387   5.693   1.436   9.829
 5871SOL    HW219388   5.622   1.562   9.784
 5872SOL     OW19389  12.741   5.037   9.769
 5872SOL    HW119390  12.738   5.126   9.733
 5872SOL    HW219391  12.804   5.042   9.841
 5873SOL     OW19392  13.352   6.448  10.175
 5873SOL    HW119393  13.415   6.419  10.109
 5873SOL    HW219394  13.402   6.506  10.233
 5874SOL     OW19395   9.554   9.528  11.762
 5874SOL    HW119396   9.601   9.611  11.760
 5874SOL    HW219397   9.509   9.524  11.678
 5875SOL     OW19398   9.146  13.719   2.055
 5875SOL    HW119399   9.206  13.789   2.081
 5875SOL    HW219400   9.109  13.688   2.137
 5876SOL     OW19401  12.422  14.211  12.383
 5876SOL    HW119402  12.333  14.247  12.383
 5876SOL    HW219403  12.474  14.277  12.428
 5877SOL     OW19404  10.884   7.845   5.442
 5877SOL    HW119405  10.879   7.941   5.443
 5877SOL    HW219406  10.847   7.819   5.527
 5878SOL     OW19407   1.890   8.201   5.065
 5878SOL    HW119408   1.976   8.202   5.106
 5878SOL    HW219409   1.828   8.211   5.137
 5879SOL     OW19410   8.344   9.936  11.893
 5879SOL    HW119411   8.383   9.996  11.957
 5879SOL    HW219412   8.323   9.857  11.943
 5880SOL     OW19413  11.164   8.667   4.186
 5880SOL    HW119414  11.196   8.711   4.265
 5880SOL    HW219415  11.216   8.704   4.115
 5881SOL     OW19416   6.539   5.732  10.280
 5881SOL    HW119417   6.617   5.773  10.241
 5881SOL    HW219418   6.472   5.739  10.212
 5882SOL     OW19419   4.281   4.737   1.027
 5882SOL    HW119420   4.191   4.755   0.999
 5882SOL    HW219421   4.333   4.741   0.947
 5883SOL     OW19422   2.302   5.888  10.066
 5883SOL    HW119423   2.374   5.924  10.014
 5883SOL    HW219424   2.293   5.798  10.035
 5884SOL     OW19425  11.739   9.312   7.440
 5884SOL    HW119426  11.691   9.312   7.523
 5884SOL    HW219427  11.721   9.226   7.402
 5885SOL     OW19428   9.747  14.782   1.594
 5885SOL    HW119429   9.738  14.710   1.656
 5885SOL    HW219430   9.811  14.841   1.635
 5886SOL     OW19431  13.739  11.845   3.979
 5886SOL    HW119432  13.699  11.803   4.055
 5886SOL    HW219433  13.833  11.844   3.998
 5887SOL     OW19434   9.723   3.608   0.565
 5887SOL    HW119435   9.710   3.517   0.592
 5887SOL    HW219436   9.813   3.628   0.591
 5888SOL     OW19437   1.878   2.378   8.059
 5888SOL    HW119438   1.854   2.358   8.149
 5888SOL    HW219439   1.968   2.344   8.050
 5889SOL     OW19440   6.040  11.814  12.522
 5889SOL    HW119441   6.047  11.722  12.501
 5889SOL    HW219442   6.130  11.847  12.519
 5890SOL     OW19443   1.708   3.332   7.249
 5890SOL    HW119444   1.665   3.402   7.199
 5890SOL    HW219445   1.787   3.313   7.198
 5891SOL     OW19446   7.367   3.324  12.754
 5891SOL    HW119447   7.330   3.399  12.708
 5891SOL    HW219448   7.384   3.356  12.842
 5892SOL     OW19449  14.785   3.326   3.893
 5892SOL    HW119450  14.788   3.411   3.936
 5892SOL    HW219451  14.763   3.264   3.963
 5893SOL     OW19452  10.127   7.425  11.459
 5893SOL    HW119453  10.084   7.490  11.402
 5893SOL    HW219454  10.095   7.446  11.547
 5894SOL     OW19455   3.840  14.552   7.148
 5894SOL    HW119456   3.876  14.465   7.135
 5894SOL    HW219457   3.836  14.590   7.060
 5895SOL     OW19458  10.196   7.914   1.363
 5895SOL    HW119459  10.140   7.990   1.376
 5895SOL    HW219460  10.251   7.936   1.288
 5896SOL     OW19461   7.505  13.065  12.445
 5896SOL    HW119462   7.476  13.053  12.536
 5896SOL    HW219463   7.425  13.056  12.393
 5897SOL     OW19464   6.803   6.118   9.712
 5897SOL    HW119465   6.789   6.043   9.770
 5897SOL    HW219466   6.830   6.079   9.629
 5898SOL     OW19467  14.293   6.145   6.269
 5898SOL    HW119468  14.229   6.089   6.226
 5898SOL    HW219469  14.326   6.092   6.342
 5899SOL     OW19470  12.269  13.294  11.762
 5899SOL    HW119471  12.326  13.330  11.829
 5899SOL    HW219472  12.323  13.290  11.684
 5900SOL     OW19473   1.585   2.370   4.881
 5900SOL    HW119474   1.585   2.417   4.798
 5900SOL    HW219475   1.558   2.281   4.858
 5901SOL     OW19476  13.380   3.958   8.986
 5901SOL    HW119477  13.356   4.021   8.917
 5901SOL    HW219478  13.301   3.905   8.998
 5902SOL     OW19479   3.390   7.573   2.037
 5902SOL    HW119480   3.389   7.521   1.957
 5902SOL    HW219481   3.476   7.614   2.039
 5903SOL     OW19482   4.367   6.228  13.683
 5903SOL    HW119483   4.459   6.236  13.656
 5903SOL    HW219484   4.369   6.169  13.758
 5904SOL     OW19485  11.916   8.422   0.912
 5904SOL    HW119486  11.991   8.419   0.853
 5904SOL    HW219487  11.871   8.339   0.897
 5905SOL     OW19488   3.770  11.926   3.840
 5905SOL    HW119489   3.807  11.852   3.888
 5905SOL    HW219490   3.676  11.906   3.834
 5906SOL     OW19491   8.927  14.043  13.892
 5906SOL    HW119492   8.881  14.111  13.842
 5906SOL    HW219493   9.019  14.069  13.888
 5907SOL     OW19494   3.232   3.443   1.071
 5907SOL    HW119495   3.173   3.407   1.137
 5907SOL    HW219496   3.230   3.538   1.087
 5908SOL     OW19497   0.830  10.089   6.477
 5908SOL    HW119498   0.822  10.151   6.404
 5908SOL    HW219499   0.849  10.144   6.553
 5909SOL     OW19500   2.382   2.582  11.560
 5909SOL    HW119501   2.293   2.583  11.527
 5909SOL    HW219502   2.414   2.671  11.549
 5910SOL     OW19503  14.411   8.245  14.627
 5910SOL    HW119504  14.460   8.192  14.690
 5910SOL    HW219505  14.322   8.246  14.661
 5911SOL     OW19506   1.346  12.306   8.533
 5911SOL    HW119507   1.339  12.258   8.450
 5911SOL    HW219508   1.313  12.393   8.512
 5912SOL     OW19509   5.524  10.885   8.763
 5912SOL    HW119510   5.506  10.801   8.721
 5912SOL    HW219511   5.446  10.902   8.816
 5913SOL     OW19512   0.046  10.475  10.231
 5913SOL    HW119513   0.117  10.420  10.198
 5913SOL    HW219514   0.089  10.554  10.263
 5914SOL     OW19515  10.587   3.121   8.111
 5914SOL    HW119516  10.563   3.214   8.112
 5914SOL    HW219517  10.578   3.093   8.202
 5915SOL     OW19518   7.302   3.164  14.289
 5915SOL    HW119519   7.263   3.172  14.202
 5915SOL    HW219520   7.237   3.202  14.348
 5916SOL     OW19521   6.794  10.777   5.863
 5916SOL    HW119522   6.737  10.701   5.869
 5916SOL    HW219523   6.860  10.764   5.931
 5917SOL     OW19524   9.828   0.425   8.604
 5917SOL    HW119525   9.786   0.507   8.580
 5917SOL    HW219526   9.913   0.451   8.640
 5918SOL     OW19527   3.219   7.524   8.777
 5918SOL    HW119528   3.222   7.614   8.811
 5918SOL    HW219529   3.225   7.469   8.855
 5919SOL     OW19530   1.373  12.559  12.936
 5919SOL    HW119531   1.446  12.560  12.874
 5919SOL    HW219532   1.415  12.572  13.022
 5920SOL     OW19533  11.464   9.885   2.856
 5920SOL    HW119534  11.494   9.827   2.787
 5920SOL    HW219535  11.505   9.852   2.936
 5921SOL     OW19536   9.427   3.957   8.732
 5921SOL    HW119537   9.519   3.933   8.741
 5921SOL    HW219538   9.415   4.030   8.793
 5922SOL     OW19539  10.163  11.157   9.128
 5922SOL    HW119540  10.145  11.063   9.132
 5922SOL    HW219541  10.086  11.195   9.085
 5923SOL     OW19542   9.086   9.451   6.299
 5923SOL    HW119543   9.054   9.538   6.277
 5923SOL    HW219544   9.161   9.437   6.240
 5924SOL     OW19545   9.810   2.260   9.609
 5924SOL    HW119546   9.723   2.288   9.639
 5924SOL    HW219547   9.871   2.303   9.669
 5925SOL     OW19548   8.507  13.071   0.201
 5925SOL    HW119549   8.471  13.005   0.261
 5925SOL    HW219550   8.598  13.079   0.227
 5926SOL     OW19551   6.254  14.854  12.342
 5926SOL    HW119552   6.250  14.863  12.437
 5926SOL    HW219553   6.321   0.039  12.315
 5927SOL     OW19554  10.282   1.126  10.144
 5927SOL    HW119555  10.236   1.131  10.229
 5927SOL    HW219556  10.374   1.121  10.167
 5928SOL     OW19557   4.811   9.563   5.988
 5928SOL    HW119558   4.803   9.613   6.070
 5928SOL    HW219559   4.779   9.476   6.010
 5929SOL     OW19560   4.887  12.606  12.833
 5929SOL    HW119561   4.959  12.623  12.894
 5929SOL    HW219562   4.872  12.512  12.841
 5930SOL     OW19563   4.535   3.289   2.339
 5930SOL    HW119564   4.560   3.212   2.287
 5930SOL    HW219565   4.501   3.351   2.275
 5931SOL     OW19566   6.692   5.144   3.691
 5931SOL    HW119567   6.715   5.093   3.769
 5931SOL    HW219568   6.669   5.230   3.725
 5932SOL     OW19569   0.913   5.551   3.464
 5932SOL    HW119570   0.911   5.571   3.371
 5932SOL    HW219571   0.821   5.537   3.487
 5933SOL     OW19572   6.442  14.316   0.532
 5933SOL    HW119573   6.395  14.296   0.451
 5933SOL    HW219574   6.531  14.338   0.504
 5934SOL     OW19575  14.212   6.970   7.168
 5934SOL    HW119576  14.289   7.026   7.168
 5934SOL    HW219577  14.154   7.008   7.102
 5935SOL     OW19578   3.884   2.270   7.279
 5935SOL    HW119579   3.823   2.223   7.223
 5935SOL    HW219580   3.829   2.333   7.327
 5936SOL     OW19581   9.246  10.768  10.747
 5936SOL    HW119582   9.183  10.743  10.680
 5936SOL    HW219583   9.298  10.838  10.707
 5937SOL     OW19584   7.449   1.413   4.872
 5937SOL    HW119585   7.456   1.389   4.779
 5937SOL    HW219586   7.373   1.471   4.876
 5938SOL     OW19587  11.827  12.304   3.864
 5938SOL    HW119588  11.764  12.305   3.936
 5938SOL    HW219589  11.848  12.396   3.849
 5939SOL     OW19590   8.642   3.484  14.225
 5939SOL    HW119591   8.638   3.563  14.279
 5939SOL    HW219592   8.610   3.414  14.282
 5940SOL     OW19593   1.256   8.464   1.027
 5940SOL    HW119594   1.235   8.399   0.960
 5940SOL    HW219595   1.209   8.543   1.000
 5941SOL     OW19596  14.196   2.947   6.378
 5941SOL    HW119597  14.103   2.951   6.358
 5941SOL    HW219598  14.217   2.854   6.372
 5942SOL     OW19599   4.487   4.627   9.655
 5942SOL    HW119600   4.452   4.645   9.742
 5942SOL    HW219601   4.574   4.668   9.655
 5943SOL     OW19602   8.046  11.702   0.751
 5943SOL    HW119603   8.091  11.672   0.829
 5943SOL    HW219604   8.078  11.645   0.681
 5944SOL     OW19605   7.603   0.785   2.705
 5944SOL    HW119606   7.527   0.727   2.712
 5944SOL    HW219607   7.608   0.829   2.790
 5945SOL     OW19608   5.450   4.826  14.378
 5945SOL    HW119609   5.438   4.834  14.283
 5945SOL    HW219610   5.462   4.916  14.409
 5946SOL     OW19611   4.010   5.617  11.703
 5946SOL    HW119612   4.036   5.533  11.741
 5946SOL    HW219613   4.085   5.643  11.650
 5947SOL     OW19614   7.787  10.128   1.147
 5947SOL    HW119615   7.743  10.124   1.062
 5947SOL    HW219616   7.869  10.081   1.134
 5948SOL     OW19617   8.176   6.803   5.189
 5948SOL    HW119618   8.159   6.732   5.251
 5948SOL    HW219619   8.100   6.804   5.131
 5949SOL     OW19620   1.579   6.645   8.240
 5949SOL    HW119621   1.521   6.662   8.314
 5949SOL    HW219622   1.629   6.726   8.231
 5950SOL     OW19623   1.470   2.176   9.760
 5950SOL    HW119624   1.376   2.189   9.746
 5950SOL    HW219625   1.507   2.264   9.755
 5951SOL     OW19626   8.827  14.098  12.672
 5951SOL    HW119627   8.801  14.187  12.697
 5951SOL    HW219628   8.781  14.082  12.590
 5952SOL     OW19629   2.261   1.503  11.099
 5952SOL    HW119630   2.244   1.582  11.048
 5952SOL    HW219631   2.252   1.432  11.036
 5953SOL     OW19632   3.407   0.152   2.272
 5953SOL    HW119633   3.405   0.061   2.303
 5953SOL    HW219634   3.419   0.145   2.177
 5954SOL     OW19635   7.614   4.805   7.807
 5954SOL    HW119636   7.642   4.881   7.755
 5954SOL    HW219637   7.537   4.836   7.855
 5955SOL     OW19638   4.488   0.679  14.208
 5955SOL    HW119639   4.499   0.610  14.273
 5955SOL    HW219640   4.529   0.756  14.247
 5956SOL     OW19641   7.554  10.994  13.111
 5956SOL    HW119642   7.465  10.972  13.081
 5956SOL    HW219643   7.598  10.909  13.116
 5957SOL     OW19644   6.847  13.469   7.931
 5957SOL    HW119645   6.891  13.417   7.999
 5957SOL    HW219646   6.754  13.453   7.945
 5958SOL     OW19647   3.772   5.832   2.010
 5958SOL    HW119648   3.820   5.877   2.079
 5958SOL    HW219649   3.706   5.780   2.056
 5959SOL     OW19650   4.954   2.764   0.751
 5959SOL    HW119651   5.045   2.782   0.725
 5959SOL    HW219652   4.921   2.849   0.779
 5960SOL     OW19653  10.909   2.949  13.729
 5960SOL    HW119654  10.894   2.930  13.821
 5960SOL    HW219655  10.930   2.864  13.689
 5961SOL     OW19656   6.708   6.381  14.696
 5961SOL    HW119657   6.616   6.371  14.675
 5961SOL    HW219658   6.710   6.406  14.788
 5962SOL     OW19659  14.783  12.294   7.002
 5962SOL    HW119660  14.819  12.280   6.915
 5962SOL    HW219661  14.705  12.239   7.005
 5963SOL     OW19662   3.097  12.077   6.929
 5963SOL    HW119663   3.074  12.010   6.994
 5963SOL    HW219664   3.139  12.027   6.858
 5964SOL     OW19665  13.903  14.454   4.115
 5964SOL    HW119666  13.832  14.496   4.065
 5964SOL    HW219667  13.860  14.381   4.160
 5965SOL     OW19668   3.598   6.199   4.374
 5965SOL    HW119669   3.510   6.219   4.407
 5965SOL    HW219670   3.585   6.188   4.279
 5966SOL     OW19671   5.943   2.428  11.839
 5966SOL    HW119672   6.001   2.487  11.887
 5966SOL    HW219673   5.855   2.456  11.864
 5967SOL     OW19674  12.467  11.335  13.050
 5967SOL    HW119675  12.487  11.331  12.956
 5967SOL    HW219676  12.484  11.247  13.082
 5968SOL     OW19677   4.032   3.026  14.075
 5968SOL    HW119678   4.113   3.023  14.024
 5968SOL    HW219679   4.051   2.974  14.153
 5969SOL     OW19680   0.198  11.263   8.962
 5969SOL    HW119681   0.255  11.327   8.919
 5969SOL    HW219682   0.160  11.212   8.891
 5970SOL     OW19683  14.758   3.598  11.957
 5970SOL    HW119684  14.663   3.609  11.967
 5970SOL    HW219685  14.791   3.588  12.046
 5971SOL     OW19686  11.129   7.341  11.596
 5971SOL    HW119687  11.054   7.390  11.563
 5971SOL    HW219688  11.204   7.396  11.576
 5972SOL     OW19689  12.039  10.447  13.678
 5972SOL    HW119690  12.077  10.363  13.652
 5972SOL    HW219691  12.013  10.434  13.770
 5973SOL     OW19692   8.111   2.739   0.165
 5973SOL    HW119693   8.194   2.763   0.124
 5973SOL    HW219694   8.046   2.748   0.095
 5974SOL     OW19695   4.887   6.196   1.492
 5974SOL    HW119696   4.876   6.106   1.462
 5974SOL    HW219697   4.926   6.187   1.579
 5975SOL     OW19698   3.875   4.103   3.887
 5975SOL    HW119699   3.867   4.012   3.858
 5975SOL    HW219700   3.908   4.097   3.976
 5976SOL     OW19701  12.728  13.352   5.256
 5976SOL    HW119702  12.663  13.321   5.320
 5976SOL    HW219703  12.761  13.272   5.215
 5977SOL     OW19704  12.017   2.690  11.109
 5977SOL    HW119705  11.974   2.715  11.027
 5977SOL    HW219706  11.946   2.680  11.172
 5978SOL     OW19707   0.606  11.960   6.394
 5978SOL    HW119708   0.679  11.908   6.426
 5978SOL    HW219709   0.548  11.896   6.351
 5979SOL     OW19710   2.930   7.565   6.412
 5979SOL    HW119711   2.979   7.616   6.347
 5979SOL    HW219712   2.841   7.600   6.407
 5980SOL     OW19713   8.859  14.334   0.827
 5980SOL    HW119714   8.786  14.394   0.844
 5980SOL    HW219715   8.852  14.267   0.895
 5981SOL     OW19716   0.473   4.511   3.225
 5981SOL    HW119717   0.460   4.605   3.218
 5981SOL    HW219718   0.388   4.477   3.253
 5982SOL     OW19719   1.868   6.276   6.010
 5982SOL    HW119720   1.873   6.211   6.080
 5982SOL    HW219721   1.842   6.357   6.054
 5983SOL     OW19722   0.734  12.713  12.648
 5983SOL    HW119723   0.733  12.752  12.735
 5983SOL    HW219724   0.704  12.783  12.590
 5984SOL     OW19725  12.010   6.323  10.302
 5984SOL    HW119726  11.973   6.410  10.320
 5984SOL    HW219727  11.998   6.310  10.208
 5985SOL     OW19728   5.643   7.947   7.828
 5985SOL    HW119729   5.637   7.873   7.767
 5985SOL    HW219730   5.733   7.944   7.859
 5986SOL     OW19731   9.102   3.703   4.236
 5986SOL    HW119732   9.031   3.741   4.184
 5986SOL    HW219733   9.179   3.709   4.179
 5987SOL     OW19734   0.455   4.038   7.200
 5987SOL    HW119735   0.544   4.041   7.166
 5987SOL    HW219736   0.447   3.951   7.240
 5988SOL     OW19737   1.296   5.149   9.628
 5988SOL    HW119738   1.275   5.151   9.534
 5988SOL    HW219739   1.364   5.215   9.638
 5989SOL     OW19740   3.413   1.614   3.209
 5989SOL    HW119741   3.469   1.669   3.264
 5989SOL    HW219742   3.358   1.567   3.272
 5990SOL     OW19743   2.692   5.444  12.596
 5990SOL    HW119744   2.687   5.534  12.564
 5990SOL    HW219745   2.614   5.434  12.651
 5991SOL     OW19746  13.372   0.641   4.697
 5991SOL    HW119747  13.336   0.593   4.772
 5991SOL    HW219748  13.359   0.582   4.623
 5992SOL     OW19749  14.436   6.177   2.604
 5992SOL    HW119750  14.427   6.270   2.627
 5992SOL    HW219751  14.355   6.157   2.557
 5993SOL     OW19752   8.791  12.979  13.412
 5993SOL    HW119753   8.733  12.960  13.485
 5993SOL    HW219754   8.790  12.899  13.359
 5994SOL     OW19755  13.496  12.847   9.080
 5994SOL    HW119756  13.589  12.854   9.059
 5994SOL    HW219757  13.452  12.846   8.995
 5995SOL     OW19758   0.180   9.189  14.590
 5995SOL    HW119759   0.212   9.275  14.614
 5995SOL    HW219760   0.090   9.204  14.560
 5996SOL     OW19761   6.799   0.875   3.166
 5996SOL    HW119762   6.818   0.822   3.243
 5996SOL    HW219763   6.761   0.955   3.201
 5997SOL     OW19764   4.471   4.725  13.290
 5997SOL    HW119765   4.497   4.783  13.362
 5997SOL    HW219766   4.386   4.760  13.262
 5998SOL     OW19767   6.855  12.245   8.735
 5998SOL    HW119768   6.780  12.271   8.682
 5998SOL    HW219769   6.831  12.159   8.771
 5999SOL     OW19770  13.584   5.127  14.842
 5999SOL    HW119771  13.608   5.035  14.847
 5999SOL    HW219772  13.547   5.138  14.754
 6000SOL     OW19773   9.676  11.663  12.500
 6000SOL    HW119774   9.676  11.738  12.440
 6000SOL    HW219775   9.752  11.677  12.556
 6001SOL     OW19776  11.817  13.250   7.422
 6001SOL    HW119777  11.743  13.218   7.371
 6001SOL    HW219778  11.886  13.265   7.358
 6002SOL     OW19779   0.331  11.938  12.969
 6002SOL    HW119780   0.396  11.975  13.029
 6002SOL    HW219781   0.302  11.858  13.011
 6003SOL     OW19782   8.320   8.296   4.364
 6003SOL    HW119783   8.248   8.275   4.424
 6003SOL    HW219784   8.392   8.239   4.392
 6004SOL     OW19785   1.468   0.790  13.345
 6004SOL    HW119786   1.443   0.871  13.301
 6004SOL    HW219787   1.393   0.732  13.332
 6005SOL     OW19788   3.942   1.096   9.379
 6005SOL    HW119789   4.015   1.045   9.413
 6005SOL    HW219790   3.943   1.176   9.431
 6006SOL     OW19791   2.462  13.548   4.568
 6006SOL    HW119792   2.544  13.506   4.541
 6006SOL    HW219793   2.402  13.532   4.495
 6007SOL     OW19794  14.718   2.037   2.781
 6007SOL    HW119795  14.699   1.968   2.844
 6007SOL    HW219796  14.696   2.118   2.826
 6008SOL     OW19797   9.513   4.580  10.835
 6008SOL    HW119798   9.549   4.564  10.747
 6008SOL    HW219799   9.441   4.641  10.820
 6009SOL     OW19800  11.827   5.817  13.879
 6009SOL    HW119801  11.828   5.748  13.813
 6009SOL    HW219802  11.760   5.790  13.942
 6010SOL     OW19803   0.327  12.073  11.825
 6010SOL    HW119804   0.284  12.105  11.746
 6010SOL    HW219805   0.354  11.984  11.804
 6011SOL     OW19806  13.295  12.387   4.262
 6011SOL    HW119807  13.346  12.419   4.188
 6011SOL    HW219808  13.297  12.459   4.325
 6012SOL     OW19809  13.846   3.687   5.033
 6012SOL    HW119810  13.781   3.718   5.096
 6012SOL    HW219811  13.928   3.685   5.083
 6013SOL     OW19812  10.016   2.301  13.910
 6013SOL    HW119813  10.103   2.337  13.925
 6013SOL    HW219814  10.026   2.246  13.832
 6014SOL     OW19815   5.850  10.058  11.972
 6014SOL    HW119816   5.923  10.028  11.918
 6014SOL    HW219817   5.890  10.082  12.056
 6015SOL     OW19818   2.923  13.052   2.176
 6015SOL    HW119819   2.831  13.029   2.167
 6015SOL    HW219820   2.935  13.127   2.118
 6016SOL     OW19821  14.274  14.529   6.105
 6016SOL    HW119822  14.276  14.469   6.180
 6016SOL    HW219823  14.314  14.480   6.033
 6017SOL     OW19824  12.962   1.189   1.472
 6017SOL    HW119825  13.024   1.127   1.510
 6017SOL    HW219826  13.004   1.274   1.482
 6018SOL     OW19827   9.722  12.168  14.109
 6018SOL    HW119828   9.767  12.087  14.084
 6018SOL    HW219829   9.790  12.221  14.152
 6019SOL     OW19830  12.527  12.162   9.175
 6019SOL    HW119831  12.522  12.183   9.082
 6019SOL    HW219832  12.608  12.112   9.184
 6020SOL     OW19833  14.190   5.282   9.754
 6020SOL    HW119834  14.243   5.211   9.792
 6020SOL    HW219835  14.214   5.282   9.662
 6021SOL     OW19836   6.281   1.905   6.172
 6021SOL    HW119837   6.246   1.940   6.091
 6021SOL    HW219838   6.286   1.980   6.231
 6022SOL     OW19839   8.431   3.993   9.553
 6022SOL    HW119840   8.407   4.085   9.564
 6022SOL    HW219841   8.418   3.953   9.639
 6023SOL     OW19842   6.773  13.686   2.803
 6023SOL    HW119843   6.869  13.678   2.801
 6023SOL    HW219844   6.753  13.710   2.893
 6024SOL     OW19845   5.361  10.736   8.388
 6024SOL    HW119846   5.371  10.823   8.350
 6024SOL    HW219847   5.336  10.681   8.313
 6025SOL     OW19848   1.713  10.882   2.200
 6025SOL    HW119849   1.698  10.974   2.220
 6025SOL    HW219850   1.805  10.867   2.223
 6026SOL     OW19851   2.361  11.839   1.515
 6026SOL    HW119852   2.399  11.785   1.584
 6026SOL    HW219853   2.437  11.872   1.466
 6027SOL     OW19854   8.439  11.604   5.521
 6027SOL    HW119855   8.471  11.646   5.442
 6027SOL    HW219856   8.419  11.677   5.580
 6028SOL     OW19857   8.382   6.326   1.191
 6028SOL    HW119858   8.375   6.263   1.119
 6028SOL    HW219859   8.299   6.317   1.238
 6029SOL     OW19860   1.264  13.783   3.046
 6029SOL    HW119861   1.252  13.870   3.085
 6029SOL    HW219862   1.233  13.722   3.113
 6030SOL     OW19863   8.853   6.738   6.530
 6030SOL    HW119864   8.832   6.796   6.457
 6030SOL    HW219865   8.778   6.680   6.537
 6031SOL     OW19866   7.019   0.959   4.910
 6031SOL    HW119867   7.066   1.026   4.960
 6031SOL    HW219868   7.041   0.979   4.819
 6032SOL     OW19869   4.973  11.414  14.773
 6032SOL    HW119870   4.977  11.392  14.866
 6032SOL    HW219871   5.053  11.377  14.736
 6033SOL     OW19872  12.684  11.777   0.290
 6033SOL    HW119873  12.642  11.843   0.236
 6033SOL    HW219874  12.771  11.767   0.252
 6034SOL     OW19875  13.440   6.851   5.381
 6034SOL    HW119876  13.382   6.868   5.307
 6034SOL    HW219877  13.523   6.893   5.357
 6035SOL     OW19878  12.193  13.793  14.723
 6035SOL    HW119879  12.177  13.703  14.751
 6035SOL    HW219880  12.187  13.845  14.803
 6036SOL     OW19881   9.094   3.184  13.339
 6036SOL    HW119882   9.028   3.210  13.404
 6036SOL    HW219883   9.046   3.182  13.256
 6037SOL     OW19884  12.889   6.354   4.755
 6037SOL    HW119885  12.941   6.410   4.696
 6037SOL    HW219886  12.874   6.408   4.832
 6038SOL     OW19887   9.658   7.020  12.193
 6038SOL    HW119888   9.754   7.016  12.186
 6038SOL    HW219889   9.631   6.929  12.206
 6039SOL     OW19890   9.388   7.187   9.360
 6039SOL    HW119891   9.458   7.248   9.382
 6039SOL    HW219892   9.380   7.193   9.265
 6040SOL     OW19893   5.816   1.228  10.533
 6040SOL    HW119894   5.772   1.307  10.563
 6040SOL    HW219895   5.904   1.233  10.571
 6041SOL     OW19896   4.982   6.423   0.622
 6041SOL    HW119897   5.072   6.389   0.622
 6041SOL    HW219898   4.936   6.368   0.685
 6042SOL     OW19899   1.903   2.017   4.150
 6042SOL    HW119900   1.819   2.001   4.192
 6042SOL    HW219901   1.881   2.058   4.067
 6043SOL     OW19902  11.070   7.868  14.565
 6043SOL    HW119903  11.012   7.917  14.623
 6043SOL    HW219904  11.080   7.783  14.608
 6044SOL     OW19905   9.407   4.654   2.979
 6044SOL    HW119906   9.420   4.581   2.919
 6044SOL    HW219907   9.432   4.731   2.927
 6045SOL     OW19908   4.328  10.732   3.114
 6045SOL    HW119909   4.329  10.657   3.055
 6045SOL    HW219910   4.327  10.693   3.202
 6046SOL     OW19911   7.488   6.885  14.201
 6046SOL    HW119912   7.444   6.898  14.284
 6046SOL    HW219913   7.423   6.844  14.145
 6047SOL     OW19914   4.432   4.335  12.676
 6047SOL    HW119915   4.391   4.319  12.761
 6047SOL    HW219916   4.402   4.423  12.651
 6048SOL     OW19917  13.546  10.796   3.060
 6048SOL    HW119918  13.499  10.844   3.128
 6048SOL    HW219919  13.637  10.821   3.072
 6049SOL     OW19920   7.246   0.090   6.051
 6049SOL    HW119921   7.218   0.088   6.143
 6049SOL    HW219922   7.337   0.121   6.055
 6050SOL     OW19923  13.973  14.678   3.513
 6050SOL    HW119924  14.009  14.590   3.503
 6050SOL    HW219925  14.043  14.737   3.484
 6051SOL     OW19926   5.098   8.902  14.153
 6051SOL    HW119927   5.114   8.993  14.132
 6051SOL    HW219928   5.130   8.892  14.243
 6052SOL     OW19929   6.839   9.639  12.061
 6052SOL    HW119930   6.872   9.722  12.030
 6052SOL    HW219931   6.915   9.581  12.062
 6053SOL     OW19932   3.555  10.234   8.373
 6053SOL    HW119933   3.488  10.230   8.304
 6053SOL    HW219934   3.540  10.318   8.416
 6054SOL     OW19935   2.273  13.054   1.115
 6054SOL    HW119936   2.362  13.021   1.127
 6054SOL    HW219937   2.273  13.139   1.159
 6055SOL     OW19938   6.898   3.997   4.149
 6055SOL    HW119939   6.852   3.921   4.184
 6055SOL    HW219940   6.982   3.962   4.119
 6056SOL     OW19941   5.282   1.091   4.229
 6056SOL    HW119942   5.223   1.064   4.159
 6056SOL    HW219943   5.316   1.176   4.201
 6057SOL     OW19944   7.075   3.407  10.743
 6057SOL    HW119945   7.121   3.457  10.810
 6057SOL    HW219946   6.998   3.372  10.787
 6058SOL     OW19947   6.660  11.231  11.655
 6058SOL    HW119948   6.661  11.326  11.658
 6058SOL    HW219949   6.605  11.205  11.729
 6059SOL     OW19950   3.703  10.043  10.462
 6059SOL    HW119951   3.676   9.983  10.393
 6059SOL    HW219952   3.665  10.127  10.437
 6060SOL     OW19953   7.464   1.558  12.278
 6060SOL    HW119954   7.477   1.625  12.345
 6060SOL    HW219955   7.545   1.507  12.278
 6061SOL     OW19956  14.635  11.586  10.147
 6061SOL    HW119957  14.602  11.503  10.180
 6061SOL    HW219958  14.559  11.626  10.103
 6062SOL     OW19959   4.720   4.069  13.053
 6062SOL    HW119960   4.686   4.082  12.964
 6062SOL    HW219961   4.661   4.004  13.092
 6063SOL     OW19962  13.177   9.971   7.073
 6063SOL    HW119963  13.221   9.968   7.158
 6063SOL    HW219964  13.123  10.050   7.077
 6064SOL     OW19965   6.348  14.088   7.672
 6064SOL    HW119966   6.404  14.064   7.598
 6064SOL    HW219967   6.319  14.004   7.708
 6065SOL     OW19968   3.096  12.348   6.920
 6065SOL    HW119969   3.098  12.252   6.923
 6065SOL    HW219970   3.176  12.375   6.965
 6066SOL     OW19971  14.587  10.113  10.838
 6066SOL    HW119972  14.586  10.101  10.744
 6066SOL    HW219973  14.609  10.206  10.850
 6067SOL     OW19974   6.777   0.194   2.002
 6067SOL    HW119975   6.702   0.183   1.943
 6067SOL    HW219976   6.768   0.122   2.065
 6068SOL     OW19977  13.982   0.998   1.272
 6068SOL    HW119978  13.906   0.985   1.328
 6068SOL    HW219979  14.055   1.011   1.332
 6069SOL     OW19980   5.031  14.797  12.490
 6069SOL    HW119981   5.099  14.739  12.455
 6069SOL    HW219982   5.071  14.836  12.568
 6070SOL     OW19983  12.438   8.793   8.189
 6070SOL    HW119984  12.438   8.875   8.139
 6070SOL    HW219985  12.518   8.749   8.163
 6071SOL     OW19986  11.638   3.213   3.816
 6071SOL    HW119987  11.718   3.251   3.852
 6071SOL    HW219988  11.615   3.271   3.743
 6072SOL     OW19989   4.530   8.816   6.249
 6072SOL    HW119990   4.438   8.796   6.262
 6072SOL    HW219991   4.555   8.865   6.328
 6073SOL     OW19992   5.774  11.233   9.909
 6073SOL    HW119993   5.704  11.297   9.897
 6073SOL    HW219994   5.802  11.212   9.820
 6074SOL     OW19995  11.505  13.506  14.797
 6074SOL    HW119996  11.481  13.437  14.859
 6074SOL    HW219997  11.542  13.460  14.722
 6075SOL     OW19998  12.960   5.643  10.481
 6075SOL    HW119999  12.948   5.595  10.563
 6075SOL    HW220000  12.899   5.717  10.488
 6076SOL     OW20001  10.213   5.238   5.604
 6076SOL    HW120002  10.305   5.217   5.620
 6076SOL    HW220003  10.169   5.153   5.606
 6077SOL     OW20004  13.615  11.243   5.900
 6077SOL    HW120005  13.711  11.238   5.902
 6077SOL    HW220006  13.595  11.327   5.940
 6078SOL     OW20007   7.395  12.735  12.115
 6078SOL    HW120008   7.442  12.709  12.036
 6078SOL    HW220009   7.319  12.783  12.083
 6079SOL     OW20010   7.298  12.593  14.711
 6079SOL    HW120011   7.345  12.551  14.783
 6079SOL    HW220012   7.335  12.553  14.632
 6080SOL     OW20013   1.967   9.246   9.427
 6080SOL    HW120014   1.926   9.191   9.494
 6080SOL    HW220015   2.051   9.203   9.409
 6081SOL     OW20016   9.613   3.659   4.817
 6081SOL    HW120017   9.557   3.585   4.841
 6081SOL    HW220018   9.685   3.619   4.767
 6082SOL     OW20019   5.596  12.035   4.539
 6082SOL    HW120020   5.638  11.950   4.554
 6082SOL    HW220021   5.665  12.089   4.500
 6083SOL     OW20022  11.910   8.089   4.571
 6083SOL    HW120023  11.839   8.120   4.626
 6083SOL    HW220024  11.990   8.104   4.623
 6084SOL     OW20025   1.907  10.839   7.414
 6084SOL    HW120026   1.935  10.755   7.377
 6084SOL    HW220027   1.840  10.816   7.478
 6085SOL     OW20028   4.629   3.053  12.694
 6085SOL    HW120029   4.661   3.100  12.617
 6085SOL    HW220030   4.562   3.111  12.730
 6086SOL     OW20031  10.346   8.568   7.596
 6086SOL    HW120032  10.272   8.621   7.568
 6086SOL    HW220033  10.306   8.486   7.627
 6087SOL     OW20034   0.576  13.596   4.842
 6087SOL    HW120035   0.548  13.508   4.818
 6087SOL    HW220036   0.628  13.584   4.921
 6088SOL     OW20037  12.848  11.077   7.332
 6088SOL    HW120038  12.886  11.051   7.416
 6088SOL    HW220039  12.825  11.169   7.343
 6089SOL     OW20040   3.876  11.349   1.598
 6089SOL    HW120041   3.842  11.422   1.546
 6089SOL    HW220042   3.834  11.271   1.561
 6090SOL     OW20043   7.284   2.145  10.085
 6090SOL    HW120044   7.285   2.214  10.019
 6090SOL    HW220045   7.375   2.118  10.093
 6091SOL     OW20046   6.223  10.669   2.891
 6091SOL    HW120047   6.173  10.587   2.898
 6091SOL    HW220048   6.271  10.660   2.809
 6092SOL     OW20049   5.624   5.626  10.916
 6092SOL    HW120050   5.691   5.694  10.918
 6092SOL    HW220051   5.622   5.598  10.825
 6093SOL     OW20052   9.312  12.069   1.311
 6093SOL    HW120053   9.309  11.997   1.248
 6093SOL    HW220054   9.253  12.041   1.381
 6094SOL     OW20055   8.086   0.356  12.577
 6094SOL    HW120056   8.169   0.308  12.571
 6094SOL    HW220057   8.036   0.327  12.500
 6095SOL     OW20058   7.754   0.893   5.551
 6095SOL    HW120059   7.685   0.949   5.516
 6095SOL    HW220060   7.776   0.834   5.479
 6096SOL     OW20061  12.067  11.665   1.705
 6096SOL    HW120062  12.153  11.650   1.666
 6096SOL    HW220063  12.044  11.754   1.679
 6097SOL     OW20064   7.793   0.471  14.072
 6097SOL    HW120065   7.784   0.410  13.999
 6097SOL    HW220066   7.721   0.448  14.131
 6098SOL     OW20067   9.561   0.702   4.381
 6098SOL    HW120068   9.536   0.634   4.317
 6098SOL    HW220069   9.477   0.735   4.413
 6099SOL     OW20070  12.336  10.767  10.540
 6099SOL    HW120071  12.323  10.835  10.606
 6099SOL    HW220072  12.264  10.779  10.478
 6100SOL     OW20073   5.730   4.427   1.136
 6100SOL    HW120074   5.806   4.479   1.163
 6100SOL    HW220075   5.694   4.391   1.217
 6101SOL     OW20076  13.043   0.637  11.851
 6101SOL    HW120077  13.010   0.567  11.908
 6101SOL    HW220078  12.968   0.696  11.840
 6102SOL     OW20079  10.993  10.466   2.209
 6102SOL    HW120080  11.032  10.384   2.178
 6102SOL    HW220081  11.046  10.535   2.167
 6103SOL     OW20082  14.825  13.168   6.608
 6103SOL    HW120083  14.787  13.083   6.629
 6103SOL    HW220084  14.785  13.229   6.670
 6104SOL     OW20085  12.758   9.382   7.370
 6104SOL    HW120086  12.768   9.430   7.452
 6104SOL    HW220087  12.663   9.369   7.362
 6105SOL     OW20088   2.847   9.177   5.307
 6105SOL    HW120089   2.766   9.183   5.256
 6105SOL    HW220090   2.880   9.267   5.311
 6106SOL     OW20091  13.347   7.705   2.712
 6106SOL    HW120092  13.331   7.615   2.684
 6106SOL    HW220093  13.443   7.714   2.709
 6107SOL     OW20094   6.334   1.650   2.886
 6107SOL    HW120095   6.299   1.601   2.960
 6107SOL    HW220096   6.377   1.726   2.926
 6108SOL     OW20097   8.095   1.381   5.696
 6108SOL    HW120098   8.074   1.466   5.657
 6108SOL    HW220099   8.038   1.319   5.651
 6109SOL     OW20100  10.897   3.485   0.102
 6109SOL    HW120101  10.909   3.399   0.062
 6109SOL    HW220102  10.915   3.470   0.195
 6110SOL     OW20103   0.437  10.834  13.919
 6110SOL    HW120104   0.440  10.908  13.858
 6110SOL    HW220105   0.344  10.817  13.930
 6111SOL     OW20106  14.375   0.047  10.682
 6111SOL    HW120107  14.375   0.079  10.592
 6111SOL    HW220108  14.284   0.021  10.697
 6112SOL     OW20109  12.985   4.706  12.797
 6112SOL    HW120110  12.953   4.617  12.813
 6112SOL    HW220111  13.049   4.722  12.866
 6113SOL     OW20112   1.591  10.009  14.518
 6113SOL    HW120113   1.561  10.034  14.430
 6113SOL    HW220114   1.683  10.037  14.520
 6114SOL     OW20115   1.042  13.747   3.762
 6114SOL    HW120116   1.022  13.756   3.669
 6114SOL    HW220117   0.963  13.708   3.799
 6115SOL     OW20118   7.438  13.226   5.180
 6115SOL    HW120119   7.345  13.208   5.193
 6115SOL    HW220120   7.459  13.290   5.249
 6116SOL     OW20121  13.335  11.223   1.103
 6116SOL    HW120122  13.348  11.221   1.008
 6116SOL    HW220123  13.269  11.291   1.116
 6117SOL     OW20124   0.814   2.246   1.342
 6117SOL    HW120125   0.901   2.287   1.345
 6117SOL    HW220126   0.812   2.200   1.259
 6118SOL     OW20127  13.519   1.024   8.933
 6118SOL    HW120128  13.564   1.018   8.849
 6118SOL    HW220129  13.457   0.951   8.933
 6119SOL     OW20130  13.504   5.006   6.904
 6119SOL    HW120131  13.413   4.977   6.913
 6119SOL    HW220132  13.508   5.046   6.817
 6120SOL     OW20133   3.503   5.797  11.299
 6120SOL    HW120134   3.420   5.778  11.254
 6120SOL    HW220135   3.556   5.842  11.233
 6121SOL     OW20136   9.279   6.856  14.220
 6121SOL    HW120137   9.337   6.831  14.292
 6121SOL    HW220138   9.335   6.900  14.157
 6122SOL     OW20139  10.262   8.572   6.681
 6122SOL    HW120140  10.257   8.603   6.591
 6122SOL    HW220141  10.203   8.630   6.729
 6123SOL     OW20142   0.349   2.017  14.436
 6123SOL    HW120143   0.401   1.938  14.455
 6123SOL    HW220144   0.284   1.988  14.372
 6124SOL     OW20145   8.807   5.193   7.498
 6124SOL    HW120146   8.832   5.260   7.435
 6124SOL    HW220147   8.889   5.162   7.535
 6125SOL     OW20148   0.336   5.331   2.387
 6125SOL    HW120149   0.424   5.309   2.359
 6125SOL    HW220150   0.323   5.422   2.358
 6126SOL     OW20151   2.020  13.225   3.273
 6126SOL    HW120152   2.100  13.262   3.236
 6126SOL    HW220153   2.001  13.149   3.218
 6127SOL     OW20154   7.203   2.939   8.873
 6127SOL    HW120155   7.291   2.972   8.857
 6127SOL    HW220156   7.186   2.962   8.964
 6128SOL     OW20157   4.294   3.226   2.458
 6128SOL    HW120158   4.321   3.242   2.548
 6128SOL    HW220159   4.371   3.247   2.406
 6129SOL     OW20160   2.206  11.296  13.626
 6129SOL    HW120161   2.237  11.261  13.542
 6129SOL    HW220162   2.151  11.226  13.661
 6130SOL     OW20163   0.863   2.725   0.891
 6130SOL    HW120164   0.840   2.811   0.855
 6130SOL    HW220165   0.872   2.741   0.985
 6131SOL     OW20166  13.219   2.297   7.105
 6131SOL    HW120167  13.253   2.386   7.113
 6131SOL    HW220168  13.253   2.266   7.021
 6132SOL     OW20169  13.095  14.835  10.312
 6132SOL    HW120170  13.022  14.800  10.260
 6132SOL    HW220171  13.064  14.832  10.402
 6133SOL     OW20172   2.237   4.138  12.097
 6133SOL    HW120173   2.142   4.149  12.107
 6133SOL    HW220174   2.250   4.044  12.089
 6134SOL     OW20175   1.392   2.742   6.672
 6134SOL    HW120176   1.461   2.739   6.605
 6134SOL    HW220177   1.370   2.650   6.687
 6135SOL     OW20178  13.772   0.870   3.802
 6135SOL    HW120179  13.733   0.809   3.864
 6135SOL    HW220180  13.707   0.877   3.732
 6136SOL     OW20181  12.099  13.650  10.458
 6136SOL    HW120182  12.021  13.699  10.432
 6136SOL    HW220183  12.172  13.705  10.430
 6137SOL     OW20184   6.539   0.454   8.050
 6137SOL    HW120185   6.598   0.391   8.009
 6137SOL    HW220186   6.542   0.531   7.993
 6138SOL     OW20187  13.011   3.620   6.016
 6138SOL    HW120188  13.077   3.608   6.085
 6138SOL    HW220189  13.046   3.572   5.941
 6139SOL     OW20190  12.667   8.991  11.396
 6139SOL    HW120191  12.606   9.062  11.378
 6139SOL    HW220192  12.706   8.970  11.311
 6140SOL     OW20193   7.859  11.956  14.589
 6140SOL    HW120194   7.836  12.042  14.554
 6140SOL    HW220195   7.953  11.961  14.606
 6141SOL     OW20196   7.925  14.383  11.657
 6141SOL    HW120197   8.015  14.365  11.683
 6141SOL    HW220198   7.925  14.473  11.626
 6142SOL     OW20199   7.011   0.174   0.710
 6142SOL    HW120200   7.056   0.258   0.717
 6142SOL    HW220201   7.018   0.135   0.797
 6143SOL     OW20202   9.280   3.597   4.822
 6143SOL    HW120203   9.209   3.536   4.843
 6143SOL    HW220204   9.357   3.558   4.863
 6144SOL     OW20205   0.380   5.991  14.178
 6144SOL    HW120206   0.444   5.955  14.239
 6144SOL    HW220207   0.370   6.082  14.206
 6145SOL     OW20208   0.658   2.522   7.498
 6145SOL    HW120209   0.571   2.561   7.497
 6145SOL    HW220210   0.699   2.557   7.577
 6146SOL     OW20211  12.506  11.477   6.448
 6146SOL    HW120212  12.475  11.516   6.529
 6146SOL    HW220213  12.459  11.524   6.379
 6147SOL     OW20214   0.262  10.921  10.761
 6147SOL    HW120215   0.285  10.911  10.669
 6147SOL    HW220216   0.343  10.901  10.808
 6148SOL     OW20217   9.823   8.920   4.317
 6148SOL    HW120218   9.770   8.841   4.324
 6148SOL    HW220219   9.846   8.925   4.224
 6149SOL     OW20220  11.269   2.082  10.871
 6149SOL    HW120221  11.284   2.177  10.878
 6149SOL    HW220222  11.205   2.063  10.939
 6150SOL     OW20223   8.401   0.095   0.146
 6150SOL    HW120224   8.430   0.172   0.195
 6150SOL    HW220225   8.459   0.025   0.175
 6151SOL     OW20226   6.631   7.564   5.785
 6151SOL    HW120227   6.637   7.659   5.778
 6151SOL    HW220228   6.708   7.539   5.836
 6152SOL     OW20229   4.765   8.430   5.899
 6152SOL    HW120230   4.739   8.497   5.962
 6152SOL    HW220231   4.776   8.477   5.817
 6153SOL     OW20232  11.778   9.235   8.578
 6153SOL    HW120233  11.782   9.189   8.662
 6153SOL    HW220234  11.839   9.187   8.521
 6154SOL     OW20235  14.697   0.698   1.953
 6154SOL    HW120236  14.696   0.771   1.891
 6154SOL    HW220237  14.677   0.738   2.038
 6155SOL     OW20238  13.519   1.563   9.934
 6155SOL    HW120239  13.580   1.614   9.880
 6155SOL    HW220240  13.575   1.518   9.997
 6156SOL     OW20241   1.237   8.688   9.247
 6156SOL    HW120242   1.230   8.661   9.156
 6156SOL    HW220243   1.146   8.703   9.275
 6157SOL     OW20244  13.919  10.479   6.520
 6157SOL    HW120245  13.969  10.414   6.570
 6157SOL    HW220246  13.883  10.430   6.446
 6158SOL     OW20247  12.473   9.512  11.019
 6158SOL    HW120248  12.418   9.529  11.095
 6158SOL    HW220249  12.479   9.416  11.015
 6159SOL     OW20250  13.154   6.203   9.915
 6159SOL    HW120251  13.089   6.221   9.983
 6159SOL    HW220252  13.103   6.199   9.834
 6160SOL     OW20253  11.816  14.683   2.164
 6160SOL    HW120254  11.896  14.731   2.184
 6160SOL    HW220255  11.782  14.724   2.085
 6161SOL     OW20256   0.196   2.522   7.684
 6161SOL    HW120257   0.208   2.435   7.722
 6161SOL    HW220258   0.285   2.555   7.672
 6162SOL     OW20259   4.217   8.456   5.362
 6162SOL    HW120260   4.163   8.503   5.426
 6162SOL    HW220261   4.185   8.487   5.277
 6163SOL     OW20262  10.768   4.679   2.177
 6163SOL    HW120263  10.855   4.706   2.208
 6163SOL    HW220264  10.784   4.595   2.132
 6164SOL     OW20265   8.167   4.852   6.748
 6164SOL    HW120266   8.079   4.820   6.768
 6164SOL    HW220267   8.169   4.855   6.652
 6165SOL     OW20268   3.641   5.953   4.174
 6165SOL    HW120269   3.620   5.890   4.105
 6165SOL    HW220270   3.606   5.913   4.254
 6166SOL     OW20271   6.714   1.444  14.465
 6166SOL    HW120272   6.629   1.469  14.428
 6166SOL    HW220273   6.708   1.350  14.476
 6167SOL     OW20274  13.385   5.983  12.726
 6167SOL    HW120275  13.463   6.012  12.773
 6167SOL    HW220276  13.374   5.891  12.754
 6168SOL     OW20277  13.741  13.829  10.170
 6168SOL    HW120278  13.740  13.915  10.127
 6168SOL    HW220279  13.723  13.849  10.262
 6169SOL     OW20280  12.616   1.095   7.159
 6169SOL    HW120281  12.574   1.171   7.119
 6169SOL    HW220282  12.647   1.042   7.085
 6170SOL     OW20283  11.750   9.170  13.198
 6170SOL    HW120284  11.666   9.149  13.159
 6170SOL    HW220285  11.815   9.126  13.143
 6171SOL     OW20286   7.005   3.902   3.731
 6171SOL    HW120287   7.032   3.989   3.759
 6171SOL    HW220288   7.074   3.873   3.671
 6172SOL     OW20289  14.047   6.758   0.778
 6172SOL    HW120290  14.057   6.663   0.785
 6172SOL    HW220291  14.099   6.794   0.850
 6173SOL     OW20292  14.072  10.961  12.810
 6173SOL    HW120293  14.024  10.891  12.766
 6173SOL    HW220294  14.004  11.020  12.844
 6174SOL     OW20295  13.429   9.908   3.475
 6174SOL    HW120296  13.341   9.881   3.498
 6174SOL    HW220297  13.484   9.877   3.548
 6175SOL     OW20298   1.395  14.616  11.718
 6175SOL    HW120299   1.461  14.601  11.787
 6175SOL    HW220300   1.446  14.646  11.643
 6176SOL     OW20301   2.216   5.414   0.602
 6176SOL    HW120302   2.283   5.402   0.669
 6176SOL    HW220303   2.204   5.326   0.565
 6177SOL     OW20304  11.055  11.321   3.068
 6177SOL    HW120305  10.963  11.312   3.095
 6177SOL    HW220306  11.103  11.326   3.151
 6178SOL     OW20307  11.149   1.326  10.112
 6178SOL    HW120308  11.087   1.261  10.145
 6178SOL    HW220309  11.206   1.344  10.187
 6179SOL     OW20310   8.640   5.658   5.748
 6179SOL    HW120311   8.621   5.595   5.817
 6179SOL    HW220312   8.680   5.605   5.678
 6180SOL     OW20313   3.846   1.048  13.775
 6180SOL    HW120314   3.936   1.048  13.742
 6180SOL    HW220315   3.794   1.018  13.700
 6181SOL     OW20316  14.021   9.187  11.525
 6181SOL    HW120317  14.026   9.236  11.607
 6181SOL    HW220318  14.020   9.255  11.457
 6182SOL     OW20319  12.554  12.034   7.701
 6182SOL    HW120320  12.593  11.989   7.625
 6182SOL    HW220321  12.583  11.983   7.776
 6183SOL     OW20322   2.271   0.595   3.707
 6183SOL    HW120323   2.177   0.583   3.722
 6183SOL    HW220324   2.312   0.519   3.748
 6184SOL     OW20325   1.386   8.170  10.511
 6184SOL    HW120326   1.341   8.086  10.519
 6184SOL    HW220327   1.474   8.148  10.481
 6185SOL     OW20328   3.068   2.014   7.655
 6185SOL    HW120329   3.135   2.062   7.704
 6185SOL    HW220330   2.997   2.000   7.717
 6186SOL     OW20331   5.475   8.007   0.957
 6186SOL    HW120332   5.381   8.000   0.971
 6186SOL    HW220333   5.513   8.004   1.045
 6187SOL     OW20334  11.526   0.730  10.038
 6187SOL    HW120335  11.613   0.719  10.001
 6187SOL    HW220336  11.482   0.646  10.023
 6188SOL     OW20337   3.255  11.214  12.626
 6188SOL    HW120338   3.337  11.210  12.675
 6188SOL    HW220339   3.276  11.178  12.540
 6189SOL     OW20340  11.084   8.168   6.489
 6189SOL    HW120341  10.997   8.196   6.515
 6189SOL    HW220342  11.136   8.248   6.484
 6190SOL     OW20343   0.451  13.953  13.352
 6190SOL    HW120344   0.496  13.870  13.372
 6190SOL    HW220345   0.518  14.020  13.365
 6191SOL     OW20346   5.707   9.804   0.019
 6191SOL    HW120347   5.658   9.876   0.060
 6191SOL    HW220348   5.677   9.804  14.805
 6192SOL     OW20349   3.870   5.555   4.375
 6192SOL    HW120350   3.775   5.550   4.359
 6192SOL    HW220351   3.884   5.645   4.405
 6193SOL     OW20352   6.379  12.357   8.482
 6193SOL    HW120353   6.421  12.306   8.551
 6193SOL    HW220354   6.298  12.388   8.522
 6194SOL     OW20355   5.066  10.048  10.421
 6194SOL    HW120356   5.067   9.977  10.357
 6194SOL    HW220357   5.141  10.030  10.478
 6195SOL     OW20358  10.321   0.305  13.222
 6195SOL    HW120359  10.308   0.375  13.157
 6195SOL    HW220360  10.416   0.290  13.222
 6196SOL     OW20361   3.398   3.928  11.234
 6196SOL    HW120362   3.435   3.922  11.323
 6196SOL    HW220363   3.305   3.943  11.248
 6197SOL     OW20364   7.001   9.713   0.701
 6197SOL    HW120365   7.013   9.681   0.612
 6197SOL    HW220366   7.084   9.697   0.745
 6198SOL     OW20367   5.804  14.340   4.064
 6198SOL    HW120368   5.781  14.279   4.135
 6198SOL    HW220369   5.897  14.358   4.079
 6199SOL     OW20370   2.503   6.703   6.892
 6199SOL    HW120371   2.415   6.731   6.866
 6199SOL    HW220372   2.491   6.614   6.925
 6200SOL     OW20373   7.065   0.092   0.972
 6200SOL    HW120374   7.153   0.056   0.983
 6200SOL    HW220375   7.008   0.031   1.018
 6201SOL     OW20376   3.356   6.667   7.220
 6201SOL    HW120377   3.268   6.650   7.187
 6201SOL    HW220378   3.409   6.598   7.181
 6202SOL     OW20379   5.379  11.585   6.275
 6202SOL    HW120380   5.419  11.580   6.361
 6202SOL    HW220381   5.431  11.649   6.227
 6203SOL     OW20382   5.313   1.955   8.730
 6203SOL    HW120383   5.271   1.960   8.816
 6203SOL    HW220384   5.359   2.038   8.720
 6204SOL     OW20385  13.722   0.593   3.097
 6204SOL    HW120386  13.748   0.585   3.006
 6204SOL    HW220387  13.630   0.565   3.099
 6205SOL     OW20388  13.616  10.429  10.688
 6205SOL    HW120389  13.530  10.430  10.646
 6205SOL    HW220390  13.650  10.518  10.679
 6206SOL     OW20391   0.332   8.600   5.456
 6206SOL    HW120392   0.344   8.546   5.534
 6206SOL    HW220393   0.335   8.539   5.383
 6207SOL     OW20394   8.550   1.895  14.129
 6207SOL    HW120395   8.626   1.893  14.186
 6207SOL    HW220396   8.483   1.845  14.175
 6208SOL     OW20397  14.686  11.477  12.667
 6208SOL    HW120398  14.742  11.552  12.685
 6208SOL    HW220399  14.683  11.471  12.572
 6209SOL     OW20400  14.465   2.124  10.237
 6209SOL    HW120401  14.478   2.199  10.295
 6209SOL    HW220402  14.449   2.163  10.151
 6210SOL     OW20403  14.616  14.426   5.315
 6210SOL    HW120404  14.536  14.373   5.316
 6210SOL    HW220405  14.599  14.493   5.249
 6211SOL     OW20406   5.373  14.125   9.426
 6211SOL    HW120407   5.357  14.133   9.520
 6211SOL    HW220408   5.301  14.070   9.394
 6212SOL     OW20409  12.867   6.661   5.859
 6212SOL    HW120410  12.852   6.567   5.861
 6212SOL    HW220411  12.780   6.700   5.873
 6213SOL     OW20412   6.388  14.658   2.329
 6213SOL    HW120413   6.465  14.606   2.307
 6213SOL    HW220414   6.378  14.646   2.423
 6214SOL     OW20415  10.913  11.470  13.371
 6214SOL    HW120416  10.977  11.526  13.326
 6214SOL    HW220417  10.966  11.402  13.412
 6215SOL     OW20418   9.516   2.075   2.751
 6215SOL    HW120419   9.599   2.045   2.788
 6215SOL    HW220420   9.454   2.005   2.770
 6216SOL     OW20421   9.823   5.254  10.443
 6216SOL    HW120422   9.856   5.191  10.506
 6216SOL    HW220423   9.791   5.201  10.370
 6217SOL     OW20424   9.290   4.718   6.504
 6217SOL    HW120425   9.291   4.811   6.481
 6217SOL    HW220426   9.364   4.681   6.456
 6218SOL     OW20427   4.460  12.954  12.258
 6218SOL    HW120428   4.414  12.978  12.338
 6218SOL    HW220429   4.395  12.907  12.206
 6219SOL     OW20430   7.854  11.416   8.172
 6219SOL    HW120431   7.852  11.335   8.223
 6219SOL    HW220432   7.762  11.435   8.155
 6220SOL     OW20433   9.167   8.187   0.492
 6220SOL    HW120434   9.187   8.202   0.584
 6220SOL    HW220435   9.238   8.231   0.445
 6221SOL     OW20436   2.243  11.738   3.779
 6221SOL    HW120437   2.314  11.796   3.752
 6221SOL    HW220438   2.163  11.788   3.760
 6222SOL     OW20439  11.839  11.878  14.037
 6222SOL    HW120440  11.912  11.905  13.981
 6222SOL    HW220441  11.842  11.782  14.035
 6223SOL     OW20442   6.615  11.649  14.166
 6223SOL    HW120443   6.563  11.725  14.139
 6223SOL    HW220444   6.690  11.687  14.212
 6224SOL     OW20445   5.823   4.284  13.563
 6224SOL    HW120446   5.796   4.375  13.564
 6224SOL    HW220447   5.823   4.258  13.655
 6225SOL     OW20448   0.927   5.145   3.373
 6225SOL    HW120449   0.967   5.193   3.445
 6225SOL    HW220450   0.843   5.115   3.407
 6226SOL     OW20451  12.237  12.749   4.730
 6226SOL    HW120452  12.170  12.681   4.735
 6226SOL    HW220453  12.200  12.823   4.779
 6227SOL     OW20454   8.890   5.389   0.149
 6227SOL    HW120455   8.799   5.408   0.171
 6227SOL    HW220456   8.886   5.311   0.094
 6228SOL     OW20457  12.251   5.203  11.986
 6228SOL    HW120458  12.296   5.191  12.070
 6228SOL    HW220459  12.161   5.225  12.010
 6229SOL     OW20460  11.399  12.084   9.325
 6229SOL    HW120461  11.407  12.135   9.406
 6229SOL    HW220462  11.486  12.045   9.313
 6230SOL     OW20463  13.974   4.833   5.855
 6230SOL    HW120464  13.994   4.772   5.926
 6230SOL    HW220465  13.879   4.827   5.845
 6231SOL     OW20466   2.741  10.941   6.502
 6231SOL    HW120467   2.691  10.892   6.567
 6231SOL    HW220468   2.805  10.990   6.554
 6232SOL     OW20469   6.958   3.480   9.905
 6232SOL    HW120470   7.037   3.439   9.941
 6232SOL    HW220471   6.948   3.561   9.956
 6233SOL     OW20472   6.681  11.313   7.300
 6233SOL    HW120473   6.688  11.387   7.361
 6233SOL    HW220474   6.771  11.295   7.274
 6234SOL     OW20475  11.465   0.884   0.886
 6234SOL    HW120476  11.471   0.798   0.927
 6234SOL    HW220477  11.442   0.944   0.957
 6235SOL     OW20478   7.207   1.706  13.422
 6235SOL    HW120479   7.170   1.627  13.383
 6235SOL    HW220480   7.288   1.721  13.372
 6236SOL     OW20481   3.621   7.340  14.308
 6236SOL    HW120482   3.564   7.379  14.241
 6236SOL    HW220483   3.695   7.305  14.258
 6237SOL     OW20484   1.790   3.058  13.251
 6237SOL    HW120485   1.702   3.079  13.283
 6237SOL    HW220486   1.841   3.138  13.267
 6238SOL     OW20487  11.297  11.920   9.119
 6238SOL    HW120488  11.340  11.982   9.178
 6238SOL    HW220489  11.313  11.834   9.159
 6239SOL     OW20490   7.274   8.608   2.672
 6239SOL    HW120491   7.288   8.539   2.736
 6239SOL    HW220492   7.183   8.635   2.684
 6240SOL     OW20493  12.893   3.215   0.970
 6240SOL    HW120494  12.849   3.230   1.054
 6240SOL    HW220495  12.963   3.279   0.967
 6241SOL     OW20496  11.916   0.454   1.139
 6241SOL    HW120497  12.005   0.477   1.113
 6241SOL    HW220498  11.899   0.370   1.096
 6242SOL     OW20499  12.724   6.774  12.051
 6242SOL    HW120500  12.708   6.769  12.145
 6242SOL    HW220501  12.791   6.842  12.042
 6243SOL     OW20502   2.675   7.433   9.259
 6243SOL    HW120503   2.596   7.434   9.205
 6243SOL    HW220504   2.670   7.514   9.311
 6244SOL     OW20505  12.480   7.643   3.250
 6244SOL    HW120506  12.419   7.584   3.206
 6244SOL    HW220507  12.549   7.659   3.185
 6245SOL     OW20508  13.759  14.716  14.169
 6245SOL    HW120509  13.701  14.690  14.097
 6245SOL    HW220510  13.731  14.804  14.192
 6246SOL     OW20511  14.534  12.979   2.639
 6246SOL    HW120512  14.532  12.903   2.581
 6246SOL    HW220513  14.469  12.960   2.707
 6247SOL     OW20514   9.125   3.810   9.452
 6247SOL    HW120515   9.218   3.818   9.475
 6247SOL    HW220516   9.088   3.895   9.475
 6248SOL     OW20517   2.684   8.986  11.458
 6248SOL    HW120518   2.724   9.072  11.439
 6248SOL    HW220519   2.665   8.989  11.552
 6249SOL     OW20520  12.768   3.165   7.552
 6249SOL    HW120521  12.676   3.192   7.557
 6249SOL    HW220522  12.769   3.079   7.595
 6250SOL     OW20523  10.418  11.222   9.190
 6250SOL    HW120524  10.324  11.204   9.178
 6250SOL    HW220525  10.429  11.312   9.160
 6251SOL     OW20526   0.060   9.714   9.519
 6251SOL    HW120527   0.131   9.658   9.551
 6251SOL    HW220528  14.859   9.677   9.558
 6252SOL     OW20529   2.072   9.130   0.002
 6252SOL    HW120530   2.000   9.188   0.025
 6252SOL    HW220531   2.150   9.184   0.013
 6253SOL     OW20532   0.427   2.714   0.535
 6253SOL    HW120533   0.453   2.778   0.470
 6253SOL    HW220534   0.372   2.652   0.486
 6254SOL     OW20535   3.795   0.283  11.482
 6254SOL    HW120536   3.885   0.313  11.476
 6254SOL    HW220537   3.778   0.275  11.576
 6255SOL     OW20538  14.357   7.748   0.709
 6255SOL    HW120539  14.274   7.700   0.700
 6255SOL    HW220540  14.424   7.680   0.710
 6256SOL     OW20541   9.496   8.820   7.148
 6256SOL    HW120542   9.583   8.844   7.180
 6256SOL    HW220543   9.439   8.892   7.177
 6257SOL     OW20544   9.191   3.061  11.842
 6257SOL    HW120545   9.251   3.098  11.907
 6257SOL    HW220546   9.106   3.098  11.865
 6258SOL     OW20547  14.581   3.829   9.990
 6258SOL    HW120548  14.494   3.825   9.950
 6258SOL    HW220549  14.620   3.908   9.953
 6259SOL     OW20550   0.001   0.483   4.674
 6259SOL    HW120551  14.857   0.501   4.582
 6259SOL    HW220552   0.051   0.560   4.702
 6260SOL     OW20553   6.260   3.618   5.686
 6260SOL    HW120554   6.261   3.625   5.591
 6260SOL    HW220555   6.167   3.621   5.709
 6261SOL     OW20556  14.497  13.867   0.893
 6261SOL    HW120557  14.530  13.944   0.939
 6261SOL    HW220558  14.519  13.883   0.801
 6262SOL     OW20559   0.895   2.784  12.788
 6262SOL    HW120560   0.850   2.851  12.839
 6262SOL    HW220561   0.941   2.731  12.852
 6263SOL     OW20562  14.758   3.400  14.558
 6263SOL    HW120563  14.734   3.344  14.632
 6263SOL    HW220564  14.791   3.339  14.492
 6264SOL     OW20565  10.549  12.852   9.755
 6264SOL    HW120566  10.481  12.824   9.817
 6264SOL    HW220567  10.629  12.810   9.787
 6265SOL     OW20568   2.091   2.935   8.496
 6265SOL    HW120569   2.104   3.023   8.461
 6265SOL    HW220570   2.022   2.946   8.562
 6266SOL     OW20571   1.677   7.662   4.597
 6266SOL    HW120572   1.619   7.735   4.578
 6266SOL    HW220573   1.700   7.627   4.511
 6267SOL     OW20574  14.522   7.538   9.274
 6267SOL    HW120575  14.440   7.584   9.290
 6267SOL    HW220576  14.505   7.449   9.304
 6268SOL     OW20577   4.661  11.759   1.399
 6268SOL    HW120578   4.698  11.823   1.339
 6268SOL    HW220579   4.588  11.720   1.351
 6269SOL     OW20580  12.815   4.224   4.388
 6269SOL    HW120581  12.720   4.213   4.376
 6269SOL    HW220582  12.825   4.233   4.483
 6270SOL     OW20583   2.641   0.062   9.113
 6270SOL    HW120584   2.684   0.100   9.190
 6270SOL    HW220585   2.571   0.123   9.093
 6271SOL     OW20586  13.584   1.103  13.161
 6271SOL    HW120587  13.496   1.081  13.192
 6271SOL    HW220588  13.571   1.174  13.098
 6272SOL     OW20589   5.856  11.127   8.345
 6272SOL    HW120590   5.806  11.060   8.392
 6272SOL    HW220591   5.874  11.194   8.411
 6273SOL     OW20592   4.451   4.123  11.501
 6273SOL    HW120593   4.394   4.195  11.477
 6273SOL    HW220594   4.472   4.080  11.417
 6274SOL     OW20595  11.619   4.577  13.541
 6274SOL    HW120596  11.546   4.594  13.482
 6274SOL    HW220597  11.584   4.594  13.629
 6275SOL     OW20598   8.205   2.174  11.304
 6275SOL    HW120599   8.170   2.207  11.221
 6275SOL    HW220600   8.129   2.159  11.359
 6276SOL     OW20601   4.240   4.022   4.416
 6276SOL    HW120602   4.243   4.107   4.461
 6276SOL    HW220603   4.148   3.998   4.416
 6277SOL     OW20604  12.425   2.160  10.671
 6277SOL    HW120605  12.419   2.234  10.731
 6277SOL    HW220606  12.508   2.118  10.692
 6278SOL     OW20607   1.372   6.367  10.872
 6278SOL    HW120608   1.344   6.353  10.963
 6278SOL    HW220609   1.292   6.352  10.820
 6279SOL     OW20610   6.166   5.707  13.602
 6279SOL    HW120611   6.200   5.625  13.566
 6279SOL    HW220612   6.120   5.749  13.530
 6280SOL     OW20613   4.537   7.200  12.026
 6280SOL    HW120614   4.521   7.137  11.955
 6280SOL    HW220615   4.456   7.251  12.030
 6281SOL     OW20616  10.123   0.477   4.503
 6281SOL    HW120617  10.090   0.391   4.477
 6281SOL    HW220618  10.216   0.474   4.481
 6282SOL     OW20619   4.888  12.726   2.131
 6282SOL    HW120620   4.910  12.815   2.103
 6282SOL    HW220621   4.904  12.726   2.225
 6283SOL     OW20622   4.098   1.840   7.325
 6283SOL    HW120623   4.116   1.902   7.254
 6283SOL    HW220624   4.004   1.848   7.340
 6284SOL     OW20625  13.469   4.794  14.853
 6284SOL    HW120626  13.432   4.793  14.765
 6284SOL    HW220627  13.433   4.873   0.016
 6285SOL     OW20628  11.168   7.686   6.383
 6285SOL    HW120629  11.243   7.716   6.434
 6285SOL    HW220630  11.101   7.753   6.396
 6286SOL     OW20631  12.002  13.368  14.520
 6286SOL    HW120632  12.019  13.335  14.608
 6286SOL    HW220633  12.075  13.427  14.502
 6287SOL     OW20634   3.993   1.297   3.327
 6287SOL    HW120635   3.958   1.220   3.283
 6287SOL    HW220636   4.058   1.263   3.389
 6288SOL     OW20637   7.405  12.025  13.959
 6288SOL    HW120638   7.479  12.018  14.019
 6288SOL    HW220639   7.445  12.031  13.873
 6289SOL     OW20640  13.426   3.775  11.375
 6289SOL    HW120641  13.385   3.780  11.461
 6289SOL    HW220642  13.353   3.762  11.314
 6290SOL     OW20643  14.482   5.484   0.318
 6290SOL    HW120644  14.485   5.522   0.406
 6290SOL    HW220645  14.446   5.554   0.264
 6291SOL     OW20646  12.092   4.241   4.427
 6291SOL    HW120647  12.111   4.163   4.376
 6291SOL    HW220648  12.166   4.250   4.487
 6292SOL     OW20649   5.241   5.566  13.004
 6292SOL    HW120650   5.325   5.535  12.968
 6292SOL    HW220651   5.200   5.487  13.039
 6293SOL     OW20652   6.448   7.835  10.509
 6293SOL    HW120653   6.471   7.928  10.508
 6293SOL    HW220654   6.531   7.790  10.525
 6294SOL     OW20655  13.183   5.765   4.838
 6294SOL    HW120656  13.217   5.824   4.770
 6294SOL    HW220657  13.159   5.685   4.790
 6295SOL     OW20658  14.519  13.467  11.130
 6295SOL    HW120659  14.492  13.375  11.129
 6295SOL    HW220660  14.437  13.516  11.130
 6296SOL     OW20661   2.862   9.152   1.751
 6296SOL    HW120662   2.824   9.215   1.688
 6296SOL    HW220663   2.788   9.126   1.806
 6297SOL     OW20664  14.070   9.469  12.220
 6297SOL    HW120665  14.039   9.503  12.137
 6297SOL    HW220666  14.140   9.529  12.246
 6298SOL     OW20667   8.384  12.112   5.574
 6298SOL    HW120668   8.331  12.155   5.508
 6298SOL    HW220669   8.457  12.173   5.590
 6299SOL     OW20670  14.271   2.700  12.811
 6299SOL    HW120671  14.282   2.795  12.815
 6299SOL    HW220672  14.179   2.686  12.832
 6300SOL     OW20673   6.242  12.708   8.388
 6300SOL    HW120674   6.193  12.786   8.413
 6300SOL    HW220675   6.310  12.741   8.329
 6301SOL     OW20676   7.275   7.859   2.562
 6301SOL    HW120677   7.262   7.764   2.570
 6301SOL    HW220678   7.364   7.868   2.529
 6302SOL     OW20679   7.056  12.125   6.245
 6302SOL    HW120680   7.028  12.042   6.284
 6302SOL    HW220681   7.118  12.099   6.177
 6303SOL     OW20682   3.892   9.406  13.483
 6303SOL    HW120683   3.870   9.378  13.572
 6303SOL    HW220684   3.939   9.332  13.446
 6304SOL     OW20685   4.612   5.311   2.888
 6304SOL    HW120686   4.633   5.405   2.883
 6304SOL    HW220687   4.540   5.300   2.825
 6305SOL     OW20688   2.727  12.845   0.989
 6305SOL    HW120689   2.787  12.877   0.921
 6305SOL    HW220690   2.652  12.811   0.940
 6306SOL     OW20691   3.881   0.756  11.397
 6306SOL    HW120692   3.956   0.757  11.456
 6306SOL    HW220693   3.901   0.822  11.331
 6307SOL     OW20694  14.178  12.246   3.209
 6307SOL    HW120695  14.255  12.196   3.234
 6307SOL    HW220696  14.160  12.219   3.119
 6308SOL     OW20697  12.439   6.818   7.120
 6308SOL    HW120698  12.478   6.738   7.156
 6308SOL    HW220699  12.513   6.878   7.112
 6309SOL     OW20700   4.990   6.041   4.054
 6309SOL    HW120701   4.928   6.110   4.029
 6309SOL    HW220702   5.026   6.069   4.137
 6310SOL     OW20703  11.256   8.099   4.953
 6310SOL    HW120704  11.163   8.117   4.964
 6310SOL    HW220705  11.298   8.185   4.956
 6311SOL     OW20706   3.508  10.188  10.125
 6311SOL    HW120707   3.449  10.126  10.082
 6311SOL    HW220708   3.585  10.191  10.068
 6312SOL     OW20709  11.204   1.626  10.598
 6312SOL    HW120710  11.293   1.604  10.573
 6312SOL    HW220711  11.152   1.611  10.520
 6313SOL     OW20712   3.894   7.222   2.630
 6313SOL    HW120713   3.835   7.148   2.641
 6313SOL    HW220714   3.915   7.223   2.537
 6314SOL     OW20715   7.029   0.971   4.622
 6314SOL    HW120716   7.081   1.047   4.596
 6314SOL    HW220717   6.940   0.991   4.596
 6315SOL     OW20718   3.737  13.208  13.252
 6315SOL    HW120719   3.775  13.280  13.303
 6315SOL    HW220720   3.804  13.140  13.253
 6316SOL     OW20721   2.661  11.150   3.768
 6316SOL    HW120722   2.733  11.213   3.777
 6316SOL    HW220723   2.640  11.152   3.675
 6317SOL     OW20724   8.957  14.039   7.756
 6317SOL    HW120725   8.909  14.114   7.793
 6317SOL    HW220726   9.029  14.079   7.708
 6318SOL     OW20727   6.750  14.523   6.126
 6318SOL    HW120728   6.796  14.439   6.126
 6318SOL    HW220729   6.752  14.551   6.034
 6319SOL     OW20730   4.228   8.461   4.970
 6319SOL    HW120731   4.303   8.459   5.030
 6319SOL    HW220732   4.156   8.494   5.023
 6320SOL     OW20733   1.969  11.085  14.227
 6320SOL    HW120734   1.892  11.122  14.184
 6320SOL    HW220735   1.945  10.994  14.246
 6321SOL     OW20736  12.090   7.230  14.719
 6321SOL    HW120737  12.159   7.166  14.700
 6321SOL    HW220738  12.015   7.176  14.746
 6322SOL     OW20739  14.057   0.818   8.094
 6322SOL    HW120740  14.004   0.897   8.108
 6322SOL    HW220741  14.045   0.796   8.002
 6323SOL     OW20742   6.517   5.524   5.978
 6323SOL    HW120743   6.565   5.508   5.896
 6323SOL    HW220744   6.583   5.560   6.038
 6324SOL     OW20745  14.777   2.185  10.225
 6324SOL    HW120746  14.801   2.261  10.279
 6324SOL    HW220747  14.704   2.217  10.172
 6325SOL     OW20748  13.625   9.869   7.249
 6325SOL    HW120749  13.573   9.887   7.171
 6325SOL    HW220750  13.713   9.848   7.215
 6326SOL     OW20751   1.296   8.439   7.686
 6326SOL    HW120752   1.388   8.419   7.671
 6326SOL    HW220753   1.251   8.356   7.670
 6327SOL     OW20754   0.244  12.766  12.533
 6327SOL    HW120755   0.281  12.809  12.456
 6327SOL    HW220756   0.205  12.685  12.499
 6328SOL     OW20757   7.175   3.559   7.336
 6328SOL    HW120758   7.171   3.474   7.292
 6328SOL    HW220759   7.183   3.623   7.266
 6329SOL     OW20760   0.414   5.606   5.484
 6329SOL    HW120761   0.464   5.598   5.565
 6329SOL    HW220762   0.480   5.606   5.415
 6330SOL     OW20763  11.836   8.232   5.588
 6330SOL    HW120764  11.822   8.230   5.493
 6330SOL    HW220765  11.767   8.289   5.622
 6331SOL     OW20766   6.622   5.688   2.118
 6331SOL    HW120767   6.663   5.772   2.139
 6331SOL    HW220768   6.693   5.624   2.125
 6332SOL     OW20769   3.446   1.474  12.578
 6332SOL    HW120770   3.358   1.435  12.583
 6332SOL    HW220771   3.506   1.401  12.589
 6333SOL     OW20772  13.116   6.478  11.012
 6333SOL    HW120773  13.199   6.432  10.999
 6333SOL    HW220774  13.135   6.544  11.078
 6334SOL     OW20775   0.622   8.974  12.394
 6334SOL    HW120776   0.704   8.927  12.378
 6334SOL    HW220777   0.575   8.968  12.311
 6335SOL     OW20778   5.130   3.567   7.619
 6335SOL    HW120779   5.129   3.660   7.644
 6335SOL    HW220780   5.129   3.520   7.702
 6336SOL     OW20781  11.621   9.753  12.024
 6336SOL    HW120782  11.614   9.662  12.052
 6336SOL    HW220783  11.687   9.752  11.955
 6337SOL     OW20784  14.361  10.168   8.801
 6337SOL    HW120785  14.421  10.149   8.873
 6337SOL    HW220786  14.333  10.258   8.816
 6338SOL     OW20787   6.461   4.360   8.161
 6338SOL    HW120788   6.446   4.351   8.255
 6338SOL    HW220789   6.540   4.309   8.144
 6339SOL     OW20790   1.774   7.783   6.529
 6339SOL    HW120791   1.697   7.834   6.555
 6339SOL    HW220792   1.801   7.738   6.609
 6340SOL     OW20793   4.665   9.410   0.027
 6340SOL    HW120794   4.716   9.420  14.824
 6340SOL    HW220795   4.661   9.499   0.064
 6341SOL     OW20796   5.370   0.011   3.417
 6341SOL    HW120797   5.464   0.029   3.416
 6341SOL    HW220798   5.329   0.095   3.438
 6342SOL     OW20799  11.751   8.930   2.977
 6342SOL    HW120800  11.784   8.961   2.893
 6342SOL    HW220801  11.787   8.991   3.041
 6343SOL     OW20802  14.596   9.076  10.884
 6343SOL    HW120803  14.675   9.123  10.911
 6343SOL    HW220804  14.526   9.140  10.894
 6344SOL     OW20805   8.277   6.130  10.711
 6344SOL    HW120806   8.343   6.118  10.643
 6344SOL    HW220807   8.201   6.081  10.680
 6345SOL     OW20808   3.007   6.377   7.142
 6345SOL    HW120809   3.035   6.309   7.081
 6345SOL    HW220810   3.013   6.458   7.092
 6346SOL     OW20811   7.841  12.863   8.969
 6346SOL    HW120812   7.819  12.848   8.877
 6346SOL    HW220813   7.765  12.910   9.004
 6347SOL     OW20814  11.736  13.201   0.684
 6347SOL    HW120815  11.724  13.166   0.596
 6347SOL    HW220816  11.688  13.140   0.740
 6348SOL     OW20817   5.617  11.445   1.282
 6348SOL    HW120818   5.532  11.450   1.239
 6348SOL    HW220819   5.638  11.352   1.284
 6349SOL     OW20820   3.649   7.661  11.781
 6349SOL    HW120821   3.557   7.682  11.772
 6349SOL    HW220822   3.677   7.707  11.860
 6350SOL     OW20823  13.321   5.890   5.036
 6350SOL    HW120824  13.376   5.823   5.075
 6350SOL    HW220825  13.246   5.842   5.000
 6351SOL     OW20826   7.948  12.492   9.846
 6351SOL    HW120827   7.997  12.483   9.764
 6351SOL    HW220828   7.996  12.437   9.909
 6352SOL     OW20829  12.161   8.959   3.397
 6352SOL    HW120830  12.236   8.973   3.339
 6352SOL    HW220831  12.158   8.864   3.410
 6353SOL     OW20832  11.755   3.551   0.299
 6353SOL    HW120833  11.719   3.580   0.215
 6353SOL    HW220834  11.842   3.591   0.302
 6354SOL     OW20835   2.821  12.515   8.817
 6354SOL    HW120836   2.731  12.482   8.810
 6354SOL    HW220837   2.849  12.489   8.905
 6355SOL     OW20838   8.488   3.154   8.263
 6355SOL    HW120839   8.395   3.176   8.265
 6355SOL    HW220840   8.531   3.228   8.307
 6356SOL     OW20841   5.918   6.669   7.774
 6356SOL    HW120842   5.939   6.655   7.866
 6356SOL    HW220843   5.853   6.739   7.775
 6357SOL     OW20844  11.434  14.149   1.620
 6357SOL    HW120845  11.355  14.106   1.651
 6357SOL    HW220846  11.505  14.088   1.643
 6358SOL     OW20847   5.690  10.477   1.539
 6358SOL    HW120848   5.784  10.478   1.553
 6358SOL    HW220849   5.679  10.494   1.446
 6359SOL     OW20850   3.439   6.549   4.247
 6359SOL    HW120851   3.522   6.505   4.228
 6359SOL    HW220852   3.437   6.624   4.188
 6360SOL     OW20853  11.780   8.003  13.295
 6360SOL    HW120854  11.759   8.037  13.208
 6360SOL    HW220855  11.745   8.069  13.355
 6361SOL     OW20856   0.518   1.111   8.833
 6361SOL    HW120857   0.517   1.204   8.855
 6361SOL    HW220858   0.567   1.106   8.751
 6362SOL     OW20859   2.988   6.128  10.103
 6362SOL    HW120860   2.941   6.093  10.179
 6362SOL    HW220861   3.076   6.093  10.110
 6363SOL     OW20862   2.470   1.922  13.977
 6363SOL    HW120863   2.386   1.886  14.006
 6363SOL    HW220864   2.536   1.862  14.014
 6364SOL     OW20865  13.837   5.264   1.940
 6364SOL    HW120866  13.794   5.244   2.024
 6364SOL    HW220867  13.801   5.348   1.914
 6365SOL     OW20868   5.380   1.913   7.343
 6365SOL    HW120869   5.407   1.825   7.369
 6365SOL    HW220870   5.377   1.911   7.248
 6366SOL     OW20871   2.185   6.994   9.914
 6366SOL    HW120872   2.190   7.089   9.921
 6366SOL    HW220873   2.210   6.962  10.000
 6367SOL     OW20874   1.741  11.376  13.185
 6367SOL    HW120875   1.814  11.431  13.213
 6367SOL    HW220876   1.666  11.410  13.234
 6368SOL     OW20877  11.362   0.971   3.979
 6368SOL    HW120878  11.279   1.014   3.963
 6368SOL    HW220879  11.394   1.009   4.061
 6369SOL     OW20880  12.593   7.126  14.570
 6369SOL    HW120881  12.627   7.113  14.482
 6369SOL    HW220882  12.664   7.096  14.627
 6370SOL     OW20883   1.149   3.761   7.210
 6370SOL    HW120884   1.089   3.690   7.187
 6370SOL    HW220885   1.217   3.719   7.263
 6371SOL     OW20886   9.454   3.140   4.676
 6371SOL    HW120887   9.417   3.052   4.669
 6371SOL    HW220888   9.514   3.134   4.751
 6372SOL     OW20889   1.775  12.960   6.858
 6372SOL    HW120890   1.709  12.924   6.798
 6372SOL    HW220891   1.788  13.050   6.828
 6373SOL     OW20892   5.959  12.442   9.620
 6373SOL    HW120893   5.880  12.448   9.674
 6373SOL    HW220894   6.000  12.359   9.646
 6374SOL     OW20895   8.470   1.185   2.899
 6374SOL    HW120896   8.380   1.161   2.918
 6374SOL    HW220897   8.488   1.145   2.814
 6375SOL     OW20898   3.334   7.491  14.673
 6375SOL    HW120899   3.309   7.423  14.736
 6375SOL    HW220900   3.414   7.458  14.633
 6376SOL     OW20901   8.548  13.860  14.546
 6376SOL    HW120902   8.586  13.914  14.616
 6376SOL    HW220903   8.575  13.905  14.465
 6377SOL     OW20904  12.810   9.032   6.850
 6377SOL    HW120905  12.821   8.937   6.846
 6377SOL    HW220906  12.723   9.045   6.887
 6378SOL     OW20907   2.754   3.870   6.955
 6378SOL    HW120908   2.675   3.916   6.986
 6378SOL    HW220909   2.735   3.778   6.972
 6379SOL     OW20910   9.581   9.724   4.292
 6379SOL    HW120911   9.651   9.722   4.358
 6379SOL    HW220912   9.596   9.805   4.243
 6380SOL     OW20913   6.044   3.061   7.895
 6380SOL    HW120914   5.965   3.056   7.842
 6380SOL    HW220915   6.116   3.047   7.833
 6381SOL     OW20916   9.225   8.561  11.833
 6381SOL    HW120917   9.144   8.520  11.802
 6381SOL    HW220918   9.251   8.509  11.909
 6382SOL     OW20919   0.997  13.569  13.239
 6382SOL    HW120920   1.033  13.579  13.328
 6382SOL    HW220921   0.918  13.623  13.239
 6383SOL     OW20922   0.443   0.681   1.967
 6383SOL    HW120923   0.484   0.660   2.051
 6383SOL    HW220924   0.428   0.775   1.971
 6384SOL     OW20925   6.434   0.210  14.404
 6384SOL    HW120926   6.480   0.175  14.328
 6384SOL    HW220927   6.343   0.185  14.391
 6385SOL     OW20928   6.257   7.563   6.406
 6385SOL    HW120929   6.183   7.537   6.350
 6385SOL    HW220930   6.306   7.482   6.419
 6386SOL     OW20931   7.526  12.818  10.328
 6386SOL    HW120932   7.538  12.744  10.388
 6386SOL    HW220933   7.528  12.895  10.385
 6387SOL     OW20934  12.285  11.286  10.454
 6387SOL    HW120935  12.223  11.214  10.443
 6387SOL    HW220936  12.256  11.331  10.534
 6388SOL     OW20937   9.091  14.106   3.562
 6388SOL    HW120938   9.014  14.057   3.590
 6388SOL    HW220939   9.123  14.058   3.486
 6389SOL     OW20940   1.286   0.193  12.939
 6389SOL    HW120941   1.330   0.121  12.984
 6389SOL    HW220942   1.345   0.214  12.866
 6390SOL     OW20943   0.733   3.190   4.979
 6390SOL    HW120944   0.827   3.174   4.977
 6390SOL    HW220945   0.696   3.114   5.023
 6391SOL     OW20946   0.486   8.278  11.233
 6391SOL    HW120947   0.503   8.371  11.248
 6391SOL    HW220948   0.497   8.237  11.319
 6392SOL     OW20949   1.096   0.825   3.582
 6392SOL    HW120950   1.084   0.846   3.489
 6392SOL    HW220951   1.146   0.899   3.617
 6393SOL     OW20952  10.333   3.286   4.650
 6393SOL    HW120953  10.388   3.248   4.719
 6393SOL    HW220954  10.390   3.348   4.605
 6394SOL     OW20955   3.658   9.477  11.049
 6394SOL    HW120956   3.589   9.537  11.019
 6394SOL    HW220957   3.677   9.506  11.138
 6395SOL     OW20958  12.260   3.896   4.046
 6395SOL    HW120959  12.268   3.990   4.030
 6395SOL    HW220960  12.248   3.857   3.959
 6396SOL     OW20961  13.282   9.987   8.424
 6396SOL    HW120962  13.208   9.932   8.448
 6396SOL    HW220963  13.286   9.984   8.329
 6397SOL     OW20964  12.139   3.251  10.224
 6397SOL    HW120965  12.184   3.295  10.296
 6397SOL    HW220966  12.208   3.236  10.159
 6398SOL     OW20967   1.951   1.304   8.975
 6398SOL    HW120968   1.881   1.325   9.036
 6398SOL    HW220969   1.907   1.297   8.890
 6399SOL     OW20970   3.268   0.725   8.188
 6399SOL    HW120971   3.220   0.708   8.268
 6399SOL    HW220972   3.336   0.787   8.214
 6400SOL     OW20973   7.195  10.286   6.655
 6400SOL    HW120974   7.234  10.364   6.694
 6400SOL    HW220975   7.210  10.217   6.719
 6401SOL     OW20976   2.184   3.721   3.368
 6401SOL    HW120977   2.144   3.722   3.281
 6401SOL    HW220978   2.137   3.789   3.417
 6402SOL     OW20979   1.572  10.781   6.765
 6402SOL    HW120980   1.492  10.751   6.809
 6402SOL    HW220981   1.586  10.718   6.695
 6403SOL     OW20982   0.900   0.285   2.471
 6403SOL    HW120983   0.834   0.352   2.449
 6403SOL    HW220984   0.962   0.289   2.398
 6404SOL     OW20985   5.198  10.857   1.928
 6404SOL    HW120986   5.185  10.840   1.835
 6404SOL    HW220987   5.266  10.924   1.931
 6405SOL     OW20988   5.789   3.276   1.364
 6405SOL    HW120989   5.702   3.256   1.330
 6405SOL    HW220990   5.832   3.323   1.293
 6406SOL     OW20991   3.454  12.129   4.952
 6406SOL    HW120992   3.489  12.061   5.009
 6406SOL    HW220993   3.505  12.207   4.972
 6407SOL     OW20994   8.564  10.120   2.589
 6407SOL    HW120995   8.483  10.070   2.595
 6407SOL    HW220996   8.581  10.149   2.679
 6408SOL     OW20997   4.477   8.428   5.139
 6408SOL    HW120998   4.491   8.347   5.188
 6408SOL    HW220999   4.564   8.458   5.116
 6409SOL     OW21000  12.001  11.161   6.577
 6409SOL    HW121001  12.069  11.197   6.519
 6409SOL    HW221002  11.998  11.068   6.555
 6410SOL     OW21003   5.748  10.889  10.200
 6410SOL    HW121004   5.772  10.798  10.187
 6410SOL    HW221005   5.675  10.886  10.262
 6411SOL     OW21006  12.302   1.433   1.779
 6411SOL    HW121007  12.245   1.497   1.738
 6411SOL    HW221008  12.326   1.473   1.863
 6412SOL     OW21009  10.514   3.508   4.641
 6412SOL    HW121010  10.503   3.553   4.557
 6412SOL    HW221011  10.523   3.579   4.705
 6413SOL     OW21012   3.509  10.415   7.148
 6413SOL    HW121013   3.417  10.394   7.159
 6413SOL    HW221014   3.551  10.332   7.126
 6414SOL     OW21015   8.701   2.144  14.509
 6414SOL    HW121016   8.611   2.112  14.517
 6414SOL    HW221017   8.755   2.070  14.535
 6415SOL     OW21018  14.265   9.803  11.244
 6415SOL    HW121019  14.237   9.871  11.306
 6415SOL    HW221020  14.252   9.843  11.158
 6416SOL     OW21021   6.198  13.318   1.670
 6416SOL    HW121022   6.207  13.336   1.763
 6416SOL    HW221023   6.207  13.404   1.628
 6417SOL     OW21024   2.581   0.329   2.068
 6417SOL    HW121025   2.676   0.334   2.058
 6417SOL    HW221026   2.548   0.325   1.978
 6418SOL     OW21027   7.640   9.137  12.482
 6418SOL    HW121028   7.564   9.144  12.540
 6418SOL    HW221029   7.650   9.224  12.444
 6419SOL     OW21030  13.658   9.752   3.039
 6419SOL    HW121031  13.654   9.762   2.944
 6419SOL    HW221032  13.744   9.789   3.063
 6420SOL     OW21033   4.729   8.867   5.119
 6420SOL    HW121034   4.761   8.786   5.080
 6420SOL    HW221035   4.718   8.927   5.046
 6421SOL     OW21036  12.279   9.586   3.184
 6421SOL    HW121037  12.267   9.563   3.277
 6421SOL    HW221038  12.204   9.546   3.140
 6422SOL     OW21039   9.049   0.981   4.338
 6422SOL    HW121040   9.070   1.070   4.310
 6422SOL    HW221041   8.962   0.964   4.301
 6423SOL     OW21042   4.484   0.030  11.754
 6423SOL    HW121043   4.428   0.109  11.756
 6423SOL    HW221044   4.458  14.858  11.831
 6424SOL     OW21045  13.483  14.539  13.618
 6424SOL    HW121046  13.577  14.554  13.609
 6424SOL    HW221047  13.473  14.444  13.611
 6425SOL     OW21048   3.939   9.056   4.496
 6425SOL    HW121049   3.907   9.126   4.553
 6425SOL    HW221050   3.885   9.063   4.417
 6426SOL     OW21051   5.734   4.377   1.750
 6426SOL    HW121052   5.751   4.468   1.728
 6426SOL    HW221053   5.803   4.353   1.811
 6427SOL     OW21054   7.578   7.831   8.875
 6427SOL    HW121055   7.653   7.773   8.865
 6427SOL    HW221056   7.604   7.911   8.829
 6428SOL     OW21057  10.419   6.945  14.619
 6428SOL    HW121058  10.415   6.960  14.714
 6428SOL    HW221059  10.395   7.030  14.581
 6429SOL     OW21060   6.607  12.444  13.471
 6429SOL    HW121061   6.645  12.507  13.409
 6429SOL    HW221062   6.524  12.483  13.497
 6430SOL     OW21063   0.858   4.390   5.363
 6430SOL    HW121064   0.864   4.483   5.381
 6430SOL    HW221065   0.940   4.367   5.319
 6431SOL     OW21066   0.534   9.105   1.206
 6431SOL    HW121067   0.439   9.110   1.216
 6431SOL    HW221068   0.546   9.045   1.132
 6432SOL     OW21069  14.123  11.644   0.764
 6432SOL    HW121070  14.049  11.584   0.775
 6432SOL    HW221071  14.092  11.728   0.796
 6433SOL     OW21072  12.113   6.899  14.108
 6433SOL    HW121073  12.093   6.861  14.194
 6433SOL    HW221074  12.030   6.935  14.078
 6434SOL     OW21075   9.534  12.111  12.421
 6434SOL    HW121076   9.507  12.051  12.490
 6434SOL    HW221077   9.592  12.174  12.464
 6435SOL     OW21078  12.172   2.088  10.590
 6435SOL    HW121079  12.260   2.108  10.623
 6435SOL    HW221080  12.185   2.073  10.496
 6436SOL     OW21081   4.901   3.402   0.885
 6436SOL    HW121082   4.856   3.486   0.876
 6436SOL    HW221083   4.975   3.421   0.943
 6437SOL     OW21084  10.023   4.734   3.168
 6437SOL    HW121085  10.030   4.737   3.073
 6437SOL    HW221086  10.101   4.781   3.199
 6438SOL     OW21087   8.596   7.902  12.669
 6438SOL    HW121088   8.625   7.818  12.634
 6438SOL    HW221089   8.530   7.879  12.735
 6439SOL     OW21090   5.646   1.437   1.413
 6439SOL    HW121091   5.730   1.393   1.399
 6439SOL    HW221092   5.611   1.450   1.325
 6440SOL     OW21093   9.276   3.709   4.003
 6440SOL    HW121094   9.358   3.733   3.960
 6440SOL    HW221095   9.208   3.736   3.942
 6441SOL     OW21096  11.707  10.720   2.106
 6441SOL    HW121097  11.713  10.805   2.063
 6441SOL    HW221098  11.648  10.669   2.051
 6442SOL     OW21099  12.470   6.996   7.347
 6442SOL    HW121100  12.469   7.066   7.282
 6442SOL    HW221101  12.380   6.965   7.350
 6443SOL     OW21102   9.395   7.983   2.612
 6443SOL    HW121103   9.467   7.970   2.550
 6443SOL    HW221104   9.420   8.061   2.662
 6444SOL     OW21105   1.182   7.561   2.649
 6444SOL    HW121106   1.218   7.545   2.737
 6444SOL    HW221107   1.107   7.502   2.644
 6445SOL     OW21108  10.690   5.045   3.226
 6445SOL    HW121109  10.679   5.129   3.182
 6445SOL    HW221110  10.687   5.067   3.319
 6446SOL     OW21111  13.866  10.534   4.487
 6446SOL    HW121112  13.877  10.481   4.566
 6446SOL    HW221113  13.881  10.624   4.515
 6447SOL     OW21114   5.961  14.840  14.732
 6447SOL    HW121115   6.053  14.864  14.740
 6447SOL    HW221116   5.924  14.857  14.819
 6448SOL     OW21117   6.491   3.031   8.998
 6448SOL    HW121118   6.457   2.956   8.948
 6448SOL    HW221119   6.502   3.100   8.932
 6449SOL     OW21120   6.670  14.095   5.309
 6449SOL    HW121121   6.755  14.123   5.343
 6449SOL    HW221122   6.621  14.070   5.387
 6450SOL     OW21123   0.659   5.841   7.165
 6450SOL    HW121124   0.722   5.776   7.135
 6450SOL    HW221125   0.574   5.798   7.156
 6451SOL     OW21126   5.461   6.296  12.918
 6451SOL    HW121127   5.435   6.353  12.845
 6451SOL    HW221128   5.380   6.255  12.946
 6452SOL     OW21129   6.029   9.838  11.598
 6452SOL    HW121130   6.038   9.750  11.635
 6452SOL    HW221131   5.941   9.866  11.622
 6453SOL     OW21132   1.172   2.216   4.387
 6453SOL    HW121133   1.235   2.218   4.314
 6453SOL    HW221134   1.088   2.235   4.345
 6454SOL     OW21135   6.204   6.435   1.560
 6454SOL    HW121136   6.206   6.341   1.576
 6454SOL    HW221137   6.293   6.458   1.535
 6455SOL     OW21138   6.330  10.350   2.313
 6455SOL    HW121139   6.416  10.368   2.351
 6455SOL    HW221140   6.345  10.354   2.218
 6456SOL     OW21141   8.622   7.297   9.822
 6456SOL    HW121142   8.701   7.276   9.772
 6456SOL    HW221143   8.631   7.390   9.843
 6457SOL     OW21144  13.036   1.707   9.620
 6457SOL    HW121145  12.950   1.711   9.578
 6457SOL    HW221146  13.087   1.648   9.565
 6458SOL     OW21147   3.575  11.876  11.837
 6458SOL    HW121148   3.535  11.798  11.798
 6458SOL    HW221149   3.641  11.903  11.773
 6459SOL     OW21150   4.082  10.118   0.449
 6459SOL    HW121151   4.001  10.119   0.500
 6459SOL    HW221152   4.059  10.074   0.368
 6460SOL     OW21153   4.444   5.491   7.092
 6460SOL    HW121154   4.463   5.397   7.087
 6460SOL    HW221155   4.428   5.507   7.185
 6461SOL     OW21156   4.777   9.054  13.181
 6461SOL    HW121157   4.748   9.035  13.092
 6461SOL    HW221158   4.868   9.081  13.171
 6462SOL     OW21159   7.792   1.505   6.592
 6462SOL    HW121160   7.724   1.568   6.567
 6462SOL    HW221161   7.818   1.463   6.510
 6463SOL     OW21162  14.361   6.800  11.019
 6463SOL    HW121163  14.363   6.799  10.923
 6463SOL    HW221164  14.452   6.788  11.045
 6464SOL     OW21165   1.056   8.952   8.940
 6464SOL    HW121166   1.117   8.997   8.999
 6464SOL    HW221167   1.009   9.023   8.896
 6465SOL     OW21168   4.520   5.058  10.452
 6465SOL    HW121169   4.540   4.975  10.496
 6465SOL    HW221170   4.445   5.094  10.500
 6466SOL     OW21171   7.401  14.326   4.299
 6466SOL    HW121172   7.461  14.294   4.366
 6466SOL    HW221173   7.329  14.365   4.347
 6467SOL     OW21174   0.973  12.762   1.354
 6467SOL    HW121175   0.948  12.778   1.263
 6467SOL    HW221176   1.053  12.813   1.366
 6468SOL     OW21177   1.239   7.765  12.515
 6468SOL    HW121178   1.153   7.786  12.550
 6468SOL    HW221179   1.294   7.752  12.593
 6469SOL     OW21180  11.886   4.952   0.176
 6469SOL    HW121181  11.882   5.036   0.222
 6469SOL    HW221182  11.902   4.888   0.246
 6470SOL     OW21183   1.870   0.569  13.761
 6470SOL    HW121184   1.892   0.526  13.844
 6470SOL    HW221185   1.940   0.633  13.748
 6471SOL     OW21186  10.319   5.658   2.412
 6471SOL    HW121187  10.412   5.633   2.408
 6471SOL    HW221188  10.283   5.627   2.330
 6472SOL     OW21189   0.306   2.926   3.564
 6472SOL    HW121190   0.373   2.859   3.554
 6472SOL    HW221191   0.333   2.997   3.505
 6473SOL     OW21192   3.049   4.670  10.243
 6473SOL    HW121193   3.052   4.761  10.214
 6473SOL    HW221194   3.122   4.628  10.198
 6474SOL     OW21195   7.349  11.431   4.902
 6474SOL    HW121196   7.300  11.497   4.951
 6474SOL    HW221197   7.305  11.427   4.817
 6475SOL     OW21198   6.320   6.998   6.771
 6475SOL    HW121199   6.261   7.071   6.755
 6475SOL    HW221200   6.386   7.034   6.831
 6476SOL     OW21201   9.613   4.763   8.764
 6476SOL    HW121202   9.565   4.825   8.708
 6476SOL    HW221203   9.612   4.804   8.851
 6477SOL     OW21204  14.737  11.653   8.188
 6477SOL    HW121205  14.690  11.586   8.238
 6477SOL    HW221206  14.802  11.604   8.137
 6478SOL     OW21207  11.950   7.616   1.180
 6478SOL    HW121208  11.903   7.539   1.212
 6478SOL    HW221209  11.968   7.597   1.088
 6479SOL     OW21210   4.158  12.410  10.678
 6479SOL    HW121211   4.194  12.498  10.694
 6479SOL    HW221212   4.232  12.361  10.642
 6480SOL     OW21213   7.886   5.800  10.790
 6480SOL    HW121214   7.854   5.779  10.702
 6480SOL    HW221215   7.834   5.745  10.849
 6481SOL     OW21216   6.839   8.106   1.873
 6481SOL    HW121217   6.773   8.136   1.811
 6481SOL    HW221218   6.918   8.155   1.848
 6482SOL     OW21219   0.748   1.541   1.886
 6482SOL    HW121220   0.771   1.621   1.840
 6482SOL    HW221221   0.790   1.471   1.836
 6483SOL     OW21222  14.181   6.229  12.045
 6483SOL    HW121223  14.149   6.200  11.960
 6483SOL    HW221224  14.104   6.229  12.101
 6484SOL     OW21225   0.461   0.543  13.762
 6484SOL    HW121226   0.384   0.523  13.709
 6484SOL    HW221227   0.466   0.470  13.824
 6485SOL     OW21228   8.413  13.465   2.307
 6485SOL    HW121229   8.372  13.403   2.367
 6485SOL    HW221230   8.479  13.414   2.261
 6486SOL     OW21231   5.396   0.319   9.090
 6486SOL    HW121232   5.363   0.243   9.042
 6486SOL    HW221233   5.330   0.387   9.074
 6487SOL     OW21234   0.243  11.620   7.717
 6487SOL    HW121235   0.169  11.645   7.773
 6487SOL    HW221236   0.262  11.529   7.741
 6488SOL     OW21237   3.196   8.709   7.682
 6488SOL    HW121238   3.147   8.708   7.764
 6488SOL    HW221239   3.230   8.799   7.675
 6489SOL     OW21240   5.789  10.951   0.340
 6489SOL    HW121241   5.832  11.026   0.382
 6489SOL    HW221242   5.704  10.984   0.312
 6490SOL     OW21243   1.489   7.612   4.792
 6490SOL    HW121244   1.531   7.651   4.716
 6490SOL    HW221245   1.469   7.523   4.765
 6491SOL     OW21246   5.643  13.153   4.670
 6491SOL    HW121247   5.708  13.089   4.699
 6491SOL    HW221248   5.574  13.147   4.736
 6492SOL     OW21249   7.608  12.264   8.451
 6492SOL    HW121250   7.665  12.200   8.408
 6492SOL    HW221251   7.528  12.216   8.471
 6493SOL     OW21252   7.661  11.337   1.836
 6493SOL    HW121253   7.738  11.310   1.785
 6493SOL    HW221254   7.603  11.262   1.833
 6494SOL     OW21255   1.490   7.475   1.447
 6494SOL    HW121256   1.573   7.429   1.432
 6494SOL    HW221257   1.516   7.556   1.491
 6495SOL     OW21258  12.289   2.894   6.319
 6495SOL    HW121259  12.197   2.923   6.318
 6495SOL    HW221260  12.284   2.799   6.310
 6496SOL     OW21261   7.549   7.950   1.902
 6496SOL    HW121262   7.597   7.871   1.877
 6496SOL    HW221263   7.601   8.022   1.865
 6497SOL     OW21264   1.386   5.095  10.901
 6497SOL    HW121265   1.348   5.011  10.924
 6497SOL    HW221266   1.394   5.141  10.985
 6498SOL     OW21267   4.127   3.287  14.293
 6498SOL    HW121268   4.190   3.325  14.232
 6498SOL    HW221269   4.045   3.280  14.244
 6499SOL     OW21270   6.587   6.547  10.020
 6499SOL    HW121271   6.665   6.576  10.067
 6499SOL    HW221272   6.611   6.461   9.984
 6500SOL     OW21273   1.244   4.799  11.728
 6500SOL    HW121274   1.243   4.861  11.655
 6500SOL    HW221275   1.198   4.722  11.695
 6501SOL     OW21276  10.933   9.864  11.236
 6501SOL    HW121277  11.009   9.828  11.190
 6501SOL    HW221278  10.956   9.856  11.329
 6502SOL     OW21279   5.965   1.238   8.187
 6502SOL    HW121280   5.972   1.309   8.122
 6502SOL    HW221281   5.985   1.280   8.270
 6503SOL     OW21282  11.702   7.032   8.217
 6503SOL    HW121283  11.774   7.080   8.258
 6503SOL    HW221284  11.644   7.009   8.290
 6504SOL     OW21285   7.006  12.496   4.425
 6504SOL    HW121286   6.945  12.473   4.355
 6504SOL    HW221287   7.092  12.475   4.389
 6505SOL     OW21288   0.745   8.699  13.033
 6505SOL    HW121289   0.707   8.648  13.105
 6505SOL    HW221290   0.832   8.723  13.065
 6506SOL     OW21291   0.003   7.416   5.131
 6506SOL    HW121292   0.036   7.349   5.071
 6506SOL    HW221293   0.064   7.415   5.205
 6507SOL     OW21294   2.398   3.634   6.019
 6507SOL    HW121295   2.323   3.681   6.055
 6507SOL    HW221296   2.474   3.678   6.056
 6508SOL     OW21297   0.532   8.492   4.663
 6508SOL    HW121298   0.533   8.478   4.758
 6508SOL    HW221299   0.454   8.547   4.649
 6509SOL     OW21300   2.829   9.726   0.894
 6509SOL    HW121301   2.924   9.740   0.895
 6509SOL    HW221302   2.818   9.635   0.920
 6510SOL     OW21303  14.580  14.264   9.228
 6510SOL    HW121304  14.541  14.177   9.232
 6510SOL    HW221305  14.674  14.249   9.233
 6511SOL     OW21306   3.678  10.681   8.632
 6511SOL    HW121307   3.626  10.713   8.706
 6511SOL    HW221308   3.645  10.730   8.557
 6512SOL     OW21309   8.183   5.261   5.892
 6512SOL    HW121310   8.215   5.281   5.805
 6512SOL    HW221311   8.200   5.340   5.944
 6513SOL     OW21312  13.341  12.497   8.627
 6513SOL    HW121313  13.296  12.581   8.635
 6513SOL    HW221314  13.430  12.519   8.601
 6514SOL     OW21315   7.799  13.818   8.478
 6514SOL    HW121316   7.712  13.827   8.439
 6514SOL    HW221317   7.782  13.795   8.569
 6515SOL     OW21318   8.141   7.834   3.119
 6515SOL    HW121319   8.216   7.850   3.061
 6515SOL    HW221320   8.140   7.740   3.132
 6516SOL     OW21321   3.097  13.399   1.175
 6516SOL    HW121322   3.070  13.442   1.095
 6516SOL    HW221323   3.015  13.371   1.216
 6517SOL     OW21324   2.655   2.026   8.412
 6517SOL    HW121325   2.722   2.046   8.347
 6517SOL    HW221326   2.699   1.967   8.474
 6518SOL     OW21327   0.633   0.231   9.363
 6518SOL    HW121328   0.700   0.262   9.425
 6518SOL    HW221329   0.624   0.302   9.300
 6519SOL     OW21330   8.616   3.220   8.588
 6519SOL    HW121331   8.640   3.250   8.675
 6519SOL    HW221332   8.694   3.233   8.535
 6520SOL     OW21333   6.712  10.807   9.993
 6520SOL    HW121334   6.752  10.725  10.022
 6520SOL    HW221335   6.621  10.784   9.973
 6521SOL     OW21336   4.756  13.879   0.189
 6521SOL    HW121337   4.780  13.958   0.142
 6521SOL    HW221338   4.829  13.863   0.249
 6522SOL     OW21339  11.017   3.530   1.306
 6522SOL    HW121340  11.074   3.607   1.311
 6522SOL    HW221341  11.076   3.456   1.302
 6523SOL     OW21342   4.177   3.338   7.278
 6523SOL    HW121343   4.154   3.320   7.186
 6523SOL    HW221344   4.102   3.305   7.328
 6524SOL     OW21345   8.363   0.436  13.517
 6524SOL    HW121346   8.377   0.531  13.515
 6524SOL    HW221347   8.269   0.427  13.533
 6525SOL     OW21348   7.309   8.409   5.279
 6525SOL    HW121349   7.274   8.410   5.190
 6525SOL    HW221350   7.233   8.426   5.334
 6526SOL     OW21351   5.394   8.642   3.626
 6526SOL    HW121352   5.364   8.693   3.550
 6526SOL    HW221353   5.346   8.559   3.619
 6527SOL     OW21354   1.962  12.299   4.218
 6527SOL    HW121355   2.017  12.252   4.155
 6527SOL    HW221356   1.884  12.323   4.168
 6528SOL     OW21357   1.491   6.362   9.434
 6528SOL    HW121358   1.567   6.328   9.482
 6528SOL    HW221359   1.444   6.415   9.499
 6529SOL     OW21360   5.214  11.104   9.939
 6529SOL    HW121361   5.216  11.008   9.944
 6529SOL    HW221362   5.122  11.127   9.954
 6530SOL     OW21363   4.967   7.126   3.025
 6530SOL    HW121364   5.040   7.066   3.042
 6530SOL    HW221365   4.894   7.088   3.072
 6531SOL     OW21366  10.597   7.608  12.899
 6531SOL    HW121367  10.589   7.647  12.812
 6531SOL    HW221368  10.543   7.664  12.955
 6532SOL     OW21369   0.641  12.293   2.868
 6532SOL    HW121370   0.596  12.318   2.787
 6532SOL    HW221371   0.638  12.197   2.868
 6533SOL     OW21372   8.692   2.101   5.958
 6533SOL    HW121373   8.717   2.121   5.868
 6533SOL    HW221374   8.643   2.178   5.987
 6534SOL     OW21375   3.897  10.096  13.876
 6534SOL    HW121376   3.841  10.036  13.828
 6534SOL    HW221377   3.936  10.043  13.945
 6535SOL     OW21378   7.840   3.675   1.913
 6535SOL    HW121379   7.771   3.716   1.861
 6535SOL    HW221380   7.829   3.712   2.001
 6536SOL     OW21381   8.815  11.137  12.579
 6536SOL    HW121382   8.900  11.178  12.563
 6536SOL    HW221383   8.764  11.158  12.501
 6537SOL     OW21384   3.163  13.561   6.208
 6537SOL    HW121385   3.171  13.486   6.267
 6537SOL    HW221386   3.075  13.555   6.173
 6538SOL     OW21387   2.749   4.097   2.799
 6538SOL    HW121388   2.747   4.001   2.794
 6538SOL    HW221389   2.780   4.125   2.712
 6539SOL     OW21390   0.378   2.787  14.629
 6539SOL    HW121391   0.383   2.719  14.563
 6539SOL    HW221392   0.331   2.859  14.586
 6540SOL     OW21393   7.109   4.605   5.020
 6540SOL    HW121394   7.028   4.590   4.971
 6540SOL    HW221395   7.168   4.648   4.958
 6541SOL     OW21396   4.838  12.073   2.938
 6541SOL    HW121397   4.810  11.984   2.917
 6541SOL    HW221398   4.858  12.070   3.032
 6542SOL     OW21399   9.930   2.185   6.016
 6542SOL    HW121400   9.892   2.270   6.039
 6542SOL    HW221401   9.992   2.204   5.945
 6543SOL     OW21402  10.656  11.718   8.191
 6543SOL    HW121403  10.688  11.742   8.278
 6543SOL    HW221404  10.711  11.769   8.131
 6544SOL     OW21405   3.460   0.396   4.961
 6544SOL    HW121406   3.515   0.323   4.991
 6544SOL    HW221407   3.517   0.472   4.967
 6545SOL     OW21408  10.228   3.004   5.942
 6545SOL    HW121409  10.299   3.041   5.889
 6545SOL    HW221410  10.206   2.922   5.898
 6546SOL     OW21411   1.446  13.710  11.815
 6546SOL    HW121412   1.431  13.635  11.872
 6546SOL    HW221413   1.360  13.749  11.802
 6547SOL     OW21414   0.669  14.218  13.715
 6547SOL    HW121415   0.679  14.250  13.625
 6547SOL    HW221416   0.598  14.270  13.752
 6548SOL     OW21417  10.007   3.193  12.962
 6548SOL    HW121418   9.972   3.127  13.022
 6548SOL    HW221419  10.014   3.147  12.878
 6549SOL     OW21420   7.683   5.494   4.110
 6549SOL    HW121421   7.598   5.452   4.104
 6549SOL    HW221422   7.746   5.423   4.097
 6550SOL     OW21423   7.276  13.863   7.340
 6550SOL    HW121424   7.232  13.936   7.382
 6550SOL    HW221425   7.206  13.801   7.319
 6551SOL     OW21426   7.403   4.806   2.009
 6551SOL    HW121427   7.475   4.836   1.953
 6551SOL    HW221428   7.357   4.741   1.955
 6552SOL     OW21429   6.810  11.318   4.885
 6552SOL    HW121430   6.873  11.288   4.950
 6552SOL    HW221431   6.741  11.360   4.937
 6553SOL     OW21432   5.629   5.288   3.802
 6553SOL    HW121433   5.656   5.297   3.894
 6553SOL    HW221434   5.692   5.342   3.754
 6554SOL     OW21435   7.043   3.713   8.577
 6554SOL    HW121436   7.050   3.806   8.554
 6554SOL    HW221437   7.020   3.713   8.670
 6555SOL     OW21438  11.767   7.581   5.290
 6555SOL    HW121439  11.713   7.617   5.360
 6555SOL    HW221440  11.822   7.654   5.262
 6556SOL     OW21441   4.923  13.907   6.188
 6556SOL    HW121442   4.998  13.948   6.146
 6556SOL    HW221443   4.887  13.974   6.245
 6557SOL     OW21444  12.903   7.378  13.273
 6557SOL    HW121445  12.934   7.443  13.210
 6557SOL    HW221446  12.906   7.422  13.357
 6558SOL     OW21447   2.154  11.310   2.416
 6558SOL    HW121448   2.210  11.380   2.385
 6558SOL    HW221449   2.071  11.353   2.439
 6559SOL     OW21450  10.577  14.865   7.240
 6559SOL    HW121451  10.518  14.831   7.172
 6559SOL    HW221452  10.647   0.032   7.192
 6560SOL     OW21453  11.516   8.936   0.798
 6560SOL    HW121454  11.481   8.900   0.880
 6560SOL    HW221455  11.449   8.917   0.733
 6561SOL     OW21456  14.388  13.842   3.225
 6561SOL    HW121457  14.364  13.906   3.159
 6561SOL    HW221458  14.481  13.858   3.243
 6562SOL     OW21459  10.307   0.936  10.591
 6562SOL    HW121460  10.276   0.966  10.677
 6562SOL    HW221461  10.227   0.913  10.543
 6563SOL     OW21462   4.088  14.843   4.426
 6563SOL    HW121463   4.105  14.874   4.515
 6563SOL    HW221464   4.018  14.777   4.437
 6564SOL     OW21465   9.349   9.735  10.285
 6564SOL    HW121466   9.367   9.699  10.199
 6564SOL    HW221467   9.263   9.701  10.309
 6565SOL     OW21468   0.395   1.682  10.130
 6565SOL    HW121469   0.409   1.640  10.215
 6565SOL    HW221470   0.344   1.761  10.150
 6566SOL     OW21471   5.406  13.062   4.854
 6566SOL    HW121472   5.479  13.000   4.859
 6566SOL    HW221473   5.339  13.026   4.912
 6567SOL     OW21474   9.514   2.119   0.723
 6567SOL    HW121475   9.604   2.125   0.689
 6567SOL    HW221476   9.481   2.209   0.719
 6568SOL     OW21477  12.454   7.965   2.679
 6568SOL    HW121478  12.427   8.001   2.763
 6568SOL    HW221479  12.550   7.958   2.685
 6569SOL     OW21480   1.627  12.425  13.774
 6569SOL    HW121481   1.666  12.387  13.694
 6569SOL    HW221482   1.617  12.518  13.753
 6570SOL     OW21483   3.465  13.880  11.796
 6570SOL    HW121484   3.491  13.788  11.798
 6570SOL    HW221485   3.529  13.922  11.739
 6571SOL     OW21486   0.801   7.010   9.999
 6571SOL    HW121487   0.793   6.930  10.050
 6571SOL    HW221488   0.804   7.080  10.063
 6572SOL     OW21489   6.275  12.034  11.722
 6572SOL    HW121490   6.368  12.028  11.746
 6572SOL    HW221491   6.276  12.071  11.633
 6573SOL     OW21492  11.363   4.588   9.574
 6573SOL    HW121493  11.282   4.541   9.553
 6573SOL    HW221494  11.337   4.680   9.579
 6574SOL     OW21495   8.919   8.389   9.293
 6574SOL    HW121496   8.940   8.385   9.386
 6574SOL    HW221497   9.003   8.406   9.250
 6575SOL     OW21498  13.848  13.015   1.038
 6575SOL    HW121499  13.875  13.044   0.950
 6575SOL    HW221500  13.822  12.924   1.026
 6576SOL     OW21501  11.531   7.052   6.680
 6576SOL    HW121502  11.554   7.115   6.612
 6576SOL    HW221503  11.445   7.018   6.654
 6577SOL     OW21504   9.877   5.538  10.400
 6577SOL    HW121505   9.870   5.546  10.305
 6577SOL    HW221506   9.882   5.444  10.417
 6578SOL     OW21507   4.008  14.050   8.689
 6578SOL    HW121508   3.922  14.068   8.727
 6578SOL    HW221509   4.026  13.958   8.713
 6579SOL     OW21510  12.032  10.206   4.675
 6579SOL    HW121511  12.073  10.133   4.721
 6579SOL    HW221512  12.025  10.176   4.584
 6580SOL     OW21513  12.561   7.543   7.463
 6580SOL    HW121514  12.634   7.494   7.502
 6580SOL    HW221515  12.524   7.592   7.536
 6581SOL     OW21516   5.031   6.522   2.054
 6581SOL    HW121517   5.066   6.477   1.977
 6581SOL    HW221518   4.948   6.477   2.072
 6582SOL     OW21519  11.937   2.012   4.164
 6582SOL    HW121520  11.946   2.068   4.086
 6582SOL    HW221521  11.863   1.955   4.144
 6583SOL     OW21522   4.559   9.410   8.804
 6583SOL    HW121523   4.487   9.350   8.787
 6583SOL    HW221524   4.635   9.354   8.819
 6584SOL     OW21525   3.967   8.706   4.919
 6584SOL    HW121526   3.957   8.788   4.967
 6584SOL    HW221527   3.891   8.654   4.946
 6585SOL     OW21528   8.023   2.719   2.956
 6585SOL    HW121529   8.018   2.797   2.901
 6585SOL    HW221530   8.015   2.646   2.894
 6586SOL     OW21531   8.474   1.763   5.241
 6586SOL    HW121532   8.391   1.715   5.246
 6586SOL    HW221533   8.541   1.700   5.265
 6587SOL     OW21534  11.291  14.626   8.059
 6587SOL    HW121535  11.232  14.660   7.991
 6587SOL    HW221536  11.369  14.680   8.052
 6588SOL     OW21537   1.596  14.246   4.537
 6588SOL    HW121538   1.591  14.226   4.444
 6588SOL    HW221539   1.668  14.192   4.569
 6589SOL     OW21540  12.458   6.621  11.037
 6589SOL    HW121541  12.495   6.609  10.950
 6589SOL    HW221542  12.379   6.566  11.038
 6590SOL     OW21543  10.011   3.066   5.577
 6590SOL    HW121544  10.102   3.037   5.587
 6590SOL    HW221545   9.987   3.098   5.664
 6591SOL     OW21546   7.982   5.939   9.032
 6591SOL    HW121547   8.041   6.010   9.058
 6591SOL    HW221548   7.927   5.924   9.109
 6592SOL     OW21549  13.769  13.766   8.254
 6592SOL    HW121550  13.777  13.755   8.159
 6592SOL    HW221551  13.675  13.755   8.271
 6593SOL     OW21552   3.956   6.498  10.648
 6593SOL    HW121553   3.932   6.551  10.573
 6593SOL    HW221554   4.034   6.450  10.621
 6594SOL     OW21555  14.764   5.712   1.703
 6594SOL    HW121556  14.831   5.776   1.727
 6594SOL    HW221557  14.705   5.760   1.644
 6595SOL     OW21558  11.405  14.020  11.095
 6595SOL    HW121559  11.349  13.979  11.029
 6595SOL    HW221560  11.345  14.071  11.149
 6596SOL     OW21561  10.351  10.580  10.901
 6596SOL    HW121562  10.328  10.540  10.984
 6596SOL    HW221563  10.284  10.549  10.840
 6597SOL     OW21564   6.607   7.692  14.074
 6597SOL    HW121565   6.672   7.704  14.005
 6597SOL    HW221566   6.610   7.598  14.093
 6598SOL     OW21567   9.453  11.664   0.371
 6598SOL    HW121568   9.542  11.683   0.342
 6598SOL    HW221569   9.431  11.582   0.327
 6599SOL     OW21570   1.743   0.038  14.191
 6599SOL    HW121571   1.788  14.854  14.133
 6599SOL    HW221572   1.763   0.007  14.279
 6600SOL     OW21573  10.493   4.331   9.298
 6600SOL    HW121574  10.441   4.313   9.219
 6600SOL    HW221575  10.488   4.250   9.349
 6601SOL     OW21576   3.429   5.658  12.157
 6601SOL    HW121577   3.414   5.574  12.115
 6601SOL    HW221578   3.474   5.637  12.239
 6602SOL     OW21579  13.974  11.275   2.003
 6602SOL    HW121580  14.046  11.242   1.950
 6602SOL    HW221581  13.907  11.207   1.998
 6603SOL     OW21582   6.622   2.612   3.277
 6603SOL    HW121583   6.613   2.579   3.188
 6603SOL    HW221584   6.713   2.596   3.299
 6604SOL     OW21585  14.834   4.572   2.038
 6604SOL    HW121586  14.800   4.491   2.076
 6604SOL    HW221587   0.044   4.580   2.074
 6605SOL     OW21588   1.503  12.641  12.572
 6605SOL    HW121589   1.412  12.658  12.598
 6605SOL    HW221590   1.499  12.627  12.478
 6606SOL     OW21591  12.777   8.032  10.556
 6606SOL    HW121592  12.723   8.107  10.531
 6606SOL    HW221593  12.863   8.050  10.518
 6607SOL     OW21594   4.349   7.043   4.171
 6607SOL    HW121595   4.270   7.081   4.208
 6607SOL    HW221596   4.337   6.948   4.181
 6608SOL     OW21597  12.538   2.667   5.488
 6608SOL    HW121598  12.501   2.580   5.501
 6608SOL    HW221599  12.506   2.719   5.561
 6609SOL     OW21600   6.928   7.991   3.464
 6609SOL    HW121601   6.927   8.077   3.423
 6609SOL    HW221602   6.992   7.999   3.535
 6610SOL     OW21603  10.977   3.278   1.563
 6610SOL    HW121604  11.036   3.347   1.532
 6610SOL    HW221605  10.998   3.269   1.656
 6611SOL     OW21606   7.825  10.708   4.197
 6611SOL    HW121607   7.890  10.666   4.140
 6611SOL    HW221608   7.768  10.635   4.225
 6612SOL     OW21609  13.123   5.543  12.166
 6612SOL    HW121610  13.060   5.472  12.158
 6612SOL    HW221611  13.207   5.500  12.183
 6613SOL     OW21612   6.868   6.374   2.264
 6613SOL    HW121613   6.831   6.463   2.261
 6613SOL    HW221614   6.804   6.320   2.218
 6614SOL     OW21615   0.024  13.972   2.460
 6614SOL    HW121616   0.017  13.902   2.525
 6614SOL    HW221617  14.811  13.996   2.441
 6615SOL     OW21618  13.626   2.069   2.294
 6615SOL    HW121619  13.618   2.058   2.199
 6615SOL    HW221620  13.560   2.135   2.316
 6616SOL     OW21621   8.753  13.027   1.302
 6616SOL    HW121622   8.706  12.944   1.311
 6616SOL    HW221623   8.797  13.020   1.218
 6617SOL     OW21624   8.591   5.535  13.776
 6617SOL    HW121625   8.517   5.510  13.719
 6617SOL    HW221626   8.557   5.607  13.829
 6618SOL     OW21627   1.639   6.079   4.699
 6618SOL    HW121628   1.706   6.016   4.725
 6618SOL    HW221629   1.637   6.075   4.604
 6619SOL     OW21630   5.819   3.668   3.845
 6619SOL    HW121631   5.865   3.744   3.809
 6619SOL    HW221632   5.883   3.598   3.843
 6620SOL     OW21633   8.421   9.517  13.976
 6620SOL    HW121634   8.425   9.607  14.008
 6620SOL    HW221635   8.502   9.505  13.927
 6621SOL     OW21636   1.795   7.349   9.296
 6621SOL    HW121637   1.703   7.369   9.314
 6621SOL    HW221638   1.805   7.363   9.202
 6622SOL     OW21639   7.107   2.614  11.265
 6622SOL    HW121640   7.071   2.699  11.241
 6622SOL    HW221641   7.186   2.634  11.315
 6623SOL     OW21642  14.593  13.197  12.778
 6623SOL    HW121643  14.573  13.171  12.868
 6623SOL    HW221644  14.685  13.223  12.782
 6624SOL     OW21645   6.475   3.256  11.276
 6624SOL    HW121646   6.428   3.212  11.347
 6624SOL    HW221647   6.406   3.296  11.223
 6625SOL     OW21648   5.468   5.042   3.891
 6625SOL    HW121649   5.552   5.005   3.920
 6625SOL    HW221650   5.493   5.107   3.825
 6626SOL     OW21651   4.905   5.077   3.741
 6626SOL    HW121652   4.920   5.099   3.649
 6626SOL    HW221653   4.820   5.032   3.742
 6627SOL     OW21654   3.518   1.549   2.372
 6627SOL    HW121655   3.507   1.535   2.466
 6627SOL    HW221656   3.520   1.461   2.334
 6628SOL     OW21657  13.721   8.175   7.961
 6628SOL    HW121658  13.810   8.198   7.988
 6628SOL    HW221659  13.732   8.102   7.901
 6629SOL     OW21660   2.279   6.384   9.381
 6629SOL    HW121661   2.358   6.429   9.412
 6629SOL    HW221662   2.281   6.393   9.286
 6630SOL     OW21663   6.043   1.014   8.640
 6630SOL    HW121664   6.129   0.980   8.662
 6630SOL    HW221665   6.033   1.092   8.696
 6631SOL     OW21666   8.596   5.031  11.086
 6631SOL    HW121667   8.525   5.090  11.109
 6631SOL    HW221668   8.660   5.086  11.042
 6632SOL     OW21669   1.908  12.019   6.227
 6632SOL    HW121670   1.906  12.018   6.131
 6632SOL    HW221671   1.934  11.930   6.251
 6633SOL     OW21672  11.105  10.433   4.801
 6633SOL    HW121673  11.048  10.468   4.870
 6633SOL    HW221674  11.052  10.365   4.758
 6634SOL     OW21675   5.311  14.804   2.935
 6634SOL    HW121676   5.364   0.002   2.907
 6634SOL    HW221677   5.232  14.810   2.882
 6635SOL     OW21678   4.307   6.976   3.336
 6635SOL    HW121679   4.271   7.057   3.301
 6635SOL    HW221680   4.398   6.997   3.358
 6636SOL     OW21681  13.347   2.847  11.740
 6636SOL    HW121682  13.278   2.905  11.772
 6636SOL    HW221683  13.300   2.774  11.698
 6637SOL     OW21684   9.939   0.795  10.122
 6637SOL    HW121685   9.883   0.786  10.046
 6637SOL    HW221686   9.929   0.887  10.148
 6638SOL     OW21687   0.447  10.372  14.570
 6638SOL    HW121688   0.421  10.280  14.571
 6638SOL    HW221689   0.389  10.414  14.633
 6639SOL     OW21690   9.823   8.329   7.241
 6639SOL    HW121691   9.843   8.258   7.180
 6639SOL    HW221692   9.734   8.310   7.272
 6640SOL     OW21693  10.149  11.749   5.410
 6640SOL    HW121694  10.225  11.691   5.418
 6640SOL    HW221695  10.074  11.693   5.432
 6641SOL     OW21696   0.950  11.000   8.693
 6641SOL    HW121697   0.906  10.930   8.644
 6641SOL    HW221698   0.902  11.080   8.670
 6642SOL     OW21699   2.832   9.939   6.461
 6642SOL    HW121700   2.817   9.863   6.517
 6642SOL    HW221701   2.928   9.943   6.451
 6643SOL     OW21702  11.602  14.618   3.263
 6643SOL    HW121703  11.578  14.532   3.227
 6643SOL    HW221704  11.555  14.681   3.208
 6644SOL     OW21705  13.122   2.625   8.047
 6644SOL    HW121706  13.033   2.658   8.044
 6644SOL    HW221707  13.127   2.563   7.974
 6645SOL     OW21708   7.598   0.949  11.189
 6645SOL    HW121709   7.616   0.958  11.095
 6645SOL    HW221710   7.511   0.986  11.200
 6646SOL     OW21711   1.792   8.489   0.047
 6646SOL    HW121712   1.882   8.503   0.019
 6646SOL    HW221713   1.745   8.467  14.844
 6647SOL     OW21714   9.528   3.301   6.777
 6647SOL    HW121715   9.614   3.321   6.739
 6647SOL    HW221716   9.488   3.387   6.792
 6648SOL     OW21717   6.603   1.877   8.323
 6648SOL    HW121718   6.633   1.789   8.299
 6648SOL    HW221719   6.640   1.934   8.256
 6649SOL     OW21720  14.171   2.988  10.089
 6649SOL    HW121721  14.198   2.918  10.029
 6649SOL    HW221722  14.208   3.067  10.051
 6650SOL     OW21723   7.620   0.580   0.358
 6650SOL    HW121724   7.650   0.613   0.274
 6650SOL    HW221725   7.524   0.586   0.354
 6651SOL     OW21726   4.422   5.455   9.612
 6651SOL    HW121727   4.417   5.443   9.707
 6651SOL    HW221728   4.348   5.512   9.591
 6652SOL     OW21729  14.085   1.597   7.378
 6652SOL    HW121730  14.115   1.509   7.353
 6652SOL    HW221731  14.097   1.650   7.300
 6653SOL     OW21732   8.809   2.014   2.550
 6653SOL    HW121733   8.774   1.935   2.509
 6653SOL    HW221734   8.886   1.985   2.598
 6654SOL     OW21735   4.400  12.837   0.011
 6654SOL    HW121736   4.439  12.916  14.852
 6654SOL    HW221737   4.442  12.765  14.840
 6655SOL     OW21738   4.800  10.323   4.881
 6655SOL    HW121739   4.742  10.397   4.863
 6655SOL    HW221740   4.802  10.316   4.976
 6656SOL     OW21741  11.653   3.382   4.950
 6656SOL    HW121742  11.677   3.289   4.957
 6656SOL    HW221743  11.687   3.409   4.865
 6657SOL     OW21744  12.627   2.280   2.339
 6657SOL    HW121745  12.693   2.328   2.390
 6657SOL    HW221746  12.667   2.268   2.253
 6658SOL     OW21747  11.885   5.486  10.744
 6658SOL    HW121748  11.977   5.478  10.718
 6658SOL    HW221749  11.853   5.564  10.699
 6659SOL     OW21750  11.102   2.405   8.200
 6659SOL    HW121751  11.115   2.315   8.232
 6659SOL    HW221752  11.024   2.435   8.247
 6660SOL     OW21753  11.276   4.686   8.201
 6660SOL    HW121754  11.218   4.618   8.168
 6660SOL    HW221755  11.319   4.646   8.277
 6661SOL     OW21756  13.346  14.455   0.691
 6661SOL    HW121757  13.369  14.405   0.613
 6661SOL    HW221758  13.429  14.487   0.725
 6662SOL     OW21759   9.987  14.453  13.037
 6662SOL    HW121760  10.065  14.507  13.036
 6662SOL    HW221761   9.914  14.515  13.032
 6663SOL     OW21762   4.710   1.712   4.383
 6663SOL    HW121763   4.695   1.623   4.416
 6663SOL    HW221764   4.650   1.720   4.308
 6664SOL     OW21765  12.784   6.423   0.542
 6664SOL    HW121766  12.747   6.420   0.453
 6664SOL    HW221767  12.738   6.495   0.584
 6665SOL     OW21768   7.936   3.916   4.083
 6665SOL    HW121769   7.902   3.842   4.032
 6665SOL    HW221770   7.971   3.876   4.162
 6666SOL     OW21771   6.180   0.128  14.714
 6666SOL    HW121772   6.204   0.200  14.772
 6666SOL    HW221773   6.185   0.165  14.626
 6667SOL     OW21774  14.173  12.001  12.430
 6667SOL    HW121775  14.262  11.974  12.407
 6667SOL    HW221776  14.133  12.027  12.347
 6668SOL     OW21777   0.820  11.166   2.403
 6668SOL    HW121778   0.901  11.215   2.387
 6668SOL    HW221779   0.847  11.095   2.462
 6669SOL     OW21780   0.011  11.762   1.589
 6669SOL    HW121781  14.877  11.674   1.553
 6669SOL    HW221782  14.828  11.766   1.663
 6670SOL     OW21783   7.276  14.497   5.711
 6670SOL    HW121784   7.229  14.558   5.654
 6670SOL    HW221785   7.365  14.531   5.715
 6671SOL     OW21786   0.369  10.051   2.423
 6671SOL    HW121787   0.369   9.973   2.479
 6671SOL    HW221788   0.453  10.093   2.439
 6672SOL     OW21789   7.282   9.941  11.284
 6672SOL    HW121790   7.269   9.947  11.379
 6672SOL    HW221791   7.209   9.886  11.254
 6673SOL     OW21792  10.554   4.490  14.839
 6673SOL    HW121793  10.483   4.447   0.009
 6673SOL    HW221794  10.537   4.584  14.851
 6674SOL     OW21795  10.218  12.785   1.631
 6674SOL    HW121796  10.306  12.748   1.642
 6674SOL    HW221797  10.233  12.869   1.587
 6675SOL     OW21798   0.388   8.113  14.147
 6675SOL    HW121799   0.449   8.131  14.075
 6675SOL    HW221800   0.368   8.199  14.184
 6676SOL     OW21801   8.770   3.797  14.790
 6676SOL    HW121802   8.731   3.827  14.708
 6676SOL    HW221803   8.806   3.711  14.769
 6677SOL     OW21804   3.198  13.612   3.422
 6677SOL    HW121805   3.228  13.596   3.512
 6677SOL    HW221806   3.123  13.553   3.411
 6678SOL     OW21807  13.310  13.455   1.873
 6678SOL    HW121808  13.237  13.434   1.815
 6678SOL    HW221809  13.269  13.494   1.950
 6679SOL     OW21810   9.535   6.095   8.736
 6679SOL    HW121811   9.447   6.128   8.716
 6679SOL    HW221812   9.580   6.097   8.651
 6680SOL     OW21813   6.050   1.045   7.275
 6680SOL    HW121814   6.143   1.045   7.251
 6680SOL    HW221815   6.011   0.978   7.220
 6681SOL     OW21816  10.146   8.653   7.278
 6681SOL    HW121817  10.066   8.608   7.305
 6681SOL    HW221818  10.209   8.583   7.262
 6682SOL     OW21819  13.036   2.395  13.582
 6682SOL    HW121820  13.081   2.475  13.555
 6682SOL    HW221821  12.967   2.383  13.518
 6683SOL     OW21822   0.184   9.844  12.607
 6683SOL    HW121823   0.198   9.914  12.543
 6683SOL    HW221824   0.151   9.771  12.555
 6684SOL     OW21825  13.379   0.364  11.651
 6684SOL    HW121826  13.472   0.381  11.667
 6684SOL    HW221827  13.377   0.312  11.571
 6685SOL     OW21828  12.513   6.734   9.394
 6685SOL    HW121829  12.497   6.739   9.300
 6685SOL    HW221830  12.471   6.653   9.421
 6686SOL     OW21831   4.608   9.556  10.322
 6686SOL    HW121832   4.669   9.532  10.391
 6686SOL    HW221833   4.588   9.649  10.338
 6687SOL     OW21834  11.626  13.969  13.059
 6687SOL    HW121835  11.558  13.945  13.121
 6687SOL    HW221836  11.578  14.006  12.985
 6688SOL     OW21837   0.791  11.600   5.799
 6688SOL    HW121838   0.776  11.589   5.705
 6688SOL    HW221839   0.880  11.566   5.814
 6689SOL     OW21840   7.310  10.626  13.923
 6689SOL    HW121841   7.307  10.625  14.019
 6689SOL    HW221842   7.244  10.690  13.897
 6690SOL     OW21843   8.396   8.929   7.142
 6690SOL    HW121844   8.491   8.920   7.142
 6690SOL    HW221845   8.370   8.909   7.052
 6691SOL     OW21846   8.808   8.166  14.662
 6691SOL    HW121847   8.821   8.076  14.692
 6691SOL    HW221848   8.774   8.156  14.573
 6692SOL     OW21849   8.299   5.092  14.268
 6692SOL    HW121850   8.206   5.112  14.259
 6692SOL    HW221851   8.331   5.088  14.178
 6693SOL     OW21852   8.216   3.961   9.755
 6693SOL    HW121853   8.179   3.992   9.672
 6693SOL    HW221854   8.189   3.869   9.760
 6694SOL     OW21855   0.345   0.911   9.611
 6694SOL    HW121856   0.346   0.919   9.706
 6694SOL    HW221857   0.254   0.889   9.591
 6695SOL     OW21858   9.469   3.312   2.305
 6695SOL    HW121859   9.401   3.256   2.342
 6695SOL    HW221860   9.448   3.400   2.337
 6696SOL     OW21861   9.776   5.916   9.961
 6696SOL    HW121862   9.740   5.975  10.027
 6696SOL    HW221863   9.751   5.956   9.878
 6697SOL     OW21864   1.985   0.773  13.276
 6697SOL    HW121865   2.064   0.721  13.287
 6697SOL    HW221866   1.913   0.714  13.300
 6698SOL     OW21867   1.968   1.507   8.264
 6698SOL    HW121868   2.026   1.558   8.320
 6698SOL    HW221869   1.901   1.570   8.236
 6699SOL     OW21870   5.675   7.047   7.534
 6699SOL    HW121871   5.582   7.044   7.556
 6699SOL    HW221872   5.716   7.094   7.606
 6700SOL     OW21873  11.235  12.396  10.334
 6700SOL    HW121874  11.257  12.480  10.295
 6700SOL    HW221875  11.139  12.391  10.329
 6701SOL     OW21876  12.451   2.218  10.175
 6701SOL    HW121877  12.385   2.150  10.159
 6701SOL    HW221878  12.409   2.299  10.146
 6702SOL     OW21879   9.628  12.267   6.793
 6702SOL    HW121880   9.660  12.291   6.706
 6702SOL    HW221881   9.564  12.334   6.815
 6703SOL     OW21882   4.944   0.104  14.750
 6703SOL    HW121883   4.916   0.054  14.674
 6703SOL    HW221884   5.007   0.167  14.715
 6704SOL     OW21885  14.510   0.558   8.552
 6704SOL    HW121886  14.597   0.596   8.546
 6704SOL    HW221887  14.473   0.594   8.633
 6705SOL     OW21888   7.278   5.243   1.151
 6705SOL    HW121889   7.200   5.295   1.168
 6705SOL    HW221890   7.248   5.153   1.151
 6706SOL     OW21891   1.364   2.996   4.832
 6706SOL    HW121892   1.398   2.907   4.837
 6706SOL    HW221893   1.357   3.014   4.739
 6707SOL     OW21894   0.258   0.059   5.863
 6707SOL    HW121895   0.207  14.856   5.862
 6707SOL    HW221896   0.199   0.126   5.828
 6708SOL     OW21897  13.217   3.566   9.347
 6708SOL    HW121898  13.274   3.539   9.274
 6708SOL    HW221899  13.129   3.540   9.320
 6709SOL     OW21900   7.335   2.376  10.790
 6709SOL    HW121901   7.300   2.398  10.876
 6709SOL    HW221902   7.259   2.374  10.733
 6710SOL     OW21903  10.543  10.785   9.934
 6710SOL    HW121904  10.566  10.694   9.915
 6710SOL    HW221905  10.617  10.819   9.984
 6711SOL     OW21906   7.514   5.272   4.089
 6711SOL    HW121907   7.420   5.288   4.083
 6711SOL    HW221908   7.526   5.183   4.055
 6712SOL     OW21909   3.234   9.504   5.738
 6712SOL    HW121910   3.176   9.484   5.812
 6712SOL    HW221911   3.262   9.418   5.707
 6713SOL     OW21912   1.972   8.509  10.828
 6713SOL    HW121913   1.916   8.545  10.897
 6713SOL    HW221914   1.969   8.415  10.841
 6714SOL     OW21915   2.711   0.007   9.802
 6714SOL    HW121916   2.760  14.870   9.721
 6714SOL    HW221917   2.731   0.097   9.827
 6715SOL     OW21918   2.679   7.531   4.544
 6715SOL    HW121919   2.767   7.494   4.558
 6715SOL    HW221920   2.660   7.514   4.452
 6716SOL     OW21921   8.846   0.370   6.325
 6716SOL    HW121922   8.881   0.456   6.349
 6716SOL    HW221923   8.851   0.369   6.229
 6717SOL     OW21924   8.263  13.221   4.705
 6717SOL    HW121925   8.325  13.161   4.747
 6717SOL    HW221926   8.177  13.188   4.728
 6718SOL     OW21927  13.077   8.406   3.756
 6718SOL    HW121928  13.118   8.346   3.817
 6718SOL    HW221929  13.026   8.465   3.811
 6719SOL     OW21930   8.241   3.964   3.443
 6719SOL    HW121931   8.253   3.952   3.537
 6719SOL    HW221932   8.309   4.026   3.417
 6720SOL     OW21933  14.690   1.343  12.183
 6720SOL    HW121934  14.703   1.304  12.269
 6720SOL    HW221935  14.601   1.317  12.158
 6721SOL     OW21936   1.054   8.457   1.476
 6721SOL    HW121937   1.140   8.455   1.433
 6721SOL    HW221938   0.992   8.437   1.407
 6722SOL     OW21939   2.412   7.501   4.590
 6722SOL    HW121940   2.503   7.482   4.568
 6722SOL    HW221941   2.417   7.571   4.655
 6723SOL     OW21942   1.717   4.227   2.632
 6723SOL    HW121943   1.691   4.296   2.571
 6723SOL    HW221944   1.772   4.270   2.696
 6724SOL     OW21945   7.606   9.369  10.295
 6724SOL    HW121946   7.629   9.461  10.309
 6724SOL    HW221947   7.682   9.321  10.327
 6725SOL     OW21948   0.487   4.797   3.195
 6725SOL    HW121949   0.444   4.878   3.169
 6725SOL    HW221950   0.575   4.823   3.220
 6726SOL     OW21951  13.922  10.673   1.855
 6726SOL    HW121952  13.831  10.676   1.886
 6726SOL    HW221953  13.943  10.579   1.853
 6727SOL     OW21954   1.199  14.765   1.150
 6727SOL    HW121955   1.258  14.840   1.151
 6727SOL    HW221956   1.179  14.751   1.058
 6728SOL     OW21957  11.472  11.311   0.263
 6728SOL    HW121958  11.510  11.269   0.340
 6728SOL    HW221959  11.545  11.359   0.224
 6729SOL     OW21960  12.810   7.978  11.295
 6729SOL    HW121961  12.819   8.030  11.375
 6729SOL    HW221962  12.831   7.888  11.323
 6730SOL     OW21963   2.431  12.233   7.586
 6730SOL    HW121964   2.457  12.152   7.629
 6730SOL    HW221965   2.372  12.206   7.515
 6731SOL     OW21966  13.367  14.524   1.364
 6731SOL    HW121967  13.289  14.496   1.317
 6731SOL    HW221968  13.342  14.525   1.456
 6732SOL     OW21969  12.414   3.297   4.449
 6732SOL    HW121970  12.482   3.283   4.515
 6732SOL    HW221971  12.347   3.348   4.494
 6733SOL     OW21972  13.422   3.130   9.098
 6733SOL    HW121973  13.466   3.093   9.174
 6733SOL    HW221974  13.380   3.055   9.056
 6734SOL     OW21975  10.064   1.212   7.188
 6734SOL    HW121976  10.122   1.278   7.227
 6734SOL    HW221977  10.019   1.259   7.118
 6735SOL     OW21978   7.619   5.408  13.325
 6735SOL    HW121979   7.697   5.356  13.305
 6735SOL    HW221980   7.596   5.450  13.242
 6736SOL     OW21981  12.064   7.359   7.972
 6736SOL    HW121982  12.001   7.287   7.977
 6736SOL    HW221983  12.096   7.357   7.882
 6737SOL     OW21984   9.929   6.422  11.701
 6737SOL    HW121985   9.900   6.474  11.626
 6737SOL    HW221986  10.017   6.392  11.677
 6738SOL     OW21987  11.362  11.817   9.862
 6738SOL    HW121988  11.423  11.849   9.927
 6738SOL    HW221989  11.348  11.725   9.885
 6739SOL     OW21990   5.599   4.383  12.728
 6739SOL    HW121991   5.664   4.368  12.660
 6739SOL    HW221992   5.638   4.348  12.807
 6740SOL     OW21993   7.770  11.068   2.548
 6740SOL    HW121994   7.821  11.073   2.466
 6740SOL    HW221995   7.683  11.099   2.524
 6741SOL     OW21996   5.076  12.045  13.265
 6741SOL    HW121997   5.063  12.063  13.359
 6741SOL    HW221998   5.142  11.976  13.263
 6742SOL     OW21999   2.038   3.865   1.513
 6742SOL    HW122000   2.109   3.803   1.529
 6742SOL    HW222001   2.082   3.950   1.507
 6743SOL     OW22002   4.220   5.907   5.230
 6743SOL    HW122003   4.142   5.867   5.268
 6743SOL    HW222004   4.274   5.931   5.306
 6744SOL     OW22005   5.896  14.470   7.095
 6744SOL    HW122006   5.855  14.387   7.070
 6744SOL    HW222007   5.880  14.528   7.021
 6745SOL     OW22008  11.646   4.823  11.157
 6745SOL    HW122009  11.567   4.843  11.107
 6745SOL    HW222010  11.614   4.790  11.241
 6746SOL     OW22011   5.020   4.764   3.162
 6746SOL    HW122012   5.084   4.756   3.091
 6746SOL    HW222013   5.037   4.688   3.219
 6747SOL     OW22014  11.542   7.287  12.280
 6747SOL    HW122015  11.627   7.324  12.255
 6747SOL    HW222016  11.529   7.317  12.370
 6748SOL     OW22017   3.709  10.695  11.818
 6748SOL    HW122018   3.717  10.665  11.908
 6748SOL    HW222019   3.617  10.717  11.807
 6749SOL     OW22020   9.746   1.763   3.778
 6749SOL    HW122021   9.817   1.699   3.775
 6749SOL    HW222022   9.679   1.723   3.833
 6750SOL     OW22023   4.040  14.087  10.909
 6750SOL    HW122024   4.047  13.995  10.933
 6750SOL    HW222025   4.011  14.131  10.989
 6751SOL     OW22026   0.897   9.885   8.901
 6751SOL    HW122027   0.857   9.814   8.850
 6751SOL    HW222028   0.872   9.965   8.854
 6752SOL     OW22029   1.090   1.251   7.478
 6752SOL    HW122030   1.045   1.177   7.438
 6752SOL    HW222031   1.152   1.281   7.412
 6753SOL     OW22032  12.553  13.105  10.587
 6753SOL    HW122033  12.580  13.175  10.527
 6753SOL    HW222034  12.607  13.119  10.665
 6754SOL     OW22035   8.129   1.907   5.643
 6754SOL    HW122036   8.107   1.942   5.729
 6754SOL    HW222037   8.220   1.881   5.650
 6755SOL     OW22038   2.448   9.924  14.626
 6755SOL    HW122039   2.442   9.829  14.623
 6755SOL    HW222040   2.470   9.949  14.536
 6756SOL     OW22041  13.955   1.215  14.714
 6756SOL    HW122042  13.890   1.271  14.757
 6756SOL    HW222043  13.904   1.149  14.668
 6757SOL     OW22044   1.093  14.373   7.525
 6757SOL    HW122045   1.189  14.369   7.526
 6757SOL    HW222046   1.073  14.460   7.492
 6758SOL     OW22047  12.922   2.123  12.482
 6758SOL    HW122048  12.910   2.120  12.387
 6758SOL    HW222049  12.835   2.139  12.517
 6759SOL     OW22050   9.105   8.671   0.104
 6759SOL    HW122051   9.177   8.660   0.165
 6759SOL    HW222052   9.077   8.762   0.115
 6760SOL     OW22053   0.444  12.812   2.583
 6760SOL    HW122054   0.492  12.887   2.618
 6760SOL    HW222055   0.497  12.782   2.509
 6761SOL     OW22056  10.156   5.295   4.543
 6761SOL    HW122057  10.187   5.356   4.610
 6761SOL    HW222058  10.209   5.217   4.556
 6762SOL     OW22059  13.406   7.102  12.835
 6762SOL    HW122060  13.497   7.105  12.865
 6762SOL    HW222061  13.413   7.080  12.742
 6763SOL     OW22062  12.876   5.257  10.774
 6763SOL    HW122063  12.790   5.283  10.808
 6763SOL    HW222064  12.907   5.192  10.837
 6764SOL     OW22065  11.042   2.782  13.160
 6764SOL    HW122066  10.999   2.697  13.174
 6764SOL    HW222067  11.019   2.833  13.237
 6765SOL     OW22068   3.969  12.987   0.592
 6765SOL    HW122069   4.039  12.935   0.552
 6765SOL    HW222070   4.014  13.040   0.658
 6766SOL     OW22071   6.847  12.284   3.987
 6766SOL    HW122072   6.926  12.246   3.949
 6766SOL    HW222073   6.876  12.367   4.024
 6767SOL     OW22074   5.553   8.439   3.070
 6767SOL    HW122075   5.539   8.347   3.093
 6767SOL    HW222076   5.595   8.477   3.148
 6768SOL     OW22077   1.558   4.587   8.256
 6768SOL    HW122078   1.549   4.673   8.297
 6768SOL    HW222079   1.485   4.536   8.292
 6769SOL     OW22080   3.165  10.938   9.109
 6769SOL    HW122081   3.154  10.988   9.189
 6769SOL    HW222082   3.219  10.863   9.134
 6770SOL     OW22083  13.513   9.232   1.408
 6770SOL    HW122084  13.542   9.298   1.472
 6770SOL    HW222085  13.476   9.161   1.461
 6771SOL     OW22086   3.889   5.816  10.623
 6771SOL    HW122087   3.914   5.724  10.636
 6771SOL    HW222088   3.893   5.853  10.711
 6772SOL     OW22089   0.112   8.191   9.273
 6772SOL    HW122090   0.096   8.209   9.366
 6772SOL    HW222091   0.036   8.226   9.228
 6773SOL     OW22092  11.728   9.533   6.007
 6773SOL    HW122093  11.746   9.481   5.928
 6773SOL    HW222094  11.756   9.477   6.079
 6774SOL     OW22095  12.396  13.476   5.390
 6774SOL    HW122096  12.416  13.566   5.366
 6774SOL    HW222097  12.340  13.484   5.468
 6775SOL     OW22098   5.309   8.825   0.943
 6775SOL    HW122099   5.269   8.868   0.868
 6775SOL    HW222100   5.239   8.818   1.008
 6776SOL     OW22101  14.234   7.563  11.945
 6776SOL    HW122102  14.266   7.652  11.957
 6776SOL    HW222103  14.140   7.574  11.928
 6777SOL     OW22104   0.591   5.049  14.712
 6777SOL    HW122105   0.560   5.096  14.789
 6777SOL    HW222106   0.608   5.117  14.647
 6778SOL     OW22107  13.648   9.102   5.265
 6778SOL    HW122108  13.605   9.188   5.263
 6778SOL    HW222109  13.722   9.115   5.324
 6779SOL     OW22110  11.188   1.394   1.255
 6779SOL    HW122111  11.210   1.400   1.348
 6779SOL    HW222112  11.093   1.402   1.253
 6780SOL     OW22113  11.776   4.024   5.637
 6780SOL    HW122114  11.760   3.938   5.677
 6780SOL    HW222115  11.719   4.083   5.684
 6781SOL     OW22116   3.758  12.004   1.955
 6781SOL    HW122117   3.693  12.069   1.982
 6781SOL    HW222118   3.708  11.938   1.907
 6782SOL     OW22119   1.107   5.456   0.516
 6782SOL    HW122120   1.157   5.395   0.462
 6782SOL    HW222121   1.043   5.402   0.562
 6783SOL     OW22122   5.687   7.149   9.512
 6783SOL    HW122123   5.642   7.229   9.483
 6783SOL    HW222124   5.617   7.092   9.542
 6784SOL     OW22125   6.447   5.841   0.709
 6784SOL    HW122126   6.430   5.934   0.695
 6784SOL    HW222127   6.414   5.823   0.797
 6785SOL     OW22128  13.824   9.988   8.614
 6785SOL    HW122129  13.785   9.963   8.531
 6785SOL    HW222130  13.784   9.930   8.678
 6786SOL     OW22131   9.026   7.887   2.921
 6786SOL    HW122132   9.026   7.803   2.873
 6786SOL    HW222133   9.023   7.953   2.852
 6787SOL     OW22134  14.601   3.212   7.933
 6787SOL    HW122135  14.511   3.219   7.903
 6787SOL    HW222136  14.614   3.290   7.987
 6788SOL     OW22137   8.774   0.115   4.351
 6788SOL    HW122138   8.760   0.206   4.324
 6788SOL    HW222139   8.702   0.096   4.410
 6789SOL     OW22140  13.973  13.764   6.319
 6789SOL    HW122141  14.016  13.777   6.234
 6789SOL    HW222142  13.895  13.819   6.315
 6790SOL     OW22143  11.274  13.882  14.821
 6790SOL    HW122144  11.369  13.876  14.816
 6790SOL    HW222145  11.258  13.933   0.023
 6791SOL     OW22146   5.235  12.327   7.062
 6791SOL    HW122147   5.252  12.282   6.980
 6791SOL    HW222148   5.150  12.370   7.049
 6792SOL     OW22149   7.401  11.138   1.796
 6792SOL    HW122150   7.400  11.189   1.716
 6792SOL    HW222151   7.317  11.092   1.796
 6793SOL     OW22152   9.103   5.530   2.893
 6793SOL    HW122153   9.165   5.595   2.926
 6793SOL    HW222154   9.048   5.510   2.969
 6794SOL     OW22155   5.023   9.942   5.145
 6794SOL    HW122156   5.050  10.034   5.151
 6794SOL    HW222157   5.082   9.904   5.080
 6795SOL     OW22158  12.771   2.423  14.830
 6795SOL    HW122159  12.832   2.465   0.012
 6795SOL    HW222160  12.714   2.371   0.009
 6796SOL     OW22161   8.148   9.382  13.867
 6796SOL    HW122162   8.066   9.376  13.915
 6796SOL    HW222163   8.207   9.322  13.913
 6797SOL     OW22164   3.550   3.576   0.995
 6797SOL    HW122165   3.529   3.641   0.928
 6797SOL    HW222166   3.587   3.503   0.946
 6798SOL     OW22167   4.694   4.060   8.687
 6798SOL    HW122168   4.722   4.016   8.607
 6798SOL    HW222169   4.776   4.076   8.735
 6799SOL     OW22170   7.159   6.060  10.748
 6799SOL    HW122171   7.217   5.990  10.718
 6799SOL    HW222172   7.162   6.126  10.679
 6800SOL     OW22173   5.896  10.173  14.362
 6800SOL    HW122174   5.937  10.237  14.305
 6800SOL    HW222175   5.886  10.095  14.308
 6801SOL     OW22176   8.473  12.626   2.717
 6801SOL    HW122177   8.524  12.699   2.752
 6801SOL    HW222178   8.537  12.571   2.673
 6802SOL     OW22179  12.570   6.583   7.251
 6802SOL    HW122180  12.491   6.581   7.305
 6802SOL    HW222181  12.574   6.495   7.213
 6803SOL     OW22182  12.778   3.515  14.674
 6803SOL    HW122183  12.791   3.599  14.719
 6803SOL    HW222184  12.707   3.473  14.722
 6804SOL     OW22185   4.617   7.656  11.625
 6804SOL    HW122186   4.620   7.563  11.646
 6804SOL    HW222187   4.687   7.695  11.676
 6805SOL     OW22188   8.263   0.011  12.482
 6805SOL    HW122189   8.293  14.805  12.517
 6805SOL    HW222190   8.338   0.045  12.433
 6806SOL     OW22191   3.682   3.404   2.222
 6806SOL    HW122192   3.612   3.468   2.205
 6806SOL    HW222193   3.761   3.456   2.232
 6807SOL     OW22194   5.880  12.937   3.970
 6807SOL    HW122195   5.813  12.892   3.920
 6807SOL    HW222196   5.903  12.877   4.041
 6808SOL     OW22197   4.883  10.051   1.216
 6808SOL    HW122198   4.877   9.990   1.290
 6808SOL    HW222199   4.920  10.131   1.254
 6809SOL     OW22200   4.781  12.813   7.099
 6809SOL    HW122201   4.775  12.761   7.019
 6809SOL    HW222202   4.873  12.839   7.105
 6810SOL     OW22203   5.096   1.413   7.762
 6810SOL    HW122204   5.156   1.421   7.688
 6810SOL    HW222205   5.032   1.483   7.750
 6811SOL     OW22206   4.389   9.197  14.633
 6811SOL    HW122207   4.352   9.250  14.704
 6811SOL    HW222208   4.316   9.141  14.605
 6812SOL     OW22209   9.247  14.102   5.015
 6812SOL    HW122210   9.202  14.156   4.950
 6812SOL    HW222211   9.337  14.094   4.981
 6813SOL     OW22212   8.741  14.426   4.830
 6813SOL    HW122213   8.764  14.506   4.878
 6813SOL    HW222214   8.788  14.356   4.875
 6814SOL     OW22215   0.562   4.688   5.347
 6814SOL    HW122216   0.601   4.703   5.433
 6814SOL    HW222217   0.569   4.772   5.303
 6815SOL     OW22218  10.199   8.147  13.522
 6815SOL    HW122219  10.292   8.164  13.536
 6815SOL    HW222220  10.174   8.089  13.594
 6816SOL     OW22221   5.875   8.673   0.358
 6816SOL    HW122222   5.869   8.639   0.269
 6816SOL    HW222223   5.868   8.596   0.414
 6817SOL     OW22224   7.338  14.571  12.408
 6817SOL    HW122225   7.396  14.499  12.431
 6817SOL    HW222226   7.271  14.572  12.476
 6818SOL     OW22227   6.359   1.102  12.137
 6818SOL    HW122228   6.433   1.042  12.133
 6818SOL    HW222229   6.336   1.117  12.045
 6819SOL     OW22230   2.768   4.124   1.233
 6819SOL    HW122231   2.833   4.183   1.271
 6819SOL    HW222232   2.817   4.043   1.216
 6820SOL     OW22233  14.416   5.559   2.965
 6820SOL    HW122234  14.395   5.472   2.931
 6820SOL    HW222235  14.341   5.583   3.019
 6821SOL     OW22236  14.608   3.407   1.448
 6821SOL    HW122237  14.607   3.434   1.356
 6821SOL    HW222238  14.613   3.311   1.445
 6822SOL     OW22239   4.844   8.976  10.116
 6822SOL    HW122240   4.783   8.995  10.045
 6822SOL    HW222241   4.790   8.937  10.185
 6823SOL     OW22242   9.951   6.057   5.368
 6823SOL    HW122243   9.999   5.978   5.345
 6823SOL    HW222244  10.017   6.116   5.404
 6824SOL     OW22245   5.885   6.214   8.379
 6824SOL    HW122246   5.818   6.228   8.313
 6824SOL    HW222247   5.860   6.133   8.423
 6825SOL     OW22248   1.815  13.671   0.788
 6825SOL    HW122249   1.807  13.647   0.880
 6825SOL    HW222250   1.903  13.644   0.763
 6826SOL     OW22251   0.989   0.486   7.228
 6826SOL    HW122252   0.917   0.527   7.276
 6826SOL    HW222253   0.972   0.392   7.235
 6827SOL     OW22254  14.670   4.077   9.894
 6827SOL    HW122255  14.731   4.092   9.822
 6827SOL    HW222256  14.706   4.126   9.967
 6828SOL     OW22257  13.667   6.731   0.885
 6828SOL    HW122258  13.653   6.781   0.965
 6828SOL    HW222259  13.580   6.704   0.858
 6829SOL     OW22260   3.541  12.245  14.653
 6829SOL    HW122261   3.514  12.326  14.695
 6829SOL    HW222262   3.582  12.272  14.571
 6830SOL     OW22263   4.499   6.411  11.681
 6830SOL    HW122264   4.557   6.346  11.641
 6830SOL    HW222265   4.538   6.429  11.767
 6831SOL     OW22266   6.663   8.552   6.631
 6831SOL    HW122267   6.694   8.534   6.543
 6831SOL    HW222268   6.641   8.645   6.630
 6832SOL     OW22269  12.144   6.825   3.172
 6832SOL    HW122270  12.161   6.744   3.125
 6832SOL    HW222271  12.179   6.810   3.260
 6833SOL     OW22272  14.800   9.422  12.081
 6833SOL    HW122273  14.861   9.463  12.143
 6833SOL    HW222274  14.713   9.446  12.113
 6834SOL     OW22275   4.556   8.774   1.164
 6834SOL    HW122276   4.640   8.769   1.119
 6834SOL    HW222277   4.557   8.701   1.225
 6835SOL     OW22278   3.546   3.997  13.620
 6835SOL    HW122279   3.620   4.052  13.593
 6835SOL    HW222280   3.510   3.964  13.538
 6836SOL     OW22281   6.781  12.485   7.783
 6836SOL    HW122282   6.732  12.403   7.789
 6836SOL    HW222283   6.863  12.461   7.739
 6837SOL     OW22284  14.638   3.188   3.515
 6837SOL    HW122285  14.548   3.179   3.482
 6837SOL    HW222286  14.653   3.282   3.519
 6838SOL     OW22287  12.692   8.225   7.716
 6838SOL    HW122288  12.680   8.158   7.648
 6838SOL    HW222289  12.605   8.234   7.757
 6839SOL     OW22290   1.246  12.380   3.305
 6839SOL    HW122291   1.298  12.460   3.295
 6839SOL    HW222292   1.162  12.400   3.264
 6840SOL     OW22293  13.227   8.888   2.285
 6840SOL    HW122294  13.190   8.960   2.234
 6840SOL    HW222295  13.152   8.836   2.313
 6841SOL     OW22296   2.403  14.861   9.526
 6841SOL    HW122297   2.364   0.006   9.611
 6841SOL    HW222298   2.495  14.842   9.546
 6842SOL     OW22299   4.404   4.828   1.746
 6842SOL    HW122300   4.338   4.862   1.686
 6842SOL    HW222301   4.478   4.804   1.690
 6843SOL     OW22302   2.397  12.462   8.656
 6843SOL    HW122303   2.464  12.439   8.721
 6843SOL    HW222304   2.344  12.529   8.699
 6844SOL     OW22305  11.434   6.626  10.999
 6844SOL    HW122306  11.344   6.658  10.995
 6844SOL    HW222307  11.455   6.603  10.908
 6845SOL     OW22308   5.030  12.606   6.688
 6845SOL    HW122309   5.115  12.571   6.717
 6845SOL    HW222310   4.976  12.528   6.677
 6846SOL     OW22311   5.442   3.460   9.356
 6846SOL    HW122312   5.416   3.413   9.277
 6846SOL    HW222313   5.392   3.419   9.426
 6847SOL     OW22314   0.968  10.381   0.431
 6847SOL    HW122315   1.042  10.412   0.379
 6847SOL    HW222316   0.988  10.407   0.521
 6848SOL     OW22317   5.440   4.246  10.791
 6848SOL    HW122318   5.378   4.282  10.727
 6848SOL    HW222319   5.517   4.303  10.784
 6849SOL     OW22320   4.976   1.895   1.962
 6849SOL    HW122321   4.997   1.948   1.885
 6849SOL    HW222322   5.021   1.812   1.946
 6850SOL     OW22323  12.439  10.654   0.512
 6850SOL    HW122324  12.517  10.668   0.566
 6850SOL    HW222325  12.367  10.658   0.575
 6851SOL     OW22326  13.984   4.276   4.349
 6851SOL    HW122327  13.996   4.365   4.318
 6851SOL    HW222328  14.073   4.246   4.369
 6852SOL     OW22329  11.674  12.519  14.020
 6852SOL    HW122330  11.621  12.594  13.994
 6852SOL    HW222331  11.665  12.457  13.948
 6853SOL     OW22332  12.813   9.421   7.088
 6853SOL    HW122333  12.805   9.419   7.183
 6853SOL    HW222334  12.904   9.448   7.072
 6854SOL     OW22335   1.796   2.834  14.838
 6854SOL    HW122336   1.831   2.745  14.841
 6854SOL    HW222337   1.826   2.874   0.042
 6855SOL     OW22338   1.359  13.676  12.597
 6855SOL    HW122339   1.271  13.686  12.559
 6855SOL    HW222340   1.409  13.748  12.560
 6856SOL     OW22341   7.956   2.219   7.686
 6856SOL    HW122342   8.044   2.241   7.656
 6856SOL    HW222343   7.924   2.156   7.621
 6857SOL     OW22344  14.807   3.960   3.973
 6857SOL    HW122345  14.839   4.029   4.032
 6857SOL    HW222346  14.794   3.884   4.029
 6858SOL     OW22347   9.618  14.556  14.269
 6858SOL    HW122348   9.523  14.572  14.266
 6858SOL    HW222349   9.654  14.634  14.310
 6859SOL     OW22350  12.095   6.476   0.819
 6859SOL    HW122351  12.114   6.423   0.742
 6859SOL    HW222352  12.014   6.522   0.796
 6860SOL     OW22353   2.684  11.273  12.702
 6860SOL    HW122354   2.757  11.328  12.674
 6860SOL    HW222355   2.607  11.315  12.663
 6861SOL     OW22356   7.564   9.811  13.461
 6861SOL    HW122357   7.468   9.813  13.454
 6861SOL    HW222358   7.594   9.857  13.383
 6862SOL     OW22359   3.685   5.395   7.122
 6862SOL    HW122360   3.664   5.473   7.071
 6862SOL    HW222361   3.718   5.429   7.205
 6863SOL     OW22362  11.866   8.510   3.924
 6863SOL    HW122363  11.820   8.433   3.955
 6863SOL    HW222364  11.798   8.567   3.889
 6864SOL     OW22365   6.521   1.941  10.998
 6864SOL    HW122366   6.562   2.004  11.057
 6864SOL    HW222367   6.592   1.883  10.972
 6865SOL     OW22368   6.064   9.085  10.329
 6865SOL    HW122369   6.093   9.112  10.242
 6865SOL    HW222370   6.045   8.992  10.321
 6866SOL     OW22371   7.559   8.813   4.290
 6866SOL    HW122372   7.507   8.780   4.363
 6866SOL    HW222373   7.550   8.908   4.296
 6867SOL     OW22374   2.325   2.009   6.418
 6867SOL    HW122375   2.268   2.006   6.341
 6867SOL    HW222376   2.268   1.989   6.491
 6868SOL     OW22377   4.569   7.342   2.607
 6868SOL    HW122378   4.590   7.428   2.569
 6868SOL    HW222379   4.654   7.298   2.614
 6869SOL     OW22380   5.661  10.628   6.980
 6869SOL    HW122381   5.642  10.720   6.964
 6869SOL    HW222382   5.687  10.593   6.894
 6870SOL     OW22383   7.483   8.666   0.367
 6870SOL    HW122384   7.469   8.739   0.428
 6870SOL    HW222385   7.578   8.660   0.359
 6871SOL     OW22386   1.876   9.391  14.166
 6871SOL    HW122387   1.910   9.332  14.099
 6871SOL    HW222388   1.798   9.347  14.201
 6872SOL     OW22389   0.261  12.557   1.967
 6872SOL    HW122390   0.325  12.491   1.991
 6872SOL    HW222391   0.292  12.590   1.882
 6873SOL     OW22392   7.572   9.308   0.684
 6873SOL    HW122393   7.481   9.310   0.712
 6873SOL    HW222394   7.620   9.351   0.755
 6874SOL     OW22395   3.560   3.390   5.143
 6874SOL    HW122396   3.583   3.475   5.180
 6874SOL    HW222397   3.584   3.327   5.211
 6875SOL     OW22398   7.867   4.703   5.647
 6875SOL    HW122399   7.936   4.636   5.651
 6875SOL    HW222400   7.891   4.765   5.716
 6876SOL     OW22401  11.268   8.724   6.578
 6876SOL    HW122402  11.332   8.663   6.613
 6876SOL    HW222403  11.307   8.811   6.590
 6877SOL     OW22404   0.850   3.935  13.540
 6877SOL    HW122405   0.890   3.997  13.478
 6877SOL    HW222406   0.915   3.865  13.548
 6878SOL     OW22407   7.750   0.941   0.537
 6878SOL    HW122408   7.712   0.857   0.562
 6878SOL    HW222409   7.679   1.004   0.552
 6879SOL     OW22410  11.631  10.404   4.213
 6879SOL    HW122411  11.667  10.368   4.131
 6879SOL    HW222412  11.697  10.384   4.279
 6880SOL     OW22413  11.405   9.829   5.796
 6880SOL    HW122414  11.374   9.842   5.885
 6880SOL    HW222415  11.446   9.743   5.796
 6881SOL     OW22416   6.968   1.184   5.500
 6881SOL    HW122417   7.062   1.171   5.507
 6881SOL    HW222418   6.955   1.218   5.412
 6882SOL     OW22419   1.992   4.300   2.328
 6882SOL    HW122420   1.961   4.260   2.246
 6882SOL    HW222421   1.931   4.372   2.344
 6883SOL     OW22422   2.149  14.067   1.154
 6883SOL    HW122423   2.149  13.972   1.165
 6883SOL    HW222424   2.236  14.094   1.184
 6884SOL     OW22425   0.369   2.503   2.773
 6884SOL    HW122426   0.428   2.521   2.699
 6884SOL    HW222427   0.287   2.548   2.750
 6885SOL     OW22428   8.505   5.140   8.560
 6885SOL    HW122429   8.505   5.217   8.503
 6885SOL    HW222430   8.510   5.065   8.501
 6886SOL     OW22431   1.139   8.776   8.036
 6886SOL    HW122432   1.182   8.709   7.983
 6886SOL    HW222433   1.209   8.813   8.090
 6887SOL     OW22434   4.884   4.149   6.287
 6887SOL    HW122435   4.914   4.062   6.261
 6887SOL    HW222436   4.960   4.206   6.273
 6888SOL     OW22437   1.348   2.680   8.213
 6888SOL    HW122438   1.334   2.649   8.303
 6888SOL    HW222439   1.426   2.736   8.219
 6889SOL     OW22440  10.633  14.309  13.027
 6889SOL    HW122441  10.692  14.247  13.069
 6889SOL    HW222442  10.557  14.256  13.002
 6890SOL     OW22443   8.818  11.489   2.676
 6890SOL    HW122444   8.859  11.555   2.620
 6890SOL    HW222445   8.760  11.539   2.734
 6891SOL     OW22446   1.476   8.848   0.886
 6891SOL    HW122447   1.486   8.869   0.793
 6891SOL    HW222448   1.415   8.774   0.888
 6892SOL     OW22449   6.593  11.410   3.740
 6892SOL    HW122450   6.645  11.491   3.737
 6892SOL    HW222451   6.612  11.372   3.825
 6893SOL     OW22452   2.734  13.687   4.830
 6893SOL    HW122453   2.824  13.692   4.796
 6893SOL    HW222454   2.715  13.594   4.831
 6894SOL     OW22455   3.162   8.317   6.720
 6894SOL    HW122456   3.110   8.347   6.645
 6894SOL    HW222457   3.253   8.330   6.693
 6895SOL     OW22458   3.387  13.575  10.076
 6895SOL    HW122459   3.338  13.556   9.997
 6895SOL    HW222460   3.467  13.618  10.045
 6896SOL     OW22461   3.489   6.265   2.110
 6896SOL    HW122462   3.421   6.279   2.044
 6896SOL    HW222463   3.571   6.290   2.066
 6897SOL     OW22464   3.703   3.934   7.046
 6897SOL    HW122465   3.642   4.007   7.047
 6897SOL    HW222466   3.655   3.861   7.085
 6898SOL     OW22467   2.106   4.256   6.118
 6898SOL    HW122468   2.140   4.200   6.048
 6898SOL    HW222469   2.184   4.281   6.169
 6899SOL     OW22470   7.920  10.061  11.852
 6899SOL    HW122471   7.869  10.136  11.821
 6899SOL    HW222472   8.007  10.096  11.868
 6900SOL     OW22473   3.624   5.996   0.184
 6900SOL    HW122474   3.672   5.936   0.241
 6900SOL    HW222475   3.618   5.948   0.101
 6901SOL     OW22476   2.002   5.615  14.411
 6901SOL    HW122477   2.059   5.564  14.352
 6901SOL    HW222478   2.038   5.599  14.498
 6902SOL     OW22479   3.428   0.162   1.979
 6902SOL    HW122480   3.406   0.083   1.929
 6902SOL    HW222481   3.523   0.172   1.968
 6903SOL     OW22482   3.284  10.313   0.678
 6903SOL    HW122483   3.240  10.376   0.621
 6903SOL    HW222484   3.213  10.262   0.716
 6904SOL     OW22485   6.693   0.957   9.225
 6904SOL    HW122486   6.700   0.864   9.249
 6904SOL    HW222487   6.781   0.981   9.195
 6905SOL     OW22488   4.689  13.369   7.719
 6905SOL    HW122489   4.608  13.420   7.716
 6905SOL    HW222490   4.685  13.313   7.641
 6906SOL     OW22491   4.208  13.977   7.737
 6906SOL    HW122492   4.142  14.018   7.792
 6906SOL    HW222493   4.255  14.050   7.697
 6907SOL     OW22494   7.443   2.762   4.528
 6907SOL    HW122495   7.489   2.679   4.514
 6907SOL    HW222496   7.357   2.736   4.560
 6908SOL     OW22497   6.289  11.919  11.298
 6908SOL    HW122498   6.314  12.006  11.330
 6908SOL    HW222499   6.369  11.884  11.260
 6909SOL     OW22500   1.596   3.165  11.989
 6909SOL    HW122501   1.563   3.174  12.078
 6909SOL    HW222502   1.635   3.250  11.969
 6910SOL     OW22503  13.730  10.191   2.243
 6910SOL    HW122504  13.727  10.129   2.316
 6910SOL    HW222505  13.704  10.139   2.167
 6911SOL     OW22506   2.534   6.703   1.764
 6911SOL    HW122507   2.441   6.724   1.773
 6911SOL    HW222508   2.535   6.613   1.733
 6912SOL     OW22509   2.685   6.243   5.912
 6912SOL    HW122510   2.692   6.288   5.996
 6912SOL    HW222511   2.704   6.311   5.847
 6913SOL     OW22512   5.669   4.176   8.066
 6913SOL    HW122513   5.763   4.171   8.050
 6913SOL    HW222514   5.634   4.095   8.029
 6914SOL     OW22515  12.971   4.934   9.067
 6914SOL    HW122516  12.974   5.009   9.126
 6914SOL    HW222517  13.031   4.956   8.996
 6915SOL     OW22518   2.480   5.172  11.684
 6915SOL    HW122519   2.449   5.082  11.697
 6915SOL    HW222520   2.532   5.191  11.762
 6916SOL     OW22521   6.905  14.200   6.656
 6916SOL    HW122522   6.913  14.222   6.563
 6916SOL    HW222523   6.857  14.274   6.694
 6917SOL     OW22524  13.981  13.710  10.412
 6917SOL    HW122525  13.985  13.682  10.321
 6917SOL    HW222526  13.894  13.749  10.421
 6918SOL     OW22527  13.941   9.255   3.604
 6918SOL    HW122528  14.037   9.251   3.608
 6918SOL    HW222529  13.914   9.164   3.592
 6919SOL     OW22530  11.444  10.973   6.378
 6919SOL    HW122531  11.455  11.026   6.299
 6919SOL    HW222532  11.351  10.982   6.400
 6920SOL     OW22533  11.389   0.653  13.488
 6920SOL    HW122534  11.395   0.682  13.397
 6920SOL    HW222535  11.348   0.726  13.533
 6921SOL     OW22536   9.430   2.408   9.499
 6921SOL    HW122537   9.357   2.380   9.444
 6921SOL    HW222538   9.452   2.495   9.466
 6922SOL     OW22539   3.643  14.748   8.164
 6922SOL    HW122540   3.566  14.802   8.150
 6922SOL    HW222541   3.663  14.711   8.079
 6923SOL     OW22542   0.685   6.308   6.553
 6923SOL    HW122543   0.711   6.273   6.639
 6923SOL    HW222544   0.763   6.295   6.498
 6924SOL     OW22545   8.581   3.360   0.010
 6924SOL    HW122546   8.513   3.328  14.829
 6924SOL    HW222547   8.587   3.294   0.079
 6925SOL     OW22548  10.453  13.107   6.176
 6925SOL    HW122549  10.531  13.078   6.128
 6925SOL    HW222550  10.482  13.185   6.223
 6926SOL     OW22551   7.658   8.479  13.668
 6926SOL    HW122552   7.675   8.562  13.712
 6926SOL    HW222553   7.589   8.439  13.720
 6927SOL     OW22554  14.256   2.250   0.679
 6927SOL    HW122555  14.304   2.213   0.605
 6927SOL    HW222556  14.179   2.194   0.688
 6928SOL     OW22557   8.354   8.130   4.732
 6928SOL    HW122558   8.384   8.219   4.710
 6928SOL    HW222559   8.341   8.132   4.827
 6929SOL     OW22560   4.173  13.669   4.472
 6929SOL    HW122561   4.204  13.701   4.387
 6929SOL    HW222562   4.224  13.719   4.536
 6930SOL     OW22563  14.699   9.836  11.988
 6930SOL    HW122564  14.716   9.751  11.947
 6930SOL    HW222565  14.704   9.819  12.082
 6931SOL     OW22566  10.842   8.587  11.435
 6931SOL    HW122567  10.816   8.542  11.355
 6931SOL    HW222568  10.856   8.678  11.408
 6932SOL     OW22569  11.424   3.927  13.736
 6932SOL    HW122570  11.358   3.947  13.669
 6932SOL    HW222571  11.401   3.985  13.809
 6933SOL     OW22572   9.814   2.748  14.673
 6933SOL    HW122573   9.827   2.674  14.732
 6933SOL    HW222574   9.866   2.725  14.595
 6934SOL     OW22575   8.309  14.397   1.530
 6934SOL    HW122576   8.289  14.305   1.511
 6934SOL    HW222577   8.278  14.410   1.620
 6935SOL     OW22578   8.049  11.065   9.097
 6935SOL    HW122579   8.112  11.070   9.169
 6935SOL    HW222580   8.026  11.156   9.078
 6936SOL     OW22581   0.307  14.397   2.205
 6936SOL    HW122582   0.227  14.391   2.258
 6936SOL    HW222583   0.282  14.363   2.119
 6937SOL     OW22584  10.871   8.109   2.975
 6937SOL    HW122585  10.916   8.132   2.894
 6937SOL    HW222586  10.934   8.128   3.044
 6938SOL     OW22587   3.127   8.880   3.001
 6938SOL    HW122588   3.210   8.832   3.004
 6938SOL    HW222589   3.088   8.866   3.087
 6939SOL     OW22590   6.299   2.767  12.540
 6939SOL    HW122591   6.218   2.769  12.591
 6939SOL    HW222592   6.296   2.846  12.486
 6940SOL     OW22593   3.961   2.442   7.710
 6940SOL    HW122594   3.982   2.516   7.653
 6940SOL    HW222595   4.043   2.393   7.719
 6941SOL     OW22596   2.584  13.949   7.406
 6941SOL    HW122597   2.649  13.999   7.357
 6941SOL    HW222598   2.517  13.926   7.341
 6942SOL     OW22599   2.512   7.919   7.775
 6942SOL    HW122600   2.464   8.002   7.777
 6942SOL    HW222601   2.527   7.903   7.682
 6943SOL     OW22602   6.013   6.744   5.397
 6943SOL    HW122603   5.985   6.699   5.318
 6943SOL    HW222604   5.994   6.683   5.468
 6944SOL     OW22605   7.547  11.826   5.232
 6944SOL    HW122606   7.595  11.824   5.314
 6944SOL    HW222607   7.509  11.738   5.225
 6945SOL     OW22608   5.737  11.538  12.246
 6945SOL    HW122609   5.668  11.550  12.312
 6945SOL    HW222610   5.712  11.459  12.198
 6946SOL     OW22611  11.103   3.416  13.245
 6946SOL    HW122612  11.130   3.507  13.238
 6946SOL    HW222613  11.091   3.387  13.155
 6947SOL     OW22614   3.337   9.318   0.026
 6947SOL    HW122615   3.249   9.311   0.062
 6947SOL    HW222616   3.391   9.347   0.099
 6948SOL     OW22617   7.007   2.077  13.200
 6948SOL    HW122618   7.015   2.032  13.116
 6948SOL    HW222619   7.081   2.046  13.252
 6949SOL     OW22620   4.041   5.030   5.126
 6949SOL    HW122621   4.133   5.014   5.107
 6949SOL    HW222622   4.036   5.037   5.221
 6950SOL     OW22623   5.655   3.050   0.552
 6950SOL    HW122624   5.721   3.047   0.621
 6950SOL    HW222625   5.573   3.071   0.598
 6951SOL     OW22626   7.553   7.610   7.272
 6951SOL    HW122627   7.640   7.648   7.277
 6951SOL    HW222628   7.567   7.519   7.247
 6952SOL     OW22629  10.082   8.431  11.468
 6952SOL    HW122630  10.060   8.356  11.524
 6952SOL    HW222631  10.177   8.429  11.460
 6953SOL     OW22632   0.371   2.854   9.998
 6953SOL    HW122633   0.335   2.867  10.085
 6953SOL    HW222634   0.294   2.838   9.942
 6954SOL     OW22635   6.806   4.021  13.204
 6954SOL    HW122636   6.854   4.103  13.194
 6954SOL    HW222637   6.816   3.999  13.297
 6955SOL     OW22638   0.723   1.519   4.956
 6955SOL    HW122639   0.799   1.569   4.986
 6955SOL    HW222640   0.709   1.453   5.024
 6956SOL     OW22641  10.611   2.193   2.998
 6956SOL    HW122642  10.706   2.199   3.009
 6956SOL    HW222643  10.592   2.099   3.008
 6957SOL     OW22644  11.431   1.726  14.384
 6957SOL    HW122645  11.399   1.647  14.425
 6957SOL    HW222646  11.385   1.798  14.428
 6958SOL     OW22647   9.769  14.033   3.683
 6958SOL    HW122648   9.680  14.058   3.709
 6958SOL    HW222649   9.776  14.058   3.591
 6959SOL     OW22650   3.728   8.102   4.780
 6959SOL    HW122651   3.732   8.093   4.876
 6959SOL    HW222652   3.785   8.033   4.747
 6960SOL     OW22653  10.695   2.502   2.029
 6960SOL    HW122654  10.671   2.495   1.936
 6960SOL    HW222655  10.747   2.424   2.047
 6961SOL     OW22656   5.150  13.512   9.327
 6961SOL    HW122657   5.185  13.585   9.276
 6961SOL    HW222658   5.055  13.526   9.328
 6962SOL     OW22659  11.811  12.290  13.292
 6962SOL    HW122660  11.807  12.385  13.284
 6962SOL    HW222661  11.727  12.260  13.257
 6963SOL     OW22662  12.398  11.532   7.739
 6963SOL    HW122663  12.321  11.555   7.790
 6963SOL    HW222664  12.366  11.525   7.649
 6964SOL     OW22665  11.331   0.037   7.884
 6964SOL    HW122666  11.386   0.027   7.962
 6964SOL    HW222667  11.341   0.130   7.860
 6965SOL     OW22668  11.969  13.940   3.659
 6965SOL    HW122669  12.013  13.863   3.695
 6965SOL    HW222670  11.876  13.919   3.665
 6966SOL     OW22671  12.111   7.610   6.132
 6966SOL    HW122672  12.113   7.668   6.208
 6966SOL    HW222673  12.018   7.605   6.108
 6967SOL     OW22674   4.793  13.442  11.672
 6967SOL    HW122675   4.765  13.525  11.712
 6967SOL    HW222676   4.873  13.419  11.718
 6968SOL     OW22677   0.792  13.840  12.899
 6968SOL    HW122678   0.848  13.893  12.843
 6968SOL    HW222679   0.833  13.754  12.900
 6969SOL     OW22680   5.724  11.775  12.604
 6969SOL    HW122681   5.746  11.854  12.653
 6969SOL    HW222682   5.807  11.727  12.599
 6970SOL     OW22683   7.523   1.759   8.885
 6970SOL    HW122684   7.614   1.760   8.856
 6970SOL    HW222685   7.519   1.688   8.949
 6971SOL     OW22686   5.463   4.833  12.893
 6971SOL    HW122687   5.432   4.747  12.865
 6971SOL    HW222688   5.419   4.894  12.835
 6972SOL     OW22689  11.450   4.225   8.906
 6972SOL    HW122690  11.505   4.301   8.925
 6972SOL    HW222691  11.361   4.259   8.908
 6973SOL     OW22692   0.589   8.862   6.053
 6973SOL    HW122693   0.596   8.933   6.117
 6973SOL    HW222694   0.656   8.799   6.080
 6974SOL     OW22695  12.028  11.781   7.337
 6974SOL    HW122696  12.032  11.762   7.430
 6974SOL    HW222697  12.110  11.746   7.301
 6975SOL     OW22698   9.429  11.173   4.421
 6975SOL    HW122699   9.487  11.242   4.389
 6975SOL    HW222700   9.379  11.215   4.491
 6976SOL     OW22701   2.297   3.263   3.215
 6976SOL    HW122702   2.338   3.193   3.164
 6976SOL    HW222703   2.297   3.338   3.155
 6977SOL     OW22704   6.168   4.534   0.249
 6977SOL    HW122705   6.190   4.487   0.329
 6977SOL    HW222706   6.167   4.467   0.181
 6978SOL     OW22707   6.660   8.400   2.381
 6978SOL    HW122708   6.690   8.478   2.428
 6978SOL    HW222709   6.639   8.431   2.293
 6979SOL     OW22710  12.225   8.910  14.463
 6979SOL    HW122711  12.226   8.823  14.423
 6979SOL    HW222712  12.316   8.924  14.492
 6980SOL     OW22713   6.502  11.333  10.994
 6980SOL    HW122714   6.564  11.325  11.066
 6980SOL    HW222715   6.456  11.415  11.011
 6981SOL     OW22716   8.860  11.311  11.911
 6981SOL    HW122717   8.954  11.328  11.905
 6981SOL    HW222718   8.835  11.284  11.823
 6982SOL     OW22719  11.884   7.104   2.523
 6982SOL    HW122720  11.807   7.160   2.535
 6982SOL    HW222721  11.865   7.026   2.576
 6983SOL     OW22722   7.145   0.637  12.483
 6983SOL    HW122723   7.148   0.649  12.578
 6983SOL    HW222724   7.052   0.642  12.461
 6984SOL     OW22725  13.127   6.769  11.540
 6984SOL    HW122726  13.219   6.760  11.514
 6984SOL    HW222727  13.101   6.680  11.564
 6985SOL     OW22728  12.289   4.265   6.069
 6985SOL    HW122729  12.195   4.276   6.080
 6985SOL    HW222730  12.302   4.170   6.070
 6986SOL     OW22731   9.741   0.682  14.694
 6986SOL    HW122732   9.819   0.626  14.693
 6986SOL    HW222733   9.738   0.720  14.606
 6987SOL     OW22734  14.656   9.820   6.776
 6987SOL    HW122735  14.751   9.817   6.763
 6987SOL    HW222736  14.638   9.912   6.796
 6988SOL     OW22737   9.630   7.035   9.684
 6988SOL    HW122738   9.695   7.101   9.660
 6988SOL    HW222739   9.592   7.068   9.765
 6989SOL     OW22740  12.890   2.782   3.475
 6989SOL    HW122741  12.934   2.760   3.557
 6989SOL    HW222742  12.810   2.828   3.501
 6990SOL     OW22743   5.339   3.340   5.681
 6990SOL    HW122744   5.289   3.405   5.729
 6990SOL    HW222745   5.422   3.384   5.660
 6991SOL     OW22746  10.013   8.637  11.988
 6991SOL    HW122747  10.025   8.596  11.902
 6991SOL    HW222748  10.091   8.613  12.038
 6992SOL     OW22749  11.300   9.996  13.829
 6992SOL    HW122750  11.268  10.050  13.901
 6992SOL    HW222751  11.256   9.912  13.842
 6993SOL     OW22752  12.506  12.797   8.612
 6993SOL    HW122753  12.550  12.811   8.528
 6993SOL    HW222754  12.496  12.885   8.648
 6994SOL     OW22755   5.303   2.646   6.703
 6994SOL    HW122756   5.315   2.704   6.778
 6994SOL    HW222757   5.249   2.574   6.738
 6995SOL     OW22758   7.004   3.125   7.670
 6995SOL    HW122759   6.954   3.133   7.751
 6995SOL    HW222760   7.087   3.086   7.697
 6996SOL     OW22761  10.373   7.752   4.084
 6996SOL    HW122762  10.360   7.819   4.151
 6996SOL    HW222763  10.400   7.802   4.006
 6997SOL     OW22764   6.462  13.602  13.623
 6997SOL    HW122765   6.388  13.581  13.680
 6997SOL    HW222766   6.468  13.528  13.563
 6998SOL     OW22767   9.968   8.128  13.325
 6998SOL    HW122768   9.927   8.212  13.305
 6998SOL    HW222769  10.042   8.150  13.381
 6999SOL     OW22770   0.663  12.578   5.173
 6999SOL    HW122771   0.721  12.505   5.153
 6999SOL    HW222772   0.598  12.540   5.233
 7000SOL     OW22773   6.478  13.494   9.027
 7000SOL    HW122774   6.475  13.444   8.945
 7000SOL    HW222775   6.437  13.578   9.006
 7001SOL     OW22776   1.877   4.542  14.655
 7001SOL    HW122777   1.842   4.465  14.699
 7001SOL    HW222778   1.807   4.607  14.662
 7002SOL     OW22779   6.493   9.968   4.146
 7002SOL    HW122780   6.409   9.966   4.100
 7002SOL    HW222781   6.542   9.895   4.109
 7003SOL     OW22782   3.343   8.244   4.521
 7003SOL    HW122783   3.379   8.196   4.596
 7003SOL    HW222784   3.250   8.222   4.521
 7004SOL     OW22785  10.203   5.982  10.079
 7004SOL    HW122786  10.155   5.915  10.128
 7004SOL    HW222787  10.142   6.008  10.009
 7005SOL     OW22788   7.747   4.646   5.030
 7005SOL    HW122789   7.813   4.715   5.038
 7005SOL    HW222790   7.689   4.659   5.105
 7006SOL     OW22791   8.144   0.680   9.966
 7006SOL    HW122792   8.174   0.643   9.883
 7006SOL    HW222793   8.179   0.621  10.033
 7007SOL     OW22794   3.060   5.109   3.042
 7007SOL    HW122795   3.055   5.015   3.023
 7007SOL    HW222796   3.051   5.114   3.137
 7008SOL     OW22797  12.999   0.936  13.899
 7008SOL    HW122798  12.948   0.861  13.926
 7008SOL    HW222799  12.935   0.998  13.864
 7009SOL     OW22800   4.043   4.885   6.459
 7009SOL    HW122801   4.102   4.838   6.401
 7009SOL    HW222802   3.970   4.826   6.472
 7010SOL     OW22803   9.975   7.355   1.743
 7010SOL    HW122804   9.997   7.369   1.835
 7010SOL    HW222805  10.022   7.274   1.719
 7011SOL     OW22806  12.558   8.955   4.015
 7011SOL    HW122807  12.486   8.892   4.009
 7011SOL    HW222808  12.565   8.974   4.109
 7012SOL     OW22809   3.649  12.680   0.531
 7012SOL    HW122810   3.633  12.729   0.611
 7012SOL    HW222811   3.566  12.636   0.512
 7013SOL     OW22812   9.890   4.551  10.631
 7013SOL    HW122813   9.966   4.516  10.678
 7013SOL    HW222814   9.916   4.640  10.608
 7014SOL     OW22815  11.608   9.959   1.665
 7014SOL    HW122816  11.701   9.954   1.639
 7014SOL    HW222817  11.573   9.873   1.642
 7015SOL     OW22818  10.163   6.419  14.150
 7015SOL    HW122819  10.201   6.342  14.192
 7015SOL    HW222820  10.120   6.467  14.221
 7016SOL     OW22821   1.814  10.781   9.460
 7016SOL    HW122822   1.734  10.830   9.478
 7016SOL    HW222823   1.877  10.813   9.525
 7017SOL     OW22824  12.525   4.838   3.289
 7017SOL    HW122825  12.468   4.801   3.222
 7017SOL    HW222826  12.471   4.842   3.367
 7018SOL     OW22827  11.603   2.634  10.733
 7018SOL    HW122828  11.596   2.556  10.678
 7018SOL    HW222829  11.531   2.690  10.705
 7019SOL     OW22830  11.889   5.210   8.027
 7019SOL    HW122831  11.875   5.123   7.991
 7019SOL    HW222832  11.803   5.238   8.059
 7020SOL     OW22833  14.023  10.197  12.771
 7020SOL    HW122834  14.044  10.138  12.699
 7020SOL    HW222835  14.096  10.259  12.774
 7021SOL     OW22836   9.183   9.864   6.442
 7021SOL    HW122837   9.221   9.778   6.461
 7021SOL    HW222838   9.197   9.877   6.348
 7022SOL     OW22839  14.013  12.870  10.918
 7022SOL    HW122840  14.023  12.923  10.997
 7022SOL    HW222841  13.945  12.807  10.941
 7023SOL     OW22842   7.173   3.599   4.545
 7023SOL    HW122843   7.165   3.622   4.452
 7023SOL    HW222844   7.204   3.508   4.545
 7024SOL     OW22845  12.715   1.505  10.922
 7024SOL    HW122846  12.671   1.562  10.861
 7024SOL    HW222847  12.676   1.419  10.907
 7025SOL     OW22848  11.725   8.448  12.447
 7025SOL    HW122849  11.785   8.377  12.425
 7025SOL    HW222850  11.640   8.405  12.461
 7026SOL     OW22851  14.129   9.964   6.893
 7026SOL    HW122852  14.224   9.967   6.909
 7026SOL    HW222853  14.096  10.046   6.929
 7027SOL     OW22854  11.837   8.104  10.509
 7027SOL    HW122855  11.910   8.050  10.479
 7027SOL    HW222856  11.761   8.072  10.460
 7028SOL     OW22857   6.789  13.106   7.624
 7028SOL    HW122858   6.787  13.202   7.619
 7028SOL    HW222859   6.878  13.082   7.599
 7029SOL     OW22860  10.794   3.035   0.981
 7029SOL    HW122861  10.818   2.961   0.925
 7029SOL    HW222862  10.845   3.022   1.061
 7030SOL     OW22863   6.006   4.089   8.876
 7030SOL    HW122864   5.959   4.055   8.800
 7030SOL    HW222865   5.975   4.179   8.885
 7031SOL     OW22866   9.537   9.201   3.090
 7031SOL    HW122867   9.490   9.213   3.008
 7031SOL    HW222868   9.480   9.144   3.142
 7032SOL     OW22869  12.454  10.799   4.223
 7032SOL    HW122870  12.403  10.839   4.153
 7032SOL    HW222871  12.508  10.871   4.257
 7033SOL     OW22872  14.329   5.606   7.500
 7033SOL    HW122873  14.271   5.658   7.556
 7033SOL    HW222874  14.344   5.526   7.550
 7034SOL     OW22875   6.235   8.606  11.468
 7034SOL    HW122876   6.149   8.586  11.432
 7034SOL    HW222877   6.238   8.701  11.472
 7035SOL     OW22878   1.391   4.954   7.925
 7035SOL    HW122879   1.307   4.996   7.909
 7035SOL    HW222880   1.391   4.934   8.018
 7036SOL     OW22881  14.551  12.163   1.632
 7036SOL    HW122882  14.509  12.200   1.709
 7036SOL    HW222883  14.552  12.234   1.569
 7037SOL     OW22884  12.384   6.572   0.116
 7037SOL    HW122885  12.293   6.566   0.143
 7037SOL    HW222886  12.423   6.637   0.175
 7038SOL     OW22887  12.192   4.883   3.755
 7038SOL    HW122888  12.148   4.797   3.753
 7038SOL    HW222889  12.138   4.936   3.814
 7039SOL     OW22890   8.619  14.195   3.285
 7039SOL    HW122891   8.702  14.225   3.323
 7039SOL    HW222892   8.612  14.241   3.202
 7040SOL     OW22893   4.941   4.752   7.479
 7040SOL    HW122894   4.950   4.775   7.571
 7040SOL    HW222895   4.998   4.814   7.433
 7041SOL     OW22896   6.914   2.531   4.618
 7041SOL    HW122897   6.971   2.606   4.604
 7041SOL    HW222898   6.859   2.555   4.692
 7042SOL     OW22899   4.387   8.810   9.875
 7042SOL    HW122900   4.307   8.766   9.844
 7042SOL    HW222901   4.387   8.795   9.969
 7043SOL     OW22902  11.657   4.093  13.572
 7043SOL    HW122903  11.590   4.145  13.528
 7043SOL    HW222904  11.641   4.003  13.544
 7044SOL     OW22905   4.973   2.872   4.269
 7044SOL    HW122906   4.994   2.785   4.305
 7044SOL    HW222907   5.058   2.909   4.246
 7045SOL     OW22908  11.741   0.408  10.833
 7045SOL    HW122909  11.669   0.463  10.803
 7045SOL    HW222910  11.820   0.455  10.806
 7046SOL     OW22911  12.721   8.940  11.671
 7046SOL    HW122912  12.656   8.990  11.721
 7046SOL    HW222913  12.723   8.982  11.585
 7047SOL     OW22914   0.065   9.026   2.955
 7047SOL    HW122915   0.029   9.048   2.869
 7047SOL    HW222916   0.137   9.088   2.967
 7048SOL     OW22917   5.058   0.563   3.774
 7048SOL    HW122918   4.966   0.536   3.785
 7048SOL    HW222919   5.105   0.481   3.758
 7049SOL     OW22920  14.685   9.445   8.191
 7049SOL    HW122921  14.660   9.534   8.167
 7049SOL    HW222922  14.663   9.438   8.284
 7050SOL     OW22923   9.455  14.539   7.420
 7050SOL    HW122924   9.382  14.501   7.372
 7050SOL    HW222925   9.495  14.466   7.467
 7051SOL     OW22926  12.975   6.304   8.712
 7051SOL    HW122927  12.896   6.358   8.712
 7051SOL    HW222928  13.045   6.362   8.741
 7052SOL     OW22929  14.000  14.661   7.468
 7052SOL    HW122930  13.918  14.630   7.507
 7052SOL    HW222931  13.975  14.699   7.384
 7053SOL     OW22932   9.884   5.559   5.908
 7053SOL    HW122933   9.851   5.645   5.932
 7053SOL    HW222934   9.836   5.498   5.964
 7054SOL     OW22935  10.316  12.307  10.911
 7054SOL    HW122936  10.225  12.317  10.881
 7054SOL    HW222937  10.367  12.303  10.830
 7055SOL     OW22938   9.500  14.749   4.366
 7055SOL    HW122939   9.580  14.731   4.317
 7055SOL    HW222940   9.469  14.664   4.395
 7056SOL     OW22941   4.803   1.186   7.328
 7056SOL    HW122942   4.812   1.169   7.422
 7056SOL    HW222943   4.807   1.099   7.288
 7057SOL     OW22944   5.879   3.143   7.098
 7057SOL    HW122945   5.939   3.173   7.167
 7057SOL    HW222946   5.919   3.174   7.017
 7058SOL     OW22947   9.108   1.469   8.475
 7058SOL    HW122948   9.061   1.539   8.521
 7058SOL    HW222949   9.131   1.507   8.390
 7059SOL     OW22950   6.307  10.029  12.742
 7059SOL    HW122951   6.400  10.008  12.746
 7059SOL    HW222952   6.293  10.059  12.652
 7060SOL     OW22953   2.241  13.216   8.186
 7060SOL    HW122954   2.228  13.154   8.114
 7060SOL    HW222955   2.154  13.251   8.204
 7061SOL     OW22956  10.851  10.596   1.557
 7061SOL    HW122957  10.781  10.530   1.554
 7061SOL    HW222958  10.899  10.583   1.475
 7062SOL     OW22959   0.854   2.778   9.849
 7062SOL    HW122960   0.784   2.754   9.788
 7062SOL    HW222961   0.814   2.843   9.907
 7063SOL     OW22962  14.180   2.841   9.415
 7063SOL    HW122963  14.188   2.899   9.491
 7063SOL    HW222964  14.095   2.862   9.377
 7064SOL     OW22965   0.951  14.250   7.704
 7064SOL    HW122966   0.978  14.274   7.615
 7064SOL    HW222967   0.880  14.311   7.725
 7065SOL     OW22968   7.177  11.635  13.054
 7065SOL    HW122969   7.180  11.610  13.146
 7065SOL    HW222970   7.246  11.584  13.012
 7066SOL     OW22971   5.772   4.996   5.846
 7066SOL    HW122972   5.767   5.088   5.820
 7066SOL    HW222973   5.748   4.947   5.767
 7067SOL     OW22974  11.579   5.496   6.186
 7067SOL    HW122975  11.519   5.479   6.259
 7067SOL    HW222976  11.664   5.463   6.217
 7068SOL     OW22977   9.512  14.444   5.159
 7068SOL    HW122978   9.607  14.442   5.163
 7068SOL    HW222979   9.492  14.440   5.065
 7069SOL     OW22980  14.625  13.933   8.711
 7069SOL    HW122981  14.718  13.925   8.730
 7069SOL    HW222982  14.615  14.019   8.670
 7070SOL     OW22983  11.552   3.016   9.995
 7070SOL    HW122984  11.562   3.064  10.078
 7070SOL    HW222985  11.606   2.938  10.007
 7071SOL     OW22986   0.606   2.274  10.565
 7071SOL    HW122987   0.518   2.238  10.556
 7071SOL    HW222988   0.598   2.363  10.531
 7072SOL     OW22989  12.390  13.636   0.838
 7072SOL    HW122990  12.298  13.648   0.858
 7072SOL    HW222991  12.436  13.681   0.910
 7073SOL     OW22992   2.739   2.674   1.883
 7073SOL    HW122993   2.748   2.766   1.859
 7073SOL    HW222994   2.830   2.642   1.887
 7074SOL     OW22995   5.398   4.607  14.543
 7074SOL    HW122996   5.317   4.574  14.505
 7074SOL    HW222997   5.428   4.673  14.480
 7075SOL     OW22998   2.106   4.468   3.895
 7075SOL    HW122999   2.177   4.415   3.859
 7075SOL    HW223000   2.089   4.430   3.981
 7076SOL     OW23001  10.517   5.453  10.188
 7076SOL    HW123002  10.423   5.473  10.195
 7076SOL    HW223003  10.549   5.511  10.119
 7077SOL     OW23004   0.367   6.306   8.268
 7077SOL    HW123005   0.321   6.271   8.345
 7077SOL    HW223006   0.345   6.245   8.197
 7078SOL     OW23007  12.860   9.028   8.142
 7078SOL    HW123008  12.907   9.102   8.103
 7078SOL    HW223009  12.850   8.965   8.070
 7079SOL     OW23010   8.888   1.676  12.484
 7079SOL    HW123011   8.813   1.619  12.468
 7079SOL    HW223012   8.877   1.706  12.574
 7080SOL     OW23013   1.278  11.699   8.649
 7080SOL    HW123014   1.306  11.791   8.649
 7080SOL    HW223015   1.190  11.700   8.687
 7081SOL     OW23016  10.256  12.775   1.942
 7081SOL    HW123017  10.259  12.870   1.935
 7081SOL    HW223018  10.340  12.750   1.978
 7082SOL     OW23019  11.461   5.101   5.015
 7082SOL    HW123020  11.454   5.180   4.963
 7082SOL    HW223021  11.516   5.125   5.089
 7083SOL     OW23022   0.892   5.943   6.878
 7083SOL    HW123023   0.838   5.865   6.891
 7083SOL    HW223024   0.980   5.917   6.906
 7084SOL     OW23025   4.170  10.116   5.748
 7084SOL    HW123026   4.189  10.207   5.769
 7084SOL    HW223027   4.231  10.094   5.678
 7085SOL     OW23028   4.519   3.852   5.147
 7085SOL    HW123029   4.435   3.883   5.113
 7085SOL    HW223030   4.560   3.807   5.073
 7086SOL     OW23031  14.835   5.339   0.540
 7086SOL    HW123032  14.846   5.372   0.451
 7086SOL    HW223033  14.797   5.252   0.529
 7087SOL     OW23034  13.373   6.007  14.480
 7087SOL    HW123035  13.425   6.048  14.549
 7087SOL    HW223036  13.317   6.077  14.447
 7088SOL     OW23037   7.598  13.009   1.314
 7088SOL    HW123038   7.545  13.088   1.303
 7088SOL    HW223039   7.584  12.958   1.234
 7089SOL     OW23040   3.952   0.334   5.887
 7089SOL    HW123041   3.870   0.339   5.935
 7089SOL    HW223042   3.989   0.249   5.912
 7090SOL     OW23043   3.827   8.771   0.971
 7090SOL    HW123044   3.769   8.842   0.942
 7090SOL    HW223045   3.913   8.812   0.980
 7091SOL     OW23046   0.089   5.050   1.231
 7091SOL    HW123047   0.078   5.093   1.146
 7091SOL    HW223048   0.000   5.040   1.264
 7092SOL     OW23049   3.199   7.810   8.213
 7092SOL    HW123050   3.233   7.810   8.302
 7092SOL    HW223051   3.175   7.719   8.196
 7093SOL     OW23052  14.338   2.126   2.649
 7093SOL    HW123053  14.243   2.111   2.652
 7093SOL    HW223054  14.348   2.201   2.590
 7094SOL     OW23055  13.180   2.859  14.520
 7094SOL    HW123056  13.105   2.802  14.538
 7094SOL    HW223057  13.250   2.825  14.576
 7095SOL     OW23058  12.723   1.279  12.391
 7095SOL    HW123059  12.692   1.242  12.308
 7095SOL    HW223060  12.747   1.369  12.369
 7096SOL     OW23061   7.283   2.394   1.443
 7096SOL    HW123062   7.239   2.441   1.514
 7096SOL    HW223063   7.213   2.356   1.391
 7097SOL     OW23064  11.609   8.921  14.169
 7097SOL    HW123065  11.615   8.859  14.241
 7097SOL    HW223066  11.699   8.954  14.159
 7098SOL     OW23067   5.473  11.895   2.833
 7098SOL    HW123068   5.421  11.819   2.857
 7098SOL    HW223069   5.557  11.859   2.804
 7099SOL     OW23070   8.023  12.195  13.276
 7099SOL    HW123071   8.001  12.284  13.248
 7099SOL    HW223072   8.079  12.161  13.207
 7100SOL     OW23073  14.096  12.506   3.537
 7100SOL    HW123074  14.101  12.470   3.626
 7100SOL    HW223075  14.158  12.579   3.537
 7101SOL     OW23076  12.906   9.472  14.584
 7101SOL    HW123077  12.873   9.464  14.494
 7101SOL    HW223078  12.839   9.522  14.630
 7102SOL     OW23079  13.497  14.691  10.057
 7102SOL    HW123080  13.501  14.648  10.142
 7102SOL    HW223081  13.499  14.784  10.077
 7103SOL     OW23082   1.830  11.114   3.054
 7103SOL    HW123083   1.806  11.130   3.145
 7103SOL    HW223084   1.787  11.184   3.005
 7104SOL     OW23085  13.841   2.692   0.637
 7104SOL    HW123086  13.793   2.775   0.636
 7104SOL    HW223087  13.933   2.718   0.638
 7105SOL     OW23088   9.793  12.495  14.378
 7105SOL    HW123089   9.858  12.450  14.324
 7105SOL    HW223090   9.741  12.546  14.316
 7106SOL     OW23091  14.649  12.398   8.136
 7106SOL    HW123092  14.671  12.368   8.224
 7106SOL    HW223093  14.561  12.364   8.120
 7107SOL     OW23094   1.222   3.579   6.966
 7107SOL    HW123095   1.245   3.545   6.879
 7107SOL    HW223096   1.288   3.645   6.985
 7108SOL     OW23097   9.098   5.967   8.016
 7108SOL    HW123098   9.036   6.039   8.016
 7108SOL    HW223099   9.065   5.907   7.949
 7109SOL     OW23100   6.636  10.496   5.578
 7109SOL    HW123101   6.713  10.545   5.605
 7109SOL    HW223102   6.665  10.446   5.501
 7110SOL     OW23103  12.974   1.943  10.014
 7110SOL    HW123104  12.965   1.928  10.109
 7110SOL    HW223105  13.034   2.017  10.007
 7111SOL     OW23106  11.560   6.458   7.389
 7111SOL    HW123107  11.645   6.472   7.432
 7111SOL    HW223108  11.496   6.462   7.460
 7112SOL     OW23109   7.042   3.607   0.056
 7112SOL    HW123110   7.080   3.575  14.852
 7112SOL    HW223111   7.058   3.537   0.119
 7113SOL     OW23112   8.287   3.112   5.859
 7113SOL    HW123113   8.265   3.153   5.775
 7113SOL    HW223114   8.206   3.116   5.910
 7114SOL     OW23115  13.258   2.582   7.645
 7114SOL    HW123116  13.289   2.501   7.687
 7114SOL    HW223117  13.299   2.582   7.559
 7115SOL     OW23118   8.213   0.988   2.315
 7115SOL    HW123119   8.181   0.916   2.369
 7115SOL    HW223120   8.136   1.041   2.298
 7116SOL     OW23121   2.400   5.196   8.136
 7116SOL    HW123122   2.390   5.117   8.082
 7116SOL    HW223123   2.327   5.252   8.111
 7117SOL     OW23124   5.650   7.738  11.933
 7117SOL    HW123125   5.726   7.775  11.886
 7117SOL    HW223126   5.578   7.798  11.913
 7118SOL     OW23127  14.388  10.639   4.208
 7118SOL    HW123128  14.327  10.616   4.278
 7118SOL    HW223129  14.341  10.617   4.127
 7119SOL     OW23130   3.808   7.682   5.795
 7119SOL    HW123131   3.886   7.669   5.850
 7119SOL    HW223132   3.734   7.664   5.853
 7120SOL     OW23133  12.246   6.912   2.427
 7120SOL    HW123134  12.277   6.926   2.516
 7120SOL    HW223135  12.183   6.840   2.434
 7121SOL     OW23136  12.123   2.661   5.096
 7121SOL    HW123137  12.205   2.703   5.069
 7121SOL    HW223138  12.125   2.666   5.192
 7122SOL     OW23139  12.348  13.232  12.829
 7122SOL    HW123140  12.272  13.188  12.866
 7122SOL    HW223141  12.391  13.273  12.904
 7123SOL     OW23142   7.299   4.492   1.189
 7123SOL    HW123143   7.256   4.419   1.232
 7123SOL    HW223144   7.360   4.452   1.127
 7124SOL     OW23145  10.548  10.290  11.522
 7124SOL    HW123146  10.595  10.275  11.440
 7124SOL    HW223147  10.522  10.202  11.551
 7125SOL     OW23148   6.188  14.116   5.968
 7125SOL    HW123149   6.119  14.062   6.006
 7125SOL    HW223150   6.226  14.162   6.043
 7126SOL     OW23151  11.980  11.854   8.579
 7126SOL    HW123152  11.925  11.919   8.623
 7126SOL    HW223153  12.066  11.895   8.575
 7127SOL     OW23154   0.831   7.265  10.350
 7127SOL    HW123155   0.774   7.338  10.324
 7127SOL    HW223156   0.920   7.299  10.338
 7128SOL     OW23157   9.064   3.825   1.576
 7128SOL    HW123158   9.001   3.806   1.506
 7128SOL    HW223159   9.145   3.845   1.531
 7129SOL     OW23160   9.922   7.962  10.384
 7129SOL    HW123161   9.921   7.977  10.290
 7129SOL    HW223162   9.830   7.968  10.411
 7130SOL     OW23163  14.342   1.052   7.548
 7130SOL    HW123164  14.327   0.959   7.567
 7130SOL    HW223165  14.373   1.052   7.457
 7131SOL     OW23166   7.285   0.318   3.184
 7131SOL    HW123167   7.347   0.383   3.217
 7131SOL    HW223168   7.279   0.252   3.254
 7132SOL     OW23169   6.413  11.085   7.553
 7132SOL    HW123170   6.476  11.142   7.598
 7132SOL    HW223171   6.333  11.092   7.605
 7133SOL     OW23172   3.024  12.330   6.203
 7133SOL    HW123173   2.997  12.397   6.266
 7133SOL    HW223174   3.049  12.379   6.125
 7134SOL     OW23175   6.621   2.218  10.231
 7134SOL    HW123176   6.646   2.216  10.139
 7134SOL    HW223177   6.684   2.160  10.275
 7135SOL     OW23178   6.183   6.412  13.943
 7135SOL    HW123179   6.162   6.433  14.034
 7135SOL    HW223180   6.164   6.319  13.934
 7136SOL     OW23181  13.588   6.666  13.471
 7136SOL    HW123182  13.506   6.616  13.467
 7136SOL    HW223183  13.630   6.635  13.552
 7137SOL     OW23184  10.704   5.143   8.429
 7137SOL    HW123185  10.747   5.211   8.377
 7137SOL    HW223186  10.698   5.068   8.370
 7138SOL     OW23187   8.402   5.044  10.498
 7138SOL    HW123188   8.316   5.004  10.510
 7138SOL    HW223189   8.453   5.016  10.574
 7139SOL     OW23190  13.798   6.854  13.855
 7139SOL    HW123191  13.810   6.863  13.760
 7139SOL    HW223192  13.875   6.897  13.893
 7140SOL     OW23193   6.405  10.077   7.502
 7140SOL    HW123194   6.482  10.110   7.455
 7140SOL    HW223195   6.441  10.023   7.572
 7141SOL     OW23196  10.672   5.321  11.827
 7141SOL    HW123197  10.704   5.328  11.737
 7141SOL    HW223198  10.686   5.230  11.851
 7142SOL     OW23199   1.072   0.899   4.579
 7142SOL    HW123200   1.052   0.838   4.507
 7142SOL    HW223201   1.165   0.884   4.597
 7143SOL     OW23202   8.702   7.782   5.326
 7143SOL    HW123203   8.696   7.731   5.407
 7143SOL    HW223204   8.748   7.725   5.265
 7144SOL     OW23205  11.830  12.394   5.847
 7144SOL    HW123206  11.881  12.431   5.920
 7144SOL    HW223207  11.810  12.305   5.875
 7145SOL     OW23208   6.674   9.821   7.200
 7145SOL    HW123209   6.590   9.832   7.245
 7145SOL    HW223210   6.720   9.755   7.252
 7146SOL     OW23211   8.130  14.449   3.591
 7146SOL    HW123212   8.161  14.522   3.644
 7146SOL    HW223213   8.158  14.470   3.502
 7147SOL     OW23214   9.526   3.607  14.322
 7147SOL    HW123215   9.446   3.617  14.270
 7147SOL    HW223216   9.498   3.560  14.401
 7148SOL     OW23217   2.986  11.149   2.523
 7148SOL    HW123218   3.068  11.170   2.478
 7148SOL    HW223219   2.975  11.055   2.510
 7149SOL     OW23220   5.909   5.646   6.928
 7149SOL    HW123221   5.994   5.601   6.937
 7149SOL    HW223222   5.932   5.737   6.911
 7150SOL     OW23223  12.559  13.315  14.594
 7150SOL    HW123224  12.587  13.329  14.684
 7150SOL    HW223225  12.491  13.248  14.600
 7151SOL     OW23226   5.721   5.212  13.516
 7151SOL    HW123227   5.734   5.265  13.437
 7151SOL    HW223228   5.681   5.272  13.579
 7152SOL     OW23229  10.335  10.419   8.746
 7152SOL    HW123230  10.292  10.501   8.721
 7152SOL    HW223231  10.421  10.446   8.779
 7153SOL     OW23232   7.577   6.697   6.985
 7153SOL    HW123233   7.488   6.729   6.988
 7153SOL    HW223234   7.623   6.756   6.925
 7154SOL     OW23235   7.849   7.589   1.340
 7154SOL    HW123236   7.825   7.501   1.313
 7154SOL    HW223237   7.838   7.642   1.261
 7155SOL     OW23238  14.579   8.861   5.928
 7155SOL    HW123239  14.595   8.868   5.834
 7155SOL    HW223240  14.573   8.952   5.958
 7156SOL     OW23241   8.644   3.460   5.196
 7156SOL    HW123242   8.656   3.366   5.206
 7156SOL    HW223243   8.684   3.497   5.274
 7157SOL     OW23244   3.003   1.483   7.697
 7157SOL    HW123245   3.080   1.470   7.642
 7157SOL    HW223246   3.021   1.431   7.776
 7158SOL     OW23247  10.573  10.218   3.877
 7158SOL    HW123248  10.582  10.243   3.785
 7158SOL    HW223249  10.485  10.182   3.883
 7159SOL     OW23250  12.899   3.765   8.048
 7159SOL    HW123251  12.890   3.788   7.956
 7159SOL    HW223252  12.812   3.733   8.073
 7160SOL     OW23253  13.455   2.737   9.081
 7160SOL    HW123254  13.422   2.808   9.026
 7160SOL    HW223255  13.376   2.698   9.119
 7161SOL     OW23256   9.052   0.303   4.589
 7161SOL    HW123257   9.034   0.369   4.522
 7161SOL    HW223258   9.060   0.221   4.539
 7162SOL     OW23259  13.575   1.674  12.935
 7162SOL    HW123260  13.482   1.653  12.943
 7162SOL    HW223261  13.611   1.603  12.882
 7163SOL     OW23262   0.712   3.710   9.051
 7163SOL    HW123263   0.696   3.776   8.984
 7163SOL    HW223264   0.797   3.734   9.089
 7164SOL     OW23265  13.335   1.577   0.384
 7164SOL    HW123266  13.310   1.484   0.382
 7164SOL    HW223267  13.336   1.600   0.477
 7165SOL     OW23268   6.242   8.512   4.738
 7165SOL    HW123269   6.183   8.531   4.665
 7165SOL    HW223270   6.212   8.427   4.771
 7166SOL     OW23271   4.038   5.693   4.026
 7166SOL    HW123272   4.010   5.743   4.102
 7166SOL    HW223273   4.118   5.736   3.996
 7167SOL     OW23274  12.560  10.518   9.463
 7167SOL    HW123275  12.624  10.470   9.515
 7167SOL    HW223276  12.541  10.461   9.389
 7168SOL     OW23277   4.277  13.494   8.049
 7168SOL    HW123278   4.304  13.405   8.071
 7168SOL    HW223279   4.354  13.533   8.007
 7169SOL     OW23280   2.098  10.340   2.300
 7169SOL    HW123281   2.021  10.345   2.243
 7169SOL    HW223282   2.132  10.429   2.301
 7170SOL     OW23283   3.512   0.004   6.188
 7170SOL    HW123284   3.467   0.074   6.235
 7170SOL    HW223285   3.600   0.039   6.173
 7171SOL     OW23286   1.154  12.805   0.022
 7171SOL    HW123287   1.090  12.734   0.024
 7171SOL    HW223288   1.233  12.767   0.061
 7172SOL     OW23289   8.609   3.360   5.971
 7172SOL    HW123290   8.642   3.429   5.914
 7172SOL    HW223291   8.677   3.293   5.970
 7173SOL     OW23292   9.674   2.169   7.455
 7173SOL    HW123293   9.766   2.147   7.445
 7173SOL    HW223294   9.629   2.114   7.391
 7174SOL     OW23295   8.078  12.554  14.782
 7174SOL    HW123296   8.027  12.537  14.861
 7174SOL    HW223297   8.102  12.467  14.749
 7175SOL     OW23298   2.233   4.974  10.067
 7175SOL    HW123299   2.159   4.996  10.123
 7175SOL    HW223300   2.255   4.884  10.089
 7176SOL     OW23301  13.397  13.014  13.929
 7176SOL    HW123302  13.334  12.944  13.945
 7176SOL    HW223303  13.482  12.975  13.952
 7177SOL     OW23304   3.631  11.154   7.661
 7177SOL    HW123305   3.571  11.227   7.677
 7177SOL    HW223306   3.718  11.193   7.667
 7178SOL     OW23307   2.745   7.006  10.642
 7178SOL    HW123308   2.717   7.083  10.593
 7178SOL    HW223309   2.673   6.943  10.633
 7179SOL     OW23310  10.743   5.385   9.395
 7179SOL    HW123311  10.798   5.462   9.387
 7179SOL    HW223312  10.659   5.410   9.356
 7180SOL     OW23313  12.549  13.395   3.826
 7180SOL    HW123314  12.590  13.432   3.748
 7180SOL    HW223315  12.504  13.469   3.867
 7181SOL     OW23316  13.156   1.265   2.006
 7181SOL    HW123317  13.156   1.311   1.922
 7181SOL    HW223318  13.165   1.172   1.983
 7182SOL     OW23319  12.937   1.726   7.105
 7182SOL    HW123320  12.932   1.817   7.074
 7182SOL    HW223321  12.845   1.698   7.109
 7183SOL     OW23322  10.565  13.481   7.817
 7183SOL    HW123323  10.660  13.488   7.809
 7183SOL    HW223324  10.543  13.535   7.893
 7184SOL     OW23325  10.283  12.929  14.332
 7184SOL    HW123326  10.336  12.878  14.393
 7184SOL    HW223327  10.207  12.873  14.314
 7185SOL     OW23328  13.652  14.190  12.139
 7185SOL    HW123329  13.665  14.260  12.076
 7185SOL    HW223330  13.627  14.114  12.086
 7186SOL     OW23331  11.248   2.880   0.009
 7186SOL    HW123332  11.283   2.930   0.083
 7186SOL    HW223333  11.173   2.833   0.045
 7187SOL     OW23334   0.029   8.249   0.533
 7187SOL    HW123335   0.122   8.271   0.545
 7187SOL    HW223336  14.870   8.327   0.491
 7188SOL     OW23337  10.469   6.172   5.518
 7188SOL    HW123338  10.494   6.228   5.592
 7188SOL    HW223339  10.454   6.086   5.556
 7189SOL     OW23340  10.852  10.839  14.798
 7189SOL    HW123341  10.804  10.897  14.739
 7189SOL    HW223342  10.822  10.751  14.777
 7190SOL     OW23343   0.553   5.198   2.290
 7190SOL    HW123344   0.496   5.160   2.224
 7190SOL    HW223345   0.642   5.181   2.259
 7191SOL     OW23346   7.603  12.481   5.576
 7191SOL    HW123347   7.576  12.439   5.494
 7191SOL    HW223348   7.675  12.427   5.608
 7192SOL     OW23349  12.875   4.150   3.830
 7192SOL    HW123350  12.944   4.204   3.869
 7192SOL    HW223351  12.911   4.122   3.745
 7193SOL     OW23352   6.999  13.468  10.541
 7193SOL    HW123353   7.036  13.556  10.547
 7193SOL    HW223354   7.067  13.416  10.498
 7194SOL     OW23355   8.263  10.860  12.478
 7194SOL    HW123356   8.347  10.816  12.466
 7194SOL    HW223357   8.200  10.807  12.430
 7195SOL     OW23358   7.984   5.510   8.794
 7195SOL    HW123359   8.027   5.464   8.866
 7195SOL    HW223360   7.907   5.550   8.835
 7196SOL     OW23361   8.607   3.748   3.736
 7196SOL    HW123362   8.560   3.695   3.671
 7196SOL    HW223363   8.622   3.831   3.692
 7197SOL     OW23364   7.059  10.079  14.414
 7197SOL    HW123365   7.040  10.136  14.489
 7197SOL    HW223366   7.006  10.114  14.343
 7198SOL     OW23367   6.050  11.303   0.734
 7198SOL    HW123368   6.038  11.301   0.829
 7198SOL    HW223369   6.142  11.328   0.723
 7199SOL     OW23370   7.889  13.247   4.658
 7199SOL    HW123371   7.954  13.194   4.614
 7199SOL    HW223372   7.814  13.248   4.599
 7200SOL     OW23373  14.821   6.821   4.112
 7200SOL    HW123374  14.849   6.913   4.115
 7200SOL    HW223375  14.848   6.792   4.024
 7201SOL     OW23376   7.352  10.944   6.204
 7201SOL    HW123377   7.301  10.906   6.275
 7201SOL    HW223378   7.441  10.950   6.238
 7202SOL     OW23379   6.257   7.518   4.868
 7202SOL    HW123380   6.291   7.608   4.865
 7202SOL    HW223381   6.202   7.516   4.947
 7203SOL     OW23382  12.918   1.278  12.838
 7203SOL    HW123383  12.948   1.204  12.785
 7203SOL    HW223384  12.825   1.287  12.816
 7204SOL     OW23385   7.721   0.530   4.275
 7204SOL    HW123386   7.779   0.566   4.342
 7204SOL    HW223387   7.768   0.454   4.241
 7205SOL     OW23388  12.685   3.397   5.630
 7205SOL    HW123389  12.605   3.443   5.654
 7205SOL    HW223390  12.688   3.320   5.687
 7206SOL     OW23391  10.248  11.964  11.937
 7206SOL    HW123392  10.337  11.957  11.901
 7206SOL    HW223393  10.212  11.876  11.927
 7207SOL     OW23394   1.796  10.670  10.868
 7207SOL    HW123395   1.761  10.637  10.951
 7207SOL    HW223396   1.792  10.595  10.809
 7208SOL     OW23397   0.212   6.764  10.358
 7208SOL    HW123398   0.189   6.819  10.434
 7208SOL    HW223399   0.181   6.677  10.382
 7209SOL     OW23400  11.280  12.813   8.302
 7209SOL    HW123401  11.201  12.856   8.336
 7209SOL    HW223402  11.254  12.721   8.291
 7210SOL     OW23403   7.781  10.273  11.697
 7210SOL    HW123404   7.851  10.338  11.710
 7210SOL    HW223405   7.702  10.317  11.730
 7211SOL     OW23406   1.018   2.059   2.463
 7211SOL    HW123407   1.103   2.070   2.421
 7211SOL    HW223408   0.956   2.057   2.390
 7212SOL     OW23409  14.720   9.979   4.397
 7212SOL    HW123410  14.756  10.043   4.457
 7212SOL    HW223411  14.796   9.939   4.355
 7213SOL     OW23412  10.616   3.669  14.590
 7213SOL    HW123413  10.603   3.702  14.678
 7213SOL    HW223414  10.541   3.702  14.540
 7214SOL     OW23415   2.164  11.060   6.613
 7214SOL    HW123416   2.190  11.120   6.543
 7214SOL    HW223417   2.091  11.010   6.577
 7215SOL     OW23418   9.605   2.314  10.719
 7215SOL    HW123419   9.597   2.263  10.638
 7215SOL    HW223420   9.517   2.349  10.733
 7216SOL     OW23421   7.136   2.517   3.061
 7216SOL    HW123422   7.220   2.483   3.031
 7216SOL    HW223423   7.150   2.535   3.154
 7217SOL     OW23424   6.526   3.761   5.543
 7217SOL    HW123425   6.490   3.799   5.624
 7217SOL    HW223426   6.614   3.799   5.536
 7218SOL     OW23427  10.616  11.029   9.206
 7218SOL    HW123428  10.554  11.101   9.210
 7218SOL    HW223429  10.561  10.950   9.199
 7219SOL     OW23430   1.461   7.428  12.665
 7219SOL    HW123431   1.508   7.507  12.643
 7219SOL    HW223432   1.462   7.425  12.761
 7220SOL     OW23433   3.387   5.591  10.452
 7220SOL    HW123434   3.457   5.529  10.431
 7220SOL    HW223435   3.345   5.555  10.530
 7221SOL     OW23436   7.521   7.262   7.793
 7221SOL    HW123437   7.448   7.274   7.854
 7221SOL    HW223438   7.498   7.183   7.743
 7222SOL     OW23439   7.932   2.684   2.201
 7222SOL    HW123440   7.874   2.760   2.202
 7222SOL    HW223441   7.944   2.661   2.293
 7223SOL     OW23442  11.523   6.443   6.645
 7223SOL    HW123443  11.550   6.522   6.599
 7223SOL    HW223444  11.548   6.458   6.736
 7224SOL     OW23445  11.537   4.587   8.201
 7224SOL    HW123446  11.485   4.609   8.123
 7224SOL    HW223447  11.613   4.540   8.166
 7225SOL     OW23448   1.556   1.913   3.181
 7225SOL    HW123449   1.529   1.997   3.216
 7225SOL    HW223450   1.508   1.904   3.099
 7226SOL     OW23451   5.681   8.874   9.907
 7226SOL    HW123452   5.725   8.875   9.992
 7226SOL    HW223453   5.611   8.810   9.917
 7227SOL     OW23454  14.010  10.047   2.214
 7227SOL    HW123455  14.034   9.958   2.240
 7227SOL    HW223456  13.951  10.077   2.283
 7228SOL     OW23457  12.771  11.489  12.904
 7228SOL    HW123458  12.780  11.470  12.811
 7228SOL    HW223459  12.707  11.425  12.935
 7229SOL     OW23460   5.433   4.563  13.027
 7229SOL    HW123461   5.477   4.499  13.083
 7229SOL    HW223462   5.474   4.647  13.049
 7230SOL     OW23463  10.366  11.882   2.057
 7230SOL    HW123464  10.312  11.854   2.131
 7230SOL    HW223465  10.446  11.917   2.096
 7231SOL     OW23466   4.330   5.614   7.780
 7231SOL    HW123467   4.307   5.648   7.866
 7231SOL    HW223468   4.424   5.629   7.772
 7232SOL     OW23469   5.414   6.060   3.398
 7232SOL    HW123470   5.401   5.974   3.439
 7232SOL    HW223471   5.469   6.042   3.322
 7233SOL     OW23472   6.770  13.168   6.409
 7233SOL    HW123473   6.846  13.144   6.462
 7233SOL    HW223474   6.764  13.098   6.344
 7234SOL     OW23475   9.232   0.088  10.137
 7234SOL    HW123476   9.168   0.125  10.198
 7234SOL    HW223477   9.197   0.108  10.050
 7235SOL     OW23478   2.354   8.702   6.013
 7235SOL    HW123479   2.259   8.710   6.003
 7235SOL    HW223480   2.390   8.769   5.954
 7236SOL     OW23481   0.608   7.449   1.117
 7236SOL    HW123482   0.646   7.406   1.040
 7236SOL    HW223483   0.537   7.503   1.082
 7237SOL     OW23484  12.213   8.809   9.966
 7237SOL    HW123485  12.118   8.817   9.954
 7237SOL    HW223486  12.250   8.880   9.914
 7238SOL     OW23487  10.881  12.440  12.808
 7238SOL    HW123488  10.924  12.409  12.888
 7238SOL    HW223489  10.790  12.455  12.835
 7239SOL     OW23490  12.323   5.515   3.677
 7239SOL    HW123491  12.337   5.591   3.620
 7239SOL    HW223492  12.401   5.461   3.663
 7240SOL     OW23493   3.018   5.194   7.734
 7240SOL    HW123494   3.062   5.277   7.755
 7240SOL    HW223495   2.959   5.216   7.662
 7241SOL     OW23496  14.090  12.210   7.420
 7241SOL    HW123497  14.056  12.191   7.507
 7241SOL    HW223498  14.065  12.301   7.404
 7242SOL     OW23499   5.347   4.486   3.103
 7242SOL    HW123500   5.364   4.393   3.118
 7242SOL    HW223501   5.374   4.528   3.185
 7243SOL     OW23502  11.219  13.529   1.274
 7243SOL    HW123503  11.302  13.574   1.265
 7243SOL    HW223504  11.236  13.458   1.336
 7244SOL     OW23505  13.776   7.520   0.936
 7244SOL    HW123506  13.732   7.528   1.020
 7244SOL    HW223507  13.710   7.544   0.871
 7245SOL     OW23508   4.368  10.647   4.709
 7245SOL    HW123509   4.450  10.692   4.731
 7245SOL    HW223510   4.327  10.629   4.793
 7246SOL     OW23511   5.577  10.489   0.940
 7246SOL    HW123512   5.600  10.477   0.848
 7246SOL    HW223513   5.659  10.510   0.983
 7247SOL     OW23514   1.101   4.376   9.383
 7247SOL    HW123515   1.120   4.316   9.456
 7247SOL    HW223516   1.007   4.369   9.370
 7248SOL     OW23517   8.557  12.892   2.123
 7248SOL    HW123518   8.640  12.848   2.102
 7248SOL    HW223519   8.532  12.936   2.042
 7249SOL     OW23520  10.696   7.640   5.252
 7249SOL    HW123521  10.747   7.631   5.171
 7249SOL    HW223522  10.758   7.675   5.315
 7250SOL     OW23523   1.544  10.758   7.467
 7250SOL    HW123524   1.493  10.766   7.547
 7250SOL    HW223525   1.611  10.693   7.487
 7251SOL     OW23526   0.242   5.164  12.293
 7251SOL    HW123527   0.212   5.255  12.292
 7251SOL    HW223528   0.329   5.168  12.333
 7252SOL     OW23529   3.818  10.971  14.155
 7252SOL    HW123530   3.803  11.061  14.184
 7252SOL    HW223531   3.733  10.928  14.165
 7253SOL     OW23532   1.028   0.412  11.687
 7253SOL    HW123533   0.934   0.395  11.692
 7253SOL    HW223534   1.036   0.505  11.711
 7254SOL     OW23535  12.280  11.563   0.184
 7254SOL    HW123536  12.292  11.580   0.091
 7254SOL    HW223537  12.307  11.645   0.227
 7255SOL     OW23538   0.991   4.187   3.952
 7255SOL    HW123539   0.983   4.126   4.025
 7255SOL    HW223540   0.924   4.160   3.889
 7256SOL     OW23541   0.744   6.248   6.193
 7256SOL    HW123542   0.654   6.233   6.222
 7256SOL    HW223543   0.772   6.163   6.158
 7257SOL     OW23544   8.362   6.401  11.332
 7257SOL    HW123545   8.270   6.393  11.306
 7257SOL    HW223546   8.410   6.406  11.250
 7258SOL     OW23547   9.420  10.308  12.088
 7258SOL    HW123548   9.447  10.236  12.146
 7258SOL    HW223549   9.438  10.387  12.139
 7259SOL     OW23550   7.196  13.064  11.339
 7259SOL    HW123551   7.257  13.015  11.284
 7259SOL    HW223552   7.125  13.088  11.280
 7260SOL     OW23553   4.990   2.572   9.077
 7260SOL    HW123554   5.075   2.529   9.077
 7260SOL    HW223555   4.927   2.501   9.085
 7261SOL     OW23556  11.713   0.743   1.471
 7261SOL    HW123557  11.702   0.838   1.471
 7261SOL    HW223558  11.682   0.715   1.385
 7262SOL     OW23559  12.173   9.820   5.940
 7262SOL    HW123560  12.163   9.751   6.005
 7262SOL    HW223561  12.097   9.877   5.954
 7263SOL     OW23562  12.914   2.907   8.480
 7263SOL    HW123563  12.902   2.997   8.512
 7263SOL    HW223564  12.949   2.917   8.392
 7264SOL     OW23565  10.501  10.251  10.965
 7264SOL    HW123566  10.514  10.158  10.985
 7264SOL    HW223567  10.415  10.272  11.002
 7265SOL     OW23568   6.314  10.854   9.010
 7265SOL    HW123569   6.316  10.816   9.098
 7265SOL    HW223570   6.404  10.844   8.978
 7266SOL     OW23571   4.486  10.999   8.341
 7266SOL    HW123572   4.433  10.972   8.416
 7266SOL    HW223573   4.433  11.066   8.298
 7267SOL     OW23574   7.126  13.856   4.708
 7267SOL    HW123575   7.215  13.892   4.699
 7267SOL    HW223576   7.069  13.932   4.710
 7268SOL     OW23577   4.856   9.135  12.356
 7268SOL    HW123578   4.914   9.102  12.287
 7268SOL    HW223579   4.786   9.070  12.361
 7269SOL     OW23580   7.046   8.724  14.271
 7269SOL    HW123581   7.077   8.652  14.216
 7269SOL    HW223582   7.112   8.792  14.261
 7270SOL     OW23583  14.326   7.983  10.820
 7270SOL    HW123584  14.365   7.896  10.807
 7270SOL    HW223585  14.400   8.040  10.840
 7271SOL     OW23586  11.544   9.389   1.071
 7271SOL    HW123587  11.473   9.443   1.107
 7271SOL    HW223588  11.498   9.318   1.024
 7272SOL     OW23589   9.947   7.014  11.142
 7272SOL    HW123590   9.974   7.032  11.052
 7272SOL    HW223591   9.952   7.099  11.186
 7273SOL     OW23592  11.838  10.055   0.725
 7273SOL    HW123593  11.819   9.986   0.661
 7273SOL    HW223594  11.919  10.028   0.767
 7274SOL     OW23595   2.626   8.897  12.848
 7274SOL    HW123596   2.570   8.969  12.820
 7274SOL    HW223597   2.653   8.854  12.767
 7275SOL     OW23598   8.355   9.439   0.363
 7275SOL    HW123599   8.265   9.439   0.396
 7275SOL    HW223600   8.347   9.411   0.272
 7276SOL     OW23601   0.157   6.771   9.228
 7276SOL    HW123602   0.112   6.788   9.311
 7276SOL    HW223603   0.101   6.706   9.184
 7277SOL     OW23604   5.516   3.449  14.771
 7277SOL    HW123605   5.502   3.414  14.859
 7277SOL    HW223606   5.429   3.475  14.741
 7278SOL     OW23607  13.414   0.445   3.791
 7278SOL    HW123608  13.500   0.460   3.754
 7278SOL    HW223609  13.387   0.531   3.824
 7279SOL     OW23610  12.674  11.479   9.622
 7279SOL    HW123611  12.703  11.391   9.599
 7279SOL    HW223612  12.684  11.530   9.542
 7280SOL     OW23613  13.668  10.970   6.547
 7280SOL    HW123614  13.745  10.970   6.491
 7280SOL    HW223615  13.685  10.900   6.611
 7281SOL     OW23616   2.000  14.395   3.720
 7281SOL    HW123617   1.929  14.364   3.665
 7281SOL    HW223618   2.009  14.329   3.788
 7282SOL     OW23619   4.655   9.951  12.223
 7282SOL    HW123620   4.694   9.863  12.226
 7282SOL    HW223621   4.626   9.967  12.313
 7283SOL     OW23622  12.601   0.914  10.948
 7283SOL    HW123623  12.554   0.830  10.945
 7283SOL    HW223624  12.665   0.908  10.878
 7284SOL     OW23625   2.537   2.498   8.945
 7284SOL    HW123626   2.545   2.404   8.963
 7284SOL    HW223627   2.444   2.517   8.959
 7285SOL     OW23628   3.595   1.077  12.085
 7285SOL    HW123629   3.664   1.116  12.033
 7285SOL    HW223630   3.635   0.999  12.124
 7286SOL     OW23631   9.028   8.579  12.805
 7286SOL    HW123632   9.068   8.644  12.747
 7286SOL    HW223633   8.946   8.556  12.762
 7287SOL     OW23634   5.786  11.879  11.909
 7287SOL    HW123635   5.815  11.847  11.995
 7287SOL    HW223636   5.822  11.967  11.902
 7288SOL     OW23637   0.965  12.527   0.647
 7288SOL    HW123638   1.017  12.451   0.677
 7288SOL    HW223639   1.029  12.598   0.640
 7289SOL     OW23640   7.004   7.854   9.590
 7289SOL    HW123641   7.083   7.828   9.543
 7289SOL    HW223642   7.034   7.924   9.649
 7290SOL     OW23643  14.218  11.510   3.158
 7290SOL    HW123644  14.250  11.600   3.167
 7290SOL    HW223645  14.295  11.460   3.129
 7291SOL     OW23646   2.691  12.257   1.204
 7291SOL    HW123647   2.612  12.293   1.164
 7291SOL    HW223648   2.674  12.163   1.210
 7292SOL     OW23649   3.315  13.720   7.657
 7292SOL    HW123650   3.262  13.641   7.652
 7292SOL    HW223651   3.290  13.760   7.741
 7293SOL     OW23652   5.782   4.584   1.451
 7293SOL    HW123653   5.687   4.569   1.451
 7293SOL    HW223654   5.809   4.563   1.540
 7294SOL     OW23655   1.416  12.539  10.628
 7294SOL    HW123656   1.492  12.504  10.582
 7294SOL    HW223657   1.342  12.494  10.588
 7295SOL     OW23658   9.258   2.027  11.176
 7295SOL    HW123659   9.212   2.091  11.230
 7295SOL    HW223660   9.270   2.071  11.092
 7296SOL     OW23661   6.076  11.452  11.055
 7296SOL    HW123662   6.129  11.460  10.976
 7296SOL    HW223663   6.133  11.482  11.126
 7297SOL     OW23664   1.684   5.454   0.800
 7297SOL    HW123665   1.769   5.496   0.787
 7297SOL    HW223666   1.679   5.388   0.732
 7298SOL     OW23667   3.401   0.663   0.796
 7298SOL    HW123668   3.492   0.652   0.768
 7298SOL    HW223669   3.399   0.629   0.886
 7299SOL     OW23670   5.907   2.469  12.909
 7299SOL    HW123671   5.832   2.448  12.965
 7299SOL    HW223672   5.980   2.479  12.970
 7300SOL     OW23673  11.196   9.592   7.810
 7300SOL    HW123674  11.252   9.524   7.846
 7300SOL    HW223675  11.211   9.588   7.715
 7301SOL     OW23676  12.365  10.107   0.767
 7301SOL    HW123677  12.350  10.060   0.684
 7301SOL    HW223678  12.324  10.193   0.753
 7302SOL     OW23679   0.168   9.159  10.367
 7302SOL    HW123680   0.101   9.208  10.413
 7302SOL    HW223681   0.248   9.175  10.417
 7303SOL     OW23682   3.469  11.467  14.160
 7303SOL    HW123683   3.387  11.495  14.119
 7303SOL    HW223684   3.537  11.504  14.103
 7304SOL     OW23685  12.750   5.657  13.346
 7304SOL    HW123686  12.713   5.612  13.422
 7304SOL    HW223687  12.806   5.725  13.384
 7305SOL     OW23688   6.683   7.082   5.212
 7305SOL    HW123689   6.663   7.081   5.306
 7305SOL    HW223690   6.732   7.001   5.198
 7306SOL     OW23691   7.406  13.044  11.113
 7306SOL    HW123692   7.485  13.031  11.165
 7306SOL    HW223693   7.424  13.123  11.062
 7307SOL     OW23694  11.400  12.547   7.582
 7307SOL    HW123695  11.412  12.535   7.677
 7307SOL    HW223696  11.419  12.640   7.568
 7308SOL     OW23697   6.509   4.584   3.865
 7308SOL    HW123698   6.580   4.549   3.917
 7308SOL    HW223699   6.548   4.603   3.780
 7309SOL     OW23700   6.447   4.455   3.576
 7309SOL    HW123701   6.532   4.456   3.531
 7309SOL    HW223702   6.418   4.546   3.574
 7310SOL     OW23703  11.412   7.548   0.598
 7310SOL    HW123704  11.502   7.523   0.577
 7310SOL    HW223705  11.413   7.644   0.598
 7311SOL     OW23706  11.117  13.126   1.676
 7311SOL    HW123707  11.068  13.124   1.593
 7311SOL    HW223708  11.077  13.057   1.729
 7312SOL     OW23709  14.340   1.206   7.319
 7312SOL    HW123710  14.373   1.247   7.399
 7312SOL    HW223711  14.248   1.232   7.315
 7313SOL     OW23712   4.308  13.164   4.579
 7313SOL    HW123713   4.280  13.255   4.581
 7313SOL    HW223714   4.226  13.114   4.580
 7314SOL     OW23715   5.549   1.649   1.592
 7314SOL    HW123716   5.581   1.672   1.679
 7314SOL    HW223717   5.609   1.581   1.561
 7315SOL     OW23718   3.249   8.604  14.465
 7315SOL    HW123719   3.327   8.620  14.517
 7315SOL    HW223720   3.282   8.583  14.377
 7316SOL     OW23721   3.146   0.553   3.946
 7316SOL    HW123722   3.052   0.562   3.936
 7316SOL    HW223723   3.170   0.614   4.015
 7317SOL     OW23724   0.352  10.974   1.033
 7317SOL    HW123725   0.323  10.992   1.122
 7317SOL    HW223726   0.343  10.879   1.023
 7318SOL     OW23727  10.761   7.463   8.907
 7318SOL    HW123728  10.673   7.452   8.872
 7318SOL    HW223729  10.753   7.533   8.972
 7319SOL     OW23730   0.830  11.657   5.174
 7319SOL    HW123731   0.908  11.713   5.175
 7319SOL    HW223732   0.815  11.638   5.082
 7320SOL     OW23733   0.155  13.485  13.278
 7320SOL    HW123734   0.191  13.467  13.191
 7320SOL    HW223735   0.230  13.482  13.337
 7321SOL     OW23736   4.107  12.722   9.204
 7321SOL    HW123737   4.045  12.654   9.228
 7321SOL    HW223738   4.084  12.746   9.114
 7322SOL     OW23739  13.511   2.887  14.386
 7322SOL    HW123740  13.426   2.849  14.363
 7322SOL    HW223741  13.564   2.877  14.306
 7323SOL     OW23742  11.741   1.817  12.074
 7323SOL    HW123743  11.652   1.821  12.039
 7323SOL    HW223744  11.797   1.820  11.996
 7324SOL     OW23745   5.854   2.925   5.763
 7324SOL    HW123746   5.829   3.009   5.801
 7324SOL    HW223747   5.772   2.888   5.730
 7325SOL     OW23748   2.431  10.948  11.739
 7325SOL    HW123749   2.346  10.980  11.710
 7325SOL    HW223750   2.410  10.880  11.804
 7326SOL     OW23751   3.695  13.187   4.550
 7326SOL    HW123752   3.746  13.246   4.606
 7326SOL    HW223753   3.693  13.104   4.598
 7327SOL     OW23754  13.810   7.493  10.410
 7327SOL    HW123755  13.817   7.432  10.484
 7327SOL    HW223756  13.735   7.547  10.431
 7328SOL     OW23757   8.500  12.240  13.563
 7328SOL    HW123758   8.536  12.153  13.544
 7328SOL    HW223759   8.457  12.230  13.648
 7329SOL     OW23760   9.399  12.740   5.568
 7329SOL    HW123761   9.359  12.669   5.517
 7329SOL    HW223762   9.472  12.697   5.614
 7330SOL     OW23763   0.905   6.666   2.247
 7330SOL    HW123764   0.847   6.592   2.229
 7330SOL    HW223765   0.993   6.627   2.250
 7331SOL     OW23766   5.080  13.584   6.553
 7331SOL    HW123767   5.142  13.528   6.601
 7331SOL    HW223768   5.127  13.609   6.473
 7332SOL     OW23769   8.142   8.627   6.769
 7332SOL    HW123770   8.129   8.557   6.833
 7332SOL    HW223771   8.075   8.613   6.702
 7333SOL     OW23772   6.128   3.481  14.139
 7333SOL    HW123773   6.097   3.452  14.225
 7333SOL    HW223774   6.200   3.542  14.159
 7334SOL     OW23775   8.650  10.477   3.468
 7334SOL    HW123776   8.713  10.431   3.413
 7334SOL    HW223777   8.704  10.518   3.537
 7335SOL     OW23778   5.469   6.693   9.341
 7335SOL    HW123779   5.407   6.738   9.283
 7335SOL    HW223780   5.546   6.750   9.343
 7336SOL     OW23781   6.253   9.198   6.096
 7336SOL    HW123782   6.235   9.274   6.152
 7336SOL    HW223783   6.347   9.182   6.107
 7337SOL     OW23784  12.628   0.998   2.792
 7337SOL    HW123785  12.716   0.963   2.774
 7337SOL    HW223786  12.602   0.957   2.874
 7338SOL     OW23787   4.162   4.697   1.365
 7338SOL    HW123788   4.246   4.681   1.321
 7338SOL    HW223789   4.172   4.657   1.451
 7339SOL     OW23790   5.558   5.971   0.185
 7339SOL    HW123791   5.495   5.899   0.183
 7339SOL    HW223792   5.513   6.043   0.140
 7340SOL     OW23793   1.000   8.739   0.511
 7340SOL    HW123794   1.093   8.725   0.493
 7340SOL    HW223795   0.994   8.831   0.537
 7341SOL     OW23796  12.851  10.308   3.752
 7341SOL    HW123797  12.858  10.389   3.802
 7341SOL    HW223798  12.801  10.332   3.674
 7342SOL     OW23799   8.355   0.746   8.592
 7342SOL    HW123800   8.419   0.675   8.593
 7342SOL    HW223801   8.287   0.719   8.654
 7343SOL     OW23802   1.568   9.661  14.760
 7343SOL    HW123803   1.638   9.685  14.700
 7343SOL    HW223804   1.571   9.565  14.763
 7344SOL     OW23805   3.632   7.640   1.155
 7344SOL    HW123806   3.710   7.625   1.208
 7344SOL    HW223807   3.664   7.688   1.079
 7345SOL     OW23808   0.178   1.986   5.427
 7345SOL    HW123809   0.144   1.998   5.515
 7345SOL    HW223810   0.204   1.894   5.423
 7346SOL     OW23811   0.299   4.399  14.487
 7346SOL    HW123812   0.378   4.403  14.541
 7346SOL    HW223813   0.227   4.407  14.550
 7347SOL     OW23814  12.198  12.663  11.357
 7347SOL    HW123815  12.269  12.661  11.293
 7347SOL    HW223816  12.234  12.713  11.431
 7348SOL     OW23817   4.265   5.635  11.956
 7348SOL    HW123818   4.355   5.666  11.961
 7348SOL    HW223819   4.256   5.600  11.867
 7349SOL     OW23820   4.366  13.402   3.554
 7349SOL    HW123821   4.318  13.332   3.599
 7349SOL    HW223822   4.348  13.480   3.606
 7350SOL     OW23823   3.594   1.060   4.898
 7350SOL    HW123824   3.560   1.016   4.976
 7350SOL    HW223825   3.602   1.152   4.923
 7351SOL     OW23826   6.583   9.950  12.787
 7351SOL    HW123827   6.646   9.996  12.731
 7351SOL    HW223828   6.627   9.946  12.873
 7352SOL     OW23829   2.238  14.272   7.427
 7352SOL    HW123830   2.147  14.261   7.399
 7352SOL    HW223831   2.231  14.306   7.517
 7353SOL     OW23832  11.022   3.578   1.672
 7353SOL    HW123833  10.977   3.527   1.740
 7353SOL    HW223834  11.054   3.656   1.718
 7354SOL     OW23835   5.884   0.423   5.870
 7354SOL    HW123836   5.868   0.338   5.911
 7354SOL    HW223837   5.841   0.486   5.928
 7355SOL     OW23838  11.859   1.885  11.542
 7355SOL    HW123839  11.936   1.926  11.579
 7355SOL    HW223840  11.785   1.923  11.590
 7356SOL     OW23841   5.771  12.560   8.038
 7356SOL    HW123842   5.739  12.483   8.084
 7356SOL    HW223843   5.763  12.537   7.945
 7357SOL     OW23844   7.507   8.987   5.322
 7357SOL    HW123845   7.523   9.031   5.406
 7357SOL    HW223846   7.449   8.914   5.343
 7358SOL     OW23847   3.358  13.948  10.640
 7358SOL    HW123848   3.288  13.925  10.701
 7358SOL    HW223849   3.314  13.959  10.556
 7359SOL     OW23850   7.247   8.823   6.375
 7359SOL    HW123851   7.311   8.876   6.424
 7359SOL    HW223852   7.295   8.743   6.353
 7360SOL     OW23853   9.386   0.916   7.857
 7360SOL    HW123854   9.413   1.003   7.828
 7360SOL    HW223855   9.399   0.859   7.781
 7361SOL     OW23856   8.588   3.814   5.969
 7361SOL    HW123857   8.648   3.795   6.042
 7361SOL    HW223858   8.613   3.751   5.902
 7362SOL     OW23859   0.767  13.819  13.302
 7362SOL    HW123860   0.712  13.859  13.369
 7362SOL    HW223861   0.844  13.877  13.297
 7363SOL     OW23862   5.645  12.503   3.997
 7363SOL    HW123863   5.587  12.458   3.936
 7363SOL    HW223864   5.664  12.438   4.065
 7364SOL     OW23865   5.379   6.153   8.752
 7364SOL    HW123866   5.434   6.228   8.774
 7364SOL    HW223867   5.294   6.192   8.729
 7365SOL     OW23868  13.968  12.550  10.347
 7365SOL    HW123869  14.059  12.520  10.343
 7365SOL    HW223870  13.947  12.552  10.440
 7366SOL     OW23871   3.202   5.730   7.694
 7366SOL    HW123872   3.114   5.750   7.663
 7366SOL    HW223873   3.202   5.758   7.786
 7367SOL     OW23874   8.407   3.109  10.253
 7367SOL    HW123875   8.315   3.092  10.271
 7367SOL    HW223876   8.428   3.051  10.179
 7368SOL     OW23877   2.955   9.495   9.240
 7368SOL    HW123878   2.913   9.412   9.265
 7368SOL    HW223879   3.027   9.469   9.184
 7369SOL     OW23880  13.428  11.976   0.755
 7369SOL    HW123881  13.420  11.897   0.808
 7369SOL    HW223882  13.406  12.047   0.816
 7370SOL     OW23883  11.584   0.260   5.505
 7370SOL    HW123884  11.597   0.289   5.595
 7370SOL    HW223885  11.623   0.173   5.501
 7371SOL     OW23886   0.926   4.165   0.555
 7371SOL    HW123887   0.879   4.083   0.546
 7371SOL    HW223888   1.019   4.140   0.557
 7372SOL     OW23889  13.398   8.279   4.672
 7372SOL    HW123890  13.468   8.220   4.699
 7372SOL    HW223891  13.370   8.322   4.753
 7373SOL     OW23892  10.601  11.005   5.807
 7373SOL    HW123893  10.696  11.000   5.796
 7373SOL    HW223894  10.566  10.972   5.724
 7374SOL     OW23895   4.418   2.690   0.748
 7374SOL    HW123896   4.397   2.610   0.700
 7374SOL    HW223897   4.442   2.659   0.835
 7375SOL     OW23898   6.201   1.316  10.951
 7375SOL    HW123899   6.194   1.411  10.948
 7375SOL    HW223900   6.134   1.289  11.013
 7376SOL     OW23901   9.638   9.963  13.525
 7376SOL    HW123902   9.653   9.870  13.543
 7376SOL    HW223903   9.641   9.970  13.429
 7377SOL     OW23904   3.306   6.406   9.162
 7377SOL    HW123905   3.269   6.484   9.121
 7377SOL    HW223906   3.374   6.439   9.220
 7378SOL     OW23907   6.234   6.889  10.379
 7378SOL    HW123908   6.157   6.836  10.359
 7378SOL    HW223909   6.256   6.931  10.296
 7379SOL     OW23910  12.058   8.402  13.363
 7379SOL    HW123911  12.039   8.347  13.287
 7379SOL    HW223912  12.064   8.491  13.328
 7380SOL     OW23913   2.404   6.109   2.622
 7380SOL    HW123914   2.353   6.061   2.687
 7380SOL    HW223915   2.495   6.095   2.647
 7381SOL     OW23916  12.006   5.461   0.317
 7381SOL    HW123917  12.060   5.421   0.385
 7381SOL    HW223918  12.009   5.555   0.337
 7382SOL     OW23919  13.840   3.087  11.475
 7382SOL    HW123920  13.757   3.129  11.453
 7382SOL    HW223921  13.904   3.132  11.421
 7383SOL     OW23922  11.041   3.036   7.602
 7383SOL    HW123923  10.966   3.039   7.542
 7383SOL    HW223924  11.117   3.053   7.546
 7384SOL     OW23925   1.108  11.974  11.339
 7384SOL    HW123926   1.198  11.944  11.352
 7384SOL    HW223927   1.113  12.069  11.349
 7385SOL     OW23928  12.450  12.790   3.473
 7385SOL    HW123929  12.486  12.751   3.393
 7385SOL    HW223930  12.494  12.744   3.544
 7386SOL     OW23931  10.735   7.291   2.614
 7386SOL    HW123932  10.806   7.227   2.622
 7386SOL    HW223933  10.718   7.296   2.520
 7387SOL     OW23934   4.119   3.315   4.034
 7387SOL    HW123935   4.033   3.320   3.990
 7387SOL    HW223936   4.104   3.260   4.110
 7388SOL     OW23937   1.802   7.341   2.508
 7388SOL    HW123938   1.724   7.350   2.453
 7388SOL    HW223939   1.804   7.421   2.561
 7389SOL     OW23940   9.949   0.940   0.547
 7389SOL    HW123941   9.957   0.970   0.457
 7389SOL    HW223942  10.020   0.877   0.558
 7390SOL     OW23943   4.928   1.065   5.895
 7390SOL    HW123944   4.929   0.977   5.858
 7390SOL    HW223945   5.017   1.098   5.880
 7391SOL     OW23946   9.243  13.916   1.465
 7391SOL    HW123947   9.336  13.915   1.440
 7391SOL    HW223948   9.226  13.827   1.495
 7392SOL     OW23949  12.640   4.610  11.278
 7392SOL    HW123950  12.613   4.603  11.370
 7392SOL    HW223951  12.569   4.658  11.236
 7393SOL     OW23952   9.528   7.377  13.430
 7393SOL    HW123953   9.481   7.400  13.510
 7393SOL    HW223954   9.549   7.461  13.389
 7394SOL     OW23955   5.718  13.091  14.049
 7394SOL    HW123956   5.767  13.011  14.069
 7394SOL    HW223957   5.672  13.071  13.967
 7395SOL     OW23958   1.473   8.204   4.915
 7395SOL    HW123959   1.411   8.183   4.845
 7395SOL    HW223960   1.448   8.293   4.943
 7396SOL     OW23961   8.380  13.733   2.385
 7396SOL    HW123962   8.399  13.645   2.351
 7396SOL    HW223963   8.362  13.785   2.307
 7397SOL     OW23964  10.391   6.316  12.199
 7397SOL    HW123965  10.450   6.242  12.206
 7397SOL    HW223966  10.376   6.327  12.105
 7398SOL     OW23967   0.220   6.609   8.877
 7398SOL    HW123968   0.180   6.526   8.902
 7398SOL    HW223969   0.310   6.586   8.855
 7399SOL     OW23970  12.061   9.077  14.784
 7399SOL    HW123971  11.997   9.138  14.746
 7399SOL    HW223972  12.014   8.994  14.791
 7400SOL     OW23973   4.170   2.079  11.294
 7400SOL    HW123974   4.171   1.999  11.347
 7400SOL    HW223975   4.081   2.084  11.259
 7401SOL     OW23976   4.724   5.216  12.627
 7401SOL    HW123977   4.750   5.141  12.680
 7401SOL    HW223978   4.806   5.248  12.588
 7402SOL     OW23979   9.990   9.779   1.339
 7402SOL    HW123980   9.908   9.754   1.381
 7402SOL    HW223981   9.966   9.849   1.277
 7403SOL     OW23982   2.492  11.726   1.061
 7403SOL    HW123983   2.575  11.730   1.109
 7403SOL    HW223984   2.518  11.720   0.969
 7404SOL     OW23985   3.201   9.116   2.882
 7404SOL    HW123986   3.165   9.041   2.929
 7404SOL    HW223987   3.288   9.129   2.920
 7405SOL     OW23988   1.864   5.257   5.737
 7405SOL    HW123989   1.868   5.281   5.830
 7405SOL    HW223990   1.830   5.335   5.694
 7406SOL     OW23991  11.838   8.228  14.680
 7406SOL    HW123992  11.747   8.230  14.711
 7406SOL    HW223993  11.871   8.316  14.698
 7407SOL     OW23994   2.285   3.884   1.310
 7407SOL    HW123995   2.363   3.853   1.264
 7407SOL    HW223996   2.212   3.863   1.252
 7408SOL     OW23997   4.553   6.866  10.433
 7408SOL    HW123998   4.527   6.839  10.345
 7408SOL    HW223999   4.608   6.943  10.418
 7409SOL     OW24000  10.094  10.070   2.398
 7409SOL    HW124001   9.999  10.078   2.406
 7409SOL    HW224002  10.123  10.156   2.369
 7410SOL     OW24003   7.632  12.604   2.274
 7410SOL    HW124004   7.633  12.677   2.336
 7410SOL    HW224005   7.710  12.553   2.296
 7411SOL     OW24006   2.433   8.805   6.431
 7411SOL    HW124007   2.398   8.726   6.390
 7411SOL    HW224008   2.473   8.853   6.359
 7412SOL     OW24009   7.315  11.068   1.238
 7412SOL    HW124010   7.293  10.976   1.257
 7412SOL    HW224011   7.411  11.069   1.239
 7413SOL     OW24012   0.924   0.927   2.571
 7413SOL    HW124013   0.856   0.922   2.504
 7413SOL    HW224014   1.002   0.958   2.524
 7414SOL     OW24015   6.505   3.070   7.431
 7414SOL    HW124016   6.495   3.071   7.336
 7414SOL    HW224017   6.431   3.017   7.462
 7415SOL     OW24018   2.027   5.484  13.166
 7415SOL    HW124019   2.119   5.474  13.191
 7415SOL    HW224020   2.020   5.574  13.134
 7416SOL     OW24021  11.477  12.059  12.280
 7416SOL    HW124022  11.517  12.067  12.367
 7416SOL    HW224023  11.521  11.984  12.240
 7417SOL     OW24024  10.893   7.009   5.988
 7417SOL    HW124025  10.946   6.931   5.978
 7417SOL    HW224026  10.811   6.977   6.026
 7418SOL     OW24027  13.743   6.660   3.014
 7418SOL    HW124028  13.811   6.599   3.043
 7418SOL    HW224029  13.661   6.620   3.042
 7419SOL     OW24030   7.143   7.996   3.151
 7419SOL    HW124031   7.206   7.926   3.139
 7419SOL    HW224032   7.071   7.956   3.200
 7420SOL     OW24033  10.251  11.353   8.034
 7420SOL    HW124034  10.156  11.357   8.045
 7420SOL    HW224035  10.269  11.263   8.008
 7421SOL     OW24036   4.714  10.396   2.294
 7421SOL    HW124037   4.757  10.311   2.304
 7421SOL    HW224038   4.635  10.378   2.244
 7422SOL     OW24039   9.790   2.191   0.135
 7422SOL    HW124040   9.815   2.274   0.177
 7422SOL    HW224041   9.728   2.151   0.195
 7423SOL     OW24042   8.461   3.202   5.039
 7423SOL    HW124043   8.467   3.204   5.135
 7423SOL    HW224044   8.508   3.123   5.013
 7424SOL     OW24045   7.028  11.300   6.263
 7424SOL    HW124046   7.110  11.267   6.300
 7424SOL    HW224047   7.039  11.292   6.168
 7425SOL     OW24048   3.044   8.469   4.829
 7425SOL    HW124049   3.015   8.379   4.821
 7425SOL    HW224050   3.047   8.485   4.923
 7426SOL     OW24051   8.184   0.145  11.023
 7426SOL    HW124052   8.251   0.131  10.955
 7426SOL    HW224053   8.130   0.067  11.019
 7427SOL     OW24054   8.268   0.446   1.988
 7427SOL    HW124055   8.334   0.500   1.946
 7427SOL    HW224056   8.258   0.371   1.930
 7428SOL     OW24057  13.487  12.815   2.069
 7428SOL    HW124058  13.452  12.743   2.122
 7428SOL    HW224059  13.470  12.894   2.121
 7429SOL     OW24060  13.729   4.063   0.248
 7429SOL    HW124061  13.718   4.088   0.340
 7429SOL    HW224062  13.742   4.146   0.203
 7430SOL     OW24063  13.964   7.581  14.661
 7430SOL    HW124064  13.985   7.491  14.639
 7430SOL    HW224065  13.949   7.624  14.577
 7431SOL     OW24066  11.853   1.254   8.118
 7431SOL    HW124067  11.875   1.241   8.026
 7431SOL    HW224068  11.800   1.178   8.142
 7432SOL     OW24069  11.862  11.033  13.833
 7432SOL    HW124070  11.901  10.949  13.858
 7432SOL    HW224071  11.768  11.020  13.846
 7433SOL     OW24072   1.779   7.688   7.714
 7433SOL    HW124073   1.815   7.609   7.754
 7433SOL    HW224074   1.685   7.684   7.733
 7434SOL     OW24075  12.862   2.780   9.776
 7434SOL    HW124076  12.855   2.702   9.831
 7434SOL    HW224077  12.888   2.850   9.837
 7435SOL     OW24078   7.192   1.650   7.312
 7435SOL    HW124079   7.253   1.580   7.289
 7435SOL    HW224080   7.152   1.675   7.229
 7436SOL     OW24081   3.657   3.762   8.674
 7436SOL    HW124082   3.739   3.791   8.635
 7436SOL    HW224083   3.632   3.685   8.622
 7437SOL     OW24084   0.003  10.030  10.805
 7437SOL    HW124085  14.855  10.075  10.886
 7437SOL    HW224086  14.871   9.937  10.827
 7438SOL     OW24087   8.024   7.754  11.109
 7438SOL    HW124088   8.065   7.716  11.187
 7438SOL    HW224089   7.949   7.699  11.092
 7439SOL     OW24090   4.891   1.681  14.168
 7439SOL    HW124091   4.926   1.770  14.157
 7439SOL    HW224092   4.951   1.626  14.117
 7440SOL     OW24093  11.842   2.406   5.614
 7440SOL    HW124094  11.898   2.387   5.689
 7440SOL    HW224095  11.803   2.322   5.591
 7441SOL     OW24096   1.415   7.356  11.267
 7441SOL    HW124097   1.396   7.281  11.210
 7441SOL    HW224098   1.414   7.320  11.356
 7442SOL     OW24099  14.824   1.339   6.454
 7442SOL    HW124100  14.858   1.307   6.537
 7442SOL    HW224101  14.866   1.284   6.388
 7443SOL     OW24102   7.155   2.496   9.206
 7443SOL    HW124103   7.209   2.495   9.127
 7443SOL    HW224104   7.189   2.424   9.258
 7444SOL     OW24105   6.842   0.472   7.599
 7444SOL    HW124106   6.847   0.425   7.516
 7444SOL    HW224107   6.891   0.417   7.660
 7445SOL     OW24108  12.632  13.846   8.475
 7445SOL    HW124109  12.546  13.888   8.475
 7445SOL    HW224110  12.624  13.774   8.537
 7446SOL     OW24111   4.722   9.522   9.655
 7446SOL    HW124112   4.666   9.562   9.721
 7446SOL    HW224113   4.783   9.592   9.629
 7447SOL     OW24114   6.100   3.368  13.318
 7447SOL    HW124115   6.093   3.461  13.341
 7447SOL    HW224116   6.193   3.348  13.329
 7448SOL     OW24117  12.078   5.832  13.432
 7448SOL    HW124118  11.991   5.796  13.450
 7448SOL    HW224119  12.061   5.919  13.396
 7449SOL     OW24120   5.370  11.919   5.367
 7449SOL    HW124121   5.321  11.925   5.449
 7449SOL    HW224122   5.323  11.854   5.316
 7450SOL     OW24123   9.039  11.315  12.563
 7450SOL    HW124124   8.994  11.394  12.594
 7450SOL    HW224125   9.032  11.320  12.467
 7451SOL     OW24126   7.634   4.807   0.699
 7451SOL    HW124127   7.717   4.770   0.730
 7451SOL    HW224128   7.638   4.798   0.603
 7452SOL     OW24129   0.797   9.419   9.762
 7452SOL    HW124130   0.774   9.326   9.769
 7452SOL    HW224131   0.824   9.431   9.671
 7453SOL     OW24132   0.901   7.204   9.501
 7453SOL    HW124133   0.855   7.211   9.417
 7453SOL    HW224134   0.833   7.177   9.563
 7454SOL     OW24135  13.555   1.346   8.677
 7454SOL    HW124136  13.523   1.430   8.711
 7454SOL    HW224137  13.535   1.349   8.584
 7455SOL     OW24138   2.877  12.892  14.760
 7455SOL    HW124139   2.922  12.974  14.742
 7455SOL    HW224140   2.809  12.886  14.693
 7456SOL     OW24141   2.618   5.392   8.541
 7456SOL    HW124142   2.576   5.327   8.484
 7456SOL    HW224143   2.696   5.419   8.492
 7457SOL     OW24144   5.194  11.374   6.207
 7457SOL    HW124145   5.245  11.335   6.136
 7457SOL    HW224146   5.245  11.450   6.235
 7458SOL     OW24147  11.960   3.780  12.686
 7458SOL    HW124148  11.927   3.864  12.654
 7458SOL    HW224149  12.030   3.757  12.625
 7459SOL     OW24150   6.747   0.621  12.197
 7459SOL    HW124151   6.778   0.712  12.198
 7459SOL    HW224152   6.790   0.581  12.273
 7460SOL     OW24153   4.438  14.434   6.509
 7460SOL    HW124154   4.390  14.373   6.453
 7460SOL    HW224155   4.475  14.379   6.579
 7461SOL     OW24156   3.310  10.361   5.538
 7461SOL    HW124157   3.264  10.392   5.460
 7461SOL    HW224158   3.246  10.305   5.583
 7462SOL     OW24159  11.664   4.042  11.594
 7462SOL    HW124160  11.663   3.956  11.636
 7462SOL    HW224161  11.728   4.035  11.524
 7463SOL     OW24162  12.445   7.998   4.730
 7463SOL    HW124163  12.429   7.904   4.727
 7463SOL    HW224164  12.434   8.028   4.640
 7464SOL     OW24165   4.226  10.663   1.131
 7464SOL    HW124166   4.156  10.599   1.117
 7464SOL    HW224167   4.253  10.688   1.043
 7465SOL     OW24168   7.848  10.738  10.806
 7465SOL    HW124169   7.803  10.822  10.801
 7465SOL    HW224170   7.940  10.761  10.820
 7466SOL     OW24171   7.603   0.398   7.493
 7466SOL    HW124172   7.562   0.454   7.427
 7466SOL    HW224173   7.662   0.457   7.540
 7467SOL     OW24174   6.119   1.320   2.573
 7467SOL    HW124175   6.069   1.394   2.540
 7467SOL    HW224176   6.189   1.308   2.509
 7468SOL     OW24177   8.809   6.211   1.773
 7468SOL    HW124178   8.822   6.298   1.736
 7468SOL    HW224179   8.769   6.160   1.702
 7469SOL     OW24180  10.832  10.162   6.210
 7469SOL    HW124181  10.815  10.087   6.267
 7469SOL    HW224182  10.896  10.214   6.258
 7470SOL     OW24183   0.077   7.042  14.239
 7470SOL    HW124184   0.169   7.046  14.212
 7470SOL    HW224185   0.049   6.953  14.218
 7471SOL     OW24186   6.603   5.669   4.857
 7471SOL    HW124187   6.663   5.717   4.801
 7471SOL    HW224188   6.517   5.706   4.837
 7472SOL     OW24189   3.280  14.457   3.559
 7472SOL    HW124190   3.211  14.499   3.610
 7472SOL    HW224191   3.345  14.430   3.624
 7473SOL     OW24192   7.201   6.342   3.135
 7473SOL    HW124193   7.163   6.259   3.161
 7473SOL    HW224194   7.257   6.368   3.208
 7474SOL     OW24195  14.492   2.143   7.982
 7474SOL    HW124196  14.533   2.229   7.977
 7474SOL    HW224197  14.522   2.107   8.065
 7475SOL     OW24198   9.208  13.990   3.163
 7475SOL    HW124199   9.292  13.944   3.172
 7475SOL    HW224200   9.149  13.944   3.222
 7476SOL     OW24201  13.848  13.911   2.224
 7476SOL    HW124202  13.861  13.868   2.308
 7476SOL    HW224203  13.803  13.992   2.245
 7477SOL     OW24204   8.203   5.724   6.000
 7477SOL    HW124205   8.270   5.787   6.027
 7477SOL    HW224206   8.174   5.756   5.914
 7478SOL     OW24207   8.630   6.176   2.182
 7478SOL    HW124208   8.690   6.123   2.130
 7478SOL    HW224209   8.669   6.264   2.181
 7479SOL     OW24210   6.706  14.816  14.822
 7479SOL    HW124211   6.676  14.790  14.735
 7479SOL    HW224212   6.637  14.787   0.004
 7480SOL     OW24213   8.029   5.685   7.626
 7480SOL    HW124214   8.078   5.608   7.656
 7480SOL    HW224215   8.059   5.701   7.537
 7481SOL     OW24216  12.689   5.419   0.492
 7481SOL    HW124217  12.730   5.387   0.412
 7481SOL    HW224218  12.762   5.436   0.552
 7482SOL     OW24219   7.852   0.940  10.927
 7482SOL    HW124220   7.875   0.864  10.980
 7482SOL    HW224221   7.802   0.905  10.854
 7483SOL     OW24222   0.967   1.331   6.085
 7483SOL    HW124223   0.955   1.411   6.033
 7483SOL    HW224224   0.969   1.362   6.176
 7484SOL     OW24225   8.045   1.851   3.600
 7484SOL    HW124226   7.973   1.862   3.662
 7484SOL    HW224227   8.012   1.788   3.536
 7485SOL     OW24228  11.983   0.120  13.858
 7485SOL    HW124229  11.920   0.060  13.819
 7485SOL    HW224230  12.063   0.109  13.806
 7486SOL     OW24231   7.251   2.806  10.169
 7486SOL    HW124232   7.293   2.892  10.163
 7486SOL    HW224233   7.236   2.794  10.263
 7487SOL     OW24234   1.497   7.996  13.836
 7487SOL    HW124235   1.478   7.912  13.878
 7487SOL    HW224236   1.514   8.056  13.908
 7488SOL     OW24237   6.541  10.821   3.271
 7488SOL    HW124238   6.551  10.789   3.181
 7488SOL    HW224239   6.583  10.907   3.271
 7489SOL     OW24240   2.319   6.261  12.551
 7489SOL    HW124241   2.325   6.259  12.455
 7489SOL    HW224242   2.404   6.230  12.581
 7490SOL     OW24243   4.045   6.359   1.926
 7490SOL    HW124244   4.102   6.312   1.865
 7490SOL    HW224245   3.969   6.385   1.873
 7491SOL     OW24246  14.168   0.911   7.785
 7491SOL    HW124247  14.091   0.858   7.805
 7491SOL    HW224248  14.142   0.962   7.707
 7492SOL     OW24249  11.144   2.609   7.072
 7492SOL    HW124250  11.137   2.663   7.150
 7492SOL    HW224251  11.174   2.669   7.004
 7493SOL     OW24252   3.805   9.897  12.584
 7493SOL    HW124253   3.724   9.845  12.585
 7493SOL    HW224254   3.787   9.969  12.645
 7494SOL     OW24255  14.582   8.656   4.883
 7494SOL    HW124256  14.499   8.631   4.843
 7494SOL    HW224257  14.649   8.627   4.820
 7495SOL     OW24258  14.273  12.310   8.614
 7495SOL    HW124259  14.267  12.241   8.547
 7495SOL    HW224260  14.367  12.324   8.626
 7496SOL     OW24261   1.420  12.660   7.791
 7496SOL    HW124262   1.457  12.701   7.869
 7496SOL    HW224263   1.496  12.627   7.743
 7497SOL     OW24264  10.228   5.441  10.116
 7497SOL    HW124265  10.178   5.426  10.196
 7497SOL    HW224266  10.174   5.500  10.064
 7498SOL     OW24267  14.732  10.908   5.074
 7498SOL    HW124268  14.811  10.957   5.093
 7498SOL    HW224269  14.758  10.844   5.007
 7499SOL     OW24270   9.174   8.167   3.361
 7499SOL    HW124271   9.253   8.190   3.410
 7499SOL    HW224272   9.142   8.088   3.404
 7500SOL     OW24273   5.346   5.292   2.696
 7500SOL    HW124274   5.337   5.239   2.775
 7500SOL    HW224275   5.257   5.321   2.677
 7501SOL     OW24276  14.016  11.159   5.209
 7501SOL    HW124277  13.959  11.161   5.133
 7501SOL    HW224278  14.098  11.121   5.177
 7502SOL     OW24279  11.982   8.018   6.827
 7502SOL    HW124280  11.922   8.080   6.868
 7502SOL    HW224281  12.069   8.050   6.850
 7503SOL     OW24282   7.085   9.468  12.130
 7503SOL    HW124283   7.101   9.405  12.059
 7503SOL    HW224284   7.111   9.421  12.210
 7504SOL     OW24285   1.435   9.503   0.168
 7504SOL    HW124286   1.479   9.420   0.150
 7504SOL    HW224287   1.345   9.489   0.140
 7505SOL     OW24288  11.955  13.535   1.097
 7505SOL    HW124289  11.964  13.510   1.189
 7505SOL    HW224290  11.877  13.590   1.095
 7506SOL     OW24291  13.739   1.024   4.132
 7506SOL    HW124292  13.823   1.008   4.089
 7506SOL    HW224293  13.756   1.098   4.190
 7507SOL     OW24294  10.506   5.010   4.603
 7507SOL    HW124295  10.430   5.005   4.545
 7507SOL    HW224296  10.535   4.919   4.611
 7508SOL     OW24297  12.887   2.604   4.290
 7508SOL    HW124298  12.982   2.601   4.306
 7508SOL    HW224299  12.866   2.517   4.256
 7509SOL     OW24300   0.088   7.865  10.375
 7509SOL    HW124301   0.030   7.864  10.299
 7509SOL    HW224302   0.171   7.831  10.343
 7510SOL     OW24303   5.910   8.336   2.810
 7510SOL    HW124304   5.822   8.322   2.844
 7510SOL    HW224305   5.917   8.431   2.799
 7511SOL     OW24306   9.287   6.736  13.908
 7511SOL    HW124307   9.243   6.820  13.916
 7511SOL    HW224308   9.234   6.676  13.961
 7512SOL     OW24309   4.832   3.806  11.536
 7512SOL    HW124310   4.772   3.759  11.478
 7512SOL    HW224311   4.915   3.760  11.527
 7513SOL     OW24312  10.925  11.509  11.877
 7513SOL    HW124313  10.938  11.494  11.783
 7513SOL    HW224314  10.975  11.439  11.919
 7514SOL     OW24315   7.612   9.170   6.638
 7514SOL    HW124316   7.673   9.209   6.575
 7514SOL    HW224317   7.554   9.115   6.585
 7515SOL     OW24318  10.352   6.374  13.241
 7515SOL    HW124319  10.306   6.358  13.159
 7515SOL    HW224320  10.319   6.458  13.271
 7516SOL     OW24321  10.754   3.117   1.936
 7516SOL    HW124322  10.669   3.157   1.954
 7516SOL    HW224323  10.767   3.055   2.007
 7517SOL     OW24324   4.224   7.100   7.808
 7517SOL    HW124325   4.280   7.079   7.883
 7517SOL    HW224326   4.155   7.033   7.810
 7518SOL     OW24327  14.689   4.656  13.771
 7518SOL    HW124328  14.625   4.652  13.842
 7518SOL    HW224329  14.771   4.681  13.814
 7519SOL     OW24330   1.076  13.952   2.850
 7519SOL    HW124331   1.084  14.036   2.806
 7519SOL    HW224332   1.157  13.905   2.826
 7520SOL     OW24333   1.969   4.819  12.286
 7520SOL    HW124334   2.017   4.755  12.232
 7520SOL    HW224335   1.933   4.881  12.223
 7521SOL     OW24336   0.196  10.467   9.232
 7521SOL    HW124337   0.186  10.376   9.260
 7521SOL    HW224338   0.162  10.518   9.305
 7522SOL     OW24339   2.094  12.215   9.740
 7522SOL    HW124340   2.066  12.141   9.687
 7522SOL    HW224341   2.179  12.239   9.703
 7523SOL     OW24342  10.065  14.595  14.533
 7523SOL    HW124343  10.140  14.536  14.525
 7523SOL    HW224344  10.021  14.589  14.448
 7524SOL     OW24345  12.695  11.707   1.884
 7524SOL    HW124346  12.755  11.777   1.857
 7524SOL    HW224347  12.662  11.671   1.802
 7525SOL     OW24348   4.998   7.179  11.207
 7525SOL    HW124349   5.043   7.166  11.291
 7525SOL    HW224350   5.019   7.269  11.183
 7526SOL     OW24351  12.269  10.681   0.307
 7526SOL    HW124352  12.297  10.622   0.238
 7526SOL    HW224353  12.329  10.664   0.380
 7527SOL     OW24354   5.599   9.490   2.806
 7527SOL    HW124355   5.604   9.547   2.729
 7527SOL    HW224356   5.650   9.536   2.873
 7528SOL     OW24357   9.073  13.521  12.357
 7528SOL    HW124358   9.080  13.525  12.453
 7528SOL    HW224359   9.164  13.521  12.327
 7529SOL     OW24360   4.236  12.676   8.270
 7529SOL    HW124361   4.314  12.708   8.315
 7529SOL    HW224362   4.166  12.734   8.299
 7530SOL     OW24363   0.988  13.591   1.156
 7530SOL    HW124364   1.081  13.569   1.157
 7530SOL    HW224365   0.983  13.681   1.187
 7531SOL     OW24366  10.122  13.430   1.974
 7531SOL    HW124367  10.215  13.443   1.996
 7531SOL    HW224368  10.081  13.403   2.056
 7532SOL     OW24369   2.933   6.088  13.639
 7532SOL    HW124370   2.878   6.010  13.639
 7532SOL    HW224371   2.877   6.158  13.606
 7533SOL     OW24372   4.984  12.106  11.201
 7533SOL    HW124373   5.021  12.020  11.185
 7533SOL    HW224374   4.949  12.134  11.117
 7534SOL     OW24375  11.834  14.406   1.515
 7534SOL    HW124376  11.915  14.418   1.466
 7534SOL    HW224377  11.859  14.422   1.606
 7535SOL     OW24378   4.682   5.577   6.992
 7535SOL    HW124379   4.592   5.565   7.022
 7535SOL    HW224380   4.707   5.663   7.025
 7536SOL     OW24381   3.366   7.923   0.166
 7536SOL    HW124382   3.342   7.987   0.099
 7536SOL    HW224383   3.294   7.927   0.229
 7537SOL     OW24384  14.279  11.761   7.676
 7537SOL    HW124385  14.256  11.763   7.769
 7537SOL    HW224386  14.363  11.714   7.674
 7538SOL     OW24387  11.483   6.114   2.935
 7538SOL    HW124388  11.441   6.187   2.890
 7538SOL    HW224389  11.556   6.153   2.983
 7539SOL     OW24390   8.510  11.968  10.171
 7539SOL    HW124391   8.446  12.032  10.203
 7539SOL    HW224392   8.511  11.900  10.238
 7540SOL     OW24393   0.081  12.964  13.362
 7540SOL    HW124394   0.161  12.956  13.413
 7540SOL    HW224395   0.011  12.962  13.427
 7541SOL     OW24396  13.961  13.684  10.890
 7541SOL    HW124397  14.000  13.771  10.898
 7541SOL    HW224398  13.998  13.649  10.809
 7542SOL     OW24399   8.022   1.627  10.747
 7542SOL    HW124400   7.979   1.585  10.821
 7542SOL    HW224401   8.065   1.555  10.701
 7543SOL     OW24402   2.761   2.161   7.986
 7543SOL    HW124403   2.710   2.225   7.937
 7543SOL    HW224404   2.698   2.092   8.009
 7544SOL     OW24405   3.193   7.132   9.687
 7544SOL    HW124406   3.116   7.079   9.667
 7544SOL    HW224407   3.183   7.210   9.633
 7545SOL     OW24408   7.591  14.672  10.888
 7545SOL    HW124409   7.657  14.725  10.845
 7545SOL    HW224410   7.510  14.690  10.840
 7546SOL     OW24411   3.142  13.086   6.467
 7546SOL    HW124412   3.165  12.993   6.458
 7546SOL    HW224413   3.146  13.120   6.377
 7547SOL     OW24414  11.574   8.104   8.796
 7547SOL    HW124415  11.643   8.100   8.730
 7547SOL    HW224416  11.494   8.082   8.749
 7548SOL     OW24417  14.764   7.235   8.665
 7548SOL    HW124418  14.714   7.233   8.583
 7548SOL    HW224419  14.724   7.167   8.719
 7549SOL     OW24420  11.808   7.326  11.425
 7549SOL    HW124421  11.757   7.360  11.498
 7549SOL    HW224422  11.883   7.385  11.418
 7550SOL     OW24423  12.331   3.518  14.196
 7550SOL    HW124424  12.397   3.549  14.134
 7550SOL    HW224425  12.301   3.435  14.160
 7551SOL     OW24426   0.174  10.307  12.887
 7551SOL    HW124427   0.194  10.291  12.980
 7551SOL    HW224428   0.232  10.248  12.840
 7552SOL     OW24429   2.911  13.935   5.337
 7552SOL    HW124430   2.939  13.881   5.263
 7552SOL    HW224431   2.832  13.980   5.307
 7553SOL     OW24432  14.868  10.893   7.525
 7553SOL    HW124433   0.044  10.864   7.599
 7553SOL    HW224434  14.800  10.826   7.517
 7554SOL     OW24435   4.377   6.680  10.771
 7554SOL    HW124436   4.332   6.764  10.780
 7554SOL    HW224437   4.470   6.702  10.776
 7555SOL     OW24438  12.736   6.946   2.584
 7555SOL    HW124439  12.801   6.877   2.594
 7555SOL    HW224440  12.679   6.936   2.661
 7556SOL     OW24441   0.325   7.001  11.837
 7556SOL    HW124442   0.354   6.910  11.825
 7556SOL    HW224443   0.336   7.041  11.751
 7557SOL     OW24444   7.255   1.226   1.643
 7557SOL    HW124445   7.226   1.316   1.657
 7557SOL    HW224446   7.186   1.172   1.683
 7558SOL     OW24447   4.548   4.289   8.658
 7558SOL    HW124448   4.561   4.328   8.745
 7558SOL    HW224449   4.594   4.205   8.663
 7559SOL     OW24450   1.601  11.904  10.413
 7559SOL    HW124451   1.553  11.912  10.495
 7559SOL    HW224452   1.628  11.812  10.411
 7560SOL     OW24453   7.741  11.021  10.414
 7560SOL    HW124454   7.693  11.099  10.443
 7560SOL    HW224455   7.772  11.044  10.326
 7561SOL     OW24456   2.048   5.663   8.788
 7561SOL    HW124457   1.969   5.649   8.841
 7561SOL    HW224458   2.048   5.757   8.770
 7562SOL     OW24459  14.116  11.122  14.508
 7562SOL    HW124460  14.156  11.100  14.592
 7562SOL    HW224461  14.029  11.082  14.512
 7563SOL     OW24462   7.056   9.116   8.644
 7563SOL    HW124463   7.137   9.111   8.595
 7563SOL    HW224464   7.000   9.174   8.592
 7564SOL     OW24465  12.683   6.109   1.159
 7564SOL    HW124466  12.723   6.157   1.087
 7564SOL    HW224467  12.590   6.104   1.136
 7565SOL     OW24468  13.707  14.508   4.868
 7565SOL    HW124469  13.742  14.453   4.798
 7565SOL    HW224470  13.722  14.457   4.948
 7566SOL     OW24471  14.221  11.160   6.105
 7566SOL    HW124472  14.278  11.173   6.029
 7566SOL    HW224473  14.230  11.239   6.157
 7567SOL     OW24474   0.835   0.277  10.873
 7567SOL    HW124475   0.813   0.334  10.799
 7567SOL    HW224476   0.834   0.188  10.836
 7568SOL     OW24477  13.913   0.547   9.846
 7568SOL    HW124478  13.978   0.491   9.889
 7568SOL    HW224479  13.926   0.633   9.885
 7569SOL     OW24480  10.335   8.757   7.976
 7569SOL    HW124481  10.289   8.816   8.035
 7569SOL    HW224482  10.267   8.698   7.943
 7570SOL     OW24483   5.374   5.347   3.139
 7570SOL    HW124484   5.367   5.410   3.211
 7570SOL    HW224485   5.439   5.283   3.169
 7571SOL     OW24486  12.903  13.088  12.060
 7571SOL    HW124487  12.976  13.109  12.002
 7571SOL    HW224488  12.825  13.109  12.009
 7572SOL     OW24489   1.450   3.824   3.965
 7572SOL    HW124490   1.543   3.839   3.981
 7572SOL    HW224491   1.448   3.753   3.900
 7573SOL     OW24492   7.313  10.671   6.038
 7573SOL    HW124493   7.280  10.720   6.113
 7573SOL    HW224494   7.238  10.660   5.981
 7574SOL     OW24495   1.894  11.175   0.493
 7574SOL    HW124496   1.863  11.237   0.559
 7574SOL    HW224497   1.883  11.220   0.410
 7575SOL     OW24498   7.740   4.705   7.255
 7575SOL    HW124499   7.744   4.617   7.217
 7575SOL    HW224500   7.743   4.690   7.350
 7576SOL     OW24501  14.317   3.186   2.107
 7576SOL    HW124502  14.349   3.267   2.067
 7576SOL    HW224503  14.357   3.185   2.194
 7577SOL     OW24504  12.735   2.004   0.856
 7577SOL    HW124505  12.822   2.038   0.876
 7577SOL    HW224506  12.682   2.027   0.932
 7578SOL     OW24507   4.065   8.004   4.183
 7578SOL    HW124508   3.987   7.965   4.222
 7578SOL    HW224509   4.135   7.942   4.202
 7579SOL     OW24510  11.291   2.062   0.771
 7579SOL    HW124511  11.369   2.023   0.809
 7579SOL    HW224512  11.218   2.029   0.823
 7580SOL     OW24513   4.819  10.802   3.493
 7580SOL    HW124514   4.816  10.787   3.588
 7580SOL    HW224515   4.905  10.841   3.478
 7581SOL     OW24516   1.604   8.122   2.310
 7581SOL    HW124517   1.513   8.112   2.338
 7581SOL    HW224518   1.628   8.211   2.334
 7582SOL     OW24519  12.316   7.786  13.137
 7582SOL    HW124520  12.303   7.853  13.204
 7582SOL    HW224521  12.228   7.765  13.107
 7583SOL     OW24522   8.210   2.241   6.451
 7583SOL    HW124523   8.215   2.274   6.541
 7583SOL    HW224524   8.206   2.320   6.397
 7584SOL     OW24525  11.049   7.912   3.870
 7584SOL    HW124526  11.136   7.948   3.851
 7584SOL    HW224527  11.054   7.821   3.840
 7585SOL     OW24528   9.935   8.615  10.041
 7585SOL    HW124529  10.001   8.683  10.028
 7585SOL    HW224530   9.868   8.657  10.094
 7586SOL     OW24531   1.345   7.897   7.909
 7586SOL    HW124532   1.270   7.856   7.952
 7586SOL    HW224533   1.418   7.881   7.968
 7587SOL     OW24534   5.214   7.177   6.715
 7587SOL    HW124535   5.154   7.123   6.662
 7587SOL    HW224536   5.243   7.118   6.785
 7588SOL     OW24537  13.330   9.198   9.092
 7588SOL    HW124538  13.318   9.292   9.103
 7588SOL    HW224539  13.414   9.189   9.048
 7589SOL     OW24540   9.955   0.283  10.640
 7589SOL    HW124541   9.910   0.203  10.667
 7589SOL    HW224542   9.991   0.319  10.721
 7590SOL     OW24543   2.050   7.578  12.154
 7590SOL    HW124544   2.133   7.534  12.170
 7590SOL    HW224545   1.990   7.509  12.127
 7591SOL     OW24546  13.752   1.423   1.477
 7591SOL    HW124547  13.833   1.424   1.427
 7591SOL    HW224548  13.683   1.436   1.412
 7592SOL     OW24549   0.121   5.310  12.953
 7592SOL    HW124550   0.098   5.401  12.971
 7592SOL    HW224551   0.119   5.267  13.039
 7593SOL     OW24552   7.133  11.653  10.176
 7593SOL    HW124553   7.055  11.668  10.122
 7593SOL    HW224554   7.188  11.597  10.121
 7594SOL     OW24555  14.262  13.489  10.529
 7594SOL    HW124556  14.280  13.396  10.541
 7594SOL    HW224557  14.317  13.533  10.594
 7595SOL     OW24558   2.652   0.538   5.100
 7595SOL    HW124559   2.701   0.463   5.136
 7595SOL    HW224560   2.580   0.499   5.052
 7596SOL     OW24561   2.407   2.577   1.323
 7596SOL    HW124562   2.360   2.523   1.386
 7596SOL    HW224563   2.489   2.600   1.367
 7597SOL     OW24564   7.410   8.771   8.925
 7597SOL    HW124565   7.484   8.715   8.901
 7597SOL    HW224566   7.344   8.711   8.958
 7598SOL     OW24567   3.912   0.564   8.552
 7598SOL    HW124568   3.907   0.598   8.462
 7598SOL    HW224569   4.004   0.570   8.574
 7599SOL     OW24570  13.304   5.483   2.798
 7599SOL    HW124571  13.309   5.442   2.711
 7599SOL    HW224572  13.333   5.573   2.784
 7600SOL     OW24573  11.818  12.451  10.076
 7600SOL    HW124574  11.747  12.477  10.134
 7600SOL    HW224575  11.779  12.451   9.989
 7601SOL     OW24576   2.372  11.082  12.449
 7601SOL    HW124577   2.387  11.022  12.521
 7601SOL    HW224578   2.391  11.169  12.486
 7602SOL     OW24579   2.237   6.898   7.438
 7602SOL    HW124580   2.171   6.953   7.396
 7602SOL    HW224581   2.309   6.894   7.376
 7603SOL     OW24582   6.899   2.582   6.205
 7603SOL    HW124583   6.968   2.564   6.269
 7603SOL    HW224584   6.906   2.510   6.142
 7604SOL     OW24585   8.165  10.795   2.885
 7604SOL    HW124586   8.193  10.869   2.939
 7604SOL    HW224587   8.247  10.753   2.859
 7605SOL     OW24588  13.115  12.183   7.020
 7605SOL    HW124589  13.054  12.172   7.092
 7605SOL    HW224590  13.170  12.257   7.047
 7606SOL     OW24591  12.344   9.866   0.576
 7606SOL    HW124592  12.391   9.894   0.655
 7606SOL    HW224593  12.383   9.782   0.554
 7607SOL     OW24594   6.149  12.314  11.610
 7607SOL    HW124595   6.059  12.315  11.641
 7607SOL    HW224596   6.164  12.403  11.576
 7608SOL     OW24597   0.393   3.649   1.971
 7608SOL    HW124598   0.465   3.676   1.914
 7608SOL    HW224599   0.372   3.727   2.022
 7609SOL     OW24600  10.825   0.919  10.076
 7609SOL    HW124601  10.871   0.939   9.995
 7609SOL    HW224602  10.762   0.851  10.051
 7610SOL     OW24603   2.004   4.566  11.313
 7610SOL    HW124604   1.944   4.492  11.320
 7610SOL    HW224605   2.024   4.573  11.220
 7611SOL     OW24606  10.148   8.224   1.675
 7611SOL    HW124607  10.121   8.178   1.595
 7611SOL    HW224608  10.190   8.157   1.728
 7612SOL     OW24609   4.732  13.711  11.806
 7612SOL    HW124610   4.743  13.749  11.893
 7612SOL    HW224611   4.679  13.775  11.758
 7613SOL     OW24612  13.941   0.058   7.941
 7613SOL    HW124613  13.927   0.042   8.034
 7613SOL    HW224614  13.947  14.849   7.901
 7614SOL     OW24615   3.257  13.565   7.019
 7614SOL    HW124616   3.199  13.633   7.055
 7614SOL    HW224617   3.273  13.593   6.929
 7615SOL     OW24618  13.276   1.686   4.651
 7615SOL    HW124619  13.352   1.718   4.699
 7615SOL    HW224620  13.298   1.595   4.628
 7616SOL     OW24621  13.608   9.544   5.391
 7616SOL    HW124622  13.694   9.514   5.421
 7616SOL    HW224623  13.567   9.582   5.468
 7617SOL     OW24624   0.215   1.484  13.125
 7617SOL    HW124625   0.157   1.559  13.119
 7617SOL    HW224626   0.158   1.408  13.118
 7618SOL     OW24627   3.472  10.143   4.844
 7618SOL    HW124628   3.485  10.050   4.831
 7618SOL    HW224629   3.379  10.152   4.866
 7619SOL     OW24630   8.898  12.639  10.126
 7619SOL    HW124631   8.851  12.721  10.140
 7619SOL    HW224632   8.848  12.594  10.058
 7620SOL     OW24633   4.664   1.350   0.910
 7620SOL    HW124634   4.750   1.345   0.950
 7620SOL    HW224635   4.621   1.268   0.934
 7621SOL     OW24636   9.214  12.287   1.590
 7621SOL    HW124637   9.306  12.274   1.565
 7621SOL    HW224638   9.214  12.365   1.644
 7622SOL     OW24639  13.565  12.061  12.673
 7622SOL    HW124640  13.516  12.066  12.755
 7622SOL    HW224641  13.651  12.027  12.699
 7623SOL     OW24642  10.134   5.050   7.439
 7623SOL    HW124643  10.041   5.065   7.455
 7623SOL    HW224644  10.159   5.117   7.375
 7624SOL     OW24645   7.995   3.301   3.384
 7624SOL    HW124646   7.999   3.343   3.470
 7624SOL    HW224647   7.908   3.322   3.351
 7625SOL     OW24648  12.816   3.416   0.195
 7625SOL    HW124649  12.788   3.429   0.286
 7625SOL    HW224650  12.738   3.380   0.151
 7626SOL     OW24651   3.492  11.283  10.009
 7626SOL    HW124652   3.420  11.256   9.952
 7626SOL    HW224653   3.450  11.303  10.093
 7627SOL     OW24654   5.643  10.711   1.762
 7627SOL    HW124655   5.632  10.629   1.714
 7627SOL    HW224656   5.557  10.752   1.760
 7628SOL     OW24657   1.709   4.988   4.007
 7628SOL    HW124658   1.678   5.035   3.929
 7628SOL    HW224659   1.716   4.897   3.979
 7629SOL     OW24660   9.957   1.862  13.558
 7629SOL    HW124661   9.906   1.935  13.524
 7629SOL    HW224662  10.040   1.901  13.586
 7630SOL     OW24663  11.317  10.161   7.316
 7630SOL    HW124664  11.392  10.220   7.309
 7630SOL    HW224665  11.314  10.115   7.233
 7631SOL     OW24666   7.679  13.072   2.678
 7631SOL    HW124667   7.687  13.151   2.731
 7631SOL    HW224668   7.588  13.074   2.646
 7632SOL     OW24669   9.635   4.179  12.848
 7632SOL    HW124670   9.601   4.260  12.885
 7632SOL    HW224671   9.618   4.187  12.754
 7633SOL     OW24672   1.986  14.109   2.282
 7633SOL    HW124673   1.893  14.093   2.295
 7633SOL    HW224674   1.990  14.188   2.228
 7634SOL     OW24675   3.587   4.390   9.631
 7634SOL    HW124676   3.534   4.464   9.600
 7634SOL    HW224677   3.623   4.352   9.551
 7635SOL     OW24678  11.308   5.355   7.347
 7635SOL    HW124679  11.341   5.370   7.259
 7635SOL    HW224680  11.290   5.443   7.381
 7636SOL     OW24681   4.529   3.514  11.041
 7636SOL    HW124682   4.451   3.509  11.095
 7636SOL    HW224683   4.499   3.550  10.957
 7637SOL     OW24684   2.061   4.983   1.238
 7637SOL    HW124685   2.124   4.916   1.213
 7637SOL    HW224686   2.006   4.941   1.304
 7638SOL     OW24687   6.881   1.868  10.155
 7638SOL    HW124688   6.962   1.876  10.104
 7638SOL    HW224689   6.905   1.812  10.229
 7639SOL     OW24690  11.089   0.866  13.055
 7639SOL    HW124691  11.109   0.790  13.110
 7639SOL    HW224692  11.044   0.927  13.114
 7640SOL     OW24693   7.856   7.782   6.983
 7640SOL    HW124694   7.801   7.857   7.007
 7640SOL    HW224695   7.920   7.775   7.053
 7641SOL     OW24696  13.081   1.883   1.341
 7641SOL    HW124697  13.092   1.896   1.247
 7641SOL    HW224698  13.146   1.817   1.363
 7642SOL     OW24699  10.685   9.045   3.945
 7642SOL    HW124700  10.682   9.127   3.895
 7642SOL    HW224701  10.717   8.981   3.882
 7643SOL     OW24702  12.726   8.853  10.840
 7643SOL    HW124703  12.797   8.907  10.806
 7643SOL    HW224704  12.660   8.855  10.771
 7644SOL     OW24705   2.147   3.674   7.996
 7644SOL    HW124706   2.210   3.699   7.929
 7644SOL    HW224707   2.062   3.692   7.957
 7645SOL     OW24708  14.772  11.401  11.676
 7645SOL    HW124709  14.805  11.488  11.701
 7645SOL    HW224710  14.826  11.340  11.727
 7646SOL     OW24711  10.767  13.296   4.544
 7646SOL    HW124712  10.699  13.264   4.604
 7646SOL    HW224713  10.833  13.227   4.546
 7647SOL     OW24714   3.934   7.158  10.703
 7647SOL    HW124715   3.907   7.155  10.795
 7647SOL    HW224716   4.028   7.175  10.707
 7648SOL     OW24717   1.036   0.308   7.843
 7648SOL    HW124718   1.020   0.218   7.816
 7648SOL    HW224719   0.954   0.335   7.886
 7649SOL     OW24720   9.817  14.271   1.893
 7649SOL    HW124721   9.912  14.282   1.901
 7649SOL    HW224722   9.781  14.357   1.913
 7650SOL     OW24723  14.325  13.880   7.301
 7650SOL    HW124724  14.274  13.956   7.273
 7650SOL    HW224725  14.380  13.859   7.226
 7651SOL     OW24726   3.568   5.551   3.930
 7651SOL    HW124727   3.517   5.498   3.991
 7651SOL    HW224728   3.659   5.538   3.957
 7652SOL     OW24729  11.608   6.338   0.741
 7652SOL    HW124730  11.617   6.317   0.834
 7652SOL    HW224731  11.516   6.318   0.721
 7653SOL     OW24732   6.237   5.366  10.620
 7653SOL    HW124733   6.332   5.357  10.612
 7653SOL    HW224734   6.209   5.288  10.668
 7654SOL     OW24735   5.180   4.920   6.883
 7654SOL    HW124736   5.241   4.866   6.933
 7654SOL    HW224737   5.235   4.965   6.819
 7655SOL     OW24738   9.991   9.833   6.149
 7655SOL    HW124739  10.024   9.848   6.238
 7655SOL    HW224740  10.039   9.756   6.118
 7656SOL     OW24741   6.092  10.470  10.765
 7656SOL    HW124742   6.030  10.457  10.837
 7656SOL    HW224743   6.072  10.558  10.733
 7657SOL     OW24744  11.521   3.321   6.404
 7657SOL    HW124745  11.504   3.338   6.312
 7657SOL    HW224746  11.565   3.236   6.405
 7658SOL     OW24747   6.795   5.524  11.490
 7658SOL    HW124748   6.786   5.465  11.415
 7658SOL    HW224749   6.778   5.468  11.566
 7659SOL     OW24750   3.039   7.850  14.081
 7659SOL    HW124751   3.049   7.791  14.006
 7659SOL    HW224752   3.020   7.791  14.155
 7660SOL     OW24753  12.074   8.000  14.108
 7660SOL    HW124754  11.995   7.994  14.162
 7660SOL    HW224755  12.110   7.912  14.109
 7661SOL     OW24756   3.770   5.574  12.642
 7661SOL    HW124757   3.696   5.569  12.581
 7661SOL    HW224758   3.847   5.575  12.586
 7662SOL     OW24759  10.451   6.391   0.028
 7662SOL    HW124760  10.377   6.376   0.088
 7662SOL    HW224761  10.432   6.335  14.830
 7663SOL     OW24762  10.742  14.264  13.773
 7663SOL    HW124763  10.772  14.295  13.858
 7663SOL    HW224764  10.670  14.322  13.750
 7664SOL     OW24765   7.214   2.871   1.737
 7664SOL    HW124766   7.272   2.948   1.729
 7664SOL    HW224767   7.216   2.831   1.650
 7665SOL     OW24768   8.315   7.798   1.131
 7665SOL    HW124769   8.376   7.823   1.199
 7665SOL    HW224770   8.314   7.872   1.070
 7666SOL     OW24771  13.483   4.914  11.655
 7666SOL    HW124772  13.518   4.892  11.569
 7666SOL    HW224773  13.410   4.973  11.638
 7667SOL     OW24774   1.821   7.170  12.984
 7667SOL    HW124775   1.775   7.111  12.924
 7667SOL    HW224776   1.828   7.120  13.065
 7668SOL     OW24777  13.820  13.874   0.881
 7668SOL    HW124778  13.892  13.899   0.937
 7668SOL    HW224779  13.741  13.894   0.932
 7669SOL     OW24780  14.779   9.493   3.771
 7669SOL    HW124781  14.769   9.450   3.856
 7669SOL    HW224782  14.712   9.453   3.716
 7670SOL     OW24783  13.339   9.248  11.062
 7670SOL    HW124784  13.376   9.160  11.072
 7670SOL    HW224785  13.408   9.306  11.091
 7671SOL     OW24786  11.546   1.257   0.612
 7671SOL    HW124787  11.486   1.332   0.615
 7671SOL    HW224788  11.601   1.267   0.689
 7672SOL     OW24789   9.060   4.895  12.733
 7672SOL    HW124790   9.106   4.893  12.816
 7672SOL    HW224791   9.036   4.987  12.720
 7673SOL     OW24792   3.463   3.011   9.714
 7673SOL    HW124793   3.371   2.986   9.721
 7673SOL    HW224794   3.511   2.933   9.741
 7674SOL     OW24795   7.329   3.611   1.099
 7674SOL    HW124796   7.416   3.575   1.118
 7674SOL    HW224797   7.289   3.624   1.185
 7675SOL     OW24798   5.650   5.051   1.866
 7675SOL    HW124799   5.593   5.118   1.828
 7675SOL    HW224800   5.690   5.093   1.942
 7676SOL     OW24801   9.243   1.447   2.535
 7676SOL    HW124802   9.218   1.355   2.542
 7676SOL    HW224803   9.245   1.479   2.625
 7677SOL     OW24804   8.785  12.162   5.753
 7677SOL    HW124805   8.747  12.247   5.732
 7677SOL    HW224806   8.733  12.099   5.702
 7678SOL     OW24807  13.187  11.340   4.630
 7678SOL    HW124808  13.251  11.373   4.567
 7678SOL    HW224809  13.180  11.408   4.696
 7679SOL     OW24810   1.869  10.678   2.720
 7679SOL    HW124811   1.867  10.757   2.774
 7679SOL    HW224812   1.845  10.709   2.633
 7680SOL     OW24813  10.888  14.454  14.537
 7680SOL    HW124814  10.953  14.484  14.600
 7680SOL    HW224815  10.862  14.534  14.490
 7681SOL     OW24816   4.514   8.388   0.048
 7681SOL    HW124817   4.458   8.340  14.865
 7681SOL    HW224818   4.541   8.466  14.876
 7682SOL     OW24819   4.119   2.937  12.294
 7682SOL    HW124820   4.025   2.946  12.309
 7682SOL    HW224821   4.135   2.985  12.213
 7683SOL     OW24822  10.609  12.776  10.512
 7683SOL    HW124823  10.563  12.743  10.435
 7683SOL    HW224824  10.579  12.720  10.584
 7684SOL     OW24825  11.052   9.406   0.296
 7684SOL    HW124826  11.035   9.397   0.203
 7684SOL    HW224827  11.098   9.490   0.304
 7685SOL     OW24828   1.943  12.707   5.241
 7685SOL    HW124829   1.875  12.735   5.302
 7685SOL    HW224830   1.916  12.743   5.157
 7686SOL     OW24831  14.806  11.999   6.992
 7686SOL    HW124832  14.860  12.048   7.054
 7686SOL    HW224833  14.718  12.035   7.003
 7687SOL     OW24834  10.638  11.481   0.074
 7687SOL    HW124835  10.660  11.509   0.163
 7687SOL    HW224836  10.555  11.436   0.082
 7688SOL     OW24837  12.699   4.144   0.979
 7688SOL    HW124838  12.701   4.192   0.896
 7688SOL    HW224839  12.607   4.146   1.005
 7689SOL     OW24840  10.517   8.767   1.575
 7689SOL    HW124841  10.593   8.825   1.583
 7689SOL    HW224842  10.488   8.777   1.485
 7690SOL     OW24843   5.975   3.257  10.951
 7690SOL    HW124844   5.934   3.198  11.015
 7690SOL    HW224845   5.905   3.275  10.888
 7691SOL     OW24846   3.703  14.527   1.252
 7691SOL    HW124847   3.746  14.443   1.268
 7691SOL    HW224848   3.609  14.506   1.252
 7692SOL     OW24849  14.244   2.743   2.006
 7692SOL    HW124850  14.337   2.763   2.015
 7692SOL    HW224851  14.201   2.828   2.015
 7693SOL     OW24852   7.312   0.686   1.111
 7693SOL    HW124853   7.393   0.702   1.062
 7693SOL    HW224854   7.334   0.615   1.171
 7694SOL     OW24855   8.582  11.973  13.507
 7694SOL    HW124856   8.637  11.900  13.536
 7694SOL    HW224857   8.639  12.026  13.451
 7695SOL     OW24858   1.893   2.989  10.566
 7695SOL    HW124859   1.874   2.976  10.659
 7695SOL    HW224860   1.953   3.063  10.564
 7696SOL     OW24861  12.148   3.387   5.832
 7696SOL    HW124862  12.116   3.302   5.861
 7696SOL    HW224863  12.071   3.429   5.792
 7697SOL     OW24864   7.061   2.331  12.897
 7697SOL    HW124865   7.109   2.410  12.923
 7697SOL    HW224866   6.969   2.353  12.915
 7698SOL     OW24867   8.159  10.552  10.361
 7698SOL    HW124868   8.141  10.496  10.286
 7698SOL    HW224869   8.110  10.633  10.342
 7699SOL     OW24870  10.293   6.192  10.707
 7699SOL    HW124871  10.375   6.170  10.750
 7699SOL    HW224872  10.317   6.253  10.638
 7700SOL     OW24873  13.095   8.235   7.456
 7700SOL    HW124874  13.120   8.143   7.466
 7700SOL    HW224875  13.016   8.245   7.508
 7701SOL     OW24876   1.108   6.801   1.652
 7701SOL    HW124877   1.156   6.834   1.728
 7701SOL    HW224878   1.147   6.715   1.634
 7702SOL     OW24879   5.865  12.998   8.853
 7702SOL    HW124880   5.960  12.992   8.845
 7702SOL    HW224881   5.850  13.076   8.907
 7703SOL     OW24882   0.284   5.784   1.656
 7703SOL    HW124883   0.208   5.820   1.702
 7703SOL    HW224884   0.357   5.839   1.684
 7704SOL     OW24885   2.331   5.596   8.332
 7704SOL    HW124886   2.296   5.529   8.274
 7704SOL    HW224887   2.301   5.571   8.419
 7705SOL     OW24888   1.016   9.564  12.920
 7705SOL    HW124889   0.979   9.643  12.881
 7705SOL    HW224890   1.001   9.576  13.014
 7706SOL     OW24891   4.368   3.149   6.953
 7706SOL    HW124892   4.436   3.116   7.012
 7706SOL    HW224893   4.413   3.209   6.894
 7707SOL     OW24894   7.401   1.535  11.093
 7707SOL    HW124895   7.470   1.470  11.079
 7707SOL    HW224896   7.424   1.577  11.175
 7708SOL     OW24897   4.572   9.675   8.660
 7708SOL    HW124898   4.644   9.668   8.597
 7708SOL    HW224899   4.578   9.595   8.712
 7709SOL     OW24900   3.436   1.558   8.855
 7709SOL    HW124901   3.380   1.586   8.928
 7709SOL    HW224902   3.472   1.474   8.883
 7710SOL     OW24903   5.547   2.496   5.660
 7710SOL    HW124904   5.551   2.455   5.573
 7710SOL    HW224905   5.593   2.435   5.717
 7711SOL     OW24906  14.674  11.927  11.290
 7711SOL    HW124907  14.761  11.903  11.258
 7711SOL    HW224908  14.645  11.851  11.340
 7712SOL     OW24909   1.372   3.714   0.756
 7712SOL    HW124910   1.397   3.693   0.666
 7712SOL    HW224911   1.309   3.785   0.749
 7713SOL     OW24912   1.757   5.140   7.636
 7713SOL    HW124913   1.853   5.138   7.630
 7713SOL    HW224914   1.728   5.143   7.544
 7714SOL     OW24915  12.389   3.150   5.487
 7714SOL    HW124916  12.383   3.193   5.401
 7714SOL    HW224917  12.473   3.103   5.484
 7715SOL     OW24918  10.107   1.176  10.404
 7715SOL    HW124919  10.113   1.088  10.441
 7715SOL    HW224920  10.156   1.231  10.464
 7716SOL     OW24921   5.823  12.181   8.608
 7716SOL    HW124922   5.727  12.174   8.609
 7716SOL    HW224923   5.845  12.196   8.516
 7717SOL     OW24924   7.463  12.614   9.691
 7717SOL    HW124925   7.557  12.618   9.708
 7717SOL    HW224926   7.451  12.531   9.645
 7718SOL     OW24927  12.117  10.658   5.202
 7718SOL    HW124928  12.179  10.637   5.271
 7718SOL    HW224929  12.038  10.686   5.249
 7719SOL     OW24930   8.518  14.773  14.643
 7719SOL    HW124931   8.501  14.844  14.582
 7719SOL    HW224932   8.432  14.732  14.656
 7720SOL     OW24933  13.379   2.588   0.137
 7720SOL    HW124934  13.410   2.499   0.119
 7720SOL    HW224935  13.355   2.623   0.051
 7721SOL     OW24936  11.984   7.265   0.479
 7721SOL    HW124937  12.040   7.237   0.552
 7721SOL    HW224938  11.924   7.192   0.466
 7722SOL     OW24939   6.993   8.786  14.558
 7722SOL    HW124940   6.954   8.810  14.474
 7722SOL    HW224941   6.921   8.790  14.620
 7723SOL     OW24942   7.430   9.974   1.499
 7723SOL    HW124943   7.507  10.013   1.542
 7723SOL    HW224944   7.465   9.897   1.454
 7724SOL     OW24945   6.412   8.056   4.776
 7724SOL    HW124946   6.384   8.099   4.857
 7724SOL    HW224947   6.454   8.125   4.726
 7725SOL     OW24948   0.836   7.656   7.658
 7725SOL    HW124949   0.900   7.597   7.617
 7725SOL    HW224950   0.755   7.606   7.659
 7726SOL     OW24951  10.909   6.164   5.151
 7726SOL    HW124952  10.952   6.078   5.146
 7726SOL    HW224953  10.816   6.144   5.153
 7727SOL     OW24954   7.986   9.234   4.967
 7727SOL    HW124955   7.983   9.146   5.006
 7727SOL    HW224956   7.897   9.267   4.976
 7728SOL     OW24957   7.572   6.268   9.419
 7728SOL    HW124958   7.499   6.328   9.435
 7728SOL    HW224959   7.539   6.183   9.450
 7729SOL     OW24960   9.475   0.528  13.095
 7729SOL    HW124961   9.564   0.533  13.129
 7729SOL    HW224962   9.486   0.520  13.000
 7730SOL     OW24963  14.600   7.904   5.979
 7730SOL    HW124964  14.631   7.961   6.049
 7730SOL    HW224965  14.505   7.904   5.988
 7731SOL     OW24966   1.870  10.446   9.958
 7731SOL    HW124967   1.823  10.372   9.919
 7731SOL    HW224968   1.871  10.512   9.888
 7732SOL     OW24969  14.869   9.015   5.818
 7732SOL    HW124970   0.002   8.998   5.724
 7732SOL    HW224971  14.793   9.072   5.824
 7733SOL     OW24972  12.757   6.975   3.536
 7733SOL    HW124973  12.739   6.884   3.515
 7733SOL    HW224974  12.746   7.022   3.453
 7734SOL     OW24975   6.135   3.950   7.673
 7734SOL    HW124976   6.213   3.984   7.630
 7734SOL    HW224977   6.168   3.886   7.736
 7735SOL     OW24978   6.397   4.770  11.802
 7735SOL    HW124979   6.458   4.697  11.814
 7735SOL    HW224980   6.448   4.848  11.821
 7736SOL     OW24981   3.985   1.053  14.597
 7736SOL    HW124982   3.982   0.957  14.590
 7736SOL    HW224983   3.895   1.081  14.581
 7737SOL     OW24984   8.109   4.225   7.561
 7737SOL    HW124985   8.134   4.227   7.469
 7737SOL    HW224986   8.080   4.135   7.575
 7738SOL     OW24987  11.170  14.021   6.577
 7738SOL    HW124988  11.109  14.084   6.616
 7738SOL    HW224989  11.208  14.068   6.503
 7739SOL     OW24990   7.479  11.585   7.829
 7739SOL    HW124991   7.409  11.641   7.863
 7739SOL    HW224992   7.499  11.621   7.743
 7740SOL     OW24993   3.772   0.338  11.839
 7740SOL    HW124994   3.857   0.354  11.799
 7740SOL    HW224995   3.752   0.418  11.887
 7741SOL     OW24996  10.323  11.651   5.058
 7741SOL    HW124997  10.344  11.566   5.097
 7741SOL    HW224998  10.307  11.632   4.966
 7742SOL     OW24999  11.015   5.679   2.272
 7742SOL    HW125000  10.974   5.743   2.215
 7742SOL    HW225001  11.098   5.719   2.298
 7743SOL     OW25002  10.564   6.574   0.331
 7743SOL    HW125003  10.646   6.536   0.360
 7743SOL    HW225004  10.585   6.616   0.247
 7744SOL     OW25005   1.884  10.536  11.608
 7744SOL    HW125006   1.909  10.550  11.517
 7744SOL    HW225007   1.857  10.623  11.639
 7745SOL     OW25008  10.158  14.867   4.871
 7745SOL    HW125009  10.166   0.063   4.931
 7745SOL    HW225010  10.243  14.824   4.873
 7746SOL     OW25011   1.222   9.316  14.265
 7746SOL    HW125012   1.197   9.233  14.223
 7746SOL    HW225013   1.312   9.301  14.295
 7747SOL     OW25014  10.888  12.038  11.511
 7747SOL    HW125015  10.890  12.131  11.489
 7747SOL    HW225016  10.910  12.035  11.604
 7748SOL     OW25017  14.860   6.184   0.118
 7748SOL    HW125018  14.826   6.106   0.163
 7748SOL    HW225019  14.821   6.258   0.165
 7749SOL     OW25020   3.346  14.852   0.264
 7749SOL    HW125021   3.402  14.869   0.340
 7749SOL    HW225022   3.360   0.050   0.206
 7750SOL     OW25023   0.926   4.527   7.936
 7750SOL    HW125024   0.854   4.482   7.892
 7750SOL    HW225025   0.975   4.569   7.865
 7751SOL     OW25026   9.017   1.673  10.323
 7751SOL    HW125027   8.939   1.709  10.364
 7751SOL    HW225028   9.089   1.725  10.359
 7752SOL     OW25029   2.733   0.707  10.210
 7752SOL    HW125030   2.764   0.779  10.156
 7752SOL    HW225031   2.660   0.744  10.259
 7753SOL     OW25032   3.821  14.335   1.779
 7753SOL    HW125033   3.777  14.413   1.812
 7753SOL    HW225034   3.883  14.312   1.848
 7754SOL     OW25035   3.368   7.824  14.415
 7754SOL    HW125036   3.373   7.876  14.335
 7754SOL    HW225037   3.459   7.801  14.434
 7755SOL     OW25038   2.681   3.708  13.393
 7755SOL    HW125039   2.766   3.703  13.349
 7755SOL    HW225040   2.682   3.636  13.455
 7756SOL     OW25041   0.398   1.549   2.861
 7756SOL    HW125042   0.340   1.611   2.816
 7756SOL    HW225043   0.451   1.511   2.791
 7757SOL     OW25044  12.713   4.840   1.488
 7757SOL    HW125045  12.705   4.930   1.520
 7757SOL    HW225046  12.769   4.847   1.411
 7758SOL     OW25047  10.095   6.470   6.169
 7758SOL    HW125048  10.166   6.489   6.230
 7758SOL    HW225049  10.016   6.497   6.216
 7759SOL     OW25050  14.217   0.092  13.737
 7759SOL    HW125051  14.297   0.044  13.757
 7759SOL    HW225052  14.179   0.045  13.663
 7760SOL     OW25053   0.190   1.607  10.427
 7760SOL    HW125054   0.277   1.574  10.403
 7760SOL    HW225055   0.202   1.644  10.514
 7761SOL     OW25056   5.304  13.928   8.569
 7761SOL    HW125057   5.250  14.005   8.589
 7761SOL    HW225058   5.269  13.896   8.485
 7762SOL     OW25059   6.085  13.050  12.823
 7762SOL    HW125060   6.112  13.140  12.839
 7762SOL    HW225061   6.142  13.019  12.753
 7763SOL     OW25062  13.296  11.222   0.191
 7763SOL    HW125063  13.253  11.137   0.203
 7763SOL    HW225064  13.231  11.275   0.144
 7764SOL     OW25065  13.729   8.737  11.026
 7764SOL    HW125066  13.819   8.743  11.057
 7764SOL    HW225067  13.719   8.811  10.966
 7765SOL     OW25068  12.143   8.676   7.082
 7765SOL    HW125069  12.081   8.714   7.019
 7765SOL    HW225070  12.218   8.735   7.080
 7766SOL     OW25071   7.594   1.227   2.643
 7766SOL    HW125072   7.626   1.307   2.602
 7766SOL    HW225073   7.502   1.220   2.614
 7767SOL     OW25074   4.936   8.150  13.792
 7767SOL    HW125075   4.918   8.192  13.708
 7767SOL    HW225076   4.903   8.060  13.781
 7768SOL     OW25077   5.765  12.237   5.351
 7768SOL    HW125078   5.824  12.201   5.285
 7768SOL    HW225079   5.717  12.307   5.304
 7769SOL     OW25080   7.387   2.460   1.781
 7769SOL    HW125081   7.380   2.393   1.849
 7769SOL    HW225082   7.442   2.420   1.714
 7770SOL     OW25083  11.776  12.215   6.344
 7770SOL    HW125084  11.861  12.241   6.309
 7770SOL    HW225085  11.769  12.122   6.324
 7771SOL     OW25086   1.813  11.746  10.640
 7771SOL    HW125087   1.835  11.719  10.729
 7771SOL    HW225088   1.740  11.807  10.651
 7772SOL     OW25089   0.281   2.922  13.016
 7772SOL    HW125090   0.300   2.828  13.020
 7772SOL    HW225091   0.188   2.929  13.039
 7773SOL     OW25092   9.881  10.713   7.214
 7773SOL    HW125093   9.826  10.640   7.242
 7773SOL    HW225094   9.971  10.681   7.223
 7774SOL     OW25095   2.481  14.155  10.676
 7774SOL    HW125096   2.393  14.123  10.693
 7774SOL    HW225097   2.517  14.175  10.762
 7775SOL     OW25098  10.468  10.295  14.571
 7775SOL    HW125099  10.546  10.274  14.622
 7775SOL    HW225100  10.407  10.333  14.634
 7776SOL     OW25101  11.825   5.018   4.944
 7776SOL    HW125102  11.780   5.036   4.862
 7776SOL    HW225103  11.772   5.063   5.011
 7777SOL     OW25104   9.078   8.432   3.243
 7777SOL    HW125105   9.123   8.347   3.249
 7777SOL    HW225106   9.034   8.443   3.327
 7778SOL     OW25107   0.816   1.026  12.591
 7778SOL    HW125108   0.900   0.980  12.583
 7778SOL    HW225109   0.799   1.030  12.685
 7779SOL     OW25110   9.926   8.825  14.263
 7779SOL    HW125111   9.959   8.739  14.239
 7779SOL    HW225112   9.863   8.848  14.195
 7780SOL     OW25113  12.514   9.738  11.770
 7780SOL    HW125114  12.519   9.645  11.793
 7780SOL    HW225115  12.585   9.751  11.707
 7781SOL     OW25116   2.740  10.712   5.869
 7781SOL    HW125117   2.684  10.635   5.880
 7781SOL    HW225118   2.783  10.724   5.954
 7782SOL     OW25119   2.212  11.448   9.497
 7782SOL    HW125120   2.279  11.384   9.472
 7782SOL    HW225121   2.261  11.520   9.538
 7783SOL     OW25122  12.464   9.427  14.325
 7783SOL    HW125123  12.394   9.404  14.386
 7783SOL    HW225124  12.422   9.425  14.239
 7784SOL     OW25125  12.880  13.593   5.201
 7784SOL    HW125126  12.845  13.656   5.264
 7784SOL    HW225127  12.831  13.513   5.216
 7785SOL     OW25128   1.845   5.956  10.971
 7785SOL    HW125129   1.822   5.901  10.897
 7785SOL    HW225130   1.923   5.915  11.009
 7786SOL     OW25131   2.794   6.817   1.516
 7786SOL    HW125132   2.820   6.856   1.432
 7786SOL    HW225133   2.758   6.890   1.566
 7787SOL     OW25134  12.519  14.372   9.767
 7787SOL    HW125135  12.458  14.428   9.720
 7787SOL    HW225136  12.568  14.432   9.824
 7788SOL     OW25137  13.067   4.904   5.040
 7788SOL    HW125138  13.023   4.852   5.108
 7788SOL    HW225139  13.153   4.864   5.032
 7789SOL     OW25140  10.217   9.866   0.126
 7789SOL    HW125141  10.142   9.925   0.116
 7789SOL    HW225142  10.178   9.780   0.142
 7790SOL     OW25143  10.590   3.433   8.662
 7790SOL    HW125144  10.516   3.413   8.605
 7790SOL    HW225145  10.664   3.389   8.621
 7791SOL     OW25146   1.974  12.787  12.045
 7791SOL    HW125147   1.903  12.768  12.106
 7791SOL    HW225148   1.942  12.755  11.961
 7792SOL     OW25149   4.980   5.486   2.226
 7792SOL    HW125150   4.987   5.413   2.287
 7792SOL    HW225151   5.047   5.468   2.159
 7793SOL     OW25152  11.383   7.295  13.043
 7793SOL    HW125153  11.355   7.284  13.134
 7793SOL    HW225154  11.316   7.249  12.991
 7794SOL     OW25155   2.891  13.377  12.346
 7794SOL    HW125156   2.954  13.306  12.358
 7794SOL    HW225157   2.881  13.415  12.434
 7795SOL     OW25158   0.752   8.698   1.001
 7795SOL    HW125159   0.828   8.674   0.948
 7795SOL    HW225160   0.771   8.786   1.033
 7796SOL     OW25161  10.042  14.131  14.455
 7796SOL    HW125162  10.094  14.096  14.527
 7796SOL    HW225163  10.106  14.165  14.392
 7797SOL     OW25164   0.308   3.926   6.826
 7797SOL    HW125165   0.272   3.988   6.890
 7797SOL    HW225166   0.400   3.918   6.850
 7798SOL     OW25167  12.854   2.686   7.554
 7798SOL    HW125168  12.888   2.658   7.469
 7798SOL    HW225169  12.794   2.616   7.579
 7799SOL     OW25170   1.373   0.558  14.108
 7799SOL    HW125171   1.359   0.506  14.029
 7799SOL    HW225172   1.388   0.647  14.076
 7800SOL     OW25173  14.214  14.635   5.463
 7800SOL    HW125174  14.153  14.561   5.458
 7800SOL    HW225175  14.175  14.703   5.409
 7801SOL     OW25176  10.359   0.390   3.284
 7801SOL    HW125177  10.419   0.430   3.345
 7801SOL    HW225178  10.327   0.462   3.230
 7802SOL     OW25179   3.761  14.114   6.752
 7802SOL    HW125180   3.814  14.041   6.721
 7802SOL    HW225181   3.798  14.191   6.708
 7803SOL     OW25182  14.470   7.641   7.683
 7803SOL    HW125183  14.465   7.649   7.588
 7803SOL    HW225184  14.456   7.549   7.701
 7804SOL     OW25185   6.286   4.197   3.502
 7804SOL    HW125186   6.241   4.137   3.562
 7804SOL    HW225187   6.309   4.272   3.557
 7805SOL     OW25188   3.715   4.458  11.483
 7805SOL    HW125189   3.627   4.484  11.457
 7805SOL    HW225190   3.757   4.428  11.402
 7806SOL     OW25191   7.095   2.895   3.446
 7806SOL    HW125192   7.118   2.802   3.456
 7806SOL    HW225193   7.003   2.900   3.473
 7807SOL     OW25194   2.988   6.646   5.889
 7807SOL    HW125195   2.941   6.663   5.807
 7807SOL    HW225196   2.941   6.697   5.955
 7808SOL     OW25197  14.362   4.445   7.468
 7808SOL    HW125198  14.369   4.452   7.564
 7808SOL    HW225199  14.349   4.352   7.452
 7809SOL     OW25200  13.864   6.480   7.370
 7809SOL    HW125201  13.953   6.445   7.363
 7809SOL    HW225202  13.871   6.570   7.339
 7810SOL     OW25203   4.444   4.211   8.395
 7810SOL    HW125204   4.348   4.217   8.392
 7810SOL    HW225205   4.463   4.178   8.482
 7811SOL     OW25206   1.950   3.566   2.097
 7811SOL    HW125207   1.886   3.622   2.142
 7811SOL    HW225208   1.901   3.529   2.024
 7812SOL     OW25209   9.287  12.033   6.354
 7812SOL    HW125210   9.341  12.099   6.399
 7812SOL    HW225211   9.210  12.082   6.325
 7813SOL     OW25212   8.948   0.343   1.675
 7813SOL    HW125213   8.973   0.343   1.583
 7813SOL    HW225214   9.028   0.318   1.721
 7814SOL     OW25215   7.411   3.607   3.724
 7814SOL    HW125216   7.353   3.532   3.731
 7814SOL    HW225217   7.498   3.569   3.710
 7815SOL     OW25218   0.235   2.582  11.613
 7815SOL    HW125219   0.226   2.623  11.699
 7815SOL    HW225220   0.312   2.624  11.575
 7816SOL     OW25221   3.618   1.881   8.622
 7816SOL    HW125222   3.575   1.965   8.637
 7816SOL    HW225223   3.552   1.827   8.578
 7817SOL     OW25224   8.766   5.743   0.193
 7817SOL    HW125225   8.829   5.794   0.245
 7817SOL    HW225226   8.820   5.698   0.129
 7818SOL     OW25227   6.291   4.576  14.708
 7818SOL    HW125228   6.238   4.578  14.628
 7818SOL    HW225229   6.312   4.668  14.724
 7819SOL     OW25230   8.183   2.318   6.736
 7819SOL    HW125231   8.182   2.413   6.731
 7819SOL    HW225232   8.268   2.296   6.773
 7820SOL     OW25233   8.853  10.429   9.093
 7820SOL    HW125234   8.802  10.422   9.012
 7820SOL    HW225235   8.900  10.345   9.099
 7821SOL     OW25236  11.821   8.272  14.137
 7821SOL    HW125237  11.762   8.338  14.175
 7821SOL    HW225238  11.828   8.204  14.204
 7822SOL     OW25239   5.140  11.859   6.640
 7822SOL    HW125240   5.136  11.914   6.718
 7822SOL    HW225241   5.053  11.821   6.632
 7823SOL     OW25242   7.200   0.327  11.130
 7823SOL    HW125243   7.287   0.300  11.101
 7823SOL    HW225244   7.205   0.327  11.226
 7824SOL     OW25245   5.501   2.684   3.373
 7824SOL    HW125246   5.571   2.676   3.309
 7824SOL    HW225247   5.466   2.595   3.383
 7825SOL     OW25248   0.582   5.772  11.955
 7825SOL    HW125249   0.663   5.721  11.953
 7825SOL    HW225250   0.513   5.707  11.952
 7826SOL     OW25251   5.162   8.199   5.396
 7826SOL    HW125252   5.230   8.151   5.348
 7826SOL    HW225253   5.176   8.175   5.487
 7827SOL     OW25254   8.049   2.687   9.237
 7827SOL    HW125255   8.129   2.658   9.193
 7827SOL    HW225256   8.012   2.607   9.275
 7828SOL     OW25257  13.640   6.967   4.026
 7828SOL    HW125258  13.726   7.009   4.036
 7828SOL    HW225259  13.654   6.901   3.959
 7829SOL     OW25260  13.856   1.862  10.704
 7829SOL    HW125261  13.823   1.786  10.656
 7829SOL    HW225262  13.812   1.937  10.664
 7830SOL     OW25263   9.614   3.415   8.504
 7830SOL    HW125264   9.649   3.490   8.551
 7830SOL    HW225265   9.679   3.347   8.516
 7831SOL     OW25266   7.841   9.428  12.970
 7831SOL    HW125267   7.799   9.342  12.973
 7831SOL    HW225268   7.795   9.475  12.900
 7832SOL     OW25269  11.378   1.205   2.678
 7832SOL    HW125270  11.326   1.271   2.726
 7832SOL    HW225271  11.389   1.134   2.741
 7833SOL     OW25272  13.033   6.425  13.611
 7833SOL    HW125273  13.074   6.484  13.548
 7833SOL    HW225274  12.976   6.482  13.664
 7834SOL     OW25275   0.870  12.283   9.655
 7834SOL    HW125276   0.786  12.330   9.658
 7834SOL    HW225277   0.893  12.282   9.562
 7835SOL     OW25278  11.541  12.217  12.969
 7835SOL    HW125279  11.535  12.244  13.060
 7835SOL    HW225280  11.513  12.126  12.969
 7836SOL     OW25281   6.440   9.877   5.167
 7836SOL    HW125282   6.456   9.970   5.150
 7836SOL    HW225283   6.525   9.842   5.194
 7837SOL     OW25284   0.823  11.532  13.598
 7837SOL    HW125285   0.807  11.497  13.511
 7837SOL    HW225286   0.907  11.496  13.624
 7838SOL     OW25287   7.849   4.479  13.706
 7838SOL    HW125288   7.826   4.387  13.692
 7838SOL    HW225289   7.765   4.522  13.721
 7839SOL     OW25290   3.689   8.000   3.374
 7839SOL    HW125291   3.769   7.996   3.426
 7839SOL    HW225292   3.663   8.092   3.376
 7840SOL     OW25293   9.781  10.577  13.376
 7840SOL    HW125294   9.769  10.483  13.384
 7840SOL    HW225295   9.860  10.596  13.426
 7841SOL     OW25296  11.180   8.591   5.793
 7841SOL    HW125297  11.149   8.570   5.705
 7841SOL    HW225298  11.259   8.643   5.780
 7842SOL     OW25299   8.046  12.203  10.385
 7842SOL    HW125300   8.093  12.283  10.411
 7842SOL    HW225301   8.058  12.197  10.290
 7843SOL     OW25302   1.835  14.153  14.556
 7843SOL    HW125303   1.780  14.077  14.532
 7843SOL    HW225304   1.899  14.159  14.485
 7844SOL     OW25305  12.977  13.247   2.393
 7844SOL    HW125306  12.966  13.202   2.477
 7844SOL    HW225307  12.926  13.194   2.331
 7845SOL     OW25308   7.406   9.229   7.440
 7845SOL    HW125309   7.460   9.153   7.418
 7845SOL    HW225310   7.425   9.293   7.372
 7846SOL     OW25311   3.153   2.136  14.057
 7846SOL    HW125312   3.134   2.154  13.965
 7846SOL    HW225313   3.139   2.042  14.067
 7847SOL     OW25314   9.155   5.463   5.317
 7847SOL    HW125315   9.193   5.381   5.285
 7847SOL    HW225316   9.206   5.532   5.274
 7848SOL     OW25317   8.915   0.483  12.535
 7848SOL    HW125318   8.906   0.464  12.629
 7848SOL    HW225319   8.841   0.438  12.494
 7849SOL     OW25320   7.278   2.498   8.972
 7849SOL    HW125321   7.344   2.447   8.924
 7849SOL    HW225322   7.326   2.575   9.003
 7850SOL     OW25323  12.198   5.204   4.828
 7850SOL    HW125324  12.241   5.256   4.896
 7850SOL    HW225325  12.105   5.223   4.839
 7851SOL     OW25326   3.287   3.757  12.969
 7851SOL    HW125327   3.294   3.667  12.936
 7851SOL    HW225328   3.373   3.775  13.007
 7852SOL     OW25329   7.797   1.746   0.661
 7852SOL    HW125330   7.835   1.801   0.730
 7852SOL    HW225331   7.804   1.657   0.695
 7853SOL     OW25332   4.544   1.263  10.198
 7853SOL    HW125333   4.573   1.330  10.137
 7853SOL    HW225334   4.449   1.260  10.186
 7854SOL     OW25335   8.078  10.836  10.322
 7854SOL    HW125336   8.088  10.926  10.354
 7854SOL    HW225337   8.144  10.829  10.253
 7855SOL     OW25338   2.230  11.559   5.487
 7855SOL    HW125339   2.236  11.605   5.570
 7855SOL    HW225340   2.137  11.563   5.463
 7856SOL     OW25341  10.832   8.853   4.104
 7856SOL    HW125342  10.896   8.895   4.162
 7856SOL    HW225343  10.774   8.925   4.077
 7857SOL     OW25344   8.317   6.152  12.805
 7857SOL    HW125345   8.323   6.067  12.849
 7857SOL    HW225346   8.323   6.216  12.875
 7858SOL     OW25347  13.571  13.601   7.697
 7858SOL    HW125348  13.620  13.592   7.616
 7858SOL    HW225349  13.539  13.513   7.717
 7859SOL     OW25350   4.734  11.304   9.112
 7859SOL    HW125351   4.796  11.295   9.184
 7859SOL    HW225352   4.786  11.335   9.039
 7860SOL     OW25353   6.086   7.573   5.104
 7860SOL    HW125354   6.076   7.609   5.193
 7860SOL    HW225355   6.050   7.641   5.047
 7861SOL     OW25356   3.976   8.384   9.582
 7861SOL    HW125357   3.892   8.343   9.605
 7861SOL    HW225358   4.041   8.315   9.595
 7862SOL     OW25359  14.498  13.397   9.163
 7862SOL    HW125360  14.526  13.319   9.116
 7862SOL    HW225361  14.445  13.445   9.100
 7863SOL     OW25362   2.556   5.016  10.915
 7863SOL    HW125363   2.536   4.941  10.970
 7863SOL    HW225364   2.590   4.978  10.834
 7864SOL     OW25365   4.891   6.705   1.341
 7864SOL    HW125366   4.978   6.686   1.375
 7864SOL    HW225367   4.871   6.793   1.374
 7865SOL     OW25368   4.286   4.324   3.933
 7865SOL    HW125369   4.289   4.313   4.028
 7865SOL    HW225370   4.246   4.409   3.920
 7866SOL     OW25371   0.139   8.658   4.327
 7866SOL    HW125372   0.106   8.624   4.410
 7866SOL    HW225373   0.232   8.675   4.343
 7867SOL     OW25374  10.734   3.988   5.316
 7867SOL    HW125375  10.802   3.930   5.282
 7867SOL    HW225376  10.726   3.963   5.408
 7868SOL     OW25377   3.464   4.429   1.640
 7868SOL    HW125378   3.373   4.429   1.610
 7868SOL    HW225379   3.502   4.508   1.601
 7869SOL     OW25380   6.766  11.626   3.700
 7869SOL    HW125381   6.790  11.713   3.667
 7869SOL    HW225382   6.825  11.611   3.773
 7870SOL     OW25383   5.259  13.012   3.262
 7870SOL    HW125384   5.344  13.044   3.235
 7870SOL    HW225385   5.204  13.021   3.184
 7871SOL     OW25386   6.489  14.626  13.566
 7871SOL    HW125387   6.405  14.593  13.595
 7871SOL    HW225388   6.546  14.549  13.563
 7872SOL     OW25389  13.899   6.426   8.618
 7872SOL    HW125390  13.855   6.355   8.665
 7872SOL    HW225391  13.890   6.502   8.676
 7873SOL     OW25392   2.282   3.494  11.422
 7873SOL    HW125393   2.329   3.442  11.357
 7873SOL    HW225394   2.293   3.447  11.504
 7874SOL     OW25395   7.867  11.240   8.373
 7874SOL    HW125396   7.828  11.153   8.385
 7874SOL    HW225397   7.877  11.273   8.462
 7875SOL     OW25398   8.167   0.784   5.761
 7875SOL    HW125399   8.234   0.825   5.816
 7875SOL    HW225400   8.211   0.768   5.678
 7876SOL     OW25401   8.195   3.226   3.216
 7876SOL    HW125402   8.191   3.130   3.215
 7876SOL    HW225403   8.126   3.252   3.276
 7877SOL     OW25404   6.821   0.822   8.028
 7877SOL    HW125405   6.854   0.732   8.029
 7877SOL    HW225406   6.878   0.868   8.089
 7878SOL     OW25407   9.333  14.644   1.757
 7878SOL    HW125408   9.387  14.723   1.758
 7878SOL    HW225409   9.382  14.583   1.702
 7879SOL     OW25410   2.066   3.129   2.113
 7879SOL    HW125411   2.136   3.136   2.048
 7879SOL    HW225412   2.084   3.048   2.160
 7880SOL     OW25413   8.397   7.817   2.979
 7880SOL    HW125414   8.443   7.896   2.953
 7880SOL    HW225415   8.457   7.772   3.038
 7881SOL     OW25416   4.362   5.649   4.113
 7881SOL    HW125417   4.322   5.728   4.151
 7881SOL    HW225418   4.387   5.596   4.188
 7882SOL     OW25419  12.683   2.684   3.270
 7882SOL    HW125420  12.731   2.605   3.298
 7882SOL    HW225421  12.685   2.741   3.347
 7883SOL     OW25422   7.106   7.326   5.681
 7883SOL    HW125423   7.196   7.317   5.650
 7883SOL    HW225424   7.107   7.286   5.768
 7884SOL     OW25425   9.523   1.534   2.018
 7884SOL    HW125426   9.475   1.489   1.948
 7884SOL    HW225427   9.601   1.480   2.032
 7885SOL     OW25428   8.139  10.426  13.426
 7885SOL    HW125429   8.076  10.398  13.359
 7885SOL    HW225430   8.209  10.468  13.377
 7886SOL     OW25431   7.656   6.522  10.285
 7886SOL    HW125432   7.670   6.513  10.191
 7886SOL    HW225433   7.743   6.537  10.321
 7887SOL     OW25434  11.849  14.130   1.165
 7887SOL    HW125435  11.871  14.178   1.086
 7887SOL    HW225436  11.920  14.066   1.175
 7888SOL     OW25437  10.409   5.745  10.779
 7888SOL    HW125438  10.323   5.733  10.739
 7888SOL    HW225439  10.462   5.787  10.711
 7889SOL     OW25440   2.734   3.158  14.300
 7889SOL    HW125441   2.827   3.174  14.318
 7889SOL    HW225442   2.688   3.199  14.373
 7890SOL     OW25443   3.176   8.794   5.168
 7890SOL    HW125444   3.111   8.830   5.228
 7890SOL    HW225445   3.191   8.863   5.104
 7891SOL     OW25446   5.813  11.766  11.377
 7891SOL    HW125447   5.904  11.754  11.403
 7891SOL    HW225448   5.765  11.696  11.421
 7892SOL     OW25449   0.274   7.164   5.841
 7892SOL    HW125450   0.340   7.124   5.784
 7892SOL    HW225451   0.228   7.226   5.784
 7893SOL     OW25452   0.111   7.446   1.460
 7893SOL    HW125453   0.135   7.483   1.545
 7893SOL    HW225454   0.091   7.522   1.405
 7894SOL     OW25455   1.069   5.460  13.173
 7894SOL    HW125456   1.155   5.427  13.201
 7894SOL    HW225457   1.033   5.503  13.251
 7895SOL     OW25458   3.141   6.943   0.429
 7895SOL    HW125459   3.117   7.035   0.419
 7895SOL    HW225460   3.235   6.941   0.414
 7896SOL     OW25461  11.027   3.297   8.485
 7896SOL    HW125462  11.108   3.278   8.436
 7896SOL    HW225463  10.960   3.304   8.417
 7897SOL     OW25464  11.555   5.720   9.403
 7897SOL    HW125465  11.637   5.698   9.446
 7897SOL    HW225466  11.547   5.657   9.331
 7898SOL     OW25467   3.853   3.782  11.665
 7898SOL    HW125468   3.823   3.814  11.750
 7898SOL    HW225469   3.859   3.687  11.676
 7899SOL     OW25470  11.096  12.160  12.267
 7899SOL    HW125471  11.104  12.211  12.348
 7899SOL    HW225472  11.031  12.092  12.288
 7900SOL     OW25473   1.613   1.362   5.071
 7900SOL    HW125474   1.690   1.409   5.038
 7900SOL    HW225475   1.541   1.392   5.015
 7901SOL     OW25476  13.339   6.558   8.281
 7901SOL    HW125477  13.266   6.612   8.249
 7901SOL    HW225478  13.360   6.596   8.366
 7902SOL     OW25479  11.361  13.864   4.841
 7902SOL    HW125480  11.383  13.870   4.934
 7902SOL    HW225481  11.318  13.948   4.821
 7903SOL     OW25482   1.176   4.203   6.904
 7903SOL    HW125483   1.121   4.124   6.907
 7903SOL    HW225484   1.117   4.275   6.925
 7904SOL     OW25485   0.296   4.866   0.419
 7904SOL    HW125486   0.373   4.845   0.366
 7904SOL    HW225487   0.285   4.960   0.407
 7905SOL     OW25488   3.484  14.398   3.721
 7905SOL    HW125489   3.490  14.467   3.787
 7905SOL    HW225490   3.480  14.317   3.772
 7906SOL     OW25491   4.470   9.357   3.236
 7906SOL    HW125492   4.488   9.315   3.152
 7906SOL    HW225493   4.391   9.409   3.220
 7907SOL     OW25494   5.421   7.040   0.849
 7907SOL    HW125495   5.383   7.127   0.860
 7907SOL    HW225496   5.379   6.986   0.916
 7908SOL     OW25497  13.152   9.541  14.468
 7908SOL    HW125498  13.072   9.516  14.516
 7908SOL    HW225499  13.133   9.629  14.435
 7909SOL     OW25500  12.151   8.562  11.678
 7909SOL    HW125501  12.088   8.634  11.688
 7909SOL    HW225502  12.207   8.568  11.756
 7910SOL     OW25503   6.240  12.256   1.631
 7910SOL    HW125504   6.308  12.204   1.588
 7910SOL    HW225505   6.188  12.291   1.558
 7911SOL     OW25506   9.388  12.598   1.562
 7911SOL    HW125507   9.424  12.671   1.511
 7911SOL    HW225508   9.419  12.519   1.518
 7912SOL     OW25509   7.291  14.392   7.074
 7912SOL    HW125510   7.213  14.436   7.109
 7912SOL    HW225511   7.309  14.437   6.992
 7913SOL     OW25512   2.572   9.871   6.969
 7913SOL    HW125513   2.574   9.785   6.928
 7913SOL    HW225514   2.497   9.915   6.930
 7914SOL     OW25515  13.370   5.946   7.195
 7914SOL    HW125516  13.446   5.913   7.243
 7914SOL    HW225517  13.316   5.868   7.180
 7915SOL     OW25518   1.731  14.494  11.155
 7915SOL    HW125519   1.642  14.487  11.190
 7915SOL    HW225520   1.728  14.449  11.071
 7916SOL     OW25521   5.180   6.253  10.269
 7916SOL    HW125522   5.137   6.338  10.264
 7916SOL    HW225523   5.176   6.219  10.180
 7917SOL     OW25524  13.651   6.529   8.750
 7917SOL    HW125525  13.639   6.559   8.660
 7917SOL    HW225526  13.704   6.597   8.792
 7918SOL     OW25527   7.274   7.289   7.600
 7918SOL    HW125528   7.289   7.316   7.691
 7918SOL    HW225529   7.317   7.204   7.593
 7919SOL     OW25530  10.565   8.285   9.022
 7919SOL    HW125531  10.584   8.249   8.936
 7919SOL    HW225532  10.481   8.246   9.047
 7920SOL     OW25533  13.685   2.723  13.559
 7920SOL    HW125534  13.686   2.794  13.624
 7920SOL    HW225535  13.731   2.651  13.602
 7921SOL     OW25536  12.530   2.974   6.500
 7921SOL    HW125537  12.613   2.939   6.469
 7921SOL    HW225538  12.473   2.971   6.423
 7922SOL     OW25539   0.254   0.575   1.810
 7922SOL    HW125540   0.312   0.603   1.881
 7922SOL    HW225541   0.203   0.653   1.789
 7923SOL     OW25542   2.384   6.053   0.161
 7923SOL    HW125543   2.448   6.107   0.114
 7923SOL    HW225544   2.308   6.109   0.171
 7924SOL     OW25545   9.941   6.463   0.541
 7924SOL    HW125546  10.030   6.499   0.539
 7924SOL    HW225547   9.901   6.492   0.460
 7925SOL     OW25548   7.949  13.066   7.513
 7925SOL    HW125549   7.957  13.131   7.583
 7925SOL    HW225550   7.857  13.069   7.488
 7926SOL     OW25551   7.014   7.418   9.871
 7926SOL    HW125552   7.010   7.465   9.788
 7926SOL    HW225553   7.106   7.395   9.881
 7927SOL     OW25554  14.281   3.005   1.654
 7927SOL    HW125555  14.343   3.022   1.583
 7927SOL    HW225556  14.336   2.990   1.731
 7928SOL     OW25557   2.414   3.301   8.041
 7928SOL    HW125558   2.466   3.374   8.007
 7928SOL    HW225559   2.467   3.223   8.024
 7929SOL     OW25560   7.522   6.447   2.934
 7929SOL    HW125561   7.579   6.395   2.990
 7929SOL    HW225562   7.442   6.395   2.926
 7930SOL     OW25563   7.481  11.067   2.174
 7930SOL    HW125564   7.475  11.154   2.212
 7930SOL    HW225565   7.445  11.009   2.242
 7931SOL     OW25566  11.837  12.705   2.159
 7931SOL    HW125567  11.760  12.680   2.108
 7931SOL    HW225568  11.829  12.800   2.170
 7932SOL     OW25569   7.326   1.230   9.456
 7932SOL    HW125570   7.334   1.292   9.383
 7932SOL    HW225571   7.236   1.240   9.487
 7933SOL     OW25572   7.709   8.934  13.160
 7933SOL    HW125573   7.795   8.923  13.119
 7933SOL    HW225574   7.665   8.850  13.149
 7934SOL     OW25575   4.333   1.623   6.069
 7934SOL    HW125576   4.297   1.645   6.155
 7934SOL    HW225577   4.413   1.675   6.062
 7935SOL     OW25578  12.131   1.110   6.730
 7935SOL    HW125579  12.167   1.109   6.641
 7935SOL    HW225580  12.061   1.045   6.728
 7936SOL     OW25581   8.758  10.528   9.461
 7936SOL    HW125582   8.771  10.436   9.485
 7936SOL    HW225583   8.718  10.568   9.538
 7937SOL     OW25584  12.906   9.787   8.055
 7937SOL    HW125585  12.965   9.861   8.038
 7937SOL    HW225586  12.915   9.769   8.148
 7938SOL     OW25587   7.993   9.534  11.497
 7938SOL    HW125588   7.966   9.443  11.488
 7938SOL    HW225589   7.989   9.569  11.408
 7939SOL     OW25590   0.434   4.140   5.693
 7939SOL    HW125591   0.443   4.208   5.760
 7939SOL    HW225592   0.377   4.179   5.627
 7940SOL     OW25593   0.024  12.515   4.819
 7940SOL    HW125594  14.834  12.461   4.860
 7940SOL    HW225595   0.000  12.517   4.726
 7941SOL     OW25596  11.379   5.044   9.896
 7941SOL    HW125597  11.369   5.117   9.836
 7941SOL    HW225598  11.389   5.084   9.982
 7942SOL     OW25599   3.156  12.678   8.344
 7942SOL    HW125600   3.205  12.617   8.289
 7942SOL    HW225601   3.064  12.660   8.325
 7943SOL     OW25602   3.215   4.954   0.013
 7943SOL    HW125603   3.307   4.977   0.022
 7943SOL    HW225604   3.171   4.998   0.086
 7944SOL     OW25605   6.456   2.155   0.252
 7944SOL    HW125606   6.528   2.152   0.315
 7944SOL    HW225607   6.470   2.080   0.195
 7945SOL     OW25608   7.118   8.634   1.300
 7945SOL    HW125609   7.116   8.539   1.288
 7945SOL    HW225610   7.030   8.657   1.331
 7946SOL     OW25611   9.767   1.455   9.743
 7946SOL    HW125612   9.854   1.464   9.704
 7946SOL    HW225613   9.730   1.377   9.703
 7947SOL     OW25614   1.291   3.536  14.568
 7947SOL    HW125615   1.361   3.541  14.633
 7947SOL    HW225616   1.335   3.538  14.484
 7948SOL     OW25617   3.976   1.148  11.901
 7948SOL    HW125618   3.984   1.181  11.811
 7948SOL    HW225619   3.958   1.054  11.890
 7949SOL     OW25620  13.993   6.687  12.423
 7949SOL    HW125621  14.017   6.675  12.515
 7949SOL    HW225622  14.071   6.726  12.384
 7950SOL     OW25623   1.132   7.039  11.410
 7950SOL    HW125624   1.119   6.965  11.469
 7950SOL    HW225625   1.219   7.074  11.434
 7951SOL     OW25626   7.944  10.940   4.164
 7951SOL    HW125627   7.968  10.975   4.249
 7951SOL    HW225628   7.890  10.863   4.183
 7952SOL     OW25629   0.828   0.387  11.129
 7952SOL    HW125630   0.849   0.480  11.125
 7952SOL    HW225631   0.835   0.356  11.039
 7953SOL     OW25632   5.994   8.484  12.305
 7953SOL    HW125633   5.998   8.579  12.305
 7953SOL    HW225634   6.029   8.458  12.391
 7954SOL     OW25635  12.448   5.402  11.052
 7954SOL    HW125636  12.353   5.391  11.047
 7954SOL    HW225637  12.465   5.427  11.142
 7955SOL     OW25638   4.347   7.499   5.236
 7955SOL    HW125639   4.404   7.423   5.226
 7955SOL    HW225640   4.356   7.547   5.153
 7956SOL     OW25641   5.145   7.925  13.618
 7956SOL    HW125642   5.175   8.013  13.643
 7956SOL    HW225643   5.144   7.876  13.700
 7957SOL     OW25644   9.483  14.803   3.310
 7957SOL    HW125645   9.422  14.755   3.254
 7957SOL    HW225646   9.492   0.011   3.268
 7958SOL     OW25647   2.441   0.791  10.288
 7958SOL    HW125648   2.420   0.801  10.195
 7958SOL    HW225649   2.408   0.703  10.310
 7959SOL     OW25650   6.721  11.797   0.408
 7959SOL    HW125651   6.710  11.725   0.346
 7959SOL    HW225652   6.755  11.755   0.487
 7960SOL     OW25653   6.162   2.124   4.067
 7960SOL    HW125654   6.089   2.064   4.081
 7960SOL    HW225655   6.125   2.197   4.017
 7961SOL     OW25656  10.916   7.822  13.771
 7961SOL    HW125657  10.933   7.757  13.839
 7961SOL    HW225658  11.002   7.860  13.752
 7962SOL     OW25659  14.701   6.320  10.585
 7962SOL    HW125660  14.765   6.387  10.611
 7962SOL    HW225661  14.617   6.355  10.613
 7963SOL     OW25662  13.317   3.044   7.490
 7963SOL    HW125663  13.379   2.997   7.433
 7963SOL    HW225664  13.231   3.010   7.465
 7964SOL     OW25665   6.252   3.633  10.508
 7964SOL    HW125666   6.243   3.539  10.523
 7964SOL    HW225667   6.345   3.651  10.519
 7965SOL     OW25668   1.723  10.222   9.887
 7965SOL    HW125669   1.798  10.208   9.829
 7965SOL    HW225670   1.749  10.183   9.970
 7966SOL     OW25671   2.158   6.620  13.769
 7966SOL    HW125672   2.155   6.642  13.675
 7966SOL    HW225673   2.249   6.595  13.784
 7967SOL     OW25674   3.630   6.320   1.525
 7967SOL    HW125675   3.638   6.237   1.572
 7967SOL    HW225676   3.564   6.303   1.457
 7968SOL     OW25677   3.905   6.164  13.520
 7968SOL    HW125678   3.979   6.218  13.493
 7968SOL    HW225679   3.836   6.227  13.541
 7969SOL     OW25680   5.010   3.662   0.790
 7969SOL    HW125681   4.930   3.680   0.840
 7969SOL    HW225682   5.049   3.748   0.774
 7970SOL     OW25683   3.006   6.028  12.010
 7970SOL    HW125684   2.978   6.061  12.096
 7970SOL    HW225685   2.925   5.995  11.971
 7971NA      NA25686   7.785   6.477   4.843
 7972NA      NA25687  10.650   7.999   8.378
 7973NA      NA25688  11.788   1.727   6.890
 7974NA      NA25689  12.333   0.567   6.654
 7975NA      NA25690   1.574   5.041   7.770
 7976NA      NA25691   9.469   4.726   6.932
 7977NA      NA25692  11.315   1.030   6.746
 7978NA      NA25693  10.946   6.881  12.730
 7979NA      NA25694  10.665   4.251   8.871
 7980NA      NA25695   8.610   4.266   6.938
 7981NA      NA25696  10.393   2.064   3.839
 7982NA      NA25697  12.588   6.174   8.121
 7983NA      NA25698  10.502   3.922   8.084
 7984NA      NA25699  10.662   9.736   3.095
 7985NA      NA25700   5.228   4.200  12.628
 7986NA      NA25701   6.608   4.640   5.488
 7987NA      NA25702   6.333   2.713   6.133
 7988NA      NA25703   9.846  10.820   8.465
 7989NA      NA25704  10.785  11.084   8.097
 7990NA      NA25705  11.199   5.951   8.514
 7991NA      NA25706   4.298   2.050   5.091
 7992NA      NA25707  10.032   5.075   8.196
 7993NA      NA25708  10.984   6.991   6.754
 7994NA      NA25709  11.347   2.627   7.539
 7995NA      NA25710   6.168  13.809  10.909
 7996NA      NA25711   8.144   4.838   0.272
 7997NA      NA25712   9.256   2.708  10.331
 7998NA      NA25713   9.583   7.231  10.063
 7999NA      NA25714  13.119   9.142   1.600
 8000NA      NA25715  10.402   1.977   6.618
 8001NA      NA25716   8.126  12.143   0.911
 8002NA      NA25717   8.410   7.087   6.570
 8003NA      NA25718  10.200   2.720   7.592
 8004NA      NA25719  10.955   4.285   6.597
 8005NA      NA25720   9.717   8.960   8.143
 8006NA      NA25721  10.051   6.173   8.486
 8007NA      NA25722  10.520   8.158   9.291
 8008NA      NA25723   9.692   3.701   8.082
 8009NA      NA25724  10.576   4.820   7.494
 8010NA      NA25725   9.174  12.747   7.308
 8011NA      NA25726   9.861   3.683  10.664
 8012NA      NA25727   9.122   7.032   8.785
 8013NA      NA25728   4.926   0.340   5.017
 8014NA      NA25729   6.573   7.196   5.031
 8015NA      NA25730  12.739   3.107   4.632
 8016NA      NA25731  10.284   6.317   7.031
 8017NA      NA25732   9.290   6.814   7.783
 8018NA      NA25733   9.916   1.103   5.990
 8019NA      NA25734   2.290  10.190   2.267
 8020NA      NA25735  14.615   9.481   8.964
 8021NA      NA25736   8.474   5.999   7.836
 8022NA      NA25737   8.174   7.219   7.205
 8023NA      NA25738   0.582   2.769   3.276
 8024NA      NA25739  10.736   2.919   6.247
 8025NA      NA25740  11.774   4.777   4.754
 8026NA      NA25741  13.551  10.976   4.226
 8027NA      NA25742  13.374   1.730   9.054
 8028NA      NA25743   7.816   8.076   9.390
 8029NA      NA25744   8.824   9.723   8.645
  14.87743  14.87743  14.87743
